cancer0
299719
    1DOPC   NC3    1   2.051   9.145  16.081  0.3008 -0.1467  0.2578
    1DOPC   PO4    2   2.134   8.994  16.419  0.1113 -0.0491 -0.0166
    1DOPC   GL1    3   2.281   8.717  16.083 -0.4431  0.0111  0.0796
    1DOPC   GL2    4   2.041   8.661  15.939 -0.1897  0.2938  0.1613
    1DOPC   C1A    5   2.487   8.716  15.674 -0.1996  0.2679 -0.0756
    1DOPC   D2A    6   2.319   8.742  15.207 -0.1595 -0.0153  0.3003
    1DOPC   C3A    7   2.306   9.189  15.034 -0.0845 -0.2040 -0.3058
    1DOPC   C4A    8   2.449   9.582  14.834 -0.0732 -0.1494  0.1825
    1DOPC   C1B    9   2.005   8.557  15.547  0.2192  0.3318 -0.2664
    1DOPC   D2B   10   2.102   8.245  15.196 -0.1613 -0.1732 -0.1866
    1DOPC   C3B   11   2.009   8.566  14.844 -0.0217  0.2189  0.2745
    1DOPC   C4B   12   1.924   8.357  14.455  0.0437 -0.2948 -0.0529
    2DOPC   NC3   13   8.843   2.649  15.229  0.2108 -0.1186  0.1714
    2DOPC   PO4   14   8.944   2.593  15.615 -0.0942 -0.0550 -0.1215
    2DOPC   GL1   15   9.004   2.970  15.489 -0.0441  0.1235 -0.0230
    2DOPC   GL2   16   9.287   2.912  15.494  0.1985  0.0324  0.0439
    2DOPC   C1A   17   9.026   3.063  15.018  0.1191  0.0076 -0.2279
    2DOPC   D2A   18   8.973   3.427  14.764  0.2452  0.0498 -0.0644
    2DOPC   C3A   19   9.052   3.414  14.303  0.2742  0.0823 -0.1556
    2DOPC   C4A   20   9.145   3.409  13.845  0.5588  0.0644 -0.0626
    2DOPC   C1B   21   9.632   2.899  15.214 -0.1219 -0.0145 -0.2216
    2DOPC   D2B   22   9.915   2.912  14.881  0.0695 -0.0155 -0.0501
    2DOPC   C3B   23   9.815   2.994  14.425 -0.3529  0.3540 -0.1147
    2DOPC   C4B   24   9.453   3.133  14.130 -0.4498 -0.3850  0.0226
    3DOPE   NH3   25   9.275   9.680  15.407  0.0638  0.2334  0.1518
    3DOPE   PO4   26   9.396   9.369  15.382  0.0086  0.1981  0.0720
    3DOPE   GL1   27   9.665   9.632  15.039  0.1966  0.0597 -0.1291
    3DOPE   GL2   28   9.464   9.436  14.863  0.1612 -0.0824 -0.0242
    3DOPE   C1A   29  10.045   9.460  14.926 -0.3532  0.0056 -0.0670
    3DOPE   D2A   30  10.390   9.196  14.753 -0.0963  0.1925 -0.0225
    3DOPE   C3A   31  10.533   9.241  14.316  0.0775  0.0688  0.2228
    3DOPE   C4A   32  10.725   9.498  13.952 -0.2283  0.2500 -0.0381
    3DOPE   C1B   33   9.450   9.477  14.381  0.3141 -0.4490 -0.0317
    3DOPE   D2B   34   9.078   9.342  14.120  0.1961  0.1019  0.1502
    3DOPE   C3B   35   8.768   9.400  13.765 -0.0280  0.0665  0.0389
    3DOPE   C4B   36   8.329   9.338  13.716 -0.1211 -0.0308  0.0387
    4DOPE   NH3   37   0.415   8.440  16.370  0.3586 -0.0236 -0.3950
    4DOPE   PO4   38   0.736   8.460  16.285 -0.2054 -0.2232  0.2039
    4DOPE   GL1   39   1.060   8.701  16.107 -0.0682 -0.1861  0.2196
    4DOPE   GL2   40   1.003   8.562  15.846  0.0788 -0.1869  0.0510
    4DOPE   C1A   41   1.142   9.078  15.817  0.0207  0.2128  0.0342
    4DOPE   D2A   42   1.385   9.426  15.717  0.2159 -0.1309 -0.0418
    4DOPE   C3A   43   1.775   9.411  15.493  0.0381 -0.1834  0.2282
    4DOPE   C4A   44   1.915   9.512  15.045  0.2483  0.0501  0.0790
    4DOPE   C1B   45   0.799   8.842  15.455 -0.1478  0.2148 -0.0135
    4DOPE   D2B   46   1.006   8.939  15.099  0.0385 -0.0206  0.1321
    4DOPE   C3B   47   1.004   9.400  14.871  0.0735  0.2935  0.0100
    4DOPE   C4B   48   1.154   9.566  14.516  0.1719  0.2680 -0.2238
    5DOPC   NC3   49   8.950  11.119  15.894  0.1274 -0.0738  0.2486
    5DOPC   PO4   50   9.323  11.088  15.923  0.2747 -0.1352 -0.0352
    5DOPC   GL1   51   9.174  11.276  15.543 -0.0858  0.2783 -0.0345
    5DOPC   GL2   52   8.916  11.398  15.431  0.0595 -0.0204 -0.0550
    5DOPC   C1A   53   9.241  11.209  15.099  0.0701 -0.1580  0.0894
    5DOPC   D2A   54   9.267  11.462  14.644 -0.0733  0.0548  0.1578
    5DOPC   C3A   55   9.220  11.195  14.238  0.0419 -0.1496  0.0081
    5DOPC   C4A   56   9.261  11.010  13.798 -0.0854 -0.1372  0.1294
    5DOPC   C1B   57   8.529  11.643  15.249 -0.2371  0.1963  0.1449
    5DOPC   D2B   58   8.159  11.710  14.962 -0.0350 -0.0250  0.0452
    5DOPC   C3B   59   8.033  12.083  14.672  0.1723  0.0520 -0.2310
    5DOPC   C4B   60   7.746  12.093  14.295  0.0647  0.2404 -0.0849
    6DOPC   NC3   61  10.531   8.862  16.187 -0.0428  0.0940 -0.1076
    6DOPC   PO4   62  10.695   8.877  15.859  0.3456  0.2117 -0.1085
    6DOPC   GL1   63  10.728   9.169  15.582  0.2950 -0.2485 -0.1428
    6DOPC   GL2   64  10.567   9.410  15.590 -0.3273  0.3359  0.0165
    6DOPC   C1A   65  11.080   9.495  15.479  0.1922 -0.0105  0.1571
    6DOPC   D2A   66  11.387   9.791  15.303 -0.1076 -0.2999 -0.1018
    6DOPC   C3A   67  11.531  10.251  15.209 -0.1572 -0.3208  0.0485
    6DOPC   C4A   68  11.480  10.655  14.991 -0.1936  0.1436  0.1927
    6DOPC   C1B   69  10.468   9.612  15.147 -0.0864 -0.2855  0.1253
    6DOPC   D2B   70  10.437   9.703  14.623  0.3142  0.0728  0.1442
    6DOPC   C3B   71  10.039   9.477  14.348 -0.0044 -0.1651 -0.0712
    6DOPC   C4B   72   9.889   9.374  13.899  0.0468  0.1011 -0.2905
    7POSM   NC3   73   3.764   3.053  15.995 -0.0953  0.0487 -0.1312
    7POSM   PO4   74   3.626   3.351  16.219 -0.0739  0.1444  0.1917
    7POSM   AM1   75   3.491   3.409  15.925  0.3613  0.0852 -0.1815
    7POSM   AM2   76   3.582   3.379  15.667  0.1997 -0.2615 -0.2689
    7POSM   T1A   77   3.321   3.809  15.695  0.0587  0.0639 -0.2521
    7POSM   C2A   78   2.990   4.045  15.540  0.3301  0.1549 -0.1830
    7POSM   C3A   79   2.533   4.062  15.407 -0.0314  0.0782 -0.2980
    7POSM   C1B   80   3.602   3.311  15.349  0.3323 -0.1713 -0.2223
    7POSM   D2B   81   3.382   3.300  14.934 -0.1604 -0.0580 -0.0577
    7POSM   C3B   82   3.476   3.095  14.534  0.2205 -0.0821 -0.0105
    7POSM   C4B   83   3.859   2.788  14.457  0.2846  0.2150  0.1466
    8DOPS   CNO   84   8.958   9.080  15.345 -0.0579 -0.0676  0.0174
    8DOPS   PO4   85   8.719   9.348  15.453  0.0606 -0.0393 -0.1822
    8DOPS   GL1   86   8.497   9.336  15.090  0.4461  0.4505  0.0629
    8DOPS   GL2   87   8.229   9.233  15.091  0.1654  0.1905  0.2102
    8DOPS   C1A   88   8.491   9.590  14.750 -0.2078 -0.2803 -0.0390
    8DOPS   D2A   89   8.546   9.988  14.534  0.1411 -0.3100  0.3616
    8DOPS   C3A   90   8.450  10.462  14.689 -0.0221  0.0724  0.2081
    8DOPS   C4A   91   8.427  10.885  14.680 -0.0555 -0.3393 -0.0076
    8DOPS   C1B   92   8.237   9.208  14.671  0.0587  0.0819  0.0495
    8DOPS   D2B   93   8.214   9.312  14.234  0.3369 -0.2674  0.0211
    8DOPS   C3B   94   8.340   8.930  13.986  0.0166  0.1848  0.1471
    8DOPS   C4B   95   8.156   8.643  13.697 -0.0994 -0.0299  0.0802
    9DOPC   NC3   96   6.088   2.813  16.414  0.0499  0.1766  0.0140
    9DOPC   PO4   97   5.819   3.001  16.233 -0.1669  0.0767  0.2631
    9DOPC   GL1   98   5.575   3.168  15.976 -0.2238  0.0275  0.3505
    9DOPC   GL2   99   5.387   2.996  15.882 -0.0147 -0.2321 -0.2498
    9DOPC   C1A  100   5.651   3.098  15.510  0.0073 -0.1761 -0.1072
    9DOPC   D2A  101   5.922   3.334  15.252  0.0273 -0.0749  0.3226
    9DOPC   C3A  102   5.930   3.286  14.817  0.2605  0.2940  0.0487
    9DOPC   C4A  103   5.815   3.093  14.402  0.1406  0.1712 -0.0240
    9DOPC   C1B  104   5.098   2.677  15.703 -0.1774 -0.0874  0.2049
    9DOPC   D2B  105   4.707   2.430  15.649 -0.0394 -0.1040 -0.1151
    9DOPC   C3B  106   4.327   2.681  15.524 -0.0014 -0.1566 -0.3639
    9DOPC   C4B  107   3.956   2.978  15.419 -0.0332 -0.1539 -0.0565
   10DOPE   NH3  108   3.332   5.339  16.444  0.0544  0.2370 -0.0891
   10DOPE   PO4  109   3.256   5.563  16.647 -0.1435  0.2178 -0.0134
   10DOPE   GL1  110   2.889   5.562  16.321  0.0544  0.4143  0.1699
   10DOPE   GL2  111   3.015   5.464  16.071  0.0171  0.0205  0.2398
   10DOPE   C1A  112   2.518   5.492  15.978  0.1979 -0.5180 -0.1395
   10DOPE   D2A  113   2.498   5.441  15.511  0.0087 -0.0774  0.1810
   10DOPE   C3A  114   2.680   5.043  15.208  0.0477  0.0959 -0.0437
   10DOPE   C4A  115   2.719   4.844  14.843 -0.1787 -0.0720 -0.3159
   10DOPE   C1B  116   2.912   5.649  15.659  0.1806  0.0388 -0.1160
   10DOPE   D2B  117   3.228   5.741  15.339  0.0003  0.1733 -0.3207
   10DOPE   C3B  118   3.438   5.593  14.983 -0.0794 -0.0763  0.1705
   10DOPE   C4B  119   3.674   5.280  14.921  0.3762  0.1755  0.1910
   11POSM   NC3  120   9.146   8.631  15.515 -0.2356 -0.1088  0.0882
   11POSM   PO4  121   8.778   8.552  15.389  0.1543  0.0763 -0.0209
   11POSM   AM1  122   8.840   8.659  15.110 -0.1384 -0.2742  0.0088
   11POSM   AM2  123   8.701   8.879  14.979 -0.0367 -0.0565 -0.0775
   11POSM   T1A  124   9.028   8.503  14.715  0.1182 -0.1588 -0.0240
   11POSM   C2A  125   9.316   8.211  14.431 -0.1191  0.0821  0.1170
   11POSM   C3A  126   9.253   8.071  14.005  0.0075 -0.0928  0.1746
   11POSM   C1B  127   8.678   8.951  14.661 -0.2760 -0.0744 -0.1240
   11POSM   D2B  128   8.713   9.057  14.270  0.1442  0.0744  0.0794
   11POSM   C3B  129   8.973   8.944  13.873  0.4954  0.0216 -0.1877
   11POSM   C4B  130   9.327   8.968  13.598 -0.1735  0.0969 -0.1006
   12DOPS   CNO  131   6.035  11.198  16.372  0.2340  0.0094 -0.2854
   12DOPS   PO4  132   5.723  11.360  16.243 -0.0260 -0.2111 -0.0917
   12DOPS   GL1  133   5.780  11.518  15.994  0.2956  0.3795  0.1457
   12DOPS   GL2  134   5.695  11.479  15.760  0.0380  0.1614 -0.0965
   12DOPS   C1A  135   5.980  11.891  15.780 -0.0392 -0.1976  0.1218
   12DOPS   D2A  136   6.121  12.203  15.428 -0.2128  0.3129  0.0049
   12DOPS   C3A  137   6.288  11.949  15.048  0.3057 -0.0647 -0.0338
   12DOPS   C4A  138   6.139  11.768  14.622  0.3486 -0.2672  0.4480
   12DOPS   C1B  139   5.593  11.773  15.465 -0.0024 -0.3236 -0.0519
   12DOPS   D2B  140   5.625  11.979  15.080  0.3314  0.2076 -0.2675
   12DOPS   C3B  141   5.658  11.723  14.663 -0.0278  0.0814 -0.1371
   12DOPS   C4B  142   5.668  11.303  14.462  0.0961 -0.1038  0.0953
   13DOPC   NC3  143   9.761   2.741  15.713  0.2372  0.2228 -0.0471
   13DOPC   PO4  144  10.121   2.665  15.778  0.0814 -0.4356 -0.2214
   13DOPC   GL1  145   9.999   2.506  15.366  0.0356 -0.1908 -0.3424
   13DOPC   GL2  146   9.728   2.407  15.319 -0.1492  0.1092  0.2213
   13DOPC   C1A  147  10.301   2.195  15.231 -0.0650  0.1287 -0.1679
   13DOPC   D2A  148  10.445   1.728  15.118 -0.3558 -0.2773 -0.2312
   13DOPC   C3A  149  10.247   1.385  14.809  0.0810  0.1123  0.0339
   13DOPC   C4A  150  10.284   0.929  14.640 -0.0606 -0.0475  0.1279
   13DOPC   C1B  151   9.852   2.288  14.929 -0.0550  0.0341 -0.4008
   13DOPC   D2B  152   9.692   2.122  14.511 -0.2394  0.0661  0.0107
   13DOPC   C3B  153   9.987   1.746  14.316  0.3902  0.0561  0.1060
   13DOPC   C4B  154  10.220   1.390  14.286  0.0376 -0.0021  0.0827
   14DOPE   NH3  155   7.109   5.128  15.954  0.1776  0.1573  0.1363
   14DOPE   PO4  156   6.905   4.881  16.085  0.2772 -0.0576 -0.1040
   14DOPE   GL1  157   6.679   4.899  15.721  0.0116  0.2385  0.0174
   14DOPE   GL2  158   6.893   5.007  15.523 -0.0601  0.2129  0.1492
   14DOPE   C1A  159   6.599   4.552  15.474  0.0278  0.0844  0.0434
   14DOPE   D2A  160   6.372   4.223  15.196  0.0899  0.1452  0.2154
   14DOPE   C3A  161   5.916   4.458  15.098 -0.0620  0.1989  0.1086
   14DOPE   C4A  162   5.640   4.658  14.760 -0.0432 -0.1785 -0.0278
   14DOPE   C1B  163   6.521   5.124  15.235 -0.1142  0.1430 -0.0139
   14DOPE   D2B  164   6.291   5.386  14.970 -0.3667  0.1452  0.0916
   14DOPE   C3B  165   6.452   5.423  14.571 -0.1904 -0.0059 -0.2049
   14DOPE   C4B  166   6.342   5.330  14.133 -0.0244  0.2155  0.1241
   15DOPE   NH3  167   5.014   5.209  15.945  0.1621  0.0631 -0.1781
   15DOPE   PO4  168   5.166   4.968  16.053  0.4031  0.1011 -0.1815
   15DOPE   GL1  169   5.210   4.917  15.612 -0.3574 -0.0119 -0.1547
   15DOPE   GL2  170   5.420   5.144  15.581 -0.1555  0.0692  0.0386
   15DOPE   C1A  171   5.032   4.770  15.171  0.0522 -0.3236 -0.2260
   15DOPE   D2A  172   4.992   4.893  14.770  0.0994 -0.1174 -0.0428
   15DOPE   C3A  173   4.907   4.899  14.287 -0.1048 -0.0572 -0.1923
   15DOPE   C4A  174   4.821   4.607  13.875 -0.0281  0.2674  0.0785
   15DOPE   C1B  175   5.459   5.026  15.077  0.0176  0.0516 -0.4086
   15DOPE   D2B  176   5.403   5.089  14.628  0.1591  0.0614  0.0409
   15DOPE   C3B  177   5.101   5.322  14.327 -0.0645  0.1590 -0.0786
   15DOPE   C4B  178   4.808   5.293  13.992 -0.1316 -0.1400  0.1382
   16DOPC   NC3  179   8.022  10.530  16.628  0.1521  0.3459 -0.2092
   16DOPC   PO4  180   8.153  10.519  16.239 -0.0179  0.0236  0.1183
   16DOPC   GL1  181   7.939  10.552  15.817 -0.1576 -0.0123  0.1735
   16DOPC   GL2  182   8.032  10.833  15.769 -0.1487  0.2240  0.0240
   16DOPC   C1A  183   7.862  10.185  15.525  0.0961  0.2786  0.0159
   16DOPC   D2A  184   7.728   9.881  15.226  0.1035 -0.0913  0.0998
   16DOPC   C3A  185   7.486  10.020  14.868 -0.0240 -0.4763  0.1860
   16DOPC   C4A  186   7.063   9.923  14.752 -0.0458  0.2803 -0.2702
   16DOPC   C1B  187   8.344  11.227  15.706 -0.0261 -0.1076  0.0543
   16DOPC   D2B  188   8.439  11.679  15.744  0.2398  0.1583 -0.1718
   16DOPC   C3B  189   8.159  11.859  15.422 -0.0285  0.1145  0.0059
   16DOPC   C4B  190   8.164  12.183  15.207 -0.0882 -0.2981 -0.0430
   17POSM   NC3  191   9.373   6.688  16.410 -0.0687 -0.0260 -0.2840
   17POSM   PO4  192   9.479   6.898  16.116 -0.0986 -0.3599  0.1612
   17POSM   AM1  193   9.311   6.757  15.879  0.0119  0.2819 -0.1561
   17POSM   AM2  194   9.369   6.580  15.666 -0.0389  0.0343  0.1303
   17POSM   T1A  195   9.001   6.826  15.478 -0.1627 -0.0157 -0.1989
   17POSM   C2A  196   8.721   7.073  15.086 -0.0832 -0.0182 -0.0492
   17POSM   C3A  197   8.538   7.054  14.701  0.0677 -0.0267  0.2268
   17POSM   C1B  198   9.597   6.393  15.480 -0.4832 -0.0475 -0.0057
   17POSM   D2B  199   9.874   6.324  15.076  0.2053 -0.0687 -0.0022
   17POSM   C3B  200   9.616   6.399  14.755 -0.0829 -0.0930  0.1109
   17POSM   C4B  201   9.343   6.201  14.388  0.1827  0.1489  0.0573
   18DOPE   NH3  202  34.605   9.904  16.232  0.0297  0.3628  0.2253
   18DOPE   PO4  203  34.896   9.830  16.285 -0.0977 -0.1847  0.1814
   18DOPE   GL1  204  34.992   9.677  15.882  0.0764 -0.1325 -0.1808
   18DOPE   GL2  205  34.960   9.870  15.757  0.1082  0.0583  0.1849
   18DOPE   C1A  206  35.277   9.518  15.571 -0.0985 -0.1436  0.0885
   18DOPE   D2A  207  35.656   9.395  15.391  0.1477 -0.3112  0.2697
   18DOPE   C3A  208  36.117   9.243  15.210  0.3997 -0.0751 -0.0139
   18DOPE   C4A  209  36.483   8.960  15.087  0.2883 -0.0309  0.0362
   18DOPE   C1B  210  34.690  10.190  15.547 -0.1730  0.1448 -0.3478
   18DOPE   D2B  211  34.278  10.275  15.314 -0.1562 -0.1435 -0.0735
   18DOPE   C3B  212  34.270  10.225  14.880  0.0207  0.2929  0.1304
   18DOPE   C4B  213  34.479  10.218  14.526 -0.1796 -0.0325 -0.1559
   19DOPS   CNO  214   4.590   1.657  16.272  0.0525 -0.1395 -0.0722
   19DOPS   PO4  215   4.740   1.952  16.445  0.2655 -0.1100  0.1161
   19DOPS   GL1  216   4.672   2.079  16.020 -0.0822  0.1598 -0.1622
   19DOPS   GL2  217   4.383   2.132  16.122  0.1126 -0.3853  0.1573
   19DOPS   C1A  218   4.541   1.924  15.593 -0.0017  0.0171  0.1908
   19DOPS   D2A  219   4.453   1.598  15.305  0.1801  0.0822  0.2290
   19DOPS   C3A  220   4.265   1.761  14.872  0.2980 -0.0769 -0.0253
   19DOPS   C4A  221   3.919   1.712  14.620 -0.2068  0.3400 -0.0336
   19DOPS   C1B  222   4.221   2.269  15.683 -0.2626 -0.2142 -0.0904
   19DOPS   D2B  223   4.370   2.205  15.223 -0.1044  0.0410  0.2013
   19DOPS   C3B  224   4.326   2.626  15.042 -0.0977 -0.0298 -0.4727
   19DOPS   C4B  225   4.387   3.062  15.181 -0.2516  0.0800 -0.1831
   20POSM   NC3  226   7.892   8.253  15.608 -0.3018  0.1172  0.0736
   20POSM   PO4  227   7.690   8.213  15.914  0.1080 -0.1964  0.1082
   20POSM   AM1  228   7.413   8.298  15.727  0.2713  0.0188  0.0043
   20POSM   AM2  229   7.360   8.401  15.476  0.0650  0.0605 -0.1978
   20POSM   T1A  230   6.962   8.124  15.647  0.1942 -0.0183 -0.0714
   20POSM   C2A  231   6.556   7.899  15.571  0.1496  0.0299  0.3207
   20POSM   C3A  232   6.099   7.731  15.493 -0.3271 -0.0345  0.2758
   20POSM   C1B  233   7.182   8.280  15.234  0.0536  0.2145  0.1118
   20POSM   D2B  234   7.235   8.152  14.778 -0.1184  0.0940  0.3845
   20POSM   C3B  235   7.137   8.385  14.383 -0.1579 -0.3350  0.0576
   20POSM   C4B  236   7.000   8.609  14.079 -0.1256  0.1055 -0.1652
   21POSM   NC3  237   5.808   9.005  16.486 -0.1910  0.1193  0.0587
   21POSM   PO4  238   5.643   8.642  16.402 -0.0841 -0.5647  0.1002
   21POSM   AM1  239   5.538   8.506  16.102 -0.2093 -0.4412 -0.2307
   21POSM   AM2  240   5.376   8.623  15.932 -0.1137  0.2758  0.1591
   21POSM   T1A  241   5.522   8.140  15.727  0.0137  0.1192  0.1071
   21POSM   C2A  242   5.654   8.046  15.263  0.1374 -0.1248 -0.2200
   21POSM   C3A  243   5.612   7.667  14.988 -0.0935 -0.0156  0.0905
   21POSM   C1B  244   5.080   8.467  15.852  0.3858  0.0128 -0.1115
   21POSM   D2B  245   4.695   8.574  15.565 -0.0180 -0.2412  0.0465
   21POSM   C3B  246   4.338   8.422  15.289 -0.3225 -0.0772  0.1908
   21POSM   C4B  247   3.964   8.251  15.080 -0.1473  0.2876 -0.3632
   22DOPC   NC3  248   2.641   0.551  15.957  0.1466  0.0503 -0.2854
   22DOPC   PO4  249   2.899   0.261  15.917 -0.0133 -0.1242 -0.2856
   22DOPC   GL1  250   2.846   0.445  15.567 -0.0184 -0.0737  0.2809
   22DOPC   GL2  251   2.658   0.187  15.536 -0.3404 -0.0924  0.0688
   22DOPC   C1A  252   2.563   0.819  15.463 -0.0170  0.2302  0.0578
   22DOPC   D2A  253   2.275   1.004  15.115 -0.2933  0.2251  0.0641
   22DOPC   C3A  254   2.395   0.810  14.671  0.1087  0.1565 -0.3101
   22DOPC   C4A  255   2.513   0.999  14.248 -0.1121  0.0904  0.0733
   22DOPC   C1B  256   2.469  -0.148  15.303  0.1526 -0.0770 -0.0637
   22DOPC   D2B  257   2.474  -0.234  14.886 -0.0565  0.2686  0.0010
   22DOPC   C3B  258   2.838   0.045  14.762  0.1361 -0.0303 -0.1951
   22DOPC   C4B  259   2.937   0.469  14.517  0.1835 -0.1817  0.0022
   23DOPS   CNO  260   8.171   4.376  16.520 -0.1577  0.1301  0.0182
   23DOPS   PO4  261   7.857   4.471  16.342  0.2452 -0.2652 -0.2348
   23DOPS   GL1  262   7.951   4.370  15.941  0.0084  0.4057  0.1998
   23DOPS   GL2  263   7.816   4.538  15.783 -0.0658 -0.0440 -0.0493
   23DOPS   C1A  264   8.127   4.111  15.582  0.3054 -0.1416 -0.1787
   23DOPS   D2A  265   8.247   4.055  15.156 -0.1722  0.1821  0.1173
   23DOPS   C3A  266   8.189   4.187  14.688 -0.2128  0.2358 -0.1265
   23DOPS   C4A  267   8.223   4.529  14.366 -0.1109  0.0395  0.1591
   23DOPS   C1B  268   7.819   4.845  15.466 -0.1572 -0.1545  0.0466
   23DOPS   D2B  269   8.075   4.996  15.149  0.0309  0.0415 -0.0434
   23DOPS   C3B  270   8.328   5.369  14.954 -0.3258 -0.1831  0.0992
   23DOPS   C4B  271   8.315   5.825  15.079 -0.0023 -0.0889 -0.4390
   24DOPE   NH3  272   9.498  10.346  15.735  0.0845 -0.2970  0.0013
   24DOPE   PO4  273   9.250  10.074  15.705 -0.0946  0.3432  0.1948
   24DOPE   GL1  274   9.292  10.293  15.319  0.0287  0.1108  0.1995
   24DOPE   GL2  275   9.271  10.062  15.104 -0.0662 -0.0151 -0.2123
   24DOPE   C1A  276   9.380  10.502  14.911  0.0136  0.3656 -0.1126
   24DOPE   D2A  277   9.411  10.904  14.593  0.0730  0.2100 -0.1522
   24DOPE   C3A  278   9.842  10.896  14.519  0.3349 -0.0779 -0.1302
   24DOPE   C4A  279  10.197  10.912  14.286 -0.1925  0.1633 -0.2047
   24DOPE   C1B  280   8.910  10.200  14.899 -0.0744  0.2051 -0.1935
   24DOPE   D2B  281   8.874  10.357  14.472 -0.1570  0.0636 -0.1510
   24DOPE   C3B  282   8.568  10.330  14.147  0.3041  0.2447  0.3421
   24DOPE   C4B  283   8.294  10.464  13.796  0.3119 -0.1070  0.1043
   25POSM   NC3  284  10.528   5.095  15.525 -0.1002 -0.2051  0.3969
   25POSM   PO4  285  10.377   5.408  15.761 -0.0003  0.1524 -0.0218
   25POSM   AM1  286  10.269   5.509  15.481 -0.2490  0.2698  0.0930
   25POSM   AM2  287   9.970   5.536  15.355 -0.1586 -0.3140 -0.2096
   25POSM   T1A  288  10.460   5.838  15.148  0.1726  0.0938  0.0370
   25POSM   C2A  289  10.590   5.740  14.685 -0.0175  0.1154 -0.1432
   25POSM   C3A  290  10.622   5.559  14.292 -0.0139  0.1052  0.4110
   25POSM   C1B  291   9.970   5.756  15.110 -0.0498  0.1727  0.0578
   25POSM   D2B  292   9.943   6.018  14.696  0.0965  0.3752  0.0021
   25POSM   C3B  293   9.681   5.775  14.416 -0.1282 -0.5933  0.0559
   25POSM   C4B  294   9.598   5.627  13.992 -0.0603 -0.0155  0.1229
   26POSM   NC3  295  11.249   1.432  15.409  0.1761  0.2757  0.0924
   26POSM   PO4  296  10.907   1.716  15.474 -0.4485  0.2715 -0.0449
   26POSM   AM1  297  11.129   1.936  15.360 -0.0519  0.1150 -0.0074
   26POSM   AM2  298  11.407   1.900  15.315  0.0850 -0.1250  0.0310
   26POSM   T1A  299  11.221   2.136  14.893  0.0726  0.0983 -0.0786
   26POSM   C2A  300  11.312   1.974  14.456  0.1161  0.0113 -0.0835
   26POSM   C3A  301  11.406   2.023  14.000  0.0385  0.2216  0.1799
   26POSM   C1B  302  11.528   1.769  15.050  0.3108 -0.1661 -0.0070
   26POSM   D2B  303  11.774   1.888  14.643  0.2142 -0.0435  0.3933
   26POSM   C3B  304  11.681   2.303  14.497 -0.0954 -0.0191 -0.0806
   26POSM   C4B  305  11.257   2.464  14.516 -0.1766 -0.0971  0.1589
   27DOPC   NC3  306   1.687   7.893  16.239 -0.0096  0.0957  0.1953
   27DOPC   PO4  307   1.799   8.043  16.598 -0.1075 -0.1732 -0.0202
   27DOPC   GL1  308   1.912   8.343  16.242  0.0151  0.1421 -0.1172
   27DOPC   GL2  309   1.629   8.472  16.324 -0.0392  0.3569  0.1864
   27DOPC   C1A  310   1.671   8.267  15.862 -0.1009 -0.0920 -0.0183
   27DOPC   D2A  311   1.291   8.101  15.604  0.2763  0.1818 -0.2041
   27DOPC   C3A  312   1.194   8.148  15.241  0.2755 -0.1844  0.0827
   27DOPC   C4A  313   0.814   7.944  15.068 -0.2449  0.2288  0.0609
   27DOPC   C1B  314   1.504   8.706  15.938 -0.0304  0.1389 -0.2768
   27DOPC   D2B  315   1.689   9.009  15.680  0.2395  0.1117 -0.0954
   27DOPC   C3B  316   2.160   9.037  15.596  0.0396  0.1025  0.3809
   27DOPC   C4B  317   2.545   9.123  15.439 -0.1694  0.0508 -0.0727
   28DOPC   NC3  318   0.809   2.260  16.214  0.0191 -0.5553  0.1836
   28DOPC   PO4  319   1.103   2.548  16.198 -0.0606  0.4156 -0.0005
   28DOPC   GL1  320   1.132   2.490  15.802  0.1146 -0.0289 -0.1310
   28DOPC   GL2  321   0.857   2.417  15.718 -0.0156 -0.0875  0.1942
   28DOPC   C1A  322   1.222   2.549  15.341  0.2288 -0.1282  0.1169
   28DOPC   D2A  323   1.231   2.787  14.934 -0.1558  0.2691  0.0212
   28DOPC   C3A  324   1.199   2.686  14.463 -0.0511  0.1135  0.0925
   28DOPC   C4A  325   1.356   2.967  14.109 -0.0408 -0.0432  0.4045
   28DOPC   C1B  326   0.836   2.074  15.430 -0.1751  0.0251 -0.2375
   28DOPC   D2B  327   0.854   1.701  15.215 -0.2194 -0.2953  0.0752
   28DOPC   C3B  328   0.891   1.671  14.736  0.1208 -0.2422  0.0361
   28DOPC   C4B  329   0.994   1.522  14.331 -0.1562  0.1496 -0.2136
   29POSM   NC3  330   6.791   0.118  16.173 -0.2477  0.0590 -0.2927
   29POSM   PO4  331   6.567   0.158  15.854  0.0771  0.1342 -0.2912
   29POSM   AM1  332   6.430   0.308  15.577  0.1141  0.0577  0.4021
   29POSM   AM2  333   6.238   0.505  15.459 -0.1915 -0.3395  0.2363
   29POSM   T1A  334   6.386   0.243  15.001 -0.3518 -0.4814  0.0246
   29POSM   C2A  335   6.137   0.213  14.570 -0.0112 -0.0809  0.1642
   29POSM   C3A  336   6.032   0.185  14.126  0.1253 -0.0216  0.2028
   29POSM   C1B  337   6.145   0.628  15.155 -0.2356 -0.1594  0.1192
   29POSM   D2B  338   6.117   0.865  14.751 -0.2000 -0.0102 -0.0523
   29POSM   C3B  339   6.436   1.170  14.569 -0.2276 -0.1032  0.1160
   29POSM   C4B  340   6.845   1.217  14.317 -0.3739 -0.2192 -0.0666
   30POSM   NC3  341  11.504   4.255  15.752 -0.2707 -0.1111 -0.2009
   30POSM   PO4  342  11.337   4.584  15.583  0.2530 -0.2532  0.0146
   30POSM   AM1  343  11.496   4.654  15.293 -0.1133  0.2166 -0.0505
   30POSM   AM2  344  11.693   4.794  15.163  0.2196  0.0799 -0.0290
   30POSM   T1A  345  11.505   4.527  14.825  0.1169  0.1137 -0.0076
   30POSM   C2A  346  11.350   4.414  14.376  0.0503 -0.0987 -0.3638
   30POSM   C3A  347  11.249   4.207  13.980 -0.4014  0.0989 -0.5490
   30POSM   C1B  348  11.641   4.991  14.943 -0.1939 -0.1002 -0.2311
   30POSM   D2B  349  11.585   5.415  14.694  0.2455 -0.1395  0.0623
   30POSM   C3B  350  11.645   5.553  14.269 -0.0615 -0.1423 -0.1995
   30POSM   C4B  351  11.631   5.817  13.833 -0.3528 -0.1533 -0.2650
   31DOPE   NH3  352   9.661  10.765  16.017 -0.2147 -0.2276  0.1050
   31DOPE   PO4  353   9.868  10.715  15.767  0.0307 -0.1267  0.0748
   31DOPE   GL1  354   9.875  10.699  15.436 -0.2552 -0.3126  0.6036
   31DOPE   GL2  355   9.718  10.456  15.276  0.0060 -0.3439  0.0207
   31DOPE   C1A  356  10.261  10.597  15.206  0.0944 -0.2025 -0.2631
   31DOPE   D2A  357  10.609  10.383  15.006  0.2212 -0.1445 -0.1210
   31DOPE   C3A  358  10.412  10.183  14.715 -0.1121 -0.3207 -0.2964
   31DOPE   C4A  359  10.215  10.129  14.329 -0.1767  0.1304 -0.0097
   31DOPE   C1B  360   9.904  10.485  14.866 -0.3139 -0.1561  0.0187
   31DOPE   D2B  361   9.810  10.443  14.470  0.0121  0.1841  0.0772
   31DOPE   C3B  362   9.374  10.401  14.410 -0.1547  0.0339  0.1047
   31DOPE   C4B  363   9.154  10.221  14.040 -0.0302  0.2392  0.1951
   32DOPC   NC3  364   7.186   9.788  16.166 -0.0557 -0.1809  0.1801
   32DOPC   PO4  365   7.232   9.540  15.877 -0.0091 -0.3940 -0.0190
   32DOPC   GL1  366   7.003   9.402  15.602  0.2824 -0.0023  0.1139
   32DOPC   GL2  367   7.166   9.344  15.399 -0.3131  0.3344 -0.3976
   32DOPC   C1A  368   6.691   9.691  15.476  0.0468 -0.1083 -0.3629
   32DOPC   D2A  369   6.691  10.128  15.429 -0.0956  0.3252 -0.0738
   32DOPC   C3A  370   6.670  10.091  14.986  0.1523 -0.1421  0.1977
   32DOPC   C4A  371   6.463   9.854  14.592  0.2257  0.0307  0.1931
   32DOPC   C1B  372   7.400   9.066  15.031  0.0196 -0.0223 -0.1524
   32DOPC   D2B  373   7.795   9.115  14.819 -0.2129 -0.0849 -0.1082
   32DOPC   C3B  374   7.815   9.133  14.352 -0.2766 -0.2098  0.4531
   32DOPC   C4B  375   7.871   9.016  13.870 -0.5897  0.1438 -0.0143
   33DOPE   NH3  376   8.193   6.006  16.641 -0.0826 -0.1052  0.1549
   33DOPE   PO4  377   8.261   5.845  16.365  0.1344  0.0960 -0.1186
   33DOPE   GL1  378   8.265   6.104  15.960 -0.2188 -0.1785 -0.0335
   33DOPE   GL2  379   8.155   5.842  15.823  0.2455 -0.1175  0.2530
   33DOPE   C1A  380   7.940   6.286  15.634 -0.1710  0.0802 -0.0965
   33DOPE   D2A  381   7.649   6.616  15.460 -0.1507  0.2167  0.0276
   33DOPE   C3A  382   7.575   6.779  15.033  0.0991 -0.1328  0.0217
   33DOPE   C4A  383   7.250   6.666  14.776  0.1393 -0.3937 -0.0890
   33DOPE   C1B  384   7.944   5.865  15.366  0.0508  0.3153  0.0446
   33DOPE   D2B  385   7.917   5.879  14.851  0.2010 -0.2385  0.0171
   33DOPE   C3B  386   8.087   5.618  14.555  0.3066 -0.0494  0.0786
   33DOPE   C4B  387   8.559   5.551  14.529 -0.2233 -0.1304  0.2591
   34DOPE   NH3  388  11.037   2.274  15.651 -0.1001  0.0571 -0.1858
   34DOPE   PO4  389  10.857   2.438  15.437  0.0161  0.1688  0.0323
   34DOPE   GL1  390  10.686   2.529  15.027  0.1094  0.2823 -0.0638
   34DOPE   GL2  391  10.846   2.549  14.757 -0.3967  0.0269 -0.3247
   34DOPE   C1A  392  10.254   2.528  14.836 -0.0514 -0.2527  0.0993
   34DOPE   D2A  393   9.984   2.515  14.436 -0.1232 -0.3872  0.1142
   34DOPE   C3A  394  10.042   2.250  14.102  0.2411 -0.2505  0.1585
   34DOPE   C4A  395  10.207   2.267  13.683  0.0055 -0.0241 -0.2987
   34DOPE   C1B  396  10.508   2.691  14.419 -0.0969  0.1406 -0.3293
   34DOPE   D2B  397  10.239   2.693  14.029  0.2294  0.0147  0.0215
   34DOPE   C3B  398   9.771   2.790  13.974  0.0276 -0.2578  0.2564
   34DOPE   C4B  399   9.414   2.954  13.661  0.3269  0.2789 -0.1076
   35DOPE   NH3  400   7.949   3.097  15.961  0.1983 -0.0937 -0.0031
   35DOPE   PO4  401   7.986   2.839  15.843  0.1456 -0.0316 -0.0959
   35DOPE   GL1  402   7.857   2.794  15.533  0.0997  0.3461 -0.1474
   35DOPE   GL2  403   7.573   2.935  15.550  0.1003  0.0639 -0.0550
   35DOPE   C1A  404   7.779   2.718  15.083  0.2700  0.2025 -0.2613
   35DOPE   D2A  405   7.854   2.905  14.696  0.1646  0.1582 -0.2175
   35DOPE   C3A  406   7.639   3.051  14.285 -0.0450  0.4264  0.2642
   35DOPE   C4A  407   7.319   3.176  14.015  0.0223  0.0293  0.0493
   35DOPE   C1B  408   7.535   3.169  15.134  0.0453  0.0650 -0.3360
   35DOPE   D2B  409   7.359   3.216  14.741  0.0108 -0.0024  0.1454
   35DOPE   C3B  410   7.350   3.566  14.432 -0.0377 -0.0021 -0.0120
   35DOPE   C4B  411   7.027   3.573  14.065  0.3464 -0.0909  0.0274
   36DOPS   CNO  412   0.218   6.012  16.657  0.1346 -0.1913  0.1388
   36DOPS   PO4  413   0.497   5.879  16.447 -0.2816 -0.3370  0.3274
   36DOPS   GL1  414   0.707   5.945  16.097  0.0143 -0.1406  0.2024
   36DOPS   GL2  415   0.625   5.741  15.869 -0.0551  0.0101 -0.2294
   36DOPS   C1A  416   1.119   5.808  15.961  0.0792  0.3691 -0.1419
   36DOPS   D2A  417   1.272   5.538  15.658  0.0165  0.1004  0.0014
   36DOPS   C3A  418   1.481   5.556  15.267  0.1226 -0.3110  0.2318
   36DOPS   C4A  419   1.867   5.652  14.963 -0.2004  0.1194  0.1145
   36DOPS   C1B  420   0.847   5.337  15.738  0.1180 -0.0858 -0.2851
   36DOPS   D2B  421   1.233   5.070  15.820  0.0491  0.3341 -0.0525
   36DOPS   C3B  422   1.620   5.127  15.538  0.0452 -0.1526  0.0237
   36DOPS   C4B  423   1.767   5.189  15.105 -0.0065 -0.1393 -0.1639
   37DOPE   NH3  424   6.497   6.518  16.127  0.3295 -0.1572 -0.1761
   37DOPE   PO4  425   6.331   6.728  16.224  0.1130  0.2951  0.0756
   37DOPE   GL1  426   6.290   6.947  15.883  0.2685 -0.2778 -0.1919
   37DOPE   GL2  427   6.546   6.914  15.775  0.0523  0.2284 -0.2394
   37DOPE   C1A  428   6.148   7.091  15.448  0.2655  0.1061  0.0525
   37DOPE   D2A  429   6.045   7.368  15.041 -0.3745  0.0099  0.0356
   37DOPE   C3A  430   6.369   7.486  14.674 -0.0123  0.0866 -0.0172
   37DOPE   C4A  431   6.336   7.797  14.383 -0.2258 -0.0976 -0.1566
   37DOPE   C1B  432   6.572   6.940  15.343  0.1114 -0.0792 -0.1481
   37DOPE   D2B  433   6.412   7.018  14.911  0.0726 -0.1405 -0.0069
   37DOPE   C3B  434   6.172   7.019  14.535 -0.1431 -0.1002  0.2402
   37DOPE   C4B  435   6.161   6.903  14.083 -0.1553  0.0588 -0.0844
   38DOPE   NH3  436   3.846   6.232  16.550 -0.1340  0.1557 -0.1486
   38DOPE   PO4  437   3.536   6.265  16.491 -0.0824 -0.0969  0.1882
   38DOPE   GL1  438   3.535   6.232  16.106  0.0023  0.3264  0.3089
   38DOPE   GL2  439   3.806   6.075  16.091  0.0885  0.0198 -0.0654
   38DOPE   C1A  440   3.403   6.565  15.783 -0.5840 -0.2240 -0.0795
   38DOPE   D2A  441   3.186   6.675  15.398  0.1345 -0.4233  0.4425
   38DOPE   C3A  442   3.264   6.873  14.969 -0.0820  0.4535  0.0562
   38DOPE   C4A  443   3.352   6.902  14.498 -0.2078  0.0852  0.1026
   38DOPE   C1B  444   3.724   6.015  15.620  0.3356  0.1486  0.0314
   38DOPE   D2B  445   3.537   6.187  15.213 -0.1082  0.0304 -0.2138
   38DOPE   C3B  446   3.679   6.258  14.809 -0.1245  0.0195 -0.0127
   38DOPE   C4B  447   3.609   6.426  14.396  0.0083  0.0688 -0.2031
   39POSM   NC3  448   2.888   0.905  16.726  0.0648  0.2290 -0.0691
   39POSM   PO4  449   2.911   0.702  16.432  0.1072 -0.2872  0.1385
   39POSM   AM1  450   3.059   0.772  16.111 -0.1385  0.0669  0.0120
   39POSM   AM2  451   3.327   0.846  15.941 -0.0500  0.4002 -0.1363
   39POSM   T1A  452   3.040   0.899  15.569 -0.2054  0.2683 -0.0371
   39POSM   C2A  453   3.208   0.660  15.188  0.1729  0.2511  0.0309
   39POSM   C3A  454   3.265   0.399  14.854 -0.0436  0.0471  0.0723
   39POSM   C1B  455   3.540   1.009  15.783 -0.1128 -0.1552  0.0637
   39POSM   D2B  456   3.778   1.324  15.571  0.1569  0.1183 -0.0253
   39POSM   C3B  457   3.917   1.073  15.194 -0.1942  0.0211  0.1877
   39POSM   C4B  458   4.055   1.335  14.842 -0.1623  0.0082  0.1321
   40POSM   NC3  459   4.441   3.690  16.404 -0.0641  0.3457 -0.0376
   40POSM   PO4  460   4.664   3.373  16.299  0.0679  0.4072  0.2328
   40POSM   AM1  461   4.629   3.488  16.011  0.1041 -0.0055  0.3264
   40POSM   AM2  462   4.423   3.656  15.859  0.2031 -0.0107  0.0624
   40POSM   T1A  463   4.834   3.711  15.638 -0.4317  0.0894  0.0654
   40POSM   C2A  464   4.943   3.959  15.267  0.0779  0.3842 -0.1960
   40POSM   C3A  465   4.677   4.368  15.314 -0.0507  0.2780  0.0954
   40POSM   C1B  466   4.429   3.442  15.540 -0.0835  0.0106 -0.0658
   40POSM   D2B  467   4.752   3.386  15.177 -0.1433 -0.1510  0.2808
   40POSM   C3B  468   4.883   3.161  14.725  0.2969 -0.0825  0.0512
   40POSM   C4B  469   4.871   2.704  14.511  0.0897  0.4486 -0.3529
   41DOPC   NC3  470   6.052   6.654  16.675  0.1082 -0.1293  0.4624
   41DOPC   PO4  471   6.080   6.363  16.446  0.1255  0.0203  0.0336
   41DOPC   GL1  472   5.957   6.401  15.956  0.0426 -0.0329 -0.2640
   41DOPC   GL2  473   6.137   6.504  15.731 -0.1315 -0.1704  0.0517
   41DOPC   C1A  474   5.764   6.122  15.588 -0.0600  0.1002 -0.3183
   41DOPC   D2A  475   5.584   5.923  15.259  0.0697 -0.0597 -0.2585
   41DOPC   C3A  476   5.629   6.011  14.777 -0.0773 -0.0292  0.0910
   41DOPC   C4A  477   5.535   6.046  14.345 -0.2213  0.0762 -0.1196
   41DOPC   C1B  478   6.084   6.555  15.254  0.0179 -0.1178 -0.1257
   41DOPC   D2B  479   5.938   6.469  14.876 -0.0340  0.0972 -0.0051
   41DOPC   C3B  480   5.911   6.416  14.380 -0.1138 -0.0978 -0.1614
   41DOPC   C4B  481   5.959   6.373  13.951  0.0410 -0.0052 -0.1680
   42DOPC   NC3  482   4.239   8.507  16.019 -0.0667 -0.4102 -0.1042
   42DOPC   PO4  483   3.908   8.676  16.086 -0.0155  0.0085  0.0393
   42DOPC   GL1  484   3.881   8.286  15.814  0.2187  0.2693  0.1986
   42DOPC   GL2  485   3.958   8.471  15.617 -0.1017 -0.0663  0.1117
   42DOPC   C1A  486   3.857   7.884  15.635  0.1156  0.1394 -0.2376
   42DOPC   D2A  487   4.196   7.915  15.336  0.1612  0.3886  0.0271
   42DOPC   C3A  488   4.300   7.615  14.994 -0.1652  0.0902 -0.2176
   42DOPC   C4A  489   4.717   7.512  14.776 -0.0919 -0.2794 -0.2106
   42DOPC   C1B  490   3.831   8.748  15.237  0.4649 -0.1519  0.0628
   42DOPC   D2B  491   4.050   8.738  14.817 -0.0298 -0.0885  0.0166
   42DOPC   C3B  492   4.233   8.371  14.604  0.0726 -0.0033  0.1651
   42DOPC   C4B  493   4.399   7.940  14.564 -0.1206 -0.0242 -0.1637
   43POSM   NC3  494   3.167   9.883  16.505  0.1538 -0.0854 -0.2650
   43POSM   PO4  495   2.764   9.797  16.480 -0.0989 -0.0178 -0.2538
   43POSM   AM1  496   2.745   9.841  16.168  0.0195  0.0977  0.1786
   43POSM   AM2  497   2.920   9.948  15.998 -0.0783 -0.2106  0.0011
   43POSM   T1A  498   2.541   9.897  15.701 -0.1174  0.1970 -0.1326
   43POSM   C2A  499   2.422  10.077  15.302 -0.1277 -0.1049 -0.1105
   43POSM   C3A  500   2.567  10.073  14.858 -0.0157  0.2665  0.1849
   43POSM   C1B  501   3.055  10.026  15.685  0.1971 -0.4249  0.1244
   43POSM   D2B  502   3.253  10.102  15.285 -0.0401 -0.1682  0.2380
   43POSM   C3B  503   3.100   9.984  14.891 -0.3836  0.0349 -0.1877
   43POSM   C4B  504   3.023   9.892  14.440  0.0163 -0.2038 -0.0037
   44DOPC   NC3  505   8.898   1.417  15.887  0.0208 -0.0693 -0.0262
   44DOPC   PO4  506   8.869   1.781  15.969  0.0244  0.1353  0.0524
   44DOPC   GL1  507   8.910   1.869  15.578 -0.2992 -0.0604  0.0404
   44DOPC   GL2  508   8.710   2.111  15.547  0.0903  0.0596 -0.1409
   44DOPC   C1A  509   9.156   1.729  15.138  0.3252 -0.2331 -0.0454
   44DOPC   D2A  510   9.340   1.719  14.714 -0.0255 -0.0185 -0.0505
   44DOPC   C3A  511   9.405   1.672  14.257  0.2827  0.1852 -0.0021
   44DOPC   C4A  512   9.380   1.486  13.815 -0.0041 -0.0818 -0.5163
   44DOPC   C1B  513   8.684   2.141  15.112  0.0455  0.1338 -0.0971
   44DOPC   D2B  514   8.482   2.160  14.701 -0.1853 -0.1347 -0.0875
   44DOPC   C3B  515   8.580   1.897  14.358  0.3377 -0.0216 -0.2766
   44DOPC   C4B  516   8.755   1.625  14.086 -0.3324  0.0046 -0.0835
   45POSM   NC3  517  34.373   8.218  16.213 -0.0115 -0.1650 -0.2167
   45POSM   PO4  518  34.642   8.362  15.932  0.0156 -0.0172  0.2191
   45POSM   AM1  519  34.710   8.475  15.623 -0.2743 -0.2523  0.2884
   45POSM   AM2  520  34.700   8.747  15.533 -0.3288  0.0959  0.1043
   45POSM   T1A  521  34.857   8.298  15.183 -0.2519  0.1372  0.0280
   45POSM   C2A  522  34.943   7.919  14.964 -0.0415  0.0838 -0.0418
   45POSM   C3A  523  35.185   7.537  14.809 -0.2921  0.0694  0.1208
   45POSM   C1B  524  34.969   8.733  15.322  0.1441  0.2463  0.0528
   45POSM   D2B  525  35.099   8.615  14.873  0.1919 -0.0627 -0.2053
   45POSM   C3B  526  35.214   8.202  14.743 -0.1651 -0.1597 -0.2196
   45POSM   C4B  527  35.514   7.928  14.615  0.1216 -0.4463 -0.0245
   46DOPC   NC3  528   2.701   5.488  16.776 -0.0171  0.0008  0.3005
   46DOPC   PO4  529   2.884   5.139  16.621 -0.0591 -0.0546  0.0412
   46DOPC   GL1  530   2.754   4.888  16.148  0.1408  0.1588 -0.2157
   46DOPC   GL2  531   2.474   4.840  16.121  0.3556  0.1757  0.2778
   46DOPC   C1A  532   2.827   5.057  15.719  0.1798 -0.0416  0.2154
   46DOPC   D2A  533   3.150   5.194  15.451  0.3688 -0.0060 -0.0516
   46DOPC   C3A  534   3.145   5.162  14.998 -0.2347  0.0584 -0.2383
   46DOPC   C4A  535   3.111   5.213  14.532 -0.0188  0.1191 -0.2227
   46DOPC   C1B  536   2.314   4.959  15.679  0.1670  0.2209  0.2009
   46DOPC   D2B  537   2.183   5.094  15.324 -0.1030 -0.1844  0.1961
   46DOPC   C3B  538   2.266   4.979  14.873  0.2567  0.1136 -0.0452
   46DOPC   C4B  539   2.440   5.013  14.450 -0.0985 -0.1931  0.0488
   47POSM   NC3  540   0.948  10.308  16.407  0.0440  0.0935 -0.4312
   47POSM   PO4  541   1.209  10.522  16.266 -0.3097  0.0515 -0.2880
   47POSM   AM1  542   1.242  10.728  15.985 -0.0052 -0.4116 -0.0721
   47POSM   AM2  543   1.414  10.947  15.887  0.1911  0.1907 -0.0621
   47POSM   T1A  544   1.163  10.792  15.501 -0.1214 -0.1711  0.0500
   47POSM   C2A  545   1.041  10.674  15.083  0.1957 -0.0159 -0.0825
   47POSM   C3A  546   0.704  10.756  14.754  0.0478  0.1304  0.0348
   47POSM   C1B  547   1.660  10.903  15.609 -0.2183  0.3446 -0.0248
   47POSM   D2B  548   1.920  10.935  15.191 -0.1454 -0.0783 -0.1994
   47POSM   C3B  549   1.796  10.795  14.798 -0.2242 -0.1468 -0.0861
   47POSM   C4B  550   2.022  10.586  14.448  0.0356 -0.1357 -0.0292
   48DOPE   NH3  551   3.561   7.242  16.621  0.3047  0.1185 -0.1459
   48DOPE   PO4  552   3.702   7.342  16.378  0.0656  0.0243  0.1292
   48DOPE   GL1  553   3.566   7.275  16.050 -0.1340  0.0455 -0.0093
   48DOPE   GL2  554   3.537   6.965  16.073 -0.0347  0.2596 -0.1050
   48DOPE   C1A  555   3.850   7.373  15.687 -0.1110  0.3817 -0.0479
   48DOPE   D2A  556   3.990   7.439  15.321 -0.2390  0.2295  0.4381
   48DOPE   C3A  557   4.026   7.053  14.979  0.3828 -0.1423 -0.0566
   48DOPE   C4A  558   3.765   6.737  14.785 -0.0248  0.1253  0.2278
   48DOPE   C1B  559   3.307   7.099  15.621 -0.1366  0.0620 -0.0825
   48DOPE   D2B  560   3.018   7.174  15.280  0.4588 -0.1161  0.1166
   48DOPE   C3B  561   3.087   7.448  14.924 -0.1955  0.2775 -0.2663
   48DOPE   C4B  562   3.383   7.754  14.641  0.3331  0.2333  0.2616
   49DOPC   NC3  563  10.369   1.504  15.514  0.0185 -0.0365  0.0287
   49DOPC   PO4  564  10.162   1.242  15.669  0.1123  0.1874  0.1156
   49DOPC   GL1  565   9.837   1.286  15.421  0.2193 -0.4387 -0.2725
   49DOPC   GL2  566   9.992   1.322  15.215 -0.0890  0.1800  0.0626
   49DOPC   C1A  567   9.585   0.939  15.250 -0.1701  0.0415  0.0535
   49DOPC   D2A  568   9.187   0.795  15.047  0.0435 -0.1501 -0.1328
   49DOPC   C3A  569   9.350   0.873  14.616  0.4204  0.1935 -0.1586
   49DOPC   C4A  570   9.558   0.573  14.242  0.1120 -0.2765  0.1306
   49DOPC   C1B  571   9.911   1.706  14.928 -0.0908 -0.0910  0.2131
   49DOPC   D2B  572  10.180   1.988  14.733 -0.1679  0.2032 -0.1064
   49DOPC   C3B  573  10.463   1.711  14.517 -0.3478 -0.1892  0.0137
   49DOPC   C4B  574  10.675   1.466  14.143  0.3066 -0.0406  0.1151
   50DOPC   NC3  575   5.793   0.790  15.622 -0.0512  0.0595  0.1264
   50DOPC   PO4  576   6.138   0.852  15.797 -0.2107  0.1154 -0.0613
   50DOPC   GL1  577   6.232   1.195  15.578 -0.3770 -0.1056 -0.1840
   50DOPC   GL2  578   6.215   1.107  15.293 -0.2402 -0.1813  0.0097
   50DOPC   C1A  579   6.617   1.415  15.389 -0.1818 -0.2702 -0.0726
   50DOPC   D2A  580   6.775   1.794  15.197 -0.0528 -0.0567  0.2589
   50DOPC   C3A  581   6.567   2.034  14.883 -0.0973  0.0158 -0.0853
   50DOPC   C4A  582   6.457   1.945  14.455  0.4787 -0.2062 -0.1151
   50DOPC   C1B  583   6.571   0.898  15.055  0.0097 -0.0146 -0.0221
   50DOPC   D2B  584   6.598   0.625  14.734 -0.3110 -0.2142  0.2656
   50DOPC   C3B  585   6.287   0.615  14.363 -0.2228  0.2309 -0.1300
   50DOPC   C4B  586   5.905   0.926  14.319  0.3193 -0.1203  0.0493
   51DOPC   NC3  587   3.721   5.004  16.530 -0.0762  0.0219 -0.2498
   51DOPC   PO4  588   4.020   4.735  16.480  0.2434 -0.2459  0.1475
   51DOPC   GL1  589   3.921   4.875  16.119 -0.0048 -0.0337  0.2372
   51DOPC   GL2  590   3.741   4.707  16.039 -0.3668 -0.0872  0.1725
   51DOPC   C1A  591   4.125   5.149  15.778 -0.1131  0.2234 -0.1324
   51DOPC   D2A  592   4.402   5.517  15.614 -0.0602  0.1480 -0.2199
   51DOPC   C3A  593   4.558   5.592  15.126 -0.0180  0.0379  0.2073
   51DOPC   C4A  594   4.843   5.404  14.812  0.1156  0.2557  0.2211
   51DOPC   C1B  595   3.758   4.820  15.575 -0.0612 -0.0999  0.5050
   51DOPC   D2B  596   3.642   4.763  15.198 -0.3141  0.3117  0.1287
   51DOPC   C3B  597   3.766   4.435  14.976 -0.2783 -0.2210  0.2686
   51DOPC   C4B  598   3.488   4.296  14.614 -0.0979 -0.2418 -0.0564
   52DOPC   NC3  599  10.038   7.640  15.848  0.0002  0.0404  0.0995
   52DOPC   PO4  600   9.899   8.054  15.854 -0.0048 -0.0607 -0.1971
   52DOPC   GL1  601  10.131   8.227  15.569 -0.2883  0.1945 -0.1729
   52DOPC   GL2  602  10.411   8.075  15.545 -0.2260 -0.0199 -0.2459
   52DOPC   C1A  603  10.065   8.582  15.297  0.1329  0.1495  0.4007
   52DOPC   D2A  604  10.044   8.852  14.923  0.3733 -0.3032 -0.0606
   52DOPC   C3A  605   9.802   9.106  14.601 -0.0204  0.3716  0.0299
   52DOPC   C4A  606   9.571   9.011  14.221 -0.0885 -0.1567 -0.1272
   52DOPC   C1B  607  10.187   7.812  15.223  0.1613 -0.1227  0.2137
   52DOPC   D2B  608   9.850   7.585  14.999 -0.0840 -0.0178 -0.0306
   52DOPC   C3B  609   9.638   7.190  14.854 -0.0151  0.0335  0.0738
   52DOPC   C4B  610   9.594   6.924  14.487 -0.0976  0.1905  0.2392
   53DOPS   CNO  611   6.458   4.784  16.248 -0.1385  0.3428  0.1550
   53DOPS   PO4  612   6.413   5.124  16.069  0.3015 -0.1871 -0.0844
   53DOPS   GL1  613   6.473   5.335  15.717  0.0283  0.0814 -0.1260
   53DOPS   GL2  614   6.294   5.550  15.626  0.0883  0.2986  0.1183
   53DOPS   C1A  615   6.746   5.525  15.417 -0.0266  0.0466 -0.1158
   53DOPS   D2A  616   6.681   5.794  15.046 -0.1953 -0.1588  0.0654
   53DOPS   C3A  617   6.682   5.938  14.615 -0.1126 -0.0188 -0.2077
   53DOPS   C4A  618   6.659   6.018  14.137 -0.4092 -0.2444  0.2555
   53DOPS   C1B  619   6.251   5.833  15.326 -0.0823  0.0624  0.0743
   53DOPS   D2B  620   6.213   5.920  14.872  0.0517  0.0177 -0.1379
   53DOPS   C3B  621   6.209   5.983  14.377 -0.4478  0.2010 -0.1738
   53DOPS   C4B  622   6.019   5.723  14.045  0.1298  0.1282 -0.2218
   54DOPC   NC3  623   6.882   4.390  16.036 -0.2174 -0.0195  0.0136
   54DOPC   PO4  624   7.165   4.131  15.960  0.0920  0.0425  0.4092
   54DOPC   GL1  625   7.203   4.271  15.653  0.0316 -0.1608  0.5098
   54DOPC   GL2  626   6.999   4.079  15.540  0.0317  0.2390 -0.0912
   54DOPC   C1A  627   7.506   4.276  15.330  0.0263  0.3847 -0.1329
   54DOPC   D2A  628   7.713   3.991  15.024  0.0020  0.0238 -0.0508
   54DOPC   C3A  629   7.728   3.939  14.593  0.0694 -0.4364 -0.0088
   54DOPC   C4A  630   7.812   4.196  14.202 -0.1389  0.1391 -0.3513
   54DOPC   C1B  631   7.039   4.407  15.176  0.0807 -0.0471 -0.2746
   54DOPC   D2B  632   6.930   4.830  15.042  0.1024 -0.1089 -0.0229
   54DOPC   C3B  633   6.579   4.935  14.811  0.0783 -0.0504  0.1149
   54DOPC   C4B  634   6.431   4.920  14.413  0.0637  0.2249 -0.2475
   55DOPS   CNO  635   7.910   7.894  16.291  0.0480 -0.2422 -0.1053
   55DOPS   PO4  636   8.067   7.869  15.942 -0.0109 -0.5551 -0.1248
   55DOPS   GL1  637   7.819   7.794  15.637  0.1140 -0.0637 -0.4842
   55DOPS   GL2  638   7.690   7.485  15.671  0.1221  0.2732 -0.0179
   55DOPS   C1A  639   7.930   7.670  15.155  0.0809  0.2028  0.0516
   55DOPS   D2A  640   7.803   7.754  14.723  0.1086 -0.0545  0.0457
   55DOPS   C3A  641   7.392   7.708  14.650 -0.1917  0.3083  0.1333
   55DOPS   C4A  642   7.089   7.899  14.349 -0.1771 -0.0059 -0.0656
   55DOPS   C1B  643   7.337   7.754  15.555  0.1334  0.1550  0.0237
   55DOPS   D2B  644   6.948   7.768  15.334 -0.0317 -0.0277 -0.0852
   55DOPS   C3B  645   6.898   7.799  14.899 -0.1331 -0.1243  0.1161
   55DOPS   C4B  646   6.721   8.132  14.599 -0.0634 -0.1056 -0.1640
   56POSM   NC3  647  11.725   0.537  15.691  0.4850 -0.2652 -0.1631
   56POSM   PO4  648  12.044   0.390  15.649  0.1775 -0.2201  0.1672
   56POSM   AM1  649  12.008   0.268  15.350 -0.2188  0.2721  0.0058
   56POSM   AM2  650  11.825   0.054  15.241 -0.1793  0.1044  0.2577
   56POSM   T1A  651  12.033   0.454  14.893  0.1536 -0.0181 -0.3978
   56POSM   C2A  652  12.311   0.573  14.573  0.0674  0.1634 -0.0625
   56POSM   C3A  653  12.213   0.677  14.125  0.2158 -0.0528 -0.0056
   56POSM   C1B  654  11.678   0.105  14.928  0.0499  0.5342  0.1061
   56POSM   D2B  655  11.408   0.195  14.562  0.2846  0.0182  0.0437
   56POSM   C3B  656  11.091   0.489  14.314 -0.2056 -0.0845  0.0296
   56POSM   C4B  657  11.192   0.602  13.916 -0.0247  0.0678 -0.2371
   57DOPS   CNO  658   4.982   4.433  16.083  0.1904  0.0397 -0.0068
   57DOPS   PO4  659   4.755   4.673  15.882  0.0410 -0.0933  0.2640
   57DOPS   GL1  660   4.515   4.976  15.676  0.0866  0.6103 -0.2207
   57DOPS   GL2  661   4.711   5.149  15.519  0.1617 -0.0706 -0.1295
   57DOPS   C1A  662   4.222   4.878  15.363  0.1737  0.1576  0.0850
   57DOPS   D2A  663   4.064   4.929  14.940 -0.3311  0.4335  0.3754
   57DOPS   C3A  664   3.691   4.839  14.669 -0.0467 -0.3195  0.1253
   57DOPS   C4A  665   3.408   4.685  14.289 -0.0328  0.0759 -0.0588
   57DOPS   C1B  666   4.551   5.086  15.035  0.0967 -0.0676  0.1367
   57DOPS   D2B  667   4.480   5.056  14.560 -0.0728  0.0333  0.1477
   57DOPS   C3B  668   4.449   4.728  14.238 -0.0821 -0.1418 -0.0025
   57DOPS   C4B  669   4.278   4.426  13.955 -0.3453 -0.1660 -0.2518
   58DOPS   CNO  670   0.879   3.402  16.135  0.3831  0.0953  0.0978
   58DOPS   PO4  671   0.882   3.024  16.176 -0.1997  0.3196  0.1662
   58DOPS   GL1  672   1.013   3.027  15.880  0.4136 -0.4302  0.1244
   58DOPS   GL2  673   1.196   3.027  15.639  0.1624  0.2061  0.2023
   58DOPS   C1A  674   0.847   3.359  15.584  0.2675 -0.0603 -0.4149
   58DOPS   D2A  675   0.425   3.256  15.413  0.3615 -0.5052  0.4692
   58DOPS   C3A  676   0.291   2.864  15.219 -0.1386 -0.1687 -0.4600
   58DOPS   C4A  677   0.223   2.415  15.015 -0.1517 -0.0424  0.1156
   58DOPS   C1B  678   0.924   3.064  15.217 -0.0684 -0.1728  0.3184
   58DOPS   D2B  679   0.667   3.127  14.867  0.0811  0.0538  0.0821
   58DOPS   C3B  680   0.918   3.145  14.446  0.1531 -0.2013 -0.0455
   58DOPS   C4B  681   1.007   3.502  14.187  0.1368 -0.0662 -0.0543
   59DOPE   NH3  682   2.797   4.565  16.462 -0.2386  0.0268  0.0241
   59DOPE   PO4  683   3.057   4.384  16.552  0.1126  0.1726 -0.1033
   59DOPE   GL1  684   3.354   4.241  16.286  0.1548 -0.0664 -0.3017
   59DOPE   GL2  685   3.120   4.161  16.092  0.1616  0.0631 -0.2303
   59DOPE   C1A  686   3.507   4.324  15.860 -0.0257 -0.0380 -0.1288
   59DOPE   D2A  687   3.606   4.333  15.420 -0.2476  0.0667 -0.0742
   59DOPE   C3A  688   3.275   4.257  15.103  0.2297  0.0901 -0.0035
   59DOPE   C4A  689   2.962   3.924  14.979 -0.2015  0.0711 -0.0916
   59DOPE   C1B  690   2.895   4.448  15.829  0.2349 -0.3963 -0.1646
   59DOPE   D2B  691   2.673   4.642  15.492 -0.2060 -0.1460 -0.1960
   59DOPE   C3B  692   2.731   4.387  15.049 -0.2585 -0.1431 -0.0416
   59DOPE   C4B  693   2.918   4.294  14.636 -0.0808 -0.1930  0.1875
   60DOPE   NH3  694   9.114   0.028  15.798 -0.1949 -0.1167 -0.0084
   60DOPE   PO4  695   8.938   0.142  16.025  0.0122  0.0007  0.3343
   60DOPE   GL1  696   8.734   0.285  15.607  0.1199  0.2470 -0.1592
   60DOPE   GL2  697   8.808   0.559  15.653 -0.0116  0.0380 -0.0726
   60DOPE   C1A  698   8.369   0.584  15.449 -0.0996  0.2793  0.0856
   60DOPE   D2A  699   8.158   0.747  15.050  0.0892 -0.5502 -0.2680
   60DOPE   C3A  700   8.391   0.580  14.643  0.1540  0.1106  0.3113
   60DOPE   C4A  701   8.519   0.526  14.233 -0.0865  0.3164  0.2988
   60DOPE   C1B  702   9.153   0.838  15.675  0.2321 -0.0763 -0.1035
   60DOPE   D2B  703   9.333   1.229  15.576 -0.0624 -0.1000 -0.5673
   60DOPE   C3B  704   9.524   1.416  15.169 -0.1502  0.1790 -0.0937
   60DOPE   C4B  705   9.684   1.294  14.710  0.0077  0.3560 -0.4753
   61DOPE   NH3  706   8.024   9.141  15.680 -0.1898  0.1298  0.0927
   61DOPE   PO4  707   8.235   9.367  15.593 -0.3704 -0.1204 -0.1406
   61DOPE   GL1  708   8.078   9.606  15.369 -0.1439  0.1805  0.0446
   61DOPE   GL2  709   7.805   9.374  15.242  0.1552 -0.0709  0.3348
   61DOPE   C1A  710   7.990   9.628  14.872 -0.0222 -0.1454  0.0573
   61DOPE   D2A  711   7.705   9.656  14.506 -0.2893  0.1726 -0.2542
   61DOPE   C3A  712   7.325   9.827  14.348 -0.0260  0.0863 -0.0802
   61DOPE   C4A  713   6.933   9.790  14.172 -0.3462  0.0478  0.1571
   61DOPE   C1B  714   7.480   9.526  14.970  0.0876  0.0547 -0.0688
   61DOPE   D2B  715   7.205   9.415  14.588 -0.2808 -0.0768 -0.1324
   61DOPE   C3B  716   6.744   9.421  14.658 -0.0987 -0.2644 -0.0188
   61DOPE   C4B  717   6.475   9.585  15.020  0.2510 -0.2679 -0.0227
   62DOPC   NC3  718   4.308   6.857  17.101  0.1910  0.0670  0.3909
   62DOPC   PO4  719   4.233   6.612  16.762 -0.0098 -0.2304 -0.1227
   62DOPC   GL1  720   4.347   6.749  16.375  0.3397 -0.1601  0.1118
   62DOPC   GL2  721   4.618   6.953  16.333  0.3327 -0.3424 -0.3657
   62DOPC   C1A  722   4.352   6.706  15.960  0.0616  0.0021  0.3285
   62DOPC   D2A  723   4.022   6.388  15.753 -0.0263  0.1002 -0.2973
   62DOPC   C3A  724   4.126   6.407  15.283  0.0177 -0.1321  0.1561
   62DOPC   C4A  725   4.390   6.729  15.096  0.4022 -0.1387 -0.0731
   62DOPC   C1B  726   4.490   7.224  15.890 -0.1817  0.3079  0.0172
   62DOPC   D2B  727   4.505   7.533  15.554 -0.2882  0.1285  0.0334
   62DOPC   C3B  728   4.535   7.221  15.189 -0.4469  0.2220  0.1963
   62DOPC   C4B  729   4.490   7.077  14.731 -0.0325  0.1040 -0.3114
   63DOPC   NC3  730  11.932   3.817  15.291 -0.0519  0.0242 -0.0173
   63DOPC   PO4  731  11.606   4.038  15.344  0.0373  0.1013  0.4295
   63DOPC   GL1  732  11.697   4.067  14.913 -0.1066  0.1867 -0.2155
   63DOPC   GL2  733  11.525   3.926  14.847  0.1474 -0.1696 -0.2768
   63DOPC   C1A  734  11.817   4.269  14.529 -0.3284  0.1746 -0.0840
   63DOPC   D2A  735  11.736   4.335  14.072  0.3351 -0.0816  0.1434
   63DOPC   C3A  736  11.962   4.344  13.699  0.1460 -0.0828  0.2179
   63DOPC   C4A  737  11.864   4.212  13.242 -0.3222  0.0728  0.4699
   63DOPC   C1B  738  11.949   3.764  14.771 -0.3603  0.0582  0.0536
   63DOPC   D2B  739  12.343   3.682  14.507  0.0382  0.2466 -0.3083
   63DOPC   C3B  740  12.523   3.777  14.140  0.2400  0.0341  0.0611
   63DOPC   C4B  741  12.452   4.067  13.791  0.0040  0.1171  0.1572
   64POSM   NC3  742   4.129   5.129  16.871  0.1393 -0.0355 -0.2364
   64POSM   PO4  743   4.164   5.253  16.507 -0.2381 -0.0930 -0.1444
   64POSM   AM1  744   4.007   5.295  16.242 -0.0641  0.2427  0.0250
   64POSM   AM2  745   3.751   5.325  16.151 -0.1115 -0.1467  0.1969
   64POSM   T1A  746   3.985   5.659  15.848  0.0829 -0.2062  0.0132
   64POSM   C2A  747   4.190   5.908  15.459  0.1105  0.0423  0.1391
   64POSM   C3A  748   4.399   6.069  15.053  0.0321  0.0631  0.0254
   64POSM   C1B  749   3.505   5.113  15.961  0.1693  0.0876 -0.0601
   64POSM   D2B  750   3.262   4.792  15.698 -0.1153  0.3533 -0.0327
   64POSM   C3B  751   3.120   4.707  15.258 -0.1215  0.0904  0.1070
   64POSM   C4B  752   3.231   4.673  14.769  0.0169 -0.0090 -0.3488
   65POSM   NC3  753   1.730  10.706  16.874 -0.2028  0.3663  0.2256
   65POSM   PO4  754   1.746  10.472  16.545  0.0776  0.0583  0.0722
   65POSM   AM1  755   1.671  10.365  16.221 -0.2669  0.0248 -0.0552
   65POSM   AM2  756   1.684  10.493  15.972  0.1263  0.0797 -0.2377
   65POSM   T1A  757   1.808   9.991  15.903  0.0222 -0.1745 -0.1061
   65POSM   C2A  758   2.050   9.808  15.571  0.0239 -0.2277  0.1806
   65POSM   C3A  759   2.326   9.561  15.365  0.2566  0.3580 -0.1147
   65POSM   C1B  760   1.507  10.406  15.704  0.0339  0.1464 -0.0017
   65POSM   D2B  761   1.564  10.491  15.219  0.0381  0.0672  0.1019
   65POSM   C3B  762   1.507  10.311  14.820  0.0581  0.0741  0.0637
   65POSM   C4B  763   1.238  10.167  14.486 -0.1865  0.5499  0.1562
   66DOPE   NH3  764   2.779   2.635  16.031 -0.2718  0.0196  0.2388
   66DOPE   PO4  765   2.796   2.953  16.090 -0.0707  0.0812 -0.1907
   66DOPE   GL1  766   2.775   3.012  15.723 -0.0285 -0.1178 -0.3688
   66DOPE   GL2  767   2.553   2.905  15.630  0.1593  0.4825 -0.2022
   66DOPE   C1A  768   2.944   3.066  15.301  0.2731  0.3515  0.0156
   66DOPE   D2A  769   2.923   3.378  14.923 -0.2843  0.0193  0.0893
   66DOPE   C3A  770   3.062   3.322  14.445  0.0858 -0.0417  0.0476
   66DOPE   C4A  771   3.446   3.388  14.181 -0.1365 -0.6353 -0.0586
   66DOPE   C1B  772   2.363   3.104  15.247  0.0336 -0.0054 -0.2525
   66DOPE   D2B  773   2.363   3.342  14.852  0.0143 -0.2582 -0.0015
   66DOPE   C3B  774   2.419   3.231  14.397 -0.0979 -0.0660 -0.2277
   66DOPE   C4B  775   2.779   3.077  14.090  0.1180  0.1023  0.2567
   67DOPE   NH3  776   1.293   3.783  16.276 -0.1796  0.0543  0.1923
   67DOPE   PO4  777   1.562   3.923  16.447 -0.0679  0.3755  0.1486
   67DOPE   GL1  778   1.703   4.211  16.158 -0.3112 -0.0611 -0.4035
   67DOPE   GL2  779   1.871   4.371  15.982 -0.1903 -0.1307  0.0536
   67DOPE   C1A  780   1.409   4.225  15.772  0.1092 -0.0189  0.0547
   67DOPE   D2A  781   1.423   4.301  15.252 -0.0558  0.0408  0.1050
   67DOPE   C3A  782   1.623   4.319  14.862  0.0039 -0.0699  0.2158
   67DOPE   C4A  783   1.953   4.504  14.607  0.0126 -0.2774  0.1181
   67DOPE   C1B  784   2.222   4.444  15.636 -0.1271  0.0470  0.1324
   67DOPE   D2B  785   2.277   4.601  15.187  0.0366  0.5700  0.2221
   67DOPE   C3B  786   2.037   4.236  15.223  0.2197 -0.0468  0.0902
   67DOPE   C4B  787   1.777   4.030  15.523 -0.2461 -0.0692  0.2996
   68DOPE   NH3  788   4.826  12.116  16.256  0.2260  0.0371 -0.4010
   68DOPE   PO4  789   4.955  11.820  16.234  0.0569 -0.0121  0.1562
   68DOPE   GL1  790   4.833  11.923  15.831 -0.1637  0.2473 -0.1990
   68DOPE   GL2  791   4.650  11.757  15.600 -0.0895  0.0738 -0.0610
   68DOPE   C1A  792   5.090  11.873  15.459 -0.0941  0.1908 -0.4099
   68DOPE   D2A  793   5.155  11.809  15.012  0.3514 -0.2371 -0.1632
   68DOPE   C3A  794   5.245  12.079  14.574 -0.1329  0.3658  0.0307
   68DOPE   C4A  795   4.994  12.462  14.432 -0.1351 -0.0615  0.1058
   68DOPE   C1B  796   4.672  12.043  15.217  0.0688 -0.0864  0.2343
   68DOPE   D2B  797   4.800  12.232  14.869 -0.6086 -0.1535  0.1619
   68DOPE   C3B  798   4.384  12.151  14.641  0.2000 -0.0023 -0.3783
   68DOPE   C4B  799   3.924  12.125  14.612  0.2533  0.1381  0.2691
   69DOPC   NC3  800  34.661   0.805  16.346  0.1910 -0.2279  0.0052
   69DOPC   PO4  801  34.952   0.925  16.646 -0.0546 -0.1779 -0.3824
   69DOPC   GL1  802  35.098   0.919  16.293 -0.1291  0.1113 -0.1765
   69DOPC   GL2  803  35.263   0.621  16.246 -0.0813  0.0676 -0.2177
   69DOPC   C1A  804  34.906   0.975  15.893  0.1484 -0.0592  0.1641
   69DOPC   D2A  805  35.064   1.122  15.498 -0.0091 -0.0938  0.0111
   69DOPC   C3A  806  34.985   0.845  15.109  0.2073  0.0968 -0.2194
   69DOPC   C4A  807  34.616   0.692  14.874 -0.1031 -0.2724  0.2246
   69DOPC   C1B  808  35.207   0.549  15.805 -0.0648 -0.0309 -0.0299
   69DOPC   D2B  809  35.387   0.377  15.431 -0.3271 -0.0785 -0.0839
   69DOPC   C3B  810  35.182   0.363  15.025  0.1343 -0.2703  0.3773
   69DOPC   C4B  811  34.898   0.320  14.673 -0.1280 -0.2125 -0.0429
   70DOPC   NC3  812   0.270   6.158  16.151 -0.0262 -0.1001 -0.1051
   70DOPC   PO4  813   0.576   6.408  16.092  0.1053 -0.1150  0.0052
   70DOPC   GL1  814   0.839   6.416  15.737  0.1914  0.0059  0.3693
   70DOPC   GL2  815   1.019   6.259  15.909 -0.2526 -0.3540  0.1706
   70DOPC   C1A  816   0.962   6.038  15.468  0.0551  0.0076  0.0798
   70DOPC   D2A  817   0.906   5.657  15.273 -0.1450 -0.0398 -0.2758
   70DOPC   C3A  818   0.925   5.705  14.836  0.3310 -0.2215  0.0424
   70DOPC   C4A  819   0.869   5.898  14.382  0.1773 -0.0406  0.1122
   70DOPC   C1B  820   1.348   6.571  15.779 -0.0943 -0.0924  0.3785
   70DOPC   D2B  821   1.475   6.928  15.525  0.2418  0.0277 -0.3145
   70DOPC   C3B  822   1.733   6.829  15.142  0.1068 -0.1413 -0.0556
   70DOPC   C4B  823   1.740   6.744  14.733  0.0306  0.0046 -0.2687
   71POSM   NC3  824   5.515   1.702  15.951 -0.1250 -0.1172  0.2324
   71POSM   PO4  825   5.234   1.784  16.270  0.1985  0.0741 -0.2198
   71POSM   AM1  826   5.118   1.977  16.024 -0.3221 -0.1318  0.0458
   71POSM   AM2  827   5.280   2.201  15.946  0.1576  0.1596  0.2746
   71POSM   T1A  828   5.027   2.033  15.538 -0.3571  0.0195 -0.0982
   71POSM   C2A  829   4.897   2.342  15.180 -0.2383  0.2254  0.1317
   71POSM   C3A  830   5.063   2.706  14.944 -0.1590  0.2884 -0.1182
   71POSM   C1B  831   5.437   2.307  15.674  0.1206  0.2071 -0.0736
   71POSM   D2B  832   5.458   2.429  15.222  0.0088 -0.0287 -0.1833
   71POSM   C3B  833   5.291   2.872  15.343  0.5158  0.0235  0.1932
   71POSM   C4B  834   4.819   2.861  15.312 -0.0883 -0.0009  0.2574
   72DOPC   NC3  835   2.032  10.833  16.035 -0.0144  0.1071  0.0198
   72DOPC   PO4  836   2.185  11.192  16.171  0.2704  0.0387  0.0024
   72DOPC   GL1  837   2.491  10.970  15.878 -0.2215 -0.3535  0.0671
   72DOPC   GL2  838   2.707  10.818  15.821  0.3858 -0.0168  0.3027
   72DOPC   C1A  839   2.314  11.033  15.447  0.0402 -0.0956  0.0538
   72DOPC   D2A  840   2.439  11.219  15.077 -0.0026  0.4643 -0.3599
   72DOPC   C3A  841   2.084  11.441  14.968  0.0963 -0.0499  0.1388
   72DOPC   C4A  842   1.687  11.647  14.941  0.3963 -0.1745 -0.1544
   72DOPC   C1B  843   2.914  10.508  15.527  0.0955  0.2028  0.0220
   72DOPC   D2B  844   2.919  10.439  15.044 -0.1523 -0.1426  0.4103
   72DOPC   C3B  845   3.288  10.433  14.720  0.0576 -0.1739 -0.0364
   72DOPC   C4B  846   3.623  10.643  14.530 -0.1296 -0.1116 -0.1156
   73DOPE   NH3  847   7.937   2.353  15.732 -0.1460 -0.1222 -0.2278
   73DOPE   PO4  848   8.108   2.130  15.613 -0.0704  0.1420 -0.1041
   73DOPE   GL1  849   8.330   2.009  15.354  0.1550  0.3237  0.0481
   73DOPE   GL2  850   8.235   1.872  15.037  0.0450 -0.1157  0.0860
   73DOPE   C1A  851   8.619   1.658  15.310  0.1892  0.0415 -0.0467
   73DOPE   D2A  852   8.906   1.302  15.328  0.0850  0.3845 -0.2133
   73DOPE   C3A  853   9.061   1.252  14.922  0.0182 -0.2661  0.0934
   73DOPE   C4A  854   9.011   1.288  14.450  0.1238  0.1069 -0.0436
   73DOPE   C1B  855   8.116   1.785  14.614 -0.0963 -0.0421  0.0347
   73DOPE   D2B  856   8.110   1.444  14.294  0.0778  0.0646  0.2924
   73DOPE   C3B  857   8.363   1.292  13.951 -0.3731  0.2131 -0.3018
   73DOPE   C4B  858   8.780   1.143  13.794  0.2415  0.2888  0.2535
   74DOPC   NC3  859   3.229   6.634  16.328 -0.1025 -0.3588  0.0321
   74DOPC   PO4  860   3.186   6.995  16.454  0.0384 -0.0257 -0.1641
   74DOPC   GL1  861   3.109   6.978  16.041 -0.0981 -0.0302  0.1528
   74DOPC   GL2  862   2.782   7.039  16.071 -0.0447 -0.0313 -0.1626
   74DOPC   C1A  863   2.902   6.671  15.771  0.2545 -0.0001  0.0870
   74DOPC   D2A  864   2.569   6.469  15.579  0.1606  0.0056 -0.0247
   74DOPC   C3A  865   2.193   6.665  15.456  0.0642 -0.1319 -0.1604
   74DOPC   C4A  866   2.194   7.063  15.150  0.0763  0.3910  0.1576
   74DOPC   C1B  867   2.961   7.392  15.776  0.0165  0.1999 -0.0490
   74DOPC   D2B  868   3.365   7.626  15.810  0.0269  0.2175 -0.4058
   74DOPC   C3B  869   3.531   7.689  15.343  0.0728  0.1350 -0.1387
   74DOPC   C4B  870   3.702   7.785  14.974  0.3035 -0.0878 -0.0108
   75DOPE   NH3  871   0.425   8.520  15.906 -0.1081 -0.4175 -0.1192
   75DOPE   PO4  872   0.269   8.775  15.999  0.0545 -0.2235  0.1204
   75DOPE   GL1  873   0.284   9.150  15.659 -0.2417 -0.0412 -0.1470
   75DOPE   GL2  874   0.072   9.400  15.619  0.0771 -0.0684 -0.2962
   75DOPE   C1A  875   0.469   9.195  15.190 -0.2181  0.0441  0.0008
   75DOPE   D2A  876   0.532   9.136  14.723 -0.1469  0.0923 -0.2330
   75DOPE   C3A  877   0.758   8.727  14.553 -0.1519  0.0611  0.0510
   75DOPE   C4A  878   0.861   8.339  14.363 -0.1317 -0.0945  0.1082
   75DOPE   C1B  879   0.161   9.736  15.298  0.0538  0.2236 -0.0896
   75DOPE   D2B  880   0.127  10.111  14.971 -0.2386  0.2156 -0.0593
   75DOPE   C3B  881   0.084   9.837  14.595  0.0571 -0.0790 -0.2303
   75DOPE   C4B  882   0.399   9.554  14.382  0.1016  0.0548  0.0537
   76DOPE   NH3  883   9.961   0.049  15.959 -0.0017  0.1040 -0.1378
   76DOPE   PO4  884   9.864   0.259  15.757  0.1635  0.0915  0.0138
   76DOPE   GL1  885   9.852   0.252  15.380 -0.1071  0.1241 -0.1933
   76DOPE   GL2  886   9.836   0.521  15.304  0.1733  0.0416  0.0709
   76DOPE   C1A  887   9.971   0.101  14.975 -0.4160 -0.1571 -0.2355
   76DOPE   D2A  888   9.960   0.371  14.604 -0.0555  0.1594 -0.0262
   76DOPE   C3A  889  10.182   0.647  14.291 -0.0600  0.0961 -0.0452
   76DOPE   C4A  890  10.148   0.983  13.976  0.3643 -0.2568  0.2994
   76DOPE   C1B  891   9.581   0.429  14.918  0.3043 -0.2972 -0.1771
   76DOPE   D2B  892   9.188   0.204  14.768 -0.0596 -0.2403 -0.2345
   76DOPE   C3B  893   8.994   0.410  14.415 -0.0366 -0.0969 -0.0766
   76DOPE   C4B  894   8.939   0.648  14.033 -0.2268  0.4078 -0.3811
   77DOPC   NC3  895   3.155   3.120  16.351 -0.1115 -0.2798  0.2541
   77DOPC   PO4  896   3.329   2.812  16.143 -0.1898 -0.0800 -0.1904
   77DOPC   GL1  897   3.226   2.860  15.763 -0.0580 -0.0701 -0.0357
   77DOPC   GL2  898   3.181   3.134  15.808 -0.1143 -0.1133  0.1872
   77DOPC   C1A  899   3.451   2.835  15.353  0.1105  0.0207  0.3324
   77DOPC   D2A  900   3.301   2.818  14.920 -0.0644  0.0684 -0.0400
   77DOPC   C3A  901   3.454   2.535  14.468 -0.0463 -0.1159  0.0664
   77DOPC   C4A  902   3.432   2.714  14.038  0.0157 -0.4055 -0.3836
   77DOPC   C1B  903   3.153   3.494  15.450 -0.0449  0.1136  0.1979
   77DOPC   D2B  904   3.403   3.751  15.178  0.1592  0.1594 -0.0037
   77DOPC   C3B  905   3.381   3.745  14.735  0.0895  0.1546 -0.0480
   77DOPC   C4B  906   3.122   3.792  14.376  0.1402 -0.1087 -0.0367
   78DOPC   NC3  907   4.448   4.506  16.247  0.2467 -0.0991  0.3362
   78DOPC   PO4  908   4.419   4.129  16.164  0.1960  0.0327  0.1972
   78DOPC   GL1  909   4.276   4.201  15.770  0.0639  0.0393  0.0938
   78DOPC   GL2  910   4.003   4.161  15.779  0.2141  0.1459  0.1479
   78DOPC   C1A  911   4.441   3.904  15.414  0.2304  0.0183 -0.0173
   78DOPC   D2A  912   4.449   3.900  14.934 -0.2719  0.0437  0.1169
   78DOPC   C3A  913   4.784   4.093  14.738  0.1264 -0.0910  0.2659
   78DOPC   C4A  914   4.877   4.370  14.400  0.1007 -0.2873 -0.0824
   78DOPC   C1B  915   4.194   4.322  15.372 -0.0786 -0.0076  0.3394
   78DOPC   D2B  916   4.285   4.420  14.955 -0.0134 -0.2229  0.1561
   78DOPC   C3B  917   4.324   4.278  14.531  0.1314  0.0691  0.2249
   78DOPC   C4B  918   4.151   3.980  14.188 -0.1011 -0.1007 -0.1714
   79DOPC   NC3  919  11.210   9.076  15.708 -0.1088 -0.1774 -0.0381
   79DOPC   PO4  920  11.298   8.699  15.705 -0.2120  0.3019 -0.1426
   79DOPC   GL1  921  11.253   8.718  15.400 -0.0341  0.1528  0.3366
   79DOPC   GL2  922  11.125   8.881  15.219 -0.0166 -0.1586  0.0388
   79DOPC   C1A  923  10.987   8.450  15.060  0.3894 -0.2769 -0.0429
   79DOPC   D2A  924  10.792   8.469  14.653  0.1621  0.1160 -0.0370
   79DOPC   C3A  925  10.407   8.240  14.525  0.0660  0.1148 -0.0355
   79DOPC   C4A  926  10.167   7.882  14.742  0.2200 -0.0855  0.0318
   79DOPC   C1B  927  11.213   8.796  14.783  0.0664 -0.0117 -0.2131
   79DOPC   D2B  928  11.094   8.642  14.347  0.1733  0.1264  0.1771
   79DOPC   C3B  929  10.987   9.086  14.285  0.0541  0.1860  0.0163
   79DOPC   C4B  930  10.950   9.558  14.432  0.1545 -0.1479 -0.0896
   80DOPC   NC3  931   0.061   1.331  16.390 -0.3145  0.1938  0.4740
   80DOPC   PO4  932  -0.267   1.527  16.457  0.1283  0.0392 -0.0814
   80DOPC   GL1  933  -0.352   1.428  16.079 -0.2793 -0.1459 -0.2014
   80DOPC   GL2  934  -0.371   1.157  16.073  0.0251 -0.3766 -0.2637
   80DOPC   C1A  935  -0.425   1.313  15.633  0.0218  0.3250 -0.1492
   80DOPC   D2A  936  -0.595   0.890  15.517  0.2126 -0.1594  0.0827
   80DOPC   C3A  937  -0.405   0.504  15.285 -0.1197  0.1599  0.2581
   80DOPC   C4A  938  -0.437   0.392  14.859 -0.0169 -0.1831 -0.3637
   80DOPC   C1B  939  -0.801   1.178  15.863  0.0303  0.0518 -0.1692
   80DOPC   D2B  940  -1.097   1.120  15.483  0.6236 -0.0857 -0.0932
   80DOPC   C3B  941  -0.913   0.933  15.106 -0.3722 -0.0559 -0.0807
   80DOPC   C4B  942  -0.836   0.773  14.688 -0.0555 -0.0768 -0.1724
   81DOPC   NC3  943   6.282   4.169  15.738  0.0115  0.0549 -0.2039
   81DOPC   PO4  944   6.623   4.011  15.900 -0.1783  0.0329  0.3135
   81DOPC   GL1  945   6.567   3.831  15.559  0.0597 -0.1364  0.0632
   81DOPC   GL2  946   6.302   3.722  15.459  0.0361  0.1541 -0.0748
   81DOPC   C1A  947   6.801   3.817  15.134 -0.2598  0.1942  0.1600
   81DOPC   D2A  948   6.809   3.916  14.673  0.2311  0.2405 -0.0115
   81DOPC   C3A  949   7.099   4.048  14.375 -0.0898 -0.1682  0.1360
   81DOPC   C4A  950   7.425   3.881  14.091  0.0188 -0.0429  0.2952
   81DOPC   C1B  951   6.428   3.401  15.207  0.1317  0.2341 -0.1346
   81DOPC   D2B  952   6.572   2.991  15.007 -0.0144 -0.3037  0.1641
   81DOPC   C3B  953   6.470   3.170  14.644  0.1281 -0.0784  0.0954
   81DOPC   C4B  954   6.561   3.531  14.362 -0.4620  0.1682  0.1272
   82DOPE   NH3  955  10.476   5.899  15.837 -0.1349  0.3516 -0.1148
   82DOPE   PO4  956  10.508   6.182  15.927  0.0514  0.2272  0.0855
   82DOPE   GL1  957  10.463   6.295  15.454  0.1471  0.3115 -0.0555
   82DOPE   GL2  958  10.584   6.603  15.565  0.2539  0.0160 -0.1232
   82DOPE   C1A  959  10.392   6.276  14.982  0.3702 -0.0206  0.0379
   82DOPE   D2A  960  10.231   6.536  14.649 -0.3799 -0.1689  0.0023
   82DOPE   C3A  961  10.346   6.448  14.169 -0.0332 -0.0603  0.0587
   82DOPE   C4A  962  10.538   6.435  13.736 -0.0639 -0.0365 -0.1155
   82DOPE   C1B  963  10.214   6.752  15.270  0.1964 -0.0731  0.0926
   82DOPE   D2B  964   9.808   6.798  15.222 -0.1590 -0.1882 -0.0240
   82DOPE   C3B  965   9.405   6.660  15.147  0.1287  0.0888  0.2364
   82DOPE   C4B  966   8.943   6.633  15.022  0.1803  0.1282 -0.0452
   83DOPE   NH3  967   8.664   6.915  15.910  0.0991  0.0417 -0.0546
   83DOPE   PO4  968   8.905   6.759  16.097 -0.0358  0.1099  0.2380
   83DOPE   GL1  969   8.945   6.421  15.903 -0.0111  0.0858 -0.1258
   83DOPE   GL2  970   8.694   6.368  15.804  0.1390 -0.1747 -0.5694
   83DOPE   C1A  971   9.296   6.094  15.841  0.3434  0.1267 -0.2202
   83DOPE   D2A  972   9.435   5.855  15.513 -0.0585 -0.0692  0.1057
   83DOPE   C3A  973   9.369   6.095  15.193  0.0953 -0.2542  0.0367
   83DOPE   C4A  974   9.129   6.232  14.822 -0.0392  0.0341 -0.0591
   83DOPE   C1B  975   8.960   6.272  15.429  0.1194 -0.2905  0.1588
   83DOPE   D2B  976   8.811   5.960  15.122  0.2022  0.6092  0.2564
   83DOPE   C3B  977   8.635   6.070  14.751  0.0866 -0.3725  0.4235
   83DOPE   C4B  978   8.836   6.304  14.399  0.0412 -0.1815 -0.2043
   84POSM   NC3  979   5.153   9.503  16.286  0.0884  0.0218  0.0972
   84POSM   PO4  980   5.300   9.124  16.405 -0.0601  0.0510 -0.1107
   84POSM   AM1  981   5.435   9.064  16.073  0.3381  0.0500 -0.2290
   84POSM   AM2  982   5.656   9.208  15.966 -0.0440  0.0373 -0.0138
   84POSM   T1A  983   5.572   8.946  15.602  0.2232 -0.2534  0.0287
   84POSM   C2A  984   5.622   8.999  15.110 -0.3193 -0.2059 -0.0230
   84POSM   C3A  985   5.489   8.794  14.690  0.1419 -0.0025 -0.1951
   84POSM   C1B  986   5.759   9.360  15.683  0.0364  0.0968 -0.1099
   84POSM   D2B  987   5.942   9.501  15.293  0.1463 -0.2448  0.1502
   84POSM   C3B  988   5.989   9.507  14.834  0.1667 -0.2812  0.1861
   84POSM   C4B  989   5.881   9.698  14.400 -0.0032 -0.1170  0.1294
   85DOPC   NC3  990   7.178  34.618  15.705  0.0255  0.2322 -0.1855
   85DOPC   PO4  991   7.533  34.756  15.833 -0.1425  0.0476 -0.0547
   85DOPC   GL1  992   7.592  35.043  15.563 -0.2363 -0.2795 -0.0021
   85DOPC   GL2  993   7.394  34.902  15.315  0.2696  0.1866 -0.0211
   85DOPC   C1A  994   7.729  35.156  15.127 -0.3147 -0.2022 -0.0329
   85DOPC   D2A  995   7.810  35.350  14.681  0.2435  0.1308 -0.1198
   85DOPC   C3A  996   8.086  35.685  14.594  0.0358 -0.1082  0.1756
   85DOPC   C4A  997   8.027  36.033  14.842 -0.0725 -0.1810  0.2194
   85DOPC   C1B  998   7.301  34.537  15.032  0.1576  0.3195 -0.1058
   85DOPC   D2B  999   7.485  34.338  14.644 -0.2649 -0.1913  0.1102
   85DOPC   C3B 1000   7.894  34.497  14.573 -0.0560 -0.1214 -0.0774
   85DOPC   C4B 1001   8.300  34.470  14.767 -0.0485  0.0012 -0.2115
   86POSM   NC3 1002   3.015   1.639  16.057  0.0080 -0.0100 -0.0389
   86POSM   PO4 1003   3.250   1.902  16.025 -0.1243 -0.1302 -0.1805
   86POSM   AM1 1004   3.303   1.971  15.700  0.0552 -0.2548  0.1276
   86POSM   AM2 1005   3.126   1.991  15.463 -0.0019 -0.0401  0.1364
   86POSM   T1A 1006   3.649   1.986  15.343  0.0460  0.0868 -0.0268
   86POSM   C2A 1007   3.883   2.098  15.061 -0.2304 -0.3901 -0.1568
   86POSM   C3A 1008   3.828   2.262  14.630 -0.0727 -0.0614  0.1396
   86POSM   C1B 1009   3.202   1.784  15.245  0.0655  0.0285  0.0204
   86POSM   D2B 1010   3.145   1.415  14.933  0.3419 -0.0174 -0.0231
   86POSM   C3B 1011   3.497   1.394  14.566  0.0218  0.3145 -0.3971
   86POSM   C4B 1012   3.689   1.475  14.170 -0.1940  0.1208  0.0369
   87POSM   NC3 1013   0.385  10.945  16.162 -0.0326 -0.0771 -0.1170
   87POSM   PO4 1014   0.693  10.735  16.352  0.0995 -0.0788  0.1411
   87POSM   AM1 1015   0.741  10.676  16.042 -0.0696  0.0644 -0.2442
   87POSM   AM2 1016   0.870  10.479  15.896  0.0985 -0.1952 -0.0552
   87POSM   T1A 1017   0.624  10.770  15.599 -0.1609  0.1407  0.1918
   87POSM   C2A 1018   0.386  10.735  15.189  0.0633  0.3462 -0.0056
   87POSM   C3A 1019   0.169  10.599  14.813 -0.0054 -0.1836  0.0861
   87POSM   C1B 1020   0.956  10.344  15.560  0.2008  0.0677  0.1262
   87POSM   D2B 1021   1.203  10.206  15.212 -0.0122 -0.2188 -0.0293
   87POSM   C3B 1022   0.948   9.931  14.837  0.3117 -0.3028  0.1732
   87POSM   C4B 1023   0.836   9.932  14.345 -0.1862 -0.0769  0.0126
   88DOPS   CNO 1024   5.598   6.768  16.635  0.2401  0.1029  0.0036
   88DOPS   PO4 1025   5.270   6.929  16.499 -0.1612  0.0406  0.2526
   88DOPS   GL1 1026   5.319   6.899  16.101 -0.2729 -0.0790  0.2954
   88DOPS   GL2 1027   5.342   6.618  16.002  0.1119  0.1507  0.1265
   88DOPS   C1A 1028   5.607   6.955  15.781  0.2285  0.2247  0.1336
   88DOPS   D2A 1029   5.605   6.843  15.310  0.2021 -0.0760  0.2572
   88DOPS   C3A 1030   5.509   6.443  15.044  0.0650 -0.4062 -0.1745
   88DOPS   C4A 1031   5.233   6.263  14.779  0.4359 -0.1125 -0.4213
   88DOPS   C1B 1032   5.191   6.756  15.559 -0.1603 -0.1314  0.2359
   88DOPS   D2B 1033   4.962   6.924  15.178 -0.0425 -0.0654  0.1081
   88DOPS   C3B 1034   5.302   7.250  15.076  0.2317  0.1347 -0.0860
   88DOPS   C4B 1035   5.293   7.362  14.617  0.1169  0.2559  0.0523
   89DOPC   NC3 1036   3.345   8.651  15.986  0.1418  0.1969 -0.0268
   89DOPC   PO4 1037   3.195   8.961  16.167 -0.3913  0.0708 -0.1693
   89DOPC   GL1 1038   2.994   9.146  15.845  0.0242  0.0604 -0.2554
   89DOPC   GL2 1039   2.953   8.900  15.699  0.2143 -0.2199 -0.0522
   89DOPC   C1A 1040   3.004   9.553  15.655  0.4387  0.0815 -0.1476
   89DOPC   D2A 1041   2.853   9.768  15.260  0.2068 -0.0223  0.0075
   89DOPC   C3A 1042   2.905   9.503  14.836 -0.2030  0.1635 -0.4599
   89DOPC   C4A 1043   2.860   9.151  14.502  0.0243  0.0927  0.2192
   89DOPC   C1B 1044   3.294   8.809  15.469 -0.3435  0.2095  0.0258
   89DOPC   D2B 1045   3.312   8.679  15.051 -0.3833  0.2487  0.2691
   89DOPC   C3B 1046   2.984   8.558  14.759 -0.0977  0.2594 -0.4012
   89DOPC   C4B 1047   2.556   8.677  14.630 -0.0252 -0.0433  0.0790
   90DOPE   NH3 1048   4.048   7.033  16.561  0.1787  0.1873  0.1211
   90DOPE   PO4 1049   4.277   7.216  16.665  0.1397  0.0235  0.1643
   90DOPE   GL1 1050   4.273   7.362  16.322 -0.0476 -0.2161  0.0119
   90DOPE   GL2 1051   4.540   7.456  16.333  0.1790 -0.2977 -0.1091
   90DOPE   C1A 1052   4.285   7.695  16.007  0.3373 -0.0405 -0.0925
   90DOPE   D2A 1053   4.337   8.072  15.787 -0.1656 -0.0542 -0.0315
   90DOPE   C3A 1054   4.720   7.985  15.548 -0.4158  0.1932  0.0921
   90DOPE   C4A 1055   5.182   8.073  15.371  0.2605 -0.0842 -0.2522
   90DOPE   C1B 1056   4.752   7.763  16.067  0.3327 -0.0908 -0.1442
   90DOPE   D2B 1057   5.081   7.882  15.843  0.1307 -0.1372 -0.0271
   90DOPE   C3B 1058   5.385   7.542  15.646 -0.0751 -0.0429 -0.0450
   90DOPE   C4B 1059   5.715   7.343  15.380 -0.0650  0.1157  0.1231
   91DOPE   NH3 1060   5.004   1.269  16.361 -0.0620 -0.2758  0.2119
   91DOPE   PO4 1061   5.316   1.262  16.189 -0.0618  0.1677  0.1352
   91DOPE   GL1 1062   5.065   1.364  15.848 -0.1857  0.6461  0.1257
   91DOPE   GL2 1063   4.975   1.632  15.865  0.4151 -0.4251  0.1620
   91DOPE   C1A 1064   4.853   1.340  15.451  0.1663 -0.0382  0.1704
   91DOPE   D2A 1065   4.939   1.680  15.115 -0.0811  0.1860  0.0224
   91DOPE   C3A 1066   5.287   1.940  14.976  0.2177 -0.3035  0.0727
   91DOPE   C4A 1067   5.618   2.083  14.666  0.1471  0.1086 -0.0187
   91DOPE   C1B 1068   5.328   1.597  15.492  0.2490  0.0487 -0.1051
   91DOPE   D2B 1069   5.599   1.654  15.137  0.0488 -0.0079 -0.4047
   91DOPE   C3B 1070   5.495   1.599  14.671 -0.1930 -0.1914 -0.0509
   91DOPE   C4B 1071   5.218   1.857  14.369 -0.0180 -0.4047  0.0783
   92DOPC   NC3 1072   7.689   3.930  16.003  0.1233  0.1172  0.2543
   92DOPC   PO4 1073   7.759   3.562  16.159 -0.0302  0.0066  0.1013
   92DOPC   GL1 1074   7.621   3.385  15.797 -0.0569 -0.2560  0.1358
   92DOPC   GL2 1075   7.582   3.621  15.623 -0.0888 -0.0667  0.5358
   92DOPC   C1A 1076   7.201   3.240  15.582 -0.0262 -0.0997 -0.0251
   92DOPC   D2A 1077   6.903   3.382  15.262 -0.0500 -0.2840 -0.3274
   92DOPC   C3A 1078   6.932   3.461  14.759  0.2133 -0.1652 -0.0802
   92DOPC   C4A 1079   6.986   3.193  14.367 -0.1031  0.2676 -0.3278
   92DOPC   C1B 1080   7.317   3.650  15.245 -0.0154  0.1653  0.2381
   92DOPC   D2B 1081   7.203   3.953  14.975  0.0860 -0.5665 -0.3458
   92DOPC   C3B 1082   7.414   4.340  14.772  0.0178  0.1913  0.0842
   92DOPC   C4B 1083   7.565   4.558  14.366 -0.1316  0.1296  0.1511
   93POSM   NC3 1084   8.473   8.906  15.441  0.2483 -0.0891  0.3496
   93POSM   PO4 1085   8.238   8.669  15.689 -0.0221 -0.2157  0.0267
   93POSM   AM1 1086   8.234   8.519  15.378 -0.2213  0.0195  0.1666
   93POSM   AM2 1087   8.366   8.424  15.085  0.1814 -0.2090 -0.1855
   93POSM   T1A 1088   7.899   8.244  15.128 -0.1233  0.1628  0.1108
   93POSM   C2A 1089   7.825   8.220  14.696  0.3665 -0.0165 -0.1083
   93POSM   C3A 1090   7.537   8.092  14.368 -0.1672 -0.2081  0.1961
   93POSM   C1B 1091   8.426   8.365  14.754  0.1561 -0.0080  0.0130
   93POSM   D2B 1092   8.271   8.165  14.360  0.0282 -0.0440 -0.2176
   93POSM   C3B 1093   7.947   8.315  14.030 -0.1566 -0.0900  0.1726
   93POSM   C4B 1094   7.680   8.467  13.636 -0.1925 -0.1667  0.2053
   94POSM   NC3 1095   2.646  10.269  16.454  0.1362 -0.0960 -0.0431
   94POSM   PO4 1096   2.631  10.369  16.092 -0.0979 -0.0663 -0.0563
   94POSM   AM1 1097   2.482  10.380  15.828  0.1868  0.1340 -0.1099
   94POSM   AM2 1098   2.170  10.405  15.803  0.2225 -0.0262  0.1815
   94POSM   T1A 1099   2.468  10.533  15.361 -0.2757 -0.0654 -0.1796
   94POSM   C2A 1100   2.301  10.792  14.969  0.1847  0.4863  0.1636
   94POSM   C3A 1101   2.371  11.102  14.598  0.4623  0.1113 -0.4217
   94POSM   C1B 1102   2.029  10.511  15.529 -0.2217 -0.1875 -0.5003
   94POSM   D2B 1103   2.036  10.388  15.084 -0.0021 -0.0172  0.0795
   94POSM   C3B 1104   2.053  10.062  14.824 -0.2414 -0.1645  0.1313
   94POSM   C4B 1105   1.959   9.744  14.516 -0.1101 -0.3335 -0.1762
   95DOPC   NC3 1106   8.315   9.806  15.731  0.1700 -0.1667  0.0493
   95DOPC   PO4 1107   8.658   9.974  15.772 -0.1176 -0.2247  0.2166
   95DOPC   GL1 1108   8.786   9.813  15.358  0.1837  0.3649 -0.0897
   95DOPC   GL2 1109   8.515   9.842  15.305  0.1647 -0.0702 -0.0462
   95DOPC   C1A 1110   8.929   9.694  14.922 -0.3582  0.0718 -0.2915
   95DOPC   D2A 1111   8.975   9.457  14.574  0.0496 -0.0934  0.2392
   95DOPC   C3A 1112   8.616   9.565  14.247 -0.1828 -0.2127 -0.0228
   95DOPC   C4A 1113   8.243   9.873  14.140 -0.1678 -0.0958  0.2087
   95DOPC   C1B 1114   8.298  10.080  14.989 -0.0357  0.2547  0.0421
   95DOPC   D2B 1115   8.081  10.053  14.556 -0.0686 -0.0508 -0.1327
   95DOPC   C3B 1116   8.067  10.459  14.299  0.1126  0.0311  0.0193
   95DOPC   C4B 1117   8.425  10.783  14.174 -0.1824 -0.2679 -0.0288
   96DOPS   CNO 1118   4.366   6.140  16.656 -0.0046  0.1177  0.0492
   96DOPS   PO4 1119   4.588   5.909  16.413 -0.0804  0.1476 -0.3934
   96DOPS   GL1 1120   4.683   6.076  15.987 -0.2570  0.2190 -0.1292
   96DOPS   GL2 1121   4.397   5.981  15.875 -0.1296  0.3184 -0.1690
   96DOPS   C1A 1122   4.852   6.510  15.965 -0.0061  0.2060  0.0156
   96DOPS   D2A 1123   4.906   6.957  15.958 -0.1022 -0.3397 -0.2042
   96DOPS   C3A 1124   4.955   7.205  15.597 -0.0934 -0.1777  0.1703
   96DOPS   C4A 1125   5.027   7.610  15.327 -0.1475  0.1466  0.3105
   96DOPS   C1B 1126   4.578   6.311  15.584 -0.0344 -0.1397 -0.0747
   96DOPS   D2B 1127   4.619   6.729  15.544  0.1839 -0.0992  0.0981
   96DOPS   C3B 1128   4.188   6.972  15.517  0.0245  0.1113 -0.1635
   96DOPS   C4B 1129   3.783   6.760  15.370 -0.0485 -0.0124  0.0981
   97DOPE   NH3 1130  11.176   4.234  15.150  0.0556 -0.0730  0.1016
   97DOPE   PO4 1131  10.974   4.212  15.422 -0.0580 -0.0179  0.2244
   97DOPE   GL1 1132  10.752   4.460  15.140  0.2455 -0.0510  0.2839
   97DOPE   GL2 1133  10.582   4.725  15.112 -0.2639 -0.1352 -0.2555
   97DOPE   C1A 1134  10.814   4.520  14.711 -0.0690 -0.3499 -0.1855
   97DOPE   D2A 1135  10.787   4.632  14.269 -0.0017 -0.0270  0.2317
   97DOPE   C3A 1136  10.455   4.665  13.966 -0.1002  0.0903  0.0442
   97DOPE   C4A 1137  10.120   5.040  13.936  0.1287  0.2150 -0.0407
   97DOPE   C1B 1138  10.196   4.644  14.903 -0.1260 -0.4254  0.0125
   97DOPE   D2B 1139   9.940   4.573  14.476 -0.0073  0.2089  0.0728
   97DOPE   C3B 1140   9.646   4.820  14.248  0.1325  0.1744  0.0076
   97DOPE   C4B 1141   9.406   5.089  13.973 -0.2914 -0.1240  0.4221
   98DOPS   CNO 1142   5.423   9.903  16.475  0.1081  0.1281  0.0416
   98DOPS   PO4 1143   5.381   9.879  16.092 -0.2200  0.0539 -0.1648
   98DOPS   GL1 1144   5.450   9.606  15.843 -0.1813  0.3348 -0.3485
   98DOPS   GL2 1145   5.212   9.419  15.783 -0.0268  0.1445  0.0345
   98DOPS   C1A 1146   5.478   9.622  15.399  0.1429  0.0641 -0.1842
   98DOPS   D2A 1147   5.620   9.803  15.003 -0.2638 -0.1532 -0.0693
   98DOPS   C3A 1148   5.412   9.646  14.668 -0.1381 -0.3051 -0.0045
   98DOPS   C4A 1149   5.109   9.758  14.276  0.0788  0.2697  0.2884
   98DOPS   C1B 1150   5.112   9.003  15.539  0.2221 -0.0819  0.0834
   98DOPS   D2B 1151   5.232   8.584  15.303  0.2259 -0.1754 -0.2381
   98DOPS   C3B 1152   4.831   8.371  15.152  0.0346  0.0406  0.3031
   98DOPS   C4B 1153   4.587   7.974  15.024  0.0796  0.1513  0.0801
   99DOPS   CNO 1154   2.070   1.669  16.281 -0.3665  0.0661 -0.2810
   99DOPS   PO4 1155   1.977   1.977  16.055  0.1671  0.1534 -0.0267
   99DOPS   GL1 1156   1.965   1.647  15.828 -0.1252  0.2406  0.0975
   99DOPS   GL2 1157   2.129   1.364  15.857  0.0198 -0.5261  0.0448
   99DOPS   C1A 1158   1.577   1.443  15.721 -0.1598  0.0313 -0.0414
   99DOPS   D2A 1159   1.310   1.054  15.600  0.1592 -0.1430  0.1168
   99DOPS   C3A 1160   1.323   0.868  15.170  0.1507  0.2199 -0.2416
   99DOPS   C4A 1161   1.274   0.588  14.797 -0.0494  0.0157 -0.1880
   99DOPS   C1B 1162   2.346   1.518  15.451 -0.3558 -0.3972 -0.2356
   99DOPS   D2B 1163   2.203   1.539  14.981  0.3385  0.0842  0.3614
   99DOPS   C3B 1164   2.526   1.314  14.711 -0.0119  0.4004 -0.1587
   99DOPS   C4B 1165   2.928   1.430  14.485 -0.3473  0.0010 -0.0328
  100POSM   NC3 1166   2.259   7.545  16.993 -0.0975 -0.0345  0.0337
  100POSM   PO4 1167   2.233   7.222  16.747  0.1686  0.1789  0.0824
  100POSM   AM1 1168   2.179   7.354  16.459 -0.1196 -0.0246  0.2969
  100POSM   AM2 1169   2.007   7.380  16.218 -0.0264 -0.2716  0.0265
  100POSM   T1A 1170   2.534   7.503  16.116  0.0509  0.2059 -0.3483
  100POSM   C2A 1171   2.581   7.743  15.671  0.4639  0.3681  0.0698
  100POSM   C3A 1172   2.503   8.183  15.483  0.1852  0.0142  0.0645
  100POSM   C1B 1173   2.049   7.397  15.845 -0.2428  0.0199 -0.2045
  100POSM   D2B 1174   2.253   7.416  15.455 -0.3171  0.1264  0.1218
  100POSM   C3B 1175   2.175   7.801  15.235  0.0190 -0.0808  0.0331
  100POSM   C4B 1176   2.057   7.970  14.761  0.0906 -0.0287 -0.1866
  101POSM   NC3 1177   9.856   5.683  16.563 -0.1486  0.2112  0.0958
  101POSM   PO4 1178   9.675   5.743  16.219  0.0135  0.0668 -0.1751
  101POSM   AM1 1179   9.480   5.653  15.981  0.1832 -0.2408 -0.0673
  101POSM   AM2 1180   9.549   5.476  15.804 -0.0674  0.1296 -0.0271
  101POSM   T1A 1181   9.069   5.596  15.717  0.3087 -0.0776 -0.1967
  101POSM   C2A 1182   8.645   5.833  15.612  0.2211  0.0108 -0.2943
  101POSM   C3A 1183   8.392   6.182  15.434 -0.3066 -0.2134 -0.0652
  101POSM   C1B 1184   9.520   5.339  15.485 -0.1201 -0.0576  0.2207
  101POSM   D2B 1185   9.721   5.260  15.111 -0.1776 -0.1548  0.0472
  101POSM   C3B 1186   9.318   5.217  14.846  0.0609 -0.1301 -0.1965
  101POSM   C4B 1187   8.877   5.311  14.818 -0.0608 -0.3422  0.2373
  102DOPC   NC3 1188   2.394   2.095  15.821 -0.1345  0.1594 -0.1000
  102DOPC   PO4 1189   2.767   2.200  15.770 -0.0147  0.1155  0.3744
  102DOPC   GL1 1190   2.654   2.181  15.398 -0.1575 -0.2685 -0.4067
  102DOPC   GL2 1191   2.837   2.175  15.109 -0.0150 -0.0455  0.2268
  102DOPC   C1A 1192   2.237   2.012  15.270  0.1932 -0.0227 -0.0614
  102DOPC   D2A 1193   1.855   1.969  15.024  0.0758  0.0943  0.1834
  102DOPC   C3A 1194   1.982   2.302  14.726  0.2459 -0.1752  0.3785
  102DOPC   C4A 1195   2.404   2.437  14.793  0.1142 -0.2060 -0.0765
  102DOPC   C1B 1196   2.942   2.452  14.721  0.1397 -0.2452 -0.1352
  102DOPC   D2B 1197   3.009   2.801  14.436 -0.0411 -0.0984 -0.0599
  102DOPC   C3B 1198   2.940   2.600  14.015  0.0345  0.3015  0.1430
  102DOPC   C4B 1199   2.643   2.252  13.812  0.2324  0.0704  0.1003
  103POSM   NC3 1200   5.271  11.735  15.888  0.1469  0.1110 -0.1050
  103POSM   PO4 1201   5.295  11.327  15.998 -0.0193 -0.1933 -0.0907
  103POSM   AM1 1202   5.416  11.094  15.841  0.1240 -0.0298  0.2000
  103POSM   AM2 1203   5.631  10.925  15.921  0.0775 -0.0106 -0.0003
  103POSM   T1A 1204   5.511  11.030  15.352 -0.0223 -0.0758 -0.2410
  103POSM   C2A 1205   5.630  10.962  14.904 -0.0110 -0.0148 -0.0687
  103POSM   C3A 1206   6.029  10.937  14.709  0.3167  0.2462 -0.0111
  103POSM   C1B 1207   5.868  10.982  15.670 -0.0338 -0.0522  0.3277
  103POSM   D2B 1208   6.023  11.098  15.252 -0.2251 -0.2198 -0.0392
  103POSM   C3B 1209   6.181  11.335  14.861 -0.4055 -0.2063  0.2649
  103POSM   C4B 1210   6.183  11.314  14.438 -0.3159  0.0757 -0.1581
  104DOPC   NC3 1211   6.906   6.292  16.473 -0.2891 -0.0950  0.3289
  104DOPC   PO4 1212   6.977   6.416  16.163 -0.0930 -0.1634 -0.2766
  104DOPC   GL1 1213   6.871   6.610  15.922 -0.1727  0.0074  0.0113
  104DOPC   GL2 1214   7.050   6.773  15.668  0.2404  0.1121 -0.0915
  104DOPC   C1A 1215   6.595   6.431  15.542  0.0978  0.1481  0.1972
  104DOPC   D2A 1216   6.542   6.302  15.093  0.3737 -0.3395 -0.4028
  104DOPC   C3A 1217   6.435   6.545  14.696  0.1616 -0.1461 -0.0534
  104DOPC   C4A 1218   6.451   6.444  14.290 -0.0484 -0.2008 -0.1502
  104DOPC   C1B 1219   7.226   6.476  15.392 -0.2931 -0.0064 -0.1501
  104DOPC   D2B 1220   7.526   6.212  15.192  0.0455  0.1955 -0.2995
  104DOPC   C3B 1221   7.605   6.340  14.776  0.1612  0.0856  0.1191
  104DOPC   C4B 1222   7.708   6.068  14.382 -0.0659 -0.0030  0.1461
  105POSM   NC3 1223   7.691   6.125  15.992  0.1700  0.2099  0.1843
  105POSM   PO4 1224   7.322   5.993  16.098 -0.2704  0.1020 -0.4170
  105POSM   AM1 1225   7.244   6.037  15.814  0.2477 -0.0323  0.0305
  105POSM   AM2 1226   6.973   6.108  15.754 -0.0060  0.3130 -0.1306
  105POSM   T1A 1227   7.275   5.787  15.342 -0.2709 -0.2545 -0.0287
  105POSM   C2A 1228   7.428   5.808  14.908 -0.1948 -0.1211  0.0462
  105POSM   C3A 1229   7.557   5.618  14.508  0.1376  0.0445  0.3344
  105POSM   C1B 1230   6.874   6.073  15.398 -0.0388  0.2815 -0.1881
  105POSM   D2B 1231   7.046   6.199  14.955 -0.1373 -0.3274  0.0993
  105POSM   C3B 1232   6.905   6.438  14.567  0.4587  0.1505 -0.2792
  105POSM   C4B 1233   6.932   6.538  14.128 -0.0570 -0.0264 -0.3043
  106POSM   NC3 1234   7.839   1.514  16.262 -0.1276  0.0416 -0.0822
  106POSM   PO4 1235   8.165   1.383  16.101 -0.0338 -0.1770  0.0208
  106POSM   AM1 1236   8.278   1.221  15.852  0.2330 -0.0787 -0.1558
  106POSM   AM2 1237   8.184   1.180  15.592 -0.2780  0.2108  0.1840
  106POSM   T1A 1238   8.629   0.979  15.615  0.0238 -0.0590  0.1465
  106POSM   C2A 1239   8.713   0.872  15.176  0.1065  0.2790 -0.3179
  106POSM   C3A 1240   8.867   0.766  14.694 -0.1187 -0.1251 -0.0082
  106POSM   C1B 1241   8.302   1.175  15.256 -0.2041 -0.2268 -0.1531
  106POSM   D2B 1242   8.508   1.083  14.840 -0.1388 -0.1180  0.0528
  106POSM   C3B 1243   8.534   1.445  14.577 -0.0310  0.1272  0.3948
  106POSM   C4B 1244   8.800   1.779  14.752 -0.1886  0.0679  0.0350
  107DOPC   NC3 1245   2.304   3.065  16.049  0.0587  0.1872  0.0118
  107DOPC   PO4 1246   2.043   3.303  15.955 -0.1741 -0.2033 -0.1578
  107DOPC   GL1 1247   1.991   3.363  15.567  0.2319 -0.1248  0.4335
  107DOPC   GL2 1248   1.685   3.334  15.622 -0.2047  0.0129 -0.1353
  107DOPC   C1A 1249   2.158   3.601  15.214  0.1874 -0.1485  0.0260
  107DOPC   D2A 1250   2.389   3.908  14.956  0.1017 -0.0415 -0.1513
  107DOPC   C3A 1251   2.632   3.802  14.588  0.0367  0.1372  0.0540
  107DOPC   C4A 1252   2.685   3.628  14.170 -0.1689 -0.0861  0.3532
  107DOPC   C1B 1253   1.375   3.318  15.253 -0.1024 -0.0539  0.1593
  107DOPC   D2B 1254   1.228   3.279  14.841  0.4200  0.1271  0.3385
  107DOPC   C3B 1255   1.463   3.160  14.539  0.1910  0.0165 -0.0032
  107DOPC   C4B 1256   1.843   3.140  14.282  0.4686  0.0354 -0.0440
  108DOPE   NH3 1257   1.963   2.486  15.939  0.2094 -0.1164  0.0743
  108DOPE   PO4 1258   2.276   2.567  16.011  0.0738  0.1214  0.2089
  108DOPE   GL1 1259   2.443   2.508  15.677  0.1906 -0.0324 -0.3120
  108DOPE   GL2 1260   2.234   2.434  15.488 -0.1187 -0.1443 -0.3334
  108DOPE   C1A 1261   2.612   2.606  15.204 -0.1803 -0.0998  0.0538
  108DOPE   D2A 1262   2.778   2.907  14.841 -0.0463 -0.0619  0.2208
  108DOPE   C3A 1263   2.550   2.782  14.442  0.2292 -0.1660  0.2171
  108DOPE   C4A 1264   2.537   2.302  14.295  0.0154  0.0878  0.1755
  108DOPE   C1B 1265   2.088   2.688  15.119 -0.0528 -0.2208 -0.0720
  108DOPE   D2B 1266   2.111   2.893  14.669 -0.0322  0.0435  0.0427
  108DOPE   C3B 1267   2.051   2.631  14.289  0.0254  0.0452 -0.0751
  108DOPE   C4B 1268   2.061   2.172  14.245 -0.0695 -0.1773  0.1110
  109DOPC   NC3 1269   0.207   5.075  15.893 -0.3442  0.1878  0.2114
  109DOPC   PO4 1270   0.497   4.923  16.139 -0.3117  0.0242  0.1256
  109DOPC   GL1 1271   0.661   4.719  15.887  0.2531 -0.1880 -0.2142
  109DOPC   GL2 1272   0.827   4.503  15.836 -0.4591  0.0248  0.0352
  109DOPC   C1A 1273   0.789   4.922  15.481  0.0262 -0.2357  0.0510
  109DOPC   D2A 1274   1.048   5.207  15.197 -0.1356  0.0150  0.2080
  109DOPC   C3A 1275   1.030   5.119  14.775  0.2245  0.2711  0.1509
  109DOPC   C4A 1276   0.719   5.336  14.521 -0.1345  0.1142  0.0470
  109DOPC   C1B 1277   1.164   4.602  15.597 -0.0325 -0.0414  0.0496
  109DOPC   D2B 1278   1.323   4.821  15.220  0.1126  0.2708 -0.0351
  109DOPC   C3B 1279   1.284   4.689  14.806 -0.3584  0.2746 -0.1133
  109DOPC   C4B 1280   1.271   4.364  14.479 -0.4429 -0.1571 -0.0827
  110POSM   NC3 1281  10.198   6.966  16.220  0.2107 -0.0602  0.0300
  110POSM   PO4 1282   9.926   7.227  16.117 -0.3889 -0.0643 -0.0590
  110POSM   AM1 1283   9.837   7.212  15.844  0.1128 -0.3288  0.0548
  110POSM   AM2 1284   9.734   6.977  15.675 -0.0447 -0.1414 -0.0892
  110POSM   T1A 1285   9.994   7.263  15.343  0.0200 -0.0584 -0.1995
  110POSM   C2A 1286  10.174   7.246  14.851 -0.1468  0.4260 -0.2375
  110POSM   C3A 1287  10.559   7.216  14.581  0.2411  0.0717  0.0494
  110POSM   C1B 1288   9.441   7.074  15.479  0.2591 -0.2417  0.1465
  110POSM   D2B 1289   9.115   7.232  15.177  0.1521  0.1911  0.2227
  110POSM   C3B 1290   9.150   6.984  14.765 -0.1432  0.0145 -0.1981
  110POSM   C4B 1291   9.023   6.944  14.306  0.1336  0.3526  0.3174
  111POSM   NC3 1292   0.663   9.450  16.107  0.0194  0.0243  0.1069
  111POSM   PO4 1293   0.809   9.715  16.344 -0.0928  0.1727  0.0134
  111POSM   AM1 1294   0.943   9.903  16.142  0.1296 -0.5018  0.2234
  111POSM   AM2 1295   1.116  10.050  15.978  0.1537 -0.1695  0.0906
  111POSM   T1A 1296   0.724   9.958  15.694 -0.3097  0.3081 -0.2066
  111POSM   C2A 1297   0.676   9.901  15.251 -0.2204  0.1123 -0.2889
  111POSM   C3A 1298   0.479   9.774  14.840  0.0771  0.0101 -0.0764
  111POSM   C1B 1299   1.264   9.949  15.649  0.4553  0.1110  0.1987
  111POSM   D2B 1300   1.588   9.899  15.333 -0.1137  0.1327  0.2270
  111POSM   C3B 1301   1.456   9.705  14.915  0.3427 -0.1178 -0.2328
  111POSM   C4B 1302   1.571   9.329  14.695 -0.0807  0.0298  0.1358
  112POSM   NC3 1303   4.121   5.745  16.409 -0.1658 -0.0902  0.1878
  112POSM   PO4 1304   3.761   5.686  16.527 -0.0120  0.2879  0.0548
  112POSM   AM1 1305   3.555   5.765  16.251 -0.0971 -0.1991 -0.0451
  112POSM   AM2 1306   3.292   5.859  16.272  0.2435  0.0743  0.2487
  112POSM   T1A 1307   3.452   5.614  15.777 -0.1923  0.1215  0.1408
  112POSM   C2A 1308   3.684   5.400  15.424  0.0963  0.1198 -0.1165
  112POSM   C3A 1309   4.047   5.355  15.219  0.0388 -0.0571 -0.0632
  112POSM   C1B 1310   3.168   5.963  15.946  0.1019  0.2051 -0.3952
  112POSM   D2B 1311   3.097   6.198  15.571  0.1043  0.0937 -0.0161
  112POSM   C3B 1312   2.806   6.159  15.207 -0.2990 -0.0048 -0.0601
  112POSM   C4B 1313   2.525   5.998  14.877  0.1265 -0.1242 -0.1103
  113POSM   NC3 1314   2.717  11.185  16.205  0.4330 -0.1441 -0.3087
  113POSM   PO4 1315   3.024  11.155  15.937 -0.3776  0.0443 -0.1254
  113POSM   AM1 1316   3.023  11.092  15.626 -0.6598 -0.1442  0.1300
  113POSM   AM2 1317   3.166  11.177  15.425 -0.1439  0.0306 -0.0141
  113POSM   T1A 1318   2.811  10.929  15.193  0.1565 -0.0331 -0.1918
  113POSM   C2A 1319   2.757  10.806  14.744 -0.0559  0.1600  0.1082
  113POSM   C3A 1320   2.815  10.404  14.520 -0.1652  0.2893 -0.0033
  113POSM   C1B 1321   3.438  11.180  15.193 -0.0576 -0.1693  0.1620
  113POSM   D2B 1322   3.712  11.033  14.863 -0.1700 -0.1124 -0.0538
  113POSM   C3B 1323   3.645  11.260  14.451  0.4950  0.3100 -0.0132
  113POSM   C4B 1324   3.723  11.575  14.132  0.1923 -0.1827  0.0405
  114DOPC   NC3 1325  10.960   6.307  15.509 -0.1619 -0.3113  0.3531
  114DOPC   PO4 1326  11.112   6.532  15.783  0.0077 -0.2126 -0.0584
  114DOPC   GL1 1327  11.148   6.770  15.453 -0.1193 -0.2120  0.0424
  114DOPC   GL2 1328  10.990   6.728  15.172 -0.1431 -0.0128 -0.0654
  114DOPC   C1A 1329  11.323   7.171  15.225 -0.1839  0.0061  0.0434
  114DOPC   D2A 1330  11.389   7.462  14.866 -0.0765  0.2880 -0.2231
  114DOPC   C3A 1331  10.999   7.558  14.700  0.2635  0.0400  0.3229
  114DOPC   C4A 1332  10.577   7.667  14.438 -0.2019  0.2295 -0.2885
  114DOPC   C1B 1333  11.027   7.057  14.850  0.0108 -0.2295  0.2572
  114DOPC   D2B 1334  11.128   7.030  14.405  0.1170 -0.1678  0.2029
  114DOPC   C3B 1335  10.979   7.369  14.147 -0.2095 -0.0565  0.6762
  114DOPC   C4B 1336  10.694   7.564  13.901 -0.2309 -0.2981 -0.1166
  115POSM   NC3 1337  10.970   7.329  15.528 -0.0981  0.1418  0.3014
  115POSM   PO4 1338  10.716   7.090  15.695  0.3865  0.1037  0.2256
  115POSM   AM1 1339  10.616   7.036  15.393  0.0111  0.0553 -0.0789
  115POSM   AM2 1340  10.604   7.211  15.152  0.0506 -0.1355  0.0795
  115POSM   T1A 1341  10.581   6.790  14.946 -0.1033  0.2154  0.1066
  115POSM   C2A 1342  10.730   6.683  14.526  0.1313 -0.5038  0.2473
  115POSM   C3A 1343  10.885   6.604  14.086  0.0588 -0.1263  0.0038
  115POSM   C1B 1344  10.623   7.530  14.995 -0.0026 -0.1769  0.1933
  115POSM   D2B 1345  10.708   7.972  14.770 -0.4254  0.0274  0.1857
  115POSM   C3B 1346  10.817   8.006  14.263  0.3657  0.0709  0.1228
  115POSM   C4B 1347  10.554   8.068  13.913 -0.2497  0.0500  0.0165
  116DOPS   CNO 1348   4.880   5.442  16.456 -0.0888  0.1363  0.0137
  116DOPS   PO4 1349   5.241   5.432  16.362  0.4182 -0.1373  0.1569
  116DOPS   GL1 1350   5.219   5.631  16.075  0.1722 -0.0242  0.0013
  116DOPS   GL2 1351   4.920   5.677  16.008  0.2600  0.1363 -0.1041
  116DOPS   C1A 1352   5.103   6.090  15.859  0.3128 -0.0324 -0.0365
  116DOPS   D2A 1353   5.175   6.279  15.498 -0.0210  0.1215  0.0115
  116DOPS   C3A 1354   4.908   6.397  15.176 -0.0373  0.3543 -0.0378
  116DOPS   C4A 1355   4.755   6.495  14.724  0.1800  0.0357 -0.2707
  116DOPS   C1B 1356   4.777   5.833  15.513 -0.0457 -0.2193  0.2617
  116DOPS   D2B 1357   5.014   5.884  15.106 -0.0492  0.2304  0.0762
  116DOPS   C3B 1358   4.781   5.917  14.759  0.1968 -0.0145  0.2998
  116DOPS   C4B 1359   4.517   6.060  14.393  0.0577  0.5085 -0.1659
  117DOPS   CNO 1360   0.733   7.385  15.817 -0.1071 -0.1944 -0.3654
  117DOPS   PO4 1361   0.459   7.512  15.632  0.1810 -0.0737  0.1727
  117DOPS   GL1 1362   0.510   7.439  15.288  0.1849 -0.3574  0.2267
  117DOPS   GL2 1363   0.487   7.151  15.264 -0.1060  0.1675 -0.1963
  117DOPS   C1A 1364   0.921   7.336  15.041  0.1226 -0.1574 -0.2632
  117DOPS   D2A 1365   1.300   7.032  15.026  0.0661  0.2071  0.1848
  117DOPS   C3A 1366   1.674   7.221  14.799  0.0839  0.1279  0.0872
  117DOPS   C4A 1367   2.099   7.420  14.794 -0.0883 -0.1285  0.2021
  117DOPS   C1B 1368   0.251   7.050  14.859  0.2156 -0.1577 -0.1243
  117DOPS   D2B 1369   0.066   7.015  14.410  0.0678 -0.1699 -0.0420
  117DOPS   C3B 1370   0.159   6.642  14.202 -0.0747  0.1820  0.0050
  117DOPS   C4B 1371   0.179   6.379  13.813 -0.0202 -0.2694  0.1461
  118DOPS   CNO 1372   5.820   8.152  16.227 -0.0038  0.0279  0.1513
  118DOPS   PO4 1373   6.137   8.365  16.189  0.2151 -0.0009  0.0076
  118DOPS   GL1 1374   5.911   8.326  15.836 -0.1249 -0.1475 -0.0111
  118DOPS   GL2 1375   6.088   8.114  15.766  0.2148 -0.1312 -0.0473
  118DOPS   C1A 1376   5.772   8.500  15.456  0.1399 -0.0266 -0.1813
  118DOPS   D2A 1377   5.743   8.512  14.969 -0.0768  0.0159 -0.0521
  118DOPS   C3A 1378   5.313   8.295  14.929  0.4113  0.2627  0.1263
  118DOPS   C4A 1379   5.072   7.867  14.896  0.0235 -0.1079 -0.3155
  118DOPS   C1B 1380   6.182   8.196  15.334 -0.0643 -0.0373  0.3891
  118DOPS   D2B 1381   6.153   8.229  14.872 -0.3856  0.1212 -0.0279
  118DOPS   C3B 1382   6.438   8.486  14.536 -0.1074 -0.0809  0.0590
  118DOPS   C4B 1383   6.727   8.881  14.481  0.1247  0.0049  0.2530
  119POSM   NC3 1384   8.516   2.909  15.735 -0.2699  0.2738  0.4981
  119POSM   PO4 1385   8.451   3.282  15.852  0.1713 -0.1256 -0.1125
  119POSM   AM1 1386   8.234   3.291  15.598 -0.2340 -0.0904 -0.1376
  119POSM   AM2 1387   8.094   3.152  15.452 -0.0457  0.0618 -0.0718
  119POSM   T1A 1388   8.001   3.612  15.304 -0.2797  0.0440  0.0124
  119POSM   C2A 1389   7.981   3.610  14.845 -0.1949  0.2473  0.0321
  119POSM   C3A 1390   8.110   3.629  14.440  0.2649 -0.1079  0.1569
  119POSM   C1B 1391   8.068   3.187  15.114  0.0106 -0.0753  0.1988
  119POSM   D2B 1392   8.226   3.218  14.684 -0.1033  0.1465 -0.2408
  119POSM   C3B 1393   8.650   3.024  14.706 -0.2518  0.1853  0.0222
  119POSM   C4B 1394   8.777   2.549  14.733  0.1173 -0.0338 -0.5497
  120DOPE   NH3 1395   7.884  11.472  16.691  0.1318 -0.0752  0.0940
  120DOPE   PO4 1396   7.836  11.230  16.487 -0.0508  0.0605  0.0515
  120DOPE   GL1 1397   7.780  11.227  16.029  0.0077 -0.1861 -0.1265
  120DOPE   GL2 1398   7.499  11.138  15.971 -0.0648  0.0502  0.2501
  120DOPE   C1A 1399   7.836  11.374  15.609 -0.0599  0.0026 -0.0651
  120DOPE   D2A 1400   7.907  11.349  15.192 -0.2121  0.1814  0.2071
  120DOPE   C3A 1401   8.027  11.157  14.805 -0.1807  0.0432 -0.0369
  120DOPE   C4A 1402   8.179  11.187  14.338 -0.4039 -0.0160 -0.1608
  120DOPE   C1B 1403   7.584  10.825  15.604  0.1197 -0.0622  0.1980
  120DOPE   D2B 1404   7.413  10.409  15.379 -0.2671 -0.2993  0.2750
  120DOPE   C3B 1405   7.718  10.390  15.046  0.1410 -0.1104  0.1095
  120DOPE   C4B 1406   7.983  10.580  14.746 -0.2877  0.2349  0.0934
  121POSM   NC3 1407   4.991   0.847  16.035 -0.0031 -0.0132  0.1037
  121POSM   PO4 1408   4.781   0.822  16.363 -0.1149  0.3939 -0.1444
  121POSM   AM1 1409   4.557   0.754  16.165 -0.0410  0.0899  0.3191
  121POSM   AM2 1410   4.444   0.846  15.878 -0.0928  0.1138  0.1192
  121POSM   T1A 1411   4.245   0.433  15.879 -0.1349 -0.2072 -0.2697
  121POSM   C2A 1412   4.027   0.323  15.445  0.3372 -0.0422  0.3175
  121POSM   C3A 1413   3.602   0.171  15.287 -0.0977  0.0683  0.0726
  121POSM   C1B 1414   4.673   0.920  15.653  0.0454  0.0927 -0.0486
  121POSM   D2B 1415   5.031   0.786  15.389 -0.1005  0.0254 -0.2789
  121POSM   C3B 1416   5.001   0.758  14.925  0.1064 -0.2467  0.0475
  121POSM   C4B 1417   4.793   1.003  14.626  0.3959  0.0131 -0.0547
  122DOPS   CNO 1418   7.123   6.931  16.148  0.0486  0.1947  0.2992
  122DOPS   PO4 1419   6.787   6.958  16.317  0.0720 -0.0459  0.0189
  122DOPS   GL1 1420   6.820   7.228  16.027 -0.0590  0.1590 -0.1150
  122DOPS   GL2 1421   6.525   7.344  16.114 -0.0317 -0.0353  0.1000
  122DOPS   C1A 1422   6.906   7.268  15.557  0.2266  0.2311  0.1951
  122DOPS   D2A 1423   7.236   7.081  15.251  0.1096 -0.0569  0.0432
  122DOPS   C3A 1424   7.280   7.506  15.101  0.1990 -0.3611  0.1692
  122DOPS   C4A 1425   7.530   7.904  15.131 -0.0077 -0.1466 -0.1356
  122DOPS   C1B 1426   6.448   7.431  15.713 -0.3839  0.1777  0.0722
  122DOPS   D2B 1427   6.485   7.474  15.282 -0.0411 -0.0732  0.0140
  122DOPS   C3B 1428   6.769   7.331  15.062  0.1463  0.2188  0.1642
  122DOPS   C4B 1429   6.898   6.973  14.810 -0.3246  0.3222  0.2011
  123POSM   NC3 1430  10.894   4.731  15.552 -0.0513  0.2868  0.1387
  123POSM   PO4 1431  10.615   4.472  15.702 -0.1364 -0.1969  0.2253
  123POSM   AM1 1432  10.369   4.651  15.514  0.0960  0.0480  0.1282
  123POSM   AM2 1433  10.097   4.604  15.464 -0.2830  0.1794 -0.1192
  123POSM   T1A 1434  10.144   5.002  15.204 -0.3915  0.0119 -0.2285
  123POSM   C2A 1435  10.327   5.282  14.853  0.0922  0.1746 -0.1383
  123POSM   C3A 1436  10.176   5.549  14.542  0.1445  0.2179  0.0345
  123POSM   C1B 1437  10.121   4.326  15.251 -0.2674  0.3633  0.3309
  123POSM   D2B 1438  10.365   4.177  14.944 -0.1678  0.4236  0.0173
  123POSM   C3B 1439  10.364   4.317  14.564 -0.0139 -0.1126 -0.1683
  123POSM   C4B 1440  10.200   4.238  14.110 -0.3683 -0.1805  0.2418
  124POSM   NC3 1441   5.098   2.990  16.299  0.0172 -0.1609  0.0140
  124POSM   PO4 1442   5.325   3.264  16.424 -0.0766 -0.2501  0.0717
  124POSM   AM1 1443   5.267   3.415  16.117 -0.2177 -0.0860 -0.4725
  124POSM   AM2 1444   5.063   3.405  15.963 -0.1996  0.1713 -0.1519
  124POSM   T1A 1445   5.403   3.581  15.670  0.1490 -0.1693  0.1114
  124POSM   C2A 1446   5.453   3.875  15.325  0.2588 -0.0506  0.1121
  124POSM   C3A 1447   5.413   4.331  15.221 -0.2957 -0.1732  0.0078
  124POSM   C1B 1448   5.060   3.279  15.675  0.4455  0.2943 -0.2574
  124POSM   D2B 1449   5.242   3.342  15.266  0.0364  0.1402 -0.0370
  124POSM   C3B 1450   5.147   3.584  14.820  0.1011 -0.0629  0.0683
  124POSM   C4B 1451   4.900   3.592  14.450  0.0160 -0.0004 -0.1246
  125POSM   NC3 1452   2.217   8.276  16.734  0.0909 -0.2742 -0.3713
  125POSM   PO4 1453   2.586   8.179  16.752 -0.0724  0.2991  0.1742
  125POSM   AM1 1454   2.571   8.167  16.442 -0.0281 -0.0701  0.3186
  125POSM   AM2 1455   2.699   7.992  16.204 -0.1852  0.1897  0.2033
  125POSM   T1A 1456   2.287   8.237  15.992 -0.1820 -0.0730 -0.2157
  125POSM   C2A 1457   2.077   7.949  15.692  0.0857  0.2384  0.0682
  125POSM   C3A 1458   1.728   7.920  15.477  0.2607  0.0661  0.0109
  125POSM   C1B 1459   2.908   8.065  15.941  0.4996 -0.1167 -0.1421
  125POSM   D2B 1460   2.993   8.385  15.646  0.0769  0.1113 -0.0569
  125POSM   C3B 1461   2.791   8.519  15.254  0.2646  0.3230  0.2003
  125POSM   C4B 1462   2.526   8.273  14.905  0.2732  0.0385 -0.0749
  126DOPE   NH3 1463  11.739   8.501  15.712 -0.0262  0.1402 -0.0818
  126DOPE   PO4 1464  11.628   8.465  15.412  0.0785 -0.2739 -0.1323
  126DOPE   GL1 1465  11.482   8.587  15.025 -0.3173  0.1255  0.1238
  126DOPE   GL2 1466  11.452   8.312  14.909 -0.1530  0.0763 -0.0892
  126DOPE   C1A 1467  11.758   8.649  14.640 -0.0224 -0.0538  0.4400
  126DOPE   D2A 1468  11.886   8.888  14.273  0.1157  0.0433 -0.3547
  126DOPE   C3A 1469  11.899   8.758  13.810 -0.1058  0.2096 -0.0588
  126DOPE   C4A 1470  12.257   8.802  13.475 -0.2683  0.3526  0.1903
  126DOPE   C1B 1471  11.267   8.178  14.526  0.2283  0.1107  0.0249
  126DOPE   D2B 1472  11.306   7.809  14.408  0.1376 -0.1844  0.0078
  126DOPE   C3B 1473  11.504   7.979  14.062 -0.0669 -0.2758  0.0822
  126DOPE   C4B 1474  11.951   8.049  13.939 -0.0075 -0.2210 -0.1781
  127DOPE   NH3 1475   1.207   8.214  16.192 -0.0443  0.3631 -0.0258
  127DOPE   PO4 1476   1.184   7.878  16.083  0.2334 -0.0780  0.1629
  127DOPE   GL1 1477   1.417   7.683  15.727  0.0028  0.5339 -0.4229
  127DOPE   GL2 1478   1.263   7.400  15.754  0.1628  0.0087  0.0107
  127DOPE   C1A 1479   1.320   7.639  15.271 -0.4144 -0.0596 -0.1676
  127DOPE   D2A 1480   1.293   7.613  14.821 -0.1477  0.2074  0.4202
  127DOPE   C3A 1481   1.622   7.637  14.488  0.0521  0.0093  0.1638
  127DOPE   C4A 1482   1.998   7.721  14.260  0.3408  0.2759  0.2250
  127DOPE   C1B 1483   1.015   7.022  15.520 -0.0980 -0.3378 -0.0574
  127DOPE   D2B 1484   1.090   6.566  15.391  0.0882  0.0528  0.3667
  127DOPE   C3B 1485   1.243   6.528  14.953  0.0639 -0.0076 -0.2371
  127DOPE   C4B 1486   1.270   6.169  14.682  0.1216 -0.0726 -0.2751
  128DOPS   CNO 1487  10.658   1.172  15.790  0.0426  0.0903  0.2469
  128DOPS   PO4 1488  10.798   0.829  15.752  0.0059  0.0086  0.0730
  128DOPS   GL1 1489  10.833   1.057  15.415  0.4433  0.2329 -0.1082
  128DOPS   GL2 1490  10.751   1.276  15.248 -0.2964 -0.0954 -0.0110
  128DOPS   C1A 1491  10.838   0.865  14.984 -0.0331 -0.1569 -0.3077
  128DOPS   D2A 1492  11.078   0.523  14.815  0.0322 -0.1228 -0.1020
  128DOPS   C3A 1493  10.870   0.096  14.759 -0.0760  0.3410 -0.0517
  128DOPS   C4A 1494  10.749  -0.373  14.846 -0.0488  0.1047  0.2015
  128DOPS   C1B 1495  10.735   1.273  14.785  0.4279  0.0055 -0.2691
  128DOPS   D2B 1496  11.080   1.049  14.471  0.0359 -0.1083 -0.2599
  128DOPS   C3B 1497  11.106   1.169  13.994  0.1813  0.1761  0.1986
  128DOPS   C4B 1498  10.748   1.232  13.713 -0.2666 -0.0690  0.0910
  129DOPS   CNO 1499   0.398   3.595  15.800 -0.1239  0.1485  0.0975
  129DOPS   PO4 1500   0.445   3.946  15.716  0.4011 -0.0226  0.1667
  129DOPS   GL1 1501   0.544   4.377  15.489 -0.1976 -0.2171  0.0984
  129DOPS   GL2 1502   0.363   4.550  15.568 -0.1436  0.0710  0.1788
  129DOPS   C1A 1503   0.395   4.539  15.091 -0.0016  0.3160 -0.2676
  129DOPS   D2A 1504   0.532   4.486  14.645  0.1094 -0.1157 -0.1114
  129DOPS   C3A 1505   0.184   4.690  14.477 -0.1674  0.1059 -0.1949
  129DOPS   C4A 1506   0.039   4.791  14.129 -0.1859 -0.0566 -0.1676
  129DOPS   C1B 1507   0.270   4.974  15.374 -0.0613  0.0864  0.1844
  129DOPS   D2B 1508   0.060   5.199  15.067 -0.0732  0.4016 -0.0926
  129DOPS   C3B 1509   0.052   5.144  14.585  0.1170 -0.1079  0.0073
  129DOPS   C4B 1510  -0.218   5.195  14.197 -0.1774 -0.0055 -0.0372
  130DOPE   NH3 1511   3.797   9.672  16.276  0.0379 -0.2139 -0.0799
  130DOPE   PO4 1512   4.147   9.644  16.288 -0.0665 -0.1143 -0.2304
  130DOPE   GL1 1513   4.254   9.502  15.893 -0.2248  0.1491 -0.1714
  130DOPE   GL2 1514   4.019   9.359  15.865 -0.0100  0.0027  0.1549
  130DOPE   C1A 1515   4.293   9.708  15.449  0.0128 -0.0033 -0.1087
  130DOPE   D2A 1516   4.016   9.783  15.066 -0.1758 -0.1308  0.0004
  130DOPE   C3A 1517   3.721   9.535  14.854 -0.0028 -0.0151  0.4040
  130DOPE   C4A 1518   3.328   9.614  15.009  0.0580  0.4294 -0.0301
  130DOPE   C1B 1519   4.160   9.223  15.459  0.0026 -0.1071  0.1769
  130DOPE   D2B 1520   4.033   9.191  15.037 -0.1504  0.1744 -0.0956
  130DOPE   C3B 1521   3.593   9.108  15.009  0.2000  0.2959 -0.1889
  130DOPE   C4B 1522   3.366   9.006  14.655 -0.2254 -0.1321  0.0892
  131DOPC   NC3 1523   4.989  10.939  15.986  0.5106  0.1747 -0.2281
  131DOPC   PO4 1524   4.833  10.600  15.950  0.4637  0.0931  0.1841
  131DOPC   GL1 1525   4.884  10.595  15.567 -0.1854 -0.2932 -0.3616
  131DOPC   GL2 1526   5.098  10.855  15.522  0.0289  0.0326  0.0010
  131DOPC   C1A 1527   4.762  10.519  15.136  0.0532  0.2424  0.4711
  131DOPC   D2A 1528   4.515  10.414  14.741  0.0343  0.3301 -0.4038
  131DOPC   C3A 1529   4.183  10.741  14.568 -0.1280  0.2789  0.1010
  131DOPC   C4A 1530   4.132  11.202  14.488 -0.2978  0.2471  0.0094
  131DOPC   C1B 1531   5.253  10.676  15.051 -0.3202  0.1043  0.4847
  131DOPC   D2B 1532   5.316  10.645  14.551 -0.1006 -0.0376 -0.0174
  131DOPC   C3B 1533   5.377  10.357  14.205 -0.0332 -0.1467  0.1981
  131DOPC   C4B 1534   5.843  10.264  14.004 -0.0639  0.1801 -0.2258
  132DOPE   NH3 1535   6.395   8.744  16.330  0.4011 -0.0793  0.1363
  132DOPE   PO4 1536   6.226   8.968  16.227 -0.1033  0.1559  0.1943
  132DOPE   GL1 1537   6.250   9.080  15.882  0.1124  0.3468  0.0691
  132DOPE   GL2 1538   6.574   9.005  15.798 -0.1614  0.0868 -0.0126
  132DOPE   C1A 1539   6.013   8.949  15.458  0.0945 -0.2633  0.1990
  132DOPE   D2A 1540   6.177   8.673  15.139 -0.2092  0.0957  0.1864
  132DOPE   C3A 1541   6.615   8.638  14.993 -0.2620  0.1781  0.2119
  132DOPE   C4A 1542   7.046   8.645  14.838 -0.0525  0.0970 -0.0074
  132DOPE   C1B 1543   6.465   9.069  15.354  0.0003  0.3911  0.1578
  132DOPE   D2B 1544   6.434   9.081  14.875  0.0828  0.0883 -0.0211
  132DOPE   C3B 1545   6.078   8.815  14.675  0.1035  0.0874  0.1801
  132DOPE   C4B 1546   5.795   8.472  14.443  0.2759 -0.1416  0.0053
  133DOPC   NC3 1547  34.243   3.396  16.136  0.1186 -0.0491  0.0385
  133DOPC   PO4 1548  34.053   3.477  15.779  0.0029  0.0975  0.3376
  133DOPC   GL1 1549  34.307   3.346  15.505 -0.0951  0.1935  0.3540
  133DOPC   GL2 1550  34.442   3.527  15.299  0.0007 -0.2536 -0.3481
  133DOPC   C1A 1551  34.214   3.091  15.086  0.3211 -0.2506  0.1169
  133DOPC   D2A 1552  34.081   2.676  15.040 -0.0285  0.3362 -0.1509
  133DOPC   C3A 1553  33.902   2.284  14.948  0.0028 -0.0626  0.5186
  133DOPC   C4A 1554  34.056   1.944  14.702  0.1056 -0.3125 -0.2507
  133DOPC   C1B 1555  34.906   3.609  15.137 -0.0787  0.1333 -0.3405
  133DOPC   D2B 1556  35.322   3.747  15.283  0.1409  0.3432  0.1669
  133DOPC   C3B 1557  35.737   3.700  15.065  0.0428 -0.2925  0.0458
  133DOPC   C4B 1558  35.994   3.704  14.633 -0.0470  0.3092  0.1302
  134DOPE   NH3 1559  10.177   4.390  15.899  0.0644 -0.0643  0.3378
  134DOPE   PO4 1560  10.132   4.047  15.834  0.1704 -0.0631 -0.1383
  134DOPE   GL1 1561   9.890   3.829  15.615  0.3021 -0.2333 -0.0085
  134DOPE   GL2 1562  10.026   3.786  15.329  0.1800  0.0068  0.0032
  134DOPE   C1A 1563   9.474   3.782  15.386 -0.1551 -0.1083 -0.1251
  134DOPE   D2A 1564   9.229   3.928  14.971 -0.1638 -0.2775  0.0342
  134DOPE   C3A 1565   9.410   3.721  14.601 -0.1465 -0.0227 -0.3573
  134DOPE   C4A 1566   9.613   3.627  14.205 -0.0005  0.1088  0.0452
  134DOPE   C1B 1567   9.846   3.838  14.923  0.0734  0.0971 -0.0308
  134DOPE   D2B 1568   9.834   4.016  14.442  0.1699 -0.2569 -0.0734
  134DOPE   C3B 1569   9.669   4.299  14.102 -0.2303  0.2139  0.0746
  134DOPE   C4B 1570   9.245   4.465  14.018 -0.0710 -0.0610 -0.1222
  135DOPE   NH3 1571   9.467   7.499  15.991  0.0679 -0.1263 -0.1065
  135DOPE   PO4 1572   9.448   7.785  15.973  0.1078 -0.1095  0.2281
  135DOPE   GL1 1573   9.612   7.813  15.621 -0.3400  0.0691  0.1560
  135DOPE   GL2 1574   9.610   7.509  15.507  0.0540  0.1045 -0.0043
  135DOPE   C1A 1575   9.747   8.064  15.229 -0.1331 -0.2381  0.0422
  135DOPE   D2A 1576   9.621   7.974  14.738  0.0793 -0.0184 -0.1713
  135DOPE   C3A 1577   9.841   8.123  14.354 -0.0711  0.1399  0.3192
  135DOPE   C4A 1578   9.833   8.129  13.872  0.0503  0.3143  0.4028
  135DOPE   C1B 1579   9.360   7.715  15.188 -0.4574 -0.4228  0.5617
  135DOPE   D2B 1580   9.122   7.870  14.863 -0.1542 -0.0267  0.2327
  135DOPE   C3B 1581   9.036   7.816  14.389 -0.1091  0.1099  0.1894
  135DOPE   C4B 1582   8.860   7.741  13.955  0.5723 -0.1967  0.2190
  136DOPC   NC3 1583   2.466  34.513  15.867  0.0729 -0.2474 -0.2710
  136DOPC   PO4 1584   2.084  34.541  15.847 -0.4447  0.1122  0.0492
  136DOPC   GL1 1585   1.989  34.688  15.542  0.0625  0.1624 -0.0120
  136DOPC   GL2 1586   1.746  34.838  15.564 -0.0270 -0.0866 -0.1309
  136DOPC   C1A 1587   2.261  34.970  15.258  0.1545  0.0246 -0.3342
  136DOPC   D2A 1588   2.613  35.208  15.079  0.1178  0.1786  0.0646
  136DOPC   C3A 1589   2.831  35.617  14.935  0.4047 -0.2463 -0.2057
  136DOPC   C4A 1590   3.049  35.676  14.548  0.3661  0.1081 -0.1067
  136DOPC   C1B 1591   1.482  34.648  15.193 -0.4852  0.1670 -0.0465
  136DOPC   D2B 1592   1.631  34.422  14.785 -0.0218  0.1921 -0.1739
  136DOPC   C3B 1593   1.988  34.228  14.584 -0.1202  0.3723 -0.1021
  136DOPC   C4B 1594   2.328  34.180  14.259 -0.0313 -0.3969  0.0869
  137DOPC   NC3 1595  10.378   3.672  15.668  0.1480  0.1395 -0.0775
  137DOPC   PO4 1596  10.709   3.516  15.544 -0.0559 -0.1636 -0.0278
  137DOPC   GL1 1597  10.793   3.709  15.188 -0.0036 -0.3209 -0.0639
  137DOPC   GL2 1598  11.040   3.762  15.142  0.2777  0.1830  0.0096
  137DOPC   C1A 1599  10.766   3.852  14.750 -0.1236 -0.0011 -0.2871
  137DOPC   D2A 1600  10.692   3.551  14.404  0.1761  0.0337 -0.1310
  137DOPC   C3A 1601  10.626   3.153  14.154 -0.1716 -0.0837 -0.1022
  137DOPC   C4A 1602  10.602   2.955  13.660 -0.1122 -0.1220  0.1813
  137DOPC   C1B 1603  10.927   3.356  14.925 -0.1311 -0.1941 -0.3943
  137DOPC   D2B 1604  10.654   3.006  14.731 -0.1041  0.4170  0.0840
  137DOPC   C3B 1605  10.258   3.153  14.527 -0.0845  0.0183 -0.1897
  137DOPC   C4B 1606   9.850   3.438  14.613 -0.0727 -0.1390  0.2442
  138DOPE   NH3 1607   7.585   2.362  16.140 -0.0020  0.2629  0.4370
  138DOPE   PO4 1608   7.561   2.606  15.928 -0.0697 -0.0094  0.2739
  138DOPE   GL1 1609   7.318   2.319  15.686  0.0141 -0.2170 -0.6387
  138DOPE   GL2 1610   7.496   2.412  15.441  0.0941 -0.5183  0.1509
  138DOPE   C1A 1611   7.017   2.322  15.351  0.2127  0.1599  0.0069
  138DOPE   D2A 1612   6.896   2.378  14.937 -0.0183  0.1752  0.1335
  138DOPE   C3A 1613   6.946   2.290  14.481  0.1709  0.0667 -0.2883
  138DOPE   C4A 1614   7.264   2.087  14.199 -0.0927 -0.2484 -0.0115
  138DOPE   C1B 1615   7.367   2.466  14.986 -0.0819 -0.2081  0.0560
  138DOPE   D2B 1616   7.419   2.647  14.547 -0.0446  0.0820  0.3113
  138DOPE   C3B 1617   7.512   2.572  14.104  0.3478  0.0917  0.1320
  138DOPE   C4B 1618   7.792   2.326  13.788  0.0120  0.0259 -0.3234
  139DOPE   NH3 1619  11.309   5.396  15.818  0.0230  0.0466  0.0965
  139DOPE   PO4 1620  11.322   5.677  15.666 -0.1281 -0.1504  0.2164
  139DOPE   GL1 1621  11.341   6.011  15.372  0.1453  0.2444  0.0817
  139DOPE   GL2 1622  11.495   6.300  15.341 -0.1205 -0.1281 -0.3315
  139DOPE   C1A 1623  11.476   5.883  14.935  0.0676  0.0946  0.1699
  139DOPE   D2A 1624  11.268   5.899  14.529 -0.1433  0.1659  0.2167
  139DOPE   C3A 1625  11.167   5.821  14.095 -0.2227  0.1216  0.3307
  139DOPE   C4A 1626  11.066   6.015  13.663  0.0349  0.1498 -0.0255
  139DOPE   C1B 1627  11.233   6.328  14.973 -0.0246  0.0918  0.0886
  139DOPE   D2B 1628  11.249   6.510  14.554  0.1577  0.0362 -0.2759
  139DOPE   C3B 1629  11.283   6.385  14.142  0.2641 -0.3769 -0.0152
  139DOPE   C4B 1630  11.388   6.351  13.672 -0.3609  0.1137 -0.1928
  140DOPS   CNO 1631   1.752   5.611  16.628  0.2322 -0.0590 -0.0851
  140DOPS   PO4 1632   2.111   5.535  16.577  0.0852  0.0671 -0.3020
  140DOPS   GL1 1633   2.065   5.309  16.245  0.0469 -0.3991  0.0114
  140DOPS   GL2 1634   2.053   5.006  16.341  0.0164  0.0876 -0.0168
  140DOPS   C1A 1635   2.063   5.366  15.780  0.2105 -0.2745  0.0116
  140DOPS   D2A 1636   2.002   5.518  15.388 -0.1517 -0.1847 -0.1621
  140DOPS   C3A 1637   2.347   5.510  15.083  0.1951 -0.2488 -0.1976
  140DOPS   C4A 1638   2.649   5.338  14.787 -0.0122  0.3584  0.1631
  140DOPS   C1B 1639   1.892   4.839  15.913  0.1310 -0.1646  0.2452
  140DOPS   D2B 1640   1.682   4.587  15.555 -0.0943 -0.0064  0.0252
  140DOPS   C3B 1641   1.770   4.719  15.109  0.0961 -0.2455  0.1974
  140DOPS   C4B 1642   1.691   4.937  14.680  0.0090 -0.1766  0.0101
  141POSM   NC3 1643   4.932  11.370  16.364  0.0150  0.1079  0.1714
  141POSM   PO4 1644   4.711  11.368  16.022 -0.1685  0.1539  0.2584
  141POSM   AM1 1645   4.788  11.313  15.702 -0.3290  0.0441  0.0982
  141POSM   AM2 1646   5.005  11.350  15.537  0.0215 -0.1936 -0.2585
  141POSM   T1A 1647   4.773  11.507  15.209  0.2169  0.0306  0.2950
  141POSM   C2A 1648   4.757  11.596  14.743 -0.4678 -0.0454 -0.0696
  141POSM   C3A 1649   4.798  11.945  14.430  0.0482 -0.0989  0.0811
  141POSM   C1B 1650   5.264  11.422  15.326 -0.2353  0.2138  0.3111
  141POSM   D2B 1651   5.255  11.337  14.827 -0.1099  0.0942  0.1149
  141POSM   C3B 1652   5.201  11.081  14.391  0.3023 -0.1515 -0.2536
  141POSM   C4B 1653   5.073  10.773  14.143 -0.1791 -0.0731  0.1014
  142DOPC   NC3 1654  34.366   6.085  15.542  0.1838  0.0721  0.0687
  142DOPC   PO4 1655  34.604   6.170  15.770 -0.0346  0.2274  0.1300
  142DOPC   GL1 1656  34.770   6.387  15.595 -0.4533 -0.2411 -0.1911
  142DOPC   GL2 1657  35.050   6.447  15.660 -0.1151 -0.4713 -0.2550
  142DOPC   C1A 1658  34.938   6.301  15.152 -0.1279  0.1476  0.3311
  142DOPC   D2A 1659  35.392   6.328  14.987 -0.2166 -0.4039  0.2715
  142DOPC   C3A 1660  35.551   6.444  14.537  0.6041 -0.0761  0.1703
  142DOPC   C4A 1661  35.783   6.265  14.212 -0.1856  0.0805 -0.0419
  142DOPC   C1B 1662  35.339   6.702  15.331  0.1590  0.4026  0.2721
  142DOPC   D2B 1663  35.482   6.861  14.900 -0.2280  0.2237  0.3868
  142DOPC   C3B 1664  35.731   6.906  14.535  0.0515 -0.0404  0.2472
  142DOPC   C4B 1665  35.826   6.811  14.055  0.0027 -0.2239  0.0386
  143DOPC   NC3 1666   3.680   3.886  16.045  0.1370 -0.2175 -0.1461
  143DOPC   PO4 1667   3.929   3.617  15.904 -0.1627  0.0417  0.1341
  143DOPC   GL1 1668   4.020   3.675  15.528  0.4092  0.0479 -0.0398
  143DOPC   GL2 1669   3.754   3.811  15.477  0.1212 -0.1698 -0.0501
  143DOPC   C1A 1670   4.117   3.545  15.113  0.0876  0.0321  0.1985
  143DOPC   D2A 1671   4.374   3.346  14.745  0.0439 -0.0256  0.4631
  143DOPC   C3A 1672   4.436   3.609  14.351  0.2868  0.1319  0.1131
  143DOPC   C4A 1673   4.696   3.496  14.038 -0.0440 -0.0124 -0.1070
  143DOPC   C1B 1674   3.857   3.990  15.053  0.1073 -0.2055  0.0453
  143DOPC   D2B 1675   3.907   4.025  14.627 -0.1235 -0.2030 -0.0996
  143DOPC   C3B 1676   3.684   3.822  14.271 -0.3013  0.0061 -0.0229
  143DOPC   C4B 1677   3.437   3.748  13.870 -0.3414  0.1771 -0.0354
  144DOPS   CNO 1678   2.571   1.325  16.501  0.0629 -0.1267  0.0310
  144DOPS   PO4 1679   2.671   1.105  16.229 -0.0600 -0.2191  0.0618
  144DOPS   GL1 1680   2.870   1.241  15.842 -0.0327 -0.2245  0.2053
  144DOPS   GL2 1681   2.627   1.201  15.741  0.1593 -0.0856 -0.1768
  144DOPS   C1A 1682   3.174   1.402  15.504 -0.5178 -0.2607  0.0633
  144DOPS   D2A 1683   3.448   1.108  15.259  0.0487 -0.0004  0.0732
  144DOPS   C3A 1684   3.462   0.943  14.824  0.0904 -0.4165  0.2896
  144DOPS   C4A 1685   3.356   0.678  14.436 -0.0096 -0.2495  0.1433
  144DOPS   C1B 1686   2.732   1.277  15.281  0.0361 -0.0101 -0.1271
  144DOPS   D2B 1687   2.709   1.723  15.070  0.0957 -0.0867 -0.1014
  144DOPS   C3B 1688   2.873   1.922  14.662 -0.1292  0.0835  0.0651
  144DOPS   C4B 1689   2.895   2.004  14.241  0.0251  0.3196 -0.0375
  145DOPC   NC3 1690  10.074  11.517  16.379 -0.2029  0.3276  0.1348
  145DOPC   PO4 1691   9.872  11.645  16.084  0.0454 -0.0526  0.1055
  145DOPC   GL1 1692   9.832  11.655  15.632 -0.2273 -0.1699  0.1651
  145DOPC   GL2 1693   9.754  11.988  15.688  0.0049 -0.1426 -0.5834
  145DOPC   C1A 1694   9.521  11.685  15.334  0.1538  0.2495 -0.0168
  145DOPC   D2A 1695   9.545  11.852  14.931  0.2599  0.0707  0.3031
  145DOPC   C3A 1696   9.849  11.805  14.601  0.1534 -0.2327  0.0311
  145DOPC   C4A 1697  10.173  11.657  14.280  0.0596  0.0838  0.1424
  145DOPC   C1B 1698   9.902  12.053  15.233  0.3914  0.1198 -0.1475
  145DOPC   D2B 1699  10.036  12.172  14.826 -0.4364  0.1019  0.1836
  145DOPC   C3B 1700  10.307  12.583  14.653  0.2174 -0.0713  0.1386
  145DOPC   C4B 1701  10.397  12.998  14.389  0.0883  0.1538 -0.2019
  146POSM   NC3 1702   8.999   4.796  16.245  0.0140 -0.0099  0.5187
  146POSM   PO4 1703   9.056   5.188  16.183  0.2263  0.2934  0.1931
  146POSM   AM1 1704   9.062   5.054  15.869 -0.0157 -0.0264  0.0581
  146POSM   AM2 1705   9.024   5.099  15.574 -0.2002 -0.0872  0.1306
  146POSM   T1A 1706   9.210   4.625  15.666 -0.2434 -0.0683  0.1481
  146POSM   C2A 1707   9.104   4.182  15.576 -0.2500 -0.2618 -0.2324
  146POSM   C3A 1708   8.985   3.806  15.824  0.2112 -0.0787  0.1291
  146POSM   C1B 1709   9.147   5.050  15.293  0.0125 -0.0432 -0.1725
  146POSM   D2B 1710   9.215   4.730  14.975  0.2400 -0.2408  0.0097
  146POSM   C3B 1711   9.202   4.845  14.458  0.1714 -0.2340  0.0707
  146POSM   C4B 1712   9.039   5.292  14.300  0.1062  0.2207 -0.4574
  147DOPC   NC3 1713   6.228   2.056  15.912 -0.0776 -0.0721  0.0661
  147DOPC   PO4 1714   6.003   1.735  16.057  0.2314  0.1609 -0.0117
  147DOPC   GL1 1715   5.923   1.582  15.727  0.0747 -0.1574  0.0048
  147DOPC   GL2 1716   5.878   1.835  15.545 -0.1364  0.0263 -0.2200
  147DOPC   C1A 1717   5.748   1.274  15.390 -0.1258 -0.0708  0.1223
  147DOPC   D2A 1718   5.788   1.236  14.985 -0.1190  0.0149  0.2163
  147DOPC   C3A 1719   5.486   1.001  14.680  0.1043  0.3937  0.1720
  147DOPC   C4A 1720   5.230   1.198  14.332  0.0139 -0.4577  0.0240
  147DOPC   C1B 1721   6.140   1.580  15.294 -0.3497  0.4042 -0.1840
  147DOPC   D2B 1722   6.378   1.521  14.922  0.0155  0.0209 -0.2806
  147DOPC   C3B 1723   6.788   1.298  14.925  0.2551 -0.2630  0.2289
  147DOPC   C4B 1724   7.012   0.948  14.791  0.0525 -0.2428 -0.1083
  148DOPC   NC3 1725   9.360  34.352  16.029 -0.0421  0.0707  0.4388
  148DOPC   PO4 1726   9.585  34.520  15.760  0.0907  0.0489  0.1379
  148DOPC   GL1 1727   9.570  34.458  15.366 -0.2177 -0.3424  0.3924
  148DOPC   GL2 1728   9.448  34.761  15.357 -0.1786 -0.0704 -0.3043
  148DOPC   C1A 1729   9.581  34.553  14.910  0.0440 -0.1592  0.0894
  148DOPC   D2A 1730   9.564  34.775  14.518  0.2750  0.4071  0.1458
  148DOPC   C3A 1731   9.194  34.621  14.337 -0.0625 -0.1330  0.2099
  148DOPC   C4A 1732   8.759  34.562  14.240  0.1365  0.0140 -0.1806
  148DOPC   C1B 1733   9.130  35.030  15.291  0.0790  0.1821  0.2255
  148DOPC   D2B 1734   8.670  35.066  15.128  0.0974  0.0722  0.1495
  148DOPC   C3B 1735   8.673  34.862  14.749  0.2883 -0.1532 -0.2862
  148DOPC   C4B 1736   8.389  34.791  14.422  0.1292 -0.0587 -0.2066
  149DOPE   NH3 1737   6.216  34.551  15.629 -0.2610  0.1537 -0.1604
  149DOPE   PO4 1738   6.453  34.515  15.439 -0.0468  0.0697 -0.1448
  149DOPE   GL1 1739   6.261  34.322  15.220 -0.2875 -0.0252  0.3704
  149DOPE   GL2 1740   6.285  34.029  15.093  0.1101  0.1885 -0.4031
  149DOPE   C1A 1741   6.084  34.449  14.835  0.2052 -0.0388  0.3821
  149DOPE   D2A 1742   6.146  34.442  14.321  0.2323 -0.2396  0.0454
  149DOPE   C3A 1743   5.863  34.112  14.241 -0.1452 -0.1515  0.3391
  149DOPE   C4A 1744   5.389  34.145  14.304 -0.1277 -0.2581 -0.3885
  149DOPE   C1B 1745   6.580  34.286  14.825 -0.1450  0.0211 -0.0277
  149DOPE   D2B 1746   6.581  34.687  14.636 -0.1522 -0.2319  0.0094
  149DOPE   C3B 1747   6.761  34.970  14.348 -0.2106  0.0407  0.0344
  149DOPE   C4B 1748   6.770  35.453  14.254 -0.0268  0.1748 -0.1212
  150POSM   NC3 1749  10.129   0.756  15.671  0.1889 -0.2097  0.2670
  150POSM   PO4 1750  10.327   0.416  15.666 -0.2080 -0.1064  0.0184
  150POSM   AM1 1751  10.456   0.562  15.373  0.2517  0.0437 -0.2708
  150POSM   AM2 1752  10.443   0.818  15.301  0.2595 -0.1662  0.3598
  150POSM   T1A 1753  10.462   0.563  14.872  0.0914  0.0541  0.1549
  150POSM   C2A 1754  10.725   0.703  14.485 -0.0607 -0.1137  0.0369
  150POSM   C3A 1755  10.595   1.003  14.161 -0.3209  0.1294  0.1614
  150POSM   C1B 1756  10.152   0.863  15.130 -0.2760 -0.0367 -0.2480
  150POSM   D2B 1757   9.842   0.811  14.831  0.1059  0.1557  0.2523
  150POSM   C3B 1758   9.824   0.991  14.376  0.0349  0.1004 -0.2084
  150POSM   C4B 1759   9.794   1.395  14.072 -0.1970  0.2766  0.5332
  151POSM   NC3 1760   1.099   7.373  16.297 -0.0775  0.1551  0.3381
  151POSM   PO4 1761   1.495   7.397  16.205 -0.0892 -0.2507  0.0125
  151POSM   AM1 1762   1.622   7.216  15.968 -0.2385 -0.0664  0.3463
  151POSM   AM2 1763   1.666   6.964  15.942  0.2271  0.0190  0.0451
  151POSM   T1A 1764   1.761   7.339  15.463  0.1852 -0.1485 -0.0414
  151POSM   C2A 1765   1.764   7.631  15.090 -0.0251 -0.1296  0.0795
  151POSM   C3A 1766   1.625   8.086  14.943  0.1483 -0.2007 -0.1278
  151POSM   C1B 1767   1.962   6.878  15.960  0.1514 -0.0244  0.2333
  151POSM   D2B 1768   2.376   7.001  15.863 -0.0045 -0.0179  0.1123
  151POSM   C3B 1769   2.550   7.028  15.446  0.3998 -0.0398 -0.0275
  151POSM   C4B 1770   2.748   6.686  15.176 -0.1623 -0.0928 -0.0271
  152DOPE   NH3 1771   1.557   1.790  16.179  0.2183  0.0138  0.2536
  152DOPE   PO4 1772   1.480   2.120  16.111 -0.0437 -0.1485 -0.0224
  152DOPE   GL1 1773   1.499   2.233  15.760 -0.4323  0.0650 -0.3141
  152DOPE   GL2 1774   1.727   2.034  15.600  0.0752  0.0372 -0.0075
  152DOPE   C1A 1775   1.316   2.064  15.365 -0.0844  0.0357 -0.1835
  152DOPE   D2A 1776   1.317   1.737  15.076 -0.1810 -0.4618  0.1703
  152DOPE   C3A 1777   1.504   1.879  14.684 -0.3151  0.1429 -0.1861
  152DOPE   C4A 1778   1.945   1.772  14.562  0.1244  0.1313 -0.2298
  152DOPE   C1B 1779   1.775   1.632  15.366 -0.0443  0.2089  0.1489
  152DOPE   D2B 1780   1.794   1.316  15.052  0.2795  0.0237  0.0913
  152DOPE   C3B 1781   1.456   1.382  14.769 -0.2979  0.0180  0.0404
  152DOPE   C4B 1782   1.056   1.084  14.593  0.2865  0.2237  0.1624
  153POSM   NC3 1783   0.186   2.713  15.814  0.3531 -0.0088 -0.2308
  153POSM   PO4 1784   0.507   2.610  16.016  0.1052  0.0680 -0.1856
  153POSM   AM1 1785   0.424   2.283  15.933  0.1475  0.0243  0.1430
  153POSM   AM2 1786   0.279   2.194  15.677  0.0202 -0.1848 -0.0319
  153POSM   T1A 1787   0.653   1.846  15.836  0.3472  0.0548  0.3893
  153POSM   C2A 1788   0.837   1.457  15.621 -0.0130  0.0328  0.1199
  153POSM   C3A 1789   1.044   1.241  15.215  0.3920  0.0264 -0.0819
  153POSM   C1B 1790   0.428   2.368  15.414  0.1357  0.1362  0.0508
  153POSM   D2B 1791   0.784   2.472  15.111 -0.0308 -0.1680  0.0586
  153POSM   C3B 1792   0.753   2.627  14.688  0.2721 -0.2109  0.1651
  153POSM   C4B 1793   0.745   2.728  14.216 -0.0497  0.1721  0.1212
  154DOPE   NH3 1794   4.027  10.523  16.101 -0.0685 -0.3036  0.0780
  154DOPE   PO4 1795   4.339  10.425  16.027  0.1077  0.1110 -0.1965
  154DOPE   GL1 1796   4.401  10.668  15.712 -0.3604 -0.1518 -0.0966
  154DOPE   GL2 1797   4.237  10.733  15.413 -0.0737  0.1835  0.1109
  154DOPE   C1A 1798   4.592  11.041  15.417  0.1050  0.2515  0.2263
  154DOPE   D2A 1799   4.919  11.062  15.043  0.2206  0.2444  0.2552
  154DOPE   C3A 1800   4.866  10.750  14.715  0.3544  0.1306 -0.3091
  154DOPE   C4A 1801   4.615  10.700  14.338  0.1834 -0.0542  0.1935
  154DOPE   C1B 1802   4.443  10.848  15.003 -0.0786  0.2067  0.0600
  154DOPE   D2B 1803   4.558  11.147  14.732  0.0737  0.1655 -0.0139
  154DOPE   C3B 1804   4.736  11.277  14.322  0.0029 -0.1926 -0.1447
  154DOPE   C4B 1805   5.152  11.568  14.323 -0.2113 -0.3532  0.2094
  155POSM   NC3 1806  34.632   5.371  16.149  0.0158  0.1241 -0.1845
  155POSM   PO4 1807  34.706   5.767  16.168 -0.3894 -0.1340 -0.0110
  155POSM   AM1 1808  34.857   5.776  15.919 -0.0357  0.2261 -0.0103
  155POSM   AM2 1809  34.876   5.627  15.696 -0.0331 -0.2518 -0.1525
  155POSM   T1A 1810  35.162   5.942  15.494  0.0117 -0.0339  0.0406
  155POSM   C2A 1811  35.183   5.884  15.075  0.2830  0.1695  0.1222
  155POSM   C3A 1812  35.112   5.986  14.594  0.0517  0.2363  0.3044
  155POSM   C1B 1813  35.053   5.456  15.499  0.1787 -0.0310 -0.0622
  155POSM   D2B 1814  35.234   5.292  15.107 -0.1524  0.0083  0.0058
  155POSM   C3B 1815  34.987   5.522  14.795  0.1414  0.2091  0.4372
  155POSM   C4B 1816  34.817   5.591  14.352  0.3738 -0.1704 -0.2336
  156DOPS   CNO 1817  11.738   2.199  15.745 -0.0596 -0.0309 -0.3163
  156DOPS   PO4 1818  11.511   2.386  15.499 -0.0562 -0.3406  0.0130
  156DOPS   GL1 1819  11.737   2.244  15.122  0.0714  0.1348  0.2225
  156DOPS   GL2 1820  11.954   2.052  15.184 -0.0353  0.1310  0.2091
  156DOPS   C1A 1821  12.061   2.384  14.831 -0.0178  0.1061 -0.3063
  156DOPS   D2A 1822  12.175   2.324  14.395  0.1529  0.3160 -0.0221
  156DOPS   C3A 1823  12.111   1.935  14.252 -0.0818  0.1875 -0.1339
  156DOPS   C4A 1824  12.072   1.722  13.863  0.0608  0.0065  0.1699
  156DOPS   C1B 1825  12.208   1.965  14.790 -0.0478 -0.0298 -0.2591
  156DOPS   D2B 1826  12.532   1.852  14.540 -0.0940  0.0490  0.0647
  156DOPS   C3B 1827  12.540   1.459  14.282  0.0527  0.2057  0.0517
  156DOPS   C4B 1828  12.676   1.088  14.090  0.0412 -0.1953 -0.1221
  157DOPC   NC3 1829   5.162  10.285  16.244  0.0072  0.0063  0.3137
  157DOPC   PO4 1830   5.302  10.631  16.162 -0.0162 -0.3504  0.0969
  157DOPC   GL1 1831   5.229  10.463  15.775  0.1692 -0.3978  0.2174
  157DOPC   GL2 1832   5.264  10.133  15.638  0.1448 -0.2939  0.2395
  157DOPC   C1A 1833   5.544  10.550  15.481 -0.0378 -0.0132 -0.2967
  157DOPC   D2A 1834   5.867  10.598  15.171  0.0852 -0.2716  0.2012
  157DOPC   C3A 1835   5.740  10.469  14.779 -0.4247 -0.1517  0.2307
  157DOPC   C4A 1836   5.602  10.093  14.559  0.1177  0.0034 -0.2647
  157DOPC   C1B 1837   5.196  10.097  15.201 -0.3304  0.4437  0.0662
  157DOPC   D2B 1838   5.174  10.251  14.770  0.0548 -0.1610 -0.1196
  157DOPC   C3B 1839   4.900  10.194  14.426 -0.1472  0.0407  0.0297
  157DOPC   C4B 1840   4.917  10.293  14.003 -0.1410  0.0426 -0.2138
  158DOPS   CNO 1841   0.022  10.327  16.558  0.1621 -0.2268 -0.0692
  158DOPS   PO4 1842   0.218  10.466  16.275 -0.1243  0.2234  0.1141
  158DOPS   GL1 1843   0.399  10.451  15.863 -0.1129  0.0994 -0.2124
  158DOPS   GL2 1844   0.204  10.648  15.775 -0.1197 -0.3093  0.1266
  158DOPS   C1A 1845   0.458  10.340  15.423  0.0977 -0.2224 -0.0700
  158DOPS   D2A 1846   0.719  10.334  15.041  0.0551 -0.1085 -0.0861
  158DOPS   C3A 1847   0.539  10.219  14.608 -0.3901 -0.1401 -0.1693
  158DOPS   C4A 1848   0.569  10.301  14.105  0.0700  0.0653 -0.0955
  158DOPS   C1B 1849   0.021  10.903  15.452  0.3593 -0.0852 -0.0976
  158DOPS   D2B 1850  -0.023  10.963  15.009  0.2948 -0.0167 -0.0734
  158DOPS   C3B 1851   0.104  11.127  14.634 -0.0253 -0.3003 -0.1123
  158DOPS   C4B 1852  -0.034  11.214  14.215  0.1226 -0.2536 -0.2676
  159DOPE   NH3 1853   9.734   8.728  15.795  0.1029 -0.0259  0.0380
  159DOPE   PO4 1854   9.659   9.051  15.746 -0.1222  0.2647 -0.1309
  159DOPE   GL1 1855   9.899   9.209  15.394  0.1296 -0.0236 -0.1946
  159DOPE   GL2 1856   9.760   9.054  15.242 -0.2099 -0.3003 -0.0592
  159DOPE   C1A 1857  10.328   9.105  15.260 -0.3403 -0.2050  0.1926
  159DOPE   D2A 1858  10.787   9.229  15.133  0.0678  0.1034 -0.2259
  159DOPE   C3A 1859  10.960   9.625  14.954  0.2546 -0.0291 -0.1488
  159DOPE   C4A 1860  11.354   9.852  14.805 -0.5582 -0.2898  0.0546
  159DOPE   C1B 1861   9.371   8.944  14.891 -0.0658  0.3305  0.1347
  159DOPE   D2B 1862   9.156   8.967  14.514 -0.0697 -0.3660  0.2371
  159DOPE   C3B 1863   9.117   8.616  14.233  0.0107 -0.0133 -0.0888
  159DOPE   C4B 1864   8.890   8.445  13.892 -0.3525  0.0131  0.0399
  160DOPC   NC3 1865   1.738   7.026  16.466  0.3606 -0.0047 -0.1542
  160DOPC   PO4 1866   1.454   6.785  16.525  0.1636 -0.1281  0.1082
  160DOPC   GL1 1867   1.502   6.548  16.224 -0.3559  0.0010  0.1763
  160DOPC   GL2 1868   1.759   6.509  16.163 -0.0163  0.4776  0.2392
  160DOPC   C1A 1869   1.465   6.131  16.012 -0.1886 -0.2003  0.1234
  160DOPC   D2A 1870   1.603   5.995  15.586  0.0935 -0.0955  0.2856
  160DOPC   C3A 1871   1.369   5.988  15.132 -0.1296  0.1515  0.3337
  160DOPC   C4A 1872   1.420   5.723  14.780  0.1241  0.0924 -0.1138
  160DOPC   C1B 1873   1.838   6.434  15.669 -0.0881 -0.2371  0.3266
  160DOPC   D2B 1874   1.559   6.430  15.310 -0.1509  0.3435 -0.2858
  160DOPC   C3B 1875   1.812   6.256  14.962  0.0936 -0.0782 -0.0564
  160DOPC   C4B 1876   2.062   6.036  14.673  0.1081  0.0627  0.0778
  161DOPS   CNO 1877   0.347   3.133  15.988  0.1896 -0.1749  0.2521
  161DOPS   PO4 1878   0.017   3.217  15.870 -0.1021 -0.0328  0.0693
  161DOPS   GL1 1879  -0.097   3.039  15.470 -0.1105 -0.1234 -0.2294
  161DOPS   GL2 1880  -0.172   2.770  15.347  0.2131  0.0798 -0.1733
  161DOPS   C1A 1881  -0.025   3.153  14.992  0.0401 -0.0242 -0.0153
  161DOPS   D2A 1882   0.218   3.386  14.674 -0.2731  0.3614 -0.0720
  161DOPS   C3A 1883   0.000   3.793  14.748  0.2768  0.2089  0.1162
  161DOPS   C4A 1884  -0.364   4.003  14.945  0.0332  0.1035  0.0805
  161DOPS   C1B 1885  -0.292   2.382  15.252  0.6014  0.1107  0.1367
  161DOPS   D2B 1886   0.005   2.001  15.306 -0.3781 -0.0644 -0.0558
  161DOPS   C3B 1887   0.206   1.837  14.901  0.0088  0.1302 -0.3896
  161DOPS   C4B 1888   0.433   1.640  14.511  0.0255  0.2708 -0.1615
  162DOPC   NC3 1889   3.735   2.094  15.877  0.5386 -0.2604 -0.2951
  162DOPC   PO4 1890   3.886   2.205  16.220 -0.1163  0.1384 -0.2614
  162DOPC   GL1 1891   3.676   2.511  16.016 -0.4393  0.0291  0.2742
  162DOPC   GL2 1892   3.891   2.624  15.857  0.0464 -0.0389 -0.1597
  162DOPC   C1A 1893   3.508   2.376  15.603 -0.5522 -0.2211 -0.3739
  162DOPC   D2A 1894   3.340   2.379  15.185  0.1159  0.2012 -0.2734
  162DOPC   C3A 1895   3.373   2.132  14.815  0.2081 -0.2564 -0.0630
  162DOPC   C4A 1896   3.539   1.940  14.436  0.0230  0.0418 -0.1551
  162DOPC   C1B 1897   3.892   2.522  15.355 -0.1130 -0.0916  0.0081
  162DOPC   D2B 1898   3.740   2.612  14.961  0.3020  0.1398 -0.0291
  162DOPC   C3B 1899   3.916   3.079  14.926 -0.1316  0.1364 -0.0715
  162DOPC   C4B 1900   3.802   3.508  14.718 -0.0314  0.1982  0.1249
  163DOPE   NH3 1901  10.873   8.414  16.017  0.2517  0.3025  0.0940
  163DOPE   PO4 1902  10.891   8.387  15.716  0.1695  0.1170  0.0554
  163DOPE   GL1 1903  10.680   8.491  15.507 -0.0140  0.0180  0.0629
  163DOPE   GL2 1904  10.688   8.742  15.344 -0.1726  0.1805 -0.2411
  163DOPE   C1A 1905  10.494   8.329  15.107  0.1933  0.1287  0.2180
  163DOPE   D2A 1906  10.032   8.308  14.898 -0.2968 -0.1469 -0.1414
  163DOPE   C3A 1907  10.031   8.572  14.508 -0.1790  0.3458 -0.2712
  163DOPE   C4A 1908  10.046   8.879  14.223 -0.1069 -0.1221  0.1501
  163DOPE   C1B 1909  10.568   8.801  14.885  0.0785 -0.2413 -0.1265
  163DOPE   D2B 1910  10.475   8.784  14.431  0.1152 -0.0151 -0.2582
  163DOPE   C3B 1911  10.649   8.485  14.139  0.0162  0.1702 -0.0916
  163DOPE   C4B 1912  11.071   8.273  13.977  0.3015  0.0367  0.1788
  164POSM   NC3 1913   7.050   9.067  15.904  0.2720  0.2067 -0.1705
  164POSM   PO4 1914   6.912   8.739  16.143  0.2298  0.0294 -0.2778
  164POSM   AM1 1915   6.863   8.615  15.811  0.2581  0.2082 -0.0390
  164POSM   AM2 1916   6.948   8.719  15.585  0.0573 -0.1556  0.4561
  164POSM   T1A 1917   6.623   8.447  15.413 -0.0389  0.0537 -0.4013
  164POSM   C2A 1918   6.671   8.142  15.132  0.2476  0.0903 -0.0818
  164POSM   C3A 1919   6.422   7.831  14.977  0.4577  0.0682 -0.2039
  164POSM   C1B 1920   7.025   8.862  15.299 -0.0947 -0.0086  0.3401
  164POSM   D2B 1921   6.923   9.111  14.952 -0.0610  0.2183  0.0113
  164POSM   C3B 1922   6.979   9.587  15.055  0.1990 -0.0955  0.0620
  164POSM   C4B 1923   7.251   9.890  15.273 -0.1351  0.0367 -0.0749
  165DOPE   NH3 1924   4.579   9.894  16.114  0.0748  0.0589  0.1269
  165DOPE   PO4 1925   4.896   9.916  16.031  0.1175  0.2854  0.0530
  165DOPE   GL1 1926   4.729   9.701  15.698 -0.3296  0.2395 -0.0059
  165DOPE   GL2 1927   4.710   9.471  15.901  0.0602  0.3157  0.1563
  165DOPE   C1A 1928   4.914   9.613  15.297 -0.0056 -0.1617  0.2326
  165DOPE   D2A 1929   5.146   9.260  15.093 -0.1120 -0.1678  0.2153
  165DOPE   C3A 1930   5.043   8.813  14.922  0.0381  0.0286  0.0153
  165DOPE   C4A 1931   4.970   8.738  14.485  0.0256 -0.2694  0.1015
  165DOPE   C1B 1932   4.668   9.236  15.507  0.2455  0.0848  0.0425
  165DOPE   D2B 1933   4.517   9.166  15.099 -0.0859 -0.0218  0.3707
  165DOPE   C3B 1934   4.550   8.757  14.786  0.2935  0.0570  0.1892
  165DOPE   C4B 1935   4.782   8.310  14.675  0.0870  0.0136  0.1605
  166POSM   NC3 1936   7.378   8.735  15.915 -0.0649  0.1989 -0.2305
  166POSM   PO4 1937   7.778   8.689  15.778 -0.0108 -0.1315 -0.2495
  166POSM   AM1 1938   7.813   8.637  15.458 -0.1969 -0.0880  0.1602
  166POSM   AM2 1939   7.919   8.831  15.283  0.3588 -0.1668  0.3164
  166POSM   T1A 1940   7.534   8.615  15.016 -0.4058  0.2897 -0.0864
  166POSM   C2A 1941   7.551   8.631  14.568  0.1535  0.0249  0.1128
  166POSM   C3A 1942   7.557   8.691  14.128  0.0922  0.0936 -0.1877
  166POSM   C1B 1943   7.978   8.691  14.945 -0.0850  0.1521 -0.0216
  166POSM   D2B 1944   8.099   8.717  14.495  0.0499 -0.1320 -0.1394
  166POSM   C3B 1945   8.507   8.546  14.292 -0.0389  0.1224  0.2733
  166POSM   C4B 1946   8.806   8.230  14.311  0.0688  0.2881 -0.0680
  167DOPC   NC3 1947   8.695   5.334  15.875 -0.0659  0.0698  0.0530
  167DOPC   PO4 1948   8.590   5.052  16.146  0.1315 -0.3944  0.0213
  167DOPC   GL1 1949   8.459   4.942  15.882  0.1460 -0.2419 -0.1877
  167DOPC   GL2 1950   8.179   4.847  15.866 -0.2815 -0.0782 -0.0882
  167DOPC   C1A 1951   8.568   5.003  15.422  0.1823  0.1630  0.1689
  167DOPC   D2A 1952   8.705   4.915  14.959  0.2880 -0.1388 -0.1010
  167DOPC   C3A 1953   8.671   4.556  14.607  0.0657 -0.1972 -0.3570
  167DOPC   C4A 1954   8.821   4.547  14.191 -0.1237 -0.0413 -0.1139
  167DOPC   C1B 1955   8.286   4.606  15.493 -0.3779  0.3226 -0.1007
  167DOPC   D2B 1956   8.392   4.591  14.983  0.1427 -0.0696  0.3308
  167DOPC   C3B 1957   8.300   4.947  14.681  0.0962  0.0231 -0.0726
  167DOPC   C4B 1958   8.126   5.210  14.242 -0.2814  0.3831 -0.2760
  168DOPE   NH3 1959   6.420  10.868  16.599 -0.0670 -0.3264 -0.0759
  168DOPE   PO4 1960   6.538  10.681  16.358  0.0546  0.0577  0.0701
  168DOPE   GL1 1961   6.659  10.826  16.009 -0.1437  0.1397  0.0397
  168DOPE   GL2 1962   6.893  11.011  15.937 -0.1220  0.1605  0.0183
  168DOPE   C1A 1963   6.844  10.644  15.590  0.2690  0.1085  0.0510
  168DOPE   D2A 1964   6.887  10.513  15.146  0.0598  0.0696 -0.0914
  168DOPE   C3A 1965   7.175  10.728  14.789 -0.0288  0.3176  0.2177
  168DOPE   C4A 1966   7.491  11.106  14.689  0.0979  0.0073 -0.0728
  168DOPE   C1B 1967   7.061  11.042  15.494  0.1192 -0.2099 -0.2180
  168DOPE   D2B 1968   7.083  11.108  15.018 -0.3232 -0.1146 -0.2017
  168DOPE   C3B 1969   7.224  11.520  14.870 -0.1202  0.0505  0.1195
  168DOPE   C4B 1970   7.219  11.894  15.060  0.3292 -0.2982  0.2536
  169POSM   NC3 1971   6.418   0.531  16.088  0.2649  0.0617  0.0033
  169POSM   PO4 1972   6.789   0.633  16.010 -0.1649  0.0388  0.0409
  169POSM   AM1 1973   6.675   0.712  15.683  0.2947 -0.4930 -0.0494
  169POSM   AM2 1974   6.649   0.952  15.563  0.0135 -0.0797  0.0178
  169POSM   T1A 1975   6.739   0.455  15.259  0.1827  0.1985 -0.2729
  169POSM   C2A 1976   6.977   0.344  14.886 -0.2041  0.2106 -0.1221
  169POSM   C3A 1977   7.147   0.047  14.581 -0.2750 -0.2920 -0.1064
  169POSM   C1B 1978   6.936   0.988  15.447 -0.0003 -0.1194  0.0794
  169POSM   D2B 1979   7.225   0.692  15.280 -0.3519 -0.0566 -0.1176
  169POSM   C3B 1980   7.334   0.593  14.821 -0.1976  0.2280  0.1592
  169POSM   C4B 1981   7.193   0.552  14.399  0.2590  0.0833  0.2545
  170DOPE   NH3 1982  10.022  10.036  15.241  0.1825 -0.0783  0.0564
  170DOPE   PO4 1983   9.707   9.976  15.357 -0.2951 -0.0284 -0.1648
  170DOPE   GL1 1984   9.731  10.048  14.947 -0.2216  0.2361 -0.1799
  170DOPE   GL2 1985   9.895   9.908  14.746  0.2635 -0.1879  0.3712
  170DOPE   C1A 1986   9.383   9.911  14.653 -0.1561  0.2294  0.0930
  170DOPE   D2A 1987   9.076   9.876  14.345 -0.5181  0.2688 -0.1075
  170DOPE   C3A 1988   8.897   9.838  13.865  0.0168 -0.1863 -0.2055
  170DOPE   C4A 1989   8.494   9.798  13.676 -0.0904 -0.4427  0.1596
  170DOPE   C1B 1990   9.732   9.876  14.321 -0.0448  0.1611 -0.1160
  170DOPE   D2B 1991   9.463   9.698  13.974 -0.1192 -0.1800 -0.1700
  170DOPE   C3B 1992   9.492   9.550  13.594 -0.2872  0.1631 -0.0404
  170DOPE   C4B 1993   9.405   9.347  13.195 -0.4432 -0.0081 -0.0277
  171DOPE   NH3 1994   0.762   4.177  16.300  0.0463  0.3393 -0.0324
  171DOPE   PO4 1995   0.750   3.855  16.254 -0.3295 -0.1482 -0.0788
  171DOPE   GL1 1996   1.002   3.995  15.950  0.0756 -0.2079 -0.2099
  171DOPE   GL2 1997   0.976   3.747  15.794 -0.3004 -0.2334 -0.1957
  171DOPE   C1A 1998   0.994   4.135  15.479  0.0338 -0.2887 -0.2080
  171DOPE   D2A 1999   0.914   4.370  15.114  0.3450 -0.1335  0.0692
  171DOPE   C3A 2000   0.808   4.774  15.028  0.1403 -0.0808 -0.5275
  171DOPE   C4A 2001   0.516   4.986  14.760 -0.4091 -0.0716 -0.0111
  171DOPE   C1B 2002   1.317   3.747  15.533 -0.0571  0.1616  0.0368
  171DOPE   D2B 2003   1.659   3.698  15.149 -0.1818  0.0504  0.1977
  171DOPE   C3B 2004   1.928   3.981  14.825 -0.0177 -0.0962  0.4137
  171DOPE   C4B 2005   2.210   4.051  14.434  0.2843  0.0942  0.1272
  172DOPE   NH3 2006   8.241   7.409  15.825  0.0667  0.0096  0.3693
  172DOPE   PO4 2007   8.230   7.137  15.923  0.0100  0.1398 -0.0272
  172DOPE   GL1 2008   8.094   7.004  15.621  0.1296  0.1376 -0.1239
  172DOPE   GL2 2009   8.360   6.904  15.461  0.1718  0.2036  0.3112
  172DOPE   C1A 2010   7.771   7.144  15.326 -0.0819 -0.0560  0.5761
  172DOPE   D2A 2011   7.705   7.292  14.856 -0.1040  0.0721 -0.0956
  172DOPE   C3A 2012   7.492   7.186  14.495  0.1152 -0.1525 -0.1967
  172DOPE   C4A 2013   7.453   7.342  14.072  0.3988 -0.2093  0.0448
  172DOPE   C1B 2014   8.129   6.948  15.063 -0.1407 -0.0741  0.3976
  172DOPE   D2B 2015   8.060   6.993  14.634  0.2340  0.0872 -0.0469
  172DOPE   C3B 2016   8.011   6.550  14.678  0.0193 -0.1144  0.0354
  172DOPE   C4B 2017   7.998   6.355  15.087 -0.0307 -0.0302  0.2374
  173DOPE   NH3 2018   1.577   1.401  16.933 -0.0584 -0.2589 -0.0114
  173DOPE   PO4 2019   1.638   1.519  16.640  0.0459  0.2207 -0.2471
  173DOPE   GL1 2020   1.589   1.216  16.402 -0.0926 -0.4728  0.2574
  173DOPE   GL2 2021   1.695   1.301  16.171  0.0023 -0.1336 -0.1407
  173DOPE   C1A 2022   1.314   0.993  16.114  0.2769  0.0187 -0.0939
  173DOPE   D2A 2023   1.087   0.624  15.868 -0.1513 -0.2488 -0.1117
  173DOPE   C3A 2024   0.828   0.244  16.004  0.1274  0.0887  0.0563
  173DOPE   C4A 2025   0.731  -0.165  15.863 -0.1247 -0.2708  0.1280
  173DOPE   C1B 2026   1.725   1.002  15.872  0.1872 -0.1502  0.0752
  173DOPE   D2B 2027   1.908   1.078  15.488  0.2324  0.1936  0.2856
  173DOPE   C3B 2028   1.930   0.676  15.264  0.0322 -0.2497 -0.0931
  173DOPE   C4B 2029   1.624   0.436  15.078  0.0315 -0.2948 -0.2793
  174POSM   NC3 2030   9.043   2.205  15.857  0.0055  0.1727  0.0408
  174POSM   PO4 2031   9.378   2.379  15.713  0.0460 -0.0455  0.3710
  174POSM   AM1 2032   9.286   2.380  15.419 -0.0316  0.0219 -0.1693
  174POSM   AM2 2033   9.138   2.203  15.273 -0.2983  0.0977 -0.2353
  174POSM   T1A 2034   9.247   2.594  14.990  0.2779  0.0133 -0.4199
  174POSM   C2A 2035   9.487   2.648  14.593  0.0987  0.2956 -0.3628
  174POSM   C3A 2036   9.328   2.591  14.114 -0.0144  0.0374 -0.0279
  174POSM   C1B 2037   9.105   2.147  14.905  0.2383 -0.0536 -0.1458
  174POSM   D2B 2038   8.970   2.179  14.449  0.1509 -0.0369 -0.3149
  174POSM   C3B 2039   9.129   1.973  14.047  0.1434 -0.0401  0.2725
  174POSM   C4B 2040   9.091   1.964  13.569 -0.4141 -0.1101 -0.2177
  175DOPE   NH3 2041   8.882   8.235  15.840 -0.0758 -0.0009 -0.0985
  175DOPE   PO4 2042   9.206   8.217  15.833  0.2646 -0.2823 -0.1334
  175DOPE   GL1 2043   9.162   7.968  15.547 -0.0751  0.0068 -0.0773
  175DOPE   GL2 2044   8.892   8.085  15.340 -0.1732  0.2539  0.1169
  175DOPE   C1A 2045   9.090   7.529  15.546 -0.3164  0.1294  0.0503
  175DOPE   D2A 2046   8.654   7.304  15.503  0.0505 -0.2290  0.0217
  175DOPE   C3A 2047   8.325   7.366  15.273 -0.2476 -0.2987  0.2231
  175DOPE   C4A 2048   8.254   7.448  14.839 -0.0136  0.1842 -0.0297
  175DOPE   C1B 2049   9.300   8.251  15.091 -0.1426 -0.1447 -0.1193
  175DOPE   D2B 2050   9.616   8.561  15.018 -0.3331  0.2847 -0.0420
  175DOPE   C3B 2051   9.557   8.583  14.572 -0.1573 -0.1208 -0.0508
  175DOPE   C4B 2052   9.665   8.527  14.125 -0.1828 -0.2603  0.3494
  176DOPE   NH3 2053   8.897  10.379  15.911  0.1684  0.1981 -0.0113
  176DOPE   PO4 2054   9.118  10.616  15.930  0.3695  0.2422  0.0201
  176DOPE   GL1 2055   9.125  10.659  15.566 -0.1080  0.0526  0.3699
  176DOPE   GL2 2056   9.389  10.764  15.540  0.0319  0.3400  0.1955
  176DOPE   C1A 2057   9.014  10.757  15.117 -0.1351  0.1939  0.1139
  176DOPE   D2A 2058   8.921  11.045  14.751 -0.2810  0.4585  0.1007
  176DOPE   C3A 2059   8.695  11.252  14.336 -0.0838  0.1299  0.2619
  176DOPE   C4A 2060   8.811  11.257  13.840  0.2599  0.1928 -0.4445
  176DOPE   C1B 2061   9.674  10.986  15.200  0.2066  0.0811  0.0309
  176DOPE   D2B 2062   9.681  11.280  14.892 -0.3447 -0.2871  0.0053
  176DOPE   C3B 2063   9.663  11.334  14.423 -0.3842 -0.1491  0.0799
  176DOPE   C4B 2064   9.659  11.281  13.938 -0.0828 -0.2558  0.2504
  177POSM   NC3 2065   8.379   4.155  16.016  0.0219 -0.1529  0.1156
  177POSM   PO4 2066   8.469   4.536  16.163 -0.0069 -0.1443  0.0881
  177POSM   AM1 2067   8.573   4.503  15.861  0.3082  0.0240 -0.1639
  177POSM   AM2 2068   8.752   4.597  15.695 -0.0867 -0.0165 -0.1517
  177POSM   T1A 2069   8.626   4.156  15.503  0.0490 -0.0737 -0.0867
  177POSM   C2A 2070   8.835   3.865  15.243 -0.1090 -0.1533  0.2917
  177POSM   C3A 2071   8.949   3.433  15.351 -0.0337  0.0843 -0.1044
  177POSM   C1B 2072   8.797   4.571  15.352 -0.1175  0.0050 -0.0748
  177POSM   D2B 2073   8.954   4.333  15.054  0.2071  0.1938 -0.3004
  177POSM   C3B 2074   8.665   4.097  14.744  0.0298 -0.1083  0.0807
  177POSM   C4B 2075   8.482   4.052  14.332 -0.1126 -0.1126 -0.1672
  178DOPC   NC3 2076   3.239   7.987  16.250 -0.1027  0.0599 -0.2761
  178DOPC   PO4 2077   3.546   8.155  16.080 -0.3111 -0.2755  0.1479
  178DOPC   GL1 2078   3.483   8.134  15.673 -0.2051  0.0181  0.0191
  178DOPC   GL2 2079   3.487   8.268  15.422  0.1942 -0.0428  0.1192
  178DOPC   C1A 2080   3.092   7.884  15.512 -0.0449 -0.0965  0.1959
  178DOPC   D2A 2081   2.746   7.837  15.155  0.2889 -0.0256  0.0364
  178DOPC   C3A 2082   2.598   7.398  15.086 -0.2755  0.0563  0.0596
  178DOPC   C4A 2083   2.725   7.057  14.841 -0.0291 -0.1875 -0.3328
  178DOPC   C1B 2084   3.140   8.182  15.126 -0.0667 -0.2248  0.0886
  178DOPC   D2B 2085   2.927   8.008  14.713 -0.3635 -0.4234 -0.2790
  178DOPC   C3B 2086   2.748   8.267  14.398  0.0710 -0.3793 -0.1838
  178DOPC   C4B 2087   2.798   8.700  14.154  0.1420  0.0076  0.0499
  179DOPE   NH3 2088   1.517   2.655  16.031 -0.1491 -0.2480 -0.0580
  179DOPE   PO4 2089   1.658   2.949  16.070  0.3878  0.0358  0.0271
  179DOPE   GL1 2090   1.766   2.803  15.670 -0.0620  0.1781  0.5328
  179DOPE   GL2 2091   2.092   2.867  15.579 -0.0910  0.3106  0.1372
  179DOPE   C1A 2092   1.729   2.437  15.367 -0.1725 -0.1056 -0.0978
  179DOPE   D2A 2093   1.489   2.322  14.927 -0.0104 -0.1802  0.1621
  179DOPE   C3A 2094   1.045   2.156  14.844 -0.2873 -0.1146 -0.0766
  179DOPE   C4A 2095   0.585   2.113  14.904  0.1157 -0.1498 -0.0277
  179DOPE   C1B 2096   1.819   3.027  15.261  0.3637 -0.1072  0.0795
  179DOPE   D2B 2097   1.776   3.353  14.903  0.2184 -0.0207 -0.3115
  179DOPE   C3B 2098   1.984   3.533  14.540  0.0222 -0.1677 -0.2188
  179DOPE   C4B 2099   2.128   3.572  14.076 -0.1436 -0.1353 -0.0852
  180DOPC   NC3 2100  11.228   5.508  15.238  0.0688  0.3053 -0.2973
  180DOPC   PO4 2101  11.137   5.176  15.423 -0.1082 -0.0037  0.0794
  180DOPC   GL1 2102  11.016   5.091  15.014  0.1696 -0.1523  0.0237
  180DOPC   GL2 2103  11.071   4.759  15.019  0.2178 -0.1808 -0.1161
  180DOPC   C1A 2104  10.720   5.050  14.655  0.1872 -0.0596 -0.2708
  180DOPC   D2A 2105  10.454   5.088  14.291 -0.1214 -0.0931  0.0483
  180DOPC   C3A 2106  10.618   5.253  13.845 -0.3506  0.3812  0.1842
  180DOPC   C4A 2107  10.327   5.200  13.487  0.0096 -0.0268  0.2487
  180DOPC   C1B 2108  11.182   4.915  14.564 -0.0640  0.2759 -0.0302
  180DOPC   D2B 2109  11.396   5.043  14.193  0.0585  0.1463  0.1381
  180DOPC   C3B 2110  11.374   4.691  13.903  0.0688 -0.2729 -0.1528
  180DOPC   C4B 2111  11.457   4.379  13.488 -0.0173  0.3396 -0.0503
  181POSM   NC3 2112   2.421   0.158  16.241  0.1476 -0.0369 -0.1602
  181POSM   PO4 2113   2.077   0.326  16.199 -0.1897 -0.1931  0.0020
  181POSM   AM1 2114   1.845   0.485  15.954 -0.0354  0.1628 -0.0697
  181POSM   AM2 2115   1.606   0.400  16.007 -0.2630 -0.2728 -0.1236
  181POSM   T1A 2116   1.535   0.621  15.565  0.0815 -0.2406 -0.1641
  181POSM   C2A 2117   1.207   0.439  15.418  0.2055 -0.1351  0.1773
  181POSM   C3A 2118   1.016   0.192  15.078  0.1054 -0.1013  0.3075
  181POSM   C1B 2119   1.326   0.217  15.852 -0.2128  0.3332 -0.1284
  181POSM   D2B 2120   1.165  -0.070  15.562 -0.0325 -0.1797 -0.3276
  181POSM   C3B 2121   0.773  -0.163  15.367 -0.3469 -0.0108 -0.1458
  181POSM   C4B 2122   0.474  -0.157  15.000 -0.1126 -0.2223  0.0636
  182DOPE   NH3 2123   8.472   2.217  16.042 -0.1685 -0.2555  0.1756
  182DOPE   PO4 2124   8.451   2.428  15.811  0.0289  0.1619  0.2295
  182DOPE   GL1 2125   8.382   2.474  15.388 -0.1319 -0.4099  0.2202
  182DOPE   GL2 2126   8.280   2.731  15.319  0.1713 -0.1367  0.0318
  182DOPE   C1A 2127   8.342   2.567  14.910 -0.0757 -0.1586  0.0314
  182DOPE   D2A 2128   8.283   2.666  14.447 -0.1672 -0.1396 -0.1464
  182DOPE   C3A 2129   8.666   2.509  14.216  0.3285 -0.1797  0.0261
  182DOPE   C4A 2130   8.791   2.424  13.791 -0.0630 -0.0193 -0.1369
  182DOPE   C1B 2131   8.560   3.092  15.260  0.0577 -0.2062  0.1591
  182DOPE   D2B 2132   8.462   3.481  15.013 -0.1155 -0.1090 -0.0039
  182DOPE   C3B 2133   8.594   3.608  14.587 -0.2724 -0.0308  0.2487
  182DOPE   C4B 2134   8.608   3.607  14.138  0.0496 -0.3502 -0.0822
  183DOPE   NH3 2135  10.409   2.763  15.380 -0.0432 -0.1442 -0.1829
  183DOPE   PO4 2136  10.740   2.930  15.370  0.1772  0.2060  0.3784
  183DOPE   GL1 2137  10.551   3.304  15.193  0.0947  0.0001  0.1008
  183DOPE   GL2 2138  10.323   3.179  15.132  0.2019  0.1034  0.0667
  183DOPE   C1A 2139  10.315   3.601  14.887 -0.1795 -0.0153  0.1892
  183DOPE   D2A 2140  10.294   3.846  14.522 -0.1944  0.0065 -0.5367
  183DOPE   C3A 2141  10.206   3.497  14.194 -0.2140 -0.1518 -0.2753
  183DOPE   C4A 2142  10.192   3.204  13.835 -0.1361  0.2479  0.1861
  183DOPE   C1B 2143   9.936   3.338  15.146  0.0754  0.0936  0.1756
  183DOPE   D2B 2144   9.472   3.423  14.999  0.2129  0.3273  0.0327
  183DOPE   C3B 2145   9.398   3.207  14.622  0.4431  0.2216  0.1536
  183DOPE   C4B 2146   9.071   2.916  14.443 -0.1635  0.1194 -0.0489
  184POSM   NC3 2147   4.165   1.935  16.553 -0.1773 -0.2616 -0.0589
  184POSM   PO4 2148   4.217   1.572  16.712  0.2303 -0.0114 -0.2222
  184POSM   AM1 2149   4.165   1.519  16.386  0.0553 -0.2255  0.0429
  184POSM   AM2 2150   4.018   1.339  16.240 -0.3032  0.0932 -0.0105
  184POSM   T1A 2151   4.170   1.741  15.907 -0.4916  0.2316 -0.0630
  184POSM   C2A 2152   4.018   1.726  15.468  0.0258 -0.1488  0.0017
  184POSM   C3A 2153   3.688   1.594  15.096  0.1357  0.1995 -0.1692
  184POSM   C1B 2154   4.051   1.164  15.969  0.2092  0.2550 -0.1247
  184POSM   D2B 2155   3.972   0.853  15.653  0.2167  0.2460 -0.1166
  184POSM   C3B 2156   3.717   0.663  15.325  0.0174 -0.1661  0.0552
  184POSM   C4B 2157   3.759   0.475  14.870 -0.2285  0.0883  0.1068
  185DOPS   CNO 2158   7.558   1.864  16.081  0.3501 -0.0441  0.0852
  185DOPS   PO4 2159   7.579   1.957  15.733 -0.1858 -0.2009  0.0949
  185DOPS   GL1 2160   7.712   1.950  15.340 -0.1120 -0.1124 -0.0024
  185DOPS   GL2 2161   7.834   2.224  15.175  0.0143 -0.0297 -0.1861
  185DOPS   C1A 2162   7.620   1.731  14.966  0.3234 -0.2373 -0.2785
  185DOPS   D2A 2163   7.703   1.638  14.523  0.0698 -0.0994 -0.2654
  185DOPS   C3A 2164   7.330   1.551  14.216  0.1279 -0.0004 -0.1347
  185DOPS   C4A 2165   7.075   1.532  13.855  0.5760  0.3273  0.0066
  185DOPS   C1B 2166   8.037   2.245  14.778  0.0439 -0.2457  0.4468
  185DOPS   D2B 2167   8.068   2.179  14.315 -0.3048 -0.0256 -0.1254
  185DOPS   C3B 2168   7.723   1.918  14.088  0.2326  0.0907 -0.0221
  185DOPS   C4B 2169   7.505   1.937  13.676  0.1390 -0.1555  0.1845
  186DOPC   NC3 2170   3.553  11.083  15.743  0.0746 -0.0341  0.3350
  186DOPC   PO4 2171   3.837  10.817  15.714 -0.1554  0.0742 -0.1692
  186DOPC   GL1 2172   3.679  10.758  15.423 -0.0202 -0.0173  0.0949
  186DOPC   GL2 2173   3.560  10.482  15.418 -0.0651 -0.0381  0.4197
  186DOPC   C1A 2174   3.870  10.599  15.033 -0.0022 -0.0336 -0.1012
  186DOPC   D2A 2175   3.892  10.251  14.782 -0.1375  0.1873  0.0183
  186DOPC   C3A 2176   4.171  10.239  14.427 -0.0158 -0.0458  0.1028
  186DOPC   C4A 2177   4.519   9.983  14.266 -0.1752  0.1201 -0.1295
  186DOPC   C1B 2178   3.373  10.729  15.110  0.3626  0.1917 -0.0739
  186DOPC   D2B 2179   3.180  11.022  14.878 -0.1169 -0.0337  0.1041
  186DOPC   C3B 2180   3.344  11.464  14.806  0.1223  0.3082 -0.1881
  186DOPC   C4B 2181   3.481  11.886  14.700 -0.2509  0.1322  0.0319
  187POSM   NC3 2182   6.401   5.612  16.106 -0.1432  0.2229 -0.0179
  187POSM   PO4 2183   6.027   5.472  16.062 -0.1641  0.0198  0.1609
  187POSM   AM1 2184   5.838   5.571  15.810  0.3593  0.3052 -0.0447
  187POSM   AM2 2185   5.566   5.654  15.793  0.2573  0.0980  0.0362
  187POSM   T1A 2186   5.692   5.460  15.359 -0.0078 -0.0484  0.1483
  187POSM   C2A 2187   5.836   5.510  14.963 -0.0813 -0.1657 -0.0556
  187POSM   C3A 2188   5.734   5.588  14.541  0.2284 -0.1809  0.3167
  187POSM   C1B 2189   5.271   5.635  15.602  0.0719 -0.0645 -0.3779
  187POSM   D2B 2190   5.089   5.388  15.267  0.0153 -0.3871 -0.1764
  187POSM   C3B 2191   5.340   5.491  14.858  0.3111  0.0768 -0.1552
  187POSM   C4B 2192   5.198   5.725  14.519 -0.3077  0.0621 -0.0628
  188DOPE   NH3 2193   6.255   1.311  16.001  0.2519  0.0812 -0.2249
  188DOPE   PO4 2194   6.519   1.108  16.048  0.2371  0.1799 -0.1792
  188DOPE   GL1 2195   6.671   1.391  15.804 -0.2194  0.0400  0.3196
  188DOPE   GL2 2196   6.484   1.682  15.768  0.0443  0.2560  0.3037
  188DOPE   C1A 2197   7.053   1.498  15.554 -0.1146  0.2810  0.0395
  188DOPE   D2A 2198   7.266   1.848  15.345  0.0475  0.1188  0.0212
  188DOPE   C3A 2199   7.238   1.973  14.943  0.0475 -0.1743 -0.1078
  188DOPE   C4A 2200   7.546   2.137  14.610  0.2740 -0.0151 -0.0255
  188DOPE   C1B 2201   6.397   2.008  15.404  0.0578  0.5810 -0.1374
  188DOPE   D2B 2202   6.123   2.041  15.028 -0.5306 -0.1178 -0.2155
  188DOPE   C3B 2203   5.884   2.394  14.957 -0.0003 -0.1293 -0.1446
  188DOPE   C4B 2204   5.726   2.683  14.625  0.1291  0.1844  0.0546
  189DOPS   CNO 2205   5.984   0.347  15.801  0.0870 -0.4482  0.1179
  189DOPS   PO4 2206   5.733   0.088  15.671  0.0771 -0.0290  0.0598
  189DOPS   GL1 2207   5.564   0.151  15.415 -0.6523  0.0603  0.2461
  189DOPS   GL2 2208   5.666   0.450  15.308  0.0444  0.0812  0.0775
  189DOPS   C1A 2209   5.362   0.279  15.013 -0.0811 -0.0660  0.1166
  189DOPS   D2A 2210   5.190   0.484  14.597 -0.4562  0.0647  0.4269
  189DOPS   C3A 2211   4.993   0.225  14.311 -0.1011 -0.2004 -0.0816
  189DOPS   C4A 2212   5.142  -0.088  14.020  0.0269 -0.2407  0.4206
  189DOPS   C1B 2213   5.507   0.895  15.181 -0.1628  0.3027 -0.1244
  189DOPS   D2B 2214   5.263   1.291  15.042  0.0456 -0.0181 -0.4126
  189DOPS   C3B 2215   4.967   1.486  14.677 -0.1486  0.0341  0.0525
  189DOPS   C4B 2216   4.742   1.666  14.300 -0.3004 -0.0668  0.2306
  190DOPS   CNO 2217   5.750  10.715  16.388 -0.1739  0.2590 -0.2316
  190DOPS   PO4 2218   5.617  10.359  16.412 -0.0601 -0.1277  0.1357
  190DOPS   GL1 2219   5.786  10.448  16.047  0.1350 -0.1159 -0.0288
  190DOPS   GL2 2220   5.657  10.282  15.916  0.1778  0.1411  0.1571
  190DOPS   C1A 2221   6.032  10.438  15.672 -0.0732 -0.2484  0.1122
  190DOPS   D2A 2222   6.291  10.423  15.381 -0.1234  0.0816 -0.2082
  190DOPS   C3A 2223   6.362  10.551  14.892 -0.1311 -0.0731 -0.2059
  190DOPS   C4A 2224   6.513  10.373  14.496 -0.0565 -0.3258 -0.2161
  190DOPS   C1B 2225   5.811  10.020  15.589 -0.1498  0.1500  0.3067
  190DOPS   D2B 2226   6.157   9.927  15.305 -0.1123  0.1336 -0.0414
  190DOPS   C3B 2227   6.091  10.110  14.884  0.3167 -0.3076  0.0520
  190DOPS   C4B 2228   6.051  10.173  14.443 -0.2686  0.0709 -0.0561
  191DOPE   NH3 2229  10.933   0.359  15.703  0.1083  0.1006 -0.4496
  191DOPE   PO4 2230  11.213   0.255  15.625 -0.2541 -0.4084  0.3714
  191DOPE   GL1 2231  11.405   0.214  15.239 -0.2085  0.2994 -0.0545
  191DOPE   GL2 2232  11.177   0.145  15.122  0.1240 -0.1674  0.1986
  191DOPE   C1A 2233  11.566   0.619  15.067  0.2952  0.1267 -0.0069
  191DOPE   D2A 2234  11.517   0.874  14.712 -0.1593  0.0788 -0.3604
  191DOPE   C3A 2235  11.546   0.991  14.276  0.0848  0.1243 -0.1159
  191DOPE   C4A 2236  11.806   0.853  13.933  0.0566  0.0728  0.3669
  191DOPE   C1B 2237  11.289  -0.241  14.866  0.2062 -0.1463 -0.2793
  191DOPE   D2B 2238  11.346  -0.674  14.879  0.2262  0.0908  0.0232
  191DOPE   C3B 2239  10.960  -0.869  14.845 -0.0613  0.1881  0.2320
  191DOPE   C4B 2240  10.654  -1.087  14.608 -0.2631 -0.0891  0.1573
  192DOPC   NC3 2241   6.659   2.766  16.308  0.2778 -0.1495 -0.1456
  192DOPC   PO4 2242   6.835   2.984  16.027 -0.2458  0.0684 -0.3955
  192DOPC   GL1 2243   7.092   2.789  15.803  0.1092 -0.0589 -0.0675
  192DOPC   GL2 2244   6.942   2.519  15.780  0.1499  0.0835 -0.0394
  192DOPC   C1A 2245   6.996   2.853  15.324  0.1342  0.1078 -0.4542
  192DOPC   D2A 2246   7.071   2.870  14.831  0.1482  0.1267  0.0906
  192DOPC   C3A 2247   6.634   2.656  14.594 -0.2049  0.0266 -0.1813
  192DOPC   C4A 2248   6.262   2.817  14.399 -0.1130 -0.0955 -0.0376
  192DOPC   C1B 2249   6.539   2.448  15.613 -0.2720  0.2263 -0.1631
  192DOPC   D2B 2250   6.442   2.452  15.132 -0.0786 -0.0046 -0.0860
  192DOPC   C3B 2251   6.143   2.818  14.934 -0.2464 -0.0242 -0.2618
  192DOPC   C4B 2252   5.695   2.882  15.080 -0.0657 -0.1843 -0.1190
  193DOPS   CNO 2253  10.832   4.804  16.079  0.3219 -0.0159 -0.0224
  193DOPS   PO4 2254  10.852   5.110  15.857 -0.2397 -0.0168  0.2127
  193DOPS   GL1 2255  10.830   5.464  15.562  0.2223 -0.4118 -0.1408
  193DOPS   GL2 2256  10.841   5.707  15.485  0.3714 -0.2268  0.2871
  193DOPS   C1A 2257  10.706   5.437  15.100 -0.1585 -0.0951  0.2197
  193DOPS   D2A 2258  11.022   5.476  14.771 -0.1140  0.0781  0.0301
  193DOPS   C3A 2259  11.047   5.326  14.333 -0.1563 -0.4927 -0.1269
  193DOPS   C4A 2260  11.159   5.380  13.913 -0.1176 -0.0310  0.0545
  193DOPS   C1B 2261  10.944   5.895  15.099 -0.1106  0.2020  0.0936
  193DOPS   D2B 2262  10.822   6.224  14.751 -0.0935  0.1257  0.0357
  193DOPS   C3B 2263  10.717   6.139  14.253 -0.0431  0.1837  0.1700
  193DOPS   C4B 2264  10.579   5.908  13.917  0.1636  0.0612 -0.0305
  194DOPE   NH3 2265   3.345  10.609  15.845  0.0488  0.0645 -0.1215
  194DOPE   PO4 2266   3.546  10.620  16.070 -0.2095  0.1162  0.1895
  194DOPE   GL1 2267   3.765  10.343  15.834  0.1433 -0.3862  0.0074
  194DOPE   GL2 2268   3.504  10.148  15.797 -0.1549 -0.4507  0.2316
  194DOPE   C1A 2269   3.935  10.183  15.479  0.1029 -0.2040 -0.1115
  194DOPE   D2A 2270   4.256  10.240  15.235 -0.0404  0.1959  0.0713
  194DOPE   C3A 2271   4.672  10.017  15.027 -0.1237  0.0481  0.0439
  194DOPE   C4A 2272   4.847   9.823  14.711 -0.0150  0.2388  0.0558
  194DOPE   C1B 2273   3.577   9.815  15.518 -0.0711  0.0524  0.0556
  194DOPE   D2B 2274   3.563   9.395  15.383 -0.2251 -0.2079 -0.2070
  194DOPE   C3B 2275   3.107   9.206  15.252 -0.0914  0.1045  0.1546
  194DOPE   C4B 2276   2.842   8.955  14.964  0.3048  0.2525 -0.1830
  195DOPE   NH3 2277   8.920   7.756  16.020 -0.0057  0.0601 -0.0186
  195DOPE   PO4 2278   8.637   7.732  15.921  0.1991 -0.0006  0.1617
  195DOPE   GL1 2279   8.571   7.837  15.480 -0.0932  0.0327 -0.0437
  195DOPE   GL2 2280   8.312   7.835  15.503  0.1256 -0.0320 -0.0956
  195DOPE   C1A 2281   8.713   7.563  15.083 -0.1255 -0.1857 -0.1945
  195DOPE   D2A 2282   8.895   7.418  14.743 -0.2044  0.1604 -0.3407
  195DOPE   C3A 2283   8.735   7.385  14.297 -0.4006  0.0975 -0.0384
  195DOPE   C4A 2284   8.407   7.101  14.108 -0.1633 -0.1933  0.0905
  195DOPE   C1B 2285   8.368   7.892  15.085 -0.1449 -0.2075  0.0358
  195DOPE   D2B 2286   8.607   7.905  14.644  0.1503  0.0329 -0.1745
  195DOPE   C3B 2287   8.415   7.708  14.243 -0.1395  0.3041 -0.0654
  195DOPE   C4B 2288   7.990   7.771  14.028  0.0389  0.1175 -0.0642
  196DOPE   NH3 2289   7.404   4.549  16.132  0.1548  0.2447 -0.1483
  196DOPE   PO4 2290   7.300   4.702  15.864 -0.2218  0.1619 -0.1569
  196DOPE   GL1 2291   7.397   5.020  15.608 -0.1123 -0.4243 -0.4602
  196DOPE   GL2 2292   7.325   5.319  15.550  0.1341  0.1845 -0.3328
  196DOPE   C1A 2293   7.459   4.990  15.138  0.0206  0.1566  0.1859
  196DOPE   D2A 2294   7.325   4.952  14.684  0.1450  0.1057  0.2958
  196DOPE   C3A 2295   6.942   4.969  14.362 -0.0323 -0.0979 -0.0054
  196DOPE   C4A 2296   6.750   5.188  14.023 -0.1360 -0.3039  0.4718
  196DOPE   C1B 2297   7.116   5.318  15.147 -0.0584  0.0615  0.0656
  196DOPE   D2B 2298   7.107   5.443  14.784  0.3786 -0.0074 -0.2682
  196DOPE   C3B 2299   6.921   5.525  14.370 -0.2538 -0.0650  0.2096
  196DOPE   C4B 2300   7.008   5.703  13.956 -0.0930 -0.1966 -0.1238
  197DOPC   NC3 2301  10.500   9.961  16.247  0.3403  0.2570 -0.0462
  197DOPC   PO4 2302  10.224   9.842  16.000 -0.0743  0.1006  0.0009
  197DOPC   GL1 2303  10.483  10.014  15.724 -0.0783  0.0081 -0.2081
  197DOPC   GL2 2304  10.768   9.836  15.846  0.0841 -0.1579 -0.2745
  197DOPC   C1A 2305  10.623  10.375  15.525 -0.3645 -0.3602  0.1794
  197DOPC   D2A 2306  10.829  10.809  15.440  0.1379  0.2235  0.1363
  197DOPC   C3A 2307  10.969  10.768  14.998 -0.3020 -0.0706 -0.2002
  197DOPC   C4A 2308  11.077  10.600  14.642  0.2243 -0.0395  0.0607
  197DOPC   C1B 2309  10.841   9.903  15.360  0.0665 -0.0259  0.1100
  197DOPC   D2B 2310  11.065  10.187  15.046 -0.1655 -0.1395 -0.1850
  197DOPC   C3B 2311  10.870  10.073  14.612 -0.0300 -0.0773 -0.1354
  197DOPC   C4B 2312  10.694   9.928  14.233 -0.2573 -0.1037 -0.0199
  198POSM   NC3 2313   2.703   7.092  16.599 -0.0323 -0.2009 -0.1173
  198POSM   PO4 2314   2.791   6.721  16.591  0.0635 -0.3469  0.0327
  198POSM   AM1 2315   2.757   6.524  16.317  0.0430 -0.1208  0.2662
  198POSM   AM2 2316   2.563   6.564  16.123  0.1941 -0.1081 -0.1846
  198POSM   T1A 2317   2.753   6.148  15.985  0.4512  0.2157  0.2213
  198POSM   C2A 2318   2.478   6.010  15.595 -0.0234 -0.0956  0.1607
  198POSM   C3A 2319   2.219   6.155  15.235  0.2067 -0.1705  0.0162
  198POSM   C1B 2320   2.271   6.476  16.021  0.1340  0.0040 -0.2264
  198POSM   D2B 2321   1.974   6.065  15.909 -0.2061 -0.0586  0.2701
  198POSM   C3B 2322   1.709   5.680  16.015  0.0900  0.4163 -0.0585
  198POSM   C4B 2323   1.630   5.219  16.048  0.0240 -0.3156 -0.0955
  199POSM   NC3 2324  33.805   9.252  16.345  0.0767  0.4409  0.0395
  199POSM   PO4 2325  34.092   9.200  16.118  0.2122 -0.2680 -0.0648
  199POSM   AM1 2326  34.191   9.518  16.066 -0.0913  0.3490  0.0357
  199POSM   AM2 2327  34.427   9.570  15.897 -0.1743 -0.0980 -0.1160
  199POSM   T1A 2328  34.089   9.980  15.951 -0.0756 -0.0859  0.0432
  199POSM   C2A 2329  33.941  10.041  15.568  0.1295  0.0148 -0.0699
  199POSM   C3A 2330  33.813  10.344  15.151 -0.0756  0.1391 -0.0123
  199POSM   C1B 2331  34.442   9.751  15.659  0.0888 -0.0050  0.1335
  199POSM   D2B 2332  34.191   9.746  15.292 -0.0594 -0.0528 -0.0701
  199POSM   C3B 2333  34.474   9.708  14.939  0.1917  0.0987  0.1312
  199POSM   C4B 2334  34.781   9.370  14.836 -0.3109 -0.2222 -0.2197
  200DOPC   NC3 2335   6.144   3.828  16.187  0.1384 -0.1695 -0.0997
  200DOPC   PO4 2336   5.889   3.871  15.919  0.0513 -0.1244 -0.0960
  200DOPC   GL1 2337   5.898   4.019  15.529  0.6044  0.0517 -0.0699
  200DOPC   GL2 2338   5.781   4.263  15.587 -0.1627 -0.1320 -0.1471
  200DOPC   C1A 2339   5.885   3.858  15.116  0.1532 -0.0851 -0.1822
  200DOPC   D2A 2340   5.555   3.874  14.782 -0.0585 -0.1321  0.1044
  200DOPC   C3A 2341   5.538   3.497  14.409  0.0629 -0.3022  0.0577
  200DOPC   C4A 2342   5.605   3.285  13.991 -0.0393 -0.1399 -0.1241
  200DOPC   C1B 2343   5.789   4.745  15.452  0.2665 -0.0610  0.2087
  200DOPC   D2B 2344   5.956   4.975  15.040  0.3249 -0.1268 -0.2868
  200DOPC   C3B 2345   5.924   5.037  14.534  0.1232 -0.0073  0.0062
  200DOPC   C4B 2346   5.777   4.977  14.059  0.1972  0.0780 -0.0457
  201DOPC   NC3 2347   7.751   4.939  16.128  0.0937  0.0597  0.2551
  201DOPC   PO4 2348   7.692   5.264  15.926  0.1071 -0.1860  0.0568
  201DOPC   GL1 2349   7.852   5.538  15.674 -0.4504 -0.1268  0.0745
  201DOPC   GL2 2350   7.785   5.352  15.372 -0.0684  0.1397  0.0518
  201DOPC   C1A 2351   8.290   5.455  15.502  0.0674  0.1145 -0.2114
  201DOPC   D2A 2352   8.701   5.499  15.241  0.1888 -0.0542 -0.0598
  201DOPC   C3A 2353   9.164   5.616  15.186  0.0855  0.0356  0.0807
  201DOPC   C4A 2354   9.501   5.730  14.930  0.0351 -0.0760 -0.2703
  201DOPC   C1B 2355   7.771   5.414  14.925  0.0637  0.0004 -0.0373
  201DOPC   D2B 2356   7.805   5.124  14.564 -0.0554  0.1805 -0.4378
  201DOPC   C3B 2357   7.902   4.644  14.738  0.0248  0.1194  0.1849
  201DOPC   C4B 2358   7.958   4.400  15.167  0.3031  0.1220  0.0685
  202DOPS   CNO 2359   0.854   7.832  15.616  0.0782  0.2785  0.0356
  202DOPS   PO4 2360   0.747   8.108  15.855  0.1251  0.0341 -0.2577
  202DOPS   GL1 2361   0.805   8.355  15.504  0.0109 -0.3576 -0.0610
  202DOPS   GL2 2362   0.592   8.375  15.405  0.1102  0.0993 -0.0134
  202DOPS   C1A 2363   1.200   8.562  15.411  0.1056  0.2875 -0.0152
  202DOPS   D2A 2364   1.403   8.623  15.002 -0.0743 -0.1197  0.0642
  202DOPS   C3A 2365   1.346   8.900  14.623 -0.4035 -0.1308  0.1674
  202DOPS   C4A 2366   1.334   9.223  14.244  0.0523 -0.0500 -0.1043
  202DOPS   C1B 2367   0.853   8.483  15.011  0.0827 -0.0236  0.0685
  202DOPS   D2B 2368   1.164   8.255  14.731 -0.1038  0.0586  0.2649
  202DOPS   C3B 2369   1.423   8.234  14.425 -0.3036 -0.1208 -0.1225
  202DOPS   C4B 2370   1.331   8.183  13.996 -0.2322  0.1878 -0.1800
  203DOPE   NH3 2371   8.009   1.638  15.438 -0.1635  0.0318  0.2786
  203DOPE   PO4 2372   7.897   1.551  15.711  0.0203  0.0880  0.0479
  203DOPE   GL1 2373   7.644   1.441  15.288 -0.2434  0.0445 -0.1562
  203DOPE   GL2 2374   7.537   1.144  15.452 -0.3018 -0.0348  0.1625
  203DOPE   C1A 2375   7.649   1.059  14.959  0.2423 -0.0764  0.1441
  203DOPE   D2A 2376   7.505   1.110  14.545 -0.3478 -0.1156  0.0354
  203DOPE   C3A 2377   7.663   1.183  14.112  0.0607  0.7021  0.2946
  203DOPE   C4A 2378   7.792   1.474  13.797 -0.1297 -0.2056  0.0692
  203DOPE   C1B 2379   7.233   1.272  15.126  0.0588 -0.0630 -0.0438
  203DOPE   D2B 2380   7.212   1.465  14.712 -0.2446  0.1267 -0.2126
  203DOPE   C3B 2381   6.957   1.820  14.614  0.1857  0.0044 -0.0600
  203DOPE   C4B 2382   6.838   1.956  14.144 -0.1557 -0.0243 -0.1336
  204DOPS   CNO 2383   9.931   4.948  16.555 -0.2815  0.2450  0.4697
  204DOPS   PO4 2384   9.871   4.789  16.199  0.0061  0.0972 -0.1892
  204DOPS   GL1 2385   9.762   4.667  15.784  0.0569 -0.4299 -0.0186
  204DOPS   GL2 2386   9.682   4.401  15.658 -0.1243  0.0044  0.0831
  204DOPS   C1A 2387   9.618   4.797  15.366  0.0098 -0.1294  0.1144
  204DOPS   D2A 2388   9.727   4.816  14.922 -0.1668  0.0054  0.0005
  204DOPS   C3A 2389   9.988   5.053  14.617  0.0848  0.1868 -0.1766
  204DOPS   C4A 2390   9.845   5.312  14.262 -0.1367 -0.1674 -0.1757
  204DOPS   C1B 2391   9.461   4.296  15.251 -0.1507 -0.1712  0.3271
  204DOPS   D2B 2392   9.586   4.260  14.843  0.0323 -0.0008 -0.2913
  204DOPS   C3B 2393   9.333   4.247  14.455  0.3060  0.1560 -0.2512
  204DOPS   C4B 2394   9.260   3.947  14.066 -0.1818 -0.0329  0.1146
  205DOPE   NH3 2395  10.691   2.049  12.314  0.1312 -0.3155  0.0216
  205DOPE   PO4 2396  10.833   1.934  12.024  0.2908 -0.1213 -0.0156
  205DOPE   GL1 2397  11.158   1.604  12.165 -0.0423 -0.3694  0.0817
  205DOPE   GL2 2398  11.352   1.464  11.960  0.3718 -0.1724  0.0821
  205DOPE   C1A 2399  11.105   1.380  12.536 -0.1245  0.2385 -0.0174
  205DOPE   D2A 2400  10.804   1.050  12.685 -0.4709 -0.0711 -0.4648
  205DOPE   C3A 2401  10.798   1.290  13.097  0.1992 -0.3276 -0.1803
  205DOPE   C4A 2402  10.795   1.610  13.407 -0.0279 -0.0546 -0.0791
  205DOPE   C1B 2403  11.773   1.372  11.771  0.4506  0.2252 -0.0140
  205DOPE   D2B 2404  12.056   1.719  11.649 -0.2254  0.1032  0.2447
  205DOPE   C3B 2405  12.449   1.937  11.673  0.1773 -0.4291  0.0287
  205DOPE   C4B 2406  12.911   2.003  11.823  0.0492 -0.2055  0.1410
  206DOPS   CNO 2407   1.270   3.425  12.388 -0.2611 -0.1427 -0.1975
  206DOPS   PO4 2408   1.102   3.753  12.568  0.1280  0.0987  0.3460
  206DOPS   GL1 2409   1.459   3.587  12.771 -0.0087  0.5241  0.0337
  206DOPS   GL2 2410   1.247   3.435  12.950  0.1086 -0.0346  0.0706
  206DOPS   C1A 2411   1.616   3.684  13.183  0.0561  0.1340  0.0813
  206DOPS   D2A 2412   1.942   3.579  13.506  0.2339  0.2568 -0.0099
  206DOPS   C3A 2413   1.858   3.295  13.833 -0.0004 -0.0834  0.1453
  206DOPS   C4A 2414   1.910   2.797  13.787  0.0730  0.1535  0.1547
  206DOPS   C1B 2415   0.981   3.567  13.309  0.2575 -0.1266  0.0364
  206DOPS   D2B 2416   1.018   3.795  13.695  0.1755  0.1061  0.2113
  206DOPS   C3B 2417   1.266   3.993  13.987  0.0044 -0.3293  0.0468
  206DOPS   C4B 2418   1.671   4.138  14.219 -0.3202  0.1362 -0.0285
  207DOPE   NH3 2419   8.711   0.706  12.151 -0.1859  0.0457 -0.1979
  207DOPE   PO4 2420   8.594   0.596  12.442 -0.0433 -0.0711  0.3192
  207DOPE   GL1 2421   8.442   0.994  12.408 -0.1239 -0.0617 -0.1084
  207DOPE   GL2 2422   8.708   1.199  12.465  0.1591 -0.1931  0.1738
  207DOPE   C1A 2423   8.051   1.177  12.284  0.0324 -0.2535  0.0062
  207DOPE   D2A 2424   7.860   1.523  12.572 -0.0127  0.0898  0.2146
  207DOPE   C3A 2425   7.914   1.966  12.669 -0.0231  0.1965  0.0192
  207DOPE   C4A 2426   8.229   2.305  12.530 -0.0406 -0.0728  0.4196
  207DOPE   C1B 2427   8.723   1.582  12.184 -0.1502  0.2305  0.0970
  207DOPE   D2B 2428   8.769   2.079  12.223 -0.1505 -0.2690 -0.4178
  207DOPE   C3B 2429   8.793   2.212  12.661  0.2362 -0.1634  0.2732
  207DOPE   C4B 2430   8.967   2.570  12.853  0.0275  0.2020 -0.1743
  208DOPE   NH3 2431  10.329   2.239  11.733 -0.1093  0.1949  0.0810
  208DOPE   PO4 2432  10.567   2.376  11.920  0.1069  0.3243  0.2787
  208DOPE   GL1 2433  10.270   2.135  12.169 -0.1560 -0.0129 -0.3356
  208DOPE   GL2 2434  10.202   1.844  12.088  0.0129  0.2723  0.0758
  208DOPE   C1A 2435   9.812   2.171  11.993 -0.1481 -0.0120 -0.4369
  208DOPE   D2A 2436   9.420   1.905  12.071  0.1546 -0.1057  0.1086
  208DOPE   C3A 2437   9.300   1.632  12.442 -0.0373  0.0898 -0.0660
  208DOPE   C4A 2438   9.492   1.684  12.848  0.1279 -0.1126 -0.0762
  208DOPE   C1B 2439  10.269   1.854  12.545 -0.2968 -0.1714 -0.0657
  208DOPE   D2B 2440  10.075   1.890  12.938  0.2248 -0.0822 -0.0550
  208DOPE   C3B 2441   9.715   2.162  13.013  0.1874 -0.1099  0.2181
  208DOPE   C4B 2442   9.461   2.480  12.844  0.1152  0.2541  0.0252
  209DOPC   NC3 2443  10.480   2.719  12.775  0.2556 -0.0151  0.1977
  209DOPC   PO4 2444  10.401   2.559  12.436 -0.4367 -0.1959  0.0764
  209DOPC   GL1 2445  10.111   2.249  12.593 -0.0195 -0.0549 -0.1726
  209DOPC   GL2 2446   9.915   2.521  12.622 -0.0698  0.1377  0.3261
  209DOPC   C1A 2447   9.777   1.957  12.500  0.1036  0.1922  0.0527
  209DOPC   D2A 2448   9.767   1.575  12.259 -0.1098  0.0629  0.0328
  209DOPC   C3A 2449  10.149   1.348  12.238  0.0343  0.0072  0.0761
  209DOPC   C4A 2450  10.308   0.913  12.428 -0.2336 -0.1035  0.1083
  209DOPC   C1B 2451  10.007   2.576  13.057  0.2003 -0.2562  0.1369
  209DOPC   D2B 2452   9.980   2.685  13.511  0.0437  0.2575 -0.0273
  209DOPC   C3B 2453   9.745   2.309  13.726 -0.1005  0.1520 -0.1981
  209DOPC   C4B 2454   9.743   1.899  13.875 -0.1103 -0.0746  0.1445
  210DOPC   NC3 2455   1.524   7.137  12.805  0.1720 -0.1048 -0.3965
  210DOPC   PO4 2456   1.698   7.191  12.467 -0.0115  0.0467 -0.0929
  210DOPC   GL1 2457   1.886   7.488  12.710 -0.0542  0.0665 -0.2959
  210DOPC   GL2 2458   1.800   7.542  13.041  0.1473 -0.2686  0.0560
  210DOPC   C1A 2459   2.299   7.739  12.938 -0.0875  0.2670 -0.0921
  210DOPC   D2A 2460   2.694   7.986  12.996 -0.1336  0.1228  0.1189
  210DOPC   C3A 2461   2.576   8.028  13.423  0.0625  0.2047  0.2789
  210DOPC   C4A 2462   2.824   8.131  13.860  0.3252 -0.2057 -0.0000
  210DOPC   C1B 2463   1.826   7.968  13.226 -0.1085 -0.0200  0.0364
  210DOPC   D2B 2464   2.091   8.215  13.496  0.0924 -0.0525 -0.1713
  210DOPC   C3B 2465   2.336   8.129  13.848 -0.1388 -0.2082  0.0334
  210DOPC   C4B 2466   2.350   8.009  14.296 -0.0805 -0.0648 -0.3187
  211DOPE   NH3 2467   0.364   7.394  12.488 -0.1441 -0.1525 -0.0074
  211DOPE   PO4 2468   0.546   7.459  12.221  0.0356 -0.3512  0.1487
  211DOPE   GL1 2469   0.553   7.932  12.335  0.3943  0.2420  0.1614
  211DOPE   GL2 2470   0.667   8.214  12.438  0.1160  0.3979  0.3127
  211DOPE   C1A 2471   0.152   8.233  12.293 -0.2679 -0.1463 -0.0918
  211DOPE   D2A 2472  -0.170   8.211  12.597 -0.0068 -0.2358  0.2213
  211DOPE   C3A 2473  -0.281   8.602  12.748 -0.1554  0.2203 -0.2829
  211DOPE   C4A 2474  -0.449   8.731  13.126 -0.1187  0.2310  0.2458
  211DOPE   C1B 2475   0.328   8.291  12.822 -0.4080  0.0553 -0.3234
  211DOPE   D2B 2476  -0.007   8.445  13.121  0.0964  0.0599  0.2948
  211DOPE   C3B 2477  -0.095   8.343  13.574  0.0877 -0.1269 -0.5332
  211DOPE   C4B 2478  -0.106   8.097  13.975 -0.3485  0.0132 -0.0111
  212DOPE   NH3 2479  11.135   9.859  12.153  0.3524 -0.1694 -0.0110
  212DOPE   PO4 2480  11.349   9.659  12.170 -0.1241  0.0427 -0.0190
  212DOPE   GL1 2481  11.201   9.489  12.413 -0.0922 -0.0328  0.6039
  212DOPE   GL2 2482  11.163   9.721  12.665 -0.0446  0.1205  0.3007
  212DOPE   C1A 2483  11.322   9.271  12.844 -0.0313 -0.3456  0.1202
  212DOPE   D2A 2484  11.301   9.070  13.274 -0.3544 -0.1988 -0.0125
  212DOPE   C3A 2485  11.588   9.215  13.624  0.0415 -0.3008  0.2098
  212DOPE   C4A 2486  11.783   9.319  14.025  0.1309 -0.0041  0.4071
  212DOPE   C1B 2487  11.129   9.652  13.099 -0.1744  0.0287  0.0928
  212DOPE   D2B 2488  11.132   9.484  13.513  0.2739 -0.0658 -0.1897
  212DOPE   C3B 2489  11.057   9.135  13.753  0.0635  0.1225 -0.1917
  212DOPE   C4B 2490  11.269   8.645  13.597 -0.1517  0.5775 -0.4588
  213DOPE   NH3 2491   7.136   6.091  12.529 -0.2466 -0.0873 -0.0351
  213DOPE   PO4 2492   7.176   6.123  12.191 -0.0273 -0.0702 -0.0162
  213DOPE   GL1 2493   7.051   5.665  12.205  0.3120  0.1235  0.1160
  213DOPE   GL2 2494   7.261   5.578  12.498 -0.1323  0.0462  0.2901
  213DOPE   C1A 2495   6.721   5.475  12.467 -0.3622  0.0677  0.2300
  213DOPE   D2A 2496   6.571   5.470  12.913 -0.1163  0.0708  0.1678
  213DOPE   C3A 2497   6.539   5.767  13.262  0.0008  0.3459  0.1581
  213DOPE   C4A 2498   6.480   5.672  13.746  0.0478 -0.0508  0.1208
  213DOPE   C1B 2499   7.150   5.207  12.682  0.1251 -0.1373 -0.2052
  213DOPE   D2B 2500   7.092   4.763  12.723  0.0624  0.1736 -0.0353
  213DOPE   C3B 2501   7.163   4.508  13.079  0.1853 -0.0049 -0.2530
  213DOPE   C4B 2502   7.285   4.492  13.464  0.0809 -0.3000  0.1605
  214POSM   NC3 2503   0.986   7.778  12.316 -0.1547  0.0816  0.2325
  214POSM   PO4 2504   1.042   7.991  12.655  0.0197 -0.0840 -0.0706
  214POSM   AM1 2505   1.254   8.110  12.879  0.0848 -0.1258 -0.2251
  214POSM   AM2 2506   1.335   8.069  13.158 -0.0972  0.0667 -0.0234
  214POSM   T1A 2507   1.706   8.418  12.962  0.1074  0.0349 -0.1296
  214POSM   C2A 2508   2.050   8.720  13.075  0.2370  0.1060  0.2727
  214POSM   C3A 2509   2.137   9.187  12.978 -0.1010  0.1387  0.1253
  214POSM   C1B 2510   1.470   8.227  13.449 -0.0640  0.0787 -0.1936
  214POSM   D2B 2511   1.719   8.603  13.597 -0.1206  0.2564 -0.5193
  214POSM   C3B 2512   1.606   8.757  14.050 -0.0410 -0.2052  0.2894
  214POSM   C4B 2513   1.907   9.109  14.272 -0.1378 -0.1015  0.0597
  215DOPE   NH3 2514   4.355   7.819  12.834  0.3785  0.1071  0.0037
  215DOPE   PO4 2515   4.048   7.928  12.932 -0.4666  0.0933  0.1477
  215DOPE   GL1 2516   4.195   7.819  13.266  0.2782 -0.1496 -0.0969
  215DOPE   GL2 2517   3.981   7.713  13.378 -0.0078  0.0799  0.0219
  215DOPE   C1A 2518   4.218   7.975  13.722  0.1469  0.0657 -0.1919
  215DOPE   D2A 2519   4.321   8.206  14.099 -0.1520 -0.3565 -0.0110
  215DOPE   C3A 2520   4.836   8.344  14.200 -0.0981  0.2468 -0.2014
  215DOPE   C4A 2521   5.244   8.323  14.430 -0.4075 -0.0338  0.1888
  215DOPE   C1B 2522   3.834   7.584  13.800 -0.0926  0.0768  0.2672
  215DOPE   D2B 2523   4.020   7.800  14.181  0.2280 -0.0610  0.0645
  215DOPE   C3B 2524   3.856   7.992  14.583 -0.0383  0.0532  0.2005
  215DOPE   C4B 2525   3.559   8.358  14.734  0.3642  0.1304 -0.0586
  216POSM   NC3 2526   7.735   6.405  13.078  0.0301  0.0060 -0.0014
  216POSM   PO4 2527   7.421   6.317  12.831  0.0790  0.2789  0.2309
  216POSM   AM1 2528   7.427   6.622  12.805 -0.1861 -0.3242  0.0758
  216POSM   AM2 2529   7.505   6.842  13.007  0.3959  0.0163  0.2306
  216POSM   T1A 2530   7.188   7.108  12.787 -0.1971  0.1361  0.1848
  216POSM   C2A 2531   7.167   7.562  12.620  0.0451 -0.2775  0.1054
  216POSM   C3A 2532   6.896   7.960  12.794  0.0583 -0.1269  0.0309
  216POSM   C1B 2533   7.325   6.954  13.278  0.1118  0.1053 -0.1658
  216POSM   D2B 2534   7.286   7.252  13.602 -0.0387  0.1707  0.0736
  216POSM   C3B 2535   7.274   7.710  13.773  0.1977 -0.2313 -0.2506
  216POSM   C4B 2536   7.260   8.210  13.884 -0.0374 -0.0381 -0.1982
  217POSM   NC3 2537   0.282   0.598  12.676 -0.1859  0.1207 -0.2256
  217POSM   PO4 2538   0.360   0.198  12.600 -0.2790  0.0975 -0.3501
  217POSM   AM1 2539   0.498   0.263  12.913 -0.3304 -0.2312  0.2224
  217POSM   AM2 2540   0.646   0.163  13.148 -0.0294 -0.2429  0.0594
  217POSM   T1A 2541   0.440   0.641  13.266 -0.1916  0.1352  0.3364
  217POSM   C2A 2542   0.585   0.949  13.660  0.2009 -0.0104  0.1291
  217POSM   C3A 2543   0.520   1.065  14.173 -0.2375  0.2517  0.5227
  217POSM   C1B 2544   0.643   0.208  13.521  0.2037 -0.0714 -0.0177
  217POSM   D2B 2545   0.703   0.215  13.926 -0.1130  0.3477  0.0575
  217POSM   C3B 2546   0.536   0.577  14.134 -0.1652 -0.1710 -0.2033
  217POSM   C4B 2547   0.345   0.762  14.505 -0.0532  0.0126 -0.3524
  218DOPC   NC3 2548  11.008   9.467  11.786  0.1635 -0.2310  0.1900
  218DOPC   PO4 2549  10.788   9.487  12.135  0.0765 -0.0167  0.2190
  218DOPC   GL1 2550  10.756   9.673  12.467 -0.2171  0.2506 -0.4066
  218DOPC   GL2 2551  10.448   9.539  12.538 -0.1813  0.2611 -0.3327
  218DOPC   C1A 2552  10.712   9.801  12.909  0.1843 -0.2495  0.0532
  218DOPC   D2A 2553  10.589  10.242  12.994  0.0689  0.4155 -0.0118
  218DOPC   C3A 2554  10.427  10.082  13.379  0.2036 -0.0537 -0.2291
  218DOPC   C4A 2555  10.552  10.189  13.787  0.1459 -0.0152 -0.0898
  218DOPC   C1B 2556  10.158   9.246  12.387  0.2509 -0.3057 -0.1454
  218DOPC   D2B 2557   9.856   9.189  11.994 -0.0744 -0.1903 -0.0728
  218DOPC   C3B 2558   9.461   9.354  11.845 -0.1296  0.0714  0.1631
  218DOPC   C4B 2559   9.334   9.792  11.806  0.1195 -0.0078  0.4319
  219DOPC   NC3 2560   7.462   9.806  12.672  0.1303  0.4074  0.1293
  219DOPC   PO4 2561   7.649   9.879  12.318  0.2388  0.1469 -0.4843
  219DOPC   GL1 2562   7.882   9.580  12.542 -0.3876  0.0692 -0.0909
  219DOPC   GL2 2563   8.126   9.702  12.403 -0.0784 -0.1035 -0.0488
  219DOPC   C1A 2564   7.973   9.229  12.310 -0.0803  0.1599 -0.3848
  219DOPC   D2A 2565   8.245   8.871  12.364 -0.1553  0.2948  0.3652
  219DOPC   C3A 2566   8.341   8.842  12.787  0.0808 -0.3941  0.0546
  219DOPC   C4A 2567   8.425   8.837  13.280  0.3413  0.0205 -0.0683
  219DOPC   C1B 2568   8.227   9.404  12.773  0.0592  0.2089 -0.0497
  219DOPC   D2B 2569   8.136   9.164  13.186  0.0840  0.0340 -0.0340
  219DOPC   C3B 2570   7.876   8.863  13.380  0.0007 -0.2007  0.1069
  219DOPC   C4B 2571   7.439   8.716  13.205  0.1538  0.1511 -0.2736
  220DOPC   NC3 2572   3.492   5.244  12.578 -0.0771 -0.1125 -0.2844
  220DOPC   PO4 2573   3.331   4.882  12.646  0.0942  0.6518  0.1345
  220DOPC   GL1 2574   3.489   4.823  12.949 -0.3011 -0.1191 -0.3554
  220DOPC   GL2 2575   3.750   4.580  12.874 -0.0591 -0.0668  0.3840
  220DOPC   C1A 2576   3.508   4.461  13.258 -0.3834  0.1546  0.0317
  220DOPC   D2A 2577   3.375   4.187  13.661  0.0537 -0.2470 -0.2096
  220DOPC   C3A 2578   3.574   4.301  14.056 -0.0970 -0.0403  0.4580
  220DOPC   C4A 2579   3.885   4.549  14.331  0.1551 -0.1773  0.2386
  220DOPC   C1B 2580   4.090   4.451  13.183 -0.0356  0.0607  0.0441
  220DOPC   D2B 2581   4.379   4.546  13.468  0.0042  0.3001  0.0957
  220DOPC   C3B 2582   4.250   4.906  13.737 -0.1309  0.2755  0.1272
  220DOPC   C4B 2583   3.877   5.075  13.904  0.3508  0.3257  0.0930
  221DOPE   NH3 2584   7.175   0.259  12.834 -0.1086  0.1014 -0.2942
  221DOPE   PO4 2585   6.998   0.530  12.902  0.0458  0.4997 -0.0119
  221DOPE   GL1 2586   6.670   0.497  13.186  0.0116 -0.1902  0.2259
  221DOPE   GL2 2587   6.681   0.802  13.148  0.2631  0.1915  0.3442
  221DOPE   C1A 2588   6.599   0.266  13.555 -0.0172 -0.1980  0.1486
  221DOPE   D2A 2589   6.339  -0.042  13.826  0.3072  0.2769 -0.0275
  221DOPE   C3A 2590   6.435  -0.523  13.830 -0.2490 -0.1157  0.2608
  221DOPE   C4A 2591   6.402  -0.924  14.075 -0.1143 -0.1418  0.2722
  221DOPE   C1B 2592   7.020   1.096  13.327 -0.2208  0.2614  0.0449
  221DOPE   D2B 2593   7.103   1.592  13.326 -0.0974 -0.0953 -0.0378
  221DOPE   C3B 2594   6.690   1.570  13.359 -0.1853 -0.2691 -0.0952
  221DOPE   C4B 2595   6.382   1.245  13.344 -0.1201 -0.0209  0.1105
  222POSM   NC3 2596   6.296  34.590  12.660  0.0753  0.1831 -0.2205
  222POSM   PO4 2597   6.093  34.816  12.864  0.0047  0.0251  0.0644
  222POSM   AM1 2598   5.999  34.524  13.049  0.2908 -0.1293  0.0236
  222POSM   AM2 2599   6.118  34.394  13.273  0.2225 -0.0744 -0.2661
  222POSM   T1A 2600   5.577  34.220  13.180  0.1392 -0.1574 -0.2024
  222POSM   C2A 2601   5.139  34.206  13.217  0.2229  0.0989 -0.1818
  222POSM   C3A 2602   4.701  34.331  13.137 -0.1773  0.1099  0.1748
  222POSM   C1B 2603   6.417  34.516  13.330  0.1508  0.0748  0.1541
  222POSM   D2B 2604   6.748  34.487  13.659 -0.0552  0.4774 -0.2986
  222POSM   C3B 2605   7.130  34.205  13.628 -0.0382  0.0031 -0.0496
  222POSM   C4B 2606   7.533  34.091  13.454 -0.1780  0.0022  0.3684
  223DOPE   NH3 2607   1.458   8.973  12.219  0.0317  0.2528 -0.1494
  223DOPE   PO4 2608   1.161   8.839  12.300 -0.1056  0.1685  0.3380
  223DOPE   GL1 2609   0.979   8.778  12.670  0.3154  0.2823 -0.0419
  223DOPE   GL2 2610   1.052   8.527  12.791 -0.3299  0.0950  0.1062
  223DOPE   C1A 2611   0.748   8.848  13.100 -0.0198  0.3040 -0.1889
  223DOPE   D2A 2612   0.660   8.914  13.557 -0.1794  0.0387  0.3508
  223DOPE   C3A 2613   0.907   9.139  13.891 -0.6834 -0.0454 -0.2054
  223DOPE   C4A 2614   0.808   9.211  14.349 -0.1665 -0.0288  0.0347
  223DOPE   C1B 2615   0.935   8.407  13.198  0.0932 -0.0859  0.2637
  223DOPE   D2B 2616   0.977   8.177  13.606  0.0786  0.1514 -0.1310
  223DOPE   C3B 2617   0.694   8.491  13.875  0.0620 -0.0733  0.3451
  223DOPE   C4B 2618   0.578   8.847  14.107 -0.0233  0.0600 -0.1198
  224DOPC   NC3 2619   9.537   0.256  12.316 -0.0094 -0.3291 -0.2762
  224DOPC   PO4 2620   9.275  -0.023  12.442  0.1673 -0.4370  0.1066
  224DOPC   GL1 2621   9.356   0.102  12.771  0.1099 -0.0836  0.0572
  224DOPC   GL2 2622   9.467   0.421  12.828  0.2719  0.0574 -0.0168
  224DOPC   C1A 2623   9.531  -0.169  13.105  0.1595  0.0866 -0.3368
  224DOPC   D2A 2624   9.437  -0.453  13.456 -0.0432  0.2637  0.0866
  224DOPC   C3A 2625   9.085  -0.434  13.745 -0.2328 -0.1314  0.0236
  224DOPC   C4A 2626   9.148  -0.575  14.191  0.2033 -0.0523 -0.2511
  224DOPC   C1B 2627   9.588   0.831  12.919 -0.3493  0.0053 -0.0340
  224DOPC   D2B 2628   9.847   0.953  13.336 -0.0833 -0.2908  0.0919
  224DOPC   C3B 2629   9.515   0.961  13.682 -0.0857  0.3487  0.0093
  224DOPC   C4B 2630   9.332   1.057  14.120 -0.3176 -0.0926  0.0551
  225POSM   NC3 2631   8.032   0.019  12.741  0.0818  0.0652 -0.3560
  225POSM   PO4 2632   7.651   0.176  12.640 -0.0797 -0.0221  0.3119
  225POSM   AM1 2633   7.678   0.326  12.908 -0.1666 -0.0470  0.0876
  225POSM   AM2 2634   7.545   0.368  13.212  0.1264  0.0913 -0.1065
  225POSM   T1A 2635   7.990   0.210  13.276 -0.1829  0.1288  0.0795
  225POSM   C2A 2636   8.452   0.219  13.438 -0.2366  0.0068 -0.0792
  225POSM   C3A 2637   8.882   0.286  13.597 -0.1981  0.0901 -0.2731
  225POSM   C1B 2638   7.721   0.576  13.458 -0.2903  0.1266  0.5320
  225POSM   D2B 2639   7.902   0.889  13.776  0.0142 -0.1365  0.0018
  225POSM   C3B 2640   8.152   0.838  14.151 -0.2799 -0.4627  0.0554
  225POSM   C4B 2641   8.559   0.998  14.319  0.1777 -0.0739 -0.4746
  226DOPE   NH3 2642   8.848   5.754  12.340 -0.1606  0.2361 -0.1109
  226DOPE   PO4 2643   8.596   5.971  12.408 -0.0105 -0.0374 -0.0803
  226DOPE   GL1 2644   8.565   5.986  12.855  0.0752  0.3737  0.0248
  226DOPE   GL2 2645   8.407   5.752  12.842  0.2944 -0.2853 -0.0638
  226DOPE   C1A 2646   8.289   6.067  13.236 -0.1767  0.0049  0.0679
  226DOPE   D2A 2647   8.038   6.332  13.554  0.0025  0.0172  0.1419
  226DOPE   C3A 2648   8.156   6.237  14.022  0.1360 -0.1888  0.3052
  226DOPE   C4A 2649   8.238   6.091  14.394  0.1825 -0.1217 -0.1988
  226DOPE   C1B 2650   8.545   5.621  13.275  0.1806  0.2213 -0.1515
  226DOPE   D2B 2651   8.595   5.467  13.678 -0.0916  0.0172 -0.2096
  226DOPE   C3B 2652   8.363   5.500  13.973  0.1872 -0.2619 -0.1588
  226DOPE   C4B 2653   8.013   5.770  14.076 -0.0509  0.5213  0.0577
  227DOPE   NH3 2654  34.079   3.157  12.541  0.2784  0.0165 -0.2784
  227DOPE   PO4 2655  34.220   3.273  12.782  0.1060 -0.1633  0.1328
  227DOPE   GL1 2656  34.403   3.376  13.168 -0.0923 -0.0888 -0.0483
  227DOPE   GL2 2657  34.552   3.575  13.212 -0.0884  0.0491 -0.0702
  227DOPE   C1A 2658  34.212   3.654  13.560 -0.1487  0.1718 -0.1025
  227DOPE   D2A 2659  34.390   3.992  13.888 -0.3618  0.0038  0.6149
  227DOPE   C3A 2660  34.350   4.448  13.689  0.1182 -0.2087  0.0752
  227DOPE   C4A 2661  34.331   4.886  13.758 -0.1420  0.1432  0.1871
  227DOPE   C1B 2662  34.544   4.045  13.328  0.1998 -0.4110  0.0333
  227DOPE   D2B 2663  34.779   4.449  13.222 -0.2429  0.0839  0.1837
  227DOPE   C3B 2664  34.609   4.499  12.799  0.0454 -0.1221 -0.3007
  227DOPE   C4B 2665  34.676   4.718  12.379  0.0480  0.1322 -0.0745
  228DOPC   NC3 2666   3.817   6.683  13.051  0.0402  0.1510  0.3510
  228DOPC   PO4 2667   3.703   7.020  12.851 -0.1335  0.0388 -0.4287
  228DOPC   GL1 2668   3.922   7.078  13.259 -0.0505 -0.1871 -0.1455
  228DOPC   GL2 2669   4.250   6.977  13.272  0.3381  0.1519 -0.2081
  228DOPC   C1A 2670   3.933   6.926  13.697  0.1731  0.1367 -0.1267
  228DOPC   D2A 2671   3.982   6.744  14.107 -0.1800 -0.2083 -0.3809
  228DOPC   C3A 2672   4.112   7.081  14.366  0.1694  0.3696  0.2358
  228DOPC   C4A 2673   4.037   7.447  14.601  0.0806  0.0464 -0.1983
  228DOPC   C1B 2674   4.408   6.998  13.718  0.2445  0.0810 -0.0960
  228DOPC   D2B 2675   4.510   7.024  14.135 -0.0533  0.2358 -0.0123
  228DOPC   C3B 2676   4.393   6.633  14.302  0.2125  0.0789 -0.1392
  228DOPC   C4B 2677   4.216   6.428  14.671  0.0924  0.0461  0.0149
  229DOPE   NH3 2678   1.598   7.890  12.727  0.3744 -0.1602  0.1532
  229DOPE   PO4 2679   1.407   7.633  12.658  0.0749  0.0528  0.1005
  229DOPE   GL1 2680   1.334   7.604  13.037 -0.1377 -0.0343  0.1894
  229DOPE   GL2 2681   1.143   7.396  13.047  0.1219 -0.0975  0.3476
  229DOPE   C1A 2682   1.543   7.648  13.470 -0.1210  0.1042 -0.1440
  229DOPE   D2A 2683   1.835   7.857  13.801 -0.4501 -0.0708 -0.0140
  229DOPE   C3A 2684   1.871   8.312  13.940 -0.2897  0.0113  0.0746
  229DOPE   C4A 2685   2.088   8.653  14.114 -0.2362 -0.2033  0.2023
  229DOPE   C1B 2686   1.375   7.052  13.294 -0.1846 -0.0295  0.0709
  229DOPE   D2B 2687   1.433   7.092  13.746  0.1029  0.0876  0.0640
  229DOPE   C3B 2688   1.276   7.351  14.038  0.0287  0.2339 -0.0471
  229DOPE   C4B 2689   1.002   7.396  14.411  0.0619 -0.1614 -0.1241
  230POSM   NC3 2690   8.720   5.061  12.378  0.0034  0.1780  0.0830
  230POSM   PO4 2691   8.487   5.343  12.579  0.0307  0.1315 -0.1045
  230POSM   AM1 2692   8.297   5.223  12.822 -0.1069 -0.0015 -0.1977
  230POSM   AM2 2693   8.039   5.135  12.860  0.1754 -0.1588  0.0265
  230POSM   T1A 2694   8.225   5.211  13.336 -0.0292 -0.1907 -0.3335
  230POSM   C2A 2695   8.031   5.177  13.743 -0.0940  0.0124 -0.4354
  230POSM   C3A 2696   7.734   5.013  14.089  0.3444 -0.3174  0.2854
  230POSM   C1B 2697   8.072   4.855  13.066  0.2465  0.0079  0.2456
  230POSM   D2B 2698   8.193   4.704  13.526  0.0050 -0.0211 -0.0533
  230POSM   C3B 2699   8.282   4.810  13.949 -0.1384  0.2643  0.2247
  230POSM   C4B 2700   8.610   5.049  14.232  0.2609  0.0320 -0.0283
  231DOPC   NC3 2701   9.328   7.253  12.154  0.0380  0.2172 -0.1505
  231DOPC   PO4 2702   9.101   7.206  12.455  0.1513 -0.0959  0.0533
  231DOPC   GL1 2703   9.002   7.494  12.605 -0.1240 -0.0368 -0.3003
  231DOPC   GL2 2704   8.691   7.559  12.424 -0.1635 -0.3506 -0.0129
  231DOPC   C1A 2705   8.948   7.880  12.926  0.0627  0.0588 -0.0656
  231DOPC   D2A 2706   8.931   8.070  13.297  0.0448 -0.1573  0.3609
  231DOPC   C3A 2707   9.041   7.664  13.528  0.3783 -0.1698  0.2211
  231DOPC   C4A 2708   8.799   7.348  13.704 -0.3448 -0.3198 -0.1701
  231DOPC   C1B 2709   8.490   7.995  12.245  0.4201 -0.2939 -0.0709
  231DOPC   D2B 2710   8.584   8.431  12.004  0.1833  0.2121  0.3625
  231DOPC   C3B 2711   8.240   8.683  11.908 -0.0084 -0.2582 -0.1418
  231DOPC   C4B 2712   7.846   8.554  11.646 -0.0209 -0.0313  0.1355
  232POSM   NC3 2713   7.341  10.863  12.431  0.0775  0.1030 -0.0637
  232POSM   PO4 2714   7.019  10.938  12.675 -0.2074  0.4596  0.0267
  232POSM   AM1 2715   7.201  10.738  12.888 -0.1584 -0.2060  0.3044
  232POSM   AM2 2716   7.494  10.720  12.885  0.4336 -0.0587 -0.1939
  232POSM   T1A 2717   7.359  10.483  13.301 -0.1924 -0.1202  0.0088
  232POSM   C2A 2718   7.104  10.427  13.669 -0.0179  0.3138  0.0305
  232POSM   C3A 2719   6.808  10.553  13.983 -0.0673 -0.2043 -0.3028
  232POSM   C1B 2720   7.624  10.882  13.098  0.0581 -0.1752  0.1804
  232POSM   D2B 2721   7.700  11.199  13.372 -0.0878  0.0197  0.0050
  232POSM   C3B 2722   7.956  11.405  13.628 -0.0325  0.3342 -0.0431
  232POSM   C4B 2723   7.969  11.564  14.063 -0.0810 -0.0963  0.2225
  233DOPE   NH3 2724   5.716   0.800  12.683  0.1788 -0.2113 -0.2600
  233DOPE   PO4 2725   5.712   0.545  12.852 -0.3656  0.2193  0.0964
  233DOPE   GL1 2726   5.752   0.318  13.121  0.1298  0.0840  0.1746
  233DOPE   GL2 2727   5.541   0.105  13.168 -0.0244 -0.0701 -0.3413
  233DOPE   C1A 2728   5.934   0.113  13.558  0.2856 -0.0001  0.0557
  233DOPE   D2A 2729   5.833  -0.302  13.808  0.0633 -0.0989  0.2225
  233DOPE   C3A 2730   5.624  -0.107  14.156 -0.1084  0.1497  0.1065
  233DOPE   C4A 2731   5.643  -0.069  14.605  0.0556  0.0632 -0.0701
  233DOPE   C1B 2732   5.396  -0.115  13.566  0.3331 -0.1159  0.0924
  233DOPE   D2B 2733   5.214  -0.558  13.761 -0.0589  0.2162  0.1280
  233DOPE   C3B 2734   5.436  -0.882  13.473  0.1021  0.1470  0.1223
  233DOPE   C4B 2735   5.585  -1.322  13.585 -0.0445 -0.2141  0.1659
  234DOPC   NC3 2736   9.249   3.859  12.383  0.2353  0.0038 -0.2551
  234DOPC   PO4 2737   9.223   3.473  12.396  0.1585  0.3750  0.0889
  234DOPC   GL1 2738   9.264   3.401  12.755  0.3287  0.4016  0.2970
  234DOPC   GL2 2739   8.982   3.498  12.890 -0.0763 -0.2110  0.3836
  234DOPC   C1A 2740   9.113   3.011  12.949  0.0865 -0.0695  0.3362
  234DOPC   D2A 2741   8.850   2.868  13.310 -0.0258  0.0215  0.1344
  234DOPC   C3A 2742   8.848   2.889  13.758  0.0518 -0.1079  0.3055
  234DOPC   C4A 2743   8.632   3.049  14.167  0.0793  0.1619  0.0555
  234DOPC   C1B 2744   8.994   3.800  13.232 -0.1145  0.0301 -0.1735
  234DOPC   D2B 2745   9.023   4.093  13.613  0.0652  0.1571 -0.0108
  234DOPC   C3B 2746   8.807   4.013  13.999 -0.1162  0.3995 -0.0207
  234DOPC   C4B 2747   8.964   3.897  14.425 -0.4060  0.1958 -0.3636
  235DOPE   NH3 2748  11.336   0.039  12.397 -0.3475  0.0540  0.0477
  235DOPE   PO4 2749  11.602  -0.131  12.254  0.0811 -0.0728 -0.0146
  235DOPE   GL1 2750  11.843   0.038  12.493  0.3049  0.4930 -0.1820
  235DOPE   GL2 2751  11.751  -0.026  12.759  0.1070  0.3613 -0.0968
  235DOPE   C1A 2752  11.658   0.408  12.710  0.2169 -0.3042  0.1160
  235DOPE   D2A 2753  11.592   0.835  12.841 -0.1921  0.2584  0.2621
  235DOPE   C3A 2754  11.274   1.174  12.988 -0.2168  0.1799  0.0941
  235DOPE   C4A 2755  11.314   1.430  13.339  0.1698 -0.1067  0.1826
  235DOPE   C1B 2756  11.654  -0.232  13.115  0.1077  0.0762  0.0137
  235DOPE   D2B 2757  11.806  -0.372  13.540 -0.1732  0.1093  0.1313
  235DOPE   C3B 2758  12.013  -0.059  13.796 -0.1934 -0.2194  0.1127
  235DOPE   C4B 2759  12.045   0.194  14.179  0.2729  0.3748 -0.2060
  236POSM   NC3 2760   1.574   4.123  12.251  0.0958  0.2014 -0.1240
  236POSM   PO4 2761   1.513   4.039  12.651 -0.5990  0.0147  0.0043
  236POSM   AM1 2762   1.351   4.080  12.938  0.4217  0.3197 -0.0515
  236POSM   AM2 2763   1.053   4.155  12.962  0.0250  0.2729 -0.0246
  236POSM   T1A 2764   1.337   4.094  13.430  0.2448  0.0484 -0.0280
  236POSM   C2A 2765   1.523   3.740  13.703  0.1559  0.0254  0.0042
  236POSM   C3A 2766   1.560   3.573  14.159 -0.1661  0.0995 -0.1463
  236POSM   C1B 2767   0.868   4.081  13.263  0.0926 -0.0510  0.3164
  236POSM   D2B 2768   0.861   4.259  13.670 -0.2346  0.0047 -0.2961
  236POSM   C3B 2769   1.255   4.454  13.815  0.2707  0.0992  0.1334
  236POSM   C4B 2770   1.686   4.633  13.967  0.4058  0.1255 -0.3449
  237DOPC   NC3 2771   6.434   7.155  12.968  0.1493  0.1198 -0.0480
  237DOPC   PO4 2772   6.210   7.192  12.641  0.2413  0.0490 -0.0312
  237DOPC   GL1 2773   5.950   7.155  12.994  0.3102 -0.1168 -0.1886
  237DOPC   GL2 2774   6.078   6.926  13.140  0.1549  0.0328 -0.1403
  237DOPC   C1A 2775   5.812   7.206  13.477 -0.1969  0.1483  0.1784
  237DOPC   D2A 2776   5.632   7.593  13.683 -0.0923  0.1844  0.1577
  237DOPC   C3A 2777   5.697   7.646  14.138 -0.0349 -0.0637  0.2653
  237DOPC   C4A 2778   5.864   7.515  14.582 -0.1331 -0.1565  0.1458
  237DOPC   C1B 2779   6.423   7.047  13.441 -0.4833  0.3577 -0.2425
  237DOPC   D2B 2780   6.758   7.358  13.633  0.1320 -0.0643 -0.2503
  237DOPC   C3B 2781   6.888   7.500  14.064  0.3201 -0.2821  0.1218
  237DOPC   C4B 2782   7.015   7.395  14.503  0.0680 -0.2171  0.3046
  238POSM   NC3 2783   7.367   3.354  12.721 -0.0338 -0.1464 -0.1135
  238POSM   PO4 2784   7.304   3.060  12.518  0.3600  0.1032 -0.0049
  238POSM   AM1 2785   7.502   2.855  12.464  0.2783  0.0685 -0.0395
  238POSM   AM2 2786   7.651   2.621  12.634 -0.0410 -0.0818 -0.0555
  238POSM   T1A 2787   7.641   2.469  12.186 -0.0869  0.1026 -0.0746
  238POSM   C2A 2788   7.861   2.068  12.016  0.1061 -0.3184  0.0785
  238POSM   C3A 2789   8.178   1.800  12.239  0.1896 -0.1932 -0.0027
  238POSM   C1B 2790   7.810   2.428  12.878 -0.0473  0.3263 -0.1502
  238POSM   D2B 2791   7.818   2.085  13.251 -0.0924 -0.0161  0.0517
  238POSM   C3B 2792   7.596   1.718  13.032  0.2215  0.1666  0.0018
  238POSM   C4B 2793   7.281   1.367  12.853 -0.0962 -0.0802  0.0551
  239POSM   NC3 2794   1.784   6.705  12.424  0.3297  0.4453 -0.2325
  239POSM   PO4 2795   1.379   6.774  12.458 -0.0815 -0.1634 -0.0834
  239POSM   AM1 2796   1.157   6.739  12.727 -0.3872  0.1103 -0.2103
  239POSM   AM2 2797   0.995   6.937  12.880 -0.1517 -0.0484 -0.1276
  239POSM   T1A 2798   0.779   6.570  13.050  0.2252 -0.1679  0.0668
  239POSM   C2A 2799   0.341   6.404  13.189 -0.0796  0.1655  0.0676
  239POSM   C3A 2800  -0.074   6.547  13.357  0.1632  0.2949 -0.1989
  239POSM   C1B 2801   0.900   6.988  13.183  0.1740 -0.1902 -0.0080
  239POSM   D2B 2802   0.887   7.112  13.628 -0.1612 -0.3208  0.2924
  239POSM   C3B 2803   0.664   7.223  14.010 -0.1271 -0.2538 -0.1609
  239POSM   C4B 2804   0.600   7.078  14.426  0.0851  0.3336 -0.0824
  240DOPC   NC3 2805   5.239   2.625  13.071  0.1971 -0.0027 -0.0225
  240DOPC   PO4 2806   5.137   2.305  12.873 -0.1197  0.0710  0.2405
  240DOPC   GL1 2807   4.817   2.362  13.289  0.0161  0.3865  0.4239
  240DOPC   GL2 2808   4.704   2.656  13.207  0.2980 -0.0422  0.3682
  240DOPC   C1A 2809   4.593   2.219  13.685 -0.0590  0.0881  0.0117
  240DOPC   D2A 2810   4.234   2.350  13.969  0.0198 -0.1027  0.2290
  240DOPC   C3A 2811   4.309   2.648  14.248  0.0711 -0.0627 -0.0248
  240DOPC   C4A 2812   4.298   2.850  14.642 -0.4444 -0.1683  0.0316
  240DOPC   C1B 2813   4.559   2.732  13.638 -0.0371  0.0982  0.1759
  240DOPC   D2B 2814   4.809   2.617  14.020 -0.2472 -0.1468 -0.0405
  240DOPC   C3B 2815   4.771   2.223  14.278  0.0401  0.1010  0.2207
  240DOPC   C4B 2816   4.763   2.053  14.684 -0.0749  0.0897 -0.0905
  241DOPE   NH3 2817   2.194   1.475  12.348 -0.3199 -0.0370  0.2383
  241DOPE   PO4 2818   2.143   1.803  12.407 -0.1249 -0.1794  0.0933
  241DOPE   GL1 2819   2.435   2.117  12.590 -0.0391  0.3991 -0.4443
  241DOPE   GL2 2820   2.497   2.123  12.313  0.0077  0.0701 -0.2209
  241DOPE   C1A 2821   2.527   2.340  12.951  0.2157 -0.0858 -0.1967
  241DOPE   D2A 2822   2.675   2.458  13.389 -0.0147 -0.2238 -0.0370
  241DOPE   C3A 2823   2.917   2.077  13.441 -0.1135  0.2991  0.2862
  241DOPE   C4A 2824   3.282   1.904  13.213 -0.2915  0.2550  0.2602
  241DOPE   C1B 2825   2.891   2.010  12.519  0.0734  0.0534  0.0133
  241DOPE   D2B 2826   3.028   2.263  12.837 -0.0736 -0.1246  0.0575
  241DOPE   C3B 2827   3.215   2.384  13.228 -0.2071  0.0063  0.0186
  241DOPE   C4B 2828   3.550   2.336  13.520 -0.1327  0.0833  0.2144
  242POSM   NC3 2829   3.687  11.154  12.351 -0.1912 -0.2316 -0.1003
  242POSM   PO4 2830   3.557  11.281  12.703  0.0031 -0.0599  0.1063
  242POSM   AM1 2831   3.506  11.444  13.026 -0.0898  0.0712  0.1301
  242POSM   AM2 2832   3.268  11.470  13.170 -0.1675 -0.0782 -0.2196
  242POSM   T1A 2833   3.675  11.633  13.482  0.0372 -0.1206 -0.0844
  242POSM   C2A 2834   3.912  11.936  13.754 -0.0316 -0.0739  0.3336
  242POSM   C3A 2835   4.014  12.143  14.110 -0.1122  0.2794  0.2861
  242POSM   C1B 2836   3.131  11.349  13.436 -0.1557 -0.2254  0.1479
  242POSM   D2B 2837   2.886  11.398  13.815  0.1870  0.1441 -0.1588
  242POSM   C3B 2838   2.510  11.244  14.054 -0.1159  0.0240 -0.1503
  242POSM   C4B 2839   2.123  10.955  14.085 -0.0103  0.0770 -0.3016
  243POSM   NC3 2840   4.951   2.533  12.457  0.0738  0.0033 -0.1880
  243POSM   PO4 2841   4.857   2.772  12.771  0.2391  0.1631  0.2206
  243POSM   AM1 2842   4.532   2.779  12.682  0.0084 -0.0268  0.0345
  243POSM   AM2 2843   4.401   2.728  12.451  0.2216  0.1142  0.2307
  243POSM   T1A 2844   4.085   2.735  12.896  0.1416 -0.0247  0.0505
  243POSM   C2A 2845   3.697   2.763  13.198 -0.0540  0.1238  0.4594
  243POSM   C3A 2846   3.357   2.874  13.486 -0.0837  0.0837 -0.2976
  243POSM   C1B 2847   4.058   2.926  12.390  0.0361  0.0059  0.1207
  243POSM   D2B 2848   3.853   3.381  12.354  0.0361  0.3460 -0.0125
  243POSM   C3B 2849   3.541   3.545  12.676 -0.1385  0.0829  0.3405
  243POSM   C4B 2850   3.355   3.380  13.110  0.2670  0.0024 -0.2208
  244DOPS   CNO 2851   7.785   6.143  12.139 -0.0023  0.1791  0.0521
  244DOPS   PO4 2852   7.628   6.062  12.462  0.1610 -0.0272  0.0023
  244DOPS   GL1 2853   7.719   5.911  12.864 -0.2185 -0.2940 -0.2982
  244DOPS   GL2 2854   7.394   5.811  12.868 -0.1373 -0.1660  0.0140
  244DOPS   C1A 2855   7.723   5.953  13.341 -0.0782 -0.0378  0.1810
  244DOPS   D2A 2856   7.714   6.013  13.761 -0.3696 -0.0649 -0.1676
  244DOPS   C3A 2857   7.536   5.585  13.980 -0.1169  0.0492  0.0135
  244DOPS   C4A 2858   7.308   5.235  14.191 -0.1938 -0.0696  0.0372
  244DOPS   C1B 2859   7.075   5.683  13.183 -0.2909 -0.0380 -0.0148
  244DOPS   D2B 2860   6.959   5.367  13.561  0.0869  0.0506  0.2386
  244DOPS   C3B 2861   6.479   5.176  13.615 -0.1072  0.4698 -0.0872
  244DOPS   C4B 2862   6.048   5.353  13.737 -0.0662  0.1821  0.1768
  245DOPC   NC3 2863   2.876  10.011  12.694  0.0249 -0.1943 -0.0381
  245DOPC   PO4 2864   3.225   9.936  12.535  0.0373 -0.1699 -0.3748
  245DOPC   GL1 2865   3.124   9.601  12.824 -0.0322  0.0841  0.1461
  245DOPC   GL2 2866   3.122   9.336  12.672  0.0091  0.0052  0.0759
  245DOPC   C1A 2867   2.854   9.668  13.131  0.2395  0.3016 -0.2419
  245DOPC   D2A 2868   2.464   9.478  13.287  0.0001 -0.0498  0.0291
  245DOPC   C3A 2869   2.404   9.462  13.799 -0.0050 -0.1038  0.2151
  245DOPC   C4A 2870   2.069   9.562  14.104 -0.1512 -0.3565  0.1347
  245DOPC   C1B 2871   2.905   9.151  13.008 -0.0689 -0.1520 -0.2926
  245DOPC   D2B 2872   2.546   8.989  13.198  0.2312  0.0987 -0.0617
  245DOPC   C3B 2873   2.164   8.962  13.516 -0.0764 -0.1577  0.1817
  245DOPC   C4B 2874   1.960   9.217  13.818 -0.0058  0.1195  0.1674
  246POSM   NC3 2875  34.110   6.775  12.207 -0.2116 -0.0819 -0.0215
  246POSM   PO4 2876  34.472   6.820  12.368 -0.3086  0.0764  0.0931
  246POSM   AM1 2877  34.408   6.529  12.575  0.2778  0.2155  0.4705
  246POSM   AM2 2878  34.229   6.300  12.542 -0.2356  0.0006  0.0501
  246POSM   T1A 2879  34.562   6.216  12.940  0.3687  0.0231  0.2567
  246POSM   C2A 2880  34.454   6.035  13.334  0.0273  0.0777  0.0512
  246POSM   C3A 2881  34.399   6.264  13.722  0.1631 -0.0095  0.1708
  246POSM   C1B 2882  34.282   5.960  12.558  0.1195  0.0171  0.1826
  246POSM   D2B 2883  34.406   5.518  12.522 -0.3705  0.2308  0.3860
  246POSM   C3B 2884  34.382   5.047  12.756 -0.0056 -0.2350 -0.0664
  246POSM   C4B 2885  34.423   4.782  13.133  0.1164  0.2561  0.0280
  247DOPE   NH3 2886   5.916   3.616  12.976  0.0567 -0.1606 -0.3383
  247DOPE   PO4 2887   5.619   3.625  13.140  0.0072  0.4131  0.0836
  247DOPE   GL1 2888   5.757   3.686  13.467  0.0502 -0.0193  0.3919
  247DOPE   GL2 2889   5.555   3.695  13.641  0.1571 -0.0039  0.3335
  247DOPE   C1A 2890   6.038   3.968  13.800 -0.2963  0.3038 -0.0459
  247DOPE   D2A 2891   6.206   4.157  14.217 -0.0020 -0.0677  0.3001
  247DOPE   C3A 2892   6.541   4.416  14.365 -0.3754  0.0237  0.2645
  247DOPE   C4A 2893   6.842   4.438  14.742  0.1443 -0.0306  0.1494
  247DOPE   C1B 2894   5.621   3.932  14.076 -0.0355 -0.1237 -0.1040
  247DOPE   D2B 2895   5.768   4.236  14.449  0.0268 -0.1462  0.2594
  247DOPE   C3B 2896   6.095   4.089  14.732  0.0718  0.0900  0.0307
  247DOPE   C4B 2897   6.344   3.722  14.848  0.0935 -0.1671  0.1423
  248POSM   NC3 2898   1.223   7.225  12.339  0.0794 -0.2368 -0.0283
  248POSM   PO4 2899   0.940   7.382  12.599  0.0131  0.0312  0.1662
  248POSM   AM1 2900   0.849   7.603  12.820 -0.2309 -0.2663 -0.2143
  248POSM   AM2 2901   0.628   7.767  12.878 -0.2468 -0.1715 -0.2924
  248POSM   T1A 2902   0.973   7.782  13.304  0.0341 -0.2825  0.0301
  248POSM   C2A 2903   1.071   7.666  13.765  0.1713 -0.1070 -0.1552
  248POSM   C3A 2904   1.059   7.841  14.164  0.1333  0.2558  0.2017
  248POSM   C1B 2905   0.481   7.925  13.127  0.3541 -0.0456 -0.0040
  248POSM   D2B 2906   0.436   8.283  13.473  0.0411  0.1216  0.1964
  248POSM   C3B 2907   0.313   8.678  13.435  0.0962 -0.0352  0.2424
  248POSM   C4B 2908  -0.082   8.880  13.464 -0.2212 -0.1550 -0.2004
  249POSM   NC3 2909   2.404   7.383  12.575 -0.1720  0.1352  0.2289
  249POSM   PO4 2910   2.775   7.230  12.747  0.0494  0.1852 -0.2484
  249POSM   AM1 2911   2.961   7.234  13.036 -0.4244  0.0134 -0.0373
  249POSM   AM2 2912   3.237   7.210  13.175  0.0194 -0.0663 -0.2890
  249POSM   T1A 2913   2.872   7.029  13.498 -0.2042 -0.0724  0.1639
  249POSM   C2A 2914   2.991   6.818  13.912  0.0030  0.1929 -0.1635
  249POSM   C3A 2915   3.245   6.448  14.003  0.3560  0.1089 -0.0276
  249POSM   C1B 2916   3.227   7.442  13.450 -0.0359 -0.0388 -0.0284
  249POSM   D2B 2917   3.212   7.796  13.840  0.0238  0.0258  0.0028
  249POSM   C3B 2918   3.028   7.724  14.264  0.0462  0.0852 -0.0471
  249POSM   C4B 2919   2.950   7.323  14.480  0.0646  0.0157  0.1574
  250POSM   NC3 2920   2.775   6.805  13.065 -0.2160  0.0408 -0.0377
  250POSM   PO4 2921   2.417   6.692  12.989 -0.3019 -0.0138 -0.0799
  250POSM   AM1 2922   2.169   6.734  13.226 -0.3089 -0.2847 -0.3064
  250POSM   AM2 2923   1.924   6.894  13.264  0.0473  0.0619  0.0259
  250POSM   T1A 2924   1.978   6.597  13.660  0.2364 -0.0811 -0.0947
  250POSM   C2A 2925   1.962   6.300  13.994 -0.1335  0.1367 -0.0588
  250POSM   C3A 2926   1.940   5.891  14.225 -0.0708  0.0250 -0.1113
  250POSM   C1B 2927   1.860   7.130  13.426  0.0890  0.0107  0.3314
  250POSM   D2B 2928   1.809   7.342  13.832  0.0709 -0.2219 -0.0682
  250POSM   C3B 2929   2.109   7.216  14.175  0.0211 -0.1489 -0.0494
  250POSM   C4B 2930   2.316   6.996  14.520 -0.0901 -0.2068 -0.1754
  251DOPS   CNO 2931   8.778   3.914  12.037 -0.0277  0.0736  0.0772
  251DOPS   PO4 2932   9.035   4.164  12.100 -0.0974 -0.2473 -0.1010
  251DOPS   GL1 2933   9.460   4.295  12.287  0.1848  0.2908 -0.1413
  251DOPS   GL2 2934   9.458   4.403  12.630 -0.2950 -0.0322  0.1757
  251DOPS   C1A 2935   9.761   3.920  12.367 -0.0409 -0.1574 -0.0677
  251DOPS   D2A 2936   9.804   3.532  12.541 -0.1984 -0.1707 -0.0163
  251DOPS   C3A 2937   9.990   3.463  12.952  0.0887  0.2071  0.1666
  251DOPS   C4A 2938   9.988   3.696  13.324  0.0881  0.0571 -0.1167
  251DOPS   C1B 2939   9.558   4.669  13.021  0.3092 -0.2216 -0.2428
  251DOPS   D2B 2940   9.710   4.514  13.399  0.0354  0.0839  0.2276
  251DOPS   C3B 2941   9.448   4.277  13.643 -0.2583  0.1842  0.2481
  251DOPS   C4B 2942   9.445   3.798  13.525  0.0031  0.0401  0.1098
  252POSM   NC3 2943   5.875   0.467  12.352  0.0463  0.1919  0.3729
  252POSM   PO4 2944   6.290   0.427  12.471  0.1815  0.2673 -0.0492
  252POSM   AM1 2945   6.197   0.578  12.728  0.2475 -0.1523 -0.7077
  252POSM   AM2 2946   6.211   0.555  13.013 -0.1304  0.2176 -0.1578
  252POSM   T1A 2947   6.178   1.023  12.917  0.2020 -0.2869 -0.0386
  252POSM   C2A 2948   5.984   1.423  12.995  0.1967  0.1300  0.0082
  252POSM   C3A 2949   5.965   1.795  12.734 -0.1727 -0.0388  0.3875
  252POSM   C1B 2950   6.229   0.578  13.359  0.2605 -0.0123 -0.0688
  252POSM   D2B 2951   6.121   0.573  13.839  0.1069  0.1909  0.4320
  252POSM   C3B 2952   6.341   0.916  13.971  0.0678 -0.5581  0.1095
  252POSM   C4B 2953   6.202   1.334  14.090 -0.2732  0.0049  0.0340
  253DOPE   NH3 2954  10.792   3.958  12.191  0.1302 -0.2664  0.1279
  253DOPE   PO4 2955  10.758   3.705  12.396 -0.1750  0.0568 -0.2604
  253DOPE   GL1 2956  10.560   3.819  12.720  0.0045 -0.0195  0.1963
  253DOPE   GL2 2957  10.334   3.672  12.641  0.0158  0.1138 -0.0621
  253DOPE   C1A 2958  10.432   3.868  13.159  0.1442  0.0572 -0.3278
  253DOPE   D2A 2959  10.352   3.777  13.630  0.0082 -0.1690  0.2220
  253DOPE   C3A 2960  10.619   3.955  13.963 -0.0801  0.2251 -0.1366
  253DOPE   C4A 2961  10.845   4.104  14.348  0.1444  0.1482 -0.5048
  253DOPE   C1B 2962  10.020   3.984  12.760 -0.1993 -0.2183  0.2176
  253DOPE   D2B 2963   9.944   4.362  13.007  0.0333  0.1964 -0.1171
  253DOPE   C3B 2964  10.075   4.155  13.443 -0.1559  0.0406  0.0555
  253DOPE   C4B 2965   9.898   3.890  13.846  0.0951 -0.1038  0.1011
  254DOPE   NH3 2966  10.784  10.553  12.114 -0.0054  0.1215 -0.0014
  254DOPE   PO4 2967  10.860  10.297  11.984 -0.2901  0.0067 -0.2307
  254DOPE   GL1 2968  10.673   9.970  12.111 -0.0799  0.1061  0.1803
  254DOPE   GL2 2969  10.537   9.947  11.842 -0.0359 -0.0568 -0.0026
  254DOPE   C1A 2970  10.211   9.967  12.272  0.1415 -0.0269  0.1204
  254DOPE   D2A 2971  10.212  10.139  12.665 -0.1109  0.0500  0.1429
  254DOPE   C3A 2972  10.072  10.318  13.056 -0.1074  0.0273  0.0062
  254DOPE   C4A 2973  10.102  10.539  13.475  0.2380 -0.2871 -0.0407
  254DOPE   C1B 2974  10.089   9.812  11.847  0.2440 -0.0727  0.2822
  254DOPE   D2B 2975   9.793   9.703  12.186 -0.0855 -0.0350  0.1545
  254DOPE   C3B 2976   9.877   9.685  12.662  0.1960  0.0627  0.0170
  254DOPE   C4B 2977  10.154   9.756  12.997  0.3531  0.0278  0.0180
  255DOPE   NH3 2978   3.771   7.509  12.951  0.0547 -0.2236 -0.0325
  255DOPE   PO4 2979   4.098   7.410  12.971  0.0159  0.1659  0.1548
  255DOPE   GL1 2980   4.368   7.404  13.375 -0.1696  0.1398  0.1370
  255DOPE   GL2 2981   4.593   7.386  13.183 -0.0141 -0.0038  0.0374
  255DOPE   C1A 2982   4.307   7.460  13.867 -0.0437  0.1887 -0.0999
  255DOPE   D2A 2983   4.491   7.538  14.311  0.2173 -0.1376  0.4267
  255DOPE   C3A 2984   4.849   7.271  14.350 -0.1698 -0.0375  0.2295
  255DOPE   C4A 2985   5.037   6.936  14.656  0.1251  0.1691  0.2487
  255DOPE   C1B 2986   4.821   7.082  13.343 -0.0882  0.2538 -0.0217
  255DOPE   D2B 2987   4.788   6.567  13.487  0.1513 -0.0074 -0.1287
  255DOPE   C3B 2988   5.213   6.478  13.645  0.1518  0.2237 -0.1357
  255DOPE   C4B 2989   5.457   6.440  14.008 -0.2239  0.0706 -0.0667
  256DOPE   NH3 2990   0.355   3.192  12.600  0.1984 -0.0443 -0.1947
  256DOPE   PO4 2991   0.331   3.046  12.326 -0.3300  0.1104 -0.2234
  256DOPE   GL1 2992   0.609   2.830  12.448  0.4725  0.4773 -0.3500
  256DOPE   GL2 2993   0.507   2.752  12.757  0.2245  0.2424 -0.3206
  256DOPE   C1A 2994   0.668   2.386  12.403  0.0225  0.0085 -0.0375
  256DOPE   D2A 2995   0.963   2.323  12.766  0.0287 -0.1688  0.1355
  256DOPE   C3A 2996   1.214   1.991  12.903  0.0324  0.2657 -0.2693
  256DOPE   C4A 2997   1.363   1.689  13.193  0.0370 -0.2252 -0.0168
  256DOPE   C1B 2998   0.799   2.679  13.075 -0.0297 -0.0488  0.3817
  256DOPE   D2B 2999   1.165   2.474  13.236  0.1625  0.0845  0.2915
  256DOPE   C3B 3000   1.208   2.120  13.591 -0.2626 -0.1174  0.1559
  256DOPE   C4B 3001   0.958   1.905  13.964 -0.0141  0.1937  0.0435
  257POSM   NC3 3002   0.713   3.564  12.292 -0.0061  0.0541 -0.0462
  257POSM   PO4 3003   0.837   3.271  12.554 -0.0749  0.1182 -0.1023
  257POSM   AM1 3004   0.818   3.156  12.854  0.1508 -0.2770  0.2932
  257POSM   AM2 3005   0.612   3.173  13.070 -0.0784  0.2401  0.0387
  257POSM   T1A 3006   1.088   3.016  13.275 -0.1912 -0.0507  0.0410
  257POSM   C2A 3007   0.982   2.815  13.644 -0.3378 -0.0294  0.0518
  257POSM   C3A 3008   1.146   2.542  13.935  0.1504 -0.4920 -0.1702
  257POSM   C1B 3009   0.636   3.081  13.427  0.0748  0.1352  0.0731
  257POSM   D2B 3010   0.714   3.203  13.843  0.0796 -0.0566 -0.2561
  257POSM   C3B 3011   1.147   3.276  13.755 -0.0984  0.0556 -0.5022
  257POSM   C4B 3012   1.511   3.297  13.450  0.2499 -0.2088 -0.0956
  258DOPC   NC3 3013  10.460   8.321  12.288  0.0450  0.0222  0.0654
  258DOPC   PO4 3014  10.825   8.184  12.144 -0.0442 -0.0090  0.2231
  258DOPC   GL1 3015  10.936   8.378  12.459  0.0333 -0.1113  0.1418
  258DOPC   GL2 3016  10.915   8.686  12.386  0.2102  0.1938  0.1801
  258DOPC   C1A 3017  10.620   8.407  12.802 -0.5101 -0.0343  0.0185
  258DOPC   D2A 3018  10.707   8.215  13.207 -0.0753  0.0003  0.0679
  258DOPC   C3A 3019  10.684   8.517  13.588  0.0498  0.1543  0.2055
  258DOPC   C4A 3020  10.528   8.881  13.873  0.1600  0.0053  0.0374
  258DOPC   C1B 3021  10.508   8.887  12.643  0.1990 -0.1298 -0.0456
  258DOPC   D2B 3022  10.250   9.189  12.895  0.0428  0.0965  0.0430
  258DOPC   C3B 3023   9.819   9.241  12.797  0.2227 -0.1317 -0.2001
  258DOPC   C4B 3024   9.444   9.451  12.739 -0.1854  0.0259  0.0762
  259DOPC   NC3 3025   6.241   9.859  12.425 -0.2232  0.2552 -0.0644
  259DOPC   PO4 3026   6.236  10.222  12.368  0.1041 -0.1138 -0.0528
  259DOPC   GL1 3027   6.220  10.224  12.799 -0.1561 -0.3034  0.1495
  259DOPC   GL2 3028   6.384   9.978  12.913  0.1053  0.1255 -0.1859
  259DOPC   C1A 3029   5.908  10.149  13.096  0.4315  0.0386  0.3192
  259DOPC   D2A 3030   5.718  10.267  13.485 -0.0066 -0.1652  0.0405
  259DOPC   C3A 3031   5.330  10.283  13.653  0.4418 -0.3236 -0.0942
  259DOPC   C4A 3032   4.920  10.323  13.432 -0.0079  0.1365  0.4336
  259DOPC   C1B 3033   6.253   9.851  13.401 -0.2753 -0.1948  0.0086
  259DOPC   D2B 3034   6.125   9.888  13.874 -0.0961 -0.0126  0.0138
  259DOPC   C3B 3035   6.347   9.608  14.186 -0.2006 -0.4655  0.1504
  259DOPC   C4B 3036   6.213   9.210  14.426 -0.2216  0.0946  0.0507
  260POSM   NC3 3037   1.168   5.053  12.453 -0.0978  0.0785 -0.1029
  260POSM   PO4 3038   1.291   4.991  12.832  0.0462 -0.1710  0.0499
  260POSM   AM1 3039   1.245   5.006  13.123  0.2630 -0.1479 -0.3837
  260POSM   AM2 3040   1.275   5.259  13.234  0.2204 -0.1761  0.1830
  260POSM   T1A 3041   1.045   4.798  13.537 -0.1512  0.1215 -0.0247
  260POSM   C2A 3042   0.953   4.820  13.975  0.1069  0.1427  0.2685
  260POSM   C3A 3043   0.889   4.778  14.442 -0.0095  0.0783  0.0512
  260POSM   C1B 3044   1.140   5.277  13.539 -0.0149  0.2043  0.0035
  260POSM   D2B 3045   0.685   5.317  13.694 -0.2855  0.2688  0.0512
  260POSM   C3B 3046   0.501   5.702  13.881 -0.3577  0.1573  0.1210
  260POSM   C4B 3047   0.083   5.793  13.845  0.2395 -0.1297  0.0614
  261POSM   NC3 3048   8.096   6.181  12.772  0.0271  0.1138  0.2186
  261POSM   PO4 3049   8.415   6.423  12.634  0.0998  0.1398  0.1273
  261POSM   AM1 3050   8.520   6.450  12.943 -0.1752 -0.0143  0.1294
  261POSM   AM2 3051   8.428   6.526  13.160 -0.2728 -0.2711 -0.3433
  261POSM   T1A 3052   8.804   6.125  13.198  0.0753 -0.1137  0.1940
  261POSM   C2A 3053   8.953   5.817  13.487  0.3001 -0.1566  0.0709
  261POSM   C3A 3054   9.158   5.494  13.748 -0.2099 -0.0459  0.0131
  261POSM   C1B 3055   8.545   6.454  13.512  0.3369 -0.0741 -0.0613
  261POSM   D2B 3056   8.605   6.499  13.958 -0.5192  0.0303 -0.0548
  261POSM   C3B 3057   8.444   6.593  14.367  0.1618  0.0798 -0.1071
  261POSM   C4B 3058   8.411   6.500  14.868  0.0354  0.0733  0.1153
  262DOPS   CNO 3059   7.681   3.072  12.038  0.1366  0.1845 -0.1152
  262DOPS   PO4 3060   7.637   3.416  12.256  0.0785  0.2340  0.3294
  262DOPS   GL1 3061   7.806   3.223  12.638  0.0078 -0.1309 -0.4056
  262DOPS   GL2 3062   7.899   2.983  12.463 -0.0035 -0.1780  0.2185
  262DOPS   C1A 3063   7.744   2.918  13.009  0.0033  0.0239  0.1387
  262DOPS   D2A 3064   7.665   2.545  13.337  0.0650  0.0687  0.1146
  262DOPS   C3A 3065   7.204   2.354  13.482  0.2702 -0.0796  0.2102
  262DOPS   C4A 3066   6.923   2.014  13.696  0.1023 -0.4212 -0.0549
  262DOPS   C1B 3067   8.219   2.741  12.185 -0.1559  0.0052 -0.0182
  262DOPS   D2B 3068   8.364   2.464  11.844 -0.0051  0.0975 -0.1968
  262DOPS   C3B 3069   8.833   2.459  11.908 -0.0969  0.1309 -0.0602
  262DOPS   C4B 3070   9.258   2.369  12.192  0.2785 -0.2584  0.0934
  263DOPE   NH3 3071   7.449   6.532  12.326 -0.1685 -0.0219  0.1241
  263DOPE   PO4 3072   7.577   6.816  12.243  0.1675  0.1459  0.4430
  263DOPE   GL1 3073   7.820   7.167  12.332  0.1905  0.0874 -0.1528
  263DOPE   GL2 3074   8.107   7.091  12.230 -0.2472 -0.3445  0.2397
  263DOPE   C1A 3075   7.708   7.529  12.572  0.1593 -0.0728  0.1603
  263DOPE   D2A 3076   7.959   7.869  12.739  0.0876  0.2609  0.2131
  263DOPE   C3A 3077   7.786   8.122  13.068 -0.1898  0.0202 -0.2662
  263DOPE   C4A 3078   7.378   8.193  13.292 -0.2060 -0.0724 -0.2562
  263DOPE   C1B 3079   8.248   7.505  12.247 -0.3704  0.5031  0.1940
  263DOPE   D2B 3080   8.020   7.914  12.197  0.1692 -0.0242  0.1459
  263DOPE   C3B 3081   7.926   8.344  12.110 -0.1531 -0.0802 -0.1856
  263DOPE   C4B 3082   7.763   8.738  12.199 -0.1410  0.1278  0.0943
  264DOPC   NC3 3083   7.572   5.680  12.043 -0.1139 -0.1796 -0.0605
  264DOPC   PO4 3084   7.620   5.310  12.140  0.2507 -0.2256  0.0125
  264DOPC   GL1 3085   7.484   5.098  12.462  0.0467  0.4855  0.0554
  264DOPC   GL2 3086   7.327   4.882  12.314  0.2365 -0.3031  0.0460
  264DOPC   C1A 3087   7.602   4.866  12.825  0.0132 -0.3364  0.0858
  264DOPC   D2A 3088   7.649   4.443  12.787 -0.4055 -0.2714 -0.1339
  264DOPC   C3A 3089   7.514   4.145  13.120 -0.2184  0.3991  0.2283
  264DOPC   C4A 3090   7.371   3.710  13.135  0.0797 -0.1860 -0.2272
  264DOPC   C1B 3091   6.861   4.979  12.343  0.2257 -0.0303  0.0109
  264DOPC   D2B 3092   6.508   4.934  12.645  0.2375  0.1560  0.1087
  264DOPC   C3B 3093   6.735   5.023  13.053  0.4134  0.0611  0.0332
  264DOPC   C4B 3094   6.881   4.853  13.469 -0.1415 -0.0147 -0.1124
  265DOPC   NC3 3095   4.819   8.146  13.479 -0.1420  0.1291  0.1038
  265DOPC   PO4 3096   4.616   7.936  13.240 -0.0377 -0.0730  0.0438
  265DOPC   GL1 3097   4.627   7.697  13.533 -0.1092  0.4579  0.1495
  265DOPC   GL2 3098   4.953   7.621  13.509  0.1588 -0.1577  0.0650
  265DOPC   C1A 3099   4.684   7.902  13.941 -0.1723 -0.2943 -0.0803
  265DOPC   D2A 3100   4.896   7.885  14.368 -0.0416  0.3622 -0.0565
  265DOPC   C3A 3101   5.331   7.868  14.484  0.3134  0.2353  0.1271
  265DOPC   C4A 3102   5.681   8.093  14.696 -0.0062 -0.0301  0.1246
  265DOPC   C1B 3103   4.766   7.315  13.820 -0.0348 -0.0280  0.3929
  265DOPC   D2B 3104   5.019   6.944  13.859 -0.2629  0.0795 -0.3541
  265DOPC   C3B 3105   5.256   6.823  14.212  0.5520 -0.1357  0.0863
  265DOPC   C4B 3106   5.521   6.591  14.568 -0.3401  0.1245  0.1862
  266DOPC   NC3 3107   3.813   9.805  12.395  0.0926 -0.0285 -0.0553
  266DOPC   PO4 3108   4.166   9.781  12.581 -0.0907  0.1330 -0.0187
  266DOPC   GL1 3109   4.523   9.542  12.684  0.1323 -0.1397  0.1354
  266DOPC   GL2 3110   4.533   9.724  12.977  0.2697  0.0669 -0.0224
  266DOPC   C1A 3111   5.006   9.640  12.717 -0.1586  0.0577  0.3405
  266DOPC   D2A 3112   5.426   9.824  12.757 -0.1813  0.2767  0.0873
  266DOPC   C3A 3113   5.571  10.297  12.690  0.0531  0.1455  0.2167
  266DOPC   C4A 3114   5.840  10.664  12.762 -0.1684 -0.0485  0.0140
  266DOPC   C1B 3115   4.863   9.848  13.287 -0.1282 -0.0868  0.0796
  266DOPC   D2B 3116   5.225   9.676  13.526  0.0606  0.1087  0.1943
  266DOPC   C3B 3117   5.309   9.322  13.926  0.0481  0.0090 -0.1111
  266DOPC   C4B 3118   5.143   9.160  14.329  0.1086  0.2551 -0.4200
  267DOPE   NH3 3119   7.451   0.629  12.482  0.1130 -0.1710 -0.0856
  267DOPE   PO4 3120   7.431   0.717  12.789 -0.2912  0.0808 -0.1067
  267DOPE   GL1 3121   7.358   0.911  13.117 -0.0955  0.3378  0.0349
  267DOPE   GL2 3122   7.602   1.048  13.196 -0.3909  0.4458 -0.1888
  267DOPE   C1A 3123   7.206   0.681  13.493  0.2291  0.2730 -0.3143
  267DOPE   D2A 3124   6.736   0.708  13.622 -0.2601 -0.0591 -0.0855
  267DOPE   C3A 3125   6.681   1.165  13.743 -0.3166  0.4610 -0.0587
  267DOPE   C4A 3126   6.628   1.576  13.932  0.4673  0.1207 -0.2168
  267DOPE   C1B 3127   7.442   1.200  13.582  0.2279 -0.0677 -0.1166
  267DOPE   D2B 3128   7.364   0.860  13.957  0.1313  0.0557 -0.0281
  267DOPE   C3B 3129   7.697   0.664  14.186  0.0537 -0.0087 -0.3005
  267DOPE   C4B 3130   7.967   0.348  14.288  0.1611 -0.0021  0.2165
  268DOPC   NC3 3131  10.108   7.381  13.039 -0.2292 -0.1219 -0.1826
  268DOPC   PO4 3132  10.438   7.538  12.926  0.1241  0.4119 -0.3744
  268DOPC   GL1 3133  10.491   7.585  13.333 -0.0599  0.3776  0.5021
  268DOPC   GL2 3134  10.628   7.801  13.419 -0.0628 -0.2028  0.1227
  268DOPC   C1A 3135  10.188   7.400  13.637 -0.1591 -0.1028  0.0889
  268DOPC   D2A 3136   9.747   7.156  13.732  0.1281  0.1787  0.0676
  268DOPC   C3A 3137   9.741   7.271  14.126  0.3611  0.1159 -0.3100
  268DOPC   C4A 3138   9.958   7.474  14.515  0.0033  0.0785  0.3432
  268DOPC   C1B 3139  10.193   7.967  13.551 -0.3575 -0.0197  0.0442
  268DOPC   D2B 3140   9.829   8.149  13.344 -0.2690  0.3213 -0.0001
  268DOPC   C3B 3141   9.740   8.569  13.609 -0.0359  0.0586  0.0811
  268DOPC   C4B 3142   9.815   8.934  13.755 -0.3805 -0.3771 -0.1989
  269POSM   NC3 3143   1.720   4.775  12.489 -0.1164 -0.0414  0.0085
  269POSM   PO4 3144   1.856   4.435  12.483  0.2680  0.1200  0.1465
  269POSM   AM1 3145   2.003   4.109  12.518  0.1209  0.2453  0.2421
  269POSM   AM2 3146   2.060   3.958  12.749 -0.1138  0.2530 -0.1047
  269POSM   T1A 3147   2.312   3.713  12.413 -0.1957  0.0370  0.0674
  269POSM   C2A 3148   2.552   3.277  12.354  0.0028 -0.0696 -0.0568
  269POSM   C3A 3149   2.989   3.289  12.430 -0.0261  0.0637 -0.1768
  269POSM   C1B 3150   2.344   3.959  12.902  0.1059  0.0614 -0.0455
  269POSM   D2B 3151   2.844   3.961  12.935 -0.3753 -0.1115 -0.2873
  269POSM   C3B 3152   3.018   4.034  13.397  0.1610  0.0827 -0.1995
  269POSM   C4B 3153   2.915   3.907  13.780  0.1767  0.2638 -0.3783
  270DOPS   CNO 3154   1.878  34.619  12.473  0.2623 -0.0587  0.0477
  270DOPS   PO4 3155   2.067  34.285  12.515 -0.1988  0.2713  0.3063
  270DOPS   GL1 3156   2.415  34.128  12.556 -0.1326  0.2191 -0.0557
  270DOPS   GL2 3157   2.671  34.231  12.675  0.1214  0.1049 -0.1268
  270DOPS   C1A 3158   2.606  33.698  12.605 -0.1015 -0.1215 -0.1724
  270DOPS   D2A 3159   2.952  33.481  12.722  0.0041 -0.0859 -0.2205
  270DOPS   C3A 3160   3.111  33.313  13.093  0.1400 -0.2701  0.2076
  270DOPS   C4A 3161   3.438  33.053  13.341 -0.0329  0.0748  0.0165
  270DOPS   C1B 3162   2.831  33.977  12.999 -0.1496 -0.1826  0.1790
  270DOPS   D2B 3163   2.705  33.678  13.296  0.1515  0.0377  0.1286
  270DOPS   C3B 3164   2.656  33.213  13.246  0.1106 -0.0166  0.0719
  270DOPS   C4B 3165   2.657  32.921  12.919 -0.2330 -0.0644 -0.0696
  271DOPE   NH3 3166   2.066   5.676  12.742  0.0600  0.3377 -0.3807
  271DOPE   PO4 3167   2.050   5.996  12.721 -0.0477  0.1927 -0.0457
  271DOPE   GL1 3168   1.687   5.868  12.887  0.2414 -0.1078 -0.0613
  271DOPE   GL2 3169   1.770   5.888  13.156 -0.0827  0.0582  0.0982
  271DOPE   C1A 3170   1.192   5.839  12.808  0.0661  0.0143 -0.0008
  271DOPE   D2A 3171   0.888   5.568  12.962  0.0168  0.1312 -0.0789
  271DOPE   C3A 3172   0.709   5.751  13.368  0.1422  0.1333  0.3720
  271DOPE   C4A 3173   0.384   6.065  13.477 -0.3623 -0.0362 -0.1739
  271DOPE   C1B 3174   1.697   6.235  13.419 -0.1734 -0.2429 -0.2296
  271DOPE   D2B 3175   1.486   6.450  13.840 -0.0952  0.0578 -0.0567
  271DOPE   C3B 3176   1.748   6.766  14.083  0.1073 -0.1885  0.1851
  271DOPE   C4B 3177   1.473   7.026  14.357 -0.3549  0.3995  0.0974
  272POSM   NC3 3178   0.386   1.609  12.609  0.0775 -0.1126  0.2940
  272POSM   PO4 3179   0.165   1.942  12.520 -0.0276 -0.1115  0.4728
  272POSM   AM1 3180   0.237   2.053  12.828  0.2452 -0.0880  0.3919
  272POSM   AM2 3181   0.140   2.132  13.108 -0.2835  0.0139 -0.0491
  272POSM   T1A 3182   0.608   2.210  13.077 -0.0118  0.0117 -0.1111
  272POSM   C2A 3183   0.718   2.342  13.502 -0.0602 -0.1677 -0.3350
  272POSM   C3A 3184   0.621   2.307  13.942 -0.4369  0.1863 -0.0043
  272POSM   C1B 3185   0.161   2.321  13.389 -0.0993 -0.1985 -0.1021
  272POSM   D2B 3186   0.099   2.297  13.850  0.3045  0.2439 -0.3390
  272POSM   C3B 3187   0.262   2.082  14.265 -0.0314  0.1371  0.0444
  272POSM   C4B 3188   0.662   2.101  14.411  0.2100  0.2803  0.0442
  273DOPC   NC3 3189   6.240   4.519  12.487 -0.0521 -0.2379 -0.1637
  273DOPC   PO4 3190   5.891   4.343  12.331  0.2237  0.2304 -0.0692
  273DOPC   GL1 3191   5.684   4.547  12.622 -0.3474  0.2080  0.1255
  273DOPC   GL2 3192   5.872   4.533  12.808  0.0514  0.0110  0.0645
  273DOPC   C1A 3193   5.288   4.544  12.913 -0.0244 -0.0178 -0.1692
  273DOPC   D2A 3194   5.098   4.452  13.383  0.0937  0.1281  0.1555
  273DOPC   C3A 3195   5.321   4.622  13.687 -0.0160 -0.2689  0.2106
  273DOPC   C4A 3196   5.253   4.961  13.931  0.0320  0.0357 -0.0572
  273DOPC   C1B 3197   6.114   4.878  13.059  0.3722  0.3295 -0.0828
  273DOPC   D2B 3198   6.168   5.369  13.226  0.0074  0.0179 -0.1616
  273DOPC   C3B 3199   6.030   5.736  13.452  0.1414  0.1932  0.0541
  273DOPC   C4B 3200   6.239   6.088  13.707  0.0128 -0.0244  0.2019
  274DOPS   CNO 3201   1.916   1.034  12.312  0.0216 -0.0309 -0.0145
  274DOPS   PO4 3202   1.990   0.957  12.671  0.1703  0.3237 -0.3601
  274DOPS   GL1 3203   2.323   0.921  12.861 -0.0930  0.1204  0.1639
  274DOPS   GL2 3204   2.490   0.687  12.870  0.0056  0.0277  0.0067
  274DOPS   C1A 3205   2.654   1.064  13.171  0.0203 -0.0820 -0.4200
  274DOPS   D2A 3206   3.017   1.143  13.454 -0.2700  0.0267  0.0933
  274DOPS   C3A 3207   3.050   1.591  13.581  0.0937  0.0256 -0.4161
  274DOPS   C4A 3208   2.703   1.720  13.876  0.2156 -0.4742 -0.3255
  274DOPS   C1B 3209   2.759   0.553  13.192 -0.0059  0.0582 -0.1090
  274DOPS   D2B 3210   3.126   0.254  13.268  0.2962 -0.3113 -0.1000
  274DOPS   C3B 3211   3.366   0.278  13.588 -0.1030  0.0256  0.0033
  274DOPS   C4B 3212   3.442   0.066  13.970  0.1374  0.0628 -0.0033
  275DOPC   NC3 3213   1.045   4.295  12.440  0.1449  0.2605  0.1811
  275DOPC   PO4 3214   1.317   4.519  12.568 -0.0842  0.2736 -0.2842
  275DOPC   GL1 3215   1.493   4.584  12.890  0.1602 -0.0105 -0.0881
  275DOPC   GL2 3216   1.809   4.442  12.942 -0.2945 -0.0305  0.1578
  275DOPC   C1A 3217   1.455   4.625  13.322  0.0717  0.2316  0.0851
  275DOPC   D2A 3218   1.609   4.958  13.617  0.0910 -0.0188  0.0547
  275DOPC   C3A 3219   1.398   5.058  14.030  0.2687 -0.0718 -0.0736
  275DOPC   C4A 3220   1.314   5.376  14.395 -0.2049  0.1831 -0.0036
  275DOPC   C1B 3221   1.855   4.081  13.288 -0.3379 -0.0569  0.0707
  275DOPC   D2B 3222   1.954   3.990  13.780 -0.1396  0.0994 -0.0144
  275DOPC   C3B 3223   2.423   3.821  13.781  0.2453 -0.2076 -0.2674
  275DOPC   C4B 3224   2.721   3.436  13.718  0.0601  0.0621 -0.1049
  276DOPC   NC3 3225   5.395   3.262  13.334 -0.1139 -0.0938 -0.1827
  276DOPC   PO4 3226   5.085   3.104  13.136 -0.2414 -0.1269 -0.1250
  276DOPC   GL1 3227   4.976   3.092  13.485  0.2780 -0.1212  0.1882
  276DOPC   GL2 3228   4.692   3.178  13.629  0.3911 -0.0878 -0.1179
  276DOPC   C1A 3229   5.082   3.508  13.663 -0.1847 -0.3017  0.4622
  276DOPC   D2A 3230   5.221   3.658  14.074 -0.0893  0.0707 -0.2156
  276DOPC   C3A 3231   5.252   3.995  14.390 -0.3598  0.0907  0.2845
  276DOPC   C4A 3232   5.268   4.287  14.696  0.0643 -0.0828  0.2245
  276DOPC   C1B 3233   4.549   3.512  13.371 -0.1809 -0.0579 -0.2840
  276DOPC   D2B 3234   4.144   3.682  13.227 -0.1018  0.0094 -0.1936
  276DOPC   C3B 3235   4.111   3.686  12.763 -0.0736 -0.0049 -0.3462
  276DOPC   C4B 3236   4.331   3.501  12.391 -0.2959 -0.1983  0.2615
  277DOPE   NH3 3237   5.596   3.110  12.917  0.0086  0.0858  0.0026
  277DOPE   PO4 3238   5.868   3.173  12.768 -0.1048 -0.1957 -0.2176
  277DOPE   GL1 3239   6.262   3.198  12.960 -0.0692  0.0393  0.2960
  277DOPE   GL2 3240   6.364   3.068  12.806  0.3602  0.0695 -0.2414
  277DOPE   C1A 3241   6.482   2.921  13.274 -0.1915 -0.1657 -0.2206
  277DOPE   D2A 3242   6.844   2.669  13.432 -0.1630 -0.2804 -0.1384
  277DOPE   C3A 3243   6.933   2.521  13.870  0.0182  0.1843 -0.0973
  277DOPE   C4A 3244   7.040   2.693  14.230  0.0908 -0.0711  0.0854
  277DOPE   C1B 3245   6.455   2.624  12.817 -0.0617  0.0249 -0.2125
  277DOPE   D2B 3246   6.447   2.371  13.243 -0.3300  0.0856  0.1394
  277DOPE   C3B 3247   6.486   2.272  13.713 -0.0055 -0.1039  0.1744
  277DOPE   C4B 3248   6.478   2.426  14.136 -0.0592  0.0045  0.0028
  278DOPC   NC3 3249   1.721   2.815  12.323  0.1123 -0.3228  0.1388
  278DOPC   PO4 3250   1.531   2.537  12.537 -0.1200 -0.0422  0.4132
  278DOPC   GL1 3251   1.615   2.458  12.951 -0.0707  0.0401 -0.0320
  278DOPC   GL2 3252   1.621   2.717  13.013 -0.0977  0.2546 -0.0582
  278DOPC   C1A 3253   1.625   2.116  13.239 -0.0898  0.0026 -0.0382
  278DOPC   D2A 3254   1.721   1.943  13.730  0.0968  0.1484  0.2987
  278DOPC   C3A 3255   1.411   1.994  14.094 -0.3934  0.0915 -0.2879
  278DOPC   C4A 3256   1.096   2.238  14.302  0.0337  0.0517  0.1757
  278DOPC   C1B 3257   1.528   2.599  13.488 -0.1661 -0.0849 -0.0269
  278DOPC   D2B 3258   1.581   2.404  13.870  0.2972  0.0248 -0.3569
  278DOPC   C3B 3259   1.591   2.449  14.323  0.3412 -0.3392  0.0705
  278DOPC   C4B 3260   1.672   2.718  14.711 -0.1456 -0.0097  0.0895
  279DOPC   NC3 3261   6.941  11.325  12.948 -0.1093 -0.0216 -0.1461
  279DOPC   PO4 3262   7.078  11.426  12.544 -0.0451  0.1190 -0.0883
  279DOPC   GL1 3263   7.293  11.637  12.801  0.0266  0.0072 -0.2535
  279DOPC   GL2 3264   7.564  11.696  12.762 -0.1929  0.2925  0.0319
  279DOPC   C1A 3265   7.351  11.528  13.235 -0.0168 -0.1004  0.2485
  279DOPC   D2A 3266   7.379  11.440  13.734 -0.3239  0.2187  0.2193
  279DOPC   C3A 3267   7.141  11.130  13.966  0.0664  0.2083  0.1642
  279DOPC   C4A 3268   7.220  10.835  14.279 -0.3972 -0.2229 -0.0883
  279DOPC   C1B 3269   7.840  11.618  13.151  0.3284 -0.0170 -0.1218
  279DOPC   D2B 3270   7.981  11.882  13.526  0.1401  0.0882  0.0089
  279DOPC   C3B 3271   8.232  11.959  13.945 -0.1479  0.0873 -0.2565
  279DOPC   C4B 3272   8.301  12.234  14.270  0.1482  0.0515 -0.1351
  280POSM   NC3 3273   3.611  10.531  12.461  0.4250 -0.2330  0.2667
  280POSM   PO4 3274   3.993  10.423  12.250 -0.0422 -0.2279  0.2624
  280POSM   AM1 3275   4.255  10.421  12.432 -0.0230  0.2409 -0.3212
  280POSM   AM2 3276   4.333  10.640  12.636  0.2293  0.0406  0.2322
  280POSM   T1A 3277   4.619  10.229  12.716  0.1494 -0.3443 -0.4084
  280POSM   C2A 3278   5.003  10.161  12.927  0.1911 -0.0282  0.1373
  280POSM   C3A 3279   5.324  10.026  13.210 -0.2570  0.5370  0.0529
  280POSM   C1B 3280   4.475  10.710  12.907 -0.1517  0.0670  0.0368
  280POSM   D2B 3281   4.535  10.655  13.363 -0.0205  0.2217 -0.3906
  280POSM   C3B 3282   4.926  10.780  13.654  0.0856 -0.1648  0.1357
  280POSM   C4B 3283   5.080  11.180  13.837 -0.0507  0.1952  0.1781
  281DOPE   NH3 3284   5.656   3.559  12.377  0.1875 -0.1832  0.0930
  281DOPE   PO4 3285   5.462   3.535  12.644 -0.0387  0.0786  0.3331
  281DOPE   GL1 3286   5.269   3.781  12.912 -0.2195 -0.0630 -0.1510
  281DOPE   GL2 3287   5.100   3.586  13.081  0.0464  0.2776  0.1087
  281DOPE   C1A 3288   4.942   4.118  12.922 -0.0314 -0.1181  0.0332
  281DOPE   D2A 3289   4.688   4.453  12.883  0.2814 -0.0831  0.2739
  281DOPE   C3A 3290   4.714   4.770  13.224  0.1029  0.3275 -0.0922
  281DOPE   C4A 3291   4.870   4.983  13.613 -0.0484 -0.0137  0.1512
  281DOPE   C1B 3292   4.951   3.898  13.421  0.0920 -0.0389 -0.1495
  281DOPE   D2B 3293   5.132   4.065  13.812  0.1685 -0.0331 -0.1051
  281DOPE   C3B 3294   5.331   4.313  14.076  0.1320  0.1085 -0.3505
  281DOPE   C4B 3295   5.369   4.651  14.355  0.0570 -0.3299 -0.1442
  282DOPS   CNO 3296   5.155   3.410  12.139 -0.0848  0.0695 -0.1397
  282DOPS   PO4 3297   5.236   3.767  12.191  0.3533 -0.1751 -0.3071
  282DOPS   GL1 3298   4.990   3.826  12.443  0.0311 -0.1501  0.0669
  282DOPS   GL2 3299   4.860   3.587  12.523 -0.0231  0.1394  0.1173
  282DOPS   C1A 3300   4.595   4.056  12.477 -0.1834 -0.0227  0.0681
  282DOPS   D2A 3301   4.177   4.235  12.743  0.0320 -0.0883  0.0161
  282DOPS   C3A 3302   3.711   4.157  12.608  0.3477 -0.1986  0.0572
  282DOPS   C4A 3303   3.630   3.867  12.276 -0.3993  0.3148  0.1912
  282DOPS   C1B 3304   4.609   3.760  12.865 -0.4367  0.0924  0.4497
  282DOPS   D2B 3305   4.503   4.026  13.289 -0.3892 -0.1045  0.0565
  282DOPS   C3B 3306   4.485   3.859  13.772 -0.2047  0.2856 -0.1536
  282DOPS   C4B 3307   4.765   3.950  14.152  0.3288  0.0641 -0.1550
  283DOPC   NC3 3308   3.853  10.856  12.759  0.0209  0.0328 -0.1099
  283DOPC   PO4 3309   3.747  11.038  13.102 -0.0670 -0.2569  0.0305
  283DOPC   GL1 3310   4.110  11.228  13.136  0.0950 -0.1848 -0.0914
  283DOPC   GL2 3311   4.252  10.979  13.188 -0.3475  0.3054  0.1918
  283DOPC   C1A 3312   4.499  11.537  13.171  0.3252 -0.2410  0.2246
  283DOPC   D2A 3313   4.740  11.892  13.211 -0.1621 -0.1796 -0.1168
  283DOPC   C3A 3314   4.925  12.012  13.641  0.2301 -0.2818 -0.2874
  283DOPC   C4A 3315   5.138  12.015  14.037 -0.1460 -0.0738  0.1162
  283DOPC   C1B 3316   4.172  10.908  13.631 -0.2203  0.3710  0.2202
  283DOPC   D2B 3317   4.368  11.050  14.026 -0.1058  0.1058 -0.0626
  283DOPC   C3B 3318   4.208  11.462  14.048 -0.1600  0.0083  0.2780
  283DOPC   C4B 3319   4.271  11.722  14.430  0.0528 -0.0368  0.2673
  284DOPE   NH3 3320   0.709   3.676  12.866 -0.0704  0.2646  0.0204
  284DOPE   PO4 3321   0.377   3.609  12.835 -0.3175  0.0693  0.0563
  284DOPE   GL1 3322   0.292   3.670  13.203 -0.3190 -0.0809  0.1159
  284DOPE   GL2 3323   0.399   3.969  13.234  0.0357 -0.2627  0.0810
  284DOPE   C1A 3324   0.527   3.609  13.574 -0.3075  0.1641  0.1292
  284DOPE   D2A 3325   0.492   3.799  14.009 -0.3578 -0.2259 -0.0696
  284DOPE   C3A 3326   0.044   3.704  14.166 -0.1270  0.1244 -0.0071
  284DOPE   C4A 3327  -0.127   3.274  14.359  0.0314  0.0270 -0.2419
  284DOPE   C1B 3328   0.196   4.191  13.641 -0.1233 -0.2532  0.1525
  284DOPE   D2B 3329   0.138   4.234  14.087  0.1186 -0.1186 -0.1147
  284DOPE   C3B 3330   0.401   4.027  14.468  0.0894  0.2340 -0.3557
  284DOPE   C4B 3331   0.620   3.660  14.599 -0.0707 -0.0087 -0.0904
  285DOPE   NH3 3332   6.823   6.488  12.332 -0.0263 -0.0136 -0.0710
  285DOPE   PO4 3333   6.663   6.247  12.518  0.0146  0.2959  0.0429
  285DOPE   GL1 3334   6.425   6.050  12.735  0.0755  0.1406  0.3211
  285DOPE   GL2 3335   6.175   6.213  12.718 -0.4002  0.1630  0.1055
  285DOPE   C1A 3336   6.076   5.755  12.800  0.0651 -0.0180 -0.1633
  285DOPE   D2A 3337   5.722   5.423  12.850 -0.0472 -0.2149  0.1215
  285DOPE   C3A 3338   5.604   5.014  12.997 -0.0443  0.0343 -0.1341
  285DOPE   C4A 3339   5.293   4.916  13.314 -0.1694 -0.2145 -0.1918
  285DOPE   C1B 3340   6.011   6.160  13.125 -0.1000  0.0289  0.0322
  285DOPE   D2B 3341   5.770   6.164  13.523  0.1348 -0.0778 -0.0344
  285DOPE   C3B 3342   5.656   5.931  13.820  0.0898 -0.1015 -0.0548
  285DOPE   C4B 3343   5.568   5.519  13.991  0.0639  0.0352  0.0086
  286POSM   NC3 3344   9.371   6.915  12.778 -0.2962  0.0632  0.1548
  286POSM   PO4 3345   9.689   7.098  12.591  0.2085 -0.1727  0.0681
  286POSM   AM1 3346   9.675   7.277  12.877 -0.4003  0.1000  0.2390
  286POSM   AM2 3347   9.408   7.404  12.957  0.0673 -0.0334  0.0973
  286POSM   T1A 3348   9.751   7.539  13.313 -0.0553 -0.0141 -0.2159
  286POSM   C2A 3349   9.668   7.605  13.799  0.1609 -0.0380  0.2297
  286POSM   C3A 3350   9.513   7.719  14.184 -0.0547 -0.1799  0.0828
  286POSM   C1B 3351   9.074   7.426  13.100  0.1574 -0.2480  0.2177
  286POSM   D2B 3352   8.634   7.616  13.210 -0.1517  0.2340  0.4880
  286POSM   C3B 3353   8.561   7.776  13.585 -0.3510 -0.0796 -0.1116
  286POSM   C4B 3354   8.443   8.123  13.850  0.1439  0.2762 -0.0807
  287POSM   NC3 3355   8.584  10.917  12.113  0.1310  0.3576  0.1740
  287POSM   PO4 3356   8.628  10.547  12.152  0.0204  0.1781  0.1118
  287POSM   AM1 3357   8.728  10.532  12.469 -0.1749 -0.2109  0.2628
  287POSM   AM2 3358   8.884  10.741  12.616  0.1485 -0.1029 -0.1994
  287POSM   T1A 3359   8.666  10.305  12.905  0.1186  0.0727  0.0764
  287POSM   C2A 3360   8.693   9.866  13.107  0.1505  0.1392  0.0434
  287POSM   C3A 3361   9.035   9.734  13.354 -0.0137  0.0705  0.0884
  287POSM   C1B 3362   9.011  10.658  12.937  0.1894  0.2721 -0.1216
  287POSM   D2B 3363   9.008  10.761  13.377 -0.2180  0.0925 -0.1827
  287POSM   C3B 3364   9.159  10.416  13.633 -0.0307  0.2507 -0.1041
  287POSM   C4B 3365   9.332  10.008  13.613 -0.1375  0.0830  0.1059
  288DOPC   NC3 3366   0.125   4.041  12.861 -0.0310  0.2234 -0.4053
  288DOPC   PO4 3367   0.433   4.031  12.597  0.0405  0.0284 -0.0338
  288DOPC   GL1 3368   0.570   4.318  12.898 -0.1018 -0.4871  0.1798
  288DOPC   GL2 3369   0.375   4.553  12.748 -0.0956 -0.2567 -0.0763
  288DOPC   C1A 3370   0.566   4.628  13.213 -0.0318 -0.0894  0.0099
  288DOPC   D2A 3371   0.510   4.879  13.560 -0.2262 -0.2772  0.3330
  288DOPC   C3A 3372   0.497   4.586  13.891  0.2452  0.0007 -0.1196
  288DOPC   C4A 3373   0.732   4.329  14.161  0.3720  0.2151 -0.2316
  288DOPC   C1B 3374   0.168   4.918  12.994 -0.0555  0.4088 -0.3971
  288DOPC   D2B 3375   0.031   4.980  13.464 -0.1243  0.2093 -0.1506
  288DOPC   C3B 3376   0.207   5.159  13.827 -0.0459  0.1305  0.1556
  288DOPC   C4B 3377   0.506   5.105  14.156 -0.0802 -0.1534 -0.0008
  289DOPC   NC3 3378   3.866  10.014  13.060  0.4705  0.1029 -0.0479
  289DOPC   PO4 3379   3.912  10.162  12.713  0.2529  0.4914 -0.1230
  289DOPC   GL1 3380   4.228  10.258  12.903 -0.0052 -0.3775  0.5049
  289DOPC   GL2 3381   4.092  10.442  13.148  0.1981  0.0679  0.0888
  289DOPC   C1A 3382   4.434  10.115  13.288 -0.3024 -0.1117 -0.1543
  289DOPC   D2A 3383   4.310   9.757  13.517 -0.1097  0.0330  0.1684
  289DOPC   C3A 3384   4.195   9.835  13.974 -0.0327  0.0708  0.1133
  289DOPC   C4A 3385   3.933   9.757  14.422 -0.1649  0.0654  0.1621
  289DOPC   C1B 3386   4.051  10.240  13.584 -0.2180  0.0935 -0.1539
  289DOPC   D2B 3387   3.892  10.545  13.918 -0.1144 -0.0161  0.1688
  289DOPC   C3B 3388   3.615  10.896  14.017  0.1877  0.6733 -0.1826
  289DOPC   C4B 3389   3.336  11.248  14.069 -0.0357  0.3549 -0.1964
  290DOPC   NC3 3390   5.737   7.445  12.654  0.1370 -0.1969  0.0028
  290DOPC   PO4 3391   5.534   7.639  12.919 -0.0113  0.0291  0.0266
  290DOPC   GL1 3392   5.832   7.561  13.095  0.1618  0.0758  0.3741
  290DOPC   GL2 3393   6.102   7.584  12.968  0.3469  0.1453 -0.2334
  290DOPC   C1A 3394   6.145   7.553  13.452 -0.1624 -0.0520  0.1004
  290DOPC   D2A 3395   6.108   7.445  13.853  0.3504 -0.1910 -0.0066
  290DOPC   C3A 3396   6.424   7.307  14.198  0.2674 -0.2061  0.1332
  290DOPC   C4A 3397   6.623   6.913  14.344  0.2018 -0.1531  0.0671
  290DOPC   C1B 3398   6.315   7.991  12.854 -0.2078  0.1034  0.2862
  290DOPC   D2B 3399   6.558   8.428  12.861  0.0501 -0.1635  0.0731
  290DOPC   C3B 3400   6.840   8.316  13.239  0.1327  0.0791  0.3557
  290DOPC   C4B 3401   7.022   8.585  13.589 -0.1000 -0.1021  0.1947
  291POSM   NC3 3402   1.780   3.649  12.475  0.2110 -0.1199  0.0108
  291POSM   PO4 3403   1.845   3.272  12.390 -0.2410 -0.1175 -0.0971
  291POSM   AM1 3404   2.073   3.020  12.555  0.1070 -0.2774 -0.2151
  291POSM   AM2 3405   2.014   2.791  12.694  0.0184 -0.0902 -0.2391
  291POSM   T1A 3406   2.462   2.693  12.557 -0.3974  0.0815  0.0179
  291POSM   C2A 3407   2.916   2.817  12.615  0.1188  0.0998 -0.0693
  291POSM   C3A 3408   3.334   2.665  12.381  0.2727 -0.0954  0.1125
  291POSM   C1B 3409   2.255   2.856  12.920  0.2097  0.0178  0.0006
  291POSM   D2B 3410   2.679   2.801  13.041  0.0492 -0.4600  0.2047
  291POSM   C3B 3411   3.138   2.834  13.033 -0.4467 -0.1085 -0.0304
  291POSM   C4B 3412   3.459   2.990  12.733  0.1698 -0.0257 -0.0134
  292DOPC   NC3 3413   2.135  10.222  12.580 -0.2896  0.0612 -0.2507
  292DOPC   PO4 3414   2.488  10.108  12.405  0.1177 -0.0526  0.1221
  292DOPC   GL1 3415   2.372   9.818  12.662  0.1368  0.0847  0.0920
  292DOPC   GL2 3416   2.432   9.895  13.009 -0.2888 -0.0393 -0.0724
  292DOPC   C1A 3417   1.881   9.824  12.773 -0.1290 -0.1139 -0.0751
  292DOPC   D2A 3418   1.632   9.483  12.978  0.3070  0.1995 -0.3163
  292DOPC   C3A 3419   1.398   9.516  13.363  0.0117 -0.1119 -0.1031
  292DOPC   C4A 3420   1.515   9.755  13.746  0.0192 -0.0272 -0.0625
  292DOPC   C1B 3421   2.096  10.114  13.190  0.4226 -0.3318  0.0506
  292DOPC   D2B 3422   1.830  10.398  13.407 -0.2133  0.1789 -0.1842
  292DOPC   C3B 3423   1.896  10.834  13.553  0.1886 -0.1822 -0.1344
  292DOPC   C4B 3424   1.711  11.161  13.788  0.0591 -0.0312  0.2107
  293POSM   NC3 3425  10.173   4.537  11.982 -0.1191  0.1360  0.1687
  293POSM   PO4 3426  10.354   4.164  12.025  0.1616  0.0961 -0.4011
  293POSM   AM1 3427  10.415   4.253  12.355 -0.0159  0.4444  0.0361
  293POSM   AM2 3428  10.237   4.382  12.540  0.1377  0.3190 -0.1403
  293POSM   T1A 3429  10.717   4.248  12.731 -0.0200  0.0562 -0.0829
  293POSM   C2A 3430  10.978   4.333  13.111 -0.0439 -0.0513 -0.1086
  293POSM   C3A 3431  11.229   4.718  13.155 -0.2826 -0.0619 -0.2178
  293POSM   C1B 3432  10.312   4.591  12.794 -0.1637  0.1214 -0.1660
  293POSM   D2B 3433  10.470   4.946  13.055 -0.1200  0.1714 -0.1192
  293POSM   C3B 3434  10.715   4.822  13.380 -0.1824  0.2093 -0.1427
  293POSM   C4B 3435  10.935   4.535  13.670 -0.0521 -0.2534 -0.0336
  294DOPS   CNO 3436   8.201   0.645  12.108 -0.2322  0.1085 -0.1303
  294DOPS   PO4 3437   8.079   0.535  12.460  0.0446 -0.0615 -0.1725
  294DOPS   GL1 3438   8.129   0.946  12.739 -0.3676  0.1397  0.4123
  294DOPS   GL2 3439   7.826   1.057  12.747  0.0113  0.1170 -0.1731
  294DOPS   C1A 3440   8.307   1.348  12.671 -0.2069  0.0381  0.1155
  294DOPS   D2A 3441   8.468   1.756  12.596  0.0902 -0.2314 -0.0110
  294DOPS   C3A 3442   8.702   1.837  13.003 -0.2077  0.3918  0.4724
  294DOPS   C4A 3443   9.143   1.889  13.081 -0.1346 -0.2181 -0.1864
  294DOPS   C1B 3444   8.031   1.317  13.063 -0.2674  0.1557  0.3773
  294DOPS   D2B 3445   8.143   1.740  13.027 -0.1898 -0.0773 -0.1042
  294DOPS   C3B 3446   8.064   1.694  13.452 -0.0348 -0.1684  0.0248
  294DOPS   C4B 3447   8.150   1.810  13.933  0.4289  0.0048 -0.2758
  295DOPC   NC3 3448   3.330   5.737  13.164  0.0061  0.0129  0.3040
  295DOPC   PO4 3449   3.675   5.657  12.939  0.0444  0.0111  0.2638
  295DOPC   GL1 3450   3.679   5.260  13.065  0.2813  0.0742  0.0099
  295DOPC   GL2 3451   3.813   5.350  13.368  0.1841 -0.0887 -0.2254
  295DOPC   C1A 3452   3.849   4.849  13.320 -0.3896 -0.0097  0.3020
  295DOPC   D2A 3453   3.912   4.512  13.684  0.2555  0.0032  0.3254
  295DOPC   C3A 3454   3.961   4.090  13.541  0.1851  0.0592 -0.0708
  295DOPC   C4A 3455   3.865   4.010  13.073  0.1788  0.1753 -0.0932
  295DOPC   C1B 3456   4.244   5.155  13.335  0.2182 -0.2220  0.1954
  295DOPC   D2B 3457   4.714   5.296  13.215  0.3124  0.0354 -0.0422
  295DOPC   C3B 3458   5.059   5.446  13.552 -0.1259 -0.1022  0.1062
  295DOPC   C4B 3459   5.183   5.817  13.845  0.0888  0.1080 -0.0394
  296DOPS   CNO 3460   0.906  10.224  12.369 -0.2841  0.1930 -0.0246
  296DOPS   PO4 3461   0.545  10.241  12.225 -0.0004  0.3630 -0.1239
  296DOPS   GL1 3462   0.570  10.035  12.610  0.5599  0.1264  0.2011
  296DOPS   GL2 3463   0.420  10.164  12.850  0.1130 -0.0483  0.3408
  296DOPS   C1A 3464   0.398   9.668  12.884 -0.0646  0.1555  0.2628
  296DOPS   D2A 3465  -0.014   9.496  13.001 -0.0850  0.3900  0.1566
  296DOPS   C3A 3466  -0.003   9.385  13.464 -0.0665 -0.1341  0.0773
  296DOPS   C4A 3467   0.279   9.152  13.734 -0.3130 -0.2786 -0.4749
  296DOPS   C1B 3468   0.714   9.954  13.181 -0.1436  0.1994  0.0075
  296DOPS   D2B 3469   0.942   9.665  13.480 -0.1355  0.1464 -0.3100
  296DOPS   C3B 3470   1.058   9.752  13.960  0.0308 -0.2790 -0.3950
  296DOPS   C4B 3471   1.505   9.755  14.247  0.1308 -0.0250  0.0644
  297DOPE   NH3 3472   3.954   8.682  13.227 -0.0849 -0.2623  0.0692
  297DOPE   PO4 3473   4.158   8.830  13.039 -0.2063  0.3067  0.2684
  297DOPE   GL1 3474   4.384   9.058  13.135  0.3180 -0.0805 -0.0512
  297DOPE   GL2 3475   4.239   9.171  13.386 -0.0545 -0.0864 -0.4795
  297DOPE   C1A 3476   4.718   9.266  13.362  0.2112  0.0362  0.1557
  297DOPE   D2A 3477   4.840   9.469  13.747  0.0775  0.0283 -0.2850
  297DOPE   C3A 3478   4.688   9.847  13.825  0.0943 -0.4127  0.0770
  297DOPE   C4A 3479   4.456  10.305  13.817 -0.1519  0.0411 -0.0238
  297DOPE   C1B 3480   4.512   8.914  13.633 -0.2334 -0.2658  0.3534
  297DOPE   D2B 3481   4.701   8.525  13.763 -0.0267 -0.1524 -0.2361
  297DOPE   C3B 3482   5.148   8.458  13.721 -0.4896 -0.1986  0.1628
  297DOPE   C4B 3483   5.554   8.367  13.936 -0.1826 -0.0704  0.3478
  298DOPE   NH3 3484  10.871   2.616  12.304  0.3587 -0.3161  0.1463
  298DOPE   PO4 3485  10.902   2.459  12.591  0.1500  0.2732 -0.1149
  298DOPE   GL1 3486  10.812   2.196  12.818  0.1864  0.1489  0.1118
  298DOPE   GL2 3487  10.516   2.195  12.894  0.0153 -0.1388 -0.1251
  298DOPE   C1A 3488  11.001   2.089  13.229  0.0174  0.0957 -0.0430
  298DOPE   D2A 3489  11.235   2.267  13.640 -0.1564  0.1143 -0.1889
  298DOPE   C3A 3490  11.263   2.727  13.700  0.1846 -0.0287  0.1319
  298DOPE   C4A 3491  11.107   3.185  13.747 -0.0264  0.2139 -0.0044
  298DOPE   C1B 3492  10.504   2.087  13.337 -0.1498  0.1149 -0.3281
  298DOPE   D2B 3493  10.786   1.984  13.710 -0.1799  0.0757  0.2666
  298DOPE   C3B 3494  11.133   1.681  13.789  0.3871  0.1805 -0.3130
  298DOPE   C4B 3495  11.592   1.560  13.911 -0.1721  0.2793 -0.2371
  299DOPE   NH3 3496   5.740   3.952  12.032  0.3728  0.1256 -0.2475
  299DOPE   PO4 3497   6.002   3.803  12.163  0.0508  0.3276 -0.0507
  299DOPE   GL1 3498   6.400   3.919  12.158  0.2075 -0.0324 -0.1496
  299DOPE   GL2 3499   6.367   4.180  12.117 -0.1152  0.0354 -0.1851
  299DOPE   C1A 3500   6.707   4.038  12.500 -0.0148 -0.2864  0.4761
  299DOPE   D2A 3501   6.772   4.364  12.844  0.1159 -0.2162  0.1106
  299DOPE   C3A 3502   6.603   4.482  13.242  0.1626  0.0303  0.2676
  299DOPE   C4A 3503   6.462   4.286  13.696 -0.1284  0.1361  0.1032
  299DOPE   C1B 3504   6.693   4.487  12.225 -0.0413 -0.0774 -0.4494
  299DOPE   D2B 3505   7.144   4.387  12.344  0.0502  0.0915  0.1473
  299DOPE   C3B 3506   7.222   4.147  12.725  0.0168 -0.2338 -0.2144
  299DOPE   C4B 3507   7.629   3.916  12.643  0.2138  0.2163  0.1439
  300DOPC   NC3 3508   5.483   1.822  12.871 -0.0451 -0.1291  0.0266
  300DOPC   PO4 3509   5.092   1.811  12.867 -0.0937 -0.0971 -0.1966
  300DOPC   GL1 3510   5.121   2.038  13.193  0.0987  0.1795  0.0321
  300DOPC   GL2 3511   4.976   1.843  13.328 -0.2683 -0.2251  0.0677
  300DOPC   C1A 3512   5.451   2.126  13.497 -0.1028  0.0599  0.2480
  300DOPC   D2A 3513   5.564   1.769  13.802  0.3708  0.1134 -0.1029
  300DOPC   C3A 3514   5.810   1.786  14.217 -0.1677 -0.3270 -0.0294
  300DOPC   C4A 3515   5.986   1.700  14.634 -0.0260  0.0475  0.1174
  300DOPC   C1B 3516   4.687   1.748  13.658 -0.1204  0.2886 -0.1432
  300DOPC   D2B 3517   4.362   1.875  13.930 -0.1034 -0.3075  0.2060
  300DOPC   C3B 3518   4.327   2.003  14.359 -0.1295  0.2559  0.4481
  300DOPC   C4B 3519   4.361   2.299  14.687 -0.0419  0.1600  0.0131
  301DOPS   CNO 3520  10.427   7.309  12.442 -0.0380 -0.0487  0.2661
  301DOPS   PO4 3521  10.257   7.065  12.675  0.0504  0.1741 -0.3088
  301DOPS   GL1 3522  10.351   7.010  13.126  0.2987 -0.0998  0.0986
  301DOPS   GL2 3523  10.594   7.180  13.244  0.5785 -0.3884  0.0844
  301DOPS   C1A 3524  10.093   6.709  13.416  0.4207  0.1772  0.4013
  301DOPS   D2A 3525  10.002   6.458  13.723  0.1692 -0.1544  0.0041
  301DOPS   C3A 3526  10.095   6.811  13.984 -0.1636  0.0691  0.0095
  301DOPS   C4A 3527  10.082   6.944  14.429  0.0038 -0.1360  0.2177
  301DOPS   C1B 3528  10.524   7.005  13.620  0.0755  0.0570  0.0201
  301DOPS   D2B 3529  10.622   7.056  14.044  0.0034  0.2866 -0.2672
  301DOPS   C3B 3530  10.256   7.385  14.148  0.4220 -0.1209 -0.0254
  301DOPS   C4B 3531  10.091   7.802  14.128  0.0001 -0.0064 -0.1858
  302DOPS   CNO 3532   7.690  10.574  12.140  0.2031  0.0960  0.1787
  302DOPS   PO4 3533   7.635  10.452  12.474 -0.2132  0.0261 -0.2394
  302DOPS   GL1 3534   7.591  10.235  12.782 -0.0172  0.3471  0.2369
  302DOPS   GL2 3535   7.267  10.243  12.762 -0.0347 -0.1592 -0.3482
  302DOPS   C1A 3536   7.651  10.098  13.230 -0.0431 -0.1419 -0.1576
  302DOPS   D2A 3537   7.441   9.767  13.458 -0.0040 -0.3194 -0.3102
  302DOPS   C3A 3538   7.260   9.949  13.859  0.0503 -0.0715  0.2056
  302DOPS   C4A 3539   7.235  10.333  14.178 -0.1089  0.1516  0.1049
  302DOPS   C1B 3540   7.132  10.079  13.194  0.2114  0.2843 -0.2910
  302DOPS   D2B 3541   6.938   9.756  13.498  0.2273 -0.2874 -0.2250
  302DOPS   C3B 3542   7.179   9.401  13.671  0.0210 -0.2950  0.2533
  302DOPS   C4B 3543   7.407   8.945  13.646 -0.1157 -0.4382  0.2874
  303DOPC   NC3 3544   6.895   9.842  12.835 -0.2559 -0.1189 -0.2538
  303DOPC   PO4 3545   6.628   9.616  12.676 -0.0995 -0.4499  0.0018
  303DOPC   GL1 3546   6.821   9.278  12.854  0.0298  0.1876  0.1186
  303DOPC   GL2 3547   7.056   9.251  12.688 -0.1295  0.0781  0.2899
  303DOPC   C1A 3548   7.238   9.332  13.118  0.0664  0.0479  0.3037
  303DOPC   D2A 3549   7.704   9.426  13.126 -0.0519 -0.2228  0.1585
  303DOPC   C3A 3550   7.863   9.492  13.545  0.4300 -0.2422 -0.1529
  303DOPC   C4A 3551   7.655   9.519  13.992  0.2943  0.1007  0.0671
  303DOPC   C1B 3552   7.376   8.954  12.777  0.1309 -0.1317  0.2689
  303DOPC   D2B 3553   7.466   8.608  12.536 -0.1299 -0.3310 -0.0362
  303DOPC   C3B 3554   7.592   8.193  12.576 -0.0319 -0.0266 -0.3023
  303DOPC   C4B 3555   7.402   7.940  12.862 -0.0592  0.0329  0.1779
  304DOPS   CNO 3556   2.062   5.225  12.586 -0.2522  0.1951 -0.1072
  304DOPS   PO4 3557   2.225   5.170  12.929 -0.0761  0.4464 -0.1745
  304DOPS   GL1 3558   2.099   4.761  12.972 -0.0541 -0.3227  0.1204
  304DOPS   GL2 3559   2.229   4.660  12.712  0.0709  0.3681 -0.1983
  304DOPS   C1A 3560   2.003   4.598  13.411 -0.0292 -0.1850 -0.0903
  304DOPS   D2A 3561   2.304   4.351  13.725 -0.0008 -0.2105 -0.0482
  304DOPS   C3A 3562   2.382   4.551  14.188 -0.1082  0.2123 -0.1118
  304DOPS   C4A 3563   2.415   4.530  14.620 -0.2622  0.1117 -0.1965
  304DOPS   C1B 3564   2.607   4.404  12.804  0.2344  0.1771  0.2203
  304DOPS   D2B 3565   3.107   4.393  12.786 -0.0309 -0.1212  0.2122
  304DOPS   C3B 3566   3.347   4.073  13.025  0.1931 -0.3501 -0.0256
  304DOPS   C4B 3567   3.444   3.793  13.332 -0.0104  0.2313  0.2200
  305DOPS   CNO 3568   3.161   6.855  12.777  0.0344 -0.1031  0.0252
  305DOPS   PO4 3569   3.326   6.711  13.075 -0.1604  0.1472  0.1645
  305DOPS   GL1 3570   3.545   6.647  13.435  0.3340 -0.2389  0.4544
  305DOPS   GL2 3571   3.386   6.944  13.541 -0.0622  0.2077 -0.0515
  305DOPS   C1A 3572   3.706   6.440  13.809 -0.1191  0.0718  0.0323
  305DOPS   D2A 3573   3.969   6.184  14.085  0.1665  0.0691  0.0958
  305DOPS   C3A 3574   4.347   5.924  13.940 -0.0442 -0.2167 -0.2555
  305DOPS   C4A 3575   4.586   5.810  13.546  0.0385  0.2354  0.2792
  305DOPS   C1B 3576   3.485   6.988  13.987  0.0458 -0.4032 -0.0918
  305DOPS   D2B 3577   3.487   7.348  14.296  0.1045 -0.1455 -0.1472
  305DOPS   C3B 3578   3.606   7.227  14.763 -0.0162  0.2038  0.2052
  305DOPS   C4B 3579   3.567   7.184  15.172  0.2678  0.1471  0.0122
  306DOPC   NC3 3580   1.105   8.348  12.185 -0.1284 -0.1587  0.4367
  306DOPC   PO4 3581   1.386   8.102  12.288  0.0657  0.0205 -0.0542
  306DOPC   GL1 3582   1.626   8.389  12.367 -0.3267 -0.2090  0.1859
  306DOPC   GL2 3583   1.465   8.568  12.557 -0.3013  0.2183  0.2157
  306DOPC   C1A 3584   2.052   8.310  12.590  0.1781 -0.1568 -0.0212
  306DOPC   D2A 3585   2.222   8.228  13.014  0.1354 -0.1305  0.0126
  306DOPC   C3A 3586   2.513   8.518  13.219  0.2280  0.2990  0.2151
  306DOPC   C4A 3587   2.737   8.531  13.617 -0.1844  0.2118  0.1834
  306DOPC   C1B 3588   1.694   8.902  12.836 -0.0752 -0.2535 -0.3884
  306DOPC   D2B 3589   1.746   9.062  13.326 -0.2491  0.0073  0.2550
  306DOPC   C3B 3590   1.902   9.481  13.399  0.0975  0.1065  0.2266
  306DOPC   C4B 3591   2.066   9.833  13.619  0.0526  0.0136  0.0625
  307DOPE   NH3 3592   9.837   0.006  11.714 -0.4068 -0.3077  0.0114
  307DOPE   PO4 3593   9.553   0.124  11.850  0.0436 -0.0707  0.3022
  307DOPE   GL1 3594   9.942   0.304  12.063 -0.0908  0.2439 -0.2925
  307DOPE   GL2 3595   9.872   0.594  12.003  0.1558 -0.0762 -0.2719
  307DOPE   C1A 3596  10.283   0.331  12.401  0.0572  0.1890  0.2070
  307DOPE   D2A 3597  10.358   0.166  12.841 -0.2516  0.1315  0.1335
  307DOPE   C3A 3598  10.136  -0.074  13.184 -0.4482 -0.2534 -0.1427
  307DOPE   C4A 3599   9.981  -0.465  13.176  0.1542  0.0624  0.1617
  307DOPE   C1B 3600   9.865   0.601  12.482  0.4605  0.0865  0.0241
  307DOPE   D2B 3601  10.068   0.670  12.910 -0.1650 -0.2078  0.0633
  307DOPE   C3B 3602  10.128   0.472  13.290 -0.2302 -0.2145 -0.1942
  307DOPE   C4B 3603  10.244   0.558  13.721  0.0587 -0.0052 -0.0836
  308DOPE   NH3 3604   0.011  11.102  12.499 -0.1933 -0.0647  0.1987
  308DOPE   PO4 3605   0.307  11.236  12.552 -0.2383  0.0278 -0.5563
  308DOPE   GL1 3606   0.472  11.145  12.904 -0.1735 -0.3203 -0.1139
  308DOPE   GL2 3607   0.493  10.888  12.914 -0.1290 -0.1195  0.0868
  308DOPE   C1A 3608   0.351  11.428  13.328  0.1270 -0.2850 -0.1478
  308DOPE   D2A 3609   0.266  11.456  13.733 -0.0539  0.1797 -0.2065
  308DOPE   C3A 3610   0.390  11.074  13.992  0.3074  0.0233  0.0498
  308DOPE   C4A 3611   0.449  10.731  14.324 -0.0950 -0.3279  0.2050
  308DOPE   C1B 3612   0.607  10.499  13.146  0.2368 -0.0087 -0.2940
  308DOPE   D2B 3613   0.741  10.344  13.565  0.2513  0.1459  0.4185
  308DOPE   C3B 3614   0.521   9.993  13.685 -0.3967 -0.0961  0.1535
  308DOPE   C4B 3615   0.580   9.526  13.915  0.1146  0.3058  0.3900
  309POSM   NC3 3616   6.055   3.403  13.639 -0.3890 -0.0413  0.0761
  309POSM   PO4 3617   5.874   3.222  13.350 -0.0135 -0.1730 -0.1746
  309POSM   AM1 3618   5.912   3.000  13.611 -0.3116 -0.0465 -0.3659
  309POSM   AM2 3619   6.065   2.724  13.558  0.0950 -0.3613  0.1860
  309POSM   T1A 3620   5.795   2.787  14.014  0.0976  0.0026  0.1562
  309POSM   C2A 3621   5.419   2.672  14.194  0.0042 -0.1250  0.1605
  309POSM   C3A 3622   5.251   2.360  14.471 -0.4211  0.1152 -0.0740
  309POSM   C1B 3623   6.336   2.734  13.775  0.1463 -0.0913  0.0222
  309POSM   D2B 3624   6.610   2.947  14.050 -0.0166  0.1815  0.0154
  309POSM   C3B 3625   6.204   3.234  14.119  0.1398  0.3564  0.1221
  309POSM   C4B 3626   6.002   3.629  14.341  0.2464  0.4797  0.0710
  310DOPS   CNO 3627   9.048  11.133  12.274  0.2144  0.0867 -0.0411
  310DOPS   PO4 3628   9.059  10.802  12.135 -0.1009  0.1827  0.4362
  310DOPS   GL1 3629   9.184  10.525  12.306 -0.2167  0.0458 -0.0028
  310DOPS   GL2 3630   9.199  10.282  12.157  0.1371 -0.1426 -0.3222
  310DOPS   C1A 3631   9.090  10.183  12.639 -0.1982 -0.2387  0.0842
  310DOPS   D2A 3632   9.112   9.860  12.872 -0.1900  0.0404 -0.2768
  310DOPS   C3A 3633   8.974   9.479  12.902  0.1028 -0.1253 -0.0545
  310DOPS   C4A 3634   8.809   9.038  12.855  0.0220  0.2295  0.1751
  310DOPS   C1B 3635   8.942   9.862  12.128  0.0181 -0.0041 -0.2379
  310DOPS   D2B 3636   8.783   9.477  11.839 -0.3503 -0.0413  0.0062
  310DOPS   C3B 3637   8.983   9.060  12.011  0.3511 -0.3117 -0.0291
  310DOPS   C4B 3638   8.768   8.839  12.361  0.3745 -0.2509  0.0569
  311DOPC   NC3 3639   6.662   0.677  12.603  0.1223  0.1238 -0.1130
  311DOPC   PO4 3640   6.974   0.678  12.345 -0.1308 -0.1272 -0.1058
  311DOPC   GL1 3641   7.085   0.984  12.506 -0.1999 -0.2230 -0.3407
  311DOPC   GL2 3642   6.965   1.076  12.682  0.0805 -0.0361  0.1261
  311DOPC   C1A 3643   7.438   1.273  12.395 -0.2255 -0.3158  0.1145
  311DOPC   D2A 3644   7.256   1.667  12.428  0.3288  0.1289  0.1325
  311DOPC   C3A 3645   6.966   1.775  12.766  0.0799  0.1602 -0.2558
  311DOPC   C4A 3646   6.867   2.010  13.151  0.0695 -0.0851  0.4395
  311DOPC   C1B 3647   6.606   1.279  12.825 -0.1840  0.2146  0.1438
  311DOPC   D2B 3648   6.448   1.678  12.908 -0.1544 -0.2399 -0.0774
  311DOPC   C3B 3649   6.320   1.884  13.358  0.0269 -0.0747  0.2229
  311DOPC   C4B 3650   5.951   2.146  13.605 -0.0176  0.1920 -0.1519
  312DOPE   NH3 3651  34.546   3.237  12.402  0.0256  0.1649  0.0022
  312DOPE   PO4 3652  34.588   2.922  12.522  0.0705  0.1036  0.0612
  312DOPE   GL1 3653  34.683   2.909  12.824  0.0587 -0.6719  0.1296
  312DOPE   GL2 3654  34.716   3.189  12.957 -0.1791  0.0335 -0.0018
  312DOPE   C1A 3655  34.975   2.777  13.159  0.2359 -0.0231 -0.0110
  312DOPE   D2A 3656  34.979   2.746  13.624  0.2177 -0.0246  0.0315
  312DOPE   C3A 3657  34.862   2.698  14.097 -0.2532  0.0502  0.3365
  312DOPE   C4A 3658  34.893   2.686  14.567  0.0758  0.0009 -0.0337
  312DOPE   C1B 3659  34.891   3.275  13.376  0.1143 -0.1088  0.0007
  312DOPE   D2B 3660  34.778   3.568  13.687  0.2923  0.2130 -0.0790
  312DOPE   C3B 3661  34.884   3.227  13.944  0.1157  0.4524 -0.0868
  312DOPE   C4B 3662  35.132   3.108  14.351  0.1189 -0.3395 -0.2817
  313DOPS   CNO 3663   5.559   3.090  12.386  0.2184  0.0371 -0.0980
  313DOPS   PO4 3664   5.411   2.804  12.595 -0.0057  0.3512  0.0245
  313DOPS   GL1 3665   5.642   2.596  12.897 -0.0243  0.1619 -0.0586
  313DOPS   GL2 3666   5.791   2.483  12.667 -0.0661  0.4461  0.2682
  313DOPS   C1A 3667   5.805   2.200  13.073  0.0080 -0.3235 -0.4705
  313DOPS   D2A 3668   5.852   1.803  13.325  0.1477  0.0032 -0.1657
  313DOPS   C3A 3669   5.492   1.539  13.354 -0.0734 -0.0258  0.0572
  313DOPS   C4A 3670   5.008   1.367  13.462 -0.1146  0.0970 -0.0835
  313DOPS   C1B 3671   6.199   2.245  12.648 -0.0042 -0.2275  0.3233
  313DOPS   D2B 3672   6.676   2.234  12.627 -0.1094  0.0653 -0.1341
  313DOPS   C3B 3673   6.994   2.430  12.857  0.2538 -0.2402  0.0320
  313DOPS   C4B 3674   7.312   2.665  13.060 -0.0565 -0.0606  0.2634
  314DOPS   CNO 3675   9.494   7.577  12.511 -0.0266  0.3243 -0.0799
  314DOPS   PO4 3676   9.545   7.797  12.202 -0.1163 -0.0988  0.0861
  314DOPS   GL1 3677   9.510   8.239  12.302  0.0933 -0.0356  0.0641
  314DOPS   GL2 3678   9.362   8.142  12.550 -0.4862  0.1802  0.0274
  314DOPS   C1A 3679   9.333   8.648  12.336 -0.0693 -0.0948  0.1984
  314DOPS   D2A 3680   9.338   9.006  12.474 -0.0997 -0.1690  0.1302
  314DOPS   C3A 3681   9.381   8.901  12.918  0.2235  0.0626 -0.2159
  314DOPS   C4A 3682   9.710   8.935  13.218  0.2331  0.0027 -0.0779
  314DOPS   C1B 3683   8.889   8.192  12.550  0.2854 -0.1990 -0.2523
  314DOPS   D2B 3684   8.468   7.898  12.731  0.1126  0.2905 -0.1478
  314DOPS   C3B 3685   8.264   8.043  13.141  0.1446 -0.3930 -0.3337
  314DOPS   C4B 3686   8.087   8.430  13.307  0.1785  0.0056 -0.0592
  315DOPE   NH3 3687   0.242  10.615  12.542 -0.0988 -0.2017 -0.0811
  315DOPE   PO4 3688   0.028  10.402  12.613  0.2577 -0.1303  0.1559
  315DOPE   GL1 3689  -0.034  10.230  12.939  0.1670  0.3636  0.2780
  315DOPE   GL2 3690  -0.261   9.999  12.952 -0.1133 -0.2084  0.1575
  315DOPE   C1A 3691   0.225  10.109  13.281  0.0842 -0.0341  0.1389
  315DOPE   D2A 3692  -0.049   9.938  13.628  0.3454 -0.1409  0.0487
  315DOPE   C3A 3693   0.163   9.992  14.041 -0.1511 -0.0606  0.1615
  315DOPE   C4A 3694   0.102  10.431  14.163  0.2708 -0.0272 -0.0927
  315DOPE   C1B 3695  -0.390   9.819  13.344 -0.1042  0.2970 -0.0143
  315DOPE   D2B 3696  -0.592   9.425  13.561 -0.0031  0.1325 -0.0620
  315DOPE   C3B 3697  -0.263   9.179  13.863 -0.1183  0.1275 -0.1110
  315DOPE   C4B 3698  -0.349   8.996  14.290  0.0588 -0.3116 -0.0752
  316DOPE   NH3 3699   3.387   6.108  12.777  0.0345  0.0298 -0.1069
  316DOPE   PO4 3700   3.644   6.223  12.952 -0.2472 -0.2481  0.0893
  316DOPE   GL1 3701   3.818   6.197  13.350 -0.0002 -0.0433 -0.1057
  316DOPE   GL2 3702   3.738   5.957  13.345  0.3477 -0.3607  0.0140
  316DOPE   C1A 3703   4.164   6.175  13.592  0.3779 -0.0683  0.1754
  316DOPE   D2A 3704   4.390   6.493  13.819 -0.2179 -0.1660  0.0080
  316DOPE   C3A 3705   4.821   6.518  14.027 -0.0239 -0.0097 -0.1098
  316DOPE   C4A 3706   5.035   6.299  14.337  0.1826 -0.1218 -0.1525
  316DOPE   C1B 3707   4.134   5.698  13.486  0.0263  0.0109  0.1684
  316DOPE   D2B 3708   4.319   5.383  13.795 -0.3056 -0.1605  0.0532
  316DOPE   C3B 3709   4.339   5.537  14.262 -0.0701 -0.1717  0.4595
  316DOPE   C4B 3710   4.296   5.487  14.717 -0.4168 -0.4256  0.3838
  317POSM   NC3 3711  10.801  34.665  11.919 -0.0749  0.1653 -0.0733
  317POSM   PO4 3712  10.952  34.968  12.133 -0.1976  0.0232  0.2348
  317POSM   AM1 3713  10.815  34.937  12.446 -0.4993  0.0880  0.1158
  317POSM   AM2 3714  10.830  34.687  12.585  0.0030 -0.0034  0.1314
  317POSM   T1A 3715  10.691  35.195  12.831 -0.0785  0.0838  0.1241
  317POSM   C2A 3716  10.572  35.460  13.161 -0.1095  0.1153 -0.0693
  317POSM   C3A 3717  10.299  35.744  13.438  0.1779  0.1488 -0.0365
  317POSM   C1B 3718  10.839  34.688  12.939 -0.0623 -0.5026 -0.0325
  317POSM   D2B 3719  10.610  34.962  13.257  0.1044 -0.1231 -0.2068
  317POSM   C3B 3720  10.488  34.759  13.677  0.3241 -0.1014 -0.2822
  317POSM   C4B 3721  10.385  34.544  14.076  0.0233  0.0468  0.0445
  318DOPC   NC3 3722   8.592   4.234  12.450 -0.3847  0.0934 -0.0154
  318DOPC   PO4 3723   8.824   4.055  12.704 -0.1854  0.0143 -0.0365
  318DOPC   GL1 3724   8.488   4.021  12.937  0.1692  0.3581 -0.0254
  318DOPC   GL2 3725   8.420   3.821  13.076  0.2198 -0.2126  0.2585
  318DOPC   C1A 3726   8.313   4.325  13.269 -0.3792  0.0089 -0.0752
  318DOPC   D2A 3727   7.861   4.434  13.332  0.0766  0.1234  0.1098
  318DOPC   C3A 3728   7.690   4.851  13.359 -0.0467 -0.0308 -0.0708
  318DOPC   C4A 3729   7.285   5.027  13.177 -0.0612 -0.1737  0.2076
  318DOPC   C1B 3730   8.251   3.617  13.424 -0.0533  0.1036  0.1027
  318DOPC   D2B 3731   8.159   3.754  13.873  0.2009 -0.1641  0.4887
  318DOPC   C3B 3732   8.052   4.199  13.757 -0.2465 -0.1702 -0.1314
  318DOPC   C4B 3733   7.788   4.587  13.820 -0.1544 -0.6741  0.1274
  319DOPC   NC3 3734   2.963   5.410  12.473  0.4506  0.1244  0.0006
  319DOPC   PO4 3735   3.081   5.330  12.843 -0.2529 -0.1011 -0.0242
  319DOPC   GL1 3736   3.142   5.010  13.082  0.2694 -0.0693  0.0656
  319DOPC   GL2 3737   3.312   5.095  13.295  0.2428 -0.0512  0.2240
  319DOPC   C1A 3738   3.107   4.704  13.436  0.3214  0.1776 -0.2217
  319DOPC   D2A 3739   3.276   4.688  13.874 -0.1010  0.0599  0.0818
  319DOPC   C3A 3740   3.080   4.313  14.117  0.1879  0.1552  0.1229
  319DOPC   C4A 3741   2.663   4.101  14.189 -0.2857 -0.0147 -0.1328
  319DOPC   C1B 3742   3.207   5.324  13.672 -0.0329 -0.2529 -0.0216
  319DOPC   D2B 3743   3.223   5.548  14.052  0.0538  0.0024  0.0696
  319DOPC   C3B 3744   3.551   5.300  14.285 -0.4033  0.1123  0.1856
  319DOPC   C4B 3745   4.013   5.202  14.484  0.0517  0.2662  0.0256
  320DOPE   NH3 3746   7.840  10.912  12.505 -0.1267 -0.0200  0.0913
  320DOPE   PO4 3747   8.087  11.024  12.283 -0.1482  0.0453  0.1087
  320DOPE   GL1 3748   8.336  11.239  12.528  0.0432  0.0677  0.1559
  320DOPE   GL2 3749   8.675  11.236  12.614  0.2374  0.0624  0.1346
  320DOPE   C1A 3750   8.476  11.604  12.819  0.1025  0.1662  0.2386
  320DOPE   D2A 3751   8.266  11.779  13.140  0.4539  0.0799 -0.3035
  320DOPE   C3A 3752   8.470  12.130  13.427 -0.0606  0.1154  0.3014
  320DOPE   C4A 3753   8.514  12.465  13.774 -0.2004  0.1507 -0.1640
  320DOPE   C1B 3754   8.643  11.173  13.073  0.2680  0.2680  0.0419
  320DOPE   D2B 3755   8.515  10.733  13.261 -0.1759  0.2791 -0.1439
  320DOPE   C3B 3756   8.752  10.270  13.400 -0.0643 -0.1964  0.0890
  320DOPE   C4B 3757   9.140  10.172  13.206 -0.1935  0.1979  0.0061
  321POSM   NC3 3758   9.522  10.792  12.020  0.2825  0.0501  0.1824
  321POSM   PO4 3759   9.788  10.994  12.283 -0.1861 -0.1535  0.1359
  321POSM   AM1 3760   9.771  10.699  12.464  0.0963 -0.0436  0.0772
  321POSM   AM2 3761   9.930  10.699  12.733 -0.2740 -0.1541  0.0575
  321POSM   T1A 3762   9.665  10.242  12.279  0.0230  0.0226 -0.2758
  321POSM   C2A 3763   9.421   9.882  12.408  0.3720  0.1529  0.1471
  321POSM   C3A 3764   9.203   9.501  12.342  0.0213  0.1586  0.0225
  321POSM   C1B 3765   9.888  10.786  13.051  0.1027  0.1751 -0.1043
  321POSM   D2B 3766   9.965  11.142  13.394 -0.0952 -0.1144  0.1796
  321POSM   C3B 3767   9.871  10.875  13.776 -0.0525 -0.2093 -0.0441
  321POSM   C4B 3768   9.516  10.729  14.082  0.0073  0.0463  0.0128
  322DOPE   NH3 3769   6.205   6.703  12.653  0.0650  0.0256 -0.4442
  322DOPE   PO4 3770   6.437   6.656  12.830 -0.3209  0.1272  0.0456
  322DOPE   GL1 3771   6.316   6.486  13.159 -0.0406 -0.3725 -0.0466
  322DOPE   GL2 3772   6.482   6.212  13.127 -0.0664 -0.2339 -0.0283
  322DOPE   C1A 3773   6.528   6.525  13.624  0.0630  0.1035  0.0173
  322DOPE   D2A 3774   6.636   6.873  13.848  0.0226 -0.0013 -0.2130
  322DOPE   C3A 3775   7.025   7.010  13.957 -0.1269 -0.4665  0.1764
  322DOPE   C4A 3776   7.472   6.874  13.929  0.0343 -0.3263 -0.0187
  322DOPE   C1B 3777   6.749   6.088  13.550  0.1407 -0.1633  0.1860
  322DOPE   D2B 3778   7.203   6.051  13.589  0.0217 -0.0547  0.0042
  322DOPE   C3B 3779   7.335   6.129  14.039 -0.3016 -0.0011  0.1451
  322DOPE   C4B 3780   7.158   6.052  14.471 -0.0055  0.1394 -0.1669
  323DOPC   NC3 3781   8.109   5.481  12.211  0.0546  0.3730  0.0897
  323DOPC   PO4 3782   8.109   5.830  12.404  0.0118 -0.2453 -0.0266
  323DOPC   GL1 3783   8.055   5.560  12.635  0.2441  0.0789  0.1369
  323DOPC   GL2 3784   7.780   5.488  12.609 -0.0605 -0.0087 -0.0000
  323DOPC   C1A 3785   8.050   5.623  13.113  0.2598  0.3128 -0.0532
  323DOPC   D2A 3786   8.131   5.742  13.549  0.0149  0.1761  0.0186
  323DOPC   C3A 3787   8.533   5.933  13.745  0.1597 -0.1767  0.1167
  323DOPC   C4A 3788   8.642   5.874  14.178 -0.1931 -0.1839 -0.0895
  323DOPC   C1B 3789   7.571   5.349  12.954  0.0445  0.1200 -0.0974
  323DOPC   D2B 3790   7.715   5.371  13.355  0.4061 -0.1648  0.3500
  323DOPC   C3B 3791   7.439   5.173  13.658  0.2035  0.0906  0.1285
  323DOPC   C4B 3792   7.230   4.850  13.933 -0.3796  0.1598 -0.3836
  324DOPS   CNO 3793   1.702   1.518  12.357  0.1303  0.1743  0.3122
  324DOPS   PO4 3794   1.845   1.482  12.707 -0.2520  0.0709  0.0758
  324DOPS   GL1 3795   1.806   1.312  13.043 -0.0695 -0.2006 -0.1321
  324DOPS   GL2 3796   2.037   1.162  13.138  0.3640  0.1404  0.0528
  324DOPS   C1A 3797   1.579   1.030  13.380  0.0557  0.5843  0.0927
  324DOPS   D2A 3798   1.110   1.157  13.469  0.0721 -0.0187  0.2228
  324DOPS   C3A 3799   0.819   1.388  13.757  0.2157 -0.0835  0.2611
  324DOPS   C4A 3800   0.528   1.678  14.031  0.0426  0.0129  0.0052
  324DOPS   C1B 3801   2.046   1.020  13.588 -0.0232  0.1020  0.2671
  324DOPS   D2B 3802   2.193   0.771  13.942 -0.0057  0.1263 -0.0387
  324DOPS   C3B 3803   1.951   0.716  14.330 -0.1133 -0.0308 -0.0246
  324DOPS   C4B 3804   1.496   0.857  14.349 -0.0907  0.3121 -0.0863
  325DOPE   NH3 3805   4.116   9.366  12.895 -0.0595 -0.1849  0.0960
  325DOPE   PO4 3806   4.076   9.554  13.113  0.1768  0.1240 -0.3864
  325DOPE   GL1 3807   3.726   9.591  13.405 -0.0700 -0.0215 -0.4694
  325DOPE   GL2 3808   3.885   9.516  13.595  0.1992  0.1820 -0.1475
  325DOPE   C1A 3809   3.331   9.546  13.619  0.2057  0.2030 -0.1133
  325DOPE   D2A 3810   2.878   9.536  13.630 -0.0424 -0.1478 -0.1922
  325DOPE   C3A 3811   2.780   9.554  14.122  0.0674 -0.0986  0.0713
  325DOPE   C4A 3812   2.472   9.834  14.331  0.1154  0.0987 -0.1269
  325DOPE   C1B 3813   3.712   9.379  13.963 -0.2251 -0.0206 -0.1249
  325DOPE   D2B 3814   3.768   9.299  14.402  0.0330 -0.2059 -0.1255
  325DOPE   C3B 3815   4.207   9.304  14.485 -0.0621  0.1381  0.0071
  325DOPE   C4B 3816   4.381   9.598  14.825 -0.1344  0.1235  0.0249
  326DOPE   NH3 3817   2.613   5.467  12.957  0.1014 -0.0116  0.1883
  326DOPE   PO4 3818   2.507   5.459  12.654 -0.0876  0.1011 -0.1149
  326DOPE   GL1 3819   2.594   5.048  12.610 -0.1864  0.0092  0.2117
  326DOPE   GL2 3820   2.713   4.974  12.949  0.0894 -0.3903 -0.2145
  326DOPE   C1A 3821   2.473   4.766  12.257  0.1058  0.1552  0.1804
  326DOPE   D2A 3822   2.423   4.287  12.239  0.0133  0.1220  0.0890
  326DOPE   C3A 3823   2.752   4.057  12.413  0.1769  0.3805 -0.0119
  326DOPE   C4A 3824   3.128   3.812  12.529 -0.0710 -0.0943  0.1859
  326DOPE   C1B 3825   2.625   4.683  13.276  0.0003 -0.0967 -0.1751
  326DOPE   D2B 3826   2.501   4.199  13.289  0.2818  0.0165 -0.1809
  326DOPE   C3B 3827   2.575   3.711  13.297 -0.0708 -0.3400  0.1090
  326DOPE   C4B 3828   2.360   3.283  13.303 -0.0154  0.0379  0.0600
  327DOPS   CNO 3829  10.231  11.193  12.212  0.0352  0.4523  0.0258
  327DOPS   PO4 3830  10.317  11.128  12.556 -0.2488  0.0371  0.0171
  327DOPS   GL1 3831  10.323  11.208  12.903  0.0837 -0.0915 -0.2483
  327DOPS   GL2 3832  10.608  11.314  12.927  0.1464 -0.0081 -0.0077
  327DOPS   C1A 3833  10.188  11.608  13.127  0.1345  0.0577 -0.0718
  327DOPS   D2A 3834  10.318  11.901  13.389 -0.2668  0.0816  0.2798
  327DOPS   C3A 3835  10.507  11.627  13.710  0.1963 -0.2505  0.1824
  327DOPS   C4A 3836  10.213  11.262  13.908  0.1315 -0.0836  0.1591
  327DOPS   C1B 3837  10.418  11.187  13.402  0.0509 -0.1287  0.1366
  327DOPS   D2B 3838  10.420  10.859  13.744 -0.0336  0.4518  0.0932
  327DOPS   C3B 3839  10.176  10.526  13.945 -0.0389 -0.1576 -0.1335
  327DOPS   C4B 3840   9.791  10.272  13.998 -0.0672 -0.1121  0.1280
  328DOPE   NH3 3841  11.425   3.146  12.185  0.1259  0.4605 -0.3185
  328DOPE   PO4 3842  11.293   2.945  12.418  0.2722 -0.0593  0.1778
  328DOPE   GL1 3843  11.482   2.702  12.823 -0.2470  0.0723 -0.1919
  328DOPE   GL2 3844  11.381   2.462  12.620  0.0725  0.1142 -0.2082
  328DOPE   C1A 3845  11.187   2.562  13.200 -0.2227 -0.0452 -0.2347
  328DOPE   D2A 3846  10.762   2.640  13.323  0.0683  0.4292 -0.0334
  328DOPE   C3A 3847  10.739   2.479  13.712  0.4059 -0.0659  0.1039
  328DOPE   C4A 3848  10.508   2.280  14.090  0.1688 -0.3658 -0.2270
  328DOPE   C1B 3849  11.417   2.180  12.973  0.0136  0.1603 -0.0400
  328DOPE   D2B 3850  11.385   1.687  12.937  0.1548  0.1679 -0.0417
  328DOPE   C3B 3851  11.787   1.423  12.914 -0.0307  0.0471 -0.3007
  328DOPE   C4B 3852  12.064   1.129  12.847  0.1214 -0.0838  0.3221
  329DOPS   CNO 3853   5.377   0.566  12.246 -0.2127  0.1806  0.1157
  329DOPS   PO4 3854   5.262   0.826  12.509  0.1412  0.0026  0.0197
  329DOPS   GL1 3855   5.069   0.870  12.883 -0.1740  0.0119  0.4091
  329DOPS   GL2 3856   5.091   0.582  12.960  0.0020 -0.1417  0.3906
  329DOPS   C1A 3857   4.864   0.872  13.274  0.2384 -0.1428  0.0839
  329DOPS   D2A 3858   4.727   0.936  13.700  0.0272  0.2830  0.1727
  329DOPS   C3A 3859   4.352   1.258  13.776 -0.2538 -0.1805 -0.0251
  329DOPS   C4A 3860   4.278   1.482  14.166  0.1901 -0.2626  0.0004
  329DOPS   C1B 3861   5.242   0.482  13.365 -0.0019 -0.0211 -0.0208
  329DOPS   D2B 3862   5.706   0.598  13.480  0.0969  0.1403  0.5790
  329DOPS   C3B 3863   5.692   0.886  13.781 -0.1254 -0.1731 -0.1514
  329DOPS   C4B 3864   5.704   1.313  13.988 -0.1891  0.1622  0.1218
  330DOPS   CNO 3865  10.654   1.707  11.626 -0.0795 -0.1013 -0.1102
  330DOPS   PO4 3866  10.992   1.475  11.601 -0.0160  0.0002 -0.0598
  330DOPS   GL1 3867  10.802   1.293  11.989 -0.0064  0.1236 -0.1033
  330DOPS   GL2 3868  10.664   1.461  12.188 -0.1411  0.1038 -0.0640
  330DOPS   C1A 3869  11.001   0.916  12.270 -0.2532  0.0128  0.3198
  330DOPS   D2A 3870  11.104   0.642  12.635 -0.1863 -0.2493  0.2507
  330DOPS   C3A 3871  11.073   0.732  13.068 -0.0852 -0.0571  0.1622
  330DOPS   C4A 3872  11.069   0.997  13.442  0.1755 -0.0336  0.0197
  330DOPS   C1B 3873  10.515   1.418  12.636  0.0518  0.2958 -0.0330
  330DOPS   D2B 3874  10.255   1.137  12.898  0.0687 -0.0386  0.0153
  330DOPS   C3B 3875  10.013   1.435  13.145 -0.1991 -0.5288  0.1374
  330DOPS   C4B 3876   9.813   1.391  13.572  0.0826  0.2457  0.0770
  331DOPC   NC3 3877   4.648   1.803  12.571 -0.0963  0.0405  0.0599
  331DOPC   PO4 3878   4.564   2.146  12.387  0.0401 -0.0688  0.1182
  331DOPC   GL1 3879   4.260   2.071  12.595  0.0178 -0.5895  0.0749
  331DOPC   GL2 3880   4.074   2.286  12.499 -0.0962  0.0136 -0.0901
  331DOPC   C1A 3881   4.126   1.695  12.804 -0.0864 -0.1997  0.1474
  331DOPC   D2A 3882   3.663   1.567  12.747  0.0754  0.1186 -0.2101
  331DOPC   C3A 3883   3.512   1.996  12.689 -0.1053  0.1911  0.0271
  331DOPC   C4A 3884   3.505   2.432  12.799 -0.0475  0.1144  0.3013
  331DOPC   C1B 3885   3.919   2.235  12.956  0.1995 -0.1376  0.0938
  331DOPC   D2B 3886   3.760   1.907  13.247 -0.0708  0.2505  0.0489
  331DOPC   C3B 3887   3.943   2.022  13.635  0.0125  0.0001 -0.3466
  331DOPC   C4B 3888   3.855   1.943  14.055  0.0227  0.2789 -0.0800
  332DOPC   NC3 3889  10.080   6.674  12.295  0.2385  0.1677 -0.2483
  332DOPC   PO4 3890   9.879   6.497  12.564  0.0479 -0.2531 -0.1616
  332DOPC   GL1 3891   9.842   6.582  12.928  0.0245  0.6030  0.3861
  332DOPC   GL2 3892   9.903   6.897  13.003  0.0199  0.0555 -0.0850
  332DOPC   C1A 3893   9.630   6.473  13.350  0.0984 -0.1148 -0.0727
  332DOPC   D2A 3894   9.512   6.724  13.689  0.1861 -0.3626  0.3840
  332DOPC   C3A 3895   9.566   6.671  14.060  0.1068 -0.0269 -0.0223
  332DOPC   C4A 3896   9.868   6.411  14.353  0.1192  0.2082 -0.0221
  332DOPC   C1B 3897   9.606   7.025  13.309 -0.2908 -0.1683 -0.0970
  332DOPC   D2B 3898   9.301   7.274  13.516  0.0304  0.0636  0.0455
  332DOPC   C3B 3899   9.247   7.265  13.971 -0.1130  0.0192 -0.3981
  332DOPC   C4B 3900   9.302   7.339  14.442 -0.0487 -0.4851 -0.0197
  333DOPE   NH3 3901   6.182   3.989  12.593  0.0923  0.1730  0.2477
  333DOPE   PO4 3902   6.161   4.162  12.857 -0.4238 -0.2705 -0.1223
  333DOPE   GL1 3903   6.013   4.009  13.184  0.1249 -0.1223 -0.3444
  333DOPE   GL2 3904   6.071   4.277  13.342 -0.0720  0.0049 -0.0733
  333DOPE   C1A 3905   6.390   3.926  13.376 -0.1062 -0.0801 -0.0354
  333DOPE   D2A 3906   6.573   3.732  13.750 -0.1111  0.0054 -0.1046
  333DOPE   C3A 3907   6.568   3.274  13.635 -0.1970 -0.0386 -0.1345
  333DOPE   C4A 3908   6.983   3.068  13.700  0.1656 -0.2940 -0.0050
  333DOPE   C1B 3909   6.217   4.692  13.523  0.0619  0.0024  0.0978
  333DOPE   D2B 3910   6.379   4.786  13.965 -0.3594 -0.0478 -0.0326
  333DOPE   C3B 3911   6.781   4.720  13.974 -0.2103  0.1586 -0.3134
  333DOPE   C4B 3912   7.048   4.501  14.259  0.1948 -0.1841  0.2766
  334DOPC   NC3 3913   9.790  11.530  12.030 -0.3159 -0.1198  0.1648
  334DOPC   PO4 3914   9.468  11.400  12.175 -0.1336  0.7091 -0.3818
  334DOPC   GL1 3915   9.387  11.207  12.584  0.2762  0.0125  0.0447
  334DOPC   GL2 3916   9.354  10.943  12.587  0.1596  0.1590 -0.0867
  334DOPC   C1A 3917   9.053  11.294  12.919  0.2971 -0.0784 -0.0637
  334DOPC   D2A 3918   9.051  11.294  13.384 -0.0937 -0.2097 -0.2598
  334DOPC   C3A 3919   9.119  11.633  13.713  0.2429 -0.3091 -0.3199
  334DOPC   C4A 3920   9.083  11.714  14.134 -0.0730 -0.0652 -0.0277
  334DOPC   C1B 3921   9.454  10.517  12.743  0.2715  0.0223 -0.1402
  334DOPC   D2B 3922   9.603  10.086  12.790 -0.0338 -0.2930  0.0287
  334DOPC   C3B 3923   9.573   9.826  13.135 -0.4455 -0.1223  0.1459
  334DOPC   C4B 3924   9.930   9.436  13.251  0.2214  0.0298 -0.0985
  335POSM   NC3 3925   6.014   2.826  13.088  0.1390 -0.2377  0.2207
  335POSM   PO4 3926   5.616   2.809  13.281  0.0985 -0.1835  0.2557
  335POSM   AM1 3927   5.349   2.816  13.484  0.2351  0.1435 -0.0485
  335POSM   AM2 3928   5.097   2.692  13.557 -0.0940 -0.0306  0.1407
  335POSM   T1A 3929   5.136   3.011  13.905  0.0545 -0.0497 -0.5603
  335POSM   C2A 3930   5.192   3.169  14.328 -0.0088  0.1933 -0.0484
  335POSM   C3A 3931   5.382   3.109  14.776  0.0078 -0.1292  0.0609
  335POSM   C1B 3932   5.260   2.485  13.799 -0.0899  0.0986 -0.1141
  335POSM   D2B 3933   5.493   2.230  14.080 -0.3099  0.3049 -0.0777
  335POSM   C3B 3934   5.981   2.329  14.210 -0.0768 -0.1735  0.1076
  335POSM   C4B 3935   6.218   2.372  14.636 -0.3857  0.1384  0.0288
  336DOPC   NC3 3936   4.147   8.843  12.300 -0.0651  0.3448  0.0433
  336DOPC   PO4 3937   3.888   8.878  12.624 -0.1406 -0.2042  0.1763
  336DOPC   GL1 3938   3.655   8.766  12.904 -0.0911  0.0771 -0.2594
  336DOPC   GL2 3939   3.320   8.866  12.958  0.0006  0.1587  0.2447
  336DOPC   C1A 3940   3.507   8.333  13.080 -0.1798 -0.3641 -0.0913
  336DOPC   D2A 3941   3.530   7.880  13.274  0.0916  0.0678  0.0280
  336DOPC   C3A 3942   3.052   7.821  13.242 -0.2115  0.2596 -0.0179
  336DOPC   C4A 3943   2.677   7.564  13.331  0.0117  0.0118  0.3205
  336DOPC   C1B 3944   3.027   8.573  13.182 -0.2560 -0.1566 -0.0078
  336DOPC   D2B 3945   3.177   8.246  13.491 -0.0835  0.0099 -0.1525
  336DOPC   C3B 3946   3.188   8.514  13.886 -0.0452 -0.0081 -0.0176
  336DOPC   C4B 3947   3.282   8.483  14.348  0.2311 -0.1091 -0.2580
  337DOPC   NC3 3948   6.602   9.093  12.516  0.2779 -0.2580 -0.2808
  337DOPC   PO4 3949   6.318   9.210  12.812 -0.3230 -0.0299 -0.0914
  337DOPC   GL1 3950   6.417   9.279  13.236  0.0863 -0.1253 -0.1711
  337DOPC   GL2 3951   6.642   9.525  13.151 -0.0617 -0.0953  0.1759
  337DOPC   C1A 3952   6.293   9.438  13.656  0.0668  0.1639  0.2582
  337DOPC   D2A 3953   6.692   9.473  13.859  0.0672  0.0140  0.1204
  337DOPC   C3A 3954   6.934   9.063  14.021  0.2339 -0.1918  0.1433
  337DOPC   C4A 3955   7.211   8.945  14.368  0.2157  0.0313 -0.2827
  337DOPC   C1B 3956   6.800   9.124  13.374 -0.2996  0.1721 -0.0317
  337DOPC   D2B 3957   6.548   8.889  13.746 -0.0753 -0.2262 -0.0402
  337DOPC   C3B 3958   6.606   8.436  13.797 -0.0826 -0.0028  0.1209
  337DOPC   C4B 3959   6.737   8.121  14.087  0.2065 -0.0685  0.1619
  338DOPE   NH3 3960   3.702   9.322  12.656  0.2114 -0.1440 -0.0383
  338DOPE   PO4 3961   3.620   9.572  12.830  0.3080  0.5990 -0.0936
  338DOPE   GL1 3962   3.450   9.776  13.109 -0.0702  0.1729  0.1406
  338DOPE   GL2 3963   3.335   9.948  13.030  0.1992 -0.0869 -0.2438
  338DOPE   C1A 3964   3.596  10.016  13.481 -0.1536  0.2640  0.1140
  338DOPE   D2A 3965   3.731   9.967  13.905  0.0985  0.0212  0.3020
  338DOPE   C3A 3966   3.633  10.201  14.307  0.2264  0.0088 -0.1762
  338DOPE   C4A 3967   3.561   9.934  14.652  0.0906  0.0090  0.1787
  338DOPE   C1B 3968   3.139  10.020  13.386 -0.1469 -0.3486 -0.1067
  338DOPE   D2B 3969   3.177   9.952  13.852  0.2504  0.0451  0.2210
  338DOPE   C3B 3970   3.350   9.643  14.173 -0.0523  0.0363 -0.2876
  338DOPE   C4B 3971   3.286   9.490  14.527  0.0899  0.2755 -0.4696
  339DOPE   NH3 3972   3.216  10.947  13.051 -0.2154 -0.4394  0.0279
  339DOPE   PO4 3973   3.290  10.848  12.734 -0.0197 -0.1167  0.2657
  339DOPE   GL1 3974   3.146  10.468  12.810 -0.1323 -0.0915 -0.2241
  339DOPE   GL2 3975   3.053  10.427  12.518 -0.1611 -0.1836 -0.0644
  339DOPE   C1A 3976   2.848  10.301  13.154  0.1937  0.2876 -0.1728
  339DOPE   D2A 3977   2.593  10.015  13.419  0.1230 -0.1712 -0.3066
  339DOPE   C3A 3978   2.430  10.003  13.859  0.1227 -0.2981 -0.1562
  339DOPE   C4A 3979   2.039  10.063  14.145 -0.0354  0.0191  0.2214
  339DOPE   C1B 3980   2.725  10.681  12.244 -0.1461 -0.3682  0.0951
  339DOPE   D2B 3981   2.468  11.006  12.421 -0.3084  0.2236 -0.1699
  339DOPE   C3B 3982   2.171  10.793  12.760  0.0824 -0.5240 -0.1806
  339DOPE   C4B 3983   1.732  10.756  12.974  0.0480 -0.0878 -0.0417
  340DOPC   NC3 3984   0.146   6.758  12.928  0.0249  0.0679  0.0675
  340DOPC   PO4 3985   0.044   7.074  12.731 -0.4183  0.0154  0.2328
  340DOPC   GL1 3986  -0.065   7.163  13.019  0.4939  0.1881 -0.0867
  340DOPC   GL2 3987  -0.142   7.065  13.292 -0.1624 -0.1802  0.0025
  340DOPC   C1A 3988   0.160   7.447  13.313  0.0137  0.3650  0.2264
  340DOPC   D2A 3989   0.219   7.305  13.747 -0.1903 -0.0570 -0.3095
  340DOPC   C3A 3990   0.165   7.567  14.129 -0.2467 -0.2810 -0.1026
  340DOPC   C4A 3991   0.621   7.690  14.240  0.2966  0.3386  0.1853
  340DOPC   C1B 3992  -0.277   7.214  13.736 -0.3419  0.0042 -0.2571
  340DOPC   D2B 3993  -0.629   7.031  14.036 -0.0966 -0.1011 -0.1654
  340DOPC   C3B 3994  -0.857   6.667  13.866 -0.0522  0.0700 -0.0957
  340DOPC   C4B 3995  -0.850   6.270  13.610 -0.0555 -0.0252  0.0983
  341DOPE   NH3 3996   9.166   6.677  12.300 -0.0571  0.0576 -0.0193
  341DOPE   PO4 3997   9.412   6.539  12.399  0.3118 -0.0399  0.3105
  341DOPE   GL1 3998   9.453   6.284  12.759  0.1286 -0.2613  0.2907
  341DOPE   GL2 3999   9.341   6.430  12.976 -0.1831 -0.3714 -0.0990
  341DOPE   C1A 4000   9.795   6.024  12.996 -0.1600 -0.0508  0.4281
  341DOPE   D2A 4001  10.116   6.093  13.256 -0.2885  0.0373  0.0471
  341DOPE   C3A 4002  10.178   5.963  13.654  0.1142 -0.5399 -0.2042
  341DOPE   C4A 4003  10.074   5.986  14.093  0.1255 -0.4619  0.0242
  341DOPE   C1B 4004   9.389   6.027  13.168 -0.1243  0.1751  0.0143
  341DOPE   D2B 4005   9.344   5.573  13.235  0.2039 -0.2355  0.0063
  341DOPE   C3B 4006   9.620   5.275  13.033 -0.1282  0.0848  0.1105
  341DOPE   C4B 4007   9.975   4.979  13.060 -0.0491  0.0824  0.1014
  342DOPS   CNO 4008   6.608  10.613  12.549 -0.0416  0.2896 -0.1387
  342DOPS   PO4 4009   6.708  10.244  12.615 -0.1671 -0.3908 -0.0178
  342DOPS   GL1 4010   6.754  10.387  12.960 -0.3169 -0.1414  0.0738
  342DOPS   GL2 4011   6.807  10.639  13.024  0.0029 -0.3269 -0.1309
  342DOPS   C1A 4012   6.596  10.234  13.350  0.0089  0.1717 -0.2282
  342DOPS   D2A 4013   6.580  10.021  13.794 -0.0402  0.0447  0.5504
  342DOPS   C3A 4014   6.307  10.377  14.025  0.4447  0.0681  0.1667
  342DOPS   C4A 4015   6.029  10.674  14.280  0.1990  0.0790 -0.0230
  342DOPS   C1B 4016   6.601  10.854  13.358  0.1436 -0.0647  0.3940
  342DOPS   D2B 4017   6.398  10.812  13.766  0.0721  0.3401 -0.5345
  342DOPS   C3B 4018   6.573  11.079  14.092 -0.1100 -0.0184 -0.0075
  342DOPS   C4B 4019   6.631  11.489  14.347  0.3271  0.3218 -0.0105
  343DOPC   NC3 4020   3.297  10.520  13.225 -0.5080 -0.1238 -0.0692
  343DOPC   PO4 4021   3.596  10.495  12.980 -0.0243  0.0802  0.0496
  343DOPC   GL1 4022   3.695  10.433  13.435  0.0209 -0.1090  0.0681
  343DOPC   GL2 4023   3.691  10.740  13.481  0.0388  0.0681  0.3402
  343DOPC   C1A 4024   3.334  10.454  13.726 -0.0975 -0.1599 -0.0958
  343DOPC   D2A 4025   3.326  10.507  14.170  0.0843  0.0878  0.3294
  343DOPC   C3A 4026   3.153  10.860  14.407 -0.2730 -0.3978 -0.1236
  343DOPC   C4A 4027   2.847  11.267  14.397  0.0155 -0.2062 -0.0780
  343DOPC   C1B 4028   3.312  10.928  13.613  0.2014  0.1525  0.0942
  343DOPC   D2B 4029   2.981  10.802  13.971  0.0624 -0.1392  0.2789
  343DOPC   C3B 4030   2.572  10.708  14.170 -0.4200 -0.0010  0.0157
  343DOPC   C4B 4031   2.402  10.337  14.324  0.1210  0.3011  0.1124
  344POSM   NC3 4032   8.740   7.154  12.115  0.1460 -0.3047  0.3450
  344POSM   PO4 4033   8.695   6.856  12.345 -0.0560 -0.3624  0.1074
  344POSM   AM1 4034   8.602   7.068  12.575 -0.1983 -0.4063 -0.2242
  344POSM   AM2 4035   8.715   7.083  12.857 -0.2240  0.1648  0.0163
  344POSM   T1A 4036   8.279   7.398  12.888 -0.1709  0.4650 -0.1406
  344POSM   C2A 4037   8.110   7.581  13.287 -0.0011 -0.2988  0.0691
  344POSM   C3A 4038   8.192   7.509  13.697 -0.1493  0.3810  0.1431
  344POSM   C1B 4039   8.609   7.068  13.152  0.1586 -0.0508  0.0029
  344POSM   D2B 4040   8.518   6.962  13.594 -0.0633  0.1468 -0.0305
  344POSM   C3B 4041   8.124   6.755  13.786 -0.1075 -0.1906 -0.1859
  344POSM   C4B 4042   7.900   6.827  14.201  0.1440  0.2057 -0.0560
  345DOPC   NC3 4043   2.141   6.271  13.145 -0.3004  0.0117  0.0303
  345DOPC   PO4 4044   1.989   6.497  12.845 -0.0035  0.0642  0.0757
  345DOPC   GL1 4045   1.582   6.592  13.023 -0.1315 -0.0942  0.0265
  345DOPC   GL2 4046   1.449   6.348  12.778  0.1082  0.0249 -0.1494
  345DOPC   C1A 4047   1.281   6.532  13.372 -0.1189  0.3897 -0.4328
  345DOPC   D2A 4048   0.849   6.569  13.570  0.0461 -0.0797 -0.0884
  345DOPC   C3A 4049   0.750   6.220  13.838 -0.0321  0.1095  0.1303
  345DOPC   C4A 4050   0.489   6.161  14.178  0.1851  0.3690  0.1519
  345DOPC   C1B 4051   1.239   6.132  13.173 -0.3198 -0.1669 -0.0216
  345DOPC   D2B 4052   1.344   5.730  13.390 -0.1860 -0.2762  0.2046
  345DOPC   C3B 4053   1.132   5.725  13.809  0.1434 -0.0323  0.0724
  345DOPC   C4B 4054   0.999   5.377  14.068  0.1204 -0.3433 -0.2583
  346POSM   NC3 4055   4.791   7.942  12.672 -0.2824 -0.0420 -0.1218
  346POSM   PO4 4056   4.914   8.298  12.918 -0.0351  0.0610  0.2002
  346POSM   AM1 4057   5.131   8.293  13.136 -0.0706 -0.2131 -0.1411
  346POSM   AM2 4058   5.349   8.468  13.225  0.0723  0.1281  0.1547
  346POSM   T1A 4059   5.368   8.022  13.523 -0.0701  0.1214 -0.1083
  346POSM   C2A 4060   5.256   7.854  13.942  0.1758  0.1621 -0.0974
  346POSM   C3A 4061   5.202   7.394  14.016 -0.0299 -0.2499 -0.3265
  346POSM   C1B 4062   5.670   8.447  13.359  0.0980  0.0713  0.0915
  346POSM   D2B 4063   6.087   8.466  13.573  0.0608  0.1610 -0.3511
  346POSM   C3B 4064   6.344   8.074  13.432  0.3045  0.3275  0.2998
  346POSM   C4B 4065   6.549   7.734  13.228 -0.0870  0.0350  0.1723
  347DOPE   NH3 4066   2.978   6.409  12.826 -0.0170  0.1320 -0.0351
  347DOPE   PO4 4067   2.806   6.289  13.059 -0.3184 -0.2580  0.1399
  347DOPE   GL1 4068   2.575   6.350  13.355  0.6506 -0.0460  0.4706
  347DOPE   GL2 4069   2.503   6.103  13.477 -0.2286  0.2352 -0.2812
  347DOPE   C1A 4070   2.519   6.492  13.732  0.2002  0.1148 -0.0830
  347DOPE   D2A 4071   2.265   6.669  14.114  0.0513  0.3904 -0.3146
  347DOPE   C3A 4072   2.067   6.475  14.487  0.1887 -0.1280  0.3133
  347DOPE   C4A 4073   2.263   6.549  14.915 -0.2040 -0.0765  0.0089
  347DOPE   C1B 4074   2.347   6.038  13.871 -0.1570 -0.1423 -0.0301
  347DOPE   D2B 4075   2.357   6.139  14.313  0.1242  0.1584  0.2360
  347DOPE   C3B 4076   2.605   6.411  14.566 -0.1383  0.1288 -0.2267
  347DOPE   C4B 4077   2.896   6.741  14.520  0.0750  0.0398  0.0350
  348DOPE   NH3 4078   8.953   6.331  12.694  0.0291  0.0906 -0.2368
  348DOPE   PO4 4079   8.938   6.641  12.733 -0.0879 -0.1600 -0.3619
  348DOPE   GL1 4080   8.908   6.665  13.133  0.1730 -0.2083  0.0450
  348DOPE   GL2 4081   9.107   6.904  13.181 -0.2283 -0.0820 -0.2784
  348DOPE   C1A 4082   9.130   6.453  13.448  0.2102  0.2346  0.2534
  348DOPE   D2A 4083   8.988   6.159  13.812 -0.1515 -0.1292 -0.1409
  348DOPE   C3A 4084   9.172   5.824  14.171  0.2836 -0.1595  0.0628
  348DOPE   C4A 4085   9.089   5.706  14.620 -0.0576 -0.1570  0.2732
  348DOPE   C1B 4086   9.015   6.883  13.637 -0.0549  0.0141  0.5603
  348DOPE   D2B 4087   9.119   6.600  13.942 -0.2772  0.0538  0.0024
  348DOPE   C3B 4088   9.472   6.243  13.873 -0.1135 -0.2441 -0.1307
  348DOPE   C4B 4089   9.698   6.036  13.596 -0.1927 -0.1180  0.0345
  349DOPS   CNO 4090   6.785   0.222  12.516 -0.2232  0.2251  0.1849
  349DOPS   PO4 4091   6.625   0.210  12.856 -0.0152  0.0819 -0.0747
  349DOPS   GL1 4092   6.858  -0.020  13.168 -0.4713  0.1338 -0.0177
  349DOPS   GL2 4093   7.166  -0.108  13.156  0.0344  0.2194 -0.0990
  349DOPS   C1A 4094   6.883  -0.480  13.203  0.3086 -0.4355  0.1731
  349DOPS   D2A 4095   7.121  -0.898  13.373 -0.0249 -0.1230 -0.0549
  349DOPS   C3A 4096   7.542  -1.019  13.253 -0.1051 -0.1439 -0.0888
  349DOPS   C4A 4097   7.756  -1.348  12.961 -0.0334 -0.2047 -0.2537
  349DOPS   C1B 4098   7.119   0.170  13.498  0.0350  0.4403 -0.0346
  349DOPS   D2B 4099   7.084   0.448  13.909  0.0403  0.0526  0.2348
  349DOPS   C3B 4100   7.568   0.317  13.876 -0.2456  0.1630  0.0716
  349DOPS   C4B 4101   8.028   0.334  13.806  0.0184  0.0757  0.0228
  350DOPE   NH3 4102   0.892   0.090  12.677  0.1007 -0.1676  0.1802
  350DOPE   PO4 4103   0.841   0.421  12.676 -0.1156  0.0108  0.1182
  350DOPE   GL1 4104   0.940   0.472  13.029  0.0906 -0.0478 -0.0463
  350DOPE   GL2 4105   1.214   0.678  13.020 -0.1386  0.1027  0.1824
  350DOPE   C1A 4106   0.883   0.627  13.460  0.0159  0.1388  0.0541
  350DOPE   D2A 4107   1.052   0.718  13.814 -0.0447  0.0737 -0.1722
  350DOPE   C3A 4108   1.066   0.589  14.246 -0.1549 -0.1439  0.0754
  350DOPE   C4A 4109   0.798   0.493  14.590 -0.2308  0.2046  0.4009
  350DOPE   C1B 4110   1.327   0.579  13.484  0.0230  0.1894 -0.0186
  350DOPE   D2B 4111   1.507   0.791  13.826  0.2586 -0.0497 -0.0189
  350DOPE   C3B 4112   1.296   1.178  14.042 -0.2758  0.1825  0.1785
  350DOPE   C4B 4113   1.307   1.599  13.808 -0.3257 -0.3835 -0.0166
  351DOPE   NH3 4114   9.065   0.133  11.984  0.3422  0.0364 -0.1514
  351DOPE   PO4 4115   9.137   0.419  11.952  0.0107  0.2244  0.2939
  351DOPE   GL1 4116   9.409   0.728  12.144 -0.0478 -0.2852 -0.0510
  351DOPE   GL2 4117   9.251   0.935  12.165  0.1131 -0.0713 -0.1357
  351DOPE   C1A 4118   9.723   1.052  11.904 -0.1426  0.3056  0.0936
  351DOPE   D2A 4119   9.945   1.461  11.805  0.1953  0.2070  0.0238
  351DOPE   C3A 4120  10.315   1.177  11.756  0.2641  0.0214 -0.0243
  351DOPE   C4A 4121  10.658   0.903  11.779  0.1153 -0.0776 -0.3345
  351DOPE   C1B 4122   9.610   1.017  12.429 -0.0903 -0.1997  0.0713
  351DOPE   D2B 4123   9.771   1.300  12.715  0.2984 -0.3066 -0.3896
  351DOPE   C3B 4124   9.506   1.295  13.158 -0.3166  0.2086 -0.0897
  351DOPE   C4B 4125   9.097   1.018  13.292 -0.0215  0.0821  0.1306
  352POSM   NC3 4126  11.546   9.197  12.269 -0.1923  0.1715 -0.0233
  352POSM   PO4 4127  11.159   9.073  12.123  0.1396  0.2179 -0.0959
  352POSM   AM1 4128  11.111   9.085  12.467 -0.1194  0.1334  0.1920
  352POSM   AM2 4129  10.918   9.228  12.597 -0.1585 -0.0064  0.0807
  352POSM   T1A 4130  10.968   8.825  12.872  0.2008 -0.2290 -0.0803
  352POSM   C2A 4131  10.709   8.956  13.214 -0.0108 -0.0845  0.1179
  352POSM   C3A 4132  10.352   9.113  13.455 -0.0662  0.1095 -0.1147
  352POSM   C1B 4133  10.823   9.317  12.903 -0.1632  0.2672 -0.3866
  352POSM   D2B 4134  10.674   9.510  13.351  0.0274 -0.3665  0.0043
  352POSM   C3B 4135  10.270   9.606  13.610 -0.5464 -0.2556  0.0700
  352POSM   C4B 4136  10.143   9.866  13.902  0.0902 -0.1333  0.5331
  353DOPC   NC3 4137  10.627   7.738  12.006 -0.0896  0.3174  0.0463
  353DOPC   PO4 4138  10.372   7.798  12.309 -0.0298 -0.3366  0.0777
  353DOPC   GL1 4139  10.384   7.900  12.663  0.4137 -0.0769 -0.0586
  353DOPC   GL2 4140  10.712   7.934  12.789 -0.2079  0.0311  0.1297
  353DOPC   C1A 4141  10.160   8.138  13.004 -0.1267 -0.3054  0.3015
  353DOPC   D2A 4142  10.191   8.585  13.117 -0.1512 -0.0460 -0.2709
  353DOPC   C3A 4143  10.227   8.567  13.572  0.3034 -0.0130  0.0756
  353DOPC   C4A 4144  10.170   8.474  13.982  0.1189 -0.0345  0.4264
  353DOPC   C1B 4145  11.112   8.176  12.829  0.1477  0.1276  0.0363
  353DOPC   D2B 4146  11.422   8.457  12.683  0.5077 -0.1080  0.0864
  353DOPC   C3B 4147  11.585   8.797  12.941 -0.1173  0.0236  0.1052
  353DOPC   C4B 4148  11.885   8.979  13.218 -0.2290 -0.3339 -0.0818
  354DOPC   NC3 4149   4.618   0.727  12.357 -0.2056 -0.0972  0.0554
  354DOPC   PO4 4150   4.877   0.467  12.461  0.2276  0.2084 -0.0306
  354DOPC   GL1 4151   4.584   0.487  12.760 -0.0024 -0.2672 -0.2154
  354DOPC   GL2 4152   4.555   0.795  12.900  0.1126 -0.0572  0.1717
  354DOPC   C1A 4153   4.708   0.378  13.161  0.2220 -0.0690 -0.2193
  354DOPC   D2A 4154   4.830   0.363  13.586 -0.2020  0.1216  0.0067
  354DOPC   C3A 4155   5.083   0.537  13.874 -0.0362  0.0007 -0.2909
  354DOPC   C4A 4156   5.355   0.780  14.178  0.1054 -0.3025 -0.1197
  354DOPC   C1B 4157   4.105   0.604  12.969  0.0708 -0.0220 -0.3032
  354DOPC   D2B 4158   3.781   0.292  13.155 -0.1330 -0.0255 -0.2505
  354DOPC   C3B 4159   3.819  -0.003  13.522 -0.0168 -0.0883  0.3269
  354DOPC   C4B 4160   3.906  -0.454  13.554  0.0348 -0.0964  0.1998
  355DOPE   NH3 4161   2.336   0.784  12.331 -0.0010  0.2846  0.2019
  355DOPE   PO4 4162   2.466   1.061  12.477  0.1168  0.1796 -0.1088
  355DOPE   GL1 4163   2.803   1.223  12.700 -0.4441  0.0440 -0.1195
  355DOPE   GL2 4164   2.842   1.466  12.543 -0.1579  0.1874  0.2177
  355DOPE   C1A 4165   3.207   1.032  12.814  0.0902 -0.0458 -0.1414
  355DOPE   D2A 4166   3.227   0.729  13.204  0.1807  0.3419  0.3859
  355DOPE   C3A 4167   3.510   0.758  13.528 -0.1201  0.1258  0.0700
  355DOPE   C4A 4168   3.498   0.593  13.941 -0.1635  0.1795 -0.0228
  355DOPE   C1B 4169   3.144   1.524  12.911  0.1869 -0.0628 -0.0312
  355DOPE   D2B 4170   3.472   1.367  13.244  0.4361 -0.0110 -0.1431
  355DOPE   C3B 4171   3.414   1.300  13.724  0.1721  0.2841  0.3686
  355DOPE   C4B 4172   3.387   1.099  14.146  0.3607  0.0570  0.1319
  356DOPE   NH3 4173   8.164   3.321  12.255 -0.0961 -0.2889 -0.0958
  356DOPE   PO4 4174   8.150   3.626  12.328 -0.0270 -0.3133 -0.2311
  356DOPE   GL1 4175   8.145   3.606  12.709 -0.2975  0.2874  0.0683
  356DOPE   GL2 4176   8.379   3.443  12.781  0.2330  0.0172 -0.0292
  356DOPE   C1A 4177   7.951   3.425  13.074  0.7391  0.0008  0.3443
  356DOPE   D2A 4178   8.039   3.152  13.412 -0.0855  0.1850  0.0686
  356DOPE   C3A 4179   7.821   3.322  13.769  0.4273  0.3429 -0.0553
  356DOPE   C4A 4180   7.763   3.563  14.109  0.2643  0.2787  0.2256
  356DOPE   C1B 4181   8.627   3.321  13.200 -0.0958 -0.2140  0.3389
  356DOPE   D2B 4182   8.757   3.598  13.593 -0.1482  0.0881 -0.3310
  356DOPE   C3B 4183   8.516   4.020  13.584  0.0390 -0.2242  0.1185
  356DOPE   C4B 4184   8.612   4.531  13.699  0.3985  0.1456 -0.0254
  357POSM   NC3 4185   5.108   1.308  12.936 -0.1755  0.2355  0.1141
  357POSM   PO4 4186   5.476   1.243  12.746 -0.0895 -0.3129  0.0877
  357POSM   AM1 4187   5.663   1.113  13.007  0.1339 -0.0629 -0.0996
  357POSM   AM2 4188   5.482   0.894  13.143  0.0460  0.0227 -0.0465
  357POSM   T1A 4189   5.860   1.216  13.481 -0.0062  0.1326  0.2186
  357POSM   C2A 4190   6.066   1.590  13.691  0.3081  0.3550  0.0955
  357POSM   C3A 4191   6.250   1.877  13.964  0.3599 -0.0244  0.1108
  357POSM   C1B 4192   5.347   0.988  13.423 -0.2575 -0.1645 -0.0517
  357POSM   D2B 4193   5.256   1.134  13.834 -0.0272  0.3447 -0.1823
  357POSM   C3B 4194   5.109   1.545  13.925  0.0411 -0.2118 -0.2890
  357POSM   C4B 4195   5.101   2.050  13.904  0.2665  0.0564  0.3327
  358POSM   NC3 4196   7.821   4.751  12.397 -0.0952  0.0870 -0.0878
  358POSM   PO4 4197   8.117   4.975  12.391  0.2811 -0.1190 -0.0412
  358POSM   AM1 4198   8.348   4.811  12.613  0.2399  0.0414 -0.2405
  358POSM   AM2 4199   8.320   4.563  12.751  0.1365 -0.0347  0.3257
  358POSM   T1A 4200   8.589   4.869  13.057 -0.2210  0.0080 -0.0799
  358POSM   C2A 4201   8.618   4.997  13.499  0.1091 -0.3548  0.0871
  358POSM   C3A 4202   9.016   4.932  13.775 -0.2881  0.1840 -0.2246
  358POSM   C1B 4203   8.160   4.253  12.793 -0.1344 -0.0710  0.1744
  358POSM   D2B 4204   7.942   3.965  13.014 -0.0019  0.0118  0.2355
  358POSM   C3B 4205   7.827   3.922  13.453  0.3091 -0.0293  0.1155
  358POSM   C4B 4206   7.577   4.160  13.697  0.2631  0.0274  0.3608
  359POSM   NC3 4207   0.890   9.675  12.489  0.2120 -0.2871 -0.1514
  359POSM   PO4 4208   0.957   9.456  12.190  0.1778  0.0908  0.2923
  359POSM   AM1 4209   1.242   9.342  12.366  0.1086 -0.2648 -0.2470
  359POSM   AM2 4210   1.268   9.244  12.625 -0.1816 -0.3554  0.0956
  359POSM   T1A 4211   1.727   9.334  12.493  0.0747 -0.0261 -0.0645
  359POSM   C2A 4212   2.168   9.451  12.586 -0.1021  0.1841 -0.0660
  359POSM   C3A 4213   2.577   9.417  12.687  0.0180  0.2417  0.0917
  359POSM   C1B 4214   1.262   9.084  12.925 -0.1349  0.0804 -0.2244
  359POSM   D2B 4215   1.285   8.718  13.207 -0.0197  0.3059  0.2672
  359POSM   C3B 4216   1.139   8.651  13.629 -0.0428 -0.0193 -0.1648
  359POSM   C4B 4217   1.067   8.736  14.094 -0.0759  0.2196 -0.0843
  360POSM   NC3 4218  10.522   3.083  12.090 -0.3044 -0.2675 -0.0295
  360POSM   PO4 4219  10.338   3.371  12.269  0.1746 -0.1159  0.4296
  360POSM   AM1 4220  10.122   3.185  12.447  0.2816 -0.0131 -0.0454
  360POSM   AM2 4221  10.049   3.013  12.691  0.1156 -0.0922 -0.2410
  360POSM   T1A 4222   9.681   2.994  12.368 -0.2956  0.0901  0.1825
  360POSM   C2A 4223   9.235   2.773  12.489 -0.1686  0.0352  0.0943
  360POSM   C3A 4224   8.743   2.689  12.417 -0.1376  0.2787 -0.3155
  360POSM   C1B 4225   9.722   3.048  12.898  0.1185 -0.2126 -0.0484
  360POSM   D2B 4226   9.520   2.800  13.220  0.0704 -0.1376  0.1338
  360POSM   C3B 4227   9.244   2.498  13.421  0.1580 -0.0509 -0.2207
  360POSM   C4B 4228   8.810   2.290  13.299 -0.3059 -0.1713 -0.3660
  361DOPC   NC3 4229   2.997   6.502  13.448 -0.2640  0.0892 -0.1975
  361DOPC   PO4 4230   3.269   6.272  13.305 -0.2571  0.2136 -0.1248
  361DOPC   GL1 4231   3.367   6.098  13.690  0.0325 -0.6121 -0.2074
  361DOPC   GL2 4232   3.246   5.853  13.685 -0.0654 -0.0238  0.0513
  361DOPC   C1A 4233   3.401   6.005  14.128 -0.0928  0.1569  0.1459
  361DOPC   D2A 4234   3.413   5.780  14.478  0.0646 -0.0919 -0.1226
  361DOPC   C3A 4235   3.024   5.699  14.747  0.3114 -0.1073 -0.1948
  361DOPC   C4A 4236   2.828   5.601  15.153 -0.2377  0.1262 -0.1731
  361DOPC   C1B 4237   3.648   5.556  13.814 -0.1372  0.3183  0.0786
  361DOPC   D2B 4238   3.875   5.725  14.151  0.2718 -0.3178  0.0409
  361DOPC   C3B 4239   3.855   5.726  14.645  0.0184 -0.1617 -0.1222
  361DOPC   C4B 4240   3.890   5.898  15.050  0.1376  0.1089 -0.2752
  362DOPC   NC3 4241   8.932   0.209  12.709  0.1351  0.6290 -0.1357
  362DOPC   PO4 4242   9.111   0.466  12.443  0.3218 -0.0421  0.2983
  362DOPC   GL1 4243   8.861   0.681  12.783 -0.3822  0.1031 -0.0069
  362DOPC   GL2 4244   9.075   0.882  12.749 -0.1002  0.0809  0.1386
  362DOPC   C1A 4245   8.614   1.007  12.992  0.0058  0.2627  0.2280
  362DOPC   D2A 4246   8.553   1.399  13.134 -0.2052 -0.1553 -0.1237
  362DOPC   C3A 4247   8.530   1.580  13.563 -0.0086  0.2713 -0.3577
  362DOPC   C4A 4248   8.607   1.969  13.807  0.0105  0.2034  0.0407
  362DOPC   C1B 4249   8.995   1.316  12.926  0.1296  0.1902  0.1424
  362DOPC   D2B 4250   9.045   1.537  13.373  0.0689 -0.1370  0.0251
  362DOPC   C3B 4251   9.535   1.739  13.356 -0.3310  0.1036 -0.1682
  362DOPC   C4B 4252   9.919   1.939  13.363 -0.2772  0.0716  0.2153
  363DOPE   NH3 4253   8.034   6.566  12.360  0.4235  0.1089 -0.3175
  363DOPE   PO4 4254   7.849   6.568  12.618  0.1814  0.2789 -0.0355
  363DOPE   GL1 4255   8.092   6.633  12.889 -0.1565 -0.1423  0.1593
  363DOPE   GL2 4256   8.238   6.862  12.810 -0.0795 -0.3030  0.5372
  363DOPE   C1A 4257   8.018   6.907  13.230 -0.2629 -0.0003 -0.0722
  363DOPE   D2A 4258   7.774   7.098  13.564  0.1270 -0.2535 -0.2014
  363DOPE   C3A 4259   7.918   7.272  14.002 -0.0093 -0.3997 -0.0576
  363DOPE   C4A 4260   8.068   7.425  14.398  0.0476  0.0238 -0.0171
  363DOPE   C1B 4261   7.853   7.143  12.862 -0.0774  0.0296  0.2449
  363DOPE   D2B 4262   7.583   7.360  13.108 -0.0110  0.1922  0.0482
  363DOPE   C3B 4263   7.659   7.623  13.483 -0.0606 -0.2680  0.1024
  363DOPE   C4B 4264   7.945   8.024  13.593  0.0090  0.1929  0.1397
  364DOPC   NC3 4265   6.937   6.109  12.970 -0.0721  0.0996 -0.0284
  364DOPC   PO4 4266   6.954   6.472  12.812  0.0535 -0.2768 -0.5614
  364DOPC   GL1 4267   6.822   6.578  13.144 -0.0500  0.1292  0.4636
  364DOPC   GL2 4268   6.821   6.886  13.139 -0.1523 -0.1759  0.2304
  364DOPC   C1A 4269   7.121   6.540  13.467  0.0406 -0.2716  0.2109
  364DOPC   D2A 4270   7.565   6.537  13.521 -0.1590 -0.1407  0.0226
  364DOPC   C3A 4271   7.694   6.453  13.949 -0.2972  0.2256 -0.0883
  364DOPC   C4A 4272   7.500   6.587  14.355  0.1121 -0.1275  0.2247
  364DOPC   C1B 4273   6.959   7.373  13.156 -0.4289  0.2439 -0.0136
  364DOPC   D2B 4274   7.216   7.725  13.247  0.1049  0.0452  0.0842
  364DOPC   C3B 4275   6.904   7.884  13.553  0.0807 -0.0271  0.1387
  364DOPC   C4B 4276   6.508   7.796  13.832 -0.2360  0.2522 -0.2061
  365DOPC   NC3 4277   9.970   7.485  12.247  0.1493  0.0448  0.1425
  365DOPC   PO4 4278   9.981   7.503  12.594 -0.0722 -0.1689 -0.3954
  365DOPC   GL1 4279   9.799   7.820  12.781 -0.2495 -0.1731  0.1297
  365DOPC   GL2 4280   9.936   7.965  12.559  0.2544  0.0465  0.3782
  365DOPC   C1A 4281   9.440   7.932  13.035  0.1014  0.4586 -0.1121
  365DOPC   D2A 4282   9.429   7.924  13.514  0.0382  0.0536 -0.2212
  365DOPC   C3A 4283   9.250   8.329  13.510 -0.1534  0.1683 -0.2154
  365DOPC   C4A 4284   8.880   8.605  13.415 -0.0811  0.1158  0.2973
  365DOPC   C1B 4285  10.026   8.415  12.548  0.1305  0.1103  0.0368
  365DOPC   D2B 4286   9.851   8.741  12.781 -0.1288  0.0906 -0.1923
  365DOPC   C3B 4287   9.564   8.436  12.984  0.0446  0.1835  0.1003
  365DOPC   C4B 4288   9.153   8.351  12.959 -0.1661 -0.0270 -0.3407
  366DOPS   CNO 4289   7.507  11.219  12.715 -0.0966 -0.1769 -0.0988
  366DOPS   PO4 4290   7.551  11.306  12.340  0.1982 -0.0492 -0.0653
  366DOPS   GL1 4291   7.898  11.404  12.583  0.2267 -0.0646 -0.1269
  366DOPS   GL2 4292   8.004  11.213  12.830  0.3029  0.0175 -0.2268
  366DOPS   C1A 4293   8.118  11.853  12.534  0.3348  0.0053 -0.1141
  366DOPS   D2A 4294   8.539  12.097  12.559  0.0396  0.1091  0.2006
  366DOPS   C3A 4295   8.505  12.296  12.980  0.1227  0.0182 -0.2577
  366DOPS   C4A 4296   8.415  12.613  13.275 -0.1772 -0.1634 -0.1423
  366DOPS   C1B 4297   8.183  11.158  13.212 -0.3463 -0.0684  0.0264
  366DOPS   D2B 4298   8.450  11.040  13.639  0.1690  0.0734  0.0529
  366DOPS   C3B 4299   8.761  10.710  13.793  0.2225 -0.0976 -0.3863
  366DOPS   C4B 4300   8.944  10.802  14.196  0.1087  0.0309 -0.1431
  367POSM   NC3 4301  10.736   4.857  11.851 -0.1043 -0.2693 -0.0156
  367POSM   PO4 4302  10.656   4.592  12.108  0.2163  0.2076  0.2446
  367POSM   AM1 4303  10.443   4.724  12.324 -0.2660  0.0664  0.0141
  367POSM   AM2 4304  10.487   4.903  12.551 -0.1561 -0.1499  0.2420
  367POSM   T1A 4305  10.018   4.908  12.547 -0.0310  0.3288 -0.0415
  367POSM   C2A 4306   9.574   4.977  12.620  0.0810 -0.1055 -0.1569
  367POSM   C3A 4307   9.336   5.402  12.651  0.0352  0.1864 -0.0851
  367POSM   C1B 4308  10.467   5.141  12.365  0.1232 -0.0431 -0.0955
  367POSM   D2B 4309  10.598   5.443  12.011  0.2171 -0.1367  0.1828
  367POSM   C3B 4310  10.998   5.658  12.098 -0.2952 -0.1221  0.2034
  367POSM   C4B 4311  11.321   5.887  12.224 -0.1054 -0.0961  0.2841
  368DOPS   CNO 4312   6.819   9.992  12.217 -0.1154 -0.1953  0.0596
  368DOPS   PO4 4313   7.048   9.722  12.399 -0.3139  0.0818  0.3785
  368DOPS   GL1 4314   7.318   9.464  12.340  0.5739 -0.0368 -0.0962
  368DOPS   GL2 4315   7.518   9.298  12.436 -0.0554  0.0323  0.1900
  368DOPS   C1A 4316   7.134   9.023  12.232  0.2832 -0.0106  0.0674
  368DOPS   D2A 4317   6.991   8.646  12.456 -0.2994  0.0898 -0.1970
  368DOPS   C3A 4318   7.176   8.222  12.388  0.1019  0.1403  0.1599
  368DOPS   C4A 4319   7.470   7.817  12.223 -0.1318 -0.0981  0.2618
  368DOPS   C1B 4320   7.818   9.077  12.775 -0.0410 -0.1227  0.0628
  368DOPS   D2B 4321   7.834   8.615  12.878 -0.4728 -0.0071 -0.0196
  368DOPS   C3B 4322   8.232   8.352  12.746  0.1013  0.0685  0.3624
  368DOPS   C4B 4323   8.625   8.477  12.935 -0.1094 -0.0474  0.0145
  369POSM   NC3 4324   2.482   6.314  12.682 -0.2366 -0.1228 -0.2064
  369POSM   PO4 4325   2.473   5.958  12.940 -0.2678  0.1824 -0.0520
  369POSM   AM1 4326   2.288   5.839  13.184 -0.2218 -0.2049 -0.2226
  369POSM   AM2 4327   2.205   5.568  13.241  0.0068  0.2008  0.0691
  369POSM   T1A 4328   1.974   5.869  13.592 -0.1611 -0.2459 -0.1031
  369POSM   C2A 4329   1.598   5.933  13.832  0.0522 -0.3146  0.1332
  369POSM   C3A 4330   1.408   5.811  14.236 -0.0273 -0.1970  0.1021
  369POSM   C1B 4331   2.422   5.535  13.468 -0.1721  0.0982  0.1431
  369POSM   D2B 4332   2.783   5.576  13.802  0.0787  0.0150  0.0308
  369POSM   C3B 4333   2.918   5.148  14.026 -0.1101  0.1054  0.1195
  369POSM   C4B 4334   2.933   4.758  14.381  0.0019 -0.2097 -0.0862
  370DOPC   NC3 4335   3.364   9.307  13.205 -0.4759  0.0370 -0.2366
  370DOPC   PO4 4336   3.742   9.183  13.197  0.2949 -0.0784 -0.5715
  370DOPC   GL1 4337   3.700   9.018  13.512  0.1362  0.0159 -0.0379
  370DOPC   GL2 4338   3.523   8.807  13.404  0.0140  0.2148  0.0681
  370DOPC   C1A 4339   4.074   9.027  13.833 -0.2162 -0.0026 -0.3115
  370DOPC   D2A 4340   4.379   9.402  13.846  0.1131 -0.2641  0.0635
  370DOPC   C3A 4341   4.661   9.466  14.206  0.2808 -0.0679 -0.0589
  370DOPC   C4A 4342   4.724   9.272  14.594  0.0389  0.0073 -0.4009
  370DOPC   C1B 4343   3.100   9.044  13.513  0.1458 -0.2075  0.1216
  370DOPC   D2B 4344   2.697   9.049  13.707 -0.0507  0.1115 -0.2193
  370DOPC   C3B 4345   2.417   9.015  14.079 -0.3125 -0.2456 -0.1378
  370DOPC   C4B 4346   2.372   9.249  14.473  0.4059  0.0008 -0.1644
  371DOPC   NC3 4347   9.215   4.679  12.284  0.0645  0.0435 -0.1007
  371DOPC   PO4 4348   8.881   4.589  12.537  0.0764 -0.0320 -0.0512
  371DOPC   GL1 4349   8.939   4.537  12.920 -0.4677  0.0242 -0.3862
  371DOPC   GL2 4350   8.801   4.389  13.143  0.1815  0.0558  0.1535
  371DOPC   C1A 4351   9.127   4.713  13.316  0.2167  0.1436  0.3950
  371DOPC   D2A 4352   9.386   5.080  13.431  0.3378 -0.0046  0.0718
  371DOPC   C3A 4353   9.819   4.953  13.532  0.2345 -0.1610 -0.2328
  371DOPC   C4A 4354   9.965   4.608  13.862  0.1878  0.1584  0.2127
  371DOPC   C1B 4355   9.252   4.234  13.190  0.0115 -0.1091 -0.4461
  371DOPC   D2B 4356   9.585   3.929  13.055  0.1769 -0.0981  0.2964
  371DOPC   C3B 4357   9.547   3.495  13.086  0.0719  0.0703 -0.3562
  371DOPC   C4B 4358   9.204   3.298  13.373  0.0354  0.0366  0.1186
  372DOPC   NC3 4359   1.449   0.916  12.650 -0.0925  0.0792 -0.2622
  372DOPC   PO4 4360   1.649   0.595  12.786  0.0018  0.1811 -0.0986
  372DOPC   GL1 4361   1.733   0.514  13.130  0.1892  0.2305  0.1213
  372DOPC   GL2 4362   2.033   0.582  13.106 -0.0210 -0.1849 -0.2828
  372DOPC   C1A 4363   1.861   0.556  13.566  0.3633  0.0737 -0.1853
  372DOPC   D2A 4364   1.877   0.338  14.005 -0.0635 -0.1719 -0.0221
  372DOPC   C3A 4365   1.586   0.368  14.377 -0.0225 -0.0004  0.2612
  372DOPC   C4A 4366   1.442   0.125  14.664  0.1455 -0.2496 -0.1266
  372DOPC   C1B 4367   2.377   0.698  13.421  0.0127 -0.4004  0.1334
  372DOPC   D2B 4368   2.683   0.932  13.741 -0.2108 -0.1469  0.2284
  372DOPC   C3B 4369   2.940   1.275  13.958  0.0877 -0.1534  0.4262
  372DOPC   C4B 4370   3.205   1.609  14.101 -0.0700 -0.1527  0.0664
  373POSM   NC3 4371   8.167  10.585  12.406 -0.1300  0.3072 -0.0051
  373POSM   PO4 4372   8.346  10.808  12.691 -0.1466  0.0643  0.0833
  373POSM   AM1 4373   8.132  10.748  12.933  0.0648 -0.0191 -0.1536
  373POSM   AM2 4374   7.940  10.543  12.941  0.0780  0.1374  0.0681
  373POSM   T1A 4375   7.999  10.765  13.415 -0.2055  0.0071  0.1018
  373POSM   C2A 4376   7.976  10.967  13.857 -0.0198 -0.0190  0.1378
  373POSM   C3A 4377   7.742  10.875  14.221  0.0660 -0.3770  0.3040
  373POSM   C1B 4378   8.159  10.309  13.112 -0.0360 -0.1785 -0.2491
  373POSM   D2B 4379   8.108  10.058  13.481 -0.0755 -0.0881 -0.0606
  373POSM   C3B 4380   7.821   9.989  13.754 -0.0972 -0.1939  0.0816
  373POSM   C4B 4381   7.717  10.067  14.238  0.0355  0.1506  0.1901
  374POSM   NC3 4382   1.134   2.872  12.688  0.1377 -0.2616  0.0226
  374POSM   PO4 4383   1.493   3.094  12.680  0.0826 -0.0465  0.0105
  374POSM   AM1 4384   1.712   3.244  12.881  0.1773 -0.0578 -0.0574
  374POSM   AM2 4385   1.980   3.386  12.874 -0.2362  0.1941 -0.0698
  374POSM   T1A 4386   1.960   3.019  13.257 -0.1156  0.3262 -0.1537
  374POSM   C2A 4387   2.276   2.793  13.490  0.1309  0.2531  0.3603
  374POSM   C3A 4388   2.720   2.906  13.640 -0.1274  0.1917 -0.1495
  374POSM   C1B 4389   2.303   3.456  12.853 -0.1837  0.1404  0.0907
  374POSM   D2B 4390   2.758   3.433  12.917  0.0073  0.3013 -0.0932
  374POSM   C3B 4391   2.946   3.250  13.309 -0.2435 -0.0970  0.3066
  374POSM   C4B 4392   3.215   3.247  13.726  0.3470 -0.0724 -0.3048
  375DOPE   NH3 4393   5.417   4.096  12.547  0.2056 -0.0978 -0.0357
  375DOPE   PO4 4394   5.690   4.044  12.776  0.0045 -0.1020 -0.1849
  375DOPE   GL1 4395   5.537   4.224  13.113  0.0504 -0.1521  0.2463
  375DOPE   GL2 4396   5.394   4.049  13.251  0.3200  0.2404 -0.0490
  375DOPE   C1A 4397   5.717   4.589  13.306  0.1399 -0.1441  0.3799
  375DOPE   D2A 4398   5.736   4.934  13.594  0.2237 -0.1263  0.0177
  375DOPE   C3A 4399   5.587   5.374  13.453 -0.2461 -0.3068 -0.1663
  375DOPE   C4A 4400   5.545   5.796  13.201 -0.1647  0.1022 -0.2556
  375DOPE   C1B 4401   5.596   4.164  13.608 -0.0637  0.0864 -0.0813
  375DOPE   D2B 4402   5.819   4.495  13.852  0.0177 -0.0535 -0.0917
  375DOPE   C3B 4403   6.038   4.646  14.264 -0.0403 -0.1712  0.1796
  375DOPE   C4B 4404   6.154   4.566  14.704 -0.1862  0.3135  0.1241
  376DOPS   CNO 4405  10.991   3.371  12.150 -0.0676  0.0318  0.0326
  376DOPS   PO4 4406  11.249   3.625  12.222  0.0800 -0.2306  0.0710
  376DOPS   GL1 4407  11.210   4.057  12.404  0.1360  0.3399 -0.0311
  376DOPS   GL2 4408  11.119   3.965  12.639 -0.0532  0.2027  0.2873
  376DOPS   C1A 4409  11.123   4.476  12.611 -0.0304 -0.1939  0.1461
  376DOPS   D2A 4410  10.867   4.757  12.817  0.2235 -0.0504 -0.1853
  376DOPS   C3A 4411  10.829   5.227  12.732 -0.0845  0.0344  0.2276
  376DOPS   C4A 4412  10.777   5.630  12.523  0.0692 -0.1855  0.1222
  376DOPS   C1B 4413  10.950   3.842  13.043  0.2328 -0.1305 -0.1396
  376DOPS   D2B 4414  10.803   3.937  13.503 -0.1980  0.1097  0.1663
  376DOPS   C3B 4415  10.541   4.308  13.455  0.0470  0.3566  0.2448
  376DOPS   C4B 4416  10.266   4.619  13.362 -0.0803 -0.1596 -0.2443
  377DOPE   NH3 4417  10.330  10.721  12.345 -0.2425 -0.1853  0.2404
  377DOPE   PO4 4418  10.485  10.533  12.579  0.2711 -0.1484  0.1470
  377DOPE   GL1 4419  10.551  10.836  12.806 -0.0912  0.3629 -0.0216
  377DOPE   GL2 4420  10.360  10.757  13.056  0.0737 -0.1136 -0.2008
  377DOPE   C1A 4421  10.877  10.940  13.082 -0.0135 -0.2275 -0.1567
  377DOPE   D2A 4422  11.120  11.060  13.441 -0.0361  0.0643 -0.0625
  377DOPE   C3A 4423  11.493  11.364  13.312  0.0666 -0.3078  0.2048
  377DOPE   C4A 4424  11.704  11.739  13.482  0.2474  0.1125  0.0508
  377DOPE   C1B 4425  10.695  10.589  13.391 -0.1647  0.2946 -0.0294
  377DOPE   D2B 4426  10.884  10.656  13.777 -0.1746 -0.3938 -0.0923
  377DOPE   C3B 4427  11.079  10.373  14.085 -0.2482  0.1485  0.3505
  377DOPE   C4B 4428  11.196   9.948  14.274 -0.2173  0.1413  0.1416
  378DOPC   NC3 4429   0.971   4.627  12.917  0.0774  0.5487  0.1944
  378DOPC   PO4 4430   0.795   4.694  12.546  0.0944  0.0832  0.0204
  378DOPC   GL1 4431   0.535   5.092  12.639 -0.0373 -0.0663  0.2388
  378DOPC   GL2 4432   0.713   5.056  12.880 -0.3360  0.0908 -0.0630
  378DOPC   C1A 4433   0.221   5.407  12.835  0.2296 -0.3234  0.0662
  378DOPC   D2A 4434   0.287   5.835  13.044  0.1843 -0.0288  0.2324
  378DOPC   C3A 4435   0.661   6.074  12.977  0.2638  0.1120  0.0316
  378DOPC   C4A 4436   0.841   6.362  12.611 -0.2811  0.2460  0.2455
  378DOPC   C1B 4437   0.493   5.237  13.262 -0.0224  0.0100 -0.0355
  378DOPC   D2B 4438   0.218   5.475  13.398 -0.2424  0.1911 -0.0461
  378DOPC   C3B 4439  -0.162   5.358  13.180 -0.0540 -0.0421  0.0158
  378DOPC   C4B 4440  -0.582   5.143  13.362 -0.1714  0.0070 -0.0661
  379DOPC   NC3 4441   5.107   3.190  12.652  0.0025  0.1698  0.1079
  379DOPC   PO4 4442   4.811   3.110  12.373  0.0731  0.1752  0.1881
  379DOPC   GL1 4443   4.574   3.174  12.653 -0.3876 -0.0001 -0.1441
  379DOPC   GL2 4444   4.718   3.304  12.892 -0.1728 -0.1691  0.0727
  379DOPC   C1A 4445   4.125   3.222  12.826 -0.0167 -0.2804  0.0971
  379DOPC   D2A 4446   3.795   3.242  13.125  0.0394  0.0088  0.1999
  379DOPC   C3A 4447   3.711   3.384  13.537  0.1473 -0.1424  0.0469
  379DOPC   C4A 4448   3.934   3.638  13.900  0.0580 -0.0420  0.2465
  379DOPC   C1B 4449   4.442   3.061  13.164 -0.0723  0.1508 -0.2670
  379DOPC   D2B 4450   4.155   3.097  13.512  0.1149 -0.3494 -0.0310
  379DOPC   C3B 4451   4.315   3.137  13.954  0.0606  0.1570  0.2102
  379DOPC   C4B 4452   4.597   3.108  14.341  0.2000  0.2087  0.0042
  380POSM   NC3 4453  10.322   6.610  12.896  0.1011 -0.1200  0.0305
  380POSM   PO4 4454  10.479   6.552  12.556 -0.1779  0.1693  0.1611
  380POSM   AM1 4455  10.428   6.247  12.588 -0.1943 -0.1846  0.2289
  380POSM   AM2 4456  10.279   6.122  12.797  0.1792 -0.1578  0.0094
  380POSM   T1A 4457  10.191   5.833  12.303 -0.0334  0.0998 -0.2579
  380POSM   C2A 4458  10.041   5.414  12.215  0.0506 -0.1152  0.1229
  380POSM   C3A 4459  10.274   5.107  11.925 -0.0830 -0.0904  0.0500
  380POSM   C1B 4460  10.240   5.825  12.855 -0.1258 -0.0140 -0.1887
  380POSM   D2B 4461   9.984   5.601  13.143  0.2538  0.4307  0.1885
  380POSM   C3B 4462   9.905   5.549  13.588 -0.1700  0.1445  0.1447
  380POSM   C4B 4463  10.226   5.474  13.870 -0.0132 -0.0886 -0.1501
  381POSM   NC3 4464   0.150   9.863  12.463 -0.0725 -0.0294 -0.1170
  381POSM   PO4 4465   0.439   9.701  12.252  0.0933  0.1575 -0.1128
  381POSM   AM1 4466   0.436   9.398  12.255  0.1246  0.1722  0.2051
  381POSM   AM2 4467   0.552   9.146  12.414 -0.0440  0.0093 -0.0348
  381POSM   T1A 4468   0.278   9.004  11.946 -0.0661 -0.1115  0.1356
  381POSM   C2A 4469   0.381   8.504  11.899 -0.1322  0.2108 -0.2478
  381POSM   C3A 4470   0.270   8.043  11.835  0.2172 -0.0512  0.0278
  381POSM   C1B 4471   0.544   9.211  12.711  0.1861  0.5879 -0.0745
  381POSM   D2B 4472   0.834   9.450  13.023 -0.0202 -0.1314  0.0765
  381POSM   C3B 4473   1.050   9.162  13.382 -0.0901  0.3178  0.2866
  381POSM   C4B 4474   1.404   9.074  13.712 -0.0295 -0.0147  0.2247
  382DOPS   CNO 4475   6.971   3.363  12.144 -0.1395  0.0396 -0.2968
  382DOPS   PO4 4476   6.882   3.472  12.501  0.1817  0.0247  0.0682
  382DOPS   GL1 4477   6.884   3.171  12.730 -0.1282 -0.0740  0.0436
  382DOPS   GL2 4478   6.824   2.871  12.594  0.1289  0.0999 -0.0105
  382DOPS   C1A 4479   7.066   3.105  13.129  0.1094  0.2065  0.1483
  382DOPS   D2A 4480   7.477   3.179  13.364 -0.0713 -0.2134 -0.2460
  382DOPS   C3A 4481   7.621   2.876  13.672 -0.1824  0.0355 -0.2291
  382DOPS   C4A 4482   7.949   2.813  13.989 -0.4863 -0.0366 -0.1805
  382DOPS   C1B 4483   6.977   2.585  12.283 -0.3087 -0.0184 -0.2040
  382DOPS   D2B 4484   7.070   2.135  12.309 -0.0446  0.4304  0.0185
  382DOPS   C3B 4485   7.382   2.095  12.616 -0.2715  0.2047  0.1430
  382DOPS   C4B 4486   7.342   2.123  13.042  0.2629 -0.0178 -0.1417
  383POSM   NC3 4487   1.842   0.400  12.321 -0.2468  0.0799 -0.0332
  383POSM   PO4 4488   2.108   0.426  12.590  0.2152 -0.2289  0.1156
  383POSM   AM1 4489   2.208   0.247  12.831 -0.2472  0.2120 -0.2006
  383POSM   AM2 4490   2.247  -0.037  12.858  0.1169  0.2228  0.1845
  383POSM   T1A 4491   2.241   0.264  13.342 -0.1071 -0.0666 -0.0234
  383POSM   C2A 4492   2.327   0.271  13.794  0.0386  0.3589  0.1840
  383POSM   C3A 4493   2.523   0.419  14.160  0.2156 -0.1576  0.2745
  383POSM   C1B 4494   2.268  -0.257  13.114 -0.2716  0.2339 -0.1318
  383POSM   D2B 4495   2.347  -0.264  13.542 -0.1144  0.0734  0.2714
  383POSM   C3B 4496   2.633  -0.232  13.906  0.3992  0.0638  0.0748
  383POSM   C4B 4497   2.936   0.007  14.152 -0.1875  0.0972  0.1540
  384DOPE   NH3 4498   4.616   8.793  12.581  0.0235  0.1655 -0.2206
  384DOPE   PO4 4499   4.421   9.048  12.661 -0.0334 -0.1198 -0.0726
  384DOPE   GL1 4500   4.771   9.183  12.898 -0.2777 -0.0927  0.1046
  384DOPE   GL2 4501   4.785   8.860  13.050  0.0594  0.0146 -0.0351
  384DOPE   C1A 4502   5.149   9.324  13.133  0.1863 -0.1447 -0.1051
  384DOPE   D2A 4503   5.411   9.189  13.497  0.1521  0.2180  0.1016
  384DOPE   C3A 4504   5.610   8.861  13.767 -0.1363  0.0114  0.3684
  384DOPE   C4A 4505   5.402   8.723  14.193 -0.0590 -0.3273  0.1056
  384DOPE   C1B 4506   4.965   8.721  13.394 -0.0621 -0.0388 -0.0151
  384DOPE   D2B 4507   5.038   8.920  13.822  0.0986 -0.0337 -0.0750
  384DOPE   C3B 4508   4.721   8.976  14.091 -0.2673 -0.2880  0.1096
  384DOPE   C4B 4509   4.378   8.749  14.272 -0.1169  0.0539  0.1726
  385DOPE   NH3 4510   1.756   2.014  12.613  0.0709  0.1571 -0.2065
  385DOPE   PO4 4511   1.978   2.261  12.631 -0.1595 -0.1099 -0.2861
  385DOPE   GL1 4512   2.013   2.127  12.981 -0.1036 -0.0496 -0.0750
  385DOPE   GL2 4513   2.096   1.896  13.005 -0.0238 -0.1161  0.0602
  385DOPE   C1A 4514   2.032   2.406  13.363  0.0169 -0.2084 -0.0951
  385DOPE   D2A 4515   2.183   2.387  13.799 -0.1890 -0.0937  0.1929
  385DOPE   C3A 4516   2.394   2.677  13.954 -0.0460 -0.1514 -0.1723
  385DOPE   C4A 4517   2.285   3.125  13.964 -0.1843 -0.1245 -0.2341
  385DOPE   C1B 4518   1.989   1.637  13.360 -0.1205  0.0951 -0.1437
  385DOPE   D2B 4519   1.738   1.403  13.659  0.3319  0.2635 -0.3350
  385DOPE   C3B 4520   1.821   1.180  14.030 -0.2270 -0.1105 -0.2092
  385DOPE   C4B 4521   2.062   1.234  14.436 -0.2375 -0.1534  0.1714
  386DOPE   NH3 4522   2.335   1.418  12.848  0.1827 -0.0359  0.0004
  386DOPE   PO4 4523   2.478   1.669  12.745 -0.2242 -0.1291  0.1619
  386DOPE   GL1 4524   2.610   1.922  13.025  0.4366 -0.0965  0.2807
  386DOPE   GL2 4525   2.654   1.642  13.192  0.5722  0.1252 -0.3241
  386DOPE   C1A 4526   2.366   2.032  13.418 -0.1275  0.2413 -0.2021
  386DOPE   D2A 4527   2.259   1.883  13.813 -0.0272 -0.1316  0.0770
  386DOPE   C3A 4528   1.945   1.653  14.091 -0.2592 -0.0015 -0.0137
  386DOPE   C4A 4529   1.531   1.567  14.292  0.2632  0.4741  0.1436
  386DOPE   C1B 4530   2.505   1.445  13.532  0.0882 -0.0506 -0.2665
  386DOPE   D2B 4531   2.282   1.335  13.920 -0.2434 -0.1160 -0.3952
  386DOPE   C3B 4532   2.406   1.587  14.322  0.0427  0.1195 -0.2728
  386DOPE   C4B 4533   2.384   1.931  14.664  0.2061 -0.1451 -0.3130
  387DOPS   CNO 4534   5.079   1.471  12.444 -0.1154 -0.5316  0.0391
  387DOPS   PO4 4535   4.823   1.198  12.549 -0.2748 -0.0346 -0.1228
  387DOPS   GL1 4536   4.543   1.294  12.724  0.0894  0.1077 -0.1299
  387DOPS   GL2 4537   4.637   1.513  12.962  0.2088  0.0871 -0.2138
  387DOPS   C1A 4538   4.127   1.212  12.818  0.1670  0.2699  0.0357
  387DOPS   D2A 4539   3.958   1.271  13.239 -0.0452  0.0568 -0.0426
  387DOPS   C3A 4540   3.983   0.975  13.587  0.0687  0.1660  0.0374
  387DOPS   C4A 4541   3.872   0.901  13.977  0.0796  0.1946 -0.0615
  387DOPS   C1B 4542   4.479   1.181  13.240 -0.0911  0.3470 -0.2252
  387DOPS   D2B 4543   4.374   0.739  13.391  0.0659 -0.2577  0.2958
  387DOPS   C3B 4544   4.317   0.716  13.897  0.2110  0.0892 -0.1656
  387DOPS   C4B 4545   4.278   1.011  14.301 -0.3954 -0.0611  0.1128
  388POSM   NC3 4546   6.468   3.296  12.312 -0.1974 -0.3687 -0.0970
  388POSM   PO4 4547   6.164   3.469  12.478  0.2878 -0.0408  0.4273
  388POSM   AM1 4548   6.388   3.538  12.708  0.2386 -0.3048 -0.0704
  388POSM   AM2 4549   6.490   3.729  12.876  0.1871  0.0416  0.0476
  388POSM   T1A 4550   6.638   3.401  13.149  0.3265  0.0817  0.2507
  388POSM   C2A 4551   7.017   3.516  13.482  0.4034  0.2765 -0.0193
  388POSM   C3A 4552   7.439   3.667  13.648 -0.2964  0.0436  0.2216
  388POSM   C1B 4553   6.776   3.862  13.026 -0.2361 -0.0844 -0.0925
  388POSM   D2B 4554   6.949   4.125  13.398  0.3332  0.0260 -0.0827
  388POSM   C3B 4555   6.966   4.101  13.808  0.0906 -0.0474 -0.0716
  388POSM   C4B 4556   6.653   3.992  14.163  0.2956  0.0346 -0.1333
  389POSM   NC3 4557   8.467   6.491  12.112  0.3798  0.1059 -0.1787
  389POSM   PO4 4558   8.829   6.336  12.212  0.1627  0.0553  0.0158
  389POSM   AM1 4559   9.082   6.152  12.305  0.3235 -0.0462 -0.0113
  389POSM   AM2 4560   9.312   6.063  12.306  0.2436  0.4004  0.1907
  389POSM   T1A 4561   9.187   5.886  12.753  0.0021  0.1513  0.2305
  389POSM   C2A 4562   8.887   5.669  12.992  0.0708 -0.0363  0.1815
  389POSM   C3A 4563   8.919   5.253  13.161 -0.0362 -0.2142  0.3798
  389POSM   C1B 4564   9.576   5.886  12.487  0.2537  0.1054 -0.0502
  389POSM   D2B 4565   9.827   5.567  12.682 -0.1984  0.0314  0.1047
  389POSM   C3B 4566  10.224   5.327  12.758  0.0536 -0.2847  0.3039
  389POSM   C4B 4567  10.561   5.466  13.058 -0.0304 -0.1982  0.0714
  390DOPE   NH3 4568   8.721   3.650  12.429 -0.1412 -0.3307  0.3465
  390DOPE   PO4 4569   8.764   3.351  12.418  0.0122  0.1245 -0.3892
  390DOPE   GL1 4570   8.432   3.074  12.547 -0.1279 -0.3940  0.2214
  390DOPE   GL2 4571   8.602   3.038  12.776 -0.0109 -0.0363 -0.0719
  390DOPE   C1A 4572   8.203   3.023  12.988  0.0605 -0.0802 -0.1969
  390DOPE   D2A 4573   8.268   2.661  13.304 -0.2051  0.1302 -0.0694
  390DOPE   C3A 4574   8.323   2.870  13.736  0.1698  0.1553 -0.2086
  390DOPE   C4A 4575   8.333   3.311  13.879 -0.1274 -0.0558 -0.2881
  390DOPE   C1B 4576   8.461   2.580  12.863 -0.0203 -0.6744 -0.0486
  390DOPE   D2B 4577   8.273   2.198  13.006  0.0139  0.1058  0.0851
  390DOPE   C3B 4578   8.284   2.183  13.514 -0.2865  0.0325 -0.1177
  390DOPE   C4B 4579   8.288   2.399  13.883  0.0561  0.0606 -0.0880
  391DOPS   CNO 4580   1.225  10.568  12.493 -0.3121 -0.0276 -0.0631
  391DOPS   PO4 4581   1.570  10.450  12.387  0.1510  0.3529  0.0832
  391DOPS   GL1 4582   1.558  10.398  12.848 -0.3089 -0.1269  0.2699
  391DOPS   GL2 4583   1.776  10.292  12.886  0.0757 -0.2823  0.0205
  391DOPS   C1A 4584   1.401  10.544  13.212 -0.0909 -0.0190  0.0575
  391DOPS   D2A 4585   1.373  10.883  13.456  0.2445 -0.0093  0.2168
  391DOPS   C3A 4586   1.438  10.736  13.848 -0.1941  0.0355 -0.2834
  391DOPS   C4A 4587   1.520  10.390  14.104 -0.3398  0.1619 -0.0762
  391DOPS   C1B 4588   1.533  10.042  13.171 -0.1359 -0.2330 -0.1181
  391DOPS   D2B 4589   1.191  10.137  13.461 -0.0013 -0.1058 -0.1127
  391DOPS   C3B 4590   1.104  10.270  13.900  0.3903 -0.0017  0.0221
  391DOPS   C4B 4591   1.035  10.611  14.220  0.3622  0.0951  0.1379
  392DOPE   NH3 4592   5.253   8.413  12.612 -0.0365  0.0035 -0.0449
  392DOPE   PO4 4593   5.388   8.132  12.758 -0.2809 -0.0897 -0.1027
  392DOPE   GL1 4594   5.717   8.281  12.940 -0.2791  0.4403  0.0357
  392DOPE   GL2 4595   5.846   8.069  12.947 -0.0080  0.0233  0.1940
  392DOPE   C1A 4596   6.102   8.553  13.000  0.2288 -0.1510  0.0168
  392DOPE   D2A 4597   6.482   8.872  13.130  0.1882  0.5324 -0.0340
  392DOPE   C3A 4598   6.970   8.789  13.040 -0.0909  0.1334  0.0086
  392DOPE   C4A 4599   7.126   8.393  12.852  0.1246  0.0817  0.0503
  392DOPE   C1B 4600   5.849   7.941  13.378  0.2141  0.1685 -0.0847
  392DOPE   D2B 4601   6.027   7.974  13.831  0.0812  0.0102 -0.0118
  392DOPE   C3B 4602   6.201   8.308  14.091  0.0162  0.0594 -0.0890
  392DOPE   C4B 4603   6.019   8.758  14.121 -0.1479 -0.2672 -0.0714
  393POSM   NC3 4604  34.368   2.121  12.293 -0.1224  0.1347 -0.1166
  393POSM   PO4 4605  34.344   2.017  12.667 -0.5018 -0.3721  0.0865
  393POSM   AM1 4606  34.532   1.883  12.933 -0.3448 -0.0293 -0.1353
  393POSM   AM2 4607  34.414   1.748  13.090 -0.1890  0.0339  0.3420
  393POSM   T1A 4608  34.888   1.641  13.179  0.1318  0.2338 -0.0681
  393POSM   C2A 4609  35.166   1.259  13.277 -0.3822 -0.0591  0.0993
  393POSM   C3A 4610  35.525   0.939  13.125  0.3594 -0.5236  0.0704
  393POSM   C1B 4611  34.364   1.544  13.333  0.0568 -0.0191  0.0157
  393POSM   D2B 4612  34.446   1.411  13.740  0.1210 -0.1437  0.3233
  393POSM   C3B 4613  34.230   1.329  14.152 -0.1753 -0.1884 -0.2134
  393POSM   C4B 4614  33.956   1.356  14.537  0.0107  0.2701 -0.3266
  394POSM   NC3 4615   0.869  10.693  12.102 -0.1760 -0.1412  0.0736
  394POSM   PO4 4616   0.709  10.731  12.397 -0.1456  0.1287 -0.0747
  394POSM   AM1 4617   0.853  10.718  12.696  0.0056 -0.2158 -0.1690
  394POSM   AM2 4618   1.054  10.813  12.884  0.1075  0.1704 -0.3209
  394POSM   T1A 4619   1.049  10.325  12.925  0.1837  0.0170 -0.2298
  394POSM   C2A 4620   1.235   9.932  12.826  0.1615  0.3176  0.1212
  394POSM   C3A 4621   1.412   9.803  12.431  0.2455  0.0270  0.2262
  394POSM   C1B 4622   0.911  11.037  13.141 -0.0251  0.2549 -0.1363
  394POSM   D2B 4623   0.658  11.127  13.538  0.0529 -0.0359  0.1285
  394POSM   C3B 4624   0.854  11.257  13.966 -0.1866  0.0826 -0.2810
  394POSM   C4B 4625   1.035  11.380  14.382 -0.2342 -0.1726  0.2511
  395DOPC   NC3 4626   4.022   8.444  12.784 -0.0236  0.1008 -0.2553
  395DOPC   PO4 4627   4.390   8.312  12.790  0.1022 -0.1078  0.2422
  395DOPC   GL1 4628   4.291   8.322  13.195 -0.1987  0.0463 -0.1248
  395DOPC   GL2 4629   4.500   8.513  13.317 -0.2346 -0.1029  0.0348
  395DOPC   C1A 4630   3.840   8.205  13.454  0.3321  0.2527  0.0222
  395DOPC   D2A 4631   3.577   8.144  13.812 -0.0059 -0.3496  0.1751
  395DOPC   C3A 4632   3.713   8.312  14.244 -0.0686 -0.1550 -0.0211
  395DOPC   C4A 4633   3.704   8.742  14.462 -0.0210  0.3171 -0.0138
  395DOPC   C1B 4634   4.221   8.469  13.682 -0.2229 -0.0182  0.1562
  395DOPC   D2B 4635   3.808   8.636  13.748  0.2003  0.1604 -0.1404
  395DOPC   C3B 4636   3.488   8.897  13.977  0.0635 -0.3250  0.2025
  395DOPC   C4B 4637   3.123   9.181  14.004 -0.0681 -0.1008  0.0198
  396POSM   NC3 4638   0.298   6.860  12.364 -0.0616  0.2589  0.3804
  396POSM   PO4 4639   0.557   6.970  12.604  0.0668  0.0559  0.0888
  396POSM   AM1 4640   0.559   7.084  12.893  0.0968 -0.1297  0.1986
  396POSM   AM2 4641   0.493   7.294  12.997 -0.2754  0.1872 -0.1792
  396POSM   T1A 4642   0.394   6.897  13.323  0.1186  0.0141  0.0921
  396POSM   C2A 4643   0.425   6.804  13.810 -0.0400  0.2622  0.1357
  396POSM   C3A 4644   0.635   6.635  14.136 -0.1417  0.2710  0.1890
  396POSM   C1B 4645   0.622   7.427  13.226 -0.1510 -0.0693  0.0511
  396POSM   D2B 4646   0.579   7.623  13.613  0.2228  0.0377 -0.1101
  396POSM   C3B 4647   0.215   7.849  13.648  0.0789 -0.1773 -0.1271
  396POSM   C4B 4648  -0.236   7.769  13.657 -0.0077 -0.1283 -0.0635
  397DOPE   NH3 4649   4.558   2.361  12.853  0.1551  0.0535 -0.1603
  397DOPE   PO4 4650   4.722   2.103  12.923  0.1027  0.0371  0.1286
  397DOPE   GL1 4651   4.422   1.928  13.061  0.0243  0.2961  0.0023
  397DOPE   GL2 4652   4.323   2.105  13.248 -0.0055 -0.1559 -0.1473
  397DOPE   C1A 4653   4.229   1.669  13.417  0.0914 -0.0791 -0.1942
  397DOPE   D2A 4654   3.857   1.510  13.679  0.1152  0.1524 -0.1594
  397DOPE   C3A 4655   3.500   1.788  13.701  0.0988  0.0064  0.1475
  397DOPE   C4A 4656   3.246   2.108  13.889 -0.1470  0.1893 -0.0603
  397DOPE   C1B 4657   4.164   2.506  13.337 -0.2222  0.0311  0.0152
  397DOPE   D2B 4658   3.904   2.642  13.724  0.0796  0.1285  0.0227
  397DOPE   C3B 4659   3.807   3.085  13.882 -0.0646  0.1628 -0.3246
  397DOPE   C4B 4660   3.922   3.263  14.312 -0.0523 -0.0664 -0.1206
  398DOPS   CNO 4661   2.731   5.875  12.470  0.0124 -0.0279 -0.0923
  398DOPS   PO4 4662   2.963   5.832  12.798 -0.2642 -0.0578  0.0787
  398DOPS   GL1 4663   2.942   5.532  13.256  0.2145 -0.0503 -0.2135
  398DOPS   GL2 4664   2.879   5.783  13.318  0.1386 -0.2002 -0.0549
  398DOPS   C1A 4665   2.759   5.146  13.416 -0.0595  0.1854 -0.0977
  398DOPS   D2A 4666   2.273   5.053  13.424 -0.2127 -0.2412 -0.0104
  398DOPS   C3A 4667   2.062   4.939  13.854 -0.2880  0.1183 -0.0578
  398DOPS   C4A 4668   1.999   4.964  14.293 -0.0302  0.2769 -0.1020
  398DOPS   C1B 4669   2.837   6.076  13.764  0.1511  0.0622  0.1807
  398DOPS   D2B 4670   2.802   6.291  14.069 -0.0371  0.0526 -0.2145
  398DOPS   C3B 4671   3.043   6.200  14.453 -0.1573 -0.2563 -0.0836
  398DOPS   C4B 4672   3.223   6.380  14.832 -0.0340  0.1285 -0.0545
  399DOPC   NC3 4673   2.248   6.818  12.530 -0.0320 -0.0761 -0.2103
  399DOPC   PO4 4674   2.059   7.041  12.776 -0.0791 -0.0619 -0.1991
  399DOPC   GL1 4675   2.203   7.313  13.052 -0.2317  0.2034 -0.2584
  399DOPC   GL2 4676   2.332   7.134  13.242 -0.0545 -0.0367  0.0296
  399DOPC   C1A 4677   2.130   7.564  13.440 -0.0343 -0.3749  0.3741
  399DOPC   D2A 4678   2.294   7.580  13.854  0.1773  0.0713  0.0723
  399DOPC   C3A 4679   2.722   7.510  13.812  0.1968  0.0454 -0.1037
  399DOPC   C4A 4680   3.095   7.280  13.948  0.0953 -0.0893  0.0435
  399DOPC   C1B 4681   2.351   7.092  13.715 -0.2463 -0.1390 -0.0448
  399DOPC   D2B 4682   2.632   7.103  14.135  0.0248 -0.3640 -0.1027
  399DOPC   C3B 4683   2.499   7.455  14.341 -0.2823  0.1894 -0.0986
  399DOPC   C4B 4684   2.499   7.754  14.684 -0.0659 -0.0602  0.1599
  400DOPC   NC3 4685   8.510  10.088  12.222 -0.0046  0.2531 -0.0979
  400DOPC   PO4 4686   8.110  10.151  12.188 -0.0965 -0.2141 -0.1649
  400DOPC   GL1 4687   8.000  10.155  12.533 -0.3305  0.0921 -0.1788
  400DOPC   GL2 4688   8.261  10.140  12.666  0.3677 -0.0549 -0.2042
  400DOPC   C1A 4689   7.900   9.888  12.890  0.0769 -0.1498  0.0018
  400DOPC   D2A 4690   8.176   9.654  13.214 -0.1370  0.1617 -0.3418
  400DOPC   C3A 4691   8.563   9.365  13.262  0.1968 -0.2108 -0.0360
  400DOPC   C4A 4692   8.979   9.191  13.323  0.0844 -0.0553  0.0324
  400DOPC   C1B 4693   8.548   9.781  12.670 -0.0841  0.0201 -0.2111
  400DOPC   D2B 4694   8.691   9.446  12.375 -0.1165  0.0537  0.0469
  400DOPC   C3B 4695   8.364   9.375  12.078  0.0244 -0.0751  0.0384
  400DOPC   C4B 4696   8.046   9.334  11.762 -0.4255  0.2128  0.0846
  401DOPC   NC3 4697   1.726   4.988  13.109 -0.1273 -0.3897 -0.0235
  401DOPC   PO4 4698   1.675   5.376  13.001 -0.0008 -0.1067 -0.1090
  401DOPC   GL1 4699   1.766   5.487  13.423  0.1427  0.1095  0.0088
  401DOPC   GL2 4700   1.580   5.413  13.601  0.1696 -0.1293  0.0632
  401DOPC   C1A 4701   2.079   5.419  13.774  0.0324 -0.2469 -0.0488
  401DOPC   D2A 4702   2.457   5.233  14.011  0.5260 -0.3049 -0.0232
  401DOPC   C3A 4703   2.511   4.841  13.773 -0.2097  0.3123  0.1803
  401DOPC   C4A 4704   2.827   4.472  13.723  0.0600  0.0383 -0.1773
  401DOPC   C1B 4705   1.670   5.464  14.036 -0.1554  0.0696  0.1782
  401DOPC   D2B 4706   1.872   5.495  14.444 -0.0625  0.2622  0.4527
  401DOPC   C3B 4707   2.352   5.569  14.472 -0.3047 -0.0162  0.2761
  401DOPC   C4B 4708   2.787   5.586  14.339  0.1621 -0.1681  0.0872
  402DOPS   CNO 4709   5.005   9.113  12.470  0.2956 -0.2340  0.4656
  402DOPS   PO4 4710   5.113   8.870  12.721  0.3698  0.1493  0.0249
  402DOPS   GL1 4711   5.558   8.840  12.932  0.0470  0.1627 -0.2716
  402DOPS   GL2 4712   5.826   8.857  12.772 -0.0015 -0.1732  0.2424
  402DOPS   C1A 4713   5.888   8.946  13.263 -0.3981 -0.2127 -0.3612
  402DOPS   D2A 4714   6.085   8.989  13.642 -0.1449 -0.1654  0.1042
  402DOPS   C3A 4715   5.842   9.235  13.966  0.0078  0.1982 -0.1120
  402DOPS   C4A 4716   5.671   9.074  14.343 -0.2487  0.2474  0.2246
  402DOPS   C1B 4717   5.665   9.304  12.844 -0.0447 -0.1000  0.1327
  402DOPS   D2B 4718   5.895   9.644  13.077 -0.2816 -0.0996  0.1129
  402DOPS   C3B 4719   5.744   9.665  13.536  0.0614  0.2333 -0.3498
  402DOPS   C4B 4720   5.598   9.813  13.905 -0.0046 -0.1757 -0.0321
  403POSM   NC3 4721   1.781   0.119  12.902  0.5477  0.1694 -0.1904
  403POSM   PO4 4722   1.476   0.149  12.666 -0.0451  0.1126 -0.0767
  403POSM   AM1 4723   1.299   0.208  12.942  0.0598  0.0428  0.1809
  403POSM   AM2 4724   1.136   0.006  13.082  0.1700 -0.2879 -0.2141
  403POSM   T1A 4725   1.586   0.153  13.365  0.2240  0.1505  0.2204
  403POSM   C2A 4726   1.923  -0.043  13.611 -0.1025  0.1912  0.0573
  403POSM   C3A 4727   2.168  -0.113  14.029  0.3558  0.1663 -0.1468
  403POSM   C1B 4728   1.142   0.068  13.417  0.0578 -0.0869  0.1882
  403POSM   D2B 4729   1.297   0.177  13.844 -0.0565 -0.1995  0.0080
  403POSM   C3B 4730   1.132   0.115  14.285 -0.5210 -0.3266  0.1057
  403POSM   C4B 4731   0.962  -0.113  14.650  0.1835  0.0121  0.4626
  404POSM   NC3 4732   6.855  11.105  12.255  0.0513 -0.1886  0.2343
  404POSM   PO4 4733   6.576  11.203  12.529 -0.1950 -0.0199 -0.1576
  404POSM   AM1 4734   6.405  11.110  12.791  0.2222  0.1661 -0.1753
  404POSM   AM2 4735   6.318  10.861  12.913 -0.1660  0.0101  0.0075
  404POSM   T1A 4736   5.951  11.170  12.904  0.1289  0.2552  0.3841
  404POSM   C2A 4737   5.526  10.982  12.949  0.1582 -0.2150  0.0938
  404POSM   C3A 4738   5.047  10.853  12.897  0.2116  0.2038  0.1463
  404POSM   C1B 4739   6.261  10.566  13.086  0.5301  0.0392 -0.0371
  404POSM   D2B 4740   6.197  10.448  13.514 -0.2825  0.2580 -0.3314
  404POSM   C3B 4741   5.915  10.696  13.744  0.1818  0.1319 -0.0570
  404POSM   C4B 4742   6.048  11.155  13.981  0.4094  0.1000  0.0584
  405DOPE   NH3 4743  34.202   7.147  12.739  0.2273  0.2076 -0.2325
  405DOPE   PO4 4744  34.298   6.860  12.853  0.1187  0.0137 -0.0526
  405DOPE   GL1 4745  34.212   6.568  13.067 -0.0674 -0.7126 -0.0385
  405DOPE   GL2 4746  33.916   6.646  13.170  0.0722  0.2207 -0.1211
  405DOPE   C1A 4747  34.042   6.161  12.994 -0.0907 -0.1621  0.0967
  405DOPE   D2A 4748  34.054   5.730  13.203  0.0337  0.0293  0.1647
  405DOPE   C3A 4749  34.155   5.751  13.641 -0.0619  0.2544 -0.0728
  405DOPE   C4A 4750  34.475   5.413  13.749  0.2388 -0.2793  0.2791
  405DOPE   C1B 4751  34.214   6.754  13.545 -0.1640  0.1351 -0.1029
  405DOPE   D2B 4752  34.557   6.800  13.878 -0.2859  0.2309  0.0016
  405DOPE   C3B 4753  34.349   6.566  14.277  0.0552 -0.1034  0.2404
  405DOPE   C4B 4754  33.976   6.234  14.189 -0.1272 -0.1128  0.3020
  406DOPC   NC3 4755   5.687   0.090  12.669  0.2058 -0.1873  0.1475
  406DOPC   PO4 4756   5.321   0.290  12.680 -0.0541  0.2597 -0.2817
  406DOPC   GL1 4757   5.021   0.091  12.800 -0.2737 -0.1051  0.0341
  406DOPC   GL2 4758   4.745   0.012  12.715  0.1215 -0.0683 -0.0740
  406DOPC   C1A 4759   5.048  -0.011  13.228 -0.0570 -0.1619 -0.0548
  406DOPC   D2A 4760   4.835  -0.186  13.572 -0.3291  0.0147  0.0530
  406DOPC   C3A 4761   4.673   0.024  13.972 -0.1679 -0.1599  0.0326
  406DOPC   C4A 4762   4.431   0.274  14.170 -0.3762 -0.1993 -0.0570
  406DOPC   C1B 4763   4.376  -0.289  12.707  0.1114 -0.1363  0.0605
  406DOPC   D2B 4764   4.102  -0.639  12.630 -0.0839 -0.0992 -0.0083
  406DOPC   C3B 4765   4.239  -1.068  12.609  0.2511 -0.0552  0.4033
  406DOPC   C4B 4766   4.066  -1.561  12.592 -0.0537  0.0536 -0.3393
  407POSM   NC3 4767  10.966   2.930  12.818 -0.1696  0.4669 -0.2448
  407POSM   PO4 4768  10.713   3.059  12.523 -0.1531  0.0344 -0.1775
  407POSM   AM1 4769  10.628   3.191  12.862  0.1790 -0.0742  0.3770
  407POSM   AM2 4770  10.760   3.358  13.047  0.0664  0.2024  0.4469
  407POSM   T1A 4771  10.286   3.075  13.187 -0.1179 -0.0519 -0.0562
  407POSM   C2A 4772   9.851   3.161  13.386 -0.5019  0.1152 -0.1090
  407POSM   C3A 4773   9.747   3.409  13.730 -0.0979 -0.4074 -0.4396
  407POSM   C1B 4774  10.722   3.472  13.361  0.1010  0.0419  0.2280
  407POSM   D2B 4775  10.774   3.533  13.799  0.2466 -0.1277 -0.0964
  407POSM   C3B 4776  11.156   3.688  13.959  0.0553 -0.0414 -0.0909
  407POSM   C4B 4777  11.584   3.831  13.889  0.2399  0.2589  0.0961
  408POSM   NC3 4778   5.131   7.845  13.110 -0.1299  0.0190  0.3657
  408POSM   PO4 4779   4.930   7.539  12.874  0.1779  0.3026  0.0834
  408POSM   AM1 4780   5.154   7.357  12.984 -0.0054 -0.3153 -0.1763
  408POSM   AM2 4781   5.236   7.311  13.275  0.1228 -0.3181 -0.0435
  408POSM   T1A 4782   5.360   6.920  12.971 -0.2290 -0.2022  0.1655
  408POSM   C2A 4783   5.623   6.692  13.305 -0.2450 -0.2695  0.1287
  408POSM   C3A 4784   6.042   6.630  13.541  0.1871 -0.1127  0.0802
  408POSM   C1B 4785   5.323   7.139  13.547 -0.0013  0.1625  0.1710
  408POSM   D2B 4786   5.595   6.932  13.849 -0.0838 -0.1743 -0.2839
  408POSM   C3B 4787   5.700   7.148  14.245 -0.1618  0.1192  0.1405
  408POSM   C4B 4788   5.662   7.092  14.704 -0.1405 -0.2505 -0.1550
  409DOPC   NC3 4789   2.313  20.325  16.552  0.0047 -0.1950  0.4381
  409DOPC   PO4 4790   2.723  20.379  16.473  0.0674 -0.0680 -0.1739
  409DOPC   GL1 4791   2.546  20.565  16.120 -0.2088 -0.1309  0.3330
  409DOPC   GL2 4792   2.218  20.568  16.115 -0.0963  0.1428  0.1415
  409DOPC   C1A 4793   2.588  20.676  15.654 -0.0522  0.0907  0.2509
  409DOPC   D2A 4794   2.505  20.920  15.281  0.0758  0.0749 -0.0527
  409DOPC   C3A 4795   2.047  21.034  15.329  0.1465  0.1171 -0.2229
  409DOPC   C4A 4796   1.782  21.376  15.105 -0.3797  0.1955  0.1171
  409DOPC   C1B 4797   2.080  20.632  15.663  0.1915  0.3795 -0.1733
  409DOPC   D2B 4798   2.126  20.501  15.218  0.1195 -0.0054 -0.0712
  409DOPC   C3B 4799   2.188  20.791  14.891  0.0393 -0.1580  0.2411
  409DOPC   C4B 4800   2.192  20.969  14.474 -0.1376 -0.2683 -0.0277
  410DOPC   NC3 4801   9.098  14.911  15.843 -0.3662 -0.1980  0.0636
  410DOPC   PO4 4802   9.185  15.114  15.515  0.0487 -0.3365 -0.2189
  410DOPC   GL1 4803   8.868  15.076  15.242 -0.1357  0.1361  0.2054
  410DOPC   GL2 4804   8.933  15.323  15.140  0.0842 -0.0121  0.5369
  410DOPC   C1A 4805   8.687  15.001  14.800  0.2483 -0.2856  0.3332
  410DOPC   D2A 4806   8.622  14.886  14.294 -0.0749  0.2967  0.2136
  410DOPC   C3A 4807   8.163  15.040  14.213  0.2211 -0.4966  0.0674
  410DOPC   C4A 4808   7.899  15.262  13.899 -0.0586  0.1389  0.0818
  410DOPC   C1B 4809   9.326  15.435  14.937 -0.1213 -0.1285  0.0286
  410DOPC   D2B 4810   9.623  15.122  14.745  0.2852 -0.2199 -0.0093
  410DOPC   C3B 4811   9.620  14.954  14.289  0.2130  0.0279  0.1195
  410DOPC   C4B 4812   9.328  14.768  13.971 -0.2410 -0.0934 -0.1234
  411DOPE   NH3 4813   9.082  21.109  15.451 -0.0464  0.0744 -0.0505
  411DOPE   PO4 4814   9.367  21.012  15.467 -0.1446 -0.2772  0.0130
  411DOPE   GL1 4815   9.451  21.272  15.144  0.3798 -0.0708 -0.0588
  411DOPE   GL2 4816   9.220  21.467  15.091 -0.1729 -0.0832 -0.2174
  411DOPE   C1A 4817   9.590  21.280  14.709  0.0506 -0.0323 -0.0594
  411DOPE   D2A 4818   9.622  21.378  14.287 -0.2319  0.1036 -0.0793
  411DOPE   C3A 4819   9.515  21.719  13.902  0.0998  0.1552 -0.2000
  411DOPE   C4A 4820   9.577  21.799  13.456 -0.2288 -0.1932 -0.1724
  411DOPE   C1B 4821   9.151  21.509  14.582 -0.1487 -0.0999 -0.1538
  411DOPE   D2B 4822   9.137  21.432  14.117  0.0978  0.1222  0.2086
  411DOPE   C3B 4823   9.130  21.380  13.622 -0.1579  0.3647 -0.0005
  411DOPE   C4B 4824   9.164  21.412  13.190  0.0300 -0.1179  0.2336
  412DOPE   NH3 4825   0.726  20.352  16.502 -0.1463 -0.0412  0.1838
  412DOPE   PO4 4826   0.840  20.287  16.194 -0.2403  0.1334  0.0500
  412DOPE   GL1 4827   0.958  20.450  15.971  0.2476 -0.4064 -0.3359
  412DOPE   GL2 4828   0.848  20.619  15.731 -0.4239 -0.2432 -0.0841
  412DOPE   C1A 4829   1.236  20.836  16.002  0.1702  0.1179 -0.2588
  412DOPE   D2A 4830   1.461  21.220  16.101  0.1841  0.0166  0.0863
  412DOPE   C3A 4831   1.391  21.578  15.954 -0.1033 -0.0546 -0.0078
  412DOPE   C4A 4832   1.633  21.996  16.036 -0.1144  0.2337 -0.0683
  412DOPE   C1B 4833   0.896  20.917  15.321  0.1424 -0.3710 -0.0597
  412DOPE   D2B 4834   0.799  20.820  14.885  0.2074 -0.1701 -0.0478
  412DOPE   C3B 4835   0.944  20.871  14.400 -0.1977 -0.1818 -0.1024
  412DOPE   C4B 4836   1.132  20.764  13.985  0.0253 -0.3130 -0.1413
  413DOPC   NC3 4837   9.296  23.350  15.684 -0.0007  0.1784  0.1716
  413DOPC   PO4 4838   9.681  23.320  15.712 -0.0362  0.0158 -0.2386
  413DOPC   GL1 4839   9.644  23.406  15.323  0.1241 -0.3300  0.2595
  413DOPC   GL2 4840   9.396  23.286  15.183  0.0708 -0.2055  0.4184
  413DOPC   C1A 4841   9.766  23.265  14.906 -0.0765 -0.1517 -0.0288
  413DOPC   D2A 4842   9.749  23.047  14.467 -0.1090 -0.0085  0.2385
  413DOPC   C3A 4843   9.488  22.705  14.349  0.3624  0.2895  0.0101
  413DOPC   C4A 4844   9.254  22.420  14.013  0.1312  0.4492  0.0348
  413DOPC   C1B 4845   9.303  23.125  14.759  0.2157 -0.0200  0.2008
  413DOPC   D2B 4846   9.264  23.139  14.286  0.2839 -0.0506  0.2702
  413DOPC   C3B 4847   8.947  23.128  13.968  0.0276 -0.3235  0.2090
  413DOPC   C4B 4848   8.495  23.144  13.791 -0.0281 -0.1874  0.1221
  414DOPC   NC3 4849  10.022  20.388  15.551  0.0177 -0.0785  0.1440
  414DOPC   PO4 4850  10.284  20.685  15.368  0.1089 -0.2514 -0.3307
  414DOPC   GL1 4851  10.482  20.883  15.040  0.2791  0.3081 -0.1001
  414DOPC   GL2 4852  10.457  21.187  15.130 -0.2994  0.1844 -0.2240
  414DOPC   C1A 4853  10.539  21.174  14.660 -0.1983  0.1673 -0.2800
  414DOPC   D2A 4854  10.821  21.517  14.435  0.1399  0.0032  0.2265
  414DOPC   C3A 4855  10.996  21.371  13.996  0.2273  0.3414 -0.2491
  414DOPC   C4A 4856  11.393  21.471  13.725 -0.1117 -0.1851 -0.0857
  414DOPC   C1B 4857  10.577  21.623  14.988  0.2833 -0.0862  0.2017
  414DOPC   D2B 4858  10.714  21.932  14.686  0.1133  0.1867 -0.2058
  414DOPC   C3B 4859  10.612  21.949  14.269 -0.2774  0.1646 -0.3159
  414DOPC   C4B 4860  10.667  22.204  13.897  0.1340  0.1794 -0.0957
  415POSM   NC3 4861   3.401  14.551  16.632 -0.1641 -0.4863  0.1755
  415POSM   PO4 4862   3.557  14.724  16.314 -0.0577  0.1714  0.3034
  415POSM   AM1 4863   3.486  14.923  16.031 -0.2692 -0.1256  0.0041
  415POSM   AM2 4864   3.638  15.006  15.823 -0.1972 -0.1045 -0.1199
  415POSM   T1A 4865   3.315  15.342  15.847 -0.3192  0.2431 -0.2470
  415POSM   C2A 4866   2.918  15.494  15.670  0.0996 -0.1394  0.3357
  415POSM   C3A 4867   2.580  15.674  15.478  0.7290  0.0774 -0.0634
  415POSM   C1B 4868   3.587  14.770  15.554  0.1394 -0.2350 -0.1088
  415POSM   D2B 4869   3.362  14.585  15.244  0.0833 -0.0660 -0.1433
  415POSM   C3B 4870   3.413  14.160  15.088 -0.1680 -0.1491  0.0742
  415POSM   C4B 4871   3.601  13.706  15.020  0.3739  0.5801  0.0723
  416DOPS   CNO 4872   8.412  21.244  15.668  0.3031 -0.0392 -0.3337
  416DOPS   PO4 4873   8.395  21.635  15.821  0.0034  0.2623 -0.0471
  416DOPS   GL1 4874   8.119  21.647  15.449 -0.0071 -0.2773 -0.3194
  416DOPS   GL2 4875   8.034  21.453  15.236  0.2631 -0.1452 -0.3148
  416DOPS   C1A 4876   7.888  21.932  15.117  0.2045  0.0624  0.2104
  416DOPS   D2A 4877   8.004  21.948  14.707 -0.1747  0.5625  0.0147
  416DOPS   C3A 4878   8.397  22.176  14.655  0.0680  0.0867  0.2194
  416DOPS   C4A 4879   8.540  22.610  14.722  0.0970 -0.1175  0.0582
  416DOPS   C1B 4880   8.184  21.504  14.749  0.2473 -0.4137  0.1064
  416DOPS   D2B 4881   8.185  21.633  14.289  0.2616 -0.1744 -0.3956
  416DOPS   C3B 4882   8.212  21.182  14.134  0.2420 -0.0579 -0.0980
  416DOPS   C4B 4883   8.130  20.794  13.872 -0.1379  0.0153 -0.2853
  417DOPC   NC3 4884   5.268  14.829  16.640 -0.0886  0.0295 -0.0670
  417DOPC   PO4 4885   5.384  14.462  16.645  0.3490 -0.0406  0.1505
  417DOPC   GL1 4886   5.332  14.366  16.323 -0.0163 -0.2134  0.0380
  417DOPC   GL2 4887   5.064  14.398  16.272  0.2026 -0.1771 -0.3937
  417DOPC   C1A 4888   5.405  14.432  15.868  0.0564  0.1526 -0.0722
  417DOPC   D2A 4889   5.736  14.586  15.604 -0.1678  0.0385 -0.0141
  417DOPC   C3A 4890   5.627  14.183  15.357  0.1121  0.2462 -0.2463
  417DOPC   C4A 4891   5.370  13.941  15.032  0.1653  0.1439  0.3536
  417DOPC   C1B 4892   4.839  14.333  15.856  0.0200 -0.4501 -0.2230
  417DOPC   D2B 4893   4.435  14.235  15.685  0.4907  0.1972 -0.1522
  417DOPC   C3B 4894   4.249  14.462  15.274  0.2806  0.2399 -0.2578
  417DOPC   C4B 4895   3.828  14.612  15.057  0.3327  0.0228  0.2160
  418DOPE   NH3 4896   1.993  17.140  16.534 -0.0814 -0.1585 -0.1109
  418DOPE   PO4 4897   1.734  17.273  16.323 -0.2163 -0.0663 -0.0341
  418DOPE   GL1 4898   1.940  17.387  15.930  0.1837 -0.0879  0.3814
  418DOPE   GL2 4899   2.262  17.304  15.970 -0.3403  0.0458 -0.1326
  418DOPE   C1A 4900   2.078  17.232  15.523 -0.1754 -0.0714  0.1092
  418DOPE   D2A 4901   2.360  17.001  15.193  0.1132  0.1550 -0.2943
  418DOPE   C3A 4902   2.786  16.932  15.020 -0.2068 -0.0843 -0.0182
  418DOPE   C4A 4903   3.042  16.516  14.969 -0.1015 -0.1029 -0.3276
  418DOPE   C1B 4904   2.414  17.629  15.684 -0.0354  0.2252 -0.1253
  418DOPE   D2B 4905   2.765  17.559  15.401 -0.0816 -0.2050 -0.3500
  418DOPE   C3B 4906   2.748  17.907  15.085  0.2860 -0.1132  0.3149
  418DOPE   C4B 4907   2.776  18.225  14.754  0.0876  0.1471 -0.0444
  419POSM   NC3 4908   8.769  21.223  16.081 -0.2709  0.1301  0.1124
  419POSM   PO4 4909   8.826  20.962  15.830 -0.3000  0.0759 -0.1981
  419POSM   AM1 4910   8.737  20.833  15.555  0.3282 -0.0645 -0.0523
  419POSM   AM2 4911   8.597  20.954  15.313  0.0785  0.0764  0.0027
  419POSM   T1A 4912   8.578  20.472  15.192 -0.2673 -0.1620 -0.0691
  419POSM   C2A 4913   8.344  20.097  15.020 -0.0126 -0.0973  0.5169
  419POSM   C3A 4914   7.991  19.803  15.012 -0.1275 -0.2520 -0.2441
  419POSM   C1B 4915   8.336  20.994  15.079  0.2381  0.0638  0.2871
  419POSM   D2B 4916   8.172  20.960  14.644 -0.1229 -0.1247  0.2419
  419POSM   C3B 4917   8.497  20.784  14.314  0.1560  0.3768 -0.0569
  419POSM   C4B 4918   8.881  20.599  14.130 -0.0240 -0.5469  0.0341
  420DOPS   CNO 4919   5.932  22.284  15.821  0.0405 -0.1443 -0.1993
  420DOPS   PO4 4920   6.141  22.564  15.956 -0.1182 -0.2294  0.1092
  420DOPS   GL1 4921   6.002  22.699  15.558 -0.3829 -0.3107 -0.1528
  420DOPS   GL2 4922   5.699  22.689  15.524 -0.1895  0.0646 -0.1195
  420DOPS   C1A 4923   5.884  23.089  15.354 -0.1989 -0.1983  0.0367
  420DOPS   D2A 4924   5.900  23.399  14.979 -0.2661  0.3253  0.0490
  420DOPS   C3A 4925   6.093  23.575  14.563  0.0174  0.0330 -0.2750
  420DOPS   C4A 4926   6.114  24.013  14.397 -0.0694  0.2197  0.2668
  420DOPS   C1B 4927   5.761  22.536  15.076  0.2258 -0.0333 -0.1179
  420DOPS   D2B 4928   5.728  22.688  14.609  0.1685 -0.1789  0.0981
  420DOPS   C3B 4929   5.767  23.134  14.538  0.1635  0.3093  0.0806
  420DOPS   C4B 4930   5.492  23.450  14.381 -0.0324  0.1609 -0.0736
  421DOPC   NC3 4931  10.335  15.185  15.779 -0.5246  0.1528 -0.2780
  421DOPC   PO4 4932  10.457  14.810  15.659 -0.1195 -0.4888  0.0449
  421DOPC   GL1 4933  10.206  14.753  15.315 -0.2815  0.2097 -0.0443
  421DOPC   GL2 4934   9.942  14.720  15.247  0.0635 -0.2908 -0.2753
  421DOPC   C1A 4935  10.251  14.409  14.979 -0.0323 -0.6213 -0.0544
  421DOPC   D2A 4936  10.289  14.305  14.580  0.0451 -0.0124 -0.1639
  421DOPC   C3A 4937  10.378  13.877  14.653 -0.2245  0.0188 -0.0548
  421DOPC   C4A 4938  10.546  13.458  14.594  0.0326 -0.1036  0.1271
  421DOPC   C1B 4939   9.711  14.530  14.925  0.1973  0.0968 -0.1315
  421DOPC   D2B 4940   9.487  14.238  14.716 -0.0818 -0.2517  0.0403
  421DOPC   C3B 4941   9.394  13.831  14.517 -0.1079  0.3295 -0.4569
  421DOPC   C4B 4942   9.189  13.453  14.573 -0.0687 -0.3059  0.0660
  422DOPE   NH3 4943   6.252  16.548  16.291 -0.1489 -0.1173 -0.1777
  422DOPE   PO4 4944   6.220  16.257  16.293 -0.0056 -0.2069  0.0644
  422DOPE   GL1 4945   5.998  16.248  16.054  0.3519  0.0311 -0.2252
  422DOPE   GL2 4946   5.870  16.527  15.955  0.0867  0.0714 -0.2305
  422DOPE   C1A 4947   5.670  16.126  15.734 -0.2447 -0.4239 -0.2288
  422DOPE   D2A 4948   5.294  16.045  15.455  0.3123  0.0167 -0.0112
  422DOPE   C3A 4949   5.368  15.593  15.331  0.0499 -0.0618 -0.2159
  422DOPE   C4A 4950   5.176  15.201  15.331 -0.0766  0.3968  0.2797
  422DOPE   C1B 4951   6.108  16.563  15.555  0.2182 -0.0667  0.3061
  422DOPE   D2B 4952   5.968  16.629  15.136 -0.0459  0.1986  0.2192
  422DOPE   C3B 4953   5.846  17.027  14.979  0.1440 -0.1830  0.1589
  422DOPE   C4B 4954   5.780  17.387  15.182 -0.1734 -0.0043 -0.3247
  423DOPE   NH3 4955   4.786  17.314  16.200 -0.0777  0.1724  0.1953
  423DOPE   PO4 4956   4.835  17.096  16.400  0.1026 -0.0694 -0.1948
  423DOPE   GL1 4957   4.854  16.903  16.024  0.4604 -0.2886  0.0621
  423DOPE   GL2 4958   4.683  17.104  15.766 -0.1140 -0.3259 -0.3656
  423DOPE   C1A 4959   5.032  16.785  15.595 -0.1609 -0.1683 -0.2742
  423DOPE   D2A 4960   4.978  16.673  15.123  0.2651 -0.0180 -0.4693
  423DOPE   C3A 4961   5.162  16.248  14.981  0.1162 -0.1313 -0.0379
  423DOPE   C4A 4962   5.342  15.812  14.878 -0.0687 -0.2030 -0.0089
  423DOPE   C1B 4963   4.565  16.910  15.398  0.1595  0.1416  0.1945
  423DOPE   D2B 4964   4.506  16.803  14.940  0.2325  0.1186  0.4172
  423DOPE   C3B 4965   4.326  17.123  14.644  0.0388 -0.1943  0.1348
  423DOPE   C4B 4966   4.014  17.270  14.328  0.1591  0.0944 -0.0307
  424DOPC   NC3 4967   8.856  22.437  16.484 -0.0812 -0.0090 -0.1645
  424DOPC   PO4 4968   8.654  22.305  16.132 -0.1890 -0.5401  0.0217
  424DOPC   GL1 4969   8.481  22.246  15.715  0.0256  0.0047 -0.1756
  424DOPC   GL2 4970   8.641  22.432  15.538  0.1291 -0.0332 -0.0815
  424DOPC   C1A 4971   8.008  22.277  15.599 -0.1796  0.0071 -0.0364
  424DOPC   D2A 4972   7.605  22.258  15.416  0.0992  0.0409 -0.1212
  424DOPC   C3A 4973   7.375  22.543  15.098 -0.1364  0.0938 -0.0016
  424DOPC   C4A 4974   7.190  22.616  14.651  0.0728  0.0801  0.0029
  424DOPC   C1B 4975   8.692  22.831  15.654 -0.2015  0.2152  0.1656
  424DOPC   D2B 4976   8.868  23.211  15.518 -0.1613 -0.0659 -0.1203
  424DOPC   C3B 4977   8.828  23.141  15.080  0.0909 -0.3092 -0.2239
  424DOPC   C4B 4978   8.834  23.072  14.650  0.1495  0.1777  0.2112
  425POSM   NC3 4979   8.840  18.065  16.508  0.1636 -0.3701  0.0322
  425POSM   PO4 4980   9.104  18.128  16.181 -0.1213 -0.0528 -0.2068
  425POSM   AM1 4981   9.144  18.143  15.846  0.1719  0.1559 -0.2940
  425POSM   AM2 4982   9.094  17.951  15.674 -0.0905  0.0270 -0.0026
  425POSM   T1A 4983   9.007  18.455  15.522  0.0523  0.2718 -0.1346
  425POSM   C2A 4984   8.745  18.428  15.194  0.2807 -0.1729  0.1647
  425POSM   C3A 4985   8.518  18.311  14.866  0.3582  0.1903  0.0527
  425POSM   C1B 4986   9.095  17.978  15.391  0.0052 -0.2423  0.2813
  425POSM   D2B 4987   9.110  18.188  14.983  0.0094  0.0810  0.1526
  425POSM   C3B 4988   9.253  18.635  15.017  0.1166 -0.1437 -0.2259
  425POSM   C4B 4989   9.312  19.089  14.850 -0.0056 -0.0058 -0.1602
  426DOPE   NH3 4990   0.202  20.466  16.387  0.1387  0.1673  0.2516
  426DOPE   PO4 4991   0.413  20.736  16.380 -0.2465 -0.0910  0.0229
  426DOPE   GL1 4992   0.383  20.992  16.091 -0.1414 -0.0382 -0.3505
  426DOPE   GL2 4993   0.140  21.138  16.145  0.3110  0.1862  0.1991
  426DOPE   C1A 4994   0.770  21.115  15.908 -0.3208 -0.0444 -0.3682
  426DOPE   D2A 4995   1.203  21.246  15.681  0.1069  0.1589 -0.1244
  426DOPE   C3A 4996   1.271  21.301  15.212 -0.0500 -0.1458 -0.0467
  426DOPE   C4A 4997   1.195  21.116  14.826 -0.0484  0.0941  0.1103
  426DOPE   C1B 4998  -0.124  21.268  15.756  0.2208  0.2579  0.1010
  426DOPE   D2B 4999   0.017  21.401  15.297  0.1615  0.4157  0.0792
  426DOPE   C3B 5000  -0.301  21.249  14.928 -0.1358  0.1224 -0.4484
  426DOPE   C4B 5001  -0.742  21.070  14.803  0.2043 -0.0315 -0.1178
  427DOPS   CNO 5002   4.609  12.623  16.321 -0.0178 -0.0290 -0.1699
  427DOPS   PO4 5003   4.314  12.767  16.122 -0.0260 -0.0777  0.0925
  427DOPS   GL1 5004   4.441  12.786  15.835 -0.1099 -0.2168 -0.0313
  427DOPS   GL2 5005   4.371  13.078  15.772 -0.3923 -0.1397  0.0198
  427DOPS   C1A 5006   4.284  12.745  15.459 -0.1741 -0.5221  0.1500
  427DOPS   D2A 5007   4.329  12.410  15.139  0.0321 -0.1160  0.2475
  427DOPS   C3A 5008   4.094  12.600  14.755 -0.1312  0.3881 -0.0914
  427DOPS   C4A 5009   3.623  12.566  14.641  0.0061 -0.1555 -0.0564
  427DOPS   C1B 5010   4.360  13.508  15.621 -0.2532  0.1312  0.0929
  427DOPS   D2B 5011   4.138  13.820  15.352 -0.1008  0.1208 -0.2517
  427DOPS   C3B 5012   4.085  13.692  14.933  0.4531  0.0519 -0.1285
  427DOPS   C4B 5013   3.885  13.416  14.596  0.2928 -0.2928  0.3499
  428POSM   NC3 5014   7.267  19.796  16.382 -0.1061 -0.3460  0.0645
  428POSM   PO4 5015   7.573  19.851  16.193  0.3029 -0.0806  0.3449
  428POSM   AM1 5016   7.459  19.825  15.864 -0.3831 -0.2784 -0.1376
  428POSM   AM2 5017   7.506  19.909  15.589  0.1458  0.2484 -0.3050
  428POSM   T1A 5018   7.019  19.749  15.611 -0.0281 -0.1955 -0.0120
  428POSM   C2A 5019   6.669  19.495  15.473  0.1902 -0.3054  0.1955
  428POSM   C3A 5020   6.429  19.132  15.328  0.2506 -0.1245  0.0473
  428POSM   C1B 5021   7.432  19.688  15.310  0.0735  0.0270  0.4767
  428POSM   D2B 5022   7.384  19.581  14.849 -0.3101  0.2471 -0.0315
  428POSM   C3B 5023   6.967  19.723  14.666 -0.0637  0.1356  0.3209
  428POSM   C4B 5024   6.917  19.996  14.320 -0.4033  0.3116 -0.0100
  429POSM   NC3 5025   4.511  21.053  16.713  0.1034  0.1688  0.1260
  429POSM   PO4 5026   4.340  20.822  16.431  0.0295 -0.1799  0.0648
  429POSM   AM1 5027   4.471  20.643  16.139  0.0283  0.1261  0.4129
  429POSM   AM2 5028   4.477  20.697  15.840 -0.0105 -0.1310  0.2531
  429POSM   T1A 5029   4.411  20.196  15.907 -0.1887  0.0310  0.0105
  429POSM   C2A 5030   4.356  19.774  15.665 -0.1156 -0.0949 -0.4395
  429POSM   C3A 5031   4.164  19.539  15.338  0.0644 -0.4115  0.0439
  429POSM   C1B 5032   4.501  20.500  15.541  0.2813 -0.2384 -0.0800
  429POSM   D2B 5033   4.485  20.311  15.131 -0.1516 -0.1703 -0.0018
  429POSM   C3B 5034   4.501  19.847  15.083 -0.0128 -0.2072  0.1809
  429POSM   C4B 5035   4.281  19.508  14.841  0.1904  0.2217  0.2441
  430DOPC   NC3 5036   2.652  11.838  16.520  0.1022  0.2172  0.1918
  430DOPC   PO4 5037   2.442  11.538  16.447  0.1682  0.1618 -0.2071
  430DOPC   GL1 5038   2.630  11.616  16.067  0.0637  0.2336  0.4118
  430DOPC   GL2 5039   2.518  11.449  15.821 -0.0044 -0.0185 -0.1196
  430DOPC   C1A 5040   2.573  11.977  15.738  0.3455  0.0585  0.1951
  430DOPC   D2A 5041   2.216  12.238  15.621  0.1699  0.3818 -0.0488
  430DOPC   C3A 5042   2.169  12.133  15.114  0.0297 -0.0484  0.0881
  430DOPC   C4A 5043   1.989  12.041  14.656  0.1965  0.2674 -0.3593
  430DOPC   C1B 5044   2.769  11.525  15.476 -0.2116 -0.0759  0.2613
  430DOPC   D2B 5045   2.870  11.452  15.004 -0.1131  0.1099 -0.2738
  430DOPC   C3B 5046   2.571  11.562  14.671 -0.0166  0.2386 -0.3891
  430DOPC   C4B 5047   2.336  11.850  14.439  0.0424 -0.0959  0.1410
  431DOPS   CNO 5048   7.914  15.489  16.177 -0.1979  0.4218 -0.3019
  431DOPS   PO4 5049   7.661  15.686  16.387  0.1260 -0.0245 -0.0826
  431DOPS   GL1 5050   7.478  15.625  15.995  0.1229 -0.0360 -0.0686
  431DOPS   GL2 5051   7.693  15.796  15.845  0.1489 -0.1939  0.2014
  431DOPS   C1A 5052   7.575  15.393  15.581  0.1270 -0.1225 -0.0089
  431DOPS   D2A 5053   7.398  15.385  15.122 -0.1030 -0.1630  0.0458
  431DOPS   C3A 5054   7.085  15.720  14.923 -0.1871 -0.0392 -0.1818
  431DOPS   C4A 5055   6.908  15.888  14.479 -0.0966 -0.0564  0.0788
  431DOPS   C1B 5056   7.294  15.875  15.593  0.3325  0.0920  0.1373
  431DOPS   D2B 5057   7.233  16.273  15.316 -0.4415 -0.1357  0.1153
  431DOPS   C3B 5058   7.470  16.361  14.892 -0.0124 -0.2743 -0.3561
  431DOPS   C4B 5059   7.762  16.565  14.562  0.2841 -0.1316 -0.1995
  432DOPE   NH3 5060   9.279  21.734  15.816 -0.2201  0.0682 -0.0729
  432DOPE   PO4 5061   9.273  21.812  15.518  0.0621 -0.1111  0.0247
  432DOPE   GL1 5062   9.379  22.193  15.464  0.2665 -0.1377  0.2644
  432DOPE   GL2 5063   9.072  22.295  15.313 -0.0449 -0.1923  0.0382
  432DOPE   C1A 5064   9.543  22.426  15.087 -0.3682 -0.3149  0.0715
  432DOPE   D2A 5065   9.804  22.629  14.796 -0.3980  0.0700  0.1534
  432DOPE   C3A 5066   9.959  22.533  14.305  0.0567 -0.0795 -0.1702
  432DOPE   C4A 5067  10.060  22.695  13.848  0.0369 -0.0068  0.1571
  432DOPE   C1B 5068   8.849  22.251  14.943 -0.0776 -0.4887 -0.1091
  432DOPE   D2B 5069   8.887  22.238  14.503  0.0078 -0.2583 -0.1997
  432DOPE   C3B 5070   8.556  22.414  14.217 -0.1570 -0.0902 -0.0451
  432DOPE   C4B 5071   8.260  22.105  14.084  0.0276  0.0179 -0.0282
  433POSM   NC3 5072   9.750  16.807  15.497 -0.2248  0.0413  0.0436
  433POSM   PO4 5073   9.550  17.043  15.729 -0.0186 -0.0097 -0.0277
  433POSM   AM1 5074   9.598  17.229  15.468 -0.0229  0.2240 -0.1907
  433POSM   AM2 5075   9.668  17.243  15.145 -0.1444  0.0817 -0.0348
  433POSM   T1A 5076   9.483  17.701  15.358  0.2077  0.1855 -0.1449
  433POSM   C2A 5077   9.515  17.871  14.947  0.1308  0.0780  0.0959
  433POSM   C3A 5078   9.514  17.860  14.495  0.3129  0.1155 -0.2767
  433POSM   C1B 5079   9.893  17.496  15.012  0.2052 -0.3269 -0.2526
  433POSM   D2B 5080   9.975  17.848  14.730  0.0780  0.2180  0.0951
  433POSM   C3B 5081   9.745  18.255  14.663 -0.1754 -0.0233  0.0564
  433POSM   C4B 5082   9.630  18.497  14.343  0.0864  0.1375  0.0116
  434POSM   NC3 5083  11.296  13.077  15.446 -0.1192 -0.0942  0.3459
  434POSM   PO4 5084  11.302  13.260  15.063 -0.2710 -0.0611  0.0046
  434POSM   AM1 5085  11.162  13.379  14.820 -0.0379  0.2292  0.1848
  434POSM   AM2 5086  10.971  13.581  14.765 -0.0014 -0.1194 -0.2163
  434POSM   T1A 5087  11.160  13.474  14.335 -0.3344  0.1303  0.0294
  434POSM   C2A 5088  11.151  13.773  14.017  0.6120 -0.0426 -0.0213
  434POSM   C3A 5089  10.989  14.153  13.883 -0.3891 -0.2136  0.3431
  434POSM   C1B 5090  10.921  13.845  14.547 -0.0198  0.0133  0.1014
  434POSM   D2B 5091  10.656  14.128  14.205 -0.1585 -0.0682 -0.0695
  434POSM   C3B 5092  10.272  13.999  14.097  0.3976  0.1300 -0.3047
  434POSM   C4B 5093   9.920  14.131  13.806 -0.0079  0.0091 -0.1690
  435DOPC   NC3 5094   1.274  19.495  16.640  0.0952  0.2812  0.0844
  435DOPC   PO4 5095   1.590  19.378  16.437  0.0716  0.2398 -0.4819
  435DOPC   GL1 5096   1.550  19.823  16.225  0.2216  0.4738 -0.2569
  435DOPC   GL2 5097   1.782  20.083  16.211  0.1368  0.0146  0.0172
  435DOPC   C1A 5098   1.554  19.937  15.769 -0.1914 -0.1809 -0.0203
  435DOPC   D2A 5099   1.540  19.776  15.386  0.0811  0.0644  0.0961
  435DOPC   C3A 5100   1.103  19.956  15.238 -0.2934  0.0050 -0.0721
  435DOPC   C4A 5101   0.767  19.667  15.089  0.1616  0.2026  0.2912
  435DOPC   C1B 5102   1.619  20.479  15.971 -0.2217 -0.1703  0.1401
  435DOPC   D2B 5103   1.866  20.909  16.021  0.2758  0.0918  0.2309
  435DOPC   C3B 5104   2.285  21.108  15.881 -0.2097  0.0302  0.1711
  435DOPC   C4B 5105   2.454  21.562  15.761 -0.0172  0.4281  0.2453
  436DOPC   NC3 5106   0.840  14.173  15.815  0.0316 -0.3555 -0.0224
  436DOPC   PO4 5107   1.061  13.945  16.062  0.0705 -0.2330 -0.0346
  436DOPC   GL1 5108   1.245  13.912  15.695  0.1878  0.1571 -0.1052
  436DOPC   GL2 5109   1.216  13.720  15.522  0.1567  0.1211  0.0356
  436DOPC   C1A 5110   1.325  14.142  15.302 -0.0165  0.1504 -0.4381
  436DOPC   D2A 5111   1.304  14.566  15.176 -0.1286  0.2662  0.0163
  436DOPC   C3A 5112   1.071  14.612  14.807  0.0169  0.2830  0.2346
  436DOPC   C4A 5113   1.154  14.995  14.583  0.1108 -0.1287 -0.0898
  436DOPC   C1B 5114   1.253  13.729  15.077  0.1910  0.0650 -0.3682
  436DOPC   D2B 5115   0.972  13.432  14.788 -0.3238  0.2864  0.0996
  436DOPC   C3B 5116   0.946  13.618  14.363  0.2783 -0.1652 -0.1539
  436DOPC   C4B 5117   0.985  13.542  13.872  0.1042  0.0886  0.1420
  437POSM   NC3 5118   6.442  12.019  16.429 -0.0244  0.1481 -0.0993
  437POSM   PO4 5119   6.749  11.862  16.247 -0.0481 -0.1789 -0.1117
  437POSM   AM1 5120   6.587  11.983  16.018 -0.4723  0.2663  0.1595
  437POSM   AM2 5121   6.402  12.139  15.913  0.2499 -0.1073 -0.1424
  437POSM   T1A 5122   6.415  11.762  15.583 -0.0927 -0.3458  0.0328
  437POSM   C2A 5123   6.122  11.621  15.326 -0.0162 -0.0634 -0.0674
  437POSM   C3A 5124   5.721  11.440  15.102  0.0262  0.1717 -0.0172
  437POSM   C1B 5125   6.509  12.348  15.650  0.1184  0.2485 -0.1636
  437POSM   D2B 5126   6.562  12.557  15.267 -0.3876  0.0004  0.0912
  437POSM   C3B 5127   6.446  12.748  14.823  0.1316 -0.6388  0.2051
  437POSM   C4B 5128   6.069  12.806  14.568 -0.2833 -0.1092 -0.0527
  438POSM   NC3 5129  11.418  16.675  15.275 -0.0585 -0.0184  0.2019
  438POSM   PO4 5130  11.598  16.654  14.960 -0.0252  0.1164  0.1815
  438POSM   AM1 5131  11.366  16.645  14.751  0.1930 -0.5184  0.0913
  438POSM   AM2 5132  11.333  16.833  14.541  0.1468  0.1236  0.1097
  438POSM   T1A 5133  11.099  16.414  14.397 -0.4151 -0.1635  0.1368
  438POSM   C2A 5134  10.902  15.990  14.255  0.5859  0.0356 -0.3417
  438POSM   C3A 5135  10.992  15.578  14.051  0.1340  0.1099  0.2941
  438POSM   C1B 5136  11.137  16.898  14.263  0.2562  0.0386  0.3764
  438POSM   D2B 5137  10.875  16.985  13.892 -0.0489 -0.1859  0.0180
  438POSM   C3B 5138  10.837  17.188  13.470 -0.1386 -0.1065 -0.3843
  438POSM   C4B 5139  10.609  17.567  13.298 -0.0528  0.0515  0.3384
  439DOPE   NH3 5140  10.397  21.623  15.797  0.0518  0.1049  0.0930
  439DOPE   PO4 5141  10.360  21.889  15.640 -0.1741 -0.0350 -0.1991
  439DOPE   GL1 5142  10.179  22.124  15.427 -0.3538 -0.3301 -0.4862
  439DOPE   GL2 5143  10.138  21.894  15.225  0.2002 -0.0551 -0.0526
  439DOPE   C1A 5144  10.376  22.274  15.007  0.0532 -0.0496 -0.2358
  439DOPE   D2A 5145  10.395  22.294  14.549 -0.0526 -0.0013  0.0588
  439DOPE   C3A 5146  10.468  22.546  14.211  0.0528 -0.1919  0.0365
  439DOPE   C4A 5147  10.673  22.829  13.901  0.2197 -0.0880 -0.0486
  439DOPE   C1B 5148   9.926  22.129  14.838  0.3347 -0.3429  0.1003
  439DOPE   D2B 5149   9.558  22.224  14.580 -0.3222  0.0008  0.4317
  439DOPE   C3B 5150   9.294  21.962  14.342  0.4733 -0.1563  0.0869
  439DOPE   C4B 5151   9.084  21.953  13.896  0.1855 -0.3541 -0.1505
  440DOPC   NC3 5152   6.716  21.792  15.959 -0.2259  0.0205  0.0679
  440DOPC   PO4 5153   6.909  21.478  16.068  0.1101  0.0825  0.1352
  440DOPC   GL1 5154   6.953  21.532  15.686 -0.0758 -0.1154  0.0013
  440DOPC   GL2 5155   7.144  21.396  15.468 -0.0340 -0.0461 -0.0037
  440DOPC   C1A 5156   6.636  21.308  15.489 -0.1936  0.0479 -0.0268
  440DOPC   D2A 5157   6.245  21.222  15.264  0.3284 -0.0084  0.1136
  440DOPC   C3A 5158   6.001  21.508  14.948  0.0136 -0.1661 -0.3590
  440DOPC   C4A 5159   5.816  21.771  14.617  0.0913  0.0777  0.0420
  440DOPC   C1B 5160   7.066  21.443  15.017 -0.1510 -0.1705 -0.0773
  440DOPC   D2B 5161   7.207  21.722  14.646 -0.0033 -0.2390 -0.2963
  440DOPC   C3B 5162   7.277  21.505  14.206 -0.1079 -0.2704 -0.2452
  440DOPC   C4B 5163   7.134  21.076  14.048  0.0006 -0.1016  0.0611
  441DOPE   NH3 5164   7.927  17.608  16.419 -0.1107 -0.2111 -0.1991
  441DOPE   PO4 5165   7.733  17.523  16.147  0.0742  0.0159 -0.0654
  441DOPE   GL1 5166   7.656  17.891  15.848 -0.0885  0.0642  0.3840
  441DOPE   GL2 5167   7.770  17.690  15.586 -0.3010 -0.1100 -0.0121
  441DOPE   C1A 5168   7.386  18.057  15.550  0.2235 -0.0945  0.0499
  441DOPE   D2A 5169   7.262  18.454  15.374 -0.2964 -0.0593  0.0922
  441DOPE   C3A 5170   7.154  18.648  14.992 -0.3397 -0.2529 -0.2948
  441DOPE   C4A 5171   6.867  18.903  14.712 -0.0997 -0.0598  0.0762
  441DOPE   C1B 5172   7.551  17.743  15.194 -0.1036  0.4121  0.1773
  441DOPE   D2B 5173   7.167  17.595  14.966 -0.3621  0.0710 -0.1755
  441DOPE   C3B 5174   6.918  17.835  14.633 -0.0601  0.0583 -0.0448
  441DOPE   C4B 5175   6.470  17.762  14.570  0.2951 -0.1289 -0.2309
  442DOPE   NH3 5176  10.476  15.180  15.330  0.1027  0.1759  0.0220
  442DOPE   PO4 5177  10.279  15.116  15.055  0.0682 -0.0103 -0.0564
  442DOPE   GL1 5178  10.291  14.857  14.859 -0.0771 -0.3601  0.0081
  442DOPE   GL2 5179  10.354  14.912  14.560 -0.2080  0.3434  0.0905
  442DOPE   C1A 5180   9.946  14.683  14.551 -0.0700  0.0181  0.0277
  442DOPE   D2A 5181   9.888  14.347  14.221 -0.1169  0.3198 -0.0106
  442DOPE   C3A 5182   9.448  14.339  14.204 -0.2359  0.1980  0.0433
  442DOPE   C4A 5183   9.165  14.596  14.422 -0.0562 -0.0540  0.0894
  442DOPE   C1B 5184  10.174  15.158  14.253  0.0670 -0.1058  0.0056
  442DOPE   D2B 5185  10.083  15.361  13.905 -0.3583  0.0498 -0.1314
  442DOPE   C3B 5186  10.033  15.790  13.795 -0.6251  0.2839 -0.0359
  442DOPE   C4B 5187   9.973  16.241  13.753  0.3258  0.2312  0.0528
  443DOPE   NH3 5188   6.806  14.675  16.625 -0.3148 -0.4322 -0.0204
  443DOPE   PO4 5189   6.843  14.864  16.375  0.0758 -0.0560  0.1281
  443DOPE   GL1 5190   6.979  14.976  16.041 -0.4995  0.0394 -0.1637
  443DOPE   GL2 5191   6.713  15.141  15.899 -0.1024  0.0740 -0.1360
  443DOPE   C1A 5192   6.944  14.814  15.592 -0.0031 -0.1385  0.2283
  443DOPE   D2A 5193   6.974  14.478  15.270 -0.2364 -0.0417  0.2381
  443DOPE   C3A 5194   6.681  14.598  14.889 -0.3132 -0.1784 -0.2820
  443DOPE   C4A 5195   6.701  14.741  14.391 -0.1829 -0.2737 -0.2584
  443DOPE   C1B 5196   6.580  15.053  15.441 -0.0630 -0.1253  0.2024
  443DOPE   D2B 5197   6.181  14.812  15.261 -0.1790  0.1020  0.1674
  443DOPE   C3B 5198   6.214  14.686  14.798  0.1320  0.1768  0.0546
  443DOPE   C4B 5199   6.400  14.369  14.544  0.2258 -0.0516  0.3419
  444DOPS   CNO 5200   0.650  16.782  16.150 -0.2576 -0.0881  0.1623
  444DOPS   PO4 5201   0.812  16.729  15.798 -0.3022 -0.1914 -0.0845
  444DOPS   GL1 5202   0.981  16.957  15.653 -0.4588 -0.3211  0.2276
  444DOPS   GL2 5203   0.976  16.801  15.368  0.1780  0.0939  0.0493
  444DOPS   C1A 5204   1.198  17.209  15.340  0.2525  0.1460  0.0866
  444DOPS   D2A 5205   1.463  17.434  15.064  0.0304 -0.4112  0.0914
  444DOPS   C3A 5206   1.349  17.483  14.629  0.0472 -0.3092  0.0813
  444DOPS   C4A 5207   1.265  17.268  14.232 -0.1214  0.2180  0.0320
  444DOPS   C1B 5208   0.988  16.911  14.925  0.1298 -0.2233  0.1056
  444DOPS   D2B 5209   0.753  17.149  14.609  0.3630 -0.2907  0.0323
  444DOPS   C3B 5210   0.743  17.328  14.134  0.1311  0.0832  0.3001
  444DOPS   C4B 5211   0.490  17.555  13.861  0.1172 -0.0825  0.0681
  445DOPE   NH3 5212   5.837  18.674  16.378  0.1590 -0.0596  0.1359
  445DOPE   PO4 5213   5.841  18.861  16.104 -0.3852 -0.0127  0.2704
  445DOPE   GL1 5214   6.084  19.082  15.920 -0.2255 -0.1448  0.1783
  445DOPE   GL2 5215   6.318  18.890  16.071 -0.1096  0.0313  0.2148
  445DOPE   C1A 5216   6.221  19.509  15.689 -0.1168  0.0312 -0.2430
  445DOPE   D2A 5217   6.186  19.693  15.295  0.1277 -0.1490  0.0365
  445DOPE   C3A 5218   6.006  19.272  15.077 -0.0349  0.1321  0.0444
  445DOPE   C4A 5219   6.248  19.082  14.720  0.2157 -0.0097  0.1263
  445DOPE   C1B 5220   6.278  18.732  15.596  0.1917  0.1656 -0.1200
  445DOPE   D2B 5221   6.169  18.743  15.162  0.0659 -0.2092 -0.1487
  445DOPE   C3B 5222   6.191  18.543  14.741 -0.1205 -0.1167  0.0411
  445DOPE   C4B 5223   6.084  18.122  14.565 -0.4415 -0.2369 -0.2943
  446DOPE   NH3 5224   3.530  17.917  17.074  0.2090  0.0145 -0.1205
  446DOPE   PO4 5225   3.763  18.134  16.976  0.0902  0.1789  0.1344
  446DOPE   GL1 5226   3.643  18.246  16.536  0.2939 -0.2665  0.3639
  446DOPE   GL2 5227   3.911  18.434  16.508 -0.1005  0.1687  0.1314
  446DOPE   C1A 5228   3.334  18.139  16.139  0.2408  0.0019  0.2526
  446DOPE   D2A 5229   3.218  18.267  15.688  0.0380  0.0115  0.1063
  446DOPE   C3A 5230   3.241  18.272  15.273  0.3270 -0.1345  0.1350
  446DOPE   C4A 5231   2.887  18.590  15.098  0.0800 -0.0392 -0.3578
  446DOPE   C1B 5232   3.716  18.362  16.087 -0.0246 -0.0035  0.2216
  446DOPE   D2B 5233   3.615  18.651  15.759  0.3179 -0.0339 -0.2696
  446DOPE   C3B 5234   3.436  18.715  15.355  0.1463 -0.2418  0.3340
  446DOPE   C4B 5235   3.342  18.994  15.017  0.2609  0.0082  0.1477
  447POSM   NC3 5236   3.794  11.434  16.443 -0.1236 -0.0395  0.1638
  447POSM   PO4 5237   3.445  11.658  16.325 -0.1380  0.0453  0.1691
  447POSM   AM1 5238   3.365  11.539  15.997 -0.2275 -0.0654 -0.0865
  447POSM   AM2 5239   3.214  11.578  15.799 -0.1354  0.0823 -0.2298
  447POSM   T1A 5240   3.605  11.586  15.540 -0.0220 -0.1813  0.1631
  447POSM   C2A 5241   3.749  11.609  15.127 -0.0120 -0.2087  0.1943
  447POSM   C3A 5242   3.908  11.601  14.730  0.0041 -0.0203 -0.0916
  447POSM   C1B 5243   3.099  11.834  15.658  0.0988 -0.0678 -0.1140
  447POSM   D2B 5244   3.062  12.298  15.680 -0.1976 -0.0042  0.0352
  447POSM   C3B 5245   3.077  12.398  15.247  0.0073  0.3397  0.3165
  447POSM   C4B 5246   3.317  12.268  14.912  0.1510 -0.2921  0.0082
  448POSM   NC3 5247   4.025  14.571  15.816 -0.1928  0.2530 -0.1658
  448POSM   PO4 5248   4.034  14.861  16.103  0.1845 -0.0890  0.0612
  448POSM   AM1 5249   4.141  15.020  15.849  0.1803  0.0990  0.3763
  448POSM   AM2 5250   4.088  15.056  15.573 -0.0959 -0.1911 -0.1785
  448POSM   T1A 5251   4.490  15.266  15.609  0.0015  0.0015  0.1789
  448POSM   C2A 5252   4.787  15.587  15.474 -0.1304  0.0135 -0.0193
  448POSM   C3A 5253   4.860  15.866  15.104 -0.4048 -0.0835  0.1299
  448POSM   C1B 5254   4.172  15.032  15.265 -0.0666 -0.1285 -0.0440
  448POSM   D2B 5255   4.332  14.874  14.883 -0.3170 -0.0211  0.2111
  448POSM   C3B 5256   4.174  14.482  14.719  0.2845 -0.2402 -0.2485
  448POSM   C4B 5257   4.214  14.046  14.548 -0.0197 -0.0040 -0.0382
  449DOPC   NC3 5258   6.257  17.921  16.171 -0.3912  0.0273  0.0516
  449DOPC   PO4 5259   6.102  18.166  16.486 -0.0135 -0.0620 -0.0585
  449DOPC   GL1 5260   5.892  18.241  16.180 -0.0396 -0.2325  0.2254
  449DOPC   GL2 5261   6.014  18.416  15.957 -0.0611  0.1680  0.5047
  449DOPC   C1A 5262   5.787  18.001  15.815 -0.3833  0.1177  0.0242
  449DOPC   D2A 5263   5.837  17.925  15.357  0.0273 -0.1634  0.4087
  449DOPC   C3A 5264   5.609  17.784  14.962  0.1972 -0.1006 -0.2051
  449DOPC   C4A 5265   5.328  17.639  14.598  0.0094  0.0338 -0.1004
  449DOPC   C1B 5266   5.857  18.398  15.526  0.1991  0.0765  0.0043
  449DOPC   D2B 5267   5.850  18.284  15.050 -0.4457  0.1884 -0.1708
  449DOPC   C3B 5268   5.726  18.563  14.670  0.1447 -0.1600  0.0256
  449DOPC   C4B 5269   5.744  19.005  14.583  0.1316  0.1533 -0.0814
  450DOPC   NC3 5270   4.202  19.857  16.484 -0.0362 -0.2913 -0.0933
  450DOPC   PO4 5271   3.893  20.063  16.338 -0.2099 -0.1739 -0.0140
  450DOPC   GL1 5272   3.934  20.236  15.933 -0.1722 -0.0701 -0.0167
  450DOPC   GL2 5273   4.045  20.508  16.016  0.0862 -0.0150  0.1831
  450DOPC   C1A 5274   4.132  20.196  15.520 -0.1355  0.0478  0.2380
  450DOPC   D2A 5275   4.055  20.080  15.058  0.1268 -0.1856  0.1667
  450DOPC   C3A 5276   4.229  20.189  14.668  0.1751  0.2192 -0.1405
  450DOPC   C4A 5277   4.159  20.013  14.262  0.0178  0.2039  0.1413
  450DOPC   C1B 5278   3.971  20.702  15.551 -0.0559  0.2375 -0.0067
  450DOPC   D2B 5279   3.863  20.558  15.137 -0.0620  0.2552 -0.0622
  450DOPC   C3B 5280   3.797  20.655  14.683  0.0209  0.0685 -0.2204
  450DOPC   C4B 5281   4.087  20.563  14.385 -0.0280 -0.3273  0.0711
  451POSM   NC3 5282   2.566  21.953  16.901  0.2035 -0.2054 -0.1011
  451POSM   PO4 5283   2.804  21.978  16.598  0.1099  0.0109  0.2055
  451POSM   AM1 5284   2.887  22.043  16.281 -0.0528  0.0736 -0.3124
  451POSM   AM2 5285   2.925  21.862  16.060 -0.0207  0.0227 -0.0356
  451POSM   T1A 5286   2.615  22.135  15.821 -0.0289  0.0496 -0.4776
  451POSM   C2A 5287   2.488  21.991  15.379  0.0370 -0.0027 -0.0004
  451POSM   C3A 5288   2.297  21.823  14.973  0.0977 -0.0731  0.0102
  451POSM   C1B 5289   2.941  21.690  15.776  0.2330  0.1075  0.2331
  451POSM   D2B 5290   2.998  21.664  15.265 -0.0654  0.0686 -0.0899
  451POSM   C3B 5291   2.995  21.237  15.054  0.1605 -0.0974  0.2252
  451POSM   C4B 5292   2.904  20.832  15.030  0.0149  0.0030  0.0782
  452DOPC   NC3 5293   9.301  13.575  16.381  0.0970 -0.0402  0.1673
  452DOPC   PO4 5294   9.225  13.832  16.090 -0.1772 -0.0029  0.1180
  452DOPC   GL1 5295   8.904  13.841  15.830  0.1170  0.1186 -0.1897
  452DOPC   GL2 5296   8.853  14.028  15.584 -0.2118  0.0209  0.0079
  452DOPC   C1A 5297   8.452  13.840  15.803 -0.1748 -0.1512  0.3804
  452DOPC   D2A 5298   8.305  13.707  15.342 -0.1473 -0.0369  0.1823
  452DOPC   C3A 5299   8.409  13.512  14.933 -0.1724 -0.0813 -0.2654
  452DOPC   C4A 5300   8.660  13.201  14.708 -0.2590 -0.1177  0.2025
  452DOPC   C1B 5301   8.686  14.143  15.194  0.0404  0.3298  0.3508
  452DOPC   D2B 5302   8.624  14.557  15.057 -0.0187 -0.0414 -0.3818
  452DOPC   C3B 5303   8.381  14.558  14.644  0.3277  0.0667 -0.0290
  452DOPC   C4B 5304   8.247  14.490  14.185  0.2108 -0.1321 -0.2605
  453POSM   NC3 5305   0.251  19.013  16.215 -0.1634 -0.2292 -0.2227
  453POSM   PO4 5306   0.478  19.290  16.063 -0.0947 -0.1499 -0.1217
  453POSM   AM1 5307   0.559  19.343  15.734  0.1553  0.2354  0.4117
  453POSM   AM2 5308   0.551  19.559  15.560 -0.3475  0.1342 -0.0118
  453POSM   T1A 5309   0.351  19.229  15.248 -0.0586 -0.3107  0.2006
  453POSM   C2A 5310   0.336  19.002  14.845  0.0018 -0.0481  0.1156
  453POSM   C3A 5311   0.160  19.020  14.403  0.2063 -0.0667  0.2805
  453POSM   C1B 5312   0.361  19.732  15.439 -0.5906 -0.4564  0.0545
  453POSM   D2B 5313   0.314  20.005  15.092 -0.1261 -0.2656 -0.0493
  453POSM   C3B 5314   0.602  19.960  14.791 -0.1969 -0.0738 -0.1050
  453POSM   C4B 5315   0.933  19.856  14.578  0.2806  0.1353 -0.0439
  454DOPC   NC3 5316   2.896  16.253  16.235 -0.1546 -0.3911  0.1336
  454DOPC   PO4 5317   2.664  16.515  16.265 -0.3185  0.0741  0.0129
  454DOPC   GL1 5318   2.634  16.644  15.888  0.3678  0.0579  0.1150
  454DOPC   GL2 5319   2.622  16.437  15.753 -0.0329  0.0695 -0.0737
  454DOPC   C1A 5320   2.571  17.072  15.660  0.1066  0.2382 -0.0020
  454DOPC   D2A 5321   2.839  17.366  15.902  0.1062 -0.0278  0.1565
  454DOPC   C3A 5322   3.291  17.278  15.802 -0.1447 -0.1278  0.0044
  454DOPC   C4A 5323   3.534  16.846  15.753  0.1217 -0.1559  0.0859
  454DOPC   C1B 5324   2.687  16.612  15.351 -0.0125 -0.2166 -0.0416
  454DOPC   D2B 5325   2.500  16.552  14.874 -0.0420 -0.2179 -0.1786
  454DOPC   C3B 5326   2.691  16.211  14.740  0.1649 -0.3980 -0.2134
  454DOPC   C4B 5327   2.787  15.800  14.518  0.1824  0.3181  0.3516
  455POSM   NC3 5328   1.725  23.256  15.928  0.1550 -0.0278 -0.0325
  455POSM   PO4 5329   1.455  23.205  16.236 -0.2185  0.2298 -0.1101
  455POSM   AM1 5330   1.332  22.972  16.065 -0.2500  0.2555  0.4489
  455POSM   AM2 5331   1.405  22.869  15.809 -0.1344 -0.4054  0.3899
  455POSM   T1A 5332   0.902  22.777  15.928  0.2245 -0.4011  0.2976
  455POSM   C2A 5333   0.648  22.780  15.555 -0.2077 -0.1028  0.0580
  455POSM   C3A 5334   0.632  22.550  15.140 -0.2729 -0.4135 -0.0529
  455POSM   C1B 5335   1.506  22.821  15.496 -0.1959  0.2096  0.2325
  455POSM   D2B 5336   1.842  22.586  15.210 -0.6595  0.1983  0.1255
  455POSM   C3B 5337   2.069  22.841  14.853  0.2893 -0.2022 -0.2580
  455POSM   C4B 5338   2.231  23.238  14.595 -0.0432 -0.0670 -0.1805
  456DOPE   NH3 5339   3.425  19.367  16.868  0.0438  0.3394 -0.1688
  456DOPE   PO4 5340   3.596  19.131  16.726 -0.0068  0.3043 -0.0718
  456DOPE   GL1 5341   3.748  19.123  16.313 -0.0908  0.0458  0.1883
  456DOPE   GL2 5342   3.602  18.852  16.337 -0.1235  0.0544 -0.1437
  456DOPE   C1A 5343   3.961  18.979  15.933 -0.2291 -0.1139 -0.0035
  456DOPE   D2A 5344   4.227  18.966  15.497 -0.1159 -0.1929 -0.0082
  456DOPE   C3A 5345   4.407  18.937  15.063 -0.1052  0.1042  0.0978
  456DOPE   C4A 5346   4.332  19.007  14.605  0.1576 -0.0850  0.2566
  456DOPE   C1B 5347   3.236  18.604  16.149 -0.2063  0.2130  0.0100
  456DOPE   D2B 5348   3.122  18.742  15.734  0.0211 -0.1172  0.0452
  456DOPE   C3B 5349   3.147  19.140  15.503  0.2798 -0.0178  0.2061
  456DOPE   C4B 5350   3.344  19.422  15.239 -0.1948  0.0352 -0.1648
  457DOPC   NC3 5351  10.246  13.826  15.250 -0.0568  0.2322 -0.2592
  457DOPC   PO4 5352  10.087  13.856  15.615  0.0216  0.2033 -0.1002
  457DOPC   GL1 5353   9.782  13.926  15.344 -0.0019  0.2722 -0.3260
  457DOPC   GL2 5354   9.853  14.221  15.240  0.0800  0.0804 -0.1702
  457DOPC   C1A 5355   9.565  13.614  15.085  0.1562  0.0740 -0.5573
  457DOPC   D2A 5356   9.495  13.198  14.933 -0.0357  0.0655 -0.1781
  457DOPC   C3A 5357   9.167  12.940  14.735  0.0973 -0.1998 -0.2993
  457DOPC   C4A 5358   8.933  12.918  14.352  0.1187 -0.5263  0.0457
  457DOPC   C1B 5359   9.865  13.968  14.856 -0.3789  0.1046 -0.1716
  457DOPC   D2B 5360   9.933  13.877  14.391  0.1708 -0.0756 -0.4028
  457DOPC   C3B 5361   9.609  13.830  14.044 -0.0605  0.0268  0.1382
  457DOPC   C4B 5362   9.317  13.653  13.776 -0.3282 -0.1598  0.2261
  458DOPC   NC3 5363   5.975  12.250  16.290 -0.0771  0.1116  0.2693
  458DOPC   PO4 5364   6.293  12.543  16.285 -0.3423 -0.0846 -0.0073
  458DOPC   GL1 5365   6.518  12.774  16.054  0.1598 -0.2355 -0.0196
  458DOPC   GL2 5366   6.769  12.841  16.117  0.0606 -0.0302 -0.0973
  458DOPC   C1A 5367   6.594  12.996  15.669 -0.1103 -0.3048 -0.3865
  458DOPC   D2A 5368   6.462  13.203  15.294  0.2325 -0.0740 -0.0572
  458DOPC   C3A 5369   6.100  13.176  14.949  0.1784 -0.0490  0.0490
  458DOPC   C4A 5370   5.912  13.405  14.567  0.3636  0.0697  0.1639
  458DOPC   C1B 5371   6.932  12.652  15.745  0.0085 -0.0335  0.1919
  458DOPC   D2B 5372   7.049  12.709  15.282 -0.1160 -0.1627 -0.4383
  458DOPC   C3B 5373   7.338  12.463  15.078  0.2445 -0.1066  0.1083
  458DOPC   C4B 5374   7.487  12.347  14.655  0.0022  0.0937 -0.0304
  459DOPC   NC3 5375   3.431  16.799  16.314  0.1623  0.1258  0.0324
  459DOPC   PO4 5376   3.614  16.764  16.649 -0.0437  0.0519 -0.2151
  459DOPC   GL1 5377   3.909  16.937  16.354 -0.1221  0.1434 -0.0250
  459DOPC   GL2 5378   3.960  16.713  16.183 -0.3365 -0.2539  0.1052
  459DOPC   C1A 5379   3.743  17.225  16.016 -0.0936  0.0271 -0.0540
  459DOPC   D2A 5380   3.713  17.420  15.611 -0.0163  0.0878  0.1987
  459DOPC   C3A 5381   3.737  17.416  15.148 -0.0185 -0.1432 -0.0371
  459DOPC   C4A 5382   3.564  17.303  14.758  0.1248 -0.2725 -0.1807
  459DOPC   C1B 5383   3.785  16.459  15.907 -0.3355 -0.2344  0.0374
  459DOPC   D2B 5384   3.663  16.494  15.421  0.1869  0.3842  0.3596
  459DOPC   C3B 5385   3.493  16.326  15.000  0.0356 -0.0921 -0.3244
  459DOPC   C4B 5386   3.612  16.055  14.576  0.0453 -0.0165 -0.3196
  460DOPC   NC3 5387   9.937  19.533  15.524 -0.3654  0.1035 -0.0209
  460DOPC   PO4 5388   9.951  19.919  15.722 -0.0258 -0.4593 -0.4564
  460DOPC   GL1 5389  10.013  19.938  15.312  0.3746  0.1644 -0.1267
  460DOPC   GL2 5390  10.232  19.804  15.213 -0.0410 -0.0218  0.1711
  460DOPC   C1A 5391   9.866  20.258  15.008  0.3472  0.1192  0.0069
  460DOPC   D2A 5392   9.782  20.355  14.628  0.2145 -0.0209  0.4394
  460DOPC   C3A 5393   9.545  20.790  14.493 -0.1280 -0.3864  0.0403
  460DOPC   C4A 5394   9.197  20.991  14.293  0.3281 -0.2573  0.1505
  460DOPC   C1B 5395  10.284  19.677  14.765  0.0399  0.3103 -0.0220
  460DOPC   D2B 5396  10.108  19.515  14.394 -0.0603 -0.0998 -0.0833
  460DOPC   C3B 5397   9.721  19.728  14.155 -0.0735 -0.1513 -0.0883
  460DOPC   C4B 5398   9.341  19.751  13.806  0.1563 -0.2870 -0.0733
  461DOPS   CNO 5399   5.654  16.900  16.616 -0.0274  0.0081  0.1871
  461DOPS   PO4 5400   5.902  16.963  16.338 -0.1754  0.1213 -0.0767
  461DOPS   GL1 5401   5.825  17.146  16.026  0.1608 -0.0866  0.1182
  461DOPS   GL2 5402   5.921  17.408  16.002  0.1676 -0.1171  0.2394
  461DOPS   C1A 5403   5.988  17.097  15.583  0.2441  0.1367  0.0946
  461DOPS   D2A 5404   6.336  17.162  15.299  0.1404  0.2334 -0.0443
  461DOPS   C3A 5405   6.523  16.716  15.276  0.3619 -0.3040 -0.2179
  461DOPS   C4A 5406   6.473  16.275  15.343  0.0222 -0.0338 -0.0268
  461DOPS   C1B 5407   5.639  17.551  15.673 -0.0615  0.1637  0.0125
  461DOPS   D2B 5408   5.344  17.773  15.450 -0.2330  0.0336 -0.2746
  461DOPS   C3B 5409   5.203  17.588  15.096 -0.1269  0.3105  0.0806
  461DOPS   C4B 5410   4.922  17.211  15.078 -0.3198 -0.1066  0.0046
  462DOPC   NC3 5411   6.310  15.725  16.369  0.0643  0.0776 -0.2703
  462DOPC   PO4 5412   6.648  15.857  16.541 -0.2599  0.3012  0.1587
  462DOPC   GL1 5413   6.695  15.861  16.136 -0.0568 -0.2031  0.4377
  462DOPC   GL2 5414   6.562  16.019  15.936 -0.0608 -0.1030 -0.0715
  462DOPC   C1A 5415   6.902  15.606  15.797  0.0689 -0.1210 -0.0467
  462DOPC   D2A 5416   7.037  15.268  15.519 -0.4102 -0.1104  0.2457
  462DOPC   C3A 5417   6.750  15.442  15.162 -0.2697  0.3033  0.0745
  462DOPC   C4A 5418   6.486  15.551  14.761 -0.2955 -0.0992 -0.1792
  462DOPC   C1B 5419   6.172  16.045  15.692  0.3753  0.1732  0.1045
  462DOPC   D2B 5420   5.907  16.085  15.291 -0.1860 -0.3580  0.2331
  462DOPC   C3B 5421   5.726  16.126  14.816  0.1492  0.3397  0.0731
  462DOPC   C4B 5422   5.456  16.296  14.503 -0.1553 -0.2174 -0.1126
  463DOPS   CNO 5423   8.191  19.310  16.328 -0.0259 -0.2125  0.3833
  463DOPS   PO4 5424   7.930  19.449  16.072 -0.2393 -0.2946 -0.2153
  463DOPS   GL1 5425   7.649  19.404  15.716  0.0076 -0.4140  0.1060
  463DOPS   GL2 5426   7.430  19.329  15.949  0.1378  0.0604 -0.0460
  463DOPS   C1A 5427   7.840  19.384  15.295  0.3687  0.0838 -0.1612
  463DOPS   D2A 5428   7.902  19.316  14.835  0.0957 -0.0290  0.4235
  463DOPS   C3A 5429   7.848  19.612  14.477  0.1074  0.0263  0.2738
  463DOPS   C4A 5430   7.827  19.923  14.151 -0.0167 -0.3825 -0.0642
  463DOPS   C1B 5431   7.151  19.223  15.588 -0.2156  0.0336 -0.0397
  463DOPS   D2B 5432   6.996  19.223  15.142  0.0881 -0.1720  0.4935
  463DOPS   C3B 5433   6.685  19.369  14.858  0.0026 -0.0184  0.1657
  463DOPS   C4B 5434   6.395  19.695  14.699 -0.0506 -0.0244 -0.4208
  464POSM   NC3 5435  11.307  12.296  15.103  0.2057 -0.0190  0.1283
  464POSM   PO4 5436  11.628  12.213  15.322 -0.4356  0.1535  0.2603
  464POSM   AM1 5437  11.745  12.152  15.035 -0.1762  0.1987 -0.0289
  464POSM   AM2 5438  11.673  12.338  14.776 -0.0372 -0.2110  0.3138
  464POSM   T1A 5439  11.986  11.862  14.711 -0.0969  0.2384 -0.4633
  464POSM   C2A 5440  12.175  11.715  14.273 -0.3459  0.0667 -0.1868
  464POSM   C3A 5441  12.142  11.486  13.868 -0.2301 -0.0395  0.2186
  464POSM   C1B 5442  11.513  11.971  14.691  0.0181 -0.1604  0.0943
  464POSM   D2B 5443  11.457  11.603  14.449 -0.0248 -0.0065 -0.0755
  464POSM   C3B 5444  11.134  11.358  14.283  0.0430 -0.0736 -0.0180
  464POSM   C4B 5445  10.816  11.212  13.955 -0.2350 -0.0537 -0.3524
  465DOPS   CNO 5446   4.330  17.028  16.296 -0.2089 -0.1079 -0.3645
  465DOPS   PO4 5447   4.462  16.653  16.345 -0.2105 -0.1183  0.2729
  465DOPS   GL1 5448   4.367  16.641  16.017 -0.0316  0.1505 -0.0999
  465DOPS   GL2 5449   4.358  16.499  15.767  0.1633  0.2546  0.1221
  465DOPS   C1A 5450   4.131  16.938  15.702  0.4146  0.2092  0.3053
  465DOPS   D2A 5451   3.778  16.983  15.372  0.0828  0.0746  0.1314
  465DOPS   C3A 5452   4.002  16.953  14.985  0.0391  0.0088 -0.2344
  465DOPS   C4A 5453   3.777  16.894  14.573 -0.4113 -0.0874  0.1700
  465DOPS   C1B 5454   4.162  16.570  15.361  0.1278  0.1200  0.2113
  465DOPS   D2B 5455   4.140  16.466  14.940  0.2937  0.0178  0.3536
  465DOPS   C3B 5456   4.068  16.065  14.761 -0.3761 -0.0207  0.3136
  465DOPS   C4B 5457   3.943  15.668  14.580  0.1471  0.2536  0.0575
  466DOPS   CNO 5458   1.333  14.473  16.306  0.1931  0.0180  0.0977
  466DOPS   PO4 5459   1.284  14.394  15.954 -0.0095 -0.2118 -0.2369
  466DOPS   GL1 5460   1.126  14.483  15.586 -0.2055  0.0204  0.1492
  466DOPS   GL2 5461   1.035  14.741  15.592 -0.1156 -0.0593 -0.1926
  466DOPS   C1A 5462   0.824  14.381  15.258  0.1268  0.0826  0.0752
  466DOPS   D2A 5463   0.515  14.362  14.958  0.2685  0.0894  0.2948
  466DOPS   C3A 5464   0.643  14.558  14.618 -0.1360  0.4040  0.0652
  466DOPS   C4A 5465   0.974  14.624  14.242 -0.0283  0.2400  0.3576
  466DOPS   C1B 5466   0.719  14.855  15.312 -0.4065  0.1683 -0.1313
  466DOPS   D2B 5467   0.686  14.942  14.849 -0.0592 -0.1885  0.4066
  466DOPS   C3B 5468   0.591  15.100  14.396 -0.2423 -0.0293 -0.1921
  466DOPS   C4B 5469   0.648  15.435  14.078  0.1312 -0.1182  0.4032
  467DOPE   NH3 5470   3.393  16.320  16.854  0.0027 -0.0514  0.1125
  467DOPE   PO4 5471   3.486  16.011  16.877 -0.3000  0.4593 -0.0348
  467DOPE   GL1 5472   3.349  16.040  16.418  0.0262  0.1405 -0.0360
  467DOPE   GL2 5473   3.402  16.309  16.305  0.2038 -0.0848  0.0625
  467DOPE   C1A 5474   3.577  15.895  16.063 -0.2205  0.0375 -0.1819
  467DOPE   D2A 5475   3.594  15.918  15.592  0.0008  0.1359  0.2036
  467DOPE   C3A 5476   3.288  15.658  15.359  0.1245  0.2383  0.3112
  467DOPE   C4A 5477   2.930  15.682  15.096  0.2539  0.0202  0.0722
  467DOPE   C1B 5478   3.254  16.419  15.901 -0.1686  0.4031  0.0961
  467DOPE   D2B 5479   3.196  16.290  15.527 -0.1096  0.3483  0.4983
  467DOPE   C3B 5480   2.765  16.162  15.277 -0.0362 -0.2180  0.2567
  467DOPE   C4B 5481   2.495  15.883  15.033  0.1409  0.1221 -0.1093
  468DOPE   NH3 5482   8.003  11.593  16.188 -0.3203  0.1753  0.4993
  468DOPE   PO4 5483   8.201  11.854  16.212 -0.1748 -0.2708 -0.0735
  468DOPE   GL1 5484   8.428  12.030  16.101  0.3543  0.1935  0.0304
  468DOPE   GL2 5485   8.711  12.012  16.031  0.0793  0.2976  0.0155
  468DOPE   C1A 5486   8.310  12.258  15.720  0.2650 -0.4148 -0.0783
  468DOPE   D2A 5487   8.507  12.502  15.335 -0.0932  0.0796  0.1091
  468DOPE   C3A 5488   8.325  12.567  14.896 -0.0903 -0.0989  0.3952
  468DOPE   C4A 5489   8.477  12.763  14.504  0.0056  0.1359  0.1454
  468DOPE   C1B 5490   8.825  12.365  15.727  0.0613  0.0417  0.2270
  468DOPE   D2B 5491   9.005  12.535  15.329 -0.3146  0.1193 -0.0632
  468DOPE   C3B 5492   9.125  12.947  15.228 -0.1867  0.1142  0.1903
  468DOPE   C4B 5493   8.998  13.365  14.992 -0.3642  0.2978  0.2031
  469DOPE   NH3 5494   7.938  21.399  15.815  0.3354 -0.2062 -0.2805
  469DOPE   PO4 5495   7.745  21.269  15.591 -0.0256  0.2002  0.2926
  469DOPE   GL1 5496   7.538  21.450  15.307 -0.1586 -0.0990 -0.3914
  469DOPE   GL2 5497   7.548  21.710  15.436 -0.1107  0.2931  0.0888
  469DOPE   C1A 5498   7.609  21.612  14.879 -0.1493  0.0508  0.1796
  469DOPE   D2A 5499   7.693  21.497  14.451  0.2830  0.1623 -0.0295
  469DOPE   C3A 5500   7.737  21.046  14.327  0.0343 -0.2224  0.1847
  469DOPE   C4A 5501   7.514  20.740  14.012 -0.1236 -0.3909  0.0931
  469DOPE   C1B 5502   7.153  21.941  15.248  0.1003  0.1021  0.1622
  469DOPE   D2B 5503   6.986  22.165  14.844 -0.0621  0.1942  0.1044
  469DOPE   C3B 5504   6.794  22.019  14.452  0.2707 -0.0765  0.1083
  469DOPE   C4B 5505   6.760  21.620  14.276  0.0821 -0.0095  0.0240
  470DOPC   NC3 5506   4.857  18.764  16.301 -0.1216  0.0901 -0.2094
  470DOPC   PO4 5507   4.482  18.800  16.322 -0.0747 -0.0293 -0.0627
  470DOPC   GL1 5508   4.359  18.620  16.053  0.0864  0.0123  0.1399
  470DOPC   GL2 5509   4.539  18.437  15.835  0.0461 -0.1103  0.0734
  470DOPC   C1A 5510   4.105  18.447  15.697 -0.1664  0.0860  0.0847
  470DOPC   D2A 5511   3.787  18.233  15.462  0.0425 -0.0595  0.1402
  470DOPC   C3A 5512   3.619  18.306  14.986 -0.3708 -0.0475  0.0134
  470DOPC   C4A 5513   3.242  18.378  14.690 -0.0993 -0.0247  0.0132
  470DOPC   C1B 5514   4.606  18.648  15.396 -0.0566  0.0561 -0.2541
  470DOPC   D2B 5515   4.832  18.444  15.077 -0.1410 -0.2684  0.1059
  470DOPC   C3B 5516   4.715  18.385  14.639 -0.3755  0.1765  0.0899
  470DOPC   C4B 5517   4.749  18.403  14.167 -0.1750  0.2201 -0.2840
  471DOPC   NC3 5518  11.213  15.381  14.808  0.1152  0.0506 -0.0931
  471DOPC   PO4 5519  11.142  15.737  14.894  0.0110  0.1314  0.0600
  471DOPC   GL1 5520  11.255  15.964  14.492  0.1306  0.0694 -0.1025
  471DOPC   GL2 5521  11.450  15.778  14.501  0.0349 -0.1022 -0.3345
  471DOPC   C1A 5522  11.316  15.973  14.013  0.1163 -0.0391  0.0205
  471DOPC   D2A 5523  11.527  16.078  13.636 -0.2084  0.0428  0.0032
  471DOPC   C3A 5524  11.612  15.771  13.322 -0.1675  0.2399  0.0037
  471DOPC   C4A 5525  11.914  15.579  12.917 -0.1635  0.1081  0.2263
  471DOPC   C1B 5526  11.551  15.352  14.358  0.0432 -0.1344  0.2604
  471DOPC   D2B 5527  11.849  15.179  14.031 -0.0511  0.1902 -0.0482
  471DOPC   C3B 5528  12.021  14.813  13.735  0.0530  0.1317 -0.2357
  471DOPC   C4B 5529  11.832  14.477  13.654  0.1040 -0.1202 -0.2759
  472POSM   NC3 5530   2.588  16.492  16.716 -0.0633 -0.2011 -0.1708
  472POSM   PO4 5531   2.977  16.575  16.636  0.0236  0.0949  0.0912
  472POSM   AM1 5532   3.002  16.854  16.443 -0.2241 -0.0610  0.1611
  472POSM   AM2 5533   2.849  17.004  16.232  0.0327  0.0483 -0.1818
  472POSM   T1A 5534   3.242  17.288  16.268 -0.4346  0.1278  0.0750
  472POSM   C2A 5535   3.459  17.683  16.074  0.2378  0.1160  0.0554
  472POSM   C3A 5536   3.795  17.891  15.836  0.2418 -0.0368  0.0184
  472POSM   C1B 5537   2.977  16.930  15.929  0.0607  0.3016  0.0183
  472POSM   D2B 5538   3.118  16.799  15.490 -0.0055 -0.0809  0.4090
  472POSM   C3B 5539   3.309  16.918  15.041  0.2602  0.4238 -0.1553
  472POSM   C4B 5540   3.096  17.115  14.718  0.2600  0.0635  0.1663
  473POSM   NC3 5541   1.915  21.518  16.798  0.0036 -0.0568  0.0055
  473POSM   PO4 5542   2.078  21.812  16.588 -0.0986  0.0185  0.4408
  473POSM   AM1 5543   2.067  21.802  16.255  0.4971  0.1218 -0.1527
  473POSM   AM2 5544   2.199  21.925  16.027 -0.3826 -0.2056 -0.1566
  473POSM   T1A 5545   1.969  21.473  15.891  0.1206 -0.2311 -0.0798
  473POSM   C2A 5546   1.689  21.273  15.599  0.1012  0.0879 -0.1807
  473POSM   C3A 5547   1.510  20.869  15.585 -0.5532  0.2296 -0.2042
  473POSM   C1B 5548   2.052  21.964  15.757  0.0660  0.1825 -0.3186
  473POSM   D2B 5549   2.004  22.125  15.324  0.2028  0.1081  0.0765
  473POSM   C3B 5550   1.776  21.895  15.004 -0.2068  0.2223  0.1243
  473POSM   C4B 5551   1.281  21.808  15.003 -0.0322  0.3478  0.0056
  474DOPE   NH3 5552   2.008  13.997  16.063  0.1393  0.2179 -0.2285
  474DOPE   PO4 5553   2.140  14.214  16.314  0.2569  0.0663  0.0487
  474DOPE   GL1 5554   2.228  14.562  15.976  0.3209  0.0484 -0.1411
  474DOPE   GL2 5555   2.295  14.289  15.800  0.0380 -0.0792 -0.2475
  474DOPE   C1A 5556   2.581  14.633  15.641  0.1120 -0.2245  0.2074
  474DOPE   D2A 5557   2.824  14.700  15.270  0.4338  0.2132  0.2551
  474DOPE   C3A 5558   3.026  14.739  14.870 -0.3933  0.0094  0.3743
  474DOPE   C4A 5559   3.288  14.793  14.513  0.0219  0.0340 -0.0273
  474DOPE   C1B 5560   2.191  14.516  15.393 -0.0211  0.4993  0.1973
  474DOPE   D2B 5561   2.327  14.865  15.106 -0.0021 -0.0222  0.2220
  474DOPE   C3B 5562   2.574  14.741  14.702  0.3125  0.2553 -0.1406
  474DOPE   C4B 5563   2.879  14.708  14.292  0.0682  0.1171  0.0696
  475DOPE   NH3 5564   1.230  14.922  16.036 -0.1675 -0.0045 -0.0325
  475DOPE   PO4 5565   1.231  15.169  16.230  0.2111 -0.0409 -0.2793
  475DOPE   GL1 5566   1.494  15.385  16.029 -0.0877  0.1200 -0.0851
  475DOPE   GL2 5567   1.565  15.165  15.812  0.0495  0.1095  0.0814
  475DOPE   C1A 5568   1.948  15.599  15.945  0.0702  0.2655  0.0959
  475DOPE   D2A 5569   2.407  15.446  16.020  0.1953 -0.0734 -0.2113
  475DOPE   C3A 5570   2.693  15.809  15.944  0.3622  0.0973 -0.1764
  475DOPE   C4A 5571   3.109  15.923  15.828 -0.0145  0.1425 -0.0606
  475DOPE   C1B 5572   1.810  15.331  15.475 -0.1652 -0.3135  0.3415
  475DOPE   D2B 5573   2.002  15.721  15.375  0.0567  0.0498  0.1317
  475DOPE   C3B 5574   2.035  15.874  14.945  0.0021  0.2728  0.0001
  475DOPE   C4B 5575   2.189  16.076  14.568 -0.2107 -0.2494  0.0262
  476DOPE   NH3 5576   4.733  22.955  16.064 -0.2890 -0.1887 -0.0507
  476DOPE   PO4 5577   4.478  22.881  16.142  0.2594 -0.0883  0.0308
  476DOPE   GL1 5578   4.415  23.111  15.785  0.1312  0.2964  0.1036
  476DOPE   GL2 5579   4.181  23.165  15.688 -0.0804  0.0710 -0.0689
  476DOPE   C1A 5580   4.732  23.158  15.463 -0.0206 -0.5180  0.0848
  476DOPE   D2A 5581   5.036  23.246  15.151  0.2477  0.1177 -0.0350
  476DOPE   C3A 5582   5.043  23.697  15.153  0.0488 -0.2057 -0.0135
  476DOPE   C4A 5583   4.944  24.111  15.255 -0.0507  0.1125 -0.0992
  476DOPE   C1B 5584   4.345  23.391  15.276 -0.0531 -0.1529  0.0800
  476DOPE   D2B 5585   4.140  23.528  14.848  0.0646  0.1582  0.1020
  476DOPE   C3B 5586   4.138  24.006  14.765  0.0028  0.0172 -0.2503
  476DOPE   C4B 5587   4.116  24.378  14.569 -0.1452 -0.2114  0.1031
  477DOPC   NC3 5588   0.643  13.093  15.631 -0.2331  0.1019 -0.1417
  477DOPC   PO4 5589   0.459  12.784  15.793 -0.2723  0.2197 -0.1285
  477DOPC   GL1 5590   0.366  12.769  15.391  0.1283 -0.0343 -0.4277
  477DOPC   GL2 5591   0.157  12.560  15.329  0.1357 -0.1019  0.0261
  477DOPC   C1A 5592   0.278  12.755  14.906  0.1535 -0.0333 -0.1873
  477DOPC   D2A 5593   0.411  12.586  14.499 -0.0970 -0.0594  0.4221
  477DOPC   C3A 5594   0.556  12.768  14.064  0.0257  0.0226 -0.2821
  477DOPC   C4A 5595   0.642  13.013  13.679 -0.0542  0.0024  0.2632
  477DOPC   C1B 5596   0.513  12.341  15.173  0.1065  0.1303 -0.2397
  477DOPC   D2B 5597   0.615  12.127  14.735  0.1261  0.3669  0.0735
  477DOPC   C3B 5598   0.252  11.861  14.582  0.2907 -0.2860  0.0698
  477DOPC   C4B 5599   0.004  11.685  14.272 -0.0742 -0.0390 -0.1612
  478DOPC   NC3 5600   0.494  17.072  15.662 -0.1772 -0.0244  0.2542
  478DOPC   PO4 5601   0.752  17.254  15.945  0.1630 -0.0853  0.1784
  478DOPC   GL1 5602   0.822  17.410  15.576 -0.2793 -0.2458 -0.3092
  478DOPC   GL2 5603   1.091  17.552  15.714 -0.0753 -0.1506  0.1357
  478DOPC   C1A 5604   0.656  17.213  15.175  0.3763 -0.1980 -0.1789
  478DOPC   D2A 5605   0.309  17.317  14.844  0.0536 -0.2542 -0.1980
  478DOPC   C3A 5606   0.401  17.595  14.497 -0.3049 -0.1448  0.3707
  478DOPC   C4A 5607   0.300  18.009  14.220  0.1932 -0.1694  0.1452
  478DOPC   C1B 5608   0.979  17.648  15.264 -0.1365  0.2817 -0.0366
  478DOPC   D2B 5609   0.823  17.607  14.860 -0.0881 -0.0916  0.3113
  478DOPC   C3B 5610   0.935  17.690  14.406  0.2115  0.1020 -0.0120
  478DOPC   C4B 5611   0.933  17.844  13.932 -0.2784 -0.1223 -0.1787
  479POSM   NC3 5612   4.705  13.288  16.167 -0.2130  0.2499 -0.0127
  479POSM   PO4 5613   4.699  13.479  16.511  0.0525  0.0158 -0.0754
  479POSM   AM1 5614   4.752  13.706  16.331 -0.0191  0.1767 -0.2252
  479POSM   AM2 5615   4.956  13.925  16.245 -0.2074 -0.0740 -0.1154
  479POSM   T1A 5616   4.700  13.853  15.827  0.0460  0.0826 -0.0945
  479POSM   C2A 5617   4.732  13.869  15.354  0.3490 -0.2261 -0.1462
  479POSM   C3A 5618   4.463  13.946  14.994 -0.2025 -0.1410  0.1386
  479POSM   C1B 5619   5.196  13.943  15.944  0.5074 -0.1343  0.0800
  479POSM   D2B 5620   5.160  14.094  15.532 -0.5064  0.0012 -0.3945
  479POSM   C3B 5621   4.802  14.328  15.340 -0.1849 -0.0761  0.2002
  479POSM   C4B 5622   4.704  14.368  14.874 -0.2187  0.1605 -0.0711
  480DOPC   NC3 5623   2.003  22.957  16.718 -0.3137  0.0425 -0.2045
  480DOPC   PO4 5624   2.091  23.244  16.441 -0.0713  0.1064 -0.1109
  480DOPC   GL1 5625   2.237  23.151  16.084  0.1172  0.0228  0.3113
  480DOPC   GL2 5626   2.498  22.992  16.123 -0.2603 -0.0636  0.0473
  480DOPC   C1A 5627   2.238  23.460  15.727 -0.1406  0.0106 -0.0626
  480DOPC   D2A 5628   2.086  23.577  15.338  0.2189  0.0296 -0.0115
  480DOPC   C3A 5629   1.742  23.701  14.974  0.0678 -0.1021 -0.2083
  480DOPC   C4A 5630   1.688  23.916  14.525 -0.3776 -0.3265  0.1616
  480DOPC   C1B 5631   2.366  22.944  15.612  0.2122  0.1975 -0.0557
  480DOPC   D2B 5632   2.442  22.851  15.153 -0.0291  0.1007  0.1619
  480DOPC   C3B 5633   2.819  22.989  15.040 -0.0904  0.0189  0.0976
  480DOPC   C4B 5634   2.761  23.004  14.598 -0.1163 -0.2535 -0.0503
  481DOPE   NH3 5635   8.047  13.599  16.602 -0.0951 -0.0992 -0.2198
  481DOPE   PO4 5636   8.286  13.665  16.410  0.0248  0.1277  0.1105
  481DOPE   GL1 5637   8.204  13.576  16.084  0.1388 -0.1915 -0.1439
  481DOPE   GL2 5638   8.015  13.351  16.083  0.1083 -0.0521  0.1255
  481DOPE   C1A 5639   8.362  13.347  15.722  0.1885  0.0480  0.2259
  481DOPE   D2A 5640   8.393  13.189  15.338  0.0443  0.0848  0.1814
  481DOPE   C3A 5641   8.665  12.917  15.121  0.2391  0.1945  0.1407
  481DOPE   C4A 5642   8.822  12.588  14.793 -0.0602  0.0025  0.2517
  481DOPE   C1B 5643   7.922  13.598  15.710  0.3180  0.1123  0.1177
  481DOPE   D2B 5644   7.830  13.822  15.414  0.1399  0.1698 -0.1004
  481DOPE   C3B 5645   7.943  13.717  15.001 -0.0899  0.0140 -0.1377
  481DOPE   C4B 5646   7.782  13.729  14.585  0.0619 -0.3879 -0.2802
  482DOPC   NC3 5647   2.228  18.911  16.836 -0.0320  0.1239 -0.3921
  482DOPC   PO4 5648   2.581  19.053  16.713  0.0427  0.1537  0.2009
  482DOPC   GL1 5649   2.622  19.106  16.337 -0.1764 -0.1616  0.2388
  482DOPC   GL2 5650   2.750  18.821  16.254 -0.1601 -0.2032 -0.0602
  482DOPC   C1A 5651   2.685  19.126  15.871  0.3434  0.0508 -0.2006
  482DOPC   D2A 5652   2.733  18.854  15.517  0.1159  0.1284  0.1582
  482DOPC   C3A 5653   2.359  18.739  15.328  0.1464 -0.1931  0.0050
  482DOPC   C4A 5654   1.970  18.671  15.192  0.0181  0.2630  0.0739
  482DOPC   C1B 5655   3.084  19.111  16.127  0.0554 -0.0025 -0.1286
  482DOPC   D2B 5656   3.482  19.063  15.881 -0.0870 -0.1119 -0.0072
  482DOPC   C3B 5657   3.664  19.169  15.502 -0.0780 -0.0220 -0.3611
  482DOPC   C4B 5658   3.902  19.101  15.074 -0.1832 -0.1665 -0.1979
  483DOPE   NH3 5659   0.645  19.809  16.121  0.1226  0.1165 -0.0365
  483DOPE   PO4 5660   0.411  19.997  16.260  0.3423  0.2679 -0.1358
  483DOPE   GL1 5661   0.442  20.129  15.891 -0.2086 -0.1297  0.1090
  483DOPE   GL2 5662   0.397  20.449  15.951 -0.1949 -0.3331 -0.2406
  483DOPE   C1A 5663   0.230  20.184  15.557 -0.2725 -0.0330 -0.3811
  483DOPE   D2A 5664   0.180  20.491  15.186  0.0500  0.0162  0.0041
  483DOPE   C3A 5665   0.321  20.471  14.795 -0.0439 -0.2928 -0.0026
  483DOPE   C4A 5666   0.656  20.459  14.445  0.1681 -0.1676  0.1313
  483DOPE   C1B 5667   0.316  20.753  15.647  0.1626  0.1327 -0.1148
  483DOPE   D2B 5668   0.381  20.968  15.211  0.0591  0.0102  0.2826
  483DOPE   C3B 5669   0.260  21.276  14.890  0.1171  0.0476 -0.0096
  483DOPE   C4B 5670   0.289  21.694  14.735  0.1522  0.0407 -0.0398
  484DOPE   NH3 5671  10.259  12.176  15.948 -0.0875 -0.4173  0.1335
  484DOPE   PO4 5672  10.028  12.455  15.838 -0.1244 -0.1745  0.1345
  484DOPE   GL1 5673   9.766  12.614  15.484 -0.1008 -0.3425  0.1834
  484DOPE   GL2 5674   9.485  12.475  15.537  0.4807 -0.0519 -0.0299
  484DOPE   C1A 5675   9.690  12.603  15.058  0.1480 -0.0925  0.2095
  484DOPE   D2A 5676   9.564  12.395  14.631 -0.1546  0.1043  0.2659
  484DOPE   C3A 5677   9.172  12.530  14.450 -0.2622 -0.5577  0.1736
  484DOPE   C4A 5678   8.765  12.476  14.189  0.1966  0.3210  0.2740
  484DOPE   C1B 5679   9.300  12.171  15.201  0.1919 -0.0854  0.2008
  484DOPE   D2B 5680   9.138  12.169  14.790  0.1073  0.0486  0.0960
  484DOPE   C3B 5681   9.405  11.966  14.446  0.2284  0.1703 -0.1453
  484DOPE   C4B 5682   9.610  11.748  14.034 -0.3813  0.2787  0.0582
  485DOPC   NC3 5683   2.686  14.464  16.099  0.2656 -0.0036 -0.1661
  485DOPC   PO4 5684   2.938  14.250  16.306 -0.2825 -0.3314 -0.1199
  485DOPC   GL1 5685   3.074  14.237  15.898  0.0300 -0.2068 -0.1262
  485DOPC   GL2 5686   3.207  14.499  15.727 -0.0191  0.0073 -0.0991
  485DOPC   C1A 5687   2.882  14.263  15.465  0.2720 -0.1118 -0.2493
  485DOPC   D2A 5688   2.770  14.178  15.054 -0.2721  0.2924 -0.3024
  485DOPC   C3A 5689   3.059  14.289  14.710  0.1451 -0.0051 -0.0881
  485DOPC   C4A 5690   3.214  14.358  14.287 -0.4127 -0.0182 -0.2179
  485DOPC   C1B 5691   3.042  14.930  15.679  0.0459  0.0856 -0.1019
  485DOPC   D2B 5692   3.149  15.130  15.284  0.2067  0.2629  0.2160
  485DOPC   C3B 5693   3.168  15.267  14.828  0.1074  0.1224 -0.0601
  485DOPC   C4B 5694   3.069  15.308  14.381 -0.0858 -0.2645  0.1144
  486DOPC   NC3 5695   4.816  15.874  16.395 -0.1768  0.0190 -0.3067
  486DOPC   PO4 5696   4.642  16.221  16.453 -0.3109 -0.0772 -0.2831
  486DOPC   GL1 5697   4.598  16.100  16.056  0.1712  0.1432  0.0224
  486DOPC   GL2 5698   4.427  15.822  16.047  0.1691  0.0903 -0.2077
  486DOPC   C1A 5699   4.553  16.016  15.561  0.0546 -0.0412 -0.0693
  486DOPC   D2A 5700   4.629  16.308  15.252 -0.0180 -0.1500  0.1345
  486DOPC   C3A 5701   4.630  16.224  14.812 -0.0112  0.2354  0.1616
  486DOPC   C4A 5702   4.460  16.216  14.436  0.0164 -0.2320  0.1057
  486DOPC   C1B 5703   4.075  15.948  15.768 -0.0250  0.4955  0.0084
  486DOPC   D2B 5704   4.068  16.104  15.349  0.0281 -0.0744 -0.0072
  486DOPC   C3B 5705   3.771  15.865  15.144  0.2057 -0.0243  0.1686
  486DOPC   C4B 5706   3.627  15.513  14.975  0.1987  0.3978  0.0976
  487DOPC   NC3 5707  10.779  20.759  15.371  0.3382  0.0774 -0.2067
  487DOPC   PO4 5708  11.097  21.022  15.459 -0.0308  0.2471  0.0906
  487DOPC   GL1 5709  11.067  20.917  15.061 -0.0069 -0.4541 -0.3236
  487DOPC   GL2 5710  11.002  21.213  15.021  0.1531 -0.0641 -0.1162
  487DOPC   C1A 5711  10.796  20.661  14.768 -0.1906 -0.2869 -0.1668
  487DOPC   D2A 5712  10.640  20.497  14.380  0.0996  0.3612 -0.2302
  487DOPC   C3A 5713  10.591  19.994  14.321  0.1002 -0.2244  0.2659
  487DOPC   C4A 5714  10.445  19.632  14.088  0.0581 -0.0535 -0.1836
  487DOPC   C1B 5715  11.130  21.072  14.553  0.0462  0.1131 -0.4655
  487DOPC   D2B 5716  10.778  21.023  14.255 -0.2125 -0.1452  0.0824
  487DOPC   C3B 5717  10.358  20.856  14.191  0.2075  0.0145 -0.2743
  487DOPC   C4B 5718  10.061  20.478  14.077 -0.0348  0.0518  0.0914
  488DOPC   NC3 5719   0.086  13.079  15.594  0.0258 -0.4350  0.0329
  488DOPC   PO4 5720  -0.121  12.722  15.714  0.1642 -0.1504  0.0628
  488DOPC   GL1 5721  -0.340  12.883  15.463  0.5589 -0.0708  0.0097
  488DOPC   GL2 5722  -0.339  12.610  15.291  0.2424 -0.1713  0.0021
  488DOPC   C1A 5723  -0.170  13.111  15.109  0.0356  0.0176  0.0960
  488DOPC   D2A 5724  -0.113  13.197  14.712 -0.0886  0.2106 -0.1072
  488DOPC   C3A 5725   0.029  13.272  14.316  0.0959  0.1609 -0.1888
  488DOPC   C4A 5726   0.255  13.392  13.976  0.1244  0.1632 -0.1491
  488DOPC   C1B 5727  -0.608  12.819  14.955  0.0793 -0.4084  0.2220
  488DOPC   D2B 5728  -0.907  12.831  14.665  0.0233 -0.1524 -0.0306
  488DOPC   C3B 5729  -0.938  13.230  14.434  0.1781 -0.0993 -0.0761
  488DOPC   C4B 5730  -1.185  13.286  14.060  0.2580  0.1670 -0.1125
  489DOPC   NC3 5731   5.597  16.387  16.465  0.1451 -0.2142  0.0805
  489DOPC   PO4 5732   5.779  16.030  16.428  0.0165 -0.1952  0.2575
  489DOPC   GL1 5733   5.915  15.811  16.118 -0.2933 -0.0570  0.0699
  489DOPC   GL2 5734   5.855  15.518  16.215  0.0336  0.1602 -0.1778
  489DOPC   C1A 5735   5.809  15.590  15.642  0.1221 -0.1381 -0.0063
  489DOPC   D2A 5736   6.005  15.282  15.381 -0.2109 -0.0630  0.2231
  489DOPC   C3A 5737   6.217  15.189  14.961  0.0431 -0.0875  0.1495
  489DOPC   C4A 5738   6.602  15.056  14.735  0.1681 -0.2138  0.1820
  489DOPC   C1B 5739   5.777  15.178  15.931  0.1819  0.2961  0.0502
  489DOPC   D2B 5740   5.521  14.976  15.563  0.2776 -0.0072  0.0363
  489DOPC   C3B 5741   5.671  14.843  15.129 -0.4130 -0.1866 -0.2159
  489DOPC   C4B 5742   5.711  14.838  14.692 -0.0976  0.1938 -0.0960
  490DOPE   NH3 5743   9.013  18.993  16.246 -0.3476  0.0617 -0.2011
  490DOPE   PO4 5744   9.245  19.131  16.118  0.0184 -0.0685 -0.0083
  490DOPE   GL1 5745   9.246  18.980  15.807  0.2615  0.1001 -0.0297
  490DOPE   GL2 5746   9.195  19.196  15.614  0.2854  0.1101  0.2499
  490DOPE   C1A 5747   9.530  18.684  15.550  0.1010  0.2323 -0.4269
  490DOPE   D2A 5748   9.568  18.345  15.193 -0.1481  0.3924 -0.2046
  490DOPE   C3A 5749   9.920  18.077  15.135  0.1765 -0.1049 -0.2861
  490DOPE   C4A 5750  10.279  17.798  15.223  0.2269  0.0122  0.2979
  490DOPE   C1B 5751   8.919  18.991  15.279 -0.2394 -0.2820 -0.0275
  490DOPE   D2B 5752   8.677  18.874  14.937 -0.1691  0.0772  0.1264
  490DOPE   C3B 5753   8.845  18.596  14.649 -0.5569  0.2092  0.0144
  490DOPE   C4B 5754   8.763  18.272  14.334  0.2054  0.2603  0.1700
  491DOPE   NH3 5755   9.002  17.641  16.198  0.2110  0.1567  0.2533
  491DOPE   PO4 5756   8.737  17.477  16.148  0.0287  0.0552 -0.2709
  491DOPE   GL1 5757   8.623  17.565  15.776  0.0340  0.1441 -0.1187
  491DOPE   GL2 5758   8.535  17.251  15.718 -0.1605 -0.1488 -0.1340
  491DOPE   C1A 5759   8.816  17.456  15.347  0.2170 -0.0940 -0.3663
  491DOPE   D2A 5760   9.040  17.591  14.993 -0.0058  0.1379  0.3324
  491DOPE   C3A 5761   8.669  17.864  15.039 -0.0491 -0.0967 -0.2222
  491DOPE   C4A 5762   8.527  18.015  15.399 -0.1381 -0.3010 -0.0463
  491DOPE   C1B 5763   8.314  17.535  15.470 -0.0174  0.0882 -0.0104
  491DOPE   D2B 5764   8.171  17.799  15.106  0.1938 -0.0412 -0.2804
  491DOPE   C3B 5765   8.293  17.861  14.681 -0.0640  0.0584 -0.0491
  491DOPE   C4B 5766   8.560  17.703  14.301  0.3051  0.0387  0.0131
  492POSM   NC3 5767   5.041  20.466  16.121  0.4417 -0.0714  0.1620
  492POSM   PO4 5768   5.302  20.177  16.190 -0.1725  0.1009  0.3123
  492POSM   AM1 5769   5.415  20.010  15.907  0.0266  0.4117  0.1000
  492POSM   AM2 5770   5.606  19.875  15.776  0.2977 -0.0333  0.2548
  492POSM   T1A 5771   5.265  19.906  15.429  0.2205  0.0818  0.0697
  492POSM   C2A 5772   4.990  19.972  15.039  0.1217  0.1590  0.3080
  492POSM   C3A 5773   4.696  20.111  14.704 -0.0611  0.1845  0.0485
  492POSM   C1B 5774   5.745  19.970  15.433  0.2187 -0.2428 -0.0584
  492POSM   D2B 5775   5.932  20.067  14.977 -0.1468  0.1785 -0.0285
  492POSM   C3B 5776   5.996  20.478  14.756 -0.1881 -0.1829  0.2686
  492POSM   C4B 5777   6.241  20.728  14.412 -0.4634 -0.1091 -0.0909
  493DOPC   NC3 5778   7.131  11.519  16.149  0.1043  0.0552 -0.3200
  493DOPC   PO4 5779   7.501  11.620  16.065  0.1810  0.3019  0.0025
  493DOPC   GL1 5780   7.502  11.605  15.756 -0.0349  0.1964 -0.1536
  493DOPC   GL2 5781   7.230  11.628  15.633 -0.2298 -0.0409  0.3321
  493DOPC   C1A 5782   7.641  11.801  15.388  0.2272  0.1261  0.4230
  493DOPC   D2A 5783   7.686  11.906  14.976  0.2176  0.0191 -0.1429
  493DOPC   C3A 5784   7.835  11.597  14.593  0.1933 -0.0646 -0.1918
  493DOPC   C4A 5785   7.594  11.340  14.232 -0.0800 -0.1626  0.0893
  493DOPC   C1B 5786   7.412  11.367  15.294 -0.0473  0.1600  0.2094
  493DOPC   D2B 5787   7.559  10.962  15.141 -0.2905  0.0430  0.2183
  493DOPC   C3B 5788   7.954  10.821  15.236 -0.0474 -0.2388 -0.0597
  493DOPC   C4B 5789   8.336  10.544  15.220 -0.0392  0.2512 -0.0527
  494POSM   NC3 5790   3.089  13.421  16.371 -0.1202  0.0598  0.1359
  494POSM   PO4 5791   3.383  13.184  16.364 -0.0040  0.2537  0.0044
  494POSM   AM1 5792   3.433  13.246  16.039  0.5551  0.0165  0.0486
  494POSM   AM2 5793   3.233  13.294  15.847 -0.0114  0.0819  0.1552
  494POSM   T1A 5794   3.755  13.294  15.634  0.0659  0.1571 -0.0580
  494POSM   C2A 5795   4.037  13.252  15.277 -0.1232  0.1332 -0.0830
  494POSM   C3A 5796   4.258  13.142  14.847 -0.0269 -0.2808 -0.1310
  494POSM   C1B 5797   3.265  13.354  15.501  0.2387  0.3707  0.0863
  494POSM   D2B 5798   3.147  13.393  15.019 -0.2617 -0.0348  0.0839
  494POSM   C3B 5799   3.230  13.057  14.752 -0.4049 -0.1782  0.3073
  494POSM   C4B 5800   3.387  12.949  14.330 -0.1286 -0.0013  0.0951
  495POSM   NC3 5801   1.850  22.909  16.191  0.0739  0.2196  0.0453
  495POSM   PO4 5802   1.629  22.716  16.449 -0.0013  0.2035 -0.0407
  495POSM   AM1 5803   1.573  22.529  16.208  0.0949 -0.1237 -0.1225
  495POSM   AM2 5804   1.759  22.425  15.968 -0.1145  0.0390  0.0759
  495POSM   T1A 5805   1.249  22.323  15.928  0.3723  0.0837 -0.0749
  495POSM   C2A 5806   0.859  22.196  15.786  0.0581  0.2068 -0.4149
  495POSM   C3A 5807   0.508  22.249  15.514  0.0151  0.0133  0.1301
  495POSM   C1B 5808   1.667  22.397  15.660 -0.0335 -0.0241  0.1626
  495POSM   D2B 5809   1.340  22.347  15.357  0.2661 -0.1280  0.2273
  495POSM   C3B 5810   1.385  22.300  14.917  0.0792  0.0574  0.1684
  495POSM   C4B 5811   1.141  22.080  14.592 -0.2659 -0.1001  0.4086
  496DOPS   CNO 5812   5.496  19.105  16.473 -0.0375 -0.0738  0.1773
  496DOPS   PO4 5813   5.348  18.767  16.410 -0.3799  0.2293  0.0077
  496DOPS   GL1 5814   5.392  18.677  16.049  0.1006  0.1355  0.0245
  496DOPS   GL2 5815   5.410  18.408  15.864 -0.1894 -0.0026  0.0745
  496DOPS   C1A 5816   5.449  18.876  15.594  0.1427 -0.0731  0.2013
  496DOPS   D2A 5817   5.627  18.798  15.219  0.0613  0.3308  0.1283
  496DOPS   C3A 5818   5.443  19.093  14.972  0.0624 -0.0281  0.0180
  496DOPS   C4A 5819   5.251  19.162  14.588 -0.0222  0.3826 -0.0377
  496DOPS   C1B 5820   5.189  18.408  15.472 -0.1450 -0.0401  0.0350
  496DOPS   D2B 5821   5.236  18.162  15.099  0.3383 -0.0132  0.1780
  496DOPS   C3B 5822   5.195  18.430  14.719 -0.1199  0.0887 -0.0048
  496DOPS   C4B 5823   5.253  18.687  14.349  0.1531  0.0552 -0.2406
  497DOPC   NC3 5824   3.930  21.711  16.286  0.0400  0.2759  0.3983
  497DOPC   PO4 5825   3.645  21.590  16.524  0.2144 -0.2517 -0.0247
  497DOPC   GL1 5826   3.501  21.426  16.111  0.2684  0.1735 -0.1845
  497DOPC   GL2 5827   3.765  21.279  15.900  0.3225 -0.1823  0.3501
  497DOPC   C1A 5828   3.171  21.287  15.859 -0.0631  0.2317  0.3890
  497DOPC   D2A 5829   2.828  21.212  15.551  0.0118 -0.0226 -0.1343
  497DOPC   C3A 5830   2.556  21.436  15.242 -0.1089  0.1308 -0.4178
  497DOPC   C4A 5831   2.347  21.348  14.853 -0.1221 -0.0517  0.0922
  497DOPC   C1B 5832   3.690  20.828  15.966  0.0625  0.1528  0.0295
  497DOPC   D2B 5833   3.551  20.474  15.694  0.0912 -0.0225  0.0261
  497DOPC   C3B 5834   3.581  20.177  15.290 -0.0893  0.1715  0.1857
  497DOPC   C4B 5835   3.508  20.229  14.837  0.0932 -0.0818 -0.1221
  498DOPE   NH3 5836   4.129  19.163  16.614 -0.2324 -0.4959 -0.0895
  498DOPE   PO4 5837   4.328  19.400  16.598  0.1108 -0.0637  0.2112
  498DOPE   GL1 5838   4.237  19.251  16.171  0.2378  0.0825  0.0440
  498DOPE   GL2 5839   4.347  19.515  16.150  0.1463  0.1146  0.1770
  498DOPE   C1A 5840   3.970  19.470  15.796 -0.2494 -0.0267  0.2571
  498DOPE   D2A 5841   3.743  19.759  15.499  0.1906  0.1913 -0.1627
  498DOPE   C3A 5842   3.804  19.684  15.019 -0.0419  0.1007  0.1970
  498DOPE   C4A 5843   3.877  19.708  14.574  0.4980 -0.0311  0.1753
  498DOPE   C1B 5844   4.552  19.220  15.914  0.1127  0.0337 -0.1608
  498DOPE   D2B 5845   4.675  19.252  15.492  0.1483  0.0068 -0.0160
  498DOPE   C3B 5846   4.664  19.351  15.021 -0.3447 -0.0236 -0.3544
  498DOPE   C4B 5847   4.813  19.517  14.604  0.3274  0.4861 -0.2434
  499DOPE   NH3 5848   5.021  12.556  16.047 -0.1303 -0.0995  0.0854
  499DOPE   PO4 5849   4.984  12.889  16.030  0.2790 -0.3325  0.0021
  499DOPE   GL1 5850   4.945  12.929  15.677 -0.2799  0.0348  0.0597
  499DOPE   GL2 5851   5.190  13.059  15.512  0.2011  0.1201 -0.1262
  499DOPE   C1A 5852   4.656  13.062  15.328  0.2128 -0.3446 -0.0910
  499DOPE   D2A 5853   4.502  13.455  15.109 -0.2984  0.0497 -0.0042
  499DOPE   C3A 5854   4.551  13.521  14.644  0.0365 -0.2687  0.0256
  499DOPE   C4A 5855   4.778  13.937  14.526  0.0960 -0.3320  0.2118
  499DOPE   C1B 5856   5.143  13.425  15.324  0.1873  0.1209 -0.1900
  499DOPE   D2B 5857   4.974  13.585  14.902 -0.0225  0.2395 -0.0416
  499DOPE   C3B 5858   5.227  13.542  14.489  0.1066 -0.1983  0.0741
  499DOPE   C4B 5859   5.254  13.300  14.076  0.1407  0.0825  0.0795
  500DOPC   NC3 5860   7.005  15.445  16.245  0.1669 -0.1271  0.1832
  500DOPC   PO4 5861   6.633  15.357  16.370 -0.2573  0.0826 -0.0984
  500DOPC   GL1 5862   6.358  15.300  16.105 -0.0715 -0.0303 -0.0136
  500DOPC   GL2 5863   6.278  15.498  15.925 -0.1683  0.0662 -0.2536
  500DOPC   C1A 5864   6.189  14.996  15.812 -0.0501  0.3221 -0.0678
  500DOPC   D2A 5865   6.456  14.636  15.704 -0.0583 -0.0106  0.1296
  500DOPC   C3A 5866   6.482  14.390  15.363 -0.0006 -0.0059 -0.1487
  500DOPC   C4A 5867   6.531  14.117  14.939 -0.0151  0.2813  0.1576
  500DOPC   C1B 5868   6.447  15.576  15.506 -0.2382 -0.1813 -0.4255
  500DOPC   D2B 5869   6.245  15.768  15.136 -0.0268  0.0644 -0.1041
  500DOPC   C3B 5870   5.872  15.653  14.967 -0.1328  0.2510 -0.0585
  500DOPC   C4B 5871   5.587  15.304  14.966 -0.1881  0.0166  0.1321
  501POSM   NC3 5872   7.685  20.320  16.007  0.1766 -0.1465  0.0725
  501POSM   PO4 5873   7.783  20.418  15.616  0.0527  0.0652  0.1753
  501POSM   AM1 5874   7.619  20.376  15.344 -0.0390  0.0971  0.0210
  501POSM   AM2 5875   7.646  20.141  15.205 -0.1577  0.2810  0.4389
  501POSM   T1A 5876   7.591  20.604  14.862  0.3402 -0.4213  0.1294
  501POSM   C2A 5877   7.779  20.550  14.406 -0.1918 -0.0253 -0.0076
  501POSM   C3A 5878   8.112  20.317  14.139  0.1477 -0.0253 -0.1146
  501POSM   C1B 5879   7.488  20.143  14.890 -0.3581  0.0851 -0.1295
  501POSM   D2B 5880   7.450  20.058  14.456  0.0532  0.5300  0.4455
  501POSM   C3B 5881   7.376  19.643  14.304 -0.2637  0.2096 -0.1679
  501POSM   C4B 5882   7.531  19.281  14.128  0.2481 -0.0856  0.0968
  502POSM   NC3 5883   2.356  22.211  16.415 -0.3267  0.1424 -0.3487
  502POSM   PO4 5884   2.236  22.600  16.370  0.3192  0.4164 -0.0984
  502POSM   AM1 5885   2.191  22.645  16.018 -0.0485  0.2915 -0.0195
  502POSM   AM2 5886   2.248  22.413  15.864 -0.2192 -0.3201 -0.1715
  502POSM   T1A 5887   1.923  22.811  15.675 -0.2070  0.3988  0.0027
  502POSM   C2A 5888   1.976  23.060  15.294 -0.1203  0.0444  0.2737
  502POSM   C3A 5889   1.754  23.197  14.904  0.2456  0.0186  0.2023
  502POSM   C1B 5890   2.307  22.420  15.537 -0.0474  0.2578  0.0086
  502POSM   D2B 5891   2.293  22.349  15.070  0.2524 -0.3197  0.4142
  502POSM   C3B 5892   1.945  22.349  14.758  0.0465 -0.0065 -0.1494
  502POSM   C4B 5893   1.651  22.222  14.500  0.0619  0.0734 -0.2229
  503DOPC   NC3 5894   8.793  21.886  15.603 -0.1645 -0.0626  0.1593
  503DOPC   PO4 5895   8.866  21.512  15.666  0.1438 -0.3840  0.2335
  503DOPC   GL1 5896   8.812  21.492  15.328 -0.1390 -0.2375  0.1181
  503DOPC   GL2 5897   8.514  21.559  15.278 -0.0352 -0.1269  0.2752
  503DOPC   C1A 5898   8.778  21.324  14.836  0.6684 -0.1894 -0.2013
  503DOPC   D2A 5899   8.595  21.377  14.383 -0.0463 -0.1161  0.1527
  503DOPC   C3A 5900   8.774  21.048  14.051 -0.3813  0.0093 -0.0492
  503DOPC   C4A 5901   8.898  20.871  13.677 -0.3416 -0.0295  0.2503
  503DOPC   C1B 5902   8.381  22.028  15.273  0.0086  0.1499 -0.3962
  503DOPC   D2B 5903   8.281  22.459  15.122  0.1087  0.0065  0.1117
  503DOPC   C3B 5904   7.854  22.380  14.890 -0.3208  0.0604 -0.0717
  503DOPC   C4B 5905   7.470  22.163  14.768 -0.3951  0.2981 -0.0925
  504DOPS   CNO 5906   4.391  18.351  16.517  0.0520  0.1330  0.2125
  504DOPS   PO4 5907   4.673  18.293  16.270  0.2895 -0.0417  0.1304
  504DOPS   GL1 5908   4.976  18.429  15.959 -0.1883 -0.1607  0.2868
  504DOPS   GL2 5909   4.934  18.145  15.809  0.0405  0.2053 -0.1563
  504DOPS   C1A 5910   4.974  18.832  15.727 -0.5063 -0.3080 -0.4685
  504DOPS   D2A 5911   5.030  19.004  15.289  0.2553 -0.1722  0.2804
  504DOPS   C3A 5912   4.955  18.925  14.833 -0.0551  0.0093 -0.3405
  504DOPS   C4A 5913   4.807  19.027  14.402 -0.2201 -0.2542  0.1950
  504DOPS   C1B 5914   4.637  18.142  15.446  0.3460 -0.2092 -0.2672
  504DOPS   D2B 5915   4.299  18.353  15.213 -0.0161  0.1829 -0.0847
  504DOPS   C3B 5916   4.048  18.601  14.980  0.1235  0.0043  0.0551
  504DOPS   C4B 5917   3.751  18.789  14.706  0.1193  0.1190  0.1482
  505DOPE   NH3 5918  11.407  16.164  14.951  0.0229  0.0932 -0.1623
  505DOPE   PO4 5919  11.143  16.253  15.210  0.0173  0.2250 -0.4636
  505DOPE   GL1 5920  10.928  16.257  14.836 -0.2259  0.0283  0.2766
  505DOPE   GL2 5921  10.713  16.336  14.977 -0.1009  0.1854  0.0654
  505DOPE   C1A 5922  10.643  16.319  14.471  0.1693  0.0340  0.0770
  505DOPE   D2A 5923  10.270  16.281  14.205  0.0331 -0.0363  0.3786
  505DOPE   C3A 5924  10.287  16.580  13.817  0.0195  0.1566 -0.0167
  505DOPE   C4A 5925  10.207  16.551  13.346 -0.0625  0.0090 -0.2173
  505DOPE   C1B 5926  10.286  16.482  14.893 -0.2144 -0.2046  0.4165
  505DOPE   D2B 5927  10.033  16.620  14.552 -0.0062  0.1891 -0.0393
  505DOPE   C3B 5928   9.699  16.597  14.278  0.1721 -0.0369 -0.1315
  505DOPE   C4B 5929   9.263  16.407  14.397  0.3328 -0.1159  0.2324
  506DOPS   CNO 5930   5.566  20.973  15.861 -0.0030 -0.0133 -0.0416
  506DOPS   PO4 5931   5.537  20.655  16.034 -0.0383  0.0413 -0.2219
  506DOPS   GL1 5932   5.375  20.545  15.763  0.3873 -0.1357  0.0914
  506DOPS   GL2 5933   5.355  20.369  15.577 -0.1176 -0.0277 -0.0408
  506DOPS   C1A 5934   5.328  20.835  15.375 -0.1901  0.0421  0.1289
  506DOPS   D2A 5935   5.203  21.138  15.054  0.0082  0.0976 -0.1156
  506DOPS   C3A 5936   5.170  21.217  14.590 -0.1923  0.0450 -0.1495
  506DOPS   C4A 5937   5.018  21.480  14.282 -0.0546 -0.0890  0.0020
  506DOPS   C1B 5938   5.016  20.462  15.217  0.1332  0.2004  0.2646
  506DOPS   D2B 5939   5.110  20.425  14.787 -0.2343 -0.0970  0.0029
  506DOPS   C3B 5940   5.107  20.743  14.466  0.0001 -0.1143 -0.0660
  506DOPS   C4B 5941   4.873  20.997  14.151  0.1525 -0.2112 -0.1039
  507DOPS   CNO 5942   1.804  13.419  16.168 -0.2649  0.1362 -0.0048
  507DOPS   PO4 5943   1.734  13.145  15.884  0.3215 -0.0991 -0.2078
  507DOPS   GL1 5944   1.695  12.957  15.525  0.0819  0.4856  0.0804
  507DOPS   GL2 5945   1.937  12.763  15.556 -0.1542 -0.1496  0.1717
  507DOPS   C1A 5946   1.859  12.904  15.077 -0.0694  0.1518 -0.0494
  507DOPS   D2A 5947   1.810  12.517  14.814 -0.1407  0.1010 -0.0537
  507DOPS   C3A 5948   1.611  12.339  14.440 -0.0174 -0.0202  0.0054
  507DOPS   C4A 5949   1.434  12.040  14.143 -0.3534  0.1862  0.1022
  507DOPS   C1B 5950   2.203  12.591  15.208 -0.0053 -0.1166 -0.0578
  507DOPS   D2B 5951   2.596  12.565  14.939  0.1557 -0.3655  0.3026
  507DOPS   C3B 5952   2.726  12.702  14.513  0.2066  0.0802 -0.3414
  507DOPS   C4B 5953   2.532  13.040  14.309  0.2270  0.1965  0.1283
  508POSM   NC3 5954   1.722  18.573  16.165  0.2911 -0.1590 -0.0806
  508POSM   PO4 5955   1.710  18.868  16.377 -0.2971  0.1842 -0.1173
  508POSM   AM1 5956   1.841  19.068  16.132 -0.3186  0.2090  0.1269
  508POSM   AM2 5957   1.745  19.259  15.952 -0.0954 -0.1307 -0.0247
  508POSM   T1A 5958   2.226  19.268  15.942 -0.2878 -0.1485  0.0583
  508POSM   C2A 5959   2.336  19.698  15.690 -0.4079 -0.3056 -0.2758
  508POSM   C3A 5960   2.381  19.651  15.198 -0.1073 -0.0329  0.1204
  508POSM   C1B 5961   1.812  19.400  15.679 -0.0182  0.2140 -0.1691
  508POSM   D2B 5962   1.872  19.468  15.248 -0.1172  0.0325  0.0511
  508POSM   C3B 5963   1.982  19.913  15.184  0.0285 -0.0615  0.5100
  508POSM   C4B 5964   2.329  20.075  14.883 -0.1859 -0.1542  0.2730
  509POSM   NC3 5965   8.760  16.502  15.946 -0.5354 -0.1655 -0.2253
  509POSM   PO4 5966   8.425  16.419  16.124 -0.2660  0.1293 -0.0963
  509POSM   AM1 5967   8.293  16.629  15.925  0.1849 -0.1642 -0.4320
  509POSM   AM2 5968   8.379  16.661  15.661 -0.0820 -0.1645  0.0959
  509POSM   T1A 5969   7.988  16.950  15.652 -0.0510  0.0717 -0.1198
  509POSM   C2A 5970   7.856  17.302  15.310 -0.1026  0.4380  0.1473
  509POSM   C3A 5971   7.874  17.487  14.850 -0.0020  0.0894  0.1224
  509POSM   C1B 5972   8.303  16.835  15.351  0.0049 -0.1619 -0.2529
  509POSM   D2B 5973   8.252  17.225  15.073 -0.2935  0.1023 -0.0662
  509POSM   C3B 5974   8.451  17.419  14.699  0.0759 -0.0902 -0.0217
  509POSM   C4B 5975   8.480  17.194  14.299  0.0626  0.3643 -0.0937
  510DOPC   NC3 5976   2.579  14.029  16.444 -0.0550 -0.4671  0.1452
  510DOPC   PO4 5977   2.592  13.903  16.058 -0.0197 -0.0074 -0.1111
  510DOPC   GL1 5978   2.759  13.663  15.710 -0.0615 -0.3482  0.0462
  510DOPC   GL2 5979   2.572  13.808  15.517 -0.1314  0.1468 -0.1688
  510DOPC   C1A 5980   2.715  13.311  15.462 -0.0924 -0.1552  0.0516
  510DOPC   D2A 5981   2.388  13.021  15.371  0.1498 -0.0258 -0.3075
  510DOPC   C3A 5982   2.315  12.995  14.922  0.1212  0.0048  0.1197
  510DOPC   C4A 5983   2.139  13.166  14.557 -0.1377 -0.1653 -0.0845
  510DOPC   C1B 5984   2.721  13.643  15.114  0.1290 -0.1082 -0.0707
  510DOPC   D2B 5985   2.524  13.814  14.704 -0.0223 -0.0248  0.1309
  510DOPC   C3B 5986   2.470  13.556  14.314  0.4321 -0.2634  0.0769
  510DOPC   C4B 5987   2.222  13.417  13.975 -0.0155 -0.3187 -0.1309
  511POSM   NC3 5988   5.705  22.786  16.077 -0.0489 -0.1644 -0.2176
  511POSM   PO4 5989   5.477  22.481  15.967  0.1140 -0.0312  0.0447
  511POSM   AM1 5990   5.492  22.277  15.692  0.1442 -0.4317 -0.0254
  511POSM   AM2 5991   5.533  22.123  15.494 -0.1192 -0.0564  0.0251
  511POSM   T1A 5992   5.244  22.452  15.280  0.1859 -0.2701 -0.1742
  511POSM   C2A 5993   5.171  22.597  14.832  0.2144  0.0793  0.2334
  511POSM   C3A 5994   4.834  22.569  14.469  0.0795  0.0688  0.3559
  511POSM   C1B 5995   5.517  22.090  15.145 -0.2733 -0.0179 -0.1686
  511POSM   D2B 5996   5.548  22.263  14.718  0.1602 -0.1401  0.3285
  511POSM   C3B 5997   5.709  22.143  14.316  0.0165  0.0846  0.0925
  511POSM   C4B 5998   5.690  22.132  13.861  0.2862  0.2154 -0.1339
  512DOPC   NC3 5999   6.553  18.349  16.849  0.0981  0.1509  0.1055
  512DOPC   PO4 6000   6.741  18.287  16.509  0.2250 -0.1807  0.0359
  512DOPC   GL1 6001   6.659  18.208  16.132 -0.1990 -0.0033  0.2948
  512DOPC   GL2 6002   6.583  18.439  15.967  0.2276 -0.0934 -0.1986
  512DOPC   C1A 6003   6.400  18.081  15.712 -0.0633 -0.3197 -0.1338
  512DOPC   D2A 6004   6.372  18.192  15.242 -0.4013  0.0858 -0.0726
  512DOPC   C3A 6005   6.155  17.828  15.006  0.0740  0.0792 -0.1495
  512DOPC   C4A 6006   6.184  17.389  14.762  0.0856  0.0866 -0.2442
  512DOPC   C1B 6007   6.847  18.376  15.588 -0.1658 -0.0292 -0.0799
  512DOPC   D2B 6008   6.932  18.088  15.224 -0.1773 -0.1636  0.2937
  512DOPC   C3B 6009   7.303  18.123  14.910 -0.0092  0.0021  0.0375
  512DOPC   C4B 6010   7.736  17.974  14.795 -0.1026  0.3536  0.0095
  513POSM   NC3 6011   7.354  17.289  16.293 -0.2662  0.2601 -0.0016
  513POSM   PO4 6012   6.989  17.368  16.417 -0.3929 -0.2229 -0.0177
  513POSM   AM1 6013   6.869  17.285  16.135 -0.0206  0.0898 -0.1220
  513POSM   AM2 6014   6.630  17.321  15.962  0.4069  0.1414 -0.1045
  513POSM   T1A 6015   6.885  17.235  15.618  0.1477  0.2694  0.1282
  513POSM   C2A 6016   6.863  17.271  15.183 -0.2186 -0.3293 -0.0778
  513POSM   C3A 6017   6.597  17.528  14.986 -0.4124 -0.2078  0.0328
  513POSM   C1B 6018   6.335  17.371  15.856 -0.0273 -0.1340 -0.0315
  513POSM   D2B 6019   6.102  17.608  15.595  0.0508 -0.0478  0.3973
  513POSM   C3B 6020   6.580  17.708  15.429 -0.1576 -0.3583 -0.1861
  513POSM   C4B 6021   6.849  17.883  15.772 -0.1663 -0.0051  0.1576
  514POSM   NC3 6022   8.074  13.083  16.488 -0.0875  0.1593  0.1989
  514POSM   PO4 6023   7.941  12.820  16.205  0.0000 -0.1543 -0.2010
  514POSM   AM1 6024   8.078  12.777  15.918  0.1681  0.1202 -0.1838
  514POSM   AM2 6025   8.070  12.668  15.660 -0.0581  0.1204  0.0114
  514POSM   T1A 6026   8.538  12.754  15.734  0.0696  0.0135  0.2200
  514POSM   C2A 6027   8.828  13.067  15.638 -0.2363 -0.0711 -0.1078
  514POSM   C3A 6028   8.774  13.508  15.520 -0.1124 -0.0475  0.0399
  514POSM   C1B 6029   8.093  12.769  15.327  0.3890  0.0822 -0.0369
  514POSM   D2B 6030   8.193  13.061  14.924  0.1310 -0.1742  0.2379
  514POSM   C3B 6031   8.168  13.308  14.511 -0.0400 -0.0936 -0.2768
  514POSM   C4B 6032   8.149  13.710  14.212  0.3765  0.2092 -0.3612
  515DOPC   NC3 6033   1.626  14.174  15.714 -0.1277  0.0835  0.3913
  515DOPC   PO4 6034   1.780  14.452  15.952 -0.1033  0.1444  0.0988
  515DOPC   GL1 6035   1.814  14.729  15.800 -0.3270 -0.0128  0.1944
  515DOPC   GL2 6036   1.565  14.722  15.592 -0.0126  0.0529 -0.3298
  515DOPC   C1A 6037   2.181  14.974  15.654 -0.1244 -0.0405  0.0071
  515DOPC   D2A 6038   2.587  15.113  15.586 -0.0390 -0.2236  0.1006
  515DOPC   C3A 6039   2.694  15.203  15.128 -0.1654 -0.1382  0.1385
  515DOPC   C4A 6040   2.615  15.255  14.680 -0.3497  0.1244 -0.0270
  515DOPC   C1B 6041   1.725  14.844  15.222 -0.1521 -0.1352 -0.4324
  515DOPC   D2B 6042   1.574  15.048  14.873  0.0352  0.1815 -0.2235
  515DOPC   C3B 6043   1.877  15.273  14.612  0.1167 -0.0923 -0.0691
  515DOPC   C4B 6044   2.217  15.562  14.508 -0.0749  0.1156 -0.1611
  516DOPE   NH3 6045   2.232  13.241  15.877  0.0115 -0.1056 -0.1979
  516DOPE   PO4 6046   2.273  13.555  15.866 -0.0726  0.0064  0.2757
  516DOPE   GL1 6047   2.184  13.537  15.472 -0.0798  0.0190  0.1076
  516DOPE   GL2 6048   1.947  13.339  15.474 -0.0364 -0.6485 -0.1476
  516DOPE   C1A 6049   2.288  13.912  15.133 -0.2480 -0.1325 -0.0258
  516DOPE   D2A 6050   2.320  14.291  14.846  0.0851  0.0793  0.0158
  516DOPE   C3A 6051   2.595  14.263  14.497 -0.0896  0.1640 -0.1484
  516DOPE   C4A 6052   2.657  14.307  14.044 -0.0391  0.1394 -0.1970
  516DOPE   C1B 6053   2.172  13.458  15.023 -0.2202 -0.3211 -0.1738
  516DOPE   D2B 6054   2.061  13.708  14.647 -0.3375 -0.3183  0.1084
  516DOPE   C3B 6055   1.957  14.166  14.556 -0.3078 -0.1495 -0.2258
  516DOPE   C4B 6056   2.024  14.478  14.262 -0.2812  0.1706 -0.1150
  517DOPC   NC3 6057   1.076  15.629  16.367  0.2334 -0.4697 -0.2270
  517DOPC   PO4 6058   1.103  16.008  16.522  0.1447  0.3636 -0.2354
  517DOPC   GL1 6059   1.434  16.069  16.295 -0.0456 -0.2409  0.4205
  517DOPC   GL2 6060   1.513  15.854  16.108  0.2207  0.2097  0.0166
  517DOPC   C1A 6061   1.447  16.402  16.006 -0.4102  0.2696  0.1140
  517DOPC   D2A 6062   1.154  16.422  15.638  0.2141 -0.0261  0.4650
  517DOPC   C3A 6063   1.285  16.059  15.311  0.2062  0.3424  0.0138
  517DOPC   C4A 6064   1.457  15.943  14.929  0.1261 -0.1030 -0.1731
  517DOPC   C1B 6065   1.634  16.026  15.740 -0.0629  0.2195 -0.0251
  517DOPC   D2B 6066   1.781  16.148  15.322 -0.0209 -0.0971  0.1547
  517DOPC   C3B 6067   1.435  16.477  15.187 -0.0340 -0.1367 -0.1371
  517DOPC   C4B 6068   0.957  16.375  15.178 -0.1397  0.0773  0.1595
  518POSM   NC3 6069   9.574  19.457  16.268 -0.1135 -0.0391  0.0110
  518POSM   PO4 6070   9.499  19.678  15.947  0.0331  0.0395  0.1238
  518POSM   AM1 6071   9.469  19.608  15.622  0.0525 -0.2034 -0.2898
  518POSM   AM2 6072   9.291  19.744  15.421 -0.4217 -0.2735  0.0267
  518POSM   T1A 6073   9.584  19.259  15.307 -0.3818  0.0700 -0.0071
  518POSM   C2A 6074   9.720  18.822  15.088  0.0774 -0.1274 -0.2627
  518POSM   C3A 6075  10.094  18.621  14.906  0.4471  0.0719 -0.1525
  518POSM   C1B 6076   9.024  19.563  15.298  0.4179  0.0453  0.1942
  518POSM   D2B 6077   8.736  19.396  14.994  0.0211 -0.1672 -0.2063
  518POSM   C3B 6078   8.885  19.178  14.643 -0.2294 -0.2249  0.0724
  518POSM   C4B 6079   9.256  18.939  14.386 -0.0290  0.0619 -0.1948
  519POSM   NC3 6080   0.674  21.605  16.597 -0.5128 -0.2061 -0.2383
  519POSM   PO4 6081   0.572  21.207  16.510 -0.0551 -0.3310  0.0047
  519POSM   AM1 6082   0.532  21.375  16.234 -0.2471  0.1054 -0.1800
  519POSM   AM2 6083   0.603  21.620  16.055  0.1090  0.1194  0.1711
  519POSM   T1A 6084   0.358  21.343  15.752  0.2054 -0.0845 -0.1003
  519POSM   C2A 6085   0.559  21.436  15.406  0.1663  0.3490  0.0279
  519POSM   C3A 6086   0.873  21.522  15.093  0.3482 -0.1029  0.1979
  519POSM   C1B 6087   0.856  21.626  15.845  0.1512 -0.0527 -0.1595
  519POSM   D2B 6088   1.128  21.856  15.531  0.0577  0.1220  0.0051
  519POSM   C3B 6089   1.644  21.803  15.496  0.1279 -0.2152  0.0797
  519POSM   C4B 6090   2.059  21.624  15.416  0.2155  0.0072 -0.1006
  520POSM   NC3 6091   2.854  17.362  16.552 -0.1781 -0.1465  0.2695
  520POSM   PO4 6092   2.477  17.434  16.395  0.1262 -0.1013  0.2718
  520POSM   AM1 6093   2.624  17.631  16.166  0.1070  0.0963  0.2318
  520POSM   AM2 6094   2.514  17.895  16.040 -0.2523  0.1220 -0.1921
  520POSM   T1A 6095   2.975  17.884  15.872 -0.0187  0.1839 -0.2194
  520POSM   C2A 6096   3.284  17.779  15.526  0.1586  0.0421 -0.1375
  520POSM   C3A 6097   3.432  17.767  15.068 -0.2929  0.0807  0.0225
  520POSM   C1B 6098   2.454  18.127  15.820  0.1069  0.1596  0.0130
  520POSM   D2B 6099   2.739  18.284  15.438 -0.0179 -0.0195 -0.0795
  520POSM   C3B 6100   2.382  18.260  15.102 -0.2065 -0.1922 -0.2176
  520POSM   C4B 6101   2.075  18.365  14.765  0.1389  0.0804  0.3124
  521POSM   NC3 6102   2.711  22.509  16.321  0.1058 -0.5657  0.1578
  521POSM   PO4 6103   3.014  22.758  16.259 -0.4750  0.1041 -0.3596
  521POSM   AM1 6104   2.974  22.972  16.024  0.1783 -0.2499  0.2586
  521POSM   AM2 6105   3.089  23.044  15.732 -0.1727 -0.0499 -0.0971
  521POSM   T1A 6106   2.690  23.262  15.766 -0.1949 -0.1655  0.0370
  521POSM   C2A 6107   2.667  23.361  15.348  0.1353 -0.1317  0.1634
  521POSM   C3A 6108   2.370  23.366  15.006  0.0306  0.1323 -0.1560
  521POSM   C1B 6109   3.075  22.871  15.436 -0.0624  0.1373  0.1476
  521POSM   D2B 6110   3.281  22.780  15.088  0.1204  0.3707  0.0146
  521POSM   C3B 6111   3.508  22.890  14.662 -0.2878 -0.1147  0.0202
  521POSM   C4B 6112   3.689  22.974  14.315  0.0043 -0.0499 -0.0065
  522DOPC   NC3 6113  10.708  19.579  15.105 -0.0654  0.0641  0.2040
  522DOPC   PO4 6114  10.749  19.974  15.104  0.2028 -0.2933 -0.1573
  522DOPC   GL1 6115  10.817  19.820  14.779  0.2178  0.1968  0.4127
  522DOPC   GL2 6116  11.014  19.671  14.702  0.0567 -0.0415 -0.1605
  522DOPC   C1A 6117  10.628  19.454  14.498  0.0795  0.1135 -0.0245
  522DOPC   D2A 6118  10.468  19.111  14.209  0.0038 -0.0618 -0.1009
  522DOPC   C3A 6119  10.418  18.887  13.797  0.0407  0.0573 -0.1624
  522DOPC   C4A 6120  10.384  19.036  13.391  0.1777 -0.3274  0.1186
  522DOPC   C1B 6121  11.056  19.532  14.247 -0.0516  0.1107  0.0829
  522DOPC   D2B 6122  10.856  19.256  13.912  0.0844  0.2475  0.0834
  522DOPC   C3B 6123  11.038  19.113  13.515 -0.1839  0.1065 -0.0820
  522DOPC   C4B 6124  10.913  18.724  13.385  0.0612 -0.2861 -0.3156
  523POSM   NC3 6125  10.428  19.790  15.649  0.2232  0.0434  0.0657
  523POSM   PO4 6126  10.430  19.443  15.495  0.2047  0.1805 -0.2435
  523POSM   AM1 6127  10.331  19.268  15.257 -0.5456  0.0082 -0.2700
  523POSM   AM2 6128  10.081  19.242  15.175  0.2514 -0.3861  0.1843
  523POSM   T1A 6129  10.413  19.058  14.772 -0.1307  0.0203  0.0945
  523POSM   C2A 6130  10.611  18.735  14.562  0.1163  0.0508 -0.0052
  523POSM   C3A 6131  10.494  18.542  14.148  0.0949 -0.1651 -0.2061
  523POSM   C1B 6132   9.830  19.289  14.922 -0.0477 -0.2032 -0.0181
  523POSM   D2B 6133   9.630  19.367  14.520 -0.0955  0.1131  0.0189
  523POSM   C3B 6134   9.819  18.966  14.391 -0.4296  0.0405 -0.1171
  523POSM   C4B 6135  10.053  18.743  14.085 -0.0694 -0.0093 -0.2400
  524DOPS   CNO 6136   4.107  17.390  16.641 -0.0092  0.1753 -0.5135
  524DOPS   PO4 6137   4.424  17.536  16.455 -0.3530  0.0698 -0.1824
  524DOPS   GL1 6138   4.522  17.725  15.991  0.1236 -0.3914 -0.1863
  524DOPS   GL2 6139   4.342  17.516  15.985 -0.1206  0.1326  0.1289
  524DOPS   C1A 6140   4.249  17.907  15.632 -0.0322 -0.1280 -0.2944
  524DOPS   D2A 6141   4.138  17.845  15.173 -0.0460 -0.0383 -0.1841
  524DOPS   C3A 6142   4.195  18.051  14.754 -0.1522  0.2131 -0.3187
  524DOPS   C4A 6143   4.535  17.971  14.421 -0.0948 -0.0036 -0.0076
  524DOPS   C1B 6144   4.208  17.401  15.562  0.1236  0.0211 -0.0380
  524DOPS   D2B 6145   4.282  17.376  15.104 -0.1191  0.0360  0.2565
  524DOPS   C3B 6146   4.021  17.553  14.743 -0.3101  0.0587 -0.0316
  524DOPS   C4B 6147   4.026  17.771  14.333 -0.2786 -0.3428 -0.0572
  525DOPS   CNO 6148   0.851  18.636  16.559 -0.0014 -0.1154 -0.0919
  525DOPS   PO4 6149   0.682  18.840  16.298 -0.2571  0.1499  0.0096
  525DOPS   GL1 6150   0.604  18.839  15.931  0.3876 -0.4982 -0.1311
  525DOPS   GL2 6151   0.628  18.598  15.789  0.3280 -0.2311 -0.1091
  525DOPS   C1A 6152   0.708  18.971  15.513 -0.3018 -0.0701  0.1442
  525DOPS   D2A 6153   0.798  19.097  15.077  0.2216 -0.0078  0.5070
  525DOPS   C3A 6154   1.205  18.950  14.911 -0.2671 -0.1012 -0.1626
  525DOPS   C4A 6155   1.555  18.705  14.694 -0.0865 -0.2997  0.2188
  525DOPS   C1B 6156   0.547  18.401  15.398  0.0864  0.0223 -0.2534
  525DOPS   D2B 6157   0.494  18.485  14.930 -0.0418  0.1002  0.1675
  525DOPS   C3B 6158   0.774  18.832  14.664 -0.2521  0.0482  0.1202
  525DOPS   C4B 6159   1.114  18.954  14.337 -0.0018  0.2151 -0.2441
  526DOPS   CNO 6160   5.399  19.780  16.533 -0.0327  0.1301  0.2852
  526DOPS   PO4 6161   5.646  19.675  16.296  0.2903 -0.0598  0.0745
  526DOPS   GL1 6162   5.485  19.462  16.063 -0.1462  0.1588 -0.1215
  526DOPS   GL2 6163   5.727  19.375  15.875  0.2642 -0.0300 -0.0965
  526DOPS   C1A 6164   5.231  19.384  15.644 -0.0142  0.1247  0.0687
  526DOPS   D2A 6165   5.097  19.506  15.223 -0.0128 -0.0432  0.2174
  526DOPS   C3A 6166   5.284  19.613  14.815 -0.4739 -0.2918  0.2205
  526DOPS   C4A 6167   5.535  19.864  14.547 -0.1088  0.2926  0.0091
  526DOPS   C1B 6168   5.653  19.395  15.481 -0.0807 -0.0724 -0.0910
  526DOPS   D2B 6169   5.661  19.635  15.134 -0.1891 -0.2408  0.2739
  526DOPS   C3B 6170   5.877  19.597  14.714  0.1324  0.0815  0.1954
  526DOPS   C4B 6171   5.721  19.438  14.284  0.1905 -0.0169 -0.0714
  527POSM   NC3 6172   8.011  14.558  16.547  0.1462 -0.0751  0.1584
  527POSM   PO4 6173   7.703  14.858  16.545  0.0640  0.0319 -0.0950
  527POSM   AM1 6174   7.682  14.773  16.246  0.2696  0.0117 -0.0753
  527POSM   AM2 6175   7.821  14.616  16.043 -0.1267  0.2657 -0.1426
  527POSM   T1A 6176   7.408  14.920  15.832  0.0446  0.1184 -0.1963
  527POSM   C2A 6177   7.401  14.941  15.396  0.0734  0.3365  0.3219
  527POSM   C3A 6178   7.075  14.950  15.105  0.0341  0.0116  0.0989
  527POSM   C1B 6179   7.868  14.687  15.683  0.1787 -0.0266  0.0930
  527POSM   D2B 6180   7.920  14.956  15.353 -0.0459 -0.1607 -0.0256
  527POSM   C3B 6181   7.735  14.994  14.936 -0.2337  0.3771 -0.1504
  527POSM   C4B 6182   7.469  15.039  14.558 -0.1218 -0.0037  0.0715
  528DOPE   NH3 6183   8.271  23.770  16.095  0.1557 -0.2211 -0.2401
  528DOPE   PO4 6184   8.528  23.566  16.103  0.0504 -0.0725 -0.2637
  528DOPE   GL1 6185   8.513  23.479  15.766 -0.0336 -0.1223  0.1953
  528DOPE   GL2 6186   8.360  23.250  15.758 -0.1580 -0.3453  0.3569
  528DOPE   C1A 6187   8.586  23.527  15.284  0.1260 -0.1889 -0.0191
  528DOPE   D2A 6188   8.458  23.426  14.889 -0.1152 -0.0039 -0.1424
  528DOPE   C3A 6189   8.155  23.215  14.611  0.2548  0.0160 -0.0358
  528DOPE   C4A 6190   7.887  23.185  14.303 -0.0066 -0.0500  0.1522
  528DOPE   C1B 6191   8.024  23.036  15.606  0.0462 -0.1207 -0.4752
  528DOPE   D2B 6192   7.853  22.732  15.274  0.0594 -0.0390 -0.1009
  528DOPE   C3B 6193   8.051  22.778  14.822 -0.3781  0.0446  0.0134
  528DOPE   C4B 6194   8.129  22.599  14.408 -0.1261  0.1272  0.2651
  529POSM   NC3 6195   4.153  12.561  16.530 -0.0209  0.3389  0.0502
  529POSM   PO4 6196   4.289  12.219  16.372  0.2266 -0.1155  0.1100
  529POSM   AM1 6197   4.324  12.231  16.048  0.1545  0.0825 -0.2277
  529POSM   AM2 6198   4.520  12.303  15.885  0.1091  0.0049  0.1428
  529POSM   T1A 6199   4.084  12.088  15.642 -0.6022 -0.2213  0.2705
  529POSM   C2A 6200   4.107  11.649  15.484 -0.1007  0.0906 -0.0907
  529POSM   C3A 6201   4.220  11.424  15.077 -0.3380  0.0765  0.0319
  529POSM   C1B 6202   4.721  12.371  15.609  0.2658  0.1347 -0.2067
  529POSM   D2B 6203   4.812  12.625  15.191  0.0650  0.2713 -0.3126
  529POSM   C3B 6204   4.578  12.722  14.871  0.0394  0.1494 -0.2041
  529POSM   C4B 6205   4.440  12.711  14.428 -0.1965 -0.2095  0.1354
  530DOPS   CNO 6206   6.943  19.542  16.068  0.1518  0.0298  0.0043
  530DOPS   PO4 6207   7.006  19.304  16.376 -0.3510  0.1449  0.2691
  530DOPS   GL1 6208   6.931  19.099  16.011 -0.2536  0.0725  0.3758
  530DOPS   GL2 6209   6.679  19.207  15.878  0.2280  0.0634 -0.2733
  530DOPS   C1A 6210   7.282  18.834  15.854  0.0293  0.4341  0.1186
  530DOPS   D2A 6211   7.597  18.926  15.552 -0.0924  0.2720  0.0492
  530DOPS   C3A 6212   7.536  18.987  15.133  0.3078  0.1234 -0.0283
  530DOPS   C4A 6213   7.477  19.119  14.685  0.0360  0.2790  0.1710
  530DOPS   C1B 6214   6.765  18.857  15.630 -0.1289 -0.0621  0.0271
  530DOPS   D2B 6215   6.673  18.707  15.163 -0.0226 -0.1202 -0.1457
  530DOPS   C3B 6216   6.696  18.364  14.831 -0.3657  0.2277  0.3562
  530DOPS   C4B 6217   6.583  18.217  14.400 -0.1483 -0.3599 -0.0079
  531POSM   NC3 6218  10.152  16.190  15.429 -0.0315  0.2186  0.0263
  531POSM   PO4 6219   9.784  16.343  15.515 -0.4068  0.3120  0.3964
  531POSM   AM1 6220   9.714  16.447  15.216  0.0821 -0.0340  0.3010
  531POSM   AM2 6221   9.671  16.313  15.000  0.0395 -0.1816  0.0998
  531POSM   T1A 6222   9.618  16.833  14.904  0.0203  0.0526 -0.1768
  531POSM   C2A 6223   9.391  16.898  14.550 -0.1166  0.0857 -0.3507
  531POSM   C3A 6224   9.119  16.959  14.265 -0.2331  0.1791 -0.0441
  531POSM   C1B 6225   9.685  16.278  14.671  0.0297  0.0351  0.1129
  531POSM   D2B 6226   9.767  16.088  14.241  0.1266  0.3592  0.2187
  531POSM   C3B 6227   9.492  16.227  13.986  0.0465  0.1222 -0.1570
  531POSM   C4B 6228   9.573  16.437  13.577  0.3217  0.0372 -0.0293
  532POSM   NC3 6229   4.471  14.992  16.377  0.0195  0.1997 -0.1918
  532POSM   PO4 6230   4.822  14.855  16.398 -0.1055 -0.0550 -0.0799
  532POSM   AM1 6231   4.788  14.801  16.034  0.0024  0.1391  0.1153
  532POSM   AM2 6232   4.488  14.695  15.943 -0.0670 -0.0181 -0.1502
  532POSM   T1A 6233   5.043  14.755  15.638 -0.1520  0.0791  0.0713
  532POSM   C2A 6234   5.318  14.575  15.285  0.2732 -0.0750 -0.3105
  532POSM   C3A 6235   5.204  14.424  14.917 -0.0745  0.0146  0.2436
  532POSM   C1B 6236   4.511  14.765  15.591 -0.1946 -0.1103 -0.6195
  532POSM   D2B 6237   4.702  14.882  15.209  0.2540 -0.1087  0.3703
  532POSM   C3B 6238   4.567  15.276  15.102 -0.2824 -0.1832 -0.2108
  532POSM   C4B 6239   4.143  15.420  14.949 -0.4978  0.3740  0.0078
  533POSM   NC3 6240   2.496  19.612  16.252 -0.2910  0.2390  0.2822
  533POSM   PO4 6241   2.210  19.840  16.445 -0.0405 -0.1473 -0.2016
  533POSM   AM1 6242   2.209  20.023  16.174 -0.3917 -0.0408 -0.0705
  533POSM   AM2 6243   2.485  20.089  16.077 -0.0820  0.0467 -0.0760
  533POSM   T1A 6244   2.001  20.092  15.738  0.1014 -0.2468 -0.0858
  533POSM   C2A 6245   1.707  20.279  15.453  0.0663 -0.0481 -0.3737
  533POSM   C3A 6246   1.496  20.238  15.096  0.1812 -0.1903  0.0998
  533POSM   C1B 6247   2.514  20.215  15.720  0.0907  0.1147 -0.0294
  533POSM   D2B 6248   2.598  20.276  15.258  0.3204 -0.3858  0.1389
  533POSM   C3B 6249   3.051  20.336  15.069  0.1833  0.1106 -0.0516
  533POSM   C4B 6250   3.387  20.623  15.186  0.0692 -0.3429 -0.3292
  534DOPE   NH3 6251  11.498  20.594  15.263 -0.0980  0.3140 -0.1256
  534DOPE   PO4 6252  11.407  20.625  14.981 -0.1506 -0.2497  0.2751
  534DOPE   GL1 6253  11.332  20.559  14.632 -0.0910 -0.5391 -0.1907
  534DOPE   GL2 6254  11.237  20.208  14.727  0.0443  0.0912 -0.1208
  534DOPE   C1A 6255  11.059  20.621  14.274 -0.2859 -0.1205  0.0785
  534DOPE   D2A 6256  10.830  20.435  13.900 -0.4605 -0.2091 -0.1646
  534DOPE   C3A 6257  10.768  20.832  13.695  0.1364  0.2451  0.4002
  534DOPE   C4A 6258  10.566  21.046  13.374  0.1944 -0.1051 -0.3215
  534DOPE   C1B 6259  11.093  20.046  14.317 -0.0681  0.3618  0.2481
  534DOPE   D2B 6260  10.962  19.924  13.880 -0.1525  0.1307  0.0676
  534DOPE   C3B 6261  10.957  19.671  13.541 -0.4644  0.1427  0.0220
  534DOPE   C4B 6262  11.320  19.544  13.291  0.3693  0.1016 -0.2335
  535DOPE   NH3 6263   1.239  19.484  16.133 -0.1682 -0.0856 -0.3959
  535DOPE   PO4 6264   1.010  19.504  15.967  0.2522 -0.3138  0.1175
  535DOPE   GL1 6265   1.085  19.293  15.565  0.2676 -0.0182  0.4715
  535DOPE   GL2 6266   1.337  19.324  15.566 -0.0155 -0.0008 -0.0504
  535DOPE   C1A 6267   1.162  19.427  15.104  0.1328 -0.2041  0.0296
  535DOPE   D2A 6268   1.380  19.761  14.859  0.0038  0.2394 -0.0906
  535DOPE   C3A 6269   1.422  20.076  14.565 -0.0794  0.1972 -0.0493
  535DOPE   C4A 6270   1.195  20.324  14.235  0.4014  0.4992 -0.2082
  535DOPE   C1B 6271   1.203  18.885  15.403 -0.0832 -0.1688  0.1111
  535DOPE   D2B 6272   1.010  18.556  15.232 -0.0985  0.0899 -0.2718
  535DOPE   C3B 6273   1.043  18.394  14.797  0.3578 -0.1144  0.1056
  535DOPE   C4B 6274   1.162  18.489  14.366  0.2511 -0.0391 -0.2699
  536DOPS   CNO 6275  11.142  12.580  15.471 -0.0614 -0.1387 -0.1139
  536DOPS   PO4 6276  11.036  12.712  15.186 -0.0197  0.0063  0.1497
  536DOPS   GL1 6277  10.920  12.614  14.816  0.3087 -0.1713  0.0037
  536DOPS   GL2 6278  10.699  12.842  14.803 -0.1582  0.1316  0.1051
  536DOPS   C1A 6279  10.821  12.180  14.684  0.0079  0.0764  0.1564
  536DOPS   D2A 6280  10.497  11.898  14.668  0.2964  0.0369 -0.0051
  536DOPS   C3A 6281  10.107  11.701  14.974  0.0467  0.3083  0.3071
  536DOPS   C4A 6282   9.951  11.419  15.275 -0.0725 -0.1601 -0.3766
  536DOPS   C1B 6283  10.734  12.580  14.390 -0.0630  0.1721  0.2022
  536DOPS   D2B 6284  10.446  12.565  14.076 -0.2315 -0.2418  0.1551
  536DOPS   C3B 6285  10.597  12.215  13.800  0.0805 -0.0464  0.3833
  536DOPS   C4B 6286  10.968  11.935  13.722 -0.0045  0.0419 -0.2057
  537DOPS   CNO 6287   0.623  16.280  15.899 -0.1159  0.2023  0.0550
  537DOPS   PO4 6288   0.608  16.012  15.652  0.3437 -0.0247  0.2046
  537DOPS   GL1 6289   0.555  16.198  15.372  0.2024 -0.2955 -0.2654
  537DOPS   GL2 6290   0.295  16.199  15.345  0.1498 -0.0445 -0.1043
  537DOPS   C1A 6291   0.524  16.120  14.919  0.0538 -0.0795  0.0003
  537DOPS   D2A 6292   0.624  15.829  14.559 -0.1712  0.1794 -0.1198
  537DOPS   C3A 6293   0.574  16.187  14.289 -0.1901 -0.0215 -0.0656
  537DOPS   C4A 6294   0.459  16.514  13.958  0.2901  0.2391  0.0766
  537DOPS   C1B 6295   0.062  16.351  14.963  0.1735  0.1083  0.4196
  537DOPS   D2B 6296  -0.099  16.355  14.520  0.1730 -0.1127  0.3130
  537DOPS   C3B 6297   0.294  16.621  14.441  0.0719 -0.1451  0.0610
  537DOPS   C4B 6298   0.355  17.072  14.366 -0.2760  0.1420  0.3690
  538DOPE   NH3 6299   4.262  21.165  16.013 -0.1151  0.0852  0.0408
  538DOPE   PO4 6300   4.291  21.471  16.113 -0.0962  0.1086 -0.0762
  538DOPE   GL1 6301   4.154  21.430  15.664  0.4133 -0.1759  0.1090
  538DOPE   GL2 6302   4.360  21.255  15.557 -0.0313  0.1119 -0.0031
  538DOPE   C1A 6303   3.919  21.213  15.383  0.1289 -0.2278 -0.3721
  538DOPE   D2A 6304   3.806  21.015  15.014 -0.2742 -0.2286  0.0331
  538DOPE   C3A 6305   3.384  20.998  14.842  0.0139 -0.1189  0.1346
  538DOPE   C4A 6306   3.162  20.662  14.546 -0.0981  0.4467  0.2004
  538DOPE   C1B 6307   4.349  20.912  15.239 -0.2589 -0.1467 -0.1553
  538DOPE   D2B 6308   4.245  20.771  14.912 -0.0759 -0.3091 -0.4154
  538DOPE   C3B 6309   4.063  21.055  14.571  0.1998 -0.2333 -0.0536
  538DOPE   C4B 6310   3.935  21.316  14.197 -0.0666 -0.0307 -0.1513
  539DOPC   NC3 6311   4.734  21.457  15.896 -0.1626 -0.1422  0.3254
  539DOPC   PO4 6312   4.784  21.804  16.054  0.0449 -0.0260 -0.1300
  539DOPC   GL1 6313   4.882  21.868  15.628  0.6020 -0.2012 -0.3163
  539DOPC   GL2 6314   4.825  22.159  15.522  0.1688 -0.0607  0.1247
  539DOPC   C1A 6315   4.598  21.783  15.255  0.2569 -0.0123  0.3770
  539DOPC   D2A 6316   4.221  21.891  14.960 -0.2683 -0.0138 -0.1333
  539DOPC   C3A 6317   4.006  22.311  14.840 -0.2399  0.4343 -0.0700
  539DOPC   C4A 6318   3.816  22.622  15.065  0.0575 -0.2249 -0.2249
  539DOPC   C1B 6319   4.902  22.173  15.029  0.0736  0.0244 -0.0840
  539DOPC   D2B 6320   4.990  22.100  14.671  0.0291  0.3713 -0.1572
  539DOPC   C3B 6321   5.315  21.800  14.513 -0.0130 -0.1701  0.0352
  539DOPC   C4B 6322   5.561  21.464  14.307  0.0766 -0.3330  0.0393
  540DOPE   NH3 6323   5.747  20.147  16.464 -0.2151 -0.1549 -0.1859
  540DOPE   PO4 6324   5.918  20.429  16.306 -0.3353  0.1269 -0.2025
  540DOPE   GL1 6325   5.847  20.292  15.974  0.3525 -0.4303 -0.0420
  540DOPE   GL2 6326   5.955  20.584  15.772 -0.2482  0.1294  0.0212
  540DOPE   C1A 6327   6.159  20.079  15.733 -0.1155  0.1490 -0.0571
  540DOPE   D2A 6328   6.586  20.003  15.584 -0.0573  0.1633 -0.1157
  540DOPE   C3A 6329   6.717  20.370  15.400 -0.0945  0.1643 -0.0876
  540DOPE   C4A 6330   6.839  20.509  14.940 -0.1050  0.5138  0.0546
  540DOPE   C1B 6331   6.164  20.421  15.315 -0.1370 -0.2609 -0.1737
  540DOPE   D2B 6332   6.447  20.277  15.016  0.1817 -0.1479 -0.2312
  540DOPE   C3B 6333   6.373  20.206  14.587  0.2056  0.0053  0.1398
  540DOPE   C4B 6334   5.988  20.054  14.398  0.0702  0.3866  0.1298
  541DOPC   NC3 6335  34.423  14.553  16.092  0.0947  0.1179 -0.0450
  541DOPC   PO4 6336  34.071  14.676  16.152 -0.1074 -0.0669  0.2356
  541DOPC   GL1 6337  34.236  14.816  15.778 -0.1697 -0.0080 -0.4099
  541DOPC   GL2 6338  34.394  14.955  15.784 -0.1349  0.0962  0.1026
  541DOPC   C1A 6339  34.264  14.732  15.333 -0.1565 -0.0163 -0.1959
  541DOPC   D2A 6340  34.116  14.642  14.862  0.3458  0.4091  0.1494
  541DOPC   C3A 6341  34.162  14.229  14.642  0.1147 -0.1867  0.2254
  541DOPC   C4A 6342  34.414  14.300  14.322  0.3425  0.0398 -0.2171
  541DOPC   C1B 6343  34.700  15.064  15.412  0.1770  0.0902 -0.2590
  541DOPC   D2B 6344  34.973  15.221  15.046 -0.1817 -0.0340 -0.0467
  541DOPC   C3B 6345  34.821  15.552  14.737 -0.3721  0.0769  0.2305
  541DOPC   C4B 6346  34.577  15.737  14.367  0.1607  0.1932 -0.0005
  542DOPE   NH3 6347   9.298  16.187  15.443 -0.0138 -0.2511  0.3862
  542DOPE   PO4 6348   9.307  16.053  15.178 -0.1217  0.1310  0.1640
  542DOPE   GL1 6349   9.129  15.842  14.902 -0.0431 -0.1366  0.0146
  542DOPE   GL2 6350   9.033  16.040  14.731  0.0549  0.2007  0.3838
  542DOPE   C1A 6351   8.787  15.604  14.684 -0.2711 -0.0458 -0.1764
  542DOPE   D2A 6352   8.621  15.514  14.222  0.0321  0.1236  0.0195
  542DOPE   C3A 6353   8.439  15.236  13.901 -0.1398 -0.0196 -0.2658
  542DOPE   C4A 6354   8.524  14.791  13.818 -0.0717 -0.0782  0.2169
  542DOPE   C1B 6355   8.855  16.142  14.274 -0.0333 -0.0595  0.0099
  542DOPE   D2B 6356   8.810  16.387  13.840 -0.4485  0.1625  0.0398
  542DOPE   C3B 6357   9.079  16.246  13.456  0.2932 -0.0649 -0.1797
  542DOPE   C4B 6358   9.303  16.132  13.057 -0.0367  0.1135  0.0308
  543DOPE   NH3 6359   9.096  20.139  16.062 -0.1510  0.2312  0.0478
  543DOPE   PO4 6360   9.108  20.042  15.782  0.3004  0.0686 -0.0379
  543DOPE   GL1 6361   9.246  20.214  15.451 -0.0150  0.0840 -0.2293
  543DOPE   GL2 6362   9.583  20.124  15.417 -0.1204 -0.3097  0.0335
  543DOPE   C1A 6363   9.323  20.219  15.010 -0.0484  0.1167 -0.1106
  543DOPE   D2A 6364   9.171  20.402  14.586  0.0970  0.2219  0.2286
  543DOPE   C3A 6365   9.148  20.179  14.162 -0.0946 -0.2457  0.0967
  543DOPE   C4A 6366   9.289  20.247  13.706  0.0428  0.1705 -0.3005
  543DOPE   C1B 6367   9.677  19.766  15.092 -0.0756  0.2787  0.0097
  543DOPE   D2B 6368   9.868  19.841  14.705 -0.1627 -0.2750 -0.1020
  543DOPE   C3B 6369   9.484  19.930  14.559 -0.3785 -0.0999  0.1783
  543DOPE   C4B 6370   9.246  19.698  14.846  0.2243  0.0057  0.2414
  544DOPC   NC3 6371   1.858  11.354  15.869 -0.0938  0.1097  0.1495
  544DOPC   PO4 6372   1.613  11.592  16.048 -0.0725 -0.0777 -0.0146
  544DOPC   GL1 6373   1.865  11.814  15.752  0.0524 -0.1564 -0.0336
  544DOPC   GL2 6374   1.656  11.795  15.520  0.2588 -0.0155 -0.5535
  544DOPC   C1A 6375   2.109  11.587  15.444 -0.0763  0.1313 -0.1201
  544DOPC   D2A 6376   2.415  11.727  15.128 -0.1654  0.0880 -0.2792
  544DOPC   C3A 6377   2.581  12.047  14.822 -0.1736 -0.2877 -0.3453
  544DOPC   C4A 6378   2.744  12.173  14.407 -0.1868 -0.0546  0.1494
  544DOPC   C1B 6379   1.621  11.352  15.377 -0.0391 -0.2663 -0.1989
  544DOPC   D2B 6380   1.422  11.039  15.133 -0.1363 -0.2306  0.0395
  544DOPC   C3B 6381   1.600  11.250  14.714 -0.0340 -0.0988  0.2779
  544DOPC   C4B 6382   2.022  11.396  14.489  0.0709 -0.1016  0.1830
  545DOPC   NC3 6383  10.682  15.901  14.752 -0.1773  0.3938  0.1093
  545DOPC   PO4 6384  10.547  15.563  14.948  0.0196 -0.3665 -0.0474
  545DOPC   GL1 6385  10.407  15.375  14.648 -0.0090  0.2087 -0.0396
  545DOPC   GL2 6386  10.144  15.396  14.666  0.2253  0.1209 -0.1625
  545DOPC   C1A 6387  10.701  15.225  14.313 -0.0395 -0.1418  0.3745
  545DOPC   D2A 6388  10.756  15.121  13.867 -0.0533  0.0958  0.1494
  545DOPC   C3A 6389  10.454  14.905  13.622  0.0685  0.0127 -0.0143
  545DOPC   C4A 6390  10.249  14.839  13.198 -0.1580 -0.1184  0.3919
  545DOPC   C1B 6391   9.818  15.533  14.306  0.3241  0.3047  0.3099
  545DOPC   D2B 6392   9.582  15.739  13.926  0.0943  0.0256 -0.2879
  545DOPC   C3B 6393   9.569  15.954  13.488  0.0263  0.0660  0.0309
  545DOPC   C4B 6394   9.810  16.129  13.148  0.1109 -0.2303 -0.3438
  546DOPE   NH3 6395   7.091  13.961  16.540 -0.0136  0.0390  0.0938
  546DOPE   PO4 6396   7.018  14.168  16.269 -0.1620 -0.1700 -0.0258
  546DOPE   GL1 6397   7.032  14.139  15.888  0.1818  0.3646 -0.0136
  546DOPE   GL2 6398   6.984  14.394  15.783  0.2235 -0.1092  0.0639
  546DOPE   C1A 6399   6.861  13.969  15.447 -0.0979 -0.2127  0.2540
  546DOPE   D2A 6400   6.468  13.765  15.326 -0.0618 -0.2628  0.2314
  546DOPE   C3A 6401   6.423  13.582  14.892 -0.0633 -0.0571 -0.2716
  546DOPE   C4A 6402   6.629  13.354  14.507  0.0503  0.3230  0.2341
  546DOPE   C1B 6403   7.389  14.502  15.649  0.0973  0.1809  0.1188
  546DOPE   D2B 6404   7.680  14.414  15.298  0.3164  0.2523 -0.1327
  546DOPE   C3B 6405   7.555  14.502  14.855  0.2184 -0.1525 -0.5138
  546DOPE   C4B 6406   7.128  14.630  14.731 -0.2442 -0.1476 -0.1451
  547DOPE   NH3 6407  11.348  18.079  15.324 -0.3149  0.2169 -0.2663
  547DOPE   PO4 6408  11.171  18.278  15.143  0.1474 -0.2939  0.2164
  547DOPE   GL1 6409  11.267  18.253  14.751  0.0787  0.0578 -0.2290
  547DOPE   GL2 6410  11.223  18.533  14.687 -0.0271  0.1451  0.2339
  547DOPE   C1A 6411  10.893  18.285  14.424 -0.2060 -0.0803 -0.1237
  547DOPE   D2A 6412  10.618  18.070  14.138 -0.0628 -0.0485  0.3367
  547DOPE   C3A 6413  10.269  17.835  14.294 -0.0354  0.0314  0.0881
  547DOPE   C4A 6414   9.930  17.491  14.353 -0.1951  0.1132 -0.2474
  547DOPE   C1B 6415  11.184  18.693  14.252 -0.3246  0.1500  0.0608
  547DOPE   D2B 6416  10.890  18.745  13.905 -0.1152  0.1274 -0.2543
  547DOPE   C3B 6417  10.656  18.387  13.680 -0.2279 -0.1690 -0.1274
  547DOPE   C4B 6418  10.566  18.077  13.400  0.0180  0.2829 -0.0339
  548DOPS   CNO 6419   2.292  16.855  16.176 -0.2293 -0.1502  0.3144
  548DOPS   PO4 6420   2.166  16.667  16.489  0.2023  0.0657  0.2711
  548DOPS   GL1 6421   2.094  16.427  16.047  0.0077  0.4484 -0.2507
  548DOPS   GL2 6422   2.326  16.218  16.051  0.0557  0.0018 -0.0077
  548DOPS   C1A 6423   2.123  16.536  15.586 -0.0555 -0.1303 -0.0443
  548DOPS   D2A 6424   1.958  16.730  15.248 -0.0626  0.2968  0.1998
  548DOPS   C3A 6425   1.573  16.908  15.042  0.3301 -0.4403 -0.1348
  548DOPS   C4A 6426   1.426  16.927  14.653 -0.4558  0.2398 -0.0392
  548DOPS   C1B 6427   2.320  16.078  15.585  0.0694 -0.2490  0.1320
  548DOPS   D2B 6428   2.252  16.288  15.190 -0.0351 -0.0990  0.1541
  548DOPS   C3B 6429   1.892  16.349  14.937  0.0237  0.0765 -0.0418
  548DOPS   C4B 6430   1.545  16.424  14.710 -0.1579 -0.0905 -0.0258
  549POSM   NC3 6431   4.583  22.278  15.931  0.2379  0.0491  0.0475
  549POSM   PO4 6432   4.863  22.427  16.131  0.0491 -0.1588 -0.0652
  549POSM   AM1 6433   4.938  22.577  15.857 -0.1148  0.3251  0.2051
  549POSM   AM2 6434   5.106  22.777  15.729 -0.0693 -0.0876 -0.2375
  549POSM   T1A 6435   4.769  22.619  15.405 -0.5306 -0.0070  0.1428
  549POSM   C2A 6436   4.774  22.861  15.009  0.0044 -0.4136  0.1341
  549POSM   C3A 6437   4.709  23.087  14.590  0.1062  0.0365 -0.0248
  549POSM   C1B 6438   5.268  22.924  15.477 -0.1288 -0.0629  0.1098
  549POSM   D2B 6439   5.459  22.964  15.045  0.2776  0.3679 -0.1962
  549POSM   C3B 6440   5.207  23.099  14.677  0.3267  0.1585  0.2717
  549POSM   C4B 6441   5.117  23.031  14.206  0.3332  0.1701 -0.0141
  550DOPC   NC3 6442   0.313  17.510  15.932  0.1165 -0.0654 -0.1962
  550DOPC   PO4 6443  -0.055  17.381  15.952 -0.1264  0.1246 -0.2894
  550DOPC   GL1 6444  -0.010  17.118  15.651 -0.5008 -0.0945 -0.0328
  550DOPC   GL2 6445  -0.294  17.144  15.589  0.0594 -0.0976  0.0579
  550DOPC   C1A 6446   0.243  17.396  15.389  0.5849  0.4347  0.1257
  550DOPC   D2A 6447   0.523  17.752  15.466  0.2695  0.0322  0.2883
  550DOPC   C3A 6448   0.884  18.004  15.571  0.2461  0.2694 -0.2285
  550DOPC   C4A 6449   1.091  18.377  15.701  0.0396  0.3524  0.0791
  550DOPC   C1B 6450  -0.272  17.479  15.317  0.1106  0.0039 -0.0829
  550DOPC   D2B 6451  -0.143  17.733  14.927 -0.1178 -0.0456 -0.1284
  550DOPC   C3B 6452   0.316  17.753  15.026 -0.2909  0.2001  0.0290
  550DOPC   C4B 6453   0.682  18.035  15.128  0.0621  0.0259  0.1549
  551DOPC   NC3 6454   3.793  15.246  16.246  0.1057  0.2368  0.2850
  551DOPC   PO4 6455   4.185  15.359  16.243 -0.0408 -0.0902 -0.3193
  551DOPC   GL1 6456   4.150  15.466  15.876  0.0007 -0.1895  0.3607
  551DOPC   GL2 6457   3.868  15.511  15.855 -0.2535  0.0620 -0.0915
  551DOPC   C1A 6458   4.153  15.594  15.419  0.0428 -0.1219 -0.0841
  551DOPC   D2A 6459   4.347  15.864  15.093  0.2342 -0.1281  0.0766
  551DOPC   C3A 6460   4.448  15.724  14.664 -0.1834  0.1015 -0.1454
  551DOPC   C4A 6461   4.381  15.669  14.251 -0.2725 -0.0197  0.0037
  551DOPC   C1B 6462   3.690  15.395  15.439 -0.1022 -0.2543 -0.1108
  551DOPC   D2B 6463   3.671  15.060  15.133  0.0661 -0.1108 -0.1182
  551DOPC   C3B 6464   3.663  15.031  14.756  0.0663  0.2881  0.2642
  551DOPC   C4B 6465   3.580  15.256  14.403 -0.0674 -0.0812 -0.0432
  552DOPS   CNO 6466   2.256  12.699  15.978 -0.2817 -0.0446  0.0297
  552DOPS   PO4 6467   2.598  12.873  15.983 -0.5083 -0.0341  0.3380
  552DOPS   GL1 6468   2.572  12.668  15.578  0.3580 -0.2644 -0.0757
  552DOPS   GL2 6469   2.861  12.804  15.580 -0.1341 -0.0178  0.3138
  552DOPS   C1A 6470   2.605  12.235  15.336 -0.0320 -0.0236 -0.0069
  552DOPS   D2A 6471   2.889  11.899  15.172  0.1866 -0.0013  0.0858
  552DOPS   C3A 6472   3.369  11.946  15.284  0.2669  0.0443  0.0600
  552DOPS   C4A 6473   3.498  12.288  15.531  0.0230  0.1801  0.1069
  552DOPS   C1B 6474   2.874  12.978  15.145  0.2790 -0.2584  0.0129
  552DOPS   D2B 6475   2.684  13.249  14.837  0.3298 -0.1245 -0.0425
  552DOPS   C3B 6476   2.921  13.312  14.449  0.0212  0.0848  0.1283
  552DOPS   C4B 6477   3.154  13.432  14.062 -0.0149 -0.1079  0.0331
  553DOPC   NC3 6478  10.141  23.329  15.973  0.2940 -0.0946 -0.1319
  553DOPC   PO4 6479  10.374  23.635  16.006 -0.2904  0.2156 -0.0656
  553DOPC   GL1 6480  10.424  23.550  15.706  0.0681  0.0633  0.0379
  553DOPC   GL2 6481  10.161  23.501  15.512 -0.0124  0.0426 -0.1525
  553DOPC   C1A 6482  10.521  23.735  15.290 -0.1530  0.1655 -0.0288
  553DOPC   D2A 6483  10.445  23.670  14.854  0.1630 -0.0400  0.1185
  553DOPC   C3A 6484  10.783  23.531  14.504 -0.0680  0.1301  0.1948
  553DOPC   C4A 6485  10.870  23.212  14.205  0.2555 -0.1271 -0.0542
  553DOPC   C1B 6486  10.028  23.680  15.146 -0.0393  0.0530 -0.0986
  553DOPC   D2B 6487   9.924  23.741  14.700 -0.0985 -0.1402  0.3535
  553DOPC   C3B 6488  10.206  23.398  14.494  0.0116 -0.0671  0.2512
  553DOPC   C4B 6489  10.296  22.974  14.213  0.2212 -0.0377 -0.1910
  554POSM   NC3 6490   8.701  16.026  16.001  0.2481  0.0445 -0.3012
  554POSM   PO4 6491   9.022  16.010  15.811 -0.1347 -0.0017  0.2555
  554POSM   AM1 6492   8.851  16.109  15.535  0.1596 -0.1042  0.4689
  554POSM   AM2 6493   8.824  16.327  15.349  0.0156 -0.0743  0.2103
  554POSM   T1A 6494   8.625  15.894  15.123  0.1182 -0.0756 -0.0809
  554POSM   C2A 6495   8.478  15.454  15.079  0.2574  0.0486  0.5661
  554POSM   C3A 6496   8.205  15.144  14.841  0.1877 -0.0136 -0.1608
  554POSM   C1B 6497   8.700  16.609  15.176  0.3089  0.0403 -0.0236
  554POSM   D2B 6498   8.743  17.035  15.053  0.3431  0.1585 -0.2211
  554POSM   C3B 6499   8.896  17.094  14.638 -0.0043 -0.1538 -0.2081
  554POSM   C4B 6500   8.887  17.373  14.261 -0.0927  0.0030  0.1004
  555DOPC   NC3 6501   6.320  12.978  16.591 -0.1150 -0.1235  0.1424
  555DOPC   PO4 6502   6.097  13.179  16.865  0.0095  0.3956 -0.1141
  555DOPC   GL1 6503   6.105  13.392  16.559  0.2252 -0.2362 -0.2752
  555DOPC   GL2 6504   5.881  13.485  16.440  0.1802 -0.0457  0.2200
  555DOPC   C1A 6505   6.261  13.189  16.137  0.0285  0.1622  0.4126
  555DOPC   D2A 6506   6.134  13.072  15.708 -0.5479  0.2873  0.1281
  555DOPC   C3A 6507   6.131  12.714  15.416 -0.0475  0.2609 -0.3027
  555DOPC   C4A 6508   6.026  12.459  15.049  0.2554  0.0556  0.2004
  555DOPC   C1B 6509   5.781  13.437  15.970 -0.0819 -0.1966  0.0207
  555DOPC   D2B 6510   5.707  13.184  15.571  0.4037 -0.1943 -0.5300
  555DOPC   C3B 6511   5.691  13.327  15.186  0.1207  0.1774  0.2121
  555DOPC   C4B 6512   5.539  13.137  14.761 -0.0544 -0.0527  0.1522
  556DOPC   NC3 6513   9.425  11.548  15.845 -0.1850 -0.1473 -0.1237
  556DOPC   PO4 6514   9.062  11.633  15.850 -0.0639  0.1660 -0.0180
  556DOPC   GL1 6515   9.089  11.801  15.563 -0.3257  0.1787  0.1403
  556DOPC   GL2 6516   8.834  11.896  15.517 -0.0668 -0.0028  0.1245
  556DOPC   C1A 6517   9.063  11.702  15.097 -0.1072  0.1992  0.0284
  556DOPC   D2A 6518   8.809  11.671  14.711 -0.2072 -0.0966 -0.2186
  556DOPC   C3A 6519   8.490  11.351  14.828 -0.0975 -0.0066 -0.1658
  556DOPC   C4A 6520   8.518  11.065  15.197 -0.0975  0.4337 -0.2282
  556DOPC   C1B 6521   8.781  12.083  15.141  0.0406  0.1968  0.1922
  556DOPC   D2B 6522   8.539  12.115  14.795 -0.1481 -0.1964 -0.1667
  556DOPC   C3B 6523   8.746  12.014  14.384  0.2485 -0.2261 -0.2741
  556DOPC   C4B 6524   8.709  12.042  13.919  0.0917 -0.0667  0.2475
  557DOPE   NH3 6525   6.197  11.383  16.830 -0.3257 -0.0173 -0.2144
  557DOPE   PO4 6526   6.425  11.454  16.578  0.4029 -0.1902 -0.2549
  557DOPE   GL1 6527   6.346  11.548  16.185  0.1138 -0.5402 -0.0522
  557DOPE   GL2 6528   6.595  11.368  16.082  0.0102 -0.4650 -0.4819
  557DOPE   C1A 6529   6.212  11.335  15.785 -0.1888  0.0888 -0.1940
  557DOPE   D2A 6530   6.423  10.981  15.589  0.3158 -0.1672  0.1648
  557DOPE   C3A 6531   6.462  10.897  15.184  0.1238 -0.1836 -0.4852
  557DOPE   C4A 6532   6.623  10.917  14.741 -0.0113 -0.4435  0.0376
  557DOPE   C1B 6533   6.742  11.431  15.682 -0.1557 -0.0494  0.2642
  557DOPE   D2B 6534   6.845  11.522  15.259 -0.0584 -0.0444 -0.1614
  557DOPE   C3B 6535   6.746  11.481  14.821 -0.0170  0.1908  0.0861
  557DOPE   C4B 6536   6.946  11.152  14.494 -0.1110 -0.0663 -0.1564
  558POSM   NC3 6537  10.764  13.235  15.082 -0.2030  0.0820 -0.0181
  558POSM   PO4 6538  10.580  12.926  15.268  0.2707  0.0620  0.2675
  558POSM   AM1 6539  10.319  13.090  15.180  0.0549  0.0428  0.0444
  558POSM   AM2 6540  10.284  13.337  15.061  0.2835 -0.0897 -0.1267
  558POSM   T1A 6541  10.014  13.006  14.775  0.1091 -0.1802  0.4484
  558POSM   C2A 6542   9.954  13.191  14.320 -0.0742  0.4395  0.4199
  558POSM   C3A 6543  10.199  13.496  14.121  0.0165 -0.0306  0.1554
  558POSM   C1B 6544  10.054  13.469  14.862 -0.0815  0.1586 -0.1152
  558POSM   D2B 6545   9.675  13.452  14.603 -0.1625  0.2310 -0.2105
  558POSM   C3B 6546   9.479  13.374  14.207 -0.1015 -0.3114  0.0499
  558POSM   C4B 6547   9.012  13.392  14.101 -0.2960  0.0974  0.0176
  559POSM   NC3 6548   0.998  18.963  15.916 -0.2516 -0.3028 -0.2185
  559POSM   PO4 6549   1.385  18.877  15.996  0.1288  0.1391  0.2112
  559POSM   AM1 6550   1.516  18.913  15.712 -0.1534  0.1269  0.3435
  559POSM   AM2 6551   1.763  18.809  15.686 -0.0488  0.0577  0.1540
  559POSM   T1A 6552   1.676  19.032  15.236 -0.1458 -0.0448  0.1142
  559POSM   C2A 6553   1.591  19.250  14.815  0.4092  0.1783  0.0036
  559POSM   C3A 6554   1.523  19.272  14.355 -0.2099  0.2324  0.1900
  559POSM   C1B 6555   2.056  18.924  15.653 -0.2008  0.2278  0.2000
  559POSM   D2B 6556   2.341  19.213  15.412  0.0124 -0.0214 -0.0795
  559POSM   C3B 6557   2.340  19.122  14.940  0.1324 -0.1375 -0.3591
  559POSM   C4B 6558   2.444  18.680  14.720  0.0369 -0.1188  0.4075
  560DOPE   NH3 6559   1.080  12.404  15.943 -0.1205  0.2436 -0.1953
  560DOPE   PO4 6560   1.014  12.705  15.903  0.0761  0.3035  0.0302
  560DOPE   GL1 6561   1.202  12.833  15.610  0.0904  0.1136 -0.0017
  560DOPE   GL2 6562   1.178  13.133  15.693 -0.3096 -0.0512 -0.1055
  560DOPE   C1A 6563   1.376  12.701  15.185 -0.0742 -0.2131 -0.1406
  560DOPE   D2A 6564   1.298  12.798  14.730 -0.1492  0.0535  0.1593
  560DOPE   C3A 6565   1.239  13.126  14.396 -0.0025 -0.0258  0.1903
  560DOPE   C4A 6566   1.060  13.026  13.980  0.1543  0.4142  0.1344
  560DOPE   C1B 6567   1.446  13.173  15.251 -0.0830 -0.0672  0.0686
  560DOPE   D2B 6568   1.680  13.479  15.093  0.1171 -0.2290  0.1710
  560DOPE   C3B 6569   1.662  13.250  14.701 -0.1014 -0.0189 -0.0406
  560DOPE   C4B 6570   1.715  12.871  14.450  0.0941  0.1197 -0.1229
  561POSM   NC3 6571   0.735  13.072  16.141 -0.0550 -0.6763  0.0013
  561POSM   PO4 6572   0.913  13.427  16.047  0.1054  0.2196  0.0311
  561POSM   AM1 6573   0.916  13.496  15.718  0.3655 -0.0462 -0.1199
  561POSM   AM2 6574   0.735  13.718  15.564  0.1077  0.0602  0.0790
  561POSM   T1A 6575   0.903  13.312  15.274 -0.0406  0.1757 -0.0873
  561POSM   C2A 6576   0.820  12.857  15.018  0.0026 -0.3146  0.0790
  561POSM   C3A 6577   0.948  12.449  14.914 -0.1567  0.0544 -0.1799
  561POSM   C1B 6578   0.726  13.803  15.261  0.2885  0.2627  0.1557
  561POSM   D2B 6579   0.925  14.026  14.912  0.2034 -0.0070 -0.1038
  561POSM   C3B 6580   1.268  14.199  14.720  0.0639 -0.1668  0.3091
  561POSM   C4B 6581   1.501  14.306  14.310  0.1205  0.2939 -0.1726
  562DOPE   NH3 6582   4.352  22.401  16.327  0.4485 -0.3078 -0.1770
  562DOPE   PO4 6583   4.068  22.329  16.130  0.0140  0.1635 -0.0207
  562DOPE   GL1 6584   4.082  22.541  15.771 -0.0612  0.0786 -0.0533
  562DOPE   GL2 6585   4.342  22.654  15.730 -0.0227 -0.2067  0.2031
  562DOPE   C1A 6586   4.172  22.303  15.400 -0.1932  0.2501 -0.1172
  562DOPE   D2A 6587   4.454  22.438  15.041  0.0573  0.2877  0.0946
  562DOPE   C3A 6588   4.328  22.677  14.639  0.2706 -0.1042 -0.0080
  562DOPE   C4A 6589   4.232  22.576  14.183 -0.1353  0.1438 -0.4097
  562DOPE   C1B 6590   4.222  22.763  15.315  0.0789 -0.1301  0.2013
  562DOPE   D2B 6591   4.072  23.032  14.902 -0.0557  0.1292  0.1421
  562DOPE   C3B 6592   4.082  23.210  14.448  0.0704 -0.5300 -0.0603
  562DOPE   C4B 6593   4.395  23.431  14.179  0.1901 -0.1902 -0.0295
  563POSM   NC3 6594   0.110  16.259  15.864  0.0793  0.0464 -0.0800
  563POSM   PO4 6595   0.228  16.648  15.899  0.4449 -0.0446 -0.5634
  563POSM   AM1 6596   0.300  16.663  15.576  0.1568 -0.1366  0.4241
  563POSM   AM2 6597   0.481  16.694  15.352 -0.0755 -0.1498  0.0469
  563POSM   T1A 6598   0.048  16.882  15.236  0.0970 -0.0398  0.0033
  563POSM   C2A 6599  -0.051  16.886  14.828  0.4177  0.0799  0.0843
  563POSM   C3A 6600  -0.310  16.813  14.442  0.3037  0.2781  0.0490
  563POSM   C1B 6601   0.557  16.648  15.002  0.1685  0.0592 -0.0648
  563POSM   D2B 6602   0.802  16.550  14.559  0.0476 -0.1720 -0.0352
  563POSM   C3B 6603   0.901  16.815  14.254 -0.0001  0.1242  0.0598
  563POSM   C4B 6604   0.853  16.814  13.776 -0.1527  0.2533 -0.1022
  564DOPS   CNO 6605  11.390  13.725  14.935 -0.2822  0.2605  0.0903
  564DOPS   PO4 6606  11.683  13.522  14.795 -0.2688 -0.0577  0.0330
  564DOPS   GL1 6607  11.649  13.341  14.374 -0.0445 -0.1282 -0.2243
  564DOPS   GL2 6608  11.589  13.122  14.265 -0.1572  0.0321 -0.0862
  564DOPS   C1A 6609  11.527  13.513  13.940 -0.1632  0.1352 -0.1537
  564DOPS   D2A 6610  11.712  13.372  13.547  0.2485  0.0241 -0.1602
  564DOPS   C3A 6611  11.558  13.318  13.151  0.0886  0.1103  0.0652
  564DOPS   C4A 6612  11.317  13.240  12.750 -0.2212 -0.0467 -0.0718
  564DOPS   C1B 6613  11.691  13.013  13.845  0.2375 -0.0468 -0.3344
  564DOPS   D2B 6614  11.614  12.642  13.571  0.3645  0.0557  0.0267
  564DOPS   C3B 6615  11.691  12.671  13.156 -0.3997  0.4011  0.1065
  564DOPS   C4B 6616  11.758  12.924  12.813  0.0657  0.0046  0.0650
  565DOPC   NC3 6617   5.188  22.044  15.929  0.1084  0.0230  0.1670
  565DOPC   PO4 6618   5.561  21.972  16.036  0.1091  0.2345 -0.2383
  565DOPC   GL1 6619   5.402  21.694  15.720 -0.0439  0.1486 -0.2524
  565DOPC   GL2 6620   5.200  21.586  15.778 -0.2920 -0.1316  0.1788
  565DOPC   C1A 6621   5.514  21.328  15.446 -0.0103 -0.2051 -0.1754
  565DOPC   D2A 6622   5.833  20.934  15.385 -0.3332 -0.2030  0.0188
  565DOPC   C3A 6623   5.684  20.532  15.235 -0.0133 -0.1516  0.0874
  565DOPC   C4A 6624   5.450  20.168  15.029  0.3336 -0.2469  0.2613
  565DOPC   C1B 6625   5.176  21.765  15.349 -0.1984 -0.1276  0.1854
  565DOPC   D2B 6626   5.049  21.707  14.966  0.3801  0.3920  0.3125
  565DOPC   C3B 6627   4.656  21.771  14.714  0.3192  0.2416  0.1801
  565DOPC   C4B 6628   4.417  22.113  14.608 -0.1106 -0.1370  0.3469
  566DOPS   CNO 6629   0.214  21.538  16.775 -0.0016 -0.2497 -0.0250
  566DOPS   PO4 6630  -0.027  21.429  16.498 -0.0004 -0.0706 -0.1975
  566DOPS   GL1 6631   0.166  21.621  16.166 -0.1271  0.1246  0.0460
  566DOPS   GL2 6632   0.256  21.911  16.335 -0.1409 -0.0783 -0.0421
  566DOPS   C1A 6633   0.024  21.761  15.719  0.1104 -0.0954 -0.1170
  566DOPS   D2A 6634   0.008  21.970  15.329 -0.0715 -0.2348 -0.1595
  566DOPS   C3A 6635   0.437  21.887  15.193  0.1317 -0.0639 -0.0097
  566DOPS   C4A 6636   0.857  22.098  15.187  0.0297  0.0605  0.3792
  566DOPS   C1B 6637   0.368  22.126  15.966  0.0361  0.2146 -0.2263
  566DOPS   D2B 6638   0.443  22.534  15.955  0.0743  0.0255 -0.0431
  566DOPS   C3B 6639   0.113  22.904  15.977  0.0618  0.4447 -0.0559
  566DOPS   C4B 6640  -0.217  23.187  15.857 -0.3072 -0.0581 -0.0971
  567DOPE   NH3 6641   9.705  20.869  15.907  0.1530 -0.0995  0.0373
  567DOPE   PO4 6642   9.907  20.926  15.661  0.0021  0.0692 -0.1299
  567DOPE   GL1 6643   9.888  21.086  15.320  0.1372  0.0172  0.1068
  567DOPE   GL2 6644   9.900  20.886  15.082  0.1679  0.1455  0.1811
  567DOPE   C1A 6645  10.020  21.401  14.976  0.0552  0.0693 -0.2266
  567DOPE   D2A 6646  10.111  21.505  14.551  0.0221  0.1488 -0.0511
  567DOPE   C3A 6647  10.314  21.383  14.166 -0.1120  0.0333 -0.1684
  567DOPE   C4A 6648  10.334  21.170  13.779  0.1014 -0.0105 -0.1625
  567DOPE   C1B 6649   9.478  20.718  14.969 -0.0248  0.3015  0.2023
  567DOPE   D2B 6650   9.173  20.964  14.940 -0.2949 -0.0525  0.0673
  567DOPE   C3B 6651   8.772  20.802  14.727  0.0917  0.1294 -0.0436
  567DOPE   C4B 6652   8.409  20.455  14.728 -0.1450  0.1016  0.2351
  568DOPC   NC3 6653   0.722  17.781  16.027  0.2371 -0.2326 -0.0490
  568DOPC   PO4 6654   1.096  17.847  16.156 -0.0236 -0.0961 -0.0679
  568DOPC   GL1 6655   1.374  17.997  15.811 -0.0705 -0.3184 -0.3698
  568DOPC   GL2 6656   1.532  18.210  15.877  0.1055 -0.0615 -0.1719
  568DOPC   C1A 6657   1.336  18.001  15.345  0.1870  0.1100 -0.0977
  568DOPC   D2A 6658   1.212  17.892  14.920  0.1254  0.1832 -0.1157
  568DOPC   C3A 6659   1.329  18.046  14.527  0.2777 -0.0641 -0.3887
  568DOPC   C4A 6660   1.570  17.799  14.205 -0.1209 -0.0541  0.0324
  568DOPC   C1B 6661   1.532  18.452  15.473  0.0952  0.0901  0.1409
  568DOPC   D2B 6662   1.520  18.356  14.995  0.2689  0.2829  0.0432
  568DOPC   C3B 6663   1.715  17.962  14.881 -0.3491 -0.2139 -0.1461
  568DOPC   C4B 6664   1.829  17.527  14.685 -0.0672 -0.1565  0.0229
  569DOPS   CNO 6665   0.514  14.432  16.559  0.2782  0.3191 -0.0085
  569DOPS   PO4 6666   0.433  14.263  16.213 -0.4855 -0.0363  0.2499
  569DOPS   GL1 6667   0.457  14.340  15.751  0.3357  0.3821  0.1579
  569DOPS   GL2 6668   0.197  14.169  15.787 -0.1940  0.0574  0.0069
  569DOPS   C1A 6669   0.280  14.492  15.380 -0.1367 -0.1385  0.0822
  569DOPS   D2A 6670  -0.001  14.683  15.022 -0.0941 -0.3652  0.1729
  569DOPS   C3A 6671   0.217  14.869  14.675 -0.0906  0.1201  0.0996
  569DOPS   C4A 6672   0.087  15.134  14.350 -0.0373 -0.0213 -0.3330
  569DOPS   C1B 6673  -0.162  14.309  15.561  0.0352  0.1277 -0.1477
  569DOPS   D2B 6674  -0.385  14.244  15.151 -0.1113  0.3353 -0.2264
  569DOPS   C3B 6675  -0.046  14.154  14.850  0.0941  0.1587  0.2402
  569DOPS   C4B 6676   0.190  14.311  14.455 -0.2772  0.4958 -0.3850
  570DOPC   NC3 6677   3.741  13.459  16.657  0.1484  0.1546 -0.0171
  570DOPC   PO4 6678   3.474  13.711  16.484 -0.2824  0.1493  0.1557
  570DOPC   GL1 6679   3.571  13.807  16.103  0.1958 -0.0645  0.0259
  570DOPC   GL2 6680   3.812  13.601  16.110  0.4149 -0.0692  0.1563
  570DOPC   C1A 6681   3.445  13.830  15.612 -0.0711  0.1830  0.0439
  570DOPC   D2A 6682   3.115  13.834  15.302  0.0424  0.1889 -0.1626
  570DOPC   C3A 6683   3.148  13.817  14.794 -0.1704  0.0833  0.2535
  570DOPC   C4A 6684   2.919  13.860  14.395  0.1394  0.0832 -0.1267
  570DOPC   C1B 6685   3.932  13.951  15.892  0.0495  0.0118 -0.0207
  570DOPC   D2B 6686   3.827  14.195  15.478  0.0102 -0.0756  0.1272
  570DOPC   C3B 6687   3.921  14.127  15.029  0.0639  0.0750  0.4805
  570DOPC   C4B 6688   3.693  14.247  14.631  0.1120 -0.2011  0.1060
  571DOPE   NH3 6689  10.613  20.362  15.746 -0.4473  0.2800 -0.1939
  571DOPE   PO4 6690  10.493  20.236  15.475  0.3259  0.2386 -0.1387
  571DOPE   GL1 6691  10.297  20.233  15.146 -0.1598  0.1130  0.1306
  571DOPE   GL2 6692  10.478  20.429  15.022 -0.1717 -0.1597 -0.1580
  571DOPE   C1A 6693  10.267  20.162  14.649 -0.2186 -0.4221 -0.2101
  571DOPE   D2A 6694  10.112  20.028  14.263  0.1053  0.3031 -0.0592
  571DOPE   C3A 6695   9.649  20.290  14.159  0.0524  0.6008  0.0440
  571DOPE   C4A 6696   9.446  20.637  13.948  0.4281 -0.0901 -0.1645
  571DOPE   C1B 6697  10.233  20.658  14.692  0.0583 -0.1374  0.2421
  571DOPE   D2B 6698  10.010  21.044  14.580  0.0471  0.1429  0.1602
  571DOPE   C3B 6699   9.789  20.953  14.115 -0.1417  0.1258 -0.1845
  571DOPE   C4B 6700   9.463  21.125  13.876 -0.0378  0.1760  0.0133
  572POSM   NC3 6701   7.338  21.125  15.825  0.0732 -0.2267 -0.0278
  572POSM   PO4 6702   7.562  20.781  15.856  0.2786 -0.1002 -0.0298
  572POSM   AM1 6703   7.437  20.729  15.536  0.2529 -0.1315  0.1662
  572POSM   AM2 6704   7.486  20.925  15.321 -0.0404 -0.1390 -0.0258
  572POSM   T1A 6705   7.242  20.487  15.214 -0.0450 -0.0600  0.2698
  572POSM   C2A 6706   7.080  20.043  15.177  0.0588  0.1343 -0.2421
  572POSM   C3A 6707   6.699  19.843  15.106  0.2759  0.0976 -0.1784
  572POSM   C1B 6708   7.247  21.036  15.166  0.0611 -0.2683 -0.1235
  572POSM   D2B 6709   6.845  21.009  15.046  0.1880 -0.1028  0.2523
  572POSM   C3B 6710   6.592  21.394  14.995 -0.1761  0.0152 -0.0169
  572POSM   C4B 6711   6.517  21.804  14.819 -0.1597 -0.2539 -0.0266
  573DOPE   NH3 6712   5.258  21.004  16.331 -0.1952 -0.0970  0.0299
  573DOPE   PO4 6713   5.157  21.275  16.159  0.0991  0.3446 -0.1065
  573DOPE   GL1 6714   5.161  21.149  15.741  0.1679  0.1928 -0.4000
  573DOPE   GL2 6715   5.049  20.881  15.820  0.3766  0.0051  0.2210
  573DOPE   C1A 6716   4.910  21.370  15.407  0.2633 -0.1804 -0.1986
  573DOPE   D2A 6717   4.694  21.364  14.959  0.1386 -0.2469 -0.0217
  573DOPE   C3A 6718   4.560  21.240  14.547  0.0963 -0.1887  0.0267
  573DOPE   C4A 6719   4.362  20.933  14.226 -0.0428  0.0268  0.1660
  573DOPE   C1B 6720   4.812  20.888  15.419 -0.3193  0.2054  0.2687
  573DOPE   D2B 6721   4.740  20.880  14.928  0.0581  0.0815  0.3750
  573DOPE   C3B 6722   4.585  20.660  14.571 -0.0784 -0.3547  0.1310
  573DOPE   C4B 6723   4.551  20.466  14.167 -0.0388  0.2196 -0.2604
  574POSM   NC3 6724   8.329  20.621  15.595  0.1566  0.2093 -0.1127
  574POSM   PO4 6725   8.031  20.885  15.716  0.0746  0.0570  0.2222
  574POSM   AM1 6726   7.962  20.899  15.391 -0.1804 -0.0655 -0.3437
  574POSM   AM2 6727   7.991  20.704  15.180  0.3352  0.1281  0.0841
  574POSM   T1A 6728   7.748  21.143  14.917  0.0373  0.3040 -0.0449
  574POSM   C2A 6729   7.347  21.135  14.708  0.0931  0.2837 -0.0655
  574POSM   C3A 6730   6.971  21.274  14.556  0.2031 -0.1623  0.2014
  574POSM   C1B 6731   8.008  20.439  15.046 -0.0612 -0.1248 -0.0997
  574POSM   D2B 6732   8.006  20.148  14.669 -0.3761 -0.1797  0.2490
  574POSM   C3B 6733   8.282  19.896  14.412  0.1697  0.2559  0.2444
  574POSM   C4B 6734   8.548  19.534  14.289  0.3916 -0.0179  0.0658
  575DOPC   NC3 6735   7.874  16.570  15.938 -0.0621  0.2033 -0.0934
  575DOPC   PO4 6736   8.023  16.251  15.871 -0.2454  0.0844  0.0844
  575DOPC   GL1 6737   8.075  16.246  15.471  0.1599 -0.4172 -0.0056
  575DOPC   GL2 6738   7.925  16.487  15.445 -0.2697  0.0789 -0.0324
  575DOPC   C1A 6739   8.277  16.398  15.095 -0.0272  0.2597 -0.1044
  575DOPC   D2A 6740   8.364  16.716  14.854  0.2061 -0.2348 -0.0492
  575DOPC   C3A 6741   8.247  16.566  14.434 -0.2968  0.2631  0.0181
  575DOPC   C4A 6742   8.400  16.269  14.083 -0.0161 -0.1892 -0.1796
  575DOPC   C1B 6743   7.678  16.061  15.345 -0.2067 -0.3315  0.0166
  575DOPC   D2B 6744   7.522  15.912  14.948 -0.0873  0.0106  0.1043
  575DOPC   C3B 6745   7.449  15.948  14.470  0.3733 -0.0505  0.3736
  575DOPC   C4B 6746   7.372  16.269  14.338  0.1292  0.1296  0.1455
  576DOPE   NH3 6747   5.983  21.834  16.308 -0.0303 -0.0155  0.0658
  576DOPE   PO4 6748   6.143  21.798  16.069  0.1233  0.1729 -0.7212
  576DOPE   GL1 6749   6.183  21.821  15.717 -0.0315 -0.0890  0.0008
  576DOPE   GL2 6750   6.388  21.666  15.610  0.1197 -0.0412 -0.2466
  576DOPE   C1A 6751   6.218  21.941  15.266  0.6760 -0.0286 -0.1327
  576DOPE   D2A 6752   6.090  22.155  14.865 -0.3880 -0.2027  0.1307
  576DOPE   C3A 6753   6.196  22.032  14.411 -0.2126  0.0424 -0.1711
  576DOPE   C4A 6754   6.433  21.981  14.025 -0.1021 -0.1840  0.0287
  576DOPE   C1B 6755   6.671  21.787  15.313 -0.0436 -0.3517  0.1290
  576DOPE   D2B 6756   6.760  22.259  15.260  0.2565 -0.1445 -0.0693
  576DOPE   C3B 6757   7.108  22.393  15.514 -0.0889 -0.1396 -0.1517
  576DOPE   C4B 6758   7.473  22.762  15.551  0.0166 -0.1788 -0.1928
  577POSM   NC3 6759   7.162  12.601  16.418 -0.1611 -0.1396 -0.0927
  577POSM   PO4 6760   6.793  12.398  16.334  0.4147 -0.1049 -0.1384
  577POSM   AM1 6761   6.926  12.267  16.056 -0.1307 -0.2593  0.0180
  577POSM   AM2 6762   7.240  12.207  15.957  0.2841  0.2759 -0.1293
  577POSM   T1A 6763   6.871  12.019  15.593 -0.2934  0.1616  0.3327
  577POSM   C2A 6764   6.778  12.113  15.140  0.2682 -0.1792  0.0313
  577POSM   C3A 6765   6.913  12.432  14.810  0.0739  0.1010  0.0244
  577POSM   C1B 6766   7.375  12.262  15.651  0.3409 -0.3234 -0.1248
  577POSM   D2B 6767   7.704  12.313  15.343 -0.0841 -0.2300 -0.2261
  577POSM   C3B 6768   7.851  12.472  14.957  0.0332  0.1770  0.1186
  577POSM   C4B 6769   7.913  12.690  14.590 -0.1678 -0.2054 -0.0335
  578DOPE   NH3 6770   9.894  21.823  15.769  0.0890  0.1350 -0.1072
  578DOPE   PO4 6771   9.783  21.950  15.548  0.2952  0.0957 -0.1709
  578DOPE   GL1 6772   9.613  22.023  15.171  0.0610 -0.1112  0.2109
  578DOPE   GL2 6773   9.674  21.684  15.121  0.0942  0.1011 -0.4748
  578DOPE   C1A 6774   9.229  21.922  14.869 -0.1069 -0.3542 -0.1332
  578DOPE   D2A 6775   8.788  21.797  14.812  0.1817  0.2856  0.2291
  578DOPE   C3A 6776   8.656  21.846  14.335 -0.0558 -0.0080  0.0074
  578DOPE   C4A 6777   8.665  21.714  13.877 -0.2340  0.0157  0.1391
  578DOPE   C1B 6778   9.727  21.749  14.637 -0.0071 -0.1390  0.0530
  578DOPE   D2B 6779  10.054  21.987  14.400 -0.0796 -0.0309 -0.0430
  578DOPE   C3B 6780   9.944  22.122  13.952 -0.1663 -0.2782  0.1696
  578DOPE   C4B 6781  10.172  22.173  13.533  0.0092 -0.1842  0.0997
  579DOPE   NH3 6782   0.749  14.648  16.005 -0.1264  0.1057 -0.1901
  579DOPE   PO4 6783   0.706  14.962  15.940 -0.2396 -0.2026 -0.0103
  579DOPE   GL1 6784   0.880  15.105  15.707  0.1173 -0.2284  0.1677
  579DOPE   GL2 6785   1.047  15.373  15.816  0.0268  0.2171  0.0255
  579DOPE   C1A 6786   0.766  15.372  15.384  0.2002  0.4010  0.1842
  579DOPE   D2A 6787   0.870  15.790  15.301 -0.1668 -0.0405 -0.3009
  579DOPE   C3A 6788   0.996  15.933  14.896  0.3631 -0.1403  0.2040
  579DOPE   C4A 6789   1.049  16.087  14.474 -0.2278 -0.0624 -0.1383
  579DOPE   C1B 6790   1.329  15.606  15.623  0.2454  0.2854 -0.2996
  579DOPE   D2B 6791   1.323  15.563  15.199  0.1531 -0.2288 -0.3049
  579DOPE   C3B 6792   1.761  15.478  15.036 -0.4533 -0.0236  0.1760
  579DOPE   C4B 6793   2.225  15.375  15.014  0.1003 -0.1223  0.0643
  580DOPE   NH3 6794   7.986  18.301  16.091 -0.0753 -0.0299  0.1108
  580DOPE   PO4 6795   8.095  18.015  16.088  0.0672 -0.0096  0.0818
  580DOPE   GL1 6796   8.122  18.039  15.690  0.4043  0.0297  0.3199
  580DOPE   GL2 6797   8.305  18.325  15.709 -0.3143 -0.2220 -0.0526
  580DOPE   C1A 6798   7.845  18.154  15.318 -0.0885  0.2587  0.3605
  580DOPE   D2A 6799   7.673  18.498  15.093  0.5161  0.2407 -0.0629
  580DOPE   C3A 6800   7.568  18.532  14.629  0.1649  0.2348  0.2450
  580DOPE   C4A 6801   7.214  18.754  14.398 -0.2704 -0.0965  0.2218
  580DOPE   C1B 6802   8.257  18.411  15.249  0.4803  0.3030 -0.0023
  580DOPE   D2B 6803   8.022  18.355  14.824  0.0357  0.1712  0.0531
  580DOPE   C3B 6804   7.988  18.174  14.426  0.3094 -0.0003 -0.0575
  580DOPE   C4B 6805   7.832  17.846  14.161 -0.0733 -0.1879  0.0986
  581DOPE   NH3 6806   1.777  12.711  16.092 -0.2132  0.0748 -0.3157
  581DOPE   PO4 6807   1.512  12.617  15.956  0.0444 -0.1355 -0.1615
  581DOPE   GL1 6808   1.479  12.430  15.578  0.3446  0.2735 -0.5424
  581DOPE   GL2 6809   1.745  12.294  15.605  0.2936 -0.0360  0.1682
  581DOPE   C1A 6810   1.115  12.225  15.358 -0.0587 -0.0517  0.0676
  581DOPE   D2A 6811   0.848  11.974  15.127  0.1940  0.0865  0.4007
  581DOPE   C3A 6812   0.666  11.570  15.225 -0.1780  0.4647 -0.0578
  581DOPE   C4A 6813   0.473  11.209  15.247  0.1474 -0.0705  0.2713
  581DOPE   C1B 6814   1.586  12.163  15.175 -0.0207 -0.3286  0.0056
  581DOPE   D2B 6815   1.280  12.073  14.775 -0.4566  0.0526 -0.0538
  581DOPE   C3B 6816   1.387  11.705  14.555  0.1897 -0.0510 -0.4737
  581DOPE   C4B 6817   1.477  11.455  14.162  0.2022  0.2176 -0.0863
  582POSM   NC3 6818   9.684  13.768  15.907  0.2030  0.0798  0.0841
  582POSM   PO4 6819   9.580  14.121  15.732 -0.2817  0.0928 -0.2332
  582POSM   AM1 6820   9.349  14.143  15.520  0.1926 -0.1207 -0.2462
  582POSM   AM2 6821   9.233  14.016  15.316 -0.2444 -0.2236 -0.3185
  582POSM   T1A 6822   9.103  14.488  15.246  0.0776 -0.0690  0.1538
  582POSM   C2A 6823   9.188  14.851  14.915  0.2493 -0.4131 -0.2957
  582POSM   C3A 6824   9.128  15.168  14.572 -0.0417  0.1528 -0.0170
  582POSM   C1B 6825   9.102  13.833  15.075  0.2594 -0.1660 -0.1590
  582POSM   D2B 6826   8.874  13.930  14.698 -0.0694 -0.0349 -0.0032
  582POSM   C3B 6827   8.725  14.279  14.416 -0.2069  0.0050 -0.0909
  582POSM   C4B 6828   8.887  14.471  14.023  0.0517  0.0219 -0.0708
  583DOPE   NH3 6829   8.476  19.683  16.112  0.2047 -0.2396 -0.0275
  583DOPE   PO4 6830   8.611  19.965  15.969 -0.0869  0.2976 -0.1894
  583DOPE   GL1 6831   8.696  19.718  15.691 -0.0981  0.1921 -0.0511
  583DOPE   GL2 6832   8.740  20.020  15.483  0.0983  0.2312 -0.1193
  583DOPE   C1A 6833   8.633  19.269  15.516  0.2128  0.3126  0.3676
  583DOPE   D2A 6834   8.534  18.787  15.566  0.0508 -0.0956  0.3932
  583DOPE   C3A 6835   8.083  18.788  15.524  0.1488  0.3510  0.1192
  583DOPE   C4A 6836   7.719  18.498  15.633 -0.1367  0.1503 -0.2521
  583DOPE   C1B 6837   8.865  20.007  15.018  0.0170  0.1495  0.0783
  583DOPE   D2B 6838   8.740  20.117  14.559 -0.2137  0.0093 -0.2191
  583DOPE   C3B 6839   8.601  20.172  14.154 -0.1873 -0.0253  0.0435
  583DOPE   C4B 6840   8.342  19.950  13.865 -0.1327 -0.3361  0.1929
  584DOPE   NH3 6841   9.137  22.506  16.006  0.2564 -0.2021 -0.3645
  584DOPE   PO4 6842   9.045  22.248  15.810  0.0319 -0.0344 -0.2119
  584DOPE   GL1 6843   9.131  22.671  15.533 -0.0240 -0.2277  0.3906
  584DOPE   GL2 6844   9.371  22.812  15.508 -0.1373  0.1115 -0.2993
  584DOPE   C1A 6845   9.182  22.747  15.072  0.2659 -0.1161  0.0998
  584DOPE   D2A 6846   9.178  22.567  14.680  0.1541 -0.0724  0.0545
  584DOPE   C3A 6847   8.945  22.691  14.299 -0.2130 -0.3549 -0.1246
  584DOPE   C4A 6848   8.543  22.900  14.226  0.2602  0.0857  0.2204
  584DOPE   C1B 6849   9.694  22.879  15.223 -0.5258 -0.0345  0.2288
  584DOPE   D2B 6850  10.142  22.681  15.204 -0.1736  0.0353  0.4050
  584DOPE   C3B 6851  10.251  22.858  14.752  0.0297 -0.1029  0.0394
  584DOPE   C4B 6852  10.652  23.023  14.620 -0.2138  0.1709  0.1094
  585POSM   NC3 6853   8.268  14.961  15.753 -0.0176 -0.0503  0.1794
  585POSM   PO4 6854   8.281  15.311  15.839  0.0416  0.2646  0.3636
  585POSM   AM1 6855   8.098  15.494  15.617 -0.0481 -0.2794 -0.0632
  585POSM   AM2 6856   8.086  15.779  15.501 -0.0373 -0.0567  0.2042
  585POSM   T1A 6857   7.887  15.424  15.170 -0.0266 -0.1018  0.4666
  585POSM   C2A 6858   7.779  15.507  14.747 -0.1993  0.0386  0.1006
  585POSM   C3A 6859   7.891  15.585  14.345 -0.2544 -0.0497  0.0291
  585POSM   C1B 6860   8.124  15.868  15.201  0.0435 -0.1660  0.1228
  585POSM   D2B 6861   7.996  16.108  14.847  0.0953  0.2691  0.0344
  585POSM   C3B 6862   8.020  16.082  14.378 -0.1545  0.0597 -0.0213
  585POSM   C4B 6863   8.245  15.817  14.060  0.1070 -0.1759 -0.0062
  586DOPC   NC3 6864   3.100  20.090  16.526 -0.3794 -0.0133 -0.1591
  586DOPC   PO4 6865   3.459  19.874  16.553 -0.0320 -0.2068  0.1551
  586DOPC   GL1 6866   3.415  19.845  16.190 -0.0551  0.1481 -0.0001
  586DOPC   GL2 6867   3.655  19.898  15.981  0.2089  0.1163  0.2691
  586DOPC   C1A 6868   3.269  19.517  15.852  0.3330 -0.2000 -0.1702
  586DOPC   D2A 6869   2.867  19.550  15.650  0.1834 -0.0554  0.0940
  586DOPC   C3A 6870   2.868  19.439  15.223  0.1420 -0.2503  0.1043
  586DOPC   C4A 6871   3.077  19.517  14.821 -0.0250  0.1636  0.1767
  586DOPC   C1B 6872   3.271  20.074  15.702 -0.0375  0.0070  0.1017
  586DOPC   D2B 6873   3.085  19.894  15.317 -0.0947 -0.1093  0.0740
  586DOPC   C3B 6874   2.801  19.909  14.955  0.0086  0.4114 -0.0794
  586DOPC   C4B 6875   2.525  19.676  14.691 -0.0315 -0.0578 -0.1936
  587DOPE   NH3 6876   1.393  13.555  15.917 -0.1309 -0.1828  0.1395
  587DOPE   PO4 6877   1.667  13.683  15.740  0.0392 -0.2849  0.2046
  587DOPE   GL1 6878   1.832  13.819  15.397 -0.2853  0.1070  0.2467
  587DOPE   GL2 6879   2.024  13.986  15.513 -0.3503 -0.2630 -0.1341
  587DOPE   C1A 6880   1.692  13.939  14.973 -0.2462 -0.0926  0.3822
  587DOPE   D2A 6881   1.456  13.723  14.605  0.1716 -0.1484 -0.0611
  587DOPE   C3A 6882   1.749  13.778  14.225 -0.1445  0.1241 -0.2871
  587DOPE   C4A 6883   2.187  13.963  14.151  0.1484 -0.2916 -0.2577
  587DOPE   C1B 6884   1.804  14.303  15.269  0.2923 -0.0008  0.0236
  587DOPE   D2B 6885   1.715  14.476  14.859 -0.2535 -0.2435 -0.2960
  587DOPE   C3B 6886   1.980  14.819  14.715 -0.0850 -0.1532 -0.4426
  587DOPE   C4B 6887   2.312  14.993  14.420  0.2881  0.2012 -0.0558
  588DOPC   NC3 6888  11.305  17.215  15.467 -0.3462  0.2553  0.2091
  588DOPC   PO4 6889  11.103  16.920  15.612  0.2294  0.0927 -0.0831
  588DOPC   GL1 6890  10.965  17.019  15.256  0.1696  0.1829  0.0172
  588DOPC   GL2 6891  10.984  16.766  15.009 -0.3041 -0.3783  0.1814
  588DOPC   C1A 6892  10.563  17.058  14.990 -0.3396 -0.1878  0.0515
  588DOPC   D2A 6893  10.124  16.982  15.059 -0.1503  0.1075  0.1487
  588DOPC   C3A 6894   9.920  17.081  14.620  0.0704  0.2263 -0.1120
  588DOPC   C4A 6895   9.998  17.018  14.163  0.0128 -0.1738  0.0399
  588DOPC   C1B 6896  10.766  16.761  14.618  0.1620 -0.1794 -0.0742
  588DOPC   D2B 6897  10.487  16.741  14.235  0.0846  0.0771 -0.1897
  588DOPC   C3B 6898  10.782  16.470  13.977  0.2135  0.1242  0.1236
  588DOPC   C4B 6899  10.760  16.516  13.520  0.0348 -0.0864  0.1491
  589POSM   NC3 6900   1.299  11.344  16.290 -0.3231 -0.0072  0.1429
  589POSM   PO4 6901   1.082  11.645  16.179  0.0494  0.0606  0.0310
  589POSM   AM1 6902   1.120  11.544  15.862  0.3047 -0.0071  0.0758
  589POSM   AM2 6903   1.221  11.340  15.701 -0.0161 -0.1352  0.1654
  589POSM   T1A 6904   1.176  11.691  15.376 -0.1794  0.0029  0.3002
  589POSM   C2A 6905   1.171  11.563  14.938 -0.0190  0.1497  0.2268
  589POSM   C3A 6906   0.864  11.750  14.667  0.1808 -0.1263 -0.0162
  589POSM   C1B 6907   0.956  11.272  15.481 -0.2141  0.2972  0.1508
  589POSM   D2B 6908   0.877  11.165  15.008 -0.0497 -0.0377  0.0284
  589POSM   C3B 6909   1.177  10.879  14.673 -0.1006  0.1486  0.2326
  589POSM   C4B 6910   1.357  10.977  14.275 -0.1028  0.0883  0.1148
  590DOPE   NH3 6911   9.158  14.303  16.048  0.1692  0.2327 -0.1709
  590DOPE   PO4 6912   8.902  14.450  15.965  0.1702 -0.1903 -0.3016
  590DOPE   GL1 6913   8.715  14.442  15.591  0.3188 -0.1993  0.0209
  590DOPE   GL2 6914   8.714  14.764  15.579  0.0101  0.0690 -0.1680
  590DOPE   C1A 6915   8.282  14.425  15.423  0.2468  0.2282 -0.1611
  590DOPE   D2A 6916   8.180  14.214  15.017  0.1158  0.1295  0.2287
  590DOPE   C3A 6917   8.304  13.926  14.661  0.1156  0.2325  0.2513
  590DOPE   C4A 6918   8.559  13.630  14.483 -0.0635  0.1186  0.1065
  590DOPE   C1B 6919   8.403  14.912  15.276  0.1222  0.1733  0.0795
  590DOPE   D2B 6920   8.081  14.718  15.027 -0.1973 -0.0065  0.1623
  590DOPE   C3B 6921   7.945  14.751  14.563  0.1765 -0.0295  0.2840
  590DOPE   C4B 6922   7.777  14.787  14.121 -0.2385 -0.2766 -0.2436
  591DOPE   NH3 6923   9.857  15.381  15.112  0.0294  0.3577  0.0654
  591DOPE   PO4 6924  10.134  15.555  15.224  0.0844 -0.0802 -0.2572
  591DOPE   GL1 6925  10.098  15.780  14.896 -0.1048  0.1690 -0.0832
  591DOPE   GL2 6926   9.769  15.785  14.794 -0.0474 -0.0440 -0.0425
  591DOPE   C1A 6927  10.188  15.846  14.473  0.0455 -0.0787 -0.1488
  591DOPE   D2A 6928  10.504  15.627  14.169  0.2857  0.0103 -0.1351
  591DOPE   C3A 6929  10.552  15.935  13.903  0.2797 -0.0104 -0.0487
  591DOPE   C4A 6930  10.956  16.034  13.715  0.0124 -0.0550 -0.0888
  591DOPE   C1B 6931   9.362  15.768  14.531  0.1423  0.1817 -0.1647
  591DOPE   D2B 6932   9.182  15.529  14.166 -0.0200 -0.0557 -0.1481
  591DOPE   C3B 6933   8.987  15.243  13.900  0.2729 -0.3353  0.2063
  591DOPE   C4B 6934   8.939  15.178  13.439  0.3091 -0.1068  0.3724
  592POSM   NC3 6935   3.178  12.443  16.168  0.4117  0.2308 -0.0925
  592POSM   PO4 6936   3.478  12.644  16.387 -0.0697  0.0514  0.0221
  592POSM   AM1 6937   3.530  12.835  16.110 -0.0913  0.0088 -0.3669
  592POSM   AM2 6938   3.784  12.921  15.935  0.0213 -0.0948 -0.2909
  592POSM   T1A 6939   3.389  12.845  15.633  0.2354 -0.2307 -0.0697
  592POSM   C2A 6940   3.408  12.966  15.201 -0.0266 -0.0305 -0.0219
  592POSM   C3A 6941   3.761  13.023  14.925 -0.2626  0.0154  0.0006
  592POSM   C1B 6942   3.851  12.726  15.689 -0.1381 -0.2030 -0.0251
  592POSM   D2B 6943   3.810  12.600  15.204  0.0419 -0.1930 -0.0627
  592POSM   C3B 6944   3.803  12.169  15.160  0.2059  0.2465 -0.1630
  592POSM   C4B 6945   4.198  11.937  15.078  0.0911 -0.1084  0.3746
  593DOPS   CNO 6946   7.682  13.283  16.784  0.1967 -0.2981  0.0891
  593DOPS   PO4 6947   7.587  13.348  16.446 -0.0183  0.5159 -0.1543
  593DOPS   GL1 6948   7.615  13.172  16.076 -0.3398 -0.1468  0.2374
  593DOPS   GL2 6949   7.469  13.366  15.931 -0.0296  0.0341 -0.3360
  593DOPS   C1A 6950   7.829  13.115  15.675  0.0238 -0.2504 -0.2840
  593DOPS   D2A 6951   7.874  13.311  15.233  0.1465 -0.0707 -0.1192
  593DOPS   C3A 6952   7.488  13.468  14.915 -0.0614  0.2694  0.1957
  593DOPS   C4A 6953   7.143  13.457  14.569  0.0860  0.1462 -0.0545
  593DOPS   C1B 6954   7.301  13.732  15.630 -0.0209  0.2630 -0.2362
  593DOPS   D2B 6955   7.337  14.046  15.346  0.0384  0.1409  0.2624
  593DOPS   C3B 6956   7.580  14.067  14.954  0.0919  0.0636 -0.2123
  593DOPS   C4B 6957   7.908  14.287  14.589 -0.0428  0.0653 -0.1853
  594DOPC   NC3 6958   3.460  22.600  15.932 -0.0414  0.0265  0.1252
  594DOPC   PO4 6959   3.194  22.332  16.063 -0.0945 -0.1431 -0.0277
  594DOPC   GL1 6960   3.040  22.323  15.730 -0.0832  0.0464  0.0987
  594DOPC   GL2 6961   2.832  22.603  15.803  0.0039  0.0507  0.0868
  594DOPC   C1A 6962   3.116  22.197  15.293  0.0811  0.2550 -0.2149
  594DOPC   D2A 6963   3.484  22.241  14.994 -0.2016  0.1862 -0.1574
  594DOPC   C3A 6964   3.601  22.344  14.538 -0.3227 -0.2873 -0.2190
  594DOPC   C4A 6965   3.544  22.469  14.124  0.2910 -0.1440 -0.1163
  594DOPC   C1B 6966   2.747  22.494  15.297  0.2897 -0.4892  0.3445
  594DOPC   D2B 6967   2.801  22.466  14.842  0.1172  0.2051 -0.0267
  594DOPC   C3B 6968   3.105  22.640  14.544 -0.1754  0.0638 -0.0875
  594DOPC   C4B 6969   3.216  23.032  14.302 -0.1175 -0.0836 -0.1773
  595POSM   NC3 6970   5.342  17.230  16.540 -0.0484  0.1050 -0.2988
  595POSM   PO4 6971   5.270  17.465  16.209 -0.3329  0.1785 -0.0311
  595POSM   AM1 6972   5.161  17.558  15.940  0.0819  0.0002 -0.0852
  595POSM   AM2 6973   4.910  17.574  15.767  0.0831  0.1480 -0.1111
  595POSM   T1A 6974   5.255  17.295  15.512  0.0478  0.3580 -0.1363
  595POSM   C2A 6975   5.373  16.982  15.181 -0.0656 -0.0053  0.0750
  595POSM   C3A 6976   5.343  17.122  14.774 -0.0340 -0.1886  0.1161
  595POSM   C1B 6977   4.715  17.666  15.509  0.1602 -0.0397 -0.1323
  595POSM   D2B 6978   4.655  17.748  15.046  0.4372 -0.2038 -0.2690
  595POSM   C3B 6979   4.913  17.961  14.744 -0.1538  0.1613 -0.1140
  595POSM   C4B 6980   5.117  18.095  14.392  0.1890 -0.0498  0.0885
  596DOPE   NH3 6981   7.162  13.107  16.339  0.0806 -0.0613  0.0806
  596DOPE   PO4 6982   6.924  13.339  16.255 -0.2437 -0.1588  0.1339
  596DOPE   GL1 6983   6.996  13.460  15.873  0.0264 -0.4541  0.1772
  596DOPE   GL2 6984   6.799  13.721  15.927  0.2190  0.1030  0.2024
  596DOPE   C1A 6985   6.885  13.463  15.391  0.0425 -0.0888  0.1234
  596DOPE   D2A 6986   7.119  13.731  15.053  0.0551  0.3403  0.1901
  596DOPE   C3A 6987   7.023  14.135  14.857  0.2142  0.0799 -0.0085
  596DOPE   C4A 6988   6.950  14.274  14.403 -0.0752  0.2029  0.0987
  596DOPE   C1B 6989   6.422  13.517  15.758 -0.1188  0.2391  0.1136
  596DOPE   D2B 6990   5.986  13.576  15.523  0.0764 -0.2364  0.0979
  596DOPE   C3B 6991   5.895  13.787  15.123 -0.0878  0.1242  0.0223
  596DOPE   C4B 6992   6.111  13.900  14.704  0.0286  0.1841  0.2773
  597DOPS   CNO 6993   5.561  12.511  16.241  0.3473  0.0651 -0.3824
  597DOPS   PO4 6994   5.322  12.230  16.243  0.0428 -0.2768 -0.4460
  597DOPS   GL1 6995   5.214  12.198  15.847  0.0198 -0.2893 -0.0578
  597DOPS   GL2 6996   5.514  12.186  15.741  0.0969  0.2892 -0.1538
  597DOPS   C1A 6997   5.174  12.406  15.460  0.1203  0.0277 -0.2168
  597DOPS   D2A 6998   5.263  12.309  15.002 -0.1313  0.1686 -0.0403
  597DOPS   C3A 6999   5.436  12.602  14.711  0.0622 -0.1224  0.0594
  597DOPS   C4A 7000   5.287  12.843  14.303 -0.0522 -0.1207 -0.1356
  597DOPS   C1B 7001   5.656  12.426  15.387 -0.6459  0.0596 -0.0879
  597DOPS   D2B 7002   5.559  12.846  15.175  0.1686 -0.0544  0.3307
  597DOPS   C3B 7003   5.128  12.922  15.033  0.2825 -0.1419 -0.0579
  597DOPS   C4B 7004   4.907  13.139  14.693  0.0668  0.3027 -0.2603
  598DOPS   CNO 7005   5.548  21.385  16.585 -0.0529 -0.2610  0.2416
  598DOPS   PO4 7006   5.716  21.426  16.200  0.0867 -0.3777  0.0138
  598DOPS   GL1 7007   5.823  21.572  15.860 -0.0414  0.1479  0.0553
  598DOPS   GL2 7008   5.942  21.338  15.748 -0.1768 -0.0872 -0.0949
  598DOPS   C1A 7009   5.810  21.745  15.419  0.2734  0.1706  0.1365
  598DOPS   D2A 7010   5.550  21.613  15.069  0.1779 -0.0815  0.0471
  598DOPS   C3A 7011   5.605  21.216  14.830  0.2723 -0.0651 -0.0992
  598DOPS   C4A 7012   5.451  20.771  14.873  0.2117 -0.1492 -0.1016
  598DOPS   C1B 7013   6.257  20.971  15.751 -0.1234 -0.0517 -0.0641
  598DOPS   D2B 7014   6.552  20.827  15.421 -0.1589 -0.1576  0.1740
  598DOPS   C3B 7015   6.382  20.764  14.969  0.0980  0.0803 -0.1190
  598DOPS   C4B 7016   6.088  21.028  14.730 -0.0364 -0.1857 -0.0152
  599DOPE   NH3 7017  10.879  12.182  15.566  0.2846  0.2041  0.1703
  599DOPE   PO4 7018  10.727  11.952  15.761 -0.1686  0.0949  0.3728
  599DOPE   GL1 7019  10.706  11.638  15.500  0.3705  0.0160  0.1182
  599DOPE   GL2 7020  10.664  11.759  15.221 -0.3132  0.2478  0.1309
  599DOPE   C1A 7021  11.039  11.427  15.264 -0.2281 -0.1045  0.1225
  599DOPE   D2A 7022  11.251  11.627  14.931  0.0526 -0.2223 -0.0080
  599DOPE   C3A 7023  10.985  11.752  14.515  0.3402  0.2080  0.0869
  599DOPE   C4A 7024  10.634  11.850  14.166 -0.1624 -0.3516 -0.0906
  599DOPE   C1B 7025  10.513  11.401  14.991 -0.0944 -0.0835  0.2944
  599DOPE   D2B 7026  10.229  11.036  15.006  0.0194  0.1454 -0.0415
  599DOPE   C3B 7027  10.456  10.771  14.688 -0.0508 -0.2002  0.2699
  599DOPE   C4B 7028  10.665  10.450  14.342 -0.0854 -0.1831 -0.2901
  600DOPC   NC3 7029   6.268  14.443  16.550 -0.0675  0.2114  0.1504
  600DOPC   PO4 7030   6.593  14.199  16.606 -0.0810  0.2726  0.4794
  600DOPC   GL1 7031   6.513  13.999  16.357 -0.3256 -0.0695 -0.1196
  600DOPC   GL2 7032   6.655  13.743  16.435  0.1265 -0.2306  0.2529
  600DOPC   C1A 7033   6.465  14.052  15.890 -0.0697  0.3701  0.1019
  600DOPC   D2A 7034   6.161  14.131  15.621 -0.4446  0.0931 -0.1473
  600DOPC   C3A 7035   6.073  14.275  15.144 -0.2548  0.0966  0.0360
  600DOPC   C4A 7036   5.734  14.383  14.858 -0.1478 -0.0971 -0.0415
  600DOPC   C1B 7037   6.305  13.636  16.247 -0.1637 -0.2798 -0.1121
  600DOPC   D2B 7038   5.964  13.909  16.183 -0.0352 -0.1721  0.0048
  600DOPC   C3B 7039   5.643  13.933  15.889  0.0016  0.2247 -0.0966
  600DOPC   C4B 7040   5.530  13.728  15.531  0.0660  0.0600 -0.1491
  601DOPS   CNO 7041  10.852  17.416  15.588  0.0302  0.5775  0.1514
  601DOPS   PO4 7042  11.102  17.656  15.526 -0.3897  0.0511  0.0263
  601DOPS   GL1 7043  11.123  17.506  15.192  0.0753 -0.2140 -0.2948
  601DOPS   GL2 7044  11.142  17.719  14.970  0.0373 -0.3437 -0.2080
  601DOPS   C1A 7045  10.693  17.550  15.051 -0.0326 -0.2632  0.0301
  601DOPS   D2A 7046  10.407  17.594  14.700 -0.0631  0.1414 -0.3065
  601DOPS   C3A 7047  10.391  17.309  14.344 -0.1782  0.2881  0.0799
  601DOPS   C4A 7048  10.389  17.122  13.895 -0.0700 -0.0309 -0.0712
  601DOPS   C1B 7049  10.802  17.861  14.641  0.2457  0.2737  0.2166
  601DOPS   D2B 7050  10.450  18.133  14.628  0.2987 -0.1313  0.0057
  601DOPS   C3B 7051  10.105  18.275  14.314 -0.1518 -0.0934  0.0887
  601DOPS   C4B 7052   9.797  17.973  14.082 -0.1964  0.0499  0.0404
  602DOPE   NH3 7053   3.330  22.005  16.406 -0.1986 -0.0586 -0.1035
  602DOPE   PO4 7054   3.575  22.136  16.333  0.1257 -0.0661  0.1770
  602DOPE   GL1 7055   3.641  22.159  15.965 -0.0997 -0.0620 -0.0837
  602DOPE   GL2 7056   3.428  21.920  15.899  0.1990  0.0137 -0.1067
  602DOPE   C1A 7057   3.890  21.901  15.735 -0.1523  0.1144 -0.0480
  602DOPE   D2A 7058   3.874  21.828  15.277 -0.0660 -0.0503  0.1069
  602DOPE   C3A 7059   3.712  21.841  14.846  0.1110 -0.0051 -0.0884
  602DOPE   C4A 7060   3.694  21.418  14.678 -0.0302 -0.1374 -0.1555
  602DOPE   C1B 7061   3.410  21.670  15.585 -0.0820 -0.0367  0.0084
  602DOPE   D2B 7062   3.431  21.339  15.270 -0.0740  0.0505 -0.2311
  602DOPE   C3B 7063   3.407  20.955  15.527 -0.1325 -0.1171  0.0277
  602DOPE   C4B 7064   3.066  20.743  15.795  0.1142  0.0018 -0.2841
  603DOPE   NH3 7065   7.923  19.894  15.811 -0.2259  0.2150 -0.3046
  603DOPE   PO4 7066   8.207  19.781  15.743 -0.2069  0.1934 -0.2043
  603DOPE   GL1 7067   8.211  19.621  15.374 -0.3039 -0.0026 -0.0765
  603DOPE   GL2 7068   8.404  19.708  15.261  0.1601  0.2580  0.1071
  603DOPE   C1A 7069   8.281  19.162  15.201 -0.1954 -0.1854 -0.2304
  603DOPE   D2A 7070   8.105  18.815  15.020 -0.0993  0.1357 -0.0337
  603DOPE   C3A 7071   7.941  18.869  14.582 -0.1698 -0.1227 -0.2862
  603DOPE   C4A 7072   7.811  18.867  14.178  0.0104  0.0542  0.0235
  603DOPE   C1B 7073   8.380  19.625  14.769 -0.0803  0.0034 -0.2164
  603DOPE   D2B 7074   8.349  19.191  14.619 -0.1761  0.0982 -0.0475
  603DOPE   C3B 7075   8.291  19.011  14.159 -0.4111  0.1589 -0.1842
  603DOPE   C4B 7076   8.207  18.975  13.732  0.4753 -0.2773  0.3136
  604DOPE   NH3 7077   6.779  16.363  16.316  0.2728  0.0899 -0.1239
  604DOPE   PO4 7078   7.014  16.307  16.083  0.1009  0.0981  0.0006
  604DOPE   GL1 7079   6.974  16.135  15.721 -0.3502 -0.1096  0.1230
  604DOPE   GL2 7080   6.882  16.371  15.609 -0.0510 -0.0194 -0.0843
  604DOPE   C1A 7081   6.879  15.905  15.319  0.1343  0.1325 -0.2657
  604DOPE   D2A 7082   6.601  16.004  14.933 -0.0328  0.0437  0.2026
  604DOPE   C3A 7083   6.507  16.427  14.836  0.2693  0.0928  0.0080
  604DOPE   C4A 7084   6.368  16.872  14.838 -0.0038 -0.2482  0.0786
  604DOPE   C1B 7085   7.046  16.775  15.487 -0.0977 -0.0060 -0.0285
  604DOPE   D2B 7086   7.112  16.831  15.031 -0.2449  0.0073 -0.1689
  604DOPE   C3B 7087   6.954  17.165  14.678 -0.2110  0.0253  0.1868
  604DOPE   C4B 7088   6.750  17.410  14.342  0.0681 -0.2402 -0.0626
  605DOPC   NC3 7089  11.183  23.179  16.197  0.0842  0.1062 -0.0446
  605DOPC   PO4 7090  11.087  23.135  15.816 -0.0245 -0.1384 -0.1946
  605DOPC   GL1 7091  11.131  22.926  15.486 -0.0521  0.2696 -0.0687
  605DOPC   GL2 7092  11.267  23.107  15.213  0.2901  0.1298  0.0999
  605DOPC   C1A 7093  11.325  22.590  15.236  0.0729 -0.0310  0.1209
  605DOPC   D2A 7094  11.634  22.283  15.098  0.0437  0.1704 -0.0174
  605DOPC   C3A 7095  11.916  22.505  14.787 -0.2647 -0.0437 -0.0626
  605DOPC   C4A 7096  12.206  22.776  14.503  0.0280  0.0095  0.1668
  605DOPC   C1B 7097  11.047  22.838  14.874 -0.2345 -0.0510  0.2096
  605DOPC   D2B 7098  10.804  22.509  14.697  0.1329 -0.0474 -0.0255
  605DOPC   C3B 7099  10.925  22.352  14.316  0.4143  0.2932  0.0290
  605DOPC   C4B 7100  11.081  21.942  14.172  0.0236 -0.1052 -0.3556
  606POSM   NC3 7101   2.686  18.329  16.301 -0.0002 -0.0142  0.3683
  606POSM   PO4 7102   2.271  18.336  16.425 -0.2929 -0.1397  0.2497
  606POSM   AM1 7103   2.196  18.335  16.135 -0.2209 -0.2272  0.1631
  606POSM   AM2 7104   1.994  18.166  16.002 -0.2218  0.5274 -0.5409
  606POSM   T1A 7105   2.071  18.437  15.636 -0.1558  0.1131 -0.0806
  606POSM   C2A 7106   1.940  18.142  15.316  0.0882  0.0631 -0.3640
  606POSM   C3A 7107   2.123  17.729  15.125  0.1540 -0.1555 -0.0550
  606POSM   C1B 7108   1.901  17.938  15.842 -0.1257  0.0858 -0.0971
  606POSM   D2B 7109   1.652  17.609  15.625 -0.1908 -0.0070  0.1404
  606POSM   C3B 7110   1.509  17.210  15.689 -0.0099  0.0315  0.0059
  606POSM   C4B 7111   1.576  16.739  15.595  0.2541  0.0061  0.1160
  607POSM   NC3 7112   0.128  21.019  16.680  0.0413  0.0827  0.0377
  607POSM   PO4 7113  -0.221  20.853  16.641  0.2130 -0.2024  0.0020
  607POSM   AM1 7114  -0.165  20.898  16.331 -0.1882 -0.0110 -0.4348
  607POSM   AM2 7115  -0.159  20.703  16.128 -0.3463  0.0248 -0.2409
  607POSM   T1A 7116  -0.490  21.041  15.994  0.0098  0.0369 -0.0455
  607POSM   C2A 7117  -0.669  21.410  15.830 -0.0943  0.0135 -0.3050
  607POSM   C3A 7118  -0.454  21.738  15.526  0.2359 -0.0349 -0.1344
  607POSM   C1B 7119  -0.169  20.725  15.829 -0.3374  0.0098 -0.0263
  607POSM   D2B 7120  -0.102  20.878  15.348  0.0864  0.4944 -0.1098
  607POSM   C3B 7121  -0.039  20.800  14.890 -0.1366 -0.1204 -0.2161
  607POSM   C4B 7122  -0.005  20.594  14.472 -0.3522  0.0588 -0.0948
  608DOPC   NC3 7123   4.861  16.639  16.637  0.0338 -0.3344  0.1053
  608DOPC   PO4 7124   5.196  16.765  16.518 -0.3541 -0.0702 -0.4364
  608DOPC   GL1 7125   5.541  16.737  16.192 -0.3188  0.0949 -0.2050
  608DOPC   GL2 7126   5.396  16.999  16.076 -0.0688 -0.0855 -0.2656
  608DOPC   C1A 7127   5.301  16.485  15.867 -0.4308  0.2035  0.3356
  608DOPC   D2A 7128   4.894  16.348  15.729  0.0205  0.0369  0.1503
  608DOPC   C3A 7129   4.990  15.945  15.925 -0.0467  0.2100 -0.3423
  608DOPC   C4A 7130   5.360  15.652  15.908 -0.0742  0.1689 -0.0617
  608DOPC   C1B 7131   5.517  16.840  15.658  0.0919  0.1053 -0.1523
  608DOPC   D2B 7132   5.453  16.525  15.354 -0.1217  0.1638  0.1197
  608DOPC   C3B 7133   5.484  16.640  14.879  0.0620 -0.0268  0.0152
  608DOPC   C4B 7134   5.430  16.784  14.453  0.1504  0.2551  0.0667
  609DOPC   NC3 7135   7.390  16.411  15.784 -0.0565 -0.0263  0.1075
  609DOPC   PO4 7136   7.414  16.745  16.041 -0.1537  0.1748  0.2738
  609DOPC   GL1 7137   7.571  16.915  15.750  0.0751  0.0346 -0.1891
  609DOPC   GL2 7138   7.540  17.184  15.748  0.2016  0.3137  0.0032
  609DOPC   C1A 7139   7.547  16.771  15.319 -0.0065  0.0325 -0.2329
  609DOPC   D2A 7140   7.888  16.797  14.982 -0.1051  0.0881 -0.0724
  609DOPC   C3A 7141   8.062  17.060  14.592 -0.2873  0.0918  0.0522
  609DOPC   C4A 7142   8.068  17.500  14.383 -0.1670 -0.0447 -0.0471
  609DOPC   C1B 7143   7.343  17.245  15.294 -0.2226 -0.0419 -0.2407
  609DOPC   D2B 7144   7.443  17.105  14.814  0.1648  0.0513 -0.1557
  609DOPC   C3B 7145   7.264  16.761  14.474  0.1846 -0.0264  0.2173
  609DOPC   C4B 7146   7.329  16.702  14.073 -0.2346  0.3045  0.0635
  610DOPS   CNO 7147   0.862  19.922  16.711  0.1860 -0.2501 -0.1076
  610DOPS   PO4 7148   1.111  19.886  16.404  0.0519 -0.0119 -0.2526
  610DOPS   GL1 7149   1.226  20.075  16.031  0.3472 -0.0189  0.2917
  610DOPS   GL2 7150   1.030  19.999  15.851 -0.2792 -0.0577  0.0988
  610DOPS   C1A 7151   1.248  20.352  15.637 -0.2560  0.2103  0.1723
  610DOPS   D2A 7152   1.244  20.601  15.259  0.0470 -0.0582  0.0661
  610DOPS   C3A 7153   1.566  20.837  15.059  0.3124  0.0122  0.0497
  610DOPS   C4A 7154   1.712  21.044  14.653  0.0213 -0.0487 -0.3520
  610DOPS   C1B 7155   0.768  20.195  15.521  0.0638  0.0268  0.0637
  610DOPS   D2B 7156   0.779  20.357  15.124  0.0020  0.0616 -0.0761
  610DOPS   C3B 7157   1.053  20.395  14.737  0.0415  0.2780 -0.0837
  610DOPS   C4B 7158   1.430  20.633  14.617  0.1558 -0.0772 -0.0578
  611DOPE   NH3 7159   7.912  12.286  16.108 -0.2341 -0.1668 -0.2171
  611DOPE   PO4 7160   7.622  12.357  16.231 -0.1647  0.0902  0.4330
  611DOPE   GL1 7161   7.627  12.548  15.867 -0.1041  0.1359 -0.3340
  611DOPE   GL2 7162   7.417  12.755  15.980  0.0462  0.1057 -0.1786
  611DOPE   C1A 7163   7.584  12.730  15.458  0.0910  0.0294 -0.0942
  611DOPE   D2A 7164   7.652  12.923  15.066  0.1104  0.0953  0.0627
  611DOPE   C3A 7165   7.363  12.821  14.759  0.0255 -0.0520  0.2803
  611DOPE   C4A 7166   7.296  12.989  14.354  0.0341  0.1770 -0.0443
  611DOPE   C1B 7167   7.208  13.066  15.641  0.2013  0.2062 -0.2295
  611DOPE   D2B 7168   7.214  13.190  15.170 -0.0550 -0.3047 -0.1635
  611DOPE   C3B 7169   6.886  13.033  14.936 -0.1137  0.2291  0.0860
  611DOPE   C4B 7170   6.846  12.849  14.504 -0.0003 -0.2754 -0.0188
  612DOPS   CNO 7171   9.179  16.793  15.989  0.2421 -0.0945  0.1068
  612DOPS   PO4 7172   9.181  16.580  15.694 -0.0364 -0.3246 -0.0537
  612DOPS   GL1 7173   9.355  16.781  15.355 -0.3696  0.1657 -0.4769
  612DOPS   GL2 7174   9.261  16.608  15.173 -0.0276 -0.0523 -0.1370
  612DOPS   C1A 7175   9.247  17.081  15.065 -0.2123 -0.1433 -0.0204
  612DOPS   D2A 7176   9.434  17.380  14.738 -0.0428  0.0761  0.0588
  612DOPS   C3A 7177   9.384  17.397  14.271  0.3301  0.1644 -0.1050
  612DOPS   C4A 7178   9.534  17.621  13.898 -0.0601 -0.0152 -0.0301
  612DOPS   C1B 7179   9.014  16.617  14.789  0.1358 -0.2563 -0.3735
  612DOPS   D2B 7180   8.644  16.401  14.684  0.0782 -0.0190 -0.0089
  612DOPS   C3B 7181   8.461  16.043  14.565  0.1332 -0.2412  0.1819
  612DOPS   C4B 7182   8.275  15.672  14.662  0.2633  0.1269  0.2173
  613DOPE   NH3 7183   9.356  12.642  11.798 -0.2322 -0.1745 -0.2270
  613DOPE   PO4 7184   9.622  12.637  11.965 -0.0656  0.0068  0.1031
  613DOPE   GL1 7185   9.911  12.753  12.167 -0.2282  0.1637  0.1117
  613DOPE   GL2 7186  10.182  12.642  11.992  0.2103 -0.2333  0.0360
  613DOPE   C1A 7187  10.271  13.040  12.231 -0.0899  0.0340  0.1495
  613DOPE   D2A 7188  10.688  12.984  12.394  0.2760  0.0154 -0.0827
  613DOPE   C3A 7189  10.823  12.816  12.826  0.0932 -0.0931 -0.2449
  613DOPE   C4A 7190  11.034  13.049  13.171 -0.4160  0.1123 -0.2543
  613DOPE   C1B 7191  10.459  12.780  11.559  0.1195 -0.1691  0.3275
  613DOPE   D2B 7192  10.628  13.174  11.442 -0.1556  0.1772  0.3253
  613DOPE   C3B 7193  11.053  13.251  11.430 -0.2581  0.0974  0.0295
  613DOPE   C4B 7194  11.443  13.062  11.316  0.1669 -0.0818 -0.1805
  614DOPS   CNO 7195   1.423  15.203  12.487  0.1884  0.1682  0.1930
  614DOPS   PO4 7196   1.679  15.467  12.621 -0.3970  0.4722  0.1989
  614DOPS   GL1 7197   1.839  15.388  13.007  0.1226 -0.1243 -0.0088
  614DOPS   GL2 7198   1.786  15.218  13.124 -0.2538 -0.2444 -0.1672
  614DOPS   C1A 7199   2.164  15.655  13.219  0.1437 -0.0477  0.0435
  614DOPS   D2A 7200   2.520  15.647  13.443  0.0639 -0.0742  0.0595
  614DOPS   C3A 7201   2.588  15.296  13.693  0.0134  0.1017  0.5573
  614DOPS   C4A 7202   2.836  15.043  13.968  0.1316  0.1721 -0.1003
  614DOPS   C1B 7203   1.654  15.213  13.579  0.0096  0.0318 -0.4466
  614DOPS   D2B 7204   1.398  15.437  13.936  0.0875  0.1254 -0.0111
  614DOPS   C3B 7205   1.259  14.988  14.095  0.3379 -0.1806  0.1342
  614DOPS   C4B 7206   1.369  14.533  13.899  0.0521  0.2228  0.0828
  615DOPE   NH3 7207   9.243  13.313  12.415 -0.0176  0.0337 -0.1138
  615DOPE   PO4 7208   9.180  13.505  12.167  0.2066 -0.1652 -0.0980
  615DOPE   GL1 7209   9.115  13.828  12.462  0.3787 -0.0034 -0.4369
  615DOPE   GL2 7210   9.231  14.081  12.416 -0.2456 -0.4911  0.0540
  615DOPE   C1A 7211   8.779  13.957  12.721  0.0306 -0.0289  0.1709
  615DOPE   D2A 7212   8.810  14.020  13.162  0.0270 -0.0736  0.1328
  615DOPE   C3A 7213   8.808  14.305  13.514 -0.0264 -0.1895  0.2004
  615DOPE   C4A 7214   8.970  14.691  13.616 -0.2191 -0.1572  0.0957
  615DOPE   C1B 7215   9.286  14.020  12.873  0.0990  0.0359 -0.0303
  615DOPE   D2B 7216   9.622  13.743  13.044  0.0913 -0.5361 -0.0780
  615DOPE   C3B 7217   9.773  13.838  13.452  0.1252  0.0103  0.2313
  615DOPE   C4B 7218  10.205  13.976  13.493  0.0950  0.1510  0.0238
  616DOPE   NH3 7219   9.487  12.281  12.682 -0.0682 -0.4072  0.0112
  616DOPE   PO4 7220   9.733  12.450  12.474  0.0786  0.0559 -0.0929
  616DOPE   GL1 7221   9.555  12.771  12.703  0.0171  0.0378  0.0204
  616DOPE   GL2 7222   9.620  12.950  12.455  0.1510 -0.1284  0.0127
  616DOPE   C1A 7223   9.498  13.126  12.986  0.0664 -0.1966 -0.0908
  616DOPE   D2A 7224   9.543  13.235  13.425  0.1850 -0.1467  0.0505
  616DOPE   C3A 7225   9.900  13.378  13.665 -0.0003  0.0243  0.2849
  616DOPE   C4A 7226  10.346  13.417  13.642  0.0388 -0.2332  0.1762
  616DOPE   C1B 7227  10.004  12.999  12.734 -0.0119 -0.1564 -0.1481
  616DOPE   D2B 7228  10.409  13.095  12.914  0.1161  0.2025 -0.0496
  616DOPE   C3B 7229  10.533  13.070  13.383 -0.0335  0.0770 -0.0435
  616DOPE   C4B 7230  10.758  12.856  13.823 -0.0863  0.3375  0.1394
  617DOPC   NC3 7231   9.316  13.263  11.685  0.1869 -0.0569  0.0738
  617DOPC   PO4 7232   9.454  13.131  12.009  0.0082 -0.0055  0.0286
  617DOPC   GL1 7233   9.741  13.321  12.283  0.0034  0.0846 -0.1722
  617DOPC   GL2 7234   9.717  13.622  12.203  0.2262 -0.3424  0.0207
  617DOPC   C1A 7235   9.918  13.502  12.684 -0.0769 -0.2768 -0.0408
  617DOPC   D2A 7236   9.983  13.414  13.138  0.0884  0.0861 -0.0770
  617DOPC   C3A 7237  10.031  13.003  13.237  0.5615  0.0460 -0.1571
  617DOPC   C4A 7238   9.959  12.484  13.118 -0.1615  0.0720 -0.1134
  617DOPC   C1B 7239   9.637  13.936  12.544  0.1231  0.4301 -0.2474
  617DOPC   D2B 7240   9.594  14.373  12.713 -0.0887  0.1573  0.0957
  617DOPC   C3B 7241   9.675  14.303  13.161 -0.0686 -0.0930  0.0621
  617DOPC   C4B 7242  10.034  14.435  13.457 -0.3666  0.1158  0.0847
  618DOPC   NC3 7243   2.031  19.097  13.187  0.1007 -0.0529 -0.1517
  618DOPC   PO4 7244   2.119  19.232  12.848 -0.1521 -0.1403  0.1434
  618DOPC   GL1 7245   2.321  19.603  12.938 -0.2748 -0.1683  0.1470
  618DOPC   GL2 7246   2.338  19.503  13.232  0.1309  0.0400 -0.0774
  618DOPC   C1A 7247   2.274  19.988  13.279 -0.1688 -0.2606  0.2118
  618DOPC   D2A 7248   2.159  20.304  13.509  0.1248 -0.0523  0.0632
  618DOPC   C3A 7249   2.385  20.173  13.916 -0.3643  0.0533 -0.1747
  618DOPC   C4A 7250   2.306  20.075  14.349 -0.1633  0.0097 -0.1019
  618DOPC   C1B 7251   2.480  19.719  13.676  0.1346  0.5888  0.0723
  618DOPC   D2B 7252   2.444  19.638  14.158  0.1896 -0.0903 -0.1809
  618DOPC   C3B 7253   2.861  19.511  14.374  0.0122 -0.0053  0.0381
  618DOPC   C4B 7254   3.302  19.542  14.394  0.2654  0.0072 -0.0562
  619DOPE   NH3 7255   0.870  20.632  12.575 -0.1230 -0.0923  0.1398
  619DOPE   PO4 7256   0.752  20.340  12.481 -0.3760  0.1731  0.0681
  619DOPE   GL1 7257   0.421  20.332  12.664 -0.1077  0.2716  0.0375
  619DOPE   GL2 7258   0.250  20.577  12.536 -0.1537  0.1212 -0.2692
  619DOPE   C1A 7259   0.131  19.990  12.694 -0.1230  0.0347 -0.1612
  619DOPE   D2A 7260  -0.274  19.878  12.849 -0.1378  0.0931 -0.0176
  619DOPE   C3A 7261  -0.362  19.930  13.321  0.0777  0.1596 -0.0367
  619DOPE   C4A 7262  -0.101  19.998  13.684  0.0787 -0.1949 -0.0671
  619DOPE   C1B 7263   0.067  20.458  12.867  0.0892  0.0021  0.1079
  619DOPE   D2B 7264   0.038  20.172  13.197 -0.1512  0.0954  0.3598
  619DOPE   C3B 7265   0.284  19.768  13.325 -0.2350 -0.2462  0.0639
  619DOPE   C4B 7266   0.281  19.369  13.518  0.0054  0.3796 -0.2097
  620DOPE   NH3 7267  10.783  22.149  12.723 -0.2713  0.1615  0.4033
  620DOPE   PO4 7268  10.771  21.972  12.461 -0.0247 -0.2803 -0.0865
  620DOPE   GL1 7269  10.958  21.691  12.761 -0.1856 -0.1429  0.3017
  620DOPE   GL2 7270  10.777  21.683  12.940 -0.0766  0.1383  0.0334
  620DOPE   C1A 7271  11.184  21.297  12.868  0.0446 -0.0447 -0.0411
  620DOPE   D2A 7272  11.474  21.149  13.162 -0.2240 -0.2067  0.0782
  620DOPE   C3A 7273  11.734  21.078  13.555  0.2082 -0.0971  0.1582
  620DOPE   C4A 7274  11.921  21.141  13.976  0.2283  0.1439  0.0760
  620DOPE   C1B 7275  10.401  21.392  12.920  0.2181  0.1224  0.2661
  620DOPE   D2B 7276  10.071  21.136  13.192  0.0043  0.1827 -0.4413
  620DOPE   C3B 7277   9.943  20.828  13.482  0.2334  0.3468  0.2920
  620DOPE   C4B 7278  10.290  20.565  13.654 -0.0089 -0.3147 -0.1333
  621DOPE   NH3 7279   6.303  16.725  12.643 -0.1655  0.2378  0.1704
  621DOPE   PO4 7280   6.321  16.719  12.982 -0.4035 -0.0663 -0.0452
  621DOPE   GL1 7281   6.483  16.906  13.375 -0.1786  0.2743  0.0717
  621DOPE   GL2 7282   6.342  16.733  13.573  0.1631 -0.0111 -0.0070
  621DOPE   C1A 7283   6.292  17.331  13.530  0.2807 -0.1046 -0.1319
  621DOPE   D2A 7284   6.055  17.710  13.772  0.0347 -0.0552 -0.0570
  621DOPE   C3A 7285   6.178  18.117  13.985 -0.1469 -0.2152  0.1345
  621DOPE   C4A 7286   6.114  18.517  14.213 -0.0583  0.0656  0.2737
  621DOPE   C1B 7287   6.315  16.613  14.035 -0.1175  0.2999  0.3145
  621DOPE   D2B 7288   6.127  16.904  14.331 -0.2992  0.1447  0.0102
  621DOPE   C3B 7289   6.168  17.365  14.270 -0.6481  0.0580  0.2422
  621DOPE   C4B 7290   6.459  17.684  14.048 -0.0404  0.1182 -0.0185
  622POSM   NC3 7291   1.060  20.095  12.743  0.0150 -0.1464 -0.3014
  622POSM   PO4 7292   1.431  20.183  12.613  0.1507  0.3387 -0.2597
  622POSM   AM1 7293   1.516  20.188  12.916 -0.2800  0.0109  0.2272
  622POSM   AM2 7294   1.561  20.062  13.132 -0.1232 -0.0200  0.1072
  622POSM   T1A 7295   1.755  20.486  13.266  0.2024 -0.0597 -0.0694
  622POSM   C2A 7296   1.819  20.572  13.744 -0.3266  0.1329 -0.0952
  622POSM   C3A 7297   1.676  20.815  14.164 -0.1238 -0.1171  0.0315
  622POSM   C1B 7298   1.432  20.022  13.441  0.0652 -0.0471  0.1870
  622POSM   D2B 7299   1.600  20.071  13.867  0.0917  0.0049 -0.0299
  622POSM   C3B 7300   1.821  20.293  14.212  0.0452 -0.1149 -0.0521
  622POSM   C4B 7301   1.959  20.412  14.656 -0.0998  0.2257  0.0711
  623DOPE   NH3 7302   3.325  19.497  12.523 -0.2575 -0.1259  0.1424
  623DOPE   PO4 7303   3.211  19.438  12.826  0.1729  0.2446 -0.3075
  623DOPE   GL1 7304   3.509  19.585  12.957 -0.1215  0.1109  0.3995
  623DOPE   GL2 7305   3.527  19.432  13.172  0.0556  0.0103  0.1750
  623DOPE   C1A 7306   3.857  19.924  13.071 -0.2840 -0.0660  0.1609
  623DOPE   D2A 7307   4.225  20.190  13.156  0.1793  0.0996  0.0221
  623DOPE   C3A 7308   4.406  20.034  13.566  0.0668  0.1822  0.0224
  623DOPE   C4A 7309   4.775  20.129  13.812 -0.0502 -0.1661  0.1677
  623DOPE   C1B 7310   3.738  19.411  13.590 -0.2144  0.0987 -0.0517
  623DOPE   D2B 7311   4.012  19.123  13.857  0.0396 -0.1563 -0.3479
  623DOPE   C3B 7312   3.934  19.201  14.332 -0.0088 -0.2534 -0.0959
  623DOPE   C4B 7313   3.623  19.270  14.701  0.1196 -0.3800 -0.1333
  624POSM   NC3 7314   7.401  18.086  12.211 -0.2158 -0.1253 -0.0559
  624POSM   PO4 7315   7.304  18.377  12.493  0.0955  0.0991 -0.1733
  624POSM   AM1 7316   7.279  18.496  12.819  0.0960 -0.2304 -0.1958
  624POSM   AM2 7317   7.332  18.366  13.038 -0.1734 -0.0064 -0.1114
  624POSM   T1A 7318   7.177  18.903  13.102  0.0704  0.0991 -0.0055
  624POSM   C2A 7319   7.414  18.871  13.482  0.0743 -0.0136 -0.0077
  624POSM   C3A 7320   7.324  18.717  13.880 -0.0056  0.0781 -0.0655
  624POSM   C1B 7321   7.263  18.346  13.370  0.0028  0.0947  0.3649
  624POSM   D2B 7322   6.924  18.531  13.636 -0.3129 -0.0192  0.1618
  624POSM   C3B 7323   6.861  18.490  14.085  0.0332 -0.1105  0.1375
  624POSM   C4B 7324   7.095  18.241  14.410 -0.2583 -0.0569 -0.2853
  625POSM   NC3 7325   0.863  12.118  12.322  0.0820 -0.0004  0.1176
  625POSM   PO4 7326   0.583  11.767  12.310  0.2156 -0.3054 -0.0991
  625POSM   AM1 7327   0.593  11.805  12.638  0.1616 -0.0551 -0.1439
  625POSM   AM2 7328   0.535  11.606  12.875  0.3475  0.0625  0.2551
  625POSM   T1A 7329   0.735  12.155  12.967 -0.0260  0.0126  0.1350
  625POSM   C2A 7330   0.916  12.548  13.020 -0.0442  0.2585  0.2674
  625POSM   C3A 7331   1.357  12.768  13.082 -0.2797 -0.4242 -0.0316
  625POSM   C1B 7332   0.830  11.647  13.047  0.4094 -0.0924 -0.1392
  625POSM   D2B 7333   0.965  11.783  13.434 -0.1302 -0.0189 -0.2370
  625POSM   C3B 7334   0.830  12.216  13.480 -0.0270 -0.1416 -0.1983
  625POSM   C4B 7335   0.921  12.428  13.905  0.1393 -0.1715  0.0850
  626DOPC   NC3 7336  10.648  21.435  12.496 -0.0085 -0.0378  0.1071
  626DOPC   PO4 7337  10.514  21.399  12.165 -0.5089  0.3192 -0.1423
  626DOPC   GL1 7338  10.176  21.597  12.201 -0.0391 -0.1859  0.0563
  626DOPC   GL2 7339  10.342  21.883  12.263 -0.0061 -0.2027  0.3705
  626DOPC   C1A 7340  10.134  21.760  12.624 -0.0832  0.1902 -0.1137
  626DOPC   D2A 7341  10.003  21.750  13.056 -0.1974  0.0160  0.0951
  626DOPC   C3A 7342  10.280  21.601  13.417  0.2445 -0.2051 -0.0710
  626DOPC   C4A 7343  10.504  21.695  13.829  0.1309 -0.2146  0.0449
  626DOPC   C1B 7344   9.983  22.118  12.238 -0.1537 -0.0319 -0.0610
  626DOPC   D2B 7345   9.685  22.323  12.520 -0.3006  0.0097 -0.0717
  626DOPC   C3B 7346   9.286  22.042  12.521 -0.2650 -0.0118 -0.6115
  626DOPC   C4B 7347   8.848  22.091  12.498  0.0797 -0.1529  0.0102
  627DOPC   NC3 7348   6.609  20.233  12.374 -0.2599  0.3469  0.1117
  627DOPC   PO4 7349   6.702  20.251  12.766 -0.0341  0.0346  0.0838
  627DOPC   GL1 7350   7.031  20.201  12.656 -0.3542  0.4517  0.0273
  627DOPC   GL2 7351   7.097  20.047  12.404  0.2322 -0.0634 -0.0529
  627DOPC   C1A 7352   7.418  20.129  12.875 -0.1104  0.0221 -0.0139
  627DOPC   D2A 7353   7.682  19.746  13.089 -0.0167 -0.1107  0.0964
  627DOPC   C3A 7354   7.625  19.786  13.568 -0.1621 -0.4786 -0.1347
  627DOPC   C4A 7355   7.868  19.560  13.858  0.1691 -0.0697  0.0928
  627DOPC   C1B 7356   7.060  20.502  12.255 -0.1257 -0.0363  0.2742
  627DOPC   D2B 7357   7.229  20.737  11.858  0.1643 -0.3059  0.5862
  627DOPC   C3B 7358   7.590  21.036  11.970 -0.1572 -0.1412  0.0018
  627DOPC   C4B 7359   7.693  21.109  12.429 -0.0151 -0.2330  0.1574
  628DOPC   NC3 7360   3.303  16.955  12.509  0.1056 -0.2281 -0.1188
  628DOPC   PO4 7361   3.390  17.224  12.770 -0.2213 -0.0508  0.0589
  628DOPC   GL1 7362   3.471  16.910  12.946  0.1753 -0.1395  0.0783
  628DOPC   GL2 7363   3.785  16.998  13.013  0.0746  0.0812 -0.1379
  628DOPC   C1A 7364   3.567  16.747  13.392  0.0831 -0.1293 -0.0131
  628DOPC   D2A 7365   3.662  16.336  13.630  0.2124 -0.0834 -0.0299
  628DOPC   C3A 7366   4.029  16.449  13.965  0.2288  0.1427  0.2890
  628DOPC   C4A 7367   3.956  16.382  14.440  0.0002  0.0862 -0.0424
  628DOPC   C1B 7368   4.160  17.013  13.289 -0.0374  0.1975 -0.0844
  628DOPC   D2B 7369   4.502  16.782  13.054 -0.0676  0.2164  0.1852
  628DOPC   C3B 7370   4.154  16.547  12.831  0.0553  0.0787 -0.0463
  628DOPC   C4B 7371   3.810  16.531  12.520  0.0569 -0.1308  0.1892
  629DOPE   NH3 7372   6.724  12.828  12.638  0.0158  0.0419  0.2672
  629DOPE   PO4 7373   6.958  12.814  12.839 -0.0055  0.2896 -0.2995
  629DOPE   GL1 7374   6.749  12.717  13.159 -0.1676 -0.1264  0.0300
  629DOPE   GL2 7375   6.614  12.914  13.309 -0.0750 -0.0431 -0.0302
  629DOPE   C1A 7376   6.806  12.519  13.545  0.1706  0.1276 -0.2633
  629DOPE   D2A 7377   6.555  12.257  13.858  0.1411 -0.1390 -0.1951
  629DOPE   C3A 7378   6.809  12.016  14.191 -0.0202  0.1191 -0.2070
  629DOPE   C4A 7379   6.956  11.967  14.588 -0.2564 -0.0451  0.1511
  629DOPE   C1B 7380   6.351  12.857  13.718 -0.0353  0.1581 -0.0855
  629DOPE   D2B 7381   6.312  12.774  14.171  0.0462  0.0955  0.0724
  629DOPE   C3B 7382   6.601  12.455  14.292  0.1284  0.1737  0.1896
  629DOPE   C4B 7383   6.469  12.170  14.658 -0.1797 -0.3656  0.1627
  630POSM   NC3 7384   6.256  11.542  12.729 -0.1495  0.0649 -0.0787
  630POSM   PO4 7385   6.502  11.532  13.021 -0.0671  0.1622  0.1494
  630POSM   AM1 7386   6.382  11.310  13.208 -0.1391 -0.3255  0.5101
  630POSM   AM2 7387   6.355  11.374  13.485 -0.0381  0.1460 -0.0352
  630POSM   T1A 7388   6.094  11.008  13.394 -0.1432 -0.0262  0.2820
  630POSM   C2A 7389   5.773  10.714  13.270  0.0077  0.1066 -0.4516
  630POSM   C3A 7390   5.359  10.534  13.178 -0.0304  0.0542 -0.0750
  630POSM   C1B 7391   6.552  11.454  13.756  0.0882  0.0100 -0.0377
  630POSM   D2B 7392   6.945  11.589  13.917  0.2089  0.3278  0.1610
  630POSM   C3B 7393   7.133  11.622  14.304  0.2070 -0.0663 -0.0583
  630POSM   C4B 7394   7.414  11.853  14.609 -0.4417 -0.0831  0.5104
  631DOPE   NH3 7395   0.962  21.329  12.722 -0.0645 -0.0422 -0.4079
  631DOPE   PO4 7396   1.086  21.033  12.718 -0.2431  0.2564  0.0463
  631DOPE   GL1 7397   0.958  20.769  13.027 -0.1833  0.0164 -0.0663
  631DOPE   GL2 7398   1.178  20.575  12.999 -0.1091  0.1849 -0.0012
  631DOPE   C1A 7399   0.867  20.640  13.475  0.1014  0.1383  0.0718
  631DOPE   D2A 7400   0.714  20.527  13.882 -0.1512  0.4957 -0.2640
  631DOPE   C3A 7401   0.731  20.097  14.021 -0.1209 -0.0276 -0.0426
  631DOPE   C4A 7402   0.538  19.776  14.292  0.0325 -0.0939  0.2809
  631DOPE   C1B 7403   1.055  20.188  13.212 -0.0834  0.1905 -0.0383
  631DOPE   D2B 7404   0.742  20.072  13.516  0.3944 -0.0335  0.2117
  631DOPE   C3B 7405   0.302  20.247  13.666  0.0612 -0.1233  0.1359
  631DOPE   C4B 7406   0.288  20.291  14.134 -0.0045  0.1402  0.0074
  632DOPC   NC3 7407   8.944  11.662  12.558 -0.0729  0.3005  0.1798
  632DOPC   PO4 7408   9.054  12.032  12.503 -0.0721  0.1585 -0.0741
  632DOPC   GL1 7409   8.967  12.072  12.935  0.1498 -0.0708 -0.1868
  632DOPC   GL2 7410   9.290  12.101  13.099  0.0245  0.3927 -0.0424
  632DOPC   C1A 7411   8.847  11.815  13.291 -0.0087  0.1699  0.3266
  632DOPC   D2A 7412   8.554  11.567  13.492  0.1931 -0.0841 -0.0511
  632DOPC   C3A 7413   8.491  11.575  13.999 -0.4015  0.1575  0.0290
  632DOPC   C4A 7414   8.289  11.681  14.451  0.1075 -0.1627 -0.1293
  632DOPC   C1B 7415   9.093  12.175  13.555 -0.3911 -0.0328 -0.4128
  632DOPC   D2B 7416   9.219  12.241  13.974 -0.2213 -0.2549  0.2803
  632DOPC   C3B 7417   9.648  12.298  14.071 -0.0527  0.1726 -0.3907
  632DOPC   C4B 7418  10.007  12.546  14.210  0.3327  0.3218 -0.1788
  633POSM   NC3 7419   7.173  11.937  12.512 -0.0434 -0.3951  0.2242
  633POSM   PO4 7420   7.266  12.282  12.686  0.1051 -0.0305  0.1443
  633POSM   AM1 7421   7.403  12.172  12.927  0.3563  0.0480  0.1812
  633POSM   AM2 7422   7.329  12.021  13.156  0.4786 -0.2196 -0.0297
  633POSM   T1A 7423   7.871  12.120  13.026 -0.3878  0.0031  0.0576
  633POSM   C2A 7424   8.024  12.347  13.416  0.0478 -0.0314 -0.1302
  633POSM   C3A 7425   7.991  12.399  13.875  0.0115  0.1491 -0.3253
  633POSM   C1B 7426   7.534  11.961  13.417 -0.2370 -0.2948  0.1497
  633POSM   D2B 7427   7.628  11.932  13.866  0.0991  0.1459 -0.2880
  633POSM   C3B 7428   7.322  12.154  14.136 -0.2393  0.2253 -0.0488
  633POSM   C4B 7429   7.140  12.477  14.327  0.0380 -0.1961 -0.0631
  634DOPE   NH3 7430   7.774  17.752  12.473 -0.1088 -0.1634 -0.0974
  634DOPE   PO4 7431   7.623  18.003  12.662  0.2073  0.4475  0.2087
  634DOPE   GL1 7432   7.778  18.323  12.856 -0.0273 -0.0861 -0.2750
  634DOPE   GL2 7433   7.888  18.109  13.062  0.1412 -0.1201 -0.0509
  634DOPE   C1A 7434   7.749  18.554  13.277  0.2616 -0.1213 -0.0628
  634DOPE   D2A 7435   7.878  18.658  13.740 -0.1678  0.2954  0.0784
  634DOPE   C3A 7436   8.182  18.532  14.078  0.0263  0.0284  0.3300
  634DOPE   C4A 7437   8.369  18.629  14.521 -0.3041  0.1869 -0.2685
  634DOPE   C1B 7438   8.007  17.744  13.332 -0.1400 -0.2577  0.3616
  634DOPE   D2B 7439   8.290  17.690  13.694 -0.2900 -0.2207 -0.0555
  634DOPE   C3B 7440   8.711  17.460  13.721 -0.1129 -0.1720 -0.0764
  634DOPE   C4B 7441   9.004  17.126  13.812  0.1943 -0.4056  0.0662
  635DOPE   NH3 7442   0.527  14.496  12.417  0.2326 -0.0056  0.2567
  635DOPE   PO4 7443   0.383  14.792  12.462  0.0020 -0.1204 -0.0128
  635DOPE   GL1 7444   0.273  15.187  12.658 -0.0093  0.0958 -0.2158
  635DOPE   GL2 7445   0.517  15.387  12.679 -0.1995  0.1738 -0.0349
  635DOPE   C1A 7446  -0.017  15.523  12.771 -0.5846 -0.1806 -0.0465
  635DOPE   D2A 7447  -0.229  15.736  13.147  0.1050  0.0735 -0.2340
  635DOPE   C3A 7448  -0.126  16.142  13.320  0.0282 -0.1493 -0.2986
  635DOPE   C4A 7449   0.197  16.436  13.516  0.1672  0.1416  0.1397
  635DOPE   C1B 7450   0.382  15.553  13.071 -0.1498  0.3675 -0.0227
  635DOPE   D2B 7451   0.357  15.933  13.205  0.0519 -0.0599  0.0437
  635DOPE   C3B 7452   0.226  16.303  12.972 -0.2233  0.1959  0.1370
  635DOPE   C4B 7453  -0.111  16.545  12.683 -0.1409  0.2063  0.1528
  636DOPC   NC3 7454   3.698  18.017  12.854  0.2742 -0.1819  0.2667
  636DOPC   PO4 7455   3.847  18.397  12.771  0.2378 -0.3115 -0.0092
  636DOPC   GL1 7456   3.914  18.504  13.163 -0.4665  0.0888  0.1385
  636DOPC   GL2 7457   4.010  18.216  13.233  0.0124  0.0703  0.0352
  636DOPC   C1A 7458   4.142  18.614  13.578 -0.1819 -0.1861  0.0531
  636DOPC   D2A 7459   4.386  18.766  13.945 -0.0839  0.0736  0.4568
  636DOPC   C3A 7460   4.108  18.583  14.320  0.0546  0.0222  0.1101
  636DOPC   C4A 7461   3.864  18.309  14.529 -0.0643 -0.2457  0.0118
  636DOPC   C1B 7462   4.476  18.405  13.163 -0.0341 -0.3168 -0.3007
  636DOPC   D2B 7463   4.693  18.690  13.468  0.1987  0.1695  0.3053
  636DOPC   C3B 7464   4.829  18.341  13.683 -0.0806  0.1262 -0.0471
  636DOPC   C4B 7465   4.813  17.843  13.741 -0.2365  0.1071 -0.0991
  637DOPE   NH3 7466   1.997  19.596  12.491 -0.1224 -0.2340 -0.0463
  637DOPE   PO4 7467   1.745  19.800  12.564  0.0662  0.2095  0.1602
  637DOPE   GL1 7468   1.876  19.731  12.963  0.1261  0.0467  0.2602
  637DOPE   GL2 7469   1.744  19.455  13.050  0.1586  0.0388  0.1955
  637DOPE   C1A 7470   1.857  19.790  13.456  0.1358  0.0447  0.0883
  637DOPE   D2A 7471   2.042  19.682  13.901 -0.2491  0.1186  0.3840
  637DOPE   C3A 7472   1.839  19.795  14.291  0.2108  0.2000  0.0548
  637DOPE   C4A 7473   1.879  19.865  14.707  0.2659  0.1593 -0.1481
  637DOPE   C1B 7474   1.541  19.361  13.484 -0.1483 -0.0562 -0.1604
  637DOPE   D2B 7475   1.204  19.196  13.752 -0.2850  0.1396  0.2923
  637DOPE   C3B 7476   1.039  19.396  14.082  0.0537  0.0593 -0.0091
  637DOPE   C4B 7477   1.083  19.375  14.610 -0.1313  0.0803  0.0557
  638POSM   NC3 7478   7.946  17.535  12.847  0.1247 -0.1117 -0.0544
  638POSM   PO4 7479   7.582  17.372  12.807  0.0870 -0.1797 -0.0022
  638POSM   AM1 7480   7.654  17.275  13.175  0.1296  0.0032 -0.2462
  638POSM   AM2 7481   7.922  17.253  13.333  0.0142 -0.2317 -0.2492
  638POSM   T1A 7482   7.706  17.547  13.660 -0.0631  0.1842  0.4686
  638POSM   C2A 7483   7.369  17.705  13.896  0.1397 -0.3556 -0.0905
  638POSM   C3A 7484   6.924  17.534  13.831  0.3330  0.0192 -0.1024
  638POSM   C1B 7485   8.019  17.146  13.658 -0.4129  0.1704  0.1762
  638POSM   D2B 7486   7.864  16.958  14.039 -0.2127 -0.2225 -0.0777
  638POSM   C3B 7487   7.544  17.148  14.338 -0.0137 -0.0497 -0.1440
  638POSM   C4B 7488   7.255  17.433  14.379  0.1892 -0.2076 -0.0314
  639DOPC   NC3 7489   8.470  19.595  12.137 -0.1568 -0.0073  0.3509
  639DOPC   PO4 7490   8.758  19.356  12.014 -0.2393 -0.2676 -0.2138
  639DOPC   GL1 7491   8.817  19.350  12.354  0.1405 -0.2603 -0.5753
  639DOPC   GL2 7492   8.628  19.204  12.534 -0.0932 -0.2305  0.4018
  639DOPC   C1A 7493   8.677  19.778  12.535 -0.3836  0.3089 -0.1703
  639DOPC   D2A 7494   8.543  20.187  12.598  0.3484  0.0460 -0.1673
  639DOPC   C3A 7495   8.868  20.419  12.839  0.0679 -0.1996 -0.1833
  639DOPC   C4A 7496   8.936  20.781  13.145 -0.3170  0.0004 -0.2862
  639DOPC   C1B 7497   8.361  19.356  12.846  0.0876  0.0626  0.0380
  639DOPC   D2B 7498   8.207  19.603  13.231  0.3553  0.1717  0.0433
  639DOPC   C3B 7499   8.072  19.965  13.421  0.2097 -0.1061 -0.0199
  639DOPC   C4B 7500   7.877  20.349  13.692 -0.1025 -0.3086  0.0381
  640POSM   NC3 7501   7.023  21.717  11.960  0.2839 -0.2334  0.4292
  640POSM   PO4 7502   6.969  21.550  12.294 -0.1522  0.0432  0.3772
  640POSM   AM1 7503   7.191  21.667  12.551  0.0163 -0.0414  0.0929
  640POSM   AM2 7504   7.200  21.929  12.619  0.1377  0.0878  0.1478
  640POSM   T1A 7505   7.163  21.555  13.041  0.1621  0.0376 -0.0836
  640POSM   C2A 7506   7.025  21.820  13.377  0.0446 -0.1271  0.3164
  640POSM   C3A 7507   6.928  22.217  13.584  0.1440 -0.2716 -0.0246
  640POSM   C1B 7508   7.345  21.997  12.916 -0.1590  0.1859  0.2716
  640POSM   D2B 7509   7.450  22.147  13.365  0.2286  0.1787  0.2715
  640POSM   C3B 7510   7.459  21.861  13.747 -0.3003 -0.2419  0.1136
  640POSM   C4B 7511   7.855  21.683  13.931 -0.0061  0.0189  0.2532
  641DOPE   NH3 7512   6.452  12.032  13.093  0.0018 -0.1404  0.1752
  641DOPE   PO4 7513   6.218  12.043  12.844  0.0279 -0.0776  0.0299
  641DOPE   GL1 7514   5.948  12.037  13.162  0.2281  0.3471  0.1720
  641DOPE   GL2 7515   5.868  11.802  13.074  0.0217  0.1377 -0.0736
  641DOPE   C1A 7516   6.068  11.914  13.575  0.0394  0.3621  0.1893
  641DOPE   D2A 7517   6.320  11.850  13.934 -0.4657 -0.2719 -0.0854
  641DOPE   C3A 7518   6.203  12.170  14.225  0.0295 -0.0705  0.0797
  641DOPE   C4A 7519   5.890  12.237  14.550  0.1574  0.1395  0.0080
  641DOPE   C1B 7520   5.670  11.355  13.293  0.3607  0.1351 -0.0992
  641DOPE   D2B 7521   5.279  11.122  13.344  0.1443  0.0830 -0.0424
  641DOPE   C3B 7522   5.408  10.778  13.703  0.0215  0.2871  0.3018
  641DOPE   C4B 7523   5.585  10.850  14.134  0.0317  0.1251  0.1453
  642DOPC   NC3 7524   7.182  15.527  12.968  0.2142 -0.0166 -0.0085
  642DOPC   PO4 7525   7.066  15.658  12.601 -0.2230  0.2080 -0.0428
  642DOPC   GL1 7526   7.528  15.763  12.689 -0.2442  0.1738 -0.2386
  642DOPC   GL2 7527   7.520  15.941  12.827 -0.2954  0.0527  0.0753
  642DOPC   C1A 7528   7.946  15.803  12.611  0.1392  0.2328  0.0877
  642DOPC   D2A 7529   8.429  15.970  12.536 -0.0537 -0.0217  0.1605
  642DOPC   C3A 7530   8.594  15.531  12.426 -0.1868  0.2368  0.1144
  642DOPC   C4A 7531   8.973  15.222  12.438  0.2792  0.1647 -0.1317
  642DOPC   C1B 7532   7.866  15.731  13.127 -0.0889 -0.2415  0.0855
  642DOPC   D2B 7533   8.154  15.595  13.465 -0.0849  0.1021 -0.1184
  642DOPC   C3B 7534   8.485  15.318  13.235 -0.0252  0.1001 -0.1668
  642DOPC   C4B 7535   8.539  15.065  12.865  0.0254 -0.1773 -0.0665
  643DOPE   NH3 7536  10.783  10.990  12.450 -0.1976 -0.1237  0.0091
  643DOPE   PO4 7537  10.731  11.052  12.159 -0.2114 -0.0504  0.0015
  643DOPE   GL1 7538  10.855  11.437  12.208  0.3850 -0.1967 -0.1603
  643DOPE   GL2 7539  11.040  11.473  12.434  0.3706  0.1209  0.0660
  643DOPE   C1A 7540  10.944  11.809  11.969  0.0932 -0.0644 -0.0013
  643DOPE   D2A 7541  10.617  12.176  11.931 -0.3862 -0.4092  0.0490
  643DOPE   C3A 7542  10.829  12.560  12.130 -0.3271  0.0214 -0.2523
  643DOPE   C4A 7543  11.219  12.838  12.216 -0.3538  0.1170 -0.1119
  643DOPE   C1B 7544  11.119  11.863  12.748  0.0812  0.1348 -0.1258
  643DOPE   D2B 7545  11.374  12.184  12.837 -0.0580  0.0742  0.0428
  643DOPE   C3B 7546  11.228  12.529  13.085  0.1269  0.1067  0.0672
  643DOPE   C4B 7547  11.110  12.516  13.533  0.1687  0.1703 -0.1036
  644POSM   NC3 7548   1.443  15.759  12.174  0.0822 -0.3926  0.0561
  644POSM   PO4 7549   1.500  15.978  12.464 -0.0474 -0.0386 -0.2420
  644POSM   AM1 7550   1.496  15.900  12.793  0.2219 -0.0463 -0.2609
  644POSM   AM2 7551   1.340  16.003  13.040  0.1581  0.2757  0.0413
  644POSM   T1A 7552   1.722  15.766  13.272 -0.0479  0.0201  0.1874
  644POSM   C2A 7553   1.705  15.840  13.728 -0.0054  0.1152 -0.0616
  644POSM   C3A 7554   1.456  15.889  14.156  0.3662 -0.1983  0.2204
  644POSM   C1B 7555   1.182  16.242  13.093 -0.2149 -0.1926  0.0671
  644POSM   D2B 7556   0.987  16.464  13.454  0.0417  0.1293  0.3641
  644POSM   C3B 7557   1.335  16.133  13.600 -0.0772  0.1447  0.0175
  644POSM   C4B 7558   1.686  16.300  13.777 -0.0466  0.0328  0.1118
  645DOPC   NC3 7559   6.092  20.132  12.320  0.2884  0.2499 -0.0473
  645DOPC   PO4 7560   6.282  19.773  12.342  0.0645 -0.2480  0.0326
  645DOPC   GL1 7561   6.170  19.454  12.707 -0.1469  0.0235  0.2737
  645DOPC   GL2 7562   6.106  19.296  12.564  0.1824  0.0987  0.0452
  645DOPC   C1A 7563   5.995  19.581  13.050  0.1144 -0.1350 -0.0354
  645DOPC   D2A 7564   5.810  19.737  13.433  0.0910  0.3529  0.0041
  645DOPC   C3A 7565   5.600  19.515  13.778  0.2565  0.0468  0.1619
  645DOPC   C4A 7566   5.414  19.191  14.057  0.0673  0.3524 -0.0495
  645DOPC   C1B 7567   5.909  19.045  12.889 -0.0218  0.1374  0.1039
  645DOPC   D2B 7568   5.498  18.865  13.024 -0.1476  0.1045  0.1138
  645DOPC   C3B 7569   5.676  18.497  12.722  0.1125 -0.0299  0.3906
  645DOPC   C4B 7570   5.826  18.080  12.519 -0.1281  0.1866 -0.3163
  646POSM   NC3 7571   8.278  13.219  12.512  0.2136  0.0712  0.4139
  646POSM   PO4 7572   7.886  13.084  12.495 -0.1464  0.2182  0.0403
  646POSM   AM1 7573   7.925  13.080  12.821 -0.2881 -0.3304  0.1852
  646POSM   AM2 7574   7.982  13.278  12.983  0.0901 -0.1285  0.0726
  646POSM   T1A 7575   7.871  12.760  13.204  0.0617  0.1611 -0.2722
  646POSM   C2A 7576   7.839  12.783  13.631 -0.1168  0.0783  0.2551
  646POSM   C3A 7577   7.444  12.953  13.868 -0.0235 -0.0242 -0.2429
  646POSM   C1B 7578   7.945  13.217  13.326 -0.0250  0.0191  0.2891
  646POSM   D2B 7579   7.928  13.225  13.802  0.1640  0.0251  0.0547
  646POSM   C3B 7580   7.814  13.017  14.183  0.3328  0.1205  0.0192
  646POSM   C4B 7581   7.604  12.592  14.205 -0.0685 -0.4048 -0.0695
  647POSM   NC3 7582   1.235  19.552  12.397 -0.0011 -0.0217  0.2260
  647POSM   PO4 7583   1.192  19.156  12.327 -0.1350  0.1735 -0.4362
  647POSM   AM1 7584   1.244  18.942  12.547 -0.0029  0.3338  0.1974
  647POSM   AM2 7585   1.315  18.911  12.838 -0.0291 -0.1382  0.1723
  647POSM   T1A 7586   1.003  18.529  12.736  0.2374 -0.1731  0.0465
  647POSM   C2A 7587   0.809  18.162  12.608  0.1211 -0.1078  0.0979
  647POSM   C3A 7588   0.602  17.779  12.595  0.1774  0.0617  0.0712
  647POSM   C1B 7589   1.147  19.040  13.110 -0.0198 -0.1064 -0.2827
  647POSM   D2B 7590   0.815  19.320  13.367 -0.0718 -0.0458  0.1709
  647POSM   C3B 7591   0.725  19.137  13.799 -0.0565  0.0139  0.1737
  647POSM   C4B 7592   0.497  18.787  13.989  0.0935  0.2481 -0.1452
  648DOPC   NC3 7593   4.434  13.834  12.669 -0.1185  0.1022 -0.0253
  648DOPC   PO4 7594   4.499  13.525  12.451 -0.3189 -0.0965  0.0530
  648DOPC   GL1 7595   4.581  13.400  12.930 -0.0934  0.2143  0.0395
  648DOPC   GL2 7596   4.762  13.609  12.940 -0.2498  0.0402 -0.1925
  648DOPC   C1A 7597   4.502  13.349  13.406  0.0952 -0.1924  0.0302
  648DOPC   D2A 7598   4.475  13.257  13.876 -0.3133 -0.1127 -0.3633
  648DOPC   C3A 7599   4.570  13.682  14.069 -0.1964  0.0457 -0.3401
  648DOPC   C4A 7600   4.618  14.114  14.020  0.2373  0.2162  0.3480
  648DOPC   C1B 7601   4.956  13.557  13.332  0.1405 -0.0283 -0.0074
  648DOPC   D2B 7602   4.865  13.527  13.720  0.1399  0.1209  0.0335
  648DOPC   C3B 7603   5.056  13.787  14.114  0.0939 -0.0210  0.2359
  648DOPC   C4B 7604   5.228  14.078  14.462  0.0493 -0.0752 -0.1832
  649DOPE   NH3 7605   3.130  12.796  12.543  0.0571 -0.1291 -0.2099
  649DOPE   PO4 7606   2.930  12.913  12.765 -0.0770 -0.1950  0.2075
  649DOPE   GL1 7607   2.856  13.200  13.049  0.2908  0.3916 -0.1638
  649DOPE   GL2 7608   2.648  13.372  12.971  0.1783  0.0631  0.0301
  649DOPE   C1A 7609   2.880  13.336  13.456 -0.1925 -0.1431  0.0176
  649DOPE   D2A 7610   2.740  13.198  13.867  0.2428  0.0040 -0.2909
  649DOPE   C3A 7611   3.094  12.950  13.909 -0.0871 -0.0582 -0.0087
  649DOPE   C4A 7612   3.559  12.827  13.880 -0.1868  0.0560 -0.1404
  649DOPE   C1B 7613   2.928  13.711  13.096  0.0248 -0.1005 -0.3113
  649DOPE   D2B 7614   3.207  13.943  13.406 -0.0395 -0.4924 -0.2720
  649DOPE   C3B 7615   3.102  13.878  13.816 -0.3052 -0.0468  0.1449
  649DOPE   C4B 7616   2.639  13.832  13.913  0.0045 -0.2704 -0.1936
  650POSM   NC3 7617   3.189  23.634  12.230 -0.0205  0.1240 -0.2191
  650POSM   PO4 7618   3.454  23.825  12.351 -0.0963  0.1958 -0.1304
  650POSM   AM1 7619   3.476  23.764  12.655  0.0098 -0.1592 -0.1901
  650POSM   AM2 7620   3.294  23.605  12.830  0.1470  0.0199  0.0087
  650POSM   T1A 7621   3.745  23.556  13.041 -0.0260 -0.1408  0.0838
  650POSM   C2A 7622   3.793  23.522  13.460  0.1713 -0.0632  0.1233
  650POSM   C3A 7623   4.203  23.516  13.710  0.2104 -0.3111  0.0339
  650POSM   C1B 7624   3.231  23.616  13.208 -0.2056  0.2969  0.1788
  650POSM   D2B 7625   3.082  23.600  13.672  0.0813  0.2196 -0.0284
  650POSM   C3B 7626   3.029  23.726  14.078  0.1104 -0.1724  0.0924
  650POSM   C4B 7627   3.199  24.092  14.313  0.0208 -0.1437 -0.2512
  651POSM   NC3 7628   3.863  14.486  12.560 -0.0557 -0.1831  0.0222
  651POSM   PO4 7629   4.189  14.238  12.507 -0.2693 -0.1117  0.0023
  651POSM   AM1 7630   4.084  14.126  12.815  0.0900 -0.1484  0.1410
  651POSM   AM2 7631   3.841  13.975  12.830 -0.2961  0.1214  0.2053
  651POSM   T1A 7632   4.043  14.195  13.353  0.2091 -0.1713  0.0445
  651POSM   C2A 7633   3.674  14.038  13.635 -0.0310 -0.1733  0.0809
  651POSM   C3A 7634   3.604  13.862  14.088 -0.0891 -0.3787 -0.2714
  651POSM   C1B 7635   3.631  14.205  13.012 -0.2477 -0.1191 -0.2430
  651POSM   D2B 7636   3.368  14.560  12.872 -0.0279 -0.3754 -0.1238
  651POSM   C3B 7637   2.981  14.833  12.998 -0.3336 -0.0374  0.2259
  651POSM   C4B 7638   2.697  14.757  13.367 -0.0396  0.0144  0.1290
  652DOPS   CNO 7639   6.840  16.764  12.506  0.2338  0.2659 -0.1387
  652DOPS   PO4 7640   6.840  16.976  12.829 -0.1435  0.0134 -0.0671
  652DOPS   GL1 7641   6.883  17.076  13.229  0.1032  0.1844 -0.0276
  652DOPS   GL2 7642   6.912  17.060  13.551  0.0798  0.2432  0.2670
  652DOPS   C1A 7643   6.795  17.534  13.333 -0.0696  0.2969 -0.0823
  652DOPS   D2A 7644   6.437  17.810  13.439 -0.0681 -0.1591 -0.1987
  652DOPS   C3A 7645   6.595  18.106  13.745  0.3496  0.0134  0.3287
  652DOPS   C4A 7646   6.874  18.001  14.104  0.2153 -0.2442 -0.2061
  652DOPS   C1B 7647   6.522  17.107  13.901  0.2760 -0.0764 -0.0950
  652DOPS   D2B 7648   6.041  17.049  13.782  0.0983  0.3314 -0.0087
  652DOPS   C3B 7649   5.739  17.156  14.131  0.2054 -0.0733 -0.0186
  652DOPS   C4B 7650   5.728  17.326  14.569 -0.0185  0.2762 -0.0349
  653DOPC   NC3 7651   2.063  22.037  12.725 -0.2541  0.3547 -0.0899
  653DOPC   PO4 7652   1.740  21.884  12.503 -0.4580  0.1725 -0.4763
  653DOPC   GL1 7653   1.848  21.592  12.668 -0.0148 -0.6310 -0.0923
  653DOPC   GL2 7654   1.854  21.613  12.969  0.0269 -0.1615 -0.1521
  653DOPC   C1A 7655   2.316  21.457  12.837  0.0012 -0.1255  0.0193
  653DOPC   D2A 7656   2.569  21.238  13.182 -0.3332  0.1031 -0.2421
  653DOPC   C3A 7657   2.499  21.174  13.597 -0.1880  0.2537  0.1509
  653DOPC   C4A 7658   2.584  21.226  14.054  0.2366  0.2039 -0.3250
  653DOPC   C1B 7659   2.082  21.449  13.363  0.1980 -0.0161  0.0566
  653DOPC   D2B 7660   1.995  21.266  13.735 -0.0286 -0.3124 -0.2511
  653DOPC   C3B 7661   2.105  21.348  14.124  0.0434 -0.0638 -0.0684
  653DOPC   C4B 7662   2.036  21.541  14.524  0.0654  0.0129 -0.1607
  654POSM   NC3 7663  33.252  17.706  12.888  0.1246 -0.0970 -0.0870
  654POSM   PO4 7664  33.527  17.864  12.658  0.0778 -0.0007 -0.0135
  654POSM   AM1 7665  33.755  17.762  12.921 -0.0656  0.1303  0.1904
  654POSM   AM2 7666  33.781  17.529  13.004  0.3090 -0.1442 -0.0347
  654POSM   T1A 7667  34.262  17.786  12.855  0.1247  0.2594  0.2575
  654POSM   C2A 7668  34.706  17.854  12.695 -0.2434  0.0077 -0.0616
  654POSM   C3A 7669  35.055  18.172  12.827  0.1910  0.0358  0.0580
  654POSM   C1B 7670  34.072  17.385  13.085 -0.1944 -0.0767  0.0835
  654POSM   D2B 7671  34.411  17.127  13.259  0.0411 -0.0012  0.0815
  654POSM   C3B 7672  34.796  16.938  13.504  0.1196 -0.3949 -0.0472
  654POSM   C4B 7673  35.115  17.000  13.848 -0.0536  0.0865 -0.0607
  655DOPE   NH3 7674   5.504  14.822  13.255 -0.0303 -0.3280 -0.1136
  655DOPE   PO4 7675   5.283  14.999  13.386 -0.0541 -0.0632  0.0154
  655DOPE   GL1 7676   5.001  14.820  13.520  0.1026 -0.4887  0.1636
  655DOPE   GL2 7677   5.103  14.594  13.625  0.1450 -0.1645  0.1756
  655DOPE   C1A 7678   4.816  14.818  13.954 -0.0996  0.0314 -0.0066
  655DOPE   D2A 7679   4.779  14.947  14.398  0.0295  0.2278 -0.0206
  655DOPE   C3A 7680   5.141  15.137  14.241 -0.1858 -0.0077  0.2229
  655DOPE   C4A 7681   5.556  15.152  14.359  0.2404 -0.1725 -0.1764
  655DOPE   C1B 7682   5.364  14.659  13.970 -0.1712 -0.4303 -0.3152
  655DOPE   D2B 7683   5.373  14.609  14.413  0.0160  0.1821 -0.0071
  655DOPE   C3B 7684   5.160  14.912  14.729 -0.0390  0.0889 -0.2040
  655DOPE   C4B 7685   4.939  15.344  14.749 -0.3137 -0.0050 -0.1945
  656POSM   NC3 7686   1.684  18.983  12.266  0.0217  0.2387 -0.5440
  656POSM   PO4 7687   1.668  19.192  12.611 -0.2108 -0.2776 -0.0289
  656POSM   AM1 7688   1.421  19.385  12.746  0.0774 -0.0759 -0.1481
  656POSM   AM2 7689   1.368  19.686  12.842  0.1499 -0.1172 -0.0198
  656POSM   T1A 7690   0.920  19.432  12.868  0.1163 -0.0063 -0.2224
  656POSM   C2A 7691   0.501  19.441  13.042  0.1871  0.0351 -0.5751
  656POSM   C3A 7692   0.017  19.536  12.999 -0.1297  0.0523 -0.2047
  656POSM   C1B 7693   1.300  19.629  13.136 -0.0979 -0.1355 -0.0878
  656POSM   D2B 7694   1.147  19.663  13.611  0.0175 -0.0542  0.0449
  656POSM   C3B 7695   0.717  19.682  13.766 -0.0239  0.0036 -0.0486
  656POSM   C4B 7696   0.294  19.787  13.861  0.2089 -0.0892 -0.3115
  657POSM   NC3 7697   3.085  18.963  12.710  0.3076 -0.0439  0.0865
  657POSM   PO4 7698   2.892  18.737  12.942  0.3255  0.0284 -0.1502
  657POSM   AM1 7699   3.005  18.926  13.175 -0.1279 -0.4970  0.1506
  657POSM   AM2 7700   3.112  19.111  13.322 -0.1831  0.2267 -0.0193
  657POSM   T1A 7701   2.997  18.738  13.633 -0.1000 -0.0359 -0.1603
  657POSM   C2A 7702   3.287  18.376  13.864  0.1770 -0.1757  0.3834
  657POSM   C3A 7703   3.426  18.275  14.234  0.2470  0.1793  0.1403
  657POSM   C1B 7704   3.248  19.200  13.605 -0.1125  0.0555  0.1162
  657POSM   D2B 7705   3.455  19.318  13.995  0.1606  0.0727  0.0092
  657POSM   C3B 7706   3.782  19.567  14.083 -0.0903 -0.0251 -0.0795
  657POSM   C4B 7707   4.175  19.704  13.845 -0.1487 -0.0611 -0.1047
  658POSM   NC3 7708   2.449  18.285  12.551 -0.2553 -0.2798  0.2658
  658POSM   PO4 7709   2.635  18.310  12.909  0.1126 -0.0569  0.2206
  658POSM   AM1 7710   2.520  18.402  13.220 -0.2760 -0.1709  0.0324
  658POSM   AM2 7711   2.555  18.612  13.401 -0.3084 -0.0500 -0.0527
  658POSM   T1A 7712   2.262  18.176  13.629 -0.1454 -0.3312  0.0839
  658POSM   C2A 7713   2.076  18.266  14.024  0.0342  0.4885 -0.0094
  658POSM   C3A 7714   1.842  18.150  14.405 -0.1858  0.1577  0.0427
  658POSM   C1B 7715   2.236  18.716  13.468 -0.1826  0.2498  0.1236
  658POSM   D2B 7716   1.865  18.734  13.728 -0.0236  0.1587  0.1492
  658POSM   C3B 7717   1.729  19.170  13.884 -0.0696 -0.1297  0.0885
  658POSM   C4B 7718   1.565  19.584  13.969  0.5118  0.3240 -0.1575
  659DOPS   CNO 7719   8.257  17.692  12.292 -0.1592 -0.1409 -0.0366
  659DOPS   PO4 7720   8.152  17.351  12.475  0.2336 -0.2541  0.2036
  659DOPS   GL1 7721   8.323  17.153  12.694 -0.0360 -0.2127 -0.2095
  659DOPS   GL2 7722   8.130  17.015  12.861 -0.3696 -0.1436 -0.1388
  659DOPS   C1A 7723   8.703  16.853  12.853 -0.0278 -0.0143  0.5800
  659DOPS   D2A 7724   8.627  16.368  12.753 -0.0278  0.0590  0.2326
  659DOPS   C3A 7725   8.939  15.965  12.686 -0.3964 -0.0371  0.1818
  659DOPS   C4A 7726   9.125  15.713  12.338 -0.2344 -0.0977 -0.0152
  659DOPS   C1B 7727   8.206  16.590  13.091  0.2102  0.1763  0.2118
  659DOPS   D2B 7728   8.505  16.339  13.408  0.0426  0.0232 -0.1134
  659DOPS   C3B 7729   8.714  15.956  13.184 -0.2420 -0.2423  0.1677
  659DOPS   C4B 7730   8.892  15.504  12.997  0.3489 -0.1960  0.1416
  660POSM   NC3 7731   6.859  12.290  13.157  0.1046 -0.2367 -0.1859
  660POSM   PO4 7732   6.770  12.302  12.767 -0.3955 -0.0155  0.4556
  660POSM   AM1 7733   6.480  12.461  12.853 -0.2299 -0.2435 -0.0351
  660POSM   AM2 7734   6.381  12.489  13.120 -0.3210 -0.0381  0.1236
  660POSM   T1A 7735   6.298  12.905  12.887  0.2724 -0.0461  0.1884
  660POSM   C2A 7736   6.091  13.356  12.900  0.0243 -0.0066 -0.1392
  660POSM   C3A 7737   5.730  13.630  12.981 -0.3697 -0.0909 -0.0096
  660POSM   C1B 7738   6.241  12.422  13.399 -0.2064 -0.1035  0.2578
  660POSM   D2B 7739   5.879  12.423  13.662 -0.0678  0.0643  0.1149
  660POSM   C3B 7740   5.746  12.030  13.928 -0.2198  0.1347  0.0588
  660POSM   C4B 7741   5.931  11.626  14.168  0.1363  0.1312  0.1798
  661DOPE   NH3 7742  10.325  15.389  11.912  0.0295  0.2529  0.1024
  661DOPE   PO4 7743  10.109  15.600  11.936 -0.2813 -0.0058 -0.0897
  661DOPE   GL1 7744   9.948  15.593  12.376  0.0293 -0.3053 -0.0222
  661DOPE   GL2 7745   9.676  15.752  12.402 -0.1571  0.1625 -0.0025
  661DOPE   C1A 7746   9.899  15.552  12.826 -0.1122 -0.0966  0.0414
  661DOPE   D2A 7747   9.877  15.215  13.113  0.3491 -0.1931  0.3770
  661DOPE   C3A 7748  10.279  15.297  13.367  0.0099  0.0233  0.0346
  661DOPE   C4A 7749  10.762  15.453  13.400 -0.0701  0.1887 -0.0709
  661DOPE   C1B 7750   9.452  15.835  12.735  0.0489 -0.0175 -0.3203
  661DOPE   D2B 7751   9.367  15.632  13.150 -0.2187 -0.2056  0.1515
  661DOPE   C3B 7752   9.188  15.656  13.567 -0.1304 -0.0561 -0.0258
  661DOPE   C4B 7753   8.996  15.857  13.893 -0.1502 -0.1639  0.0374
  662DOPE   NH3 7754  10.952  22.412  12.117 -0.0579  0.2063 -0.2618
  662DOPE   PO4 7755  10.925  22.569  12.405  0.0693 -0.0550  0.2322
  662DOPE   GL1 7756  10.565  22.483  12.602 -0.2966 -0.4269 -0.1923
  662DOPE   GL2 7757  10.405  22.429  12.273 -0.4096  0.0159 -0.1088
  662DOPE   C1A 7758  10.436  22.562  13.021  0.0868  0.2496 -0.0436
  662DOPE   D2A 7759  10.568  22.506  13.395  0.2188 -0.1923  0.1977
  662DOPE   C3A 7760  10.932  22.785  13.433 -0.2716  0.2811 -0.1844
  662DOPE   C4A 7761  11.358  22.934  13.612 -0.3391  0.1237  0.1151
  662DOPE   C1B 7762  10.173  22.280  12.666  0.1305  0.2460  0.0235
  662DOPE   D2B 7763  10.403  22.073  13.024  0.2653 -0.1936 -0.0872
  662DOPE   C3B 7764  10.692  21.976  13.393  0.0201  0.2182  0.0194
  662DOPE   C4B 7765  11.002  21.766  13.682  0.1666  0.0419  0.1031
  663DOPE   NH3 7766   3.474  18.706  12.862 -0.2221 -0.0379  0.1412
  663DOPE   PO4 7767   3.538  18.965  13.052  0.0806 -0.2300 -0.2310
  663DOPE   GL1 7768   3.897  18.908  13.240 -0.0934  0.3717  0.0347
  663DOPE   GL2 7769   4.019  18.863  12.881  0.0878  0.0777 -0.2230
  663DOPE   C1A 7770   4.333  19.025  13.432  0.0991 -0.0047  0.0772
  663DOPE   D2A 7771   4.614  19.160  13.752  0.0533  0.0503 -0.0422
  663DOPE   C3A 7772   4.402  19.347  14.108  0.2538 -0.0323  0.1412
  663DOPE   C4A 7773   4.637  19.763  14.192  0.5192  0.2318 -0.1236
  663DOPE   C1B 7774   4.481  18.894  12.967  0.0766  0.1003  0.2059
  663DOPE   D2B 7775   4.929  18.811  12.918 -0.0747 -0.1559 -0.1259
  663DOPE   C3B 7776   5.173  18.516  12.700 -0.1834 -0.1203  0.0516
  663DOPE   C4B 7777   5.230  18.086  12.696 -0.3327  0.1159  0.0860
  664DOPE   NH3 7778   1.007  14.911  12.556  0.0823  0.0252 -0.0714
  664DOPE   PO4 7779   1.015  14.589  12.504  0.2041 -0.0869  0.0515
  664DOPE   GL1 7780   1.196  14.520  12.890 -0.1309  0.0625  0.1115
  664DOPE   GL2 7781   1.029  14.247  12.887 -0.2923  0.0902 -0.1575
  664DOPE   C1A 7782   1.527  14.245  13.095 -0.3642  0.0131 -0.0619
  664DOPE   D2A 7783   1.920  14.060  13.266 -0.1736  0.0282  0.0081
  664DOPE   C3A 7784   2.228  14.350  13.406 -0.5489  0.1230 -0.1413
  664DOPE   C4A 7785   2.310  14.600  13.798 -0.1320  0.0691 -0.4614
  664DOPE   C1B 7786   1.165  13.889  13.143 -0.0444  0.2746 -0.1280
  664DOPE   D2B 7787   1.408  13.627  13.430 -0.0305 -0.0559  0.3079
  664DOPE   C3B 7788   1.456  13.365  13.784 -0.1336  0.0672  0.3190
  664DOPE   C4B 7789   1.734  13.219  14.145  0.3781  0.1436  0.1052
  665POSM   NC3 7790   0.634  14.525  12.880  0.0889  0.1580 -0.2074
  665POSM   PO4 7791   0.649  14.917  12.936 -0.1782  0.3531  0.1107
  665POSM   AM1 7792   0.932  14.804  13.085 -0.3019  0.2035  0.2505
  665POSM   AM2 7793   1.028  14.865  13.315 -0.0384 -0.0300 -0.0813
  665POSM   T1A 7794   1.051  14.396  13.367  0.0743 -0.1054  0.2939
  665POSM   C2A 7795   1.361  14.142  13.582  0.2368 -0.0495 -0.1021
  665POSM   C3A 7796   1.373  13.995  13.984 -0.3743  0.0869 -0.0977
  665POSM   C1B 7797   1.341  14.858  13.530 -0.0871  0.0037  0.1511
  665POSM   D2B 7798   1.750  14.566  13.516  0.1801 -0.2076  0.0491
  665POSM   C3B 7799   1.893  14.227  13.782 -0.1187  0.0897  0.2212
  665POSM   C4B 7800   1.976  13.780  13.697 -0.4335 -0.1264  0.1615
  666DOPC   NC3 7801   9.694  21.400  12.229  0.0137 -0.3868  0.2208
  666DOPC   PO4 7802   9.950  21.256  11.984 -0.2841 -0.1707  0.1056
  666DOPC   GL1 7803   9.886  20.814  12.155  0.0552  0.0684  0.2652
  666DOPC   GL2 7804   9.607  20.755  12.021 -0.0118 -0.2065  0.1340
  666DOPC   C1A 7805   9.609  20.793  12.526 -0.1245 -0.1098  0.0133
  666DOPC   D2A 7806   9.340  20.539  12.896  0.0449 -0.1495  0.0670
  666DOPC   C3A 7807   9.566  20.401  13.279 -0.3032  0.2574  0.1191
  666DOPC   C4A 7808   9.855  20.304  13.640 -0.0577  0.1712 -0.1890
  666DOPC   C1B 7809   9.298  21.070  12.155  0.0642 -0.1636  0.0039
  666DOPC   D2B 7810   8.949  21.239  12.369 -0.0503 -0.1285  0.2954
  666DOPC   C3B 7811   9.138  21.546  12.585 -0.1376  0.0180  0.1562
  666DOPC   C4B 7812   9.611  21.626  12.640  0.0843 -0.0847  0.2429
  667DOPC   NC3 7813   6.727  21.644  12.737  0.1574  0.3929  0.0291
  667DOPC   PO4 7814   6.324  21.738  12.628 -0.1206  0.0569  0.1164
  667DOPC   GL1 7815   6.151  21.666  12.939  0.1670  0.0769  0.1208
  667DOPC   GL2 7816   6.158  21.421  13.035 -0.1236  0.0346  0.2980
  667DOPC   C1A 7817   5.914  21.738  13.313 -0.1731 -0.0853 -0.3464
  667DOPC   D2A 7818   5.688  21.626  13.666 -0.1050  0.0954 -0.0105
  667DOPC   C3A 7819   5.366  21.776  13.936 -0.0954 -0.1099 -0.1656
  667DOPC   C4A 7820   4.895  21.784  13.919  0.2089 -0.2433 -0.2404
  667DOPC   C1B 7821   6.044  21.335  13.499 -0.0099 -0.0759 -0.1508
  667DOPC   D2B 7822   5.778  21.142  13.881  0.1290  0.1662  0.3125
  667DOPC   C3B 7823   6.023  21.229  14.285 -0.0020 -0.0508 -0.0298
  667DOPC   C4B 7824   6.323  21.459  14.541 -0.0816  0.0874  0.1607
  668POSM   NC3 7825   2.374  16.930  12.714  0.2394 -0.0230  0.1995
  668POSM   PO4 7826   1.985  16.827  12.681  0.0520  0.1578  0.3606
  668POSM   AM1 7827   1.816  16.897  12.943  0.0640  0.1774  0.1776
  668POSM   AM2 7828   1.774  17.072  13.165 -0.6105  0.2309  0.1086
  668POSM   T1A 7829   1.321  17.002  13.013 -0.0997  0.2896  0.3112
  668POSM   C2A 7830   0.963  16.912  13.160  0.2679 -0.0173  0.1834
  668POSM   C3A 7831   0.557  16.744  13.367 -0.1334  0.0279 -0.2442
  668POSM   C1B 7832   1.599  17.156  13.391 -0.1323 -0.3009 -0.3551
  668POSM   D2B 7833   1.175  17.279  13.477 -0.0950 -0.1493 -0.0497
  668POSM   C3B 7834   0.925  17.639  13.490 -0.0328 -0.1098  0.2439
  668POSM   C4B 7835   0.608  17.916  13.525 -0.0025 -0.1400  0.0169
  669POSM   NC3 7836   7.815  18.389  12.389 -0.0961  0.0762 -0.1150
  669POSM   PO4 7837   8.092  18.185  12.273 -0.1905 -0.0504 -0.2374
  669POSM   AM1 7838   8.099  18.112  12.626 -0.0379 -0.0360 -0.3885
  669POSM   AM2 7839   8.250  18.310  12.814  0.2964 -0.0436 -0.1163
  669POSM   T1A 7840   8.340  17.847  12.912  0.3616 -0.1736  0.1245
  669POSM   C2A 7841   8.389  17.446  13.159 -0.0562 -0.0665  0.0089
  669POSM   C3A 7842   8.473  16.993  13.293  0.0183  0.0589 -0.1061
  669POSM   C1B 7843   8.444  18.417  13.074  0.1696 -0.0485 -0.5278
  669POSM   D2B 7844   8.501  18.621  13.477 -0.3961 -0.0369 -0.0501
  669POSM   C3B 7845   8.715  18.589  13.828 -0.1095  0.1438  0.2583
  669POSM   C4B 7846   8.759  18.852  14.228 -0.0095  0.2310  0.1319
  670DOPS   CNO 7847   8.269  13.904  12.391  0.1621 -0.0788 -0.1531
  670DOPS   PO4 7848   8.048  13.691  12.677  0.0912 -0.2173  0.0137
  670DOPS   GL1 7849   8.033  14.032  12.920  0.2382 -0.1419  0.1862
  670DOPS   GL2 7850   8.296  14.131  12.812 -0.2338 -0.0381 -0.1745
  670DOPS   C1A 7851   8.008  14.290  13.334  0.0898  0.1930 -0.0036
  670DOPS   D2A 7852   8.006  14.315  13.771 -0.0534 -0.2021 -0.4604
  670DOPS   C3A 7853   7.703  14.208  14.122  0.0293 -0.0328 -0.2115
  670DOPS   C4A 7854   7.399  14.412  14.336  0.2177 -0.1317  0.2999
  670DOPS   C1B 7855   8.607  14.481  12.804  0.0960  0.2141 -0.0370
  670DOPS   D2B 7856   9.077  14.455  12.805 -0.0822  0.0009 -0.2021
  670DOPS   C3B 7857   9.207  14.410  13.224  0.1698  0.3275  0.0781
  670DOPS   C4B 7858   9.552  14.529  13.576  0.1602 -0.1294  0.1314
  671DOPE   NH3 7859   6.585  19.759  12.793  0.0847  0.1479  0.2130
  671DOPE   PO4 7860   6.728  19.617  12.596  0.3832 -0.0895  0.0981
  671DOPE   GL1 7861   7.066  19.678  12.721  0.1854  0.0690  0.3091
  671DOPE   GL2 7862   7.201  19.447  12.553 -0.0880  0.0304  0.0987
  671DOPE   C1A 7863   7.292  19.426  13.071  0.0323 -0.0194  0.4854
  671DOPE   D2A 7864   7.221  19.492  13.576  0.0012  0.3456  0.2164
  671DOPE   C3A 7865   7.044  19.352  13.924  0.2261  0.0786  0.0980
  671DOPE   C4A 7866   7.030  19.242  14.379 -0.3970  0.0460  0.4129
  671DOPE   C1B 7867   7.570  19.679  12.485 -0.0071  0.1683  0.0579
  671DOPE   D2B 7868   7.744  20.095  12.311  0.3458  0.4594  0.0939
  671DOPE   C3B 7869   7.713  20.539  12.140 -0.2410  0.0536  0.1855
  671DOPE   C4B 7870   8.027  20.646  12.396 -0.1139  0.2844 -0.3687
  672DOPC   NC3 7871   6.783  16.540  13.021 -0.0304 -0.2173 -0.0095
  672DOPC   PO4 7872   6.574  16.311  12.790  0.1330 -0.0368 -0.1620
  672DOPC   GL1 7873   6.338  16.331  13.169  0.1815  0.2319 -0.0462
  672DOPC   GL2 7874   6.281  16.072  13.149  0.0499 -0.1979  0.1227
  672DOPC   C1A 7875   6.475  16.300  13.598 -0.2347  0.0832 -0.0690
  672DOPC   D2A 7876   6.609  16.070  13.970 -0.1102 -0.2302 -0.0750
  672DOPC   C3A 7877   6.431  16.127  14.388  0.5580 -0.1412 -0.0216
  672DOPC   C4A 7878   6.152  15.978  14.682  0.2897  0.1160  0.0143
  672DOPC   C1B 7879   5.918  16.229  13.459  0.1221  0.3257 -0.3470
  672DOPC   D2B 7880   5.701  16.462  13.752 -0.2325 -0.0271 -0.0517
  672DOPC   C3B 7881   5.751  16.505  14.193 -0.1621 -0.0114  0.0433
  672DOPC   C4B 7882   6.046  16.448  14.542  0.0516 -0.0225 -0.0912
  673DOPC   NC3 7883   3.958  19.129  12.308 -0.1625  0.1667  0.1658
  673DOPC   PO4 7884   3.586  19.102  12.542 -0.1991  0.2035  0.3772
  673DOPC   GL1 7885   3.745  19.242  12.717 -0.2620  0.0801 -0.2418
  673DOPC   GL2 7886   3.884  19.505  12.631 -0.0636 -0.2988  0.1488
  673DOPC   C1A 7887   4.025  19.355  13.077  0.1578  0.0049  0.1719
  673DOPC   D2A 7888   4.227  19.650  13.330  0.0076 -0.0949  0.3524
  673DOPC   C3A 7889   4.684  19.621  13.405  0.1615 -0.1902 -0.0739
  673DOPC   C4A 7890   4.907  20.009  13.329  0.2164 -0.1249 -0.3668
  673DOPC   C1B 7891   4.315  19.267  12.662 -0.1044  0.1998 -0.1308
  673DOPC   D2B 7892   4.695  19.379  12.912  0.1978 -0.2388  0.1664
  673DOPC   C3B 7893   4.860  19.182  13.320  0.1529 -0.2296 -0.0857
  673DOPC   C4B 7894   5.262  19.034  13.437  0.3110 -0.1563 -0.1279
  674DOPC   NC3 7895   4.130  21.679  12.788 -0.2524  0.1055  0.2251
  674DOPC   PO4 7896   4.356  22.012  12.890  0.1524 -0.1199 -0.2114
  674DOPC   GL1 7897   4.207  21.787  13.234 -0.1171 -0.0988  0.1916
  674DOPC   GL2 7898   4.018  21.524  13.320 -0.1958 -0.0341  0.2423
  674DOPC   C1A 7899   4.479  21.460  13.466 -0.2136 -0.3192 -0.3105
  674DOPC   D2A 7900   4.904  21.226  13.436  0.2644 -0.0884  0.1477
  674DOPC   C3A 7901   5.023  20.892  13.705 -0.2550 -0.1034  0.2358
  674DOPC   C4A 7902   5.168  20.450  13.893 -0.5169  0.4873  0.4868
  674DOPC   C1B 7903   4.115  21.648  13.747  0.0485 -0.0374 -0.1300
  674DOPC   D2B 7904   4.399  21.835  14.079  0.2478  0.0881 -0.4283
  674DOPC   C3B 7905   4.609  22.213  13.976  0.0960 -0.1946 -0.1769
  674DOPC   C4B 7906   4.895  22.591  13.949  0.0511 -0.0530  0.1644
  675DOPE   NH3 7907   7.421  12.688  12.910  0.1292 -0.0551 -0.0607
  675DOPE   PO4 7908   7.283  12.552  13.193  0.0965  0.0931  0.2471
  675DOPE   GL1 7909   7.202  12.924  13.197 -0.0643  0.0912  0.2601
  675DOPE   GL2 7910   7.420  13.022  13.291 -0.2144 -0.1611  0.2677
  675DOPE   C1A 7911   6.996  13.140  13.570 -0.1270  0.1489 -0.2450
  675DOPE   D2A 7912   7.110  13.325  13.947  0.0401 -0.2226 -0.0807
  675DOPE   C3A 7913   6.931  13.679  14.189 -0.2351 -0.0870 -0.0935
  675DOPE   C4A 7914   6.800  13.833  14.565  0.1031  0.0114 -0.0096
  675DOPE   C1B 7915   7.406  13.427  13.478 -0.1402 -0.2036  0.0809
  675DOPE   D2B 7916   7.494  13.606  13.824 -0.0648  0.2512  0.0444
  675DOPE   C3B 7917   7.571  13.402  14.250 -0.0646 -0.3690 -0.3234
  675DOPE   C4B 7918   7.719  13.187  14.629  0.1591 -0.0425  0.3260
  676DOPC   NC3 7919  10.226  19.224  11.863 -0.0420  0.2361 -0.2180
  676DOPC   PO4 7920  10.149  18.942  12.174  0.2405 -0.0816  0.0220
  676DOPC   GL1 7921  10.258  18.995  12.525 -0.1185  0.1573  0.1096
  676DOPC   GL2 7922  10.095  18.907  12.726  0.1547  0.2519 -0.2145
  676DOPC   C1A 7923  10.333  19.291  12.953 -0.0810  0.0843 -0.1777
  676DOPC   D2A 7924  10.024  19.383  13.259 -0.0089  0.3925 -0.1990
  676DOPC   C3A 7925  10.067  19.279  13.757 -0.4183 -0.0401 -0.2261
  676DOPC   C4A 7926   9.710  19.251  14.017 -0.0849  0.2708 -0.0608
  676DOPC   C1B 7927   9.751  19.085  12.988 -0.3702  0.1537  0.0040
  676DOPC   D2B 7928   9.586  19.464  12.968  0.1275  0.0431  0.1218
  676DOPC   C3B 7929   9.251  19.633  13.196  0.0735  0.2755  0.0507
  676DOPC   C4B 7930   8.988  19.462  13.583  0.0185 -0.3351 -0.1098
  677POSM   NC3 7931   1.988  15.820  12.805  0.0480 -0.1610 -0.1229
  677POSM   PO4 7932   2.129  16.003  12.475  0.0595  0.3746 -0.0277
  677POSM   AM1 7933   2.324  15.735  12.463  0.5691 -0.0055  0.2271
  677POSM   AM2 7934   2.297  15.494  12.587  0.0478  0.0719  0.1435
  677POSM   T1A 7935   2.728  15.494  12.339 -0.0273 -0.2301  0.4080
  677POSM   C2A 7936   2.859  15.145  12.080  0.1855 -0.1084 -0.0739
  677POSM   C3A 7937   3.286  15.144  12.072  0.0307 -0.2162  0.0737
  677POSM   C1B 7938   2.579  15.594  12.772  0.3463  0.0608 -0.1411
  677POSM   D2B 7939   2.882  15.712  13.145  0.1707  0.0302  0.3353
  677POSM   C3B 7940   3.113  15.718  13.535 -0.0901 -0.1667 -0.0052
  677POSM   C4B 7941   3.307  15.366  13.730  0.0726  0.0022  0.1810
  678DOPS   CNO 7942   3.203  11.511  12.384 -0.3252  0.3320  0.0453
  678DOPS   PO4 7943   3.225  11.153  12.272 -0.1764 -0.0304 -0.3007
  678DOPS   GL1 7944   2.965  11.110  12.572  0.1394 -0.1614 -0.6038
  678DOPS   GL2 7945   3.027  11.273  12.784 -0.2279  0.1694 -0.0167
  678DOPS   C1A 7946   2.680  10.758  12.774  0.0164 -0.1123 -0.1289
  678DOPS   D2A 7947   2.417  10.392  12.955  0.1179  0.1754 -0.0189
  678DOPS   C3A 7948   2.364  10.471  13.377 -0.0035 -0.0199 -0.1248
  678DOPS   C4A 7949   2.157  10.473  13.817  0.1379 -0.2413  0.1710
  678DOPS   C1B 7950   2.711  11.144  13.120  0.2009  0.1076  0.1863
  678DOPS   D2B 7951   2.828  10.747  13.335 -0.2768  0.3928 -0.1401
  678DOPS   C3B 7952   2.823  10.418  13.670  0.2450  0.1390  0.0346
  678DOPS   C4B 7953   2.824  10.215  14.090  0.0345 -0.2466 -0.2757
  679DOPE   NH3 7954   2.615  17.520  12.913 -0.0788  0.1893  0.1791
  679DOPE   PO4 7955   2.517  17.842  12.736 -0.4315  0.0607  0.1072
  679DOPE   GL1 7956   2.199  18.072  12.949 -0.0866  0.1139  0.0675
  679DOPE   GL2 7957   2.020  18.265  12.796 -0.1007 -0.0458 -0.2632
  679DOPE   C1A 7958   1.746  17.884  13.049 -0.1408 -0.0684 -0.1974
  679DOPE   D2A 7959   1.436  17.543  13.027 -0.2048  0.2086 -0.3903
  679DOPE   C3A 7960   0.942  17.459  13.011  0.2763  0.4276  0.0767
  679DOPE   C4A 7961   0.555  17.358  13.272 -0.3523  0.2264 -0.0397
  679DOPE   C1B 7962   1.903  18.386  13.217 -0.2710 -0.2192 -0.1245
  679DOPE   D2B 7963   1.773  18.187  13.628 -0.1401  0.0430 -0.0760
  679DOPE   C3B 7964   1.517  18.424  13.918 -0.2459  0.1177  0.0517
  679DOPE   C4B 7965   1.626  18.765  14.194  0.0062 -0.3796 -0.1043
  680POSM   NC3 7966   0.921  14.115  12.349 -0.0254  0.0823 -0.3230
  680POSM   PO4 7967   0.561  13.997  12.548 -0.0736 -0.1537  0.0720
  680POSM   AM1 7968   0.489  14.000  12.835 -0.0089  0.3253  0.1296
  680POSM   AM2 7969   0.227  13.953  12.982  0.1100 -0.1660 -0.0086
  680POSM   T1A 7970   0.716  14.027  13.261 -0.0330  0.2687 -0.0615
  680POSM   C2A 7971   0.859  13.957  13.651 -0.1591 -0.1401  0.0760
  680POSM   C3A 7972   0.893  14.163  14.096 -0.1883 -0.4212  0.0925
  680POSM   C1B 7973   0.354  13.710  13.190  0.4043 -0.1612 -0.0155
  680POSM   D2B 7974   0.751  13.522  13.412  0.0525 -0.0723  0.0106
  680POSM   C3B 7975   1.054  13.189  13.487  0.1611  0.0705  0.4760
  680POSM   C4B 7976   0.970  12.735  13.451  0.2243  0.0523  0.1798
  681DOPC   NC3 7977   5.922  15.673  13.359  0.0904 -0.1813 -0.0895
  681DOPC   PO4 7978   5.836  15.777  12.976  0.0904  0.3056  0.0362
  681DOPC   GL1 7979   5.508  15.975  13.084 -0.0869 -0.1146 -0.5374
  681DOPC   GL2 7980   5.410  16.301  13.002 -0.1104 -0.1405  0.1628
  681DOPC   C1A 7981   5.304  16.264  13.446  0.2380 -0.1303 -0.4168
  681DOPC   D2A 7982   4.895  16.351  13.688  0.1298  0.0636  0.2436
  681DOPC   C3A 7983   4.588  16.529  14.040 -0.0212  0.1759 -0.1820
  681DOPC   C4A 7984   4.476  16.924  14.177  0.0116 -0.2094  0.2033
  681DOPC   C1B 7985   5.363  16.670  13.246 -0.2249 -0.0716  0.0137
  681DOPC   D2B 7986   5.497  16.925  13.615  0.0286 -0.0349  0.2005
  681DOPC   C3B 7987   5.302  17.242  13.873 -0.0573  0.1061 -0.0035
  681DOPC   C4B 7988   5.271  17.266  14.297 -0.0832 -0.1185 -0.1317
  682DOPS   CNO 7989   3.253  12.037  12.402 -0.2580 -0.3683 -0.1581
  682DOPS   PO4 7990   2.990  12.227  12.657  0.0267 -0.1070 -0.1240
  682DOPS   GL1 7991   3.020  12.347  13.068 -0.2102  0.1931  0.0161
  682DOPS   GL2 7992   3.129  12.077  13.126  0.1926  0.1947 -0.2099
  682DOPS   C1A 7993   2.768  12.429  13.474  0.0002 -0.2774  0.2087
  682DOPS   D2A 7994   2.706  12.652  13.907 -0.1898  0.0298  0.3201
  682DOPS   C3A 7995   2.382  12.470  14.146  0.0471 -0.2920 -0.0294
  682DOPS   C4A 7996   2.296  12.470  14.567 -0.2959  0.0231 -0.0619
  682DOPS   C1B 7997   3.211  11.854  13.499 -0.0172  0.2763 -0.2182
  682DOPS   D2B 7998   3.347  11.950  13.958  0.1026 -0.2233  0.0066
  682DOPS   C3B 7999   3.155  11.736  14.314  0.1429  0.1258  0.0634
  682DOPS   C4B 8000   2.985  11.847  14.669 -0.1187  0.2250  0.0269
  683DOPC   NC3 8001   1.829  16.409  12.401 -0.0305  0.4081  0.0716
  683DOPC   PO4 8002   1.750  16.302  12.797 -0.0821  0.1250  0.1882
  683DOPC   GL1 8003   1.766  16.485  13.085 -0.0862 -0.0639  0.2856
  683DOPC   GL2 8004   1.864  16.210  13.262 -0.1973  0.1715 -0.1208
  683DOPC   C1A 8005   1.416  16.641  13.305  0.1764  0.2542  0.3056
  683DOPC   D2A 8006   1.375  16.769  13.781 -0.0505 -0.2453 -0.0235
  683DOPC   C3A 8007   1.750  16.911  13.993  0.1279 -0.0086  0.0583
  683DOPC   C4A 8008   1.765  17.158  14.370 -0.0496 -0.1769  0.2102
  683DOPC   C1B 8009   2.119  16.026  13.567  0.2618  0.1205  0.0984
  683DOPC   D2B 8010   2.130  15.594  13.731 -0.2340  0.2446  0.1023
  683DOPC   C3B 8011   1.913  15.577  14.153 -0.1268 -0.1371 -0.1231
  683DOPC   C4B 8012   1.702  15.779  14.554 -0.1915 -0.2083 -0.2535
  684DOPC   NC3 8013   4.949  15.339  13.209 -0.2180 -0.1956 -0.1868
  684DOPC   PO4 8014   5.005  15.033  12.945 -0.2287  0.2156  0.0098
  684DOPC   GL1 8015   4.731  14.929  13.165 -0.3168 -0.0019  0.0490
  684DOPC   GL2 8016   4.451  15.017  12.980  0.1388  0.1718 -0.0918
  684DOPC   C1A 8017   4.577  15.122  13.555 -0.0649 -0.1434 -0.0882
  684DOPC   D2A 8018   4.462  15.184  13.982 -0.0790  0.2562 -0.0068
  684DOPC   C3A 8019   4.104  14.879  14.013 -0.0128 -0.1759 -0.1092
  684DOPC   C4A 8020   3.799  14.648  14.262  0.3420 -0.2406 -0.1157
  684DOPC   C1B 8021   4.018  15.220  13.033 -0.0920  0.2417 -0.0425
  684DOPC   D2B 8022   3.744  15.568  12.801 -0.0874 -0.1743  0.0940
  684DOPC   C3B 8023   3.309  15.625  12.810 -0.1150 -0.0128 -0.0319
  684DOPC   C4B 8024   3.015  15.935  12.585  0.0849 -0.0599  0.0239
  685DOPE   NH3 8025   5.392  14.727  12.792  0.1016  0.1074  0.0956
  685DOPE   PO4 8026   5.568  14.544  12.675 -0.0608  0.0010 -0.0103
  685DOPE   GL1 8027   5.770  14.522  13.019  0.3462  0.0606 -0.0148
  685DOPE   GL2 8028   5.985  14.391  12.911 -0.2599  0.1820  0.1291
  685DOPE   C1A 8029   6.046  14.528  13.436  0.0485 -0.1283 -0.0887
  685DOPE   D2A 8030   6.426  14.445  13.663 -0.0363 -0.1659  0.1879
  685DOPE   C3A 8031   6.383  14.594  14.081 -0.1063  0.0988 -0.2503
  685DOPE   C4A 8032   6.251  14.956  14.312 -0.1204  0.2461  0.0444
  685DOPE   C1B 8033   6.222  13.990  13.058 -0.2315 -0.1166  0.0196
  685DOPE   D2B 8034   6.535  13.989  13.392 -0.4978 -0.1768  0.2611
  685DOPE   C3B 8035   6.471  13.821  13.773  0.3055  0.1892  0.1296
  685DOPE   C4B 8036   6.589  14.079  14.131  0.0298 -0.0561 -0.1352
  686DOPC   NC3 8037   1.456  14.246  12.513  0.1373  0.1164  0.2292
  686DOPC   PO4 8038   1.498  14.622  12.563  0.1800 -0.0343  0.3589
  686DOPC   GL1 8039   1.805  14.432  12.752 -0.0815 -0.5662 -0.2966
  686DOPC   GL2 8040   1.998  14.566  12.952 -0.1894 -0.0463 -0.1746
  686DOPC   C1A 8041   2.157  14.136  12.811  0.3203 -0.4244 -0.1123
  686DOPC   D2A 8042   2.286  13.745  12.988  0.0197  0.1209  0.1674
  686DOPC   C3A 8043   1.934  13.564  13.205 -0.0720 -0.1278  0.3560
  686DOPC   C4A 8044   1.909  13.250  13.548 -0.2663 -0.0780  0.1399
  686DOPC   C1B 8045   2.194  14.817  13.311  0.2061 -0.2062  0.3554
  686DOPC   D2B 8046   2.133  15.098  13.657 -0.1805 -0.0180  0.3268
  686DOPC   C3B 8047   1.851  15.021  14.066  0.2399  0.1537 -0.0239
  686DOPC   C4B 8048   1.587  14.908  14.423  0.0071 -0.1796 -0.1769
  687DOPC   NC3 8049   7.546  22.401  12.498  0.1075 -0.1345 -0.0297
  687DOPC   PO4 8050   7.394  22.742  12.329 -0.2974  0.1266 -0.0259
  687DOPC   GL1 8051   7.401  22.782  12.739  0.0059  0.1673  0.1873
  687DOPC   GL2 8052   7.589  22.951  12.743 -0.1843 -0.0358 -0.1305
  687DOPC   C1A 8053   7.674  22.503  12.961 -0.2328 -0.0445  0.1288
  687DOPC   D2A 8054   8.000  22.447  13.306 -0.1427 -0.4970  0.3154
  687DOPC   C3A 8055   7.820  22.183  13.710  0.3422  0.0513  0.1126
  687DOPC   C4A 8056   7.765  22.101  14.224 -0.0885  0.0639 -0.0588
  687DOPC   C1B 8057   7.721  22.956  13.215  0.0103  0.0362  0.2246
  687DOPC   D2B 8058   8.065  23.182  13.570 -0.2277  0.0436  0.1287
  687DOPC   C3B 8059   7.878  23.515  13.787 -0.1370 -0.0001 -0.2651
  687DOPC   C4B 8060   7.624  23.740  14.062 -0.1658  0.1013  0.0629
  688POSM   NC3 8061   5.829  21.917  12.487  0.0662  0.0112  0.1805
  688POSM   PO4 8062   5.721  22.291  12.447 -0.0423 -0.2847 -0.3010
  688POSM   AM1 8063   5.529  22.425  12.728  0.2334  0.0249 -0.1798
  688POSM   AM2 8064   5.648  22.640  12.918  0.2356  0.1427 -0.2150
  688POSM   T1A 8065   5.177  22.268  13.008 -0.1263  0.1685  0.0427
  688POSM   C2A 8066   4.762  22.126  13.173  0.0183  0.1422 -0.1224
  688POSM   C3A 8067   4.579  21.922  13.563 -0.0057  0.1529 -0.0156
  688POSM   C1B 8068   5.436  22.690  13.176  0.0245 -0.0298  0.0624
  688POSM   D2B 8069   5.009  22.741  13.297  0.0373 -0.0800  0.2034
  688POSM   C3B 8070   4.657  22.523  13.438  0.0569  0.2167  0.0743
  688POSM   C4B 8071   4.292  22.503  13.694  0.1388 -0.0121  0.0570
  689DOPE   NH3 8072   5.290  15.785  12.754  0.1493 -0.0410  0.2660
  689DOPE   PO4 8073   5.041  15.747  12.979  0.1139  0.0503  0.1538
  689DOPE   GL1 8074   4.912  16.043  13.071  0.0299 -0.1129 -0.0951
  689DOPE   GL2 8075   4.837  15.992  13.373 -0.0125  0.0489  0.3876
  689DOPE   C1A 8076   4.913  16.505  13.192 -0.0275  0.0533  0.2234
  689DOPE   D2A 8077   4.981  16.795  13.528  0.0881 -0.1129  0.4428
  689DOPE   C3A 8078   4.536  16.972  13.634 -0.0655  0.2610  0.1928
  689DOPE   C4A 8079   4.264  17.268  13.864 -0.0651  0.7231 -0.0884
  689DOPE   C1B 8080   4.685  15.645  13.650  0.4044  0.0745 -0.3444
  689DOPE   D2B 8081   4.224  15.508  13.692 -0.0676 -0.0408 -0.0477
  689DOPE   C3B 8082   4.021  15.333  14.118 -0.0230  0.1169 -0.0419
  689DOPE   C4B 8083   4.103  15.133  14.465  0.0561 -0.2388  0.0308
  690DOPS   CNO 8084   5.060  15.408  12.509 -0.0910  0.0408  0.2002
  690DOPS   PO4 8085   4.963  15.025  12.409 -0.2505  0.0937  0.0918
  690DOPS   GL1 8086   4.669  15.222  12.602  0.1944 -0.1554 -0.3195
  690DOPS   GL2 8087   4.674  15.451  12.806 -0.1581 -0.2066 -0.0384
  690DOPS   C1A 8088   4.319  15.500  12.502 -0.2551  0.6914 -0.1512
  690DOPS   D2A 8089   4.235  15.905  12.744  0.0413  0.0897 -0.0392
  690DOPS   C3A 8090   4.422  16.111  13.131  0.3758  0.3116  0.1270
  690DOPS   C4A 8091   4.459  16.466  13.499 -0.1065  0.1354 -0.2088
  690DOPS   C1B 8092   4.392  15.570  13.149 -0.1334 -0.1785 -0.1748
  690DOPS   D2B 8093   3.990  15.724  13.300 -0.0320 -0.2864 -0.0704
  690DOPS   C3B 8094   3.824  15.762  13.723  0.1260 -0.0713 -0.0847
  690DOPS   C4B 8095   3.568  15.682  14.142  0.0971  0.1399 -0.2008
  691DOPC   NC3 8096   4.513  23.912  12.576  0.5569  0.0653 -0.0498
  691DOPC   PO4 8097   4.488  23.575  12.353 -0.1919  0.0617 -0.0100
  691DOPC   GL1 8098   4.533  23.274  12.633 -0.3078 -0.0268 -0.2570
  691DOPC   GL2 8099   4.544  22.997  12.437 -0.1445  0.0544  0.1418
  691DOPC   C1A 8100   4.646  23.049  13.048  0.1679  0.0453  0.1557
  691DOPC   D2A 8101   4.726  23.028  13.552 -0.2071 -0.0364  0.0695
  691DOPC   C3A 8102   4.376  23.026  13.870 -0.2284  0.0835 -0.3499
  691DOPC   C4A 8103   3.929  23.100  13.744  0.4417  0.1471  0.2365
  691DOPC   C1B 8104   4.124  23.039  12.665  0.2084  0.0117  0.0476
  691DOPC   D2B 8105   3.790  23.056  13.062  0.2747 -0.2992  0.2407
  691DOPC   C3B 8106   3.553  23.077  13.418 -0.1495  0.0365  0.1372
  691DOPC   C4B 8107   3.426  22.820  13.721 -0.0054 -0.0449  0.2376
  692DOPE   NH3 8108   1.563  14.815  13.012  0.1915  0.1209 -0.1417
  692DOPE   PO4 8109   1.311  14.978  12.929 -0.0310 -0.0310 -0.0159
  692DOPE   GL1 8110   1.369  15.237  13.251  0.0038 -0.0434  0.3335
  692DOPE   GL2 8111   1.351  15.458  13.161 -0.0673  0.4415  0.3335
  692DOPE   C1A 8112   1.027  15.282  13.575  0.4218  0.0609 -0.0718
  692DOPE   D2A 8113   0.652  15.197  13.367  0.1586  0.1313  0.3024
  692DOPE   C3A 8114   0.543  15.594  13.598 -0.3008 -0.0367  0.0794
  692DOPE   C4A 8115   0.075  15.777  13.579 -0.2524 -0.0019 -0.1061
  692DOPE   C1B 8116   1.287  15.682  13.521  0.1811  0.2003 -0.2722
  692DOPE   D2B 8117   0.984  15.763  13.895  0.1940  0.1264  0.1017
  692DOPE   C3B 8118   1.068  15.497  14.328  0.0704 -0.2658 -0.0593
  692DOPE   C4B 8119   1.296  15.522  14.700 -0.0584  0.1091  0.2145
  693DOPE   NH3 8120   5.921  16.417  12.965 -0.3882  0.0977  0.4033
  693DOPE   PO4 8121   5.790  16.652  12.802 -0.3629  0.2321  0.1110
  693DOPE   GL1 8122   5.709  16.899  13.137 -0.3556 -0.1858 -0.1936
  693DOPE   GL2 8123   5.994  16.964  13.254 -0.0778  0.2812  0.2114
  693DOPE   C1A 8124   5.351  17.171  13.219  0.0597  0.1426  0.1898
  693DOPE   D2A 8125   4.984  17.346  13.391 -0.1736  0.1196  0.4201
  693DOPE   C3A 8126   4.808  17.347  13.865  0.0734 -0.2844 -0.0929
  693DOPE   C4A 8127   5.063  17.665  14.156  0.1077 -0.1814 -0.0206
  693DOPE   C1B 8128   5.741  17.337  13.437  0.1581  0.0679 -0.1562
  693DOPE   D2B 8129   5.904  17.743  13.300  0.1424 -0.4182  0.0285
  693DOPE   C3B 8130   5.655  18.051  13.540 -0.1431  0.0392 -0.0422
  693DOPE   C4B 8131   5.221  18.094  13.818 -0.2916  0.0288 -0.1807
  694POSM   NC3 8132   9.681  18.644  12.187  0.1538 -0.0890  0.4446
  694POSM   PO4 8133   9.514  18.950  12.369  0.1927 -0.0953 -0.1384
  694POSM   AM1 8134   9.357  19.112  12.628  0.0315 -0.0800 -0.0131
  694POSM   AM2 8135   9.091  19.212  12.718  0.0893  0.0430  0.1296
  694POSM   T1A 8136   9.257  19.111  13.133 -0.0201  0.3331  0.1125
  694POSM   C2A 8137   9.400  18.922  13.580  0.1871  0.1278 -0.2927
  694POSM   C3A 8138   9.187  18.705  13.991  0.0363 -0.1579 -0.0043
  694POSM   C1B 8139   8.916  19.438  12.876 -0.0296  0.2412  0.1222
  694POSM   D2B 8140   8.745  19.807  13.032 -0.5564 -0.3020 -0.0381
  694POSM   C3B 8141   8.567  19.792  13.484  0.0789  0.1671  0.3263
  694POSM   C4B 8142   8.829  19.802  13.895 -0.4762  0.0367  0.2918
  695POSM   NC3 8143   9.654  23.676  11.934 -0.0799 -0.0427 -0.2469
  695POSM   PO4 8144   9.413  23.595  12.256 -0.2103 -0.0720 -0.1888
  695POSM   AM1 8145   9.226  23.372  12.338 -0.2476  0.0097  0.0659
  695POSM   AM2 8146   9.069  23.321  12.565  0.1759 -0.0942  0.0146
  695POSM   T1A 8147   8.955  22.990  12.148  0.3296 -0.0125 -0.0209
  695POSM   C2A 8148   8.811  22.613  12.265 -0.2105  0.2257 -0.0380
  695POSM   C3A 8149   8.514  22.550  12.539  0.0425  0.1425  0.0617
  695POSM   C1B 8150   9.188  22.989  12.582  0.0371  0.0661 -0.1536
  695POSM   D2B 8151   9.380  22.572  12.867  0.2265  0.0774  0.1653
  695POSM   C3B 8152   9.254  22.832  13.239 -0.1030  0.0846  0.0828
  695POSM   C4B 8153   9.269  22.823  13.737 -0.1607 -0.3665  0.0509
  696DOPC   NC3 8154   0.947  15.320  12.912  0.1480 -0.0682  0.0074
  696DOPC   PO4 8155   1.094  15.606  12.715  0.0905 -0.3399 -0.0610
  696DOPC   GL1 8156   0.856  15.778  12.867  0.4380 -0.1558  0.1903
  696DOPC   GL2 8157   0.718  16.000  12.780  0.2272  0.1418  0.1156
  696DOPC   C1A 8158   0.864  15.863  13.322 -0.0383 -0.1730 -0.0011
  696DOPC   D2A 8159   0.644  16.106  13.729 -0.0546 -0.2307  0.0871
  696DOPC   C3A 8160   0.986  16.330  14.053  0.0306  0.1190 -0.0211
  696DOPC   C4A 8161   1.352  16.589  14.233 -0.3163  0.1052  0.0324
  696DOPC   C1B 8162   0.724  16.461  12.916 -0.0165 -0.0324  0.0191
  696DOPC   D2B 8163   0.538  16.857  12.808 -0.0528 -0.3660 -0.0446
  696DOPC   C3B 8164   0.126  16.938  12.986  0.0041  0.0707  0.1385
  696DOPC   C4B 8165  -0.195  16.596  13.183 -0.1697  0.0539  0.0736
  697DOPC   NC3 8166   3.950  22.247  13.074  0.0704 -0.5327 -0.0767
  697DOPC   PO4 8167   3.753  21.910  13.047 -0.0729 -0.1330  0.1414
  697DOPC   GL1 8168   3.770  21.867  13.406  0.0100  0.1227 -0.0590
  697DOPC   GL2 8169   3.999  22.099  13.551 -0.0506 -0.1775  0.1784
  697DOPC   C1A 8170   3.584  21.519  13.630  0.0097 -0.0764 -0.1928
  697DOPC   D2A 8171   3.451  21.329  13.981  0.1912 -0.1006 -0.0635
  697DOPC   C3A 8172   3.252  21.526  14.347 -0.1548 -0.2322 -0.1470
  697DOPC   C4A 8173   3.218  21.761  14.755 -0.0275 -0.0226  0.1931
  697DOPC   C1B 8174   3.892  22.127  13.964 -0.0120 -0.2597  0.0609
  697DOPC   D2B 8175   3.907  21.791  14.274  0.0783 -0.4098 -0.0262
  697DOPC   C3B 8176   4.182  21.603  14.561  0.0022 -0.1747 -0.2629
  697DOPC   C4B 8177   4.218  21.393  14.961  0.1458  0.2255 -0.0950
  698DOPC   NC3 8178   6.820  18.831  12.713  0.1972  0.1154 -0.1304
  698DOPC   PO4 8179   6.829  19.133  12.460 -0.1532  0.1021  0.1474
  698DOPC   GL1 8180   6.514  19.165  12.681 -0.0561  0.0680 -0.2105
  698DOPC   GL2 8181   6.578  19.212  12.940 -0.2404  0.0562 -0.1931
  698DOPC   C1A 8182   6.289  18.766  12.681  0.0685 -0.3377  0.0020
  698DOPC   D2A 8183   6.140  18.567  13.001  0.3022 -0.5083 -0.2254
  698DOPC   C3A 8184   6.231  18.761  13.401 -0.3409  0.0689  0.2333
  698DOPC   C4A 8185   6.393  18.590  13.776 -0.1180  0.1107  0.4094
  698DOPC   C1B 8186   6.240  19.230  13.304  0.1549 -0.1266 -0.0664
  698DOPC   D2B 8187   6.127  19.334  13.722  0.2275 -0.1918 -0.1632
  698DOPC   C3B 8188   6.176  18.992  13.987  0.1952  0.2196 -0.3834
  698DOPC   C4B 8189   6.462  18.854  14.309 -0.0138 -0.0196 -0.2860
  699POSM   NC3 8190   1.938  15.594  12.179 -0.2527 -0.3572 -0.3822
  699POSM   PO4 8191   2.066  15.258  12.197 -0.3106 -0.2621 -0.1794
  699POSM   AM1 8192   2.263  15.066  12.361  0.2579 -0.0321  0.2752
  699POSM   AM2 8193   2.290  14.790  12.365 -0.1290  0.3026 -0.1553
  699POSM   T1A 8194   2.722  15.062  12.614 -0.1479  0.0972 -0.2424
  699POSM   C2A 8195   3.193  15.175  12.594 -0.1213 -0.1802  0.2668
  699POSM   C3A 8196   3.643  15.372  12.357  0.0819 -0.2807  0.0719
  699POSM   C1B 8197   2.116  14.471  12.400  0.2927 -0.1556  0.1742
  699POSM   D2B 8198   1.906  14.049  12.371  0.0943  0.1263  0.0884
  699POSM   C3B 8199   2.035  13.626  12.306 -0.1127 -0.1845  0.1471
  699POSM   C4B 8200   2.028  13.340  12.741 -0.1154  0.3956 -0.0652
  700DOPC   NC3 8201   1.338  21.639  12.713  0.0042 -0.0543  0.3587
  700DOPC   PO4 8202   1.089  21.860  12.914  0.0250  0.2613 -0.2037
  700DOPC   GL1 8203   1.232  21.688  13.191 -0.3153  0.1718  0.0389
  700DOPC   GL2 8204   1.186  21.977  13.383  0.1685  0.1311 -0.1875
  700DOPC   C1A 8205   1.010  21.489  13.606 -0.1804  0.0049 -0.1390
  700DOPC   D2A 8206   1.023  21.299  14.056  0.1083  0.0958 -0.0733
  700DOPC   C3A 8207   1.393  21.258  14.343 -0.1000  0.0990  0.1617
  700DOPC   C4A 8208   1.566  21.543  14.655  0.3053 -0.0978  0.1323
  700DOPC   C1B 8209   1.483  22.041  13.714 -0.2045 -0.0559  0.1036
  700DOPC   D2B 8210   1.811  22.166  14.001 -0.0622  0.0616  0.3150
  700DOPC   C3B 8211   1.795  22.600  14.124 -0.1092 -0.1535 -0.2679
  700DOPC   C4B 8212   1.920  22.970  14.348 -0.1383  0.0128 -0.0518
  701POSM   NC3 8213  10.057  16.504  11.771 -0.3745 -0.1662 -0.0451
  701POSM   PO4 8214  10.278  16.201  11.740  0.1760 -0.0016 -0.3142
  701POSM   AM1 8215  10.296  16.196  12.079  0.1840  0.1522  0.3070
  701POSM   AM2 8216  10.052  16.068  12.269  0.0076 -0.3226 -0.0593
  701POSM   T1A 8217  10.421  16.246  12.541  0.0872 -0.0803 -0.1050
  701POSM   C2A 8218  10.333  16.201  12.973 -0.0801 -0.3143 -0.1194
  701POSM   C3A 8219  10.304  16.079  13.396  0.1882 -0.0565 -0.0808
  701POSM   C1B 8220   9.837  16.159  12.553 -0.3195 -0.3429 -0.0910
  701POSM   D2B 8221   9.678  16.487  12.805 -0.0637  0.2146 -0.2116
  701POSM   C3B 8222   9.820  16.728  13.116 -0.0242 -0.1281  0.1494
  701POSM   C4B 8223   9.837  16.895  13.580  0.1496 -0.2380 -0.1914
  702DOPS   CNO 8224   8.947  12.903  12.005  0.0643  0.2724 -0.2473
  702DOPS   PO4 8225   8.803  13.171  12.236  0.0434  0.1667  0.0033
  702DOPS   GL1 8226   8.845  13.417  12.570 -0.2901 -0.4091 -0.1812
  702DOPS   GL2 8227   8.624  13.450  12.818  0.1481  0.0221 -0.1143
  702DOPS   C1A 8228   9.132  13.529  12.870 -0.4364  0.1120 -0.2380
  702DOPS   D2A 8229   9.135  13.562  13.288 -0.0780  0.0356  0.1021
  702DOPS   C3A 8230   9.267  13.949  13.395 -0.4685  0.5745 -0.1622
  702DOPS   C4A 8231   9.268  14.212  13.764  0.1923 -0.4031 -0.1557
  702DOPS   C1B 8232   8.451  13.707  13.187  0.2523  0.1292 -0.3064
  702DOPS   D2B 8233   8.373  14.023  13.537 -0.0492  0.0984  0.0991
  702DOPS   C3B 8234   8.563  13.992  13.984  0.0620 -0.4611 -0.0607
  702DOPS   C4B 8235   8.997  13.921  14.139 -0.4172 -0.1914  0.2848
  703DOPC   NC3 8236   6.017  17.580  12.472  0.2218  0.0509  0.1086
  703DOPC   PO4 8237   6.052  17.165  12.573  0.0402 -0.3146  0.2053
  703DOPC   GL1 8238   5.701  17.215  12.777 -0.0237 -0.0048  0.5744
  703DOPC   GL2 8239   5.811  17.415  12.944 -0.0998 -0.0784  0.0717
  703DOPC   C1A 8240   5.258  17.223  12.697  0.1416  0.1387 -0.0665
  703DOPC   D2A 8241   4.921  17.027  12.994 -0.0480  0.1992  0.0308
  703DOPC   C3A 8242   4.569  17.288  13.122  0.1085 -0.1196  0.1634
  703DOPC   C4A 8243   4.388  17.552  13.449 -0.1278  0.5880  0.1314
  703DOPC   C1B 8244   5.442  17.725  13.151 -0.0265  0.1111 -0.1661
  703DOPC   D2B 8245   5.346  17.688  13.609 -0.0287 -0.1262  0.0366
  703DOPC   C3B 8246   5.543  17.694  14.016  0.0477 -0.1025 -0.0163
  703DOPC   C4B 8247   5.896  17.775  14.274  0.0236 -0.0934  0.2229
  704DOPS   CNO 8248   0.798  21.790  12.469 -0.2425 -0.0183  0.0274
  704DOPS   PO4 8249   0.603  21.747  12.770 -0.0313  0.2973  0.2765
  704DOPS   GL1 8250   0.480  21.895  13.166  0.2964  0.0781 -0.0334
  704DOPS   GL2 8251   0.693  21.704  13.287 -0.1116  0.3352  0.2589
  704DOPS   C1A 8252   0.281  21.885  13.577 -0.1980  0.0430 -0.1520
  704DOPS   D2A 8253   0.294  21.951  14.026 -0.0159 -0.1537  0.0027
  704DOPS   C3A 8254   0.575  22.042  14.364  0.1523 -0.0669 -0.2828
  704DOPS   C4A 8255   0.735  21.917  14.778  0.0396 -0.2214  0.0562
  704DOPS   C1B 8256   0.783  21.878  13.664 -0.0591 -0.1094 -0.0123
  704DOPS   D2B 8257   0.981  21.941  14.093 -0.0136 -0.1145 -0.4636
  704DOPS   C3B 8258   1.002  21.604  14.443 -0.2003  0.0610 -0.0964
  704DOPS   C4B 8259   0.736  21.293  14.661 -0.2444 -0.2427  0.0007
  705DOPE   NH3 8260   2.678  20.265  12.548  0.1646 -0.1611 -0.2326
  705DOPE   PO4 8261   2.929  20.452  12.415 -0.0698  0.0670 -0.0958
  705DOPE   GL1 8262   3.248  20.594  12.442 -0.0072  0.0119 -0.3205
  705DOPE   GL2 8263   3.474  20.462  12.616 -0.3254 -0.0417  0.0130
  705DOPE   C1A 8264   3.523  20.938  12.622  0.2726 -0.1629  0.0656
  705DOPE   D2A 8265   3.835  21.258  12.706  0.0690  0.0392 -0.0146
  705DOPE   C3A 8266   4.279  21.256  12.929 -0.1273  0.0223  0.0090
  705DOPE   C4A 8267   4.674  20.981  12.959  0.2205 -0.0916 -0.0512
  705DOPE   C1B 8268   3.834  20.615  12.532 -0.3318 -0.1128  0.0760
  705DOPE   D2B 8269   4.325  20.655  12.547  0.0408 -0.0092 -0.0379
  705DOPE   C3B 8270   4.556  20.463  12.961 -0.1434 -0.0369 -0.0503
  705DOPE   C4B 8271   4.648  20.459  13.418 -0.1680 -0.3384  0.0527
  706DOPE   NH3 8272   9.456  13.746  11.815 -0.0222 -0.2805  0.0971
  706DOPE   PO4 8273   9.492  14.074  11.892 -0.0692 -0.2132  0.0056
  706DOPE   GL1 8274   9.742  14.194  12.165 -0.2891 -0.1536 -0.0679
  706DOPE   GL2 8275   9.903  14.416  12.006  0.0614 -0.0757  0.0403
  706DOPE   C1A 8276  10.105  14.031  12.445 -0.2913 -0.0780 -0.4101
  706DOPE   D2A 8277  10.552  14.090  12.644  0.2072 -0.3424 -0.0045
  706DOPE   C3A 8278  10.926  14.036  12.819 -0.0354 -0.0412  0.1318
  706DOPE   C4A 8279  10.978  14.214  13.261 -0.1477  0.1523  0.1394
  706DOPE   C1B 8280   9.986  14.554  12.414 -0.2910 -0.0283  0.1173
  706DOPE   D2B 8281  10.126  14.497  12.859 -0.2128 -0.1526  0.3704
  706DOPE   C3B 8282  10.102  14.048  13.007 -0.0594 -0.3148 -0.1907
  706DOPE   C4B 8283  10.358  13.693  12.993 -0.1024  0.2772  0.1944
  707DOPE   NH3 8284   6.615  15.798  12.776  0.1428 -0.3526 -0.1775
  707DOPE   PO4 8285   6.343  15.697  12.806 -0.1303 -0.1106 -0.4100
  707DOPE   GL1 8286   6.430  15.625  13.152  0.1747 -0.1742 -0.1731
  707DOPE   GL2 8287   6.689  15.585  13.228  0.1324  0.1387  0.2458
  707DOPE   C1A 8288   6.435  15.811  13.601 -0.0439  0.0696 -0.1124
  707DOPE   D2A 8289   6.072  16.034  13.854 -0.3008  0.2417 -0.0257
  707DOPE   C3A 8290   5.930  15.899  14.286  0.2674  0.0274  0.0109
  707DOPE   C4A 8291   5.539  15.652  14.465  0.1979 -0.0208  0.1205
  707DOPE   C1B 8292   6.880  15.448  13.553 -0.1222  0.0277 -0.2507
  707DOPE   D2B 8293   6.815  15.561  13.995  0.0549  0.2334 -0.0256
  707DOPE   C3B 8294   6.892  15.199  14.299 -0.0363  0.1361 -0.0410
  707DOPE   C4B 8295   7.024  15.302  14.738  0.0727  0.2269 -0.0639
  708DOPC   NC3 8296   4.967  13.641  12.293 -0.0908 -0.2092 -0.1920
  708DOPC   PO4 8297   5.093  13.793  12.641 -0.0075  0.1886  0.1037
  708DOPC   GL1 8298   5.311  13.551  12.834  0.4325  0.0068 -0.4615
  708DOPC   GL2 8299   5.219  13.307  12.659  0.2544  0.0630 -0.1758
  708DOPC   C1A 8300   5.478  13.327  13.217  0.0782 -0.2460 -0.4385
  708DOPC   D2A 8301   5.544  13.234  13.676  0.1928  0.0903 -0.1680
  708DOPC   C3A 8302   5.697  12.831  13.791  0.2523 -0.1511  0.0564
  708DOPC   C4A 8303   5.699  12.527  14.094 -0.0066 -0.5074  0.1801
  708DOPC   C1B 8304   5.000  13.155  13.037 -0.0704  0.2267  0.1281
  708DOPC   D2B 8305   5.044  13.064  13.489 -0.0795  0.4723  0.2241
  708DOPC   C3B 8306   5.163  12.825  13.804 -0.0078  0.0410 -0.0383
  708DOPC   C4B 8307   4.900  12.431  13.929  0.1099 -0.2770 -0.3000
  709DOPS   CNO 8308  10.574  18.836  11.875  0.0445 -0.0316 -0.0865
  709DOPS   PO4 8309  10.695  19.072  12.091 -0.1943  0.2314 -0.0699
  709DOPS   GL1 8310  10.723  18.814  12.439  0.1525  0.3563  0.2541
  709DOPS   GL2 8311  10.962  18.973  12.519  0.0057  0.0891  0.1428
  709DOPS   C1A 8312  10.570  18.752  12.853 -0.0472  0.3230  0.0835
  709DOPS   D2A 8313  10.494  18.513  13.253  0.2785  0.3430 -0.0279
  709DOPS   C3A 8314  10.176  18.421  13.558 -0.1681 -0.1350  0.0849
  709DOPS   C4A 8315  10.188  18.097  13.826  0.1932 -0.0516 -0.0300
  709DOPS   C1B 8316  10.813  19.193  12.866 -0.2303 -0.1400 -0.0646
  709DOPS   D2B 8317  10.645  19.559  13.166 -0.0163  0.1721 -0.0802
  709DOPS   C3B 8318  10.398  19.536  13.543  0.0649 -0.3499  0.2394
  709DOPS   C4B 8319  10.066  19.809  13.755 -0.2665  0.5936 -0.0778
  710DOPS   CNO 8320   7.552  21.934  11.797 -0.1916  0.0507  0.3261
  710DOPS   PO4 8321   7.462  21.869  12.150  0.1881  0.2477 -0.0789
  710DOPS   GL1 8322   7.624  21.854  12.521  0.0125 -0.1335 -0.1241
  710DOPS   GL2 8323   7.649  21.563  12.527 -0.4012  0.2924  0.2327
  710DOPS   C1A 8324   7.868  22.062  12.827 -0.0611 -0.2998 -0.3249
  710DOPS   D2A 8325   8.035  21.966  13.236  0.1023  0.0524  0.2517
  710DOPS   C3A 8326   8.270  21.661  13.505  0.0867  0.1341 -0.0315
  710DOPS   C4A 8327   8.552  21.301  13.657 -0.1323 -0.0720  0.3915
  710DOPS   C1B 8328   7.680  21.624  12.980  0.4223 -0.0177 -0.1528
  710DOPS   D2B 8329   7.690  21.435  13.365 -0.1292  0.0668  0.0003
  710DOPS   C3B 8330   7.255  21.299  13.591  0.0707 -0.0056 -0.1221
  710DOPS   C4B 8331   6.920  21.513  13.835  0.0320  0.1180  0.2233
  711DOPC   NC3 8332   6.395  21.357  12.235  0.1964 -0.2820  0.1064
  711DOPC   PO4 8333   6.459  21.233  12.640  0.1460  0.0018 -0.0727
  711DOPC   GL1 8334   6.818  21.196  12.945  0.0788 -0.2392 -0.4033
  711DOPC   GL2 8335   6.618  21.289  13.167 -0.2327 -0.2294 -0.3217
  711DOPC   C1A 8336   7.134  20.961  13.204  0.0833  0.1663 -0.1474
  711DOPC   D2A 8337   7.516  20.956  13.416  0.1811  0.0008 -0.1123
  711DOPC   C3A 8338   7.964  20.786  13.363 -0.0464 -0.2400  0.0244
  711DOPC   C4A 8339   8.438  20.712  13.381  0.0900 -0.0205 -0.1862
  711DOPC   C1B 8340   6.731  21.040  13.565 -0.1648 -0.0892 -0.0297
  711DOPC   D2B 8341   7.024  20.677  13.702  0.0216  0.0434  0.1032
  711DOPC   C3B 8342   6.901  20.224  13.740  0.2280  0.1748 -0.1587
  711DOPC   C4B 8343   6.848  19.752  13.782  0.2929  0.0316  0.1779
  712DOPS   CNO 8344   2.351  16.418  12.632 -0.0638 -0.4759 -0.0582
  712DOPS   PO4 8345   2.239  16.290  12.945 -0.0897  0.1118  0.1703
  712DOPS   GL1 8346   2.503  15.973  13.037  0.3181 -0.2491 -0.0719
  712DOPS   GL2 8347   2.720  16.119  12.969 -0.0843 -0.3378 -0.1341
  712DOPS   C1A 8348   2.712  16.137  13.420  0.0247 -0.1030 -0.2780
  712DOPS   D2A 8349   2.671  16.011  13.836 -0.2368  0.1233 -0.1960
  712DOPS   C3A 8350   2.313  16.007  14.083 -0.5430 -0.0374  0.0185
  712DOPS   C4A 8351   1.911  16.135  14.188  0.2653  0.1679 -0.0491
  712DOPS   C1B 8352   3.159  16.077  13.005  0.1038 -0.2197  0.1408
  712DOPS   D2B 8353   3.494  15.886  13.243  0.1239  0.0091  0.1659
  712DOPS   C3B 8354   3.621  15.461  13.338 -0.1260  0.3580 -0.1511
  712DOPS   C4B 8355   3.521  15.105  13.038 -0.0787 -0.0182 -0.2228
  713DOPS   CNO 8356   3.059  18.403  12.622 -0.5785  0.1234  0.0270
  713DOPS   PO4 8357   3.272  18.252  12.892 -0.0129  0.0225  0.0550
  713DOPS   GL1 8358   3.513  18.364  13.186  0.0406  0.1781  0.4223
  713DOPS   GL2 8359   3.393  18.589  13.352 -0.0977  0.0748  0.0446
  713DOPS   C1A 8360   3.720  18.291  13.615  0.1013 -0.0021  0.0408
  713DOPS   D2A 8361   3.893  18.214  14.038 -0.4017  0.0610 -0.0410
  713DOPS   C3A 8362   4.281  18.211  13.902 -0.1630 -0.0799  0.0603
  713DOPS   C4A 8363   4.468  18.041  13.479  0.1379 -0.0286 -0.2766
  713DOPS   C1B 8364   3.584  18.792  13.741  0.1065  0.0448 -0.0865
  713DOPS   D2B 8365   3.534  18.829  14.204  0.4131  0.4026 -0.0276
  713DOPS   C3B 8366   3.234  18.903  14.530 -0.1698  0.1567  0.3172
  713DOPS   C4B 8367   2.835  19.006  14.656  0.1522 -0.1183  0.1990
  714DOPC   NC3 8368   2.446  20.701  12.360 -0.2477  0.1499 -0.5183
  714DOPC   PO4 8369   2.237  20.627  12.703  0.0259 -0.1785  0.1054
  714DOPC   GL1 8370   2.101  20.617  13.000 -0.0577  0.3565 -0.1605
  714DOPC   GL2 8371   2.081  20.957  13.062 -0.2027  0.0079  0.4064
  714DOPC   C1A 8372   2.233  20.752  13.473 -0.2087  0.1025 -0.2950
  714DOPC   D2A 8373   2.183  20.848  13.913 -0.1164 -0.2186 -0.1032
  714DOPC   C3A 8374   2.249  20.558  14.234 -0.0143  0.2611 -0.1667
  714DOPC   C4A 8375   2.599  20.731  14.509 -0.2271  0.0658  0.1393
  714DOPC   C1B 8376   1.763  20.985  13.422  0.2199  0.1230  0.3998
  714DOPC   D2B 8377   1.491  21.120  13.757 -0.0569  0.1397 -0.2164
  714DOPC   C3B 8378   1.636  21.493  13.950  0.1960  0.0893  0.0104
  714DOPC   C4B 8379   1.512  21.821  14.275  0.1578  0.0297  0.2435
  715DOPE   NH3 8380   9.527  11.861  12.345  0.1359 -0.1498 -0.1961
  715DOPE   PO4 8381   9.468  11.666  12.601 -0.1753  0.0801  0.0092
  715DOPE   GL1 8382   9.528  11.476  12.977 -0.0464 -0.1589  0.0016
  715DOPE   GL2 8383   9.364  11.639  13.086  0.0508 -0.1887  0.0718
  715DOPE   C1A 8384   9.418  11.030  13.139 -0.1430 -0.0139 -0.1126
  715DOPE   D2A 8385   9.498  10.732  13.448 -0.0308  0.2004 -0.1256
  715DOPE   C3A 8386   9.652  10.272  13.339  0.3043  0.2053 -0.0644
  715DOPE   C4A 8387   9.896   9.928  13.469 -0.0036  0.2592  0.0521
  715DOPE   C1B 8388   9.541  11.498  13.486 -0.0281  0.2990  0.0114
  715DOPE   D2B 8389   9.944  11.630  13.646  0.1134 -0.2149 -0.1054
  715DOPE   C3B 8390  10.189  11.983  13.872  0.0361 -0.2774 -0.0897
  715DOPE   C4B 8391  10.253  12.142  14.315  0.0577 -0.1158  0.1179
  716DOPE   NH3 8392   0.028  23.080  12.549  0.6145  0.0751  0.1849
  716DOPE   PO4 8393   0.112  22.784  12.523 -0.1034 -0.1212 -0.0324
  716DOPE   GL1 8394   0.282  22.747  12.826 -0.2857  0.1150  0.3238
  716DOPE   GL2 8395   0.161  22.676  13.119 -0.0674 -0.1819 -0.0295
  716DOPE   C1A 8396   0.408  23.090  13.217 -0.1119  0.4568 -0.2777
  716DOPE   D2A 8397   0.545  23.528  13.285  0.3176  0.2543 -0.2127
  716DOPE   C3A 8398   0.625  23.413  13.740 -0.0075 -0.2212 -0.4318
  716DOPE   C4A 8399   0.757  23.402  14.217  0.0437  0.0041 -0.0140
  716DOPE   C1B 8400   0.454  22.616  13.503  0.4001  0.3077 -0.1885
  716DOPE   D2B 8401   0.555  22.306  13.807 -0.0874  0.1467 -0.1551
  716DOPE   C3B 8402   0.761  22.488  14.207 -0.0168  0.2143  0.1925
  716DOPE   C4B 8403   0.964  22.580  14.577 -0.2450 -0.2176 -0.0029
  717POSM   NC3 8404   5.190  14.244  12.822 -0.1837  0.1613 -0.3170
  717POSM   PO4 8405   5.075  14.502  13.118  0.3672 -0.5677  0.0346
  717POSM   AM1 8406   5.286  14.346  13.287  0.4205  0.0157 -0.3347
  717POSM   AM2 8407   5.545  14.207  13.237 -0.0776 -0.0643 -0.3703
  717POSM   T1A 8408   5.525  14.221  13.722  0.0251  0.1078 -0.0316
  717POSM   C2A 8409   5.604  14.077  14.147 -0.2248  0.2273 -0.3630
  717POSM   C3A 8410   5.654  13.868  14.568 -0.0775  0.1957 -0.2138
  717POSM   C1B 8411   5.808  14.094  13.285  0.2279 -0.2303 -0.0419
  717POSM   D2B 8412   6.084  13.996  13.578  0.3625 -0.3575 -0.2631
  717POSM   C3B 8413   6.131  14.152  14.032 -0.1101 -0.3343  0.2224
  717POSM   C4B 8414   5.893  14.285  14.403  0.0048  0.3666 -0.0672
  718DOPS   CNO 8415   8.852  22.158  11.911 -0.0611  0.1335  0.1582
  718DOPS   PO4 8416   8.996  21.823  11.948  0.1483 -0.3637  0.0515
  718DOPS   GL1 8417   8.768  21.599  12.103  0.4269  0.1251  0.2550
  718DOPS   GL2 8418   8.619  21.673  12.371 -0.1593  0.1280  0.1784
  718DOPS   C1A 8419   8.576  21.145  12.074  0.3624 -0.4389  0.3407
  718DOPS   D2A 8420   8.535  20.797  12.398  0.0186 -0.0548 -0.0071
  718DOPS   C3A 8421   8.602  20.971  12.773 -0.1507  0.2831 -0.2816
  718DOPS   C4A 8422   8.625  21.219  13.155  0.1973 -0.1188  0.1473
  718DOPS   C1B 8423   8.662  21.627  12.795  0.2688 -0.2166 -0.0157
  718DOPS   D2B 8424   8.748  21.701  13.256 -0.1096  0.0859 -0.2495
  718DOPS   C3B 8425   9.087  21.904  13.430 -0.1091 -0.0109 -0.0462
  718DOPS   C4B 8426   9.068  22.377  13.417  0.2654  0.0056  0.0543
  719DOPC   NC3 8427   7.356  12.980  12.458 -0.1828 -0.4217  0.0792
  719DOPC   PO4 8428   7.333  13.150  12.808  0.1164  0.1169 -0.1845
  719DOPC   GL1 8429   7.118  13.344  13.006 -0.0890  0.1503  0.0530
  719DOPC   GL2 8430   6.796  13.297  12.972 -0.1443 -0.0589 -0.0752
  719DOPC   C1A 8431   6.973  13.632  13.388 -0.1124  0.0766 -0.0184
  719DOPC   D2A 8432   6.989  13.985  13.662 -0.0816 -0.3336  0.1009
  719DOPC   C3A 8433   7.260  13.972  13.995 -0.2671  0.0401 -0.5077
  719DOPC   C4A 8434   7.322  13.928  14.449  0.0083 -0.1448  0.2462
  719DOPC   C1B 8435   6.505  13.469  13.247 -0.1901  0.0435 -0.2558
  719DOPC   D2B 8436   6.318  13.349  13.603  0.1420 -0.0695  0.1560
  719DOPC   C3B 8437   6.191  13.240  14.067  0.2142 -0.0177  0.0464
  719DOPC   C4B 8438   5.791  13.116  14.140  0.0240 -0.2808 -0.3331
  720DOPE   NH3 8439  34.687  14.482  12.455 -0.1192 -0.2142  0.0639
  720DOPE   PO4 8440  34.824  14.397  12.754  0.0022  0.0228  0.2432
  720DOPE   GL1 8441  34.853  14.525  13.124 -0.1469  0.1936 -0.0540
  720DOPE   GL2 8442  34.916  14.851  13.068  0.0981  0.0901 -0.1971
  720DOPE   C1A 8443  34.935  14.209  13.451  0.0650  0.1273  0.3466
  720DOPE   D2A 8444  35.099  13.836  13.683 -0.2262 -0.0914  0.3338
  720DOPE   C3A 8445  35.131  13.813  14.189 -0.1168 -0.0079 -0.1725
  720DOPE   C4A 8446  35.363  14.021  14.506  0.0411 -0.0894  0.0999
  720DOPE   C1B 8447  35.081  14.756  13.468  0.0491  0.1543  0.2217
  720DOPE   D2B 8448  35.360  14.437  13.680 -0.2560 -0.0795 -0.1551
  720DOPE   C3B 8449  35.137  14.266  13.971 -0.1129 -0.4420 -0.0406
  720DOPE   C4B 8450  34.731  14.073  13.992  0.2531  0.5346 -0.3022
  721DOPS   CNO 8451   5.134  14.514  12.398  0.0529 -0.2310 -0.0002
  721DOPS   PO4 8452   5.193  14.138  12.242  0.2550 -0.1675 -0.1284
  721DOPS   GL1 8453   5.581  13.873  12.408 -0.0528  0.2042  0.0453
  721DOPS   GL2 8454   5.665  14.022  12.660 -0.1437 -0.0821 -0.0945
  721DOPS   C1A 8455   5.686  13.438  12.403 -0.3064 -0.1839  0.1630
  721DOPS   D2A 8456   5.782  13.018  12.649  0.1879  0.0084  0.1591
  721DOPS   C3A 8457   5.397  12.911  12.896  0.1545  0.0242  0.1530
  721DOPS   C4A 8458   5.406  12.769  13.336  0.0427  0.1122  0.1130
  721DOPS   C1B 8459   6.068  13.775  12.632  0.1393  0.0037  0.0480
  721DOPS   D2B 8460   6.547  13.863  12.694  0.1219  0.1616 -0.0129
  721DOPS   C3B 8461   6.767  14.183  13.018 -0.0817 -0.0228 -0.1522
  721DOPS   C4B 8462   6.907  14.448  13.419  0.4641  0.4318  0.1285
  722DOPS   CNO 8463   9.584  19.217  11.813 -0.2202 -0.0751 -0.7510
  722DOPS   PO4 8464   9.230  19.336  11.766 -0.3186 -0.2789 -0.4599
  722DOPS   GL1 8465   9.092  19.738  11.808  0.0193  0.2619 -0.1679
  722DOPS   GL2 8466   8.965  19.776  12.135  0.0548 -0.1587 -0.3239
  722DOPS   C1A 8467   9.230  20.153  11.983  0.0604  0.0356 -0.1540
  722DOPS   D2A 8468   9.141  20.598  12.001  0.1433  0.0051 -0.0170
  722DOPS   C3A 8469   9.103  20.729  12.485  0.0689  0.0293  0.1518
  722DOPS   C4A 8470   9.232  21.066  12.850  0.2249  0.2959  0.2611
  722DOPS   C1B 8471   8.727  20.011  11.800 -0.2215  0.0966 -0.0436
  722DOPS   D2B 8472   8.271  19.997  11.786  0.1407 -0.0121  0.0701
  722DOPS   C3B 8473   7.940  20.332  11.676 -0.1655  0.3120 -0.1332
  722DOPS   C4B 8474   7.539  20.493  11.464  0.0387  0.0525  0.0246
  723DOPE   NH3 8475   0.484  22.230  12.577  0.1981  0.2311  0.1990
  723DOPE   PO4 8476   0.301  22.291  12.840  0.0732 -0.2083 -0.1275
  723DOPE   GL1 8477   0.145  22.218  13.242 -0.1958  0.0952 -0.2098
  723DOPE   GL2 8478  -0.127  22.060  13.228  0.3921  0.1092  0.1895
  723DOPE   C1A 8479   0.061  22.384  13.643  0.2953  0.1068 -0.3569
  723DOPE   D2A 8480  -0.136  22.291  14.032  0.1486 -0.1914 -0.1129
  723DOPE   C3A 8481   0.063  22.239  14.401  0.2775 -0.3062 -0.0416
  723DOPE   C4A 8482   0.007  22.169  14.848  0.0357  0.2091  0.3534
  723DOPE   C1B 8483  -0.214  21.934  13.630  0.0522 -0.2219 -0.2113
  723DOPE   D2B 8484  -0.166  21.744  14.029 -0.1118  0.2283  0.2094
  723DOPE   C3B 8485  -0.133  21.743  14.483  0.2494 -0.3119  0.1983
  723DOPE   C4B 8486  -0.235  21.741  14.854  0.1042  0.0472 -0.2246
  724DOPE   NH3 8487   3.045  17.773  12.802 -0.0356 -0.1069 -0.4481
  724DOPE   PO4 8488   3.172  17.596  13.027 -0.2016 -0.1008 -0.0517
  724DOPE   GL1 8489   3.527  17.602  13.079 -0.2482  0.3434 -0.0124
  724DOPE   GL2 8490   3.664  17.814  13.295  0.1503  0.1562 -0.0496
  724DOPE   C1A 8491   3.997  17.546  13.076  0.0527  0.1722 -0.3702
  724DOPE   D2A 8492   4.369  17.817  13.008  0.5211 -0.2241  0.0604
  724DOPE   C3A 8493   4.834  17.883  13.158 -0.1590 -0.0619  0.0131
  724DOPE   C4A 8494   5.119  18.184  13.326 -0.0921 -0.4274  0.0705
  724DOPE   C1B 8495   4.022  17.876  13.642  0.1185 -0.1277  0.0412
  724DOPE   D2B 8496   4.342  17.708  13.935  0.0263 -0.1678 -0.0066
  724DOPE   C3B 8497   4.519  17.485  14.266  0.2796  0.3356 -0.3616
  724DOPE   C4B 8498   4.875  17.423  14.577  0.1540  0.1133  0.0085
  725POSM   NC3 8499   9.864  11.222  12.779 -0.2834  0.1080  0.2324
  725POSM   PO4 8500   9.956  11.511  12.524 -0.2307 -0.1873  0.1950
  725POSM   AM1 8501  10.030  11.810  12.700  0.2255 -0.3683 -0.1090
  725POSM   AM2 8502   9.838  11.990  12.821  0.0557  0.2915 -0.0995
  725POSM   T1A 8503  10.337  12.183  12.870  0.1052 -0.2291 -0.2254
  725POSM   C2A 8504  10.792  12.303  12.799 -0.1695  0.6625  0.2353
  725POSM   C3A 8505  11.158  12.503  12.544 -0.0298  0.3225  0.6033
  725POSM   C1B 8506   9.800  11.894  13.115 -0.2956  0.1762  0.1828
  725POSM   D2B 8507   9.689  12.031  13.475 -0.2592  0.0385  0.0048
  725POSM   C3B 8508   9.991  12.371  13.593  0.4215  0.1630 -0.0315
  725POSM   C4B 8509  10.362  12.619  13.564  0.0227  0.3115 -0.0229
  726DOPC   NC3 8510   7.131  16.361  12.462  0.1123  0.2150  0.0273
  726DOPC   PO4 8511   7.088  16.148  12.798  0.2588  0.2082  0.4895
  726DOPC   GL1 8512   6.960  15.922  13.080  0.0887  0.0579  0.1133
  726DOPC   GL2 8513   6.816  16.070  13.210  0.1009  0.0618  0.0606
  726DOPC   C1A 8514   7.317  15.850  13.373  0.1305  0.3513  0.0956
  726DOPC   D2A 8515   7.652  15.711  13.622 -0.2550  0.1128 -0.1347
  726DOPC   C3A 8516   7.749  15.916  14.009 -0.0578  0.0522 -0.2763
  726DOPC   C4A 8517   7.831  16.406  14.095 -0.3248  0.2517  0.1285
  726DOPC   C1B 8518   6.918  15.956  13.608  0.1576 -0.4656 -0.1845
  726DOPC   D2B 8519   7.118  15.970  14.009  0.0183  0.0254  0.0860
  726DOPC   C3B 8520   7.383  16.281  13.801  0.3134  0.1345  0.0356
  726DOPC   C4B 8521   7.427  16.724  13.624  0.2472  0.0260 -0.1845
  727DOPC   NC3 8522   3.143  17.576  13.475  0.1803  0.4192  0.1340
  727DOPC   PO4 8523   2.802  17.374  13.434 -0.1062 -0.1478 -0.1839
  727DOPC   GL1 8524   3.057  17.066  13.352 -0.0297  0.1187 -0.0895
  727DOPC   GL2 8525   3.355  17.146  13.315 -0.2070  0.1189  0.4332
  727DOPC   C1A 8526   3.152  16.755  13.664  0.0939 -0.1822  0.0191
  727DOPC   D2A 8527   3.197  16.521  14.038  0.1112  0.1122 -0.1791
  727DOPC   C3A 8528   3.549  16.240  14.092 -0.1495  0.0987  0.1302
  727DOPC   C4A 8529   3.941  15.964  14.129  0.1151  0.3818  0.0068
  727DOPC   C1B 8530   3.738  17.329  13.533 -0.0761 -0.1635 -0.0679
  727DOPC   D2B 8531   3.813  17.529  13.942  0.2106  0.0307 -0.2326
  727DOPC   C3B 8532   3.571  17.552  14.316  0.0612 -0.0083  0.0592
  727DOPC   C4B 8533   3.602  17.858  14.624 -0.2030 -0.0806  0.0890
  728DOPE   NH3 8534   8.460  22.267  11.629  0.3184  0.0017  0.0563
  728DOPE   PO4 8535   8.448  22.585  11.731  0.0768  0.1537 -0.1540
  728DOPE   GL1 8536   8.331  22.955  11.887  0.0820 -0.1932  0.1543
  728DOPE   GL2 8537   8.416  22.854  12.164 -0.0433  0.1048  0.1043
  728DOPE   C1A 8538   8.194  23.317  12.201 -0.2399  0.0856 -0.1043
  728DOPE   D2A 8539   8.279  23.812  12.296  0.1591  0.0257  0.2381
  728DOPE   C3A 8540   8.420  23.909  12.768 -0.2008 -0.1244  0.1139
  728DOPE   C4A 8541   8.351  24.026  13.179 -0.0168  0.2116  0.2315
  728DOPE   C1B 8542   8.595  23.023  12.559 -0.2888 -0.1230  0.2105
  728DOPE   D2B 8543   8.858  23.014  12.957  0.1039  0.0042 -0.1274
  728DOPE   C3B 8544   8.826  22.589  13.050  0.1877 -0.0327 -0.0283
  728DOPE   C4B 8545   8.886  22.128  13.029 -0.2140 -0.0040  0.0650
  729POSM   NC3 8546  10.959  23.305  11.970  0.0867 -0.1660  0.1866
  729POSM   PO4 8547  11.003  22.976  12.154 -0.2902  0.1525  0.1058
  729POSM   AM1 8548  10.775  23.009  12.387 -0.3731  0.0337 -0.5962
  729POSM   AM2 8549  10.690  23.114  12.638  0.2389  0.3092 -0.3206
  729POSM   T1A 8550  10.274  22.876  12.539  0.1746 -0.0137  0.1674
  729POSM   C2A 8551   9.829  22.879  12.324 -0.0145 -0.1321 -0.2690
  729POSM   C3A 8552   9.412  22.673  12.212  0.0523 -0.0159 -0.0163
  729POSM   C1B 8553  10.509  23.170  12.903  0.0044 -0.0196 -0.1715
  729POSM   D2B 8554  10.281  23.002  13.235 -0.0230  0.0764 -0.0255
  729POSM   C3B 8555  10.396  23.322  13.582 -0.0527  0.3961  0.2093
  729POSM   C4B 8556  10.485  23.420  14.040  0.3359  0.1540 -0.1476
  730DOPE   NH3 8557   6.456  17.261  12.976  0.1214 -0.1176 -0.2269
  730DOPE   PO4 8558   6.254  17.524  12.923 -0.3259  0.3274  0.0104
  730DOPE   GL1 8559   6.080  17.863  12.854  0.1233 -0.4097 -0.1616
  730DOPE   GL2 8560   6.291  18.058  13.055 -0.3435  0.0067 -0.2337
  730DOPE   C1A 8561   5.856  18.185  13.104  0.0785 -0.0992 -0.1380
  730DOPE   D2A 8562   5.605  18.472  13.327  0.2035  0.0168  0.0537
  730DOPE   C3A 8563   5.334  18.578  13.741 -0.1764 -0.3929  0.2494
  730DOPE   C4A 8564   5.018  18.844  13.927 -0.3137  0.0255  0.0892
  730DOPE   C1B 8565   6.143  18.204  13.479 -0.0001  0.1382  0.2654
  730DOPE   D2B 8566   5.848  18.443  13.744 -0.1100 -0.0003  0.1678
  730DOPE   C3B 8567   5.647  18.296  14.112 -0.0258  0.0105 -0.1079
  730DOPE   C4B 8568   5.578  18.098  14.512  0.2366 -0.0934  0.0557
  731DOPC   NC3 8569   7.095  17.982  12.721 -0.1167 -0.2664  0.0832
  731DOPC   PO4 8570   7.269  17.703  12.532  0.0087  0.0018 -0.0031
  731DOPC   GL1 8571   7.231  17.617  12.982 -0.0621 -0.0019  0.0082
  731DOPC   GL2 8572   7.110  17.386  12.978 -0.0814 -0.0051  0.2582
  731DOPC   C1A 8573   7.493  17.845  13.297  0.2753  0.1092  0.0291
  731DOPC   D2A 8574   7.661  18.100  13.556  0.2173  0.1067  0.1089
  731DOPC   C3A 8575   8.125  18.256  13.506 -0.1591 -0.3212 -0.1633
  731DOPC   C4A 8576   8.467  17.985  13.377 -0.3460 -0.1465  0.0669
  731DOPC   C1B 8577   7.260  17.381  13.405  0.3167 -0.0462  0.2589
  731DOPC   D2B 8578   7.296  17.195  13.825 -0.1090  0.0756  0.1019
  731DOPC   C3B 8579   6.987  17.010  14.106  0.3043 -0.0822 -0.1550
  731DOPC   C4B 8580   6.606  16.896  14.342 -0.0307  0.1895 -0.0436
  732DOPS   CNO 8581   2.783  12.106  12.220  0.0961  0.1946  0.0007
  732DOPS   PO4 8582   2.434  12.122  12.393 -0.2023  0.1032  0.0387
  732DOPS   GL1 8583   2.133  12.395  12.342 -0.3120 -0.5182 -0.1934
  732DOPS   GL2 8584   2.137  12.441  12.684 -0.0728 -0.0064 -0.2381
  732DOPS   C1A 8585   1.729  12.556  12.190  0.0682  0.1372 -0.0576
  732DOPS   D2A 8586   1.278  12.407  12.120 -0.2996 -0.1354 -0.1758
  732DOPS   C3A 8587   1.257  12.909  12.082  0.1631  0.2509 -0.3655
  732DOPS   C4A 8588   0.808  13.022  12.006 -0.1991 -0.0937 -0.2264
  732DOPS   C1B 8589   1.703  12.374  12.920  0.3799  0.3775  0.0280
  732DOPS   D2B 8590   1.672  12.360  13.372  0.0871  0.1329 -0.2372
  732DOPS   C3B 8591   1.829  12.180  13.781 -0.0165  0.2092 -0.1549
  732DOPS   C4B 8592   2.013  12.162  14.210  0.0354 -0.0786  0.0204
  733DOPE   NH3 8593   3.037  21.181  12.756 -0.2531  0.0488 -0.3100
  733DOPE   PO4 8594   3.066  21.164  13.063 -0.1851  0.2450  0.1009
  733DOPE   GL1 8595   3.042  21.288  13.334  0.3794 -0.1949 -0.7113
  733DOPE   GL2 8596   2.988  21.000  13.502  0.1487  0.1180  0.1841
  733DOPE   C1A 8597   3.047  21.535  13.731  0.2219  0.0257 -0.4480
  733DOPE   D2A 8598   2.788  21.714  14.101 -0.4393 -0.3025 -0.0337
  733DOPE   C3A 8599   2.748  21.777  14.531 -0.0557  0.1904 -0.1916
  733DOPE   C4A 8600   2.766  21.964  14.932  0.0597 -0.1194  0.1104
  733DOPE   C1B 8601   3.430  20.986  13.591 -0.3216 -0.0548  0.0504
  733DOPE   D2B 8602   3.844  21.057  13.484  0.1071  0.2330  0.2717
  733DOPE   C3B 8603   4.154  21.128  13.749 -0.5066 -0.4348  0.2622
  733DOPE   C4B 8604   4.535  21.321  13.920  0.0551  0.2189 -0.0256
  734DOPE   NH3 8605   2.654  16.607  13.022 -0.1684 -0.2946 -0.0199
  734DOPE   PO4 8606   2.840  16.627  12.749 -0.1492  0.1962 -0.0691
  734DOPE   GL1 8607   3.168  16.609  12.919 -0.1353  0.0453  0.3498
  734DOPE   GL2 8608   3.145  16.636  13.160 -0.1218 -0.0138 -0.1806
  734DOPE   C1A 8609   3.587  16.418  13.077  0.2413 -0.0596  0.2035
  734DOPE   D2A 8610   3.972  16.235  13.294  0.0491 -0.1636 -0.0156
  734DOPE   C3A 8611   4.233  16.007  13.606 -0.0058 -0.0771  0.0716
  734DOPE   C4A 8612   4.426  16.061  14.014 -0.0827 -0.2764 -0.0378
  734DOPE   C1B 8613   3.175  16.289  13.476 -0.1304 -0.0696  0.3016
  734DOPE   D2B 8614   3.178  16.085  13.885  0.3368  0.1795  0.1602
  734DOPE   C3B 8615   2.988  15.713  14.083 -0.1400 -0.2333  0.1547
  734DOPE   C4B 8616   2.609  15.440  14.201 -0.0725  0.3750 -0.0375
  735DOPS   CNO 8617  11.122  23.365  12.438 -0.1621 -0.2810 -0.2171
  735DOPS   PO4 8618  10.853  23.588  12.404  0.3086  0.3523  0.0917
  735DOPS   GL1 8619  10.805  23.519  12.778  0.2239 -0.3073  0.3255
  735DOPS   GL2 8620  11.027  23.484  12.939 -0.0675  0.0939  0.3209
  735DOPS   C1A 8621  10.485  23.603  13.160 -0.0597  0.1521  0.2873
  735DOPS   D2A 8622  10.702  23.745  13.524  0.1124  0.4010  0.3446
  735DOPS   C3A 8623  11.107  23.667  13.451 -0.3388  0.2168  0.3183
  735DOPS   C4A 8624  11.387  23.347  13.302 -0.0629 -0.2025  0.0309
  735DOPS   C1B 8625  10.823  23.264  13.274 -0.0476 -0.1741 -0.2476
  735DOPS   D2B 8626  10.972  23.241  13.719  0.4304  0.4236 -0.4172
  735DOPS   C3B 8627  10.970  23.672  13.923 -0.1720  0.3258 -0.1914
  735DOPS   C4B 8628  10.926  24.057  14.200  0.0525 -0.1545  0.0840
  736DOPE   NH3 8629  10.669  14.598  11.690  0.2721  0.0550  0.2375
  736DOPE   PO4 8630  10.381  14.388  11.646  0.2202  0.0596  0.0762
  736DOPE   GL1 8631  10.338  14.457  12.023  0.2023  0.0148 -0.2780
  736DOPE   GL2 8632  10.469  14.196  12.086  0.0738 -0.0391 -0.0941
  736DOPE   C1A 8633  10.504  14.568  12.449 -0.0270 -0.0272  0.0221
  736DOPE   D2A 8634  10.644  14.580  12.861 -0.1851 -0.0171  0.0193
  736DOPE   C3A 8635  10.478  14.315  13.241  0.0002 -0.0197  0.2132
  736DOPE   C4A 8636  10.449  14.312  13.743 -0.0460  0.1321  0.0101
  736DOPE   C1B 8637  10.634  13.819  12.245  0.0913  0.0473  0.1498
  736DOPE   D2B 8638  11.018  13.615  12.446  0.1551 -0.0416  0.3110
  736DOPE   C3B 8639  11.364  13.440  12.217  0.1340 -0.0441 -0.0094
  736DOPE   C4B 8640  11.383  13.186  11.854 -0.1285 -0.0389 -0.1715
  737DOPS   CNO 8641   4.125  13.013  12.846  0.4915 -0.2940 -0.0232
  737DOPS   PO4 8642   4.219  13.061  12.476 -0.1698  0.1737 -0.1126
  737DOPS   GL1 8643   4.580  12.998  12.694  0.2594  0.1654 -0.1648
  737DOPS   GL2 8644   4.775  13.057  12.523 -0.2704 -0.0840  0.2077
  737DOPS   C1A 8645   4.616  12.881  13.182  0.0165  0.0554  0.0002
  737DOPS   D2A 8646   4.606  12.806  13.644 -0.0125 -0.1862 -0.1816
  737DOPS   C3A 8647   4.712  12.937  14.064  0.0719  0.0983  0.0140
  737DOPS   C4A 8648   4.797  13.334  14.266 -0.1732 -0.0983 -0.1261
  737DOPS   C1B 8649   5.150  12.756  12.478  0.0068  0.0257 -0.1975
  737DOPS   D2B 8650   5.287  12.286  12.370 -0.0445  0.1645 -0.0997
  737DOPS   C3B 8651   5.407  11.942  12.662 -0.1300 -0.2755 -0.2272
  737DOPS   C4B 8652   5.673  11.559  12.731  0.0127 -0.1384  0.0855
  738DOPS   CNO 8653   9.217  11.955  11.901  0.0026 -0.4101 -0.0465
  738DOPS   PO4 8654   9.556  12.121  11.838 -0.0536  0.1686 -0.1041
  738DOPS   GL1 8655   9.984  12.040  11.862  0.3385 -0.0772  0.1552
  738DOPS   GL2 8656   9.948  12.105  12.161  0.1208  0.2137  0.3875
  738DOPS   C1A 8657  10.328  11.785  12.036  0.1573  0.0188  0.0472
  738DOPS   D2A 8658  10.582  11.715  12.425  0.1759 -0.3538  0.0011
  738DOPS   C3A 8659  10.611  11.782  12.856  0.1530  0.1579  0.4243
  738DOPS   C4A 8660  10.762  12.001  13.211 -0.0283  0.0240  0.1733
  738DOPS   C1B 8661  10.371  12.173  12.383 -0.0199 -0.0654  0.0060
  738DOPS   D2B 8662  10.414  12.568  12.587 -0.2747  0.1602 -0.0667
  738DOPS   C3B 8663  10.441  12.594  13.042 -0.2027 -0.2731 -0.1131
  738DOPS   C4B 8664  10.747  12.633  13.274 -0.0573  0.1448  0.1101
  739DOPC   NC3 8665   2.942  13.411  12.590 -0.0766 -0.4192 -0.3254
  739DOPC   PO4 8666   3.313  13.307  12.552 -0.1975  0.1892 -0.1071
  739DOPC   GL1 8667   3.355  13.326  12.956  0.1035  0.3470 -0.1008
  739DOPC   GL2 8668   3.327  13.001  13.033 -0.0366  0.3429  0.3336
  739DOPC   C1A 8669   3.578  13.685  13.179  0.0426 -0.4207 -0.1486
  739DOPC   D2A 8670   3.504  13.587  13.648 -0.0950  0.1984 -0.1003
  739DOPC   C3A 8671   3.324  13.182  13.545  0.1926  0.1386 -0.0914
  739DOPC   C4A 8672   3.125  12.785  13.429  0.1483 -0.0099 -0.1722
  739DOPC   C1B 8673   3.722  13.183  13.223 -0.1408 -0.2047  0.0182
  739DOPC   D2B 8674   3.822  13.151  13.711  0.1107 -0.0565 -0.3713
  739DOPC   C3B 8675   3.679  13.391  14.081  0.1909 -0.0304 -0.1661
  739DOPC   C4B 8676   3.414  13.499  14.494  0.2652  0.2460 -0.1233
  740DOPC   NC3 8677   9.333  17.967  11.936 -0.3166  0.0356  0.1414
  740DOPC   PO4 8678   9.639  18.212  11.912 -0.2236 -0.2018 -0.3917
  740DOPC   GL1 8679   9.703  18.015  12.270 -0.0423 -0.0061 -0.1817
  740DOPC   GL2 8680  10.000  18.090  12.327 -0.0182 -0.0329 -0.1356
  740DOPC   C1A 8681   9.828  17.850  12.746  0.0009 -0.0411 -0.0241
  740DOPC   D2A 8682   9.667  17.786  13.197  0.0189 -0.0448 -0.0601
  740DOPC   C3A 8683   9.728  17.948  13.595  0.0880  0.0680 -0.1882
  740DOPC   C4A 8684   9.725  18.372  13.743 -0.0306  0.0696  0.0358
  740DOPC   C1B 8685   9.849  18.364  12.672  0.2517 -0.2498  0.0876
  740DOPC   D2B 8686   9.960  18.601  13.132 -0.2069 -0.0148  0.1121
  740DOPC   C3B 8687   9.901  18.924  13.482 -0.2354  0.1902  0.0836
  740DOPC   C4B 8688   9.633  19.361  13.523  0.0506  0.1755  0.0121
  741DOPE   NH3 8689   6.038  15.298  12.922  0.1140 -0.0231 -0.3041
  741DOPE   PO4 8690   5.902  15.063  13.079  0.1670 -0.0982  0.2150
  741DOPE   GL1 8691   5.869  14.983  13.442  0.1398 -0.0585 -0.0992
  741DOPE   GL2 8692   5.722  15.244  13.504  0.2821  0.1635  0.1742
  741DOPE   C1A 8693   6.247  14.902  13.675 -0.0052  0.1025  0.0761
  741DOPE   D2A 8694   6.532  15.173  13.913  0.1152  0.1147  0.0420
  741DOPE   C3A 8695   6.360  15.486  14.237  0.0744  0.0257 -0.0057
  741DOPE   C4A 8696   6.011  15.381  14.497  0.0479 -0.1334 -0.1700
  741DOPE   C1B 8697   5.473  15.356  13.866  0.0441  0.4464  0.0350
  741DOPE   D2B 8698   5.004  15.265  13.726 -0.3481 -0.3106  0.0119
  741DOPE   C3B 8699   4.965  15.590  14.111 -0.0502 -0.0473  0.2672
  741DOPE   C4B 8700   5.002  15.840  14.529 -0.0500 -0.1087  0.1444
  742DOPC   NC3 8701  10.450  23.346  12.297  0.2642 -0.2568  0.0306
  742DOPC   PO4 8702  10.096  23.385  12.192  0.1215 -0.0398  0.4522
  742DOPC   GL1 8703   9.799  23.349  12.452  0.2743  0.0040  0.0745
  742DOPC   GL2 8704  10.044  23.316  12.648  0.1300  0.0402  0.0692
  742DOPC   C1A 8705   9.538  23.243  12.832  0.0120 -0.0529 -0.4000
  742DOPC   D2A 8706   9.219  23.349  13.135 -0.2785 -0.1284 -0.3303
  742DOPC   C3A 8707   9.300  23.304  13.554  0.1494 -0.3537 -0.1595
  742DOPC   C4A 8708   9.288  23.589  13.944 -0.0226 -0.1731 -0.0406
  742DOPC   C1B 8709   9.899  22.883  12.861 -0.1005 -0.0816  0.1729
  742DOPC   D2B 8710   9.977  22.577  13.139  0.3920  0.2382  0.0224
  742DOPC   C3B 8711   9.788  22.216  12.999  0.2766  0.1226  0.1134
  742DOPC   C4B 8712   9.341  22.051  13.021  0.0905  0.3381 -0.1031
  743POSM   NC3 8713   4.760  14.221  12.527 -0.2034  0.0164 -0.4312
  743POSM   PO4 8714   4.710  14.169  12.916  0.2590  0.0643  0.0931
  743POSM   AM1 8715   4.933  13.991  13.104  0.0826 -0.2680 -0.1052
  743POSM   AM2 8716   5.231  13.880  13.121  0.0742  0.0079  0.0548
  743POSM   T1A 8717   5.021  13.954  13.579  0.1349  0.3716  0.3216
  743POSM   C2A 8718   5.118  14.227  13.955 -0.1911 -0.2468 -0.0038
  743POSM   C3A 8719   4.908  14.416  14.266 -0.1285  0.0099 -0.1863
  743POSM   C1B 8720   5.429  13.760  13.391 -0.1955 -0.1733 -0.2352
  743POSM   D2B 8721   5.473  13.710  13.848  0.1312 -0.1630  0.0006
  743POSM   C3B 8722   5.900  13.672  14.005  0.0027 -0.1255 -0.2287
  743POSM   C4B 8723   6.300  13.677  14.245  0.0277 -0.3640  0.1274
  744DOPC   NC3 8724   2.005  20.195  12.869  0.0805 -0.0088  0.0097
  744DOPC   PO4 8725   2.269  19.994  12.617  0.2568 -0.0208  0.0629
  744DOPC   GL1 8726   2.669  20.065  12.959  0.3895 -0.1301 -0.1034
  744DOPC   GL2 8727   2.525  20.343  13.076 -0.3872 -0.0639 -0.1946
  744DOPC   C1A 8728   2.836  19.996  13.368  0.0904 -0.2567  0.0407
  744DOPC   D2A 8729   3.010  20.143  13.774 -0.0969 -0.2094 -0.1847
  744DOPC   C3A 8730   2.929  19.985  14.205  0.0494 -0.2066 -0.0343
  744DOPC   C4A 8731   3.119  19.944  14.638  0.0006 -0.0805 -0.0249
  744DOPC   C1B 8732   2.636  20.403  13.548  0.0303 -0.0908  0.2065
  744DOPC   D2B 8733   2.683  20.758  13.812  0.0448  0.2376  0.0470
  744DOPC   C3B 8734   2.743  20.466  14.173 -0.1744 -0.0549  0.0441
  744DOPC   C4B 8735   2.708  20.332  14.663 -0.1771 -0.2177  0.1655
  745DOPC   NC3 8736   6.661  20.770  12.994 -0.2103  0.0125  0.3503
  745DOPC   PO4 8737   6.300  20.959  12.994  0.1093  0.1496 -0.4823
  745DOPC   GL1 8738   6.256  20.862  13.357 -0.1785 -0.1693 -0.0712
  745DOPC   GL2 8739   6.076  20.706  13.509  0.1362  0.1773  0.0441
  745DOPC   C1A 8740   6.310  21.035  13.830 -0.3028 -0.1251  0.2692
  745DOPC   D2A 8741   6.578  21.180  14.170  0.0589  0.4401 -0.2039
  745DOPC   C3A 8742   6.731  20.820  14.536  0.0275 -0.1557 -0.0388
  745DOPC   C4A 8743   7.168  20.684  14.586 -0.0649  0.1111  0.0339
  745DOPC   C1B 8744   6.505  20.537  13.630 -0.1579  0.0172  0.1070
  745DOPC   D2B 8745   6.651  20.571  14.068 -0.2560 -0.2760 -0.0334
  745DOPC   C3B 8746   7.070  20.510  14.126 -0.0923 -0.0664  0.1699
  745DOPC   C4B 8747   7.410  20.196  13.988 -0.0298 -0.4056  0.0508
  746DOPE   NH3 8748   3.494  21.470  13.106  0.1588  0.0726  0.0925
  746DOPE   PO4 8749   3.480  21.572  12.788 -0.0418 -0.3525  0.3419
  746DOPE   GL1 8750   3.251  21.896  13.071  0.0312  0.1574 -0.0009
  746DOPE   GL2 8751   3.013  21.681  13.149  0.0807  0.0097  0.2457
  746DOPE   C1A 8752   3.259  21.909  13.537 -0.0525 -0.1073  0.0909
  746DOPE   D2A 8753   3.399  21.858  13.961 -0.3671  0.2656 -0.1479
  746DOPE   C3A 8754   3.213  22.019  14.302 -0.2324 -0.2908 -0.1480
  746DOPE   C4A 8755   2.760  22.230  14.307  0.0603 -0.4029  0.1085
  746DOPE   C1B 8756   2.659  21.638  13.469  0.0665 -0.1487 -0.1914
  746DOPE   D2B 8757   2.390  21.609  13.806  0.0771  0.0634 -0.0639
  746DOPE   C3B 8758   2.254  21.903  14.174 -0.0996  0.1064 -0.3397
  746DOPE   C4B 8759   2.358  22.082  14.580  0.1995 -0.2305 -0.1266
  747DOPE   NH3 8760   1.389  22.268  12.857  0.2061 -0.1007  0.0069
  747DOPE   PO4 8761   1.554  22.011  13.000 -0.3101 -0.2045  0.1895
  747DOPE   GL1 8762   1.761  22.232  13.314  0.2305  0.1688  0.3173
  747DOPE   GL2 8763   1.942  22.385  13.050 -0.0874 -0.0988 -0.0044
  747DOPE   C1A 8764   1.983  22.484  13.641 -0.0232 -0.1176  0.1846
  747DOPE   D2A 8765   2.097  22.893  13.775  0.0834 -0.2263  0.0375
  747DOPE   C3A 8766   2.400  23.003  14.166 -0.1848  0.0030 -0.2222
  747DOPE   C4A 8767   2.644  23.373  14.315 -0.1810 -0.0210  0.0319
  747DOPE   C1B 8768   2.091  22.819  13.187  0.3282 -0.4349  0.1869
  747DOPE   D2B 8769   2.193  23.200  13.387  0.0606  0.3633 -0.0967
  747DOPE   C3B 8770   2.006  23.613  13.678  0.0564  0.1536 -0.1666
  747DOPE   C4B 8771   1.868  23.849  14.052 -0.2707 -0.1019  0.2546
  748DOPC   NC3 8772  33.792  18.911  13.114  0.0670 -0.0526 -0.0792
  748DOPC   PO4 8773  33.697  18.737  12.747 -0.1899  0.1088  0.0423
  748DOPC   GL1 8774  34.212  18.695  12.819  0.0600 -0.2151 -0.2213
  748DOPC   GL2 8775  34.297  18.736  13.119 -0.1707  0.0371 -0.2077
  748DOPC   C1A 8776  34.620  18.589  12.617 -0.3286 -0.1108  0.2614
  748DOPC   D2A 8777  35.023  18.653  12.472 -0.1181 -0.1852  0.0547
  748DOPC   C3A 8778  35.253  18.869  12.864 -0.0395 -0.1036 -0.2380
  748DOPC   C4A 8779  35.232  18.922  13.318 -0.0156  0.1100 -0.1446
  748DOPC   C1B 8780  34.493  18.562  13.501  0.1226 -0.2335  0.2435
  748DOPC   D2B 8781  34.342  18.366  13.915  0.2914  0.0307  0.1025
  748DOPC   C3B 8782  33.936  18.477  13.865 -0.2175 -0.2178  0.2173
  748DOPC   C4B 8783  33.684  18.892  13.829 -0.1109 -0.2414  0.2410
  749DOPE   NH3 8784   8.581  18.134  12.478 -0.1011 -0.4342  0.0408
  749DOPE   PO4 8785   8.864  18.303  12.514 -0.0845 -0.2666  0.0066
  749DOPE   GL1 8786   8.978  18.009  12.726 -0.0394  0.1355  0.0009
  749DOPE   GL2 8787   8.781  17.999  12.955  0.2792 -0.1665  0.0640
  749DOPE   C1A 8788   9.295  17.688  12.838 -0.1880  0.0862 -0.0626
  749DOPE   D2A 8789   9.268  17.437  13.247  0.0500  0.0835 -0.3573
  749DOPE   C3A 8790   9.433  17.213  13.604  0.2528 -0.1112  0.1967
  749DOPE   C4A 8791   9.527  17.060  14.005 -0.1208 -0.2733 -0.1226
  749DOPE   C1B 8792   8.838  17.644  13.279 -0.1354 -0.1369  0.1581
  749DOPE   D2B 8793   9.140  17.700  13.646  0.2334 -0.2436 -0.2278
  749DOPE   C3B 8794   9.046  17.839  14.070  0.1351 -0.2082  0.0999
  749DOPE   C4B 8795   8.986  17.802  14.545  0.1367  0.1567  0.1846
  750DOPS   CNO 8796   6.578  21.846  12.192 -0.1881  0.1029 -0.1638
  750DOPS   PO4 8797   6.756  22.014  12.438 -0.0570 -0.0299  0.1226
  750DOPS   GL1 8798   6.634  22.042  12.839 -0.0006  0.1165 -0.2428
  750DOPS   GL2 8799   6.874  22.098  12.960  0.2915 -0.3686  0.2071
  750DOPS   C1A 8800   6.556  21.881  13.296 -0.0108  0.0235 -0.1600
  750DOPS   D2A 8801   6.492  21.571  13.608  0.0060 -0.0725  0.0648
  750DOPS   C3A 8802   6.218  21.535  13.960 -0.1721  0.1549 -0.1461
  750DOPS   C4A 8803   5.886  21.765  14.083 -0.0912  0.0332 -0.0398
  750DOPS   C1B 8804   6.610  22.410  13.169 -0.1388 -0.0530  0.1851
  750DOPS   D2B 8805   6.410  22.575  13.556 -0.0148  0.1150  0.3053
  750DOPS   C3B 8806   6.658  22.400  13.921 -0.2081 -0.1736 -0.0183
  750DOPS   C4B 8807   6.861  22.659  14.250  0.1118 -0.0378  0.1252
  751DOPC   NC3 8808   3.922  23.533  12.460  0.3692 -0.1696 -0.0916
  751DOPC   PO4 8809   3.615  23.335  12.264 -0.0049 -0.0860  0.4186
  751DOPC   GL1 8810   3.456  23.201  12.513  0.2246  0.1681 -0.2212
  751DOPC   GL2 8811   3.174  23.200  12.596  0.2973 -0.2242  0.0394
  751DOPC   C1A 8812   3.491  22.753  12.535  0.1391  0.0023  0.1806
  751DOPC   D2A 8813   3.487  22.669  12.995  0.2025  0.2114 -0.0893
  751DOPC   C3A 8814   3.194  22.696  13.340 -0.1905  0.2659 -0.2949
  751DOPC   C4A 8815   3.023  22.412  13.725 -0.2113 -0.1027 -0.0342
  751DOPC   C1B 8816   3.300  23.122  12.997 -0.0036 -0.1113 -0.1970
  751DOPC   D2B 8817   2.993  23.231  13.354 -0.0399  0.0533 -0.0355
  751DOPC   C3B 8818   2.933  23.090  13.804 -0.3208 -0.0190  0.1581
  751DOPC   C4B 8819   2.806  22.723  14.147 -0.1967  0.1681  0.1506
  752POSM   NC3 8820   9.132  18.950  12.131 -0.1238 -0.1046  0.1831
  752POSM   PO4 8821   8.955  18.794  12.423  0.2215 -0.0533 -0.2216
  752POSM   AM1 8822   8.902  18.748  12.747 -0.0575  0.0707 -0.0907
  752POSM   AM2 8823   8.921  18.567  12.949 -0.2021 -0.1630  0.0373
  752POSM   T1A 8824   8.674  19.032  13.091  0.3789  0.2315  0.0933
  752POSM   C2A 8825   8.551  19.282  13.429 -0.1484  0.0014 -0.1454
  752POSM   C3A 8826   8.357  19.440  13.808  0.2357  0.0783 -0.0436
  752POSM   C1B 8827   8.964  18.752  13.317  0.1010  0.1669  0.3153
  752POSM   D2B 8828   8.862  19.008  13.714 -0.4081 -0.0074  0.1529
  752POSM   C3B 8829   9.090  19.190  13.979 -0.0212 -0.3158 -0.3030
  752POSM   C4B 8830   9.187  19.556  14.318 -0.1134  0.2921 -0.1553
  753DOPC   NC3 8831   2.299  18.663  12.923 -0.1707 -0.1183  0.0011
  753DOPC   PO4 8832   2.172  18.742  12.564  0.0008 -0.0003  0.0957
  753DOPC   GL1 8833   1.836  18.773  12.838  0.0279 -0.2887 -0.1670
  753DOPC   GL2 8834   1.670  18.588  12.760 -0.2576 -0.1933  0.1388
  753DOPC   C1A 8835   1.629  18.847  13.279  0.2428  0.0759 -0.2225
  753DOPC   D2A 8836   1.293  18.705  13.535  0.2595  0.0973 -0.2774
  753DOPC   C3A 8837   1.002  18.435  13.763  0.0964 -0.0295 -0.0701
  753DOPC   C4A 8838   0.616  18.232  13.934  0.0868 -0.0153 -0.0396
  753DOPC   C1B 8839   1.444  18.441  13.055  0.2556 -0.0029 -0.0509
  753DOPC   D2B 8840   1.286  18.186  13.470 -0.2829  0.4905 -0.0061
  753DOPC   C3B 8841   1.382  17.791  13.593  0.5737  0.1199  0.2108
  753DOPC   C4B 8842   1.537  17.456  13.847  0.0230  0.1989 -0.1038
  754POSM   NC3 8843   5.447  20.479  12.758 -0.0698  0.0316  0.0943
  754POSM   PO4 8844   5.761  20.385  12.585  0.1377  0.0187 -0.1654
  754POSM   AM1 8845   5.671  20.115  12.768  0.2379 -0.3400  0.2429
  754POSM   AM2 8846   5.615  19.983  12.999  0.0924  0.2465  0.0016
  754POSM   T1A 8847   5.137  19.895  12.874  0.0135  0.2711 -0.1794
  754POSM   C2A 8848   4.646  19.884  12.941 -0.0317 -0.0658 -0.0763
  754POSM   C3A 8849   4.214  19.867  12.709  0.1655 -0.1665  0.0894
  754POSM   C1B 8850   5.427  20.029  13.278  0.0131 -0.0006  0.1064
  754POSM   D2B 8851   5.295  19.940  13.718 -0.3074 -0.2172 -0.0174
  754POSM   C3B 8852   5.495  20.112  14.111 -0.0930 -0.0456  0.1179
  754POSM   C4B 8853   5.556  20.427  14.455 -0.2528  0.4412 -0.0151
  755DOPE   NH3 8854   2.416  17.804  13.264 -0.0235  0.1067  0.1213
  755DOPE   PO4 8855   2.720  17.857  13.237 -0.1842 -0.1760 -0.0335
  755DOPE   GL1 8856   2.703  17.901  13.598 -0.1853 -0.1869  0.0207
  755DOPE   GL2 8857   2.777  17.721  13.763 -0.3610 -0.0568 -0.2167
  755DOPE   C1A 8858   2.751  18.289  13.862  0.1837 -0.1808 -0.0118
  755DOPE   D2A 8859   2.504  18.706  13.914 -0.2117 -0.2551 -0.3250
  755DOPE   C3A 8860   2.102  18.783  14.174 -0.0047  0.0744  0.0171
  755DOPE   C4A 8861   2.000  18.918  14.619  0.0820  0.0991  0.0451
  755DOPE   C1B 8862   2.525  17.941  14.121 -0.1251  0.1709 -0.2785
  755DOPE   D2B 8863   2.510  18.320  14.357  0.1678  0.0051 -0.2682
  755DOPE   C3B 8864   2.915  18.574  14.234  0.2888 -0.1690 -0.3758
  755DOPE   C4B 8865   2.996  19.014  14.115 -0.2443 -0.1126 -0.0032
  756DOPE   NH3 8866   8.907  18.349  12.024 -0.0932  0.1076  0.1174
  756DOPE   PO4 8867   9.216  18.438  12.141  0.3209  0.1111 -0.0741
  756DOPE   GL1 8868   9.296  18.433  12.603  0.1686 -0.2587 -0.2130
  756DOPE   GL2 8869   9.421  18.618  12.746  0.3108  0.2356 -0.0637
  756DOPE   C1A 8870   9.381  18.175  12.995  0.1472  0.2967 -0.3886
  756DOPE   D2A 8871   9.141  18.029  13.288  0.4541 -0.2486  0.1373
  756DOPE   C3A 8872   8.888  18.110  13.683 -0.1364 -0.1554 -0.2132
  756DOPE   C4A 8873   8.481  18.074  13.939  0.2273 -0.2763 -0.0728
  756DOPE   C1B 8874   9.482  18.631  13.199 -0.1579 -0.0663  0.1834
  756DOPE   D2B 8875   9.244  18.431  13.559  0.0788 -0.0041  0.0534
  756DOPE   C3B 8876   9.329  18.233  13.966  0.1688  0.2336 -0.2267
  756DOPE   C4B 8877   9.215  18.294  14.450 -0.1338 -0.0676 -0.1000
  757DOPS   CNO 8878   6.721  11.754  12.614 -0.2246 -0.0612  0.7264
  757DOPS   PO4 8879   6.906  11.843  12.931  0.0857 -0.0344  0.3970
  757DOPS   GL1 8880   6.876  11.723  13.257 -0.1741 -0.1612 -0.2225
  757DOPS   GL2 8881   6.740  11.822  13.482 -0.2685 -0.0703 -0.1451
  757DOPS   C1A 8882   6.893  11.295  13.469 -0.2089 -0.0525  0.1611
  757DOPS   D2A 8883   7.143  10.906  13.351  0.4820  0.0814  0.1484
  757DOPS   C3A 8884   7.502  10.839  13.679  0.5007  0.1555 -0.1756
  757DOPS   C4A 8885   7.775  10.506  13.849  0.2223  0.2668 -0.0289
  757DOPS   C1B 8886   7.073  12.081  13.629  0.1092  0.0948 -0.0199
  757DOPS   D2B 8887   7.229  12.504  13.795 -0.3800  0.1433 -0.2085
  757DOPS   C3B 8888   6.941  12.795  14.001 -0.0925 -0.1168 -0.3001
  757DOPS   C4B 8889   6.654  13.165  14.005 -0.1885 -0.3308 -0.0904
  758DOPE   NH3 8890   1.099  11.564  12.165 -0.0409 -0.0673 -0.1299
  758DOPE   PO4 8891   1.074  11.709  12.426 -0.0979 -0.2772  0.3127
  758DOPE   GL1 8892   1.118  11.961  12.743 -0.2085  0.0303  0.0350
  758DOPE   GL2 8893   1.290  12.188  12.631 -0.3178  0.1384  0.2939
  758DOPE   C1A 8894   1.329  11.984  13.177 -0.2089 -0.2658 -0.0664
  758DOPE   D2A 8895   1.328  12.050  13.625  0.3773 -0.0462  0.0860
  758DOPE   C3A 8896   1.359  12.531  13.726  0.0653 -0.3622 -0.1148
  758DOPE   C4A 8897   1.477  12.937  13.575 -0.0115  0.1412  0.1686
  758DOPE   C1B 8898   1.297  12.671  12.571 -0.2316  0.2971  0.1192
  758DOPE   D2B 8899   1.101  13.056  12.685 -0.0139  0.0372 -0.1331
  758DOPE   C3B 8900   1.387  13.446  12.645 -0.1092  0.1860 -0.0950
  758DOPE   C4B 8901   1.735  13.822  12.837  0.0431 -0.1841  0.1130
  759DOPE   NH3 8902   9.244  12.401  12.252  0.0487 -0.1255  0.1325
  759DOPE   PO4 8903   9.249  12.714  12.372 -0.0171  0.2069  0.2294
  759DOPE   GL1 8904   9.159  12.561  12.686 -0.0813  0.2042 -0.0220
  759DOPE   GL2 8905   8.892  12.568  12.837 -0.2425  0.5655  0.0183
  759DOPE   C1A 8906   9.382  12.575  13.112  0.2255  0.2555  0.1922
  759DOPE   D2A 8907   9.528  12.563  13.511  0.2185 -0.1065  0.0534
  759DOPE   C3A 8908   9.778  12.817  13.814 -0.1523 -0.1299  0.2330
  759DOPE   C4A 8909  10.182  13.017  13.876 -0.0704  0.0613  0.1201
  759DOPE   C1B 8910   8.928  12.514  13.285 -0.0216  0.0731  0.3660
  759DOPE   D2B 8911   9.026  12.637  13.727  0.2426 -0.3021 -0.1451
  759DOPE   C3B 8912   8.734  12.922  13.915  0.1026  0.0349  0.1834
  759DOPE   C4B 8913   8.514  13.252  14.139  0.3024 -0.0269 -0.2513
  760POSM   NC3 8914  10.142  20.899  11.749 -0.0809  0.2892  0.3530
  760POSM   PO4 8915  10.369  20.883  12.014 -0.1472 -0.1886  0.1640
  760POSM   AM1 8916  10.307  20.993  12.361  0.1371 -0.1317 -0.1585
  760POSM   AM2 8917  10.181  21.211  12.542 -0.1070  0.1631 -0.0913
  760POSM   T1A 8918  10.172  20.856  12.821 -0.1395  0.1572  0.1568
  760POSM   C2A 8919   9.752  20.825  12.992  0.0951  0.0211  0.2435
  760POSM   C3A 8920   9.455  20.867  13.442  0.1656 -0.0826  0.2061
  760POSM   C1B 8921   9.914  21.265  12.709  0.1089  0.0281  0.0509
  760POSM   D2B 8922   9.630  21.314  13.014  0.2281  0.1817  0.0448
  760POSM   C3B 8923   9.701  21.321  13.464  0.0815  0.0192  0.2667
  760POSM   C4B 8924   9.953  21.520  13.788 -0.2106  0.2679 -0.1588
  761DOPC   NC3 8925   9.806  20.236  12.068 -0.1957  0.1897  0.2705
  761DOPC   PO4 8926  10.066  19.927  12.052 -0.0496  0.2781 -0.0847
  761DOPC   GL1 8927  10.211  20.388  12.063  0.0602 -0.2178 -0.0012
  761DOPC   GL2 8928  10.425  20.328  12.220 -0.0645  0.3226 -0.0454
  761DOPC   C1A 8929  10.067  20.540  12.505  0.5043 -0.0482 -0.0203
  761DOPC   D2A 8930   9.936  20.405  12.840  0.3145  0.0193  0.1576
  761DOPC   C3A 8931   9.641  20.069  12.960 -0.0386  0.2397  0.1347
  761DOPC   C4A 8932   9.577  19.906  13.399 -0.0656 -0.0982 -0.3269
  761DOPC   C1B 8933  10.527  20.568  12.647 -0.0910  0.1195  0.0216
  761DOPC   D2B 8934  10.691  20.951  12.811 -0.3109  0.3298 -0.2933
  761DOPC   C3B 8935  11.059  20.866  13.085 -0.0725  0.0716  0.0794
  761DOPC   C4B 8936  11.494  20.633  13.129 -0.0327  0.0446  0.2023
  762DOPC   NC3 8937   3.964  12.682  12.318  0.1412 -0.3164  0.2955
  762DOPC   PO4 8938   3.608  12.536  12.250  0.0476 -0.1610  0.0963
  762DOPC   GL1 8939   3.993  12.270  12.208 -0.4211 -0.0072 -0.1183
  762DOPC   GL2 8940   3.921  12.220  12.528 -0.0576 -0.2387  0.0979
  762DOPC   C1A 8941   4.436  12.183  12.404  0.0900 -0.0229 -0.1522
  762DOPC   D2A 8942   4.790  12.233  12.656 -0.2161 -0.0427  0.1046
  762DOPC   C3A 8943   5.088  12.133  13.020  0.0103 -0.0411  0.1768
  762DOPC   C4A 8944   5.479  12.192  13.265 -0.1219 -0.1998 -0.1347
  762DOPC   C1B 8945   4.206  12.042  12.886 -0.1733 -0.0115  0.0257
  762DOPC   D2B 8946   4.132  11.909  13.325 -0.0437 -0.3524  0.0144
  762DOPC   C3B 8947   4.409  11.773  13.647  0.0726 -0.0162 -0.1464
  762DOPC   C4B 8948   4.732  11.615  13.982  0.1769 -0.2919  0.0283
  763DOPE   NH3 8949   3.407  12.522  12.947  0.1296 -0.1253  0.0499
  763DOPE   PO4 8950   3.475  12.327  12.738  0.2589 -0.1548 -0.0980
  763DOPE   GL1 8951   3.762  12.185  12.965 -0.2027 -0.0459  0.3115
  763DOPE   GL2 8952   3.616  12.145  13.224  0.3290  0.1051  0.0982
  763DOPE   C1A 8953   4.058  12.411  13.289  0.2692  0.3696  0.0968
  763DOPE   D2A 8954   4.147  12.825  13.446  0.0847  0.0820 -0.2637
  763DOPE   C3A 8955   4.162  12.748  13.905 -0.2651 -0.0752 -0.0186
  763DOPE   C4A 8956   3.861  12.866  14.288  0.0699  0.0509 -0.1104
  763DOPE   C1B 8957   3.394  12.341  13.568 -0.3299 -0.1279 -0.1319
  763DOPE   D2B 8958   3.118  12.390  13.865 -0.0779  0.3832 -0.1098
  763DOPE   C3B 8959   2.849  12.015  13.803 -0.0853 -0.2594  0.5790
  763DOPE   C4B 8960   2.677  11.719  14.104  0.3054  0.1333 -0.1720
  764DOPE   NH3 8961   6.714  15.290  12.469 -0.1079  0.1033 -0.3315
  764DOPE   PO4 8962   6.668  15.282  12.811  0.0576  0.0943  0.1757
  764DOPE   GL1 8963   6.897  15.034  12.833 -0.1170  0.1391  0.3841
  764DOPE   GL2 8964   6.878  14.695  12.980 -0.0887 -0.4216  0.1751
  764DOPE   C1A 8965   7.103  15.016  13.267 -0.3667 -0.4394  0.2619
  764DOPE   D2A 8966   7.390  15.288  13.468 -0.0907 -0.0491  0.0091
  764DOPE   C3A 8967   7.322  15.376  13.883  0.2368 -0.1675 -0.3935
  764DOPE   C4A 8968   7.256  15.537  14.319  0.0832  0.0803 -0.2391
  764DOPE   C1B 8969   7.112  14.376  12.722  0.0450 -0.1136 -0.0167
  764DOPE   D2B 8970   7.453  14.465  12.413 -0.3283  0.0860 -0.3358
  764DOPE   C3B 8971   7.547  14.903  12.577 -0.2313 -0.2862  0.3265
  764DOPE   C4B 8972   7.592  15.275  12.835 -0.2004 -0.0015  0.0703
  765POSM   NC3 8973   6.287  12.156  12.366 -0.4122 -0.2522 -0.0585
  765POSM   PO4 8974   6.188  12.495  12.463  0.2923  0.1927  0.0946
  765POSM   AM1 8975   6.041  12.505  12.756  0.1298 -0.0222  0.1311
  765POSM   AM2 8976   5.807  12.362  12.843 -0.1286 -0.1336 -0.0359
  765POSM   T1A 8977   5.892  12.745  13.166 -0.0868 -0.1899  0.1316
  765POSM   C2A 8978   5.914  13.116  13.367  0.0309  0.1563  0.2090
  765POSM   C3A 8979   5.851  13.551  13.479  0.2922 -0.3669 -0.0467
  765POSM   C1B 8980   5.456  12.405  12.819  0.2292 -0.1055  0.0933
  765POSM   D2B 8981   5.032  12.596  12.953  0.1544  0.0380 -0.1843
  765POSM   C3B 8982   5.032  12.486  13.428  0.0244 -0.1189 -0.0562
  765POSM   C4B 8983   5.384  12.329  13.736  0.0424  0.0885 -0.0119
  766POSM   NC3 8984   7.287  16.929  13.133  0.1270  0.0130  0.1798
  766POSM   PO4 8985   7.240  16.632  12.857  0.2565 -0.1772  0.1723
  766POSM   AM1 8986   7.384  16.408  13.066 -0.1342  0.3022  0.3548
  766POSM   AM2 8987   7.277  16.300  13.291  0.1256 -0.1890 -0.0151
  766POSM   T1A 8988   7.745  16.290  13.448 -0.2347 -0.1367  0.3044
  766POSM   C2A 8989   8.100  16.088  13.553  0.0778  0.0231  0.2184
  766POSM   C3A 8990   8.529  15.865  13.616 -0.4495 -0.0791  0.4725
  766POSM   C1B 8991   7.004  16.443  13.504 -0.2629 -0.0399  0.1615
  766POSM   D2B 8992   6.778  16.655  13.832  0.1110 -0.0013  0.1266
  766POSM   C3B 8993   6.910  16.482  14.260 -0.1831 -0.0570 -0.1689
  766POSM   C4B 8994   6.985  16.346  14.730 -0.0521 -0.2974  0.1233
  767POSM   NC3 8995   1.663  20.757  12.803 -0.1134  0.0060  0.0470
  767POSM   PO4 8996   1.621  21.149  12.716 -0.2103 -0.1072  0.0384
  767POSM   AM1 8997   1.526  21.274  13.012  0.2605  0.1224 -0.1366
  767POSM   AM2 8998   1.258  21.245  13.117  0.1251  0.1927  0.0941
  767POSM   T1A 8999   1.601  21.521  13.463 -0.0798 -0.1917 -0.3468
  767POSM   C2A 9000   1.905  21.849  13.603 -0.2983 -0.1571 -0.2955
  767POSM   C3A 9001   2.270  21.991  13.348  0.0493  0.1424 -0.1397
  767POSM   C1B 9002   1.189  21.014  13.409  0.2592  0.0473  0.2026
  767POSM   D2B 9003   1.357  20.584  13.544 -0.0358  0.0412  0.1836
  767POSM   C3B 9004   1.130  20.231  13.742 -0.0650 -0.0141  0.2244
  767POSM   C4B 9005   1.144  19.859  14.081  0.0050 -0.0690  0.1240
  768POSM   NC3 9006   9.748  15.624  11.631 -0.0673  0.1813 -0.1051
  768POSM   PO4 9007   9.994  15.320  11.543  0.0149  0.0721 -0.1946
  768POSM   AM1 9008   9.848  15.233  11.833  0.2814  0.0031 -0.1053
  768POSM   AM2 9009   9.681  15.338  12.065 -0.5508 -0.1989 -0.3403
  768POSM   T1A 9010   9.675  14.833  12.145  0.0945  0.0725 -0.1781
  768POSM   C2A 9011   9.354  14.802  12.457 -0.0395 -0.2027  0.1045
  768POSM   C3A 9012   8.895  14.651  12.395  0.1746 -0.0959  0.0019
  768POSM   C1B 9013   9.458  15.299  12.365 -0.2018  0.0169  0.0543
  768POSM   D2B 9014   9.309  15.267  12.785 -0.1201 -0.1386  0.0445
  768POSM   C3B 9015   9.025  14.982  12.976  0.0317 -0.1124  0.0537
  768POSM   C4B 9016   8.683  14.732  13.213 -0.1260 -0.1441  0.1309
  769DOPC   NC3 9017   2.947  18.324  13.348 -0.0899  0.1016  0.0866
  769DOPC   PO4 9018   3.185  18.045  13.409 -0.1498 -0.3275 -0.1913
  769DOPC   GL1 9019   3.202  17.897  13.778  0.0168  0.0522 -0.3020
  769DOPC   GL2 9020   3.489  17.850  13.783  0.0417 -0.1885 -0.0876
  769DOPC   C1A 9021   3.027  17.950  14.210 -0.0706  0.0975 -0.1335
  769DOPC   D2A 9022   3.129  17.891  14.624 -0.1678 -0.1227  0.1727
  769DOPC   C3A 9023   3.042  17.558  14.893  0.2477  0.0227  0.2008
  769DOPC   C4A 9024   3.167  17.310  15.276  0.2395 -0.1393  0.0554
  769DOPC   C1B 9025   3.353  17.399  13.933  0.2389  0.1681  0.4446
  769DOPC   D2B 9026   3.426  17.083  14.301  0.1581  0.1625  0.0058
  769DOPC   C3B 9027   3.665  16.746  14.097 -0.0520  0.1322 -0.1123
  769DOPC   C4B 9028   3.905  16.884  13.734  0.1305  0.2280  0.2226
  770DOPC   NC3 9029   8.389  12.689  12.308  0.1423  0.2297  0.4008
  770DOPC   PO4 9030   8.761  12.540  12.340 -0.0211  0.0449  0.2251
  770DOPC   GL1 9031   8.787  12.862  12.525  0.1313  0.0195  0.4387
  770DOPC   GL2 9032   8.997  13.002  12.674  0.2623  0.3699  0.2332
  770DOPC   C1A 9033   8.537  12.946  12.911  0.1557 -0.0695  0.1857
  770DOPC   D2A 9034   8.378  13.178  13.240  0.2537 -0.0578  0.0019
  770DOPC   C3A 9035   8.300  12.962  13.646 -0.0383  0.1256 -0.2902
  770DOPC   C4A 9036   8.221  12.765  14.057 -0.0228 -0.1777  0.0065
  770DOPC   C1B 9037   9.030  13.060  13.115  0.0839 -0.2260 -0.3085
  770DOPC   D2B 9038   9.058  13.103  13.571 -0.2925  0.0438  0.0718
  770DOPC   C3B 9039   9.288  12.976  13.923  0.0856  0.0384 -0.1243
  770DOPC   C4B 9040   9.562  12.787  14.334 -0.1855  0.0104 -0.1545
  771DOPE   NH3 9041   8.489  18.703  12.532 -0.1462 -0.1017 -0.1456
  771DOPE   PO4 9042   8.479  18.539  12.234 -0.2213  0.2264  0.0788
  771DOPE   GL1 9043   8.165  18.716  12.105 -0.0712  0.0958 -0.0679
  771DOPE   GL2 9044   8.242  19.050  12.184  0.1680  0.1809  0.0741
  771DOPE   C1A 9045   7.779  18.965  12.258 -0.2129 -0.2067 -0.0528
  771DOPE   D2A 9046   7.416  18.945  12.540 -0.0257  0.1725 -0.1738
  771DOPE   C3A 9047   7.773  18.862  12.838 -0.0407 -0.0912 -0.2222
  771DOPE   C4A 9048   8.211  18.857  12.902  0.2503 -0.1125 -0.0667
  771DOPE   C1B 9049   8.056  19.290  12.485  0.1374 -0.0849 -0.0630
  771DOPE   D2B 9050   7.787  19.331  12.824  0.1070 -0.0215  0.1246
  771DOPE   C3B 9051   7.918  19.134  13.233 -0.0365  0.0002 -0.1306
  771DOPE   C4B 9052   7.708  19.172  13.682 -0.1463 -0.2864  0.0565
  772DOPC   NC3 9053   6.522  17.257  12.409 -0.3891  0.3094 -0.3493
  772DOPC   PO4 9054   6.802  17.444  12.590 -0.4149 -0.2485  0.1046
  772DOPC   GL1 9055   6.660  17.718  12.871 -0.0051  0.1181 -0.1248
  772DOPC   GL2 9056   6.593  17.910  12.639  0.0287 -0.0083 -0.1081
  772DOPC   C1A 9057   6.846  18.034  13.165  0.0281 -0.1562 -0.2625
  772DOPC   D2A 9058   7.036  17.910  13.554 -0.0261 -0.2732 -0.0832
  772DOPC   C3A 9059   7.232  18.209  13.819  0.1243 -0.3770 -0.0486
  772DOPC   C4A 9060   7.573  18.301  14.102 -0.0565 -0.1443  0.1517
  772DOPC   C1B 9061   6.627  18.341  12.771 -0.0564  0.0535  0.0824
  772DOPC   D2B 9062   6.638  18.480  13.199  0.3355  0.0820 -0.0146
  772DOPC   C3B 9063   6.731  18.878  13.341 -0.0536 -0.0492 -0.0358
  772DOPC   C4B 9064   6.612  19.260  13.597 -0.2789 -0.1534  0.0713
  773DOPC   NC3 9065   9.496  19.682  12.028  0.1748  0.0213 -0.2675
  773DOPC   PO4 9066   9.337  19.474  12.296  0.1426 -0.1746  0.0048
  773DOPC   GL1 9067   9.470  19.634  12.588  0.4134  0.0471  0.0139
  773DOPC   GL2 9068   9.728  19.806  12.514 -0.0368 -0.3800  0.1240
  773DOPC   C1A 9069   9.140  19.866  12.773 -0.0822 -0.0334  0.2413
  773DOPC   D2A 9070   9.117  20.100  13.167  0.2574 -0.4325 -0.1443
  773DOPC   C3A 9071   8.801  20.230  13.507 -0.0836 -0.0286  0.0062
  773DOPC   C4A 9072   8.507  20.501  13.833  0.3684 -0.0229  0.2240
  773DOPC   C1B 9073   9.450  20.230  12.511  0.1015 -0.1656 -0.0312
  773DOPC   D2B 9074   9.037  20.222  12.425 -0.0091 -0.0720 -0.1920
  773DOPC   C3B 9075   8.723  20.387  12.179 -0.2523  0.1900 -0.2152
  773DOPC   C4B 9076   8.284  20.301  12.144 -0.2062  0.2150 -0.0802
  774DOPS   CNO 9077   7.952  22.604  11.807 -0.0964  0.1493  0.0563
  774DOPS   PO4 9078   7.944  22.646  12.172 -0.1404 -0.2952  0.0603
  774DOPS   GL1 9079   8.059  22.707  12.528 -0.1493  0.1314 -0.1085
  774DOPS   GL2 9080   8.089  22.403  12.593  0.5271  0.0258 -0.0816
  774DOPS   C1A 9081   8.133  23.115  12.769  0.1888 -0.0244 -0.2084
  774DOPS   D2A 9082   8.109  23.535  12.668 -0.1710  0.3212 -0.2067
  774DOPS   C3A 9083   7.917  23.837  12.936 -0.0525  0.2067  0.0683
  774DOPS   C4A 9084   8.014  24.260  12.873  0.2885  0.1884 -0.4206
  774DOPS   C1B 9085   8.265  22.615  12.925 -0.0189 -0.1096 -0.0385
  774DOPS   D2B 9086   8.366  22.816  13.353  0.2320  0.0626  0.0571
  774DOPS   C3B 9087   8.259  22.596  13.734 -0.0714  0.0422  0.2437
  774DOPS   C4B 9088   7.926  22.743  13.902  0.1595 -0.1991  0.0799
  775POSM   NC3 9089  10.744  16.335  11.838  0.0206 -0.2184 -0.1430
  775POSM   PO4 9090  10.545  16.696  11.887 -0.3267  0.2289 -0.2537
  775POSM   AM1 9091  10.362  16.866  12.030 -0.1086  0.3421 -0.1069
  775POSM   AM2 9092  10.253  16.737  12.302 -0.2712 -0.2825  0.1031
  775POSM   T1A 9093   9.917  17.169  12.081 -0.0031 -0.1261  0.0335
  775POSM   C2A 9094   9.455  17.227  11.958 -0.1684 -0.1790  0.0246
  775POSM   C3A 9095   9.143  17.001  12.074  0.3751  0.2481 -0.2204
  775POSM   C1B 9096   9.953  16.612  12.322  0.0867 -0.0010 -0.1366
  775POSM   D2B 9097   9.507  16.610  12.355  0.2381 -0.2625  0.0748
  775POSM   C3B 9098   9.180  16.461  12.572  0.2367  0.3783 -0.0344
  775POSM   C4B 9099   9.051  16.535  13.026  0.1028  0.1508  0.1001
  776DOPS   CNO 9100   6.128  20.787  12.462  0.2362  0.0500 -0.2500
  776DOPS   PO4 9101   6.499  20.709  12.472 -0.2439 -0.2849  0.1242
  776DOPS   GL1 9102   6.818  20.750  12.583 -0.0486 -0.0441  0.2391
  776DOPS   GL2 9103   6.926  21.008  12.492 -0.1804 -0.1917  0.3984
  776DOPS   C1A 9104   7.174  20.669  12.822  0.0337  0.1932  0.1535
  776DOPS   D2A 9105   7.617  20.530  12.653  0.2530  0.2173  0.1491
  776DOPS   C3A 9106   7.969  20.279  12.755 -0.1059  0.0964  0.0381
  776DOPS   C4A 9107   8.227  19.882  12.838 -0.1037  0.2713  0.2107
  776DOPS   C1B 9108   7.255  21.149  12.745  0.0389  0.0159 -0.0988
  776DOPS   D2B 9109   7.651  20.921  12.952 -0.1071 -0.2064 -0.2562
  776DOPS   C3B 9110   7.679  20.503  13.122 -0.0842 -0.1279  0.1010
  776DOPS   C4B 9111   7.490  20.245  13.424  0.2141 -0.1112  0.0650
  777POSM   NC3 9112   1.751  17.294  12.712  0.0068 -0.1659  0.1151
  777POSM   PO4 9113   2.114  17.328  12.785 -0.2817 -0.1065 -0.4606
  777POSM   AM1 9114   2.089  17.349  13.091 -0.1708  0.1690  0.3769
  777POSM   AM2 9115   2.184  17.260  13.350 -0.0176  0.1019 -0.1491
  777POSM   T1A 9116   1.865  17.615  13.439  0.2060 -0.0065  0.3823
  777POSM   C2A 9117   1.946  17.787  13.829  0.0094  0.0811 -0.3380
  777POSM   C3A 9118   2.078  17.757  14.257 -0.0048 -0.1114 -0.1189
  777POSM   C1B 9119   2.196  17.368  13.676 -0.1171  0.0122 -0.1732
  777POSM   D2B 9120   2.405  17.436  14.067 -0.0665 -0.0424  0.0498
  777POSM   C3B 9121   2.298  17.308  14.496  0.1325 -0.1264  0.1212
  777POSM   C4B 9122   2.520  17.413  14.918 -0.0404 -0.4226 -0.0542
  778DOPC   NC3 9123   2.755  20.771  13.137 -0.0919  0.1093  0.0677
  778DOPC   PO4 9124   2.729  20.749  12.771  0.0358  0.0386 -0.1275
  778DOPC   GL1 9125   3.131  20.685  12.878  0.4787  0.0023  0.1462
  778DOPC   GL2 9126   3.044  20.396  12.953  0.1358 -0.3987  0.1671
  778DOPC   C1A 9127   3.503  20.687  13.159 -0.1204  0.1682 -0.0082
  778DOPC   D2A 9128   3.930  20.736  12.984  0.1419 -0.1842  0.0710
  778DOPC   C3A 9129   4.238  20.773  13.224 -0.2805  0.0526 -0.0831
  778DOPC   C4A 9130   4.534  20.927  13.534 -0.0823  0.0216 -0.0801
  778DOPC   C1B 9131   3.117  20.514  13.419  0.1289  0.0964 -0.2481
  778DOPC   D2B 9132   3.130  20.599  13.915 -0.3124 -0.2906 -0.1026
  778DOPC   C3B 9133   3.055  21.045  14.040 -0.2432  0.0088  0.2142
  778DOPC   C4B 9134   2.877  21.172  14.511 -0.1687 -0.2346  0.3484
  779DOPC   NC3 9135   7.264  17.048  12.586 -0.2154  0.0958 -0.1171
  779DOPC   PO4 9136   7.458  16.795  12.385  0.3255  0.0697  0.3120
  779DOPC   GL1 9137   7.657  16.895  12.800 -0.1033  0.0282 -0.1654
  779DOPC   GL2 9138   7.730  16.638  12.805  0.1690  0.1198 -0.0404
  779DOPC   C1A 9139   7.849  16.783  13.265 -0.1926  0.1528 -0.1032
  779DOPC   D2A 9140   8.151  16.625  13.624 -0.0867  0.1339 -0.0678
  779DOPC   C3A 9141   8.434  16.871  13.868  0.1131 -0.2434 -0.0710
  779DOPC   C4A 9142   8.697  16.771  14.231  0.4484 -0.0788 -0.1534
  779DOPC   C1B 9143   7.871  16.259  12.975  0.0514 -0.0291 -0.2468
  779DOPC   D2B 9144   8.256  15.967  13.070 -0.0666 -0.0571  0.7399
  779DOPC   C3B 9145   8.336  15.530  12.854  0.2838  0.0061 -0.0218
  779DOPC   C4B 9146   8.085  15.212  12.585 -0.0198  0.3873  0.1026
  780DOPC   NC3 9147   1.806  12.041  12.478  0.2626 -0.1001 -0.2800
  780DOPC   PO4 9148   1.485  11.942  12.214  0.4446 -0.0371 -0.1707
  780DOPC   GL1 9149   1.497  11.620  12.531 -0.0233 -0.3014  0.0639
  780DOPC   GL2 9150   1.569  11.449  12.295 -0.2001  0.3703  0.0346
  780DOPC   C1A 9151   1.656  11.812  12.925  0.0799  0.3683  0.2214
  780DOPC   D2A 9152   1.753  11.877  13.375 -0.2218  0.2028  0.1390
  780DOPC   C3A 9153   1.659  11.644  13.713  0.0547 -0.3517  0.0564
  780DOPC   C4A 9154   1.949  11.642  14.053  0.2281  0.1571  0.3258
  780DOPC   C1B 9155   1.997  11.552  12.521  0.0946 -0.0036 -0.0760
  780DOPC   D2B 9156   2.151  11.822  12.861 -0.4153  0.1128  0.1376
  780DOPC   C3B 9157   2.081  12.150  13.175  0.1586 -0.2394  0.0064
  780DOPC   C4B 9158   2.268  12.495  13.452 -0.0931 -0.1332  0.0792
  781POSM   NC3 9159   7.632  22.333  12.038  0.1312  0.0549  0.1485
  781POSM   PO4 9160   7.926  22.128  12.184 -0.1128  0.0874  0.1524
  781POSM   AM1 9161   8.114  22.006  12.413  0.1111  0.2026 -0.1223
  781POSM   AM2 9162   8.152  21.760  12.550 -0.2519  0.2933  0.0595
  781POSM   T1A 9163   8.420  22.080  12.835  0.0279  0.0500  0.3719
  781POSM   C2A 9164   8.500  22.190  13.298 -0.0897  0.2823 -0.0516
  781POSM   C3A 9165   8.638  22.245  13.734 -0.0697  0.2361 -0.1261
  781POSM   C1B 9166   8.161  21.544  12.825  0.1931  0.1350 -0.1269
  781POSM   D2B 9167   8.171  21.205  13.162  0.0393 -0.1972  0.0508
  781POSM   C3B 9168   8.056  21.199  13.618 -0.2876  0.0710  0.0841
  781POSM   C4B 9169   7.633  21.262  13.855 -0.0433 -0.0378 -0.0670
  782POSM   NC3 9170   1.804  14.867  12.248 -0.1675  0.0254 -0.0298
  782POSM   PO4 9171   1.859  14.989  12.622  0.0178  0.0460  0.3505
  782POSM   AM1 9172   2.154  14.994  12.769 -0.0975 -0.0674  0.1436
  782POSM   AM2 9173   2.336  15.129  12.951 -0.1708 -0.1112 -0.1487
  782POSM   T1A 9174   2.460  14.634  12.810  0.0864  0.1238 -0.0723
  782POSM   C2A 9175   2.872  14.496  12.687 -0.3186 -0.1670 -0.0491
  782POSM   C3A 9176   3.124  14.067  12.645  0.0312  0.0898 -0.2331
  782POSM   C1B 9177   2.576  15.218  13.149 -0.5013 -0.1483  0.0269
  782POSM   D2B 9178   2.992  15.246  13.402 -0.0848  0.2473  0.0992
  782POSM   C3B 9179   3.254  14.877  13.539  0.3425  0.1547  0.0351
  782POSM   C4B 9180   3.101  14.447  13.712  0.2432 -0.3575 -0.0339
  783DOPE   NH3 9181   5.514  15.224  12.679  0.2594  0.1624 -0.2590
  783DOPE   PO4 9182   5.469  15.361  12.958  0.0698  0.1341  0.0690
  783DOPE   GL1 9183   5.455  15.607  13.244  0.3488  0.0107 -0.1613
  783DOPE   GL2 9184   5.221  15.626  13.462  0.1411 -0.2515  0.0606
  783DOPE   C1A 9185   5.574  15.897  13.631  0.1439  0.0121  0.0884
  783DOPE   D2A 9186   5.459  16.119  14.023 -0.0877  0.0334  0.1775
  783DOPE   C3A 9187   5.229  16.498  13.992 -0.2535  0.1556 -0.0794
  783DOPE   C4A 9188   4.969  16.881  14.156 -0.2834  0.2360 -0.0060
  783DOPE   C1B 9189   5.067  15.897  13.814  0.1277 -0.2959  0.1733
  783DOPE   D2B 9190   4.907  16.135  14.154 -0.2363  0.2698  0.1869
  783DOPE   C3B 9191   4.940  16.464  14.471  0.1531  0.1157 -0.2491
  783DOPE   C4B 9192   4.906  16.890  14.626  0.1847 -0.1125 -0.1422
  784DOPS   CNO 9193  10.290  15.802  11.431 -0.0049 -0.1012  0.1928
  784DOPS   PO4 9194  10.566  15.801  11.660  0.2287 -0.0345 -0.1486
  784DOPS   GL1 9195  10.816  15.759  12.033  0.2473 -0.1832 -0.0827
  784DOPS   GL2 9196  10.677  15.604  12.246  0.3670 -0.2616 -0.0857
  784DOPS   C1A 9197  10.836  16.092  12.339 -0.1987  0.2995 -0.0655
  784DOPS   D2A 9198  10.962  16.542  12.437 -0.0665 -0.4043 -0.0616
  784DOPS   C3A 9199  10.679  16.685  12.746  0.4086  0.1590 -0.1966
  784DOPS   C4A 9200  10.275  16.917  12.846  0.0756 -0.1473  0.2436
  784DOPS   C1B 9201  10.354  15.558  12.601  0.0136  0.4784 -0.1884
  784DOPS   D2B 9202  10.381  15.677  13.043 -0.4007  0.0138 -0.0718
  784DOPS   C3B 9203  10.002  15.660  13.304  0.2998 -0.3179  0.0234
  784DOPS   C4B 9204   9.695  15.438  13.537  0.0336  0.1162  0.0826
  785DOPE   NH3 9205  11.350  22.895  12.518  0.0968 -0.0221  0.1358
  785DOPE   PO4 9206  11.201  23.036  12.761  0.0727  0.3581 -0.1959
  785DOPE   GL1 9207  11.153  22.749  12.993  0.2073 -0.1209 -0.0033
  785DOPE   GL2 9208  10.863  22.702  12.858 -0.0051 -0.2328  0.1531
  785DOPE   C1A 9209  11.484  22.528  13.215  0.0503  0.0305  0.2754
  785DOPE   D2A 9210  11.746  22.419  13.549 -0.0303  0.1708  0.0415
  785DOPE   C3A 9211  12.059  22.365  13.875  0.3534 -0.2061  0.1907
  785DOPE   C4A 9212  12.470  22.438  13.990  0.1627  0.0251  0.1901
  785DOPE   C1B 9213  10.975  22.354  13.157  0.0000  0.3201  0.2336
  785DOPE   D2B 9214  11.028  22.265  13.584  0.0606 -0.0900 -0.0029
  785DOPE   C3B 9215  11.119  22.617  13.906  0.0754  0.0636  0.2173
  785DOPE   C4B 9216  11.160  22.824  14.299 -0.3772 -0.1252  0.0777
  786DOPC   NC3 9217   1.440  16.646  12.677  0.0713  0.1125 -0.0946
  786DOPC   PO4 9218   1.520  16.826  12.353  0.1350 -0.1798 -0.0092
  786DOPC   GL1 9219   1.272  17.050  12.517 -0.2292 -0.0568 -0.0347
  786DOPC   GL2 9220   1.023  16.879  12.597  0.0688  0.4531  0.1145
  786DOPC   C1A 9221   1.233  17.544  12.545  0.0180  0.2032 -0.0895
  786DOPC   D2A 9222   1.289  17.951  12.747  0.0204  0.4510  0.1653
  786DOPC   C3A 9223   1.015  17.991  13.112  0.0918 -0.0862  0.1880
  786DOPC   C4A 9224   0.827  18.451  13.276  0.0582  0.0103  0.2017
  786DOPC   C1B 9225   0.772  17.231  12.618 -0.1176 -0.1433  0.0146
  786DOPC   D2B 9226   0.322  17.338  12.664 -0.2735 -0.0549  0.1477
  786DOPC   C3B 9227   0.089  17.438  13.091  0.0985  0.1714  0.2286
  786DOPC   C4B 9228   0.107  17.481  13.552  0.0538 -0.1946  0.0383
  787DOPC   NC3 9229   4.737  14.693  12.737  0.0508  0.2474  0.2767
  787DOPC   PO4 9230   4.487  14.792  12.418 -0.3489 -0.4061  0.2906
  787DOPC   GL1 9231   4.240  14.617  12.773 -0.1694 -0.2018 -0.1906
  787DOPC   GL2 9232   4.301  14.431  13.021  0.0181  0.2638 -0.2593
  787DOPC   C1A 9233   3.865  14.751  13.000 -0.1391  0.0870  0.0263
  787DOPC   D2A 9234   3.636  14.615  13.347  0.3184 -0.1734 -0.0720
  787DOPC   C3A 9235   3.834  14.491  13.773 -0.1527  0.0746  0.2408
  787DOPC   C4A 9236   4.053  14.239  14.126 -0.1802 -0.2989 -0.1084
  787DOPC   C1B 9237   4.223  14.691  13.395 -0.3066 -0.1334 -0.1980
  787DOPC   D2B 9238   4.004  15.055  13.543  0.1160 -0.0729 -0.2669
  787DOPC   C3B 9239   3.682  15.034  13.861  0.1758 -0.0116 -0.1092
  787DOPC   C4B 9240   3.303  14.803  13.994  0.0168 -0.0391  0.0376
  788POSM   NC3 9241   9.925  18.229  11.489  0.0097  0.0585  0.1198
  788POSM   PO4 9242   9.798  17.895  11.536 -0.0956 -0.0755  0.0528
  788POSM   AM1 9243   9.906  17.729  11.810 -0.1040 -0.1139 -0.0206
  788POSM   AM2 9244  10.119  17.713  12.030 -0.4077 -0.3198  0.2525
  788POSM   T1A 9245   9.637  17.590  12.201 -0.2031 -0.0570 -0.1912
  788POSM   C2A 9246   9.591  17.164  12.482  0.1848 -0.2960  0.1190
  788POSM   C3A 9247   9.415  17.009  12.934 -0.2048 -0.0720  0.2759
  788POSM   C1B 9248  10.119  17.541  12.368 -0.1252 -0.2998 -0.1791
  788POSM   D2B 9249   9.947  17.343  12.750 -0.1613  0.1381 -0.1971
  788POSM   C3B 9250   9.982  17.338  13.241  0.0464 -0.3257 -0.0535
  788POSM   C4B 9251   9.919  17.406  13.693  0.2846 -0.2131 -0.0145
  789POSM   NC3 9252   0.263  21.380  12.489 -0.2314 -0.1425  0.1543
  789POSM   PO4 9253   0.492  21.075  12.538  0.2935 -0.0122  0.2131
  789POSM   AM1 9254   0.569  21.027  12.880  0.2428 -0.1345  0.1398
  789POSM   AM2 9255   0.548  21.252  12.994 -0.0978  0.2101 -0.0166
  789POSM   T1A 9256   0.519  20.600  13.138  0.1612 -0.2182 -0.1576
  789POSM   C2A 9257   0.532  20.186  13.059  0.2676  0.2285 -0.0284
  789POSM   C3A 9258   0.768  19.835  12.989 -0.0790 -0.2817  0.0748
  789POSM   C1B 9259   0.706  21.148  13.286 -0.0435 -0.0251  0.0425
  789POSM   D2B 9260   0.716  21.003  13.707  0.1312  0.0731 -0.0504
  789POSM   C3B 9261   0.524  21.032  14.155 -0.0152 -0.1719 -0.1867
  789POSM   C4B 9262   0.378  20.911  14.577  0.1765 -0.0392  0.0527
  790DOPS   CNO 9263   6.961  13.321  12.491  0.0492  0.2200  0.4253
  790DOPS   PO4 9264   7.109  13.661  12.606 -0.0652  0.0286  0.1216
  790DOPS   GL1 9265   7.428  13.825  12.858 -0.2607 -0.1594 -0.0135
  790DOPS   GL2 9266   7.561  13.562  13.001  0.0617  0.1167  0.1208
  790DOPS   C1A 9267   7.371  13.984  13.321  0.2308 -0.0417  0.0086
  790DOPS   D2A 9268   7.570  14.107  13.632  0.0290 -0.4477  0.2109
  790DOPS   C3A 9269   7.335  14.407  13.839  0.0725  0.2179 -0.1777
  790DOPS   C4A 9270   6.888  14.521  13.929 -0.0004 -0.1260 -0.2048
  790DOPS   C1B 9271   7.876  13.739  13.312 -0.1729 -0.0067 -0.0177
  790DOPS   D2B 9272   7.974  13.753  13.769  0.4426  0.0358  0.0540
  790DOPS   C3B 9273   8.360  13.560  13.678  0.1098 -0.1842  0.1590
  790DOPS   C4B 9274   8.835  13.639  13.752  0.0286 -0.2557  0.0852
  791POSM   NC3 9275   3.671  11.752  12.479  0.1634  0.1244 -0.1509
  791POSM   PO4 9276   3.450  11.801  12.793 -0.4261 -0.2344 -0.1050
  791POSM   AM1 9277   3.122  11.753  12.792  0.1040 -0.0828 -0.0286
  791POSM   AM2 9278   2.844  11.762  12.601 -0.3103  0.3351  0.2550
  791POSM   T1A 9279   2.700  11.643  13.041 -0.1447  0.0895 -0.3270
  791POSM   C2A 9280   2.493  11.826  13.385  0.2297  0.2692  0.0643
  791POSM   C3A 9281   2.323  12.080  13.733  0.2376  0.2403  0.2031
  791POSM   C1B 9282   2.602  11.508  12.575 -0.1852  0.0794 -0.0763
  791POSM   D2B 9283   2.316  11.259  12.838  0.1821  0.2907  0.0836
  791POSM   C3B 9284   2.307  10.959  13.216  0.1389 -0.1451 -0.2240
  791POSM   C4B 9285   2.477  10.912  13.658 -0.2116  0.0914  0.2417
  792DOPE   NH3 9286   5.937  21.131  12.738  0.1617  0.0388 -0.0494
  792DOPE   PO4 9287   5.840  21.405  12.635  0.0104 -0.1964 -0.1414
  792DOPE   GL1 9288   5.577  21.473  12.824 -0.2743 -0.1192 -0.0407
  792DOPE   GL2 9289   5.495  21.740  13.029  0.0254 -0.2075  0.0428
  792DOPE   C1A 9290   5.209  21.267  12.944 -0.0220 -0.0202 -0.0770
  792DOPE   D2A 9291   5.119  20.784  13.011 -0.2076  0.0884  0.0889
  792DOPE   C3A 9292   5.205  20.478  13.336  0.1223  0.0030  0.1525
  792DOPE   C4A 9293   5.619  20.351  13.607  0.1595 -0.0428 -0.0037
  792DOPE   C1B 9294   5.086  21.700  13.301 -0.0150  0.1770  0.3629
  792DOPE   D2B 9295   4.648  21.617  13.074  0.1615  0.1710 -0.1765
  792DOPE   C3B 9296   4.746  21.401  12.694  0.0778 -0.2274 -0.0287
  792DOPE   C4B 9297   4.767  21.232  12.260 -0.1881 -0.1227 -0.1442
  793DOPE   NH3 9298   2.641  12.623  12.416  0.2669 -0.0739  0.2276
  793DOPE   PO4 9299   2.684  12.840  12.214  0.1291  0.1147  0.3031
  793DOPE   GL1 9300   2.594  13.091  12.442 -0.2515  0.1736  0.1608
  793DOPE   GL2 9301   2.447  13.027  12.695 -0.1238 -0.1478  0.1844
  793DOPE   C1A 9302   2.459  13.549  12.573  0.1288  0.0178  0.1132
  793DOPE   D2A 9303   2.586  13.988  12.556  0.0483  0.0570  0.1772
  793DOPE   C3A 9304   2.636  14.149  12.956 -0.1212  0.3060 -0.2333
  793DOPE   C4A 9305   3.011  14.388  13.206 -0.0786 -0.1054 -0.1544
  793DOPE   C1B 9306   2.082  12.930  12.406 -0.0270  0.3547 -0.1138
  793DOPE   D2B 9307   1.630  13.042  12.446  0.2747 -0.2431  0.1816
  793DOPE   C3B 9308   1.746  12.921  12.845 -0.0302 -0.0794  0.1536
  793DOPE   C4B 9309   1.904  12.750  13.220 -0.1962  0.1746 -0.0294
  794DOPE   NH3 9310   2.543  12.147  12.858 -0.1888  0.1587  0.2454
  794DOPE   PO4 9311   2.607  12.415  12.849 -0.1272  0.1429  0.0736
  794DOPE   GL1 9312   2.467  12.678  13.008 -0.1560 -0.2214  0.2197
  794DOPE   GL2 9313   2.693  12.796  13.167 -0.0499 -0.0257  0.2096
  794DOPE   C1A 9314   2.247  13.078  13.122 -0.0141  0.5861 -0.1736
  794DOPE   D2A 9315   2.387  13.429  13.419 -0.1166 -0.5529 -0.2468
  794DOPE   C3A 9316   2.464  13.840  13.440  0.0539  0.1214  0.0160
  794DOPE   C4A 9317   2.721  14.211  13.567 -0.2313  0.0201 -0.0480
  794DOPE   C1B 9318   2.480  12.898  13.534  0.1666  0.0271 -0.1270
  794DOPE   D2B 9319   2.114  12.734  13.827 -0.0490  0.3103  0.0994
  794DOPE   C3B 9320   1.731  12.685  14.012 -0.1485 -0.4566 -0.2149
  794DOPE   C4B 9321   1.338  12.657  14.233  0.0363 -0.0146  0.0370
  795DOPS   CNO 9322   3.668  13.098  12.248  0.0778 -0.3279  0.2632
  795DOPS   PO4 9323   3.641  12.917  12.576 -0.1117 -0.1538 -0.2321
  795DOPS   GL1 9324   3.742  12.792  12.987  0.3206  0.3105 -0.3426
  795DOPS   GL2 9325   3.942  12.579  12.840 -0.2638  0.0082  0.2464
  795DOPS   C1A 9326   3.619  12.746  13.414 -0.0584  0.0546  0.0541
  795DOPS   D2A 9327   3.822  12.451  13.747  0.1396  0.0141 -0.3573
  795DOPS   C3A 9328   3.571  12.354  14.099  0.0930 -0.0565 -0.1292
  795DOPS   C4A 9329   3.226  12.409  14.366 -0.0210 -0.0172  0.3093
  795DOPS   C1B 9330   4.418  12.501  12.875  0.1878  0.1865  0.0081
  795DOPS   D2B 9331   4.555  12.352  13.344 -0.0523 -0.2272 -0.3484
  795DOPS   C3B 9332   4.325  12.337  13.708  0.0735 -0.0341  0.2423
  795DOPS   C4B 9333   4.526  12.153  14.081 -0.1049 -0.3468  0.4806
  796POSM   NC3 9334   6.458  14.544  13.075  0.3640  0.0694 -0.1396
  796POSM   PO4 9335   6.345  14.836  12.845  0.2293 -0.2523  0.2265
  796POSM   AM1 9336   6.423  14.994  13.138  0.2125 -0.2345 -0.1715
  796POSM   AM2 9337   6.338  15.209  13.294  0.0562 -0.5623 -0.2583
  796POSM   T1A 9338   6.688  14.934  13.542  0.1316 -0.1654  0.0417
  796POSM   C2A 9339   7.041  15.015  13.767  0.3080 -0.1898  0.1549
  796POSM   C3A 9340   7.283  14.837  14.138  0.2338  0.2275  0.1363
  796POSM   C1B 9341   6.252  15.394  13.545  0.3970  0.1111 -0.2084
  796POSM   D2B 9342   5.964  15.506  13.871 -0.0780 -0.2093  0.2329
  796POSM   C3B 9343   5.844  15.047  13.937 -0.0831  0.2480  0.0043
  796POSM   C4B 9344   5.810  14.696  14.184  0.2136 -0.1226  0.1398
  797POSM   NC3 9345   9.234  17.941  12.378 -0.2570 -0.1100  0.0281
  797POSM   PO4 9346   8.944  17.817  12.193 -0.0008 -0.1164 -0.5965
  797POSM   AM1 9347   8.858  17.598  12.412 -0.1054 -0.2556  0.2612
  797POSM   AM2 9348   8.767  17.561  12.707 -0.2395 -0.0561  0.0512
  797POSM   T1A 9349   8.794  17.109  12.463  0.0726 -0.0235 -0.2065
  797POSM   C2A 9350   8.436  16.790  12.446 -0.1314  0.1515 -0.0038
  797POSM   C3A 9351   8.151  16.426  12.545  0.0797  0.2732 -0.2456
  797POSM   C1B 9352   8.925  17.334  12.882  0.0295 -0.1116  0.0378
  797POSM   D2B 9353   8.914  17.126  13.317 -0.1941 -0.1575 -0.3061
  797POSM   C3B 9354   9.245  16.773  13.463  0.1801 -0.0069  0.1250
  797POSM   C4B 9355   9.202  16.624  13.921 -0.3427 -0.0756  0.0892
  798DOPE   NH3 9356   7.606  13.490  12.500  0.1087  0.0460 -0.0100
  798DOPE   PO4 9357   7.706  13.768  12.323  0.1304  0.1987  0.0160
  798DOPE   GL1 9358   7.666  14.090  12.556  0.1888 -0.1041  0.0454
  798DOPE   GL2 9359   7.910  14.281  12.466  0.1644  0.1365  0.1254
  798DOPE   C1A 9360   7.608  14.250  12.965  0.0255  0.1867  0.2287
  798DOPE   D2A 9361   7.388  14.467  13.259 -0.0006 -0.1500 -0.3128
  798DOPE   C3A 9362   7.637  14.873  13.189  0.0758  0.2881  0.1018
  798DOPE   C4A 9363   7.933  15.211  13.257 -0.0421 -0.1556  0.2702
  798DOPE   C1B 9364   8.028  14.537  12.851  0.3133 -0.0072 -0.0883
  798DOPE   D2B 9365   8.203  14.725  13.223 -0.1621  0.1181  0.1434
  798DOPE   C3B 9366   7.928  14.766  13.577  0.1486 -0.0732  0.0224
  798DOPE   C4B 9367   7.476  14.845  13.669 -0.2529 -0.1774  0.2619
  799DOPS   CNO 9368   1.684  22.450  12.504 -0.2510 -0.3414 -0.3011
  799DOPS   PO4 9369   1.662  22.711  12.772 -0.0682 -0.3046  0.2414
  799DOPS   GL1 9370   1.637  22.842  13.086  0.1620  0.0354  0.1766
  799DOPS   GL2 9371   1.527  22.575  13.215  0.1061 -0.0955 -0.0023
  799DOPS   C1A 9372   1.697  23.049  13.505 -0.4105 -0.0066  0.3080
  799DOPS   D2A 9373   1.610  23.004  13.916  0.3763 -0.0944 -0.2859
  799DOPS   C3A 9374   1.449  23.301  14.153 -0.5249  0.6696 -0.2987
  799DOPS   C4A 9375   1.418  23.756  14.142 -0.0707 -0.0557  0.1595
  799DOPS   C1B 9376   1.454  22.643  13.662  0.1464  0.2929 -0.0017
  799DOPS   D2B 9377   1.065  22.850  13.820  0.0977 -0.0861 -0.2437
  799DOPS   C3B 9378   0.933  22.936  14.231 -0.2595  0.3653 -0.0417
  799DOPS   C4B 9379   0.869  23.011  14.705 -0.2412  0.0944  0.1778
  800DOPE   NH3 9380   6.214  20.473  12.838  0.0455  0.0934 -0.2967
  800DOPE   PO4 9381   6.186  20.145  12.790  0.0796  0.0849 -0.1128
  800DOPE   GL1 9382   6.153  20.055  13.102  0.1287  0.1614  0.0975
  800DOPE   GL2 9383   6.393  20.187  13.244  0.1492  0.0451  0.2593
  800DOPE   C1A 9384   6.415  19.717  13.352 -0.1261 -0.3150 -0.1742
  800DOPE   D2A 9385   6.826  19.548  13.215  0.0226  0.1075  0.0251
  800DOPE   C3A 9386   7.088  19.922  13.255  0.2115  0.1566 -0.2362
  800DOPE   C4A 9387   6.983  20.385  13.274  0.1556 -0.2254 -0.1420
  800DOPE   C1B 9388   6.099  20.194  13.551  0.0802  0.0655 -0.0292
  800DOPE   D2B 9389   5.942  19.947  13.914 -0.1489  0.1052  0.0515
  800DOPE   C3B 9390   6.251  19.625  14.095 -0.0112 -0.1940  0.2527
  800DOPE   C4B 9391   6.634  19.517  14.277  0.3202  0.0590 -0.2002
  801POSM   NC3 9392   0.137  13.742  12.145  0.3139 -0.2603 -0.0258
  801POSM   PO4 9393   0.054  13.943  12.501  0.2011  0.0860 -0.1444
  801POSM   AM1 9394   0.086  13.660  12.647 -0.2534 -0.2928 -0.0763
  801POSM   AM2 9395  -0.094  13.579  12.841  0.1045  0.0233  0.1046
  801POSM   T1A 9396   0.411  13.378  12.809  0.3749 -0.0160  0.0152
  801POSM   C2A 9397   0.564  12.974  12.564 -0.0804 -0.0744 -0.2242
  801POSM   C3A 9398   0.815  12.628  12.409 -0.0142  0.2021 -0.1095
  801POSM   C1B 9399  -0.163  13.449  13.110  0.0832  0.2032 -0.3033
  801POSM   D2B 9400  -0.403  13.259  13.445 -0.3493 -0.0866  0.1646
  801POSM   C3B 9401  -0.452  13.018  13.879 -0.2683 -0.2562  0.0926
  801POSM   C4B 9402  -0.170  12.780  14.143  0.1742 -0.2177  0.0200
  802POSM   NC3 9403   1.241  22.005  12.447  0.0132  0.2905  0.0900
  802POSM   PO4 9404   1.019  22.297  12.545  0.2940 -0.0384 -0.0547
  802POSM   AM1 9405   0.881  22.313  12.864 -0.0106 -0.1865  0.3036
  802POSM   AM2 9406   0.705  22.562  12.954 -0.2131  0.0194  0.1599
  802POSM   T1A 9407   0.772  22.266  13.365 -0.0826 -0.0354  0.3465
  802POSM   C2A 9408   1.058  22.331  13.750 -0.2235  0.1238  0.0013
  802POSM   C3A 9409   1.296  22.344  14.145 -0.0531  0.1370  0.1026
  802POSM   C1B 9410   0.820  22.721  13.213 -0.0160 -0.2415  0.2635
  802POSM   D2B 9411   1.224  22.962  13.315  0.0321 -0.3060 -0.1870
  802POSM   C3B 9412   1.052  23.262  13.611  0.2221 -0.0712  0.2434
  802POSM   C4B 9413   1.024  23.636  13.847 -0.0358 -0.0281  0.2159
  803DOPC   NC3 9414   3.572  19.914  12.643 -0.2278 -0.0583 -0.2237
  803DOPC   PO4 9415   3.189  19.966  12.657  0.0093  0.1648 -0.3057
  803DOPC   GL1 9416   3.187  19.976  13.057  0.4699 -0.1229  0.0075
  803DOPC   GL2 9417   3.386  20.133  13.187  0.2170  0.1052  0.0118
  803DOPC   C1A 9418   3.291  19.776  13.445 -0.0179 -0.1066  0.3444
  803DOPC   D2A 9419   3.750  19.953  13.580 -0.1400 -0.0729  0.1637
  803DOPC   C3A 9420   3.713  20.337  13.834 -0.0251 -0.0261  0.0865
  803DOPC   C4A 9421   3.555  20.492  14.233 -0.5051  0.1603  0.1121
  803DOPC   C1B 9422   3.820  20.387  13.306 -0.2656 -0.0033 -0.1267
  803DOPC   D2B 9423   4.162  20.510  13.661 -0.3016 -0.0541  0.0749
  803DOPC   C3B 9424   3.894  20.778  13.948  0.0387  0.0686 -0.1345
  803DOPC   C4B 9425   3.587  20.973  14.287  0.0588  0.1799 -0.0937
  804POSM   NC3 9426   1.177  20.401  12.190  0.0771  0.0584 -0.0748
  804POSM   PO4 9427   1.056  20.016  12.189 -0.0546  0.0921  0.1729
  804POSM   AM1 9428   0.783  19.859  12.200 -0.1841  0.6130  0.2469
  804POSM   AM2 9429   0.575  19.837  12.377  0.2419 -0.2103 -0.2107
  804POSM   T1A 9430   0.580  19.391  12.195  0.2847 -0.2776  0.0914
  804POSM   C2A 9431   0.644  18.956  12.194 -0.2055 -0.0498  0.1382
  804POSM   C3A 9432   0.862  18.488  12.166 -0.5717 -0.1440  0.2251
  804POSM   C1B 9433   0.420  19.598  12.628 -0.1126  0.1339  0.2190
  804POSM   D2B 9434   0.190  19.215  12.644  0.1017  0.0101 -0.2145
  804POSM   C3B 9435   0.014  19.044  13.026 -0.1324 -0.4577 -0.0613
  804POSM   C4B 9436  -0.243  19.188  13.389  0.0728  0.0203  0.3208
  805DOPE   NH3 9437   3.786  13.396  12.648 -0.0338  0.0047  0.0498
  805DOPE   PO4 9438   4.074  13.518  12.731  0.0051  0.0427 -0.0097
  805DOPE   GL1 9439   4.116  13.465  13.051  0.2406  0.0545  0.1494
  805DOPE   GL2 9440   4.268  13.783  13.119  0.1299 -0.0830 -0.1000
  805DOPE   C1A 9441   4.001  13.588  13.469 -0.0652 -0.3582 -0.0876
  805DOPE   D2A 9442   4.188  13.910  13.774 -0.1894 -0.1946 -0.0025
  805DOPE   C3A 9443   4.129  13.730  14.182  0.0864  0.0363  0.0634
  805DOPE   C4A 9444   4.304  13.297  14.314 -0.1904 -0.0044  0.0777
  805DOPE   C1B 9445   4.521  14.017  13.429  0.1028 -0.1339  0.2302
  805DOPE   D2B 9446   4.650  14.462  13.489  0.1046 -0.1717  0.1629
  805DOPE   C3B 9447   4.371  14.497  13.862 -0.2777  0.1265 -0.0265
  805DOPE   C4B 9448   4.458  14.489  14.305  0.1938  0.1812  0.2775
  806DOPS   CNO 9449   2.923  17.105  12.882 -0.0815 -0.0856  0.2622
  806DOPS   PO4 9450   2.635  17.076  13.113 -0.1794 -0.1448  0.1154
  806DOPS   GL1 9451   2.717  16.755  13.430  0.0086  0.0308  0.2187
  806DOPS   GL2 9452   2.615  16.946  13.627 -0.2514  0.0129 -0.2991
  806DOPS   C1A 9453   2.675  16.480  13.818 -0.0952  0.0458  0.1538
  806DOPS   D2A 9454   2.759  16.248  14.224 -0.0252 -0.0522 -0.0283
  806DOPS   C3A 9455   3.167  16.109  14.415 -0.1635 -0.1905 -0.0750
  806DOPS   C4A 9456   3.254  15.717  14.683 -0.1652 -0.3251 -0.2093
  806DOPS   C1B 9457   2.804  17.059  13.989 -0.1693 -0.0410 -0.1017
  806DOPS   D2B 9458   3.018  17.347  14.300 -0.0773 -0.1889 -0.1809
  806DOPS   C3B 9459   2.698  17.643  14.461  0.1452  0.1999  0.0934
  806DOPS   C4B 9460   2.399  17.912  14.665  0.1693  0.1845 -0.3547
  807DOPC   NC3 9461   2.805  19.667  12.792  0.1552 -0.3075  0.2611
  807DOPC   PO4 9462   2.760  19.370  12.567 -0.1063  0.0752 -0.0189
  807DOPC   GL1 9463   2.774  19.293  13.017 -0.0879  0.1728 -0.2328
  807DOPC   GL2 9464   2.555  19.088  13.057  0.1057  0.0527 -0.0824
  807DOPC   C1A 9465   2.842  19.477  13.415 -0.0634 -0.1277  0.2720
  807DOPC   D2A 9466   2.999  19.590  13.818  0.3910  0.3876 -0.1203
  807DOPC   C3A 9467   3.356  19.804  13.953 -0.3299  0.1132  0.1406
  807DOPC   C4A 9468   3.576  19.988  14.319  0.0168 -0.2753 -0.1019
  807DOPC   C1B 9469   2.486  19.126  13.519 -0.1844 -0.3625 -0.0438
  807DOPC   D2B 9470   2.245  19.186  13.896 -0.1716  0.0965 -0.0516
  807DOPC   C3B 9471   2.085  19.316  14.300 -0.1354 -0.0230 -0.0211
  807DOPC   C4B 9472   2.052  19.440  14.759 -0.0772  0.0606 -0.0605
  808DOPC   NC3 9473   8.421  22.283  12.125  0.1399 -0.1895  0.2261
  808DOPC   PO4 9474   8.401  21.936  12.017 -0.1303  0.1759 -0.4984
  808DOPC   GL1 9475   8.172  21.620  12.089  0.3604  0.0118  0.2025
  808DOPC   GL2 9476   7.906  21.600  12.132 -0.0180 -0.0138  0.2323
  808DOPC   C1A 9477   8.253  21.309  12.402  0.0869 -0.2379  0.0772
  808DOPC   D2A 9478   8.090  21.006  12.720  0.3093  0.1273  0.2646
  808DOPC   C3A 9479   8.282  20.606  12.837  0.2101 -0.0285 -0.1554
  808DOPC   C4A 9480   8.235  20.358  13.199 -0.0681 -0.0272 -0.0767
  808DOPC   C1B 9481   8.044  21.219  11.944 -0.1697  0.1234  0.0475
  808DOPC   D2B 9482   8.178  20.728  11.940  0.0273 -0.2417  0.2863
  808DOPC   C3B 9483   8.624  20.731  11.819  0.3318  0.2894 -0.0127
  808DOPC   C4B 9484   8.945  21.025  11.612 -0.1546 -0.3037 -0.0075
  809DOPC   NC3 9485   2.323  16.442  13.423  0.0494  0.2509  0.1804
  809DOPC   PO4 9486   2.206  16.769  13.198 -0.0518 -0.0600  0.2634
  809DOPC   GL1 9487   2.082  16.895  13.625 -0.0785 -0.2769 -0.4299
  809DOPC   GL2 9488   1.897  16.667  13.558 -0.0886 -0.0283 -0.0799
  809DOPC   C1A 9489   2.284  16.927  14.093 -0.0657  0.3338 -0.2798
  809DOPC   D2A 9490   2.567  16.932  14.439 -0.3041 -0.1940 -0.0612
  809DOPC   C3A 9491   2.893  16.593  14.527 -0.1437 -0.1102  0.1452
  809DOPC   C4A 9492   3.336  16.601  14.537  0.0881  0.0726  0.0242
  809DOPC   C1B 9493   2.109  16.484  13.913 -0.1645 -0.1392 -0.1943
  809DOPC   D2B 9494   2.343  16.495  14.308 -0.1973  0.0379  0.1204
  809DOPC   C3B 9495   2.081  16.754  14.682 -0.1727 -0.0357 -0.0357
  809DOPC   C4B 9496   1.974  17.101  14.851 -0.0635  0.1171  0.3240
  810DOPS   CNO 9497   5.833  20.387  13.136 -0.1050 -0.1148 -0.0179
  810DOPS   PO4 9498   5.848  20.730  13.009 -0.0487 -0.1839 -0.0079
  810DOPS   GL1 9499   5.536  20.865  13.189  0.3161 -0.1719 -0.5110
  810DOPS   GL2 9500   5.712  21.150  13.207 -0.3563  0.0403 -0.0953
  810DOPS   C1A 9501   5.521  20.803  13.644  0.1268  0.0408  0.0260
  810DOPS   D2A 9502   5.742  20.628  14.011  0.2432  0.1029  0.0894
  810DOPS   C3A 9503   6.170  20.412  13.988  0.1633 -0.3311 -0.2106
  810DOPS   C4A 9504   6.453  20.123  14.040  0.3444  0.3268 -0.0182
  810DOPS   C1B 9505   5.397  21.307  13.451 -0.2488  0.1530  0.2398
  810DOPS   D2B 9506   5.125  21.339  13.864  0.1781 -0.1475  0.3639
  810DOPS   C3B 9507   5.357  21.012  14.091  0.1277  0.3890  0.1755
  810DOPS   C4B 9508   5.641  20.949  14.449 -0.1869 -0.0785  0.4632
  811POSM   NC3 9509   0.831  11.273  12.598  0.0979 -0.0036 -0.0115
  811POSM   PO4 9510   1.150  11.095  12.413  0.1736 -0.3788  0.1867
  811POSM   AM1 9511   1.253  11.246  12.696 -0.2425 -0.0955 -0.0955
  811POSM   AM2 9512   1.263  11.502  12.893  0.3409 -0.0145 -0.0190
  811POSM   T1A 9513   1.688  11.251  12.922  0.0040  0.0560  0.4268
  811POSM   C2A 9514   1.866  11.304  13.309  0.3067  0.1024 -0.1927
  811POSM   C3A 9515   2.148  11.376  13.663  0.3358  0.0372  0.0766
  811POSM   C1B 9516   1.367  11.489  13.254 -0.1280 -0.2258  0.3471
  811POSM   D2B 9517   1.179  11.351  13.595  0.2130 -0.1067 -0.0163
  811POSM   C3B 9518   1.073  11.702  13.962 -0.0702 -0.1033 -0.0429
  811POSM   C4B 9519   0.725  11.942  14.148  0.3031 -0.1412 -0.1596
  812POSM   NC3 9520   6.537  22.434  12.596 -0.3845  0.1948  0.1491
  812POSM   PO4 9521   6.140  22.574  12.516 -0.0205 -0.1794 -0.0593
  812POSM   AM1 9522   6.080  22.294  12.706  0.1047 -0.4759 -0.2751
  812POSM   AM2 9523   6.212  22.159  12.905 -0.0992  0.2168  0.2095
  812POSM   T1A 9524   5.769  22.100  13.036  0.3566  0.2410  0.3374
  812POSM   C2A 9525   5.488  22.128  13.424 -0.4143  0.1446 -0.2366
  812POSM   C3A 9526   5.039  22.229  13.555 -0.1751  0.1180  0.2537
  812POSM   C1B 9527   6.189  22.189  13.239 -0.1179  0.0202 -0.0403
  812POSM   D2B 9528   6.130  22.046  13.680 -0.2144  0.0314  0.1503
  812POSM   C3B 9529   6.081  22.350  14.033 -0.1145  0.2033 -0.4550
  812POSM   C4B 9530   6.008  22.820  14.223 -0.0585  0.0744 -0.1210
  813DOPE   NH3 9531  33.856  18.239  12.849  0.0641 -0.2787  0.1333
  813DOPE   PO4 9532  33.954  18.402  13.124  0.0133 -0.2741 -0.1016
  813DOPE   GL1 9533  34.339  18.164  13.231 -0.0978 -0.2042  0.1252
  813DOPE   GL2 9534  34.502  18.257  12.986 -0.3224 -0.0970 -0.0991
  813DOPE   C1A 9535  34.389  17.713  13.382  0.0337 -0.2574 -0.0124
  813DOPE   D2A 9536  34.364  17.515  13.784 -0.1400  0.1375  0.1461
  813DOPE   C3A 9537  34.634  17.188  13.971 -0.3609  0.0575  0.2226
  813DOPE   C4A 9538  34.696  16.757  14.065 -0.0696  0.1045 -0.1858
  813DOPE   C1B 9539  34.837  18.560  13.138  0.1325  0.0889 -0.1079
  813DOPE   D2B 9540  35.115  18.468  13.547  0.2036  0.0360  0.0263
  813DOPE   C3B 9541  34.822  18.453  13.975 -0.2129  0.1221 -0.2962
  813DOPE   C4B 9542  34.512  18.810  14.147  0.5709 -0.0719 -0.0698
  814DOPC   NC3 9543   3.923  11.595  12.907 -0.3543  0.0329 -0.2589
  814DOPC   PO4 9544   4.105  11.427  12.588  0.2653 -0.0670 -0.0192
  814DOPC   GL1 9545   4.516  11.413  12.751 -0.2748  0.0953 -0.0655
  814DOPC   GL2 9546   4.607  11.158  12.838 -0.0398  0.2835 -0.1405
  814DOPC   C1A 9547   4.982  11.556  12.844 -0.1573  0.0038  0.0569
  814DOPC   D2A 9548   5.312  11.702  13.121  0.1250  0.2209 -0.2754
  814DOPC   C3A 9549   5.182  11.622  13.578 -0.1737 -0.1830 -0.2217
  814DOPC   C4A 9550   5.469  11.597  13.949 -0.2208 -0.0983  0.1345
  814DOPC   C1B 9551   4.757  11.098  13.262  0.0749 -0.2541  0.0820
  814DOPC   D2B 9552   4.565  11.289  13.604  0.0499  0.1253 -0.0522
  814DOPC   C3B 9553   4.125  11.421  13.527 -0.2291  0.0272  0.1514
  814DOPC   C4B 9554   3.773  11.245  13.739 -0.0419  0.0962  0.0478
  815POSM   NC3 9555  10.017  14.715  11.576 -0.0780  0.2290  0.3088
  815POSM   PO4 9556  10.213  14.881  11.846  0.1114  0.0335 -0.0550
  815POSM   AM1 9557  10.083  15.013  12.145 -0.3955 -0.0980  0.1217
  815POSM   AM2 9558  10.188  15.164  12.377 -0.2738 -0.5085 -0.1044
  815POSM   T1A 9559   9.810  14.980  12.623  0.3182 -0.3926  0.2249
  815POSM   C2A 9560   9.524  14.824  12.913 -0.2600 -0.1355  0.0248
  815POSM   C3A 9561   9.387  14.978  13.347 -0.0909 -0.0417 -0.1280
  815POSM   C1B 9562  10.335  15.017  12.672  0.0312 -0.0335 -0.2407
  815POSM   D2B 9563  10.607  15.124  13.050 -0.0415  0.0315 -0.0873
  815POSM   C3B 9564  11.047  15.074  13.081 -0.0767 -0.1922  0.3474
  815POSM   C4B 9565  11.404  15.331  13.149  0.1167  0.2354  0.1605
  816POSM   NC3 9566   5.870  19.748  12.562 -0.0365  0.0635 -0.1657
  816POSM   PO4 9567   5.590  19.417  12.503 -0.0210  0.1121  0.1020
  816POSM   AM1 9568   5.625  19.438  12.818  0.0913 -0.0682 -0.3695
  816POSM   AM2 9569   5.435  19.515  13.008  0.1235 -0.1402  0.1737
  816POSM   T1A 9570   5.709  19.293  13.302  0.1228  0.2102  0.4914
  816POSM   C2A 9571   5.770  18.975  13.652 -0.0495  0.1577  0.3596
  816POSM   C3A 9572   5.720  18.784  14.064  0.1397 -0.0553 -0.4037
  816POSM   C1B 9573   5.311  19.543  13.368 -0.0991  0.1541 -0.1716
  816POSM   D2B 9574   5.087  19.457  13.734  0.1049 -0.1888  0.1471
  816POSM   C3B 9575   5.237  19.634  14.151 -0.1425 -0.0916  0.1360
  816POSM   C4B 9576   5.067  20.001  14.357  0.0747 -0.0141  0.0298
  817DOPC   NC3 9577   2.589  31.172  16.198 -0.1274 -0.1473  0.1376
  817DOPC   PO4 9578   2.478  31.128  16.575 -0.5055 -0.0198  0.0644
  817DOPC   GL1 9579   2.438  31.468  16.461  0.5719 -0.3081 -0.1384
  817DOPC   GL2 9580   2.167  31.508  16.442  0.0501 -0.2409 -0.0257
  817DOPC   C1A 9581   2.580  31.866  16.219  0.1583  0.2844  0.0843
  817DOPC   D2A 9582   2.475  31.873  15.767  0.1558  0.0931  0.0955
  817DOPC   C3A 9583   2.770  32.169  15.526  0.0231  0.3628 -0.0044
  817DOPC   C4A 9584   3.076  32.166  15.136  0.1527 -0.0626  0.1545
  817DOPC   C1B 9585   2.057  31.775  16.051  0.3011 -0.0263  0.1141
  817DOPC   D2B 9586   1.903  31.860  15.597  0.0862  0.0943 -0.1098
  817DOPC   C3B 9587   2.015  32.211  15.273  0.0514 -0.2587  0.1235
  817DOPC   C4B 9588   2.081  32.332  14.775 -0.0408  0.0272 -0.3793
  818DOPC   NC3 9589  10.061  25.642  15.819 -0.2003  0.0624 -0.0861
  818DOPC   PO4 9590   9.748  25.881  15.880 -0.3896 -0.4337 -0.1273
  818DOPC   GL1 9591   9.625  26.030  15.533  0.3696 -0.1315  0.3209
  818DOPC   GL2 9592   9.596  26.346  15.570 -0.1235 -0.0518 -0.4002
  818DOPC   C1A 9593   9.177  26.102  15.493  0.1021 -0.2153  0.0522
  818DOPC   D2A 9594   8.820  26.072  15.253 -0.1899  0.1042 -0.1186
  818DOPC   C3A 9595   8.719  26.273  14.877  0.0291 -0.0851 -0.2030
  818DOPC   C4A 9596   8.719  26.233  14.408 -0.0860  0.2069 -0.0371
  818DOPC   C1B 9597   9.939  26.517  15.293  0.0422  0.1551 -0.1570
  818DOPC   D2B 9598   9.924  26.637  14.920  0.0747 -0.1899  0.1840
  818DOPC   C3B 9599   9.953  26.654  14.537  0.0242 -0.1380  0.0513
  818DOPC   C4B 9600   9.938  26.975  14.217  0.0734  0.2260  0.2323
  819DOPE   NH3 9601   9.022  32.756  15.221  0.0369  0.3119 -0.3023
  819DOPE   PO4 9602   9.234  32.552  15.338 -0.3850  0.1143 -0.0431
  819DOPE   GL1 9603   9.384  32.522  14.935 -0.0337 -0.1261  0.0529
  819DOPE   GL2 9604   9.290  32.731  14.704  0.3874 -0.1459 -0.3756
  819DOPE   C1A 9605   9.752  32.373  14.567 -0.1310 -0.1529 -0.0999
  819DOPE   D2A 9606  10.042  32.343  14.264  0.3844 -0.0243 -0.0640
  819DOPE   C3A 9607  10.019  32.180  13.799  0.0188  0.1063  0.1444
  819DOPE   C4A 9608  10.281  31.910  13.543 -0.1751  0.0485 -0.0682
  819DOPE   C1B 9609   9.359  32.795  14.270 -0.0056 -0.0510  0.0064
  819DOPE   D2B 9610   9.414  32.872  13.778 -0.2048  0.1773  0.0832
  819DOPE   C3B 9611   9.164  32.567  13.589  0.0877 -0.3801  0.4106
  819DOPE   C4B 9612   8.963  32.211  13.470 -0.1583  0.0067  0.0295
  820DOPE   NH3 9613   0.422  32.153  16.347 -0.2230 -0.2790 -0.2455
  820DOPE   PO4 9614   0.736  32.123  16.361  0.0236 -0.0035 -0.1028
  820DOPE   GL1 9615   0.861  32.233  16.133 -0.0910 -0.0374 -0.5087
  820DOPE   GL2 9616   0.807  32.094  15.867 -0.0593  0.0500  0.2179
  820DOPE   C1A 9617   1.215  32.329  15.854  0.0685  0.2918  0.0317
  820DOPE   D2A 9618   1.647  32.571  15.856 -0.1555 -0.1610  0.0358
  820DOPE   C3A 9619   1.720  32.584  15.403 -0.0411  0.4209  0.0234
  820DOPE   C4A 9620   1.907  32.835  15.036  0.2828  0.0036 -0.0560
  820DOPE   C1B 9621   0.815  32.132  15.393 -0.1020  0.0824 -0.0269
  820DOPE   D2B 9622   1.094  32.013  15.087 -0.4220 -0.1163  0.0040
  820DOPE   C3B 9623   1.278  32.152  14.741  0.2873  0.1364 -0.0297
  820DOPE   C4B 9624   1.682  32.169  14.480  0.0156  0.0043  0.2098
  821DOPC   NC3 9625   8.884  34.068  15.425 -0.0356  0.1867  0.0731
  821DOPC   PO4 9626   9.191  34.287  15.554  0.0945 -0.0929  0.0092
  821DOPC   GL1 9627   9.206  34.294  15.119  0.0663  0.6658 -0.5407
  821DOPC   GL2 9628   9.084  34.516  15.032 -0.5028  0.3632 -0.1265
  821DOPC   C1A 9629   9.329  34.231  14.649 -0.1403  0.1084 -0.0890
  821DOPC   D2A 9630   9.610  34.281  14.348  0.0776  0.2518  0.1309
  821DOPC   C3A 9631   9.537  34.523  13.979 -0.3461  0.2225 -0.1030
  821DOPC   C4A 9632   9.918  34.638  13.642  0.1467 -0.2679 -0.2309
  821DOPC   C1B 9633   8.740  34.317  14.737 -0.3847 -0.3493  0.1800
  821DOPC   D2B 9634   8.456  33.984  14.599  0.0443 -0.1240 -0.1731
  821DOPC   C3B 9635   8.268  34.243  14.237  0.2778 -0.0063 -0.3599
  821DOPC   C4B 9636   7.945  34.565  14.055  0.0630 -0.2194 -0.2121
  822DOPC   NC3 9637  11.357  33.207  15.427 -0.1189  0.2054  0.4595
  822DOPC   PO4 9638  11.163  32.853  15.494 -0.3571  0.0195  0.1844
  822DOPC   GL1 9639  11.042  32.753  15.186  0.1617 -0.2539  0.2708
  822DOPC   GL2 9640  10.745  32.680  15.194 -0.3503  0.0514 -0.2481
  822DOPC   C1A 9641  11.117  32.489  14.828  0.0605 -0.0488  0.0387
  822DOPC   D2A 9642  11.265  32.769  14.474 -0.0835 -0.1366 -0.0395
  822DOPC   C3A 9643  11.086  32.855  14.093  0.0828 -0.0643 -0.1544
  822DOPC   C4A 9644  11.224  32.842  13.678 -0.2807 -0.0028 -0.0799
  822DOPC   C1B 9645  10.763  32.860  14.767 -0.0370 -0.0493 -0.0164
  822DOPC   D2B 9646  10.458  33.152  14.490 -0.1540  0.0327  0.1273
  822DOPC   C3B 9647  10.571  32.938  14.100 -0.1928  0.0844 -0.0116
  822DOPC   C4B 9648  10.650  32.799  13.684 -0.1157  0.0776 -0.0415
  823POSM   NC3 9649   3.760  26.435  16.544 -0.1358  0.0850  0.0448
  823POSM   PO4 9650   3.759  26.781  16.477  0.1168  0.2455  0.1525
  823POSM   AM1 9651   3.722  26.752  16.158  0.2712 -0.0723  0.2875
  823POSM   AM2 9652   3.608  26.524  15.965  0.1471 -0.1207 -0.0968
  823POSM   T1A 9653   3.691  26.979  15.728  0.0680 -0.2081 -0.0527
  823POSM   C2A 9654   3.669  27.310  15.367  0.1705  0.0562 -0.0474
  823POSM   C3A 9655   3.910  27.671  15.287 -0.0981  0.0254 -0.1302
  823POSM   C1B 9656   3.760  26.288  15.743 -0.1248  0.0158  0.3782
  823POSM   D2B 9657   3.987  26.041  15.425  0.2759  0.0852 -0.2826
  823POSM   C3B 9658   4.271  26.285  15.151 -0.2576  0.1603  0.2084
  823POSM   C4B 9659   4.155  26.124  14.670 -0.1665 -0.0833  0.0258
  824DOPS   CNO 9660   7.952  32.835  15.450 -0.1381  0.2283 -0.0922
  824DOPS   PO4 9661   8.173  33.102  15.326 -0.1093 -0.1919 -0.2140
  824DOPS   GL1 9662   8.119  32.944  14.936 -0.0413 -0.0036  0.2077
  824DOPS   GL2 9663   8.227  32.678  15.033  0.1622 -0.1527  0.1534
  824DOPS   C1A 9664   8.337  33.020  14.553 -0.1112  0.0973 -0.1559
  824DOPS   D2A 9665   8.438  33.085  14.093  0.1918 -0.1265  0.0032
  824DOPS   C3A 9666   8.640  33.457  13.998 -0.0915 -0.0781 -0.1281
  824DOPS   C4A 9667   8.648  33.894  14.094 -0.0154 -0.1736  0.0627
  824DOPS   C1B 9668   7.929  32.607  14.644  0.0341 -0.3800 -0.2101
  824DOPS   D2B 9669   7.938  32.552  14.252  0.0772 -0.0192 -0.2401
  824DOPS   C3B 9670   8.130  32.758  13.866  0.0438 -0.2914  0.1084
  824DOPS   C4B 9671   8.185  32.569  13.486  0.1664 -0.0644  0.0527
  825DOPC   NC3 9672   5.727  26.259  16.215 -0.2211  0.0799  0.1197
  825DOPC   PO4 9673   5.368  26.304  16.315 -0.2598 -0.2405  0.0572
  825DOPC   GL1 9674   5.303  26.082  15.979 -0.3147  0.2403  0.1050
  825DOPC   GL2 9675   5.156  26.233  15.788 -0.1909 -0.2244  0.0959
  825DOPC   C1A 9676   5.558  25.978  15.576 -0.1065  0.6047 -0.1289
  825DOPC   D2A 9677   5.855  25.795  15.263  0.0121  0.2843  0.5502
  825DOPC   C3A 9678   5.847  25.797  14.790 -0.2836  0.0449 -0.1964
  825DOPC   C4A 9679   5.625  25.721  14.369 -0.2659 -0.2027 -0.2735
  825DOPC   C1B 9680   5.024  25.900  15.539  0.0410 -0.0164  0.1684
  825DOPC   D2B 9681   4.827  25.520  15.452 -0.2491  0.1084  0.0685
  825DOPC   C3B 9682   4.537  25.307  15.730 -0.0741  0.1152  0.3176
  825DOPC   C4B 9683   4.166  25.084  15.716 -0.0754  0.1226  0.0148
  826DOPE   NH3 9684   2.241  28.794  16.054  0.0454 -0.4159  0.3625
  826DOPE   PO4 9685   2.524  28.646  16.035 -0.1169 -0.0560 -0.4255
  826DOPE   GL1 9686   2.637  28.638  15.702 -0.0110  0.1253 -0.4465
  826DOPE   GL2 9687   2.871  28.608  15.576  0.0494  0.3011  0.1835
  826DOPE   C1A 9688   2.361  28.733  15.351 -0.2106 -0.4023 -0.0193
  826DOPE   D2A 9689   2.104  28.672  14.967 -0.0998 -0.1234  0.1220
  826DOPE   C3A 9690   1.970  28.678  14.523  0.1938  0.0116 -0.0550
  826DOPE   C4A 9691   2.029  28.653  14.093 -0.2128 -0.0098  0.0175
  826DOPE   C1B 9692   3.083  28.884  15.247 -0.1567 -0.0472 -0.1640
  826DOPE   D2B 9693   3.171  29.114  14.867  0.2556 -0.1707  0.1350
  826DOPE   C3B 9694   3.368  29.544  14.689  0.0870  0.1441  0.0561
  826DOPE   C4B 9695   3.642  29.938  14.804 -0.0731 -0.2195  0.1310
  827POSM   NC3 9696   9.082  32.381  15.841  0.0951  0.0784 -0.1119
  827POSM   PO4 9697   8.842  32.361  15.564 -0.0195  0.1296 -0.2836
  827POSM   AM1 9698   8.808  32.289  15.246  0.2237 -0.0654 -0.1709
  827POSM   AM2 9699   8.663  32.403  15.068 -0.0078  0.0940 -0.0494
  827POSM   T1A 9700   8.830  31.863  14.939  0.0411 -0.3716  0.0324
  827POSM   C2A 9701   8.752  31.555  14.598 -0.1548  0.1028  0.2732
  827POSM   C3A 9702   8.714  31.432  14.135  0.2234 -0.3393  0.3380
  827POSM   C1B 9703   8.846  32.318  14.784 -0.0446 -0.2058  0.1221
  827POSM   D2B 9704   8.916  32.484  14.365 -0.3846  0.1869 -0.0605
  827POSM   C3B 9705   9.189  32.340  14.026  0.3617  0.0390  0.0737
  827POSM   C4B 9706   9.499  32.182  13.683 -0.2835 -0.2794 -0.0997
  828DOPS   CNO 9707   6.058  34.246  16.008 -0.0892 -0.0274  0.1006
  828DOPS   PO4 9708   5.847  34.268  15.702  0.2136  0.0530 -0.0023
  828DOPS   GL1 9709   5.895  34.463  15.335  0.3289 -0.2709 -0.0772
  828DOPS   GL2 9710   5.706  34.416  15.169 -0.0901 -0.0787  0.2006
  828DOPS   C1A 9711   5.894  34.815  15.065  0.1907  0.0406  0.0510
  828DOPS   D2A 9712   5.764  35.188  14.806 -0.1622 -0.0571 -0.0629
  828DOPS   C3A 9713   5.673  35.117  14.383  0.2387 -0.0089  0.0549
  828DOPS   C4A 9714   5.550  35.037  13.884 -0.1925 -0.0798 -0.0237
  828DOPS   C1B 9715   5.256  34.418  14.923  0.1558  0.0006 -0.2466
  828DOPS   D2B 9716   5.117  34.541  14.545 -0.1556 -0.2367  0.1472
  828DOPS   C3B 9717   4.753  34.328  14.314  0.0252  0.1035  0.2521
  828DOPS   C4B 9718   4.700  34.204  13.902  0.1809  0.3000 -0.1140
  829DOPC   NC3 9719  11.450  26.227  14.948 -0.1547  0.1935 -0.3004
  829DOPC   PO4 9720  11.243  26.185  15.278  0.1932 -0.0482 -0.2772
  829DOPC   GL1 9721  11.004  26.025  14.918 -0.2442  0.1427  0.5867
  829DOPC   GL2 9722  10.703  26.137  14.980  0.1244 -0.0587 -0.0949
  829DOPC   C1A 9723  10.840  25.593  14.988 -0.0831 -0.2373 -0.0645
  829DOPC   D2A 9724  10.613  25.243  15.204  0.4273  0.0257 -0.1899
  829DOPC   C3A 9725  10.244  25.206  14.969  0.0320 -0.0749 -0.3311
  829DOPC   C4A 9726  10.000  25.417  14.657 -0.0167 -0.1138 -0.0092
  829DOPC   C1B 9727  10.193  26.086  14.904  0.0642  0.0292 -0.0324
  829DOPC   D2B 9728   9.754  25.913  14.794 -0.4188 -0.1225 -0.3883
  829DOPC   C3B 9729   9.526  25.533  14.837 -0.1450  0.1050 -0.2904
  829DOPC   C4B 9730   9.215  25.310  14.608 -0.0256  0.0888 -0.1872
  830DOPE   NH3 9731   6.340  27.707  16.546 -0.2454 -0.1304 -0.0809
  830DOPE   PO4 9732   6.365  27.889  16.266  0.0375 -0.0002 -0.3383
  830DOPE   GL1 9733   6.221  27.790  15.960 -0.1853  0.2673 -0.2612
  830DOPE   GL2 9734   6.073  28.049  15.812  0.0262  0.0479  0.2413
  830DOPE   C1A 9735   6.133  27.617  15.566 -0.1638 -0.2165 -0.0997
  830DOPE   D2A 9736   6.282  27.248  15.339  0.0126  0.0184  0.1534
  830DOPE   C3A 9737   6.469  27.180  14.974 -0.0404 -0.0510  0.4414
  830DOPE   C4A 9738   6.574  27.086  14.539  0.1069 -0.1933 -0.2151
  830DOPE   C1B 9739   5.728  28.313  15.656 -0.0732 -0.3068  0.0561
  830DOPE   D2B 9740   5.326  28.280  15.444 -0.2618 -0.0821 -0.1113
  830DOPE   C3B 9741   5.464  28.327  15.084 -0.0412  0.3371  0.0845
  830DOPE   C4B 9742   5.728  28.562  14.836 -0.1567  0.0957 -0.1064
  831DOPE   NH3 9743   5.714  28.216  16.178 -0.2209 -0.2418  0.1306
  831DOPE   PO4 9744   5.464  28.077  16.253  0.0086  0.1674 -0.2353
  831DOPE   GL1 9745   5.313  28.122  15.884  0.0180  0.3486  0.0765
  831DOPE   GL2 9746   5.002  28.210  15.812  0.1506 -0.1170  0.1833
  831DOPE   C1A 9747   5.048  27.790  15.602 -0.0392  0.1182  0.1109
  831DOPE   D2A 9748   4.718  27.725  15.258 -0.2085 -0.2452  0.0960
  831DOPE   C3A 9749   4.620  27.942  14.827 -0.1322 -0.1244  0.2330
  831DOPE   C4A 9750   4.574  28.270  14.505  0.2832  0.1815 -0.1854
  831DOPE   C1B 9751   4.737  28.189  15.425  0.0304 -0.0836  0.4615
  831DOPE   D2B 9752   4.931  28.358  15.097 -0.0489 -0.0639  0.3455
  831DOPE   C3B 9753   5.056  28.295  14.686 -0.0394 -0.1715 -0.1684
  831DOPE   C4B 9754   4.971  28.530  14.292  0.1439 -0.1879 -0.1890
  832DOPC   NC3 9755   8.368  34.029  15.646  0.2597  0.2432  0.1741
  832DOPC   PO4 9756   8.642  33.804  15.816  0.3321  0.0038  0.1813
  832DOPC   GL1 9757   8.458  33.550  15.425 -0.1937 -0.0609  0.0126
  832DOPC   GL2 9758   8.662  33.628  15.243  0.0249 -0.0456  0.0200
  832DOPC   C1A 9759   8.079  33.718  15.139 -0.1730 -0.1094  0.0910
  832DOPC   D2A 9760   7.655  33.576  15.106  0.2134 -0.1998  0.4806
  832DOPC   C3A 9761   7.454  33.772  14.742 -0.1578 -0.2095  0.1675
  832DOPC   C4A 9762   7.226  33.862  14.414 -0.1441  0.1245  0.0744
  832DOPC   C1B 9763   8.477  34.064  15.095  0.1159 -0.1919  0.3027
  832DOPC   D2B 9764   8.189  34.370  15.260  0.0437  0.2916 -0.0950
  832DOPC   C3B 9765   8.209  34.837  15.231 -0.3746 -0.1023 -0.0858
  832DOPC   C4B 9766   8.085  34.965  14.798 -0.0173  0.0374 -0.2444
  833POSM   NC3 9767   9.669  30.114  15.700  0.2333  0.1588 -0.1237
  833POSM   PO4 9768   9.562  30.348  15.983 -0.0918  0.0290  0.1599
  833POSM   AM1 9769   9.267  30.233  15.827  0.1528  0.1483 -0.0557
  833POSM   AM2 9770   9.140  30.008  15.777  0.0169 -0.2377 -0.0032
  833POSM   T1A 9771   9.003  30.231  15.423  0.1338  0.0198 -0.0128
  833POSM   C2A 9772   8.655  30.118  15.090  0.1648  0.1183  0.0490
  833POSM   C3A 9773   8.392  30.265  14.746 -0.1271 -0.1864 -0.1080
  833POSM   C1B 9774   9.230  29.775  15.546 -0.0590 -0.2947 -0.2422
  833POSM   D2B 9775   9.358  29.414  15.378 -0.1351  0.1397 -0.0566
  833POSM   C3B 9776   9.484  29.538  14.984  0.0163 -0.1366 -0.0464
  833POSM   C4B 9777   9.629  29.913  14.766 -0.1598  0.2219 -0.0953
  834DOPE   NH3 9778   0.899  32.629  16.335  0.2424 -0.1032 -0.1471
  834DOPE   PO4 9779   0.648  32.762  16.404  0.2825  0.0857 -0.1275
  834DOPE   GL1 9780   0.523  32.797  16.089 -0.1448  0.0603  0.1042
  834DOPE   GL2 9781   0.340  32.510  16.009 -0.3736  0.2499 -0.0629
  834DOPE   C1A 9782   0.742  32.572  15.747 -0.0992 -0.0435  0.1753
  834DOPE   D2A 9783   0.900  32.611  15.337 -0.1413 -0.3055 -0.2364
  834DOPE   C3A 9784   1.251  32.464  15.171  0.0915 -0.2746  0.0230
  834DOPE   C4A 9785   1.657  32.399  14.940 -0.1628  0.0743 -0.1284
  834DOPE   C1B 9786   0.276  32.775  15.669 -0.0030  0.0926 -0.0892
  834DOPE   D2B 9787   0.477  32.981  15.290 -0.1647 -0.3886 -0.3244
  834DOPE   C3B 9788   0.197  32.937  14.915 -0.0029  0.0268 -0.0543
  834DOPE   C4B 9789  -0.072  32.568  14.783  0.0964  0.0599  0.1400
  835DOPS   CNO 9790   5.011  24.283  16.251 -0.0279 -0.2080 -0.0942
  835DOPS   PO4 9791   4.697  24.506  16.242 -0.2234  0.1001 -0.1588
  835DOPS   GL1 9792   4.614  24.510  15.861 -0.4028 -0.4670  0.0028
  835DOPS   GL2 9793   4.909  24.557  15.716  0.0501  0.0862 -0.1468
  835DOPS   C1A 9794   4.488  24.295  15.514  0.0624  0.0451 -0.2884
  835DOPS   D2A 9795   4.204  24.390  15.147 -0.0621 -0.0412 -0.0511
  835DOPS   C3A 9796   4.226  24.761  14.837 -0.4204  0.1346 -0.0751
  835DOPS   C4A 9797   4.354  25.205  14.657 -0.1587  0.2951  0.1813
  835DOPS   C1B 9798   4.613  24.814  15.543 -0.2049  0.2593 -0.0922
  835DOPS   D2B 9799   4.263  24.960  15.256 -0.0847  0.2525  0.2893
  835DOPS   C3B 9800   4.372  25.402  15.101 -0.1406  0.0624 -0.3541
  835DOPS   C4B 9801   4.241  25.801  15.019  0.2752  0.2086  0.0965
  836POSM   NC3 9802   7.185  31.140  15.664 -0.1909 -0.2376 -0.2023
  836POSM   PO4 9803   7.152  31.442  15.938 -0.0308  0.1769  0.0617
  836POSM   AM1 9804   7.068  31.567  15.660 -0.2044 -0.1281  0.5471
  836POSM   AM2 9805   7.085  31.828  15.522  0.0264 -0.1313 -0.0488
  836POSM   T1A 9806   6.779  31.415  15.307  0.1221  0.2190 -0.0056
  836POSM   C2A 9807   6.399  31.248  15.155  0.0592  0.0305 -0.1362
  836POSM   C3A 9808   6.111  30.991  14.989 -0.4014 -0.0508  0.0825
  836POSM   C1B 9809   7.171  31.940  15.157 -0.1559  0.0440  0.0315
  836POSM   D2B 9810   7.197  31.965  14.692 -0.0416  0.2948 -0.0846
  836POSM   C3B 9811   6.964  31.846  14.347 -0.1870  0.0332  0.4780
  836POSM   C4B 9812   6.626  32.056  14.121 -0.0383  0.1303  0.0861
  837POSM   NC3 9813   5.356  30.310  16.858  0.2124  0.1380 -0.2453
  837POSM   PO4 9814   5.196  30.515  16.585 -0.0310  0.2120  0.3328
  837POSM   AM1 9815   5.193  30.652  16.282 -0.0843  0.2101 -0.0192
  837POSM   AM2 9816   5.281  30.562  16.063 -0.2995 -0.1850 -0.0885
  837POSM   T1A 9817   5.200  31.030  15.941 -0.1383  0.0909  0.2308
  837POSM   C2A 9818   5.095  31.421  15.750  0.3277  0.1664 -0.0050
  837POSM   C3A 9819   4.797  31.710  15.582  0.2339 -0.0489  0.1046
  837POSM   C1B 9820   5.099  30.554  15.768  0.1700  0.1395 -0.1592
  837POSM   D2B 9821   4.768  30.792  15.566 -0.0267 -0.0546 -0.1415
  837POSM   C3B 9822   4.738  31.255  15.437  0.1501 -0.1961 -0.1254
  837POSM   C4B 9823   4.741  31.551  15.123 -0.3321  0.2436 -0.1109
  838DOPC   NC3 9824   3.389  23.485  16.034  0.1131  0.3048 -0.2198
  838DOPC   PO4 9825   3.134  23.662  16.259 -0.1779  0.1223  0.1467
  838DOPC   GL1 9826   2.932  23.952  16.033 -0.0285  0.0032 -0.0937
  838DOPC   GL2 9827   2.927  23.750  15.790  0.2967  0.0866 -0.0889
  838DOPC   C1A 9828   2.715  24.205  15.704 -0.0020 -0.4890 -0.0072
  838DOPC   D2A 9829   2.758  24.262  15.184  0.4249 -0.1590 -0.2182
  838DOPC   C3A 9830   2.509  24.024  14.894 -0.2027 -0.1569 -0.0707
  838DOPC   C4A 9831   2.201  23.822  14.601 -0.0202 -0.2009 -0.0922
  838DOPC   C1B 9832   3.180  23.463  15.529  0.0208  0.0870  0.1161
  838DOPC   D2B 9833   3.233  23.329  15.094  0.1420  0.0147 -0.0427
  838DOPC   C3B 9834   3.072  23.348  14.704 -0.1692 -0.0557 -0.1774
  838DOPC   C4B 9835   2.850  23.752  14.602 -0.0613 -0.4383  0.0857
  839DOPS   CNO 9836   8.149  27.655  16.058  0.0893 -0.1042  0.0792
  839DOPS   PO4 9837   8.109  27.408  15.747  0.0403 -0.1842  0.0371
  839DOPS   GL1 9838   7.764  27.512  15.626 -0.0529  0.0418  0.0894
  839DOPS   GL2 9839   7.608  27.591  15.752  0.1527 -0.2802  0.1745
  839DOPS   C1A 9840   7.770  27.424  15.152 -0.0304  0.1211  0.0330
  839DOPS   D2A 9841   7.504  27.134  14.853  0.3363 -0.1079  0.0797
  839DOPS   C3A 9842   7.333  26.743  15.033 -0.0233  0.3445  0.2329
  839DOPS   C4A 9843   7.048  26.375  15.079 -0.2786  0.2969  0.0531
  839DOPS   C1B 9844   7.592  27.890  15.407 -0.1653  0.2337 -0.0576
  839DOPS   D2B 9845   7.420  28.016  14.990  0.0050 -0.0600 -0.0356
  839DOPS   C3B 9846   7.453  27.654  14.733  0.1349  0.1133 -0.0977
  839DOPS   C4B 9847   7.699  27.520  14.352 -0.1738 -0.2402  0.1160
  840DOPE   NH3 9848   9.523  32.906  15.127 -0.6136 -0.0188  0.0812
  840DOPE   PO4 9849   9.436  33.109  15.351 -0.0671  0.3016 -0.2556
  840DOPE   GL1 9850   9.330  33.326  15.042 -0.1373  0.3370  0.3006
  840DOPE   GL2 9851   9.111  33.231  14.887  0.1447 -0.1001  0.0617
  840DOPE   C1A 9852   9.362  33.629  14.684  0.3385 -0.0359 -0.3457
  840DOPE   D2A 9853   9.504  33.768  14.303 -0.0689  0.2860 -0.1810
  840DOPE   C3A 9854   9.932  33.825  14.134 -0.3188  0.2213 -0.0054
  840DOPE   C4A 9855  10.400  33.911  14.039  0.0013  0.2569 -0.2085
  840DOPE   C1B 9856   8.914  33.052  14.483  0.1701  0.0671 -0.0329
  840DOPE   D2B 9857   8.949  32.967  14.018  0.0086  0.1833 -0.2179
  840DOPE   C3B 9858   8.627  32.995  13.620  0.0033 -0.2755 -0.1023
  840DOPE   C4B 9859   8.219  33.053  13.465 -0.0264 -0.0285 -0.1595
  841POSM   NC3 9860  10.044  29.930  16.017 -0.2015 -0.1053 -0.2447
  841POSM   PO4 9861   9.692  29.825  16.133 -0.0802  0.2423 -0.6298
  841POSM   AM1 9862   9.596  29.633  15.901 -0.0810 -0.0200 -0.4219
  841POSM   AM2 9863   9.703  29.640  15.628  0.0648 -0.2823  0.1878
  841POSM   T1A 9864   9.696  29.178  15.696  0.0428 -0.4086  0.0324
  841POSM   C2A 9865   9.756  28.843  15.389  0.0194 -0.0068  0.0221
  841POSM   C3A 9866  10.030  28.678  15.009  0.0618  0.3628  0.1190
  841POSM   C1B 9867   9.847  29.472  15.327  0.1835 -0.1384  0.2090
  841POSM   D2B 9868   9.817  29.197  14.940  0.1792  0.0471 -0.0144
  841POSM   C3B 9869   9.553  29.393  14.543  0.1555  0.0851 -0.2270
  841POSM   C4B 9870   9.600  29.660  14.181 -0.0129  0.3119 -0.1103
  842POSM   NC3 9871  11.685  24.531  15.782  0.0601 -0.3057  0.1254
  842POSM   PO4 9872  11.591  24.877  15.916  0.0138  0.0170  0.0861
  842POSM   AM1 9873  11.473  24.926  15.597 -0.1055  0.0387  0.1542
  842POSM   AM2 9874  11.345  25.125  15.429  0.0237  0.0437  0.1133
  842POSM   T1A 9875  11.177  24.617  15.322 -0.1564 -0.2664 -0.1434
  842POSM   C2A 9876  10.857  24.488  15.051  0.2872  0.4487  0.0323
  842POSM   C3A 9877  10.522  24.700  14.867 -0.0543 -0.2241  0.1407
  842POSM   C1B 9878  11.119  25.095  15.154 -0.2234  0.2320 -0.0027
  842POSM   D2B 9879  10.912  24.995  14.731  0.0001 -0.1427 -0.2126
  842POSM   C3B 9880  10.567  24.935  14.416 -0.1660  0.1999  0.0306
  842POSM   C4B 9881  10.164  24.861  14.332  0.1670 -0.2822  0.2065
  843DOPC   NC3 9882   1.266  30.920  17.007 -0.1606 -0.3351 -0.1025
  843DOPC   PO4 9883   1.205  31.283  16.869 -0.0168 -0.2932 -0.0767
  843DOPC   GL1 9884   1.156  31.387  16.465 -0.0398  0.0313 -0.6015
  843DOPC   GL2 9885   1.324  31.508  16.294  0.0190  0.0035 -0.1258
  843DOPC   C1A 9886   0.842  31.192  16.168  0.0697  0.0123  0.2837
  843DOPC   D2A 9887   0.692  30.992  15.760 -0.1952 -0.2923 -0.1770
  843DOPC   C3A 9888   0.557  31.268  15.414 -0.4110 -0.3773  0.0064
  843DOPC   C4A 9889   0.847  31.599  15.180  0.1287  0.3555 -0.1453
  843DOPC   C1B 9890   1.547  31.645  15.941 -0.0379  0.0023 -0.0132
  843DOPC   D2B 9891   1.629  32.059  15.921 -0.0350  0.0596 -0.0562
  843DOPC   C3B 9892   2.035  32.238  15.860 -0.2557 -0.0360  0.2967
  843DOPC   C4B 9893   2.493  32.372  15.868  0.2194 -0.1272 -0.1016
  844DOPC   NC3 9894   0.672  25.597  15.394 -0.3198  0.0677 -0.2300
  844DOPC   PO4 9895   1.027  25.475  15.490 -0.0027 -0.1776  0.0826
  844DOPC   GL1 9896   1.174  25.571  15.209  0.4121 -0.2233 -0.3376
  844DOPC   GL2 9897   1.316  25.306  15.115  0.0821  0.3239  0.0842
  844DOPC   C1A 9898   1.253  25.769  14.853 -0.0340  0.0539  0.0389
  844DOPC   D2A 9899   1.171  26.172  14.625 -0.3724  0.1222  0.1374
  844DOPC   C3A 9900   1.440  26.541  14.506 -0.1275  0.0603  0.1221
  844DOPC   C4A 9901   1.346  26.863  14.266  0.0353 -0.1855 -0.2979
  844DOPC   C1B 9902   1.453  25.351  14.692 -0.0366 -0.5479  0.2420
  844DOPC   D2B 9903   1.351  25.533  14.302 -0.3220  0.0006 -0.0903
  844DOPC   C3B 9904   1.507  25.719  13.844  0.0721  0.2134 -0.1496
  844DOPC   C4B 9905   1.423  25.749  13.400 -0.0509  0.1312  0.3691
  845POSM   NC3 9906   5.909  23.895  16.084  0.1538  0.1972  0.0284
  845POSM   PO4 9907   5.948  23.562  16.178 -0.1617  0.2622  0.2333
  845POSM   AM1 9908   6.174  23.484  15.953  0.2056 -0.0679 -0.0281
  845POSM   AM2 9909   6.174  23.636  15.688 -0.0685  0.1905 -0.3089
  845POSM   T1A 9910   6.374  23.216  15.576 -0.4317 -0.1259 -0.3197
  845POSM   C2A 9911   6.387  23.063  15.123  0.0409 -0.0937 -0.1698
  845POSM   C3A 9912   6.143  22.804  14.827  0.2003  0.0990 -0.0877
  845POSM   C1B 9913   6.244  23.606  15.325  0.0638 -0.0227  0.3329
  845POSM   D2B 9914   6.436  23.557  14.903 -0.0198 -0.0372 -0.0076
  845POSM   C3B 9915   6.542  23.891  14.595 -0.0408  0.1354 -0.1440
  845POSM   C4B 9916   6.535  24.261  14.271  0.0010  0.0220 -0.0141
  846POSM   NC3 9917  11.851  28.160  15.689 -0.4525 -0.0884 -0.3142
  846POSM   PO4 9918  11.516  28.401  15.685  0.1439  0.0145  0.2747
  846POSM   AM1 9919  11.396  28.493  15.384 -0.4254  0.1344  0.0365
  846POSM   AM2 9920  11.359  28.744  15.246 -0.8153  0.2166  0.0199
  846POSM   T1A 9921  11.180  28.471  14.908 -0.4112  0.1778  0.1953
  846POSM   C2A 9922  11.014  28.201  14.605  0.5165 -0.1752  0.1898
  846POSM   C3A 9923  10.937  27.831  14.298  0.2516  0.0021 -0.1213
  846POSM   C1B 9924  11.459  28.927  14.984 -0.1457 -0.0349 -0.3325
  846POSM   D2B 9925  11.328  29.290  14.780 -0.0548 -0.2576 -0.1394
  846POSM   C3B 9926  11.368  29.246  14.286  0.1282 -0.2622  0.2196
  846POSM   C4B 9927  11.283  29.400  13.893 -0.2202  0.0631  0.2791
  847DOPE   NH3 9928  10.039  34.522  15.425 -0.0095 -0.0376 -0.1993
  847DOPE   PO4 9929   9.935  34.193  15.382  0.0230 -0.0672  0.1235
  847DOPE   GL1 9930   9.928  33.771  15.230  0.2145 -0.4849 -0.0835
  847DOPE   GL2 9931   9.735  33.542  15.157 -0.2257  0.0028 -0.1337
  847DOPE   C1A 9932  10.144  33.627  14.869 -0.0342 -0.2906 -0.2430
  847DOPE   D2A 9933  10.084  33.521  14.428  0.1898 -0.0897  0.0281
  847DOPE   C3A 9934  10.387  33.367  14.092 -0.0451  0.1526 -0.1734
  847DOPE   C4A 9935  10.407  33.191  13.657  0.1546  0.1093  0.1826
  847DOPE   C1B 9936   9.753  33.312  14.757  0.1070  0.0413 -0.0265
  847DOPE   D2B 9937   9.496  33.224  14.383  0.1614  0.2630 -0.1809
  847DOPE   C3B 9938   9.381  33.277  14.017  0.3136 -0.1916 -0.2437
  847DOPE   C4B 9939   9.116  33.285  13.650 -0.1054  0.1636  0.3444
  848DOPC   NC3 9940   6.532  33.683  15.337  0.0844  0.1475 -0.2269
  848DOPC   PO4 9941   6.585  33.437  15.666 -0.0801  0.1195  0.0669
  848DOPC   GL1 9942   6.649  33.237  15.341 -0.0100  0.4561 -0.4363
  848DOPC   GL2 9943   6.935  33.340  15.264 -0.1454 -0.1840  0.1438
  848DOPC   C1A 9944   6.612  33.218  14.895 -0.1727  0.2727 -0.4646
  848DOPC   D2A 9945   6.477  33.347  14.485 -0.0067 -0.0317  0.1154
  848DOPC   C3A 9946   6.453  33.179  14.011 -0.2233  0.0221  0.1749
  848DOPC   C4A 9947   6.306  32.930  13.671  0.3377  0.0337  0.0263
  848DOPC   C1B 9948   7.066  32.932  15.006  0.0534 -0.1627  0.2552
  848DOPC   D2B 9949   7.126  32.687  14.612  0.0122 -0.0203 -0.0057
  848DOPC   C3B 9950   7.524  32.769  14.391  0.1205 -0.0331 -0.0018
  848DOPC   C4B 9951   7.879  33.005  14.372  0.1135  0.0501 -0.0681
  849DOPE   NH3 9952   7.864  29.780  16.412  0.3072  0.1935  0.0520
  849DOPE   PO4 9953   7.984  29.609  16.155 -0.0854 -0.0989  0.0716
  849DOPE   GL1 9954   7.789  29.536  15.865 -0.2391  0.3105  0.5191
  849DOPE   GL2 9955   7.712  29.318  15.788 -0.2132 -0.0071  0.3076
  849DOPE   C1A 9956   7.791  29.791  15.484  0.1568 -0.2222  0.0334
  849DOPE   D2A 9957   7.556  30.070  15.332  0.0933  0.1683 -0.0132
  849DOPE   C3A 9958   7.350  30.022  14.943 -0.0639  0.0938  0.0316
  849DOPE   C4A 9959   7.062  29.984  14.595  0.2279 -0.0201  0.0593
  849DOPE   C1B 9960   7.437  29.410  15.452  0.1654  0.0679  0.1140
  849DOPE   D2B 9961   7.042  29.197  15.204  0.0428  0.2805  0.1274
  849DOPE   C3B 9962   7.136  28.973  14.825 -0.4428 -0.1649 -0.0026
  849DOPE   C4B 9963   6.757  28.904  14.525  0.0543 -0.2214 -0.2412
  850DOPE   NH3 9964  10.833  26.533  15.371 -0.1638 -0.0742 -0.1010
  850DOPE   PO4 9965  10.619  26.600  15.147  0.0473 -0.1170 -0.0412
  850DOPE   GL1 9966  10.416  26.528  14.752  0.1038  0.0599 -0.4383
  850DOPE   GL2 9967  10.650  26.475  14.625  0.1490  0.0485  0.1477
  850DOPE   C1A 9968  10.222  26.231  14.454  0.0683 -0.2846 -0.0576
  850DOPE   D2A 9969  10.012  25.814  14.373 -0.0854 -0.1312 -0.0501
  850DOPE   C3A 9970   9.528  25.787  14.359 -0.0608 -0.1041 -0.0061
  850DOPE   C4A 9971   9.299  25.546  14.091  0.0292  0.1607 -0.0306
  850DOPE   C1B 9972  10.400  26.764  14.344  0.0558 -0.2559  0.0145
  850DOPE   D2B 9973  10.477  27.182  14.342 -0.3146 -0.2938  0.0937
  850DOPE   C3B 9974  10.859  27.340  14.122 -0.2580  0.0411  0.1427
  850DOPE   C4B 9975  10.805  27.459  13.692 -0.6045  0.3596  0.1535
  851DOPE   NH3 9976   6.917  25.957  16.184  0.1531  0.0128 -0.2063
  851DOPE   PO4 9977   7.119  25.872  15.969 -0.0193  0.0713  0.0648
  851DOPE   GL1 9978   6.988  26.044  15.654  0.2127  0.3588 -0.5580
  851DOPE   GL2 9979   7.236  26.125  15.561  0.4385  0.0604  0.2247
  851DOPE   C1A 9980   6.809  25.882  15.224 -0.0138 -0.0563  0.0331
  851DOPE   D2A 9981   6.829  25.696  14.773  0.4322 -0.0562  0.0994
  851DOPE   C3A 9982   6.837  25.950  14.335  0.0684 -0.0090 -0.2336
  851DOPE   C4A 9983   6.956  25.772  13.873  0.0304  0.1793  0.0460
  851DOPE   C1B 9984   7.469  26.064  15.128 -0.1611 -0.0032 -0.2425
  851DOPE   D2B 9985   7.214  26.091  14.712 -0.0808 -0.1123  0.0760
  851DOPE   C3B 9986   7.310  25.983  14.259 -0.2265 -0.1080  0.1237
  851DOPE   C4B 9987   7.428  25.657  13.948 -0.0122  0.2146  0.2132
  852DOPS   CNO 9988   1.152  28.007  15.934  0.1750  0.1514  0.0513
  852DOPS   PO4 9989   1.083  28.366  16.041 -0.1605 -0.1255 -0.1356
  852DOPS   GL1 9990   1.346  28.541  15.905  0.2307  0.3495  0.3141
  852DOPS   GL2 9991   1.552  28.357  15.810  0.1569  0.1998 -0.1179
  852DOPS   C1A 9992   1.359  28.797  15.541  0.0879  0.0614  0.0035
  852DOPS   D2A 9993   1.592  28.916  15.141  0.1887  0.0442  0.1108
  852DOPS   C3A 9994   1.644  29.004  14.642 -0.1335  0.0726  0.1523
  852DOPS   C4A 9995   1.374  29.238  14.299  0.0289 -0.0504  0.0852
  852DOPS   C1B 9996   1.305  28.309  15.415  0.1921 -0.4330 -0.1180
  852DOPS   D2B 9997   0.977  28.145  15.118 -0.3306  0.3456  0.0781
  852DOPS   C3B 9998   0.828  28.427  14.786 -0.1420  0.0326  0.3065
  852DOPS   C4B 9999   0.683  28.578  14.377  0.2418 -0.1850 -0.0093
  853DOPE   NH310000   6.489  30.005  15.914  0.2830 -0.4529  0.3316
  853DOPE   PO410001   6.605  30.288  15.945  0.0003  0.0862 -0.1892
  853DOPE   GL110002   6.810  30.442  15.572 -0.0286 -0.0157 -0.0311
  853DOPE   GL210003   6.764  30.124  15.469  0.1100  0.0098  0.0095
  853DOPE   C1A10004   6.861  30.871  15.362  0.2643  0.2729 -0.1951
  853DOPE   D2A10005   6.750  31.015  14.915 -0.1323 -0.3744 -0.3059
  853DOPE   C3A10006   6.397  31.213  14.641  0.2347  0.1190  0.1835
  853DOPE   C4A10007   5.949  31.414  14.757  0.2058  0.0235  0.2533
  853DOPE   C1B10008   6.712  30.050  14.963  0.3085  0.1410  0.2131
  853DOPE   D2B10009   6.469  29.942  14.574 -0.0722 -0.4175 -0.1152
  853DOPE   C3B10010   6.168  29.998  14.198  0.2007  0.2765 -0.5577
  853DOPE   C4B10011   6.149  30.297  13.790 -0.0307 -0.0142 -0.0796
  854DOPE   NH310012   4.338  29.432  15.870  0.4037 -0.0896 -0.0354
  854DOPE   PO410013   4.184  29.705  15.936 -0.2540  0.0878  0.3668
  854DOPE   GL110014   3.888  29.705  15.688 -0.0445 -0.1384  0.0524
  854DOPE   GL210015   4.093  29.688  15.423 -0.1741  0.2354  0.1047
  854DOPE   C1A10016   3.727  29.974  15.335 -0.0337 -0.1284  0.0094
  854DOPE   D2A10017   3.365  30.188  15.133  0.0356  0.1530  0.0553
  854DOPE   C3A10018   3.022  29.991  14.863 -0.0002  0.3696  0.2300
  854DOPE   C4A10019   2.719  29.758  14.604 -0.0687  0.1528  0.0197
  854DOPE   C1B10020   4.157  29.878  15.017 -0.2763  0.2494 -0.4322
  854DOPE   D2B10021   4.431  29.866  14.603 -0.2555 -0.0362  0.3693
  854DOPE   C3B10022   4.654  29.542  14.389  0.0825  0.2872  0.0411
  854DOPE   C4B10023   4.640  29.408  13.933 -0.1459 -0.2192 -0.0047
  855POSM   NC310024   3.876  23.134  16.505  0.0017 -0.1525  0.0455
  855POSM   PO410025   3.758  23.491  16.372  0.2439 -0.3114 -0.2703
  855POSM   AM110026   3.829  23.358  16.070 -0.0631 -0.1490 -0.0946
  855POSM   AM210027   3.851  23.575  15.838  0.0905  0.0820 -0.0342
  855POSM   T1A10028   3.614  23.153  15.709  0.0208  0.3089  0.3554
  855POSM   C2A10029   3.688  22.739  15.542 -0.2935 -0.2309 -0.1204
  855POSM   C3A10030   3.585  22.291  15.465 -0.0214 -0.2692 -0.2072
  855POSM   C1B10031   3.695  23.819  15.691 -0.0046 -0.0559  0.1377
  855POSM   D2B10032   3.647  24.259  15.688  0.2090  0.1223 -0.1052
  855POSM   C3B10033   3.521  24.344  15.286 -0.1625 -0.2016 -0.2396
  855POSM   C4B10034   3.749  24.329  14.867 -0.0088 -0.1037  0.3880
  856POSM   NC310035   5.032  26.609  16.185 -0.1572 -0.1385 -0.3660
  856POSM   PO410036   5.127  26.953  16.276 -0.0363 -0.0454 -0.3073
  856POSM   AM110037   5.001  27.031  15.979  0.0624  0.0283  0.3227
  856POSM   AM210038   4.852  26.962  15.724 -0.0312 -0.2861 -0.0484
  856POSM   T1A10039   5.214  27.260  15.617  0.1575  0.0324  0.0435
  856POSM   C2A10040   5.512  27.290  15.271  0.1343 -0.0341 -0.1822
  856POSM   C3A10041   5.874  27.512  14.993  0.0696  0.2380  0.1938
  856POSM   C1B10042   4.940  26.724  15.523  0.5852 -0.3283  0.2036
  856POSM   D2B10043   4.999  26.371  15.222 -0.0751 -0.2205  0.0664
  856POSM   C3B10044   5.200  26.445  14.770 -0.4266  0.2730 -0.1747
  856POSM   C4B10045   5.396  26.105  14.503  0.2822  0.0674  0.1796
  857DOPC   NC310046   5.833  29.355  15.830  0.3158 -0.0054 -0.2016
  857DOPC   PO410047   6.170  29.586  15.933 -0.2257  0.1391 -0.1169
  857DOPC   GL110048   6.235  29.589  15.584 -0.0983  0.1834 -0.0891
  857DOPC   GL210049   6.311  29.818  15.492 -0.0304 -0.0970 -0.1594
  857DOPC   C1A10050   5.904  29.584  15.191 -0.1716  0.0984  0.0331
  857DOPC   D2A10051   5.963  29.898  14.852 -0.0614 -0.0792 -0.1080
  857DOPC   C3A10052   5.762  29.886  14.449 -0.1677 -0.0690 -0.1032
  857DOPC   C4A10053   5.903  29.608  14.205  0.2297 -0.0049 -0.1964
  857DOPC   C1B10054   6.167  30.179  15.232  0.0581 -0.0421 -0.2166
  857DOPC   D2B10055   6.213  30.405  14.829 -0.0966  0.1001 -0.0490
  857DOPC   C3B10056   5.869  30.405  14.541 -0.0336 -0.3001 -0.4335
  857DOPC   C4B10057   5.645  30.360  14.125  0.2839  0.2392  0.1379
  858DOPC   NC310058   3.689  32.552  15.966  0.1607  0.1135  0.1691
  858DOPC   PO410059   3.873  32.448  16.329 -0.1072  0.3105  0.1524
  858DOPC   GL110060   3.969  32.124  16.004 -0.0460  0.0801 -0.2790
  858DOPC   GL210061   4.236  32.297  15.969 -0.1244  0.3419 -0.1493
  858DOPC   C1A10062   4.116  31.695  15.870  0.2942 -0.1111  0.0642
  858DOPC   D2A10063   4.302  31.338  15.561 -0.2820 -0.1273  0.0204
  858DOPC   C3A10064   4.228  31.287  15.112  0.0227 -0.0285 -0.3271
  858DOPC   C4A10065   3.899  31.493  14.851  0.3288 -0.1071  0.2456
  858DOPC   C1B10066   4.163  32.138  15.548  0.0158 -0.0059 -0.1256
  858DOPC   D2B10067   4.360  31.767  15.333 -0.1780  0.2184 -0.2181
  858DOPC   C3B10068   4.324  31.764  14.880  0.3382  0.1477  0.2077
  858DOPC   C4B10069   4.292  32.018  14.505  0.1612 -0.0394 -0.1700
  859POSM   NC310070   2.573  33.130  16.431  0.2003 -0.1461  0.1077
  859POSM   PO410071   2.763  33.337  16.140 -0.0065  0.0192 -0.3208
  859POSM   AM110072   2.855  33.208  15.847 -0.1388  0.1082  0.4328
  859POSM   AM210073   3.072  33.281  15.680 -0.2076  0.1683  0.4098
  859POSM   T1A10074   2.654  33.044  15.384 -0.1227  0.0261 -0.2141
  859POSM   C2A10075   2.517  32.996  14.933  0.0081  0.0659  0.1465
  859POSM   C3A10076   2.159  32.835  14.613  0.1373 -0.1341  0.1221
  859POSM   C1B10077   3.202  32.976  15.559 -0.0737 -0.0831  0.3880
  859POSM   D2B10078   3.318  32.661  15.268 -0.1031 -0.0780 -0.1095
  859POSM   C3B10079   3.190  32.772  14.793 -0.0640 -0.0895 -0.0039
  859POSM   C4B10080   3.026  32.621  14.367  0.0298  0.0040  0.0786
  860DOPC   NC310081   8.481  25.574  15.950  0.2666  0.1488 -0.0772
  860DOPC   PO410082   8.613  25.200  16.011  0.0049  0.2800  0.1664
  860DOPC   GL110083   8.711  25.222  15.647 -0.0800 -0.2802  0.0806
  860DOPC   GL210084   8.435  25.305  15.508 -0.3794  0.1501  0.2275
  860DOPC   C1A10085   8.903  25.236  15.247  0.0157  0.0502 -0.2013
  860DOPC   D2A10086   8.707  25.244  14.787 -0.0158  0.3938 -0.3783
  860DOPC   C3A10087   8.860  24.950  14.464 -0.0821  0.1016  0.0330
  860DOPC   C4A10088   8.897  24.616  14.149 -0.1455 -0.3224 -0.1813
  860DOPC   C1B10089   8.352  25.062  15.105  0.1024  0.1405 -0.1716
  860DOPC   D2B10090   8.247  25.052  14.619 -0.0336  0.0158 -0.0540
  860DOPC   C3B10091   8.487  25.397  14.307  0.1428  0.2390 -0.0237
  860DOPC   C4B10092   8.463  25.655  13.909  0.1246  0.2024 -0.1497
  861POSM   NC310093   0.323  31.132  16.159 -0.1444  0.0669  0.3082
  861POSM   PO410094  -0.045  30.911  16.171  0.1316 -0.3346 -0.1577
  861POSM   AM110095  -0.010  30.990  15.862 -0.3887 -0.2691  0.1850
  861POSM   AM210096   0.038  31.193  15.678 -0.0351 -0.0460 -0.0767
  861POSM   T1A10097   0.193  30.790  15.447 -0.1298  0.0060  0.0390
  861POSM   C2A10098   0.147  30.449  15.108  0.1311  0.1052 -0.2673
  861POSM   C3A10099   0.296  30.226  14.741 -0.2852  0.1664  0.2972
  861POSM   C1B10100   0.010  31.267  15.353 -0.0627 -0.1943 -0.2180
  861POSM   D2B10101   0.177  31.033  14.933  0.4291  0.1628  0.0143
  861POSM   C3B10102   0.601  31.054  14.934  0.0509  0.0323 -0.2548
  861POSM   C4B10103   0.997  31.264  14.839  0.1943 -0.0253 -0.1294
  862DOPC   NC310104   2.704  27.811  16.715  0.0698  0.0310 -0.2189
  862DOPC   PO410105   2.759  27.699  16.362 -0.0215 -0.1106 -0.1415
  862DOPC   GL110106   2.633  27.772  15.927 -0.6579 -0.0214  0.5561
  862DOPC   GL210107   2.446  27.971  15.941  0.3738  0.4259 -0.2498
  862DOPC   C1A10108   2.709  28.018  15.505  0.2757  0.3381  0.2531
  862DOPC   D2A10109   2.928  28.214  15.161 -0.0414 -0.0433  0.1404
  862DOPC   C3A10110   2.774  28.542  14.829  0.3055  0.0381 -0.1933
  862DOPC   C4A10111   2.431  28.538  14.485 -0.3141 -0.4693 -0.0849
  862DOPC   C1B10112   2.209  28.065  15.548 -0.1721 -0.1966 -0.1418
  862DOPC   D2B10113   2.158  28.193  15.046  0.0792 -0.0864  0.0277
  862DOPC   C3B10114   2.496  28.128  14.771 -0.0408  0.2933 -0.0990
  862DOPC   C4B10115   2.703  28.035  14.352 -0.3271 -0.1261  0.3636
  863POSM   NC310116   1.656  33.660  15.829  0.1803  0.1213  0.1938
  863POSM   PO410117   1.405  33.819  16.131 -0.0801  0.4609  0.1613
  863POSM   AM110118   1.318  34.010  15.916  0.0327 -0.2402  0.0149
  863POSM   AM210119   1.395  34.088  15.710  0.1976 -0.0883  0.1341
  863POSM   T1A10120   0.962  34.158  15.573 -0.1802 -0.2026 -0.1332
  863POSM   C2A10121   0.442  34.201  15.509  0.2753  0.0208  0.0961
  863POSM   C3A10122   0.060  34.299  15.251 -0.1341  0.1633 -0.2100
  863POSM   C1B10123   1.425  34.160  15.405 -0.1483 -0.0026 -0.0803
  863POSM   D2B10124   1.125  34.361  15.044 -0.2077  0.2758  0.0912
  863POSM   C3B10125   0.831  34.113  14.853  0.0297  0.1296  0.0191
  863POSM   C4B10126   0.403  33.924  14.884  0.0028  0.0619  0.1957
  864DOPE   NH310127   3.340  30.036  16.312 -0.2517  0.2548 -0.1779
  864DOPE   PO410128   3.072  29.936  16.185  0.1715 -0.1776 -0.2981
  864DOPE   GL110129   2.975  30.163  15.826  0.2173 -0.0027 -0.3889
  864DOPE   GL210130   2.954  29.903  15.707  0.0843  0.6629  0.1035
  864DOPE   C1A10131   3.362  30.333  15.575 -0.1342 -0.0635 -0.2802
  864DOPE   D2A10132   3.776  30.563  15.416  0.0501 -0.0194  0.1749
  864DOPE   C3A10133   3.864  30.334  15.031 -0.1541  0.1409 -0.0286
  864DOPE   C4A10134   3.965  30.285  14.589 -0.0199  0.2529 -0.0143
  864DOPE   C1B10135   2.917  30.141  15.309 -0.0356 -0.0681  0.0705
  864DOPE   D2B10136   3.095  30.597  15.222 -0.2387 -0.1274  0.1443
  864DOPE   C3B10137   3.505  30.669  14.998 -0.1208  0.0732 -0.3317
  864DOPE   C4B10138   3.555  31.105  14.862 -0.0652  0.1178  0.0783
  865DOPC   NC310139  11.057  25.617  15.513 -0.0385 -0.0367  0.1098
  865DOPC   PO410140  10.900  25.288  15.701 -0.0599  0.0973 -0.0555
  865DOPC   GL110141  10.504  25.355  15.674 -0.1859 -0.0156 -0.1621
  865DOPC   GL210142  10.545  25.663  15.663  0.1075  0.1233 -0.3365
  865DOPC   C1A10143  10.109  25.135  15.596  0.1204 -0.0640  0.0955
  865DOPC   D2A10144   9.706  24.867  15.643  0.0552 -0.0264  0.3524
  865DOPC   C3A10145   9.579  24.745  15.195 -0.0896  0.0008 -0.0341
  865DOPC   C4A10146   9.283  25.079  15.030 -0.2034  0.3180  0.1212
  865DOPC   C1B10147  10.412  25.677  15.229  0.2837 -0.2126  0.0144
  865DOPC   D2B10148  10.390  25.686  14.729  0.0995  0.0229 -0.4423
  865DOPC   C3B10149  10.650  25.933  14.390 -0.1687  0.0560  0.1297
  865DOPC   C4B10150  10.990  26.055  14.067 -0.0620  0.0333  0.3473
  866DOPC   NC310151   6.475  24.428  16.270 -0.0205  0.0996 -0.0590
  866DOPC   PO410152   6.369  24.045  16.113  0.1840 -0.4577  0.0205
  866DOPC   GL110153   6.575  24.231  15.725  0.0763 -0.1236 -0.0313
  866DOPC   GL210154   6.773  24.009  15.776  0.3630 -0.0834 -0.0874
  866DOPC   C1A10155   6.824  24.160  15.338  0.5023 -0.1736  0.0523
  866DOPC   D2A10156   6.921  23.906  14.926  0.0929  0.0774  0.3887
  866DOPC   C3A10157   6.996  24.048  14.481 -0.1990  0.0247  0.0488
  866DOPC   C4A10158   7.115  23.818  14.081 -0.1471  0.0706  0.0621
  866DOPC   C1B10159   6.766  23.679  15.461 -0.0946  0.1007  0.1499
  866DOPC   D2B10160   6.827  23.365  15.120  0.2084 -0.0399 -0.3431
  866DOPC   C3B10161   7.103  23.118  14.837  0.2160 -0.0396 -0.4490
  866DOPC   C4B10162   7.119  23.009  14.371  0.3312 -0.0922 -0.1016
  867DOPC   NC310163   4.000  27.521  15.766 -0.0358  0.1183 -0.0990
  867DOPC   PO410164   4.018  27.704  16.116  0.2210  0.0844 -0.2002
  867DOPC   GL110165   4.023  28.000  15.788  0.4278 -0.1117 -0.2596
  867DOPC   GL210166   3.806  27.954  15.649  0.0776 -0.0024  0.1061
  867DOPC   C1A10167   4.120  28.449  15.546  0.1386  0.0993  0.1962
  867DOPC   D2A10168   4.152  28.707  15.222 -0.3063 -0.0690 -0.0051
  867DOPC   C3A10169   4.054  29.028  14.905 -0.0747  0.0747  0.1516
  867DOPC   C4A10170   3.607  29.061  14.708 -0.1734 -0.0127  0.3123
  867DOPC   C1B10171   3.798  28.168  15.225  0.1387 -0.1473  0.0853
  867DOPC   D2B10172   3.956  28.042  14.793 -0.0043  0.0482 -0.1236
  867DOPC   C3B10173   3.535  27.943  14.631  0.0964  0.1392  0.0044
  867DOPC   C4B10174   3.073  28.074  14.680  0.2364  0.3270  0.1332
  868DOPC   NC310175  10.609  31.693  15.893  0.1561  0.0058  0.1272
  868DOPC   PO410176  10.248  31.734  15.735 -0.3627  0.1761  0.0022
  868DOPC   GL110177  10.178  31.696  15.275 -0.2152  0.3675  0.1661
  868DOPC   GL210178  10.085  31.434  15.270 -0.2493  0.0055  0.1313
  868DOPC   C1A10179   9.909  31.882  14.941  0.2191  0.0467  0.0243
  868DOPC   D2A10180   9.678  31.779  14.560  0.2718  0.2383 -0.0473
  868DOPC   C3A10181   9.639  32.047  14.181 -0.2601  0.1912  0.1410
  868DOPC   C4A10182   9.640  32.508  13.999 -0.2122  0.1220  0.2731
  868DOPC   C1B10183  10.185  31.145  14.943 -0.0079 -0.1189 -0.0362
  868DOPC   D2B10184  10.089  30.947  14.576 -0.2820 -0.1005  0.0238
  868DOPC   C3B10185   9.653  30.790  14.639  0.0516 -0.0179 -0.1768
  868DOPC   C4B10186   9.427  30.330  14.674 -0.3457  0.1783 -0.1927
  869DOPS   CNO10187   5.864  28.663  16.039 -0.2420 -0.0145 -0.3013
  869DOPS   PO410188   6.083  28.940  15.899  0.1544 -0.0849 -0.0510
  869DOPS   GL110189   5.930  28.860  15.594 -0.1853 -0.0307 -0.0821
  869DOPS   GL210190   6.082  29.130  15.426 -0.0195  0.3385 -0.0732
  869DOPS   C1A10191   6.055  28.661  15.194  0.0319 -0.0279  0.0319
  869DOPS   D2A10192   6.255  28.388  14.875  0.2548  0.1247 -0.0142
  869DOPS   C3A10193   6.079  28.311  14.493 -0.1690  0.0811 -0.0703
  869DOPS   C4A10194   6.024  28.333  14.037 -0.0034 -0.0123 -0.0976
  869DOPS   C1B10195   5.941  29.100  14.959  0.0257 -0.3035 -0.0102
  869DOPS   D2B10196   6.160  28.820  14.618 -0.1283  0.0926 -0.2987
  869DOPS   C3B10197   5.887  28.806  14.295  0.2090  0.1904 -0.1000
  869DOPS   C4B10198   5.610  28.666  13.941  0.0577 -0.0992  0.0196
  870DOPC   NC310199   6.861  26.867  15.927  0.0004 -0.3207  0.4755
  870DOPC   PO410200   7.233  26.876  15.930  0.0047 -0.0889 -0.1419
  870DOPC   GL110201   7.167  27.238  15.748 -0.1035  0.0653  0.1215
  870DOPC   GL210202   6.974  27.382  15.847  0.1385  0.1549  0.0792
  870DOPC   C1A10203   7.250  27.323  15.311  0.1712 -0.1520 -0.1202
  870DOPC   D2A10204   7.032  27.153  14.938  0.2111 -0.1148  0.1084
  870DOPC   C3A10205   7.051  27.382  14.541  0.0658  0.1337 -0.1161
  870DOPC   C4A10206   6.799  27.338  14.148  0.0354 -0.1065 -0.3477
  870DOPC   C1B10207   6.624  27.667  15.732  0.0697 -0.1625  0.2860
  870DOPC   D2B10208   6.642  28.089  15.540 -0.2656  0.0422 -0.0252
  870DOPC   C3B10209   6.227  28.253  15.386 -0.2403 -0.1968 -0.2298
  870DOPC   C4B10210   5.914  28.051  15.132  0.3164 -0.0684 -0.0217
  871DOPS   CNO10211   8.096  31.027  15.961 -0.1528 -0.2311  0.2434
  871DOPS   PO410212   7.770  31.170  15.854  0.3005  0.0939 -0.0917
  871DOPS   GL110213   7.696  31.314  15.492  0.5866 -0.0118 -0.0554
  871DOPS   GL210214   7.547  31.591  15.569 -0.3976  0.0073 -0.2151
  871DOPS   C1A10215   7.788  31.334  15.039  0.0446  0.0951 -0.0666
  871DOPS   D2A10216   7.833  31.073  14.642  0.1673 -0.0932 -0.0198
  871DOPS   C3A10217   7.800  31.332  14.251  0.0342 -0.1176  0.0844
  871DOPS   C4A10218   8.094  31.224  13.914  0.1257  0.0603  0.3386
  871DOPS   C1B10219   7.314  31.498  15.219 -0.4639 -0.2719  0.0167
  871DOPS   D2B10220   7.025  31.533  14.869 -0.1532 -0.1472 -0.1902
  871DOPS   C3B10221   6.605  31.713  14.830 -0.0710 -0.0614 -0.0899
  871DOPS   C4B10222   6.360  31.791  14.420 -0.1980 -0.2051  0.0864
  872POSM   NC310223  12.687  24.258  15.209 -0.0033 -0.1076  0.2661
  872POSM   PO410224  12.582  24.666  15.199 -0.2164  0.0327 -0.0967
  872POSM   AM110225  12.536  24.653  14.884  0.2558  0.2570  0.0039
  872POSM   AM210226  12.382  24.523  14.671  0.0507  0.4836  0.0822
  872POSM   T1A10227  12.669  24.776  14.393 -0.0847 -0.4234  0.1117
  872POSM   C2A10228  12.623  24.990  13.947  0.1259 -0.1495 -0.4577
  872POSM   C3A10229  12.745  24.913  13.495 -0.0617  0.1475 -0.2056
  872POSM   C1B10230  12.288  24.211  14.509  0.0162  0.0995 -0.1004
  872POSM   D2B10231  12.174  23.740  14.488  0.0852  0.1531  0.2904
  872POSM   C3B10232  11.759  23.643  14.194 -0.0264  0.0459 -0.0490
  872POSM   C4B10233  11.390  23.876  13.974  0.0425  0.3031 -0.0682
  873DOPS   CNO10234   4.313  28.105  16.114 -0.0665  0.0998 -0.0916
  873DOPS   PO410235   4.516  27.811  15.986  0.0492 -0.0915 -0.0114
  873DOPS   GL110236   4.372  27.815  15.599  0.0320  0.2698  0.0850
  873DOPS   GL210237   4.322  27.563  15.427 -0.1740 -0.0883 -0.0037
  873DOPS   C1A10238   4.277  28.052  15.193  0.1588 -0.1890 -0.1004
  873DOPS   D2A10239   4.258  28.376  14.884 -0.1629 -0.1579  0.0040
  873DOPS   C3A10240   3.853  28.556  14.891 -0.1533 -0.1999 -0.1004
  873DOPS   C4A10241   3.638  28.922  15.145  0.1859  0.4021  0.2113
  873DOPS   C1B10242   4.410  27.478  14.960  0.4347 -0.0060  0.2604
  873DOPS   D2B10243   4.574  27.611  14.520 -0.0715  0.4505  0.1845
  873DOPS   C3B10244   4.319  27.891  14.346  0.1971  0.0450 -0.3054
  873DOPS   C4B10245   3.890  27.809  14.265 -0.0618  0.1735  0.0960
  874DOPS   CNO10246   1.584  26.067  15.784  0.2354 -0.1192  0.2935
  874DOPS   PO410247   1.337  26.006  15.467 -0.3785 -0.1847  0.1105
  874DOPS   GL110248   1.097  26.027  15.293 -0.0893 -0.1264  0.3459
  874DOPS   GL210249   0.896  26.238  15.375  0.1799  0.1442  0.0267
  874DOPS   C1A10250   0.749  25.916  15.010 -0.2190 -0.0425  0.0626
  874DOPS   D2A10251   0.381  25.654  14.971 -0.0530 -0.0117 -0.2137
  874DOPS   C3A10252   0.329  25.700  14.517  0.2900 -0.0424 -0.0474
  874DOPS   C4A10253   0.194  25.717  14.063  0.0901 -0.2133  0.2164
  874DOPS   C1B10254   0.967  26.437  14.959  0.0579  0.3297 -0.0677
  874DOPS   D2B10255   0.928  26.654  14.519  0.0159  0.2044  0.3182
  874DOPS   C3B10256   1.060  26.411  14.181 -0.0190 -0.3877  0.2941
  874DOPS   C4B10257   1.151  25.926  14.177  0.1584 -0.2626 -0.0163
  875DOPE   NH310258   3.086  28.600  16.064 -0.0822  0.2241 -0.1774
  875DOPE   PO410259   3.256  28.366  16.163  0.1169 -0.0183 -0.0221
  875DOPE   GL110260   3.016  28.117  15.935  0.1392 -0.0306  0.0842
  875DOPE   GL210261   3.083  27.789  15.967  0.0803 -0.0573  0.0281
  875DOPE   C1A10262   3.219  27.956  15.519 -0.1186  0.1463 -0.0823
  875DOPE   D2A10263   3.398  27.848  15.107  0.1528 -0.0466 -0.0265
  875DOPE   C3A10264   3.585  27.491  14.844 -0.0974  0.2048 -0.3551
  875DOPE   C4A10265   4.038  27.476  14.643  0.0164 -0.0889 -0.0523
  875DOPE   C1B10266   3.118  27.305  15.878 -0.2045 -0.1020  0.1675
  875DOPE   D2B10267   2.833  27.027  15.579 -0.0309  0.1733 -0.1364
  875DOPE   C3B10268   3.069  26.981  15.146 -0.4184 -0.4350  0.0622
  875DOPE   C4B10269   3.091  27.324  14.818  0.0437 -0.0652  0.0341
  876DOPE   NH310270   8.928  24.141  16.124 -0.0893 -0.0261  0.0221
  876DOPE   PO410271   8.893  24.461  16.117 -0.2826  0.2018  0.0720
  876DOPE   GL110272   8.791  24.463  15.678  0.2672 -0.5858 -0.0636
  876DOPE   GL210273   8.990  24.234  15.599 -0.3608 -0.0654  0.1617
  876DOPE   C1A10274   8.717  24.368  15.192 -0.3076  0.1899 -0.0418
  876DOPE   D2A10275   8.690  24.008  14.948 -0.1484 -0.1018  0.2855
  876DOPE   C3A10276   8.574  23.752  14.551 -0.1859  0.0626  0.0426
  876DOPE   C4A10277   8.393  23.405  14.237  0.1624  0.0711 -0.2443
  876DOPE   C1B10278   9.167  24.678  15.463  0.0293  0.1259 -0.0287
  876DOPE   D2B10279   9.300  25.126  15.506 -0.3618  0.2569  0.0062
  876DOPE   C3B10280   9.707  25.277  15.311 -0.0134  0.0778  0.0134
  876DOPE   C4B10281   9.934  25.670  15.173  0.3493 -0.0682 -0.0501
  877DOPE   NH310282   7.385  33.138  15.449 -0.0696 -0.0864  0.3310
  877DOPE   PO410283   7.658  33.272  15.545 -0.0202  0.0342 -0.0527
  877DOPE   GL110284   7.762  33.167  15.186 -0.1183  0.1478  0.4375
  877DOPE   GL210285   7.673  32.938  15.014  0.1841 -0.2004 -0.2735
  877DOPE   C1A10286   7.885  33.316  14.774  0.2173  0.1226  0.1755
  877DOPE   D2A10287   7.733  33.530  14.370 -0.1353  0.0968 -0.2965
  877DOPE   C3A10288   7.347  33.313  14.218  0.1271 -0.1153 -0.0883
  877DOPE   C4A10289   7.106  33.011  14.052  0.1045 -0.0726  0.0981
  877DOPE   C1B10290   7.407  33.234  14.729  0.2153  0.2353  0.2460
  877DOPE   D2B10291   6.990  33.240  14.557  0.1522  0.0508  0.2101
  877DOPE   C3B10292   6.698  32.876  14.379 -0.1485 -0.2039 -0.0221
  877DOPE   C4B10293   6.461  32.556  14.154 -0.0823 -0.2758 -0.0003
  878DOPC   NC310294   4.268  30.191  16.135  0.1544 -0.0724  0.2382
  878DOPC   PO410295   4.527  29.917  16.231  0.1504 -0.0375 -0.0203
  878DOPC   GL110296   4.670  29.814  15.842 -0.3180  0.2954  0.2825
  878DOPC   GL210297   4.747  30.081  15.753 -0.0250 -0.0419 -0.2485
  878DOPC   C1A10298   4.823  29.641  15.436  0.1578  0.2210  0.2056
  878DOPC   D2A10299   4.629  29.585  14.969 -0.0912 -0.0448 -0.0542
  878DOPC   C3A10300   4.560  29.188  14.709  0.1816  0.0969 -0.1235
  878DOPC   C4A10301   4.583  28.932  14.295  0.0966  0.1415 -0.2621
  878DOPC   C1B10302   4.842  30.368  15.343 -0.0897  0.1528  0.0876
  878DOPC   D2B10303   4.915  30.438  14.911 -0.2210 -0.0324 -0.0774
  878DOPC   C3B10304   4.857  30.168  14.497  0.0930 -0.1284 -0.0942
  878DOPC   C4B10305   5.155  29.859  14.406  0.2626 -0.0248  0.2075
  879DOPC   NC310306  11.885  27.626  15.480  0.1028 -0.1170  0.1976
  879DOPC   PO410307  11.570  27.425  15.335 -0.0462 -0.2109  0.2258
  879DOPC   GL110308  11.737  27.302  14.990 -0.0982 -0.4228 -0.4342
  879DOPC   GL210309  11.553  27.058  14.889  0.2670 -0.2044 -0.1075
  879DOPC   C1A10310  11.542  27.503  14.598 -0.1566  0.1854 -0.1211
  879DOPC   D2A10311  11.404  27.851  14.437  0.2130 -0.0777 -0.1082
  879DOPC   C3A10312  11.407  27.788  13.972  0.0085 -0.3824  0.1587
  879DOPC   C4A10313  11.387  27.423  13.643 -0.2940 -0.1653 -0.0149
  879DOPC   C1B10314  11.640  27.025  14.482 -0.2519  0.3182 -0.1121
  879DOPC   D2B10315  12.088  27.064  14.275 -0.0827  0.1434  0.1559
  879DOPC   C3B10316  12.329  27.185  13.911  0.0634  0.1215 -0.2791
  879DOPC   C4B10317  12.733  27.107  13.682  0.2324 -0.0546 -0.0865
  880POSM   NC310318   3.585  28.006  16.098 -0.0007 -0.0962 -0.1139
  880POSM   PO410319   3.854  28.330  16.174  0.1616  0.3455  0.0255
  880POSM   AM110320   3.744  28.428  15.839  0.0816  0.0528 -0.1377
  880POSM   AM210321   3.464  28.506  15.705  0.0116  0.0661 -0.2404
  880POSM   T1A10322   3.803  28.847  15.619 -0.2340  0.1978  0.2158
  880POSM   C2A10323   4.119  29.148  15.536 -0.2982  0.2172  0.0881
  880POSM   C3A10324   4.459  29.226  15.293  0.0552  0.0571 -0.3257
  880POSM   C1B10325   3.401  28.457  15.355 -0.1417  0.1175  0.1242
  880POSM   D2B10326   3.334  28.521  14.885 -0.4049 -0.1962  0.1645
  880POSM   C3B10327   3.563  28.537  14.481  0.0457  0.1778 -0.1155
  880POSM   C4B10328   3.620  28.362  14.110  0.0175  0.0045 -0.0633
  881POSM   NC310329   1.875  33.691  16.320 -0.2118  0.0865  0.0509
  881POSM   PO410330   1.988  33.310  16.252  0.0290 -0.0011 -0.1485
  881POSM   AM110331   1.855  33.178  15.946  0.1342  0.0812  0.0001
  881POSM   AM210332   1.680  33.069  15.722 -0.1232  0.1368 -0.2525
  881POSM   T1A10333   2.089  32.932  15.543  0.2970  0.0858 -0.0314
  881POSM   C2A10334   2.360  32.533  15.446  0.1702 -0.0873 -0.0375
  881POSM   C3A10335   2.528  32.277  15.020  0.1107 -0.0196  0.0327
  881POSM   C1B10336   1.597  33.264  15.453 -0.2377 -0.0118  0.0437
  881POSM   D2B10337   1.580  33.389  14.994 -0.0634  0.3012 -0.1901
  881POSM   C3B10338   1.672  33.103  14.652  0.2878  0.1480  0.3391
  881POSM   C4B10339   1.719  32.723  14.459 -0.1770 -0.2681 -0.0085
  882DOPE   NH310340   2.582  26.187  16.288  0.0504 -0.0270 -0.2329
  882DOPE   PO410341   2.822  26.229  16.109  0.2838 -0.0473  0.4816
  882DOPE   GL110342   2.698  26.306  15.768 -0.2637  0.1845 -0.2916
  882DOPE   GL210343   2.467  26.309  15.727 -0.1076  0.1637 -0.1871
  882DOPE   C1A10344   2.882  26.498  15.387  0.2722 -0.0343  0.1647
  882DOPE   D2A10345   2.969  26.561  14.963  0.2269  0.0856  0.1301
  882DOPE   C3A10346   3.365  26.526  14.698 -0.0319 -0.0869 -0.2605
  882DOPE   C4A10347   3.702  26.259  14.491 -0.0725  0.1109  0.0365
  882DOPE   C1B10348   2.528  26.246  15.249  0.0196  0.0409 -0.2490
  882DOPE   D2B10349   2.488  26.010  14.826 -0.1934 -0.2445 -0.2092
  882DOPE   C3B10350   2.860  26.175  14.613  0.1440  0.0408  0.0587
  882DOPE   C4B10351   2.944  26.546  14.456  0.1309  0.1881  0.0476
  883DOPE   NH310352   1.201  26.926  16.156 -0.1370  0.1715 -0.2097
  883DOPE   PO410353   1.443  27.111  16.260 -0.0416 -0.0333  0.1148
  883DOPE   GL110354   1.597  27.083  15.918 -0.2748 -0.0189  0.5422
  883DOPE   GL210355   1.374  27.163  15.702 -0.2741 -0.3108 -0.2206
  883DOPE   C1A10356   2.017  27.130  15.721  0.1769  0.4791  0.0981
  883DOPE   D2A10357   2.349  27.249  15.423 -0.1046  0.2534 -0.0529
  883DOPE   C3A10358   2.689  27.502  15.515 -0.1686 -0.0077 -0.0668
  883DOPE   C4A10359   3.117  27.488  15.383  0.0120  0.2808  0.0996
  883DOPE   C1B10360   1.655  27.006  15.358  0.2339 -0.1937 -0.0937
  883DOPE   D2B10361   2.041  26.965  15.067  0.1198  0.1268 -0.1863
  883DOPE   C3B10362   2.010  27.272  14.760 -0.0272 -0.1896  0.1304
  883DOPE   C4B10363   2.242  27.661  14.533  0.0945  0.2245  0.3735
  884DOPE   NH310364   5.385  34.409  15.582 -0.2984 -0.0968  0.1441
  884DOPE   PO410365   5.077  34.380  15.500 -0.0426  0.1028  0.0657
  884DOPE   GL110366   5.017  34.664  15.232 -0.2227 -0.0377  0.0273
  884DOPE   GL210367   5.090  34.888  15.400  0.2091 -0.0444 -0.3955
  884DOPE   C1A10368   4.857  34.903  14.876 -0.2658  0.0918 -0.0243
  884DOPE   D2A10369   4.600  35.256  14.637  0.0637  0.0709  0.1958
  884DOPE   C3A10370   4.710  35.480  14.209 -0.0843  0.1350 -0.2912
  884DOPE   C4A10371   4.741  35.892  14.162 -0.2396 -0.0277  0.0387
  884DOPE   C1B10372   4.676  35.154  15.283 -0.0521  0.0499  0.0579
  884DOPE   D2B10373   4.414  35.543  15.185 -0.2143  0.1926  0.3069
  884DOPE   C3B10374   4.544  35.925  15.034 -0.0030 -0.0780 -0.1281
  884DOPE   C4B10375   4.506  36.095  14.617 -0.0828  0.0205 -0.0725
  885DOPC   NC310376   0.412  24.581  16.158  0.0486 -0.0533 -0.1712
  885DOPC   PO410377   0.550  24.634  15.784 -0.1936 -0.1409  0.1934
  885DOPC   GL110378   0.468  24.376  15.466  0.1226  0.3478  0.1430
  885DOPC   GL210379   0.470  24.071  15.585 -0.2891 -0.0966 -0.2781
  885DOPC   C1A10380   0.282  24.531  15.052 -0.0877  0.1017  0.0695
  885DOPC   D2A10381   0.069  24.531  14.663 -0.0785  0.1479 -0.1962
  885DOPC   C3A10382   0.024  24.871  14.338  0.0242  0.0208  0.1315
  885DOPC   C4A10383   0.042  25.225  14.001 -0.0122 -0.0209 -0.1835
  885DOPC   C1B10384   0.232  24.088  15.259  0.2923  0.1119  0.0033
  885DOPC   D2B10385   0.263  24.018  14.799 -0.0108  0.0171 -0.1543
  885DOPC   C3B10386   0.605  23.888  14.597 -0.2117  0.1006  0.0650
  885DOPC   C4B10387   1.022  23.762  14.382 -0.2593  0.3406 -0.0852
  886DOPC   NC310388   0.798  28.529  16.423 -0.0430  0.1266 -0.0030
  886DOPC   PO410389   0.832  28.792  16.116 -0.0809 -0.0793 -0.0144
  886DOPC   GL110390   0.878  28.846  15.733 -0.0572  0.1570  0.5023
  886DOPC   GL210391   0.702  29.057  15.597 -0.2343  0.1260 -0.0659
  886DOPC   C1A10392   0.919  28.656  15.348 -0.0422  0.1242 -0.3622
  886DOPC   D2A10393   1.194  28.636  15.023 -0.1698 -0.0739  0.4292
  886DOPC   C3A10394   1.157  28.736  14.559  0.1626 -0.1868 -0.2919
  886DOPC   C4A10395   0.933  28.947  14.178 -0.0435  0.1597  0.1960
  886DOPC   C1B10396   0.956  29.137  15.229  0.0189  0.0621  0.2176
  886DOPC   D2B10397   1.154  29.229  14.833 -0.0392 -0.0798  0.3797
  886DOPC   C3B10398   1.595  29.468  14.648 -0.0088 -0.1652  0.0084
  886DOPC   C4B10399   1.649  29.643  14.169  0.1038 -0.0031 -0.1623
  887POSM   NC310400   4.985  24.798  16.595 -0.1072 -0.0662 -0.0180
  887POSM   PO410401   5.024  25.128  16.413 -0.1039 -0.0388  0.2074
  887POSM   AM110402   5.042  25.264  16.138 -0.0986 -0.1733 -0.1409
  887POSM   AM210403   5.075  25.502  15.929 -0.0403  0.2653 -0.2273
  887POSM   T1A10404   5.115  25.028  15.689  0.4020  0.0721 -0.0591
  887POSM   C2A10405   4.996  25.050  15.322  0.2786  0.1111  0.1065
  887POSM   C3A10406   5.185  25.131  14.913 -0.0002  0.1580  0.1641
  887POSM   C1B10407   5.292  25.538  15.650  0.1915 -0.0690 -0.1351
  887POSM   D2B10408   5.308  25.507  15.230 -0.1839  0.1928  0.0833
  887POSM   C3B10409   4.889  25.470  14.963  0.1986  0.1871  0.0442
  887POSM   C4B10410   4.574  25.608  14.679 -0.2037  0.1764  0.1067
  888DOPC   NC310411   1.602  34.465  15.923 -0.2065  0.1324  0.2716
  888DOPC   PO410412   1.791  34.175  16.082  0.0235 -0.0190 -0.1142
  888DOPC   GL110413   1.888  34.115  15.631  0.0221 -0.0919 -0.0868
  888DOPC   GL210414   2.214  34.099  15.614  0.1067  0.3273 -0.1207
  888DOPC   C1A10415   1.986  34.255  15.188  0.1770  0.1225  0.3847
  888DOPC   D2A10416   1.966  34.731  14.970 -0.3993 -0.0824 -0.0704
  888DOPC   C3A10417   2.054  35.213  14.800  0.1856  0.3723  0.1846
  888DOPC   C4A10418   1.732  35.543  14.799  0.1205 -0.0967 -0.3103
  888DOPC   C1B10419   2.302  33.824  15.295  0.3698 -0.0417 -0.2612
  888DOPC   D2B10420   2.578  33.505  15.170 -0.1056 -0.1195  0.2395
  888DOPC   C3B10421   2.694  33.414  14.708  0.1061  0.1475 -0.2236
  888DOPC   C4B10422   2.795  33.013  14.489  0.1238 -0.3140  0.2600
  889DOPE   NH310423   7.360  25.426  15.985 -0.0206 -0.1858 -0.1640
  889DOPE   PO410424   7.635  25.310  16.015 -0.0133 -0.2493  0.1363
  889DOPE   GL110425   7.732  25.080  15.685  0.0692  0.2297  0.0583
  889DOPE   GL210426   7.794  25.365  15.543 -0.1198  0.1062 -0.1982
  889DOPE   C1A10427   7.982  24.831  15.360 -0.0118  0.3788 -0.1386
  889DOPE   D2A10428   7.999  24.741  14.933  0.2669  0.1461  0.2929
  889DOPE   C3A10429   8.428  24.668  14.757  0.0871 -0.0167  0.0128
  889DOPE   C4A10430   8.812  24.382  14.625  0.0558 -0.0745  0.1432
  889DOPE   C1B10431   7.742  25.161  15.106  0.3617  0.2632 -0.0535
  889DOPE   D2B10432   7.736  25.103  14.647  0.0846  0.1630  0.5003
  889DOPE   C3B10433   7.831  24.727  14.431  0.2338 -0.1272  0.0606
  889DOPE   C4B10434   7.925  24.268  14.392 -0.0404 -0.1855 -0.0285
  890DOPC   NC310435   2.938  29.465  16.108  0.0705  0.0231 -0.1789
  890DOPC   PO410436   2.616  29.650  16.145  0.1569 -0.1993 -0.0299
  890DOPC   GL110437   2.570  29.954  15.953 -0.1440  0.0542 -0.1989
  890DOPC   GL210438   2.574  30.211  16.053 -0.1591 -0.0574  0.1644
  890DOPC   C1A10439   2.395  30.142  15.554  0.1940  0.0646  0.4252
  890DOPC   D2A10440   2.437  30.230  15.050 -0.0889  0.2314  0.0623
  890DOPC   C3A10441   2.206  29.982  14.722 -0.3737  0.1203 -0.1870
  890DOPC   C4A10442   1.820  29.913  14.563  0.0099 -0.0869  0.2197
  890DOPC   C1B10443   2.634  30.674  15.978 -0.0073  0.0644 -0.0499
  890DOPC   D2B10444   2.763  31.064  15.728  0.3326 -0.1713 -0.0848
  890DOPC   C3B10445   2.550  31.289  15.369 -0.0691  0.0814 -0.2857
  890DOPC   C4B10446   2.505  31.329  14.976 -0.2053 -0.0737 -0.1017
  891DOPE   NH310447   0.744  31.611  16.527 -0.1606  0.0593  0.2759
  891DOPE   PO410448   0.465  31.646  16.335 -0.1759 -0.2022 -0.0992
  891DOPE   GL110449   0.501  31.724  15.919  0.1891 -0.1808  0.0100
  891DOPE   GL210450   0.221  31.939  15.826  0.0289 -0.0598 -0.0471
  891DOPE   C1A10451   0.460  31.715  15.484 -0.0989  0.1952 -0.0171
  891DOPE   D2A10452   0.495  31.930  15.073  0.3710 -0.2441 -0.0225
  891DOPE   C3A10453   0.754  31.974  14.645  0.1278  0.4578  0.0873
  891DOPE   C4A10454   1.043  32.099  14.305 -0.0369  0.3704 -0.1656
  891DOPE   C1B10455   0.307  32.263  15.495 -0.1089  0.3480  0.2055
  891DOPE   D2B10456   0.409  32.498  15.132  0.1124 -0.0686  0.0444
  891DOPE   C3B10457   0.355  32.394  14.671  0.0373  0.2727 -0.0779
  891DOPE   C4B10458   0.108  32.668  14.367 -0.3737 -0.2149 -0.1999
  892DOPE   NH310459   9.890  24.511  16.437 -0.6153 -0.0525  0.0724
  892DOPE   PO410460   9.811  24.563  16.160  0.2596  0.0480  0.3608
  892DOPE   GL110461   9.773  24.355  15.777  0.2387 -0.2800 -0.3866
  892DOPE   GL210462   9.510  24.370  15.563 -0.0366  0.3430  0.1448
  892DOPE   C1A10463   9.944  24.449  15.400  0.3546 -0.0321 -0.2324
  892DOPE   D2A10464   9.812  24.185  15.077  0.1332 -0.2482  0.1930
  892DOPE   C3A10465   9.561  24.421  14.774 -0.0309  0.3431  0.1108
  892DOPE   C4A10466   9.306  24.798  14.642 -0.0712 -0.0918 -0.2057
  892DOPE   C1B10467   9.240  24.214  15.197 -0.3841  0.2228 -0.0555
  892DOPE   D2B10468   9.158  24.011  14.766 -0.1130  0.3824  0.2235
  892DOPE   C3B10469   9.529  24.076  14.468 -0.0850  0.0826  0.0404
  892DOPE   C4B10470   9.939  24.019  14.265 -0.2668 -0.1850  0.1431
  893DOPC   NC310471   3.311  26.868  16.346  0.0204 -0.2973 -0.0242
  893DOPC   PO410472   3.200  26.497  16.290 -0.0310 -0.4185  0.2959
  893DOPC   GL110473   3.168  26.540  15.910 -0.1187  0.2122 -0.0138
  893DOPC   GL210474   3.215  26.783  15.769 -0.1399  0.0252 -0.3153
  893DOPC   C1A10475   3.288  26.245  15.575 -0.1708 -0.1630 -0.0302
  893DOPC   D2A10476   3.481  26.231  15.140  0.2585  0.1422  0.0903
  893DOPC   C3A10477   3.724  25.880  14.971 -0.1704 -0.1205  0.0378
  893DOPC   C4A10478   3.834  25.594  14.655  0.2067  0.1081  0.2029
  893DOPC   C1B10479   3.438  26.690  15.382  0.2001  0.1511 -0.1742
  893DOPC   D2B10480   3.598  26.891  15.023  0.0989 -0.0243 -0.1254
  893DOPC   C3B10481   3.411  27.011  14.654  0.0955  0.3083 -0.0979
  893DOPC   C4B10482   3.211  27.200  14.311  0.2982  0.2898 -0.1243
  894DOPC   NC310483   4.772  27.440  15.752  0.1374 -0.2968  0.2733
  894DOPC   PO410484   4.438  27.320  15.903 -0.0417 -0.0510  0.2339
  894DOPC   GL110485   4.392  27.106  15.564  0.2169  0.2088  0.0345
  894DOPC   GL210486   4.124  27.104  15.495  0.2133 -0.1721 -0.0338
  894DOPC   C1A10487   4.732  27.188  15.256 -0.0866 -0.5282 -0.0282
  894DOPC   D2A10488   5.033  27.391  15.023  0.1645 -0.2318 -0.1380
  894DOPC   C3A10489   4.951  27.282  14.579 -0.1090  0.0438  0.2712
  894DOPC   C4A10490   5.218  27.263  14.208  0.0148 -0.3943 -0.0752
  894DOPC   C1B10491   4.191  27.031  15.030  0.2255 -0.1336 -0.0235
  894DOPC   D2B10492   4.015  26.929  14.610 -0.1948  0.3155  0.0355
  894DOPC   C3B10493   3.767  27.189  14.285 -0.4050  0.1536 -0.2755
  894DOPC   C4B10494   3.836  27.452  13.949 -0.2126  0.1005 -0.0546
  895DOPC   NC310495  11.168  32.343  15.413 -0.0094  0.0004  0.2879
  895DOPC   PO410496  11.512  32.118  15.477  0.0567 -0.1128  0.0444
  895DOPC   GL110497  11.303  32.033  15.108  0.0658 -0.0078 -0.1288
  895DOPC   GL210498  11.501  31.864  14.920  0.2621  0.1822 -0.0337
  895DOPC   C1A10499  10.967  31.790  14.835  0.0024  0.0471 -0.0223
  895DOPC   D2A10500  10.668  31.770  14.416 -0.0119 -0.0712  0.0803
  895DOPC   C3A10501  10.786  31.884  13.952  0.1480  0.0699 -0.1261
  895DOPC   C4A10502  10.844  32.004  13.537  0.0681  0.3157 -0.0490
  895DOPC   C1B10503  11.446  31.733  14.445 -0.0213 -0.0932 -0.0463
  895DOPC   D2B10504  11.285  31.839  14.065 -0.1901 -0.1012 -0.2822
  895DOPC   C3B10505  11.378  31.976  13.625 -0.1556  0.2580  0.2841
  895DOPC   C4B10506  11.665  32.055  13.245  0.0441  0.2473 -0.0577
  896DOPC   NC310507  34.055  25.165  15.782 -0.0742  0.1197 -0.1605
  896DOPC   PO410508  34.465  25.141  15.762  0.2700  0.0520 -0.2019
  896DOPC   GL110509  34.626  24.991  15.444  0.0541  0.2162  0.2322
  896DOPC   GL210510  34.824  24.791  15.571 -0.2792  0.0801 -0.0843
  896DOPC   C1A10511  34.624  24.887  14.997 -0.2729 -0.0150  0.2378
  896DOPC   D2A10512  34.389  25.025  14.645 -0.3766 -0.0583  0.1068
  896DOPC   C3A10513  34.259  25.034  14.168 -0.2808 -0.0493  0.1168
  896DOPC   C4A10514  34.481  24.878  13.735  0.1102  0.1949 -0.3559
  896DOPC   C1B10515  34.571  24.459  15.358  0.2446  0.2275  0.0034
  896DOPC   D2B10516  34.504  24.162  14.982  0.3085  0.0861  0.3957
  896DOPC   C3B10517  34.113  24.038  14.865  0.1158 -0.3186  0.1824
  896DOPC   C4B10518  33.772  24.224  15.063  0.0606  0.1849 -0.1956
  897DOPC   NC310519   6.513  26.633  16.616  0.1173  0.0774 -0.1470
  897DOPC   PO410520   6.457  26.755  16.239  0.2944  0.1015  0.0622
  897DOPC   GL110521   6.350  26.682  15.840 -0.2619 -0.1185 -0.0180
  897DOPC   GL210522   6.247  26.444  15.793  0.0830  0.1427  0.1247
  897DOPC   C1A10523   6.355  26.700  15.381  0.0826  0.3377  0.3402
  897DOPC   D2A10524   6.372  26.626  14.887  0.3532 -0.1939 -0.3643
  897DOPC   C3A10525   6.769  26.678  14.748 -0.2333  0.2388  0.0321
  897DOPC   C4A10526   7.125  26.798  14.500  0.3352  0.2974 -0.3500
  897DOPC   C1B10527   6.038  26.303  15.416 -0.0006 -0.2039  0.1103
  897DOPC   D2B10528   6.018  26.190  14.990  0.1407  0.1236 -0.2273
  897DOPC   C3B10529   5.974  26.240  14.505 -0.0261 -0.0319 -0.2512
  897DOPC   C4B10530   6.070  25.959  14.141 -0.0560  0.1972 -0.1933
  898DOPE   NH310531  10.733  30.324  15.933  0.4668  0.3094 -0.3781
  898DOPE   PO410532  10.398  30.401  15.858 -0.0722 -0.0068 -0.3102
  898DOPE   GL110533  10.440  30.460  15.514  0.1032  0.2230 -0.0206
  898DOPE   GL210534  10.106  30.456  15.431 -0.1336 -0.0384  0.1663
  898DOPE   C1A10535  10.443  30.153  15.143  0.0179  0.1578 -0.1388
  898DOPE   D2A10536  10.253  30.080  14.690 -0.1554 -0.0713 -0.1001
  898DOPE   C3A10537  10.237  30.452  14.386  0.2395  0.2036 -0.0782
  898DOPE   C4A10538  10.161  30.833  14.122 -0.3062  0.2885  0.2460
  898DOPE   C1B10539   9.838  30.229  15.135  0.0091 -0.1360  0.1973
  898DOPE   D2B10540   9.400  30.048  15.185  0.0478 -0.0864  0.0957
  898DOPE   C3B10541   9.075  30.064  14.862 -0.0559  0.1306  0.2785
  898DOPE   C4B10542   8.692  29.905  14.592  0.0885 -0.0209  0.3193
  899DOPE   NH310543   8.421  29.354  16.098 -0.2758 -0.4207  0.1375
  899DOPE   PO410544   8.723  29.490  16.069  0.1100 -0.4179  0.0712
  899DOPE   GL110545   8.780  29.555  15.627  0.0669  0.0863 -0.1373
  899DOPE   GL210546   8.696  29.856  15.581  0.5467  0.0905 -0.0077
  899DOPE   C1A10547   8.846  29.221  15.286 -0.1745 -0.0133 -0.1767
  899DOPE   D2A10548   8.763  28.839  15.015  0.1889  0.1744 -0.0402
  899DOPE   C3A10549   8.630  28.928  14.593 -0.0371 -0.2560  0.1036
  899DOPE   C4A10550   8.379  28.655  14.305  0.1212 -0.1872 -0.3085
  899DOPE   C1B10551   8.938  29.718  15.179 -0.0340  0.0626 -0.1974
  899DOPE   D2B10552   8.906  29.434  14.786  0.0280  0.0203  0.0802
  899DOPE   C3B10553   8.634  29.387  14.464 -0.1546  0.1938  0.0873
  899DOPE   C4B10554   8.428  29.154  14.101 -0.0625  0.0189 -0.1386
  900POSM   NC310555   4.742  32.285  16.208 -0.1486 -0.1234 -0.0944
  900POSM   PO410556   5.129  32.400  16.267 -0.0145  0.3131  0.1559
  900POSM   AM110557   5.199  32.272  15.919  0.0963 -0.1626 -0.5872
  900POSM   AM210558   5.218  32.355  15.627 -0.1352  0.3900  0.1738
  900POSM   T1A10559   5.317  31.826  15.697 -0.0365 -0.1654 -0.1875
  900POSM   C2A10560   5.812  31.779  15.704  0.0774 -0.1649  0.2930
  900POSM   C3A10561   6.243  31.602  15.831 -0.0037 -0.1840 -0.2139
  900POSM   C1B10562   5.196  32.200  15.308 -0.2189 -0.1326  0.3823
  900POSM   D2B10563   5.304  31.791  15.079 -0.2657 -0.0112 -0.1079
  900POSM   C3B10564   5.356  31.689  14.608  0.1722  0.1595 -0.2914
  900POSM   C4B10565   5.347  31.573  14.196 -0.0407  0.1724  0.0861
  901DOPC   NC310566   7.929  24.153  16.091  0.0242 -0.2636  0.1393
  901DOPC   PO410567   7.657  23.905  15.995 -0.0402  0.0143 -0.1517
  901DOPC   GL110568   7.856  23.841  15.666  0.0212  0.2304 -0.1798
  901DOPC   GL210569   8.090  24.020  15.660  0.0785  0.0802  0.0958
  901DOPC   C1A10570   7.675  23.664  15.258 -0.1122 -0.0193 -0.2708
  901DOPC   D2A10571   7.778  23.563  14.760 -0.1272  0.4061 -0.0067
  901DOPC   C3A10572   7.978  23.672  14.394 -0.1025 -0.0392  0.1440
  901DOPC   C4A10573   8.269  23.905  14.126 -0.4309 -0.0518 -0.0819
  901DOPC   C1B10574   8.135  23.586  15.477 -0.3651 -0.3728  0.1113
  901DOPC   D2B10575   8.050  23.274  15.150  0.0345  0.0646  0.0778
  901DOPC   C3B10576   8.355  22.929  15.243  0.3623 -0.4697 -0.0309
  901DOPC   C4B10577   8.730  22.691  15.147  0.1522  0.4125 -0.0867
  902POSM   NC310578   3.100  25.006  15.964 -0.0160  0.0134 -0.1499
  902POSM   PO410579   3.321  25.089  16.244  0.0879  0.0148  0.1373
  902POSM   AM110580   3.590  25.075  16.068  0.1007  0.0613  0.0163
  902POSM   AM210581   3.718  24.887  15.937  0.1363 -0.1491  0.0502
  902POSM   T1A10582   3.750  25.348  15.699  0.1308 -0.3131 -0.3415
  902POSM   C2A10583   3.924  25.505  15.300  0.2813  0.5573  0.1265
  902POSM   C3A10584   3.912  25.144  14.903  0.1094 -0.0017 -0.0331
  902POSM   C1B10585   3.476  24.728  15.785  0.2953 -0.1349 -0.2448
  902POSM   D2B10586   3.256  24.808  15.436 -0.1361  0.2263  0.2774
  902POSM   C3B10587   3.319  24.690  14.987 -0.1738  0.3519 -0.0612
  902POSM   C4B10588   3.346  24.561  14.528 -0.0418  0.1334 -0.0174
  903POSM   NC310589   1.598  32.914  16.240 -0.4588  0.3162 -0.1507
  903POSM   PO410590   1.479  33.285  16.135 -0.0358 -0.0677 -0.1459
  903POSM   AM110591   1.276  33.330  15.877 -0.0487  0.0991 -0.2852
  903POSM   AM210592   1.237  33.475  15.651  0.0133 -0.3004  0.2176
  903POSM   T1A10593   0.795  33.598  15.825  0.0037  0.1540 -0.2607
  903POSM   C2A10594   0.388  33.811  15.922  0.0142  0.3389 -0.0009
  903POSM   C3A10595   0.335  34.172  16.189  0.0966  0.0183 -0.0358
  903POSM   C1B10596   1.301  33.657  15.397 -0.1656 -0.1602 -0.2666
  903POSM   D2B10597   1.278  33.815  15.004  0.1343 -0.0533 -0.0179
  903POSM   C3B10598   1.124  33.439  14.753  0.1147 -0.0872 -0.0186
  903POSM   C4B10599   1.045  33.043  14.494 -0.1495 -0.2418  0.2307
  904DOPS   CNO10600   5.954  29.820  16.320  0.1487 -0.1671 -0.3450
  904DOPS   PO410601   5.670  29.587  16.221 -0.1990  0.0269 -0.0716
  904DOPS   GL110602   5.579  29.940  16.006  0.0878 -0.1722 -0.1777
  904DOPS   GL210603   5.810  29.861  15.768 -0.6870  0.1505  0.0703
  904DOPS   C1A10604   5.585  30.313  15.749  0.1375 -0.0908 -0.2402
  904DOPS   D2A10605   5.568  30.647  15.486 -0.0381  0.1233 -0.1306
  904DOPS   C3A10606   6.052  30.679  15.365 -0.0540  0.1433  0.0774
  904DOPS   C4A10607   6.468  30.549  15.192  0.2662 -0.3083 -0.0258
  904DOPS   C1B10608   5.709  30.039  15.320  0.0603 -0.2113 -0.0168
  904DOPS   D2B10609   5.722  30.386  14.972 -0.0756  0.1173  0.0195
  904DOPS   C3B10610   5.399  30.275  14.651 -0.2249  0.0551 -0.1989
  904DOPS   C4B10611   5.184  30.591  14.357 -0.2587 -0.2157  0.0490
  905DOPC   NC310612   3.687  32.006  16.383 -0.2466  0.1210  0.0305
  905DOPC   PO410613   3.276  31.958  16.399 -0.1278  0.1453  0.0186
  905DOPC   GL110614   3.375  32.064  16.021 -0.2732  0.1692 -0.3013
  905DOPC   GL210615   3.110  31.919  15.919  0.0409  0.1627 -0.0579
  905DOPC   C1A10616   3.188  32.387  15.749  0.0104 -0.2743  0.1859
  905DOPC   D2A10617   2.850  32.612  15.541  0.0316 -0.2425  0.1591
  905DOPC   C3A10618   2.856  32.633  15.100  0.0911  0.0006  0.0423
  905DOPC   C4A10619   2.603  32.602  14.652  0.1621 -0.0083 -0.0360
  905DOPC   C1B10620   3.535  31.696  15.870 -0.0494  0.1846 -0.1830
  905DOPC   D2B10621   3.812  31.422  15.636 -0.1137  0.3400  0.2994
  905DOPC   C3B10622   3.842  31.694  15.380  0.0766  0.1700  0.3300
  905DOPC   C4B10623   3.815  31.991  15.140  0.1975  0.0094  0.0397
  906DOPE   NH310624   3.739  29.588  16.389 -0.0462  0.0727  0.1323
  906DOPE   PO410625   3.816  29.888  16.288  0.0414  0.0274  0.4317
  906DOPE   GL110626   3.690  30.103  16.033  0.2263  0.0464  0.3388
  906DOPE   GL210627   3.889  30.172  15.756  0.0224 -0.3613 -0.0835
  906DOPE   C1A10628   3.655  30.535  15.941  0.1679 -0.0721  0.3271
  906DOPE   D2A10629   3.885  30.945  15.762  0.0596 -0.0720  0.4515
  906DOPE   C3A10630   3.851  30.999  15.280  0.2371  0.0952 -0.2465
  906DOPE   C4A10631   3.994  30.898  14.854 -0.1323  0.1579 -0.0399
  906DOPE   C1B10632   4.180  30.575  15.715  0.2289  0.0923 -0.3527
  906DOPE   D2B10633   4.298  30.853  15.411  0.0720 -0.3804 -0.0439
  906DOPE   C3B10634   4.296  30.573  15.045  0.2483  0.2056 -0.2439
  906DOPE   C4B10635   4.480  30.417  14.697  0.2545  0.0790  0.4480
  907DOPE   NH310636   5.202  24.710  16.155 -0.0911 -0.0692  0.0011
  907DOPE   PO410637   5.473  24.585  16.189  0.1313 -0.0697  0.2656
  907DOPE   GL110638   5.492  24.608  15.816 -0.0583 -0.0027 -0.4598
  907DOPE   GL210639   5.598  24.930  15.735 -0.0289 -0.0602  0.0178
  907DOPE   C1A10640   5.234  24.540  15.417 -0.1196  0.0502  0.1440
  907DOPE   D2A10641   4.810  24.591  15.161  0.0949  0.0331  0.1878
  907DOPE   C3A10642   4.707  24.950  14.910  0.1971 -0.0831 -0.0458
  907DOPE   C4A10643   4.820  25.088  14.523  0.0738  0.1148 -0.2248
  907DOPE   C1B10644   5.520  25.035  15.305 -0.0023  0.0795 -0.1703
  907DOPE   D2B10645   5.421  24.696  14.993 -0.4863 -0.0833  0.0069
  907DOPE   C3B10646   5.644  24.786  14.555  0.1027  0.1234 -0.1597
  907DOPE   C4B10647   5.873  24.452  14.332 -0.0141 -0.1063  0.1031
  908DOPC   NC310648   7.129  26.416  16.017 -0.0843  0.3354 -0.0167
  908DOPC   PO410649   6.733  26.374  16.042 -0.0692  0.1282  0.0574
  908DOPC   GL110650   6.684  26.454  15.661 -0.1768  0.1535  0.5778
  908DOPC   GL210651   6.934  26.571  15.527  0.4067 -0.1902  0.1594
  908DOPC   C1A10652   6.538  26.259  15.289  0.0221 -0.1128  0.0774
  908DOPC   D2A10653   6.643  26.207  14.795 -0.1419  0.3443  0.3079
  908DOPC   C3A10654   6.477  26.380  14.386 -0.0483  0.1702  0.1867
  908DOPC   C4A10655   6.259  26.742  14.400 -0.1376 -0.3167  0.1921
  908DOPC   C1B10656   6.721  26.944  15.472 -0.3054 -0.0455  0.1308
  908DOPC   D2B10657   6.739  27.360  15.310 -0.3596 -0.0323 -0.1050
  908DOPC   C3B10658   6.443  27.720  15.163  0.1951  0.0246 -0.1503
  908DOPC   C4B10659   6.176  27.823  14.737  0.2802  0.1006  0.1601
  909POSM   NC310660   7.928  32.358  15.788 -0.0753  0.4178 -0.0502
  909POSM   PO410661   7.706  32.093  15.706  0.3048  0.2560 -0.0047
  909POSM   AM110662   7.749  31.956  15.426  0.1218  0.0267  0.3070
  909POSM   AM210663   8.029  31.914  15.334 -0.2646  0.1579  0.1231
  909POSM   T1A10664   7.654  31.825  14.957 -0.0584  0.2311  0.2379
  909POSM   C2A10665   7.776  32.025  14.549 -0.0661 -0.4056 -0.3374
  909POSM   C3A10666   7.900  31.933  14.125 -0.1659 -0.0872 -0.2114
  909POSM   C1B10667   8.153  31.635  15.295  0.1701  0.1205  0.0527
  909POSM   D2B10668   8.484  31.407  15.070 -0.0821 -0.0747  0.0660
  909POSM   C3B10669   8.184  31.445  14.759  0.2473  0.0777  0.0911
  909POSM   C4B10670   8.277  31.419  14.314 -0.1338  0.1747  0.0342
  910POSM   NC310671   2.592  33.618  15.705  0.1161  0.1337  0.0151
  910POSM   PO410672   2.293  33.719  15.978 -0.0332 -0.3668 -0.0305
  910POSM   AM110673   2.084  33.659  15.756 -0.2746  0.4467 -0.2911
  910POSM   AM210674   2.106  33.437  15.574  0.4479 -0.1205  0.1214
  910POSM   T1A10675   1.798  33.804  15.335 -0.1885 -0.1202  0.3588
  910POSM   C2A10676   1.882  33.809  14.929 -0.0080  0.2637 -0.0217
  910POSM   C3A10677   1.578  33.732  14.552  0.1355  0.2081  0.0919
  910POSM   C1B10678   2.146  33.300  15.258  0.1800 -0.4060 -0.1441
  910POSM   D2B10679   2.147  33.376  14.819  0.0861 -0.0488  0.0068
  910POSM   C3B10680   2.322  33.238  14.404  0.0183 -0.2139  0.0513
  910POSM   C4B10681   2.411  33.152  14.010  0.1517 -0.0436  0.1667
  911DOPC   NC310682   9.128  33.570  15.378 -0.0024  0.2439 -0.0234
  911DOPC   PO410683   8.929  33.220  15.382  0.4244  0.2271 -0.1425
  911DOPC   GL110684   8.755  33.134  15.093  0.0136  0.1919 -0.0576
  911DOPC   GL210685   8.514  33.229  14.996 -0.0608  0.1539  0.1700
  911DOPC   C1A10686   8.671  32.788  14.770  0.0194 -0.0322  0.2161
  911DOPC   D2A10687   8.370  32.474  14.592  0.0645 -0.2237 -0.0428
  911DOPC   C3A10688   8.463  32.544  14.186 -0.0514  0.0726  0.2572
  911DOPC   C4A10689   8.703  32.522  13.794  0.2867  0.0618  0.0844
  911DOPC   C1B10690   8.320  33.505  14.750 -0.0732 -0.1170  0.0223
  911DOPC   D2B10691   8.247  33.651  14.307 -0.0485 -0.0215 -0.1466
  911DOPC   C3B10692   7.994  33.353  14.039  0.1981  0.0417 -0.1261
  911DOPC   C4B10693   7.636  33.006  13.945  0.2049 -0.0080 -0.0981
  912DOPS   CNO10694   5.158  30.118  16.087 -0.3181 -0.0917  0.4651
  912DOPS   PO410695   5.047  29.791  16.191  0.3794  0.0499  0.0674
  912DOPS   GL110696   5.196  29.695  15.757  0.0080 -0.0824 -0.0238
  912DOPS   GL210697   5.409  29.607  15.711 -0.0201 -0.1497  0.1959
  912DOPS   C1A10698   5.181  30.036  15.548 -0.1316  0.1615  0.2343
  912DOPS   D2A10699   5.297  30.271  15.177 -0.0246  0.0547 -0.2723
  912DOPS   C3A10700   5.165  30.706  15.257 -0.0079 -0.0832 -0.2240
  912DOPS   C4A10701   4.788  30.895  15.093 -0.0493  0.2870  0.0504
  912DOPS   C1B10702   5.330  29.642  15.284  0.0112 -0.0978  0.1276
  912DOPS   D2B10703   5.008  29.907  15.002 -0.1934  0.0023  0.0235
  912DOPS   C3B10704   4.593  30.048  15.037  0.3859 -0.4207 -0.2747
  912DOPS   C4B10705   4.318  30.191  15.402 -0.2292  0.0003 -0.1611
  913DOPE   NH310706  10.857  28.968  15.771  0.0503 -0.1090 -0.4068
  913DOPE   PO410707  10.996  28.733  15.632  0.1511  0.3775  0.2812
  913DOPE   GL110708  10.932  28.576  15.278 -0.0824 -0.0445 -0.0800
  913DOPE   GL210709  10.766  28.375  15.328  0.0758 -0.2343 -0.0535
  913DOPE   C1A10710  10.709  28.502  14.877  0.1607 -0.1046  0.1105
  913DOPE   D2A10711  10.533  28.409  14.478  0.2492  0.2537  0.1108
  913DOPE   C3A10712  10.106  28.666  14.458  0.1065  0.0684  0.2824
  913DOPE   C4A10713   9.701  28.841  14.640  0.1340 -0.0532  0.1325
  913DOPE   C1B10714  10.401  28.330  15.141  0.2755  0.1121 -0.3062
  913DOPE   D2B10715  10.103  28.259  14.802  0.2783 -0.2120  0.0148
  913DOPE   C3B10716   9.647  28.357  14.641 -0.0047 -0.1077  0.1068
  913DOPE   C4B10717   9.278  28.237  14.376  0.0530  0.0225 -0.3999
  914DOPS   CNO10718   5.720  33.114  15.505 -0.2438 -0.0271 -0.3830
  914DOPS   PO410719   5.523  32.799  15.571  0.4055 -0.3578  0.2581
  914DOPS   GL110720   5.309  32.633  15.204 -0.4591 -0.1058  0.5134
  914DOPS   GL210721   5.494  32.495  15.071 -0.0329 -0.1248 -0.1088
  914DOPS   C1A10722   5.289  33.003  14.947  0.3575  0.4791 -0.0158
  914DOPS   D2A10723   5.160  33.081  14.519 -0.0100 -0.0145  0.1269
  914DOPS   C3A10724   4.712  32.969  14.592 -0.2414 -0.0585 -0.0407
  914DOPS   C4A10725   4.404  33.204  14.294  0.1563  0.2803  0.1287
  914DOPS   C1B10726   5.318  32.222  14.740  0.0610 -0.2986  0.1376
  914DOPS   D2B10727   5.124  32.076  14.342  0.3072 -0.0531  0.1874
  914DOPS   C3B10728   5.218  32.070  13.850  0.1201  0.0753  0.0686
  914DOPS   C4B10729   5.072  32.226  13.416  0.0082 -0.1058  0.0795
  915DOPS   CNO10730   1.562  25.125  16.030  0.2120 -0.1497 -0.0754
  915DOPS   PO410731   1.940  25.003  16.046 -0.0286 -0.3230 -0.0569
  915DOPS   GL110732   1.829  24.875  15.692  0.1728  0.0534 -0.0149
  915DOPS   GL210733   1.721  25.147  15.519  0.0125  0.0011 -0.0660
  915DOPS   C1A10734   1.902  24.450  15.505 -0.3228 -0.1826  0.0947
  915DOPS   D2A10735   2.193  24.276  15.177  0.0049 -0.5676 -0.2568
  915DOPS   C3A10736   2.144  24.292  14.704  0.1258 -0.2036 -0.1092
  915DOPS   C4A10737   1.963  24.349  14.259 -0.2280  0.2240  0.3668
  915DOPS   C1B10738   2.106  24.939  15.344  0.2341 -0.1815 -0.1404
  915DOPS   D2B10739   2.190  24.745  14.988  0.0008 -0.1834 -0.1151
  915DOPS   C3B10740   2.453  24.694  14.675  0.0141  0.2373 -0.0189
  915DOPS   C4B10741   2.379  24.777  14.250 -0.2368 -0.0201 -0.0842
  916POSM   NC310742   1.732  29.580  16.051  0.3650 -0.1375 -0.2147
  916POSM   PO410743   1.804  29.919  16.272  0.0772  0.0350 -0.2096
  916POSM   AM110744   1.851  30.159  16.009 -0.1717  0.2231  0.0306
  916POSM   AM210745   1.651  30.320  15.882  0.3208 -0.3043  0.0306
  916POSM   T1A10746   2.124  30.502  15.794 -0.0960 -0.0991  0.3012
  916POSM   C2A10747   2.225  30.981  15.748  0.0971  0.2721  0.0312
  916POSM   C3A10748   2.351  31.390  15.810 -0.1832 -0.3808 -0.1320
  916POSM   C1B10749   1.610  30.569  15.624  0.0154 -0.1776 -0.1295
  916POSM   D2B10750   1.759  30.877  15.416 -0.1018 -0.2441  0.0006
  916POSM   C3B10751   2.035  31.144  15.167 -0.1646 -0.0065  0.0790
  916POSM   C4B10752   2.103  31.104  14.746  0.3550 -0.0651 -0.2425
  917POSM   NC310753   8.909  29.096  16.274  0.1322  0.3327 -0.2229
  917POSM   PO410754   8.555  28.902  16.325 -0.0806  0.2605  0.1622
  917POSM   AM110755   8.397  28.858  16.012 -0.2536  0.2751 -0.0808
  917POSM   AM210756   8.396  28.758  15.755  0.0496 -0.0478  0.2018
  917POSM   T1A10757   8.238  29.171  15.643  0.1431  0.3189  0.1173
  917POSM   C2A10758   7.893  29.353  15.321 -0.0393 -0.0959 -0.0296
  917POSM   C3A10759   7.626  29.518  15.027 -0.0635  0.2384  0.1398
  917POSM   C1B10760   8.466  28.742  15.438  0.0664 -0.0292  0.2870
  917POSM   D2B10761   8.320  29.117  15.116  0.0290  0.3713  0.0446
  917POSM   C3B10762   7.935  29.133  14.911 -0.0813 -0.0399  0.2498
  917POSM   C4B10763   7.650  29.258  14.529 -0.1968  0.1332 -0.0313
  918DOPC   NC310764   3.098  25.810  16.031  0.2738 -0.0943  0.0474
  918DOPC   PO410765   3.023  25.467  16.157 -0.0051 -0.0825  0.0662
  918DOPC   GL110766   2.855  25.447  15.863 -0.0613  0.1069  0.0696
  918DOPC   GL210767   3.122  25.453  15.643  0.1903  0.2217  0.3095
  918DOPC   C1A10768   2.624  25.452  15.448  0.0253  0.1307  0.1227
  918DOPC   D2A10769   2.412  25.297  15.059  0.1949 -0.1565 -0.0001
  918DOPC   C3A10770   2.422  25.301  14.564  0.0259 -0.3690  0.0393
  918DOPC   C4A10771   2.558  25.406  14.113  0.0593  0.3462  0.1898
  918DOPC   C1B10772   3.071  25.278  15.222 -0.0088 -0.1644 -0.1412
  918DOPC   D2B10773   2.867  25.554  14.986  0.2044  0.3508  0.0719
  918DOPC   C3B10774   2.787  25.636  14.557 -0.0389 -0.3295  0.2096
  918DOPC   C4B10775   2.885  25.803  14.165  0.2016  0.1553 -0.0185
  919POSM   NC310776   5.758  33.861  15.955  0.1156 -0.0729 -0.2981
  919POSM   PO410777   5.376  33.925  15.833 -0.1194  0.1029 -0.0811
  919POSM   AM110778   5.297  33.928  15.497 -0.0667  0.2032  0.5508
  919POSM   AM210779   5.400  34.063  15.246  0.0094 -0.0046  0.1255
  919POSM   T1A10780   4.958  33.790  15.121  0.1644  0.1365  0.1365
  919POSM   C2A10781   4.987  33.997  14.658  0.0577  0.2580 -0.1565
  919POSM   C3A10782   4.874  33.887  14.202  0.3359 -0.0714 -0.3328
  919POSM   C1B10783   5.444  33.870  14.984 -0.2492 -0.0312  0.2155
  919POSM   D2B10784   5.355  33.548  14.697  0.3857 -0.1430 -0.0541
  919POSM   C3B10785   5.297  33.516  14.257 -0.0393 -0.2954 -0.0469
  919POSM   C4B10786   5.100  33.549  13.820  0.1231 -0.1038 -0.2300
  920DOPC   NC310787   7.050  30.491  15.939  0.2616  0.0247 -0.0458
  920DOPC   PO410788   7.157  30.175  16.207  0.3071 -0.1421  0.1699
  920DOPC   GL110789   7.004  29.994  15.861  0.0327 -0.1226  0.1977
  920DOPC   GL210790   7.265  29.833  15.720 -0.2001 -0.3587 -0.1194
  920DOPC   C1A10791   6.785  29.619  15.669  0.3072  0.0920 -0.0561
  920DOPC   D2A10792   6.571  29.398  15.320  0.2219  0.2261  0.0567
  920DOPC   C3A10793   6.407  29.631  14.954  0.0194 -0.0517  0.4290
  920DOPC   C4A10794   6.132  29.511  14.648  0.0412  0.3107  0.0418
  920DOPC   C1B10795   7.087  29.706  15.298 -0.0721 -0.1422 -0.1282
  920DOPC   D2B10796   7.012  29.546  14.857  0.3188 -0.0111 -0.1955
  920DOPC   C3B10797   7.114  29.330  14.490 -0.0507  0.0431  0.0546
  920DOPC   C4B10798   7.316  29.398  14.023  0.2506 -0.1624 -0.0201
  921POSM   NC310799   6.286  28.378  16.117 -0.3185 -0.0120 -0.2759
  921POSM   PO410800   6.367  28.732  16.247  0.0059 -0.1394  0.2509
  921POSM   AM110801   6.573  28.718  15.946  0.3315 -0.0672 -0.2715
  921POSM   AM210802   6.512  28.567  15.737  0.1863  0.1837  0.1636
  921POSM   T1A10803   6.863  28.918  15.589 -0.0151  0.1072  0.0226
  921POSM   C2A10804   7.246  28.775  15.499 -0.1900 -0.0513  0.0420
  921POSM   C3A10805   7.498  29.024  15.192 -0.1330  0.0054 -0.2332
  921POSM   C1B10806   6.521  28.649  15.399 -0.1614  0.1057 -0.2011
  921POSM   D2B10807   6.758  28.773  15.051 -0.1410  0.3475  0.1033
  921POSM   C3B10808   6.505  29.150  14.882  0.0011  0.0527  0.2729
  921POSM   C4B10809   6.622  29.474  14.534  0.1605  0.3243 -0.0096
  922POSM   NC310810   8.542  24.403  16.612  0.3233  0.3563 -0.1439
  922POSM   PO410811   8.422  24.367  16.245  0.2455  0.0412  0.2137
  922POSM   AM110812   8.524  24.245  15.943 -0.0180  0.1192  0.0079
  922POSM   AM210813   8.548  24.041  15.820  0.1298 -0.2516 -0.2432
  922POSM   T1A10814   8.367  24.488  15.541  0.2050 -0.1240 -0.0002
  922POSM   C2A10815   8.657  24.806  15.367  0.0853  0.0847 -0.2202
  922POSM   C3A10816   8.881  24.835  14.967 -0.2312  0.2357 -0.1999
  922POSM   C1B10817   8.534  24.014  15.511 -0.0694  0.0185  0.0300
  922POSM   D2B10818   8.276  24.112  15.076  0.1697  0.0895  0.3109
  922POSM   C3B10819   8.340  24.233  14.653 -0.0896 -0.1543  0.1348
  922POSM   C4B10820   8.540  24.311  14.223 -0.0663  0.1980  0.3340
  923DOPC   NC310821   2.127  26.115  16.069 -0.0121 -0.0881 -0.2768
  923DOPC   PO410822   1.871  26.422  16.054 -0.0204 -0.1834  0.0999
  923DOPC   GL110823   2.049  26.590  15.741  0.2221 -0.4329 -0.3603
  923DOPC   GL210824   2.013  26.326  15.531  0.0002 -0.1863 -0.1462
  923DOPC   C1A10825   2.415  26.710  15.503 -0.2939  0.0431 -0.1552
  923DOPC   D2A10826   2.582  26.893  15.138  0.1195 -0.2176 -0.0173
  923DOPC   C3A10827   2.496  27.256  14.896  0.2428 -0.1675 -0.1058
  923DOPC   C4A10828   2.676  27.450  14.461 -0.1765  0.2115  0.1825
  923DOPC   C1B10829   1.701  26.539  15.300  0.1377  0.3098  0.0953
  923DOPC   D2B10830   1.462  26.253  14.990  0.2482 -0.0208  0.3605
  923DOPC   C3B10831   1.814  26.278  14.644  0.0403  0.3141  0.2124
  923DOPC   C4B10832   1.759  26.045  14.228  0.1385 -0.0262 -0.1262
  924DOPE   NH310833   2.385  25.371  16.125  0.0379 -0.1434  0.1545
  924DOPE   PO410834   2.253  25.649  16.186 -0.1164 -0.1044 -0.2262
  924DOPE   GL110835   2.541  25.823  15.945 -0.1223 -0.1185  0.2652
  924DOPE   GL210836   2.311  25.777  15.656 -0.0056 -0.3786 -0.1882
  924DOPE   C1A10837   2.784  25.941  15.536  0.2927 -0.0992 -0.0480
  924DOPE   D2A10838   2.964  26.046  15.146  0.3231  0.0623  0.0536
  924DOPE   C3A10839   3.258  25.920  14.811  0.1942  0.2602 -0.0521
  924DOPE   C4A10840   3.384  25.657  14.453  0.0462 -0.0424  0.1075
  924DOPE   C1B10841   2.264  25.742  15.208  0.0035  0.0625  0.2955
  924DOPE   D2B10842   2.156  25.637  14.766 -0.4067 -0.2278  0.1114
  924DOPE   C3B10843   2.317  25.819  14.386  0.2936 -0.3323  0.1874
  924DOPE   C4B10844   2.425  25.898  13.928 -0.1131  0.1140 -0.0108
  925DOPC   NC310845   0.516  27.263  15.825 -0.2939  0.3803 -0.3239
  925DOPC   PO410846   0.897  27.116  15.842  0.1597  0.1970  0.2522
  925DOPC   GL110847   0.938  27.384  15.573 -0.0342 -0.0259 -0.1194
  925DOPC   GL210848   0.761  27.273  15.343  0.1765  0.0802 -0.0462
  925DOPC   C1A10849   1.151  27.798  15.443 -0.0614  0.0944 -0.1942
  925DOPC   D2A10850   1.349  27.801  15.065  0.0933  0.0493  0.0237
  925DOPC   C3A10851   1.011  27.597  14.863  0.0208  0.3631 -0.1639
  925DOPC   C4A10852   0.858  27.594  14.412 -0.0083 -0.2406  0.0814
  925DOPC   C1B10853   1.186  27.207  15.243 -0.0841  0.0930  0.0902
  925DOPC   D2B10854   1.547  27.291  14.921  0.0350 -0.1700 -0.0157
  925DOPC   C3B10855   1.538  27.539  14.541 -0.0568 -0.4781  0.2915
  925DOPC   C4B10856   1.817  27.805  14.260  0.1106  0.1104  0.0964
  926POSM   NC310857   9.325  31.080  15.506  0.1856  0.1300 -0.3393
  926POSM   PO410858   9.451  30.889  15.823 -0.0090  0.2119  0.0719
  926POSM   AM110859   9.528  30.690  15.568  0.3948  0.0357 -0.0879
  926POSM   AM210860   9.478  30.462  15.407  0.1667  0.0761  0.2206
  926POSM   T1A10861   9.832  30.731  15.148  0.0795  0.0192  0.1494
  926POSM   C2A10862  10.217  30.603  14.943 -0.0623  0.0942 -0.2642
  926POSM   C3A10863  10.526  30.839  14.710  0.0535  0.0496  0.1211
  926POSM   C1B10864   9.295  30.591  15.114 -0.2810 -0.2933  0.0529
  926POSM   D2B10865   8.927  30.607  14.791  0.2592  0.1023  0.2147
  926POSM   C3B10866   8.973  30.353  14.424 -0.0085  0.2824 -0.2489
  926POSM   C4B10867   9.221  29.952  14.412 -0.1023  0.0128 -0.2759
  927POSM   NC310868   1.045  33.512  16.307 -0.2128  0.1102  0.0128
  927POSM   PO410869   1.132  33.122  16.413  0.0246  0.1042  0.3716
  927POSM   AM110870   1.036  33.017  16.137 -0.0928 -0.2055  0.1248
  927POSM   AM210871   1.190  32.884  15.929  0.2880  0.0585 -0.0831
  927POSM   T1A10872   0.815  33.114  15.732  0.2163 -0.0496 -0.0428
  927POSM   C2A10873   0.935  33.265  15.323  0.4020  0.1170  0.3698
  927POSM   C3A10874   0.890  32.975  14.978  0.1273 -0.0510 -0.0059
  927POSM   C1B10875   1.229  32.890  15.563  0.4892 -0.1060 -0.3163
  927POSM   D2B10876   1.382  32.960  15.115  0.1124  0.0341  0.2752
  927POSM   C3B10877   1.345  32.728  14.706 -0.0636 -0.0430  0.2417
  927POSM   C4B10878   1.289  32.594  14.265 -0.0610  0.0425 -0.2165
  928POSM   NC310879   3.686  28.828  16.086  0.1258  0.2925  0.1812
  928POSM   PO410880   3.401  29.139  16.143  0.0193  0.3848 -0.1384
  928POSM   AM110881   3.406  29.364  15.933  0.0085 -0.3800  0.4544
  928POSM   AM210882   3.434  29.646  15.998  0.0370 -0.1803 -0.1607
  928POSM   T1A10883   3.628  29.357  15.475  0.3466  0.1386  0.1671
  928POSM   C2A10884   3.792  29.485  15.079  0.2047  0.0938 -0.2136
  928POSM   C3A10885   3.861  29.474  14.637 -0.2080  0.0700  0.0232
  928POSM   C1B10886   3.445  29.770  15.655 -0.3544 -0.2570 -0.1142
  928POSM   D2B10887   3.330  29.720  15.179  0.0250 -0.0368 -0.0750
  928POSM   C3B10888   2.946  29.526  15.009 -0.0647 -0.0411  0.0600
  928POSM   C4B10889   2.455  29.423  14.902 -0.3133  0.2069 -0.0272
  929POSM   NC310890   2.737  33.851  16.277  0.0298 -0.0658  0.3660
  929POSM   PO410891   2.681  34.033  15.932  0.1713 -0.0131 -0.4359
  929POSM   AM110892   2.668  34.151  15.632 -0.2506  0.1129 -0.3389
  929POSM   AM210893   2.868  34.330  15.573 -0.0106 -0.2401  0.3290
  929POSM   T1A10894   2.687  34.083  15.116 -0.0554 -0.0621  0.1612
  929POSM   C2A10895   2.407  33.994  14.722  0.0494  0.1960  0.2609
  929POSM   C3A10896   2.083  33.769  14.471  0.3882 -0.0401 -0.2105
  929POSM   C1B10897   2.984  34.497  15.273  0.3332 -0.2299 -0.1395
  929POSM   D2B10898   3.355  34.589  14.952  0.1981  0.0524  0.0920
  929POSM   C3B10899   3.563  34.206  14.747  0.1092  0.0663  0.0866
  929POSM   C4B10900   3.868  33.842  14.713  0.0475 -0.1488 -0.0325
  930DOPC   NC310901  11.304  30.724  15.897  0.1964  0.2593 -0.0669
  930DOPC   PO410902  11.026  30.660  15.609 -0.0761 -0.3113 -0.1553
  930DOPC   GL110903  11.167  30.699  15.256 -0.3174 -0.0700 -0.1068
  930DOPC   GL210904  11.298  30.459  15.221 -0.1780 -0.1683 -0.2174
  930DOPC   C1A10905  11.083  30.918  14.840 -0.0095  0.2124 -0.0571
  930DOPC   D2A10906  11.234  30.847  14.420  0.0789  0.2470  0.0157
  930DOPC   C3A10907  10.972  30.612  14.157  0.1756 -0.1913 -0.1536
  930DOPC   C4A10908  10.563  30.532  13.994  0.0749  0.0570 -0.0684
  930DOPC   C1B10909  11.294  30.372  14.793  0.0085  0.0507  0.0702
  930DOPC   D2B10910  11.328  30.247  14.379  0.1183  0.0332  0.0202
  930DOPC   C3B10911  11.362  30.267  13.915 -0.0017 -0.3368 -0.0853
  930DOPC   C4B10912  11.532  30.434  13.573  0.1381 -0.0058 -0.0707
  931POSM   NC310913  10.282  30.987  15.383 -0.0748  0.3075  0.2425
  931POSM   PO410914  10.561  30.897  15.670 -0.1677 -0.0224  0.0563
  931POSM   AM110915  10.747  30.909  15.387  0.2718  0.1098  0.2497
  931POSM   AM210916  10.909  31.101  15.234 -0.1350 -0.2091 -0.0857
  931POSM   T1A10917  10.794  30.522  14.997 -0.1137  0.2178 -0.1166
  931POSM   C2A10918  10.809  30.341  14.520 -0.1883 -0.1861 -0.1428
  931POSM   C3A10919  10.905  30.153  14.096 -0.2124  0.4028  0.0108
  931POSM   C1B10920  10.761  31.228  14.979  0.4428 -0.2541 -0.0610
  931POSM   D2B10921  10.718  31.322  14.538  0.3786  0.0185 -0.0364
  931POSM   C3B10922  10.712  31.064  14.150 -0.3220  0.1457  0.3105
  931POSM   C4B10923  10.551  30.922  13.735 -0.3150 -0.0305  0.1855
  932DOPS   CNO10924   5.213  28.534  16.469  0.2543 -0.0761 -0.0943
  932DOPS   PO410925   5.217  28.539  16.105 -0.1850  0.0424 -0.1046
  932DOPS   GL110926   5.083  28.849  15.867 -0.3330  0.0136  0.0176
  932DOPS   GL210927   4.939  28.682  15.638  0.2014 -0.3370 -0.1305
  932DOPS   C1A10928   5.111  29.178  15.517  0.1577  0.0307  0.0474
  932DOPS   D2A10929   4.937  29.212  15.048 -0.0772 -0.1688  0.1311
  932DOPS   C3A10930   5.083  29.471  14.716 -0.2617  0.0493 -0.1060
  932DOPS   C4A10931   5.439  29.752  14.820  0.2722 -0.2600  0.0671
  932DOPS   C1B10932   4.748  28.765  15.239 -0.2206 -0.0680 -0.0274
  932DOPS   D2B10933   4.727  28.689  14.734 -0.0701  0.0584  0.0005
  932DOPS   C3B10934   4.996  29.028  14.511  0.1205 -0.1328  0.1228
  932DOPS   C4B10935   5.180  29.380  14.171 -0.2450 -0.0791 -0.2373
  933DOPS   CNO10936   0.395  30.332  16.243 -0.2792  0.1237 -0.0013
  933DOPS   PO410937   0.562  29.989  16.258 -0.1208 -0.0118 -0.1398
  933DOPS   GL110938   0.474  29.985  15.933 -0.2123 -0.4181  0.1207
  933DOPS   GL210939   0.309  29.876  15.700  0.2088 -0.1865 -0.2443
  933DOPS   C1A10940   0.516  30.318  15.595  0.0644 -0.1059 -0.1895
  933DOPS   D2A10941   0.630  30.646  15.271  0.1285 -0.0488  0.0637
  933DOPS   C3A10942   0.697  30.419  14.864  0.0941 -0.0630 -0.0704
  933DOPS   C4A10943   0.940  30.211  14.589 -0.0440 -0.3194  0.2196
  933DOPS   C1B10944   0.579  29.590  15.461  0.2856 -0.3062  0.0598
  933DOPS   D2B10945   0.764  29.535  15.017  0.0487 -0.0009  0.2180
  933DOPS   C3B10946   0.422  29.645  14.751  0.0098 -0.0334  0.3062
  933DOPS   C4B10947   0.360  29.539  14.311 -0.0740  0.2240  0.0114
  934DOPS   CNO10948   5.656  31.431  16.685 -0.1339  0.1102  0.1544
  934DOPS   PO410949   5.918  31.228  16.594 -0.3239  0.0251  0.0346
  934DOPS   GL110950   5.741  31.184  16.300  0.0308 -0.0678  0.3496
  934DOPS   GL210951   5.640  30.909  16.231 -0.1402 -0.2632  0.0235
  934DOPS   C1A10952   5.634  31.340  15.876 -0.0375  0.0424 -0.3888
  934DOPS   D2A10953   5.411  31.126  15.475 -0.3524 -0.0088  0.0291
  934DOPS   C3A10954   5.181  31.299  15.159  0.2695 -0.1143 -0.0197
  934DOPS   C4A10955   5.094  31.271  14.688  0.0037  0.0513  0.2492
  934DOPS   C1B10956   5.839  30.860  15.829 -0.0061 -0.0388  0.3637
  934DOPS   D2B10957   5.959  31.131  15.447 -0.3133 -0.1668  0.0901
  934DOPS   C3B10958   5.654  31.045  15.073 -0.0962  0.0483 -0.2037
  934DOPS   C4B10959   5.327  30.850  14.759 -0.1766 -0.4136 -0.0659
  935POSM   NC310960   7.804  26.756  16.074  0.3540  0.0984  0.0382
  935POSM   PO410961   7.610  26.404  16.008 -0.2350 -0.0190  0.0037
  935POSM   AM110962   7.691  26.330  15.691 -0.0948  0.0977  0.3161
  935POSM   AM210963   7.765  26.120  15.493 -0.1850 -0.0568 -0.0101
  935POSM   T1A10964   7.808  26.486  15.207  0.1746  0.1781  0.1888
  935POSM   C2A10965   8.043  26.604  14.785  0.0316  0.1135 -0.1325
  935POSM   C3A10966   8.483  26.608  14.618  0.5884  0.1232  0.0852
  935POSM   C1B10967   7.973  26.021  15.138  0.2908 -0.0477 -0.1708
  935POSM   D2B10968   8.266  26.055  14.775  0.2677  0.0076 -0.1077
  935POSM   C3B10969   8.200  25.927  14.354  0.3273 -0.4582 -0.1177
  935POSM   C4B10970   8.310  26.210  13.962 -0.0548  0.0657 -0.0012
  936DOPE   NH310971   7.967  34.606  16.047 -0.0503 -0.0741  0.0464
  936DOPE   PO410972   8.063  34.424  15.788  0.0662  0.0134 -0.0680
  936DOPE   GL110973   7.809  34.611  15.520  0.0821 -0.1903  0.1038
  936DOPE   GL210974   7.660  34.352  15.524  0.0218  0.5316  0.3124
  936DOPE   C1A10975   7.829  34.611  15.040  0.3603  0.0420 -0.1094
  936DOPE   D2A10976   7.611  34.850  14.691  0.2205 -0.1696 -0.1000
  936DOPE   C3A10977   7.497  34.677  14.265 -0.3078 -0.2173  0.1514
  936DOPE   C4A10978   7.143  34.628  13.960 -0.2169  0.0891  0.2672
  936DOPE   C1B10979   7.720  34.113  15.099 -0.0204 -0.2124 -0.1755
  936DOPE   D2B10980   7.953  33.980  14.710 -0.0229 -0.0127 -0.0031
  936DOPE   C3B10981   7.742  34.023  14.365  0.1733  0.0528  0.0470
  936DOPE   C4B10982   7.927  33.974  13.957  0.0114 -0.1277  0.1784
  937POSM   NC310983   5.477  23.758  16.398 -0.1160 -0.3665 -0.0064
  937POSM   PO410984   5.521  24.113  16.276  0.0243 -0.1130  0.2065
  937POSM   AM110985   5.340  24.010  16.041 -0.0198  0.1782 -0.0372
  937POSM   AM210986   5.242  24.229  15.850 -0.0110  0.0990  0.1624
  937POSM   T1A10987   5.183  23.681  15.712 -0.1420 -0.1692  0.0142
  937POSM   C2A10988   4.714  23.505  15.782  0.1559 -0.3348  0.0286
  937POSM   C3A10989   4.363  23.717  15.884 -0.0917  0.0081  0.1487
  937POSM   C1B10990   4.886  24.069  15.750 -0.0639  0.0166  0.2205
  937POSM   D2B10991   4.590  23.811  15.439 -0.0657  0.0323 -0.0582
  937POSM   C3B10992   4.579  23.924  14.975 -0.1320 -0.1841 -0.2938
  937POSM   C4B10993   4.520  23.787  14.530 -0.2889 -0.2307  0.3315
  938DOPS   CNO10994   7.526  30.666  15.933 -0.5036  0.2068  0.2002
  938DOPS   PO410995   7.550  30.315  15.823  0.2980  0.0610 -0.1468
  938DOPS   GL110996   7.292  30.702  15.555  0.0080 -0.1866  0.4278
  938DOPS   GL210997   7.270  30.524  15.415 -0.4269  0.2258 -0.0914
  938DOPS   C1A10998   7.371  30.960  15.178  0.1858 -0.0307  0.5805
  938DOPS   D2A10999   7.349  31.117  14.778  0.1659 -0.0836 -0.1219
  938DOPS   C3A11000   7.380  31.507  14.511  0.2537  0.2550 -0.4788
  938DOPS   C4A11001   7.488  31.664  14.068  0.3113  0.0507 -0.0480
  938DOPS   C1B11002   6.934  30.447  15.045  0.2230  0.0008  0.1670
  938DOPS   D2B11003   6.653  30.589  14.661  0.2047  0.0956 -0.0835
  938DOPS   C3B11004   6.487  30.332  14.331 -0.4660 -0.3529  0.1148
  938DOPS   C4B11005   6.671  29.852  14.133 -0.0953  0.0316 -0.1727
  939POSM   NC311006   9.881  28.365  16.054 -0.5227 -0.0289  0.2259
  939POSM   PO411007   9.642  28.588  15.866  0.0586  0.1548 -0.2172
  939POSM   AM111008   9.619  28.356  15.650  0.1683  0.2240 -0.2012
  939POSM   AM211009   9.833  28.159  15.618 -0.0025 -0.1312  0.0425
  939POSM   T1A11010   9.528  28.383  15.166 -0.2037  0.1329  0.0843
  939POSM   C2A11011   9.217  28.548  14.805  0.0357 -0.1202  0.5086
  939POSM   C3A11012   8.775  28.421  14.684  0.0300 -0.1064  0.1739
  939POSM   C1B11013   9.951  27.995  15.351  0.1399  0.1072 -0.2340
  939POSM   D2B11014  10.023  27.595  15.088  0.0804  0.2830  0.1506
  939POSM   C3B11015  10.169  27.532  14.692 -0.5412 -0.0605  0.2601
  939POSM   C4B11016  10.145  27.508  14.234 -0.0189 -0.1763  0.2903
  940POSM   NC311017   5.502  26.862  16.778 -0.1009  0.0784  0.1905
  940POSM   PO411018   5.558  26.794  16.398  0.1370 -0.0309 -0.0927
  940POSM   AM111019   5.495  26.702  16.077  0.1433  0.1148  0.0192
  940POSM   AM211020   5.448  26.894  15.853  0.0805 -0.3152 -0.0358
  940POSM   T1A11021   5.660  26.436  15.676  0.4624  0.1373  0.0612
  940POSM   C2A11022   5.545  26.305  15.188  0.3106 -0.0001 -0.0094
  940POSM   C3A11023   5.416  25.906  14.994 -0.0030 -0.0775  0.1667
  940POSM   C1B11024   5.429  26.843  15.537 -0.0609  0.0811 -0.2467
  940POSM   D2B11025   5.326  26.820  15.127  0.0448  0.1954  0.0727
  940POSM   C3B11026   5.316  26.928  14.668 -0.0987  0.0493 -0.1650
  940POSM   C4B11027   4.973  26.777  14.418  0.0362  0.0045 -0.1389
  941POSM   NC311028   1.850  30.865  16.879  0.3371 -0.2783  0.0721
  941POSM   PO411029   1.594  30.726  16.640 -0.0356 -0.0158  0.0807
  941POSM   AM111030   1.591  30.819  16.333  0.2107  0.0125  0.1200
  941POSM   AM211031   1.723  30.854  16.089 -0.2183 -0.0706  0.1252
  941POSM   T1A11032   1.331  31.134  16.009  0.1216 -0.1867  0.1865
  941POSM   C2A11033   1.428  31.299  15.591 -0.3330  0.1433  0.1100
  941POSM   C3A11034   1.345  31.505  15.196  0.0606 -0.0452  0.1338
  941POSM   C1B11035   1.869  31.167  16.032 -0.1465  0.1431  0.0584
  941POSM   D2B11036   1.901  31.384  15.635  0.2849 -0.0618  0.1743
  941POSM   C3B11037   2.165  31.567  15.279 -0.0052  0.2335  0.1120
  941POSM   C4B11038   2.269  31.853  14.911  0.3835  0.2929  0.5065
  942DOPE   NH311039  11.734  31.167  15.635 -0.2241  0.0174  0.0428
  942DOPE   PO411040  11.421  31.058  15.511 -0.1443  0.1816  0.1338
  942DOPE   GL111041  11.353  31.149  15.105  0.3448  0.2106  0.1982
  942DOPE   GL211042  11.474  31.425  15.129 -0.0371  0.0315  0.0894
  942DOPE   C1A11043  11.205  31.366  14.699  0.0130  0.4654 -0.1122
  942DOPE   D2A11044  11.156  31.376  14.233 -0.0522  0.0363 -0.0336
  942DOPE   C3A11045  11.451  31.364  13.874  0.0764 -0.0814  0.2800
  942DOPE   C4A11046  11.881  31.498  13.658 -0.1463 -0.0325  0.1598
  942DOPE   C1B11047  11.737  31.279  14.736 -0.0336 -0.0454  0.1975
  942DOPE   D2B11048  11.581  31.182  14.338 -0.0036 -0.0217  0.2711
  942DOPE   C3B11049  11.991  31.190  14.059  0.0388 -0.2180 -0.2788
  942DOPE   C4B11050  12.268  31.175  13.720 -0.0997  0.1321 -0.0148
  943DOPE   NH311051   1.493  30.361  16.323 -0.5383  0.4471  0.0852
  943DOPE   PO411052   1.220  30.503  16.247 -0.0443 -0.0773  0.2114
  943DOPE   GL111053   1.195  30.398  15.919  0.3775 -0.4362 -0.1086
  943DOPE   GL211054   0.898  30.286  15.944 -0.0907  0.1725 -0.0017
  943DOPE   C1A11055   1.098  30.653  15.562  0.0991 -0.3684  0.1029
  943DOPE   D2A11056   1.115  30.524  15.078  0.1599  0.0341 -0.2631
  943DOPE   C3A11057   1.006  30.789  14.624 -0.1557  0.0675  0.0297
  943DOPE   C4A11058   0.987  31.170  14.367 -0.0494  0.1224 -0.0910
  943DOPE   C1B11059   0.982  30.159  15.509 -0.0867  0.2648  0.1477
  943DOPE   D2B11060   0.948  29.994  15.055  0.1235  0.0184  0.2712
  943DOPE   C3B11061   1.094  29.717  14.693  0.3687  0.4572  0.1777
  943DOPE   C4B11062   0.925  29.369  14.431  0.0039 -0.1595 -0.0177
  944DOPS   CNO11063  11.986  23.953  15.482  0.2426 -0.2457  0.0306
  944DOPS   PO411064  11.771  23.806  15.775  0.3960 -0.1703 -0.0439
  944DOPS   GL111065  11.542  23.835  15.397  0.3143  0.1697  0.1970
  944DOPS   GL211066  11.507  24.159  15.416 -0.1641  0.1286  0.0064
  944DOPS   C1A11067  11.142  23.743  15.184  0.0766 -0.0497 -0.1213
  944DOPS   D2A11068  10.999  23.441  14.914 -0.0550 -0.1097  0.1874
  944DOPS   C3A11069  10.603  23.265  15.074 -0.1508 -0.1487 -0.0152
  944DOPS   C4A11070  10.209  23.183  15.187 -0.2926  0.1369  0.1316
  944DOPS   C1B11071  11.292  24.235  15.036  0.1713 -0.1087  0.2387
  944DOPS   D2B11072  11.113  24.344  14.550  0.0259 -0.1103 -0.1058
  944DOPS   C3B11073  11.328  24.375  14.131 -0.0462  0.1699 -0.1636
  944DOPS   C4B11074  11.479  24.610  13.758  0.1080  0.3238  0.1528
  945DOPS   CNO11075  34.422  27.342  15.721  0.2429  0.0007  0.3831
  945DOPS   PO411076  34.743  27.136  15.702 -0.0875 -0.0810 -0.2626
  945DOPS   GL111077  34.888  27.320  15.392  0.0066  0.0776  0.0106
  945DOPS   GL211078  34.823  27.619  15.473  0.0430 -0.1451  0.0016
  945DOPS   C1A11079  34.881  27.492  14.878  0.0186  0.1949 -0.3521
  945DOPS   D2A11080  34.573  27.331  14.572  0.1597 -0.1472 -0.0324
  945DOPS   C3A11081  34.566  26.921  14.483  0.1053  0.2951 -0.1154
  945DOPS   C4A11082  34.320  26.522  14.360 -0.1783  0.0061  0.4074
  945DOPS   C1B11083  34.749  27.917  15.109 -0.1713  0.0825  0.4389
  945DOPS   D2B11084  34.873  28.178  14.741 -0.1728  0.3331 -0.3231
  945DOPS   C3B11085  34.762  28.185  14.297 -0.0187 -0.1590 -0.2046
  945DOPS   C4B11086  34.540  28.225  13.872  0.3283  0.0423 -0.0920
  946DOPE   NH311087   4.620  33.300  16.006  0.0979 -0.0296  0.2250
  946DOPE   PO411088   4.295  33.323  15.982  0.2003 -0.1760  0.1357
  946DOPE   GL111089   4.193  33.090  15.651 -0.2240  0.1961 -0.1877
  946DOPE   GL211090   4.484  33.031  15.566 -0.1022 -0.1341  0.1316
  946DOPE   C1A11091   4.080  32.877  15.219  0.0422  0.0061 -0.2010
  946DOPE   D2A11092   3.714  32.744  14.856  0.1095  0.4127 -0.2811
  946DOPE   C3A11093   3.431  32.356  14.852  0.0304 -0.0288 -0.1385
  946DOPE   C4A11094   3.056  32.213  14.636 -0.0703  0.2845  0.0056
  946DOPE   C1B11095   4.372  32.577  15.467  0.0674 -0.0655 -0.0877
  946DOPE   D2B11096   4.320  32.317  15.103  0.4099  0.1143  0.3113
  946DOPE   C3B11097   3.991  32.306  14.757 -0.1237  0.1877  0.1833
  946DOPE   C4B11098   3.685  32.340  14.385  0.0955 -0.2374  0.0117
  947DOPC   NC311099   4.833  33.916  15.625  0.3003  0.0410  0.1746
  947DOPC   PO411100   4.536  33.806  15.912 -0.0544 -0.1125 -0.4093
  947DOPC   GL111101   4.382  33.607  15.564  0.2193 -0.4600 -0.2507
  947DOPC   GL211102   4.580  33.594  15.319 -0.0237 -0.0356 -0.3523
  947DOPC   C1A11103   4.038  33.657  15.236 -0.1259  0.2414  0.1763
  947DOPC   D2A11104   3.629  33.826  15.187  0.2564  0.1624 -0.0691
  947DOPC   C3A11105   3.339  33.736  14.845 -0.0856 -0.1322  0.0307
  947DOPC   C4A11106   3.087  33.746  14.518  0.1018  0.6366 -0.1911
  947DOPC   C1B11107   4.446  33.734  14.919  0.3738 -0.4498 -0.0948
  947DOPC   D2B11108   4.636  33.583  14.515  0.1324  0.1186 -0.0777
  947DOPC   C3B11109   4.850  33.294  14.168 -0.3526  0.2900 -0.0879
  947DOPC   C4B11110   5.166  32.876  14.095 -0.0552  0.2327  0.1477
  948DOPE   NH311111   5.630  32.542  16.140  0.0666  0.1652  0.0460
  948DOPE   PO411112   5.939  32.463  16.135 -0.4855  0.0761  0.2768
  948DOPE   GL111113   5.853  32.176  15.940  0.1530 -0.0760 -0.0101
  948DOPE   GL211114   5.697  32.281  15.739  0.1878 -0.0710  0.0398
  948DOPE   C1A11115   6.148  32.122  15.592  0.0915 -0.1256 -0.1768
  948DOPE   D2A11116   6.274  32.081  15.121  0.0704 -0.1785  0.0988
  948DOPE   C3A11117   6.716  32.132  15.115 -0.1224  0.2167  0.0554
  948DOPE   C4A11118   7.114  32.417  15.071 -0.1128 -0.1352 -0.1208
  948DOPE   C1B11119   5.656  32.087  15.327 -0.2399  0.0120  0.0439
  948DOPE   D2B11120   5.807  31.935  14.922 -0.0826 -0.1443 -0.0727
  948DOPE   C3B11121   5.830  31.887  14.516  0.1387  0.0799  0.1776
  948DOPE   C4B11122   5.897  31.571  14.159  0.0260  0.0795  0.2511
  949DOPC   NC311123  34.607  25.990  15.552  0.1478  0.0807 -0.2049
  949DOPC   PO411124  34.325  26.245  15.699  0.1521 -0.1903  0.2643
  949DOPC   GL111125  34.215  26.227  15.315  0.2587  0.3401  0.1808
  949DOPC   GL211126  34.414  26.368  15.164  0.0864  0.0607  0.0092
  949DOPC   C1A11127  34.280  25.839  15.054  0.0045  0.0019 -0.3009
  949DOPC   D2A11128  34.523  25.494  14.876 -0.0476 -0.3136  0.3055
  949DOPC   C3A11129  34.429  25.492  14.370 -0.1011 -0.2269  0.3458
  949DOPC   C4A11130  34.349  25.572  13.935  0.3553  0.1807  0.0598
  949DOPC   C1B11131  34.710  26.491  14.820  0.0063  0.0721 -0.1127
  949DOPC   D2B11132  35.020  26.688  14.571 -0.1936  0.0268 -0.2568
  949DOPC   C3B11133  35.225  26.639  14.189  0.1744 -0.1458 -0.0063
  949DOPC   C4B11134  35.322  26.890  13.829 -0.4628  0.0703  0.0459
  950DOPE   NH311135   9.417  28.095  15.977 -0.2777  0.0653 -0.2086
  950DOPE   PO411136   9.172  27.952  15.914  0.0759  0.0854 -0.0836
  950DOPE   GL111137   9.124  27.912  15.527  0.1101 -0.2929  0.3015
  950DOPE   GL211138   9.362  28.006  15.467 -0.3977  0.0465 -0.0552
  950DOPE   C1A11139   9.131  27.610  15.181 -0.0394 -0.2117 -0.1349
  950DOPE   D2A11140   9.013  27.373  14.850  0.0076 -0.1360  0.0073
  950DOPE   C3A11141   9.287  27.230  14.505  0.3360 -0.0140  0.1920
  950DOPE   C4A11142   9.499  27.213  14.043  0.1756 -0.2184  0.0122
  950DOPE   C1B11143   9.512  27.878  15.041  0.0100  0.1774  0.3146
  950DOPE   D2B11144   9.749  27.832  14.658  0.1664 -0.1743 -0.1181
  950DOPE   C3B11145  10.023  28.093  14.325 -0.0024  0.0279 -0.2493
  950DOPE   C4B11146  10.013  28.439  13.986 -0.1610  0.1174  0.2304
  951DOPE   NH311147   9.718  31.759  15.419  0.2072  0.0895  0.0225
  951DOPE   PO411148   9.532  31.505  15.321  0.0987 -0.0188  0.0678
  951DOPE   GL111149   9.679  31.334  15.045  0.1867 -0.2019 -0.0492
  951DOPE   GL211150   9.431  31.096  15.014 -0.0518 -0.1719  0.0053
  951DOPE   C1A11151   9.627  31.297  14.589  0.0179 -0.0404  0.0754
  951DOPE   D2A11152   9.744  31.339  14.151  0.0877  0.1615 -0.0761
  951DOPE   C3A11153   9.450  31.433  13.772  0.1860  0.1580  0.2766
  951DOPE   C4A11154   9.021  31.286  13.658 -0.0401 -0.1211  0.1574
  951DOPE   C1B11155   9.140  31.189  14.694  0.0554 -0.1838  0.0197
  951DOPE   D2B11156   8.878  31.058  14.388  0.4551  0.0907  0.0531
  951DOPE   C3B11157   9.191  30.719  14.225 -0.0305  0.3608 -0.1888
  951DOPE   C4B11158   9.654  30.789  14.157  0.0384  0.0169 -0.0683
  952DOPC   NC311159   2.601  24.121  16.288 -0.0648  0.1843 -0.0638
  952DOPC   PO411160   2.260  24.197  16.205  0.4185  0.1581  0.0496
  952DOPC   GL111161   2.297  23.967  15.826  0.0823  0.1790  0.2420
  952DOPC   GL211162   2.138  24.062  15.677  0.1224 -0.3157  0.3941
  952DOPC   C1A11163   2.573  23.851  15.464 -0.0793 -0.3894 -0.0102
  952DOPC   D2A11164   2.913  23.727  15.182  0.1349 -0.1084  0.1478
  952DOPC   C3A11165   3.111  24.082  14.920 -0.0280 -0.1090  0.0712
  952DOPC   C4A11166   2.886  24.410  14.648 -0.1561 -0.0663  0.0961
  952DOPC   C1B11167   1.738  23.799  15.556  0.3597 -0.0561 -0.3509
  952DOPC   D2B11168   1.611  23.380  15.469  0.1357 -0.0783  0.0637
  952DOPC   C3B11169   1.340  23.386  15.087  0.2322 -0.0793 -0.1504
  952DOPC   C4B11170   1.377  23.489  14.668 -0.1467  0.1460 -0.1696
  953DOPC   NC311171  11.126  28.085  15.164 -0.1038  0.2334  0.0758
  953DOPC   PO411172  11.161  27.722  15.368  0.3879  0.2367 -0.0470
  953DOPC   GL111173  11.271  27.612  14.990 -0.1120 -0.0904 -0.2177
  953DOPC   GL211174  11.085  27.739  14.830  0.2388  0.3832 -0.0604
  953DOPC   C1A11175  11.163  27.249  14.679 -0.2430 -0.1539 -0.2359
  953DOPC   D2A11176  10.978  26.958  14.383 -0.1641 -0.1633 -0.2093
  953DOPC   C3A11177  10.932  26.580  14.214 -0.0092 -0.0022 -0.2318
  953DOPC   C4A11178  10.958  26.471  13.758  0.0682  0.0883 -0.3053
  953DOPC   C1B11179  10.745  27.475  14.678 -0.0116 -0.3613 -0.0234
  953DOPC   D2B11180  10.518  27.054  14.821 -0.0697  0.0866  0.2621
  953DOPC   C3B11181  10.021  27.073  14.771 -0.1799  0.3022 -0.1018
  953DOPC   C4B11182   9.757  27.363  14.548 -0.0658 -0.0600 -0.0978
  954DOPE   NH311183   6.583  25.375  16.186 -0.1794  0.2585 -0.0231
  954DOPE   PO411184   6.826  25.408  16.006 -0.1226  0.1259 -0.0512
  954DOPE   GL111185   6.739  25.454  15.589 -0.0820 -0.0380 -0.0254
  954DOPE   GL211186   7.048  25.536  15.585  0.0531 -0.0992  0.1813
  954DOPE   C1A11187   6.708  25.376  15.107 -0.0777  0.0017  0.0002
  954DOPE   D2A11188   6.782  25.189  14.690 -0.1348  0.0462  0.0825
  954DOPE   C3A11189   6.490  25.084  14.440  0.1093  0.0698  0.3661
  954DOPE   C4A11190   6.319  24.818  14.156 -0.0069 -0.2182  0.0979
  954DOPE   C1B11191   7.422  25.636  15.356 -0.0073  0.2516  0.0679
  954DOPE   D2B11192   7.679  25.667  14.942  0.2844  0.1766 -0.0713
  954DOPE   C3B11193   7.763  26.077  14.705  0.0711 -0.0323  0.1232
  954DOPE   C4B11194   7.552  26.406  14.457 -0.0812  0.3048 -0.1875
  955DOPE   NH311195  11.689  29.738  15.880 -0.3329  0.0078  0.0430
  955DOPE   PO411196  11.524  29.874  15.646  0.0012 -0.1201  0.0065
  955DOPE   GL111197  11.379  29.933  15.322 -0.0638  0.2869 -0.1245
  955DOPE   GL211198  11.076  29.814  15.324  0.1484  0.0994  0.0853
  955DOPE   C1A11199  11.400  29.842  14.897  0.1582  0.1659 -0.1630
  955DOPE   D2A11200  11.255  29.746  14.482  0.0705  0.0131  0.2520
  955DOPE   C3A11201  10.919  29.638  14.172 -0.3684 -0.1822  0.2718
  955DOPE   C4A11202  10.542  29.648  13.892 -0.0939 -0.2422 -0.0230
  955DOPE   C1B11203  10.919  30.061  14.970  0.0389  0.2892  0.2642
  955DOPE   D2B11204  10.754  29.870  14.562  0.2802 -0.3546 -0.2952
  955DOPE   C3B11205  10.450  29.967  14.254  0.1870  0.0681  0.0155
  955DOPE   C4B11206  10.204  30.173  13.912  0.0184  0.0150 -0.2063
  956DOPS   CNO11207   2.294  27.964  16.409  0.0684  0.1965  0.1355
  956DOPS   PO411208   2.048  27.796  16.174 -0.0849 -0.1694  0.1813
  956DOPS   GL111209   1.852  27.945  15.799  0.0094  0.1265  0.1869
  956DOPS   GL211210   1.577  27.795  15.793 -0.0359  0.1885 -0.0598
  956DOPS   C1A11211   1.730  27.988  15.348  0.3395  0.1776  0.0961
  956DOPS   D2A11212   1.826  27.818  14.884  0.0358 -0.0012  0.0885
  956DOPS   C3A11213   1.931  28.144  14.554 -0.3538  0.1859 -0.1107
  956DOPS   C4A11214   1.746  28.288  14.170 -0.0286 -0.0466  0.1540
  956DOPS   C1B11215   1.537  27.494  15.422  0.1934  0.1331  0.1373
  956DOPS   D2B11216   1.945  27.498  15.208 -0.1101  0.1139 -0.1337
  956DOPS   C3B11217   2.347  27.705  15.090 -0.0614  0.1960 -0.1811
  956DOPS   C4B11218   2.773  27.770  14.911  0.1165  0.0571  0.1757
  957POSM   NC311219   4.616   0.052  15.720  0.0992 -0.0056 -0.0820
  957POSM   PO411220   4.557  -0.353  15.769 -0.1942 -0.1757 -0.1825
  957POSM   AM111221   4.588  -0.354  15.439 -0.2217  0.0845 -0.4891
  957POSM   AM211222   4.720  -0.436  15.162  0.0348 -0.1369  0.0868
  957POSM   T1A11223   4.446   0.004  15.131 -0.2905  0.1834 -0.1852
  957POSM   C2A11224   4.262   0.354  14.942 -0.2116  0.1339  0.2256
  957POSM   C3A11225   4.165   0.766  14.780  0.1440  0.0669  0.2280
  957POSM   C1B11226   4.742  -0.333  14.878  0.0637  0.1971  0.2777
  957POSM   D2B11227   4.490   0.013  14.625  0.0638 -0.0968 -0.2321
  957POSM   C3B11228   4.244  -0.169  14.240 -0.1462  0.1431 -0.0674
  957POSM   C4B11229   4.275  -0.218  13.812  0.1801 -0.0356  0.2630
  958DOPC   NC311230   0.571  28.243  16.049 -0.0298  0.0320  0.0919
  958DOPC   PO411231   0.315  28.530  16.022 -0.0532  0.0440 -0.2113
  958DOPC   GL111232   0.047  28.690  15.755 -0.0006 -0.0349 -0.0456
  958DOPC   GL211233   0.242  28.677  15.513  0.3496 -0.0923 -0.3908
  958DOPC   C1A11234  -0.114  29.103  15.713  0.1882  0.0451 -0.0489
  958DOPC   D2A11235   0.236  29.353  15.730 -0.0620  0.1483 -0.1140
  958DOPC   C3A11236   0.224  29.369  15.254  0.2109  0.3609 -0.1604
  958DOPC   C4A11237   0.158  29.227  14.770 -0.1251 -0.0321  0.1579
  958DOPC   C1B11238   0.480  28.901  15.185 -0.1797  0.3049  0.0538
  958DOPC   D2B11239   0.697  28.969  14.806 -0.0500  0.2567  0.1257
  958DOPC   C3B11240   0.474  29.020  14.388 -0.2594  0.2334 -0.2132
  958DOPC   C4B11241   0.495  28.972  13.951  0.0243 -0.0060  0.1868
  959DOPC   NC311242   4.181  26.630  16.243  0.0966  0.2844 -0.0956
  959DOPC   PO411243   4.491  26.451  16.045  0.0017  0.1877  0.0327
  959DOPC   GL111244   4.427  26.626  15.744 -0.0218 -0.5042 -0.0980
  959DOPC   GL211245   4.156  26.686  15.751 -0.0108 -0.0254 -0.2181
  959DOPC   C1A11246   4.547  26.687  15.251  0.0788  0.0238  0.2076
  959DOPC   D2A11247   4.820  26.853  14.878  0.1489 -0.0470  0.0078
  959DOPC   C3A11248   4.496  27.118  14.569 -0.1347 -0.0692 -0.1771
  959DOPC   C4A11249   4.327  27.338  14.185 -0.0683 -0.0263  0.0541
  959DOPC   C1B11250   3.947  26.671  15.330 -0.1252  0.2751 -0.1001
  959DOPC   D2B11251   3.899  26.539  14.889  0.0748  0.3048  0.1161
  959DOPC   C3B11252   4.327  26.535  14.732  0.2595  0.0944 -0.0267
  959DOPC   C4B11253   4.737  26.370  14.753 -0.0819  0.3378 -0.0988
  960DOPS   CNO11254   2.675  24.527  16.574  0.1593  0.2445  0.2428
  960DOPS   PO411255   3.035  24.658  16.655  0.0953 -0.1190 -0.0295
  960DOPS   GL111256   2.957  24.647  16.247 -0.1926 -0.0529 -0.3378
  960DOPS   GL211257   2.700  24.569  16.053 -0.0648 -0.4737  0.0070
  960DOPS   C1A11258   3.155  24.333  15.914  0.1672 -0.4105 -0.1733
  960DOPS   D2A11259   3.159  24.067  15.521 -0.1112 -0.2800  0.1722
  960DOPS   C3A11260   3.439  23.790  15.270 -0.0263  0.1837 -0.1034
  960DOPS   C4A11261   3.684  23.804  14.824  0.0968  0.2810 -0.1345
  960DOPS   C1B11262   2.827  24.683  15.597 -0.0591 -0.1437  0.5909
  960DOPS   D2B11263   2.613  24.959  15.334 -0.1565 -0.0320  0.0966
  960DOPS   C3B11264   2.788  24.999  14.898 -0.1030  0.2015 -0.0609
  960DOPS   C4B11265   3.030  25.206  14.618 -0.1030  0.1971  0.0173
  961DOPC   NC311266  10.790  34.062  15.274  0.3374 -0.2716  0.1421
  961DOPC   PO411267  10.454  34.234  15.447  0.3397 -0.0210  0.0582
  961DOPC   GL111268  10.305  34.247  15.060 -0.2287 -0.1040  0.1820
  961DOPC   GL211269  10.060  34.288  14.867  0.0660 -0.0582  0.0301
  961DOPC   C1A11270  10.410  34.632  14.778  0.2728  0.1059 -0.1427
  961DOPC   D2A11271  10.431  34.887  14.358 -0.0340 -0.0556  0.0165
  961DOPC   C3A11272  10.639  35.125  14.024  0.1383  0.0625 -0.1143
  961DOPC   C4A11273  10.767  35.256  13.628  0.1027  0.0904 -0.1651
  961DOPC   C1B11274  10.002  34.538  14.486  0.0412  0.0057 -0.1482
  961DOPC   D2B11275   9.924  34.876  14.118 -0.1440  0.0596  0.1123
  961DOPC   C3B11276   9.749  35.129  13.790 -0.2043 -0.1892 -0.0358
  961DOPC   C4B11277   9.429  35.204  13.483 -0.0793 -0.2388  0.0052
  962POSM   NC311278   8.469  27.909  16.532 -0.0322  0.0630 -0.0671
  962POSM   PO411279   8.632  27.829  16.159 -0.0440  0.2538 -0.0391
  962POSM   AM111280   8.647  27.674  15.853  0.3932  0.4788  0.2115
  962POSM   AM211281   8.512  27.694  15.614  0.0309 -0.0206  0.2135
  962POSM   T1A11282   8.933  27.367  15.551 -0.0059 -0.2882 -0.2564
  962POSM   C2A11283   9.150  27.096  15.301  0.0242 -0.4395  0.0078
  962POSM   C3A11284   9.527  26.828  15.336 -0.1335  0.0072  0.0464
  962POSM   C1B11285   8.649  27.886  15.290 -0.0317  0.0821  0.0092
  962POSM   D2B11286   8.528  28.308  15.125 -0.1351 -0.1571  0.0627
  962POSM   C3B11287   8.380  28.068  14.765  0.0213 -0.2369  0.1410
  962POSM   C4B11288   8.358  28.099  14.288 -0.0852 -0.2665  0.3253
  963DOPC   NC311289   6.130  24.874  15.579  0.1815 -0.2814 -0.2097
  963DOPC   PO411290   6.312  24.685  15.886 -0.1101  0.1529 -0.0161
  963DOPC   GL111291   6.117  24.340  15.836 -0.1733  0.2421 -0.2001
  963DOPC   GL211292   5.856  24.360  15.864  0.3277  0.1157  0.0799
  963DOPC   C1A11293   6.067  24.084  15.426  0.3048  0.2011  0.0137
  963DOPC   D2A11294   5.867  23.939  15.028  0.1601  0.3983  0.2717
  963DOPC   C3A11295   5.857  24.312  14.815  0.2545 -0.0199  0.1212
  963DOPC   C4A11296   6.179  24.631  14.738 -0.1044  0.4708  0.1819
  963DOPC   C1B11297   5.733  24.562  15.431 -0.1674  0.0309 -0.0937
  963DOPC   D2B11298   5.942  24.850  15.097  0.1875 -0.0708 -0.2894
  963DOPC   C3B11299   6.248  24.514  15.232  0.0370  0.3049 -0.0786
  963DOPC   C4B11300   6.358  24.100  14.999 -0.0702  0.1745 -0.0641
  964DOPC   NC311301   9.765  23.924  15.535  0.0713  0.2091  0.2568
  964DOPC   PO411302   9.403  23.889  15.734  0.0562  0.1004 -0.2805
  964DOPC   GL111303   9.318  23.814  15.396  0.3292  0.1973 -0.2609
  964DOPC   GL211304   9.037  23.802  15.256  0.1034  0.0692  0.1400
  964DOPC   C1A11305   9.530  23.753  15.023 -0.0229 -0.1486 -0.0537
  964DOPC   D2A11306   9.455  23.525  14.623  0.2473  0.0711 -0.4090
  964DOPC   C3A11307   9.724  23.509  14.256 -0.0381 -0.0128 -0.1927
  964DOPC   C4A11308   9.794  23.276  13.894  0.1643  0.3299  0.1121
  964DOPC   C1B11309   9.004  23.554  14.908 -0.1161  0.1317 -0.2187
  964DOPC   D2B11310   8.996  23.585  14.418 -0.2638  0.2475  0.1609
  964DOPC   C3B11311   8.711  23.726  14.071  0.0671  0.2652  0.2619
  964DOPC   C4B11312   8.839  23.539  13.727  0.2091  0.1404  0.1342
  965DOPE   NH311313   6.455  23.035  16.074  0.4023 -0.4062 -0.1758
  965DOPE   PO411314   6.785  23.110  16.101  0.1846 -0.0345 -0.3198
  965DOPE   GL111315   6.778  23.111  15.718 -0.2076  0.0198 -0.1596
  965DOPE   GL211316   7.034  23.231  15.653  0.0239 -0.0888  0.0482
  965DOPE   C1A11317   6.555  22.776  15.490  0.0625  0.2381  0.1120
  965DOPE   D2A11318   6.299  22.464  15.163 -0.2630 -0.1289 -0.2154
  965DOPE   C3A11319   6.535  22.355  14.776 -0.3036 -0.2809  0.3039
  965DOPE   C4A11320   6.361  22.559  14.448  0.2137 -0.0970  0.1678
  965DOPE   C1B11321   7.044  22.951  15.339  0.2159  0.0991  0.0302
  965DOPE   D2B11322   6.814  22.741  15.011  0.3955  0.0433  0.2046
  965DOPE   C3B11323   6.634  23.067  14.693 -0.1889  0.0262 -0.0920
  965DOPE   C4B11324   6.339  23.182  14.372 -0.2046  0.1165  0.0920
  966POSM   NC311325  10.598  24.852  15.884  0.0721  0.0108  0.2335
  966POSM   PO411326  10.743  24.488  15.940  0.2022 -0.0092 -0.0712
  966POSM   AM111327  10.685  24.482  15.618 -0.1726  0.2038 -0.1167
  966POSM   AM211328  10.645  24.711  15.443 -0.1467  0.2344  0.1169
  966POSM   T1A11329  10.384  24.326  15.225  0.0202  0.0403 -0.0517
  966POSM   C2A11330  10.315  24.172  14.798 -0.0835  0.0387 -0.0952
  966POSM   C3A11331  10.360  23.911  14.412 -0.1717  0.3477  0.3232
  966POSM   C1B11332  10.331  24.769  15.302  0.3655 -0.3328  0.1004
  966POSM   D2B11333  10.023  24.732  14.950 -0.0108 -0.2869  0.2826
  966POSM   C3B11334   9.757  25.017  14.716 -0.2007 -0.1710 -0.0010
  966POSM   C4B11335   9.747  25.245  14.321 -0.2148 -0.0279  0.0181
  967POSM   NC311336   0.948  29.763  16.019  0.2142 -0.3479  0.1078
  967POSM   PO411337   1.339  29.962  16.088  0.0549 -0.1422  0.0048
  967POSM   AM111338   1.462  29.943  15.773 -0.0505  0.1269  0.4409
  967POSM   AM211339   1.687  29.834  15.670 -0.0747 -0.0445  0.0026
  967POSM   T1A11340   1.440  30.132  15.343  0.0140 -0.0064  0.0149
  967POSM   C2A11341   1.391  30.135  14.874 -0.2692  0.1419 -0.0190
  967POSM   C3A11342   1.386  30.007  14.398 -0.1048 -0.4967  0.2382
  967POSM   C1B11343   1.867  30.003  15.489 -0.2979  0.2060 -0.1196
  967POSM   D2B11344   1.926  30.337  15.117 -0.1164  0.1292  0.3016
  967POSM   C3B11345   2.172  30.718  15.328 -0.1489 -0.1492  0.2339
  967POSM   C4B11346   2.640  30.653  15.478 -0.0368 -0.2452  0.2161
  968DOPE   NH311347   1.053  24.856  15.708 -0.0370 -0.1805  0.0303
  968DOPE   PO411348   1.249  25.033  15.619 -0.0763 -0.1103  0.0761
  968DOPE   GL111349   1.162  24.806  15.272 -0.0623  0.1011 -0.2067
  968DOPE   GL211350   1.427  24.666  15.260  0.2168  0.0682 -0.1945
  968DOPE   C1A11351   1.019  24.828  14.801  0.1189 -0.1308  0.5421
  968DOPE   D2A11352   0.990  25.160  14.478  0.0323 -0.2659  0.1998
  968DOPE   C3A11353   1.110  25.180  14.068  0.1767 -0.1268 -0.0182
  968DOPE   C4A11354   1.190  25.306  13.655  0.4697 -0.1505  0.2662
  968DOPE   C1B11355   1.656  24.998  15.000  0.1470 -0.1507 -0.1439
  968DOPE   D2B11356   1.846  25.067  14.575  0.1867 -0.0042 -0.2031
  968DOPE   C3B11357   1.455  24.913  14.425  0.0490  0.4919  0.1579
  968DOPE   C4B11358   1.072  24.727  14.229  0.0161  0.0812  0.1061
  969POSM   NC311359   0.273  25.209  15.797  0.1230 -0.1178 -0.2739
  969POSM   PO411360   0.614  25.151  15.662 -0.4463 -0.2038  0.0472
  969POSM   AM111361   0.740  25.018  15.371 -0.3879 -0.0036 -0.3424
  969POSM   AM211362   0.815  25.171  15.162  0.1389 -0.1982 -0.0658
  969POSM   T1A11363   0.770  24.589  15.172  0.3720 -0.0558  0.1265
  969POSM   C2A11364   1.116  24.374  14.900 -0.0124  0.1985 -0.2783
  969POSM   C3A11365   1.211  23.923  14.831  0.0632  0.0187  0.1767
  969POSM   C1B11366   0.805  25.397  14.873  0.0546 -0.2319 -0.2801
  969POSM   D2B11367   0.817  25.656  14.544 -0.0661 -0.0360 -0.1283
  969POSM   C3B11368   0.729  25.529  14.142  0.1276 -0.0177  0.0415
  969POSM   C4B11369   0.614  25.158  13.920 -0.0437 -0.0056 -0.1588
  970DOPE   NH311370   3.430  34.565  15.667 -0.1038  0.0999 -0.2958
  970DOPE   PO411371   3.685  34.399  15.767  0.1259 -0.1818  0.1769
  970DOPE   GL111372   3.846  34.194  15.475  0.0185  0.0058 -0.2629
  970DOPE   GL211373   3.703  34.327  15.244 -0.0605  0.0301 -0.0095
  970DOPE   C1A11374   4.146  34.142  15.151  0.0039  0.0208 -0.3519
  970DOPE   D2A11375   4.199  34.285  14.685  0.0750  0.0325  0.2944
  970DOPE   C3A11376   4.336  34.073  14.289 -0.0369  0.0081  0.2103
  970DOPE   C4A11377   4.454  33.759  13.916  0.2173 -0.0659  0.0287
  970DOPE   C1B11378   3.897  34.635  14.878 -0.1373  0.2160 -0.4099
  970DOPE   D2B11379   4.055  34.924  14.517 -0.2697  0.2737  0.0002
  970DOPE   C3B11380   3.868  35.279  14.355  0.4671 -0.2691 -0.0688
  970DOPE   C4B11381   3.817  35.730  14.428  0.0473 -0.2056 -0.1296
  971POSM   NC311382   1.180  27.471  16.070 -0.1858 -0.2088 -0.0653
  971POSM   PO411383   0.823  27.594  16.056 -0.2982  0.3659  0.2818
  971POSM   AM111384   0.688  27.736  15.806  0.1338  0.0276 -0.3296
  971POSM   AM211385   0.604  27.712  15.554  0.2897 -0.0517  0.1688
  971POSM   T1A11386   0.676  28.179  15.485 -0.1653 -0.1775 -0.1691
  971POSM   C2A11387   0.406  28.397  15.146  0.0280  0.0604 -0.0418
  971POSM   C3A11388   0.345  28.627  14.759  0.1882  0.0804 -0.0569
  971POSM   C1B11389   0.526  27.691  15.214  0.1024 -0.2361 -0.0971
  971POSM   D2B11390   0.647  27.920  14.783  0.0234  0.1036  0.0113
  971POSM   C3B11391   0.376  27.803  14.415  0.0929  0.1439 -0.1885
  971POSM   C4B11392   0.072  27.575  14.184 -0.0777  0.0307  0.0436
  972DOPS   CNO11393  11.427  25.787  15.119 -0.0281  0.1456 -0.1055
  972DOPS   PO411394  11.673  25.818  14.856  0.1283  0.4668  0.1689
  972DOPS   GL111395  11.655  25.542  14.527  0.0084 -0.1250 -0.1554
  972DOPS   GL211396  11.942  25.481  14.481  0.3194  0.1752  0.2394
  972DOPS   C1A11397  11.626  25.542  14.068  0.2695  0.2385  0.1075
  972DOPS   D2A11398  11.810  25.461  13.659 -0.1528 -0.0844 -0.0725
  972DOPS   C3A11399  11.672  25.109  13.431  0.0588 -0.0113  0.1965
  972DOPS   C4A11400  11.787  24.889  13.049 -0.1678 -0.0563  0.2092
  972DOPS   C1B11401  12.107  25.318  14.098 -0.0500  0.1108  0.0993
  972DOPS   D2B11402  12.210  25.089  13.720 -0.4062 -0.2520 -0.0913
  972DOPS   C3B11403  12.142  24.798  13.422 -0.3271 -0.1100 -0.3716
  972DOPS   C4B11404  12.502  24.615  13.164  0.0230  0.1139 -0.1493
  973DOPC   NC311405   5.849  33.941  15.372  0.1415 -0.0988 -0.0132
  973DOPC   PO411406   5.673  33.606  15.561  0.0964  0.0309  0.3913
  973DOPC   GL111407   5.569  33.441  15.153 -0.3219 -0.0180  0.1230
  973DOPC   GL211408   5.295  33.418  15.209 -0.0075 -0.4270 -0.0790
  973DOPC   C1A11409   5.775  33.067  14.902  0.1052  0.0877 -0.0095
  973DOPC   D2A11410   5.620  32.832  14.564 -0.2201  0.3275  0.2171
  973DOPC   C3A11411   5.832  32.457  14.390  0.1739 -0.1680  0.0916
  973DOPC   C4A11412   6.076  32.124  14.138  0.1361 -0.0970  0.3298
  973DOPC   C1B11413   4.897  33.325  14.924 -0.0192 -0.1335  0.1018
  973DOPC   D2B11414   4.459  33.220  15.088  0.1545 -0.0053  0.0935
  973DOPC   C3B11415   4.119  33.324  14.757 -0.0592 -0.1939 -0.3157
  973DOPC   C4B11416   4.168  33.623  14.376 -0.2145  0.3628 -0.1640
  974DOPS   CNO11417   0.335  32.973  16.769 -0.0387 -0.1065  0.1275
  974DOPS   PO411418   0.016  33.076  16.936 -0.1985  0.1678  0.3468
  974DOPS   GL111419  -0.029  33.077  16.558 -0.1440  0.1364 -0.1067
  974DOPS   GL211420   0.172  33.294  16.437 -0.0373  0.1418 -0.1259
  974DOPS   C1A11421   0.132  32.984  16.085 -0.1845  0.2757 -0.1893
  974DOPS   D2A11422   0.326  33.253  15.746 -0.0898  0.0196  0.0134
  974DOPS   C3A11423   0.368  33.658  15.511 -0.0424  0.1149 -0.0676
  974DOPS   C4A11424   0.738  33.756  15.284 -0.2234  0.0084  0.1272
  974DOPS   C1B11425  -0.002  33.663  16.221 -0.1789 -0.1577  0.1514
  974DOPS   D2B11426  -0.151  34.063  16.024 -0.1333  0.3216 -0.0751
  974DOPS   C3B11427  -0.280  34.250  15.621  0.0987 -0.0121 -0.2383
  974DOPS   C4B11428  -0.413  34.090  15.253  0.2650 -0.1943 -0.1958
  975DOPE   NH311429   9.087  31.909  15.423 -0.0073 -0.3181  0.1619
  975DOPE   PO411430   9.342  32.072  15.571  0.1620  0.1997 -0.1567
  975DOPE   GL111431   9.556  32.173  15.232 -0.1424 -0.0369  0.1445
  975DOPE   GL211432   9.358  32.092  14.997 -0.1473 -0.2566 -0.0849
  975DOPE   C1A11433   9.861  32.465  15.040 -0.0330 -0.2484 -0.0373
  975DOPE   D2A11434  10.256  32.327  14.998 -0.1808 -0.4394 -0.1466
  975DOPE   C3A11435  10.221  32.054  14.629  0.1108  0.0767 -0.2514
  975DOPE   C4A11436  10.313  31.951  14.157  0.0233  0.0238  0.2544
  975DOPE   C1B11437   9.269  32.183  14.525 -0.0383 -0.2329 -0.0097
  975DOPE   D2B11438   8.856  31.997  14.397 -0.1357  0.2342  0.1201
  975DOPE   C3B11439   8.712  32.067  13.938 -0.1024 -0.2886 -0.0509
  975DOPE   C4B11440   8.659  31.850  13.536 -0.1633 -0.2640  0.2352
  976DOPC   NC311441   1.284  28.978  15.969  0.1521  0.1458 -0.1008
  976DOPC   PO411442   1.277  29.356  16.101 -0.1774 -0.3309  0.0088
  976DOPC   GL111443   1.430  29.391  15.748 -0.1669 -0.1870 -0.2024
  976DOPC   GL211444   1.178  29.593  15.587 -0.2121  0.1513  0.1852
  976DOPC   C1A11445   1.734  29.371  15.423  0.0991  0.2451 -0.0674
  976DOPC   D2A11446   2.074  29.145  15.160 -0.1242 -0.3477  0.0453
  976DOPC   C3A11447   2.239  29.030  14.700  0.1783 -0.2762  0.2062
  976DOPC   C4A11448   2.325  29.025  14.275  0.2300 -0.2558 -0.0760
  976DOPC   C1B11449   1.363  29.600  15.174 -0.0354  0.1227 -0.1719
  976DOPC   D2B11450   1.738  29.677  15.059  0.2140 -0.0005 -0.0744
  976DOPC   C3B11451   2.211  29.807  15.186 -0.1017  0.1608  0.0913
  976DOPC   C4B11452   2.591  29.776  15.333 -0.0381  0.0074 -0.1226
  977DOPS   CNO11453   0.668  26.115  15.811 -0.0570 -0.1186  0.0311
  977DOPS   PO411454   0.309  26.173  15.815 -0.4745 -0.1125  0.2198
  977DOPS   GL111455   0.448  26.188  15.427  0.2642 -0.5950  0.1470
  977DOPS   GL211456   0.368  25.991  15.343  0.1672  0.0645  0.1834
  977DOPS   C1A11457   0.465  26.374  15.029 -0.1669 -0.0355 -0.0750
  977DOPS   D2A11458   0.450  26.148  14.647 -0.1465 -0.0749  0.0247
  977DOPS   C3A11459   0.213  26.271  14.314  0.0709 -0.0829 -0.2302
  977DOPS   C4A11460   0.039  26.591  14.053  0.4062  0.2688  0.1163
  977DOPS   C1B11461   0.033  26.032  14.996 -0.2136 -0.2551 -0.0411
  977DOPS   D2B11462  -0.082  25.920  14.558 -0.0682 -0.1998 -0.2759
  977DOPS   C3B11463  -0.227  26.045  14.140  0.2540 -0.1107 -0.4146
  977DOPS   C4B11464  -0.317  26.277  13.823  0.3088 -0.2556 -0.2217
  978DOPC   NC311465   4.069  25.275  16.166  0.2688  0.2584  0.0356
  978DOPC   PO411466   4.198  25.660  16.255 -0.2220  0.1559 -0.2535
  978DOPC   GL111467   3.939  25.787  15.922 -0.5479  0.2792  0.3915
  978DOPC   GL211468   4.160  25.591  15.760  0.2432 -0.1906  0.0192
  978DOPC   C1A11469   3.575  25.790  15.604 -0.0247  0.2181  0.3472
  978DOPC   D2A11470   3.372  25.725  15.243  0.0377 -0.0659 -0.0515
  978DOPC   C3A11471   3.405  25.429  14.871 -0.0295  0.2341  0.2041
  978DOPC   C4A11472   3.512  25.022  14.628  0.2979  0.0123  0.0691
  978DOPC   C1B11473   4.455  25.803  15.436 -0.1495  0.1363 -0.2059
  978DOPC   D2B11474   4.726  25.908  15.064  0.1058 -0.2446 -0.1225
  978DOPC   C3B11475   4.970  25.934  14.660  0.0790 -0.1018  0.0261
  978DOPC   C4B11476   4.865  26.017  14.265 -0.1005  0.0541 -0.1244
  979DOPE   NH311477  11.056  31.601  15.368  0.2223  0.0216 -0.1040
  979DOPE   PO411478  10.956  31.886  15.565 -0.0204  0.4109  0.0702
  979DOPE   GL111479  10.630  31.816  15.318 -0.1168  0.1479 -0.0352
  979DOPE   GL211480  10.724  32.099  15.186  0.0565 -0.2684  0.2041
  979DOPE   C1A11481  10.455  31.701  14.880 -0.1166 -0.1050 -0.0074
  979DOPE   D2A11482  10.135  31.527  14.624  0.0298 -0.2596 -0.0682
  979DOPE   C3A11483  10.340  31.428  14.224 -0.0976 -0.5592  0.0216
  979DOPE   C4A11484  10.561  31.418  13.839 -0.1247 -0.0956  0.0539
  979DOPE   C1B11485  10.695  32.161  14.707 -0.0125 -0.0240  0.1931
  979DOPE   D2B11486  10.936  32.281  14.256  0.5717  0.0115 -0.3466
  979DOPE   C3B11487  10.967  32.430  13.819 -0.0056  0.2275 -0.1272
  979DOPE   C4B11488  10.913  32.520  13.380 -0.1631  0.1501  0.0477
  980POSM   NC311489   7.313  31.912  15.924  0.0773  0.0769  0.0072
  980POSM   PO411490   7.017  32.200  15.951 -0.0687 -0.1558 -0.1790
  980POSM   AM111491   6.823  32.180  15.713 -0.3223 -0.1819  0.1675
  980POSM   AM211492   6.571  32.291  15.592  0.1507  0.2012 -0.1135
  980POSM   T1A11493   6.496  31.833  15.481 -0.0893  0.0663  0.2609
  980POSM   C2A11494   6.103  31.650  15.248  0.1301 -0.2701 -0.1687
  980POSM   C3A11495   5.674  31.560  15.314 -0.0993 -0.0260 -0.1166
  980POSM   C1B11496   6.502  32.512  15.383 -0.1373 -0.2430  0.2833
  980POSM   D2B11497   6.551  32.706  14.943  0.0386 -0.0273 -0.3277
  980POSM   C3B11498   6.267  32.912  14.668  0.1698  0.0502 -0.0479
  980POSM   C4B11499   6.076  32.894  14.257  0.3075 -0.1923 -0.3463
  981DOPE   NH311500   5.236  33.287  15.739  0.2007  0.0120  0.0504
  981DOPE   PO411501   4.964  33.424  15.629 -0.2060 -0.0974 -0.0758
  981DOPE   GL111502   4.918  33.155  15.348  0.2212 -0.2232 -0.1003
  981DOPE   GL211503   5.101  32.932  15.406  0.0890  0.0764  0.0095
  981DOPE   C1A11504   4.804  32.797  15.082 -0.2960 -0.0169 -0.1352
  981DOPE   D2A11505   4.995  32.563  14.772 -0.0363  0.0067  0.1144
  981DOPE   C3A11506   4.723  32.505  14.368  0.1855 -0.1380  0.0898
  981DOPE   C4A11507   4.571  32.801  14.061  0.1118  0.3066  0.0543
  981DOPE   C1B11508   4.826  32.667  15.625 -0.0257  0.1282  0.1719
  981DOPE   D2B11509   4.716  32.225  15.664  0.1384 -0.1933 -0.1332
  981DOPE   C3B11510   4.758  32.071  15.201 -0.2417  0.3462 -0.2470
  981DOPE   C4B11511   4.729  32.111  14.750  0.1792 -0.0485  0.0914
  982POSM   NC311512   7.203  32.420  15.579 -0.2254 -0.3770  0.1905
  982POSM   PO411513   7.514  32.621  15.574 -0.0784  0.0064  0.0499
  982POSM   AM111514   7.586  32.507  15.278  0.0890 -0.0489 -0.2199
  982POSM   AM211515   7.813  32.370  15.211 -0.3791  0.2046  0.0481
  982POSM   T1A11516   7.521  32.376  14.793 -0.0023 -0.0340  0.1086
  982POSM   C2A11517   7.326  32.287  14.358 -0.0265 -0.0364  0.2228
  982POSM   C3A11518   7.037  32.448  14.119  0.0344  0.0890  0.0692
  982POSM   C1B11519   8.002  32.252  14.978 -0.0336 -0.2275  0.4501
  982POSM   D2B11520   8.346  31.954  14.823 -0.0320 -0.0330  0.0187
  982POSM   C3B11521   8.387  31.908  14.298  0.0778  0.1532  0.1982
  982POSM   C4B11522   8.270  32.213  13.881  0.1830  0.3595 -0.1406
  983DOPC   NC311523   8.686  28.127  15.820 -0.0872  0.1915 -0.0911
  983DOPC   PO411524   8.330  28.272  15.834  0.4495  0.1129  0.0669
  983DOPC   GL111525   8.340  28.150  15.446 -0.1757  0.1193  0.4301
  983DOPC   GL211526   8.094  27.885  15.375  0.2402  0.0954  0.3028
  983DOPC   C1A11527   8.009  28.245  15.049  0.1754  0.0843  0.2855
  983DOPC   D2A11528   7.889  27.914  14.764 -0.1456 -0.2884 -0.0795
  983DOPC   C3A11529   8.140  27.661  14.456 -0.0970  0.0429  0.1930
  983DOPC   C4A11530   8.318  27.235  14.303 -0.0154 -0.0608  0.0918
  983DOPC   C1B11531   8.224  27.661  15.014  0.1502  0.3128 -0.0850
  983DOPC   D2B11532   8.103  27.219  14.861 -0.1788  0.1218 -0.0886
  983DOPC   C3B11533   7.949  27.010  14.521 -0.1534 -0.3274 -0.4233
  983DOPC   C4B11534   7.821  27.061  14.086  0.2573  0.2600  0.1394
  984DOPE   NH311535   7.041  33.408  15.832  0.1264 -0.1149 -0.1613
  984DOPE   PO411536   7.159  33.632  15.624  0.1124 -0.1125 -0.0987
  984DOPE   GL111537   7.137  33.840  15.304 -0.2903  0.2578  0.0955
  984DOPE   GL211538   7.256  34.029  15.134  0.2482  0.0618 -0.0887
  984DOPE   C1A11539   6.888  33.717  14.922 -0.0269 -0.1787 -0.0675
  984DOPE   D2A11540   6.677  33.845  14.507  0.4054  0.1390 -0.1355
  984DOPE   C3A11541   6.229  33.902  14.586  0.0218  0.2338  0.2515
  984DOPE   C4A11542   5.847  34.016  14.815 -0.1741  0.3766 -0.1252
  984DOPE   C1B11543   7.027  34.191  14.666  0.0544  0.0208 -0.0736
  984DOPE   D2B11544   6.785  34.385  14.222 -0.4391  0.1647 -0.1548
  984DOPE   C3B11545   6.894  33.979  13.956  0.1602 -0.0504 -0.2384
  984DOPE   C4B11546   6.665  33.745  13.656  0.0182  0.0846 -0.4876
  985POSM   NC311547   7.255  23.615  16.352  0.1039 -0.0103 -0.0343
  985POSM   PO411548   7.037  23.681  16.068  0.4376 -0.1340 -0.3145
  985POSM   AM111549   7.251  23.612  15.829  0.4196  0.0756 -0.0817
  985POSM   AM211550   7.239  23.755  15.564 -0.1714  0.1580 -0.1179
  985POSM   T1A11551   7.517  23.302  15.537  0.0746 -0.1693 -0.2425
  985POSM   C2A11552   7.567  23.197  15.083 -0.2022 -0.2658  0.1761
  985POSM   C3A11553   7.623  23.024  14.707 -0.0872 -0.2932 -0.1164
  985POSM   C1B11554   7.201  23.604  15.292  0.1459  0.0434 -0.1469
  985POSM   D2B11555   7.287  23.591  14.841  0.0687 -0.0176 -0.2941
  985POSM   C3B11556   6.954  23.514  14.598 -0.0916  0.1785  0.0505
  985POSM   C4B11557   6.848  23.392  14.161  0.1290  0.1763  0.0212
  986DOPE   NH311558   9.932  33.304  15.573 -0.0916  0.0301 -0.3406
  986DOPE   PO411559  10.061  33.065  15.395  0.0856  0.3681 -0.2586
  986DOPE   GL111560  10.006  33.038  14.956 -0.4679 -0.0710  0.2209
  986DOPE   GL211561  10.314  32.844  14.897  0.1135 -0.1650  0.3401
  986DOPE   C1A11562   9.827  32.886  14.576 -0.0828 -0.0004  0.1162
  986DOPE   D2A11563   9.920  32.890  14.141 -0.2504 -0.1198  0.0304
  986DOPE   C3A11564   9.915  33.311  13.904 -0.4842  0.1207 -0.1668
  986DOPE   C4A11565   9.580  33.555  13.650  0.0041 -0.1270  0.1317
  986DOPE   C1B11566  10.395  32.586  14.525 -0.1327  0.2626 -0.2456
  986DOPE   D2B11567  10.527  32.385  14.074 -0.0840  0.1805 -0.1795
  986DOPE   C3B11568  10.200  32.635  13.876  0.0797 -0.1179  0.0854
  986DOPE   C4B11569   9.829  32.692  13.535  0.1676 -0.1810 -0.0642
  987DOPE   NH311570   1.136  26.305  15.802  0.0338 -0.1543  0.2063
  987DOPE   PO411571   0.961  26.506  15.950 -0.1645  0.0112 -0.1957
  987DOPE   GL111572   0.880  26.695  15.564  0.0188  0.1207  0.3443
  987DOPE   GL211573   1.173  26.734  15.430  0.2463 -0.1215  0.0955
  987DOPE   C1A11574   0.818  26.848  15.124  0.1391 -0.1946  0.2359
  987DOPE   D2A11575   0.602  27.153  14.815  0.0144  0.0590  0.1048
  987DOPE   C3A11576   0.332  27.208  14.421 -0.0076 -0.3352 -0.2180
  987DOPE   C4A11577   0.182  27.048  14.031  0.0813 -0.0665 -0.0338
  987DOPE   C1B11578   1.336  26.798  15.021  0.2073  0.0266 -0.0798
  987DOPE   D2B11579   1.711  26.867  14.717  0.2814 -0.0710  0.0290
  987DOPE   C3B11580   2.086  26.777  14.450 -0.0453  0.0602  0.0487
  987DOPE   C4B11581   2.217  26.318  14.334  0.0654 -0.1806 -0.0200
  988DOPE   NH311582   8.708  29.985  16.037  0.1681 -0.1436 -0.1853
  988DOPE   PO411583   8.470  30.196  16.109 -0.0694  0.0107 -0.1020
  988DOPE   GL111584   8.334  30.047  15.781 -0.4855 -0.2724  0.2422
  988DOPE   GL211585   8.250  29.719  15.781  0.2741  0.1773  0.0487
  988DOPE   C1A11586   8.206  30.080  15.384  0.2750  0.0914  0.1945
  988DOPE   D2A11587   7.950  29.903  15.031 -0.1437 -0.0453 -0.1380
  988DOPE   C3A11588   7.818  30.150  14.688  0.0743 -0.0020  0.1094
  988DOPE   C4A11589   7.879  30.195  14.240  0.2692 -0.2497 -0.0482
  988DOPE   C1B11590   8.304  29.590  15.334 -0.1834 -0.1833 -0.2749
  988DOPE   D2B11591   8.385  29.617  14.848 -0.0299 -0.1512 -0.1907
  988DOPE   C3B11592   7.943  29.637  14.634  0.3087  0.0159  0.0692
  988DOPE   C4B11593   7.501  29.749  14.557 -0.2605  0.0085 -0.2269
  989DOPE   NH311594   1.141  24.888  16.216  0.0659  0.0337 -0.1076
  989DOPE   PO411595   0.923  24.620  16.138 -0.1475 -0.2371  0.2123
  989DOPE   GL111596   1.066  24.406  15.851  0.3405 -0.0111 -0.0116
  989DOPE   GL211597   0.929  24.331  15.613 -0.0925  0.3310 -0.0854
  989DOPE   C1A11598   1.069  23.945  15.906 -0.0928  0.2546  0.2654
  989DOPE   D2A11599   0.740  23.671  15.764 -0.0913  0.0880 -0.0308
  989DOPE   C3A11600   0.741  23.398  15.437 -0.1971  0.0212 -0.0485
  989DOPE   C4A11601   0.539  23.092  15.178 -0.0930  0.2569  0.0682
  989DOPE   C1B11602   1.233  24.186  15.356  0.1799  0.3742 -0.1585
  989DOPE   D2B11603   1.662  24.151  15.165  0.2315  0.0644 -0.0743
  989DOPE   C3B11604   1.709  24.484  14.818 -0.0673 -0.0421  0.0641
  989DOPE   C4B11605   1.483  24.364  14.423 -0.0333  0.1543 -0.0082
  990POSM   NC311606   8.993  24.907  15.818 -0.0523 -0.1111 -0.3928
  990POSM   PO411607   9.126  25.202  16.040 -0.0638  0.2931 -0.0978
  990POSM   AM111608   9.206  25.454  15.830 -0.1157 -0.3255 -0.1378
  990POSM   AM211609   9.089  25.678  15.779  0.1066 -0.1174 -0.0107
  990POSM   T1A11610   9.294  25.584  15.301  0.1659 -0.0086 -0.2769
  990POSM   C2A11611   9.097  25.751  14.951  0.2191 -0.0796  0.2776
  990POSM   C3A11612   9.131  26.080  14.649 -0.0019  0.0785 -0.1539
  990POSM   C1B11613   8.832  25.665  15.524 -0.0639 -0.0422 -0.0278
  990POSM   D2B11614   8.604  25.648  15.094  0.1746 -0.0600 -0.2393
  990POSM   C3B11615   8.687  25.775  14.638  0.2591  0.0091  0.1212
  990POSM   C4B11616   8.925  25.774  14.277  0.0763 -0.1974  0.1225
  991DOPE   NH311617   8.359  31.393  15.771 -0.0051  0.3126 -0.1870
  991DOPE   PO411618   8.688  31.482  15.752  0.2912  0.0336 -0.0843
  991DOPE   GL111619   8.815  31.392  15.357 -0.0010  0.1522  0.0975
  991DOPE   GL211620   9.053  31.479  15.172 -0.0775 -0.1064  0.0149
  991DOPE   C1A11621   8.966  30.968  15.183  0.0577 -0.0233  0.4659
  991DOPE   D2A11622   8.710  30.572  15.246 -0.1722 -0.1577  0.2042
  991DOPE   C3A11623   8.273  30.524  15.179 -0.2131 -0.1288  0.2291
  991DOPE   C4A11624   7.810  30.412  15.075 -0.2886  0.0738  0.2619
  991DOPE   C1B11625   9.252  31.680  14.736  0.3124 -0.0037 -0.2848
  991DOPE   D2B11626   9.194  31.572  14.292 -0.0752 -0.2159  0.1723
  991DOPE   C3B11627   9.209  31.849  13.941  0.1090  0.0473  0.1209
  991DOPE   C4B11628   9.186  31.735  13.497  0.1688 -0.1498  0.0886
  992DOPE   NH311629   9.540  34.014  15.690 -0.1215 -0.0346  0.0203
  992DOPE   PO411630   9.606  33.737  15.589  0.1552  0.0033  0.2139
  992DOPE   GL111631   9.436  33.859  15.151 -0.2052 -0.0472 -0.0057
  992DOPE   GL211632   9.575  34.044  15.097  0.0955  0.2016  0.0345
  992DOPE   C1A11633   8.986  33.849  14.946 -0.3372  0.0880  0.0316
  992DOPE   D2A11634   8.800  33.549  14.597 -0.0379 -0.2888  0.1817
  992DOPE   C3A11635   9.082  33.546  14.286 -0.0768 -0.6624 -0.1436
  992DOPE   C4A11636   9.095  33.714  13.899 -0.1133  0.0596 -0.2108
  992DOPE   C1B11637   9.747  33.932  14.688 -0.2596  0.1095  0.3910
  992DOPE   D2B11638  10.187  34.084  14.437  0.0545  0.0847  0.0615
  992DOPE   C3B11639  10.647  34.241  14.415 -0.2259 -0.0882 -0.0719
  992DOPE   C4B11640  11.105  34.143  14.414 -0.3367 -0.3270  0.1729
  993POSM   NC311641   8.459  27.317  16.074 -0.1145  0.1627  0.1947
  993POSM   PO411642   8.244  26.975  15.975  0.0658  0.1682 -0.1443
  993POSM   AM111643   8.372  26.968  15.679 -0.0641  0.3622 -0.2297
  993POSM   AM211644   8.442  27.116  15.486  0.0985  0.0734  0.2886
  993POSM   T1A11645   8.802  26.797  15.442 -0.2016 -0.4234  0.1425
  993POSM   C2A11646   9.093  26.508  15.158 -0.0851 -0.0018  0.0780
  993POSM   C3A11647   9.559  26.281  15.123  0.0356  0.0216 -0.1008
  993POSM   C1B11648   8.577  27.306  15.184  0.1425 -0.2043 -0.2611
  993POSM   D2B11649   8.536  27.406  14.720  0.0081 -0.0342 -0.2314
  993POSM   C3B11650   8.790  27.124  14.457 -0.3374 -0.0142 -0.0906
  993POSM   C4B11651   9.020  26.812  14.145 -0.1718  0.2580 -0.0779
  994DOPC   NC311652   2.835  30.520  16.826  0.0918  0.0053 -0.1438
  994DOPC   PO411653   3.173  30.417  16.640  0.0287  0.2595 -0.0778
  994DOPC   GL111654   2.980  30.598  16.325 -0.0988  0.2731 -0.3314
  994DOPC   GL211655   3.159  30.500  16.133 -0.0058  0.0797 -0.1281
  994DOPC   C1A11656   3.073  31.029  16.099  0.0769 -0.1688 -0.1988
  994DOPC   D2A11657   2.987  31.478  16.090  0.2557 -0.5794 -0.0422
  994DOPC   C3A11658   2.932  31.501  15.612  0.0222  0.1605  0.0408
  994DOPC   C4A11659   2.806  31.666  15.179  0.2060  0.0630  0.2434
  994DOPC   C1B11660   3.066  30.707  15.734 -0.1964 -0.1850 -0.3581
  994DOPC   D2B11661   3.362  31.047  15.633  0.0443  0.3500 -0.0843
  994DOPC   C3B11662   3.474  31.328  15.299 -0.0803  0.1729  0.2898
  994DOPC   C4B11663   3.444  31.697  15.000 -0.1192 -0.1541 -0.2432
  995DOPE   NH311664   1.477  25.529  15.728 -0.2579  0.0490 -0.0251
  995DOPE   PO411665   1.784  25.583  15.872 -0.2332 -0.3771 -0.3618
  995DOPE   GL111666   1.892  25.653  15.444 -0.0339  0.0696  0.0875
  995DOPE   GL211667   1.790  25.887  15.376 -0.0611  0.0355 -0.1565
  995DOPE   C1A11668   1.779  25.559  15.015 -0.0582 -0.2379 -0.0183
  995DOPE   D2A11669   1.696  25.820  14.617  0.0631 -0.1321 -0.1239
  995DOPE   C3A11670   1.893  25.568  14.267 -0.4307  0.0737  0.0431
  995DOPE   C4A11671   1.998  25.551  13.817 -0.1881 -0.0159 -0.0618
  995DOPE   C1B11672   1.985  26.157  15.072  0.0371 -0.2696  0.0197
  995DOPE   D2B11673   2.196  26.516  14.945 -0.0412 -0.0205 -0.0602
  995DOPE   C3B11674   2.487  26.593  14.655 -0.2041 -0.0765 -0.2986
  995DOPE   C4B11675   2.677  26.945  14.489 -0.1176  0.2450  0.1003
  996DOPC   NC311676  10.085  28.892  15.904 -0.0414  0.0429  0.1238
  996DOPC   PO411677  10.426  28.774  15.804  0.1727  0.3295  0.1174
  996DOPC   GL111678  10.296  28.917  15.509  0.0179 -0.0578  0.4726
  996DOPC   GL211679  10.543  28.830  15.311 -0.0271 -0.0868  0.1714
  996DOPC   C1A11680  10.330  29.238  15.199  0.1665 -0.0022  0.2126
  996DOPC   D2A11681  10.495  29.429  14.790  0.2866  0.1010 -0.1647
  996DOPC   C3A11682  10.416  29.383  14.354 -0.0482  0.1599 -0.2360
  996DOPC   C4A11683  10.346  29.167  13.953 -0.0252  0.2368  0.1212
  996DOPC   C1B11684  10.441  28.944  14.841  0.2625 -0.1953  0.2976
  996DOPC   D2B11685  10.601  28.900  14.422  0.2842  0.1766 -0.1266
  996DOPC   C3B11686  10.810  28.655  14.070 -0.2958 -0.2369 -0.0308
  996DOPC   C4B11687  11.236  28.812  13.949  0.2706  0.2976  0.0585
  997POSM   NC311688   1.787  23.597  16.564 -0.0240  0.1381 -0.0175
  997POSM   PO411689   1.570  23.740  16.279 -0.2369  0.0949 -0.2923
  997POSM   AM111690   1.437  23.656  15.996 -0.0860  0.1568  0.6950
  997POSM   AM211691   1.171  23.471  15.927 -0.4229 -0.0747  0.1720
  997POSM   T1A11692   1.274  23.748  15.510 -0.1878  0.4389 -0.3326
  997POSM   C2A11693   0.940  23.835  15.223 -0.0848 -0.2040 -0.0513
  997POSM   C3A11694   0.662  24.128  15.052  0.2506  0.0825  0.0063
  997POSM   C1B11695   1.084  23.269  15.730  0.3543  0.1501  0.1320
  997POSM   D2B11696   1.065  22.991  15.360 -0.0742  0.1366 -0.1914
  997POSM   C3B11697   1.247  22.841  14.957 -0.4453 -0.1310 -0.0351
  997POSM   C4B11698   1.418  22.985  14.562 -0.1573 -0.0925  0.0581
  998DOPE   NH311699   7.656  25.779  15.906 -0.2444 -0.0500 -0.0940
  998DOPE   PO411700   8.012  25.724  15.857 -0.0619 -0.0360  0.3564
  998DOPE   GL111701   8.087  25.825  15.533 -0.0922  0.1264  0.2914
  998DOPE   GL211702   8.351  25.835  15.500 -0.0878 -0.1297  0.2854
  998DOPE   C1A11703   8.089  25.529  15.151 -0.2514  0.1832 -0.1196
  998DOPE   D2A11704   8.202  25.536  14.722 -0.1075  0.0791  0.0403
  998DOPE   C3A11705   8.013  25.447  14.311  0.0564  0.5197  0.1611
  998DOPE   C4A11706   8.176  25.223  13.876 -0.0824  0.0166  0.0900
  998DOPE   C1B11707   8.353  26.303  15.396  0.0804  0.1139 -0.2540
  998DOPE   D2B11708   8.408  26.739  15.142  0.3310 -0.0938  0.0398
  998DOPE   C3B11709   8.786  26.873  14.910  0.1010  0.0172 -0.2888
  998DOPE   C4B11710   9.027  26.667  14.634 -0.0687 -0.1951  0.4590
  999DOPE   NH311711  11.006  27.258  15.242  0.1679  0.2372  0.0383
  999DOPE   PO411712  10.848  27.001  15.313  0.0389 -0.3014  0.5018
  999DOPE   GL111713  10.494  27.121  15.292  0.0158  0.1227 -0.1369
  999DOPE   GL211714  10.246  26.953  15.221  0.0038  0.2328  0.0145
  999DOPE   C1A11715  10.519  27.572  15.096 -0.0918  0.2650 -0.2532
  999DOPE   D2A11716  10.643  27.939  14.853 -0.3539  0.2332  0.3530
  999DOPE   C3A11717  10.491  27.898  14.411  0.1298  0.1565 -0.2512
  999DOPE   C4A11718  10.450  28.193  14.057 -0.2327  0.2749  0.2212
  999DOPE   C1B11719   9.868  27.175  15.368  0.1234  0.0334  0.2943
  999DOPE   D2B11720   9.517  27.307  15.072 -0.1100 -0.1078  0.1078
  999DOPE   C3B11721   9.383  26.900  14.888 -0.2241  0.1802 -0.0972
  999DOPE   C4B11722   9.451  26.495  14.601 -0.0355 -0.3026  0.3551
 1000POSM   NC311723   3.433  24.611  16.281 -0.0220  0.2210 -0.0504
 1000POSM   PO411724   3.743  24.407  16.357  0.4897 -0.2701 -0.2978
 1000POSM   AM111725   3.859  24.418  16.100 -0.0385 -0.1881  0.3051
 1000POSM   AM211726   4.125  24.278  16.006  0.2692  0.0226  0.1237
 1000POSM   T1A11727   4.031  24.597  15.646 -0.2007  0.0004 -0.1990
 1000POSM   C2A11728   3.784  24.775  15.308  0.1751 -0.2568  0.1611
 1000POSM   C3A11729   3.518  25.176  15.258  0.3304 -0.1418  0.2960
 1000POSM   C1B11730   4.112  24.085  15.712  0.0287 -0.1310 -0.0748
 1000POSM   D2B11731   4.033  23.894  15.293  0.1387 -0.0085  0.3067
 1000POSM   C3B11732   3.829  23.443  15.337 -0.0505  0.0072 -0.2094
 1000POSM   C4B11733   3.651  23.071  15.142  0.2702 -0.2362 -0.0228
 1001DOPS   CNO11734   7.245  24.203  15.893 -0.0930 -0.0084  0.1313
 1001DOPS   PO411735   7.309  24.543  16.078 -0.4712 -0.2640  0.0899
 1001DOPS   GL111736   7.325  24.783  15.750  0.1739 -0.1388  0.0477
 1001DOPS   GL211737   7.180  25.045  15.685  0.3004  0.0420 -0.0657
 1001DOPS   C1A11738   7.526  24.735  15.333  0.0565 -0.2451  0.0964
 1001DOPS   D2A11739   7.467  24.776  14.909  0.2972  0.0739 -0.1056
 1001DOPS   C3A11740   7.277  25.007  14.605  0.1991  0.2223 -0.1278
 1001DOPS   C4A11741   7.069  25.337  14.289  0.0804 -0.0030  0.0969
 1001DOPS   C1B11742   7.239  25.192  15.226 -0.0226 -0.0299  0.0630
 1001DOPS   D2B11743   7.268  25.503  14.818 -0.0862  0.0691  0.3118
 1001DOPS   C3B11744   7.534  25.584  14.421  0.1115  0.3671 -0.0865
 1001DOPS   C4B11745   7.622  25.247  14.108 -0.0143 -0.2464  0.1165
 1002DOPC   NC311746   3.591  33.846  15.738 -0.0428 -0.0532  0.2034
 1002DOPC   PO411747   3.320  34.101  15.827  0.2730  0.1530  0.1424
 1002DOPC   GL111748   3.228  34.014  15.502  0.1935 -0.2394  0.2344
 1002DOPC   GL211749   3.214  34.086  15.242 -0.0155 -0.0900  0.0575
 1002DOPC   C1A11750   3.176  33.592  15.360 -0.0567 -0.2727 -0.3996
 1002DOPC   D2A11751   3.080  33.273  15.083 -0.0886 -0.2291 -0.1292
 1002DOPC   C3A11752   3.210  33.226  14.662  0.0535 -0.0092  0.3099
 1002DOPC   C4A11753   3.294  33.344  14.237 -0.0049  0.3504 -0.4160
 1002DOPC   C1B11754   3.051  34.214  14.827  0.0281  0.0375  0.1069
 1002DOPC   D2B11755   2.746  34.303  14.488  0.0076 -0.2297 -0.1454
 1002DOPC   C3B11756   2.478  34.699  14.451  0.2702  0.0316 -0.1259
 1002DOPC   C4B11757   2.006  34.793  14.456  0.0811 -0.1368  0.1416
 1003POSM   NC311758   5.279  29.324  16.155 -0.2770  0.1729 -0.0197
 1003POSM   PO411759   5.481  29.013  16.153 -0.1034  0.1545  0.0400
 1003POSM   AM111760   5.534  28.953  15.828 -0.1031 -0.0972  0.3961
 1003POSM   AM211761   5.475  28.759  15.638 -0.0458 -0.1761 -0.2477
 1003POSM   T1A11762   5.616  29.244  15.441  0.0344  0.0762 -0.2920
 1003POSM   C2A11763   5.503  29.229  14.971 -0.2944 -0.2721  0.1224
 1003POSM   C3A11764   5.717  29.227  14.497  0.0810 -0.0055 -0.0485
 1003POSM   C1B11765   5.501  28.779  15.300 -0.1425  0.0058 -0.1430
 1003POSM   D2B11766   5.227  28.742  14.917  0.4331 -0.0347  0.1020
 1003POSM   C3B11767   5.434  28.817  14.467  0.0181  0.1578  0.1874
 1003POSM   C4B11768   5.225  28.885  14.053 -0.2646 -0.4809 -0.1282
 1004DOPE   NH311769   6.745  24.896  15.930  0.1685 -0.0584 -0.0174
 1004DOPE   PO411770   6.864  24.589  15.900  0.1365 -0.2913  0.0649
 1004DOPE   GL111771   6.931  24.554  15.518  0.1808  0.1857 -0.1346
 1004DOPE   GL211772   6.680  24.675  15.411 -0.0133 -0.0950  0.0776
 1004DOPE   C1A11773   7.002  24.592  15.056 -0.1802 -0.0406 -0.0757
 1004DOPE   D2A11774   6.667  24.428  14.782 -0.2061  0.2575 -0.0622
 1004DOPE   C3A11775   6.823  24.698  14.470  0.3530 -0.0115 -0.0323
 1004DOPE   C4A11776   6.889  24.910  14.041  0.2893 -0.0098 -0.4072
 1004DOPE   C1B11777   6.447  24.970  15.179  0.0041  0.2414 -0.1186
 1004DOPE   D2B11778   6.228  25.223  14.883 -0.2385 -0.1813 -0.0868
 1004DOPE   C3B11779   5.949  25.192  14.516 -0.2164  0.3096  0.1712
 1004DOPE   C4B11780   6.096  25.432  14.128  0.1064 -0.0274  0.2341
 1005DOPS   CNO11781   5.122  23.261  16.042 -0.2511  0.1032 -0.0944
 1005DOPS   PO411782   5.509  23.330  16.091  0.2491  0.2459  0.1733
 1005DOPS   GL111783   5.519  23.292  15.748  0.2899 -0.1209 -0.2775
 1005DOPS   GL211784   5.672  23.607  15.750 -0.0550  0.1526  0.0473
 1005DOPS   C1A11785   5.499  23.418  15.297  0.1054 -0.0558  0.1753
 1005DOPS   D2A11786   5.444  23.526  14.850 -0.0768  0.0847  0.2482
 1005DOPS   C3A11787   5.408  23.921  14.676  0.0094  0.3075 -0.0537
 1005DOPS   C4A11788   5.455  24.311  14.511  0.1523  0.0752 -0.1781
 1005DOPS   C1B11789   5.604  24.028  15.480 -0.1162 -0.2096  0.2489
 1005DOPS   D2B11790   5.409  24.197  15.132 -0.1650 -0.0736 -0.0208
 1005DOPS   C3B11791   5.070  24.301  14.820  0.0583  0.0052 -0.1357
 1005DOPS   C4B11792   4.643  24.301  14.663  0.0228 -0.0297  0.0624
 1006DOPS   CNO11793   6.380  34.054  15.626 -0.0954 -0.0219 -0.3965
 1006DOPS   PO411794   6.176  33.770  15.644 -0.0019 -0.2811  0.2002
 1006DOPS   GL111795   6.089  33.471  15.350  0.0142 -0.0743 -0.3936
 1006DOPS   GL211796   6.221  33.188  15.277  0.2348 -0.1388 -0.0700
 1006DOPS   C1A11797   5.957  33.545  14.921 -0.0444 -0.1780  0.3484
 1006DOPS   D2A11798   5.788  33.453  14.522 -0.0768 -0.1063  0.0897
 1006DOPS   C3A11799   5.931  33.425  14.033  0.1005  0.2356  0.1078
 1006DOPS   C4A11800   6.115  33.412  13.658 -0.0047  0.0931  0.3011
 1006DOPS   C1B11801   6.018  32.751  15.216  0.2551 -0.0178 -0.2036
 1006DOPS   D2B11802   5.925  32.378  14.914  0.0483 -0.3336 -0.0515
 1006DOPS   C3B11803   6.239  32.207  14.650 -0.0893 -0.0633  0.2784
 1006DOPS   C4B11804   6.715  32.339  14.619  0.0547  0.3381 -0.0922
 1007DOPE   NH311805  11.261  23.850  15.762  0.2067 -0.1589 -0.0537
 1007DOPE   PO411806  11.331  23.673  15.987  0.0971  0.1032  0.1000
 1007DOPE   GL111807  11.463  23.462  15.625  0.3379  0.2915  0.0102
 1007DOPE   GL211808  11.598  23.262  15.779 -0.2952 -0.2576  0.0114
 1007DOPE   C1A11809  11.596  23.446  15.148 -0.4841  0.0628  0.3356
 1007DOPE   D2A11810  11.613  23.653  14.753 -0.2837 -0.1686  0.1832
 1007DOPE   C3A11811  11.202  23.848  14.623 -0.0884 -0.3725 -0.0548
 1007DOPE   C4A11812  10.822  24.058  14.786 -0.2465 -0.0054  0.1197
 1007DOPE   C1B11813  11.698  22.996  15.397 -0.2851  0.0069  0.2203
 1007DOPE   D2B11814  11.719  22.969  14.934  0.1660  0.0094  0.2801
 1007DOPE   C3B11815  11.417  23.219  14.672  0.0010  0.0344  0.0726
 1007DOPE   C4B11816  11.368  23.270  14.253  0.4726 -0.0577  0.3274
 1008DOPC   NC311817   6.525  25.976  15.778  0.0734  0.0751 -0.2732
 1008DOPC   PO411818   6.464  25.853  16.121  0.3507 -0.0541 -0.1913
 1008DOPC   GL111819   6.144  25.679  15.898  0.3023  0.0250 -0.1249
 1008DOPC   GL211820   6.012  25.940  15.924  0.1351 -0.3160  0.0092
 1008DOPC   C1A11821   6.262  25.685  15.455 -0.0779  0.0516  0.0019
 1008DOPC   D2A11822   6.353  25.735  14.999  0.1651 -0.0779  0.0181
 1008DOPC   C3A11823   6.347  25.549  14.552 -0.0881 -0.4289 -0.2443
 1008DOPC   C4A11824   6.617  25.526  14.178  0.0599 -0.0325 -0.0779
 1008DOPC   C1B11825   5.781  25.564  15.707  0.0607 -0.0144  0.2918
 1008DOPC   D2B11826   5.955  25.309  15.355 -0.2592  0.0997  0.0278
 1008DOPC   C3B11827   5.722  25.290  14.938 -0.3626 -0.3153 -0.0947
 1008DOPC   C4B11828   5.384  25.465  14.687 -0.3832  0.0595  0.0902
 1009DOPS   CNO11829  10.831  29.839  15.796 -0.0159 -0.0337 -0.0902
 1009DOPS   PO411830  10.513  29.825  15.970 -0.0493 -0.0665 -0.0827
 1009DOPS   GL111831  10.379  29.773  15.612  0.0965 -0.0405  0.2806
 1009DOPS   GL211832  10.171  29.937  15.478  0.0605 -0.0019  0.3040
 1009DOPS   C1A11833  10.587  29.679  15.229  0.1521  0.0224 -0.1971
 1009DOPS   D2A11834  10.924  29.598  14.921 -0.2984 -0.0498 -0.1852
 1009DOPS   C3A11835  10.958  29.272  14.514 -0.0915 -0.0765  0.1509
 1009DOPS   C4A11836  11.152  28.869  14.519  0.1507 -0.1752 -0.0663
 1009DOPS   C1B11837  10.069  29.778  15.047 -0.0734 -0.1610  0.1424
 1009DOPS   D2B11838  10.047  29.649  14.632  0.1998  0.0799  0.2045
 1009DOPS   C3B11839   9.875  30.019  14.401 -0.0537 -0.2856  0.1480
 1009DOPS   C4B11840   9.609  30.251  14.134 -0.0748 -0.0727 -0.1026
 1010DOPE   NH311841   4.040  34.013  15.829 -0.0316  0.2997  0.3015
 1010DOPE   PO411842   3.954  33.738  16.010 -0.0205 -0.3906 -0.0149
 1010DOPE   GL111843   3.776  33.435  15.877  0.1098  0.2242  0.0463
 1010DOPE   GL211844   3.671  33.165  15.949  0.2214 -0.3462 -0.2066
 1010DOPE   C1A11845   3.578  33.318  15.459  0.0033 -0.0815 -0.0817
 1010DOPE   D2A11846   3.579  33.243  15.020  0.0239  0.0052  0.0455
 1010DOPE   C3A11847   3.666  33.375  14.581 -0.2508  0.2438  0.0519
 1010DOPE   C4A11848   3.735  33.354  14.096 -0.3177  0.1887 -0.2458
 1010DOPE   C1B11849   3.723  32.880  15.603 -0.0242  0.1808 -0.0431
 1010DOPE   D2B11850   3.793  32.467  15.416  0.2281  0.0674 -0.1253
 1010DOPE   C3B11851   3.568  32.107  15.587  0.2865  0.0185 -0.1832
 1010DOPE   C4B11852   3.257  31.777  15.440 -0.1500  0.1822  0.3015
 1011DOPE   NH311853   8.521  30.728  15.990  0.1662  0.4522  0.0623
 1011DOPE   PO411854   8.530  30.890  15.712  0.0500 -0.0072 -0.0325
 1011DOPE   GL111855   8.444  30.984  15.394 -0.1649  0.3298 -0.1444
 1011DOPE   GL211856   8.176  31.064  15.332 -0.0089 -0.0776  0.0535
 1011DOPE   C1A11857   8.509  30.960  14.955  0.1477 -0.1469  0.0122
 1011DOPE   D2A11858   8.354  30.994  14.549 -0.0889 -0.1818 -0.1436
 1011DOPE   C3A11859   8.499  30.966  14.099 -0.2269  0.2858 -0.3049
 1011DOPE   C4A11860   8.802  30.852  13.780 -0.1533  0.0637  0.0236
 1011DOPE   C1B11861   7.956  30.880  15.029  0.0652 -0.0134  0.0174
 1011DOPE   D2B11862   8.009  30.615  14.629 -0.3465 -0.3268  0.1857
 1011DOPE   C3B11863   7.924  30.762  14.224  0.0565 -0.1380 -0.1754
 1011DOPE   C4B11864   8.056  30.584  13.821  0.2841  0.1955 -0.2408
 1012DOPE   NH311865   7.588  28.313  16.188  0.1657 -0.4026  0.0001
 1012DOPE   PO411866   7.251  28.240  16.205  0.0393  0.2014  0.0627
 1012DOPE   GL111867   7.217  27.970  15.848 -0.2606  0.1500 -0.4634
 1012DOPE   GL211868   7.387  28.233  15.713 -0.1990 -0.0307  0.0130
 1012DOPE   C1A11869   7.046  27.799  15.443  0.1317  0.0643 -0.3004
 1012DOPE   D2A11870   7.045  27.664  14.996 -0.1418  0.2664  0.0930
 1012DOPE   C3A11871   6.666  27.674  14.771 -0.1411 -0.1484 -0.3794
 1012DOPE   C4A11872   6.437  27.590  14.418  0.3073  0.0052  0.3668
 1012DOPE   C1B11873   7.058  28.329  15.351  0.6769  0.3563  0.1629
 1012DOPE   D2B11874   6.730  28.218  15.073 -0.4680  0.3810 -0.0606
 1012DOPE   C3B11875   6.647  28.329  14.608  0.0094 -0.0369  0.1963
 1012DOPE   C4B11876   6.454  28.595  14.255  0.1064  0.1688 -0.0655
 1013DOPC   NC311877  10.636  33.926  15.793  0.1301  0.0254 -0.0980
 1013DOPC   PO411878  10.974  33.751  15.566  0.0109 -0.0891  0.0547
 1013DOPC   GL111879  11.114  33.645  15.202 -0.0623  0.1513 -0.2461
 1013DOPC   GL211880  10.963  33.323  15.157 -0.0725 -0.0210 -0.1782
 1013DOPC   C1A11881  11.482  33.517  14.903  0.0132 -0.0542 -0.0692
 1013DOPC   D2A11882  11.911  33.642  14.663  0.1925  0.0820 -0.3069
 1013DOPC   C3A11883  12.096  33.540  14.212  0.0694  0.3814 -0.2314
 1013DOPC   C4A11884  12.131  33.262  13.840  0.0759  0.1604  0.0814
 1013DOPC   C1B11885  11.110  33.253  14.687  0.1615 -0.2545  0.1640
 1013DOPC   D2B11886  10.881  33.293  14.254  0.0946  0.2828 -0.2346
 1013DOPC   C3B11887  10.858  33.723  14.143  0.1604  0.3850 -0.1711
 1013DOPC   C4B11888  10.879  34.177  13.970 -0.1613 -0.1256  0.2808
 1014POSM   NC311889   1.629  29.269  16.788  0.0624  0.0298 -0.1336
 1014POSM   PO411890   1.627  29.126  16.405  0.1115 -0.0249 -0.0874
 1014POSM   AM111891   1.826  29.114  16.154  0.0634 -0.0470  0.1644
 1014POSM   AM211892   1.798  29.093  15.878  0.0307 -0.3316  0.1503
 1014POSM   T1A11893   2.226  29.286  15.850  0.4372 -0.1282  0.2398
 1014POSM   C2A11894   2.617  29.457  15.670  0.2337  0.2022 -0.2065
 1014POSM   C3A11895   3.071  29.368  15.585  0.1689  0.0216  0.1324
 1014POSM   C1B11896   1.834  28.891  15.562 -0.2027 -0.3835 -0.1035
 1014POSM   D2B11897   1.785  28.490  15.340 -0.1198 -0.1863 -0.0608
 1014POSM   C3B11898   1.599  28.334  14.914 -0.0637 -0.1724 -0.1472
 1014POSM   C4B11899   1.493  28.425  14.529  0.0608  0.0830 -0.0610
 1015POSM   NC311900   0.165  32.593  16.521  0.0550  0.2906  0.0021
 1015POSM   PO411901  -0.059  32.307  16.355 -0.1086 -0.3559 -0.0798
 1015POSM   AM111902  -0.146  32.373  16.037 -0.1418  0.5462 -0.3750
 1015POSM   AM211903  -0.158  32.306  15.760 -0.0825  0.0591 -0.2683
 1015POSM   T1A11904  -0.252  32.763  15.786 -0.1269  0.1231 -0.1536
 1015POSM   C2A11905  -0.616  33.074  15.719  0.1875 -0.0770  0.1534
 1015POSM   C3A11906  -0.718  33.449  15.486 -0.1776  0.0595 -0.0206
 1015POSM   C1B11907  -0.170  32.189  15.484 -0.2546  0.0999  0.2050
 1015POSM   D2B11908   0.012  32.086  15.041  0.0663 -0.1880  0.1857
 1015POSM   C3B11909  -0.090  32.002  14.586  0.1841 -0.1177  0.2713
 1015POSM   C4B11910  -0.084  32.071  14.122  0.2947  0.0412  0.0005
 1016DOPC   NC311911   5.567  27.726  16.613 -0.0730  0.0330 -0.1233
 1016DOPC   PO411912   5.849  27.713  16.333  0.0825 -0.0736  0.0587
 1016DOPC   GL111913   5.815  27.690  15.944  0.0655 -0.1510 -0.1380
 1016DOPC   GL211914   5.622  27.808  15.783 -0.1611  0.0578  0.1484
 1016DOPC   C1A11915   5.784  27.237  15.759 -0.2157 -0.1848  0.0056
 1016DOPC   D2A11916   5.958  26.831  15.595  0.0196  0.0592 -0.0427
 1016DOPC   C3A11917   5.803  26.933  15.129 -0.3505 -0.2875 -0.2759
 1016DOPC   C4A11918   6.035  26.986  14.731 -0.1800 -0.2162  0.2965
 1016DOPC   C1B11919   5.532  27.777  15.333  0.2936 -0.2200 -0.1977
 1016DOPC   D2B11920   5.149  27.884  15.061 -0.1975 -0.0399  0.0343
 1016DOPC   C3B11921   5.071  27.799  14.617  0.0557  0.0853  0.3391
 1016DOPC   C4B11922   5.101  28.026  14.216 -0.4673 -0.1206 -0.3144
 1017DOPC   NC311923   7.938  28.574  15.924  0.2329  0.0491 -0.0106
 1017DOPC   PO411924   7.602  28.769  15.858  0.0907  0.1041 -0.0753
 1017DOPC   GL111925   7.698  28.742  15.468  0.0699 -0.0097  0.1918
 1017DOPC   GL211926   7.795  28.461  15.491 -0.1560  0.0864 -0.0791
 1017DOPC   C1A11927   8.043  28.716  15.142 -0.0655 -0.4553  0.0620
 1017DOPC   D2A11928   8.241  28.740  14.780 -0.1286 -0.3333  0.0172
 1017DOPC   C3A11929   8.148  29.107  14.519  0.2406 -0.0995  0.0275
 1017DOPC   C4A11930   8.020  29.370  14.233 -0.0672 -0.1470 -0.0476
 1017DOPC   C1B11931   7.596  28.543  15.069  0.1352 -0.2740  0.1750
 1017DOPC   D2B11932   7.704  28.765  14.659  0.2900 -0.1936 -0.2319
 1017DOPC   C3B11933   7.356  28.863  14.304 -0.1986  0.3627  0.0105
 1017DOPC   C4B11934   6.953  28.905  14.080 -0.0991  0.1349 -0.1322
 1018DOPS   CNO11935   1.255  31.825  16.885 -0.0380 -0.0086  0.1229
 1018DOPS   PO411936   1.167  31.931  16.550  0.1794 -0.3313 -0.1702
 1018DOPS   GL111937   1.169  31.871  16.114  0.2561 -0.0062 -0.1914
 1018DOPS   GL211938   0.904  31.705  16.078  0.2226  0.1661 -0.4961
 1018DOPS   C1A11939   1.263  31.886  15.590 -0.3061 -0.4283 -0.3287
 1018DOPS   D2A11940   1.538  32.014  15.304  0.1493  0.3898  0.3106
 1018DOPS   C3A11941   1.769  31.883  14.852  0.0841  0.0049 -0.0195
 1018DOPS   C4A11942   2.003  31.545  14.581 -0.0494 -0.0469 -0.2450
 1018DOPS   C1B11943   0.908  31.493  15.701 -0.1563 -0.2424 -0.0981
 1018DOPS   D2B11944   0.991  31.123  15.362  0.1519  0.1212  0.0226
 1018DOPS   C3B11945   1.376  31.005  15.127  0.0619 -0.0865 -0.0860
 1018DOPS   C4B11946   1.559  30.746  14.780  0.1301 -0.1634  0.1477
 1019DOPE   NH311947   7.739  24.816  16.080  0.1204 -0.0492 -0.2020
 1019DOPE   PO411948   8.003  24.641  16.006 -0.3172  0.0687 -0.1396
 1019DOPE   GL111949   7.929  24.477  15.671 -0.0717 -0.1222 -0.0761
 1019DOPE   GL211950   7.663  24.337  15.719  0.1603 -0.0459 -0.0438
 1019DOPE   C1A11951   7.784  24.291  15.260 -0.0834  0.1759  0.0399
 1019DOPE   D2A11952   7.853  24.059  14.863  0.2296  0.0522  0.0670
 1019DOPE   C3A11953   7.542  23.974  14.490  0.1760  0.2508 -0.1559
 1019DOPE   C4A11954   7.495  24.239  14.073 -0.2024  0.0544 -0.0853
 1019DOPE   C1B11955   7.324  24.221  15.373 -0.1966 -0.1268  0.2965
 1019DOPE   D2B11956   7.316  24.191  14.888 -0.0812  0.1440 -0.0753
 1019DOPE   C3B11957   7.284  24.457  14.498 -0.2955  0.1640  0.0068
 1019DOPE   C4B11958   7.387  24.726  14.169 -0.2022  0.2591  0.4947
 1020DOPS   CNO11959   8.817  28.619  16.000 -0.1370  0.0912 -0.0399
 1020DOPS   PO411960   9.125  28.498  15.835 -0.0775  0.1517 -0.0623
 1020DOPS   GL111961   9.153  28.422  15.513  0.1509  0.3867  0.0535
 1020DOPS   GL211962   8.947  28.348  15.429  0.1581  0.1242 -0.0184
 1020DOPS   C1A11963   9.234  28.773  15.183 -0.0317 -0.0672  0.2393
 1020DOPS   D2A11964   9.269  29.065  14.837 -0.2500  0.1666 -0.1894
 1020DOPS   C3A11965   9.275  28.916  14.357  0.0518 -0.2452 -0.1714
 1020DOPS   C4A11966   9.561  28.603  14.198 -0.1367 -0.1536  0.0525
 1020DOPS   C1B11967   9.049  28.135  15.031  0.1402 -0.1984  0.1656
 1020DOPS   D2B11968   8.919  27.847  14.721 -0.0656  0.0599 -0.0814
 1020DOPS   C3B11969   9.290  27.743  14.480  0.0202  0.1387 -0.1051
 1020DOPS   C4B11970   9.639  27.683  14.127 -0.4723 -0.1655 -0.2180
 1021DOPE   NH311971  10.073  24.890  11.730 -0.1399  0.3148 -0.0338
 1021DOPE   PO411972  10.104  24.812  12.028 -0.2174 -0.1059  0.0919
 1021DOPE   GL111973  10.453  24.750  12.026 -0.3851  0.3076 -0.3111
 1021DOPE   GL211974  10.623  24.764  11.775  0.1210  0.0645  0.0879
 1021DOPE   C1A11975  10.746  24.727  12.344  0.1671 -0.0912 -0.2034
 1021DOPE   D2A11976  11.136  24.787  12.453  0.0565  0.0145  0.6705
 1021DOPE   C3A11977  11.329  24.896  12.839  0.0279 -0.0518  0.0614
 1021DOPE   C4A11978  11.372  25.264  13.049  0.0943 -0.2050  0.3369
 1021DOPE   C1B11979  10.939  24.442  11.945  0.1223 -0.3234 -0.2019
 1021DOPE   D2B11980  11.339  24.273  12.146  0.1744  0.0235 -0.0094
 1021DOPE   C3B11981  11.761  24.353  12.174  0.3659 -0.1428  0.1492
 1021DOPE   C4B11982  12.105  24.297  11.916 -0.1300 -0.2416  0.1226
 1022DOPS   CNO11983   1.957  27.269  12.212  0.2034  0.1389 -0.1793
 1022DOPS   PO411984   1.848  27.220  12.546  0.2097 -0.3630 -0.1754
 1022DOPS   GL111985   2.024  27.137  12.853 -0.3044  0.2502  0.2162
 1022DOPS   GL211986   1.962  27.286  13.048 -0.1134 -0.0631 -0.0420
 1022DOPS   C1A11987   2.239  26.928  13.237 -0.1056 -0.2274  0.0410
 1022DOPS   D2A11988   2.359  26.629  13.569 -0.1358  0.1542 -0.2962
 1022DOPS   C3A11989   2.512  26.195  13.468 -0.0364 -0.0074  0.1892
 1022DOPS   C4A11990   2.207  25.829  13.418 -0.4845  0.0324 -0.0969
 1022DOPS   C1B11991   1.778  27.062  13.427  0.1034  0.0553  0.0394
 1022DOPS   D2B11992   1.414  26.964  13.682  0.2932  0.0018  0.1384
 1022DOPS   C3B11993   1.065  26.701  13.520  0.0392 -0.1191  0.0613
 1022DOPS   C4B11994   0.785  26.306  13.572  0.1859  0.0194  0.2190
 1023DOPE   NH311995   9.478  25.135  12.504 -0.2297 -0.1411 -0.0701
 1023DOPE   PO411996   9.462  25.438  12.499  0.0986 -0.2909  0.0729
 1023DOPE   GL111997   9.365  25.836  12.633 -0.0768 -0.1127 -0.2203
 1023DOPE   GL211998   9.161  25.749  12.705 -0.1299 -0.1202  0.1362
 1023DOPE   C1A11999   9.193  26.187  12.889  0.2375  0.0998 -0.0235
 1023DOPE   D2A12000   8.766  26.136  13.068  0.1389  0.0380  0.2226
 1023DOPE   C3A12001   8.712  25.734  13.329  0.0261  0.2149  0.1519
 1023DOPE   C4A12002   8.802  25.273  13.333  0.0742 -0.0025 -0.2659
 1023DOPE   C1B12003   9.197  25.719  13.170  0.2122  0.1217 -0.0663
 1023DOPE   D2B12004   9.235  25.552  13.589  0.0925  0.2005 -0.0745
 1023DOPE   C3B12005   8.884  25.515  13.804  0.0324  0.0038 -0.0017
 1023DOPE   C4B12006   8.671  25.138  13.892  0.2351 -0.0950 -0.0577
 1024DOPE   NH312007   9.591  24.854  12.100 -0.0615  0.0193 -0.1548
 1024DOPE   PO412008   9.709  24.620  12.334 -0.2812 -0.2533  0.0414
 1024DOPE   GL112009   9.910  24.601  12.569  0.0932  0.5108 -0.2650
 1024DOPE   GL212010  10.232  24.743  12.518  0.6238  0.0418  0.0620
 1024DOPE   C1A12011   9.804  24.384  12.975  0.0446 -0.0190 -0.1721
 1024DOPE   D2A12012   9.629  24.360  13.335  0.2561 -0.2932 -0.0633
 1024DOPE   C3A12013   9.622  24.679  13.579  0.1906 -0.1787 -0.1759
 1024DOPE   C4A12014   9.895  24.957  13.891  0.1074 -0.2205  0.0157
 1024DOPE   C1B12015  10.508  24.941  12.796  0.0646 -0.0077  0.1741
 1024DOPE   D2B12016  10.422  25.079  13.263  0.2461 -0.0178 -0.1155
 1024DOPE   C3B12017  10.041  25.309  13.456  0.0554  0.0262 -0.1866
 1024DOPE   C4B12018   9.780  25.656  13.317 -0.1796  0.2869 -0.1710
 1025DOPC   NC312019   9.880  25.401  11.852 -0.0084 -0.0775 -0.3019
 1025DOPC   PO412020   9.854  25.245  12.203 -0.1519 -0.4770 -0.1396
 1025DOPC   GL112021   9.928  25.421  12.566  0.1098  0.0295 -0.3063
 1025DOPC   GL212022   9.849  25.604  12.721 -0.3429  0.0101 -0.5528
 1025DOPC   C1A12023  10.062  25.201  12.937  0.2268 -0.3653 -0.0622
 1025DOPC   D2A12024  10.088  24.781  13.027 -0.1125  0.1049 -0.2023
 1025DOPC   C3A12025  10.100  24.748  13.450  0.1029 -0.0990  0.0774
 1025DOPC   C4A12026  10.083  24.515  13.802 -0.2281  0.1361  0.0188
 1025DOPC   C1B12027   9.701  26.001  12.949  0.0487  0.0330 -0.0986
 1025DOPC   D2B12028   9.496  26.050  13.401  0.0775 -0.0876  0.3768
 1025DOPC   C3B12029   9.311  25.960  13.822 -0.2033  0.1349  0.1291
 1025DOPC   C4B12030   9.152  26.309  14.130 -0.2947  0.1859 -0.1903
 1026DOPC   NC312031   1.798  30.681  13.255  0.0411 -0.2289  0.1153
 1026DOPC   PO412032   1.954  30.969  13.037 -0.0639 -0.1671  0.2009
 1026DOPC   GL112033   1.992  31.001  13.480 -0.3780  0.1307 -0.0823
 1026DOPC   GL212034   2.244  30.792  13.464  0.0255  0.1540 -0.1095
 1026DOPC   C1A12035   2.279  31.083  13.824  0.0622  0.0053  0.0668
 1026DOPC   D2A12036   2.333  31.252  14.274  0.0736 -0.3111  0.1785
 1026DOPC   C3A12037   2.593  31.553  14.521 -0.6931  0.0321  0.2789
 1026DOPC   C4A12038   2.942  31.781  14.703  0.1501 -0.0643 -0.0498
 1026DOPC   C1B12039   1.965  30.724  13.922  0.2357 -0.2377 -0.2192
 1026DOPC   D2B12040   1.956  30.894  14.330 -0.3555  0.2271  0.3627
 1026DOPC   C3B12041   1.597  31.158  14.511  0.4344 -0.0978 -0.1589
 1026DOPC   C4B12042   1.677  31.364  14.875 -0.0540  0.0477 -0.2909
 1027DOPE   NH312043  34.163  30.678  12.830 -0.0815  0.1174  0.2113
 1027DOPE   PO412044  34.014  30.729  13.121  0.0559 -0.1459 -0.0093
 1027DOPE   GL112045  34.111  31.064  13.202  0.0297  0.3542 -0.3876
 1027DOPE   GL212046  34.380  31.108  13.162  0.0382  0.2229 -0.1297
 1027DOPE   C1A12047  33.990  31.459  13.406  0.0322  0.0169  0.1494
 1027DOPE   D2A12048  33.922  31.555  13.853 -0.2305  0.2454 -0.0542
 1027DOPE   C3A12049  33.674  31.455  14.214 -0.0393  0.2279  0.0196
 1027DOPE   C4A12050  33.455  31.444  14.633 -0.0279 -0.1619 -0.0046
 1027DOPE   C1B12051  34.455  31.417  13.562 -0.3479  0.1654  0.1776
 1027DOPE   D2B12052  34.393  31.612  13.973  0.1922  0.0119 -0.1072
 1027DOPE   C3B12053  34.168  31.276  14.231 -0.1688  0.2177 -0.0994
 1027DOPE   C4B12054  33.874  31.114  14.550 -0.1716 -0.1223  0.0891
 1028DOPE   NH312055  11.704  33.216  11.944 -0.1447 -0.1018 -0.1659
 1028DOPE   PO412056  11.406  33.187  12.025  0.0752  0.1274  0.2972
 1028DOPE   GL112057  11.497  32.835  12.080 -0.1481  0.0457 -0.2809
 1028DOPE   GL212058  11.343  32.679  11.965 -0.2617  0.0778 -0.2985
 1028DOPE   C1A12059  11.556  32.450  12.357 -0.0383 -0.1222  0.0999
 1028DOPE   D2A12060  11.635  32.173  12.712 -0.0690  0.1180 -0.0028
 1028DOPE   C3A12061  11.611  31.791  12.427 -0.2777 -0.1379 -0.2549
 1028DOPE   C4A12062  11.988  31.576  12.428  0.0519  0.2398 -0.0913
 1028DOPE   C1B12063  11.000  32.408  11.864 -0.0315  0.0482  0.2080
 1028DOPE   D2B12064  10.662  32.273  12.145 -0.2246 -0.1741  0.0388
 1028DOPE   C3B12065  10.669  32.223  12.558 -0.0179  0.0036  0.4038
 1028DOPE   C4B12066  10.661  32.500  12.971  0.1391  0.3669 -0.0235
 1029DOPE   NH312067   6.566  27.803  12.294 -0.0500  0.0195 -0.0524
 1029DOPE   PO412068   6.548  27.895  12.621  0.0130 -0.0593 -0.1500
 1029DOPE   GL112069   6.507  28.105  12.966 -0.1166 -0.3057 -0.0210
 1029DOPE   GL212070   6.803  28.232  13.009  0.1128  0.1174 -0.0683
 1029DOPE   C1A12071   6.385  28.472  13.206 -0.0104  0.0575  0.0777
 1029DOPE   D2A12072   6.286  28.912  13.350  0.0138 -0.1790  0.2132
 1029DOPE   C3A12073   6.505  29.174  13.682 -0.0918 -0.1233 -0.1530
 1029DOPE   C4A12074   6.458  29.073  14.175 -0.1319  0.0928  0.1956
 1029DOPE   C1B12075   6.843  28.140  13.472 -0.1849 -0.0241  0.1073
 1029DOPE   D2B12076   6.799  28.336  13.908 -0.0089  0.0104  0.0361
 1029DOPE   C3B12077   7.084  28.454  14.320  0.0233 -0.0841  0.1396
 1029DOPE   C4B12078   7.130  28.433  14.773  0.1809  0.2384  0.2382
 1030POSM   NC312079   0.798  31.123  12.521  0.2228  0.1141  0.0562
 1030POSM   PO412080   0.886  31.153  12.913 -0.1393  0.1150 -0.1944
 1030POSM   AM112081   1.121  31.186  13.116 -0.1004 -0.3578  0.2102
 1030POSM   AM212082   1.316  31.058  13.325 -0.3043 -0.1996 -0.0459
 1030POSM   T1A12083   1.250  31.519  13.474  0.0508  0.0604 -0.0634
 1030POSM   C2A12084   1.599  31.625  13.733  0.1883  0.3107 -0.2931
 1030POSM   C3A12085   1.946  31.735  13.989  0.2668  0.0554  0.3013
 1030POSM   C1B12086   1.504  31.108  13.631  0.0643  0.0803 -0.2518
 1030POSM   D2B12087   1.799  31.235  13.958 -0.1869 -0.2562 -0.4223
 1030POSM   C3B12088   1.512  31.588  14.288 -0.0496 -0.0446  0.1532
 1030POSM   C4B12089   1.267  31.689  14.692  0.1281 -0.1463  0.1579
 1031DOPE   NH312090   3.933  31.187  12.899  0.1760  0.2924  0.1670
 1031DOPE   PO412091   3.873  30.919  13.094  0.0527 -0.0265 -0.2181
 1031DOPE   GL112092   4.039  30.722  13.296 -0.5538 -0.1405 -0.2108
 1031DOPE   GL212093   3.842  30.459  13.335  0.1407 -0.3011 -0.2944
 1031DOPE   C1A12094   4.266  30.700  13.705  0.1988  0.2397  0.2341
 1031DOPE   D2A12095   4.000  30.664  14.120 -0.3439  0.1087  0.1808
 1031DOPE   C3A12096   4.316  30.885  14.402 -0.1971 -0.2735 -0.1176
 1031DOPE   C4A12097   4.798  30.915  14.426 -0.1318  0.0180 -0.2179
 1031DOPE   C1B12098   3.727  30.480  13.761 -0.1432  0.1076  0.0827
 1031DOPE   D2B12099   3.574  30.433  14.191 -0.1783  0.0447 -0.1771
 1031DOPE   C3B12100   3.697  30.678  14.525 -0.1770 -0.0750  0.1781
 1031DOPE   C4B12101   3.800  31.159  14.446  0.1240  0.3104  0.1249
 1032POSM   NC312102   6.831  30.369  12.913 -0.1300 -0.2771 -0.0979
 1032POSM   PO412103   7.177  30.569  12.852 -0.0122 -0.2086  0.0822
 1032POSM   AM112104   7.360  30.767  13.001 -0.2026  0.1997 -0.0306
 1032POSM   AM212105   7.636  30.795  13.170  0.2102 -0.0869  0.3774
 1032POSM   T1A12106   7.267  31.108  13.336  0.1511  0.1265  0.0912
 1032POSM   C2A12107   7.257  31.428  13.704  0.1188 -0.0362  0.1538
 1032POSM   C3A12108   6.907  31.594  13.942  0.0294  0.0529  0.1854
 1032POSM   C1B12109   7.667  30.571  13.408  0.0144  0.1205  0.0140
 1032POSM   D2B12110   7.694  30.181  13.689  0.1191  0.0744 -0.6454
 1032POSM   C3B12111   7.524  29.845  13.444 -0.0814 -0.1097 -0.4878
 1032POSM   C4B12112   7.462  29.392  13.524 -0.2988 -0.3600  0.1617
 1033POSM   NC312113   0.759  23.059  12.274  0.1226 -0.1956  0.2512
 1033POSM   PO412114   0.660  22.722  12.481 -0.0477  0.1097 -0.0988
 1033POSM   AM112115   0.697  22.949  12.716 -0.0538 -0.0903  0.2665
 1033POSM   AM212116   0.854  23.086  12.928  0.3161  0.0036 -0.0933
 1033POSM   T1A12117   0.547  23.439  12.738 -0.0047 -0.0874  0.1545
 1033POSM   C2A12118   0.296  23.741  12.522  0.1029 -0.1940 -0.1096
 1033POSM   C3A12119  -0.128  23.974  12.561 -0.2640  0.2132 -0.1384
 1033POSM   C1B12120   0.928  23.301  13.158 -0.1899  0.2767  0.1394
 1033POSM   D2B12121   1.007  23.766  13.315 -0.1344  0.1291 -0.1245
 1033POSM   C3B12122   0.698  23.915  13.638 -0.1296  0.0737  0.1290
 1033POSM   C4B12123   0.628  23.891  14.087  0.0534 -0.2300 -0.0387
 1034DOPC   NC312124  10.231  31.800  11.729  0.0448 -0.2089 -0.0676
 1034DOPC   PO412125   9.914  31.647  11.940 -0.1079 -0.0795 -0.1210
 1034DOPC   GL112126   9.885  32.094  11.963  0.2053  0.1868  0.0775
 1034DOPC   GL212127   9.764  32.131  12.251  0.1491  0.0554 -0.3459
 1034DOPC   C1A12128  10.205  32.409  11.733 -0.1099  0.2114 -0.1343
 1034DOPC   D2A12129  10.402  32.807  11.876 -0.0551  0.3993 -0.0132
 1034DOPC   C3A12130  10.173  33.219  11.960 -0.3545 -0.2231  0.1478
 1034DOPC   C4A12131   9.922  33.579  11.761 -0.3175  0.1910  0.0088
 1034DOPC   C1B12132   9.648  32.471  11.971 -0.1148  0.0216 -0.0022
 1034DOPC   D2B12133   9.418  32.640  11.649  0.3461  0.1109  0.0280
 1034DOPC   C3B12134   8.926  32.517  11.644  0.1034  0.1467  0.1857
 1034DOPC   C4B12135   8.543  32.413  11.985  0.1616  0.1333 -0.0510
 1035DOPC   NC312136   6.982  31.284  12.224  0.1943  0.0301  0.0634
 1035DOPC   PO412137   6.702  31.574  12.206  0.0057  0.0799  0.0469
 1035DOPC   GL112138   7.017  31.725  12.275  0.1358 -0.2282  0.3107
 1035DOPC   GL212139   6.995  31.994  12.290  0.0450 -0.1316  0.1387
 1035DOPC   C1A12140   7.432  31.657  12.450  0.1573 -0.1333  0.1596
 1035DOPC   D2A12141   7.539  31.721  12.888 -0.1126  0.2700  0.0502
 1035DOPC   C3A12142   7.574  32.171  13.104 -0.2088  0.1598  0.6581
 1035DOPC   C4A12143   7.724  32.576  13.270 -0.2679 -0.5629  0.0868
 1035DOPC   C1B12144   7.420  32.123  12.164 -0.1874  0.0220  0.0152
 1035DOPC   D2B12145   7.846  32.267  12.105 -0.0671  0.3012 -0.0535
 1035DOPC   C3B12146   8.174  32.313  12.455 -0.1103  0.0993 -0.1866
 1035DOPC   C4B12147   7.995  32.343  12.939 -0.0500  0.1534 -0.2707
 1036DOPC   NC312148   3.355  28.601  12.755  0.0526 -0.1998  0.2202
 1036DOPC   PO412149   3.275  28.609  12.367 -0.0188  0.1081 -0.2569
 1036DOPC   GL112150   3.577  28.238  12.489 -0.1004  0.0873  0.0128
 1036DOPC   GL212151   3.427  27.988  12.666 -0.0981  0.2447  0.2142
 1036DOPC   C1A12152   3.839  28.273  12.862  0.2964 -0.3900  0.0858
 1036DOPC   D2A12153   4.029  27.929  13.089 -0.1442  0.2191 -0.3341
 1036DOPC   C3A12154   3.955  27.715  13.434  0.0678 -0.0936 -0.0991
 1036DOPC   C4A12155   4.260  27.730  13.815  0.0879 -0.0879  0.2802
 1036DOPC   C1B12156   3.746  27.666  12.775 -0.1353  0.0814 -0.1124
 1036DOPC   D2B12157   3.833  27.205  12.735  0.0314  0.0637 -0.0369
 1036DOPC   C3B12158   4.316  27.109  12.679  0.0126  0.0816 -0.0266
 1036DOPC   C4B12159   4.706  27.248  12.887  0.0942  0.0735 -0.1684
 1037DOPE   NH312160   7.202  23.167  12.503  0.3086  0.0728  0.5099
 1037DOPE   PO412161   6.916  23.270  12.485 -0.0612 -0.0191  0.1818
 1037DOPE   GL112162   6.743  23.393  12.764  0.1793  0.0499 -0.1202
 1037DOPE   GL212163   6.839  23.637  12.894 -0.1795  0.1551 -0.2705
 1037DOPE   C1A12164   6.800  23.292  13.224 -0.2764  0.0678  0.1595
 1037DOPE   D2A12165   6.980  23.394  13.621 -0.3625 -0.4968  0.0393
 1037DOPE   C3A12166   6.802  23.004  13.834  0.0213 -0.2392 -0.2185
 1037DOPE   C4A12167   6.444  22.797  14.045  0.2696 -0.0164 -0.2350
 1037DOPE   C1B12168   6.851  23.892  13.264 -0.0017  0.3813  0.4279
 1037DOPE   D2B12169   6.635  24.296  13.379  0.2485 -0.1937 -0.0472
 1037DOPE   C3B12170   6.710  24.539  13.763 -0.0688 -0.0346 -0.0411
 1037DOPE   C4B12171   6.994  24.421  14.077  0.1845  0.2178  0.1841
 1038POSM   NC312172   6.818  22.830  12.348  0.0327 -0.0808 -0.2557
 1038POSM   PO412173   6.510  22.921  12.594 -0.0636  0.0696  0.1594
 1038POSM   AM112174   6.434  22.812  12.891  0.1080 -0.1073 -0.0589
 1038POSM   AM212175   6.506  22.890  13.199  0.2499 -0.2721 -0.0484
 1038POSM   T1A12176   6.083  22.623  13.133 -0.0775  0.1912  0.1455
 1038POSM   C2A12177   5.847  22.537  13.472  0.0749 -0.1163  0.1605
 1038POSM   C3A12178   5.407  22.512  13.670  0.1521 -0.1738 -0.2299
 1038POSM   C1B12179   6.802  22.835  13.377 -0.2385  0.1759  0.2052
 1038POSM   D2B12180   7.221  22.849  13.624 -0.2377 -0.2026 -0.0539
 1038POSM   C3B12181   7.473  22.851  13.993  0.2421 -0.0422 -0.2365
 1038POSM   C4B12182   7.639  22.611  14.427 -0.2227 -0.1562  0.4009
 1039DOPE   NH312183   0.833  31.651  12.498 -0.1027 -0.0297  0.2029
 1039DOPE   PO412184   0.783  31.684  12.832  0.2443  0.1525 -0.2178
 1039DOPE   GL112185   0.781  31.772  13.271 -0.1191  0.0303  0.0329
 1039DOPE   GL212186   0.778  31.536  13.345 -0.0502 -0.3282  0.1538
 1039DOPE   C1A12187   0.706  32.142  13.586  0.3665 -0.0769 -0.0598
 1039DOPE   D2A12188   0.796  32.420  13.949 -0.2660  0.0162  0.0897
 1039DOPE   C3A12189   0.735  32.616  14.345  0.1191 -0.0994 -0.0366
 1039DOPE   C4A12190   0.885  32.446  14.791 -0.1096 -0.1293  0.1211
 1039DOPE   C1B12191   0.662  31.657  13.786  0.0711 -0.1923  0.1518
 1039DOPE   D2B12192   0.796  31.651  14.273 -0.0498 -0.0997  0.0450
 1039DOPE   C3B12193   0.511  31.380  14.582  0.0902 -0.0757  0.3378
 1039DOPE   C4B12194   0.227  31.531  14.946  0.0206  0.1848  0.1646
 1040DOPC   NC312195   8.622  23.509  12.002 -0.0749  0.1152  0.1169
 1040DOPC   PO412196   8.952  23.691  12.063 -0.1010 -0.1995  0.0016
 1040DOPC   GL112197   8.725  23.667  12.459 -0.1537 -0.5217 -0.1146
 1040DOPC   GL212198   8.977  23.828  12.517  0.0963 -0.3721  0.2753
 1040DOPC   C1A12199   8.624  23.409  12.827 -0.0456  0.1390  0.1037
 1040DOPC   D2A12200   8.722  23.426  13.257  0.1943  0.0643  0.1906
 1040DOPC   C3A12201   8.872  23.042  13.452  0.1376 -0.1426 -0.0197
 1040DOPC   C4A12202   8.806  22.713  13.749 -0.0572 -0.0686 -0.4241
 1040DOPC   C1B12203   8.979  23.818  12.976  0.3027 -0.1071  0.0399
 1040DOPC   D2B12204   9.011  23.873  13.463  0.3248  0.0131  0.1838
 1040DOPC   C3B12205   9.337  24.145  13.671  0.3404  0.1344 -0.1295
 1040DOPC   C4B12206   9.777  24.158  13.804 -0.0323 -0.0243  0.1380
 1041POSM   NC312207   7.732  23.105  12.255 -0.1564 -0.0276 -0.0576
 1041POSM   PO412208   7.603  23.435  12.387  0.1102 -0.0785 -0.0714
 1041POSM   AM112209   7.662  23.481  12.711 -0.1145  0.2901  0.0648
 1041POSM   AM212210   7.481  23.411  12.893 -0.3241  0.0376  0.1511
 1041POSM   T1A12211   7.898  23.406  13.136 -0.0068 -0.0170  0.0570
 1041POSM   C2A12212   8.250  23.582  13.335  0.1618 -0.0841 -0.2392
 1041POSM   C3A12213   8.330  23.891  13.656 -0.0512 -0.0707  0.2420
 1041POSM   C1B12214   7.328  23.566  13.171  0.4874  0.1980  0.1082
 1041POSM   D2B12215   7.396  23.798  13.534  0.1560 -0.0776 -0.2052
 1041POSM   C3B12216   7.821  24.002  13.682 -0.3507 -0.0428 -0.1021
 1041POSM   C4B12217   8.078  24.284  13.935  0.1402  0.0393 -0.0062
 1042DOPE   NH312218   9.102  28.693  12.144  0.3506  0.1598  0.3117
 1042DOPE   PO412219   8.893  28.893  12.233 -0.0054  0.1294  0.0096
 1042DOPE   GL112220   8.599  29.013  12.447  0.0701 -0.3415 -0.1468
 1042DOPE   GL212221   8.557  28.946  12.742 -0.1445 -0.1286  0.0701
 1042DOPE   C1A12222   8.108  29.048  12.367 -0.1847  0.2157 -0.0212
 1042DOPE   D2A12223   7.870  29.453  12.456 -0.0862  0.2585  0.0440
 1042DOPE   C3A12224   8.008  29.716  12.821  0.1152 -0.0364 -0.0721
 1042DOPE   C4A12225   7.989  29.695  13.272  0.1487  0.0782  0.0368
 1042DOPE   C1B12226   8.171  28.692  12.857  0.2587  0.0975  0.0911
 1042DOPE   D2B12227   8.032  28.576  13.275 -0.0660 -0.1885  0.0374
 1042DOPE   C3B12228   7.699  28.614  13.600 -0.0754 -0.0522  0.0278
 1042DOPE   C4B12229   7.580  28.988  13.834  0.0373  0.1876 -0.0594
 1043DOPE   NH312230   0.410  26.877  12.760 -0.0665 -0.0914  0.2655
 1043DOPE   PO412231   0.579  27.151  12.649  0.3845 -0.1410 -0.3889
 1043DOPE   GL112232   0.420  27.232  13.011 -0.0001  0.1084 -0.0133
 1043DOPE   GL212233   0.254  27.484  12.897  0.2290 -0.1082  0.0891
 1043DOPE   C1A12234   0.098  26.931  13.195 -0.2268 -0.1296  0.4114
 1043DOPE   D2A12235  -0.093  26.802  13.570  0.3887  0.0133 -0.1908
 1043DOPE   C3A12236  -0.224  27.215  13.683  0.1325  0.0269 -0.1578
 1043DOPE   C4A12237  -0.291  27.678  13.843 -0.4061  0.3596  0.0493
 1043DOPE   C1B12238   0.005  27.858  12.843 -0.0965  0.1859  0.2007
 1043DOPE   D2B12239  -0.376  28.114  12.922 -0.3275  0.0568  0.0974
 1043DOPE   C3B12240  -0.351  28.517  12.758  0.1973  0.1149  0.0027
 1043DOPE   C4B12241  -0.087  28.880  12.941  0.2159  0.0377 -0.0638
 1044DOPC   NC312242   3.874  30.360  12.777 -0.0248 -0.0466  0.0531
 1044DOPC   PO412243   3.943  29.994  12.590 -0.0019  0.0255 -0.0217
 1044DOPC   GL112244   4.272  29.878  12.755  0.0454 -0.1586  0.0102
 1044DOPC   GL212245   4.465  30.154  12.651  0.0672  0.0665 -0.3413
 1044DOPC   C1A12246   4.258  29.665  13.167 -0.1476  0.4272  0.0307
 1044DOPC   D2A12247   4.214  29.580  13.619  0.1367 -0.2347  0.2723
 1044DOPC   C3A12248   4.345  29.948  13.827 -0.1704  0.0005 -0.0523
 1044DOPC   C4A12249   4.484  30.209  14.215  0.0144  0.5096  0.3296
 1044DOPC   C1B12250   4.663  30.025  13.019 -0.1996 -0.1190 -0.1019
 1044DOPC   D2B12251   4.658  29.763  13.464 -0.1109 -0.0124 -0.1374
 1044DOPC   C3B12252   4.642  29.308  13.429 -0.2007  0.2193 -0.2367
 1044DOPC   C4B12253   4.346  29.017  13.342  0.0703  0.0389 -0.1332
 1045DOPE   NH312254   1.172  30.795  12.738  0.2250  0.1095  0.0273
 1045DOPE   PO412255   1.413  30.748  12.953  0.1325  0.2820 -0.0680
 1045DOPE   GL112256   1.356  30.603  13.345  0.2546 -0.1791  0.1734
 1045DOPE   GL212257   1.134  30.398  13.173 -0.1972  0.2760 -0.0055
 1045DOPE   C1A12258   1.457  30.576  13.809  0.2062  0.0211 -0.3470
 1045DOPE   D2A12259   1.701  30.208  13.969  0.0714  0.0585  0.2334
 1045DOPE   C3A12260   1.779  30.417  14.419 -0.0794 -0.2401 -0.0077
 1045DOPE   C4A12261   2.226  30.460  14.625  0.0649 -0.0173 -0.2724
 1045DOPE   C1B12262   0.789  30.269  13.521  0.1460 -0.3347  0.0309
 1045DOPE   D2B12263   0.807  30.252  13.967  0.3382 -0.0824  0.3391
 1045DOPE   C3B12264   1.178  30.432  14.208  0.2029 -0.0625 -0.1479
 1045DOPE   C4B12265   1.407  30.856  14.189 -0.1202 -0.2021  0.1063
 1046POSM   NC312266   8.155  28.505  12.400 -0.1495 -0.2677  0.3023
 1046POSM   PO412267   8.043  28.090  12.513 -0.4478 -0.2913  0.1223
 1046POSM   AM112268   7.892  28.231  12.790 -0.1289  0.1543  0.0799
 1046POSM   AM212269   7.846  28.106  13.049 -0.1243  0.1449  0.2363
 1046POSM   T1A12270   7.606  28.561  13.031 -0.0920  0.1847 -0.1214
 1046POSM   C2A12271   7.414  28.903  13.312  0.0323 -0.0882 -0.0522
 1046POSM   C3A12272   7.110  29.027  13.643 -0.1460  0.1915  0.2211
 1046POSM   C1B12273   7.836  28.002  13.368  0.0888 -0.1519 -0.3185
 1046POSM   D2B12274   7.742  28.115  13.782 -0.1570  0.2932 -0.0368
 1046POSM   C3B12275   7.842  28.046  14.222 -0.0394  0.1943 -0.2354
 1046POSM   C4B12276   7.995  28.360  14.579 -0.2292  0.3394  0.1359
 1047DOPC   NC312277   7.884  30.152  12.503  0.0023  0.1033 -0.2763
 1047DOPC   PO412278   7.801  30.385  12.210 -0.2158  0.0376  0.1974
 1047DOPC   GL112279   7.988  30.768  12.316  0.0327 -0.1874  0.0715
 1047DOPC   GL212280   7.877  30.983  12.594  0.1734 -0.1463 -0.3545
 1047DOPC   C1A12281   8.336  30.969  12.440  0.4334  0.0629  0.0049
 1047DOPC   D2A12282   8.351  31.404  12.494 -0.1586 -0.2457 -0.1775
 1047DOPC   C3A12283   8.581  31.505  12.917 -0.0678  0.1550  0.0445
 1047DOPC   C4A12284   8.964  31.761  13.028  0.0862 -0.0450  0.0691
 1047DOPC   C1B12285   8.021  31.339  12.887  0.2691 -0.1487  0.0849
 1047DOPC   D2B12286   8.033  31.762  13.040  0.0072  0.2247 -0.2150
 1047DOPC   C3B12287   8.412  32.055  13.143  0.2492  0.1456 -0.0240
 1047DOPC   C4B12288   8.583  32.460  12.988 -0.6025  0.0894 -0.1077
 1048POSM   NC312289   7.572  34.446  12.282  0.1885 -0.0297 -0.1112
 1048POSM   PO412290   7.777  34.304  12.584 -0.0922  0.3469  0.2201
 1048POSM   AM112291   7.631  34.075  12.740  0.1723 -0.0347 -0.2286
 1048POSM   AM212292   7.702  33.813  12.806  0.1647 -0.0040 -0.2321
 1048POSM   T1A12293   7.200  33.849  12.893  0.2265 -0.1394  0.1476
 1048POSM   C2A12294   6.784  33.728  13.035 -0.1670 -0.0743 -0.1480
 1048POSM   C3A12295   6.369  33.650  12.903 -0.2161 -0.1542  0.0799
 1048POSM   C1B12296   7.945  33.891  12.995 -0.1813  0.2186  0.0117
 1048POSM   D2B12297   8.062  34.041  13.418 -0.2952  0.1249 -0.6120
 1048POSM   C3B12298   8.238  34.264  13.762 -0.1921 -0.1830 -0.2067
 1048POSM   C4B12299   8.386  34.683  13.915 -0.1279 -0.1134  0.0486
 1049DOPE   NH312300   5.760  23.573  12.481 -0.3081  0.2188  0.1000
 1049DOPE   PO412301   5.797  23.615  12.774  0.0987 -0.0492  0.1225
 1049DOPE   GL112302   5.767  23.330  12.916  0.2509  0.3097 -0.0952
 1049DOPE   GL212303   5.592  23.184  13.114  0.3158 -0.0885  0.3443
 1049DOPE   C1A12304   6.034  23.151  13.242  0.0431 -0.0505 -0.3764
 1049DOPE   D2A12305   6.126  22.953  13.683  0.1692 -0.1381  0.1150
 1049DOPE   C3A12306   6.383  23.305  13.895  0.1943  0.1729 -0.1090
 1049DOPE   C4A12307   6.448  23.725  14.134  0.1189  0.1775  0.1071
 1049DOPE   C1B12308   5.652  23.000  13.534  0.1900 -0.1611 -0.1628
 1049DOPE   D2B12309   5.593  22.973  14.009  0.3270 -0.1014  0.3628
 1049DOPE   C3B12310   5.519  22.581  14.191 -0.2519 -0.3286 -0.0329
 1049DOPE   C4B12311   5.250  22.271  14.173 -0.2922  0.2819 -0.0482
 1050DOPC   NC312312   9.288  27.725  12.551 -0.3278 -0.0506 -0.2047
 1050DOPC   PO412313   8.916  27.701  12.468 -0.0336  0.2114  0.0765
 1050DOPC   GL112314   8.858  27.533  12.839  0.3486  0.0383 -0.5843
 1050DOPC   GL212315   8.716  27.684  12.943 -0.0751 -0.0466 -0.1773
 1050DOPC   C1A12316   8.648  27.097  12.889 -0.0420  0.2447 -0.0108
 1050DOPC   D2A12317   8.913  26.694  12.674  0.2182  0.1490  0.0821
 1050DOPC   C3A12318   8.862  26.232  12.506  0.2340 -0.2240 -0.2502
 1050DOPC   C4A12319   8.662  25.849  12.568  0.1264 -0.1273 -0.1432
 1050DOPC   C1B12320   8.594  27.467  13.327  0.2335 -0.0588 -0.0803
 1050DOPC   D2B12321   8.413  27.348  13.742 -0.0336  0.1049 -0.0610
 1050DOPC   C3B12322   8.774  27.263  13.972 -0.0952  0.1079 -0.0438
 1050DOPC   C4B12323   9.079  27.549  14.051 -0.0671 -0.2077 -0.1568
 1051DOPE   NH312324  11.487  23.170  12.142 -0.0479 -0.1465  0.2678
 1051DOPE   PO412325  11.504  23.487  12.135 -0.0016  0.1209 -0.2308
 1051DOPE   GL112326  11.622  23.823  12.298 -0.0819  0.3273 -0.1562
 1051DOPE   GL212327  11.249  23.867  12.395  0.2016  0.2721 -0.1165
 1051DOPE   C1A12328  11.799  24.008  12.711  0.0880 -0.1263  0.2369
 1051DOPE   D2A12329  12.016  24.316  12.979 -0.1079  0.1807  0.0735
 1051DOPE   C3A12330  11.680  24.460  13.270 -0.2708 -0.1411  0.0553
 1051DOPE   C4A12331  11.315  24.686  13.315 -0.1185 -0.1457 -0.1003
 1051DOPE   C1B12332  11.223  23.920  12.831  0.0796 -0.2723  0.0019
 1051DOPE   D2B12333  11.502  23.849  13.168 -0.3783 -0.3244 -0.2221
 1051DOPE   C3B12334  11.670  23.766  13.599 -0.0962 -0.1714  0.0271
 1051DOPE   C4B12335  11.526  23.378  13.803 -0.1161 -0.2183 -0.4292
 1052POSM   NC312336   1.249  27.640  12.625  0.1238 -0.1567 -0.0689
 1052POSM   PO412337   1.643  27.657  12.705 -0.2161 -0.1417  0.1976
 1052POSM   AM112338   1.539  27.618  13.021  0.2685 -0.3309 -0.1384
 1052POSM   AM212339   1.337  27.565  13.175 -0.1011  0.5426  0.0296
 1052POSM   T1A12340   1.597  27.557  13.559  0.1220  0.1137 -0.1524
 1052POSM   C2A12341   1.764  27.397  13.933 -0.0580  0.1655  0.0401
 1052POSM   C3A12342   1.739  27.125  14.320 -0.1243  0.1146  0.1833
 1052POSM   C1B12343   1.133  27.374  13.410 -0.0434 -0.6141  0.3636
 1052POSM   D2B12344   1.005  27.249  13.803  0.0103  0.1789 -0.2065
 1052POSM   C3B12345   1.263  27.294  14.204  0.1303  0.1969  0.1797
 1052POSM   C4B12346   1.125  27.103  14.635 -0.0721  0.0384 -0.0194
 1053DOPC   NC312347   6.445  31.098  12.341  0.2201 -0.1963 -0.1671
 1053DOPC   PO412348   6.460  30.912  12.682 -0.4595  0.0205  0.0279
 1053DOPC   GL112349   6.485  30.565  12.607 -0.0750  0.2948  0.3504
 1053DOPC   GL212350   6.548  30.505  12.250 -0.1439  0.2840  0.0348
 1053DOPC   C1A12351   6.257  30.322  12.939 -0.0989  0.2498 -0.0277
 1053DOPC   D2A12352   6.149  30.039  13.302  0.1107  0.1411  0.4740
 1053DOPC   C3A12353   5.814  29.890  13.581 -0.1005 -0.1406 -0.3294
 1053DOPC   C4A12354   5.478  29.899  13.893 -0.1492 -0.1441  0.1037
 1053DOPC   C1B12355   6.282  30.150  12.470 -0.1564  0.0110 -0.0103
 1053DOPC   D2B12356   6.273  29.820  12.798 -0.2127  0.1767 -0.1242
 1053DOPC   C3B12357   6.589  29.973  13.139  0.6839  0.1485  0.1206
 1053DOPC   C4B12358   7.036  30.013  13.203 -0.1069 -0.0466  0.3139
 1054POSM   NC312359   8.953  24.254  12.084  0.2887 -0.3187 -0.2639
 1054POSM   PO412360   8.617  24.068  12.019 -0.0656 -0.0725  0.1426
 1054POSM   AM112361   8.494  24.293  12.233 -0.3397  0.1244  0.0155
 1054POSM   AM212362   8.323  24.491  12.187 -0.3363 -0.1113  0.1796
 1054POSM   T1A12363   8.434  24.496  12.680 -0.0269  0.1786  0.2897
 1054POSM   C2A12364   8.380  24.567  13.133  0.0521 -0.1415 -0.1046
 1054POSM   C3A12365   7.977  24.393  13.392 -0.1262  0.0583  0.0046
 1054POSM   C1B12366   8.040  24.417  12.341  0.1400 -0.2284 -0.2481
 1054POSM   D2B12367   7.636  24.454  12.502 -0.2096 -0.0256  0.0563
 1054POSM   C3B12368   7.452  24.726  12.818  0.1223  0.0864 -0.0807
 1054POSM   C4B12369   7.609  24.958  13.177  0.2223  0.1063 -0.0630
 1055POSM   NC312370  34.121  30.262  12.593  0.2774  0.0976  0.2279
 1055POSM   PO412371  34.503  30.350  12.693  0.1224 -0.0107 -0.0315
 1055POSM   AM112372  34.752  30.242  12.901  0.1735  0.0461  0.0294
 1055POSM   AM212373  34.920  30.030  12.936 -0.2357  0.1406  0.0368
 1055POSM   T1A12374  34.818  30.210  13.373  0.2337 -0.1590 -0.1810
 1055POSM   C2A12375  34.947  30.038  13.764 -0.0635  0.2625  0.2658
 1055POSM   C3A12376  34.689  29.786  13.987 -0.1126  0.0097 -0.0994
 1055POSM   C1B12377  35.134  29.758  13.017 -0.2636  0.3798  0.2668
 1055POSM   D2B12378  35.439  29.654  13.338 -0.3452  0.1607  0.0083
 1055POSM   C3B12379  35.346  29.771  13.758 -0.2522 -0.4200 -0.2532
 1055POSM   C4B12380  35.512  29.759  14.153  0.0043  0.2746  0.2163
 1056DOPC   NC312381   5.094  25.070  12.309  0.0439  0.0368  0.0746
 1056DOPC   PO412382   4.675  25.137  12.343 -0.3250 -0.0867 -0.0147
 1056DOPC   GL112383   4.795  25.237  12.710 -0.2055  0.2410 -0.1899
 1056DOPC   GL212384   4.619  25.156  12.925 -0.0254 -0.0054 -0.1096
 1056DOPC   C1A12385   5.167  24.994  12.884 -0.3002 -0.0111 -0.2942
 1056DOPC   D2A12386   5.373  25.011  13.296  0.3761  0.1002 -0.0049
 1056DOPC   C3A12387   5.328  24.986  13.792  0.0992 -0.2572 -0.3831
 1056DOPC   C4A12388   4.961  24.961  14.094  0.1041  0.1059 -0.4619
 1056DOPC   C1B12389   4.863  25.130  13.273 -0.1044 -0.2301 -0.3341
 1056DOPC   D2B12390   5.086  25.455  13.526 -0.3633  0.0276 -0.0486
 1056DOPC   C3B12391   5.265  25.441  13.955 -0.1695  0.0284 -0.0088
 1056DOPC   C4B12392   5.400  25.181  14.311 -0.0144  0.1450  0.0448
 1057DOPE   NH312393   3.574  24.784  12.787  0.3410  0.0494  0.1178
 1057DOPE   PO412394   3.343  24.887  12.597 -0.2992  0.2560 -0.2127
 1057DOPE   GL112395   3.309  25.189  12.851 -0.0957  0.2375  0.1081
 1057DOPE   GL212396   3.506  25.185  13.094 -0.1878  0.0066  0.1140
 1057DOPE   C1A12397   3.018  25.240  13.217 -0.2243  0.1497 -0.0965
 1057DOPE   D2A12398   2.945  25.255  13.696 -0.2567  0.1192  0.1656
 1057DOPE   C3A12399   2.954  24.825  13.873  0.2405  0.2697  0.0226
 1057DOPE   C4A12400   2.843  24.823  14.333  0.1118 -0.1101  0.2621
 1057DOPE   C1B12401   3.428  25.176  13.529  0.0299  0.0630  0.3971
 1057DOPE   D2B12402   3.595  25.443  13.899 -0.0617 -0.0797  0.0490
 1057DOPE   C3B12403   3.324  25.799  13.974 -0.1813 -0.1278 -0.1223
 1057DOPE   C4B12404   3.212  26.220  14.173  0.1646 -0.0259  0.0450
 1058POSM   NC312405   2.383  34.593  12.366 -0.1014  0.0040  0.0102
 1058POSM   PO412406   2.457  34.950  12.269 -0.3451  0.0161 -0.3192
 1058POSM   AM112407   2.590  35.054  12.516  0.3504 -0.5865  0.0079
 1058POSM   AM212408   2.646  34.902  12.759 -0.1106  0.1247 -0.0013
 1058POSM   T1A12409   2.983  35.194  12.753 -0.0404 -0.2320  0.0242
 1058POSM   C2A12410   3.459  35.273  12.825  0.1400 -0.2544 -0.0944
 1058POSM   C3A12411   3.661  35.611  13.082 -0.4423  0.0094 -0.0070
 1058POSM   C1B12412   2.665  34.728  13.092 -0.0355  0.1894  0.2057
 1058POSM   D2B12413   2.706  34.760  13.576  0.0978 -0.0884 -0.2015
 1058POSM   C3B12414   2.930  35.191  13.713 -0.1830  0.0697 -0.0231
 1058POSM   C4B12415   2.985  35.472  14.087  0.3423  0.1100  0.3191
 1059POSM   NC312416   3.522  25.259  12.258  0.1261  0.1623  0.2830
 1059POSM   PO412417   3.722  25.245  12.545 -0.1351 -0.1965 -0.2075
 1059POSM   AM112418   3.657  25.457  12.773  0.0842 -0.3123  0.0762
 1059POSM   AM212419   3.498  25.707  12.728  0.1044 -0.1117  0.1941
 1059POSM   T1A12420   3.717  25.610  13.264  0.2146  0.1792  0.0043
 1059POSM   C2A12421   3.856  25.819  13.681 -0.2855 -0.2088  0.4041
 1059POSM   C3A12422   3.795  25.852  14.139 -0.1320 -0.0644  0.2626
 1059POSM   C1B12423   3.315  25.649  13.021 -0.0297 -0.0251  0.0644
 1059POSM   D2B12424   3.198  25.752  13.461  0.2659 -0.1070  0.1442
 1059POSM   C3B12425   2.946  26.015  13.733 -0.1805  0.0771 -0.0203
 1059POSM   C4B12426   2.682  26.317  13.965  0.1439 -0.2480 -0.1138
 1060DOPS   CNO12427   6.815  28.287  12.219  0.1618  0.0108 -0.0386
 1060DOPS   PO412428   6.703  28.415  12.574 -0.2863 -0.1691 -0.2277
 1060DOPS   GL112429   6.800  28.771  12.668  0.0715 -0.0227 -0.2797
 1060DOPS   GL212430   6.552  28.843  12.854 -0.2402 -0.0893  0.2685
 1060DOPS   C1A12431   6.981  29.129  12.793  0.1884  0.0482 -0.0315
 1060DOPS   D2A12432   6.976  29.426  13.173 -0.1381 -0.1122  0.0747
 1060DOPS   C3A12433   6.946  29.485  13.625  0.1899  0.1670 -0.0462
 1060DOPS   C4A12434   6.797  29.370  14.027 -0.2416 -0.1397  0.3458
 1060DOPS   C1B12435   6.768  28.959  13.256  0.1820 -0.0116  0.6228
 1060DOPS   D2B12436   6.676  28.764  13.649 -0.0357  0.1788 -0.1026
 1060DOPS   C3B12437   6.231  28.714  13.805 -0.2271  0.0222 -0.0473
 1060DOPS   C4B12438   6.032  29.136  13.934  0.1600  0.2293  0.1529
 1061DOPC   NC312439   3.081  31.547  12.458 -0.1106  0.1763 -0.1587
 1061DOPC   PO412440   2.894  31.430  12.829  0.0261 -0.3270 -0.3696
 1061DOPC   GL112441   2.839  31.905  12.914 -0.2482 -0.0241  0.0155
 1061DOPC   GL212442   2.969  31.947  13.173 -0.0865 -0.0411 -0.0118
 1061DOPC   C1A12443   2.489  32.263  13.030 -0.4573  0.0989  0.0570
 1061DOPC   D2A12444   2.508  32.719  13.303 -0.1065  0.0553  0.1386
 1061DOPC   C3A12445   2.511  32.702  13.770  0.2944 -0.1015 -0.2357
 1061DOPC   C4A12446   2.452  32.620  14.215  0.1697 -0.1125  0.0982
 1061DOPC   C1B12447   2.526  31.833  13.210  0.2181  0.1396 -0.1419
 1061DOPC   D2B12448   2.085  31.938  13.293  0.0140 -0.1071  0.2180
 1061DOPC   C3B12449   1.782  32.120  13.622 -0.2458 -0.2719 -0.1048
 1061DOPC   C4B12450   1.561  32.059  14.017  0.2462  0.2414  0.0941
 1062POSM   NC312451  33.661  29.716  12.122 -0.0622  0.2984 -0.1099
 1062POSM   PO412452  34.057  29.666  12.186  0.1914  0.1653  0.0403
 1062POSM   AM112453  34.204  29.500  12.447  0.0947 -0.3617 -0.4950
 1062POSM   AM212454  34.208  29.364  12.701  0.2325 -0.1251  0.1988
 1062POSM   T1A12455  34.603  29.124  12.479 -0.1133 -0.0337  0.4599
 1062POSM   C2A12456  34.582  28.684  12.294  0.2114  0.1262  0.0702
 1062POSM   C3A12457  34.602  28.235  12.035 -0.0221 -0.0686 -0.0481
 1062POSM   C1B12458  34.174  29.029  12.815 -0.1758  0.3484  0.2252
 1062POSM   D2B12459  34.189  28.776  13.155  0.1754  0.3647  0.0678
 1062POSM   C3B12460  34.120  28.379  13.261  0.1268  0.0550 -0.0096
 1062POSM   C4B12461  33.987  28.127  13.668 -0.1104  0.2984  0.0002
 1063DOPE   NH312462   5.833  26.676  12.674 -0.1174 -0.2328  0.4319
 1063DOPE   PO412463   5.656  26.632  12.926 -0.0616 -0.0798 -0.1996
 1063DOPE   GL112464   5.450  26.413  13.248  0.1375  0.4299  0.1090
 1063DOPE   GL212465   5.269  26.287  13.196  0.0582  0.1619  0.4256
 1063DOPE   C1A12466   5.373  26.727  13.592 -0.2114  0.2461  0.2168
 1063DOPE   D2A12467   5.431  26.869  13.980 -0.0216  0.0304  0.2621
 1063DOPE   C3A12468   5.780  26.917  14.255  0.3052  0.0675  0.0857
 1063DOPE   C4A12469   6.057  27.319  14.328  0.1364 -0.0887 -0.0248
 1063DOPE   C1B12470   5.121  26.317  13.648  0.2933  0.0695  0.1770
 1063DOPE   D2B12471   5.119  26.400  14.110 -0.0685 -0.0514 -0.1095
 1063DOPE   C3B12472   5.431  26.561  14.338 -0.0074  0.0352 -0.1386
 1063DOPE   C4B12473   5.695  26.623  14.700 -0.0683 -0.1286  0.0211
 1064POSM   NC312474   0.430  30.537  13.079  0.3142 -0.0186  0.4271
 1064POSM   PO412475   0.759  30.642  12.939  0.1344 -0.0673  0.3293
 1064POSM   AM112476   0.841  30.786  13.193 -0.0737 -0.1697 -0.1866
 1064POSM   AM212477   0.763  31.005  13.350  0.0888 -0.1411  0.0572
 1064POSM   T1A12478   0.997  30.756  13.669 -0.2124 -0.0296  0.0356
 1064POSM   C2A12479   0.853  30.779  14.085 -0.4218  0.2008 -0.0534
 1064POSM   C3A12480   0.577  30.900  14.420 -0.0427  0.1232 -0.1143
 1064POSM   C1B12481   0.718  31.130  13.598  0.2529  0.1848  0.0963
 1064POSM   D2B12482   0.601  31.258  14.054  0.1008  0.1615  0.2206
 1064POSM   C3B12483   0.284  31.628  14.074  0.2889  0.2335 -0.0391
 1064POSM   C4B12484   0.151  31.888  13.740 -0.3395  0.2201 -0.2489
 1065POSM   NC312485   3.076  30.123  13.118  0.0837 -0.0346  0.0725
 1065POSM   PO412486   3.107  30.430  12.830 -0.0632 -0.1991  0.0617
 1065POSM   AM112487   3.331  30.505  13.057 -0.0005  0.1233 -0.0551
 1065POSM   AM212488   3.441  30.712  13.209  0.0074 -0.2109 -0.0918
 1065POSM   T1A12489   3.376  30.286  13.499  0.1133 -0.0261  0.1118
 1065POSM   C2A12490   3.338  30.092  13.884 -0.1401 -0.1713  0.0487
 1065POSM   C3A12491   3.472  29.809  14.237  0.0779  0.3569 -0.0318
 1065POSM   C1B12492   3.453  30.816  13.520 -0.0612  0.0750  0.1207
 1065POSM   D2B12493   3.612  30.924  13.948  0.0550 -0.1431  0.1370
 1065POSM   C3B12494   3.343  31.006  14.327  0.0739  0.0655 -0.1179
 1065POSM   C4B12495   3.111  30.836  14.707 -0.1642 -0.1033  0.0266
 1066POSM   NC312496   2.309  29.018  12.495  0.0151  0.2697 -0.1116
 1066POSM   PO412497   2.207  29.203  12.851  0.0100  0.0497 -0.0184
 1066POSM   AM112498   2.029  29.435  13.035  0.2012 -0.0244  0.3159
 1066POSM   AM212499   2.119  29.665  13.140  0.0965 -0.2649 -0.3371
 1066POSM   T1A12500   1.723  29.572  13.375  0.1248  0.0345  0.1604
 1066POSM   C2A12501   1.791  29.791  13.735 -0.4615  0.2033 -0.2323
 1066POSM   C3A12502   2.059  29.885  14.152  0.1283 -0.1726  0.0414
 1066POSM   C1B12503   2.059  29.967  13.331 -0.0388  0.0177  0.1745
 1066POSM   D2B12504   2.068  30.349  13.528 -0.4711 -0.2193  0.1826
 1066POSM   C3B12505   2.276  30.274  13.948 -0.3277  0.1467  0.0638
 1066POSM   C4B12506   2.519  30.139  14.308 -0.0644  0.0889 -0.3708
 1067DOPS   CNO12507   8.861  28.235  12.166  0.1615 -0.1553 -0.2177
 1067DOPS   PO412508   9.129  28.172  12.431  0.1571  0.1609 -0.5296
 1067DOPS   GL112509   8.979  28.103  12.707  0.0772  0.3590 -0.2850
 1067DOPS   GL212510   8.974  28.190  12.927 -0.0792  0.0853 -0.1138
 1067DOPS   C1A12511   9.235  27.803  13.024  0.3195  0.0230  0.1240
 1067DOPS   D2A12512   9.510  27.378  13.031  0.2758  0.3555  0.1463
 1067DOPS   C3A12513   9.517  27.035  13.360 -0.0462  0.1929  0.2198
 1067DOPS   C4A12514   9.796  26.881  13.704 -0.0727 -0.0876  0.0948
 1067DOPS   C1B12515   8.862  28.092  13.358 -0.1225 -0.0667  0.0478
 1067DOPS   D2B12516   8.967  28.236  13.780  0.2810 -0.0569  0.2438
 1067DOPS   C3B12517   8.846  28.060  14.231  0.3422  0.0602 -0.1463
 1067DOPS   C4B12518   8.607  27.674  14.251 -0.0502 -0.2945 -0.0110
 1068POSM   NC312519   5.974  22.970  12.731  0.0525  0.1516 -0.1889
 1068POSM   PO412520   5.986  23.095  12.380  0.1899  0.0622 -0.0964
 1068POSM   AM112521   6.142  23.370  12.559  0.3839  0.0488 -0.0994
 1068POSM   AM212522   6.313  23.377  12.808 -0.0658 -0.1018  0.0246
 1068POSM   T1A12523   6.441  23.803  12.571  0.1480  0.2415  0.0076
 1068POSM   C2A12524   6.674  24.161  12.646 -0.2734 -0.2421 -0.1409
 1068POSM   C3A12525   6.601  24.551  12.870 -0.2164  0.0742 -0.1188
 1068POSM   C1B12526   6.374  23.617  13.053  0.0336 -0.2684  0.0406
 1068POSM   D2B12527   6.361  23.666  13.497 -0.1463 -0.0059 -0.2378
 1068POSM   C3B12528   6.155  23.955  13.810  0.3751  0.0770 -0.0395
 1068POSM   C4B12529   6.163  24.406  13.867  0.1789  0.0024  0.1295
 1069DOPE   NH312530   9.898  26.836  12.498 -0.1597  0.0656 -0.0448
 1069DOPE   PO412531  10.029  26.842  12.795  0.1379 -0.0713  0.1460
 1069DOPE   GL112532  10.022  26.762  13.104 -0.0384 -0.0831  0.0406
 1069DOPE   GL212533  10.005  26.932  13.279  0.2250  0.3776  0.0534
 1069DOPE   C1A12534  10.405  26.698  13.434 -0.2506  0.2768  0.1986
 1069DOPE   D2A12535  10.581  26.769  13.903 -0.0814 -0.1545 -0.0358
 1069DOPE   C3A12536  10.554  26.317  13.990  0.1195  0.1381  0.0609
 1069DOPE   C4A12537  10.350  25.888  13.936 -0.1794 -0.1782 -0.2298
 1069DOPE   C1B12538   9.906  27.355  13.304  0.1865  0.1193  0.1627
 1069DOPE   D2B12539   9.739  27.799  13.217 -0.0014 -0.1230 -0.1213
 1069DOPE   C3B12540   9.467  27.948  13.556 -0.2244  0.1920  0.2745
 1069DOPE   C4B12541   9.522  28.200  13.932  0.0245 -0.1640  0.1604
 1070DOPE   NH312542  11.000  33.852  12.088  0.0375  0.1310 -0.0821
 1070DOPE   PO412543  11.032  33.515  12.017  0.0190 -0.1183 -0.0873
 1070DOPE   GL112544  11.063  33.193  12.423 -0.2552 -0.3558  0.0461
 1070DOPE   GL212545  10.802  33.382  12.448 -0.0470  0.1058  0.0354
 1070DOPE   C1A12546  10.834  32.945  12.765 -0.3423 -0.2202 -0.2936
 1070DOPE   D2A12547  10.748  32.966  13.238  0.1257 -0.0621  0.2051
 1070DOPE   C3A12548  10.724  33.410  13.306  0.0553 -0.0149 -0.1284
 1070DOPE   C4A12549  10.649  33.668  13.671  0.2557  0.3226  0.2417
 1070DOPE   C1B12550  10.379  33.166  12.477  0.0178  0.0421  0.0774
 1070DOPE   D2B12551  10.267  32.961  12.828 -0.1678  0.3000  0.0631
 1070DOPE   C3B12552  10.252  32.785  13.261 -0.0460  0.2003 -0.1265
 1070DOPE   C4B12553  10.387  32.359  13.507 -0.2465  0.2265  0.0628
 1071DOPE   NH312554   3.480  30.795  12.714  0.1424 -0.2773 -0.0161
 1071DOPE   PO412555   3.755  30.766  12.547 -0.2365 -0.5284 -0.0074
 1071DOPE   GL112556   4.146  30.793  12.754  0.1482  0.2911  0.0272
 1071DOPE   GL212557   4.402  30.723  12.560 -0.0773  0.0566  0.0766
 1071DOPE   C1A12558   4.448  30.612  13.086 -0.0397 -0.3544 -0.1482
 1071DOPE   D2A12559   4.469  30.263  13.392 -0.4435 -0.3902  0.1426
 1071DOPE   C3A12560   4.663  30.314  13.757  0.2186 -0.1753  0.1504
 1071DOPE   C4A12561   4.724  30.643  14.004  0.0024  0.2432  0.0214
 1071DOPE   C1B12562   4.880  30.626  12.687 -0.3772 -0.1638  0.1646
 1071DOPE   D2B12563   5.248  30.378  12.733  0.0408 -0.1189  0.1081
 1071DOPE   C3B12564   5.445  30.430  13.180 -0.0721  0.0220 -0.1059
 1071DOPE   C4B12565   5.567  30.333  13.634 -0.0914  0.2323 -0.2403
 1072DOPE   NH312566   0.117  26.282  12.353 -0.0846  0.3600 -0.0840
 1072DOPE   PO412567   0.077  26.039  12.182 -0.0618  0.4046 -0.3480
 1072DOPE   GL112568   0.436  25.803  12.314 -0.4210 -0.2339 -0.0111
 1072DOPE   GL212569   0.431  25.934  12.540 -0.2171 -0.0253 -0.0884
 1072DOPE   C1A12570   0.773  25.451  12.344  0.0565  0.1119  0.0529
 1072DOPE   D2A12571   0.958  25.129  12.637  0.4205 -0.1112  0.2486
 1072DOPE   C3A12572   1.343  25.070  12.872  0.2053  0.0709  0.0351
 1072DOPE   C4A12573   1.653  25.353  13.086 -0.1363  0.0147 -0.2362
 1072DOPE   C1B12574   0.824  25.772  12.785 -0.3015  0.0772  0.2812
 1072DOPE   D2B12575   1.046  25.499  13.056  0.3172  0.3194 -0.1097
 1072DOPE   C3B12576   0.977  25.088  13.260 -0.2834 -0.0508  0.2489
 1072DOPE   C4B12577   0.872  24.767  13.623  0.1574  0.4101 -0.0502
 1073POSM   NC312578   0.916  26.976  11.999 -0.2421 -0.2279  0.1526
 1073POSM   PO412579   1.033  27.136  12.372  0.2662 -0.1398 -0.0922
 1073POSM   AM112580   1.017  26.830  12.521  0.4138 -0.0192 -0.2140
 1073POSM   AM212581   0.931  26.757  12.772 -0.0520  0.0491 -0.2322
 1073POSM   T1A12582   1.216  26.411  12.518 -0.2240  0.0106  0.0706
 1073POSM   C2A12583   1.461  26.037  12.468  0.0139  0.3770  0.0198
 1073POSM   C3A12584   1.413  25.784  12.881  0.0671  0.1289  0.1091
 1073POSM   C1B12585   1.181  26.603  12.985  0.0209 -0.0107 -0.1830
 1073POSM   D2B12586   1.463  26.525  13.300  0.1250  0.2792  0.1839
 1073POSM   C3B12587   1.719  26.144  13.507 -0.3462  0.1251  0.0008
 1073POSM   C4B12588   1.981  26.095  13.790  0.0729 -0.0203 -0.3098
 1074DOPC   NC312589  10.005  31.143  11.737 -0.2163 -0.1538  0.0390
 1074DOPC   PO412590  10.375  31.271  11.809 -0.0127 -0.0058  0.0535
 1074DOPC   GL112591  10.257  31.341  12.195  0.3231 -0.0484  0.1941
 1074DOPC   GL212592  10.048  31.446  12.383 -0.0739 -0.1954 -0.0978
 1074DOPC   C1A12593  10.526  31.330  12.572 -0.1561 -0.1112  0.0569
 1074DOPC   D2A12594  10.644  31.558  12.980 -0.0771 -0.1313 -0.1277
 1074DOPC   C3A12595  10.785  31.965  12.974 -0.1793 -0.0254 -0.0450
 1074DOPC   C4A12596  11.145  32.313  12.981  0.4382 -0.2136  0.0434
 1074DOPC   C1B12597   9.898  31.807  12.601  0.2104  0.1245 -0.1104
 1074DOPC   D2B12598   9.729  32.206  12.795  0.1646  0.1025 -0.1247
 1074DOPC   C3B12599   9.719  32.640  13.010 -0.1618 -0.1904 -0.3684
 1074DOPC   C4B12600   9.376  32.829  13.221  0.0985 -0.3440  0.1692
 1075DOPC   NC312601   5.511  32.079  12.548  0.1098  0.0773 -0.2233
 1075DOPC   PO412602   5.902  32.054  12.385  0.2137 -0.0114 -0.1555
 1075DOPC   GL112603   5.855  32.419  12.558  0.2284  0.3794  0.0077
 1075DOPC   GL212604   5.918  32.326  12.861  0.0697 -0.0220 -0.1959
 1075DOPC   C1A12605   5.910  32.947  12.492  0.2994 -0.0027 -0.2520
 1075DOPC   D2A12606   5.847  33.403  12.643 -0.2705 -0.2545 -0.1514
 1075DOPC   C3A12607   6.106  33.786  12.473 -0.2475 -0.3300  0.0524
 1075DOPC   C4A12608   6.324  34.179  12.326 -0.1048  0.2701 -0.1879
 1075DOPC   C1B12609   5.820  32.748  13.008  0.0255  0.1066 -0.1804
 1075DOPC   D2B12610   5.567  32.866  13.355  0.1913  0.1768  0.1053
 1075DOPC   C3B12611   5.764  32.986  13.768 -0.1758  0.1473  0.1910
 1075DOPC   C4B12612   5.598  33.114  14.176  0.2288 -0.2735  0.0537
 1076POSM   NC312613   1.681  28.319  12.350  0.0569 -0.1015  0.2795
 1076POSM   PO412614   1.922  28.064  12.502  0.0835 -0.1507 -0.0464
 1076POSM   AM112615   1.696  28.090  12.753 -0.0332 -0.0243  0.1435
 1076POSM   AM212616   1.595  28.289  12.970 -0.2238 -0.1096 -0.0671
 1076POSM   T1A12617   1.226  28.031  12.950 -0.2237 -0.0118  0.0637
 1076POSM   C2A12618   0.897  27.960  13.288 -0.1407  0.1052 -0.0770
 1076POSM   C3A12619   1.099  27.878  13.714  0.3377  0.1015 -0.0341
 1076POSM   C1B12620   1.494  28.534  13.168 -0.3499 -0.0952 -0.0816
 1076POSM   D2B12621   1.335  28.806  13.493 -0.0297  0.1070 -0.0843
 1076POSM   C3B12622   0.896  28.785  13.623  0.1884  0.0865  0.0457
 1076POSM   C4B12623   0.505  28.643  13.359  0.2360 -0.2200  0.0740
 1077POSM   NC312624   8.370  29.472  12.484 -0.2848 -0.2191 -0.2372
 1077POSM   PO412625   8.789  29.401  12.391  0.1159  0.0287 -0.2118
 1077POSM   AM112626   8.746  29.355  12.733  0.1022  0.4329 -0.1563
 1077POSM   AM212627   8.626  29.543  12.916  0.0962 -0.0900  0.0405
 1077POSM   T1A12628   8.894  29.020  13.092  0.0823 -0.0324  0.2798
 1077POSM   C2A12629   9.053  28.662  13.384 -0.1153 -0.2783  0.0351
 1077POSM   C3A12630   9.293  28.761  13.788  0.2691  0.1096  0.1484
 1077POSM   C1B12631   8.477  29.499  13.231 -0.3536 -0.2264 -0.1283
 1077POSM   D2B12632   8.349  29.375  13.666 -0.2352 -0.1232  0.1182
 1077POSM   C3B12633   7.908  29.470  13.777  0.0708 -0.4428 -0.1350
 1077POSM   C4B12634   7.677  29.763  14.047  0.0796  0.1763  0.0709
 1078DOPS   CNO12635   8.708  24.606  11.853 -0.1220 -0.3288  0.0451
 1078DOPS   PO412636   8.757  24.992  11.877 -0.0368  0.0145  0.1314
 1078DOPS   GL112637   8.458  24.991  12.059  0.2403 -0.1236 -0.1738
 1078DOPS   GL212638   8.302  25.348  12.115  0.0051  0.3432 -0.0564
 1078DOPS   C1A12639   8.292  25.068  12.525 -0.1260 -0.1275  0.1285
 1078DOPS   D2A12640   8.444  24.991  12.946  0.0797 -0.0525 -0.0838
 1078DOPS   C3A12641   8.086  25.155  13.282  0.1716  0.1108 -0.0319
 1078DOPS   C4A12642   7.743  25.354  13.626 -0.2927 -0.1821 -0.0348
 1078DOPS   C1B12643   8.632  25.704  12.056  0.1581  0.0947 -0.0331
 1078DOPS   D2B12644   8.996  25.958  12.001 -0.0935 -0.1324  0.1167
 1078DOPS   C3B12645   9.298  26.207  12.257  0.0450  0.1257  0.0989
 1078DOPS   C4B12646   9.392  26.483  12.613  0.1234 -0.1799  0.0373
 1079DOPE   NH312647   6.900  31.012  12.900 -0.0132 -0.1402 -0.1855
 1079DOPE   PO412648   6.937  30.946  12.566  0.1333 -0.0257 -0.1762
 1079DOPE   GL112649   7.264  31.011  12.663 -0.3273 -0.1582  0.0724
 1079DOPE   GL212650   7.461  31.156  12.448 -0.1751 -0.2897  0.1041
 1079DOPE   C1A12651   7.515  31.281  12.947 -0.3291  0.1293 -0.0451
 1079DOPE   D2A12652   7.629  31.417  13.408 -0.1639  0.0508 -0.1534
 1079DOPE   C3A12653   7.946  31.637  13.642 -0.3421 -0.1422  0.0224
 1079DOPE   C4A12654   8.336  31.646  13.895  0.2289  0.0105  0.2931
 1079DOPE   C1B12655   7.832  31.328  12.177 -0.1526 -0.1115 -0.0548
 1079DOPE   D2B12656   8.099  31.205  11.821 -0.0492  0.2327  0.0200
 1079DOPE   C3B12657   8.029  30.794  11.671 -0.0577  0.0248 -0.1079
 1079DOPE   C4B12658   8.147  30.303  11.579 -0.1888  0.0459  0.1196
 1080DOPC   NC312659   7.223  27.802  12.328  0.1469  0.2959  0.0206
 1080DOPC   PO412660   7.073  27.564  12.586  0.0508  0.0726  0.1723
 1080DOPC   GL112661   7.029  27.749  12.879  0.0871 -0.0788  0.0115
 1080DOPC   GL212662   6.765  27.623  12.987  0.1078  0.2362  0.4633
 1080DOPC   C1A12663   7.076  27.676  13.351 -0.0716 -0.0122  0.1066
 1080DOPC   D2A12664   7.172  27.330  13.635  0.0616 -0.2109  0.0490
 1080DOPC   C3A12665   6.957  26.911  13.785 -0.0422 -0.2716  0.0384
 1080DOPC   C4A12666   6.773  26.870  14.161 -0.5148  0.0691 -0.0311
 1080DOPC   C1B12667   6.510  27.770  13.309  0.0322  0.2927  0.1182
 1080DOPC   D2B12668   6.328  28.107  13.553 -0.0817  0.0464 -0.0532
 1080DOPC   C3B12669   5.996  28.423  13.467 -0.0915  0.2418  0.1967
 1080DOPC   C4B12670   5.788  28.830  13.494  0.1336 -0.0077 -0.1055
 1081DOPC   NC312671   4.770  31.223  12.843  0.3432 -0.1332  0.0517
 1081DOPC   PO412672   4.385  31.223  12.773 -0.1186  0.1343 -0.3933
 1081DOPC   GL112673   4.307  31.372  13.157 -0.0708 -0.3979  0.0557
 1081DOPC   GL212674   4.338  31.065  13.286  0.2720  0.0782 -0.2825
 1081DOPC   C1A12675   4.334  31.471  13.628 -0.2447  0.0123  0.0463
 1081DOPC   D2A12676   4.317  31.694  14.064 -0.2144  0.1673  0.1471
 1081DOPC   C3A12677   4.259  31.452  14.405  0.3808  0.0102 -0.0588
 1081DOPC   C4A12678   4.571  31.234  14.703  0.2504 -0.1073  0.0787
 1081DOPC   C1B12679   4.741  30.818  13.444 -0.0244  0.0932  0.2144
 1081DOPC   D2B12680   4.944  30.447  13.267 -0.1702 -0.2035 -0.3362
 1081DOPC   C3B12681   5.118  30.068  13.561 -0.1298  0.2367  0.0377
 1081DOPC   C4B12682   4.991  29.745  13.876 -0.0209  0.1722 -0.2534
 1082DOPC   NC312683   3.524  32.671  13.008 -0.0486 -0.0410  0.1839
 1082DOPC   PO412684   3.733  32.448  12.843  0.0192  0.0469  0.1191
 1082DOPC   GL112685   4.033  32.553  12.877  0.3103 -0.2507 -0.0401
 1082DOPC   GL212686   4.035  32.572  13.196  0.2066 -0.0864 -0.0785
 1082DOPC   C1A12687   4.451  32.730  12.817 -0.0753 -0.0478  0.1396
 1082DOPC   D2A12688   4.652  33.141  12.765 -0.0194  0.2595 -0.1364
 1082DOPC   C3A12689   5.110  33.044  12.876  0.1308  0.1324  0.1694
 1082DOPC   C4A12690   5.496  33.216  13.058 -0.0744  0.0770  0.0801
 1082DOPC   C1B12691   4.144  32.974  13.169 -0.0031  0.0063  0.0643
 1082DOPC   D2B12692   4.184  33.448  13.208 -0.0789  0.2669  0.1899
 1082DOPC   C3B12693   4.597  33.543  13.406 -0.1888 -0.2732 -0.1281
 1082DOPC   C4B12694   4.849  33.906  13.528 -0.2806  0.2997 -0.2827
 1083DOPE   NH312695   6.958  23.833  12.437 -0.5423 -0.0612 -0.1079
 1083DOPE   PO412696   7.215  23.700  12.533  0.0105  0.0400 -0.0293
 1083DOPE   GL112697   7.386  24.034  12.684  0.0422  0.1159 -0.1311
 1083DOPE   GL212698   7.101  24.146  12.877 -0.1622 -0.3249 -0.0560
 1083DOPE   C1A12699   7.590  24.155  13.088 -0.0228 -0.1495  0.0180
 1083DOPE   D2A12700   7.483  24.344  13.538 -0.0085 -0.0170 -0.1717
 1083DOPE   C3A12701   7.085  24.189  13.638  0.2459  0.1354 -0.0148
 1083DOPE   C4A12702   6.711  24.021  13.817  0.3478 -0.1438 -0.0520
 1083DOPE   C1B12703   7.046  24.508  13.154 -0.1946 -0.0839  0.3060
 1083DOPE   D2B12704   7.089  24.777  13.494  0.2329 -0.2716  0.1262
 1083DOPE   C3B12705   7.492  24.835  13.646 -0.1571 -0.2047 -0.2267
 1083DOPE   C4B12706   7.854  24.770  13.878 -0.3535  0.0150  0.0123
 1084DOPC   NC312707   9.762  30.086  12.691  0.0497 -0.1713 -0.2421
 1084DOPC   PO412708  10.097  29.960  12.514 -0.1911  0.2680  0.0733
 1084DOPC   GL112709  10.264  30.319  12.548  0.0195 -0.1849  0.0411
 1084DOPC   GL212710  10.026  30.504  12.550 -0.1281  0.1200 -0.0778
 1084DOPC   C1A12711  10.459  30.615  12.871 -0.3431  0.1081  0.0835
 1084DOPC   D2A12712  10.412  30.978  13.129  0.1335  0.1960 -0.2115
 1084DOPC   C3A12713  10.091  30.825  13.462 -0.1478 -0.1645  0.2861
 1084DOPC   C4A12714   9.820  31.056  13.728 -0.0473 -0.0818 -0.3582
 1084DOPC   C1B12715   9.957  30.566  13.005  0.0583 -0.0595  0.2225
 1084DOPC   D2B12716   9.649  30.777  13.230  0.1431 -0.1187  0.1276
 1084DOPC   C3B12717   9.785  31.211  13.261 -0.1572  0.0510 -0.3201
 1084DOPC   C4B12718   9.729  31.745  13.362  0.1805 -0.0814 -0.1072
 1085POSM   NC312719   2.457  27.409  12.240 -0.0005 -0.0292 -0.0535
 1085POSM   PO412720   2.358  27.286  12.566 -0.5017 -0.3281  0.1736
 1085POSM   AM112721   2.463  27.232  12.911  0.2422  0.0636  0.1619
 1085POSM   AM212722   2.428  27.453  13.119 -0.3645 -0.0482  0.0849
 1085POSM   T1A12723   2.857  27.216  13.223  0.2588 -0.1749  0.3483
 1085POSM   C2A12724   3.200  26.916  13.393  0.1793  0.1568 -0.3454
 1085POSM   C3A12725   3.389  26.546  13.218 -0.0213 -0.0380 -0.1495
 1085POSM   C1B12726   2.579  27.599  13.392 -0.1668 -0.2815  0.0860
 1085POSM   D2B12727   2.952  27.707  13.533  0.1637  0.1729 -0.2900
 1085POSM   C3B12728   3.145  27.362  13.685 -0.2372  0.3995 -0.0942
 1085POSM   C4B12729   3.478  27.107  13.899  0.2072 -0.1360 -0.4666
 1086DOPS   CNO12730   2.716  23.722  12.208 -0.2867 -0.0705 -0.0459
 1086DOPS   PO412731   2.804  23.516  12.530 -0.0365 -0.1645 -0.4636
 1086DOPS   GL112732   2.702  23.184  12.782  0.1632 -0.0411  0.0663
 1086DOPS   GL212733   2.556  23.288  12.968 -0.2481 -0.1246 -0.0694
 1086DOPS   C1A12734   2.862  22.784  12.887  0.0283  0.0273  0.1905
 1086DOPS   D2A12735   2.982  22.351  12.953 -0.0008 -0.0071 -0.1821
 1086DOPS   C3A12736   2.814  22.085  13.370  0.0048  0.0768 -0.2978
 1086DOPS   C4A12737   2.608  22.025  13.793  0.1567 -0.0919 -0.0238
 1086DOPS   C1B12738   2.584  22.890  13.291  0.2557 -0.0294  0.1726
 1086DOPS   D2B12739   2.456  22.541  13.485  0.1742 -0.4777  0.0347
 1086DOPS   C3B12740   2.347  22.458  13.958 -0.1674  0.1409 -0.0152
 1086DOPS   C4B12741   2.314  22.571  14.451 -0.0067 -0.0718 -0.0971
 1087DOPE   NH312742   2.537  28.411  12.466 -0.3713 -0.0394 -0.2002
 1087DOPE   PO412743   2.221  28.458  12.447 -0.0365  0.2690 -0.3435
 1087DOPE   GL112744   1.993  28.698  12.665  0.0880 -0.2189  0.0154
 1087DOPE   GL212745   1.892  28.790  12.989 -0.2422  0.3922 -0.2101
 1087DOPE   C1A12746   1.585  28.884  12.623 -0.1526 -0.0177  0.1104
 1087DOPE   D2A12747   1.372  28.996  12.988  0.5566  0.0729  0.0097
 1087DOPE   C3A12748   0.955  28.858  13.046 -0.3916 -0.2115 -0.0341
 1087DOPE   C4A12749   0.839  28.416  13.016 -0.0578  0.2837  0.1221
 1087DOPE   C1B12750   1.693  29.051  13.340  0.0192 -0.2636  0.0368
 1087DOPE   D2B12751   1.603  29.267  13.767 -0.2489  0.1382  0.0722
 1087DOPE   C3B12752   1.335  29.646  13.692  0.0625  0.0837 -0.1558
 1087DOPE   C4B12753   1.217  30.094  13.710  0.0174  0.1684  0.1369
 1088POSM   NC312754   0.052  25.239  12.265  0.2861 -0.1378  0.0109
 1088POSM   PO412755  -0.032  25.590  12.432 -0.2006 -0.2941 -0.0831
 1088POSM   AM112756   0.179  25.565  12.681  0.3081  0.1125 -0.1222
 1088POSM   AM212757   0.384  25.410  12.749  0.0568  0.0391  0.1031
 1088POSM   T1A12758   0.366  25.690  13.146 -0.2328  0.1226  0.0793
 1088POSM   C2A12759   0.739  25.863  13.282 -0.3585  0.1663 -0.1260
 1088POSM   C3A12760   1.096  26.141  13.211  0.2365 -0.1567  0.0696
 1088POSM   C1B12761   0.548  25.251  13.030 -0.1605  0.0374 -0.1065
 1088POSM   D2B12762   0.495  25.150  13.462 -0.0967  0.0115 -0.2432
 1088POSM   C3B12763   0.075  25.362  13.514  0.3111 -0.1542  0.3803
 1088POSM   C4B12764  -0.340  25.293  13.507 -0.1140  0.0348  0.0988
 1089DOPC   NC312765   5.967  27.930  12.531  0.0256  0.3599  0.3110
 1089DOPC   PO412766   5.730  27.589  12.568  0.2000  0.1327 -0.3034
 1089DOPC   GL112767   5.540  27.760  12.819 -0.0464 -0.3299 -0.0031
 1089DOPC   GL212768   5.465  27.975  12.713 -0.1533  0.2180  0.1804
 1089DOPC   C1A12769   5.502  27.896  13.261 -0.2667  0.0131  0.1508
 1089DOPC   D2A12770   5.371  27.815  13.693 -0.0875  0.0656  0.0900
 1089DOPC   C3A12771   5.518  28.187  13.996 -0.0132 -0.0453  0.1162
 1089DOPC   C4A12772   5.596  28.334  14.403  0.1510 -0.1989  0.0898
 1089DOPC   C1B12773   5.267  28.361  12.908  0.0751  0.0262 -0.0724
 1089DOPC   D2B12774   5.409  28.771  13.081  0.1720  0.0810  0.4318
 1089DOPC   C3B12775   5.277  28.882  13.491 -0.0105 -0.1988 -0.3704
 1089DOPC   C4B12776   5.056  29.257  13.735 -0.0548 -0.2700  0.2224
 1090DOPS   CNO12777   3.446  24.510  12.309  0.1923  0.0684 -0.0620
 1090DOPS   PO412778   3.443  24.327  12.639 -0.1315  0.1794 -0.0851
 1090DOPS   GL112779   3.304  24.438  13.042  0.0171 -0.1136  0.2939
 1090DOPS   GL212780   3.307  24.158  13.062  0.4072 -0.0513  0.0830
 1090DOPS   C1A12781   3.405  24.712  13.407  0.1705  0.0960 -0.0664
 1090DOPS   D2A12782   3.395  24.647  13.855  0.3814  0.1586  0.2818
 1090DOPS   C3A12783   3.592  24.406  14.108 -0.2201  0.0519  0.1971
 1090DOPS   C4A12784   3.718  24.127  14.445 -0.0078 -0.1015  0.0031
 1090DOPS   C1B12785   3.483  23.961  13.435 -0.1820  0.1363  0.0870
 1090DOPS   D2B12786   3.489  23.936  13.955  0.1655  0.0341 -0.1479
 1090DOPS   C3B12787   3.432  23.628  14.303  0.2772 -0.0682 -0.1065
 1090DOPS   C4B12788   3.609  23.370  14.663  0.1613 -0.0008  0.3117
 1091DOPC   NC312789   2.083  27.661  12.671  0.2134 -0.0417 -0.2978
 1091DOPC   PO412790   2.008  27.776  13.055  0.0187 -0.0113 -0.3265
 1091DOPC   GL112791   2.149  27.850  13.373  0.0168 -0.1104 -0.0838
 1091DOPC   GL212792   2.088  27.555  13.510  0.1562 -0.0060  0.0742
 1091DOPC   C1A12793   1.994  28.016  13.808 -0.1033  0.1222 -0.2392
 1091DOPC   D2A12794   1.568  27.921  13.879 -0.1780 -0.1349 -0.1395
 1091DOPC   C3A12795   1.264  27.814  14.212  0.1111  0.0992  0.0510
 1091DOPC   C4A12796   1.138  28.044  14.634  0.2706 -0.2197  0.1297
 1091DOPC   C1B12797   2.160  27.116  13.753 -0.0886 -0.1935 -0.0283
 1091DOPC   D2B12798   2.061  26.661  13.946  0.1185  0.0407 -0.2295
 1091DOPC   C3B12799   2.502  26.778  14.070  0.1241  0.2447 -0.0240
 1091DOPC   C4B12800   2.965  26.787  14.028  0.0314 -0.4443  0.0292
 1092DOPC   NC312801   5.067  26.151  12.772  0.3113  0.0074  0.1037
 1092DOPC   PO412802   4.820  26.018  12.439 -0.0009 -0.1227 -0.0100
 1092DOPC   GL112803   4.593  26.179  12.658 -0.0468  0.2700  0.0174
 1092DOPC   GL212804   4.503  26.424  12.561  0.0842 -0.1416 -0.0536
 1092DOPC   C1A12805   4.699  26.294  13.073  0.0950 -0.0383 -0.1678
 1092DOPC   D2A12806   4.759  26.586  13.435  0.0654 -0.0672 -0.0707
 1092DOPC   C3A12807   4.949  26.763  13.865 -0.1457  0.2824  0.3296
 1092DOPC   C4A12808   4.761  27.117  14.118  0.1278  0.0013 -0.0493
 1092DOPC   C1B12809   4.104  26.646  12.535 -0.1376  0.1919  0.1151
 1092DOPC   D2B12810   3.679  26.482  12.456 -0.0336  0.0502  0.1360
 1092DOPC   C3B12811   3.450  26.229  12.808  0.3876 -0.1584  0.0609
 1092DOPC   C4B12812   3.075  26.099  13.108 -0.1433  0.0205  0.3319
 1093DOPE   NH312813   6.712  26.684  12.532 -0.0555 -0.1880 -0.0482
 1093DOPE   PO412814   6.397  26.806  12.514 -0.0610 -0.1876  0.2089
 1093DOPE   GL112815   6.210  26.427  12.751 -0.2433 -0.3926  0.2520
 1093DOPE   GL212816   6.359  26.285  12.556  0.1130 -0.3656 -0.2840
 1093DOPE   C1A12817   6.251  25.996  12.920  0.0891 -0.2189  0.2123
 1093DOPE   D2A12818   6.293  25.698  13.282  0.2938 -0.2731 -0.1731
 1093DOPE   C3A12819   6.324  25.746  13.740 -0.2165 -0.2569  0.2577
 1093DOPE   C4A12820   6.520  26.057  14.010  0.1122 -0.1753  0.3661
 1093DOPE   C1B12821   6.672  25.952  12.571 -0.2883 -0.1012  0.1425
 1093DOPE   D2B12822   6.878  25.549  12.701  0.1436 -0.0865 -0.0812
 1093DOPE   C3B12823   6.625  25.307  13.023 -0.0924  0.1295 -0.2259
 1093DOPE   C4B12824   6.279  25.169  13.346  0.1914 -0.1526  0.2537
 1094DOPC   NC312825   2.237  26.821  12.556  0.5867 -0.0778 -0.3392
 1094DOPC   PO412826   1.888  26.702  12.498  0.0487 -0.3838  0.1974
 1094DOPC   GL112827   1.806  26.543  12.825  0.0113  0.1919  0.0732
 1094DOPC   GL212828   1.865  26.767  13.055  0.2165  0.0887  0.1891
 1094DOPC   C1A12829   1.831  26.131  12.975  0.1761  0.0824  0.2375
 1094DOPC   D2A12830   1.919  25.709  12.821 -0.0838  0.1450  0.1955
 1094DOPC   C3A12831   2.267  25.569  13.040 -0.0204 -0.1175 -0.3305
 1094DOPC   C4A12832   2.288  25.200  13.326  0.0707 -0.1369 -0.2355
 1094DOPC   C1B12833   1.897  26.575  13.474  0.0363 -0.4289 -0.0519
 1094DOPC   D2B12834   1.582  26.504  13.829 -0.1907 -0.0694  0.0878
 1094DOPC   C3B12835   1.231  26.180  13.731 -0.3133  0.1129  0.0273
 1094DOPC   C4B12836   0.978  25.765  13.744 -0.2195  0.0522  0.3060
 1095DOPC   NC312837   7.178  34.187  12.526 -0.0118 -0.0747  0.1096
 1095DOPC   PO412838   7.343  34.472  12.740  0.0084  0.1408 -0.0818
 1095DOPC   GL112839   7.652  34.576  13.114 -0.0518  0.0186  0.1627
 1095DOPC   GL212840   7.842  34.335  13.105 -0.1553 -0.1051 -0.2383
 1095DOPC   C1A12841   7.611  34.596  13.591 -0.0924 -0.1854 -0.1937
 1095DOPC   D2A12842   7.513  34.305  13.961  0.0792  0.0471 -0.2953
 1095DOPC   C3A12843   7.416  33.847  13.964 -0.2436  0.1005  0.0931
 1095DOPC   C4A12844   7.315  33.462  13.712 -0.1793  0.1648 -0.1401
 1095DOPC   C1B12845   8.305  34.488  13.280 -0.2809  0.2627 -0.2656
 1095DOPC   D2B12846   8.711  34.419  13.522  0.1581  0.1653  0.2472
 1095DOPC   C3B12847   8.585  33.981  13.473  0.0775 -0.0585 -0.3029
 1095DOPC   C4B12848   8.665  33.517  13.437  0.1097  0.1173  0.1885
 1096POSM   NC312849   5.050  34.677  12.282 -0.3130 -0.1413 -0.2472
 1096POSM   PO412850   5.453  34.638  12.265 -0.0957  0.1660  0.1273
 1096POSM   AM112851   5.451  34.420  12.529  0.1854 -0.2992 -0.0205
 1096POSM   AM212852   5.296  34.448  12.794  0.0123  0.0637  0.2232
 1096POSM   T1A12853   5.412  34.004  12.763 -0.2564  0.1901  0.0281
 1096POSM   C2A12854   5.227  33.629  13.048  0.3189 -0.0863  0.0533
 1096POSM   C3A12855   4.989  33.305  13.293 -0.2031 -0.3893  0.2303
 1096POSM   C1B12856   5.002  34.249  12.704 -0.0038 -0.1180 -0.0213
 1096POSM   D2B12857   4.623  33.987  12.769  0.0097 -0.1013  0.0685
 1096POSM   C3B12858   4.375  33.961  13.150 -0.1149 -0.4087  0.0017
 1096POSM   C4B12859   4.404  34.108  13.516  0.1683 -0.4611  0.2749
 1097DOPE   NH312860   5.348  26.796  12.483 -0.2369 -0.0094  0.2062
 1097DOPE   PO412861   5.536  27.014  12.375 -0.0487 -0.0207 -0.1417
 1097DOPE   GL112862   5.428  27.070  12.776  0.0957 -0.0218  0.1713
 1097DOPE   GL212863   5.665  27.140  12.824  0.0282 -0.0521 -0.4270
 1097DOPE   C1A12864   5.185  27.432  12.990 -0.2020  0.0349  0.2942
 1097DOPE   D2A12865   5.082  27.636  13.364 -0.0081  0.0356 -0.0241
 1097DOPE   C3A12866   4.637  27.715  13.358  0.3367  0.3137  0.2833
 1097DOPE   C4A12867   4.356  28.064  13.473  0.1801 -0.0470 -0.0849
 1097DOPE   C1B12868   5.541  27.247  13.246 -0.1157  0.0093  0.2423
 1097DOPE   D2B12869   5.725  27.278  13.665  0.3838  0.1023 -0.3384
 1097DOPE   C3B12870   5.674  27.430  14.062  0.0263  0.4095 -0.0464
 1097DOPE   C4B12871   5.524  27.413  14.538  0.1679 -0.1464  0.0778
 1098DOPS   CNO12872   4.873  26.755  12.166  0.2772 -0.0661 -0.2462
 1098DOPS   PO412873   4.998  26.471  12.384  0.0685  0.0495 -0.0467
 1098DOPS   GL112874   4.910  26.708  12.678 -0.0069  0.0438  0.0324
 1098DOPS   GL212875   5.128  26.704  12.947 -0.1187  0.1030  0.2717
 1098DOPS   C1A12876   4.586  26.812  13.003  0.0057  0.0079  0.0228
 1098DOPS   D2A12877   4.579  27.042  13.458  0.0799  0.0819 -0.1154
 1098DOPS   C3A12878   4.422  26.934  13.882 -0.1765  0.0972  0.1485
 1098DOPS   C4A12879   3.974  26.752  13.975  0.0070 -0.0067  0.0019
 1098DOPS   C1B12880   4.999  27.034  13.262 -0.0722 -0.3202  0.1492
 1098DOPS   D2B12881   5.128  27.236  13.691 -0.3132 -0.2234  0.3459
 1098DOPS   C3B12882   4.819  27.603  13.917  0.2860 -0.1049  0.0845
 1098DOPS   C4B12883   4.692  28.082  13.940  0.2702  0.1195  0.0456
 1099DOPC   NC312884   3.567  34.440  12.648  0.1739  0.2282  0.2410
 1099DOPC   PO412885   3.411  34.776  12.763 -0.1105  0.0399 -0.1089
 1099DOPC   GL112886   3.589  34.542  13.125 -0.1523 -0.0067  0.0639
 1099DOPC   GL212887   3.395  34.498  13.344 -0.0672  0.0936  0.0036
 1099DOPC   C1A12888   4.029  34.492  13.091  0.1350 -0.0977 -0.0295
 1099DOPC   D2A12889   4.431  34.692  13.248 -0.1018 -0.1173  0.3520
 1099DOPC   C3A12890   4.374  34.939  13.650  0.2121 -0.0915  0.3411
 1099DOPC   C4A12891   3.999  34.935  13.971  0.4126  0.0949 -0.2512
 1099DOPC   C1B12892   3.441  34.244  13.764 -0.1311 -0.2410  0.1449
 1099DOPC   D2B12893   3.194  34.273  14.165  0.1384 -0.1473 -0.2562
 1099DOPC   C3B12894   3.282  34.523  14.454 -0.0547  0.1080 -0.4152
 1099DOPC   C4B12895   3.570  34.881  14.527 -0.2554  0.0397  0.0014
 1100DOPE   NH312896   1.457  26.920  12.634  0.1171 -0.0040 -0.3660
 1100DOPE   PO412897   1.497  27.157  12.873  0.2596 -0.2121  0.3178
 1100DOPE   GL112898   1.142  27.163  12.895 -0.1555 -0.1059 -0.0381
 1100DOPE   GL212899   0.947  27.404  12.951 -0.0323  0.2351  0.3053
 1100DOPE   C1A12900   0.807  27.048  13.250  0.0988 -0.1086  0.2112
 1100DOPE   D2A12901   0.375  27.171  13.467  0.2511  0.1179 -0.2329
 1100DOPE   C3A12902   0.152  27.597  13.397  0.1734  0.0955  0.0219
 1100DOPE   C4A12903  -0.175  27.995  13.450  0.1826 -0.0427 -0.1450
 1100DOPE   C1B12904   0.637  27.542  13.247 -0.0787  0.1322  0.1053
 1100DOPE   D2B12905   0.657  27.638  13.682 -0.0236 -0.0779 -0.2958
 1100DOPE   C3B12906   0.570  27.357  14.002 -0.1677 -0.1798  0.2393
 1100DOPE   C4B12907   0.818  27.097  14.277  0.2582 -0.0395  0.4209
 1101DOPE   NH312908   5.749  27.811  12.135  0.1066  0.0790  0.0320
 1101DOPE   PO412909   5.718  28.159  12.140 -0.4067  0.1158 -0.1703
 1101DOPE   GL112910   5.573  28.311  12.382 -0.2058  0.1741  0.1186
 1101DOPE   GL212911   5.717  28.408  12.622 -0.2304  0.1536 -0.0690
 1101DOPE   C1A12912   5.339  28.642  12.395 -0.0531 -0.4121 -0.3435
 1101DOPE   D2A12913   5.065  29.030  12.545  0.2382  0.2240  0.1353
 1101DOPE   C3A12914   4.891  28.940  12.960 -0.3544  0.0692  0.0033
 1101DOPE   C4A12915   4.863  28.666  13.333 -0.1762  0.0682  0.2250
 1101DOPE   C1B12916   5.911  28.754  12.914  0.0893 -0.0258 -0.4420
 1101DOPE   D2B12917   5.899  29.188  13.044 -0.1539  0.2084 -0.1189
 1101DOPE   C3B12918   5.789  29.338  13.513 -0.1044  0.0865  0.0913
 1101DOPE   C4B12919   5.604  29.339  13.907  0.0984  0.0235  0.1901
 1102POSM   NC312920   8.784  29.925  12.177  0.1159  0.2406  0.1322
 1102POSM   PO412921   8.731  29.873  12.560  0.0211 -0.0426  0.1746
 1102POSM   AM112922   8.792  30.124  12.674 -0.0952  0.2489 -0.0089
 1102POSM   AM212923   8.910  30.367  12.550 -0.1981  0.1122 -0.0101
 1102POSM   T1A12924   8.931  30.425  13.048 -0.0455  0.2255  0.0442
 1102POSM   C2A12925   9.119  30.704  13.329 -0.2098  0.0171  0.2353
 1102POSM   C3A12926   9.365  30.930  13.725  0.0735  0.0570  0.3845
 1102POSM   C1B12927   8.715  30.647  12.622 -0.0453  0.1432  0.2178
 1102POSM   D2B12928   8.605  31.055  12.820  0.2085  0.1263 -0.0624
 1102POSM   C3B12929   8.820  31.075  13.237 -0.0008  0.0475  0.0861
 1102POSM   C4B12930   9.283  31.102  13.135 -0.1426 -0.0138 -0.2672
 1103POSM   NC312931   9.567  34.373  12.630  0.2713  0.0479 -0.0583
 1103POSM   PO412932   9.598  34.104  12.397  0.1826  0.4092 -0.1182
 1103POSM   AM112933   9.430  33.925  12.597 -0.2935 -0.3322 -0.0843
 1103POSM   AM212934   9.274  33.953  12.845 -0.2793  0.0709 -0.1509
 1103POSM   T1A12935   9.194  33.500  12.755  0.0559 -0.1164 -0.0458
 1103POSM   C2A12936   9.028  33.126  13.047 -0.0187 -0.1652 -0.2324
 1103POSM   C3A12937   8.885  32.746  13.230 -0.3731  0.1304 -0.2648
 1103POSM   C1B12938   9.564  33.904  13.039 -0.2089 -0.0017  0.3421
 1103POSM   D2B12939   9.985  33.740  13.274 -0.0136  0.2435 -0.2676
 1103POSM   C3B12940   9.922  33.887  13.646 -0.2783  0.1023 -0.2036
 1103POSM   C4B12941   9.525  34.021  13.889 -0.2011  0.0726 -0.0496
 1104DOPC   NC312942   0.355  27.583  12.389  0.1389 -0.0468  0.1924
 1104DOPC   PO412943   0.558  27.331  12.166 -0.1339 -0.2966 -0.0229
 1104DOPC   GL112944   0.769  27.503  12.487  0.1118 -0.1435 -0.3025
 1104DOPC   GL212945   0.844  27.741  12.299 -0.1829  0.1308 -0.0422
 1104DOPC   C1A12946   0.635  27.771  12.834 -0.0743 -0.0088 -0.3975
 1104DOPC   D2A12947   0.437  28.061  13.085 -0.0459 -0.0729 -0.2360
 1104DOPC   C3A12948   0.408  28.158  13.453  0.1861 -0.1858 -0.1663
 1104DOPC   C4A12949   0.321  27.943  13.890  0.3646 -0.1981 -0.1380
 1104DOPC   C1B12950   0.502  28.047  12.476  0.1766 -0.1762 -0.0058
 1104DOPC   D2B12951   0.230  28.350  12.642 -0.5069  0.1282  0.1045
 1104DOPC   C3B12952   0.044  28.397  13.050  0.1935 -0.5057 -0.2728
 1104DOPC   C4B12953  -0.060  28.569  13.487 -0.1053  0.2076  0.1553
 1105DOPC   NC312954   3.085  33.914  12.560  0.0704 -0.1318 -0.1525
 1105DOPC   PO412955   3.481  33.983  12.520 -0.0227 -0.1873  0.0562
 1105DOPC   GL112956   3.594  33.836  12.828 -0.4385 -0.0308 -0.1057
 1105DOPC   GL212957   3.577  33.520  12.697  0.1440  0.2406 -0.2537
 1105DOPC   C1A12958   3.891  33.902  13.143  0.1402 -0.1866 -0.0207
 1105DOPC   D2A12959   4.024  33.790  13.604 -0.2309 -0.0612  0.4106
 1105DOPC   C3A12960   3.887  33.987  13.978 -0.0720  0.0674  0.0142
 1105DOPC   C4A12961   3.798  34.200  14.337 -0.0148 -0.3085  0.5470
 1105DOPC   C1B12962   3.690  33.455  13.127 -0.0567  0.2129 -0.1992
 1105DOPC   D2B12963   3.837  33.281  13.553 -0.1160 -0.0999  0.1714
 1105DOPC   C3B12964   3.497  33.023  13.800  0.1217  0.0726  0.1122
 1105DOPC   C4B12965   3.618  32.835  14.192  0.0014  0.0978 -0.0907
 1106DOPC   NC312966   6.171  31.189  13.416 -0.1597  0.1042 -0.1236
 1106DOPC   PO412967   6.526  31.046  13.230 -0.1636  0.0237  0.1488
 1106DOPC   GL112968   6.641  30.740  13.252  0.1430 -0.1190  0.1097
 1106DOPC   GL212969   6.847  30.756  13.467  0.0237 -0.0382  0.1283
 1106DOPC   C1A12970   6.700  30.324  13.473 -0.4209 -0.0288  0.0799
 1106DOPC   D2A12971   6.747  29.945  13.640 -0.0922  0.0538  0.0371
 1106DOPC   C3A12972   7.178  29.984  13.903 -0.1807  0.4540 -0.0737
 1106DOPC   C4A12973   7.419  30.142  14.254  0.1816 -0.0476 -0.2815
 1106DOPC   C1B12974   6.818  30.561  13.913 -0.3528  0.0602  0.0239
 1106DOPC   D2B12975   7.029  30.409  14.311 -0.1041 -0.0882 -0.2519
 1106DOPC   C3B12976   7.066  30.863  14.443  0.1350  0.1192 -0.2521
 1106DOPC   C4B12977   6.907  31.360  14.416 -0.0923  0.0253  0.0289
 1107POSM   NC312978   2.907  27.207  12.663 -0.1286 -0.0656  0.0940
 1107POSM   PO412979   3.270  27.324  12.518 -0.1125  0.0249  0.3817
 1107POSM   AM112980   3.340  27.056  12.710  0.0177  0.2017  0.0527
 1107POSM   AM212981   3.225  26.900  12.893  0.0592 -0.0950 -0.1392
 1107POSM   T1A12982   3.671  26.710  12.878 -0.0545 -0.1193  0.1928
 1107POSM   C2A12983   4.089  26.803  13.012  0.0425 -0.0251 -0.0511
 1107POSM   C3A12984   4.290  26.582  13.342 -0.0663 -0.0390 -0.0694
 1107POSM   C1B12985   3.157  26.608  12.769  0.2744 -0.1551  0.1015
 1107POSM   D2B12986   3.141  26.304  12.451  0.0902 -0.2629 -0.0777
 1107POSM   C3B12987   3.010  25.886  12.604  0.1194  0.4800  0.1000
 1107POSM   C4B12988   2.843  25.549  12.842  0.0116 -0.0799 -0.0231
 1108DOPC   NC312989   1.018  33.051  12.877  0.4653  0.1507  0.3117
 1108DOPC   PO412990   1.127  32.873  12.553  0.1329 -0.2651 -0.0575
 1108DOPC   GL112991   1.268  32.621  12.873  0.0856 -0.1285 -0.0075
 1108DOPC   GL212992   1.581  32.789  12.895 -0.0802 -0.1241  0.0548
 1108DOPC   C1A12993   1.425  32.474  13.313  0.0612  0.1827 -0.0851
 1108DOPC   D2A12994   1.353  32.494  13.755 -0.0095  0.1799  0.2849
 1108DOPC   C3A12995   1.713  32.525  14.007  0.1561  0.0818  0.1182
 1108DOPC   C4A12996   2.046  32.333  14.163 -0.3929 -0.1353  0.2374
 1108DOPC   C1B12997   1.986  32.905  12.804  0.2696  0.3674 -0.0304
 1108DOPC   D2B12998   2.256  33.191  12.899 -0.1457 -0.1372  0.1526
 1108DOPC   C3B12999   2.089  33.520  13.181  0.0098  0.0297 -0.6208
 1108DOPC   C4B13000   2.016  33.839  13.522 -0.2085  0.1820 -0.4771
 1109POSM   NC313001   9.548  28.218  12.650  0.0379  0.2491 -0.2129
 1109POSM   PO413002   9.765  27.915  12.592  0.0655  0.1355  0.2326
 1109POSM   AM113003  10.046  27.808  12.678 -0.0116 -0.0794  0.0499
 1109POSM   AM213004  10.335  27.811  12.615 -0.1195  0.0899  0.0667
 1109POSM   T1A13005  10.261  27.707  13.112 -0.2593  0.3266 -0.0355
 1109POSM   C2A13006  10.425  27.751  13.555  0.1934  0.3174 -0.0916
 1109POSM   C3A13007  10.567  27.703  13.994 -0.0337 -0.1915 -0.3887
 1109POSM   C1B13008  10.629  27.833  12.776 -0.2011  0.0104  0.2619
 1109POSM   D2B13009  10.739  28.061  13.184 -0.1913 -0.0290 -0.0975
 1109POSM   C3B13010  10.492  28.256  13.515 -0.1482 -0.2068  0.1386
 1109POSM   C4B13011  10.372  28.620  13.717  0.2977  0.1180 -0.0683
 1110DOPS   CNO13012   9.397  25.476  11.975  0.3074  0.0814 -0.3355
 1110DOPS   PO413013   9.170  25.167  12.115 -0.3251 -0.0021 -0.3493
 1110DOPS   GL113014   9.013  25.259  12.427  0.0770 -0.2414  0.1228
 1110DOPS   GL213015   8.711  25.304  12.441 -0.3971 -0.2166  0.2714
 1110DOPS   C1A13016   9.107  25.149  12.886  0.2115  0.0137 -0.2488
 1110DOPS   D2A13017   9.177  24.917  13.322 -0.2222  0.0004 -0.2076
 1110DOPS   C3A13018   9.208  25.101  13.738  0.2028  0.1521 -0.0824
 1110DOPS   C4A13019   9.314  25.014  14.200  0.1913  0.1719  0.1134
 1110DOPS   C1B13020   8.763  25.453  12.847 -0.2146  0.0006 -0.0565
 1110DOPS   D2B13021   8.331  25.649  12.959  0.0414  0.2165  0.1346
 1110DOPS   C3B13022   8.056  25.668  13.349  0.0122 -0.4721  0.3422
 1110DOPS   C4B13023   7.601  25.771  13.412 -0.2508 -0.2319 -0.2095
 1111DOPC   NC313024   5.448  27.389  12.106 -0.1949 -0.3516  0.0143
 1111DOPC   PO413025   5.107  27.238  12.266  0.0484 -0.2531 -0.0484
 1111DOPC   GL113026   5.213  27.585  12.467  0.1461  0.0323 -0.2745
 1111DOPC   GL213027   5.226  27.824  12.336  0.1508 -0.1320 -0.2190
 1111DOPC   C1A13028   4.832  27.756  12.778  0.1213  0.0845 -0.0300
 1111DOPC   D2A13029   4.354  27.651  12.814 -0.0271 -0.3210 -0.1528
 1111DOPC   C3A13030   4.252  27.368  13.172  0.0065 -0.0144 -0.2848
 1111DOPC   C4A13031   4.146  27.223  13.572 -0.0298  0.1673  0.0298
 1111DOPC   C1B13032   5.061  28.218  12.473  0.0229  0.1076  0.0531
 1111DOPC   D2B13033   4.776  28.507  12.748  0.0698  0.2166 -0.1803
 1111DOPC   C3B13034   4.569  28.822  12.480  0.0988  0.1894  0.1507
 1111DOPC   C4B13035   4.463  29.234  12.312 -0.4983 -0.1415 -0.1935
 1112DOPS   CNO13036   0.362  33.926  12.634  0.1424 -0.0468  0.2909
 1112DOPS   PO413037   0.534  33.650  12.789  0.0933 -0.2216  0.3023
 1112DOPS   GL113038   0.763  33.376  13.064  0.1011  0.2758  0.1332
 1112DOPS   GL213039   0.636  33.569  13.286 -0.1932 -0.1488 -0.0178
 1112DOPS   C1A13040   0.712  33.082  13.383 -0.1499  0.4326 -0.0502
 1112DOPS   D2A13041   0.539  32.734  13.569  0.0725 -0.4435 -0.1028
 1112DOPS   C3A13042   0.430  32.892  14.007 -0.1558  0.1089 -0.0448
 1112DOPS   C4A13043   0.453  32.995  14.422  0.4605 -0.2369 -0.0566
 1112DOPS   C1B13044   0.731  33.473  13.742 -0.0510 -0.0136 -0.1358
 1112DOPS   D2B13045   0.808  33.372  14.192  0.1258 -0.0099  0.1453
 1112DOPS   C3B13046   1.327  33.395  14.264  0.0375 -0.1328  0.0860
 1112DOPS   C4B13047   1.786  33.341  14.155 -0.0741 -0.1531  0.1232
 1113DOPE   NH313048   4.076  31.191  12.430 -0.0322 -0.2144  0.0694
 1113DOPE   PO413049   4.075  31.556  12.545 -0.0578 -0.2587 -0.1447
 1113DOPE   GL113050   4.118  31.781  12.949 -0.1405  0.1507  0.0496
 1113DOPE   GL213051   4.436  31.716  12.849 -0.3356 -0.0211 -0.0850
 1113DOPE   C1A13052   4.371  32.120  13.050  0.2134 -0.2725  0.1001
 1113DOPE   D2A13053   4.534  32.397  13.414  0.1352 -0.1760  0.2829
 1113DOPE   C3A13054   4.441  32.852  13.506 -0.3295  0.2308 -0.1694
 1113DOPE   C4A13055   4.389  33.232  13.769  0.0152  0.0827  0.0670
 1113DOPE   C1B13056   4.663  31.590  13.238 -0.2323 -0.0788  0.0047
 1113DOPE   D2B13057   4.890  31.810  13.583 -0.1498  0.0842 -0.4443
 1113DOPE   C3B13058   4.841  31.612  13.996 -0.0219  0.2610 -0.2342
 1113DOPE   C4B13059   4.870  31.666  14.427 -0.0595 -0.2815  0.1285
 1114DOPE   NH313060   9.726  25.962  12.338 -0.1149  0.1189  0.2117
 1114DOPE   PO413061   9.920  25.781  12.243  0.0093  0.1718  0.0551
 1114DOPE   GL113062  10.295  25.652  12.400 -0.0761  0.1961  0.0617
 1114DOPE   GL213063  10.366  25.879  12.483  0.0613 -0.1512 -0.2199
 1114DOPE   C1A13064  10.515  25.514  12.783 -0.0359 -0.0668  0.1365
 1114DOPE   D2A13065  10.914  25.580  13.012 -0.2155 -0.0917 -0.1359
 1114DOPE   C3A13066  11.254  25.876  13.134  0.0131 -0.2355 -0.1865
 1114DOPE   C4A13067  11.197  26.289  13.352 -0.0808 -0.2739  0.0495
 1114DOPE   C1B13068  10.190  25.939  12.951  0.0801  0.0533 -0.1852
 1114DOPE   D2B13069  10.193  25.952  13.407 -0.0503  0.0779 -0.0209
 1114DOPE   C3B13070   9.808  25.886  13.753 -0.3120  0.0703 -0.1870
 1114DOPE   C4B13071   9.726  26.207  14.092 -0.2893 -0.1234 -0.2658
 1115DOPE   NH313072   6.635  27.332  12.603 -0.1402  0.2007  0.1409
 1115DOPE   PO413073   6.464  27.245  12.879  0.0937  0.1886  0.3699
 1115DOPE   GL113074   6.715  27.194  13.178 -0.2050 -0.2214 -0.0390
 1115DOPE   GL213075   6.959  27.064  13.320 -0.0835 -0.3554  0.1677
 1115DOPE   C1A13076   6.651  27.350  13.618 -0.3367  0.0219 -0.0300
 1115DOPE   D2A13077   6.748  27.782  13.758 -0.2235 -0.0517  0.0492
 1115DOPE   C3A13078   6.863  27.873  14.177 -0.2069  0.0288  0.1678
 1115DOPE   C4A13079   7.086  27.921  14.569 -0.1891 -0.1421 -0.1671
 1115DOPE   C1B13080   7.100  26.659  13.389 -0.0048 -0.0540  0.0120
 1115DOPE   D2B13081   7.272  26.219  13.450  0.0972 -0.0901 -0.2457
 1115DOPE   C3B13082   7.483  26.220  13.834  0.1950 -0.2053  0.1672
 1115DOPE   C4B13083   7.799  26.040  14.060  0.0119 -0.0148 -0.1015
 1116DOPC   NC313084   4.870  24.660  12.649 -0.1177 -0.3814  0.2708
 1116DOPC   PO413085   4.998  24.556  12.265 -0.0260  0.4413 -0.0514
 1116DOPC   GL113086   5.288  24.674  12.482  0.0036 -0.0864 -0.2540
 1116DOPC   GL213087   5.389  24.395  12.545 -0.0851 -0.2087  0.1784
 1116DOPC   C1A13088   5.622  24.838  12.789  0.1897  0.1739 -0.2760
 1116DOPC   D2A13089   5.866  24.873  13.154 -0.1869  0.0043  0.0377
 1116DOPC   C3A13090   6.145  24.488  13.128  0.4375  0.2376 -0.2814
 1116DOPC   C4A13091   6.223  24.046  13.111  0.0357  0.1096 -0.1673
 1116DOPC   C1B13092   5.284  24.450  12.972 -0.2403  0.3680 -0.2783
 1116DOPC   D2B13093   5.443  24.558  13.411 -0.1768  0.3648  0.0810
 1116DOPC   C3B13094   5.686  24.625  13.758  0.0530  0.1359  0.2744
 1116DOPC   C4B13095   5.805  24.986  14.078  0.2535  0.2295 -0.3023
 1117DOPS   CNO13096  10.149  29.718  12.062 -0.2266 -0.0879 -0.0248
 1117DOPS   PO413097  10.514  29.828  12.199 -0.0746 -0.1324 -0.1209
 1117DOPS   GL113098  10.708  29.780  12.482  0.3315  0.3151  0.2461
 1117DOPS   GL213099  10.650  30.098  12.613  0.0316 -0.0187  0.0483
 1117DOPS   C1A13100  10.720  29.621  12.905  0.0807 -0.2146 -0.3181
 1117DOPS   D2A13101  10.782  29.709  13.355 -0.3954 -0.0353  0.0743
 1117DOPS   C3A13102  10.610  30.109  13.549  0.1016  0.0444 -0.0289
 1117DOPS   C4A13103  10.522  30.475  13.365  0.0668 -0.0581 -0.0894
 1117DOPS   C1B13104  10.785  30.166  13.060  0.0932  0.1837  0.0861
 1117DOPS   D2B13105  11.073  30.213  13.415  0.1260 -0.1266  0.1184
 1117DOPS   C3B13106  11.012  30.616  13.675 -0.3626  0.1411 -0.0444
 1117DOPS   C4B13107  11.066  31.018  13.805  0.1529  0.0408 -0.0592
 1118DOPS   CNO13108   7.201  34.021  12.006  0.2855  0.2778 -0.5066
 1118DOPS   PO413109   7.508  33.979  12.180 -0.0071  0.1815 -0.2422
 1118DOPS   GL113110   7.476  33.719  12.437 -0.0678 -0.3126 -0.2002
 1118DOPS   GL213111   7.226  33.589  12.422  0.0446  0.0452 -0.1972
 1118DOPS   C1A13112   7.543  33.224  12.445 -0.0158 -0.1475 -0.1301
 1118DOPS   D2A13113   7.968  32.995  12.481 -0.3338 -0.1266 -0.2673
 1118DOPS   C3A13114   8.416  32.805  12.497  0.2195 -0.0708 -0.0362
 1118DOPS   C4A13115   8.668  32.948  12.130  0.0239  0.1700  0.2742
 1118DOPS   C1B13116   7.197  33.377  12.827 -0.1528 -0.0812 -0.0019
 1118DOPS   D2B13117   7.006  33.260  13.272  0.5440 -0.0079 -0.3220
 1118DOPS   C3B13118   6.845  33.314  13.713 -0.2694  0.1098  0.1568
 1118DOPS   C4B13119   6.922  33.486  14.155 -0.1472  0.0225  0.2185
 1119DOPC   NC313120   6.628  32.250  12.616  0.1753 -0.0291 -0.1463
 1119DOPC   PO413121   6.427  32.262  12.286 -0.2871 -0.0912  0.0392
 1119DOPC   GL113122   6.788  32.397  12.231 -0.1078  0.0476  0.1113
 1119DOPC   GL213123   7.005  32.517  12.032 -0.0712 -0.0454  0.0531
 1119DOPC   C1A13124   7.076  32.482  12.573 -0.1598  0.4075  0.0406
 1119DOPC   D2A13125   7.087  32.899  12.784  0.1199 -0.2771  0.0981
 1119DOPC   C3A13126   7.455  32.943  13.072  0.0472 -0.0728  0.1222
 1119DOPC   C4A13127   7.669  33.093  13.410  0.0323  0.5070 -0.0170
 1119DOPC   C1B13128   6.800  32.895  12.268 -0.1956 -0.0107 -0.1677
 1119DOPC   D2B13129   6.860  33.252  12.519  0.0232 -0.3897  0.1512
 1119DOPC   C3B13130   6.668  33.273  12.939 -0.0210  0.1484 -0.1215
 1119DOPC   C4B13131   6.552  33.368  13.335  0.0425  0.1811 -0.0735
 1120DOPS   CNO13132   2.486  27.901  12.383 -0.0171  0.2603 -0.0376
 1120DOPS   PO413133   2.665  27.671  12.635  0.3931  0.2299  0.0284
 1120DOPS   GL113134   2.778  27.728  12.988  0.0458  0.0256 -0.1195
 1120DOPS   GL213135   3.125  27.666  12.948 -0.2464 -0.2333 -0.1509
 1120DOPS   C1A13136   2.650  28.064  13.352  0.0870  0.0493  0.2093
 1120DOPS   D2A13137   2.462  28.035  13.763  0.1054 -0.1575  0.2575
 1120DOPS   C3A13138   2.305  27.638  13.997  0.1494 -0.0929  0.3043
 1120DOPS   C4A13139   2.268  27.225  14.313 -0.0836  0.0023  0.0895
 1120DOPS   C1B13140   3.360  27.497  13.185  0.0360 -0.0273 -0.3132
 1120DOPS   D2B13141   3.647  27.309  13.463  0.1138 -0.3097  0.1749
 1120DOPS   C3B13142   3.736  26.913  13.351  0.2575 -0.1400 -0.2202
 1120DOPS   C4B13143   3.805  26.479  13.515 -0.3397  0.2957 -0.1509
 1121DOPS   CNO13144   3.447  30.134  12.542 -0.1103  0.0963  0.2177
 1121DOPS   PO413145   3.526  30.099  12.931  0.1169 -0.1194  0.3130
 1121DOPS   GL113146   3.813  29.879  13.099  0.0059 -0.0631  0.1064
 1121DOPS   GL213147   4.026  30.072  13.129  0.3101  0.0140 -0.2963
 1121DOPS   C1A13148   3.864  29.458  13.302  0.2485 -0.1903  0.2940
 1121DOPS   D2A13149   3.854  29.144  13.645  0.0486 -0.0697  0.0437
 1121DOPS   C3A13150   4.286  29.012  13.827  0.0429 -0.0329 -0.3719
 1121DOPS   C4A13151   4.721  28.873  13.832 -0.0955 -0.2993  0.1651
 1121DOPS   C1B13152   3.911  30.014  13.546  0.1984  0.2676  0.3836
 1121DOPS   D2B13153   3.831  30.036  13.955  0.3720  0.5717 -0.1953
 1121DOPS   C3B13154   4.057  29.736  14.259 -0.3228 -0.0051 -0.1137
 1121DOPS   C4B13155   4.196  29.290  14.225 -0.0764  0.0894  0.0921
 1122DOPC   NC313156   1.609  31.134  12.677 -0.1963 -0.4263  0.1624
 1122DOPC   PO413157   1.251  31.268  12.620  0.1321  0.0106 -0.2711
 1122DOPC   GL113158   1.344  31.527  12.862  0.1210  0.0270 -0.2873
 1122DOPC   GL213159   1.210  31.686  13.022  0.0141  0.4960 -0.0147
 1122DOPC   C1A13160   1.678  31.536  13.210 -0.0088  0.1140  0.1175
 1122DOPC   D2A13161   2.030  31.462  13.529  0.2089 -0.2760  0.0555
 1122DOPC   C3A13162   2.313  31.828  13.724  0.2190  0.1467  0.0138
 1122DOPC   C4A13163   2.412  32.249  13.716  0.1899 -0.1947  0.1390
 1122DOPC   C1B13164   1.495  31.983  13.216  0.0043 -0.0264  0.2066
 1122DOPC   D2B13165   1.748  32.291  12.965 -0.1824 -0.1310 -0.0665
 1122DOPC   C3B13166   2.031  32.575  13.151  0.3496 -0.0116 -0.2479
 1122DOPC   C4B13167   2.051  32.610  13.638  0.3018 -0.1469 -0.1318
 1123DOPE   NH313168   9.914  24.179  12.426  0.0245  0.0181  0.1610
 1123DOPE   PO413169   9.923  23.844  12.380 -0.2104 -0.2117 -0.0840
 1123DOPE   GL113170   9.746  23.811  12.721  0.1048 -0.4287  0.0372
 1123DOPE   GL213171   9.444  23.761  12.774 -0.1587  0.1241 -0.0819
 1123DOPE   C1A13172   9.881  23.528  13.040 -0.3283  0.3189  0.1851
 1123DOPE   D2A13173   9.892  23.291  13.415  0.1169  0.0886 -0.0366
 1123DOPE   C3A13174   9.725  22.920  13.451  0.0868 -0.0578  0.1794
 1123DOPE   C4A13175   9.569  22.473  13.480 -0.0727 -0.1184 -0.1184
 1123DOPE   C1B13176   9.471  23.867  13.200  0.4547 -0.2540  0.5283
 1123DOPE   D2B13177   9.625  23.687  13.585 -0.0365  0.0123 -0.2471
 1123DOPE   C3B13178  10.017  23.716  13.837  0.0023 -0.5240  0.2406
 1123DOPE   C4B13179  10.429  23.987  13.944 -0.0732 -0.1929  0.1408
 1124DOPE   NH313180   0.489  34.437  12.676 -0.0917  0.4734  0.0419
 1124DOPE   PO413181   0.412  34.501  12.976  0.0564  0.0567  0.0437
 1124DOPE   GL113182   0.486  34.480  13.371  0.2877 -0.1410  0.1359
 1124DOPE   GL213183   0.701  34.386  13.346  0.0558 -0.1956 -0.1459
 1124DOPE   C1A13184   0.471  34.459  13.822 -0.1099  0.3144 -0.1185
 1124DOPE   D2A13185   0.105  34.401  14.124  0.1832 -0.0582 -0.0740
 1124DOPE   C3A13186  -0.106  34.644  14.483 -0.0358 -0.1487  0.1119
 1124DOPE   C4A13187  -0.554  34.617  14.634  0.2389 -0.1857 -0.1053
 1124DOPE   C1B13188   0.735  34.009  13.642  0.2253  0.2717 -0.2344
 1124DOPE   D2B13189   1.135  33.791  13.731  0.2303 -0.1103 -0.5335
 1124DOPE   C3B13190   1.213  33.952  14.144  0.0957 -0.1260  0.1485
 1124DOPE   C4B13191   1.361  34.179  14.448 -0.0772  0.0227 -0.4455
 1125POSM   NC313192   5.284  26.073  12.306 -0.1667 -0.0939 -0.1537
 1125POSM   PO413193   5.484  26.342  12.552  0.2713  0.2109 -0.0654
 1125POSM   AM113194   5.596  26.137  12.727  0.0896  0.1053  0.1860
 1125POSM   AM213195   5.832  26.172  12.845  0.1401 -0.1801 -0.0678
 1125POSM   T1A13196   5.509  25.816  13.099  0.1147  0.1352  0.3916
 1125POSM   C2A13197   5.415  25.845  13.529  0.3366 -0.0496  0.2718
 1125POSM   C3A13198   5.374  25.950  14.022 -0.1292 -0.1176  0.1131
 1125POSM   C1B13199   5.888  26.140  13.192  0.1437  0.2240  0.1565
 1125POSM   D2B13200   5.864  26.032  13.682 -0.0200  0.0960  0.0113
 1125POSM   C3B13201   5.736  25.585  13.783 -0.5305 -0.2057 -0.1287
 1125POSM   C4B13202   5.825  25.162  13.610 -0.2797 -0.2161 -0.0207
 1126DOPS   CNO13203   8.903  34.445  11.779  0.0328 -0.3526  0.3821
 1126DOPS   PO413204   8.930  34.157  11.970 -0.0692  0.1629  0.1193
 1126DOPS   GL113205   9.080  33.838  12.107 -0.0571  0.1135  0.1026
 1126DOPS   GL213206   9.362  33.869  12.000 -0.2317 -0.1267  0.1363
 1126DOPS   C1A13207   9.096  33.372  12.114 -0.0188 -0.0521  0.1915
 1126DOPS   D2A13208   9.116  33.023  11.858  0.0152 -0.0423  0.0315
 1126DOPS   C3A13209   9.179  32.765  12.208 -0.0639 -0.1432 -0.1123
 1126DOPS   C4A13210   9.436  32.596  12.576  0.2185  0.0384 -0.1552
 1126DOPS   C1B13211   9.377  33.508  11.683 -0.2860  0.0244  0.0168
 1126DOPS   D2B13212   9.590  33.097  11.643  0.1733 -0.1174  0.4193
 1126DOPS   C3B13213   9.611  32.997  12.068  0.0266 -0.0981  0.0279
 1126DOPS   C4B13214   9.922  32.768  12.273 -0.0730 -0.0026  0.0208
 1127DOPC   NC313215   7.670  23.904  12.357  0.0703 -0.0574  0.0794
 1127DOPC   PO413216   7.370  23.926  12.074  0.0336  0.1014  0.0322
 1127DOPC   GL113217   7.296  24.306  12.241 -0.4399  0.1748 -0.3212
 1127DOPC   GL213218   6.950  24.350  12.314  0.1451  0.0543 -0.1506
 1127DOPC   C1A13219   7.519  24.704  12.082 -0.2724  0.0048 -0.0507
 1127DOPC   D2A13220   7.893  24.923  12.266  0.0280 -0.0140 -0.0442
 1127DOPC   C3A13221   7.704  25.390  12.225 -0.1501 -0.0711  0.0818
 1127DOPC   C4A13222   7.276  25.535  12.277  0.1380  0.0870 -0.0219
 1127DOPC   C1B13223   7.004  24.751  12.532  0.1223 -0.1191 -0.0236
 1127DOPC   D2B13224   6.967  24.962  12.937 -0.1887  0.1972  0.4882
 1127DOPC   C3B13225   6.661  24.819  13.285  0.2256  0.1391 -0.2473
 1127DOPC   C4B13226   6.327  24.757  13.585 -0.1984 -0.0627  0.0471
 1128DOPE   NH313227   0.340  26.748  12.224 -0.1289  0.1179 -0.1518
 1128DOPE   PO413228   0.624  26.677  12.370  0.1600  0.1335 -0.1076
 1128DOPE   GL113229   0.403  26.456  12.693  0.0096 -0.3024 -0.1854
 1128DOPE   GL213230   0.718  26.305  12.803 -0.0768 -0.1934  0.1021
 1128DOPE   C1A13231   0.302  26.263  13.133 -0.2647 -0.0776 -0.1945
 1128DOPE   D2A13232  -0.019  26.347  13.442 -0.3476  0.1130 -0.0096
 1128DOPE   C3A13233   0.080  25.917  13.609  0.0217  0.0602 -0.1214
 1128DOPE   C4A13234   0.437  25.651  13.633  0.1944 -0.1794  0.2340
 1128DOPE   C1B13235   0.717  26.592  13.144 -0.1647 -0.0904  0.0713
 1128DOPE   D2B13236   0.433  26.658  13.469 -0.1999 -0.2140 -0.2009
 1128DOPE   C3B13237   0.392  26.298  13.840 -0.1604 -0.3382  0.1665
 1128DOPE   C4B13238   0.655  26.045  14.083  0.0843  0.4632 -0.0134
 1129DOPS   CNO13239   5.798  26.573  12.126 -0.2545 -0.2358  0.1548
 1129DOPS   PO413240   5.415  26.450  12.076 -0.1925 -0.1208  0.2434
 1129DOPS   GL113241   5.714  26.108  12.150 -0.2767 -0.0416 -0.1322
 1129DOPS   GL213242   5.917  26.056  12.351 -0.0400 -0.1673  0.0979
 1129DOPS   C1A13243   5.746  25.639  12.145  0.3374 -0.2082 -0.2540
 1129DOPS   D2A13244   5.583  25.252  12.434  0.2177 -0.3033 -0.0414
 1129DOPS   C3A13245   5.528  25.330  12.913 -0.1358  0.0700  0.0461
 1129DOPS   C4A13246   5.791  25.481  13.272 -0.2870  0.0357  0.1222
 1129DOPS   C1B13247   6.322  25.880  12.181  0.3669  0.1513 -0.0435
 1129DOPS   D2B13248   6.665  25.640  12.142 -0.0453  0.2702  0.0289
 1129DOPS   C3B13249   6.868  25.225  12.338 -0.0421 -0.2320  0.4391
 1129DOPS   C4B13250   7.290  25.172  12.595 -0.2973  0.0799 -0.0443
 1130DOPS   CNO13251   9.294  30.030  12.008 -0.1395 -0.0573 -0.0349
 1130DOPS   PO413252   9.068  30.322  11.974  0.1179  0.1116  0.1183
 1130DOPS   GL113253   8.999  30.728  12.178  0.0909  0.1414  0.0956
 1130DOPS   GL213254   8.720  30.948  12.119  0.2758 -0.1933 -0.1135
 1130DOPS   C1A13255   9.237  31.108  12.016  0.0449  0.0042 -0.1354
 1130DOPS   D2A13256   9.503  31.436  12.206  0.1235 -0.0228 -0.0702
 1130DOPS   C3A13257   9.281  31.843  12.484 -0.0306 -0.3908 -0.0241
 1130DOPS   C4A13258   9.158  32.253  12.331 -0.1482 -0.1774  0.1107
 1130DOPS   C1B13259   8.559  31.375  12.042  0.0867 -0.1415  0.4719
 1130DOPS   D2B13260   8.459  31.818  12.229 -0.1972  0.4241 -0.2625
 1130DOPS   C3B13261   8.698  31.971  12.656 -0.2105 -0.3389  0.3523
 1130DOPS   C4B13262   9.054  32.221  12.816 -0.0163  0.2100 -0.1071
 1131DOPE   NH313263  34.543  33.729  12.786  0.2668  0.0046 -0.3671
 1131DOPE   PO413264  34.764  33.561  12.910 -0.1947 -0.1376  0.1606
 1131DOPE   GL113265  34.900  33.588  13.247 -0.1047 -0.4164 -0.0884
 1131DOPE   GL213266  34.955  33.254  13.263 -0.0180  0.0870  0.0183
 1131DOPE   C1A13267  34.793  33.483  13.671 -0.1716 -0.0926  0.1819
 1131DOPE   D2A13268  34.973  33.377  14.101 -0.1821 -0.0115  0.0265
 1131DOPE   C3A13269  35.089  33.598  14.487  0.0094  0.1285 -0.0660
 1131DOPE   C4A13270  35.297  33.376  14.832 -0.1842 -0.0083  0.1453
 1131DOPE   C1B13271  34.782  32.948  13.611  0.0108  0.0762  0.1973
 1131DOPE   D2B13272  34.578  33.163  14.000  0.1797 -0.0358 -0.1184
 1131DOPE   C3B13273  34.133  33.153  14.180  0.1111 -0.0356  0.1904
 1131DOPE   C4B13274  33.717  33.177  14.119  0.2955  0.0845 -0.3698
 1132DOPE   NH313275   3.671  29.640  12.759  0.1296 -0.1672 -0.1753
 1132DOPE   PO413276   3.488  29.552  12.544 -0.2508  0.1775 -0.2124
 1132DOPE   GL113277   3.736  29.221  12.593  0.2461 -0.1390  0.3661
 1132DOPE   GL213278   3.624  28.926  12.450 -0.2068 -0.0493  0.1950
 1132DOPE   C1A13279   4.148  29.258  12.842 -0.3109 -0.1799 -0.0296
 1132DOPE   D2A13280   4.585  29.396  12.945  0.0194 -0.3481  0.2047
 1132DOPE   C3A13281   4.899  29.566  13.085 -0.1928 -0.1666 -0.0362
 1132DOPE   C4A13282   5.295  29.543  13.363  0.0423  0.0558  0.1063
 1132DOPE   C1B13283   3.975  28.627  12.358  0.1641 -0.2318  0.3710
 1132DOPE   D2B13284   4.277  28.272  12.545  0.1524 -0.0747  0.0963
 1132DOPE   C3B13285   4.477  28.144  12.948 -0.0368 -0.0930 -0.0816
 1132DOPE   C4B13286   4.865  28.150  13.184 -0.1245 -0.0020  0.0906
 1133POSM   NC313287  10.169  23.858  11.909 -0.0781  0.1691 -0.0796
 1133POSM   PO413288  10.396  23.817  12.200  0.1294 -0.2689  0.3419
 1133POSM   AM113289  10.423  23.831  12.521 -0.0747 -0.4118  0.1445
 1133POSM   AM213290  10.273  23.764  12.754  0.0627 -0.0685  0.2316
 1133POSM   T1A13291  10.718  23.986  12.907  0.0598  0.1125  0.0148
 1133POSM   C2A13292  11.012  24.212  13.187 -0.2088  0.1127 -0.0599
 1133POSM   C3A13293  11.317  24.182  13.560 -0.2161 -0.2115 -0.0394
 1133POSM   C1B13294  10.148  23.996  12.968  0.0226  0.0198  0.3909
 1133POSM   D2B13295  10.055  24.151  13.415 -0.1361 -0.0645  0.1865
 1133POSM   C3B13296  10.468  24.292  13.531 -0.0566 -0.2940  0.0205
 1133POSM   C4B13297  10.839  24.191  13.737 -0.3037  0.1675  0.0729
 1134DOPC   NC313298   8.531  28.002  12.431 -0.2487 -0.1620  0.0473
 1134DOPC   PO413299   8.381  27.591  12.474 -0.0521 -0.1603  0.1381
 1134DOPC   GL113300   8.286  27.716  12.905 -0.2031  0.0410 -0.0796
 1134DOPC   GL213301   7.952  27.610  12.898  0.1003 -0.2182 -0.2223
 1134DOPC   C1A13302   8.100  27.544  13.330  0.1137 -0.0927  0.1620
 1134DOPC   D2A13303   7.914  27.124  13.533  0.0128  0.0976  0.0516
 1134DOPC   C3A13304   8.257  26.927  13.835  0.1538 -0.2778  0.0463
 1134DOPC   C4A13305   8.555  26.632  14.064 -0.2961  0.2178 -0.3531
 1134DOPC   C1B13306   7.772  27.266  13.053 -0.1030 -0.0743 -0.1156
 1134DOPC   D2B13307   7.508  26.926  13.233 -0.0306 -0.1859  0.0434
 1134DOPC   C3B13308   7.525  26.804  13.713 -0.1440  0.1098  0.0877
 1134DOPC   C4B13309   7.437  26.734  14.160 -0.0156  0.0260 -0.0848
 1135DOPC   NC313310   3.176  29.175  12.421  0.1946 -0.0119  0.0525
 1135DOPC   PO413311   3.231  29.072  12.791 -0.0961  0.0081 -0.0849
 1135DOPC   GL113312   3.402  28.906  13.088 -0.0469 -0.1215 -0.2392
 1135DOPC   GL213313   3.662  29.057  12.979  0.1643  0.2192  0.2428
 1135DOPC   C1A13314   3.638  28.544  13.251  0.0863  0.0652 -0.2120
 1135DOPC   D2A13315   3.791  28.239  13.629 -0.1851 -0.2013 -0.0438
 1135DOPC   C3A13316   4.114  28.217  13.953  0.2788 -0.2187  0.0139
 1135DOPC   C4A13317   4.043  28.303  14.391 -0.1569 -0.0864  0.0645
 1135DOPC   C1B13318   3.954  28.718  12.879  0.3449 -0.2690 -0.0841
 1135DOPC   D2B13319   4.174  28.463  13.189  0.1625  0.0610 -0.0196
 1135DOPC   C3B13320   4.182  28.586  13.634  0.0640  0.0806  0.0609
 1135DOPC   C4B13321   4.441  28.551  14.029 -0.0144 -0.0357  0.0498
 1136DOPE   NH313322   8.851  34.422  12.349 -0.2231 -0.1989 -0.0025
 1136DOPE   PO413323   9.096  34.180  12.456  0.0944 -0.1899  0.1297
 1136DOPE   GL113324   9.120  34.376  12.812  0.0083  0.3078 -0.5544
 1136DOPE   GL213325   8.912  34.290  12.937  0.0550  0.4689  0.0543
 1136DOPE   C1A13326   9.073  34.746  13.124  0.1896  0.1328  0.3467
 1136DOPE   D2A13327   9.033  35.176  13.131  0.6719  0.0206 -0.0190
 1136DOPE   C3A13328   8.692  35.405  13.366 -0.0041  0.1034 -0.2151
 1136DOPE   C4A13329   8.405  35.396  13.693 -0.0284 -0.2961 -0.1315
 1136DOPE   C1B13330   9.047  33.982  13.290  0.1150 -0.3037 -0.0069
 1136DOPE   D2B13331   9.222  33.576  13.324  0.2812  0.2001 -0.0323
 1136DOPE   C3B13332   9.546  33.312  13.099  0.1449  0.0405  0.0253
 1136DOPE   C4B13333   9.916  33.483  12.814  0.0636 -0.0025  0.2347
 1137POSM   NC313334  10.485  34.533  12.313 -0.1455  0.1469 -0.0431
 1137POSM   PO413335  10.569  34.219  12.107 -0.1606 -0.0231  0.3836
 1137POSM   AM113336  10.587  34.039  12.393  0.0883  0.3443  0.1539
 1137POSM   AM213337  10.513  34.149  12.620 -0.0617  0.0755 -0.2943
 1137POSM   T1A13338  10.294  33.616  12.434 -0.1879  0.0991 -0.4044
 1137POSM   C2A13339   9.906  33.433  12.329 -0.1033 -0.0239 -0.0161
 1137POSM   C3A13340   9.546  33.156  12.529 -0.3679 -0.2394  0.0655
 1137POSM   C1B13341  10.553  34.249  12.930  0.2990 -0.2285 -0.1708
 1137POSM   D2B13342  10.602  34.427  13.311 -0.0968  0.0490 -0.1321
 1137POSM   C3B13343  11.064  34.391  13.459  0.0352 -0.0078 -0.1080
 1137POSM   C4B13344  11.421  34.531  13.720 -0.2604  0.1168 -0.2353
 1138DOPE   NH313345   6.232  28.428  12.646  0.2077  0.1606  0.0984
 1138DOPE   PO413346   6.263  28.244  12.351 -0.0967  0.1147  0.3689
 1138DOPE   GL113347   6.102  28.544  12.188  0.1083  0.1857  0.2605
 1138DOPE   GL213348   6.317  28.768  12.304  0.1101 -0.2088 -0.1770
 1138DOPE   C1A13349   5.827  28.922  12.298 -0.1793 -0.0619  0.3271
 1138DOPE   D2A13350   5.588  29.091  12.601 -0.0468  0.2064  0.0052
 1138DOPE   C3A13351   5.462  29.495  12.795  0.1087  0.3498 -0.1821
 1138DOPE   C4A13352   5.572  29.898  13.079 -0.0468  0.0060  0.3455
 1138DOPE   C1B13353   6.273  29.179  12.593 -0.2240  0.3579  0.1364
 1138DOPE   D2B13354   6.454  29.298  13.018 -0.0475 -0.2869 -0.2365
 1138DOPE   C3B13355   6.369  29.582  13.369  0.2253 -0.3676  0.3086
 1138DOPE   C4B13356   6.217  29.652  13.779  0.1205  0.0167 -0.1970
 1139DOPC   NC313357   7.096  28.193  12.646 -0.2447  0.0233  0.2078
 1139DOPC   PO413358   7.441  28.295  12.445 -0.0344 -0.0564  0.2289
 1139DOPC   GL113359   7.396  28.709  12.629 -0.1072  0.0753 -0.0580
 1139DOPC   GL213360   7.145  28.612  12.859  0.0632 -0.0013  0.0622
 1139DOPC   C1A13361   7.778  28.994  12.744  0.0095 -0.2912  0.1971
 1139DOPC   D2A13362   8.179  29.243  12.922  0.4810  0.1876  0.0852
 1139DOPC   C3A13363   8.404  29.007  13.213  0.2493  0.0873 -0.1314
 1139DOPC   C4A13364   8.674  28.971  13.627 -0.0860 -0.1021 -0.1824
 1139DOPC   C1B13365   7.069  28.541  13.306  0.0193 -0.0405 -0.0466
 1139DOPC   D2B13366   7.226  28.535  13.770  0.0168 -0.1533 -0.2338
 1139DOPC   C3B13367   7.541  28.432  14.148 -0.1516 -0.1289 -0.1271
 1139DOPC   C4B13368   7.531  28.221  14.548  0.0236 -0.2507 -0.0786
 1140DOPS   CNO13369   2.543  24.321  12.404  0.1958  0.1312  0.1383
 1140DOPS   PO413370   2.188  24.214  12.377  0.3034 -0.0988  0.2635
 1140DOPS   GL113371   1.898  24.240  12.638 -0.3577 -0.1938  0.0621
 1140DOPS   GL213372   2.056  24.190  12.902  0.1255  0.2264  0.4783
 1140DOPS   C1A13373   1.439  24.106  12.632 -0.0087 -0.1757  0.3985
 1140DOPS   D2A13374   0.977  24.229  12.681 -0.0692  0.0001 -0.0183
 1140DOPS   C3A13375   1.080  24.555  12.969  0.1221 -0.2714 -0.3466
 1140DOPS   C4A13376   1.311  24.673  13.314 -0.1370  0.1700 -0.1922
 1140DOPS   C1B13377   2.079  24.452  13.267 -0.3402 -0.0115 -0.1455
 1140DOPS   D2B13378   2.116  24.766  13.582 -0.1018 -0.0922 -0.2546
 1140DOPS   C3B13379   2.388  24.494  13.830  0.0554  0.0781 -0.4646
 1140DOPS   C4B13380   2.597  24.334  14.221  0.1939  0.1388 -0.0999
 1141DOPE   NH313381   3.652  31.796  12.735 -0.1930 -0.1320  0.2171
 1141DOPE   PO413382   3.349  31.798  12.833 -0.1614  0.1209  0.2784
 1141DOPE   GL113383   3.497  32.083  13.112  0.0157  0.1151  0.2676
 1141DOPE   GL213384   3.725  32.181  13.224  0.4668  0.0020  0.1430
 1141DOPE   C1A13385   3.265  32.083  13.577 -0.0304 -0.3434  0.0136
 1141DOPE   D2A13386   2.971  32.408  13.875  0.0785 -0.1856 -0.2724
 1141DOPE   C3A13387   2.665  32.197  14.185  0.3443  0.0678 -0.0244
 1141DOPE   C4A13388   2.300  31.955  14.418 -0.0112 -0.2115 -0.1685
 1141DOPE   C1B13389   4.028  32.211  13.552 -0.1089  0.0785  0.0915
 1141DOPE   D2B13390   4.311  32.449  13.865  0.0907 -0.1646  0.1668
 1141DOPE   C3B13391   4.177  32.587  14.299 -0.3973 -0.0762  0.5208
 1141DOPE   C4B13392   4.291  32.696  14.703 -0.0966 -0.0138 -0.0421
 1142DOPE   NH313393   3.034  28.182  12.375 -0.2551  0.0049  0.2137
 1142DOPE   PO413394   2.917  28.113  12.697  0.1232  0.1025 -0.0677
 1142DOPE   GL113395   3.022  28.107  13.030 -0.0098  0.0986  0.3110
 1142DOPE   GL213396   3.115  28.367  13.138 -0.0105  0.4563  0.2236
 1142DOPE   C1A13397   3.434  28.017  13.235 -0.0777  0.0058 -0.0306
 1142DOPE   D2A13398   3.502  27.774  13.621  0.2655  0.3664  0.2694
 1142DOPE   C3A13399   3.438  27.797  14.065 -0.0592  0.1260  0.0203
 1142DOPE   C4A13400   3.105  27.667  14.364 -0.1831 -0.4620  0.0091
 1142DOPE   C1B13401   3.064  28.193  13.550  0.0975  0.3523  0.1559
 1142DOPE   D2B13402   3.023  27.996  14.007 -0.0849 -0.0445  0.0374
 1142DOPE   C3B13403   2.814  27.553  14.010 -0.1179  0.1706  0.1093
 1142DOPE   C4B13404   2.696  27.178  13.763  0.2803 -0.1160  0.2257
 1143DOPS   CNO13405  11.160  34.368  12.069  0.0167  0.1667 -0.1362
 1143DOPS   PO413406  11.005  34.263  12.416  0.0184  0.0569 -0.1162
 1143DOPS   GL113407  11.253  34.434  12.735 -0.2345  0.0864 -0.0261
 1143DOPS   GL213408  11.127  34.217  12.923 -0.1656  0.1246 -0.0763
 1143DOPS   C1A13409  11.294  34.824  13.023 -0.0036  0.2632 -0.3492
 1143DOPS   D2A13410  11.227  34.907  13.532  0.0044 -0.2264  0.3074
 1143DOPS   C3A13411  11.009  34.800  13.862 -0.0635  0.0936 -0.2248
 1143DOPS   C4A13412  10.950  34.678  14.297 -0.0470 -0.0681 -0.2262
 1143DOPS   C1B13413  10.863  33.917  13.180 -0.1277 -0.2886 -0.1328
 1143DOPS   D2B13414  10.427  33.937  13.325 -0.1378 -0.2536 -0.3261
 1143DOPS   C3B13415  10.229  34.272  13.595  0.2824 -0.0648 -0.1712
 1143DOPS   C4B13416   9.967  34.332  14.012  0.1191  0.1992 -0.1021
 1144DOPE   NH313417  10.859  25.979  11.976  0.2862  0.2249 -0.0153
 1144DOPE   PO413418  10.721  25.747  12.157 -0.0527  0.1266  0.1811
 1144DOPE   GL113419  10.917  25.972  12.537 -0.0880  0.2673  0.3518
 1144DOPE   GL213420  11.161  25.759  12.558  0.1405  0.2449 -0.0882
 1144DOPE   C1A13421  10.743  26.022  12.996 -0.0561 -0.0362  0.1072
 1144DOPE   D2A13422  10.657  26.240  13.377  0.2436 -0.0008 -0.2012
 1144DOPE   C3A13423  10.781  25.941  13.665 -0.0332  0.0156 -0.1942
 1144DOPE   C4A13424  11.037  25.596  13.884  0.1148 -0.0780  0.3764
 1144DOPE   C1B13425  11.448  25.422  12.540  0.0375  0.0225 -0.1407
 1144DOPE   D2B13426  11.731  25.057  12.554 -0.0202  0.2007 -0.2162
 1144DOPE   C3B13427  11.748  24.585  12.637  0.1796 -0.1418 -0.3200
 1144DOPE   C4B13428  11.361  24.362  12.775  0.0177  0.0276 -0.1180
 1145DOPS   CNO13429   4.950  24.020  12.185  0.0702  0.1126 -0.0014
 1145DOPS   PO413430   4.941  24.106  12.560 -0.0291  0.3114  0.0788
 1145DOPS   GL113431   4.777  24.167  12.912 -0.2922  0.2110 -0.2144
 1145DOPS   GL213432   5.014  23.968  13.018 -0.1006  0.1564  0.0052
 1145DOPS   C1A13433   4.878  24.537  13.215 -0.0063 -0.0842 -0.0991
 1145DOPS   D2A13434   4.824  24.669  13.612  0.0483  0.0481 -0.5243
 1145DOPS   C3A13435   5.195  24.515  13.802 -0.1856  0.0884  0.0207
 1145DOPS   C4A13436   5.434  24.637  14.144 -0.1049 -0.2333  0.0166
 1145DOPS   C1B13437   5.397  23.766  13.270  0.2456 -0.1565  0.0846
 1145DOPS   D2B13438   5.842  23.661  13.266  0.0968 -0.1801  0.1385
 1145DOPS   C3B13439   5.930  23.474  13.650 -0.1050  0.3862  0.0876
 1145DOPS   C4B13440   5.914  23.337  14.114  0.1959  0.0269 -0.3728
 1146DOPS   CNO13441   9.526  24.433  11.806  0.0629 -0.1488  0.0424
 1146DOPS   PO413442   9.797  24.226  11.951 -0.3505  0.1281 -0.0226
 1146DOPS   GL113443  10.215  24.338  11.873 -0.0555  0.0497 -0.0662
 1146DOPS   GL213444  10.305  24.347  12.209  0.1632 -0.2185 -0.0512
 1146DOPS   C1A13445  10.566  24.162  11.712 -0.1342 -0.2506 -0.0317
 1146DOPS   D2A13446  10.858  24.035  12.095 -0.2977 -0.1437 -0.1864
 1146DOPS   C3A13447  10.963  24.308  12.499  0.0644  0.1041  0.1232
 1146DOPS   C4A13448  10.874  24.540  12.857  0.3017  0.1573 -0.1366
 1146DOPS   C1B13449  10.463  24.323  12.649 -0.2175  0.0772  0.0673
 1146DOPS   D2B13450  10.441  24.412  13.067  0.2577 -0.2202 -0.0802
 1146DOPS   C3B13451  10.756  24.624  13.338 -0.0917 -0.0106 -0.0193
 1146DOPS   C4B13452  10.953  24.700  13.702  0.1507 -0.1072  0.1449
 1147DOPC   NC313453   3.834  24.767  12.370  0.1257  0.2305  0.1007
 1147DOPC   PO413454   3.962  24.548  12.661  0.0354  0.0694 -0.0146
 1147DOPC   GL113455   4.050  24.767  13.030 -0.1145  0.3996  0.1014
 1147DOPC   GL213456   4.023  25.048  12.876 -0.4092 -0.4027  0.4780
 1147DOPC   C1A13457   3.907  24.897  13.429 -0.1295 -0.0515 -0.2752
 1147DOPC   D2A13458   3.811  24.943  13.877 -0.2283 -0.1294  0.5264
 1147DOPC   C3A13459   3.430  25.016  14.149  0.1044 -0.0649 -0.3473
 1147DOPC   C4A13460   3.088  25.331  14.149  0.1061 -0.0418 -0.1473
 1147DOPC   C1B13461   4.335  25.048  13.301  0.0734 -0.1720 -0.0870
 1147DOPC   D2B13462   4.337  24.828  13.711 -0.0742 -0.0542 -0.0042
 1147DOPC   C3B13463   4.262  25.046  14.132  0.0729  0.3406 -0.0112
 1147DOPC   C4B13464   3.877  25.233  14.310 -0.0625  0.1065  0.0024
 1148DOPC   NC313465   9.766  29.389  12.196 -0.0147 -0.1008 -0.2160
 1148DOPC   PO413466   9.646  29.752  12.296  0.1401  0.2250 -0.0326
 1148DOPC   GL113467   9.627  29.628  12.721 -0.0767  0.2285 -0.3785
 1148DOPC   GL213468   9.869  29.536  12.774  0.0531  0.0110 -0.4134
 1148DOPC   C1A13469   9.644  29.841  13.135 -0.2593 -0.2920 -0.2727
 1148DOPC   D2A13470   9.434  29.654  13.579  0.0548  0.3293  0.1203
 1148DOPC   C3A13471   9.275  29.986  13.857 -0.1556  0.0194 -0.0943
 1148DOPC   C4A13472   9.228  30.454  13.766  0.5621  0.0586 -0.2447
 1148DOPC   C1B13473  10.205  29.644  13.036 -0.0987 -0.0153 -0.1435
 1148DOPC   D2B13474  10.278  30.115  13.103  0.2284  0.3032  0.0386
 1148DOPC   C3B13475  10.046  30.298  13.431 -0.1998 -0.2194 -0.2646
 1148DOPC   C4B13476   9.836  30.522  13.773 -0.2222  0.3311  0.2488
 1149DOPE   NH313477   6.106  27.108  13.228  0.2223 -0.3142  0.2205
 1149DOPE   PO413478   6.102  26.858  13.025 -0.0397 -0.0368  0.1392
 1149DOPE   GL113479   6.068  26.597  13.297  0.2719 -0.0843  0.0418
 1149DOPE   GL213480   5.822  26.572  13.429  0.2557 -0.2691  0.1231
 1149DOPE   C1A13481   6.362  26.259  13.402  0.0158  0.1426 -0.1237
 1149DOPE   D2A13482   6.785  26.102  13.529 -0.3868 -0.1034  0.0132
 1149DOPE   C3A13483   6.931  26.251  13.916 -0.0005  0.2145  0.0090
 1149DOPE   C4A13484   7.052  26.388  14.331  0.2201 -0.0405  0.1215
 1149DOPE   C1B13485   6.031  26.854  13.689  0.0747  0.0853  0.2778
 1149DOPE   D2B13486   6.314  27.029  14.013  0.2680  0.0415 -0.0813
 1149DOPE   C3B13487   6.347  27.515  13.949  0.1304 -0.0195 -0.0382
 1149DOPE   C4B13488   6.318  27.961  14.114  0.1928  0.0420 -0.0481
 1150DOPC   NC313489  10.043  34.092  12.239 -0.1265  0.2226 -0.2999
 1150DOPC   PO413490  10.022  34.452  12.136 -0.3611  0.0802 -0.0290
 1150DOPC   GL113491   9.919  34.578  12.494 -0.0737  0.0719 -0.1381
 1150DOPC   GL213492  10.067  34.360  12.678 -0.2663  0.0834  0.0800
 1150DOPC   C1A13493   9.873  34.845  12.839 -0.2933 -0.2610  0.1751
 1150DOPC   D2A13494   9.701  34.930  13.249  0.3186  0.2807  0.0880
 1150DOPC   C3A13495   9.362  34.738  13.568 -0.0757 -0.0293  0.1630
 1150DOPC   C4A13496   9.267  34.933  13.977 -0.1292  0.1547  0.0463
 1150DOPC   C1B13497  10.101  33.934  12.783  0.0288  0.1062 -0.1361
 1150DOPC   D2B13498  10.504  33.666  12.921 -0.1280 -0.2070  0.1746
 1150DOPC   C3B13499  10.259  33.355  13.133 -0.0003 -0.0215 -0.2787
 1150DOPC   C4B13500   9.936  33.169  13.415 -0.0872  0.0183  0.1016
 1151POSM   NC313501   4.687  25.528  12.008  0.0281 -0.1609  0.2497
 1151POSM   PO413502   5.017  25.536  12.223  0.1337  0.0503  0.1067
 1151POSM   AM113503   5.122  25.570  12.527 -0.2762 -0.1175  0.0883
 1151POSM   AM213504   5.351  25.697  12.627  0.1604 -0.0769 -0.0874
 1151POSM   T1A13505   5.107  25.620  13.020 -0.0022 -0.2874  0.0329
 1151POSM   C2A13506   4.941  25.915  13.371 -0.0903 -0.1874  0.0440
 1151POSM   C3A13507   4.870  25.771  13.823 -0.2639 -0.0387 -0.1799
 1151POSM   C1B13508   5.723  25.703  12.650 -0.0300  0.0612  0.2255
 1151POSM   D2B13509   6.150  25.571  12.500 -0.0503 -0.0547 -0.2088
 1151POSM   C3B13510   6.148  25.223  12.817  0.0213  0.2253  0.1606
 1151POSM   C4B13511   6.104  24.782  12.681 -0.1061 -0.1542  0.3124
 1152DOPC   NC313512   2.284  31.395  12.970  0.1127 -0.0332 -0.0800
 1152DOPC   PO413513   2.476  31.114  13.139  0.2014  0.2305  0.0931
 1152DOPC   GL113514   2.619  31.190  13.489 -0.0490 -0.2607  0.1036
 1152DOPC   GL213515   2.593  31.475  13.572  0.2380  0.1549 -0.3652
 1152DOPC   C1A13516   2.995  31.082  13.764 -0.0325 -0.0404  0.2405
 1152DOPC   D2A13517   3.121  30.693  13.923  0.0763 -0.1341 -0.0254
 1152DOPC   C3A13518   2.906  30.622  14.313  0.2294 -0.3050  0.1901
 1152DOPC   C4A13519   2.751  30.493  14.744  0.2756  0.2461  0.2953
 1152DOPC   C1B13520   2.691  31.405  14.000 -0.3902 -0.0868  0.1094
 1152DOPC   D2B13521   2.913  31.189  14.336 -0.0710  0.0324  0.1931
 1152DOPC   C3B13522   2.946  31.315  14.759 -0.0521 -0.0553 -0.0400
 1152DOPC   C4B13523   3.018  31.112  15.244 -0.1037  0.0073  0.1752
 1153DOPC   NC313524   6.232  31.745  12.325 -0.2730  0.0463 -0.2264
 1153DOPC   PO413525   6.291  31.864  12.690  0.4618 -0.2861 -0.1882
 1153DOPC   GL113526   6.415  32.116  12.986 -0.3952  0.1443  0.1619
 1153DOPC   GL213527   6.558  32.088  13.228 -0.0177  0.2919  0.1095
 1153DOPC   C1A13528   6.193  32.443  13.233  0.1131 -0.2477  0.2156
 1153DOPC   D2A13529   5.961  32.471  13.697 -0.3052 -0.1366  0.1915
 1153DOPC   C3A13530   6.349  32.201  13.717 -0.0768  0.1172 -0.1535
 1153DOPC   C4A13531   6.317  31.756  13.661  0.1734  0.2014 -0.1797
 1153DOPC   C1B13532   6.780  31.906  13.565  0.2045  0.1598  0.0404
 1153DOPC   D2B13533   7.182  31.949  13.840 -0.3716 -0.0519  0.2705
 1153DOPC   C3B13534   7.607  31.945  13.561  0.2588  0.2186 -0.3842
 1153DOPC   C4B13535   8.040  32.066  13.413 -0.2275 -0.0644 -0.3057
 1154DOPE   NH313536   3.318  32.263  12.554 -0.0120  0.3368  0.0480
 1154DOPE   PO413537   3.152  32.249  12.829 -0.1202  0.1821 -0.0652
 1154DOPE   GL113538   3.237  32.377  13.248 -0.1073 -0.1955 -0.3853
 1154DOPE   GL213539   3.022  32.529  13.312  0.0508 -0.0300  0.1217
 1154DOPE   C1A13540   3.506  32.548  13.616 -0.0202  0.0297 -0.2341
 1154DOPE   D2A13541   3.909  32.794  13.629 -0.1725 -0.2137 -0.0744
 1154DOPE   C3A13542   4.062  32.969  14.003  0.1406  0.0615 -0.0004
 1154DOPE   C4A13543   3.974  32.985  14.468  0.0219 -0.1154 -0.2303
 1154DOPE   C1B13544   3.003  32.856  13.631  0.1789  0.1847  0.1279
 1154DOPE   D2B13545   2.875  33.006  14.046 -0.1734  0.0864  0.2142
 1154DOPE   C3B13546   2.800  33.484  14.166 -0.0344  0.0018  0.0406
 1154DOPE   C4B13547   2.755  33.980  14.094 -0.2510  0.2215 -0.0854
 1155DOPE   NH313548   1.168  34.028  12.676 -0.0738  0.2467 -0.1697
 1155DOPE   PO413549   1.074  34.354  12.658 -0.1162 -0.2148  0.2728
 1155DOPE   GL113550   1.350  34.268  12.991 -0.1112  0.6138  0.0047
 1155DOPE   GL213551   1.562  34.400  12.932 -0.1865  0.0411  0.0840
 1155DOPE   C1A13552   1.608  33.907  12.949  0.0582 -0.0626  0.0198
 1155DOPE   D2A13553   2.009  33.810  12.796 -0.0647 -0.0543  0.1753
 1155DOPE   C3A13554   2.357  33.966  13.135  0.0500  0.0167  0.0273
 1155DOPE   C4A13555   2.482  33.974  13.637 -0.1826  0.1364 -0.0150
 1155DOPE   C1B13556   1.853  34.197  13.271 -0.1364 -0.2131 -0.0824
 1155DOPE   D2B13557   1.569  34.078  13.641 -0.2121  0.1230 -0.0462
 1155DOPE   C3B13558   1.427  34.351  13.906 -0.0819  0.0016  0.2706
 1155DOPE   C4B13559   1.683  34.539  14.173  0.0286  0.1015  0.0754
 1156DOPC   NC313560  34.363  30.359  13.209  0.0732  0.2843 -0.2594
 1156DOPC   PO413561  34.008  30.245  13.058 -0.1494  0.1266  0.1398
 1156DOPC   GL113562  34.037  29.961  13.329 -0.0868 -0.0008  0.2093
 1156DOPC   GL213563  33.825  30.026  13.528  0.0222 -0.2495 -0.1002
 1156DOPC   C1A13564  34.388  29.995  13.680 -0.1801 -0.2951 -0.0646
 1156DOPC   D2A13565  34.572  30.348  13.917 -0.3535  0.2075  0.0126
 1156DOPC   C3A13566  34.715  30.226  14.313 -0.1106  0.1572 -0.0745
 1156DOPC   C4A13567  34.712  29.811  14.489  0.3319 -0.1953  0.1528
 1156DOPC   C1B13568  34.042  29.582  13.607 -0.3135 -0.0730 -0.1777
 1156DOPC   D2B13569  33.974  29.101  13.597  0.0881  0.0388  0.1534
 1156DOPC   C3B13570  33.659  28.781  13.463 -0.1547  0.0528 -0.1894
 1156DOPC   C4B13571  33.330  28.713  13.140  0.0138 -0.2373 -0.0504
 1157DOPE   NH313572   9.167  29.112  12.632  0.2950 -0.0068 -0.2104
 1157DOPE   PO413573   9.481  29.188  12.632  0.1771  0.1185  0.0039
 1157DOPE   GL113574   9.581  29.250  13.020  0.2585  0.5094  0.3148
 1157DOPE   GL213575   9.422  29.389  13.088  0.0433 -0.3317 -0.1955
 1157DOPE   C1A13576   9.856  29.398  13.356 -0.0416  0.2990  0.1610
 1157DOPE   D2A13577  10.116  29.752  13.540  0.1330 -0.0246  0.3648
 1157DOPE   C3A13578   9.745  29.998  13.681  0.0561  0.2346  0.1331
 1157DOPE   C4A13579   9.483  30.242  13.450 -0.0150 -0.2745 -0.1272
 1157DOPE   C1B13580   9.285  29.186  13.463  0.2969 -0.1017  0.2154
 1157DOPE   D2B13581   9.398  29.220  13.919 -0.0766  0.1351  0.0713
 1157DOPE   C3B13582   9.828  29.417  13.828 -0.0558 -0.1226  0.2405
 1157DOPE   C4B13583  10.101  29.675  14.086 -0.0486  0.1833  0.0802
 1158DOPS   CNO13584   7.254   0.173  12.327 -0.0586 -0.0222 -0.0672
 1158DOPS   PO413585   7.028  -0.131  12.241 -0.2515  0.3027 -0.0306
 1158DOPS   GL113586   6.731  -0.335  12.490  0.2601  0.0954  0.4317
 1158DOPS   GL213587   6.792  -0.222  12.755 -0.2580 -0.0672 -0.0373
 1158DOPS   C1A13588   6.759  -0.832  12.567  0.1275  0.1075  0.0199
 1158DOPS   D2A13589   6.536  -1.193  12.288  0.2453 -0.1308  0.0229
 1158DOPS   C3A13590   6.337  -1.514  12.592  0.0327  0.0486  0.0143
 1158DOPS   C4A13591   6.289  -1.929  12.830 -0.2007 -0.2056  0.1326
 1158DOPS   C1B13592   6.465  -0.521  12.897 -0.0862  0.3638 -0.0506
 1158DOPS   D2B13593   6.308  -0.776  13.278  0.0856  0.1856  0.0698
 1158DOPS   C3B13594   5.967  -0.748  13.626  0.0233 -0.2756 -0.1516
 1158DOPS   C4B13595   5.604  -0.832  13.922 -0.2576 -0.2594  0.1752
 1159DOPC   NC313596   2.879  34.676  12.431  0.1215 -0.0258  0.2008
 1159DOPC   PO413597   3.131  34.371  12.484  0.1314  0.0283  0.1115
 1159DOPC   GL113598   3.221  34.188  12.934  0.1153  0.0582 -0.2450
 1159DOPC   GL213599   3.016  34.405  12.974 -0.0082 -0.0759  0.2566
 1159DOPC   C1A13600   3.310  33.813  13.176 -0.0100  0.0115 -0.0295
 1159DOPC   D2A13601   3.498  33.680  13.564  0.1773 -0.1121 -0.2221
 1159DOPC   C3A13602   3.163  33.360  13.630 -0.0043  0.1693 -0.3934
 1159DOPC   C4A13603   2.695  33.408  13.705  0.1275 -0.0056 -0.0286
 1159DOPC   C1B13604   2.991  34.226  13.404 -0.3583  0.0087 -0.0942
 1159DOPC   D2B13605   3.001  33.916  13.711 -0.1368 -0.0664  0.0178
 1159DOPC   C3B13606   3.263  33.780  14.003  0.0156  0.0038  0.1307
 1159DOPC   C4B13607   3.545  33.785  14.285  0.0902 -0.2894 -0.0011
 1160POSM   NC313608   8.390  30.452  12.167 -0.3104  0.1400  0.0841
 1160POSM   PO413609   8.329  30.157  12.420  0.0763 -0.3617  0.4149
 1160POSM   AM113610   8.340  30.123  12.743  0.2262 -0.1081  0.0828
 1160POSM   AM213611   8.399  29.949  12.964  0.1181 -0.2207  0.0926
 1160POSM   T1A13612   8.453  30.461  13.090  0.0315 -0.0518  0.0358
 1160POSM   C2A13613   8.465  30.790  13.455  0.0887 -0.0502 -0.1227
 1160POSM   C3A13614   8.466  31.241  13.572  0.1279 -0.0465  0.0169
 1160POSM   C1B13615   8.654  30.033  13.166  0.0728 -0.0606 -0.0879
 1160POSM   D2B13616   8.748  30.341  13.529 -0.2044  0.1153  0.0285
 1160POSM   C3B13617   8.655  30.340  13.950  0.1730  0.1277  0.0067
 1160POSM   C4B13618   8.304  30.440  14.237 -0.3068 -0.2760  0.3836
 1161DOPC   NC313619   0.277  30.587  12.588  0.2777  0.1506  0.1213
 1161DOPC   PO413620   0.679  30.658  12.446 -0.1578 -0.0653 -0.1912
 1161DOPC   GL113621   0.750  30.325  12.578 -0.2024  0.1865 -0.3792
 1161DOPC   GL213622   0.705  30.152  12.894 -0.1238 -0.1609 -0.1508
 1161DOPC   C1A13623   1.118  30.021  12.413 -0.1119 -0.1563 -0.2659
 1161DOPC   D2A13624   1.611  29.908  12.460 -0.1810 -0.2236 -0.1872
 1161DOPC   C3A13625   1.701  29.888  12.924  0.1269  0.3168 -0.1621
 1161DOPC   C4A13626   1.595  30.134  13.299 -0.1054 -0.3996 -0.2193
 1161DOPC   C1B13627   1.098  29.903  12.975 -0.4031 -0.0405  0.0254
 1161DOPC   D2B13628   1.300  29.506  13.129 -0.3895 -0.3560 -0.3768
 1161DOPC   C3B13629   1.063  29.256  13.402 -0.3264 -0.3003 -0.3583
 1161DOPC   C4B13630   0.961  29.332  13.823 -0.1847 -0.0281  0.2205
 1162POSM   NC313631   5.632  31.067  12.427  0.2042  0.2471 -0.1152
 1162POSM   PO413632   5.248  31.212  12.504  0.0697 -0.3315 -0.1008
 1162POSM   AM113633   5.345  31.252  12.851 -0.1143  0.1057  0.1641
 1162POSM   AM213634   5.555  31.364  13.000 -0.2146 -0.3191  0.0252
 1162POSM   T1A13635   5.041  31.288  13.284  0.0099  0.1652  0.1690
 1162POSM   C2A13636   4.760  31.242  13.601 -0.2340  0.1453 -0.0156
 1162POSM   C3A13637   4.472  31.124  13.960  0.1508  0.2631  0.1474
 1162POSM   C1B13638   5.596  31.283  13.349  0.2249 -0.0364  0.3589
 1162POSM   D2B13639   5.747  31.308  13.754 -0.0254  0.0826  0.2079
 1162POSM   C3B13640   6.089  31.065  13.955  0.0052 -0.0560 -0.2821
 1162POSM   C4B13641   6.411  31.381  14.122  0.0236  0.0372 -0.0224
 1163DOPE   NH313642   2.752  29.111  12.901 -0.0725 -0.2344  0.1586
 1163DOPE   PO413643   2.708  29.345  12.657 -0.2877  0.0344  0.0842
 1163DOPE   GL113644   2.552  29.590  12.832  0.2855 -0.1653  0.0423
 1163DOPE   GL213645   2.577  29.614  13.070 -0.2603 -0.0304 -0.0173
 1163DOPE   C1A13646   2.217  29.950  12.697  0.2398 -0.3036  0.2368
 1163DOPE   D2A13647   2.239  30.355  12.968  0.2558 -0.2486 -0.1091
 1163DOPE   C3A13648   2.507  30.107  13.249  0.0068  0.0232  0.2631
 1163DOPE   C4A13649   2.479  29.767  13.574 -0.0213 -0.2351  0.0022
 1163DOPE   C1B13650   2.739  29.414  13.447  0.1288 -0.3100 -0.1737
 1163DOPE   D2B13651   2.643  29.371  13.894  0.3882  0.0467  0.0414
 1163DOPE   C3B13652   2.442  29.478  14.330  0.0761 -0.0998 -0.1551
 1163DOPE   C4B13653   2.088  29.460  14.588  0.2986  0.2866  0.2565
 1164DOPE   NH313654   9.208  29.910  12.497 -0.0525 -0.0570 -0.1738
 1164DOPE   PO413655   9.205  29.613  12.577  0.1036 -0.1896  0.2147
 1164DOPE   GL113656   9.128  29.769  12.944  0.0308 -0.1564  0.0274
 1164DOPE   GL213657   9.233  30.011  12.974 -0.1533  0.0567  0.2923
 1164DOPE   C1A13658   9.011  29.531  13.264 -0.1880 -0.6060  0.1971
 1164DOPE   D2A13659   8.916  29.405  13.758  0.0502 -0.1950 -0.1234
 1164DOPE   C3A13660   8.915  28.989  14.046 -0.1139  0.0055  0.0879
 1164DOPE   C4A13661   8.925  28.557  14.229 -0.0147  0.2497  0.2052
 1164DOPE   C1B13662   9.035  29.980  13.438 -0.0789  0.0511 -0.0770
 1164DOPE   D2B13663   8.625  29.815  13.665  0.0249 -0.1517  0.3117
 1164DOPE   C3B13664   8.798  29.778  14.129  0.2220 -0.1165 -0.1923
 1164DOPE   C4B13665   9.125  29.500  14.269 -0.1299  0.0483  0.1808
 1165DOPS   CNO13666   7.067  22.340  12.220  0.1499 -0.0444  0.3090
 1165DOPS   PO413667   7.077  22.471  12.586 -0.4189 -0.0457  0.0700
 1165DOPS   GL113668   6.896  22.600  12.883  0.0050  0.4404 -0.0221
 1165DOPS   GL213669   6.990  22.875  12.839  0.1717  0.0699  0.1761
 1165DOPS   C1A13670   7.247  22.555  13.194  0.0918  0.2007  0.2059
 1165DOPS   D2A13671   7.567  22.588  13.476  0.2156 -0.3722 -0.2755
 1165DOPS   C3A13672   7.373  22.339  13.915 -0.1526  0.0158  0.0356
 1165DOPS   C4A13673   7.311  22.048  14.283 -0.0914  0.0474 -0.0515
 1165DOPS   C1B13674   7.212  23.028  13.174  0.0984  0.0148 -0.0894
 1165DOPS   D2B13675   7.472  23.272  13.560  0.7269  0.1932 -0.0965
 1165DOPS   C3B13676   7.330  23.310  13.985 -0.2694 -0.2593  0.0588
 1165DOPS   C4B13677   7.414  23.426  14.427 -0.0422 -0.1461  0.0365
 1166DOPE   NH313678   1.187  22.750  12.800  0.0817  0.2344 -0.0819
 1166DOPE   PO413679   1.158  22.874  12.516 -0.1932 -0.0246  0.0711
 1166DOPE   GL113680   1.164  23.291  12.631 -0.3583  0.0881  0.0238
 1166DOPE   GL213681   1.323  23.224  12.899  0.4192  0.0968 -0.0210
 1166DOPE   C1A13682   0.945  23.736  12.604 -0.1070 -0.2814  0.1676
 1166DOPE   D2A13683   0.738  23.915  12.933 -0.0013 -0.1107 -0.2070
 1166DOPE   C3A13684   0.791  24.251  13.303  0.1294 -0.0196 -0.1058
 1166DOPE   C4A13685   1.104  24.305  13.580 -0.4147  0.0250 -0.1402
 1166DOPE   C1B13686   1.330  23.704  12.939  0.1134  0.3075  0.0324
 1166DOPE   D2B13687   1.324  24.078  13.175 -0.0584 -0.0477  0.0634
 1166DOPE   C3B13688   1.604  24.346  13.040  0.1470 -0.0929 -0.0335
 1166DOPE   C4B13689   1.600  24.670  12.703  0.1985  0.0981  0.0499
 1167DOPE   NH313690   9.368  24.075  12.200  0.0511 -0.0851  0.1626
 1167DOPE   PO413691   9.430  24.186  12.484  0.3167 -0.1329  0.0345
 1167DOPE   GL113692   9.147  24.241  12.721 -0.2327  0.1281  0.1424
 1167DOPE   GL213693   8.901  24.370  12.586  0.0461 -0.1074  0.1175
 1167DOPE   C1A13694   9.157  24.348  13.158  0.0033  0.1827 -0.0113
 1167DOPE   D2A13695   9.055  24.551  13.575 -0.0371 -0.1307 -0.1608
 1167DOPE   C3A13696   9.387  24.507  13.990  0.0162  0.2205  0.1714
 1167DOPE   C4A13697   9.777  24.522  14.238  0.0555 -0.0969  0.0979
 1167DOPE   C1B13698   8.740  24.240  12.971 -0.0187 -0.3384 -0.4714
 1167DOPE   D2B13699   8.682  24.320  13.391  0.3821  0.1931  0.0254
 1167DOPE   C3B13700   8.799  24.203  13.796 -0.0920 -0.0444  0.0954
 1167DOPE   C4B13701   9.128  24.021  14.135  0.1416 -0.1466  0.1850
 1168POSM   NC313702  10.846  31.608  12.266  0.1489  0.0266 -0.1835
 1168POSM   PO413703  10.677  31.674  11.908 -0.0616  0.0058  0.2305
 1168POSM   AM113704  10.433  31.766  12.115 -0.0262  0.0481  0.1334
 1168POSM   AM213705  10.211  31.934  12.212 -0.2548  0.1954  0.0947
 1168POSM   T1A13706  10.445  31.800  12.640 -0.1863  0.0666  0.2130
 1168POSM   C2A13707  10.176  31.973  13.000  0.1212  0.2969 -0.1714
 1168POSM   C3A13708   9.863  32.179  13.267 -0.1458  0.0019  0.2151
 1168POSM   C1B13709  10.146  32.218  12.452  0.2812 -0.3045  0.0010
 1168POSM   D2B13710  10.170  32.451  12.785 -0.1353 -0.0910  0.0210
 1168POSM   C3B13711  10.459  32.670  12.510 -0.0233 -0.2618  0.0889
 1168POSM   C4B13712  10.794  32.842  12.291 -0.0836 -0.3906 -0.0358
 1169DOPC   NC313713  10.019  30.206  12.100 -0.1286 -0.0444  0.2826
 1169DOPC   PO413714   9.875  30.590  12.073  0.1350 -0.2153  0.0672
 1169DOPC   GL113715  10.100  30.870  12.299  0.3711  0.2218 -0.1924
 1169DOPC   GL213716  10.387  30.874  12.263 -0.3352 -0.2349 -0.1930
 1169DOPC   C1A13717  10.131  31.059  12.735 -0.0052 -0.1839 -0.0157
 1169DOPC   D2A13718  10.132  31.480  12.939  0.2944 -0.1348  0.3128
 1169DOPC   C3A13719  10.322  31.401  13.384  0.0313 -0.1652 -0.1269
 1169DOPC   C4A13720  10.032  31.532  13.797 -0.1364 -0.1431 -0.0529
 1169DOPC   C1B13721  10.791  30.967  12.304 -0.0294 -0.1757 -0.5287
 1169DOPC   D2B13722  11.203  31.069  12.426 -0.2017  0.0260 -0.0594
 1169DOPC   C3B13723  11.410  31.364  12.721  0.3119  0.0401 -0.0056
 1169DOPC   C4B13724  11.803  31.601  12.880  0.0691 -0.0162  0.1704
 1170DOPC   NC313725   4.978  23.298  12.524 -0.1561  0.3477 -0.2698
 1170DOPC   PO413726   4.823  23.565  12.773 -0.3173  0.2180  0.0095
 1170DOPC   GL113727   4.548  23.671  12.981 -0.1833 -0.5202  0.0068
 1170DOPC   GL213728   4.324  23.609  12.868  0.0279 -0.3278 -0.4377
 1170DOPC   C1A13729   4.686  23.598  13.384  0.0126  0.1083  0.0479
 1170DOPC   D2A13730   4.747  23.486  13.815  0.0437 -0.0980  0.1348
 1170DOPC   C3A13731   4.954  23.483  14.224  0.3076 -0.1916 -0.1639
 1170DOPC   C4A13732   4.982  23.599  14.646  0.1387  0.0112  0.2200
 1170DOPC   C1B13733   4.225  23.341  13.205  0.1725 -0.1596 -0.1156
 1170DOPC   D2B13734   4.189  22.930  13.347 -0.1431  0.0123 -0.1272
 1170DOPC   C3B13735   3.781  22.669  13.462  0.0358  0.2618  0.2100
 1170DOPC   C4B13736   3.557  22.326  13.659  0.1629 -0.1558 -0.0777
 1171DOPE   NH313737   3.818  24.170  12.274  0.4485  0.2583 -0.2111
 1171DOPE   PO413738   4.072  23.986  12.290  0.1550  0.2147  0.1539
 1171DOPE   GL113739   4.057  23.998  12.808  0.3770  0.3556 -0.0271
 1171DOPE   GL213740   3.781  24.064  12.885 -0.1989 -0.0837  0.1273
 1171DOPE   C1A13741   4.068  23.892  13.265 -0.4361  0.0671 -0.2154
 1171DOPE   D2A13742   3.932  23.931  13.720  0.3894  0.2019 -0.0734
 1171DOPE   C3A13743   3.792  23.556  13.963 -0.0740  0.0305  0.0286
 1171DOPE   C4A13744   3.404  23.320  13.932  0.2273  0.2887 -0.0039
 1171DOPE   C1B13745   3.742  24.324  13.287 -0.2197 -0.3897  0.0888
 1171DOPE   D2B13746   3.880  24.441  13.681  0.0846  0.1609 -0.1039
 1171DOPE   C3B13747   4.056  24.535  14.100 -0.0108  0.2526 -0.1201
 1171DOPE   C4B13748   3.840  24.735  14.426  0.0419  0.1492 -0.0178
 1172DOPE   NH313749   7.088  26.970  12.309  0.2455  0.1237 -0.3847
 1172DOPE   PO413750   7.368  27.086  12.433  0.2095  0.4568  0.1026
 1172DOPE   GL113751   7.610  27.006  12.726  0.0649 -0.0352  0.1617
 1172DOPE   GL213752   7.882  26.981  12.577  0.1892 -0.4022  0.2052
 1172DOPE   C1A13753   7.864  26.740  13.040  0.0579 -0.2541  0.2163
 1172DOPE   D2A13754   8.033  26.571  13.389  0.0522 -0.4059 -0.1488
 1172DOPE   C3A13755   7.910  26.531  13.852  0.0328 -0.3538 -0.1215
 1172DOPE   C4A13756   8.133  26.645  14.264 -0.3402  0.0023  0.0329
 1172DOPE   C1B13757   8.174  27.162  12.876  0.1832  0.1212  0.1266
 1172DOPE   D2B13758   8.351  26.966  13.239 -0.0726 -0.1312 -0.0890
 1172DOPE   C3B13759   8.721  26.963  13.559  0.0454  0.2830  0.0289
 1172DOPE   C4B13760   9.173  27.014  13.701 -0.0574 -0.1954  0.0376
 1173POSM   NC313761   5.295  23.513  12.869 -0.1934  0.2557  0.2541
 1173POSM   PO413762   5.274  23.677  12.540  0.1158 -0.2967  0.0243
 1173POSM   AM113763   5.484  23.920  12.673 -0.1027 -0.3471  0.3322
 1173POSM   AM213764   5.503  24.017  12.905 -0.1062 -0.2640  0.2757
 1173POSM   T1A13765   5.885  24.263  12.665  0.3455  0.0782 -0.1554
 1173POSM   C2A13766   6.310  24.355  12.337 -0.1059 -0.0363  0.0806
 1173POSM   C3A13767   6.398  24.784  12.120 -0.3404 -0.2416 -0.3590
 1173POSM   C1B13768   5.723  24.099  13.170  0.1167 -0.4051  0.3264
 1173POSM   D2B13769   5.682  24.083  13.620 -0.1484 -0.0180 -0.0511
 1173POSM   C3B13770   5.318  24.004  13.884 -0.2127 -0.1054  0.0397
 1173POSM   C4B13771   5.029  24.048  14.252 -0.0172 -0.0232 -0.0168
 1174POSM   NC313772   7.628  27.531  12.450 -0.0152 -0.3574  0.2315
 1174POSM   PO413773   7.534  27.774  12.716  0.1421  0.1463  0.2592
 1174POSM   AM113774   7.504  27.808  13.052 -0.4212 -0.1674  0.4197
 1174POSM   AM213775   7.339  28.032  13.124 -0.0311  0.0203  0.1713
 1174POSM   T1A13776   7.504  27.708  13.525 -0.3429 -0.0481 -0.1632
 1174POSM   C2A13777   7.830  27.570  13.810 -0.2696 -0.2104 -0.0993
 1174POSM   C3A13778   8.232  27.756  13.928 -0.0220 -0.1785  0.1468
 1174POSM   C1B13779   7.357  28.137  13.407 -0.1567  0.0087 -0.2189
 1174POSM   D2B13780   7.213  28.049  13.876  0.2882  0.0852  0.2955
 1174POSM   C3B13781   7.291  27.630  13.984  0.1720 -0.1294  0.0995
 1174POSM   C4B13782   7.330  27.205  14.059  0.0499 -0.3375  0.0999
 1175POSM   NC313783   0.846  32.522  12.291 -0.0650  0.3252  0.2162
 1175POSM   PO413784   0.776  32.103  12.326 -0.0597  0.0285  0.2633
 1175POSM   AM113785   0.970  32.162  12.590  0.2222 -0.1821  0.0614
 1175POSM   AM213786   1.038  32.273  12.865 -0.1411 -0.0492  0.0919
 1175POSM   T1A13787   1.441  32.025  12.650 -0.1094 -0.2349 -0.1034
 1175POSM   C2A13788   1.830  31.829  12.721  0.0588  0.1984 -0.1412
 1175POSM   C3A13789   2.108  31.514  12.491 -0.0134  0.2206 -0.0790
 1175POSM   C1B13790   0.969  32.180  13.179 -0.3128 -0.0394  0.0238
 1175POSM   D2B13791   1.178  32.008  13.596  0.0135  0.1945  0.2018
 1175POSM   C3B13792   1.170  31.707  13.911 -0.0858  0.2237  0.1200
 1175POSM   C4B13793   1.083  31.234  13.882 -0.0354 -0.1058 -0.0896
 1176POSM   NC313794   9.968  27.352  12.798 -0.0249 -0.3063  0.1634
 1176POSM   PO413795   9.689  27.401  12.498  0.1888 -0.1161  0.0336
 1176POSM   AM113796   9.428  27.189  12.439  0.0266 -0.1792  0.4886
 1176POSM   AM213797   9.274  27.086  12.643  0.1619  0.2784  0.2605
 1176POSM   T1A13798   8.944  27.084  12.261 -0.3352 -0.2724  0.3766
 1176POSM   C2A13799   8.753  27.464  11.961  0.1295  0.2439  0.3189
 1176POSM   C3A13800   8.604  27.908  11.892 -0.2310 -0.0392  0.4074
 1176POSM   C1B13801   9.371  26.879  12.945  0.3511 -0.3317  0.1063
 1176POSM   D2B13802   9.517  26.556  13.231 -0.0051  0.0655  0.0230
 1176POSM   C3B13803   9.442  26.485  13.679 -0.0540  0.0900 -0.1086
 1176POSM   C4B13804   9.586  26.678  14.093 -0.0475 -0.1948  0.1269
 1177DOPC   NC313805   2.898  29.994  12.562  0.1518  0.0581 -0.0083
 1177DOPC   PO413806   3.040  29.687  12.798 -0.0866 -0.2485 -0.3123
 1177DOPC   GL113807   3.308  29.735  13.115 -0.1662  0.1320  0.1676
 1177DOPC   GL213808   3.295  29.415  13.122 -0.0812  0.0463  0.2248
 1177DOPC   C1A13809   3.462  29.720  13.516 -0.2638  0.0299  0.0249
 1177DOPC   D2A13810   3.690  29.563  13.887  0.2094 -0.3558 -0.3577
 1177DOPC   C3A13811   3.644  29.275  14.237 -0.1691 -0.0622 -0.0205
 1177DOPC   C4A13812   3.314  28.926  14.364 -0.0887  0.1715 -0.1395
 1177DOPC   C1B13813   3.427  29.126  13.483  0.0629  0.1755  0.1812
 1177DOPC   D2B13814   3.453  28.945  13.908 -0.0510  0.6053  0.1805
 1177DOPC   C3B13815   3.856  28.823  14.078  0.0570  0.3014 -0.0788
 1177DOPC   C4B13816   4.027  28.824  14.488 -0.0951  0.2229 -0.0379
 1178DOPC   NC313817   8.737  24.759  12.327  0.1742 -0.0642 -0.0239
 1178DOPC   PO413818   9.141  24.699  12.267  0.0163 -0.0333  0.1238
 1178DOPC   GL113819   9.168  24.802  12.654 -0.0377 -0.0392  0.3270
 1178DOPC   GL213820   9.374  24.615  12.789 -0.4054 -0.2245  0.1980
 1178DOPC   C1A13821   8.816  24.706  12.960  0.0216  0.1857 -0.4501
 1178DOPC   D2A13822   8.674  24.810  13.431 -0.1829 -0.0485 -0.0988
 1178DOPC   C3A13823   8.538  24.620  13.829  0.3379  0.1773  0.3990
 1178DOPC   C4A13824   8.374  24.792  14.245  0.0838  0.2259  0.1687
 1178DOPC   C1B13825   9.611  24.934  13.050  0.2097  0.0932  0.3444
 1178DOPC   D2B13826   9.575  25.212  13.422  0.2182 -0.2173 -0.1940
 1178DOPC   C3B13827   9.656  25.383  13.807  0.3888  0.1862  0.2662
 1178DOPC   C4B13828  10.071  25.463  13.955 -0.0537  0.0474 -0.2503
 1179DOPE   NH313829   7.348  30.616  12.376  0.0790  0.1122 -0.0806
 1179DOPE   PO413830   7.576  30.650  12.573  0.3349 -0.3318  0.0670
 1179DOPE   GL113831   7.810  30.509  12.782 -0.1783 -0.0752 -0.2322
 1179DOPE   GL213832   8.139  30.593  12.727 -0.0208 -0.2458 -0.2594
 1179DOPE   C1A13833   8.032  30.224  13.098  0.2160 -0.1582 -0.1434
 1179DOPE   D2A13834   8.290  30.218  13.492 -0.0984  0.3166  0.1337
 1179DOPE   C3A13835   8.135  29.869  13.846  0.0159 -0.0982 -0.4190
 1179DOPE   C4A13836   8.310  29.767  14.278 -0.0004 -0.4032 -0.1998
 1179DOPE   C1B13837   8.136  30.862  13.071 -0.0972  0.3256 -0.3257
 1179DOPE   D2B13838   7.990  30.992  13.470 -0.2574 -0.1491  0.2381
 1179DOPE   C3B13839   7.609  30.990  13.777  0.2664 -0.0682  0.2973
 1179DOPE   C4B13840   7.267  31.104  14.078  0.1086 -0.3540 -0.0611
 1180DOPC   NC313841   6.801  29.982  12.556 -0.2240  0.2468 -0.0610
 1180DOPC   PO413842   7.007  30.290  12.470 -0.1810 -0.0392 -0.1633
 1180DOPC   GL113843   7.432  30.165  12.713 -0.0680  0.0654  0.0616
 1180DOPC   GL213844   7.455  30.203  13.050 -0.0754  0.1029 -0.1937
 1180DOPC   C1A13845   7.507  29.701  12.870  0.1482 -0.0732 -0.0478
 1180DOPC   D2A13846   7.659  29.331  13.080 -0.2359  0.0376  0.0859
 1180DOPC   C3A13847   7.911  29.124  13.386  0.1709  0.0097 -0.1831
 1180DOPC   C4A13848   8.196  28.909  13.743  0.1248  0.0438  0.0896
 1180DOPC   C1B13849   7.242  30.318  13.486 -0.0856  0.1583 -0.1098
 1180DOPC   D2B13850   7.350  30.545  13.894  0.2878 -0.1776  0.0048
 1180DOPC   C3B13851   7.497  30.671  14.335 -0.0108  0.0141 -0.0469
 1180DOPC   C4B13852   7.352  30.560  14.801  0.2473  0.1260  0.0171
 1181DOPC   NC313853   9.445  30.659  12.083 -0.1558  0.2324 -0.1197
 1181DOPC   PO413854   9.539  30.368  12.359 -0.1197 -0.2035  0.0135
 1181DOPC   GL113855   9.391  30.723  12.518  0.1103  0.0541  0.0140
 1181DOPC   GL213856   9.719  30.849  12.523 -0.1839  0.5113  0.0750
 1181DOPC   C1A13857   9.081  31.073  12.511  0.0327 -0.1824  0.1921
 1181DOPC   D2A13858   8.842  31.451  12.475  0.0316 -0.0457  0.1012
 1181DOPC   C3A13859   8.994  31.683  12.098 -0.5769  0.0948 -0.0386
 1181DOPC   C4A13860   8.880  32.039  11.819  0.3470  0.0925 -0.0493
 1181DOPC   C1B13861   9.523  31.179  12.742 -0.1103  0.3209 -0.4421
 1181DOPC   D2B13862   9.641  31.584  12.933  0.0903 -0.1081  0.0281
 1181DOPC   C3B13863   9.407  31.918  13.001 -0.0538  0.0884  0.2024
 1181DOPC   C4B13864   9.386  32.339  13.194 -0.1540 -0.0366  0.1585
 1182DOPS   CNO13865   8.219   0.148  12.009  0.2753 -0.0110 -0.0378
 1182DOPS   PO413866   8.241  -0.116  12.295 -0.2608  0.2100  0.3391
 1182DOPS   GL113867   8.472  -0.220  12.629  0.5626  0.3068  0.4823
 1182DOPS   GL213868   8.284  -0.419  12.789  0.2679 -0.0064 -0.1837
 1182DOPS   C1A13869   8.530   0.061  12.958 -0.0431  0.0166 -0.2395
 1182DOPS   D2A13870   8.522   0.489  12.961 -0.1342 -0.0013  0.0980
 1182DOPS   C3A13871   8.227   0.717  13.220 -0.2577  0.1807 -0.0005
 1182DOPS   C4A13872   8.292   1.140  13.436 -0.0236 -0.0119 -0.0967
 1182DOPS   C1B13873   8.489  -0.775  12.937  0.1734 -0.6801 -0.2093
 1182DOPS   D2B13874   8.681  -1.156  12.966  0.0116  0.2357 -0.1340
 1182DOPS   C3B13875   8.560  -1.598  13.052  0.1226  0.2280 -0.1807
 1182DOPS   C4B13876   8.150  -1.858  13.030  0.1673 -0.0108 -0.1288
 1183POSM   NC313877  10.086  28.213  12.389  0.0970  0.2931 -0.0411
 1183POSM   PO413878   9.896  28.521  12.524  0.3369  0.0953 -0.0506
 1183POSM   AM113879   9.966  28.423  12.814  0.1474 -0.0676 -0.1396
 1183POSM   AM213880  10.076  28.177  12.945  0.1656  0.1935 -0.1441
 1183POSM   T1A13881  10.136  28.580  13.258  0.3922 -0.0447 -0.0692
 1183POSM   C2A13882  10.460  28.931  13.328 -0.1770  0.2437 -0.1500
 1183POSM   C3A13883  10.426  29.373  13.401 -0.2529  0.1404  0.0917
 1183POSM   C1B13884  10.374  28.239  12.887 -0.0346 -0.0900  0.1943
 1183POSM   D2B13885  10.769  28.389  12.753 -0.3039 -0.0760 -0.4127
 1183POSM   C3B13886  10.915  28.591  13.118  0.3399  0.1428  0.2150
 1183POSM   C4B13887  10.850  28.628  13.572  0.1246 -0.2272 -0.0776
 1184DOPS   CNO13888   7.038  31.454  12.764  0.0821 -0.1427  0.0118
 1184DOPS   PO413889   6.846  31.782  12.693 -0.1219  0.2787  0.0074
 1184DOPS   GL113890   7.188  31.996  12.722 -0.0177 -0.1486 -0.3172
 1184DOPS   GL213891   7.104  32.146  12.908 -0.4275  0.1315 -0.2248
 1184DOPS   C1A13892   7.634  32.177  12.601 -0.4106  0.0767  0.1281
 1184DOPS   D2A13893   7.927  31.866  12.444  0.3743  0.0344 -0.0957
 1184DOPS   C3A13894   7.782  31.814  11.977  0.2305 -0.1621 -0.1395
 1184DOPS   C4A13895   7.492  31.531  11.797  0.0874  0.0065 -0.1956
 1184DOPS   C1B13896   6.998  32.499  13.096 -0.0094 -0.2449  0.1180
 1184DOPS   D2B13897   7.144  32.753  13.424 -0.1505  0.2297 -0.0678
 1184DOPS   C3B13898   7.375  32.497  13.767  0.0908  0.2186  0.1006
 1184DOPS   C4B13899   7.771  32.381  13.771  0.1163  0.1927  0.0445
 1185POSM   NC313900   2.593  28.436  13.035 -0.1466 -0.1464  0.1247
 1185POSM   PO413901   2.423  28.743  12.870 -0.0787 -0.0416  0.3712
 1185POSM   AM113902   2.314  28.826  13.203 -0.4679  0.2142  0.3544
 1185POSM   AM213903   2.181  29.082  13.301 -0.0548  0.1076 -0.3299
 1185POSM   T1A13904   1.999  28.664  13.572  0.2267 -0.1015  0.0813
 1185POSM   C2A13905   1.652  28.427  13.725  0.0750 -0.0831 -0.0088
 1185POSM   C3A13906   1.256  28.440  14.026 -0.1620  0.2793  0.0538
 1185POSM   C1B13907   2.175  29.336  13.543  0.1135 -0.1848 -0.0126
 1185POSM   D2B13908   2.098  29.460  13.950  0.1654  0.4377 -0.0379
 1185POSM   C3B13909   1.858  29.149  14.137  0.0679 -0.0747 -0.1291
 1185POSM   C4B13910   1.546  28.816  14.000  0.0219  0.0148 -0.0378
 1186DOPC   NC313911   3.455  31.710  13.345  0.0523  0.1603 -0.0736
 1186DOPC   PO413912   3.778  31.576  13.158 -0.1062 -0.0718  0.3380
 1186DOPC   GL113913   4.028  31.785  13.400  0.2179  0.0257 -0.1149
 1186DOPC   GL213914   3.873  31.728  13.645  0.4330  0.0018 -0.0629
 1186DOPC   C1A13915   4.433  31.941  13.641 -0.1787  0.0465  0.1594
 1186DOPC   D2A13916   4.662  32.072  14.037 -0.3904  0.0275  0.3369
 1186DOPC   C3A13917   4.885  32.415  13.832  0.0884  0.2013 -0.0456
 1186DOPC   C4A13918   5.301  32.594  13.712  0.0679  0.2074 -0.0312
 1186DOPC   C1B13919   3.590  31.926  13.968 -0.2601 -0.1436 -0.3287
 1186DOPC   D2B13920   3.107  31.996  14.160  0.2262 -0.3401  0.0922
 1186DOPC   C3B13921   2.840  31.835  13.799 -0.1198  0.4377 -0.0973
 1186DOPC   C4B13922   3.055  31.547  13.545 -0.1315 -0.3698 -0.1187
 1187DOPC   NC313923   8.977  28.629  12.687 -0.0056 -0.1562 -0.0701
 1187DOPC   PO413924   8.637  28.502  12.500 -0.0249  0.2313 -0.2244
 1187DOPC   GL113925   8.575  28.491  12.866  0.0425  0.0804 -0.0889
 1187DOPC   GL213926   8.394  28.250  12.901 -0.5636 -0.0739  0.2391
 1187DOPC   C1A13927   8.549  28.476  13.349 -0.4873 -0.0722  0.0050
 1187DOPC   D2A13928   8.465  28.310  13.730 -0.0752 -0.0961  0.0226
 1187DOPC   C3A13929   8.074  28.476  13.927  0.0488 -0.0352 -0.2314
 1187DOPC   C4A13930   7.860  28.781  14.197 -0.3335  0.1314  0.0274
 1187DOPC   C1B13931   8.396  27.982  13.326  0.0198  0.3905 -0.2898
 1187DOPC   D2B13932   8.688  27.833  13.705  0.0288 -0.1724 -0.0736
 1187DOPC   C3B13933   9.008  27.588  13.584 -0.0330 -0.1162 -0.0620
 1187DOPC   C4B13934   9.114  27.306  13.284  0.0031  0.2120 -0.3138
 1188DOPC   NC313935   2.360  23.262  12.525  0.1362  0.1180  0.0865
 1188DOPC   PO413936   2.135  23.605  12.490 -0.0263  0.0455 -0.0242
 1188DOPC   GL113937   1.993  23.746  12.847  0.1550  0.3057  0.4397
 1188DOPC   GL213938   2.187  23.624  13.060  0.1001  0.1659  0.1005
 1188DOPC   C1A13939   1.795  23.937  13.245 -0.1281 -0.1736 -0.2102
 1188DOPC   D2A13940   1.985  24.168  13.606 -0.0946 -0.3586 -0.0655
 1188DOPC   C3A13941   1.716  24.490  13.590  0.1362  0.0634 -0.2929
 1188DOPC   C4A13942   1.371  24.754  13.764  0.0226  0.0948  0.1457
 1188DOPC   C1B13943   2.360  23.918  13.421 -0.1860  0.2612  0.6271
 1188DOPC   D2B13944   2.552  24.342  13.421 -0.0781 -0.0497 -0.2921
 1188DOPC   C3B13945   2.965  24.492  13.528 -0.0220 -0.3702  0.1843
 1188DOPC   C4B13946   3.050  24.240  13.896  0.2714  0.1777  0.0923
 1189POSM   NC313947   8.772  33.820  12.495 -0.2364  0.0932 -0.4907
 1189POSM   PO413948   8.477  34.041  12.380 -0.1056  0.2244  0.4318
 1189POSM   AM113949   8.277  33.810  12.428 -0.0505  0.5436 -0.1861
 1189POSM   AM213950   7.986  33.765  12.403  0.0205 -0.0480  0.1981
 1189POSM   T1A13951   8.187  33.507  12.758  0.2876  0.0278  0.3117
 1189POSM   C2A13952   8.197  33.488  13.193  0.0810 -0.1500 -0.2180
 1189POSM   C3A13953   8.273  33.651  13.709  0.1247 -0.2009  0.0142
 1189POSM   C1B13954   7.933  33.433  12.252  0.1528 -0.2735  0.1328
 1189POSM   D2B13955   7.774  33.089  11.940  0.0298  0.2992 -0.1416
 1189POSM   C3B13956   7.477  32.811  12.145  0.1265 -0.0832 -0.3626
 1189POSM   C4B13957   7.498  32.682  12.622 -0.2642  0.1354 -0.2498
 1190POSM   NC313958   3.010  26.751  12.264 -0.1910 -0.1479  0.0033
 1190POSM   PO413959   2.643  26.941  12.305  0.0770  0.1585 -0.3725
 1190POSM   AM113960   2.692  26.805  12.615  0.0352  0.1726 -0.1727
 1190POSM   AM213961   2.686  26.839  12.899 -0.2397  0.1435  0.1824
 1190POSM   T1A13962   2.742  26.358  12.788  0.0033 -0.0287  0.0921
 1190POSM   C2A13963   2.582  25.940  13.039 -0.1395  0.4490  0.0404
 1190POSM   C3A13964   2.709  25.670  13.457 -0.0244  0.1637  0.2147
 1190POSM   C1B13965   2.758  26.739  13.237 -0.0615  0.1346 -0.0955
 1190POSM   D2B13966   2.980  26.527  13.569  0.3749 -0.4036  0.0759
 1190POSM   C3B13967   3.397  26.629  13.753 -0.1691 -0.4248 -0.1145
 1190POSM   C4B13968   3.503  26.724  14.216 -0.0169 -0.0787 -0.3081
 1191DOPE   NH313969   6.025  27.188  12.544  0.0756 -0.1491 -0.0934
 1191DOPE   PO413970   6.195  27.404  12.416  0.1415 -0.4480  0.1115
 1191DOPE   GL113971   6.183  27.637  12.815 -0.0210  0.1205  0.0701
 1191DOPE   GL213972   5.980  27.491  12.969  0.5069 -0.0761 -0.2490
 1191DOPE   C1A13973   5.984  27.985  13.093  0.0165 -0.1805  0.1772
 1191DOPE   D2A13974   5.673  28.352  13.154 -0.0223 -0.1234 -0.0228
 1191DOPE   C3A13975   5.483  28.452  13.514 -0.2339  0.2883  0.3524
 1191DOPE   C4A13976   5.051  28.370  13.714 -0.2690  0.1761  0.3134
 1191DOPE   C1B13977   5.924  27.624  13.411 -0.2234 -0.0471  0.2777
 1191DOPE   D2B13978   5.954  27.833  13.838  0.1542 -0.1113 -0.1723
 1191DOPE   C3B13979   5.806  27.846  14.286 -0.0118 -0.0399 -0.2060
 1191DOPE   C4B13980   5.559  27.931  14.699 -0.0917  0.1771  0.0503
 1192DOPS   CNO13981  10.073  27.539  12.208  0.1376  0.4809  0.2176
 1192DOPS   PO413982  10.224  27.236  12.384  0.0077  0.1722  0.0510
 1192DOPS   GL113983  10.547  27.072  12.616  0.4020 -0.1838  0.3632
 1192DOPS   GL213984  10.473  27.092  12.935  0.0666 -0.0823 -0.3043
 1192DOPS   C1A13985  10.910  27.293  12.833  0.1196 -0.2163 -0.0459
 1192DOPS   D2A13986  11.273  27.441  13.062 -0.1074  0.0437  0.1101
 1192DOPS   C3A13987  11.316  27.804  13.356 -0.2816 -0.0674 -0.0289
 1192DOPS   C4A13988  11.433  28.296  13.440  0.2623  0.4128 -0.1007
 1192DOPS   C1B13989  10.403  27.287  13.329  0.2632  0.1510 -0.3417
 1192DOPS   D2B13990  10.326  27.207  13.786 -0.2411  0.4280 -0.3194
 1192DOPS   C3B13991   9.910  27.361  13.810 -0.2345  0.0008 -0.2729
 1192DOPS   C4B13992   9.503  27.469  13.673 -0.0969 -0.4253  0.0432
 1193DOPE   NH313993  10.946  33.831  12.644 -0.2682  0.1195  0.5092
 1193DOPE   PO413994  11.181  33.635  12.516  0.2664  0.0281 -0.2799
 1193DOPE   GL113995  11.298  33.632  12.900 -0.0516  0.1865  0.2561
 1193DOPE   GL213996  11.128  33.332  12.923  0.0320  0.0529 -0.3390
 1193DOPE   C1A13997  11.625  33.517  13.206  0.1857 -0.3147  0.1781
 1193DOPE   D2A13998  12.062  33.586  13.420  0.0072 -0.3192  0.0544
 1193DOPE   C3A13999  12.108  33.846  13.811  0.3452  0.2827 -0.0726
 1193DOPE   C4A14000  12.328  34.204  13.956 -0.2062  0.0064  0.3375
 1193DOPE   C1B14001  11.218  33.325  13.396 -0.1571 -0.1355 -0.2295
 1193DOPE   D2B14002  11.231  33.397  13.834 -0.0725 -0.1047  0.1169
 1193DOPE   C3B14003  11.532  33.526  14.131  0.1007  0.0513 -0.1865
 1193DOPE   C4B14004  11.299  33.666  14.493  0.0814 -0.0294  0.3475
 1194DOPC   NC314005   1.602  27.592  12.202 -0.0742  0.0893  0.0791
 1194DOPC   PO414006   1.345  27.888  12.214  0.3208  0.3251  0.0414
 1194DOPC   GL114007   1.246  28.079  12.502 -0.4150 -0.1385  0.0111
 1194DOPC   GL214008   0.993  28.185  12.434  0.1089  0.3064  0.0066
 1194DOPC   C1A14009   1.257  28.518  12.673 -0.3512  0.2605 -0.1407
 1194DOPC   D2A14010   1.085  28.918  12.551 -0.1362 -0.1656  0.0921
 1194DOPC   C3A14011   0.718  29.138  12.545 -0.1569  0.0237  0.4408
 1194DOPC   C4A14012   0.468  29.459  12.353  0.0455 -0.0004 -0.4227
 1194DOPC   C1B14013   0.729  28.588  12.471  0.1323  0.0700  0.2434
 1194DOPC   D2B14014   0.457  28.756  12.822 -0.0813 -0.2550 -0.1217
 1194DOPC   C3B14015   0.462  29.202  12.967 -0.0049  0.0204  0.0242
 1194DOPC   C4B14016   0.810  29.524  12.843 -0.0428  0.3249  0.0961
 1195DOPC   NC314017   4.232  26.040  12.425 -0.0345 -0.0541  0.0088
 1195DOPC   PO414018   4.016  25.766  12.553 -0.1313 -0.1781  0.0927
 1195DOPC   GL114019   3.882  26.047  12.831 -0.0704  0.0454 -0.0162
 1195DOPC   GL214020   4.040  26.304  12.881 -0.3871 -0.2617  0.0151
 1195DOPC   C1A14021   3.584  26.076  13.219 -0.2565  0.0365  0.1843
 1195DOPC   D2A14022   3.463  26.158  13.654  0.4507  0.4091  0.2385
 1195DOPC   C3A14023   3.752  26.316  13.957  0.0771  0.2089 -0.2922
 1195DOPC   C4A14024   4.196  26.174  14.069  0.3133  0.1895 -0.2538
 1195DOPC   C1B14025   4.184  26.038  13.227  0.1564  0.0620  0.1764
 1195DOPC   D2B14026   4.349  25.926  13.636  0.1847  0.1055 -0.2141
 1195DOPC   C3B14027   4.567  26.312  13.812  0.1846 -0.1893 -0.1254
 1195DOPC   C4B14028   4.528  26.520  14.240  0.0032  0.0536 -0.1970
 1196POSM   NC314029   9.872  28.863  12.881 -0.4214 -0.4042 -0.0107
 1196POSM   PO414030  10.005  29.073  12.605 -0.0577  0.0315  0.1612
 1196POSM   AM114031  10.198  28.850  12.589 -0.1940 -0.5438  0.2037
 1196POSM   AM214032  10.341  28.681  12.782 -0.2377 -0.0739 -0.0229
 1196POSM   T1A14033  10.520  28.606  12.313 -0.1787  0.0614 -0.1529
 1196POSM   C2A14034  10.683  28.126  12.345  0.2660 -0.1643  0.2788
 1196POSM   C3A14035  10.881  27.657  12.351  0.2853  0.0418  0.2885
 1196POSM   C1B14036  10.605  28.890  12.840 -0.0375  0.2023  0.1597
 1196POSM   D2B14037  10.871  29.201  13.120 -0.1052 -0.2552 -0.2281
 1196POSM   C3B14038  10.911  29.117  13.614 -0.1189 -0.3122  0.0696
 1196POSM   C4B14039  10.886  29.175  14.057  0.3897  0.3779  0.2420
 1197POSM   NC314040   0.529  33.068  12.853  0.2180 -0.0145  0.3642
 1197POSM   PO414041   0.525  32.776  12.539 -0.0948  0.1471  0.3753
 1197POSM   AM114042   0.589  32.580  12.797  0.1728 -0.3527 -0.0805
 1197POSM   AM214043   0.672  32.670  13.061 -0.2108  0.0175 -0.3508
 1197POSM   T1A14044   0.504  32.262  13.189 -0.2673  0.0366  0.0036
 1197POSM   C2A14045   0.295  31.938  13.231 -0.0844  0.0331  0.0368
 1197POSM   C3A14046   0.252  31.554  13.434  0.0212 -0.0041  0.2439
 1197POSM   C1B14047   0.944  32.668  13.278 -0.0257  0.1685  0.4582
 1197POSM   D2B14048   1.268  32.941  13.389  0.0174 -0.0633 -0.0894
 1197POSM   C3B14049   1.651  32.925  13.714  0.1801 -0.0977 -0.1244
 1197POSM   C4B14050   1.988  32.910  14.040  0.1275  0.0493 -0.2718
 1198DOPS   CNO14051   7.266  26.624  12.617 -0.0787  0.0417 -0.1536
 1198DOPS   PO414052   7.138  26.454  12.323  0.0730  0.0479  0.0707
 1198DOPS   GL114053   7.369  26.155  12.511  0.1571  0.3560 -0.0222
 1198DOPS   GL214054   7.551  26.066  12.267 -0.4065 -0.1793  0.2494
 1198DOPS   C1A14055   7.251  25.985  12.917  0.2194 -0.0638  0.0528
 1198DOPS   D2A14056   7.355  25.494  12.976 -0.2147  0.1994  0.1056
 1198DOPS   C3A14057   7.202  25.259  13.327 -0.0573 -0.0636 -0.1320
 1198DOPS   C4A14058   7.065  25.277  13.790  0.4336  0.1963  0.0332
 1198DOPS   C1B14059   7.651  25.741  12.531 -0.0313 -0.0245  0.2469
 1198DOPS   D2B14060   8.032  25.446  12.605 -0.1924  0.0819  0.0364
 1198DOPS   C3B14061   7.828  25.185  12.840  0.4439 -0.1846 -0.0076
 1198DOPS   C4B14062   7.973  24.732  12.849  0.0392 -0.1308  0.1352
 1199POSM   NC314063   3.100  24.186  12.279 -0.0408 -0.0948  0.1251
 1199POSM   PO414064   3.050  23.955  12.619  0.1713  0.0057  0.0660
 1199POSM   AM114065   2.941  23.894  12.924  0.1812  0.1170 -0.1579
 1199POSM   AM214066   2.746  23.711  13.051  0.0394 -0.1227 -0.2854
 1199POSM   T1A14067   2.991  24.028  13.402 -0.0209  0.1047  0.1066
 1199POSM   C2A14068   2.690  23.992  13.763  0.0471 -0.0626  0.1895
 1199POSM   C3A14069   2.447  23.878  14.154 -0.0268 -0.0404  0.3903
 1199POSM   C1B14070   2.658  23.557  13.355 -0.3116 -0.0794 -0.0761
 1199POSM   D2B14071   2.512  23.505  13.759  0.3122 -0.2668  0.0024
 1199POSM   C3B14072   2.144  23.448  14.089 -0.3453  0.1449  0.2604
 1199POSM   C4B14073   1.843  23.476  14.448  0.2237  0.2136  0.0733
 1200DOPE   NH314074   5.842  31.691  12.753  0.0893 -0.0533 -0.2155
 1200DOPE   PO414075   5.648  31.561  12.544  0.0512 -0.0571 -0.2805
 1200DOPE   GL114076   5.343  31.688  12.744  0.1211  0.1016 -0.0931
 1200DOPE   GL214077   5.067  31.633  12.687  0.0140  0.0117  0.0771
 1200DOPE   C1A14078   5.194  31.745  13.199  0.1030 -0.3018  0.0866
 1200DOPE   D2A14079   5.417  31.703  13.557  0.3129  0.0083 -0.0191
 1200DOPE   C3A14080   5.256  31.358  13.750 -0.0439  0.1606 -0.1133
 1200DOPE   C4A14081   5.065  31.072  14.064  0.2671 -0.1097 -0.0747
 1200DOPE   C1B14082   4.877  32.022  12.883 -0.1109  0.0171  0.1237
 1200DOPE   D2B14083   4.880  32.482  13.027 -0.0045  0.1525  0.4233
 1200DOPE   C3B14084   4.970  32.768  13.326  0.0564  0.3549 -0.2199
 1200DOPE   C4B14085   4.980  33.042  13.669  0.1557  0.1576 -0.1363
 1201DOPE   NH314086   2.997  24.503  12.712  0.1062  0.1999  0.2248
 1201DOPE   PO414087   2.950  24.644  12.409  0.1113  0.1343 -0.3727
 1201DOPE   GL114088   2.875  25.033  12.456  0.1465 -0.1621  0.0197
 1201DOPE   GL214089   2.893  25.033  12.775  0.2671  0.1764 -0.1591
 1201DOPE   C1A14090   2.567  25.331  12.361  0.3077  0.2643  0.3946
 1201DOPE   D2A14091   2.376  25.731  12.493  0.0240 -0.3495 -0.0524
 1201DOPE   C3A14092   2.222  26.138  12.713  0.1147 -0.3131  0.0270
 1201DOPE   C4A14093   2.190  26.431  13.121 -0.1708  0.3669 -0.2038
 1201DOPE   C1B14094   2.524  25.191  12.918  0.0710 -0.2318  0.0788
 1201DOPE   D2B14095   2.055  25.279  12.766 -0.3227 -0.3320 -0.0794
 1201DOPE   C3B14096   1.620  25.347  12.584 -0.4401 -0.1568 -0.1156
 1201DOPE   C4B14097   1.257  25.523  12.458 -0.1335  0.3682  0.2084
 1202DOPE   NH314098   2.531  23.940  12.678 -0.1216 -0.0343  0.4897
 1202DOPE   PO414099   2.575  24.183  12.873  0.0434 -0.3061  0.0551
 1202DOPE   GL114100   2.550  24.641  12.974  0.0024  0.0645  0.2038
 1202DOPE   GL214101   2.487  24.729  12.668  0.0088 -0.1619 -0.1358
 1202DOPE   C1A14102   2.659  24.878  13.352 -0.1130 -0.1467 -0.2020
 1202DOPE   D2A14103   2.490  25.046  13.832 -0.2216 -0.3415  0.1287
 1202DOPE   C3A14104   2.106  25.048  13.976  0.0615 -0.1150  0.1606
 1202DOPE   C4A14105   1.792  24.740  14.059 -0.0601 -0.1216  0.2886
 1202DOPE   C1B14106   2.122  24.817  12.975 -0.0208 -0.2307  0.2873
 1202DOPE   D2B14107   1.706  24.918  13.200  0.0987  0.3758  0.2760
 1202DOPE   C3B14108   1.680  25.129  13.579  0.2418  0.1650 -0.2291
 1202DOPE   C4B14109   1.586  25.201  14.008  0.0734 -0.0394  0.0873
 1203DOPS   CNO14110   4.444  24.403  12.508  0.0919  0.0772  0.3741
 1203DOPS   PO414111   4.391  24.783  12.630 -0.0137 -0.0770  0.0722
 1203DOPS   GL114112   4.485  24.605  12.976 -0.0188 -0.2752  0.3332
 1203DOPS   GL214113   4.316  24.300  12.977 -0.1703  0.0830  0.0298
 1203DOPS   C1A14114   4.267  24.511  13.361  0.1691 -0.2554 -0.0001
 1203DOPS   D2A14115   4.307  24.211  13.699 -0.2876 -0.0943  0.0747
 1203DOPS   C3A14116   4.582  24.408  14.048  0.1039 -0.3536 -0.1117
 1203DOPS   C4A14117   4.438  24.720  14.397  0.0267  0.0343 -0.2454
 1203DOPS   C1B14118   4.632  24.112  13.296 -0.1084 -0.1245 -0.2530
 1203DOPS   D2B14119   4.835  24.077  13.711 -0.3995 -0.1880 -0.2015
 1203DOPS   C3B14120   4.566  23.927  14.052  0.2279  0.1494  0.3682
 1203DOPS   C4B14121   4.110  23.920  14.189  0.0270  0.0350  0.3850
 1204POSM   NC314122   7.261  27.312  12.944  0.0074  0.2273  0.1822
 1204POSM   PO414123   7.013  27.041  12.823 -0.0009  0.1070 -0.0415
 1204POSM   AM114124   6.823  26.796  12.970  0.1792  0.0786  0.2735
 1204POSM   AM214125   6.609  26.722  13.103  0.1393 -0.1297 -0.0736
 1204POSM   T1A14126   6.680  26.269  12.981 -0.1294  0.1476  0.1463
 1204POSM   C2A14127   6.779  25.808  13.092  0.0673  0.3331 -0.3703
 1204POSM   C3A14128   6.769  25.482  13.464  0.1736  0.0878 -0.0486
 1204POSM   C1B14129   6.525  26.779  13.459 -0.0823  0.0028 -0.1912
 1204POSM   D2B14130   6.452  26.538  13.859  0.3631  0.0337 -0.2645
 1204POSM   C3B14131   6.041  26.460  13.988  0.0385 -0.0073  0.4540
 1204POSM   C4B14132   5.593  26.416  13.872  0.2629  0.0848 -0.1677
 1205POSM   NC314133   9.648  28.804  12.185 -0.1960  0.0576  0.1544
 1205POSM   PO414134   9.410  28.720  12.512 -0.1266 -0.0163 -0.1726
 1205POSM   AM114135   9.404  28.636  12.859  0.1325 -0.2486 -0.2593
 1205POSM   AM214136   9.375  28.817  13.075  0.2865  0.0378 -0.1536
 1205POSM   T1A14137   9.642  28.387  13.222 -0.1849 -0.1392  0.0014
 1205POSM   C2A14138   9.949  28.207  13.487 -0.5893 -0.3213 -0.3666
 1205POSM   C3A14139   9.937  27.895  13.731 -0.1670  0.0051  0.0938
 1205POSM   C1B14140   9.644  28.892  13.296  0.0755 -0.0949  0.0027
 1205POSM   D2B14141   9.947  28.945  13.641  0.0018  0.1827  0.3620
 1205POSM   C3B14142   9.846  28.987  14.071  0.0672 -0.1410  0.3029
 1205POSM   C4B14143   9.996  29.200  14.426  0.0598  0.2561  0.1888
 1206DOPE   NH314144   7.590  26.627  12.194 -0.1135  0.0659 -0.1670
 1206DOPE   PO414145   7.756  26.511  12.449 -0.2859 -0.2548  0.0573
 1206DOPE   GL114146   8.053  26.324  12.559  0.1594  0.2960 -0.1888
 1206DOPE   GL214147   8.222  26.620  12.666 -0.1707  0.0014  0.2173
 1206DOPE   C1A14148   8.117  26.198  13.000 -0.3773  0.3502  0.0026
 1206DOPE   D2A14149   8.316  26.124  13.427 -0.1172 -0.0813 -0.2743
 1206DOPE   C3A14150   8.578  26.504  13.537 -0.1357  0.1101 -0.0789
 1206DOPE   C4A14151   8.999  26.570  13.722  0.0936 -0.5017  0.0055
 1206DOPE   C1B14152   8.546  26.636  12.951  0.1035  0.1752  0.2135
 1206DOPE   D2B14153   9.000  26.546  13.198  0.0009 -0.0008  0.2180
 1206DOPE   C3B14154   9.041  26.137  13.484  0.0819 -0.1781 -0.3636
 1206DOPE   C4B14155   8.748  26.046  13.771 -0.1547  0.1394  0.0191
 1207DOPS   CNO14156   0.832  33.315  12.395 -0.1447  0.3739 -0.2817
 1207DOPS   PO414157   1.036  33.532  12.614 -0.5178  0.2437  0.3421
 1207DOPS   GL114158   1.277  33.601  12.955  0.3004  0.1417 -0.2887
 1207DOPS   GL214159   1.428  33.361  12.906 -0.0269 -0.0631  0.1396
 1207DOPS   C1A14160   1.582  33.624  13.312  0.1675 -0.0682 -0.1475
 1207DOPS   D2A14161   1.569  33.571  13.759 -0.0784  0.1401  0.5674
 1207DOPS   C3A14162   1.775  33.828  14.081  0.0848 -0.2767  0.2319
 1207DOPS   C4A14163   1.993  34.181  13.924  0.0764 -0.0801 -0.3719
 1207DOPS   C1B14164   1.731  33.135  13.229  0.2144 -0.0080  0.1690
 1207DOPS   D2B14165   2.077  33.080  13.480 -0.2510  0.1171  0.0036
 1207DOPS   C3B14166   2.062  33.430  13.787 -0.1311 -0.0190 -0.0298
 1207DOPS   C4B14167   2.326  33.648  14.080  0.0928  0.0466  0.1308
 1208DOPE   NH314168   6.473  31.416  12.828 -0.2162 -0.0840 -0.4352
 1208DOPE   PO414169   6.448  31.506  13.101  0.1073  0.0671  0.0080
 1208DOPE   GL114170   6.856  31.334  13.237 -0.0249 -0.4169 -0.0865
 1208DOPE   GL214171   6.826  31.342  13.502  0.3192  0.2011 -0.3709
 1208DOPE   C1A14172   7.179  31.721  13.334  0.1418  0.1610 -0.0341
 1208DOPE   D2A14173   7.209  32.181  13.421  0.3273 -0.1985  0.2024
 1208DOPE   C3A14174   6.872  32.394  13.589 -0.0121 -0.2690  0.4284
 1208DOPE   C4A14175   6.734  32.804  13.764 -0.1186 -0.0660 -0.0042
 1208DOPE   C1B14176   6.836  31.081  13.858  0.2226 -0.0712 -0.1536
 1208DOPE   D2B14177   6.591  30.961  14.261  0.1268 -0.2129  0.0687
 1208DOPE   C3B14178   6.188  30.794  14.380  0.1848  0.1294 -0.0108
 1208DOPE   C4B14179   5.806  30.905  14.571 -0.0930 -0.2084 -0.0780
 1209POSM   NC314180  34.342  25.814  12.085 -0.0573  0.0452 -0.0204
 1209POSM   PO414181  34.258  25.444  12.103 -0.0307 -0.0086  0.0912
 1209POSM   AM114182  34.311  25.231  12.362  0.4985  0.2889 -0.0988
 1209POSM   AM214183  34.155  25.211  12.658 -0.0858  0.0807  0.0028
 1209POSM   T1A14184  34.570  24.935  12.614  0.0418  0.2422 -0.0509
 1209POSM   C2A14185  34.762  24.491  12.533  0.1970  0.3486  0.2887
 1209POSM   C3A14186  35.173  24.298  12.377  0.0409  0.4554 -0.0015
 1209POSM   C1B14187  34.053  25.297  12.964  0.2755  0.4413  0.0414
 1209POSM   D2B14188  33.820  25.106  13.363  0.0268  0.2064  0.0994
 1209POSM   C3B14189  33.992  25.190  13.791 -0.1298 -0.1869  0.2600
 1209POSM   C4B14190  33.846  25.492  14.133 -0.3586 -0.2004  0.1411
 1210POSM   NC314191   0.398  34.002  13.118 -0.4047 -0.0015 -0.1321
 1210POSM   PO414192   0.772  34.103  12.953  0.1304  0.0580  0.0990
 1210POSM   AM114193   0.947  33.873  13.091 -0.1149  0.5222  0.0714
 1210POSM   AM214194   1.194  33.956  13.252  0.2674  0.1394  0.0580
 1210POSM   T1A14195   1.117  33.455  13.346  0.1651 -0.2216  0.0721
 1210POSM   C2A14196   1.167  33.248  13.763 -0.5069  0.0645  0.0581
 1210POSM   C3A14197   0.957  32.889  13.888 -0.0997  0.2303  0.4025
 1210POSM   C1B14198   1.162  34.244  13.407  0.0307 -0.0035  0.1963
 1210POSM   D2B14199   0.975  34.482  13.799 -0.2727  0.1263 -0.4627
 1210POSM   C3B14200   0.825  34.373  14.175  0.1530 -0.1900  0.0621
 1210POSM   C4B14201   0.519  34.133  14.420  0.0306  0.2377 -0.1697
 1211DOPC   NC314202   3.095  31.160  13.270 -0.0416  0.1799 -0.2590
 1211DOPC   PO414203   3.412  31.263  12.990 -0.1431  0.1287  0.2147
 1211DOPC   GL114204   3.583  31.211  13.382 -0.4811  0.0767  0.0669
 1211DOPC   GL214205   3.868  31.141  13.524  0.3704 -0.0394  0.1330
 1211DOPC   C1A14206   3.499  31.482  13.766  0.1464  0.1394  0.1801
 1211DOPC   D2A14207   3.230  31.474  14.170  0.0204  0.1605 -0.1198
 1211DOPC   C3A14208   3.485  31.564  14.537 -0.0636 -0.1273  0.0954
 1211DOPC   C4A14209   3.731  31.937  14.592  0.2388  0.3633  0.1583
 1211DOPC   C1B14210   3.963  31.274  13.925 -0.2533 -0.1626  0.0588
 1211DOPC   D2B14211   3.861  31.630  14.215  0.1126 -0.1751  0.2170
 1211DOPC   C3B14212   4.042  32.044  14.103  0.1987 -0.2715  0.2692
 1211DOPC   C4B14213   3.866  32.448  13.948  0.2463 -0.0101  0.0128
 1212POSM   NC314214   0.468  31.365  12.993  0.0071 -0.0350  0.2703
 1212POSM   PO414215   0.371  31.018  12.917  0.1356  0.1699  0.3212
 1212POSM   AM114216   0.340  30.941  13.239  0.1898  0.0503 -0.0981
 1212POSM   AM214217   0.227  31.060  13.463  0.1343 -0.2962 -0.0174
 1212POSM   T1A14218   0.486  30.683  13.676 -0.1284  0.0020  0.2193
 1212POSM   C2A14219   0.292  30.724  14.045  0.1351 -0.3042  0.1187
 1212POSM   C3A14220   0.495  30.415  14.344 -0.4824  0.1015  0.1920
 1212POSM   C1B14221   0.236  31.145  13.792 -0.0156  0.1965  0.2342
 1212POSM   D2B14222   0.078  31.122  14.208 -0.0428 -0.0611  0.0433
 1212POSM   C3B14223  -0.262  30.841  14.176  0.0970 -0.2996  0.3025
 1212POSM   C4B14224  -0.510  30.462  14.256 -0.0049  0.0624  0.0202
 1213DOPE   NH314225   4.279  25.348  12.563 -0.0558 -0.2659  0.0121
 1213DOPE   PO414226   4.556  25.566  12.557  0.1983 -0.0796  0.4788
 1213DOPE   GL114227   4.382  25.696  12.877  0.0424 -0.1791  0.2493
 1213DOPE   GL214228   4.593  25.759  13.010 -0.2113 -0.0268  0.0915
 1213DOPE   C1A14229   4.138  25.444  13.142  0.0465 -0.1809  0.0999
 1213DOPE   D2A14230   4.061  25.339  13.601  0.2970 -0.3457 -0.2556
 1213DOPE   C3A14231   4.195  25.568  13.950  0.4241  0.0112  0.0229
 1213DOPE   C4A14232   4.208  25.736  14.406 -0.2416 -0.0014  0.1814
 1213DOPE   C1B14233   4.549  25.538  13.417  0.3577 -0.1390 -0.3347
 1213DOPE   D2B14234   4.544  25.255  13.788  0.0285  0.2007  0.1204
 1213DOPE   C3B14235   4.623  25.441  14.215  0.1386 -0.2012 -0.4420
 1213DOPE   C4B14236   5.052  25.566  14.339 -0.0005 -0.1013  0.0602
 1214DOPS   CNO14237   2.767  28.868  12.467 -0.3142 -0.1335 -0.0837
 1214DOPS   PO414238   2.890  28.591  12.712 -0.0015  0.2778 -0.0863
 1214DOPS   GL114239   2.986  28.798  13.127  0.2741 -0.3799  0.0785
 1214DOPS   GL214240   2.773  28.799  13.335 -0.1901  0.2437  0.0744
 1214DOPS   C1A14241   3.275  28.648  13.515  0.1018  0.1901  0.2949
 1214DOPS   D2A14242   3.124  28.527  13.923  0.2276 -0.1091  0.0227
 1214DOPS   C3A14243   2.631  28.431  13.976 -0.2331  0.1769 -0.0566
 1214DOPS   C4A14244   2.275  28.182  14.215  0.0122  0.1058 -0.2886
 1214DOPS   C1B14245   2.986  29.081  13.588 -0.0801 -0.2144 -0.3738
 1214DOPS   D2B14246   3.156  29.427  13.852 -0.2606  0.2005  0.1011
 1214DOPS   C3B14247   3.104  29.342  14.310  0.0204 -0.4466 -0.0729
 1214DOPS   C4B14248   2.755  29.192  14.572 -0.5889 -0.1128 -0.0285
 1215DOPC   NC314249   2.661  30.605  12.942  0.1236 -0.0130  0.1261
 1215DOPC   PO414250   2.962  30.902  12.908 -0.0211 -0.0558 -0.1409
 1215DOPC   GL114251   2.968  30.669  13.315 -0.0351  0.1024 -0.1344
 1215DOPC   GL214252   2.729  30.757  13.448 -0.2497  0.0185  0.0011
 1215DOPC   C1A14253   2.874  30.287  13.597 -0.3044 -0.1044  0.0762
 1215DOPC   D2A14254   2.856  29.910  13.932 -0.1241 -0.2684  0.2432
 1215DOPC   C3A14255   3.033  30.110  14.339  0.0722  0.3035 -0.2320
 1215DOPC   C4A14256   3.301  30.347  14.678 -0.0374  0.1864  0.1007
 1215DOPC   C1B14257   2.625  30.707  13.917  0.4093 -0.1334  0.0377
 1215DOPC   D2B14258   2.390  30.754  14.275 -0.0991  0.0179 -0.0419
 1215DOPC   C3B14259   2.598  30.920  14.617 -0.2128  0.0215 -0.1504
 1215DOPC   C4B14260   2.599  30.839  15.066  0.0047  0.0763  0.1822
 1216DOPC   NC314261   7.981  34.183  12.120 -0.2277 -0.0066 -0.1041
 1216DOPC   PO414262   8.089  33.940  11.842 -0.0060  0.3204  0.0386
 1216DOPC   GL114263   8.354  33.746  12.020 -0.3529 -0.2317  0.1023
 1216DOPC   GL214264   8.648  33.745  12.008 -0.2623  0.1359 -0.0448
 1216DOPC   C1A14265   8.436  33.401  12.303  0.0921  0.0633 -0.1559
 1216DOPC   D2A14266   8.787  33.255  12.545  0.1624 -0.2866 -0.0274
 1216DOPC   C3A14267   8.873  32.798  12.696  0.2278  0.1601 -0.0069
 1216DOPC   C4A14268   8.745  32.422  12.449 -0.1825 -0.2941  0.2174
 1216DOPC   C1B14269   8.476  33.417  11.741  0.1444  0.1346 -0.3742
 1216DOPC   D2B14270   8.526  32.947  11.635  0.0808  0.0595 -0.1735
 1216DOPC   C3B14271   8.152  32.690  11.827  0.1528  0.0589 -0.1529
 1216DOPC   C4B14272   7.748  32.514  11.685  0.2086  0.2290  0.0312
 1217DOPC   NC314273   2.373  28.032  12.957  0.3476  0.0700  0.1544
 1217DOPC   PO414274   2.115  28.305  12.921  0.1895  0.4183 -0.0520
 1217DOPC   GL114275   2.164  28.285  13.239  0.1608 -0.1731  0.0189
 1217DOPC   GL214276   1.899  28.234  13.364  0.0613  0.1604  0.0950
 1217DOPC   C1A14277   2.446  28.474  13.535 -0.0744 -0.0215  0.1617
 1217DOPC   D2A14278   2.462  28.885  13.765 -0.0824 -0.1028 -0.0582
 1217DOPC   C3A14279   2.826  28.909  14.016  0.0213  0.0055 -0.1713
 1217DOPC   C4A14280   2.918  28.660  14.357  0.1083 -0.0711 -0.1222
 1217DOPC   C1B14281   1.451  28.054  13.377 -0.0886  0.0723 -0.0463
 1217DOPC   D2B14282   1.113  28.306  13.535 -0.0238  0.0585  0.0437
 1217DOPC   C3B14283   0.743  28.212  13.786  0.2450 -0.2099  0.0224
 1217DOPC   C4B14284   0.731  28.055  14.235  0.1218 -0.2782 -0.1528
 1218DOPS   CNO14285   6.041  31.280  12.529 -0.1535  0.0968  0.1560
 1218DOPS   PO414286   6.009  31.281  12.904 -0.0936  0.0265  0.1370
 1218DOPS   GL114287   5.876  31.647  13.193  0.0194  0.2567 -0.0741
 1218DOPS   GL214288   6.020  31.922  13.160 -0.3364 -0.0447 -0.2746
 1218DOPS   C1A14289   5.856  31.984  13.550 -0.1046  0.0256 -0.2388
 1218DOPS   D2A14290   5.636  31.922  13.947  0.1567  0.0958 -0.3230
 1218DOPS   C3A14291   5.569  32.327  14.014  0.1350 -0.0785  0.1980
 1218DOPS   C4A14292   5.323  32.504  14.368 -0.0445  0.2503  0.0684
 1218DOPS   C1B14293   5.569  32.129  13.230  0.3309 -0.0228  0.3214
 1218DOPS   D2B14294   5.346  32.507  13.032 -0.1580 -0.0977  0.0091
 1218DOPS   C3B14295   5.441  32.738  12.618 -0.0876  0.1533 -0.2394
 1218DOPS   C4B14296   5.322  33.083  12.270  0.1410  0.1353  0.0217
 1219POSM   NC314297   1.427  23.209  12.181 -0.1098  0.5821  0.1290
 1219POSM   PO414298   1.640  23.165  12.493  0.0765  0.1193 -0.0768
 1219POSM   AM114299   1.901  23.148  12.650 -0.3157  0.3891 -0.0855
 1219POSM   AM214300   1.963  23.171  12.936  0.1722  0.0505  0.1223
 1219POSM   T1A14301   2.330  22.825  12.722  0.1871  0.3232  0.3061
 1219POSM   C2A14302   2.502  22.450  12.924 -0.3261  0.0739  0.1428
 1219POSM   C3A14303   2.629  22.029  12.888  0.3071 -0.0830  0.2640
 1219POSM   C1B14304   1.792  23.371  13.161 -0.0184  0.0685 -0.1264
 1219POSM   D2B14305   1.415  23.541  13.403 -0.2776 -0.4137  0.3075
 1219POSM   C3B14306   1.511  23.931  13.673 -0.2528 -0.1937 -0.1168
 1219POSM   C4B14307   1.574  24.249  13.988  0.1962  0.2060  0.2332
 1220POSM   NC314308   6.375   0.039  12.174  0.0336  0.1523  0.1148
 1220POSM   PO414309   5.993   0.013  12.299 -0.0589 -0.0682  0.1006
 1220POSM   AM114310   5.876  -0.258  12.416  0.1157 -0.2104  0.1224
 1220POSM   AM214311   5.848  -0.384  12.677 -0.0318 -0.2555 -0.0019
 1220POSM   T1A14312   5.686  -0.692  12.309 -0.0845 -0.3435  0.2371
 1220POSM   C2A14313   5.390  -1.030  12.322 -0.1223 -0.4112  0.0565
 1220POSM   C3A14314   5.010  -1.023  12.635 -0.1913 -0.0709 -0.2341
 1220POSM   C1B14315   5.929  -0.687  12.891 -0.3849 -0.3448 -0.2567
 1220POSM   D2B14316   5.914  -1.064  13.155  0.2749 -0.0633  0.2547
 1220POSM   C3B14317   6.130  -1.522  13.172 -0.0922 -0.1101  0.2061
 1220POSM   C4B14318   6.567  -1.818  13.223  0.0716  0.2150 -0.3062
 1221DOPE   NH314319  34.674  29.806  12.486  0.3783 -0.4854 -0.0623
 1221DOPE   PO414320  34.412  29.859  12.616 -0.3257 -0.0944  0.0393
 1221DOPE   GL114321  34.294  29.769  13.014 -0.1179  0.2295 -0.1318
 1221DOPE   GL214322  34.444  29.882  13.146 -0.0840 -0.2356  0.2286
 1221DOPE   C1A14323  34.316  29.401  13.246 -0.1935  0.0189 -0.0998
 1221DOPE   D2A14324  34.628  29.148  13.443  0.3504 -0.0186 -0.1908
 1221DOPE   C3A14325  34.387  28.873  13.784  0.0053 -0.1453  0.1389
 1221DOPE   C4A14326  33.986  28.653  13.937  0.0524  0.1699  0.4016
 1221DOPE   C1B14327  34.801  29.708  13.463 -0.1586 -0.2382 -0.0788
 1221DOPE   D2B14328  35.033  29.432  13.636 -0.1990  0.0061 -0.2032
 1221DOPE   C3B14329  34.742  29.238  14.004  0.0897  0.0936 -0.2302
 1221DOPE   C4B14330  34.360  29.454  14.233  0.0121  0.1416 -0.1096
 1222DOPC   NC314331   5.615  22.782  12.402 -0.1528 -0.1480 -0.2183
 1222DOPC   PO414332   5.478  23.118  12.568  0.0801 -0.0688 -0.4138
 1222DOPC   GL114333   5.224  23.020  12.848  0.4172  0.2518  0.1457
 1222DOPC   GL214334   5.120  22.752  12.703 -0.1129  0.1236 -0.0798
 1222DOPC   C1A14335   5.101  23.262  13.271  0.0928 -0.3013  0.3219
 1222DOPC   D2A14336   5.215  23.155  13.701 -0.1946  0.2287  0.0027
 1222DOPC   C3A14337   5.478  23.508  13.886  0.1562  0.0499 -0.1707
 1222DOPC   C4A14338   5.747  23.860  14.107  0.0227 -0.1810 -0.0879
 1222DOPC   C1B14339   4.713  22.587  12.845  0.1432 -0.0047 -0.0415
 1222DOPC   D2B14340   4.332  22.583  12.983 -0.0798 -0.0252  0.0714
 1222DOPC   C3B14341   3.981  22.567  12.626  0.0128  0.3084 -0.3053
 1222DOPC   C4B14342   3.654  22.278  12.501 -0.0716  0.0568 -0.0369
 1223POSM   NC314343  10.003  26.553  11.991  0.2483  0.2739  0.0861
 1223POSM   PO414344  10.029  26.369  12.368  0.2161  0.1308 -0.1531
 1223POSM   AM114345  10.095  26.377  12.706 -0.1099 -0.3546 -0.1620
 1223POSM   AM214346  10.348  26.475  12.847  0.0739 -0.0209  0.1675
 1223POSM   T1A14347   9.978  26.361  13.187 -0.2032 -0.0095 -0.1602
 1223POSM   C2A14348   9.935  26.359  13.630 -0.0787 -0.1702 -0.3015
 1223POSM   C3A14349  10.071  26.568  14.010 -0.2189 -0.4423  0.2872
 1223POSM   C1B14350  10.576  26.647  12.994  0.1292 -0.0494  0.0694
 1223POSM   D2B14351  10.952  26.714  13.231  0.1910 -0.1392 -0.0706
 1223POSM   C3B14352  10.944  27.127  13.348  0.0335  0.2098  0.0916
 1223POSM   C4B14353  10.842  27.580  13.216 -0.0899 -0.2270  0.2056
 1224POSM   NC314354   6.162  30.799  13.054 -0.1988 -0.0569 -0.1670
 1224POSM   PO414355   5.945  30.803  12.690  0.1897  0.0781 -0.0355
 1224POSM   AM114356   5.741  30.905  12.931 -0.0016  0.3738  0.6015
 1224POSM   AM214357   5.479  30.794  12.878 -0.1960  0.0848 -0.5430
 1224POSM   T1A14358   5.685  30.838  13.426  0.0356 -0.1009  0.2597
 1224POSM   C2A14359   5.621  30.862  13.892 -0.2160 -0.3475  0.1571
 1224POSM   C3A14360   5.524  31.131  14.265 -0.1945 -0.1143  0.3896
 1224POSM   C1B14361   5.226  30.858  13.056 -0.3374 -0.2792 -0.0296
 1224POSM   D2B14362   5.239  30.913  13.539 -0.1823  0.1386 -0.0420
 1224POSM   C3B14363   5.169  30.571  13.826  0.1416 -0.1671 -0.3456
 1224POSM   C4B14364   5.028  30.229  14.074  0.0749  0.1131 -0.1101
 1225DOPC   NC314365  13.828   8.408  16.168 -0.1154  0.3173 -0.1607
 1225DOPC   PO414366  13.510   8.639  16.137  0.2108 -0.1208 -0.1781
 1225DOPC   GL114367  13.761   8.575  15.757 -0.1586 -0.0610 -0.0630
 1225DOPC   GL214368  13.536   8.536  15.648  0.1396 -0.0515  0.0672
 1225DOPC   C1A14369  13.879   8.926  15.452  0.0392  0.1175  0.1565
 1225DOPC   D2A14370  13.889   9.001  15.062  0.0558  0.3184 -0.2386
 1225DOPC   C3A14371  13.953   8.829  14.657 -0.3173 -0.0903 -0.0071
 1225DOPC   C4A14372  14.306   8.621  14.415  0.3370  0.3060 -0.1001
 1225DOPC   C1B14373  13.648   8.544  15.160  0.5002  0.0486  0.2304
 1225DOPC   D2B14374  13.489   8.632  14.715 -0.1540  0.1876  0.1897
 1225DOPC   C3B14375  13.177   8.884  14.458 -0.0153  0.0479 -0.0859
 1225DOPC   C4B14376  12.838   9.192  14.263 -0.0154 -0.4330  0.2197
 1226DOPC   NC314377  21.506   3.929  16.179  0.2656 -0.0596 -0.0639
 1226DOPC   PO414378  21.703   4.237  16.072 -0.3762 -0.0365 -0.0580
 1226DOPC   GL114379  21.522   4.216  15.750  0.3538 -0.1045  0.6668
 1226DOPC   GL214380  21.703   3.935  15.614  0.1606 -0.2088 -0.1166
 1226DOPC   C1A14381  21.264   3.839  15.549 -0.1387 -0.3247 -0.1766
 1226DOPC   D2A14382  21.331   3.557  15.171 -0.0353 -0.1023  0.0371
 1226DOPC   C3A14383  21.009   3.613  14.881 -0.1123  0.1393  0.0203
 1226DOPC   C4A14384  20.553   3.780  14.776 -0.2581  0.2167  0.3716
 1226DOPC   C1B14385  21.776   3.800  15.166 -0.0833  0.0284  0.1932
 1226DOPC   D2B14386  21.944   3.468  14.874  0.3093 -0.0733  0.4276
 1226DOPC   C3B14387  21.900   3.623  14.423 -0.0524  0.1659  0.2347
 1226DOPC   C4B14388  22.017   4.085  14.208  0.2003  0.3014  0.0371
 1227DOPE   NH314389  20.350   9.219  15.491  0.2691  0.0232  0.6525
 1227DOPE   PO414390  20.632   9.175  15.441  0.1758 -0.0972  0.0333
 1227DOPE   GL114391  20.712   9.166  15.038 -0.1987  0.1794  0.0400
 1227DOPE   GL214392  20.792   9.369  14.856  0.1675  0.3295 -0.1328
 1227DOPE   C1A14393  21.110   8.988  14.853  0.0839  0.0687 -0.3645
 1227DOPE   D2A14394  21.278   8.709  14.531  0.0021 -0.0143 -0.1702
 1227DOPE   C3A14395  21.034   8.789  14.155  0.1202 -0.2560 -0.1406
 1227DOPE   C4A14396  21.011   8.736  13.702  0.1581 -0.0800 -0.2136
 1227DOPE   C1B14397  20.859   9.215  14.413 -0.3263 -0.3616  0.1683
 1227DOPE   D2B14398  20.994   9.367  13.996  0.0522 -0.1079  0.2357
 1227DOPE   C3B14399  20.877   9.515  13.571  0.2282  0.1144 -0.3618
 1227DOPE   C4B14400  20.707   9.334  13.178  0.2260 -0.0904 -0.1555
 1228DOPE   NH314401  12.559   8.494  16.325  0.2919  0.0589  0.1391
 1228DOPE   PO414402  12.694   8.409  16.039 -0.0687  0.0343 -0.1242
 1228DOPE   GL114403  12.582   8.521  15.686  0.1404  0.1139  0.0579
 1228DOPE   GL214404  12.513   8.307  15.508  0.3150  0.1591 -0.1808
 1228DOPE   C1A14405  12.741   8.840  15.399 -0.2305  0.4241  0.2134
 1228DOPE   D2A14406  12.893   9.198  15.223 -0.0758 -0.4885 -0.1120
 1228DOPE   C3A14407  12.821   8.964  14.825 -0.2739 -0.1880 -0.0115
 1228DOPE   C4A14408  12.977   8.506  14.743 -0.1609  0.5164 -0.0224
 1228DOPE   C1B14409  12.561   8.525  15.060 -0.1414 -0.2075 -0.1342
 1228DOPE   D2B14410  12.349   8.773  14.759  0.0057  0.0362 -0.0743
 1228DOPE   C3B14411  12.505   8.689  14.378  0.1018  0.1093  0.0716
 1228DOPE   C4B14412  12.852   8.676  14.043 -0.1696 -0.2582  0.5268
 1229DOPC   NC314413  21.394  11.271  15.046 -0.1547 -0.3477 -0.1213
 1229DOPC   PO414414  21.236  11.596  15.256 -0.0059 -0.3867  0.0239
 1229DOPC   GL114415  20.850  11.532  15.091  0.1136  0.2206  0.1467
 1229DOPC   GL214416  20.746  11.339  15.191  0.1703  0.1436 -0.0285
 1229DOPC   C1A14417  20.617  11.578  14.676  0.1183  0.1085 -0.1764
 1229DOPC   D2A14418  20.662  11.213  14.363  0.0226 -0.0894 -0.2206
 1229DOPC   C3A14419  20.902  11.070  14.028 -0.2357 -0.2389  0.3461
 1229DOPC   C4A14420  21.176  11.033  13.717  0.0107  0.3176  0.0887
 1229DOPC   C1B14421  20.462  11.111  14.836 -0.0638 -0.0045  0.1999
 1229DOPC   D2B14422  20.123  11.020  14.472 -0.1134  0.2088 -0.4936
 1229DOPC   C3B14423  19.972  11.345  14.207  0.0023 -0.2195 -0.0221
 1229DOPC   C4B14424  19.694  11.636  14.086 -0.1470  0.4372  0.3319
 1230DOPC   NC314425  21.541   9.328  15.388 -0.2179  0.5481 -0.0674
 1230DOPC   PO414426  21.896   9.402  15.582  0.0307 -0.0054  0.1715
 1230DOPC   GL114427  22.037   9.610  15.323 -0.0084  0.3479  0.1638
 1230DOPC   GL214428  21.838   9.717  15.104  0.2537  0.0457  0.1802
 1230DOPC   C1A14429  22.291   9.580  14.942  0.0154 -0.0587  0.0061
 1230DOPC   D2A14430  22.403   9.587  14.488  0.2041  0.2264 -0.1183
 1230DOPC   C3A14431  22.748   9.716  14.215 -0.1723  0.1232  0.2705
 1230DOPC   C4A14432  23.142   9.846  14.019 -0.0064  0.3440 -0.2164
 1230DOPC   C1B14433  21.802   9.938  14.731  0.0700 -0.2485  0.0378
 1230DOPC   D2B14434  21.794   9.795  14.290  0.0585 -0.0309  0.0930
 1230DOPC   C3B14435  22.197   9.896  14.062 -0.0166 -0.2616 -0.2286
 1230DOPC   C4B14436  22.612  10.031  13.869  0.1444 -0.3048  0.0561
 1231POSM   NC314437  15.806   2.798  15.582  0.3693 -0.1443 -0.4528
 1231POSM   PO414438  15.618   2.944  15.882 -0.3726 -0.1388  0.0423
 1231POSM   AM114439  15.427   3.024  15.648  0.0622  0.1057 -0.1387
 1231POSM   AM214440  15.370   2.943  15.374  0.0229  0.2428 -0.2363
 1231POSM   T1A14441  15.182   3.420  15.436 -0.0723  0.1013  0.4268
 1231POSM   C2A14442  14.890   3.764  15.392 -0.1574  0.3156  0.0251
 1231POSM   C3A14443  14.682   4.142  15.273  0.0510 -0.1570 -0.2445
 1231POSM   C1B14444  15.548   2.859  15.107 -0.2842 -0.0165  0.0417
 1231POSM   D2B14445  15.442   2.583  14.730 -0.2036 -0.0120  0.1319
 1231POSM   C3B14446  15.646   2.237  14.513  0.0609 -0.1399  0.2534
 1231POSM   C4B14447  15.715   1.898  14.207  0.1303 -0.1403 -0.2091
 1232DOPS   CNO14448  19.868   9.398  15.630 -0.1715  0.0875 -0.2705
 1232DOPS   PO414449  19.528   9.559  15.698 -0.4381  0.0876 -0.0463
 1232DOPS   GL114450  19.447   9.540  15.328  0.1437 -0.0700  0.2698
 1232DOPS   GL214451  19.487   9.233  15.236  0.1543  0.3201  0.0771
 1232DOPS   C1A14452  19.522   9.757  14.942 -0.0341  0.1119  0.3036
 1232DOPS   D2A14453  19.797   9.783  14.589  0.1314  0.1749  0.0378
 1232DOPS   C3A14454  20.071  10.122  14.368  0.1482  0.1071  0.1040
 1232DOPS   C4A14455  20.513  10.164  14.192 -0.2108 -0.0293  0.0147
 1232DOPS   C1B14456  19.551   8.961  14.803 -0.1441 -0.2419  0.2726
 1232DOPS   D2B14457  19.544   8.690  14.444  0.1202  0.0494 -0.1644
 1232DOPS   C3B14458  19.383   8.576  14.065  0.0788 -0.2940  0.3819
 1232DOPS   C4B14459  19.071   8.520  13.743  0.0893 -0.0832  0.4402
 1233DOPC   NC314460  17.025   2.235  15.879 -0.1277  0.1521  0.0708
 1233DOPC   PO414461  16.967   2.650  15.931  0.0903 -0.0664 -0.2192
 1233DOPC   GL114462  17.166   2.560  15.528 -0.3201 -0.2403  0.0691
 1233DOPC   GL214463  17.197   2.308  15.407 -0.2062 -0.1932  0.1368
 1233DOPC   C1A14464  17.190   2.790  15.130  0.0147  0.5592 -0.0296
 1233DOPC   D2A14465  17.244   2.690  14.669  0.1280  0.1737  0.0430
 1233DOPC   C3A14466  17.050   2.741  14.282 -0.1215 -0.0044 -0.0105
 1233DOPC   C4A14467  16.807   2.901  13.875 -0.2057  0.0643  0.2133
 1233DOPC   C1B14468  16.756   2.218  15.356 -0.0882  0.0983  0.0645
 1233DOPC   D2B14469  16.331   2.193  15.180 -0.3401 -0.0380 -0.1239
 1233DOPC   C3B14470  16.331   2.652  15.228 -0.2507 -0.1425 -0.2466
 1233DOPC   C4B14471  16.049   2.984  15.147 -0.2144  0.1756  0.1033
 1234DOPE   NH314472  14.632   6.083  15.864  0.0820  0.0156 -0.1299
 1234DOPE   PO414473  14.469   5.817  15.885 -0.1231 -0.0466  0.2542
 1234DOPE   GL114474  14.369   5.491  15.613 -0.1331 -0.3591 -0.2481
 1234DOPE   GL214475  14.517   5.653  15.368 -0.0499  0.1513 -0.2294
 1234DOPE   C1A14476  14.160   5.374  15.219 -0.1886  0.0276 -0.4094
 1234DOPE   D2A14477  14.038   5.613  14.868 -0.1242  0.0200 -0.0711
 1234DOPE   C3A14478  14.037   5.491  14.429  0.1414  0.2305 -0.0242
 1234DOPE   C4A14479  13.995   5.501  13.946 -0.1689 -0.1239  0.0237
 1234DOPE   C1B14480  14.764   5.449  15.047  0.2529 -0.1412 -0.5518
 1234DOPE   D2B14481  14.779   5.617  14.685  0.3373  0.1173  0.1125
 1234DOPE   C3B14482  14.608   5.464  14.267 -0.1202 -0.0551 -0.0146
 1234DOPE   C4B14483  14.282   5.155  14.181 -0.1700 -0.3013  0.2686
 1235POSM   NC314484  19.822   8.579  15.711  0.1526  0.0026  0.0735
 1235POSM   PO414485  19.889   8.879  15.449 -0.0944  0.0614 -0.0496
 1235POSM   AM114486  20.046   8.926  15.161  0.1559 -0.2014  0.0991
 1235POSM   AM214487  20.283   8.976  15.031 -0.1166  0.0996 -0.1333
 1235POSM   T1A14488  20.034   8.816  14.638  0.0094  0.1065  0.1060
 1235POSM   C2A14489  20.003   8.519  14.254 -0.2761 -0.0602 -0.0364
 1235POSM   C3A14490  20.197   8.281  13.864 -0.1311  0.2354 -0.1451
 1235POSM   C1B14491  20.379   9.173  14.748 -0.1680 -0.0956  0.1633
 1235POSM   D2B14492  20.269   9.472  14.461  0.1671  0.1845  0.2492
 1235POSM   C3B14493  20.364   9.254  14.093  0.0037 -0.2069  0.2169
 1235POSM   C4B14494  20.597   9.100  13.700  0.0236  0.0896 -0.1570
 1236DOPS   CNO14495  17.361  10.294  15.227  0.1407  0.1756 -0.2916
 1236DOPS   PO414496  17.377  10.654  15.351 -0.2110  0.0468  0.2710
 1236DOPS   GL114497  17.336  10.791  14.910 -0.3160 -0.1873 -0.2574
 1236DOPS   GL214498  17.288  10.541  14.752 -0.1468  0.0340 -0.0473
 1236DOPS   C1A14499  17.601  11.136  14.721  0.0365 -0.0854 -0.0341
 1236DOPS   D2A14500  17.995  11.371  14.591  0.1406 -0.1970 -0.2610
 1236DOPS   C3A14501  18.240  11.005  14.618  0.0365 -0.1643  0.1839
 1236DOPS   C4A14502  18.183  10.654  14.318  0.2161  0.0189  0.1354
 1236DOPS   C1B14503  17.288  10.915  14.424  0.2216 -0.1759 -0.0506
 1236DOPS   D2B14504  17.090  11.158  14.098 -0.0403 -0.0595 -0.3085
 1236DOPS   C3B14505  17.149  11.360  13.709  0.3114 -0.2071  0.1523
 1236DOPS   C4B14506  17.084  11.654  13.385  0.2370 -0.2758 -0.3060
 1237DOPC   NC314507  23.247   2.961  15.674  0.0476 -0.0664 -0.1243
 1237DOPC   PO414508  23.065   2.992  16.044 -0.0806 -0.3116 -0.0454
 1237DOPC   GL114509  22.729   2.969  15.875  0.1370  0.2435 -0.0141
 1237DOPC   GL214510  22.734   3.162  15.694 -0.0691  0.1532  0.1230
 1237DOPC   C1A14511  22.767   2.726  15.490 -0.1307 -0.3464  0.1191
 1237DOPC   D2A14512  22.700   2.292  15.390  0.1716 -0.1952 -0.1156
 1237DOPC   C3A14513  22.397   1.967  15.350  0.0565  0.1677 -0.0102
 1237DOPC   C4A14514  21.937   2.072  15.364 -0.3030  0.2691 -0.0044
 1237DOPC   C1B14515  22.327   2.948  15.662  0.2801 -0.1566  0.0857
 1237DOPC   D2B14516  22.020   2.977  15.320  0.2928  0.0244  0.0069
 1237DOPC   C3B14517  21.831   2.658  15.146 -0.1083  0.0455  0.0816
 1237DOPC   C4B14518  21.620   2.284  14.951  0.1592  0.2094 -0.0522
 1238DOPE   NH314519  17.807   4.515  15.956 -0.0903 -0.2765 -0.5664
 1238DOPE   PO414520  17.648   4.312  16.130  0.1543  0.0440 -0.4108
 1238DOPE   GL114521  17.529   4.329  15.622 -0.0506  0.4733  0.2151
 1238DOPE   GL214522  17.359   4.495  15.413 -0.2310  0.0689  0.0473
 1238DOPE   C1A14523  17.493   4.079  15.213 -0.0867 -0.0273 -0.1007
 1238DOPE   D2A14524  17.534   3.846  14.780  0.0851 -0.3175  0.0991
 1238DOPE   C3A14525  17.734   3.945  14.391  0.0138 -0.3013  0.4801
 1238DOPE   C4A14526  17.808   3.891  13.908 -0.0952  0.1907 -0.2059
 1238DOPE   C1B14527  17.361   4.669  15.013 -0.1249  0.0320  0.1166
 1238DOPE   D2B14528  17.457   4.809  14.598 -0.0080  0.1115  0.1384
 1238DOPE   C3B14529  17.380   4.869  14.191  0.0175 -0.0643  0.1095
 1238DOPE   C4B14530  17.561   4.853  13.804  0.1896  0.0170  0.0497
 1239DOPE   NH314531  16.903   4.739  15.385 -0.0250  0.1436  0.0081
 1239DOPE   PO414532  16.603   4.646  15.323  0.1676 -0.1741  0.1702
 1239DOPE   GL114533  16.588   4.675  14.974  0.0020  0.1156  0.0273
 1239DOPE   GL214534  16.624   4.935  14.941 -0.1301 -0.0821 -0.2404
 1239DOPE   C1A14535  16.882   4.617  14.608 -0.0129 -0.0080 -0.0609
 1239DOPE   D2A14536  16.880   4.621  14.205  0.0172  0.0418  0.3352
 1239DOPE   C3A14537  16.621   4.339  13.895 -0.0866 -0.3475  0.0203
 1239DOPE   C4A14538  16.411   4.235  13.505  0.1418 -0.1994 -0.0245
 1239DOPE   C1B14539  16.235   4.982  14.716 -0.1867 -0.3790  0.2027
 1239DOPE   D2B14540  15.904   5.222  14.451 -0.1450  0.1574  0.3934
 1239DOPE   C3B14541  15.691   5.315  14.020  0.0287 -0.0895 -0.0081
 1239DOPE   C4B14542  15.676   5.479  13.566  0.1234  0.0504  0.0679
 1240DOPC   NC314543  20.089  10.312  15.350 -0.1540  0.1585 -0.3033
 1240DOPC   PO414544  19.797  10.510  15.540  0.1179 -0.2035  0.1443
 1240DOPC   GL114545  19.585  10.593  15.249 -0.1442 -0.1033  0.1628
 1240DOPC   GL214546  19.405  10.770  15.313  0.5048 -0.1676 -0.0059
 1240DOPC   C1A14547  19.574  10.589  14.769  0.0472 -0.0314 -0.1992
 1240DOPC   D2A14548  19.568  10.252  14.456 -0.1183  0.0543 -0.1126
 1240DOPC   C3A14549  19.412  10.364  14.056  0.3362  0.1953 -0.0746
 1240DOPC   C4A14550  18.996  10.173  13.858  0.0246 -0.2214  0.0043
 1240DOPC   C1B14551  19.695  10.987  15.009 -0.4570 -0.0525 -0.0444
 1240DOPC   D2B14552  19.943  11.287  14.923 -0.0419  0.1597 -0.0172
 1240DOPC   C3B14553  20.083  11.640  14.620  0.2196  0.0293  0.2459
 1240DOPC   C4B14554  20.178  11.852  14.247  0.0236 -0.0641 -0.0646
 1241POSM   NC314555  20.877   7.227  15.630  0.0364  0.1158 -0.2103
 1241POSM   PO414556  21.003   6.856  15.785 -0.1170 -0.0065  0.1103
 1241POSM   AM114557  20.892   6.789  15.500 -0.0704  0.0499  0.2873
 1241POSM   AM214558  21.057   6.651  15.289 -0.2471 -0.2018  0.0406
 1241POSM   T1A14559  20.501   6.580  15.157  0.0991 -0.0324 -0.0707
 1241POSM   C2A14560  20.335   6.571  14.715  0.1618  0.2229  0.0348
 1241POSM   C3A14561  20.340   6.768  14.272 -0.1322  0.2233  0.3211
 1241POSM   C1B14562  21.272   6.572  15.059  0.0921 -0.0768  0.0592
 1241POSM   D2B14563  21.713   6.589  14.939  0.1122  0.0365  0.1504
 1241POSM   C3B14564  21.765   6.903  14.694 -0.0609  0.1374  0.0891
 1241POSM   C4B14565  21.554   7.298  14.646  0.0039 -0.0473 -0.0389
 1242DOPE   NH314566  12.204   8.586  15.934 -0.3349  0.1319 -0.0333
 1242DOPE   PO414567  12.161   8.737  15.643 -0.3096  0.2424  0.1225
 1242DOPE   GL114568  12.282   9.052  15.419  0.1009  0.0481 -0.0846
 1242DOPE   GL214569  12.106   9.305  15.580 -0.0059  0.1360  0.0977
 1242DOPE   C1A14570  12.313   9.319  14.995  0.1468  0.1055 -0.0970
 1242DOPE   D2A14571  12.483   9.225  14.575  0.0498  0.3141  0.1109
 1242DOPE   C3A14572  12.472   9.635  14.484 -0.2021 -0.1290  0.0222
 1242DOPE   C4A14573  12.545  10.052  14.283  0.2998  0.1623 -0.1864
 1242DOPE   C1B14574  11.874   9.517  15.277  0.2069 -0.0986 -0.2383
 1242DOPE   D2B14575  11.756   9.518  14.852 -0.1935  0.2520  0.1988
 1242DOPE   C3B14576  11.566   9.599  14.411 -0.0840 -0.1130  0.0640
 1242DOPE   C4B14577  11.268   9.433  14.065 -0.2754 -0.1290 -0.1844
 1243DOPS   CNO14578  16.120   0.784  16.075  0.0061  0.0153  0.1409
 1243DOPS   PO414579  16.411   0.966  16.011  0.2175  0.1479 -0.0093
 1243DOPS   GL114580  16.284   0.945  15.647  0.3183 -0.6052 -0.1008
 1243DOPS   GL214581  15.970   0.989  15.686  0.0209  0.0333 -0.2327
 1243DOPS   C1A14582  16.208   0.923  15.192 -0.0460 -0.2002  0.0375
 1243DOPS   D2A14583  15.960   0.770  14.857  0.0355 -0.1194  0.0425
 1243DOPS   C3A14584  15.850   0.832  14.438  0.0656  0.1359  0.4188
 1243DOPS   C4A14585  15.913   0.708  14.011 -0.0048 -0.2066 -0.0203
 1243DOPS   C1B14586  16.125   1.438  15.540 -0.1345  0.2880 -0.1487
 1243DOPS   D2B14587  15.984   1.885  15.484  0.0030  0.0607  0.3128
 1243DOPS   C3B14588  15.979   1.903  15.008 -0.1251  0.0379 -0.1967
 1243DOPS   C4B14589  15.951   1.670  14.661  0.0960 -0.1846  0.0074
 1244POSM   NC314590  18.967   8.178  15.909  0.2318 -0.1897 -0.1553
 1244POSM   PO414591  18.838   7.972  15.574 -0.2347  0.1702  0.0180
 1244POSM   AM114592  18.709   7.882  15.253  0.2072  0.3477 -0.1866
 1244POSM   AM214593  18.652   8.006  15.015 -0.1771  0.1219  0.0713
 1244POSM   T1A14594  18.263   7.729  15.130  0.0532 -0.1215  0.1465
 1244POSM   C2A14595  17.972   7.592  14.803 -0.3030 -0.0195 -0.2993
 1244POSM   C3A14596  17.780   7.277  14.520 -0.0942  0.2363  0.1691
 1244POSM   C1B14597  18.587   8.315  14.835  0.0731 -0.0987  0.2065
 1244POSM   D2B14598  18.334   8.653  14.589  0.4501 -0.0387 -0.1548
 1244POSM   C3B14599  18.078   8.703  14.133  0.2912  0.0045  0.2991
 1244POSM   C4B14600  18.170   8.643  13.623  0.2471 -0.1299 -0.3091
 1245POSM   NC314601  15.420   8.335  15.624  0.0341  0.1733  0.0868
 1245POSM   PO414602  15.745   8.234  15.797 -0.0562  0.2581  0.2588
 1245POSM   AM114603  15.814   8.304  15.467  0.3332  0.1465 -0.1355
 1245POSM   AM214604  16.036   8.393  15.347  0.1755  0.0297 -0.0607
 1245POSM   T1A14605  15.593   8.344  15.059  0.3644 -0.0954  0.3859
 1245POSM   C2A14606  15.356   8.268  14.659 -0.3580  0.3073  0.1710
 1245POSM   C3A14607  15.069   8.136  14.280 -0.0596  0.1060 -0.2570
 1245POSM   C1B14608  16.086   8.393  14.981  0.0321  0.1389  0.1511
 1245POSM   D2B14609  15.843   8.463  14.599 -0.0475 -0.2929  0.0265
 1245POSM   C3B14610  15.774   8.618  14.195  0.1596 -0.1768 -0.0289
 1245POSM   C4B14611  15.710   8.533  13.711  0.1027 -0.1358 -0.1226
 1246DOPC   NC314612  13.692   0.580  15.920  0.1528  0.3615 -0.1455
 1246DOPC   PO414613  13.908   0.655  15.611  0.0546  0.0650 -0.0053
 1246DOPC   GL114614  13.857   0.406  15.253  0.0010  0.3468  0.1255
 1246DOPC   GL214615  14.076   0.229  15.294  0.4793  0.3053 -0.1654
 1246DOPC   C1A14616  13.786   0.085  14.888  0.0417 -0.0065 -0.0832
 1246DOPC   D2A14617  13.899   0.033  14.422 -0.1089  0.0891  0.0728
 1246DOPC   C3A14618  14.170   0.059  13.982  0.0820  0.3054 -0.1179
 1246DOPC   C4A14619  14.588  -0.141  13.843  0.0434  0.1611  0.0715
 1246DOPC   C1B14620  14.482   0.105  15.300  0.1598  0.0020 -0.0831
 1246DOPC   D2B14621  14.753   0.162  14.884 -0.0562  0.0032 -0.1652
 1246DOPC   C3B14622  14.877  -0.248  14.685  0.0014 -0.0387 -0.1771
 1246DOPC   C4B14623  14.908  -0.682  14.656 -0.0440 -0.4144 -0.0255
 1247DOPS   CNO14624  18.590   3.729  16.063 -0.0575 -0.2096  0.3497
 1247DOPS   PO414625  18.585   4.040  15.817  0.4555  0.3606 -0.0432
 1247DOPS   GL114626  18.741   4.162  15.489  0.4556 -0.1733 -0.0228
 1247DOPS   GL214627  18.768   4.459  15.568  0.1787  0.1109  0.1945
 1247DOPS   C1A14628  19.098   3.990  15.243 -0.0866 -0.0267  0.0756
 1247DOPS   D2A14629  19.316   3.678  14.953  0.1600 -0.1728  0.1842
 1247DOPS   C3A14630  19.663   3.527  14.651  0.5420 -0.1132  0.0588
 1247DOPS   C4A14631  19.654   3.667  14.219  0.1696  0.0621 -0.0431
 1247DOPS   C1B14632  18.938   4.488  15.114  0.2870 -0.2007 -0.1283
 1247DOPS   D2B14633  19.265   4.488  14.738 -0.2238  0.1888 -0.2131
 1247DOPS   C3B14634  19.261   4.743  14.312 -0.0571  0.0354  0.1319
 1247DOPS   C4B14635  19.380   5.130  14.155 -0.0471  0.0899  0.0976
 1248DOPE   NH314636  20.537   9.687  15.246  0.0096 -0.0518 -0.2049
 1248DOPE   PO414637  20.565   9.990  15.335 -0.4103 -0.1253  0.0046
 1248DOPE   GL114638  20.705  10.040  14.979  0.3635 -0.0873  0.1053
 1248DOPE   GL214639  20.594   9.821  14.779  0.1065 -0.1367 -0.1695
 1248DOPE   C1A14640  20.942  10.308  14.618 -0.0174 -0.2578 -0.0191
 1248DOPE   D2A14641  21.000  10.310  14.127  0.0474  0.4109  0.0289
 1248DOPE   C3A14642  21.226  10.708  14.059 -0.1234  0.1438 -0.0858
 1248DOPE   C4A14643  21.650  10.885  14.022 -0.2071  0.2674 -0.0065
 1248DOPE   C1B14644  20.701   9.675  14.305 -0.0539  0.1464  0.1446
 1248DOPE   D2B14645  20.558   9.637  13.864  0.0471  0.0127  0.0256
 1248DOPE   C3B14646  20.172   9.882  13.807  0.1677 -0.1930  0.2534
 1248DOPE   C4B14647  19.813  10.188  13.706  0.0311  0.0144  0.0181
 1249POSM   NC314648  21.438   5.509  15.636  0.1939  0.3010 -0.1370
 1249POSM   PO414649  21.577   5.877  15.708  0.1095 -0.0408 -0.1981
 1249POSM   AM114650  21.702   5.852  15.420 -0.0241 -0.0627  0.4546
 1249POSM   AM214651  21.969   5.919  15.273  0.4150  0.2074 -0.1846
 1249POSM   T1A14652  21.667   5.753  14.902  0.1353  0.3210  0.0189
 1249POSM   C2A14653  21.435   5.596  14.556  0.2254 -0.3890  0.3239
 1249POSM   C3A14654  21.070   5.479  14.295  0.1353  0.2169  0.1491
 1249POSM   C1B14655  22.056   6.105  14.980 -0.0436 -0.0304  0.0083
 1249POSM   D2B14656  22.121   6.444  14.649 -0.3499 -0.1258 -0.1797
 1249POSM   C3B14657  21.874   6.466  14.273 -0.3836 -0.3503 -0.3558
 1249POSM   C4B14658  21.625   6.293  13.907  0.0751  0.1115 -0.0229
 1250POSM   NC314659  23.606   2.077  16.153 -0.4300  0.1831  0.1795
 1250POSM   PO414660  23.370   2.065  15.866 -0.0365  0.0482 -0.0645
 1250POSM   AM114661  23.164   1.981  15.577  0.2387 -0.4459  0.4361
 1250POSM   AM214662  23.212   1.950  15.313  0.4139 -0.1172 -0.0815
 1250POSM   T1A14663  22.815   1.817  15.124 -0.2276  0.0659  0.0378
 1250POSM   C2A14664  22.635   1.828  14.699  0.0347 -0.0670  0.2353
 1250POSM   C3A14665  22.571   2.128  14.355 -0.1582 -0.0325 -0.0529
 1250POSM   C1B14666  23.121   2.204  15.074  0.1187  0.4847 -0.1807
 1250POSM   D2B14667  22.839   2.291  14.761 -0.3929  0.0422  0.1788
 1250POSM   C3B14668  22.550   2.590  14.544  0.1759  0.2809  0.1427
 1250POSM   C4B14669  22.413   2.776  14.198 -0.1070 -0.1226  0.1239
 1251DOPC   NC314670  12.887   7.982  16.295 -0.0811 -0.0492  0.1515
 1251DOPC   PO414671  12.956   7.624  16.219  0.2196  0.0018  0.0120
 1251DOPC   GL114672  12.916   7.786  15.766 -0.4678 -0.0607  0.1567
 1251DOPC   GL214673  13.013   8.075  15.757 -0.0146 -0.1011  0.0254
 1251DOPC   C1A14674  13.183   7.776  15.407  0.2931  0.1758 -0.3078
 1251DOPC   D2A14675  13.112   7.581  15.000  0.4511  0.1191  0.0359
 1251DOPC   C3A14676  12.656   7.462  14.820  0.0124 -0.5347 -0.3538
 1251DOPC   C4A14677  12.217   7.312  14.748 -0.3562 -0.0640  0.1450
 1251DOPC   C1B14678  13.054   8.347  15.400  0.1802 -0.1549  0.0839
 1251DOPC   D2B14679  13.157   8.719  15.150  0.2337 -0.1248 -0.3073
 1251DOPC   C3B14680  13.272   8.948  15.551  0.1605  0.1148 -0.1606
 1251DOPC   C4B14681  13.606   9.283  15.583 -0.1082 -0.1338  0.3445
 1252DOPC   NC314682  12.877   2.723  15.359 -0.0607  0.4597  0.0590
 1252DOPC   PO414683  13.257   2.631  15.458  0.2030 -0.0309 -0.0687
 1252DOPC   GL114684  13.121   2.395  15.133  0.3564 -0.2269  0.2029
 1252DOPC   GL214685  13.263   2.195  15.027 -0.0153 -0.1670  0.2191
 1252DOPC   C1A14686  13.042   2.606  14.726  0.1339 -0.1718 -0.2724
 1252DOPC   D2A14687  13.080   2.604  14.280 -0.0223 -0.1670 -0.1069
 1252DOPC   C3A14688  12.885   2.728  13.900  0.1752 -0.1987  0.0095
 1252DOPC   C4A14689  12.667   3.077  13.646 -0.1007  0.0970  0.0362
 1252DOPC   C1B14690  12.985   1.953  14.685 -0.1399  0.2485  0.1353
 1252DOPC   D2B14691  12.898   1.756  14.195 -0.1432  0.0025  0.0287
 1252DOPC   C3B14692  12.622   1.792  13.847 -0.0736 -0.2578  0.3059
 1252DOPC   C4B14693  12.425   1.747  13.461 -0.0350  0.1006  0.0445
 1253POSM   NC314694  17.795   0.014  16.215 -0.0124  0.0431 -0.1449
 1253POSM   PO414695  17.987   0.299  16.059 -0.1668 -0.1555  0.2475
 1253POSM   AM114696  18.038   0.282  15.708  0.2452 -0.0763  0.2261
 1253POSM   AM214697  18.081   0.412  15.484  0.1607 -0.1181  0.3256
 1253POSM   T1A14698  18.219  -0.034  15.344  0.1621  0.2558 -0.2864
 1253POSM   C2A14699  18.155  -0.419  15.020 -0.1674  0.2470 -0.1556
 1253POSM   C3A14700  18.303  -0.837  15.146 -0.0686 -0.0292 -0.0820
 1253POSM   C1B14701  18.110   0.461  15.154 -0.0098 -0.2020  0.0046
 1253POSM   D2B14702  17.888   0.517  14.760  0.3336  0.0198  0.2910
 1253POSM   C3B14703  17.720   0.878  14.521 -0.3058  0.1175 -0.0987
 1253POSM   C4B14704  17.624   1.286  14.433  0.2791  0.0072 -0.0676
 1254POSM   NC314705  22.572   5.589  15.801 -0.2632 -0.2602  0.0122
 1254POSM   PO414706  22.620   5.228  15.584 -0.1170 -0.1533  0.1052
 1254POSM   AM114707  22.803   5.114  15.370  0.1154 -0.0930  0.0626
 1254POSM   AM214708  23.073   5.181  15.208  0.0283 -0.1341 -0.2423
 1254POSM   T1A14709  22.756   4.751  15.020  0.0840 -0.0412  0.0312
 1254POSM   C2A14710  22.609   4.763  14.541 -0.1026  0.2983 -0.4303
 1254POSM   C3A14711  22.423   5.025  14.226 -0.0753  0.3451  0.1036
 1254POSM   C1B14712  22.941   5.188  14.855  0.2223 -0.0284 -0.2864
 1254POSM   D2B14713  22.621   5.327  14.619 -0.1079 -0.0293  0.0448
 1254POSM   C3B14714  22.836   5.476  14.186  0.0534  0.2265  0.2652
 1254POSM   C4B14715  23.213   5.722  14.043  0.0776 -0.0699 -0.4218
 1255DOPE   NH314716  21.060  10.083  15.557 -0.0828  0.2777  0.2148
 1255DOPE   PO414717  21.310  10.274  15.488 -0.2792 -0.0886  0.1529
 1255DOPE   GL114718  21.478  10.149  15.159 -0.3657  0.0911 -0.1749
 1255DOPE   GL214719  21.339  10.162  14.909 -0.0996  0.1378 -0.0760
 1255DOPE   C1A14720  21.723  10.431  14.834  0.4345 -0.1117 -0.2450
 1255DOPE   D2A14721  21.935  10.638  14.492 -0.2217 -0.1484 -0.1554
 1255DOPE   C3A14722  22.105  10.385  14.082 -0.0630 -0.1927 -0.0786
 1255DOPE   C4A14723  21.900  10.393  13.663 -0.2157  0.2131 -0.0415
 1255DOPE   C1B14724  21.429  10.278  14.479 -0.0127 -0.2392  0.3107
 1255DOPE   D2B14725  21.606  10.384  14.040 -0.1529  0.0528  0.0901
 1255DOPE   C3B14726  21.301  10.404  13.698 -0.1736  0.3155  0.1502
 1255DOPE   C4B14727  20.891  10.537  13.605 -0.0250 -0.5041  0.2966
 1256DOPC   NC314728  18.313   9.247  15.690  0.1133 -0.0665 -0.1904
 1256DOPC   PO414729  18.344   9.623  15.718  0.1602  0.0840  0.1689
 1256DOPC   GL114730  18.271   9.541  15.282 -0.3956 -0.2474 -0.2518
 1256DOPC   GL214731  18.532   9.487  15.102  0.2221  0.2028 -0.0295
 1256DOPC   C1A14732  18.061   9.917  15.050 -0.0377  0.4707  0.0995
 1256DOPC   D2A14733  17.707  10.279  14.881  0.1276  0.2910  0.0406
 1256DOPC   C3A14734  17.512  10.204  14.410 -0.0854  0.0754 -0.3019
 1256DOPC   C4A14735  17.519   9.977  13.995 -0.0471  0.2025 -0.0968
 1256DOPC   C1B14736  18.589   9.322  14.629 -0.1862  0.1624 -0.1427
 1256DOPC   D2B14737  18.795   9.121  14.223  0.1058 -0.0136  0.2287
 1256DOPC   C3B14738  19.104   9.202  13.867  0.0431  0.2935  0.3233
 1256DOPC   C4B14739  19.432   8.953  13.719  0.0533  0.1711 -0.1538
 1257DOPE   NH314740  19.665   5.814  16.008  0.0013 -0.1290 -0.1973
 1257DOPE   PO414741  19.346   5.717  15.973  0.2569 -0.1281 -0.1711
 1257DOPE   GL114742  18.994   5.744  15.773  0.3049 -0.1565  0.0648
 1257DOPE   GL214743  19.005   5.565  15.642 -0.1307 -0.2557 -0.2206
 1257DOPE   C1A14744  19.128   5.899  15.348 -0.1802 -0.2773  0.2147
 1257DOPE   D2A14745  19.177   6.362  15.117 -0.1855 -0.1491  0.2282
 1257DOPE   C3A14746  18.893   6.428  14.742 -0.3284 -0.0958 -0.0408
 1257DOPE   C4A14747  18.746   6.258  14.337  0.3594  0.0418  0.0198
 1257DOPE   C1B14748  19.201   5.408  15.279  0.1799  0.0260  0.0698
 1257DOPE   D2B14749  19.255   5.577  14.880  0.1746 -0.1859  0.1985
 1257DOPE   C3B14750  19.335   5.622  14.407 -0.1270  0.0428  0.1228
 1257DOPE   C4B14751  19.038   5.522  14.081 -0.0492  0.0391  0.0995
 1258DOPE   NH314752  22.981   3.490  16.062 -0.2100 -0.2131  0.1790
 1258DOPE   PO414753  22.733   3.693  16.077  0.2232 -0.0391  0.1862
 1258DOPE   GL114754  22.662   3.601  15.706 -0.2524  0.3531 -0.1240
 1258DOPE   GL214755  22.794   3.825  15.551  0.0929  0.0504  0.0148
 1258DOPE   C1A14756  22.307   3.396  15.460 -0.1216  0.3231 -0.1051
 1258DOPE   D2A14757  22.501   3.107  15.154  0.1922  0.0754 -0.2603
 1258DOPE   C3A14758  22.274   2.945  14.803 -0.1080  0.3200  0.0918
 1258DOPE   C4A14759  21.953   3.129  14.546  0.2730 -0.2600 -0.0027
 1258DOPE   C1B14760  22.698   3.562  15.217 -0.3079  0.1017  0.0256
 1258DOPE   D2B14761  22.465   3.614  14.791  0.0452  0.0636 -0.0614
 1258DOPE   C3B14762  22.351   3.884  14.459 -0.2393 -0.1773 -0.0142
 1258DOPE   C4B14763  22.543   4.196  14.161 -0.3325 -0.1191  0.2616
 1259DOPE   NH314764  18.854   2.946  15.931  0.1219 -0.1704  0.1266
 1259DOPE   PO414765  19.202   2.888  15.952 -0.1958  0.1012 -0.0707
 1259DOPE   GL114766  19.321   2.994  15.565  0.0156  0.0259  0.0642
 1259DOPE   GL214767  19.052   3.134  15.529 -0.0905  0.5010 -0.2280
 1259DOPE   C1A14768  19.333   3.065  15.096 -0.1167  0.2213 -0.0622
 1259DOPE   D2A14769  19.496   2.830  14.732 -0.1153 -0.1310 -0.1364
 1259DOPE   C3A14770  19.246   2.770  14.346  0.0566  0.1538 -0.1463
 1259DOPE   C4A14771  19.225   2.873  13.882 -0.2124 -0.3889 -0.0427
 1259DOPE   C1B14772  18.775   2.836  15.310  0.2627 -0.0393 -0.2408
 1259DOPE   D2B14773  18.577   2.602  14.981 -0.0020  0.1254  0.0923
 1259DOPE   C3B14774  18.386   2.787  14.561  0.1926 -0.3984  0.0304
 1259DOPE   C4B14775  18.204   2.746  14.116  0.0557 -0.0202 -0.1345
 1260DOPS   CNO14776  12.688   5.044  16.245 -0.2701  0.1518  0.3115
 1260DOPS   PO414777  12.968   4.905  16.017 -0.1224  0.0548 -0.2247
 1260DOPS   GL114778  12.919   5.152  15.594 -0.3052 -0.0860  0.0691
 1260DOPS   GL214779  12.975   4.911  15.477 -0.1006  0.1644 -0.2863
 1260DOPS   C1A14780  13.164   5.407  15.328  0.1906 -0.0863  0.1419
 1260DOPS   D2A14781  13.027   5.662  15.001  0.1767 -0.1712  0.1843
 1260DOPS   C3A14782  13.167   5.715  14.585  0.0143  0.2647 -0.1591
 1260DOPS   C4A14783  13.251   5.927  14.161  0.1313 -0.2677  0.1292
 1260DOPS   C1B14784  12.830   4.965  15.043 -0.1419  0.1321  0.1240
 1260DOPS   D2B14785  12.846   5.288  14.698  0.2204  0.1264 -0.0223
 1260DOPS   C3B14786  12.770   5.235  14.304 -0.0894 -0.3078 -0.2262
 1260DOPS   C4B14787  12.524   5.429  13.992  0.1475  0.1039 -0.0912
 1261DOPE   NH314788  17.658   6.572  15.856 -0.1692 -0.1525 -0.0214
 1261DOPE   PO414789  17.560   6.816  15.710  0.2197  0.1331  0.3896
 1261DOPE   GL114790  17.520   6.725  15.345 -0.3172  0.1597 -0.1922
 1261DOPE   GL214791  17.623   6.613  15.105  0.2410  0.3117  0.1164
 1261DOPE   C1A14792  17.545   7.056  15.014 -0.0902  0.2344  0.1328
 1261DOPE   D2A14793  17.461   7.501  14.883 -0.1062 -0.0456 -0.1152
 1261DOPE   C3A14794  17.323   7.634  14.515  0.0297 -0.2062 -0.1594
 1261DOPE   C4A14795  17.454   7.731  14.185  0.0087 -0.1566  0.1467
 1261DOPE   C1B14796  17.728   6.751  14.661 -0.0487  0.2532 -0.1532
 1261DOPE   D2B14797  18.170   6.731  14.454  0.0189 -0.1824  0.3402
 1261DOPE   C3B14798  18.038   7.009  14.071 -0.0839  0.0440  0.0739
 1261DOPE   C4B14799  17.767   7.128  13.750  0.0401  0.1516  0.2513
 1262DOPE   NH314800  14.571   6.859  16.116  0.1191 -0.0178  0.0319
 1262DOPE   PO414801  14.613   6.658  15.849  0.1655 -0.4010  0.3092
 1262DOPE   GL114802  14.792   6.418  15.676 -0.1820 -0.0014  0.1578
 1262DOPE   GL214803  15.116   6.421  15.582 -0.2506  0.1860  0.3196
 1262DOPE   C1A14804  14.745   6.550  15.245  0.0209  0.0225 -0.0975
 1262DOPE   D2A14805  14.430   6.476  14.930 -0.1167  0.1012 -0.1449
 1262DOPE   C3A14806  14.416   6.756  14.532 -0.3793 -0.3811  0.3697
 1262DOPE   C4A14807  14.780   7.094  14.386  0.2665  0.0569  0.0698
 1262DOPE   C1B14808  15.231   6.323  15.159 -0.1077 -0.0483  0.1340
 1262DOPE   D2B14809  15.090   6.426  14.716 -0.1974  0.1537  0.2966
 1262DOPE   C3B14810  15.207   6.278  14.244 -0.0127  0.0400 -0.0958
 1262DOPE   C4B14811  15.560   6.223  13.954  0.1456  0.2395  0.2606
 1263POSM   NC314812  14.498   0.774  16.088 -0.0563 -0.1526 -0.3095
 1263POSM   PO414813  14.808   0.919  15.849  0.2702  0.0414  0.0325
 1263POSM   AM114814  14.966   0.752  15.617 -0.3176 -0.0292 -0.1893
 1263POSM   AM214815  15.143   0.863  15.421 -0.0098  0.2035 -0.1607
 1263POSM   T1A14816  15.194   0.329  15.430  0.0141 -0.0850  0.4034
 1263POSM   C2A14817  14.966  -0.055  15.286  0.2301  0.0771  0.3003
 1263POSM   C3A14818  14.620  -0.326  15.146 -0.0211  0.0644 -0.0917
 1263POSM   C1B14819  15.190   0.983  15.088  0.1451 -0.0271  0.1320
 1263POSM   D2B14820  15.362   0.891  14.679 -0.2109 -0.1312  0.0158
 1263POSM   C3B14821  15.274   0.704  14.285  0.1285  0.2974  0.1783
 1263POSM   C4B14822  15.404   0.567  13.872  0.0738 -0.0793  0.3063
 1264POSM   NC314823  15.974   3.606  15.865 -0.2757  0.0730 -0.1707
 1264POSM   PO414824  16.328   3.838  15.925  0.2951 -0.2731  0.0903
 1264POSM   AM114825  16.402   3.757  15.637  0.0485  0.0379 -0.1527
 1264POSM   AM214826  16.358   3.527  15.501 -0.0083  0.2931  0.0191
 1264POSM   T1A14827  16.565   3.855  15.213  0.4151  0.1494 -0.2122
 1264POSM   C2A14828  16.617   4.047  14.784 -0.0242 -0.0224  0.1739
 1264POSM   C3A14829  16.751   4.163  14.340 -0.1742 -0.1417  0.0396
 1264POSM   C1B14830  16.385   3.399  15.219 -0.0407  0.0110 -0.3112
 1264POSM   D2B14831  16.597   3.529  14.790  0.1903  0.1406 -0.0033
 1264POSM   C3B14832  16.313   3.159  14.548  0.1761  0.3080  0.2192
 1264POSM   C4B14833  16.341   2.879  14.149 -0.0763 -0.2229 -0.0359
 1265DOPC   NC314834  17.360   6.291  15.469 -0.2586  0.1231  0.3325
 1265DOPC   PO414835  17.160   5.967  15.420  0.1100 -0.2520 -0.1973
 1265DOPC   GL114836  17.351   6.039  15.055  0.3285  0.1928  0.2315
 1265DOPC   GL214837  17.679   6.029  15.184 -0.1808 -0.1966  0.1823
 1265DOPC   C1A14838  17.389   5.781  14.660 -0.2288 -0.1803  0.1199
 1265DOPC   D2A14839  17.544   5.397  14.391  0.0806  0.1296 -0.2761
 1265DOPC   C3A14840  17.264   5.364  13.968 -0.2435 -0.0871  0.0130
 1265DOPC   C4A14841  16.976   5.059  13.909 -0.4693 -0.0940  0.0014
 1265DOPC   C1B14842  17.764   6.265  14.763  0.3748  0.1649  0.2935
 1265DOPC   D2B14843  17.705   6.320  14.332 -0.1439 -0.2361 -0.0269
 1265DOPC   C3B14844  18.081   6.077  14.137 -0.2190 -0.2880 -0.0605
 1265DOPC   C4B14845  18.458   6.082  13.886  0.0821  0.0282  0.0718
 1266DOPC   NC314846  15.953   8.656  15.757  0.1564  0.0685 -0.2657
 1266DOPC   PO414847  15.602   8.763  15.792 -0.3012  0.0007 -0.1571
 1266DOPC   GL114848  15.559   8.680  15.331 -0.1805  0.5130 -0.2356
 1266DOPC   GL214849  15.781   8.883  15.288  0.2940 -0.1920  0.0734
 1266DOPC   C1A14850  15.220   8.856  15.104 -0.1061 -0.0572  0.0650
 1266DOPC   D2A14851  14.943   9.117  14.820 -0.0156 -0.1255  0.0511
 1266DOPC   C3A14852  14.709   8.956  14.400 -0.0432 -0.1775  0.1635
 1266DOPC   C4A14853  14.786   8.550  14.168 -0.1496  0.3862 -0.1285
 1266DOPC   C1B14854  15.784   8.869  14.881 -0.2437 -0.0684  0.0016
 1266DOPC   D2B14855  15.534   8.908  14.509  0.0182  0.1291 -0.3768
 1266DOPC   C3B14856  15.315   8.533  14.285 -0.3049 -0.0353 -0.0767
 1266DOPC   C4B14857  15.366   8.288  13.929 -0.2888  0.1861  0.1258
 1267POSM   NC314858  13.577   9.890  15.602  0.1538  0.1023 -0.1099
 1267POSM   PO414859  13.824  10.131  15.838  0.2900 -0.1517  0.3023
 1267POSM   AM114860  13.975  10.151  15.531 -0.1183 -0.1169 -0.2381
 1267POSM   AM214861  14.176  10.001  15.402  0.0558 -0.2413  0.0271
 1267POSM   T1A14862  13.908  10.186  15.043  0.0368 -0.0482  0.0626
 1267POSM   C2A14863  13.733  10.131  14.641 -0.0160  0.2747  0.0406
 1267POSM   C3A14864  13.781  10.139  14.241  0.0143 -0.2640 -0.3559
 1267POSM   C1B14865  14.301   9.846  15.089 -0.0951  0.2355 -0.2702
 1267POSM   D2B14866  14.210   9.641  14.682  0.1725 -0.0545  0.0551
 1267POSM   C3B14867  14.188   9.337  14.320  0.0814  0.0524  0.2667
 1267POSM   C4B14868  14.019   8.927  14.165  0.2191  0.0129  0.1565
 1268DOPC   NC314869  20.420   2.191  16.538 -0.0154 -0.0675 -0.1278
 1268DOPC   PO414870  20.482   2.479  16.273 -0.1217  0.0187  0.1680
 1268DOPC   GL114871  20.700   2.601  15.954  0.2162  0.0395 -0.3204
 1268DOPC   GL214872  20.704   2.873  15.804 -0.2647  0.2082 -0.0998
 1268DOPC   C1A14873  20.807   2.328  15.570  0.1438 -0.2674 -0.2361
 1268DOPC   D2A14874  21.044   2.244  15.242 -0.0471  0.0073 -0.0448
 1268DOPC   C3A14875  21.168   2.180  14.736  0.1199  0.0167  0.0816
 1268DOPC   C4A14876  21.285   2.506  14.374  0.0677  0.0291  0.1170
 1268DOPC   C1B14877  21.016   2.891  15.450  0.1690 -0.0885  0.1112
 1268DOPC   D2B14878  21.035   3.118  15.054 -0.2079 -0.1448  0.0568
 1268DOPC   C3B14879  21.250   3.095  14.617  0.2038  0.2180 -0.2392
 1268DOPC   C4B14880  21.054   2.948  14.243 -0.2230  0.0171  0.0574
 1269POSM   NC314881  11.213   8.127  15.358 -0.0522  0.2528 -0.3729
 1269POSM   PO414882  11.242   7.709  15.385 -0.0389  0.0036 -0.0226
 1269POSM   AM114883  11.520   7.654  15.257 -0.2797  0.3322 -0.1173
 1269POSM   AM214884  11.705   7.877  15.154  0.1201 -0.0375  0.2080
 1269POSM   T1A14885  11.796   7.331  14.993 -0.0403 -0.0379 -0.0597
 1269POSM   C2A14886  11.961   6.901  14.958 -0.0940 -0.0315 -0.2894
 1269POSM   C3A14887  12.129   6.587  14.699  0.0581  0.2763  0.0619
 1269POSM   C1B14888  11.753   7.883  14.817  0.1194 -0.0946  0.0108
 1269POSM   D2B14889  11.809   7.876  14.390 -0.0592  0.0526  0.2257
 1269POSM   C3B14890  12.046   7.570  14.190 -0.0266  0.1865  0.0693
 1269POSM   C4B14891  11.807   7.626  13.770 -0.3851  0.1627 -0.0703
 1270DOPC   NC314892  15.125   5.341  16.240 -0.4471  0.0867  0.0527
 1270DOPC   PO414893  15.055   5.099  15.943  0.0692  0.0634  0.0268
 1270DOPC   GL114894  14.994   5.063  15.609  0.1297 -0.1916  0.3364
 1270DOPC   GL214895  14.720   5.111  15.510 -0.4323  0.1153 -0.2441
 1270DOPC   C1A14896  15.043   5.060  15.112  0.0893 -0.2805 -0.0311
 1270DOPC   D2A14897  15.093   5.180  14.639  0.0986 -0.5720  0.0168
 1270DOPC   C3A14898  15.360   5.498  14.412 -0.0713 -0.0815 -0.1668
 1270DOPC   C4A14899  15.369   5.665  13.927  0.0272  0.0400 -0.1232
 1270DOPC   C1B14900  14.473   5.038  15.144  0.2089 -0.1350 -0.1601
 1270DOPC   D2B14901  14.376   5.183  14.672  0.0697 -0.2548 -0.2829
 1270DOPC   C3B14902  14.607   4.891  14.424  0.1171 -0.2277  0.0514
 1270DOPC   C4B14903  15.008   4.703  14.395 -0.0544 -0.0189  0.0357
 1271POSM   NC314904  13.220  10.711  15.574 -0.0966  0.1359 -0.0628
 1271POSM   PO414905  12.889  10.924  15.571 -0.1969  0.1310 -0.0186
 1271POSM   AM114906  12.699  10.941  15.273  0.0277 -0.0306  0.0855
 1271POSM   AM214907  12.668  10.713  15.094  0.0420 -0.1704 -0.4518
 1271POSM   T1A14908  12.492  11.116  14.868  0.3054 -0.1273 -0.2072
 1271POSM   C2A14909  12.242  10.964  14.538 -0.3210  0.1536  0.0386
 1271POSM   C3A14910  11.957  11.271  14.404  0.4826  0.2429  0.2190
 1271POSM   C1B14911  12.656  10.682  14.774  0.0290  0.1115  0.3138
 1271POSM   D2B14912  12.473  10.556  14.364  0.3213  0.0133  0.0168
 1271POSM   C3B14913  12.545  10.461  13.972 -0.0087  0.2929 -0.2077
 1271POSM   C4B14914  12.500  10.110  13.684 -0.0327 -0.1600  0.3856
 1272DOPE   NH314915  14.940   7.116  15.925 -0.2392 -0.0258 -0.3470
 1272DOPE   PO414916  15.167   6.906  15.814  0.0232 -0.0704  0.0092
 1272DOPE   GL114917  15.380   7.055  15.554  0.0265  0.1190  0.2008
 1272DOPE   GL214918  15.499   6.819  15.395 -0.0639 -0.4148  0.1370
 1272DOPE   C1A14919  15.375   7.305  15.147  0.1729  0.0186 -0.1466
 1272DOPE   D2A14920  15.232   7.192  14.764 -0.1449  0.2237  0.2291
 1272DOPE   C3A14921  15.268   6.798  14.469 -0.1288  0.0039  0.0884
 1272DOPE   C4A14922  15.418   6.697  14.012 -0.2508  0.2522  0.0679
 1272DOPE   C1B14923  15.149   6.775  15.095 -0.2162 -0.0043 -0.0623
 1272DOPE   D2B14924  14.822   6.866  14.819  0.2005  0.2453  0.2249
 1272DOPE   C3B14925  14.523   7.252  14.785  0.1629  0.2726  0.1454
 1272DOPE   C4B14926  14.121   7.326  14.996 -0.0909 -0.0669  0.1174
 1273DOPC   NC314927  22.979   2.497  15.840 -0.2077  0.1646  0.0339
 1273DOPC   PO414928  22.857   2.155  15.940 -0.2764 -0.3701  0.1916
 1273DOPC   GL114929  22.543   2.309  15.964  0.0838  0.1765 -0.2633
 1273DOPC   GL214930  22.453   2.536  15.832  0.2997 -0.0916  0.0952
 1273DOPC   C1A14931  22.053   2.184  15.889  0.1393  0.3011 -0.1820
 1273DOPC   D2A14932  21.771   1.795  15.748 -0.2254  0.3778  0.2083
 1273DOPC   C3A14933  21.571   1.573  15.424  0.3261  0.1637 -0.1814
 1273DOPC   C4A14934  21.228   1.311  15.207 -0.1136  0.1035  0.1383
 1273DOPC   C1B14935  22.175   2.530  15.453 -0.2489 -0.2889  0.2016
 1273DOPC   D2B14936  22.383   2.494  15.049 -0.1126  0.0894  0.1690
 1273DOPC   C3B14937  22.109   2.478  14.714  0.0455  0.2600 -0.3862
 1273DOPC   C4B14938  21.878   2.660  14.312 -0.0103  0.2839 -0.3226
 1274DOPC   NC314939  18.220   0.695  15.920 -0.2466  0.2370  0.1496
 1274DOPC   PO414940  17.887   0.784  15.758  0.1055 -0.1783  0.1441
 1274DOPC   GL114941  18.138   1.041  15.498 -0.1967  0.2683  0.2692
 1274DOPC   GL214942  18.278   0.848  15.387 -0.1780  0.0923 -0.0663
 1274DOPC   C1A14943  18.388   1.281  15.209 -0.1282  0.2034  0.1333
 1274DOPC   D2A14944  18.310   1.446  14.771 -0.0548 -0.0348  0.0375
 1274DOPC   C3A14945  18.278   1.426  14.294  0.1460  0.1188 -0.0871
 1274DOPC   C4A14946  18.569   1.457  13.907  0.1447 -0.3867 -0.0158
 1274DOPC   C1B14947  18.378   0.775  14.965 -0.0547  0.4069 -0.1367
 1274DOPC   D2B14948  18.344   0.533  14.574  0.1095  0.1821  0.2180
 1274DOPC   C3B14949  18.611   0.195  14.444  0.2530  0.0169 -0.2294
 1274DOPC   C4B14950  18.983  -0.098  14.293 -0.3882 -0.2421  0.0066
 1275DOPC   NC314951  15.431   4.960  15.642  0.1240  0.1502 -0.2766
 1275DOPC   PO414952  15.686   4.723  15.717  0.2908  0.0226 -0.0883
 1275DOPC   GL114953  15.712   4.662  15.407 -0.1972  0.0117 -0.1254
 1275DOPC   GL214954  15.472   4.601  15.249 -0.1476  0.0179  0.0109
 1275DOPC   C1A14955  15.794   5.111  15.255  0.0357 -0.0790  0.1028
 1275DOPC   D2A14956  15.943   5.392  14.945  0.0785 -0.0351 -0.1271
 1275DOPC   C3A14957  15.771   5.658  14.637  0.1303  0.0470  0.1122
 1275DOPC   C4A14958  15.639   5.902  14.304 -0.0215 -0.0011 -0.2077
 1275DOPC   C1B14959  15.355   4.544  14.776 -0.0791  0.3293 -0.1391
 1275DOPC   D2B14960  15.560   4.295  14.416 -0.4662 -0.0416  0.2416
 1275DOPC   C3B14961  15.509   4.495  13.963  0.0405  0.2357  0.0087
 1275DOPC   C4B14962  15.535   4.895  13.786  0.4050  0.1241  0.3874
 1276DOPC   NC314963  20.779   7.783  15.529 -0.1638 -0.2258 -0.2100
 1276DOPC   PO414964  21.050   8.003  15.672  0.2900 -0.0303  0.0971
 1276DOPC   GL114965  21.190   8.271  15.404 -0.0760  0.1339 -0.0163
 1276DOPC   GL214966  21.175   7.993  15.150  0.0701 -0.3807 -0.0467
 1276DOPC   C1A14967  21.127   8.420  14.911  0.0028  0.1626 -0.1729
 1276DOPC   D2A14968  20.964   8.332  14.474  0.0744  0.2754 -0.0492
 1276DOPC   C3A14969  21.054   8.244  14.028  0.2022  0.3351 -0.0353
 1276DOPC   C4A14970  21.184   8.142  13.595 -0.0049  0.0146  0.0190
 1276DOPC   C1B14971  21.477   7.933  14.782 -0.0701 -0.0367 -0.0934
 1276DOPC   D2B14972  21.780   7.745  14.522  0.1170  0.2400 -0.0784
 1276DOPC   C3B14973  21.722   7.754  14.055 -0.1185 -0.0592 -0.0766
 1276DOPC   C4B14974  21.676   7.980  13.663 -0.3968 -0.1242  0.2134
 1277DOPS   CNO14975  17.352   4.730  15.940  0.3156 -0.0753 -0.1958
 1277DOPS   PO414976  17.523   4.935  15.610  0.4952 -0.3106  0.2123
 1277DOPS   GL114977  17.671   4.973  15.243 -0.1359  0.3193 -0.3747
 1277DOPS   GL214978  17.766   5.218  15.263  0.3579  0.0104 -0.0297
 1277DOPS   C1A14979  17.900   4.995  14.807  0.3427  0.0836 -0.6238
 1277DOPS   D2A14980  17.935   5.004  14.328  0.0880  0.1622 -0.1150
 1277DOPS   C3A14981  18.412   5.083  14.133 -0.0361 -0.0163 -0.1935
 1277DOPS   C4A14982  18.840   5.116  14.307 -0.2426  0.1447  0.3808
 1277DOPS   C1B14983  17.769   5.519  14.961 -0.1356 -0.0166  0.4049
 1277DOPS   D2B14984  17.883   5.817  14.571  0.3372  0.0502  0.2563
 1277DOPS   C3B14985  17.618   5.834  14.185  0.1789 -0.1535 -0.1376
 1277DOPS   C4B14986  17.173   5.923  14.097 -0.2724 -0.2822 -0.0334
 1278DOPC   NC314987  17.884   3.444  15.570 -0.1408  0.0722 -0.2009
 1278DOPC   PO414988  18.215   3.676  15.651  0.2393 -0.0830 -0.0970
 1278DOPC   GL114989  18.232   3.821  15.310  0.0403  0.0575 -0.2949
 1278DOPC   GL214990  17.908   3.825  15.227  0.2098  0.1758  0.4117
 1278DOPC   C1A14991  18.511   3.774  14.954  0.0132 -0.1694 -0.0121
 1278DOPC   D2A14992  18.871   3.458  15.007 -0.2481 -0.2481  0.0527
 1278DOPC   C3A14993  19.141   3.300  14.692  0.3211  0.2285  0.3997
 1278DOPC   C4A14994  19.161   3.288  14.197 -0.1001  0.2095  0.0327
 1278DOPC   C1B14995  18.013   4.058  14.841 -0.1327 -0.0271 -0.0620
 1278DOPC   D2B14996  18.266   4.186  14.452  0.2183  0.3055  0.0581
 1278DOPC   C3B14997  18.673   4.168  14.292  0.1425  0.3173 -0.1337
 1278DOPC   C4B14998  19.101   4.104  14.106  0.0165  0.1307 -0.4425
 1279DOPS   CNO14999  19.109   7.677  15.285 -0.5096  0.1450  0.0998
 1279DOPS   PO415000  19.183   7.346  15.442 -0.2049 -0.3231  0.1498
 1279DOPS   GL115001  18.997   7.189  15.110 -0.3270  0.3276  0.1466
 1279DOPS   GL215002  18.821   7.361  15.061  0.0270 -0.0867 -0.2116
 1279DOPS   C1A15003  19.007   7.186  14.638 -0.3724  0.1484 -0.1680
 1279DOPS   D2A15004  18.866   7.302  14.202  0.2402  0.0500 -0.3169
 1279DOPS   C3A15005  19.175   7.482  13.927 -0.1196  0.3510 -0.2902
 1279DOPS   C4A15006  19.278   7.843  13.678 -0.2331 -0.2137 -0.0652
 1279DOPS   C1B15007  18.520   7.577  14.751 -0.0134  0.0980  0.1480
 1279DOPS   D2B15008  18.301   7.965  14.663 -0.3071  0.1706 -0.1888
 1279DOPS   C3B15009  17.892   7.903  14.431  0.0087  0.1395 -0.1637
 1279DOPS   C4B15010  17.790   8.122  14.034 -0.2278 -0.0693 -0.0876
 1280POSM   NC315011  23.613   1.070  16.042 -0.0613  0.2646  0.2248
 1280POSM   PO415012  23.497   0.863  15.688  0.2082 -0.1125 -0.1134
 1280POSM   AM115013  23.478   0.652  15.459 -0.2266  0.0599 -0.1529
 1280POSM   AM215014  23.623   0.405  15.372  0.3612  0.0802 -0.0078
 1280POSM   T1A15015  23.487   0.669  14.959  0.1776 -0.0979  0.1213
 1280POSM   C2A15016  23.577   0.806  14.557  0.0986 -0.2450 -0.3498
 1280POSM   C3A15017  23.931   0.680  14.289 -0.2690 -0.2732 -0.1528
 1280POSM   C1B15018  23.374   0.244  15.187  0.2928  0.1239  0.1204
 1280POSM   D2B15019  23.172   0.022  14.834  0.0215 -0.0479  0.2667
 1280POSM   C3B15020  23.241   0.105  14.385 -0.0479  0.0720  0.1738
 1280POSM   C4B15021  23.164   0.514  14.381  0.0027 -0.1478 -0.2162
 1281DOPS   CNO15022  16.505   4.977  15.726  0.0702 -0.1135 -0.2021
 1281DOPS   PO415023  16.281   4.665  15.731  0.2869  0.2464 -0.2384
 1281DOPS   GL115024  16.107   4.472  15.376  0.0573 -0.3189 -0.1585
 1281DOPS   GL215025  16.256   4.282  15.168 -0.2575 -0.0191 -0.0233
 1281DOPS   C1A15026  15.978   4.658  14.968  0.2485 -0.2504  0.1715
 1281DOPS   D2A15027  15.913   4.606  14.521  0.3235  0.0476  0.0319
 1281DOPS   C3A15028  16.058   4.782  14.178 -0.0173 -0.0939 -0.0948
 1281DOPS   C4A15029  16.069   5.038  13.789  0.3039 -0.0025  0.1998
 1281DOPS   C1B15030  16.331   4.400  14.731 -0.0050  0.1284 -0.1882
 1281DOPS   D2B15031  16.430   4.555  14.342  0.0920 -0.2629  0.3871
 1281DOPS   C3B15032  16.172   4.336  14.022  0.1118  0.1189  0.2044
 1281DOPS   C4B15033  15.973   4.479  13.639  0.0995 -0.3750  0.1746
 1282DOPS   CNO15034  12.545   2.828  15.725 -0.0567  0.3947 -0.0661
 1282DOPS   PO415035  12.177   2.911  15.676  0.1837 -0.0783 -0.0471
 1282DOPS   GL115036  12.309   2.922  15.272  0.1951 -0.2476  0.0864
 1282DOPS   GL215037  12.191   3.053  15.137  0.0425 -0.0187  0.0250
 1282DOPS   C1A15038  12.444   2.728  14.828  0.2067 -0.0854 -0.0207
 1282DOPS   D2A15039  12.654   2.801  14.445 -0.1247  0.1777 -0.1190
 1282DOPS   C3A15040  12.424   2.639  14.125  0.0532  0.0323  0.2228
 1282DOPS   C4A15041  12.396   2.216  13.865 -0.1226  0.4308 -0.2195
 1282DOPS   C1B15042  12.320   3.197  14.738  0.3045 -0.3590 -0.3506
 1282DOPS   D2B15043  12.341   3.115  14.297  0.1776 -0.0065 -0.2846
 1282DOPS   C3B15044  12.096   3.056  13.901  0.1129 -0.3282  0.1752
 1282DOPS   C4B15045  12.375   2.709  13.637 -0.0348  0.1655  0.1031
 1283DOPE   NH315046  14.799   4.671  15.871  0.0334 -0.2959  0.2127
 1283DOPE   PO415047  15.082   4.611  15.894  0.0771 -0.2632  0.2047
 1283DOPE   GL115048  15.114   4.580  15.527 -0.1615 -0.0341 -0.1431
 1283DOPE   GL215049  14.844   4.657  15.353  0.2008  0.0217 -0.2031
 1283DOPE   C1A15050  15.155   4.232  15.293  0.0168  0.2446 -0.1979
 1283DOPE   D2A15051  15.027   4.006  14.917 -0.0063  0.1499 -0.0301
 1283DOPE   C3A15052  14.547   3.878  14.848  0.2035 -0.0573  0.0496
 1283DOPE   C4A15053  14.162   3.627  14.784  0.1182  0.1187 -0.2414
 1283DOPE   C1B15054  14.842   4.643  14.919  0.2324 -0.1495  0.0368
 1283DOPE   D2B15055  14.597   4.395  14.584 -0.0371  0.0125 -0.3019
 1283DOPE   C3B15056  14.498   4.425  14.153  0.0157 -0.1053 -0.0460
 1283DOPE   C4B15057  14.511   4.165  13.805 -0.1156 -0.5809 -0.2880
 1284DOPE   NH315058  20.667   0.692  15.966  0.0175 -0.1191  0.0785
 1284DOPE   PO415059  20.818   0.965  16.126  0.1104 -0.1358 -0.1628
 1284DOPE   GL115060  20.851   1.206  15.817 -0.1300 -0.0165 -0.2349
 1284DOPE   GL215061  21.124   1.412  15.769 -0.1599  0.0179 -0.2063
 1284DOPE   C1A15062  20.658   1.302  15.410 -0.0746 -0.0547  0.4617
 1284DOPE   D2A15063  20.434   1.044  15.069 -0.0659 -0.1573 -0.1645
 1284DOPE   C3A15064  20.368   1.168  14.603 -0.2856  0.0364  0.0488
 1284DOPE   C4A15065  20.207   1.296  14.190 -0.3210  0.1465  0.1855
 1284DOPE   C1B15066  21.304   1.862  15.766  0.3282  0.0328 -0.4076
 1284DOPE   D2B15067  21.513   2.279  15.899 -0.0725 -0.0326  0.2245
 1284DOPE   C3B15068  21.285   2.634  15.743 -0.1429  0.0815 -0.1651
 1284DOPE   C4B15069  21.459   3.040  15.616 -0.1058  0.0466  0.0998
 1285DOPE   NH315070  18.921   9.740  15.736  0.0165  0.1056 -0.1523
 1285DOPE   PO415071  19.017   9.536  15.536 -0.0981  0.4327 -0.1181
 1285DOPE   GL115072  18.999   9.403  15.133  0.0329 -0.0614 -0.3069
 1285DOPE   GL215073  18.985   9.650  14.930 -0.3080 -0.0576  0.2571
 1285DOPE   C1A15074  19.097   9.239  14.715 -0.1327  0.2595  0.2074
 1285DOPE   D2A15075  19.325   9.126  14.348  0.1896  0.0844  0.0201
 1285DOPE   C3A15076  19.360   9.560  14.268 -0.1946 -0.0269  0.2393
 1285DOPE   C4A15077  19.624   9.877  14.040 -0.1219  0.0335 -0.3300
 1285DOPE   C1B15078  18.888   9.709  14.513 -0.0560  0.1514 -0.3593
 1285DOPE   D2B15079  18.772   9.643  14.079  0.2698  0.1596  0.1298
 1285DOPE   C3B15080  18.325   9.436  14.114 -0.1643 -0.0260  0.0708
 1285DOPE   C4B15081  18.128   9.209  14.413  0.0330  0.3901 -0.1117
 1286DOPC   NC315082  15.638   7.057  15.899  0.0253 -0.0763  0.1564
 1286DOPC   PO415083  15.651   7.413  15.785  0.0394 -0.0372  0.2347
 1286DOPC   GL115084  15.832   7.333  15.509 -0.0750 -0.2588 -0.1349
 1286DOPC   GL215085  15.967   7.120  15.480  0.0292 -0.0853 -0.1723
 1286DOPC   C1A15086  15.861   7.388  15.048  0.1128 -0.0755 -0.2916
 1286DOPC   D2A15087  15.763   7.109  14.712 -0.2239  0.2316 -0.3477
 1286DOPC   C3A15088  15.580   6.654  14.797 -0.1287  0.0310 -0.1494
 1286DOPC   C4A15089  15.646   6.283  14.604  0.3396 -0.0131 -0.0772
 1286DOPC   C1B15090  15.981   6.821  15.117  0.4664  0.1040 -0.0605
 1286DOPC   D2B15091  16.095   6.726  14.640 -0.2203 -0.1951 -0.0619
 1286DOPC   C3B15092  16.226   6.986  14.322 -0.0656 -0.1353  0.0386
 1286DOPC   C4B15093  16.401   7.244  13.933 -0.1673 -0.2919  0.1316
 1287DOPC   NC315094  23.596   4.636  15.720 -0.1785  0.1153 -0.1072
 1287DOPC   PO415095  23.265   4.424  15.760  0.0066  0.2876  0.1020
 1287DOPC   GL115096  23.363   4.345  15.328 -0.3585 -0.3508 -0.2166
 1287DOPC   GL215097  23.671   4.204  15.429 -0.0263  0.0978  0.3169
 1287DOPC   C1A15098  23.147   4.333  14.925  0.0610 -0.3230  0.2237
 1287DOPC   D2A15099  22.846   4.355  14.571  0.2014 -0.2111  0.1109
 1287DOPC   C3A15100  22.959   4.556  14.170  0.3494  0.3190 -0.2100
 1287DOPC   C4A15101  22.745   4.469  13.740  0.4138 -0.0601 -0.0309
 1287DOPC   C1B15102  23.783   3.836  15.131 -0.1989 -0.0266  0.1515
 1287DOPC   D2B15103  24.089   3.768  14.798 -0.0360  0.2857 -0.1751
 1287DOPC   C3B15104  24.411   3.993  14.648  0.2980 -0.3445  0.0799
 1287DOPC   C4B15105  24.781   4.067  14.438  0.0347  0.0178  0.1069
 1288POSM   NC315106  15.994   5.149  15.751 -0.2424 -0.0599  0.1951
 1288POSM   PO415107  15.694   5.243  16.000  0.1371 -0.0738 -0.1113
 1288POSM   AM115108  15.586   5.420  15.766  0.2147  0.2013 -0.0098
 1288POSM   AM215109  15.338   5.484  15.707 -0.2429 -0.1407 -0.2002
 1288POSM   T1A15110  15.684   5.675  15.367  0.0932 -0.0619 -0.0519
 1288POSM   C2A15111  15.669   5.986  15.051 -0.0313  0.0598  0.0544
 1288POSM   C3A15112  15.899   6.374  15.111 -0.0037  0.4078 -0.0225
 1288POSM   C1B15113  15.310   5.384  15.376 -0.1128 -0.2979 -0.1471
 1288POSM   D2B15114  15.433   5.378  14.937 -0.2385 -0.0229  0.2402
 1288POSM   C3B15115  15.584   5.040  14.771  0.0946 -0.1757 -0.0839
 1288POSM   C4B15116  15.450   4.914  14.343  0.4324 -0.0023 -0.3658
 1289POSM   NC315117  12.910  10.598  15.964  0.2720  0.1163 -0.0746
 1289POSM   PO415118  12.888  10.221  16.016  0.0346 -0.0909 -0.0162
 1289POSM   AM115119  12.938  10.202  15.689 -0.0996 -0.0879  0.0570
 1289POSM   AM215120  12.927  10.333  15.467 -0.0599 -0.1018  0.1870
 1289POSM   T1A15121  12.989   9.847  15.364  0.0826 -0.1300 -0.2296
 1289POSM   C2A15122  13.340   9.560  15.221 -0.1197 -0.0226  0.1688
 1289POSM   C3A15123  13.438   9.192  14.955  0.0756 -0.1346  0.2102
 1289POSM   C1B15124  13.043  10.419  15.140 -0.0854  0.1202  0.0222
 1289POSM   D2B15125  13.082  10.417  14.704 -0.2159  0.0235  0.2241
 1289POSM   C3B15126  12.936  10.387  14.240  0.0070  0.1322 -0.2209
 1289POSM   C4B15127  12.950  10.070  13.900 -0.2656  0.1877  0.2790
 1290DOPE   NH315128  14.503   2.970  15.828 -0.0871 -0.1207  0.0992
 1290DOPE   PO415129  14.388   2.691  15.754  0.1970  0.0692  0.0822
 1290DOPE   GL115130  14.388   2.890  15.391  0.0894  0.0940 -0.2971
 1290DOPE   GL215131  14.139   3.044  15.467 -0.0554  0.0988 -0.0386
 1290DOPE   C1A15132  14.536   2.812  14.953 -0.0525 -0.1428 -0.0040
 1290DOPE   D2A15133  14.629   2.768  14.481  0.0234  0.0491  0.0365
 1290DOPE   C3A15134  14.963   2.884  14.141 -0.2408 -0.1475 -0.2456
 1290DOPE   C4A15135  15.196   3.261  14.022 -0.3638 -0.0108  0.0431
 1290DOPE   C1B15136  14.232   3.261  15.099  0.1488 -0.1827 -0.0702
 1290DOPE   D2B15137  14.517   3.252  14.726 -0.2025  0.2092  0.0380
 1290DOPE   C3B15138  14.672   3.328  14.309 -0.0201 -0.0194  0.2510
 1290DOPE   C4B15139  14.936   3.664  14.085 -0.2312  0.2219 -0.1977
 1291DOPE   NH315140  13.055   3.536  15.370  0.3586  0.1214  0.0986
 1291DOPE   PO415141  13.205   3.474  15.622 -0.3117 -0.4444  0.0448
 1291DOPE   GL115142  13.584   3.563  15.513 -0.1614  0.2809 -0.1146
 1291DOPE   GL215143  13.503   3.804  15.363  0.0070 -0.0825  0.1075
 1291DOPE   C1A15144  13.970   3.792  15.278 -0.0348  0.1591 -0.1750
 1291DOPE   D2A15145  14.186   4.135  15.135  0.2861 -0.2047 -0.2883
 1291DOPE   C3A15146  14.126   4.162  14.655  0.0785 -0.0515 -0.0834
 1291DOPE   C4A15147  14.363   3.937  14.352 -0.2078  0.1078 -0.1966
 1291DOPE   C1B15148  13.359   3.569  14.930 -0.2905 -0.1354 -0.1763
 1291DOPE   D2B15149  13.174   3.653  14.518  0.1171  0.1262  0.2206
 1291DOPE   C3B15150  13.346   4.042  14.360  0.1115  0.0618 -0.2392
 1291DOPE   C4B15151  13.598   4.409  14.411 -0.0969 -0.1962  0.4801
 1292DOPE   NH315152  16.743  11.494  15.413 -0.2170 -0.3034 -0.2969
 1292DOPE   PO415153  16.591  11.181  15.388  0.1036  0.0474  0.2856
 1292DOPE   GL115154  16.605  11.256  14.997 -0.4744 -0.4381 -0.1412
 1292DOPE   GL215155  16.718  11.539  14.905 -0.2073 -0.1662  0.1047
 1292DOPE   C1A15156  16.541  11.227  14.519 -0.0151  0.2247 -0.1376
 1292DOPE   D2A15157  16.642  11.399  14.119  0.1479 -0.2462 -0.0203
 1292DOPE   C3A15158  16.873  11.771  14.041  0.2198  0.4240  0.0159
 1292DOPE   C4A15159  17.303  11.883  13.811 -0.1965  0.2565 -0.3446
 1292DOPE   C1B15160  16.614  11.753  14.454 -0.1673 -0.1305 -0.2311
 1292DOPE   D2B15161  16.282  12.067  14.325 -0.5114 -0.0853  0.2275
 1292DOPE   C3B15162  16.108  12.012  13.846  0.0748  0.0788  0.3568
 1292DOPE   C4B15163  16.087  12.160  13.412 -0.2171 -0.1173 -0.0067
 1293DOPC   NC315164  12.411   1.506  16.288  0.1377 -0.2871  0.1832
 1293DOPC   PO415165  12.335   1.595  15.900  0.1542  0.1053  0.1257
 1293DOPC   GL115166  12.390   1.485  15.449  0.0792 -0.1388  0.2196
 1293DOPC   GL215167  12.229   1.263  15.440  0.1186 -0.0190 -0.0417
 1293DOPC   C1A15168  12.112   1.553  15.063 -0.0014  0.0637 -0.0697
 1293DOPC   D2A15169  12.147   1.543  14.584 -0.0361 -0.2100 -0.0802
 1293DOPC   C3A15170  12.011   1.320  14.217  0.3116  0.0785  0.2256
 1293DOPC   C4A15171  12.193   1.110  13.826 -0.4724  0.0339 -0.1507
 1293DOPC   C1B15172  12.078   0.958  15.133 -0.1559  0.1758 -0.4590
 1293DOPC   D2B15173  11.995   0.881  14.685  0.1596  0.0701 -0.0135
 1293DOPC   C3B15174  11.768   0.590  14.379  0.1827  0.0476 -0.0907
 1293DOPC   C4B15175  11.585   0.340  13.962 -0.2217 -0.2777  0.0756
 1294DOPC   NC315176  12.712   5.672  16.377 -0.2203 -0.2355 -0.0800
 1294DOPC   PO415177  12.831   5.938  16.158 -0.3401 -0.2973 -0.0500
 1294DOPC   GL115178  12.681   5.911  15.718 -0.2925  0.0993 -0.0686
 1294DOPC   GL215179  12.854   5.815  15.515 -0.0289  0.2851  0.0912
 1294DOPC   C1A15180  12.367   5.667  15.531  0.0046 -0.0810 -0.0284
 1294DOPC   D2A15181  12.456   5.530  15.069  0.3880  0.0779  0.1735
 1294DOPC   C3A15182  12.612   5.759  14.707  0.0515  0.3321  0.1287
 1294DOPC   C4A15183  12.731   5.808  14.269  0.2246 -0.0773  0.1778
 1294DOPC   C1B15184  12.752   6.016  15.126 -0.0228 -0.1647  0.1378
 1294DOPC   D2B15185  12.325   6.086  14.885  0.0270  0.0085 -0.1030
 1294DOPC   C3B15186  12.635   6.296  14.616  0.1442  0.2208 -0.0730
 1294DOPC   C4B15187  12.809   6.359  14.195 -0.2706 -0.3048 -0.4165
 1295POSM   NC315188  17.048   1.553  16.577 -0.0994  0.0128  0.2076
 1295POSM   PO415189  16.821   1.780  16.354  0.0447 -0.0835 -0.2728
 1295POSM   AM115190  16.800   1.802  16.000 -0.1993 -0.1035 -0.0030
 1295POSM   AM215191  17.019   1.658  15.864  0.0739 -0.2574 -0.3335
 1295POSM   T1A15192  16.594   1.642  15.568  0.1217 -0.1227  0.1119
 1295POSM   C2A15193  16.402   1.713  15.209 -0.5129 -0.2822  0.2182
 1295POSM   C3A15194  16.567   1.539  14.832 -0.1334 -0.1124  0.2899
 1295POSM   C1B15195  17.045   1.868  15.578  0.3187 -0.0309 -0.1276
 1295POSM   D2B15196  16.938   1.855  15.109  0.2707  0.1376  0.0965
 1295POSM   C3B15197  16.670   2.069  14.846 -0.0384 -0.2312  0.2922
 1295POSM   C4B15198  16.465   2.331  14.522  0.0041  0.2068  0.1161
 1296DOPC   NC315199  14.104  11.416  15.508  0.2720 -0.0222 -0.0635
 1296DOPC   PO415200  13.762  11.233  15.481 -0.2275  0.1473  0.0350
 1296DOPC   GL115201  13.743  10.940  15.141  0.1738 -0.4188  0.0265
 1296DOPC   GL215202  13.983  10.799  15.104 -0.0533  0.2203  0.1610
 1296DOPC   C1A15203  13.630  11.009  14.722 -0.0102  0.2425 -0.1930
 1296DOPC   D2A15204  13.568  11.023  14.209 -0.0766  0.3300 -0.1645
 1296DOPC   C3A15205  13.525  11.449  14.083 -0.2206  0.1797 -0.1532
 1296DOPC   C4A15206  13.420  11.913  14.167 -0.2000 -0.0275 -0.0312
 1296DOPC   C1B15207  14.022  10.543  14.687  0.3509  0.0858 -0.1517
 1296DOPC   D2B15208  14.204  10.217  14.433  0.1178  0.0009 -0.1455
 1296DOPC   C3B15209  14.279   9.829  14.179 -0.1300 -0.0056  0.0584
 1296DOPC   C4B15210  14.058   9.545  13.907 -0.2693  0.1196  0.2896
 1297DOPE   NH315211  19.670   2.694  15.817 -0.3499 -0.0864  0.0926
 1297DOPE   PO415212  19.819   2.407  15.898  0.0756 -0.1433  0.0149
 1297DOPE   GL115213  19.894   2.115  15.592 -0.0891 -0.0213  0.2068
 1297DOPE   GL215214  19.980   2.333  15.396  0.0836 -0.0166  0.0886
 1297DOPE   C1A15215  20.031   1.856  15.248  0.0929 -0.2669  0.3843
 1297DOPE   D2A15216  20.369   1.791  14.953 -0.0762 -0.0282  0.1791
 1297DOPE   C3A15217  20.308   1.658  14.510  0.3793  0.2279  0.1086
 1297DOPE   C4A15218  20.514   1.720  14.123  0.0197  0.6098 -0.1491
 1297DOPE   C1B15219  20.275   2.335  15.041 -0.0178 -0.1723  0.0002
 1297DOPE   D2B15220  20.687   2.170  14.855  0.3359 -0.2435 -0.0924
 1297DOPE   C3B15221  20.770   2.157  14.416 -0.1128  0.0009  0.1009
 1297DOPE   C4B15222  21.009   2.212  14.054  0.0672 -0.2122 -0.0282
 1298DOPC   NC315223  14.204   7.276  15.529 -0.1229  0.0843 -0.1798
 1298DOPC   PO415224  14.484   7.306  15.834 -0.2008 -0.0772 -0.3092
 1298DOPC   GL115225  14.604   6.999  15.587 -0.3778 -0.0151  0.2102
 1298DOPC   GL215226  14.851   6.944  15.448  0.1561  0.0185 -0.0694
 1298DOPC   C1A15227  14.420   6.954  15.153 -0.1408 -0.1245 -0.1223
 1298DOPC   D2A15228  14.013   6.823  14.966  0.0991  0.1752 -0.1775
 1298DOPC   C3A15229  13.950   6.839  14.509  0.1775 -0.2385 -0.0291
 1298DOPC   C4A15230  13.915   7.052  14.092 -0.2862  0.5122 -0.2351
 1298DOPC   C1B15231  14.860   7.260  15.157 -0.2814  0.0371 -0.0661
 1298DOPC   D2B15232  14.912   7.600  14.852  0.0273 -0.2072  0.1201
 1298DOPC   C3B15233  14.820   7.632  14.393  0.1715 -0.2696  0.0357
 1298DOPC   C4B15234  14.802   7.411  14.017 -0.0488 -0.0962  0.0360
 1299DOPE   NH315235  12.066   8.112  15.688 -0.0940  0.0022 -0.1021
 1299DOPE   PO415236  12.068   8.259  15.422 -0.0653  0.2328  0.0824
 1299DOPE   GL115237  12.149   8.493  15.138  0.1943  0.1867 -0.3614
 1299DOPE   GL215238  11.954   8.730  15.160  0.0930  0.1190 -0.0502
 1299DOPE   C1A15239  12.095   8.272  14.708 -0.1485 -0.0416  0.0629
 1299DOPE   D2A15240  12.187   8.319  14.297 -0.2044 -0.2277  0.1991
 1299DOPE   C3A15241  12.443   8.012  14.083 -0.3318  0.2049 -0.0735
 1299DOPE   C4A15242  12.516   7.546  13.902 -0.0681 -0.2367  0.0646
 1299DOPE   C1B15243  11.865   9.053  14.892 -0.0744 -0.1220 -0.2510
 1299DOPE   D2B15244  11.995   9.319  14.463 -0.2776 -0.1160  0.1897
 1299DOPE   C3B15245  12.277   9.388  14.096  0.0939  0.0867 -0.4373
 1299DOPE   C4B15246  12.617   9.630  13.887 -0.0205 -0.1806 -0.0653
 1300DOPE   NH315247  21.009   0.227  16.108 -0.1288 -0.1176 -0.0886
 1300DOPE   PO415248  21.072   0.549  16.213  0.1684 -0.0280 -0.1617
 1300DOPE   GL115249  21.132   0.667  15.847 -0.1313 -0.1333  0.4527
 1300DOPE   GL215250  21.251   0.428  15.686 -0.1356 -0.0074  0.0306
 1300DOPE   C1A15251  21.298   0.906  15.541  0.2097 -0.2191  0.0103
 1300DOPE   D2A15252  21.685   1.034  15.323  0.4575  0.2367  0.0124
 1300DOPE   C3A15253  21.661   1.387  14.982 -0.1064  0.4447 -0.1719
 1300DOPE   C4A15254  21.311   1.522  14.707 -0.0309 -0.2617 -0.0821
 1300DOPE   C1B15255  21.205   0.461  15.213 -0.2322  0.2557 -0.0020
 1300DOPE   D2B15256  21.296   0.284  14.797  0.2436 -0.1612  0.0737
 1300DOPE   C3B15257  21.293   0.612  14.481  0.0733 -0.0965 -0.1850
 1300DOPE   C4B15258  21.378   0.631  14.079 -0.0879  0.1263  0.1335
 1301DOPC   NC315259  15.170   2.959  16.101  0.2408  0.0143 -0.4043
 1301DOPC   PO415260  14.881   2.743  16.042  0.3879  0.2530 -0.2879
 1301DOPC   GL115261  14.951   2.756  15.706  0.0206  0.0282  0.3542
 1301DOPC   GL215262  14.897   3.061  15.594  0.0645  0.1696  0.0053
 1301DOPC   C1A15263  14.957   2.661  15.230 -0.1099  0.1797  0.1179
 1301DOPC   D2A15264  14.842   2.452  14.828  0.0780  0.0061  0.0062
 1301DOPC   C3A15265  15.053   2.479  14.443  0.1083 -0.1111 -0.0449
 1301DOPC   C4A15266  15.267   2.453  14.030  0.5866  0.1936 -0.0952
 1301DOPC   C1B15267  14.790   3.188  15.196 -0.0620  0.2494 -0.1745
 1301DOPC   D2B15268  14.918   3.499  14.825  0.0211 -0.1713 -0.0473
 1301DOPC   C3B15269  14.904   3.839  14.527 -0.0046  0.1550  0.0708
 1301DOPC   C4B15270  15.046   4.202  14.329 -0.0562  0.1555  0.1570
 1302DOPC   NC315271  15.969   4.293  15.804 -0.1508  0.3137  0.0280
 1302DOPC   PO415272  15.976   4.025  15.550 -0.0044 -0.2650 -0.2742
 1302DOPC   GL115273  15.857   3.996  15.210  0.0329 -0.0172  0.0495
 1302DOPC   GL215274  15.735   4.201  15.042  0.0603 -0.0537  0.0326
 1302DOPC   C1A15275  16.131   3.866  14.849  0.0326  0.0725  0.0563
 1302DOPC   D2A15276  16.346   3.865  14.435 -0.2987  0.1057  0.0531
 1302DOPC   C3A15277  16.276   3.839  13.977  0.0336 -0.3277 -0.1586
 1302DOPC   C4A15278  16.192   3.542  13.668  0.0969  0.2175 -0.0389
 1302DOPC   C1B15279  15.538   3.909  14.735 -0.0145 -0.2183 -0.4370
 1302DOPC   D2B15280  15.340   3.638  14.382 -0.0278  0.0671 -0.3333
 1302DOPC   C3B15281  15.156   3.287  14.504  0.1843  0.0786  0.1963
 1302DOPC   C4B15282  15.124   2.945  14.815  0.2601  0.1442  0.0651
 1303DOPC   NC315283  22.409   9.256  15.531  0.0607 -0.0674  0.2057
 1303DOPC   PO415284  22.532   8.954  15.721  0.0898 -0.0424  0.0790
 1303DOPC   GL115285  22.517   8.815  15.325  0.0544 -0.1493  0.1288
 1303DOPC   GL215286  22.441   8.998  15.109  0.1140 -0.3854  0.3179
 1303DOPC   C1A15287  22.501   8.540  14.950 -0.2127 -0.0587 -0.2271
 1303DOPC   D2A15288  22.659   8.416  14.576 -0.2090  0.2135  0.1489
 1303DOPC   C3A15289  22.230   8.437  14.366 -0.0377 -0.0539 -0.1315
 1303DOPC   C4A15290  21.913   8.221  14.078 -0.1103  0.2791 -0.1571
 1303DOPC   C1B15291  22.479   9.126  14.682  0.0677  0.0938 -0.1921
 1303DOPC   D2B15292  22.529   8.838  14.338  0.2399  0.0457 -0.3920
 1303DOPC   C3B15293  22.268   8.776  13.961  0.1240  0.0699 -0.0437
 1303DOPC   C4B15294  21.858   8.778  13.830  0.4631 -0.1444 -0.0292
 1304DOPC   NC315295  11.881   1.719  15.573  0.0862  0.0342  0.1092
 1304DOPC   PO415296  11.722   1.376  15.662  0.0610  0.3768 -0.0938
 1304DOPC   GL115297  11.766   1.267  15.262 -0.2013 -0.0009 -0.1421
 1304DOPC   GL215298  11.680   0.938  15.413  0.0707  0.1050 -0.2328
 1304DOPC   C1A15299  11.729   1.327  14.791 -0.0399 -0.1037  0.0784
 1304DOPC   D2A15300  11.580   1.488  14.408  0.3632 -0.0751  0.0845
 1304DOPC   C3A15301  11.118   1.515  14.352 -0.1605  0.3582 -0.0545
 1304DOPC   C4A15302  10.874   1.928  14.265  0.0068 -0.0304  0.2574
 1304DOPC   C1B15303  11.307   1.021  15.170  0.0553  0.0881 -0.1548
 1304DOPC   D2B15304  11.232   1.390  14.822 -0.2461 -0.1740 -0.1218
 1304DOPC   C3B15305  10.884   1.733  14.784  0.2110  0.0032 -0.2389
 1304DOPC   C4B15306  10.626   2.098  14.858 -0.0536 -0.0628  0.1188
 1305DOPC   NC315307  17.203   4.030  15.847  0.2455 -0.1439  0.1069
 1305DOPC   PO415308  17.235   3.803  16.134 -0.2080  0.1155  0.1260
 1305DOPC   GL115309  17.338   3.609  15.778 -0.1234  0.2044  0.1757
 1305DOPC   GL215310  17.163   3.475  15.757 -0.3218  0.0308 -0.1905
 1305DOPC   C1A15311  17.432   3.635  15.328  0.0358  0.1250 -0.1063
 1305DOPC   D2A15312  17.734   3.434  15.032  0.5619  0.0731 -0.0919
 1305DOPC   C3A15313  18.118   3.473  14.837 -0.3990  0.0988  0.2914
 1305DOPC   C4A15314  18.035   3.567  14.359  0.0855 -0.4253  0.0904
 1305DOPC   C1B15315  17.374   3.123  15.482  0.0581  0.0810 -0.1590
 1305DOPC   D2B15316  17.800   3.015  15.349  0.4510  0.2393  0.1324
 1305DOPC   C3B15317  17.939   2.936  14.924  0.1529 -0.0157  0.2056
 1305DOPC   C4B15318  17.967   3.058  14.481  0.0939  0.2167 -0.0911
 1306DOPE   NH315319  21.933   6.502  15.474 -0.0107  0.3236  0.2761
 1306DOPE   PO415320  22.011   6.776  15.651 -0.4747  0.0077  0.0253
 1306DOPE   GL115321  21.901   6.951  15.273  0.2170  0.2289 -0.0586
 1306DOPE   GL215322  21.790   7.176  15.415  0.1389 -0.0688 -0.0019
 1306DOPE   C1A15323  22.004   7.288  14.968 -0.1129  0.1328  0.5020
 1306DOPE   D2A15324  22.247   7.449  14.581 -0.0069 -0.0117  0.1644
 1306DOPE   C3A15325  21.886   7.356  14.278 -0.0516 -0.1491 -0.4232
 1306DOPE   C4A15326  21.525   7.263  13.995  0.1952  0.5773 -0.2211
 1306DOPE   C1B15327  21.471   7.053  15.100 -0.0193 -0.0506 -0.0508
 1306DOPE   D2B15328  21.200   6.982  14.764  0.1116  0.0875  0.0445
 1306DOPE   C3B15329  21.387   6.916  14.394 -0.4526 -0.0423  0.2900
 1306DOPE   C4B15330  21.358   6.723  14.013 -0.1381 -0.1875  0.2583
 1307DOPE   NH315331  20.558   5.645  16.001 -0.0530 -0.2156  0.0906
 1307DOPE   PO415332  20.537   5.848  15.727  0.1556  0.0365  0.1349
 1307DOPE   GL115333  20.713   5.975  15.427  0.0855  0.0568  0.0826
 1307DOPE   GL215334  20.570   6.087  15.249 -0.2859  0.0915 -0.1880
 1307DOPE   C1A15335  21.004   6.156  15.136 -0.0462 -0.0737 -0.1198
 1307DOPE   D2A15336  20.840   6.450  14.813  0.0035 -0.2886 -0.2046
 1307DOPE   C3A15337  20.714   6.311  14.362 -0.0430  0.0313  0.0672
 1307DOPE   C4A15338  20.745   6.641  14.010  0.3610  0.1581  0.0475
 1307DOPE   C1B15339  20.266   5.972  14.877 -0.0945  0.0968  0.0655
 1307DOPE   D2B15340  20.289   5.679  14.512 -0.1603  0.1474  0.1122
 1307DOPE   C3B15341  20.508   5.845  14.161  0.1198 -0.1059  0.0573
 1307DOPE   C4B15342  20.759   5.961  13.851  0.0941 -0.0338  0.0203
 1308POSM   NC315343  16.089   9.211  15.741 -0.0564 -0.1375  0.1618
 1308POSM   PO415344  16.221   8.980  15.495  0.1337  0.1468  0.2520
 1308POSM   AM115345  16.488   8.852  15.322  0.0898 -0.2166  0.1399
 1308POSM   AM215346  16.715   8.877  15.109 -0.2518  0.1806 -0.0448
 1308POSM   T1A15347  16.678   8.411  15.151 -0.3022 -0.2811 -0.0781
 1308POSM   C2A15348  16.840   8.124  14.837  0.1896 -0.6807 -0.2981
 1308POSM   C3A15349  16.913   7.851  14.419 -0.1487  0.0599  0.3891
 1308POSM   C1B15350  17.009   8.861  14.992  0.0575  0.1372  0.0475
 1308POSM   D2B15351  17.227   8.879  14.622  0.0095 -0.1219  0.0784
 1308POSM   C3B15352  17.541   8.686  14.429 -0.1081 -0.0017  0.2675
 1308POSM   C4B15353  17.900   8.461  14.586 -0.0736 -0.1390 -0.0424
 1309DOPC   NC315354  19.038   0.230  15.784  0.0851 -0.1223  0.2479
 1309DOPC   PO415355  19.224   0.571  15.952 -0.0846  0.1439 -0.2960
 1309DOPC   GL115356  19.199   0.828  15.697  0.0259 -0.1111  0.0527
 1309DOPC   GL215357  19.153   0.641  15.471  0.0070  0.5068 -0.1223
 1309DOPC   C1A15358  19.528   0.980  15.369  0.0375 -0.0282  0.0447
 1309DOPC   D2A15359  19.907   0.954  15.102  0.4161 -0.1970 -0.0284
 1309DOPC   C3A15360  19.956   0.818  14.694  0.0649 -0.1670 -0.1617
 1309DOPC   C4A15361  19.689   0.931  14.320  0.0547  0.1877  0.1028
 1309DOPC   C1B15362  19.229   0.200  15.314 -0.3195 -0.2157 -0.0882
 1309DOPC   D2B15363  19.484  -0.040  15.080  0.2512  0.2736 -0.0259
 1309DOPC   C3B15364  19.848  -0.302  15.028 -0.3816  0.0698 -0.0341
 1309DOPC   C4B15365  20.101  -0.608  14.903  0.0041  0.2766 -0.2866
 1310POSM   NC315366  15.559   1.225  15.754  0.0580 -0.1312  0.0868
 1310POSM   PO415367  15.320   1.585  15.902  0.1854  0.2497  0.0039
 1310POSM   AM115368  15.451   1.647  15.624 -0.2820 -0.1076 -0.3011
 1310POSM   AM215369  15.368   1.731  15.351 -0.0149 -0.1899 -0.0028
 1310POSM   T1A15370  15.763   1.487  15.231  0.0953 -0.0805  0.2187
 1310POSM   C2A15371  16.112   1.356  14.968  0.0157  0.1697 -0.0800
 1310POSM   C3A15372  16.149   1.273  14.526  0.2334  0.0135  0.1100
 1310POSM   C1B15373  15.305   1.504  15.061  0.1627 -0.0256  0.2185
 1310POSM   D2B15374  14.962   1.280  14.832  0.0772  0.0677 -0.2837
 1310POSM   C3B15375  14.798   0.959  14.609  0.0061  0.1714  0.1772
 1310POSM   C4B15376  14.830   0.552  14.464 -0.3379 -0.0377  0.0020
 1311POSM   NC315377  12.183  10.804  15.712 -0.2749 -0.2104  0.0065
 1311POSM   PO415378  12.481  10.629  15.614 -0.2278 -0.2044 -0.1093
 1311POSM   AM115379  12.408  10.445  15.331 -0.4131  0.1354 -0.0543
 1311POSM   AM215380  12.485  10.182  15.258 -0.2649 -0.0186  0.3497
 1311POSM   T1A15381  12.227  10.530  14.872  0.1558 -0.2709  0.0589
 1311POSM   C2A15382  12.006  10.478  14.445 -0.1234 -0.2982  0.1068
 1311POSM   C3A15383  11.631  10.627  14.170  0.0506  0.0360  0.0879
 1311POSM   C1B15384  12.601  10.196  14.970 -0.2047  0.0330 -0.0166
 1311POSM   D2B15385  12.818   9.959  14.667 -0.0335  0.0923  0.0400
 1311POSM   C3B15386  12.923   9.707  14.280 -0.0014 -0.0123  0.2705
 1311POSM   C4B15387  13.069   9.480  13.860 -0.1144  0.2338  0.1270
 1312DOPS   CNO15388  17.152   6.474  16.156 -0.1694 -0.0319  0.0237
 1312DOPS   PO415389  17.091   6.462  15.814  0.3669  0.1410  0.1321
 1312DOPS   GL115390  16.934   6.544  15.466  0.1044 -0.1420  0.0260
 1312DOPS   GL215391  16.774   6.260  15.392  0.4026  0.0406  0.0310
 1312DOPS   C1A15392  17.089   6.732  15.090 -0.0025 -0.2580  0.2960
 1312DOPS   D2A15393  17.163   6.944  14.710 -0.1010 -0.0945 -0.0529
 1312DOPS   C3A15394  17.171   7.094  14.325 -0.3276 -0.3122 -0.0370
 1312DOPS   C4A15395  17.373   7.283  13.949 -0.1271 -0.0248  0.0882
 1312DOPS   C1B15396  16.874   6.300  14.921  0.0702  0.0086 -0.2233
 1312DOPS   D2B15397  17.281   6.327  14.701 -0.0461  0.0510  0.0482
 1312DOPS   C3B15398  17.109   6.617  14.359 -0.6008  0.0564  0.0166
 1312DOPS   C4B15399  16.794   6.864  14.085 -0.0256  0.0492  0.1311
 1313DOPC   NC315400  14.642   9.968  15.688  0.2504 -0.1414  0.1762
 1313DOPC   PO415401  14.630   9.603  15.816  0.0520  0.3265  0.2567
 1313DOPC   GL115402  14.556   9.434  15.398 -0.3564 -0.1726  0.3146
 1313DOPC   GL215403  14.655   9.486  15.090  0.0762  0.1081  0.0125
 1313DOPC   C1A15404  14.118   9.357  15.303 -0.0792  0.0264 -0.1476
 1313DOPC   D2A15405  13.822   9.701  15.205  0.1512  0.3145  0.1207
 1313DOPC   C3A15406  13.690   9.588  14.761 -0.1430 -0.1843 -0.0568
 1313DOPC   C4A15407  13.752   9.638  14.285  0.0321 -0.0935  0.0475
 1313DOPC   C1B15408  14.672   8.981  15.236 -0.0810 -0.1239  0.0197
 1313DOPC   D2B15409  14.619   8.617  15.521  0.1108 -0.1814  0.3442
 1313DOPC   C3B15410  15.021   8.475  15.296  0.0193  0.0046 -0.0709
 1313DOPC   C4B15411  15.020   8.175  14.991 -0.0628  0.2335  0.0747
 1314DOPE   NH315412  15.522   7.883  16.023  0.3346  0.0677  0.1693
 1314DOPE   PO415413  15.378   7.823  15.794  0.1334  0.3020  0.0449
 1314DOPE   GL115414  15.579   7.782  15.441  0.0059 -0.0049 -0.2719
 1314DOPE   GL215415  15.873   7.809  15.462  0.0029  0.0816 -0.1395
 1314DOPE   C1A15416  15.384   7.824  15.019 -0.0195  0.0142  0.0250
 1314DOPE   D2A15417  15.355   7.761  14.553  0.3842 -0.4676 -0.0512
 1314DOPE   C3A15418  15.662   7.538  14.443 -0.2280  0.2750 -0.1264
 1314DOPE   C4A15419  16.054   7.486  14.236 -0.4542 -0.1219  0.2869
 1314DOPE   C1B15420  15.914   7.911  15.031  0.0617 -0.0238  0.1361
 1314DOPE   D2B15421  15.923   7.979  14.573 -0.1498 -0.1664  0.2064
 1314DOPE   C3B15422  15.611   8.117  14.304 -0.2389  0.1661  0.1690
 1314DOPE   C4B15423  15.359   7.818  14.081 -0.0741 -0.0108 -0.2880
 1315DOPE   NH315424  16.605   1.391  16.202 -0.3991 -0.0374  0.1433
 1315DOPE   PO415425  16.867   1.273  16.108  0.1106  0.2474  0.2125
 1315DOPE   GL115426  16.717   1.277  15.728  0.0117 -0.1987  0.3113
 1315DOPE   GL215427  16.975   1.221  15.593 -0.1636  0.1911  0.1050
 1315DOPE   C1A15428  16.548   1.182  15.343 -0.1350  0.1161 -0.1415
 1315DOPE   D2A15429  16.560   1.052  14.874  0.1299 -0.1858  0.0012
 1315DOPE   C3A15430  16.847   1.086  14.519 -0.2338 -0.2182  0.0677
 1315DOPE   C4A15431  17.051   1.305  14.189 -0.2509 -0.0314  0.2075
 1315DOPE   C1B15432  17.167   1.425  15.244 -0.0718 -0.2107 -0.0812
 1315DOPE   D2B15433  17.185   1.473  14.799 -0.2032  0.0695  0.4434
 1315DOPE   C3B15434  16.924   1.711  14.478  0.0544 -0.0430 -0.0380
 1315DOPE   C4B15435  16.791   1.922  14.135  0.2696 -0.0128 -0.1261
 1316DOPC   NC315436  18.684   3.605  15.468  0.1058  0.4080 -0.0479
 1316DOPC   PO415437  18.633   3.339  15.736  0.1978 -0.1519 -0.2057
 1316DOPC   GL115438  18.503   3.210  15.374 -0.1386  0.0679 -0.0011
 1316DOPC   GL215439  18.304   3.332  15.315  0.0280  0.0047 -0.2119
 1316DOPC   C1A15440  18.241   2.806  15.378 -0.0969  0.1354  0.0954
 1316DOPC   D2A15441  18.120   2.446  15.152  0.0123 -0.0294 -0.0162
 1316DOPC   C3A15442  18.228   2.317  14.715 -0.1829  0.1789  0.1971
 1316DOPC   C4A15443  18.681   2.276  14.559 -0.1056 -0.1358  0.3302
 1316DOPC   C1B15444  18.460   3.119  14.916 -0.0573  0.0537  0.1581
 1316DOPC   D2B15445  18.522   3.237  14.478 -0.1115  0.3883  0.5213
 1316DOPC   C3B15446  18.478   3.686  14.503  0.1007  0.1120 -0.1685
 1316DOPC   C4B15447  18.333   3.860  14.086  0.0118  0.1516 -0.4300
 1317POSM   NC315448  19.086   8.300  15.274 -0.2055  0.2158  0.1971
 1317POSM   PO415449  19.346   8.114  15.475 -0.0373 -0.2219  0.4261
 1317POSM   AM115450  19.450   8.074  15.154  0.1485  0.2332  0.0859
 1317POSM   AM215451  19.484   7.881  14.950  0.0732 -0.2977 -0.2870
 1317POSM   T1A15452  19.186   8.214  14.746  0.1183  0.1001  0.0499
 1317POSM   C2A15453  19.255   8.132  14.355  0.3164 -0.1524  0.0834
 1317POSM   C3A15454  19.622   8.143  14.019 -0.0367 -0.1547  0.0843
 1317POSM   C1B15455  19.237   7.731  14.792 -0.2698 -0.0790  0.2521
 1317POSM   D2B15456  18.972   7.707  14.440 -0.3085  0.0677  0.0321
 1317POSM   C3B15457  18.679   8.061  14.402  0.0719  0.1942 -0.0375
 1317POSM   C4B15458  18.250   8.228  14.185 -0.1056 -0.0184 -0.2703
 1318POSM   NC315459  14.133  10.684  15.683 -0.2626  0.0733  0.0761
 1318POSM   PO415460  13.698  10.672  15.686 -0.0343  0.0139  0.1940
 1318POSM   AM115461  13.592  10.529  15.442 -0.2711  0.0700  0.0028
 1318POSM   AM215462  13.470  10.298  15.354  0.2533 -0.2383 -0.1634
 1318POSM   T1A15463  13.567  10.553  14.952 -0.1538  0.3351  0.0031
 1318POSM   C2A15464  13.534  10.551  14.529 -0.0070  0.3450  0.0413
 1318POSM   C3A15465  13.442  10.520  14.087 -0.4104  0.1713 -0.0922
 1318POSM   C1B15466  13.430  10.045  15.157 -0.0885 -0.1131  0.1818
 1318POSM   D2B15467  13.298   9.875  14.768 -0.0793 -0.1667 -0.2867
 1318POSM   C3B15468  13.315  10.031  14.321 -0.1350  0.2364  0.2177
 1318POSM   C4B15469  13.461   9.882  13.892 -0.0289  0.0284 -0.3617
 1319DOPC   NC315470  19.920   9.929  15.892 -0.3080 -0.1418 -0.0723
 1319DOPC   PO415471  20.132   9.845  15.576  0.1911 -0.2340 -0.1708
 1319DOPC   GL115472  20.052   9.641  15.236  0.2320  0.1931  0.6239
 1319DOPC   GL215473  20.052   9.823  15.098 -0.2175 -0.1807  0.2271
 1319DOPC   C1A15474  19.895   9.352  14.857  0.2507 -0.0187  0.2234
 1319DOPC   D2A15475  19.773   9.285  14.459 -0.3909  0.1240  0.3836
 1319DOPC   C3A15476  19.729   8.933  14.094 -0.4325  0.0447 -0.1428
 1319DOPC   C4A15477  19.788   8.565  13.765 -0.1337  0.4064  0.1061
 1319DOPC   C1B15478  20.182  10.252  14.902  0.3473 -0.3814 -0.0309
 1319DOPC   D2B15479  20.251  10.566  14.547 -0.0659 -0.2698 -0.1094
 1319DOPC   C3B15480  19.813  10.668  14.361 -0.0778 -0.2043  0.3032
 1319DOPC   C4B15481  19.628  10.977  14.088 -0.2355 -0.0877 -0.0723
 1320DOPS   CNO15482  16.113   6.148  15.580 -0.0499 -0.2912  0.0062
 1320DOPS   PO415483  16.428   5.966  15.613 -0.1640 -0.0064 -0.1758
 1320DOPS   GL115484  16.375   6.089  15.225  0.1234  0.2287 -0.2497
 1320DOPS   GL215485  16.143   5.865  15.140 -0.2248  0.0107 -0.1344
 1320DOPS   C1A15486  16.386   6.455  14.945  0.3962 -0.1189 -0.2415
 1320DOPS   D2A15487  16.666   6.814  14.741  0.3673 -0.3775 -0.1828
 1320DOPS   C3A15488  16.424   7.094  14.845  0.1550 -0.0102  0.1806
 1320DOPS   C4A15489  16.234   7.540  14.750  0.1811 -0.3888 -0.1445
 1320DOPS   C1B15490  16.111   6.092  14.743 -0.2773  0.0677  0.0069
 1320DOPS   D2B15491  16.040   6.255  14.282  0.1936  0.0128  0.0414
 1320DOPS   C3B15492  15.843   6.636  14.202 -0.0275  0.0918  0.0496
 1320DOPS   C4B15493  15.726   7.061  14.139 -0.2224 -0.0203 -0.0070
 1321DOPE   NH315494  22.390   4.778  15.429 -0.2115  0.0680 -0.0359
 1321DOPE   PO415495  22.129   4.969  15.529  0.2331  0.0158 -0.2190
 1321DOPE   GL115496  21.923   5.115  15.186 -0.1719  0.1273  0.1868
 1321DOPE   GL215497  21.866   5.389  15.177 -0.1657 -0.1259  0.2877
 1321DOPE   C1A15498  22.063   4.934  14.765  0.0120 -0.1991 -0.0046
 1321DOPE   D2A15499  21.892   4.992  14.326  0.0359 -0.1067  0.1247
 1321DOPE   C3A15500  21.737   5.393  14.208  0.0312 -0.3459 -0.2626
 1321DOPE   C4A15501  21.541   5.805  14.133 -0.1908 -0.1090 -0.2746
 1321DOPE   C1B15502  21.650   5.183  14.793 -0.1220  0.0997  0.1150
 1321DOPE   D2B15503  21.439   4.956  14.475 -0.1495 -0.2352  0.1669
 1321DOPE   C3B15504  21.298   5.107  14.047 -0.0171  0.0114  0.0292
 1321DOPE   C4B15505  20.898   5.094  13.876  0.3234 -0.1358 -0.2135
 1322DOPS   CNO15506  16.458   9.583  15.732 -0.1498  0.3606 -0.2199
 1322DOPS   PO415507  16.593   9.364  15.470 -0.1518 -0.2682 -0.1756
 1322DOPS   GL115508  16.403   9.220  15.093  0.0361  0.1765 -0.5513
 1322DOPS   GL215509  16.151   9.213  15.088 -0.0558 -0.2139  0.1274
 1322DOPS   C1A15510  16.709   9.263  14.791  0.1857 -0.1371 -0.1400
 1322DOPS   D2A15511  16.906   9.360  14.396 -0.0038 -0.0377  0.2044
 1322DOPS   C3A15512  16.657   9.344  13.981 -0.0662  0.0399  0.2381
 1322DOPS   C4A15513  16.568   9.763  13.714 -0.0084 -0.0063 -0.3908
 1322DOPS   C1B15514  16.285   8.872  14.816 -0.0218 -0.0457 -0.1979
 1322DOPS   D2B15515  16.194   8.776  14.433 -0.0557 -0.2709  0.2727
 1322DOPS   C3B15516  16.426   8.649  14.046 -0.0885 -0.0113 -0.3991
 1322DOPS   C4B15517  16.564   8.870  13.649 -0.3285  0.0846 -0.2219
 1323DOPS   CNO15518  13.442   1.351  15.203 -0.0959  0.0223 -0.0068
 1323DOPS   PO415519  13.566   1.012  15.410  0.0191  0.2629  0.2527
 1323DOPS   GL115520  13.517   0.801  15.179 -0.1827  0.1498 -0.2718
 1323DOPS   GL215521  13.280   0.817  14.971 -0.1583  0.0164 -0.3147
 1323DOPS   C1A15522  13.706   0.544  14.806  0.3295  0.2492 -0.2081
 1323DOPS   D2A15523  13.883   0.537  14.391  0.2154 -0.1189 -0.0699
 1323DOPS   C3A15524  13.672   0.368  14.088  0.2559 -0.0421  0.3377
 1323DOPS   C4A15525  13.537  -0.064  13.954  0.6789  0.0050 -0.1566
 1323DOPS   C1B15526  13.622   1.031  14.758 -0.0552 -0.1235  0.1275
 1323DOPS   D2B15527  13.870   1.291  14.482 -0.0841  0.0481  0.0441
 1323DOPS   C3B15528  14.110   0.929  14.187 -0.0522 -0.1078 -0.2455
 1323DOPS   C4B15529  14.061   0.625  13.811  0.1292  0.2377 -0.0822
 1324POSM   NC315530  13.735   7.398  16.298  0.1580  0.0150  0.0890
 1324POSM   PO415531  13.891   7.296  15.967  0.1046 -0.1840  0.0689
 1324POSM   AM115532  13.811   7.487  15.733  0.1013  0.0165 -0.1073
 1324POSM   AM215533  13.626   7.546  15.527  0.1574  0.2945  0.0638
 1324POSM   T1A15534  14.042   7.781  15.423  0.3809 -0.0938 -0.2662
 1324POSM   C2A15535  13.969   7.955  15.038  0.3560 -0.2019 -0.1841
 1324POSM   C3A15536  14.027   8.316  14.752 -0.2189  0.0809 -0.0362
 1324POSM   C1B15537  13.580   7.601  15.181  0.0998 -0.2757  0.1549
 1324POSM   D2B15538  13.683   7.691  14.758  0.1132  0.1863 -0.2655
 1324POSM   C3B15539  13.604   8.145  14.564 -0.0436 -0.0050 -0.0107
 1324POSM   C4B15540  13.835   8.466  14.302 -0.1327 -0.1532 -0.0410
 1325POSM   NC315541  20.379   5.015  15.542  0.0794  0.2582 -0.4098
 1325POSM   PO415542  20.269   5.355  15.757 -0.0395  0.0256  0.0516
 1325POSM   AM115543  20.230   5.444  15.440  0.2925 -0.0051 -0.1076
 1325POSM   AM215544  20.326   5.637  15.252 -0.2506 -0.0647  0.2399
 1325POSM   T1A15545  19.858   5.552  15.124  0.0183  0.1843  0.1321
 1325POSM   C2A15546  19.805   5.693  14.716  0.3844  0.0477  0.1840
 1325POSM   C3A15547  19.746   5.988  14.307 -0.3164  0.0879 -0.2532
 1325POSM   C1B15548  20.441   5.434  14.991 -0.2634 -0.0005  0.1653
 1325POSM   D2B15549  20.643   5.304  14.636 -0.1221  0.2693  0.0468
 1325POSM   C3B15550  20.464   5.202  14.193  0.1709 -0.1519  0.1981
 1325POSM   C4B15551  20.291   4.908  13.833  0.0826 -0.0784  0.0756
 1326DOPC   NC315552  14.452   1.953  15.374  0.0501 -0.1582 -0.1675
 1326DOPC   PO415553  14.753   2.065  15.154  0.0769  0.1939  0.2652
 1326DOPC   GL115554  14.503   1.854  14.887  0.1764  0.3540 -0.0910
 1326DOPC   GL215555  14.692   1.665  14.770 -0.1054 -0.0163  0.0932
 1326DOPC   C1A15556  14.271   1.728  14.450  0.2755 -0.1590  0.0876
 1326DOPC   D2A15557  14.255   1.436  14.104  0.1498 -0.1220  0.0560
 1326DOPC   C3A15558  13.784   1.292  13.979  0.0998  0.0544  0.3721
 1326DOPC   C4A15559  13.609   1.350  13.572 -0.0459 -0.1848  0.2016
 1326DOPC   C1B15560  14.702   1.964  14.380 -0.1687 -0.0582  0.0734
 1326DOPC   D2B15561  14.471   1.883  14.005 -0.0827  0.0602  0.0442
 1326DOPC   C3B15562  14.511   2.154  13.634 -0.1595 -0.0856  0.0975
 1326DOPC   C4B15563  14.652   2.497  13.259  0.0020 -0.1434 -0.1405
 1327POSM   NC315564  16.328  10.918  15.811  0.1100 -0.0367  0.0365
 1327POSM   PO415565  16.513  10.674  15.543 -0.1883 -0.1101  0.4036
 1327POSM   AM115566  16.730  10.709  15.288 -0.2385 -0.6276 -0.1902
 1327POSM   AM215567  16.924  10.576  15.131 -0.4050  0.2371  0.0311
 1327POSM   T1A15568  16.699  10.738  14.768  0.0867 -0.0655 -0.0619
 1327POSM   C2A15569  16.684  10.766  14.320  0.0029 -0.1656  0.0860
 1327POSM   C3A15570  16.794  10.682  13.895 -0.1835 -0.1474  0.2103
 1327POSM   C1B15571  16.935  10.324  14.913  0.4100 -0.0225 -0.1482
 1327POSM   D2B15572  17.027  10.189  14.475 -0.1033  0.0268  0.0850
 1327POSM   C3B15573  17.198  10.504  14.148 -0.0917 -0.1026 -0.3847
 1327POSM   C4B15574  17.559  10.771  14.040 -0.0538 -0.1369  0.0493
 1328DOPC   NC315575  18.044   6.754  15.555 -0.1174 -0.1329 -0.2523
 1328DOPC   PO415576  18.013   6.448  15.382  0.2545  0.0734  0.0777
 1328DOPC   GL115577  18.130   6.024  15.212  0.4428  0.1780 -0.1069
 1328DOPC   GL215578  18.402   6.085  15.244  0.3354  0.0343 -0.1596
 1328DOPC   C1A15579  18.247   5.683  14.876 -0.2397  0.1801  0.0180
 1328DOPC   D2A15580  18.129   5.351  14.581 -0.1147  0.3384  0.2116
 1328DOPC   C3A15581  18.014   5.420  14.111  0.0970  0.0575 -0.1051
 1328DOPC   C4A15582  17.716   5.480  13.728 -0.1999  0.1712  0.1774
 1328DOPC   C1B15583  18.673   5.961  14.902  0.0660  0.1866 -0.0014
 1328DOPC   D2B15584  18.996   5.906  14.609  0.2416  0.0744 -0.1090
 1328DOPC   C3B15585  19.250   6.164  14.322  0.1299 -0.1649 -0.2172
 1328DOPC   C4B15586  19.253   6.484  13.978 -0.0114 -0.0826  0.0897
 1329POSM   NC315587  18.921   5.648  16.206 -0.1447 -0.2781  0.2315
 1329POSM   PO415588  18.568   5.806  16.160 -0.1522 -0.3202 -0.1662
 1329POSM   AM115589  18.557   5.567  15.890  0.1008 -0.0340 -0.3035
 1329POSM   AM215590  18.332   5.344  15.853  0.0061  0.1940 -0.2398
 1329POSM   T1A15591  18.626   5.581  15.411  0.1847 -0.0481 -0.3165
 1329POSM   C2A15592  18.785   5.456  15.042  0.1612  0.1818  0.0747
 1329POSM   C3A15593  18.611   5.415  14.597  0.3307  0.1281  0.1769
 1329POSM   C1B15594  18.241   5.281  15.558  0.2243  0.1495  0.1248
 1329POSM   D2B15595  18.249   5.273  15.105 -0.1056 -0.2864  0.1681
 1329POSM   C3B15596  18.406   5.019  14.834  0.1492  0.1110  0.0345
 1329POSM   C4B15597  18.779   4.795  14.704  0.1160 -0.0478 -0.0136
 1330POSM   NC315598  20.347   2.300  15.794 -0.0219 -0.2360  0.0741
 1330POSM   PO415599  20.244   2.003  16.064  0.2003  0.0086  0.3880
 1330POSM   AM115600  20.250   1.832  15.805  0.2831 -0.1514 -0.0427
 1330POSM   AM215601  20.136   1.584  15.650  0.2166  0.3912  0.0275
 1330POSM   T1A15602  20.518   1.857  15.412  0.0603  0.1734  0.0760
 1330POSM   C2A15603  20.927   1.717  15.160 -0.0811 -0.1109  0.2740
 1330POSM   C3A15604  21.378   1.873  15.146  0.1601  0.2771  0.1055
 1330POSM   C1B15605  20.152   1.357  15.386 -0.0711  0.0534 -0.1246
 1330POSM   D2B15606  19.989   1.421  14.940  0.1612 -0.2830  0.0935
 1330POSM   C3B15607  19.650   1.399  14.595 -0.1312 -0.2860  0.2583
 1330POSM   C4B15608  19.288   1.261  14.313  0.1826 -0.1443  0.1348
 1331DOPC   NC315609  13.504   3.226  15.888 -0.0507  0.0743  0.1173
 1331DOPC   PO415610  13.680   3.071  15.540 -0.2167 -0.2948  0.1804
 1331DOPC   GL115611  13.460   3.209  15.249  0.0378  0.2293  0.0349
 1331DOPC   GL215612  13.217   3.088  15.201 -0.0002  0.0416  0.0880
 1331DOPC   C1A15613  13.749   3.257  14.893  0.0485  0.1136  0.3188
 1331DOPC   D2A15614  13.703   3.559  14.528  0.2914 -0.0119 -0.0516
 1331DOPC   C3A15615  14.039   3.557  14.219 -0.0746 -0.2768 -0.0238
 1331DOPC   C4A15616  14.445   3.606  13.936  0.1584 -0.2480 -0.3399
 1331DOPC   C1B15617  13.304   3.067  14.788 -0.0298  0.3519  0.1729
 1331DOPC   D2B15618  13.395   3.113  14.292 -0.1072 -0.0555 -0.2173
 1331DOPC   C3B15619  13.753   3.080  13.993  0.1252 -0.0083 -0.1577
 1331DOPC   C4B15620  13.850   2.991  13.581 -0.0450  0.1856 -0.1595
 1332DOPE   NH315621  13.603   1.838  15.235 -0.0270  0.0657  0.3283
 1332DOPE   PO415622  13.885   1.944  15.395  0.1691 -0.2772  0.1769
 1332DOPE   GL115623  14.057   2.135  15.069 -0.1409 -0.0341  0.0817
 1332DOPE   GL215624  13.843   2.165  14.924  0.0717  0.1359 -0.2220
 1332DOPE   C1A15625  14.344   2.374  14.801  0.1163 -0.0113  0.2847
 1332DOPE   D2A15626  14.409   2.314  14.379  0.1620 -0.2696 -0.1195
 1332DOPE   C3A15627  14.072   2.077  14.125 -0.0102  0.0673 -0.0151
 1332DOPE   C4A15628  13.983   1.879  13.720  0.1567 -0.1529 -0.1418
 1332DOPE   C1B15629  13.823   2.269  14.498 -0.0946  0.0090  0.2322
 1332DOPE   D2B15630  13.606   2.624  14.239  0.0789  0.1265 -0.0402
 1332DOPE   C3B15631  13.932   2.541  13.906  0.1891 -0.4046 -0.2695
 1332DOPE   C4B15632  14.355   2.555  13.827  0.4027 -0.5403  0.1067
 1333DOPC   NC315633  13.155   3.893  16.015 -0.1121  0.0063 -0.3356
 1333DOPC   PO415634  13.111   4.022  15.644  0.0419  0.1973 -0.3678
 1333DOPC   GL115635  12.980   4.283  15.321  0.3718 -0.4782  0.1557
 1333DOPC   GL215636  12.877   4.087  15.095 -0.3311  0.2834  0.0636
 1333DOPC   C1A15637  12.979   4.486  14.845  0.3048 -0.1916  0.1098
 1333DOPC   D2A15638  13.128   4.452  14.446  0.0481  0.1354  0.0163
 1333DOPC   C3A15639  12.901   4.718  14.153  0.0559  0.1509 -0.1875
 1333DOPC   C4A15640  12.660   4.561  13.796 -0.2848  0.3675 -0.3468
 1333DOPC   C1B15641  13.257   4.017  14.872  0.1029  0.1155  0.3033
 1333DOPC   D2B15642  13.683   4.056  14.840  0.1968 -0.0275 -0.0398
 1333DOPC   C3B15643  13.813   4.517  14.902 -0.4140  0.2263 -0.2649
 1333DOPC   C4B15644  13.431   4.700  14.997  0.0409 -0.2463  0.1107
 1334POSM   NC315645  20.206   7.436  15.022 -0.2028 -0.0938 -0.0707
 1334POSM   PO415646  20.399   7.476  15.375 -0.1435  0.1325 -0.2721
 1334POSM   AM115647  20.715   7.372  15.238 -0.1916  0.1170 -0.1267
 1334POSM   AM215648  20.845   7.105  15.162  0.1015  0.0626  0.2240
 1334POSM   T1A15649  21.161   7.451  15.092 -0.1819  0.3398  0.1310
 1334POSM   C2A15650  21.580   7.537  15.145  0.0559  0.1451  0.0223
 1334POSM   C3A15651  21.874   7.889  15.082  0.1037 -0.0502 -0.0766
 1334POSM   C1B15652  20.676   6.922  14.921  0.1021 -0.2755  0.1317
 1334POSM   D2B15653  20.795   6.859  14.448  0.1548  0.0918 -0.2444
 1334POSM   C3B15654  21.111   6.537  14.451 -0.0033  0.1406 -0.2895
 1334POSM   C4B15655  21.208   6.175  14.122  0.1770 -0.0206  0.5306
 1335POSM   NC315656  12.375  10.097  15.716  0.2790 -0.0899 -0.1687
 1335POSM   PO415657  12.221   9.739  15.832  0.0336 -0.1027  0.1996
 1335POSM   AM115658  12.225   9.726  15.525 -0.1253  0.0597  0.0856
 1335POSM   AM215659  12.475   9.702  15.354  0.3105  0.1137 -0.0909
 1335POSM   T1A15660  12.163   9.836  15.037  0.0392 -0.1391 -0.1463
 1335POSM   C2A15661  12.273  10.088  14.656 -0.0435 -0.1996 -0.0914
 1335POSM   C3A15662  12.017   9.801  14.388  0.0348 -0.0468  0.0310
 1335POSM   C1B15663  12.665   9.659  15.058 -0.1183 -0.1984  0.0425
 1335POSM   D2B15664  12.941   9.467  14.742 -0.0438  0.0436 -0.1592
 1335POSM   C3B15665  13.313   9.454  14.435 -0.0038  0.1885 -0.0824
 1335POSM   C4B15666  13.699   9.208  14.484 -0.1808  0.2728  0.0737
 1336POSM   NC315667  14.884   5.565  15.813  0.0140 -0.2464 -0.0777
 1336POSM   PO415668  15.082   5.893  15.848  0.0491 -0.0258  0.2529
 1336POSM   AM115669  15.004   5.954  15.504  0.1846 -0.2208 -0.0698
 1336POSM   AM215670  14.798   6.057  15.282 -0.0845 -0.1877  0.3256
 1336POSM   T1A15671  15.162   5.783  15.045  0.3296  0.1443  0.0498
 1336POSM   C2A15672  15.233   5.892  14.600 -0.0213  0.1073  0.0695
 1336POSM   C3A15673  14.984   5.843  14.194  0.2517  0.1091 -0.0217
 1336POSM   C1B15674  14.736   6.015  14.963 -0.1560 -0.1314  0.2269
 1336POSM   D2B15675  14.725   6.139  14.539  0.4172 -0.2318  0.1657
 1336POSM   C3B15676  14.430   6.338  14.233 -0.0154 -0.1364  0.1484
 1336POSM   C4B15677  14.078   6.600  14.078 -0.0106  0.0715  0.0404
 1337POSM   NC315678  14.568  10.946  15.452  0.1724  0.0619  0.1394
 1337POSM   PO415679  14.360  11.135  15.159  0.0597  0.5061  0.1717
 1337POSM   AM115680  14.197  11.211  14.883 -0.1638 -0.2957  0.1227
 1337POSM   AM215681  14.256  11.413  14.675 -0.4560 -0.2766 -0.0368
 1337POSM   T1A15682  14.059  10.978  14.456  0.0440 -0.2150  0.0249
 1337POSM   C2A15683  13.959  10.675  14.126 -0.1463  0.0841  0.0185
 1337POSM   C3A15684  13.653  10.775  13.727  0.4315 -0.1322  0.2603
 1337POSM   C1B15685  14.473  11.264  14.515 -0.3556 -0.1187  0.0878
 1337POSM   D2B15686  14.723  11.107  14.130  0.1908  0.0371 -0.0376
 1337POSM   C3B15687  14.980  10.731  14.045 -0.0751  0.0123  0.1024
 1337POSM   C4B15688  14.911  10.412  13.688 -0.1710  0.0875  0.2197
 1338DOPC   NC315689  22.496   7.432  15.991  0.1367 -0.2183  0.0135
 1338DOPC   PO415690  22.718   7.292  15.733  0.0650  0.0664 -0.3093
 1338DOPC   GL115691  22.781   7.347  15.377 -0.5064  0.1570  0.0354
 1338DOPC   GL215692  22.944   7.135  15.308  0.0417  0.0340 -0.1019
 1338DOPC   C1A15693  22.814   7.687  15.008 -0.0110  0.0654  0.1172
 1338DOPC   D2A15694  22.697   7.627  14.584 -0.0105 -0.1365 -0.0791
 1338DOPC   C3A15695  22.574   7.418  14.230 -0.1219  0.0034  0.1607
 1338DOPC   C4A15696  22.236   7.365  13.945 -0.0294  0.0546  0.1459
 1338DOPC   C1B15697  23.137   7.328  14.896 -0.1208  0.0088  0.2232
 1338DOPC   D2B15698  23.318   7.594  14.522 -0.0350  0.0602 -0.2642
 1338DOPC   C3B15699  23.176   8.007  14.312  0.1232 -0.2201  0.1881
 1338DOPC   C4B15700  22.995   8.443  14.209 -0.0541  0.0462 -0.4007
 1339POSM   NC315701  22.025   7.462  15.989 -0.0836 -0.0943 -0.2449
 1339POSM   PO415702  22.197   7.265  15.712  0.1247  0.1431  0.1178
 1339POSM   AM115703  22.274   7.328  15.400 -0.2710  0.0638  0.2248
 1339POSM   AM215704  22.366   7.565  15.325 -0.3598 -0.3524 -0.2451
 1339POSM   T1A15705  22.555   7.248  14.976  0.2164  0.0967  0.0708
 1339POSM   C2A15706  22.765   7.109  14.576 -0.0266  0.0285 -0.0301
 1339POSM   C3A15707  22.745   6.808  14.245  0.1848  0.3198  0.3764
 1339POSM   C1B15708  22.309   7.681  14.989 -0.0041 -0.1433  0.2385
 1339POSM   D2B15709  22.298   7.991  14.722  0.2634  0.5616  0.2088
 1339POSM   C3B15710  22.232   7.812  14.271  0.0387  0.0766  0.1132
 1339POSM   C4B15711  22.207   7.913  13.831  0.4358  0.3023  0.1509
 1340DOPS   CNO15712  16.826   5.510  15.567  0.0095 -0.0142 -0.1429
 1340DOPS   PO415713  16.719   5.210  15.355  0.0864  0.1116 -0.3711
 1340DOPS   GL115714  16.583   5.577  15.145  0.1712 -0.0667  0.0652
 1340DOPS   GL215715  16.452   5.413  14.975  0.0845  0.1103  0.0385
 1340DOPS   C1A15716  16.548   5.861  14.731 -0.0337 -0.2112 -0.3034
 1340DOPS   D2A15717  16.435   5.898  14.263  0.2158 -0.3139  0.2897
 1340DOPS   C3A15718  16.738   6.076  13.951  0.1739 -0.2303 -0.2683
 1340DOPS   C4A15719  17.050   6.414  13.906  0.0059 -0.2120 -0.1910
 1340DOPS   C1B15720  16.232   5.524  14.566  0.0627 -0.0094  0.3511
 1340DOPS   D2B15721  16.055   5.630  14.145 -0.0402  0.4082  0.2274
 1340DOPS   C3B15722  16.189   5.520  13.698 -0.0307  0.1618 -0.0477
 1340DOPS   C4B15723  16.257   5.225  13.371  0.0818  0.0480  0.0873
 1341DOPS   CNO15724  11.809   7.904  16.065 -0.0709  0.1237  0.0075
 1341DOPS   PO415725  12.025   7.631  15.925  0.5903  0.1174  0.1575
 1341DOPS   GL115726  12.166   7.522  15.594 -0.0434  0.3306 -0.2817
 1341DOPS   GL215727  11.971   7.584  15.428  0.0809 -0.1719  0.1502
 1341DOPS   C1A15728  12.239   7.125  15.286  0.0150  0.0895  0.1011
 1341DOPS   D2A15729  12.497   6.828  14.995 -0.2168  0.3825  0.2191
 1341DOPS   C3A15730  12.589   6.962  14.562  0.0115  0.3283  0.1079
 1341DOPS   C4A15731  12.465   7.325  14.303  0.0078 -0.1459  0.3424
 1341DOPS   C1B15732  11.789   7.208  15.528  0.1598  0.5209 -0.3861
 1341DOPS   D2B15733  11.704   6.770  15.396  0.2496  0.4273 -0.1166
 1341DOPS   C3B15734  11.468   6.809  14.944 -0.1280  0.0563  0.2056
 1341DOPS   C4B15735  11.616   6.786  14.479  0.0296  0.0961 -0.1869
 1342DOPS   CNO15736  16.348   7.476  16.000  0.2344 -0.1369  0.0434
 1342DOPS   PO415737  16.221   7.499  15.631  0.0629  0.0304 -0.0174
 1342DOPS   GL115738  16.234   7.619  15.233 -0.5773  0.0163 -0.2889
 1342DOPS   GL215739  16.542   7.467  15.164 -0.2089  0.2384 -0.2696
 1342DOPS   C1A15740  16.374   8.005  15.013  0.1787 -0.1367  0.2497
 1342DOPS   D2A15741  16.368   8.225  14.607 -0.1639  0.0476 -0.1002
 1342DOPS   C3A15742  16.626   8.179  14.207 -0.2086 -0.2169 -0.2876
 1342DOPS   C4A15743  16.745   8.391  13.781 -0.1433 -0.1380  0.2225
 1342DOPS   C1B15744  16.799   7.519  14.814  0.0573 -0.1544  0.1033
 1342DOPS   D2B15745  16.713   7.280  14.428  0.1690  0.0724 -0.0404
 1342DOPS   C3B15746  16.872   7.402  13.989 -0.1726 -0.0131 -0.0135
 1342DOPS   C4B15747  16.958   7.434  13.540 -0.1847 -0.0222 -0.3663
 1343POSM   NC315748  19.378   3.142  16.303  0.2716  0.0943  0.0777
 1343POSM   PO415749  19.678   3.131  16.086 -0.1330 -0.1893  0.0975
 1343POSM   AM115750  19.697   3.141  15.733  0.1679 -0.0484  0.0443
 1343POSM   AM215751  19.822   3.031  15.510  0.1379  0.1319  0.2203
 1343POSM   T1A15752  19.515   3.440  15.379 -0.2308 -0.0971 -0.1783
 1343POSM   C2A15753  19.797   3.693  15.125 -0.0671 -0.1546 -0.0998
 1343POSM   C3A15754  20.007   3.914  14.756  0.4236 -0.0931 -0.2670
 1343POSM   C1B15755  19.958   3.236  15.336 -0.0769  0.3897  0.2862
 1343POSM   D2B15756  20.097   3.339  14.909 -0.1848  0.1271  0.2455
 1343POSM   C3B15757  19.941   3.082  14.601  0.0442  0.0214 -0.1913
 1343POSM   C4B15758  19.603   3.070  14.290 -0.0829  0.0205 -0.0905
 1344DOPE   NH315759  20.307  11.749  15.986  0.3362 -0.1246 -0.1953
 1344DOPE   PO415760  20.146  11.821  15.717  0.5482 -0.1223  0.0475
 1344DOPE   GL115761  19.813  11.713  15.461 -0.0054 -0.1428 -0.0485
 1344DOPE   GL215762  19.884  11.456  15.449  0.0298 -0.2179  0.1663
 1344DOPE   C1A15763  19.776  11.798  15.017  0.1158  0.1844  0.1182
 1344DOPE   D2A15764  19.728  12.020  14.634 -0.0388 -0.0349  0.0961
 1344DOPE   C3A15765  19.425  12.006  14.271  0.1232 -0.1052 -0.0321
 1344DOPE   C4A15766  19.303  11.918  13.816  0.2906  0.0472  0.2287
 1344DOPE   C1B15767  19.463  11.457  15.186 -0.0478 -0.3285  0.0482
 1344DOPE   D2B15768  19.028  11.252  15.063  0.0254 -0.1127  0.0595
 1344DOPE   C3B15769  19.010  11.207  14.614  0.4634 -0.0129 -0.4050
 1344DOPE   C4B15770  18.730  10.986  14.415  0.0588  0.3012  0.0675
 1345POSM   NC315771  17.252   0.936  15.967 -0.1920 -0.3031 -0.3051
 1345POSM   PO415772  17.043   0.611  15.973  0.0616 -0.0548  0.0875
 1345POSM   AM115773  16.849   0.589  15.716 -0.1425  0.0370  0.1364
 1345POSM   AM215774  16.770   0.776  15.521  0.2147 -0.1627  0.0144
 1345POSM   T1A15775  16.388   0.478  15.478  0.0179 -0.2596  0.0032
 1345POSM   C2A15776  16.080   0.366  15.170  0.0862 -0.0103 -0.1922
 1345POSM   C3A15777  15.784   0.129  14.898 -0.2615  0.1917 -0.2872
 1345POSM   C1B15778  16.718   0.711  15.177  0.2458 -0.2304 -0.2339
 1345POSM   D2B15779  16.862   0.557  14.791 -0.2546  0.0877  0.3100
 1345POSM   C3B15780  16.665   0.421  14.388  0.2827  0.2695 -0.1732
 1345POSM   C4B15781  16.889   0.418  13.958  0.0885  0.0478 -0.2350
 1346DOPS   CNO15782  18.928   6.486  15.523  0.0933  0.0037 -0.1809
 1346DOPS   PO415783  18.533   6.578  15.496 -0.1992  0.3046  0.0603
 1346DOPS   GL115784  18.631   6.630  15.078 -0.2645 -0.5171 -0.3841
 1346DOPS   GL215785  18.369   6.494  15.029 -0.0384 -0.0544 -0.1617
 1346DOPS   C1A15786  18.592   6.983  14.831 -0.2280  0.0790  0.2038
 1346DOPS   D2A15787  18.260   7.215  14.542 -0.1172  0.0573 -0.0584
 1346DOPS   C3A15788  18.106   7.532  14.266 -0.0686 -0.2544  0.1134
 1346DOPS   C4A15789  18.433   7.784  13.967  0.0451  0.1777  0.0502
 1346DOPS   C1B15790  18.304   6.236  14.594  0.0922 -0.0397 -0.1698
 1346DOPS   D2B15791  18.349   5.800  14.415 -0.1602 -0.1477 -0.1919
 1346DOPS   C3B15792  18.530   5.574  14.019  0.0621 -0.0808  0.1022
 1346DOPS   C4B15793  18.642   5.259  13.694 -0.1407 -0.1366  0.2138
 1347POSM   NC315794  21.947   4.741  15.988 -0.0306  0.3670  0.0606
 1347POSM   PO415795  21.713   5.086  15.872  0.2261  0.0487 -0.0080
 1347POSM   AM115796  21.581   5.068  15.558  0.2786 -0.1076 -0.1529
 1347POSM   AM215797  21.588   4.828  15.369 -0.2147  0.0773 -0.2112
 1347POSM   T1A15798  21.332   5.265  15.205  0.0556  0.3518 -0.0871
 1347POSM   C2A15799  21.142   5.218  14.794 -0.1890  0.2361 -0.0279
 1347POSM   C3A15800  20.969   4.989  14.427  0.1473 -0.2862  0.2708
 1347POSM   C1B15801  21.685   4.733  15.098  0.3544  0.0578  0.2381
 1347POSM   D2B15802  21.683   4.499  14.691  0.1705  0.0411 -0.2336
 1347POSM   C3B15803  21.683   4.545  14.217  0.0150 -0.1669 -0.1210
 1347POSM   C4B15804  21.411   4.270  13.984 -0.0584  0.0493 -0.3377
 1348POSM   NC315805  16.804   3.602  16.094  0.1556  0.0501  0.1343
 1348POSM   PO415806  16.565   3.339  15.968  0.1987  0.1778  0.4643
 1348POSM   AM115807  16.708   3.282  15.673 -0.0348  0.0350 -0.1350
 1348POSM   AM215808  16.886   3.064  15.626  0.3842  0.2122  0.0491
 1348POSM   T1A15809  16.905   3.438  15.250 -0.0035 -0.3267  0.0785
 1348POSM   C2A15810  17.217   3.325  15.024  0.0035  0.1959 -0.0755
 1348POSM   C3A15811  17.503   3.173  14.674 -0.1092 -0.1207  0.3595
 1348POSM   C1B15812  16.705   3.007  15.321  0.1191  0.3767  0.1440
 1348POSM   D2B15813  16.621   3.007  14.883  0.1427 -0.3652  0.1316
 1348POSM   C3B15814  16.992   3.073  14.644  0.2147 -0.0529 -0.2967
 1348POSM   C4B15815  17.116   3.199  14.260 -0.0479 -0.1781  0.4094
 1349POSM   NC315816  14.198   7.644  16.119  0.0736  0.2372 -0.1252
 1349POSM   PO415817  13.853   7.864  16.137  0.4410 -0.1053  0.0976
 1349POSM   AM115818  13.853   7.994  15.818  0.2319  0.0212 -0.2001
 1349POSM   AM215819  13.978   8.157  15.693  0.1817 -0.1903 -0.3157
 1349POSM   T1A15820  13.555   8.096  15.439  0.0876 -0.0577  0.1266
 1349POSM   C2A15821  13.351   8.026  15.026 -0.3004  0.0804 -0.2829
 1349POSM   C3A15822  13.094   7.985  14.646  0.3358 -0.1770 -0.0214
 1349POSM   C1B15823  14.097   8.426  15.434 -0.0240  0.2998  0.1782
 1349POSM   D2B15824  14.285   8.704  15.086 -0.1646 -0.0192 -0.0480
 1349POSM   C3B15825  14.700   8.682  14.879  0.1936 -0.1052  0.2726
 1349POSM   C4B15826  14.969   8.554  14.600 -0.2251 -0.0787 -0.4220
 1350DOPE   NH315827  22.408   8.478  15.645 -0.0821 -0.2807 -0.0107
 1350DOPE   PO415828  22.612   8.234  15.700 -0.0468 -0.0152  0.0409
 1350DOPE   GL115829  22.769   8.240  15.402 -0.0488 -0.2644  0.1547
 1350DOPE   GL215830  22.577   8.100  15.214 -0.0609  0.2285  0.2944
 1350DOPE   C1A15831  23.004   8.579  15.212  0.3285  0.1618 -0.3707
 1350DOPE   D2A15832  22.905   8.899  14.890 -0.0815 -0.1907 -0.1108
 1350DOPE   C3A15833  23.176   8.831  14.526  0.1310  0.0443 -0.1295
 1350DOPE   C4A15834  23.494   8.991  14.166  0.0060  0.0964 -0.0449
 1350DOPE   C1B15835  22.880   8.140  14.919  0.1618  0.0876 -0.0661
 1350DOPE   D2B15836  23.219   8.379  14.786 -0.0882 -0.3584  0.1273
 1350DOPE   C3B15837  23.472   8.462  14.358  0.0165 -0.1546 -0.2274
 1350DOPE   C4B15838  23.782   8.400  14.069 -0.1339 -0.5220  0.0004
 1351DOPE   NH315839  12.653   7.370  15.843 -0.0326 -0.1202 -0.1872
 1351DOPE   PO415840  12.696   7.084  15.696 -0.0728 -0.1945 -0.0566
 1351DOPE   GL115841  12.850   6.989  15.401  0.0194 -0.0061 -0.2257
 1351DOPE   GL215842  12.743   6.686  15.392 -0.0528 -0.3400  0.0283
 1351DOPE   C1A15843  13.159   7.099  15.083  0.2058 -0.1336 -0.0559
 1351DOPE   D2A15844  13.142   7.208  14.641 -0.1547 -0.0201  0.2514
 1351DOPE   C3A15845  13.321   7.582  14.424  0.0613  0.3395  0.0030
 1351DOPE   C4A15846  13.316   7.952  14.174 -0.0755 -0.6121  0.4256
 1351DOPE   C1B15847  12.956   6.538  14.976 -0.2290  0.0060  0.2724
 1351DOPE   D2B15848  13.058   6.662  14.563  0.2150  0.0645  0.1834
 1351DOPE   C3B15849  12.964   6.969  14.251 -0.1081  0.4136  0.1146
 1351DOPE   C4B15850  12.595   6.886  14.030  0.0613  0.0840  0.1354
 1352DOPS   CNO15851  22.024   0.913  15.675  0.2737  0.0193  0.1403
 1352DOPS   PO415852  22.224   0.745  15.950  0.0029  0.0620 -0.1200
 1352DOPS   GL115853  22.410   0.731  15.554  0.0631 -0.1256  0.3640
 1352DOPS   GL215854  22.638   0.892  15.361  0.4638 -0.0018 -0.0532
 1352DOPS   C1A15855  22.361   0.284  15.459 -0.1139 -0.0667  0.0273
 1352DOPS   D2A15856  22.479  -0.149  15.440  0.0513 -0.0847  0.2600
 1352DOPS   C3A15857  22.263  -0.385  15.081  0.0182  0.0314  0.4502
 1352DOPS   C4A15858  22.442  -0.540  14.681  0.2657 -0.3529 -0.0065
 1352DOPS   C1B15859  22.628   0.915  14.913 -0.1084 -0.1050 -0.0663
 1352DOPS   D2B15860  22.654   0.771  14.484  0.0571  0.1210  0.1854
 1352DOPS   C3B15861  22.936   0.979  14.145  0.4029 -0.0836 -0.1722
 1352DOPS   C4B15862  22.916   1.405  14.063  0.1396  0.3196  0.0660
 1353DOPS   CNO15863  12.661   3.846  15.455  0.1526 -0.1118 -0.2606
 1353DOPS   PO415864  12.404   4.133  15.433 -0.3351  0.1526 -0.1171
 1353DOPS   GL115865  12.284   4.095  15.103 -0.1118 -0.1188 -0.0740
 1353DOPS   GL215866  12.066   4.282  15.056  0.0768 -0.0667  0.0517
 1353DOPS   C1A15867  12.265   4.200  14.645  0.2062 -0.0412 -0.1914
 1353DOPS   D2A15868  12.095   3.972  14.231  0.0033  0.0878 -0.3983
 1353DOPS   C3A15869  11.635   3.825  14.348 -0.2031  0.2371 -0.4576
 1353DOPS   C4A15870  11.225   3.867  14.433 -0.0657  0.0187 -0.1988
 1353DOPS   C1B15871  12.026   4.641  14.741  0.0860 -0.4992 -0.1724
 1353DOPS   D2B15872  11.693   4.831  14.461 -0.0473  0.3408  0.1272
 1353DOPS   C3B15873  11.844   4.830  13.982 -0.2263 -0.1158 -0.0417
 1353DOPS   C4B15874  11.752   4.816  13.563  0.1763 -0.1368 -0.0324
 1354DOPE   NH315875  15.212   9.424  15.838  0.0527  0.2142 -0.0445
 1354DOPE   PO415876  15.098   9.510  15.585 -0.3129  0.2777 -0.0473
 1354DOPE   GL115877  15.114   9.401  15.190  0.1585  0.5317  0.0075
 1354DOPE   GL215878  15.397   9.464  15.138  0.1429 -0.2060 -0.0386
 1354DOPE   C1A15879  15.022   9.661  14.806 -0.1237  0.0312  0.2193
 1354DOPE   D2A15880  15.116   9.832  14.377  0.0227 -0.1091  0.1474
 1354DOPE   C3A15881  14.744   9.659  14.147  0.0538  0.1079  0.1130
 1354DOPE   C4A15882  14.562   9.257  14.017  0.0430  0.1115 -0.0479
 1354DOPE   C1B15883  15.408   9.388  14.623 -0.3237 -0.1697  0.1062
 1354DOPE   D2B15884  15.063   9.291  14.356  0.4887 -0.0841  0.2085
 1354DOPE   C3B15885  15.048   8.992  14.083 -0.2045 -0.0673 -0.1728
 1354DOPE   C4B15886  15.187   8.761  13.776 -0.1123  0.2318  0.1522
 1355DOPC   NC315887  16.216  10.012  15.986  0.2387  0.0045 -0.0779
 1355DOPC   PO415888  16.386  10.217  15.675 -0.1479 -0.0620  0.0846
 1355DOPC   GL115889  16.272  10.253  15.292  0.1077 -0.1184  0.0043
 1355DOPC   GL215890  16.429  10.371  15.080 -0.2943  0.0705  0.1984
 1355DOPC   C1A15891  16.099  10.091  14.886 -0.3398  0.0083  0.2619
 1355DOPC   D2A15892  15.779  10.218  14.518  0.0038 -0.0245 -0.2409
 1355DOPC   C3A15893  15.377  10.413  14.609 -0.3416  0.1062 -0.2463
 1355DOPC   C4A15894  15.138  10.772  14.513 -0.0165  0.0041 -0.4365
 1355DOPC   C1B15895  16.437  10.308  14.572 -0.2103 -0.2380 -0.1283
 1355DOPC   D2B15896  16.411  10.262  14.108  0.0653 -0.2618 -0.0541
 1355DOPC   C3B15897  16.837  10.187  13.957 -0.3207 -0.1925  0.3391
 1355DOPC   C4B15898  17.192  10.264  13.615  0.2611 -0.1159  0.4497
 1356DOPE   NH315899  17.282   8.283  15.822  0.1659 -0.3932 -0.2292
 1356DOPE   PO415900  17.591   8.292  15.861 -0.3931  0.0819 -0.1297
 1356DOPE   GL115901  17.519   8.281  15.423 -0.2312  0.1560 -0.1982
 1356DOPE   GL215902  17.257   8.421  15.255  0.3865  0.0195  0.4255
 1356DOPE   C1A15903  17.710   8.596  15.096 -0.0705  0.1627 -0.0060
 1356DOPE   D2A15904  17.889   8.904  14.786 -0.1220  0.3258  0.1063
 1356DOPE   C3A15905  18.311   9.047  14.932  0.0319 -0.2411  0.1045
 1356DOPE   C4A15906  18.683   8.832  14.864  0.0673  0.1266  0.1844
 1356DOPE   C1B15907  17.357   8.420  14.796  0.0173 -0.0169  0.3978
 1356DOPE   D2B15908  17.249   8.182  14.412  0.2404 -0.0674 -0.2463
 1356DOPE   C3B15909  17.186   8.486  14.043 -0.0118 -0.0501  0.2478
 1356DOPE   C4B15910  17.122   8.802  13.719 -0.0580 -0.1362 -0.0432
 1357DOPC   NC315911  11.113   3.290  15.406  0.0979 -0.1294 -0.0122
 1357DOPC   PO415912  11.450   3.454  15.365  0.1081  0.1649  0.2102
 1357DOPC   GL115913  11.665   3.475  15.071  0.0155  0.0586  0.3017
 1357DOPC   GL215914  11.799   3.282  14.924  0.0280 -0.2220  0.1807
 1357DOPC   C1A15915  11.447   3.442  14.678  0.0711 -0.0902 -0.2376
 1357DOPC   D2A15916  11.124   3.288  14.439  0.2868  0.1919 -0.1323
 1357DOPC   C3A15917  11.055   2.834  14.250 -0.0934  0.0466  0.0763
 1357DOPC   C4A15918  11.031   2.369  14.090  0.0471 -0.0485  0.2083
 1357DOPC   C1B15919  11.918   3.389  14.470  0.2376  0.0419  0.2767
 1357DOPC   D2B15920  11.992   3.517  14.039 -0.1104 -0.3868 -0.0274
 1357DOPC   C3B15921  12.343   3.460  13.757  0.0369 -0.2337  0.0607
 1357DOPC   C4B15922  12.771   3.666  13.522  0.1337 -0.1874  0.0465
 1358DOPE   NH315923  21.032   4.692  16.213  0.1409 -0.1743 -0.0276
 1358DOPE   PO415924  20.894   4.629  15.918  0.1535  0.0968 -0.0257
 1358DOPE   GL115925  20.809   4.812  15.537 -0.0083 -0.5201 -0.1186
 1358DOPE   GL215926  21.097   4.948  15.598 -0.1052  0.0618 -0.0117
 1358DOPE   C1A15927  20.766   4.483  15.223  0.1915  0.0597  0.0267
 1358DOPE   D2A15928  20.982   4.095  15.070  0.0733 -0.0495  0.0121
 1358DOPE   C3A15929  21.068   3.977  14.586  0.1541 -0.0291  0.0464
 1358DOPE   C4A15930  20.763   3.690  14.355  0.4474  0.4880  0.2262
 1358DOPE   C1B15931  21.170   4.793  15.130 -0.2570 -0.1409 -0.0213
 1358DOPE   D2B15932  21.175   4.444  14.790 -0.0330  0.1453  0.1904
 1358DOPE   C3B15933  21.195   4.526  14.340  0.0904  0.0630 -0.1590
 1358DOPE   C4B15934  20.885   4.641  14.023  0.1944 -0.0165 -0.1180
 1359DOPE   NH315935  20.760   8.412  15.592 -0.1741  0.1970 -0.3597
 1359DOPE   PO415936  20.690   8.222  15.359  0.1890 -0.1156 -0.2855
 1359DOPE   GL115937  20.681   8.064  14.968 -0.0292  0.2406 -0.3618
 1359DOPE   GL215938  20.699   7.748  14.995  0.0284 -0.0362  0.7170
 1359DOPE   C1A15939  21.002   7.898  14.649  0.2585  0.1019  0.4205
 1359DOPE   D2A15940  21.317   7.702  14.346  0.1613 -0.0105  0.1653
 1359DOPE   C3A15941  21.213   7.723  13.890  0.0047  0.0532 -0.0215
 1359DOPE   C4A15942  20.931   7.726  13.549  0.0218  0.1417 -0.1903
 1359DOPE   C1B15943  20.800   7.376  14.753 -0.0415 -0.0398  0.2478
 1359DOPE   D2B15944  21.056   7.273  14.388 -0.1813  0.4441  0.2501
 1359DOPE   C3B15945  20.844   7.216  14.005 -0.0350  0.0784  0.3389
 1359DOPE   C4B15946  20.845   6.955  13.622 -0.1012  0.0616  0.0867
 1360DOPC   NC315947  13.742  34.485  16.017 -0.1512  0.4790  0.0312
 1360DOPC   PO415948  13.814  34.788  15.815 -0.0121 -0.1948 -0.1948
 1360DOPC   GL115949  13.762  34.531  15.502  0.0812  0.2024  0.1338
 1360DOPC   GL215950  13.520  34.567  15.375  0.2092 -0.0655 -0.1192
 1360DOPC   C1A15951  13.994  34.423  15.125  0.0511  0.0857  0.3023
 1360DOPC   D2A15952  14.277  34.611  14.838 -0.0009 -0.3023  0.4181
 1360DOPC   C3A15953  14.277  35.034  14.655 -0.2061 -0.0554  0.0498
 1360DOPC   C4A15954  14.263  35.495  14.654 -0.0623  0.1021  0.1258
 1360DOPC   C1B15955  13.206  34.334  15.160 -0.0683  0.2500  0.0555
 1360DOPC   D2B15956  13.096  34.001  14.823 -0.1090 -0.0853 -0.1013
 1360DOPC   C3B15957  13.345  33.862  14.451  0.2665  0.2040  0.0252
 1360DOPC   C4B15958  13.520  34.140  14.179  0.2679 -0.2626 -0.0808
 1361DOPC   NC315959  22.915   4.297  15.400 -0.0674  0.0059 -0.0678
 1361DOPC   PO415960  22.557   4.278  15.525  0.0871  0.0385 -0.0317
 1361DOPC   GL115961  22.566   4.089  15.205  0.0061 -0.7536 -0.1964
 1361DOPC   GL215962  22.308   3.927  15.139  0.1412 -0.3794  0.1539
 1361DOPC   C1A15963  22.846   3.941  14.879 -0.1575  0.4897  0.3089
 1361DOPC   D2A15964  23.206   3.819  14.541 -0.1759 -0.2414 -0.1941
 1361DOPC   C3A15965  23.525   3.537  14.698 -0.0128 -0.1716 -0.0098
 1361DOPC   C4A15966  23.371   3.050  14.841 -0.0833 -0.2732 -0.1784
 1361DOPC   C1B15967  22.005   3.989  14.761 -0.0766 -0.2107  0.0282
 1361DOPC   D2B15968  21.615   4.046  14.490  0.1214  0.3608 -0.0342
 1361DOPC   C3B15969  21.410   3.810  14.120  0.0166  0.1179 -0.0762
 1361DOPC   C4B15970  21.124   3.515  14.130 -0.1515 -0.2507  0.2719
 1362DOPE   NH315971  19.216   2.310  16.024 -0.0253  0.0529 -0.0677
 1362DOPE   PO415972  18.924   2.463  16.072  0.0109 -0.1050 -0.0743
 1362DOPE   GL115973  18.908   2.552  15.708 -0.3548  0.3331  0.1697
 1362DOPE   GL215974  19.144   2.494  15.544 -0.0354 -0.1653 -0.1496
 1362DOPE   C1A15975  18.555   2.329  15.401 -0.0471 -0.0178 -0.1194
 1362DOPE   D2A15976  18.568   2.078  14.983 -0.0164  0.0392 -0.0933
 1362DOPE   C3A15977  18.476   1.872  14.631  0.0365  0.0648  0.4727
 1362DOPE   C4A15978  18.432   1.849  14.201 -0.2687 -0.0628  0.2594
 1362DOPE   C1B15979  19.528   2.668  15.314 -0.2788 -0.2096 -0.0198
 1362DOPE   D2B15980  19.886   2.795  15.054 -0.0314  0.1915 -0.2918
 1362DOPE   C3B15981  19.915   2.542  14.703  0.2012 -0.2024  0.1914
 1362DOPE   C4B15982  19.665   2.431  14.333  0.0246 -0.0038 -0.1330
 1363DOPE   NH315983  22.463   6.918  15.446 -0.1690  0.0796  0.1347
 1363DOPE   PO415984  22.635   6.695  15.298 -0.3225  0.0169 -0.2544
 1363DOPE   GL115985  22.727   6.797  14.953 -0.0654 -0.0295 -0.0008
 1363DOPE   GL215986  22.988   6.807  14.934 -0.0978  0.1184 -0.0571
 1363DOPE   C1A15987  22.608   6.481  14.587 -0.2548 -0.0899  0.2852
 1363DOPE   D2A15988  22.438   6.383  14.152 -0.0026 -0.2761 -0.0390
 1363DOPE   C3A15989  22.100   6.458  13.845 -0.0435  0.0063 -0.2812
 1363DOPE   C4A15990  21.852   6.449  13.502  0.2995 -0.3275 -0.2961
 1363DOPE   C1B15991  23.257   6.777  14.554  0.0212  0.3114  0.2998
 1363DOPE   D2B15992  23.396   6.724  14.157  0.2020 -0.2059  0.1295
 1363DOPE   C3B15993  23.056   6.544  13.894 -0.0764  0.2758 -0.0286
 1363DOPE   C4B15994  22.777   6.298  13.574  0.1473 -0.0034  0.0234
 1364DOPS   CNO15995  14.548   5.154  15.952  0.0118 -0.1911 -0.0295
 1364DOPS   PO415996  14.324   4.870  15.924  0.2085  0.2230  0.0227
 1364DOPS   GL115997  14.366   4.813  15.573  0.0025  0.0767 -0.1190
 1364DOPS   GL215998  14.304   4.523  15.450 -0.2172  0.3274  0.1662
 1364DOPS   C1A15999  14.003   4.866  15.201 -0.1256 -0.1173 -0.0214
 1364DOPS   D2A16000  13.875   5.074  14.844  0.2233  0.0076  0.0617
 1364DOPS   C3A16001  13.699   4.953  14.410 -0.1119 -0.2208 -0.1415
 1364DOPS   C4A16002  13.687   4.995  13.923  0.1388 -0.2124 -0.2116
 1364DOPS   C1B16003  14.320   4.518  14.946 -0.2615 -0.1366  0.1030
 1364DOPS   D2B16004  14.187   4.658  14.523  0.1771 -0.5426  0.0242
 1364DOPS   C3B16005  13.994   4.666  14.086 -0.1744  0.1684 -0.2006
 1364DOPS   C4B16006  14.165   4.519  13.724 -0.0272 -0.0607  0.0402
 1365POSM   NC316007  16.008  10.628  15.508  0.1056 -0.2890  0.2906
 1365POSM   PO416008  15.926  11.022  15.572 -0.4151 -0.0601  0.0520
 1365POSM   AM116009  16.058  11.059  15.271 -0.0460  0.1141 -0.3095
 1365POSM   AM216010  16.225  10.865  15.120 -0.0855  0.0062  0.2971
 1365POSM   T1A16011  16.139  11.241  14.803 -0.1137  0.4026  0.0333
 1365POSM   C2A16012  15.920  11.147  14.391 -0.1523  0.0101 -0.0258
 1365POSM   C3A16013  15.863  11.033  13.916  0.0417  0.1505 -0.1138
 1365POSM   C1B16014  16.225  10.779  14.824 -0.1349  0.5695 -0.2936
 1365POSM   D2B16015  16.161  10.689  14.358 -0.0565 -0.0300  0.4535
 1365POSM   C3B16016  16.339  11.027  14.038 -0.2614  0.0419 -0.0357
 1365POSM   C4B16017  16.655  11.107  13.697  0.2050 -0.0961 -0.1941
 1366DOPC   NC316018  11.768   4.855  15.637  0.2846 -0.1434  0.1307
 1366DOPC   PO416019  11.778   5.162  15.877  0.0172 -0.2149 -0.1100
 1366DOPC   GL116020  11.731   5.421  15.554 -0.0998 -0.0179 -0.2524
 1366DOPC   GL216021  11.661   5.276  15.379  0.2054 -0.1000 -0.1626
 1366DOPC   C1A16022  11.892   5.845  15.479 -0.1592  0.1521 -0.4805
 1366DOPC   D2A16023  11.978   6.240  15.208 -0.1251  0.0536 -0.0828
 1366DOPC   C3A16024  11.760   6.247  14.842 -0.1157  0.4570 -0.2322
 1366DOPC   C4A16025  11.633   6.241  14.481  0.1976  0.5340  0.1723
 1366DOPC   C1B16026  11.911   5.485  15.076 -0.0086  0.3222  0.0159
 1366DOPC   D2B16027  11.940   5.746  14.661 -0.0719  0.2694 -0.1819
 1366DOPC   C3B16028  12.148   6.099  14.394  0.2719 -0.0325  0.3640
 1366DOPC   C4B16029  12.257   6.473  14.201 -0.1275 -0.2034 -0.0061
 1367DOPC   NC316030  15.223   3.845  15.769  0.1994  0.1016  0.2319
 1367DOPC   PO416031  15.580   3.880  15.879 -0.0182  0.1437 -0.1823
 1367DOPC   GL116032  15.588   3.673  15.514 -0.2796  0.0805 -0.1463
 1367DOPC   GL216033  15.420   3.828  15.214 -0.2796  0.0638  0.0137
 1367DOPC   C1A16034  15.863   3.570  15.122  0.1189 -0.0453  0.2852
 1367DOPC   D2A16035  15.935   3.490  14.683  0.2299 -0.0542  0.3377
 1367DOPC   C3A16036  15.812   3.819  14.308 -0.0373 -0.1453 -0.1138
 1367DOPC   C4A16037  15.686   3.973  13.906  0.1476 -0.0155  0.0647
 1367DOPC   C1B16038  15.380   3.517  14.978  0.0786  0.1297 -0.0577
 1367DOPC   D2B16039  15.544   3.176  14.712  0.1459 -0.0213  0.1217
 1367DOPC   C3B16040  15.685   3.247  14.291 -0.0898  0.4137  0.3149
 1367DOPC   C4B16041  16.062   3.368  14.130  0.1397  0.1674 -0.1974
 1368DOPS   CNO16042  14.567   1.479  15.311  0.2301  0.0487  0.0158
 1368DOPS   PO416043  14.536   1.300  15.618 -0.0367  0.0146  0.0245
 1368DOPS   GL116044  14.599   0.988  15.255  0.2781  0.1168 -0.2660
 1368DOPS   GL216045  14.499   0.987  15.043 -0.0059  0.0880 -0.3329
 1368DOPS   C1A16046  14.762   0.582  15.229 -0.1168 -0.3247  0.0490
 1368DOPS   D2A16047  15.093   0.476  14.907  0.1036  0.6447  0.1538
 1368DOPS   C3A16048  15.332   0.065  14.972 -0.1513 -0.2049  0.4095
 1368DOPS   C4A16049  15.630  -0.131  15.261 -0.0599  0.0553 -0.0749
 1368DOPS   C1B16050  14.438   1.281  14.623  0.0684 -0.1998 -0.3428
 1368DOPS   D2B16051  14.762   1.439  14.310  0.2871 -0.0849  0.0336
 1368DOPS   C3B16052  15.231   1.483  14.252  0.1410  0.2761  0.1103
 1368DOPS   C4B16053  15.440   1.677  14.599  0.1727  0.3041 -0.0376
 1369DOPC   NC316054  21.334  10.702  15.650 -0.0626 -0.0710 -0.1993
 1369DOPC   PO416055  21.671  10.898  15.652  0.0427  0.2328  0.0238
 1369DOPC   GL116056  21.803  11.029  15.382 -0.1959  0.0436  0.0778
 1369DOPC   GL216057  21.843  10.851  15.109 -0.2178 -0.2686  0.1819
 1369DOPC   C1A16058  22.008  11.328  15.056  0.1072  0.2928 -0.0579
 1369DOPC   D2A16059  22.145  11.530  14.623  0.3124 -0.2652 -0.0405
 1369DOPC   C3A16060  21.976  11.525  14.136 -0.2714  0.1537  0.0293
 1369DOPC   C4A16061  21.983  11.888  13.815  0.2282 -0.0577  0.2556
 1369DOPC   C1B16062  21.663  11.040  14.670 -0.3394  0.2481 -0.0185
 1369DOPC   D2B16063  21.623  11.511  14.552  0.0658  0.1963  0.0244
 1369DOPC   C3B16064  21.507  11.825  14.224  0.1812  0.0046  0.0491
 1369DOPC   C4B16065  21.336  12.140  13.896  0.3236  0.0849 -0.0540
 1370POSM   NC316066  19.850   4.250  16.065 -0.3226 -0.0879  0.2764
 1370POSM   PO416067  20.230   4.323  16.182  0.2653 -0.0038 -0.3645
 1370POSM   AM116068  20.381   4.339  15.868 -0.0561  0.2504 -0.0176
 1370POSM   AM216069  20.431   4.466  15.581 -0.0093 -0.2183  0.2051
 1370POSM   T1A16070  20.687   4.097  15.508  0.2051  0.1231 -0.0369
 1370POSM   C2A16071  20.747   3.686  15.295  0.2745  0.0371 -0.0772
 1370POSM   C3A16072  20.577   3.306  15.089  0.3348  0.2251  0.1092
 1370POSM   C1B16073  20.288   4.580  15.340  0.3383 -0.0197  0.1171
 1370POSM   D2B16074  20.215   4.940  15.036 -0.0586  0.0371  0.0378
 1370POSM   C3B16075  20.327   4.925  14.591  0.0299 -0.2981 -0.1562
 1370POSM   C4B16076  20.462   4.663  14.267 -0.2132  0.0436 -0.1324
 1371DOPC   NC316077  18.125   1.708  15.960 -0.2033 -0.1376  0.0525
 1371DOPC   PO416078  17.773   1.803  16.106  0.0017 -0.1601 -0.1069
 1371DOPC   GL116079  17.496   1.697  15.854 -0.1902 -0.2145  0.0355
 1371DOPC   GL216080  17.561   1.964  15.694 -0.1987  0.3520 -0.1287
 1371DOPC   C1A16081  17.507   1.289  15.647 -0.3293 -0.3650  0.3091
 1371DOPC   D2A16082  17.648   0.979  15.329 -0.0427 -0.1590 -0.1921
 1371DOPC   C3A16083  17.568   0.509  15.124 -0.2767  0.2079  0.0977
 1371DOPC   C4A16084  17.173   0.222  15.211 -0.2837  0.0962  0.0733
 1371DOPC   C1B16085  17.569   1.668  15.326 -0.1413  0.2393  0.2741
 1371DOPC   D2B16086  17.927   1.394  15.285  0.0349  0.3566 -0.0993
 1371DOPC   C3B16087  17.949   1.133  14.884 -0.0925  0.1075 -0.1401
 1371DOPC   C4B16088  18.240   1.019  14.533 -0.0020  0.1580 -0.2981
 1372DOPC   NC316089  20.666  34.510  15.812 -0.0735 -0.2037  0.0294
 1372DOPC   PO416090  20.625  34.874  15.739  0.0675 -0.3917  0.2956
 1372DOPC   GL116091  20.768  35.032  15.401 -0.0901  0.0749  0.1980
 1372DOPC   GL216092  20.771  35.320  15.469  0.0412 -0.0132 -0.1512
 1372DOPC   C1A16093  20.728  35.121  14.969 -0.0006  0.0677  0.0240
 1372DOPC   D2A16094  20.698  35.461  14.672  0.0099  0.2474 -0.0034
 1372DOPC   C3A16095  20.756  35.411  14.199 -0.0025  0.2559 -0.1122
 1372DOPC   C4A16096  20.555  35.323  13.747 -0.1042  0.0086 -0.2422
 1372DOPC   C1B16097  20.892  35.624  15.120  0.1511  0.3092 -0.1831
 1372DOPC   D2B16098  20.822  35.958  14.837 -0.0423 -0.1910 -0.1673
 1372DOPC   C3B16099  21.112  35.870  14.458  0.0212 -0.1170  0.3598
 1372DOPC   C4B16100  21.267  36.168  14.127  0.1987  0.0645 -0.3197
 1373DOPE   NH316101  17.392  34.027  16.174 -0.1153 -0.0429 -0.0308
 1373DOPE   PO416102  17.699  34.201  16.167 -0.0103  0.2090 -0.0530
 1373DOPE   GL116103  17.948  34.244  15.855  0.2314 -0.0521  0.0409
 1373DOPE   GL216104  18.124  34.492  15.880 -0.4063  0.3305 -0.0661
 1373DOPE   C1A16105  18.343  34.171  15.518  0.1234  0.0920 -0.0291
 1373DOPE   D2A16106  18.605  34.270  15.207 -0.1566 -0.0059 -0.1242
 1373DOPE   C3A16107  18.831  34.013  14.900 -0.0290 -0.0009 -0.2750
 1373DOPE   C4A16108  19.144  33.959  14.548  0.1932 -0.1756  0.1568
 1373DOPE   C1B16109  18.506  34.686  15.765  0.1547  0.0596 -0.0437
 1373DOPE   D2B16110  18.761  34.763  15.394  0.0094  0.0913  0.3146
 1373DOPE   C3B16111  18.611  34.786  14.956 -0.4608 -0.2325  0.1064
 1373DOPE   C4B16112  18.250  34.676  14.788 -0.0427 -0.1081  0.1568
 1374POSM   NC316113  22.829   1.690  15.704  0.0009  0.0647  0.0919
 1374POSM   PO416114  22.634   1.381  15.649 -0.2399  0.3818  0.0525
 1374POSM   AM116115  22.320   1.328  15.531 -0.1498 -0.0070 -0.0906
 1374POSM   AM216116  22.065   1.451  15.508  0.1627  0.4842  0.3087
 1374POSM   T1A16117  22.133   1.114  15.118 -0.0466  0.4500  0.0969
 1374POSM   C2A16118  21.848   0.935  14.817 -0.0662 -0.2155 -0.0229
 1374POSM   C3A16119  21.396   0.986  14.867 -0.0372 -0.3722 -0.1496
 1374POSM   C1B16120  22.065   1.602  15.168 -0.0077 -0.1049  0.0868
 1374POSM   D2B16121  22.020   1.975  14.871 -0.0596  0.2500 -0.2215
 1374POSM   C3B16122  21.661   1.837  14.612 -0.2781 -0.0326  0.1750
 1374POSM   C4B16123  21.277   1.911  14.351  0.0113 -0.1303  0.1393
 1375POSM   NC316124  13.708   6.596  16.258 -0.2350  0.3555  0.0549
 1375POSM   PO416125  13.510   6.918  16.105  0.2244  0.1392  0.1761
 1375POSM   AM116126  13.563   6.811  15.771 -0.2033  0.0667 -0.0495
 1375POSM   AM216127  13.671   7.015  15.577 -0.1262  0.2887 -0.0973
 1375POSM   T1A16128  13.405   6.665  15.318 -0.1953  0.1275 -0.1308
 1375POSM   C2A16129  13.507   6.692  14.900 -0.3705 -0.1809  0.2351
 1375POSM   C3A16130  13.497   6.912  14.456  0.2404 -0.0500  0.4069
 1375POSM   C1B16131  13.748   7.129  15.234  0.1877 -0.2715 -0.1370
 1375POSM   D2B16132  13.673   7.191  14.809 -0.0743 -0.1195  0.0920
 1375POSM   C3B16133  13.982   7.343  14.549 -0.3015  0.1832  0.4717
 1375POSM   C4B16134  14.364   7.385  14.303 -0.3812  0.2825 -0.0734
 1376DOPE   NH316135  12.788   1.721  15.525 -0.0849  0.1112 -0.1304
 1376DOPE   PO416136  13.076   1.598  15.555  0.0042 -0.3136 -0.3705
 1376DOPE   GL116137  12.948   1.514  15.112  0.0755  0.3431  0.0015
 1376DOPE   GL216138  13.115   1.739  15.067 -0.0923  0.1379 -0.0269
 1376DOPE   C1A16139  13.015   1.475  14.654  0.1031 -0.1363  0.2987
 1376DOPE   D2A16140  13.246   1.317  14.360 -0.1590  0.0248 -0.0828
 1376DOPE   C3A16141  13.151   1.331  13.901 -0.0081  0.0786  0.2506
 1376DOPE   C4A16142  12.764   1.323  13.578 -0.1444  0.3902 -0.2492
 1376DOPE   C1B16143  13.428   1.755  14.721 -0.1276 -0.0419 -0.0342
 1376DOPE   D2B16144  13.757   1.770  14.369 -0.0622 -0.0938  0.0166
 1376DOPE   C3B16145  13.521   1.726  13.992  0.2845  0.0148  0.0077
 1376DOPE   C4B16146  13.195   1.761  13.731  0.2850 -0.2242  0.1542
 1377POSM   NC316147  11.985   2.531  15.451  0.3335  0.2047  0.3668
 1377POSM   PO416148  12.394   2.473  15.444  0.0084  0.2409  0.1473
 1377POSM   AM116149  12.566   2.278  15.224 -0.0923 -0.0074 -0.3078
 1377POSM   AM216150  12.697   2.305  14.943 -0.0828 -0.0993 -0.6976
 1377POSM   T1A16151  12.593   1.819  15.023  0.1986  0.0016  0.4026
 1377POSM   C2A16152  12.568   1.371  14.836 -0.2412  0.1727  0.1720
 1377POSM   C3A16153  12.431   1.057  14.493  0.0919 -0.2330  0.0892
 1377POSM   C1B16154  12.641   2.301  14.610  0.0354 -0.0921  0.1193
 1377POSM   D2B16155  12.811   2.228  14.227  0.2805  0.2072 -0.2809
 1377POSM   C3B16156  12.895   2.220  13.742 -0.1725 -0.0819 -0.3834
 1377POSM   C4B16157  12.882   1.926  13.394 -0.0043  0.0443  0.1310
 1378DOPE   NH316158  15.444  10.918  15.530  0.0300  0.2308 -0.0958
 1378DOPE   PO416159  15.562  10.650  15.582  0.2623 -0.2460  0.0448
 1378DOPE   GL116160  15.761  10.788  15.203  0.4397  0.0031  0.2097
 1378DOPE   GL216161  15.670  11.097  15.054  0.0403  0.2527  0.0896
 1378DOPE   C1A16162  15.777  10.677  14.773 -0.0983  0.0465 -0.2509
 1378DOPE   D2A16163  15.631  10.728  14.308  0.0468 -0.0727 -0.0149
 1378DOPE   C3A16164  15.819  10.401  14.033  0.0641 -0.3645 -0.1861
 1378DOPE   C4A16165  15.964   9.995  13.881  0.1671 -0.3271  0.0279
 1378DOPE   C1B16166  15.544  11.344  14.665  0.1265  0.0710  0.2944
 1378DOPE   D2B16167  15.667  11.563  14.298 -0.0016  0.1431 -0.1332
 1378DOPE   C3B16168  15.710  11.650  13.849 -0.1130  0.1199  0.1078
 1378DOPE   C4B16169  15.777  11.820  13.366 -0.2489  0.0397  0.4767
 1379POSM   NC316170  12.233   4.501  15.757 -0.1981  0.2040  0.2516
 1379POSM   PO416171  11.912   4.431  15.527 -0.1337  0.0948  0.0580
 1379POSM   AM116172  12.124   4.675  15.366  0.1426 -0.0897  0.0595
 1379POSM   AM216173  12.379   4.652  15.294  0.0582 -0.3114  0.1900
 1379POSM   T1A16174  12.169   5.010  15.019 -0.1197 -0.1640 -0.0860
 1379POSM   C2A16175  12.302   5.115  14.599 -0.0348 -0.1600 -0.0235
 1379POSM   C3A16176  12.011   5.235  14.254  0.0723  0.3541  0.2678
 1379POSM   C1B16177  12.487   4.605  14.990  0.2169  0.2494  0.0506
 1379POSM   D2B16178  12.563   4.692  14.509 -0.0452 -0.0101 -0.2075
 1379POSM   C3B16179  12.421   4.914  14.163  0.2026  0.1794  0.0974
 1379POSM   C4B16180  12.745   5.108  13.775  0.4381 -0.0056  0.2281
 1380DOPS   CNO16181  23.831   2.596  15.929 -0.1371 -0.1304  0.0536
 1380DOPS   PO416182  23.461   2.574  15.899  0.1048 -0.2104 -0.1662
 1380DOPS   GL116183  23.369   2.467  15.566  0.1653 -0.0087 -0.1544
 1380DOPS   GL216184  23.544   2.312  15.410  0.1186  0.0568 -0.0429
 1380DOPS   C1A16185  23.288   2.705  15.178 -0.3271 -0.2045  0.0360
 1380DOPS   D2A16186  23.342   2.609  14.730  0.1015  0.0333 -0.2268
 1380DOPS   C3A16187  23.597   2.896  14.490  0.0927 -0.0042  0.0843
 1380DOPS   C4A16188  23.621   3.136  14.113  0.0361 -0.0411  0.1799
 1380DOPS   C1B16189  23.927   2.109  15.187  0.0658  0.3528  0.0910
 1380DOPS   D2B16190  24.122   1.718  15.174  0.0640 -0.0805  0.3147
 1380DOPS   C3B16191  23.984   1.415  14.837 -0.1211 -0.2020  0.1131
 1380DOPS   C4B16192  23.800   1.255  14.435 -0.0408  0.1715 -0.5004
 1381DOPC   NC316193  17.008   9.212  15.700 -0.1128 -0.3897  0.0822
 1381DOPC   PO416194  17.285   9.240  15.464  0.0375 -0.0054 -0.1852
 1381DOPC   GL116195  16.995   9.311  15.200 -0.0129 -0.0197  0.0478
 1381DOPC   GL216196  16.922   9.540  15.139 -0.3214  0.0228 -0.0438
 1381DOPC   C1A16197  17.211   9.378  14.779 -0.2896  0.0095  0.1136
 1381DOPC   D2A16198  17.641   9.266  14.574 -0.1367 -0.2183 -0.0823
 1381DOPC   C3A16199  17.491   9.161  14.132  0.0226  0.0218  0.0346
 1381DOPC   C4A16200  17.133   9.321  13.914  0.0755  0.0528 -0.0417
 1381DOPC   C1B16201  16.803   9.852  14.785 -0.0256  0.0065  0.0931
 1381DOPC   D2B16202  16.639   9.860  14.323 -0.2575  0.1870 -0.2891
 1381DOPC   C3B16203  16.231   9.762  14.199 -0.1126 -0.0121  0.1453
 1381DOPC   C4B16204  16.079   9.509  13.932 -0.0482  0.0928 -0.3278
 1382DOPS   CNO16205  12.252  11.708  15.733  0.0074 -0.2493 -0.2097
 1382DOPS   PO416206  11.996  11.458  15.594 -0.0958 -0.1444 -0.0553
 1382DOPS   GL116207  11.870  11.167  15.319  0.0518 -0.2367  0.1449
 1382DOPS   GL216208  11.637  11.149  15.343 -0.0386  0.2658 -0.2039
 1382DOPS   C1A16209  11.859  10.699  15.280  0.0098 -0.2124 -0.3839
 1382DOPS   D2A16210  11.998  10.226  15.263 -0.0075  0.1108  0.1708
 1382DOPS   C3A16211  11.842  10.156  14.844 -0.2297  0.0608 -0.0498
 1382DOPS   C4A16212  11.666  10.131  14.383  0.2270  0.0470  0.3631
 1382DOPS   C1B16213  11.373  11.143  14.933  0.2036  0.3059 -0.1393
 1382DOPS   D2B16214  10.951  11.266  14.753  0.0102 -0.3633  0.3000
 1382DOPS   C3B16215  10.570  11.386  14.509  0.2168 -0.1478  0.0020
 1382DOPS   C4B16216  10.105  11.278  14.600 -0.1233  0.1264  0.0935
 1383DOPE   NH316217  20.229   8.429  15.510  0.0631 -0.0060 -0.1844
 1383DOPE   PO416218  20.373   8.745  15.485  0.0954  0.1207  0.0448
 1383DOPE   GL116219  20.689   8.705  15.269  0.1232  0.1761  0.4791
 1383DOPE   GL216220  20.647   8.607  14.962 -0.3000 -0.2791  0.3612
 1383DOPE   C1A16221  21.151   8.767  15.321  0.1680 -0.2011  0.3404
 1383DOPE   D2A16222  21.562   8.784  15.200 -0.1577 -0.1441  0.1139
 1383DOPE   C3A16223  21.633   9.031  14.828 -0.0027  0.2087  0.2390
 1383DOPE   C4A16224  21.856   9.417  14.628 -0.4896  0.0744  0.0320
 1383DOPE   C1B16225  20.644   8.748  14.565  0.0194  0.0579 -0.0383
 1383DOPE   D2B16226  20.552   8.779  14.113  0.2697  0.0270 -0.0673
 1383DOPE   C3B16227  20.229   8.802  13.809  0.1140  0.1955 -0.1659
 1383DOPE   C4B16228  20.077   8.731  13.428 -0.1003 -0.0810  0.0479
 1384DOPC   NC316229  13.959   5.900  16.116 -0.1266  0.1297  0.1610
 1384DOPC   PO416230  13.604   6.034  16.059  0.2778 -0.0170 -0.1399
 1384DOPC   GL116231  13.461   6.042  15.742  0.3008  0.5357  0.2757
 1384DOPC   GL216232  13.701   6.328  15.645  0.0567  0.2842 -0.0867
 1384DOPC   C1A16233  13.334   6.102  15.268 -0.1635  0.1117  0.1020
 1384DOPC   D2A16234  13.182   6.118  14.836  0.0576 -0.0267  0.3458
 1384DOPC   C3A16235  13.449   6.351  14.482 -0.1675  0.1324 -0.1759
 1384DOPC   C4A16236  13.902   6.242  14.343  0.1258  0.0477  0.1321
 1384DOPC   C1B16237  13.812   6.203  15.221  0.1066  0.1377 -0.3743
 1384DOPC   D2B16238  13.745   6.118  14.800  0.1010  0.1566  0.0244
 1384DOPC   C3B16239  13.653   5.815  14.484  0.0467 -0.0309  0.1091
 1384DOPC   C4B16240  13.514   5.392  14.315  0.1825  0.0135 -0.2237
 1385DOPS   CNO16241  11.169   2.672  15.942  0.0785 -0.0435 -0.0250
 1385DOPS   PO416242  11.188   2.826  15.620 -0.1840  0.0219  0.1212
 1385DOPS   GL116243  11.190   2.844  15.250  0.0979  0.0561  0.1475
 1385DOPS   GL216244  11.236   2.562  15.089  0.4833  0.1094  0.1440
 1385DOPS   C1A16245  11.276   3.002  14.829  0.0160 -0.1974 -0.0579
 1385DOPS   D2A16246  11.532   3.006  14.477  0.0406  0.6089  0.1155
 1385DOPS   C3A16247  11.485   3.326  14.154  0.2402  0.0009 -0.2988
 1385DOPS   C4A16248  11.638   3.324  13.687  0.1378 -0.1653 -0.1356
 1385DOPS   C1B16249  11.670   2.647  14.865  0.0965  0.0825 -0.1534
 1385DOPS   D2B16250  12.013   2.819  14.626  0.0592 -0.2211  0.0988
 1385DOPS   C3B16251  11.870   2.696  14.188  0.0420  0.1584 -0.1151
 1385DOPS   C4B16252  11.464   2.532  14.111 -0.1354 -0.0011  0.4604
 1386DOPC   NC316253  15.587   2.182  15.884 -0.1892  0.3680 -0.0667
 1386DOPC   PO416254  15.456   2.492  15.634  0.2068 -0.3164 -0.0669
 1386DOPC   GL116255  15.634   2.179  15.357 -0.2087  0.1429  0.0735
 1386DOPC   GL216256  15.830   2.370  15.210 -0.2814 -0.2435  0.2651
 1386DOPC   C1A16257  15.490   2.057  14.958  0.2389  0.2802  0.1036
 1386DOPC   D2A16258  15.103   1.994  14.692 -0.1194 -0.0856 -0.0487
 1386DOPC   C3A16259  15.137   1.951  14.192 -0.2297  0.2446 -0.3238
 1386DOPC   C4A16260  14.854   2.226  13.969 -0.0420  0.2046  0.1335
 1386DOPC   C1B16261  16.104   2.348  14.820 -0.0629  0.0013 -0.2383
 1386DOPC   D2B16262  16.088   2.719  14.587  0.0386  0.2130 -0.0319
 1386DOPC   C3B16263  15.839   2.755  14.195 -0.0923  0.0363 -0.0094
 1386DOPC   C4B16264  15.427   2.818  14.279  0.1219 -0.0879  0.1573
 1387DOPE   NH316265  21.902   8.168  15.948 -0.0613  0.0306 -0.2389
 1387DOPE   PO416266  21.861   8.462  15.825 -0.0250  0.2685 -0.0192
 1387DOPE   GL116267  21.830   8.469  15.387  0.1919 -0.3916 -0.3812
 1387DOPE   GL216268  22.072   8.510  15.210 -0.0157 -0.1195  0.3123
 1387DOPE   C1A16269  21.617   8.338  14.998  0.1133  0.1575  0.0720
 1387DOPE   D2A16270  21.804   8.262  14.590 -0.2034 -0.0952 -0.1959
 1387DOPE   C3A16271  21.447   8.215  14.355 -0.4791  0.1934  0.1545
 1387DOPE   C4A16272  21.485   8.580  14.066 -0.2994 -0.1247 -0.0626
 1387DOPE   C1B16273  22.043   8.639  14.793  0.4119  0.0007 -0.1486
 1387DOPE   D2B16274  21.793   8.698  14.428 -0.0481  0.0217  0.0190
 1387DOPE   C3B16275  21.875   9.102  14.191 -0.1377 -0.3050 -0.2384
 1387DOPE   C4B16276  22.120   9.444  13.969  0.0156 -0.0658 -0.1034
 1388POSM   NC316277  17.945   8.816  15.940  0.1365  0.1084  0.0170
 1388POSM   PO416278  18.286   8.749  15.861 -0.1816 -0.2063 -0.0771
 1388POSM   AM116279  18.232   8.766  15.521 -0.1140 -0.3176 -0.1979
 1388POSM   AM216280  18.042   8.909  15.364  0.0259  0.2944 -0.0292
 1388POSM   T1A16281  18.187   8.539  15.070 -0.1774  0.1139 -0.4067
 1388POSM   C2A16282  17.981   8.150  15.038  0.1399  0.1393 -0.1562
 1388POSM   C3A16283  17.579   8.015  14.871  0.0397  0.1068  0.3088
 1388POSM   C1B16284  17.972   9.197  15.192 -0.0033  0.0528 -0.0041
 1388POSM   D2B16285  18.040   9.424  14.819  0.1643 -0.0818  0.0498
 1388POSM   C3B16286  18.301   9.746  14.624 -0.0159  0.0872 -0.1280
 1388POSM   C4B16287  18.480  10.019  14.307  0.2348 -0.0624 -0.2266
 1389DOPE   NH316288  16.791  10.208  15.414  0.4370  0.2297  0.0266
 1389DOPE   PO416289  16.634   9.950  15.340  0.1288  0.1332  0.1918
 1389DOPE   GL116290  16.372   9.632  15.130  0.1128 -0.1574  0.2220
 1389DOPE   GL216291  16.095   9.795  15.309 -0.2295 -0.1918  0.0417
 1389DOPE   C1A16292  16.293   9.565  14.686  0.1873  0.5403  0.0351
 1389DOPE   D2A16293  16.386   9.244  14.326 -0.0438 -0.2142 -0.1603
 1389DOPE   C3A16294  16.669   8.914  14.401  0.2726  0.0393 -0.1084
 1389DOPE   C4A16295  16.881   8.511  14.574  0.0328  0.3806  0.3837
 1389DOPE   C1B16296  15.847   9.519  14.951 -0.1649  0.0215  0.2996
 1389DOPE   D2B16297  15.948   9.201  14.598  0.1562 -0.2209  0.0034
 1389DOPE   C3B16298  15.785   9.192  14.211 -0.0935  0.0913  0.1409
 1389DOPE   C4B16299  15.889   8.983  13.844 -0.0549 -0.3524  0.0406
 1390POSM   NC316300  19.139   9.106  15.676 -0.2251 -0.0697 -0.2001
 1390POSM   PO416301  19.485   8.925  15.749 -0.2849  0.1376 -0.0212
 1390POSM   AM116302  19.441   8.822  15.441  0.2247 -0.2768  0.0497
 1390POSM   AM216303  19.522   8.584  15.322  0.2915 -0.1737 -0.0328
 1390POSM   T1A16304  19.176   8.855  15.054 -0.4041  0.0472  0.3429
 1390POSM   C2A16305  19.043   8.756  14.555 -0.1921 -0.1576  0.0140
 1390POSM   C3A16306  18.770   8.587  14.224  0.1532 -0.2671 -0.1942
 1390POSM   C1B16307  19.541   8.456  14.969  0.0894  0.1889 -0.1927
 1390POSM   D2B16308  19.725   8.262  14.607  0.2825  0.0880  0.0051
 1390POSM   C3B16309  19.650   7.833  14.443 -0.0495 -0.0033  0.0530
 1390POSM   C4B16310  19.394   7.409  14.396  0.2112 -0.0731 -0.3503
 1391DOPC   NC316311  19.720   5.262  16.038  0.2542 -0.0899  0.0468
 1391DOPC   PO416312  19.359   5.219  15.844  0.0986  0.0137 -0.0749
 1391DOPC   GL116313  19.394   5.040  15.485  0.4302  0.1728 -0.2095
 1391DOPC   GL216314  19.366   4.707  15.579  0.0683  0.0040 -0.4625
 1391DOPC   C1A16315  19.585   4.902  15.037 -0.0515 -0.0763  0.0084
 1391DOPC   D2A16316  19.748   4.775  14.560  0.2156 -0.3273 -0.0105
 1391DOPC   C3A16317  19.953   5.043  14.191 -0.1459  0.1095 -0.4533
 1391DOPC   C4A16318  19.910   5.531  14.146 -0.2873  0.0095 -0.1589
 1391DOPC   C1B16319  19.469   4.479  15.206  0.1505 -0.3284 -0.3010
 1391DOPC   D2B16320  19.562   4.133  14.916 -0.1766 -0.0075  0.0620
 1391DOPC   C3B16321  19.587   4.128  14.444 -0.2026 -0.0243  0.1846
 1391DOPC   C4B16322  19.605   4.140  13.963 -0.0129  0.3839  0.1543
 1392DOPE   NH316323  18.069  10.579  15.942  0.0202 -0.0989 -0.3494
 1392DOPE   PO416324  18.144  10.311  15.824 -0.1723  0.0230 -0.0418
 1392DOPE   GL116325  18.365  10.459  15.552  0.0534 -0.2788 -0.2324
 1392DOPE   GL216326  18.538  10.659  15.549 -0.4514 -0.0384  0.1789
 1392DOPE   C1A16327  18.623  10.358  15.156  0.3070 -0.3066  0.1361
 1392DOPE   D2A16328  18.784  10.128  14.862  0.2258  0.0180  0.1824
 1392DOPE   C3A16329  19.215  10.186  14.938  0.0675  0.2074  0.0248
 1392DOPE   C4A16330  19.696  10.186  14.994  0.4494  0.0831  0.0345
 1392DOPE   C1B16331  18.901  10.777  15.310 -0.1572  0.3222 -0.1027
 1392DOPE   D2B16332  19.003  10.713  14.894 -0.1099 -0.0876 -0.0519
 1392DOPE   C3B16333  18.906  10.459  14.528  0.1029 -0.2188 -0.4418
 1392DOPE   C4B16334  19.091  10.114  14.351 -0.1295 -0.0381  0.3129
 1393POSM   NC316335  18.970   1.214  15.996 -0.1599  0.0169  0.0635
 1393POSM   PO416336  18.704   0.938  16.021  0.5441 -0.0004  0.2049
 1393POSM   AM116337  18.643   0.861  15.689  0.1675 -0.0967  0.0602
 1393POSM   AM216338  18.803   0.994  15.460  0.0330  0.0372 -0.0854
 1393POSM   T1A16339  18.665   0.546  15.278  0.3003 -0.0353 -0.1105
 1393POSM   C2A16340  18.914   0.646  14.836  0.1673  0.1356  0.2645
 1393POSM   C3A16341  19.267   0.922  14.685 -0.1350  0.1383  0.0583
 1393POSM   C1B16342  18.911   1.023  15.155 -0.0765 -0.1832  0.1549
 1393POSM   D2B16343  18.732   1.065  14.745 -0.1977 -0.2627  0.2487
 1393POSM   C3B16344  18.697   0.996  14.337 -0.0827 -0.0139  0.0172
 1393POSM   C4B16345  18.936   1.111  13.946  0.0320  0.1116 -0.2339
 1394DOPE   NH316346  21.798   9.912  15.580 -0.2471 -0.2693  0.4197
 1394DOPE   PO416347  21.464   9.787  15.511 -0.2053 -0.1639 -0.0765
 1394DOPE   GL116348  21.264   9.749  15.140 -0.2462 -0.4076 -0.2085
 1394DOPE   GL216349  21.057   9.533  15.216 -0.0832  0.0061  0.2127
 1394DOPE   C1A16350  21.057   9.789  14.717  0.3789 -0.0840 -0.2115
 1394DOPE   D2A16351  21.315   9.839  14.367 -0.1203  0.2093 -0.1398
 1394DOPE   C3A16352  21.052   9.854  13.969 -0.1504 -0.1356  0.0738
 1394DOPE   C4A16353  21.030  10.021  13.550  0.1151  0.0153 -0.0843
 1394DOPE   C1B16354  21.396   9.458  14.860 -0.2090  0.2485  0.0426
 1394DOPE   D2B16355  21.457   9.304  14.402  0.2060 -0.0782  0.3617
 1394DOPE   C3B16356  21.538   9.514  13.975  0.0084  0.2047 -0.0479
 1394DOPE   C4B16357  21.512   9.931  13.824  0.0488 -0.2585  0.1243
 1395DOPE   NH316358  12.484   3.300  15.587  0.4596  0.0741  0.3511
 1395DOPE   PO416359  12.703   3.174  15.425  0.2004 -0.1692 -0.0159
 1395DOPE   GL116360  12.710   3.256  15.069 -0.2289 -0.2605 -0.4948
 1395DOPE   GL216361  12.801   3.066  14.854 -0.2118 -0.1559 -0.1535
 1395DOPE   C1A16362  12.737   3.638  14.893  0.1932  0.0488 -0.2389
 1395DOPE   D2A16363  12.784   4.008  14.588 -0.0507  0.3211  0.1947
 1395DOPE   C3A16364  12.591   4.291  14.291  0.0529  0.0465  0.2307
 1395DOPE   C4A16365  12.184   4.503  14.249  0.2239 -0.3340  0.2771
 1395DOPE   C1B16366  12.805   3.303  14.487  0.0874  0.1192 -0.1328
 1395DOPE   D2B16367  12.868   3.369  14.011 -0.2342  0.0331 -0.4422
 1395DOPE   C3B16368  13.057   3.799  14.014 -0.1911 -0.0496 -0.1668
 1395DOPE   C4B16369  13.021   4.274  13.963  0.0644 -0.0490  0.2397
 1396DOPE   NH316370  20.077   6.521  15.993 -0.1591 -0.1007  0.0760
 1396DOPE   PO416371  19.807   6.398  15.932 -0.1114 -0.2553  0.3138
 1396DOPE   GL116372  19.833   6.109  15.619 -0.1726  0.4285 -0.2945
 1396DOPE   GL216373  20.104   6.152  15.576  0.2243 -0.1017 -0.0085
 1396DOPE   C1A16374  19.722   6.041  15.156 -0.0162 -0.4028 -0.3267
 1396DOPE   D2A16375  19.448   6.061  14.790 -0.0811 -0.1418  0.0343
 1396DOPE   C3A16376  19.372   6.524  14.652  0.2588  0.1286 -0.0730
 1396DOPE   C4A16377  19.090   6.765  14.324 -0.1322  0.0350  0.0231
 1396DOPE   C1B16378  20.083   6.372  15.123  0.1339 -0.0131  0.1270
 1396DOPE   D2B16379  19.908   6.272  14.694  0.1966  0.1865  0.2169
 1396DOPE   C3B16380  20.214   6.236  14.382  0.0363  0.1972  0.1394
 1396DOPE   C4B16381  20.324   6.301  13.907  0.1788  0.2339 -0.3027
 1397DOPE   NH316382  13.009   1.070  15.305 -0.0807  0.4146  0.3337
 1397DOPE   PO416383  12.783   1.198  15.486 -0.0710  0.3698  0.0968
 1397DOPE   GL116384  12.557   1.033  15.138 -0.3991  0.0016 -0.1393
 1397DOPE   GL216385  12.789   0.883  14.889  0.0147 -0.1823  0.2343
 1397DOPE   C1A16386  12.434   0.598  15.117 -0.0940 -0.0469 -0.0062
 1397DOPE   D2A16387  12.405   0.172  15.109 -0.0245 -0.0931  0.0761
 1397DOPE   C3A16388  12.151  -0.014  14.730 -0.1182 -0.0776  0.0005
 1397DOPE   C4A16389  12.180  -0.293  14.374  0.3326 -0.2893 -0.2915
 1397DOPE   C1B16390  12.949   0.899  14.464  0.0462  0.0302  0.3328
 1397DOPE   D2B16391  13.116   0.842  14.036  0.1983  0.3124 -0.0544
 1397DOPE   C3B16392  13.227   0.947  13.589 -0.1099 -0.1281 -0.2082
 1397DOPE   C4B16393  13.383   1.136  13.168 -0.2390 -0.2010 -0.1101
 1398POSM   NC316394  22.709   2.587  16.293 -0.1033  0.0009 -0.1043
 1398POSM   PO416395  22.405   2.827  16.297 -0.1246 -0.1230 -0.0388
 1398POSM   AM116396  22.189   2.850  16.067 -0.3481 -0.0229 -0.2872
 1398POSM   AM216397  21.981   2.741  15.956  0.0342  0.2473  0.3614
 1398POSM   T1A16398  21.906   3.170  15.789 -0.0411  0.1813 -0.0667
 1398POSM   C2A16399  21.783   3.348  15.367 -0.1077 -0.2091  0.0998
 1398POSM   C3A16400  21.645   3.063  15.010  0.2235 -0.4165  0.0520
 1398POSM   C1B16401  21.797   2.654  15.677 -0.2412 -0.3864 -0.2278
 1398POSM   D2B16402  21.523   2.322  15.434  0.1762 -0.4711 -0.2761
 1398POSM   C3B16403  21.325   2.610  15.091  0.1377 -0.0609 -0.1167
 1398POSM   C4B16404  21.576   2.722  14.658  0.0049 -0.0883 -0.1296
 1399DOPE   NH316405  20.098   8.489  15.006 -0.2502 -0.0333  0.2933
 1399DOPE   PO416406  20.292   8.299  15.044  0.2820  0.2390 -0.1384
 1399DOPE   GL116407  20.365   8.073  14.657  0.1687  0.1695 -0.0690
 1399DOPE   GL216408  20.473   8.304  14.544  0.1053  0.0382 -0.0292
 1399DOPE   C1A16409  20.358   7.640  14.569 -0.0868  0.0552 -0.0572
 1399DOPE   D2A16410  20.324   7.182  14.539 -0.1159  0.2033 -0.0775
 1399DOPE   C3A16411  20.065   7.008  14.834  0.3687  0.0922  0.1288
 1399DOPE   C4A16412  19.769   6.675  15.055 -0.1984  0.1394 -0.0583
 1399DOPE   C1B16413  20.602   8.284  14.136  0.0391 -0.4971 -0.2530
 1399DOPE   D2B16414  20.623   8.314  13.626  0.1341  0.2812 -0.0279
 1399DOPE   C3B16415  20.401   8.415  13.235 -0.0752 -0.3515 -0.2234
 1399DOPE   C4B16416  20.335   8.871  13.027 -0.3708  0.0629  0.0681
 1400DOPE   NH316417  20.622  10.247  15.775  0.3195 -0.1069 -0.0748
 1400DOPE   PO416418  20.784  10.514  15.805 -0.0309  0.1861 -0.0066
 1400DOPE   GL116419  20.643  10.577  15.362  0.3596 -0.0192  0.2047
 1400DOPE   GL216420  20.706  10.803  15.293 -0.2120 -0.2505  0.1332
 1400DOPE   C1A16421  20.610  10.568  14.873 -0.1503  0.0780 -0.2842
 1400DOPE   D2A16422  20.709  10.771  14.491 -0.4715  0.0041 -0.2123
 1400DOPE   C3A16423  20.598  10.679  14.028 -0.2820  0.0975  0.0596
 1400DOPE   C4A16424  20.235  10.441  13.942 -0.0799 -0.0101  0.0014
 1400DOPE   C1B16425  20.954  10.916  14.949  0.0785  0.1023 -0.3278
 1400DOPE   D2B16426  21.219  10.799  14.560 -0.1446 -0.0721 -0.1626
 1400DOPE   C3B16427  21.316  11.179  14.290 -0.0371 -0.2949  0.1170
 1400DOPE   C4B16428  21.555  11.357  13.978 -0.0368  0.2582 -0.0960
 1401POSM   NC316429  19.761   3.622  16.061 -0.0771  0.1943 -0.2878
 1401POSM   PO416430  19.451   3.872  16.002 -0.3843  0.0962 -0.1399
 1401POSM   AM116431  19.619   3.917  15.743 -0.3696 -0.3771  0.5465
 1401POSM   AM216432  19.573   3.955  15.479 -0.2243  0.2631 -0.0977
 1401POSM   T1A16433  20.034   3.703  15.545 -0.1079 -0.0807 -0.1226
 1401POSM   C2A16434  20.274   3.848  15.204 -0.0782 -0.1434 -0.1123
 1401POSM   C3A16435  20.308   4.206  15.054  0.2426 -0.1308  0.0534
 1401POSM   C1B16436  19.828   4.155  15.303  0.0028 -0.1797 -0.2696
 1401POSM   D2B16437  19.900   4.508  14.982 -0.1209  0.0091 -0.0396
 1401POSM   C3B16438  20.143   4.349  14.577  0.0454  0.3260 -0.0668
 1401POSM   C4B16439  20.036   3.998  14.247  0.1142 -0.0262 -0.0646
 1402DOPC   NC316440  14.676   8.338  16.183  0.2259 -0.1527  0.0877
 1402DOPC   PO416441  14.462   8.013  16.044 -0.0710  0.0434 -0.0680
 1402DOPC   GL116442  14.553   7.906  15.636  0.1810  0.1354 -0.1612
 1402DOPC   GL216443  14.601   8.127  15.429 -0.1835 -0.0504 -0.1854
 1402DOPC   C1A16444  14.490   7.714  15.196 -0.0004  0.0987  0.0351
 1402DOPC   D2A16445  14.352   7.705  14.783 -0.1319 -0.0556  0.0683
 1402DOPC   C3A16446  14.097   7.812  14.419 -0.0367 -0.1222  0.1222
 1402DOPC   C4A16447  13.996   8.090  14.082 -0.0936 -0.1643 -0.3313
 1402DOPC   C1B16448  14.404   8.167  15.039 -0.3386 -0.5126  0.3708
 1402DOPC   D2B16449  14.608   8.225  14.631  0.0511  0.0918 -0.3339
 1402DOPC   C3B16450  14.427   8.115  14.229 -0.1919  0.0428  0.2021
 1402DOPC   C4B16451  14.377   7.733  13.972 -0.0604 -0.0580 -0.0024
 1403DOPE   NH316452  13.915   2.615  15.668 -0.1102  0.2305 -0.1204
 1403DOPE   PO416453  13.823   2.418  15.435  0.1640  0.1561 -0.0031
 1403DOPE   GL116454  13.703   2.708  15.229  0.1994  0.0094 -0.0634
 1403DOPE   GL216455  13.960   2.809  15.093  0.2656 -0.0335 -0.1293
 1403DOPE   C1A16456  13.531   2.574  14.812 -0.0627  0.2488 -0.2470
 1403DOPE   D2A16457  13.342   2.252  14.511  0.0101  0.1012 -0.2702
 1403DOPE   C3A16458  13.351   2.209  14.059 -0.3141 -0.1720 -0.0014
 1403DOPE   C4A16459  13.625   2.187  13.739  0.2763  0.0191  0.0443
 1403DOPE   C1B16460  14.167   2.902  14.664 -0.0394  0.3720  0.1390
 1403DOPE   D2B16461  14.226   3.066  14.223  0.2131  0.3660  0.2509
 1403DOPE   C3B16462  14.269   3.108  13.725  0.1832 -0.1032  0.1358
 1403DOPE   C4B16463  14.227   2.785  13.366  0.4890  0.1505 -0.0717
 1404DOPC   NC316464  22.381   5.223  15.113 -0.3108  0.3009  0.0746
 1404DOPC   PO416465  22.326   5.540  15.287 -0.0261 -0.0017 -0.3940
 1404DOPC   GL116466  22.156   5.712  14.890  0.2486  0.2899  0.2149
 1404DOPC   GL216467  22.116   5.446  14.699 -0.0858 -0.2156  0.1329
 1404DOPC   C1A16468  21.978   5.877  14.491 -0.0435 -0.4924 -0.1087
 1404DOPC   D2A16469  22.017   5.999  14.039  0.0026  0.0589  0.3751
 1404DOPC   C3A16470  22.022   5.583  13.788 -0.2758 -0.0122  0.0368
 1404DOPC   C4A16471  21.639   5.352  13.721 -0.1193  0.2151 -0.2880
 1404DOPC   C1B16472  22.271   5.530  14.260 -0.0676  0.1637  0.0246
 1404DOPC   D2B16473  22.460   5.339  13.866  0.0488  0.1954  0.0846
 1404DOPC   C3B16474  22.037   5.079  13.880  0.3216 -0.4309  0.3528
 1404DOPC   C4B16475  21.736   4.815  13.787 -0.3197  0.0331 -0.1094
 1405POSM   NC316476  12.581  34.406  16.258  0.5418 -0.2589 -0.1351
 1405POSM   PO416477  12.768  34.463  15.900 -0.2355  0.1619 -0.1167
 1405POSM   AM116478  12.798  34.559  15.583  0.0691 -0.0633  0.0047
 1405POSM   AM216479  12.715  34.421  15.338  0.0172 -0.1159 -0.0797
 1405POSM   T1A16480  13.103  34.791  15.290 -0.0821  0.1970  0.2426
 1405POSM   C2A16481  13.176  35.012  14.875 -0.0832 -0.0419  0.1589
 1405POSM   C3A16482  12.814  35.083  14.585  0.1227 -0.0888  0.0827
 1405POSM   C1B16483  12.773  34.517  15.043  0.0877 -0.1072  0.0852
 1405POSM   D2B16484  12.859  34.576  14.633 -0.0634  0.3639  0.1562
 1405POSM   C3B16485  12.567  34.705  14.278 -0.1336 -0.0696 -0.0034
 1405POSM   C4B16486  12.470  34.867  13.808  0.0368 -0.1856 -0.1668
 1406DOPE   NH316487  20.116   2.879  16.102  0.0012 -0.0746  0.0051
 1406DOPE   PO416488  20.171   2.757  15.780 -0.0684  0.1100 -0.3791
 1406DOPE   GL116489  20.478   2.563  15.470 -0.0037  0.6003 -0.2198
 1406DOPE   GL216490  20.369   2.838  15.313  0.0243  0.0063 -0.1701
 1406DOPE   C1A16491  20.761   2.610  15.116 -0.1764  0.0303 -0.1607
 1406DOPE   D2A16492  20.880   2.669  14.670 -0.0293  0.0476  0.1646
 1406DOPE   C3A16493  20.674   2.598  14.251 -0.3526 -0.0401  0.1356
 1406DOPE   C4A16494  20.682   2.536  13.783 -0.3470 -0.2824  0.0929
 1406DOPE   C1B16495  20.412   2.774  14.842  0.0662  0.1393  0.1548
 1406DOPE   D2B16496  20.481   3.171  14.603 -0.0070 -0.2338  0.1809
 1406DOPE   C3B16497  20.623   3.225  14.226 -0.0930  0.1301  0.3087
 1406DOPE   C4B16498  20.724   3.093  13.774  0.0635  0.0408 -0.1166
 1407DOPE   NH316499  22.356   3.920  15.830  0.0244 -0.3211 -0.0305
 1407DOPE   PO416500  22.246   4.203  15.923  0.3562 -0.3410  0.0030
 1407DOPE   GL116501  22.060   4.153  15.511 -0.1049 -0.1075  0.1018
 1407DOPE   GL216502  21.953   4.446  15.575 -0.1118 -0.1482 -0.0736
 1407DOPE   C1A16503  22.069   4.389  15.107 -0.1924  0.0800 -0.5245
 1407DOPE   D2A16504  22.420   4.392  14.826  0.1934  0.0216  0.3669
 1407DOPE   C3A16505  22.147   4.486  14.467  0.2591 -0.0866 -0.4197
 1407DOPE   C4A16506  22.250   4.592  14.066 -0.1079  0.0398  0.1296
 1407DOPE   C1B16507  21.594   4.268  15.259  0.0285  0.0837  0.0299
 1407DOPE   D2B16508  21.438   3.994  14.917  0.0503  0.0564  0.3625
 1407DOPE   C3B16509  21.480   3.563  14.635 -0.0123 -0.1920  0.2842
 1407DOPE   C4B16510  21.547   3.314  14.250 -0.1008 -0.4578  0.0722
 1408POSM   NC316511  15.353   0.471  15.918 -0.1235  0.2633 -0.0322
 1408POSM   PO416512  15.600   0.746  15.899 -0.2137  0.1726  0.0589
 1408POSM   AM116513  15.578   0.786  15.570 -0.0174  0.1952  0.4079
 1408POSM   AM216514  15.653   0.588  15.407  0.1977 -0.1830  0.3795
 1408POSM   T1A16515  15.657   1.004  15.158 -0.2628 -0.0907 -0.1550
 1408POSM   C2A16516  15.682   1.238  14.775 -0.0962 -0.0560 -0.2659
 1408POSM   C3A16517  15.715   1.355  14.322 -0.2537 -0.0247  0.2076
 1408POSM   C1B16518  15.594   0.529  15.097  0.2206 -0.0861  0.2113
 1408POSM   D2B16519  15.563   0.443  14.640 -0.0380 -0.0647 -0.2746
 1408POSM   C3B16520  15.207   0.199  14.394 -0.1334  0.0629  0.0175
 1408POSM   C4B16521  15.232  -0.051  14.030  0.2534  0.0356 -0.2250
 1409DOPS   CNO16522  18.991   1.821  16.065 -0.2336 -0.1374 -0.1602
 1409DOPS   PO416523  19.342   1.717  16.133 -0.3899  0.1415 -0.3953
 1409DOPS   GL116524  19.277   1.717  15.715 -0.0720  0.2634  0.1265
 1409DOPS   GL216525  19.456   2.007  15.667  0.1910 -0.2783  0.1172
 1409DOPS   C1A16526  19.235   1.730  15.258 -0.2179  0.1460 -0.0612
 1409DOPS   D2A16527  19.586   1.785  14.913 -0.0527 -0.2496 -0.2047
 1409DOPS   C3A16528  19.911   2.030  14.807  0.0664 -0.0695  0.0583
 1409DOPS   C4A16529  20.265   2.202  14.555 -0.3302  0.0431  0.1450
 1409DOPS   C1B16530  19.505   2.175  15.283  0.0636  0.1069  0.0500
 1409DOPS   D2B16531  19.513   2.364  14.872  0.2067  0.1125  0.0501
 1409DOPS   C3B16532  19.190   2.265  14.560 -0.0797 -0.1634  0.0603
 1409DOPS   C4B16533  19.238   2.146  14.111  0.3170 -0.0695 -0.0396
 1410DOPC   NC316534  15.195  11.079  14.894 -0.0787 -0.0726  0.0450
 1410DOPC   PO416535  15.058  10.977  15.237 -0.0210 -0.0260  0.2320
 1410DOPC   GL116536  14.863  10.656  15.104  0.2539  0.0999 -0.2500
 1410DOPC   GL216537  14.673  10.799  14.945 -0.1832 -0.1792 -0.3345
 1410DOPC   C1A16538  14.914  10.390  14.749 -0.1636 -0.0823  0.1374
 1410DOPC   D2A16539  14.834  10.291  14.308  0.0055  0.3038  0.0277
 1410DOPC   C3A16540  15.241  10.247  14.016 -0.0912 -0.2821 -0.1050
 1410DOPC   C4A16541  15.567   9.949  14.168 -0.0863 -0.1430  0.1505
 1410DOPC   C1B16542  14.622  10.756  14.471  0.2006  0.1005  0.3015
 1410DOPC   D2B16543  14.398  10.594  14.091  0.0467 -0.0242 -0.1275
 1410DOPC   C3B16544  14.594  10.851  13.720  0.1714 -0.0352 -0.2929
 1410DOPC   C4B16545  14.624  10.725  13.259  0.0606 -0.3145 -0.0053
 1411POSM   NC316546  17.688   5.627  15.649  0.0265  0.1363  0.0053
 1411POSM   PO416547  17.326   5.451  15.603 -0.0613 -0.3118 -0.2047
 1411POSM   AM116548  17.348   5.501  15.286 -0.1255  0.0989 -0.0746
 1411POSM   AM216549  17.158   5.584  15.085  0.0178 -0.1864  0.0467
 1411POSM   T1A16550  17.389   5.200  14.846 -0.0479 -0.0207 -0.0845
 1411POSM   C2A16551  17.064   5.127  14.507 -0.0083 -0.1684  0.2411
 1411POSM   C3A16552  16.615   5.009  14.388  0.1369 -0.1339 -0.1900
 1411POSM   C1B16553  16.995   5.495  14.825 -0.0205  0.0236 -0.0763
 1411POSM   D2B16554  16.795   5.500  14.444 -0.0475  0.3056  0.0832
 1411POSM   C3B16555  16.655   5.424  13.981 -0.0347 -0.0467 -0.0795
 1411POSM   C4B16556  16.719   5.250  13.552 -0.3067  0.0096 -0.2806
 1412DOPE   NH316557  18.040   2.250  16.136 -0.0253 -0.1517 -0.2893
 1412DOPE   PO416558  18.324   2.169  16.096 -0.0304 -0.2224  0.1615
 1412DOPE   GL116559  18.661   2.144  15.899  0.0980 -0.0834  0.1907
 1412DOPE   GL216560  18.574   1.848  15.773  0.3218 -0.2427  0.0142
 1412DOPE   C1A16561  18.907   2.015  15.482 -0.0891 -0.0967  0.1620
 1412DOPE   D2A16562  19.013   2.204  15.085 -0.0394 -0.1111 -0.1867
 1412DOPE   C3A16563  19.022   2.616  14.891 -0.1409  0.1826  0.3540
 1412DOPE   C4A16564  18.872   2.917  14.632 -0.1406 -0.0140 -0.0252
 1412DOPE   C1B16565  18.154   1.863  15.502  0.0499 -0.0498 -0.1497
 1412DOPE   D2B16566  18.123   1.828  15.046 -0.0539  0.1505  0.0295
 1412DOPE   C3B16567  17.762   1.617  14.844 -0.0500 -0.0881 -0.2850
 1412DOPE   C4B16568  17.416   1.823  14.556  0.2441 -0.0669 -0.1640
 1413DOPS   CNO16569  17.260   0.050  16.521 -0.0682  0.0606 -0.2896
 1413DOPS   PO416570  17.287  -0.085  16.152 -0.0041 -0.0584 -0.1013
 1413DOPS   GL116571  17.354  -0.204  15.836  0.2958 -0.2537 -0.1184
 1413DOPS   GL216572  17.604  -0.197  15.794  0.0529  0.0084 -0.3681
 1413DOPS   C1A16573  17.336  -0.238  15.395  0.2265  0.1012  0.0825
 1413DOPS   D2A16574  17.260  -0.175  14.934  0.3142  0.2423 -0.1554
 1413DOPS   C3A16575  17.420   0.185  14.731  0.0844  0.1331  0.1841
 1413DOPS   C4A16576  17.312   0.627  14.596  0.2333 -0.0679  0.1444
 1413DOPS   C1B16577  17.591   0.168  15.548  0.0060 -0.3319 -0.4921
 1413DOPS   D2B16578  17.376   0.599  15.554  0.0497  0.2039  0.1122
 1413DOPS   C3B16579  17.210   0.850  15.203  0.3403  0.2297 -0.4905
 1413DOPS   C4B16580  17.474   1.044  14.869  0.1024  0.0894  0.2654
 1414DOPS   CNO16581  16.946   9.710  15.628  0.0602 -0.1674 -0.0405
 1414DOPS   PO416582  17.213   9.989  15.661 -0.0142 -0.1226 -0.0685
 1414DOPS   GL116583  17.352   9.840  15.296 -0.1759 -0.0921  0.1584
 1414DOPS   GL216584  17.555   9.642  15.107 -0.1272 -0.0936 -0.0738
 1414DOPS   C1A16585  17.258   9.924  14.829 -0.0147 -0.0206  0.0563
 1414DOPS   D2A16586  17.316   9.756  14.425  0.1524  0.0667  0.0037
 1414DOPS   C3A16587  17.033   9.766  14.032  0.0680  0.0742  0.2594
 1414DOPS   C4A16588  17.217   9.729  13.559 -0.1169 -0.4506  0.1770
 1414DOPS   C1B16589  17.749   9.747  14.685  0.1943 -0.0433  0.2521
 1414DOPS   D2B16590  17.866   9.665  14.214  0.0324  0.1248 -0.1548
 1414DOPS   C3B16591  18.040   9.961  13.924 -0.1167 -0.2291  0.0718
 1414DOPS   C4B16592  18.503   9.996  13.781 -0.3232  0.0133 -0.1088
 1415DOPE   NH316593  22.765   0.922  15.879  0.0599  0.2089 -0.1679
 1415DOPE   PO416594  23.025   0.842  15.987  0.1399  0.0025 -0.1822
 1415DOPE   GL116595  23.095   0.616  15.671  0.0147 -0.2645  0.0862
 1415DOPE   GL216596  23.162   0.339  15.617  0.0433 -0.1095 -0.0168
 1415DOPE   C1A16597  23.044   0.743  15.204 -0.3658  0.1957 -0.1282
 1415DOPE   D2A16598  23.048   0.927  14.744  0.2510  0.3511  0.1366
 1415DOPE   C3A16599  22.831   1.297  14.628  0.0719  0.5040 -0.0313
 1415DOPE   C4A16600  22.481   1.410  14.369  0.2391 -0.0657  0.2366
 1415DOPE   C1B16601  22.832   0.205  15.294  0.2573 -0.0138 -0.1853
 1415DOPE   D2B16602  22.704   0.402  14.861  0.0608  0.0530 -0.1958
 1415DOPE   C3B16603  22.764   0.217  14.485  0.0832  0.1634 -0.1487
 1415DOPE   C4B16604  22.809  -0.037  14.138 -0.0496 -0.0015 -0.2840
 1416DOPC   NC316605  17.948   3.065  16.334  0.1942  0.3103 -0.0896
 1416DOPC   PO416606  17.989   2.735  16.154  0.1434  0.0558  0.2303
 1416DOPC   GL116607  17.955   2.663  15.777 -0.4248 -0.0241 -0.1316
 1416DOPC   GL216608  18.024   2.362  15.678  0.0719 -0.2710  0.2004
 1416DOPC   C1A16609  17.636   2.553  15.439 -0.1225  0.0583  0.2793
 1416DOPC   D2A16610  17.615   2.493  14.931 -0.1422  0.1645 -0.1452
 1416DOPC   C3A16611  17.794   2.117  14.723  0.1629  0.1713 -0.0579
 1416DOPC   C4A16612  17.939   1.793  14.396  0.0119 -0.1153 -0.0071
 1416DOPC   C1B16613  17.777   2.154  15.269  0.0544 -0.3609 -0.0367
 1416DOPC   D2B16614  17.392   1.994  15.008 -0.1832  0.2805  0.2329
 1416DOPC   C3B16615  17.079   2.314  14.941 -0.0373  0.0378 -0.2671
 1416DOPC   C4B16616  16.712   2.546  14.909 -0.1669  0.0809 -0.0793
 1417DOPS   CNO16617  22.728   6.392  15.726 -0.0661  0.0015  0.2605
 1417DOPS   PO416618  22.371   6.404  15.592 -0.2240  0.1817 -0.3862
 1417DOPS   GL116619  22.347   6.360  15.155 -0.1006  0.4569 -0.0575
 1417DOPS   GL216620  22.210   6.679  15.099 -0.1006  0.1850  0.0475
 1417DOPS   C1A16621  22.541   6.060  14.832 -0.0211  0.0840 -0.1415
 1417DOPS   D2A16622  22.532   5.885  14.393 -0.2936 -0.0566 -0.0155
 1417DOPS   C3A16623  22.501   5.817  13.930  0.2505 -0.1367 -0.1249
 1417DOPS   C4A16624  22.709   5.790  13.546  0.4759 -0.2319 -0.0515
 1417DOPS   C1B16625  22.271   6.925  14.719  0.3117  0.0123 -0.0479
 1417DOPS   D2B16626  22.241   6.897  14.207 -0.2360 -0.0871  0.0082
 1417DOPS   C3B16627  21.916   6.931  13.863  0.2328 -0.0104 -0.0292
 1417DOPS   C4B16628  21.585   6.951  13.548 -0.1053 -0.1142  0.2230
 1418DOPE   NH316629  14.817  10.450  15.967 -0.0766  0.1057 -0.0445
 1418DOPE   PO416630  14.529  10.424  15.837  0.2001 -0.1347 -0.1355
 1418DOPE   GL116631  14.548  10.426  15.450  0.1601  0.2282  0.0770
 1418DOPE   GL216632  14.344  10.486  15.229 -0.2196  0.2148  0.1964
 1418DOPE   C1A16633  14.764  10.096  15.146  0.1808  0.2367  0.2828
 1418DOPE   D2A16634  15.277  10.062  15.112 -0.0042  0.2322 -0.0110
 1418DOPE   C3A16635  15.503   9.871  14.765  0.1620 -0.1488 -0.0297
 1418DOPE   C4A16636  15.818   9.671  14.459  0.0378  0.0065 -0.1485
 1418DOPE   C1B16637  14.441  10.255  14.820  0.2446 -0.4152  0.1703
 1418DOPE   D2B16638  14.581   9.899  14.585  0.3155 -0.0448  0.3955
 1418DOPE   C3B16639  14.635   9.437  14.560  0.1792  0.0717 -0.0813
 1418DOPE   C4B16640  14.391   9.162  14.846 -0.2045 -0.0397  0.0266
 1419DOPE   NH316641  19.591   7.640  15.403  0.1697  0.0096  0.3524
 1419DOPE   PO416642  19.876   7.599  15.347  0.0838 -0.0104  0.0094
 1419DOPE   GL116643  19.733   7.428  14.993  0.1183  0.0628 -0.0249
 1419DOPE   GL216644  19.462   7.381  14.977  0.0988 -0.1443 -0.2403
 1419DOPE   C1A16645  19.872   7.424  14.542  0.0595  0.0932 -0.1470
 1419DOPE   D2A16646  20.061   7.281  14.125 -0.2965 -0.0354 -0.0970
 1419DOPE   C3A16647  19.933   6.892  13.861  0.0142  0.2260 -0.3678
 1419DOPE   C4A16648  19.571   6.702  13.634  0.0457  0.1248 -0.1164
 1419DOPE   C1B16649  19.522   7.003  14.764  0.0496  0.0367 -0.2210
 1419DOPE   D2B16650  19.830   6.772  14.520  0.0633  0.1457 -0.0090
 1419DOPE   C3B16651  19.777   6.505  14.143  0.1329 -0.2220  0.2030
 1419DOPE   C4B16652  19.589   6.117  13.861  0.1430  0.0950  0.1691
 1420DOPE   NH316653  18.520   4.812  15.812 -0.0292 -0.0014 -0.0680
 1420DOPE   PO416654  18.359   4.531  15.921 -0.0285  0.2340  0.0327
 1420DOPE   GL116655  18.336   4.457  15.519 -0.0880  0.0426  0.2501
 1420DOPE   GL216656  18.021   4.304  15.521  0.0847 -0.1330  0.0768
 1420DOPE   C1A16657  18.419   4.216  15.167  0.0191  0.0133 -0.2117
 1420DOPE   D2A16658  18.658   4.240  14.808  0.0058  0.3762  0.3042
 1420DOPE   C3A16659  18.899   3.849  14.720 -0.1122  0.2344  0.0704
 1420DOPE   C4A16660  19.243   3.694  14.436  0.0833 -0.1455 -0.0611
 1420DOPE   C1B16661  17.795   4.433  15.106 -0.0330 -0.3442  0.0844
 1420DOPE   D2B16662  17.583   4.365  14.679 -0.1738  0.1227  0.0236
 1420DOPE   C3B16663  17.780   4.431  14.245 -0.1317  0.0159 -0.3860
 1420DOPE   C4B16664  17.703   4.371  13.804  0.0568 -0.3346 -0.0012
 1421DOPC   NC316665  22.078  10.665  15.685  0.0457  0.1113 -0.0572
 1421DOPC   PO416666  22.178  10.271  15.696  0.1179  0.2124 -0.1681
 1421DOPC   GL116667  22.360  10.436  15.427  0.0955  0.0081  0.4530
 1421DOPC   GL216668  22.487  10.654  15.382 -0.2484  0.1216  0.2061
 1421DOPC   C1A16669  22.206  10.420  14.971  0.2481  0.0336  0.2603
 1421DOPC   D2A16670  22.371  10.374  14.525 -0.3182  0.2311 -0.1649
 1421DOPC   C3A16671  22.755  10.624  14.677  0.0086 -0.1148  0.1112
 1421DOPC   C4A16672  22.973  10.849  15.043  0.0146  0.0376 -0.2965
 1421DOPC   C1B16673  22.356  11.003  15.114 -0.0840  0.1680 -0.0739
 1421DOPC   D2B16674  22.232  11.053  14.677 -0.0279 -0.3466  0.3932
 1421DOPC   C3B16675  22.390  10.776  14.280  0.0039  0.1376  0.4684
 1421DOPC   C4B16676  22.424  10.689  13.843  0.0853  0.2566 -0.3835
 1422POSM   NC316677  14.284   6.527  15.477  0.0019  0.0762  0.1925
 1422POSM   PO416678  14.204   6.317  15.802  0.0642  0.2711  0.3484
 1422POSM   AM116679  14.213   6.080  15.584  0.0253  0.3580 -0.0494
 1422POSM   AM216680  14.030   5.841  15.574 -0.3140 -0.1136 -0.1368
 1422POSM   T1A16681  14.255   5.999  15.129  0.1990  0.1209 -0.1056
 1422POSM   C2A16682  14.259   6.074  14.664  0.1155  0.3968  0.0685
 1422POSM   C3A16683  14.293   5.845  14.222 -0.0396 -0.0326  0.1034
 1422POSM   C1B16684  13.746   5.692  15.428 -0.1571 -0.2886  0.0856
 1422POSM   D2B16685  13.493   5.644  14.978 -0.0417 -0.3177  0.0128
 1422POSM   C3B16686  13.428   5.273  14.774  0.1668  0.2390  0.0542
 1422POSM   C4B16687  13.214   4.960  14.555  0.2075 -0.1839 -0.0472
 1423POSM   NC316688  11.524   8.852  16.486  0.1891 -0.0790  0.2587
 1423POSM   PO416689  11.641   8.833  16.085 -0.1117  0.0373  0.2229
 1423POSM   AM116690  11.697   9.020  15.804  0.0199  0.0763 -0.3698
 1423POSM   AM216691  11.747   9.011  15.535  0.4347 -0.2950  0.1443
 1423POSM   T1A16692  11.556   9.457  15.679 -0.1110  0.1817  0.1176
 1423POSM   C2A16693  11.651   9.932  15.673 -0.1531 -0.1591 -0.0745
 1423POSM   C3A16694  11.706  10.418  15.788  0.1114  0.2270 -0.1011
 1423POSM   C1B16695  11.538   9.140  15.284 -0.2010  0.1976  0.0041
 1423POSM   D2B16696  11.299   9.268  14.835  0.3525 -0.0718  0.0131
 1423POSM   C3B16697  11.489   9.082  14.475 -0.0461 -0.2456  0.0033
 1423POSM   C4B16698  11.434   8.926  14.018  0.0147  0.0234 -0.1465
 1424DOPC   NC316699  16.470   4.204  15.620 -0.1358  0.0435  0.1044
 1424DOPC   PO416700  16.845   4.306  15.615  0.2462 -0.0705 -0.0447
 1424DOPC   GL116701  16.790   4.239  15.265  0.3172 -0.2713 -0.0253
 1424DOPC   GL216702  16.967   4.334  15.053 -0.4079  0.0891  0.4583
 1424DOPC   C1A16703  17.074   3.869  15.075  0.2295 -0.2526 -0.0849
 1424DOPC   D2A16704  17.072   3.611  14.660  0.1185  0.1436 -0.1570
 1424DOPC   C3A16705  16.821   3.653  14.291  0.1173 -0.0222  0.0020
 1424DOPC   C4A16706  16.600   3.326  14.056  0.1665  0.0471 -0.0686
 1424DOPC   C1B16707  17.121   4.164  14.650 -0.2465 -0.0528  0.0965
 1424DOPC   D2B16708  17.337   4.234  14.206 -0.2985 -0.1379 -0.0999
 1424DOPC   C3B16709  17.124   4.467  13.833 -0.3388  0.1571 -0.2885
 1424DOPC   C4B16710  17.223   4.726  13.416 -0.0597  0.0698 -0.0113
 1425DOPC   NC316711  18.902   4.351  16.026  0.1488 -0.0937  0.0339
 1425DOPC   PO416712  19.008   4.738  15.968  0.2014 -0.2275  0.0599
 1425DOPC   GL116713  18.996   4.902  15.597  0.1908  0.3927  0.5121
 1425DOPC   GL216714  18.857   5.132  15.533  0.1435  0.3336 -0.1405
 1425DOPC   C1A16715  19.057   4.950  15.126 -0.1588  0.0551  0.1607
 1425DOPC   D2A16716  19.133   5.139  14.741  0.0351  0.1044 -0.1274
 1425DOPC   C3A16717  19.590   5.225  14.680  0.0571  0.1197  0.3777
 1425DOPC   C4A16718  20.052   5.298  14.664 -0.1764 -0.1523 -0.1721
 1425DOPC   C1B16719  18.539   4.878  15.282 -0.2164 -0.1586 -0.2074
 1425DOPC   D2B16720  18.143   4.720  15.163  0.2646  0.0683  0.2463
 1425DOPC   C3B16721  18.193   4.527  14.772  0.0261 -0.0590 -0.0103
 1425DOPC   C4B16722  18.256   4.627  14.313 -0.0944  0.1053  0.1267
 1426DOPS   CNO16723  12.271   8.099  16.167 -0.3392  0.0163  0.2960
 1426DOPS   PO416724  12.533   7.951  15.917 -0.2235 -0.0246 -0.0986
 1426DOPS   GL116725  12.464   7.857  15.506  0.1845 -0.0227  0.0084
 1426DOPS   GL216726  12.543   7.556  15.397  0.0678  0.5658 -0.1801
 1426DOPS   C1A16727  12.703   7.924  15.130 -0.2617  0.0361  0.1425
 1426DOPS   D2A16728  12.612   8.155  14.731 -0.1124  0.0353  0.2505
 1426DOPS   C3A16729  12.835   8.282  14.318 -0.0009  0.2896  0.0947
 1426DOPS   C4A16730  13.240   8.428  14.316 -0.2684  0.0155 -0.2372
 1426DOPS   C1B16731  12.251   7.716  15.041 -0.0672  0.1720 -0.1639
 1426DOPS   D2B16732  12.366   7.742  14.587  0.0723 -0.0515 -0.0447
 1426DOPS   C3B16733  12.767   7.694  14.365  0.1800 -0.4404 -0.2019
 1426DOPS   C4B16734  12.964   7.390  14.072  0.0059 -0.3016 -0.1730
 1427DOPE   NH316735  19.773   1.909  16.014  0.2313 -0.0908 -0.0991
 1427DOPE   PO416736  19.902   1.634  16.107 -0.1244  0.1559  0.2001
 1427DOPE   GL116737  19.692   1.489  15.866  0.0365 -0.0470 -0.0052
 1427DOPE   GL216738  19.539   1.238  15.968  0.0308  0.0371  0.1225
 1427DOPE   C1A16739  19.673   1.458  15.401 -0.0746 -0.0384  0.2324
 1427DOPE   D2A16740  19.454   1.337  15.018 -0.1572  0.3116  0.0046
 1427DOPE   C3A16741  19.060   1.393  14.807 -0.1920  0.0273 -0.0544
 1427DOPE   C4A16742  18.765   1.493  14.446 -0.1339  0.0072  0.3111
 1427DOPE   C1B16743  19.253   1.311  15.609 -0.0052 -0.1511  0.0798
 1427DOPE   D2B16744  18.829   1.524  15.520  0.1518  0.0073 -0.0616
 1427DOPE   C3B16745  18.750   1.650  15.101 -0.0695  0.1722 -0.1563
 1427DOPE   C4B16746  18.944   1.878  14.730  0.0323  0.0557  0.0496
 1428DOPS   CNO16747  21.035   5.871  15.771  0.0794 -0.1797 -0.2757
 1428DOPS   PO416748  21.041   5.591  16.032 -0.2636 -0.1484  0.0692
 1428DOPS   GL116749  20.951   5.451  15.545 -0.0689  0.4175  0.3135
 1428DOPS   GL216750  20.713   5.387  15.522  0.0616  0.2003 -0.4109
 1428DOPS   C1A16751  20.887   5.638  15.138  0.2018 -0.2563  0.3295
 1428DOPS   D2A16752  20.733   5.781  14.723  0.1918  0.1271 -0.0427
 1428DOPS   C3A16753  21.109   6.036  14.667  0.0808 -0.1910 -0.0438
 1428DOPS   C4A16754  21.560   6.227  14.680 -0.0861  0.3798  0.0547
 1428DOPS   C1B16755  20.745   5.076  15.173  0.2031  0.0172 -0.1545
 1428DOPS   D2B16756  20.795   4.785  14.798  0.1208  0.0312  0.0599
 1428DOPS   C3B16757  20.687   4.361  14.738  0.0201 -0.3803 -0.0932
 1428DOPS   C4B16758  20.504   4.118  14.393 -0.0634  0.2265 -0.0468
 1429DOPE   NH316759  22.906   2.776  12.444 -0.0178  0.4007 -0.0093
 1429DOPE   PO416760  22.718   2.652  12.228  0.0203  0.0364 -0.0910
 1429DOPE   GL116761  22.992   2.314  12.509  0.0782  0.1564 -0.3375
 1429DOPE   GL216762  23.181   2.148  12.305 -0.1897  0.1550 -0.2249
 1429DOPE   C1A16763  22.882   2.051  12.856  0.1578  0.1205 -0.0849
 1429DOPE   D2A16764  22.734   1.628  12.862 -0.0653  0.0149 -0.1517
 1429DOPE   C3A16765  22.873   1.465  13.262 -0.2575 -0.2487 -0.2281
 1429DOPE   C4A16766  22.944   1.194  13.657  0.3903 -0.0936 -0.0817
 1429DOPE   C1B16767  23.496   1.910  12.091  0.0252  0.1984  0.2666
 1429DOPE   D2B16768  23.610   1.490  12.132 -0.1053 -0.0472  0.2819
 1429DOPE   C3B16769  23.957   1.197  12.135 -0.0455 -0.4208 -0.0450
 1429DOPE   C4B16770  24.443   1.283  12.025  0.3019  0.2576 -0.0299
 1430DOPS   CNO16771  12.859   3.878  12.064  0.0081 -0.3127 -0.2106
 1430DOPS   PO416772  13.106   3.838  12.349 -0.2376  0.0987 -0.0889
 1430DOPS   GL116773  13.368   3.481  12.478 -0.3333 -0.0238 -0.2340
 1430DOPS   GL216774  13.528   3.680  12.673  0.1519  0.1871 -0.2069
 1430DOPS   C1A16775  13.553   3.083  12.610 -0.3281  0.0417  0.0699
 1430DOPS   D2A16776  13.439   2.639  12.438  0.0436 -0.2610  0.2989
 1430DOPS   C3A16777  13.655   2.609  11.955 -0.0796 -0.2276 -0.0035
 1430DOPS   C4A16778  13.777   2.562  11.507  0.3389 -0.0596 -0.2616
 1430DOPS   C1B16779  13.221   3.359  12.884 -0.1206 -0.1160  0.5154
 1430DOPS   D2B16780  13.006   3.293  13.287 -0.1226 -0.1569  0.0874
 1430DOPS   C3B16781  13.169   2.988  13.634  0.4549  0.1479  0.0043
 1430DOPS   C4B16782  13.483   2.685  13.798  0.1700 -0.0500 -0.1715
 1431DOPE   NH316783  22.130   1.381  11.960  0.0811 -0.0657  0.0675
 1431DOPE   PO416784  22.336   1.618  12.075  0.0139  0.2836  0.1046
 1431DOPE   GL116785  22.163   2.001  12.112  0.2007 -0.1967 -0.0363
 1431DOPE   GL216786  22.165   1.927  12.424 -0.0826 -0.1364 -0.0107
 1431DOPE   C1A16787  21.988   2.407  12.221  0.1877 -0.1479  0.0524
 1431DOPE   D2A16788  21.640   2.672  12.113  0.0106 -0.0461  0.2005
 1431DOPE   C3A16789  21.257   2.599  12.250 -0.2465  0.0335  0.3060
 1431DOPE   C4A16790  20.990   2.666  12.578 -0.1450  0.0646 -0.2543
 1431DOPE   C1B16791  21.754   2.079  12.570 -0.0143  0.1343  0.0963
 1431DOPE   D2B16792  21.446   2.164  12.897 -0.0119  0.1322  0.2435
 1431DOPE   C3B16793  21.705   2.327  13.206 -0.0108 -0.1959  0.1713
 1431DOPE   C4B16794  21.702   2.686  13.414  0.2645  0.2956 -0.3086
 1432DOPE   NH316795  22.020   0.993  12.677 -0.3661 -0.0572  0.2857
 1432DOPE   PO416796  22.006   1.024  12.350  0.1397 -0.3144  0.0741
 1432DOPE   GL116797  22.050   1.419  12.435  0.0961  0.1146 -0.1537
 1432DOPE   GL216798  22.275   1.495  12.625 -0.2566  0.0155  0.0846
 1432DOPE   C1A16799  21.612   1.612  12.434  0.1591  0.2689 -0.0437
 1432DOPE   D2A16800  21.150   1.534  12.575  0.1081 -0.2032  0.1012
 1432DOPE   C3A16801  21.017   1.871  12.842 -0.0078 -0.1047 -0.0918
 1432DOPE   C4A16802  21.095   1.855  13.312 -0.2693 -0.1191 -0.2271
 1432DOPE   C1B16803  22.281   1.616  13.072  0.2117  0.2482 -0.2362
 1432DOPE   D2B16804  22.532   1.793  13.515  0.2937  0.3045  0.1605
 1432DOPE   C3B16805  22.452   2.192  13.724  0.1078  0.0395 -0.0564
 1432DOPE   C4B16806  22.163   2.512  13.893  0.0609 -0.3899  0.4548
 1433DOPC   NC316807  22.767   1.747  12.329 -0.0495 -0.3351 -0.1275
 1433DOPC   PO416808  22.670   2.089  12.099  0.2474  0.0488 -0.5427
 1433DOPC   GL116809  22.582   2.218  12.499  0.0054  0.3092 -0.1097
 1433DOPC   GL216810  22.344   2.459  12.590 -0.4535 -0.0644 -0.0258
 1433DOPC   C1A16811  22.353   2.051  12.871 -0.1193  0.4135 -0.0237
 1433DOPC   D2A16812  21.903   1.880  13.012 -0.4302  0.0227  0.2302
 1433DOPC   C3A16813  21.797   1.385  12.964 -0.1175 -0.0078  0.0522
 1433DOPC   C4A16814  21.576   1.006  13.188 -0.2526  0.0958 -0.3893
 1433DOPC   C1B16815  22.122   2.516  13.012 -0.1698 -0.0746  0.1037
 1433DOPC   D2B16816  22.142   2.179  13.355 -0.2510 -0.0041  0.3356
 1433DOPC   C3B16817  21.848   2.220  13.732  0.3517  0.1606 -0.2981
 1433DOPC   C4B16818  21.807   2.149  14.191  0.0922  0.2267 -0.3710
 1434DOPC   NC316819  13.167   6.994  11.865  0.0848  0.2016 -0.2129
 1434DOPC   PO416820  13.127   6.613  11.761 -0.0735 -0.1824  0.1897
 1434DOPC   GL116821  13.435   6.670  12.089  0.2229  0.3575  0.0584
 1434DOPC   GL216822  13.267   6.642  12.301  0.1850  0.2272  0.0620
 1434DOPC   C1A16823  13.734   7.022  12.115 -0.1669 -0.0797  0.0901
 1434DOPC   D2A16824  13.995   7.299  12.401  0.1303 -0.1180  0.2763
 1434DOPC   C3A16825  14.108   7.367  12.861 -0.2282 -0.1102  0.2374
 1434DOPC   C4A16826  13.932   7.398  13.282 -0.1381 -0.0601 -0.2043
 1434DOPC   C1B16827  13.350   6.989  12.498  0.3836 -0.0935  0.1937
 1434DOPC   D2B16828  13.633   7.167  12.779 -0.1453  0.0020 -0.0529
 1434DOPC   C3B16829  13.662   6.911  13.186  0.0747 -0.0618  0.2449
 1434DOPC   C4B16830  13.759   6.967  13.624 -0.2125 -0.0886  0.0033
 1435DOPE   NH316831  10.847   7.501  12.590  0.0240 -0.1194 -0.0870
 1435DOPE   PO416832  10.991   7.706  12.393  0.1804 -0.1595  0.2399
 1435DOPE   GL116833  11.265   7.667  12.715  0.0834  0.1029 -0.2060
 1435DOPE   GL216834  11.532   7.646  12.672  0.1842  0.0661  0.2272
 1435DOPE   C1A16835  11.159   7.794  13.144  0.2255 -0.1659 -0.3097
 1435DOPE   D2A16836  11.163   8.098  13.435 -0.0727 -0.0946  0.1495
 1435DOPE   C3A16837  11.420   8.400  13.210  0.0734 -0.2178  0.1314
 1435DOPE   C4A16838  11.823   8.486  13.316  0.1002  0.2203 -0.0831
 1435DOPE   C1B16839  11.562   8.017  12.986  0.1024 -0.0609 -0.1709
 1435DOPE   D2B16840  11.765   7.963  13.397  0.1218  0.0541 -0.0417
 1435DOPE   C3B16841  11.538   8.295  13.683 -0.2761  0.0168  0.1878
 1435DOPE   C4B16842  11.525   8.467  14.150  0.2684  0.3195  0.1620
 1436DOPE   NH316843  23.203   9.923  11.928 -0.0752  0.0620  0.0063
 1436DOPE   PO416844  23.188   9.592  11.868 -0.2235 -0.0312 -0.1601
 1436DOPE   GL116845  23.009   9.512  12.224 -0.1534  0.3367 -0.2281
 1436DOPE   GL216846  22.859   9.775  12.357 -0.0243 -0.0294 -0.0444
 1436DOPE   C1A16847  23.081   9.093  12.525 -0.2225 -0.0911 -0.0126
 1436DOPE   D2A16848  23.142   8.995  12.956 -0.0350 -0.2440  0.1027
 1436DOPE   C3A16849  23.205   9.304  13.292 -0.1051 -0.1760 -0.2813
 1436DOPE   C4A16850  23.138   9.467  13.762  0.1209 -0.1205  0.0409
 1436DOPE   C1B16851  22.806   9.533  12.789  0.2095 -0.2129  0.0497
 1436DOPE   D2B16852  22.681   9.286  13.137  0.3327  0.0711  0.1537
 1436DOPE   C3B16853  22.307   9.404  13.429 -0.1227 -0.0693 -0.0231
 1436DOPE   C4B16854  22.182   9.828  13.534  0.1221 -0.0242  0.1488
 1437DOPE   NH316855  18.606   5.576  12.109 -0.4528 -0.3832  0.1342
 1437DOPE   PO416856  18.564   5.273  11.991 -0.5152 -0.3167  0.1821
 1437DOPE   GL116857  18.312   5.130  12.261  0.1690 -0.1372 -0.1352
 1437DOPE   GL216858  18.196   4.926  12.151  0.0236 -0.0727 -0.2081
 1437DOPE   C1A16859  17.940   5.150  12.517 -0.1294 -0.4603 -0.2722
 1437DOPE   D2A16860  17.877   4.928  12.919  0.3180 -0.0384 -0.2443
 1437DOPE   C3A16861  17.442   5.006  12.839  0.0771  0.1384 -0.0225
 1437DOPE   C4A16862  17.037   5.129  13.125  0.1901  0.1894  0.4469
 1437DOPE   C1B16863  18.230   4.781  12.583 -0.0904 -0.1292  0.0816
 1437DOPE   D2B16864  18.344   4.624  12.968 -0.3244  0.1922  0.6526
 1437DOPE   C3B16865  18.169   4.859  13.358 -0.1621 -0.3686 -0.2707
 1437DOPE   C4B16866  18.104   5.181  13.682  0.0502 -0.0240 -0.0000
 1438POSM   NC316867  11.757   8.077  12.518 -0.1622  0.1182  0.1559
 1438POSM   PO416868  11.871   7.805  12.276  0.1209 -0.0320 -0.0262
 1438POSM   AM116869  12.156   7.986  12.259  0.2076 -0.0378 -0.3833
 1438POSM   AM216870  12.315   7.923  12.501  0.0431  0.3011  0.0218
 1438POSM   T1A16871  12.540   8.283  12.208 -0.0072  0.1597 -0.0005
 1438POSM   C2A16872  12.941   8.382  12.496  0.2908  0.1189 -0.0915
 1438POSM   C3A16873  13.139   8.255  12.904 -0.2212  0.0640 -0.2055
 1438POSM   C1B16874  12.469   8.053  12.731 -0.2351  0.1210  0.1297
 1438POSM   D2B16875  12.635   8.208  13.147 -0.1205  0.1989  0.0167
 1438POSM   C3B16876  12.746   7.973  13.568  0.2607 -0.0549 -0.2063
 1438POSM   C4B16877  13.172   7.750  13.746  0.0950 -0.1597  0.0984
 1439DOPE   NH316878  16.190   7.111  12.116  0.0756 -0.0870  0.0672
 1439DOPE   PO416879  15.984   7.098  12.340 -0.2411  0.4103 -0.2417
 1439DOPE   GL116880  15.851   7.031  12.694 -0.2096  0.1342  0.2796
 1439DOPE   GL216881  15.950   6.760  12.850 -0.1382 -0.0449  0.0664
 1439DOPE   C1A16882  15.472   7.243  12.891  0.1765  0.0196  0.1427
 1439DOPE   D2A16883  15.095   7.388  13.213  0.2240 -0.2158  0.0325
 1439DOPE   C3A16884  15.077   7.631  13.621  0.3380 -0.0228  0.1157
 1439DOPE   C4A16885  14.855   7.973  13.875 -0.2884 -0.0270  0.0192
 1439DOPE   C1B16886  15.704   6.907  13.227  0.2496 -0.0613 -0.1792
 1439DOPE   D2B16887  15.257   6.893  13.348 -0.0254 -0.1702 -0.0151
 1439DOPE   C3B16888  15.295   7.099  13.747  0.2177 -0.4436  0.0454
 1439DOPE   C4B16889  15.294   7.349  14.164 -0.0188  0.1475  0.0205
 1440POSM   NC316890  18.164   7.324  12.185 -0.1176  0.0026 -0.1928
 1440POSM   PO416891  18.267   7.041  12.420 -0.4459 -0.1991 -0.3557
 1440POSM   AM116892  18.367   7.042  12.744 -0.1213  0.0348  0.0639
 1440POSM   AM216893  18.633   7.154  12.821  0.2585  0.1617 -0.0290
 1440POSM   T1A16894  18.298   7.313  13.178 -0.3479  0.0669 -0.0189
 1440POSM   C2A16895  18.252   7.782  13.316 -0.0857  0.0698  0.3010
 1440POSM   C3A16896  18.067   8.151  13.631 -0.1591 -0.2546  0.1518
 1440POSM   C1B16897  18.718   7.103  13.112 -0.0080 -0.1908  0.0202
 1440POSM   D2B16898  18.877   6.854  13.487  0.2607  0.0211  0.2720
 1440POSM   C3B16899  19.139   6.955  13.878  0.4179  0.0801  0.0673
 1440POSM   C4B16900  19.519   7.009  14.139 -0.1325 -0.2670 -0.4044
 1441POSM   NC316901  12.117  34.387  12.389  0.0807  0.0636 -0.2984
 1441POSM   PO416902  12.489  34.423  12.291  0.1240 -0.0407 -0.1000
 1441POSM   AM116903  12.427  34.733  12.423  0.1873  0.0045 -0.2320
 1441POSM   AM216904  12.523  34.783  12.673  0.4035 -0.0576 -0.1356
 1441POSM   T1A16905  12.173  35.208  12.430 -0.2208  0.0965  0.0794
 1441POSM   C2A16906  12.005  35.637  12.329 -0.0398  0.0084 -0.2418
 1441POSM   C3A16907  12.081  36.079  12.188  0.1624 -0.3859 -0.2409
 1441POSM   C1B16908  12.239  34.911  12.792 -0.1520  0.0519 -0.1008
 1441POSM   D2B16909  12.018  35.143  13.109  0.2286 -0.0811 -0.2214
 1441POSM   C3B16910  12.231  35.496  13.290 -0.0332  0.2550  0.2403
 1441POSM   C4B16911  12.375  35.885  13.289 -0.0382  0.0843  0.3200
 1442DOPC   NC316912  21.482   8.997  12.195 -0.0988 -0.1309  0.0326
 1442DOPC   PO416913  21.589   9.133  11.850  0.0714  0.1623 -0.0667
 1442DOPC   GL116914  21.606   9.507  11.885 -0.0809  0.2135  0.1916
 1442DOPC   GL216915  21.383   9.499  12.125  0.1722 -0.0628 -0.2519
 1442DOPC   C1A16916  21.679   9.866  12.213 -0.1819  0.1060 -0.1291
 1442DOPC   D2A16917  22.084   9.839  12.454 -0.3158 -0.0244  0.1820
 1442DOPC   C3A16918  22.445   9.983  12.770 -0.2829  0.2304  0.2385
 1442DOPC   C4A16919  22.597   9.769  13.169 -0.0131 -0.2347  0.0266
 1442DOPC   C1B16920  21.061   9.234  12.371  0.1405 -0.0008  0.0464
 1442DOPC   D2B16921  20.728   9.000  12.611 -0.2044  0.2395  0.0501
 1442DOPC   C3B16922  20.910   8.848  13.052  0.1144  0.2692 -0.0187
 1442DOPC   C4B16923  20.968   8.425  13.255  0.3510  0.0342 -0.0819
 1443DOPC   NC316924  19.088   7.365  12.644 -0.1078  0.2437  0.0721
 1443DOPC   PO416925  19.074   7.358  12.281 -0.0927  0.0538  0.2916
 1443DOPC   GL116926  19.084   7.692  12.310 -0.0067  0.0714  0.3643
 1443DOPC   GL216927  19.128   7.769  12.009  0.3553  0.2084 -0.1806
 1443DOPC   C1A16928  19.095   8.028  12.641  0.0229  0.2633  0.0069
 1443DOPC   D2A16929  18.907   8.346  12.919 -0.2257 -0.6178  0.0334
 1443DOPC   C3A16930  18.914   8.119  13.355 -0.2565  0.2513  0.2793
 1443DOPC   C4A16931  18.730   7.759  13.587 -0.2652 -0.4413  0.1613
 1443DOPC   C1B16932  19.277   8.193  12.231 -0.1961 -0.0670 -0.2827
 1443DOPC   D2B16933  19.181   8.595  12.419 -0.0425  0.0249 -0.1467
 1443DOPC   C3B16934  19.544   8.896  12.554 -0.1614 -0.0754 -0.0051
 1443DOPC   C4B16935  19.474   9.293  12.820  0.3194  0.3953  0.1369
 1444DOPC   NC316936  14.523   4.934  11.810  0.0135 -0.1465  0.0206
 1444DOPC   PO416937  14.405   4.524  11.752  0.1773 -0.1043  0.1618
 1444DOPC   GL116938  14.547   4.573  12.155  0.1347 -0.0170  0.2252
 1444DOPC   GL216939  14.864   4.533  12.075  0.1512  0.1881 -0.2339
 1444DOPC   C1A16940  14.689   4.764  12.527 -0.1076 -0.0391  0.3551
 1444DOPC   D2A16941  14.883   4.712  12.920 -0.0503  0.2255  0.1033
 1444DOPC   C3A16942  15.175   4.991  13.048  0.0737  0.5675 -0.3541
 1444DOPC   C4A16943  15.413   5.412  13.152 -0.5874  0.3868  0.3085
 1444DOPC   C1B16944  15.291   4.351  12.153 -0.1654 -0.2655  0.2325
 1444DOPC   D2B16945  15.700   4.546  12.173  0.1405 -0.0503 -0.0096
 1444DOPC   C3B16946  15.852   4.483  12.634 -0.2645  0.1061  0.0945
 1444DOPC   C4B16947  15.989   4.265  12.991 -0.3389 -0.0461 -0.2137
 1445DOPE   NH316948  18.633   0.083  12.657  0.3163  0.4527 -0.4155
 1445DOPE   PO416949  18.529   0.224  12.378 -0.0480  0.1619 -0.0232
 1445DOPE   GL116950  18.492   0.489  12.631 -0.3466  0.0719  0.1094
 1445DOPE   GL216951  18.477   0.770  12.451  0.1552  0.2545 -0.2929
 1445DOPE   C1A16952  18.465   0.449  13.045  0.1572  0.3082  0.3135
 1445DOPE   D2A16953  18.183   0.432  13.410  0.0683 -0.0240 -0.2086
 1445DOPE   C3A16954  18.248   0.135  13.815 -0.0745  0.0380 -0.1727
 1445DOPE   C4A16955  18.139   0.134  14.296 -0.3190 -0.3882 -0.2561
 1445DOPE   C1B16956  18.459   0.923  12.824  0.4622 -0.0847 -0.1383
 1445DOPE   D2B16957  18.241   0.998  13.257  0.0849 -0.2790  0.1691
 1445DOPE   C3B16958  18.378   0.945  13.690  0.0554  0.3091  0.1011
 1445DOPE   C4B16959  18.384   0.648  14.080 -0.1378 -0.1728 -0.1592
 1446POSM   NC316960  18.561  34.398  12.277 -0.0612 -0.1668  0.0359
 1446POSM   PO416961  18.275  34.483  12.543 -0.0379  0.1007  0.1557
 1446POSM   AM116962  18.286  34.477  12.860 -0.0557  0.2709  0.1214
 1446POSM   AM216963  18.418  34.599  13.121 -0.0138 -0.2601  0.1129
 1446POSM   T1A16964  18.120  34.233  13.276  0.3061 -0.0070 -0.1442
 1446POSM   C2A16965  17.880  34.076  13.660  0.0159 -0.0603 -0.1234
 1446POSM   C3A16966  17.885  33.777  14.073 -0.0175 -0.1603  0.4810
 1446POSM   C1B16967  18.548  34.659  13.394  0.0519 -0.0843  0.1257
 1446POSM   D2B16968  18.766  34.657  13.805  0.3712  0.3066  0.0975
 1446POSM   C3B16969  19.237  34.754  13.818  0.1223 -0.0646  0.1034
 1446POSM   C4B16970  19.596  35.060  13.938 -0.0148 -0.1787  0.3935
 1447DOPE   NH316971  12.014  10.056  12.595 -0.0166  0.1359  0.0271
 1447DOPE   PO416972  12.131   9.796  12.438  0.1177 -0.1562  0.1663
 1447DOPE   GL116973  12.352   9.502  12.415 -0.0471 -0.2868 -0.1029
 1447DOPE   GL216974  12.240   9.334  12.232  0.0949  0.2294 -0.1368
 1447DOPE   C1A16975  12.317   9.184  12.736 -0.3570  0.1210  0.0566
 1447DOPE   D2A16976  12.502   9.031  13.131  0.2165 -0.3723  0.2688
 1447DOPE   C3A16977  12.712   9.379  13.431 -0.0552 -0.1057  0.0837
 1447DOPE   C4A16978  12.927   9.770  13.488  0.1647  0.1400 -0.1785
 1447DOPE   C1B16979  12.296   8.875  12.328  0.1490  0.1141  0.0610
 1447DOPE   D2B16980  12.568   8.690  12.660 -0.1069  0.1020  0.0517
 1447DOPE   C3B16981  12.332   8.568  13.022 -0.2047  0.1427 -0.0884
 1447DOPE   C4B16982  12.035   8.186  12.991  0.0995  0.0267  0.2027
 1448DOPC   NC316983  20.537   0.401  12.780 -0.0029  0.3572 -0.0989
 1448DOPC   PO416984  20.846   0.283  12.524 -0.1994 -0.2020 -0.1625
 1448DOPC   GL116985  20.923   0.150  12.898  0.0699  0.0084 -0.0824
 1448DOPC   GL216986  21.184   0.255  12.929  0.0087  0.0491 -0.1419
 1448DOPC   C1A16987  20.786   0.201  13.338 -0.3296  0.4841 -0.1107
 1448DOPC   D2A16988  20.807  -0.066  13.740  0.1629 -0.3057  0.0972
 1448DOPC   C3A16989  21.246  -0.251  13.834  0.3332  0.0851  0.0021
 1448DOPC   C4A16990  21.654  -0.323  13.944  0.2582 -0.0149 -0.2130
 1448DOPC   C1B16991  21.351   0.496  13.290 -0.3703  0.1948 -0.0701
 1448DOPC   D2B16992  21.526   0.763  13.632 -0.3126 -0.0481  0.0352
 1448DOPC   C3B16993  21.586   1.077  14.012 -0.0430  0.0817  0.3184
 1448DOPC   C4B16994  21.851   1.205  14.362 -0.0975 -0.2097  0.1121
 1449POSM   NC316995  19.143  34.233  12.332 -0.0850  0.1511  0.1203
 1449POSM   PO416996  19.064  34.620  12.413  0.0091 -0.1908 -0.1992
 1449POSM   AM116997  19.107  34.877  12.606 -0.0626 -0.0479 -0.1586
 1449POSM   AM216998  18.991  35.159  12.636 -0.2920 -0.2221 -0.2862
 1449POSM   T1A16999  19.423  35.017  12.942 -0.0698  0.1170 -0.0267
 1449POSM   C2A17000  19.609  35.180  13.319 -0.0420 -0.1221 -0.0608
 1449POSM   C3A17001  19.609  35.620  13.404 -0.1854 -0.1234  0.2113
 1449POSM   C1B17002  18.880  35.348  12.913  0.0365 -0.0876 -0.1183
 1449POSM   D2B17003  18.746  35.465  13.340 -0.4027  0.1205 -0.1224
 1449POSM   C3B17004  19.152  35.441  13.549  0.2202 -0.0954  0.0760
 1449POSM   C4B17005  19.406  35.545  13.914  0.1458  0.0769 -0.0790
 1450DOPE   NH317006  21.155   4.923  12.590 -0.0093 -0.3233 -0.0698
 1450DOPE   PO417007  21.001   5.219  12.492 -0.0483  0.1071 -0.1000
 1450DOPE   GL117008  20.719   5.387  12.748 -0.3151  0.0359 -0.1328
 1450DOPE   GL217009  20.597   5.153  12.807 -0.1721  0.1128 -0.1993
 1450DOPE   C1A17010  20.279   5.529  12.698  0.1194  0.1674  0.2350
 1450DOPE   D2A17011  19.990   5.647  12.977  0.3350 -0.2929 -0.0115
 1450DOPE   C3A17012  20.121   5.643  13.377  0.3401 -0.1218 -0.0691
 1450DOPE   C4A17013  20.310   6.042  13.456  0.1404  0.3286 -0.0985
 1450DOPE   C1B17014  20.219   5.240  13.079 -0.2976  0.2047 -0.1275
 1450DOPE   D2B17015  19.993   5.139  13.490 -0.0147 -0.2837 -0.3480
 1450DOPE   C3B17016  19.682   5.393  13.647  0.1624 -0.0483 -0.3017
 1450DOPE   C4B17017  19.468   5.673  13.964  0.5160  0.0124 -0.0750
 1451DOPE   NH317018  11.097   3.406  12.657 -0.1112 -0.1451  0.1526
 1451DOPE   PO417019  11.436   3.310  12.671 -0.1239 -0.1677 -0.1931
 1451DOPE   GL117020  11.559   3.655  12.915 -0.1419 -0.4623 -0.0662
 1451DOPE   GL217021  11.832   3.821  12.942  0.0257 -0.0933  0.2353
 1451DOPE   C1A17022  11.420   4.127  12.975  0.1529  0.0473  0.2949
 1451DOPE   D2A17023  11.615   4.512  12.817  0.1847  0.0202 -0.3252
 1451DOPE   C3A17024  11.392   4.911  12.659  0.0633 -0.1219 -0.1522
 1451DOPE   C4A17025  11.103   5.069  12.379 -0.0758 -0.0237  0.2039
 1451DOPE   C1B17026  11.620   4.108  12.549  0.1620  0.1237  0.3689
 1451DOPE   D2B17027  11.615   4.108  12.083 -0.3293 -0.0250 -0.1678
 1451DOPE   C3B17028  11.967   4.227  11.786 -0.1986  0.4496  0.1400
 1451DOPE   C4B17029  12.313   4.542  11.735 -0.1244 -0.0704  0.3144
 1452DOPC   NC317030  16.847   6.179  12.604  0.0109  0.1432 -0.3040
 1452DOPC   PO417031  16.678   6.504  12.461  0.0728  0.1245 -0.0423
 1452DOPC   GL117032  16.390   6.578  12.829 -0.2677 -0.0981  0.2815
 1452DOPC   GL217033  16.550   6.450  13.084 -0.1808 -0.0522  0.2178
 1452DOPC   C1A17034  16.102   6.287  13.046  0.0970  0.0970  0.2990
 1452DOPC   D2A17035  15.839   6.383  13.445  0.1099 -0.0337 -0.2961
 1452DOPC   C3A17036  15.398   6.324  13.446 -0.0791 -0.3516  0.0990
 1452DOPC   C4A17037  15.083   6.178  13.745 -0.1515 -0.0852 -0.2188
 1452DOPC   C1B17038  16.384   6.369  13.492 -0.0394  0.2873  0.0965
 1452DOPC   D2B17039  16.175   6.563  13.833 -0.3507 -0.0037 -0.1675
 1452DOPC   C3B17040  16.425   6.551  14.197  0.0320  0.0182  0.2968
 1452DOPC   C4B17041  16.704   6.303  14.460 -0.0009  0.1481 -0.0618
 1453DOPE   NH317042  12.171   7.373  12.120  0.0484  0.0576  0.0116
 1453DOPE   PO417043  12.321   7.395  12.443  0.2576 -0.2894 -0.1286
 1453DOPE   GL117044  12.374   7.295  12.773 -0.1079 -0.3843 -0.2644
 1453DOPE   GL217045  12.204   7.038  12.830  0.1400  0.0574  0.0846
 1453DOPE   C1A17046  12.633   7.561  13.043 -0.0850 -0.0826  0.0573
 1453DOPE   D2A17047  13.004   7.824  13.096  0.2391 -0.0836  0.3110
 1453DOPE   C3A17048  13.133   8.172  13.384  0.2045  0.1217 -0.3174
 1453DOPE   C4A17049  13.272   8.294  13.832  0.1346 -0.1492 -0.1070
 1453DOPE   C1B17050  11.998   7.239  13.212  0.1344  0.5563 -0.1252
 1453DOPE   D2B17051  11.631   7.214  13.542  0.2814  0.2745 -0.1959
 1453DOPE   C3B17052  11.510   7.305  14.016  0.0691  0.1627  0.1872
 1453DOPE   C4B17053  11.658   7.404  14.465  0.0058  0.2057 -0.3256
 1454POSM   NC317054  20.165   5.029  12.607 -0.0905  0.1040 -0.0463
 1454POSM   PO417055  19.780   5.117  12.478 -0.0762  0.1542 -0.1741
 1454POSM   AM117056  19.695   5.199  12.786 -0.2041 -0.0979 -0.4032
 1454POSM   AM217057  19.747   5.045  13.012 -0.4850 -0.3495 -0.0633
 1454POSM   T1A17058  19.475   5.470  13.165  0.1100  0.1224 -0.1890
 1454POSM   C2A17059  19.186   5.495  13.493  0.2354  0.1989  0.2040
 1454POSM   C3A17060  19.105   5.119  13.713 -0.1020  0.0310  0.1417
 1454POSM   C1B17061  19.554   4.861  13.239  0.0027  0.0051  0.0999
 1454POSM   D2B17062  19.149   4.666  13.329 -0.1175  0.2658 -0.1136
 1454POSM   C3B17063  19.051   4.558  13.805 -0.2168 -0.1229  0.2686
 1454POSM   C4B17064  18.777   4.601  14.139  0.1928  0.1372  0.3140
 1455DOPC   NC317065  19.483   7.714  12.426 -0.1752 -0.1534  0.0957
 1455DOPC   PO417066  19.851   7.587  12.469  0.3071  0.2335  0.0163
 1455DOPC   GL117067  19.725   7.698  12.840  0.0453  0.2483 -0.5732
 1455DOPC   GL217068  19.547   7.447  12.859 -0.2304  0.2026 -0.1041
 1455DOPC   C1A17069  20.050   7.961  13.071 -0.0317  0.1011  0.2117
 1455DOPC   D2A17070  20.288   7.881  13.487  0.0341  0.1695  0.1464
 1455DOPC   C3A17071  20.521   7.862  13.880 -0.0815  0.1129 -0.3005
 1455DOPC   C4A17072  20.818   7.753  14.190 -0.2153  0.0386  0.1876
 1455DOPC   C1B17073  19.621   7.592  13.308 -0.0103  0.1852  0.0698
 1455DOPC   D2B17074  19.817   7.951  13.544 -0.1123 -0.1651 -0.1273
 1455DOPC   C3B17075  19.847   8.345  13.329 -0.2848  0.0872  0.1246
 1455DOPC   C4B17076  19.962   8.561  12.955 -0.0094  0.2378  0.0688
 1456POSM   NC317077  19.194   9.968  12.037 -0.0054  0.1000  0.0005
 1456POSM   PO417078  18.962  10.179  11.828 -0.1235 -0.0563 -0.2701
 1456POSM   AM117079  18.914  10.331  12.143 -0.3212  0.1500  0.0180
 1456POSM   AM217080  19.059  10.430  12.379 -0.1253 -0.0029  0.0490
 1456POSM   T1A17081  18.715  10.235  12.602 -0.1361 -0.1355 -0.1540
 1456POSM   C2A17082  18.534  10.224  13.096  0.0635 -0.1227 -0.2181
 1456POSM   C3A17083  18.208  10.212  13.445 -0.1696 -0.0320  0.1786
 1456POSM   C1B17084  19.114  10.591  12.658 -0.0183  0.1557 -0.2468
 1456POSM   D2B17085  19.215  10.811  13.057 -0.4644  0.0602 -0.2599
 1456POSM   C3B17086  19.183  11.171  13.348 -0.0368  0.0304  0.0760
 1456POSM   C4B17087  19.343  11.475  13.628  0.1613 -0.0980 -0.1494
 1457DOPE   NH317088  17.629  34.579  12.126 -0.0258 -0.0289 -0.1068
 1457DOPE   PO417089  17.820  34.587  12.387  0.2758 -0.0088 -0.1278
 1457DOPE   GL117090  17.820  34.506  12.739  0.0727 -0.4582  0.1412
 1457DOPE   GL217091  17.675  34.434  12.993  0.0136 -0.1266  0.0864
 1457DOPE   C1A17092  17.938  34.855  13.036  0.0916 -0.0858 -0.0580
 1457DOPE   D2A17093  17.967  34.665  13.458  0.2469 -0.2588 -0.1211
 1457DOPE   C3A17094  17.792  34.517  13.856 -0.1520 -0.0498 -0.3482
 1457DOPE   C4A17095  17.585  34.623  14.283  0.0836  0.0214  0.0323
 1457DOPE   C1B17096  17.352  34.282  13.265 -0.0593  0.0732 -0.1262
 1457DOPE   D2B17097  17.282  34.230  13.753 -0.1757  0.2066 -0.1058
 1457DOPE   C3B17098  17.309  33.841  13.980  0.0483  0.2113 -0.2999
 1457DOPE   C4B17099  17.190  33.559  14.329  0.1342  0.1274  0.0623
 1458DOPC   NC317100  21.237   4.250  12.771  0.2080  0.2283 -0.1873
 1458DOPC   PO417101  21.234   4.439  12.437 -0.0426  0.3286  0.0818
 1458DOPC   GL117102  21.403   4.092  12.324  0.0576  0.1767 -0.1374
 1458DOPC   GL217103  21.174   3.954  12.260  0.2708  0.1134  0.0845
 1458DOPC   C1A17104  21.616   3.718  12.549  0.2239 -0.1154  0.0559
 1458DOPC   D2A17105  21.590   3.254  12.540  0.1060 -0.0561 -0.2759
 1458DOPC   C3A17106  21.154   3.094  12.414  0.1766 -0.0831  0.1639
 1458DOPC   C4A17107  20.836   2.959  12.062 -0.2233  0.2347  0.1154
 1458DOPC   C1B17108  21.135   3.626  12.491  0.0148 -0.2658 -0.1873
 1458DOPC   D2B17109  20.960   3.281  12.867 -0.0423 -0.0459 -0.1268
 1458DOPC   C3B17110  21.065   3.318  13.346  0.0869 -0.2404 -0.0513
 1458DOPC   C4B17111  21.021   3.636  13.646  0.3974 -0.1450  0.0344
 1459DOPE   NH317112  23.113   0.318  12.156 -0.1331 -0.0752 -0.0499
 1459DOPE   PO417113  23.355   0.477  12.275  0.1025 -0.1256  0.0875
 1459DOPE   GL117114  23.376   0.629  12.615  0.1217 -0.1798  0.1830
 1459DOPE   GL217115  23.191   0.657  12.887 -0.0391  0.0102  0.0049
 1459DOPE   C1A17116  23.609   0.985  12.790 -0.1535 -0.1471  0.1653
 1459DOPE   D2A17117  23.699   1.442  12.739 -0.3405  0.1288 -0.1726
 1459DOPE   C3A17118  23.761   1.631  13.152  0.1130  0.1046  0.1345
 1459DOPE   C4A17119  23.829   1.764  13.665 -0.2159 -0.1053  0.0093
 1459DOPE   C1B17120  23.584   0.693  13.147  0.1514 -0.1335  0.2629
 1459DOPE   D2B17121  24.016   0.666  13.318  0.0970 -0.0155 -0.1533
 1459DOPE   C3B17122  24.209   0.473  13.707 -0.1786  0.1306  0.1556
 1459DOPE   C4B17123  24.147   0.210  14.044 -0.4093 -0.1864 -0.1384
 1460POSM   NC317124  12.449   4.075  12.308  0.0592  0.1606 -0.0858
 1460POSM   PO417125  12.785   4.286  12.361  0.2591 -0.1988  0.0124
 1460POSM   AM117126  12.839   4.120  12.633 -0.0546 -0.0470  0.4396
 1460POSM   AM217127  12.625   4.009  12.818 -0.0008 -0.3453  0.3619
 1460POSM   T1A17128  13.060   3.894  12.958  0.2212 -0.1935  0.0565
 1460POSM   C2A17129  13.277   3.652  13.267  0.0150 -0.1559 -0.1152
 1460POSM   C3A17130  13.566   3.388  13.481  0.0135  0.1969 -0.1615
 1460POSM   C1B17131  12.634   4.104  13.093 -0.0344 -0.1260  0.2618
 1460POSM   D2B17132  12.889   4.145  13.485 -0.2222  0.2434  0.1568
 1460POSM   C3B17133  13.352   4.037  13.610  0.3655 -0.0146 -0.4931
 1460POSM   C4B17134  13.611   3.788  13.913  0.5542  0.0339 -0.1100
 1461DOPC   NC317135  16.997   6.860  12.235 -0.0636 -0.2141  0.4264
 1461DOPC   PO417136  17.374   6.764  12.101 -0.1188 -0.1145  0.4056
 1461DOPC   GL117137  17.438   6.637  12.501  0.0797 -0.1043  0.1481
 1461DOPC   GL217138  17.312   6.400  12.455  0.0301 -0.0294  0.3465
 1461DOPC   C1A17139  17.512   6.729  12.961 -0.3386 -0.2000 -0.2834
 1461DOPC   D2A17140  17.603   7.112  13.222  0.0914 -0.1109  0.0518
 1461DOPC   C3A17141  17.377   7.505  13.121  0.1566  0.0318  0.0232
 1461DOPC   C4A17142  17.166   7.853  13.326 -0.0542 -0.0433  0.0232
 1461DOPC   C1B17143  17.588   6.209  12.717 -0.1813 -0.1565 -0.0893
 1461DOPC   D2B17144  18.039   6.088  12.629  0.2166  0.0588  0.1557
 1461DOPC   C3B17145  18.460   6.092  12.745 -0.0152 -0.3884 -0.0673
 1461DOPC   C4B17146  18.924   6.237  12.868  0.2475  0.1811  0.2125
 1462POSM   NC317147  20.169   1.045  12.625  0.0368 -0.0811 -0.3403
 1462POSM   PO417148  20.057   1.386  12.436  0.3690  0.2034 -0.1076
 1462POSM   AM117149  19.964   1.471  12.731  0.1970 -0.4087 -0.3571
 1462POSM   AM217150  19.758   1.628  12.826 -0.1186 -0.0749 -0.0520
 1462POSM   T1A17151  19.916   1.317  13.203  0.0417  0.4809 -0.3256
 1462POSM   C2A17152  19.648   1.427  13.550 -0.0284 -0.0742  0.0779
 1462POSM   C3A17153  19.227   1.389  13.737 -0.0669 -0.3170  0.2271
 1462POSM   C1B17154  19.622   1.749  13.126  0.0336  0.1811 -0.2085
 1462POSM   D2B17155  19.373   1.928  13.464 -0.0029 -0.0595  0.0018
 1462POSM   C3B17156  19.513   1.783  13.890  0.1225  0.3165 -0.3853
 1462POSM   C4B17157  19.873   1.880  14.231  0.0493 -0.0214  0.1154
 1463POSM   NC317158  12.666   6.810  11.654 -0.2172 -0.0621 -0.0689
 1463POSM   PO417159  12.378   6.916  11.901 -0.1245  0.1072 -0.1751
 1463POSM   AM117160  12.119   6.838  12.097  0.1888 -0.0893  0.1232
 1463POSM   AM217161  12.074   6.711  12.327  0.0311  0.1928  0.2221
 1463POSM   T1A17162  11.701   6.561  12.040  0.2079 -0.3392  0.0771
 1463POSM   C2A17163  11.731   6.063  11.914  0.0789 -0.1081  0.0969
 1463POSM   C3A17164  11.996   5.683  12.108 -0.2211 -0.0872  0.1572
 1463POSM   C1B17165  12.172   6.565  12.649 -0.0860  0.3251 -0.1070
 1463POSM   D2B17166  12.344   6.661  13.069 -0.0586 -0.1457  0.0295
 1463POSM   C3B17167  12.180   6.837  13.521  0.2447  0.0910 -0.2594
 1463POSM   C4B17168  12.161   7.176  13.844  0.0691  0.0997 -0.1446
 1464DOPC   NC317169  16.539   2.036  12.374 -0.1377 -0.0840 -0.0023
 1464DOPC   PO417170  16.776   2.036  12.735 -0.2008 -0.1128  0.2415
 1464DOPC   GL117171  16.571   1.752  13.087 -0.2674  0.5911 -0.0645
 1464DOPC   GL217172  16.790   1.575  13.130  0.1922  0.0519 -0.1224
 1464DOPC   C1A17173  16.390   1.486  13.474 -0.0371 -0.0435  0.1349
 1464DOPC   D2A17174  16.653   1.363  13.870  0.2475  0.0752  0.4252
 1464DOPC   C3A17175  16.528   1.495  14.332  0.1671 -0.1627 -0.0217
 1464DOPC   C4A17176  16.397   1.872  14.440  0.0610 -0.2699 -0.0863
 1464DOPC   C1B17177  17.006   1.543  13.546  0.1048  0.0905 -0.1220
 1464DOPC   D2B17178  17.203   1.693  13.958  0.0023  0.1781 -0.0469
 1464DOPC   C3B17179  17.548   1.373  13.858  0.0481  0.2868 -0.3994
 1464DOPC   C4B17180  17.913   1.196  13.560 -0.0480 -0.1269  0.0069
 1465DOPE   NH317181  14.903   1.019  12.558 -0.1282  0.0661  0.1592
 1465DOPE   PO417182  15.108   1.232  12.710  0.1571 -0.0635  0.0703
 1465DOPE   GL117183  15.004   1.548  12.839 -0.3418  0.1897 -0.3702
 1465DOPE   GL217184  14.959   1.737  12.634 -0.1174  0.0817 -0.0678
 1465DOPE   C1A17185  14.780   1.730  13.199  0.2039  0.1054  0.2389
 1465DOPE   D2A17186  14.801   1.765  13.638  0.4582  0.0140 -0.2657
 1465DOPE   C3A17187  15.171   1.524  13.788 -0.0923 -0.0851  0.2654
 1465DOPE   C4A17188  15.657   1.569  13.855  0.0887  0.1576 -0.0021
 1465DOPE   C1B17189  14.898   2.132  12.842  0.0768  0.1418 -0.0235
 1465DOPE   D2B17190  15.240   2.431  13.021 -0.1297  0.0471 -0.1060
 1465DOPE   C3B17191  15.117   2.749  13.360  0.1640 -0.1869 -0.2105
 1465DOPE   C4B17192  14.774   2.775  13.634 -0.0233  0.1574 -0.2577
 1466POSM   NC317193  14.965  10.933  11.780 -0.2626  0.0069 -0.1463
 1466POSM   PO417194  14.710  10.738  11.952  0.1541 -0.0533 -0.4044
 1466POSM   AM117195  14.846  10.813  12.232 -0.2501 -0.0236  0.2022
 1466POSM   AM217196  14.844  10.648  12.452 -0.1634  0.2002 -0.0745
 1466POSM   T1A17197  14.932  11.166  12.562  0.0982 -0.0806 -0.1341
 1466POSM   C2A17198  14.989  11.590  12.795  0.1862 -0.0658  0.2469
 1466POSM   C3A17199  14.787  12.012  12.862  0.0897  0.0023 -0.0138
 1466POSM   C1B17200  14.710  10.742  12.754 -0.1767  0.2243 -0.0068
 1466POSM   D2B17201  14.669  11.130  13.002  0.0479 -0.1590 -0.0620
 1466POSM   C3B17202  14.245  11.281  13.157  0.1591 -0.0082  0.1935
 1466POSM   C4B17203  14.024  11.649  13.129  0.0291  0.1017  0.2354
 1467POSM   NC317204  15.526   1.285  12.945  0.1755 -0.3282 -0.0486
 1467POSM   PO417205  15.662   1.256  12.566  0.1136 -0.1437  0.0497
 1467POSM   AM117206  15.470   1.561  12.572  0.2826  0.1382  0.0049
 1467POSM   AM217207  15.486   1.816  12.417  0.1737  0.1811 -0.0615
 1467POSM   T1A17208  15.363   1.953  12.918 -0.1172 -0.0589 -0.0944
 1467POSM   C2A17209  15.561   2.171  13.348 -0.3643  0.1264  0.0347
 1467POSM   C3A17210  15.567   2.545  13.619  0.0978  0.1290 -0.0352
 1467POSM   C1B17211  15.289   2.110  12.462 -0.0625 -0.1198 -0.2096
 1467POSM   D2B17212  15.003   2.460  12.419  0.0066 -0.1421 -0.1519
 1467POSM   C3B17213  14.874   2.790  12.801 -0.0617 -0.0078 -0.0372
 1467POSM   C4B17214  14.613   2.966  13.135 -0.0024  0.0611  0.2990
 1468DOPS   CNO17215  19.168   4.884  11.789 -0.3134  0.2162 -0.1594
 1468DOPS   PO417216  18.968   5.000  12.134 -0.0941 -0.1772 -0.1396
 1468DOPS   GL117217  18.731   5.277  12.412 -0.0584  0.1155 -0.2436
 1468DOPS   GL217218  18.685   5.022  12.536 -0.0153 -0.0489 -0.0871
 1468DOPS   C1A17219  18.776   5.418  12.837 -0.1455  0.0519 -0.1356
 1468DOPS   D2A17220  18.647   5.495  13.291  0.0903 -0.0683  0.2638
 1468DOPS   C3A17221  18.785   5.800  13.586 -0.0149  0.0446 -0.1987
 1468DOPS   C4A17222  18.985   5.995  13.959  0.0854  0.4250  0.1275
 1468DOPS   C1B17223  18.358   5.137  12.919  0.0007 -0.0745 -0.1952
 1468DOPS   D2B17224  18.015   5.297  13.193  0.1137 -0.0650  0.0688
 1468DOPS   C3B17225  17.645   5.084  13.344 -0.0032  0.0306 -0.2512
 1468DOPS   C4B17226  17.240   5.206  13.519  0.2213  0.1349 -0.2156
 1469DOPC   NC317227  14.390   9.941  12.250  0.2861 -0.0499  0.2729
 1469DOPC   PO417228  14.239   9.648  11.971  0.0476  0.2830  0.1431
 1469DOPC   GL117229  13.927   9.693  12.315  0.0751 -0.5449  0.0311
 1469DOPC   GL217230  14.090   9.452  12.407  0.0428 -0.2625 -0.0412
 1469DOPC   C1A17231  13.659   9.474  12.581  0.2901 -0.0791  0.2052
 1469DOPC   D2A17232  13.463   9.102  12.779 -0.0300 -0.1850 -0.1692
 1469DOPC   C3A17233  13.715   9.025  13.142 -0.1484 -0.2171 -0.1693
 1469DOPC   C4A17234  13.610   8.921  13.535  0.1196 -0.2545  0.0364
 1469DOPC   C1B17235  14.091   9.007  12.279 -0.2750 -0.0164  0.0683
 1469DOPC   D2B17236  14.271   8.536  12.298 -0.3425  0.0501 -0.1473
 1469DOPC   C3B17237  13.997   8.253  11.998 -0.2850 -0.1498 -0.2646
 1469DOPC   C4B17238  13.966   7.765  11.885 -0.1297 -0.0413 -0.0756
 1470POSM   NC317239  10.860   6.310  12.375  0.1382  0.1037  0.1410
 1470POSM   PO417240  11.110   6.494  12.167  0.0575 -0.2624  0.2940
 1470POSM   AM117241  11.352   6.339  12.347 -0.3700 -0.2091 -0.3078
 1470POSM   AM217242  11.320   6.234  12.602 -0.2601 -0.1854  0.2619
 1470POSM   T1A17243  11.814   6.177  12.484 -0.0291  0.4634  0.0776
 1470POSM   C2A17244  12.147   6.040  12.751 -0.0034 -0.1020  0.0996
 1470POSM   C3A17245  12.193   5.834  13.151 -0.2920  0.0824 -0.2063
 1470POSM   C1B17246  11.272   5.952  12.684 -0.1287 -0.1661 -0.2759
 1470POSM   D2B17247  11.242   5.534  12.566 -0.1569  0.0960 -0.1608
 1470POSM   C3B17248  11.498   5.401  12.899  0.2348 -0.0926 -0.1111
 1470POSM   C4B17249  11.655   4.970  13.078  0.0383 -0.0715  0.1320
 1471DOPE   NH317250  17.358   3.253  12.701 -0.4734 -0.0858  0.0870
 1471DOPE   PO417251  17.185   3.234  12.928  0.0853 -0.1418 -0.2136
 1471DOPE   GL117252  17.200   3.052  13.335  0.2172 -0.0558  0.0975
 1471DOPE   GL217253  16.922   3.045  13.402 -0.1001 -0.2538 -0.0830
 1471DOPE   C1A17254  17.182   3.264  13.750  0.2031 -0.1505 -0.1980
 1471DOPE   D2A17255  17.429   3.629  13.716  0.1056  0.0813  0.0556
 1471DOPE   C3A17256  17.792   3.414  13.962  0.0572  0.1326  0.0266
 1471DOPE   C4A17257  18.235   3.188  13.980  0.2419  0.3243  0.1195
 1471DOPE   C1B17258  16.665   3.377  13.498 -0.0331  0.1251  0.1874
 1471DOPE   D2B17259  16.692   3.713  13.762 -0.1261 -0.0119  0.3916
 1471DOPE   C3B17260  17.026   3.924  13.963  0.1443  0.0506  0.0655
 1471DOPE   C4B17261  17.338   3.679  14.233 -0.4174  0.1358  0.0667
 1472POSM   NC317262  11.705   7.171  12.124 -0.1623  0.1130  0.0099
 1472POSM   PO417263  11.827   7.164  12.480 -0.2022  0.0205  0.2795
 1472POSM   AM117264  11.882   7.354  12.720  0.7306  0.1092 -0.1694
 1472POSM   AM217265  11.988   7.619  12.772  0.0666  0.2025 -0.0230
 1472POSM   T1A17266  11.642   7.526  13.126 -0.2915  0.3130  0.2552
 1472POSM   C2A17267  11.396   7.586  13.510  0.1050 -0.2205 -0.3212
 1472POSM   C3A17268  11.129   7.729  13.934 -0.0725  0.0311 -0.4152
 1472POSM   C1B17269  12.141   7.676  13.005 -0.3747 -0.1426  0.0231
 1472POSM   D2B17270  12.254   7.671  13.458  0.2389 -0.0598 -0.1378
 1472POSM   C3B17271  12.292   8.082  13.589 -0.1604 -0.0549 -0.0174
 1472POSM   C4B17272  12.359   8.446  13.860  0.2541  0.0518 -0.0728
 1473POSM   NC317273  15.842   7.470  12.091 -0.2960 -0.0631  0.1559
 1473POSM   PO417274  15.741   7.192  11.852 -0.0360 -0.1817 -0.0534
 1473POSM   AM117275  15.413   7.082  11.927  0.4023  0.2339  0.2788
 1473POSM   AM217276  15.142   7.125  11.950 -0.2520  0.1722 -0.0478
 1473POSM   T1A17277  15.175   6.607  12.021  0.0606 -0.0939  0.2779
 1473POSM   C2A17278  14.780   6.430  12.167 -0.0941  0.0924 -0.2148
 1473POSM   C3A17279  14.598   6.013  12.335  0.0954  0.2036 -0.0523
 1473POSM   C1B17280  15.002   7.075  12.251 -0.0331  0.1632 -0.2225
 1473POSM   D2B17281  14.996   7.184  12.686 -0.1636  0.0566  0.3742
 1473POSM   C3B17282  14.621   7.338  12.848  0.0267 -0.0145 -0.0562
 1473POSM   C4B17283  14.439   7.488  13.275 -0.1184  0.0471  0.1555
 1474POSM   NC317284  12.880   6.311  12.174  0.0255  0.2571  0.0738
 1474POSM   PO417285  13.060   6.260  12.529 -0.2071  0.2336 -0.0966
 1474POSM   AM117286  13.241   6.332  12.787  0.5041  0.0601  0.1425
 1474POSM   AM217287  13.301   6.618  12.865  0.1112 -0.1868 -0.3265
 1474POSM   T1A17288  13.550   6.316  13.176  0.3154  0.0690 -0.0897
 1474POSM   C2A17289  13.860   6.061  13.401 -0.0642 -0.0295  0.1450
 1474POSM   C3A17290  14.195   5.974  13.745 -0.1154  0.1752 -0.2189
 1474POSM   C1B17291  13.160   6.917  12.941 -0.2439  0.2423  0.1001
 1474POSM   D2B17292  13.233   7.350  13.046 -0.1144  0.0888  0.0986
 1474POSM   C3B17293  13.440   7.423  13.464 -0.0551 -0.1489 -0.1261
 1474POSM   C4B17294  13.450   7.295  13.936  0.3102  0.1168  0.4172
 1475DOPS   CNO17295  21.525   5.047  12.047  0.0168  0.0900  0.2216
 1475DOPS   PO417296  21.581   5.050  12.419  0.0571  0.2342  0.0561
 1475DOPS   GL117297  21.947   4.852  12.677  0.0560  0.0818 -0.0744
 1475DOPS   GL217298  21.837   5.064  12.848  0.3756  0.0709  0.4909
 1475DOPS   C1A17299  21.813   4.400  12.804  0.0022  0.1031 -0.0397
 1475DOPS   D2A17300  21.622   4.027  12.980  0.0291  0.2610 -0.3857
 1475DOPS   C3A17301  21.741   3.572  13.061  0.0161 -0.2115 -0.1651
 1475DOPS   C4A17302  22.088   3.496  13.314  0.0965  0.1139 -0.4623
 1475DOPS   C1B17303  21.483   4.711  12.974 -0.0951 -0.0107  0.0528
 1475DOPS   D2B17304  21.185   4.397  13.240  0.0268  0.1505  0.1230
 1475DOPS   C3B17305  21.031   4.286  13.626 -0.1380  0.3028 -0.1625
 1475DOPS   C4B17306  20.909   4.074  14.014  0.0176  0.1408  0.0381
 1476POSM   NC317307  18.110   0.233  12.574 -0.3478 -0.2465 -0.0040
 1476POSM   PO417308  18.062   0.355  12.185  0.2848  0.1010 -0.1968
 1476POSM   AM117309  18.021   0.642  12.364 -0.0608 -0.0653  0.2936
 1476POSM   AM217310  18.021   0.728  12.634 -0.0989  0.1200  0.3388
 1476POSM   T1A17311  18.165   1.175  12.433  0.0263  0.0371  0.1971
 1476POSM   C2A17312  18.517   1.499  12.501 -0.2744  0.2064 -0.0876
 1476POSM   C3A17313  18.746   1.764  12.155  0.0686 -0.2874  0.2392
 1476POSM   C1B17314  17.901   0.751  12.948 -0.2093 -0.0400  0.3629
 1476POSM   D2B17315  17.749   0.641  13.382  0.0052 -0.1440  0.0321
 1476POSM   C3B17316  17.945   0.741  13.783 -0.1167  0.1414  0.0065
 1476POSM   C4B17317  17.989   1.103  14.089  0.2244  0.0642  0.2285
 1477DOPE   NH317318  22.469   4.477  12.695 -0.3276 -0.1233  0.1199
 1477DOPE   PO417319  22.548   4.211  12.619  0.0499  0.0816 -0.1030
 1477DOPE   GL117320  22.345   4.037  12.904 -0.2484 -0.2767  0.1082
 1477DOPE   GL217321  22.234   4.256  13.066 -0.1338  0.1283 -0.1637
 1477DOPE   C1A17322  22.480   3.890  13.341  0.2173 -0.0044  0.0796
 1477DOPE   D2A17323  22.595   3.908  13.735  0.1108 -0.1991  0.2581
 1477DOPE   C3A17324  23.016   4.031  13.862 -0.0219  0.3435  0.0724
 1477DOPE   C4A17325  23.339   4.080  14.125  0.3811 -0.1491 -0.0329
 1477DOPE   C1B17326  21.978   3.996  13.421 -0.0403  0.2741 -0.0367
 1477DOPE   D2B17327  21.499   3.947  13.521  0.1284 -0.2160  0.1965
 1477DOPE   C3B17328  21.574   3.465  13.537 -0.0997  0.0347  0.0923
 1477DOPE   C4B17329  21.851   3.127  13.573  0.3352 -0.2250 -0.1685
 1478DOPE   NH317330  22.636   9.967  11.967 -0.1181  0.0861  0.0292
 1478DOPE   PO417331  22.748  10.203  12.134  0.3677  0.0606  0.2620
 1478DOPE   GL117332  22.491  10.263  12.421 -0.2020  0.1746  0.2322
 1478DOPE   GL217333  22.299  10.411  12.270 -0.0581 -0.2726 -0.0983
 1478DOPE   C1A17334  22.481  10.489  12.852  0.2095 -0.0478  0.1431
 1478DOPE   D2A17335  22.499  10.788  13.189  0.1065  0.2792  0.0975
 1478DOPE   C3A17336  22.169  10.906  13.456 -0.2367  0.2088  0.0736
 1478DOPE   C4A17337  22.061  10.980  13.913 -0.0369 -0.2738 -0.2796
 1478DOPE   C1B17338  21.970  10.306  12.627  0.1805 -0.1111 -0.1412
 1478DOPE   D2B17339  21.754   9.968  12.776  0.3808 -0.1243  0.2609
 1478DOPE   C3B17340  21.830   9.491  12.650 -0.1387  0.6793  0.0783
 1478DOPE   C4B17341  22.009   9.101  12.728  0.1537  0.0267 -0.2606
 1479DOPE   NH317342  16.366   7.240  12.656 -0.1209  0.1762  0.0065
 1479DOPE   PO417343  16.537   7.026  12.452 -0.0524  0.1056 -0.1436
 1479DOPE   GL117344  16.714   6.931  12.715 -0.1737 -0.3976 -0.2609
 1479DOPE   GL217345  17.009   6.818  12.751  0.0098 -0.0723 -0.0340
 1479DOPE   C1A17346  16.472   6.947  13.085 -0.0958  0.0489 -0.1796
 1479DOPE   D2A17347  16.146   6.852  13.411 -0.1468 -0.2118 -0.1650
 1479DOPE   C3A17348  15.950   7.210  13.669 -0.0964 -0.0060  0.0913
 1479DOPE   C4A17349  15.663   7.507  13.861 -0.2767  0.0265  0.1897
 1479DOPE   C1B17350  17.134   6.417  12.903  0.0711  0.0966 -0.2555
 1479DOPE   D2B17351  17.219   5.951  12.953  0.0378 -0.0333 -0.0188
 1479DOPE   C3B17352  16.937   5.626  13.093 -0.0151 -0.1482  0.0093
 1479DOPE   C4B17353  16.514   5.385  12.977 -0.0338  0.0056 -0.5386
 1480DOPE   NH317354  11.791   2.871  12.463 -0.0304  0.2622  0.0799
 1480DOPE   PO417355  11.941   3.041  12.242 -0.0437 -0.1765  0.0001
 1480DOPE   GL117356  12.213   2.789  12.194 -0.0817  0.2493 -0.2622
 1480DOPE   GL217357  12.122   2.762  11.911 -0.0669  0.0730  0.2433
 1480DOPE   C1A17358  12.540   2.482  12.090 -0.0946 -0.2021 -0.1305
 1480DOPE   D2A17359  12.753   2.160  12.365  0.1436 -0.0479 -0.1645
 1480DOPE   C3A17360  13.224   2.104  12.321 -0.0502 -0.2009 -0.0348
 1480DOPE   C4A17361  13.650   2.243  12.392 -0.1518 -0.2265  0.1347
 1480DOPE   C1B17362  12.098   2.243  11.895  0.0958 -0.0329  0.0387
 1480DOPE   D2B17363  12.171   1.834  12.116 -0.1530  0.1342  0.1020
 1480DOPE   C3B17364  12.438   1.716  12.493  0.0966 -0.1846  0.0343
 1480DOPE   C4B17365  12.353   1.489  12.812  0.0735 -0.0056 -0.1082
 1481POSM   NC317366  12.540   3.517  11.912 -0.2257 -0.0215 -0.0168
 1481POSM   PO417367  12.513   3.239  12.159  0.1665  0.1639 -0.0171
 1481POSM   AM117368  12.569   3.047  12.419 -0.1502 -0.3637 -0.1899
 1481POSM   AM217369  12.627   3.089  12.690  0.2219 -0.0287  0.2055
 1481POSM   T1A17370  12.701   2.610  12.558 -0.0717 -0.1667 -0.2081
 1481POSM   C2A17371  12.895   2.396  12.916  0.0947 -0.0053 -0.0371
 1481POSM   C3A17372  13.351   2.424  12.902  0.1357  0.3463  0.1676
 1481POSM   C1B17373  12.651   2.981  13.046  0.1209 -0.2855 -0.0135
 1481POSM   D2B17374  12.859   2.700  13.360  0.3985 -0.0461  0.2487
 1481POSM   C3B17375  13.225   2.519  13.425  0.0824  0.2570 -0.0734
 1481POSM   C4B17376  13.394   2.116  13.297 -0.0725  0.2011 -0.2627
 1482DOPC   NC317377  22.147   9.717  11.942  0.2367  0.1904  0.0625
 1482DOPC   PO417378  22.166   9.338  12.005 -0.1442  0.0871  0.1888
 1482DOPC   GL117379  22.228   9.078  12.359  0.2247  0.0710 -0.2231
 1482DOPC   GL217380  21.976   8.890  12.260 -0.0687  0.0020 -0.0557
 1482DOPC   C1A17381  22.271   8.675  12.642 -0.0092  0.0216  0.0801
 1482DOPC   D2A17382  22.479   8.307  12.884 -0.2961 -0.1963  0.2562
 1482DOPC   C3A17383  22.542   8.419  13.311 -0.1751 -0.1234 -0.2165
 1482DOPC   C4A17384  22.444   8.374  13.791 -0.2385 -0.0056 -0.0173
 1482DOPC   C1B17385  21.713   8.697  12.622 -0.0058 -0.0933 -0.0261
 1482DOPC   D2B17386  21.573   8.823  13.038  0.1196  0.0969 -0.0750
 1482DOPC   C3B17387  21.787   9.292  13.107  0.1880  0.0428  0.0999
 1482DOPC   C4B17388  21.832   9.496  13.522 -0.1145  0.1786  0.2459
 1483DOPC   NC317389  17.920   9.910  12.398 -0.1172 -0.2327 -0.0125
 1483DOPC   PO417390  17.718  10.027  12.042 -0.0761 -0.1409 -0.0781
 1483DOPC   GL117391  17.493   9.685  12.187 -0.0586 -0.6429  0.1139
 1483DOPC   GL217392  17.731   9.526  12.193 -0.1688 -0.2902 -0.2308
 1483DOPC   C1A17393  17.417   9.681  12.631  0.0972 -0.2134 -0.2097
 1483DOPC   D2A17394  17.318   9.848  13.044  0.2307 -0.1148  0.2762
 1483DOPC   C3A17395  16.826   9.815  13.196 -0.0425  0.1063  0.1343
 1483DOPC   C4A17396  16.472   9.761  12.874 -0.0165 -0.0076  0.0457
 1483DOPC   C1B17397  17.871   9.399  12.664  0.0968  0.0937 -0.1109
 1483DOPC   D2B17398  18.094   9.295  13.072 -0.0424  0.0226  0.3116
 1483DOPC   C3B17399  17.926   9.140  13.434  0.1119  0.0770 -0.2291
 1483DOPC   C4B17400  17.969   9.225  13.881 -0.4099  0.0517  0.0367
 1484POSM   NC317401  13.413   5.061  12.029 -0.0440 -0.3717  0.2855
 1484POSM   PO417402  13.164   5.189  12.276  0.0237 -0.1694 -0.0139
 1484POSM   AM117403  13.079   5.231  12.605 -0.3591 -0.4201 -0.1903
 1484POSM   AM217404  13.182   5.379  12.827  0.2661 -0.1899 -0.2709
 1484POSM   T1A17405  12.830   5.057  13.042  0.0257  0.1092  0.1923
 1484POSM   C2A17406  12.426   5.019  13.299  0.2273  0.3110  0.3184
 1484POSM   C3A17407  12.223   5.006  13.643  0.0720 -0.2267  0.1062
 1484POSM   C1B17408  13.018   5.485  13.092  0.0887  0.1495  0.1342
 1484POSM   D2B17409  12.616   5.466  13.330  0.2227  0.0274 -0.1450
 1484POSM   C3B17410  12.343   5.675  13.595  0.0769  0.1839 -0.1071
 1484POSM   C4B17411  12.314   6.011  13.944  0.1675 -0.2599  0.0389
 1485POSM   NC317412  19.322   6.547  12.650  0.2088 -0.1427 -0.1257
 1485POSM   PO417413  19.705   6.528  12.501  0.0073 -0.1744  0.1304
 1485POSM   AM117414  19.936   6.351  12.570  0.0340 -0.0311 -0.2305
 1485POSM   AM217415  20.058   6.345  12.827 -0.2545  0.3274  0.0357
 1485POSM   T1A17416  20.266   6.026  12.496  0.2130  0.2481 -0.0841
 1485POSM   C2A17417  20.685   5.798  12.441  0.0024  0.0285  0.4752
 1485POSM   C3A17418  21.136   5.836  12.302 -0.4899  0.0674  0.1341
 1485POSM   C1B17419  20.235   6.126  12.986 -0.2667 -0.1216 -0.1349
 1485POSM   D2B17420  20.491   5.732  13.080 -0.2672 -0.1597 -0.3938
 1485POSM   C3B17421  20.745   5.616  13.481  0.0918 -0.0265  0.1045
 1485POSM   C4B17422  21.094   5.574  13.813 -0.1171 -0.1743  0.2634
 1486DOPS   CNO17423  19.866   2.205  12.413 -0.1310  0.1262  0.2744
 1486DOPS   PO417424  20.101   1.947  12.581  0.1239 -0.0279 -0.0525
 1486DOPS   GL117425  20.187   2.332  12.693 -0.3583 -0.2752  0.1151
 1486DOPS   GL217426  20.355   2.386  12.399 -0.0343 -0.0029 -0.1341
 1486DOPS   C1A17427  20.130   2.615  13.024  0.2145  0.1941  0.0149
 1486DOPS   D2A17428  20.360   2.743  13.439  0.3003  0.0900 -0.2421
 1486DOPS   C3A17429  20.151   2.387  13.603 -0.1488  0.0085  0.2424
 1486DOPS   C4A17430  19.855   2.055  13.773 -0.1071 -0.4222  0.2237
 1486DOPS   C1B17431  20.777   2.175  12.379 -0.0665  0.0342 -0.0892
 1486DOPS   D2B17432  21.211   2.048  12.377 -0.0180 -0.2046  0.0444
 1486DOPS   C3B17433  21.559   2.145  12.117  0.1038 -0.1064 -0.1502
 1486DOPS   C4B17434  21.865   2.053  11.799  0.0541  0.1486 -0.2448
 1487DOPE   NH317435  18.654   7.543  12.076 -0.1853  0.0312  0.0126
 1487DOPE   PO417436  18.623   7.525  12.403 -0.3368  0.0266  0.2823
 1487DOPE   GL117437  18.579   7.715  12.683  0.0325  0.0592  0.1648
 1487DOPE   GL217438  18.332   7.602  12.800  0.0495  0.2731  0.1273
 1487DOPE   C1A17439  18.507   8.104  12.935 -0.2503 -0.0168  0.3521
 1487DOPE   D2A17440  18.395   8.371  13.326 -0.2393  0.0162 -0.1067
 1487DOPE   C3A17441  18.602   8.310  13.746  0.2546  0.1234 -0.2813
 1487DOPE   C4A17442  18.935   8.084  13.997  0.1804 -0.0954 -0.0119
 1487DOPE   C1B17443  18.720   7.631  13.103 -0.0347  0.1221 -0.0843
 1487DOPE   D2B17444  19.160   7.701  13.150 -0.0463 -0.1823  0.6132
 1487DOPE   C3B17445  19.462   8.026  13.101 -0.0634 -0.0034  0.0411
 1487DOPE   C4B17446  19.475   8.397  12.822 -0.2078  0.1759  0.1636
 1488DOPC   NC317447  19.308   4.930  12.515  0.1180 -0.3134 -0.0697
 1488DOPC   PO417448  19.442   4.708  12.222 -0.1806 -0.0196 -0.0450
 1488DOPC   GL117449  19.035   4.595  12.336 -0.1597 -0.3657  0.0371
 1488DOPC   GL217450  18.926   4.530  12.107 -0.2726 -0.0421 -0.0027
 1488DOPC   C1A17451  19.048   4.152  12.451  0.0106 -0.0419 -0.0786
 1488DOPC   D2A17452  19.373   3.949  12.695  0.0360  0.0352  0.0801
 1488DOPC   C3A17453  19.369   4.130  13.181  0.2573 -0.0692 -0.0792
 1488DOPC   C4A17454  19.264   4.156  13.580 -0.1524  0.1831 -0.0829
 1488DOPC   C1B17455  18.595   4.528  12.395 -0.1281  0.0211  0.1495
 1488DOPC   D2B17456  18.216   4.262  12.630 -0.0705 -0.2168 -0.0062
 1488DOPC   C3B17457  17.896   4.459  12.876 -0.1884  0.0656  0.0342
 1488DOPC   C4B17458  17.655   4.594  13.211 -0.0535 -0.3980 -0.2335
 1489DOPC   NC317459  15.896   8.032  12.688 -0.2565  0.1425 -0.1796
 1489DOPC   PO417460  15.818   7.851  12.363 -0.3219  0.1073  0.0479
 1489DOPC   GL117461  15.665   7.584  12.640 -0.1880  0.2217  0.1686
 1489DOPC   GL217462  15.909   7.484  12.698  0.2307  0.1986  0.0044
 1489DOPC   C1A17463  15.622   7.706  13.061  0.1115  0.2447 -0.0332
 1489DOPC   D2A17464  15.530   7.895  13.512  0.1431 -0.0065 -0.0001
 1489DOPC   C3A17465  15.774   7.961  13.851 -0.0972 -0.2923 -0.0427
 1489DOPC   C4A17466  16.084   8.195  14.143  0.1950 -0.0669 -0.4448
 1489DOPC   C1B17467  16.061   7.272  13.120  0.2691 -0.0545  0.1326
 1489DOPC   D2B17468  16.452   7.303  13.426 -0.0003 -0.0866 -0.0203
 1489DOPC   C3B17469  16.665   6.941  13.591 -0.0293  0.0684  0.1550
 1489DOPC   C4B17470  16.896   6.577  13.409 -0.0916 -0.5518 -0.1375
 1490DOPC   NC317471  15.112   9.650  12.564  0.2148  0.0373  0.1481
 1490DOPC   PO417472  15.222   9.841  12.207  0.0935  0.1730  0.1041
 1490DOPC   GL117473  15.577   9.714  12.339 -0.0310 -0.4281 -0.2587
 1490DOPC   GL217474  15.810   9.935  12.345  0.0761  0.3816 -0.0002
 1490DOPC   C1A17475  15.743   9.473  12.667 -0.0261  0.3465  0.2326
 1490DOPC   D2A17476  16.123   9.356  12.948  0.1533  0.0879 -0.0363
 1490DOPC   C3A17477  16.255   8.968  13.179 -0.0917 -0.2934 -0.1426
 1490DOPC   C4A17478  16.381   8.561  13.286 -0.0038 -0.1361 -0.0423
 1490DOPC   C1B17479  15.945   9.970  12.737  0.2714 -0.1160 -0.3946
 1490DOPC   D2B17480  15.918   9.868  13.174  0.0493  0.0325  0.0418
 1490DOPC   C3B17481  16.288   9.664  13.333  0.2108  0.3491 -0.1700
 1490DOPC   C4B17482  16.583   9.309  13.356 -0.2075 -0.0454 -0.0975
 1491DOPE   NH317483  19.722   1.726  12.317 -0.2804  0.0320  0.0387
 1491DOPE   PO417484  19.470   1.913  12.266  0.3369 -0.1132  0.0345
 1491DOPE   GL117485  19.368   1.693  12.624 -0.1321  0.0310  0.0501
 1491DOPE   GL217486  19.183   1.819  12.798 -0.1611  0.0520  0.2681
 1491DOPE   C1A17487  19.415   1.290  12.885 -0.0818  0.1765  0.0723
 1491DOPE   D2A17488  19.120   1.099  13.208  0.1464  0.2245 -0.2844
 1491DOPE   C3A17489  18.781   1.240  13.477 -0.0815  0.1718 -0.0780
 1491DOPE   C4A17490  18.331   1.461  13.445 -0.0313  0.2843  0.0167
 1491DOPE   C1B17491  19.111   1.651  13.192  0.1644  0.0168 -0.2038
 1491DOPE   D2B17492  18.884   1.753  13.590  0.0624 -0.4415  0.0081
 1491DOPE   C3B17493  18.998   1.719  14.060 -0.1116  0.4148  0.0477
 1491DOPE   C4B17494  19.355   1.777  14.411 -0.1382 -0.1091  0.0530
 1492DOPC   NC317495  23.151   8.298  12.221  0.1184  0.2280 -0.1272
 1492DOPC   PO417496  23.116   7.910  12.107  0.0693 -0.3986  0.2953
 1492DOPC   GL117497  22.826   7.982  12.332 -0.0552 -0.2148 -0.2123
 1492DOPC   GL217498  22.658   8.006  12.035  0.0323 -0.0404  0.2740
 1492DOPC   C1A17499  22.421   7.933  12.555  0.0666  0.2239 -0.0469
 1492DOPC   D2A17500  22.006   7.802  12.548  0.0542 -0.0348  0.2127
 1492DOPC   C3A17501  21.803   7.611  12.897  0.3240  0.1824  0.3422
 1492DOPC   C4A17502  21.703   7.851  13.193  0.0932 -0.0630 -0.0037
 1492DOPC   C1B17503  22.176   7.949  12.007  0.0837 -0.0442 -0.0938
 1492DOPC   D2B17504  21.725   7.942  12.171 -0.0510  0.1814 -0.1171
 1492DOPC   C3B17505  21.513   7.693  12.505 -0.1654 -0.0271 -0.0423
 1492DOPC   C4B17506  21.405   7.237  12.549 -0.3532 -0.2424  0.0543
 1493POSM   NC317507  14.479   4.054  12.043  0.2049  0.3420  0.0039
 1493POSM   PO417508  14.394   3.662  12.116  0.2364 -0.2441 -0.2407
 1493POSM   AM117509  14.610   3.621  12.370 -0.0953  0.1366  0.0051
 1493POSM   AM217510  14.584   3.444  12.579 -0.2111  0.1352 -0.1740
 1493POSM   T1A17511  15.036   3.758  12.570  0.2627 -0.0568 -0.1683
 1493POSM   C2A17512  15.417   3.624  12.680 -0.1917  0.0655  0.0382
 1493POSM   C3A17513  15.758   3.800  12.991 -0.1878 -0.0123  0.2510
 1493POSM   C1B17514  14.418   3.392  12.921  0.1286 -0.1220 -0.1625
 1493POSM   D2B17515  14.474   3.402  13.413  0.4118 -0.1724 -0.0215
 1493POSM   C3B17516  14.816   3.699  13.563  0.2459  0.2197  0.2568
 1493POSM   C4B17517  15.045   4.053  13.751 -0.1652 -0.0701 -0.3388
 1494DOPS   CNO17518  14.484   0.008  12.023 -0.0130  0.2346 -0.1311
 1494DOPS   PO417519  14.108   0.026  12.065 -0.0154  0.1436  0.3844
 1494DOPS   GL117520  14.233  -0.447  12.064  0.3199  0.3708 -0.0835
 1494DOPS   GL217521  14.351  -0.614  12.265 -0.0458  0.0875  0.1269
 1494DOPS   C1A17522  14.161  -0.850  11.850 -0.1405 -0.0244  0.0567
 1494DOPS   D2A17523  13.759  -1.100  11.921 -0.1032 -0.1356  0.0837
 1494DOPS   C3A17524  13.826  -1.315  12.344  0.2131 -0.0679 -0.1920
 1494DOPS   C4A17525  13.871  -1.756  12.443  0.0644 -0.1753 -0.1323
 1494DOPS   C1B17526  14.205  -1.027  12.376 -0.2417 -0.1296  0.0384
 1494DOPS   D2B17527  14.395  -1.433  12.322  0.0819 -0.1510  0.1298
 1494DOPS   C3B17528  14.386  -1.824  12.476 -0.3430  0.2013 -0.2591
 1494DOPS   C4B17529  14.397  -2.255  12.717 -0.0134 -0.1565 -0.2327
 1495DOPE   NH317530  13.367   5.904  12.550 -0.3272  0.1181  0.0673
 1495DOPE   PO417531  13.160   5.729  12.378 -0.0269 -0.2405  0.1848
 1495DOPE   GL117532  12.914   5.776  12.723  0.0783 -0.1913  0.2886
 1495DOPE   GL217533  13.086   5.928  12.955 -0.2324  0.3185 -0.1236
 1495DOPE   C1A17534  12.579   5.466  12.827 -0.2435  0.1506  0.1220
 1495DOPE   D2A17535  12.143   5.296  12.962 -0.2242  0.3061 -0.0633
 1495DOPE   C3A17536  11.898   5.301  13.383  0.1917  0.2627  0.0489
 1495DOPE   C4A17537  11.841   5.285  13.797  0.1305 -0.2209  0.1545
 1495DOPE   C1B17538  13.049   6.330  13.218  0.0468  0.0413 -0.1119
 1495DOPE   D2B17539  13.276   6.696  13.403  0.1695 -0.1801  0.0943
 1495DOPE   C3B17540  13.041   7.079  13.510  0.2051 -0.1344 -0.1797
 1495DOPE   C4B17541  12.865   7.474  13.473  0.0996  0.3924 -0.2555
 1496POSM   NC317542  11.200   2.751  11.931 -0.2222 -0.2559  0.1757
 1496POSM   PO417543  11.559   2.654  12.074 -0.0552  0.1494 -0.5037
 1496POSM   AM117544  11.722   2.400  12.266  0.2597 -0.1710  0.2503
 1496POSM   AM217545  11.653   2.113  12.382 -0.0562  0.2727 -0.0199
 1496POSM   T1A17546  12.197   2.254  12.370 -0.0530 -0.1357 -0.0306
 1496POSM   C2A17547  12.419   2.249  12.743 -0.1730  0.2042  0.3125
 1496POSM   C3A17548  12.659   1.938  12.968  0.0586 -0.1011 -0.1834
 1496POSM   C1B17549  11.840   1.945  12.613 -0.1722  0.1921  0.0661
 1496POSM   D2B17550  12.098   1.916  13.023 -0.2770  0.1306 -0.0041
 1496POSM   C3B17551  11.911   1.620  13.349 -0.0333 -0.0074 -0.0148
 1496POSM   C4B17552  11.832   1.185  13.475 -0.1219  0.0431 -0.2216
 1497DOPC   NC317553  16.441   3.503  12.164 -0.4810  0.0490  0.1629
 1497DOPC   PO417554  16.732   3.678  12.155  0.0346  0.0783 -0.0647
 1497DOPC   GL117555  16.653   4.072  12.230 -0.1698 -0.1692  0.1062
 1497DOPC   GL217556  16.524   4.290  12.058  0.0825 -0.1372  0.1153
 1497DOPC   C1A17557  16.657   4.245  12.660 -0.1441 -0.2024 -0.1056
 1497DOPC   D2A17558  16.424   4.455  12.968  0.3265 -0.0727 -0.3276
 1497DOPC   C3A17559  16.323   4.714  13.329 -0.0194  0.1805 -0.0194
 1497DOPC   C4A17560  16.501   4.801  13.785  0.0037 -0.0980 -0.3122
 1497DOPC   C1B17561  16.971   4.254  11.964 -0.0682 -0.0959 -0.0292
 1497DOPC   D2B17562  17.186   4.556  11.710  0.0080  0.2008  0.2022
 1497DOPC   C3B17563  17.024   5.016  11.678 -0.1402 -0.0459  0.1989
 1497DOPC   C4B17564  17.213   5.426  11.659  0.1039 -0.1569  0.1056
 1498DOPS   CNO17565  14.813   0.377  12.143 -0.3337 -0.0165  0.3890
 1498DOPS   PO417566  14.847   0.541  12.458  0.0779 -0.0475 -0.2013
 1498DOPS   GL117567  14.811   0.520  12.878 -0.2429 -0.1981  0.0003
 1498DOPS   GL217568  14.634   0.240  12.827  0.2826  0.1416  0.0671
 1498DOPS   C1A17569  15.117   0.372  13.264  0.2656 -0.1006 -0.0141
 1498DOPS   D2A17570  14.925   0.147  13.599 -0.0070 -0.1736 -0.1239
 1498DOPS   C3A17571  14.951   0.348  14.022 -0.0492 -0.1528 -0.1475
 1498DOPS   C4A17572  14.724   0.096  14.300 -0.2653 -0.0801  0.1058
 1498DOPS   C1B17573  14.822  -0.050  13.147 -0.5219 -0.0238  0.0970
 1498DOPS   D2B17574  14.837  -0.406  13.397 -0.1852 -0.0578  0.1682
 1498DOPS   C3B17575  15.090  -0.511  13.779  0.0039 -0.2735 -0.1708
 1498DOPS   C4B17576  14.980  -0.458  14.230 -0.1358 -0.2395  0.1773
 1499DOPC   NC317577  13.182   4.257  12.075  0.1360 -0.0084 -0.1117
 1499DOPC   PO417578  13.396   4.544  12.290  0.1310  0.2539  0.1577
 1499DOPC   GL117579  13.289   4.359  12.507 -0.1330  0.2163 -0.2544
 1499DOPC   GL217580  13.298   4.165  12.651 -0.0052 -0.1074 -0.1669
 1499DOPC   C1A17581  13.039   4.417  12.957  0.2326 -0.3252 -0.1168
 1499DOPC   D2A17582  12.884   4.634  13.350  0.3249  0.3543 -0.0176
 1499DOPC   C3A17583  13.125   4.829  13.682 -0.2188 -0.0452 -0.0867
 1499DOPC   C4A17584  13.212   5.097  14.039 -0.1468 -0.2228 -0.3343
 1499DOPC   C1B17585  13.525   4.053  13.072 -0.0040 -0.0498 -0.2955
 1499DOPC   D2B17586  13.741   3.807  13.375 -0.2303 -0.1083  0.0157
 1499DOPC   C3B17587  14.019   3.995  13.691 -0.3505 -0.0994 -0.0190
 1499DOPC   C4B17588  13.935   4.158  14.140  0.3691 -0.0422 -0.0262
 1500DOPC   NC317589  16.102   2.827  12.888  0.1984  0.0769 -0.1315
 1500DOPC   PO417590  16.474   2.831  12.844  0.0894 -0.0242  0.1036
 1500DOPC   GL117591  16.473   2.942  13.268 -0.1872 -0.3218  0.1569
 1500DOPC   GL217592  16.292   3.150  13.208  0.2526  0.0845  0.0683
 1500DOPC   C1A17593  16.316   3.049  13.684 -0.0773 -0.0245 -0.0659
 1500DOPC   D2A17594  15.860   3.076  13.793  0.0313 -0.0714 -0.0184
 1500DOPC   C3A17595  15.657   3.505  13.831  0.2624 -0.1721  0.0945
 1500DOPC   C4A17596  15.416   3.783  13.525 -0.3608 -0.0548  0.1391
 1500DOPC   C1B17597  15.833   3.280  13.270  0.0517  0.2456  0.0278
 1500DOPC   D2B17598  15.363   3.417  13.151  0.0682 -0.0966  0.0587
 1500DOPC   C3B17599  15.179   3.161  12.854  0.0759  0.1894 -0.0096
 1500DOPC   C4B17600  15.257   2.991  12.440  0.1094 -0.1154  0.2255
 1501DOPE   NH317601  17.906   3.147  12.272 -0.1188 -0.2353 -0.1032
 1501DOPE   PO417602  17.793   3.042  12.545  0.0695 -0.3496 -0.1825
 1501DOPE   GL117603  17.957   2.803  12.703 -0.1535 -0.0559  0.0719
 1501DOPE   GL217604  17.807   2.526  12.679 -0.0172 -0.0276 -0.1269
 1501DOPE   C1A17605  18.332   2.768  13.042 -0.0049  0.3588  0.2276
 1501DOPE   D2A17606  18.664   2.913  13.337 -0.1027  0.1433  0.0258
 1501DOPE   C3A17607  18.676   2.654  13.705 -0.0892  0.0781  0.1504
 1501DOPE   C4A17608  18.659   2.584  14.188 -0.1226  0.3291  0.0477
 1501DOPE   C1B17609  18.113   2.271  12.933  0.0852 -0.2117  0.1094
 1501DOPE   D2B17610  18.388   2.330  13.301  0.2434 -0.0577  0.0788
 1501DOPE   C3B17611  18.268   2.337  13.755 -0.0575  0.0239  0.1183
 1501DOPE   C4B17612  18.107   2.256  14.208  0.1751 -0.0237  0.0572
 1502DOPC   NC317613  13.387   3.130  12.035 -0.2163  0.0540  0.0148
 1502DOPC   PO417614  13.024   3.339  12.050  0.0795 -0.0182  0.0153
 1502DOPC   GL117615  12.923   2.895  12.127 -0.2852 -0.0530  0.3186
 1502DOPC   GL217616  13.041   2.979  12.408 -0.1644  0.0514  0.2456
 1502DOPC   C1A17617  13.101   2.483  12.036  0.4241 -0.0515  0.3025
 1502DOPC   D2A17618  13.425   2.176  11.917 -0.0832 -0.0131  0.1490
 1502DOPC   C3A17619  13.359   1.724  12.057 -0.0908 -0.2222  0.2945
 1502DOPC   C4A17620  13.491   1.328  12.293 -0.1641  0.0015 -0.0889
 1502DOPC   C1B17621  13.090   2.880  12.831 -0.2656 -0.0168  0.2030
 1502DOPC   D2B17622  13.465   2.991  13.139 -0.0803  0.2304 -0.2021
 1502DOPC   C3B17623  13.716   2.613  13.287 -0.2047  0.3416  0.0960
 1502DOPC   C4B17624  14.044   2.304  13.460  0.1723 -0.0403  0.1216
 1503DOPC   NC317625  18.617  10.671  12.360 -0.0124  0.3560  0.3325
 1503DOPC   PO417626  18.675  11.072  12.290  0.5231 -0.1838  0.0459
 1503DOPC   GL117627  19.000  11.035  12.429 -0.0558 -0.1232  0.1964
 1503DOPC   GL217628  19.133  10.908  12.223  0.3326  0.0757  0.0156
 1503DOPC   C1A17629  19.016  11.226  12.850  0.0342 -0.2831 -0.0015
 1503DOPC   D2A17630  18.743  11.170  13.211 -0.0578 -0.3220  0.0318
 1503DOPC   C3A17631  18.874  10.846  13.504 -0.0398 -0.1830  0.3121
 1503DOPC   C4A17632  18.766  10.388  13.497  0.0662 -0.1234 -0.1253
 1503DOPC   C1B17633  19.441  10.972  12.575 -0.2904 -0.0992  0.0535
 1503DOPC   D2B17634  19.827  11.045  12.930 -0.1394  0.0860 -0.2436
 1503DOPC   C3B17635  19.712  11.090  13.388 -0.1853 -0.0555 -0.1979
 1503DOPC   C4B17636  19.727  10.733  13.703  0.0708  0.0190  0.0718
 1504POSM   NC317637  16.906  10.546  11.914  0.0972 -0.2875 -0.2048
 1504POSM   PO417638  16.504  10.571  11.969 -0.1052  0.1050  0.2043
 1504POSM   AM117639  16.610  10.484  12.294  0.0016  0.0022  0.1558
 1504POSM   AM217640  16.868  10.533  12.414 -0.1433 -0.0780 -0.3551
 1504POSM   T1A17641  16.564  10.288  12.714 -0.1797  0.1690  0.3027
 1504POSM   C2A17642  16.242  10.212  13.050 -0.1394 -0.5462 -0.1559
 1504POSM   C3A17643  16.086  10.253  13.440  0.1138 -0.0427 -0.0002
 1504POSM   C1B17644  16.780  10.728  12.705 -0.1055  0.0158  0.0623
 1504POSM   D2B17645  16.480  10.667  13.069 -0.2052  0.1858  0.0980
 1504POSM   C3B17646  16.333  10.762  13.546  0.4284  0.2887 -0.0706
 1504POSM   C4B17647  15.873  10.721  13.568 -0.1132  0.2853  0.2714
 1505DOPE   NH317648  16.689   3.321  12.947  0.1651 -0.2439 -0.5041
 1505DOPE   PO417649  16.505   3.389  12.678  0.1078 -0.3627 -0.2730
 1505DOPE   GL117650  16.277   3.770  12.567 -0.1184  0.2968 -0.0083
 1505DOPE   GL217651  16.286   3.931  12.830  0.1384  0.2031  0.1101
 1505DOPE   C1A17652  16.192   4.220  12.448  0.3431  0.1539 -0.2215
 1505DOPE   D2A17653  16.397   4.589  12.446  0.2458  0.1090 -0.2168
 1505DOPE   C3A17654  16.149   4.843  12.730 -0.2681 -0.0818 -0.0559
 1505DOPE   C4A17655  15.860   4.741  13.102 -0.1153 -0.1270  0.0820
 1505DOPE   C1B17656  16.675   3.858  13.118  0.4039 -0.4908  0.0654
 1505DOPE   D2B17657  17.031   3.669  13.365 -0.0188  0.2519 -0.1523
 1505DOPE   C3B17658  17.440   3.869  13.104 -0.1002  0.1190 -0.3284
 1505DOPE   C4B17659  17.518   4.171  12.748  0.1447 -0.2355  0.2370
 1506DOPS   CNO17660  16.565   2.675  12.335 -0.1955  0.0673  0.4995
 1506DOPS   PO417661  16.343   2.993  12.379 -0.1614 -0.1675  0.2251
 1506DOPS   GL117662  16.065   3.248  12.506  0.0404 -0.2294  0.0579
 1506DOPS   GL217663  16.052   3.340  12.786  0.1203 -0.1303 -0.1753
 1506DOPS   C1A17664  15.921   3.601  12.318 -0.0222 -0.0955 -0.0255
 1506DOPS   D2A17665  15.748   4.028  12.254  0.0500  0.2861 -0.2192
 1506DOPS   C3A17666  15.493   4.127  12.621 -0.2198  0.1359 -0.3165
 1506DOPS   C4A17667  15.322   4.012  13.080  0.0192  0.2487 -0.0961
 1506DOPS   C1B17668  16.156   3.607  13.138  0.0283 -0.1227 -0.0983
 1506DOPS   D2B17669  15.979   3.972  13.451  0.0886 -0.0256  0.1278
 1506DOPS   C3B17670  15.650   4.233  13.384 -0.1201 -0.3141  0.1007
 1506DOPS   C4B17671  15.305   4.507  13.465 -0.1320  0.0893  0.2381
 1507DOPC   NC317672  15.289  10.324  12.334 -0.5198  0.0261  0.0143
 1507DOPC   PO417673  15.265  10.588  12.040  0.0729  0.4275 -0.0118
 1507DOPC   GL117674  15.544  10.729  12.282 -0.1450 -0.0868 -0.1949
 1507DOPC   GL217675  15.321  10.777  12.537  0.0049  0.1588  0.1265
 1507DOPC   C1A17676  15.807  10.972  12.555  0.0178  0.1387  0.5706
 1507DOPC   D2A17677  15.984  11.266  12.888 -0.1450  0.0651  0.1454
 1507DOPC   C3A17678  15.786  11.697  12.946 -0.0414 -0.0501  0.1747
 1507DOPC   C4A17679  15.854  12.184  12.950 -0.0921  0.1389  0.1194
 1507DOPC   C1B17680  15.113  10.462  12.821 -0.0474  0.0213 -0.1643
 1507DOPC   D2B17681  15.192  10.348  13.259 -0.0742 -0.5514  0.1774
 1507DOPC   C3B17682  15.114  10.812  13.431  0.4756 -0.0078 -0.1232
 1507DOPC   C4B17683  14.993  11.146  13.690 -0.2948 -0.0613 -0.0890
 1508DOPE   NH317684  12.846   3.466  12.568 -0.1371 -0.3596 -0.1667
 1508DOPE   PO417685  12.552   3.644  12.477  0.1710 -0.0299  0.0188
 1508DOPE   GL117686  12.423   3.545  12.879 -0.1633  0.1802 -0.2988
 1508DOPE   GL217687  12.664   3.547  13.058  0.2332 -0.1321  0.2049
 1508DOPE   C1A17688  12.285   3.765  13.241 -0.0484 -0.0311  0.2586
 1508DOPE   D2A17689  12.049   3.837  13.620  0.0306 -0.1959 -0.0532
 1508DOPE   C3A17690  11.629   3.785  13.372  0.2493 -0.0255  0.1117
 1508DOPE   C4A17691  11.303   3.507  13.283  0.2813 -0.3602 -0.3973
 1508DOPE   C1B17692  12.313   3.285  13.322 -0.1780  0.4564  0.2182
 1508DOPE   D2B17693  11.967   2.975  13.409 -0.2697  0.2389  0.1094
 1508DOPE   C3B17694  11.531   2.911  13.330  0.0935  0.0440 -0.2058
 1508DOPE   C4B17695  11.058   3.071  13.309  0.0169  0.1043 -0.0446
 1509DOPE   NH317696  17.744   6.107  11.813  0.1713 -0.0082 -0.0863
 1509DOPE   PO417697  17.510   6.194  11.983 -0.0956  0.0317  0.4614
 1509DOPE   GL117698  17.558   5.833  12.160 -0.1556 -0.3018  0.0494
 1509DOPE   GL217699  17.527   5.802  12.423  0.0047  0.0109 -0.3006
 1509DOPE   C1A17700  17.490   5.348  12.090  0.0765  0.0390  0.0315
 1509DOPE   D2A17701  17.471   4.902  11.867 -0.0060 -0.1544 -0.0447
 1509DOPE   C3A17702  17.666   4.474  11.948 -0.1620 -0.3457 -0.1638
 1509DOPE   C4A17703  17.987   4.177  12.088 -0.2760  0.0902 -0.2688
 1509DOPE   C1B17704  17.360   5.476  12.674 -0.1344 -0.0449  0.1554
 1509DOPE   D2B17705  17.530   5.523  13.093  0.1951 -0.0787 -0.2512
 1509DOPE   C3B17706  17.433   5.771  13.459  0.2012 -0.0436 -0.1750
 1509DOPE   C4B17707  17.183   6.167  13.526 -0.4239 -0.4520  0.0612
 1510POSM   NC317708  20.112   7.567  11.995  0.3118 -0.0882 -0.2069
 1510POSM   PO417709  20.357   7.399  12.268 -0.0217  0.1372  0.1014
 1510POSM   AM117710  20.338   7.387  12.587 -0.0327  0.3296 -0.6453
 1510POSM   AM217711  20.176   7.312  12.848  0.2878 -0.0085 -0.1550
 1510POSM   T1A17712  20.596   7.421  13.067 -0.3389  0.0546  0.1509
 1510POSM   C2A17713  20.510   7.400  13.506  0.0178  0.0968 -0.0540
 1510POSM   C3A17714  20.383   7.011  13.756  0.3094 -0.0132  0.2380
 1510POSM   C1B17715  20.068   7.447  13.159  0.0097  0.1541 -0.1787
 1510POSM   D2B17716  20.047   7.456  13.647  0.1324  0.2502  0.0508
 1510POSM   C3B17717  20.045   7.779  13.924  0.4245  0.3832  0.0992
 1510POSM   C4B17718  20.079   8.010  14.321 -0.0940  0.3707  0.0259
 1511POSM   NC317719  21.158  10.389  11.930 -0.0606  0.0928 -0.3002
 1511POSM   PO417720  20.749  10.345  11.936 -0.0973 -0.0535  0.1326
 1511POSM   AM117721  20.733  10.263  12.267 -0.3600  0.2942  0.2795
 1511POSM   AM217722  20.944  10.354  12.421 -0.0345 -0.3629 -0.0415
 1511POSM   T1A17723  20.654  10.049  12.727  0.1573  0.1812  0.1739
 1511POSM   C2A17724  20.314  10.054  12.997  0.2415  0.0295  0.0727
 1511POSM   C3A17725  20.267   9.788  13.357 -0.0540 -0.0235  0.0618
 1511POSM   C1B17726  20.873  10.545  12.701  0.1225 -0.2508  0.0727
 1511POSM   D2B17727  20.710  10.703  13.115  0.0914 -0.2107 -0.1003
 1511POSM   C3B17728  20.775  10.259  13.225  0.0623  0.2114 -0.0814
 1511POSM   C4B17729  20.748   9.824  13.165  0.2063 -0.1425  0.2033
 1512DOPC   NC317730  11.737   3.581  12.339 -0.2566 -0.0533  0.2865
 1512DOPC   PO417731  12.079   3.569  12.116 -0.3805 -0.0477 -0.2366
 1512DOPC   GL117732  12.007   3.930  12.230 -0.1282  0.4760 -0.0887
 1512DOPC   GL217733  12.088   3.882  12.552  0.0396  0.1061 -0.2457
 1512DOPC   C1A17734  12.016   4.388  12.356 -0.6129  0.0871 -0.0003
 1512DOPC   D2A17735  11.948   4.783  12.609  0.3089 -0.0709  0.0014
 1512DOPC   C3A17736  12.044   4.681  13.062  0.0686 -0.3703 -0.0525
 1512DOPC   C4A17737  12.347   4.486  13.378 -0.2054  0.0687  0.2316
 1512DOPC   C1B17738  12.209   4.214  12.845 -0.1001  0.0372 -0.1696
 1512DOPC   D2B17739  12.555   4.527  12.962 -0.0731 -0.2535  0.1137
 1512DOPC   C3B17740  12.393   4.948  12.766 -0.0237 -0.3454  0.0938
 1512DOPC   C4B17741  12.166   5.235  12.458  0.1962  0.4066 -0.2222
 1513DOPC   NC317742  15.675  10.261  11.906  0.1110 -0.2328 -0.0096
 1513DOPC   PO417743  15.935  10.434  12.108 -0.3135  0.3385 -0.1283
 1513DOPC   GL117744  15.740  10.356  12.513 -0.0025  0.0107  0.1342
 1513DOPC   GL217745  15.942  10.453  12.705  0.5993  0.1244 -0.2284
 1513DOPC   C1A17746  15.464  10.044  12.743 -0.0788 -0.1094 -0.0909
 1513DOPC   D2A17747  15.412   9.703  13.050  0.0482 -0.1489  0.0336
 1513DOPC   C3A17748  15.165   9.390  13.335  0.2273  0.0281 -0.1064
 1513DOPC   C4A17749  14.952   9.382  13.754 -0.0757 -0.0955 -0.0220
 1513DOPC   C1B17750  15.694  10.355  13.122  0.1220 -0.4351  0.1079
 1513DOPC   D2B17751  15.660  10.084  13.538  0.1785 -0.2393 -0.1004
 1513DOPC   C3B17752  15.704   9.633  13.584 -0.1199 -0.0836  0.0888
 1513DOPC   C4B17753  15.462   9.209  13.711 -0.1241 -0.0923  0.0102
 1514DOPC   NC317754  17.450   7.254  12.650 -0.0715  0.0617 -0.0336
 1514DOPC   PO417755  17.680   7.046  12.413  0.1902  0.0024 -0.0067
 1514DOPC   GL117756  17.860   6.868  12.627  0.1171 -0.0034  0.1537
 1514DOPC   GL217757  17.914   7.037  12.833 -0.1103  0.2414  0.0722
 1514DOPC   C1A17758  17.940   6.497  12.855 -0.0454  0.0902 -0.1175
 1514DOPC   D2A17759  18.093   6.252  13.199  0.0892  0.0291  0.1695
 1514DOPC   C3A17760  18.556   6.108  13.283  0.0540 -0.3169 -0.0668
 1514DOPC   C4A17761  18.914   6.381  13.336  0.2411 -0.0097 -0.4289
 1514DOPC   C1B17762  17.967   6.818  13.231  0.0206 -0.3308  0.0904
 1514DOPC   D2B17763  17.906   6.620  13.666 -0.2595 -0.2286  0.2076
 1514DOPC   C3B17764  18.260   6.546  13.918  0.3492 -0.2662  0.2667
 1514DOPC   C4B17765  18.722   6.561  13.917  0.3484  0.0295  0.1598
 1515POSM   NC317766  13.581   3.384  11.635  0.0043  0.0185  0.1309
 1515POSM   PO417767  13.960   3.477  11.749  0.0495  0.1916  0.0135
 1515POSM   AM117768  14.128   3.213  11.884 -0.1753  0.0993 -0.3015
 1515POSM   AM217769  14.331   3.186  12.085  0.2398 -0.0411 -0.1688
 1515POSM   T1A17770  14.388   2.783  11.809  0.2060 -0.3489 -0.2221
 1515POSM   C2A17771  14.617   2.505  12.121  0.2098 -0.0916 -0.2229
 1515POSM   C3A17772  14.655   2.078  12.207 -0.1404 -0.0447  0.0670
 1515POSM   C1B17773  14.410   2.960  12.406 -0.0725 -0.0311 -0.1884
 1515POSM   D2B17774  14.441   2.567  12.590  0.0525  0.0356  0.1313
 1515POSM   C3B17775  14.149   2.237  12.591 -0.0492  0.2071 -0.1991
 1515POSM   C4B17776  13.767   2.217  12.899 -0.2328  0.2650 -0.1711
 1516DOPC   NC317777  13.711   9.944  11.953 -0.1414  0.1496  0.3467
 1516DOPC   PO417778  13.334  10.122  11.970  0.0996  0.0305  0.0754
 1516DOPC   GL117779  13.247   9.813  12.244 -0.0709  0.1885 -0.2829
 1516DOPC   GL217780  13.367   9.967  12.554  0.2114 -0.0315 -0.0151
 1516DOPC   C1A17781  13.148   9.510  12.605 -0.1952  0.0526  0.2684
 1516DOPC   D2A17782  13.250   9.609  13.067  0.3369 -0.0929 -0.1578
 1516DOPC   C3A17783  13.223   9.182  13.261 -0.2262 -0.0894  0.2981
 1516DOPC   C4A17784  13.022   8.977  13.651 -0.0937 -0.0438  0.1438
 1516DOPC   C1B17785  13.519  10.032  12.940 -0.0455 -0.0681 -0.1932
 1516DOPC   D2B17786  13.499   9.985  13.390 -0.0262  0.1709  0.0647
 1516DOPC   C3B17787  13.370  10.296  13.614  0.2793 -0.1952 -0.0074
 1516DOPC   C4B17788  13.035  10.609  13.774 -0.4238 -0.0823  0.1291
 1517POSM   NC317789  22.052   5.195  12.418  0.0695  0.0177  0.3200
 1517POSM   PO417790  22.326   4.896  12.377 -0.2456 -0.3286 -0.0242
 1517POSM   AM117791  22.438   4.925  12.686  0.3771  0.1431  0.0150
 1517POSM   AM217792  22.336   5.109  12.887 -0.0588  0.2976 -0.0490
 1517POSM   T1A17793  22.381   4.744  13.142 -0.1671  0.3133 -0.2072
 1517POSM   C2A17794  22.406   4.887  13.578  0.0602  0.0606  0.1298
 1517POSM   C3A17795  22.739   4.952  13.894 -0.3292 -0.0881 -0.1387
 1517POSM   C1B17796  22.127   5.414  12.968  0.0871 -0.0788  0.2220
 1517POSM   D2B17797  21.796   5.566  13.155  0.0682 -0.0134 -0.0932
 1517POSM   C3B17798  21.525   5.169  13.258 -0.2505  0.1652  0.0323
 1517POSM   C4B17799  21.212   4.898  13.534  0.0002 -0.0476 -0.2234
 1518DOPS   CNO17800  20.388   1.673  12.262  0.2490 -0.2545 -0.2939
 1518DOPS   PO417801  20.609   1.456  12.497 -0.1066 -0.1870 -0.0652
 1518DOPS   GL117802  20.529   1.792  12.755 -0.1428  0.0381  0.1010
 1518DOPS   GL217803  20.329   1.678  12.941 -0.0246 -0.1303  0.0665
 1518DOPS   C1A17804  20.621   2.222  12.947 -0.2660  0.0447 -0.1790
 1518DOPS   D2A17805  21.020   2.347  13.127 -0.2052  0.0682  0.0707
 1518DOPS   C3A17806  21.236   2.340  13.519  0.0538 -0.1907  0.0804
 1518DOPS   C4A17807  21.426   2.515  13.904 -0.2071  0.2309  0.2090
 1518DOPS   C1B17808  20.629   1.776  13.210  0.0777  0.3352  0.3139
 1518DOPS   D2B17809  20.616   2.161  13.479 -0.1952 -0.1009  0.0963
 1518DOPS   C3B17810  20.406   2.131  13.889 -0.4261 -0.0813 -0.1317
 1518DOPS   C4B17811  20.065   2.331  14.111 -0.1216 -0.0493  0.1805
 1519DOPC   NC317812  16.500   6.361  12.059  0.0356 -0.2363  0.2303
 1519DOPC   PO417813  16.586   6.774  12.026  0.2755  0.1127  0.0312
 1519DOPC   GL117814  16.910   6.463  11.815 -0.0274  0.2163 -0.2224
 1519DOPC   GL217815  17.003   6.311  12.096 -0.0079 -0.0759  0.0647
 1519DOPC   C1A17816  16.882   5.990  11.736  0.3375 -0.2361  0.1306
 1519DOPC   D2A17817  16.689   5.625  11.944 -0.2033  0.1417  0.0420
 1519DOPC   C3A17818  16.251   5.459  11.996  0.0189  0.1204  0.1714
 1519DOPC   C4A17819  16.095   5.020  12.167  0.0198  0.2321  0.2876
 1519DOPC   C1B17820  16.980   5.898  12.210  0.1278  0.0477 -0.1271
 1519DOPC   D2B17821  17.012   5.457  12.316 -0.1270 -0.0708  0.0228
 1519DOPC   C3B17822  17.255   5.023  12.411 -0.1846  0.0235  0.5470
 1519DOPC   C4B17823  17.645   4.710  12.477 -0.2263  0.2734  0.2271
 1520DOPS   CNO17824  11.351  10.303  12.153 -0.0424 -0.1226  0.1090
 1520DOPS   PO417825  11.435  10.157  12.465 -0.0829 -0.3296  0.1154
 1520DOPS   GL117826  11.616  10.177  12.834 -0.0358 -0.0890  0.1067
 1520DOPS   GL217827  11.733  10.441  12.972  0.2349 -0.1653  0.0484
 1520DOPS   C1A17828  11.468  10.055  13.266 -0.1792  0.0569  0.0135
 1520DOPS   D2A17829  11.592   9.730  13.563 -0.1530 -0.2366 -0.2219
 1520DOPS   C3A17830  11.843   9.910  13.925  0.0009 -0.2402  0.0501
 1520DOPS   C4A17831  12.078  10.306  13.926  0.1156  0.4410 -0.1321
 1520DOPS   C1B17832  12.017  10.046  13.141  0.1218  0.2176 -0.1292
 1520DOPS   D2B17833  12.198   9.793  13.473  0.0069  0.0752 -0.0059
 1520DOPS   C3B17834  12.255   9.341  13.537  0.1799 -0.1624  0.1924
 1520DOPS   C4B17835  12.531   9.129  13.812 -0.0377 -0.2015  0.1184
 1521DOPE   NH317836  15.439   8.213  12.202  0.3364 -0.3765 -0.2854
 1521DOPE   PO417837  15.232   8.438  12.087 -0.0019 -0.1197 -0.3778
 1521DOPE   GL117838  15.469   8.758  12.256  0.0552  0.0405 -0.0872
 1521DOPE   GL217839  15.363   8.714  12.503 -0.3412  0.0570 -0.2239
 1521DOPE   C1A17840  15.380   9.174  12.418 -0.1440 -0.0329 -0.2309
 1521DOPE   D2A17841  15.303   9.155  12.884  0.3874 -0.1668  0.0070
 1521DOPE   C3A17842  15.636   9.238  13.206  0.1172  0.0496  0.0134
 1521DOPE   C4A17843  16.041   9.279  13.436 -0.1765 -0.1123  0.3048
 1521DOPE   C1B17844  15.704   8.510  12.621  0.1848 -0.1094  0.0297
 1521DOPE   D2B17845  15.989   8.391  12.275  0.1578  0.0242  0.1367
 1521DOPE   C3B17846  16.354   8.710  12.235  0.2062 -0.1296 -0.1786
 1521DOPE   C4B17847  16.675   9.022  12.448  0.0508 -0.1028 -0.0077
 1522DOPE   NH317848  22.891   3.256  12.266 -0.2008  0.1771 -0.0694
 1522DOPE   PO417849  22.754   3.272  12.567 -0.1618  0.0896 -0.4679
 1522DOPE   GL117850  22.686   3.032  12.888 -0.3132 -0.0443  0.4174
 1522DOPE   GL217851  22.451   2.959  12.761 -0.1103  0.0656  0.1487
 1522DOPE   C1A17852  22.819   2.919  13.326 -0.0469 -0.1319  0.1398
 1522DOPE   D2A17853  22.654   2.999  13.793 -0.0328 -0.1223 -0.2361
 1522DOPE   C3A17854  22.759   3.263  14.118  0.1112  0.0314 -0.4081
 1522DOPE   C4A17855  22.762   3.717  14.325 -0.0430 -0.0801  0.0565
 1522DOPE   C1B17856  22.763   2.621  12.942 -0.0362 -0.1050  0.2166
 1522DOPE   D2B17857  22.748   2.241  13.260  0.2618 -0.0899 -0.0118
 1522DOPE   C3B17858  22.947   2.388  13.671 -0.0093 -0.0948 -0.0353
 1522DOPE   C4B17859  23.315   2.588  13.488  0.1618  0.1030 -0.1764
 1523DOPE   NH317860  18.305   3.149  12.516 -0.0795 -0.0578  0.0485
 1523DOPE   PO417861  18.383   3.310  12.228  0.0449  0.2951  0.3836
 1523DOPE   GL117862  18.582   3.573  12.483 -0.0762  0.4751 -0.1581
 1523DOPE   GL217863  18.899   3.518  12.502  0.1167 -0.1201 -0.2432
 1523DOPE   C1A17864  18.659   3.956  12.737  0.1583 -0.0412  0.0244
 1523DOPE   D2A17865  18.318   4.157  13.047  0.1831  0.2295 -0.0379
 1523DOPE   C3A17866  18.298   4.351  13.502  0.1275  0.0002 -0.0464
 1523DOPE   C4A17867  18.181   4.255  13.920 -0.0298 -0.0356 -0.0607
 1523DOPE   C1B17868  19.021   3.688  12.950 -0.0567 -0.3649  0.0357
 1523DOPE   D2B17869  18.959   3.769  13.359  0.0634 -0.0757 -0.2893
 1523DOPE   C3B17870  19.004   3.426  13.610  0.1024 -0.0117 -0.1717
 1523DOPE   C4B17871  18.727   3.133  13.905  0.3845  0.1932  0.3700
 1524DOPC   NC317872  16.633   1.243  12.803  0.1076 -0.1715  0.1834
 1524DOPC   PO417873  16.524   1.591  12.637  0.2453  0.0100  0.1551
 1524DOPC   GL117874  16.971   1.629  12.634 -0.2800 -0.1317 -0.2216
 1524DOPC   GL217875  17.067   1.366  12.535 -0.0624  0.2322  0.0568
 1524DOPC   C1A17876  17.292   1.705  12.937 -0.2583  0.0929 -0.0708
 1524DOPC   D2A17877  17.436   1.742  13.409  0.0571  0.0568 -0.2937
 1524DOPC   C3A17878  17.868   1.891  13.512 -0.1811 -0.0148 -0.0814
 1524DOPC   C4A17879  18.034   1.599  13.824  0.2965  0.0957  0.1440
 1524DOPC   C1B17880  17.104   1.135  12.934  0.0028 -0.1945  0.1470
 1524DOPC   D2B17881  16.955   1.094  13.363  0.0962 -0.0504  0.0345
 1524DOPC   C3B17882  16.991   1.027  13.779  0.0646  0.1987  0.2573
 1524DOPC   C4B17883  17.128   0.798  14.173 -0.1398 -0.0013  0.2425
 1525DOPS   CNO17884  23.300   7.175  11.949  0.1098 -0.0199 -0.1611
 1525DOPS   PO417885  23.205   7.360  12.276  0.1425  0.1119  0.1226
 1525DOPS   GL117886  22.909   7.410  12.477 -0.1206  0.3037  0.2192
 1525DOPS   GL217887  22.768   7.576  12.582  0.0428 -0.6287  0.3197
 1525DOPS   C1A17888  22.565   7.165  12.731 -0.0758  0.2185 -0.2426
 1525DOPS   D2A17889  22.236   7.309  13.018  0.2626 -0.2122 -0.3734
 1525DOPS   C3A17890  22.184   7.230  13.486  0.0884  0.0376  0.2756
 1525DOPS   C4A17891  21.839   7.519  13.631  0.1695 -0.0877 -0.1256
 1525DOPS   C1B17892  22.912   7.518  13.033 -0.1373 -0.1919 -0.0354
 1525DOPS   D2B17893  22.635   7.556  13.384 -0.0243 -0.1370  0.3576
 1525DOPS   C3B17894  22.663   7.765  13.828 -0.0722 -0.2331  0.1479
 1525DOPS   C4B17895  22.682   8.051  14.230  0.3796 -0.0678 -0.0403
 1526DOPS   CNO17896  19.636  10.064  12.272  0.0393  0.0996  0.0442
 1526DOPS   PO417897  19.537   9.715  12.284 -0.0154  0.0887 -0.0348
 1526DOPS   GL117898  19.331   9.764  12.570 -0.1547  0.4135 -0.0511
 1526DOPS   GL217899  19.335  10.037  12.664  0.1372 -0.1066 -0.1482
 1526DOPS   C1A17900  19.368   9.694  13.066  0.2086 -0.0114  0.2018
 1526DOPS   D2A17901  19.663   9.788  13.394 -0.0326 -0.0264  0.2396
 1526DOPS   C3A17902  19.605   9.515  13.733  0.4637  0.2212  0.1102
 1526DOPS   C4A17903  19.972   9.529  14.062  0.3250  0.0914  0.0961
 1526DOPS   C1B17904  18.927   9.789  12.804 -0.0348  0.1145  0.1352
 1526DOPS   D2B17905  18.743   9.360  12.829  0.1680  0.0576 -0.0586
 1526DOPS   C3B17906  18.556   9.207  13.226 -0.0612 -0.5127  0.0353
 1526DOPS   C4B17907  18.554   9.501  13.557 -0.2132  0.1747  0.0328
 1527DOPC   NC317908  19.015   9.607  12.316 -0.0067  0.2257 -0.0751
 1527DOPC   PO417909  18.757   9.796  12.128  0.0180  0.1164  0.0206
 1527DOPC   GL117910  18.404   9.851  12.298 -0.0819  0.4878 -0.0263
 1527DOPC   GL217911  18.275   9.751  11.945 -0.1665  0.0170  0.1714
 1527DOPC   C1A17912  18.342   9.670  12.726 -0.1102 -0.0651  0.1304
 1527DOPC   D2A17913  18.366   9.797  13.144  0.4190  0.1043 -0.0140
 1527DOPC   C3A17914  18.070   9.730  13.445  0.3552 -0.2210 -0.5174
 1527DOPC   C4A17915  17.678   9.940  13.506 -0.1206  0.1033  0.0476
 1527DOPC   C1B17916  18.275   9.423  12.261  0.2586 -0.1909 -0.2686
 1527DOPC   D2B17917  18.295   9.091  12.594 -0.1927 -0.0119 -0.1638
 1527DOPC   C3B17918  17.884   8.846  12.741  0.1899 -0.1725  0.1414
 1527DOPC   C4B17919  17.667   8.437  12.811 -0.0727 -0.2192 -0.0308
 1528DOPS   CNO17920  13.763   3.976  11.701  0.1719  0.0268  0.2671
 1528DOPS   PO417921  14.009   3.945  12.009 -0.1127  0.1399  0.4310
 1528DOPS   GL117922  14.036   3.903  12.492  0.1661 -0.5979 -0.4089
 1528DOPS   GL217923  14.278   3.847  12.604 -0.0386 -0.1504 -0.4286
 1528DOPS   C1A17924  14.041   4.109  12.932  0.3263 -0.3892 -0.4659
 1528DOPS   D2A17925  13.861   4.300  13.325 -0.1512  0.0280  0.1146
 1528DOPS   C3A17926  13.683   4.397  13.751 -0.0409  0.0030 -0.1366
 1528DOPS   C4A17927  13.406   4.636  14.047 -0.3861 -0.1324  0.2793
 1528DOPS   C1B17928  14.618   3.905  12.912  0.1804  0.1669 -0.1827
 1528DOPS   D2B17929  14.880   3.633  13.072  0.3123  0.0330  0.0601
 1528DOPS   C3B17930  14.918   3.278  13.346 -0.4519 -0.1259  0.3845
 1528DOPS   C4B17931  14.769   3.231  13.804 -0.2142  0.0348  0.0222
 1529DOPS   CNO17932  15.946   6.698  11.923 -0.1526 -0.2239 -0.0374
 1529DOPS   PO417933  15.709   6.722  12.191  0.1379  0.1362  0.0744
 1529DOPS   GL117934  15.637   6.594  12.564 -0.0809  0.0385  0.4702
 1529DOPS   GL217935  15.427   6.836  12.610  0.0324  0.0216 -0.2076
 1529DOPS   C1A17936  15.580   6.268  12.897  0.3527 -0.1462 -0.4345
 1529DOPS   D2A17937  15.771   5.913  13.113 -0.2293 -0.2196  0.0707
 1529DOPS   C3A17938  15.769   5.971  13.570  0.4465 -0.0355 -0.1923
 1529DOPS   C4A17939  16.109   6.016  13.807 -0.0568  0.2341 -0.1534
 1529DOPS   C1B17940  15.212   6.592  12.909 -0.0547 -0.1288  0.1735
 1529DOPS   D2B17941  14.933   6.484  13.206 -0.1598  0.0173  0.0330
 1529DOPS   C3B17942  14.972   6.615  13.674  0.0986 -0.0163 -0.1455
 1529DOPS   C4B17943  14.794   6.618  14.092  0.1742 -0.0058 -0.0935
 1530DOPC   NC317944  12.643   7.686  12.199 -0.1482 -0.2353  0.0611
 1530DOPC   PO417945  12.724   7.291  12.041  0.3218 -0.2885  0.1091
 1530DOPC   GL117946  13.076   7.299  12.307 -0.4931 -0.1387  0.3144
 1530DOPC   GL217947  13.005   7.365  12.602  0.0231  0.0626 -0.2171
 1530DOPC   C1A17948  13.502   7.492  12.293 -0.2301  0.1749 -0.0878
 1530DOPC   D2A17949  13.678   7.686  12.634  0.0260 -0.0738 -0.1198
 1530DOPC   C3A17950  13.536   7.796  13.049 -0.1335  0.0013  0.0083
 1530DOPC   C4A17951  13.584   7.943  13.457  0.1575 -0.0456 -0.0197
 1530DOPC   C1B17952  13.171   7.828  12.617  0.2722  0.5393  0.0225
 1530DOPC   D2B17953  13.418   8.229  12.419 -0.3614  0.1114  0.0282
 1530DOPC   C3B17954  13.361   8.621  12.694  0.1738 -0.4626  0.1893
 1530DOPC   C4B17955  13.273   8.729  13.129  0.1242 -0.1576 -0.3920
 1531DOPE   NH317956  22.296   0.478  12.396 -0.1246  0.3432  0.2600
 1531DOPE   PO417957  22.052   0.520  12.530  0.1405 -0.0104  0.3737
 1531DOPE   GL117958  21.988   0.446  12.883  0.0636  0.4992 -0.0324
 1531DOPE   GL217959  21.714   0.577  12.928  0.3428 -0.1218  0.0797
 1531DOPE   C1A17960  21.806   0.132  13.158 -0.1054 -0.2382 -0.2642
 1531DOPE   D2A17961  21.693   0.115  13.608 -0.0324  0.1017  0.1569
 1531DOPE   C3A17962  21.950   0.330  13.955  0.2621 -0.0084 -0.1350
 1531DOPE   C4A17963  21.898   0.143  14.358 -0.1280 -0.1676  0.0180
 1531DOPE   C1B17964  21.884   0.548  13.363 -0.1984  0.0329  0.1527
 1531DOPE   D2B17965  22.124   0.731  13.668  0.1884  0.2072 -0.2134
 1531DOPE   C3B17966  22.122   0.849  14.085  0.1385 -0.0432  0.1024
 1531DOPE   C4B17967  21.852   0.667  14.398  0.0994 -0.1509  0.1864
 1532DOPE   NH317968  11.249  11.109  11.998  0.0783 -0.1900 -0.1560
 1532DOPE   PO417969  11.198  10.841  12.179 -0.0419  0.0040  0.0751
 1532DOPE   GL117970  11.205  11.100  12.567 -0.2639  0.2399 -0.0974
 1532DOPE   GL217971  11.489  11.117  12.593 -0.1947 -0.0853 -0.1331
 1532DOPE   C1A17972  11.136  11.401  12.936  0.1978  0.1458  0.0919
 1532DOPE   D2A17973  10.927  11.487  13.332 -0.0353 -0.2050 -0.2123
 1532DOPE   C3A17974  11.270  11.539  13.709 -0.1339  0.0113  0.0288
 1532DOPE   C4A17975  11.576  11.273  13.869  0.2452 -0.2326  0.2809
 1532DOPE   C1B17976  11.336  10.925  12.958  0.1306  0.0971 -0.0072
 1532DOPE   D2B17977  11.690  10.835  13.289  0.1166  0.0850  0.2622
 1532DOPE   C3B17978  11.884  10.918  13.688  0.0950 -0.0758 -0.4144
 1532DOPE   C4B17979  12.079  10.863  14.092 -0.0976  0.2011  0.0237
 1533POSM   NC317980  17.397   2.425  12.416  0.2442  0.2832  0.1771
 1533POSM   PO417981  17.321   2.731  12.636 -0.1510 -0.0989 -0.1033
 1533POSM   AM117982  17.491   2.794  12.905  0.0689 -0.0192 -0.0152
 1533POSM   AM217983  17.632   3.025  13.016  0.1962  0.0433  0.1052
 1533POSM   T1A17984  17.474   2.707  13.422 -0.3753  0.0794 -0.2202
 1533POSM   C2A17985  17.397   2.639  13.850 -0.0431 -0.2105  0.0477
 1533POSM   C3A17986  17.638   2.561  14.306 -0.3479  0.2402  0.1554
 1533POSM   C1B17987  17.868   2.888  13.157 -0.0811 -0.0953 -0.2357
 1533POSM   D2B17988  18.050   2.760  13.540  0.2050 -0.0881  0.2296
 1533POSM   C3B17989  17.819   2.898  13.842  0.0263 -0.0038 -0.0846
 1533POSM   C4B17990  17.558   3.047  14.196  0.2803 -0.0414  0.1277
 1534DOPS   CNO17991  21.211   9.926  11.912  0.2264  0.0651  0.0970
 1534DOPS   PO417992  20.819   9.853  11.937 -0.1399 -0.4226  0.0908
 1534DOPS   GL117993  20.841   9.739  12.211 -0.2634 -0.0988 -0.0281
 1534DOPS   GL217994  21.051   9.859  12.411 -0.1906 -0.2980 -0.0919
 1534DOPS   C1A17995  20.702   9.555  12.627 -0.0113 -0.1809  0.2455
 1534DOPS   D2A17996  20.334   9.370  12.868  0.1708 -0.2954 -0.2704
 1534DOPS   C3A17997  20.300   9.232  13.378  0.0537 -0.1884 -0.3078
 1534DOPS   C4A17998  19.901   9.153  13.701  0.0005  0.4419  0.1253
 1534DOPS   C1B17999  21.322   9.627  12.738  0.1208  0.0449 -0.1047
 1534DOPS   D2B18000  21.275   9.231  12.963 -0.2460  0.2340 -0.2922
 1534DOPS   C3B18001  21.137   9.122  13.448 -0.0936 -0.0630 -0.1728
 1534DOPS   C4B18002  21.389   9.057  13.876  0.0682  0.1314  0.0621
 1535DOPC   NC318003  19.637   2.097  12.793  0.0923 -0.1153 -0.1742
 1535DOPC   PO418004  19.386   2.326  12.621  0.1464 -0.1341 -0.0184
 1535DOPC   GL118005  19.075   2.240  12.734  0.2070 -0.0975  0.2641
 1535DOPC   GL218006  18.948   2.088  12.489 -0.1061 -0.3964  0.1488
 1535DOPC   C1A18007  19.017   2.163  13.183  0.2680  0.4172  0.1722
 1535DOPC   D2A18008  19.125   2.277  13.619  0.1999  0.2318  0.1984
 1535DOPC   C3A18009  19.509   2.482  13.638  0.1773  0.0605 -0.0435
 1535DOPC   C4A18010  19.718   2.796  13.923 -0.2251 -0.3525  0.0866
 1535DOPC   C1B18011  18.678   1.865  12.832  0.3330  0.1777  0.2524
 1535DOPC   D2B18012  18.312   1.873  13.153  0.1642 -0.3444  0.1668
 1535DOPC   C3B18013  18.423   1.903  13.665  0.1856  0.0999  0.3589
 1535DOPC   C4B18014  18.752   2.128  13.938  0.1100  0.1017  0.0607
 1536DOPE   NH318015  12.208   3.319  12.524 -0.1604  0.0677 -0.2785
 1536DOPE   PO418016  11.958   3.349  12.731 -0.1257 -0.1279 -0.1633
 1536DOPE   GL118017  12.030   2.936  12.865 -0.1224 -0.3243 -0.0302
 1536DOPE   GL218018  12.213   2.806  12.676  0.1718  0.0398  0.2909
 1536DOPE   C1A18019  12.317   2.648  13.131 -0.2117  0.0579 -0.3203
 1536DOPE   D2A18020  12.469   2.236  13.309  0.1323 -0.2244  0.1604
 1536DOPE   C3A18021  12.074   2.091  13.550  0.2372 -0.2911 -0.0024
 1536DOPE   C4A18022  11.614   1.969  13.527  0.0569 -0.4319  0.2988
 1536DOPE   C1B18023  11.917   2.446  12.811  0.1408  0.0078 -0.0050
 1536DOPE   D2B18024  11.695   2.484  13.188  0.1792  0.2990  0.0214
 1536DOPE   C3B18025  11.767   2.531  13.639 -0.2442 -0.3096  0.0192
 1536DOPE   C4B18026  11.851   2.225  13.944 -0.1128  0.1978  0.1389
 1537DOPS   CNO18027  17.373   3.089  12.227  0.1623 -0.0979  0.0862
 1537DOPS   PO418028  17.572   2.832  12.081 -0.3463 -0.2294  0.2113
 1537DOPS   GL118029  17.828   2.494  12.245  0.2788  0.0850 -0.1646
 1537DOPS   GL218030  18.053   2.678  12.207 -0.1246  0.0348 -0.1066
 1537DOPS   C1A18031  17.854   2.088  12.467  0.0635 -0.1901 -0.0472
 1537DOPS   D2A18032  18.190   1.868  12.671 -0.0286 -0.0553  0.1202
 1537DOPS   C3A18033  18.261   1.441  12.894 -0.2972 -0.0404  0.0043
 1537DOPS   C4A18034  18.764   1.348  12.935  0.0831 -0.0806 -0.3060
 1537DOPS   C1B18035  18.321   2.543  12.559 -0.1649  0.0253  0.0610
 1537DOPS   D2B18036  18.665   2.404  12.886  0.3268 -0.0219 -0.0230
 1537DOPS   C3B18037  18.958   2.720  13.036 -0.3349 -0.0577 -0.0145
 1537DOPS   C4B18038  19.181   2.791  13.369  0.4128 -0.1498  0.2167
 1538DOPS   CNO18039  19.557   7.376  12.077  0.1856  0.2248 -0.0646
 1538DOPS   PO418040  19.621   7.755  11.965  0.0069  0.3002 -0.1008
 1538DOPS   GL118041  19.857   8.104  11.999 -0.1950  0.3110  0.1433
 1538DOPS   GL218042  19.918   8.113  12.352  0.0730  0.0154 -0.1225
 1538DOPS   C1A18043  20.264   8.314  11.981  0.1187 -0.1809 -0.2059
 1538DOPS   D2A18044  20.737   8.481  11.933 -0.0315  0.0016  0.0370
 1538DOPS   C3A18045  20.934   8.622  12.342  0.2174  0.0335 -0.2956
 1538DOPS   C4A18046  21.234   8.646  12.661 -0.0958 -0.1578 -0.1577
 1538DOPS   C1B18047  20.224   8.429  12.559  0.0126 -0.0015 -0.2050
 1538DOPS   D2B18048  20.646   8.426  12.758  0.0859 -0.1599 -0.0338
 1538DOPS   C3B18049  21.027   8.125  12.849 -0.1744  0.0433 -0.0135
 1538DOPS   C4B18050  21.272   7.760  12.987 -0.0641  0.1542 -0.0693
 1539DOPE   NH318051  10.851  10.201  12.501 -0.0525 -0.2244 -0.1922
 1539DOPE   PO418052  11.014  10.491  12.533  0.4872 -0.0346 -0.2027
 1539DOPE   GL118053  11.170  10.397  12.924  0.5529  0.3020  0.2548
 1539DOPE   GL218054  11.090  10.130  12.951  0.0659 -0.0360 -0.0220
 1539DOPE   C1A18055  11.234  10.472  13.370  0.0918 -0.0482 -0.1007
 1539DOPE   D2A18056  11.410  10.764  13.680  0.0481 -0.0542 -0.2041
 1539DOPE   C3A18057  11.218  10.910  14.116  0.0128 -0.0007 -0.0936
 1539DOPE   C4A18058  10.778  10.931  14.350  0.1431  0.0846  0.1827
 1539DOPE   C1B18059  10.909  10.040  13.318 -0.2800 -0.3259  0.4960
 1539DOPE   D2B18060  10.998   9.927  13.769 -0.0595 -0.0392 -0.4070
 1539DOPE   C3B18061  11.399  10.125  13.824  0.0662  0.1248 -0.1414
 1539DOPE   C4B18062  11.701  10.381  13.607 -0.2344 -0.0322  0.0327
 1540DOPE   NH318063  16.166   6.632  12.426 -0.0766 -0.1423 -0.1315
 1540DOPE   PO418064  16.050   6.365  12.434  0.1050  0.0280  0.1192
 1540DOPE   GL118065  16.368   6.139  12.574  0.1680  0.0801  0.5676
 1540DOPE   GL218066  16.367   5.907  12.367  0.0328 -0.2882  0.2729
 1540DOPE   C1A18067  16.503   5.917  12.942  0.0119 -0.2228  0.1195
 1540DOPE   D2A18068  16.274   5.721  13.250  0.1045  0.1696 -0.0639
 1540DOPE   C3A18069  16.576   5.841  13.560  0.1088  0.1657  0.4504
 1540DOPE   C4A18070  16.963   5.687  13.714 -0.0648 -0.1944 -0.0970
 1540DOPE   C1B18071  16.182   5.597  12.645  0.3603  0.2101  0.0267
 1540DOPE   D2B18072  15.920   5.235  12.524  0.1555  0.0971 -0.2790
 1540DOPE   C3B18073  15.608   5.019  12.779 -0.2646  0.2603  0.1108
 1540DOPE   C4B18074  15.342   4.582  12.707 -0.1650 -0.1816  0.0449
 1541POSM   NC318075  22.946   0.995  12.342  0.3054  0.0047  0.1654
 1541POSM   PO418076  22.799   0.611  12.435 -0.0548  0.2592 -0.2496
 1541POSM   AM118077  22.731   0.704  12.758 -0.0452  0.2877 -0.2099
 1541POSM   AM218078  22.469   0.712  12.887  0.0319  0.0655  0.0556
 1541POSM   T1A18079  22.848   0.882  13.238  0.0370  0.0019 -0.1274
 1541POSM   C2A18080  22.672   0.751  13.598  0.1490  0.1407  0.0041
 1541POSM   C3A18081  22.607   0.594  13.997  0.1650  0.0813 -0.1223
 1541POSM   C1B18082  22.375   0.580  13.174 -0.0196 -0.3545  0.0430
 1541POSM   D2B18083  22.411   0.322  13.538  0.0979 -0.2549  0.1460
 1541POSM   C3B18084  22.824   0.103  13.637 -0.2819  0.0771 -0.1463
 1541POSM   C4B18085  23.157   0.338  13.858  0.1150 -0.2950  0.1853
 1542DOPC   NC318086  20.653   4.292  12.263  0.0800  0.0945  0.1695
 1542DOPC   PO418087  20.676   4.047  12.572  0.1067 -0.0499 -0.2545
 1542DOPC   GL118088  20.389   4.232  12.716  0.1948 -0.0384  0.6064
 1542DOPC   GL218089  20.059   4.232  12.750 -0.0068 -0.0383 -0.0991
 1542DOPC   C1A18090  20.260   4.176  13.208 -0.2341  0.0208  0.2924
 1542DOPC   D2A18091  19.865   4.110  13.500 -0.1252 -0.1451  0.0061
 1542DOPC   C3A18092  19.669   4.526  13.541  0.0277  0.2380 -0.0305
 1542DOPC   C4A18093  19.666   4.827  13.869  0.2963  0.2245  0.0121
 1542DOPC   C1B18094  19.924   3.898  12.983 -0.0899 -0.1905 -0.0730
 1542DOPC   D2B18095  19.576   3.728  13.125  0.1559 -0.0246  0.0805
 1542DOPC   C3B18096  19.457   3.724  13.563  0.3460 -0.0635  0.1713
 1542DOPC   C4B18097  19.260   3.682  13.947  0.0440  0.0392 -0.0808
 1543DOPC   NC318098  14.259   4.922  12.288 -0.1074  0.0535  0.0910
 1543DOPC   PO418099  14.394   5.252  12.183  0.0865  0.0739 -0.0346
 1543DOPC   GL118100  14.720   5.206  12.383  0.0610 -0.1026  0.1866
 1543DOPC   GL218101  14.892   5.087  12.174  0.1110  0.3153 -0.0185
 1543DOPC   C1A18102  14.788   5.192  12.830 -0.2989  0.1113 -0.1616
 1543DOPC   D2A18103  14.668   5.085  13.241  0.0658 -0.0962 -0.1558
 1543DOPC   C3A18104  15.068   5.013  13.554 -0.1606  0.0687 -0.1842
 1543DOPC   C4A18105  15.084   4.690  13.872  0.2238 -0.0019 -0.3770
 1543DOPC   C1B18106  15.198   5.498  12.146  0.2508  0.0984  0.2355
 1543DOPC   D2B18107  15.421   5.799  12.359 -0.0897  0.0300  0.1362
 1543DOPC   C3B18108  15.716   5.781  12.654 -0.1622 -0.2475  0.0862
 1543DOPC   C4B18109  15.916   5.462  13.010  0.0922 -0.1775 -0.3668
 1544DOPE   NH318110  19.981  10.276  11.927  0.1528  0.0580  0.3362
 1544DOPE   PO418111  20.260  10.498  11.941  0.0531  0.2439  0.1767
 1544DOPE   GL118112  20.233  10.538  12.283  0.2979 -0.0626  0.4862
 1544DOPE   GL218113  20.498  10.587  12.420 -0.0474 -0.0647 -0.0286
 1544DOPE   C1A18114  20.039  10.944  12.459 -0.0075  0.0874  0.1094
 1544DOPE   D2A18115  20.080  11.380  12.422 -0.0142 -0.0423 -0.1196
 1544DOPE   C3A18116  20.126  11.783  12.660 -0.0237 -0.0060  0.2313
 1544DOPE   C4A18117  20.291  11.939  13.013 -0.0443 -0.1332  0.2173
 1544DOPE   C1B18118  20.247  10.573  12.822 -0.3738 -0.0457  0.0653
 1544DOPE   D2B18119  20.269  10.965  13.125 -0.3490  0.1147  0.0417
 1544DOPE   C3B18120  20.267  10.851  13.545  0.2081  0.2806 -0.3010
 1544DOPE   C4B18121  20.087  10.903  13.970  0.0547  0.1107  0.2632
 1545POSM   NC318122  22.511  10.517  11.404 -0.1603  0.1772 -0.0572
 1545POSM   PO418123  22.417  10.432  11.772 -0.1400  0.0591  0.1377
 1545POSM   AM118124  22.138  10.599  11.860  0.1108  0.0681 -0.0247
 1545POSM   AM218125  22.063  10.835  12.005 -0.2495 -0.1311  0.2580
 1545POSM   T1A18126  21.722  10.450  12.161 -0.3301  0.0951  0.2826
 1545POSM   C2A18127  21.415  10.309  12.453 -0.0981 -0.2028 -0.0646
 1545POSM   C3A18128  21.309  10.120  12.883  0.0232  0.2840 -0.3136
 1545POSM   C1B18129  21.997  10.809  12.350  0.1937 -0.2802  0.2533
 1545POSM   D2B18130  22.092  10.743  12.835 -0.0965  0.0162 -0.3064
 1545POSM   C3B18131  21.787  10.919  13.098  0.1457 -0.1257  0.3925
 1545POSM   C4B18132  21.620  10.809  13.516  0.0818 -0.2571  0.1663
 1546DOPE   NH318133  17.985   5.706  11.987 -0.1398  0.3086 -0.5193
 1546DOPE   PO418134  18.203   5.898  12.128 -0.0605 -0.2136  0.4374
 1546DOPE   GL118135  18.196   5.643  12.418  0.0410 -0.3614  0.1888
 1546DOPE   GL218136  18.382   5.578  12.572  0.0468  0.3706 -0.0695
 1546DOPE   C1A18137  17.875   5.577  12.753  0.2026  0.3811  0.1002
 1546DOPE   D2A18138  17.829   5.877  13.053 -0.0379  0.1678  0.3396
 1546DOPE   C3A18139  17.576   6.267  13.191  0.0406  0.1436 -0.2701
 1546DOPE   C4A18140  17.411   6.650  13.435 -0.0447  0.4515 -0.0587
 1546DOPE   C1B18141  18.287   5.704  13.062 -0.0490 -0.2913  0.0496
 1546DOPE   D2B18142  18.231   5.709  13.554 -0.0495  0.1747 -0.0692
 1546DOPE   C3B18143  17.932   6.009  13.600 -0.2900 -0.2573  0.3654
 1546DOPE   C4B18144  17.608   6.294  13.808 -0.1390  0.2570  0.0933
 1547DOPC   NC318145  19.425   5.242  12.082  0.1375  0.0181 -0.0519
 1547DOPC   PO418146  19.123   5.477  12.219  0.0368 -0.0538  0.1156
 1547DOPC   GL118147  19.338   5.364  12.521  0.2748  0.1793  0.0909
 1547DOPC   GL218148  19.193   5.280  12.839  0.0144  0.1849 -0.3109
 1547DOPC   C1A18149  19.633   5.696  12.679 -0.3830  0.0203 -0.2615
 1547DOPC   D2A18150  19.568   6.050  13.002  0.0390 -0.0416 -0.0506
 1547DOPC   C3A18151  19.762   5.921  13.423  0.3275 -0.0018 -0.1352
 1547DOPC   C4A18152  20.019   5.863  13.823 -0.2085  0.2360  0.3292
 1547DOPC   C1B18153  18.961   5.131  13.237 -0.2318 -0.1523 -0.0228
 1547DOPC   D2B18154  18.728   4.836  13.437 -0.2961 -0.0629  0.1151
 1547DOPC   C3B18155  18.471   4.748  13.755 -0.1647  0.0877 -0.0865
 1547DOPC   C4B18156  18.076   4.719  13.885  0.4377 -0.0258  0.0875
 1548DOPS   CNO18157  14.841   0.952  12.038 -0.1748 -0.0442  0.1404
 1548DOPS   PO418158  14.521   0.991  12.199  0.1744  0.1387 -0.0215
 1548DOPS   GL118159  14.122   0.985  12.249  0.1805  0.0037  0.0607
 1548DOPS   GL218160  13.954   1.270  12.270 -0.0807  0.0447 -0.1478
 1548DOPS   C1A18161  13.724   0.820  11.965 -0.1560 -0.1145  0.0101
 1548DOPS   D2A18162  13.233   0.887  11.981 -0.1723  0.1664  0.0967
 1548DOPS   C3A18163  12.946   0.968  12.316 -0.3244  0.2104  0.5152
 1548DOPS   C4A18164  12.502   1.164  12.435 -0.3348 -0.3597 -0.3181
 1548DOPS   C1B18165  13.977   1.120  12.690  0.2753  0.1578  0.0154
 1548DOPS   D2B18166  14.117   0.861  13.036 -0.0361 -0.0437  0.0448
 1548DOPS   C3B18167  13.793   0.847  13.403  0.1158 -0.1897  0.0310
 1548DOPS   C4B18168  13.597   0.791  13.815 -0.0167 -0.0719  0.2110
 1549DOPE   NH318169  15.083   8.892  11.957 -0.0353 -0.1994  0.0516
 1549DOPE   PO418170  14.877   9.121  11.993  0.0079 -0.1273  0.3017
 1549DOPE   GL118171  14.884   9.122  12.416  0.2215 -0.1109  0.3721
 1549DOPE   GL218172  14.842   8.851  12.408 -0.3207 -0.0859 -0.0298
 1549DOPE   C1A18173  14.473   9.091  12.716  0.0570  0.2691 -0.0515
 1549DOPE   D2A18174  14.187   8.829  12.913 -0.2639  0.2850 -0.0098
 1549DOPE   C3A18175  14.531   8.597  13.168  0.0178  0.0026 -0.1580
 1549DOPE   C4A18176  14.841   8.284  13.118 -0.1094  0.0379 -0.0456
 1549DOPE   C1B18177  14.855   8.718  12.861 -0.1522 -0.2937  0.2568
 1549DOPE   D2B18178  15.002   8.855  13.303 -0.2289  0.2096 -0.3206
 1549DOPE   C3B18179  15.410   8.816  13.379 -0.2819 -0.1633  0.0185
 1549DOPE   C4B18180  15.844   8.656  13.197  0.1187 -0.1301  0.0091
 1550DOPE   NH318181  13.900   4.690  12.008 -0.0599  0.1007  0.0600
 1550DOPE   PO418182  14.112   4.473  12.137  0.3222 -0.1009 -0.3012
 1550DOPE   GL118183  14.254   4.276  12.363  0.0562  0.0298  0.0700
 1550DOPE   GL218184  14.281   4.439  12.607 -0.1706  0.1027 -0.1247
 1550DOPE   C1A18185  14.710   4.225  12.487  0.1062 -0.1184 -0.0027
 1550DOPE   D2A18186  14.993   4.215  12.777  0.2013 -0.2846 -0.2706
 1550DOPE   C3A18187  14.929   4.224  13.234  0.1536  0.1923 -0.1405
 1550DOPE   C4A18188  14.780   4.587  13.468 -0.1931  0.0619 -0.3006
 1550DOPE   C1B18189  14.497   4.430  13.013 -0.1816 -0.2311  0.2526
 1550DOPE   D2B18190  14.433   4.121  13.332 -0.2552  0.0357  0.2192
 1550DOPE   C3B18191  14.198   3.790  13.250  0.1672  0.0264 -0.0275
 1550DOPE   C4B18192  13.957   3.619  12.911  0.2642  0.2181  0.1060
 1551DOPS   CNO18193  22.831  10.850  11.776 -0.0921  0.0303  0.0751
 1551DOPS   PO418194  22.665  10.755  12.120  0.1640 -0.2067 -0.2590
 1551DOPS   GL118195  22.507  10.809  12.506  0.3846  0.0573  0.2077
 1551DOPS   GL218196  22.734  10.975  12.628  0.3115  0.1102 -0.3151
 1551DOPS   C1A18197  22.348  11.268  12.487 -0.1480 -0.1339  0.0767
 1551DOPS   D2A18198  22.219  11.583  12.816 -0.0436  0.2639  0.2786
 1551DOPS   C3A18199  22.509  11.927  13.084 -0.2851 -0.1493 -0.1704
 1551DOPS   C4A18200  22.511  12.325  13.384 -0.0576  0.2305  0.0471
 1551DOPS   C1B18201  22.457  11.186  12.943 -0.4224 -0.0931  0.1044
 1551DOPS   D2B18202  22.130  11.348  13.230  0.1605  0.4948  0.2147
 1551DOPS   C3B18203  21.986  11.836  13.286 -0.0634  0.2242 -0.0253
 1551DOPS   C4B18204  22.052  12.249  13.169 -0.1340  0.0422 -0.2294
 1552DOPE   NH318205  23.096   3.636  12.687  0.2180 -0.1020 -0.2690
 1552DOPE   PO418206  23.316   3.480  12.462 -0.0829 -0.3922  0.0128
 1552DOPE   GL118207  23.326   3.244  12.819  0.0496  0.0569 -0.2695
 1552DOPE   GL218208  23.129   3.018  12.871  0.1677 -0.2573  0.2292
 1552DOPE   C1A18209  23.180   3.264  13.258  0.1395  0.1418 -0.2480
 1552DOPE   D2A18210  22.874   3.399  13.621  0.0747 -0.0085  0.1905
 1552DOPE   C3A18211  22.402   3.471  13.704  0.2332 -0.0314 -0.1419
 1552DOPE   C4A18212  22.014   3.685  13.808 -0.0484  0.0419 -0.2180
 1552DOPE   C1B18213  23.495   2.854  13.137  0.1928 -0.2559  0.2630
 1552DOPE   D2B18214  23.737   2.523  12.949 -0.0185  0.0036 -0.5008
 1552DOPE   C3B18215  23.573   2.083  12.862 -0.0665 -0.1652 -0.1159
 1552DOPE   C4B18216  23.269   1.727  12.936  0.0699 -0.0050 -0.0589
 1553DOPS   CNO18217  16.987  34.257  11.916  0.2925  0.0767  0.2972
 1553DOPS   PO418218  17.063  34.619  12.043 -0.0891  0.3067  0.0339
 1553DOPS   GL118219  17.268  34.843  12.330  0.3650  0.4774 -0.0332
 1553DOPS   GL218220  17.389  34.695  12.584  0.2369 -0.0024 -0.0739
 1553DOPS   C1A18221  17.025  35.190  12.533  0.4235  0.3075 -0.1032
 1553DOPS   D2A18222  16.683  35.505  12.510 -0.3619  0.0069 -0.2386
 1553DOPS   C3A18223  16.615  35.498  13.019  0.0663 -0.0777 -0.1818
 1553DOPS   C4A18224  16.676  35.224  13.416  0.0118 -0.0963 -0.0460
 1553DOPS   C1B18225  17.441  34.959  12.985  0.2188  0.3448  0.0732
 1553DOPS   D2B18226  17.499  34.737  13.418 -0.0990 -0.3734 -0.0823
 1553DOPS   C3B18227  17.567  35.027  13.826  0.0507 -0.1826  0.0864
 1553DOPS   C4B18228  17.788  35.192  14.169  0.3761  0.1442  0.3456
 1554DOPS   CNO18229  22.497   1.004  12.134  0.0185  0.3165  0.0330
 1554DOPS   PO418230  22.487   1.052  12.500  0.1521  0.0864 -0.0519
 1554DOPS   GL118231  22.661   1.128  12.762 -0.0322 -0.0943  0.1199
 1554DOPS   GL218232  22.441   1.187  12.964 -0.0750 -0.1276 -0.1034
 1554DOPS   C1A18233  23.117   1.165  12.917  0.3219  0.2118 -0.0571
 1554DOPS   D2A18234  23.389   1.111  13.238 -0.0792  0.0469 -0.2243
 1554DOPS   C3A18235  23.247   0.841  13.585  0.2961  0.2686 -0.1296
 1554DOPS   C4A18236  23.481   0.775  14.006  0.1184  0.1530  0.0502
 1554DOPS   C1B18237  22.485   1.201  13.417 -0.1930  0.0934 -0.1458
 1554DOPS   D2B18238  22.507   1.098  13.900 -0.1255 -0.2315 -0.2578
 1554DOPS   C3B18239  22.121   1.350  13.931  0.1636 -0.1073 -0.0821
 1554DOPS   C4B18240  21.774   1.690  14.023 -0.3551 -0.0247 -0.2417
 1555DOPC   NC318241  16.083   1.465  13.009 -0.0763 -0.0865 -0.2703
 1555DOPC   PO418242  15.961   1.685  12.724 -0.2397 -0.1116  0.0945
 1555DOPC   GL118243  15.743   1.776  13.028 -0.1648  0.1835  0.0856
 1555DOPC   GL218244  15.982   1.920  13.187 -0.1361  0.2520  0.0470
 1555DOPC   C1A18245  15.372   1.710  13.328  0.3372 -0.0694 -0.2334
 1555DOPC   D2A18246  15.119   1.390  13.224 -0.3049  0.1002  0.0569
 1555DOPC   C3A18247  14.939   1.129  13.603 -0.0818  0.0740  0.1219
 1555DOPC   C4A18248  14.820   0.699  13.707 -0.1112 -0.0004 -0.4089
 1555DOPC   C1B18249  15.875   1.619  13.453 -0.0261  0.1323  0.0599
 1555DOPC   D2B18250  15.741   1.203  13.473 -0.0739  0.0869 -0.3830
 1555DOPC   C3B18251  16.022   1.259  13.749  0.1883  0.1404 -0.1564
 1555DOPC   C4B18252  16.220   1.151  14.086 -0.0849 -0.1267  0.2496
 1556DOPC   NC318253  22.840   7.490  12.020  0.3308 -0.0512 -0.2881
 1556DOPC   PO418254  22.673   7.562  11.707  0.1592  0.0043  0.1335
 1556DOPC   GL118255  22.348   7.503  11.939  0.4774  0.0701 -0.0121
 1556DOPC   GL218256  22.403   7.564  12.222  0.0869 -0.1222 -0.0522
 1556DOPC   C1A18257  21.878   7.504  11.982  0.1482  0.2166  0.2721
 1556DOPC   D2A18258  21.450   7.308  12.066  0.0768 -0.2325 -0.2340
 1556DOPC   C3A18259  21.081   7.514  12.252  0.0732 -0.1948  0.2514
 1556DOPC   C4A18260  20.886   7.503  12.658 -0.1571 -0.3559  0.4668
 1556DOPC   C1B18261  22.095   7.290  12.446 -0.1178  0.1794  0.3000
 1556DOPC   D2B18262  21.805   7.038  12.699  0.2666  0.2652 -0.1690
 1556DOPC   C3B18263  21.624   7.163  13.094  0.1283 -0.1076 -0.0847
 1556DOPC   C4B18264  21.326   7.343  13.407 -0.0153  0.1563  0.2564
 1557DOPE   NH318265  17.290   3.583  12.183  0.2373  0.2856 -0.2747
 1557DOPE   PO418266  17.562   3.603  12.353 -0.1679 -0.0313 -0.1265
 1557DOPE   GL118267  17.854   3.438  12.671  0.1688 -0.3423  0.3335
 1557DOPE   GL218268  18.088   3.568  12.584  0.1848 -0.3324  0.1168
 1557DOPE   C1A18269  18.107   3.271  13.034  0.1069 -0.1113  0.3255
 1557DOPE   D2A18270  18.280   3.192  13.459  0.0711 -0.0320  0.1283
 1557DOPE   C3A18271  18.520   3.534  13.738 -0.0638 -0.1101  0.1286
 1557DOPE   C4A18272  18.798   3.720  14.081  0.2327  0.1769 -0.4207
 1557DOPE   C1B18273  17.930   3.873  12.917  0.1089  0.1552 -0.0120
 1557DOPE   D2B18274  17.838   4.121  13.325  0.2946 -0.2478  0.3967
 1557DOPE   C3B18275  17.370   4.090  13.553  0.3485 -0.1840 -0.2532
 1557DOPE   C4B18276  16.914   4.153  13.496 -0.0501  0.1372  0.1068
 1558DOPC   NC318277  20.573  10.851  11.975  0.3773  0.0583 -0.2365
 1558DOPC   PO418278  20.936  10.801  12.066  0.0520 -0.2026  0.2021
 1558DOPC   GL118279  20.993  10.955  12.475  0.1165  0.0067 -0.6698
 1558DOPC   GL218280  21.277  10.852  12.547 -0.1106  0.2238  0.0634
 1558DOPC   C1A18281  20.999  11.220  12.883 -0.1343 -0.2424  0.0230
 1558DOPC   D2A18282  20.857  11.504  13.212 -0.3328  0.0118  0.1878
 1558DOPC   C3A18283  20.626  11.824  13.385 -0.0262 -0.1502 -0.1550
 1558DOPC   C4A18284  20.824  12.147  13.653 -0.0818  0.0734  0.0718
 1558DOPC   C1B18285  21.608  10.597  12.776  0.0732  0.0497  0.0850
 1558DOPC   D2B18286  21.699  10.403  13.216  0.0474 -0.2388  0.2282
 1558DOPC   C3B18287  21.629   9.963  13.294 -0.1104 -0.2397  0.1260
 1558DOPC   C4B18288  21.297   9.684  13.349 -0.0318  0.0930  0.0877
 1559POSM   NC318289  16.915   2.535  12.699 -0.1673 -0.0956 -0.0239
 1559POSM   PO418290  16.957   2.787  12.990  0.2391  0.1030  0.0654
 1559POSM   AM118291  17.110   2.478  13.088  0.1452 -0.2067  0.2469
 1559POSM   AM218292  17.140   2.215  12.983  0.1046  0.0201 -0.0975
 1559POSM   T1A18293  17.158   2.261  13.524 -0.2278 -0.0856  0.3248
 1559POSM   C2A18294  17.102   2.205  13.941 -0.2900 -0.2098 -0.0695
 1559POSM   C3A18295  17.201   2.225  14.419  0.2957 -0.0673  0.0612
 1559POSM   C1B18296  17.501   2.219  13.055 -0.1793  0.2322 -0.0510
 1559POSM   D2B18297  17.877   2.351  13.323 -0.1593 -0.1540 -0.0964
 1559POSM   C3B18298  17.772   2.348  13.779 -0.1234 -0.0319 -0.0164
 1559POSM   C4B18299  17.625   2.110  14.126  0.4589  0.3691  0.0128
 1560DOPC   NC318300  15.427   7.452  11.575  0.4493 -0.1100 -0.0143
 1560DOPC   PO418301  15.175   7.637  11.834 -0.0680 -0.0644 -0.0279
 1560DOPC   GL118302  14.923   7.631  12.131  0.2224  0.1542  0.1290
 1560DOPC   GL218303  14.904   8.006  12.127 -0.2535 -0.4281 -0.1049
 1560DOPC   C1A18304  14.579   7.403  12.378  0.1174 -0.2491 -0.0485
 1560DOPC   D2A18305  14.407   6.952  12.507  0.0599  0.2217 -0.0302
 1560DOPC   C3A18306  14.155   6.610  12.201  0.0514 -0.0362 -0.3145
 1560DOPC   C4A18307  14.106   6.330  11.837  0.2283  0.1173  0.1157
 1560DOPC   C1B18308  14.570   7.870  12.360  0.0102 -0.0334  0.1180
 1560DOPC   D2B18309  14.100   7.823  12.439 -0.2000 -0.2869 -0.0038
 1560DOPC   C3B18310  14.085   7.873  12.893 -0.2793 -0.0373 -0.0411
 1560DOPC   C4B18311  14.094   7.874  13.328 -0.3360  0.2858 -0.1865
 1561DOPC   NC318312  17.277   7.743  11.969 -0.0168  0.0343 -0.2058
 1561DOPC   PO418313  17.253   7.679  12.335  0.0830 -0.1943  0.0202
 1561DOPC   GL118314  17.022   7.959  12.502  0.1826  0.0359  0.1093
 1561DOPC   GL218315  17.100   7.812  12.768  0.2476 -0.3040  0.1751
 1561DOPC   C1A18316  17.128   8.376  12.697  0.1206  0.0146 -0.0396
 1561DOPC   D2A18317  17.273   8.790  12.844 -0.2298  0.0933  0.1774
 1561DOPC   C3A18318  17.537   8.881  13.281 -0.2105  0.0658  0.0186
 1561DOPC   C4A18319  17.656   8.810  13.753 -0.0441 -0.1908 -0.0492
 1561DOPC   C1B18320  17.527   7.965  12.881  0.0103  0.2874  0.1200
 1561DOPC   D2B18321  17.998   8.106  12.872 -0.0404  0.1264 -0.2538
 1561DOPC   C3B18322  18.178   7.992  12.465 -0.2559  0.1189  0.2541
 1561DOPC   C4B18323  18.594   8.151  12.433  0.4077 -0.1797  0.0417
 1562DOPE   NH318324  14.789   9.691  12.010 -0.1485  0.0500  0.4190
 1562DOPE   PO418325  14.656   9.531  12.295 -0.0286 -0.0877  0.1710
 1562DOPE   GL118326  14.675   9.726  12.604  0.2022 -0.2748  0.0867
 1562DOPE   GL218327  14.442   9.667  12.745  0.0129 -0.1084  0.0601
 1562DOPE   C1A18328  14.799   9.479  12.994 -0.1114  0.1378 -0.1204
 1562DOPE   D2A18329  14.643   9.327  13.397 -0.0101 -0.2634 -0.0946
 1562DOPE   C3A18330  14.445   9.670  13.617  0.0515 -0.0283 -0.2833
 1562DOPE   C4A18331  14.603  10.042  13.886  0.1676 -0.3751  0.2527
 1562DOPE   C1B18332  14.287   9.525  13.135 -0.0328  0.1782  0.0077
 1562DOPE   D2B18333  14.107   9.271  13.487  0.2111 -0.2874  0.3257
 1562DOPE   C3B18334  14.100   8.769  13.532 -0.1706 -0.4676 -0.0681
 1562DOPE   C4B18335  14.077   8.357  13.318  0.1293 -0.1245  0.1676
 1563DOPE   NH318336  13.864  10.624  11.552  0.0695 -0.0345 -0.0214
 1563DOPE   PO418337  13.847  10.452  11.859  0.1017 -0.0754 -0.0637
 1563DOPE   GL118338  13.741  10.628  12.259  0.2858 -0.1110 -0.2149
 1563DOPE   GL218339  13.410  10.500  12.361  0.2327  0.2909  0.0577
 1563DOPE   C1A18340  13.835  10.521  12.710  0.1086  0.2067  0.1136
 1563DOPE   D2A18341  13.611  10.576  13.146 -0.0316  0.0773 -0.0438
 1563DOPE   C3A18342  13.893  10.397  13.550  0.3221  0.2189 -0.2129
 1563DOPE   C4A18343  13.956  10.057  13.800  0.2706  0.1554 -0.1365
 1563DOPE   C1B18344  13.261  10.417  12.796 -0.1799 -0.1360  0.5008
 1563DOPE   D2B18345  12.848  10.565  12.872 -0.3753 -0.4599 -0.1326
 1563DOPE   C3B18346  12.756  11.023  12.963  0.1420  0.0299  0.2335
 1563DOPE   C4B18347  12.815  11.436  12.945 -0.0070  0.1488 -0.0086
 1564DOPC   NC318348  10.738   6.923  12.410 -0.2711 -0.1607 -0.0834
 1564DOPC   PO418349  10.761   6.895  12.809  0.1193 -0.2078  0.0520
 1564DOPC   GL118350  10.921   6.897  13.158  0.2637  0.1217  0.0341
 1564DOPC   GL218351  10.754   6.726  13.319 -0.1119 -0.0488 -0.0723
 1564DOPC   C1A18352  11.321   6.765  13.344 -0.3535 -0.0040 -0.3384
 1564DOPC   D2A18353  11.693   6.683  13.620 -0.0066 -0.0702  0.0693
 1564DOPC   C3A18354  11.930   6.795  14.029  0.1716 -0.3547  0.0681
 1564DOPC   C4A18355  12.084   7.023  14.340 -0.1624  0.0881  0.0870
 1564DOPC   C1B18356  10.603   6.311  13.264  0.1930 -0.0921 -0.0904
 1564DOPC   D2B18357  10.546   5.868  13.372 -0.0814 -0.0404  0.0971
 1564DOPC   C3B18358  10.834   5.543  13.472 -0.3283  0.0509 -0.0154
 1564DOPC   C4B18359  11.281   5.548  13.407  0.0748 -0.2561  0.0943
 1565DOPE   NH318360  22.915   6.945  12.332  0.1637 -0.2095  0.0080
 1565DOPE   PO418361  22.799   6.967  12.030 -0.0270  0.0831 -0.2772
 1565DOPE   GL118362  22.405   7.051  12.204 -0.1857 -0.2742  0.0510
 1565DOPE   GL218363  22.295   7.010  11.900 -0.3193 -0.4353 -0.2340
 1565DOPE   C1A18364  22.119   6.745  12.418 -0.1802  0.1910 -0.2383
 1565DOPE   D2A18365  21.861   6.392  12.574 -0.0258  0.1364  0.1642
 1565DOPE   C3A18366  21.705   6.573  12.880 -0.0842  0.1574  0.2874
 1565DOPE   C4A18367  21.962   6.809  13.145 -0.0289 -0.0897 -0.0078
 1565DOPE   C1B18368  21.860   6.980  12.002  0.0179 -0.2315 -0.1339
 1565DOPE   D2B18369  21.637   6.616  12.036 -0.0718 -0.0244  0.2207
 1565DOPE   C3B18370  21.403   6.697  12.428  0.1522  0.2738  0.2578
 1565DOPE   C4B18371  21.165   6.546  12.781 -0.1254  0.0695 -0.0261
 1566DOPS   CNO18372  17.944  10.460  11.830 -0.2907  0.0047  0.1852
 1566DOPS   PO418373  17.986  10.450  12.220  0.1321 -0.0432  0.1385
 1566DOPS   GL118374  18.264  10.428  12.529  0.1385  0.4214  0.0015
 1566DOPS   GL218375  18.246  10.603  12.816 -0.2011  0.2700 -0.0103
 1566DOPS   C1A18376  18.137  10.101  12.828 -0.0274 -0.3571 -0.1418
 1566DOPS   D2A18377  17.839   9.727  12.995 -0.0988 -0.1494  0.2202
 1566DOPS   C3A18378  17.617   9.510  13.349  0.1477 -0.1544  0.0395
 1566DOPS   C4A18379  17.601   9.517  13.784 -0.4302  0.2202  0.0706
 1566DOPS   C1B18380  18.281  10.720  13.286 -0.1252 -0.0744  0.2236
 1566DOPS   D2B18381  18.158  10.635  13.721 -0.0240 -0.1639  0.0499
 1566DOPS   C3B18382  18.560  10.525  14.007  0.0421 -0.2123  0.1414
 1566DOPS   C4B18383  18.957  10.654  14.001  0.1382  0.0361  0.2065
 1567DOPC   NC318384  14.874  10.275  12.041 -0.2208  0.0098  0.1797
 1567DOPC   PO418385  14.810  10.080  12.395 -0.0349  0.2648 -0.0512
 1567DOPC   GL118386  14.672  10.204  12.672  0.0816 -0.2054  0.0482
 1567DOPC   GL218387  14.408  10.171  12.752  0.1274  0.0226 -0.4576
 1567DOPC   C1A18388  14.952   9.934  13.000  0.3314  0.1809  0.1430
 1567DOPC   D2A18389  14.896   9.850  13.417 -0.1329 -0.1825  0.2221
 1567DOPC   C3A18390  15.226   9.782  13.719 -0.0870 -0.3986  0.0715
 1567DOPC   C4A18391  15.386   9.534  14.039  0.1635 -0.0023  0.1613
 1567DOPC   C1B18392  14.561  10.203  13.208 -0.2401  0.0246 -0.3522
 1567DOPC   D2B18393  14.341  10.374  13.615  0.1811 -0.0532 -0.0431
 1567DOPC   C3B18394  14.109  10.801  13.663 -0.1410 -0.0988  0.2915
 1567DOPC   C4B18395  14.190  11.127  13.979 -0.2585 -0.1662 -0.0731
 1568POSM   NC318396  19.432   6.869  12.250  0.2525 -0.1041  0.2135
 1568POSM   PO418397  19.447   7.066  12.558 -0.3075 -0.2252  0.4087
 1568POSM   AM118398  19.614   6.973  12.818 -0.2871  0.2374  0.1535
 1568POSM   AM218399  19.853   6.782  12.911 -0.0185  0.2331 -0.0887
 1568POSM   T1A18400  19.741   7.099  13.274 -0.0416 -0.0396  0.1955
 1568POSM   C2A18401  19.559   7.289  13.663  0.0113 -0.2652 -0.1187
 1568POSM   C3A18402  19.606   7.627  14.020 -0.0023  0.1668  0.2476
 1568POSM   C1B18403  20.179   6.875  12.940 -0.0825 -0.1360  0.1016
 1568POSM   D2B18404  20.543   6.936  13.206  0.0076 -0.0076  0.3095
 1568POSM   C3B18405  20.735   6.548  13.140  0.0720  0.2071 -0.0722
 1568POSM   C4B18406  20.761   6.143  13.371 -0.0970  0.3175  0.0674
 1569DOPC   NC318407  12.474   6.962  12.402  0.0429  0.4596  0.1028
 1569DOPC   PO418408  12.740   6.743  12.278 -0.2639  0.0848  0.1186
 1569DOPC   GL118409  12.912   6.794  12.564  0.3758  0.4082 -0.1635
 1569DOPC   GL218410  12.742   6.579  12.720 -0.0027 -0.2400  0.1399
 1569DOPC   C1A18411  12.704   7.036  12.879 -0.1588 -0.1458 -0.2294
 1569DOPC   D2A18412  12.561   7.139  13.262  0.1062  0.1806  0.0757
 1569DOPC   C3A18413  12.659   6.778  13.496 -0.2530 -0.0992 -0.1597
 1569DOPC   C4A18414  12.495   6.393  13.574  0.0511 -0.0027 -0.3070
 1569DOPC   C1B18415  12.582   6.206  12.990 -0.0933 -0.0017  0.0349
 1569DOPC   D2B18416  12.679   5.915  13.249  0.0272  0.0262  0.0809
 1569DOPC   C3B18417  12.842   5.971  13.667  0.0390 -0.0856 -0.0677
 1569DOPC   C4B18418  13.006   5.547  13.902 -0.0652  0.2148  0.2671
 1570POSM   NC318419  16.306   7.862  11.936 -0.0953  0.2410  0.0196
 1570POSM   PO418420  16.259   7.631  12.273  0.2180  0.2592  0.0261
 1570POSM   AM118421  16.338   7.782  12.573  0.1714 -0.2197  0.3572
 1570POSM   AM218422  16.491   8.047  12.625  0.1920 -0.0574 -0.0654
 1570POSM   T1A18423  16.262   7.837  13.044 -0.3274 -0.0152  0.3866
 1570POSM   C2A18424  15.972   7.673  13.383  0.3606  0.0407  0.2497
 1570POSM   C3A18425  15.553   7.372  13.397 -0.3000 -0.0014 -0.1313
 1570POSM   C1B18426  16.655   8.163  12.941  0.1416 -0.3244 -0.3277
 1570POSM   D2B18427  16.925   8.303  13.309  0.0335 -0.2219  0.2398
 1570POSM   C3B18428  17.338   8.347  13.181 -0.1345 -0.3168 -0.1441
 1570POSM   C4B18429  17.726   8.443  13.395  0.2595  0.2839  0.2734
 1571DOPE   NH318430  14.007   5.612  12.166 -0.0638  0.0377 -0.4219
 1571DOPE   PO418431  13.840   5.835  12.385 -0.0231  0.3151 -0.2178
 1571DOPE   GL118432  14.142   6.128  12.578 -0.2556 -0.3350 -0.0149
 1571DOPE   GL218433  14.327   5.840  12.695  0.0932 -0.3006 -0.1326
 1571DOPE   C1A18434  14.123   6.332  12.997 -0.1142  0.2022 -0.1504
 1571DOPE   D2A18435  14.005   6.580  13.404 -0.0376 -0.0499 -0.0484
 1571DOPE   C3A18436  13.640   6.481  13.686 -0.1473  0.2255  0.0553
 1571DOPE   C4A18437  13.361   6.779  13.959  0.2368 -0.1841  0.4753
 1571DOPE   C1B18438  14.431   5.968  13.116  0.3051 -0.0705 -0.0640
 1571DOPE   D2B18439  14.471   6.318  13.423  0.3890  0.0549 -0.2426
 1571DOPE   C3B18440  14.487   6.744  13.575 -0.1083 -0.1990  0.0831
 1571DOPE   C4B18441  14.521   6.946  13.959 -0.0127  0.0683 -0.0598
 1572DOPE   NH318442  19.926   7.079  12.421  0.1847 -0.1226 -0.1082
 1572DOPE   PO418443  19.937   6.844  12.205  0.0973  0.0196  0.2271
 1572DOPE   GL118444  20.195   6.709  12.524 -0.0558 -0.1271  0.0836
 1572DOPE   GL218445  20.437   6.940  12.448 -0.1826  0.1618  0.0487
 1572DOPE   C1A18446  20.576   6.455  12.625 -0.0625  0.0092  0.0795
 1572DOPE   D2A18447  20.708   6.110  12.842  0.2823  0.0859  0.0289
 1572DOPE   C3A18448  20.986   5.790  12.946  0.0786  0.2651  0.0175
 1572DOPE   C4A18449  21.248   5.647  13.322 -0.1081 -0.0040 -0.1936
 1572DOPE   C1B18450  20.745   7.010  12.718  0.2824  0.0249 -0.0969
 1572DOPE   D2B18451  21.158   7.079  12.915 -0.3252  0.2196  0.0646
 1572DOPE   C3B18452  21.195   6.779  13.255 -0.0307 -0.3979 -0.1236
 1572DOPE   C4B18453  21.078   6.545  13.596 -0.1810 -0.0831 -0.0919
 1573DOPS   CNO18454  18.536  34.055  13.017  0.0458 -0.2354  0.2750
 1573DOPS   PO418455  18.688  34.252  12.735 -0.4318 -0.1578  0.0417
 1573DOPS   GL118456  18.811  34.425  13.040  0.1398  0.2668  0.4264
 1573DOPS   GL218457  18.918  34.697  12.999  0.0743 -0.0666 -0.0197
 1573DOPS   C1A18458  18.868  34.311  13.459  0.2820 -0.0378 -0.2223
 1573DOPS   D2A18459  18.978  33.908  13.601 -0.0646  0.1942  0.0689
 1573DOPS   C3A18460  19.356  33.779  13.813  0.4189 -0.0883 -0.2151
 1573DOPS   C4A18461  19.783  33.758  13.652  0.1185 -0.1206  0.2291
 1573DOPS   C1B18462  18.935  34.945  13.444  0.2713  0.3095  0.0627
 1573DOPS   D2B18463  18.695  35.143  13.802 -0.0061  0.1640  0.1698
 1573DOPS   C3B18464  18.924  35.228  14.172 -0.0271  0.1215  0.0104
 1573DOPS   C4B18465  19.318  35.276  14.335 -0.2395 -0.1060 -0.2449
 1574DOPE   NH318466  12.927  34.465  12.476 -0.0392  0.2748  0.0099
 1574DOPE   PO418467  13.127  34.610  12.231 -0.0313 -0.0870  0.2118
 1574DOPE   GL118468  12.952  34.997  12.300 -0.1910  0.2901  0.0301
 1574DOPE   GL218469  13.104  35.152  12.125  0.0947  0.1631 -0.2753
 1574DOPE   C1A18470  12.623  35.190  12.527 -0.2981 -0.2562  0.0125
 1574DOPE   D2A18471  12.482  35.409  12.886  0.0045  0.2079 -0.2205
 1574DOPE   C3A18472  12.746  35.846  12.868 -0.2552  0.0678  0.3847
 1574DOPE   C4A18473  12.832  36.180  13.058  0.0578 -0.1069 -0.0475
 1574DOPE   C1B18474  13.310  35.358  12.447  0.0782 -0.3786 -0.2029
 1574DOPE   D2B18475  13.489  35.752  12.708 -0.1158 -0.2200  0.1962
 1574DOPE   C3B18476  13.164  36.100  12.615 -0.2953 -0.2023 -0.1561
 1574DOPE   C4B18477  12.937  36.296  12.293  0.1818 -0.1356 -0.2551
 1575DOPE   NH318478  21.410   0.471  12.552 -0.0249  0.0189  0.0229
 1575DOPE   PO418479  21.162   0.644  12.619  0.1835 -0.0011  0.1200
 1575DOPE   GL118480  21.079   0.875  12.913  0.4409  0.0485 -0.3341
 1575DOPE   GL218481  20.959   0.807  13.117  0.0111 -0.2911  0.0100
 1575DOPE   C1A18482  21.210   1.315  13.021  0.0798  0.2903  0.0842
 1575DOPE   D2A18483  21.453   1.694  13.053  0.0014 -0.3148 -0.1875
 1575DOPE   C3A18484  21.604   1.872  13.428 -0.0456  0.1004  0.1483
 1575DOPE   C4A18485  22.068   1.705  13.533  0.2645  0.1052  0.1373
 1575DOPE   C1B18486  21.030   0.806  13.561 -0.1082  0.2453 -0.1191
 1575DOPE   D2B18487  21.052   1.051  13.935 -0.0014 -0.1928 -0.1891
 1575DOPE   C3B18488  20.732   1.255  14.207  0.3667  0.0012 -0.2366
 1575DOPE   C4B18489  20.857   1.629  14.461  0.3234 -0.2252  0.0235
 1576POSM   NC318490  22.870   9.133  12.031  0.1480 -0.3499  0.3683
 1576POSM   PO418491  22.650   9.445  11.924  0.1403  0.2554  0.2694
 1576POSM   AM118492  22.574   9.374  12.234 -0.4003 -0.0820  0.0802
 1576POSM   AM218493  22.422   9.549  12.429 -0.0322  0.0103  0.0805
 1576POSM   T1A18494  22.620   9.064  12.615  0.2013 -0.1182  0.0285
 1576POSM   C2A18495  22.450   8.876  13.040 -0.0096 -0.1884  0.1459
 1576POSM   C3A18496  22.560   8.909  13.508  0.3076 -0.3083 -0.1188
 1576POSM   C1B18497  22.324   9.514  12.786 -0.2671 -0.0245  0.1303
 1576POSM   D2B18498  22.057   9.698  13.044  0.0477 -0.2004 -0.0130
 1576POSM   C3B18499  22.120  10.103  13.139 -0.1298 -0.1258  0.1601
 1576POSM   C4B18500  22.398  10.300  13.517  0.2094 -0.1509 -0.1627
 1577DOPC   NC318501  22.120   8.899  11.763 -0.0761  0.0803  0.1353
 1577DOPC   PO418502  22.465   8.871  11.951 -0.1499 -0.1891 -0.1780
 1577DOPC   GL118503  22.379   8.524  12.226  0.0041  0.3396  0.7479
 1577DOPC   GL218504  22.554   8.364  12.377  0.1681 -0.0289 -0.0532
 1577DOPC   C1A18505  22.027   8.298  12.461 -0.1707  0.2367 -0.0610
 1577DOPC   D2A18506  21.983   8.102  12.877 -0.0009 -0.2605  0.2741
 1577DOPC   C3A18507  21.975   8.448  13.131  0.1816 -0.2683  0.2259
 1577DOPC   C4A18508  22.082   8.884  13.342  0.0482  0.1069 -0.0750
 1577DOPC   C1B18509  22.919   8.532  12.664 -0.0627  0.2595  0.0350
 1577DOPC   D2B18510  22.986   8.478  13.091 -0.1682 -0.4893 -0.1240
 1577DOPC   C3B18511  23.041   8.848  13.407  0.4255 -0.1093  0.1328
 1577DOPC   C4B18512  23.280   8.738  13.795  0.0788  0.0133  0.0748
 1578DOPC   NC318513  15.387  34.489  12.507 -0.1597 -0.1832 -0.0883
 1578DOPC   PO418514  15.747  34.661  12.478  0.1767 -0.0627 -0.0402
 1578DOPC   GL118515  15.843  34.710  12.882  0.1155  0.2181  0.1230
 1578DOPC   GL218516  15.617  34.650  12.978 -0.2553 -0.0236  0.4309
 1578DOPC   C1A18517  16.196  34.704  13.130 -0.0740  0.2050  0.3358
 1578DOPC   D2A18518  16.673  34.583  13.159  0.0926  0.0154 -0.0908
 1578DOPC   C3A18519  16.998  34.794  13.421 -0.0323 -0.3503  0.1541
 1578DOPC   C4A18520  17.176  35.166  13.571 -0.2697  0.1050  0.1516
 1578DOPC   C1B18521  15.814  34.401  13.370 -0.1398  0.0449  0.1572
 1578DOPC   D2B18522  15.890  34.341  13.831  0.0700  0.0435 -0.1371
 1578DOPC   C3B18523  15.648  34.146  14.162  0.0553  0.2238 -0.2005
 1578DOPC   C4B18524  15.427  33.998  14.509  0.1514  0.2270 -0.2676
 1579DOPE   NH318525  15.321   0.754  12.328  0.0467  0.0622  0.3448
 1579DOPE   PO418526  15.357   0.809  12.642  0.0030 -0.1994  0.2395
 1579DOPE   GL118527  15.324   0.684  12.978  0.3029 -0.0976  0.3234
 1579DOPE   GL218528  15.137   0.900  13.082  0.0183  0.2163  0.0439
 1579DOPE   C1A18529  15.666   0.532  13.245 -0.3786  0.2989 -0.0046
 1579DOPE   D2A18530  16.020   0.541  13.510 -0.2208  0.2568 -0.0193
 1579DOPE   C3A18531  15.998   0.109  13.668  0.3288 -0.0595 -0.1127
 1579DOPE   C4A18532  15.737   0.089  14.077  0.3247  0.0784  0.1751
 1579DOPE   C1B18533  15.357   0.899  13.424  0.1843  0.1954  0.0055
 1579DOPE   D2B18534  15.422   1.099  13.859  0.1367 -0.0505 -0.1445
 1579DOPE   C3B18535  15.017   1.056  14.082  0.1532  0.0138 -0.3028
 1579DOPE   C4B18536  14.582   1.045  14.109 -0.0386  0.0245 -0.1970
 1580DOPE   NH318537  19.950   3.230  12.304  0.2458  0.0114  0.1768
 1580DOPE   PO418538  20.020   3.471  12.468  0.1728 -0.0479  0.0933
 1580DOPE   GL118539  20.068   3.504  12.867 -0.4889  0.0548  0.0029
 1580DOPE   GL218540  20.410   3.455  12.814 -0.0176  0.1556  0.0560
 1580DOPE   C1A18541  19.994   3.493  13.338  0.0243 -0.4121 -0.1403
 1580DOPE   D2A18542  20.003   3.704  13.731 -0.1925  0.2371 -0.2365
 1580DOPE   C3A18543  20.091   3.459  14.072 -0.0665 -0.0285  0.1567
 1580DOPE   C4A18544  20.187   3.574  14.460  0.1154 -0.2093  0.0578
 1580DOPE   C1B18545  20.528   3.715  13.180 -0.3663  0.0873  0.2752
 1580DOPE   D2B18546  20.609   4.045  13.492 -0.0611 -0.1147 -0.0699
 1580DOPE   C3B18547  20.406   4.333  13.787  0.0732  0.0907  0.0421
 1580DOPE   C4B18548  19.997   4.424  14.077 -0.0840 -0.1026  0.1246
 1581POSM   NC318549  17.616   0.413  12.569  0.2718 -0.1770 -0.0907
 1581POSM   PO418550  17.518   0.556  12.197  0.2262  0.1938 -0.0900
 1581POSM   AM118551  17.399   0.835  12.304  0.4566  0.1690  0.3045
 1581POSM   AM218552  17.402   0.858  12.571 -0.0617  0.0090 -0.0166
 1581POSM   T1A18553  17.597   1.291  12.262  0.1074  0.0385  0.2012
 1581POSM   C2A18554  17.650   1.540  12.620 -0.1448  0.0172  0.1836
 1581POSM   C3A18555  17.791   1.813  12.981  0.1191 -0.1633  0.2672
 1581POSM   C1B18556  17.573   1.082  12.723  0.2206  0.1518  0.1009
 1581POSM   D2B18557  17.748   1.267  13.118  0.0007  0.4014 -0.3108
 1581POSM   C3B18558  17.435   1.197  13.401  0.2982  0.0719  0.0601
 1581POSM   C4B18559  17.480   0.869  13.780 -0.0473 -0.2177 -0.2027
 1582POSM   NC318560  19.780   4.226  12.327 -0.4574 -0.2509 -0.1029
 1582POSM   PO418561  20.001   4.570  12.268 -0.3697 -0.1013 -0.2210
 1582POSM   AM118562  19.912   4.683  12.553  0.1368 -0.0739 -0.1289
 1582POSM   AM218563  19.667   4.600  12.682  0.1237  0.2515 -0.0214
 1582POSM   T1A18564  19.942   4.613  13.042 -0.0022  0.3072  0.1245
 1582POSM   C2A18565  20.282   4.646  13.403  0.2043 -0.1877 -0.0794
 1582POSM   C3A18566  20.705   4.673  13.559 -0.0449  0.0559 -0.0836
 1582POSM   C1B18567  19.375   4.574  12.873  0.0205 -0.2351  0.1332
 1582POSM   D2B18568  18.958   4.493  12.884  0.1070  0.0358 -0.0840
 1582POSM   C3B18569  18.765   4.267  13.298 -0.0238 -0.0985  0.0173
 1582POSM   C4B18570  18.744   4.118  13.722 -0.0882 -0.1566 -0.1845
 1583POSM   NC318571  12.311   9.765  11.972 -0.2696  0.3814  0.0534
 1583POSM   PO418572  12.621   9.800  12.206  0.0928 -0.3673 -0.5285
 1583POSM   AM118573  12.832   9.535  12.203  0.0796  0.1159 -0.2064
 1583POSM   AM218574  12.735   9.289  12.147 -0.1704  0.0271  0.0299
 1583POSM   T1A18575  13.217   9.251  12.169  0.1956 -0.2207  0.0015
 1583POSM   C2A18576  13.485   8.882  12.098  0.1519  0.0356  0.0347
 1583POSM   C3A18577  13.730   8.651  12.415  0.2043 -0.0360  0.1214
 1583POSM   C1B18578  12.777   9.145  12.443 -0.1284  0.2285  0.0704
 1583POSM   D2B18579  12.963   8.993  12.863 -0.3138 -0.2226  0.0202
 1583POSM   C3B18580  12.840   8.651  13.091  0.1971 -0.1823  0.1988
 1583POSM   C4B18581  12.777   8.484  13.540  0.2450 -0.2395 -0.0132
 1584POSM   NC318582  21.916   4.622  12.298  0.3138 -0.2470  0.1243
 1584POSM   PO418583  22.261   4.419  12.238 -0.0642  0.0495  0.0370
 1584POSM   AM118584  22.064   4.165  12.270  0.3928 -0.1137 -0.3702
 1584POSM   AM218585  22.022   3.985  12.517 -0.0330  0.1751 -0.2616
 1584POSM   T1A18586  21.846   3.751  12.117 -0.0226  0.0471  0.1498
 1584POSM   C2A18587  21.861   3.281  12.080  0.4224 -0.1233 -0.1583
 1584POSM   C3A18588  21.999   2.969  12.408 -0.0175  0.0031  0.0266
 1584POSM   C1B18589  22.066   3.700  12.732  0.1464 -0.3118 -0.2815
 1584POSM   D2B18590  22.086   3.242  12.850 -0.1179 -0.2253  0.2849
 1584POSM   C3B18591  21.808   2.936  12.914  0.2712 -0.0855 -0.0235
 1584POSM   C4B18592  21.740   2.522  12.692  0.0666  0.0774  0.0026
 1585DOPC   NC318593  15.926   5.783  12.173 -0.3471  0.2426 -0.1316
 1585DOPC   PO418594  16.054   6.131  12.003 -0.4850 -0.3397 -0.1513
 1585DOPC   GL118595  15.636   6.283  12.139  0.1121 -0.0256  0.2337
 1585DOPC   GL218596  15.508   6.125  11.924 -0.0242  0.0530  0.3160
 1585DOPC   C1A18597  15.251   6.341  12.411 -0.1002 -0.0241 -0.0615
 1585DOPC   D2A18598  14.955   6.124  12.697  0.0830 -0.1544 -0.0188
 1585DOPC   C3A18599  15.177   5.931  13.060 -0.1242 -0.1426  0.0623
 1585DOPC   C4A18600  15.311   5.815  13.454 -0.0582  0.2622 -0.0669
 1585DOPC   C1B18601  15.015   6.016  11.943 -0.1358  0.2294  0.0373
 1585DOPC   D2B18602  14.715   5.641  12.052 -0.0413 -0.1748  0.0638
 1585DOPC   C3B18603  14.876   5.583  12.480  0.0781  0.1616  0.3727
 1585DOPC   C4B18604  15.269   5.355  12.645  0.2684  0.1208  0.2515
 1586DOPC   NC318605  20.938   1.106  12.484  0.0296  0.0592 -0.5049
 1586DOPC   PO418606  20.666   0.865  12.619  0.2197  0.1703  0.1974
 1586DOPC   GL118607  20.588   1.062  12.944  0.4018 -0.0272 -0.1696
 1586DOPC   GL218608  20.719   1.324  12.964 -0.4033  0.1935  0.5675
 1586DOPC   C1A18609  20.419   1.287  13.334  0.0345  0.2665 -0.0532
 1586DOPC   D2A18610  20.584   1.512  13.691  0.0016  0.4914 -0.3796
 1586DOPC   C3A18611  20.937   1.734  13.796  0.0199  0.3704 -0.0140
 1586DOPC   C4A18612  21.335   1.943  13.876  0.2953 -0.2528  0.1224
 1586DOPC   C1B18613  20.949   1.344  13.391 -0.1403 -0.2680 -0.1854
 1586DOPC   D2B18614  21.344   1.271  13.562  0.1838  0.1454  0.2720
 1586DOPC   C3B18615  21.815   1.243  13.543 -0.0340  0.2426  0.0646
 1586DOPC   C4B18616  22.065   1.002  13.228 -0.0117  0.0613  0.0854
 1587DOPE   NH318617  18.751   7.017  12.323 -0.2510  0.0609  0.0408
 1587DOPE   PO418618  18.920   6.818  12.547 -0.1724 -0.0172 -0.3665
 1587DOPE   GL118619  19.032   6.824  12.954 -0.1948  0.0716 -0.1400
 1587DOPE   GL218620  19.248   7.063  13.059 -0.3416  0.1657  0.3570
 1587DOPE   C1A18621  19.350   6.515  13.140  0.0907  0.2102  0.2915
 1587DOPE   D2A18622  19.812   6.416  13.315 -0.4222  0.0775 -0.0755
 1587DOPE   C3A18623  20.163   6.634  13.403  0.1267 -0.0291 -0.0633
 1587DOPE   C4A18624  20.578   6.514  13.574 -0.1778 -0.0606  0.1986
 1587DOPE   C1B18625  19.084   7.311  13.390  0.0425 -0.0156 -0.2337
 1587DOPE   D2B18626  18.751   7.325  13.714  0.0532 -0.0812 -0.0565
 1587DOPE   C3B18627  18.566   7.008  13.943  0.1724 -0.0446 -0.3157
 1587DOPE   C4B18628  18.609   6.867  14.350  0.1355 -0.1672 -0.3159
 1588DOPC   NC318629  17.826   6.595  12.170 -0.0552 -0.4305  0.0866
 1588DOPC   PO418630  18.129   6.414  12.056 -0.2882  0.0777  0.0743
 1588DOPC   GL118631  18.411   6.319  12.352 -0.0316  0.0434  0.2782
 1588DOPC   GL218632  18.502   6.551  12.495  0.1201 -0.0204  0.0598
 1588DOPC   C1A18633  18.816   6.067  12.364  0.2613  0.0514  0.0007
 1588DOPC   D2A18634  19.027   5.803  12.634 -0.0876  0.2088  0.2212
 1588DOPC   C3A18635  19.056   5.818  13.118  0.0696  0.0718 -0.0299
 1588DOPC   C4A18636  19.247   6.031  13.436 -0.1682 -0.1801 -0.0483
 1588DOPC   C1B18637  18.391   6.573  12.953 -0.0486  0.0424  0.0784
 1588DOPC   D2B18638  18.404   6.621  13.370  0.4950  0.0050 -0.0422
 1588DOPC   C3B18639  18.347   7.041  13.538  0.1316  0.0660  0.4679
 1588DOPC   C4B18640  18.160   7.433  13.638  0.2903  0.1544 -0.2323
 1589DOPC   NC318641  21.394   8.667  11.644 -0.0647  0.0927 -0.3202
 1589DOPC   PO418642  21.719   8.646  11.899 -0.0348 -0.1692  0.0765
 1589DOPC   GL118643  21.400   8.341  11.934  0.0549 -0.1949 -0.1623
 1589DOPC   GL218644  21.464   8.343  12.244  0.0343 -0.2596 -0.1071
 1589DOPC   C1A18645  21.113   8.046  12.224  0.1390  0.1280  0.0799
 1589DOPC   D2A18646  20.661   7.931  12.275  0.1012  0.0924  0.0331
 1589DOPC   C3A18647  20.547   7.889  12.769  0.0651  0.2677 -0.2377
 1589DOPC   C4A18648  20.620   7.990  13.191  0.3249 -0.2077 -0.0385
 1589DOPC   C1B18649  21.534   8.224  12.657  0.2576  0.3939  0.1741
 1589DOPC   D2B18650  21.422   8.256  13.164  0.0699  0.0223  0.0863
 1589DOPC   C3B18651  21.473   8.556  13.496  0.0036  0.0806  0.0845
 1589DOPC   C4B18652  21.630   9.030  13.484 -0.0376 -0.0667 -0.1066
 1590DOPS   CNO18653  19.419  10.820  11.734  0.1805  0.1855  0.3279
 1590DOPS   PO418654  19.371  10.477  11.927  0.1765  0.1562  0.2110
 1590DOPS   GL118655  19.502  10.605  12.252  0.1475  0.0677  0.0865
 1590DOPS   GL218656  19.757  10.519  12.397 -0.1665  0.2227  0.1480
 1590DOPS   C1A18657  19.581  11.077  12.154 -0.1693 -0.2607 -0.0550
 1590DOPS   D2A18658  19.849  11.390  11.980  0.0751  0.2341  0.0394
 1590DOPS   C3A18659  19.844  11.753  12.229 -0.1934  0.2455  0.2152
 1590DOPS   C4A18660  19.659  12.062  12.524 -0.0501 -0.1566 -0.1175
 1590DOPS   C1B18661  19.702  10.588  12.812  0.1623  0.0354  0.0439
 1590DOPS   D2B18662  19.914  10.590  13.262 -0.0857  0.1116  0.1565
 1590DOPS   C3B18663  20.217  10.276  13.430 -0.5947 -0.1249  0.0640
 1590DOPS   C4B18664  20.586  10.123  13.709  0.1235 -0.3190  0.2828
 1591POSM   NC318665  23.168   5.142  12.529  0.0155  0.1210  0.1144
 1591POSM   PO418666  22.798   5.224  12.606  0.0880 -0.0638 -0.3487
 1591POSM   AM118667  22.614   5.459  12.715  0.2636 -0.1162  0.1731
 1591POSM   AM218668  22.591   5.553  12.974  0.0058 -0.0256 -0.0635
 1591POSM   T1A18669  22.605   5.938  12.644  0.0739 -0.1189  0.0508
 1591POSM   C2A18670  22.247   6.133  12.427  0.1388  0.1248 -0.3269
 1591POSM   C3A18671  22.165   6.436  12.060 -0.1676  0.0510  0.0662
 1591POSM   C1B18672  22.393   5.765  13.093 -0.0596 -0.1625  0.3059
 1591POSM   D2B18673  22.116   6.013  13.384 -0.2167 -0.3120  0.2941
 1591POSM   C3B18674  21.686   5.986  13.504 -0.0235  0.1179  0.1356
 1591POSM   C4B18675  21.269   6.064  13.671  0.2990  0.0779 -0.0207
 1592DOPS   CNO18676  19.619  10.013  11.645 -0.1702 -0.1996 -0.0668
 1592DOPS   PO418677  19.405   9.713  11.673 -0.1244  0.3005  0.1745
 1592DOPS   GL118678  19.243   9.331  11.976 -0.1159  0.3330  0.1460
 1592DOPS   GL218679  19.313   9.056  12.120  0.0803 -0.1802  0.1524
 1592DOPS   C1A18680  18.782   9.209  12.039 -0.2107  0.1563 -0.3270
 1592DOPS   D2A18681  18.606   8.767  12.123 -0.0393 -0.0195 -0.0372
 1592DOPS   C3A18682  18.659   8.664  12.566 -0.1732  0.0691 -0.1647
 1592DOPS   C4A18683  18.645   8.777  13.025  0.2430 -0.0676  0.0438
 1592DOPS   C1B18684  19.057   9.060  12.512  0.2155  0.3500 -0.3835
 1592DOPS   D2B18685  19.058   9.049  13.009 -0.0942 -0.1337  0.2713
 1592DOPS   C3B18686  18.973   8.849  13.400  0.0495  0.0465 -0.0137
 1592DOPS   C4B18687  18.708   8.866  13.732  0.4228 -0.0692 -0.0232
 1593POSM   NC318688  13.525   5.064  12.620  0.2113 -0.0515  0.1787
 1593POSM   PO418689  13.553   5.429  12.482  0.0161 -0.2774  0.0672
 1593POSM   AM118690  13.626   5.522  12.772 -0.0254 -0.1898  0.0858
 1593POSM   AM218691  13.822   5.705  12.885  0.1712 -0.1797  0.3005
 1593POSM   T1A18692  13.475   5.735  13.204  0.0318  0.0395 -0.0048
 1593POSM   C2A18693  13.369   6.069  13.541  0.1802 -0.3455 -0.1400
 1593POSM   C3A18694  13.126   6.357  13.761 -0.1638 -0.0204 -0.0974
 1593POSM   C1B18695  14.044   5.692  13.163  0.0645  0.0452  0.0197
 1593POSM   D2B18696  14.370   5.565  13.525 -0.4861  0.1806 -0.3791
 1593POSM   C3B18697  14.809   5.459  13.768  0.1909 -0.0967  0.2069
 1593POSM   C4B18698  15.016   5.179  14.088 -0.2955  0.1720  0.1612
 1594DOPC   NC318699  14.637   8.729  11.738 -0.0317  0.1242  0.0753
 1594DOPC   PO418700  14.721   8.509  12.049 -0.1816  0.0270  0.3173
 1594DOPC   GL118701  14.856   8.415  12.422 -0.6404  0.0650  0.0788
 1594DOPC   GL218702  14.683   8.328  12.663 -0.1838 -0.1012  0.1593
 1594DOPC   C1A18703  15.189   8.297  12.708 -0.1078  0.1401 -0.0547
 1594DOPC   D2A18704  15.541   8.286  13.042  0.0753 -0.0279  0.1779
 1594DOPC   C3A18705  15.959   8.155  13.249 -0.0495  0.2796  0.2398
 1594DOPC   C4A18706  16.185   8.250  13.648  0.1955  0.1450 -0.0586
 1594DOPC   C1B18707  14.231   8.359  12.818 -0.0012  0.1916  0.1281
 1594DOPC   D2B18708  13.759   8.271  12.809  0.3035  0.2479 -0.0063
 1594DOPC   C3B18709  13.590   8.368  13.231  0.0033 -0.0472  0.0609
 1594DOPC   C4B18710  13.727   8.404  13.687 -0.3055 -0.2175 -0.1665
 1595DOPC   NC318711  20.386   4.671  12.874  0.0682 -0.0677  0.2129
 1595DOPC   PO418712  20.504   4.656  12.508  0.1777 -0.0763 -0.1844
 1595DOPC   GL118713  20.802   4.472  12.729  0.1212 -0.0949  0.2985
 1595DOPC   GL218714  20.759   4.248  13.003  0.1499  0.2654 -0.5085
 1595DOPC   C1A18715  20.968   4.776  13.045 -0.0953 -0.0284 -0.2757
 1595DOPC   D2A18716  20.914   5.198  13.227  0.0808 -0.2731  0.1354
 1595DOPC   C3A18717  20.531   5.173  13.479 -0.0899 -0.1573  0.1098
 1595DOPC   C4A18718  20.349   5.499  13.784  0.0116 -0.1922 -0.0282
 1595DOPC   C1B18719  21.024   3.907  13.209  0.1837  0.0902 -0.1828
 1595DOPC   D2B18720  21.277   3.605  12.963 -0.0652 -0.2608  0.2549
 1595DOPC   C3B18721  21.448   3.181  13.087  0.2672 -0.0338 -0.3531
 1595DOPC   C4B18722  21.345   2.687  12.977  0.0976 -0.3274 -0.1416
 1596DOPC   NC318723  13.873   0.670  12.674  0.0520 -0.2382 -0.1785
 1596DOPC   PO418724  13.857   0.386  12.417 -0.4837  0.2307  0.2848
 1596DOPC   GL118725  13.676   0.300  12.739  0.3352  0.0860 -0.0643
 1596DOPC   GL218726  13.821   0.187  12.988  0.0946  0.1794  0.0267
 1596DOPC   C1A18727  13.454   0.525  13.108 -0.0615 -0.3997 -0.2410
 1596DOPC   D2A18728  13.095   0.425  13.316 -0.1172 -0.3651  0.1354
 1596DOPC   C3A18729  12.932   0.514  13.721 -0.2318  0.2178  0.4438
 1596DOPC   C4A18730  12.713   0.546  14.091 -0.0461  0.2831 -0.0054
 1596DOPC   C1B18731  14.049   0.420  13.249 -0.1276 -0.0568 -0.0099
 1596DOPC   D2B18732  14.514   0.448  13.323 -0.2219 -0.3556 -0.2221
 1596DOPC   C3B18733  14.483   0.344  13.782  0.3802  0.1259 -0.2511
 1596DOPC   C4B18734  14.438   0.541  14.225  0.2923 -0.1827 -0.1974
 1597POSM   NC318735  20.366   9.972  12.072  0.3227 -0.2046 -0.0571
 1597POSM   PO418736  20.108  10.119  12.358  0.1849  0.0946  0.0277
 1597POSM   AM118737  19.955  10.019  12.618  0.1480 -0.1701  0.4247
 1597POSM   AM218738  19.831   9.788  12.675 -0.1556  0.2486 -0.0439
 1597POSM   T1A18739  19.808  10.156  13.066  0.1573  0.1590 -0.1452
 1597POSM   C2A18740  19.465  10.416  13.201 -0.1577 -0.3544  0.2390
 1597POSM   C3A18741  19.246  10.489  13.599 -0.1617 -0.2244 -0.3872
 1597POSM   C1B18742  19.860   9.632  12.941 -0.1422 -0.1391 -0.2258
 1597POSM   D2B18743  19.821   9.338  13.286 -0.2056  0.2059 -0.3981
 1597POSM   C3B18744  19.343   9.324  13.378 -0.0895 -0.2422 -0.3647
 1597POSM   C4B18745  18.971   9.504  13.235  0.0019 -0.0040 -0.0597
 1598POSM   NC318746  13.581   3.984  12.222  0.2109  0.0978 -0.2842
 1598POSM   PO418747  13.494   3.635  12.064  0.1205  0.0116 -0.0594
 1598POSM   AM118748  13.715   3.465  12.183  0.2393  0.1564 -0.1010
 1598POSM   AM218749  13.984   3.468  12.340 -0.0431 -0.0994 -0.0056
 1598POSM   T1A18750  13.897   2.976  12.222  0.1225 -0.2316  0.2493
 1598POSM   C2A18751  14.076   2.568  12.174 -0.5589 -0.0642 -0.1785
 1598POSM   C3A18752  13.944   2.196  11.926 -0.2226 -0.2036 -0.2158
 1598POSM   C1B18753  14.065   3.250  12.575 -0.2617 -0.4783 -0.0452
 1598POSM   D2B18754  14.113   3.023  12.960  0.2675 -0.0611 -0.1973
 1598POSM   C3B18755  14.022   3.310  13.267 -0.0970  0.0313 -0.1967
 1598POSM   C4B18756  14.000   3.465  13.699 -0.0646  0.0031  0.3416
 1599DOPE   NH318757  16.837   3.034  12.570  0.0946  0.0207 -0.2223
 1599DOPE   PO418758  16.927   3.309  12.412  0.1316  0.1310 -0.1258
 1599DOPE   GL118759  17.032   3.579  12.585  0.1575  0.3342 -0.0988
 1599DOPE   GL218760  17.024   3.692  12.854  0.0109  0.3069 -0.0759
 1599DOPE   C1A18761  17.104   4.051  12.470  0.1070  0.1940  0.0246
 1599DOPE   D2A18762  17.154   4.541  12.466  0.0100  0.1398  0.1959
 1599DOPE   C3A18763  16.904   4.754  12.157 -0.2132  0.1676 -0.1214
 1599DOPE   C4A18764  16.620   5.087  11.984 -0.0342 -0.1319 -0.3243
 1599DOPE   C1B18765  17.044   4.157  12.994 -0.1724  0.0263  0.2878
 1599DOPE   D2B18766  17.019   4.643  12.987 -0.3236 -0.1540 -0.0819
 1599DOPE   C3B18767  16.719   4.851  12.694 -0.2118  0.0870 -0.3589
 1599DOPE   C4B18768  16.448   5.152  12.473  0.0427  0.1730  0.0694
 1600DOPS   CNO18769  22.869   4.575  12.299 -0.2667  0.2375  0.2427
 1600DOPS   PO418770  22.880   4.760  12.601 -0.2227 -0.1595  0.0794
 1600DOPS   GL118771  22.791   4.996  12.978 -0.3757  0.2211  0.2581
 1600DOPS   GL218772  23.037   5.068  13.035 -0.0386 -0.0537  0.2281
 1600DOPS   C1A18773  22.727   5.259  13.348 -0.3666 -0.0145  0.1925
 1600DOPS   D2A18774  22.304   5.414  13.423 -0.1070 -0.2025  0.1969
 1600DOPS   C3A18775  22.009   5.079  13.299 -0.1649 -0.0580  0.0304
 1600DOPS   C4A18776  21.961   4.638  13.370 -0.1795  0.1859  0.3160
 1600DOPS   C1B18777  22.848   4.766  13.320 -0.0761  0.1898  0.0683
 1600DOPS   D2B18778  22.649   4.352  13.276  0.0449  0.0073 -0.1479
 1600DOPS   C3B18779  22.291   4.283  13.603 -0.0212 -0.3041 -0.2164
 1600DOPS   C4B18780  21.880   4.331  13.828 -0.1733  0.0246  0.2277
 1601DOPE   NH318781  23.117  10.529  12.061  0.3454  0.2842  0.3007
 1601DOPE   PO418782  23.312  10.314  12.197 -0.0738  0.0470  0.1273
 1601DOPE   GL118783  23.201  10.441  12.519 -0.0549  0.0905  0.1193
 1601DOPE   GL218784  22.854  10.524  12.514 -0.1820  0.0917  0.2110
 1601DOPE   C1A18785  23.306  10.340  12.977  0.0697 -0.0451 -0.0285
 1601DOPE   D2A18786  23.278  10.561  13.381 -0.0422  0.1781  0.0295
 1601DOPE   C3A18787  23.624  10.848  13.548  0.0165 -0.1612  0.0525
 1601DOPE   C4A18788  23.808  11.064  13.909  0.0920  0.0654 -0.0784
 1601DOPE   C1B18789  22.944  10.173  12.795  0.1427  0.0031 -0.5222
 1601DOPE   D2B18790  22.781  10.272  13.235 -0.1118 -0.1635 -0.0618
 1601DOPE   C3B18791  22.818  10.548  13.601 -0.1633 -0.1266 -0.2013
 1601DOPE   C4B18792  22.846  10.591  14.057  0.1035 -0.0891 -0.0143
 1602DOPC   NC318793  12.993   4.688  12.533  0.2297  0.4752  0.0285
 1602DOPC   PO418794  12.967   4.744  12.143 -0.0543  0.0754 -0.0433
 1602DOPC   GL118795  12.693   5.034  12.340  0.0359  0.1770 -0.1786
 1602DOPC   GL218796  12.485   4.771  12.279 -0.2239  0.0390 -0.0791
 1602DOPC   C1A18797  12.521   5.470  12.220 -0.3697  0.1070  0.0717
 1602DOPC   D2A18798  12.569   5.892  12.438 -0.0479 -0.2293  0.1106
 1602DOPC   C3A18799  12.267   6.217  12.259  0.1534  0.0331  0.0921
 1602DOPC   C4A18800  12.116   6.383  11.847 -0.1952 -0.1249  0.1655
 1602DOPC   C1B18801  12.081   4.827  12.048 -0.1203  0.2516 -0.0929
 1602DOPC   D2B18802  11.678   4.863  12.225  0.2516 -0.1644 -0.0326
 1602DOPC   C3B18803  11.706   5.293  12.357  0.1004 -0.1457  0.1137
 1602DOPC   C4B18804  11.815   5.691  12.580 -0.0451 -0.1057 -0.1074
 1603DOPC   NC318805  16.091   2.527  12.358  0.1036  0.2733 -0.2107
 1603DOPC   PO418806  16.078   2.132  12.315  0.4024  0.3517 -0.0147
 1603DOPC   GL118807  15.764   2.294  12.494 -0.2602 -0.1674 -0.2820
 1603DOPC   GL218808  15.762   2.153  12.779  0.0403 -0.0188  0.1171
 1603DOPC   C1A18809  15.563   2.688  12.653 -0.1180  0.1364  0.0005
 1603DOPC   D2A18810  15.635   3.125  12.806  0.0604 -0.1158 -0.2363
 1603DOPC   C3A18811  15.568   2.877  13.227  0.3595  0.0438  0.0891
 1603DOPC   C4A18812  15.432   3.046  13.587 -0.1818  0.1162  0.3087
 1603DOPC   C1B18813  15.868   2.416  13.086  0.0344 -0.2242 -0.0564
 1603DOPC   D2B18814  15.999   2.725  13.410 -0.2075 -0.1921 -0.0823
 1603DOPC   C3B18815  16.091   2.571  13.813 -0.0942  0.1019 -0.0097
 1603DOPC   C4B18816  16.060   2.292  14.166  0.1288 -0.1574 -0.1799
 1604POSM   NC318817  23.621   6.753  12.013 -0.0967 -0.5577  0.4186
 1604POSM   PO418818  23.240   6.665  12.088 -0.3634  0.1804 -0.2152
 1604POSM   AM118819  23.066   6.503  12.299  0.1623  0.2887  0.0245
 1604POSM   AM218820  22.806   6.380  12.307  0.0360 -0.2456  0.2308
 1604POSM   T1A18821  23.023   6.262  12.752 -0.1203  0.1528 -0.0588
 1604POSM   C2A18822  22.950   6.031  13.139 -0.2899  0.2371 -0.1519
 1604POSM   C3A18823  23.122   5.609  13.279  0.0038 -0.2024  0.0311
 1604POSM   C1B18824  22.650   6.558  12.595 -0.2629  0.1472 -0.1397
 1604POSM   D2B18825  22.373   6.748  12.897  0.3414  0.2564  0.0608
 1604POSM   C3B18826  22.168   6.336  12.984 -0.2258  0.1442  0.0305
 1604POSM   C4B18827  21.965   5.938  12.870  0.0017  0.1178 -0.1981
 1605POSM   NC318828  11.825  10.041  12.098  0.1076  0.2698  0.0933
 1605POSM   PO418829  11.826   9.652  12.042  0.0731  0.0337 -0.1261
 1605POSM   AM118830  11.757   9.571  12.343  0.0548 -0.2195  0.2715
 1605POSM   AM218831  11.634   9.683  12.583  0.2285 -0.0096 -0.1790
 1605POSM   T1A18832  11.825   9.203  12.745 -0.3096 -0.1770  0.2894
 1605POSM   C2A18833  12.005   8.757  12.718 -0.1904 -0.0837 -0.1157
 1605POSM   C3A18834  12.133   8.419  12.523  0.1086  0.2379  0.2260
 1605POSM   C1B18835  11.638   9.688  12.927  0.1503  0.1263 -0.2498
 1605POSM   D2B18836  11.896   9.511  13.197  0.5162  0.0435 -0.1928
 1605POSM   C3B18837  12.267   9.602  13.036 -0.1594  0.0260  0.0838
 1605POSM   C4B18838  12.719   9.488  12.899  0.1413 -0.0840 -0.6278
 1606DOPS   CNO18839  19.705   3.178  12.777  0.4943 -0.0622  0.0336
 1606DOPS   PO418840  19.475   3.003  12.587 -0.0619 -0.1405 -0.0818
 1606DOPS   GL118841  19.449   2.813  12.949  0.0230  0.0382  0.1420
 1606DOPS   GL218842  19.414   2.522  13.082 -0.1573 -0.0228  0.2036
 1606DOPS   C1A18843  19.694   2.865  13.343  0.1025 -0.1765  0.2561
 1606DOPS   D2A18844  20.026   3.057  13.598 -0.0153 -0.1036 -0.1789
 1606DOPS   C3A18845  20.275   2.823  13.904 -0.0751 -0.1871  0.2081
 1606DOPS   C4A18846  20.215   2.711  14.342  0.2916 -0.1823 -0.0076
 1606DOPS   C1B18847  19.756   2.332  13.287 -0.2712  0.2172 -0.2143
 1606DOPS   D2B18848  20.171   2.158  13.123 -0.1845  0.1718  0.3348
 1606DOPS   C3B18849  20.151   1.817  13.415  0.0012  0.3733  0.1022
 1606DOPS   C4B18850  20.104   1.627  13.808 -0.1711  0.1307  0.2242
 1607POSM   NC318851  14.873   0.012  12.500 -0.0020 -0.1091  0.0207
 1607POSM   PO418852  14.502  -0.159  12.501 -0.2219  0.0193  0.0547
 1607POSM   AM118853  14.363  -0.178  12.830  0.1744  0.0751  0.6198
 1607POSM   AM218854  14.419  -0.373  13.036 -0.0239 -0.1062 -0.0265
 1607POSM   T1A18855  14.279  -0.007  13.283  0.1333 -0.2096 -0.1201
 1607POSM   C2A18856  13.803   0.098  13.487 -0.2826 -0.0446  0.3481
 1607POSM   C3A18857  13.428   0.368  13.633  0.0156  0.4951 -0.1704
 1607POSM   C1B18858  14.262  -0.600  13.244 -0.4809 -0.0433  0.2234
 1607POSM   D2B18859  13.960  -0.630  13.589  0.0894 -0.0846 -0.0631
 1607POSM   C3B18860  13.989  -0.407  14.013 -0.2447  0.2614  0.1827
 1607POSM   C4B18861  13.975  -0.484  14.477 -0.3249 -0.5679 -0.1185
 1608DOPE   NH318862  17.118  10.050  12.117 -0.1197  0.2165 -0.3429
 1608DOPE   PO418863  16.963   9.936  11.845 -0.2322  0.1263 -0.0721
 1608DOPE   GL118864  16.592  10.065  12.146 -0.0039 -0.4034  0.0027
 1608DOPE   GL218865  16.343   9.999  11.963  0.1627  0.1931  0.1424
 1608DOPE   C1A18866  16.318   9.776  12.423 -0.1320  0.0127 -0.1446
 1608DOPE   D2A18867  16.224   9.307  12.441 -0.1793 -0.1229 -0.0553
 1608DOPE   C3A18868  16.284   8.972  12.674  0.1288  0.1808  0.0392
 1608DOPE   C4A18869  16.176   8.537  12.802 -0.2284 -0.1030 -0.0846
 1608DOPE   C1B18870  16.096   9.590  11.891 -0.1216 -0.1793 -0.2154
 1608DOPE   D2B18871  15.744   9.345  12.046 -0.1417 -0.0475 -0.0190
 1608DOPE   C3B18872  15.861   9.001  12.358  0.3868  0.0548  0.1311
 1608DOPE   C4B18873  15.772   8.965  12.841 -0.0099 -0.2780 -0.1849
 1609DOPE   NH318874  15.172   1.379  12.241  0.2595 -0.3576 -0.2044
 1609DOPE   PO418875  14.855   1.450  12.156 -0.1763 -0.0215  0.1591
 1609DOPE   GL118876  14.616   1.364  12.614  0.3530 -0.3943 -0.0562
 1609DOPE   GL218877  14.360   1.372  12.520 -0.2977 -0.1156 -0.0873
 1609DOPE   C1A18878  14.503   1.756  12.804 -0.2077 -0.4138 -0.5236
 1609DOPE   D2A18879  14.341   2.073  13.068 -0.0136  0.2427  0.0580
 1609DOPE   C3A18880  14.255   2.484  12.996 -0.0671  0.1060  0.0128
 1609DOPE   C4A18881  13.925   2.658  12.631  0.0951 -0.1228 -0.0459
 1609DOPE   C1B18882  14.250   1.757  12.355 -0.3150 -0.1124 -0.0270
 1609DOPE   D2B18883  13.822   1.807  12.256 -0.2499  0.0047  0.0761
 1609DOPE   C3B18884  13.479   1.817  12.623 -0.4066  0.3435  0.1424
 1609DOPE   C4B18885  13.094   2.014  12.783  0.0377  0.3254  0.2845
 1610DOPE   NH318886  14.344   0.321  12.416  0.0572 -0.0953  0.1649
 1610DOPE   PO418887  14.347   0.612  12.555 -0.2500 -0.0307  0.0568
 1610DOPE   GL118888  14.482   0.972  12.775 -0.2617 -0.1207 -0.1363
 1610DOPE   GL218889  14.622   0.886  12.994  0.2270 -0.1587 -0.0723
 1610DOPE   C1A18890  14.407   1.315  13.131  0.2085  0.1505 -0.0276
 1610DOPE   D2A18891  14.265   1.693  13.381 -0.3399  0.0830 -0.1436
 1610DOPE   C3A18892  13.821   1.813  13.229 -0.0907  0.1894 -0.2995
 1610DOPE   C4A18893  13.376   1.613  13.254  0.0740 -0.0010 -0.1243
 1610DOPE   C1B18894  14.424   0.891  13.456  0.1010 -0.2701 -0.4331
 1610DOPE   D2B18895  14.106   1.219  13.514  0.0893  0.0191 -0.0591
 1610DOPE   C3B18896  13.870   1.355  13.162 -0.1131 -0.0492 -0.3376
 1610DOPE   C4B18897  14.012   1.687  12.798 -0.2389  0.0671 -0.1911
 1611DOPS   CNO18898  15.231   0.281  12.782  0.0802 -0.0267 -0.2051
 1611DOPS   PO418899  15.306   0.277  12.414  0.2693  0.4549  0.1089
 1611DOPS   GL118900  15.636   0.380  12.421 -0.0727  0.1085  0.0488
 1611DOPS   GL218901  15.681   0.439  12.760 -0.0160  0.2368 -0.2517
 1611DOPS   C1A18902  15.997   0.660  12.462 -0.1287  0.0533 -0.2317
 1611DOPS   D2A18903  16.200   0.906  12.711 -0.0211 -0.2513  0.0961
 1611DOPS   C3A18904  16.129   0.973  13.192  0.0187  0.1199 -0.0566
 1611DOPS   C4A18905  16.429   0.965  13.575 -0.0832  0.1565  0.1275
 1611DOPS   C1B18906  16.127   0.523  12.991 -0.0705 -0.1694  0.1464
 1611DOPS   D2B18907  16.542   0.339  12.839 -0.5244  0.0393  0.0314
 1611DOPS   C3B18908  16.896   0.354  13.028 -0.0012 -0.3441 -0.0021
 1611DOPS   C4B18909  17.148   0.666  13.106 -0.0058  0.0317  0.1342
 1612POSM   NC318910  19.025   2.650  12.514 -0.0136  0.3181  0.1351
 1612POSM   PO418911  18.779   2.973  12.430 -0.0189 -0.1104 -0.3601
 1612POSM   AM118912  18.760   3.089  12.748  0.1504  0.4046  0.2329
 1612POSM   AM218913  18.609   3.304  12.864 -0.1358 -0.1330  0.1551
 1612POSM   T1A18914  19.046   3.226  13.116 -0.0001 -0.2305  0.1711
 1612POSM   C2A18915  19.449   3.268  13.281 -0.1632 -0.0519  0.2130
 1612POSM   C3A18916  19.608   3.296  13.731 -0.1228  0.1394  0.0362
 1612POSM   C1B18917  18.545   3.558  13.080 -0.2344  0.0664 -0.0456
 1612POSM   D2B18918  18.240   3.819  13.380  0.4383 -0.1360 -0.1081
 1612POSM   C3B18919  17.814   3.600  13.305 -0.2512 -0.1515  0.1596
 1612POSM   C4B18920  17.641   3.242  13.468 -0.1117 -0.1521 -0.0889
 1613POSM   NC318921  23.219   6.025  12.236 -0.0427  0.1156 -0.0733
 1613POSM   PO418922  22.839   5.927  12.038  0.1034  0.1774 -0.0346
 1613POSM   AM118923  22.535   5.866  12.111 -0.1921 -0.2636  0.2047
 1613POSM   AM218924  22.301   5.729  12.011  0.0017  0.1191 -0.2613
 1613POSM   T1A18925  22.235   5.672  12.485 -0.0615 -0.1544 -0.0717
 1613POSM   C2A18926  21.765   5.582  12.580  0.0510 -0.0597  0.3631
 1613POSM   C3A18927  21.380   5.588  12.791  0.2801 -0.2104 -0.0937
 1613POSM   C1B18928  22.000   5.766  12.056  0.2098 -0.2072 -0.0709
 1613POSM   D2B18929  21.604   5.927  12.253  0.3294 -0.6766 -0.2246
 1613POSM   C3B18930  21.535   6.047  12.698 -0.0391 -0.2702  0.0459
 1613POSM   C4B18931  21.267   6.150  13.111  0.0564 -0.0984  0.2624
 1614DOPE   NH318932  19.773   2.646  12.668 -0.0846  0.1155  0.3523
 1614DOPE   PO418933  19.994   2.717  12.388 -0.1622 -0.1423 -0.0965
 1614DOPE   GL118934  20.200   2.964  12.666 -0.6521  0.1249 -0.0424
 1614DOPE   GL218935  20.437   2.990  12.455 -0.3201 -0.0280  0.3517
 1614DOPE   C1A18936  20.146   3.077  13.123  0.0109  0.0025 -0.0351
 1614DOPE   D2A18937  20.493   3.222  13.381  0.0422 -0.2187  0.0144
 1614DOPE   C3A18938  20.511   3.534  13.745  0.1534 -0.0347  0.0134
 1614DOPE   C4A18939  20.455   3.912  13.974 -0.2588  0.1902  0.2369
 1614DOPE   C1B18940  20.570   2.945  12.904  0.0975 -0.2104 -0.2802
 1614DOPE   D2B18941  20.787   2.796  13.279  0.0301  0.2938 -0.3015
 1614DOPE   C3B18942  21.129   2.862  13.609  0.1229  0.0588  0.2152
 1614DOPE   C4B18943  21.354   3.162  13.832 -0.1581  0.0107  0.1469
 1615DOPS   CNO18944  12.386  10.231  12.207 -0.2045  0.1280 -0.0805
 1615DOPS   PO418945  12.539  10.328  12.536 -0.1456 -0.2437 -0.1410
 1615DOPS   GL118946  12.398  10.130  12.775 -0.2283 -0.5276 -0.2342
 1615DOPS   GL218947  12.562   9.882  12.706  0.0448  0.1893 -0.0716
 1615DOPS   C1A18948  12.550  10.223  13.190  0.2923 -0.2816  0.1271
 1615DOPS   D2A18949  12.673  10.619  13.406 -0.0385  0.1201 -0.2289
 1615DOPS   C3A18950  12.384  11.000  13.300  0.3031 -0.0802  0.1086
 1615DOPS   C4A18951  12.044  11.283  13.371 -0.2768  0.0648  0.0264
 1615DOPS   C1B18952  12.971   9.964  12.907  0.3864  0.0985 -0.1213
 1615DOPS   D2B18953  13.039  10.212  13.287 -0.0686  0.0999 -0.0588
 1615DOPS   C3B18954  13.144  10.715  13.270  0.2108 -0.0600  0.3316
 1615DOPS   C4B18955  12.912  11.103  13.425  0.1421  0.0070  0.2207
 1616DOPE   NH318956  17.346   7.239  12.104 -0.1859  0.0044  0.0294
 1616DOPE   PO418957  17.646   7.403  12.090  0.1082 -0.0322  0.2129
 1616DOPE   GL118958  17.765   7.712  12.324  0.0680 -0.3691  0.4317
 1616DOPE   GL218959  17.884   7.583  12.567  0.2636 -0.2688 -0.1937
 1616DOPE   C1A18960  17.729   8.139  12.316  0.0343 -0.1483  0.0401
 1616DOPE   D2A18961  17.948   8.518  12.377 -0.2310  0.2560  0.1333
 1616DOPE   C3A18962  18.256   8.491  12.727 -0.3770  0.1313  0.2013
 1616DOPE   C4A18963  18.123   8.701  13.138 -0.3166 -0.0371  0.2155
 1616DOPE   C1B18964  17.906   7.611  13.030  0.0514 -0.2326  0.1006
 1616DOPE   D2B18965  17.715   7.903  13.336  0.0276 -0.0721 -0.1541
 1616DOPE   C3B18966  17.477   7.793  13.736  0.2259  0.0885 -0.1045
 1616DOPE   C4B18967  17.109   8.059  13.875 -0.1053  0.0236  0.1064
 1617POSM   NC318968  11.302   1.958  11.888  0.1333 -0.3157  0.1426
 1617POSM   PO418969  11.223   2.263  12.160 -0.1402  0.1382 -0.3894
 1617POSM   AM118970  11.225   1.979  12.341 -0.1357 -0.0616  0.1390
 1617POSM   AM218971  11.108   1.911  12.575  0.0651  0.3216  0.2998
 1617POSM   T1A18972  11.519   1.582  12.485 -0.1795 -0.1376  0.2799
 1617POSM   C2A18973  11.474   1.175  12.329  0.0267  0.3355 -0.1854
 1617POSM   C3A18974  11.488   0.719  12.268  0.0401  0.1470 -0.1282
 1617POSM   C1B18975  10.882   1.722  12.798 -0.0604  0.2556 -0.2015
 1617POSM   D2B18976  10.493   1.666  13.028 -0.2384  0.3218  0.3133
 1617POSM   C3B18977  10.302   1.595  13.474  0.1580 -0.2476  0.4202
 1617POSM   C4B18978  10.332   1.718  13.896 -0.1247  0.0595 -0.1035
 1618POSM   NC318979  11.617  10.591  12.517  0.0059 -0.0494  0.0340
 1618POSM   PO418980  11.932  10.459  12.346  0.1797  0.0102  0.2462
 1618POSM   AM118981  12.092  10.501  12.623  0.0891  0.1820 -0.0853
 1618POSM   AM218982  12.281  10.716  12.745  0.0463  0.3337  0.0182
 1618POSM   T1A18983  12.161  10.513  13.122  0.4383 -0.1692 -0.1846
 1618POSM   C2A18984  12.190  10.575  13.554  0.1287  0.2404 -0.3285
 1618POSM   C3A18985  12.440  10.937  13.777 -0.2083  0.2318  0.1869
 1618POSM   C1B18986  12.049  10.928  12.888  0.2678 -0.0771 -0.1001
 1618POSM   D2B18987  11.787  11.316  12.954  0.0685  0.1664 -0.0292
 1618POSM   C3B18988  11.632  11.729  12.743  0.0886 -0.5031 -0.1994
 1618POSM   C4B18989  11.748  12.113  12.443  0.1512  0.0992 -0.0486
 1619DOPC   NC318990  15.400   7.364  12.315 -0.1936  0.0452  0.2909
 1619DOPC   PO418991  15.330   7.752  12.312 -0.3414  0.3152 -0.5054
 1619DOPC   GL118992  15.021   7.863  12.538  0.0271 -0.0008 -0.0934
 1619DOPC   GL218993  15.087   7.634  12.771 -0.2006  0.1989 -0.0830
 1619DOPC   C1A18994  14.660   7.853  12.846 -0.1335  0.2961  0.0701
 1619DOPC   D2A18995  14.742   7.885  13.307 -0.1211 -0.1358  0.0255
 1619DOPC   C3A18996  14.423   8.134  13.582 -0.1766 -0.0293  0.0724
 1619DOPC   C4A18997  14.311   8.419  13.846 -0.0426 -0.1836  0.1299
 1619DOPC   C1B18998  15.194   7.923  13.107 -0.2256 -0.1168 -0.1868
 1619DOPC   D2B18999  15.173   8.165  13.508 -0.0218 -0.0624 -0.0793
 1619DOPC   C3B19000  14.801   8.445  13.573  0.1525  0.1206  0.4898
 1619DOPC   C4B19001  14.610   8.870  13.682  0.0421  0.0211 -0.3694
 1620POSM   NC319002  11.419   7.586  12.129  0.2149 -0.0958 -0.2193
 1620POSM   PO419003  11.316   7.256  12.321  0.1629 -0.4246 -0.0267
 1620POSM   AM119004  11.395   7.215  12.645  0.0481  0.2072 -0.0737
 1620POSM   AM219005  11.200   7.190  12.854  0.0959 -0.0053  0.1123
 1620POSM   T1A19006  11.608   7.047  13.066 -0.2288  0.1527 -0.1739
 1620POSM   C2A19007  11.835   6.676  13.079  0.1625 -0.1153 -0.1817
 1620POSM   C3A19008  11.737   6.225  12.944 -0.1156  0.1255  0.0267
 1620POSM   C1B19009  11.168   7.320  13.132  0.1501  0.1938 -0.2980
 1620POSM   D2B19010  10.937   7.420  13.508 -0.1964  0.0576 -0.1037
 1620POSM   C3B19011  11.037   7.046  13.667 -0.1380 -0.0953  0.4496
 1620POSM   C4B19012  11.336   6.822  13.903 -0.0284 -0.0892 -0.0604
 1621DOPE   NH319013  16.254   2.109  12.815 -0.1461 -0.0181  0.0805
 1621DOPE   PO419014  16.372   2.368  12.687 -0.1777 -0.4109 -0.1037
 1621DOPE   GL119015  16.350   2.444  13.063  0.0507  0.2788 -0.0316
 1621DOPE   GL219016  16.590   2.333  13.142 -0.1532  0.5836  0.0254
 1621DOPE   C1A19017  16.225   2.251  13.496 -0.3267 -0.0335 -0.3124
 1621DOPE   D2A19018  15.887   2.001  13.777 -0.0835  0.0758 -0.5776
 1621DOPE   C3A19019  15.416   1.973  13.787 -0.0278 -0.2275  0.2653
 1621DOPE   C4A19020  15.066   2.179  13.508  0.2614 -0.0782 -0.0899
 1621DOPE   C1B19021  16.617   2.519  13.584 -0.1852 -0.2436 -0.3597
 1621DOPE   D2B19022  16.590   2.421  14.015 -0.1204  0.2793  0.5414
 1621DOPE   C3B19023  16.381   2.035  13.951  0.0662 -0.0212  0.2033
 1621DOPE   C4B19024  16.115   1.680  14.085  0.1390 -0.1504 -0.1597
 1622DOPS   CNO19025  13.850   5.206  11.877  0.1735  0.2180  0.2557
 1622DOPS   PO419026  13.853   5.113  12.228 -0.1019 -0.1849 -0.0344
 1622DOPS   GL119027  13.967   5.188  12.573  0.0087  0.1912 -0.4348
 1622DOPS   GL219028  14.143   5.344  12.583 -0.0524 -0.1809 -0.0259
 1622DOPS   C1A19029  14.280   4.971  12.846 -0.2825  0.3534  0.1418
 1622DOPS   D2A19030  14.304   4.766  13.310 -0.0849 -0.1751 -0.0206
 1622DOPS   C3A19031  13.818   4.759  13.456  0.0112  0.0200 -0.0560
 1622DOPS   C4A19032  13.357   4.524  13.385 -0.0974  0.3776  0.2769
 1622DOPS   C1B19033  14.403   5.448  12.969  0.1015 -0.0286  0.6470
 1622DOPS   D2B19034  14.787   5.599  13.197 -0.1057  0.2253 -0.1053
 1622DOPS   C3B19035  14.783   5.890  13.530  0.0994 -0.0889 -0.1445
 1622DOPS   C4B19036  14.621   6.138  13.858  0.1138 -0.0622 -0.3110
 1623DOPC   NC319037  13.712   6.155  12.771 -0.1243 -0.3355 -0.0404
 1623DOPC   PO419038  13.629   6.436  12.537 -0.1019 -0.2070  0.1959
 1623DOPC   GL119039  14.011   6.640  12.585  0.0080  0.1153 -0.0867
 1623DOPC   GL219040  14.048   6.789  12.844  0.0702 -0.1779 -0.2672
 1623DOPC   C1A19041  14.432   6.482  12.651  0.1056 -0.3093  0.5031
 1623DOPC   D2A19042  14.799   6.751  12.703  0.1641 -0.1859  0.0621
 1623DOPC   C3A19043  14.803   6.969  13.141 -0.1009  0.2140 -0.1008
 1623DOPC   C4A19044  14.858   7.131  13.562 -0.3070 -0.0233 -0.2838
 1623DOPC   C1B19045  14.242   6.993  13.223 -0.0315 -0.0456 -0.1908
 1623DOPC   D2B19046  14.267   7.235  13.639 -0.1525 -0.1288 -0.1700
 1623DOPC   C3B19047  13.917   7.450  13.791 -0.2072  0.0326 -0.0408
 1623DOPC   C4B19048  13.726   7.692  14.115  0.0220 -0.3123 -0.3056
 1624DOPC   NC319049  19.782   9.344  11.873  0.2050 -0.1258 -0.3030
 1624DOPC   PO419050  19.974   9.739  11.922 -0.1290 -0.2060 -0.1842
 1624DOPC   GL119051  20.002   9.612  12.290 -0.3556  0.2138  0.3939
 1624DOPC   GL219052  20.278   9.651  12.433 -0.0682  0.2353  0.0151
 1624DOPC   C1A19053  19.937   9.265  12.533  0.2193  0.1251  0.2096
 1624DOPC   D2A19054  19.907   9.031  12.898  0.0918 -0.0151  0.0528
 1624DOPC   C3A19055  19.607   8.856  13.238 -0.2027 -0.0347  0.3096
 1624DOPC   C4A19056  19.395   8.527  13.360 -0.2100  0.0275 -0.0764
 1624DOPC   C1B19057  20.486   9.303  12.231 -0.3098  0.1534  0.1333
 1624DOPC   D2B19058  20.375   8.840  12.194 -0.2161  0.0223  0.0872
 1624DOPC   C3B19059  19.908   8.749  12.227  0.0747 -0.2161  0.0064
 1624DOPC   C4B19060  19.628   8.504  11.951  0.0411  0.1676 -0.3878
 1625DOPC   NC319061  13.767   4.297  12.579  0.2930 -0.0933  0.2936
 1625DOPC   PO419062  13.843   4.685  12.521  0.2241 -0.0116  0.0367
 1625DOPC   GL119063  13.784   4.790  12.910  0.0635 -0.2095 -0.0784
 1625DOPC   GL219064  13.530   4.628  12.885  0.1332 -0.0305  0.0261
 1625DOPC   C1A19065  13.866   5.229  13.049  0.0390  0.0946  0.2830
 1625DOPC   D2A19066  13.812   5.268  13.502  0.2011 -0.1310  0.0166
 1625DOPC   C3A19067  14.188   5.120  13.668  0.1976 -0.1438  0.3727
 1625DOPC   C4A19068  14.590   4.947  13.805  0.2052 -0.0007 -0.0845
 1625DOPC   C1B19069  13.378   5.053  13.113 -0.0271 -0.1861  0.2063
 1625DOPC   D2B19070  13.254   5.314  13.485  0.1843 -0.0219 -0.0442
 1625DOPC   C3B19071  13.547   5.593  13.678  0.0246  0.0064 -0.2175
 1625DOPC   C4B19072  13.722   5.984  13.910  0.2079 -0.3970  0.1453
 1626DOPS   CNO19073  16.645   7.300  12.049  0.0457  0.0471  0.2584
 1626DOPS   PO419074  16.749   7.659  11.943 -0.0769  0.1669  0.1497
 1626DOPS   GL119075  16.973   8.072  12.092 -0.2802  0.2001 -0.1915
 1626DOPS   GL219076  17.244   8.213  12.243  0.2014  0.2165  0.0894
 1626DOPS   C1A19077  16.759   8.403  12.340  0.1579 -0.1405  0.3456
 1626DOPS   D2A19078  16.672   8.615  12.782 -0.0680  0.0084 -0.0063
 1626DOPS   C3A19079  16.842   8.848  13.096  0.1224  0.2634 -0.0744
 1626DOPS   C4A19080  17.083   9.271  13.234 -0.1104 -0.0617  0.3010
 1626DOPS   C1B19081  17.465   8.607  12.352 -0.2757  0.2302 -0.2869
 1626DOPS   D2B19082  17.513   9.098  12.449  0.0595  0.1457 -0.0702
 1626DOPS   C3B19083  17.125   9.310  12.427  0.0020 -0.4005  0.1277
 1626DOPS   C4B19084  16.699   9.526  12.240  0.0866  0.2079 -0.1766
 1627POSM   NC319085  13.606  34.649  12.310 -0.2416  0.1561 -0.1873
 1627POSM   PO419086  13.488  34.348  12.546  0.1487  0.2818 -0.1872
 1627POSM   AM119087  13.350  34.565  12.733  0.2193  0.2680 -0.2338
 1627POSM   AM219088  13.275  34.828  12.696 -0.1706 -0.1178  0.1464
 1627POSM   T1A19089  13.338  34.770  13.179 -0.4913  0.2390 -0.2311
 1627POSM   C2A19090  13.068  34.640  13.562 -0.0256  0.1809  0.1915
 1627POSM   C3A19091  12.690  34.400  13.615 -0.3199  0.3762  0.1111
 1627POSM   C1B19092  13.064  35.056  12.793  0.2309 -0.1943  0.3898
 1627POSM   D2B19093  12.984  35.450  12.886 -0.2059 -0.2692  0.0614
 1627POSM   C3B19094  12.773  35.532  13.279 -0.2443  0.0406 -0.1249
 1627POSM   C4B19095  12.538  35.549  13.659 -0.0658 -0.0179 -0.0864
 1628POSM   NC319096  17.687  10.867  12.131  0.0121  0.1745  0.1668
 1628POSM   PO419097  17.371  10.602  12.145  0.0090 -0.0439  0.0158
 1628POSM   AM119098  17.335  10.464  12.417  0.1052 -0.1349  0.0493
 1628POSM   AM219099  17.506  10.214  12.514 -0.1321  0.0546  0.0737
 1628POSM   T1A19100  17.070  10.164  12.693 -0.0454  0.1045  0.3733
 1628POSM   C2A19101  16.900   9.729  12.678  0.0498 -0.0891 -0.0980
 1628POSM   C3A19102  16.715   9.366  12.810  0.0251  0.0405 -0.0292
 1628POSM   C1B19103  17.609  10.183  12.801  0.4221 -0.0972  0.4550
 1628POSM   D2B19104  17.796  10.368  13.187 -0.1889  0.2436  0.6823
 1628POSM   C3B19105  17.461  10.687  13.293 -0.2893  0.0134  0.3736
 1628POSM   C4B19106  17.375  11.192  13.311  0.0654 -0.0847  0.1338
 1629DOPE   NH319107  11.628   6.707  12.599  0.1476 -0.2988 -0.0191
 1629DOPE   PO419108  11.292   6.724  12.597 -0.1981 -0.0253  0.2043
 1629DOPE   GL119109  10.969   6.475  12.802  0.1151 -0.2851  0.3110
 1629DOPE   GL219110  11.092   6.395  13.068 -0.2092 -0.1098  0.1471
 1629DOPE   C1A19111  10.775   5.994  12.857 -0.0297  0.3235  0.1719
 1629DOPE   D2A19112  11.027   5.634  13.001 -0.0183  0.0083 -0.0179
 1629DOPE   C3A19113  11.027   5.168  13.161 -0.3103  0.0917  0.1263
 1629DOPE   C4A19114  11.078   5.084  13.594  0.0929 -0.1226  0.1429
 1629DOPE   C1B19115  11.246   6.051  13.220  0.0478  0.0403  0.3840
 1629DOPE   D2B19116  11.696   5.937  13.347 -0.0429  0.1230  0.0019
 1629DOPE   C3B19117  11.890   6.245  13.596  0.5017  0.0836  0.1318
 1629DOPE   C4B19118  11.821   6.305  14.035  0.0971  0.3236 -0.0122
 1630DOPC   NC319119  16.876   0.025  12.600 -0.0483  0.0759 -0.0635
 1630DOPC   PO419120  16.991  -0.270  12.789 -0.1008  0.0654 -0.1272
 1630DOPC   GL119121  16.958  -0.437  12.976 -0.0623  0.3178  0.0121
 1630DOPC   GL219122  17.024  -0.725  12.986 -0.2062  0.1890 -0.1484
 1630DOPC   C1A19123  16.893  -0.528  13.415 -0.1092 -0.0941  0.0019
 1630DOPC   D2A19124  16.741  -0.390  13.812  0.2420  0.1926 -0.1339
 1630DOPC   C3A19125  16.357  -0.564  13.994 -0.1725 -0.0450  0.2137
 1630DOPC   C4A19126  16.022  -0.856  14.055  0.0729  0.1700 -0.1357
 1630DOPC   C1B19127  16.669  -0.873  13.182  0.0899  0.1728  0.2025
 1630DOPC   D2B19128  16.468  -0.884  13.603  0.1705  0.0124  0.0089
 1630DOPC   C3B19129  16.065  -0.781  13.567 -0.2689 -0.1254 -0.3483
 1630DOPC   C4B19130  15.604  -0.727  13.631  0.4464 -0.2313  0.0468
 1631POSM   NC319131  22.378   3.605  12.370  0.1399 -0.0275  0.3395
 1631POSM   PO419132  22.728   3.753  12.418 -0.1254 -0.1936 -0.2881
 1631POSM   AM119133  22.631   3.777  12.743 -0.0222  0.0315 -0.1310
 1631POSM   AM219134  22.773   3.912  12.969 -0.2973 -0.0061  0.3280
 1631POSM   T1A19135  22.552   3.483  13.145 -0.1895  0.0538 -0.1127
 1631POSM   C2A19136  22.350   3.083  13.296  0.1954 -0.2426  0.3006
 1631POSM   C3A19137  22.367   2.606  13.443  0.2018 -0.2268  0.2095
 1631POSM   C1B19138  23.007   3.784  13.208 -0.1211 -0.1749 -0.2890
 1631POSM   D2B19139  23.326   3.644  13.596 -0.0589  0.2084 -0.0103
 1631POSM   C3B19140  23.148   3.514  14.021  0.0096  0.1573 -0.0772
 1631POSM   C4B19141  23.228   3.261  14.456 -0.0642 -0.1010  0.3158
 1632POSM   NC319142  16.718   7.598  12.469 -0.1509 -0.0825  0.2516
 1632POSM   PO419143  17.004   7.299  12.468 -0.3782 -0.0059  0.3026
 1632POSM   AM119144  17.000   7.321  12.808 -0.0473 -0.0842 -0.3163
 1632POSM   AM219145  16.853   7.423  12.996 -0.0897 -0.0245 -0.4827
 1632POSM   T1A19146  17.052   7.039  13.216 -0.2434 -0.0235  0.0462
 1632POSM   C2A19147  17.114   6.979  13.659 -0.0558 -0.1323  0.2029
 1632POSM   C3A19148  17.390   6.800  13.988 -0.2132  0.2353  0.2981
 1632POSM   C1B19149  16.690   7.667  13.145  0.0103  0.0841 -0.1007
 1632POSM   D2B19150  16.609   7.941  13.519  0.0370  0.2476  0.0057
 1632POSM   C3B19151  16.390   7.808  13.940 -0.1140 -0.2682  0.0703
 1632POSM   C4B19152  16.431   7.790  14.371 -0.0615  0.1054 -0.1236
 1633DOPC   NC319153  13.642  20.143  14.887 -0.0914  0.2344 -0.1356
 1633DOPC   PO419154  13.504  20.429  15.016  0.3514 -0.2982 -0.1043
 1633DOPC   GL119155  13.654  20.561  14.613 -0.1564 -0.2658 -0.3220
 1633DOPC   GL219156  13.476  20.401  14.486 -0.0027  0.0579  0.1339
 1633DOPC   C1A19157  13.681  20.734  14.203  0.1356 -0.2281  0.1028
 1633DOPC   D2A19158  13.804  20.832  13.774 -0.1011  0.0486  0.0944
 1633DOPC   C3A19159  13.784  21.087  13.370 -0.2148 -0.0992  0.0770
 1633DOPC   C4A19160  13.994  21.213  13.003  0.2052 -0.0414  0.0093
 1633DOPC   C1B19161  13.348  20.413  14.018 -0.0197 -0.0675  0.1586
 1633DOPC   D2B19162  13.280  20.513  13.546 -0.1064  0.2288  0.1667
 1633DOPC   C3B19163  12.978  20.253  13.315 -0.2249  0.2175 -0.0039
 1633DOPC   C4B19164  13.093  20.066  12.888  0.2160  0.0605 -0.0093
 1634DOPC   NC319165  20.566  15.206  14.508 -0.0368 -0.2884 -0.2516
 1634DOPC   PO419166  20.713  14.977  14.761 -0.0069 -0.0386  0.1255
 1634DOPC   GL119167  21.065  14.929  14.489  0.4460  0.1688 -0.3816
 1634DOPC   GL219168  21.338  15.033  14.644  0.0705 -0.0343  0.0606
 1634DOPC   C1A19169  20.976  14.903  14.006  0.1503  0.3122 -0.0253
 1634DOPC   D2A19170  20.970  15.080  13.545 -0.2734 -0.1722 -0.0028
 1634DOPC   C3A19171  21.057  15.037  13.078 -0.0936  0.1204 -0.2407
 1634DOPC   C4A19172  21.040  15.117  12.648  0.0574  0.0908 -0.1225
 1634DOPC   C1B19173  21.481  14.924  14.204  0.1087  0.0378  0.1221
 1634DOPC   D2B19174  21.407  14.935  13.777  0.0154  0.2317 -0.2006
 1634DOPC   C3B19175  21.796  14.732  13.733 -0.2694  0.0782 -0.1027
 1634DOPC   C4B19176  22.109  14.428  13.550 -0.1677 -0.0569  0.2135
 1635DOPE   NH319177  21.261  20.948  15.039 -0.0046 -0.2960  0.0171
 1635DOPE   PO419178  21.408  21.261  15.028 -0.0080 -0.0761  0.1794
 1635DOPE   GL119179  21.313  21.225  14.623  0.1937 -0.1059 -0.0304
 1635DOPE   GL219180  21.006  21.228  14.596 -0.0895 -0.2040 -0.1314
 1635DOPE   C1A19181  21.702  21.295  14.378 -0.1184 -0.2856 -0.1912
 1635DOPE   D2A19182  21.685  21.416  13.890  0.1746  0.0753 -0.1000
 1635DOPE   C3A19183  21.729  21.097  13.556  0.0362  0.1251  0.2553
 1635DOPE   C4A19184  22.046  20.767  13.427  0.1995 -0.4028 -0.2800
 1635DOPE   C1B19185  21.229  21.353  14.212  0.0092 -0.0999  0.0940
 1635DOPE   D2B19186  21.061  21.486  13.832  0.2832 -0.1192  0.0869
 1635DOPE   C3B19187  20.848  21.616  13.400  0.0081 -0.1092  0.0670
 1635DOPE   C4B19188  20.690  21.516  12.928  0.3200  0.1373 -0.0184
 1636DOPE   NH319189  11.952  20.507  15.216 -0.0188 -0.3364  0.2067
 1636DOPE   PO419190  12.147  20.282  15.036 -0.2383  0.2926 -0.0780
 1636DOPE   GL119191  12.393  20.336  14.763 -0.0098 -0.1975 -0.2021
 1636DOPE   GL219192  12.261  20.479  14.434 -0.1970 -0.4043  0.2839
 1636DOPE   C1A19193  12.743  20.654  14.660 -0.4514 -0.0095  0.0268
 1636DOPE   D2A19194  13.135  20.738  14.830 -0.1359 -0.0103  0.0532
 1636DOPE   C3A19195  13.173  21.132  14.931  0.2506 -0.1489 -0.3256
 1636DOPE   C4A19196  12.933  21.586  14.928  0.0858  0.1945  0.1571
 1636DOPE   C1B19197  12.013  20.164  14.158 -0.2172 -0.0382  0.0863
 1636DOPE   D2B19198  11.794  20.248  13.774  0.2998  0.0570  0.1076
 1636DOPE   C3B19199  12.008  20.414  13.371 -0.1914  0.0160 -0.0517
 1636DOPE   C4B19200  12.394  20.613  13.184 -0.1904 -0.2977  0.2686
 1637DOPC   NC319201  20.815  22.843  15.490  0.1933 -0.3379 -0.1634
 1637DOPC   PO419202  20.997  23.175  15.458  0.1971  0.2277  0.3026
 1637DOPC   GL119203  21.067  23.092  15.092  0.3536 -0.2608  0.1675
 1637DOPC   GL219204  20.836  23.069  14.923  0.0446 -0.0336  0.1132
 1637DOPC   C1A19205  21.428  22.955  14.797  0.1145  0.0767  0.1959
 1637DOPC   D2A19206  21.519  22.990  14.320 -0.1994  0.0627 -0.1312
 1637DOPC   C3A19207  21.324  23.169  13.951 -0.3213 -0.0140 -0.0611
 1637DOPC   C4A19208  21.099  23.450  13.681 -0.1455  0.3287  0.1060
 1637DOPC   C1B19209  20.520  23.200  14.579  0.3560 -0.1358 -0.1203
 1637DOPC   D2B19210  20.459  23.474  14.220 -0.0711  0.2521 -0.0558
 1637DOPC   C3B19211  20.058  23.687  14.068 -0.0467 -0.2099  0.3729
 1637DOPC   C4B19212  19.897  23.704  13.651 -0.2058 -0.2581 -0.4705
 1638DOPC   NC319213  22.365  21.058  14.683 -0.2125  0.2113  0.0345
 1638DOPC   PO419214  22.646  20.807  14.670 -0.1146 -0.1415  0.2990
 1638DOPC   GL119215  22.820  20.917  14.303 -0.0574  0.2989 -0.1431
 1638DOPC   GL219216  22.669  21.195  14.188 -0.1850  0.1039  0.2426
 1638DOPC   C1A19217  22.878  20.883  13.840  0.0669  0.3253  0.0889
 1638DOPC   D2A19218  22.995  20.989  13.447 -0.0035  0.2618  0.2363
 1638DOPC   C3A19219  22.855  21.082  13.035  0.1641 -0.0128  0.1329
 1638DOPC   C4A19220  22.428  21.030  12.978  0.0693  0.1141 -0.1733
 1638DOPC   C1B19221  22.456  21.293  13.809  0.0323  0.0912 -0.0170
 1638DOPC   D2B19222  22.180  21.541  13.447 -0.2681 -0.2630 -0.2475
 1638DOPC   C3B19223  21.976  21.237  13.134 -0.3442 -0.2489  0.2883
 1638DOPC   C4B19224  21.952  20.965  12.691  0.0202 -0.0625 -0.0167
 1639POSM   NC319225  15.398  14.595  14.385 -0.0197  0.3153  0.2535
 1639POSM   PO419226  15.189  14.257  14.354  0.0716 -0.2365  0.2209
 1639POSM   AM119227  15.120  14.177  14.081  0.3613 -0.1247  0.0674
 1639POSM   AM219228  14.872  14.036  13.976 -0.3898 -0.1265  0.2332
 1639POSM   T1A19229  15.072  14.367  13.616 -0.3085 -0.3100 -0.0573
 1639POSM   C2A19230  14.755  14.676  13.383 -0.2080 -0.1037  0.2670
 1639POSM   C3A19231  14.377  14.888  13.368 -0.4368  0.0443  0.0710
 1639POSM   C1B19232  15.012  13.883  13.684  0.1106  0.0696  0.1684
 1639POSM   D2B19233  15.068  13.533  13.397  0.0713 -0.0636  0.1371
 1639POSM   C3B19234  15.456  13.375  13.270 -0.3126 -0.4356  0.0543
 1639POSM   C4B19235  15.900  13.257  13.457 -0.1444  0.0700 -0.3581
 1640DOPS   CNO19236  20.063  21.576  15.005 -0.0355  0.2876  0.2230
 1640DOPS   PO419237  20.163  21.537  14.629  0.3041 -0.1511  0.0437
 1640DOPS   GL119238  19.914  21.839  14.388 -0.1893  0.1958  0.4078
 1640DOPS   GL219239  20.066  21.684  14.133 -0.4440  0.1022  0.4064
 1640DOPS   C1A19240  20.104  22.155  14.095  0.2138  0.0261  0.1192
 1640DOPS   D2A19241  20.517  22.389  13.993 -0.0572 -0.2400  0.3219
 1640DOPS   C3A19242  20.422  22.749  13.795  0.0447 -0.4191 -0.1286
 1640DOPS   C4A19243  20.252  23.157  13.821 -0.0291  0.0757  0.0964
 1640DOPS   C1B19244  20.037  21.713  13.740  0.1350 -0.0364  0.0169
 1640DOPS   D2B19245  19.974  21.419  13.428 -0.4807  0.1719 -0.0027
 1640DOPS   C3B19246  19.975  21.202  13.024  0.1343  0.1041  0.0194
 1640DOPS   C4B19247  19.906  20.793  12.782  0.1736 -0.0679 -0.2381
 1641DOPC   NC319248  16.604  14.385  14.419 -0.2538  0.3134 -0.1946
 1641DOPC   PO419249  16.675  14.111  14.722 -0.2200  0.0571 -0.2597
 1641DOPC   GL119250  16.986  13.962  14.446 -0.0522  0.1436  0.3664
 1641DOPC   GL219251  16.786  13.915  14.240 -0.3972  0.1846  0.1372
 1641DOPC   C1A19252  17.308  14.212  14.264  0.2912  0.2807  0.1604
 1641DOPC   D2A19253  17.701  14.421  14.181 -0.0559  0.0678  0.0077
 1641DOPC   C3A19254  17.806  14.166  13.821  0.2238 -0.1345 -0.2722
 1641DOPC   C4A19255  17.640  13.724  13.764 -0.1172  0.0664 -0.1647
 1641DOPC   C1B19256  16.502  13.787  13.900  0.3683 -0.0660  0.2127
 1641DOPC   D2B19257  16.080  13.644  13.774 -0.0852 -0.0023  0.1222
 1641DOPC   C3B19258  15.944  14.044  13.725 -0.0225 -0.0746  0.2529
 1641DOPC   C4B19259  15.573  14.316  13.790 -0.0174  0.2517  0.3424
 1642DOPE   NH319260  13.839  17.091  14.826 -0.3709  0.0131  0.0157
 1642DOPE   PO419261  13.868  17.374  14.729  0.2862 -0.1742 -0.2427
 1642DOPE   GL119262  14.055  17.201  14.416  0.1154  0.1237 -0.2198
 1642DOPE   GL219263  13.792  17.068  14.317 -0.1905 -0.1885 -0.2243
 1642DOPE   C1A19264  14.325  16.997  14.083  0.0867 -0.0800 -0.2522
 1642DOPE   D2A19265  14.192  16.683  13.763 -0.2936  0.1783 -0.1444
 1642DOPE   C3A19266  13.868  16.853  13.382 -0.1090  0.0559  0.0824
 1642DOPE   C4A19267  13.561  16.767  13.096  0.1673  0.1080  0.2175
 1642DOPE   C1B19268  13.888  17.101  13.837  0.0828 -0.0189 -0.1151
 1642DOPE   D2B19269  14.223  17.166  13.563  0.3558 -0.2223 -0.2123
 1642DOPE   C3B19270  14.166  17.504  13.286  0.0962 -0.1535  0.2016
 1642DOPE   C4B19271  13.906  17.751  12.977 -0.1133 -0.1604  0.1306
 1643POSM   NC319272  20.509  21.144  14.686 -0.1652  0.2480 -0.1539
 1643POSM   PO419273  20.756  20.877  14.883 -0.1805 -0.0165  0.0974
 1643POSM   AM119274  20.951  20.746  14.661 -0.2466  0.0978  0.1217
 1643POSM   AM219275  21.214  20.732  14.578 -0.1924  0.5037  0.0481
 1643POSM   T1A19276  20.981  20.465  14.243 -0.0064 -0.0070  0.1224
 1643POSM   C2A19277  20.936  20.533  13.797 -0.2069 -0.1852  0.0068
 1643POSM   C3A19278  21.059  20.478  13.355 -0.1096  0.1332 -0.1315
 1643POSM   C1B19279  21.197  20.881  14.310  0.0705 -0.0092  0.0576
 1643POSM   D2B19280  21.384  20.926  13.941 -0.1422 -0.2358  0.1848
 1643POSM   C3B19281  21.172  20.949  13.522 -0.1696 -0.3194  0.0252
 1643POSM   C4B19282  20.926  20.958  13.138 -0.0182 -0.0826  0.2289
 1644DOPS   CNO19283  17.598  22.409  15.515 -0.0365 -0.3011 -0.1381
 1644DOPS   PO419284  17.576  22.248  15.163  0.0993 -0.1868 -0.1742
 1644DOPS   GL119285  17.818  22.488  14.816  0.1535 -0.1280 -0.2695
 1644DOPS   GL219286  17.900  22.291  14.541  0.0664  0.0566 -0.2820
 1644DOPS   C1A19287  17.828  22.907  14.561  0.2941  0.3812 -0.0029
 1644DOPS   D2A19288  17.773  23.186  14.191  0.1380 -0.2941  0.0179
 1644DOPS   C3A19289  18.149  23.498  14.118  0.1705 -0.5942 -0.0514
 1644DOPS   C4A19290  18.548  23.461  13.843 -0.1118 -0.1007  0.1081
 1644DOPS   C1B19291  17.785  22.547  14.190  0.0315 -0.3990 -0.3226
 1644DOPS   D2B19292  17.434  22.814  14.039 -0.1385 -0.1898  0.3532
 1644DOPS   C3B19293  17.225  22.877  13.626 -0.0001 -0.1108 -0.1095
 1644DOPS   C4B19294  17.036  22.641  13.264  0.1904 -0.0321 -0.1664
 1645DOPC   NC319295  20.900  14.508  14.667  0.1542 -0.3581  0.0066
 1645DOPC   PO419296  21.215  14.605  14.868 -0.0927  0.2012  0.3722
 1645DOPC   GL119297  21.547  14.314  14.772 -0.0363  0.2516  0.0428
 1645DOPC   GL219298  21.428  14.354  14.475 -0.1244  0.5452 -0.3092
 1645DOPC   C1A19299  21.691  13.931  14.529 -0.0909  0.2014  0.1610
 1645DOPC   D2A19300  22.027  13.934  14.243 -0.2227 -0.2823  0.0582
 1645DOPC   C3A19301  21.971  13.951  13.753  0.1384 -0.0355  0.0099
 1645DOPC   C4A19302  22.063  13.830  13.306 -0.0311 -0.2550 -0.2647
 1645DOPC   C1B19303  21.379  14.016  14.146  0.1363  0.0586 -0.1233
 1645DOPC   D2B19304  21.424  13.743  13.872  0.0332 -0.0410  0.3474
 1645DOPC   C3B19305  21.624  13.802  13.482  0.0765  0.1743  0.0070
 1645DOPC   C4B19306  21.595  13.490  13.206 -0.0894 -0.1955 -0.0318
 1646DOPE   NH319307  17.364  16.949  14.503 -0.3009 -0.2594 -0.0143
 1646DOPE   PO419308  17.613  16.788  14.509  0.1287  0.0694 -0.2330
 1646DOPE   GL119309  17.656  16.776  14.110 -0.3943 -0.1347 -0.0010
 1646DOPE   GL219310  17.897  16.683  14.079 -0.1457  0.0541  0.0194
 1646DOPE   C1A19311  17.493  16.512  13.795 -0.0195  0.1235  0.0617
 1646DOPE   D2A19312  17.371  16.201  13.424  0.1414  0.2305 -0.1672
 1646DOPE   C3A19313  17.321  16.051  13.022  0.0646  0.0674 -0.0055
 1646DOPE   C4A19314  17.068  15.753  12.797  0.0126 -0.1594 -0.0765
 1646DOPE   C1B19315  18.020  16.798  13.658  0.0431 -0.2004 -0.2870
 1646DOPE   D2B19316  17.614  16.831  13.455  0.1172 -0.4360  0.0861
 1646DOPE   C3B19317  17.615  16.965  12.970  0.0320 -0.0988 -0.0589
 1646DOPE   C4B19318  17.574  16.997  12.538 -0.0067 -0.2268  0.0485
 1647DOPE   NH319319  16.581  16.616  14.444 -0.1867 -0.1791  0.0895
 1647DOPE   PO419320  16.875  16.706  14.441 -0.0039  0.0538  0.3750
 1647DOPE   GL119321  16.840  16.492  14.047  0.2069 -0.0560 -0.1426
 1647DOPE   GL219322  16.554  16.538  13.905  0.3074 -0.1162  0.0930
 1647DOPE   C1A19323  16.921  16.478  13.588 -0.5098  0.3025  0.0999
 1647DOPE   D2A19324  16.767  16.714  13.215  0.1864  0.4006  0.4778
 1647DOPE   C3A19325  16.470  16.402  12.976 -0.2514  0.1751 -0.0909
 1647DOPE   C4A19326  16.028  16.446  12.920 -0.0580  0.0006 -0.0492
 1647DOPE   C1B19327  16.403  16.721  13.538 -0.1109  0.0315  0.1484
 1647DOPE   D2B19328  16.333  16.879  13.074 -0.1549  0.2269  0.1554
 1647DOPE   C3B19329  16.311  17.326  12.978  0.0934 -0.0108  0.1597
 1647DOPE   C4B19330  16.299  17.614  12.665 -0.1600  0.0800  0.1816
 1648DOPC   NC319331  19.699  21.863  14.834  0.0604 -0.1135 -0.0576
 1648DOPC   PO419332  19.896  22.047  15.102  0.1383 -0.1040 -0.0505
 1648DOPC   GL119333  20.065  22.071  14.698  0.0536  0.3554 -0.1724
 1648DOPC   GL219334  20.114  22.365  14.738 -0.0956 -0.0556  0.0725
 1648DOPC   C1A19335  19.712  22.278  14.454  0.0249 -0.0612  0.0561
 1648DOPC   D2A19336  19.574  22.453  14.102  0.3518 -0.3135  0.1826
 1648DOPC   C3A19337  19.202  22.671  14.059  0.0249  0.0487 -0.1983
 1648DOPC   C4A19338  18.944  22.978  13.762  0.0820 -0.2268  0.2653
 1648DOPC   C1B19339  20.224  22.798  14.791  0.0037 -0.0466  0.4175
 1648DOPC   D2B19340  20.207  23.245  14.975  0.0672 -0.0549 -0.1179
 1648DOPC   C3B19341  20.380  23.640  14.816 -0.1722 -0.0366 -0.0872
 1648DOPC   C4B19342  20.252  24.150  14.779 -0.2319 -0.1711  0.3274
 1649POSM   NC319343  21.982  18.494  15.327 -0.2329 -0.1485  0.0823
 1649POSM   PO419344  21.603  18.485  15.405 -0.1308  0.2021  0.1217
 1649POSM   AM119345  21.356  18.497  15.176  0.0303  0.0357 -0.0590
 1649POSM   AM219346  21.155  18.238  15.096  0.0895 -0.1998 -0.0102
 1649POSM   T1A19347  21.063  18.635  14.769  0.0388  0.2387  0.1230
 1649POSM   C2A19348  20.622  18.768  14.751 -0.2968 -0.0934  0.1995
 1649POSM   C3A19349  20.311  19.078  14.558  0.4220 -0.2688  0.1856
 1649POSM   C1B19350  21.187  18.150  14.753  0.1328 -0.2938  0.0613
 1649POSM   D2B19351  21.445  17.912  14.434 -0.0913  0.2569 -0.1120
 1649POSM   C3B19352  21.541  17.453  14.400  0.0537  0.0061 -0.2341
 1649POSM   C4B19353  21.724  17.160  14.040  0.1177  0.1601  0.1028
 1650DOPE   NH319354  11.489  21.277  15.110  0.1716  0.0938  0.0245
 1650DOPE   PO419355  11.644  21.075  15.346 -0.2275 -0.0953 -0.2688
 1650DOPE   GL119356  11.815  20.954  14.965 -0.1537 -0.0252 -0.1657
 1650DOPE   GL219357  11.611  21.016  14.686 -0.0495 -0.0924  0.0217
 1650DOPE   C1A19358  12.122  20.952  14.578  0.2172  0.0027  0.1739
 1650DOPE   D2A19359  12.425  20.961  14.213  0.1835 -0.1342  0.1666
 1650DOPE   C3A19360  12.783  21.065  14.018  0.5297 -0.0878 -0.2320
 1650DOPE   C4A19361  13.225  20.932  13.906 -0.2934  0.0241  0.1739
 1650DOPE   C1B19362  11.733  21.469  14.678  0.0241  0.0888  0.1414
 1650DOPE   D2B19363  11.954  21.843  14.736 -0.3468 -0.4038  0.3435
 1650DOPE   C3B19364  11.558  22.141  14.633  0.0604  0.1022 -0.1502
 1650DOPE   C4B19365  11.460  22.585  14.644 -0.2295  0.2650 -0.1324
 1651DOPS   CNO19366  16.274  13.121  15.156 -0.1675 -0.0723 -0.0534
 1651DOPS   PO419367  16.213  12.756  15.107  0.1726  0.0929  0.2020
 1651DOPS   GL119368  16.079  12.606  14.712  0.0355 -0.0489 -0.1698
 1651DOPS   GL219369  15.929  12.836  14.685 -0.3137 -0.0564 -0.0823
 1651DOPS   C1A19370  16.084  12.568  14.216  0.1274 -0.0055  0.0610
 1651DOPS   D2A19371  16.163  12.472  13.818 -0.1486 -0.2778  0.3167
 1651DOPS   C3A19372  16.045  12.723  13.438  0.1943 -0.3702  0.2254
 1651DOPS   C4A19373  15.933  12.688  12.969 -0.1198 -0.1295 -0.0254
 1651DOPS   C1B19374  15.918  13.088  14.313 -0.2577 -0.0778 -0.0294
 1651DOPS   D2B19375  16.122  13.047  13.872  0.1529  0.3330 -0.1402
 1651DOPS   C3B19376  16.437  13.281  13.663  0.0379  0.2880 -0.0931
 1651DOPS   C4B19377  16.314  13.519  13.333 -0.1951 -0.1362  0.1701
 1652POSM   NC319378  18.703  19.964  15.181  0.1151 -0.1226  0.1817
 1652POSM   PO419379  18.787  19.893  14.763 -0.2760 -0.1306 -0.0406
 1652POSM   AM119380  18.753  19.776  14.425  0.0554 -0.0538  0.0611
 1652POSM   AM219381  18.780  19.890  14.196 -0.2096  0.1216 -0.0967
 1652POSM   T1A19382  18.775  19.372  14.139  0.2759 -0.1622  0.0021
 1652POSM   C2A19383  18.800  19.027  13.803  0.3348  0.0967  0.1177
 1652POSM   C3A19384  18.742  18.564  13.713 -0.0686 -0.0910 -0.0232
 1652POSM   C1B19385  18.945  19.952  13.872 -0.2805 -0.0259  0.0115
 1652POSM   D2B19386  19.292  20.114  13.519 -0.0108 -0.0793 -0.1785
 1652POSM   C3B19387  19.058  20.438  13.190  0.0275  0.0987 -0.1593
 1652POSM   C4B19388  18.639  20.539  12.927  0.0385 -0.0835  0.0795
 1653POSM   NC319389  17.073  19.656  14.562  0.3232 -0.1947  0.3263
 1653POSM   PO419390  16.806  19.384  14.659 -0.0253  0.3191  0.3641
 1653POSM   AM119391  16.590  19.511  14.411 -0.1445  0.0519  0.0094
 1653POSM   AM219392  16.645  19.594  14.163  0.0385  0.0395  0.1141
 1653POSM   T1A19393  16.213  19.831  14.327  0.3700 -0.2901 -0.4480
 1653POSM   C2A19394  15.800  19.922  14.289  0.2010 -0.0301 -0.0641
 1653POSM   C3A19395  15.512  19.656  14.087 -0.2863 -0.0891 -0.0392
 1653POSM   C1B19396  16.549  19.787  13.922 -0.3182  0.0340 -0.3846
 1653POSM   D2B19397  16.312  20.123  13.722 -0.0818  0.0497  0.1799
 1653POSM   C3B19398  16.196  19.908  13.363 -0.1025  0.2447 -0.3326
 1653POSM   C4B19399  15.775  19.579  13.314 -0.3439  0.2781  0.3687
 1654DOPC   NC319400  14.320  12.177  15.015  0.2235  0.1282  0.1950
 1654DOPC   PO419401  14.017  12.010  14.936  0.3506  0.1782  0.1341
 1654DOPC   GL119402  14.236  12.069  14.573 -0.1170  0.4049 -0.0481
 1654DOPC   GL219403  14.393  11.858  14.627 -0.1764  0.2782  0.0273
 1654DOPC   C1A19404  14.223  12.054  14.141 -0.0323  0.1367 -0.1993
 1654DOPC   D2A19405  14.103  12.185  13.753 -0.3060  0.1335  0.0267
 1654DOPC   C3A19406  13.623  12.107  13.792 -0.0755  0.3934  0.0208
 1654DOPC   C4A19407  13.271  12.109  13.439 -0.0669 -0.2286  0.0875
 1654DOPC   C1B19408  14.762  11.677  14.468  0.0105 -0.1716  0.2418
 1654DOPC   D2B19409  15.013  11.604  13.991  0.0764 -0.1027  0.0615
 1654DOPC   C3B19410  14.725  11.718  13.687  0.0816  0.1099  0.0292
 1654DOPC   C4B19411  14.320  11.796  13.571  0.0858  0.3299  0.0123
 1655DOPS   CNO19412  19.015  15.537  14.976  0.4728  0.1403 -0.2272
 1655DOPS   PO419413  19.100  15.544  14.615  0.4155 -0.1121 -0.0193
 1655DOPS   GL119414  19.116  15.683  14.329  0.0429  0.0270 -0.2500
 1655DOPS   GL219415  18.944  15.934  14.277 -0.0941 -0.1526 -0.2548
 1655DOPS   C1A19416  19.048  15.557  13.855 -0.0972  0.0738 -0.1431
 1655DOPS   D2A19417  19.103  15.313  13.477  0.0625 -0.0539  0.2205
 1655DOPS   C3A19418  19.463  15.062  13.429 -0.1948  0.1614 -0.0301
 1655DOPS   C4A19419  19.798  14.977  13.128 -0.3166 -0.0122 -0.0931
 1655DOPS   C1B19420  19.192  16.325  14.415  0.0983 -0.2455 -0.2375
 1655DOPS   D2B19421  19.566  16.505  14.327  0.0727  0.0517 -0.1634
 1655DOPS   C3B19422  19.541  16.814  14.053 -0.3140  0.0115 -0.1767
 1655DOPS   C4B19423  19.748  17.107  13.704  0.2869 -0.1095 -0.0558
 1656DOPE   NH319424  21.173  21.673  14.857  0.1441  0.1293 -0.0420
 1656DOPE   PO419425  21.042  21.932  14.986  0.0670  0.2314  0.0459
 1656DOPE   GL119426  21.039  21.998  14.579 -0.0845  0.4054 -0.0575
 1656DOPE   GL219427  20.992  21.823  14.393  0.2899  0.2137  0.1376
 1656DOPE   C1A19428  20.999  22.378  14.302 -0.0625  0.4147  0.0306
 1656DOPE   D2A19429  21.263  22.680  14.059 -0.1104 -0.0982  0.1982
 1656DOPE   C3A19430  21.334  22.815  13.621  0.0389  0.1161 -0.0010
 1656DOPE   C4A19431  21.482  23.205  13.337  0.2311  0.1240  0.1226
 1656DOPE   C1B19432  20.802  21.988  14.021  0.1485 -0.0391  0.0231
 1656DOPE   D2B19433  20.429  21.961  13.792  0.1320  0.4258 -0.1665
 1656DOPE   C3B19434  20.202  22.328  13.540  0.0570 -0.4136 -0.5402
 1656DOPE   C4B19435  20.159  22.794  13.316  0.0352 -0.1502  0.0126
 1657POSM   NC319436  21.042  16.760  14.966  0.1388 -0.0736  0.0584
 1657POSM   PO419437  21.162  17.124  15.011 -0.0505  0.0077  0.0771
 1657POSM   AM119438  21.196  17.147  14.674 -0.0448 -0.1767  0.0487
 1657POSM   AM219439  21.009  17.213  14.474 -0.1307 -0.3057  0.1537
 1657POSM   T1A19440  21.333  16.975  14.195 -0.1476 -0.0635 -0.0425
 1657POSM   C2A19441  21.276  17.032  13.766 -0.4211  0.3048 -0.1323
 1657POSM   C3A19442  21.342  16.957  13.266  0.1353 -0.0654  0.1603
 1657POSM   C1B19443  21.059  17.386  14.167 -0.2831 -0.3038  0.0750
 1657POSM   D2B19444  21.434  17.546  13.884  0.2206 -0.1066  0.0059
 1657POSM   C3B19445  21.460  17.875  13.603 -0.0863 -0.1719  0.2571
 1657POSM   C4B19446  21.552  18.251  13.367 -0.2400 -0.1377 -0.0222
 1658POSM   NC319447  22.436  13.205  15.083  0.1416  0.2895  0.0449
 1658POSM   PO419448  22.550  13.588  15.119  0.0763  0.0990 -0.1950
 1658POSM   AM119449  22.720  13.468  14.860  0.0201 -0.2131  0.1294
 1658POSM   AM219450  22.893  13.570  14.659  0.0498 -0.0536 -0.2192
 1658POSM   T1A19451  22.869  13.090  14.577 -0.0918 -0.3093 -0.0421
 1658POSM   C2A19452  23.079  13.012  14.185 -0.1582  0.0557  0.1893
 1658POSM   C3A19453  23.395  12.801  13.993  0.4934 -0.2690  0.2287
 1658POSM   C1B19454  22.832  13.504  14.338  0.1273 -0.0732  0.0135
 1658POSM   D2B19455  22.866  13.432  13.859  0.1733 -0.0507 -0.1514
 1658POSM   C3B19456  22.570  13.113  13.702  0.3094  0.2914  0.1311
 1658POSM   C4B19457  22.575  12.650  13.830 -0.3800  0.0662  0.0651
 1659DOPC   NC319458  13.012  19.813  15.608  0.1959 -0.0859 -0.0630
 1659DOPC   PO419459  12.826  19.878  15.280 -0.0401  0.2060  0.3130
 1659DOPC   GL119460  12.911  19.923  14.954  0.1687 -0.0078  0.0736
 1659DOPC   GL219461  13.096  20.071  14.762 -0.2368  0.0982 -0.0584
 1659DOPC   C1A19462  12.827  19.786  14.539 -0.0325 -0.0446 -0.2282
 1659DOPC   D2A19463  12.805  19.375  14.275  0.0634  0.1983 -0.2147
 1659DOPC   C3A19464  12.380  19.289  14.142 -0.1315 -0.2970  0.3617
 1659DOPC   C4A19465  11.959  19.169  13.909  0.0260  0.2596  0.1954
 1659DOPC   C1B19466  12.973  20.252  14.428  0.1483 -0.1458  0.0409
 1659DOPC   D2B19467  13.065  20.707  14.292  0.1769  0.0249  0.0267
 1659DOPC   C3B19468  13.406  20.984  14.525 -0.0932 -0.0285 -0.1583
 1659DOPC   C4B19469  13.835  21.216  14.411 -0.3782  0.1484 -0.0991
 1660DOPC   NC319470  12.176  13.315  14.842 -0.0820  0.1742 -0.1217
 1660DOPC   PO419471  12.554  13.335  14.683  0.2442 -0.0162  0.2872
 1660DOPC   GL119472  12.482  13.310  14.323  0.2878 -0.2546 -0.0845
 1660DOPC   GL219473  12.563  13.047  14.221 -0.0543  0.0347 -0.1165
 1660DOPC   C1A19474  12.704  13.510  13.945 -0.0617  0.1520 -0.0066
 1660DOPC   D2A19475  12.630  13.753  13.564 -0.1518  0.1196 -0.2349
 1660DOPC   C3A19476  12.663  14.122  13.305  0.0536  0.4707 -0.0453
 1660DOPC   C4A19477  12.651  14.533  13.145 -0.1439 -0.1460  0.2676
 1660DOPC   C1B19478  12.266  13.084  13.790 -0.2606  0.0249  0.2900
 1660DOPC   D2B19479  11.994  12.997  13.391  0.0984  0.1322  0.2612
 1660DOPC   C3B19480  12.058  13.277  12.957 -0.0229 -0.1324  0.0059
 1660DOPC   C4B19481  12.104  13.200  12.550 -0.0760 -0.0153  0.4234
 1661POSM   NC319482  17.586  11.948  15.836 -0.1434 -0.0988  0.1441
 1661POSM   PO419483  17.961  11.764  15.763 -0.2018  0.2691 -0.1015
 1661POSM   AM119484  17.867  11.614  15.490  0.1054 -0.3893 -0.4237
 1661POSM   AM219485  17.628  11.612  15.351 -0.0414  0.0731 -0.1912
 1661POSM   T1A19486  17.970  11.303  15.074  0.3150 -0.0894 -0.0120
 1661POSM   C2A19487  17.856  10.850  14.948  0.0251  0.0362  0.0392
 1661POSM   C3A19488  17.762  10.614  14.530 -0.0012 -0.0886 -0.2591
 1661POSM   C1B19489  17.653  11.689  14.980  0.0014  0.2666 -0.0732
 1661POSM   D2B19490  17.865  11.924  14.655 -0.0742 -0.0937  0.0011
 1661POSM   C3B19491  17.982  11.706  14.242  0.2235  0.0485  0.2454
 1661POSM   C4B19492  17.651  11.396  14.085  0.2970 -0.1469 -0.1893
 1662POSM   NC319493  22.393  16.309  14.780  0.0122  0.0005 -0.0424
 1662POSM   PO419494  22.348  16.610  15.057  0.1318  0.0608 -0.1023
 1662POSM   AM119495  22.398  16.775  14.779  0.3519 -0.3601 -0.0092
 1662POSM   AM219496  22.496  17.031  14.701  0.1633  0.2721 -0.1612
 1662POSM   T1A19497  22.301  16.795  14.311  0.2573  0.2659 -0.0555
 1662POSM   C2A19498  22.456  16.707  13.892 -0.1942  0.3578  0.1182
 1662POSM   C3A19499  22.312  16.700  13.413 -0.2310  0.4158  0.0249
 1662POSM   C1B19500  22.761  17.173  14.563 -0.0282 -0.1153 -0.0733
 1662POSM   D2B19501  23.211  17.150  14.596  0.2845 -0.1351 -0.1400
 1662POSM   C3B19502  23.410  17.506  14.266  0.0088 -0.2246  0.3511
 1662POSM   C4B19503  23.275  17.555  13.822 -0.1135 -0.3897 -0.0639
 1663DOPE   NH319504  21.842  22.785  15.219 -0.2106  0.0405  0.1473
 1663DOPE   PO419505  22.069  22.562  15.358 -0.0657 -0.6128 -0.1591
 1663DOPE   GL119506  22.175  22.467  15.041 -0.1430  0.2568 -0.2832
 1663DOPE   GL219507  21.929  22.306  14.940 -0.0347 -0.2414  0.3610
 1663DOPE   C1A19508  22.334  22.557  14.590  0.0749 -0.1005  0.2070
 1663DOPE   D2A19509  22.645  22.549  14.235 -0.2531 -0.1348  0.0595
 1663DOPE   C3A19510  22.671  22.185  13.924  0.1469  0.3564  0.0457
 1663DOPE   C4A19511  22.742  21.865  13.631 -0.2913 -0.0233  0.0746
 1663DOPE   C1B19512  21.967  22.235  14.520  0.1349 -0.1256 -0.0516
 1663DOPE   D2B19513  21.886  22.039  14.089  0.0342  0.1730 -0.1042
 1663DOPE   C3B19514  21.796  22.222  13.645 -0.0449 -0.2777 -0.0285
 1663DOPE   C4B19515  21.946  22.415  13.284  0.1664  0.1610 -0.0499
 1664DOPC   NC319516  18.470  21.189  14.645  0.1604  0.1606  0.1442
 1664DOPC   PO419517  18.802  21.392  14.625 -0.0401 -0.1116  0.3324
 1664DOPC   GL119518  18.688  21.563  14.364  0.3468  0.3156  0.3582
 1664DOPC   GL219519  18.923  21.741  14.318  0.2029  0.1215  0.1572
 1664DOPC   C1A19520  18.516  21.570  13.907  0.2691  0.1192 -0.0112
 1664DOPC   D2A19521  18.197  21.503  13.510 -0.2258 -0.0936  0.0219
 1664DOPC   C3A19522  18.380  21.754  13.156 -0.0096 -0.0826 -0.3249
 1664DOPC   C4A19523  18.759  21.901  13.039 -0.0286 -0.1301 -0.0344
 1664DOPC   C1B19524  19.191  21.631  13.908  0.0763  0.0812  0.0307
 1664DOPC   D2B19525  19.502  21.643  13.602 -0.0006  0.1629 -0.2041
 1664DOPC   C3B19526  19.434  21.276  13.262  0.1332  0.3551  0.1478
 1664DOPC   C4B19527  19.431  20.943  12.935  0.1679 -0.0966  0.0894
 1665DOPE   NH319528  19.726  17.537  15.408  0.2037 -0.1271  0.3638
 1665DOPE   PO419529  20.013  17.682  15.442  0.2180 -0.0326  0.0239
 1665DOPE   GL119530  20.002  17.811  15.036 -0.1975 -0.1263  0.0300
 1665DOPE   GL219531  20.013  17.522  14.970  0.2512  0.0906 -0.1288
 1665DOPE   C1A19532  19.904  17.972  14.639 -0.1996 -0.0343 -0.0424
 1665DOPE   D2A19533  19.697  18.221  14.387  0.2349  0.0050 -0.1896
 1665DOPE   C3A19534  19.724  18.521  13.971 -0.2848 -0.6445  0.1197
 1665DOPE   C4A19535  19.703  18.766  13.607 -0.0237 -0.1589  0.0302
 1665DOPE   C1B19536  19.637  17.624  14.654 -0.1729  0.1688 -0.1566
 1665DOPE   D2B19537  19.283  17.419  14.436  0.1625  0.2140 -0.1531
 1665DOPE   C3B19538  19.368  17.252  13.966 -0.1464  0.2843 -0.1382
 1665DOPE   C4B19539  19.138  17.006  13.679  0.0622  0.2304 -0.0187
 1666DOPE   NH319540  21.747  14.854  14.931 -0.1307 -0.0698 -0.1067
 1666DOPE   PO419541  21.891  14.666  14.761 -0.2344  0.0297  0.4704
 1666DOPE   GL119542  21.847  14.618  14.333 -0.2997 -0.0933 -0.4156
 1666DOPE   GL219543  22.091  14.619  14.077  0.1184 -0.0121 -0.0350
 1666DOPE   C1A19544  21.572  14.457  14.040  0.1941  0.0064  0.1955
 1666DOPE   D2A19545  21.586  14.217  13.654 -0.2934 -0.0149  0.0417
 1666DOPE   C3A19546  21.726  14.291  13.240 -0.3262  0.0453  0.1389
 1666DOPE   C4A19547  21.660  14.233  12.811  0.3635 -0.0878 -0.1571
 1666DOPE   C1B19548  22.314  14.894  13.769 -0.1434  0.0799  0.0461
 1666DOPE   D2B19549  22.268  15.002  13.322  0.0701 -0.0329 -0.0876
 1666DOPE   C3B19550  22.514  15.385  13.166 -0.0792  0.2120 -0.0637
 1666DOPE   C4B19551  22.668  15.829  13.197 -0.2633  0.1137 -0.2613
 1667DOPE   NH319552  19.289  14.473  14.908 -0.2127  0.0257 -0.3266
 1667DOPE   PO419553  19.239  14.633  14.699 -0.2485 -0.2943 -0.2767
 1667DOPE   GL119554  19.203  14.691  14.351  0.1727  0.4862 -0.1549
 1667DOPE   GL219555  19.231  14.957  14.289  0.2687  0.2272  0.0385
 1667DOPE   C1A19556  18.841  14.550  14.057 -0.0389  0.3818  0.0420
 1667DOPE   D2A19557  18.795  14.244  13.684 -0.0606 -0.1977 -0.1474
 1667DOPE   C3A19558  18.817  14.376  13.242 -0.0623  0.1646 -0.2635
 1667DOPE   C4A19559  19.012  14.380  12.833 -0.1823  0.1427 -0.1519
 1667DOPE   C1B19560  19.058  14.985  13.856 -0.1541 -0.0454  0.0553
 1667DOPE   D2B19561  18.696  14.822  13.645  0.0105  0.2326  0.1006
 1667DOPE   C3B19562  18.445  15.099  13.308 -0.0627  0.1914  0.2435
 1667DOPE   C4B19563  18.678  15.289  12.959  0.0757 -0.2835  0.1529
 1668DOPS   CNO19564  12.922  16.879  14.907 -0.2297  0.1975  0.2221
 1668DOPS   PO419565  12.615  16.710  14.895 -0.2717 -0.0184 -0.0013
 1668DOPS   GL119566  12.534  16.987  14.577 -0.2126 -0.3293  0.0843
 1668DOPS   GL219567  12.338  16.903  14.375  0.2368 -0.0284  0.0434
 1668DOPS   C1A19568  12.552  17.377  14.330  0.0171 -0.1175  0.3722
 1668DOPS   D2A19569  12.265  17.547  14.045  0.0032 -0.0056 -0.0011
 1668DOPS   C3A19570  11.772  17.563  14.003  0.3623 -0.0539  0.1473
 1668DOPS   C4A19571  11.469  17.795  13.754 -0.0633 -0.1012 -0.0005
 1668DOPS   C1B19572  12.522  16.948  13.919 -0.0505  0.2266  0.0689
 1668DOPS   D2B19573  12.332  16.847  13.543 -0.3329 -0.1132 -0.0586
 1668DOPS   C3B19574  12.224  16.573  13.175  0.3521 -0.3287  0.0017
 1668DOPS   C4B19575  12.021  16.543  12.785  0.1275  0.0117 -0.0377
 1669DOPE   NH319576  17.843  18.531  14.749 -0.3192  0.0357  0.1371
 1669DOPE   PO419577  17.895  18.839  14.785  0.1415  0.1513  0.1627
 1669DOPE   GL119578  18.058  19.057  14.382 -0.0052  0.2831  0.1164
 1669DOPE   GL219579  17.807  19.191  14.320  0.2450 -0.0942 -0.2094
 1669DOPE   C1A19580  18.285  19.211  13.953  0.1065  0.3518 -0.0695
 1669DOPE   D2A19581  18.299  19.017  13.535  0.2617  0.0786  0.2275
 1669DOPE   C3A19582  18.430  19.219  13.141  0.0509  0.1745 -0.1377
 1669DOPE   C4A19583  18.836  19.394  13.042  0.1091  0.1446 -0.1575
 1669DOPE   C1B19584  17.753  19.095  13.846 -0.0944  0.1411  0.2948
 1669DOPE   D2B19585  17.573  18.855  13.439 -0.2822  0.1031  0.0757
 1669DOPE   C3B19586  17.887  18.985  13.177 -0.0320  0.0107 -0.1472
 1669DOPE   C4B19587  18.228  18.784  13.011  0.0245  0.1197  0.1784
 1670DOPE   NH319588  13.893  17.947  14.902  0.3562  0.0842  0.3714
 1670DOPE   PO419589  14.074  17.956  14.655  0.2683  0.0256 -0.3128
 1670DOPE   GL119590  14.071  18.050  14.323  0.2908 -0.2362 -0.0244
 1670DOPE   GL219591  14.403  17.986  14.204 -0.3332  0.0369 -0.0092
 1670DOPE   C1A19592  14.029  18.307  13.940 -0.0461 -0.2651 -0.2098
 1670DOPE   D2A19593  14.180  18.497  13.582  0.1198  0.0394 -0.0871
 1670DOPE   C3A19594  14.114  18.151  13.299 -0.3308  0.3760 -0.0152
 1670DOPE   C4A19595  14.418  17.864  13.022  0.1220  0.0440  0.0958
 1670DOPE   C1B19596  14.722  17.744  13.980 -0.0693  0.0468 -0.1181
 1670DOPE   D2B19597  15.066  17.605  13.710  0.0001  0.0480  0.0676
 1670DOPE   C3B19598  15.121  17.354  13.310  0.2056  0.3800  0.1276
 1670DOPE   C4B19599  15.371  17.365  12.915  0.5118 -0.0108 -0.2674
 1671POSM   NC319600  14.509  12.258  15.649  0.4599  0.1760 -0.0989
 1671POSM   PO419601  14.679  12.029  15.409 -0.2612 -0.1822  0.2473
 1671POSM   AM119602  14.821  11.941  15.142  0.1101  0.1267  0.0405
 1671POSM   AM219603  14.792  12.095  14.892 -0.1819  0.2135  0.1184
 1671POSM   T1A19604  15.118  11.632  14.835 -0.0705 -0.4270  0.4130
 1671POSM   C2A19605  15.097  11.329  14.443 -0.2637 -0.1806 -0.4211
 1671POSM   C3A19606  15.356  11.198  14.124  0.0289  0.1067  0.2892
 1671POSM   C1B19607  15.087  12.206  14.714 -0.1494 -0.0674  0.0364
 1671POSM   D2B19608  15.151  12.393  14.304  0.1007  0.0618 -0.1271
 1671POSM   C3B19609  15.157  12.234  13.876 -0.1489  0.3441  0.2324
 1671POSM   C4B19610  15.002  12.072  13.445  0.0489  0.1135  0.4076
 1672POSM   NC319611  16.294  15.116  14.542 -0.1143 -0.0557 -0.1006
 1672POSM   PO419612  16.309  14.811  14.300 -0.1063  0.3131  0.2342
 1672POSM   AM119613  16.333  14.826  13.981  0.1232 -0.0026 -0.1050
 1672POSM   AM219614  16.131  14.907  13.761 -0.1505 -0.0503 -0.0550
 1672POSM   T1A19615  16.530  15.146  13.601 -0.1668  0.2703  0.3134
 1672POSM   C2A19616  16.433  15.565  13.495  0.2105 -0.2572  0.0434
 1672POSM   C3A19617  16.276  15.911  13.197 -0.2079  0.0438 -0.2727
 1672POSM   C1B19618  16.147  14.559  13.671  0.1810  0.3352  0.0174
 1672POSM   D2B19619  16.286  14.206  13.404  0.1920 -0.0515  0.2150
 1672POSM   C3B19620  16.069  13.917  13.086 -0.0452 -0.2226  0.2847
 1672POSM   C4B19621  15.762  13.609  12.872 -0.2529 -0.2662 -0.0542
 1673DOPC   NC319622  16.988  18.214  14.602 -0.1659 -0.0209  0.0638
 1673DOPC   PO419623  17.377  18.327  14.519  0.0067 -0.1465  0.1486
 1673DOPC   GL119624  17.707  18.301  14.240 -0.3491  0.1340 -0.0919
 1673DOPC   GL219625  17.572  18.171  13.996 -0.1503  0.0338  0.0408
 1673DOPC   C1A19626  18.063  18.008  14.099  0.1390 -0.2891  0.2493
 1673DOPC   D2A19627  18.420  17.763  13.845 -0.1047 -0.0442 -0.2420
 1673DOPC   C3A19628  18.533  18.176  14.034 -0.1928 -0.1845  0.0969
 1673DOPC   C4A19629  18.514  18.465  14.473  0.0676  0.1661 -0.2837
 1673DOPC   C1B19630  17.594  18.325  13.552  0.2675 -0.1338  0.1856
 1673DOPC   D2B19631  17.333  18.449  13.144 -0.2386  0.2462 -0.2523
 1673DOPC   C3B19632  17.570  18.528  12.806 -0.1368 -0.0084  0.1860
 1673DOPC   C4B19633  17.869  18.874  12.579  0.0472  0.2306 -0.0064
 1674DOPC   NC319634  16.055  20.919  14.753 -0.1228 -0.1124  0.2078
 1674DOPC   PO419635  15.884  20.542  14.809  0.1779  0.1967 -0.4251
 1674DOPC   GL119636  15.680  20.410  14.453  0.0614 -0.1455 -0.2335
 1674DOPC   GL219637  15.698  20.632  14.318 -0.1801 -0.1862  0.1281
 1674DOPC   C1A19638  15.526  20.260  14.031 -0.0753 -0.1333  0.3211
 1674DOPC   D2A19639  15.677  20.155  13.661  0.3337  0.0750  0.1312
 1674DOPC   C3A19640  15.404  19.854  13.470 -0.2027  0.2799  0.0805
 1674DOPC   C4A19641  15.312  19.398  13.294 -0.0966  0.0043 -0.1043
 1674DOPC   C1B19642  15.388  20.765  14.027 -0.0754  0.0979 -0.2604
 1674DOPC   D2B19643  15.197  20.618  13.664  0.2580  0.1317 -0.1052
 1674DOPC   C3B19644  15.361  20.348  13.294 -0.1950 -0.2111 -0.1171
 1674DOPC   C4B19645  15.753  20.095  13.164 -0.0445  0.2157  0.1570
 1675POSM   NC319646  15.076  20.942  14.370  0.0291  0.1270 -0.0485
 1675POSM   PO419647  14.726  20.972  14.491  0.0512 -0.0919 -0.0557
 1675POSM   AM119648  14.734  21.312  14.423  0.1453 -0.0947  0.1853
 1675POSM   AM219649  14.800  21.417  14.209 -0.1163 -0.2808 -0.0430
 1675POSM   T1A19650  14.341  21.557  14.237  0.1340 -0.2583 -0.0548
 1675POSM   C2A19651  14.208  21.821  13.880  0.0044 -0.2256 -0.0895
 1675POSM   C3A19652  14.265  22.133  13.583 -0.3375  0.1689  0.0637
 1675POSM   C1B19653  14.729  21.597  13.939 -0.0093 -0.5932  0.2673
 1675POSM   D2B19654  14.556  21.690  13.512 -0.0153 -0.0659  0.0773
 1675POSM   C3B19655  14.506  21.271  13.345 -0.1346 -0.2237  0.2466
 1675POSM   C4B19656  14.282  20.885  13.365 -0.0392  0.2296 -0.0134
 1676DOPC   NC319657  21.033  13.353  14.890  0.4009  0.1158 -0.1546
 1676DOPC   PO419658  20.863  13.590  14.645 -0.0233 -0.1721  0.1207
 1676DOPC   GL119659  20.686  13.530  14.238  0.1868  0.0976  0.4512
 1676DOPC   GL219660  20.523  13.738  14.125 -0.0284 -0.1719  0.1657
 1676DOPC   C1A19661  20.918  13.520  13.862 -0.2535 -0.1156  0.1984
 1676DOPC   D2A19662  21.216  13.418  13.547  0.1239 -0.0511 -0.2017
 1676DOPC   C3A19663  21.115  13.654  13.217 -0.2333  0.0709  0.3479
 1676DOPC   C4A19664  20.808  13.639  12.869  0.2306  0.1513  0.0790
 1676DOPC   C1B19665  20.552  13.934  13.697  0.0157  0.4321  0.0069
 1676DOPC   D2B19666  20.641  13.980  13.282 -0.4577  0.1207  0.1851
 1676DOPC   C3B19667  20.524  14.321  12.998 -0.2954  0.1945 -0.1944
 1676DOPC   C4B19668  20.308  14.520  12.642 -0.3383 -0.1298 -0.2750
 1677POSM   NC319669  11.236  19.859  15.125  0.3682  0.2264 -0.1696
 1677POSM   PO419670  11.184  19.469  15.185  0.2998  0.0849  0.0275
 1677POSM   AM119671  11.356  19.456  14.912 -0.1322  0.0942 -0.3567
 1677POSM   AM219672  11.533  19.616  14.788 -0.0569 -0.1456  0.0739
 1677POSM   T1A19673  11.378  19.205  14.435  0.0991 -0.0145  0.0191
 1677POSM   C2A19674  11.485  19.037  13.997  0.2442  0.1561  0.3165
 1677POSM   C3A19675  11.313  18.688  13.687  0.3506 -0.0331  0.2543
 1677POSM   C1B19676  11.487  19.728  14.500  0.1972  0.1265  0.0228
 1677POSM   D2B19677  11.476  19.800  14.031 -0.0301  0.1330  0.0578
 1677POSM   C3B19678  11.760  19.706  13.667  0.0564 -0.1323 -0.1709
 1677POSM   C4B19679  12.034  19.476  13.380  0.1352  0.0095 -0.0581
 1678DOPC   NC319680  14.491  16.510  14.419  0.0759 -0.2668  0.1569
 1678DOPC   PO419681  14.741  16.216  14.407 -0.1579 -0.0714 -0.0886
 1678DOPC   GL119682  14.633  16.210  14.000  0.2747  0.2572 -0.1026
 1678DOPC   GL219683  14.330  16.157  14.022  0.2163 -0.0174  0.0408
 1678DOPC   C1A19684  14.639  16.357  13.553  0.0334 -0.1007 -0.2828
 1678DOPC   D2A19685  14.538  16.731  13.279 -0.1157  0.1412  0.1276
 1678DOPC   C3A19686  14.951  16.934  13.405  0.1078  0.0926 -0.1460
 1678DOPC   C4A19687  15.405  16.957  13.387  0.1259  0.2451  0.2320
 1678DOPC   C1B19688  14.334  15.914  13.637 -0.2169  0.0468 -0.3081
 1678DOPC   D2B19689  14.547  15.561  13.348  0.1365  0.0535  0.3505
 1678DOPC   C3B19690  14.363  15.275  13.051  0.3578  0.2076 -0.0515
 1678DOPC   C4B19691  14.314  14.862  12.814 -0.0473  0.0802 -0.1181
 1679POSM   NC319692  13.704  22.037  15.094 -0.0616  0.0624  0.1841
 1679POSM   PO419693  13.545  22.342  15.266 -0.0475  0.2593 -0.0645
 1679POSM   AM119694  13.396  22.486  15.043  0.1355 -0.0236 -0.0395
 1679POSM   AM219695  13.228  22.449  14.806  0.2047 -0.0130 -0.1422
 1679POSM   T1A19696  12.963  22.757  15.031  0.0810 -0.0612 -0.1264
 1679POSM   C2A19697  12.743  22.977  14.740 -0.4094  0.1813 -0.0102
 1679POSM   C3A19698  12.477  23.280  14.417  0.0274  0.1139 -0.0475
 1679POSM   C1B19699  13.235  22.627  14.498  0.1854  0.0327 -0.0114
 1679POSM   D2B19700  13.203  22.696  14.014 -0.1417  0.1656 -0.2967
 1679POSM   C3B19701  13.291  22.247  13.920 -0.3130  0.1031  0.0411
 1679POSM   C4B19702  13.192  21.782  13.885  0.1276 -0.0659 -0.1123
 1680DOPE   NH319703  15.427  17.859  14.943  0.0084 -0.2170  0.0366
 1680DOPE   PO419704  15.347  17.864  14.622 -0.2882  0.1390 -0.0158
 1680DOPE   GL119705  15.276  18.189  14.356  0.2547  0.1639  0.1399
 1680DOPE   GL219706  14.992  18.274  14.343  0.2624 -0.1141 -0.4846
 1680DOPE   C1A19707  15.199  18.200  13.917 -0.1079 -0.0897  0.2549
 1680DOPE   D2A19708  15.414  18.426  13.552 -0.3058  0.0488  0.0789
 1680DOPE   C3A19709  15.882  18.543  13.533  0.2158  0.3492  0.1832
 1680DOPE   C4A19710  16.323  18.633  13.732  0.0622  0.3461  0.0287
 1680DOPE   C1B19711  14.615  18.512  14.312 -0.1627  0.0890  0.0125
 1680DOPE   D2B19712  14.316  18.706  14.065  0.3239 -0.1855 -0.0429
 1680DOPE   C3B19713  14.487  19.001  13.782  0.2082  0.0219  0.0819
 1680DOPE   C4B19714  14.723  19.231  13.442 -0.0308  0.0267  0.0144
 1681DOPC   NC319715  21.814  13.456  14.777  0.1731 -0.2629  0.3175
 1681DOPC   PO419716  21.548  13.290  14.985  0.0259  0.2084 -0.1746
 1681DOPC   GL119717  21.450  13.243  14.637 -0.2851  0.3122  0.0129
 1681DOPC   GL219718  21.389  13.530  14.533  0.0913 -0.1350 -0.1080
 1681DOPC   C1A19719  21.500  12.889  14.425  0.0921 -0.0452 -0.2779
 1681DOPC   D2A19720  21.232  12.667  14.106 -0.2258  0.1641 -0.0658
 1681DOPC   C3A19721  21.071  12.594  13.699 -0.0370 -0.1180 -0.0301
 1681DOPC   C4A19722  21.212  12.376  13.328  0.0716  0.2148  0.1228
 1681DOPC   C1B19723  21.730  13.508  14.214 -0.3179 -0.1682 -0.0834
 1681DOPC   D2B19724  22.069  13.466  13.984 -0.0549  0.0940 -0.1180
 1681DOPC   C3B19725  22.095  13.300  13.529 -0.3663 -0.1778  0.0469
 1681DOPC   C4B19726  21.810  13.065  13.246  0.3610  0.1125 -0.1995
 1682DOPC   NC319727  17.921  12.766  15.056 -0.0577 -0.0275  0.0262
 1682DOPC   PO419728  18.169  12.517  15.242 -0.2190  0.2371 -0.0891
 1682DOPC   GL119729  18.204  12.412  14.870  0.3631 -0.2859 -0.1923
 1682DOPC   GL219730  18.311  12.105  14.863 -0.0350  0.2995  0.1049
 1682DOPC   C1A19731  18.122  12.531  14.450 -0.0420 -0.0175  0.1126
 1682DOPC   D2A19732  18.382  12.755  14.028  0.1165  0.2092  0.1222
 1682DOPC   C3A19733  18.216  12.801  13.585 -0.2951 -0.1622  0.1028
 1682DOPC   C4A19734  18.128  12.538  13.244 -0.0903 -0.1236 -0.1865
 1682DOPC   C1B19735  18.410  11.990  14.407 -0.1143 -0.0041 -0.1005
 1682DOPC   D2B19736  18.366  11.760  13.978 -0.1225 -0.0443  0.0520
 1682DOPC   C3B19737  18.044  11.509  13.741  0.1646 -0.1299 -0.0833
 1682DOPC   C4B19738  17.637  11.482  13.602 -0.3392 -0.0602  0.0383
 1683DOPC   NC319739  15.211  16.051  14.632  0.1005  0.1386 -0.0640
 1683DOPC   PO419740  15.509  15.847  14.450  0.0326  0.1337 -0.2561
 1683DOPC   GL119741  15.420  16.136  14.097  0.1961  0.1381 -0.0244
 1683DOPC   GL219742  15.161  16.146  14.118  0.0049  0.0229  0.0102
 1683DOPC   C1A19743  15.739  16.415  13.846  0.0815  0.3419 -0.0706
 1683DOPC   D2A19744  15.711  16.841  13.917  0.0490  0.2738  0.0158
 1683DOPC   C3A19745  15.866  17.081  13.517  0.0267  0.0314  0.2144
 1683DOPC   C4A19746  15.855  17.040  13.056  0.0771  0.0005  0.1364
 1683DOPC   C1B19747  15.059  16.081  13.722  0.1124 -0.2335  0.0606
 1683DOPC   D2B19748  14.869  16.001  13.313 -0.0969  0.2003 -0.2507
 1683DOPC   C3B19749  14.492  16.003  13.066 -0.0319  0.2431  0.0466
 1683DOPC   C4B19750  14.042  15.810  13.137  0.1026 -0.1356 -0.0622
 1684DOPC   NC319751  21.605  19.754  15.434  0.3481 -0.3905 -0.0990
 1684DOPC   PO419752  21.928  19.838  15.290 -0.1650 -0.0293 -0.0076
 1684DOPC   GL119753  22.096  19.921  14.909  0.3133 -0.4430 -0.1893
 1684DOPC   GL219754  21.981  19.759  14.690  0.0704 -0.1277 -0.2315
 1684DOPC   C1A19755  22.070  20.264  14.589  0.1718  0.1236  0.1235
 1684DOPC   D2A19756  22.024  20.297  14.085 -0.0101 -0.1471  0.1978
 1684DOPC   C3A19757  21.850  20.408  13.740  0.0990 -0.1947  0.0944
 1684DOPC   C4A19758  21.551  20.670  13.426 -0.1515  0.0269 -0.0817
 1684DOPC   C1B19759  21.789  19.556  14.324  0.1058 -0.0477 -0.1173
 1684DOPC   D2B19760  21.815  19.231  13.980 -0.0106  0.2909  0.0250
 1684DOPC   C3B19761  21.568  18.811  13.978 -0.1580  0.0302 -0.1845
 1684DOPC   C4B19762  21.735  18.398  13.874 -0.0582 -0.1176 -0.0180
 1685DOPS   CNO19763  17.636  17.804  14.400 -0.1647  0.2715  0.2801
 1685DOPS   PO419764  17.483  17.504  14.575  0.0325 -0.1015 -0.1883
 1685DOPS   GL119765  17.563  17.306  14.182  0.2881 -0.3407  0.0025
 1685DOPS   GL219766  17.853  17.190  14.198 -0.2229 -0.0412 -0.0080
 1685DOPS   C1A19767  17.509  17.253  13.687 -0.0533  0.1269  0.0943
 1685DOPS   D2A19768  17.816  17.383  13.348 -0.2591  0.0827 -0.0958
 1685DOPS   C3A19769  18.089  17.031  13.188 -0.3294 -0.2812  0.3693
 1685DOPS   C4A19770  18.438  16.860  12.901 -0.0490  0.1820 -0.0178
 1685DOPS   C1B19771  18.019  17.495  13.948  0.3540  0.0496  0.0854
 1685DOPS   D2B19772  17.772  17.800  13.637 -0.0905 -0.0855 -0.0498
 1685DOPS   C3B19773  17.807  17.852  13.191  0.1440 -0.2575 -0.2218
 1685DOPS   C4B19774  17.739  18.057  12.832  0.0656  0.0165  0.3164
 1686DOPC   NC319775  17.742  15.815  14.759  0.4142 -0.0177 -0.1649
 1686DOPC   PO419776  18.089  15.930  14.611 -0.0666 -0.1002  0.0812
 1686DOPC   GL119777  18.320  16.045  14.287 -0.1299  0.3712  0.0786
 1686DOPC   GL219778  18.088  16.144  14.132  0.2097  0.2301 -0.0061
 1686DOPC   C1A19779  18.457  15.839  13.879  0.0846 -0.2203  0.3266
 1686DOPC   D2A19780  18.647  15.541  13.532  0.0947 -0.3452  0.2134
 1686DOPC   C3A19781  18.993  15.732  13.252 -0.0490  0.0110 -0.0209
 1686DOPC   C4A19782  19.406  15.693  13.484 -0.0444 -0.1124  0.0963
 1686DOPC   C1B19783  18.262  16.398  13.818  0.1468  0.0461 -0.0166
 1686DOPC   D2B19784  18.441  16.591  13.415 -0.0427  0.2502  0.0062
 1686DOPC   C3B19785  18.206  16.431  13.036  0.1490  0.0454 -0.0009
 1686DOPC   C4B19786  17.764  16.362  12.814  0.1324 -0.1387  0.2275
 1687DOPS   CNO19787  19.281  20.030  14.827  0.3320 -0.3984 -0.0871
 1687DOPS   PO419788  19.574  20.197  14.644  0.0140 -0.3486  0.3827
 1687DOPS   GL119789  19.480  20.239  14.256 -0.2173 -0.3238  0.2224
 1687DOPS   GL219790  19.213  20.190  14.238 -0.1888 -0.0067  0.3117
 1687DOPS   C1A19791  19.731  20.165  13.852 -0.3242  0.1908 -0.1560
 1687DOPS   D2A19792  19.799  20.169  13.406  0.0598  0.2036 -0.0946
 1687DOPS   C3A19793  19.834  20.142  12.895 -0.1705  0.0083  0.0505
 1687DOPS   C4A19794  20.139  20.135  12.630  0.1870  0.0048  0.0736
 1687DOPS   C1B19795  19.324  19.805  14.066 -0.1895  0.2281 -0.0716
 1687DOPS   D2B19796  19.173  19.567  13.599  0.1233 -0.0927  0.1414
 1687DOPS   C3B19797  18.859  19.808  13.435 -0.2172 -0.1670  0.3913
 1687DOPS   C4B19798  18.618  20.220  13.313  0.0304 -0.2292 -0.3489
 1688POSM   NC319799  23.278  12.263  15.102  0.1943 -0.1380 -0.0385
 1688POSM   PO419800  23.053  11.989  15.316  0.1722 -0.0890  0.0498
 1688POSM   AM119801  23.306  11.806  15.244 -0.4701 -0.0335  0.3264
 1688POSM   AM219802  23.444  11.559  15.351 -0.0315  0.0306 -0.0254
 1688POSM   T1A19803  23.799  11.842  15.065  0.3128 -0.3600  0.3062
 1688POSM   C2A19804  24.152  11.698  14.903  0.0063 -0.0358  0.3617
 1688POSM   C3A19805  24.454  11.508  14.629  0.2714  0.1690  0.0134
 1688POSM   C1B19806  23.463  11.416  15.050  0.1858  0.1699  0.2920
 1688POSM   D2B19807  23.336  11.060  14.766  0.3832 -0.0555 -0.1291
 1688POSM   C3B19808  23.355  11.000  14.284 -0.2078 -0.2405 -0.1284
 1688POSM   C4B19809  23.218  10.931  13.845 -0.3127  0.1443 -0.1665
 1689DOPS   CNO19810  16.019  15.964  14.262  0.2024  0.1526 -0.2455
 1689DOPS   PO419811  16.358  16.131  14.345 -0.1492  0.1104  0.0534
 1689DOPS   GL119812  16.621  16.089  13.948  0.0438 -0.1497  0.0651
 1689DOPS   GL219813  16.447  15.830  13.892 -0.2154 -0.0675  0.0480
 1689DOPS   C1A19814  16.461  16.225  13.512  0.0108 -0.2022  0.1997
 1689DOPS   D2A19815  16.000  16.490  13.482 -0.1111 -0.1022 -0.0925
 1689DOPS   C3A19816  15.656  16.541  13.205  0.1900  0.1455 -0.2288
 1689DOPS   C4A19817  15.310  16.362  12.916 -0.1997 -0.0352 -0.3061
 1689DOPS   C1B19818  16.044  15.836  13.652 -0.0442  0.0157  0.4123
 1689DOPS   D2B19819  15.829  15.688  13.293  0.1640 -0.1892 -0.0008
 1689DOPS   C3B19820  16.001  15.520  12.967  0.2395 -0.0247  0.2059
 1689DOPS   C4B19821  16.056  15.144  12.708 -0.1433 -0.2229  0.2051
 1690DOPS   CNO19822  12.427  13.800  14.293  0.3773 -0.2896 -0.0577
 1690DOPS   PO419823  12.706  14.053  14.403  0.2299  0.0437 -0.0634
 1690DOPS   GL119824  12.547  14.163  13.972 -0.1489  0.0590 -0.6223
 1690DOPS   GL219825  12.738  14.241  13.861 -0.0158  0.3737  0.1033
 1690DOPS   C1A19826  12.185  14.022  13.702  0.3097  0.2535  0.0887
 1690DOPS   D2A19827  11.869  13.814  13.430  0.1854  0.1093  0.0592
 1690DOPS   C3A19828  11.867  14.069  13.029 -0.2469  0.1508  0.1375
 1690DOPS   C4A19829  11.883  14.055  12.543 -0.1158 -0.1866  0.3293
 1690DOPS   C1B19830  12.436  14.439  13.630  0.0656  0.2351 -0.1742
 1690DOPS   D2B19831  12.158  14.363  13.306  0.4267  0.0629  0.0485
 1690DOPS   C3B19832  12.323  14.200  12.900 -0.2783 -0.0985  0.1625
 1690DOPS   C4B19833  12.335  14.219  12.442 -0.2766  0.2294 -0.1850
 1691DOPE   NH319834  14.569  15.836  14.642  0.1060  0.0491 -0.1557
 1691DOPE   PO419835  14.840  15.705  14.773  0.2045 -0.2484 -0.0743
 1691DOPE   GL119836  14.750  15.521  14.339 -0.0248  0.4575 -0.0034
 1691DOPE   GL219837  14.817  15.784  14.188 -0.4754  0.0205 -0.1291
 1691DOPE   C1A19838  15.016  15.370  13.986 -0.1228 -0.2214 -0.2613
 1691DOPE   D2A19839  14.962  14.991  13.717 -0.1801  0.1858  0.0383
 1691DOPE   C3A19840  15.061  15.112  13.256  0.2980 -0.0759  0.3573
 1691DOPE   C4A19841  14.924  14.945  12.860 -0.1897 -0.3721  0.2245
 1691DOPE   C1B19842  14.763  15.731  13.748 -0.0921  0.0762 -0.0893
 1691DOPE   D2B19843  15.041  15.571  13.460 -0.0565  0.0291  0.3060
 1691DOPE   C3B19844  14.898  15.563  13.008 -0.0548  0.1173  0.0338
 1691DOPE   C4B19845  14.723  15.744  12.636 -0.3246  0.3357 -0.1034
 1692DOPE   NH319846  20.723  11.942  15.164  0.2366  0.0117 -0.0314
 1692DOPE   PO419847  20.655  12.228  15.211 -0.3132 -0.1080 -0.2572
 1692DOPE   GL119848  20.487  12.336  14.887 -0.0472  0.1195 -0.1308
 1692DOPE   GL219849  20.592  12.516  14.816  0.2002  0.0220  0.1219
 1692DOPE   C1A19850  20.214  12.349  14.470 -0.2527  0.1762  0.1534
 1692DOPE   D2A19851  19.812  12.373  14.282 -0.0980  0.0325 -0.2536
 1692DOPE   C3A19852  19.843  12.025  13.929  0.2512  0.0378  0.2745
 1692DOPE   C4A19853  19.755  11.858  13.491  0.0766  0.0867  0.0197
 1692DOPE   C1B19854  20.908  12.632  14.494 -0.0531 -0.2817  0.1858
 1692DOPE   D2B19855  21.012  13.089  14.387 -0.1235 -0.1687  0.1726
 1692DOPE   C3B19856  21.315  13.335  14.103 -0.0514  0.2205  0.4729
 1692DOPE   C4B19857  21.628  13.323  13.752 -0.0523 -0.2056 -0.1642
 1693DOPE   NH319858  19.698  21.388  14.670 -0.2818  0.0727  0.0519
 1693DOPE   PO419859  19.435  21.463  14.678  0.0463 -0.0679  0.3720
 1693DOPE   GL119860  19.416  21.701  14.417  0.0423 -0.3759 -0.0065
 1693DOPE   GL219861  19.337  22.020  14.420  0.1267  0.0720  0.1707
 1693DOPE   C1A19862  19.624  21.906  14.029 -0.2879 -0.2834 -0.1672
 1693DOPE   D2A19863  19.702  22.179  13.654  0.1406  0.1636 -0.4227
 1693DOPE   C3A19864  19.395  22.491  13.567  0.1941 -0.0170  0.0220
 1693DOPE   C4A19865  19.231  22.708  13.192  0.0567 -0.0587 -0.1455
 1693DOPE   C1B19866  19.140  22.124  14.016  0.0046  0.0122  0.2831
 1693DOPE   D2B19867  19.147  22.039  13.541 -0.4061 -0.2545 -0.0224
 1693DOPE   C3B19868  19.137  21.670  13.246 -0.0432  0.3503  0.2388
 1693DOPE   C4B19869  19.105  21.388  12.859 -0.0069  0.1008 -0.2122
 1694DOPC   NC319870  16.370  19.331  14.824 -0.0282  0.1372  0.1545
 1694DOPC   PO419871  16.084  19.095  14.801  0.1008 -0.0526 -0.0632
 1694DOPC   GL119872  16.041  19.006  14.451  0.2383  0.2552  0.5397
 1694DOPC   GL219873  16.136  19.224  14.296 -0.0006 -0.1086  0.0838
 1694DOPC   C1A19874  16.036  18.574  14.151 -0.1341 -0.2590  0.2100
 1694DOPC   D2A19875  15.707  18.180  13.939  0.4760 -0.0095  0.5790
 1694DOPC   C3A19876  15.833  17.794  13.817 -0.0555 -0.1807 -0.1974
 1694DOPC   C4A19877  16.042  17.585  13.502 -0.3084  0.0892 -0.2858
 1694DOPC   C1B19878  15.990  19.040  13.869 -0.0396  0.1025  0.0936
 1694DOPC   D2B19879  16.044  19.040  13.408  0.2425  0.1237 -0.1008
 1694DOPC   C3B19880  16.195  19.366  13.115  0.0575 -0.4561 -0.2258
 1694DOPC   C4B19881  16.533  19.667  13.027  0.1699  0.1203 -0.1186
 1695DOPC   NC319882  22.806  15.709  15.391 -0.1834  0.2286  0.0077
 1695DOPC   PO419883  22.765  15.552  15.025  0.0790  0.1277 -0.0948
 1695DOPC   GL119884  22.842  15.848  14.831 -0.3192 -0.2301  0.0933
 1695DOPC   GL219885  22.998  16.047  14.887 -0.0420 -0.1972  0.3126
 1695DOPC   C1A19886  22.662  16.045  14.430 -0.1440 -0.0987  0.1878
 1695DOPC   D2A19887  22.688  16.328  14.062 -0.0444 -0.1545 -0.0643
 1695DOPC   C3A19888  22.577  16.313  13.588  0.0524 -0.3449  0.2112
 1695DOPC   C4A19889  22.607  16.319  13.135  0.0271  0.0034  0.0150
 1695DOPC   C1B19890  23.243  16.033  14.471 -0.0641  0.1706 -0.0224
 1695DOPC   D2B19891  23.086  15.874  14.134  0.1746  0.1602 -0.1694
 1695DOPC   C3B19892  23.306  15.604  13.828 -0.0414 -0.2558 -0.1347
 1695DOPC   C4B19893  23.546  15.672  13.450 -0.0371 -0.0812  0.3938
 1696POSM   NC319894  14.849  16.575  14.795  0.2434 -0.0505 -0.1852
 1696POSM   PO419895  14.871  16.938  14.626  0.0474  0.2599 -0.1184
 1696POSM   AM119896  14.891  16.844  14.342  0.1073  0.1915  0.0610
 1696POSM   AM219897  14.886  16.701  14.114 -0.1240  0.3044  0.2678
 1696POSM   T1A19898  15.236  17.078  14.036 -0.1865  0.0574 -0.1517
 1696POSM   C2A19899  15.537  17.380  13.803 -0.3358  0.0347  0.1049
 1696POSM   C3A19900  15.601  17.544  13.370  0.0692 -0.0085  0.0601
 1696POSM   C1B19901  15.017  16.671  13.815  0.4927  0.1294 -0.1810
 1696POSM   D2B19902  15.150  16.451  13.416  0.1696 -0.1047  0.0875
 1696POSM   C3B19903  14.848  16.404  13.039  0.2300 -0.0510 -0.2498
 1696POSM   C4B19904  14.762  16.749  12.792 -0.4185  0.0655 -0.0230
 1697POSM   NC319905  14.132  21.622  15.354  0.0610 -0.1119 -0.0443
 1697POSM   PO419906  13.817  21.422  15.285  0.0447 -0.1354 -0.1769
 1697POSM   AM119907  13.754  21.543  15.013 -0.2450 -0.1113  0.2119
 1697POSM   AM219908  13.548  21.470  14.827  0.1668 -0.3206  0.1658
 1697POSM   T1A19909  13.815  21.771  14.570  0.1911 -0.0136 -0.1251
 1697POSM   C2A19910  13.708  21.649  14.182  0.2292  0.1252 -0.1572
 1697POSM   C3A19911  13.778  21.269  13.895  0.0753 -0.2110  0.1880
 1697POSM   C1B19912  13.319  21.528  14.608 -0.0985  0.0597 -0.1553
 1697POSM   D2B19913  12.932  21.685  14.404 -0.0154 -0.2800 -0.1072
 1697POSM   C3B19914  12.684  21.524  14.066  0.3907 -0.0814  0.0366
 1697POSM   C4B19915  12.375  21.357  13.832  0.1061 -0.1533  0.1074
 1698DOPE   NH319916  13.715  14.277  14.317  0.2615  0.0223  0.0044
 1698DOPE   PO419917  13.516  14.136  14.090 -0.0445  0.1906  0.0840
 1698DOPE   GL119918  13.914  14.338  13.931  0.2926 -0.0209  0.2245
 1698DOPE   GL219919  13.951  14.626  14.075  0.1477  0.0941  0.0401
 1698DOPE   C1A19920  14.158  14.465  13.550 -0.0178  0.1746  0.0370
 1698DOPE   D2A19921  14.354  14.461  13.095  0.2187  0.1986  0.0947
 1698DOPE   C3A19922  14.433  14.114  12.842 -0.1026  0.4107 -0.1979
 1698DOPE   C4A19923  14.860  13.901  12.704  0.2751  0.1096 -0.2056
 1698DOPE   C1B19924  13.794  14.850  13.687 -0.3009  0.1573  0.4476
 1698DOPE   D2B19925  13.585  14.735  13.317 -0.0563  0.2132  0.0129
 1698DOPE   C3B19926  13.924  14.639  13.041 -0.0856  0.0461 -0.1343
 1698DOPE   C4B19927  14.022  14.460  12.653  0.0880  0.0544 -0.3456
 1699DOPE   NH319928  12.871  15.205  14.498  0.0615  0.0417 -0.2046
 1699DOPE   PO419929  12.915  14.953  14.312 -0.2560  0.0086  0.1497
 1699DOPE   GL119930  13.002  15.128  13.959  0.0058  0.0150  0.1741
 1699DOPE   GL219931  12.854  15.224  13.739 -0.1579 -0.0363 -0.3001
 1699DOPE   C1A19932  13.172  15.577  13.987  0.0315 -0.0340 -0.0922
 1699DOPE   D2A19933  13.521  15.702  13.669 -0.1684 -0.0866  0.0486
 1699DOPE   C3A19934  13.476  15.794  13.150  0.0996  0.2426  0.0109
 1699DOPE   C4A19935  13.252  16.010  12.793  0.1220 -0.2205  0.2560
 1699DOPE   C1B19936  12.627  15.074  13.409  0.0578  0.1206 -0.2085
 1699DOPE   D2B19937  12.182  14.959  13.240 -0.1051 -0.2981  0.1478
 1699DOPE   C3B19938  11.962  15.106  12.830 -0.1468 -0.1168 -0.1025
 1699DOPE   C4B19939  12.012  15.218  12.424 -0.1736 -0.1696  0.2643
 1700DOPE   NH319940  17.378  22.372  14.711 -0.4402  0.4142  0.1872
 1700DOPE   PO419941  17.266  22.642  14.689  0.0430 -0.0501 -0.1070
 1700DOPE   GL119942  17.026  22.860  14.500 -0.1155 -0.2812 -0.0496
 1700DOPE   GL219943  16.762  22.954  14.586 -0.0105 -0.2827  0.2145
 1700DOPE   C1A19944  16.986  22.916  14.049 -0.0182  0.0307  0.1587
 1700DOPE   D2A19945  16.823  23.160  13.680  0.1606 -0.1001 -0.1668
 1700DOPE   C3A19946  16.672  23.586  13.763 -0.1381  0.1153  0.1803
 1700DOPE   C4A19947  16.579  23.983  14.000 -0.1153  0.0064 -0.1130
 1700DOPE   C1B19948  16.581  23.187  14.214  0.0706 -0.1441  0.1307
 1700DOPE   D2B19949  16.203  23.335  14.042 -0.0205  0.0331  0.2062
 1700DOPE   C3B19950  16.037  23.639  13.689  0.1333 -0.0262 -0.0873
 1700DOPE   C4B19951  15.945  24.014  13.413  0.0672 -0.3571  0.0295
 1701DOPC   NC319952  11.984  12.546  15.237  0.0609  0.1816 -0.1936
 1701DOPC   PO419953  12.071  12.850  15.057 -0.3295 -0.0222  0.0334
 1701DOPC   GL119954  12.016  12.698  14.648 -0.4356  0.4781 -0.1001
 1701DOPC   GL219955  12.148  12.491  14.569  0.0871  0.2632 -0.2044
 1701DOPC   C1A19956  11.698  12.644  14.339 -0.1969 -0.0544 -0.0909
 1701DOPC   D2A19957  11.297  12.820  14.044 -0.1998  0.1818  0.0759
 1701DOPC   C3A19958  11.248  13.117  13.678 -0.0751  0.0486  0.0270
 1701DOPC   C4A19959  10.885  13.335  13.573  0.0501 -0.2543  0.0352
 1701DOPC   C1B19960  11.981  12.224  14.269  0.1132  0.1233 -0.3116
 1701DOPC   D2B19961  11.897  12.174  13.789  0.1175  0.1378  0.0087
 1701DOPC   C3B19962  11.451  12.199  13.660 -0.1349 -0.1199  0.2240
 1701DOPC   C4B19963  11.274  11.991  13.293  0.2868  0.1887 -0.0985
 1702DOPC   NC319964  12.098  17.321  14.507 -0.0120  0.0038  0.2532
 1702DOPC   PO419965  11.992  17.629  14.762  0.3630 -0.1836  0.2554
 1702DOPC   GL119966  11.638  17.587  14.607 -0.0341 -0.2656  0.4131
 1702DOPC   GL219967  11.654  17.892  14.449  0.0935 -0.0693 -0.0373
 1702DOPC   C1A19968  11.473  17.265  14.297 -0.2618 -0.4287  0.1662
 1702DOPC   D2A19969  11.244  17.368  13.908  0.0595 -0.0228  0.1912
 1702DOPC   C3A19970  11.604  17.321  13.531  0.1079  0.0918  0.2322
 1702DOPC   C4A19971  12.037  17.264  13.362 -0.1666  0.1074 -0.0059
 1702DOPC   C1B19972  11.947  18.043  14.131  0.0107  0.2910 -0.1961
 1702DOPC   D2B19973  12.123  18.027  13.721 -0.4292 -0.0249  0.0901
 1702DOPC   C3B19974  12.319  17.681  13.495 -0.0642  0.1246 -0.2869
 1702DOPC   C4B19975  12.715  17.754  13.336  0.1842  0.0347  0.0360
 1703POSM   NC319976  17.466  13.331  15.020 -0.0468  0.3257  0.0530
 1703POSM   PO419977  17.131  13.406  15.248  0.0021  0.0265 -0.2574
 1703POSM   AM119978  16.977  13.391  14.949  0.0417  0.1843 -0.0307
 1703POSM   AM219979  16.927  13.625  14.792 -0.0330 -0.0630 -0.2876
 1703POSM   T1A19980  16.640  13.133  14.733  0.2273 -0.4650 -0.0813
 1703POSM   C2A19981  16.378  12.875  14.386 -0.0499  0.4070 -0.3147
 1703POSM   C3A19982  16.546  12.826  13.976  0.0709 -0.1202  0.1589
 1703POSM   C1B19983  16.923  13.487  14.523 -0.0565  0.2037  0.1646
 1703POSM   D2B19984  16.714  13.273  14.180  0.0671 -0.1984  0.1913
 1703POSM   C3B19985  16.262  13.400  14.173 -0.1306 -0.1730  0.0727
 1703POSM   C4B19986  15.824  13.614  14.189 -0.0992 -0.0897  0.0645
 1704DOPC   NC319987  13.609  22.558  15.758 -0.2733 -0.0364 -0.1147
 1704DOPC   PO419988  13.854  22.784  15.544 -0.2874 -0.0038 -0.0011
 1704DOPC   GL119989  13.962  22.751  15.212  0.0214 -0.0660 -0.0325
 1704DOPC   GL219990  13.917  22.585  14.902 -0.1123 -0.1068  0.0354
 1704DOPC   C1A19991  13.916  23.084  14.864 -0.0986  0.2336  0.2821
 1704DOPC   D2A19992  13.743  23.231  14.452  0.2016 -0.2920 -0.2266
 1704DOPC   C3A19993  13.563  23.635  14.423  0.0360  0.2042  0.0043
 1704DOPC   C4A19994  13.561  23.992  14.686  0.0476  0.1463  0.2247
 1704DOPC   C1B19995  13.958  22.690  14.454  0.2339  0.0057 -0.0425
 1704DOPC   D2B19996  14.090  22.552  14.010 -0.0394 -0.0978 -0.0626
 1704DOPC   C3B19997  13.829  22.480  13.676 -0.0240  0.1836  0.0262
 1704DOPC   C4B19998  13.432  22.376  13.485 -0.2571 -0.0638  0.1273
 1705DOPE   NH319999  20.160  13.405  14.928 -0.0446 -0.1327 -0.2089
 1705DOPE   PO420000  20.332  13.602  14.780 -0.1568  0.1055 -0.0402
 1705DOPE   GL120001  20.081  13.572  14.533 -0.0703 -0.0528  0.0963
 1705DOPE   GL220002  20.046  13.811  14.300 -0.2720  0.3302 -0.0832
 1705DOPE   C1A20003  20.171  13.284  14.189 -0.2515 -0.0692  0.3169
 1705DOPE   D2A20004  20.349  13.201  13.754 -0.1392  0.2363 -0.1893
 1705DOPE   C3A20005  20.299  12.711  13.618 -0.2160  0.2611  0.0686
 1705DOPE   C4A20006  20.288  12.257  13.415 -0.4158 -0.0003  0.3172
 1705DOPE   C1B20007  20.100  13.649  13.823 -0.1381  0.0268 -0.1024
 1705DOPE   D2B20008  20.184  13.554  13.365 -0.1749  0.2072 -0.1894
 1705DOPE   C3B20009  20.520  13.269  13.173 -0.1535 -0.0522 -0.0540
 1705DOPE   C4B20010  20.932  13.210  13.101 -0.0547 -0.1452  0.0973
 1706DOPC   NC320011  14.779  19.536  14.884 -0.0124 -0.3706 -0.3110
 1706DOPC   PO420012  14.745  19.181  15.112 -0.4126 -0.0103  0.1109
 1706DOPC   GL120013  14.496  19.081  14.774 -0.0902 -0.0881  0.2530
 1706DOPC   GL220014  14.774  19.077  14.639  0.1399 -0.1725  0.0670
 1706DOPC   C1A20015  14.370  19.100  14.299  0.0422  0.0835 -0.2854
 1706DOPC   D2A20016  14.031  19.171  13.975  0.0516 -0.0050 -0.2278
 1706DOPC   C3A20017  13.825  18.774  13.847 -0.0458  0.1344  0.3821
 1706DOPC   C4A20018  13.451  18.479  13.761 -0.0663  0.2994  0.2998
 1706DOPC   C1B20019  14.805  18.948  14.184  0.1937 -0.0364  0.1660
 1706DOPC   D2B20020  15.008  18.679  13.945 -0.2745 -0.2114 -0.0586
 1706DOPC   C3B20021  14.705  18.322  13.757 -0.0629 -0.0552  0.3019
 1706DOPC   C4B20022  14.485  17.928  13.552 -0.0294 -0.2776 -0.3070
 1707DOPE   NH320023  11.883  19.879  15.030  0.0903 -0.0316 -0.0108
 1707DOPE   PO420024  11.641  20.145  15.035  0.1101 -0.1338  0.0753
 1707DOPE   GL120025  11.843  20.238  14.718  0.2310  0.0125  0.2235
 1707DOPE   GL220026  11.820  20.527  14.746 -0.0606 -0.1064  0.3496
 1707DOPE   C1A20027  11.567  20.212  14.323  0.0003 -0.2109  0.1418
 1707DOPE   D2A20028  11.297  20.257  13.911  0.0229  0.1354  0.1093
 1707DOPE   C3A20029  11.350  19.985  13.532 -0.1018 -0.2915  0.2704
 1707DOPE   C4A20030  11.102  20.021  13.148  0.1962 -0.1153 -0.1047
 1707DOPE   C1B20031  11.811  20.701  14.303  0.2355  0.0240 -0.0120
 1707DOPE   D2B20032  12.065  20.631  13.903 -0.0232 -0.0286  0.0078
 1707DOPE   C3B20033  12.342  20.833  13.666 -0.0922 -0.1146 -0.3890
 1707DOPE   C4B20034  12.614  21.134  13.400 -0.1577  0.1566 -0.0841
 1708DOPE   NH320035  21.532  11.956  15.475 -0.0164  0.3351 -0.0254
 1708DOPE   PO420036  21.551  12.294  15.429 -0.2783 -0.1072  0.0221
 1708DOPE   GL120037  21.604  12.288  15.028  0.3083 -0.0533  0.1392
 1708DOPE   GL220038  21.702  12.478  14.853 -0.3290 -0.2323 -0.0694
 1708DOPE   C1A20039  21.771  12.037  14.655  0.1172 -0.1904 -0.2245
 1708DOPE   D2A20040  21.901  12.162  14.232 -0.1583  0.0183 -0.0343
 1708DOPE   C3A20041  21.753  12.538  14.068 -0.2444  0.3938  0.0123
 1708DOPE   C4A20042  21.583  12.835  13.768  0.0369  0.0183 -0.1692
 1708DOPE   C1B20043  21.490  12.339  14.408 -0.1029  0.0999  0.0524
 1708DOPE   D2B20044  21.046  12.158  14.282 -0.4941  0.2206 -0.3044
 1708DOPE   C3B20045  20.724  12.410  14.056  0.1508  0.1041  0.1220
 1708DOPE   C4B20046  20.262  12.257  13.885 -0.0503  0.6087 -0.1205
 1709DOPC   NC320047  14.490  14.635  14.379 -0.0346  0.2294 -0.0736
 1709DOPC   PO420048  14.217  14.367  14.491 -0.2193  0.1353  0.0231
 1709DOPC   GL120049  14.215  14.144  14.167  0.0376  0.5201  0.1765
 1709DOPC   GL220050  14.402  14.216  14.017  0.3521 -0.0600  0.1264
 1709DOPC   C1A20051  14.330  13.828  13.794  0.0451 -0.0634 -0.3104
 1709DOPC   D2A20052  14.624  13.629  13.533 -0.1517 -0.1840  0.3726
 1709DOPC   C3A20053  14.608  13.481  13.117  0.1583  0.2094 -0.0788
 1709DOPC   C4A20054  15.014  13.405  12.767  0.0339  0.3311  0.0187
 1709DOPC   C1B20055  14.583  14.229  13.625 -0.3061 -0.2095  0.2799
 1709DOPC   D2B20056  14.840  14.158  13.255 -0.0187  0.1056 -0.2401
 1709DOPC   C3B20057  15.010  14.446  12.934 -0.4148  0.2300  0.2239
 1709DOPC   C4B20058  15.154  14.452  12.523 -0.1772 -0.0479  0.2752
 1710DOPC   NC320059  15.958  15.829  14.708  0.0239  0.2450 -0.1438
 1710DOPC   PO420060  15.846  15.488  14.480  0.0562  0.3575  0.1786
 1710DOPC   GL120061  15.682  15.347  14.091  0.2239  0.1564  0.1141
 1710DOPC   GL220062  15.679  15.644  13.974 -0.0664 -0.2185 -0.2597
 1710DOPC   C1A20063  15.943  15.325  13.718  0.0196  0.0712  0.2430
 1710DOPC   D2A20064  16.099  15.248  13.322  0.2646 -0.1573  0.0746
 1710DOPC   C3A20065  16.501  15.207  13.090  0.2327 -0.2562  0.1884
 1710DOPC   C4A20066  16.515  14.825  12.764 -0.0470 -0.1105 -0.1168
 1710DOPC   C1B20067  15.599  15.974  13.672  0.2017  0.2283  0.0072
 1710DOPC   D2B20068  15.397  16.033  13.277 -0.1750 -0.1907  0.0711
 1710DOPC   C3B20069  15.679  16.057  12.955 -0.1359 -0.0899  0.0907
 1710DOPC   C4B20070  15.736  16.236  12.587  0.1031 -0.0538  0.0344
 1711DOPC   NC320071  23.042  20.899  14.886  0.0199  0.0238  0.1835
 1711DOPC   PO420072  23.399  20.661  14.845 -0.1406  0.0987 -0.1448
 1711DOPC   GL120073  23.342  20.407  14.435 -0.0957  0.1516  0.4188
 1711DOPC   GL220074  23.486  20.206  14.268 -0.4271 -0.0712 -0.0230
 1711DOPC   C1A20075  22.990  20.410  14.167  0.1890 -0.1362 -0.0145
 1711DOPC   D2A20076  22.869  20.392  13.715 -0.2850 -0.2907  0.0207
 1711DOPC   C3A20077  22.782  20.164  13.333  0.1126 -0.2360  0.1618
 1711DOPC   C4A20078  23.052  20.182  12.982 -0.1579 -0.4307 -0.2288
 1711DOPC   C1B20079  23.756  20.162  13.846 -0.1230  0.4572 -0.0339
 1711DOPC   D2B20080  23.782  20.051  13.418 -0.3425 -0.0304  0.0218
 1711DOPC   C3B20081  23.557  20.388  13.189 -0.0838  0.0693  0.0721
 1711DOPC   C4B20082  23.200  20.663  13.135  0.5479 -0.1018 -0.2832
 1712DOPC   NC320083  11.683  13.031  14.795 -0.0124  0.1437  0.0618
 1712DOPC   PO420084  11.554  12.760  15.096 -0.0837 -0.3269  0.0645
 1712DOPC   GL120085  11.347  12.704  14.815 -0.0138  0.1371  0.3663
 1712DOPC   GL220086  11.241  12.938  14.650 -0.0362  0.1006 -0.6062
 1712DOPC   C1A20087  11.223  12.475  14.458  0.1295  0.1477  0.2009
 1712DOPC   D2A20088  10.993  12.179  14.189  0.1972 -0.0975  0.0686
 1712DOPC   C3A20089  11.339  11.894  14.077 -0.1929 -0.2448 -0.2120
 1712DOPC   C4A20090  11.710  11.757  13.950  0.4478 -0.1709  0.0056
 1712DOPC   C1B20091  10.943  13.038  14.372 -0.1179 -0.0884 -0.3774
 1712DOPC   D2B20092  10.702  13.341  14.126 -0.2955  0.1327  0.0072
 1712DOPC   C3B20093  10.653  13.718  13.913 -0.2185 -0.2089 -0.0902
 1712DOPC   C4B20094  10.671  13.752  13.473  0.3499  0.0375 -0.2635
 1713DOPC   NC320095  17.721  14.636  14.604  0.0586  0.1244  0.0325
 1713DOPC   PO420096  17.508  14.954  14.608 -0.1697  0.4748  0.2327
 1713DOPC   GL120097  17.455  14.788  14.263  0.1029 -0.2695  0.0745
 1713DOPC   GL220098  17.185  14.778  14.275 -0.3110  0.2957 -0.0714
 1713DOPC   C1A20099  17.524  15.016  13.843 -0.0883 -0.1791  0.1065
 1713DOPC   D2A20100  17.698  15.384  13.607 -0.1964 -0.0528 -0.0528
 1713DOPC   C3A20101  18.077  15.519  13.462 -0.0794 -0.3765  0.1652
 1713DOPC   C4A20102  18.232  16.004  13.407  0.0380  0.0082  0.1786
 1713DOPC   C1B20103  17.272  14.524  13.894  0.0701 -0.4286 -0.2947
 1713DOPC   D2B20104  17.187  14.599  13.379 -0.1314  0.0664  0.1022
 1713DOPC   C3B20105  17.543  14.922  13.264 -0.1735 -0.1655 -0.2389
 1713DOPC   C4B20106  17.734  15.275  13.113 -0.3600  0.0044  0.1362
 1714DOPE   NH320107  21.310  17.895  15.403  0.2594 -0.1845 -0.0571
 1714DOPE   PO420108  21.485  17.724  15.180 -0.0797  0.3071 -0.1589
 1714DOPE   GL120109  21.748  17.859  14.843 -0.1923  0.0729 -0.1134
 1714DOPE   GL220110  21.666  18.162  14.976  0.1487 -0.3173  0.1527
 1714DOPE   C1A20111  21.875  18.225  14.528 -0.1622  0.1823 -0.0022
 1714DOPE   D2A20112  21.789  18.602  14.356 -0.1761  0.1490  0.2256
 1714DOPE   C3A20113  22.125  18.919  14.217  0.1152  0.2134 -0.3924
 1714DOPE   C4A20114  22.562  18.876  14.042  0.0232  0.0056 -0.0151
 1714DOPE   C1B20115  21.559  18.595  14.775 -0.0859 -0.0291  0.3242
 1714DOPE   D2B20116  21.346  18.770  14.412  0.1030  0.0583  0.0964
 1714DOPE   C3B20117  21.238  18.362  14.198 -0.1142  0.1677 -0.0865
 1714DOPE   C4B20118  21.205  18.256  13.751  0.3164  0.0449  0.0550
 1715DOPE   NH320119  20.499  17.891  15.391  0.0682 -0.0359 -0.1025
 1715DOPE   PO420120  20.793  17.888  15.273 -0.0765 -0.0876  0.0474
 1715DOPE   GL120121  20.754  17.811  14.934 -0.0550  0.3070  0.0039
 1715DOPE   GL220122  20.451  17.807  14.821  0.0456 -0.1643 -0.1355
 1715DOPE   C1A20123  20.851  17.894  14.466 -0.0211  0.1820 -0.1957
 1715DOPE   D2A20124  21.081  17.849  14.081 -0.0413 -0.0767  0.0890
 1715DOPE   C3A20125  20.966  17.794  13.612  0.2024  0.2870  0.4893
 1715DOPE   C4A20126  21.190  17.823  13.178 -0.0729 -0.0246 -0.0461
 1715DOPE   C1B20127  20.397  17.920  14.422 -0.2625 -0.1288 -0.2235
 1715DOPE   D2B20128  20.643  18.075  14.031  0.0633 -0.4774 -0.1244
 1715DOPE   C3B20129  20.491  18.244  13.673 -0.1273  0.2674  0.4320
 1715DOPE   C4B20130  20.368  18.122  13.313 -0.0677 -0.0524  0.0426
 1716POSM   NC320131  16.764  20.466  15.055 -0.0319  0.0487  0.1100
 1716POSM   PO420132  16.869  20.205  14.852  0.1944 -0.1466  0.0775
 1716POSM   AM120133  17.110  20.153  14.647 -0.1395  0.0995  0.0169
 1716POSM   AM220134  17.254  20.369  14.532 -0.4797 -0.1966 -0.2703
 1716POSM   T1A20135  17.163  19.972  14.187 -0.0663 -0.0117 -0.3077
 1716POSM   C2A20136  17.528  20.080  13.921  0.0868 -0.2173  0.0930
 1716POSM   C3A20137  18.015  20.056  13.956 -0.2389  0.3479  0.1876
 1716POSM   C1B20138  17.243  20.483  14.232 -0.0239  0.0455 -0.0485
 1716POSM   D2B20139  17.177  20.399  13.783  0.1279 -0.0976 -0.2562
 1716POSM   C3B20140  17.224  20.085  13.458 -0.1491 -0.0411  0.0302
 1716POSM   C4B20141  17.246  19.778  13.113  0.0890 -0.1461 -0.3710
 1717DOPC   NC320142  19.733  12.467  15.593 -0.0038  0.3436 -0.0067
 1717DOPC   PO420143  19.457  12.375  15.303  0.1743  0.1798 -0.1732
 1717DOPC   GL120144  19.259  12.155  15.115  0.0473  0.1137  0.1786
 1717DOPC   GL220145  19.023  12.115  15.107  0.4296 -0.0028 -0.0357
 1717DOPC   C1A20146  19.146  12.313  14.675 -0.2768 -0.1873 -0.0802
 1717DOPC   D2A20147  19.168  12.397  14.200 -0.1434 -0.4963  0.2633
 1717DOPC   C3A20148  19.523  12.507  13.890  0.1249 -0.1865 -0.0869
 1717DOPC   C4A20149  19.853  12.436  13.582 -0.1727 -0.1324  0.0586
 1717DOPC   C1B20150  19.229  11.776  14.836  0.2775  0.1422 -0.1420
 1717DOPC   D2B20151  19.554  11.482  14.681  0.1399 -0.0210 -0.0159
 1717DOPC   C3B20152  19.499  11.116  14.583 -0.0669  0.1175  0.0484
 1717DOPC   C4B20153  19.275  10.732  14.378 -0.2526  0.1416  0.0214
 1718POSM   NC320154  14.768  13.508  15.222 -0.1470  0.0962  0.1345
 1718POSM   PO420155  15.019  13.495  14.903  0.0999  0.1104 -0.0906
 1718POSM   AM120156  15.166  13.332  14.640 -0.1054 -0.1660 -0.1177
 1718POSM   AM220157  15.097  13.054  14.590 -0.2832 -0.0248  0.1186
 1718POSM   T1A20158  15.371  13.333  14.204  0.1552  0.2596 -0.2605
 1718POSM   C2A20159  15.500  13.321  13.798 -0.0114 -0.0069  0.0241
 1718POSM   C3A20160  15.680  12.915  13.710 -0.3599  0.1949 -0.0783
 1718POSM   C1B20161  15.012  12.839  14.308  0.0636  0.0354 -0.2642
 1718POSM   D2B20162  14.763  12.519  14.018 -0.2664  0.2160  0.1718
 1718POSM   C3B20163  14.629  12.256  13.750  0.1076 -0.1880 -0.0804
 1718POSM   C4B20164  14.472  12.189  13.289 -0.0638 -0.1073 -0.0719
 1719POSM   NC320165  13.334  21.472  15.345  0.2041 -0.1155  0.0054
 1719POSM   PO420166  13.327  21.841  15.319  0.0137 -0.1692  0.2687
 1719POSM   AM120167  13.215  21.957  15.049  0.0546  0.1158 -0.3425
 1719POSM   AM220168  13.347  21.923  14.786  0.0631 -0.1784 -0.2477
 1719POSM   T1A20169  12.852  22.138  14.739 -0.0206  0.2346 -0.0070
 1719POSM   C2A20170  12.635  22.500  14.539 -0.1978  0.0181  0.1644
 1719POSM   C3A20171  12.824  22.811  14.273 -0.1216  0.2902  0.0640
 1719POSM   C1B20172  13.269  22.057  14.465  0.1887  0.2783 -0.1282
 1719POSM   D2B20173  12.968  22.301  14.228 -0.0285  0.2440 -0.2520
 1719POSM   C3B20174  12.575  22.058  14.312 -0.1165 -0.0848  0.0487
 1719POSM   C4B20175  12.256  21.803  14.013  0.2255 -0.0665 -0.2696
 1720DOPS   CNO20176  17.536  19.358  14.693  0.0333  0.0522  0.1358
 1720DOPS   PO420177  17.262  19.148  14.591  0.0088  0.1756 -0.3521
 1720DOPS   GL120178  17.320  18.943  14.201  0.0946  0.1984  0.2389
 1720DOPS   GL220179  17.550  18.765  14.361 -0.1178  0.1383 -0.1536
 1720DOPS   C1A20180  17.230  19.058  13.722 -0.2036 -0.2319  0.1891
 1720DOPS   D2A20181  17.047  18.873  13.385  0.0830 -0.0657  0.0101
 1720DOPS   C3A20182  16.942  18.703  12.942  0.0046  0.1862 -0.3817
 1720DOPS   C4A20183  17.072  18.374  12.675  0.5016  0.1314 -0.2416
 1720DOPS   C1B20184  17.448  18.679  13.890 -0.2049 -0.0588 -0.0002
 1720DOPS   D2B20185  17.166  18.456  13.664 -0.1917 -0.2004 -0.2588
 1720DOPS   C3B20186  16.972  18.172  13.296 -0.0265 -0.1334  0.0170
 1720DOPS   C4B20187  17.202  17.929  12.938 -0.0453  0.1919  0.3368
 1721DOPC   NC320188  15.406  20.541  14.977  0.0838  0.0019  0.3258
 1721DOPC   PO420189  15.195  20.537  14.655  0.3080 -0.1531  0.0883
 1721DOPC   GL120190  15.021  20.366  14.317  0.2731 -0.3194 -0.1988
 1721DOPC   GL220191  15.099  20.114  14.257 -0.2623  0.1791  0.5162
 1721DOPC   C1A20192  14.653  20.539  14.019 -0.0596 -0.0557  0.0767
 1721DOPC   D2A20193  14.359  20.896  14.065 -0.3792 -0.0041 -0.1057
 1721DOPC   C3A20194  14.268  21.180  13.771  0.0076  0.1285 -0.3221
 1721DOPC   C4A20195  14.052  21.490  13.518 -0.3195 -0.0101 -0.1823
 1721DOPC   C1B20196  15.104  19.826  13.868 -0.2533  0.0935  0.4199
 1721DOPC   D2B20197  14.972  19.697  13.433  0.2075  0.2207  0.1082
 1721DOPC   C3B20198  14.871  20.065  13.180 -0.1167  0.2753  0.0868
 1721DOPC   C4B20199  14.484  20.324  13.082 -0.0042  0.3562 -0.1136
 1722DOPE   NH320200  16.000  18.618  14.724  0.1995  0.0486 -0.1254
 1722DOPE   PO420201  15.726  18.721  14.823 -0.0157  0.1468  0.1719
 1722DOPE   GL120202  15.633  18.746  14.385 -0.3188  0.2238  0.1693
 1722DOPE   GL220203  15.283  18.711  14.381  0.4135  0.0263  0.0880
 1722DOPE   C1A20204  15.538  18.744  13.951  0.1451  0.0426  0.0205
 1722DOPE   D2A20205  15.487  18.924  13.508 -0.1641 -0.3973 -0.0734
 1722DOPE   C3A20206  15.046  18.853  13.364  0.1571  0.1126 -0.0449
 1722DOPE   C4A20207  14.645  18.724  13.443 -0.2130 -0.0493 -0.2005
 1722DOPE   C1B20208  15.358  19.123  14.189  0.0380  0.2912 -0.1963
 1722DOPE   D2B20209  15.183  19.249  13.793  0.2834  0.0907  0.2267
 1722DOPE   C3B20210  15.624  19.308  13.790  0.0858  0.4093  0.0512
 1722DOPE   C4B20211  16.021  19.567  13.732  0.0886  0.1901  0.0547
 1723DOPE   NH320212  16.887  12.811  15.732 -0.0060  0.0658  0.0079
 1723DOPE   PO420213  16.946  12.573  15.500  0.0084  0.2630  0.1888
 1723DOPE   GL120214  17.036  12.503  15.107  0.2415  0.2241  0.0962
 1723DOPE   GL220215  16.882  12.748  14.984 -0.1686  0.0865  0.4180
 1723DOPE   C1A20216  17.013  12.489  14.597  0.0708 -0.2918  0.3257
 1723DOPE   D2A20217  16.967  12.749  14.196 -0.0349 -0.0065 -0.0772
 1723DOPE   C3A20218  16.878  12.589  13.750 -0.1865 -0.1832  0.3086
 1723DOPE   C4A20219  16.546  12.828  13.429  0.0256  0.0871  0.0619
 1723DOPE   C1B20220  17.136  13.000  14.682 -0.1708  0.0604  0.2430
 1723DOPE   D2B20221  17.207  13.195  14.295  0.0434  0.2052 -0.0722
 1723DOPE   C3B20222  17.099  13.325  13.856  0.1845 -0.4617  0.0668
 1723DOPE   C4B20223  16.836  13.598  13.575  0.0197  0.0159  0.2901
 1724DOPC   NC320224  18.590  15.736  14.572 -0.0678 -0.0243 -0.0632
 1724DOPC   PO420225  18.315  15.465  14.561 -0.3294 -0.1703 -0.1538
 1724DOPC   GL120226  18.280  15.518  14.144 -0.1784 -0.0819  0.1813
 1724DOPC   GL220227  18.053  15.239  14.148  0.0547  0.1380 -0.1202
 1724DOPC   C1A20228  18.433  15.188  13.842  0.1131 -0.1491 -0.3305
 1724DOPC   D2A20229  18.095  15.000  13.606 -0.2090  0.1688  0.2001
 1724DOPC   C3A20230  17.991  14.757  13.196 -0.1954  0.0698 -0.3203
 1724DOPC   C4A20231  17.981  14.349  12.962 -0.0506 -0.0980  0.1968
 1724DOPC   C1B20232  17.895  15.641  13.979  0.1967  0.1840  0.1739
 1724DOPC   D2B20233  17.532  15.819  13.829  0.2670 -0.0042 -0.0990
 1724DOPC   C3B20234  17.816  16.113  13.730  0.0431  0.2676 -0.2771
 1724DOPC   C4B20235  17.866  16.463  13.338  0.2348  0.0449  0.0997
 1725POSM   NC320236  20.215  21.086  15.168 -0.0110 -0.2318  0.0152
 1725POSM   PO420237  20.244  20.742  15.024 -0.2295 -0.2094  0.1537
 1725POSM   AM120238  20.306  20.681  14.693  0.4002 -0.4410  0.2248
 1725POSM   AM220239  20.532  20.672  14.496  0.1415 -0.0068 -0.0083
 1725POSM   T1A20240  20.109  20.736  14.190  0.1009  0.2013 -0.1002
 1725POSM   C2A20241  19.737  20.714  13.947  0.1360  0.0971 -0.0018
 1725POSM   C3A20242  19.508  20.685  13.566  0.0972 -0.0008 -0.4412
 1725POSM   C1B20243  20.692  20.900  14.270 -0.4580  0.1630  0.0760
 1725POSM   D2B20244  20.766  21.013  13.844  0.2727 -0.1208  0.0587
 1725POSM   C3B20245  20.468  20.712  13.645  0.0148  0.3052 -0.0593
 1725POSM   C4B20246  20.111  20.477  13.705 -0.0600 -0.2482  0.1107
 1726POSM   NC320247  14.651  22.144  14.890  0.1281  0.3946 -0.0675
 1726POSM   PO420248  14.366  21.981  15.108 -0.2732 -0.1307 -0.0623
 1726POSM   AM120249  14.170  22.127  14.858  0.3483  0.0270 -0.1785
 1726POSM   AM220250  14.238  22.276  14.608 -0.0435  0.2540 -0.1496
 1726POSM   T1A20251  13.722  22.248  14.628  0.0234  0.1960  0.0740
 1726POSM   C2A20252  13.617  22.451  14.236  0.0042  0.0709 -0.0120
 1726POSM   C3A20253  13.689  22.840  13.980 -0.2229  0.0797 -0.1555
 1726POSM   C1B20254  14.107  22.050  14.313  0.2177 -0.1659 -0.0268
 1726POSM   D2B20255  13.800  22.097  13.975  0.0305  0.0603  0.0622
 1726POSM   C3B20256  13.628  21.795  13.697  0.0702 -0.0762 -0.0299
 1726POSM   C4B20257  13.392  21.422  13.567 -0.3832 -0.1476  0.0927
 1727DOPC   NC320258  20.401  22.002  15.008 -0.0348  0.0024 -0.1322
 1727DOPC   PO420259  20.599  21.686  14.923  0.0733  0.0167  0.3845
 1727DOPC   GL120260  20.669  21.608  14.574  0.2263 -0.1658 -0.1010
 1727DOPC   GL220261  20.482  21.869  14.451 -0.1016  0.1533 -0.2478
 1727DOPC   C1A20262  20.685  21.440  14.177 -0.2768  0.0413  0.1688
 1727DOPC   D2A20263  20.442  21.420  13.820 -0.0031 -0.1641  0.2559
 1727DOPC   C3A20264  20.492  21.265  13.416  0.0877  0.0901  0.0819
 1727DOPC   C4A20265  20.405  20.978  13.090 -0.3730  0.0508  0.1398
 1727DOPC   C1B20266  20.485  22.348  14.492  0.0384  0.0913  0.1324
 1727DOPC   D2B20267  20.486  22.763  14.337 -0.2870  0.0972 -0.1473
 1727DOPC   C3B20268  20.076  22.641  14.144 -0.1365 -0.0779  0.0006
 1727DOPC   C4B20269  19.872  22.694  13.699  0.1222 -0.0326  0.0361
 1728DOPS   CNO20270  16.250  18.287  15.053 -0.2843  0.1595  0.1549
 1728DOPS   PO420271  16.582  18.390  14.898 -0.3110  0.1035  0.0853
 1728DOPS   GL120272  16.409  18.282  14.576  0.2386  0.1870  0.2247
 1728DOPS   GL220273  16.239  18.114  14.420 -0.1377 -0.0149  0.0874
 1728DOPS   C1A20274  16.534  18.523  14.189 -0.0889  0.0978 -0.1338
 1728DOPS   D2A20275  16.848  18.719  13.877 -0.0558  0.1834 -0.0130
 1728DOPS   C3A20276  16.734  19.126  13.760  0.2373  0.2413  0.1956
 1728DOPS   C4A20277  16.463  19.488  13.579 -0.1373  0.2726 -0.0695
 1728DOPS   C1B20278  16.234  18.119  13.945 -0.0924  0.3254  0.1833
 1728DOPS   D2B20279  16.163  18.162  13.509 -0.0838  0.0885  0.1902
 1728DOPS   C3B20280  15.733  18.062  13.352  0.0360  0.0565 -0.2029
 1728DOPS   C4B20281  15.313  17.888  13.215  0.4110  0.0647  0.0974
 1729DOPE   NH320282  22.119  16.229  15.308 -0.0340 -0.0328 -0.0966
 1729DOPE   PO420283  21.971  16.179  15.040  0.0684  0.0250  0.5123
 1729DOPE   GL120284  21.873  16.337  14.713  0.2362 -0.0252  0.4190
 1729DOPE   GL220285  21.940  16.629  14.599 -0.1995  0.3278  0.1583
 1729DOPE   C1A20286  21.990  16.172  14.336  0.0678  0.0526  0.4098
 1729DOPE   D2A20287  22.209  16.282  13.982  0.0399 -0.1243  0.0029
 1729DOPE   C3A20288  21.954  16.545  13.709 -0.1339 -0.0866  0.0907
 1729DOPE   C4A20289  21.868  17.011  13.558 -0.2633 -0.0540  0.0213
 1729DOPE   C1B20290  21.795  16.691  14.190 -0.0853 -0.1298 -0.0103
 1729DOPE   D2B20291  21.484  16.567  13.875  0.0263 -0.0202 -0.1212
 1729DOPE   C3B20292  21.188  16.212  13.743 -0.0541 -0.1713  0.0618
 1729DOPE   C4B20293  20.789  16.116  13.562 -0.1402 -0.2045  0.0140
 1730DOPS   CNO20294  17.164  21.063  14.988  0.1858 -0.1752  0.2414
 1730DOPS   PO420295  17.036  20.760  14.779  0.0875  0.0405  0.0694
 1730DOPS   GL120296  16.902  20.719  14.429 -0.0308 -0.0228 -0.0858
 1730DOPS   GL220297  16.738  20.452  14.419  0.1291 -0.1762 -0.0796
 1730DOPS   C1A20298  16.829  20.763  13.996 -0.0774 -0.1051  0.5815
 1730DOPS   D2A20299  17.004  20.833  13.597 -0.1671  0.0515  0.3209
 1730DOPS   C3A20300  16.895  20.894  13.140 -0.0379 -0.0956  0.1253
 1730DOPS   C4A20301  16.513  20.953  12.932 -0.3770 -0.1460 -0.2737
 1730DOPS   C1B20302  16.753  20.285  13.993  0.1917 -0.1115  0.1068
 1730DOPS   D2B20303  16.707  20.412  13.542  0.3380  0.3590  0.3482
 1730DOPS   C3B20304  16.862  20.263  13.177  0.0320  0.1007 -0.1946
 1730DOPS   C4B20305  16.864  20.046  12.808  0.1249 -0.0427 -0.1419
 1731DOPS   CNO20306  13.483  13.010  14.845 -0.1781  0.0136  0.0745
 1731DOPS   PO420307  13.354  12.668  14.728 -0.0165 -0.1547 -0.1386
 1731DOPS   GL120308  13.268  12.300  14.497  0.0495 -0.2161 -0.1087
 1731DOPS   GL220309  13.553  12.239  14.535  0.1225 -0.0051  0.2129
 1731DOPS   C1A20310  13.058  12.236  14.081  0.2606 -0.0459 -0.0869
 1731DOPS   D2A20311  12.866  12.292  13.662 -0.0603 -0.0636 -0.0910
 1731DOPS   C3A20312  12.632  12.463  13.282 -0.1112  0.0726  0.0913
 1731DOPS   C4A20313  12.516  12.286  12.898 -0.0679 -0.1259 -0.4457
 1731DOPS   C1B20314  13.823  12.298  14.270 -0.0719  0.2363  0.4628
 1731DOPS   D2B20315  13.848  12.557  13.844  0.1735  0.2834  0.1549
 1731DOPS   C3B20316  13.809  12.670  13.394  0.0199  0.0456 -0.0667
 1731DOPS   C4B20317  13.635  12.444  12.982 -0.0420  0.1873  0.1312
 1732POSM   NC320318  14.087  18.908  14.884 -0.0600  0.2854  0.1496
 1732POSM   PO420319  14.027  19.301  14.860  0.1801 -0.0385 -0.4060
 1732POSM   AM120320  13.892  19.454  14.595  0.2140  0.2600  0.0025
 1732POSM   AM220321  13.726  19.391  14.378 -0.0269  0.2686 -0.4154
 1732POSM   T1A20322  14.123  19.774  14.229 -0.1095  0.1905  0.0804
 1732POSM   C2A20323  14.024  19.982  13.823 -0.0963  0.2274  0.1739
 1732POSM   C3A20324  13.752  20.335  13.687  0.5138 -0.0265  0.2645
 1732POSM   C1B20325  13.710  19.508  14.094  0.0541  0.2928 -0.1729
 1732POSM   D2B20326  13.595  19.792  13.768 -0.0735  0.3662 -0.1912
 1732POSM   C3B20327  13.528  19.990  13.448 -0.0283 -0.1816  0.2629
 1732POSM   C4B20328  13.423  20.280  13.130  0.2035 -0.2185 -0.2624
 1733POSM   NC320329  20.828  17.429  15.139  0.2002 -0.2548  0.2571
 1733POSM   PO420330  20.468  17.384  15.006 -0.1677  0.1538 -0.0476
 1733POSM   AM120331  20.391  17.388  14.688  0.2882 -0.3561  0.1956
 1733POSM   AM220332  20.519  17.350  14.446 -0.3822  0.1347 -0.3831
 1733POSM   T1A20333  20.065  17.522  14.317  0.0136 -0.0571  0.2093
 1733POSM   C2A20334  19.657  17.597  14.178 -0.0891 -0.1351 -0.1297
 1733POSM   C3A20335  19.363  17.889  14.297  0.0718 -0.0763 -0.0055
 1733POSM   C1B20336  20.561  17.517  14.135 -0.4574  0.2206  0.0391
 1733POSM   D2B20337  20.479  17.732  13.746  0.0910  0.0639  0.0901
 1733POSM   C3B20338  19.991  17.733  13.636  0.0519  0.1103 -0.1807
 1733POSM   C4B20339  19.558  17.523  13.499 -0.0892 -0.1568  0.0534
 1734DOPC   NC320340  14.762  13.341  14.343  0.1648  0.1756 -0.1961
 1734DOPC   PO420341  14.430  13.343  14.489  0.3138 -0.2475 -0.0464
 1734DOPC   GL120342  14.306  13.371  14.042 -0.1548 -0.0598  0.0432
 1734DOPC   GL220343  14.405  13.122  13.960 -0.1171 -0.0153  0.1995
 1734DOPC   C1A20344  13.938  13.096  13.849 -0.1312 -0.0495  0.0490
 1734DOPC   D2A20345  13.485  13.138  13.706 -0.1411 -0.0668  0.1165
 1734DOPC   C3A20346  13.469  13.020  13.272  0.2353 -0.3186  0.2902
 1734DOPC   C4A20347  13.645  12.919  12.831 -0.1783 -0.0290 -0.0495
 1734DOPC   C1B20348  14.290  13.303  13.531  0.0838  0.2509  0.4183
 1734DOPC   D2B20349  14.392  12.996  13.192 -0.3675 -0.0781  0.2074
 1734DOPC   C3B20350  14.749  12.998  12.833 -0.3447  0.2168  0.2121
 1734DOPC   C4B20351  15.159  12.803  12.851  0.3791  0.0454 -0.1137
 1735POSM   NC320352  17.218  21.924  14.932 -0.1043  0.0077  0.2724
 1735POSM   PO420353  17.546  21.878  14.713  0.3168  0.0447 -0.2265
 1735POSM   AM120354  17.295  21.890  14.456 -0.0061 -0.0534  0.0231
 1735POSM   AM220355  17.140  21.759  14.274  0.3242  0.0733 -0.2058
 1735POSM   T1A20356  17.332  22.199  14.035 -0.0809  0.1977 -0.0443
 1735POSM   C2A20357  17.339  22.369  13.597  0.0943 -0.2019  0.0215
 1735POSM   C3A20358  17.543  22.365  13.176  0.0216  0.0007 -0.0186
 1735POSM   C1B20359  17.144  21.698  13.950  0.0435 -0.0692  0.0071
 1735POSM   D2B20360  17.273  21.777  13.542 -0.1973 -0.0244 -0.2387
 1735POSM   C3B20361  17.715  21.812  13.478  0.0918 -0.2576  0.0461
 1735POSM   C4B20362  18.004  22.109  13.150  0.0625 -0.3529 -0.0675
 1736DOPC   NC320363  18.405  19.393  14.475  0.0010  0.2899 -0.2520
 1736DOPC   PO420364  18.390  19.039  14.680  0.0200 -0.1794  0.0452
 1736DOPC   GL120365  18.555  18.965  14.307 -0.2568 -0.2222 -0.1176
 1736DOPC   GL220366  18.834  18.874  14.438  0.0978  0.1182 -0.1661
 1736DOPC   C1A20367  18.396  18.728  13.968 -0.0889  0.1710  0.0398
 1736DOPC   D2A20368  18.033  18.439  13.824 -0.0322 -0.1451 -0.2798
 1736DOPC   C3A20369  18.203  18.105  13.551 -0.4004  0.0282  0.2110
 1736DOPC   C4A20370  18.291  17.671  13.381  0.0918 -0.1960 -0.2154
 1736DOPC   C1B20371  19.024  18.401  14.252  0.2027  0.3445 -0.1559
 1736DOPC   D2B20372  19.276  18.224  13.945 -0.2035  0.0179 -0.0013
 1736DOPC   C3B20373  19.710  18.040  13.933 -0.3722  0.0044 -0.0238
 1736DOPC   C4B20374  20.095  18.092  13.953  0.2725  0.2100  0.1140
 1737POSM   NC320375  18.125  16.984  14.567 -0.2343  0.2000  0.0429
 1737POSM   PO420376  18.405  17.118  14.835 -0.1177  0.2959 -0.1916
 1737POSM   AM120377  18.551  17.206  14.565 -0.0129  0.1385  0.0253
 1737POSM   AM220378  18.798  17.195  14.466  0.0770 -0.0027  0.1329
 1737POSM   T1A20379  18.570  17.621  14.326  0.0549  0.1621 -0.0327
 1737POSM   C2A20380  18.880  17.790  14.068 -0.2436  0.1170  0.3856
 1737POSM   C3A20381  19.254  17.702  13.852  0.2030  0.1170  0.1654
 1737POSM   C1B20382  18.874  17.259  14.127  0.2134 -0.0358  0.3107
 1737POSM   D2B20383  18.798  17.332  13.693 -0.2664  0.0661 -0.2958
 1737POSM   C3B20384  18.960  17.662  13.442 -0.0267  0.1064 -0.0862
 1737POSM   C4B20385  18.793  18.038  13.552  0.2543 -0.1033  0.0955
 1738POSM   NC320386  20.339  12.644  15.258  0.2283  0.1571  0.0582
 1738POSM   PO420387  20.284  12.952  15.078 -0.1267  0.1257 -0.2043
 1738POSM   AM120388  20.186  12.952  14.778  0.0614 -0.1261  0.2688
 1738POSM   AM220389  20.013  12.753  14.694 -0.0160 -0.1456  0.1103
 1738POSM   T1A20390  20.452  12.822  14.357  0.0371  0.2417 -0.0200
 1738POSM   C2A20391  20.679  13.040  14.048 -0.1668 -0.0982 -0.0582
 1738POSM   C3A20392  20.865  13.060  13.640  0.0716 -0.0484  0.2826
 1738POSM   C1B20393  19.969  12.855  14.349 -0.0511  0.0134 -0.0329
 1738POSM   D2B20394  19.980  12.731  13.979 -0.2135  0.0446  0.0906
 1738POSM   C3B20395  19.831  13.116  13.786 -0.0219 -0.1438 -0.0844
 1738POSM   C4B20396  19.698  13.386  13.381  0.1099  0.0734 -0.0834
 1739DOPC   NC320397  13.104  14.383  14.113 -0.2133 -0.0195  0.1889
 1739DOPC   PO420398  13.330  14.644  14.266  0.0157  0.3256 -0.2555
 1739DOPC   GL120399  13.455  14.715  13.953  0.0516 -0.2748 -0.0093
 1739DOPC   GL220400  13.439  14.464  13.760 -0.0259 -0.0056  0.1407
 1739DOPC   C1A20401  13.353  15.055  13.665  0.3031  0.5906  0.1456
 1739DOPC   D2A20402  13.392  15.250  13.279 -0.1603  0.1403  0.1053
 1739DOPC   C3A20403  13.501  14.965  12.933 -0.0870  0.0605  0.0960
 1739DOPC   C4A20404  13.486  14.505  12.754  0.3085 -0.1855 -0.1781
 1739DOPC   C1B20405  13.115  14.306  13.545  0.1887 -0.2013  0.1930
 1739DOPC   D2B20406  13.144  14.288  13.067 -0.0045 -0.0509  0.0452
 1739DOPC   C3B20407  13.302  13.945  12.782  0.1055 -0.0559 -0.0156
 1739DOPC   C4B20408  13.476  13.614  12.525  0.1407 -0.3944  0.1848
 1740DOPE   NH320409  14.147  13.874  14.605 -0.1285 -0.2075 -0.2840
 1740DOPE   PO420410  13.971  13.793  14.344 -0.0164 -0.1252 -0.1914
 1740DOPE   GL120411  13.864  13.837  13.997 -0.0376  0.2898  0.1266
 1740DOPE   GL220412  13.901  13.595  13.809  0.0913 -0.1711 -0.2398
 1740DOPE   C1A20413  13.881  13.998  13.557 -0.3216  0.1957 -0.0520
 1740DOPE   D2A20414  14.248  13.984  13.277  0.2448  0.2813  0.0305
 1740DOPE   C3A20415  14.144  13.571  13.113 -0.2117 -0.3269  0.1486
 1740DOPE   C4A20416  13.961  13.100  13.120 -0.0802  0.1424 -0.2422
 1740DOPE   C1B20417  13.768  13.400  13.442 -0.0743 -0.4583  0.2087
 1740DOPE   D2B20418  13.640  13.515  12.972  0.2307 -0.0706  0.4554
 1740DOPE   C3B20419  13.884  13.299  12.676  0.2818  0.1264  0.2021
 1740DOPE   C4B20420  13.877  13.405  12.248  0.0757 -0.1223 -0.1671
 1741DOPC   NC320421  12.263  15.643  14.895 -0.2711 -0.0109  0.2802
 1741DOPC   PO420422  12.602  15.515  14.739 -0.6563  0.3258  0.0686
 1741DOPC   GL120423  12.574  15.626  14.367 -0.0610 -0.2163  0.1023
 1741DOPC   GL220424  12.753  15.672  14.150 -0.1529  0.1592  0.1009
 1741DOPC   C1A20425  12.340  15.966  14.103  0.0054 -0.1763  0.0766
 1741DOPC   D2A20426  12.047  15.835  13.705 -0.1144  0.3986  0.1421
 1741DOPC   C3A20427  12.231  16.153  13.449 -0.0740  0.0067 -0.0898
 1741DOPC   C4A20428  12.097  16.046  13.018 -0.4001  0.1928 -0.1135
 1741DOPC   C1B20429  12.712  15.970  13.753 -0.2701  0.1627 -0.0840
 1741DOPC   D2B20430  12.745  16.249  13.389 -0.1686  0.0231  0.1150
 1741DOPC   C3B20431  12.581  16.159  12.983 -0.2483  0.0948  0.2769
 1741DOPC   C4B20432  12.432  16.213  12.572  0.1982 -0.1747  0.0395
 1742POSM   NC320433  20.150  19.332  15.078  0.1034 -0.0571  0.0777
 1742POSM   PO420434  20.425  19.445  15.338 -0.5157 -0.3801 -0.4516
 1742POSM   AM120435  20.633  19.293  15.133  0.1226 -0.2430  0.4171
 1742POSM   AM220436  20.712  19.368  14.863 -0.1069  0.0719 -0.3538
 1742POSM   T1A20437  21.037  19.034  15.108 -0.1729  0.0802 -0.1664
 1742POSM   C2A20438  21.394  19.045  14.862 -0.0901 -0.2601 -0.1922
 1742POSM   C3A20439  21.717  19.087  14.514  0.1116  0.1084 -0.0070
 1742POSM   C1B20440  20.927  19.184  14.626 -0.1493  0.2070 -0.0436
 1742POSM   D2B20441  20.912  18.965  14.246 -0.0444  0.0647 -0.2980
 1742POSM   C3B20442  20.635  19.024  13.839  0.1100  0.2385 -0.0541
 1742POSM   C4B20443  20.628  19.122  13.335 -0.1411 -0.0010 -0.1234
 1743POSM   NC320444  12.723  22.295  15.736  0.2584 -0.1847  0.1128
 1743POSM   PO420445  12.475  21.981  15.807 -0.0866 -0.1378 -0.1879
 1743POSM   AM120446  12.430  21.826  15.534 -0.1098 -0.0480 -0.0430
 1743POSM   AM220447  12.433  21.560  15.411  0.1826 -0.2489  0.3593
 1743POSM   T1A20448  12.536  21.903  15.093  0.1746  0.2279 -0.1077
 1743POSM   C2A20449  12.443  21.709  14.697 -0.0519 -0.1233  0.2543
 1743POSM   C3A20450  12.216  21.402  14.389  0.2026  0.0205 -0.0654
 1743POSM   C1B20451  12.520  21.375  15.128 -0.0751 -0.0637  0.2415
 1743POSM   D2B20452  12.659  21.173  14.740 -0.0590 -0.2223  0.0909
 1743POSM   C3B20453  12.955  21.201  14.444 -0.3557  0.0532 -0.2201
 1743POSM   C4B20454  13.207  21.347  14.131  0.0896 -0.1812 -0.0608
 1744POSM   NC320455  14.707  17.432  14.789  0.0014 -0.1817 -0.0801
 1744POSM   PO420456  14.419  17.562  14.555  0.1390  0.1952  0.0056
 1744POSM   AM120457  14.441  17.434  14.277 -0.0103 -0.0054 -0.1184
 1744POSM   AM220458  14.251  17.463  14.043  0.0556 -0.1576  0.2052
 1744POSM   T1A20459  14.651  17.259  13.841 -0.2460 -0.1182 -0.1226
 1744POSM   C2A20460  14.672  17.412  13.410  0.4293 -0.1656 -0.6120
 1744POSM   C3A20461  14.886  17.712  13.149  0.3415 -0.1237  0.1297
 1744POSM   C1B20462  14.065  17.738  13.967 -0.1273 -0.0526  0.2495
 1744POSM   D2B20463  13.673  17.974  13.806  0.0308  0.2323 -0.1652
 1744POSM   C3B20464  13.460  17.852  13.386 -0.3013  0.1982 -0.0458
 1744POSM   C4B20465  13.301  17.605  13.022  0.2019 -0.1880 -0.0213
 1745POSM   NC320466  14.665  22.461  15.331 -0.0052 -0.1728 -0.0259
 1745POSM   PO420467  14.387  22.558  15.031  0.1028  0.2304  0.0808
 1745POSM   AM120468  14.365  22.689  14.750 -0.1603 -0.2542  0.0694
 1745POSM   AM220469  14.322  22.968  14.681  0.2301 -0.2417 -0.0965
 1745POSM   T1A20470  14.564  22.645  14.293  0.2238 -0.1671 -0.0229
 1745POSM   C2A20471  14.588  22.605  13.824 -0.0806  0.1435 -0.1654
 1745POSM   C3A20472  14.259  22.684  13.459 -0.0671 -0.1487 -0.1320
 1745POSM   C1B20473  14.636  23.162  14.692  0.1300  0.2189 -0.1694
 1745POSM   D2B20474  15.111  23.233  14.732  0.0688  0.3411 -0.1990
 1745POSM   C3B20475  15.272  23.094  14.327  0.0558  0.0594 -0.3310
 1745POSM   C4B20476  15.365  22.858  13.925  0.0416 -0.0140 -0.3363
 1746DOPC   NC320477  22.930  18.516  15.349 -0.1769  0.4522  0.0642
 1746DOPC   PO420478  23.060  18.850  15.166  0.0572 -0.2131 -0.1407
 1746DOPC   GL120479  22.964  18.958  14.826 -0.0018  0.1897  0.1148
 1746DOPC   GL220480  23.335  18.970  14.727  0.2257  0.2080  0.1978
 1746DOPC   C1A20481  22.909  19.183  14.462  0.3264 -0.0574  0.0388
 1746DOPC   D2A20482  23.055  19.309  14.056  0.0820 -0.0299  0.1566
 1746DOPC   C3A20483  22.852  19.061  13.721 -0.0558  0.1246  0.4492
 1746DOPC   C4A20484  22.610  18.777  13.494  0.0963  0.0908 -0.2915
 1746DOPC   C1B20485  23.451  18.980  14.305 -0.1670 -0.0660 -0.0625
 1746DOPC   D2B20486  23.627  19.135  13.870 -0.2183 -0.1870 -0.3294
 1746DOPC   C3B20487  23.302  18.952  13.576 -0.2219 -0.2007 -0.1175
 1746DOPC   C4B20488  23.326  18.869  13.117 -0.0481 -0.1766 -0.4211
 1747POSM   NC320489  22.293  19.551  15.107 -0.1677  0.2416  0.1370
 1747POSM   PO420490  22.628  19.284  15.078 -0.1670 -0.0606  0.0805
 1747POSM   AM120491  22.525  19.190  14.787  0.4110  0.3580  0.3045
 1747POSM   AM220492  22.343  19.352  14.615 -0.1110 -0.2185 -0.0425
 1747POSM   T1A20493  22.591  18.782  14.512 -0.0577 -0.1944 -0.2906
 1747POSM   C2A20494  22.319  18.456  14.402  0.1240 -0.0759  0.0259
 1747POSM   C3A20495  22.194  18.195  14.094 -0.0701  0.0426  0.1890
 1747POSM   C1B20496  22.468  19.325  14.293  0.1084  0.2377 -0.0985
 1747POSM   D2B20497  22.412  19.399  13.901 -0.0180 -0.0175  0.0445
 1747POSM   C3B20498  22.157  19.064  13.619  0.3809 -0.0121  0.2183
 1747POSM   C4B20499  21.763  18.743  13.555 -0.0413 -0.0463  0.2874
 1748DOPS   CNO20500  16.167  17.287  14.717  0.1889  0.0026 -0.0684
 1748DOPS   PO420501  16.220  17.524  14.437 -0.0337  0.0386 -0.3663
 1748DOPS   GL120502  16.194  17.566  14.083  0.0889  0.0347  0.0660
 1748DOPS   GL220503  16.148  17.357  13.904 -0.0539  0.0821  0.1512
 1748DOPS   C1A20504  16.512  17.759  13.707 -0.4049  0.1612 -0.1266
 1748DOPS   D2A20505  16.513  17.842  13.279 -0.1354  0.1688  0.0006
 1748DOPS   C3A20506  16.093  17.946  13.057  0.1591  0.0275 -0.1983
 1748DOPS   C4A20507  15.683  17.957  12.833  0.0374  0.3430 -0.0807
 1748DOPS   C1B20508  16.459  17.206  13.541 -0.0859 -0.2581  0.0046
 1748DOPS   D2B20509  16.795  17.332  13.252  0.2701  0.1445 -0.2049
 1748DOPS   C3B20510  16.819  17.547  12.858  0.4520  0.0734  0.0824
 1748DOPS   C4B20511  16.748  17.452  12.421 -0.4306 -0.2902 -0.1761
 1749DOPS   CNO20512  11.890  18.373  15.265 -0.5568 -0.1323  0.0453
 1749DOPS   PO420513  11.597  18.521  15.047 -0.5001  0.0000 -0.0380
 1749DOPS   GL120514  11.846  18.544  14.740  0.3987 -0.4520 -0.3661
 1749DOPS   GL220515  11.670  18.362  14.592  0.0401 -0.2617 -0.1267
 1749DOPS   C1A20516  11.902  18.650  14.256  0.2639 -0.0158 -0.4248
 1749DOPS   D2A20517  12.070  18.463  13.930  0.3611  0.3748 -0.0296
 1749DOPS   C3A20518  12.466  18.424  13.688  0.3407 -0.0355  0.0079
 1749DOPS   C4A20519  12.908  18.594  13.623 -0.0090 -0.1995  0.3116
 1749DOPS   C1B20520  11.525  18.281  14.128  0.0375  0.1112 -0.1786
 1749DOPS   D2B20521  11.687  18.286  13.639 -0.2150  0.2515 -0.1172
 1749DOPS   C3B20522  11.554  18.454  13.286  0.1384  0.0662 -0.1503
 1749DOPS   C4B20523  11.738  18.687  12.965  0.0770  0.0762  0.0993
 1750DOPS   CNO20524  18.248  19.818  14.711  0.0267  0.0756  0.0040
 1750DOPS   PO420525  17.938  20.028  14.724  0.1666  0.0818  0.1254
 1750DOPS   GL120526  17.851  19.876  14.388 -0.1810  0.2204  0.3046
 1750DOPS   GL220527  18.022  19.618  14.358 -0.2507  0.0447  0.2604
 1750DOPS   C1A20528  17.547  19.603  14.227 -0.0350 -0.2230  0.0951
 1750DOPS   D2A20529  17.130  19.426  14.064 -0.1899 -0.0769 -0.1116
 1750DOPS   C3A20530  17.050  19.748  13.739  0.0524  0.0159 -0.0001
 1750DOPS   C4A20531  16.764  19.888  13.437  0.3932 -0.2178  0.0179
 1750DOPS   C1B20532  17.962  19.591  13.914  0.1648  0.2257  0.1132
 1750DOPS   D2B20533  17.900  19.438  13.481  0.6212  0.0886  0.4424
 1750DOPS   C3B20534  17.693  19.764  13.280  0.0951  0.4753  0.1107
 1750DOPS   C4B20535  17.637  20.158  13.127 -0.3174 -0.4600 -0.1905
 1751POSM   NC320536  19.298  15.135  14.750  0.0319 -0.0687  0.2237
 1751POSM   PO420537  19.613  14.955  14.626 -0.0030 -0.0182  0.0846
 1751POSM   AM120538  19.711  14.982  14.318 -0.0640 -0.3254 -0.0530
 1751POSM   AM220539  19.677  14.812  14.121  0.2300 -0.0881  0.3582
 1751POSM   T1A20540  20.069  15.026  13.995 -0.1333 -0.1454 -0.2985
 1751POSM   C2A20541  20.119  14.939  13.524  0.0734  0.3010  0.2950
 1751POSM   C3A20542  20.182  14.609  13.248 -0.1075 -0.3019 -0.0274
 1751POSM   C1B20543  19.642  14.716  13.789 -0.3124 -0.1070 -0.2417
 1751POSM   D2B20544  19.676  14.555  13.354  0.2300  0.0612 -0.0087
 1751POSM   C3B20545  19.388  14.701  13.027 -0.1719  0.4505  0.1511
 1751POSM   C4B20546  19.206  15.099  12.830 -0.3794 -0.0262 -0.0388
 1752DOPE   NH320547  19.620  23.860  15.484 -0.3526 -0.0226  0.1330
 1752DOPE   PO420548  19.887  24.001  15.501  0.1322  0.1115  0.3140
 1752DOPE   GL120549  19.924  23.841  15.169 -0.1725 -0.1120 -0.1403
 1752DOPE   GL220550  19.939  23.488  15.251  0.3793  0.0661 -0.3650
 1752DOPE   C1A20551  19.898  23.757  14.698 -0.0411  0.2638 -0.0313
 1752DOPE   D2A20552  19.714  23.944  14.330 -0.1212  0.2380 -0.1464
 1752DOPE   C3A20553  19.506  23.726  13.982  0.1337  0.1713  0.0543
 1752DOPE   C4A20554  19.304  23.423  13.695  0.2302  0.1129 -0.2523
 1752DOPE   C1B20555  19.662  23.323  14.898 -0.1031  0.2097  0.0210
 1752DOPE   D2B20556  19.727  22.909  14.702 -0.3687  0.3715  0.0643
 1752DOPE   C3B20557  19.634  22.911  14.251 -0.0754 -0.1920 -0.2476
 1752DOPE   C4B20558  19.741  23.282  13.907  0.2204  0.3732  0.4408
 1753POSM   NC320559  16.150  11.486  15.231 -0.1264  0.1824  0.0881
 1753POSM   PO420560  16.302  11.771  15.459  0.1283  0.0877  0.1550
 1753POSM   AM120561  16.289  11.936  15.171  0.1290  0.2963 -0.1332
 1753POSM   AM220562  16.534  11.984  15.011  0.0331  0.0024  0.2168
 1753POSM   T1A20563  16.142  11.804  14.726  0.1617 -0.1600  0.2099
 1753POSM   C2A20564  16.172  11.566  14.290  0.0182 -0.0197  0.1758
 1753POSM   C3A20565  16.246  11.496  13.843 -0.0680  0.0099  0.1173
 1753POSM   C1B20566  16.514  12.192  14.750  0.3651 -0.0941  0.1798
 1753POSM   D2B20567  16.597  12.372  14.340 -0.0822  0.0833 -0.1673
 1753POSM   C3B20568  16.642  12.209  13.921  0.0943  0.3580  0.0196
 1753POSM   C4B20569  16.885  12.050  13.590 -0.0115  0.0396  0.1813
 1754DOPS   CNO20570  19.662  19.068  15.088  0.0675 -0.1867  0.1693
 1754DOPS   PO420571  19.413  19.204  14.815 -0.3237 -0.0444 -0.1948
 1754DOPS   GL120572  19.559  19.089  14.458 -0.0476  0.0916  0.4345
 1754DOPS   GL220573  19.282  19.089  14.330 -0.0829  0.2707  0.1378
 1754DOPS   C1A20574  19.631  19.041  14.037 -0.0313 -0.2888  0.2646
 1754DOPS   D2A20575  19.704  19.355  13.680  0.3158 -0.1342  0.1696
 1754DOPS   C3A20576  19.631  19.707  13.453 -0.3234 -0.1955 -0.0869
 1754DOPS   C4A20577  19.338  19.881  13.086 -0.0634  0.0531  0.0905
 1754DOPS   C1B20578  19.206  18.789  14.004  0.2121  0.0546  0.0649
 1754DOPS   D2B20579  19.190  18.556  13.559  0.3048 -0.0539  0.1526
 1754DOPS   C3B20580  18.858  18.468  13.191 -0.6787 -0.2526  0.2047
 1754DOPS   C4B20581  18.623  18.441  12.800  0.0633  0.0367  0.1412
 1755POSM   NC320582  21.622  17.367  14.904 -0.1034 -0.0256 -0.2994
 1755POSM   PO420583  21.663  16.989  14.804 -0.1394 -0.1027 -0.0426
 1755POSM   AM120584  21.424  16.784  14.730  0.2865 -0.0230 -0.0556
 1755POSM   AM220585  21.394  16.501  14.623  0.0385  0.1383 -0.1809
 1755POSM   T1A20586  20.991  16.694  14.450  0.0616  0.1995  0.0874
 1755POSM   C2A20587  21.011  16.509  14.065  0.0447 -0.1994 -0.1571
 1755POSM   C3A20588  20.931  16.669  13.627 -0.1195 -0.1593 -0.0310
 1755POSM   C1B20589  21.467  16.331  14.321 -0.0649 -0.0118 -0.0752
 1755POSM   D2B20590  21.648  16.010  14.031 -0.1600 -0.2621  0.0448
 1755POSM   C3B20591  21.647  16.186  13.589  0.0156  0.1829  0.0751
 1755POSM   C4B20592  21.433  16.509  13.336 -0.0383 -0.0968  0.0314
 1756POSM   NC320593  17.046  15.004  14.725 -0.0113 -0.0824 -0.0757
 1756POSM   PO420594  16.749  14.869  14.510  0.1593 -0.0491  0.1057
 1756POSM   AM120595  16.771  14.845  14.202  0.1704 -0.2710 -0.2351
 1756POSM   AM220596  16.776  14.635  14.040 -0.1879  0.0269  0.0603
 1756POSM   T1A20597  16.993  14.999  13.840  0.2525  0.0321 -0.0934
 1756POSM   C2A20598  17.096  15.110  13.422 -0.0900  0.2115 -0.1312
 1756POSM   C3A20599  16.932  14.890  13.041 -0.2941 -0.1048  0.2130
 1756POSM   C1B20600  16.700  14.618  13.682 -0.1840 -0.1697  0.0643
 1756POSM   D2B20601  16.629  14.490  13.262 -0.0157  0.3143  0.4105
 1756POSM   C3B20602  16.305  14.396  12.927  0.2011  0.0440 -0.0490
 1756POSM   C4B20603  16.067  14.602  12.607 -0.2130  0.0208 -0.0942
 1757POSM   NC320604  13.210  19.472  14.697  0.2340 -0.1285  0.3170
 1757POSM   PO420605  13.534  19.600  14.851  0.0733 -0.3281 -0.1679
 1757POSM   AM120606  13.471  19.836  14.619  0.3745  0.2307  0.2028
 1757POSM   AM220607  13.674  19.960  14.417  0.0309  0.0501  0.0353
 1757POSM   T1A20608  13.263  19.922  14.148  0.1305 -0.3995 -0.4349
 1757POSM   C2A20609  12.926  20.156  13.890 -0.1485  0.1630  0.2263
 1757POSM   C3A20610  12.554  20.257  13.647 -0.0137  0.3319  0.0914
 1757POSM   C1B20611  13.788  20.213  14.211 -0.1450  0.2067  0.3205
 1757POSM   D2B20612  14.063  20.498  14.042  0.0796  0.4294  0.0966
 1757POSM   C3B20613  14.261  20.408  13.607  0.0795 -0.2054 -0.0945
 1757POSM   C4B20614  14.722  20.524  13.528  0.1500 -0.0015 -0.1673
 1758DOPE   NH320615  23.534  20.122  14.771 -0.1399  0.0726  0.1654
 1758DOPE   PO420616  23.335  19.904  14.693 -0.2465 -0.2782 -0.0858
 1758DOPE   GL120617  23.057  19.945  14.408 -0.3815  0.1821 -0.0063
 1758DOPE   GL220618  22.945  19.708  14.448  0.0854 -0.2160 -0.1828
 1758DOPE   C1A20619  23.100  19.901  13.951 -0.0059 -0.0096  0.0645
 1758DOPE   D2A20620  23.287  20.114  13.582 -0.1205  0.1705 -0.0690
 1758DOPE   C3A20621  23.307  19.822  13.178 -0.1058  0.0136 -0.0953
 1758DOPE   C4A20622  23.436  19.522  12.876  0.0937  0.0496  0.1153
 1758DOPE   C1B20623  22.688  19.762  14.131  0.2680 -0.1994 -0.0939
 1758DOPE   D2B20624  22.569  19.864  13.661 -0.1534 -0.3448  0.1116
 1758DOPE   C3B20625  22.930  19.623  13.500 -0.2827 -0.3142 -0.0829
 1758DOPE   C4B20626  23.147  19.313  13.267  0.0739  0.2371  0.2576
 1759DOPE   NH320627  12.032  18.843  15.019 -0.0679  0.1302 -0.2621
 1759DOPE   PO420628  12.245  18.601  14.929 -0.2460  0.1148  0.0456
 1759DOPE   GL120629  12.285  18.642  14.581  0.0131  0.1369  0.0643
 1759DOPE   GL220630  12.274  18.354  14.445 -0.2096 -0.1551  0.4872
 1759DOPE   C1A20631  12.393  18.799  14.192  0.1846  0.1061 -0.3692
 1759DOPE   D2A20632  12.380  18.925  13.783 -0.3513  0.1875  0.2039
 1759DOPE   C3A20633  12.517  19.303  13.520  0.0344 -0.0741 -0.2280
 1759DOPE   C4A20634  12.604  19.762  13.454 -0.0102  0.0219 -0.0814
 1759DOPE   C1B20635  12.413  18.161  14.085  0.2159 -0.2254  0.2317
 1759DOPE   D2B20636  12.696  18.003  13.725 -0.1820 -0.3879 -0.1056
 1759DOPE   C3B20637  12.400  18.149  13.313 -0.0731 -0.1585 -0.1049
 1759DOPE   C4B20638  12.089  18.406  13.257 -0.0141 -0.2642 -0.1354
 1760DOPS   CNO20639  22.817  12.872  15.321  0.2730 -0.1745  0.0172
 1760DOPS   PO420640  22.492  12.777  15.491 -0.3414  0.0505 -0.1424
 1760DOPS   GL120641  22.487  12.554  15.107 -0.5412  0.0521 -0.1170
 1760DOPS   GL220642  22.245  12.438  14.987 -0.2689 -0.0428 -0.1128
 1760DOPS   C1A20643  22.769  12.459  14.767 -0.2122  0.0347  0.0018
 1760DOPS   D2A20644  22.853  12.109  14.446  0.1097  0.1127 -0.2160
 1760DOPS   C3A20645  22.668  11.642  14.459  0.2401 -0.0628 -0.1135
 1760DOPS   C4A20646  22.396  11.291  14.267 -0.3000 -0.2302  0.0164
 1760DOPS   C1B20647  22.274  12.161  14.619  0.0554  0.4018 -0.1385
 1760DOPS   D2B20648  22.409  11.959  14.194 -0.1509 -0.0859 -0.2555
 1760DOPS   C3B20649  22.745  12.198  13.948  0.1296 -0.1702  0.0376
 1760DOPS   C4B20650  23.002  12.445  13.614  0.0815  0.4368  0.0452
 1761DOPS   CNO20651  11.717  15.783  15.034 -0.2290 -0.0033 -0.0316
 1761DOPS   PO420652  11.916  16.146  14.904  0.0629 -0.0815 -0.2644
 1761DOPS   GL120653  11.784  16.138  14.535  0.0665  0.0910  0.0334
 1761DOPS   GL220654  11.636  16.391  14.506  0.1048 -0.0322  0.3677
 1761DOPS   C1A20655  11.767  15.988  14.097 -0.2019  0.1016 -0.0255
 1761DOPS   D2A20656  11.608  15.567  13.803 -0.0614  0.2136  0.1139
 1761DOPS   C3A20657  11.215  15.561  13.552 -0.1586  0.1716  0.2904
 1761DOPS   C4A20658  11.052  15.833  13.232  0.0708 -0.0210  0.0773
 1761DOPS   C1B20659  11.637  16.486  14.057 -0.3255 -0.0358 -0.0564
 1761DOPS   D2B20660  11.246  16.463  13.781 -0.0779 -0.0112 -0.2067
 1761DOPS   C3B20661  11.206  16.359  13.362 -0.2899  0.1556 -0.0538
 1761DOPS   C4B20662  10.918  16.268  13.008 -0.2770  0.0927 -0.0187
 1762DOPE   NH320663  15.960  21.386  14.894 -0.1282 -0.0984  0.0832
 1762DOPE   PO420664  15.648  21.426  14.877  0.0632  0.0122 -0.0276
 1762DOPE   GL120665  15.678  21.490  14.487 -0.0823 -0.0139 -0.0867
 1762DOPE   GL220666  15.863  21.299  14.357 -0.1105  0.1478 -0.3939
 1762DOPE   C1A20667  15.744  21.656  14.026  0.0116 -0.0795  0.1918
 1762DOPE   D2A20668  15.494  21.571  13.642 -0.2329 -0.0131  0.3372
 1762DOPE   C3A20669  15.192  21.306  13.655  0.0006  0.2015 -0.0189
 1762DOPE   C4A20670  14.850  20.990  13.715 -0.0536 -0.0831 -0.0158
 1762DOPE   C1B20671  15.668  21.156  13.982  0.0522  0.1565 -0.1230
 1762DOPE   D2B20672  15.744  21.057  13.533 -0.2749 -0.0054  0.0139
 1762DOPE   C3B20673  15.514  21.299  13.230 -0.3429 -0.2078 -0.0172
 1762DOPE   C4B20674  15.259  21.148  12.848 -0.1847  0.2016  0.0119
 1763DOPC   NC320675  16.211  21.688  14.267 -0.2979  0.1118  0.0107
 1763DOPC   PO420676  16.312  21.478  14.592 -0.0872 -0.2844 -0.2094
 1763DOPC   GL120677  16.328  21.259  14.270  0.3026  0.0727  0.1648
 1763DOPC   GL220678  16.602  21.229  14.091 -0.2547  0.2646 -0.0086
 1763DOPC   C1A20679  16.150  21.208  13.836  0.2523  0.3097  0.0446
 1763DOPC   D2A20680  16.095  21.485  13.429  0.0798  0.0299  0.0213
 1763DOPC   C3A20681  15.976  21.853  13.169 -0.1837 -0.1474 -0.1531
 1763DOPC   C4A20682  15.764  22.183  12.897  0.2364 -0.0912  0.1926
 1763DOPC   C1B20683  16.479  21.581  13.873  0.0040  0.0776  0.2333
 1763DOPC   D2B20684  16.628  21.703  13.530  0.1665  0.0161  0.1698
 1763DOPC   C3B20685  16.930  21.454  13.273  0.0585 -0.3873 -0.0801
 1763DOPC   C4B20686  17.141  21.319  12.905 -0.1575 -0.2042 -0.2125
 1764DOPE   NH320687  18.012  20.550  14.711 -0.1359 -0.4182  0.0448
 1764DOPE   PO420688  18.295  20.730  14.760 -0.3232  0.0583 -0.3811
 1764DOPE   GL120689  18.370  20.779  14.409  0.2767 -0.1915 -0.0286
 1764DOPE   GL220690  18.148  20.661  14.248  0.0306  0.1634 -0.1358
 1764DOPE   C1A20691  18.289  21.021  13.996 -0.0960 -0.1931 -0.1103
 1764DOPE   D2A20692  18.454  21.070  13.570 -0.1757 -0.1188  0.0303
 1764DOPE   C3A20693  18.701  20.670  13.528  0.0456  0.1515 -0.1791
 1764DOPE   C4A20694  18.997  20.415  13.774 -0.5773  0.0167  0.1702
 1764DOPE   C1B20695  18.125  20.520  13.795 -0.1657  0.0594 -0.2625
 1764DOPE   D2B20696  18.110  20.193  13.439  0.0607 -0.3999  0.2703
 1764DOPE   C3B20697  18.337  19.794  13.456 -0.1146 -0.1240  0.0811
 1764DOPE   C4B20698  18.589  19.421  13.622  0.2253 -0.2572  0.3010
 1765DOPC   NC320699  11.478  14.617  15.037 -0.0300  0.3010  0.2137
 1765DOPC   PO420700  11.258  14.911  15.075 -0.3460 -0.1189  0.3773
 1765DOPC   GL120701  11.132  14.867  14.671 -0.1075 -0.3067  0.4169
 1765DOPC   GL220702  11.396  14.853  14.513 -0.2221  0.2901 -0.0998
 1765DOPC   C1A20703  10.762  14.683  14.387 -0.2057 -0.2898 -0.1806
 1765DOPC   D2A20704  10.331  14.658  14.160  0.4011  0.1571 -0.0472
 1765DOPC   C3A20705   9.954  14.802  13.942 -0.1717 -0.1186 -0.3052
 1765DOPC   C4A20706   9.906  14.957  13.513 -0.1256  0.2481 -0.0147
 1765DOPC   C1B20707  11.201  15.085  14.146 -0.0130 -0.0975 -0.0060
 1765DOPC   D2B20708  11.234  14.981  13.682 -0.0495  0.1672  0.0093
 1765DOPC   C3B20709  11.640  15.074  13.549  0.1740  0.2670  0.0769
 1765DOPC   C4B20710  11.922  15.401  13.420 -0.1658  0.2486  0.3136
 1766DOPE   NH320711  21.379  15.781  15.348  0.0502 -0.3662 -0.0233
 1766DOPE   PO420712  21.331  15.582  15.108  0.0443  0.1740  0.0780
 1766DOPE   GL120713  21.200  15.651  14.827  0.2450 -0.1833  0.0470
 1766DOPE   GL220714  21.100  15.476  14.608  0.2905 -0.0326 -0.0820
 1766DOPE   C1A20715  21.416  15.813  14.436 -0.0321 -0.2658  0.0472
 1766DOPE   D2A20716  21.620  15.534  14.157  0.1915 -0.0499  0.2137
 1766DOPE   C3A20717  21.860  15.688  13.758  0.3817  0.1347 -0.2918
 1766DOPE   C4A20718  22.178  15.969  13.565 -0.1259  0.1241 -0.0312
 1766DOPE   C1B20719  21.188  15.321  14.188  0.0830 -0.2230  0.2492
 1766DOPE   D2B20720  21.282  15.438  13.743 -0.1862  0.0512  0.1918
 1766DOPE   C3B20721  21.364  15.811  13.508 -0.0032 -0.4301  0.0218
 1766DOPE   C4B20722  21.233  16.090  13.175 -0.1019 -0.2331  0.2153
 1767DOPE   NH320723  20.938  19.656  15.264  0.1227 -0.3506 -0.1913
 1767DOPE   PO420724  21.153  19.890  15.266 -0.1843  0.1568 -0.1995
 1767DOPE   GL120725  21.407  19.759  15.016 -0.0072  0.1523  0.1024
 1767DOPE   GL220726  21.242  19.557  14.845  0.2345  0.1404 -0.0921
 1767DOPE   C1A20727  21.535  19.929  14.588 -0.0361 -0.0958  0.2381
 1767DOPE   D2A20728  21.616  19.987  14.085  0.2911 -0.1731 -0.1199
 1767DOPE   C3A20729  21.564  19.640  13.774  0.0503  0.0333  0.2140
 1767DOPE   C4A20730  21.556  19.215  13.532  0.1319  0.1346  0.2616
 1767DOPE   C1B20731  21.284  19.539  14.356 -0.2452  0.2518  0.1871
 1767DOPE   D2B20732  21.256  19.247  14.002  0.1490 -0.3861  0.1816
 1767DOPE   C3B20733  21.047  19.368  13.594  0.0267  0.2893 -0.1389
 1767DOPE   C4B20734  21.248  19.574  13.197 -0.0631  0.3410  0.0942
 1768DOPC   NC320735  13.318  11.507  15.102 -0.0167  0.1343 -0.4112
 1768DOPC   PO420736  13.148  11.849  15.248 -0.0697 -0.0323 -0.0307
 1768DOPC   GL120737  13.089  11.801  14.848 -0.1057 -0.3104  0.2921
 1768DOPC   GL220738  12.824  11.976  14.883 -0.3277 -0.0973 -0.1114
 1768DOPC   C1A20739  13.410  11.525  14.552  0.1534 -0.3307  0.1243
 1768DOPC   D2A20740  13.821  11.772  14.519  0.0057  0.1751 -0.0159
 1768DOPC   C3A20741  14.030  11.491  14.260 -0.1138  0.3486 -0.3546
 1768DOPC   C4A20742  14.390  11.575  14.079  0.0603  0.0068 -0.1703
 1768DOPC   C1B20743  12.939  11.995  14.492  0.2066 -0.1307  0.0489
 1768DOPC   D2B20744  12.804  11.844  14.063  0.1716 -0.2560  0.0546
 1768DOPC   C3B20745  13.136  11.728  13.751 -0.1595  0.0396 -0.1833
 1768DOPC   C4B20746  13.169  11.589  13.310 -0.0631  0.1252  0.1309
 1769DOPC   NC320747  22.010  15.757  14.676 -0.2766  0.0953 -0.0529
 1769DOPC   PO420748  22.303  15.813  14.949 -0.1609  0.4102  0.0208
 1769DOPC   GL120749  22.416  15.610  14.561 -0.1032  0.1656 -0.2731
 1769DOPC   GL220750  22.460  15.333  14.546  0.1877 -0.1405 -0.3584
 1769DOPC   C1A20751  22.863  15.567  14.392  0.0294 -0.2391  0.0516
 1769DOPC   D2A20752  23.121  15.275  14.144 -0.0952  0.0647 -0.0322
 1769DOPC   C3A20753  22.894  14.850  14.037  0.0185 -0.1040 -0.3931
 1769DOPC   C4A20754  22.547  14.524  13.986 -0.0930  0.3471  0.3709
 1769DOPC   C1B20755  22.491  15.250  14.129  0.2845  0.3293 -0.2070
 1769DOPC   D2B20756  22.317  15.392  13.701  0.1217 -0.1127 -0.0626
 1769DOPC   C3B20757  22.046  15.451  13.292 -0.0149 -0.2711 -0.3067
 1769DOPC   C4B20758  21.838  15.819  13.198 -0.1608 -0.1335 -0.0047
 1770DOPE   NH320759  18.645  14.219  15.330 -0.0131 -0.0454  0.1790
 1770DOPE   PO420760  18.896  14.092  15.153 -0.0580 -0.2909 -0.3855
 1770DOPE   GL120761  18.806  13.927  14.776 -0.0461 -0.1008 -0.2157
 1770DOPE   GL220762  18.930  14.109  14.616 -0.1656 -0.1014  0.0417
 1770DOPE   C1A20763  18.531  13.908  14.363  0.3047 -0.0741  0.2133
 1770DOPE   D2A20764  18.276  14.096  14.008 -0.0224 -0.2557  0.2563
 1770DOPE   C3A20765  18.121  13.689  13.898 -0.0528 -0.0757 -0.2542
 1770DOPE   C4A20766  18.092  13.250  13.884  0.3388  0.0975  0.1643
 1770DOPE   C1B20767  19.065  14.185  14.225  0.2696 -0.0705  0.0089
 1770DOPE   D2B20768  19.321  14.350  13.911 -0.0520  0.0205 -0.1148
 1770DOPE   C3B20769  19.208  14.544  13.528  0.0948  0.0690 -0.5348
 1770DOPE   C4B20770  19.032  14.894  13.245 -0.4812 -0.1312  0.0944
 1771DOPE   NH320771  22.580  18.768  15.092 -0.0525 -0.2522  0.2954
 1771DOPE   PO420772  22.495  18.452  15.114 -0.3523  0.1185  0.0360
 1771DOPE   GL120773  22.683  18.437  14.712 -0.1446  0.1724 -0.0675
 1771DOPE   GL220774  22.964  18.398  14.838 -0.1107 -0.0445 -0.0935
 1771DOPE   C1A20775  22.943  18.104  14.436 -0.0798  0.0460 -0.0654
 1771DOPE   D2A20776  23.167  18.030  13.976  0.1565  0.2140 -0.3293
 1771DOPE   C3A20777  23.015  17.911  13.560  0.0613  0.2145  0.2656
 1771DOPE   C4A20778  23.204  17.628  13.225  0.2621 -0.0318  0.2316
 1771DOPE   C1B20779  23.093  18.606  14.412  0.2200 -0.2624  0.1278
 1771DOPE   D2B20780  22.970  18.677  13.981 -0.2546  0.0615  0.1690
 1771DOPE   C3B20781  22.804  18.332  13.687  0.1439  0.0414 -0.0085
 1771DOPE   C4B20782  22.499  18.271  13.329  0.0657  0.0070 -0.4282
 1772DOPS   CNO20783  12.971  16.347  15.005 -0.2370  0.0528  0.3192
 1772DOPS   PO420784  13.321  16.464  14.956  0.1317  0.0071  0.1653
 1772DOPS   GL120785  13.254  16.596  14.676 -0.1178  0.0158  0.0640
 1772DOPS   GL220786  13.067  16.490  14.528 -0.1239  0.1570 -0.2329
 1772DOPS   C1A20787  13.438  16.608  14.233 -0.4329  0.0551  0.2127
 1772DOPS   D2A20788  13.507  16.740  13.818 -0.2921 -0.1293  0.0108
 1772DOPS   C3A20789  13.102  16.669  13.624 -0.0500  0.2849  0.2106
 1772DOPS   C4A20790  12.715  16.760  13.340 -0.0747  0.0530 -0.2249
 1772DOPS   C1B20791  13.006  16.124  14.271  0.0380  0.2514  0.0666
 1772DOPS   D2B20792  13.345  16.059  13.943 -0.1288 -0.0099 -0.0873
 1772DOPS   C3B20793  13.213  16.143  13.527  0.0931 -0.0867  0.2503
 1772DOPS   C4B20794  13.176  16.387  13.119  0.1041  0.2044  0.1052
 1773POSM   NC320795  16.213  22.236  14.838 -0.2026 -0.1008 -0.1753
 1773POSM   PO420796  16.437  22.012  14.566 -0.0783 -0.3440 -0.1641
 1773POSM   AM120797  16.538  22.184  14.327 -0.0803 -0.1330 -0.1328
 1773POSM   AM220798  16.666  22.098  14.058 -0.0197 -0.1558 -0.0273
 1773POSM   T1A20799  16.567  22.632  14.070 -0.0071 -0.2045  0.0701
 1773POSM   C2A20800  16.381  22.911  13.830 -0.2077 -0.0404 -0.0846
 1773POSM   C3A20801  16.256  23.149  13.497  0.1278 -0.3155 -0.4353
 1773POSM   C1B20802  16.814  22.121  13.782 -0.2515  0.2189  0.2329
 1773POSM   D2B20803  16.902  22.126  13.295  0.0231 -0.1548  0.2427
 1773POSM   C3B20804  16.517  21.995  13.090  0.0952 -0.1701 -0.1393
 1773POSM   C4B20805  16.212  21.821  12.743  0.1789 -0.0887 -0.0903
 1774DOPC   NC320806  11.712  17.110  14.819 -0.1340  0.2456  0.1905
 1774DOPC   PO420807  11.333  17.094  14.941  0.2102 -0.1499  0.0578
 1774DOPC   GL120808  11.232  17.417  14.632  0.3900  0.1134  0.0480
 1774DOPC   GL220809  10.952  17.316  14.589  0.3546  0.0700  0.2451
 1774DOPC   C1A20810  11.210  17.720  14.261 -0.2768 -0.0693 -0.1727
 1774DOPC   D2A20811  11.120  18.107  13.959 -0.3085 -0.1004 -0.0461
 1774DOPC   C3A20812  11.042  18.107  13.518  0.2231  0.2908 -0.0806
 1774DOPC   C4A20813  10.924  18.316  13.140 -0.0788 -0.3797 -0.0309
 1774DOPC   C1B20814  10.810  17.514  14.204 -0.3999 -0.0932 -0.0867
 1774DOPC   D2B20815  10.847  17.579  13.759  0.0022 -0.1645  0.4100
 1774DOPC   C3B20816  11.142  17.620  13.416 -0.1573  0.2196  0.3103
 1774DOPC   C4B20817  11.392  17.934  13.202  0.1633  0.2332 -0.2578
 1775DOPC   NC320818  15.562  15.078  14.458  0.1490 -0.1659  0.1383
 1775DOPC   PO420819  15.805  14.847  14.177  0.0990  0.2103 -0.0608
 1775DOPC   GL120820  15.571  14.797  13.971 -0.1458  0.1242 -0.0104
 1775DOPC   GL220821  15.365  15.015  14.009  0.0872  0.1340 -0.1343
 1775DOPC   C1A20822  15.398  14.776  13.558 -0.0316 -0.2865  0.0390
 1775DOPC   D2A20823  15.363  14.773  13.135  0.1409  0.1026 -0.0499
 1775DOPC   C3A20824  15.516  14.934  12.737  0.2158 -0.1367 -0.2402
 1775DOPC   C4A20825  15.671  15.240  12.481 -0.1186 -0.3260 -0.1013
 1775DOPC   C1B20826  15.472  15.262  13.651  0.2032 -0.1362 -0.0393
 1775DOPC   D2B20827  15.608  15.207  13.219  0.1004  0.0310  0.0984
 1775DOPC   C3B20828  15.470  15.479  12.904  0.1645  0.2971 -0.3612
 1775DOPC   C4B20829  15.736  15.719  12.563 -0.1653  0.1302 -0.1332
 1776DOPS   CNO20830  14.489  12.597  15.247 -0.0541 -0.4422 -0.1350
 1776DOPS   PO420831  14.182  12.778  15.176 -0.1235 -0.1197  0.0673
 1776DOPS   GL120832  14.394  12.612  14.820 -0.0272  0.0411  0.0056
 1776DOPS   GL220833  14.117  12.541  14.614 -0.1105  0.2475  0.4222
 1776DOPS   C1A20834  14.620  12.377  14.490  0.1054  0.1812  0.2228
 1776DOPS   D2A20835  14.826  12.061  14.193 -0.0729 -0.5337  0.0101
 1776DOPS   C3A20836  15.264  11.926  14.328  0.1132 -0.2688 -0.1751
 1776DOPS   C4A20837  15.614  11.844  14.679 -0.0201  0.0948  0.0709
 1776DOPS   C1B20838  14.250  12.593  14.196  0.0846  0.0329 -0.0783
 1776DOPS   D2B20839  14.349  12.627  13.739 -0.0794 -0.1113 -0.0855
 1776DOPS   C3B20840  14.641  12.597  13.392  0.0132  0.0962 -0.0440
 1776DOPS   C4B20841  14.657  12.557  12.965  0.1601  0.1963 -0.0395
 1777DOPC   NC320842  22.254  22.936  15.644  0.0930 -0.1155  0.0485
 1777DOPC   PO420843  21.949  23.187  15.489  0.0417 -0.1379 -0.1635
 1777DOPC   GL120844  21.994  23.182  15.071  0.0670 -0.5579  0.0822
 1777DOPC   GL220845  21.746  23.272  15.044  0.1312  0.1497 -0.0797
 1777DOPC   C1A20846  22.160  23.498  14.740 -0.2528  0.0086  0.1781
 1777DOPC   D2A20847  22.195  23.727  14.330 -0.0392  0.3864 -0.0597
 1777DOPC   C3A20848  22.635  23.787  14.208 -0.0936  0.3565 -0.0388
 1777DOPC   C4A20849  23.030  23.865  13.960 -0.0970  0.1799 -0.2784
 1777DOPC   C1B20850  21.728  23.304  14.606 -0.1749  0.0380 -0.2111
 1777DOPC   D2B20851  21.762  23.485  14.185  0.1585 -0.0084 -0.1575
 1777DOPC   C3B20852  21.831  23.127  13.893  0.2926  0.0385  0.2219
 1777DOPC   C4B20853  21.903  22.725  13.654  0.1823 -0.1377  0.0254
 1778POSM   NC320854  20.103  15.485  15.231 -0.0455 -0.1816 -0.1127
 1778POSM   PO420855  20.255  15.522  14.858  0.0763 -0.1021 -0.0105
 1778POSM   AM120856  20.399  15.586  14.570 -0.1221 -0.1053 -0.2687
 1778POSM   AM220857  20.571  15.726  14.431  0.1520 -0.1820 -0.3483
 1778POSM   T1A20858  20.177  15.563  14.110 -0.2242  0.0214 -0.0311
 1778POSM   C2A20859  20.326  15.488  13.682  0.2455 -0.1025 -0.1713
 1778POSM   C3A20860  20.449  15.331  13.256 -0.2477  0.1501  0.3657
 1778POSM   C1B20861  20.464  15.982  14.212  0.0124  0.0238  0.2213
 1778POSM   D2B20862  20.582  16.366  13.930 -0.0741 -0.2185 -0.0990
 1778POSM   C3B20863  20.360  16.738  13.787 -0.1180  0.4703 -0.2652
 1778POSM   C4B20864  20.085  16.846  13.411  0.1856  0.0447  0.1847
 1779DOPC   NC320865  18.079  13.961  14.765  0.0125 -0.0677  0.0431
 1779DOPC   PO420866  17.944  13.651  14.964  0.4124  0.1608  0.1856
 1779DOPC   GL120867  17.826  13.412  14.695 -0.2180  0.1870 -0.3009
 1779DOPC   GL220868  18.056  13.160  14.702  0.2626 -0.0104 -0.1016
 1779DOPC   C1A20869  17.610  12.975  14.643  0.1834  0.0984  0.2105
 1779DOPC   D2A20870  17.462  12.666  14.955 -0.3987  0.2159 -0.0481
 1779DOPC   C3A20871  17.462  12.298  14.666 -0.1020 -0.0835 -0.0698
 1779DOPC   C4A20872  17.619  12.124  14.249 -0.0065  0.2203  0.2454
 1779DOPC   C1B20873  18.027  12.944  14.303 -0.0950  0.2593 -0.1049
 1779DOPC   D2B20874  17.874  12.509  13.997 -0.0566 -0.0481  0.1055
 1779DOPC   C3B20875  18.305  12.264  13.928 -0.1265  0.3029  0.2947
 1779DOPC   C4B20876  18.747  12.293  13.853 -0.1439  0.0243 -0.0763
 1780DOPC   NC320877  21.199  12.379  14.814 -0.2444 -0.1590 -0.1515
 1780DOPC   PO420878  21.167  12.098  15.130  0.1051 -0.1373  0.1472
 1780DOPC   GL120879  21.166  11.833  14.838  0.2165 -0.1051  0.1508
 1780DOPC   GL220880  20.903  12.011  14.702 -0.1612  0.0887 -0.0482
 1780DOPC   C1A20881  21.027  11.636  14.408  0.1879  0.0104  0.1744
 1780DOPC   D2A20882  21.140  11.657  13.956 -0.0076 -0.0582 -0.1071
 1780DOPC   C3A20883  20.886  11.496  13.697 -0.4009 -0.1563  0.1528
 1780DOPC   C4A20884  20.731  11.071  13.491 -0.2818 -0.1724 -0.1528
 1780DOPC   C1B20885  20.576  12.033  14.441 -0.0981  0.0658 -0.0267
 1780DOPC   D2B20886  20.652  11.841  14.019 -0.0310 -0.3375 -0.0973
 1780DOPC   C3B20887  20.237  11.822  13.717  0.3165  0.4130 -0.0705
 1780DOPC   C4B20888  19.917  11.429  13.699  0.0438  0.1296 -0.0238
 1781DOPE   NH320889  17.894  10.464  15.410 -0.1644 -0.0397  0.0554
 1781DOPE   PO420890  18.073  10.726  15.412 -0.0142 -0.0275 -0.1131
 1781DOPE   GL120891  18.271  10.672  15.099  0.2116 -0.0202 -0.0020
 1781DOPE   GL220892  18.425  10.983  15.124 -0.0817 -0.1931  0.1427
 1781DOPE   C1A20893  18.274  10.413  14.733  0.1372  0.0451 -0.1021
 1781DOPE   D2A20894  18.009  10.163  14.480 -0.3022 -0.1944  0.0185
 1781DOPE   C3A20895  17.864  10.380  14.089 -0.2605 -0.1605  0.0959
 1781DOPE   C4A20896  17.684  10.408  13.662  0.0716 -0.0266 -0.1026
 1781DOPE   C1B20897  18.575  11.394  14.846 -0.4641  0.0322 -0.0816
 1781DOPE   D2B20898  18.580  11.467  14.394  0.0211 -0.1626  0.0521
 1781DOPE   C3B20899  18.267  11.271  14.186  0.0441  0.0855  0.2690
 1781DOPE   C4B20900  17.995  10.985  14.007  0.0092 -0.0343 -0.0216
 1782POSM   NC320901  22.091  12.928  15.765 -0.0060  0.0252  0.1796
 1782POSM   PO420902  22.087  13.037  15.361 -0.1280  0.0293  0.4055
 1782POSM   AM120903  22.022  12.912  15.078  0.5188 -0.2075 -0.0204
 1782POSM   AM220904  21.877  12.958  14.825 -0.1613  0.0578  0.0082
 1782POSM   T1A20905  22.343  12.818  14.654  0.1634  0.0553 -0.3759
 1782POSM   C2A20906  22.292  12.500  14.303 -0.0100  0.2154 -0.0099
 1782POSM   C3A20907  22.191  12.370  13.846  0.0870  0.0189  0.0670
 1782POSM   C1B20908  21.954  13.066  14.540  0.2516 -0.0918 -0.0584
 1782POSM   D2B20909  21.858  13.030  14.132  0.0712  0.0624  0.0033
 1782POSM   C3B20910  22.137  12.904  13.827  0.1531 -0.0689 -0.0655
 1782POSM   C4B20911  22.107  12.679  13.376 -0.0709  0.2841 -0.5754
 1783POSM   NC320912  12.901  19.041  14.998  0.0911 -0.0506 -0.1079
 1783POSM   PO420913  13.174  18.853  14.823  0.1268  0.1986 -0.0824
 1783POSM   AM120914  13.141  19.017  14.555 -0.3826 -0.1960  0.1511
 1783POSM   AM220915  13.301  19.047  14.310 -0.0012  0.2402 -0.0191
 1783POSM   T1A20916  12.873  18.904  14.099  0.0924 -0.3030 -0.1385
 1783POSM   C2A20917  12.943  19.115  13.716  0.1161 -0.1289 -0.1132
 1783POSM   C3A20918  12.985  19.220  13.267 -0.1023 -0.2912 -0.0042
 1783POSM   C1B20919  13.365  19.004  13.951 -0.0956 -0.0971  0.3195
 1783POSM   D2B20920  13.615  19.253  13.673  0.2220 -0.1785  0.0047
 1783POSM   C3B20921  14.012  19.062  13.471 -0.0414  0.1884  0.1106
 1783POSM   C4B20922  14.265  18.842  13.129  0.0555 -0.0666  0.2371
 1784DOPE   NH320923  12.929  12.972  14.903 -0.0622 -0.0314 -0.1171
 1784DOPE   PO420924  12.933  12.984  14.568 -0.0316 -0.2259 -0.1815
 1784DOPE   GL120925  12.957  12.726  14.235  0.0420  0.1584 -0.0877
 1784DOPE   GL220926  13.292  12.663  14.223  0.2576 -0.1247  0.0376
 1784DOPE   C1A20927  12.794  12.795  13.756  0.1065 -0.0920  0.0040
 1784DOPE   D2A20928  12.833  13.143  13.436 -0.1480 -0.0380  0.0468
 1784DOPE   C3A20929  12.545  12.919  13.097  0.3427 -0.2600  0.1425
 1784DOPE   C4A20930  12.155  12.677  12.940 -0.0567 -0.0412  0.0635
 1784DOPE   C1B20931  13.317  12.640  13.751  0.0140 -0.1970  0.1280
 1784DOPE   D2B20932  13.133  12.657  13.372  0.1499 -0.0946  0.0118
 1784DOPE   C3B20933  13.099  12.829  12.962  0.0029  0.3146 -0.0960
 1784DOPE   C4B20934  13.045  12.926  12.537  0.2691 -0.0350 -0.0493
 1785POSM   NC320935  11.545  13.823  14.409 -0.0629  0.1402  0.2076
 1785POSM   PO420936  11.948  13.797  14.495 -0.0819 -0.0231  0.0201
 1785POSM   AM120937  12.054  13.505  14.419 -0.0494 -0.0120 -0.2878
 1785POSM   AM220938  12.061  13.390  14.166 -0.0742 -0.1236  0.0408
 1785POSM   T1A20939  12.087  13.011  14.378  0.2777  0.0422 -0.3357
 1785POSM   C2A20940  12.142  12.681  14.093  0.3139 -0.3666  0.4406
 1785POSM   C3A20941  12.250  12.513  13.651 -0.3088 -0.1310  0.2532
 1785POSM   C1B20942  12.075  13.558  13.882  0.0264 -0.1160 -0.2934
 1785POSM   D2B20943  12.226  13.443  13.474  0.0137 -0.0187  0.1644
 1785POSM   C3B20944  12.312  13.782  13.151  0.0504  0.1547 -0.1777
 1785POSM   C4B20945  12.279  13.730  12.670  0.3143  0.2548  0.0207
 1786DOPE   NH320946  15.899  21.750  15.237 -0.1368 -0.2023 -0.0634
 1786DOPE   PO420947  15.857  22.097  15.167 -0.2430 -0.1925  0.4254
 1786DOPE   GL120948  15.600  22.120  14.874  0.1893 -0.0017  0.1043
 1786DOPE   GL220949  15.720  22.312  14.693  0.1686  0.2701  0.2622
 1786DOPE   C1A20950  15.442  21.895  14.529 -0.2486 -0.2605  0.3612
 1786DOPE   D2A20951  15.427  22.063  14.066 -0.1669  0.2074  0.0707
 1786DOPE   C3A20952  15.691  22.045  13.682  0.0904 -0.0952  0.2277
 1786DOPE   C4A20953  16.200  21.955  13.617 -0.0075  0.0007  0.0432
 1786DOPE   C1B20954  15.895  22.233  14.283  0.2372 -0.1100  0.2517
 1786DOPE   D2B20955  16.205  22.283  14.005  0.1873  0.0107 -0.1243
 1786DOPE   C3B20956  16.308  22.421  13.584 -0.3855  0.1680  0.0237
 1786DOPE   C4B20957  16.203  22.416  13.170 -0.0912  0.1174  0.0324
 1787POSM   NC320958  12.163  16.514  14.765  0.1595 -0.0299  0.0316
 1787POSM   PO420959  11.921  16.769  14.594 -0.1988 -0.1054  0.3088
 1787POSM   AM120960  11.797  16.902  14.323  0.1946  0.0680  0.3997
 1787POSM   AM220961  11.906  16.999  14.078  0.1366 -0.1372  0.0820
 1787POSM   T1A20962  11.495  16.940  13.918 -0.0152 -0.0873 -0.0460
 1787POSM   C2A20963  11.236  16.876  13.537  0.2403 -0.0773  0.0079
 1787POSM   C3A20964  11.010  16.765  13.144  0.1683  0.2448 -0.0459
 1787POSM   C1B20965  12.033  16.740  13.886 -0.0872 -0.2943  0.0913
 1787POSM   D2B20966  11.907  16.484  13.540 -0.1680  0.0480  0.1243
 1787POSM   C3B20967  11.660  16.746  13.304  0.1397 -0.0655 -0.4267
 1787POSM   C4B20968  11.723  17.048  12.907  0.0416  0.3460  0.0228
 1788DOPS   CNO20969  23.057  13.832  15.105  0.3168  0.0175 -0.1380
 1788DOPS   PO420970  23.368  13.909  15.267  0.0753 -0.2044 -0.4748
 1788DOPS   GL120971  23.455  13.643  14.921 -0.0731  0.0847  0.4875
 1788DOPS   GL220972  23.698  13.591  14.725 -0.2401  0.2193  0.1121
 1788DOPS   C1A20973  23.314  13.713  14.481  0.2987 -0.0533  0.1822
 1788DOPS   D2A20974  23.351  13.712  13.993  0.1713  0.1494  0.5251
 1788DOPS   C3A20975  23.724  13.570  13.753 -0.3854 -0.0409 -0.1237
 1788DOPS   C4A20976  24.126  13.556  13.444 -0.2697  0.2654 -0.4197
 1788DOPS   C1B20977  23.863  13.204  14.617  0.0202 -0.0895 -0.2088
 1788DOPS   D2B20978  24.290  13.053  14.526  0.0460 -0.2904  0.0933
 1788DOPS   C3B20979  24.283  12.560  14.452  0.0298  0.2664 -0.2614
 1788DOPS   C4B20980  24.307  12.124  14.276 -0.0676  0.0918 -0.1248
 1789DOPC   NC320981  17.525  21.396  14.437 -0.2908 -0.0039 -0.0887
 1789DOPC   PO420982  17.194  21.444  14.661 -0.1288  0.1315  0.0065
 1789DOPC   GL120983  17.166  21.071  14.423  0.4381  0.1891 -0.2151
 1789DOPC   GL220984  17.056  21.287  14.217 -0.2334  0.1373  0.1490
 1789DOPC   C1A20985  17.323  20.911  14.029  0.1511  0.2670 -0.2005
 1789DOPC   D2A20986  17.571  20.694  13.681 -0.0992  0.0787  0.1553
 1789DOPC   C3A20987  17.709  20.639  13.227  0.0754  0.1844  0.1632
 1789DOPC   C4A20988  17.668  20.627  12.781 -0.0138  0.0907  0.1114
 1789DOPC   C1B20989  16.913  21.325  13.747 -0.0099  0.5248  0.0607
 1789DOPC   D2B20990  16.554  21.213  13.455  0.1717  0.1474 -0.0222
 1789DOPC   C3B20991  16.469  21.480  13.051 -0.3735 -0.1874 -0.1418
 1789DOPC   C4B20992  16.443  21.314  12.615  0.1195 -0.0321  0.0983
 1790DOPS   CNO20993  12.242  22.915  15.606  0.1077  0.1408 -0.2485
 1790DOPS   PO420994  12.501  23.202  15.524  0.1935  0.0400  0.2900
 1790DOPS   GL120995  12.478  23.154  15.095 -0.3151  0.2367 -0.0248
 1790DOPS   GL220996  12.247  23.334  14.964  0.0174 -0.0803  0.3606
 1790DOPS   C1A20997  12.348  22.679  15.013 -0.2095 -0.2117  0.1909
 1790DOPS   D2A20998  12.326  22.231  14.797  0.0303  0.0709 -0.1355
 1790DOPS   C3A20999  12.120  22.222  14.408  0.0007  0.1415  0.0182
 1790DOPS   C4A21000  11.760  21.991  14.198  0.0415 -0.3292 -0.1716
 1790DOPS   C1B21001  11.942  23.281  14.609 -0.2271  0.4139 -0.0483
 1790DOPS   D2B21002  12.083  23.175  14.212  0.1326 -0.1180  0.0121
 1790DOPS   C3B21003  12.323  22.924  14.000 -0.4094 -0.0193 -0.1588
 1790DOPS   C4B21004  12.758  22.810  13.778 -0.0342  0.0219  0.1690
 1791DOPE   NH321005  21.703  21.033  15.372 -0.0250 -0.3413 -0.0523
 1791DOPE   PO421006  21.727  20.709  15.275 -0.0996  0.1044  0.0917
 1791DOPE   GL121007  21.653  20.768  14.855  0.2152 -0.0060 -0.1798
 1791DOPE   GL221008  21.632  20.441  14.756  0.0867  0.5419  0.0295
 1791DOPE   C1A21009  21.747  20.827  14.444  0.1654 -0.2263  0.1185
 1791DOPE   D2A21010  21.931  20.888  13.993  0.3349 -0.2818 -0.0695
 1791DOPE   C3A21011  22.398  20.766  13.844 -0.0183  0.0535 -0.0149
 1791DOPE   C4A21012  22.575  20.732  13.392 -0.0266  0.1079  0.1939
 1791DOPE   C1B21013  21.480  20.462  14.313 -0.1719 -0.2535  0.3614
 1791DOPE   D2B21014  21.371  20.368  13.831 -0.1493 -0.2891 -0.0579
 1791DOPE   C3B21015  21.584  20.048  13.547  0.0025 -0.0535  0.0943
 1791DOPE   C4B21016  21.872  20.047  13.280 -0.0621  0.0138  0.2642
 1792DOPC   NC321017  12.980  18.368  14.774  0.0273 -0.0298  0.1408
 1792DOPC   PO421018  12.613  18.206  14.779  0.0198  0.2258  0.1497
 1792DOPC   GL121019  12.736  18.168  14.438 -0.0172  0.0546 -0.1713
 1792DOPC   GL221020  12.726  18.398  14.323  0.1218 -0.2404 -0.2154
 1792DOPC   C1A21021  12.854  17.806  14.159  0.3104 -0.0599 -0.3416
 1792DOPC   D2A21022  12.738  17.528  13.868  0.0319 -0.1213 -0.2756
 1792DOPC   C3A21023  12.622  17.252  13.494  0.1128  0.0057  0.2407
 1792DOPC   C4A21024  12.660  17.273  13.073 -0.2160  0.0735 -0.2183
 1792DOPC   C1B21025  13.021  18.240  14.023  0.0420 -0.0341  0.1867
 1792DOPC   D2B21026  13.202  17.846  13.823  0.1988  0.1901 -0.1720
 1792DOPC   C3B21027  13.111  17.523  13.523  0.3161 -0.3440 -0.1968
 1792DOPC   C4B21028  13.334  17.130  13.566 -0.3254  0.2215  0.0575
 1793DOPS   CNO21029  11.948  14.488  14.902 -0.0802 -0.1247 -0.2078
 1793DOPS   PO421030  11.997  14.841  14.748 -0.2497  0.2752  0.1571
 1793DOPS   GL121031  11.938  14.564  14.425  0.2224 -0.0192 -0.0485
 1793DOPS   GL221032  11.989  14.766  14.252  0.0922  0.3663  0.0300
 1793DOPS   C1A21033  11.568  14.506  14.092  0.1384  0.1308 -0.0792
 1793DOPS   D2A21034  11.144  14.590  14.094 -0.1294 -0.1138  0.0075
 1793DOPS   C3A21035  10.827  14.601  13.756 -0.0694 -0.0482 -0.0975
 1793DOPS   C4A21036  10.814  14.659  13.314 -0.3906 -0.1105 -0.2641
 1793DOPS   C1B21037  12.216  14.402  14.055 -0.1327 -0.0459  0.3547
 1793DOPS   D2B21038  11.882  14.040  14.035 -0.0830  0.0709 -0.2689
 1793DOPS   C3B21039  11.552  14.084  13.750 -0.0067 -0.0820  0.2284
 1793DOPS   C4B21040  11.325  14.473  13.580  0.1292 -0.0001  0.0970
 1794DOPC   NC321041  15.368  13.790  14.662  0.2053  0.2645  0.1107
 1794DOPC   PO421042  15.010  13.791  14.458  0.2930 -0.0674 -0.2477
 1794DOPC   GL121043  15.141  13.701  14.173 -0.3069  0.1586 -0.1066
 1794DOPC   GL221044  15.371  13.758  14.038  0.3157 -0.1068 -0.1760
 1794DOPC   C1A21045  15.002  13.392  13.834  0.1439 -0.2395 -0.3347
 1794DOPC   D2A21046  14.749  13.130  13.589 -0.0497  0.5355 -0.0540
 1794DOPC   C3A21047  15.027  13.033  13.256 -0.0907  0.1356 -0.2383
 1794DOPC   C4A21048  15.476  12.893  13.244 -0.4213  0.1043 -0.0572
 1794DOPC   C1B21049  15.468  13.892  13.590  0.0063 -0.1857 -0.2108
 1794DOPC   D2B21050  15.379  14.245  13.273 -0.1789 -0.0056 -0.0109
 1794DOPC   C3B21051  15.768  14.458  13.345 -0.0593 -0.1539  0.0291
 1794DOPC   C4B21052  16.196  14.768  13.220  0.0250 -0.0120 -0.0403
 1795DOPE   NH321053  22.885  19.958  14.877 -0.0061 -0.0770  0.1162
 1795DOPE   PO421054  22.678  19.736  14.849 -0.0335 -0.2315 -0.3456
 1795DOPE   GL121055  22.462  19.916  14.603 -0.1621 -0.3136  0.1865
 1795DOPE   GL221056  22.628  20.181  14.441 -0.2276 -0.0843 -0.0736
 1795DOPE   C1A21057  22.217  19.856  14.197  0.1171 -0.1056  0.1174
 1795DOPE   D2A21058  22.050  19.897  13.758 -0.0769  0.1555  0.1055
 1795DOPE   C3A21059  21.985  19.533  13.543  0.2529  0.2748  0.0252
 1795DOPE   C4A21060  21.962  19.220  13.223 -0.0072  0.2410 -0.3894
 1795DOPE   C1B21061  22.483  20.189  13.983 -0.0502  0.0452 -0.0399
 1795DOPE   D2B21062  22.356  20.305  13.521 -0.4286  0.0271  0.0385
 1795DOPE   C3B21063  22.303  20.194  13.099  0.0491 -0.0731 -0.2794
 1795DOPE   C4B21064  21.992  20.001  12.768 -0.2573 -0.2747  0.3551
 1796POSM   NC321065  19.128  21.026  14.847  0.3198 -0.1713 -0.1925
 1796POSM   PO421066  18.804  20.838  14.778 -0.2317 -0.2328 -0.0311
 1796POSM   AM121067  18.806  20.837  14.430  0.0552  0.2060 -0.5227
 1796POSM   AM221068  18.716  21.064  14.237 -0.1166  0.2783 -0.3285
 1796POSM   T1A21069  18.583  20.469  14.115  0.1306  0.2343  0.0310
 1796POSM   C2A21070  18.485  20.108  13.796 -0.0335 -0.1271  0.2992
 1796POSM   C3A21071  18.392  19.705  14.026 -0.1361  0.3235  0.2124
 1796POSM   C1B21072  18.743  21.136  13.940 -0.0833 -0.0581  0.0441
 1796POSM   D2B21073  18.895  21.357  13.552  0.1526  0.0245 -0.0418
 1796POSM   C3B21074  18.720  21.818  13.529 -0.0565  0.0155  0.1280
 1796POSM   C4B21075  18.305  21.996  13.592  0.2645 -0.1257  0.0808
 1797DOPE   NH321076  16.752  21.138  14.561  0.0018  0.0502  0.0051
 1797DOPE   PO421077  16.520  20.875  14.617 -0.0597  0.0375 -0.0756
 1797DOPE   GL121078  16.385  20.772  14.250 -0.5254 -0.3683  0.3214
 1797DOPE   GL221079  16.105  20.874  14.264  0.0623  0.2175 -0.1219
 1797DOPE   C1A21080  16.441  20.811  13.736 -0.0647 -0.1637 -0.0217
 1797DOPE   D2A21081  16.416  20.707  13.339 -0.0065  0.3906 -0.0575
 1797DOPE   C3A21082  16.388  20.286  13.066  0.3882 -0.0730  0.0416
 1797DOPE   C4A21083  16.148  19.969  12.876  0.0635  0.1577 -0.3095
 1797DOPE   C1B21084  15.995  20.643  13.874  0.0766  0.0154  0.0722
 1797DOPE   D2B21085  15.867  20.559  13.409  0.0665  0.1453 -0.0618
 1797DOPE   C3B21086  16.054  20.964  13.087 -0.1986  0.1247  0.0584
 1797DOPE   C4B21087  16.034  21.331  12.884  0.0531  0.0991 -0.3126
 1798POSM   NC321088  19.707  20.628  14.437  0.1197  0.0667 -0.0176
 1798POSM   PO421089  19.522  20.938  14.503  0.0079  0.1089  0.2560
 1798POSM   AM121090  19.566  21.123  14.231 -0.2063 -0.1096  0.0051
 1798POSM   AM221091  19.623  21.385  14.169  0.3113  0.1798  0.1983
 1798POSM   T1A21092  19.314  21.142  13.793  0.0900 -0.0809  0.1833
 1798POSM   C2A21093  19.125  20.944  13.444 -0.2643  0.1377 -0.3697
 1798POSM   C3A21094  18.797  21.031  13.139 -0.0058 -0.0113  0.2539
 1798POSM   C1B21095  19.775  21.263  13.916  0.0982  0.0698  0.3478
 1798POSM   D2B21096  20.095  20.999  13.705 -0.0548  0.0873 -0.0961
 1798POSM   C3B21097  19.970  20.838  13.343 -0.0651  0.1881  0.2604
 1798POSM   C4B21098  20.164  20.448  13.095 -0.0686 -0.1390 -0.0427
 1799DOPC   NC321099  20.241  16.144  14.692 -0.1736  0.1238  0.2388
 1799DOPC   PO421100  19.862  16.275  14.642 -0.2333 -0.1596  0.3741
 1799DOPC   GL121101  20.043  16.179  14.264 -0.1853  0.3586  0.2561
 1799DOPC   GL221102  20.151  16.446  14.208  0.2229 -0.0490 -0.2468
 1799DOPC   C1A21103  20.164  16.109  13.788  0.2612 -0.0727  0.2754
 1799DOPC   D2A21104  20.317  16.384  13.473  0.0487  0.0517 -0.1603
 1799DOPC   C3A21105  20.635  16.363  13.135 -0.1616 -0.1317  0.0714
 1799DOPC   C4A21106  20.958  16.685  13.040 -0.2036 -0.1055  0.0050
 1799DOPC   C1B21107  19.861  16.512  13.859  0.1160  0.1378 -0.1466
 1799DOPC   D2B21108  19.697  16.493  13.448  0.0987  0.0040 -0.2117
 1799DOPC   C3B21109  19.832  16.077  13.361 -0.3229  0.3721  0.0895
 1799DOPC   C4B21110  19.758  15.876  12.997  0.2912  0.2572  0.4011
 1800DOPE   NH321111  17.961  21.950  14.990 -0.1672  0.0686  0.2398
 1800DOPE   PO421112  18.250  22.045  14.927 -0.1044  0.1587 -0.3525
 1800DOPE   GL121113  18.289  22.099  14.545 -0.0870  0.1664  0.0731
 1800DOPE   GL221114  18.587  22.078  14.518 -0.0432  0.0369  0.1496
 1800DOPE   C1A21115  18.351  22.295  14.144  0.3745 -0.3309  0.1632
 1800DOPE   D2A21116  18.690  22.153  13.838 -0.2268  0.1186 -0.1458
 1800DOPE   C3A21117  18.898  22.495  13.620 -0.0672  0.2842 -0.2023
 1800DOPE   C4A21118  18.716  22.804  13.332 -0.3208 -0.0489 -0.1648
 1800DOPE   C1B21119  18.992  22.304  14.628  0.0451 -0.3670  0.0115
 1800DOPE   D2B21120  19.316  22.641  14.626  0.1427  0.1005 -0.4602
 1800DOPE   C3B21121  19.220  23.053  14.518  0.1239 -0.1267 -0.1738
 1800DOPE   C4B21122  19.196  23.314  14.124  0.0021  0.1656 -0.0621
 1801POSM   NC321123  19.094  12.641  15.100  0.0790  0.1077  0.1801
 1801POSM   PO421124  18.694  12.617  15.197 -0.1687 -0.2250 -0.4653
 1801POSM   AM121125  18.685  12.355  14.971 -0.0815 -0.1488 -0.0322
 1801POSM   AM221126  18.665  12.415  14.674  0.0193  0.2183 -0.1090
 1801POSM   T1A21127  18.773  11.936  14.748  0.5293  0.0988 -0.1650
 1801POSM   C2A21128  18.961  11.795  14.437  0.0201  0.4483 -0.0975
 1801POSM   C3A21129  19.256  11.551  14.220  0.3300 -0.0637 -0.2478
 1801POSM   C1B21130  18.728  12.514  14.363 -0.0396 -0.3297 -0.1780
 1801POSM   D2B21131  18.923  12.760  14.008  0.4213 -0.1909 -0.1348
 1801POSM   C3B21132  19.142  12.552  13.630  0.0061 -0.0039 -0.2648
 1801POSM   C4B21133  19.377  12.299  13.357 -0.0551 -0.0514  0.0329
 1802DOPE   NH321134  21.268  22.181  15.344  0.3976  0.2100 -0.2395
 1802DOPE   PO421135  21.514  22.317  15.217 -0.0039  0.2022  0.2858
 1802DOPE   GL121136  21.498  21.986  14.891 -0.0805 -0.0581  0.0616
 1802DOPE   GL221137  21.725  21.790  14.940 -0.0762 -0.1384 -0.3027
 1802DOPE   C1A21138  21.532  21.804  14.442 -0.1126  0.0643 -0.1045
 1802DOPE   D2A21139  21.392  21.834  14.007 -0.2034  0.1402 -0.1463
 1802DOPE   C3A21140  21.271  22.233  13.786  0.0013 -0.1374  0.0256
 1802DOPE   C4A21141  20.950  22.555  13.756 -0.1073  0.2721  0.3056
 1802DOPE   C1B21142  22.033  21.718  14.545  0.0667 -0.1290  0.1887
 1802DOPE   D2B21143  22.168  21.543  14.168 -0.1787  0.0003 -0.3193
 1802DOPE   C3B21144  22.305  21.798  13.847  0.0640 -0.0814  0.0425
 1802DOPE   C4B21145  22.341  22.090  13.504  0.0770  0.1170 -0.4075
 1803DOPE   NH321146  12.480  14.588  14.439 -0.3314  0.0776  0.1986
 1803DOPE   PO421147  12.456  14.925  14.494  0.5322 -0.1720 -0.0610
 1803DOPE   GL121148  12.346  15.012  14.142 -0.0570 -0.1863  0.4470
 1803DOPE   GL221149  12.545  14.866  13.958  0.1693  0.2189 -0.1235
 1803DOPE   C1A21150  12.288  15.366  13.798  0.0479 -0.2072  0.3522
 1803DOPE   D2A21151  12.403  15.584  13.442  0.4018 -0.0617 -0.1974
 1803DOPE   C3A21152  12.348  15.413  13.026 -0.2285  0.2566 -0.0343
 1803DOPE   C4A21153  12.316  15.540  12.563 -0.1954 -0.0638  0.0285
 1803DOPE   C1B21154  12.868  14.739  13.704  0.1305  0.0114  0.2404
 1803DOPE   D2B21155  13.086  14.820  13.333 -0.0237  0.0169  0.0611
 1803DOPE   C3B21156  12.995  14.706  12.858 -0.1268 -0.1562  0.2276
 1803DOPE   C4B21157  13.165  14.850  12.429  0.1559 -0.0271 -0.3612
 1804DOPE   NH321158  20.864  18.533  15.312 -0.0988  0.1736  0.3188
 1804DOPE   PO421159  20.565  18.397  15.360 -0.0165  0.2586  0.2523
 1804DOPE   GL121160  20.479  18.270  15.010 -0.1900 -0.0989 -0.0933
 1804DOPE   GL221161  20.707  18.230  14.824 -0.0402 -0.0189  0.1436
 1804DOPE   C1A21162  20.165  18.353  14.709 -0.4024 -0.3613 -0.1324
 1804DOPE   D2A21163  20.161  18.523  14.298 -0.0180  0.0538 -0.2596
 1804DOPE   C3A21164  20.123  18.948  14.116 -0.0128 -0.2034 -0.1172
 1804DOPE   C4A21165  20.140  19.105  13.706  0.1185  0.4875  0.1542
 1804DOPE   C1B21166  20.615  18.398  14.413  0.2033 -0.0628 -0.2753
 1804DOPE   D2B21167  20.679  18.591  13.991  0.2138  0.0633 -0.1917
 1804DOPE   C3B21168  20.312  18.644  13.805  0.3357 -0.2050 -0.0432
 1804DOPE   C4B21169  20.168  18.759  13.357 -0.0006  0.4129  0.0599
 1805DOPE   NH321170  12.754  12.275  15.318 -0.0371 -0.1366  0.0400
 1805DOPE   PO421171  12.759  12.559  15.157  0.1875 -0.0566  0.0050
 1805DOPE   GL121172  12.658  12.440  14.793  0.0584  0.1319  0.0599
 1805DOPE   GL221173  12.899  12.503  14.651  0.0018  0.1467 -0.5521
 1805DOPE   C1A21174  12.466  12.028  14.605 -0.2235 -0.1191  0.3547
 1805DOPE   D2A21175  12.364  11.549  14.686  0.1422 -0.2283 -0.0408
 1805DOPE   C3A21176  11.982  11.353  14.883  0.0914  0.2822  0.2005
 1805DOPE   C4A21177  11.855  10.907  14.816  0.0004 -0.0555 -0.0197
 1805DOPE   C1B21178  12.599  12.371  14.300 -0.1755 -0.1307  0.1912
 1805DOPE   D2B21179  12.374  12.135  13.978  0.0157 -0.0533  0.0389
 1805DOPE   C3B21180  12.479  11.892  13.550  0.0439  0.1988  0.2816
 1805DOPE   C4B21181  12.801  11.972  13.250 -0.1105  0.2545 -0.0045
 1806POSM   NC321182  21.501  13.798  14.983 -0.1620 -0.0784  0.0214
 1806POSM   PO421183  21.141  14.000  14.851 -0.2049  0.0249  0.1164
 1806POSM   AM121184  21.063  14.129  14.521  0.1444  0.0207  0.3312
 1806POSM   AM221185  20.887  13.987  14.310  0.0496 -0.1371 -0.0585
 1806POSM   T1A21186  21.078  14.506  14.214  0.0558 -0.1082  0.0712
 1806POSM   C2A21187  21.149  14.501  13.720 -0.0516  0.0902  0.3714
 1806POSM   C3A21188  21.143  14.635  13.294 -0.0579  0.0308 -0.0415
 1806POSM   C1B21189  20.928  14.050  13.991 -0.3481  0.0107  0.1219
 1806POSM   D2B21190  21.101  14.009  13.580  0.1322 -0.0092  0.1677
 1806POSM   C3B21191  21.079  14.145  13.144  0.1313 -0.0280  0.0978
 1806POSM   C4B21192  21.162  14.158  12.697 -0.0688  0.1499 -0.0017
 1807DOPE   NH321193  20.632  20.416  14.901  0.3704 -0.3198 -0.1746
 1807DOPE   PO421194  20.737  20.168  15.055 -0.1559 -0.1095 -0.0388
 1807DOPE   GL121195  21.010  20.086  14.851  0.0370  0.1245  0.0168
 1807DOPE   GL221196  21.100  20.231  14.652 -0.0777 -0.2726 -0.2715
 1807DOPE   C1A21197  20.882  19.697  14.562  0.1186  0.1085 -0.0214
 1807DOPE   D2A21198  20.777  19.696  14.144 -0.0074  0.2079  0.2322
 1807DOPE   C3A21199  20.393  19.480  14.011  0.0966 -0.1633 -0.5030
 1807DOPE   C4A21200  19.921  19.398  14.108  0.0313 -0.0534  0.1296
 1807DOPE   C1B21201  21.177  20.053  14.247  0.0116  0.4154  0.3533
 1807DOPE   D2B21202  21.104  19.906  13.830 -0.1829 -0.0582  0.1907
 1807DOPE   C3B21203  20.998  19.983  13.372  0.0427 -0.1880  0.0242
 1807DOPE   C4B21204  21.017  20.115  12.930 -0.3438 -0.0769 -0.2206
 1808DOPE   NH321205  20.638  22.670  15.093  0.0178  0.2790  0.2008
 1808DOPE   PO421206  20.739  22.344  15.102 -0.3270 -0.0211 -0.2028
 1808DOPE   GL121207  20.872  22.496  14.721  0.0903 -0.2806 -0.1583
 1808DOPE   GL221208  21.199  22.367  14.739 -0.0032  0.1818  0.0336
 1808DOPE   C1A21209  21.000  22.829  14.475  0.0986 -0.1308  0.2911
 1808DOPE   D2A21210  20.837  23.055  14.063  0.1017  0.0754  0.1358
 1808DOPE   C3A21211  20.861  23.054  13.587 -0.2439  0.2792  0.3312
 1808DOPE   C4A21212  21.040  23.033  13.180 -0.0228 -0.1814  0.1864
 1808DOPE   C1B21213  21.495  22.382  14.415  0.1373 -0.1324  0.2781
 1808DOPE   D2B21214  21.793  22.517  14.085 -0.1989 -0.1408  0.1444
 1808DOPE   C3B21215  22.153  22.791  14.126  0.1419  0.0146 -0.2169
 1808DOPE   C4B21216  22.583  22.996  14.123 -0.0477 -0.2937  0.0910
 1809POSM   NC321217  19.512  15.270  13.987  0.0717  0.0166 -0.1275
 1809POSM   PO421218  19.470  15.450  14.334  0.1442 -0.0495 -0.0337
 1809POSM   AM121219  19.635  15.692  14.174  0.1780 -0.4463  0.0562
 1809POSM   AM221220  19.593  15.974  14.097 -0.2008 -0.1258 -0.1155
 1809POSM   T1A21221  19.838  15.745  13.738  0.2533 -0.2017  0.0700
 1809POSM   C2A21222  19.864  15.501  13.307  0.0319 -0.0294  0.0302
 1809POSM   C3A21223  19.589  15.381  12.901  0.1637 -0.1433 -0.0562
 1809POSM   C1B21224  19.506  16.154  13.833 -0.0971  0.1807  0.0872
 1809POSM   D2B21225  19.304  16.196  13.403 -0.0063 -0.0899  0.2094
 1809POSM   C3B21226  19.270  16.149  12.954  0.0019  0.0120 -0.0344
 1809POSM   C4B21227  19.392  15.932  12.613 -0.0727  0.2022 -0.0505
 1810DOPC   NC321228  14.100  20.545  15.037 -0.0375 -0.1549  0.0876
 1810DOPC   PO421229  14.396  20.253  14.929  0.3681 -0.2931  0.1435
 1810DOPC   GL121230  14.524  19.946  14.699 -0.3382 -0.1267  0.2968
 1810DOPC   GL221231  14.434  20.036  14.452 -0.0516 -0.4510 -0.0373
 1810DOPC   C1A21232  14.766  19.682  14.287 -0.1701  0.1042 -0.0912
 1810DOPC   D2A21233  14.738  19.354  13.954 -0.0117 -0.0562 -0.1502
 1810DOPC   C3A21234  14.425  19.544  13.660 -0.0203  0.1013  0.2113
 1810DOPC   C4A21235  13.998  19.559  13.495  0.0554 -0.1869  0.2096
 1810DOPC   C1B21236  14.416  20.095  14.028 -0.1179 -0.2877  0.0482
 1810DOPC   D2B21237  14.625  19.998  13.670  0.0867  0.1656 -0.0832
 1810DOPC   C3B21238  14.451  19.849  13.280  0.0585  0.2668  0.5330
 1810DOPC   C4B21239  14.573  19.888  12.781 -0.0413  0.0147  0.0074
 1811DOPE   NH321240  13.461  13.692  14.350  0.0063  0.0344 -0.0168
 1811DOPE   PO421241  13.492  13.496  14.103 -0.3075 -0.1353  0.0463
 1811DOPE   GL121242  13.295  13.601  13.685 -0.2276 -0.3030 -0.2859
 1811DOPE   GL221243  13.422  13.834  13.688  0.3103 -0.0315 -0.0715
 1811DOPE   C1A21244  13.227  13.470  13.238 -0.4154  0.1276  0.3279
 1811DOPE   D2A21245  13.220  13.309  12.836  0.0480  0.0142  0.4058
 1811DOPE   C3A21246  13.034  13.382  12.415 -0.3985 -0.0664 -0.0916
 1811DOPE   C4A21247  12.843  13.498  11.980 -0.0555 -0.0671  0.0053
 1811DOPE   C1B21248  13.464  14.029  13.284  0.0077  0.1724 -0.0418
 1811DOPE   D2B21249  13.792  14.064  12.921  0.0173 -0.0657 -0.0029
 1811DOPE   C3B21250  14.083  13.828  12.625 -0.2341  0.1245  0.4641
 1811DOPE   C4B21251  14.377  13.485  12.596  0.0141  0.1682  0.0175
 1812DOPC   NC321252  22.430  17.624  15.223 -0.1760  0.0603  0.0680
 1812DOPC   PO421253  22.011  17.603  15.170 -0.3692  0.2336  0.0066
 1812DOPC   GL121254  22.112  17.524  14.806 -0.0316  0.2282 -0.0438
 1812DOPC   GL221255  22.389  17.586  14.727  0.0026 -0.0158 -0.1772
 1812DOPC   C1A21256  22.028  17.695  14.379  0.0867  0.1269  0.0110
 1812DOPC   D2A21257  22.187  17.675  13.936  0.1803  0.1157  0.0525
 1812DOPC   C3A21258  21.874  17.525  13.661  0.1229  0.0453  0.2479
 1812DOPC   C4A21259  21.565  17.422  13.389 -0.2068  0.0107  0.1424
 1812DOPC   C1B21260  22.417  17.456  14.282 -0.0004 -0.0294  0.3421
 1812DOPC   D2B21261  22.261  17.186  13.948  0.1814  0.1010  0.1097
 1812DOPC   C3B21262  22.348  17.255  13.534 -0.3895  0.3316 -0.0532
 1812DOPC   C4B21263  22.244  17.264  13.166 -0.3939  0.1291 -0.0765
 1813POSM   NC321264  12.220  11.751  15.191 -0.0910 -0.0324 -0.3755
 1813POSM   PO421265  12.611  11.740  15.324  0.0779  0.0507  0.1594
 1813POSM   AM121266  12.717  11.489  15.113 -0.1583 -0.4673  0.0069
 1813POSM   AM221267  12.910  11.262  15.060 -0.0471  0.1346 -0.0871
 1813POSM   T1A21268  12.853  11.471  14.616  0.0684 -0.0133  0.0056
 1813POSM   C2A21269  13.007  11.417  14.183  0.4079  0.1927 -0.0706
 1813POSM   C3A21270  13.107  11.123  13.892  0.0850  0.2581  0.0609
 1813POSM   C1B21271  13.078  11.054  14.877  0.1330 -0.0268 -0.2462
 1813POSM   D2B21272  13.128  10.841  14.454  0.4761  0.1850  0.0103
 1813POSM   C3B21273  12.785  10.916  14.171  0.1486 -0.4742 -0.0050
 1813POSM   C4B21274  12.464  11.222  14.226 -0.3645 -0.0576 -0.0512
 1814DOPE   NH321275  20.584  14.020  14.719  0.0419 -0.3596  0.1481
 1814DOPE   PO421276  20.459  14.205  14.445  0.1408 -0.2142 -0.0092
 1814DOPE   GL121277  20.383  14.399  14.119  0.2288 -0.0116  0.0229
 1814DOPE   GL221278  20.607  14.389  13.995 -0.1605  0.2297  0.2151
 1814DOPE   C1A21279  20.093  14.380  13.739 -0.2849 -0.0790  0.0785
 1814DOPE   D2A21280  20.042  14.074  13.462 -0.1135 -0.0100  0.2613
 1814DOPE   C3A21281  19.829  14.134  13.052  0.3449 -0.0395 -0.2627
 1814DOPE   C4A21282  19.538  14.252  12.732  0.3540 -0.0308 -0.0430
 1814DOPE   C1B21283  20.581  14.473  13.541  0.1227 -0.1221  0.1182
 1814DOPE   D2B21284  20.663  14.792  13.188  0.1137  0.1020 -0.2843
 1814DOPE   C3B21285  20.770  14.692  12.818  0.2013 -0.2206  0.2739
 1814DOPE   C4B21286  20.893  14.477  12.441 -0.1479  0.0904 -0.0004
 1815DOPE   NH321287  22.348  15.221  15.028  0.2481 -0.0938 -0.1157
 1815DOPE   PO421288  22.059  15.251  14.916  0.0668 -0.3862  0.0414
 1815DOPE   GL121289  21.991  15.284  14.502 -0.0271 -0.3366  0.0393
 1815DOPE   GL221290  22.045  15.023  14.458 -0.0087  0.1093  0.0575
 1815DOPE   C1A21291  22.112  15.626  14.198 -0.0583 -0.0571  0.1615
 1815DOPE   D2A21292  22.535  15.813  14.002  0.1110 -0.0664 -0.0730
 1815DOPE   C3A21293  22.806  15.505  13.712  0.3437 -0.0413  0.0135
 1815DOPE   C4A21294  22.728  15.067  13.466 -0.1558  0.4099  0.0704
 1815DOPE   C1B21295  21.940  15.154  14.068  0.2207  0.3614 -0.1128
 1815DOPE   D2B21296  21.793  15.211  13.639 -0.0381  0.2383  0.0002
 1815DOPE   C3B21297  21.741  14.948  13.245 -0.0282 -0.1368  0.1433
 1815DOPE   C4B21298  21.523  14.744  12.902 -0.2452 -0.0582  0.0428
 1816POSM   NC321299  14.899  13.020  15.297 -0.0733 -0.0834  0.0065
 1816POSM   PO421300  15.229  12.953  15.104  0.1943 -0.0951  0.1028
 1816POSM   AM121301  15.380  12.781  14.854 -0.0528  0.4116  0.0326
 1816POSM   AM221302  15.492  12.563  14.808  0.0981  0.1995 -0.1250
 1816POSM   T1A21303  15.538  12.840  14.403  0.4714 -0.2794 -0.3277
 1816POSM   C2A21304  15.498  12.592  14.051  0.2107 -0.0209  0.2783
 1816POSM   C3A21305  15.247  12.669  13.636  0.1951  0.0776  0.2074
 1816POSM   C1B21306  15.600  12.358  14.549 -0.0862  0.4508  0.1089
 1816POSM   D2B21307  15.763  12.174  14.154  0.0230 -0.4630 -0.0443
 1816POSM   C3B21308  15.633  12.153  13.721  0.1801 -0.0495  0.2303
 1816POSM   C4B21309  15.494  12.282  13.274  0.0514 -0.3050 -0.1321
 1817DOPS   CNO21310  19.377  14.029  15.146  0.0405  0.1273  0.0896
 1817DOPS   PO421311  19.417  13.714  15.332  0.2340 -0.1564  0.0287
 1817DOPS   GL121312  19.422  13.506  14.937  0.3729  0.1868 -0.2471
 1817DOPS   GL221313  19.285  13.736  14.757 -0.2133  0.1302 -0.2167
 1817DOPS   C1A21314  19.380  13.320  14.508 -0.0561  0.0630  0.2678
 1817DOPS   D2A21315  19.514  13.439  14.046  0.1010  0.3483 -0.1211
 1817DOPS   C3A21316  19.238  13.668  13.800 -0.0751 -0.1801  0.1219
 1817DOPS   C4A21317  19.065  13.670  13.413 -0.1514 -0.0659  0.3375
 1817DOPS   C1B21318  19.489  13.846  14.302 -0.0731  0.2068  0.2294
 1817DOPS   D2B21319  19.710  13.939  13.903  0.2216 -0.1196 -0.1569
 1817DOPS   C3B21320  19.556  13.974  13.492 -0.0383 -0.0561  0.1527
 1817DOPS   C4B21321  19.311  14.182  13.202 -0.1239 -0.1577 -0.0845
 1818DOPC   NC321322  15.492  22.376  15.233 -0.0110  0.0062 -0.0805
 1818DOPC   PO421323  15.091  22.385  15.154 -0.0652  0.3805  0.4007
 1818DOPC   GL121324  15.245  22.370  14.759 -0.2889  0.0352  0.2013
 1818DOPC   GL221325  14.988  22.335  14.593  0.2995  0.1676 -0.2854
 1818DOPC   C1A21326  15.449  22.520  14.323 -0.3143 -0.0128 -0.3237
 1818DOPC   D2A21327  15.700  22.513  13.913  0.2042  0.0261  0.5078
 1818DOPC   C3A21328  15.961  22.745  13.683 -0.2103  0.0071  0.1086
 1818DOPC   C4A21329  15.931  22.871  13.245 -0.2540  0.2289  0.3411
 1818DOPC   C1B21330  14.985  22.799  14.532 -0.3359  0.1722  0.4123
 1818DOPC   D2B21331  14.773  23.084  14.209  0.1547 -0.3236  0.2423
 1818DOPC   C3B21332  15.066  23.341  13.920 -0.2695 -0.0272 -0.0583
 1818DOPC   C4B21333  15.237  23.512  13.523  0.1942 -0.0546  0.0092
 1819POSM   NC321334  16.914  17.609  14.572 -0.3259 -0.0674  0.1140
 1819POSM   PO421335  17.138  17.834  14.337 -0.0298  0.1713  0.1642
 1819POSM   AM121336  17.152  17.697  14.058  0.1449 -0.0169  0.0295
 1819POSM   AM221337  17.303  17.771  13.822  0.1596 -0.3723  0.0125
 1819POSM   T1A21338  16.980  17.349  13.715  0.0626  0.1683 -0.2093
 1819POSM   C2A21339  17.145  16.986  13.377  0.0029  0.0333  0.2998
 1819POSM   C3A21340  17.272  16.595  13.133  0.0522 -0.0727  0.3322
 1819POSM   C1B21341  17.251  17.658  13.473  0.0096  0.0712 -0.3006
 1819POSM   D2B21342  17.368  17.391  13.129  0.1652  0.1465  0.2502
 1819POSM   C3B21343  17.296  17.269  12.786  0.0472 -0.0077  0.2460
 1819POSM   C4B21344  17.218  17.342  12.315 -0.1814  0.1330  0.0514
 1820DOPE   NH321345  18.413  13.004  15.299 -0.1710 -0.0889  0.4947
 1820DOPE   PO421346  18.166  13.201  15.239 -0.1404 -0.2290 -0.0984
 1820DOPE   GL121347  18.526  13.331  14.955  0.3415  0.1929 -0.2581
 1820DOPE   GL221348  18.426  13.542  14.707 -0.2100 -0.0588  0.1063
 1820DOPE   C1A21349  18.877  13.326  14.661 -0.4200  0.0966 -0.1913
 1820DOPE   D2A21350  19.002  13.702  14.346  0.2485 -0.4138  0.3153
 1820DOPE   C3A21351  18.766  13.754  13.967  0.1592 -0.0637 -0.2141
 1820DOPE   C4A21352  18.584  13.822  13.528  0.3224  0.1342 -0.0621
 1820DOPE   C1B21353  18.141  13.528  14.364 -0.0012  0.3576  0.0774
 1820DOPE   D2B21354  17.747  13.390  14.235  0.0687  0.1000 -0.2306
 1820DOPE   C3B21355  17.610  13.190  13.787  0.2221  0.0817 -0.0391
 1820DOPE   C4B21356  17.684  13.275  13.357  0.3087  0.0016 -0.0866
 1821DOPS   CNO21357  17.285  11.277  15.666 -0.0333 -0.2467  0.1109
 1821DOPS   PO421358  17.215  11.656  15.681 -0.1403 -0.0172  0.0515
 1821DOPS   GL121359  17.156  11.794  15.340 -0.0004  0.4021  0.5714
 1821DOPS   GL221360  16.944  12.009  15.315  0.0392 -0.1131  0.0521
 1821DOPS   C1A21361  17.200  11.468  15.036  0.0244 -0.1377 -0.0219
 1821DOPS   D2A21362  17.019  11.184  14.750 -0.3201 -0.0524  0.0128
 1821DOPS   C3A21363  17.023  11.518  14.468  0.2757 -0.4644 -0.0199
 1821DOPS   C4A21364  17.444  11.666  14.424 -0.1707  0.2593  0.1053
 1821DOPS   C1B21365  17.053  12.045  14.858  0.0858 -0.2402  0.0091
 1821DOPS   D2B21366  17.059  12.001  14.427 -0.1046  0.2153  0.1210
 1821DOPS   C3B21367  17.151  12.302  14.062 -0.0314 -0.0526 -0.3528
 1821DOPS   C4B21368  17.424  12.704  14.074 -0.2458  0.2871  0.1837
 1822DOPS   CNO21369  18.088  21.291  14.951 -0.1266 -0.1921  0.0610
 1822DOPS   PO421370  18.092  21.523  14.669  0.1403  0.0532 -0.1251
 1822DOPS   GL121371  17.951  21.802  14.339  0.5050  0.0745 -0.3191
 1822DOPS   GL221372  18.163  21.859  14.158 -0.1301  0.0698 -0.0747
 1822DOPS   C1A21373  17.603  21.796  14.034  0.0188 -0.1560 -0.2227
 1822DOPS   D2A21374  17.472  21.376  13.774  0.0496 -0.5232 -0.0790
 1822DOPS   C3A21375  17.352  21.203  13.311  0.1182 -0.2384 -0.0022
 1822DOPS   C4A21376  17.638  21.086  13.020  0.0309 -0.1435 -0.1667
 1822DOPS   C1B21377  17.927  21.436  14.079  0.1137  0.1063  0.1622
 1822DOPS   D2B21378  17.806  21.041  13.907  0.2789  0.2411  0.1235
 1822DOPS   C3B21379  17.848  21.128  13.450  0.0503  0.2434 -0.0049
 1822DOPS   C4B21380  18.147  21.099  13.072  0.0659 -0.0308 -0.4230
 1823DOPE   NH321381  22.670  11.905  15.580 -0.1702 -0.0690 -0.0396
 1823DOPE   PO421382  22.439  11.821  15.376  0.2061  0.1778 -0.0656
 1823DOPE   GL121383  22.661  11.647  15.056 -0.0778  0.0124  0.0069
 1823DOPE   GL221384  22.514  11.435  14.964  0.0946  0.3377  0.0568
 1823DOPE   C1A21385  23.061  11.665  14.796  0.0109 -0.2714  0.0153
 1823DOPE   D2A21386  23.317  12.013  14.636  0.2102 -0.0140  0.1525
 1823DOPE   C3A21387  23.485  12.102  14.260  0.0814 -0.0045 -0.3899
 1823DOPE   C4A21388  23.634  12.299  13.867 -0.0223  0.4250  0.1439
 1823DOPE   C1B21389  22.711  11.189  14.615 -0.4123 -0.2649  0.1282
 1823DOPE   D2B21390  22.864  11.070  14.187 -0.2830 -0.2882  0.0711
 1823DOPE   C3B21391  22.606  11.158  13.782 -0.1311 -0.1363  0.0927
 1823DOPE   C4B21392  22.218  11.421  13.697 -0.1613 -0.1449  0.0646
 1824DOPC   NC321393  18.107  14.998  14.654 -0.0279 -0.1981 -0.3845
 1824DOPC   PO421394  18.171  14.627  14.742 -0.0538  0.1110 -0.0316
 1824DOPC   GL121395  18.298  14.369  14.391  0.0148 -0.0606 -0.0627
 1824DOPC   GL221396  18.073  14.270  14.418  0.1724  0.2742  0.2931
 1824DOPC   C1A21397  18.373  14.587  13.962 -0.1330 -0.1471  0.3368
 1824DOPC   D2A21398  18.279  14.494  13.535 -0.0838  0.0294 -0.2806
 1824DOPC   C3A21399  18.084  14.128  13.403  0.3568 -0.2369  0.1585
 1824DOPC   C4A21400  18.044  13.696  13.393  0.2680  0.1634  0.3869
 1824DOPC   C1B21401  17.742  13.885  14.245  0.2052 -0.0416 -0.1795
 1824DOPC   D2B21402  17.296  13.671  14.136 -0.1720 -0.1136 -0.3575
 1824DOPC   C3B21403  17.144  13.923  13.856 -0.6131 -0.0131  0.0935
 1824DOPC   C4B21404  16.749  14.128  13.661 -0.3046 -0.5578  0.2147
 1825DOPS   CNO21405  23.312  18.123  15.341 -0.0783  0.1213 -0.3187
 1825DOPS   PO421406  22.984  18.015  15.299  0.0969 -0.2979 -0.1920
 1825DOPS   GL121407  23.003  17.914  14.932  0.0429  0.4997  0.2557
 1825DOPS   GL221408  22.641  17.997  14.886 -0.4083 -0.3222  0.0841
 1825DOPS   C1A21409  22.898  17.661  14.559  0.1574  0.0989 -0.2167
 1825DOPS   D2A21410  22.892  17.344  14.191  0.0903 -0.0578 -0.5091
 1825DOPS   C3A21411  22.771  17.334  13.757  0.1271  0.2043 -0.2996
 1825DOPS   C4A21412  22.790  17.082  13.345 -0.2240 -0.0570  0.2656
 1825DOPS   C1B21413  22.469  17.969  14.441  0.1297  0.1869  0.1620
 1825DOPS   D2B21414  22.689  17.953  14.009  0.0989 -0.0764 -0.0776
 1825DOPS   C3B21415  22.550  17.804  13.587 -0.2352  0.0789  0.0355
 1825DOPS   C4B21416  22.674  17.609  13.206  0.2256  0.0288 -0.1275
 1826DOPE   NH321417  14.637  21.286  14.909 -0.0306 -0.1871  0.0808
 1826DOPE   PO421418  14.682  21.600  14.950 -0.1835 -0.1971 -0.2382
 1826DOPE   GL121419  14.823  21.645  14.642  0.1916  0.0221 -0.0021
 1826DOPE   GL221420  14.583  21.841  14.525 -0.0574 -0.0825 -0.0639
 1826DOPE   C1A21421  15.032  21.865  14.279 -0.0692  0.3020  0.1939
 1826DOPE   D2A21422  14.971  22.300  14.121 -0.4208 -0.0246  0.1507
 1826DOPE   C3A21423  15.160  22.449  13.743 -0.3561 -0.4206  0.1370
 1826DOPE   C4A21424  15.242  22.138  13.414 -0.1210 -0.2252  0.1928
 1826DOPE   C1B21425  14.570  22.062  14.114  0.0009  0.1604  0.1342
 1826DOPE   D2B21426  14.787  22.113  13.665  0.2368 -0.2333 -0.1701
 1826DOPE   C3B21427  15.122  21.859  13.774 -0.3879 -0.3342  0.2544
 1826DOPE   C4B21428  15.288  21.498  14.098 -0.0131 -0.2871 -0.0445
 1827DOPE   NH321429  20.232  20.188  15.113 -0.4091 -0.1644  0.0505
 1827DOPE   PO421430  20.110  20.252  14.822  0.2734  0.1132 -0.0950
 1827DOPE   GL121431  20.132  20.331  14.461  0.0155  0.2067 -0.1538
 1827DOPE   GL221432  19.950  20.133  14.304 -0.5893  0.0495 -0.3501
 1827DOPE   C1A21433  20.414  20.325  14.105 -0.3116 -0.1781  0.1614
 1827DOPE   D2A21434  20.511  20.242  13.684 -0.1891 -0.2789 -0.0070
 1827DOPE   C3A21435  20.596  19.779  13.608  0.0252 -0.2120 -0.4268
 1827DOPE   C4A21436  20.576  19.601  13.200 -0.1920 -0.3429  0.0213
 1827DOPE   C1B21437  20.182  19.901  13.927  0.0575  0.3040 -0.0844
 1827DOPE   D2B21438  20.091  19.594  13.565 -0.2156  0.0449  0.0331
 1827DOPE   C3B21439  20.091  19.845  13.155  0.0395  0.2115 -0.2096
 1827DOPE   C4B21440  20.500  20.053  12.988 -0.2653 -0.0261  0.1586
 1828DOPE   NH321441  18.370  16.449  14.872 -0.2044  0.1059 -0.1378
 1828DOPE   PO421442  18.249  16.527  14.598  0.0885  0.0900 -0.1136
 1828DOPE   GL121443  18.401  16.600  14.222  0.0163  0.1514 -0.1032
 1828DOPE   GL221444  18.465  16.905  14.210 -0.1105  0.0659  0.2527
 1828DOPE   C1A21445  18.685  16.315  14.015 -0.0689 -0.2724  0.0475
 1828DOPE   D2A21446  18.899  16.032  13.645  0.0064  0.1834  0.1533
 1828DOPE   C3A21447  18.688  16.160  13.281  0.2632  0.3258 -0.1856
 1828DOPE   C4A21448  18.465  15.947  12.888 -0.0405  0.0956  0.1453
 1828DOPE   C1B21449  18.654  16.866  13.763  0.1201 -0.1145 -0.2442
 1828DOPE   D2B21450  18.777  17.022  13.321 -0.0164  0.0034  0.1055
 1828DOPE   C3B21451  18.572  17.334  13.141  0.1011  0.0679  0.2830
 1828DOPE   C4B21452  18.166  17.533  12.946 -0.2567 -0.0450 -0.4123
 1829DOPC   NC321453  22.489  22.300  15.320 -0.0660 -0.1165 -0.0289
 1829DOPC   PO421454  22.675  21.957  15.255  0.3252 -0.0634  0.0959
 1829DOPC   GL121455  22.610  22.207  14.888  0.3799  0.0985 -0.0613
 1829DOPC   GL221456  22.324  22.076  14.843 -0.2047  0.2403  0.2207
 1829DOPC   C1A21457  22.902  22.364  14.560 -0.4085 -0.1003  0.1005
 1829DOPC   D2A21458  23.140  22.361  14.153 -0.0707  0.1465  0.2025
 1829DOPC   C3A21459  23.638  22.329  14.228 -0.1814 -0.2260  0.1658
 1829DOPC   C4A21460  23.923  22.468  13.930  0.0234  0.1558  0.1231
 1829DOPC   C1B21461  22.422  22.048  14.392 -0.3083  0.3036 -0.5066
 1829DOPC   D2B21462  22.665  21.717  14.166  0.0464 -0.3187 -0.0865
 1829DOPC   C3B21463  23.069  21.882  13.978 -0.1596  0.0643  0.3890
 1829DOPC   C4B21464  23.390  21.704  13.721 -0.0696  0.0862  0.0774
 1830POSM   NC321465  13.661  18.308  14.218  0.1117  0.2267  0.3504
 1830POSM   PO421466  13.498  18.075  14.479 -0.3250 -0.0020  0.1278
 1830POSM   AM121467  13.383  17.829  14.352 -0.0996  0.2039 -0.0545
 1830POSM   AM221468  13.290  17.569  14.300  0.0166 -0.0268 -0.0560
 1830POSM   T1A21469  13.586  17.502  13.941  0.0040  0.0726 -0.2829
 1830POSM   C2A21470  13.746  17.421  13.525  0.0994 -0.1899  0.2190
 1830POSM   C3A21471  13.664  17.251  13.080 -0.1727 -0.0048 -0.0172
 1830POSM   C1B21472  13.109  17.346  14.214  0.0430  0.3183  0.1000
 1830POSM   D2B21473  13.005  16.871  14.193  0.0073  0.0556  0.1733
 1830POSM   C3B21474  12.786  16.521  13.988  0.1983 -0.1591  0.1700
 1830POSM   C4B21475  12.362  16.441  13.821 -0.0705  0.1503  0.0579
 1831POSM   NC321476  12.055  21.865  15.220 -0.1871  0.0008 -0.0487
 1831POSM   PO421477  11.693  21.699  15.317 -0.0098 -0.0304 -0.1382
 1831POSM   AM121478  11.454  21.772  15.081  0.0958  0.0197 -0.0391
 1831POSM   AM221479  11.204  21.679  14.955 -0.2886  0.1827 -0.0810
 1831POSM   T1A21480  11.139  22.165  14.896  0.2510 -0.2736  0.0452
 1831POSM   C2A21481  10.857  22.416  15.193 -0.0049 -0.1711  0.2745
 1831POSM   C3A21482  10.620  22.825  15.163  0.0521  0.0607  0.2674
 1831POSM   C1B21483  11.295  21.695  14.615 -0.1164  0.2108 -0.2011
 1831POSM   D2B21484  11.543  21.565  14.216 -0.0570 -0.0334  0.0773
 1831POSM   C3B21485  11.446  21.075  14.137  0.0352 -0.1202 -0.2114
 1831POSM   C4B21486  11.549  20.696  13.912  0.0523  0.0941  0.0531
 1832DOPC   NC321487  16.801  15.754  14.202 -0.2545  0.3859 -0.1371
 1832DOPC   PO421488  17.171  15.770  14.197  0.1236  0.1532 -0.3841
 1832DOPC   GL121489  17.163  15.473  13.877  0.2070  0.3468  0.2357
 1832DOPC   GL221490  16.864  15.503  13.756 -0.0503 -0.0058  0.3190
 1832DOPC   C1A21491  17.248  15.574  13.433 -0.0058 -0.0828 -0.1054
 1832DOPC   D2A21492  16.850  15.532  13.147 -0.0291  0.1306 -0.1269
 1832DOPC   C3A21493  16.518  15.652  12.850 -0.0992  0.0709  0.2720
 1832DOPC   C4A21494  16.159  15.936  12.680  0.1942  0.1285 -0.3448
 1832DOPC   C1B21495  16.874  15.865  13.549 -0.1011  0.3107  0.0694
 1832DOPC   D2B21496  16.810  16.107  13.131 -0.1605  0.0672  0.0870
 1832DOPC   C3B21497  16.951  16.351  12.801  0.0926  0.1210 -0.2178
 1832DOPC   C4B21498  17.222  16.702  12.681 -0.1904 -0.1162 -0.1615
 1833DOPC   NC321499  19.166  16.293  15.269  0.3414  0.0360  0.0668
 1833DOPC   PO421500  18.866  16.409  15.054 -0.1623 -0.2989 -0.1504
 1833DOPC   GL121501  18.981  16.579  14.739 -0.2718  0.2601  0.0214
 1833DOPC   GL221502  18.740  16.726  14.643 -0.0152  0.0908 -0.1404
 1833DOPC   C1A21503  19.303  16.852  14.585  0.2146 -0.3082 -0.1484
 1833DOPC   D2A21504  19.716  17.014  14.525  0.2453 -0.0802 -0.0159
 1833DOPC   C3A21505  20.010  16.961  14.140 -0.1206  0.1663  0.0173
 1833DOPC   C4A21506  20.199  17.270  13.821  0.1398 -0.2029 -0.2136
 1833DOPC   C1B21507  18.967  16.737  14.241 -0.0690  0.0279  0.2471
 1833DOPC   D2B21508  19.143  16.448  13.925 -0.0940  0.0271  0.3074
 1833DOPC   C3B21509  18.971  16.588  13.480  0.0996  0.1765  0.2746
 1833DOPC   C4B21510  19.294  16.769  13.223  0.0626  0.0197  0.0840
 1834DOPS   CNO21511  12.196  19.519  15.296 -0.1502 -0.1905  0.1924
 1834DOPS   PO421512  11.992  19.358  15.026  0.0571  0.3216  0.0530
 1834DOPS   GL121513  12.094  19.524  14.744  0.1250  0.3789  0.2231
 1834DOPS   GL221514  11.905  19.415  14.501  0.2691  0.0542 -0.0462
 1834DOPS   C1A21515  12.232  19.865  14.463  0.1968  0.0543 -0.0186
 1834DOPS   D2A21516  12.539  20.146  14.257 -0.2850  0.1703 -0.2876
 1834DOPS   C3A21517  12.626  20.549  14.091  0.0148 -0.2114 -0.1460
 1834DOPS   C4A21518  12.819  20.718  13.688  0.0879  0.1420 -0.1830
 1834DOPS   C1B21519  11.972  19.603  14.125  0.1132 -0.0957 -0.3483
 1834DOPS   D2B21520  12.370  19.817  13.967  0.1407  0.1785  0.0519
 1834DOPS   C3B21521  12.766  19.742  13.912  0.0143 -0.0393 -0.0098
 1834DOPS   C4B21522  13.155  19.469  13.951  0.2172 -0.2032  0.2124
 1835DOPE   NH321523  19.144  13.316  15.477 -0.2010 -0.4074 -0.2018
 1835DOPE   PO421524  18.923  13.094  15.323  0.0112  0.0061 -0.0215
 1835DOPE   GL121525  18.743  12.927  14.894 -0.2345 -0.0227 -0.1749
 1835DOPE   GL221526  18.473  12.832  14.862  0.3108 -0.2414  0.1735
 1835DOPE   C1A21527  19.068  12.856  14.557  0.0820  0.1144  0.2300
 1835DOPE   D2A21528  19.430  12.802  14.296 -0.1354  0.2469  0.2064
 1835DOPE   C3A21529  19.360  12.996  13.826 -0.1435 -0.2339 -0.3237
 1835DOPE   C4A21530  19.436  12.833  13.409 -0.2191  0.0054  0.0689
 1835DOPE   C1B21531  18.551  13.019  14.415  0.2295 -0.1854 -0.1846
 1835DOPE   D2B21532  18.591  13.368  14.182  0.3301 -0.0444 -0.2123
 1835DOPE   C3B21533  18.735  13.291  13.727  0.0514  0.1076 -0.1358
 1835DOPE   C4B21534  19.113  13.163  13.432 -0.1144  0.1365  0.4075
 1836DOPS   CNO21535  21.125  16.291  15.160 -0.0319 -0.0038  0.1162
 1836DOPS   PO421536  20.998  16.022  14.949  0.2820 -0.1090  0.1128
 1836DOPS   GL121537  20.752  16.068  14.654 -0.1207  0.0116  0.1897
 1836DOPS   GL221538  20.994  16.085  14.418 -0.2411 -0.0675 -0.0843
 1836DOPS   C1A21539  20.594  16.434  14.429  0.1655 -0.0804  0.3040
 1836DOPS   D2A21540  20.449  16.842  14.309 -0.1417 -0.2829  0.4022
 1836DOPS   C3A21541  20.766  17.008  14.005 -0.1695  0.0836 -0.1144
 1836DOPS   C4A21542  20.847  17.332  13.704 -0.0252  0.1338  0.0093
 1836DOPS   C1B21543  21.042  15.833  13.995 -0.1911 -0.0292 -0.1125
 1836DOPS   D2B21544  20.838  15.597  13.621  0.3079 -0.0829 -0.2221
 1836DOPS   C3B21545  20.899  15.724  13.148 -0.0427  0.1123 -0.4045
 1836DOPS   C4B21546  21.105  15.655  12.748  0.1924  0.0929  0.0816
 1837DOPE   NH321547  22.687  12.931  11.997 -0.2528  0.0537  0.0625
 1837DOPE   PO421548  22.591  12.625  11.978 -0.0210 -0.0698  0.0684
 1837DOPE   GL121549  22.942  12.629  12.227 -0.0321  0.2041  0.2594
 1837DOPE   GL221550  23.151  12.567  12.053  0.2002 -0.1843 -0.0169
 1837DOPE   C1A21551  22.958  12.478  12.692  0.0487  0.0106 -0.2035
 1837DOPE   D2A21552  22.957  12.301  13.097  0.1250  0.1915 -0.0463
 1837DOPE   C3A21553  23.313  12.499  13.214  0.1724 -0.0420  0.0044
 1837DOPE   C4A21554  23.593  12.753  13.523 -0.0717 -0.0366  0.1114
 1837DOPE   C1B21555  23.407  12.433  12.402 -0.0116 -0.2848  0.0234
 1837DOPE   D2B21556  23.662  12.083  12.416 -0.0448  0.1944  0.2240
 1837DOPE   C3B21557  23.826  11.733  12.125 -0.1558  0.2842  0.3030
 1837DOPE   C4B21558  23.910  11.314  12.010 -0.0216  0.0427  0.0321
 1838DOPS   CNO21559  12.963  15.701  11.128  0.0118 -0.0194  0.2537
 1838DOPS   PO421560  13.293  15.553  11.116  0.1913  0.0463 -0.1051
 1838DOPS   GL121561  13.413  15.587  11.544 -0.0912  0.1588  0.1207
 1838DOPS   GL221562  13.445  15.715  11.850 -0.1069 -0.3039  0.2815
 1838DOPS   C1A21563  13.465  15.201  11.849 -0.1026 -0.0882 -0.4020
 1838DOPS   D2A21564  13.584  14.817  12.146  0.0220 -0.1622 -0.0337
 1838DOPS   C3A21565  13.891  14.484  12.057 -0.4122  0.1510 -0.0383
 1838DOPS   C4A21566  14.188  14.232  12.236  0.1085  0.0120  0.2718
 1838DOPS   C1B21567  13.055  15.456  12.037  0.0466 -0.1318 -0.2748
 1838DOPS   D2B21568  13.009  15.011  11.955 -0.1215 -0.0107  0.0461
 1838DOPS   C3B21569  12.667  14.835  12.223  0.2560 -0.1106  0.3012
 1838DOPS   C4B21570  12.546  14.826  12.703 -0.2123 -0.2925 -0.0237
 1839DOPE   NH321571  19.873  12.681  11.369 -0.0431  0.0477  0.2845
 1839DOPE   PO421572  19.928  13.008  11.516  0.0816 -0.1686 -0.0925
 1839DOPE   GL121573  20.096  13.217  11.842 -0.2038 -0.1601  0.0932
 1839DOPE   GL221574  20.353  13.078  11.762  0.3016 -0.1198 -0.1326
 1839DOPE   C1A21575  20.065  13.688  11.930  0.2035  0.0509 -0.2392
 1839DOPE   D2A21576  19.786  14.022  12.088  0.0125 -0.3027  0.0880
 1839DOPE   C3A21577  19.328  13.875  12.198  0.0202 -0.2204 -0.2453
 1839DOPE   C4A21578  19.107  13.591  12.483  0.1086 -0.4902 -0.0475
 1839DOPE   C1B21579  20.804  13.219  11.831  0.2012  0.1958 -0.0453
 1839DOPE   D2B21580  21.069  13.389  12.197  0.2258  0.0968  0.1866
 1839DOPE   C3B21581  20.907  13.160  12.508 -0.0280 -0.0305  0.1614
 1839DOPE   C4B21582  20.623  12.932  12.786  0.2457  0.0602  0.1648
 1840DOPE   NH321583  22.391  12.159  11.925  0.0827  0.2846  0.3149
 1840DOPE   PO421584  22.264  11.914  11.777  0.0479  0.3468 -0.1315
 1840DOPE   GL121585  21.874  12.022  11.689  0.0252 -0.2251 -0.3093
 1840DOPE   GL221586  21.741  12.012  12.001  0.1183  0.1373  0.0251
 1840DOPE   C1A21587  21.555  12.366  11.580  0.1082  0.2104 -0.0720
 1840DOPE   D2A21588  21.491  12.792  11.603  0.1397 -0.0062  0.3156
 1840DOPE   C3A21589  21.673  12.970  11.982 -0.1202  0.1490 -0.1815
 1840DOPE   C4A21590  21.583  13.305  12.368 -0.1322 -0.0458 -0.0118
 1840DOPE   C1B21591  22.001  12.271  12.285 -0.2652  0.2742 -0.1749
 1840DOPE   D2B21592  21.945  12.709  12.400  0.2434 -0.0292  0.0713
 1840DOPE   C3B21593  22.282  13.000  12.498  0.2675  0.2396 -0.2873
 1840DOPE   C4B21594  22.767  13.001  12.576  0.2162  0.0997  0.1665
 1841DOPC   NC321595  22.707  12.130  11.191  0.3264 -0.0461 -0.0676
 1841DOPC   PO421596  22.362  12.264  11.297 -0.2732 -0.0012 -0.1437
 1841DOPC   GL121597  22.371  12.548  11.581 -0.1657 -0.0965 -0.0584
 1841DOPC   GL221598  22.472  12.827  11.526  0.0880 -0.0479  0.1541
 1841DOPC   C1A21599  21.952  12.583  11.781 -0.1237  0.0904  0.1507
 1841DOPC   D2A21600  21.554  12.487  12.073 -0.1572  0.2661 -0.0464
 1841DOPC   C3A21601  21.500  12.229  12.428  0.0394 -0.4921  0.1387
 1841DOPC   C4A21602  21.326  12.389  12.754  0.4124  0.0021  0.0300
 1841DOPC   C1B21603  22.203  13.092  11.828  0.4471 -0.0022 -0.2182
 1841DOPC   D2B21604  22.068  13.493  12.048  0.2224  0.1615  0.2497
 1841DOPC   C3B21605  22.071  13.423  12.500  0.2179 -0.0067  0.2117
 1841DOPC   C4B21606  22.042  13.472  13.006  0.2465 -0.0792  0.0849
 1842DOPC   NC321607  13.396  19.422  12.024 -0.0492  0.3961  0.4534
 1842DOPC   PO421608  13.245  19.069  11.889 -0.4788 -0.2392  0.0527
 1842DOPC   GL121609  13.365  18.936  12.243 -0.0765  0.2093 -0.1498
 1842DOPC   GL221610  13.249  19.023  12.540  0.0944  0.1282 -0.2853
 1842DOPC   C1A21611  13.708  18.908  12.533 -0.1984  0.0033  0.0172
 1842DOPC   D2A21612  13.976  19.218  12.724 -0.1749  0.0576 -0.0627
 1842DOPC   C3A21613  13.710  19.508  12.649  0.1139 -0.4256 -0.0619
 1842DOPC   C4A21614  13.246  19.542  12.700 -0.0151 -0.2190 -0.1119
 1842DOPC   C1B21615  13.455  19.155  12.939 -0.4175 -0.0948  0.1863
 1842DOPC   D2B21616  13.790  19.332  13.146  0.1343  0.0687 -0.0317
 1842DOPC   C3B21617  13.415  19.555  13.324  0.2925 -0.0223 -0.0467
 1842DOPC   C4B21618  13.077  19.800  13.365 -0.0966 -0.1915  0.2124
 1843DOPE   NH321619   9.800  19.316  12.502  0.0852 -0.1835  0.0090
 1843DOPE   PO421620   9.856  19.417  12.197 -0.0118 -0.4232 -0.3086
 1843DOPE   GL121621  10.199  19.543  12.432  0.1470  0.0738  0.0323
 1843DOPE   GL221622  10.494  19.415  12.417  0.2276  0.0126 -0.2732
 1843DOPE   C1A21623  10.092  19.723  12.883 -0.1126  0.0079  0.1812
 1843DOPE   D2A21624  10.041  20.039  13.268  0.0834  0.1076  0.1581
 1843DOPE   C3A21625  10.180  20.497  13.237 -0.3085 -0.0645  0.1035
 1843DOPE   C4A21626  10.594  20.584  13.202 -0.0734  0.0953 -0.0009
 1843DOPE   C1B21627  10.578  19.865  12.646  0.2862 -0.1358 -0.1570
 1843DOPE   D2B21628  10.588  20.146  13.026  0.1270  0.0627 -0.1835
 1843DOPE   C3B21629  10.569  20.009  13.444  0.0389  0.1321 -0.1094
 1843DOPE   C4B21630  10.456  20.084  13.856 -0.0905 -0.2586  0.2426
 1844DOPE   NH321631  23.525  21.896  11.633 -0.1817 -0.0626 -0.0658
 1844DOPE   PO421632  23.783  21.740  11.623  0.0652  0.0787 -0.3607
 1844DOPE   GL121633  23.759  21.522  11.981 -0.5400 -0.0528 -0.1440
 1844DOPE   GL221634  23.514  21.633  12.116 -0.1349  0.0507 -0.0960
 1844DOPE   C1A21635  23.568  21.088  12.010  0.0984 -0.1473  0.0469
 1844DOPE   D2A21636  23.167  20.882  12.042 -0.0185 -0.0315 -0.0528
 1844DOPE   C3A21637  22.762  21.023  12.133 -0.1010 -0.0780 -0.2320
 1844DOPE   C4A21638  22.409  21.060  12.455 -0.5203  0.0024  0.2395
 1844DOPE   C1B21639  23.169  21.423  12.068 -0.0285  0.0926  0.2124
 1844DOPE   D2B21640  22.772  21.445  12.328  0.1089 -0.0942  0.1931
 1844DOPE   C3B21641  22.341  21.365  12.098  0.0148 -0.0475  0.2557
 1844DOPE   C4B21642  21.905  21.321  12.023  0.1022  0.1791 -0.0529
 1845DOPE   NH321643  17.784  17.697  11.264 -0.2807 -0.0989  0.2128
 1845DOPE   PO421644  17.695  17.807  11.583 -0.2320 -0.2262  0.2457
 1845DOPE   GL121645  17.957  17.499  11.803  0.6188 -0.5319 -0.3492
 1845DOPE   GL221646  17.807  17.303  11.666 -0.0647 -0.1915  0.2384
 1845DOPE   C1A21647  18.249  17.433  12.185 -0.0871 -0.0115 -0.3702
 1845DOPE   D2A21648  18.562  17.389  12.519 -0.1915 -0.0091 -0.1841
 1845DOPE   C3A21649  18.838  17.611  12.818  0.0177 -0.1871  0.1712
 1845DOPE   C4A21650  19.031  18.002  13.028  0.3085  0.0089  0.0487
 1845DOPE   C1B21651  18.220  17.179  11.787  0.0780 -0.1154  0.4000
 1845DOPE   D2B21652  18.400  16.760  11.859  0.2098  0.0595 -0.2987
 1845DOPE   C3B21653  18.529  16.799  12.324  0.1121 -0.1593  0.2414
 1845DOPE   C4B21654  18.873  16.958  12.604 -0.0138  0.2107  0.2046
 1846POSM   NC321655  12.841  19.074  11.625  0.4046  0.2058 -0.1765
 1846POSM   PO421656  12.946  19.458  11.745  0.0970 -0.4698 -0.1415
 1846POSM   AM121657  12.918  19.696  11.924 -0.0003  0.1850  0.1788
 1846POSM   AM221658  13.035  19.826  12.124  0.1469  0.3534 -0.1695
 1846POSM   T1A21659  12.715  20.169  11.962  0.0113  0.1223  0.1261
 1846POSM   C2A21660  12.459  20.577  11.915 -0.2923 -0.0728 -0.3960
 1846POSM   C3A21661  12.208  20.926  12.107  0.3452  0.0552  0.0559
 1846POSM   C1B21662  12.829  19.751  12.380  0.0440 -0.1023 -0.2207
 1846POSM   D2B21663  12.404  19.532  12.541  0.2526 -0.0753  0.0685
 1846POSM   C3B21664  12.124  19.778  12.780 -0.2140  0.1042 -0.0258
 1846POSM   C4B21665  11.940  20.213  12.784  0.0209  0.0243  0.1272
 1847DOPE   NH321666  16.114  18.954  12.226 -0.1483 -0.1655 -0.1113
 1847DOPE   PO421667  16.010  19.005  11.974 -0.0316 -0.1831  0.1218
 1847DOPE   GL121668  15.637  19.011  12.056  0.1348 -0.3240 -0.3315
 1847DOPE   GL221669  15.469  19.083  11.798  0.1691  0.1386  0.0469
 1847DOPE   C1A21670  15.579  19.101  12.527  0.1873  0.0410  0.1594
 1847DOPE   D2A21671  15.905  19.279  12.753 -0.0238  0.1838  0.5219
 1847DOPE   C3A21672  15.623  19.700  12.813 -0.0038 -0.1726 -0.0446
 1847DOPE   C4A21673  15.301  19.935  13.002 -0.2046  0.1449 -0.0705
 1847DOPE   C1B21674  15.204  18.859  12.118  0.1995  0.0684  0.1847
 1847DOPE   D2B21675  15.289  18.691  12.572 -0.2823 -0.1796 -0.2376
 1847DOPE   C3B21676  15.137  19.110  12.827 -0.1698 -0.0683 -0.1348
 1847DOPE   C4B21677  15.030  19.534  12.919 -0.1378 -0.4161  0.1253
 1848POSM   NC321678  19.050  18.829  11.305  0.1191 -0.0832  0.0318
 1848POSM   PO421679  19.084  19.160  11.451  0.2318 -0.0488 -0.0596
 1848POSM   AM121680  19.146  19.351  11.716 -0.0996 -0.1766 -0.1785
 1848POSM   AM221681  19.450  19.460  11.724  0.1366  0.2775  0.0836
 1848POSM   T1A21682  19.125  19.678  12.087 -0.0274 -0.1285 -0.0887
 1848POSM   C2A21683  18.981  19.952  12.413 -0.1112  0.1014  0.3243
 1848POSM   C3A21684  18.977  20.076  12.830 -0.1702  0.1241  0.2325
 1848POSM   C1B21685  19.624  19.576  11.990  0.0635  0.0794  0.1720
 1848POSM   D2B21686  19.727  19.482  12.411 -0.1244 -0.0770 -0.0808
 1848POSM   C3B21687  19.648  19.470  12.890 -0.2676  0.1344  0.0588
 1848POSM   C4B21688  19.308  19.375  13.161  0.0971 -0.2660 -0.0480
 1849POSM   NC321689  11.410  10.715  11.729  0.2675  0.3692  0.2452
 1849POSM   PO421690  11.664  10.706  12.025 -0.0408  0.0716 -0.0365
 1849POSM   AM121691  11.719  10.992  12.129  0.3333 -0.2313  0.0549
 1849POSM   AM221692  11.939  11.041  12.327 -0.1767  0.3727 -0.2247
 1849POSM   T1A21693  11.600  11.449  12.287 -0.0260  0.1339  0.0395
 1849POSM   C2A21694  11.400  11.820  12.257  0.1207  0.0738  0.1331
 1849POSM   C3A21695  10.983  12.098  12.342  0.2912 -0.2601 -0.0192
 1849POSM   C1B21696  12.073  11.319  12.458  0.0578  0.0191 -0.0889
 1849POSM   D2B21697  12.073  11.700  12.584  0.2469  0.3083  0.1789
 1849POSM   C3B21698  12.021  12.041  12.874 -0.0970 -0.2476  0.1667
 1849POSM   C4B21699  12.029  12.277  13.284  0.0345  0.2863  0.0502
 1850DOPC   NC321700  22.415  22.622  12.107 -0.2149 -0.0124 -0.1002
 1850DOPC   PO421701  22.055  22.584  11.899 -0.2456  0.1943 -0.3262
 1850DOPC   GL121702  21.951  22.186  11.964  0.3012 -0.1790  0.1296
 1850DOPC   GL221703  21.731  22.132  12.260 -0.1568  0.2997 -0.2666
 1850DOPC   C1A21704  22.055  21.765  12.245  0.0659 -0.2697  0.1148
 1850DOPC   D2A21705  22.164  21.506  12.600  0.1359  0.1513  0.0876
 1850DOPC   C3A21706  22.426  21.594  12.977 -0.0732  0.0641 -0.0848
 1850DOPC   C4A21707  22.698  21.910  13.150 -0.4098  0.0187  0.2012
 1850DOPC   C1B21708  21.613  21.717  12.382  0.1476 -0.2447  0.0258
 1850DOPC   D2B21709  21.584  21.367  12.748 -0.4045  0.1176 -0.2178
 1850DOPC   C3B21710  21.087  21.239  12.721  0.0814 -0.0657  0.2554
 1850DOPC   C4B21711  20.715  21.081  12.578 -0.1766 -0.0364 -0.1041
 1851DOPC   NC321712  20.104  21.821  10.923 -0.0047  0.0651 -0.1612
 1851DOPC   PO421713  20.390  21.745  11.259 -0.0188 -0.2103  0.4520
 1851DOPC   GL121714  20.154  21.544  11.505 -0.3543 -0.0815  0.1425
 1851DOPC   GL221715  19.907  21.681  11.576 -0.0633 -0.0015  0.0447
 1851DOPC   C1A21716  20.113  21.203  11.745 -0.3421  0.2154  0.0010
 1851DOPC   D2A21717  19.890  20.866  11.987  0.0784 -0.5062 -0.2906
 1851DOPC   C3A21718  19.482  20.775  11.962  0.0163 -0.0486 -0.0382
 1851DOPC   C4A21719  19.051  20.933  12.116  0.0117 -0.0939  0.2046
 1851DOPC   C1B21720  20.139  21.665  11.933  0.2102  0.1999 -0.1285
 1851DOPC   D2B21721  20.479  21.660  12.214 -0.0513 -0.1975  0.0137
 1851DOPC   C3B21722  20.258  21.208  12.239  0.0203 -0.1519 -0.0400
 1851DOPC   C4B21723  19.856  21.266  12.361 -0.1161  0.0727 -0.2291
 1852DOPC   NC321724  14.298  16.627  11.314 -0.1717  0.0679  0.3247
 1852DOPC   PO421725  14.512  16.860  11.037 -0.1969 -0.0193 -0.1213
 1852DOPC   GL121726  14.759  16.622  11.291  0.1350  0.4212 -0.2969
 1852DOPC   GL221727  14.858  16.553  11.047  0.1623 -0.0120  0.1784
 1852DOPC   C1A21728  15.113  16.487  11.508 -0.2623  0.1635  0.4238
 1852DOPC   D2A21729  15.188  16.427  11.936 -0.0348 -0.0521  0.0634
 1852DOPC   C3A21730  15.327  16.118  12.282 -0.0925 -0.0964 -0.0594
 1852DOPC   C4A21731  15.269  15.887  12.717 -0.0891 -0.2386  0.0067
 1852DOPC   C1B21732  15.302  16.419  11.013  0.1235  0.0774 -0.3595
 1852DOPC   D2B21733  15.778  16.435  11.151  0.2730 -0.0029 -0.5844
 1852DOPC   C3B21734  16.051  16.155  11.355 -0.5022 -0.1640 -0.4136
 1852DOPC   C4B21735  15.998  15.867  11.662  0.0508 -0.0047 -0.0933
 1853DOPE   NH321736  18.047  11.585  11.806  0.0081  0.3629 -0.0192
 1853DOPE   PO421737  18.287  11.824  11.779 -0.1520 -0.0620  0.3010
 1853DOPE   GL121738  18.348  11.724  12.187 -0.1939  0.1076 -0.0370
 1853DOPE   GL221739  18.544  11.942  12.235 -0.2780  0.2481  0.1588
 1853DOPE   C1A21740  18.253  11.767  12.645  0.2318 -0.0132  0.2110
 1853DOPE   D2A21741  18.077  12.091  12.950 -0.1568 -0.0472  0.1668
 1853DOPE   C3A21742  18.074  11.942  13.375  0.3391 -0.3252  0.1043
 1853DOPE   C4A21743  17.812  11.925  13.778  0.0084 -0.0919  0.1242
 1853DOPE   C1B21744  18.549  12.130  12.718 -0.3109 -0.1399 -0.4111
 1853DOPE   D2B21745  18.513  12.032  13.179  0.0556  0.1446  0.0794
 1853DOPE   C3B21746  18.609  12.443  13.383 -0.1686  0.3612  0.0929
 1853DOPE   C4B21747  18.725  12.868  13.463 -0.1124  0.3647  0.1286
 1854POSM   NC321748  17.786  11.352  12.890 -0.0701 -0.0019 -0.1831
 1854POSM   PO421749  17.560  11.261  12.549 -0.0737 -0.1324 -0.1601
 1854POSM   AM121750  17.580  10.949  12.619 -0.1652 -0.1161  0.5868
 1854POSM   AM221751  17.691  10.704  12.730 -0.1147 -0.3925 -0.0138
 1854POSM   T1A21752  17.230  10.624  12.862  0.2287 -0.2884 -0.2186
 1854POSM   C2A21753  16.957  10.360  13.174  0.1008  0.1133  0.2240
 1854POSM   C3A21754  16.641  10.336  13.512  0.0455  0.2016 -0.1036
 1854POSM   C1B21755  17.840  10.847  12.984  0.0817 -0.1372  0.1609
 1854POSM   D2B21756  17.997  11.159  13.315  0.0661 -0.3155  0.2558
 1854POSM   C3B21757  18.336  11.116  13.638  0.0797 -0.1902  0.0009
 1854POSM   C4B21758  18.585  10.998  13.916  0.1783 -0.1340  0.4982
 1855DOPE   NH321759  11.604  21.956  12.158  0.0669  0.2710  0.1152
 1855DOPE   PO421760  11.620  21.827  11.835 -0.1009 -0.1031  0.0489
 1855DOPE   GL121761  11.665  21.461  11.986  0.0730  0.1100  0.0040
 1855DOPE   GL221762  11.322  21.426  11.974  0.2652  0.2315 -0.1058
 1855DOPE   C1A21763  11.734  21.026  11.887 -0.2605 -0.0132 -0.0555
 1855DOPE   D2A21764  11.888  20.559  11.963  0.2817 -0.4406  0.0672
 1855DOPE   C3A21765  11.983  20.484  12.383  0.0934  0.2480  0.3614
 1855DOPE   C4A21766  12.174  20.638  12.720 -0.1686 -0.0910 -0.3486
 1855DOPE   C1B21767  11.162  20.957  11.934  0.0272 -0.0433  0.1719
 1855DOPE   D2B21768  11.381  20.545  12.020  0.2412 -0.1656 -0.2550
 1855DOPE   C3B21769  11.613  20.774  12.357  0.1343  0.1347  0.2249
 1855DOPE   C4B21770  11.757  20.902  12.806  0.2280  0.0933  0.1090
 1856DOPC   NC321771  20.364  11.699  12.078  0.0501  0.1808 -0.1416
 1856DOPC   PO421772  20.344  11.316  11.984  0.0546 -0.0750  0.2522
 1856DOPC   GL121773  20.662  11.238  12.228  0.0758  0.0127 -0.0014
 1856DOPC   GL221774  20.685  11.507  12.394  0.1984  0.2708 -0.2540
 1856DOPC   C1A21775  20.584  11.049  12.666  0.1577  0.2338 -0.1528
 1856DOPC   D2A21776  20.364  11.394  12.949 -0.2590 -0.0559 -0.2557
 1856DOPC   C3A21777  20.373  11.373  13.433  0.2486 -0.2494  0.1362
 1856DOPC   C4A21778  20.445  11.339  13.893 -0.0213 -0.0612 -0.0540
 1856DOPC   C1B21779  20.697  11.784  12.801  0.0916  0.2759 -0.0531
 1856DOPC   D2B21780  20.893  12.054  13.088 -0.1429  0.0835 -0.0684
 1856DOPC   C3B21781  21.154  11.862  13.460  0.1585 -0.2128 -0.3180
 1856DOPC   C4B21782  21.542  11.766  13.682  0.0492 -0.3051  0.1263
 1857POSM   NC321783  18.970  11.285  11.970  0.0180 -0.1819 -0.0086
 1857POSM   PO421784  18.610  11.457  11.975  0.2721  0.1453  0.0304
 1857POSM   AM121785  18.791  11.563  12.243  0.3043  0.0714  0.5300
 1857POSM   AM221786  18.801  11.664  12.529  0.1487  0.0254 -0.0933
 1857POSM   T1A21787  19.243  11.506  12.467 -0.2841  0.1999 -0.0653
 1857POSM   C2A21788  19.640  11.582  12.738  0.1241 -0.2014  0.0496
 1857POSM   C3A21789  19.868  11.518  13.123  0.1704  0.3615 -0.0250
 1857POSM   C1B21790  18.710  11.663  12.857  0.4019 -0.1536  0.2397
 1857POSM   D2B21791  18.956  11.588  13.258 -0.1881 -0.0958  0.0789
 1857POSM   C3B21792  19.330  11.816  13.156  0.2586 -0.2941  0.0756
 1857POSM   C4B21793  19.708  12.072  13.087  0.1115  0.0270 -0.0878
 1858DOPE   NH321794  20.415  17.848  11.336 -0.0843  0.3321  0.2389
 1858DOPE   PO421795  20.349  17.590  11.562 -0.4399  0.2447 -0.0178
 1858DOPE   GL121796  20.292  17.774  11.909  0.1089  0.0595 -0.0844
 1858DOPE   GL221797  20.346  17.705  12.176  0.1664 -0.1373  0.0256
 1858DOPE   C1A21798  20.020  18.063  12.156 -0.1137 -0.1078  0.0572
 1858DOPE   D2A21799  19.748  18.395  12.290 -0.0064  0.1078 -0.0187
 1858DOPE   C3A21800  19.589  18.441  12.747  0.1835 -0.0138  0.0845
 1858DOPE   C4A21801  19.383  18.424  13.146  0.2574  0.4758  0.3519
 1858DOPE   C1B21802  20.365  17.604  12.619 -0.3422  0.0706  0.2189
 1858DOPE   D2B21803  20.050  17.541  12.966  0.1434 -0.0323 -0.1005
 1858DOPE   C3B21804  19.817  17.892  13.185 -0.1949  0.1728 -0.2764
 1858DOPE   C4B21805  19.510  18.023  13.431 -0.2930  0.1087 -0.0679
 1859DOPE   NH321806  10.504  15.363  11.340 -0.3779 -0.0266  0.2522
 1859DOPE   PO421807  10.498  15.063  11.420  0.1339  0.0700 -0.3719
 1859DOPE   GL121808  10.680  15.140  11.755  0.0072  0.2857  0.1073
 1859DOPE   GL221809  10.817  15.338  11.799 -0.2242 -0.0679 -0.1740
 1859DOPE   C1A21810  10.766  14.910  12.164  0.3570  0.2324  0.4510
 1859DOPE   D2A21811  10.920  14.991  12.591 -0.0394 -0.0423  0.0288
 1859DOPE   C3A21812  10.963  15.484  12.686  0.0379 -0.2940 -0.2660
 1859DOPE   C4A21813  10.753  15.890  12.748 -0.1375 -0.1268 -0.0958
 1859DOPE   C1B21814  11.086  15.370  12.147 -0.1711 -0.0251  0.2024
 1859DOPE   D2B21815  11.236  15.789  12.312  0.4521  0.0914  0.1598
 1859DOPE   C3B21816  11.312  16.166  12.082 -0.4264  0.2362  0.0033
 1859DOPE   C4B21817  11.200  16.565  11.883  0.0940 -0.1533 -0.2751
 1860DOPC   NC321818  16.431  18.300  11.835 -0.0643 -0.2487  0.2748
 1860DOPC   PO421819  16.224  18.581  11.692  0.3765 -0.1537  0.3511
 1860DOPC   GL121820  16.032  18.507  12.024 -0.3427 -0.1355  0.2279
 1860DOPC   GL221821  16.275  18.475  12.284  0.1416  0.1827 -0.0532
 1860DOPC   C1A21822  15.597  18.517  12.214  0.2632  0.1676 -0.0043
 1860DOPC   D2A21823  15.093  18.364  12.154 -0.0737 -0.3096  0.2612
 1860DOPC   C3A21824  14.957  18.371  12.616 -0.1711  0.1782 -0.1393
 1860DOPC   C4A21825  14.849  18.649  12.942  0.2478  0.0096 -0.1416
 1860DOPC   C1B21826  15.919  18.162  12.439 -0.1103  0.2124 -0.0302
 1860DOPC   D2B21827  15.446  18.152  12.477  0.0229 -0.1962  0.0838
 1860DOPC   C3B21828  15.220  17.886  12.151  0.0853  0.3460 -0.0909
 1860DOPC   C4B21829  15.027  18.010  11.733  0.1418 -0.1580  0.0987
 1861DOPE   NH321830  12.785  19.268  12.149  0.2064 -0.0012 -0.1633
 1861DOPE   PO421831  12.734  18.950  12.086 -0.2206 -0.1534  0.1185
 1861DOPE   GL121832  12.457  19.039  12.348 -0.0521 -0.0753  0.2804
 1861DOPE   GL221833  12.316  18.769  12.442 -0.2698 -0.1439 -0.0157
 1861DOPE   C1A21834  12.681  19.184  12.769  0.1822  0.2325 -0.6571
 1861DOPE   D2A21835  12.695  19.615  12.980  0.2138  0.0059  0.1063
 1861DOPE   C3A21836  12.578  19.967  12.771 -0.0514  0.1796  0.0565
 1861DOPE   C4A21837  12.330  20.111  12.374 -0.1141  0.2223 -0.0270
 1861DOPE   C1B21838  11.973  19.030  12.560  0.1377  0.0630  0.1928
 1861DOPE   D2B21839  11.711  19.197  12.927  0.1490  0.0739 -0.1141
 1861DOPE   C3B21840  11.695  19.673  13.046  0.3922  0.1632  0.0458
 1861DOPE   C4B21841  11.589  20.094  13.120 -0.1805 -0.3137 -0.0120
 1862POSM   NC321842  20.456  17.091  12.382 -0.0129 -0.2912 -0.0870
 1862POSM   PO421843  20.552  17.294  12.068 -0.0906 -0.1247  0.3685
 1862POSM   AM121844  20.202  17.258  12.025 -0.1163 -0.3368  0.1040
 1862POSM   AM221845  19.999  17.102  12.054  0.1782  0.2120 -0.0540
 1862POSM   T1A21846  19.919  17.545  12.309  0.0735  0.0547  0.1474
 1862POSM   C2A21847  19.668  17.408  12.687  0.0771  0.3934  0.2237
 1862POSM   C3A21848  19.444  17.772  12.967 -0.1040  0.1611  0.0835
 1862POSM   C1B21849  19.930  17.107  12.389  0.0871  0.2141 -0.2783
 1862POSM   D2B21850  19.945  16.978  12.833  0.1879 -0.0335  0.0155
 1862POSM   C3B21851  19.639  17.069  13.109 -0.2872  0.0719  0.0591
 1862POSM   C4B21852  19.205  17.311  13.070 -0.0140 -0.0734  0.2348
 1863DOPC   NC321853  21.001  19.578  11.405  0.2670 -0.3064  0.2342
 1863DOPC   PO421854  20.741  19.367  11.440 -0.3000 -0.0656 -0.3473
 1863DOPC   GL121855  20.671  19.683  11.734  0.2296  0.0948  0.0893
 1863DOPC   GL221856  20.455  19.842  11.736 -0.1176 -0.0885  0.5081
 1863DOPC   C1A21857  20.869  19.928  12.044  0.5021 -0.3585 -0.0479
 1863DOPC   D2A21858  21.118  19.863  12.441 -0.2736 -0.0904  0.2074
 1863DOPC   C3A21859  21.052  19.542  12.717 -0.0635 -0.1462 -0.2937
 1863DOPC   C4A21860  20.963  19.123  12.970  0.1668 -0.1988  0.3385
 1863DOPC   C1B21861  20.475  20.175  11.969  0.2277  0.1720 -0.1245
 1863DOPC   D2B21862  20.356  20.559  12.181  0.2168  0.2210  0.0239
 1863DOPC   C3B21863  20.399  20.566  12.650  0.1210  0.1535  0.0115
 1863DOPC   C4B21864  20.607  20.503  13.078  0.0134  0.0719 -0.0003
 1864POSM   NC321865  19.787  22.628  11.409 -0.0719  0.2882  0.0817
 1864POSM   PO421866  19.398  22.488  11.450 -0.1754  0.2515 -0.0622
 1864POSM   AM121867  19.505  22.480  11.741 -0.2272  0.2422  0.3881
 1864POSM   AM221868  19.599  22.558  11.983 -0.0509 -0.0635 -0.2078
 1864POSM   T1A21869  19.283  22.230  12.158  0.0934  0.0448 -0.4494
 1864POSM   C2A21870  18.939  22.076  12.411  0.1881  0.5474 -0.0390
 1864POSM   C3A21871  18.625  21.761  12.620  0.0090  0.0445  0.0756
 1864POSM   C1B21872  19.533  22.779  12.240 -0.0646  0.0472 -0.0042
 1864POSM   D2B21873  19.602  23.188  12.376 -0.0198  0.0864 -0.0248
 1864POSM   C3B21874  19.638  23.365  12.830  0.2922  0.1376  0.0406
 1864POSM   C4B21875  19.586  23.429  13.265  0.1897 -0.0935 -0.1002
 1865DOPE   NH321876  17.324  11.283  12.099  0.1117  0.0107  0.3108
 1865DOPE   PO421877  17.327  11.596  12.178 -0.0554 -0.1857  0.0875
 1865DOPE   GL121878  17.334  11.734  12.536  0.4599 -0.0815  0.1332
 1865DOPE   GL221879  17.115  11.486  12.667  0.2891  0.1673 -0.1160
 1865DOPE   C1A21880  17.335  11.740  12.983 -0.1774  0.2572  0.2761
 1865DOPE   D2A21881  17.548  11.924  13.366 -0.0003 -0.2363  0.1801
 1865DOPE   C3A21882  17.431  12.332  13.523  0.1724  0.1141 -0.1303
 1865DOPE   C4A21883  17.505  12.792  13.490 -0.3442 -0.2721 -0.1221
 1865DOPE   C1B21884  17.036  11.120  12.917  0.3235  0.1985 -0.0009
 1865DOPE   D2B21885  16.933  10.859  13.313  0.1738 -0.1812 -0.0191
 1865DOPE   C3B21886  17.219  10.864  13.721 -0.1543 -0.2415  0.1543
 1865DOPE   C4B21887  17.685  11.012  13.653  0.2845  0.1250  0.3853
 1866DOPC   NC321888  20.615  16.509  11.672  0.3498 -0.0065  0.0331
 1866DOPC   PO421889  20.354  16.724  11.909 -0.2735  0.2722 -0.0506
 1866DOPC   GL121890  20.158  16.380  11.763  0.0502  0.0109  0.1115
 1866DOPC   GL221891  19.939  16.240  11.954 -0.0776  0.1348 -0.3699
 1866DOPC   C1A21892  20.499  16.026  11.778 -0.1987  0.0941  0.1229
 1866DOPC   D2A21893  20.956  15.937  11.699  0.1831  0.0838 -0.0106
 1866DOPC   C3A21894  21.245  15.655  11.905 -0.2514  0.2159 -0.1546
 1866DOPC   C4A21895  21.258  15.250  12.107  0.1792 -0.0068  0.2841
 1866DOPC   C1B21896  19.936  16.101  12.352 -0.1894  0.2486 -0.3242
 1866DOPC   D2B21897  19.861  15.697  12.546  0.0086  0.3432  0.1396
 1866DOPC   C3B21898  20.155  15.583  12.858  0.3181 -0.1798  0.0876
 1866DOPC   C4B21899  20.574  15.373  12.758  0.1500 -0.0548  0.0906
 1867DOPE   NH321900  23.095  10.992  12.249 -0.1790  0.1246  0.0471
 1867DOPE   PO421901  22.907  11.230  12.118  0.2622 -0.1633 -0.3883
 1867DOPE   GL121902  23.056  11.386  12.446 -0.0185  0.3603 -0.2852
 1867DOPE   GL221903  22.818  11.502  12.643  0.0959  0.0395 -0.1850
 1867DOPE   C1A21904  23.351  11.686  12.607 -0.1666  0.1031 -0.0001
 1867DOPE   D2A21905  23.476  12.055  12.900  0.3005 -0.3033  0.1543
 1867DOPE   C3A21906  23.363  12.002  13.346  0.2168 -0.0441 -0.0556
 1867DOPE   C4A21907  23.280  11.925  13.844 -0.1284 -0.0072 -0.2502
 1867DOPE   C1B21908  23.035  11.271  12.931 -0.2309 -0.1419  0.1773
 1867DOPE   D2B21909  23.329  11.160  13.250 -0.3064  0.1534 -0.2793
 1867DOPE   C3B21910  23.160  11.438  13.564  0.0328 -0.0581  0.0256
 1867DOPE   C4B21911  22.960  11.535  13.941  0.1081 -0.3173  0.2571
 1868POSM   NC321912  12.693  15.175  11.036 -0.0661 -0.1628 -0.1626
 1868POSM   PO421913  12.553  15.418  11.353  0.1305  0.1401  0.3716
 1868POSM   AM121914  12.603  15.484  11.656 -0.1384 -0.0049 -0.1126
 1868POSM   AM221915  12.663  15.653  11.836 -0.2010  0.1007 -0.2994
 1868POSM   T1A21916  12.497  15.307  12.128 -0.2041  0.3960 -0.1826
 1868POSM   C2A21917  12.794  15.262  12.494 -0.1057 -0.0521  0.0749
 1868POSM   C3A21918  12.996  15.220  12.913 -0.3158 -0.0145 -0.1235
 1868POSM   C1B21919  12.655  15.835  12.135  0.2208 -0.1334 -0.1752
 1868POSM   D2B21920  12.786  15.804  12.634 -0.0025 -0.1929 -0.1494
 1868POSM   C3B21921  12.820  15.651  13.110 -0.0025 -0.0034 -0.0435
 1868POSM   C4B21922  12.999  15.622  13.526  0.3716 -0.1169 -0.0528
 1869DOPC   NC321923  17.721  18.863  11.448 -0.0252  0.0767 -0.1012
 1869DOPC   PO421924  18.104  18.738  11.450 -0.1770  0.2511  0.0236
 1869DOPC   GL121925  18.181  18.678  11.886 -0.0121 -0.0134  0.1936
 1869DOPC   GL221926  18.006  18.558  12.012  0.2740  0.3272 -0.1895
 1869DOPC   C1A21927  18.307  18.857  12.325  0.0464  0.2023  0.1308
 1869DOPC   D2A21928  18.336  19.180  12.649  0.0608 -0.0121  0.1712
 1869DOPC   C3A21929  17.973  19.399  12.825 -0.1770 -0.0002  0.1183
 1869DOPC   C4A21930  17.592  19.651  12.758 -0.0518 -0.0035  0.1894
 1869DOPC   C1B21931  18.417  18.410  12.184  0.0461  0.2552  0.2581
 1869DOPC   D2B21932  18.928  18.451  12.215  0.1531 -0.0633  0.3752
 1869DOPC   C3B21933  19.195  18.739  12.387 -0.0655  0.1252 -0.0673
 1869DOPC   C4B21934  19.168  18.933  12.732  0.2144 -0.0589 -0.0975
 1870POSM   NC321935  18.685  12.623  11.482 -0.0444  0.0518  0.2856
 1870POSM   PO421936  18.978  12.407  11.709 -0.1659 -0.0069 -0.2044
 1870POSM   AM121937  19.109  12.535  11.975  0.1088 -0.0362 -0.1605
 1870POSM   AM221938  19.198  12.796  12.046 -0.2611 -0.1057  0.0389
 1870POSM   T1A21939  19.380  12.630  12.402  0.0111 -0.0091 -0.0401
 1870POSM   C2A21940  19.472  12.398  12.849  0.0853 -0.2878  0.2862
 1870POSM   C3A21941  19.745  12.578  13.129 -0.1875  0.0092  0.0752
 1870POSM   C1B21942  18.985  12.933  12.244  0.1558 -0.2991  0.1754
 1870POSM   D2B21943  18.921  13.103  12.680  0.2308  0.3305 -0.1784
 1870POSM   C3B21944  19.142  13.418  12.983 -0.3261 -0.3210  0.1981
 1870POSM   C4B21945  19.507  13.740  13.031 -0.3186  0.3058  0.1220
 1871POSM   NC321946  11.259  19.169  12.075 -0.0247 -0.1890 -0.1819
 1871POSM   PO421947  11.459  18.853  11.890  0.0172  0.1783  0.1949
 1871POSM   AM121948  11.500  18.556  11.944  0.3453  0.5798  0.3548
 1871POSM   AM221949  11.606  18.365  12.128  0.2338  0.2535 -0.3852
 1871POSM   T1A21950  11.546  18.069  11.740 -0.2565  0.0141 -0.1516
 1871POSM   C2A21951  11.791  17.726  11.641 -0.0194  0.2342  0.1259
 1871POSM   C3A21952  11.919  17.331  11.420  0.1345  0.0955  0.0689
 1871POSM   C1B21953  11.822  18.471  12.363 -0.1965  0.2945 -0.0109
 1871POSM   D2B21954  12.121  18.412  12.743  0.0792 -0.5509 -0.0955
 1871POSM   C3B21955  12.200  18.811  12.987 -0.0723  0.0101  0.1520
 1871POSM   C4B21956  12.192  19.284  12.943 -0.0174  0.1579 -0.0746
 1872DOPC   NC321957  17.090  13.703  11.576 -0.1026  0.0930 -0.0441
 1872DOPC   PO421958  16.978  13.372  11.379  0.2397  0.1581 -0.0150
 1872DOPC   GL121959  16.650  13.341  11.514 -0.1704 -0.2203 -0.4058
 1872DOPC   GL221960  16.644  13.501  11.764 -0.1322  0.0086  0.0907
 1872DOPC   C1A21961  16.338  13.214  11.830  0.0322 -0.1546 -0.2306
 1872DOPC   D2A21962  16.309  13.122  12.260  0.3202  0.0955  0.1697
 1872DOPC   C3A21963  15.936  13.237  12.478  0.0023 -0.1272 -0.0048
 1872DOPC   C4A21964  15.599  12.989  12.772  0.4437 -0.1295 -0.2855
 1872DOPC   C1B21965  16.758  13.356  12.199 -0.0922 -0.1124 -0.3131
 1872DOPC   D2B21966  16.639  13.237  12.604 -0.0406 -0.2052 -0.1062
 1872DOPC   C3B21967  16.857  13.463  12.997  0.1650 -0.0796 -0.2129
 1872DOPC   C4B21968  17.233  13.531  13.276 -0.1491  0.1538 -0.4038
 1873DOPE   NH321969  14.531  11.647  11.475  0.0625 -0.1736  0.1464
 1873DOPE   PO421970  14.370  11.764  11.735 -0.0906  0.2060 -0.2569
 1873DOPE   GL121971  14.562  11.965  11.937 -0.0592 -0.3448  0.1808
 1873DOPE   GL221972  14.873  11.852  11.929  0.2137 -0.1670  0.3625
 1873DOPE   C1A21973  14.654  12.404  12.046  0.1984 -0.1559  0.1730
 1873DOPE   D2A21974  14.784  12.587  12.463 -0.1898 -0.3253  0.1000
 1873DOPE   C3A21975  15.075  12.376  12.644 -0.3163  0.0593  0.1614
 1873DOPE   C4A21976  15.506  12.466  12.677 -0.2611 -0.2892  0.2250
 1873DOPE   C1B21977  15.158  12.216  12.130  0.3006  0.2020 -0.0506
 1873DOPE   D2B21978  15.319  12.653  12.218 -0.6735  0.2921 -0.6047
 1873DOPE   C3B21979  15.056  12.987  12.369 -0.2502  0.2725  0.2693
 1873DOPE   C4B21980  14.780  13.339  12.215 -0.0481  0.1045 -0.1445
 1874POSM   NC321981  15.265  23.538  12.010  0.1164 -0.0020  0.1188
 1874POSM   PO421982  15.077  23.405  12.342 -0.1511  0.0225  0.2873
 1874POSM   AM121983  14.825  23.397  12.540  0.1027 -0.0879  0.2882
 1874POSM   AM221984  14.547  23.259  12.529  0.0605  0.2845  0.2995
 1874POSM   T1A21985  14.725  23.525  13.005 -0.1332  0.0945 -0.1373
 1874POSM   C2A21986  14.253  23.656  13.210  0.1802 -0.0445  0.0698
 1874POSM   C3A21987  14.109  23.535  13.601 -0.0435 -0.3626  0.1892
 1874POSM   C1B21988  14.342  23.246  12.813  0.2717  0.0416  0.1076
 1874POSM   D2B21989  14.206  23.138  13.226  0.0772  0.1368  0.0710
 1874POSM   C3B21990  13.968  23.084  13.633  0.1091 -0.3016  0.1464
 1874POSM   C4B21991  13.736  23.343  13.905 -0.1528 -0.1313 -0.0342
 1875POSM   NC321992  16.133  14.807  11.090  0.0376  0.0551 -0.0779
 1875POSM   PO421993  16.302  14.613  11.333 -0.1759  0.2522  0.0804
 1875POSM   AM121994  16.209  14.342  11.516  0.1179 -0.0221 -0.5064
 1875POSM   AM221995  16.057  14.151  11.555  0.1857 -0.1929  0.1160
 1875POSM   T1A21996  16.072  14.179  12.018 -0.0347  0.0805  0.0973
 1875POSM   C2A21997  15.792  13.901  12.234  0.0875  0.2061  0.1076
 1875POSM   C3A21998  15.429  13.794  12.488 -0.0176 -0.0949  0.3162
 1875POSM   C1B21999  15.781  13.877  11.583  0.0524  0.0476  0.2395
 1875POSM   D2B22000  15.367  13.691  11.435 -0.1258 -0.2874 -0.3450
 1875POSM   C3B22001  15.059  13.413  11.723 -0.0935 -0.0940 -0.0990
 1875POSM   C4B22002  14.984  13.017  11.843 -0.1949 -0.1271  0.1208
 1876DOPS   CNO22003  18.358  18.118  10.822 -0.2161 -0.0843  0.1919
 1876DOPS   PO422004  18.275  17.862  11.063  0.0745  0.1393  0.0180
 1876DOPS   GL122005  18.274  17.862  11.459  0.1855 -0.0945  0.2927
 1876DOPS   GL222006  18.228  17.557  11.459  0.1088 -0.0171 -0.0881
 1876DOPS   C1A22007  18.524  17.768  11.818  0.2945  0.0255 -0.2404
 1876DOPS   D2A22008  18.858  17.913  11.989  0.0917  0.2750 -0.1641
 1876DOPS   C3A22009  18.899  18.019  12.454  0.2024 -0.1870  0.1845
 1876DOPS   C4A22010  19.088  18.352  12.695  0.0944  0.1203  0.0499
 1876DOPS   C1B22011  18.670  17.345  11.509 -0.1189 -0.0763 -0.0577
 1876DOPS   D2B22012  18.716  17.101  11.862 -0.1769 -0.1912  0.3047
 1876DOPS   C3B22013  18.889  17.408  12.142 -0.1556  0.1952 -0.0557
 1876DOPS   C4B22014  19.188  17.624  12.417  0.0091 -0.0449  0.0948
 1877DOPC   NC322015  13.819  20.360  12.236 -0.2022  0.1138  0.1147
 1877DOPC   PO422016  13.890  20.327  11.857  0.0650 -0.0260  0.1837
 1877DOPC   GL122017  14.039  20.718  11.858 -0.1116 -0.0755  0.0982
 1877DOPC   GL222018  14.245  20.671  12.068  0.1835 -0.3240 -0.0264
 1877DOPC   C1A22019  14.103  21.122  12.059  0.0148  0.3311  0.1725
 1877DOPC   D2A22020  14.219  21.329  12.456  0.0637  0.1767 -0.0550
 1877DOPC   C3A22021  14.164  21.644  12.765  0.0887 -0.1131 -0.1572
 1877DOPC   C4A22022  14.285  21.946  13.092 -0.2986  0.0255 -0.0102
 1877DOPC   C1B22023  14.051  20.839  12.458  0.0969 -0.0403 -0.0431
 1877DOPC   D2B22024  13.799  20.676  12.825  0.1138 -0.0618  0.0250
 1877DOPC   C3B22025  13.491  21.020  12.880  0.1780  0.1469  0.0625
 1877DOPC   C4B22026  13.100  21.211  13.059 -0.1830  0.2025  0.1664
 1878POSM   NC322027  10.168  17.312  11.697  0.1703  0.0769  0.0731
 1878POSM   PO422028  10.541  17.366  11.752 -0.0477  0.1514  0.1520
 1878POSM   AM122029  10.685  17.338  12.032 -0.0843 -0.1192 -0.1531
 1878POSM   AM222030  10.527  17.248  12.255 -0.2999  0.0568 -0.1126
 1878POSM   T1A22031  11.081  17.480  12.301 -0.1236  0.1018 -0.1474
 1878POSM   C2A22032  11.278  17.366  12.670  0.2449  0.3357 -0.1691
 1878POSM   C3A22033  11.310  17.217  13.114 -0.2482 -0.1817 -0.0866
 1878POSM   C1B22034  10.798  17.051  12.366 -0.0198  0.2288  0.1034
 1878POSM   D2B22035  11.208  16.909  12.612  0.0774 -0.0495  0.2236
 1878POSM   C3B22036  11.335  16.589  12.863  0.0915 -0.0462  0.0394
 1878POSM   C4B22037  11.627  16.281  13.059 -0.1790 -0.4067 -0.1090
 1879DOPE   NH322038  16.769  14.432  11.511 -0.3602 -0.0056 -0.0791
 1879DOPE   PO422039  16.930  14.689  11.597  0.1185 -0.2691 -0.3205
 1879DOPE   GL122040  16.894  14.955  11.921 -0.0009 -0.3699 -0.0053
 1879DOPE   GL222041  16.859  14.862  12.197  0.3416 -0.1731 -0.1182
 1879DOPE   C1A22042  16.719  15.349  12.099 -0.1721  0.0158 -0.2046
 1879DOPE   D2A22043  16.512  15.330  12.462 -0.0095 -0.1205  0.0662
 1879DOPE   C3A22044  16.934  15.205  12.636 -0.1544  0.1365  0.0388
 1879DOPE   C4A22045  17.254  15.268  12.927 -0.0259 -0.0849  0.2655
 1879DOPE   C1B22046  16.842  14.545  12.510  0.2875 -0.0077  0.0109
 1879DOPE   D2B22047  17.006  14.416  12.904  0.0274 -0.4173  0.2669
 1879DOPE   C3B22048  17.468  14.422  12.868  0.2455  0.2649  0.3348
 1879DOPE   C4B22049  17.760  14.369  12.523  0.2410  0.3332 -0.0695
 1880POSM   NC322050  12.152  18.714  11.963 -0.0131  0.0633  0.0565
 1880POSM   PO422051  12.352  18.985  11.742 -0.0843 -0.3919 -0.0916
 1880POSM   AM122052  12.370  19.272  11.906  0.1573  0.0746 -0.0305
 1880POSM   AM222053  12.479  19.548  11.827  0.0564  0.1413 -0.0200
 1880POSM   T1A22054  12.029  19.426  12.243 -0.2343  0.3404  0.1426
 1880POSM   C2A22055  11.677  19.573  12.525 -0.0632  0.3695 -0.1268
 1880POSM   C3A22056  11.447  19.960  12.635 -0.0046  0.0769  0.0991
 1880POSM   C1B22057  12.328  19.780  12.008  0.1196  0.3805  0.2203
 1880POSM   D2B22058  11.918  19.946  12.140 -0.0465 -0.3597  0.0736
 1880POSM   C3B22059  11.482  19.756  12.089 -0.0984  0.2228  0.1840
 1880POSM   C4B22060  11.117  19.627  11.885  0.2898  0.3014  0.2387
 1881POSM   NC322061  13.883  17.272  11.732 -0.0544 -0.1587  0.2239
 1881POSM   PO422062  13.984  17.565  11.549 -0.0117  0.0956 -0.1522
 1881POSM   AM122063  14.091  17.758  11.791 -0.3222  0.1229  0.0867
 1881POSM   AM222064  14.080  18.013  11.878 -0.0649  0.1938  0.0133
 1881POSM   T1A22065  14.471  17.840  12.080  0.1510  0.2461  0.1195
 1881POSM   C2A22066  14.839  17.624  12.000 -0.0465  0.0783 -0.0591
 1881POSM   C3A22067  15.171  17.383  12.291  0.0016  0.1286 -0.1363
 1881POSM   C1B22068  14.124  18.292  11.973  0.3116 -0.1292 -0.2412
 1881POSM   D2B22069  14.283  18.698  11.963 -0.1535  0.3205  0.2534
 1881POSM   C3B22070  14.704  18.759  12.075 -0.3382 -0.3488 -0.0499
 1881POSM   C4B22071  14.875  18.865  12.487 -0.0951  0.0918 -0.3445
 1882POSM   NC322072  13.042  18.273  11.295  0.1204  0.0661 -0.1783
 1882POSM   PO422073  13.076  18.112  11.668  0.2968 -0.1313  0.3074
 1882POSM   AM122074  13.060  18.048  11.976 -0.3837  0.2615  0.0950
 1882POSM   AM222075  12.891  18.137  12.190 -0.0800 -0.1654 -0.1507
 1882POSM   T1A22076  13.296  17.808  12.373 -0.1590 -0.0925 -0.0002
 1882POSM   C2A22077  13.576  17.941  12.728 -0.0630  0.0953  0.1604
 1882POSM   C3A22078  13.521  18.232  13.100  0.1613  0.1465 -0.2357
 1882POSM   C1B22079  12.766  18.364  12.413 -0.0281 -0.4622 -0.0256
 1882POSM   D2B22080  12.874  18.748  12.698 -0.3228 -0.3645 -0.2411
 1882POSM   C3B22081  13.192  18.682  13.046 -0.0011 -0.2511  0.0153
 1882POSM   C4B22082  13.292  18.881  13.461  0.0762 -0.0096 -0.1896
 1883DOPS   CNO22083  21.195  16.794  11.716 -0.2556 -0.0173 -0.1711
 1883DOPS   PO422084  21.090  16.395  11.815  0.2668  0.2017  0.2960
 1883DOPS   GL122085  21.355  16.114  12.043  0.1556 -0.2077 -0.0484
 1883DOPS   GL222086  21.260  16.223  12.293  0.0929  0.0131 -0.0172
 1883DOPS   C1A22087  21.383  15.758  12.342 -0.2704  0.1474  0.0656
 1883DOPS   D2A22088  21.490  15.315  12.524  0.2216 -0.0925  0.0126
 1883DOPS   C3A22089  21.668  15.382  12.940  0.2555 -0.0910  0.1463
 1883DOPS   C4A22090  21.486  15.386  13.278  0.2235 -0.2444  0.0417
 1883DOPS   C1B22091  20.972  16.271  12.635 -0.0257  0.1197  0.2919
 1883DOPS   D2B22092  20.715  15.955  12.816 -0.1945  0.2657  0.2779
 1883DOPS   C3B22093  20.412  15.835  12.508  0.1708 -0.2586 -0.1661
 1883DOPS   C4B22094  20.263  15.787  12.081  0.0804  0.1961 -0.0304
 1884POSM   NC322095  18.258  11.321  12.374 -0.2325  0.3002 -0.1959
 1884POSM   PO422096  17.921  11.324  12.188 -0.1914 -0.1126 -0.1660
 1884POSM   AM122097  17.902  11.648  12.284 -0.2414  0.0130  0.1204
 1884POSM   AM222098  17.816  11.740  12.519 -0.0174  0.1542  0.3438
 1884POSM   T1A22099  18.078  12.158  12.388  0.0780  0.1268  0.1156
 1884POSM   C2A22100  18.040  12.550  12.126  0.1579 -0.0139 -0.1464
 1884POSM   C3A22101  17.786  12.926  11.949 -0.0373  0.0917  0.0256
 1884POSM   C1B22102  17.662  11.991  12.736 -0.0025  0.0305 -0.1699
 1884POSM   D2B22103  17.632  12.386  13.048  0.1821  0.1654 -0.2204
 1884POSM   C3B22104  17.312  12.679  12.820 -0.1229  0.0605 -0.2409
 1884POSM   C4B22105  16.950  13.004  12.885  0.1826 -0.1755 -0.0842
 1885DOPE   NH322106  22.842  14.403  12.236 -0.3201 -0.2440  0.0593
 1885DOPE   PO422107  22.746  14.660  12.087 -0.0136 -0.2928 -0.0252
 1885DOPE   GL122108  22.389  14.598  12.266 -0.1852  0.0271  0.3318
 1885DOPE   GL222109  22.242  14.736  12.026 -0.2286 -0.1885 -0.4003
 1885DOPE   C1A22110  22.041  14.529  12.584  0.0328 -0.3124  0.2958
 1885DOPE   D2A22111  22.101  14.655  13.019 -0.2429  0.2629  0.1268
 1885DOPE   C3A22112  22.498  14.616  13.256  0.1997  0.0699 -0.0186
 1885DOPE   C4A22113  22.798  14.529  13.572 -0.0488 -0.3683 -0.1490
 1885DOPE   C1B22114  22.119  15.181  12.102  0.0996  0.3835  0.1098
 1885DOPE   D2B22115  22.121  15.608  12.235 -0.2318  0.1516 -0.1044
 1885DOPE   C3B22116  21.886  15.753  12.588  0.2645 -0.1443 -0.0420
 1885DOPE   C4B22117  21.525  15.904  12.850 -0.1096 -0.0019  0.2844
 1886DOPE   NH322118  22.787  22.902  11.798  0.0072  0.0878 -0.0394
 1886DOPE   PO422119  22.785  22.935  12.124  0.0369  0.0734 -0.2564
 1886DOPE   GL122120  22.863  22.727  12.496 -0.0840 -0.3652  0.0459
 1886DOPE   GL222121  22.705  22.436  12.601  0.0027  0.2193  0.3759
 1886DOPE   C1A22122  22.796  22.888  12.945  0.2071  0.0124 -0.4369
 1886DOPE   D2A22123  22.852  22.909  13.384 -0.1937  0.1121  0.0016
 1886DOPE   C3A22124  22.743  23.267  13.644 -0.0475  0.0767  0.1779
 1886DOPE   C4A22125  22.364  23.399  13.932  0.2726  0.0241  0.1409
 1886DOPE   C1B22126  22.209  22.261  12.466 -0.6563 -0.0419  0.1148
 1886DOPE   D2B22127  21.931  21.936  12.699 -0.1837  0.4533  0.1087
 1886DOPE   C3B22128  21.917  21.799  13.117 -0.1649  0.1312 -0.3787
 1886DOPE   C4B22129  21.739  21.734  13.567 -0.2885  0.1535 -0.1739
 1887DOPE   NH322130  16.779  18.653  11.611  0.0573 -0.0810  0.2244
 1887DOPE   PO422131  17.083  18.635  11.721  0.0131 -0.3342  0.3849
 1887DOPE   GL122132  16.971  18.619  12.149  0.1793  0.0922 -0.0578
 1887DOPE   GL222133  16.937  18.337  12.035 -0.1103  0.1032 -0.3941
 1887DOPE   C1A22134  16.652  18.489  12.528  0.0084 -0.0291  0.2699
 1887DOPE   D2A22135  16.263  18.771  12.705  0.0859  0.1251  0.2236
 1887DOPE   C3A22136  15.830  18.624  12.741  0.0330  0.0414 -0.0329
 1887DOPE   C4A22137  15.542  18.623  13.124 -0.1568  0.0962  0.0707
 1887DOPE   C1B22138  16.812  17.873  11.946  0.2179 -0.0324 -0.0118
 1887DOPE   D2B22139  16.506  17.608  12.007  0.2755 -0.0071  0.3494
 1887DOPE   C3B22140  16.054  17.535  12.238 -0.0191 -0.5255  0.1235
 1887DOPE   C4B22141  15.649  17.642  12.312  0.1385 -0.1053  0.1384
 1888DOPE   NH322142  12.127  15.243  11.146  0.0417 -0.0547  0.0311
 1888DOPE   PO422143  12.218  14.962  11.278  0.2316 -0.2208 -0.0012
 1888DOPE   GL122144  12.293  14.724  11.655 -0.2119 -0.7084 -0.3976
 1888DOPE   GL222145  12.368  14.441  11.510  0.3190 -0.1930 -0.1764
 1888DOPE   C1A22146  12.479  14.395  11.997  0.0995 -0.2384  0.2877
 1888DOPE   D2A22147  12.736  14.005  12.079 -0.0658  0.0486 -0.1881
 1888DOPE   C3A22148  12.675  13.716  12.412  0.0971 -0.2829  0.2494
 1888DOPE   C4A22149  12.647  13.285  12.617  0.4445  0.2204 -0.7357
 1888DOPE   C1B22150  12.205  14.070  11.601  0.1572  0.2228  0.1947
 1888DOPE   D2B22151  12.101  13.615  11.594 -0.2858 -0.2561 -0.2320
 1888DOPE   C3B22152  11.906  13.421  11.992  0.0628 -0.1817 -0.0658
 1888DOPE   C4B22153  11.754  13.052  12.265  0.0103 -0.2192  0.1577
 1889POSM   NC322154  11.314  15.232  11.640  0.0411  0.1908 -0.1546
 1889POSM   PO422155  11.449  15.215  11.249  0.4573 -0.1677  0.3971
 1889POSM   AM122156  11.515  14.916  11.390 -0.0425  0.0587 -0.1076
 1889POSM   AM222157  11.781  14.777  11.480  0.1730 -0.0496  0.3727
 1889POSM   T1A22158  11.411  14.382  11.372 -0.1281 -0.0610  0.0165
 1889POSM   C2A22159  11.360  14.188  11.766  0.2708 -0.1594  0.1476
 1889POSM   C3A22160  11.448  14.382  12.211  0.0261 -0.1644  0.2044
 1889POSM   C1B22161  11.792  14.541  11.735  0.0948  0.2456  0.1300
 1889POSM   D2B22162  12.017  14.310  12.053  0.1380 -0.1576  0.1443
 1889POSM   C3B22163  12.211  13.865  12.088 -0.1581 -0.1358  0.0868
 1889POSM   C4B22164  12.401  13.408  12.055 -0.0303  0.1315 -0.0447
 1890DOPC   NC322165  21.915  19.657  11.093 -0.0036  0.1696  0.1792
 1890DOPC   PO422166  22.125  19.978  11.111  0.1457  0.0525 -0.1997
 1890DOPC   GL122167  21.997  20.153  11.456 -0.0286 -0.0529  0.0817
 1890DOPC   GL222168  21.715  20.148  11.349 -0.0078 -0.2686 -0.0419
 1890DOPC   C1A22169  22.229  20.450  11.731 -0.0878  0.0018 -0.1375
 1890DOPC   D2A22170  22.359  20.760  12.008  0.1865  0.0707  0.0509
 1890DOPC   C3A22171  22.641  20.550  12.289 -0.3234 -0.0932 -0.1020
 1890DOPC   C4A22172  22.821  20.095  12.195 -0.2811  0.0948 -0.1342
 1890DOPC   C1B22173  21.624  20.567  11.546  0.0249  0.2465 -0.1845
 1890DOPC   D2B22174  21.570  20.985  11.698  0.0911 -0.2727  0.1485
 1890DOPC   C3B22175  21.689  21.433  11.538 -0.4318 -0.2387 -0.2757
 1890DOPC   C4B22176  21.778  21.864  11.647  0.1193 -0.0342  0.0668
 1891DOPC   NC322177  18.311  22.268  11.552  0.0768  0.0383  0.2730
 1891DOPC   PO422178  18.026  22.431  11.779  0.0728 -0.0801 -0.0984
 1891DOPC   GL122179  17.953  22.033  11.925 -0.2691 -0.0001  0.0940
 1891DOPC   GL222180  17.799  21.978  11.635 -0.0157  0.0957 -0.0048
 1891DOPC   C1A22181  17.849  21.581  12.012 -0.4488 -0.0549  0.0466
 1891DOPC   D2A22182  17.537  21.169  12.061 -0.1844 -0.0237 -0.2303
 1891DOPC   C3A22183  17.516  21.078  12.503  0.1924  0.0325  0.0848
 1891DOPC   C4A22184  17.249  20.855  12.851 -0.2077 -0.1620 -0.0717
 1891DOPC   C1B22185  17.832  21.491  11.528  0.4494  0.0864 -0.5109
 1891DOPC   D2B22186  17.827  21.083  11.702 -0.2331 -0.1688 -0.3327
 1891DOPC   C3B22187  18.077  21.073  12.138 -0.0023  0.1126  0.2703
 1891DOPC   C4B22188  17.993  21.202  12.573  0.0321 -0.2933 -0.1264
 1892POSM   NC322189  12.999  17.120  11.192  0.1043 -0.0415  0.0026
 1892POSM   PO422190  13.010  17.104  11.623 -0.0418 -0.2239 -0.0463
 1892POSM   AM122191  12.759  17.019  11.795 -0.0099 -0.1480  0.2388
 1892POSM   AM222192  12.676  17.185  12.034 -0.1870 -0.6291 -0.1445
 1892POSM   T1A22193  12.514  16.639  11.828  0.1840  0.0849  0.1444
 1892POSM   C2A22194  12.344  16.248  11.969 -0.0023  0.1956  0.3150
 1892POSM   C3A22195  12.216  15.777  11.987 -0.0490  0.2963  0.2631
 1892POSM   C1B22196  12.354  17.219  12.178  0.0794  0.0801 -0.1536
 1892POSM   D2B22197  12.024  17.125  12.530 -0.2716  0.2271 -0.2863
 1892POSM   C3B22198  11.611  17.139  12.357  0.0020  0.0241  0.1827
 1892POSM   C4B22199  11.254  17.080  12.100 -0.1400 -0.1121 -0.0828
 1893POSM   NC322200  20.257  18.220  11.713 -0.3074  0.1074  0.1183
 1893POSM   PO422201  20.575  18.083  11.695 -0.4067 -0.3477  0.1176
 1893POSM   AM122202  20.591  18.079  11.995  0.1208  0.1775 -0.1597
 1893POSM   AM222203  20.563  18.288  12.187 -0.0738  0.0650  0.1065
 1893POSM   T1A22204  20.740  17.855  12.426 -0.0621  0.0403  0.0530
 1893POSM   C2A22205  20.817  17.384  12.608 -0.0081  0.3657  0.2379
 1893POSM   C3A22206  21.048  16.969  12.642  0.0120  0.0524  0.2024
 1893POSM   C1B22207  20.343  18.354  12.434  0.0437  0.0078 -0.1297
 1893POSM   D2B22208  20.127  18.614  12.793 -0.0440  0.1732  0.0936
 1893POSM   C3B22209  19.951  18.329  13.104 -0.0573 -0.2934  0.0125
 1893POSM   C4B22210  19.885  18.306  13.546 -0.1875  0.0377  0.1309
 1894DOPS   CNO22211  19.008  13.051  11.484  0.2998  0.1661  0.0914
 1894DOPS   PO422212  19.406  13.120  11.494 -0.0947  0.0290  0.3004
 1894DOPS   GL122213  19.610  13.439  11.789  0.0816  0.0398 -0.0323
 1894DOPS   GL222214  19.689  13.545  11.527 -0.0832  0.2085  0.2295
 1894DOPS   C1A22215  19.723  13.539  12.230 -0.2319  0.2353 -0.1094
 1894DOPS   D2A22216  19.792  13.783  12.645  0.4972  0.0657  0.3017
 1894DOPS   C3A22217  19.977  14.197  12.565  0.2220  0.1569 -0.1114
 1894DOPS   C4A22218  19.846  14.585  12.797  0.0851  0.1188  0.1019
 1894DOPS   C1B22219  19.379  13.876  11.663 -0.0218 -0.0556 -0.4761
 1894DOPS   D2B22220  19.347  14.290  11.884  0.1111 -0.0165  0.0175
 1894DOPS   C3B22221  19.742  14.427  11.658  0.0810  0.1934  0.3933
 1894DOPS   C4B22222  20.178  14.499  11.705  0.0571 -0.0071  0.1672
 1895DOPE   NH322223  19.569  19.428  11.082  0.0407  0.1180  0.2755
 1895DOPE   PO422224  19.686  19.714  11.181 -0.1182  0.0423  0.0304
 1895DOPE   GL122225  19.711  19.834  11.537  0.0425 -0.1241 -0.1760
 1895DOPE   GL222226  19.947  19.685  11.620 -0.2480 -0.1005 -0.2024
 1895DOPE   C1A22227  19.520  20.158  11.892  0.1185 -0.0408  0.0100
 1895DOPE   D2A22228  19.335  20.336  12.282  0.2372 -0.2876 -0.1745
 1895DOPE   C3A22229  19.423  20.364  12.766 -0.1373  0.0383 -0.3113
 1895DOPE   C4A22230  19.640  20.496  13.123  0.3130  0.0450 -0.1924
 1895DOPE   C1B22231  20.034  20.137  11.700 -0.0211 -0.1918 -0.2797
 1895DOPE   D2B22232  19.906  20.595  11.540  0.2899 -0.0508  0.2164
 1895DOPE   C3B22233  20.313  20.855  11.494  0.0673  0.2119  0.0893
 1895DOPE   C4B22234  20.708  20.915  11.242 -0.3628 -0.0404 -0.1956
 1896DOPC   NC322235  18.768  17.877  11.326  0.0945 -0.1063  0.2707
 1896DOPC   PO422236  18.846  17.842  10.900  0.2220  0.0241  0.1697
 1896DOPC   GL122237  18.688  17.434  10.902 -0.0505  0.3240 -0.3840
 1896DOPC   GL222238  18.402  17.381  10.854 -0.1243 -0.2863  0.0949
 1896DOPC   C1A22239  18.961  17.108  11.058  0.0396  0.2930 -0.0745
 1896DOPC   D2A22240  19.039  16.863  11.410 -0.0994 -0.1178  0.1815
 1896DOPC   C3A22241  18.834  16.601  11.670  0.0036  0.1730 -0.1116
 1896DOPC   C4A22242  18.711  16.358  12.070  0.2484  0.0872  0.1644
 1896DOPC   C1B22243  18.224  17.154  11.184  0.0320 -0.0892  0.0707
 1896DOPC   D2B22244  18.371  16.724  11.328 -0.2252  0.1863  0.1989
 1896DOPC   C3B22245  17.946  16.659  11.573 -0.0587 -0.2600 -0.2272
 1896DOPC   C4B22246  17.682  16.724  11.935  0.1080 -0.1353 -0.3586
 1897DOPC   NC322247  16.874  19.037  11.953  0.0212  0.1621 -0.1887
 1897DOPC   PO422248  16.559  18.831  12.035  0.0316  0.1969 -0.0198
 1897DOPC   GL122249  16.558  19.101  12.362 -0.4092 -0.0048 -0.2928
 1897DOPC   GL222250  16.789  19.000  12.467 -0.0622  0.3272  0.1131
 1897DOPC   C1A22251  16.353  19.483  12.555 -0.2886  0.0550  0.2281
 1897DOPC   D2A22252  16.471  19.877  12.421 -0.1030 -0.1737 -0.2651
 1897DOPC   C3A22253  16.254  20.339  12.466 -0.0421  0.0284 -0.2082
 1897DOPC   C4A22254  16.043  20.505  12.842  0.0394  0.0562 -0.0729
 1897DOPC   C1B22255  16.577  19.151  12.846 -0.3945 -0.0080  0.0828
 1897DOPC   D2B22256  16.469  18.886  13.209  0.2346 -0.0259 -0.2484
 1897DOPC   C3B22257  16.679  18.582  13.351  0.1003  0.1434 -0.2315
 1897DOPC   C4B22258  16.701  18.272  13.720 -0.3736 -0.3570  0.0787
 1898DOPC   NC322259  17.301  22.994  12.077 -0.1064 -0.1018  0.0643
 1898DOPC   PO422260  17.286  22.742  11.800  0.2227  0.0106  0.1468
 1898DOPC   GL122261  17.387  22.514  12.069 -0.2921 -0.1369  0.3874
 1898DOPC   GL222262  17.217  22.549  12.330 -0.0809 -0.1596  0.0692
 1898DOPC   C1A22263  17.545  22.027  12.141  0.1087 -0.1268 -0.0909
 1898DOPC   D2A22264  17.388  21.781  12.473 -0.5430  0.2687 -0.1825
 1898DOPC   C3A22265  17.065  21.449  12.406  0.0902 -0.1423  0.1774
 1898DOPC   C4A22266  16.885  21.081  12.561  0.2841  0.2540  0.1188
 1898DOPC   C1B22267  17.062  22.111  12.284 -0.3967 -0.2440 -0.1959
 1898DOPC   D2B22268  16.895  21.806  12.025  0.0730  0.0033  0.4296
 1898DOPC   C3B22269  16.498  21.579  11.998 -0.1510 -0.1427  0.0252
 1898DOPC   C4B22270  16.140  21.564  12.305  0.1632 -0.2767 -0.1381
 1899DOPE   NH322271  18.787  11.946  11.811 -0.1886  0.2024  0.1962
 1899DOPE   PO422272  19.040  11.801  11.857 -0.1166 -0.0992 -0.0296
 1899DOPE   GL122273  19.248  11.956  12.252  0.1181 -0.1804 -0.3385
 1899DOPE   GL222274  19.024  12.182  12.241 -0.2203 -0.0745 -0.0244
 1899DOPE   C1A22275  19.162  11.990  12.715 -0.0339 -0.0991  0.0157
 1899DOPE   D2A22276  18.978  12.162  13.111 -0.0075 -0.0219 -0.1732
 1899DOPE   C3A22277  18.854  11.983  13.523 -0.2230  0.1070  0.0285
 1899DOPE   C4A22278  18.858  11.801  13.945 -0.2393  0.2024 -0.2871
 1899DOPE   C1B22279  18.917  12.472  12.631  0.1340 -0.1465  0.2075
 1899DOPE   D2B22280  19.055  12.638  13.079  0.1459 -0.3514 -0.1920
 1899DOPE   C3B22281  19.353  12.918  12.903  0.4945 -0.1215 -0.3931
 1899DOPE   C4B22282  19.606  13.264  12.919 -0.0141  0.0184  0.1788
 1900DOPC   NC322283  21.921  18.594  11.284  0.0106  0.0392 -0.2499
 1900DOPC   PO422284  21.679  18.811  11.505  0.2016  0.0116 -0.1778
 1900DOPC   GL122285  21.666  19.022  11.757  0.2082 -0.2420 -0.1053
 1900DOPC   GL222286  21.484  19.257  11.863 -0.2825  0.1797  0.1618
 1900DOPC   C1A22287  21.917  19.264  12.114  0.3253 -0.0585 -0.1949
 1900DOPC   D2A22288  22.037  19.568  12.500  0.2198 -0.1023  0.3081
 1900DOPC   C3A22289  22.302  19.511  12.831 -0.1082  0.3892 -0.0177
 1900DOPC   C4A22290  22.242  19.704  13.209  0.0592  0.2484 -0.0404
 1900DOPC   C1B22291  21.310  19.575  12.109 -0.0413  0.4957  0.2368
 1900DOPC   D2B22292  21.520  19.582  12.500 -0.0181 -0.2854  0.3011
 1900DOPC   C3B22293  21.532  19.952  12.820  0.0931  0.0349 -0.0160
 1900DOPC   C4B22294  21.463  20.326  13.053  0.0958 -0.1070 -0.2515
 1901POSM   NC322295  13.982  15.497  11.458  0.0119  0.2243 -0.2167
 1901POSM   PO422296  14.254  15.665  11.259  0.1902 -0.0924  0.0877
 1901POSM   AM122297  14.410  15.383  11.401  0.3771  0.0965  0.3310
 1901POSM   AM222298  14.358  15.105  11.517 -0.4111  0.4142 -0.0098
 1901POSM   T1A22299  14.876  15.219  11.421  0.2954  0.0657  0.0981
 1901POSM   C2A22300  15.283  15.133  11.656  0.3640 -0.0580 -0.3125
 1901POSM   C3A22301  15.702  15.147  11.938 -0.1244  0.0344 -0.0432
 1901POSM   C1B22302  14.285  15.151  11.834 -0.1660 -0.2503  0.2279
 1901POSM   D2B22303  14.255  14.975  12.262 -0.0718  0.3105  0.4052
 1901POSM   C3B22304  14.637  15.191  12.495  0.4257 -0.0371 -0.0428
 1901POSM   C4B22305  15.064  15.337  12.525 -0.1250  0.1125  0.1242
 1902DOPS   CNO22306  14.342  10.499  11.615 -0.0452 -0.2123 -0.1032
 1902DOPS   PO422307  14.334  10.204  11.869 -0.1800 -0.0897  0.0968
 1902DOPS   GL122308  14.166  10.357  12.209  0.2774 -0.0529  0.3533
 1902DOPS   GL222309  14.385  10.499  12.229  0.0502  0.3740  0.0225
 1902DOPS   C1A22310  13.884  10.108  12.496 -0.1673  0.1356 -0.3582
 1902DOPS   D2A22311  14.003   9.882  12.865 -0.1554 -0.0448  0.2511
 1902DOPS   C3A22312  13.749   9.580  13.177 -0.4306  0.5896 -0.2115
 1902DOPS   C4A22313  13.473   9.502  13.547 -0.1121  0.0471  0.0012
 1902DOPS   C1B22314  14.261  10.745  12.523  0.0507 -0.0452 -0.1075
 1902DOPS   D2B22315  14.223  10.832  12.966 -0.0481  0.3818  0.0728
 1902DOPS   C3B22316  14.139  10.422  13.103  0.0325  0.2123 -0.0493
 1902DOPS   C4B22317  14.115  10.012  13.318  0.0110  0.2193  0.4209
 1903DOPE   NH322318  13.220  17.590  11.673  0.2295 -0.1186 -0.1811
 1903DOPE   PO422319  13.040  17.591  11.396 -0.0101  0.0015  0.1559
 1903DOPE   GL122320  12.775  17.528  11.646  0.0649 -0.1684  0.1065
 1903DOPE   GL222321  12.748  17.670  11.900 -0.1264 -0.0201 -0.0448
 1903DOPE   C1A22322  12.332  17.371  11.707 -0.2954 -0.0035  0.3729
 1903DOPE   D2A22323  11.917  17.178  11.878 -0.0859  0.1839 -0.1157
 1903DOPE   C3A22324  12.036  16.769  12.057  0.1962 -0.1163  0.2813
 1903DOPE   C4A22325  12.319  16.717  12.453  0.2442 -0.1899 -0.0500
 1903DOPE   C1B22326  12.535  17.810  12.318 -0.0316 -0.2032  0.4323
 1903DOPE   D2B22327  12.494  18.003  12.744 -0.0155 -0.1669  0.2510
 1903DOPE   C3B22328  12.586  18.430  12.905 -0.1585  0.0737 -0.0614
 1903DOPE   C4B22329  12.568  18.717  13.298 -0.1191  0.2749 -0.1376
 1904POSM   NC322330   9.921  14.079  11.615  0.0640  0.0693  0.2647
 1904POSM   PO422331  10.045  13.859  11.868 -0.0789 -0.0860  0.1758
 1904POSM   AM122332  10.353  13.928  11.754  0.0967 -0.2247  0.1470
 1904POSM   AM222333  10.426  13.885  11.486 -0.0539  0.0392 -0.4766
 1904POSM   T1A22334  10.837  14.035  11.697 -0.1968  0.1918 -0.3594
 1904POSM   C2A22335  11.150  13.930  11.291 -0.0394  0.1100 -0.3244
 1904POSM   C3A22336  11.399  13.522  11.204 -0.0902 -0.1961  0.1539
 1904POSM   C1B22337  10.697  13.620  11.497 -0.0239 -0.1907 -0.1064
 1904POSM   D2B22338  11.045  13.594  11.796  0.0900  0.0431  0.1954
 1904POSM   C3B22339  11.491  13.679  11.779 -0.0267 -0.3092  0.0396
 1904POSM   C4B22340  11.732  13.879  12.116  0.1443  0.0575  0.0286
 1905DOPC   NC322341  17.145  15.546  11.857 -0.0839 -0.1246  0.1035
 1905DOPC   PO422342  17.294  15.591  11.478 -0.0461 -0.0777 -0.0223
 1905DOPC   GL122343  17.427  16.019  11.511 -0.3204 -0.0750  0.0831
 1905DOPC   GL222344  17.741  16.178  11.547  0.3349  0.0907  0.4139
 1905DOPC   C1A22345  17.297  16.105  11.971  0.4160  0.1232  0.0082
 1905DOPC   D2A22346  17.155  16.200  12.382  0.2870  0.0458  0.0938
 1905DOPC   C3A22347  17.447  16.004  12.539 -0.0418  0.4662 -0.0835
 1905DOPC   C4A22348  17.566  15.687  12.770  0.0956  0.0959  0.0392
 1905DOPC   C1B22349  17.382  16.473  11.542 -0.2182  0.0434  0.0066
 1905DOPC   D2B22350  17.178  16.907  11.565 -0.0627  0.2129 -0.2462
 1905DOPC   C3B22351  17.397  17.142  11.904 -0.0709 -0.3473 -0.0101
 1905DOPC   C4B22352  17.687  17.408  12.140  0.0805  0.1209 -0.1488
 1906DOPS   CNO22353  13.829  11.515  11.930 -0.1496 -0.0693  0.1005
 1906DOPS   PO422354  14.159  11.390  12.060 -0.3114  0.1518  0.1604
 1906DOPS   GL122355  13.916  11.473  12.379 -0.0766  0.0444  0.0043
 1906DOPS   GL222356  14.031  11.286  12.617  0.0884 -0.0272 -0.4214
 1906DOPS   C1A22357  13.823  11.833  12.664 -0.3124  0.0281  0.1198
 1906DOPS   D2A22358  13.575  11.954  13.029  0.0515  0.2959  0.1582
 1906DOPS   C3A22359  13.694  11.786  13.456  0.2286  0.4907 -0.1694
 1906DOPS   C4A22360  13.930  11.711  13.870  0.1411 -0.0984 -0.0868
 1906DOPS   C1B22361  14.330  11.616  12.742 -0.0203  0.1340 -0.1778
 1906DOPS   D2B22362  14.605  11.673  13.141 -0.0480  0.2861  0.1230
 1906DOPS   C3B22363  14.991  11.461  13.325  0.1398 -0.0530 -0.3795
 1906DOPS   C4B22364  15.283  11.725  13.581 -0.3238 -0.3015 -0.0178
 1907DOPC   NC322365  12.353  15.978  11.476 -0.0174  0.0645 -0.1961
 1907DOPC   PO422366  12.754  15.998  11.472  0.1587 -0.0437  0.2265
 1907DOPC   GL122367  12.818  16.238  11.849 -0.4628 -0.0859  0.1870
 1907DOPC   GL222368  13.017  16.154  11.922 -0.2249 -0.0931  0.1685
 1907DOPC   C1A22369  12.742  16.445  12.268 -0.0458 -0.0255 -0.1360
 1907DOPC   D2A22370  12.916  16.404  12.679 -0.1414  0.0480 -0.0435
 1907DOPC   C3A22371  12.584  16.666  12.876  0.1025  0.3162 -0.1346
 1907DOPC   C4A22372  12.271  17.009  13.007  0.0266  0.1546 -0.1871
 1907DOPC   C1B22373  13.086  15.887  12.269 -0.1317 -0.1828  0.0602
 1907DOPC   D2B22374  13.249  15.480  12.595 -0.1219  0.1665  0.1464
 1907DOPC   C3B22375  13.591  15.210  12.466  0.0019 -0.2331  0.2548
 1907DOPC   C4B22376  13.805  14.872  12.578 -0.1316  0.0294 -0.0328
 1908DOPC   NC322377  16.332  14.926  12.164  0.1939  0.0117  0.0021
 1908DOPC   PO422378  16.461  14.658  11.875 -0.2339 -0.0403 -0.0218
 1908DOPC   GL122379  16.082  14.701  11.734  0.1619  0.1300 -0.0944
 1908DOPC   GL222380  16.099  14.938  11.621  0.3251  0.0644  0.2530
 1908DOPC   C1A22381  15.886  14.691  12.143  0.1442  0.1469  0.0563
 1908DOPC   D2A22382  15.694  14.359  12.438 -0.1236  0.3232 -0.1119
 1908DOPC   C3A22383  15.565  14.231  12.840  0.2328  0.0805  0.0826
 1908DOPC   C4A22384  15.288  13.833  12.957  0.1268 -0.3835  0.0615
 1908DOPC   C1B22385  15.641  14.868  11.544  0.0349 -0.0178  0.2065
 1908DOPC   D2B22386  15.283  14.621  11.460 -0.2963 -0.0754 -0.0371
 1908DOPC   C3B22387  14.942  14.694  11.825  0.0381  0.1104  0.0345
 1908DOPC   C4B22388  14.822  14.755  12.267  0.0266  0.5740  0.1486
 1909DOPE   NH322389  17.876  14.548  11.451  0.0191 -0.3212  0.0609
 1909DOPE   PO422390  18.032  14.288  11.364  0.0269 -0.0229 -0.5414
 1909DOPE   GL122391  18.229  13.911  11.466 -0.4021  0.2107  0.1206
 1909DOPE   GL222392  17.967  13.758  11.342  0.1027 -0.0236 -0.2623
 1909DOPE   C1A22393  18.410  13.797  11.898 -0.1420 -0.1924 -0.0853
 1909DOPE   D2A22394  18.288  14.117  12.187 -0.1328  0.0097 -0.0609
 1909DOPE   C3A22395  18.294  14.127  12.679  0.1658  0.2310  0.0278
 1909DOPE   C4A22396  18.445  14.099  13.103 -0.2752 -0.0028  0.0533
 1909DOPE   C1B22397  18.045  13.557  11.720 -0.1043  0.3274 -0.0684
 1909DOPE   D2B22398  18.099  13.320  12.120  0.1577  0.3430  0.1437
 1909DOPE   C3B22399  18.147  13.660  12.394  0.0878  0.2686  0.0440
 1909DOPE   C4B22400  18.062  13.632  12.864  0.1360 -0.1071  0.0223
 1910DOPC   NC322401  12.801  14.717  11.266  0.3066 -0.1966 -0.0985
 1910DOPC   PO422402  12.646  14.982  11.536  0.0864 -0.1085  0.0402
 1910DOPC   GL122403  12.807  14.689  11.743 -0.2259  0.0382  0.0939
 1910DOPC   GL222404  13.134  14.619  11.639  0.3149 -0.1203 -0.0349
 1910DOPC   C1A22405  12.824  14.233  11.592 -0.0452  0.2372  0.3248
 1910DOPC   D2A22406  12.858  13.759  11.539  0.1123  0.1370 -0.1019
 1910DOPC   C3A22407  12.560  13.384  11.475  0.0982 -0.0055 -0.3046
 1910DOPC   C4A22408  12.271  13.119  11.678  0.1065  0.1091 -0.2084
 1910DOPC   C1B22409  13.096  14.439  12.022  0.3300 -0.0997  0.1818
 1910DOPC   D2B22410  12.958  14.352  12.481  0.0436  0.0544 -0.2061
 1910DOPC   C3B22411  12.818  14.042  12.748 -0.2977 -0.4690  0.0308
 1910DOPC   C4B22412  12.844  13.681  12.993  0.2956 -0.0340 -0.0231
 1911DOPC   NC322413  19.014  22.751  11.834  0.2278  0.1326  0.1106
 1911DOPC   PO422414  19.354  22.945  11.666 -0.1542  0.0144 -0.0546
 1911DOPC   GL122415  19.324  23.148  11.991 -0.0456 -0.1662 -0.0002
 1911DOPC   GL222416  19.101  23.385  11.918  0.1401  0.1281  0.2587
 1911DOPC   C1A22417  19.145  23.365  12.395  0.0884 -0.0738 -0.0318
 1911DOPC   D2A22418  19.181  23.351  12.838  0.1448  0.0375 -0.1517
 1911DOPC   C3A22419  19.116  23.212  13.221 -0.1178  0.0845  0.0187
 1911DOPC   C4A22420  19.421  22.978  13.569 -0.3413  0.1708 -0.0813
 1911DOPC   C1B22421  19.545  23.544  11.961  0.2095  0.0038 -0.2575
 1911DOPC   D2B22422  19.866  23.830  12.165 -0.3999  0.0430  0.0550
 1911DOPC   C3B22423  19.817  24.079  12.524  0.2381 -0.3274 -0.4928
 1911DOPC   C4B22424  19.792  23.842  12.949  0.2344 -0.2167 -0.2591
 1912POSM   NC322425  16.910  22.676  11.512 -0.1757 -0.0866  0.0508
 1912POSM   PO422426  16.798  22.908  11.818 -0.0980  0.0176  0.0363
 1912POSM   AM122427  16.820  22.800  12.140 -0.1822 -0.1062  0.0301
 1912POSM   AM222428  16.829  22.964  12.353 -0.0263  0.0158  0.1296
 1912POSM   T1A22429  16.608  22.397  12.365 -0.0735 -0.1362  0.2628
 1912POSM   C2A22430  16.639  21.989  12.432 -0.4024  0.2312 -0.0416
 1912POSM   C3A22431  16.810  21.756  12.792  0.3136 -0.0705  0.3066
 1912POSM   C1B22432  16.814  22.782  12.617 -0.0176 -0.2023  0.2321
 1912POSM   D2B22433  16.684  22.375  12.867  0.1158  0.0057  0.4748
 1912POSM   C3B22434  16.242  22.302  12.675 -0.4370 -0.0142  0.2719
 1912POSM   C4B22435  15.897  22.544  12.564 -0.0717 -0.2015 -0.2097
 1913DOPE   NH322436  16.971  15.135  11.430  0.0812 -0.0286  0.2804
 1913DOPE   PO422437  16.786  15.418  11.435 -0.0397  0.0024 -0.0317
 1913DOPE   GL122438  16.818  15.775  11.608  0.0064 -0.2990  0.1636
 1913DOPE   GL222439  16.507  15.703  11.743  0.0067  0.3143 -0.1053
 1913DOPE   C1A22440  16.752  16.220  11.433  0.1071 -0.2384 -0.2504
 1913DOPE   D2A22441  16.452  16.496  11.547  0.4845  0.0237  0.1636
 1913DOPE   C3A22442  16.223  16.258  11.822 -0.1758  0.1045 -0.1685
 1913DOPE   C4A22443  16.187  16.275  12.327  0.3985  0.0380 -0.0699
 1913DOPE   C1B22444  16.357  15.746  12.222 -0.2292 -0.3797  0.0849
 1913DOPE   D2B22445  16.631  16.016  12.555  0.4407  0.2253  0.0730
 1913DOPE   C3B22446  16.656  16.432  12.364 -0.4029  0.3280 -0.1199
 1913DOPE   C4B22447  16.598  16.757  12.041 -0.0667 -0.1363 -0.0170
 1914DOPS   CNO22448  16.979  14.611  11.037  0.0202  0.0155  0.1321
 1914DOPS   PO422449  16.727  14.854  11.121  0.0325  0.2346 -0.1022
 1914DOPS   GL122450  16.472  15.087  11.404 -0.3270 -0.3677  0.1111
 1914DOPS   GL222451  16.512  15.130  11.686  0.0375  0.0632 -0.0276
 1914DOPS   C1A22452  16.024  15.316  11.308 -0.0395 -0.0291 -0.0959
 1914DOPS   D2A22453  15.588  15.356  11.357  0.2285 -0.2579  0.0891
 1914DOPS   C3A22454  15.463  15.651  11.742  0.0811 -0.0772  0.0938
 1914DOPS   C4A22455  15.328  15.566  12.180 -0.0723  0.1644  0.0055
 1914DOPS   C1B22456  16.158  15.415  11.848 -0.1295  0.3229  0.4135
 1914DOPS   D2B22457  15.845  15.578  12.088 -0.0708  0.0034 -0.0218
 1914DOPS   C3B22458  15.813  16.014  12.128 -0.1237 -0.0011 -0.1848
 1914DOPS   C4B22459  15.648  16.427  12.106  0.1637 -0.0575  0.0906
 1915DOPC   NC322460  15.732  22.911  12.128 -0.0166 -0.2400 -0.2376
 1915DOPC   PO422461  15.398  23.103  12.033  0.1011  0.0869  0.2483
 1915DOPC   GL122462  15.502  23.250  12.339 -0.0952  0.2778 -0.2229
 1915DOPC   GL222463  15.321  23.013  12.526 -0.0772  0.0295 -0.2063
 1915DOPC   C1A22464  15.847  23.065  12.628  0.0215  0.0739  0.1336
 1915DOPC   D2A22465  16.107  23.272  12.928  0.0546 -0.0555  0.0708
 1915DOPC   C3A22466  16.291  23.626  13.185  0.1177  0.0735 -0.0739
 1915DOPC   C4A22467  16.488  24.015  13.411  0.0852  0.1372 -0.1053
 1915DOPC   C1B22468  15.088  23.014  12.831 -0.2171 -0.1963 -0.2191
 1915DOPC   D2B22469  15.182  23.080  13.288  0.1307 -0.0815  0.1983
 1915DOPC   C3B22470  15.503  22.760  13.458 -0.2408  0.0817  0.2111
 1915DOPC   C4B22471  15.712  22.426  13.341  0.1552  0.0823 -0.0001
 1916DOPE   NH322472  12.239  15.234  11.676  0.1651 -0.2070 -0.2916
 1916DOPE   PO422473  11.914  15.254  11.621 -0.1042  0.2060  0.1602
 1916DOPE   GL122474  11.911  14.934  11.918  0.2126  0.0383 -0.3879
 1916DOPE   GL222475  12.145  14.856  12.064 -0.0887  0.1464 -0.1126
 1916DOPE   C1A22476  11.580  15.190  12.192  0.0742 -0.2273  0.0639
 1916DOPE   D2A22477  11.475  15.316  12.638 -0.1254 -0.1011 -0.2785
 1916DOPE   C3A22478  11.388  15.752  12.808 -0.2763  0.2795  0.0465
 1916DOPE   C4A22479  11.289  16.197  12.634  0.6675 -0.2503 -0.0929
 1916DOPE   C1B22480  12.066  14.726  12.432  0.3853 -0.0314  0.0237
 1916DOPE   D2B22481  11.996  14.619  12.904 -0.1182  0.2871 -0.0680
 1916DOPE   C3B22482  11.588  14.776  13.022  0.0641  0.1442  0.3074
 1916DOPE   C4B22483  11.177  14.648  12.877  0.1799  0.0849 -0.1748
 1917DOPE   NH322484  17.589  18.411  11.806 -0.3201 -0.2754  0.2028
 1917DOPE   PO422485  17.434  18.334  11.528  0.0575 -0.0943  0.2516
 1917DOPE   GL122486  17.286  17.996  11.883  0.0244  0.1746  0.0138
 1917DOPE   GL222487  17.454  17.823  12.151  0.3417  0.1727  0.1462
 1917DOPE   C1A22488  17.188  17.566  11.835  0.0919 -0.0429 -0.2295
 1917DOPE   D2A22489  16.907  17.162  11.968  0.1131 -0.2714 -0.0592
 1917DOPE   C3A22490  16.935  16.903  12.340  0.0014  0.1054  0.0146
 1917DOPE   C4A22491  16.746  16.898  12.758 -0.1016  0.0470 -0.1628
 1917DOPE   C1B22492  17.030  17.879  12.395  0.1456 -0.0277  0.2352
 1917DOPE   D2B22493  16.625  17.969  12.558 -0.0325  0.0863  0.3058
 1917DOPE   C3B22494  16.576  18.210  12.958 -0.0489 -0.3541 -0.0114
 1917DOPE   C4B22495  16.225  18.448  13.146  0.1093 -0.2264 -0.5276
 1918POSM   NC322496  21.268  18.768  11.778  0.0784  0.1351  0.0541
 1918POSM   PO422497  20.962  18.886  11.583  0.0733  0.2277  0.0633
 1918POSM   AM122498  20.979  19.081  11.839 -0.2003  0.0256 -0.1698
 1918POSM   AM222499  20.912  19.349  11.945 -0.3187 -0.1326  0.0974
 1918POSM   T1A22500  21.170  19.078  12.287  0.2112 -0.3300  0.1773
 1918POSM   C2A22501  21.242  18.779  12.623 -0.2711  0.2154  0.1931
 1918POSM   C3A22502  21.056  18.512  12.965 -0.1823 -0.0377  0.0148
 1918POSM   C1B22503  20.861  19.515  12.247 -0.3020 -0.4944 -0.3274
 1918POSM   D2B22504  20.638  19.784  12.605  0.1638  0.0518  0.2271
 1918POSM   C3B22505  20.747  20.185  12.511  0.1698 -0.0127 -0.1148
 1918POSM   C4B22506  20.904  20.580  12.668 -0.0345  0.3682  0.0843
 1919POSM   NC322507  21.586  22.691  12.099  0.0216 -0.0117  0.0628
 1919POSM   PO422508  21.222  22.789  12.023  0.1804  0.0193  0.1747
 1919POSM   AM122509  21.037  22.629  12.185  0.4259 -0.1976 -0.0984
 1919POSM   AM222510  21.176  22.480  12.397 -0.3702  0.1391 -0.2370
 1919POSM   T1A22511  20.639  22.495  12.480 -0.0719  0.1101  0.0940
 1919POSM   C2A22512  20.347  22.783  12.601  0.0918 -0.1614  0.0642
 1919POSM   C3A22513  20.360  23.223  12.468  0.1024 -0.1294  0.5119
 1919POSM   C1B22514  21.333  22.685  12.655 -0.0050  0.2774  0.0600
 1919POSM   D2B22515  21.451  22.661  13.078  0.3253 -0.1799  0.3083
 1919POSM   C3B22516  21.181  22.417  13.333  0.3284 -0.2457 -0.1619
 1919POSM   C4B22517  20.879  22.094  13.503 -0.0041 -0.2354 -0.0344
 1920DOPC   NC322518  10.738  15.955  11.175  0.1998  0.0546 -0.1186
 1920DOPC   PO422519  10.756  15.586  10.981  0.1610  0.0597 -0.3716
 1920DOPC   GL122520  10.933  15.599  11.425 -0.0687 -0.2706  0.1617
 1920DOPC   GL222521  11.220  15.684  11.282 -0.0770  0.1312  0.1890
 1920DOPC   C1A22522  11.213  15.715  11.819  0.4824  0.3712  0.1264
 1920DOPC   D2A22523  11.622  15.559  11.915 -0.1187 -0.0177  0.0736
 1920DOPC   C3A22524  11.809  15.687  12.307 -0.2187  0.3393  0.0239
 1920DOPC   C4A22525  11.795  16.083  12.528  0.0784  0.0750 -0.0994
 1920DOPC   C1B22526  11.618  15.984  11.250  0.0401  0.0478 -0.0716
 1920DOPC   D2B22527  11.910  16.015  11.686 -0.1562  0.1765 -0.3599
 1920DOPC   C3B22528  11.812  16.282  12.031  0.1881  0.0049  0.2435
 1920DOPC   C4B22529  11.670  16.554  12.379  0.0539 -0.2903  0.0743
 1921DOPC   NC322530  16.872  22.416  11.911 -0.0146  0.0045  0.1757
 1921DOPC   PO422531  16.669  22.192  11.653  0.2825  0.2527  0.1419
 1921DOPC   GL122532  16.313  22.097  11.781  0.0262  0.2803 -0.3731
 1921DOPC   GL222533  16.308  22.084  12.082 -0.0675 -0.0126 -0.1661
 1921DOPC   C1A22534  15.967  21.757  11.903  0.1454 -0.2725  0.0356
 1921DOPC   D2A22535  15.656  21.565  12.230  0.1575 -0.1875  0.0697
 1921DOPC   C3A22536  15.679  21.668  12.743 -0.2156  0.2432  0.2829
 1921DOPC   C4A22537  15.394  21.758  13.085  0.1924 -0.1756 -0.0327
 1921DOPC   C1B22538  15.877  22.067  12.281 -0.2606  0.1079  0.0058
 1921DOPC   D2B22539  15.403  21.984  12.452 -0.0821  0.0363  0.0733
 1921DOPC   C3B22540  15.099  22.057  12.793  0.2588 -0.0963 -0.0984
 1921DOPC   C4B22541  14.807  22.051  13.180 -0.0658  0.0671 -0.1018
 1922DOPC   NC322542  18.522  19.095  11.522  0.0713 -0.3168  0.6640
 1922DOPC   PO422543  18.577  18.703  11.530 -0.2440 -0.0403 -0.0515
 1922DOPC   GL122544  18.651  18.731  11.986  0.2827  0.0319  0.4226
 1922DOPC   GL222545  18.898  18.880  11.905 -0.1410 -0.0713  0.0612
 1922DOPC   C1A22546  18.765  18.861  12.367 -0.1696 -0.2314  0.1239
 1922DOPC   D2A22547  18.715  18.885  12.849 -0.0315 -0.0955 -0.1522
 1922DOPC   C3A22548  19.008  18.943  13.221 -0.3130 -0.0130 -0.0196
 1922DOPC   C4A22549  19.294  19.120  13.600  0.2438  0.1788  0.5259
 1922DOPC   C1B22550  18.677  19.272  11.989 -0.1056  0.1345  0.0765
 1922DOPC   D2B22551  18.514  19.617  12.232  0.0506  0.1328  0.3589
 1922DOPC   C3B22552  18.647  19.657  12.645  0.0963  0.0468 -0.1818
 1922DOPC   C4B22553  18.579  19.818  13.006 -0.1671  0.0953  0.0639
 1923POSM   NC322554  13.885  15.503  10.936  0.3146 -0.1142  0.3967
 1923POSM   PO422555  14.124  15.175  11.017 -0.2593  0.3858 -0.0799
 1923POSM   AM122556  14.094  14.911  11.173 -0.2050 -0.1782  0.0655
 1923POSM   AM222557  13.966  14.663  11.123 -0.0603 -0.1700 -0.1740
 1923POSM   T1A22558  14.408  14.530  11.333  0.1682  0.3172  0.0649
 1923POSM   C2A22559  14.463  14.045  11.317 -0.0077  0.0422 -0.0347
 1923POSM   C3A22560  14.467  13.621  11.168 -0.0969 -0.4606 -0.0190
 1923POSM   C1B22561  13.910  14.367  11.247 -0.1634  0.0562 -0.0360
 1923POSM   D2B22562  13.980  14.148  11.694  0.1764  0.2606  0.1343
 1923POSM   C3B22563  14.180  13.736  11.647 -0.3328  0.1000 -0.0890
 1923POSM   C4B22564  13.943  13.315  11.390 -0.4983 -0.2433 -0.1821
 1924DOPC   NC322565  12.426  22.524  11.850  0.2335  0.0611 -0.2532
 1924DOPC   PO422566  12.722  22.693  11.650 -0.0320  0.3599 -0.0587
 1924DOPC   GL122567  12.818  22.329  11.928  0.1020  0.0844  0.2566
 1924DOPC   GL222568  13.097  22.361  11.834  0.1819  0.0192  0.2589
 1924DOPC   C1A22569  13.120  21.956  12.135  0.0347  0.2005  0.1551
 1924DOPC   D2A22570  13.244  21.535  12.419  0.1003 -0.1044 -0.1163
 1924DOPC   C3A22571  13.296  21.658  12.869 -0.2644  0.1682 -0.0749
 1924DOPC   C4A22572  13.677  21.567  13.153  0.0590 -0.0395  0.1190
 1924DOPC   C1B22573  13.218  22.457  12.288 -0.3453  0.0675  0.1739
 1924DOPC   D2B22574  13.209  22.150  12.588 -0.0095 -0.1294 -0.0866
 1924DOPC   C3B22575  13.319  22.253  13.001  0.1604  0.1957 -0.3310
 1924DOPC   C4B22576  13.205  22.700  13.221 -0.0875  0.1373 -0.0756
 1925POSM   NC322577  22.592  15.132  12.079 -0.0409 -0.0547  0.1119
 1925POSM   PO422578  22.716  15.355  11.793 -0.3281 -0.1433 -0.1846
 1925POSM   AM122579  22.655  15.568  12.046 -0.0190  0.0139  0.1786
 1925POSM   AM222580  22.543  15.850  12.028  0.0276 -0.0419  0.1463
 1925POSM   T1A22581  22.614  15.497  12.504  0.1281 -0.2718 -0.2477
 1925POSM   C2A22582  22.886  15.333  12.851 -0.0353 -0.1383 -0.1262
 1925POSM   C3A22583  23.082  15.359  13.292 -0.2015 -0.1545 -0.1328
 1925POSM   C1B22584  22.611  16.022  12.298  0.0086 -0.2699  0.1435
 1925POSM   D2B22585  22.708  16.142  12.736 -0.2008  0.1865  0.1608
 1925POSM   C3B22586  22.301  16.003  12.918 -0.0722  0.2471  0.0518
 1925POSM   C4B22587  21.929  16.237  13.011 -0.0236 -0.4177 -0.0309
 1926DOPS   CNO22588  19.318  12.613  11.482  0.0452 -0.0740  0.0742
 1926DOPS   PO422589  19.571  12.668  11.732 -0.0149 -0.0810  0.1834
 1926DOPS   GL122590  19.671  12.836  12.073  0.1510 -0.1164  0.0490
 1926DOPS   GL222591  19.979  12.782  11.954  0.3556  0.1569  0.4141
 1926DOPS   C1A22592  19.858  13.106  12.402  0.1156 -0.2682  0.0350
 1926DOPS   D2A22593  20.262  13.279  12.318  0.0477 -0.1580 -0.2351
 1926DOPS   C3A22594  20.469  13.666  12.501 -0.0409 -0.2013 -0.1001
 1926DOPS   C4A22595  20.675  14.021  12.647  0.0897  0.0487 -0.0632
 1926DOPS   C1B22596  20.225  12.770  12.345  0.2706 -0.3129  0.2358
 1926DOPS   D2B22597  20.146  12.929  12.754 -0.1977  0.1018 -0.1986
 1926DOPS   C3B22598  20.064  13.365  12.785  0.1260 -0.2717  0.1037
 1926DOPS   C4B22599  20.225  13.805  12.891 -0.1083  0.1846  0.0751
 1927DOPC   NC322600  14.771  17.030  11.450  0.0317 -0.2834 -0.0150
 1927DOPC   PO422601  14.887  17.179  11.135 -0.1897  0.1659 -0.2302
 1927DOPC   GL122602  15.207  16.995  11.389 -0.0560  0.2550  0.0814
 1927DOPC   GL222603  15.358  17.169  11.384  0.0718 -0.1453  0.0281
 1927DOPC   C1A22604  15.528  16.759  11.611  0.0828 -0.0700  0.2312
 1927DOPC   D2A22605  15.791  16.421  11.636  0.3822  0.0883 -0.0900
 1927DOPC   C3A22606  15.459  16.114  11.588 -0.3041 -0.3123 -0.0862
 1927DOPC   C4A22607  15.145  15.989  11.261  0.0505 -0.1853  0.1281
 1927DOPC   C1B22608  15.831  17.100  11.508 -0.0882 -0.3608  0.3724
 1927DOPC   D2B22609  16.295  17.147  11.677  0.0965  0.0814  0.4100
 1927DOPC   C3B22610  16.370  17.162  12.123  0.0390  0.1537 -0.2713
 1927DOPC   C4B22611  16.217  17.096  12.556 -0.3605  0.1531  0.0419
 1928DOPS   CNO22612  11.402  22.723  11.942  0.0108 -0.0101 -0.2749
 1928DOPS   PO422613  11.454  22.486  12.209  0.2391  0.1037 -0.1171
 1928DOPS   GL122614  11.735  22.286  12.452  0.3040  0.3204  0.0467
 1928DOPS   GL222615  11.822  22.422  12.668  0.2548  0.1108 -0.1016
 1928DOPS   C1A22616  11.874  21.867  12.685 -0.0559 -0.2562 -0.1952
 1928DOPS   D2A22617  11.801  21.521  12.920  0.2680  0.0038  0.2085
 1928DOPS   C3A22618  11.706  21.624  13.356  0.0716 -0.0036 -0.2390
 1928DOPS   C4A22619  11.829  21.662  13.778 -0.2171  0.0130  0.0250
 1928DOPS   C1B22620  11.850  22.197  13.074  0.0637 -0.3475  0.1783
 1928DOPS   D2B22621  12.009  21.970  13.432  0.3123  0.0900 -0.0399
 1928DOPS   C3B22622  12.160  21.485  13.321 -0.3219  0.0806 -0.1202
 1928DOPS   C4B22623  12.053  21.079  13.144 -0.0952 -0.0269  0.2755
 1929DOPE   NH322624  15.506  19.597  11.712  0.0621 -0.3465 -0.1281
 1929DOPE   PO422625  15.562  19.887  11.572  0.0566 -0.0672  0.0526
 1929DOPE   GL122626  15.612  20.187  11.829  0.1989 -0.2173  0.1240
 1929DOPE   GL222627  15.779  20.053  12.032 -0.0046 -0.1181 -0.1025
 1929DOPE   C1A22628  15.961  20.504  11.789 -0.1193  0.0023  0.3022
 1929DOPE   D2A22629  16.083  20.978  11.942 -0.1062  0.3781  0.0320
 1929DOPE   C3A22630  15.929  21.078  12.363 -0.0115 -0.1720  0.0676
 1929DOPE   C4A22631  15.696  20.903  12.652  0.0261  0.0248  0.0191
 1929DOPE   C1B22632  16.243  20.045  11.920 -0.3141 -0.1460 -0.1030
 1929DOPE   D2B22633  16.677  20.239  11.904  0.2649  0.0308 -0.0066
 1929DOPE   C3B22634  16.754  20.379  12.344 -0.2594  0.0940 -0.0986
 1929DOPE   C4B22635  16.772  20.552  12.730  0.2770  0.0185 -0.2229
 1930DOPE   NH322636  22.616  13.309  11.521 -0.2212  0.2116  0.0575
 1930DOPE   PO422637  22.774  13.427  11.791 -0.1456  0.1889  0.0605
 1930DOPE   GL122638  22.842  13.361  12.234 -0.3891  0.1196  0.0260
 1930DOPE   GL222639  22.578  13.372  12.304 -0.3669  0.1206  0.0728
 1930DOPE   C1A22640  22.947  13.482  12.690  0.0537 -0.0428 -0.1999
 1930DOPE   D2A22641  23.047  13.828  13.014  0.2282  0.0875 -0.1931
 1930DOPE   C3A22642  22.607  13.847  13.176  0.1268 -0.1100  0.0433
 1930DOPE   C4A22643  22.353  14.190  13.101 -0.0176  0.3584  0.3077
 1930DOPE   C1B22644  22.469  13.319  12.787  0.1249 -0.1320 -0.1237
 1930DOPE   D2B22645  22.586  13.269  13.199 -0.0004  0.1949 -0.1471
 1930DOPE   C3B22646  22.990  13.313  13.335 -0.2546  0.3449  0.0941
 1930DOPE   C4B22647  23.287  13.253  13.035  0.2569  0.0997 -0.0321
 1931DOPE   NH322648  17.428  14.980  11.209 -0.0374 -0.3509 -0.4041
 1931DOPE   PO422649  17.739  14.995  11.334 -0.1091 -0.3031 -0.2095
 1931DOPE   GL122650  17.803  15.515  11.444 -0.3565 -0.1020  0.1629
 1931DOPE   GL222651  17.891  15.383  11.729 -0.0953 -0.2657 -0.1927
 1931DOPE   C1A22652  18.107  15.847  11.596 -0.2727 -0.0763  0.2369
 1931DOPE   D2A22653  18.243  16.235  11.801 -0.2808  0.3043  0.2358
 1931DOPE   C3A22654  18.187  16.418  12.210  0.5493  0.0560 -0.0232
 1931DOPE   C4A22655  18.076  16.663  12.624  0.2398 -0.1456  0.1772
 1931DOPE   C1B22656  18.165  15.537  12.016 -0.1079  0.0252 -0.2606
 1931DOPE   D2B22657  18.539  15.630  12.385  0.1977 -0.0336  0.2564
 1931DOPE   C3B22658  18.803  15.985  12.526  0.2120  0.3995  0.1594
 1931DOPE   C4B22659  18.493  16.366  12.607  0.1111 -0.0735  0.0309
 1932DOPC   NC322660  17.852  11.728  11.351 -0.1224  0.1480 -0.0862
 1932DOPC   PO422661  18.044  12.034  11.335 -0.3858  0.3822  0.0644
 1932DOPC   GL122662  17.657  12.173  11.417  0.3025 -0.2395  0.0893
 1932DOPC   GL222663  17.409  11.988  11.458  0.1703  0.0073  0.1541
 1932DOPC   C1A22664  17.514  12.604  11.432  0.1303 -0.1692 -0.2132
 1932DOPC   D2A22665  17.333  12.974  11.693 -0.3936 -0.0507 -0.0750
 1932DOPC   C3A22666  17.102  13.066  12.095 -0.0303 -0.1860  0.1538
 1932DOPC   C4A22667  17.008  12.815  12.432  0.2059  0.0808 -0.0732
 1932DOPC   C1B22668  17.237  12.355  11.718 -0.0752  0.1705 -0.1714
 1932DOPC   D2B22669  16.898  12.676  11.708 -0.2196  0.0962 -0.0213
 1932DOPC   C3B22670  16.612  12.749  12.093  0.3076  0.0843  0.0540
 1932DOPC   C4B22671  16.542  12.725  12.551 -0.2887 -0.2647 -0.0868
 1933DOPS   CNO22672  21.970  18.289  11.642 -0.1733 -0.2313  0.0499
 1933DOPS   PO422673  22.217  18.531  11.800 -0.2351 -0.0023 -0.0058
 1933DOPS   GL122674  22.185  18.560  12.254 -0.1046 -0.0204 -0.0833
 1933DOPS   GL222675  22.275  18.858  12.149 -0.1428 -0.0253  0.0788
 1933DOPS   C1A22676  22.077  18.385  12.702  0.1118  0.1472 -0.0367
 1933DOPS   D2A22677  21.983  18.226  13.099  0.1030 -0.0360 -0.1661
 1933DOPS   C3A22678  21.984  18.042  13.592  0.3582  0.1906 -0.4058
 1933DOPS   C4A22679  21.739  17.925  14.012  0.0799  0.0323  0.0273
 1933DOPS   C1B22680  22.468  18.736  12.518 -0.1024 -0.2172 -0.1828
 1933DOPS   D2B22681  22.466  18.656  12.937 -0.2228 -0.1568  0.0905
 1933DOPS   C3B22682  22.170  18.660  13.239  0.3627  0.1626 -0.2946
 1933DOPS   C4B22683  22.196  18.491  13.693  0.1055  0.0763  0.1833
 1934DOPS   CNO22684  19.696  22.077  11.301 -0.1943  0.1119  0.0582
 1934DOPS   PO422685  19.914  22.187  11.614 -0.0720 -0.0506 -0.3099
 1934DOPS   GL122686  19.681  22.090  11.969  0.1660 -0.2158  0.0449
 1934DOPS   GL222687  19.608  21.802  11.980 -0.1498  0.1442 -0.0163
 1934DOPS   C1A22688  19.742  22.302  12.366 -0.5655  0.0277 -0.0547
 1934DOPS   D2A22689  20.054  22.372  12.713 -0.2567  0.0030 -0.1084
 1934DOPS   C3A22690  20.180  21.952  12.842 -0.0490 -0.0935 -0.2029
 1934DOPS   C4A22691  20.353  21.796  13.300 -0.0348  0.0429  0.1527
 1934DOPS   C1B22692  19.216  21.721  12.129  0.0788 -0.1131 -0.0989
 1934DOPS   D2B22693  18.762  21.819  12.059  0.1340 -0.0944 -0.1325
 1934DOPS   C3B22694  18.391  21.532  12.147 -0.2115  0.0234  0.2388
 1934DOPS   C4B22695  18.014  21.851  12.344  0.2814 -0.0641  0.2644
 1935DOPC   NC322696  19.321  22.060  11.694 -0.0751 -0.2674  0.0239
 1935DOPC   PO422697  19.129  21.890  11.370 -0.2961 -0.1681  0.1253
 1935DOPC   GL122698  19.377  21.600  11.633  0.1436  0.1071 -0.0936
 1935DOPC   GL222699  19.121  21.500  11.741  0.1016 -0.3509  0.0724
 1935DOPC   C1A22700  19.436  21.287  11.979 -0.1753 -0.3224  0.2822
 1935DOPC   D2A22701  19.374  21.220  12.435  0.1569 -0.2133 -0.2462
 1935DOPC   C3A22702  19.632  21.431  12.782  0.1907  0.3893 -0.1172
 1935DOPC   C4A22703  19.693  21.753  13.162  0.0124 -0.0258 -0.1839
 1935DOPC   C1B22704  18.791  21.276  11.803 -0.1258 -0.3313  0.1652
 1935DOPC   D2B22705  18.575  21.072  12.133  0.3438  0.3874  0.1594
 1935DOPC   C3B22706  18.458  20.618  12.085  0.0289 -0.0140  0.2710
 1935DOPC   C4B22707  18.722  20.221  11.988  0.3746  0.2497 -0.2678
 1936DOPS   CNO22708  13.596  15.959  11.177 -0.0423 -0.2103  0.0518
 1936DOPS   PO422709  13.731  15.982  11.541 -0.0738 -0.2725  0.0430
 1936DOPS   GL122710  14.003  15.849  11.770  0.0577 -0.0001 -0.1679
 1936DOPS   GL222711  14.232  15.753  11.803 -0.0852 -0.1112  0.0460
 1936DOPS   C1A22712  13.932  15.823  12.235  0.0918  0.0369 -0.0932
 1936DOPS   D2A22713  13.725  15.837  12.636  0.3226 -0.1823 -0.2212
 1936DOPS   C3A22714  13.695  15.434  12.888 -0.0484 -0.0922 -0.0785
 1936DOPS   C4A22715  13.904  15.144  13.163  0.1032  0.1524  0.1242
 1936DOPS   C1B22716  14.643  15.537  11.813 -0.0122  0.3278  0.3598
 1936DOPS   D2B22717  14.954  15.344  12.066  0.1732 -0.1820 -0.1538
 1936DOPS   C3B22718  15.269  15.002  12.217 -0.0854 -0.2312  0.2029
 1936DOPS   C4B22719  15.421  14.608  12.080  0.0699 -0.2359 -0.0084
 1937DOPS   CNO22720  14.064  17.808  11.083 -0.1873  0.3175 -0.1456
 1937DOPS   PO422721  14.015  18.084  11.324  0.0030  0.1055 -0.4964
 1937DOPS   GL122722  14.347  18.319  11.230 -0.0178 -0.1353  0.3307
 1937DOPS   GL222723  14.323  18.455  11.484 -0.1816  0.3317  0.1596
 1937DOPS   C1A22724  14.813  18.451  11.354  0.1347  0.0887 -0.0795
 1937DOPS   D2A22725  15.038  18.757  11.612  0.0072  0.0654 -0.0685
 1937DOPS   C3A22726  15.444  18.546  11.739  0.0693  0.2156  0.0666
 1937DOPS   C4A22727  15.572  18.116  11.727  0.0362  0.4870 -0.0039
 1937DOPS   C1B22728  14.654  18.304  11.847  0.5017 -0.0923  0.0955
 1937DOPS   D2B22729  14.572  18.291  12.318  0.0994  0.0077 -0.2210
 1937DOPS   C3B22730  14.793  17.881  12.441 -0.0953 -0.1608  0.0230
 1937DOPS   C4B22731  15.131  17.764  12.726  0.1100 -0.1993  0.6493
 1938DOPC   NC322732  13.829  19.884  11.644  0.2961  0.0999 -0.0279
 1938DOPC   PO422733  13.838  19.719  11.998 -0.1611 -0.2571 -0.1076
 1938DOPC   GL122734  13.493  19.993  12.010  0.3001 -0.2804  0.2828
 1938DOPC   GL222735  13.460  19.907  12.324  0.0950 -0.0368 -0.2527
 1938DOPC   C1A22736  13.147  20.300  12.181  0.5828 -0.2404 -0.0146
 1938DOPC   D2A22737  12.782  20.322  12.465  0.0521 -0.0459  0.2921
 1938DOPC   C3A22738  12.767  20.449  12.845  0.0895  0.0331 -0.1061
 1938DOPC   C4A22739  13.068  20.717  13.101  0.3297  0.2498 -0.0008
 1938DOPC   C1B22740  13.478  20.293  12.595  0.0526  0.2187 -0.4097
 1938DOPC   D2B22741  13.189  20.664  12.525  0.0222  0.3487  0.0898
 1938DOPC   C3B22742  13.156  21.030  12.246 -0.1193  0.0378  0.0690
 1938DOPC   C4B22743  13.602  21.218  12.288  0.0911  0.4011  0.0584
 1939DOPE   NH322744  22.399  11.265  11.964  0.2262 -0.0382 -0.0516
 1939DOPE   PO422745  22.076  11.337  11.851  0.2613  0.0631 -0.0838
 1939DOPE   GL122746  21.940  11.344  12.222  0.1522 -0.3930 -0.3040
 1939DOPE   GL222747  21.579  11.444  12.149 -0.0451  0.1194 -0.0295
 1939DOPE   C1A22748  21.902  11.252  12.657  0.0833 -0.0556  0.1937
 1939DOPE   D2A22749  21.496  11.231  12.826 -0.0792  0.3068  0.1505
 1939DOPE   C3A22750  21.236  10.974  13.182  0.2883  0.0322 -0.2478
 1939DOPE   C4A22751  21.186  10.534  13.167 -0.2700  0.1093  0.4739
 1939DOPE   C1B22752  21.431  11.744  12.426 -0.1340  0.0835 -0.0906
 1939DOPE   D2B22753  21.191  11.761  12.806 -0.1585 -0.1996  0.0601
 1939DOPE   C3B22754  21.309  11.493  13.179 -0.0289  0.1001  0.1042
 1939DOPE   C4B22755  21.661  11.325  13.472  0.2065  0.1156 -0.5128
 1940DOPE   NH322756  11.542  23.472  12.701  0.0411  0.1986  0.1800
 1940DOPE   PO422757  11.749  23.252  12.558  0.0119 -0.2451 -0.0901
 1940DOPE   GL122758  11.799  23.131  12.918 -0.3486 -0.3076 -0.0601
 1940DOPE   GL222759  11.749  22.848  12.920  0.0391  0.0589  0.2096
 1940DOPE   C1A22760  11.870  23.318  13.350 -0.1281 -0.1366 -0.1362
 1940DOPE   D2A22761  12.037  23.403  13.760  0.1912 -0.1765 -0.0483
 1940DOPE   C3A22762  12.127  23.845  13.870  0.1571 -0.0833 -0.1387
 1940DOPE   C4A22763  12.355  24.192  13.999  0.2367  0.1195 -0.2319
 1940DOPE   C1B22764  12.131  22.590  13.132 -0.2338 -0.1056  0.0335
 1940DOPE   D2B22765  12.392  22.344  13.396 -0.2101  0.0277 -0.2084
 1940DOPE   C3B22766  12.563  21.879  13.326  0.0344 -0.1326  0.1203
 1940DOPE   C4B22767  12.817  21.583  13.569 -0.2431  0.0223 -0.0935
 1941POSM   NC322768  17.928  14.067  11.866 -0.1216 -0.2608 -0.2724
 1941POSM   PO422769  17.700  14.409  11.872 -0.1894  0.2019 -0.1097
 1941POSM   AM122770  17.539  14.240  12.115 -0.0816 -0.1454  0.1568
 1941POSM   AM222771  17.520  13.958  12.121 -0.0440  0.1613 -0.1797
 1941POSM   T1A22772  17.211  14.102  12.465 -0.0554 -0.0561 -0.1164
 1941POSM   C2A22773  17.096  13.918  12.942 -0.1066  0.3176 -0.1463
 1941POSM   C3A22774  17.178  14.023  13.402 -0.1237 -0.2770  0.2212
 1941POSM   C1B22775  17.686  13.882  12.391  0.4115  0.0259  0.1489
 1941POSM   D2B22776  17.524  13.666  12.791 -0.0623 -0.0450  0.0584
 1941POSM   C3B22777  17.606  13.902  13.153 -0.5976  0.0186 -0.0459
 1941POSM   C4B22778  17.604  14.344  13.332 -0.4121  0.1732 -0.1167
 1942DOPS   CNO22779  21.590  22.518  11.621  0.2042 -0.0187 -0.0285
 1942DOPS   PO422780  21.212  22.550  11.578 -0.2140 -0.1658 -0.1694
 1942DOPS   GL122781  21.069  22.335  11.888  0.4522 -0.0514  0.3912
 1942DOPS   GL222782  21.317  22.210  11.946 -0.2741 -0.1556 -0.3499
 1942DOPS   C1A22783  20.760  22.116  12.213  0.1943 -0.3739  0.0743
 1942DOPS   D2A22784  20.580  21.927  12.635  0.1172 -0.2993  0.1368
 1942DOPS   C3A22785  20.663  22.126  13.068 -0.0435 -0.0445 -0.1348
 1942DOPS   C4A22786  20.660  22.513  13.334  0.0342 -0.0390 -0.1707
 1942DOPS   C1B22787  21.180  21.882  12.240 -0.0402 -0.4131  0.1253
 1942DOPS   D2B22788  21.006  21.742  12.628  0.1547  0.1264  0.0248
 1942DOPS   C3B22789  21.284  21.741  12.937  0.2349  0.0824 -0.1828
 1942DOPS   C4B22790  21.268  21.863  13.424  0.2234  0.1079 -0.0663
 1943DOPC   NC322791  18.040  12.519  11.581  0.1941  0.0163  0.1857
 1943DOPC   PO422792  18.298  12.333  11.778 -0.2413 -0.1298 -0.1757
 1943DOPC   GL122793  18.598  12.622  11.971  0.2529  0.1449 -0.0531
 1943DOPC   GL222794  18.636  12.490  12.218 -0.0108 -0.2741 -0.0310
 1943DOPC   C1A22795  18.550  13.053  11.933 -0.1009  0.0598 -0.1616
 1943DOPC   D2A22796  18.587  13.398  12.215  0.0102  0.0366 -0.0254
 1943DOPC   C3A22797  18.624  13.515  12.675  0.1009 -0.1470  0.0176
 1943DOPC   C4A22798  18.507  13.575  13.108  0.0933 -0.1146  0.0870
 1943DOPC   C1B22799  18.482  12.925  12.400 -0.2831 -0.1224  0.2259
 1943DOPC   D2B22800  18.157  13.184  12.678 -0.0019  0.0953 -0.0001
 1943DOPC   C3B22801  18.148  13.111  13.127 -0.2138  0.0539  0.2300
 1943DOPC   C4B22802  18.290  13.279  13.488  0.0974  0.2877  0.0436
 1944DOPE   NH322803  10.959  15.129  11.258 -0.2808  0.1347  0.2588
 1944DOPE   PO422804  11.015  14.887  11.448  0.1362  0.1356  0.0959
 1944DOPE   GL122805  11.104  14.612  11.693  0.1255  0.0574 -0.6183
 1944DOPE   GL222806  11.317  14.708  11.811 -0.0967 -0.1497 -0.1397
 1944DOPE   C1A22807  10.952  14.431  12.122  0.1869 -0.0469  0.1170
 1944DOPE   D2A22808  11.050  14.078  12.305 -0.0378 -0.0615 -0.1071
 1944DOPE   C3A22809  11.432  13.828  12.543 -0.0684 -0.4085  0.3027
 1944DOPE   C4A22810  11.830  13.574  12.557  0.1459  0.4237  0.0751
 1944DOPE   C1B22811  11.239  14.841  12.213  0.0149  0.1886  0.0377
 1944DOPE   D2B22812  11.535  14.723  12.567  0.0451 -0.1133 -0.3035
 1944DOPE   C3B22813  11.491  14.299  12.811  0.0090  0.0769 -0.2149
 1944DOPE   C4B22814  11.443  13.958  13.106 -0.3116  0.1770 -0.0233
 1945DOPS   CNO22815  17.357  14.413  11.357 -0.2694 -0.2175  0.2625
 1945DOPS   PO422816  17.533  14.071  11.445  0.2502 -0.0482  0.1239
 1945DOPS   GL122817  17.510  13.736  11.747  0.0720 -0.2814 -0.2700
 1945DOPS   GL222818  17.553  13.575  11.565  0.0783 -0.0139  0.2154
 1945DOPS   C1A22819  17.581  13.369  12.051  0.1052 -0.0623 -0.0443
 1945DOPS   D2A22820  17.654  13.369  12.457 -0.0632 -0.2033 -0.2387
 1945DOPS   C3A22821  17.657  12.883  12.462  0.3108  0.0141  0.0900
 1945DOPS   C4A22822  17.440  12.592  12.181  0.0553 -0.5073 -0.1214
 1945DOPS   C1B22823  17.770  13.187  11.457 -0.1077  0.2499  0.2333
 1945DOPS   D2B22824  18.196  13.038  11.519  0.1550 -0.1895 -0.0781
 1945DOPS   C3B22825  18.514  13.349  11.478 -0.3140 -0.1429 -0.0147
 1945DOPS   C4B22826  18.596  13.773  11.338  0.1994  0.1645  0.0217
 1946DOPS   CNO22827  21.330  19.203  11.377  0.0308  0.2451 -0.2240
 1946DOPS   PO422828  21.474  19.535  11.414 -0.1516  0.2618 -0.0283
 1946DOPS   GL122829  21.268  19.945  11.568  0.1149 -0.0528  0.0175
 1946DOPS   GL222830  21.361  20.010  11.909 -0.2766 -0.1471 -0.1899
 1946DOPS   C1A22831  21.172  20.356  11.635 -0.1148 -0.1399  0.0100
 1946DOPS   D2A22832  21.174  20.805  11.445 -0.3269 -0.1489  0.0885
 1946DOPS   C3A22833  21.148  21.247  11.573  0.2230  0.1275 -0.1096
 1946DOPS   C4A22834  21.258  21.714  11.386  0.0243  0.2115  0.1127
 1946DOPS   C1B22835  21.338  20.316  12.279 -0.0711 -0.0529  0.0898
 1946DOPS   D2B22836  21.401  20.764  12.432  0.0814  0.0422  0.0955
 1946DOPS   C3B22837  21.454  20.932  12.897  0.2089  0.4548 -0.0492
 1946DOPS   C4B22838  21.421  21.300  13.203 -0.0016  0.4067 -0.2555
 1947DOPE   NH322839  11.317  22.365  12.704  0.1115  0.0041 -0.1265
 1947DOPE   PO422840  11.248  22.106  12.519  0.1891 -0.0231  0.1099
 1947DOPE   GL122841  11.185  21.990  12.931  0.4692 -0.1085 -0.0783
 1947DOPE   GL222842  11.455  21.902  12.907  0.2329  0.0884  0.0040
 1947DOPE   C1A22843  11.389  22.089  13.371 -0.0532 -0.2367  0.0045
 1947DOPE   D2A22844  11.420  22.065  13.844  0.3073 -0.4140  0.1353
 1947DOPE   C3A22845  11.540  22.440  14.074 -0.0756 -0.0841  0.1286
 1947DOPE   C4A22846  11.723  22.842  14.296  0.0854  0.2976  0.1071
 1947DOPE   C1B22847  11.239  21.622  13.219 -0.0362 -0.0214 -0.0636
 1947DOPE   D2B22848  11.087  21.232  13.407  0.0219 -0.0223  0.4010
 1947DOPE   C3B22849  11.212  20.842  13.559 -0.0750 -0.2165  0.0571
 1947DOPE   C4B22850  11.080  20.390  13.453  0.1794  0.3012  0.0916
 1948DOPE   NH322851  14.481  17.546  10.954  0.1062  0.1298  0.0319
 1948DOPE   PO422852  14.813  17.644  10.932 -0.1063 -0.0171 -0.1384
 1948DOPE   GL122853  15.056  17.607  11.288 -0.0250 -0.0044  0.1673
 1948DOPE   GL222854  14.981  17.512  11.518 -0.5203 -0.0955  0.1336
 1948DOPE   C1A22855  15.472  17.686  11.445 -0.1260 -0.2625 -0.1355
 1948DOPE   D2A22856  15.873  17.855  11.428 -0.1276  0.0541  0.2200
 1948DOPE   C3A22857  16.002  17.895  11.882 -0.0062 -0.0556  0.3049
 1948DOPE   C4A22858  16.300  17.945  12.240 -0.1384 -0.1981 -0.2101
 1948DOPE   C1B22859  15.300  17.374  11.818  0.1868 -0.2116  0.3647
 1948DOPE   D2B22860  15.765  17.367  11.915 -0.0342 -0.1785  0.0724
 1948DOPE   C3B22861  15.939  16.901  11.921 -0.2620  0.1241 -0.1135
 1948DOPE   C4B22862  16.019  16.732  12.316 -0.1004 -0.1672  0.1492
 1949POSM   NC322863  23.028  11.724  12.194 -0.0546  0.2679  0.2807
 1949POSM   PO422864  22.674  11.698  12.147 -0.1388  0.1374 -0.1152
 1949POSM   AM122865  22.452  11.860  12.261 -0.1540 -0.4349 -0.2130
 1949POSM   AM222866  22.176  11.773  12.250 -0.0226  0.1180  0.2529
 1949POSM   T1A22867  22.235  12.048  12.685 -0.1389 -0.0716  0.2347
 1949POSM   C2A22868  21.866  12.372  12.739  0.1371 -0.0672  0.1273
 1949POSM   C3A22869  21.688  12.606  13.108 -0.0194  0.3580  0.0906
 1949POSM   C1B22870  21.970  11.743  12.478  0.2901 -0.0465  0.2629
 1949POSM   D2B22871  21.687  11.768  12.827  0.0401  0.1635 -0.0142
 1949POSM   C3B22872  21.517  12.039  13.141 -0.0205  0.0953  0.1336
 1949POSM   C4B22873  21.680  12.243  13.545  0.0628 -0.2047  0.1064
 1950DOPC   NC322874  19.961  16.810  11.533 -0.1077 -0.4748  0.0192
 1950DOPC   PO422875  20.310  16.753  11.276 -0.0852 -0.0420  0.1184
 1950DOPC   GL122876  19.963  16.545  11.157 -0.2048 -0.0892  0.3336
 1950DOPC   GL222877  19.634  16.622  11.187 -0.4825  0.1957  0.3022
 1950DOPC   C1A22878  20.022  16.141  11.393  0.0686 -0.1349  0.4481
 1950DOPC   D2A22879  19.881  15.835  11.733 -0.1164 -0.0365 -0.1079
 1950DOPC   C3A22880  19.589  15.762  12.093  0.0247 -0.1329 -0.0844
 1950DOPC   C4A22881  19.559  15.378  12.354 -0.0377  0.0035  0.2467
 1950DOPC   C1B22882  19.592  16.380  11.573 -0.0579  0.1119  0.1668
 1950DOPC   D2B22883  19.472  16.298  12.011  0.1228 -0.1006  0.0906
 1950DOPC   C3B22884  19.620  16.459  12.480  0.1825  0.0835  0.0973
 1950DOPC   C4B22885  19.661  16.402  12.974 -0.0540  0.0307 -0.1981
 1951DOPC   NC322886  14.202  17.247  11.243 -0.0328  0.1761 -0.2371
 1951DOPC   PO422887  14.281  17.022  11.560 -0.2112  0.3772 -0.1315
 1951DOPC   GL122888  14.393  16.654  11.766 -0.0123 -0.0042  0.4478
 1951DOPC   GL222889  14.647  16.662  11.744  0.0172 -0.1266 -0.3046
 1951DOPC   C1A22890  14.405  16.519  12.209 -0.1700 -0.2279  0.0914
 1951DOPC   D2A22891  14.298  16.695  12.590  0.1887 -0.0453  0.0219
 1951DOPC   C3A22892  14.125  16.635  13.003  0.1947 -0.0345  0.3265
 1951DOPC   C4A22893  14.179  16.296  13.327 -0.0631 -0.4081 -0.3425
 1951DOPC   C1B22894  15.015  16.937  11.833  0.1128  0.0274  0.4221
 1951DOPC   D2B22895  15.360  16.997  12.098 -0.1174 -0.1713 -0.2223
 1951DOPC   C3B22896  15.642  17.142  12.417 -0.0799  0.0348  0.0075
 1951DOPC   C4B22897  15.828  17.435  12.703 -0.1736  0.1545 -0.1746
 1952DOPE   NH322898  20.691  22.635  11.914  0.1862 -0.0629 -0.2331
 1952DOPE   PO422899  20.762  22.765  11.665  0.0797 -0.1266 -0.3736
 1952DOPE   GL122900  20.875  23.125  11.832  0.2733  0.2177  0.2115
 1952DOPE   GL222901  20.886  23.168  12.149 -0.0243  0.1600 -0.3046
 1952DOPE   C1A22902  20.570  23.487  11.885 -0.1363  0.1977 -0.4494
 1952DOPE   D2A22903  20.341  23.910  11.931 -0.5719 -0.1392 -0.1286
 1952DOPE   C3A22904  20.269  24.109  12.361  0.1246  0.1148  0.3200
 1952DOPE   C4A22905  20.268  23.908  12.788 -0.0110  0.1049  0.1273
 1952DOPE   C1B22906  20.921  22.900  12.569  0.0828 -0.1553 -0.1868
 1952DOPE   D2B22907  20.842  22.669  12.919  0.2120  0.1145 -0.0079
 1952DOPE   C3B22908  21.037  22.243  12.783 -0.0473 -0.1412 -0.1892
 1952DOPE   C4B22909  21.426  22.121  12.615 -0.3600  0.0679 -0.5056
 1953POSM   NC322910  22.093  23.175  11.606 -0.1642 -0.0655  0.1855
 1953POSM   PO422911  21.812  23.061  11.895 -0.1312  0.2054 -0.0540
 1953POSM   AM122912  21.982  22.978  12.135  0.2239 -0.1441  0.1714
 1953POSM   AM222913  22.111  23.099  12.384 -0.1152 -0.1835  0.0512
 1953POSM   T1A22914  21.912  22.685  12.525  0.0921 -0.1104  0.0808
 1953POSM   C2A22915  21.826  22.397  12.816 -0.1310 -0.0083  0.0991
 1953POSM   C3A22916  21.568  22.126  13.111 -0.3601  0.0064 -0.1870
 1953POSM   C1B22917  22.197  23.100  12.714 -0.1107 -0.2286 -0.2088
 1953POSM   D2B22918  22.368  23.142  13.119 -0.1890  0.3026 -0.0438
 1953POSM   C3B22919  22.536  23.508  13.310 -0.2012 -0.1188  0.0755
 1953POSM   C4B22920  22.603  23.746  13.705 -0.1388 -0.0790 -0.1664
 1954DOPE   NH322921  18.158  18.284  11.289  0.0465  0.1015  0.1852
 1954DOPE   PO422922  17.987  18.230  11.563 -0.4240  0.3409  0.0052
 1954DOPE   GL122923  18.182  18.084  11.847 -0.2097  0.0019 -0.0572
 1954DOPE   GL222924  17.968  17.951  12.002 -0.0916 -0.1408  0.0792
 1954DOPE   C1A22925  18.394  17.919  12.255 -0.2919  0.3103 -0.0227
 1954DOPE   D2A22926  18.538  17.964  12.736 -0.3512 -0.3605 -0.0922
 1954DOPE   C3A22927  18.206  18.122  12.997 -0.0861  0.1277  0.0301
 1954DOPE   C4A22928  18.023  18.448  13.257  0.3285  0.0037  0.0991
 1954DOPE   C1B22929  17.941  17.791  12.445  0.1873 -0.1785  0.1378
 1954DOPE   D2B22930  17.764  17.480  12.776  0.3699 -0.1791  0.1189
 1954DOPE   C3B22931  18.028  17.130  12.673 -0.3606 -0.0218 -0.2150
 1954DOPE   C4B22932  18.070  16.968  12.194 -0.0183  0.0806 -0.3673
 1955DOPC   NC322933  19.838  17.695  11.787 -0.5029 -0.1117  0.0160
 1955DOPC   PO422934  19.898  17.927  11.448  0.0703  0.2286 -0.0354
 1955DOPC   GL122935  19.521  18.114  11.560 -0.1289 -0.2036  0.0036
 1955DOPC   GL222936  19.251  18.013  11.567 -0.1595  0.1400  0.1332
 1955DOPC   C1A22937  19.397  18.058  12.017 -0.0823 -0.3368 -0.0524
 1955DOPC   D2A22938  19.398  18.075  12.424 -0.0911  0.1407 -0.2547
 1955DOPC   C3A22939  19.849  18.007  12.603 -0.2986  0.0107  0.0383
 1955DOPC   C4A22940  20.203  17.977  12.874  0.2377  0.2696 -0.1077
 1955DOPC   C1B22941  19.253  17.613  11.730  0.1306  0.0379 -0.0518
 1955DOPC   D2B22942  19.470  17.407  12.060  0.0249  0.0231  0.2760
 1955DOPC   C3B22943  19.363  17.069  12.295 -0.1302  0.1258 -0.0352
 1955DOPC   C4B22944  19.338  16.974  12.726 -0.0934  0.1087 -0.0081
 1956DOPS   CNO22945  14.198  11.964  11.232  0.4225 -0.1884 -0.0053
 1956DOPS   PO422946  13.937  11.757  11.371 -0.0490 -0.1944  0.4483
 1956DOPS   GL122947  13.702  11.955  11.587  0.2128 -0.2492 -0.2991
 1956DOPS   GL222948  13.781  12.275  11.511  0.3488 -0.0874  0.0858
 1956DOPS   C1A22949  13.260  11.882  11.626  0.1153  0.0552 -0.1869
 1956DOPS   D2A22950  12.890  12.180  11.526  0.0196  0.0559 -0.2927
 1956DOPS   C3A22951  12.714  12.441  11.872  0.2104 -0.1361 -0.0253
 1956DOPS   C4A22952  12.414  12.691  12.038  0.2132  0.1130 -0.3311
 1956DOPS   C1B22953  13.521  12.436  11.812  0.0171  0.2058 -0.0830
 1956DOPS   D2B22954  13.297  12.719  12.134 -0.0863 -0.1024  0.0188
 1956DOPS   C3B22955  13.384  12.517  12.512 -0.2819  0.4083  0.1983
 1956DOPS   C4B22956  13.230  12.215  12.811 -0.0552  0.1863  0.0400
 1957DOPE   NH322957  15.207  20.187  11.391  0.1504 -0.1881  0.1197
 1957DOPE   PO422958  14.849  20.127  11.456  0.1757 -0.1075  0.4259
 1957DOPE   GL122959  14.820  20.247  11.896 -0.0601  0.0734  0.0206
 1957DOPE   GL222960  14.947  20.474  11.858  0.2229 -0.2667  0.2234
 1957DOPE   C1A22961  14.731  20.510  12.295 -0.0231 -0.0903  0.0643
 1957DOPE   D2A22962  14.506  20.603  12.686 -0.1095 -0.2531 -0.1695
 1957DOPE   C3A22963  14.712  20.857  13.024 -0.3677  0.1618  0.2147
 1957DOPE   C4A22964  15.045  21.019  13.285 -0.0598 -0.1380  0.3024
 1957DOPE   C1B22965  15.319  20.668  11.730 -0.2282  0.1347 -0.0068
 1957DOPE   D2B22966  15.615  20.972  11.913 -0.1294  0.3190  0.3400
 1957DOPE   C3B22967  15.302  21.098  12.291 -0.0271 -0.1385  0.0450
 1957DOPE   C4B22968  14.957  20.841  12.559 -0.4000  0.1003  0.2366
 1958DOPE   NH322969  13.670  16.446  11.235  0.1550 -0.2357 -0.0824
 1958DOPE   PO422970  13.944  16.306  11.124 -0.1384  0.1812  0.0451
 1958DOPE   GL122971  14.201  16.144  11.504  0.3839  0.2241 -0.4212
 1958DOPE   GL222972  14.104  16.338  11.693 -0.1234  0.0533 -0.3509
 1958DOPE   C1A22973  14.669  16.231  11.519  0.0539 -0.0008  0.1460
 1958DOPE   D2A22974  14.998  15.927  11.724 -0.2434 -0.2515  0.2064
 1958DOPE   C3A22975  14.886  15.912  12.171  0.1633  0.1719  0.1669
 1958DOPE   C4A22976  14.744  16.192  12.513  0.2496 -0.0340  0.0897
 1958DOPE   C1B22977  14.464  16.135  11.916 -0.0544  0.2024 -0.0916
 1958DOPE   D2B22978  14.430  15.903  12.295  0.1373 -0.1224  0.1066
 1958DOPE   C3B22979  14.326  15.521  12.237 -0.0134  0.0711 -0.4902
 1958DOPE   C4B22980  13.917  15.317  12.115  0.0905 -0.1895  0.2986
 1959DOPS   CNO22981  22.350  23.609  11.754  0.1741 -0.3177 -0.1278
 1959DOPS   PO422982  22.499  23.295  11.906  0.1683 -0.1797  0.0913
 1959DOPS   GL122983  22.465  23.333  12.318 -0.1397  0.2057  0.1688
 1959DOPS   GL222984  22.644  23.159  12.515  0.0948  0.0320 -0.0795
 1959DOPS   C1A22985  22.389  23.562  12.720 -0.2864  0.3721  0.2076
 1959DOPS   D2A22986  22.442  23.903  13.002  0.0643 -0.0731  0.0505
 1959DOPS   C3A22987  22.861  23.913  13.159 -0.0727 -0.4338 -0.4967
 1959DOPS   C4A22988  23.088  24.093  13.529 -0.2021  0.0714  0.2336
 1959DOPS   C1B22989  22.822  23.381  12.852 -0.0068 -0.1459  0.1953
 1959DOPS   D2B22990  23.071  23.397  13.251 -0.2145  0.1165 -0.0067
 1959DOPS   C3B22991  23.309  23.622  13.565 -0.3319  0.1361 -0.0658
 1959DOPS   C4B22992  23.509  23.683  13.987 -0.2423  0.1707 -0.2255
 1960DOPE   NH322993  23.103  13.634  12.079 -0.0006  0.0852 -0.2124
 1960DOPE   PO422994  22.883  13.890  12.064  0.2051  0.1962  0.1214
 1960DOPE   GL122995  22.832  13.838  12.379  0.3346 -0.1915 -0.5405
 1960DOPE   GL222996  23.011  14.035  12.564 -0.0615  0.0290  0.0350
 1960DOPE   C1A22997  22.503  13.778  12.669  0.0549 -0.0248 -0.1038
 1960DOPE   D2A22998  22.074  13.907  12.816  0.0491  0.1465 -0.0977
 1960DOPE   C3A22999  21.712  13.668  12.745  0.1247 -0.0734  0.0557
 1960DOPE   C4A23000  21.217  13.691  12.640  0.0520  0.0072 -0.1936
 1960DOPE   C1B23001  23.369  13.704  12.605  0.4617 -0.1644  0.2456
 1960DOPE   D2B23002  23.542  13.299  12.597  0.4544  0.1057  0.0072
 1960DOPE   C3B23003  23.814  12.995  12.789  0.1774  0.1097 -0.1345
 1960DOPE   C4B23004  23.746  12.542  12.970 -0.1057  0.1061 -0.1797
 1961DOPS   CNO23005  17.666  11.195  11.736 -0.0355  0.1401  0.3119
 1961DOPS   PO423006  17.471  11.515  11.672 -0.0484 -0.1214  0.1355
 1961DOPS   GL123007  17.122  11.613  11.689  0.0990  0.2274 -0.1236
 1961DOPS   GL223008  17.164  11.907  11.857  0.0896  0.0797  0.0415
 1961DOPS   C1A23009  16.669  11.805  11.687 -0.3262 -0.0370  0.1073
 1961DOPS   D2A23010  16.331  12.133  11.620  0.2959  0.2581 -0.1606
 1961DOPS   C3A23011  15.984  12.067  11.923 -0.0616  0.0731  0.1110
 1961DOPS   C4A23012  15.735  12.190  12.269 -0.0605 -0.5342  0.0293
 1961DOPS   C1B23013  16.845  12.047  12.139  0.1220 -0.0188 -0.1002
 1961DOPS   D2B23014  16.783  11.817  12.550  0.2969  0.0614  0.1711
 1961DOPS   C3B23015  16.773  11.950  13.019 -0.1313 -0.6508 -0.1999
 1961DOPS   C4B23016  17.168  12.147  13.158  0.5220 -0.0347 -0.2159
 1962DOPS   CNO23017  22.795  11.900  11.711 -0.1424 -0.0304  0.2012
 1962DOPS   PO423018  22.873  12.164  11.994  0.0416  0.0739  0.3566
 1962DOPS   GL123019  22.718  12.220  12.355  0.4392 -0.1060 -0.1182
 1962DOPS   GL223020  22.481  12.404  12.406  0.1821 -0.0840 -0.3173
 1962DOPS   C1A23021  22.940  11.983  12.664  0.1796  0.0857  0.0040
 1962DOPS   D2A23022  23.040  11.750  13.092 -0.4398  0.0226  0.3344
 1962DOPS   C3A23023  22.859  11.933  13.473 -0.0478  0.0489  0.2199
 1962DOPS   C4A23024  22.475  11.829  13.703 -0.2801 -0.1613  0.0369
 1962DOPS   C1B23025  22.451  12.553  12.837 -0.1537  0.0058 -0.0748
 1962DOPS   D2B23026  22.223  12.961  12.974  0.2237  0.1278  0.0763
 1962DOPS   C3B23027  21.847  13.059  12.717  0.2176 -0.1979  0.1649
 1962DOPS   C4B23028  21.423  13.197  12.828  0.2827  0.0975  0.0977
 1963DOPC   NC323029  15.868  13.823  11.112 -0.2099  0.3161  0.2883
 1963DOPC   PO423030  16.253  13.771  10.939 -0.0074 -0.0958 -0.3220
 1963DOPC   GL123031  16.410  13.537  11.258  0.2857  0.1072  0.1524
 1963DOPC   GL223032  16.244  13.670  11.498 -0.1181 -0.3277 -0.0844
 1963DOPC   C1A23033  16.302  13.096  11.312  0.0933 -0.1102 -0.0320
 1963DOPC   D2A23034  15.955  12.912  11.568 -0.0823 -0.0073 -0.1326
 1963DOPC   C3A23035  15.927  12.918  11.979 -0.3534  0.2098 -0.3364
 1963DOPC   C4A23036  15.836  12.714  12.394  0.0372 -0.7558  0.0372
 1963DOPC   C1B23037  15.877  13.393  11.518 -0.2005  0.4215  0.0896
 1963DOPC   D2B23038  15.525  13.161  11.687  0.0938  0.0271 -0.0336
 1963DOPC   C3B23039  15.532  13.089  12.115  0.4536  0.3498  0.2009
 1963DOPC   C4B23040  15.403  13.335  12.488 -0.1550 -0.3639 -0.0274
 1964DOPC   NC323041  21.504  17.959  11.717  0.1271 -0.1222  0.5517
 1964DOPC   PO423042  21.512  18.256  11.462  0.3207 -0.1855 -0.0763
 1964DOPC   GL123043  21.444  18.327  11.970  0.0065 -0.2229 -0.4261
 1964DOPC   GL223044  21.667  18.539  11.935 -0.1718 -0.1407  0.1479
 1964DOPC   C1A23045  21.593  18.271  12.412 -0.1900  0.0809 -0.0867
 1964DOPC   D2A23046  21.507  18.356  12.855  0.0945 -0.0190  0.1048
 1964DOPC   C3A23047  21.763  18.751  12.924 -0.0409 -0.1684 -0.2853
 1964DOPC   C4A23048  22.148  18.986  12.831 -0.3094 -0.0220 -0.2942
 1964DOPC   C1B23049  21.609  18.833  12.228 -0.1552  0.2211 -0.0682
 1964DOPC   D2B23050  21.632  19.114  12.541 -0.3196 -0.0635  0.0587
 1964DOPC   C3B23051  21.496  19.152  13.018  0.0181 -0.1705 -0.1270
 1964DOPC   C4B23052  21.246  18.883  13.261 -0.0540  0.1299 -0.0185
 1965DOPE   NH323053  18.151  15.021  11.889  0.1762 -0.0864 -0.0098
 1965DOPE   PO423054  17.844  14.909  11.834 -0.0572  0.2094  0.0746
 1965DOPE   GL123055  17.934  14.655  12.187  0.3211  0.2513 -0.1063
 1965DOPE   GL223056  17.924  14.936  12.333  0.3332  0.1619 -0.0453
 1965DOPE   C1A23057  18.158  14.591  12.611 -0.0201 -0.2411  0.2646
 1965DOPE   D2A23058  18.452  14.584  12.963 -0.5339  0.1719  0.3942
 1965DOPE   C3A23059  18.758  14.821  12.712 -0.3400 -0.2026 -0.0202
 1965DOPE   C4A23060  18.896  15.068  12.361  0.0376  0.0076 -0.0695
 1965DOPE   C1B23061  17.983  15.364  12.439 -0.0119  0.1577  0.1578
 1965DOPE   D2B23062  18.008  15.805  12.490  0.0907  0.0554  0.0732
 1965DOPE   C3B23063  17.970  15.912  12.925  0.2207 -0.0952 -0.1372
 1965DOPE   C4B23064  17.716  15.827  13.310  0.1153  0.2128 -0.1074
 1966DOPC   NC323065  21.390  23.038  11.634 -0.2433  0.0893 -0.1277
 1966DOPC   PO423066  21.319  23.289  11.947  0.0511  0.0415 -0.1791
 1966DOPC   GL123067  21.283  23.122  12.302  0.1673 -0.3292 -0.1982
 1966DOPC   GL223068  21.576  23.076  12.402 -0.3721 -0.0013  0.0388
 1966DOPC   C1A23069  21.262  23.246  12.730  0.1043  0.0698  0.1081
 1966DOPC   D2A23070  21.031  23.487  13.050 -0.1913 -0.1115 -0.2081
 1966DOPC   C3A23071  20.597  23.464  13.199  0.1904  0.0786  0.1521
 1966DOPC   C4A23072  20.217  23.714  13.221 -0.1524  0.4839  0.2557
 1966DOPC   C1B23073  21.669  23.068  12.856  0.0487 -0.1949  0.0036
 1966DOPC   D2B23074  21.909  22.930  13.199  0.0510 -0.2664  0.0289
 1966DOPC   C3B23075  22.237  22.648  12.923 -0.1304 -0.2795  0.2146
 1966DOPC   C4B23076  22.365  22.192  12.903  0.2896 -0.1382 -0.0376
 1967POSM   NC323077  17.170  14.477  12.061 -0.0174 -0.0816  0.1027
 1967POSM   PO423078  17.180  14.160  11.807  0.0807 -0.0479 -0.1079
 1967POSM   AM123079  17.033  14.013  11.987 -0.0274 -0.1276  0.4239
 1967POSM   AM223080  17.026  13.743  12.037  0.1798  0.2008  0.4163
 1967POSM   T1A23081  16.780  13.899  12.410  0.0454  0.1611  0.0543
 1967POSM   C2A23082  16.612  14.100  12.771  0.1064  0.1002  0.1430
 1967POSM   C3A23083  16.656  13.904  13.191 -0.3204  0.0137  0.3121
 1967POSM   C1B23084  17.216  13.619  12.286 -0.2548  0.2748  0.1546
 1967POSM   D2B23085  17.177  13.314  12.546  0.1168 -0.1920  0.0440
 1967POSM   C3B23086  17.439  13.150  12.910  0.1777  0.3071 -0.1533
 1967POSM   C4B23087  17.763  12.864  13.022  0.1797  0.1559  0.4839
 1968DOPC   NC323088  14.383  20.166  11.965 -0.0917  0.5293 -0.1245
 1968DOPC   PO423089  14.313  20.032  11.600 -0.2058  0.0970  0.0024
 1968DOPC   GL123090  14.237  19.665  11.729  0.2504 -0.1242  0.1941
 1968DOPC   GL223091  14.324  19.651  12.024  0.0058  0.0009  0.0185
 1968DOPC   C1A23092  14.185  19.229  11.652  0.1851 -0.1889  0.5101
 1968DOPC   D2A23093  14.627  18.984  11.645  0.1275  0.1133 -0.0626
 1968DOPC   C3A23094  14.922  19.246  11.916 -0.0502  0.0129 -0.0468
 1968DOPC   C4A23095  15.128  19.325  12.307  0.1699 -0.4442 -0.1099
 1968DOPC   C1B23096  14.284  19.565  12.531  0.1779 -0.0773  0.0284
 1968DOPC   D2B23097  14.089  19.716  12.940 -0.2121 -0.0052 -0.1565
 1968DOPC   C3B23098  13.988  20.103  13.181 -0.0386  0.2519  0.1351
 1968DOPC   C4B23099  13.959  20.543  13.242 -0.0840 -0.3991  0.1051
 1969DOPC   NC323100  17.781  19.648  11.856  0.0181 -0.2344 -0.1150
 1969DOPC   PO423101  17.525  19.471  12.140  0.0669 -0.0758  0.3201
 1969DOPC   GL123102  17.663  19.856  12.332 -0.1382 -0.5955  0.7281
 1969DOPC   GL223103  17.711  20.084  12.088  0.0343  0.3145  0.0468
 1969DOPC   C1A23104  17.891  20.190  12.517 -0.1451 -0.3739  0.1225
 1969DOPC   D2A23105  17.930  20.648  12.365  0.0994 -0.4173 -0.0100
 1969DOPC   C3A23106  18.300  20.834  12.571 -0.1233 -0.2691 -0.0290
 1969DOPC   C4A23107  18.574  21.195  12.655 -0.1877 -0.1658  0.2351
 1969DOPC   C1B23108  18.154  19.999  12.135  0.1016  0.0301  0.3342
 1969DOPC   D2B23109  18.474  20.133  12.475  0.0981 -0.0324 -0.0541
 1969DOPC   C3B23110  18.859  20.404  12.417  0.2385 -0.1614 -0.0982
 1969DOPC   C4B23111  19.045  20.771  12.603 -0.2764 -0.0261 -0.0976
 1970DOPE   NH323112  14.650  20.623  11.371  0.0266  0.2787 -0.0496
 1970DOPE   PO423113  14.448  20.544  11.586 -0.0165 -0.1687  0.1768
 1970DOPE   GL123114  14.541  20.870  11.715  0.0852 -0.3463  0.0491
 1970DOPE   GL223115  14.311  21.015  11.519  0.2997  0.0368  0.1443
 1970DOPE   C1A23116  14.789  20.937  12.080  0.3908  0.0632  0.1467
 1970DOPE   D2A23117  14.797  21.299  12.403  0.1444 -0.1925  0.1167
 1970DOPE   C3A23118  14.652  21.320  12.823  0.0144  0.2778  0.1052
 1970DOPE   C4A23119  14.877  21.553  13.160  0.0419  0.3507  0.0461
 1970DOPE   C1B23120  14.313  21.433  11.698  0.4009 -0.0128 -0.2479
 1970DOPE   D2B23121  14.275  21.809  11.988  0.0866 -0.0041  0.0182
 1970DOPE   C3B23122  14.503  21.780  12.379  0.1115 -0.2061  0.1422
 1970DOPE   C4B23123  14.684  21.818  12.761 -0.2199 -0.1061 -0.0915
 1971DOPE   NH323124  13.096  22.909  11.968  0.3622  0.0987 -0.2179
 1971DOPE   PO423125  13.398  23.064  11.944  0.0501 -0.1341  0.2730
 1971DOPE   GL123126  13.516  22.879  12.307  0.1042  0.1655 -0.1271
 1971DOPE   GL223127  13.290  22.978  12.434  0.0804  0.3293 -0.2318
 1971DOPE   C1A23128  13.624  22.581  12.688 -0.1036  0.2099 -0.2495
 1971DOPE   D2A23129  13.979  22.375  12.823 -0.1216  0.1247 -0.3424
 1971DOPE   C3A23130  14.449  22.274  12.670 -0.1703  0.2315  0.0288
 1971DOPE   C4A23131  14.868  22.481  12.703  0.0419  0.4390  0.0741
 1971DOPE   C1B23132  13.082  22.573  12.731  0.4044  0.1465 -0.1159
 1971DOPE   D2B23133  12.840  22.267  12.954 -0.4639 -0.0519 -0.0794
 1971DOPE   C3B23134  12.869  22.364  13.452 -0.0339 -0.0460 -0.0315
 1971DOPE   C4B23135  12.769  22.067  13.832 -0.4536 -0.1032  0.1350
 1972DOPC   NC323136  10.373  18.556  12.448  0.1878  0.2536 -0.0556
 1972DOPC   PO423137  10.570  18.440  12.159 -0.1730 -0.2700  0.2388
 1972DOPC   GL123138  10.847  18.411  12.487 -0.0659 -0.1128  0.0750
 1972DOPC   GL223139  10.738  18.221  12.585  0.0577  0.4268  0.2794
 1972DOPC   C1A23140  11.084  18.635  12.812 -0.1954  0.0452  0.1646
 1972DOPC   D2A23141  11.270  18.964  13.098  0.2573 -0.3101  0.1438
 1972DOPC   C3A23142  11.627  18.932  13.404  0.0510 -0.2150 -0.1118
 1972DOPC   C4A23143  12.087  18.963  13.443 -0.0982 -0.2190  0.1280
 1972DOPC   C1B23144  10.413  18.222  12.869  0.0431  0.3172  0.0030
 1972DOPC   D2B23145  10.044  18.088  13.118  0.0805 -0.0655  0.2227
 1972DOPC   C3B23146  10.163  17.740  13.381  0.0022  0.1914  0.5117
 1972DOPC   C4B23147  10.315  17.580  13.804 -0.1609 -0.2855  0.0958
 1973DOPE   NH323148  20.809  17.679  11.896  0.1516  0.1114  0.2566
 1973DOPE   PO423149  21.033  17.869  11.770 -0.1920  0.0414  0.0380
 1973DOPE   GL123150  21.208  17.781  12.066  0.3280 -0.1136 -0.1050
 1973DOPE   GL223151  21.124  18.091  12.194  0.1062  0.2686 -0.2631
 1973DOPE   C1A23152  21.630  17.841  12.205  0.3345 -0.0959  0.1792
 1973DOPE   D2A23153  22.003  18.177  12.135  0.1627  0.1958  0.2614
 1973DOPE   C3A23154  22.153  17.979  12.466 -0.0743 -0.1619 -0.2496
 1973DOPE   C4A23155  22.224  17.576  12.756 -0.1264  0.0651  0.1393
 1973DOPE   C1B23156  21.203  17.921  12.588  0.1183  0.2536 -0.2367
 1973DOPE   D2B23157  21.632  17.710  12.675  0.0737  0.0399  0.1554
 1973DOPE   C3B23158  21.773  17.288  12.898 -0.1149  0.0509  0.0047
 1973DOPE   C4B23159  21.866  16.850  13.042  0.1848  0.2908 -0.2497
 1974DOPS   CNO23160  18.254  22.895  11.447  0.0631  0.1869 -0.0267
 1974DOPS   PO423161  18.472  22.733  11.723 -0.0559 -0.0957 -0.0080
 1974DOPS   GL123162  18.489  22.536  12.009 -0.1922  0.4287  0.1870
 1974DOPS   GL223163  18.796  22.409  12.065  0.2849  0.2964 -0.1783
 1974DOPS   C1A23164  18.343  22.220  12.294  0.0813 -0.0870  0.0579
 1974DOPS   D2A23165  18.299  22.155  12.693  0.3347 -0.1326  0.2382
 1974DOPS   C3A23166  18.105  21.708  12.768  0.1271  0.0918 -0.2142
 1974DOPS   C4A23167  17.884  21.487  13.101 -0.1733  0.4220 -0.0742
 1974DOPS   C1B23168  18.700  22.495  12.535 -0.1827 -0.1679 -0.1381
 1974DOPS   D2B23169  18.839  22.402  12.986  0.1144 -0.0288 -0.1078
 1974DOPS   C3B23170  18.537  22.291  13.267  0.1643  0.0955 -0.0648
 1974DOPS   C4B23171  18.416  22.564  13.653  0.1825 -0.2311  0.1359
 1975DOPC   NC323172  14.408  23.092  12.033  0.0340  0.1384 -0.4071
 1975DOPC   PO423173  14.789  23.240  11.937  0.2055 -0.1347  0.0801
 1975DOPC   GL123174  14.930  22.797  12.022 -0.0381  0.0033  0.1997
 1975DOPC   GL223175  14.949  22.845  12.322  0.1360  0.0194  0.8706
 1975DOPC   C1A23176  14.823  22.335  12.193  0.3250  0.1326  0.4240
 1975DOPC   D2A23177  14.807  21.920  11.952  0.0207 -0.0208  0.2612
 1975DOPC   C3A23178  15.131  21.597  12.153  0.2926  0.1449  0.1252
 1975DOPC   C4A23179  15.138  21.600  12.624  0.0484 -0.0191 -0.0172
 1975DOPC   C1B23180  14.495  22.749  12.433 -0.0247 -0.0376  0.0656
 1975DOPC   D2B23181  14.119  22.784  12.267 -0.0779  0.1678 -0.3248
 1975DOPC   C3B23182  13.768  22.469  12.258 -0.1034  0.2801  0.0487
 1975DOPC   C4B23183  13.600  22.045  12.271  0.1804 -0.1229  0.0423
 1976POSM   NC323184  20.546  18.927  11.323  0.0793 -0.1598 -0.2407
 1976POSM   PO423185  20.575  18.552  11.503  0.1627  0.3301  0.1447
 1976POSM   AM123186  20.422  18.676  11.751 -0.1621 -0.0325  0.3404
 1976POSM   AM223187  20.505  18.913  11.852  0.0499  0.0322  0.0937
 1976POSM   T1A23188  20.205  18.692  12.170 -0.3249  0.0549 -0.2672
 1976POSM   C2A23189  20.082  19.114  12.491 -0.2166  0.0763 -0.0476
 1976POSM   C3A23190  20.162  19.582  12.610 -0.1299 -0.1288  0.0788
 1976POSM   C1B23191  20.574  19.091  12.140 -0.0229 -0.2501  0.3864
 1976POSM   D2B23192  20.614  19.281  12.591  0.3068  0.0874  0.1333
 1976POSM   C3B23193  20.397  19.180  12.933  0.0287  0.0842 -0.0441
 1976POSM   C4B23194  19.979  19.213  13.177  0.1294 -0.1753 -0.2132
 1977DOPC   NC323195  13.087  18.599  11.969 -0.1752  0.3296  0.2032
 1977DOPC   PO423196  12.900  18.586  11.617  0.0646 -0.1917 -0.2642
 1977DOPC   GL123197  12.633  18.420  11.933 -0.1306  0.1616 -0.4655
 1977DOPC   GL223198  12.570  18.147  11.771 -0.1520  0.2745  0.1553
 1977DOPC   C1A23199  12.307  18.257  12.216  0.4000  0.2155  0.0979
 1977DOPC   D2A23200  12.019  17.981  12.451  0.4207  0.2772  0.0846
 1977DOPC   C3A23201  11.532  17.900  12.277 -0.0565  0.1848 -0.4153
 1977DOPC   C4A23202  11.281  17.628  11.933 -0.2524  0.1503 -0.0713
 1977DOPC   C1B23203  12.196  17.851  11.980  0.1384  0.2929  0.1194
 1977DOPC   D2B23204  11.941  17.526  12.201 -0.0366 -0.1909 -0.2255
 1977DOPC   C3B23205  11.878  17.560  12.632  0.0440 -0.0976  0.1946
 1977DOPC   C4B23206  11.720  17.586  13.054  0.1439 -0.0467 -0.1702
 1978POSM   NC323207  16.406  19.027  11.558 -0.2066  0.1071  0.1080
 1978POSM   PO423208  16.441  19.307  11.809 -0.3795 -0.0291  0.1074
 1978POSM   AM123209  16.613  19.470  12.024 -0.2631  0.1921  0.1680
 1978POSM   AM223210  16.718  19.730  12.034 -0.1960 -0.0790 -0.0125
 1978POSM   T1A23211  16.888  19.529  12.448 -0.0086  0.0500 -0.1601
 1978POSM   C2A23212  17.075  19.397  12.880  0.2151  0.3986  0.0637
 1978POSM   C3A23213  16.854  19.330  13.268  0.0028 -0.0498 -0.2529
 1978POSM   C1B23214  16.943  19.938  12.203  0.0038 -0.0859 -0.0150
 1978POSM   D2B23215  17.310  20.052  12.484 -0.1982  0.0582 -0.0001
 1978POSM   C3B23216  17.225  20.346  12.872 -0.3541  0.4481 -0.4018
 1978POSM   C4B23217  17.236  20.575  13.308 -0.0781 -0.0175  0.0465
 1979DOPE   NH323218  13.554  17.692  11.294 -0.0968 -0.1590  0.1330
 1979DOPE   PO423219  13.509  18.037  11.387 -0.3091 -0.0620 -0.2677
 1979DOPE   GL123220  13.501  18.179  11.787  0.2070  0.0376 -0.1682
 1979DOPE   GL223221  13.531  17.935  11.913 -0.0318  0.0109  0.2532
 1979DOPE   C1A23222  13.385  18.298  12.252  0.0260  0.4271 -0.0326
 1979DOPE   D2A23223  13.380  18.442  12.654  0.1729 -0.0629  0.0096
 1979DOPE   C3A23224  13.031  18.238  12.812 -0.0379 -0.1012 -0.0707
 1979DOPE   C4A23225  13.002  18.193  13.287  0.0678 -0.3176 -0.1608
 1979DOPE   C1B23226  13.802  17.906  12.305 -0.0452 -0.1551 -0.0137
 1979DOPE   D2B23227  14.091  18.076  12.634  0.0673  0.0771 -0.1648
 1979DOPE   C3B23228  13.927  18.468  12.849  0.4589 -0.0540 -0.2339
 1979DOPE   C4B23229  13.714  18.805  13.079 -0.0904 -0.1858 -0.1581
 1980DOPE   NH323230  21.055  18.354  11.579 -0.1517 -0.2888 -0.1974
 1980DOPE   PO423231  20.925  18.404  11.870  0.1875 -0.2437  0.0664
 1980DOPE   GL123232  21.085  18.528  12.219  0.3969  0.2495 -0.1731
 1980DOPE   GL223233  20.825  18.689  12.258  0.2466 -0.0947 -0.1138
 1980DOPE   C1A23234  20.904  18.324  12.568  0.1751  0.4363 -0.0991
 1980DOPE   D2A23235  20.771  18.094  13.030 -0.2024  0.0158  0.1075
 1980DOPE   C3A23236  20.723  17.649  13.029 -0.0216 -0.0368 -0.2470
 1980DOPE   C4A23237  20.457  17.278  13.099  0.1073  0.2597  0.5558
 1980DOPE   C1B23238  20.611  18.772  12.707  0.1717 -0.0272 -0.1487
 1980DOPE   D2B23239  20.518  18.506  13.062  0.0822  0.2523 -0.2168
 1980DOPE   C3B23240  20.810  18.592  13.438 -0.0208 -0.0924 -0.1938
 1980DOPE   C4B23241  21.042  18.779  13.763  0.0132  0.0542  0.1084
 1981DOPS   CNO23242  18.245  10.930  12.011  0.0951 -0.1058  0.1353
 1981DOPS   PO423243  18.169  10.871  12.400  0.1499 -0.1095  0.0746
 1981DOPS   GL123244  18.493  10.945  12.694  0.0687  0.0546  0.0690
 1981DOPS   GL223245  18.299  11.076  12.876 -0.0653  0.3733 -0.0018
 1981DOPS   C1A23246  18.761  10.701  13.001  0.2587 -0.1822  0.1253
 1981DOPS   D2A23247  19.051  10.277  13.024 -0.0752 -0.1848  0.3349
 1981DOPS   C3A23248  18.921   9.981  13.316  0.2271 -0.2897  0.1326
 1981DOPS   C4A23249  19.143   9.677  13.682 -0.1370  0.1768  0.1892
 1981DOPS   C1B23250  18.337  11.463  13.097 -0.1208  0.2494  0.2511
 1981DOPS   D2B23251  18.486  11.647  13.478 -0.1370 -0.2044 -0.0086
 1981DOPS   C3B23252  18.840  11.390  13.682  0.2420 -0.0224  0.2088
 1981DOPS   C4B23253  19.153  11.116  13.920  0.2843  0.0878 -0.3958
 1982DOPE   NH323254  12.596  10.724  11.956  0.0060 -0.2298 -0.1553
 1982DOPE   PO423255  12.289  10.691  12.055 -0.2086 -0.0924  0.1594
 1982DOPE   GL123256  12.359  11.189  12.097 -0.1147  0.0375  0.1403
 1982DOPE   GL223257  12.698  11.267  12.056  0.4954 -0.3209  0.1512
 1982DOPE   C1A23258  12.292  11.670  12.128 -0.1958  0.1945  0.0456
 1982DOPE   D2A23259  12.543  12.025  12.271 -0.1304  0.0254 -0.1083
 1982DOPE   C3A23260  12.319  12.395  12.446 -0.0089  0.0197  0.0812
 1982DOPE   C4A23261  12.082  12.737  12.444  0.2313  0.2197 -0.0240
 1982DOPE   C1B23262  12.952  11.646  12.027  0.1508 -0.1351 -0.1103
 1982DOPE   D2B23263  13.075  12.101  12.166 -0.0244  0.1963 -0.2919
 1982DOPE   C3B23264  12.841  12.440  12.429  0.0521  0.1390  0.0568
 1982DOPE   C4B23265  12.592  12.776  12.621  0.2211 -0.2546  0.0027
 1983DOPE   NH323266  21.089  11.274  12.114  0.0276  0.2803 -0.0329
 1983DOPE   PO423267  20.933  11.521  11.965  0.1290 -0.0942 -0.0847
 1983DOPE   GL123268  20.851  11.939  11.895  0.0703 -0.0752 -0.2112
 1983DOPE   GL223269  21.176  11.973  11.952  0.1260  0.1107 -0.1018
 1983DOPE   C1A23270  20.809  12.361  12.098 -0.0478 -0.3811 -0.1106
 1983DOPE   D2A23271  20.994  12.584  12.508 -0.0064 -0.0063  0.1997
 1983DOPE   C3A23272  21.102  12.787  12.937  0.3613  0.0249  0.0180
 1983DOPE   C4A23273  21.244  12.914  13.354  0.3808 -0.2789 -0.2173
 1983DOPE   C1B23274  21.040  12.080  12.424 -0.2870 -0.1759 -0.0284
 1983DOPE   D2B23275  20.616  12.204  12.514  0.0962  0.1619  0.1392
 1983DOPE   C3B23276  20.654  12.426  12.847  0.1373  0.3266 -0.1222
 1983DOPE   C4B23277  20.770  12.575  13.323  0.1612  0.1094  0.1220
 1984POSM   NC323278  23.333  22.446  11.498 -0.1127  0.0560 -0.2084
 1984POSM   PO423279  23.597  22.435  11.846 -0.0519 -0.0676 -0.0697
 1984POSM   AM123280  23.365  22.207  11.924 -0.3166 -0.1578 -0.2331
 1984POSM   AM223281  23.289  22.087  12.158 -0.2259 -0.1891  0.1941
 1984POSM   T1A23282  23.026  21.869  11.804 -0.0390 -0.0289 -0.1049
 1984POSM   C2A23283  22.636  21.649  11.813 -0.2268 -0.0552 -0.0634
 1984POSM   C3A23284  22.536  21.170  11.647 -0.0315  0.0166 -0.2411
 1984POSM   C1B23285  22.989  21.955  12.306 -0.0723  0.1602 -0.1386
 1984POSM   D2B23286  22.634  21.859  12.617 -0.3665  0.1773  0.0271
 1984POSM   C3B23287  22.921  21.533  12.799  0.0778  0.0925  0.2929
 1984POSM   C4B23288  23.133  21.559  13.240  0.2537 -0.0208  0.0638
 1985DOPC   NC323289  22.839  19.090  11.330  0.3210  0.1177 -0.0105
 1985DOPC   PO423290  22.758  19.438  11.513  0.1076  0.0143 -0.0375
 1985DOPC   GL123291  22.550  19.564  11.899 -0.2559  0.0136 -0.2585
 1985DOPC   GL223292  22.823  19.710  11.960  0.0610  0.0914 -0.1918
 1985DOPC   C1A23293  22.468  19.678  12.327 -0.0159 -0.2032  0.1056
 1985DOPC   D2A23294  22.592  19.986  12.651  0.0716 -0.0756 -0.0019
 1985DOPC   C3A23295  22.777  19.714  13.048 -0.2421 -0.1695 -0.0730
 1985DOPC   C4A23296  22.604  19.345  13.276  0.3249 -0.2043  0.1919
 1985DOPC   C1B23297  23.244  19.845  12.103 -0.0273  0.1735  0.3185
 1985DOPC   D2B23298  23.645  20.062  12.100  0.0007  0.0739  0.3135
 1985DOPC   C3B23299  23.752  20.407  12.418 -0.2817  0.0442  0.3370
 1985DOPC   C4B23300  23.527  20.740  12.679 -0.3617  0.2008 -0.2371
 1986DOPC   NC323301  15.945  10.964  12.042 -0.1094 -0.0639  0.0553
 1986DOPC   PO423302  15.629  10.902  11.824  0.1563  0.3379  0.1201
 1986DOPC   GL123303  15.599  11.296  12.014  0.1962 -0.3218  0.0538
 1986DOPC   GL223304  15.492  11.221  12.250 -0.1316  0.2118 -0.3045
 1986DOPC   C1A23305  15.822  11.613  12.276  0.1022  0.2071  0.1190
 1986DOPC   D2A23306  16.078  11.884  12.607  0.2424  0.1009 -0.0507
 1986DOPC   C3A23307  16.239  11.742  13.033  0.1634 -0.0188 -0.1707
 1986DOPC   C4A23308  16.456  11.685  13.441 -0.0600 -0.0291  0.0146
 1986DOPC   C1B23309  15.414  11.282  12.690 -0.0197 -0.1618  0.0223
 1986DOPC   D2B23310  15.485  11.348  13.162  0.1978 -0.1376  0.2786
 1986DOPC   C3B23311  15.468  11.084  13.571 -0.0029 -0.1959  0.0044
 1986DOPC   C4B23312  15.417  10.638  13.803  0.1034  0.4136  0.0786
 1987DOPE   NH323313  14.194  11.275  11.592  0.0538  0.1193  0.1483
 1987DOPE   PO423314  14.451  11.059  11.632  0.1262  0.2161 -0.1731
 1987DOPE   GL123315  14.574  11.259  11.908 -0.0151  0.3940 -0.1984
 1987DOPE   GL223316  14.602  11.175  12.213  0.2288  0.3179  0.2408
 1987DOPE   C1A23317  14.974  11.406  12.057 -0.4408 -0.2616 -0.1531
 1987DOPE   D2A23318  15.162  11.734  12.309  0.0500  0.0935 -0.4150
 1987DOPE   C3A23319  15.380  11.955  12.639 -0.1564  0.4753  0.1287
 1987DOPE   C4A23320  15.326  11.846  13.106  0.0631  0.2997  0.0579
 1987DOPE   C1B23321  14.623  11.650  12.374 -0.1721 -0.0955 -0.3395
 1987DOPE   D2B23322  14.527  12.115  12.454 -0.1873 -0.0731  0.6071
 1987DOPE   C3B23323  14.273  12.111  12.843  0.1595  0.0509 -0.0375
 1987DOPE   C4B23324  13.978  12.178  13.250  0.0095 -0.0280  0.2410
 1988DOPE   NH323325  18.316  15.414  11.400 -0.0510 -0.2962 -0.1386
 1988DOPE   PO423326  18.625  15.367  11.426 -0.3228  0.0105  0.1282
 1988DOPE   GL123327  18.530  15.435  11.815 -0.0492 -0.0343  0.0834
 1988DOPE   GL223328  18.622  15.241  11.981 -0.2672  0.3580 -0.0606
 1988DOPE   C1A23329  18.702  15.868  11.931  0.0790  0.2100  0.0460
 1988DOPE   D2A23330  19.102  16.032  12.116  0.0468 -0.1336  0.0030
 1988DOPE   C3A23331  19.138  15.634  12.309 -0.1377 -0.0103 -0.1167
 1988DOPE   C4A23332  19.003  15.579  12.752 -0.0676 -0.2060 -0.4489
 1988DOPE   C1B23333  19.074  15.285  11.860 -0.0482 -0.3445  0.0724
 1988DOPE   D2B23334  19.512  15.362  11.749 -0.0642 -0.3474 -0.2641
 1988DOPE   C3B23335  19.945  15.392  11.951 -0.1543 -0.1070 -0.1762
 1988DOPE   C4B23336  20.234  15.396  12.340 -0.2756  0.2499  0.0378
 1989POSM   NC323337  17.684  12.286  11.849  0.0739  0.2436 -0.0630
 1989POSM   PO423338  17.662  11.895  11.975  0.0098  0.0677 -0.1500
 1989POSM   AM123339  17.547  12.049  12.211  0.1304  0.2095 -0.1647
 1989POSM   AM223340  17.300  12.136  12.322 -0.1322 -0.3894  0.1608
 1989POSM   T1A23341  17.705  12.425  12.540 -0.1917  0.0632  0.0360
 1989POSM   C2A23342  18.068  12.603  12.750 -0.3285 -0.0237  0.2032
 1989POSM   C3A23343  18.499  12.779  12.861  0.0044 -0.0739  0.2325
 1989POSM   C1B23344  17.120  12.192  12.582  0.0005  0.1394 -0.3140
 1989POSM   D2B23345  16.833  12.474  12.853 -0.1998  0.1712  0.0987
 1989POSM   C3B23346  16.976  12.642  13.176 -0.1823  0.0281 -0.4441
 1989POSM   C4B23347  16.997  13.055  13.371  0.1517  0.1613 -0.0058
 1990POSM   NC323348  19.755  17.423  11.235  0.0187 -0.0045 -0.1626
 1990POSM   PO423349  19.925  17.268  11.542 -0.2666  0.0331 -0.2819
 1990POSM   AM123350  19.674  17.135  11.700  0.6270 -0.0970  0.2542
 1990POSM   AM223351  19.433  17.077  11.616  0.3068  0.1623  0.1668
 1990POSM   T1A23352  19.672  16.721  11.987 -0.0186 -0.3082  0.0980
 1990POSM   C2A23353  20.026  16.631  12.315 -0.0256  0.0986 -0.0250
 1990POSM   C3A23354  20.379  16.362  12.490 -0.1259 -0.2357 -0.2842
 1990POSM   C1B23355  19.197  17.025  11.811 -0.0358 -0.0600 -0.0856
 1990POSM   D2B23356  18.989  16.787  12.188  0.2637 -0.2201 -0.0799
 1990POSM   C3B23357  19.068  16.461  12.554 -0.0849  0.0188 -0.1100
 1990POSM   C4B23358  18.876  16.563  12.948  0.0490 -0.3266  0.2233
 1991POSM   NC323359  11.405  22.251  11.717 -0.0365  0.2808  0.2724
 1991POSM   PO423360  11.803  22.363  11.843  0.1598 -0.3728 -0.2314
 1991POSM   AM123361  12.071  22.351  11.983 -0.3966 -0.1045 -0.1106
 1991POSM   AM223362  12.129  22.436  12.258 -0.3143 -0.0791 -0.1874
 1991POSM   T1A23363  12.439  22.008  11.973  0.0690  0.4126 -0.3004
 1991POSM   C2A23364  12.589  21.596  11.980  0.3742 -0.1324 -0.0186
 1991POSM   C3A23365  12.650  21.120  11.905 -0.1690 -0.3221  0.2454
 1991POSM   C1B23366  12.251  22.178  12.364 -0.0324 -0.2011 -0.2056
 1991POSM   D2B23367  12.259  21.708  12.373 -0.0491 -0.0431  0.3270
 1991POSM   C3B23368  12.574  21.365  12.393 -0.2245 -0.2349 -0.2618
 1991POSM   C4B23369  12.630  20.880  12.449  0.3230  0.0966 -0.2292
 1992POSM   NC323370  23.174  14.587  11.878  0.2798  0.0372 -0.1226
 1992POSM   PO423371  22.971  14.324  11.704  0.0197 -0.0085 -0.2381
 1992POSM   AM123372  22.636  14.348  11.732 -0.0694 -0.1586  0.3299
 1992POSM   AM223373  22.422  14.329  11.915 -0.1054 -0.1750 -0.1378
 1992POSM   T1A23374  22.118  14.345  11.545  0.2462  0.2979  0.0694
 1992POSM   C2A23375  21.661  14.466  11.556 -0.0907 -0.2755  0.0184
 1992POSM   C3A23376  21.255  14.460  11.774 -0.0511  0.5935  0.3221
 1992POSM   C1B23377  22.090  14.273  11.998  0.0354  0.0031  0.0960
 1992POSM   D2B23378  21.678  14.361  12.290  0.1063 -0.0932 -0.2046
 1992POSM   C3B23379  21.339  14.703  12.343  0.0499  0.1385  0.0346
 1992POSM   C4B23380  20.909  14.921  12.209  0.1795  0.1199  0.0593
 1993DOPC   NC323381  14.568  17.861  11.401  0.0390 -0.2606 -0.1997
 1993DOPC   PO423382  14.498  17.507  11.495  0.1279  0.0080  0.1661
 1993DOPC   GL123383  14.304  17.360  11.927 -0.0994 -0.0223  0.4571
 1993DOPC   GL223384  14.545  17.253  11.953 -0.0135  0.3746 -0.1387
 1993DOPC   C1A23385  14.376  17.431  12.359  0.1719  0.1773  0.1775
 1993DOPC   D2A23386  14.614  17.575  12.686 -0.2285 -0.0439 -0.1676
 1993DOPC   C3A23387  14.883  17.206  12.876 -0.0146 -0.1552  0.1144
 1993DOPC   C4A23388  15.232  16.896  12.905  0.3618  0.2312 -0.0727
 1993DOPC   C1B23389  14.722  17.016  12.262 -0.2735 -0.1743 -0.0068
 1993DOPC   D2B23390  14.964  16.644  12.338  0.0516 -0.1563 -0.2976
 1993DOPC   C3B23391  15.364  16.583  12.481 -0.0946 -0.2782  0.2469
 1993DOPC   C4B23392  15.648  16.747  12.728  0.2947  0.2493 -0.3204
 1994DOPC   NC323393  19.439  12.153  11.882 -0.0451  0.1366 -0.1159
 1994DOPC   PO423394  19.636  12.118  11.545  0.1559  0.0805  0.0184
 1994DOPC   GL123395  19.925  12.198  11.925  0.3617 -0.4889  0.2145
 1994DOPC   GL223396  20.174  12.375  11.872  0.1906  0.4326  0.1038
 1994DOPC   C1A23397  20.078  12.276  12.352 -0.1894 -0.2311 -0.2155
 1994DOPC   D2A23398  20.153  12.384  12.828  0.3586  0.0047 -0.1806
 1994DOPC   C3A23399  20.336  12.705  13.108  0.0732 -0.0739  0.0837
 1994DOPC   C4A23400  19.963  12.942  13.307  0.0923  0.0946  0.0060
 1994DOPC   C1B23401  20.491  12.620  11.830 -0.0836  0.2300  0.3041
 1994DOPC   D2B23402  20.697  12.814  12.198 -0.1298  0.0879  0.0538
 1994DOPC   C3B23403  21.151  12.856  12.110 -0.0263  0.2479 -0.0077
 1994DOPC   C4B23404  21.448  12.806  12.493 -0.1248 -0.5938 -0.1462
 1995DOPE   NH323405  20.316  19.593  11.285  0.1168 -0.1497  0.2791
 1995DOPE   PO423406  20.091  19.351  11.264 -0.0360  0.2033  0.0002
 1995DOPE   GL123407  20.196  19.145  11.544  0.1618 -0.1057 -0.2496
 1995DOPE   GL223408  20.328  19.371  11.769  0.3922 -0.5600 -0.0965
 1995DOPE   C1A23409  19.914  19.170  11.950  0.2192  0.3109  0.1199
 1995DOPE   D2A23410  19.646  18.935  12.233  0.0448 -0.1175 -0.1789
 1995DOPE   C3A23411  19.610  19.039  12.681 -0.1005 -0.2031  0.2263
 1995DOPE   C4A23412  19.530  18.931  13.140  0.2013  0.0240 -0.0309
 1995DOPE   C1B23413  20.165  19.676  12.082 -0.0024 -0.0294  0.2587
 1995DOPE   D2B23414  19.830  19.955  12.232  0.1108 -0.0978 -0.2401
 1995DOPE   C3B23415  19.859  20.426  12.343  0.2580 -0.0371  0.0081
 1995DOPE   C4B23416  19.541  20.762  12.427 -0.0789  0.0589 -0.1714
 1996DOPC   NC323417  18.606  18.251  11.686  0.0709  0.3485  0.1274
 1996DOPC   PO423418  18.983  18.450  11.702 -0.0154  0.1983  0.1733
 1996DOPC   GL123419  19.360  18.517  11.773  0.3364 -0.1950 -0.4308
 1996DOPC   GL223420  19.360  18.848  11.834  0.2585 -0.1171  0.0136
 1996DOPC   C1A23421  19.816  18.627  11.843  0.2296 -0.1445  0.0016
 1996DOPC   D2A23422  19.912  18.712  11.404 -0.0342  0.1573  0.0329
 1996DOPC   C3A23423  19.578  18.838  11.099 -0.2938 -0.4460  0.5298
 1996DOPC   C4A23424  19.387  18.716  10.724 -0.2451  0.3145 -0.2095
 1996DOPC   C1B23425  19.190  19.178  12.110 -0.1096 -0.1467  0.0306
 1996DOPC   D2B23426  18.895  19.267  12.465  0.3447 -0.3918 -0.3417
 1996DOPC   C3B23427  19.196  19.545  12.645 -0.1102 -0.0147  0.0723
 1996DOPC   C4B23428  19.437  19.911  12.566 -0.1567 -0.1472 -0.0035
 1997DOPC   NC323429  21.628  19.183  10.930 -0.0513 -0.0247 -0.3099
 1997DOPC   PO423430  21.863  19.203  11.264 -0.2521  0.1314 -0.0449
 1997DOPC   GL123431  21.946  19.398  11.678  0.0454 -0.1223  0.3733
 1997DOPC   GL223432  22.151  19.688  11.621 -0.3563  0.0552  0.0054
 1997DOPC   C1A23433  21.928  19.739  12.004 -0.2216 -0.3603 -0.2263
 1997DOPC   D2A23434  21.742  20.047  12.341  0.1140 -0.0341 -0.0459
 1997DOPC   C3A23435  21.797  20.338  12.058  0.0152 -0.1868 -0.1358
 1997DOPC   C4A23436  21.909  20.758  12.224 -0.1399  0.2143 -0.1671
 1997DOPC   C1B23437  22.431  20.007  11.852 -0.1309  0.3718 -0.3344
 1997DOPC   D2B23438  22.251  20.198  12.238 -0.0363 -0.2359 -0.2871
 1997DOPC   C3B23439  22.205  20.482  12.596  0.0624 -0.0612 -0.0818
 1997DOPC   C4B23440  21.982  20.586  12.981  0.1208 -0.0962 -0.0664
 1998DOPS   CNO23441  20.368  23.161  11.516 -0.3102 -0.2499 -0.1631
 1998DOPS   PO423442  20.058  23.033  11.316  0.0316  0.0489  0.4543
 1998DOPS   GL123443  19.805  23.267  11.575  0.1488 -0.3126  0.2027
 1998DOPS   GL223444  19.770  23.121  11.811 -0.0599 -0.1326 -0.4216
 1998DOPS   C1A23445  19.844  23.717  11.560  0.0855  0.0510 -0.0753
 1998DOPS   D2A23446  19.735  24.212  11.461 -0.0857  0.1312 -0.1962
 1998DOPS   C3A23447  20.165  24.359  11.649  0.1657 -0.2666  0.1118
 1998DOPS   C4A23448  20.369  24.759  11.587  0.0610 -0.1166 -0.1239
 1998DOPS   C1B23449  20.020  23.342  12.122  0.2558 -0.3652 -0.0234
 1998DOPS   D2B23450  19.977  23.495  12.512 -0.2553  0.0159  0.0005
 1998DOPS   C3B23451  20.133  23.337  12.922 -0.0090  0.1944  0.0473
 1998DOPS   C4B23452  20.043  23.287  13.357 -0.1232  0.0788 -0.0522
 1999POSM   NC323453  23.198  16.893  11.735 -0.1111  0.3445 -0.1002
 1999POSM   PO423454  23.313  16.624  11.972  0.1124 -0.0604 -0.1829
 1999POSM   AM123455  22.973  16.651  12.085  0.0095  0.2356  0.3710
 1999POSM   AM223456  22.868  16.640  12.358  0.0618  0.1493 -0.2058
 1999POSM   T1A23457  22.510  16.834  12.030 -0.2824  0.0873 -0.1055
 1999POSM   C2A23458  22.068  16.997  11.972 -0.2640  0.0811  0.3504
 1999POSM   C3A23459  21.626  16.916  12.043  0.1622 -0.0110  0.3238
 1999POSM   C1B23460  22.555  16.548  12.426 -0.0220  0.2746  0.0147
 1999POSM   D2B23461  22.210  16.257  12.478 -0.3445 -0.0670 -0.0268
 1999POSM   C3B23462  21.778  16.388  12.571  0.1539 -0.2471  0.1436
 1999POSM   C4B23463  21.411  16.438  12.847 -0.1891 -0.1385  0.0532
 2000DOPS   CNO23464  18.837  22.503  11.313 -0.2237  0.0784 -0.1172
 2000DOPS   PO423465  18.823  22.260  11.572 -0.0928 -0.1154  0.0877
 2000DOPS   GL123466  18.601  21.889  11.395  0.0486 -0.1238  0.0084
 2000DOPS   GL223467  18.403  21.785  11.585 -0.1810  0.0047  0.0544
 2000DOPS   C1A23468  18.603  21.446  11.222 -0.1417 -0.0787  0.1296
 2000DOPS   D2A23469  18.802  21.018  11.260  0.5621  0.2094 -0.0035
 2000DOPS   C3A23470  19.135  20.990  11.555 -0.0488 -0.0164 -0.1471
 2000DOPS   C4A23471  19.653  20.995  11.546  0.0817  0.0533 -0.0457
 2000DOPS   C1B23472  18.330  21.375  11.689  0.0966 -0.1048  0.1077
 2000DOPS   D2B23473  18.329  20.899  11.699  0.2016  0.1146 -0.1555
 2000DOPS   C3B23474  18.740  20.742  11.733  0.1455  0.2157  0.1382
 2000DOPS   C4B23475  19.120  20.510  11.783  0.1801  0.0998 -0.2699
 2001POSM   NC323476  13.321  16.837  11.435 -0.0173 -0.1873  0.2470
 2001POSM   PO423477  13.482  17.200  11.393  0.0746  0.0577 -0.0464
 2001POSM   AM123478  13.454  17.136  11.742  0.1601 -0.1075 -0.3101
 2001POSM   AM223479  13.440  16.952  11.924 -0.0907 -0.1506 -0.0205
 2001POSM   T1A23480  13.268  17.314  12.204  0.2431 -0.1557  0.0372
 2001POSM   C2A23481  12.921  17.502  12.441 -0.0936  0.2949 -0.3171
 2001POSM   C3A23482  12.890  17.660  12.859 -0.0322 -0.1191  0.1169
 2001POSM   C1B23483  13.503  16.855  12.271 -0.2279 -0.1178 -0.0223
 2001POSM   D2B23484  13.774  16.875  12.629  0.1072 -0.0751 -0.1839
 2001POSM   C3B23485  14.112  17.144  12.827 -0.2970 -0.0109  0.2422
 2001POSM   C4B23486  14.458  17.169  13.076 -0.0448  0.0100 -0.0822
 2002DOPC   NC323487  14.681  19.698  11.409  0.0755 -0.1371 -0.2501
 2002DOPC   PO423488  15.073  19.607  11.434  0.1949 -0.1472 -0.2704
 2002DOPC   GL123489  15.097  19.881  11.752  0.0585  0.1833 -0.2586
 2002DOPC   GL223490  14.842  19.734  11.872 -0.3084  0.1067 -0.2078
 2002DOPC   C1A23491  15.246  20.152  12.130 -0.1954 -0.2555 -0.1462
 2002DOPC   D2A23492  15.434  20.534  12.343  0.0123 -0.0953 -0.2755
 2002DOPC   C3A23493  15.875  20.589  12.256  0.2511 -0.2475  0.1783
 2002DOPC   C4A23494  16.331  20.578  12.070 -0.0550  0.0662  0.3394
 2002DOPC   C1B23495  14.675  19.901  12.309 -0.0886 -0.0330 -0.1874
 2002DOPC   D2B23496  14.316  20.152  12.517 -0.0697  0.0789  0.1478
 2002DOPC   C3B23497  13.901  20.092  12.725 -0.2516 -0.0499 -0.1302
 2002DOPC   C4B23498  13.579  19.913  12.904 -0.2452 -0.0712 -0.0772
 2003DOPC   NC323499  21.185  16.788  12.208 -0.2184 -0.2667  0.3628
 2003DOPC   PO423500  20.844  16.899  12.057 -0.1719 -0.0226  0.2052
 2003DOPC   GL123501  20.684  16.647  12.313 -0.0953 -0.1077 -0.2727
 2003DOPC   GL223502  20.777  16.398  12.196  0.3731  0.2903  0.0055
 2003DOPC   C1A23503  20.586  16.829  12.772  0.4437 -0.1166 -0.2036
 2003DOPC   D2A23504  20.228  16.624  12.980 -0.1687 -0.0543 -0.1664
 2003DOPC   C3A23505  20.217  16.102  12.976  0.1188 -0.4691 -0.1893
 2003DOPC   C4A23506  20.414  15.851  13.317  0.1344  0.1188 -0.0739
 2003DOPC   C1B23507  20.855  15.925  12.295  0.0515  0.0689  0.2646
 2003DOPC   D2B23508  20.797  15.460  12.292  0.1777  0.1768 -0.0170
 2003DOPC   C3B23509  20.546  15.353  11.863 -0.1375  0.2038  0.0975
 2003DOPC   C4B23510  20.294  15.544  11.523  0.0438 -0.2024  0.2411
 2004DOPC   NC323511  13.389  10.645  11.909 -0.1422  0.1114 -0.0479
 2004DOPC   PO423512  13.105  10.884  11.965  0.2710  0.2414 -0.2118
 2004DOPC   GL123513  13.261  11.026  12.237 -0.5372 -0.2524  0.0564
 2004DOPC   GL223514  13.333  11.279  12.026  0.3198 -0.4216  0.2239
 2004DOPC   C1A23515  13.012  11.330  12.487  0.2871 -0.0018 -0.0254
 2004DOPC   D2A23516  12.589  11.538  12.483 -0.2388 -0.0838  0.0086
 2004DOPC   C3A23517  12.485  11.772  12.861  0.0032 -0.1394  0.3760
 2004DOPC   C4A23518  12.138  11.710  13.199  0.0555  0.0915 -0.1173
 2004DOPC   C1B23519  13.367  11.714  12.255 -0.1274  0.1626  0.3443
 2004DOPC   D2B23520  13.575  12.115  12.275  0.1367  0.0840 -0.1628
 2004DOPC   C3B23521  13.854  12.328  12.573 -0.0426  0.1482  0.2798
 2004DOPC   C4B23522  14.254  12.526  12.483  0.0685 -0.3000 -0.0762
 2005POSM   NC323523  20.581  22.636  11.248 -0.1435 -0.0428  0.1777
 2005POSM   PO423524  20.281  22.614  11.554  0.2234  0.0053  0.2620
 2005POSM   AM123525  20.237  22.564  11.895  0.0944 -0.1637 -0.1193
 2005POSM   AM223526  20.270  22.384  12.089 -0.2869 -0.0211 -0.0153
 2005POSM   T1A23527  20.010  22.722  12.300 -0.3593 -0.2499  0.0099
 2005POSM   C2A23528  19.833  22.866  12.653  0.0461  0.1916 -0.1703
 2005POSM   C3A23529  19.704  22.928  13.122  0.3022 -0.2046  0.1546
 2005POSM   C1B23530  20.220  22.129  12.259  0.0267 -0.0994 -0.0081
 2005POSM   D2B23531  19.944  21.771  12.450 -0.0791 -0.1126 -0.3100
 2005POSM   C3B23532  19.488  21.927  12.633 -0.1288  0.0565  0.3259
 2005POSM   C4B23533  19.232  22.117  12.930 -0.2204 -0.0328  0.1270
 2006POSM   NC323534  13.022  15.338  11.511 -0.0845 -0.1679  0.1173
 2006POSM   PO423535  13.145  15.036  11.255 -0.1655 -0.1735  0.3890
 2006POSM   AM123536  13.438  14.928  11.394 -0.2232 -0.1744 -0.2751
 2006POSM   AM223537  13.736  15.025  11.422 -0.2295 -0.1859  0.0121
 2006POSM   T1A23538  13.586  14.479  11.626 -0.2945 -0.3686  0.1519
 2006POSM   C2A23539  13.432  14.036  11.708  0.0978  0.0794 -0.0525
 2006POSM   C3A23540  13.338  13.714  12.046 -0.0081  0.2595  0.3106
 2006POSM   C1B23541  13.946  14.792  11.585  0.0267 -0.2669  0.1150
 2006POSM   D2B23542  14.321  14.646  11.810 -0.1302 -0.1529  0.0007
 2006POSM   C3B23543  14.478  14.220  11.835  0.1880 -0.1763 -0.2212
 2006POSM   C4B23544  14.520  13.817  12.123 -0.4578 -0.0866 -0.2416
 2007DOPE   NH323545  17.386  14.791  11.668  0.0768 -0.0242  0.0099
 2007DOPE   PO423546  17.374  15.115  11.680  0.2712  0.1284 -0.2463
 2007DOPE   GL123547  17.486  15.237  12.005 -0.0335  0.2566  0.1018
 2007DOPE   GL223548  17.466  14.998  12.152  0.1063 -0.0191  0.0296
 2007DOPE   C1A23549  17.630  15.664  12.144  0.2003 -0.0325  0.0308
 2007DOPE   D2A23550  17.819  16.048  12.038  0.1881  0.4175  0.1659
 2007DOPE   C3A23551  17.603  16.388  12.278 -0.1095  0.1802  0.2434
 2007DOPE   C4A23552  17.218  16.579  12.019  0.2759  0.0834  0.2192
 2007DOPE   C1B23553  17.332  15.329  12.410 -0.0964 -0.1775 -0.3062
 2007DOPE   D2B23554  17.124  15.699  12.301 -0.1168 -0.0358  0.0019
 2007DOPE   C3B23555  16.808  15.931  12.113  0.0831  0.4417 -0.0847
 2007DOPE   C4B23556  16.690  16.280  11.928  0.1679 -0.2261 -0.0202
 2008DOPS   CNO23557  23.153  15.130  11.628 -0.1280  0.6174  0.0687
 2008DOPS   PO423558  23.106  15.045  12.015  0.2293  0.1357 -0.1091
 2008DOPS   GL123559  23.120  15.225  12.394 -0.0223 -0.1801  0.2386
 2008DOPS   GL223560  22.895  14.989  12.502  0.3453  0.1929  0.3072
 2008DOPS   C1A23561  23.041  15.720  12.430  0.2430 -0.0766  0.0984
 2008DOPS   D2A23562  23.126  16.208  12.409  0.0031  0.0402  0.1989
 2008DOPS   C3A23563  23.078  16.500  12.815  0.0897  0.1408 -0.1382
 2008DOPS   C4A23564  23.268  16.769  13.108  0.1944  0.2214  0.0651
 2008DOPS   C1B23565  22.526  15.028  12.815  0.0505 -0.0153 -0.2910
 2008DOPS   D2B23566  22.117  15.038  12.631  0.1903 -0.2753 -0.0167
 2008DOPS   C3B23567  21.796  14.882  12.275 -0.2766  0.1584 -0.0648
 2008DOPS   C4B23568  21.648  14.895  11.845 -0.0200 -0.1229  0.3377
 2009DOPE   NH323569  23.298  22.805  12.097  0.0098 -0.1787 -0.0580
 2009DOPE   PO423570  23.098  22.553  12.118 -0.1517  0.0032 -0.1353
 2009DOPE   GL123571  23.132  22.365  12.480 -0.3712 -0.4779  0.4289
 2009DOPE   GL223572  23.219  22.469  12.772 -0.0449 -0.0302  0.1581
 2009DOPE   C1A23573  23.056  22.004  12.823  0.0097 -0.0163  0.0439
 2009DOPE   D2A23574  23.140  22.103  13.243  0.0454 -0.0479 -0.0336
 2009DOPE   C3A23575  23.537  22.327  13.288 -0.1520 -0.1356  0.2058
 2009DOPE   C4A23576  23.974  22.403  13.428 -0.2910 -0.3330 -0.1421
 2009DOPE   C1B23577  23.199  22.692  13.178 -0.3569 -0.0174  0.0485
 2009DOPE   D2B23578  23.451  22.876  13.505  0.2709  0.0647 -0.1118
 2009DOPE   C3B23579  23.381  23.200  13.787  0.0171 -0.1694 -0.1467
 2009DOPE   C4B23580  22.974  23.404  14.063  0.0836 -0.1536  0.1040
 2010DOPC   NC323581  13.216  15.989  11.540  0.1173 -0.0106  0.0938
 2010DOPC   PO423582  13.091  16.364  11.447  0.1344 -0.2706 -0.2071
 2010DOPC   GL123583  12.828  16.640  11.448  0.3016  0.1408 -0.0591
 2010DOPC   GL223584  12.634  16.450  11.324 -0.4815  0.2767  0.1358
 2010DOPC   C1A23585  12.471  16.934  11.366 -0.2019 -0.3291 -0.0623
 2010DOPC   D2A23586  12.514  17.394  11.248 -0.2365  0.2856  0.0902
 2010DOPC   C3A23587  12.331  17.798  11.453  0.0524  0.0715 -0.0699
 2010DOPC   C4A23588  12.069  18.170  11.661 -0.1210 -0.0752  0.4000
 2010DOPC   C1B23589  12.212  16.490  11.468 -0.0323  0.0534  0.2938
 2010DOPC   D2B23590  11.830  16.720  11.630 -0.1117 -0.0700  0.0467
 2010DOPC   C3B23591  11.561  16.417  11.487  0.2014 -0.1005  0.3215
 2010DOPC   C4B23592  11.117  16.228  11.411  0.2011 -0.1144 -0.1544
 2011DOPC   NC323593  16.485  14.505  10.777 -0.0699  0.0063 -0.0828
 2011DOPC   PO423594  16.123  14.328  10.917  0.2228  0.2865 -0.2422
 2011DOPC   GL123595  15.770  14.286  11.124 -0.0877  0.1857  0.1069
 2011DOPC   GL223596  15.786  14.496  11.319  0.1114  0.1009  0.6388
 2011DOPC   C1A23597  15.312  14.128  11.319  0.0239  0.0185  0.1591
 2011DOPC   D2A23598  14.961  14.151  11.609  0.0131 -0.1371  0.1661
 2011DOPC   C3A23599  14.693  13.760  11.666 -0.0314  0.1391 -0.0126
 2011DOPC   C4A23600  14.507  13.314  11.616  0.0698 -0.0728 -0.0428
 2011DOPC   C1B23601  15.637  14.326  11.726  0.0422 -0.0497 -0.0064
 2011DOPC   D2B23602  15.383  14.102  11.999 -0.3477 -0.0728  0.0128
 2011DOPC   C3B23603  14.949  14.276  12.115 -0.0402 -0.1270 -0.0123
 2011DOPC   C4B23604  14.633  14.251  12.441 -0.0794 -0.2815 -0.0337
 2012POSM   NC323605  23.473  17.485  12.278 -0.3359 -0.3656  0.2349
 2012POSM   PO423606  23.536  17.168  12.059  0.2209 -0.0794 -0.1449
 2012POSM   AM123607  23.298  17.043  12.216  0.4889 -0.1143 -0.2631
 2012POSM   AM223608  22.991  17.101  12.196 -0.1399 -0.3755 -0.1120
 2012POSM   T1A23609  23.050  16.954  12.679  0.0706 -0.1079  0.0408
 2012POSM   C2A23610  22.697  16.813  12.993 -0.3882 -0.1214 -0.1245
 2012POSM   C3A23611  22.312  16.569  12.901  0.1480 -0.1230 -0.0389
 2012POSM   C1B23612  22.636  17.227  12.303 -0.2782  0.0436 -0.0085
 2012POSM   D2B23613  22.222  17.391  12.231  0.2084 -0.2013 -0.3764
 2012POSM   C3B23614  21.827  17.243  12.429 -0.1358 -0.0515 -0.0968
 2012POSM   C4B23615  21.565  16.878  12.626  0.0397 -0.0804  0.1215
 2013POSM   NC323616  10.823  21.686  11.894 -0.0869 -0.1001 -0.2598
 2013POSM   PO423617  11.116  21.905  12.070 -0.3902 -0.0510 -0.0609
 2013POSM   AM123618  11.125  21.691  12.294 -0.3191  0.0319 -0.0077
 2013POSM   AM223619  11.310  21.586  12.475 -0.0075  0.1399 -0.0290
 2013POSM   T1A23620  11.060  21.200  12.347  0.0279  0.0103 -0.0090
 2013POSM   C2A23621  11.094  20.805  12.583  0.1654 -0.1996  0.3464
 2013POSM   C3A23622  11.210  20.422  12.762 -0.3247  0.2590  0.0342
 2013POSM   C1B23623  11.539  21.302  12.522  0.3465 -0.4425 -0.1636
 2013POSM   D2B23624  11.930  21.252  12.308  0.0880 -0.1414  0.2229
 2013POSM   C3B23625  12.231  21.106  12.621  0.3704 -0.1024  0.1590
 2013POSM   C4B23626  12.507  21.103  12.904 -0.1405 -0.1024  0.0812
 2014DOPS   CNO23627  18.316  14.850  11.418 -0.0490  0.0256 -0.3139
 2014DOPS   PO423628  18.597  14.844  11.676 -0.1406 -0.1114  0.1073
 2014DOPS   GL123629  18.793  14.632  12.011 -0.1079  0.3255 -0.1039
 2014DOPS   GL223630  18.894  14.440  11.811 -0.0149  0.0949 -0.0144
 2014DOPS   C1A23631  19.156  14.516  12.298 -0.0548 -0.4345  0.2545
 2014DOPS   D2A23632  19.637  14.564  12.367  0.1032 -0.2251  0.1036
 2014DOPS   C3A23633  20.144  14.489  12.207  0.1875 -0.0772 -0.1326
 2014DOPS   C4A23634  20.596  14.372  12.032  0.3619  0.1676  0.2539
 2014DOPS   C1B23635  18.856  14.071  11.996 -0.0397  0.2826 -0.1047
 2014DOPS   D2B23636  18.884  13.626  11.757  0.1408  0.1372  0.0585
 2014DOPS   C3B23637  19.184  13.427  11.975  0.0717 -0.3211 -0.1609
 2014DOPS   C4B23638  19.353  13.224  12.379  0.0120  0.0636 -0.0764
 2015POSM   NC323639  14.140  10.914  12.010 -0.1409 -0.0463 -0.4626
 2015POSM   PO423640  13.759  10.994  11.929 -0.4752  0.0370 -0.6744
 2015POSM   AM123641  13.718  11.120  12.284  0.2637  0.0007  0.0476
 2015POSM   AM223642  13.644  10.957  12.495 -0.0952 -0.0247 -0.1051
 2015POSM   T1A23643  13.454  11.370  12.621 -0.3606 -0.0016 -0.0294
 2015POSM   C2A23644  13.175  11.718  12.711  0.1349 -0.1943 -0.0930
 2015POSM   C3A23645  12.833  12.012  12.670 -0.1361  0.1081 -0.1576
 2015POSM   C1B23646  13.745  11.004  12.836  0.0451  0.1839  0.1661
 2015POSM   D2B23647  13.792  10.997  13.301  0.0944  0.2507 -0.1213
 2015POSM   C3B23648  13.996  11.332  13.613 -0.1059 -0.1363  0.2728
 2015POSM   C4B23649  14.473  11.320  13.636 -0.2582  0.0725 -0.1711
 2016DOPE   NH323650  17.601  22.439  11.580 -0.1446 -0.6539  0.1495
 2016DOPE   PO423651  17.315  22.281  11.606 -0.1143 -0.3159  0.0889
 2016DOPE   GL123652  17.232  21.952  11.684  0.0120  0.0718  0.1196
 2016DOPE   GL223653  17.096  21.838  11.486  0.0398  0.1215  0.2768
 2016DOPE   C1A23654  17.295  21.473  11.765  0.0814 -0.1032 -0.3732
 2016DOPE   D2A23655  16.998  21.237  11.933  0.0461  0.0044 -0.1173
 2016DOPE   C3A23656  17.029  20.844  12.087  0.0328  0.0887  0.1778
 2016DOPE   C4A23657  17.359  20.544  12.395 -0.0890  0.1026  0.3974
 2016DOPE   C1B23658  16.897  21.415  11.429  0.0263  0.1018  0.1507
 2016DOPE   D2B23659  16.608  21.110  11.651  0.0019 -0.2174  0.0479
 2016DOPE   C3B23660  16.569  21.119  12.172 -0.5051  0.1901 -0.0378
 2016DOPE   C4B23661  16.353  20.826  12.496  0.0036 -0.0950 -0.1374
 2017DOPE   NH323662  14.260  12.300  11.630  0.2440 -0.0509  0.2045
 2017DOPE   PO423663  14.541  12.217  11.456 -0.2786 -0.1717  0.1242
 2017DOPE   GL123664  14.575  12.651  11.589 -0.4279 -0.2116  0.6093
 2017DOPE   GL223665  14.343  12.883  11.456  0.0612 -0.2680 -0.1481
 2017DOPE   C1A23666  14.529  12.930  11.974  0.0519 -0.2216  0.2848
 2017DOPE   D2A23667  14.181  13.064  12.302 -0.2814  0.4260  0.0864
 2017DOPE   C3A23668  14.214  12.956  12.731  0.0378 -0.1577 -0.0971
 2017DOPE   C4A23669  14.110  12.597  12.990  0.1311 -0.0012  0.1076
 2017DOPE   C1B23670  13.911  12.767  11.331 -0.0032 -0.1072 -0.1254
 2017DOPE   D2B23671  13.494  12.977  11.455 -0.0142  0.0337  0.1982
 2017DOPE   C3B23672  13.144  12.832  11.679  0.1781  0.0377  0.1563
 2017DOPE   C4B23673  12.804  12.959  11.944 -0.0272  0.1492  0.1553
 2018DOPE   NH323674  14.179  11.879  12.202  0.0998  0.0786  0.1373
 2018DOPE   PO423675  14.008  12.054  11.984 -0.0223  0.1389  0.1568
 2018DOPE   GL123676  13.855  12.474  12.116  0.0901  0.1015 -0.0611
 2018DOPE   GL223677  14.019  12.687  11.890 -0.1713 -0.2602  0.1360
 2018DOPE   C1A23678  13.787  12.859  12.354  0.0078  0.1827 -0.1975
 2018DOPE   D2A23679  13.454  13.133  12.409  0.3237 -0.2960  0.1577
 2018DOPE   C3A23680  13.335  13.183  12.034 -0.0728  0.1080  0.0974
 2018DOPE   C4A23681  13.214  13.391  11.642  0.0286  0.0661  0.0085
 2018DOPE   C1B23682  13.842  13.114  11.836 -0.1546 -0.2428 -0.2079
 2018DOPE   D2B23683  13.668  13.556  11.739 -0.0065  0.2478 -0.0690
 2018DOPE   C3B23684  13.849  13.847  12.036  0.3301  0.0246 -0.0028
 2018DOPE   C4B23685  13.677  14.124  12.401 -0.1455 -0.1051 -0.0274
 2019DOPS   CNO23686  17.313  10.921  11.720  0.1827 -0.3074  0.0552
 2019DOPS   PO423687  17.068  11.168  11.637  0.0089  0.1465 -0.1277
 2019DOPS   GL123688  16.815  11.379  11.830 -0.2192  0.2031  0.0039
 2019DOPS   GL223689  16.745  11.555  12.085 -0.0342 -0.0939  0.2047
 2019DOPS   C1A23690  16.339  11.256  11.725  0.1353  0.2098 -0.0396
 2019DOPS   D2A23691  15.939  11.291  11.461 -0.2874 -0.1092  0.3431
 2019DOPS   C3A23692  15.670  11.703  11.516 -0.4126  0.0320 -0.2355
 2019DOPS   C4A23693  15.507  11.828  11.986  0.1676 -0.3951 -0.1610
 2019DOPS   C1B23694  16.410  11.852  12.114 -0.1530  0.0517  0.0271
 2019DOPS   D2B23695  16.431  12.277  12.087  0.0547  0.2713  0.1143
 2019DOPS   C3B23696  16.499  12.272  12.554  0.3168  0.0020  0.2542
 2019DOPS   C4B23697  16.358  12.250  12.996  0.0913 -0.0400  0.0263
 2020POSM   NC323698  18.469  14.309  11.641 -0.1630  0.1959 -0.1422
 2020POSM   PO423699  18.222  14.521  11.807 -0.1398  0.4216 -0.1182
 2020POSM   AM123700  18.338  14.635  12.070  0.3492  0.0335 -0.2539
 2020POSM   AM223701  18.426  14.852  12.233  0.0305  0.1312  0.3007
 2020POSM   T1A23702  18.649  14.397  12.416  0.2095  0.4034 -0.0919
 2020POSM   C2A23703  18.833  13.994  12.536 -0.2593  0.5125 -0.0936
 2020POSM   C3A23704  18.912  13.844  13.003 -0.1098 -0.0813 -0.0704
 2020POSM   C1B23705  18.377  15.049  12.482 -0.2544  0.3450 -0.2188
 2020POSM   D2B23706  18.094  15.094  12.825 -0.1594  0.0459  0.1380
 2020POSM   C3B23707  17.715  14.886  12.783  0.0845  0.3467 -0.1182
 2020POSM   C4B23708  17.264  14.806  12.650 -0.1546  0.4137  0.2556
 2021POSM   NC323709  20.518  17.107  11.620 -0.1736 -0.4325  0.2531
 2021POSM   PO423710  20.862  17.273  11.582 -0.4283  0.0977 -0.0886
 2021POSM   AM123711  21.048  17.315  11.875 -0.1516 -0.2993 -0.2298
 2021POSM   AM223712  21.063  17.365  12.160  0.1035 -0.2183 -0.1165
 2021POSM   T1A23713  21.539  17.404  12.002 -0.1449  0.1223 -0.0069
 2021POSM   C2A23714  21.902  17.561  11.861 -0.1903  0.0608 -0.2027
 2021POSM   C3A23715  22.222  17.717  11.552 -0.0195 -0.1821  0.2292
 2021POSM   C1B23716  21.259  17.372  12.443 -0.1957 -0.0692  0.4896
 2021POSM   D2B23717  21.299  17.412  12.930 -0.1394 -0.3480  0.0755
 2021POSM   C3B23718  20.923  17.211  13.129  0.0318  0.0623 -0.1627
 2021POSM   C4B23719  20.622  17.005  13.420  0.0102 -0.3195 -0.0882
 2022DOPE   NH323720  18.752  14.783  11.148  0.0076  0.1599 -0.1410
 2022DOPE   PO423721  18.693  14.503  11.281 -0.2958 -0.0467 -0.0109
 2022DOPE   GL123722  19.031  14.712  11.487 -0.1199  0.1480 -0.0196
 2022DOPE   GL223723  19.090  15.023  11.501  0.0519  0.0326 -0.1312
 2022DOPE   C1A23724  19.312  14.795  11.911  0.0929 -0.2461  0.1578
 2022DOPE   D2A23725  19.737  14.950  11.900  0.1833 -0.2389 -0.1932
 2022DOPE   C3A23726  19.945  14.965  12.333 -0.1133  0.1373  0.2675
 2022DOPE   C4A23727  20.170  15.014  12.753 -0.1487  0.1230  0.1164
 2022DOPE   C1B23728  19.566  14.883  11.451  0.1167  0.2867 -0.1060
 2022DOPE   D2B23729  20.022  14.970  11.470 -0.1566 -0.0192 -0.2087
 2022DOPE   C3B23730  20.313  14.949  11.870 -0.0241 -0.2104  0.1135
 2022DOPE   C4B23731  20.431  14.928  12.315 -0.1469  0.2025  0.0830
 2023DOPS   CNO23732  12.492  23.105  11.891  0.5277  0.1088  0.1900
 2023DOPS   PO423733  12.296  22.916  12.136  0.2007 -0.0596 -0.1680
 2023DOPS   GL123734  12.509  22.853  12.396  0.2660  0.1844 -0.4400
 2023DOPS   GL223735  12.771  22.666  12.344 -0.0525  0.2904 -0.4004
 2023DOPS   C1A23736  12.643  22.881  12.854 -0.1591 -0.1651  0.4134
 2023DOPS   D2A23737  12.607  22.817  13.304  0.0976 -0.0668 -0.0520
 2023DOPS   C3A23738  12.220  22.836  13.557  0.0173  0.2929 -0.3995
 2023DOPS   C4A23739  11.858  22.932  13.809 -0.1082  0.0217 -0.0575
 2023DOPS   C1B23740  12.779  22.220  12.371  0.2796  0.1704 -0.0424
 2023DOPS   D2B23741  12.790  21.795  12.526  0.0124  0.1076  0.0884
 2023DOPS   C3B23742  12.839  21.687  12.986 -0.0090  0.1428  0.1955
 2023DOPS   C4B23743  13.149  21.870  13.317  0.0343 -0.2898 -0.2528
 2024DOPE   NH323744  17.854  19.045  11.928  0.1424  0.1107  0.0760
 2024DOPE   PO423745  18.110  19.109  11.760 -0.1449  0.0047 -0.3570
 2024DOPE   GL123746  18.174  19.431  11.998  0.1917  0.0948 -0.2217
 2024DOPE   GL223747  18.014  19.355  12.275  0.2215  0.0229 -0.0401
 2024DOPE   C1A23748  18.412  19.737  11.775 -0.7274  0.1207  0.0793
 2024DOPE   D2A23749  18.664  20.041  11.520  0.3058 -0.1842 -0.0603
 2024DOPE   C3A23750  18.407  20.386  11.603 -0.0979 -0.0816  0.0861
 2024DOPE   C4A23751  17.950  20.563  11.668  0.1631 -0.1017 -0.1068
 2024DOPE   C1B23752  18.158  19.714  12.556 -0.1132  0.2555  0.1315
 2024DOPE   D2B23753  18.085  20.008  12.920  0.4567  0.0117  0.0490
 2024DOPE   C3B23754  18.153  20.401  12.947  0.2325  0.2567  0.0867
 2024DOPE   C4B23755  18.197  20.657  13.344  0.0403 -0.2035  0.1513
 2025POSM   NC323756   9.836  13.019  11.752  0.0208  0.0602  0.2447
 2025POSM   PO423757   9.877  13.392  11.773 -0.4172  0.3095  0.1828
 2025POSM   AM123758  10.161  13.391  11.966 -0.3308  0.0092 -0.1659
 2025POSM   AM223759  10.227  13.536  12.224  0.0205 -0.1046  0.2272
 2025POSM   T1A23760  10.628  13.388  12.010  0.2410 -0.3471  0.1385
 2025POSM   C2A23761  10.812  13.037  11.873 -0.1762  0.0176  0.3688
 2025POSM   C3A23762  11.106  12.725  11.597  0.2213  0.0325 -0.0720
 2025POSM   C1B23763  10.409  13.388  12.516 -0.2488 -0.2441 -0.0003
 2025POSM   D2B23764  10.784  13.379  12.787  0.1784 -0.0088  0.1708
 2025POSM   C3B23765  11.065  13.603  13.072  0.0077  0.2220 -0.0983
 2025POSM   C4B23766  11.153  13.767  13.501 -0.0812  0.0319 -0.1974
 2026POSM   NC323767  11.847  22.861  11.915  0.1461 -0.1334 -0.0284
 2026POSM   PO423768  11.808  22.815  12.310 -0.4212  0.1311  0.0292
 2026POSM   AM123769  12.072  22.819  12.523 -0.0222 -0.1025  0.2546
 2026POSM   AM223770  12.194  23.061  12.693 -0.1929 -0.0401  0.2172
 2026POSM   T1A23771  12.392  22.479  12.703  0.3904 -0.0429  0.2348
 2026POSM   C2A23772  12.391  22.037  12.884  0.0430  0.3191 -0.0392
 2026POSM   C3A23773  12.348  21.578  12.881  0.0086  0.1344 -0.0369
 2026POSM   C1B23774  12.246  23.121  13.001 -0.0883  0.1049  0.0292
 2026POSM   D2B23775  12.425  23.377  13.349 -0.0710 -0.0467 -0.0937
 2026POSM   C3B23776  12.500  23.306  13.761  0.2602 -0.0164  0.0310
 2026POSM   C4B23777  12.821  23.292  14.019 -0.1660 -0.2348 -0.2596
 2027DOPC   NC323778  15.902  18.976  11.489  0.0486  0.1132 -0.0817
 2027DOPC   PO423779  15.975  19.391  11.556 -0.0502 -0.2043  0.2369
 2027DOPC   GL123780  15.949  19.454  11.974 -0.0924 -0.1058 -0.0609
 2027DOPC   GL223781  16.163  19.576  12.104 -0.0617  0.0731 -0.0635
 2027DOPC   C1A23782  15.573  19.538  12.281 -0.0160 -0.0338  0.0353
 2027DOPC   D2A23783  15.187  19.770  12.496  0.1015  0.4266  0.1010
 2027DOPC   C3A23784  15.002  20.146  12.638 -0.0820  0.1455  0.1180
 2027DOPC   C4A23785  15.057  20.463  12.913 -0.2552  0.0125  0.1892
 2027DOPC   C1B23786  15.986  19.865  12.414  0.0125 -0.0941 -0.0185
 2027DOPC   D2B23787  15.601  20.087  12.514 -0.3162 -0.0411 -0.0673
 2027DOPC   C3B23788  15.562  20.422  12.808 -0.1899  0.0791  0.0779
 2027DOPC   C4B23789  15.457  20.788  13.136 -0.0665  0.3127 -0.1239
 2028POSM   NC323790  11.053  18.386  11.941  0.1847  0.2451 -0.1494
 2028POSM   PO423791  11.021  18.702  12.075  0.0387 -0.3197 -0.2691
 2028POSM   AM123792  11.214  18.604  12.311  0.1322 -0.4022 -0.2981
 2028POSM   AM223793  11.446  18.770  12.425 -0.2344  0.0906  0.2283
 2028POSM   T1A23794  11.410  18.293  12.601 -0.2581  0.0634 -0.3830
 2028POSM   C2A23795  11.691  18.076  12.842  0.0960 -0.1966  0.0336
 2028POSM   C3A23796  11.849  17.987  13.287  0.0002  0.3273  0.0715
 2028POSM   C1B23797  11.431  19.123  12.552 -0.2599 -0.0565  0.1106
 2028POSM   D2B23798  11.276  19.506  12.773  0.2324  0.0054 -0.0979
 2028POSM   C3B23799  11.029  19.734  12.473  0.1331 -0.0796  0.0894
 2028POSM   C4B23800  10.711  19.909  12.159  0.3431 -0.2708 -0.0576
 2029DOPE   NH323801  16.464  14.124  11.241 -0.0020 -0.1442 -0.1531
 2029DOPE   PO423802  16.641  13.940  11.456  0.1385 -0.0989  0.0007
 2029DOPE   GL123803  16.554  13.947  11.768  0.0645  0.2291  0.1320
 2029DOPE   GL223804  16.619  14.176  11.964 -0.4355  0.1417 -0.2240
 2029DOPE   C1A23805  16.254  13.700  12.077 -0.1640 -0.3284  0.2067
 2029DOPE   D2A23806  15.902  13.487  12.047 -0.0147  0.3530  0.4260
 2029DOPE   C3A23807  15.433  13.570  11.985  0.1619 -0.1702 -0.1335
 2029DOPE   C4A23808  15.009  13.812  12.093  0.3535 -0.1184  0.0545
 2029DOPE   C1B23809  16.399  14.312  12.397 -0.1671  0.1106 -0.3254
 2029DOPE   D2B23810  16.116  14.039  12.634  0.0153 -0.0418  0.0568
 2029DOPE   C3B23811  16.325  13.633  12.692  0.1586  0.1575  0.1380
 2029DOPE   C4B23812  16.184  13.269  12.911  0.3479 -0.1556  0.3277
 2030DOPS   CNO23813  13.883  16.861  11.153  0.2211  0.0532  0.3792
 2030DOPS   PO423814  13.829  16.827  11.537 -0.0674 -0.1368  0.1563
 2030DOPS   GL123815  13.946  16.737  11.970 -0.0107  0.0153  0.2742
 2030DOPS   GL223816  14.151  16.956  12.119 -0.0674 -0.2913  0.4587
 2030DOPS   C1A23817  13.983  16.399  12.329  0.2080  0.0664 -0.0012
 2030DOPS   D2A23818  14.234  16.207  12.681 -0.4449  0.1255  0.0348
 2030DOPS   C3A23819  14.192  15.738  12.716  0.3400 -0.0343 -0.2526
 2030DOPS   C4A23820  14.094  15.284  12.618 -0.0711 -0.1771 -0.2412
 2030DOPS   C1B23821  13.844  17.283  12.250  0.0250 -0.2997  0.3316
 2030DOPS   D2B23822  13.602  17.423  12.599 -0.3179 -0.2552 -0.1868
 2030DOPS   C3B23823  13.266  17.177  12.779  0.2163 -0.0021 -0.1618
 2030DOPS   C4B23824  13.098  16.879  13.082  0.2952  0.1622 -0.2939
 2031DOPC   NC323825  13.821  18.467  11.557  0.2057  0.3190 -0.0597
 2031DOPC   PO423826  13.448  18.582  11.632 -0.2430  0.1424  0.0797
 2031DOPC   GL123827  13.622  18.576  11.987 -0.3527  0.4857  0.1310
 2031DOPC   GL223828  13.764  18.871  11.979  0.3580  0.1910 -0.0190
 2031DOPC   C1A23829  13.865  18.452  12.394 -0.0937 -0.0741 -0.0286
 2031DOPC   D2A23830  14.257  18.625  12.539 -0.0720  0.3955 -0.0330
 2031DOPC   C3A23831  14.432  18.356  12.843  0.2199  0.1197 -0.1573
 2031DOPC   C4A23832  14.724  18.271  13.220  0.1153  0.0124 -0.1171
 2031DOPC   C1B23833  14.044  19.165  12.192  0.1410  0.1976 -0.1136
 2031DOPC   D2B23834  14.488  19.186  12.218 -0.1584  0.3207 -0.0237
 2031DOPC   C3B23835  14.485  19.062  12.623 -0.1109 -0.0693 -0.1306
 2031DOPC   C4B23836  14.426  19.378  13.021 -0.0750  0.0352  0.2224
 2032DOPC   NC323837  20.902  22.251  11.331  0.0317 -0.1335  0.3737
 2032DOPC   PO423838  20.561  22.201  11.578 -0.2197 -0.0299 -0.0651
 2032DOPC   GL123839  20.605  21.886  11.750 -0.1322 -0.0693 -0.1400
 2032DOPC   GL223840  20.867  21.878  11.802 -0.2637  0.0204 -0.2599
 2032DOPC   C1A23841  20.701  21.384  11.761  0.0805 -0.1137 -0.3005
 2032DOPC   D2A23842  20.663  20.899  11.871  0.0031  0.0239 -0.1406
 2032DOPC   C3A23843  20.648  20.491  11.588 -0.0715 -0.2266  0.0545
 2032DOPC   C4A23844  20.572  20.180  11.233 -0.0944 -0.3481 -0.1813
 2032DOPC   C1B23845  21.300  21.605  11.884  0.2500  0.0837 -0.0717
 2032DOPC   D2B23846  21.366  21.211  12.123  0.0019  0.4084 -0.1049
 2032DOPC   C3B23847  21.026  20.894  12.186 -0.2847  0.1981  0.3094
 2032DOPC   C4B23848  20.866  20.456  12.056 -0.0032  0.2050 -0.0686
 2033DOPC   NC323849  13.590  16.236  12.000  0.2959 -0.0652 -0.0230
 2033DOPC   PO423850  13.531  16.465  11.687  0.0780  0.4827 -0.1617
 2033DOPC   GL123851  13.265  16.548  11.966  0.1887  0.2662  0.4874
 2033DOPC   GL223852  13.036  16.672  11.869 -0.1896  0.3500  0.0527
 2033DOPC   C1A23853  13.334  16.379  12.391 -0.1377 -0.1134  0.1255
 2033DOPC   D2A23854  13.674  16.400  12.710  0.2048 -0.1920  0.5138
 2033DOPC   C3A23855  13.733  16.205  13.135  0.1197 -0.0906  0.2593
 2033DOPC   C4A23856  13.724  16.317  13.565  0.0509  0.3657  0.0133
 2033DOPC   C1B23857  13.008  16.909  12.283  0.0097 -0.0370 -0.2773
 2033DOPC   D2B23858  12.679  17.062  12.605 -0.0923 -0.1276 -0.1809
 2033DOPC   C3B23859  12.432  17.458  12.641  0.0556 -0.1355  0.0393
 2033DOPC   C4B23860  12.279  17.596  13.006  0.0716  0.1146  0.0995
 2034DOPS   CNO23861  17.050  18.897  11.253  0.0848 -0.3669  0.0852
 2034DOPS   PO423862  16.878  19.148  11.474  0.3527  0.1366 -0.0987
 2034DOPS   GL123863  16.785  19.505  11.512  0.0879  0.0393  0.1098
 2034DOPS   GL223864  16.468  19.502  11.316 -0.0703  0.0892  0.0154
 2034DOPS   C1A23865  17.018  19.878  11.642  0.1044 -0.1321  0.0500
 2034DOPS   D2A23866  17.232  20.217  11.922  0.0834  0.2066  0.0436
 2034DOPS   C3A23867  17.460  20.621  11.786  0.1525 -0.0956 -0.2657
 2034DOPS   C4A23868  17.364  21.008  11.572  0.1452  0.3749  0.1565
 2034DOPS   C1B23869  16.575  19.926  11.462  0.0591  0.1089  0.0911
 2034DOPS   D2B23870  16.583  20.389  11.441 -0.1738  0.1619 -0.0945
 2034DOPS   C3B23871  17.050  20.502  11.560 -0.1711 -0.3090  0.1022
 2034DOPS   C4B23872  17.461  20.221  11.463 -0.2527  0.3353  0.2967
 2035POSM   NC323873  12.956  10.149  12.387 -0.1128  0.1141  0.1073
 2035POSM   PO423874  12.951  10.397  12.113  0.0980  0.3328  0.1442
 2035POSM   AM123875  12.926  10.669  12.328 -0.1369  0.1254 -0.0646
 2035POSM   AM223876  12.729  10.853  12.406  0.3756 -0.0391 -0.0320
 2035POSM   T1A23877  13.160  10.937  12.710  0.0175  0.0933  0.0844
 2035POSM   C2A23878  13.281  11.215  13.055 -0.1549  0.2854 -0.2642
 2035POSM   C3A23879  13.475  11.286  13.497 -0.0750 -0.0639 -0.1800
 2035POSM   C1B23880  12.518  11.092  12.532  0.0670  0.1019  0.3767
 2035POSM   D2B23881  12.305  11.317  12.881 -0.2324 -0.0087 -0.2265
 2035POSM   C3B23882  12.500  11.461  13.325  0.0885 -0.2222  0.3918
 2035POSM   C4B23883  12.697  11.464  13.747  0.1973 -0.0275  0.1113
 2036POSM   NC323884  18.159  23.069  11.862  0.0813  0.0358 -0.0593
 2036POSM   PO423885  17.784  22.856  11.753  0.0152  0.0614 -0.1669
 2036POSM   AM123886  17.797  22.704  12.052  0.0405 -0.1957  0.3664
 2036POSM   AM223887  18.008  22.703  12.206  0.0745  0.1712 -0.2286
 2036POSM   T1A23888  17.682  22.400  12.435 -0.1665  0.1110  0.0233
 2036POSM   C2A23889  17.726  22.031  12.748 -0.1747  0.2827  0.0636
 2036POSM   C3A23890  17.497  21.874  13.036 -0.1981 -0.0287  0.1486
 2036POSM   C1B23891  18.187  22.663  12.478  0.1323 -0.0048  0.2990
 2036POSM   D2B23892  18.068  22.541  12.885  0.2166 -0.1359 -0.1808
 2036POSM   C3B23893  18.196  22.824  13.255 -0.0366 -0.2572 -0.0226
 2036POSM   C4B23894  18.407  23.213  13.337  0.1874 -0.1610 -0.0044
 2037DOPE   NH323895  10.114  18.473  11.919 -0.2642 -0.0391  0.0648
 2037DOPE   PO423896  10.236  18.204  11.881  0.0458 -0.0476 -0.1578
 2037DOPE   GL123897  10.437  18.022  12.105  0.0687 -0.1087  0.0716
 2037DOPE   GL223898  10.722  17.843  11.946 -0.2622  0.0207 -0.2002
 2037DOPE   C1A23899  10.571  17.748  12.451 -0.0697  0.1018 -0.1012
 2037DOPE   D2A23900  10.788  17.397  12.697 -0.0814 -0.0186 -0.0129
 2037DOPE   C3A23901  10.673  17.112  13.041 -0.0109  0.1480 -0.1967
 2037DOPE   C4A23902  10.366  17.039  13.353  0.3987 -0.2651  0.0545
 2037DOPE   C1B23903  11.046  17.968  12.299  0.2033  0.3592 -0.0844
 2037DOPE   D2B23904  11.184  17.871  12.714 -0.2274 -0.3594  0.2235
 2037DOPE   C3B23905  10.761  17.835  12.963  0.1122  0.0644  0.2766
 2037DOPE   C4B23906  10.331  17.720  12.902  0.1885 -0.0433  0.2064
 2038DOPC   NC323907  17.135  10.993  12.448 -0.3531  0.1374  0.1845
 2038DOPC   PO423908  16.894  11.068  12.135 -0.1046  0.2252 -0.1242
 2038DOPC   GL123909  16.520  11.125  12.155  0.1272  0.1848  0.3612
 2038DOPC   GL223910  16.430  10.931  12.327  0.3813  0.0198  0.0655
 2038DOPC   C1A23911  16.479  11.406  12.562 -0.1446  0.1347 -0.1938
 2038DOPC   D2A23912  16.701  11.476  12.969 -0.0822  0.3348  0.5038
 2038DOPC   C3A23913  16.418  11.234  13.225 -0.0910  0.3532  0.0722
 2038DOPC   C4A23914  16.064  11.175  13.517 -0.1418 -0.1294  0.3392
 2038DOPC   C1B23915  16.288  10.934  12.728  0.3448 -0.0790 -0.4131
 2038DOPC   D2B23916  15.978  10.812  13.092 -0.0130  0.2564  0.0067
 2038DOPC   C3B23917  15.548  10.830  12.966  0.0494 -0.1073 -0.0884
 2038DOPC   C4B23918  15.136  11.013  12.981 -0.0514  0.2209 -0.1924
 2039POSM   NC323919  22.727  13.907  11.587  0.1318 -0.1078 -0.2939
 2039POSM   PO423920  22.412  13.765  11.711  0.2383 -0.0054  0.1839
 2039POSM   AM123921  22.326  13.850  11.994 -0.1312  0.0326 -0.5667
 2039POSM   AM223922  22.424  13.977  12.250 -0.0221  0.2217  0.0578
 2039POSM   T1A23923  21.890  13.935  12.349 -0.2953 -0.0309 -0.1412
 2039POSM   C2A23924  21.470  13.948  12.329  0.1854  0.0481  0.0597
 2039POSM   C3A23925  21.029  13.936  12.263 -0.0399 -0.0472  0.0287
 2039POSM   C1B23926  22.365  14.214  12.452 -0.0132  0.1283 -0.0012
 2039POSM   D2B23927  22.589  14.512  12.760  0.0389 -0.1894 -0.0909
 2039POSM   C3B23928  22.907  14.351  13.039  0.0331 -0.3418 -0.0572
 2039POSM   C4B23929  23.252  14.234  13.315  0.1827 -0.2264  0.3221
 2040POSM   NC323930  17.133  19.447  11.818 -0.3694  0.0996  0.3043
 2040POSM   PO423931  17.395  19.165  11.736  0.0503  0.1615 -0.2202
 2040POSM   AM123932  17.339  18.948  11.998  0.3803  0.1308 -0.0059
 2040POSM   AM223933  17.283  19.055  12.255 -0.0586 -0.0609 -0.0894
 2040POSM   T1A23934  17.442  18.572  12.299 -0.0986 -0.0917  0.1099
 2040POSM   C2A23935  17.725  18.230  12.323  0.1787  0.2921 -0.1158
 2040POSM   C3A23936  18.099  18.299  12.517 -0.3143  0.2793 -0.0947
 2040POSM   C1B23937  17.243  18.920  12.558  0.2319 -0.1253 -0.0313
 2040POSM   D2B23938  17.414  18.932  12.973 -0.1820 -0.1020 -0.0461
 2040POSM   C3B23939  17.460  19.271  13.277 -0.0008  0.1680 -0.2971
 2040POSM   C4B23940  17.460  19.493  13.715  0.2106  0.1942  0.1088
 2041DOPC   NC323941  14.060  31.639  15.787  0.3379  0.1242  0.2798
 2041DOPC   PO423942  14.350  31.850  15.975  0.3628 -0.1966  0.2119
 2041DOPC   GL123943  14.481  31.819  15.584  0.2471 -0.2676  0.1848
 2041DOPC   GL223944  14.474  31.540  15.438 -0.2240 -0.1725 -0.2346
 2041DOPC   C1A23945  14.309  31.993  15.173 -0.2445 -0.2283 -0.0278
 2041DOPC   D2A23946  14.008  32.163  14.910  0.1223 -0.1002 -0.1756
 2041DOPC   C3A23947  14.280  32.245  14.545  0.1516  0.1233 -0.1925
 2041DOPC   C4A23948  14.287  32.279  14.068  0.3581  0.0491 -0.5152
 2041DOPC   C1B23949  14.151  31.506  15.187 -0.0355 -0.0403 -0.0370
 2041DOPC   D2B23950  14.029  31.308  14.779 -0.2596  0.2752  0.2686
 2041DOPC   C3B23951  14.275  31.313  14.383 -0.2611  0.0095  0.1665
 2041DOPC   C4B23952  14.047  31.375  13.936  0.3368  0.0130  0.1054
 2042DOPC   NC323953  20.278  25.648  15.598  0.0710  0.1322 -0.0141
 2042DOPC   PO423954  20.045  25.930  15.743  0.2420 -0.1464 -0.0692
 2042DOPC   GL123955  20.411  26.049  15.478  0.0006 -0.2342 -0.2174
 2042DOPC   GL223956  20.715  25.996  15.619  0.0549  0.0578  0.0693
 2042DOPC   C1A23957  20.451  26.430  15.203  0.0858  0.0101 -0.0669
 2042DOPC   D2A23958  20.352  26.396  14.762 -0.0880 -0.1652 -0.1878
 2042DOPC   C3A23959  20.559  26.501  14.390  0.1895  0.2199  0.0857
 2042DOPC   C4A23960  20.621  26.653  13.977  0.1053 -0.0794 -0.0475
 2042DOPC   C1B23961  20.970  26.311  15.292  0.3612 -0.0712  0.1608
 2042DOPC   D2B23962  21.265  26.479  15.079 -0.1404  0.1786  0.0050
 2042DOPC   C3B23963  21.275  26.276  14.647 -0.0736  0.0909  0.0233
 2042DOPC   C4B23964  21.575  26.097  14.324  0.3209  0.0617 -0.0122
 2043DOPE   NH323965  20.711  32.955  15.982 -0.0514 -0.1479 -0.1404
 2043DOPE   PO423966  20.602  32.943  15.651 -0.0386  0.2691  0.0427
 2043DOPE   GL123967  20.718  32.911  15.303 -0.0598 -0.2173  0.1541
 2043DOPE   GL223968  20.588  32.654  15.242  0.0111 -0.0427  0.2761
 2043DOPE   C1A23969  21.142  32.909  15.010  0.0052 -0.0472  0.2352
 2043DOPE   D2A23970  21.418  32.690  14.711  0.2149  0.1065  0.1863
 2043DOPE   C3A23971  21.333  32.545  14.256  0.2831  0.0647  0.0429
 2043DOPE   C4A23972  21.627  32.162  14.268  0.5276 -0.1237 -0.0440
 2043DOPE   C1B23973  20.495  32.701  14.796 -0.3198 -0.2059  0.0694
 2043DOPE   D2B23974  20.461  32.901  14.383  0.2221 -0.1063 -0.1593
 2043DOPE   C3B23975  20.117  32.948  14.019  0.1481  0.0338  0.2582
 2043DOPE   C4B23976  19.686  32.939  13.929 -0.1906  0.1262 -0.2497
 2044DOPE   NH323977  12.527  32.205  15.698 -0.2310 -0.1214  0.0919
 2044DOPE   PO423978  12.456  31.907  15.795  0.0608  0.2523  0.0807
 2044DOPE   GL123979  12.779  31.868  15.506 -0.0772 -0.2726 -0.1791
 2044DOPE   GL223980  12.521  31.842  15.289  0.0673  0.0278  0.1502
 2044DOPE   C1A23981  13.003  32.164  15.237 -0.3512  0.1932 -0.1174
 2044DOPE   D2A23982  13.456  32.192  15.057 -0.0529  0.0013  0.2533
 2044DOPE   C3A23983  13.607  32.112  14.641 -0.2110 -0.1189 -0.0815
 2044DOPE   C4A23984  13.840  32.096  14.193  0.1505  0.0731 -0.0843
 2044DOPE   C1B23985  12.614  31.894  14.852 -0.2944  0.1063  0.1908
 2044DOPE   D2B23986  12.631  31.735  14.429 -0.0573 -0.1064  0.2427
 2044DOPE   C3B23987  12.724  31.809  13.957 -0.1157  0.0240 -0.1750
 2044DOPE   C4B23988  12.531  32.055  13.602 -0.1485 -0.0118 -0.2584
 2045DOPC   NC323989  21.102  34.436  16.128  0.0030  0.3577 -0.1083
 2045DOPC   PO423990  21.385  34.352  15.879  0.0340 -0.0866  0.0762
 2045DOPC   GL123991  21.182  34.582  15.633 -0.2421 -0.1855 -0.1288
 2045DOPC   GL223992  21.017  34.647  15.455 -0.1552 -0.1089  0.2795
 2045DOPC   C1A23993  21.439  34.667  15.246  0.0610  0.2371 -0.1083
 2045DOPC   D2A23994  21.285  34.454  14.854  0.0050  0.0199 -0.4117
 2045DOPC   C3A23995  21.333  34.568  14.394 -0.0664 -0.1385  0.1856
 2045DOPC   C4A23996  21.462  34.876  14.097  0.0359  0.0298 -0.2661
 2045DOPC   C1B23997  20.879  34.668  14.961  0.1898  0.2836 -0.0756
 2045DOPC   D2B23998  20.455  34.673  14.800  0.0842 -0.1392  0.2612
 2045DOPC   C3B23999  20.283  35.067  14.683 -0.0506 -0.0104  0.4989
 2045DOPC   C4B24000  20.227  35.315  14.210  0.1345  0.0551 -0.4151
 2046DOPC   NC324001  21.939  32.892  16.384 -0.0344 -0.0986  0.2550
 2046DOPC   PO424002  22.103  32.976  16.009 -0.3679  0.1009 -0.0950
 2046DOPC   GL124003  22.093  33.146  15.641  0.0371 -0.1848 -0.0977
 2046DOPC   GL224004  21.985  33.455  15.644 -0.0772  0.4915  0.2684
 2046DOPC   C1A24005  22.266  32.950  15.251 -0.1207 -0.0242 -0.0012
 2046DOPC   D2A24006  22.558  32.932  14.885 -0.0101  0.1314  0.4073
 2046DOPC   C3A24007  22.769  33.343  14.909  0.0094  0.0245  0.2030
 2046DOPC   C4A24008  22.829  33.763  14.723  0.0106  0.1587 -0.1192
 2046DOPC   C1B24009  21.982  33.384  15.194 -0.3348  0.1104 -0.0185
 2046DOPC   D2B24010  22.111  33.215  14.749 -0.0113  0.1552  0.4221
 2046DOPC   C3B24011  21.836  33.028  14.358 -0.1472  0.0814  0.1762
 2046DOPC   C4B24012  21.850  32.585  14.235  0.0225 -0.0917  0.2775
 2047POSM   NC324013  15.204  25.978  16.217  0.0754 -0.3247 -0.1794
 2047POSM   PO424014  15.270  26.273  15.997 -0.2280 -0.0192 -0.0870
 2047POSM   AM124015  15.273  26.406  15.690  0.2705 -0.1097 -0.1215
 2047POSM   AM224016  15.193  26.343  15.428  0.1036 -0.1178  0.1258
 2047POSM   T1A24017  15.090  26.791  15.376  0.2770 -0.1927  0.1305
 2047POSM   C2A24018  14.847  27.126  15.207 -0.1799  0.2338 -0.1210
 2047POSM   C3A24019  14.545  27.433  15.025 -0.2378 -0.0534  0.0322
 2047POSM   C1B24020  15.152  26.189  15.133 -0.5311  0.1034  0.0187
 2047POSM   D2B24021  15.250  26.101  14.727  0.2732  0.3721  0.3147
 2047POSM   C3B24022  15.430  25.751  14.445 -0.2508 -0.2476  0.0657
 2047POSM   C4B24023  15.485  25.463  14.095  0.0026 -0.1136  0.0286
 2048DOPS   CNO24024  19.650  32.602  15.447 -0.0426  0.2928 -0.2906
 2048DOPS   PO424025  19.387  32.783  15.639 -0.0101  0.1292 -0.0948
 2048DOPS   GL124026  19.364  32.867  15.274 -0.1377 -0.1834 -0.3124
 2048DOPS   GL224027  19.646  33.011  15.199  0.0663  0.0926 -0.0369
 2048DOPS   C1A24028  19.453  33.125  14.790 -0.1555  0.2610 -0.1139
 2048DOPS   D2A24029  19.672  33.147  14.392  0.1669  0.2141  0.0020
 2048DOPS   C3A24030  20.059  33.358  14.347 -0.0654  0.1167  0.1138
 2048DOPS   C4A24031  20.005  33.770  14.509 -0.1040 -0.3196  0.3107
 2048DOPS   C1B24032  19.615  32.657  14.870 -0.1052 -0.1842  0.0207
 2048DOPS   D2B24033  19.369  32.235  14.848  0.1376  0.2147 -0.0780
 2048DOPS   C3B24034  19.478  31.950  14.542 -0.4502  0.0368 -0.0076
 2048DOPS   C4B24035  19.826  31.878  14.218 -0.0092  0.0182 -0.1744
 2049DOPC   NC324036  17.018  25.900  15.966  0.0405 -0.2398 -0.1613
 2049DOPC   PO424037  16.968  25.513  15.950  0.0562  0.0522  0.2437
 2049DOPC   GL124038  17.041  25.690  15.447 -0.3833 -0.1806  0.3025
 2049DOPC   GL224039  17.043  25.978  15.465 -0.2106 -0.1046  0.2560
 2049DOPC   C1A24040  17.444  25.843  15.207  0.3134  0.0752 -0.2581
 2049DOPC   D2A24041  17.578  26.027  14.778  0.1614 -0.0607 -0.0765
 2049DOPC   C3A24042  17.237  25.889  14.561  0.0564  0.0023  0.0332
 2049DOPC   C4A24043  16.894  25.581  14.455 -0.0305  0.0860  0.1982
 2049DOPC   C1B24044  17.156  26.233  15.116 -0.1486  0.3200  0.1142
 2049DOPC   D2B24045  16.923  26.330  14.770 -0.0807 -0.0058 -0.0239
 2049DOPC   C3B24046  16.451  26.294  14.863  0.0182  0.1238  0.1369
 2049DOPC   C4B24047  16.164  26.025  15.072 -0.1628 -0.0313  0.0379
 2050DOPE   NH324048  14.152  28.411  15.840 -0.0683 -0.4108  0.1992
 2050DOPE   PO424049  14.005  28.509  15.593  0.3619  0.0598  0.1215
 2050DOPE   GL124050  14.136  28.589  15.286  0.3297  0.1649  0.1817
 2050DOPE   GL224051  14.418  28.721  15.313 -0.1230  0.0054  0.2354
 2050DOPE   C1A24052  14.014  28.567  14.830  0.2061  0.2732 -0.0525
 2050DOPE   D2A24053  14.266  28.642  14.411  0.0861  0.0196 -0.1076
 2050DOPE   C3A24054  14.023  28.434  14.081 -0.0260 -0.0447 -0.1048
 2050DOPE   C4A24055  13.751  28.202  13.802 -0.2330  0.4756  0.0746
 2050DOPE   C1B24056  14.413  28.855  14.878  0.2189 -0.0059 -0.2575
 2050DOPE   D2B24057  14.637  29.019  14.511 -0.1218 -0.2317 -0.1832
 2050DOPE   C3B24058  14.639  29.480  14.349 -0.1732 -0.2120 -0.0909
 2050DOPE   C4B24059  14.790  29.941  14.352  0.1238 -0.1658  0.2148
 2051POSM   NC324060  20.123  32.712  15.531  0.2617  0.4241  0.1241
 2051POSM   PO424061  20.058  32.300  15.663 -0.1280  0.0919  0.3953
 2051POSM   AM124062  20.044  32.236  15.336 -0.0862 -0.1182  0.2233
 2051POSM   AM224063  20.131  32.437  15.148  0.0038  0.0877  0.3398
 2051POSM   T1A24064  20.349  31.997  15.035 -0.0529  0.2499  0.0013
 2051POSM   C2A24065  20.578  31.809  14.651 -0.2926  0.0002  0.0965
 2051POSM   C3A24066  20.807  31.480  14.392 -0.1083 -0.0344  0.5468
 2051POSM   C1B24067  20.119  32.397  14.802  0.0181  0.0131 -0.1596
 2051POSM   D2B24068  20.182  32.156  14.445 -0.1439 -0.0208 -0.3858
 2051POSM   C3B24069  20.297  32.491  14.148 -0.1756 -0.1712  0.0360
 2051POSM   C4B24070  20.472  32.565  13.730 -0.0132 -0.0101  0.2361
 2052DOPS   CNO24071  17.989  33.219  15.438 -0.0866  0.0141 -0.2267
 2052DOPS   PO424072  18.217  33.472  15.617  0.4192  0.3944 -0.2768
 2052DOPS   GL124073  18.015  33.877  15.628  0.0572 -0.0639 -0.1744
 2052DOPS   GL224074  17.810  33.712  15.416  0.1435  0.0707 -0.0958
 2052DOPS   C1A24075  17.813  34.247  15.400 -0.2259 -0.0423 -0.0638
 2052DOPS   D2A24076  17.743  34.655  15.180  0.3344  0.1077 -0.1522
 2052DOPS   C3A24077  17.771  34.479  14.772 -0.3298 -0.0842  0.3981
 2052DOPS   C4A24078  18.016  34.155  14.498  0.2932 -0.2908 -0.2192
 2052DOPS   C1B24079  17.652  33.599  14.977 -0.3189  0.0205  0.1259
 2052DOPS   D2B24080  17.712  33.700  14.544  0.3264  0.1107  0.0845
 2052DOPS   C3B24081  17.509  34.019  14.367 -0.0722 -0.0204 -0.2267
 2052DOPS   C4B24082  17.147  34.343  14.388  0.0965  0.0421  0.0512
 2053DOPC   NC324083  21.807  25.980  16.052  0.0629  0.3042  0.0220
 2053DOPC   PO424084  22.025  25.729  15.860  0.0934 -0.0070  0.0603
 2053DOPC   GL124085  22.101  25.688  15.495 -0.1398  0.4231 -0.3484
 2053DOPC   GL224086  21.932  25.788  15.227  0.0846 -0.1088  0.1458
 2053DOPC   C1A24087  22.325  25.551  15.099  0.0244 -0.1077 -0.0360
 2053DOPC   D2A24088  22.533  25.676  14.699 -0.2183 -0.1665  0.2042
 2053DOPC   C3A24089  22.415  25.637  14.231  0.0801 -0.0764  0.1811
 2053DOPC   C4A24090  21.991  25.584  14.001  0.2719 -0.0339 -0.2409
 2053DOPC   C1B24091  21.609  25.488  15.144 -0.0177  0.7353  0.0418
 2053DOPC   D2B24092  21.615  25.248  14.717  0.1961 -0.1288 -0.3012
 2053DOPC   C3B24093  21.219  25.008  14.579  0.3206  0.0844  0.0322
 2053DOPC   C4B24094  20.808  24.810  14.591  0.0123  0.1641 -0.1267
 2054DOPE   NH324095  18.583  28.852  15.952 -0.1523 -0.1625  0.0187
 2054DOPE   PO424096  18.500  28.584  16.027  0.0281 -0.0329  0.1304
 2054DOPE   GL124097  18.356  28.345  15.870  0.1680 -0.1156  0.0731
 2054DOPE   GL224098  18.259  28.346  15.576 -0.0157 -0.0380 -0.0140
 2054DOPE   C1A24099  18.068  28.013  15.871 -0.2110 -0.2806 -0.0192
 2054DOPE   D2A24100  17.692  27.759  15.700  0.0337  0.0135 -0.1249
 2054DOPE   C3A24101  17.693  27.548  15.323 -0.0634  0.0596 -0.0449
 2054DOPE   C4A24102  17.760  27.703  14.923 -0.1180  0.1368  0.1067
 2054DOPE   C1B24103  18.164  28.440  15.169  0.0378  0.0962 -0.0160
 2054DOPE   D2B24104  18.143  28.660  14.712  0.0776  0.3240 -0.0816
 2054DOPE   C3B24105  17.844  28.474  14.422 -0.2035  0.2002  0.2342
 2054DOPE   C4B24106  17.691  28.063  14.300  0.0039  0.0821 -0.0729
 2055DOPE   NH324107  17.024  28.804  15.911 -0.2681  0.0115 -0.0458
 2055DOPE   PO424108  16.875  28.509  15.895 -0.2461 -0.1239 -0.0830
 2055DOPE   GL124109  17.054  28.512  15.467  0.0343  0.2253 -0.0960
 2055DOPE   GL224110  16.887  28.263  15.397  0.0541  0.1525  0.0138
 2055DOPE   C1A24111  17.192  28.426  15.005  0.2321 -0.0029 -0.1814
 2055DOPE   D2A24112  17.282  28.259  14.560  0.0571 -0.0900 -0.0796
 2055DOPE   C3A24113  17.111  27.907  14.367 -0.0686  0.0720 -0.4423
 2055DOPE   C4A24114  16.772  27.675  14.187 -0.0183  0.1162 -0.4052
 2055DOPE   C1B24115  16.863  28.064  14.897 -0.2734  0.0678  0.1652
 2055DOPE   D2B24116  16.614  28.074  14.522 -0.0876 -0.1418 -0.0427
 2055DOPE   C3B24117  16.383  28.333  14.203 -0.5006  0.1624  0.2778
 2055DOPE   C4B24118  16.523  28.752  14.160 -0.4432 -0.0283  0.0205
 2056DOPC   NC324119  19.915  33.754  16.268 -0.3819  0.2997  0.0184
 2056DOPC   PO424120  20.194  33.613  16.030 -0.0950 -0.0529 -0.0186
 2056DOPC   GL124121  20.087  33.543  15.727  0.2976 -0.0923  0.3940
 2056DOPC   GL224122  20.163  33.746  15.499 -0.3718 -0.4125  0.1508
 2056DOPC   C1A24123  19.671  33.547  15.514  0.0333  0.1853 -0.3386
 2056DOPC   D2A24124  19.315  33.700  15.309 -0.0359 -0.0667 -0.1107
 2056DOPC   C3A24125  19.066  33.548  14.945  0.2211  0.0946  0.2347
 2056DOPC   C4A24126  18.638  33.518  14.856  0.0388 -0.3688  0.0678
 2056DOPC   C1B24127  20.179  34.194  15.409 -0.0024  0.0118  0.0195
 2056DOPC   D2B24128  20.014  34.644  15.436  0.5447  0.1681  0.0446
 2056DOPC   C3B24129  19.974  34.854  15.076 -0.4303 -0.1528  0.1283
 2056DOPC   C4B24130  20.212  35.295  15.191 -0.2347  0.0748  0.1580
 2057POSM   NC324131  21.427  29.341  17.001  0.1698  0.1404 -0.0663
 2057POSM   PO424132  21.390  29.492  16.619  0.2218  0.0078 -0.0937
 2057POSM   AM124133  21.393  29.584  16.303 -0.2489  0.1223 -0.1637
 2057POSM   AM224134  21.484  29.525  16.059  0.2581  0.0301  0.4393
 2057POSM   T1A24135  21.498  30.047  16.049 -0.4594  0.1421 -0.2398
 2057POSM   C2A24136  21.328  30.250  15.675 -0.3087 -0.1054  0.5090
 2057POSM   C3A24137  21.236  30.317  15.245 -0.1614 -0.0419  0.1979
 2057POSM   C1B24138  21.658  29.672  15.771 -0.0389 -0.1405  0.0989
 2057POSM   D2B24139  21.622  29.921  15.452 -0.1808 -0.0824 -0.2632
 2057POSM   C3B24140  22.001  30.145  15.315 -0.4234 -0.0423  0.0718
 2057POSM   C4B24141  22.431  30.095  15.246 -0.1597 -0.2107  0.0016
 2058DOPE   NH324142  12.061  32.099  15.512  0.0805 -0.0258  0.2453
 2058DOPE   PO424143  12.069  32.413  15.563  0.2811  0.0718  0.1130
 2058DOPE   GL124144  12.317  32.322  15.208 -0.5638  0.0622  0.2939
 2058DOPE   GL224145  12.108  32.566  15.048  0.1562  0.0080  0.0981
 2058DOPE   C1A24146  12.622  32.443  14.879 -0.0003  0.2184  0.0017
 2058DOPE   D2A24147  12.640  32.388  14.398  0.1152  0.2743  0.1321
 2058DOPE   C3A24148  12.845  32.289  13.997  0.3573 -0.1477 -0.0768
 2058DOPE   C4A24149  13.005  32.214  13.582  0.1334  0.3876  0.1920
 2058DOPE   C1B24150  11.839  32.765  14.684 -0.0904  0.0487 -0.1861
 2058DOPE   D2B24151  11.736  32.628  14.286 -0.1297 -0.3687  0.0038
 2058DOPE   C3B24152  11.465  32.465  13.988  0.0566  0.2451 -0.0691
 2058DOPE   C4B24153  11.580  32.417  13.501 -0.0309  0.1709 -0.1976
 2059DOPS   CNO24154  16.233  24.099  15.422 -0.0073  0.0373 -0.1905
 2059DOPS   PO424155  16.141  24.412  15.502 -0.0670  0.2036  0.1600
 2059DOPS   GL124156  16.145  24.518  15.172  0.1967  0.3324 -0.4752
 2059DOPS   GL224157  16.015  24.762  15.051 -0.3290 -0.0964  0.1490
 2059DOPS   C1A24158  16.407  24.437  14.821  0.0149  0.3172  0.1635
 2059DOPS   D2A24159  16.375  24.212  14.442  0.0325  0.0683  0.2283
 2059DOPS   C3A24160  16.285  24.344  13.982  0.0458 -0.1821 -0.0087
 2059DOPS   C4A24161  16.164  24.437  13.604  0.0676 -0.0197 -0.0529
 2059DOPS   C1B24162  16.139  25.126  14.858 -0.1377 -0.2462 -0.1785
 2059DOPS   D2B24163  16.026  25.551  14.828 -0.0436  0.3135 -0.1316
 2059DOPS   C3B24164  15.896  25.704  14.426  0.1431 -0.0035  0.1578
 2059DOPS   C4B24165  15.739  26.042  14.141  0.1013 -0.1984 -0.0845
 2060POSM   NC324166  19.443  30.808  15.863 -0.2217 -0.1658  0.3379
 2060POSM   PO424167  19.194  31.148  15.852  0.0041  0.1724  0.2566
 2060POSM   AM124168  18.951  31.191  15.607  0.0984  0.0126  0.1257
 2060POSM   AM224169  18.897  31.276  15.340 -0.1343  0.2454 -0.1389
 2060POSM   T1A24170  18.597  30.925  15.372  0.1241 -0.3141  0.1312
 2060POSM   C2A24171  18.208  30.740  15.498  0.0563 -0.0238  0.0634
 2060POSM   C3A24172  17.720  30.824  15.525  0.2196 -0.1881  0.0999
 2060POSM   C1B24173  19.045  31.234  15.101  0.0724 -0.0670  0.3518
 2060POSM   D2B24174  19.425  31.052  14.878  0.1400  0.1871 -0.3976
 2060POSM   C3B24175  19.237  31.027  14.512  0.1972 -0.2104  0.0306
 2060POSM   C4B24176  19.318  30.904  14.035 -0.2228  0.3699 -0.3266
 2061POSM   NC324177  15.652  31.261  15.722  0.2617 -0.1288  0.1780
 2061POSM   PO424178  16.028  31.373  15.743 -0.2564 -0.0588  0.0236
 2061POSM   AM124179  16.004  31.434  15.417  0.2166  0.0379  0.1390
 2061POSM   AM224180  16.187  31.646  15.279 -0.0403 -0.0717  0.2523
 2061POSM   T1A24181  16.082  31.363  14.880 -0.2134  0.0975 -0.0633
 2061POSM   C2A24182  16.053  31.515  14.437 -0.2692  0.1042 -0.0597
 2061POSM   C3A24183  15.917  31.332  13.994 -0.1601 -0.0776  0.2388
 2061POSM   C1B24184  16.328  31.767  15.015  0.1133  0.3574  0.1781
 2061POSM   D2B24185  16.517  31.752  14.585  0.3533 -0.1830  0.0688
 2061POSM   C3B24186  16.613  31.994  14.175 -0.0095  0.1677  0.1528
 2061POSM   C4B24187  16.690  32.404  13.948 -0.0678  0.3114  0.2025
 2062DOPC   NC324188  14.388  23.064  15.162  0.5293 -0.0289 -0.3090
 2062DOPC   PO424189  14.285  23.276  15.462 -0.3919 -0.2884  0.1368
 2062DOPC   GL124190  14.132  23.562  15.223 -0.1973  0.0219  0.1704
 2062DOPC   GL224191  14.271  23.503  14.913 -0.0344  0.1504 -0.0084
 2062DOPC   C1A24192  14.129  23.973  15.029 -0.0692 -0.0089 -0.1140
 2062DOPC   D2A24193  14.068  24.390  14.849 -0.0466 -0.1027 -0.2263
 2062DOPC   C3A24194  14.157  24.468  14.411  0.2025  0.2987  0.0620
 2062DOPC   C4A24195  14.346  24.263  14.007  0.1262  0.0550  0.1494
 2062DOPC   C1B24196  14.210  23.370  14.446 -0.1777 -0.1566 -0.1553
 2062DOPC   D2B24197  14.196  23.098  14.082 -0.1882  0.1651 -0.0926
 2062DOPC   C3B24198  14.482  23.115  13.713 -0.1288  0.1812 -0.1788
 2062DOPC   C4B24199  14.899  22.972  13.696  0.3041  0.0433  0.0975
 2063DOPS   CNO24200  19.859  26.929  16.103 -0.1378 -0.0722  0.2786
 2063DOPS   PO424201  19.537  27.114  16.109 -0.2775  0.0430 -0.0399
 2063DOPS   GL124202  19.519  27.060  15.736 -0.1330  0.1355 -0.1760
 2063DOPS   GL224203  19.561  27.315  15.610 -0.0061  0.2631 -0.0234
 2063DOPS   C1A24204  19.395  26.930  15.279  0.0013 -0.2930 -0.0722
 2063DOPS   D2A24205  19.366  27.078  14.834 -0.2300 -0.3598  0.1355
 2063DOPS   C3A24206  19.275  26.811  14.445  0.0615 -0.3539  0.0486
 2063DOPS   C4A24207  19.230  26.624  14.005 -0.0808 -0.2887  0.0456
 2063DOPS   C1B24208  19.564  27.554  15.216  0.0500 -0.0789  0.0982
 2063DOPS   D2B24209  19.477  27.669  14.791  0.0383  0.3132  0.1743
 2063DOPS   C3B24210  19.611  28.106  14.846 -0.0570  0.1893  0.2111
 2063DOPS   C4B24211  19.992  28.318  14.669 -0.0339 -0.1588  0.4518
 2064DOPE   NH324212  20.531  33.399  15.654 -0.1177  0.0555 -0.0179
 2064DOPE   PO424213  20.744  33.620  15.723 -0.0878  0.3231 -0.2100
 2064DOPE   GL124214  20.658  33.753  15.374  0.0510 -0.0895  0.3150
 2064DOPE   GL224215  20.484  33.760  15.165  0.1401  0.4984  0.1942
 2064DOPE   C1A24216  21.051  33.823  15.126 -0.0843 -0.1433 -0.3518
 2064DOPE   D2A24217  21.497  33.783  15.091  0.0633 -0.0098  0.2767
 2064DOPE   C3A24218  21.636  33.896  14.685 -0.0303  0.2912  0.3626
 2064DOPE   C4A24219  21.798  34.297  14.488  0.1926  0.0750 -0.0123
 2064DOPE   C1B24220  20.546  33.860  14.712  0.1477 -0.2398  0.0030
 2064DOPE   D2B24221  20.467  33.899  14.249 -0.2322  0.0899  0.4728
 2064DOPE   C3B24222  20.096  34.183  14.136 -0.2260  0.0901 -0.0382
 2064DOPE   C4B24223  19.662  34.137  14.238 -0.0199 -0.0199 -0.2346
 2065POSM   NC324224  21.880  28.461  15.829 -0.1774 -0.0117 -0.3976
 2065POSM   PO424225  21.716  28.694  16.041 -0.1414 -0.2691  0.0545
 2065POSM   AM124226  21.807  28.914  15.803 -0.1502 -0.0542 -0.2521
 2065POSM   AM224227  21.858  29.238  15.856  0.0003  0.2930 -0.1212
 2065POSM   T1A24228  22.058  28.847  15.376 -0.0531 -0.1699  0.0097
 2065POSM   C2A24229  22.279  28.972  14.979  0.1236  0.0670 -0.2923
 2065POSM   C3A24230  22.272  28.952  14.506 -0.2761 -0.0439 -0.0968
 2065POSM   C1B24231  21.966  29.331  15.577  0.1778 -0.1638  0.1421
 2065POSM   D2B24232  21.885  29.305  15.078  0.1810  0.0575 -0.0887
 2065POSM   C3B24233  22.119  29.497  14.694  0.0075  0.0179 -0.1418
 2065POSM   C4B24234  22.089  29.730  14.315  0.2375 -0.0523  0.1827
 2066POSM   NC324235  23.155  24.263  15.797  0.4040  0.3276 -0.0429
 2066POSM   PO424236  22.864  24.469  15.606 -0.1241 -0.1588 -0.0111
 2066POSM   AM124237  22.782  24.725  15.395 -0.1552 -0.2351  0.3565
 2066POSM   AM224238  22.896  24.974  15.338  0.0026 -0.0254 -0.0190
 2066POSM   T1A24239  22.434  24.918  15.086 -0.1268  0.0341  0.0251
 2066POSM   C2A24240  22.560  25.055  14.671  0.0550 -0.4343 -0.3252
 2066POSM   C3A24241  22.781  25.287  14.270 -0.0973 -0.2289 -0.1049
 2066POSM   C1B24242  22.937  25.173  15.051  0.0737 -0.3683  0.3189
 2066POSM   D2B24243  23.113  25.476  14.744  0.0925  0.0827  0.1244
 2066POSM   C3B24244  22.934  25.784  14.396  0.3587  0.3399  0.2570
 2066POSM   C4B24245  22.653  26.101  14.317 -0.1951  0.0597  0.0169
 2067DOPC   NC324246  12.973  30.616  16.218  0.2471 -0.2746 -0.0932
 2067DOPC   PO424247  13.214  30.882  16.081 -0.2688 -0.1830  0.2087
 2067DOPC   GL124248  13.448  30.871  15.703 -0.0685 -0.0262 -0.3719
 2067DOPC   GL224249  13.626  31.062  15.755 -0.4594  0.0640 -0.0976
 2067DOPC   C1A24250  13.244  30.997  15.246  0.0683 -0.0486 -0.0165
 2067DOPC   D2A24251  12.797  30.910  15.148 -0.3801  0.1749 -0.1871
 2067DOPC   C3A24252  12.497  30.816  14.805  0.0834  0.2845 -0.0595
 2067DOPC   C4A24253  12.116  30.875  14.513  0.2107  0.3719  0.2620
 2067DOPC   C1B24254  13.599  31.490  15.516  0.2808 -0.0059 -0.3233
 2067DOPC   D2B24255  13.290  31.888  15.457 -0.0187 -0.0632  0.2075
 2067DOPC   C3B24256  13.447  32.265  15.548 -0.2087 -0.3286 -0.0287
 2067DOPC   C4B24257  13.757  32.490  15.330 -0.0972 -0.0239 -0.2191
 2068DOPC   NC324258  12.809  26.297  14.753 -0.2147 -0.0627  0.3147
 2068DOPC   PO424259  13.170  26.356  14.926 -0.0574  0.0679  0.0501
 2068DOPC   GL124260  13.153  26.118  14.517 -0.2016 -0.1268  0.1777
 2068DOPC   GL224261  13.058  25.865  14.640 -0.1283 -0.0815  0.1158
 2068DOPC   C1A24262  13.093  26.091  14.077 -0.0912 -0.0501 -0.1821
 2068DOPC   D2A24263  12.911  26.489  13.895 -0.0693  0.3594 -0.1358
 2068DOPC   C3A24264  12.679  26.603  13.537 -0.0176 -0.2496  0.1554
 2068DOPC   C4A24265  12.856  26.911  13.269  0.1190 -0.3181  0.0349
 2068DOPC   C1B24266  12.922  25.570  14.335  0.3825 -0.1943  0.1818
 2068DOPC   D2B24267  12.704  25.500  13.901 -0.1052 -0.1195 -0.1413
 2068DOPC   C3B24268  12.720  25.383  13.416  0.0665  0.1242  0.0354
 2068DOPC   C4B24269  12.424  25.180  13.016  0.0167 -0.0450  0.1985
 2069POSM   NC324270  17.495  23.540  15.610  0.0168  0.0036 -0.0647
 2069POSM   PO424271  17.825  23.655  15.765  0.1487  0.4212 -0.1946
 2069POSM   AM124272  17.834  23.766  15.470 -0.1770 -0.3669 -0.0572
 2069POSM   AM224273  17.784  23.997  15.294  0.0360  0.2792  0.0098
 2069POSM   T1A24274  17.898  23.703  14.960  0.2107 -0.1750 -0.2444
 2069POSM   C2A24275  18.035  23.470  14.595 -0.0296 -0.0224 -0.1198
 2069POSM   C3A24276  18.311  23.158  14.377  0.0607  0.2320 -0.0777
 2069POSM   C1B24277  17.777  24.187  15.014  0.0676  0.0558 -0.0294
 2069POSM   D2B24278  17.846  24.028  14.501  0.1853 -0.4485 -0.0581
 2069POSM   C3B24279  17.897  24.292  14.129  0.0503  0.1754  0.2036
 2069POSM   C4B24280  17.600  24.522  13.810  0.3733  0.5058 -0.1105
 2070POSM   NC324281  22.729  28.235  16.228 -0.0264 -0.1418 -0.0097
 2070POSM   PO424282  23.083  28.353  16.224  0.1185  0.2031  0.2607
 2070POSM   AM124283  23.240  28.390  15.924  0.1405 -0.0011 -0.2159
 2070POSM   AM224284  23.315  28.576  15.738 -0.3313 -0.2396  0.0959
 2070POSM   T1A24285  23.364  28.257  15.440 -0.0307 -0.0781 -0.0947
 2070POSM   C2A24286  23.029  27.983  15.237  0.0456 -0.0290  0.2395
 2070POSM   C3A24287  22.711  28.110  14.913  0.0028  0.2051  0.1376
 2070POSM   C1B24288  23.187  28.819  15.465  0.2489  0.2492  0.2264
 2070POSM   D2B24289  23.254  29.015  15.040 -0.0015  0.0948  0.2875
 2070POSM   C3B24290  23.284  29.264  14.683 -0.3946 -0.0382  0.0694
 2070POSM   C4B24291  23.219  29.152  14.234 -0.0850 -0.2638 -0.1321
 2071DOPE   NH324292  21.584  32.921  16.054  0.0892 -0.3139 -0.0643
 2071DOPE   PO424293  21.521  33.179  16.198 -0.3408 -0.2969 -0.1187
 2071DOPE   GL124294  21.546  33.338  15.683  0.1372 -0.0062  0.1151
 2071DOPE   GL224295  21.475  32.994  15.507 -0.0163 -0.0329  0.1226
 2071DOPE   C1A24296  21.633  33.771  15.534 -0.1847  0.0083 -0.1461
 2071DOPE   D2A24297  21.934  33.949  15.338 -0.0822 -0.1934 -0.2244
 2071DOPE   C3A24298  22.083  33.898  14.910 -0.1908 -0.1354  0.3226
 2071DOPE   C4A24299  22.136  33.693  14.554  0.0490  0.0408  0.0459
 2071DOPE   C1B24300  21.619  33.107  15.106 -0.1600  0.0281  0.1770
 2071DOPE   D2B24301  21.639  33.374  14.761  0.0472 -0.1864 -0.1113
 2071DOPE   C3B24302  21.321  33.139  14.497 -0.2699 -0.1610 -0.2147
 2071DOPE   C4B24303  20.972  33.126  14.247 -0.2068  0.1547 -0.1040
 2072DOPC   NC324304  18.183  32.351  15.709  0.2812  0.1665  0.2669
 2072DOPC   PO424305  18.508  32.114  15.591  0.0495 -0.0599 -0.1651
 2072DOPC   GL124306  18.403  32.128  15.305 -0.0360 -0.0303  0.4393
 2072DOPC   GL224307  18.708  32.241  15.172  0.1090 -0.1477 -0.0019
 2072DOPC   C1A24308  18.361  32.089  14.842  0.0080  0.1615  0.0340
 2072DOPC   D2A24309  18.306  32.325  14.434  0.0324  0.0390  0.0274
 2072DOPC   C3A24310  18.503  32.242  13.990 -0.1660  0.0408 -0.2564
 2072DOPC   C4A24311  18.626  32.039  13.667  0.0319  0.1676  0.1578
 2072DOPC   C1B24312  18.742  32.434  14.782  0.1203  0.1612 -0.0197
 2072DOPC   D2B24313  18.801  32.459  14.324 -0.1761 -0.0179 -0.1634
 2072DOPC   C3B24314  19.023  32.134  14.068  0.1654 -0.1849  0.1865
 2072DOPC   C4B24315  19.477  32.090  13.912 -0.1515 -0.0686 -0.1644
 2073DOPE   NH324316  19.825  29.107  16.696  0.3060 -0.0342  0.3758
 2073DOPE   PO424317  19.664  29.148  16.408  0.0491 -0.0484 -0.2254
 2073DOPE   GL124318  19.605  29.067  15.927  0.3121 -0.0825  0.3026
 2073DOPE   GL224319  19.360  29.282  15.775  0.1558  0.2674 -0.0969
 2073DOPE   C1A24320  19.729  29.300  15.518  0.3836  0.3919  0.2172
 2073DOPE   D2A24321  19.954  29.670  15.323  0.0564 -0.0332  0.1850
 2073DOPE   C3A24322  19.944  30.107  15.523 -0.0853  0.2425 -0.0653
 2073DOPE   C4A24323  19.940  30.600  15.533  0.0343  0.0057 -0.0263
 2073DOPE   C1B24324  19.272  29.196  15.364  0.2085 -0.3896 -0.0462
 2073DOPE   D2B24325  19.462  29.446  15.023 -0.0054  0.0443 -0.0306
 2073DOPE   C3B24326  19.753  29.314  14.709  0.3037 -0.0265  0.0786
 2073DOPE   C4B24327  19.845  29.249  14.324 -0.2768  0.0606 -0.0451
 2074DOPE   NH324328  21.584  26.759  16.013  0.1653  0.1208  0.1285
 2074DOPE   PO424329  21.825  26.531  15.946  0.1831 -0.0231 -0.0968
 2074DOPE   GL124330  21.572  26.299  15.805  0.0749 -0.0494  0.5267
 2074DOPE   GL224331  21.494  26.491  15.565  0.0298  0.0369  0.1173
 2074DOPE   C1A24332  21.462  25.986  15.446  0.0587  0.2662 -0.0930
 2074DOPE   D2A24333  21.438  26.003  15.012 -0.2161 -0.0613  0.0220
 2074DOPE   C3A24334  21.404  25.706  14.623 -0.0031  0.1229 -0.2887
 2074DOPE   C4A24335  21.552  25.526  14.210 -0.0786 -0.1422  0.1677
 2074DOPE   C1B24336  21.744  26.363  15.202  0.1091  0.5868  0.0562
 2074DOPE   D2B24337  21.746  26.386  14.717 -0.0148  0.1668 -0.3140
 2074DOPE   C3B24338  22.129  26.501  14.547 -0.0272  0.1831  0.3733
 2074DOPE   C4B24339  22.289  26.807  14.286  0.0872  0.0357  0.2390
 2075DOPE   NH324340  19.191  25.802  15.565  0.0911 -0.0087 -0.0970
 2075DOPE   PO424341  18.890  25.681  15.644  0.2186  0.1616  0.1461
 2075DOPE   GL124342  18.755  25.907  15.325 -0.1865 -0.0288  0.0527
 2075DOPE   GL224343  18.889  26.170  15.440  0.2306  0.2407 -0.1136
 2075DOPE   C1A24344  18.524  25.760  14.943 -0.0711  0.1702  0.0610
 2075DOPE   D2A24345  18.401  25.562  14.528  0.0206  0.0321  0.1189
 2075DOPE   C3A24346  18.661  25.417  14.174 -0.1456  0.0689  0.2145
 2075DOPE   C4A24347  18.962  25.272  13.850 -0.1606 -0.1793 -0.0015
 2075DOPE   C1B24348  18.956  26.635  15.433 -0.2561  0.0008  0.2253
 2075DOPE   D2B24349  18.909  26.917  15.109  0.0639  0.0988  0.0978
 2075DOPE   C3B24350  18.946  26.638  14.753  0.0034  0.0241 -0.1557
 2075DOPE   C4B24351  19.013  26.328  14.469  0.2430 -0.3528 -0.0015
 2076DOPS   CNO24352  12.739  28.612  15.489  0.0163  0.1306  0.0512
 2076DOPS   PO424353  12.902  28.322  15.329  0.1251  0.1776 -0.1134
 2076DOPS   GL124354  12.951  28.510  14.920 -0.0422 -0.2707 -0.2511
 2076DOPS   GL224355  12.698  28.507  14.903 -0.1246  0.3719  0.0332
 2076DOPS   C1A24356  12.857  28.555  14.427  0.0673 -0.0667  0.1844
 2076DOPS   D2A24357  12.479  28.692  14.299 -0.0243 -0.1876 -0.0206
 2076DOPS   C3A24358  12.479  29.066  13.986  0.1740 -0.0223 -0.0956
 2076DOPS   C4A24359  12.626  29.327  13.614  0.1680  0.0562 -0.0356
 2076DOPS   C1B24360  12.413  28.877  14.772  0.0922  0.1193 -0.2890
 2076DOPS   D2B24361  12.185  29.068  14.426 -0.2770 -0.0550  0.1104
 2076DOPS   C3B24362  12.237  29.421  14.156  0.0809  0.2061  0.2055
 2076DOPS   C4B24363  12.207  29.862  14.152  0.1411  0.2464 -0.1842
 2077DOPE   NH324364  18.564  29.640  16.191 -0.0025  0.3655  0.3919
 2077DOPE   PO424365  18.584  29.950  16.307 -0.0134 -0.2528 -0.1815
 2077DOPE   GL124366  18.388  30.002  15.877  0.3373 -0.2144  0.0389
 2077DOPE   GL224367  18.621  29.905  15.754  0.0978 -0.2679  0.0950
 2077DOPE   C1A24368  18.149  30.238  15.541 -0.3173 -0.0319  0.0096
 2077DOPE   D2A24369  18.270  30.379  15.128 -0.1713  0.3863 -0.1816
 2077DOPE   C3A24370  18.615  30.202  14.945 -0.1410 -0.0902 -0.0377
 2077DOPE   C4A24371  19.085  30.206  14.912  0.1172 -0.1842  0.1210
 2077DOPE   C1B24372  18.431  29.830  15.359 -0.2784  0.0827  0.4883
 2077DOPE   D2B24373  18.038  29.949  15.104 -0.1341 -0.1214  0.1308
 2077DOPE   C3B24374  17.971  29.737  14.700 -0.2777 -0.0128 -0.2605
 2077DOPE   C4B24375  18.035  29.389  14.402 -0.2637 -0.2267 -0.3350
 2078DOPE   NH324376  14.963  29.616  15.925  0.1285 -0.2922 -0.0754
 2078DOPE   PO424377  15.040  29.266  15.990 -0.4432  0.0564 -0.0810
 2078DOPE   GL124378  15.172  29.243  15.633 -0.2161  0.0351 -0.0799
 2078DOPE   GL224379  15.436  29.289  15.633 -0.0706  0.0325 -0.1254
 2078DOPE   C1A24380  15.083  29.374  15.165  0.0210 -0.2328 -0.2158
 2078DOPE   D2A24381  15.065  29.700  14.827 -0.1497  0.0385 -0.0680
 2078DOPE   C3A24382  15.073  29.374  14.567  0.1729  0.1615 -0.1891
 2078DOPE   C4A24383  15.022  29.174  14.197 -0.1728 -0.2605 -0.0008
 2078DOPE   C1B24384  15.540  28.995  15.373  0.0307 -0.0094  0.0675
 2078DOPE   D2B24385  15.814  28.909  15.066 -0.0817  0.0133 -0.2998
 2078DOPE   C3B24386  15.969  29.149  14.723 -0.1593  0.1519 -0.1526
 2078DOPE   C4B24387  16.097  29.007  14.302 -0.4997 -0.1200  0.0553
 2079POSM   NC324388  14.819  24.016  15.462 -0.4188  0.0926  0.0428
 2079POSM   PO424389  15.218  24.090  15.476  0.3695  0.2746 -0.1609
 2079POSM   AM124390  15.254  23.961  15.152  0.1552 -0.0538 -0.0763
 2079POSM   AM224391  15.098  23.878  14.923  0.0339 -0.0032  0.3705
 2079POSM   T1A24392  15.470  23.539  14.967 -0.1569  0.2183  0.2840
 2079POSM   C2A24393  15.560  23.063  14.835 -0.0578  0.0318 -0.0046
 2079POSM   C3A24394  15.836  22.792  14.615 -0.0555  0.3619  0.3551
 2079POSM   C1B24395  15.358  23.945  14.735  0.1066 -0.2584  0.3287
 2079POSM   D2B24396  15.451  24.085  14.324  0.1017 -0.2463 -0.1575
 2079POSM   C3B24397  15.806  24.342  14.415  0.1516 -0.2064 -0.0273
 2079POSM   C4B24398  16.148  24.672  14.384  0.2923  0.0765 -0.1067
 2080POSM   NC324399  16.152  26.635  15.414 -0.1577 -0.2153  0.0085
 2080POSM   PO424400  16.376  26.690  15.715  0.1815  0.1194 -0.1661
 2080POSM   AM124401  16.454  26.986  15.557  0.1354 -0.1273  0.1555
 2080POSM   AM224402  16.340  27.083  15.278  0.0551  0.2552  0.0354
 2080POSM   T1A24403  16.831  27.213  15.393  0.1532  0.2014 -0.1096
 2080POSM   C2A24404  17.164  27.276  15.091 -0.1466  0.0757  0.0001
 2080POSM   C3A24405  17.303  27.610  14.788 -0.1554  0.0859 -0.0519
 2080POSM   C1B24406  16.438  26.882  15.021  0.0699  0.0126 -0.1095
 2080POSM   D2B24407  16.460  26.822  14.570  0.2911 -0.2532  0.0218
 2080POSM   C3B24408  16.702  26.503  14.311  0.1795  0.3150  0.2729
 2080POSM   C4B24409  16.689  26.050  14.387  0.2001 -0.0191  0.0202
 2081DOPC   NC324410  17.800  29.639  16.464  0.0426  0.1840 -0.2346
 2081DOPC   PO424411  18.124  29.470  16.326 -0.4326  0.2182 -0.3138
 2081DOPC   GL124412  18.126  29.431  15.952  0.3722 -0.2677 -0.0153
 2081DOPC   GL224413  18.330  29.282  15.853  0.0783 -0.0480 -0.1598
 2081DOPC   C1A24414  17.968  29.656  15.577 -0.0308 -0.1818  0.1971
 2081DOPC   D2A24415  17.729  29.578  15.244  0.2995 -0.2903 -0.2177
 2081DOPC   C3A24416  17.501  29.516  14.864  0.1640  0.0010 -0.2177
 2081DOPC   C4A24417  17.204  29.639  14.514 -0.0079  0.0524  0.3739
 2081DOPC   C1B24418  18.184  29.265  15.418  0.1335 -0.2098  0.0440
 2081DOPC   D2B24419  18.264  29.458  15.025 -0.3236 -0.2378  0.2441
 2081DOPC   C3B24420  18.531  29.653  14.696  0.2588 -0.1456  0.0277
 2081DOPC   C4B24421  18.842  29.938  14.493 -0.0233 -0.1546 -0.1868
 2082DOPC   NC324422  15.291  32.066  15.359 -0.0311 -0.0709 -0.1205
 2082DOPC   PO424423  15.632  31.872  15.249 -0.0951  0.2968  0.2018
 2082DOPC   GL124424  15.605  31.680  14.862  0.0555  0.6757 -0.3430
 2082DOPC   GL224425  15.646  31.779  14.568  0.1092  0.0894 -0.0755
 2082DOPC   C1A24426  15.583  31.280  14.660 -0.3125  0.1288  0.1959
 2082DOPC   D2A24427  15.830  30.906  14.703 -0.0242  0.1250  0.1444
 2082DOPC   C3A24428  16.045  30.936  14.297  0.1877  0.4259 -0.1080
 2082DOPC   C4A24429  16.217  30.820  13.915  0.1909 -0.2122 -0.2228
 2082DOPC   C1B24430  15.747  31.833  14.134 -0.0004 -0.1863 -0.0349
 2082DOPC   D2B24431  15.719  31.641  13.702  0.0595 -0.2256  0.0526
 2082DOPC   C3B24432  16.126  31.578  13.579 -0.1372 -0.0027  0.1403
 2082DOPC   C4B24433  16.549  31.739  13.594  0.1630  0.0490  0.0843
 2083POSM   NC324434  14.795  33.050  15.560  0.0982  0.1890  0.2904
 2083POSM   PO424435  14.446  33.081  15.708  0.2700 -0.1693  0.0433
 2083POSM   AM124436  14.311  33.061  15.398  0.1510 -0.5822 -0.0581
 2083POSM   AM224437  14.490  32.958  15.174 -0.1083  0.0003  0.0096
 2083POSM   T1A24438  13.923  32.952  15.112 -0.0570 -0.2266  0.5818
 2083POSM   C2A24439  13.753  32.676  14.806 -0.3448  0.1579 -0.2424
 2083POSM   C3A24440  13.892  32.606  14.323  0.4638 -0.1963  0.0235
 2083POSM   C1B24441  14.624  32.761  14.993 -0.3989  0.0339  0.1293
 2083POSM   D2B24442  14.699  32.396  14.742 -0.1464  0.1740  0.1401
 2083POSM   C3B24443  14.782  32.423  14.327 -0.0462  0.0968  0.2117
 2083POSM   C4B24444  14.892  32.330  13.854 -0.0149  0.1350  0.0867
 2084DOPC   NC324445  20.329  24.947  15.264 -0.2085  0.0004  0.1467
 2084DOPC   PO424446  20.088  25.212  15.378 -0.0517 -0.0487  0.2087
 2084DOPC   GL124447  20.261  25.431  15.051  0.0446  0.3619  0.1145
 2084DOPC   GL224448  20.057  25.648  15.137  0.1849  0.1577  0.1931
 2084DOPC   C1A24449  20.573  25.437  14.731  0.1973 -0.0995  0.0466
 2084DOPC   D2A24450  20.947  25.421  14.542 -0.1604  0.1901 -0.0945
 2084DOPC   C3A24451  20.933  25.548  14.102 -0.2314  0.0452  0.1166
 2084DOPC   C4A24452  21.240  25.797  13.925 -0.1161  0.3508 -0.3378
 2084DOPC   C1B24453  20.048  25.687  14.696  0.1468 -0.2352 -0.2875
 2084DOPC   D2B24454  20.278  25.544  14.291  0.2247 -0.2884  0.0964
 2084DOPC   C3B24455  20.525  25.898  14.041  0.0511  0.2563  0.1342
 2084DOPC   C4B24456  20.352  26.254  13.760  0.0736  0.1378 -0.1523
 2085POSM   NC324457  11.698  30.332  15.467 -0.1659  0.0620 -0.1400
 2085POSM   PO424458  11.805  30.676  15.657 -0.2914  0.3267 -0.0835
 2085POSM   AM124459  11.822  30.796  15.379 -0.2862  0.0710 -0.1281
 2085POSM   AM224460  11.867  31.000  15.205 -0.3979  0.3802 -0.2021
 2085POSM   T1A24461  11.643  30.746  14.912 -0.0273 -0.1080  0.4344
 2085POSM   C2A24462  11.687  30.536  14.504  0.0136 -0.0523 -0.1381
 2085POSM   C3A24463  11.596  30.701  14.087  0.0637  0.0228 -0.0108
 2085POSM   C1B24464  12.145  31.106  15.008  0.1931  0.2398  0.2710
 2085POSM   D2B24465  12.290  31.351  14.602  0.3498  0.0247 -0.2374
 2085POSM   C3B24466  12.557  31.091  14.357  0.0695  0.1971  0.2098
 2085POSM   C4B24467  12.770  30.691  14.168  0.3422  0.0191  0.0692
 2086DOPC   NC324468  14.722  28.541  15.608  0.3121 -0.1932 -0.3459
 2086DOPC   PO424469  14.660  28.215  15.429  0.0473 -0.1940 -0.0447
 2086DOPC   GL124470  14.447  28.275  15.113 -0.1408 -0.2146  0.0615
 2086DOPC   GL224471  14.357  28.071  14.998 -0.1339 -0.4502  0.0585
 2086DOPC   C1A24472  14.609  28.424  14.699 -0.2885  0.2969 -0.2536
 2086DOPC   D2A24473  14.978  28.651  14.561 -0.3212  0.2605  0.0383
 2086DOPC   C3A24474  15.444  28.504  14.480 -0.0158 -0.0585  0.2559
 2086DOPC   C4A24475  15.775  28.612  14.252  0.1091  0.0367  0.0521
 2086DOPC   C1B24476  14.144  28.015  14.576 -0.0496  0.1752  0.2815
 2086DOPC   D2B24477  13.793  28.047  14.286  0.2837  0.1494  0.1978
 2086DOPC   C3B24478  13.825  27.699  13.874  0.0661  0.1418  0.1035
 2086DOPC   C4B24479  14.066  27.565  13.502  0.2294 -0.2790  0.1973
 2087POSM   NC324480  13.605  33.498  15.593  0.1153  0.0309 -0.1558
 2087POSM   PO424481  13.326  33.699  15.833  0.2083  0.0656  0.0099
 2087POSM   AM124482  13.218  33.794  15.524 -0.1430 -0.2554  0.2638
 2087POSM   AM224483  13.272  33.751  15.242  0.2683  0.3035 -0.2103
 2087POSM   T1A24484  12.830  33.957  15.211  0.1004 -0.1095 -0.1383
 2087POSM   C2A24485  12.587  33.994  14.862 -0.3431 -0.2043  0.1256
 2087POSM   C3A24486  12.156  34.051  14.761 -0.1209 -0.0331 -0.1893
 2087POSM   C1B24487  13.323  33.567  14.936  0.1273 -0.4692  0.1369
 2087POSM   D2B24488  13.133  33.323  14.575 -0.2257 -0.0822 -0.0268
 2087POSM   C3B24489  12.965  33.628  14.219 -0.1850 -0.0325  0.0149
 2087POSM   C4B24490  12.818  34.063  14.308 -0.0791 -0.3844  0.1376
 2088DOPE   NH324491  15.451  29.500  16.188 -0.1293 -0.2302  0.1578
 2088DOPE   PO424492  15.728  29.462  15.993  0.0298  0.2735  0.3805
 2088DOPE   GL124493  15.832  29.694  15.595 -0.1922 -0.2089  0.0362
 2088DOPE   GL224494  15.710  29.609  15.337 -0.1303  0.1073  0.0505
 2088DOPE   C1A24495  16.032  29.922  15.216  0.0854 -0.0839  0.2118
 2088DOPE   D2A24496  16.072  30.131  14.843  0.1659 -0.0174 -0.1274
 2088DOPE   C3A24497  15.805  30.450  14.596  0.2368  0.1456 -0.2429
 2088DOPE   C4A24498  15.393  30.567  14.575 -0.4082  0.1465  0.3195
 2088DOPE   C1B24499  15.549  29.397  14.954 -0.1135  0.2879 -0.0385
 2088DOPE   D2B24500  15.591  29.500  14.518  0.1713  0.0691  0.0840
 2088DOPE   C3B24501  15.775  29.927  14.413  0.2973 -0.0882  0.0838
 2088DOPE   C4B24502  15.796  30.288  14.103 -0.0597  0.0281 -0.0334
 2089DOPC   NC324503  22.067  25.266  15.547  0.1261 -0.1598  0.0111
 2089DOPC   PO424504  21.783  24.977  15.523  0.0600  0.3027 -0.1567
 2089DOPC   GL124505  21.938  24.836  15.209  0.4527  0.0027 -0.0742
 2089DOPC   GL224506  21.903  25.070  15.056 -0.1502  0.1162  0.1454
 2089DOPC   C1A24507  21.656  24.727  14.831 -0.0199 -0.0613  0.2615
 2089DOPC   D2A24508  21.446  24.602  14.385 -0.2620 -0.3004  0.3568
 2089DOPC   C3A24509  21.004  24.407  14.320 -0.2229 -0.0803  0.2227
 2089DOPC   C4A24510  20.689  24.682  14.133  0.0662 -0.0382  0.0887
 2089DOPC   C1B24511  22.129  25.312  14.695 -0.4503 -0.0930 -0.3319
 2089DOPC   D2B24512  21.968  25.752  14.671 -0.0040  0.0105  0.2157
 2089DOPC   C3B24513  22.318  26.070  14.763  0.0409 -0.3363 -0.1328
 2089DOPC   C4B24514  22.793  26.120  14.766  0.4713 -0.1082  0.0458
 2090DOPC   NC324515  18.327  23.857  15.737  0.0359 -0.4999  0.0880
 2090DOPC   PO424516  18.078  24.170  15.676  0.0677 -0.0375  0.3206
 2090DOPC   GL124517  18.190  24.144  15.345 -0.0658 -0.0176 -0.3003
 2090DOPC   GL224518  18.260  23.997  15.127  0.0497 -0.0805  0.2103
 2090DOPC   C1A24519  18.156  24.527  14.999 -0.2589  0.0676  0.0239
 2090DOPC   D2A24520  17.925  24.597  14.663 -0.3186  0.0042 -0.0958
 2090DOPC   C3A24521  17.798  24.826  14.227  0.1118  0.0444  0.5103
 2090DOPC   C4A24522  17.405  24.958  14.000  0.0417  0.2871 -0.1602
 2090DOPC   C1B24523  18.384  23.956  14.695  0.0234 -0.2367  0.0422
 2090DOPC   D2B24524  18.748  24.184  14.440  0.1506  0.1038 -0.0427
 2090DOPC   C3B24525  18.941  24.358  14.024  0.0361 -0.0246  0.3289
 2090DOPC   C4B24526  18.870  24.632  13.686 -0.4477 -0.2701 -0.2776
 2091DOPC   NC324527  15.676  27.985  16.050 -0.0086 -0.2040  0.0372
 2091DOPC   PO424528  15.540  27.826  15.720  0.5298 -0.0653  0.0215
 2091DOPC   GL124529  15.624  27.887  15.406 -0.5165  0.5334 -0.0401
 2091DOPC   GL224530  15.568  27.662  15.267  0.0176 -0.1973  0.5288
 2091DOPC   C1A24531  15.505  28.050  14.987  0.0848 -0.0006  0.0574
 2091DOPC   D2A24532  15.739  27.970  14.607 -0.1295  0.0145  0.0494
 2091DOPC   C3A24533  15.932  28.141  14.225  0.1485 -0.0871 -0.1061
 2091DOPC   C4A24534  15.907  28.212  13.742 -0.1151  0.1541 -0.1889
 2091DOPC   C1B24535  15.400  27.553  14.780 -0.1808  0.0667  0.2169
 2091DOPC   D2B24536  15.330  27.472  14.372 -0.2306 -0.1488 -0.1084
 2091DOPC   C3B24537  14.918  27.584  14.188  0.1471  0.1637  0.0604
 2091DOPC   C4B24538  14.739  28.012  14.299 -0.1600  0.0159  0.1153
 2092DOPC   NC324539  22.462  32.060  15.876 -0.1345  0.0066 -0.2086
 2092DOPC   PO424540  22.342  32.058  16.278 -0.1244  0.0485 -0.5025
 2092DOPC   GL124541  21.923  32.069  16.196 -0.2262  0.2021  0.4244
 2092DOPC   GL224542  21.847  31.874  16.070 -0.1393 -0.1002  0.2060
 2092DOPC   C1A24543  21.849  32.173  15.697 -0.0975  0.1856 -0.2985
 2092DOPC   D2A24544  21.952  32.189  15.215 -0.1029 -0.1366 -0.0587
 2092DOPC   C3A24545  21.652  32.265  14.825  0.0946  0.1046  0.1753
 2092DOPC   C4A24546  21.278  32.193  14.621  0.1538 -0.0748 -0.2368
 2092DOPC   C1B24547  22.084  31.679  15.745 -0.1457 -0.3359 -0.0823
 2092DOPC   D2B24548  22.346  31.290  15.569  0.1274 -0.1943 -0.0089
 2092DOPC   C3B24549  22.248  30.981  15.265 -0.1209 -0.0912 -0.1522
 2092DOPC   C4B24550  22.241  30.558  15.018  0.2038  0.0746 -0.0914
 2093DOPS   CNO24551  17.921  28.584  16.068  0.2211  0.2025  0.2611
 2093DOPS   PO424552  18.089  28.903  16.134 -0.0390 -0.1975 -0.2900
 2093DOPS   GL124553  18.125  28.880  15.673 -0.0920 -0.1446 -0.1671
 2093DOPS   GL224554  17.969  28.753  15.466 -0.1495 -0.0468 -0.0513
 2093DOPS   C1A24555  18.442  28.821  15.328 -0.0989  0.0106 -0.1926
 2093DOPS   D2A24556  18.595  28.641  14.890 -0.0419  0.2057  0.0051
 2093DOPS   C3A24557  18.650  28.831  14.441  0.1201  0.1929  0.0179
 2093DOPS   C4A24558  18.682  29.082  14.063  0.1026 -0.0486 -0.0058
 2093DOPS   C1B24559  17.977  29.010  15.078 -0.4104 -0.0956 -0.2077
 2093DOPS   D2B24560  17.820  29.000  14.588  0.3094  0.0195  0.0387
 2093DOPS   C3B24561  17.456  29.247  14.410 -0.1173 -0.0042 -0.1676
 2093DOPS   C4B24562  17.136  29.368  14.050 -0.0458 -0.0336 -0.1196
 2094DOPC   NC324563  19.073  27.337  16.611 -0.4509 -0.2574 -0.0990
 2094DOPC   PO424564  18.718  27.204  16.589  0.1086  0.1130 -0.0039
 2094DOPC   GL124565  18.670  27.383  16.175 -0.3111 -0.2184 -0.1944
 2094DOPC   GL224566  18.401  27.241  16.035  0.1291  0.2138 -0.2526
 2094DOPC   C1A24567  18.780  27.454  15.750  0.0424 -0.1442  0.3667
 2094DOPC   D2A24568  19.021  27.544  15.380 -0.0761  0.1463 -0.1675
 2094DOPC   C3A24569  19.037  27.453  14.894  0.0963 -0.4044 -0.0376
 2094DOPC   C4A24570  19.069  27.342  14.424 -0.1409  0.0436 -0.6748
 2094DOPC   C1B24571  18.228  27.462  15.665  0.0062  0.0330 -0.0205
 2094DOPC   D2B24572  18.103  27.891  15.409  0.0098  0.0561 -0.0317
 2094DOPC   C3B24573  18.190  27.995  14.957 -0.2943  0.1336  0.1819
 2094DOPC   C4B24574  18.138  27.908  14.456 -0.1397  0.3386  0.4010
 2095DOPS   CNO24575  18.841  30.338  16.005 -0.0916 -0.0145  0.0481
 2095DOPS   PO424576  18.971  30.679  15.944 -0.1299  0.1996  0.1222
 2095DOPS   GL124577  19.090  30.753  15.604 -0.0533 -0.2438 -0.1506
 2095DOPS   GL224578  19.098  30.600  15.253 -0.1094  0.1188 -0.0886
 2095DOPS   C1A24579  19.455  30.944  15.347  0.3231  0.1485 -0.2211
 2095DOPS   D2A24580  19.863  31.143  15.330 -0.1553  0.2030  0.0357
 2095DOPS   C3A24581  20.067  30.796  15.085 -0.1614 -0.2225 -0.0169
 2095DOPS   C4A24582  20.156  30.848  14.661  0.3722 -0.1308 -0.2469
 2095DOPS   C1B24583  18.888  30.661  14.826 -0.1379  0.0247 -0.0623
 2095DOPS   D2B24584  18.470  30.673  14.771  0.0334 -0.1129  0.1523
 2095DOPS   C3B24585  18.279  30.855  14.422  0.3709  0.1436 -0.0509
 2095DOPS   C4B24586  18.018  30.727  14.027 -0.3905 -0.3629 -0.2578
 2096POSM   NC324587  22.910  23.537  15.570  0.2656  0.1945 -0.1396
 2096POSM   PO424588  23.210  23.801  15.527 -0.1359  0.1234 -0.1645
 2096POSM   AM124589  23.302  23.617  15.303 -0.1052 -0.0424  0.0801
 2096POSM   AM224590  23.250  23.353  15.220  0.1527 -0.5402  0.1277
 2096POSM   T1A24591  23.560  23.526  14.905 -0.2062  0.0998 -0.1227
 2096POSM   C2A24592  23.869  23.572  14.580  0.0737  0.1688 -0.0781
 2096POSM   C3A24593  24.209  23.908  14.552 -0.2923  0.0388 -0.0924
 2096POSM   C1B24594  23.276  23.170  14.912 -0.0638 -0.0877 -0.3768
 2096POSM   D2B24595  23.344  23.359  14.471 -0.1000 -0.2089 -0.1518
 2096POSM   C3B24596  23.234  23.742  14.448 -0.2713 -0.2956  0.1116
 2096POSM   C4B24597  22.902  24.091  14.463 -0.0400  0.0713  0.1768
 2097DOPS   CNO24598  15.985  28.219  15.741 -0.0199  0.3347 -0.1323
 2097DOPS   PO424599  16.081  27.889  15.556  0.1318 -0.2472  0.1006
 2097DOPS   GL124600  16.021  28.022  15.236 -0.0629  0.4292 -0.2920
 2097DOPS   GL224601  16.305  28.218  15.257  0.0992  0.1926  0.3073
 2097DOPS   C1A24602  15.948  27.654  14.938  0.0125  0.0331  0.2655
 2097DOPS   D2A24603  15.852  27.448  14.515  0.0909  0.2787 -0.0385
 2097DOPS   C3A24604  15.790  27.655  14.157 -0.2009 -0.0908  0.2271
 2097DOPS   C4A24605  15.534  27.494  13.837 -0.0794  0.0747  0.0151
 2097DOPS   C1B24606  16.215  28.085  14.830 -0.1992 -0.0761 -0.0296
 2097DOPS   D2B24607  16.211  27.773  14.500  0.1730 -0.0351  0.3180
 2097DOPS   C3B24608  16.277  27.755  14.051 -0.1093  0.0284  0.3516
 2097DOPS   C4B24609  16.070  27.778  13.619 -0.4511  0.2437  0.2813
 2098DOPS   CNO24610  12.572  26.343  15.263 -0.0480 -0.0477  0.1337
 2098DOPS   PO424611  12.417  26.241  14.955  0.0782  0.1727 -0.1876
 2098DOPS   GL124612  12.368  26.292  14.547  0.4395  0.0299 -0.1831
 2098DOPS   GL224613  12.545  26.358  14.336  0.0799  0.0709 -0.0692
 2098DOPS   C1A24614  12.104  26.004  14.330  0.1250  0.0989  0.3149
 2098DOPS   D2A24615  12.000  25.865  13.947 -0.1894 -0.1123  0.1736
 2098DOPS   C3A24616  12.274  25.645  13.662  0.0132  0.0295 -0.0622
 2098DOPS   C4A24617  12.093  25.392  13.292 -0.2782 -0.0132  0.3479
 2098DOPS   C1B24618  12.437  26.699  14.038  0.0448 -0.2446 -0.0562
 2098DOPS   D2B24619  12.085  26.735  13.709  0.0927  0.0630  0.0601
 2098DOPS   C3B24620  11.951  26.718  13.231 -0.0442  0.3342 -0.1175
 2098DOPS   C4B24621  11.829  26.574  12.793  0.1039  0.0295  0.0946
 2099DOPE   NH324622  15.111  27.506  15.666 -0.0400  0.1066  0.1023
 2099DOPE   PO424623  15.109  27.521  15.418 -0.0908 -0.0218 -0.0060
 2099DOPE   GL124624  14.971  27.592  15.025  0.0353 -0.1044 -0.0981
 2099DOPE   GL224625  14.832  27.835  14.999 -0.0435  0.2155  0.2899
 2099DOPE   C1A24626  14.842  27.363  14.594  0.1438  0.0414  0.1015
 2099DOPE   D2A24627  14.475  27.281  14.309  0.1641 -0.2192 -0.4170
 2099DOPE   C3A24628  14.607  27.008  13.907  0.0708  0.0409 -0.0695
 2099DOPE   C4A24629  14.868  26.904  13.575  0.1132  0.1302 -0.2123
 2099DOPE   C1B24630  14.576  27.765  14.658  0.5029 -0.0221  0.3126
 2099DOPE   D2B24631  14.211  27.490  14.669  0.1471  0.3109 -0.0212
 2099DOPE   C3B24632  13.923  27.522  14.343  0.0797 -0.0850 -0.6088
 2099DOPE   C4B24633  13.563  27.314  14.169  0.0398  0.0701  0.0160
 2100DOPE   NH324634  20.937  24.485  15.876 -0.1511 -0.1297  0.4561
 2100DOPE   PO424635  20.694  24.262  15.792  0.2415  0.3083  0.0246
 2100DOPE   GL124636  20.521  24.398  15.442 -0.1434 -0.0244 -0.2071
 2100DOPE   GL224637  20.348  24.217  15.322 -0.0976 -0.1153 -0.2490
 2100DOPE   C1A24638  20.565  24.509  15.016  0.1838 -0.3050  0.0815
 2100DOPE   D2A24639  20.426  24.519  14.521 -0.0541  0.0805 -0.1379
 2100DOPE   C3A24640  20.232  24.277  14.221  0.1815  0.1638  0.4221
 2100DOPE   C4A24641  19.892  24.140  13.925 -0.1580  0.1606 -0.0917
 2100DOPE   C1B24642  20.714  24.013  15.115 -0.3490 -0.0797 -0.1859
 2100DOPE   D2B24643  20.891  24.222  14.752  0.2832  0.1378  0.0073
 2100DOPE   C3B24644  21.127  24.619  14.930  0.0004 -0.0645 -0.1813
 2100DOPE   C4B24645  21.311  25.009  15.069 -0.2136 -0.0190  0.2996
 2101DOPE   NH324646  18.945  32.391  15.602 -0.2573  0.2940 -0.1774
 2101DOPE   PO424647  19.159  32.410  15.396 -0.4410  0.0074  0.2047
 2101DOPE   GL124648  19.018  32.576  15.085 -0.3043  0.2310 -0.3065
 2101DOPE   GL224649  18.873  32.798  15.202 -0.0624  0.2610 -0.0769
 2101DOPE   C1A24650  19.146  32.695  14.621  0.0837 -0.3480  0.2522
 2101DOPE   D2A24651  19.313  32.495  14.266  0.0751  0.2186  0.0264
 2101DOPE   C3A24652  19.368  32.595  13.778  0.0104 -0.1378  0.1518
 2101DOPE   C4A24653  19.603  32.743  13.461 -0.1971 -0.2413  0.0820
 2101DOPE   C1B24654  18.939  33.058  14.832  0.0603  0.0667  0.0796
 2101DOPE   D2B24655  19.067  33.239  14.399 -0.0758  0.0799  0.0504
 2101DOPE   C3B24656  18.981  32.899  14.050  0.0791  0.1318 -0.0167
 2101DOPE   C4B24657  18.843  32.554  13.780 -0.0965  0.4334  0.3989
 2102DOPC   NC324658  16.559  30.489  15.708 -0.0946 -0.2613  0.1812
 2102DOPC   PO424659  16.188  30.403  15.838 -0.0134 -0.2236 -0.1040
 2102DOPC   GL124660  16.328  30.020  15.642  0.4951 -0.0635 -0.1789
 2102DOPC   GL224661  16.422  30.142  15.356  0.2163  0.1060 -0.0985
 2102DOPC   C1A24662  16.266  29.578  15.614  0.2293  0.2937  0.1324
 2102DOPC   D2A24663  16.126  29.185  15.374 -0.0424  0.2676  0.0163
 2102DOPC   C3A24664  16.289  28.912  15.061  0.0271 -0.0339 -0.1095
 2102DOPC   C4A24665  16.503  29.100  14.724 -0.0599  0.0249 -0.1016
 2102DOPC   C1B24666  16.554  30.058  14.936  0.0596 -0.0078  0.2010
 2102DOPC   D2B24667  16.568  30.112  14.493 -0.2319  0.1069 -0.1435
 2102DOPC   C3B24668  16.823  29.864  14.187  0.2136  0.0761 -0.1669
 2102DOPC   C4B24669  17.309  29.874  14.094  0.2772 -0.2152 -0.0997
 2103DOPC   NC324670  23.865  27.356  15.827  0.2156  0.0655 -0.2894
 2103DOPC   PO424671  23.493  27.468  15.879  0.0350  0.0898  0.3584
 2103DOPC   GL124672  23.481  27.407  15.503 -0.3467 -0.3158 -0.2879
 2103DOPC   GL224673  23.540  27.094  15.533  0.3749  0.1003  0.0258
 2103DOPC   C1A24674  23.432  27.649  15.051 -0.2625 -0.0447  0.2457
 2103DOPC   D2A24675  23.437  27.917  14.677 -0.1740 -0.3893 -0.1159
 2103DOPC   C3A24676  23.776  27.904  14.396 -0.0037  0.4781  0.1591
 2103DOPC   C4A24677  24.152  27.879  14.171  0.1271  0.1980  0.0317
 2103DOPC   C1B24678  23.902  26.952  15.422  0.0033  0.1515  0.1875
 2103DOPC   D2B24679  24.223  27.205  15.294 -0.4491 -0.0569 -0.0392
 2103DOPC   C3B24680  24.550  27.511  15.125  0.1323 -0.1935  0.1139
 2103DOPC   C4B24681  24.757  27.908  14.923  0.1124 -0.1639 -0.4803
 2104POSM   NC324682  15.115  27.987  15.417  0.1054  0.2260  0.0820
 2104POSM   PO424683  15.111  28.267  15.647 -0.1323 -0.2547  0.1033
 2104POSM   AM124684  15.113  28.473  15.348  0.3374  0.5866  0.3192
 2104POSM   AM224685  14.972  28.376  15.100  0.1267 -0.2364  0.0634
 2104POSM   T1A24686  15.421  28.556  14.969 -0.0695  0.1077 -0.0666
 2104POSM   C2A24687  15.819  28.434  14.852  0.0091  0.1026  0.3229
 2104POSM   C3A24688  16.188  28.515  14.620 -0.1056  0.2000  0.2210
 2104POSM   C1B24689  15.072  28.216  14.829  0.1030 -0.1590  0.0756
 2104POSM   D2B24690  15.210  27.927  14.502  0.3715  0.0357  0.0476
 2104POSM   C3B24691  15.458  28.019  14.113  0.0267 -0.3210  0.0750
 2104POSM   C4B24692  15.356  28.273  13.757  0.1800 -0.0196  0.2929
 2105POSM   NC324693  13.712  32.914  16.062 -0.3282 -0.1579  0.2827
 2105POSM   PO424694  13.347  32.744  16.110 -0.1731  0.1806  0.1025
 2105POSM   AM124695  13.391  32.723  15.780  0.0894  0.0934  0.1914
 2105POSM   AM224696  13.540  32.879  15.582  0.1593  0.0486 -0.0183
 2105POSM   T1A24697  13.255  32.610  15.271 -0.1432  0.2751 -0.2915
 2105POSM   C2A24698  13.179  32.538  14.837 -0.0257 -0.1918 -0.1224
 2105POSM   C3A24699  13.151  32.476  14.386  0.0980  0.0661 -0.2275
 2105POSM   C1B24700  13.407  33.100  15.278  0.0024  0.1755  0.0169
 2105POSM   D2B24701  13.518  33.096  14.836 -0.0174  0.2050  0.0614
 2105POSM   C3B24702  13.473  32.849  14.431  0.2288  0.1786  0.3557
 2105POSM   C4B24703  13.349  33.045  14.014 -0.0921 -0.1562 -0.6529
 2106DOPE   NH324704  14.208  26.505  15.519  0.2074 -0.3071  0.0491
 2106DOPE   PO424705  13.984  26.574  15.312 -0.0581 -0.0702 -0.0773
 2106DOPE   GL124706  14.316  26.598  15.010  0.1647  0.1056 -0.1591
 2106DOPE   GL224707  14.388  26.785  15.099  0.1233 -0.1794  0.3191
 2106DOPE   C1A24708  14.547  26.415  14.666 -0.0019 -0.0861  0.3274
 2106DOPE   D2A24709  15.013  26.500  14.491  0.0738  0.0825  0.0907
 2106DOPE   C3A24710  14.977  26.534  14.008  0.1682  0.0750  0.1355
 2106DOPE   C4A24711  15.031  26.271  13.679 -0.1619 -0.1158 -0.2305
 2106DOPE   C1B24712  14.568  26.953  14.739 -0.3342  0.0667  0.0704
 2106DOPE   D2B24713  14.563  26.804  14.345 -0.1802 -0.1498 -0.2832
 2106DOPE   C3B24714  14.378  26.587  14.065 -0.0718  0.1145 -0.0890
 2106DOPE   C4B24715  14.532  26.445  13.712  0.3667  0.1809  0.1870
 2107DOPE   NH324716  12.802  27.458  15.508 -0.0156 -0.0840  0.0153
 2107DOPE   PO424717  13.014  27.264  15.357 -0.0291  0.1636 -0.4295
 2107DOPE   GL124718  13.070  27.350  14.966  0.2116  0.2928 -0.2291
 2107DOPE   GL224719  12.906  27.337  14.765  0.1475  0.0767  0.2383
 2107DOPE   C1A24720  13.317  27.189  14.592  0.0304 -0.1162  0.1219
 2107DOPE   D2A24721  13.781  27.284  14.746 -0.0270 -0.3444 -0.2885
 2107DOPE   C3A24722  14.075  26.969  14.704  0.0271 -0.1332  0.0001
 2107DOPE   C4A24723  14.052  26.464  14.598 -0.0242  0.0014  0.4703
 2107DOPE   C1B24724  13.033  27.486  14.350 -0.0429 -0.1694  0.0497
 2107DOPE   D2B24725  12.976  27.468  13.939 -0.0851 -0.1008  0.0603
 2107DOPE   C3B24726  12.572  27.572  13.739  0.1414 -0.4206  0.2555
 2107DOPE   C4B24727  12.312  27.561  13.364 -0.1311  0.1458  0.0908
 2108DOPE   NH324728  16.809   0.192  16.222 -0.0249  0.4328 -0.3311
 2108DOPE   PO424729  16.690  -0.003  16.005 -0.0817 -0.1085  0.0843
 2108DOPE   GL124730  16.818  -0.157  15.604 -0.0387  0.1434 -0.1244
 2108DOPE   GL224731  16.662   0.059  15.494 -0.2033 -0.3363 -0.0543
 2108DOPE   C1A24732  16.786  -0.212  15.105  0.1077  0.0065  0.0203
 2108DOPE   D2A24733  16.859   0.060  14.697 -0.2970  0.1125 -0.2417
 2108DOPE   C3A24734  17.140   0.199  14.320  0.2345 -0.0908 -0.1282
 2108DOPE   C4A24735  17.108  -0.038  13.911 -0.0083 -0.0118 -0.0235
 2108DOPE   C1B24736  16.632   0.251  15.109  0.0082  0.1603 -0.1530
 2108DOPE   D2B24737  16.385   0.575  14.844  0.2883 -0.0708 -0.3684
 2108DOPE   C3B24738  16.400   0.841  14.471 -0.1357 -0.3834  0.0543
 2108DOPE   C4B24739  16.631   0.925  14.096  0.0533 -0.1923 -0.3488
 2109DOPC   NC324740  12.232  24.697  15.909  0.0046 -0.1550 -0.0372
 2109DOPC   PO424741  12.139  24.606  15.541 -0.0224 -0.0320  0.3518
 2109DOPC   GL124742  12.107  24.568  15.125  0.0677  0.0683 -0.1859
 2109DOPC   GL224743  12.212  24.245  15.119  0.2491 -0.3014 -0.0762
 2109DOPC   C1A24744  11.891  24.669  14.717  0.0664  0.1644  0.0310
 2109DOPC   D2A24745  11.720  25.051  14.501 -0.3403  0.0449  0.1098
 2109DOPC   C3A24746  11.647  24.997  14.017 -0.3239 -0.0540  0.2187
 2109DOPC   C4A24747  11.282  25.103  13.727  0.0142 -0.2231 -0.1121
 2109DOPC   C1B24748  11.798  24.193  14.957  0.1065 -0.0732 -0.1700
 2109DOPC   D2B24749  11.577  24.138  14.526 -0.3146 -0.0206 -0.1459
 2109DOPC   C3B24750  11.872  24.182  14.170  0.0304 -0.3130  0.1246
 2109DOPC   C4B24751  11.868  24.246  13.705 -0.1417 -0.0235  0.3013
 2110DOPC   NC324752  12.279  29.078  15.910 -0.0122  0.1625 -0.3182
 2110DOPC   PO424753  12.302  28.875  15.555 -0.1606 -0.1819 -0.0539
 2110DOPC   GL124754  12.139  29.031  15.224 -0.2251 -0.1232  0.1625
 2110DOPC   GL224755  12.411  29.191  15.135 -0.2952 -0.1898  0.1651
 2110DOPC   C1A24756  11.952  28.932  14.837  0.1876  0.1004  0.0670
 2110DOPC   D2A24757  11.698  28.970  14.489  0.1540 -0.0889 -0.1667
 2110DOPC   C3A24758  11.753  29.151  14.049  0.3485  0.0378  0.1266
 2110DOPC   C4A24759  12.063  29.119  13.747 -0.0537  0.0875 -0.2373
 2110DOPC   C1B24760  12.353  29.407  14.697 -0.0425 -0.0453  0.0842
 2110DOPC   D2B24761  12.713  29.412  14.398  0.0606 -0.0764 -0.1377
 2110DOPC   C3B24762  13.173  29.478  14.352  0.1430 -0.0246 -0.1611
 2110DOPC   C4B24763  13.512  29.336  14.074 -0.0548 -0.1242  0.1382
 2111POSM   NC324764  16.099  25.649  15.761  0.2130 -0.2548 -0.0869
 2111POSM   PO424765  16.333  25.357  15.869  0.2434 -0.0425 -0.3776
 2111POSM   AM124766  16.532  25.218  15.630 -0.2688  0.1257 -0.0720
 2111POSM   AM224767  16.764  25.274  15.558 -0.0103  0.2162 -0.0000
 2111POSM   T1A24768  16.525  24.914  15.258 -0.0873  0.1452  0.2308
 2111POSM   C2A24769  16.592  24.938  14.777 -0.0355  0.0535 -0.0718
 2111POSM   C3A24770  16.499  25.114  14.349  0.1755 -0.4429  0.0729
 2111POSM   C1B24771  16.817  25.349  15.267  0.2141 -0.2053  0.1286
 2111POSM   D2B24772  16.545  25.490  14.925 -0.3151 -0.0303 -0.0290
 2111POSM   C3B24773  16.389  25.590  14.500  0.0491  0.2956  0.1153
 2111POSM   C4B24774  16.377  25.745  14.056  0.0941 -0.2002 -0.2365
 2112DOPC   NC324775  13.109  34.240  15.641  0.1048  0.2976 -0.2123
 2112DOPC   PO424776  13.499  34.142  15.682 -0.0435  0.0515  0.2040
 2112DOPC   GL124777  13.605  34.115  15.321  0.2441  0.0059  0.0024
 2112DOPC   GL224778  13.856  33.897  15.293  0.1456  0.1387 -0.0418
 2112DOPC   C1A24779  13.573  34.288  14.895  0.4328 -0.2176 -0.4772
 2112DOPC   D2A24780  13.328  34.416  14.516  0.0356  0.0213  0.0167
 2112DOPC   C3A24781  13.355  34.868  14.464  0.1934  0.0802 -0.1207
 2112DOPC   C4A24782  13.347  35.323  14.439 -0.2075  0.3617 -0.1118
 2112DOPC   C1B24783  13.948  33.885  14.825  0.0768 -0.1021  0.0837
 2112DOPC   D2B24784  14.229  33.612  14.522  0.2531 -0.1169  0.1730
 2112DOPC   C3B24785  14.254  33.370  14.136 -0.1244  0.0804 -0.1933
 2112DOPC   C4B24786  14.073  33.277  13.701 -0.2551  0.0701  0.3735
 2113DOPE   NH324787  19.658  24.918  15.777  0.1648  0.1696  0.1612
 2113DOPE   PO424788  19.606  24.939  15.471  0.2009  0.4460  0.1190
 2113DOPE   GL124789  19.743  24.838  15.077  0.0403  0.2947 -0.0785
 2113DOPE   GL224790  19.868  25.102  14.943 -0.1027  0.1250 -0.2257
 2113DOPE   C1A24791  19.571  24.777  14.677  0.1034 -0.1207 -0.0415
 2113DOPE   D2A24792  19.688  24.842  14.212 -0.0981  0.0135 -0.0324
 2113DOPE   C3A24793  20.134  24.825  14.113  0.1776 -0.0772 -0.1623
 2113DOPE   C4A24794  20.239  24.891  13.715  0.0824  0.0289 -0.0733
 2113DOPE   C1B24795  19.739  25.272  14.551  0.0960  0.0369 -0.1710
 2113DOPE   D2B24796  19.872  25.359  14.073  0.0063 -0.3311  0.1678
 2113DOPE   C3B24797  19.737  25.077  13.799  0.1852 -0.3219 -0.0945
 2113DOPE   C4B24798  19.769  24.620  13.677  0.1340  0.1041 -0.0049
 2114DOPC   NC324799  15.206  30.283  16.104 -0.1716 -0.1238 -0.4514
 2114DOPC   PO424800  15.184  29.920  16.230 -0.0045 -0.3987 -0.2246
 2114DOPC   GL124801  15.243  29.992  15.755  0.2080 -0.1262 -0.2521
 2114DOPC   GL224802  15.368  29.809  15.689  0.0728 -0.1487 -0.0359
 2114DOPC   C1A24803  14.919  29.911  15.411 -0.0265  0.0623 -0.0099
 2114DOPC   D2A24804  14.511  29.676  15.279 -0.0285 -0.2059  0.0273
 2114DOPC   C3A24805  14.088  29.775  15.257  0.1510  0.0304  0.0428
 2114DOPC   C4A24806  13.857  30.016  14.955 -0.2737 -0.0273 -0.0419
 2114DOPC   C1B24807  15.479  29.984  15.255 -0.0434 -0.0257 -0.0592
 2114DOPC   D2B24808  15.624  29.884  14.835  0.3637 -0.1765  0.1782
 2114DOPC   C3B24809  16.002  29.636  14.778  0.0407  0.0606  0.0615
 2114DOPC   C4B24810  16.325  29.498  15.118  0.0017 -0.0669  0.1561
 2115DOPE   NH324811  12.273  31.432  15.447 -0.0470 -0.0839  0.0549
 2115DOPE   PO424812  12.023  31.612  15.537  0.1704 -0.0874 -0.0826
 2115DOPE   GL124813  11.855  31.623  15.092  0.1657 -0.0930 -0.1604
 2115DOPE   GL224814  12.176  31.581  14.997 -0.1296 -0.1052 -0.2256
 2115DOPE   C1A24815  11.891  31.719  14.588  0.0966 -0.4030  0.0617
 2115DOPE   D2A24816  11.864  31.640  14.147  0.1920 -0.1850 -0.1157
 2115DOPE   C3A24817  12.326  31.547  14.042 -0.1166 -0.0101  0.1164
 2115DOPE   C4A24818  12.705  31.284  13.923 -0.0937 -0.0329  0.2110
 2115DOPE   C1B24819  12.072  32.048  14.948  0.3976 -0.1284 -0.1256
 2115DOPE   D2B24820  12.074  32.352  14.575 -0.0902  0.0341 -0.1483
 2115DOPE   C3B24821  12.155  32.493  14.148  0.2326 -0.0640  0.0789
 2115DOPE   C4B24822  11.919  32.692  13.775  0.2712  0.2676 -0.4923
 2116DOPE   NH324823  21.796  24.051  15.529 -0.1813  0.1135  0.0330
 2116DOPE   PO424824  21.858  23.743  15.404 -0.0684  0.1575  0.1337
 2116DOPE   GL124825  21.582  23.776  15.100  0.1498 -0.0939  0.0799
 2116DOPE   GL224826  21.638  24.008  15.073 -0.1512  0.4046 -0.0217
 2116DOPE   C1A24827  21.779  23.809  14.650 -0.0958 -0.4437 -0.0146
 2116DOPE   D2A24828  21.710  23.984  14.168 -0.0372 -0.0017  0.0618
 2116DOPE   C3A24829  21.419  24.287  14.009 -0.1330  0.0656  0.0554
 2116DOPE   C4A24830  21.119  24.532  13.778 -0.0481  0.0582  0.1107
 2116DOPE   C1B24831  21.395  24.134  14.670 -0.1340  0.2657  0.0256
 2116DOPE   D2B24832  21.194  23.969  14.298  0.0635  0.0373  0.0081
 2116DOPE   C3B24833  21.361  23.753  13.967 -0.2075  0.0985  0.3300
 2116DOPE   C4B24834  21.666  23.767  13.625  0.1338 -0.3372  0.2532
 2117DOPC   NC324835  14.904  26.598  15.984  0.0938 -0.1884  0.3162
 2117DOPC   PO424836  14.786  26.323  15.690 -0.3653  0.2374 -0.2870
 2117DOPC   GL124837  14.705  26.220  15.326  0.0741  0.3169  0.1831
 2117DOPC   GL224838  14.685  26.411  15.169 -0.2445  0.2577 -0.1982
 2117DOPC   C1A24839  14.783  26.028  14.877 -0.0654  0.1107  0.1218
 2117DOPC   D2A24840  14.859  25.892  14.510  0.2423 -0.0152  0.2887
 2117DOPC   C3A24841  15.155  26.083  14.193 -0.1147 -0.1880  0.2185
 2117DOPC   C4A24842  15.394  25.926  13.813  0.3037 -0.1289  0.1123
 2117DOPC   C1B24843  14.966  26.610  14.940  0.0614 -0.1307 -0.0705
 2117DOPC   D2B24844  15.180  26.939  14.728  0.1184 -0.0029  0.1229
 2117DOPC   C3B24845  15.065  27.010  14.295 -0.5751  0.3645  0.1640
 2117DOPC   C4B24846  15.050  27.223  13.868 -0.1640  0.1578 -0.2014
 2118DOPC   NC324847  15.993  27.464  15.400  0.0605  0.2754  0.1804
 2118DOPC   PO424848  15.816  27.143  15.321 -0.4593  0.1843  0.1964
 2118DOPC   GL124849  15.939  27.047  14.946 -0.0166  0.0864 -0.0372
 2118DOPC   GL224850  15.691  27.086  14.792 -0.0618  0.1950 -0.1117
 2118DOPC   C1A24851  16.270  27.295  14.692 -0.0912  0.1187 -0.1749
 2118DOPC   D2A24852  16.466  27.368  14.299  0.2357  0.0165 -0.0207
 2118DOPC   C3A24853  16.615  27.086  14.000 -0.1933 -0.2689 -0.2943
 2118DOPC   C4A24854  16.345  26.731  13.929 -0.0724  0.2214 -0.0039
 2118DOPC   C1B24855  15.593  26.996  14.335 -0.0021 -0.1094  0.0605
 2118DOPC   D2B24856  15.496  27.013  13.882 -0.0246 -0.3352 -0.0559
 2118DOPC   C3B24857  15.328  26.660  13.665 -0.4054  0.0235  0.3405
 2118DOPC   C4B24858  15.382  26.334  13.303 -0.1420  0.0504 -0.3047
 2119DOPC   NC324859  22.720  33.026  16.339  0.0457  0.0910 -0.0400
 2119DOPC   PO424860  22.930  32.753  16.134 -0.1169  0.3491 -0.2203
 2119DOPC   GL124861  23.003  32.793  15.724 -0.3262  0.3592 -0.0932
 2119DOPC   GL224862  23.055  32.469  15.704  0.1731  0.3773  0.3400
 2119DOPC   C1A24863  22.849  32.717  15.286 -0.1450 -0.1863 -0.1099
 2119DOPC   D2A24864  22.915  32.451  14.906 -0.3203  0.2039  0.0289
 2119DOPC   C3A24865  22.662  32.033  14.951  0.0525  0.2427  0.1533
 2119DOPC   C4A24866  22.589  31.616  15.100  0.2129 -0.1237  0.3118
 2119DOPC   C1B24867  23.100  32.234  15.364 -0.1067  0.2215  0.0747
 2119DOPC   D2B24868  23.290  32.100  14.981 -0.2684  0.0379 -0.0512
 2119DOPC   C3B24869  23.111  32.068  14.518 -0.0693 -0.2662  0.0647
 2119DOPC   C4B24870  22.817  32.029  14.180  0.1943 -0.0481 -0.2512
 2120DOPC   NC324871  12.157  25.135  14.940  0.2668  0.1468  0.0442
 2120DOPC   PO424872  11.989  25.427  15.082 -0.0400  0.0861  0.4138
 2120DOPC   GL124873  11.606  25.261  15.006  0.1331 -0.3650 -0.0147
 2120DOPC   GL224874  11.653  25.001  15.025  0.0880 -0.1114  0.0395
 2120DOPC   C1A24875  11.310  25.321  14.710 -0.2747  0.2624  0.0528
 2120DOPC   D2A24876  11.240  25.358  14.250  0.0945  0.2370 -0.0635
 2120DOPC   C3A24877  10.877  25.110  14.090 -0.0670  0.1633  0.1346
 2120DOPC   C4A24878  10.490  24.953  13.770 -0.3126  0.0739  0.3707
 2120DOPC   C1B24879  11.386  24.753  14.777 -0.3767 -0.0171  0.1549
 2120DOPC   D2B24880  11.228  24.808  14.342  0.1395 -0.2261 -0.0792
 2120DOPC   C3B24881  10.873  24.594  14.181 -0.1821 -0.1281  0.1942
 2120DOPC   C4B24882  10.403  24.409  14.207  0.2125  0.0878  0.0050
 2121DOPC   NC324883  17.793  27.491  16.191  0.1405  0.0039 -0.0123
 2121DOPC   PO424884  17.891  27.107  16.132 -0.0640 -0.1093 -0.3260
 2121DOPC   GL124885  17.736  26.981  15.795 -0.0526  0.3676 -0.1830
 2121DOPC   GL224886  17.675  26.743  15.884  0.4040 -0.1470 -0.1847
 2121DOPC   C1A24887  18.073  26.922  15.464  0.1131  0.1771 -0.0805
 2121DOPC   D2A24888  18.221  26.808  15.056 -0.3422 -0.2782  0.1736
 2121DOPC   C3A24889  18.502  27.117  14.821 -0.0936  0.0950  0.1781
 2121DOPC   C4A24890  18.509  27.607  14.762  0.3409  0.1491 -0.1536
 2121DOPC   C1B24891  17.793  26.543  15.537  0.2013  0.0838  0.0484
 2121DOPC   D2B24892  17.741  26.237  15.205 -0.0748 -0.0411 -0.0099
 2121DOPC   C3B24893  17.861  26.434  14.796  0.1749 -0.1345 -0.0695
 2121DOPC   C4B24894  17.911  26.882  14.631 -0.1696 -0.1155  0.0579
 2122DOPE   NH324895  21.829  29.645  16.400  0.1022  0.1039  0.2551
 2122DOPE   PO424896  22.026  29.402  16.332  0.0857 -0.4078  0.1508
 2122DOPE   GL124897  22.107  29.578  16.001 -0.0326  0.2560 -0.1937
 2122DOPE   GL224898  22.107  29.870  16.019 -0.0431  0.1730  0.1512
 2122DOPE   C1A24899  22.226  29.765  15.547  0.0094  0.2937  0.1586
 2122DOPE   D2A24900  22.155  29.723  15.108 -0.0429  0.1039  0.3024
 2122DOPE   C3A24901  22.269  30.045  14.805  0.3205  0.3641  0.1313
 2122DOPE   C4A24902  22.577  30.007  14.436  0.1069  0.3639  0.1854
 2122DOPE   C1B24903  21.873  30.284  15.833 -0.1754  0.0669  0.1753
 2122DOPE   D2B24904  21.752  30.598  15.457 -0.0682  0.2417  0.0060
 2122DOPE   C3B24905  21.675  30.355  15.020 -0.3188 -0.2510 -0.1319
 2122DOPE   C4B24906  21.802  30.039  14.640  0.0475 -0.1280 -0.1311
 2123DOPE   NH324907  21.105  29.259  16.243  0.0847 -0.4511 -0.2149
 2123DOPE   PO424908  20.972  29.467  16.065  0.1109 -0.0703 -0.0785
 2123DOPE   GL124909  21.141  29.491  15.671 -0.1224  0.3157  0.2397
 2123DOPE   GL224910  21.129  29.798  15.651 -0.2590  0.1946  0.1627
 2123DOPE   C1A24911  21.473  29.396  15.361 -0.1554  0.1406  0.0235
 2123DOPE   D2A24912  21.582  29.657  14.998 -0.0432 -0.0491 -0.2845
 2123DOPE   C3A24913  21.615  29.414  14.594 -0.1651 -0.0474  0.1678
 2123DOPE   C4A24914  21.616  29.599  14.130  0.3488 -0.3130  0.1997
 2123DOPE   C1B24915  21.173  29.826  15.161  0.1431 -0.0362 -0.0008
 2123DOPE   D2B24916  21.142  29.467  14.867  0.1353 -0.2417  0.0086
 2123DOPE   C3B24917  21.132  29.431  14.364  0.1603  0.1566 -0.0620
 2123DOPE   C4B24918  21.308  29.101  14.063  0.2900  0.3486 -0.0800
 2124POSM   NC324919  16.693  32.351  15.865 -0.1371  0.0172  0.0374
 2124POSM   PO424920  16.954  32.053  15.781 -0.2745  0.0642  0.4224
 2124POSM   AM124921  17.193  32.000  15.563  0.2108  0.0445 -0.0572
 2124POSM   AM224922  17.298  32.140  15.352 -0.1382  0.0819  0.0843
 2124POSM   T1A24923  17.286  31.629  15.202  0.0889 -0.0328 -0.0319
 2124POSM   C2A24924  17.210  31.188  15.128  0.0482 -0.0470 -0.0183
 2124POSM   C3A24925  17.124  30.874  14.883  0.3341  0.2704 -0.3391
 2124POSM   C1B24926  17.388  32.167  15.049  0.1375 -0.0623  0.0316
 2124POSM   D2B24927  17.408  32.245  14.637 -0.0061  0.0835  0.0504
 2124POSM   C3B24928  17.364  32.299  14.140 -0.1764 -0.1468  0.1722
 2124POSM   C4B24929  17.600  32.157  13.724  0.3224  0.0264  0.1658
 2125DOPC   NC324930  19.782  23.207  16.005  0.2316  0.2460  0.4134
 2125DOPC   PO424931  19.652  23.193  15.624  0.1175  0.3404  0.3813
 2125DOPC   GL124932  19.400  23.398  15.375 -0.0740  0.0859 -0.1912
 2125DOPC   GL224933  19.162  23.231  15.413  0.1938  0.1363 -0.0528
 2125DOPC   C1A24934  19.367  23.771  15.025  0.3895 -0.2421  0.0304
 2125DOPC   D2A24935  19.407  24.084  14.690  0.2603  0.1806 -0.0261
 2125DOPC   C3A24936  19.164  23.977  14.297  0.1047 -0.2566  0.2718
 2125DOPC   C4A24937  18.947  23.747  14.003  0.3593 -0.1022  0.2221
 2125DOPC   C1B24938  19.199  23.387  14.907 -0.0551 -0.1104 -0.0276
 2125DOPC   D2B24939  19.333  23.601  14.521  0.2450  0.0959  0.1753
 2125DOPC   C3B24940  19.686  23.429  14.372  0.0959 -0.2384 -0.2625
 2125DOPC   C4B24941  20.044  23.180  14.445 -0.1868 -0.2321 -0.0139
 2126POSM   NC324942  15.801  24.681  15.717 -0.3369  0.2194 -0.3472
 2126POSM   PO424943  15.682  24.914  15.403  0.1485 -0.3165 -0.1445
 2126POSM   AM124944  15.468  24.841  15.137 -0.0574  0.2750  0.1448
 2126POSM   AM224945  15.238  24.928  14.968 -0.0414  0.0702 -0.1022
 2126POSM   T1A24946  15.688  24.773  14.707  0.0245  0.1837 -0.0344
 2126POSM   C2A24947  15.854  25.104  14.414 -0.1048 -0.1358 -0.0820
 2126POSM   C3A24948  16.121  25.094  13.991 -0.1112 -0.0695 -0.0288
 2126POSM   C1B24949  15.048  24.919  14.698  0.3438  0.0006 -0.1403
 2126POSM   D2B24950  14.931  24.875  14.233  0.3961  0.2909  0.2708
 2126POSM   C3B24951  14.787  24.449  14.204  0.1438  0.4205  0.0421
 2126POSM   C4B24952  14.769  24.006  14.195 -0.2945  0.1655 -0.5073
 2127POSM   NC324953  12.850  32.822  16.101  0.2571 -0.2755  0.1185
 2127POSM   PO424954  12.676  33.119  16.014 -0.0488 -0.2909 -0.0269
 2127POSM   AM124955  12.710  33.274  15.763  0.0597  0.3429 -0.0258
 2127POSM   AM224956  12.910  33.417  15.651 -0.2837 -0.0506  0.2793
 2127POSM   T1A24957  12.446  33.601  15.462  0.0439 -0.1317  0.0711
 2127POSM   C2A24958  12.285  34.016  15.290  0.1129 -0.0369 -0.0342
 2127POSM   C3A24959  12.221  34.424  15.171 -0.1096  0.2583 -0.0198
 2127POSM   C1B24960  12.947  33.410  15.343 -0.0416  0.3694  0.1901
 2127POSM   D2B24961  12.819  33.525  14.922 -0.0306 -0.0817  0.2176
 2127POSM   C3B24962  12.561  33.148  14.806 -0.1284  0.0139 -0.0951
 2127POSM   C4B24963  12.331  32.755  14.597  0.0671 -0.1752 -0.1259
 2128DOPS   CNO24964  17.288  30.277  16.471 -0.1436  0.1500 -0.0420
 2128DOPS   PO424965  17.514  29.999  16.379 -0.1321 -0.0408  0.4569
 2128DOPS   GL124966  17.564  29.746  16.003  0.3596  0.1206  0.2306
 2128DOPS   GL224967  17.661  29.515  16.015 -0.3396  0.3050  0.2996
 2128DOPS   C1A24968  17.605  29.987  15.541 -0.0787  0.2910 -0.3203
 2128DOPS   D2A24969  17.668  30.386  15.321 -0.2997  0.1897 -0.4580
 2128DOPS   C3A24970  17.698  30.234  14.906  0.1723  0.4938 -0.0370
 2128DOPS   C4A24971  17.516  30.019  14.585 -0.1408 -0.0384 -0.1660
 2128DOPS   C1B24972  17.329  29.521  15.640  0.0740  0.0500  0.4368
 2128DOPS   D2B24973  17.172  29.571  15.198 -0.0581  0.0037 -0.1691
 2128DOPS   C3B24974  17.172  29.911  14.943 -0.1726  0.0005  0.1810
 2128DOPS   C4B24975  17.032  30.132  14.549 -0.0685 -0.1261  0.1321
 2129DOPC   NC324976  14.584  32.291  15.866 -0.3767  0.0372 -0.4138
 2129DOPC   PO424977  14.781  32.671  15.868 -0.0924  0.4336  0.1529
 2129DOPC   GL124978  14.486  32.634  15.578  0.1978 -0.1906  0.0917
 2129DOPC   GL224979  14.656  32.404  15.336 -0.0344  0.1610  0.0718
 2129DOPC   C1A24980  14.220  32.555  15.210  0.4925 -0.0190  0.0913
 2129DOPC   D2A24981  14.206  32.680  14.745 -0.1985 -0.0442  0.0150
 2129DOPC   C3A24982  14.338  32.733  14.329 -0.1379  0.0728 -0.0611
 2129DOPC   C4A24983  14.224  32.763  13.862 -0.0930  0.3211  0.0428
 2129DOPC   C1B24984  14.830  31.996  15.090  0.5733 -0.0557 -0.0708
 2129DOPC   D2B24985  15.192  31.737  14.969  0.2261 -0.0167 -0.0727
 2129DOPC   C3B24986  15.079  31.341  14.724  0.1151 -0.0973  0.2189
 2129DOPC   C4B24987  15.082  30.987  14.449 -0.0873  0.2036  0.2398
 2130DOPE   NH324988  15.996  29.891  16.025 -0.0100  0.0472  0.2209
 2130DOPE   PO424989  15.711  29.972  16.148 -0.2894  0.0330 -0.0690
 2130DOPE   GL124990  15.622  30.182  15.799 -0.0693  0.1561  0.3186
 2130DOPE   GL224991  15.777  30.150  15.635 -0.3558 -0.1923  0.4135
 2130DOPE   C1A24992  15.344  30.396  15.491  0.1761 -0.2650  0.1344
 2130DOPE   D2A24993  15.495  30.579  15.067 -0.1392 -0.0675 -0.3043
 2130DOPE   C3A24994  15.779  30.913  15.201  0.0973  0.2107  0.2412
 2130DOPE   C4A24995  16.237  31.071  15.202 -0.3153  0.1095 -0.2321
 2130DOPE   C1B24996  15.978  30.447  15.243  0.0221 -0.0089  0.0878
 2130DOPE   D2B24997  16.273  30.588  14.901 -0.2218 -0.0683 -0.1555
 2130DOPE   C3B24998  16.385  31.003  14.704 -0.0207  0.0108 -0.3102
 2130DOPE   C4B24999  16.795  31.083  14.542  0.2523  0.3400  0.0012
 2131DOPE   NH325000  16.556  24.431  16.147 -0.3115  0.2185 -0.1543
 2131DOPE   PO425001  16.590  24.459  15.820 -0.1590 -0.0724  0.4004
 2131DOPE   GL125002  16.605  24.564  15.481 -0.0482  0.4056 -0.0124
 2131DOPE   GL225003  16.693  24.283  15.367  0.1816 -0.3277 -0.2462
 2131DOPE   C1A25004  16.812  24.624  15.059 -0.3747  0.1068  0.3358
 2131DOPE   D2A25005  16.831  24.491  14.605  0.0480 -0.4165 -0.0539
 2131DOPE   C3A25006  16.602  24.626  14.210 -0.0691 -0.0726 -0.0276
 2131DOPE   C4A25007  16.575  24.817  13.792 -0.0693  0.3217 -0.2015
 2131DOPE   C1B25008  16.826  24.102  14.962  0.1637  0.1419  0.1451
 2131DOPE   D2B25009  16.808  23.971  14.523  0.1128  0.1262 -0.1306
 2131DOPE   C3B25010  16.973  24.221  14.223 -0.0484 -0.1521  0.1434
 2131DOPE   C4B25011  17.119  24.533  14.006  0.1901 -0.3397  0.1812
 2132DOPC   NC325012  18.476  26.801  16.333 -0.2559 -0.3013  0.1817
 2132DOPC   PO425013  18.543  26.451  16.110  0.2513 -0.3567  0.2615
 2132DOPC   GL125014  18.740  26.460  15.793 -0.3211 -0.3001 -0.1013
 2132DOPC   GL225015  18.713  26.817  15.857  0.0179  0.0089 -0.0268
 2132DOPC   C1A25016  18.449  26.550  15.458 -0.1321  0.1497 -0.1445
 2132DOPC   D2A25017  18.255  26.185  15.324  0.2973  0.3815  0.3077
 2132DOPC   C3A25018  18.609  26.217  15.041 -0.0905 -0.0415  0.1631
 2132DOPC   C4A25019  19.026  26.155  14.947  0.2368 -0.0670 -0.0040
 2132DOPC   C1B25020  18.583  27.069  15.510 -0.2048  0.2505  0.2174
 2132DOPC   D2B25021  18.520  27.461  15.307 -0.2227 -0.0162  0.0543
 2132DOPC   C3B25022  18.109  27.379  15.026 -0.0329 -0.1775  0.1405
 2132DOPC   C4B25023  18.020  27.365  14.609  0.0233 -0.0048 -0.0928
 2133POSM   NC325024  19.629  32.241  15.902 -0.1805 -0.1573  0.1187
 2133POSM   PO425025  19.762  31.883  15.881 -0.3536 -0.1002 -0.0115
 2133POSM   AM125026  19.810  31.809  15.566 -0.1429 -0.3053 -0.1575
 2133POSM   AM225027  19.986  31.770  15.405 -0.0677  0.1355 -0.1867
 2133POSM   T1A25028  19.577  31.528  15.169  0.1687 -0.1708 -0.0889
 2133POSM   C2A25029  19.563  31.519  14.727  0.2462  0.2052 -0.1242
 2133POSM   C3A25030  19.446  31.517  14.292  0.0969  0.1610 -0.0504
 2133POSM   C1B25031  20.115  31.563  15.134  0.1893 -0.0059 -0.1397
 2133POSM   D2B25032  19.918  31.279  14.874 -0.0170 -0.0276  0.1541
 2133POSM   C3B25033  19.826  31.166  14.465 -0.1685 -0.0585  0.0538
 2133POSM   C4B25034  19.908  31.346  14.053 -0.2952 -0.2461 -0.0260
 2134POSM   NC325035  14.246  33.226  16.126  0.2320  0.3239  0.2402
 2134POSM   PO425036  13.980  33.231  15.787 -0.1505  0.0048 -0.0717
 2134POSM   AM125037  14.042  33.404  15.531  0.2114 -0.1297  0.1073
 2134POSM   AM225038  14.310  33.521  15.441  0.0205  0.1013  0.2016
 2134POSM   T1A25039  13.800  33.448  15.079 -0.2732  0.0787  0.1139
 2134POSM   C2A25040  13.723  33.544  14.588 -0.0739 -0.0197  0.1768
 2134POSM   C3A25041  13.746  33.555  14.149 -0.0421 -0.1209 -0.0898
 2134POSM   C1B25042  14.292  33.393  15.105  0.0968  0.1646 -0.1817
 2134POSM   D2B25043  14.433  33.162  14.718 -0.0774  0.1798 -0.0221
 2134POSM   C3B25044  14.034  33.070  14.499 -0.0460  0.0266  0.1569
 2134POSM   C4B25045  13.877  33.069  14.081 -0.2542  0.1132 -0.0259
 2135DOPC   NC325046  19.832  33.078  15.719 -0.0358 -0.0170 -0.2470
 2135DOPC   PO425047  20.161  33.127  15.852 -0.3558 -0.2858  0.1179
 2135DOPC   GL125048  20.225  33.109  15.437  0.0853  0.1223  0.0545
 2135DOPC   GL225049  20.140  33.325  15.326  0.4738  0.5162  0.0557
 2135DOPC   C1A25050  20.063  32.875  15.050 -0.1520  0.0830 -0.2358
 2135DOPC   D2A25051  20.043  32.907  14.583  0.0202  0.0322 -0.0799
 2135DOPC   C3A25052  19.804  32.598  14.287  0.0807  0.1705 -0.1364
 2135DOPC   C4A25053  19.883  32.473  13.778 -0.0641  0.0256 -0.0967
 2135DOPC   C1B25054  19.915  33.593  14.973 -0.0838  0.1053  0.0030
 2135DOPC   D2B25055  19.553  33.653  14.766  0.1291  0.1024  0.2849
 2135DOPC   C3B25056  19.432  33.588  14.314 -0.1229 -0.2730 -0.1942
 2135DOPC   C4B25057  19.217  33.375  13.969  0.0993 -0.0412 -0.1136
 2136DOPS   CNO25058  16.751  30.152  16.449 -0.1228 -0.0040 -0.4788
 2136DOPS   PO425059  16.892  30.323  16.128  0.0582 -0.1518 -0.0184
 2136DOPS   GL125060  16.907  30.109  15.778 -0.4149 -0.0175 -0.1729
 2136DOPS   GL225061  16.840  29.846  15.674 -0.1718 -0.0698  0.0157
 2136DOPS   C1A25062  17.000  30.215  15.342  0.2134 -0.0039 -0.1275
 2136DOPS   D2A25063  16.721  30.482  15.156  0.0522  0.4546  0.1641
 2136DOPS   C3A25064  16.791  30.591  14.665 -0.0443 -0.0986 -0.2678
 2136DOPS   C4A25065  16.787  30.630  14.197 -0.0458 -0.2580  0.1833
 2136DOPS   C1B25066  16.728  29.767  15.279 -0.0208  0.2816  0.2246
 2136DOPS   D2B25067  16.810  29.640  14.816  0.0650 -0.5112 -0.1755
 2136DOPS   C3B25068  16.427  29.589  14.527 -0.2353 -0.0712  0.1592
 2136DOPS   C4B25069  16.089  29.566  14.255  0.0790  0.0007 -0.2706
 2137DOPE   NH325070  23.314  27.933  15.893 -0.0522 -0.2566  0.0204
 2137DOPE   PO425071  22.982  27.940  15.802  0.2108 -0.2248  0.0302
 2137DOPE   GL125072  22.631  27.811  15.675  0.0757  0.3465  0.1262
 2137DOPE   GL225073  22.456  28.086  15.800 -0.2133 -0.0611  0.0315
 2137DOPE   C1A25074  22.546  27.616  15.264 -0.0134 -0.1908 -0.2177
 2137DOPE   D2A25075  22.530  27.555  14.799 -0.0899 -0.1055  0.3536
 2137DOPE   C3A25076  22.164  27.696  14.611  0.0844 -0.1272  0.0001
 2137DOPE   C4A25077  21.957  28.019  14.355  0.2103  0.1561 -0.0433
 2137DOPE   C1B25078  22.227  28.019  15.393  0.2510  0.1925 -0.0317
 2137DOPE   D2B25079  22.127  28.090  14.969  0.2702 -0.0157 -0.1514
 2137DOPE   C3B25080  21.667  28.048  14.872 -0.1758 -0.0633  0.2359
 2137DOPE   C4B25081  21.457  28.198  14.482 -0.0134 -0.1797  0.1508
 2138DOPS   CNO25082  17.287  32.878  15.626 -0.3086  0.3320  0.0863
 2138DOPS   PO425083  17.166  32.513  15.716 -0.0034  0.2586  0.0234
 2138DOPS   GL125084  16.987  32.535  15.374 -0.1464  0.0142  0.4292
 2138DOPS   GL225085  16.814  32.311  15.307  0.0050 -0.0063  0.1901
 2138DOPS   C1A25086  17.045  32.606  14.921  0.2504  0.2446  0.3171
 2138DOPS   D2A25087  17.189  32.810  14.532  0.0120  0.0490  0.5119
 2138DOPS   C3A25088  17.111  32.719  14.132 -0.0137  0.0448  0.4443
 2138DOPS   C4A25089  17.208  32.471  13.704  0.0625 -0.2833  0.0583
 2138DOPS   C1B25090  16.934  32.035  14.874 -0.0490  0.0768  0.1947
 2138DOPS   D2B25091  16.971  31.940  14.425  0.1623 -0.0353 -0.0323
 2138DOPS   C3B25092  16.840  31.519  14.220  0.2664  0.1473 -0.1678
 2138DOPS   C4B25093  16.408  31.536  14.087 -0.0894  0.2415 -0.1905
 2139DOPS   CNO25094  13.916  25.628  14.993  0.2126 -0.2134 -0.3061
 2139DOPS   PO425095  13.790  25.337  15.077 -0.1381 -0.2722 -0.1320
 2139DOPS   GL125096  13.839  25.211  14.721  0.2172 -0.3522 -0.0840
 2139DOPS   GL225097  14.132  25.298  14.614  0.1137 -0.3059  0.2533
 2139DOPS   C1A25098  13.900  24.940  14.329  0.1125 -0.0039 -0.3511
 2139DOPS   D2A25099  13.733  24.626  14.083  0.2107 -0.1767  0.3776
 2139DOPS   C3A25100  13.347  24.494  13.915 -0.0798  0.0463  0.0531
 2139DOPS   C4A25101  12.923  24.594  14.034  0.0101 -0.1053 -0.2308
 2139DOPS   C1B25102  14.074  25.334  14.153 -0.3380 -0.1008 -0.2227
 2139DOPS   D2B25103  14.136  24.991  13.817 -0.2388 -0.0265 -0.0253
 2139DOPS   C3B25104  14.364  24.677  13.730  0.1661  0.3647  0.0866
 2139DOPS   C4B25105  14.609  24.418  13.423  0.0176  0.0279  0.0957
 2140POSM   NC325106  13.591  30.069  16.189  0.2849  0.2122  0.0659
 2140POSM   PO425107  13.867  30.244  15.966  0.1345  0.1044  0.3234
 2140POSM   AM125108  13.980  30.455  15.725  0.1012  0.1377 -0.0412
 2140POSM   AM225109  13.852  30.678  15.597 -0.1825  0.0029  0.0244
 2140POSM   T1A25110  14.266  30.663  15.366  0.0405  0.3833  0.1634
 2140POSM   C2A25111  14.362  30.992  15.133 -0.0847  0.2033 -0.5615
 2140POSM   C3A25112  14.635  31.110  14.726  0.0441 -0.1953  0.1738
 2140POSM   C1B25113  13.749  30.705  15.326 -0.0607  0.1138 -0.2327
 2140POSM   D2B25114  13.929  30.606  14.894 -0.1464 -0.1286  0.0459
 2140POSM   C3B25115  14.276  30.823  14.660 -0.2768  0.0653  0.2897
 2140POSM   C4B25116  14.554  30.907  14.306 -0.0682 -0.1193  0.0742
 2141POSM   NC325117  21.298  28.958  15.863 -0.1553 -0.2810 -0.1569
 2141POSM   PO425118  20.963  28.881  15.945  0.1721 -0.1893  0.1794
 2141POSM   AM125119  20.901  29.087  15.681 -0.5522  0.1252  0.0433
 2141POSM   AM225120  21.047  29.088  15.437  0.2147  0.0827  0.3052
 2141POSM   T1A25121  20.516  29.108  15.376  0.2560  0.0889  0.3009
 2141POSM   C2A25122  20.231  29.193  15.020  0.1087  0.1333 -0.1330
 2141POSM   C3A25123  20.277  29.433  14.650  0.1363 -0.1056 -0.1275
 2141POSM   C1B25124  20.964  29.111  15.099 -0.0950 -0.2352  0.3440
 2141POSM   D2B25125  20.678  29.169  14.767 -0.3727 -0.1682  0.1860
 2141POSM   C3B25126  20.902  28.913  14.425  0.1555 -0.3635  0.4421
 2141POSM   C4B25127  21.114  28.588  14.091 -0.0186 -0.2937  0.1738
 2142DOPC   NC325128  14.722  25.129  15.042 -0.2287 -0.1561  0.2803
 2142DOPC   PO425129  14.520  25.430  15.023 -0.0412 -0.0405 -0.0779
 2142DOPC   GL125130  14.654  25.361  14.618 -0.0361 -0.1709 -0.0548
 2142DOPC   GL225131  14.897  25.409  14.503 -0.1165 -0.1207 -0.0421
 2142DOPC   C1A25132  14.541  25.578  14.196 -0.1228 -0.1609  0.1499
 2142DOPC   D2A25133  14.267  25.713  13.913  0.1868  0.1012 -0.2441
 2142DOPC   C3A25134  14.060  25.497  13.594  0.1721  0.0836  0.0842
 2142DOPC   C4A25135  13.930  25.322  13.192 -0.0749 -0.2508  0.0730
 2142DOPC   C1B25136  15.019  25.384  14.084  0.3597  0.1646  0.1986
 2142DOPC   D2B25137  14.986  25.595  13.698  0.0136 -0.0124  0.3363
 2142DOPC   C3B25138  14.802  25.505  13.321  0.0191 -0.2249  0.1759
 2142DOPC   C4B25139  14.864  25.605  12.854  0.0363 -0.0649 -0.1764
 2143POSM   NC325140  17.257  33.236  16.097  0.1600 -0.3186  0.0213
 2143POSM   PO425141  17.197  33.582  15.950 -0.1250 -0.0726 -0.1762
 2143POSM   AM125142  17.175  33.846  15.800 -0.0541  0.0412 -0.5838
 2143POSM   AM225143  17.349  34.011  15.644 -0.0539  0.0890 -0.0761
 2143POSM   T1A25144  16.917  34.137  15.433 -0.1445  0.4144 -0.0561
 2143POSM   C2A25145  16.591  34.041  15.155  0.3674  0.0433  0.5022
 2143POSM   C3A25146  16.285  33.887  14.845  0.0148 -0.2732 -0.1115
 2143POSM   C1B25147  17.404  33.975  15.301 -0.2508  0.1445  0.0430
 2143POSM   D2B25148  17.462  34.079  14.866  0.0987  0.0307  0.0735
 2143POSM   C3B25149  17.055  33.938  14.678  0.2726  0.5890  0.0241
 2143POSM   C4B25150  16.720  34.202  14.674 -0.0746 -0.0605 -0.2417
 2144DOPC   NC325151  19.300  29.542  16.194  0.0939  0.0080  0.4610
 2144DOPC   PO425152  18.959  29.402  16.105  0.0192 -0.0583  0.2068
 2144DOPC   GL125153  18.909  29.487  15.829 -0.3560 -0.3751 -0.0764
 2144DOPC   GL225154  19.068  29.659  15.644 -0.2292 -0.2390 -0.0132
 2144DOPC   C1A25155  18.687  29.302  15.439 -0.1120 -0.2401  0.1433
 2144DOPC   D2A25156  18.677  29.168  14.983  0.1512  0.1401 -0.0027
 2144DOPC   C3A25157  18.365  29.161  14.654 -0.3365 -0.2016 -0.1765
 2144DOPC   C4A25158  18.179  28.909  14.313 -0.2819 -0.0594 -0.0615
 2144DOPC   C1B25159  19.434  29.812  15.380 -0.1840 -0.1638  0.3030
 2144DOPC   D2B25160  19.670  29.926  15.000 -0.0431 -0.0253 -0.1474
 2144DOPC   C3B25161  19.889  29.843  14.633  0.0056  0.3140 -0.1746
 2144DOPC   C4B25162  20.166  29.663  14.251 -0.3183  0.3831 -0.0584
 2145POSM   NC325163  19.178  28.932  16.131 -0.1693 -0.4996 -0.1761
 2145POSM   PO425164  19.103  28.537  16.098  0.0712 -0.0794 -0.0776
 2145POSM   AM125165  19.149  28.610  15.754 -0.1932  0.1644  0.2121
 2145POSM   AM225166  18.983  28.874  15.634 -0.3220  0.3259  0.1941
 2145POSM   T1A25167  19.440  28.731  15.341  0.0184  0.0651 -0.2785
 2145POSM   C2A25168  19.744  29.017  15.097 -0.1323  0.1125 -0.3330
 2145POSM   C3A25169  19.954  28.809  14.721 -0.2185  0.0757 -0.0946
 2145POSM   C1B25170  18.961  28.821  15.262 -0.0350 -0.2386  0.1695
 2145POSM   D2B25171  19.188  29.047  14.900  0.4123 -0.0190  0.0475
 2145POSM   C3B25172  18.933  29.269  14.540  0.1636  0.1503 -0.1438
 2145POSM   C4B25173  18.892  29.565  14.205  0.0713 -0.1256 -0.4608
 2146POSM   NC325174  20.138  24.353  15.752  0.2679  0.0238 -0.1639
 2146POSM   PO425175  20.091  24.697  15.597  0.0500  0.0548  0.2671
 2146POSM   AM125176  19.934  24.545  15.369  0.0941 -0.1021  0.0567
 2146POSM   AM225177  19.793  24.383  15.208 -0.2636  0.0271  0.1819
 2146POSM   T1A25178  20.117  24.650  14.906 -0.1313  0.0489  0.1470
 2146POSM   C2A25179  20.328  24.954  14.654 -0.2831 -0.0931  0.1134
 2146POSM   C3A25180  20.517  25.134  14.281  0.0198 -0.3242 -0.0561
 2146POSM   C1B25181  19.748  24.339  14.862 -0.0170  0.1362  0.1582
 2146POSM   D2B25182  19.823  24.405  14.416  0.0615 -0.1235  0.0462
 2146POSM   C3B25183  19.482  24.379  14.141 -0.0832 -0.0208  0.1558
 2146POSM   C4B25184  19.282  24.155  13.803 -0.0094 -0.1961  0.4424
 2147DOPC   NC325185  13.636  26.734  14.991  0.0457  0.0372 -0.0939
 2147DOPC   PO425186  13.286  26.826  15.130  0.0458 -0.2134  0.1309
 2147DOPC   GL125187  13.325  26.783  14.672  0.4357  0.0147 -0.3834
 2147DOPC   GL225188  13.046  26.691  14.504  0.1590 -0.1361 -0.1861
 2147DOPC   C1A25189  13.659  26.829  14.389  0.0395 -0.0053 -0.0350
 2147DOPC   D2A25190  14.106  26.947  14.192 -0.2340 -0.3286  0.0010
 2147DOPC   C3A25191  14.186  27.226  13.855  0.1766 -0.5796  0.0658
 2147DOPC   C4A25192  14.494  27.546  13.771  0.1985 -0.1135  0.4491
 2147DOPC   C1B25193  13.353  26.545  14.131 -0.1687 -0.0250 -0.2360
 2147DOPC   D2B25194  13.480  26.325  13.735 -0.1710  0.0102 -0.3150
 2147DOPC   C3B25195  13.814  26.574  13.512  0.1040 -0.3245  0.0655
 2147DOPC   C4B25196  14.227  26.747  13.538  0.0778 -0.2668  0.1983
 2148DOPE   NH325197  14.357  25.915  15.204 -0.4157 -0.0632 -0.0586
 2148DOPE   PO425198  14.180  26.152  15.148  0.1703 -0.3161  0.1195
 2148DOPE   GL125199  14.285  26.083  14.771  0.1294  0.0272  0.1398
 2148DOPE   GL225200  14.321  25.819  14.697 -0.5291  0.3728 -0.1937
 2148DOPE   C1A25201  14.278  26.102  14.314 -0.1283 -0.0260  0.3210
 2148DOPE   D2A25202  14.653  26.065  14.011 -0.0685 -0.1782 -0.2547
 2148DOPE   C3A25203  14.595  25.852  13.612 -0.0007 -0.1166 -0.1551
 2148DOPE   C4A25204  14.324  25.752  13.213 -0.1129 -0.2540  0.0699
 2148DOPE   C1B25205  13.926  25.808  14.375  0.1178 -0.1661 -0.1340
 2148DOPE   D2B25206  13.747  25.855  13.941 -0.0942 -0.0629 -0.2008
 2148DOPE   C3B25207  13.768  26.001  13.411 -0.1248  0.0231 -0.1411
 2148DOPE   C4B25208  13.710  26.265  13.047 -0.2040  0.1977  0.0714
 2149DOPC   NC325209  13.237  27.766  15.405  0.1385 -0.1576  0.1116
 2149DOPC   PO425210  12.926  27.797  15.134  0.1343  0.0285  0.2390
 2149DOPC   GL125211  12.895  28.047  14.841  0.2727 -0.0501 -0.2349
 2149DOPC   GL225212  13.017  27.847  14.686  0.0089  0.0853 -0.0251
 2149DOPC   C1A25213  12.513  28.141  14.600  0.4669  0.1022  0.1269
 2149DOPC   D2A25214  12.298  28.173  14.182 -0.4107  0.0390  0.2330
 2149DOPC   C3A25215  12.691  28.347  13.992 -0.4921 -0.0742  0.1417
 2149DOPC   C4A25216  12.719  28.666  13.602 -0.0222 -0.0957 -0.0282
 2149DOPC   C1B25217  13.209  28.161  14.434 -0.1426  0.2517 -0.2602
 2149DOPC   D2B25218  13.270  28.342  13.977 -0.2815  0.0886  0.5282
 2149DOPC   C3B25219  13.080  28.763  13.972  0.2015 -0.0092  0.0279
 2149DOPC   C4B25220  12.986  29.233  13.999  0.0854 -0.1560  0.3576
 2150POSM   NC325221  21.024  31.347  16.037  0.3444 -0.0239  0.1566
 2150POSM   PO425222  21.294  31.410  16.262  0.0002 -0.2045  0.0686
 2150POSM   AM125223  21.554  31.282  16.178 -0.2526  0.2667 -0.0522
 2150POSM   AM225224  21.615  31.278  15.912  0.2661 -0.1028  0.1365
 2150POSM   T1A25225  22.031  31.172  16.134  0.0098  0.2281  0.1090
 2150POSM   C2A25226  22.184  30.827  15.801 -0.0578  0.2714  0.0737
 2150POSM   C3A25227  22.270  30.509  15.523  0.1231 -0.2029  0.3252
 2150POSM   C1B25228  21.641  31.073  15.681 -0.1007 -0.0622  0.0173
 2150POSM   D2B25229  21.762  31.046  15.288  0.2188 -0.0734 -0.1681
 2150POSM   C3B25230  21.454  30.791  15.046  0.3269  0.0803  0.2318
 2150POSM   C4B25231  21.163  30.500  14.819  0.0111  0.0752  0.2559
 2151POSM   NC325232  12.048  32.835  16.031 -0.3794 -0.0523  0.2646
 2151POSM   PO425233  12.384  32.682  15.941 -0.1745 -0.0694 -0.3037
 2151POSM   AM125234  12.437  32.778  15.630  0.1866  0.1015 -0.2186
 2151POSM   AM225235  12.537  32.649  15.392 -0.0938 -0.0771  0.1486
 2151POSM   T1A25236  12.401  33.152  15.287 -0.2424 -0.2687  0.0625
 2151POSM   C2A25237  12.308  33.555  14.983  0.2788  0.2009  0.2022
 2151POSM   C3A25238  12.481  33.630  14.535  0.2196 -0.0873  0.0275
 2151POSM   C1B25239  12.768  32.806  15.203  0.0256  0.1404 -0.0841
 2151POSM   D2B25240  13.024  33.044  14.969 -0.0697  0.2488 -0.2653
 2151POSM   C3B25241  12.904  32.885  14.534  0.1808  0.1191 -0.1191
 2151POSM   C4B25242  12.720  32.770  14.127  0.0896 -0.1234 -0.1887
 2152POSM   NC325243  15.129  28.815  16.274  0.0752 -0.0230 -0.1398
 2152POSM   PO425244  14.819  28.848  16.084 -0.1728 -0.1975 -0.1893
 2152POSM   AM125245  14.774  28.953  15.780  0.2517  0.1056 -0.4365
 2152POSM   AM225246  14.667  29.172  15.670  0.0464 -0.2115 -0.0439
 2152POSM   T1A25247  14.978  28.848  15.323  0.1683  0.1355  0.0070
 2152POSM   C2A25248  15.072  28.999  14.882 -0.1741 -0.2770  0.1070
 2152POSM   C3A25249  15.434  28.967  14.598 -0.0635  0.1222 -0.3014
 2152POSM   C1B25250  14.581  29.186  15.329  0.0927  0.1823 -0.1460
 2152POSM   D2B25251  14.665  29.313  14.925  0.3146  0.2183 -0.3468
 2152POSM   C3B25252  14.436  29.689  14.746 -0.0954 -0.0417 -0.1110
 2152POSM   C4B25253  14.092  29.901  14.491  0.1993  0.2382 -0.2737
 2153POSM   NC325254  14.847  34.269  16.091  0.3072 -0.0421 -0.0518
 2153POSM   PO425255  14.487  34.153  15.970 -0.1287 -0.1316 -0.1479
 2153POSM   AM125256  14.491  33.992  15.665  0.0033 -0.1137  0.0250
 2153POSM   AM225257  14.689  33.874  15.465 -0.2100 -0.1652 -0.2508
 2153POSM   T1A25258  14.280  34.003  15.222  0.1270  0.1246  0.3250
 2153POSM   C2A25259  14.408  34.115  14.751 -0.2982 -0.0905 -0.0368
 2153POSM   C3A25260  14.475  34.266  14.329 -0.0077  0.0904  0.1647
 2153POSM   C1B25261  14.882  33.898  15.214 -0.2507  0.0459  0.1505
 2153POSM   D2B25262  15.230  33.772  14.962  0.0601  0.0860  0.3012
 2153POSM   C3B25263  15.070  33.568  14.575 -0.1360 -0.1544  0.2595
 2153POSM   C4B25264  14.790  33.311  14.303 -0.1688 -0.1998 -0.0318
 2154DOPC   NC325265  22.991  29.661  16.450 -0.0363  0.0456  0.1422
 2154DOPC   PO425266  23.077  29.986  16.211 -0.1216  0.0226  0.0688
 2154DOPC   GL125267  23.175  30.225  15.955  0.0291  0.0613 -0.0504
 2154DOPC   GL225268  23.227  30.064  15.734 -0.1670 -0.1145  0.1316
 2154DOPC   C1A25269  23.307  30.626  15.701  0.1196  0.0190  0.0688
 2154DOPC   D2A25270  23.105  30.857  15.356  0.0193  0.2837 -0.1597
 2154DOPC   C3A25271  23.281  31.062  15.000  0.1364  0.0190  0.2994
 2154DOPC   C4A25272  23.376  31.109  14.589 -0.1750 -0.1668  0.0939
 2154DOPC   C1B25273  23.521  30.259  15.428 -0.1091 -0.0353 -0.1169
 2154DOPC   D2B25274  23.708  30.506  15.077 -0.0144  0.1405  0.0108
 2154DOPC   C3B25275  23.468  30.654  14.699 -0.2480  0.0934 -0.0321
 2154DOPC   C4B25276  23.132  30.753  14.346  0.1794 -0.0045 -0.1134
 2155POSM   NC325277  22.496  29.951  16.945 -0.0116  0.2240 -0.1416
 2155POSM   PO425278  22.596  29.994  16.611  0.0541  0.1159  0.0721
 2155POSM   AM125279  22.617  30.159  16.326 -0.1589  0.1375  0.1778
 2155POSM   AM225280  22.768  30.390  16.241  0.2797 -0.1447 -0.2419
 2155POSM   T1A25281  22.593  30.100  15.822  0.0648 -0.1334 -0.0561
 2155POSM   C2A25282  22.869  30.321  15.505 -0.0852 -0.2508 -0.0889
 2155POSM   C3A25283  23.178  30.443  15.142 -0.1974 -0.3659 -0.0573
 2155POSM   C1B25284  22.745  30.584  15.942  0.2645  0.1011  0.2135
 2155POSM   D2B25285  22.664  30.843  15.624 -0.4583 -0.3094  0.2223
 2155POSM   C3B25286  22.663  30.710  15.161  0.2044  0.0621  0.1571
 2155POSM   C4B25287  22.916  30.731  14.797  0.2227  0.0245 -0.0891
 2156DOPS   CNO25288  16.245  28.680  15.938 -0.0825 -0.1885 -0.0960
 2156DOPS   PO425289  16.521  28.914  16.018  0.1693 -0.0372  0.2853
 2156DOPS   GL125290  16.468  28.948  15.627 -0.2380  0.2664 -0.5341
 2156DOPS   GL225291  16.565  28.671  15.542 -0.2681 -0.2571  0.1022
 2156DOPS   C1A25292  16.751  29.169  15.286  0.5263 -0.3589  0.2415
 2156DOPS   D2A25293  17.003  29.101  14.899  0.4836 -0.0118 -0.0712
 2156DOPS   C3A25294  16.871  29.204  14.443  0.0248  0.0477 -0.2393
 2156DOPS   C4A25295  16.607  29.361  14.076 -0.3983 -0.0354  0.3477
 2156DOPS   C1B25296  16.741  28.613  15.048 -0.2123  0.1458  0.0259
 2156DOPS   D2B25297  16.881  28.755  14.629 -0.0547  0.1484 -0.0121
 2156DOPS   C3B25298  16.882  28.454  14.303 -0.1631  0.0700  0.6039
 2156DOPS   C4B25299  16.949  28.160  13.986 -0.0033 -0.2060 -0.1200
 2157DOPS   CNO25300  12.143  30.331  15.743 -0.1380 -0.1780 -0.3172
 2157DOPS   PO425301  12.067  29.971  15.668  0.2620 -0.0935 -0.1392
 2157DOPS   GL125302  12.155  30.238  15.292 -0.0405 -0.2680 -0.0295
 2157DOPS   GL225303  12.016  30.496  15.105  0.2173 -0.0084 -0.0844
 2157DOPS   C1A25304  12.552  30.402  15.043 -0.0309  0.5508 -0.2414
 2157DOPS   D2A25305  12.808  30.349  14.654  0.2980  0.2097  0.1495
 2157DOPS   C3A25306  13.065  29.962  14.599  0.0811  0.0477 -0.2831
 2157DOPS   C4A25307  13.530  29.862  14.585 -0.1926  0.0167  0.1623
 2157DOPS   C1B25308  11.815  30.187  14.870 -0.2364 -0.3415 -0.3339
 2157DOPS   D2B25309  11.828  30.031  14.456  0.2312  0.1229  0.1226
 2157DOPS   C3B25310  11.836  30.199  14.034  0.1378 -0.1666  0.3488
 2157DOPS   C4B25311  11.897  30.105  13.554  0.0479 -0.1598  0.1316
 2158DOPS   CNO25312  16.726  31.098  16.443 -0.1847 -0.1915 -0.0708
 2158DOPS   PO425313  16.515  31.208  16.114 -0.1092  0.0136 -0.4187
 2158DOPS   GL125314  16.799  31.046  15.789  0.2627  0.1565  0.1075
 2158DOPS   GL225315  17.015  30.789  15.845 -0.3397 -0.0797  0.1141
 2158DOPS   C1A25316  16.755  30.997  15.333  0.0678 -0.0821 -0.4086
 2158DOPS   D2A25317  16.614  31.358  15.038 -0.0335  0.0206 -0.0137
 2158DOPS   C3A25318  16.989  31.532  14.775 -0.0605 -0.1660 -0.0018
 2158DOPS   C4A25319  17.310  31.257  14.584  0.1542 -0.1352  0.0351
 2158DOPS   C1B25320  17.140  30.736  15.422  0.0745 -0.1653 -0.1008
 2158DOPS   D2B25321  17.237  30.438  15.044 -0.0558  0.1033 -0.1125
 2158DOPS   C3B25322  17.488  30.585  14.610  0.1387 -0.0776  0.2999
 2158DOPS   C4B25323  17.677  30.457  14.181 -0.3166 -0.0643 -0.1916
 2159POSM   NC325324  18.794  26.013  16.386  0.1476 -0.5034 -0.0539
 2159POSM   PO425325  18.991  26.048  15.998  0.2308  0.0931 -0.2490
 2159POSM   AM125326  19.143  26.285  15.827 -0.0724  0.0694 -0.3372
 2159POSM   AM225327  19.269  26.533  15.797 -0.1026 -0.0019 -0.0446
 2159POSM   T1A25328  19.325  26.328  15.339  0.0738 -0.0432 -0.1240
 2159POSM   C2A25329  19.425  26.424  14.935  0.0267 -0.0469  0.1982
 2159POSM   C3A25330  19.545  26.333  14.471 -0.1754  0.0333 -0.1435
 2159POSM   C1B25331  19.619  26.618  15.620  0.0232 -0.0839 -0.3561
 2159POSM   D2B25332  19.892  26.532  15.208  0.1829  0.2021 -0.2998
 2159POSM   C3B25333  19.783  26.741  14.852  0.0817  0.2753  0.3561
 2159POSM   C4B25334  19.837  26.826  14.360 -0.3047 -0.3706  0.3116
 2160DOPE   NH325335  19.789   0.357  16.385  0.0153  0.1516  0.2105
 2160DOPE   PO425336  19.891   0.163  16.179 -0.1641 -0.2268  0.3164
 2160DOPE   GL125337  19.695   0.204  15.867 -0.1625  0.3330  0.2511
 2160DOPE   GL225338  19.547   0.066  15.672  0.1647  0.1563  0.3081
 2160DOPE   C1A25339  19.744   0.496  15.459 -0.1978 -0.0986 -0.0380
 2160DOPE   D2A25340  19.583   0.518  15.021  0.3753  0.0464 -0.1687
 2160DOPE   C3A25341  19.787   0.277  14.628  0.2670  0.1575  0.0301
 2160DOPE   C4A25342  19.902  -0.153  14.525 -0.5009 -0.1462  0.1836
 2160DOPE   C1B25343  19.582  -0.386  15.543  0.3552  0.3392 -0.2520
 2160DOPE   D2B25344  19.717  -0.738  15.270 -0.0174 -0.0295  0.0668
 2160DOPE   C3B25345  19.422  -0.612  14.926 -0.2629  0.0654  0.0709
 2160DOPE   C4B25346  19.397  -0.291  14.634  0.2618 -0.0294  0.1731
 2161POSM   NC325347  16.762  23.340  15.160  0.0253  0.2618  0.1973
 2161POSM   PO425348  16.387  23.329  15.071 -0.0032  0.1570  0.1649
 2161POSM   AM125349  16.348  23.320  14.778  0.4284 -0.3119  0.1277
 2161POSM   AM225350  16.344  23.464  14.547 -0.0546 -0.0146 -0.1531
 2161POSM   T1A25351  15.965  23.196  14.493 -0.0301 -0.1010  0.0885
 2161POSM   C2A25352  15.777  23.030  14.120  0.0104 -0.0761  0.1040
 2161POSM   C3A25353  15.700  23.190  13.649  0.0661 -0.0780 -0.0879
 2161POSM   C1B25354  16.236  23.733  14.372  0.1914  0.0122  0.1721
 2161POSM   D2B25355  15.954  23.936  14.137  0.0366  0.0557  0.0940
 2161POSM   C3B25356  15.786  24.253  13.890 -0.0521 -0.0289  0.2607
 2161POSM   C4B25357  15.752  24.681  13.891 -0.3520  0.1221 -0.1298
 2162DOPS   CNO25358  19.249  30.704  16.370  0.0789  0.5163  0.0412
 2162DOPS   PO425359  19.332  30.355  16.161  0.1827 -0.1340 -0.1877
 2162DOPS   GL125360  19.315  30.347  15.732 -0.3047 -0.0825 -0.3939
 2162DOPS   GL225361  19.167  30.177  15.635  0.2454 -0.1727 -0.0261
 2162DOPS   C1A25362  19.544  30.422  15.306 -0.0127 -0.0511 -0.1529
 2162DOPS   D2A25363  19.450  30.529  14.872  0.1615 -0.0067  0.0372
 2162DOPS   C3A25364  19.195  30.501  14.473 -0.1765 -0.0541  0.0713
 2162DOPS   C4A25365  18.731  30.457  14.424 -0.1277  0.0326  0.1121
 2162DOPS   C1B25366  18.900  29.934  15.248 -0.1609 -0.1284  0.2159
 2162DOPS   D2B25367  19.015  29.633  14.924 -0.4062  0.3053 -0.1673
 2162DOPS   C3B25368  19.349  29.809  14.629 -0.1750 -0.0551  0.0002
 2162DOPS   C4B25369  19.522  29.648  14.245 -0.2404  0.1829  0.3748
 2163POSM   NC325370  21.977  27.723  16.288 -0.0197  0.2245  0.1061
 2163POSM   PO425371  22.038  27.868  15.987 -0.0656 -0.1582  0.1953
 2163POSM   AM125372  21.801  27.890  15.751  0.1245  0.0764 -0.0205
 2163POSM   AM225373  21.718  27.767  15.538 -0.0539  0.0412 -0.5582
 2163POSM   T1A25374  21.714  28.245  15.348 -0.2337  0.1009  0.0674
 2163POSM   C2A25375  21.649  28.505  14.986 -0.2989 -0.2144  0.0905
 2163POSM   C3A25376  21.948  28.411  14.636 -0.3416  0.0309  0.1145
 2163POSM   C1B25377  21.883  27.654  15.217  0.0145  0.1946 -0.2319
 2163POSM   D2B25378  21.912  27.323  14.904 -0.2018  0.0582  0.1722
 2163POSM   C3B25379  22.163  27.176  14.536 -0.1262 -0.2220  0.3370
 2163POSM   C4B25380  22.291  27.293  14.051 -0.2610  0.2269  0.0313
 2164POSM   NC325381  16.645  26.643  16.172  0.0303 -0.0326  0.1247
 2164POSM   PO425382  16.734  26.323  15.982 -0.0682  0.3039 -0.0227
 2164POSM   AM125383  16.874  26.370  15.693  0.2206  0.1292 -0.4844
 2164POSM   AM225384  16.764  26.369  15.411 -0.1525 -0.1407 -0.1602
 2164POSM   T1A25385  17.284  26.558  15.492 -0.3115 -0.0612 -0.0215
 2164POSM   C2A25386  17.441  26.610  15.054  0.2696  0.0251 -0.3433
 2164POSM   C3A25387  17.381  26.479  14.639  0.3065 -0.1217 -0.1053
 2164POSM   C1B25388  16.897  26.643  15.226  0.3097  0.1387 -0.1192
 2164POSM   D2B25389  16.972  26.801  14.766 -0.0137  0.3728  0.0942
 2164POSM   C3B25390  16.882  27.202  14.625  0.0978 -0.3591 -0.1020
 2164POSM   C4B25391  16.687  27.609  14.736 -0.1837 -0.0147  0.0634
 2165POSM   NC325392  13.728  30.717  16.091  0.2589 -0.0210  0.1410
 2165POSM   PO425393  14.083  30.689  16.161  0.1051 -0.1465 -0.0063
 2165POSM   AM125394  14.220  30.883  15.933 -0.1334 -0.3700 -0.0154
 2165POSM   AM225395  14.459  30.920  15.795  0.0592 -0.0140 -0.2501
 2165POSM   T1A25396  14.058  31.168  15.568  0.0258  0.2112 -0.1920
 2165POSM   C2A25397  13.792  31.150  15.171  0.1886 -0.1202 -0.0168
 2165POSM   C3A25398  13.529  30.920  14.857 -0.1404 -0.1595  0.0694
 2165POSM   C1B25399  14.689  31.069  15.571  0.4074 -0.3658  0.2358
 2165POSM   D2B25400  14.805  31.179  15.141  0.2088  0.1042 -0.2085
 2165POSM   C3B25401  14.698  31.582  14.861 -0.0272 -0.1037 -0.3109
 2165POSM   C4B25402  14.385  31.785  14.666  0.0062  0.0933  0.0330
 2166DOPE   NH325403  23.393  32.516  16.044 -0.0557 -0.4667 -0.1430
 2166DOPE   PO425404  23.337  32.470  16.344  0.0855 -0.1467 -0.0760
 2166DOPE   GL125405  23.238  32.088  16.226 -0.2021 -0.0693  0.0440
 2166DOPE   GL225406  23.173  31.891  16.429  0.0380  0.4024  0.1462
 2166DOPE   C1A25407  23.025  31.980  15.821 -0.1592  0.0567  0.1625
 2166DOPE   D2A25408  22.711  31.809  15.539 -0.3285 -0.0012 -0.0382
 2166DOPE   C3A25409  23.002  31.760  15.198 -0.1706 -0.1042  0.2519
 2166DOPE   C4A25410  23.092  31.583  14.745 -0.0712 -0.1919 -0.0243
 2166DOPE   C1B25411  22.825  31.710  16.147 -0.2270 -0.1365 -0.0598
 2166DOPE   D2B25412  22.731  31.306  15.918 -0.3922 -0.5393 -0.0829
 2166DOPE   C3B25413  22.868  31.305  15.455  0.0596  0.1299 -0.0117
 2166DOPE   C4B25414  22.832  31.167  15.011  0.0800  0.1034  0.1562
 2167DOPE   NH325415  13.002  30.763  15.683 -0.2681 -0.1712 -0.0567
 2167DOPE   PO425416  12.874  30.516  15.634 -0.3025 -0.0322  0.0201
 2167DOPE   GL125417  13.059  30.403  15.350 -0.0211 -0.1763  0.2277
 2167DOPE   GL225418  13.181  30.141  15.486  0.1735 -0.1038  0.3025
 2167DOPE   C1A25419  13.135  30.614  14.911  0.1787  0.0177 -0.1090
 2167DOPE   D2A25420  13.135  30.954  14.623 -0.0072 -0.3826 -0.0459
 2167DOPE   C3A25421  13.077  31.120  14.228  0.1907  0.0675  0.0428
 2167DOPE   C4A25422  13.119  31.554  14.020  0.0133 -0.2275  0.0724
 2167DOPE   C1B25423  12.990  30.115  15.061 -0.1829  0.2626 -0.0400
 2167DOPE   D2B25424  12.599  29.861  14.871  0.0477 -0.0035  0.1891
 2167DOPE   C3B25425  12.622  29.925  14.405 -0.0085  0.0533 -0.1800
 2167DOPE   C4B25426  12.653  29.727  13.953 -0.0662  0.1210  0.1031
 2168DOPS   CNO25427  22.168  23.947  15.852 -0.2535 -0.4404 -0.1425
 2168DOPS   PO425428  22.331  23.988  15.528 -0.2295 -0.0792 -0.2360
 2168DOPS   GL125429  22.424  23.917  15.162  0.2221  0.2453  0.1740
 2168DOPS   GL225430  22.182  23.929  14.960 -0.0285 -0.1506  0.0840
 2168DOPS   C1A25431  22.590  23.808  14.702 -0.2249  0.0462 -0.0401
 2168DOPS   D2A25432  22.587  23.391  14.458  0.0622 -0.1701  0.3386
 2168DOPS   C3A25433  22.305  23.075  14.533  0.0877  0.2055  0.1290
 2168DOPS   C4A25434  21.898  22.816  14.627  0.0592 -0.0610 -0.1415
 2168DOPS   C1B25435  22.261  24.162  14.547 -0.1714  0.1832 -0.2344
 2168DOPS   D2B25436  22.353  24.216  14.080 -0.2329  0.2301 -0.2202
 2168DOPS   C3B25437  22.775  24.348  13.910  0.1108 -0.2300  0.1057
 2168DOPS   C4B25438  23.067  24.587  13.606  0.1512 -0.2928  0.0452
 2169DOPS   CNO25439  12.547  27.212  15.153 -0.2080  0.5348  0.2319
 2169DOPS   PO425440  12.379  27.597  15.252  0.0369 -0.3813  0.2372
 2169DOPS   GL125441  12.039  27.656  14.962 -0.0056  0.0438 -0.1245
 2169DOPS   GL225442  11.763  27.771  14.973 -0.2477 -0.1525 -0.0308
 2169DOPS   C1A25443  12.027  27.481  14.503  0.1336  0.1372 -0.1709
 2169DOPS   D2A25444  11.764  27.506  14.159 -0.0358 -0.0569 -0.1952
 2169DOPS   C3A25445  11.353  27.256  14.133 -0.3734  0.2355 -0.4876
 2169DOPS   C4A25446  11.093  26.953  13.862 -0.1047  0.0131 -0.1014
 2169DOPS   C1B25447  11.526  28.155  14.842  0.0545  0.2475 -0.0138
 2169DOPS   D2B25448  11.540  28.525  14.507 -0.2015 -0.4348 -0.0852
 2169DOPS   C3B25449  11.273  28.301  14.216  0.1059 -0.0409 -0.1381
 2169DOPS   C4B25450  10.925  28.111  13.887 -0.2165 -0.2090 -0.2980
 2170DOPE   NH325451  15.961  32.636  15.455 -0.3468  0.0693  0.2065
 2170DOPE   PO425452  15.869  32.302  15.481  0.0344  0.0407 -0.2593
 2170DOPE   GL125453  15.683  32.632  15.099 -0.3085  0.0435 -0.0776
 2170DOPE   GL225454  15.617  32.373  15.043 -0.2794 -0.2549  0.0362
 2170DOPE   C1A25455  15.461  32.733  14.699 -0.2455 -0.1571 -0.1524
 2170DOPE   D2A25456  15.250  32.478  14.365  0.2909  0.1354  0.1867
 2170DOPE   C3A25457  15.294  32.539  13.960 -0.4404  0.0744  0.2866
 2170DOPE   C4A25458  15.207  32.547  13.501 -0.1326 -0.0164  0.3564
 2170DOPE   C1B25459  15.730  32.236  14.552 -0.1508 -0.0021  0.0710
 2170DOPE   D2B25460  15.784  32.340  14.115  0.0089  0.0794  0.3260
 2170DOPE   C3B25461  15.618  32.164  13.712  0.0308  0.2984 -0.0842
 2170DOPE   C4B25462  15.300  31.854  13.505  0.1564  0.0361 -0.0002
 2171DOPC   NC325463  15.927  32.840  16.178 -0.1226  0.2639  0.1355
 2171DOPC   PO425464  16.134  32.913  15.836  0.0715  0.3974  0.0934
 2171DOPC   GL125465  16.091  33.113  15.417 -0.1816  0.3899  0.1862
 2171DOPC   GL225466  16.399  33.179  15.342  0.0249 -0.0246  0.3154
 2171DOPC   C1A25467  16.038  33.194  14.931  0.1483 -0.3392  0.1223
 2171DOPC   D2A25468  15.796  33.081  14.503  0.2243  0.0955  0.4173
 2171DOPC   C3A25469  15.563  33.470  14.269  0.1172  0.0272 -0.0056
 2171DOPC   C4A25470  15.353  33.758  14.036  0.1885  0.4598 -0.2194
 2171DOPC   C1B25471  16.585  33.487  15.046 -0.1875  0.0150  0.0917
 2171DOPC   D2B25472  16.766  33.503  14.641  0.2017 -0.0438 -0.6540
 2171DOPC   C3B25473  16.758  33.128  14.314 -0.2492  0.3827 -0.0488
 2171DOPC   C4B25474  16.660  32.949  13.832  0.0380 -0.1086  0.3102
 2172DOPE   NH325475  17.517  32.129  15.848 -0.0177 -0.2935 -0.4623
 2172DOPE   PO425476  17.770  32.025  15.619  0.1472  0.2345  0.2232
 2172DOPE   GL125477  18.061  31.884  15.317  0.2488  0.2815  0.4433
 2172DOPE   GL225478  17.785  31.753  15.208 -0.1498  0.2660  0.2285
 2172DOPE   C1A25479  18.137  31.661  14.875 -0.1204 -0.4197 -0.2152
 2172DOPE   D2A25480  18.247  31.704  14.407 -0.0767  0.0864  0.4011
 2172DOPE   C3A25481  18.502  31.329  14.413  0.1353  0.2890 -0.2063
 2172DOPE   C4A25482  18.664  31.125  14.759  0.1216 -0.2129 -0.1584
 2172DOPE   C1B25483  17.663  31.329  14.977 -0.0938 -0.2264  0.1757
 2172DOPE   D2B25484  17.762  30.842  15.007 -0.0015 -0.2252 -0.5746
 2172DOPE   C3B25485  18.013  30.575  14.729  0.0053  0.0310 -0.0434
 2172DOPE   C4B25486  18.134  30.195  14.472  0.0780  0.1328  0.0949
 2173DOPC   NC325487  11.368  26.977  15.439  0.2523  0.2038  0.0515
 2173DOPC   PO425488  11.364  26.696  15.182  0.1589  0.1990 -0.0409
 2173DOPC   GL125489  11.052  26.554  14.968 -0.3314 -0.0556  0.3047
 2173DOPC   GL225490  11.002  26.828  14.867 -0.0367  0.2397  0.0275
 2173DOPC   C1A25491  11.075  26.221  14.571 -0.0653 -0.1633 -0.1335
 2173DOPC   D2A25492  11.165  25.783  14.517 -0.3634 -0.2833  0.0204
 2173DOPC   C3A25493  10.829  25.444  14.509  0.4613 -0.1414  0.2755
 2173DOPC   C4A25494  10.414  25.384  14.308  0.0783  0.1051  0.0518
 2173DOPC   C1B25495  11.364  26.665  14.595  0.1270 -0.1624  0.1438
 2173DOPC   D2B25496  11.437  26.698  14.143  0.1841  0.1802  0.1333
 2173DOPC   C3B25497  11.749  27.044  13.914 -0.0323 -0.2575 -0.2228
 2173DOPC   C4B25498  11.926  27.245  13.543  0.2519  0.2196  0.5100
 2174DOPE   NH325499  21.708  27.441  15.955 -0.2144  0.0383 -0.1298
 2174DOPE   PO425500  21.532  27.241  16.152 -0.1350 -0.0237  0.2394
 2174DOPE   GL125501  21.480  27.105  15.705 -0.0600 -0.0395 -0.1721
 2174DOPE   GL225502  21.623  27.272  15.496  0.0280  0.1015  0.0239
 2174DOPE   C1A25503  21.166  27.118  15.388  0.1137 -0.3951  0.1040
 2174DOPE   D2A25504  20.949  26.820  15.169 -0.2808  0.1028  0.1663
 2174DOPE   C3A25505  20.783  26.859  14.730  0.1459 -0.1081 -0.1991
 2174DOPE   C4A25506  20.603  27.309  14.620  0.0583  0.0107 -0.1512
 2174DOPE   C1B25507  21.397  27.517  15.198  0.2343 -0.1448 -0.3674
 2174DOPE   D2B25508  21.423  27.619  14.748 -0.0498  0.0289 -0.3577
 2174DOPE   C3B25509  21.060  27.872  14.592 -0.1085  0.1775  0.1533
 2174DOPE   C4B25510  20.980  28.357  14.538 -0.1031  0.1011 -0.1052
 2175DOPE   NH325511  21.374  31.975  16.110  0.2154  0.1222 -0.0492
 2175DOPE   PO425512  21.195  32.179  15.963  0.0022 -0.0434  0.1357
 2175DOPE   GL125513  21.375  32.005  15.632  0.1503  0.5325  0.1433
 2175DOPE   GL225514  21.310  31.689  15.708  0.2023 -0.0437  0.3023
 2175DOPE   C1A25515  21.767  31.774  15.403  0.0716  0.0602  0.2183
 2175DOPE   D2A25516  22.020  31.503  15.266 -0.0104  0.2086 -0.0358
 2175DOPE   C3A25517  22.075  31.409  14.779  0.1725  0.1036  0.0771
 2175DOPE   C4A25518  22.229  31.394  14.374  0.1660 -0.0734  0.0272
 2175DOPE   C1B25519  21.400  31.466  15.294 -0.1199  0.1388 -0.0090
 2175DOPE   D2B25520  21.541  31.409  14.896 -0.1736  0.0090  0.0320
 2175DOPE   C3B25521  21.237  31.203  14.578  0.0304 -0.2589  0.0412
 2175DOPE   C4B25522  21.206  31.308  14.142  0.0334  0.1707 -0.4045
 2176DOPC   NC325523  13.777  23.298  15.404  0.1068  0.0588 -0.4202
 2176DOPC   PO425524  13.377  23.329  15.418 -0.3755  0.0569  0.1056
 2176DOPC   GL125525  13.471  23.251  14.979 -0.2679 -0.0347  0.1389
 2176DOPC   GL225526  13.364  23.019  14.803 -0.2311 -0.0266 -0.0632
 2176DOPC   C1A25527  13.766  23.574  14.875  0.1121  0.0557 -0.1657
 2176DOPC   D2A25528  14.024  23.829  14.579  0.1859  0.0851  0.0156
 2176DOPC   C3A25529  14.442  24.043  14.561 -0.0028 -0.1485 -0.1469
 2176DOPC   C4A25530  14.922  24.196  14.621  0.3589 -0.2018 -0.2973
 2176DOPC   C1B25531  13.261  23.145  14.315 -0.2146  0.0695  0.1055
 2176DOPC   D2B25532  13.235  23.113  13.796 -0.0897  0.3656  0.2354
 2176DOPC   C3B25533  13.496  23.080  13.464  0.0027  0.4290  0.1562
 2176DOPC   C4B25534  13.787  23.384  13.279 -0.1366 -0.2835 -0.3131
 2177DOPC   NC325535  22.401  26.939  15.883  0.2146 -0.1616  0.1516
 2177DOPC   PO425536  22.604  27.264  15.846 -0.2292 -0.1512 -0.0663
 2177DOPC   GL125537  22.622  27.118  15.460  0.0910  0.2273  0.1282
 2177DOPC   GL225538  22.509  26.797  15.377 -0.3085 -0.5732 -0.1516
 2177DOPC   C1A25539  22.869  27.309  15.032 -0.1599 -0.0994  0.1814
 2177DOPC   D2A25540  23.027  27.709  14.808 -0.2409  0.5495  0.1504
 2177DOPC   C3A25541  22.876  27.883  14.360 -0.1330  0.2320  0.5030
 2177DOPC   C4A25542  22.956  27.939  13.901  0.1091  0.1207  0.0062
 2177DOPC   C1B25543  22.068  26.686  15.164 -0.1859 -0.0953 -0.1005
 2177DOPC   D2B25544  21.855  26.845  14.762  0.4306 -0.3358  0.0761
 2177DOPC   C3B25545  21.665  27.154  14.433 -0.1081 -0.2722 -0.0702
 2177DOPC   C4B25546  21.303  27.072  14.078 -0.1042  0.0515  0.2708
 2178DOPE   NH325547  18.380  25.601  15.714  0.2723  0.3071  0.2011
 2178DOPE   PO425548  18.246  25.333  15.607  0.1671 -0.0324 -0.0888
 2178DOPE   GL125549  18.459  25.343  15.290  0.0114 -0.4338 -0.1300
 2178DOPE   GL225550  18.719  25.420  15.200  0.1653  0.3849  0.0728
 2178DOPE   C1A25551  18.154  25.489  15.019  0.1840 -0.2246  0.0423
 2178DOPE   D2A25552  17.734  25.498  14.828 -0.2042 -0.1346  0.1351
 2178DOPE   C3A25553  17.871  25.337  14.425 -0.1667 -0.0959  0.2110
 2178DOPE   C4A25554  17.758  25.309  13.940 -0.0114 -0.0601  0.0665
 2178DOPE   C1B25555  19.007  25.585  14.875 -0.1356  0.1248  0.0481
 2178DOPE   D2B25556  19.034  25.745  14.454  0.2879  0.1805 -0.1394
 2178DOPE   C3B25557  18.950  26.023  14.099  0.0039  0.0368 -0.2514
 2178DOPE   C4B25558  19.025  26.201  13.704 -0.0718 -0.3241 -0.1029
 2179DOPE   NH325559  22.417  29.184  16.107  0.0004 -0.0493  0.0600
 2179DOPE   PO425560  22.685  29.181  16.185 -0.1054  0.1104  0.1498
 2179DOPE   GL125561  22.746  29.435  15.824 -0.2031  0.0422  0.0101
 2179DOPE   GL225562  22.957  29.633  15.909 -0.0112 -0.4027 -0.0098
 2179DOPE   C1A25563  23.072  29.396  15.528  0.1397 -0.1898  0.3051
 2179DOPE   D2A25564  23.026  29.407  15.162  0.0915  0.0437 -0.0182
 2179DOPE   C3A25565  22.743  29.316  14.835  0.3226 -0.4237  0.1012
 2179DOPE   C4A25566  22.540  29.458  14.437  0.4432  0.0337 -0.1193
 2179DOPE   C1B25567  22.807  29.831  15.504 -0.3031  0.3404 -0.1317
 2179DOPE   D2B25568  23.031  29.932  15.148  0.0392 -0.4390 -0.2135
 2179DOPE   C3B25569  22.722  30.265  14.939 -0.2109  0.1347  0.0708
 2179DOPE   C4B25570  22.537  30.490  14.564  0.0843 -0.3251 -0.0430
 2180DOPS   CNO25571  13.942  27.469  15.668 -0.1371  0.3436 -0.0756
 2180DOPS   PO425572  13.697  27.668  15.486  0.0200  0.1769  0.4346
 2180DOPS   GL125573  13.713  27.732  15.077  0.0391  0.0825 -0.0727
 2180DOPS   GL225574  13.445  27.731  14.962  0.0713  0.2113  0.0305
 2180DOPS   C1A25575  13.697  28.125  14.804 -0.0725 -0.2264  0.0413
 2180DOPS   D2A25576  13.665  28.484  14.503 -0.1254  0.0630  0.2374
 2180DOPS   C3A25577  13.826  28.889  14.481 -0.1534 -0.1094 -0.0820
 2180DOPS   C4A25578  13.765  29.313  14.464  0.0862  0.2109 -0.2956
 2180DOPS   C1B25579  13.463  27.736  14.526 -0.1314 -0.2308 -0.2141
 2180DOPS   D2B25580  13.301  27.820  14.108 -0.0600 -0.2825 -0.3036
 2180DOPS   C3B25581  13.401  27.751  13.644 -0.0279 -0.2285 -0.1818
 2180DOPS   C4B25582  13.538  27.861  13.240 -0.4895  0.0951  0.1100
 2181POSM   NC325583  16.656  33.692  15.473 -0.0929 -0.2129 -0.1260
 2181POSM   PO425584  16.354  33.925  15.595 -0.0240 -0.2393 -0.0665
 2181POSM   AM125585  16.239  34.147  15.359 -0.1920  0.0671 -0.1327
 2181POSM   AM225586  15.984  34.201  15.276  0.3319  0.0333 -0.0872
 2181POSM   T1A25587  16.290  34.588  15.115  0.4699  0.3504  0.0577
 2181POSM   C2A25588  16.374  34.824  14.730  0.3725  0.0248  0.1243
 2181POSM   C3A25589  16.075  35.080  14.508 -0.1366  0.0323  0.0391
 2181POSM   C1B25590  15.947  34.230  14.935 -0.0094 -0.1761  0.1495
 2181POSM   D2B25591  16.068  34.131  14.482 -0.3729  0.1115 -0.1844
 2181POSM   C3B25592  16.464  33.899  14.411 -0.2770  0.1911 -0.0405
 2181POSM   C4B25593  16.860  33.976  14.170 -0.0233 -0.0773 -0.0341
 2182DOPC   NC325594  11.708  28.979  15.470  0.0751 -0.0619  0.1568
 2182DOPC   PO425595  11.526  29.353  15.456  0.1093  0.1362  0.3470
 2182DOPC   GL125596  11.729  29.395  15.045 -0.4481 -0.0006 -0.0594
 2182DOPC   GL225597  11.978  29.432  15.056  0.2073 -0.0391  0.1030
 2182DOPC   C1A25598  11.696  29.555  14.607 -0.0521  0.2447  0.2314
 2182DOPC   D2A25599  11.698  29.684  14.159 -0.2057 -0.0246 -0.0941
 2182DOPC   C3A25600  11.874  29.565  13.736  0.0871 -0.3364 -0.1696
 2182DOPC   C4A25601  12.135  29.434  13.415  0.0327  0.1199  0.0683
 2182DOPC   C1B25602  12.134  29.789  14.857 -0.0487 -0.0816  0.0203
 2182DOPC   D2B25603  12.287  30.179  14.665 -0.2253 -0.4723  0.1166
 2182DOPC   C3B25604  12.282  30.316  14.297 -0.0807  0.3731  0.2391
 2182DOPC   C4B25605  12.337  30.282  13.843  0.1274 -0.0335 -0.0885
 2183DOPC   NC325606  15.637  26.699  15.453  0.2455 -0.0795 -0.0392
 2183DOPC   PO425607  15.755  26.338  15.563  0.1420  0.0652 -0.1573
 2183DOPC   GL125608  15.760  26.390  15.127 -0.1457  0.1483 -0.3431
 2183DOPC   GL225609  15.536  26.482  15.050 -0.1658 -0.0685 -0.1381
 2183DOPC   C1A25610  16.005  26.643  14.847 -0.1640  0.1062 -0.0459
 2183DOPC   D2A25611  16.008  26.704  14.349  0.1154 -0.0155  0.1667
 2183DOPC   C3A25612  16.019  27.109  14.099 -0.2768  0.1536 -0.2909
 2183DOPC   C4A25613  15.947  27.250  13.687 -0.0903 -0.2040 -0.1670
 2183DOPC   C1B25614  15.472  26.520  14.599  0.2485 -0.1524 -0.0145
 2183DOPC   D2B25615  15.439  26.489  14.134  0.1205 -0.2848 -0.2205
 2183DOPC   C3B25616  15.818  26.627  13.845  0.1705  0.1288 -0.1326
 2183DOPC   C4B25617  15.718  26.762  13.410 -0.2397  0.0992 -0.2225
 2184DOPS   CNO25618  14.677  24.725  15.390 -0.0586 -0.0394  0.0427
 2184DOPS   PO425619  14.563  24.461  15.611  0.2902  0.4128 -0.0335
 2184DOPS   GL125620  14.407  24.323  15.246  0.3463  0.2725 -0.1740
 2184DOPS   GL225621  14.576  24.484  14.978 -0.0666  0.4643  0.0337
 2184DOPS   C1A25622  14.641  23.952  15.009  0.0123  0.2460 -0.1527
 2184DOPS   D2A25623  14.756  23.638  14.656 -0.2014  0.0644 -0.0375
 2184DOPS   C3A25624  15.132  23.713  14.326  0.1668 -0.2431  0.1622
 2184DOPS   C4A25625  15.259  23.910  13.918  0.1042  0.1108  0.0833
 2184DOPS   C1B25626  14.600  24.757  14.601  0.0574 -0.1341  0.1198
 2184DOPS   D2B25627  14.470  25.109  14.297 -0.2266  0.3870  0.2148
 2184DOPS   C3B25628  14.609  25.120  13.885  0.1303  0.0702 -0.0077
 2184DOPS   C4B25629  14.397  25.166  13.408 -0.1233 -0.1416  0.0574
 2185DOPC   NC325630  21.916  33.984  16.326 -0.1586  0.1367 -0.0331
 2185DOPC   PO425631  21.795  34.344  16.272 -0.0447  0.0418 -0.0198
 2185DOPC   GL125632  21.827  34.616  15.964 -0.1749  0.3255  0.1697
 2185DOPC   GL225633  21.588  34.821  15.921 -0.0585 -0.2522  0.1185
 2185DOPC   C1A25634  21.863  34.561  15.447  0.1220  0.1014  0.2741
 2185DOPC   D2A25635  22.051  34.780  15.131  0.4800  0.3441 -0.0192
 2185DOPC   C3A25636  22.303  34.784  14.781  0.0276  0.0516  0.1683
 2185DOPC   C4A25637  22.413  34.596  14.403  0.3046 -0.0041  0.2611
 2185DOPC   C1B25638  21.759  35.099  15.550 -0.1252  0.0888 -0.1556
 2185DOPC   D2B25639  22.070  35.334  15.290 -0.0120 -0.0183  0.3576
 2185DOPC   C3B25640  22.228  35.307  14.848  0.0605 -0.2742  0.2627
 2185DOPC   C4B25641  22.259  35.677  14.573  0.0718 -0.0313  0.1483
 2186POSM   NC325642  20.475  27.955  16.710  0.0189 -0.3283  0.0284
 2186POSM   PO425643  20.627  27.868  16.319  0.1637 -0.0423  0.1740
 2186POSM   AM125644  20.671  27.853  15.992  0.1838 -0.0567 -0.0748
 2186POSM   AM225645  20.879  28.040  15.866  0.2113  0.2036 -0.3576
 2186POSM   T1A25646  20.762  27.592  15.591 -0.0361 -0.1929  0.0079
 2186POSM   C2A25647  20.657  27.227  15.321 -0.0508  0.1118 -0.0330
 2186POSM   C3A25648  20.344  27.086  14.961  0.0511  0.0050  0.0468
 2186POSM   C1B25649  20.843  28.226  15.609 -0.3183 -0.2369  0.3972
 2186POSM   D2B25650  20.798  28.609  15.381  0.1485  0.2379 -0.1857
 2186POSM   C3B25651  21.037  28.634  14.942 -0.3949  0.2442  0.4654
 2186POSM   C4B25652  21.332  28.772  14.577  0.1575 -0.1307 -0.3189
 2187DOPC   NC325653  17.790  24.442  15.955 -0.2799 -0.0626 -0.0829
 2187DOPC   PO425654  17.456  24.641  15.957  0.1301 -0.2227  0.0839
 2187DOPC   GL125655  17.529  24.484  15.508 -0.0804  0.5659 -0.2185
 2187DOPC   GL225656  17.829  24.561  15.456  0.2623  0.1177  0.0166
 2187DOPC   C1A25657  17.308  24.237  15.227 -0.0129  0.0505  0.3386
 2187DOPC   D2A25658  17.223  24.139  14.736  0.3491 -0.3714 -0.2448
 2187DOPC   C3A25659  17.371  23.744  14.440  0.0138  0.1536 -0.1495
 2187DOPC   C4A25660  17.645  23.641  14.117 -0.2965 -0.4352  0.1785
 2187DOPC   C1B25661  17.458  24.754  15.152 -0.1321  0.3678 -0.0396
 2187DOPC   D2B25662  17.257  24.704  14.777 -0.1207  0.0354  0.1185
 2187DOPC   C3B25663  17.436  24.467  14.455  0.3857  0.0683  0.0710
 2187DOPC   C4B25664  17.429  24.113  14.129  0.0122 -0.0196  0.0945
 2188DOPC   NC325665  21.445  23.474  15.533 -0.2001 -0.0923 -0.1082
 2188DOPC   PO425666  21.308  23.847  15.468  0.1355  0.2445 -0.3490
 2188DOPC   GL125667  21.151  23.803  15.117 -0.0855  0.4383 -0.0451
 2188DOPC   GL225668  20.953  23.590  15.051  0.1018 -0.1371 -0.0008
 2188DOPC   C1A25669  21.333  23.629  14.748  0.2962  0.2431 -0.4508
 2188DOPC   D2A25670  21.243  23.446  14.370 -0.2669 -0.0349 -0.1810
 2188DOPC   C3A25671  20.902  23.608  14.075  0.2431  0.2611  0.1896
 2188DOPC   C4A25672  20.602  23.515  13.691  0.0582  0.1643 -0.1615
 2188DOPC   C1B25673  20.813  23.674  14.622 -0.3248 -0.1195  0.1466
 2188DOPC   D2B25674  20.672  24.019  14.359  0.1204  0.3888 -0.0375
 2188DOPC   C3B25675  20.474  23.971  13.914  0.0641 -0.2022 -0.3295
 2188DOPC   C4B25676  20.313  24.096  13.522 -0.0174  0.2052  0.1440
 2189DOPE   NH325677  17.525  22.786  15.125  0.2024  0.0118 -0.0482
 2189DOPE   PO425678  17.824  22.786  15.281 -0.1277  0.3448  0.0798
 2189DOPE   GL125679  18.097  22.824  15.037 -0.5451  0.0271  0.2179
 2189DOPE   GL225680  18.218  23.133  14.988  0.0951  0.0190 -0.0243
 2189DOPE   C1A25681  18.268  22.663  14.611 -0.0470  0.0865 -0.1044
 2189DOPE   D2A25682  18.218  22.761  14.140  0.1630 -0.2467  0.1580
 2189DOPE   C3A25683  18.029  22.998  13.766 -0.1063 -0.3264  0.1156
 2189DOPE   C4A25684  17.967  23.464  13.621 -0.0811 -0.0115  0.0588
 2189DOPE   C1B25685  18.600  23.055  15.114  0.1632  0.2297 -0.3749
 2189DOPE   D2B25686  18.968  22.859  14.893 -0.3385 -0.0471  0.3506
 2189DOPE   C3B25687  18.750  22.748  14.481  0.0636  0.0401  0.1318
 2189DOPE   C4B25688  18.719  22.603  14.038  0.6658  0.1083 -0.3000
 2190POSM   NC325689  22.471  24.362  15.253  0.1821 -0.0522  0.0379
 2190POSM   PO425690  22.038  24.375  15.278 -0.2642  0.0976 -0.1080
 2190POSM   AM125691  21.967  24.489  14.981 -0.0283  0.0497  0.0008
 2190POSM   AM225692  22.128  24.680  14.823 -0.1627 -0.4438  0.2262
 2190POSM   T1A25693  21.814  24.322  14.540  0.1948  0.0886 -0.1947
 2190POSM   C2A25694  21.969  24.522  14.116 -0.2401 -0.4150  0.0796
 2190POSM   C3A25695  22.281  24.673  13.762 -0.0163 -0.2643  0.2453
 2190POSM   C1B25696  22.047  24.817  14.524 -0.0283  0.2293 -0.1060
 2190POSM   D2B25697  21.781  24.983  14.182  0.0354 -0.2228  0.0783
 2190POSM   C3B25698  21.656  25.180  13.792  0.0867 -0.1886  0.1948
 2190POSM   C4B25699  21.467  25.486  13.524 -0.1364  0.1560 -0.0808
 2191POSM   NC325700  13.031  30.178  15.918  0.0522  0.1603  0.2002
 2191POSM   PO425701  13.339  30.410  15.885  0.0671 -0.0651  0.0857
 2191POSM   AM125702  13.530  30.345  15.587  0.3255 -0.1023  0.1897
 2191POSM   AM225703  13.697  30.171  15.469 -0.3435 -0.0772 -0.0248
 2191POSM   T1A25704  13.486  30.353  15.081  0.0357  0.0812  0.2109
 2191POSM   C2A25705  13.484  30.354  14.625  0.1507 -0.0701 -0.0005
 2191POSM   C3A25706  13.214  30.392  14.288  0.1625  0.2404 -0.3394
 2191POSM   C1B25707  13.947  30.278  15.318 -0.3571  0.1739  0.1694
 2191POSM   D2B25708  14.406  30.201  15.265 -0.0710  0.2362  0.0225
 2191POSM   C3B25709  14.707  30.068  14.952  0.1077  0.0941 -0.0404
 2191POSM   C4B25710  15.118  30.190  14.996 -0.0695  0.0074  0.0239
 2192DOPE   NH325711  13.252  25.231  15.273 -0.1760  0.2964 -0.2393
 2192DOPE   PO425712  12.931  25.120  15.318 -0.2033  0.0652  0.3038
 2192DOPE   GL125713  13.143  25.071  14.873  0.1694  0.1335  0.0279
 2192DOPE   GL225714  13.368  25.263  14.803 -0.0687 -0.3652 -0.1046
 2192DOPE   C1A25715  13.095  25.008  14.407 -0.2588 -0.0163  0.1675
 2192DOPE   D2A25716  13.176  25.007  13.924 -0.1102 -0.0298 -0.0674
 2192DOPE   C3A25717  13.207  25.185  13.510 -0.1111  0.0343 -0.3201
 2192DOPE   C4A25718  13.496  25.507  13.369  0.3664  0.0794 -0.2551
 2192DOPE   C1B25719  13.561  25.297  14.325  0.0703 -0.2044 -0.0030
 2192DOPE   D2B25720  13.637  25.128  13.867 -0.1049 -0.0588 -0.1617
 2192DOPE   C3B25721  13.674  24.832  13.614 -0.1347 -0.1612 -0.0556
 2192DOPE   C4B25722  13.902  24.414  13.676  0.5130  0.2200 -0.0969
 2193POSM   NC325723  12.344  25.848  15.232 -0.2952  0.0595  0.0675
 2193POSM   PO425724  12.720  25.867  15.126 -0.1031 -0.2168  0.1103
 2193POSM   AM125725  12.608  25.752  14.846  0.0839  0.2026  0.3480
 2193POSM   AM225726  12.582  25.903  14.557 -0.0461  0.1501  0.0736
 2193POSM   T1A25727  12.452  25.407  14.513  0.3705 -0.2011  0.3588
 2193POSM   C2A25728  12.231  25.011  14.450  0.1997  0.0629  0.0350
 2193POSM   C3A25729  12.006  24.669  14.203 -0.1647  0.0448 -0.0048
 2193POSM   C1B25730  12.575  25.914  14.185  0.0686  0.1829  0.1849
 2193POSM   D2B25731  12.352  26.183  13.885 -0.0782 -0.1292 -0.2794
 2193POSM   C3B25732  12.331  26.213  13.420  0.1456  0.0019 -0.3083
 2193POSM   C4B25733  12.203  26.294  13.008 -0.0592 -0.3440  0.1078
 2194DOPE   NH325734  15.648  33.804  15.849  0.2612 -0.1929 -0.2360
 2194DOPE   PO425735  15.858  33.934  15.674  0.1491 -0.4834 -0.0655
 2194DOPE   GL125736  15.789  33.821  15.296 -0.1188  0.1478  0.4725
 2194DOPE   GL225737  15.508  33.969  15.270 -0.1573  0.0813  0.2197
 2194DOPE   C1A25738  15.735  33.774  14.866  0.1943  0.0264 -0.3594
 2194DOPE   D2A25739  15.994  33.612  14.489  0.2509 -0.0405 -0.2193
 2194DOPE   C3A25740  15.976  33.333  14.072  0.4264 -0.0077 -0.4145
 2194DOPE   C4A25741  15.662  33.385  13.689  0.1313 -0.1058 -0.2677
 2194DOPE   C1B25742  15.427  34.272  14.953  0.1196 -0.2212 -0.2281
 2194DOPE   D2B25743  15.472  34.455  14.574  0.0718  0.0236 -0.2978
 2194DOPE   C3B25744  15.939  34.607  14.465  0.0213  0.1895  0.0076
 2194DOPE   C4B25745  16.257  34.797  14.111 -0.0589  0.2152 -0.2353
 2195POSM   NC325746  12.485  28.133  15.131  0.2347  0.1086 -0.1281
 2195POSM   PO425747  12.090  28.046  15.228  0.1252 -0.2200 -0.1077
 2195POSM   AM125748  12.016  28.166  14.946  0.0574 -0.0506  0.0319
 2195POSM   AM225749  11.983  28.080  14.659  0.3370  0.0705  0.0817
 2195POSM   T1A25750  12.122  28.517  14.639 -0.0296 -0.0161  0.3494
 2195POSM   C2A25751  12.017  28.542  14.231  0.0620 -0.0778 -0.0539
 2195POSM   C3A25752  12.204  28.603  13.821  0.0168 -0.1134 -0.2790
 2195POSM   C1B25753  11.843  28.099  14.299  0.1219  0.1629  0.4575
 2195POSM   D2B25754  11.691  28.240  13.880  0.0594 -0.0583 -0.1658
 2195POSM   C3B25755  11.948  28.322  13.516  0.1874 -0.2502 -0.0800
 2195POSM   C4B25756  12.281  28.560  13.307  0.0906 -0.3360  0.3594
 2196DOPS   CNO25757  22.809  25.472  15.874  0.1474 -0.2577  0.2358
 2196DOPS   PO425758  23.054  25.346  15.649  0.0258  0.3311 -0.0213
 2196DOPS   GL125759  23.294  25.392  15.323  0.1064 -0.2868 -0.4567
 2196DOPS   GL225760  23.409  25.036  15.334  0.0020 -0.0374 -0.0430
 2196DOPS   C1A25761  23.588  25.568  14.977 -0.0954 -0.0581  0.1744
 2196DOPS   D2A25762  23.925  25.412  14.685  0.1446 -0.0328 -0.0527
 2196DOPS   C3A25763  23.852  25.347  14.223 -0.3052  0.0762 -0.1623
 2196DOPS   C4A25764  23.755  25.108  13.861  0.3418  0.1520 -0.0537
 2196DOPS   C1B25765  23.471  25.082  14.860  0.0520 -0.2320  0.1300
 2196DOPS   D2B25766  23.725  24.948  14.496 -0.2516  0.0342 -0.0344
 2196DOPS   C3B25767  24.117  24.819  14.286  0.2600 -0.0615 -0.1006
 2196DOPS   C4B25768  24.372  24.701  13.917  0.2588  0.1640 -0.1520
 2197DOPC   NC325769  17.324  33.468  15.515 -0.2498 -0.1612 -0.0340
 2197DOPC   PO425770  16.966  33.300  15.618  0.2201  0.3814 -0.1652
 2197DOPC   GL125771  17.008  33.050  15.280 -0.1012 -0.0071 -0.1652
 2197DOPC   GL225772  16.875  33.082  15.046 -0.2477  0.0846  0.1748
 2197DOPC   C1A25773  17.440  33.045  15.104 -0.2730  0.0361  0.2306
 2197DOPC   D2A25774  17.591  32.601  15.005 -0.2687 -0.1444 -0.0138
 2197DOPC   C3A25775  17.683  32.690  14.534  0.1154  0.0244  0.1745
 2197DOPC   C4A25776  17.583  32.871  14.141  0.0707  0.2151  0.3753
 2197DOPC   C1B25777  16.539  33.021  14.712 -0.1081 -0.1645  0.1738
 2197DOPC   D2B25778  16.298  33.280  14.407  0.1676  0.2135 -0.1941
 2197DOPC   C3B25779  16.219  32.936  14.098  0.3278  0.3097 -0.0435
 2197DOPC   C4B25780  16.319  32.672  13.723  0.1647  0.1730  0.1703
 2198DOPS   CNO25781  12.231  33.217  15.774  0.0327 -0.3091 -0.2781
 2198DOPS   PO425782  11.859  33.262  15.880  0.3201 -0.0034  0.1404
 2198DOPS   GL125783  11.800  33.199  15.444  0.1226 -0.2383  0.2222
 2198DOPS   GL225784  11.989  33.428  15.419  0.1490 -0.0169 -0.0346
 2198DOPS   C1A25785  12.015  33.150  15.041 -0.0541 -0.0053  0.0998
 2198DOPS   D2A25786  12.184  33.224  14.549 -0.1477 -0.0119  0.0633
 2198DOPS   C3A25787  12.198  32.992  14.194 -0.2541 -0.0870  0.1269
 2198DOPS   C4A25788  12.398  32.866  13.809  0.2967  0.3259 -0.0508
 2198DOPS   C1B25789  11.845  33.834  15.244 -0.0911  0.1890 -0.0056
 2198DOPS   D2B25790  11.765  34.270  15.052  0.0473  0.1013  0.1429
 2198DOPS   C3B25791  11.754  34.397  14.624  0.2659  0.2025  0.3058
 2198DOPS   C4B25792  11.614  34.389  14.200  0.3102  0.1379  0.1607
 2199DOPE   NH325793  20.678  32.202  15.966  0.0223 -0.1683 -0.1486
 2199DOPE   PO425794  20.822  32.456  15.786 -0.2136  0.0009 -0.0831
 2199DOPE   GL125795  20.856  32.284  15.429  0.1163  0.2037 -0.1596
 2199DOPE   GL225796  20.586  32.164  15.446  0.4833 -0.0775 -0.1455
 2199DOPE   C1A25797  21.276  32.392  15.206  0.3715  0.2551 -0.1113
 2199DOPE   D2A25798  21.693  32.645  15.199 -0.2645  0.1546 -0.2619
 2199DOPE   C3A25799  21.941  32.756  14.792 -0.1277  0.3841 -0.2124
 2199DOPE   C4A25800  22.300  32.701  14.492  0.3314  0.0114  0.1745
 2199DOPE   C1B25801  20.782  32.217  14.987 -0.1767 -0.0451  0.1621
 2199DOPE   D2B25802  20.682  32.271  14.531 -0.1082  0.2275  0.2654
 2199DOPE   C3B25803  20.926  32.047  14.244 -0.3352  0.1450 -0.2317
 2199DOPE   C4B25804  21.207  32.198  13.971 -0.0139  0.0426 -0.1557
 2200DOPC   NC325805  13.091  29.418  16.373 -0.2126  0.1813 -0.2178
 2200DOPC   PO425806  13.234  29.727  16.152  0.0177 -0.0661  0.0880
 2200DOPC   GL125807  13.084  29.706  15.797  0.0879 -0.0455  0.0428
 2200DOPC   GL225808  13.390  29.695  15.696 -0.1608  0.0817 -0.0288
 2200DOPC   C1A25809  12.890  29.647  15.348  0.0415  0.0124 -0.0494
 2200DOPC   D2A25810  13.020  29.567  14.917 -0.2453  0.0087  0.0843
 2200DOPC   C3A25811  13.335  29.317  14.777 -0.3686  0.1497 -0.1876
 2200DOPC   C4A25812  13.252  28.992  14.394  0.1756  0.1068  0.1614
 2200DOPC   C1B25813  13.531  29.754  15.219 -0.3612 -0.1755 -0.1535
 2200DOPC   D2B25814  13.801  29.538  14.893 -0.4936  0.2336  0.1582
 2200DOPC   C3B25815  13.786  29.049  14.950 -0.2693  0.2638  0.1450
 2200DOPC   C4B25816  13.400  28.778  14.878  0.0033 -0.0958  0.2790
 2201DOPS   CNO25817  12.252  26.763  15.341 -0.5699 -0.2106  0.0334
 2201DOPS   PO425818  12.140  26.706  15.004 -0.1298  0.1247  0.0017
 2201DOPS   GL125819  11.921  26.636  14.724  0.2696  0.1032 -0.0643
 2201DOPS   GL225820  11.942  26.314  14.757 -0.0905 -0.2415 -0.0337
 2201DOPS   C1A25821  11.901  26.605  14.246  0.0481 -0.1922 -0.1242
 2201DOPS   D2A25822  11.864  26.352  13.851 -0.0433 -0.0169 -0.1826
 2201DOPS   C3A25823  11.548  26.595  13.593  0.3856  0.0624  0.0997
 2201DOPS   C4A25824  11.452  26.969  13.349  0.1748 -0.0095 -0.2332
 2201DOPS   C1B25825  11.644  26.244  14.437  0.1832  0.3543  0.1154
 2201DOPS   D2B25826  11.457  26.195  14.044 -0.1309  0.0050 -0.0684
 2201DOPS   C3B25827  11.462  25.885  13.684  0.3182 -0.0795  0.2192
 2201DOPS   C4B25828  11.282  25.512  13.487  0.2043  0.1464 -0.2381
 2202DOPC   NC325829  15.146  25.441  15.691 -0.1004 -0.0919 -0.0762
 2202DOPC   PO425830  15.275  25.294  15.320 -0.5432  0.2097 -0.2125
 2202DOPC   GL125831  15.163  25.364  14.963 -0.1161  0.0563 -0.0422
 2202DOPC   GL225832  15.088  25.638  14.887 -0.0453  0.2863  0.2459
 2202DOPC   C1A25833  15.370  25.230  14.510 -0.0737  0.0973 -0.2372
 2202DOPC   D2A25834  15.390  24.948  14.131  0.2250  0.2088  0.2391
 2202DOPC   C3A25835  15.254  25.032  13.699  0.1035  0.1133  0.0409
 2202DOPC   C4A25836  14.982  25.069  13.331 -0.1732 -0.0116 -0.2157
 2202DOPC   C1B25837  15.474  25.795  15.039  0.1115 -0.1797 -0.0207
 2202DOPC   D2B25838  15.822  26.030  14.788  0.0510 -0.0443 -0.2968
 2202DOPC   C3B25839  16.132  26.152  14.383 -0.0882  0.2912  0.1207
 2202DOPC   C4B25840  16.161  26.170  13.937  0.0618  0.1038 -0.1301
 2203DOPE   NH325841  22.556  32.854  15.743 -0.0842  0.0825  0.2036
 2203DOPE   PO425842  22.565  32.568  15.799 -0.0441 -0.0568 -0.2080
 2203DOPE   GL125843  22.526  32.344  15.524  0.0955  0.3381 -0.0021
 2203DOPE   GL225844  22.399  32.441  15.327  0.0604 -0.1446 -0.0086
 2203DOPE   C1A25845  22.341  31.962  15.291  0.1590 -0.1766  0.0946
 2203DOPE   D2A25846  22.208  31.868  14.878 -0.0135  0.0946  0.0942
 2203DOPE   C3A25847  21.899  31.783  14.568  0.2316 -0.2112  0.0630
 2203DOPE   C4A25848  21.965  31.741  14.120  0.1784  0.0400 -0.0296
 2203DOPE   C1B25849  22.308  32.401  14.889 -0.2149  0.1580  0.1910
 2203DOPE   D2B25850  22.090  32.192  14.496  0.1571  0.2719  0.0462
 2203DOPE   C3B25851  22.417  31.913  14.360 -0.1592  0.2721 -0.0215
 2203DOPE   C4B25852  22.614  31.569  14.620  0.0366 -0.1013  0.0178
 2204POSM   NC325853  18.445  31.222  15.778  0.1494 -0.6252 -0.1004
 2204POSM   PO425854  18.656  31.543  15.748 -0.0245 -0.1514  0.3517
 2204POSM   AM125855  18.513  31.584  15.455  0.0986  0.0308 -0.0111
 2204POSM   AM225856  18.503  31.661  15.219 -0.0136  0.2502  0.3068
 2204POSM   T1A25857  18.195  31.263  15.151  0.0909 -0.1038  0.2283
 2204POSM   C2A25858  18.106  31.137  14.726  0.1143 -0.1715 -0.0571
 2204POSM   C3A25859  17.734  31.030  14.429  0.1255 -0.0712 -0.0551
 2204POSM   C1B25860  18.610  31.663  14.883  0.1275 -0.0348 -0.2352
 2204POSM   D2B25861  18.711  31.908  14.495  0.0310 -0.0724  0.0880
 2204POSM   C3B25862  18.650  31.755  14.062  0.1310  0.0805 -0.0648
 2204POSM   C4B25863  18.537  31.325  13.907 -0.2789  0.3347  0.1148
 2205DOPE   NH325864  16.724  32.868  15.631  0.3766  0.1238 -0.0822
 2205DOPE   PO425865  16.509  32.648  15.484  0.0198 -0.2595  0.1489
 2205DOPE   GL125866  16.377  32.749  15.142  0.0169 -0.0343 -0.1162
 2205DOPE   GL225867  16.547  32.554  14.955  0.0446 -0.0938  0.0309
 2205DOPE   C1A25868  16.023  32.598  14.854  0.2911  0.2076 -0.2428
 2205DOPE   D2A25869  16.027  32.638  14.415  0.4407  0.0543  0.1015
 2205DOPE   C3A25870  16.501  32.660  14.373  0.0927  0.0884  0.2037
 2205DOPE   C4A25871  16.913  32.412  14.443  0.0121 -0.0322  0.0740
 2205DOPE   C1B25872  16.422  32.244  14.702 -0.1351 -0.2987 -0.1216
 2205DOPE   D2B25873  16.142  32.094  14.352 -0.2891 -0.3001 -0.0663
 2205DOPE   C3B25874  16.151  32.110  13.910 -0.1266  0.0159  0.3028
 2205DOPE   C4B25875  16.079  32.215  13.527 -0.1295  0.0460 -0.0404
 2206POSM   NC325876  19.335  31.565  15.589  0.2855 -0.0641 -0.0651
 2206POSM   PO425877  19.254  31.982  15.751  0.2901  0.1534 -0.0766
 2206POSM   AM125878  19.350  32.020  15.432  0.0552  0.2002 -0.2910
 2206POSM   AM225879  19.588  32.102  15.316  0.2897  0.1120 -0.0981
 2206POSM   T1A25880  19.147  31.802  14.988  0.3413 -0.1164 -0.0067
 2206POSM   C2A25881  19.034  31.503  14.620  0.0431 -0.0258 -0.0378
 2206POSM   C3A25882  18.998  31.306  14.174  0.3517 -0.1342  0.0301
 2206POSM   C1B25883  19.739  32.014  15.050  0.3177 -0.1644 -0.1419
 2206POSM   D2B25884  19.950  31.803  14.700 -0.0354  0.1614  0.0250
 2206POSM   C3B25885  20.217  31.571  14.374  0.1970 -0.1437  0.1715
 2206POSM   C4B25886  20.381  31.231  14.259  0.0316  0.2396 -0.1744
 2207DOPC   NC325887  20.730  28.859  16.423 -0.1124  0.0650  0.0564
 2207DOPC   PO425888  20.429  28.756  16.219 -0.1279  0.2416  0.1966
 2207DOPC   GL125889  20.192  28.496  15.951 -0.0195  0.4212 -0.2447
 2207DOPC   GL225890  20.404  28.245  15.875 -0.1343  0.0999 -0.1253
 2207DOPC   C1A25891  20.171  28.401  15.493 -0.0230 -0.0930 -0.0419
 2207DOPC   D2A25892  20.310  28.170  15.089  0.2356 -0.0558  0.0072
 2207DOPC   C3A25893  20.755  28.202  14.997 -0.6079 -0.2142  0.0485
 2207DOPC   C4A25894  21.209  28.160  15.043 -0.1461  0.1029  0.1623
 2207DOPC   C1B25895  20.351  27.934  15.499  0.0198  0.2609  0.3332
 2207DOPC   D2B25896  20.488  27.635  15.125 -0.1618 -0.4501 -0.2405
 2207DOPC   C3B25897  20.554  27.780  14.738  0.0778 -0.4364  0.1805
 2207DOPC   C4B25898  20.546  28.139  14.480 -0.1841 -0.1057  0.1160
 2208DOPE   NH325899  18.160  32.870  16.032  0.0188 -0.1013 -0.2078
 2208DOPE   PO425900  18.302  32.948  15.741  0.0217  0.0830 -0.1684
 2208DOPE   GL125901  18.463  33.088  15.404  0.2131  0.1094  0.0073
 2208DOPE   GL225902  18.741  33.285  15.291  0.0563 -0.0915  0.0601
 2208DOPE   C1A25903  18.370  33.064  14.909  0.3788  0.1131 -0.3311
 2208DOPE   D2A25904  18.575  32.913  14.540 -0.2621  0.1031 -0.1561
 2208DOPE   C3A25905  18.571  33.264  14.255  0.2447  0.0594 -0.0666
 2208DOPE   C4A25906  18.729  33.465  13.825 -0.2128 -0.0295  0.1769
 2208DOPE   C1B25907  18.818  33.748  15.348  0.2981  0.0367  0.0255
 2208DOPE   D2B25908  19.115  34.155  15.372  0.0593 -0.0367  0.6115
 2208DOPE   C3B25909  19.039  34.455  14.974 -0.0176 -0.0140 -0.0729
 2208DOPE   C4B25910  19.154  34.853  14.741 -0.2684  0.0558  0.0870
 2209POSM   NC325911  18.487  24.484  15.421 -0.3903  0.0008  0.0472
 2209POSM   PO425912  18.642  24.112  15.501  0.1382 -0.0036 -0.1120
 2209POSM   AM125913  18.662  23.933  15.243  0.1823  0.1413  0.3181
 2209POSM   AM225914  18.899  23.867  15.101 -0.1459  0.1622  0.1520
 2209POSM   T1A25915  18.510  23.522  14.968  0.1662 -0.0442  0.0938
 2209POSM   C2A25916  18.784  23.245  14.626 -0.1412  0.2907  0.1375
 2209POSM   C3A25917  18.743  23.114  14.154  0.0206  0.3492  0.1071
 2209POSM   C1B25918  18.901  23.813  14.779 -0.1763  0.0354 -0.0055
 2209POSM   D2B25919  18.685  23.682  14.418  0.0048  0.2652  0.1632
 2209POSM   C3B25920  18.328  23.924  14.242 -0.5076  0.1184  0.1245
 2209POSM   C4B25921  18.131  23.940  13.790 -0.3350  0.2771 -0.0177
 2210DOPE   NH325922  21.148  33.446  15.971 -0.1942 -0.1582 -0.4288
 2210DOPE   PO425923  21.113  33.186  15.812  0.1546 -0.1561 -0.0794
 2210DOPE   GL125924  20.987  33.236  15.517 -0.0669 -0.2133 -0.5887
 2210DOPE   GL225925  21.241  33.442  15.379  0.1294  0.0961 -0.3564
 2210DOPE   C1A25926  20.657  33.327  15.171 -0.3556 -0.0926  0.0376
 2210DOPE   D2A25927  20.420  33.396  14.816  0.1092 -0.0044  0.0473
 2210DOPE   C3A25928  20.589  33.381  14.367 -0.1017  0.1889 -0.1348
 2210DOPE   C4A25929  20.705  33.479  13.961  0.2478 -0.2868  0.0074
 2210DOPE   C1B25930  21.170  33.402  14.905 -0.0088 -0.3418 -0.3064
 2210DOPE   D2B25931  20.860  33.133  14.737  0.1858  0.1850 -0.0211
 2210DOPE   C3B25932  20.890  32.734  14.529 -0.0983  0.1749  0.3926
 2210DOPE   C4B25933  20.857  32.589  14.098  0.0400  0.1523  0.1004
 2211DOPE   NH325934  12.806  26.755  15.201  0.0422  0.0972  0.2046
 2211DOPE   PO425935  12.800  26.839  14.896 -0.0518  0.2423  0.2242
 2211DOPE   GL125936  12.589  27.085  14.618  0.1149 -0.0894  0.2700
 2211DOPE   GL225937  12.454  26.793  14.538  0.0701 -0.1939 -0.0441
 2211DOPE   C1A25938  12.480  27.437  14.318  0.2884  0.2109  0.1146
 2211DOPE   D2A25939  12.239  27.684  14.058  0.1152 -0.0727 -0.1469
 2211DOPE   C3A25940  12.016  27.817  13.709 -0.0685  0.1784  0.5115
 2211DOPE   C4A25941  11.795  27.815  13.292  0.2659  0.0283 -0.2897
 2211DOPE   C1B25942  12.793  27.016  14.239  0.0228  0.1275  0.2054
 2211DOPE   D2B25943  13.189  26.996  13.997  0.0621  0.1718 -0.0040
 2211DOPE   C3B25944  13.284  26.761  13.597 -0.1520  0.3365 -0.2392
 2211DOPE   C4B25945  13.431  26.969  13.252  0.2026 -0.1156  0.1196
 2212DOPE   NH325946  20.751  29.825  16.383  0.1263  0.1370 -0.1711
 2212DOPE   PO425947  20.485  29.792  16.211 -0.1076  0.1863  0.3042
 2212DOPE   GL125948  20.643  29.807  15.787  0.2342  0.2300 -0.0687
 2212DOPE   GL225949  20.683  29.540  15.606  0.3362 -0.1379  0.2043
 2212DOPE   C1A25950  20.453  30.056  15.408 -0.1474 -0.4493  0.0352
 2212DOPE   D2A25951  20.187  30.008  15.013 -0.2502 -0.1339 -0.2596
 2212DOPE   C3A25952  19.911  30.343  14.822  0.0111  0.0035 -0.0521
 2212DOPE   C4A25953  19.579  30.222  14.493 -0.0064 -0.2401  0.2182
 2212DOPE   C1B25954  20.720  29.663  15.168  0.2031  0.1726  0.1873
 2212DOPE   D2B25955  20.763  29.732  14.679  0.1932 -0.0921 -0.0865
 2212DOPE   C3B25956  20.418  29.943  14.600  0.1323  0.2461 -0.0336
 2212DOPE   C4B25957  20.408  30.396  14.724 -0.1027  0.0778  0.0306
 2213DOPE   NH325958  13.823  24.863  15.070  0.1694  0.0081 -0.2789
 2213DOPE   PO425959  13.570  24.847  15.221  0.1464  0.2074 -0.0673
 2213DOPE   GL125960  13.380  24.711  14.837 -0.2108  0.2288 -0.1328
 2213DOPE   GL225961  13.580  24.871  14.652  0.2219 -0.3004  0.1596
 2213DOPE   C1A25962  13.183  24.515  14.448 -0.0898 -0.1098 -0.0115
 2213DOPE   D2A25963  12.739  24.319  14.331  0.1693 -0.2368 -0.3161
 2213DOPE   C3A25964  12.632  23.951  14.619  0.0453  0.0767  0.3033
 2213DOPE   C4A25965  12.699  23.572  14.871 -0.0059 -0.0129 -0.2136
 2213DOPE   C1B25966  13.681  24.509  14.572  0.3794 -0.1993  0.0973
 2213DOPE   D2B25967  13.739  24.155  14.305 -0.0963 -0.0507 -0.0872
 2213DOPE   C3B25968  13.548  23.910  14.026  0.1954 -0.0385  0.0521
 2213DOPE   C4B25969  13.349  24.109  13.648  0.1153  0.1137  0.0344
 2214POSM   NC325970  21.302  25.198  15.614 -0.0761  0.1771 -0.1084
 2214POSM   PO425971  20.971  25.018  15.702 -0.2318  0.3204  0.2036
 2214POSM   AM125972  20.868  25.187  15.424  0.3991  0.5546 -0.3123
 2214POSM   AM225973  20.647  25.348  15.378 -0.2314  0.0595  0.0602
 2214POSM   T1A25974  21.058  25.413  15.035 -0.1126 -0.0752  0.0163
 2214POSM   C2A25975  20.935  25.852  14.822 -0.1254  0.0216  0.0829
 2214POSM   C3A25976  20.839  26.351  14.761 -0.1418  0.0643 -0.3612
 2214POSM   C1B25977  20.638  25.638  15.246 -0.0432 -0.1069 -0.1265
 2214POSM   D2B25978  20.439  25.977  14.990 -0.1809 -0.2168 -0.2686
 2214POSM   C3B25979  20.575  25.971  14.506 -0.1520 -0.1238  0.0692
 2214POSM   C4B25980  20.984  25.997  14.371  0.1064 -0.1837  0.0412
 2215DOPE   NH325981  20.335  31.875  15.783  0.0986 -0.3234 -0.1781
 2215DOPE   PO425982  20.390  31.740  16.024  0.1407 -0.2923 -0.2745
 2215DOPE   GL125983  20.670  31.554  15.855 -0.2606 -0.0951  0.0163
 2215DOPE   GL225984  20.861  31.770  15.713  0.1481  0.2253 -0.0829
 2215DOPE   C1A25985  20.952  31.350  15.495 -0.0196 -0.2270 -0.1450
 2215DOPE   D2A25986  21.200  30.982  15.485 -0.2301  0.2557  0.0375
 2215DOPE   C3A25987  20.929  30.664  15.512 -0.1487  0.0439  0.3587
 2215DOPE   C4A25988  20.486  30.582  15.482  0.0356  0.1810 -0.2177
 2215DOPE   C1B25989  21.040  31.885  15.312  0.2421 -0.1422  0.0432
 2215DOPE   D2B25990  21.348  31.893  14.970  0.0149 -0.3256 -0.0616
 2215DOPE   C3B25991  21.246  31.701  14.586  0.1531 -0.1963  0.2521
 2215DOPE   C4B25992  21.481  31.693  14.152  0.0987  0.1424  0.2136
 2216DOPE   NH325993  20.548  33.882  16.399 -0.0179  0.1237 -0.0467
 2216DOPE   PO425994  20.777  33.978  16.136 -0.1536  0.2444  0.0489
 2216DOPE   GL125995  20.901  34.143  15.787 -0.3080  0.0045 -0.0415
 2216DOPE   GL225996  21.102  34.007  15.578 -0.0526 -0.0628  0.2662
 2216DOPE   C1A25997  20.704  34.167  15.351  0.2105  0.2842  0.0008
 2216DOPE   D2A25998  20.799  34.200  14.957  0.0525  0.2310  0.0392
 2216DOPE   C3A25999  21.153  33.992  14.683 -0.2282  0.0003  0.1062
 2216DOPE   C4A26000  21.413  34.058  14.284  0.0847 -0.1092  0.1689
 2216DOPE   C1B26001  21.366  34.207  15.267 -0.0824 -0.0341  0.1626
 2216DOPE   D2B26002  21.778  34.356  15.056  0.1729  0.1697  0.0391
 2216DOPE   C3B26003  21.681  34.715  14.780 -0.2438  0.1976 -0.1116
 2216DOPE   C4B26004  21.812  35.126  14.816 -0.2967  0.0370  0.0938
 2217POSM   NC326005  20.587  27.377  16.041 -0.2394 -0.2445  0.0837
 2217POSM   PO426006  20.271  27.205  16.122  0.2475  0.0756  0.1488
 2217POSM   AM126007  20.109  27.270  15.787 -0.0859  0.1371 -0.1660
 2217POSM   AM226008  20.276  27.419  15.608 -0.0439  0.2183 -0.4490
 2217POSM   T1A26009  19.882  27.002  15.452 -0.0999  0.0938 -0.0194
 2217POSM   C2A26010  19.816  27.213  15.001  0.0485  0.1788  0.1861
 2217POSM   C3A26011  20.088  27.251  14.594 -0.2475 -0.2866 -0.2722
 2217POSM   C1B26012  20.065  27.441  15.333  0.2368  0.1535  0.0564
 2217POSM   D2B26013  19.994  27.690  14.963  0.0789  0.0738 -0.1813
 2217POSM   C3B26014  19.932  27.830  14.526 -0.4701  0.0135  0.0358
 2217POSM   C4B26015  19.568  27.596  14.231 -0.0110  0.2442 -0.0429
 2218DOPC   NC326016  14.600  30.726  16.273  0.1356 -0.4016 -0.0476
 2218DOPC   PO426017  14.808  30.569  16.000 -0.3961 -0.2843  0.0723
 2218DOPC   GL126018  14.924  30.711  15.750  0.0014  0.2369 -0.4026
 2218DOPC   GL226019  15.247  30.780  15.840  0.3617 -0.0462  0.0764
 2218DOPC   C1A26020  14.823  30.563  15.286  0.1855  0.0534 -0.1631
 2218DOPC   D2A26021  14.525  30.507  14.936  0.2106  0.2705  0.1484
 2218DOPC   C3A26022  14.502  30.343  14.525 -0.0564  0.1189  0.0950
 2218DOPC   C4A26023  14.381  30.219  14.118 -0.3006  0.3973 -0.2054
 2218DOPC   C1B26024  15.204  30.886  15.405 -0.3357  0.1737 -0.1884
 2218DOPC   D2B26025  15.096  30.871  14.911  0.0443 -0.0032  0.1126
 2218DOPC   C3B26026  14.922  30.541  14.699  0.0437  0.0124  0.1481
 2218DOPC   C4B26027  14.899  30.544  14.210  0.0817  0.2502  0.1685
 2219DOPE   NH326028  13.197  25.861  15.086 -0.0719  0.0072  0.6590
 2219DOPE   PO426029  13.388  25.676  15.029 -0.1731  0.1418  0.1417
 2219DOPE   GL126030  13.516  25.955  14.716  0.0460 -0.2640 -0.1368
 2219DOPE   GL226031  13.768  26.054  14.787  0.2247 -0.1773 -0.2187
 2219DOPE   C1A26032  13.437  25.763  14.324  0.0141  0.3250 -0.2010
 2219DOPE   D2A26033  13.287  25.554  13.935  0.1022 -0.0070  0.0386
 2219DOPE   C3A26034  13.251  25.855  13.578 -0.4311  0.0318 -0.0133
 2219DOPE   C4A26035  13.343  25.942  13.124 -0.3051  0.2240 -0.3124
 2219DOPE   C1B26036  13.650  26.286  14.407 -0.0943 -0.0349  0.0177
 2219DOPE   D2B26037  13.898  26.442  14.046 -0.0678 -0.0778  0.1157
 2219DOPE   C3B26038  14.087  26.165  13.740  0.0755 -0.3541  0.1808
 2219DOPE   C4B26039  14.284  26.243  13.287 -0.0999 -0.2484 -0.1050
 2220DOPC   NC326040  23.024  29.036  15.887  0.0200 -0.2105 -0.0381
 2220DOPC   PO426041  22.848  28.704  15.911  0.1044  0.3033  0.1666
 2220DOPC   GL126042  22.615  28.549  15.629  0.0330 -0.0100 -0.0103
 2220DOPC   GL226043  22.869  28.382  15.506 -0.2364  0.0082  0.4424
 2220DOPC   C1A26044  22.400  28.487  15.255 -0.0715 -0.3388  0.1407
 2220DOPC   D2A26045  22.418  28.472  14.752  0.0277 -0.0272 -0.2900
 2220DOPC   C3A26046  22.400  28.091  14.472  0.0173  0.0830  0.0139
 2220DOPC   C4A26047  22.419  27.918  14.031  0.1918 -0.1927  0.0556
 2220DOPC   C1B26048  22.966  28.486  15.128 -0.1536 -0.1366 -0.0732
 2220DOPC   D2B26049  23.253  28.385  14.785 -0.1324  0.1024  0.2237
 2220DOPC   C3B26050  22.882  28.419  14.531 -0.2184 -0.1746 -0.1010
 2220DOPC   C4B26051  22.684  28.331  14.131 -0.1346  0.2818  0.0450
 2221POSM   NC326052  12.988  23.525  15.600 -0.2342  0.0140  0.0114
 2221POSM   PO426053  13.171  23.817  15.531 -0.0821 -0.0192 -0.0727
 2221POSM   AM126054  13.074  23.766  15.226 -0.3078 -0.1367  0.0567
 2221POSM   AM226055  13.264  23.630  15.064  0.0294 -0.4014  0.3188
 2221POSM   T1A26056  13.050  24.042  14.824  0.4081  0.2734  0.2132
 2221POSM   C2A26057  13.111  24.040  14.371 -0.2648 -0.0836  0.0473
 2221POSM   C3A26058  12.899  24.043  13.964  0.2535 -0.0767  0.1463
 2221POSM   C1B26059  13.162  23.501  14.741  0.1874 -0.0367  0.1600
 2221POSM   D2B26060  12.958  23.606  14.369 -0.0942  0.0590 -0.2408
 2221POSM   C3B26061  13.191  23.625  14.005  0.1675  0.1762  0.1716
 2221POSM   C4B26062  13.463  23.661  13.618  0.0010 -0.1044 -0.0809
 2222DOPE   NH326063  19.631  25.379  15.275 -0.3851 -0.1420 -0.1187
 2222DOPE   PO426064  19.718  25.654  15.481 -0.0452  0.2963  0.0278
 2222DOPE   GL126065  19.463  25.834  15.200 -0.0892 -0.1559 -0.1496
 2222DOPE   GL226066  19.636  26.022  15.176 -0.0391 -0.0184  0.2946
 2222DOPE   C1A26067  19.537  25.725  14.761 -0.2003 -0.2532 -0.1689
 2222DOPE   D2A26068  19.642  25.837  14.322 -0.3398  0.0503  0.1634
 2222DOPE   C3A26069  19.919  25.822  13.965 -0.0005  0.1605  0.0105
 2222DOPE   C4A26070  20.240  25.858  13.620  0.1421  0.3346 -0.0119
 2222DOPE   C1B26071  19.907  26.153  14.840 -0.2271  0.2959 -0.0753
 2222DOPE   D2B26072  20.073  26.130  14.434 -0.1549  0.0099 -0.1244
 2222DOPE   C3B26073  19.926  26.393  14.068 -0.3617  0.5988 -0.1081
 2222DOPE   C4B26074  19.793  26.715  13.788  0.1282 -0.2122  0.1225
 2223DOPE   NH326075  22.301  27.304  16.263 -0.0814  0.2770 -0.1193
 2223DOPE   PO426076  22.042  27.095  16.164  0.0758 -0.1928  0.0638
 2223DOPE   GL126077  21.895  27.016  15.759  0.0692  0.3659 -0.0233
 2223DOPE   GL226078  21.997  26.787  15.612  0.0526  0.0313 -0.3447
 2223DOPE   C1A26079  22.098  27.171  15.381  0.1733 -0.3107 -0.1099
 2223DOPE   D2A26080  22.378  27.071  14.998 -0.0592 -0.1150 -0.0088
 2223DOPE   C3A26081  22.724  27.016  14.603  0.1828 -0.1747  0.1240
 2223DOPE   C4A26082  23.143  27.164  14.595  0.0469 -0.0426 -0.3280
 2223DOPE   C1B26083  21.623  26.878  15.244 -0.0085  0.1322  0.2941
 2223DOPE   D2B26084  21.465  27.122  14.903 -0.2467  0.0329 -0.0343
 2223DOPE   C3B26085  21.307  26.790  14.557  0.2054 -0.1686  0.1651
 2223DOPE   C4B26086  20.947  26.789  14.261 -0.0877 -0.1106  0.0313
 2224POSM   NC326087  15.142  24.860  15.465 -0.0919 -0.1272  0.0325
 2224POSM   PO426088  15.350  24.563  15.614 -0.0767  0.3151 -0.0389
 2224POSM   AM126089  15.454  24.427  15.349  0.2522  0.0263 -0.2543
 2224POSM   AM226090  15.666  24.464  15.145  0.0199  0.3661 -0.1371
 2224POSM   T1A26091  15.320  24.415  14.863  0.4049  0.2170 -0.2085
 2224POSM   C2A26092  15.339  24.565  14.419 -0.2386 -0.2735 -0.0843
 2224POSM   C3A26093  15.328  24.478  13.989 -0.1675  0.3343  0.1122
 2224POSM   C1B26094  15.879  24.232  14.952 -0.2021 -0.2167  0.0747
 2224POSM   D2B26095  15.886  23.889  14.658  0.2342 -0.4679  0.3613
 2224POSM   C3B26096  15.628  23.596  14.517 -0.2290  0.1935 -0.2659
 2224POSM   C4B26097  15.601  23.517  14.080 -0.0162  0.2847 -0.1574
 2225DOPS   CNO26098  18.900  24.893  15.260 -0.1552  0.0362  0.1311
 2225DOPS   PO426099  19.169  25.162  15.316 -0.0063 -0.2388 -0.2919
 2225DOPS   GL126100  19.169  25.073  14.887 -0.2537 -0.1375  0.1829
 2225DOPS   GL226101  19.321  25.164  14.814  0.0270  0.1476  0.1443
 2225DOPS   C1A26102  18.823  25.144  14.622  0.2654  0.0859  0.0525
 2225DOPS   D2A26103  18.672  24.880  14.235  0.0538  0.5152  0.1840
 2225DOPS   C3A26104  18.530  25.036  13.799  0.1853 -0.3465  0.0812
 2225DOPS   C4A26105  18.663  25.352  13.468 -0.0432 -0.1177 -0.1289
 2225DOPS   C1B26106  19.247  25.240  14.335 -0.2139  0.0069 -0.3836
 2225DOPS   D2B26107  19.382  25.464  13.934 -0.0569 -0.2049  0.2534
 2225DOPS   C3B26108  19.610  25.605  13.574  0.0151  0.0563  0.0144
 2225DOPS   C4B26109  19.810  25.818  13.186 -0.0825 -0.0609  0.0775
 2226DOPC   NC326110  15.623  33.418  15.255 -0.0752 -0.1082 -0.3301
 2226DOPC   PO426111  15.357  33.520  15.546  0.0303 -0.0941  0.0376
 2226DOPC   GL126112  15.053  33.388  15.261  0.4296 -0.0005 -0.3213
 2226DOPC   GL226113  14.731  33.429  15.254 -0.2627 -0.0281 -0.0528
 2226DOPC   C1A26114  15.028  33.105  14.852  0.1465 -0.2629  0.1198
 2226DOPC   D2A26115  14.823  32.863  14.553 -0.1964 -0.0305  0.0082
 2226DOPC   C3A26116  14.681  32.917  14.061 -0.0359  0.1253  0.1274
 2226DOPC   C4A26117  14.797  32.756  13.684  0.0848 -0.0912  0.3159
 2226DOPC   C1B26118  14.646  33.567  14.731 -0.0520  0.4589  0.0424
 2226DOPC   D2B26119  14.702  33.811  14.290 -0.1166  0.1683  0.0486
 2226DOPC   C3B26120  14.804  33.599  13.915  0.1047 -0.2683 -0.2453
 2226DOPC   C4B26121  14.607  33.293  13.649 -0.1641 -0.6052  0.0235
 2227POSM   NC326122  17.684  29.121  16.345 -0.0819 -0.2517 -0.0450
 2227POSM   PO426123  17.302  29.102  16.227 -0.0724 -0.1333 -0.0259
 2227POSM   AM126124  17.413  29.075  15.920 -0.0498  0.0958  0.0803
 2227POSM   AM226125  17.728  29.084  15.844  0.0639  0.0856  0.5742
 2227POSM   T1A26126  17.479  28.734  15.559  0.2365 -0.1831  0.0826
 2227POSM   C2A26127  17.647  28.571  15.118 -0.1188 -0.2913  0.1078
 2227POSM   C3A26128  17.731  28.196  14.832 -0.1058  0.1528  0.0000
 2227POSM   C1B26129  17.671  29.187  15.539 -0.1031 -0.0268 -0.0879
 2227POSM   D2B26130  17.470  29.091  15.148  0.1649 -0.2739 -0.2354
 2227POSM   C3B26131  17.409  28.844  14.796 -0.1648 -0.0643 -0.1324
 2227POSM   C4B26132  17.360  28.689  14.407 -0.2063 -0.2330 -0.3127
 2228DOPE   NH326133  18.752  25.196  15.658  0.1959 -0.0138 -0.0742
 2228DOPE   PO426134  18.636  24.865  15.726 -0.2575 -0.0590  0.1206
 2228DOPE   GL126135  18.420  24.922  15.437  0.3504 -0.0196 -0.0853
 2228DOPE   GL226136  18.153  24.937  15.312  0.0376  0.0118  0.2104
 2228DOPE   C1A26137  18.494  24.974  14.973 -0.2750 -0.2469 -0.1204
 2228DOPE   D2A26138  18.287  24.976  14.567 -0.2550 -0.3389  0.0547
 2228DOPE   C3A26139  18.212  25.180  14.158  0.0513  0.1068 -0.2498
 2228DOPE   C4A26140  18.227  25.453  13.761  0.1054  0.0230  0.2257
 2228DOPE   C1B26141  17.941  25.059  14.930 -0.1065 -0.1910  0.2113
 2228DOPE   D2B26142  17.573  25.053  14.656 -0.0912 -0.3005  0.0351
 2228DOPE   C3B26143  17.332  25.370  14.391 -0.4509  0.1833  0.1579
 2228DOPE   C4B26144  17.352  25.666  14.098  0.0671 -0.0704  0.1242
 2229DOPS   CNO26145  17.142  23.092  14.964  0.2630 -0.0216  0.0021
 2229DOPS   PO426146  17.204  23.187  15.294 -0.1800  0.0636 -0.1313
 2229DOPS   GL126147  17.443  23.468  15.148 -0.2534  0.1489  0.1461
 2229DOPS   GL226148  17.332  23.763  15.157 -0.3754  0.0813  0.4305
 2229DOPS   C1A26149  17.543  23.431  14.722 -0.4959 -0.0018  0.1262
 2229DOPS   D2A26150  17.253  23.254  14.341 -0.3256  0.1523 -0.1308
 2229DOPS   C3A26151  17.267  23.325  13.900  0.0139  0.2326  0.2178
 2229DOPS   C4A26152  17.211  23.480  13.475  0.4728  0.0195 -0.1466
 2229DOPS   C1B26153  17.082  23.634  14.782 -0.1597  0.0446  0.1040
 2229DOPS   D2B26154  16.834  23.422  14.562  0.0092  0.0841 -0.0900
 2229DOPS   C3B26155  16.933  23.671  14.140  0.1601  0.2145  0.1360
 2229DOPS   C4B26156  17.157  23.883  13.762  0.1762 -0.0295 -0.0532
 2230DOPS   CNO26157  17.624  32.509  15.467 -0.1129 -0.0295 -0.0753
 2230DOPS   PO426158  17.867  32.711  15.653  0.1375  0.0834 -0.1910
 2230DOPS   GL126159  18.019  32.548  15.317 -0.0889 -0.3381  0.1730
 2230DOPS   GL226160  17.987  32.319  15.228 -0.1840  0.2293 -0.0237
 2230DOPS   C1A26161  18.071  32.665  14.844 -0.2391  0.0081 -0.0877
 2230DOPS   D2A26162  18.058  32.979  14.506  0.0363 -0.3262  0.2143
 2230DOPS   C3A26163  17.725  33.196  14.630 -0.1863 -0.0105 -0.2937
 2230DOPS   C4A26164  17.266  33.339  14.780  0.1455  0.0844 -0.2764
 2230DOPS   C1B26165  17.829  32.077  14.871  0.1243  0.0620 -0.0494
 2230DOPS   D2B26166  17.476  31.743  14.762  0.0087 -0.1861 -0.4226
 2230DOPS   C3B26167  17.420  31.805  14.334  0.0434 -0.2947  0.0064
 2230DOPS   C4B26168  17.155  31.843  13.920 -0.0367  0.3970  0.0658
 2231DOPE   NH326169  22.315  23.490  15.267 -0.1751 -0.0867  0.0142
 2231DOPE   PO426170  22.521  23.260  15.340  0.0593  0.2599 -0.0399
 2231DOPE   GL126171  22.593  23.237  14.948  0.2737  0.2254 -0.0460
 2231DOPE   GL226172  22.771  22.947  14.800 -0.2044 -0.3679  0.1244
 2231DOPE   C1A26173  22.948  23.479  14.846  0.4183 -0.1941  0.1881
 2231DOPE   D2A26174  23.096  23.893  14.934 -0.2018 -0.2402  0.1856
 2231DOPE   C3A26175  23.286  24.225  14.784  0.0534 -0.2969  0.1352
 2231DOPE   C4A26176  23.167  24.446  14.370 -0.0285 -0.2254  0.0220
 2231DOPE   C1B26177  23.008  22.874  14.381 -0.1135 -0.1557  0.1207
 2231DOPE   D2B26178  23.030  22.840  13.906  0.1519 -0.0228  0.0197
 2231DOPE   C3B26179  22.966  22.461  13.614 -0.1953 -0.2094  0.2249
 2231DOPE   C4B26180  22.627  22.510  13.230 -0.0527 -0.1128 -0.2360
 2232DOPC   NC326181  18.097  26.233  15.906  0.3230 -0.2070  0.0985
 2232DOPC   PO426182  17.976  25.895  15.736  0.0297 -0.2808 -0.1461
 2232DOPC   GL126183  17.930  25.789  15.304  0.0531  0.2742 -0.1252
 2232DOPC   GL226184  17.817  25.505  15.404  0.0264 -0.4612  0.0218
 2232DOPC   C1A26185  18.078  26.004  14.904  0.0208 -0.1708 -0.0256
 2232DOPC   D2A26186  17.959  25.902  14.553 -0.1623  0.0724  0.0559
 2232DOPC   C3A26187  17.942  25.775  14.088  0.2173 -0.2068 -0.1149
 2232DOPC   C4A26188  17.675  25.789  13.694 -0.1310 -0.2479  0.2968
 2232DOPC   C1B26189  17.439  25.305  15.258 -0.0124  0.0119 -0.0194
 2232DOPC   D2B26190  17.109  25.333  14.908  0.2064 -0.0656  0.2766
 2232DOPC   C3B26191  16.968  25.755  14.966 -0.2684 -0.2467 -0.0702
 2232DOPC   C4B26192  16.575  25.886  15.229 -0.5755 -0.1930  0.1644
 2233DOPS   CNO26193  22.431  28.721  16.250  0.1688  0.2953 -0.0908
 2233DOPS   PO426194  22.307  28.739  15.909 -0.1725  0.4458  0.0385
 2233DOPS   GL126195  22.568  28.996  15.720  0.0038  0.0872 -0.0199
 2233DOPS   GL226196  22.393  29.150  15.562  0.1094  0.0526 -0.0085
 2233DOPS   C1A26197  22.724  28.944  15.269 -0.1810 -0.1931  0.1969
 2233DOPS   D2A26198  22.758  28.791  14.806  0.3903  0.0951 -0.0262
 2233DOPS   C3A26199  22.745  28.883  14.336 -0.1652 -0.0009 -0.0110
 2233DOPS   C4A26200  23.016  28.690  13.968  0.1397  0.2606 -0.3384
 2233DOPS   C1B26201  22.504  29.437  15.259  0.1753 -0.0120 -0.0636
 2233DOPS   D2B26202  22.634  29.761  14.949  0.0337  0.2411 -0.0352
 2233DOPS   C3B26203  22.952  29.749  14.650  0.2427  0.1375  0.0564
 2233DOPS   C4B26204  23.088  29.922  14.267  0.1558 -0.1259  0.2779
 2234DOPE   NH326205  15.648  33.104  15.816  0.0095 -0.3725  0.2192
 2234DOPE   PO426206  15.628  33.005  15.522  0.1484  0.0181 -0.0233
 2234DOPE   GL126207  15.437  32.993  15.161  0.0363 -0.1153  0.0365
 2234DOPE   GL226208  15.190  32.974  15.281  0.0710 -0.0741 -0.0935
 2234DOPE   C1A26209  15.450  33.289  14.776  0.0319 -0.4810 -0.0256
 2234DOPE   D2A26210  15.227  33.096  14.389  0.0356  0.0547  0.2079
 2234DOPE   C3A26211  15.550  32.919  14.093 -0.0914 -0.0987  0.1076
 2234DOPE   C4A26212  15.751  32.733  13.763  0.4424 -0.1358 -0.0417
 2234DOPE   C1B26213  15.112  32.614  15.030 -0.1428  0.0252  0.0996
 2234DOPE   D2B26214  15.211  32.197  14.820  0.2589 -0.0470 -0.1251
 2234DOPE   C3B26215  14.964  31.890  14.535 -0.1037  0.4042 -0.0613
 2234DOPE   C4B26216  14.811  31.495  14.371 -0.2766 -0.1260 -0.4773
 2235DOPE   NH326217  19.744  31.400  16.070 -0.2479  0.3625 -0.1104
 2235DOPE   PO426218  19.898  31.395  15.796 -0.5348  0.1307 -0.0019
 2235DOPE   GL126219  20.265  31.466  15.586 -0.3775 -0.0047  0.3337
 2235DOPE   GL226220  20.328  31.199  15.621  0.2111 -0.0888  0.1730
 2235DOPE   C1A26221  20.591  31.656  15.278  0.0125  0.1083 -0.1696
 2235DOPE   D2A26222  20.930  31.560  14.967 -0.1546 -0.3026 -0.0036
 2235DOPE   C3A26223  21.050  31.107  15.056 -0.2235  0.1140  0.0609
 2235DOPE   C4A26224  20.768  30.713  15.013  0.0024  0.0259 -0.0588
 2235DOPE   C1B26225  20.437  31.133  15.213 -0.0567  0.1455 -0.0977
 2235DOPE   D2B26226  20.520  31.227  14.766  0.0520 -0.0717 -0.0599
 2235DOPE   C3B26227  20.836  30.931  14.515  0.1678  0.0817 -0.2056
 2235DOPE   C4B26228  20.808  30.849  14.039 -0.1223 -0.1309  0.2150
 2236DOPE   NH326229  18.931  27.953  16.864  0.0147 -0.0256 -0.1546
 2236DOPE   PO426230  18.892  27.803  16.598  0.1332  0.0724  0.1237
 2236DOPE   GL126231  18.780  27.865  16.159 -0.4337  0.2967  0.0010
 2236DOPE   GL226232  18.568  27.970  15.993 -0.0724  0.0415  0.2854
 2236DOPE   C1A26233  19.038  27.924  15.779 -0.1299 -0.5062  0.1234
 2236DOPE   D2A26234  19.220  27.991  15.267  0.0180 -0.2180 -0.0583
 2236DOPE   C3A26235  18.935  27.946  14.897 -0.0742 -0.0316  0.0807
 2236DOPE   C4A26236  18.848  27.812  14.435 -0.2835 -0.0003  0.1286
 2236DOPE   C1B26237  18.569  27.953  15.523 -0.1137  0.1980  0.0613
 2236DOPE   D2B26238  18.660  28.330  15.256  0.1160  0.5239 -0.2048
 2236DOPE   C3B26239  19.064  28.434  15.000  0.0178 -0.3588 -0.1354
 2236DOPE   C4B26240  19.094  28.694  14.645 -0.1113  0.3580  0.0729
 2237DOPC   NC326241  22.620  33.756  15.894  0.0712  0.0544  0.1651
 2237DOPC   PO426242  22.979  33.822  15.840  0.3375  0.0032 -0.0491
 2237DOPC   GL126243  23.027  34.118  15.542 -0.3785 -0.2122  0.0963
 2237DOPC   GL226244  23.235  34.377  15.627  0.0166 -0.3742  0.1462
 2237DOPC   C1A26245  22.811  34.085  15.089 -0.0849 -0.1708  0.1566
 2237DOPC   D2A26246  23.103  34.132  14.748  0.2221  0.0103  0.0059
 2237DOPC   C3A26247  23.238  33.885  14.369  0.0123  0.1937 -0.1780
 2237DOPC   C4A26248  23.388  33.498  14.146  0.5183 -0.0267  0.1295
 2237DOPC   C1B26249  23.090  34.403  15.245 -0.2390  0.0835  0.1305
 2237DOPC   D2B26250  22.727  34.543  14.902  0.1076  0.1259  0.2066
 2237DOPC   C3B26251  22.839  34.352  14.459 -0.0657 -0.2886 -0.0627
 2237DOPC   C4B26252  22.751  33.909  14.248 -0.1405 -0.0528 -0.0260
 2238POSM   NC326253  14.278  29.979  15.736 -0.0480 -0.0511  0.3053
 2238POSM   PO426254  14.428  29.655  15.843  0.2834 -0.2537  0.3371
 2238POSM   AM126255  14.303  29.462  15.560  0.0645  0.4085 -0.4691
 2238POSM   AM226256  14.072  29.289  15.545 -0.2981  0.0296  0.4977
 2238POSM   T1A26257  14.167  29.314  15.077 -0.2598 -0.0602  0.0328
 2238POSM   C2A26258  14.178  29.229  14.666  0.0689  0.2567  0.2888
 2238POSM   C3A26259  14.151  29.486  14.298 -0.2742 -0.1495  0.0908
 2238POSM   C1B26260  13.716  29.381  15.450  0.0734  0.0803  0.1921
 2238POSM   D2B26261  13.278  29.320  15.388  0.1913 -0.0555  0.1364
 2238POSM   C3B26262  13.084  29.043  15.089  0.1185 -0.1456 -0.1379
 2238POSM   C4B26263  12.837  29.059  14.712 -0.1606 -0.2735 -0.2107
 2239POSM   NC326264  11.645  32.455  15.820 -0.2327  0.0419 -0.0937
 2239POSM   PO426265  11.598  32.800  15.745  0.1902 -0.1736  0.3498
 2239POSM   AM126266  11.613  32.779  15.389  0.3451  0.0066  0.1324
 2239POSM   AM226267  11.565  32.589  15.219 -0.3777  0.2283  0.0195
 2239POSM   T1A26268  11.514  33.024  14.948  0.0278  0.1368  0.0273
 2239POSM   C2A26269  11.642  33.200  14.544 -0.1980  0.3347  0.0563
 2239POSM   C3A26270  11.593  33.040  14.112  0.0342  0.0228  0.0884
 2239POSM   C1B26271  11.583  32.398  14.901  0.1796 -0.0159  0.5559
 2239POSM   D2B26272  11.407  32.238  14.499  0.2842 -0.0642 -0.2599
 2239POSM   C3B26273  11.775  32.069  14.302  0.0701 -0.0837 -0.0608
 2239POSM   C4B26274  12.259  31.961  14.245 -0.1557  0.0594 -0.1871
 2240DOPC   NC326275  16.976  27.373  16.027  0.1732 -0.3698 -0.2604
 2240DOPC   PO426276  17.003  27.048  16.178  0.5161 -0.0636  0.0732
 2240DOPC   GL126277  17.275  26.996  15.909  0.2298  0.1865  0.0124
 2240DOPC   GL226278  17.404  27.276  15.845  0.2405  0.3793  0.4022
 2240DOPC   C1A26279  17.459  27.013  15.450 -0.1352  0.1583  0.1220
 2240DOPC   D2A26280  17.694  27.143  14.989 -0.0481  0.0631 -0.3552
 2240DOPC   C3A26281  17.417  27.160  14.638 -0.1714 -0.1377  0.7468
 2240DOPC   C4A26282  17.173  26.878  14.294  0.2164 -0.0989 -0.3459
 2240DOPC   C1B26283  17.234  27.570  15.607 -0.2427  0.0676  0.0212
 2240DOPC   D2B26284  17.102  27.784  15.245 -0.2237 -0.0506  0.0716
 2240DOPC   C3B26285  17.472  28.041  15.182 -0.1419  0.0238  0.0421
 2240DOPC   C4B26286  17.757  28.257  15.521  0.0938  0.1325  0.0401
 2241DOPC   NC326287  19.901  28.082  15.965  0.1003 -0.0627  0.2849
 2241DOPC   PO426288  19.679  28.116  16.266 -0.3735 -0.0329 -0.0609
 2241DOPC   GL126289  19.561  28.377  16.037  0.1526 -0.2756 -0.0330
 2241DOPC   GL226290  19.450  28.211  15.805  0.0574 -0.0905 -0.1497
 2241DOPC   C1A26291  19.775  28.583  15.683  0.0825 -0.0418  0.1866
 2241DOPC   D2A26292  20.044  28.868  15.453  0.2714 -0.1584  0.0573
 2241DOPC   C3A26293  20.283  28.684  15.100 -0.0059  0.2135 -0.0179
 2241DOPC   C4A26294  20.602  28.631  14.732  0.3044 -0.1266  0.0514
 2241DOPC   C1B26295  19.646  28.161  15.360 -0.3432  0.0279 -0.0023
 2241DOPC   D2B26296  19.814  28.540  15.153  0.1653  0.2849 -0.2306
 2241DOPC   C3B26297  19.531  28.601  14.820  0.3511  0.1234  0.0204
 2241DOPC   C4B26298  19.553  28.665  14.368 -0.0877 -0.3277 -0.0504
 2242DOPS   CNO26299  12.806  31.188  15.945 -0.0456 -0.0951  0.1473
 2242DOPS   PO426300  12.657  31.167  15.611  0.0990  0.0871 -0.1059
 2242DOPS   GL126301  12.764  31.401  15.317 -0.1866 -0.1718 -0.0495
 2242DOPS   GL226302  12.639  31.333  15.041 -0.1940  0.0876  0.0694
 2242DOPS   C1A26303  13.065  31.645  15.027  0.3313 -0.0309  0.0625
 2242DOPS   D2A26304  13.146  31.981  14.742 -0.0112 -0.0930  0.1065
 2242DOPS   C3A26305  13.185  31.974  14.276  0.0303 -0.1046  0.0608
 2242DOPS   C4A26306  13.347  32.213  14.002 -0.0057 -0.1052 -0.1266
 2242DOPS   C1B26307  12.928  31.391  14.630 -0.0585  0.0120 -0.0541
 2242DOPS   D2B26308  13.393  31.522  14.638  0.1185 -0.4418  0.3820
 2242DOPS   C3B26309  13.516  31.695  15.040 -0.0042  0.2935  0.0048
 2242DOPS   C4B26310  13.786  31.945  15.376 -0.0356 -0.0489  0.3906
 2243DOPE   NH326311  19.058  24.486  15.492  0.0033  0.0502  0.1693
 2243DOPE   PO426312  19.161  24.201  15.459  0.0429 -0.0473  0.0987
 2243DOPE   GL126313  19.085  24.329  15.079 -0.1046  0.0760 -0.7032
 2243DOPE   GL226314  18.791  24.346  15.081 -0.2070 -0.2236  0.1279
 2243DOPE   C1A26315  19.132  24.573  14.736  0.0689  0.1819 -0.1453
 2243DOPE   D2A26316  19.170  24.709  14.301 -0.0034 -0.0132 -0.0964
 2243DOPE   C3A26317  19.242  24.873  13.883  0.2529 -0.0995  0.1644
 2243DOPE   C4A26318  19.365  25.097  13.458 -0.0904  0.3276  0.0835
 2243DOPE   C1B26319  18.659  24.630  14.671 -0.1009  0.0539 -0.2261
 2243DOPE   D2B26320  18.306  24.489  14.373 -0.1316 -0.0182 -0.0498
 2243DOPE   C3B26321  18.178  24.663  13.978 -0.1777 -0.3192  0.1735
 2243DOPE   C4B26322  17.893  24.874  13.699  0.1802  0.1178  0.2616
 2244DOPS   CNO26323  21.675  28.107  16.187 -0.3412 -0.1493  0.3283
 2244DOPS   PO426324  21.407  27.893  16.014  0.0376  0.0497 -0.1477
 2244DOPS   GL126325  21.390  28.070  15.675  0.2157 -0.0850  0.1927
 2244DOPS   GL226326  21.177  27.891  15.489  0.2980  0.0421  0.0290
 2244DOPS   C1A26327  21.344  28.505  15.556  0.0669 -0.2137  0.0590
 2244DOPS   D2A26328  21.578  28.897  15.416 -0.0181 -0.0227 -0.0531
 2244DOPS   C3A26329  21.459  28.975  14.984 -0.1549 -0.1419  0.4199
 2244DOPS   C4A26330  21.834  28.906  14.726 -0.0099  0.0759 -0.2156
 2244DOPS   C1B26331  20.996  27.695  15.086  0.2461  0.2329 -0.1127
 2244DOPS   D2B26332  20.959  27.247  14.926 -0.0434  0.0441 -0.1234
 2244DOPS   C3B26333  21.101  27.270  14.524  0.0627 -0.0150  0.2597
 2244DOPS   C4B26334  21.272  27.572  14.217  0.0531  0.0028  0.3417
 2245DOPE   NH326335  22.389  26.318  12.446  0.2697 -0.0608 -0.0410
 2245DOPE   PO426336  22.626  26.429  12.199 -0.0503 -0.2795 -0.2166
 2245DOPE   GL126337  22.625  25.964  12.269 -0.1362 -0.0061  0.0203
 2245DOPE   GL226338  22.406  25.904  12.105 -0.1505 -0.0684 -0.1603
 2245DOPE   C1A26339  22.802  25.541  12.313  0.1127  0.4317  0.4008
 2245DOPE   D2A26340  22.757  25.106  12.090 -0.0739 -0.0800 -0.0544
 2245DOPE   C3A26341  22.884  24.650  12.092  0.3504 -0.2845 -0.0055
 2245DOPE   C4A26342  23.097  24.212  12.138 -0.1707 -0.3552 -0.2740
 2245DOPE   C1B26343  22.638  25.514  11.856  0.3192 -0.1388 -0.3430
 2245DOPE   D2B26344  22.920  25.247  11.607  0.1910  0.2809  0.0747
 2245DOPE   C3B26345  23.233  25.084  11.889 -0.1910  0.0420 -0.3652
 2245DOPE   C4B26346  23.488  24.777  12.052  0.2098 -0.0954 -0.5372
 2246DOPS   CNO26347  13.509  27.395  11.711 -0.2115 -0.5355  0.0096
 2246DOPS   PO426348  13.621  27.109  11.907 -0.1298 -0.0270 -0.1483
 2246DOPS   GL126349  13.740  26.954  12.252 -0.1164 -0.1499 -0.3723
 2246DOPS   GL226350  13.471  26.904  12.353  0.1825 -0.1714  0.2995
 2246DOPS   C1A26351  14.073  26.774  12.531 -0.0806 -0.1532 -0.2744
 2246DOPS   D2A26352  14.383  26.451  12.641 -0.0687  0.3080  0.5340
 2246DOPS   C3A26353  14.166  26.103  12.826  0.0000 -0.0509  0.2524
 2246DOPS   C4A26354  13.852  25.749  12.977  0.3240 -0.0504  0.1194
 2246DOPS   C1B26355  13.039  26.821  12.318 -0.1102  0.2478  0.3759
 2246DOPS   D2B26356  12.643  26.849  12.552 -0.0804 -0.0386 -0.0892
 2246DOPS   C3B26357  12.288  26.536  12.558 -0.0859 -0.0946 -0.0327
 2246DOPS   C4B26358  12.037  26.189  12.394  0.3590 -0.4612 -0.2121
 2247DOPE   NH326359  20.459  25.226  12.080 -0.1418 -0.3129  0.2033
 2247DOPE   PO426360  20.747  25.372  12.267  0.1279  0.1004  0.2479
 2247DOPE   GL126361  20.887  25.388  12.711  0.0633  0.6321 -0.0651
 2247DOPE   GL226362  21.118  25.337  12.601  0.2003 -0.2466  0.1275
 2247DOPE   C1A26363  21.054  25.674  13.040  0.0074 -0.2822  0.0333
 2247DOPE   D2A26364  21.210  26.094  13.273  0.3376 -0.2566 -0.0814
 2247DOPE   C3A26365  21.399  26.253  13.661 -0.2200 -0.2355 -0.3042
 2247DOPE   C4A26366  21.280  26.495  14.046 -0.3292  0.0409 -0.0572
 2247DOPE   C1B26367  21.396  25.737  12.683  0.0810 -0.0639  0.2326
 2247DOPE   D2B26368  21.521  26.132  12.889  0.0066 -0.0571 -0.1490
 2247DOPE   C3B26369  21.663  26.032  13.313  0.1193 -0.0167 -0.2644
 2247DOPE   C4B26370  21.884  26.007  13.786 -0.1456  0.1708  0.2705
 2248DOPE   NH326371  21.800  23.971  12.044 -0.3076  0.0904 -0.0154
 2248DOPE   PO426372  21.707  24.120  12.353 -0.1147  0.0055 -0.0490
 2248DOPE   GL126373  21.627  24.520  12.408 -0.0007 -0.2973 -0.3285
 2248DOPE   GL226374  21.870  24.597  12.356 -0.3996  0.0348  0.1191
 2248DOPE   C1A26375  21.453  24.828  12.625  0.3350  0.2656 -0.2454
 2248DOPE   D2A26376  21.504  25.243  12.893 -0.2034 -0.1123 -0.1416
 2248DOPE   C3A26377  21.841  25.300  13.178  0.0828  0.0252  0.0843
 2248DOPE   C4A26378  21.982  25.624  13.488 -0.0142  0.3221  0.3225
 2248DOPE   C1B26379  22.033  24.999  12.159  0.1439  0.0653  0.0045
 2248DOPE   D2B26380  22.182  25.444  12.183  0.2451 -0.0525 -0.0458
 2248DOPE   C3B26381  21.901  25.653  12.493 -0.1197  0.0833  0.5446
 2248DOPE   C4B26382  21.976  25.692  12.969 -0.2542 -0.0685  0.1227
 2249DOPC   NC326383  21.180  25.180  12.158  0.0591 -0.1544  0.1269
 2249DOPC   PO426384  21.085  25.536  11.957 -0.0057  0.1433  0.1504
 2249DOPC   GL126385  21.465  25.588  12.221 -0.0164  0.0234  0.4648
 2249DOPC   GL226386  21.457  25.896  12.154  0.0437 -0.1525 -0.0952
 2249DOPC   C1A26387  21.696  25.226  12.466  0.0480 -0.2793  0.3962
 2249DOPC   D2A26388  21.973  24.983  12.754  0.1314 -0.0818 -0.1931
 2249DOPC   C3A26389  21.782  24.596  12.874 -0.0193  0.2086 -0.0373
 2249DOPC   C4A26390  21.442  24.269  13.024 -0.2250  0.2986  0.0395
 2249DOPC   C1B26391  21.747  26.067  12.477  0.2230 -0.0883  0.1077
 2249DOPC   D2B26392  21.913  26.348  12.715 -0.2451  0.0088 -0.3106
 2249DOPC   C3B26393  21.590  26.734  12.762  0.1997 -0.0644 -0.0325
 2249DOPC   C4B26394  21.165  26.980  12.775  0.0101 -0.3143  0.0631
 2250DOPC   NC326395  13.890  30.490  12.541  0.0920 -0.0654 -0.0209
 2250DOPC   PO426396  14.292  30.524  12.559 -0.3613  0.1084 -0.0768
 2250DOPC   GL126397  14.111  30.494  12.997 -0.2846 -0.1396  0.2350
 2250DOPC   GL226398  13.932  30.356  13.038  0.2540 -0.0320  0.1886
 2250DOPC   C1A26399  14.199  30.794  13.357 -0.1759  0.2348  0.6048
 2250DOPC   D2A26400  14.384  31.110  13.745 -0.0865 -0.1339 -0.3921
 2250DOPC   C3A26401  14.514  31.467  13.991  0.0173 -0.0487  0.2185
 2250DOPC   C4A26402  14.660  31.920  14.057  0.2075 -0.3178  0.1193
 2250DOPC   C1B26403  13.526  30.195  13.227 -0.3248 -0.0224  0.1108
 2250DOPC   D2B26404  13.370  30.244  13.643 -0.0151 -0.0258 -0.0760
 2250DOPC   C3B26405  13.525  30.548  13.917 -0.1392  0.0928 -0.1303
 2250DOPC   C4B26406  13.538  30.788  14.336 -0.0295  0.0963 -0.0507
 2251DOPE   NH326407  10.494  30.208  11.842 -0.3525 -0.3110  0.1723
 2251DOPE   PO426408  10.465  30.390  12.120 -0.1508 -0.1237 -0.1469
 2251DOPE   GL126409  10.876  30.499  12.201  0.0747  0.0947 -0.1069
 2251DOPE   GL226410  10.900  30.484  11.890  0.1843 -0.1582  0.2709
 2251DOPE   C1A26411  11.000  30.579  12.646 -0.1348 -0.1060 -0.1494
 2251DOPE   D2A26412  10.872  30.690  13.105 -0.1586  0.1755 -0.0619
 2251DOPE   C3A26413  10.942  31.133  13.298  0.1317  0.2155  0.6606
 2251DOPE   C4A26414  11.026  31.513  13.597  0.1694 -0.4107  0.2090
 2251DOPE   C1B26415  11.307  30.740  12.058  0.1032  0.1013 -0.0871
 2251DOPE   D2B26416  11.702  30.546  12.201  0.2012 -0.0352  0.1496
 2251DOPE   C3B26417  11.586  30.738  12.605  0.2044  0.0190 -0.1978
 2251DOPE   C4B26418  11.428  30.947  13.007 -0.1679  0.0130  0.1190
 2252DOPE   NH326419  23.250  33.059  12.230  0.1300 -0.0799  0.2162
 2252DOPE   PO426420  23.246  33.014  12.556 -0.2564  0.0479 -0.1243
 2252DOPE   GL126421  23.219  33.048  12.847 -0.0545 -0.1300 -0.3232
 2252DOPE   GL226422  23.039  32.796  12.950 -0.1245 -0.0524  0.4159
 2252DOPE   C1A26423  23.318  32.946  13.287  0.0111 -0.0087 -0.1526
 2252DOPE   D2A26424  23.176  33.006  13.748 -0.0451 -0.0342 -0.0958
 2252DOPE   C3A26425  23.347  32.945  14.190 -0.1469 -0.0109 -0.1536
 2252DOPE   C4A26426  23.656  33.202  14.456  0.2545  0.0301  0.0687
 2252DOPE   C1B26427  22.813  32.892  13.312 -0.1315 -0.2650  0.3340
 2252DOPE   D2B26428  22.645  32.631  13.655 -0.0372  0.2384 -0.0887
 2252DOPE   C3B26429  22.556  32.418  14.090 -0.1139  0.0584 -0.0233
 2252DOPE   C4B26430  22.656  32.343  14.529  0.0869  0.1205  0.3557
 2253DOPE   NH326431  18.166  28.830  12.457  0.0802 -0.0686 -0.2730
 2253DOPE   PO426432  18.399  28.917  12.567 -0.2632 -0.0838  0.2805
 2253DOPE   GL126433  18.575  29.062  12.961  0.4206 -0.2740  0.2125
 2253DOPE   GL226434  18.329  28.925  13.111 -0.0543  0.0251 -0.0712
 2253DOPE   C1A26435  18.682  29.322  13.357 -0.0646  0.0222  0.0061
 2253DOPE   D2A26436  18.976  29.298  13.703 -0.0354  0.0474  0.1307
 2253DOPE   C3A26437  19.191  29.231  14.105  0.0203  0.0579 -0.1489
 2253DOPE   C4A26438  19.395  29.111  14.471  0.1275 -0.0937 -0.1063
 2253DOPE   C1B26439  18.394  28.527  13.151 -0.3368 -0.0475 -0.0591
 2253DOPE   D2B26440  18.652  28.208  13.379  0.0734 -0.0219 -0.2259
 2253DOPE   C3B26441  18.899  28.332  13.734  0.1146 -0.3248 -0.0052
 2253DOPE   C4B26442  19.009  28.766  13.895 -0.3758 -0.0738  0.0866
 2254POSM   NC326443  13.645  31.217  12.271  0.1144  0.1697 -0.0580
 2254POSM   PO426444  13.510  30.932  12.492  0.2402  0.0793  0.0510
 2254POSM   AM126445  13.479  31.105  12.772  0.4430 -0.1333 -0.2284
 2254POSM   AM226446  13.244  31.177  12.940 -0.0008  0.0962  0.0235
 2254POSM   T1A26447  13.578  31.188  13.252 -0.4381 -0.0058  0.3400
 2254POSM   C2A26448  13.484  31.452  13.572  0.0033  0.1367  0.0475
 2254POSM   C3A26449  13.417  31.869  13.574  0.1451  0.1244 -0.0763
 2254POSM   C1B26450  13.122  31.346  13.240 -0.0014 -0.0550  0.1633
 2254POSM   D2B26451  12.915  31.484  13.592  0.1078 -0.1611 -0.0075
 2254POSM   C3B26452  12.457  31.540  13.459 -0.0683  0.0107  0.1369
 2254POSM   C4B26453  12.157  31.844  13.237 -0.4226 -0.3780  0.0940
 2255DOPE   NH326454  16.507  30.403  12.456  0.3113  0.0135 -0.0406
 2255DOPE   PO426455  16.162  30.403  12.433  0.2164  0.2091 -0.1272
 2255DOPE   GL126456  16.246  30.582  12.845 -0.0475  0.1906  0.3015
 2255DOPE   GL226457  16.015  30.421  12.926  0.3785 -0.0563 -0.0986
 2255DOPE   C1A26458  16.062  30.701  13.286  0.2572  0.1944 -0.1497
 2255DOPE   D2A26459  15.964  31.074  13.489  0.1703 -0.3376  0.0915
 2255DOPE   C3A26460  15.795  31.525  13.231 -0.0035 -0.1115 -0.0117
 2255DOPE   C4A26461  15.748  31.996  13.262  0.1105  0.1053 -0.0183
 2255DOPE   C1B26462  16.114  30.077  13.286  0.0721 -0.0129  0.2034
 2255DOPE   D2B26463  16.107  29.850  13.675  0.2094 -0.1363  0.1953
 2255DOPE   C3B26464  16.311  30.059  14.076 -0.2063  0.0190  0.2169
 2255DOPE   C4B26465  16.232  30.404  14.300 -0.1651  0.3439 -0.0642
 2256POSM   NC326466  19.565  30.126  12.500 -0.1866 -0.0016 -0.0904
 2256POSM   PO426467  19.907  30.364  12.447  0.2556  0.0401  0.1107
 2256POSM   AM126468  19.745  30.503  12.686 -0.0116 -0.0330 -0.2264
 2256POSM   AM226469  19.812  30.630  12.934 -0.1299  0.2676 -0.1961
 2256POSM   T1A26470  19.375  30.527  13.064  0.0108 -0.0626 -0.1586
 2256POSM   C2A26471  19.276  30.894  13.372  0.0404 -0.3587 -0.2080
 2256POSM   C3A26472  19.012  31.150  13.670 -0.1171  0.2658 -0.0331
 2256POSM   C1B26473  19.789  30.729  13.250  0.0327 -0.0205  0.2897
 2256POSM   D2B26474  19.784  30.785  13.657  0.1944  0.0963 -0.0065
 2256POSM   C3B26475  20.046  30.448  13.782 -0.0650  0.1781 -0.2665
 2256POSM   C4B26476  20.321  30.083  13.887  0.0203  0.1308 -0.0306
 2257POSM   NC326477  12.383  23.380  12.245 -0.1050  0.2960 -0.4610
 2257POSM   PO426478  11.999  23.317  12.134 -0.0625 -0.1784  0.0964
 2257POSM   AM126479  12.017  23.582  12.336  0.0860 -0.5155  0.1428
 2257POSM   AM226480  12.116  23.580  12.599 -0.1135  0.1555 -0.1844
 2257POSM   T1A26481  12.226  24.062  12.345 -0.2087 -0.1044 -0.2459
 2257POSM   C2A26482  12.289  24.456  12.489 -0.0247 -0.0307  0.0937
 2257POSM   C3A26483  12.195  24.789  12.813  0.0024  0.0673 -0.0778
 2257POSM   C1B26484  12.119  23.683  12.957  0.0019 -0.1530  0.1011
 2257POSM   D2B26485  12.051  23.845  13.354 -0.1167  0.1709  0.3648
 2257POSM   C3B26486  12.320  24.194  13.409 -0.3395 -0.2116 -0.1809
 2257POSM   C4B26487  12.543  24.494  13.687  0.0418 -0.0672  0.2735
 2258DOPC   NC326488  22.696  33.782  12.136  0.0262  0.1639 -0.3840
 2258DOPC   PO426489  22.298  33.780  11.963 -0.2080 -0.0047 -0.1717
 2258DOPC   GL126490  22.153  33.696  12.345 -0.0016  0.0239  0.1839
 2258DOPC   GL226491  21.914  33.865  12.326 -0.0360  0.2870 -0.3078
 2258DOPC   C1A26492  21.960  33.356  12.555  0.3711 -0.0646 -0.2458
 2258DOPC   D2A26493  22.314  33.161  12.710 -0.0642  0.2162  0.0881
 2258DOPC   C3A26494  22.316  33.316  13.169 -0.3425 -0.0821  0.0464
 2258DOPC   C4A26495  22.158  33.243  13.583  0.0721 -0.2460  0.3007
 2258DOPC   C1B26496  21.644  33.546  12.118  0.0827 -0.0813  0.4344
 2258DOPC   D2B26497  21.433  33.209  12.277 -0.0874 -0.0000 -0.0834
 2258DOPC   C3B26498  21.597  33.007  12.666 -0.0825  0.0584 -0.0294
 2258DOPC   C4B26499  21.403  32.674  12.874  0.3210  0.0226  0.1531
 2259DOPC   NC326500  19.316  30.778  12.633 -0.1030  0.1104 -0.1583
 2259DOPC   PO426501  19.439  30.623  12.276  0.2423  0.0781 -0.1003
 2259DOPC   GL126502  19.702  30.900  12.410  0.1728 -0.2028  0.1945
 2259DOPC   GL226503  19.946  30.834  12.225  0.4034 -0.0844 -0.0225
 2259DOPC   C1A26504  19.620  31.253  12.626 -0.2553  0.0867 -0.2095
 2259DOPC   D2A26505  19.626  31.680  12.837  0.0131  0.3127 -0.1575
 2259DOPC   C3A26506  19.904  31.650  13.225  0.1063  0.2654  0.2886
 2259DOPC   C4A26507  20.194  31.531  13.560 -0.3502  0.1992 -0.2775
 2259DOPC   C1B26508  19.990  31.298  12.061  0.3649  0.0976  0.2360
 2259DOPC   D2B26509  19.815  31.648  12.355  0.1279 -0.3050  0.0801
 2259DOPC   C3B26510  19.830  32.109  12.309 -0.2691 -0.0270 -0.0167
 2259DOPC   C4B26511  19.764  32.566  12.197 -0.2089  0.0704  0.2716
 2260DOPC   NC326512  14.586  28.438  11.951 -0.1505 -0.0000  0.2070
 2260DOPC   PO426513  14.390  28.492  12.250 -0.1303 -0.1500 -0.3480
 2260DOPC   GL126514  14.702  28.406  12.418 -0.2494 -0.1119 -0.0683
 2260DOPC   GL226515  14.874  28.590  12.465 -0.0431  0.0377  0.0484
 2260DOPC   C1A26516  14.973  28.005  12.545  0.1357 -0.1966  0.2621
 2260DOPC   D2A26517  15.117  27.661  12.868  0.1332 -0.1957  0.3136
 2260DOPC   C3A26518  15.473  27.376  12.928  0.2634  0.1494 -0.2624
 2260DOPC   C4A26519  15.872  27.284  13.194 -0.3761 -0.2621 -0.0472
 2260DOPC   C1B26520  15.268  28.469  12.158  0.0787 -0.0252  0.1997
 2260DOPC   D2B26521  15.717  28.390  12.058 -0.4981  0.0662  0.2252
 2260DOPC   C3B26522  15.922  28.127  12.332 -0.0796  0.2864  0.2611
 2260DOPC   C4B26523  16.226  27.924  12.650  0.1926 -0.0733 -0.0938
 2261DOPE   NH326524  18.452  23.966  11.616  0.1025 -0.2128 -0.0772
 2261DOPE   PO426525  18.607  23.793  11.851  0.0804 -0.1298  0.2095
 2261DOPE   GL126526  18.550  24.025  12.336  0.2143  0.1365  0.0175
 2261DOPE   GL226527  18.707  24.231  12.313  0.0799  0.0248 -0.0958
 2261DOPE   C1A26528  18.457  23.673  12.649  0.1543 -0.1711  0.0470
 2261DOPE   D2A26529  18.646  23.468  12.981 -0.2359  0.0799  0.3430
 2261DOPE   C3A26530  18.815  23.635  13.389 -0.1789  0.0723  0.0539
 2261DOPE   C4A26531  18.658  23.972  13.626  0.1196  0.1200 -0.0549
 2261DOPE   C1B26532  18.440  24.220  12.731 -0.1780 -0.1462  0.1182
 2261DOPE   D2B26533  18.149  24.422  13.025 -0.6365 -0.0927  0.0574
 2261DOPE   C3B26534  17.866  24.375  13.420 -0.0164  0.0111  0.0992
 2261DOPE   C4B26535  17.637  23.954  13.577 -0.5128 -0.0107  0.0351
 2262POSM   NC326536  17.395  23.608  12.094  0.2742  0.1027  0.3594
 2262POSM   PO426537  17.656  23.306  11.940  0.0860 -0.2128  0.1276
 2262POSM   AM126538  17.785  23.145  12.189 -0.0535 -0.4456  0.0131
 2262POSM   AM226539  18.006  23.248  12.320 -0.0808 -0.0749  0.1410
 2262POSM   T1A26540  17.681  22.967  12.634  0.2809 -0.2106 -0.1393
 2262POSM   C2A26541  17.345  22.662  12.810 -0.0148  0.0050  0.1090
 2262POSM   C3A26542  17.204  22.220  12.736  0.2446  0.0123 -0.3174
 2262POSM   C1B26543  18.226  23.193  12.588 -0.1732  0.0388  0.1198
 2262POSM   D2B26544  18.484  22.878  12.846 -0.1463  0.1717  0.0539
 2262POSM   C3B26545  18.896  22.921  12.901 -0.2882 -0.1090 -0.1048
 2262POSM   C4B26546  19.361  22.893  12.746 -0.0715  0.0110  0.0159
 2263DOPE   NH326547  12.477  33.185  11.954  0.0816  0.1766 -0.1074
 2263DOPE   PO426548  12.677  32.928  12.027  0.1218  0.2191  0.2889
 2263DOPE   GL126549  12.782  32.688  12.280  0.3982 -0.0200  0.0410
 2263DOPE   GL226550  13.169  32.612  12.173  0.0229  0.1442  0.1461
 2263DOPE   C1A26551  12.741  32.587  12.725 -0.1636 -0.3330 -0.0080
 2263DOPE   D2A26552  12.559  32.764  13.067  0.2383  0.1930 -0.2559
 2263DOPE   C3A26553  12.672  32.618  13.478  0.1571 -0.0751  0.0098
 2263DOPE   C4A26554  13.065  32.703  13.740 -0.1259 -0.2489 -0.0855
 2263DOPE   C1B26555  12.974  32.246  12.309 -0.0387  0.0122 -0.0554
 2263DOPE   D2B26556  12.975  31.834  12.525 -0.0566 -0.1127  0.3518
 2263DOPE   C3B26557  12.643  31.761  12.843  0.0371 -0.2939  0.2241
 2263DOPE   C4B26558  12.323  31.473  12.828  0.0675  0.0227  0.1115
 2264DOPC   NC326559  21.037  24.286  11.765 -0.0064 -0.0436  0.0114
 2264DOPC   PO426560  21.354  24.059  11.846  0.0526  0.2253  0.3537
 2264DOPC   GL126561  21.206  23.906  12.057 -0.1916  0.1250  0.4117
 2264DOPC   GL226562  21.301  23.682  12.272  0.0513 -0.2614  0.3425
 2264DOPC   C1A26563  20.793  23.820  12.127  0.0224  0.1326  0.1109
 2264DOPC   D2A26564  20.537  23.680  12.393 -0.1968 -0.0351 -0.0636
 2264DOPC   C3A26565  20.721  23.396  12.728 -0.1741  0.0248 -0.0354
 2264DOPC   C4A26566  20.539  23.025  12.966 -0.0280 -0.0906 -0.0533
 2264DOPC   C1B26567  21.080  23.815  12.689  0.2951 -0.0622  0.1562
 2264DOPC   D2B26568  20.766  23.898  12.989  0.0135 -0.0209 -0.3037
 2264DOPC   C3B26569  20.790  24.033  13.454  0.1846  0.0036  0.0798
 2264DOPC   C4B26570  20.905  24.102  13.871  0.1393  0.0452 -0.0666
 2265POSM   NC326571  19.309  23.487  11.461  0.0043 -0.0790  0.5265
 2265POSM   PO426572  18.914  23.653  11.468  0.1759 -0.0868 -0.0460
 2265POSM   AM126573  19.092  23.842  11.697 -0.0510 -0.2353  0.2028
 2265POSM   AM226574  19.013  24.017  11.938 -0.1248 -0.1631  0.0632
 2265POSM   T1A26575  19.476  24.096  11.860  0.0974  0.3488 -0.1799
 2265POSM   C2A26576  19.804  24.357  12.050  0.2356  0.0103 -0.0866
 2265POSM   C3A26577  20.018  24.773  11.986  0.0216 -0.0405 -0.3066
 2265POSM   C1B26578  19.136  23.820  12.203 -0.1068 -0.2133  0.2847
 2265POSM   D2B26579  19.379  23.791  12.564  0.1061  0.1938 -0.2345
 2265POSM   C3B26580  19.288  23.788  12.996  0.1675 -0.0131  0.4799
 2265POSM   C4B26581  19.457  23.934  13.363  0.1115  0.0324  0.1295
 2266DOPE   NH326582  20.710  30.044  12.086 -0.1756 -0.1478  0.0685
 2266DOPE   PO426583  20.889  29.805  12.239  0.1451 -0.1837  0.0167
 2266DOPE   GL126584  20.814  29.683  12.748 -0.1456  0.3281 -0.0719
 2266DOPE   GL226585  20.736  29.403  12.673  0.1190  0.0670  0.1220
 2266DOPE   C1A26586  20.628  29.716  13.179 -0.4318 -0.1180  0.3019
 2266DOPE   D2A26587  20.632  29.716  13.674 -0.2332 -0.3608 -0.2807
 2266DOPE   C3A26588  20.926  29.344  13.754  0.3914  0.0176  0.1245
 2266DOPE   C4A26589  20.865  28.944  13.905 -0.1087 -0.2782  0.0157
 2266DOPE   C1B26590  20.496  29.048  12.648 -0.4370  0.2159  0.3927
 2266DOPE   D2B26591  20.244  28.702  12.778 -0.1724  0.0808 -0.1813
 2266DOPE   C3B26592  20.198  28.695  13.278  0.1461 -0.2573  0.1885
 2266DOPE   C4B26593  20.390  28.685  13.703  0.2338 -0.0953  0.1697
 2267DOPE   NH326594  10.382  26.710  12.379 -0.1581 -0.0112  0.0927
 2267DOPE   PO426595  10.615  26.821  12.227 -0.5661 -0.0163  0.1330
 2267DOPE   GL126596  10.966  26.848  12.346 -0.0566 -0.0560  0.2363
 2267DOPE   GL226597  10.916  26.792  12.630  0.0604 -0.2362  0.0089
 2267DOPE   C1A26598  11.293  27.112  12.588 -0.0680  0.2995  0.0445
 2267DOPE   D2A26599  11.659  27.057  12.944 -0.1863 -0.1843  0.0474
 2267DOPE   C3A26600  11.889  27.401  13.034  0.1355  0.0558 -0.2234
 2267DOPE   C4A26601  12.210  27.711  12.872 -0.2131 -0.0682 -0.0726
 2267DOPE   C1B26602  11.365  26.635  12.508 -0.1768 -0.1815  0.0388
 2267DOPE   D2B26603  11.654  26.502  12.235 -0.1024  0.0441 -0.0789
 2267DOPE   C3B26604  11.657  26.191  11.873  0.3597 -0.0466  0.1784
 2267DOPE   C4B26605  11.660  26.060  11.374 -0.3618  0.1832 -0.1112
 2268DOPC   NC326606  15.804  30.154  12.167  0.0536  0.0809 -0.1487
 2268DOPC   PO426607  15.711  30.051  12.554 -0.1933  0.1038 -0.1458
 2268DOPC   GL126608  16.093  30.050  12.650 -0.3735  0.5525 -0.1697
 2268DOPC   GL226609  16.026  29.769  12.849  0.0472  0.1375  0.0011
 2268DOPC   C1A26610  16.444  30.036  12.971  0.2151 -0.0298 -0.0269
 2268DOPC   D2A26611  16.635  30.168  13.379  0.3777 -0.2066 -0.1467
 2268DOPC   C3A26612  16.591  30.648  13.470 -0.0824 -0.0185 -0.0378
 2268DOPC   C4A26613  16.513  31.141  13.588 -0.0785  0.0987 -0.1954
 2268DOPC   C1B26614  16.272  29.584  13.160 -0.2477  0.0783 -0.1357
 2268DOPC   D2B26615  16.446  29.473  13.534  0.0238  0.1158  0.2338
 2268DOPC   C3B26616  16.685  29.791  13.683  0.1351  0.0830  0.0026
 2268DOPC   C4B26617  16.741  30.256  13.827 -0.1020  0.0071 -0.0194
 2269DOPE   NH326618  14.050  30.982  12.544  0.1752 -0.1833 -0.0446
 2269DOPE   PO426619  13.913  30.867  12.799  0.1855  0.0018 -0.2459
 2269DOPE   GL126620  13.656  30.777  12.998  0.0469  0.2032 -0.1047
 2269DOPE   GL226621  13.482  30.598  12.962  0.2830 -0.1926  0.0133
 2269DOPE   C1A26622  13.677  30.702  13.437  0.0966  0.4364 -0.1330
 2269DOPE   D2A26623  13.845  30.854  13.816  0.0424 -0.0847  0.0874
 2269DOPE   C3A26624  13.621  31.167  14.008 -0.4611  0.2081  0.0008
 2269DOPE   C4A26625  13.646  31.662  14.103 -0.0828  0.2024  0.0832
 2269DOPE   C1B26626  13.186  30.811  13.241 -0.0889  0.1322 -0.1680
 2269DOPE   D2B26627  12.760  30.814  13.353  0.0261  0.0731  0.0796
 2269DOPE   C3B26628  12.528  30.747  13.754 -0.1183  0.4063  0.0278
 2269DOPE   C4B26629  12.204  30.736  14.061 -0.1363 -0.1144  0.1087
 2270POSM   NC326630  20.114  28.221  12.786 -0.0863  0.0055  0.2705
 2270POSM   PO426631  19.795  28.371  12.566  0.1433 -0.1587 -0.0262
 2270POSM   AM126632  19.719  28.552  12.831 -0.1310 -0.5165  0.2850
 2270POSM   AM226633  19.633  28.487  13.063  0.3475  0.3076  0.2534
 2270POSM   T1A26634  19.838  29.010  13.081  0.1578 -0.0344 -0.3380
 2270POSM   C2A26635  20.096  29.160  13.441 -0.0023  0.1405  0.2800
 2270POSM   C3A26636  20.282  29.217  13.868  0.2693 -0.4316 -0.2379
 2270POSM   C1B26637  19.692  28.627  13.326  0.0219  0.2204  0.0669
 2270POSM   D2B26638  19.932  28.506  13.749  0.1456 -0.1689  0.1982
 2270POSM   C3B26639  20.007  28.851  14.049  0.1858  0.2644  0.0526
 2270POSM   C4B26640  20.360  29.008  14.331  0.2689  0.0198  0.0014
 2271DOPC   NC326641  20.749  31.102  12.163 -0.0426 -0.1462  0.3397
 2271DOPC   PO426642  20.553  30.994  12.490  0.1606  0.1330  0.1347
 2271DOPC   GL126643  20.701  31.186  12.780 -0.5769 -0.0454 -0.1748
 2271DOPC   GL226644  20.538  31.059  13.036  0.3822 -0.0098 -0.0434
 2271DOPC   C1A26645  20.797  31.670  12.950  0.0595 -0.0654  0.1252
 2271DOPC   D2A26646  21.172  31.883  13.098  0.1487 -0.0455  0.1842
 2271DOPC   C3A26647  21.292  31.710  13.507 -0.0881 -0.1156 -0.3040
 2271DOPC   C4A26648  21.000  31.738  13.874  0.3317  0.0145 -0.0490
 2271DOPC   C1B26649  20.693  31.345  13.341  0.3379 -0.1651 -0.0435
 2271DOPC   D2B26650  20.603  31.785  13.414  0.1036  0.0203 -0.0518
 2271DOPC   C3B26651  20.925  32.132  13.450 -0.0932  0.0668  0.1483
 2271DOPC   C4B26652  21.052  32.506  13.663  0.0939  0.1520 -0.0760
 2272POSM   NC326653  18.927  33.826  12.724  0.1438 -0.1309 -0.0891
 2272POSM   PO426654  19.298  33.825  12.534  0.2385  0.0321 -0.2108
 2272POSM   AM126655  19.406  33.840  12.835  0.2573 -0.2885  0.2967
 2272POSM   AM226656  19.663  33.974  12.892 -0.2100 -0.1488  0.0612
 2272POSM   T1A26657  19.427  33.655  13.260 -0.1753  0.0356 -0.2948
 2272POSM   C2A26658  19.090  33.423  13.472 -0.0097 -0.0797 -0.0890
 2272POSM   C3A26659  19.102  32.985  13.597  0.1617 -0.0861  0.1577
 2272POSM   C1B26660  19.814  34.044  13.235 -0.0123  0.1460 -0.0921
 2272POSM   D2B26661  19.903  34.203  13.644  0.3145  0.0575  0.4314
 2272POSM   C3B26662  19.765  34.537  13.919 -0.0163  0.0107  0.1606
 2272POSM   C4B26663  19.530  34.730  14.267  0.2200 -0.0174  0.0782
 2273DOPE   NH326664  16.641  23.338  11.972 -0.0601 -0.0487 -0.2611
 2273DOPE   PO426665  16.937  23.353  12.073 -0.0234  0.0164  0.4247
 2273DOPE   GL126666  17.257  23.348  12.425  0.0153 -0.2984 -0.0053
 2273DOPE   GL226667  17.117  23.201  12.629  0.1050 -0.0926  0.0710
 2273DOPE   C1A26668  17.586  23.524  12.550  0.0290 -0.1134  0.0540
 2273DOPE   D2A26669  17.873  23.317  12.872 -0.0144 -0.0784 -0.0883
 2273DOPE   C3A26670  18.120  23.588  13.168 -0.0510 -0.1829 -0.1516
 2273DOPE   C4A26671  18.251  24.020  13.295  0.0930  0.2806 -0.0072
 2273DOPE   C1B26672  17.354  23.135  13.049  0.1124  0.0298 -0.0213
 2273DOPE   D2B26673  17.694  22.943  13.341  0.1686 -0.3552  0.1216
 2273DOPE   C3B26674  17.773  22.531  13.561 -0.0332 -0.1235 -0.1854
 2273DOPE   C4B26675  17.936  22.187  13.853 -0.0186  0.0663 -0.3506
 2274DOPC   NC326676  20.216  27.685  12.044 -0.0088 -0.0534  0.0971
 2274DOPC   PO426677  20.512  27.681  12.278 -0.0208 -0.0821  0.1273
 2274DOPC   GL126678  20.791  27.377  12.382  0.0118 -0.1129 -0.0634
 2274DOPC   GL226679  20.886  27.614  12.609 -0.3811 -0.0111 -0.1141
 2274DOPC   C1A26680  20.619  26.976  12.510 -0.1384  0.0007 -0.2854
 2274DOPC   D2A26681  20.740  26.625  12.814 -0.2383 -0.1133  0.1081
 2274DOPC   C3A26682  21.127  26.520  13.050 -0.0616 -0.0209  0.2671
 2274DOPC   C4A26683  21.530  26.615  13.289  0.0696  0.1023  0.0545
 2274DOPC   C1B26684  21.030  27.378  13.016  0.0404  0.0084 -0.0377
 2274DOPC   D2B26685  21.086  27.377  13.457 -0.0186 -0.2298 -0.0558
 2274DOPC   C3B26686  21.538  27.489  13.688 -0.0298  0.0510  0.2985
 2274DOPC   C4B26687  21.800  27.600  14.069 -0.0769  0.3484 -0.0047
 2275DOPE   NH326688  23.291  23.495  11.981 -0.1435  0.2566 -0.1059
 2275DOPE   PO426689  23.143  23.259  12.130  0.3084  0.0561 -0.2281
 2275DOPE   GL126690  23.034  23.468  12.450  0.0559 -0.1384 -0.0579
 2275DOPE   GL226691  22.858  23.624  12.344 -0.0307  0.0646  0.2996
 2275DOPE   C1A26692  23.350  23.848  12.518 -0.1396 -0.0240  0.1801
 2275DOPE   D2A26693  23.564  24.072  12.181 -0.1711 -0.0005  0.1967
 2275DOPE   C3A26694  23.882  24.457  12.258 -0.3924 -0.0301 -0.1752
 2275DOPE   C4A26695  24.205  24.538  11.928 -0.1171 -0.0308  0.0127
 2275DOPE   C1B26696  22.897  23.951  12.714  0.1321 -0.1268  0.0295
 2275DOPE   D2B26697  23.119  24.353  12.807 -0.2697 -0.0381  0.0866
 2275DOPE   C3B26698  23.422  24.723  12.997  0.0437 -0.0085 -0.0230
 2275DOPE   C4B26699  23.573  24.982  13.382 -0.1422  0.1395  0.2239
 2276POSM   NC326700  13.202  27.286  12.121  0.0495 -0.1521 -0.4823
 2276POSM   PO426701  13.038  27.620  11.965  0.1742 -0.1827 -0.3506
 2276POSM   AM126702  12.986  27.628  12.288  0.0477  0.1247  0.0140
 2276POSM   AM226703  13.018  27.810  12.507 -0.2536  0.2892  0.0708
 2276POSM   T1A26704  12.806  27.330  12.651 -0.2550 -0.4354  0.1578
 2276POSM   C2A26705  12.603  27.274  13.003  0.0517  0.0482  0.2177
 2276POSM   C3A26706  12.343  27.070  13.333  0.0011 -0.2001 -0.2562
 2276POSM   C1B26707  13.030  27.733  12.829  0.4277  0.0038  0.2196
 2276POSM   D2B26708  12.788  27.787  13.243  0.1583  0.0063 -0.0555
 2276POSM   C3B26709  13.191  27.521  13.302  0.3049 -0.0186 -0.1952
 2276POSM   C4B26710  13.440  27.292  13.631 -0.0433  0.2067 -0.0595
 2277DOPC   NC326711  18.800  29.807  12.171  0.1097 -0.3397  0.1019
 2277DOPC   PO426712  18.418  29.804  12.291  0.0549  0.1246  0.1633
 2277DOPC   GL126713  18.602  30.020  12.662  0.0218 -0.1130  0.2897
 2277DOPC   GL226714  18.839  29.834  12.635  0.0434  0.1889 -0.3787
 2277DOPC   C1A26715  18.536  30.245  13.048  0.0108  0.0163 -0.0945
 2277DOPC   D2A26716  18.352  30.454  13.501 -0.3722 -0.0501  0.1514
 2277DOPC   C3A26717  17.983  30.375  13.663  0.1634 -0.0149  0.1268
 2277DOPC   C4A26718  17.651  30.112  13.855  0.2187 -0.0336 -0.1971
 2277DOPC   C1B26719  19.174  29.721  12.920 -0.0782 -0.1824  0.0342
 2277DOPC   D2B26720  19.489  29.954  13.141  0.2884  0.2601  0.0938
 2277DOPC   C3B26721  19.679  29.910  13.601 -0.2355 -0.1154  0.2836
 2277DOPC   C4B26722  19.772  30.019  14.076 -0.0057  0.1380 -0.2540
 2278POSM   NC326723  19.773  25.689  12.071  0.0148 -0.5037 -0.1250
 2278POSM   PO426724  20.024  25.400  11.911 -0.1878  0.0464 -0.1349
 2278POSM   AM126725  19.842  25.261  12.131  0.2090 -0.1925 -0.4943
 2278POSM   AM226726  19.680  25.315  12.384  0.1025  0.1650  0.0904
 2278POSM   T1A26727  19.753  24.878  12.432  0.2396 -0.0606  0.0541
 2278POSM   C2A26728  19.468  24.538  12.631 -0.0202 -0.2300  0.2236
 2278POSM   C3A26729  19.560  24.277  12.938  0.1844 -0.2316  0.0188
 2278POSM   C1B26730  19.476  25.276  12.598  0.0526  0.1071 -0.1290
 2278POSM   D2B26731  19.050  25.137  12.762 -0.0196 -0.3362  0.1584
 2278POSM   C3B26732  18.815  25.040  13.102 -0.1392  0.0969 -0.0352
 2278POSM   C4B26733  18.426  24.912  13.325 -0.1191 -0.0262  0.0615
 2279POSM   NC326734  13.640  30.360  12.138 -0.4990  0.0076  0.3978
 2279POSM   PO426735  13.425  30.442  12.493  0.0492 -0.4563  0.2185
 2279POSM   AM126736  13.148  30.345  12.576  0.1979 -0.2725 -0.1702
 2279POSM   AM226737  12.990  30.206  12.791  0.3842  0.0750  0.2538
 2279POSM   T1A26738  12.717  30.147  12.400  0.1525 -0.4423  0.2378
 2279POSM   C2A26739  12.375  29.937  12.227  0.1425 -0.1286  0.0762
 2279POSM   C3A26740  12.087  29.581  12.259  0.1435 -0.0596 -0.2826
 2279POSM   C1B26741  13.027  30.289  13.100 -0.0403 -0.0908 -0.0020
 2279POSM   D2B26742  12.736  30.315  13.464  0.1669  0.0844 -0.1942
 2279POSM   C3B26743  13.018  30.599  13.760 -0.1795 -0.2081 -0.1404
 2279POSM   C4B26744  13.193  31.022  13.762  0.2262  0.0222 -0.0213
 2280DOPC   NC326745  17.477  25.696  12.298 -0.0645  0.2240  0.0399
 2280DOPC   PO426746  17.357  25.892  12.639  0.2639  0.0237 -0.0262
 2280DOPC   GL126747  17.233  25.784  13.026  0.2456  0.1354  0.4791
 2280DOPC   GL226748  17.392  25.536  12.966  0.2578  0.3807 -0.1591
 2280DOPC   C1A26749  16.882  26.019  13.221  0.4849  0.1153 -0.1404
 2280DOPC   D2A26750  16.438  26.026  13.392  0.1236 -0.0816  0.1579
 2280DOPC   C3A26751  16.140  25.702  13.541 -0.0076 -0.0334 -0.0587
 2280DOPC   C4A26752  15.903  25.621  13.925 -0.2527 -0.1547 -0.1351
 2280DOPC   C1B26753  17.189  25.610  13.401 -0.0329 -0.3520  0.2266
 2280DOPC   D2B26754  16.908  25.600  13.695 -0.1620 -0.0359  0.2828
 2280DOPC   C3B26755  16.997  25.298  14.011 -0.0830  0.1016 -0.2219
 2280DOPC   C4B26756  17.000  24.904  14.271  0.1848 -0.0034 -0.1253
 2281DOPE   NH326757  14.396  24.093  12.161  0.1953 -0.1082 -0.3711
 2281DOPE   PO426758  14.537  24.139  11.882 -0.2945  0.1060  0.1780
 2281DOPE   GL126759  14.621  24.484  12.025  0.0164 -0.1473 -0.2724
 2281DOPE   GL226760  14.897  24.384  12.132 -0.3536 -0.3514  0.1280
 2281DOPE   C1A26761  14.693  24.757  12.396  0.0049  0.1591 -0.1568
 2281DOPE   D2A26762  14.863  24.776  12.849  0.0906 -0.0853  0.0765
 2281DOPE   C3A26763  15.118  25.155  12.823 -0.2265 -0.2280 -0.0551
 2281DOPE   C4A26764  15.482  25.439  12.773  0.0656 -0.2298  0.1783
 2281DOPE   C1B26765  15.061  24.828  12.001  0.1136  0.0571 -0.1057
 2281DOPE   D2B26766  15.198  25.242  11.974  0.1338 -0.0718  0.3679
 2281DOPE   C3B26767  15.141  25.360  12.393  0.1094  0.0077  0.2641
 2281DOPE   C4B26768  14.719  25.363  12.481  0.1686 -0.2160  0.0732
 2282POSM   NC326769  15.073  34.597  12.033  0.1866 -0.0941  0.2749
 2282POSM   PO426770  14.800  34.326  12.152  0.0077  0.1534  0.0380
 2282POSM   AM126771  14.838  34.243  12.469  0.3063  0.2629  0.2549
 2282POSM   AM226772  14.710  34.072  12.632 -0.1321 -0.0270  0.1257
 2282POSM   T1A26773  15.130  34.238  12.917 -0.1971  0.0074  0.0238
 2282POSM   C2A26774  15.305  34.457  13.316 -0.0702 -0.2342 -0.1463
 2282POSM   C3A26775  15.419  34.854  13.573  0.0241 -0.1946  0.1592
 2282POSM   C1B26776  14.722  33.960  13.000  0.1822  0.0662 -0.2460
 2282POSM   D2B26777  14.746  33.726  13.404  0.1488  0.2584  0.0627
 2282POSM   C3B26778  14.615  34.026  13.752  0.2284  0.0048 -0.1527
 2282POSM   C4B26779  14.270  33.897  14.026  0.0212  0.1733 -0.1236
 2283POSM   NC326780  16.446  26.186  11.756 -0.2691 -0.0457 -0.1498
 2283POSM   PO426781  16.833  26.199  11.917  0.1187  0.0442 -0.1510
 2283POSM   AM126782  16.676  26.012  12.128 -0.0390  0.1309 -0.1247
 2283POSM   AM226783  16.543  25.757  12.078  0.0441  0.1047  0.1781
 2283POSM   T1A26784  16.380  25.894  12.546 -0.0546 -0.0818  0.0957
 2283POSM   C2A26785  16.419  25.692  12.954  0.0998  0.1186 -0.1069
 2283POSM   C3A26786  16.672  25.592  13.281 -0.1248 -0.1197  0.0904
 2283POSM   C1B26787  16.277  25.637  11.843  0.0357 -0.1057  0.1360
 2283POSM   D2B26788  15.821  25.495  11.680 -0.1285  0.2836  0.4402
 2283POSM   C3B26789  15.724  25.037  11.462  0.0892 -0.0213 -0.0581
 2283POSM   C4B26790  15.460  24.710  11.628  0.1190  0.2574  0.0608
 2284DOPS   CNO26791  19.479  29.398  12.152  0.0625  0.0237  0.0277
 2284DOPS   PO426792  19.196  29.556  12.325  0.3580 -0.0501 -0.1758
 2284DOPS   GL126793  19.048  29.291  12.694 -0.2060 -0.1244 -0.1449
 2284DOPS   GL226794  18.929  28.974  12.758  0.0505  0.1495 -0.0930
 2284DOPS   C1A26795  19.126  29.258  13.161  0.0821  0.0212  0.2061
 2284DOPS   D2A26796  19.434  29.521  13.418  0.0018 -0.0508 -0.2320
 2284DOPS   C3A26797  19.175  29.869  13.742 -0.1863  0.0462  0.1774
 2284DOPS   C4A26798  19.110  30.123  14.128 -0.0398  0.0460 -0.1620
 2284DOPS   C1B26799  18.846  28.830  13.189  0.1801 -0.0922 -0.2805
 2284DOPS   D2B26800  18.668  28.878  13.593 -0.3341 -0.0175  0.3488
 2284DOPS   C3B26801  18.561  28.596  13.962 -0.0621  0.1635 -0.1843
 2284DOPS   C4B26802  18.606  28.116  14.091 -0.2316  0.2323 -0.1721
 2285DOPC   NC326803  14.456  31.246  13.155  0.2735  0.2019  0.2552
 2285DOPC   PO426804  14.417  31.264  12.750  0.3968  0.2797  0.1805
 2285DOPC   GL126805  14.217  31.595  12.787  0.1323  0.1177 -0.3378
 2285DOPC   GL226806  14.306  31.869  12.673 -0.0502 -0.0151  0.0007
 2285DOPC   C1A26807  14.291  31.963  13.120 -0.1775  0.1759 -0.1963
 2285DOPC   D2A26808  14.224  32.415  13.373 -0.1180  0.1980 -0.2217
 2285DOPC   C3A26809  13.904  32.389  13.766 -0.1945 -0.1426 -0.0334
 2285DOPC   C4A26810  13.568  32.625  13.927  0.0216  0.2026  0.2495
 2285DOPC   C1B26811  13.949  32.085  12.783  0.1667  0.1432  0.1333
 2285DOPC   D2B26812  13.537  32.090  13.001  0.0788 -0.0356  0.0223
 2285DOPC   C3B26813  13.234  31.764  12.961  0.1340 -0.1017 -0.0598
 2285DOPC   C4B26814  12.904  31.870  13.287 -0.1543  0.0777 -0.2583
 2286POSM   NC326815  11.332  29.740  12.073 -0.4918  0.0189 -0.1864
 2286POSM   PO426816  10.996  29.548  12.145  0.0477 -0.2806 -0.2295
 2286POSM   AM126817  11.198  29.310  12.229  0.3724 -0.2058  0.0367
 2286POSM   AM226818  11.329  29.140  12.027 -0.4724 -0.1850  0.2209
 2286POSM   T1A26819  11.628  29.329  12.495  0.0226  0.2811  0.1642
 2286POSM   C2A26820  12.079  29.260  12.689  0.0739 -0.1473 -0.0586
 2286POSM   C3A26821  12.338  29.513  12.967 -0.3032  0.0024  0.2532
 2286POSM   C1B26822  11.268  28.836  11.846  0.2414  0.1021  0.2289
 2286POSM   D2B26823  11.077  28.416  12.050  0.2909  0.2833 -0.4470
 2286POSM   C3B26824  11.159  28.347  12.498  0.0483 -0.2732 -0.0769
 2286POSM   C4B26825  11.207  28.282  12.934 -0.0102 -0.2705  0.1995
 2287DOPE   NH326826  18.561  26.936  12.749  0.1283  0.1188  0.0118
 2287DOPE   PO426827  18.275  26.948  12.604 -0.1760  0.0368  0.0059
 2287DOPE   GL126828  18.029  26.742  12.933  0.1986  0.0515 -0.6684
 2287DOPE   GL226829  17.772  26.755  12.800  0.0387  0.1343 -0.0102
 2287DOPE   C1A26830  17.926  26.817  13.406  0.2333  0.0370  0.3391
 2287DOPE   D2A26831  17.955  26.798  13.856  0.1629  0.0958  0.3056
 2287DOPE   C3A26832  18.165  27.029  14.199 -0.2836 -0.0823 -0.5731
 2287DOPE   C4A26833  18.393  27.423  14.268 -0.0581  0.0245  0.1829
 2287DOPE   C1B26834  17.391  26.687  13.023  0.0370 -0.0434  0.0467
 2287DOPE   D2B26835  17.190  26.516  13.453 -0.2058 -0.0139  0.0049
 2287DOPE   C3B26836  17.439  26.609  13.852  0.1505  0.0178 -0.1742
 2287DOPE   C4B26837  17.709  26.623  14.204  0.0328  0.1707  0.1498
 2288POSM   NC326838  13.113  31.183  12.001 -0.2046  0.2136 -0.2024
 2288POSM   PO426839  13.188  31.285  12.397  0.1942 -0.1217  0.0345
 2288POSM   AM126840  12.906  31.243  12.507 -0.3687  0.3859  0.1971
 2288POSM   AM226841  12.804  31.305  12.757  0.1266  0.0773 -0.0455
 2288POSM   T1A26842  12.383  31.041  12.489  0.0653 -0.1052 -0.0668
 2288POSM   C2A26843  12.067  30.888  12.745 -0.1217  0.2589  0.1614
 2288POSM   C3A26844  11.815  30.617  13.085  0.3610 -0.1284 -0.0041
 2288POSM   C1B26845  12.722  31.114  13.004  0.0661 -0.0725  0.3461
 2288POSM   D2B26846  12.331  30.981  13.193  0.0506 -0.1544  0.4198
 2288POSM   C3B26847  12.045  31.346  13.248  0.2194 -0.0660 -0.0630
 2288POSM   C4B26848  11.588  31.415  13.249 -0.0694  0.1368 -0.0853
 2289POSM   NC326849  14.926  30.387  13.052 -0.0304 -0.3456 -0.1953
 2289POSM   PO426850  14.970  30.010  12.930  0.0948  0.0032  0.2377
 2289POSM   AM126851  15.071  29.887  13.223  0.0707  0.0235 -0.0849
 2289POSM   AM226852  15.211  30.028  13.414  0.3704  0.2458 -0.4771
 2289POSM   T1A26853  15.307  29.559  13.509 -0.2155  0.1806  0.1834
 2289POSM   C2A26854  15.796  29.513  13.565  0.2360  0.1428  0.1289
 2289POSM   C3A26855  16.071  29.180  13.746 -0.0212  0.0535 -0.0387
 2289POSM   C1B26856  15.080  30.374  13.549  0.0105 -0.1570  0.2525
 2289POSM   D2B26857  15.010  30.842  13.826 -0.1339 -0.0257  0.1689
 2289POSM   C3B26858  15.305  31.246  13.917  0.1474 -0.1271 -0.4256
 2289POSM   C4B26859  15.301  31.503  14.309 -0.0977 -0.0886  0.3166
 2290POSM   NC326860  13.877  29.681  12.062 -0.2552  0.0175  0.1985
 2290POSM   PO426861  14.054  29.556  12.398  0.0040  0.1602 -0.2337
 2290POSM   AM126862  14.054  29.439  12.706  0.0716  0.0719  0.2968
 2290POSM   AM226863  13.993  29.594  12.963  0.4060  0.1449 -0.0351
 2290POSM   T1A26864  14.209  29.217  13.160 -0.1951  0.0779 -0.0795
 2290POSM   C2A26865  14.185  29.035  13.556  0.1668  0.0665 -0.0140
 2290POSM   C3A26866  14.036  28.637  13.630 -0.0906  0.5377  0.0122
 2290POSM   C1B26867  13.789  29.805  13.174 -0.1378  0.1369 -0.0207
 2290POSM   D2B26868  14.035  30.126  13.442 -0.2519  0.0807  0.3652
 2290POSM   C3B26869  13.948  30.228  13.851  0.3129  0.0312  0.1477
 2290POSM   C4B26870  13.861  30.371  14.283  0.0964  0.0904 -0.1754
 2291DOPS   CNO26871  21.017  28.486  12.350  0.1472 -0.0787 -0.0112
 2291DOPS   PO426872  20.861  28.121  12.281  0.5127  0.2997 -0.1683
 2291DOPS   GL126873  21.184  27.934  12.445  0.0893  0.0558  0.3125
 2291DOPS   GL226874  21.198  28.149  12.664 -0.2871  0.0990 -0.2184
 2291DOPS   C1A26875  21.333  27.755  12.828  0.5043  0.1146 -0.1559
 2291DOPS   D2A26876  21.644  27.612  13.141 -0.5588  0.0628 -0.2592
 2291DOPS   C3A26877  21.742  27.940  13.445 -0.0451 -0.0048  0.0630
 2291DOPS   C4A26878  21.550  28.062  13.802  0.2791 -0.1767  0.2215
 2291DOPS   C1B26879  21.434  28.247  13.019  0.2162  0.2404 -0.2963
 2291DOPS   D2B26880  21.259  28.282  13.457 -0.1191  0.1014  0.2061
 2291DOPS   C3B26881  20.851  28.361  13.709  0.0979  0.0390  0.4211
 2291DOPS   C4B26882  20.582  28.519  14.089 -0.0329  0.0332  0.2929
 2292POSM   NC326883  18.489  23.471  12.180 -0.4523 -0.1076  0.2171
 2292POSM   PO426884  18.165  23.533  11.965  0.2305  0.0275 -0.0073
 2292POSM   AM126885  18.126  23.834  12.007 -0.1916 -0.0878 -0.0088
 2292POSM   AM226886  18.209  24.065  11.995 -0.0651 -0.2028 -0.0900
 2292POSM   T1A26887  17.766  24.242  11.961 -0.1077  0.0150  0.1164
 2292POSM   C2A26888  17.655  24.674  11.968  0.1231  0.3544 -0.1159
 2292POSM   C3A26889  17.444  25.081  12.061  0.0906 -0.1472  0.3442
 2292POSM   C1B26890  18.049  24.139  12.348 -0.1153  0.1067 -0.0352
 2292POSM   D2B26891  17.969  23.966  12.822 -0.3044 -0.2276 -0.0851
 2292POSM   C3B26892  17.583  24.116  13.057 -0.3541  0.1284  0.3115
 2292POSM   C4B26893  17.297  24.341  13.389  0.1851 -0.1997  0.2911
 2293DOPE   NH326894  22.893  27.101  12.458 -0.0026 -0.1576  0.0319
 2293DOPE   PO426895  22.593  27.258  12.521 -0.1250 -0.2273  0.3308
 2293DOPE   GL126896  22.283  27.347  12.835 -0.2422 -0.0722  0.1118
 2293DOPE   GL226897  22.063  27.208  12.668 -0.0271  0.4136  0.0868
 2293DOPE   C1A26898  22.098  27.520  13.246  0.4025 -0.1376 -0.5145
 2293DOPE   D2A26899  22.176  27.602  13.675 -0.0874  0.2956  0.2213
 2293DOPE   C3A26900  22.613  27.577  13.744  0.2973 -0.0975 -0.2137
 2293DOPE   C4A26901  23.034  27.486  13.723 -0.2137 -0.0297 -0.0050
 2293DOPE   C1B26902  22.019  27.574  12.436 -0.1068 -0.2374 -0.1122
 2293DOPE   D2B26903  21.980  28.039  12.370  0.0631 -0.0883  0.1099
 2293DOPE   C3B26904  21.633  28.368  12.496 -0.0400  0.0121 -0.1409
 2293DOPE   C4B26905  21.425  28.634  12.723 -0.0085 -0.0375 -0.0514
 2294DOPE   NH326906  22.470  34.255  12.208 -0.0297 -0.1392  0.3430
 2294DOPE   PO426907  22.315  34.161  12.439 -0.2322  0.1322  0.3045
 2294DOPE   GL126908  22.325  33.896  12.753 -0.2875  0.0774 -0.0148
 2294DOPE   GL226909  22.380  33.641  12.773 -0.0882 -0.0962  0.0217
 2294DOPE   C1A26910  22.364  33.879  13.254  0.0049 -0.3127  0.1102
 2294DOPE   D2A26911  22.313  33.719  13.663 -0.1942 -0.0818  0.0520
 2294DOPE   C3A26912  22.345  33.968  13.980  0.3642  0.0196 -0.2591
 2294DOPE   C4A26913  22.111  34.343  14.119 -0.1701  0.2271  0.2558
 2294DOPE   C1B26914  21.967  33.705  13.031  0.1382  0.1543 -0.1154
 2294DOPE   D2B26915  21.740  33.600  13.448 -0.1967 -0.2257  0.1664
 2294DOPE   C3B26916  21.683  33.434  13.863 -0.1709  0.1801 -0.2809
 2294DOPE   C4B26917  22.068  33.425  14.074 -0.1839 -0.1613 -0.1060
 2295DOPE   NH326918  17.771  29.970  12.209 -0.0785 -0.3916 -0.2371
 2295DOPE   PO426919  17.728  29.717  12.406 -0.2525  0.2781  0.0939
 2295DOPE   GL126920  17.506  29.578  12.625  0.0986  0.3572  0.0546
 2295DOPE   GL226921  17.658  29.548  12.860  0.0500 -0.0079  0.0252
 2295DOPE   C1A26922  17.057  29.784  12.677 -0.2046 -0.2078 -0.2716
 2295DOPE   D2A26923  17.025  30.216  12.838 -0.0726  0.0288 -0.0444
 2295DOPE   C3A26924  16.658  30.472  12.969 -0.1204  0.0535 -0.0517
 2295DOPE   C4A26925  16.513  30.899  13.044  0.1394 -0.0793  0.1419
 2295DOPE   C1B26926  17.334  29.347  13.118  0.0975 -0.3769  0.2768
 2295DOPE   D2B26927  17.305  29.017  13.407  0.3287 -0.0026 -0.0712
 2295DOPE   C3B26928  16.860  28.825  13.472  0.0831 -0.2153  0.2836
 2295DOPE   C4B26929  16.495  28.956  13.634 -0.2846  0.0877 -0.2529
 2296DOPE   NH326930  13.215  26.852  11.800 -0.0516  0.1467  0.1118
 2296DOPE   PO426931  13.380  26.855  11.547 -0.1758 -0.0967 -0.0324
 2296DOPE   GL126932  13.590  26.482  11.579 -0.0879  0.0689 -0.1945
 2296DOPE   GL226933  13.248  26.417  11.637 -0.0405  0.1147  0.1876
 2296DOPE   C1A26934  13.541  26.031  11.648  0.0032  0.1517 -0.0142
 2296DOPE   D2A26935  13.315  25.788  12.022 -0.1004 -0.0649  0.1665
 2296DOPE   C3A26936  13.501  26.001  12.414 -0.0012 -0.2001 -0.1671
 2296DOPE   C4A26937  13.821  26.334  12.541 -0.3163 -0.2379  0.0272
 2296DOPE   C1B26938  12.880  26.155  11.836 -0.1663 -0.3521 -0.3581
 2296DOPE   D2B26939  12.634  25.952  11.664  0.0710 -0.1491 -0.0975
 2296DOPE   C3B26940  12.661  25.521  11.504 -0.0332  0.1317 -0.2301
 2296DOPE   C4B26941  12.678  25.071  11.502  0.1993 -0.2870 -0.2464
 2297POSM   NC326942  12.650  26.744  11.186  0.1999  0.2555  0.2892
 2297POSM   PO426943  12.842  26.788  11.503  0.3440  0.1111  0.1456
 2297POSM   AM126944  12.676  26.638  11.725  0.3351 -0.1475 -0.0557
 2297POSM   AM226945  12.635  26.727  12.013  0.1314  0.1997 -0.1456
 2297POSM   T1A26946  12.304  26.331  11.886  0.1311 -0.2943 -0.0576
 2297POSM   C2A26947  12.104  25.983  11.689 -0.1937 -0.0429  0.0074
 2297POSM   C3A26948  12.226  25.745  11.341  0.3584  0.0263  0.0835
 2297POSM   C1B26949  12.728  26.430  12.179  0.1747 -0.2447  0.0590
 2297POSM   D2B26950  12.828  26.001  12.378  0.0386 -0.1680  0.0443
 2297POSM   C3B26951  12.610  25.992  12.710  0.1983  0.1784 -0.3959
 2297POSM   C4B26952  12.684  25.908  13.202 -0.0378 -0.1713 -0.1851
 2298DOPC   NC326953  22.779  33.211  12.114  0.1725  0.0757 -0.1857
 2298DOPC   PO426954  22.848  32.828  12.003 -0.0793  0.0253  0.0646
 2298DOPC   GL126955  22.491  32.619  12.217  0.0111 -0.1966  0.2091
 2298DOPC   GL226956  22.263  32.762  12.411  0.3371  0.0006  0.2458
 2298DOPC   C1A26957  22.463  32.361  12.619  0.0663  0.1291 -0.0020
 2298DOPC   D2A26958  22.542  31.959  12.823 -0.0148  0.1392 -0.2253
 2298DOPC   C3A26959  22.821  31.653  12.518  0.1882 -0.4065 -0.1434
 2298DOPC   C4A26960  23.228  31.643  12.338 -0.1592  0.0340  0.3501
 2298DOPC   C1B26961  22.016  32.693  12.811 -0.2223 -0.2648 -0.1973
 2298DOPC   D2B26962  21.939  33.011  13.164  0.1621  0.0277  0.2559
 2298DOPC   C3B26963  21.621  33.005  13.504 -0.3705 -0.1622 -0.3435
 2298DOPC   C4B26964  21.406  32.956  13.988  0.0485 -0.0751  0.0653
 2299DOPC   NC326965  18.539  33.092  12.664 -0.1601  0.0222 -0.0967
 2299DOPC   PO426966  18.164  33.201  12.784 -0.2183  0.1158  0.1568
 2299DOPC   GL126967  18.195  33.161  13.134  0.0084 -0.1552 -0.0765
 2299DOPC   GL226968  18.005  32.879  13.131  0.0195  0.0883  0.1180
 2299DOPC   C1A26969  18.020  33.104  13.609  0.0290  0.2424  0.3828
 2299DOPC   D2A26970  18.054  33.154  14.068 -0.4498 -0.1558 -0.2089
 2299DOPC   C3A26971  18.118  33.454  14.332 -0.0066  0.1261  0.5830
 2299DOPC   C4A26972  18.153  33.545  14.784 -0.2312 -0.1638  0.1954
 2299DOPC   C1B26973  18.056  32.378  13.213 -0.0628  0.1019 -0.0467
 2299DOPC   D2B26974  18.086  32.047  13.473 -0.1122 -0.2400  0.0764
 2299DOPC   C3B26975  18.200  31.875  13.917 -0.1539 -0.1298  0.0830
 2299DOPC   C4B26976  17.872  31.982  14.267  0.0262 -0.2194  0.1436
 2300POSM   NC326977  14.202  28.377  12.688  0.3200  0.2121  0.1779
 2300POSM   PO426978  13.949  28.535  12.437  0.1471 -0.2420  0.0605
 2300POSM   AM126979  13.645  28.632  12.452 -0.0423  0.2747  0.2082
 2300POSM   AM226980  13.493  28.861  12.566  0.0794 -0.0498 -0.1744
 2300POSM   T1A26981  13.220  28.444  12.646  0.1802 -0.0883  0.0112
 2300POSM   C2A26982  12.825  28.322  12.518  0.0674  0.2841  0.0540
 2300POSM   C3A26983  12.401  28.366  12.315 -0.0456  0.0062 -0.0344
 2300POSM   C1B26984  13.321  28.912  12.859  0.1171 -0.1658  0.1862
 2300POSM   D2B26985  12.882  28.775  13.054 -0.1890  0.0817  0.3593
 2300POSM   C3B26986  12.532  29.029  13.230 -0.0918  0.1606  0.1965
 2300POSM   C4B26987  12.124  29.052  13.171 -0.3587 -0.1609  0.1090
 2301POSM   NC326988  20.566  30.127  12.837  0.3320 -0.0806  0.2300
 2301POSM   PO426989  20.848  30.192  12.583 -0.0333  0.1712  0.0648
 2301POSM   AM126990  21.016  30.070  12.842  0.1809  0.2964 -0.1477
 2301POSM   AM226991  20.997  30.136  13.133 -0.1342 -0.1509  0.1137
 2301POSM   T1A26992  21.215  29.700  13.036 -0.1014 -0.2004  0.0971
 2301POSM   C2A26993  20.948  29.332  13.147 -0.2204  0.0679 -0.1658
 2301POSM   C3A26994  20.652  28.996  13.261 -0.2026  0.1236 -0.1703
 2301POSM   C1B26995  21.042  30.022  13.422  0.0115 -0.0271  0.2992
 2301POSM   D2B26996  21.313  29.986  13.852  0.2286 -0.0521 -0.3296
 2301POSM   C3B26997  21.227  29.907  14.338  0.0839 -0.2753  0.0641
 2301POSM   C4B26998  21.322  29.977  14.728  0.0470  0.0080 -0.1927
 2302DOPS   CNO26999  19.753  26.256  12.107 -0.0478 -0.1956  0.2429
 2302DOPS   PO427000  19.674  26.228  12.463 -0.1208 -0.0415  0.3894
 2302DOPS   GL127001  19.902  25.844  12.519  0.0889  0.1277 -0.0164
 2302DOPS   GL227002  20.119  26.066  12.702 -0.1788  0.0009 -0.2518
 2302DOPS   C1A27003  20.083  25.578  12.855 -0.1100 -0.0589  0.2352
 2302DOPS   D2A27004  20.431  25.294  12.912  0.0110  0.1988  0.1398
 2302DOPS   C3A27005  20.641  25.543  13.267  0.3223 -0.0127 -0.3799
 2302DOPS   C4A27006  20.971  25.492  13.510 -0.1923  0.0117  0.0414
 2302DOPS   C1B27007  20.551  26.197  12.690  0.0015 -0.3631 -0.2013
 2302DOPS   D2B27008  20.990  26.093  12.701  0.0756 -0.1148  0.0015
 2302DOPS   C3B27009  21.144  26.482  12.541 -0.1246  0.3011  0.0090
 2302DOPS   C4B27010  21.442  26.678  12.239  0.3640  0.0031 -0.1432
 2303DOPE   NH327011  20.387  30.507  12.607 -0.1636  0.0568  0.1600
 2303DOPE   PO427012  20.235  30.710  12.719  0.0772  0.0032  0.2127
 2303DOPE   GL127013  20.021  30.985  12.795 -0.3999  0.1088  0.1417
 2303DOPE   GL227014  20.095  31.241  12.719  0.1133 -0.1933 -0.0049
 2303DOPE   C1A27015  19.695  31.176  13.121 -0.2099  0.0291  0.0568
 2303DOPE   D2A27016  19.561  31.294  13.562 -0.0196  0.2583 -0.0663
 2303DOPE   C3A27017  19.758  31.709  13.700 -0.0082 -0.0632  0.2567
 2303DOPE   C4A27018  20.134  32.020  13.803  0.2587 -0.1374  0.0203
 2303DOPE   C1B27019  20.246  31.648  12.909 -0.1758  0.2217 -0.1793
 2303DOPE   D2B27020  20.467  32.027  12.869  0.0381  0.0205 -0.0829
 2303DOPE   C3B27021  20.825  32.010  12.581 -0.1558  0.0369  0.0568
 2303DOPE   C4B27022  20.881  31.829  12.148  0.1227  0.0197 -0.1477
 2304DOPC   NC327023  18.392  28.009  12.245 -0.0854 -0.2423 -0.1266
 2304DOPC   PO427024  18.289  28.361  12.364  0.2462 -0.0160 -0.1226
 2304DOPC   GL127025  18.580  28.077  12.704  0.6256 -0.1284  0.2526
 2304DOPC   GL227026  18.315  28.057  12.770  0.0186 -0.4251 -0.2181
 2304DOPC   C1A27027  18.929  27.988  12.941  0.3099 -0.2630 -0.0790
 2304DOPC   D2A27028  19.121  27.597  13.154  0.2001  0.0258 -0.0007
 2304DOPC   C3A27029  19.163  27.521  13.623  0.1840  0.0823  0.1002
 2304DOPC   C4A27030  19.241  27.215  14.006  0.2337  0.1693 -0.0176
 2304DOPC   C1B27031  18.167  28.066  13.218 -0.0983  0.1595 -0.4046
 2304DOPC   D2B27032  18.234  28.192  13.620  0.0879 -0.0596 -0.1927
 2304DOPC   C3B27033  18.079  27.959  13.981 -0.0608  0.2834  0.0134
 2304DOPC   C4B27034  17.865  27.566  13.971  0.0027 -0.0806 -0.2361
 2305DOPC   NC327035  17.230  30.898  12.314 -0.0350 -0.3573  0.0741
 2305DOPC   PO427036  16.893  30.705  12.352  0.2920  0.0949  0.1184
 2305DOPC   GL127037  16.914  30.885  12.758 -0.2845 -0.5091 -0.2584
 2305DOPC   GL227038  17.027  30.740  12.954 -0.0921  0.2544 -0.0210
 2305DOPC   C1A27039  17.035  31.230  13.040  0.2828 -0.1873  0.2271
 2305DOPC   D2A27040  17.341  31.564  13.127 -0.3889 -0.0088 -0.4748
 2305DOPC   C3A27041  17.655  31.701  13.425  0.2046 -0.1985 -0.2390
 2305DOPC   C4A27042  17.700  31.701  13.873 -0.0657 -0.2312  0.4046
 2305DOPC   C1B27043  17.111  30.390  13.271  0.0094  0.1099 -0.1759
 2305DOPC   D2B27044  17.194  30.085  13.686  0.1408  0.2249 -0.0739
 2305DOPC   C3B27045  17.194  30.365  14.128  0.0658  0.0105  0.4535
 2305DOPC   C4B27046  17.261  30.792  14.270 -0.2163 -0.3217  0.0714
 2306DOPC   NC327047  17.588  33.754  12.222 -0.0085 -0.0578  0.3408
 2306DOPC   PO427048  17.218  33.713  12.383  0.0652  0.3667 -0.2126
 2306DOPC   GL127049  16.904  33.484  12.475  0.3469 -0.3203 -0.0016
 2306DOPC   GL227050  16.820  33.395  12.260 -0.3217 -0.0031  0.2241
 2306DOPC   C1A27051  16.850  33.349  12.923 -0.2936 -0.3463  0.0509
 2306DOPC   D2A27052  16.769  33.308  13.344 -0.0289  0.0918 -0.0570
 2306DOPC   C3A27053  16.370  33.164  13.520 -0.2041 -0.0306 -0.0830
 2306DOPC   C4A27054  15.987  32.972  13.456 -0.0396  0.0438  0.0437
 2306DOPC   C1B27055  16.540  33.131  12.546 -0.2195  0.1745 -0.0349
 2306DOPC   D2B27056  16.354  33.160  12.981  0.0247  0.2642 -0.0378
 2306DOPC   C3B27057  16.013  33.386  13.136 -0.4120 -0.5412  0.0285
 2306DOPC   C4B27058  15.701  33.644  13.286 -0.1705 -0.3252 -0.0845
 2307DOPE   NH327059  19.407  25.775  12.444  0.0538  0.0000 -0.0201
 2307DOPE   PO427060  19.379  25.930  12.153  0.4467  0.0167 -0.0464
 2307DOPE   GL127061  19.351  25.506  12.094  0.0255 -0.1947  0.1206
 2307DOPE   GL227062  19.121  25.427  12.253  0.1195  0.2236 -0.3051
 2307DOPE   C1A27063  19.490  25.085  11.984 -0.1764  0.0912 -0.2385
 2307DOPE   D2A27064  19.283  24.610  11.923 -0.0182 -0.2236 -0.3649
 2307DOPE   C3A27065  19.173  24.368  12.249  0.2074  0.0186  0.0082
 2307DOPE   C4A27066  19.005  24.203  12.698 -0.2342  0.1722  0.2790
 2307DOPE   C1B27067  19.217  24.926  12.362  0.2408 -0.0059  0.1743
 2307DOPE   D2B27068  18.902  24.693  12.615 -0.2521  0.2564  0.0914
 2307DOPE   C3B27069  19.099  24.527  13.043 -0.1260  0.1849 -0.2362
 2307DOPE   C4B27070  19.417  24.471  13.398 -0.0138 -0.1926 -0.1739
 2308DOPC   NC327071  22.785  31.009  12.280 -0.2510  0.1501 -0.0418
 2308DOPC   PO427072  22.589  30.944  12.585  0.1096 -0.0214 -0.6007
 2308DOPC   GL127073  22.374  30.995  12.926 -0.2156 -0.0611  0.1451
 2308DOPC   GL227074  22.125  31.222  13.035 -0.0971 -0.3794  0.0093
 2308DOPC   C1A27075  22.522  31.251  13.313  0.0066  0.3736 -0.1266
 2308DOPC   D2A27076  22.483  31.209  13.772 -0.0837  0.1685 -0.2306
 2308DOPC   C3A27077  22.036  31.195  13.960 -0.0216 -0.0693  0.1343
 2308DOPC   C4A27078  21.593  31.371  13.822  0.2492  0.1137  0.2407
 2308DOPC   C1B27079  22.073  31.427  13.440  0.1957  0.0126  0.0393
 2308DOPC   D2B27080  21.981  31.885  13.522  0.0138  0.0457  0.4056
 2308DOPC   C3B27081  21.605  32.038  13.737 -0.1791 -0.0254  0.0771
 2308DOPC   C4B27082  21.510  32.515  13.717 -0.2852 -0.0443 -0.2692
 2309POSM   NC327083  14.534  26.721  12.210 -0.4014  0.2019 -0.1143
 2309POSM   PO427084  14.581  26.930  11.862  0.1333  0.0311 -0.4265
 2309POSM   AM127085  14.865  27.024  12.015 -0.1332 -0.0497 -0.1328
 2309POSM   AM227086  15.091  26.834  12.130 -0.1121 -0.0115 -0.3144
 2309POSM   T1A27087  15.175  27.340  12.260 -0.0975  0.0055  0.1903
 2309POSM   C2A27088  15.404  27.739  12.381  0.2677  0.2039 -0.0783
 2309POSM   C3A27089  15.517  27.959  12.777  0.4939 -0.2783 -0.2220
 2309POSM   C1B27090  15.139  26.595  12.392  0.2408 -0.0206  0.0688
 2309POSM   D2B27091  15.115  26.457  12.851 -0.0779  0.2351  0.2758
 2309POSM   C3B27092  15.263  26.786  13.142  0.3896  0.0510  0.0436
 2309POSM   C4B27093  15.368  27.132  13.424  0.0507  0.0710  0.3871
 2310DOPS   CNO27094  13.721  23.273  11.492 -0.3764 -0.3676  0.0569
 2310DOPS   PO427095  14.043  23.154  11.651 -0.0799 -0.0394  0.0172
 2310DOPS   GL127096  13.931  22.787  11.814  0.5339 -0.2638 -0.0524
 2310DOPS   GL227097  14.178  22.611  11.680  0.0687  0.1957  0.0289
 2310DOPS   C1A27098  13.857  22.306  11.775 -0.1371  0.0321  0.0805
 2310DOPS   D2A27099  13.725  21.833  11.844 -0.2495  0.4393 -0.1669
 2310DOPS   C3A27100  13.874  21.624  12.265 -0.1963 -0.1729  0.2863
 2310DOPS   C4A27101  13.726  21.511  12.637  0.2179  0.0569  0.1617
 2310DOPS   C1B27102  14.316  22.332  12.007  0.0764  0.3276  0.3154
 2310DOPS   D2B27103  14.102  22.093  12.370 -0.0715 -0.2162  0.1496
 2310DOPS   C3B27104  13.768  21.979  12.742  0.1489 -0.3024 -0.2300
 2310DOPS   C4B27105  13.757  22.017  13.221  0.0405 -0.1698  0.0071
 2311DOPE   NH327106  13.633  29.119  12.073  0.1057 -0.2713  0.0773
 2311DOPE   PO427107  13.593  29.310  12.337  0.2177  0.0715 -0.2580
 2311DOPE   GL127108  13.411  29.368  12.699 -0.0271 -0.0746 -0.1393
 2311DOPE   GL227109  13.666  29.256  12.876  0.2911  0.0255 -0.0286
 2311DOPE   C1A27110  13.003  29.207  12.639  0.0156  0.0087  0.1880
 2311DOPE   D2A27111  12.608  29.078  12.743 -0.3069 -0.1378  0.1789
 2311DOPE   C3A27112  12.451  28.699  12.834  0.1626 -0.0497  0.0282
 2311DOPE   C4A27113  12.628  28.344  13.041 -0.0134  0.1515 -0.2200
 2311DOPE   C1B27114  13.548  29.422  13.325  0.2642  0.2826  0.2004
 2311DOPE   D2B27115  13.136  29.490  13.579  0.2127  0.0014  0.0715
 2311DOPE   C3B27116  13.113  29.902  13.827  0.4348 -0.0227  0.2397
 2311DOPE   C4B27117  12.815  30.205  14.043  0.0056 -0.0513 -0.1800
 2312POSM   NC327118  10.784  25.167  11.451 -0.1169  0.0996 -0.0708
 2312POSM   PO427119  10.770  25.528  11.638  0.4791 -0.1119 -0.2114
 2312POSM   AM127120  11.008  25.419  11.864  0.3640 -0.4399 -0.1475
 2312POSM   AM227121  11.141  25.565  12.080  0.2320  0.2388  0.1233
 2312POSM   T1A27122  11.463  25.305  11.752 -0.0634  0.2799  0.1729
 2312POSM   C2A27123  11.876  25.169  11.924 -0.0152  0.1177  0.1056
 2312POSM   C3A27124  12.327  25.392  11.993  0.4348  0.1459 -0.1546
 2312POSM   C1B27125  11.439  25.716  12.091 -0.0555  0.0910 -0.1065
 2312POSM   D2B27126  11.934  25.816  12.126 -0.3353 -0.0576  0.0699
 2312POSM   C3B27127  12.220  25.624  12.451 -0.1131 -0.3404 -0.3988
 2312POSM   C4B27128  12.495  25.238  12.557 -0.0775 -0.1688  0.1662
 2313DOPC   NC327129  17.920  27.775  12.870 -0.3520  0.1661  0.1564
 2313DOPC   PO427130  17.953  27.844  12.433 -0.1435  0.2289  0.4463
 2313DOPC   GL127131  17.805  28.194  12.625 -0.2945 -0.5912  0.0092
 2313DOPC   GL227132  17.794  28.502  12.532  0.4549  0.5365 -0.3935
 2313DOPC   C1A27133  17.583  28.131  13.078  0.0846 -0.0952 -0.1100
 2313DOPC   D2A27134  17.288  28.058  13.415  0.1814 -0.3040 -0.1075
 2313DOPC   C3A27135  16.857  28.123  13.405  0.1387 -0.0168  0.3940
 2313DOPC   C4A27136  16.558  27.938  13.712 -0.2688 -0.2718  0.0680
 2313DOPC   C1B27137  17.957  28.465  12.929  0.2656  0.0959 -0.2050
 2313DOPC   D2B27138  17.946  28.580  13.367 -0.4096 -0.1590  0.0500
 2313DOPC   C3B27139  17.729  28.861  13.654  0.1687  0.1799 -0.4096
 2313DOPC   C4B27140  17.707  29.003  14.080 -0.2035  0.0550  0.1658
 2314DOPS   CNO27141  14.439  23.637  11.872 -0.2046 -0.2957  0.2182
 2314DOPS   PO427142  14.247  23.546  12.200 -0.5982 -0.4806  0.3846
 2314DOPS   GL127143  14.255  23.696  12.612  0.1004  0.1636  0.3540
 2314DOPS   GL227144  14.244  23.974  12.641  0.2682  0.1106 -0.0897
 2314DOPS   C1A27145  13.848  23.776  12.883 -0.0721  0.0884 -0.1234
 2314DOPS   D2A27146  13.823  23.892  13.344 -0.2335 -0.1113 -0.3797
 2314DOPS   C3A27147  14.193  24.007  13.547 -0.1615  0.2750  0.3523
 2314DOPS   C4A27148  14.624  23.985  13.682 -0.1037  0.2570 -0.0494
 2314DOPS   C1B27149  14.556  24.003  13.008 -0.3281 -0.0479  0.2156
 2314DOPS   D2B27150  14.959  23.870  13.291 -0.2397 -0.0035 -0.1856
 2314DOPS   C3B27151  14.741  23.506  13.608  0.2054 -0.1783  0.3995
 2314DOPS   C4B27152  14.629  23.544  14.072  0.0608 -0.0157 -0.2908
 2315DOPC   NC327153  13.749  27.497  12.213  0.2054 -0.1479  0.3792
 2315DOPC   PO427154  13.444  27.771  12.264 -0.1546 -0.4429 -0.0271
 2315DOPC   GL127155  13.388  28.014  12.703 -0.0016  0.2351  0.2882
 2315DOPC   GL227156  13.519  27.702  12.787 -0.2564  0.3036  0.2621
 2315DOPC   C1A27157  13.151  28.197  13.107  0.0722  0.1991  0.0636
 2315DOPC   D2A27158  13.104  28.284  13.510 -0.1085  0.0769  0.1008
 2315DOPC   C3A27159  12.941  27.931  13.757 -0.0304 -0.1843  0.0627
 2315DOPC   C4A27160  12.796  27.909  14.174  0.1360 -0.0331  0.0822
 2315DOPC   C1B27161  13.292  27.322  12.645 -0.1969 -0.2222 -0.2670
 2315DOPC   D2B27162  13.123  26.878  12.790  0.2285  0.0365 -0.1912
 2315DOPC   C3B27163  13.595  26.785  12.809 -0.3403 -0.1190  0.0997
 2315DOPC   C4B27164  13.991  26.837  13.039 -0.1104  0.0189  0.0705
 2316DOPC   NC327165  16.982  27.067  12.362  0.0032  0.1513  0.4994
 2316DOPC   PO427166  17.323  27.097  12.517  0.3561  0.1218 -0.0021
 2316DOPC   GL127167  17.153  26.881  12.756  0.0871  0.2387 -0.1752
 2316DOPC   GL227168  17.027  26.654  12.675 -0.0322 -0.0000  0.1196
 2316DOPC   C1A27169  16.972  26.996  13.120 -0.2429  0.3321  0.0703
 2316DOPC   D2A27170  16.862  27.025  13.539  0.2054 -0.0422  0.2267
 2316DOPC   C3A27171  16.958  26.729  13.894  0.0344 -0.0707 -0.0335
 2316DOPC   C4A27172  17.102  26.289  14.155  0.5968 -0.1197  0.4626
 2316DOPC   C1B27173  16.627  26.859  12.739  0.2299 -0.0819  0.2129
 2316DOPC   D2B27174  16.472  27.113  12.419 -0.1184  0.1773  0.0915
 2316DOPC   C3B27175  16.107  26.985  12.185  0.3631  0.2204  0.0354
 2316DOPC   C4B27176  15.720  27.234  12.091  0.1687 -0.3740 -0.0136
 2317DOPE   NH327177  18.717  26.493  12.530 -0.1226 -0.0482  0.4411
 2317DOPE   PO427178  18.549  26.474  12.769 -0.0496 -0.0253 -0.1958
 2317DOPE   GL127179  18.693  26.210  13.109  0.2590  0.0220  0.4192
 2317DOPE   GL227180  18.735  26.056  12.846 -0.0394  0.0050  0.1188
 2317DOPE   C1A27181  18.686  25.863  13.391 -0.2872  0.2117  0.2673
 2317DOPE   D2A27182  18.685  25.708  13.810  0.0675 -0.0212 -0.0540
 2317DOPE   C3A27183  18.404  25.882  14.085  0.2074 -0.1184  0.1943
 2317DOPE   C4A27184  18.529  26.069  14.504  0.1592 -0.3260 -0.1119
 2317DOPE   C1B27185  18.507  25.693  13.004 -0.1191 -0.0510  0.5736
 2317DOPE   D2B27186  18.337  25.251  12.897  0.4256 -0.1275 -0.1629
 2317DOPE   C3B27187  18.054  24.928  12.994 -0.1266 -0.1801  0.1423
 2317DOPE   C4B27188  17.685  24.769  13.212  0.1338 -0.1241 -0.4314
 2318DOPC   NC327189  14.073  26.701  12.005  0.4420  0.1741  0.0176
 2318DOPC   PO427190  13.712  26.582  11.999 -0.1157 -0.1107 -0.3059
 2318DOPC   GL127191  13.537  26.283  12.026  0.1328  0.0740 -0.1214
 2318DOPC   GL227192  13.245  26.339  12.106  0.0017  0.0934 -0.2754
 2318DOPC   C1A27193  13.844  25.904  12.044 -0.0892 -0.0009  0.1830
 2318DOPC   D2A27194  13.994  25.589  12.295 -0.2342 -0.2817 -0.3609
 2318DOPC   C3A27195  14.237  25.283  12.172 -0.4508  0.0324 -0.1588
 2318DOPC   C4A27196  14.632  25.051  11.936 -0.1216 -0.1767 -0.0484
 2318DOPC   C1B27197  13.191  26.406  12.567 -0.2305 -0.0981  0.0967
 2318DOPC   D2B27198  13.257  26.500  13.067  0.0563 -0.0467 -0.2482
 2318DOPC   C3B27199  13.073  26.343  13.430  0.1807 -0.2383  0.3324
 2318DOPC   C4B27200  12.822  26.031  13.688 -0.1428  0.2862  0.2101
 2319DOPC   NC327201  19.128  34.036  13.135 -0.2261 -0.0258 -0.1329
 2319DOPC   PO427202  19.197  34.295  12.818  0.1203  0.0575  0.2356
 2319DOPC   GL127203  19.488  34.377  13.082 -0.4515 -0.2830  0.0756
 2319DOPC   GL227204  19.355  34.626  13.220  0.2815 -0.1301 -0.0589
 2319DOPC   C1A27205  19.430  34.234  13.526 -0.0687  0.0972 -0.0167
 2319DOPC   D2A27206  19.242  34.251  13.947  0.0150 -0.0249  0.2930
 2319DOPC   C3A27207  18.840  34.112  14.026  0.0961 -0.0960 -0.1476
 2319DOPC   C4A27208  18.830  33.697  14.230 -0.2376 -0.0353 -0.0325
 2319DOPC   C1B27209  19.762  34.601  13.425 -0.2210 -0.2385 -0.0203
 2319DOPC   D2B27210  20.161  34.702  13.673  0.2431  0.0387  0.0491
 2319DOPC   C3B27211  20.380  34.605  14.099 -0.0988 -0.1376  0.2724
 2319DOPC   C4B27212  20.368  34.309  14.483 -0.0110  0.1993 -0.1107
 2320POSM   NC327213  17.180  34.234  12.361  0.0674  0.0453 -0.0496
 2320POSM   PO427214  17.552  34.174  12.465 -0.0467 -0.0078  0.3419
 2320POSM   AM127215  17.598  33.978  12.730 -0.0237  0.0848  0.1971
 2320POSM   AM227216  17.519  33.738  12.833  0.4103 -0.0766  0.0194
 2320POSM   T1A27217  17.689  33.924  13.222  0.2160  0.3420  0.0257
 2320POSM   C2A27218  17.633  33.618  13.581  0.1254  0.1337 -0.0586
 2320POSM   C3A27219  17.551  33.437  13.957 -0.1330  0.0638  0.2320
 2320POSM   C1B27220  17.333  33.541  13.083 -0.0812  0.0098  0.1325
 2320POSM   D2B27221  17.135  33.689  13.448 -0.0217  0.2023  0.0623
 2320POSM   C3B27222  16.858  33.601  13.773  0.0585 -0.0581  0.4954
 2320POSM   C4B27223  16.463  33.465  14.017 -0.1037 -0.1257  0.0016
 2321DOPE   NH327224  17.537  27.531  12.292  0.0316 -0.2176  0.1734
 2321DOPE   PO427225  17.396  27.608  12.557 -0.0374  0.0003 -0.0328
 2321DOPE   GL127226  17.085  27.521  12.551  0.1104  0.0924 -0.0671
 2321DOPE   GL227227  16.935  27.360  12.749 -0.2493  0.0679 -0.2481
 2321DOPE   C1A27228  16.795  27.902  12.653  0.4569 -0.1411  0.2022
 2321DOPE   D2A27229  16.507  28.006  13.011 -0.3354  0.1979 -0.0721
 2321DOPE   C3A27230  16.411  27.687  13.240 -0.0452 -0.3494 -0.2685
 2321DOPE   C4A27231  16.456  27.424  13.658 -0.4184  0.0896 -0.2060
 2321DOPE   C1B27232  16.914  27.622  13.182  0.0742 -0.1238 -0.0181
 2321DOPE   D2B27233  16.888  27.620  13.646 -0.0488  0.0296  0.0760
 2321DOPE   C3B27234  17.076  27.287  13.939 -0.0901 -0.0842  0.0406
 2321DOPE   C4B27235  17.190  27.412  14.312  0.2654 -0.2222 -0.1194
 2322DOPS   CNO27236  17.469  26.804  11.847  0.1011 -0.1183  0.2175
 2322DOPS   PO427237  17.282  27.109  11.981 -0.2985  0.3789  0.2041
 2322DOPS   GL127238  17.061  27.402  11.934 -0.3684 -0.0970 -0.4395
 2322DOPS   GL227239  16.777  27.225  11.965 -0.1746  0.1213 -0.0927
 2322DOPS   C1A27240  16.795  27.780  11.903 -0.1489 -0.1102  0.1838
 2322DOPS   D2A27241  16.476  28.006  12.119  0.0400 -0.0452 -0.3050
 2322DOPS   C3A27242  16.270  28.395  12.000  0.1250  0.1102 -0.0803
 2322DOPS   C4A27243  16.124  28.833  11.826  0.0098 -0.0295 -0.0241
 2322DOPS   C1B27244  16.620  27.544  12.336  0.1631 -0.0581 -0.1902
 2322DOPS   D2B27245  16.461  27.504  12.754 -0.0426 -0.2383 -0.4446
 2322DOPS   C3B27246  16.471  27.204  13.067 -0.0324 -0.0039  0.2655
 2322DOPS   C4B27247  16.251  26.991  13.386  0.3304 -0.1278  0.1866
 2323DOPC   NC327248  16.181   0.215  12.575  0.1081  0.3222  0.2323
 2323DOPC   PO427249  16.331  -0.142  12.507  0.0707 -0.0574 -0.1194
 2323DOPC   GL127250  16.100  -0.349  12.760  0.2207  0.3048 -0.1168
 2323DOPC   GL227251  15.920  -0.437  12.706 -0.3699  0.0120  0.2649
 2323DOPC   C1A27252  16.247  -0.515  13.190  0.1683 -0.0301  0.0115
 2323DOPC   D2A27253  16.301  -0.310  13.583  0.1425  0.2351  0.0358
 2323DOPC   C3A27254  16.527   0.096  13.624 -0.2781 -0.3197  0.4847
 2323DOPC   C4A27255  16.375   0.530  13.882 -0.1171  0.1084 -0.3493
 2323DOPC   C1B27256  15.598  -0.625  13.034 -0.0817  0.1247 -0.3551
 2323DOPC   D2B27257  15.211  -0.874  13.194  0.0324  0.0184 -0.2142
 2323DOPC   C3B27258  15.213  -1.163  13.545 -0.2282 -0.2900  0.2248
 2323DOPC   C4B27259  15.156  -1.511  13.839  0.0046  0.0616 -0.0930
 2324DOPE   NH327260  13.013  27.256  11.594 -0.1349 -0.2378 -0.1375
 2324DOPE   PO427261  12.780  27.174  11.803  0.1048  0.1034  0.0640
 2324DOPE   GL127262  12.587  27.188  12.274  0.0125  0.1462  0.0929
 2324DOPE   GL227263  12.556  27.521  12.187  0.0336  0.0765 -0.0250
 2324DOPE   C1A27264  12.164  27.027  12.166  0.0856  0.0589 -0.0135
 2324DOPE   D2A27265  11.788  26.921  12.399 -0.2160 -0.0059  0.1219
 2324DOPE   C3A27266  11.695  27.395  12.531 -0.1398 -0.0228  0.1438
 2324DOPE   C4A27267  11.743  27.788  12.711  0.0244  0.0948  0.1561
 2324DOPE   C1B27268  12.237  27.399  12.500 -0.3010  0.1463 -0.0176
 2324DOPE   D2B27269  12.146  27.001  12.734  0.0427 -0.0025  0.1772
 2324DOPE   C3B27270  12.408  26.719  12.983 -0.0262 -0.2460 -0.2098
 2324DOPE   C4B27271  12.784  26.483  12.993  0.0504  0.1199 -0.3039
 2325DOPE   NH327272  18.097  29.389  12.377  0.1001  0.0083  0.2048
 2325DOPE   PO427273  18.074  29.252  12.679 -0.2302  0.1258  0.1921
 2325DOPE   GL127274  17.708  29.241  12.499  0.5323  0.1825  0.0611
 2325DOPE   GL227275  17.627  28.979  12.586 -0.1043 -0.1109 -0.1926
 2325DOPE   C1A27276  17.273  29.260  12.345  0.1780 -0.0434 -0.1418
 2325DOPE   D2A27277  16.868  29.005  12.357 -0.1710 -0.0753  0.0869
 2325DOPE   C3A27278  16.575  28.899  12.721  0.0426  0.1383 -0.0771
 2325DOPE   C4A27279  16.726  28.507  12.985 -0.1092  0.3015  0.2663
 2325DOPE   C1B27280  17.539  28.837  12.992 -0.0697  0.1560 -0.1766
 2325DOPE   D2B27281  17.302  28.488  13.206  0.1074  0.0202 -0.2225
 2325DOPE   C3B27282  17.186  28.566  13.641  0.1533 -0.1892 -0.0948
 2325DOPE   C4B27283  17.029  28.835  13.978 -0.0384  0.0171  0.0011
 2326POSM   NC327284  21.633  31.430  13.191 -0.0261 -0.0514 -0.3164
 2326POSM   PO427285  21.613  31.047  13.051 -0.1998  0.0996 -0.2843
 2326POSM   AM127286  21.415  30.991  13.344 -0.0222 -0.3928  0.4934
 2326POSM   AM227287  21.286  31.170  13.479 -0.3615  0.2477 -0.0103
 2326POSM   T1A27288  21.310  30.882  13.857  0.1545 -0.1692 -0.0045
 2326POSM   C2A27289  21.539  30.928  14.222 -0.1078 -0.1516  0.0112
 2326POSM   C3A27290  21.713  31.309  14.437  0.2448  0.1617 -0.0728
 2326POSM   C1B27291  21.041  31.226  13.691 -0.0649 -0.1637 -0.0341
 2326POSM   D2B27292  20.681  31.350  13.916  0.0741  0.1149  0.3888
 2326POSM   C3B27293  20.490  31.723  13.909  0.2043  0.0860  0.2412
 2326POSM   C4B27294  20.598  32.139  13.876 -0.0669 -0.0910  0.3623
 2327POSM   NC327295  20.936  34.479  12.375  0.3117 -0.1201  0.0621
 2327POSM   PO427296  20.977  34.351  12.727  0.1374 -0.0517 -0.0935
 2327POSM   AM127297  20.986  34.094  12.941  0.2889 -0.5034  0.3317
 2327POSM   AM227298  21.004  33.850  12.968  0.1051 -0.0185  0.2631
 2327POSM   T1A27299  20.557  33.931  13.173 -0.0101  0.1760  0.2636
 2327POSM   C2A27300  20.284  33.839  13.509  0.3013  0.2287 -0.4123
 2327POSM   C3A27301  20.202  33.631  13.942 -0.1139 -0.0550  0.0997
 2327POSM   C1B27302  21.291  33.797  13.159 -0.1229  0.2271 -0.0384
 2327POSM   D2B27303  21.415  33.899  13.639  0.1105  0.1707 -0.0042
 2327POSM   C3B27304  21.168  33.685  13.981 -0.2953  0.3156  0.3478
 2327POSM   C4B27305  21.041  33.563  14.448  0.0195 -0.0236 -0.1206
 2328DOPC   NC327306  12.876  27.961  11.612 -0.2806 -0.1128 -0.0897
 2328DOPC   PO427307  13.039  28.088  12.005  0.0737  0.2296  0.1297
 2328DOPC   GL127308  12.754  28.012  12.145 -0.0107 -0.3442  0.3075
 2328DOPC   GL227309  12.455  27.960  11.995  0.0233  0.2623  0.1553
 2328DOPC   C1A27310  12.495  27.967  12.514  0.0280 -0.1836  0.1725
 2328DOPC   D2A27311  12.205  28.207  12.782  0.0840 -0.2635  0.0571
 2328DOPC   C3A27312  12.264  28.037  13.190  0.1800 -0.0621  0.0960
 2328DOPC   C4A27313  12.448  28.067  13.603 -0.0672  0.0666 -0.3656
 2328DOPC   C1B27314  12.088  27.764  12.256 -0.1234 -0.1151  0.0531
 2328DOPC   D2B27315  11.739  27.978  12.245 -0.3212 -0.3693 -0.0872
 2328DOPC   C3B27316  11.701  28.318  12.627 -0.1550  0.2718  0.2820
 2328DOPC   C4B27317  11.714  28.196  13.046  0.1574  0.1769  0.0058
 2329DOPC   NC327318  16.532  34.174  12.750  0.1314  0.2568 -0.3376
 2329DOPC   PO427319  16.606  33.885  12.509 -0.1045 -0.0558 -0.2836
 2329DOPC   GL127320  16.260  33.827  12.596  0.0824  0.0168  0.5034
 2329DOPC   GL227321  16.221  33.800  12.891  0.2927  0.0163 -0.0023
 2329DOPC   C1A27322  16.097  33.399  12.611 -0.1856 -0.2318  0.1654
 2329DOPC   D2A27323  15.796  33.094  12.558 -0.3157 -0.2873 -0.2500
 2329DOPC   C3A27324  15.736  32.987  12.977  0.0444 -0.1683 -0.1646
 2329DOPC   C4A27325  15.504  33.017  13.368 -0.3673 -0.1607 -0.1454
 2329DOPC   C1B27326  15.806  33.750  12.705 -0.0650  0.3342 -0.1944
 2329DOPC   D2B27327  15.441  33.428  12.733  0.0114 -0.0613  0.0100
 2329DOPC   C3B27328  15.179  33.342  13.066 -0.4184  0.1722  0.1136
 2329DOPC   C4B27329  14.981  32.952  13.264 -0.0121 -0.0060  0.3079
 2330DOPC   NC327330  18.959  30.616  12.225  0.2180  0.2287 -0.3178
 2330DOPC   PO427331  19.090  30.254  12.266  0.1529  0.1763  0.0686
 2330DOPC   GL127332  19.169  30.306  12.686 -0.2254 -0.0308 -0.0839
 2330DOPC   GL227333  18.923  30.494  12.728  0.4880  0.3011 -0.1206
 2330DOPC   C1A27334  18.993  30.155  13.081  0.3338  0.1784  0.3164
 2330DOPC   D2A27335  18.835  29.881  13.408  0.1641  0.2598 -0.1814
 2330DOPC   C3A27336  18.612  29.717  13.772 -0.0749  0.0268  0.3242
 2330DOPC   C4A27337  18.466  29.869  14.175  0.2553  0.2905  0.0590
 2330DOPC   C1B27338  18.856  30.581  13.204 -0.1013 -0.0488 -0.1347
 2330DOPC   D2B27339  19.006  30.457  13.639 -0.1963  0.2641  0.1456
 2330DOPC   C3B27340  18.689  30.249  13.895  0.3061 -0.0123  0.1601
 2330DOPC   C4B27341  18.307  30.342  14.042 -0.3427  0.1533  0.2377
 2331POSM   NC327342  14.838  26.579  11.486 -0.1349 -0.0988  0.0832
 2331POSM   PO427343  15.192  26.489  11.750 -0.4243 -0.0564  0.1034
 2331POSM   AM127344  15.430  26.627  11.947  0.3625  0.1587 -0.0496
 2331POSM   AM227345  15.569  26.634  12.179  0.2593  0.0547 -0.1171
 2331POSM   T1A27346  15.861  26.862  11.757  0.0434 -0.0864  0.2059
 2331POSM   C2A27347  16.138  27.240  11.736  0.2084  0.3434 -0.0286
 2331POSM   C3A27348  16.155  27.476  12.154  0.0383  0.1751  0.1596
 2331POSM   C1B27349  15.669  26.319  12.292 -0.0523 -0.0840  0.3153
 2331POSM   D2B27350  15.581  25.845  12.300 -0.2213  0.0148 -0.0129
 2331POSM   C3B27351  15.239  25.751  12.029 -0.3570 -0.0085 -0.2713
 2331POSM   C4B27352  14.834  25.727  12.125  0.1327 -0.2008 -0.1405
 2332DOPC   NC327353  13.208  33.643  12.024  0.1695  0.0105  0.5250
 2332DOPC   PO427354  13.336  34.007  11.982 -0.1718 -0.0341 -0.1306
 2332DOPC   GL127355  13.413  33.953  12.365  0.0607 -0.2235 -0.3582
 2332DOPC   GL227356  13.728  33.921  12.330 -0.2442  0.1882 -0.1700
 2332DOPC   C1A27357  13.289  33.531  12.550 -0.0923 -0.2576  0.0855
 2332DOPC   D2A27358  13.534  33.186  12.749  0.1575  0.3256 -0.2767
 2332DOPC   C3A27359  13.617  32.954  13.119  0.0440  0.0867  0.0379
 2332DOPC   C4A27360  13.561  33.105  13.581 -0.0044 -0.2760  0.1152
 2332DOPC   C1B27361  13.790  33.730  12.741  0.3124  0.0297 -0.0294
 2332DOPC   D2B27362  13.915  33.774  13.157 -0.4213 -0.1704 -0.0705
 2332DOPC   C3B27363  13.561  33.781  13.477 -0.0316 -0.0990 -0.2332
 2332DOPC   C4B27364  13.335  33.625  13.876 -0.2470  0.1745 -0.0280
 2333POSM   NC327365  23.244  27.858  12.599 -0.1311  0.2308 -0.1417
 2333POSM   PO427366  22.986  27.589  12.356  0.1060 -0.0604 -0.2305
 2333POSM   AM127367  22.777  27.699  12.595  0.3359  0.2764  0.2027
 2333POSM   AM227368  22.513  27.767  12.518 -0.0684  0.2601 -0.0999
 2333POSM   T1A27369  22.719  28.086  12.927  0.4105  0.2056 -0.4028
 2333POSM   C2A27370  22.789  28.367  13.196  0.2546 -0.1766 -0.1330
 2333POSM   C3A27371  22.818  28.363  13.613  0.2266  0.0467  0.1136
 2333POSM   C1B27372  22.300  27.809  12.719  0.1690 -0.2101 -0.0981
 2333POSM   D2B27373  21.893  27.978  12.908  0.2097 -0.2608  0.0106
 2333POSM   C3B27374  21.918  28.374  13.225  0.1565  0.1524 -0.0559
 2333POSM   C4B27375  21.911  28.660  13.601  0.1302  0.0436 -0.0796
 2334DOPS   CNO27376  20.443  25.735  11.944 -0.2346  0.1792  0.0622
 2334DOPS   PO427377  20.239  25.657  12.249  0.1353 -0.1463  0.0140
 2334DOPS   GL127378  20.359  25.421  12.501 -0.2300  0.0138  0.1398
 2334DOPS   GL227379  20.246  25.135  12.494 -0.1789 -0.3002 -0.2467
 2334DOPS   C1A27380  20.598  25.727  12.790 -0.1249 -0.1624  0.0306
 2334DOPS   D2A27381  20.661  26.086  13.145 -0.3027  0.0365  0.2653
 2334DOPS   C3A27382  20.752  26.002  13.569  0.1044 -0.1514  0.3643
 2334DOPS   C4A27383  20.835  26.226  13.954 -0.1212  0.3195 -0.0141
 2334DOPS   C1B27384  19.943  25.108  12.846  0.1383  0.0360  0.1236
 2334DOPS   D2B27385  19.832  25.272  13.235  0.0363 -0.0413  0.3121
 2334DOPS   C3B27386  20.178  25.331  13.482 -0.4214  0.0040 -0.0790
 2334DOPS   C4B27387  20.525  25.495  13.749 -0.1130 -0.0920 -0.0658
 2335DOPC   NC327388  16.192  29.699  12.380  0.2523 -0.1099 -0.3316
 2335DOPC   PO427389  16.322  30.040  12.151 -0.1118  0.3913 -0.2261
 2335DOPC   GL127390  16.578  29.891  12.512 -0.2310  0.0656 -0.2496
 2335DOPC   GL227391  16.541  29.599  12.699  0.0983  0.1364 -0.0360
 2335DOPC   C1A27392  16.716  29.509  12.260 -0.0813 -0.0675 -0.3080
 2335DOPC   D2A27393  16.381  29.137  12.202  0.0401  0.0331  0.1016
 2335DOPC   C3A27394  16.425  28.754  12.291 -0.1236  0.0474 -0.1465
 2335DOPC   C4A27395  16.621  28.361  12.468  0.0778 -0.1411 -0.1250
 2335DOPC   C1B27396  16.916  29.343  12.704  0.0152 -0.0205  0.0340
 2335DOPC   D2B27397  17.070  28.961  12.911  0.0438 -0.0258 -0.2267
 2335DOPC   C3B27398  17.050  28.653  12.582 -0.0611 -0.3266  0.2093
 2335DOPC   C4B27399  17.308  28.290  12.631 -0.0433  0.0412  0.2212
 2336DOPS   CNO27400  12.107  33.538  12.009 -0.2354  0.2235 -0.2564
 2336DOPS   PO427401  12.198  33.432  12.357  0.2821 -0.1258 -0.1334
 2336DOPS   GL127402  12.151  33.250  12.704 -0.4598 -0.2959 -0.1621
 2336DOPS   GL227403  12.223  33.473  12.909  0.0964  0.1886  0.0217
 2336DOPS   C1A27404  12.062  32.809  12.806  0.1065  0.0246  0.2983
 2336DOPS   D2A27405  11.924  32.469  13.022  0.0051 -0.1859 -0.2867
 2336DOPS   C3A27406  11.489  32.595  13.037  0.1549 -0.0678  0.0878
 2336DOPS   C4A27407  11.238  32.895  13.092 -0.0309  0.0078  0.2409
 2336DOPS   C1B27408  12.127  33.088  13.198 -0.1670 -0.1098 -0.1814
 2336DOPS   D2B27409  12.208  32.691  13.394 -0.0070  0.0234 -0.0049
 2336DOPS   C3B27410  12.131  32.296  13.563  0.2473  0.1242  0.1650
 2336DOPS   C4B27411  11.895  32.007  13.828  0.2397 -0.0977  0.0219
 2337DOPE   NH327412  15.628  30.653  12.661  0.0741 -0.1735 -0.1010
 2337DOPE   PO427413  15.703  30.571  12.348  0.3824  0.0200  0.0249
 2337DOPE   GL127414  16.142  30.849  12.337 -0.0109  0.0217  0.1262
 2337DOPE   GL227415  16.393  30.904  12.509 -0.0439  0.0177 -0.2005
 2337DOPE   C1A27416  16.415  31.226  12.150  0.1704 -0.1005 -0.0338
 2337DOPE   D2A27417  16.713  31.628  12.040  0.2523  0.0103  0.1143
 2337DOPE   C3A27418  17.171  31.745  12.115 -0.0613 -0.0001 -0.0463
 2337DOPE   C4A27419  17.588  31.798  12.298 -0.1004 -0.1612 -0.1833
 2337DOPE   C1B27420  16.613  31.311  12.684 -0.1768  0.0549  0.0471
 2337DOPE   D2B27421  16.992  31.521  12.505  0.0091  0.0567  0.0041
 2337DOPE   C3B27422  16.941  32.017  12.534 -0.0512  0.2393 -0.1285
 2337DOPE   C4B27423  17.115  32.488  12.448 -0.0492 -0.0671 -0.1980
 2338DOPE   NH327424  22.648  26.840  12.882 -0.1922 -0.1112  0.0054
 2338DOPE   PO427425  22.802  26.642  12.716  0.0516 -0.2324 -0.1319
 2338DOPE   GL127426  22.663  26.384  13.004  0.3535 -0.2678  0.1482
 2338DOPE   GL227427  22.388  26.421  13.036 -0.2242  0.3278  0.1127
 2338DOPE   C1A27428  22.685  26.227  13.450  0.0038 -0.0887  0.1338
 2338DOPE   D2A27429  22.759  26.573  13.846 -0.1389  0.4907  0.0824
 2338DOPE   C3A27430  22.697  27.035  14.039 -0.0047  0.1325 -0.1273
 2338DOPE   C4A27431  22.753  27.448  14.200 -0.1814 -0.0140 -0.3556
 2338DOPE   C1B27432  22.198  26.148  13.369 -0.0095  0.1785 -0.4488
 2338DOPE   D2B27433  22.367  25.995  13.780  0.1378 -0.1225  0.0721
 2338DOPE   C3B27434  22.856  25.987  13.865  0.1525 -0.1244  0.0222
 2338DOPE   C4B27435  23.153  26.233  14.118 -0.0814  0.0264  0.0094
 2339DOPE   NH327436  18.776  27.162  12.377 -0.3544  0.1085 -0.0693
 2339DOPE   PO427437  18.783  27.487  12.353 -0.1417 -0.1648  0.2339
 2339DOPE   GL127438  18.719  27.658  12.740 -0.0668  0.0343 -0.0825
 2339DOPE   GL227439  18.739  27.362  12.928 -0.0569  0.2690 -0.1736
 2339DOPE   C1A27440  18.526  27.738  13.170 -0.2322 -0.0260 -0.0527
 2339DOPE   D2A27441  18.334  27.720  13.587  0.1142 -0.3288 -0.2098
 2339DOPE   C3A27442  18.250  27.308  13.796  0.3183  0.0027  0.0179
 2339DOPE   C4A27443  18.425  26.884  13.747 -0.2318  0.0084 -0.1826
 2339DOPE   C1B27444  18.952  27.149  13.264  0.1417  0.2162  0.1115
 2339DOPE   D2B27445  19.282  26.836  13.185 -0.0368 -0.0312  0.0556
 2339DOPE   C3B27446  19.396  26.561  13.546 -0.4866 -0.1261 -0.1183
 2339DOPE   C4B27447  19.506  26.245  13.912 -0.0614 -0.0350 -0.2218
 2340DOPC   NC327448  16.869  25.648  11.655  0.1764 -0.2180  0.1876
 2340DOPC   PO427449  17.060  25.737  11.929 -0.1269 -0.2139  0.1351
 2340DOPC   GL127450  16.927  25.528  12.245 -0.0932  0.0249  0.1599
 2340DOPC   GL227451  16.867  25.714  12.429 -0.2855  0.0944  0.0031
 2340DOPC   C1A27452  17.157  25.200  12.492 -0.2060  0.1123  0.3365
 2340DOPC   D2A27453  17.206  25.060  12.921  0.2651  0.0170  0.3341
 2340DOPC   C3A27454  17.204  24.586  12.956 -0.1593  0.3385  0.1570
 2340DOPC   C4A27455  17.154  24.175  12.858 -0.2762 -0.3593  0.0042
 2340DOPC   C1B27456  16.744  25.438  12.715 -0.0143 -0.1948 -0.0455
 2340DOPC   D2B27457  16.751  25.098  13.042  0.2788  0.1989  0.2345
 2340DOPC   C3B27458  16.758  25.175  13.517  0.1348 -0.0693 -0.0909
 2340DOPC   C4B27459  16.472  25.426  13.728 -0.3009  0.1485  0.2938
 2341DOPS   CNO27460  22.970  30.272  12.453 -0.0497 -0.1026 -0.1263
 2341DOPS   PO427461  22.789  30.430  12.739  0.0861  0.2070 -0.5607
 2341DOPS   GL127462  22.683  30.685  12.991  0.3232 -0.0332 -0.4916
 2341DOPS   GL227463  22.932  30.820  13.086 -0.0794 -0.0153 -0.0304
 2341DOPS   C1A27464  22.621  30.568  13.452 -0.2105 -0.2193  0.0975
 2341DOPS   D2A27465  22.420  30.651  13.904  0.0184 -0.2161 -0.1103
 2341DOPS   C3A27466  22.659  30.903  14.213  0.0445  0.1094 -0.0589
 2341DOPS   C4A27467  22.874  31.164  14.487 -0.3962 -0.2060 -0.0930
 2341DOPS   C1B27468  23.017  31.258  13.285  0.0253  0.1244 -0.0153
 2341DOPS   D2B27469  22.958  31.552  13.660 -0.0007 -0.2142  0.1590
 2341DOPS   C3B27470  23.243  31.825  13.791 -0.3545 -0.2435 -0.1165
 2341DOPS   C4B27471  23.443  32.050  14.121 -0.3463 -0.1552  0.1430
 2342DOPS   CNO27472  18.922  33.694  12.230 -0.0163  0.0301 -0.0814
 2342DOPS   PO427473  18.909  33.411  12.469 -0.0336 -0.1265  0.0124
 2342DOPS   GL127474  19.208  33.367  12.673  0.0471  0.0465 -0.2333
 2342DOPS   GL227475  19.078  33.410  12.937 -0.1444  0.3003 -0.3513
 2342DOPS   C1A27476  19.691  33.360  12.804  0.0251 -0.0357  0.0319
 2342DOPS   D2A27477  19.822  33.101  13.130 -0.3533  0.0866  0.0067
 2342DOPS   C3A27478  19.627  33.250  13.529 -0.0371 -0.3761 -0.2511
 2342DOPS   C4A27479  19.740  33.403  13.999  0.1027 -0.0397 -0.1061
 2342DOPS   C1B27480  18.767  33.058  13.080 -0.1134 -0.2211  0.0869
 2342DOPS   D2B27481  18.530  32.775  13.389 -0.1644  0.2362  0.1343
 2342DOPS   C3B27482  18.177  32.567  13.647  0.1602  0.2753 -0.1647
 2342DOPS   C4B27483  17.755  32.713  13.707 -0.1419  0.0504 -0.1138
 2343DOPC   NC327484  17.755  32.817  12.293  0.1135 -0.4184  0.1255
 2343DOPC   PO427485  17.783  32.871  12.670  0.2389  0.1264 -0.0889
 2343DOPC   GL127486  18.189  32.755  12.596 -0.0610 -0.3225 -0.1428
 2343DOPC   GL227487  18.171  32.608  12.324 -0.2877 -0.0263 -0.1936
 2343DOPC   C1A27488  18.507  32.578  12.929  0.1625 -0.2155  0.0498
 2343DOPC   D2A27489  18.724  32.353  13.288 -0.0270 -0.0181  0.0296
 2343DOPC   C3A27490  19.127  32.135  13.475  0.2964  0.1287  0.4215
 2343DOPC   C4A27491  19.414  31.766  13.358  0.2394 -0.0552 -0.4154
 2343DOPC   C1B27492  18.415  32.283  12.469  0.0317  0.0626 -0.3347
 2343DOPC   D2B27493  18.438  31.816  12.492 -0.1176 -0.0152 -0.3720
 2343DOPC   C3B27494  18.829  31.528  12.560  0.3408  0.0336  0.0472
 2343DOPC   C4B27495  19.158  31.218  12.432  0.0576  0.0098  0.1474
 2344DOPS   CNO27496  13.944  27.581  11.766 -0.0413  0.1679  0.3827
 2344DOPS   PO427497  14.095  27.250  11.891 -0.0515  0.0456  0.0805
 2344DOPS   GL127498  14.081  27.150  12.237 -0.2069 -0.3986 -0.3216
 2344DOPS   GL227499  14.358  27.200  12.342  0.0786 -0.1592  0.1029
 2344DOPS   C1A27500  13.887  27.212  12.679  0.2160 -0.1931 -0.1681
 2344DOPS   D2A27501  13.738  27.317  13.108 -0.0979  0.0733  0.4174
 2344DOPS   C3A27502  13.874  27.126  13.514  0.0101  0.1235  0.1513
 2344DOPS   C4A27503  13.774  26.881  13.884  0.0906 -0.1908  0.1322
 2344DOPS   C1B27504  14.816  27.017  12.492  0.0573 -0.1169  0.1772
 2344DOPS   D2B27505  15.232  27.055  12.627 -0.1062  0.2283 -0.1867
 2344DOPS   C3B27506  15.600  26.754  12.632 -0.3559  0.1119 -0.0011
 2344DOPS   C4B27507  15.666  26.327  12.853 -0.1938 -0.0715 -0.2311
 2345DOPS   CNO27508  15.114  30.067  12.369  0.0664 -0.4816  0.1268
 2345DOPS   PO427509  15.260  30.320  12.602  0.2754 -0.1717  0.2050
 2345DOPS   GL127510  15.417  30.244  12.985  0.2860  0.2093 -0.3874
 2345DOPS   GL227511  15.415  30.494  13.140  0.1530 -0.0515 -0.3977
 2345DOPS   C1A27512  15.637  29.879  13.154  0.0354 -0.1705  0.3255
 2345DOPS   D2A27513  15.751  29.379  13.097  0.1458  0.1089 -0.4486
 2345DOPS   C3A27514  16.056  29.153  13.292 -0.3937 -0.0521  0.1757
 2345DOPS   C4A27515  16.315  28.766  13.188 -0.0195 -0.5307 -0.1760
 2345DOPS   C1B27516  15.627  30.256  13.499  0.1788 -0.1948 -0.0181
 2345DOPS   D2B27517  15.566  29.867  13.775 -0.1417 -0.1873 -0.1548
 2345DOPS   C3B27518  15.642  29.471  14.007 -0.1986  0.3993 -0.0050
 2345DOPS   C4B27519  15.514  29.079  14.115  0.0241 -0.1708 -0.1887
 2346DOPC   NC327520  14.126  31.724  12.113 -0.0612 -0.0608 -0.2261
 2346DOPC   PO427521  14.071  31.417  12.359  0.0426  0.2206  0.1400
 2346DOPC   GL127522  13.863  31.386  12.700 -0.1469 -0.2030 -0.0989
 2346DOPC   GL227523  13.562  31.534  12.688 -0.1081  0.4397 -0.2355
 2346DOPC   C1A27524  13.875  31.624  13.138 -0.3303  0.0267  0.1502
 2346DOPC   D2A27525  13.855  32.025  13.383  0.2942  0.0764 -0.0069
 2346DOPC   C3A27526  13.988  31.829  13.788 -0.1137  0.2032  0.0709
 2346DOPC   C4A27527  14.216  31.791  14.187 -0.1698  0.1839  0.2111
 2346DOPC   C1B27528  13.562  31.925  12.426 -0.0413 -0.2294 -0.4112
 2346DOPC   D2B27529  13.496  32.397  12.448  0.1867  0.0079 -0.1495
 2346DOPC   C3B27530  13.750  32.564  12.787  0.1266  0.1314  0.0135
 2346DOPC   C4B27531  14.099  32.877  12.908 -0.2812 -0.0665  0.0320
 2347DOPE   NH327532  22.031  23.543  12.167 -0.1605  0.2488 -0.0553
 2347DOPE   PO427533  21.736  23.480  12.170 -0.0068  0.3040 -0.0768
 2347DOPE   GL127534  21.875  23.454  12.617 -0.3248  0.0102  0.2325
 2347DOPE   GL227535  21.621  23.657  12.638  0.3353  0.0492  0.3812
 2347DOPE   C1A27536  22.016  23.485  13.071  0.0481  0.1752 -0.0678
 2347DOPE   D2A27537  21.990  23.400  13.544 -0.2709  0.1854  0.0644
 2347DOPE   C3A27538  22.271  23.020  13.628  0.2064  0.0255  0.0080
 2347DOPE   C4A27539  22.535  22.715  13.750  0.0908 -0.1984 -0.3396
 2347DOPE   C1B27540  21.540  23.680  13.063  0.0755  0.0759  0.0590
 2347DOPE   D2B27541  21.271  23.931  13.331  0.0874  0.2394  0.2220
 2347DOPE   C3B27542  21.513  24.250  13.531 -0.1054  0.2383  0.1414
 2347DOPE   C4B27543  21.573  24.664  13.774  0.0572  0.2847 -0.3228
 2348DOPE   NH327544  11.739  33.975  12.154  0.2392 -0.0957  0.1122
 2348DOPE   PO427545  11.507  33.999  12.346 -0.1730 -0.1093 -0.3228
 2348DOPE   GL127546  11.549  33.968  12.734  0.0299  0.0551 -0.3539
 2348DOPE   GL227547  11.783  34.178  12.760  0.0648 -0.0451  0.2519
 2348DOPE   C1A27548  11.442  33.985  13.186  0.0760  0.1962 -0.0897
 2348DOPE   D2A27549  11.227  33.910  13.552 -0.4733  0.1455 -0.1643
 2348DOPE   C3A27550  11.365  33.998  13.970 -0.0022 -0.1312  0.1839
 2348DOPE   C4A27551  11.655  33.955  14.360  0.0032  0.2708  0.1462
 2348DOPE   C1B27552  11.945  33.981  13.141  0.2832 -0.1071 -0.2320
 2348DOPE   D2B27553  12.255  34.182  13.419  0.1697  0.3352  0.3144
 2348DOPE   C3B27554  12.578  33.914  13.591 -0.1408 -0.0057 -0.3741
 2348DOPE   C4B27555  12.574  33.611  13.929  0.1678  0.1253 -0.2116
 2349POSM   NC327556  18.296  26.231  12.312 -0.2370 -0.4281 -0.0715
 2349POSM   PO427557  18.102  26.511  12.407  0.0217 -0.0455 -0.1206
 2349POSM   AM127558  18.104  26.316  12.727  0.2371 -0.0411 -0.1117
 2349POSM   AM227559  18.234  26.147  12.923 -0.0399  0.1634  0.0105
 2349POSM   T1A27560  17.847  26.361  13.173 -0.0951  0.0756  0.1412
 2349POSM   C2A27561  17.739  26.305  13.619  0.1184  0.1297  0.1568
 2349POSM   C3A27562  17.540  26.122  14.010  0.1562  0.1361 -0.0602
 2349POSM   C1B27563  18.280  26.066  13.256 -0.0153 -0.0780  0.0345
 2349POSM   D2B27564  18.156  25.956  13.645 -0.2042 -0.2354  0.2296
 2349POSM   C3B27565  18.093  26.283  13.953 -0.0552 -0.0831 -0.4496
 2349POSM   C4B27566  18.111  26.379  14.390 -0.4099  0.3387 -0.1092
 2350DOPS   CNO27567  20.636  34.105  12.282 -0.1220 -0.0560  0.0654
 2350DOPS   PO427568  20.753  33.868  12.545  0.0679  0.0444  0.0134
 2350DOPS   GL127569  20.538  33.580  12.785 -0.1862 -0.0515 -0.1284
 2350DOPS   GL227570  20.699  33.357  12.837  0.1824 -0.0274 -0.2150
 2350DOPS   C1A27571  20.261  33.184  12.758  0.3829 -0.1515 -0.0802
 2350DOPS   D2A27572  20.022  32.791  12.794 -0.0236  0.2177 -0.0755
 2350DOPS   C3A27573  20.070  32.392  13.069  0.0731 -0.1039 -0.0248
 2350DOPS   C4A27574  20.255  32.097  13.338  0.0672  0.0295  0.1664
 2350DOPS   C1B27575  20.487  33.408  13.268  0.0603 -0.0158  0.1496
 2350DOPS   D2B27576  20.577  33.119  13.627 -0.0177 -0.0687 -0.0741
 2350DOPS   C3B27577  21.016  33.133  13.698 -0.0786 -0.3301 -0.0377
 2350DOPS   C4B27578  21.308  33.434  13.595 -0.0571 -0.0234 -0.2291
 2351DOPC   NC327579  19.024  24.183  11.327 -0.4334 -0.2995 -0.1088
 2351DOPC   PO427580  18.867  24.388  11.633  0.2643  0.1588  0.2067
 2351DOPC   GL127581  18.575  24.397  11.886 -0.3539 -0.2505 -0.1069
 2351DOPC   GL227582  18.760  24.721  12.007  0.1489 -0.4010  0.0105
 2351DOPC   C1A27583  18.152  24.622  12.023 -0.0361 -0.0261  0.4503
 2351DOPC   D2A27584  17.883  24.954  12.256 -0.2364  0.1140  0.2268
 2351DOPC   C3A27585  18.245  25.240  12.327 -0.1261  0.0130  0.1837
 2351DOPC   C4A27586  18.646  25.073  12.393 -0.0573  0.1961 -0.1654
 2351DOPC   C1B27587  18.480  24.637  12.397 -0.0948 -0.2271  0.1573
 2351DOPC   D2B27588  18.472  24.781  12.844 -0.0157 -0.0353  0.1669
 2351DOPC   C3B27589  18.604  24.489  13.183  0.3230  0.0428 -0.0046
 2351DOPC   C4B27590  18.395  24.380  13.603  0.2624 -0.0216 -0.0457
 2352DOPE   NH327591  10.330  26.009  12.016 -0.0445 -0.3472 -0.0745
 2352DOPE   PO427592  10.447  26.288  12.106  0.0922 -0.0142  0.0143
 2352DOPE   GL127593  10.795  26.378  12.288 -0.1040 -0.0594 -0.0204
 2352DOPE   GL227594  10.684  26.329  12.513 -0.1535  0.0089  0.2032
 2352DOPE   C1A27595  11.254  26.170  12.351  0.1840 -0.0943  0.2764
 2352DOPE   D2A27596  11.538  26.110  12.724 -0.0932 -0.3202 -0.0334
 2352DOPE   C3A27597  11.783  25.723  12.802 -0.2653 -0.0018 -0.4586
 2352DOPE   C4A27598  12.265  25.703  12.963  0.0937 -0.2364 -0.2643
 2352DOPE   C1B27599  11.078  26.361  12.791  0.2390  0.0520 -0.5096
 2352DOPE   D2B27600  11.393  26.565  13.012  0.2275 -0.0166 -0.1735
 2352DOPE   C3B27601  11.737  26.289  13.192 -0.1556  0.2906 -0.2005
 2352DOPE   C4B27602  11.873  25.860  13.307 -0.1520  0.2925 -0.0486
 2353DOPS   CNO27603  17.751  26.327  11.996  0.2621 -0.1269  0.1259
 2353DOPS   PO427604  17.824  26.039  12.214  0.3971  0.0391 -0.1650
 2353DOPS   GL127605  17.826  25.801  12.557  0.0165  0.0371  0.0306
 2353DOPS   GL227606  18.117  25.770  12.491 -0.1526  0.2559 -0.0823
 2353DOPS   C1A27607  17.726  25.314  12.677  0.0768  0.0679 -0.2414
 2353DOPS   D2A27608  17.577  24.899  12.611  0.1802 -0.1008  0.1308
 2353DOPS   C3A27609  17.309  24.571  12.417  0.0866 -0.3106  0.0348
 2353DOPS   C4A27610  17.229  24.314  12.029 -0.0049  0.1437 -0.2461
 2353DOPS   C1B27611  18.568  25.684  12.500 -0.3800 -0.2614 -0.2571
 2353DOPS   D2B27612  18.975  25.645  12.646  0.1667 -0.3294  0.2520
 2353DOPS   C3B27613  18.977  25.554  13.120  0.0847 -0.5406 -0.0666
 2353DOPS   C4B27614  19.129  25.667  13.519  0.1912  0.1913 -0.2515
 2354DOPS   CNO27615  20.859  30.551  12.231 -0.1065 -0.2261  0.1445
 2354DOPS   PO427616  21.131  30.796  12.296 -0.0698  0.0889  0.1727
 2354DOPS   GL127617  21.352  31.172  12.387 -0.0888  0.0301  0.0397
 2354DOPS   GL227618  21.563  31.289  12.645  0.1970 -0.2135 -0.2489
 2354DOPS   C1A27619  21.015  31.477  12.501  0.2607 -0.2794 -0.2065
 2354DOPS   D2A27620  20.536  31.526  12.435 -0.1279  0.0719 -0.1288
 2354DOPS   C3A27621  20.262  31.918  12.445  0.0477 -0.0205 -0.0372
 2354DOPS   C4A27622  20.221  32.357  12.554  0.0913 -0.1362 -0.1008
 2354DOPS   C1B27623  21.498  31.722  12.646  0.0083  0.1012  0.1300
 2354DOPS   D2B27624  21.412  32.191  12.734  0.1962  0.1657 -0.1969
 2354DOPS   C3B27625  21.041  32.498  12.584 -0.0217  0.1720  0.2120
 2354DOPS   C4B27626  21.153  32.800  12.235  0.0577 -0.1617  0.0599
 2355DOPE   NH327627  11.729  33.584  12.625  0.2099 -0.1832 -0.1151
 2355DOPE   PO427628  11.646  33.521  12.314  0.0835  0.2040  0.1465
 2355DOPE   GL127629  11.473  33.170  12.637  0.0576  0.1808 -0.1754
 2355DOPE   GL227630  11.417  32.960  12.531  0.1200 -0.0425  0.1761
 2355DOPE   C1A27631  11.695  33.065  12.970 -0.3140 -0.0258  0.1157
 2355DOPE   D2A27632  11.737  32.913  13.399  0.0258  0.2636  0.0116
 2355DOPE   C3A27633  11.663  33.231  13.633  0.0301 -0.0719 -0.1330
 2355DOPE   C4A27634  11.675  33.647  13.684  0.2361  0.0695  0.2425
 2355DOPE   C1B27635  11.115  32.614  12.575 -0.0182 -0.1963  0.1133
 2355DOPE   D2B27636  11.158  32.142  12.414 -0.3398  0.0308  0.2578
 2355DOPE   C3B27637  11.191  31.868  12.738  0.0735 -0.2152 -0.1711
 2355DOPE   C4B27638  11.146  31.688  13.149 -0.0282 -0.1056  0.0394
 2356DOPE   NH327639  15.594  29.679  12.249  0.0269 -0.3728  0.0883
 2356DOPE   PO427640  15.635  29.519  12.527 -0.1854  0.0860  0.3253
 2356DOPE   GL127641  15.940  29.338  12.396  0.0097 -0.1613  0.0520
 2356DOPE   GL227642  15.853  29.210  12.187 -0.1007 -0.4450 -0.2393
 2356DOPE   C1A27643  16.218  29.231  12.736 -0.3074  0.1009  0.0475
 2356DOPE   D2A27644  16.527  29.182  13.119  0.0302 -0.2067  0.1889
 2356DOPE   C3A27645  16.817  29.551  13.197  0.1018  0.0249 -0.2473
 2356DOPE   C4A27646  17.148  29.856  13.129 -0.2299 -0.0568 -0.3315
 2356DOPE   C1B27647  15.970  28.845  12.460 -0.0791 -0.0854  0.0139
 2356DOPE   D2B27648  16.189  28.535  12.723  0.0719 -0.0277  0.1993
 2356DOPE   C3B27649  15.973  28.255  12.973  0.0779  0.1220  0.2361
 2356DOPE   C4B27650  15.901  27.803  13.078 -0.0394 -0.2443  0.0920
 2357POSM   NC327651  22.640  24.078  11.884  0.0724 -0.2707  0.0493
 2357POSM   PO427652  22.456  23.894  12.176  0.0367 -0.1350 -0.0377
 2357POSM   AM127653  22.251  24.000  12.460  0.2949 -0.1078  0.4218
 2357POSM   AM227654  22.057  23.859  12.635 -0.0213 -0.0411  0.1728
 2357POSM   T1A27655  22.199  24.345  12.787  0.0644  0.0513 -0.0829
 2357POSM   C2A27656  22.283  24.709  13.086 -0.3086  0.0977 -0.0776
 2357POSM   C3A27657  22.406  25.141  13.063  0.0632  0.1186  0.1580
 2357POSM   C1B27658  21.900  23.979  12.946 -0.3599 -0.1018  0.2428
 2357POSM   D2B27659  21.939  24.327  13.256  0.5640 -0.0432  0.0117
 2357POSM   C3B27660  22.075  24.254  13.666  0.0135  0.0626  0.0986
 2357POSM   C4B27661  22.099  23.869  13.898  0.0514 -0.2937  0.0777
 2358DOPC   NC327662  19.632  27.505  12.385  0.0013  0.3049 -0.0555
 2358DOPC   PO427663  19.916  27.802  12.431  0.2955 -0.1017 -0.2826
 2358DOPC   GL127664  20.027  27.720  12.854  0.2464  0.1271 -0.1697
 2358DOPC   GL227665  19.769  27.593  12.849 -0.4420 -0.0115  0.2004
 2358DOPC   C1A27666  20.406  27.821  13.112  0.1383 -0.3750 -0.1142
 2358DOPC   D2A27667  20.659  27.950  13.475  0.0054 -0.1727  0.2019
 2358DOPC   C3A27668  20.415  28.058  13.875  0.0471  0.2285  0.2929
 2358DOPC   C4A27669  20.168  28.234  14.172  0.1695  0.2133 -0.2164
 2358DOPC   C1B27670  19.631  27.650  13.257  0.0597 -0.0480  0.1366
 2358DOPC   D2B27671  19.708  27.765  13.653 -0.6209  0.1615 -0.1733
 2358DOPC   C3B27672  19.735  28.008  14.052  0.0176 -0.0720  0.1976
 2358DOPC   C4B27673  19.386  28.043  14.368 -0.1230 -0.0158 -0.0218
 2359DOPC   NC327674  14.915  29.315  12.152  0.3370  0.0029 -0.1346
 2359DOPC   PO427675  15.311  29.231  12.250  0.2008  0.3010  0.5509
 2359DOPC   GL127676  15.435  28.932  12.468  0.2159  0.1633 -0.1265
 2359DOPC   GL227677  15.477  29.041  12.753 -0.2756 -0.0855  0.2322
 2359DOPC   C1A27678  15.436  28.534  12.728  0.1413 -0.1862  0.0484
 2359DOPC   D2A27679  15.127  28.242  12.937  0.2038  0.1496 -0.2538
 2359DOPC   C3A27680  15.038  28.262  13.386 -0.1544 -0.1768  0.0089
 2359DOPC   C4A27681  14.806  28.245  13.725  0.2263  0.0350  0.0744
 2359DOPC   C1B27682  15.834  28.851  12.949  0.1589 -0.1060  0.0289
 2359DOPC   D2B27683  15.900  28.590  13.362  0.1120 -0.1198  0.0705
 2359DOPC   C3B27684  16.258  28.265  13.396 -0.5439 -0.1593  0.2494
 2359DOPC   C4B27685  16.598  28.460  13.712  0.0053 -0.3112  0.1870
 2360DOPE   NH327686  20.445  34.280  12.694  0.1490 -0.0484 -0.0437
 2360DOPE   PO427687  20.530  34.569  12.653 -0.0288 -0.1344 -0.2151
 2360DOPE   GL127688  20.523  34.664  13.014  0.0163 -0.0197 -0.2005
 2360DOPE   GL227689  20.757  34.458  13.156  0.0066  0.2188 -0.0814
 2360DOPE   C1A27690  20.281  35.005  13.264  0.0403  0.0587 -0.0827
 2360DOPE   D2A27691  20.057  35.295  13.600  0.4794 -0.0403  0.1128
 2360DOPE   C3A27692  19.889  35.667  13.836  0.1637  0.0430  0.0317
 2360DOPE   C4A27693  19.691  36.030  14.014  0.6383 -0.1069 -0.0864
 2360DOPE   C1B27694  21.017  34.148  13.410  0.3647 -0.0981 -0.2712
 2360DOPE   D2B27695  20.918  33.750  13.490  0.0535 -0.0788  0.0671
 2360DOPE   C3B27696  20.959  33.337  13.248 -0.1049  0.0643  0.2475
 2360DOPE   C4B27697  21.143  32.886  13.277 -0.1676  0.1927  0.1588
 2361POSM   NC327698  21.838  34.456  12.201  0.0047 -0.0353  0.2796
 2361POSM   PO427699  22.133  34.597  12.373  0.1398 -0.3013 -0.0131
 2361POSM   AM127700  22.049  34.470  12.675 -0.0839  0.3243 -0.0008
 2361POSM   AM227701  22.082  34.406  12.928 -0.2989  0.1517 -0.2296
 2361POSM   T1A27702  21.752  34.101  12.778  0.1731 -0.0356 -0.2876
 2361POSM   C2A27703  21.574  33.660  12.677  0.2772  0.1438 -0.1269
 2361POSM   C3A27704  21.557  33.378  13.057  0.1168 -0.0205  0.0063
 2361POSM   C1B27705  22.098  34.414  13.272  0.2101 -0.0612  0.2269
 2361POSM   D2B27706  22.138  34.632  13.692  0.4390  0.1760 -0.0158
 2361POSM   C3B27707  22.402  34.839  13.989  0.1474 -0.4965  0.3088
 2361POSM   C4B27708  22.312  35.133  14.359 -0.1204  0.0919  0.1030
 2362DOPE   NH327709  18.747  29.329  12.341 -0.4751 -0.0636  0.1102
 2362DOPE   PO427710  18.593  29.424  12.590 -0.0767 -0.2069  0.1182
 2362DOPE   GL127711  18.459  29.522  12.993  0.1471  0.4972  0.4278
 2362DOPE   GL227712  18.450  29.770  13.101 -0.0214 -0.2221  0.4074
 2362DOPE   C1A27713  18.151  29.441  13.359  0.1004 -0.2338  0.5107
 2362DOPE   D2A27714  17.736  29.344  13.551 -0.3142  0.1194  0.0696
 2362DOPE   C3A27715  17.712  29.520  13.989 -0.1468 -0.0660 -0.1560
 2362DOPE   C4A27716  17.873  29.859  14.223 -0.0531 -0.0196  0.0364
 2362DOPE   C1B27717  18.111  30.043  13.307  0.0071 -0.0740  0.1315
 2362DOPE   D2B27718  18.140  29.915  13.766 -0.2268 -0.0265  0.1402
 2362DOPE   C3B27719  18.184  29.460  13.870 -0.2601 -0.3015  0.3586
 2362DOPE   C4B27720  18.199  29.023  13.799 -0.0055  0.0939 -0.1907
 2363DOPC   NC327721  18.639  28.541  12.756 -0.2794 -0.2209 -0.1316
 2363DOPC   PO427722  18.907  28.588  12.453 -0.3279  0.0015  0.1062
 2363DOPC   GL127723  19.215  28.561  12.785  0.0241  0.1823 -0.1328
 2363DOPC   GL227724  19.065  28.433  13.040 -0.1743  0.2085 -0.1298
 2363DOPC   C1A27725  19.405  28.976  12.806 -0.2437 -0.0724 -0.3387
 2363DOPC   D2A27726  19.518  29.433  12.727 -0.1743  0.3242 -0.1258
 2363DOPC   C3A27727  19.949  29.491  12.854  0.3638 -0.2099 -0.0937
 2363DOPC   C4A27728  20.345  29.383  13.040 -0.2643 -0.0559  0.0230
 2363DOPC   C1B27729  19.208  28.567  13.476  0.3683 -0.1498 -0.1266
 2363DOPC   D2B27730  19.399  28.445  13.891 -0.2341 -0.1534 -0.0178
 2363DOPC   C3B27731  19.106  28.391  14.218 -0.0364 -0.0698 -0.0635
 2363DOPC   C4B27732  18.771  28.354  14.535 -0.1826 -0.2295  0.0587
 2364DOPS   CNO27733  13.531  23.806  11.450  0.0861  0.3600  0.0022
 2364DOPS   PO427734  13.558  24.069  11.723  0.4732  0.1197  0.3978
 2364DOPS   GL127735  13.349  24.391  11.795  0.2550  0.5727  0.2823
 2364DOPS   GL227736  13.248  24.452  12.115  0.1493  0.1276 -0.4654
 2364DOPS   C1A27737  12.944  24.508  11.655  0.0816  0.1265  0.0171
 2364DOPS   D2A27738  12.489  24.495  11.600  0.2099 -0.1952 -0.0234
 2364DOPS   C3A27739  12.303  24.831  11.818 -0.0549 -0.2338  0.0430
 2364DOPS   C4A27740  12.178  24.912  12.273 -0.1773 -0.0006 -0.2057
 2364DOPS   C1B27741  13.366  24.498  12.518 -0.0000 -0.1641  0.3579
 2364DOPS   D2B27742  13.230  24.468  12.986  0.0285 -0.2294  0.0833
 2364DOPS   C3B27743  13.622  24.436  13.229 -0.1024 -0.3087  0.0912
 2364DOPS   C4B27744  14.109  24.329  13.184 -0.0612  0.0589  0.1107
 2365DOPE   NH327745  15.271  31.439  12.582  0.2233 -0.0530 -0.2888
 2365DOPE   PO427746  15.115  31.463  12.318  0.1270 -0.2759  0.2327
 2365DOPE   GL127747  15.352  31.798  12.284 -0.1667  0.1095  0.1684
 2365DOPE   GL227748  15.636  31.713  12.308 -0.5737  0.0004 -0.1110
 2365DOPE   C1A27749  15.438  32.181  12.528  0.4591 -0.1940 -0.2695
 2365DOPE   D2A27750  15.326  32.343  12.976  0.1277 -0.1949  0.3108
 2365DOPE   C3A27751  15.731  32.499  13.132 -0.2020  0.1884 -0.3825
 2365DOPE   C4A27752  16.169  32.584  13.217 -0.1377  0.2566  0.1239
 2365DOPE   C1B27753  16.074  31.744  12.323  0.0274  0.2699  0.2051
 2365DOPE   D2B27754  16.282  32.122  12.243 -0.2042 -0.2798  0.0053
 2365DOPE   C3B27755  16.553  32.409  12.426 -0.0742  0.1949 -0.0767
 2365DOPE   C4B27756  16.685  32.415  12.861 -0.2204  0.0735  0.1592
 2366DOPE   NH327757  13.963  28.056  12.053  0.1171  0.0894  0.0094
 2366DOPE   PO427758  14.288  28.094  11.925 -0.3723 -0.0018 -0.2855
 2366DOPE   GL127759  14.573  27.967  12.297  0.2373 -0.0439 -0.0601
 2366DOPE   GL227760  14.482  28.009  12.603  0.1654 -0.1449 -0.0106
 2366DOPE   C1A27761  14.740  27.590  12.531  0.1433  0.1395  0.0762
 2366DOPE   D2A27762  14.871  27.270  12.919 -0.0157 -0.0861  0.1903
 2366DOPE   C3A27763  15.002  27.440  13.387  0.1487 -0.2067  0.1611
 2366DOPE   C4A27764  15.160  27.796  13.697  0.1264 -0.0498 -0.2964
 2366DOPE   C1B27765  14.375  27.623  12.825 -0.0161  0.2070  0.2094
 2366DOPE   D2B27766  14.407  27.162  12.829 -0.1632 -0.1970 -0.5375
 2366DOPE   C3B27767  14.605  26.852  13.126  0.1922 -0.2572  0.1602
 2366DOPE   C4B27768  14.862  26.496  13.302  0.1243 -0.2466 -0.1324
 2367DOPS   CNO27769  22.891  34.558  12.135 -0.0764  0.5277  0.2491
 2367DOPS   PO427770  22.645  34.805  12.277  0.1402  0.0024 -0.1773
 2367DOPS   GL127771  22.587  34.954  12.747 -0.2648 -0.1611 -0.1848
 2367DOPS   GL227772  22.357  34.852  12.841 -0.0608  0.3465  0.0658
 2367DOPS   C1A27773  22.806  35.071  13.155 -0.3106 -0.0134  0.0320
 2367DOPS   D2A27774  23.190  35.025  13.320  0.1471  0.3402  0.4286
 2367DOPS   C3A27775  23.323  34.632  13.608  0.0759 -0.1508 -0.2218
 2367DOPS   C4A27776  23.715  34.593  13.877 -0.3889 -0.3033 -0.3519
 2367DOPS   C1B27777  22.558  34.625  13.252 -0.0905  0.2256 -0.0973
 2367DOPS   D2B27778  22.528  34.290  13.614 -0.1312  0.0555 -0.3212
 2367DOPS   C3B27779  22.915  34.265  13.905  0.0870 -0.0795 -0.0305
 2367DOPS   C4B27780  23.343  34.359  14.146 -0.3058 -0.0508 -0.1817
 2368DOPE   NH327781  23.255  26.541  12.909  0.1464  0.1653  0.1141
 2368DOPE   PO427782  23.220  26.879  12.943 -0.2795  0.1090  0.2318
 2368DOPE   GL127783  22.929  26.691  13.234  0.2098  0.4944 -0.1217
 2368DOPE   GL227784  23.109  26.544  13.400 -0.1171 -0.0682  0.1180
 2368DOPE   C1A27785  22.504  26.652  13.440 -0.0457  0.1273  0.1843
 2368DOPE   D2A27786  22.220  26.829  13.805  0.3260  0.0910 -0.2304
 2368DOPE   C3A27787  22.268  26.406  13.972 -0.1509 -0.1351  0.2321
 2368DOPE   C4A27788  22.081  26.068  14.271  0.1384 -0.2285  0.1288
 2368DOPE   C1B27789  23.106  26.155  13.197 -0.1027  0.1080 -0.0901
 2368DOPE   D2B27790  23.070  25.729  13.094  0.3824  0.2453  0.1651
 2368DOPE   C3B27791  22.731  25.480  12.837 -0.1608 -0.1196 -0.1452
 2368DOPE   C4B27792  22.309  25.461  12.679  0.1569 -0.0116  0.1077
 2369DOPS   CNO27793  16.321  23.786  11.736  0.1500 -0.3351 -0.0372
 2369DOPS   PO427794  16.404  23.737  12.061  0.3772 -0.2714  0.0730
 2369DOPS   GL127795  16.308  24.062  12.140 -0.1717 -0.1229  0.0083
 2369DOPS   GL227796  16.103  24.040  12.346  0.0227 -0.2182 -0.2671
 2369DOPS   C1A27797  16.398  24.447  12.365 -0.1446  0.0760  0.4366
 2369DOPS   D2A27798  16.249  24.857  12.489  0.0000 -0.1741 -0.1485
 2369DOPS   C3A27799  15.800  24.920  12.302 -0.3255  0.0585 -0.2162
 2369DOPS   C4A27800  15.642  25.383  12.303 -0.0007 -0.1667 -0.2074
 2369DOPS   C1B27801  16.359  23.974  12.685  0.0158 -0.3339 -0.0773
 2369DOPS   D2B27802  16.745  23.701  12.793 -0.1722 -0.1125  0.0919
 2369DOPS   C3B27803  17.213  23.645  12.841  0.0693  0.2825  0.0259
 2369DOPS   C4B27804  17.605  23.575  13.148 -0.0715 -0.0945 -0.2658
 2370DOPS   CNO27805  22.197  24.142  11.664 -0.2956 -0.0627  0.4034
 2370DOPS   PO427806  22.199  24.331  12.028  0.1935 -0.0225  0.0958
 2370DOPS   GL127807  22.369  24.442  12.381  0.2573 -0.0993 -0.2705
 2370DOPS   GL227808  22.455  24.782  12.350  0.2485 -0.3422  0.0930
 2370DOPS   C1A27809  22.661  24.421  12.739  0.1339 -0.0844  0.1042
 2370DOPS   D2A27810  22.752  24.472  13.218  0.0756 -0.0519 -0.0116
 2370DOPS   C3A27811  22.508  24.218  13.496  0.0586 -0.0934 -0.1492
 2370DOPS   C4A27812  22.158  23.887  13.397  0.2850 -0.1626 -0.2085
 2370DOPS   C1B27813  22.726  24.968  12.682 -0.2260 -0.1937  0.0616
 2370DOPS   D2B27814  22.957  24.916  13.074  0.0129 -0.1174 -0.0547
 2370DOPS   C3B27815  22.884  25.258  13.324 -0.0505  0.0119 -0.1687
 2370DOPS   C4B27816  23.031  25.484  13.670 -0.1320 -0.2740 -0.1276
 2371DOPC   NC327817  15.828  23.678  12.079  0.1347  0.0305 -0.0169
 2371DOPC   PO427818  15.621  23.771  11.789 -0.0011 -0.0238 -0.2126
 2371DOPC   GL127819  15.724  24.185  12.046  0.0542 -0.0083  0.2054
 2371DOPC   GL227820  15.951  24.194  11.841 -0.2537 -0.1621  0.0316
 2371DOPC   C1A27821  15.474  24.577  12.159 -0.1644  0.0394 -0.2460
 2371DOPC   D2A27822  15.257  24.914  12.428 -0.1104 -0.2958  0.3065
 2371DOPC   C3A27823  15.412  24.750  12.810  0.0541  0.0888 -0.0829
 2371DOPC   C4A27824  15.288  24.688  13.262  0.0388  0.2327  0.0958
 2371DOPC   C1B27825  15.947  24.678  11.889 -0.2432 -0.0622  0.0249
 2371DOPC   D2B27826  16.069  25.160  11.939  0.3077 -0.4439 -0.2787
 2371DOPC   C3B27827  16.184  25.417  12.328 -0.0082  0.1935  0.0407
 2371DOPC   C4B27828  16.031  25.396  12.731  0.1908 -0.3630 -0.1321
 2372DOPC   NC327829  22.464  30.241  13.048 -0.0918 -0.0252  0.0672
 2372DOPC   PO427830  22.285  30.461  12.752  0.0947 -0.4054 -0.2305
 2372DOPC   GL127831  22.055  30.556  13.100  0.2490 -0.3337  0.1655
 2372DOPC   GL227832  22.224  30.713  13.200  0.0297 -0.2230 -0.4849
 2372DOPC   C1A27833  22.153  30.318  13.523  0.0154 -0.2980 -0.1425
 2372DOPC   D2A27834  22.359  30.132  13.905 -0.1822 -0.0589 -0.3526
 2372DOPC   C3A27835  22.128  30.211  14.314 -0.0863 -0.0388 -0.3537
 2372DOPC   C4A27836  21.986  30.497  14.623 -0.0117 -0.1801  0.3799
 2372DOPC   C1B27837  22.029  30.848  13.610 -0.4028 -0.0851 -0.0740
 2372DOPC   D2B27838  21.931  30.663  14.008 -0.1624 -0.2790 -0.3162
 2372DOPC   C3B27839  22.128  30.851  14.364 -0.2803 -0.1709  0.0898
 2372DOPC   C4B27840  22.405  30.987  14.746 -0.4149 -0.3378 -0.1273
 2373DOPE   NH327841  18.254  27.394  12.319 -0.0182 -0.1683 -0.1307
 2373DOPE   PO427842  18.305  27.435  12.669  0.1506  0.0682 -0.2041
 2373DOPE   GL127843  18.282  27.420  12.982  0.1140 -0.1931 -0.2576
 2373DOPE   GL227844  18.050  27.353  13.112  0.0215 -0.1279 -0.1048
 2373DOPE   C1A27845  18.336  27.058  13.301 -0.0677 -0.1923  0.2937
 2373DOPE   D2A27846  18.383  26.566  13.282  0.1799 -0.0108 -0.1895
 2373DOPE   C3A27847  18.584  26.324  13.609  0.0680  0.2382  0.1272
 2373DOPE   C4A27848  18.636  26.436  14.095  0.0328  0.1125 -0.0577
 2373DOPE   C1B27849  17.827  27.335  13.488  0.4088  0.1932  0.1550
 2373DOPE   D2B27850  17.571  27.039  13.757  0.1195  0.0947  0.1401
 2373DOPE   C3B27851  17.645  27.186  14.163  0.0405  0.2012  0.1343
 2373DOPE   C4B27852  17.617  27.573  14.423 -0.1486  0.2375  0.0890
 2374DOPC   NC327853  21.747   0.125  12.650 -0.1749  0.1692 -0.3190
 2374DOPC   PO427854  21.470  -0.114  12.509  0.0154 -0.0837 -0.2103
 2374DOPC   GL127855  21.398  -0.182  12.952  0.4051 -0.1535  0.3386
 2374DOPC   GL227856  21.384  -0.415  13.098  0.2898  0.1395  0.0899
 2374DOPC   C1A27857  21.252  -0.034  13.397  0.0228  0.0499  0.1016
 2374DOPC   D2A27858  21.174   0.315  13.697  0.0308  0.1982  0.0721
 2374DOPC   C3A27859  20.954   0.298  14.090  0.2855 -0.1498  0.1839
 2374DOPC   C4A27860  20.802   0.237  14.447  0.2132  0.0530  0.2586
 2374DOPC   C1B27861  21.633  -0.428  13.421 -0.0194  0.1021 -0.0844
 2374DOPC   D2B27862  21.977  -0.620  13.680  0.3022 -0.3718  0.2230
 2374DOPC   C3B27863  21.786  -0.848  14.030 -0.1760  0.1210  0.3114
 2374DOPC   C4B27864  21.554  -1.102  14.315 -0.2126  0.0374  0.1197
 2375POSM   NC327865  17.526  26.653  12.376 -0.2229  0.2697  0.1414
 2375POSM   PO427866  17.540  26.325  12.564  0.0478  0.3082 -0.3292
 2375POSM   AM127867  17.603  26.187  12.864 -0.1590 -0.1337  0.4409
 2375POSM   AM227868  17.770  25.957  12.956 -0.2110  0.2496  0.0991
 2375POSM   T1A27869  17.450  26.049  13.311  0.5558 -0.6087  0.1347
 2375POSM   C2A27870  17.168  26.067  13.650 -0.0265 -0.2398  0.2344
 2375POSM   C3A27871  16.685  26.191  13.801  0.1978  0.3019  0.3828
 2375POSM   C1B27872  17.860  25.617  13.032  0.1763 -0.0353  0.0600
 2375POSM   D2B27873  17.878  25.295  13.374 -0.2025  0.0281  0.0542
 2375POSM   C3B27874  17.425  25.102  13.506  0.2196 -0.1591  0.2602
 2375POSM   C4B27875  17.134  24.763  13.575 -0.1471 -0.2030  0.0180
 2376DOPC   NC327876  14.489  30.782  12.896  0.1111  0.4072  0.2273
 2376DOPC   PO427877  14.803  30.617  12.683 -0.0348 -0.1009 -0.3140
 2376DOPC   GL127878  15.005  30.796  12.936 -0.2223  0.1413 -0.1687
 2376DOPC   GL227879  15.250  30.940  12.853 -0.0562 -0.0392  0.0146
 2376DOPC   C1A27880  14.865  30.807  13.358  0.1363 -0.2732  0.2710
 2376DOPC   D2A27881  14.577  30.533  13.618 -0.0750  0.0280  0.1632
 2376DOPC   C3A27882  14.258  30.663  13.912  0.0809 -0.1089  0.0758
 2376DOPC   C4A27883  14.042  30.925  14.230  0.0287  0.3293 -0.0290
 2376DOPC   C1B27884  15.185  31.181  13.234  0.2256  0.0796  0.0331
 2376DOPC   D2B27885  14.937  31.321  13.612  0.1896  0.1456  0.1151
 2376DOPC   C3B27886  15.045  31.726  13.868 -0.0194  0.2397  0.2553
 2376DOPC   C4B27887  15.276  32.040  14.051 -0.0886 -0.4076 -0.0770
 2377DOPC   NC327888  18.547  31.142  12.446 -0.1008 -0.3742 -0.1194
 2377DOPC   PO427889  18.347  30.937  12.202  0.1193 -0.0226  0.0498
 2377DOPC   GL127890  18.078  31.173  12.353  0.2278 -0.6506 -0.3606
 2377DOPC   GL227891  18.124  31.069  12.672  0.0354  0.1272  0.0089
 2377DOPC   C1A27892  17.975  31.540  12.627  0.1203  0.1513 -0.0324
 2377DOPC   D2A27893  17.976  31.945  12.897 -0.1524 -0.0895  0.5198
 2377DOPC   C3A27894  18.415  32.069  13.056 -0.1921 -0.0436 -0.2720
 2377DOPC   C4A27895  18.818  32.191  12.810 -0.1428 -0.1267  0.1911
 2377DOPC   C1B27896  18.373  31.253  12.948  0.0819 -0.4656 -0.0867
 2377DOPC   D2B27897  18.663  31.542  13.036  0.0204 -0.0942  0.0729
 2377DOPC   C3B27898  18.923  31.655  13.390  0.0083  0.1740  0.0081
 2377DOPC   C4B27899  19.147  31.709  13.808 -0.2385  0.0966 -0.3163
 2378DOPE   NH327900  14.575  31.548  12.298  0.0834 -0.3259  0.1115
 2378DOPE   PO427901  14.694  31.831  12.250 -0.3473  0.1893 -0.2630
 2378DOPE   GL127902  14.777  32.060  12.559  0.0212 -0.1505  0.3859
 2378DOPE   GL227903  15.044  31.979  12.641 -0.1006 -0.1150 -0.3023
 2378DOPE   C1A27904  14.957  32.482  12.678  0.2692  0.0172 -0.0149
 2378DOPE   D2A27905  15.312  32.793  12.756 -0.1866  0.0364  0.0746
 2378DOPE   C3A27906  15.656  32.614  12.597  0.2729  0.1351 -0.0569
 2378DOPE   C4A27907  16.096  32.722  12.748 -0.0922  0.1310  0.1527
 2378DOPE   C1B27908  14.843  32.101  13.045 -0.0567 -0.0253 -0.0877
 2378DOPE   D2B27909  14.723  32.509  13.265  0.0583 -0.2369  0.0440
 2378DOPE   C3B27910  14.427  32.886  13.353  0.1936 -0.0955 -0.3092
 2378DOPE   C4B27911  13.964  32.831  13.434  0.0217 -0.0072  0.3651
 2379DOPE   NH327912  14.037  34.651  12.580  0.1040 -0.0968 -0.1293
 2379DOPE   PO427913  13.998  34.332  12.479 -0.0391 -0.1961  0.1644
 2379DOPE   GL127914  13.986  34.181  12.815 -0.5443  0.0181 -0.1211
 2379DOPE   GL227915  13.776  34.288  12.914 -0.0883  0.2557  0.0641
 2379DOPE   C1A27916  14.293  33.830  12.792 -0.0610 -0.1573  0.1876
 2379DOPE   D2A27917  14.148  33.365  12.749  0.1344 -0.0625  0.0913
 2379DOPE   C3A27918  13.874  33.335  13.093  0.1917  0.0486 -0.1694
 2379DOPE   C4A27919  13.406  33.386  13.205 -0.4685 -0.0435  0.0116
 2379DOPE   C1B27920  13.431  34.208  13.223  0.0015  0.3023 -0.0893
 2379DOPE   D2B27921  13.107  34.113  13.617  0.2292  0.2039 -0.1779
 2379DOPE   C3B27922  13.062  34.390  14.002 -0.1605  0.2774  0.0365
 2379DOPE   C4B27923  13.026  34.854  14.060  0.1040 -0.1309  0.3095
 2380DOPC   NC327924  10.896  29.937  11.847 -0.1729 -0.0864  0.2701
 2380DOPC   PO427925  10.957  30.064  12.205  0.1630 -0.4699 -0.1773
 2380DOPC   GL127926  11.069  29.955  12.519 -0.1558 -0.2103  0.0854
 2380DOPC   GL227927  11.181  29.702  12.607 -0.3695  0.1470 -0.0538
 2380DOPC   C1A27928  11.458  30.218  12.615  0.2236 -0.0706 -0.1042
 2380DOPC   D2A27929  11.352  30.440  13.033  0.1735 -0.0877  0.0913
 2380DOPC   C3A27930  11.545  30.033  13.092 -0.0821  0.1745  0.1345
 2380DOPC   C4A27931  12.038  29.941  12.996 -0.1842 -0.0337 -0.3884
 2380DOPC   C1B27932  11.177  29.712  13.067  0.1796 -0.0164  0.0674
 2380DOPC   D2B27933  11.256  29.362  13.371 -0.1988 -0.1391  0.0473
 2380DOPC   C3B27934  11.594  29.113  13.613 -0.0201 -0.1466 -0.0131
 2380DOPC   C4B27935  11.759  28.742  13.815  0.2738 -0.0207 -0.2613
 2381DOPE   NH327936  21.570  30.802  12.598  0.0765 -0.0306 -0.1401
 2381DOPE   PO427937  21.792  30.575  12.748  0.4284  0.0392  0.2459
 2381DOPE   GL127938  21.886  30.155  12.903 -0.0996 -0.1679 -0.0045
 2381DOPE   GL227939  21.580  30.077  12.896 -0.2770 -0.1372  0.3102
 2381DOPE   C1A27940  21.977  29.921  13.292 -0.0930  0.0108  0.1590
 2381DOPE   D2A27941  22.309  29.763  13.596 -0.1038 -0.0521 -0.2597
 2381DOPE   C3A27942  22.281  29.444  13.916  0.0641  0.0484 -0.0297
 2381DOPE   C4A27943  22.036  29.144  14.161 -0.2364 -0.0735  0.3578
 2381DOPE   C1B27944  21.676  29.669  12.964 -0.2053  0.2053  0.1022
 2381DOPE   D2B27945  21.877  29.378  13.255  0.4673  0.1108  0.4285
 2381DOPE   C3B27946  21.823  29.566  13.686  0.0093 -0.0096  0.0280
 2381DOPE   C4B27947  21.899  29.961  13.875 -0.2535 -0.3239  0.3760
 2382DOPS   CNO27948  18.474  33.902  12.481  0.3086 -0.1685  0.1682
 2382DOPS   PO427949  18.512  33.592  12.712 -0.0121  0.5217  0.0375
 2382DOPS   GL127950  18.582  33.448  13.078 -0.1931  0.0533 -0.0539
 2382DOPS   GL227951  18.673  33.643  13.290  0.1435  0.2314  0.1266
 2382DOPS   C1A27952  18.449  33.245  13.490 -0.1908 -0.0965 -0.0791
 2382DOPS   D2A27953  18.520  33.026  13.872 -0.0024 -0.2250  0.1412
 2382DOPS   C3A27954  18.334  32.745  14.136  0.0165 -0.1913  0.2257
 2382DOPS   C4A27955  17.984  32.462  14.102  0.0236  0.1233  0.2685
 2382DOPS   C1B27956  18.449  33.983  13.547  0.0193 -0.0859 -0.2076
 2382DOPS   D2B27957  18.382  34.369  13.757  0.3527  0.2169  0.1780
 2382DOPS   C3B27958  18.461  34.465  14.179  0.0679 -0.0708 -0.0287
 2382DOPS   C4B27959  18.637  34.346  14.597 -0.3332 -0.2285 -0.1978
 2383DOPC   NC327960  16.083  34.092  12.273  0.1651 -0.1620 -0.0420
 2383DOPC   PO427961  15.716  34.234  12.210 -0.0475  0.0315  0.3464
 2383DOPC   GL127962  15.571  34.008  12.459  0.1132  0.0031 -0.0688
 2383DOPC   GL227963  15.336  33.926  12.658  0.0587  0.1271  0.0511
 2383DOPC   C1A27964  15.503  33.581  12.278  0.2537 -0.1590  0.0146
 2383DOPC   D2A27965  15.298  33.152  12.292 -0.0421  0.0188  0.1640
 2383DOPC   C3A27966  14.930  33.070  12.590 -0.0723  0.1553  0.1027
 2383DOPC   C4A27967  14.661  32.823  12.892  0.1361  0.0880  0.0589
 2383DOPC   C1B27968  14.986  33.697  12.609  0.2163 -0.0429 -0.0844
 2383DOPC   D2B27969  14.669  33.401  12.831 -0.1143  0.1993 -0.0520
 2383DOPC   C3B27970  14.359  33.486  13.167 -0.0479 -0.2036 -0.3600
 2383DOPC   C4B27971  14.233  33.687  13.561  0.2181 -0.0626  0.1227
 2384POSM   NC327972  21.181  31.329  12.978  0.2560  0.1470  0.1766
 2384POSM   PO427973  21.153  31.006  12.878  0.1196  0.1782  0.1144
 2384POSM   AM127974  21.003  30.877  13.197  0.1049 -0.1011 -0.1064
 2384POSM   AM227975  21.030  30.612  13.331 -0.0771  0.1766 -0.0988
 2384POSM   T1A27976  20.652  30.888  13.548  0.0033 -0.3965 -0.0452
 2384POSM   C2A27977  20.513  30.532  13.745  0.0040  0.1315 -0.3736
 2384POSM   C3A27978  20.518  30.430  14.195  0.2281  0.2324  0.3363
 2384POSM   C1B27979  21.120  30.491  13.662 -0.3248 -0.2994 -0.1477
 2384POSM   D2B27980  21.110  30.421  14.151 -0.0673 -0.1096  0.1162
 2384POSM   C3B27981  20.910  30.233  14.527  0.2771 -0.2066 -0.3560
 2384POSM   C4B27982  20.791  30.136  15.015  0.1997 -0.1614  0.2990
 2385DOPC   NC327983  14.140  29.964  12.653  0.2205  0.1564 -0.0057
 2385DOPC   PO427984  13.979  30.079  12.313  0.0879  0.3062  0.0256
 2385DOPC   GL127985  13.730  29.857  12.467  0.1095 -0.2097 -0.0913
 2385DOPC   GL227986  13.506  29.908  12.323  0.2963 -0.0015  0.1651
 2385DOPC   C1A27987  13.412  29.868  12.823 -0.2014 -0.0972  0.1050
 2385DOPC   D2A27988  13.254  29.824  13.234  0.1103  0.1103  0.0496
 2385DOPC   C3A27989  12.766  29.741  13.355 -0.0877  0.0479 -0.0878
 2385DOPC   C4A27990  12.367  29.854  13.580 -0.0470 -0.1706 -0.0419
 2385DOPC   C1B27991  13.078  29.688  12.456  0.1442  0.0955 -0.5765
 2385DOPC   D2B27992  12.913  29.577  12.928  0.1274  0.1712  0.1103
 2385DOPC   C3B27993  13.117  29.236  13.151  0.0754 -0.3371 -0.3003
 2385DOPC   C4B27994  13.161  28.962  13.517 -0.2282  0.2034 -0.2495
 2386POSM   NC327995  17.427  30.127  12.552  0.0607  0.3260 -0.0443
 2386POSM   PO427996  17.287  30.491  12.557 -0.0702  0.3757  0.1849
 2386POSM   AM127997  17.488  30.560  12.810 -0.0641  0.2326 -0.4961
 2386POSM   AM227998  17.768  30.574  12.879 -0.5544 -0.0332 -0.2134
 2386POSM   T1A27999  17.410  30.780  13.259 -0.2315 -0.0023  0.0839
 2386POSM   C2A28000  17.234  31.115  13.484 -0.0998  0.1341  0.0282
 2386POSM   C3A28001  16.996  31.516  13.566 -0.2622 -0.0361  0.0090
 2386POSM   C1B28002  17.860  30.648  13.175 -0.0833 -0.1022 -0.3586
 2386POSM   D2B28003  18.049  30.873  13.557 -0.1616  0.5077  0.0753
 2386POSM   C3B28004  17.684  31.168  13.780  0.2811  0.1144  0.3342
 2386POSM   C4B28005  17.293  31.215  14.030  0.1839  0.0209  0.1763
 2387DOPE   NH328006  14.478  29.363  12.577  0.0818 -0.0873  0.0276
 2387DOPE   PO428007  14.610  29.636  12.446 -0.1450 -0.1377 -0.2282
 2387DOPE   GL128008  14.504  29.723  12.909 -0.1121  0.1179  0.1787
 2387DOPE   GL228009  14.773  29.553  12.923 -0.0939  0.2498  0.1477
 2387DOPE   C1A28010  14.304  29.674  13.353  0.3046  0.1710  0.0581
 2387DOPE   D2A28011  13.972  29.471  13.603  0.2936  0.0696 -0.1416
 2387DOPE   C3A28012  13.631  29.757  13.700 -0.0198  0.0444  0.2167
 2387DOPE   C4A28013  13.525  30.016  14.120 -0.1501 -0.0955  0.0498
 2387DOPE   C1B28014  14.761  29.209  13.200  0.3149  0.2997 -0.2609
 2387DOPE   D2B28015  14.687  29.114  13.611  0.0547 -0.1464 -0.0942
 2387DOPE   C3B28016  14.405  29.376  13.836 -0.0837 -0.1720  0.0740
 2387DOPE   C4B28017  14.207  29.789  13.959  0.2254  0.2085 -0.0448
 2388DOPE   NH328018  21.299  30.393  12.658  0.4432  0.0848 -0.1578
 2388DOPE   PO428019  21.274  30.505  12.953 -0.0129 -0.3610 -0.2147
 2388DOPE   GL128020  21.397  30.268  13.286  0.0283  0.3271 -0.0802
 2388DOPE   GL228021  21.668  30.386  13.264 -0.2025  0.0589 -0.3269
 2388DOPE   C1A28022  21.530  29.870  13.379  0.1053 -0.0925  0.2478
 2388DOPE   D2A28023  21.333  29.428  13.471 -0.0637 -0.0002 -0.3201
 2388DOPE   C3A28024  21.616  29.119  13.603 -0.1077  0.0240  0.5308
 2388DOPE   C4A28025  22.059  29.139  13.650 -0.2333 -0.2270  0.2524
 2388DOPE   C1B28026  21.656  30.375  13.737  0.1744  0.3891  0.1373
 2388DOPE   D2B28027  21.647  30.305  14.184 -0.2699  0.1834  0.2360
 2388DOPE   C3B28028  21.562  30.606  14.535 -0.1468  0.1408  0.1360
 2388DOPE   C4B28029  21.834  30.960  14.760 -0.1923 -0.1276 -0.2280
 2389DOPS   CNO28030  18.351  23.412  11.521  0.2106  0.1131  0.3428
 2389DOPS   PO428031  18.648  23.268  11.740 -0.1435 -0.0595  0.0044
 2389DOPS   GL128032  18.712  23.049  12.018 -0.2439 -0.1920  0.0789
 2389DOPS   GL228033  18.467  22.957  12.199 -0.2028 -0.0789 -0.0208
 2389DOPS   C1A28034  19.032  22.860  12.303 -0.0918 -0.0458 -0.2900
 2389DOPS   D2A28035  19.183  22.492  12.564  0.0033 -0.1312 -0.0409
 2389DOPS   C3A28036  19.588  22.440  12.818 -0.2820  0.3412  0.1495
 2389DOPS   C4A28037  19.792  22.463  13.217  0.0176 -0.1557  0.1852
 2389DOPS   C1B28038  18.697  23.238  12.558 -0.1371  0.0150  0.0126
 2389DOPS   D2B28039  18.896  23.745  12.614  0.4766 -0.0113  0.2299
 2389DOPS   C3B28040  18.714  23.956  13.000  0.4816 -0.1170 -0.2259
 2389DOPS   C4B28041  19.035  24.133  13.367  0.1261 -0.2226  0.0625
 2390DOPE   NH328042  13.216  23.513  11.744 -0.1494  0.0138  0.0490
 2390DOPE   PO428043  12.910  23.484  11.810  0.2627  0.0349  0.0577
 2390DOPE   GL128044  12.728  23.706  12.073  0.2112 -0.0472  0.4293
 2390DOPE   GL228045  12.483  23.859  11.935 -0.3548 -0.2250  0.5333
 2390DOPE   C1A28046  12.596  23.806  12.497  0.0525  0.3517  0.2299
 2390DOPE   D2A28047  12.450  24.012  12.803 -0.3108 -0.0829  0.1556
 2390DOPE   C3A28048  12.781  24.294  12.959 -0.0788 -0.0890  0.3846
 2390DOPE   C4A28049  12.925  24.342  13.404 -0.0084 -0.3174  0.0121
 2390DOPE   C1B28050  12.652  24.315  12.065  0.4458 -0.1255 -0.0720
 2390DOPE   D2B28051  12.709  24.763  12.073  0.0844 -0.0176 -0.1297
 2390DOPE   C3B28052  12.833  25.231  12.033 -0.0499  0.0646 -0.1804
 2390DOPE   C4B28053  12.808  25.682  12.039 -0.3090  0.2826 -0.0894
 2391DOPE   NH328054  21.640  24.441  11.917 -0.1001 -0.2289  0.1193
 2391DOPE   PO428055  21.373  24.617  12.011 -0.0501  0.0472  0.1918
 2391DOPE   GL128056  21.176  24.499  12.271 -0.0430 -0.1021 -0.0051
 2391DOPE   GL228057  21.124  24.256  12.324  0.2740 -0.1747 -0.1014
 2391DOPE   C1A28058  21.057  24.492  12.731 -0.3916 -0.3189 -0.4062
 2391DOPE   D2A28059  21.076  24.632  13.171  0.0570  0.0673  0.1964
 2391DOPE   C3A28060  21.504  24.743  13.257  0.1697  0.2992 -0.2777
 2391DOPE   C4A28061  21.953  24.858  13.359  0.0655 -0.1182  0.2517
 2391DOPE   C1B28062  20.691  24.179  12.570  0.1341 -0.1646  0.4032
 2391DOPE   D2B28063  20.585  24.396  12.988  0.2661  0.1952 -0.0139
 2391DOPE   C3B28064  20.631  24.634  13.399  0.3718 -0.2036  0.2272
 2391DOPE   C4B28065  20.702  25.066  13.526 -0.0750  0.0265  0.0075
 2392POSM   NC328066  22.907  32.596  12.423  0.1512  0.0299 -0.0580
 2392POSM   PO428067  22.736  32.905  12.557  0.1613  0.2926 -0.0486
 2392POSM   AM128068  22.567  32.775  12.825  0.1459  0.1102  0.4541
 2392POSM   AM228069  22.429  32.792  13.034  0.1496 -0.0104  0.1571
 2392POSM   T1A28070  22.633  32.370  13.150 -0.0065 -0.3782  0.0944
 2392POSM   C2A28071  22.400  32.266  13.534  0.1506 -0.0185  0.0981
 2392POSM   C3A28072  22.045  32.258  13.873  0.1153  0.1637 -0.0943
 2392POSM   C1B28073  22.282  32.691  13.328  0.2128 -0.0047  0.0013
 2392POSM   D2B28074  22.042  32.745  13.734 -0.0315 -0.1480 -0.1157
 2392POSM   C3B28075  22.277  32.997  14.065  0.0220 -0.1502 -0.0701
 2392POSM   C4B28076  22.536  33.127  14.435  0.2233 -0.2695 -0.5683
 2393DOPC   NC328077  22.092  30.854  12.519 -0.2750 -0.1037  0.2089
 2393DOPC   PO428078  22.221  30.952  12.150 -0.0716  0.1789  0.1520
 2393DOPC   GL128079  22.303  31.251  12.502  0.1308  0.2714  0.1146
 2393DOPC   GL228080  22.352  31.478  12.339 -0.1691 -0.0413 -0.0598
 2393DOPC   C1A28081  22.519  31.484  12.868 -0.3006  0.1338  0.0024
 2393DOPC   D2A28082  22.420  31.757  13.300 -0.0962  0.2189  0.1399
 2393DOPC   C3A28083  22.444  31.788  13.791 -0.2407 -0.0369  0.1348
 2393DOPC   C4A28084  22.664  31.537  14.104  0.2443 -0.0232  0.3841
 2393DOPC   C1B28085  22.357  31.979  12.279  0.4395 -0.2197  0.3456
 2393DOPC   D2B28086  22.815  32.118  12.308  0.1489 -0.0986 -0.0486
 2393DOPC   C3B28087  23.031  32.128  12.779  0.0040  0.1259  0.2985
 2393DOPC   C4B28088  23.163  32.421  13.190  0.0247 -0.1548  0.1880
 2394DOPC   NC328089  15.859  23.283  11.673 -0.0016  0.0326  0.3568
 2394DOPC   PO428090  16.097  23.267  11.977 -0.0264 -0.0646 -0.1601
 2394DOPC   GL128091  16.196  23.236  12.332  0.2915 -0.4453 -0.7279
 2394DOPC   GL228092  16.173  23.507  12.444  0.1166 -0.0643  0.2041
 2394DOPC   C1A28093  16.558  23.272  12.642  0.1433  0.2407  0.0637
 2394DOPC   D2A28094  16.791  23.121  12.998 -0.0113  0.1359  0.0449
 2394DOPC   C3A28095  16.762  23.464  13.277 -0.2330 -0.0448  0.2239
 2394DOPC   C4A28096  16.990  23.920  13.292 -0.0070 -0.0669  0.1143
 2394DOPC   C1B28097  15.786  23.599  12.630  0.1015  0.1899 -0.1763
 2394DOPC   D2B28098  15.520  23.339  12.911  0.1194 -0.1648 -0.0638
 2394DOPC   C3B28099  15.537  22.837  12.939 -0.3221 -0.2129 -0.3187
 2394DOPC   C4B28100  15.307  22.487  13.052 -0.1057 -0.1173  0.3824
 2395DOPE   NH328101  14.849  23.787  12.210 -0.0790  0.3067 -0.0708
 2395DOPE   PO428102  14.772  24.013  12.431 -0.0965  0.0775 -0.2800
 2395DOPE   GL128103  15.060  23.926  12.607 -0.3942 -0.3389  0.2584
 2395DOPE   GL228104  15.178  23.691  12.692 -0.0849  0.0592 -0.0337
 2395DOPE   C1A28105  15.164  24.296  12.903 -0.1049  0.1110 -0.0523
 2395DOPE   D2A28106  15.589  24.300  13.069 -0.0102 -0.2062  0.0451
 2395DOPE   C3A28107  15.846  24.559  13.292 -0.0885  0.0949 -0.0876
 2395DOPE   C4A28108  16.053  24.919  13.536 -0.2532  0.0675  0.0293
 2395DOPE   C1B28109  15.438  23.830  13.051  0.0677  0.0601  0.1416
 2395DOPE   D2B28110  15.446  23.995  13.497 -0.2765 -0.5616 -0.0520
 2395DOPE   C3B28111  15.119  24.330  13.539 -0.1889 -0.2891 -0.0055
 2395DOPE   C4B28112  14.901  24.637  13.751  0.2028 -0.1592  0.3039
 2396DOPE   NH328113  19.656  26.749  12.278  0.2540 -0.1809 -0.0110
 2396DOPE   PO428114  19.792  27.028  12.339 -0.0348 -0.2341 -0.0140
 2396DOPE   GL128115  19.919  27.202  12.640  0.1070  0.0635  0.0323
 2396DOPE   GL228116  20.184  27.325  12.469  0.2194  0.0301  0.0351
 2396DOPE   C1A28117  19.965  27.271  13.127 -0.1537 -0.0053 -0.2748
 2396DOPE   D2A28118  20.145  27.465  13.516 -0.0295 -0.0387  0.1259
 2396DOPE   C3A28119  19.781  27.298  13.754  0.2488  0.1021  0.0983
 2396DOPE   C4A28120  19.412  27.107  13.555  0.0604  0.1253  0.3173
 2396DOPE   C1B28121  20.463  27.390  12.858 -0.3402 -0.2952  0.0955
 2396DOPE   D2B28122  20.580  27.354  13.321  0.1957 -0.2926  0.2343
 2396DOPE   C3B28123  20.643  27.490  13.755 -0.1976 -0.1198  0.3841
 2396DOPE   C4B28124  20.702  27.688  14.212  0.0759 -0.2238 -0.0323
 2397POSM   NC328125  16.698  24.160  11.827 -0.2419  0.1267 -0.0093
 2397POSM   PO428126  16.810  23.781  11.791  0.0192  0.0489  0.0806
 2397POSM   AM128127  16.953  23.842  12.084 -0.0894 -0.2554 -0.0473
 2397POSM   AM228128  16.793  23.795  12.357 -0.0888 -0.2433  0.2665
 2397POSM   T1A28129  17.295  24.030  12.401  0.0221 -0.2126 -0.0415
 2397POSM   C2A28130  17.656  24.288  12.571  0.2311  0.0724  0.1949
 2397POSM   C3A28131  18.008  24.649  12.604 -0.0182  0.1130 -0.0824
 2397POSM   C1B28132  16.769  24.121  12.469  0.1535 -0.1144  0.0259
 2397POSM   D2B28133  16.730  24.475  12.782 -0.3101 -0.2284  0.2291
 2397POSM   C3B28134  16.738  24.416  13.241  0.0334 -0.1847 -0.2567
 2397POSM   C4B28135  16.807  24.287  13.709 -0.0332 -0.1340  0.0766
 2398POSM   NC328136  19.147  28.150  12.545  0.3287 -0.1166  0.0296
 2398POSM   PO428137  19.440  27.884  12.590 -0.0068 -0.1406  0.0770
 2398POSM   AM128138  19.471  28.045  12.894 -0.0753 -0.1052 -0.0306
 2398POSM   AM228139  19.364  28.035  13.178  0.3545 -0.1499 -0.0450
 2398POSM   T1A28140  19.832  28.080  13.243  0.0999 -0.0604 -0.0888
 2398POSM   C2A28141  20.223  28.229  13.426  0.0900 -0.0335 -0.0520
 2398POSM   C3A28142  20.588  28.409  13.280 -0.0066 -0.2664  0.2019
 2398POSM   C1B28143  19.294  28.057  13.511 -0.1981  0.1826  0.1961
 2398POSM   D2B28144  19.109  27.919  13.941  0.2016 -0.2710  0.1919
 2398POSM   C3B28145  18.859  27.529  14.019  0.2532 -0.1956 -0.0986
 2398POSM   C4B28146  18.700  27.361  13.601  0.0771  0.1061 -0.0701
 2399POSM   NC328147  12.663  33.585  12.620 -0.0258 -0.0519 -0.0010
 2399POSM   PO428148  12.700  33.550  12.212 -0.2624 -0.1210  0.0465
 2399POSM   AM128149  12.939  33.310  12.231  0.1783 -0.2872 -0.2602
 2399POSM   AM228150  13.048  33.110  12.413  0.0373  0.0146 -0.2172
 2399POSM   T1A28151  13.429  33.218  12.071  0.1303  0.2346  0.1635
 2399POSM   C2A28152  13.733  33.098  11.708 -0.2587  0.1047  0.0474
 2399POSM   C3A28153  13.838  33.303  11.313 -0.0315 -0.1278  0.0629
 2399POSM   C1B28154  13.149  32.829  12.633 -0.0707 -0.1681  0.3028
 2399POSM   D2B28155  13.250  32.485  12.884 -0.1783  0.0547 -0.1051
 2399POSM   C3B28156  12.857  32.303  13.083  0.1367 -0.0243  0.1179
 2399POSM   C4B28157  12.408  32.281  13.116 -0.1063  0.1710 -0.0168
 2400POSM   NC328158  20.973  27.704  12.077  0.4747  0.1890  0.0159
 2400POSM   PO428159  21.165  27.474  11.896  0.0926 -0.0497 -0.1159
 2400POSM   AM128160  21.414  27.351  12.126  0.1063  0.1179  0.1184
 2400POSM   AM228161  21.393  27.331  12.432 -0.1466 -0.0283 -0.2117
 2400POSM   T1A28162  21.811  27.032  12.243  0.1214  0.0638 -0.0447
 2400POSM   C2A28163  21.925  26.553  12.231 -0.3719  0.1140  0.0713
 2400POSM   C3A28164  21.881  26.188  11.992  0.4071 -0.0007 -0.0429
 2400POSM   C1B28165  21.576  27.305  12.722 -0.1588  0.1628  0.1119
 2400POSM   D2B28166  21.634  27.101  13.134 -0.1853 -0.0100  0.0530
 2400POSM   C3B28167  21.859  27.180  13.528 -0.0066  0.2978  0.1038
 2400POSM   C4B28168  21.813  27.079  13.935 -0.4861 -0.1626 -0.2800
 2401DOPC   NC328169  15.310  29.660  12.937 -0.1143 -0.0905 -0.1769
 2401DOPC   PO428170  15.132  29.631  12.561  0.1506  0.0123  0.1069
 2401DOPC   GL128171  15.107  29.335  12.715 -0.0675  0.0191 -0.0249
 2401DOPC   GL228172  14.923  29.152  12.642 -0.1121 -0.2840  0.1536
 2401DOPC   C1A28173  15.255  29.211  13.137 -0.2701  0.1759  0.0741
 2401DOPC   D2A28174  15.571  29.054  13.443  0.1734 -0.1601  0.2401
 2401DOPC   C3A28175  15.717  28.764  13.771  0.2204  0.0884 -0.1816
 2401DOPC   C4A28176  16.156  28.650  13.827  0.0119  0.0320  0.0872
 2401DOPC   C1B28177  15.072  28.803  12.941  0.0761  0.1295  0.0318
 2401DOPC   D2B28178  15.408  28.622  13.225  0.0710  0.0807 -0.3060
 2401DOPC   C3B28179  15.501  28.157  13.249  0.1001 -0.0297 -0.0891
 2401DOPC   C4B28180  15.462  27.732  13.274 -0.0524  0.0552  0.0087
 2402DOPC   NC328181  20.486  24.472  12.023  0.1841  0.1870 -0.0986
 2402DOPC   PO428182  20.829  24.692  12.026 -0.0288 -0.1577 -0.1958
 2402DOPC   GL128183  20.760  24.638  12.370  0.2228  0.1274 -0.3893
 2402DOPC   GL228184  20.650  24.896  12.436 -0.0968  0.1276  0.2224
 2402DOPC   C1A28185  20.295  24.634  12.465  0.1365  0.0262 -0.0339
 2402DOPC   D2A28186  19.987  24.595  12.732  0.1760  0.0446 -0.0862
 2402DOPC   C3A28187  20.092  24.318  13.021  0.0576  0.1348  0.1888
 2402DOPC   C4A28188  19.859  24.148  13.403 -0.1528  0.1951  0.1554
 2402DOPC   C1B28189  20.782  24.961  12.868  0.0313 -0.3303 -0.3403
 2402DOPC   D2B28190  21.068  25.123  13.152  0.2018 -0.0096 -0.1502
 2402DOPC   C3B28191  21.188  25.043  13.612  0.0065 -0.1911  0.2582
 2402DOPC   C4B28192  21.225  24.924  14.065  0.2352 -0.2910 -0.0317
 2403DOPE   NH328193  20.834  30.674  12.706 -0.2780  0.1091  0.2502
 2403DOPE   PO428194  20.746  30.541  12.953  0.0139  0.0574 -0.2175
 2403DOPE   GL128195  20.423  30.428  13.139 -0.0341 -0.0640  0.5708
 2403DOPE   GL228196  20.260  30.699  13.195 -0.0022  0.0996 -0.0321
 2403DOPE   C1A28197  20.569  30.146  13.477  0.3166  0.0535  0.3589
 2403DOPE   D2A28198  20.827  30.151  13.860  0.0142 -0.2980  0.3238
 2403DOPE   C3A28199  20.749  29.800  14.129 -0.2001 -0.1617  0.0964
 2403DOPE   C4A28200  20.684  29.325  14.173 -0.1647  0.1791  0.1985
 2403DOPE   C1B28201  20.150  31.050  13.416  0.1644  0.0727  0.1170
 2403DOPE   D2B28202  20.243  31.074  13.806  0.1229  0.1192  0.0516
 2403DOPE   C3B28203  20.105  30.761  14.152 -0.0380  0.0697  0.0617
 2403DOPE   C4B28204  20.071  30.337  14.337  0.2344 -0.0171 -0.0954
 2404DOPC   NC328205  20.357  29.721  12.649 -0.1289  0.0754  0.3211
 2404DOPC   PO428206  20.324  30.009  12.372  0.0620 -0.1445  0.1849
 2404DOPC   GL128207  20.005  29.995  12.722  0.0239  0.7325  0.0576
 2404DOPC   GL228208  20.088  30.236  12.917 -0.1422 -0.0795  0.2108
 2404DOPC   C1A28209  20.155  29.859  13.180 -0.0261 -0.0018  0.0150
 2404DOPC   D2A28210  20.121  29.704  13.623 -0.2117  0.0686  0.1461
 2404DOPC   C3A28211  19.788  29.441  13.803  0.3546 -0.2818  0.1999
 2404DOPC   C4A28212  19.560  29.049  13.813  0.1230 -0.0983 -0.1120
 2404DOPC   C1B28213  19.880  30.248  13.273 -0.1176 -0.1505 -0.3385
 2404DOPC   D2B28214  19.514  30.362  13.562  0.0117 -0.1154  0.1589
 2404DOPC   C3B28215  19.588  30.482  13.983 -0.1241 -0.0836 -0.2404
 2404DOPC   C4B28216  19.648  30.699  14.351  0.1551  0.2539 -0.1744
 2405DOPC   NC328217  21.347  30.986  11.866 -0.1052 -0.1805 -0.2764
 2405DOPC   PO428218  21.694  30.955  12.107 -0.4338  0.0839  0.3630
 2405DOPC   GL128219  21.870  31.249  12.285  0.0187 -0.2122  0.1187
 2405DOPC   GL228220  21.745  31.485  12.112  0.0157 -0.1858 -0.1001
 2405DOPC   C1A28221  21.994  31.533  12.650  0.0831  0.1253 -0.1203
 2405DOPC   D2A28222  22.000  31.712  13.067  0.0959  0.2146  0.0463
 2405DOPC   C3A28223  21.654  32.052  13.144 -0.6019  0.1351 -0.0924
 2405DOPC   C4A28224  21.345  32.344  13.280  0.2351  0.5008  0.1367
 2405DOPC   C1B28225  21.759  31.934  12.294  0.2033  0.2520  0.0274
 2405DOPC   D2B28226  22.008  32.088  12.671 -0.1752  0.3209  0.2312
 2405DOPC   C3B28227  22.159  32.238  13.104 -0.1602  0.1435 -0.3492
 2405DOPC   C4B28228  21.827  32.490  13.361 -0.0123  0.0312  0.1970
 2406DOPS   CNO28229  19.661  34.155  12.410  0.1338 -0.0102 -0.1224
 2406DOPS   PO428230  19.551  34.531  12.340 -0.3030  0.3359 -0.0522
 2406DOPS   GL128231  19.741  34.466  12.741  0.3958  0.2280  0.1279
 2406DOPS   GL228232  19.987  34.342  12.831 -0.0948  0.2688 -0.2076
 2406DOPS   C1A28233  19.957  34.847  12.962 -0.2727 -0.2385  0.0529
 2406DOPS   D2A28234  19.983  35.327  13.015 -0.0828  0.0798 -0.1164
 2406DOPS   C3A28235  19.490  35.524  12.895 -0.1080  0.0207  0.1733
 2406DOPS   C4A28236  19.160  35.668  12.601  0.1499  0.0971  0.0324
 2406DOPS   C1B28237  20.236  34.351  13.231  0.1371  0.1631  0.0556
 2406DOPS   D2B28238  20.428  34.331  13.654  0.2849  0.1585 -0.0975
 2406DOPS   C3B28239  20.741  34.161  13.865  0.0536 -0.1023 -0.0214
 2406DOPS   C4B28240  20.860  34.431  14.261 -0.1234  0.1814  0.0533
 2407POSM   NC328241  21.716  29.949  12.041 -0.3915  0.1987 -0.2003
 2407POSM   PO428242  22.122  29.911  12.103 -0.2573  0.2421 -0.1960
 2407POSM   AM128243  22.237  29.614  12.223 -0.2118  0.1497  0.1298
 2407POSM   AM228244  22.452  29.595  12.357 -0.3058  0.2418  0.2343
 2407POSM   T1A28245  22.247  29.097  12.242 -0.0465 -0.1011  0.0273
 2407POSM   C2A28246  22.288  28.629  12.081  0.1970 -0.0097  0.2181
 2407POSM   C3A28247  22.428  28.178  12.177  0.1461 -0.3047 -0.2719
 2407POSM   C1B28248  22.669  29.313  12.373 -0.0685  0.0271  0.0212
 2407POSM   D2B28249  22.801  28.887  12.421 -0.0703  0.2215 -0.1108
 2407POSM   C3B28250  22.573  28.519  12.583  0.1616 -0.0617 -0.1530
 2407POSM   C4B28251  22.273  28.345  12.872 -0.2046 -0.1520 -0.0712
 2408DOPS   CNO28252  18.366  33.463  12.212  0.0118 -0.1840 -0.0315
 2408DOPS   PO428253  18.267  33.136  12.237  0.2536 -0.2060 -0.3433
 2408DOPS   GL128254  18.722  33.007  12.230  0.1780  0.2402 -0.0234
 2408DOPS   GL228255  18.697  32.717  12.356  0.0835 -0.1345  0.1719
 2408DOPS   C1A28256  19.175  32.765  12.240 -0.1073  0.2781 -0.1404
 2408DOPS   D2A28257  19.319  32.413  12.504 -0.3152  0.1629 -0.1514
 2408DOPS   C3A28258  19.672  32.327  12.743  0.0769  0.2270 -0.0985
 2408DOPS   C4A28259  19.956  32.018  12.802 -0.3493  0.1332  0.3820
 2408DOPS   C1B28260  18.951  32.694  12.739 -0.2439 -0.0753 -0.2869
 2408DOPS   D2B28261  19.131  32.600  13.168 -0.1584 -0.1675  0.0172
 2408DOPS   C3B28262  19.409  32.262  13.132  0.1131 -0.0280 -0.0962
 2408DOPS   C4B28263  19.762  32.116  13.371  0.1975  0.2158  0.4827
 2409POSM   NC328264  14.132  28.873  12.129 -0.1787 -0.0524 -0.3128
 2409POSM   PO428265  14.012  29.041  12.481 -0.0539  0.1599 -0.4759
 2409POSM   AM128266  13.935  28.922  12.783  0.1652  0.2682 -0.3676
 2409POSM   AM228267  14.002  28.714  12.982 -0.0703  0.2594 -0.2125
 2409POSM   T1A28268  13.731  28.964  13.270  0.0440  0.2739  0.1551
 2409POSM   C2A28269  13.665  29.063  13.696  0.2639  0.4569  0.0165
 2409POSM   C3A28270  13.986  29.166  14.024 -0.2276  0.3573 -0.2605
 2409POSM   C1B28271  14.098  28.474  13.152 -0.1494  0.0111 -0.0634
 2409POSM   D2B28272  14.447  28.300  13.370 -0.0130  0.0791  0.1837
 2409POSM   C3B28273  14.512  28.590  13.731  0.1112 -0.3275  0.3269
 2409POSM   C4B28274  14.512  28.941  14.047  0.0389 -0.2481  0.0596
 2410DOPC   NC328275  14.517  30.974  12.385 -0.2702 -0.2976 -0.1353
 2410DOPC   PO428276  14.868  31.116  12.591 -0.0699 -0.2458  0.3360
 2410DOPC   GL128277  14.897  31.338  12.923 -0.0451  0.1159 -0.1754
 2410DOPC   GL228278  14.773  31.607  12.809 -0.0333  0.1772  0.0136
 2410DOPC   C1A28279  15.157  31.708  13.054 -0.4869 -0.0914 -0.0831
 2410DOPC   D2A28280  15.516  31.839  12.830 -0.1086  0.0093  0.1959
 2410DOPC   C3A28281  15.984  31.675  12.791 -0.2473  0.0866 -0.2381
 2410DOPC   C4A28282  16.436  31.785  12.678 -0.0855 -0.1128  0.1303
 2410DOPC   C1B28283  14.756  31.643  13.251 -0.1105  0.2070  0.0986
 2410DOPC   D2B28284  14.612  31.916  13.578  0.0181  0.0309  0.0607
 2410DOPC   C3B28285  14.273  31.616  13.493  0.0861  0.2640  0.0466
 2410DOPC   C4B28286  14.030  31.245  13.475  0.1976 -0.0015  0.0811
 2411DOPC   NC328287  20.152  28.205  12.270  0.0029 -0.3302  0.1766
 2411DOPC   PO428288  20.429  28.388  12.449 -0.0179 -0.2624  0.0385
 2411DOPC   GL128289  20.698  28.433  12.694  0.1335 -0.3406  0.1097
 2411DOPC   GL228290  20.717  28.154  12.811 -0.0252  0.4100  0.0982
 2411DOPC   C1A28291  20.991  28.556  13.043  0.2687  0.2963 -0.5976
 2411DOPC   D2A28292  21.081  28.735  13.485 -0.3439 -0.1049  0.2597
 2411DOPC   C3A28293  21.444  28.686  13.719 -0.1287  0.3902 -0.0151
 2411DOPC   C4A28294  21.756  28.441  14.001 -0.2436 -0.0116 -0.0047
 2411DOPC   C1B28295  20.898  27.907  13.071  0.2011  0.2023  0.2583
 2411DOPC   D2B28296  21.270  27.811  13.339  0.2556 -0.4056  0.0254
 2411DOPC   C3B28297  21.115  27.807  13.763 -0.1671  0.0571 -0.2323
 2411DOPC   C4B28298  21.078  28.060  14.130  0.1097 -0.4504 -0.0290
 2412DOPC   NC328299  13.016  23.971  11.765 -0.3383 -0.2111 -0.2348
 2412DOPC   PO428300  13.182  23.898  12.089  0.2098 -0.1852 -0.1778
 2412DOPC   GL128301  12.950  24.080  12.357 -0.0749  0.1517 -0.3356
 2412DOPC   GL228302  13.043  23.963  12.641  0.0625 -0.1597  0.0730
 2412DOPC   C1A28303  12.857  24.486  12.519  0.2643 -0.0472 -0.2348
 2412DOPC   D2A28304  12.690  24.784  12.750  0.0137  0.1027  0.0290
 2412DOPC   C3A28305  13.011  24.909  13.065 -0.1580  0.2427  0.0647
 2412DOPC   C4A28306  13.249  24.728  13.394  0.1343  0.0539 -0.1766
 2412DOPC   C1B28307  13.437  24.077  12.847 -0.2594  0.0640 -0.1419
 2412DOPC   D2B28308  13.810  24.241  12.786 -0.2398 -0.0107  0.2602
 2412DOPC   C3B28309  13.925  24.685  12.867 -0.2701  0.1605  0.1876
 2412DOPC   C4B28310  14.086  24.823  13.287 -0.0231 -0.1455 -0.2154
 2413POSM   NC328311  20.082   0.122  12.394 -0.2576  0.0218 -0.0319
 2413POSM   PO428312  20.172  -0.249  12.323  0.2568  0.0709  0.1367
 2413POSM   AM128313  20.122  -0.584  12.422 -0.0860 -0.2941  0.1064
 2413POSM   AM228314  20.223  -0.854  12.370 -0.1235 -0.2018  0.0681
 2413POSM   T1A28315  20.151  -0.836  12.849 -0.4684  0.1420  0.0694
 2413POSM   C2A28316  20.021  -1.125  13.189 -0.2857  0.1611 -0.0586
 2413POSM   C3A28317  20.126  -1.429  13.545 -0.0709  0.1333  0.0619
 2413POSM   C1B28318  20.055  -1.156  12.424  0.1928  0.2974  0.1432
 2413POSM   D2B28319  19.842  -1.573  12.401 -0.2403 -0.1156 -0.0503
 2413POSM   C3B28320  19.498  -1.782  12.685 -0.0628 -0.1570  0.0695
 2413POSM   C4B28321  19.327  -1.679  13.091  0.1060  0.0550 -0.0479
 2414POSM   NC328322  13.862  26.877  11.579  0.1374  0.0323  0.2866
 2414POSM   PO428323  14.223  26.699  11.525  0.0382  0.1832 -0.1768
 2414POSM   AM128324  14.406  26.503  11.771  0.3430 -0.2996  0.0436
 2414POSM   AM228325  14.201  26.236  11.842 -0.1012 -0.0643  0.1263
 2414POSM   T1A28326  14.716  26.228  12.106 -0.3192 -0.1711  0.1154
 2414POSM   C2A28327  14.972  26.093  12.499  0.2948  0.1414 -0.1312
 2414POSM   C3A28328  15.354  25.957  12.766 -0.0818  0.1279 -0.0737
 2414POSM   C1B28329  14.272  26.108  12.176  0.1650 -0.1684 -0.1793
 2414POSM   D2B28330  14.503  25.938  12.528 -0.2129 -0.0373 -0.1714
 2414POSM   C3B28331  14.653  26.072  12.941  0.2512  0.1875 -0.2267
 2414POSM   C4B28332  15.024  26.006  13.214 -0.1444 -0.0833 -0.0713
 2415DOPE   NH328333  17.852  27.138  12.462 -0.1624 -0.1572  0.3282
 2415DOPE   PO428334  17.829  27.348  12.685 -0.1576 -0.1596 -0.0169
 2415DOPE   GL128335  17.600  27.359  12.887  0.1226  0.2273 -0.0746
 2415DOPE   GL228336  17.581  27.125  13.078  0.0918 -0.0138  0.0167
 2415DOPE   C1A28337  17.510  27.658  13.228  0.0531 -0.0657 -0.0323
 2415DOPE   D2A28338  17.829  27.837  13.521  0.0606  0.0743 -0.0045
 2415DOPE   C3A28339  17.731  28.293  13.701 -0.2664  0.0428  0.1124
 2415DOPE   C4A28340  18.017  28.495  13.921  0.2932  0.1852 -0.1730
 2415DOPE   C1B28341  17.267  27.296  13.410  0.3760  0.2123  0.0121
 2415DOPE   D2B28342  17.398  27.587  13.767  0.1607 -0.1783 -0.1420
 2415DOPE   C3B28343  17.411  28.020  13.907 -0.1353  0.0513  0.1880
 2415DOPE   C4B28344  17.397  28.370  14.094  0.1743  0.0312  0.4723
 2416DOPS   CNO28345  23.466  27.253  12.376 -0.1929 -0.2431 -0.0411
 2416DOPS   PO428346  23.337  27.348  12.738 -0.1167  0.0310 -0.1154
 2416DOPS   GL128347  23.099  27.535  13.012 -0.3100 -0.1628  0.2727
 2416DOPS   GL228348  22.790  27.311  12.990 -0.1990  0.1101  0.0422
 2416DOPS   C1A28349  22.958  27.829  13.321 -0.2577  0.0329  0.0720
 2416DOPS   D2A28350  23.232  28.141  13.443 -0.0402 -0.1512  0.1803
 2416DOPS   C3A28351  23.241  28.601  13.412 -0.2574 -0.3029 -0.0967
 2416DOPS   C4A28352  22.961  28.919  13.507  0.0474  0.1912  0.2579
 2416DOPS   C1B28353  22.566  27.630  13.125 -0.2547 -0.0315  0.0181
 2416DOPS   D2B28354  22.443  28.046  13.373  0.0872 -0.4520 -0.0765
 2416DOPS   C3B28355  22.178  28.208  13.753 -0.1339  0.2186  0.0385
 2416DOPS   C4B28356  22.214  28.433  14.180 -0.0462  0.2466  0.0547
 2417DOPE   NH328357  22.624  34.411  12.757 -0.1672 -0.1122 -0.1528
 2417DOPE   PO428358  22.946  34.410  12.632 -0.1453 -0.0859  0.0459
 2417DOPE   GL128359  23.120  34.319  12.904  0.1010  0.0273  0.0713
 2417DOPE   GL228360  23.038  34.627  13.055  0.2180 -0.0152  0.1235
 2417DOPE   C1A28361  23.502  34.341  13.186  0.0711  0.0898 -0.2534
 2417DOPE   D2A28362  23.941  34.347  13.433 -0.3043 -0.1459 -0.1377
 2417DOPE   C3A28363  24.215  34.704  13.562  0.2360  0.0384  0.1070
 2417DOPE   C4A28364  24.524  34.950  13.398  0.0793 -0.3508  0.1892
 2417DOPE   C1B28365  22.987  34.257  13.324  0.3659 -0.2078  0.1018
 2417DOPE   D2B28366  22.916  33.916  13.581  0.3429  0.4343 -0.0281
 2417DOPE   C3B28367  23.309  33.941  13.853 -0.0805 -0.2240  0.0364
 2417DOPE   C4B28368  23.735  34.121  13.920  0.1192  0.0577 -0.2351
 2418DOPC   NC328369  13.517  28.315  12.132  0.1878 -0.0840  0.2732
 2418DOPC   PO428370  13.672  28.632  12.005  0.1159 -0.0237 -0.3468
 2418DOPC   GL128371  13.327  28.770  12.136  0.2161  0.2396 -0.3436
 2418DOPC   GL228372  13.079  28.633  12.151 -0.0452  0.0509  0.2839
 2418DOPC   C1A28373  12.976  29.115  12.126  0.2950  0.1928 -0.0003
 2418DOPC   D2A28374  12.596  29.333  12.275 -0.1755  0.0363 -0.0826
 2418DOPC   C3A28375  12.601  29.715  12.588  0.0548  0.0032  0.2175
 2418DOPC   C4A28376  12.501  30.007  12.933  0.0568  0.0646  0.0156
 2418DOPC   C1B28377  12.721  28.795  12.379  0.1814 -0.1390  0.2076
 2418DOPC   D2B28378  12.237  28.865  12.432 -0.4237  0.2565 -0.2116
 2418DOPC   C3B28379  11.852  28.811  12.693 -0.0410 -0.3703 -0.0382
 2418DOPC   C4B28380  11.787  28.704  13.147 -0.0100 -0.1620  0.3236
 2419DOPC   NC328381  16.908  26.758  11.739  0.1432  0.0159  0.0993
 2419DOPC   PO428382  17.077  26.625  12.106  0.0985  0.0273  0.2001
 2419DOPC   GL128383  16.681  26.538  12.262  0.0297 -0.0879 -0.3189
 2419DOPC   GL228384  16.499  26.331  12.337  0.0355  0.4427 -0.0660
 2419DOPC   C1A28385  16.325  26.643  11.970  0.2242  0.3024 -0.2157
 2419DOPC   D2A28386  15.961  26.342  11.870  0.1886  0.3400 -0.1681
 2419DOPC   C3A28387  16.061  26.027  12.189 -0.0702  0.2276 -0.1115
 2419DOPC   C4A28388  15.935  25.905  12.626  0.0235 -0.2305 -0.0882
 2419DOPC   C1B28389  16.132  26.409  12.577  0.0750 -0.1045 -0.0198
 2419DOPC   D2B28390  16.083  26.761  12.910  0.0268  0.0723  0.2227
 2419DOPC   C3B28391  16.023  27.168  12.661 -0.2826  0.1110 -0.1016
 2419DOPC   C4B28392  15.885  27.617  12.547  0.0610  0.1306  0.0779
 2420POSM   NC328393  22.054  30.430  12.275 -0.0303  0.2537 -0.1691
 2420POSM   PO428394  21.789  30.189  12.408 -0.0274 -0.2650 -0.1650
 2420POSM   AM128395  21.878  29.923  12.505  0.1058  0.0912 -0.0817
 2420POSM   AM228396  22.128  29.846  12.632  0.2509 -0.0694 -0.0569
 2420POSM   T1A28397  21.920  29.432  12.520  0.0720 -0.0772 -0.0472
 2420POSM   C2A28398  21.807  28.978  12.451  0.2243  0.1493  0.0902
 2420POSM   C3A28399  22.053  28.575  12.485 -0.1785 -0.0524 -0.1356
 2420POSM   C1B28400  22.177  29.638  12.939 -0.2825  0.0511  0.0340
 2420POSM   D2B28401  22.330  29.321  13.239  0.0780 -0.3053 -0.1683
 2420POSM   C3B28402  22.681  29.433  13.535 -0.1830  0.0526  0.0992
 2420POSM   C4B28403  22.825  29.200  13.876  0.0970  0.3200  0.2812
 2421POSM   NC328404  11.857  32.965  12.340  0.0213 -0.1288  0.2130
 2421POSM   PO428405  12.063  32.895  12.031 -0.0333  0.1203  0.1190
 2421POSM   AM128406  12.287  32.814  12.254  0.1439  0.0137 -0.0365
 2421POSM   AM228407  12.469  32.962  12.482  0.2240  0.1215  0.1024
 2421POSM   T1A28408  12.297  32.416  12.569  0.2541 -0.1580  0.1030
 2421POSM   C2A28409  12.255  31.962  12.646  0.1094 -0.4237 -0.2851
 2421POSM   C3A28410  12.504  31.647  12.383 -0.1820  0.0116 -0.0189
 2421POSM   C1B28411  12.633  33.075  12.743 -0.0055 -0.2691 -0.1994
 2421POSM   D2B28412  12.954  33.243  12.965 -0.3380  0.3806  0.0444
 2421POSM   C3B28413  13.147  32.853  13.255 -0.2532 -0.0511  0.0575
 2421POSM   C4B28414  13.430  32.490  13.342  0.2639 -0.2558 -0.3033
 2422DOPS   CNO28415  19.230  26.428  12.273 -0.4355 -0.0102  0.4508
 2422DOPS   PO428416  19.100  26.195  12.563 -0.0967  0.1116  0.2940
 2422DOPS   GL128417  19.389  26.132  12.854 -0.0887 -0.0430 -0.0557
 2422DOPS   GL228418  19.348  25.876  12.901 -0.2892  0.1046  0.0945
 2422DOPS   C1A28419  19.713  26.380  13.096 -0.0144  0.0098  0.2272
 2422DOPS   D2A28420  20.199  26.466  13.088  0.4376 -0.0018  0.0791
 2422DOPS   C3A28421  20.510  26.542  13.369  0.0573 -0.0200  0.2073
 2422DOPS   C4A28422  20.920  26.589  13.515  0.0264 -0.3934  0.0624
 2422DOPS   C1B28423  19.444  25.451  13.052 -0.0156  0.2368  0.0521
 2422DOPS   D2B28424  19.480  24.947  12.994 -0.1246  0.3321 -0.4643
 2422DOPS   C3B28425  19.907  24.763  13.177  0.0654 -0.1108  0.0238
 2422DOPS   C4B28426  20.341  24.803  13.069 -0.0712 -0.1316  0.1552
 2423POSM   NC328427  13.837  23.230  12.110 -0.1252  0.1725  0.1957
 2423POSM   PO428428  13.607  23.562  12.061  0.1152  0.0063  0.0049
 2423POSM   AM128429  13.645  23.569  12.391  0.1402 -0.0539  0.1152
 2423POSM   AM228430  13.821  23.430  12.608  0.0339  0.1780 -0.1321
 2423POSM   T1A28431  13.361  23.530  12.801  0.1319  0.0284 -0.0852
 2423POSM   C2A28432  13.241  23.415  13.239 -0.0107 -0.0667 -0.1394
 2423POSM   C3A28433  12.896  23.331  13.506 -0.1859 -0.0069 -0.0984
 2423POSM   C1B28434  13.921  23.091  12.590  0.2042 -0.0532  0.3367
 2423POSM   D2B28435  14.160  22.792  12.818 -0.1180 -0.0380  0.2345
 2423POSM   C3B28436  14.577  22.824  13.035  0.5549 -0.0559 -0.2123
 2423POSM   C4B28437  14.885  22.650  13.324 -0.0687 -0.0330  0.4878
 2424DOPE   NH328438  17.685  33.354  12.514  0.2945 -0.1890  0.0945
 2424DOPE   PO428439  17.427  33.202  12.331 -0.2467 -0.0051  0.1521
 2424DOPE   GL128440  17.251  33.279  12.715 -0.0879  0.0426 -0.0673
 2424DOPE   GL228441  17.057  32.987  12.622  0.1804 -0.2675 -0.2487
 2424DOPE   C1A28442  17.268  32.980  13.064  0.1740  0.0846  0.0652
 2424DOPE   D2A28443  17.085  32.592  13.228  0.3659 -0.0358  0.0903
 2424DOPE   C3A28444  17.082  32.188  13.004  0.1225  0.2844 -0.1268
 2424DOPE   C4A28445  16.828  31.814  13.005  0.3117  0.3421  0.2047
 2424DOPE   C1B28446  16.795  32.857  12.977  0.1538 -0.1632 -0.1478
 2424DOPE   D2B28447  16.605  32.746  13.341  0.0282  0.1881  0.0165
 2424DOPE   C3B28448  16.711  32.333  13.430 -0.2377  0.0678 -0.0773
 2424DOPE   C4B28449  17.016  32.051  13.488 -0.2576  0.3608 -0.5076
 2425DOPE   NH328450  13.950  23.706  11.754 -0.5210  0.0461 -0.0652
 2425DOPE   PO428451  14.039  23.998  11.757  0.0711 -0.2126  0.1204
 2425DOPE   GL128452  14.058  24.353  11.918  0.0971  0.3007 -0.1317
 2425DOPE   GL228453  13.858  24.537  11.756  0.1443  0.2198  0.2893
 2425DOPE   C1A28454  14.216  24.761  12.126  0.1402 -0.1033  0.0034
 2425DOPE   D2A28455  14.198  24.985  12.579  0.0378 -0.0938 -0.3225
 2425DOPE   C3A28456  13.846  25.290  12.678 -0.1888 -0.1516  0.0318
 2425DOPE   C4A28457  13.445  25.515  12.829  0.1739  0.3734 -0.0271
 2425DOPE   C1B28458  13.502  24.815  11.868  0.3944  0.1523  0.0497
 2425DOPE   D2B28459  13.253  24.938  12.234 -0.2117 -0.2523 -0.2493
 2425DOPE   C3B28460  13.422  24.989  12.679  0.0294  0.0715 -0.0562
 2425DOPE   C4B28461  13.581  24.970  13.088  0.0987 -0.2094 -0.1313
 2426DOPE   NH328462  13.608  24.065  12.204  0.0616 -0.0636  0.0269
 2426DOPE   PO428463  13.932  23.969  12.229 -0.0901  0.0557  0.1288
 2426DOPE   GL128464  13.990  24.267  12.357  0.2248 -0.2723  0.0810
 2426DOPE   GL228465  13.800  24.522  12.297  0.2948  0.4378 -0.2633
 2426DOPE   C1A28466  14.303  24.517  12.595  0.0527 -0.0008  0.2735
 2426DOPE   D2A28467  14.412  24.669  13.007  0.3978  0.0055  0.1588
 2426DOPE   C3A28468  14.549  25.121  12.943 -0.1879 -0.1463  0.0310
 2426DOPE   C4A28469  14.284  25.473  12.763  0.3792 -0.0832 -0.0080
 2426DOPE   C1B28470  13.757  24.997  12.290  0.1873  0.0297  0.0671
 2426DOPE   D2B28471  13.504  25.403  12.247 -0.0236  0.1752  0.1468
 2426DOPE   C3B28472  13.089  25.443  12.435 -0.0357  0.1027 -0.3896
 2426DOPE   C4B28473  12.879  25.370  12.906  0.1492 -0.0148 -0.0191
 2427DOPS   CNO28474  15.169  24.035  11.875  0.2041  0.4626 -0.1123
 2427DOPS   PO428475  15.348  23.969  12.188 -0.4241  0.0080  0.2371
 2427DOPS   GL128476  15.503  24.221  12.516 -0.1745  0.2669  0.3234
 2427DOPS   GL228477  15.618  24.077  12.609 -0.0991 -0.1294  0.0912
 2427DOPS   C1A28478  15.823  24.499  12.720  0.2618  0.2210 -0.0230
 2427DOPS   D2A28479  15.958  24.897  12.906 -0.0470  0.0494  0.1076
 2427DOPS   C3A28480  15.775  25.185  13.217 -0.1869 -0.1215  0.0966
 2427DOPS   C4A28481  15.620  25.312  13.632  0.2375  0.0621 -0.2617
 2427DOPS   C1B28482  15.958  24.049  12.937  0.3416 -0.1829  0.0534
 2427DOPS   D2B28483  16.294  24.364  13.003 -0.4449 -0.2883 -0.0921
 2427DOPS   C3B28484  16.317  24.748  13.201 -0.2266  0.0229 -0.0622
 2427DOPS   C4B28485  16.291  25.254  13.183 -0.0155  0.1772 -0.5377
 2428POSM   NC328486  19.419  26.599  12.738 -0.2080 -0.1065 -0.0179
 2428POSM   PO428487  19.097  26.760  12.621  0.2838 -0.0365  0.1727
 2428POSM   AM128488  18.999  26.560  12.896  0.3890 -0.1314 -0.0777
 2428POSM   AM228489  18.840  26.676  13.083 -0.0070 -0.0783 -0.2272
 2428POSM   T1A28490  19.078  26.205  13.244 -0.1477 -0.2615 -0.1161
 2428POSM   C2A28491  19.450  26.075  13.468  0.1002  0.2098  0.0505
 2428POSM   C3A28492  19.861  26.238  13.574 -0.0768  0.1271 -0.2667
 2428POSM   C1B28493  18.893  26.652  13.413 -0.1959 -0.0959 -0.3565
 2428POSM   D2B28494  18.914  26.910  13.755 -0.0338  0.0912 -0.1202
 2428POSM   C3B28495  18.766  27.007  14.229 -0.2499  0.2291  0.2207
 2428POSM   C4B28496  18.517  26.700  14.487  0.0824 -0.2584 -0.0875
 2429POSM   NC328497  21.521  30.496  12.154  0.2188  0.0519  0.0054
 2429POSM   PO428498  21.233  30.220  12.107 -0.1131  0.3448 -0.2510
 2429POSM   AM128499  21.309  29.952  12.252  0.1986 -0.1870  0.0093
 2429POSM   AM228500  21.329  29.883  12.508  0.2662  0.3456  0.0763
 2429POSM   T1A28501  21.481  29.496  12.164  0.1746  0.0638 -0.2093
 2429POSM   C2A28502  21.345  29.050  12.337  0.0347 -0.1285 -0.2092
 2429POSM   C3A28503  21.064  28.970  12.719 -0.2374  0.2280 -0.0441
 2429POSM   C1B28504  21.308  29.476  12.633  0.0364 -0.2113  0.0329
 2429POSM   D2B28505  21.474  29.218  12.964  0.1378 -0.0121 -0.0743
 2429POSM   C3B28506  21.786  28.863  13.107 -0.0212 -0.3349  0.0325
 2429POSM   C4B28507  22.163  28.817  12.932  0.0809  0.4067 -0.2354
 2430DOPE   NH328508  19.237  27.412  12.705 -0.3286  0.1347 -0.2821
 2430DOPE   PO428509  19.422  27.179  12.795 -0.1583 -0.0395  0.0926
 2430DOPE   GL128510  19.740  26.862  12.884  0.2772 -0.0440 -0.1456
 2430DOPE   GL228511  19.985  26.748  12.742  0.0004 -0.1494  0.0883
 2430DOPE   C1A28512  19.785  26.869  13.362 -0.1236  0.1893  0.1545
 2430DOPE   D2A28513  20.194  26.897  13.520  0.2007  0.3349 -0.0277
 2430DOPE   C3A28514  20.233  27.101  13.923  0.2028  0.4667 -0.2476
 2430DOPE   C4A28515  20.178  27.550  14.072 -0.0434 -0.2586  0.0721
 2430DOPE   C1B28516  20.351  26.939  13.030 -0.0200 -0.0702 -0.3518
 2430DOPE   D2B28517  20.825  26.920  13.209  0.1461 -0.3987  0.0699
 2430DOPE   C3B28518  20.794  27.021  13.679  0.0719  0.2339  0.3080
 2430DOPE   C4B28519  20.688  27.182  14.152 -0.2274  0.2377  0.0572
 2431DOPS   CNO28520  12.854  34.116  12.102 -0.0580  0.0538 -0.1244
 2431DOPS   PO428521  12.927  33.980  12.468 -0.1521 -0.1604  0.0735
 2431DOPS   GL128522  13.133  34.196  12.815  0.2151 -0.0725  0.1380
 2431DOPS   GL228523  13.317  33.954  12.852  0.1590  0.1392 -0.1668
 2431DOPS   C1A28524  12.896  34.417  13.108 -0.0484 -0.0732 -0.0435
 2431DOPS   D2A28525  12.631  34.724  13.184 -0.2518 -0.0788 -0.0022
 2431DOPS   C3A28526  12.459  35.101  13.410  0.1762 -0.0548  0.3499
 2431DOPS   C4A28527  12.094  35.145  13.693 -0.5671  0.0872  0.1317
 2431DOPS   C1B28528  13.006  33.906  13.189 -0.1002  0.1582 -0.2967
 2431DOPS   D2B28529  12.979  33.550  13.526  0.1453 -0.1247  0.2921
 2431DOPS   C3B28530  12.889  33.251  13.909  0.1957 -0.0576  0.1366
 2431DOPS   C4B28531  12.661  33.220  14.281  0.2106 -0.0432 -0.0363
 2432DOPE   NH328532  18.211  30.337  12.239 -0.1397  0.0122 -0.1501
 2432DOPE   PO428533  18.508  30.360  12.352 -0.1232  0.0774  0.4476
 2432DOPE   GL128534  18.524  30.653  12.626  0.1208  0.1282 -0.4043
 2432DOPE   GL228535  18.238  30.586  12.719 -0.2079 -0.1350  0.0017
 2432DOPE   C1A28536  18.835  30.986  12.845  0.1635  0.0130  0.0180
 2432DOPE   D2A28537  19.184  31.301  13.073 -0.3791 -0.0525  0.0006
 2432DOPE   C3A28538  19.142  31.777  12.935  0.0594  0.1750 -0.0365
 2432DOPE   C4A28539  19.261  31.955  12.579 -0.1607 -0.2128 -0.0318
 2432DOPE   C1B28540  18.434  30.778  13.081  0.0420  0.0280  0.0512
 2432DOPE   D2B28541  18.585  31.102  13.366  0.1735  0.1299  0.2376
 2432DOPE   C3B28542  18.576  30.857  13.755  0.1807  0.2927  0.1085
 2432DOPE   C4B28543  18.806  30.853  14.156  0.1642 -0.0150  0.1939
 2433POSM   NC328544  10.363  25.188  12.320 -0.2774 -0.1427 -0.2001
 2433POSM   PO428545  10.395  25.273  11.895 -0.3013  0.1257  0.1240
 2433POSM   AM128546  10.687  25.223  12.024  0.0050  0.0048  0.3959
 2433POSM   AM228547  10.844  25.271  12.307 -0.1933  0.1574 -0.1016
 2433POSM   T1A28548  11.142  25.005  11.981  0.1599  0.0274 -0.3420
 2433POSM   C2A28549  11.557  24.795  11.984 -0.2670  0.3418 -0.2217
 2433POSM   C3A28550  11.752  24.565  11.667 -0.0574  0.0320  0.0879
 2433POSM   C1B28551  10.841  25.200  12.605  0.1932 -0.0535 -0.0384
 2433POSM   D2B28552  10.943  25.045  13.063 -0.1139  0.0594 -0.1349
 2433POSM   C3B28553  10.879  25.250  13.460 -0.1756 -0.1837 -0.0497
 2433POSM   C4B28554  10.550  25.494  13.653  0.0202  0.0344  0.3173
 2434POSM   NC328555  12.396  33.939  12.247 -0.1907 -0.0261 -0.0150
 2434POSM   PO428556  12.089  33.885  12.460 -0.1736  0.0452 -0.1989
 2434POSM   AM128557  12.304  34.036  12.697  0.0206 -0.4371  0.0638
 2434POSM   AM228558  12.399  34.276  12.808 -0.2526  0.0546  0.3886
 2434POSM   T1A28559  12.544  33.927  13.052  0.1743 -0.2214  0.3439
 2434POSM   C2A28560  12.576  33.551  13.257  0.0028  0.0923 -0.2940
 2434POSM   C3A28561  12.629  33.108  13.438 -0.0733  0.1975  0.2033
 2434POSM   C1B28562  12.178  34.424  12.973  0.0471  0.0637 -0.2023
 2434POSM   D2B28563  12.098  34.646  13.318  0.0249 -0.3214  0.1777
 2434POSM   C3B28564  11.710  34.916  13.436 -0.0286 -0.4991  0.1666
 2434POSM   C4B28565  11.517  35.296  13.339  0.1754 -0.0244 -0.2697
 2435DOPC   NC328566  15.192  30.737  12.399 -0.1576 -0.1856  0.1251
 2435DOPC   PO428567  15.457  31.036  12.337 -0.1312  0.2309  0.2224
 2435DOPC   GL128568  15.685  31.144  12.683  0.0543 -0.1906  0.3303
 2435DOPC   GL228569  15.919  31.275  12.485 -0.1557  0.0821  0.3089
 2435DOPC   C1A28570  15.645  30.932  13.130 -0.2491 -0.0061  0.1422
 2435DOPC   D2A28571  15.459  30.740  13.524 -0.1913  0.3398 -0.2547
 2435DOPC   C3A28572  15.793  30.667  13.807 -0.0767 -0.3667 -0.0735
 2435DOPC   C4A28573  16.198  30.390  13.707  0.1484  0.1672  0.0390
 2435DOPC   C1B28574  16.089  31.117  12.896  0.1053  0.3471 -0.3173
 2435DOPC   D2B28575  16.364  31.454  13.167  0.1862  0.2784 -0.1885
 2435DOPC   C3B28576  16.336  31.947  13.113 -0.3061 -0.1088 -0.1699
 2435DOPC   C4B28577  16.099  32.184  12.789  0.1350  0.0361  0.0119
 2436POSM   NC328578  13.035  30.769  12.757  0.2111  0.2354  0.0404
 2436POSM   PO428579  12.921  30.771  12.372  0.0827 -0.1157  0.3110
 2436POSM   AM128580  12.619  30.677  12.532  0.2208 -0.0640  0.1769
 2436POSM   AM228581  12.601  30.514  12.768  0.1705 -0.2475 -0.2032
 2436POSM   T1A28582  12.155  30.419  12.573 -0.0419 -0.0068  0.5088
 2436POSM   C2A28583  11.891  30.073  12.446  0.0754 -0.2630  0.2278
 2436POSM   C3A28584  11.648  29.759  12.693  0.2677 -0.2047 -0.0903
 2436POSM   C1B28585  12.475  30.478  13.021  0.0525  0.1434  0.0471
 2436POSM   D2B28586  12.230  30.483  13.366  0.1827 -0.2487 -0.0946
 2436POSM   C3B28587  11.945  30.810  13.605  0.0947  0.2004 -0.1555
 2436POSM   C4B28588  11.526  30.921  13.595 -0.4868 -0.2632 -0.1303
 2437DOPE   NH328589  17.271  26.145  12.181 -0.0684 -0.1507  0.3318
 2437DOPE   PO428590  17.052  26.236  12.383 -0.4704 -0.2989  0.2290
 2437DOPE   GL128591  16.918  26.188  12.789  0.2327  0.0446  0.0444
 2437DOPE   GL228592  17.146  26.246  12.932 -0.3428 -0.2447  0.0285
 2437DOPE   C1A28593  16.469  26.225  12.891  0.0173 -0.0541  0.0362
 2437DOPE   D2A28594  16.041  26.017  13.157  0.0959 -0.0317  0.0046
 2437DOPE   C3A28595  15.734  25.706  13.110  0.0346 -0.0705 -0.0546
 2437DOPE   C4A28596  15.320  25.490  13.234 -0.0346  0.1374 -0.0189
 2437DOPE   C1B28597  16.827  26.506  13.124  0.4294 -0.0973 -0.2207
 2437DOPE   D2B28598  16.566  26.559  13.521 -0.0140  0.2703  0.0668
 2437DOPE   C3B28599  16.115  26.468  13.517 -0.0060 -0.0272  0.2228
 2437DOPE   C4B28600  15.787  26.128  13.535  0.0971 -0.0402  0.3360
 2438DOPS   CNO28601  14.623  28.990  11.940  0.2756  0.0629  0.1504
 2438DOPS   PO428602  14.597  28.984  12.304 -0.2302  0.2023 -0.1504
 2438DOPS   GL128603  14.467  28.716  12.632  0.0015 -0.0422 -0.1202
 2438DOPS   GL228604  14.465  28.904  12.843  0.2314  0.0496  0.1273
 2438DOPS   C1A28605  14.637  28.387  12.887  0.0925 -0.2057  0.2076
 2438DOPS   D2A28606  14.701  28.005  13.068 -0.3835  0.1754 -0.2074
 2438DOPS   C3A28607  14.487  27.734  13.318 -0.0208 -0.0305 -0.3539
 2438DOPS   C4A28608  14.446  27.257  13.345  0.1835 -0.2007 -0.0374
 2438DOPS   C1B28609  14.563  28.770  13.251 -0.1654 -0.0191 -0.2769
 2438DOPS   D2B28610  14.989  28.742  13.485 -0.0004  0.1975  0.3562
 2438DOPS   C3B28611  15.003  28.713  13.921 -0.3767  0.2515 -0.0006
 2438DOPS   C4B28612  15.089  28.333  14.145 -0.0642 -0.0959  0.4017
 2439DOPC   NC328613  14.637  30.102  12.583  0.0813 -0.0460  0.3371
 2439DOPC   PO428614  14.501  30.197  12.911  0.1320 -0.0584  0.1041
 2439DOPC   GL128615  14.644  29.997  13.228  0.0691 -0.0157 -0.0364
 2439DOPC   GL228616  14.595  30.094  13.480  0.0644 -0.1341  0.0011
 2439DOPC   C1A28617  14.796  29.617  13.461 -0.0094  0.0269  0.0115
 2439DOPC   D2A28618  14.901  29.498  13.867 -0.2471  0.0490 -0.2203
 2439DOPC   C3A28619  15.219  29.706  14.133 -0.0019  0.1994 -0.4321
 2439DOPC   C4A28620  15.304  30.050  14.533  0.0577  0.0089  0.2293
 2439DOPC   C1B28621  14.874  30.039  13.805 -0.1685  0.1019 -0.0647
 2439DOPC   D2B28622  15.252  30.153  14.050  0.1694 -0.1347 -0.3965
 2439DOPC   C3B28623  15.360  30.573  14.035 -0.0415  0.5503  0.1256
 2439DOPC   C4B28624  15.543  30.958  14.211 -0.1629 -0.0401 -0.1697
 2440DOPC   NC328625  21.322  34.075  12.549 -0.0500  0.0638  0.2887
 2440DOPC   PO428626  21.218  34.049  12.144  0.2400  0.2773 -0.1876
 2440DOPC   GL128627  21.236  33.649  12.327  0.0859  0.5033 -0.1835
 2440DOPC   GL228628  21.029  33.533  12.273  0.0194  0.2357 -0.1124
 2440DOPC   C1A28629  21.157  33.386  12.708  0.1029  0.0407 -0.1398
 2440DOPC   D2A28630  20.968  32.927  12.825 -0.2237 -0.1230  0.2069
 2440DOPC   C3A28631  20.648  32.928  13.157  0.3582  0.0011  0.1289
 2440DOPC   C4A28632  20.240  32.798  13.350 -0.1936  0.0089  0.1899
 2440DOPC   C1B28633  20.733  33.171  12.316 -0.0490 -0.1122 -0.2962
 2440DOPC   D2B28634  20.518  32.785  12.328 -0.1180 -0.0066 -0.1268
 2440DOPC   C3B28635  20.581  32.580  12.769  0.0386 -0.0578 -0.2966
 2440DOPC   C4B28636  20.577  32.470  13.197  0.0318 -0.1522 -0.1012
 2441DOPC   NC328637  14.506  27.491  11.970  0.1188 -0.1460 -0.2952
 2441DOPC   PO428638  14.233  27.661  12.210 -0.3595  0.1823  0.3057
 2441DOPC   GL128639  13.929  27.754  12.566 -0.1984 -0.0974  0.0974
 2441DOPC   GL228640  13.822  28.061  12.555  0.1172 -0.0402  0.1351
 2441DOPC   C1A28641  14.026  27.888  13.000  0.0570 -0.2676 -0.0207
 2441DOPC   D2A28642  13.934  28.079  13.360  0.1257  0.0005  0.1152
 2441DOPC   C3A28643  14.221  27.955  13.727  0.1493 -0.0775  0.0825
 2441DOPC   C4A28644  14.282  27.813  14.171 -0.1153 -0.2575 -0.0855
 2441DOPC   C1B28645  13.660  28.255  12.943  0.2501  0.0586  0.1927
 2441DOPC   D2B28646  13.477  28.545  13.195 -0.2770  0.2647 -0.2471
 2441DOPC   C3B28647  13.480  28.564  13.636 -0.0249 -0.0499 -0.2084
 2441DOPC   C4B28648  13.530  28.737  14.062  0.1333  0.1549  0.1931
 2442DOPS   CNO28649  17.776  30.529  12.355  0.1260 -0.1098  0.2903
 2442DOPS   PO428650  17.706  30.889  12.408 -0.0125 -0.2679 -0.0981
 2442DOPS   GL128651  17.685  30.978  12.734 -0.2527 -0.3645 -0.2240
 2442DOPS   GL228652  17.419  31.025  12.798  0.2265 -0.0472  0.2688
 2442DOPS   C1A28653  17.726  31.280  13.091  0.1940  0.0880  0.2598
 2442DOPS   D2A28654  18.080  31.608  13.219  0.1242  0.1356 -0.1030
 2442DOPS   C3A28655  18.089  31.422  13.654 -0.2552 -0.0550  0.1666
 2442DOPS   C4A28656  18.051  31.244  14.086 -0.1604 -0.1216 -0.2670
 2442DOPS   C1B28657  17.490  31.462  12.654  0.1262 -0.0450  0.2905
 2442DOPS   D2B28658  17.513  31.871  12.824 -0.0064 -0.1036 -0.3341
 2442DOPS   C3B28659  17.595  32.163  13.180 -0.1386 -0.0613 -0.1699
 2442DOPS   C4B28660  17.578  32.616  13.272 -0.2055 -0.2341 -0.1870
 2443POSM   NC328661  13.143  23.415  12.252 -0.4364 -0.1390  0.1381
 2443POSM   PO428662  12.827  23.189  12.243 -0.1959 -0.2706  0.0838
 2443POSM   AM128663  12.776  23.162  12.558 -0.0018 -0.0852 -0.1761
 2443POSM   AM228664  12.648  23.317  12.718 -0.2560 -0.1190 -0.2676
 2443POSM   T1A28665  13.139  23.083  12.901  0.1200 -0.0486 -0.0389
 2443POSM   C2A28666  13.610  22.974  13.025 -0.1336  0.1508  0.2896
 2443POSM   C3A28667  13.855  22.770  13.264  0.0688  0.1140 -0.0455
 2443POSM   C1B28668  12.691  23.479  12.940 -0.0408 -0.0077 -0.0249
 2443POSM   D2B28669  12.789  23.879  13.247 -0.2211  0.0256  0.4181
 2443POSM   C3B28670  12.564  23.768  13.622 -0.0486 -0.3637 -0.4184
 2443POSM   C4B28671  12.517  23.716  14.072  0.0906 -0.1349  0.1956
 2444POSM   NC328672  18.044  34.047  12.785 -0.0488 -0.1025 -0.0945
 2444POSM   PO428673  17.966  33.750  12.534 -0.1808  0.1602  0.2682
 2444POSM   AM128674  17.965  33.615  12.831  0.0439 -0.1453  0.1735
 2444POSM   AM228675  18.177  33.622  13.054  0.0954 -0.0265  0.3296
 2444POSM   T1A28676  17.767  33.312  13.199  0.0139  0.3529 -0.1278
 2444POSM   C2A28677  17.497  33.079  13.478 -0.1009  0.1373  0.5886
 2444POSM   C3A28678  17.104  32.991  13.597 -0.0924  0.0428  0.2536
 2444POSM   C1B28679  18.125  33.616  13.409  0.0557  0.0583  0.1263
 2444POSM   D2B28680  18.249  33.591  13.794 -0.0023 -0.2198  0.1714
 2444POSM   C3B28681  18.356  33.901  14.129 -0.3392 -0.0141 -0.1672
 2444POSM   C4B28682  18.425  33.870  14.605 -0.2488 -0.2235 -0.2698
 2445DOPE   NH328683  10.298  29.473  12.510 -0.4135  0.1746 -0.1777
 2445DOPE   PO428684  10.347  29.276  12.276  0.3296 -0.0681 -0.0722
 2445DOPE   GL128685  10.678  29.230  12.268  0.0119 -0.0200 -0.0619
 2445DOPE   GL228686  10.805  29.333  12.517  0.2790  0.1672  0.1601
 2445DOPE   C1A28687  11.024  28.934  12.326 -0.4700  0.0539  0.2028
 2445DOPE   D2A28688  11.430  28.846  12.447  0.3290  0.2510  0.0753
 2445DOPE   C3A28689  11.371  28.786  12.916  0.2009  0.0300 -0.0982
 2445DOPE   C4A28690  11.345  28.828  13.366 -0.3003 -0.3250  0.4633
 2445DOPE   C1B28691  11.226  29.241  12.747  0.0823 -0.1553  0.0411
 2445DOPE   D2B28692  11.631  29.190  13.040 -0.1975 -0.0252  0.0594
 2445DOPE   C3B28693  11.683  29.564  13.244 -0.0480  0.0581 -0.1692
 2445DOPE   C4B28694  11.440  29.838  13.497  0.1567  0.0164  0.2844
 2446DOPC   NC328695  16.661  23.419  11.345 -0.1420 -0.1240 -0.1495
 2446DOPC   PO428696  16.384  23.158  11.530  0.0520  0.2249  0.0262
 2446DOPC   GL128697  16.306  22.815  11.902  0.0660  0.2203  0.0160
 2446DOPC   GL228698  16.414  22.605  11.840 -0.2370 -0.0583  0.1497
 2446DOPC   C1A28699  16.329  22.812  12.374 -0.1378 -0.0230 -0.1088
 2446DOPC   D2A28700  16.354  22.815  12.813 -0.0815 -0.2559  0.0693
 2446DOPC   C3A28701  16.515  22.767  13.276 -0.0340 -0.3690  0.2890
 2446DOPC   C4A28702  16.791  22.658  13.656 -0.1058  0.0372  0.1853
 2446DOPC   C1B28703  15.969  22.499  12.011  0.4259 -0.0806 -0.1242
 2446DOPC   D2B28704  15.631  22.238  11.870 -0.0243 -0.0583  0.2772
 2446DOPC   C3B28705  15.266  22.475  12.161 -0.0995  0.2513 -0.2525
 2446DOPC   C4B28706  15.375  22.460  12.575  0.1893  0.2665  0.3064
 2447POSM   NC328707  22.372  26.923  12.294 -0.1980 -0.2301  0.1019
 2447POSM   PO428708  22.255  26.742  12.622  0.3739  0.1388  0.1414
 2447POSM   AM128709  22.190  26.805  12.955  0.4427  0.0611 -0.0405
 2447POSM   AM228710  22.114  27.024  13.129  0.0548  0.2297 -0.0301
 2447POSM   T1A28711  21.988  26.574  13.389 -0.3129 -0.1136  0.0355
 2447POSM   C2A28712  21.753  26.599  13.793  0.1719 -0.0849  0.0189
 2447POSM   C3A28713  21.666  26.674  14.239 -0.1352 -0.3039 -0.0004
 2447POSM   C1B28714  22.371  27.086  13.323 -0.0723  0.0271 -0.2819
 2447POSM   D2B28715  22.754  27.140  13.510 -0.0100  0.1292 -0.1673
 2447POSM   C3B28716  23.141  26.964  13.799 -0.1592 -0.0242  0.0667
 2447POSM   C4B28717  23.056  26.824  14.219 -0.1379  0.1731 -0.3239
 2448POSM   NC328718  18.143  29.813  12.734  0.0058  0.1148 -0.1393
 2448POSM   PO428719  17.917  30.131  12.671 -0.0628 -0.0841  0.1314
 2448POSM   AM128720  17.711  30.106  12.944  0.1374  0.2536 -0.1479
 2448POSM   AM228721  17.503  30.153  13.054 -0.1769  0.2348  0.0163
 2448POSM   T1A28722  17.620  29.802  13.373  0.2105  0.0082  0.1820
 2448POSM   C2A28723  17.289  29.570  13.558  0.1001 -0.1073 -0.0875
 2448POSM   C3A28724  16.897  29.340  13.595 -0.1138  0.3238 -0.0996
 2448POSM   C1B28725  17.553  30.291  13.354  0.0457 -0.1816 -0.0067
 2448POSM   D2B28726  17.439  30.565  13.715 -0.3277  0.2710 -0.0632
 2448POSM   C3B28727  17.024  30.717  13.773  0.1429  0.2129 -0.0987
 2448POSM   C4B28728  16.798  31.089  14.019 -0.1338  0.2238 -0.1833
 2449DOPC   NC328729  25.124   8.506  16.215 -0.0617 -0.1696  0.2148
 2449DOPC   PO428730  25.395   8.335  16.467  0.0584 -0.3111  0.0387
 2449DOPC   GL128731  25.588   8.362  16.132 -0.0552 -0.2959  0.0854
 2449DOPC   GL228732  25.484   8.221  15.952  0.0437  0.1724 -0.1255
 2449DOPC   C1A28733  25.869   8.531  15.777 -0.0205 -0.0435  0.1374
 2449DOPC   D2A28734  26.016   8.433  15.331  0.2930 -0.1633 -0.4045
 2449DOPC   C3A28735  25.706   8.408  15.021  0.3181  0.0285  0.0286
 2449DOPC   C4A28736  25.436   8.170  14.648  0.0217 -0.0131  0.2476
 2449DOPC   C1B28737  25.477   8.321  15.449 -0.2561  0.2317 -0.0214
 2449DOPC   D2B28738  25.209   8.425  15.089  0.1917  0.1023  0.0289
 2449DOPC   C3B28739  25.388   8.660  14.722  0.0986  0.1835  0.1605
 2449DOPC   C4B28740  25.473   8.526  14.246 -0.1650 -0.0960 -0.0150
 2450DOPC   NC328741  33.570   2.683  16.327 -0.0020 -0.5400 -0.0207
 2450DOPC   PO428742  33.406   3.045  16.301 -0.2976 -0.1784  0.1670
 2450DOPC   GL128743  33.351   3.244  15.939 -0.1199  0.3203  0.0069
 2450DOPC   GL228744  33.571   3.104  15.790  0.2816 -0.0745  0.1256
 2450DOPC   C1A28745  32.991   3.407  15.646 -0.0328 -0.0550 -0.2016
 2450DOPC   D2A28746  32.852   3.640  15.270 -0.1021  0.3610 -0.0157
 2450DOPC   C3A28747  32.511   3.378  15.122 -0.1838  0.0952  0.5063
 2450DOPC   C4A28748  32.220   3.406  14.753 -0.2090 -0.1428  0.2300
 2450DOPC   C1B28749  33.298   3.122  15.411 -0.0280 -0.1374  0.1117
 2450DOPC   D2B28750  33.266   3.137  14.916  0.0069  0.0901  0.1278
 2450DOPC   C3B28751  33.565   2.906  14.631  0.4142 -0.1532 -0.0166
 2450DOPC   C4B28752  33.826   2.496  14.485  0.1388  0.0743  0.0277
 2451DOPE   NH328753  32.467   9.576  15.785  0.0806  0.2140 -0.4183
 2451DOPE   PO428754  32.284   9.542  15.528  0.2563  0.1602 -0.1818
 2451DOPE   GL128755  32.359   9.628  15.163 -0.1737 -0.3885  0.2696
 2451DOPE   GL228756  32.071   9.628  15.091 -0.2663  0.2499 -0.0119
 2451DOPE   C1A28757  32.729   9.615  14.855  0.1048 -0.1054 -0.0851
 2451DOPE   D2A28758  32.906   9.923  14.539  0.0536 -0.0664  0.1966
 2451DOPE   C3A28759  33.295   9.908  14.374 -0.2758 -0.1104 -0.0210
 2451DOPE   C4A28760  33.564   9.635  14.063  0.0449  0.2502 -0.1785
 2451DOPE   C1B28761  32.049   9.495  14.652  0.0682  0.0475 -0.0750
 2451DOPE   D2B28762  32.136   9.308  14.239  0.3752 -0.1216 -0.2674
 2451DOPE   C3B28763  32.251   9.468  13.833  0.3261 -0.0300 -0.0315
 2451DOPE   C4B28764  32.358   9.454  13.402 -0.1076 -0.1014 -0.1086
 2452DOPE   NH328765  23.821   9.018  15.915 -0.0479  0.1228  0.1564
 2452DOPE   PO428766  23.919   8.681  15.915  0.4605 -0.1026 -0.0357
 2452DOPE   GL128767  24.027   8.749  15.532 -0.0701 -0.3125 -0.0867
 2452DOPE   GL228768  23.834   8.626  15.351 -0.2758 -0.1382  0.2081
 2452DOPE   C1A28769  24.405   8.951  15.417  0.2779 -0.2236 -0.0734
 2452DOPE   D2A28770  24.868   9.131  15.600 -0.1271 -0.2635 -0.0630
 2452DOPE   C3A28771  25.011   9.540  15.431 -0.0219 -0.1667  0.1500
 2452DOPE   C4A28772  25.355   9.606  15.202 -0.0945  0.0081 -0.3605
 2452DOPE   C1B28773  24.134   8.789  14.993 -0.1356 -0.0959 -0.1516
 2452DOPE   D2B28774  24.311   9.047  14.651 -0.0728 -0.0354 -0.0822
 2452DOPE   C3B28775  24.429   9.077  14.257 -0.3390  0.0308  0.0623
 2452DOPE   C4B28776  24.673   9.285  13.998 -0.0692 -0.1326 -0.0518
 2453DOPC   NC328777  31.524  12.319  15.381 -0.1862 -0.1622 -0.0978
 2453DOPC   PO428778  31.791  12.091  15.604  0.1782 -0.1822  0.2100
 2453DOPC   GL128779  32.051  11.936  15.363  0.2913 -0.2164 -0.2045
 2453DOPC   GL228780  31.787  11.785  15.223  0.0400  0.0584  0.1849
 2453DOPC   C1A28781  32.233  11.906  14.917  0.2048 -0.0980 -0.0722
 2453DOPC   D2A28782  32.113  12.112  14.510  0.1323  0.4332 -0.1987
 2453DOPC   C3A28783  32.312  12.030  14.082  0.1597 -0.3173  0.0930
 2453DOPC   C4A28784  32.570  11.969  13.786  0.2766 -0.2466 -0.2333
 2453DOPC   C1B28785  31.884  11.521  14.852  0.2170  0.0418 -0.1161
 2453DOPC   D2B28786  31.989  11.440  14.426  0.0405  0.2352  0.0153
 2453DOPC   C3B28787  31.849  11.764  14.149 -0.2131 -0.4732 -0.4914
 2453DOPC   C4B28788  31.684  12.045  13.777  0.1668  0.1447  0.5353
 2454DOPC   NC328789  33.496   9.928  15.764 -0.1964  0.0534 -0.0675
 2454DOPC   PO428790  33.314   9.595  15.756  0.1722  0.2365 -0.0646
 2454DOPC   GL128791  33.515   9.580  15.466  0.0892  0.1812  0.2406
 2454DOPC   GL228792  33.577   9.865  15.281  0.1733 -0.0380  0.0337
 2454DOPC   C1A28793  33.884   9.422  15.184  0.6002  0.2017 -0.2413
 2454DOPC   D2A28794  34.161   9.342  14.856 -0.0622  0.0002  0.3067
 2454DOPC   C3A28795  34.346   9.555  14.475  0.0550 -0.0689  0.3021
 2454DOPC   C4A28796  34.644   9.426  14.195 -0.1409 -0.1191 -0.1354
 2454DOPC   C1B28797  33.851   9.913  14.946 -0.1799  0.0817 -0.3209
 2454DOPC   D2B28798  34.079   9.962  14.509 -0.2550  0.1373 -0.4519
 2454DOPC   C3B28799  33.947  10.252  14.205  0.2209  0.0866 -0.1710
 2454DOPC   C4B28800  33.511  10.178  14.021 -0.2162 -0.0555  0.0762
 2455POSM   NC328801  27.300   3.730  16.569 -0.1151 -0.2712  0.0289
 2455POSM   PO428802  26.938   3.813  16.453  0.0102 -0.0669  0.0297
 2455POSM   AM128803  27.071   3.843  16.156  0.1450  0.0608 -0.0563
 2455POSM   AM228804  27.268   3.728  15.998 -0.0956  0.1565  0.1652
 2455POSM   T1A28805  26.802   3.885  15.704  0.0153  0.0113  0.2414
 2455POSM   C2A28806  26.368   4.069  15.626  0.0858  0.1796 -0.1185
 2455POSM   C3A28807  26.263   4.293  15.243  0.0824 -0.1083  0.3210
 2455POSM   C1B28808  27.220   3.698  15.661 -0.2396  0.2366 -0.1866
 2455POSM   D2B28809  27.137   3.498  15.232 -0.0421 -0.0925  0.1200
 2455POSM   C3B28810  26.918   3.264  14.947  0.0764 -0.1534  0.1202
 2455POSM   C4B28811  26.883   3.058  14.563 -0.3360  0.0943  0.1581
 2456DOPS   CNO28812  31.346   9.448  15.431  0.4744 -0.0017 -0.1682
 2456DOPS   PO428813  31.248   9.816  15.298 -0.2145  0.3780 -0.1890
 2456DOPS   GL128814  31.166   9.941  14.982 -0.0903  0.0118 -0.3563
 2456DOPS   GL228815  30.964   9.840  14.823  0.1296 -0.1238  0.2006
 2456DOPS   C1A28816  31.413   9.941  14.590  0.2247  0.2786 -0.1246
 2456DOPS   D2A28817  31.375  10.276  14.265 -0.0233 -0.1030  0.4928
 2456DOPS   C3A28818  31.759  10.537  14.071  0.0286  0.0169 -0.1695
 2456DOPS   C4A28819  32.152  10.860  14.044 -0.0111  0.1389 -0.1293
 2456DOPS   C1B28820  31.085   9.669  14.407  0.3371  0.4532  0.2584
 2456DOPS   D2B28821  31.222   9.779  13.926 -0.1511 -0.0897 -0.0529
 2456DOPS   C3B28822  31.329   9.419  13.620  0.1115  0.0700  0.2673
 2456DOPS   C4B28823  31.544   9.016  13.534 -0.1900 -0.1423  0.0760
 2457DOPC   NC328824  29.193   2.968  16.357  0.1330 -0.0588 -0.1222
 2457DOPC   PO428825  28.840   2.765  16.311  0.0392 -0.1158  0.1762
 2457DOPC   GL128826  28.692   2.512  16.035  0.1158 -0.0229  0.2353
 2457DOPC   GL228827  28.614   2.685  15.798  0.2622  0.2973 -0.0737
 2457DOPC   C1A28828  28.924   2.294  15.703 -0.1151  0.0171 -0.5463
 2457DOPC   D2A28829  29.063   2.214  15.233 -0.0255 -0.0197  0.1745
 2457DOPC   C3A28830  29.023   1.971  14.869  0.2094 -0.1122  0.2183
 2457DOPC   C4A28831  28.907   1.903  14.416  0.0529  0.1584 -0.1308
 2457DOPC   C1B28832  28.364   3.035  15.994 -0.1074  0.1194  0.0062
 2457DOPC   D2B28833  28.112   3.464  16.218 -0.3645  0.0404  0.1137
 2457DOPC   C3B28834  27.786   3.556  15.834 -0.1410 -0.0561 -0.0954
 2457DOPC   C4B28835  27.597   3.394  15.428 -0.3321 -0.1776  0.0760
 2458DOPE   NH328836  26.044   5.344  16.601 -0.1946 -0.0028 -0.1334
 2458DOPE   PO428837  25.741   5.263  16.514 -0.1626  0.0291  0.2960
 2458DOPE   GL128838  25.562   5.359  16.115 -0.4187  0.2308 -0.1303
 2458DOPE   GL228839  25.844   5.471  16.063 -0.1187  0.0029  0.3165
 2458DOPE   C1A28840  25.314   5.362  15.749  0.1216  0.2903 -0.0198
 2458DOPE   D2A28841  25.346   5.663  15.393 -0.3423  0.2660  0.1670
 2458DOPE   C3A28842  25.717   5.592  15.130 -0.1514  0.0357  0.1317
 2458DOPE   C4A28843  25.910   5.412  14.727 -0.0747  0.1399  0.2058
 2458DOPE   C1B28844  25.885   5.534  15.619 -0.3539  0.3110 -0.2657
 2458DOPE   D2B28845  26.101   5.913  15.433  0.1270  0.2521 -0.1247
 2458DOPE   C3B28846  26.079   5.882  14.982  0.1251 -0.0523 -0.1624
 2458DOPE   C4B28847  26.347   5.607  14.735  0.0975 -0.3014  0.2633
 2459POSM   NC328848  31.271   9.393  15.911  0.3233  0.2662  0.0668
 2459POSM   PO428849  31.491   9.050  15.833  0.0171  0.1390  0.2150
 2459POSM   AM128850  31.613   9.037  15.494 -0.1621 -0.0226 -0.1470
 2459POSM   AM228851  31.849   9.180  15.368 -0.1522 -0.0197  0.0129
 2459POSM   T1A28852  31.761   8.795  15.093 -0.3275 -0.0395  0.0945
 2459POSM   C2A28853  31.836   8.583  14.685 -0.3828  0.2448  0.3794
 2459POSM   C3A28854  32.144   8.280  14.471 -0.3439  0.5600  0.0644
 2459POSM   C1B28855  31.711   9.297  15.048  0.1537 -0.1053 -0.0651
 2459POSM   D2B28856  31.581   9.523  14.701 -0.1184 -0.1225 -0.1151
 2459POSM   C3B28857  31.535   9.384  14.237  0.2859  0.0621  0.1900
 2459POSM   C4B28858  31.846   9.206  13.881  0.0588  0.0009 -0.0663
 2460DOPS   CNO28859  29.164  10.162  15.684  0.0389 -0.1608 -0.0751
 2460DOPS   PO428860  29.033  10.506  15.750 -0.0030  0.0234  0.0683
 2460DOPS   GL128861  29.123  10.607  15.405 -0.4021  0.1228  0.2702
 2460DOPS   GL228862  29.134  10.361  15.229 -0.2135  0.0402 -0.1394
 2460DOPS   C1A28863  29.019  10.974  15.060  0.0745  0.1613 -0.1431
 2460DOPS   D2A28864  28.691  11.018  14.672 -0.0595 -0.0040 -0.1476
 2460DOPS   C3A28865  28.900  10.891  14.296 -0.2321 -0.1437  0.2677
 2460DOPS   C4A28866  29.216  10.780  14.024  0.2755 -0.0773  0.0158
 2460DOPS   C1B28867  28.721  10.513  15.018  0.0121 -0.0059 -0.2750
 2460DOPS   D2B28868  28.659  10.557  14.586  0.2591  0.0670  0.0108
 2460DOPS   C3B28869  28.543  10.549  14.100 -0.0268 -0.0843 -0.1648
 2460DOPS   C4B28870  28.240  10.599  13.806 -0.1550 -0.2859 -0.2699
 2461DOPC   NC328871  34.437   2.389  16.514  0.7148  0.0933  0.0598
 2461DOPC   PO428872  34.177   2.573  16.214  0.1939  0.0919 -0.3176
 2461DOPC   GL128873  33.944   2.447  15.937  0.2393  0.3148  0.0597
 2461DOPC   GL228874  33.714   2.583  15.801 -0.0826 -0.1831  0.0856
 2461DOPC   C1A28875  33.897   2.228  15.510  0.1385 -0.5314 -0.0144
 2461DOPC   D2A28876  33.799   1.894  15.228  0.4804 -0.1262 -0.2793
 2461DOPC   C3A28877  33.993   1.473  15.227 -0.1355  0.3705 -0.2082
 2461DOPC   C4A28878  34.233   1.103  15.000  0.0086 -0.2306 -0.1248
 2461DOPC   C1B28879  33.356   2.645  15.597 -0.0890 -0.2060 -0.0929
 2461DOPC   D2B28880  32.920   2.537  15.557  0.1808 -0.0018 -0.1668
 2461DOPC   C3B28881  32.662   2.170  15.362  0.2484  0.0942  0.0608
 2461DOPC   C4B28882  32.492   1.794  15.089  0.0624  0.1149 -0.1908
 2462DOPE   NH328883  29.919   5.287  16.098 -0.2871 -0.1309  0.1182
 2462DOPE   PO428884  29.684   5.491  16.129 -0.0632  0.1854  0.0962
 2462DOPE   GL128885  29.417   5.392  15.813 -0.1447 -0.0128 -0.3294
 2462DOPE   GL228886  29.320   5.706  15.753  0.2138 -0.1917 -0.0815
 2462DOPE   C1A28887  29.412   5.052  15.468 -0.0709  0.1162  0.0486
 2462DOPE   D2A28888  29.239   4.606  15.360  0.0524  0.5847  0.2299
 2462DOPE   C3A28889  29.256   4.443  14.933 -0.0968 -0.1045  0.1970
 2462DOPE   C4A28890  29.294   4.079  14.673 -0.3009  0.1800  0.0124
 2462DOPE   C1B28891  29.242   5.485  15.326  0.0810  0.1401  0.1901
 2462DOPE   D2B28892  29.111   5.247  14.963  0.2860  0.3136  0.0375
 2462DOPE   C3B28893  29.305   5.002  14.592 -0.0646  0.0039 -0.0689
 2462DOPE   C4B28894  29.506   4.945  14.180 -0.1641  0.0145  0.1711
 2463DOPE   NH328895  28.934   5.350  15.833 -0.2064  0.2433 -0.2246
 2463DOPE   PO428896  28.750   5.113  15.928  0.0556 -0.0405  0.1970
 2463DOPE   GL128897  28.477   4.993  15.662  0.0058 -0.1287 -0.1142
 2463DOPE   GL228898  28.266   5.291  15.659 -0.0665  0.1032  0.1932
 2463DOPE   C1A28899  28.445   4.990  15.182  0.2426 -0.3101 -0.0688
 2463DOPE   D2A28900  28.365   4.806  14.715 -0.0577  0.3864 -0.0832
 2463DOPE   C3A28901  28.541   4.419  14.601  0.1943  0.2577  0.1491
 2463DOPE   C4A28902  28.560   4.279  14.158  0.0577 -0.1403 -0.0150
 2463DOPE   C1B28903  28.054   5.290  15.249  0.2506 -0.1731  0.0454
 2463DOPE   D2B28904  27.965   5.149  14.827 -0.0310  0.2289 -0.2014
 2463DOPE   C3B28905  28.194   5.300  14.475  0.1235  0.1676 -0.1251
 2463DOPE   C4B28906  28.337   5.404  14.037  0.4312 -0.0714  0.1053
 2464DOPC   NC328907  30.980  10.153  15.501 -0.3257  0.4595  0.1730
 2464DOPC   PO428908  30.726  10.394  15.290 -0.0902 -0.0474  0.2469
 2464DOPC   GL128909  30.963  10.300  15.037 -0.0493 -0.3962 -0.2163
 2464DOPC   GL228910  31.190  10.509  15.037 -0.0981 -0.0438 -0.1203
 2464DOPC   C1A28911  30.998  10.319  14.568 -0.0089  0.1761  0.0541
 2464DOPC   D2A28912  30.870  10.228  14.157 -0.1890 -0.1266 -0.2582
 2464DOPC   C3A28913  30.655  10.516  13.877 -0.3350 -0.1612  0.4375
 2464DOPC   C4A28914  30.453  10.908  13.791 -0.3889 -0.4176 -0.1414
 2464DOPC   C1B28915  31.306  10.928  14.884 -0.0416  0.1897 -0.0756
 2464DOPC   D2B28916  31.470  11.185  14.632 -0.1401 -0.0099 -0.2373
 2464DOPC   C3B28917  31.506  11.517  14.320 -0.0687 -0.2105 -0.0744
 2464DOPC   C4B28918  31.310  11.925  14.158 -0.2837 -0.0613 -0.0943
 2465POSM   NC328919  32.376   6.918  16.314  0.1902 -0.2471  0.1487
 2465POSM   PO428920  32.187   7.206  16.131  0.4696  0.0627 -0.2333
 2465POSM   AM128921  32.414   7.213  15.906  0.3031 -0.1129 -0.0008
 2465POSM   AM228922  32.551   6.984  15.873  0.2927 -0.3694  0.0117
 2465POSM   T1A28923  32.503   7.216  15.453 -0.2769  0.1826 -0.0210
 2465POSM   C2A28924  32.220   7.427  15.163 -0.0236 -0.0477 -0.0885
 2465POSM   C3A28925  31.953   7.597  14.797  0.1834  0.0649  0.3453
 2465POSM   C1B28926  32.576   6.774  15.639  0.1461 -0.1959 -0.1780
 2465POSM   D2B28927  32.726   6.555  15.264  0.0067  0.2375 -0.0497
 2465POSM   C3B28928  33.134   6.615  15.072  0.0271 -0.3133  0.3716
 2465POSM   C4B28929  33.210   6.837  14.673 -0.0995 -0.1149 -0.0617
 2466DOPE   NH328930  23.034   8.964  15.908 -0.0681 -0.0903  0.1677
 2466DOPE   PO428931  23.309   9.107  15.799 -0.0172 -0.1412  0.2898
 2466DOPE   GL128932  23.365   9.301  15.470 -0.2512  0.1054 -0.0088
 2466DOPE   GL228933  23.188   9.503  15.464 -0.2282  0.0572  0.0082
 2466DOPE   C1A28934  23.735   9.147  15.259  0.0747 -0.1471 -0.0152
 2466DOPE   D2A28935  24.200   9.320  15.128 -0.0700 -0.1220  0.0775
 2466DOPE   C3A28936  24.640   9.290  15.101  0.0780  0.1357  0.2409
 2466DOPE   C4A28937  25.081   9.144  15.068  0.4279  0.0244  0.0494
 2466DOPE   C1B28938  23.491   9.790  15.259 -0.1102  0.1740  0.1042
 2466DOPE   D2B28939  23.745  10.081  14.971 -0.1718 -0.0245 -0.0298
 2466DOPE   C3B28940  23.660  10.341  14.594 -0.0945 -0.0595 -0.0593
 2466DOPE   C4B28941  23.283  10.653  14.613  0.1708  0.1584 -0.1894
 2467DOPS   CNO28942  27.966   1.536  16.214 -0.1728 -0.2015  0.1658
 2467DOPS   PO428943  27.611   1.590  16.116  0.1954  0.0238  0.2799
 2467DOPS   GL128944  27.600   1.741  15.758  0.0706  0.2192 -0.0363
 2467DOPS   GL228945  27.401   2.035  15.853  0.0076  0.3503  0.2965
 2467DOPS   C1A28946  27.483   1.628  15.338  0.0695  0.0068  0.0114
 2467DOPS   D2A28947  27.619   1.857  14.935 -0.0621  0.1664 -0.1176
 2467DOPS   C3A28948  27.603   1.676  14.494 -0.2020 -0.0408  0.0750
 2467DOPS   C4A28949  27.602   1.324  14.161  0.0163  0.3013 -0.2178
 2467DOPS   C1B28950  27.436   2.178  15.443  0.1123  0.0247 -0.3044
 2467DOPS   D2B28951  27.651   2.398  15.081  0.3770 -0.1274 -0.1450
 2467DOPS   C3B28952  27.720   2.748  14.778 -0.2573 -0.0731 -0.3492
 2467DOPS   C4B28953  27.747   2.918  14.400 -0.1471  0.2565  0.2286
 2468POSM   NC328954  30.662   8.674  16.020  0.3076 -0.1226 -0.1802
 2468POSM   PO428955  30.374   8.544  16.223 -0.2054 -0.0789 -0.1173
 2468POSM   AM128956  30.220   8.393  15.960  0.2797 -0.0973 -0.0076
 2468POSM   AM228957  30.112   8.540  15.723  0.2143  0.0250 -0.1871
 2468POSM   T1A28958  29.979   8.030  15.646 -0.0708  0.4823  0.0849
 2468POSM   C2A28959  30.066   7.584  15.426 -0.0772  0.0257 -0.2519
 2468POSM   C3A28960  29.800   7.462  15.099  0.0810  0.0197  0.0351
 2468POSM   C1B28961  30.319   8.393  15.466 -0.0332 -0.1213 -0.2228
 2468POSM   D2B28962  30.417   8.485  15.013 -0.3996  0.0077  0.0533
 2468POSM   C3B28963  30.232   8.534  14.607 -0.3351  0.0810  0.0530
 2468POSM   C4B28964  29.811   8.561  14.373 -0.1716 -0.0634  0.0828
 2469POSM   NC328965  28.531   7.523  15.939 -0.0712  0.0022  0.4401
 2469POSM   PO428966  28.414   7.859  16.098 -0.0360 -0.0744 -0.0415
 2469POSM   AM128967  28.452   7.945  15.752  0.1383 -0.0562 -0.0929
 2469POSM   AM228968  28.640   7.930  15.576  0.0588  0.2734  0.0271
 2469POSM   T1A28969  28.204   8.014  15.319  0.0350 -0.0564 -0.3411
 2469POSM   C2A28970  27.770   8.175  15.130 -0.2768 -0.2136 -0.0156
 2469POSM   C3A28971  27.347   8.177  15.096 -0.0726 -0.2391  0.0084
 2469POSM   C1B28972  28.618   8.216  15.384 -0.1094  0.0327 -0.5685
 2469POSM   D2B28973  28.462   8.399  14.986  0.0171  0.1539  0.0839
 2469POSM   C3B28974  28.256   8.204  14.609 -0.1781  0.1336  0.2186
 2469POSM   C4B28975  27.778   8.148  14.552 -0.1567 -0.1031  0.2439
 2470DOPC   NC328976  25.575   0.720  16.624 -0.1572  0.0836 -0.1373
 2470DOPC   PO428977  25.893   0.692  16.391  0.0483  0.3029 -0.2200
 2470DOPC   GL128978  25.824   0.725  15.949  0.1375  0.2176  0.1321
 2470DOPC   GL228979  26.012   0.616  15.815  0.0836 -0.0064 -0.0083
 2470DOPC   C1A28980  25.737   1.102  15.659  0.0657 -0.1008 -0.3252
 2470DOPC   D2A28981  25.424   1.340  15.378  0.0335 -0.1739  0.1990
 2470DOPC   C3A28982  25.413   1.415  14.913 -0.4502 -0.3675 -0.1034
 2470DOPC   C4A28983  25.618   1.317  14.478 -0.3622 -0.1277  0.0479
 2470DOPC   C1B28984  25.821   0.522  15.417 -0.0126  0.0126  0.3057
 2470DOPC   D2B28985  26.056   0.475  15.008  0.0944  0.0154 -0.2045
 2470DOPC   C3B28986  26.133   0.411  14.530  0.1540  0.2408  0.0594
 2470DOPC   C4B28987  26.219   0.395  14.068 -0.1748 -0.0496 -0.2588
 2471DOPS   CNO28988  30.638   4.195  16.561  0.1176  0.0004  0.0344
 2471DOPS   PO428989  30.989   4.126  16.638  0.1885 -0.0808  0.1612
 2471DOPS   GL128990  31.091   4.383  16.337  0.1133  0.0892  0.1076
 2471DOPS   GL228991  30.877   4.540  16.231  0.0813 -0.0030 -0.0002
 2471DOPS   C1A28992  31.278   4.437  15.944 -0.1233 -0.1557 -0.4275
 2471DOPS   D2A28993  31.336   4.333  15.479  0.1559  0.3162  0.1268
 2471DOPS   C3A28994  31.395   4.023  15.142  0.0764 -0.1784  0.2205
 2471DOPS   C4A28995  31.195   3.812  14.754 -0.1517 -0.2277  0.1743
 2471DOPS   C1B28996  30.862   4.724  15.787 -0.2364  0.0600  0.0675
 2471DOPS   D2B28997  31.142   4.942  15.530  0.0864 -0.0931 -0.0132
 2471DOPS   C3B28998  31.021   5.102  15.058  0.2859  0.0074 -0.2262
 2471DOPS   C4B28999  31.156   5.245  14.666  0.2996 -0.1410 -0.0366
 2472DOPE   NH329000  32.391  10.736  15.473  0.2555  0.2808 -0.0297
 2472DOPE   PO429001  32.411  10.504  15.283  0.3347  0.2796 -0.0509
 2472DOPE   GL129002  32.362  10.673  14.925  0.0467  0.3001  0.0694
 2472DOPE   GL229003  32.187  10.491  14.815  0.0886  0.0208 -0.0343
 2472DOPE   C1A29004  32.467  10.871  14.508 -0.0446  0.1490  0.0250
 2472DOPE   D2A29005  32.519  11.171  14.166  0.1112 -0.2065 -0.1227
 2472DOPE   C3A29006  32.243  11.423  14.007  0.3752 -0.0330  0.0279
 2472DOPE   C4A29007  32.031  11.714  13.709 -0.1393  0.1227  0.4340
 2472DOPE   C1B29008  32.224  10.395  14.376  0.1390  0.0567  0.0300
 2472DOPE   D2B29009  32.279  10.355  13.886 -0.0479  0.0222 -0.0038
 2472DOPE   C3B29010  31.971  10.029  13.737  0.0940 -0.0830 -0.0560
 2472DOPE   C4B29011  31.656   9.919  13.425  0.0773 -0.1966 -0.2987
 2473POSM   NC329012  33.321   6.625  16.225  0.0362 -0.1428  0.0270
 2473POSM   PO429013  33.056   6.314  16.125 -0.0588  0.0177 -0.0993
 2473POSM   AM129014  33.185   6.248  15.805  0.0347 -0.1097  0.3128
 2473POSM   AM229015  33.297   6.453  15.624 -0.5296 -0.5380  0.2607
 2473POSM   T1A29016  33.031   6.054  15.355 -0.1355 -0.0298 -0.0976
 2473POSM   C2A29017  32.805   6.179  14.969 -0.0171 -0.1005  0.3484
 2473POSM   C3A29018  32.724   5.887  14.654 -0.3015 -0.1107 -0.1340
 2473POSM   C1B29019  33.460   6.353  15.329 -0.0607  0.1976  0.0118
 2473POSM   D2B29020  33.668   6.418  14.905  0.0758  0.2148  0.1257
 2473POSM   C3B29021  33.596   6.593  14.454  0.0577  0.0459  0.0186
 2473POSM   C4B29022  33.458   6.372  14.081  0.0004 -0.0962  0.2101
 2474POSM   NC329023  33.937   1.325  16.380  0.3945 -0.1237 -0.2377
 2474POSM   PO429024  33.920   1.715  16.339 -0.1906  0.0954  0.1044
 2474POSM   AM129025  33.882   1.615  16.041 -0.0464  0.2622 -0.2781
 2474POSM   AM229026  34.040   1.718  15.836  0.0666 -0.0712  0.2142
 2474POSM   T1A29027  33.531   1.588  15.673  0.1172  0.3320 -0.0938
 2474POSM   C2A29028  33.304   1.436  15.279  0.1440  0.2283 -0.0322
 2474POSM   C3A29029  33.331   1.129  14.921  0.2875  0.1636 -0.1580
 2474POSM   C1B29030  34.178   1.852  15.618  0.1531 -0.2833  0.3363
 2474POSM   D2B29031  34.268   1.962  15.128  0.2335 -0.0511  0.1568
 2474POSM   C3B29032  34.453   1.631  14.803 -0.0352 -0.1932  0.1819
 2474POSM   C4B29033  34.724   1.333  14.670  0.0902 -0.1368 -0.2730
 2475DOPC   NC329034  24.402   7.127  15.872 -0.4829  0.1388  0.1430
 2475DOPC   PO429035  24.482   7.483  15.899 -0.0389  0.1653 -0.0119
 2475DOPC   GL129036  24.425   7.700  15.587  0.4369  0.1575  0.2658
 2475DOPC   GL229037  24.549   7.957  15.683 -0.0449  0.3336  0.1019
 2475DOPC   C1A29038  24.427   7.723  15.192 -0.0127  0.2133 -0.1130
 2475DOPC   D2A29039  24.397   7.715  14.647  0.0352  0.0397 -0.1610
 2475DOPC   C3A29040  24.509   7.514  14.244  0.0209  0.3367 -0.2583
 2475DOPC   C4A29041  24.779   7.322  13.935  0.1299 -0.0091 -0.0075
 2475DOPC   C1B29042  24.811   8.191  15.340  0.1739 -0.1613 -0.0896
 2475DOPC   D2B29043  24.971   8.533  15.545 -0.0102 -0.4338  0.3258
 2475DOPC   C3B29044  25.338   8.686  15.782  0.1021  0.0437 -0.1237
 2475DOPC   C4B29045  25.527   9.059  15.959  0.4495  0.3032  0.2805
 2476DOPC   NC329046  24.560   3.650  15.999  0.3541 -0.0518  0.0918
 2476DOPC   PO429047  24.549   3.267  16.096  0.0193  0.1731 -0.1285
 2476DOPC   GL129048  24.729   3.321  15.706  0.0743  0.2590 -0.0976
 2476DOPC   GL229049  24.616   3.077  15.567 -0.0522  0.4216 -0.2660
 2476DOPC   C1A29050  24.883   3.390  15.274  0.2244  0.3262  0.3512
 2476DOPC   D2A29051  25.110   3.190  14.929  0.2216  0.1930  0.1303
 2476DOPC   C3A29052  24.954   2.972  14.586  0.0388 -0.2801 -0.0599
 2476DOPC   C4A29053  24.813   3.009  14.165 -0.2371  0.0260 -0.1438
 2476DOPC   C1B29054  24.742   2.840  15.242  0.2940  0.1874  0.0096
 2476DOPC   D2B29055  24.846   2.558  14.851 -0.1133 -0.0216  0.2766
 2476DOPC   C3B29056  24.613   2.609  14.443  0.2298  0.3251 -0.1300
 2476DOPC   C4B29057  24.524   2.598  13.997 -0.1037  0.1075  0.0158
 2477POSM   NC329058  30.199   0.507  16.572  0.1227 -0.0744  0.2611
 2477POSM   PO429059  30.093   0.164  16.722  0.0865  0.0253  0.2189
 2477POSM   AM129060  29.911   0.168  16.431  0.0909 -0.1133  0.1564
 2477POSM   AM229061  29.745   0.408  16.340 -0.1569 -0.1165 -0.0256
 2477POSM   T1A29062  29.710  -0.058  16.024 -0.0552 -0.2329 -0.0094
 2477POSM   C2A29063  29.486  -0.418  15.755  0.2553 -0.0621 -0.5647
 2477POSM   C3A29064  29.373  -0.481  15.324 -0.0972  0.2885  0.1862
 2477POSM   C1B29065  29.748   0.458  16.012 -0.1394 -0.0775 -0.0557
 2477POSM   D2B29066  29.595   0.576  15.697 -0.0824 -0.2673 -0.3065
 2477POSM   C3B29067  29.771   0.915  15.456 -0.0141 -0.1440 -0.0818
 2477POSM   C4B29068  29.616   1.217  15.101  0.3178 -0.0952 -0.1771
 2478POSM   NC329069  34.692   4.804  16.311 -0.1207 -0.2044  0.0411
 2478POSM   PO429070  34.384   4.915  16.116  0.0581 -0.2361  0.2233
 2478POSM   AM129071  34.399   5.036  15.824 -0.0698  0.1214  0.0517
 2478POSM   AM229072  34.486   5.250  15.687  0.1825  0.2028  0.0242
 2478POSM   T1A29073  34.271   5.049  15.303  0.1546 -0.2738 -0.0733
 2478POSM   C2A29074  34.300   5.264  14.915 -0.2580 -0.0317  0.3482
 2478POSM   C3A29075  34.026   5.219  14.551  0.1426 -0.0021 -0.0029
 2478POSM   C1B29076  34.445   5.488  15.421 -0.3180  0.1156  0.1104
 2478POSM   D2B29077  34.754   5.742  15.223 -0.0955 -0.1832 -0.0932
 2478POSM   C3B29078  34.683   5.998  14.809  0.3071 -0.0542 -0.0410
 2478POSM   C4B29079  34.704   6.202  14.364 -0.0304  0.1872  0.1468
 2479DOPE   NH329080  33.181  10.615  15.818 -0.2297 -0.0130 -0.0775
 2479DOPE   PO429081  33.258  10.338  15.622  0.0415 -0.1457  0.1195
 2479DOPE   GL129082  33.204  10.380  15.192  0.0535 -0.1370  0.0386
 2479DOPE   GL229083  33.288  10.173  14.944  0.2039  0.2940  0.1153
 2479DOPE   C1A29084  33.046  10.707  14.874  0.0551 -0.4995  0.0888
 2479DOPE   D2A29085  33.042  10.693  14.428  0.2663 -0.0263  0.0339
 2479DOPE   C3A29086  33.064  11.044  14.133 -0.0445  0.0769 -0.0236
 2479DOPE   C4A29087  33.100  11.124  13.708  0.1593 -0.1734 -0.0875
 2479DOPE   C1B29088  33.499  10.373  14.577 -0.2793  0.0206  0.1048
 2479DOPE   D2B29089  33.579  10.619  14.219  0.0743  0.4671  0.1459
 2479DOPE   C3B29090  33.177  10.617  13.893  0.3574  0.1017  0.0976
 2479DOPE   C4B29091  32.696  10.697  13.872 -0.0908  0.2017  0.0497
 2480DOPC   NC329092  29.462   9.772  15.537 -0.1283  0.0204 -0.1033
 2480DOPC   PO429093  29.854   9.783  15.651  0.1231  0.0432  0.1295
 2480DOPC   GL129094  29.781   9.908  15.231 -0.4197 -0.0130  0.2421
 2480DOPC   GL229095  30.041   9.782  15.177  0.0017  0.2322  0.1671
 2480DOPC   C1A29096  29.429   9.956  14.918  0.0841 -0.1511  0.1901
 2480DOPC   D2A29097  29.353  10.029  14.483  0.3729 -0.1916 -0.0958
 2480DOPC   C3A29098  29.506   9.801  14.158  0.0718 -0.0699  0.1398
 2480DOPC   C4A29099  29.788   9.816  13.759 -0.1602  0.0187 -0.2303
 2480DOPC   C1B29100  30.244   9.581  14.776 -0.0097 -0.0022  0.0985
 2480DOPC   D2B29101  30.187   9.627  14.316 -0.1726 -0.0883 -0.2450
 2480DOPC   C3B29102  29.794   9.399  14.086 -0.1714  0.0006 -0.0592
 2480DOPC   C4B29103  29.580   9.397  13.688  0.1295  0.0604  0.0563
 2481DOPE   NH329104  30.757   6.434  16.280  0.0946  0.1721  0.4905
 2481DOPE   PO429105  30.872   6.735  16.298 -0.2147 -0.1602 -0.0420
 2481DOPE   GL129106  31.028   6.709  15.926  0.0668  0.1587  0.1269
 2481DOPE   GL229107  30.828   6.507  15.809 -0.2679  0.2130  0.1019
 2481DOPE   C1A29108  30.941   6.898  15.500  0.1854  0.1589  0.3969
 2481DOPE   D2A29109  30.844   7.068  15.051  0.1367 -0.2364 -0.0549
 2481DOPE   C3A29110  31.091   6.891  14.722 -0.1628  0.2885 -0.1391
 2481DOPE   C4A29111  31.122   6.543  14.547 -0.0060  0.0334  0.0906
 2481DOPE   C1B29112  31.001   6.138  15.481 -0.1201  0.3470  0.1253
 2481DOPE   D2B29113  30.978   5.738  15.233  0.0008 -0.1577  0.2178
 2481DOPE   C3B29114  31.295   5.721  14.896  0.0372  0.0037 -0.2264
 2481DOPE   C4B29115  31.517   5.580  14.486 -0.0957 -0.3264 -0.2927
 2482DOPE   NH329116  34.385   2.879  15.870 -0.0677  0.3548  0.0330
 2482DOPE   PO429117  34.116   2.842  15.705  0.0723  0.1419  0.2469
 2482DOPE   GL129118  33.861   2.923  15.441  0.2365 -0.0917  0.4499
 2482DOPE   GL229119  33.796   3.174  15.369  0.1241  0.2272  0.0732
 2482DOPE   C1A29120  33.578   2.769  15.115 -0.1825 -0.5100 -0.1076
 2482DOPE   D2A29121  33.164   2.641  15.129  0.1783  0.1376  0.1230
 2482DOPE   C3A29122  32.966   2.695  14.703  0.2592 -0.1073  0.1123
 2482DOPE   C4A29123  33.009   3.043  14.293 -0.0629 -0.1019  0.2119
 2482DOPE   C1B29124  33.762   3.327  14.907  0.0216 -0.1504  0.0461
 2482DOPE   D2B29125  33.435   3.436  14.561 -0.1673  0.1676 -0.2337
 2482DOPE   C3B29126  33.278   3.901  14.426 -0.1063 -0.3064 -0.0282
 2482DOPE   C4B29127  32.882   4.074  14.523 -0.0040  0.2260  0.3660
 2483DOPE   NH329128  30.820   3.820  16.992  0.1213 -0.2399 -0.2562
 2483DOPE   PO429129  30.949   3.515  16.839  0.2414 -0.0114  0.0422
 2483DOPE   GL129130  30.988   3.442  16.438 -0.3084 -0.6311 -0.0758
 2483DOPE   GL229131  31.277   3.393  16.347  0.4215  0.2076  0.2838
 2483DOPE   C1A29132  30.731   3.268  16.110  0.0529  0.0386  0.4823
 2483DOPE   D2A29133  30.554   2.913  15.850 -0.0078 -0.0028 -0.0674
 2483DOPE   C3A29134  30.445   2.930  15.437 -0.3348 -0.1039 -0.2277
 2483DOPE   C4A29135  30.576   2.868  14.952  0.0350  0.0963  0.0348
 2483DOPE   C1B29136  31.087   3.501  15.916  0.1224 -0.0478 -0.0408
 2483DOPE   D2B29137  30.719   3.677  15.752  0.0724  0.1033  0.3621
 2483DOPE   C3B29138  30.578   3.412  15.396 -0.0378  0.1919  0.1710
 2483DOPE   C4B29139  30.317   3.367  15.019  0.0411 -0.2378  0.1904
 2484DOPS   CNO29140  23.880   6.309  15.662  0.1868  0.1779 -0.0782
 2484DOPS   PO429141  23.698   5.992  15.636  0.2870 -0.2295 -0.1992
 2484DOPS   GL129142  23.895   5.931  15.317 -0.3075  0.2005 -0.0130
 2484DOPS   GL229143  24.078   5.741  15.459 -0.1268 -0.0046  0.0935
 2484DOPS   C1A29144  24.203   5.981  14.970  0.0270 -0.0563 -0.1277
 2484DOPS   D2A29145  24.310   5.992  14.485  0.0288 -0.0580 -0.1015
 2484DOPS   C3A29146  24.486   6.273  14.175  0.1437  0.3169 -0.1280
 2484DOPS   C4A29147  24.258   6.650  13.991  0.1621 -0.2726  0.0599
 2484DOPS   C1B29148  24.385   5.502  15.206 -0.1145  0.0056  0.1330
 2484DOPS   D2B29149  24.616   5.373  14.849 -0.3314 -0.2118 -0.0823
 2484DOPS   C3B29150  24.508   5.301  14.423  0.3451  0.0437 -0.1170
 2484DOPS   C4B29151  24.511   5.323  13.990  0.0436 -0.2295  0.0442
 2485DOPE   NH329152  29.371   7.119  16.265 -0.0580 -0.0434  0.1288
 2485DOPE   PO429153  29.648   7.232  16.318  0.1396 -0.0343  0.0486
 2485DOPE   GL129154  29.664   7.141  15.871  0.1904 -0.1061 -0.1640
 2485DOPE   GL229155  30.010   7.202  15.874 -0.0265 -0.2537  0.1837
 2485DOPE   C1A29156  29.498   7.234  15.410  0.0928 -0.1953  0.1154
 2485DOPE   D2A29157  29.436   7.200  14.950 -0.3508  0.0959 -0.1095
 2485DOPE   C3A29158  29.521   7.242  14.526 -0.0439  0.2151 -0.5435
 2485DOPE   C4A29159  29.824   7.336  14.227  0.1452  0.2565  0.1913
 2485DOPE   C1B29160  29.952   7.028  15.482  0.0222 -0.0001 -0.0320
 2485DOPE   D2B29161  29.890   6.765  15.107 -0.0523  0.2356 -0.3468
 2485DOPE   C3B29162  29.932   7.029  14.739  0.1392  0.0746  0.0401
 2485DOPE   C4B29163  30.215   7.001  14.370  0.2538  0.1270 -0.0715
 2486DOPE   NH329164  26.366   7.031  16.050  0.2221  0.2743  0.4700
 2486DOPE   PO429165  26.592   6.815  15.988 -0.1920  0.1897 -0.0736
 2486DOPE   GL129166  26.484   6.846  15.641  0.4133 -0.0390 -0.0096
 2486DOPE   GL229167  26.640   6.647  15.475  0.1751 -0.0910 -0.1272
 2486DOPE   C1A29168  26.533   6.985  15.163  0.0006 -0.3567 -0.0886
 2486DOPE   D2A29169  26.755   6.968  14.690  0.2880  0.0925  0.2178
 2486DOPE   C3A29170  26.952   6.562  14.641  0.0213 -0.0865  0.1197
 2486DOPE   C4A29171  26.930   6.070  14.749 -0.1571 -0.0652  0.0608
 2486DOPE   C1B29172  26.991   6.606  15.188  0.0059  0.0411 -0.1832
 2486DOPE   D2B29173  27.376   6.635  14.927  0.0112 -0.0252  0.0937
 2486DOPE   C3B29174  27.807   6.374  14.792 -0.3189 -0.1952 -0.0749
 2486DOPE   C4B29175  28.198   6.160  14.935 -0.1806 -0.1110  0.0992
 2487POSM   NC329176  25.997  34.456  16.427  0.1432  0.1830  0.1220
 2487POSM   PO429177  26.287  34.666  16.530  0.2502  0.0481  0.2678
 2487POSM   AM129178  26.459  34.861  16.351  0.0828  0.1570 -0.4260
 2487POSM   AM229179  26.695  35.047  16.290 -0.2401  0.0553 -0.1770
 2487POSM   T1A29180  26.400  34.984  15.861  0.0649  0.2912 -0.3228
 2487POSM   C2A29181  26.330  34.982  15.399  0.3835  0.0617 -0.3429
 2487POSM   C3A29182  26.561  35.210  15.059  0.0854 -0.0844 -0.0963
 2487POSM   C1B29183  26.893  35.154  16.033 -0.2388 -0.1733  0.0904
 2487POSM   D2B29184  27.103  35.425  15.733 -0.1169 -0.3399  0.1973
 2487POSM   C3B29185  26.915  35.685  15.413 -0.2829  0.0268 -0.1280
 2487POSM   C4B29186  26.866  36.096  15.187 -0.2872 -0.0535 -0.4924
 2488POSM   NC329187  28.455   3.989  17.006  0.2715 -0.2393  0.3264
 2488POSM   PO429188  28.304   3.895  16.635 -0.1516  0.1107  0.0427
 2488POSM   AM129189  28.363   3.854  16.300  0.6134  0.0387 -0.0380
 2488POSM   AM229190  28.302   3.886  16.049 -0.1872 -0.2291  0.0183
 2488POSM   T1A29191  28.746   3.804  16.013  0.1101  0.2478  0.2396
 2488POSM   C2A29192  28.739   4.067  15.602  0.4722  0.1795  0.1664
 2488POSM   C3A29193  28.600   4.481  15.480 -0.1876  0.0256 -0.0936
 2488POSM   C1B29194  28.260   3.697  15.801 -0.0111  0.0559  0.0276
 2488POSM   D2B29195  28.436   3.683  15.395 -0.1544 -0.0169 -0.0069
 2488POSM   C3B29196  28.179   3.349  15.146 -0.2150 -0.0423  0.0481
 2488POSM   C4B29197  28.149   3.117  14.715 -0.1099  0.0882  0.0183
 2489DOPC   NC329198  28.869   6.650  15.818  0.0546  0.0445  0.0315
 2489DOPC   PO429199  29.161   6.636  16.063  0.3326 -0.2495 -0.2905
 2489DOPC   GL129200  29.362   6.545  15.738 -0.1815  0.2984 -0.3973
 2489DOPC   GL229201  29.327   6.819  15.626 -0.1179 -0.0684  0.2717
 2489DOPC   C1A29202  29.135   6.373  15.380 -0.0389 -0.1492  0.2894
 2489DOPC   D2A29203  29.217   6.312  14.935 -0.2494 -0.0395  0.0050
 2489DOPC   C3A29204  29.103   6.341  14.469 -0.0297 -0.1000 -0.0824
 2489DOPC   C4A29205  28.967   6.187  14.074  0.1676 -0.3353 -0.0878
 2489DOPC   C1B29206  29.376   6.754  15.182 -0.0088  0.1970  0.1708
 2489DOPC   D2B29207  29.511   6.669  14.727 -0.1150  0.0905 -0.4327
 2489DOPC   C3B29208  29.782   6.283  14.543 -0.0013  0.0992  0.0302
 2489DOPC   C4B29209  29.972   5.986  14.303 -0.0741 -0.0661  0.0932
 2490DOPC   NC329210  27.003   9.006  15.673 -0.3160 -0.0651  0.0232
 2490DOPC   PO429211  27.280   8.739  15.758  0.2312  0.3715  0.1370
 2490DOPC   GL129212  27.341   8.729  15.409 -0.1932  0.4686  0.3753
 2490DOPC   GL229213  27.563   8.552  15.315  0.1304 -0.1260 -0.1269
 2490DOPC   C1A29214  26.986   8.604  15.121 -0.4833  0.0092  0.0059
 2490DOPC   D2A29215  26.739   8.495  14.744 -0.3515  0.3615 -0.0643
 2490DOPC   C3A29216  26.735   8.728  14.321 -0.0363 -0.0080 -0.0164
 2490DOPC   C4A29217  27.008   9.069  14.230  0.0924  0.2608  0.0188
 2490DOPC   C1B29218  27.563   8.566  14.819 -0.2327  0.0850  0.1166
 2490DOPC   D2B29219  27.730   8.591  14.375 -0.0436 -0.0960 -0.1856
 2490DOPC   C3B29220  27.545   8.322  14.020 -0.1057  0.3454 -0.1574
 2490DOPC   C4B29221  27.587   8.204  13.542 -0.2647  0.0634 -0.2717
 2491POSM   NC329222  26.576   9.666  16.167  0.2190 -0.0062  0.0491
 2491POSM   PO429223  26.302   9.616  15.927 -0.2810 -0.0308 -0.1873
 2491POSM   AM129224  26.211   9.634  15.612 -0.0882  0.2505 -0.7478
 2491POSM   AM229225  26.318   9.495  15.406  0.1423 -0.0179  0.1931
 2491POSM   T1A29226  25.858   9.396  15.309 -0.1473 -0.0760 -0.3865
 2491POSM   C2A29227  25.587   9.264  14.960 -0.0093  0.0282  0.0186
 2491POSM   C3A29228  25.371   9.287  14.503 -0.2013 -0.1447 -0.1162
 2491POSM   C1B29229  26.329   9.281  15.157  0.1942 -0.3080 -0.0134
 2491POSM   D2B29230  26.573   9.032  14.826 -0.0076 -0.0104  0.1969
 2491POSM   C3B29231  26.305   8.813  14.510  0.0284  0.1674 -0.0540
 2491POSM   C4B29232  25.951   8.562  14.425 -0.1898 -0.2284 -0.2560
 2492DOPC   NC329233  31.213   2.639  16.643 -0.5926 -0.0831 -0.0595
 2492DOPC   PO429234  31.553   2.480  16.448  0.2907 -0.0290  0.2472
 2492DOPC   GL129235  31.634   2.509  16.097 -0.0434  0.2222 -0.3733
 2492DOPC   GL229236  31.733   2.739  15.935  0.2036  0.3272 -0.1669
 2492DOPC   C1A29237  31.861   2.277  15.759 -0.0093  0.0193  0.0826
 2492DOPC   D2A29238  32.192   2.296  15.429  0.1106  0.0702  0.0729
 2492DOPC   C3A29239  32.213   2.250  14.918  0.3304 -0.2623  0.1124
 2492DOPC   C4A29240  32.518   2.285  14.602 -0.3199 -0.0497 -0.0320
 2492DOPC   C1B29241  31.847   2.842  15.500  0.2175 -0.0733 -0.2864
 2492DOPC   D2B29242  32.118   2.782  15.120 -0.0742  0.3167  0.0508
 2492DOPC   C3B29243  32.192   2.709  14.674 -0.4029 -0.3163  0.1511
 2492DOPC   C4B29244  32.440   2.867  14.366 -0.3376  0.2757  0.3125
 2493POSM   NC329245  22.820   7.808  15.535  0.1844  0.1394 -0.0205
 2493POSM   PO429246  23.072   8.043  15.769  0.2377 -0.1043 -0.0438
 2493POSM   AM129247  23.202   8.100  15.481 -0.0830 -0.0623  0.3773
 2493POSM   AM229248  23.415   8.211  15.321  0.4660 -0.1066 -0.1013
 2493POSM   T1A29249  23.309   7.875  15.004 -0.0065 -0.0911 -0.0752
 2493POSM   C2A29250  23.590   8.031  14.627 -0.2298 -0.2835 -0.3082
 2493POSM   C3A29251  23.665   7.835  14.144 -0.1213 -0.0615 -0.0902
 2493POSM   C1B29252  23.607   8.253  15.068 -0.0518 -0.0831 -0.0501
 2493POSM   D2B29253  23.981   8.350  14.783  0.1947  0.0537 -0.2121
 2493POSM   C3B29254  24.052   8.108  14.426  0.0787  0.0419 -0.2892
 2493POSM   C4B29255  24.139   7.927  13.991 -0.0978 -0.1306 -0.1056
 2494DOPC   NC329256  26.531   5.557  16.581  0.4274  0.1380 -0.3741
 2494DOPC   PO429257  26.400   5.315  16.288  0.0668 -0.2960  0.4097
 2494DOPC   GL129258  26.341   5.125  16.048 -0.0216 -0.0809 -0.2668
 2494DOPC   GL229259  26.101   5.033  15.954 -0.1132  0.3035  0.1424
 2494DOPC   C1A29260  26.348   5.221  15.585  0.0306  0.3904  0.0104
 2494DOPC   D2A29261  26.423   5.562  15.292  0.0685  0.2177  0.0457
 2494DOPC   C3A29262  26.833   5.695  15.155 -0.1837 -0.0417 -0.0720
 2494DOPC   C4A29263  27.217   5.517  14.922 -0.0994 -0.1567  0.1307
 2494DOPC   C1B29264  25.671   5.051  15.824 -0.0221  0.2613  0.4249
 2494DOPC   D2B29265  25.588   5.095  15.387  0.0456  0.0681  0.0350
 2494DOPC   C3B29266  25.968   5.186  15.194  0.0841 -0.1396  0.0957
 2494DOPC   C4B29267  26.409   5.211  14.986 -0.0368 -0.2256 -0.0653
 2495POSM   NC329268  25.048  10.497  16.045 -0.5373 -0.1210  0.0284
 2495POSM   PO429269  24.928  10.873  16.182 -0.1324 -0.0914  0.2135
 2495POSM   AM129270  24.889  10.941  15.831 -0.1039 -0.0936 -0.0880
 2495POSM   AM229271  25.056  10.823  15.621 -0.1635  0.0632  0.0313
 2495POSM   T1A29272  24.562  10.799  15.446 -0.0421 -0.0688 -0.3046
 2495POSM   C2A29273  24.559  10.701  14.993 -0.0620  0.5639 -0.3701
 2495POSM   C3A29274  24.536  11.003  14.613  0.2347  0.0515 -0.0893
 2495POSM   C1B29275  25.027  10.562  15.369 -0.1658  0.3954 -0.0121
 2495POSM   D2B29276  25.036  10.584  14.900  0.0007 -0.1207  0.0645
 2495POSM   C3B29277  24.865  10.278  14.634  0.2194  0.2780  0.2544
 2495POSM   C4B29278  24.764   9.991  14.292  0.2614  0.1265 -0.0542
 2496DOPE   NH329279  26.654   7.578  16.151  0.3200 -0.1565 -0.1892
 2496DOPE   PO429280  26.716   7.317  16.298  0.1184 -0.1067  0.0868
 2496DOPE   GL129281  26.926   7.089  15.935  0.0211 -0.0440  0.0259
 2496DOPE   GL229282  26.712   7.251  15.779 -0.3093  0.1361  0.1741
 2496DOPE   C1A29283  26.987   7.117  15.432 -0.0425 -0.0168 -0.2075
 2496DOPE   D2A29284  27.188   7.112  14.975  0.2892 -0.1587 -0.1610
 2496DOPE   C3A29285  27.293   7.014  14.508 -0.2431  0.1699 -0.0670
 2496DOPE   C4A29286  27.439   6.672  14.293  0.2138  0.1878  0.0053
 2496DOPE   C1B29287  26.589   7.424  15.321 -0.0309 -0.0887 -0.1119
 2496DOPE   D2B29288  26.707   7.462  14.900 -0.0231 -0.0154  0.2963
 2496DOPE   C3B29289  26.434   7.340  14.570 -0.2307  0.1207  0.2020
 2496DOPE   C4B29290  26.192   7.184  14.206 -0.0375  0.0932  0.2761
 2497DOPC   NC329291  33.693   2.039  16.009  0.2671  0.2670 -0.0102
 2497DOPC   PO429292  33.372   2.249  16.124 -0.0544  0.1401 -0.0770
 2497DOPC   GL129293  33.133   2.122  15.893  0.1141 -0.1339 -0.0720
 2497DOPC   GL229294  33.293   2.059  15.629 -0.0742 -0.0674  0.1021
 2497DOPC   C1A29295  32.721   1.942  15.830 -0.2591 -0.0585 -0.0152
 2497DOPC   D2A29296  32.445   1.713  15.549  0.2007 -0.2952 -0.0154
 2497DOPC   C3A29297  32.679   1.389  15.355  0.3012 -0.1660  0.3382
 2497DOPC   C4A29298  32.826   0.990  15.134  0.0378 -0.0766  0.0249
 2497DOPC   C1B29299  33.417   2.212  15.228 -0.0386 -0.3327  0.0579
 2497DOPC   D2B29300  33.392   2.399  14.771  0.0521  0.1115 -0.1618
 2497DOPC   C3B29301  33.314   2.540  14.322  0.2080  0.3038 -0.2637
 2497DOPC   C4B29302  32.997   2.655  13.972  0.1503  0.0196 -0.1834
 2498DOPC   NC329303  29.592   1.091  16.624 -0.0365  0.3523  0.0386
 2498DOPC   PO429304  29.978   0.958  16.653  0.0509 -0.0492  0.3183
 2498DOPC   GL129305  29.826   0.874  16.275 -0.3112 -0.2959 -0.2513
 2498DOPC   GL229306  30.103   0.836  16.146  0.3167  0.1446  0.3401
 2498DOPC   C1A29307  29.753   1.174  15.891  0.1515 -0.1121 -0.2525
 2498DOPC   D2A29308  29.983   1.515  15.708  0.2098  0.0492  0.2767
 2498DOPC   C3A29309  30.192   1.782  15.411 -0.2388  0.3444  0.1438
 2498DOPC   C4A29310  30.090   1.880  15.005 -0.1839 -0.0045 -0.1376
 2498DOPC   C1B29311  30.118   0.590  15.699 -0.0246  0.0009  0.0947
 2498DOPC   D2B29312  30.396   0.492  15.334  0.0773 -0.0534  0.3703
 2498DOPC   C3B29313  30.410   0.719  14.913  0.2241  0.0307 -0.0865
 2498DOPC   C4B29314  30.366   1.113  14.700  0.1902 -0.1948  0.2659
 2499DOPC   NC329315  27.516   4.711  16.137 -0.1461 -0.0565  0.3730
 2499DOPC   PO429316  27.139   4.807  16.213 -0.1801  0.0208  0.0403
 2499DOPC   GL129317  27.225   5.035  15.854  0.3795  0.0844 -0.1214
 2499DOPC   GL229318  27.188   4.817  15.652  0.1491  0.0627  0.0393
 2499DOPC   C1A29319  27.298   5.305  15.503  0.1925  0.1672  0.1658
 2499DOPC   D2A29320  27.474   5.641  15.307  0.0622 -0.0013 -0.0047
 2499DOPC   C3A29321  27.748   5.616  14.923  0.0984 -0.0408  0.0967
 2499DOPC   C4A29322  28.059   5.794  14.593 -0.1204  0.1081  0.1377
 2499DOPC   C1B29323  27.158   4.707  15.205  0.1256 -0.0242  0.2008
 2499DOPC   D2B29324  27.135   4.713  14.723  0.1004 -0.1378 -0.1161
 2499DOPC   C3B29325  26.808   4.818  14.427  0.5037 -0.1825 -0.0211
 2499DOPC   C4B29326  26.501   4.550  14.181 -0.0404  0.1319 -0.0048
 2500DOPC   NC329327  33.423   8.007  15.390  0.3010 -0.0362  0.3902
 2500DOPC   PO429328  33.261   8.416  15.438 -0.1961  0.1587  0.1102
 2500DOPC   GL129329  33.195   8.568  15.091 -0.0885 -0.1803 -0.0569
 2500DOPC   GL229330  33.321   8.256  14.916  0.0557 -0.2180 -0.0065
 2500DOPC   C1A29331  33.199   8.972  14.855 -0.0017  0.2613  0.1566
 2500DOPC   D2A29332  33.089   9.347  14.561  0.3092 -0.1778  0.0865
 2500DOPC   C3A29333  33.174   9.392  14.124  0.0325  0.0080  0.2651
 2500DOPC   C4A29334  33.230   9.197  13.775 -0.0225  0.1208 -0.3320
 2500DOPC   C1B29335  33.359   8.026  14.465  0.0750 -0.1170 -0.1582
 2500DOPC   D2B29336  33.248   7.845  14.052 -0.1200  0.1252 -0.0651
 2500DOPC   C3B29337  33.190   7.355  14.102 -0.0315  0.3237 -0.2657
 2500DOPC   C4B29338  32.937   7.133  14.424  0.2285 -0.0195  0.1197
 2501DOPS   CNO29339  28.989   5.769  16.148  0.0746 -0.1107  0.0664
 2501DOPS   PO429340  29.385   5.842  16.246 -0.0553 -0.3088  0.1418
 2501DOPS   GL129341  29.702   5.896  15.877 -0.0584 -0.3557  0.1906
 2501DOPS   GL229342  29.667   6.202  15.927 -0.1440  0.0593  0.0852
 2501DOPS   C1A29343  29.771   5.611  15.431  0.2865 -0.1916  0.0215
 2501DOPS   D2A29344  29.817   5.373  15.029  0.0622  0.0362  0.2859
 2501DOPS   C3A29345  29.589   5.426  14.703 -0.2584 -0.0397  0.2996
 2501DOPS   C4A29346  29.625   5.532  14.221  0.0231 -0.1573 -0.0291
 2501DOPS   C1B29347  29.509   6.052  15.485 -0.1751 -0.0091 -0.0959
 2501DOPS   D2B29348  29.439   5.847  15.089 -0.0461 -0.0530  0.2109
 2501DOPS   C3B29349  29.472   5.933  14.645 -0.1179 -0.1327 -0.1375
 2501DOPS   C4B29350  29.346   5.940  14.204 -0.1646  0.3870 -0.2432
 2502DOPC   NC329351  29.894   4.410  16.926  0.2636 -0.1079 -0.0955
 2502DOPC   PO429352  29.914   4.587  16.595 -0.2093  0.1018  0.0883
 2502DOPC   GL129353  30.003   4.546  16.267 -0.0642 -0.2083  0.3689
 2502DOPC   GL229354  29.971   4.695  16.019 -0.2602  0.0647 -0.0276
 2502DOPC   C1A29355  30.392   4.364  16.106  0.1554  0.4368  0.2196
 2502DOPC   D2A29356  30.698   4.181  15.791 -0.1116 -0.0203  0.0554
 2502DOPC   C3A29357  30.848   4.347  15.389 -0.3009 -0.0769  0.1652
 2502DOPC   C4A29358  31.097   4.573  15.094 -0.2501 -0.2198  0.2832
 2502DOPC   C1B29359  29.963   4.880  15.566  0.2186  0.0056 -0.0130
 2502DOPC   D2B29360  30.188   5.037  15.184 -0.2836 -0.1155  0.1644
 2502DOPC   C3B29361  30.199   4.630  14.962  0.0568  0.0967  0.2755
 2502DOPC   C4B29362  30.211   4.136  14.932  0.0464  0.1020 -0.2335
 2503DOPS   CNO29363  31.121   8.644  15.869 -0.0641 -0.1716 -0.3360
 2503DOPS   PO429364  31.130   8.271  15.862 -0.2106  0.0098  0.0708
 2503DOPS   GL129365  30.939   8.113  15.572  0.3268  0.1496 -0.1439
 2503DOPS   GL229366  31.062   7.835  15.453  0.1577 -0.0650  0.0525
 2503DOPS   C1A29367  30.994   8.127  15.111 -0.1931 -0.0844 -0.1341
 2503DOPS   D2A29368  30.825   8.289  14.720 -0.1091  0.1344 -0.3543
 2503DOPS   C3A29369  31.069   8.407  14.338 -0.0356  0.0739 -0.1466
 2503DOPS   C4A29370  31.227   8.633  13.924  0.1070 -0.0459 -0.1536
 2503DOPS   C1B29371  30.569   7.904  15.259 -0.0656 -0.1714 -0.3727
 2503DOPS   D2B29372  30.400   7.953  14.856 -0.1289  0.0698  0.1646
 2503DOPS   C3B29373  30.023   8.089  14.604  0.1039  0.0249 -0.1637
 2503DOPS   C4B29374  29.732   8.048  14.250  0.0406 -0.0977 -0.1083
 2504POSM   NC329375   0.050   0.125  17.020 -0.2911  0.0410  0.4310
 2504POSM   PO429376   0.427   0.172  16.981  0.1839  0.1915 -0.2114
 2504POSM   AM129377   0.404   0.033  16.691 -0.2177  0.3521 -0.1541
 2504POSM   AM229378   0.195  -0.136  16.545  0.0000 -0.0347 -0.0226
 2504POSM   T1A29379   0.407   0.129  16.206  0.2265  0.0189 -0.0489
 2504POSM   C2A29380   0.232   0.099  15.740 -0.0510  0.1346 -0.1092
 2504POSM   C3A29381   0.230   0.063  15.344 -0.3168  0.4286 -0.2826
 2504POSM   C1B29382  -0.060  -0.018  16.359 -0.0843  0.2545 -0.1940
 2504POSM   D2B29383  -0.276  -0.042  15.919  0.3064  0.1150 -0.0784
 2504POSM   C3B29384  -0.257   0.049  15.474 -0.2060 -0.1985  0.3973
 2504POSM   C4B29385  -0.175  -0.024  15.021  0.1445 -0.1028  0.1451
 2505DOPS   CNO29386  28.276   5.248  16.198  0.0677  0.1900  0.2964
 2505DOPS   PO429387  27.963   5.179  16.392  0.1195  0.0109 -0.2495
 2505DOPS   GL129388  27.857   4.995  16.090 -0.0725  0.3253 -0.1333
 2505DOPS   GL229389  28.076   4.883  15.922  0.5489  0.1702  0.1881
 2505DOPS   C1A29390  27.736   5.140  15.664 -0.0886  0.4268 -0.3237
 2505DOPS   D2A29391  27.600   4.948  15.340 -0.1221  0.3226 -0.1563
 2505DOPS   C3A29392  27.446   5.127  14.934 -0.1113 -0.0435  0.0748
 2505DOPS   C4A29393  27.355   5.163  14.474 -0.0424 -0.2217  0.2740
 2505DOPS   C1B29394  28.094   4.757  15.481  0.3366  0.1011  0.1402
 2505DOPS   D2B29395  28.178   4.528  15.096  0.2068 -0.0420 -0.0914
 2505DOPS   C3B29396  28.007   4.461  14.668 -0.0196 -0.1621  0.2444
 2505DOPS   C4B29397  27.963   4.407  14.198  0.0134 -0.1474 -0.1626
 2506DOPS   CNO29398  24.211   3.559  16.378 -0.0129 -0.2929  0.3278
 2506DOPS   PO429399  24.056   3.419  16.083  0.0219 -0.0751 -0.2575
 2506DOPS   GL129400  23.931   3.309  15.748 -0.1263  0.2253  0.2772
 2506DOPS   GL229401  24.241   3.476  15.593  0.1888 -0.1864  0.1471
 2506DOPS   C1A29402  23.827   2.948  15.476 -0.1485 -0.1919 -0.3867
 2506DOPS   D2A29403  23.725   2.684  15.059  0.2405 -0.0764  0.2417
 2506DOPS   C3A29404  23.866   2.476  14.694 -0.1289 -0.0258 -0.1819
 2506DOPS   C4A29405  24.230   2.326  14.358 -0.1123  0.2017  0.1260
 2506DOPS   C1B29406  24.245   3.187  15.274  0.1506 -0.2782 -0.0058
 2506DOPS   D2B29407  24.536   3.200  14.886 -0.1859  0.1380  0.2299
 2506DOPS   C3B29408  24.453   3.518  14.555 -0.0219 -0.0038 -0.1262
 2506DOPS   C4B29409  24.299   3.786  14.197 -0.0339 -0.0434  0.0035
 2507DOPE   NH329410  26.621   4.801  16.264  0.0787  0.0417 -0.5970
 2507DOPE   PO429411  26.423   4.565  16.217  0.0768 -0.2953 -0.0804
 2507DOPE   GL129412  26.402   4.550  15.792  0.2570  0.5350 -0.1270
 2507DOPE   GL229413  26.565   4.822  15.724 -0.1885  0.0398 -0.2665
 2507DOPE   C1A29414  26.744   4.388  15.453 -0.1849 -0.2829  0.0064
 2507DOPE   D2A29415  26.689   4.376  14.986  0.1569 -0.0819 -0.1715
 2507DOPE   C3A29416  26.555   3.953  14.851  0.2922 -0.0053  0.3757
 2507DOPE   C4A29417  26.751   3.639  14.543  0.0949 -0.0954 -0.0239
 2507DOPE   C1B29418  26.433   4.789  15.237  0.0249 -0.1877  0.2395
 2507DOPE   D2B29419  26.169   4.811  14.830 -0.1188  0.0270  0.0604
 2507DOPE   C3B29420  26.220   4.386  14.607 -0.0475  0.3815  0.2350
 2507DOPE   C4B29421  26.417   4.105  14.373  0.0761  0.1758 -0.0207
 2508DOPE   NH329422  32.003   0.534  16.542  0.0860  0.0084 -0.0420
 2508DOPE   PO429423  32.006   0.821  16.535 -0.1336  0.1368  0.1601
 2508DOPE   GL129424  31.939   0.719  16.147  0.0183  0.0972  0.2706
 2508DOPE   GL229425  32.083   0.892  15.995 -0.0466  0.2717  0.0078
 2508DOPE   C1A29426  31.695   0.638  15.742  0.3253 -0.3549  0.3490
 2508DOPE   D2A29427  31.543   0.968  15.489 -0.1189 -0.0695 -0.0354
 2508DOPE   C3A29428  31.784   0.846  15.119 -0.1648  0.1042 -0.0377
 2508DOPE   C4A29429  32.100   0.941  14.769  0.0494  0.0541  0.0584
 2508DOPE   C1B29430  32.026   1.153  15.563  0.2126  0.2401  0.3387
 2508DOPE   D2B29431  32.110   1.356  15.183 -0.0061  0.1167  0.1638
 2508DOPE   C3B29432  32.489   1.329  14.888 -0.3960  0.2809 -0.1804
 2508DOPE   C4B29433  32.953   1.484  14.901 -0.3081 -0.1090 -0.3656
 2509DOPE   NH329434  30.431   9.857  15.522  0.1350 -0.3535  0.1164
 2509DOPE   PO429435  30.642   9.885  15.275  0.4285 -0.0100  0.1834
 2509DOPE   GL129436  30.558   9.823  14.902  0.2653 -0.0794 -0.1022
 2509DOPE   GL229437  30.528  10.157  14.819 -0.0657  0.1721 -0.1865
 2509DOPE   C1A29438  30.602   9.827  14.414  0.0718  0.0890  0.1360
 2509DOPE   D2A29439  30.752   9.653  14.021 -0.2086  0.3623 -0.1372
 2509DOPE   C3A29440  30.661   9.614  13.558 -0.4375  0.1086  0.1971
 2509DOPE   C4A29441  30.476   9.353  13.139  0.2168  0.2893  0.0116
 2509DOPE   C1B29442  30.412  10.325  14.420 -0.2066 -0.0502 -0.0920
 2509DOPE   D2B29443  30.376  10.029  14.044  0.0117  0.1188 -0.1391
 2509DOPE   C3B29444  30.530  10.067  13.609  0.2266  0.3020 -0.2264
 2509DOPE   C4B29445  30.282   9.950  13.180  0.1132  0.1808 -0.0508
 2510DOPC   NC329446  27.926   7.968  16.041  0.3841  0.0853 -0.3677
 2510DOPC   PO429447  27.726   7.643  16.017 -0.1509  0.0995 -0.1776
 2510DOPC   GL129448  27.701   7.623  15.730 -0.2460  0.1467  0.4069
 2510DOPC   GL229449  27.749   7.891  15.573  0.1198 -0.0408 -0.0570
 2510DOPC   C1A29450  27.642   7.308  15.433  0.4769  0.3771 -0.3301
 2510DOPC   D2A29451  27.446   6.894  15.356  0.0323  0.1153  0.0637
 2510DOPC   C3A29452  27.483   6.415  15.423 -0.2653  0.0028  0.0384
 2510DOPC   C4A29453  27.781   6.113  15.249 -0.1015  0.2182 -0.2927
 2510DOPC   C1B29454  27.886   7.641  15.212  0.2088 -0.1492 -0.0004
 2510DOPC   D2B29455  27.667   7.306  14.894  0.2401  0.0905  0.1579
 2510DOPC   C3B29456  27.756   7.437  14.411  0.0734  0.3104  0.1110
 2510DOPC   C4B29457  27.748   7.812  14.194 -0.2644 -0.2150 -0.0508
 2511DOPC   NC329458  34.680   4.200  15.809  0.0229  0.0447  0.1871
 2511DOPC   PO429459  34.720   4.600  15.895  0.3023  0.0716 -0.0534
 2511DOPC   GL129460  34.518   4.717  15.589 -0.0423 -0.4940 -0.1209
 2511DOPC   GL229461  34.228   4.540  15.638 -0.0431 -0.1035  0.1465
 2511DOPC   C1A29462  34.595   4.720  15.141 -0.0679 -0.0947 -0.1026
 2511DOPC   D2A29463  34.686   4.363  14.852 -0.0973  0.0022  0.0323
 2511DOPC   C3A29464  34.435   4.400  14.426  0.0042 -0.0119  0.0970
 2511DOPC   C4A29465  34.204   4.582  14.157  0.0391 -0.0743  0.0870
 2511DOPC   C1B29466  34.461   4.299  15.345  0.0201  0.1307  0.0775
 2511DOPC   D2B29467  34.836   4.055  15.285  0.2460  0.4556 -0.1553
 2511DOPC   C3B29468  35.223   4.076  14.927 -0.3636  0.2797  0.0054
 2511DOPC   C4B29469  35.648   4.095  14.714 -0.3620  0.0071 -0.1470
 2512POSM   NC329470  26.809   5.172  15.973  0.1591  0.0036 -0.0604
 2512POSM   PO429471  26.911   5.393  16.291 -0.0460  0.0909 -0.0967
 2512POSM   AM129472  26.968   5.611  16.020 -0.2354 -0.0467 -0.0241
 2512POSM   AM229473  26.908   5.796  15.805 -0.1196 -0.2140  0.0631
 2512POSM   T1A29474  27.374   5.704  15.808 -0.1763  0.1610  0.1025
 2512POSM   C2A29475  27.788   5.867  15.674 -0.1606  0.1648 -0.2608
 2512POSM   C3A29476  28.157   5.754  15.409  0.2321 -0.0807  0.0234
 2512POSM   C1B29477  26.834   5.507  15.582  0.2800  0.0962  0.0927
 2512POSM   D2B29478  26.868   5.110  15.339  0.1532  0.0087  0.0156
 2512POSM   C3B29479  26.919   5.119  14.871  0.3217  0.0408  0.2171
 2512POSM   C4B29480  26.705   5.337  14.561  0.0042  0.3022 -0.3129
 2513POSM   NC329481  25.923  10.019  16.134 -0.3135 -0.3655 -0.0672
 2513POSM   PO429482  25.605  10.235  16.099 -0.1869 -0.0336  0.1151
 2513POSM   AM129483  25.501   9.987  15.922  0.0479  0.1521  0.4205
 2513POSM   AM229484  25.188   9.981  15.870  0.1725 -0.0749 -0.1595
 2513POSM   T1A29485  25.469   9.511  15.722  0.0821 -0.0747  0.1746
 2513POSM   C2A29486  25.363   9.201  15.480  0.4101  0.2447  0.2109
 2513POSM   C3A29487  25.508   8.826  15.296  0.1744  0.2055 -0.0204
 2513POSM   C1B29488  24.860  10.030  15.651  0.0141 -0.0901 -0.0938
 2513POSM   D2B29489  24.581  10.312  15.332 -0.0461  0.2260  0.0121
 2513POSM   C3B29490  24.428  10.129  14.853 -0.1842  0.1961 -0.2005
 2513POSM   C4B29491  24.047  10.053  14.538 -0.3555 -0.1037 -0.0928
 2514DOPE   NH329492  25.838   3.257  16.679  0.2374 -0.1434  0.0898
 2514DOPE   PO429493  25.974   3.410  16.404  0.4670 -0.2943 -0.0034
 2514DOPE   GL129494  26.194   3.302  16.113 -0.0830  0.0565 -0.0545
 2514DOPE   GL229495  26.258   3.585  15.975 -0.0589 -0.1145 -0.0277
 2514DOPE   C1A29496  26.201   3.168  15.645 -0.0058 -0.0537  0.3112
 2514DOPE   D2A29497  26.501   3.147  15.256 -0.2661  0.2341 -0.4528
 2514DOPE   C3A29498  26.709   2.758  15.054  0.0256 -0.0952 -0.1266
 2514DOPE   C4A29499  26.884   2.514  14.705  0.0289  0.0019 -0.0652
 2514DOPE   C1B29500  26.241   3.611  15.507  0.0169  0.0759  0.0215
 2514DOPE   D2B29501  26.187   3.615  15.025 -0.2458  0.1133 -0.2303
 2514DOPE   C3B29502  26.467   3.383  14.848 -0.2461 -0.1535 -0.0810
 2514DOPE   C4B29503  26.364   2.946  14.733  0.0449 -0.0240 -0.2608
 2515DOPE   NH329504  24.491   4.349  15.995 -0.3054  0.2389 -0.0773
 2515DOPE   PO429505  24.618   4.094  16.162  0.1558  0.0163  0.1719
 2515DOPE   GL129506  24.899   4.077  15.850  0.3065 -0.0039 -0.2553
 2515DOPE   GL229507  24.782   3.978  15.615  0.0621 -0.5031  0.0373
 2515DOPE   C1A29508  25.254   4.184  15.580 -0.2694  0.2441 -0.3350
 2515DOPE   D2A29509  25.383   4.380  15.187  0.0019  0.1916 -0.2289
 2515DOPE   C3A29510  25.808   4.654  15.253 -0.0652  0.1778  0.0084
 2515DOPE   C4A29511  26.036   4.802  15.556  0.0887  0.2199 -0.1504
 2515DOPE   C1B29512  24.805   4.231  15.297  0.0167  0.0138 -0.1282
 2515DOPE   D2B29513  24.959   4.330  14.841  0.2151  0.1217  0.1337
 2515DOPE   C3B29514  25.068   4.509  14.483 -0.0852  0.0659 -0.2517
 2515DOPE   C4B29515  25.325   4.860  14.310  0.1916  0.1761  0.2939
 2516DOPE   NH329516  28.871  10.939  15.610 -0.0729 -0.0206 -0.1307
 2516DOPE   PO429517  28.622  11.031  15.764  0.0305 -0.0992  0.0998
 2516DOPE   GL129518  28.673  11.264  15.400  0.0159  0.0174  0.0288
 2516DOPE   GL229519  28.387  11.357  15.438  0.1338  0.1529 -0.1166
 2516DOPE   C1A29520  28.810  11.417  14.987  0.1525  0.0300  0.2109
 2516DOPE   D2A29521  28.848  11.489  14.512  0.0913  0.3700 -0.1662
 2516DOPE   C3A29522  28.753  11.858  14.361  0.2249 -0.0245 -0.0762
 2516DOPE   C4A29523  28.714  12.198  14.095  0.2664 -0.0062  0.1045
 2516DOPE   C1B29524  28.347  11.625  15.070 -0.2698  0.2223 -0.0374
 2516DOPE   D2B29525  28.391  11.777  14.665 -0.0244  0.3435  0.1099
 2516DOPE   C3B29526  28.203  12.211  14.582  0.1258  0.3128  0.1864
 2516DOPE   C4B29527  28.111  12.568  14.381 -0.4467 -0.3018  0.2408
 2517DOPC   NC329528  24.177   1.166  15.628  0.0875 -0.1749  0.1744
 2517DOPC   PO429529  23.810   1.311  15.629  0.1840  0.2428  0.2614
 2517DOPC   GL129530  23.745   1.343  15.216  0.1482  0.1278 -0.0994
 2517DOPC   GL229531  23.560   1.063  15.239  0.1552 -0.1338 -0.2527
 2517DOPC   C1A29532  23.564   1.725  14.995 -0.0300 -0.1946 -0.0621
 2517DOPC   D2A29533  23.489   2.099  14.770 -0.1122 -0.2347 -0.3352
 2517DOPC   C3A29534  23.268   2.261  14.401  0.2620  0.1043  0.0961
 2517DOPC   C4A29535  23.343   2.570  14.073  0.1009  0.0430 -0.0524
 2517DOPC   C1B29536  23.488   1.233  14.823 -0.0330 -0.0159  0.0639
 2517DOPC   D2B29537  23.261   1.289  14.449 -0.4024 -0.0504 -0.1148
 2517DOPC   C3B29538  23.432   1.270  14.046  0.0928  0.1303 -0.0319
 2517DOPC   C4B29539  23.408   1.476  13.639  0.0766  0.1006  0.1262
 2518DOPC   NC329540  23.147   6.430  15.995 -0.0541 -0.1070  0.0440
 2518DOPC   PO429541  23.288   6.336  15.647 -0.0433  0.4062 -0.0258
 2518DOPC   GL129542  23.572   6.462  15.324  0.1623 -0.0643 -0.2957
 2518DOPC   GL229543  23.405   6.531  15.035  0.1385  0.2420 -0.0466
 2518DOPC   C1A29544  23.757   6.178  14.983 -0.2515  0.1053  0.0835
 2518DOPC   D2A29545  23.729   5.846  14.696  0.1456 -0.0554 -0.0333
 2518DOPC   C3A29546  23.852   5.922  14.240  0.0852  0.0396  0.0573
 2518DOPC   C4A29547  23.723   5.889  13.808 -0.2344  0.0215  0.2047
 2518DOPC   C1B29548  23.610   6.413  14.598 -0.1763  0.1408 -0.4154
 2518DOPC   D2B29549  23.937   6.363  14.296 -0.1202 -0.2052  0.2896
 2518DOPC   C3B29550  24.090   6.204  13.885  0.0989 -0.1856  0.0886
 2518DOPC   C4B29551  24.309   5.806  13.926 -0.2612  0.0804  0.0171
 2519POSM   NC329552  27.266   1.848  16.332  0.0444 -0.1222  0.2167
 2519POSM   PO429553  27.586   1.853  16.547 -0.2051 -0.1884 -0.1672
 2519POSM   AM129554  27.693   2.046  16.271  0.0524 -0.0665 -0.0426
 2519POSM   AM229555  27.884   2.022  16.062 -0.3145 -0.0042  0.3147
 2519POSM   T1A29556  27.572   2.444  15.964  0.0486  0.0651  0.0726
 2519POSM   C2A29557  27.653   2.642  15.523  0.0105 -0.0315 -0.2064
 2519POSM   C3A29558  27.808   2.998  15.243 -0.3627 -0.2027  0.1987
 2519POSM   C1B29559  28.009   2.249  15.818 -0.2197 -0.1293 -0.3550
 2519POSM   D2B29560  28.064   2.683  15.844 -0.1064 -0.2048  0.1794
 2519POSM   C3B29561  27.915   2.960  16.183 -0.0353  0.0929  0.1584
 2519POSM   C4B29562  27.648   3.279  16.275 -0.0397 -0.1465 -0.1039
 2520DOPC   NC329563  25.642  11.603  15.762 -0.0654  0.2649 -0.0059
 2520DOPC   PO429564  25.596  11.240  15.792  0.0175  0.2936  0.2541
 2520DOPC   GL129565  25.634  11.166  15.488 -0.1077 -0.1854  0.0407
 2520DOPC   GL229566  25.519  10.843  15.389 -0.3811 -0.0830  0.0266
 2520DOPC   C1A29567  25.769  11.068  15.039  0.1026 -0.1260  0.1090
 2520DOPC   D2A29568  25.638  11.313  14.693  0.0717  0.1899 -0.1310
 2520DOPC   C3A29569  25.727  11.821  14.750  0.1362 -0.0770  0.0106
 2520DOPC   C4A29570  25.625  12.242  14.981 -0.0638 -0.1200 -0.0565
 2520DOPC   C1B29571  25.595  10.582  14.998 -0.1746 -0.0921 -0.0326
 2520DOPC   D2B29572  25.909  10.258  14.869 -0.0535 -0.0794  0.0709
 2520DOPC   C3B29573  25.787  10.095  14.453  0.3637  0.1202 -0.1469
 2520DOPC   C4B29574  25.849   9.955  13.984  0.0003 -0.1487 -0.1805
 2521DOPE   NH329575  31.034   1.940  16.559 -0.3452  0.0811 -0.0444
 2521DOPE   PO429576  30.968   2.256  16.469  0.1534 -0.2363 -0.0754
 2521DOPE   GL129577  31.173   2.284  16.162 -0.3422  0.0314 -0.2686
 2521DOPE   GL229578  31.167   2.647  16.119 -0.1717 -0.1667  0.1911
 2521DOPE   C1A29579  31.362   2.351  15.721  0.3508  0.1229 -0.1914
 2521DOPE   D2A29580  31.664   2.229  15.339  0.0180 -0.1076 -0.1818
 2521DOPE   C3A29581  31.689   2.429  14.917  0.0234 -0.1559 -0.1165
 2521DOPE   C4A29582  31.865   2.414  14.488 -0.1700  0.0048  0.2061
 2521DOPE   C1B29583  31.274   2.889  15.748 -0.0468  0.3402  0.0006
 2521DOPE   D2B29584  31.419   2.676  15.320 -0.1986  0.3558  0.2778
 2521DOPE   C3B29585  31.229   2.721  14.921  0.0487  0.0819  0.0183
 2521DOPE   C4B29586  31.152   2.602  14.484 -0.1633 -0.0678  0.1731
 2522DOPC   NC329587  26.278   6.247  15.730 -0.0122 -0.2565  0.0924
 2522DOPC   PO429588  26.120   6.586  15.909  0.0593  0.0117  0.0737
 2522DOPC   GL129589  25.805   6.388  15.650 -0.2935  0.1820 -0.2306
 2522DOPC   GL229590  25.598   6.606  15.793  0.3021 -0.2689  0.0056
 2522DOPC   C1A29591  25.467   6.456  15.262 -0.1015  0.2361  0.1993
 2522DOPC   D2A29592  25.420   6.480  14.841 -0.0601 -0.1542  0.0256
 2522DOPC   C3A29593  25.101   6.661  14.573 -0.1665 -0.2881 -0.0453
 2522DOPC   C4A29594  24.758   6.666  14.269 -0.0852  0.0146 -0.1228
 2522DOPC   C1B29595  25.789   6.964  15.556  0.1434  0.1187  0.2896
 2522DOPC   D2B29596  26.189   7.239  15.533  0.1289  0.1537  0.0507
 2522DOPC   C3B29597  26.328   7.617  15.693  0.1776 -0.2018 -0.0770
 2522DOPC   C4B29598  26.442   8.007  15.556 -0.1647 -0.1431  0.2893
 2523DOPE   NH329599  23.535   8.335  15.780  0.0234  0.3014 -0.0143
 2523DOPE   PO429600  23.469   8.635  15.723  0.1977 -0.2339 -0.1120
 2523DOPE   GL129601  23.315   8.851  15.426  0.4144 -0.0879  0.3619
 2523DOPE   GL229602  23.051   9.038  15.370 -0.0155  0.0950 -0.3241
 2523DOPE   C1A29603  23.433   8.867  14.942 -0.0433  0.2399 -0.0412
 2523DOPE   D2A29604  23.789   8.967  14.622  0.1168  0.4070  0.1067
 2523DOPE   C3A29605  24.070   8.695  14.388 -0.0901  0.0708 -0.1463
 2523DOPE   C4A29606  24.269   8.456  14.059 -0.0866 -0.0744 -0.2224
 2523DOPE   C1B29607  23.235   9.322  15.029 -0.1856  0.2481  0.2125
 2523DOPE   D2B29608  23.242   9.761  14.865  0.2155  0.1458  0.1925
 2523DOPE   C3B29609  23.536   9.828  14.572  0.1867 -0.5372  0.1387
 2523DOPE   C4B29610  23.630  10.037  14.186 -0.1095  0.1241  0.1654
 2524DOPE   NH329611  32.348   0.463  17.003  0.0027  0.1725 -0.0315
 2524DOPE   PO429612  32.355   0.216  16.788  0.1341 -0.1291  0.1734
 2524DOPE   GL129613  32.630   0.185  16.475 -0.0179  0.1411  0.1947
 2524DOPE   GL229614  32.536  -0.020  16.259 -0.0227  0.1606  0.0811
 2524DOPE   C1A29615  32.940   0.237  16.150 -0.1585 -0.0438 -0.3370
 2524DOPE   D2A29616  33.019   0.493  15.777  0.3441 -0.0943  0.0072
 2524DOPE   C3A29617  32.658   0.758  15.611 -0.0441 -0.0538 -0.4408
 2524DOPE   C4A29618  32.487   1.130  15.821  0.1871  0.1109 -0.0599
 2524DOPE   C1B29619  32.579   0.221  15.824 -0.0718  0.2238  0.0254
 2524DOPE   D2B29620  32.524   0.345  15.325 -0.1982 -0.0890 -0.4130
 2524DOPE   C3B29621  32.576   0.134  14.896  0.2220 -0.0181  0.0493
 2524DOPE   C4B29622  32.705   0.042  14.464  0.1494  0.1002  0.0501
 2525DOPC   NC329623  26.705   3.383  16.644  0.0730 -0.1552 -0.1187
 2525DOPC   PO429624  27.074   3.287  16.616  0.1934  0.2386  0.3545
 2525DOPC   GL129625  26.968   3.278  16.262 -0.1732 -0.0690 -0.0838
 2525DOPC   GL229626  26.756   3.493  16.077  0.2344  0.1169 -0.2892
 2525DOPC   C1A29627  27.076   3.100  15.877  0.0940 -0.3009 -0.1027
 2525DOPC   D2A29628  26.968   3.006  15.417  0.3347  0.2645 -0.2780
 2525DOPC   C3A29629  27.225   2.951  15.019  0.1101 -0.2544  0.0054
 2525DOPC   C4A29630  27.559   3.213  14.776 -0.0569  0.0906  0.0268
 2525DOPC   C1B29631  26.802   3.414  15.625  0.0130 -0.0673  0.2094
 2525DOPC   D2B29632  26.677   3.672  15.266 -0.2909 -0.1431  0.4477
 2525DOPC   C3B29633  26.943   4.035  15.205 -0.2812  0.0928 -0.0701
 2525DOPC   C4B29634  27.217   4.273  14.919  0.1002 -0.5667 -0.0623
 2526DOPC   NC329635  28.073   4.707  16.392  0.0619 -0.1576 -0.1045
 2526DOPC   PO429636  27.887   4.420  16.143  0.2175 -0.2465 -0.1638
 2526DOPC   GL129637  27.919   4.438  15.698 -0.1809 -0.2795  0.0742
 2526DOPC   GL229638  27.635   4.612  15.647 -0.3389 -0.0782 -0.2736
 2526DOPC   C1A29639  28.208   4.149  15.391  0.2067 -0.2413 -0.0512
 2526DOPC   D2A29640  28.399   4.056  14.972 -0.2470 -0.3296 -0.1141
 2526DOPC   C3A29641  28.232   4.017  14.512 -0.0372  0.0998 -0.0987
 2526DOPC   C4A29642  28.069   3.917  14.099 -0.0374 -0.0482  0.1725
 2526DOPC   C1B29643  27.721   4.462  15.166  0.3736 -0.1610 -0.0282
 2526DOPC   D2B29644  27.913   4.101  14.974  0.1106  0.3958  0.2199
 2526DOPC   C3B29645  27.661   4.088  14.566 -0.0848  0.2354  0.0353
 2526DOPC   C4B29646  27.550   4.041  14.135  0.1015  0.0369  0.2249
 2527DOPC   NC329647  33.911   9.525  15.694  0.0046  0.2159  0.2460
 2527DOPC   PO429648  33.724   9.234  15.819  0.0639 -0.0924 -0.0863
 2527DOPC   GL129649  33.853   8.969  15.600  0.0146 -0.1366 -0.0197
 2527DOPC   GL229650  34.160   9.092  15.561 -0.0936  0.0245  0.1255
 2527DOPC   C1A29651  33.953   8.918  15.130  0.1741 -0.0788  0.2859
 2527DOPC   D2A29652  34.005   8.824  14.636 -0.1764  0.4180 -0.0519
 2527DOPC   C3A29653  33.910   8.673  14.217 -0.0222  0.1099  0.1574
 2527DOPC   C4A29654  33.640   8.556  13.833 -0.1928 -0.1410  0.0017
 2527DOPC   C1B29655  34.524   9.125  15.203 -0.0962  0.3617  0.3453
 2527DOPC   D2B29656  34.479   8.934  14.747 -0.0447  0.3581  0.1423
 2527DOPC   C3B29657  34.833   8.881  14.416  0.0627 -0.1156 -0.0060
 2527DOPC   C4B29658  34.760   8.756  13.941 -0.0096  0.1443 -0.1472
 2528DOPC   NC329659  23.639   1.728  15.504  0.1510 -0.0713 -0.2433
 2528DOPC   PO429660  23.329   1.532  15.574  0.0773 -0.0074 -0.0054
 2528DOPC   GL129661  23.142   1.428  15.171  0.0591  0.0962  0.0333
 2528DOPC   GL229662  22.944   1.260  15.112 -0.2408  0.0654 -0.0796
 2528DOPC   C1A29663  23.152   1.662  14.754  0.1524 -0.3030  0.1004
 2528DOPC   D2A29664  23.058   1.826  14.333  0.1653 -0.0444 -0.0084
 2528DOPC   C3A29665  23.326   1.855  14.003 -0.1044 -0.1348 -0.1013
 2528DOPC   C4A29666  23.507   2.179  13.722 -0.0996  0.1895  0.1154
 2528DOPC   C1B29667  22.499   1.438  14.982  0.0549  0.0321 -0.1667
 2528DOPC   D2B29668  22.122   1.431  14.714 -0.2461  0.1022  0.3043
 2528DOPC   C3B29669  22.131   1.822  14.397 -0.1088 -0.1774  0.0067
 2528DOPC   C4B29670  22.291   1.821  13.975 -0.0414 -0.2358 -0.3991
 2529DOPC   NC329671  29.624   3.409  16.549 -0.2487 -0.0299  0.1180
 2529DOPC   PO429672  29.641   3.800  16.487 -0.3544  0.0819 -0.1862
 2529DOPC   GL129673  29.792   3.751  16.092 -0.0804  0.2340  0.0713
 2529DOPC   GL229674  29.817   3.513  16.061 -0.1407  0.3236  0.4614
 2529DOPC   C1A29675  29.816   3.884  15.694 -0.0272 -0.0906 -0.0185
 2529DOPC   D2A29676  30.033   3.947  15.316  0.0287 -0.2741 -0.1833
 2529DOPC   C3A29677  30.418   3.930  15.396 -0.1662 -0.2180 -0.1147
 2529DOPC   C4A29678  30.858   3.938  15.194  0.0601  0.2345  0.3888
 2529DOPC   C1B29679  29.479   3.240  15.972  0.1503  0.1104  0.0439
 2529DOPC   D2B29680  29.144   3.157  15.643  0.2800  0.0890  0.0216
 2529DOPC   C3B29681  28.810   3.017  15.369  0.1594  0.0447  0.4405
 2529DOPC   C4B29682  28.731   2.538  15.313  0.1748 -0.3021  0.1488
 2530DOPE   NH329683  33.309   7.450  16.344 -0.2207  0.1479  0.3920
 2530DOPE   PO429684  33.288   7.143  16.318 -0.0808 -0.1978  0.2576
 2530DOPE   GL129685  33.302   6.943  15.892  0.1059 -0.0105  0.1236
 2530DOPE   GL229686  33.042   6.795  15.890  0.0118 -0.1539  0.0912
 2530DOPE   C1A29687  33.417   6.912  15.400 -0.0929  0.2385 -0.0473
 2530DOPE   D2A29688  33.586   7.040  14.972 -0.1921 -0.1110 -0.1351
 2530DOPE   C3A29689  33.405   7.324  14.651  0.1033  0.1037 -0.4352
 2530DOPE   C4A29690  33.672   7.552  14.332 -0.3145 -0.0314  0.2363
 2530DOPE   C1B29691  33.006   7.117  15.511 -0.1694 -0.0977 -0.2206
 2530DOPE   D2B29692  33.024   7.248  15.037  0.0216  0.0507 -0.2824
 2530DOPE   C3B29693  32.682   7.164  14.797 -0.0157  0.0337 -0.1255
 2530DOPE   C4B29694  32.402   7.272  14.501  0.1037 -0.1488  0.0092
 2531DOPE   NH329695  31.382   6.884  16.154 -0.2729  0.0461 -0.1208
 2531DOPE   PO429696  31.661   7.045  16.073  0.1498 -0.2028 -0.0718
 2531DOPE   GL129697  31.950   7.070  15.747  0.0681 -0.0193 -0.1687
 2531DOPE   GL229698  31.798   7.282  15.599 -0.4124 -0.2181  0.0296
 2531DOPE   C1A29699  32.184   6.828  15.418 -0.3485  0.1176 -0.0949
 2531DOPE   D2A29700  32.405   6.784  15.039  0.2130  0.1679  0.1741
 2531DOPE   C3A29701  32.750   6.665  14.737 -0.2216 -0.1479  0.1737
 2531DOPE   C4A29702  33.059   6.393  14.521  0.0338  0.0938 -0.0298
 2531DOPE   C1B29703  31.852   7.106  15.226 -0.1293  0.0179  0.2657
 2531DOPE   D2B29704  32.007   7.072  14.810  0.1306  0.3140 -0.3404
 2531DOPE   C3B29705  32.276   6.836  14.538  0.0036 -0.0726  0.3649
 2531DOPE   C4B29706  32.581   6.716  14.262 -0.1457 -0.0526  0.4405
 2532POSM   NC329707  28.906   8.787  15.942 -0.0755  0.0012 -0.2186
 2532POSM   PO429708  28.489   8.792  15.993 -0.0791 -0.0470  0.2794
 2532POSM   AM129709  28.481   8.780  15.689 -0.3390  0.0461 -0.0078
 2532POSM   AM229710  28.672   8.735  15.500 -0.3079  0.1101  0.2083
 2532POSM   T1A29711  28.171   8.622  15.309 -0.2510 -0.2005 -0.1474
 2532POSM   C2A29712  28.072   8.632  14.906  0.0473 -0.3273  0.2111
 2532POSM   C3A29713  28.221   8.808  14.463  0.2033 -0.1983  0.2183
 2532POSM   C1B29714  28.942   8.692  15.267  0.0158  0.0581  0.3949
 2532POSM   D2B29715  29.131   8.588  14.897  0.2034 -0.3570 -0.0219
 2532POSM   C3B29716  28.808   8.651  14.587  0.2507  0.1677 -0.0433
 2532POSM   C4B29717  28.569   8.582  14.104  0.2123  0.3483  0.0877
 2533DOPC   NC329718  30.749   0.359  16.358  0.1178 -0.1437 -0.0256
 2533DOPC   PO429719  31.127   0.353  16.217  0.2619 -0.0204 -0.2081
 2533DOPC   GL129720  31.125   0.386  15.878 -0.0281  0.2616 -0.0284
 2533DOPC   GL229721  30.814   0.280  15.846 -0.0047  0.1090  0.1248
 2533DOPC   C1A29722  31.084   0.639  15.518 -0.0232 -0.1455  0.1176
 2533DOPC   D2A29723  30.844   0.696  15.139 -0.1649  0.1943  0.3101
 2533DOPC   C3A29724  31.145   0.673  14.694 -0.0172 -0.2621 -0.0249
 2533DOPC   C4A29725  31.486   0.413  14.653  0.3939  0.0735  0.0765
 2533DOPC   C1B29726  30.698   0.054  15.488 -0.0632  0.0877 -0.1736
 2533DOPC   D2B29727  30.780  -0.314  15.155  0.1862  0.0890  0.1747
 2533DOPC   C3B29728  31.205  -0.529  15.205  0.1129  0.1219  0.5299
 2533DOPC   C4B29729  31.510  -0.818  15.249 -0.0747  0.0329 -0.3595
 2534POSM   NC329730  26.474   2.091  16.327 -0.0224  0.0427  0.1062
 2534POSM   PO429731  26.836   2.116  16.516 -0.0839 -0.0957  0.0257
 2534POSM   AM129732  26.958   2.212  16.240 -0.0247 -0.1510  0.2327
 2534POSM   AM229733  26.919   2.048  16.039  0.2870 -0.0548  0.1432
 2534POSM   T1A29734  27.108   2.548  15.884 -0.0376 -0.1078 -0.1841
 2534POSM   C2A29735  27.174   2.595  15.463  0.0117 -0.2872  0.1788
 2534POSM   C3A29736  27.149   2.346  15.098 -0.0004 -0.0389  0.0184
 2534POSM   C1B29737  26.705   1.926  15.846 -0.0382 -0.3376 -0.1991
 2534POSM   D2B29738  26.519   1.778  15.463 -0.3253 -0.0122 -0.2284
 2534POSM   C3B29739  26.473   1.658  15.022  0.2574 -0.1101  0.1913
 2534POSM   C4B29740  26.800   1.416  14.741 -0.2364  0.0241 -0.1466
 2535POSM   NC329741  24.376  10.876  16.181  0.0910 -0.0158 -0.1808
 2535POSM   PO429742  24.368  10.534  16.353 -0.0024  0.0738  0.0012
 2535POSM   AM129743  24.223  10.440  16.083  0.1762  0.2809  0.1298
 2535POSM   AM229744  24.243  10.253  15.834  0.0495 -0.1003 -0.4156
 2535POSM   T1A29745  24.134  10.698  15.648  0.2286 -0.3723  0.0134
 2535POSM   C2A29746  23.746  10.778  15.432  0.2357 -0.3175 -0.1614
 2535POSM   C3A29747  23.296  10.956  15.363 -0.1450 -0.4431 -0.0161
 2535POSM   C1B29748  24.239  10.022  15.584  0.2693  0.2069 -0.3156
 2535POSM   D2B29749  24.149   9.912  15.188  0.0548 -0.1433 -0.2769
 2535POSM   C3B29750  24.249   9.662  14.839  0.3306  0.0638 -0.1707
 2535POSM   C4B29751  24.015   9.411  14.535  0.0368  0.6449 -0.1148
 2536DOPS   CNO29752  28.713   6.774  16.290 -0.1470 -0.0590 -0.2133
 2536DOPS   PO429753  28.475   6.985  16.056  0.1784  0.2344 -0.1852
 2536DOPS   GL129754  28.615   6.991  15.603  0.0094 -0.2012  0.2270
 2536DOPS   GL229755  28.474   6.767  15.503 -0.0608  0.1078  0.0946
 2536DOPS   C1A29756  28.909   6.872  15.278 -0.0296 -0.1822 -0.2579
 2536DOPS   D2A29757  29.023   6.774  14.838 -0.1352 -0.0152  0.3344
 2536DOPS   C3A29758  29.153   6.908  14.396 -0.2588 -0.0149  0.0470
 2536DOPS   C4A29759  29.557   6.742  14.213 -0.2413 -0.1730  0.2765
 2536DOPS   C1B29760  28.457   6.886  15.036 -0.3037 -0.4149 -0.1343
 2536DOPS   D2B29761  28.732   7.220  14.893 -0.1169  0.1422 -0.3203
 2536DOPS   C3B29762  28.612   7.498  14.596 -0.2734 -0.4612 -0.1869
 2536DOPS   C4B29763  28.253   7.690  14.322  0.1620  0.0589  0.0954
 2537DOPC   NC329764  26.732   9.416  15.643 -0.3321 -0.1619  0.3072
 2537DOPC   PO429765  26.661   9.212  15.979 -0.2521 -0.3322  0.1256
 2537DOPC   GL129766  26.389   9.066  15.673  0.2247 -0.4056  0.2730
 2537DOPC   GL229767  26.578   8.987  15.444 -0.2176 -0.0123 -0.1242
 2537DOPC   C1A29768  26.039   8.901  15.356  0.0245 -0.0476 -0.3687
 2537DOPC   D2A29769  25.918   8.874  14.897 -0.2614  0.3004 -0.0448
 2537DOPC   C3A29770  26.007   9.303  14.753  0.0434  0.0430 -0.2426
 2537DOPC   C4A29771  25.907   9.596  14.423 -0.1811  0.1742 -0.0034
 2537DOPC   C1B29772  26.436   8.653  15.132 -0.0928  0.1934  0.1390
 2537DOPC   D2B29773  26.235   8.412  14.836 -0.0119 -0.3799  0.3427
 2537DOPC   C3B29774  26.409   8.280  14.391  0.1608 -0.0340 -0.0918
 2537DOPC   C4B29775  26.734   8.244  14.089  0.0534 -0.0647  0.3012
 2538DOPE   NH329776  27.215   7.503  16.561 -0.1378 -0.1407  0.0348
 2538DOPE   PO429777  27.215   7.570  16.232 -0.0730 -0.0698 -0.1382
 2538DOPE   GL129778  27.086   7.681  15.937 -0.3252 -0.0876 -0.0760
 2538DOPE   GL229779  27.284   7.517  15.705 -0.1997 -0.1547  0.0559
 2538DOPE   C1A29780  26.896   7.719  15.534 -0.1303 -0.1280  0.0929
 2538DOPE   D2A29781  26.865   7.898  15.124  0.0357 -0.0271 -0.0766
 2538DOPE   C3A29782  27.130   7.838  14.808  0.2562 -0.0395 -0.0300
 2538DOPE   C4A29783  27.235   7.500  14.577  0.1185  0.1129 -0.0080
 2538DOPE   C1B29784  27.390   7.667  15.221 -0.1993  0.0646  0.0149
 2538DOPE   D2B29785  27.603   7.770  14.802 -0.1566 -0.0514  0.1277
 2538DOPE   C3B29786  28.057   7.783  14.751 -0.1995  0.2962  0.0208
 2538DOPE   C4B29787  28.481   7.885  14.942 -0.2363 -0.1472  0.0936
 2539DOPE   NH329788  28.078   1.956  16.593  0.0158  0.2969  0.2287
 2539DOPE   PO429789  28.243   2.090  16.372  0.1045 -0.2320  0.2379
 2539DOPE   GL129790  28.314   1.858  16.078 -0.2305 -0.2181 -0.1931
 2539DOPE   GL229791  28.511   2.017  15.969  0.2325 -0.0869 -0.0314
 2539DOPE   C1A29792  28.122   1.773  15.670  0.0578  0.0462 -0.2626
 2539DOPE   D2A29793  27.833   1.959  15.365 -0.1075 -0.0500 -0.4416
 2539DOPE   C3A29794  28.084   1.967  14.998 -0.1097  0.1720  0.0874
 2539DOPE   C4A29795  27.986   2.096  14.557  0.0028  0.1738  0.0550
 2539DOPE   C1B29796  28.422   2.173  15.571 -0.2690 -0.1927 -0.0845
 2539DOPE   D2B29797  28.184   2.500  15.309 -0.2347 -0.0349 -0.3082
 2539DOPE   C3B29798  28.370   2.623  14.934  0.1767 -0.0130 -0.3625
 2539DOPE   C4B29799  28.807   2.528  14.770  0.0535  0.3051 -0.1330
 2540DOPC   NC329800  30.749   3.791  16.243 -0.1874  0.4010  0.3033
 2540DOPC   PO429801  30.573   3.700  16.566 -0.1248 -0.2111  0.0667
 2540DOPC   GL129802  30.321   3.580  16.218 -0.3657 -0.2007 -0.0170
 2540DOPC   GL229803  30.281   3.872  16.094  0.0462  0.0818 -0.1230
 2540DOPC   C1A29804  30.272   3.426  15.776  0.0664  0.3842  0.3331
 2540DOPC   D2A29805  29.986   3.383  15.445 -0.1011  0.1182 -0.0553
 2540DOPC   C3A29806  30.007   2.969  15.227  0.0194 -0.1039  0.1759
 2540DOPC   C4A29807  29.685   2.720  15.086  0.0331 -0.2587 -0.1793
 2540DOPC   C1B29808  30.180   4.180  15.756 -0.0766 -0.0332  0.2829
 2540DOPC   D2B29809  29.814   4.376  15.642 -0.2273  0.0452 -0.1635
 2540DOPC   C3B29810  29.710   4.575  15.197 -0.0269  0.0256 -0.0763
 2540DOPC   C4B29811  29.711   4.743  14.793 -0.1892  0.2538  0.1489
 2541POSM   NC329812  30.819   9.368  16.168  0.0157  0.1442  0.1967
 2541POSM   PO429813  30.772   9.117  15.851  0.0649  0.0267 -0.0874
 2541POSM   AM129814  30.929   9.108  15.541  0.3197 -0.0389 -0.2337
 2541POSM   AM229815  31.154   8.959  15.450 -0.2366 -0.1769 -0.1652
 2541POSM   T1A29816  30.742   8.952  15.120 -0.1948  0.2368 -0.0443
 2541POSM   C2A29817  30.676   8.873  14.657 -0.1226  0.1319 -0.1612
 2541POSM   C3A29818  30.705   8.775  14.232  0.1267  0.0588 -0.3513
 2541POSM   C1B29819  31.224   8.802  15.194 -0.0947  0.2055  0.0023
 2541POSM   D2B29820  31.229   8.684  14.733 -0.0679 -0.0746  0.2001
 2541POSM   C3B29821  31.145   8.920  14.371  0.1199 -0.0626  0.1615
 2541POSM   C4B29822  31.044   9.250  14.037  0.1872  0.1657 -0.1853
 2542POSM   NC329823  25.895  10.814  16.003 -0.0254 -0.0485 -0.1642
 2542POSM   PO429824  26.040  10.471  15.870  0.1723  0.0378 -0.2693
 2542POSM   AM129825  25.869  10.247  15.684 -0.3778  0.0026 -0.0515
 2542POSM   AM229826  25.928   9.999  15.652 -0.1932  0.0828  0.1547
 2542POSM   T1A29827  25.489  10.059  15.406 -0.1767 -0.1525 -0.0341
 2542POSM   C2A29828  25.360  10.144  14.969 -0.1960 -0.6355  0.0233
 2542POSM   C3A29829  25.388  10.363  14.566  0.1778  0.0893 -0.1029
 2542POSM   C1B29830  26.007   9.909  15.323  0.0448 -0.0416  0.0745
 2542POSM   D2B29831  25.877   9.726  14.927  0.0417 -0.0519 -0.2262
 2542POSM   C3B29832  25.517   9.742  14.665  0.0316 -0.2641  0.0924
 2542POSM   C4B29833  25.405   9.878  14.210 -0.0424  0.1299 -0.0872
 2543DOPC   NC329834  32.132  10.110  15.264  0.0957  0.1233  0.0816
 2543DOPC   PO429835  31.856   9.968  15.461 -0.2368  0.0155  0.1833
 2543DOPC   GL129836  31.669   9.881  15.101 -0.3015  0.3788 -0.0064
 2543DOPC   GL229837  31.575  10.132  15.028  0.1839 -0.0509  0.1662
 2543DOPC   C1A29838  31.882  10.034  14.644 -0.0185  0.0876 -0.0464
 2543DOPC   D2A29839  31.752   9.985  14.189  0.4627  0.2807 -0.0803
 2543DOPC   C3A29840  31.738   9.658  13.884 -0.1095 -0.0021 -0.4088
 2543DOPC   C4A29841  31.840   9.473  13.455 -0.0794 -0.0687  0.1537
 2543DOPC   C1B29842  31.660  10.524  14.784  0.2198 -0.2150 -0.0270
 2543DOPC   D2B29843  31.447  10.747  14.437 -0.2656  0.0307 -0.1320
 2543DOPC   C3B29844  31.307  10.645  13.980 -0.0854  0.3008  0.4072
 2543DOPC   C4B29845  31.084  10.256  13.714  0.1382 -0.0375 -0.2342
 2544DOPS   CNO29846  27.400   7.093  15.998  0.0996 -0.2131  0.0269
 2544DOPS   PO429847  27.597   6.755  15.926  0.0741 -0.1152 -0.2080
 2544DOPS   GL129848  28.020   6.768  15.840 -0.1133 -0.0484 -0.2239
 2544DOPS   GL229849  28.042   6.491  15.582 -0.1526 -0.0172 -0.2235
 2544DOPS   C1A29850  28.065   7.053  15.409  0.0545 -0.2102  0.0533
 2544DOPS   D2A29851  28.157   7.275  15.027  0.0496  0.2222 -0.0537
 2544DOPS   C3A29852  28.217   7.206  14.589  0.0963 -0.2602  0.0251
 2544DOPS   C4A29853  28.240   7.260  14.120  0.3474  0.3225 -0.2398
 2544DOPS   C1B29854  28.064   6.567  15.203  0.0679  0.3007  0.1210
 2544DOPS   D2B29855  27.859   6.896  14.967 -0.1646  0.0064  0.0985
 2544DOPS   C3B29856  27.770   6.867  14.550 -0.2081 -0.0690  0.0651
 2544DOPS   C4B29857  27.814   7.051  14.114  0.2730 -0.1835 -0.2059
 2545DOPE   NH329858  33.871   5.002  16.015 -0.1370  0.3262 -0.2450
 2545DOPE   PO429859  33.774   4.712  15.865 -0.1095 -0.0407 -0.0842
 2545DOPE   GL129860  33.899   4.888  15.458 -0.0766  0.1267 -0.0752
 2545DOPE   GL229861  33.677   5.056  15.470 -0.1298  0.1007 -0.2633
 2545DOPE   C1A29862  33.844   5.059  15.012 -0.3213  0.1578  0.1615
 2545DOPE   D2A29863  33.528   5.068  14.676  0.0929 -0.2992 -0.0967
 2545DOPE   C3A29864  33.281   5.217  14.318 -0.1657  0.1410 -0.4013
 2545DOPE   C4A29865  32.946   5.095  14.023  0.2230  0.1602  0.1113
 2545DOPE   C1B29866  33.394   5.234  15.158 -0.1709  0.0150  0.1760
 2545DOPE   D2B29867  33.149   5.564  14.821  0.0485 -0.1147  0.2327
 2545DOPE   C3B29868  32.744   5.360  14.607 -0.2366  0.0713 -0.0695
 2545DOPE   C4B29869  32.602   4.922  14.484  0.2780 -0.1252  0.3267
 2546DOPS   CNO29870  28.693   9.249  15.931 -0.1967 -0.1130 -0.2056
 2546DOPS   PO429871  28.346   9.242  15.780  0.0839 -0.1514  0.0080
 2546DOPS   GL129872  28.370   9.042  15.307 -0.1258  0.2583  0.1784
 2546DOPS   GL229873  28.126   9.066  15.242 -0.4172 -0.0811 -0.2491
 2546DOPS   C1A29874  28.580   8.877  14.964 -0.0978  0.0602 -0.2116
 2546DOPS   D2A29875  28.600   9.126  14.585  0.1835  0.1046  0.0428
 2546DOPS   C3A29876  28.501   9.093  14.110  0.2517  0.0439 -0.2549
 2546DOPS   C4A29877  28.762   8.947  13.759 -0.1194  0.0116 -0.1191
 2546DOPS   C1B29878  28.069   9.163  14.796 -0.1623 -0.3780  0.1522
 2546DOPS   D2B29879  28.000   9.229  14.328 -0.2612 -0.0685 -0.1739
 2546DOPS   C3B29880  27.957   8.909  13.997  0.2141  0.3087 -0.2561
 2546DOPS   C4B29881  28.292   8.799  13.789 -0.1276  0.3616  0.2373
 2547DOPS   CNO29882  24.963   1.968  16.119  0.1107 -0.0359 -0.2872
 2547DOPS   PO429883  25.062   2.028  15.782  0.1272 -0.1238  0.2097
 2547DOPS   GL129884  25.168   1.835  15.442 -0.0334  0.3134  0.1669
 2547DOPS   GL229885  25.501   1.886  15.549 -0.0297 -0.0367 -0.1254
 2547DOPS   C1A29886  25.052   1.787  15.025 -0.0845 -0.1210  0.1887
 2547DOPS   D2A29887  24.882   2.089  14.719 -0.2110 -0.3474  0.2133
 2547DOPS   C3A29888  24.699   1.803  14.481  0.2137 -0.0941  0.0148
 2547DOPS   C4A29889  24.289   1.604  14.502  0.0427  0.2110 -0.1932
 2547DOPS   C1B29890  25.599   1.827  15.102  0.0651  0.3583  0.2197
 2547DOPS   D2B29891  25.732   1.724  14.689 -0.0408 -0.0498 -0.0366
 2547DOPS   C3B29892  26.081   1.554  14.460  0.1949  0.0794  0.1155
 2547DOPS   C4B29893  26.472   1.745  14.250  0.0338  0.3161 -0.1020
 2548POSM   NC329894  25.112   6.674  15.886  0.0524 -0.2067 -0.2136
 2548POSM   PO429895  24.892   6.991  16.041 -0.1119  0.2200  0.0200
 2548POSM   AM129896  24.968   7.150  15.780  0.1083  0.2353 -0.1050
 2548POSM   AM229897  24.850   7.294  15.599  0.2199 -0.2171 -0.1658
 2548POSM   T1A29898  25.380   7.271  15.494  0.0372 -0.0546 -0.0063
 2548POSM   C2A29899  25.308   7.490  15.095  0.1249  0.0536  0.1742
 2548POSM   C3A29900  25.326   7.671  14.751  0.2027  0.0301 -0.0845
 2548POSM   C1B29901  24.914   7.239  15.288 -0.0661  0.0624 -0.0465
 2548POSM   D2B29902  25.025   7.016  14.888  0.1349  0.0105 -0.0473
 2548POSM   C3B29903  25.392   7.190  14.602 -0.0519 -0.1394  0.0770
 2548POSM   C4B29904  25.717   7.472  14.451 -0.3214  0.1745 -0.0632
 2549POSM   NC329905  31.646   6.170  16.120 -0.3899 -0.4208 -0.1382
 2549POSM   PO429906  31.303   6.354  16.089  0.1552  0.0031 -0.0632
 2549POSM   AM129907  31.399   6.483  15.757 -0.1413 -0.1417 -0.1517
 2549POSM   AM229908  31.677   6.589  15.784 -0.0856 -0.1732 -0.0933
 2549POSM   T1A29909  31.395   6.343  15.253 -0.1587  0.0980  0.3733
 2549POSM   C2A29910  31.680   6.048  14.999 -0.0726  0.2640 -0.0057
 2549POSM   C3A29911  31.938   5.934  14.608 -0.0634  0.1745  0.0383
 2549POSM   C1B29912  31.745   6.684  15.486 -0.2651  0.1053  0.1594
 2549POSM   D2B29913  31.912   6.559  15.112 -0.0131  0.6003  0.1609
 2549POSM   C3B29914  31.936   6.464  14.643  0.0030  0.0989 -0.2154
 2549POSM   C4B29915  31.930   6.337  14.183  0.2038  0.0390  0.3345
 2550DOPC   NC329916  25.622   2.328  16.325  0.2729 -0.0018  0.1958
 2550DOPC   PO429917  25.529   2.001  16.134 -0.1502  0.2744  0.2205
 2550DOPC   GL129918  25.507   2.302  15.791 -0.0600 -0.1175 -0.1907
 2550DOPC   GL229919  25.786   2.235  15.798 -0.0880 -0.3926  0.2692
 2550DOPC   C1A29920  25.689   2.462  15.362  0.0864  0.2333  0.1536
 2550DOPC   D2A29921  25.761   2.281  14.949 -0.1419  0.0210  0.2276
 2550DOPC   C3A29922  25.835   2.617  14.613  0.2608  0.1420  0.0371
 2550DOPC   C4A29923  25.924   2.825  14.248 -0.0598 -0.0624 -0.2130
 2550DOPC   C1B29924  26.172   2.209  15.499 -0.2209 -0.2078 -0.1954
 2550DOPC   D2B29925  26.093   1.951  15.162 -0.2979  0.2216 -0.0720
 2550DOPC   C3B29926  26.211   1.985  14.687  0.1176  0.2756 -0.0376
 2550DOPC   C4B29927  26.563   2.178  14.428  0.3645  0.2972  0.2766
 2551POSM   NC329928  28.663  10.210  16.014 -0.0254  0.2608  0.1949
 2551POSM   PO429929  28.344  10.144  15.820 -0.1868  0.0694 -0.0827
 2551POSM   AM129930  28.306  10.143  15.545  0.0023  0.1030  0.2426
 2551POSM   AM229931  28.335   9.993  15.270 -0.0412 -0.0211 -0.0017
 2551POSM   T1A29932  28.225  10.447  15.120  0.0633  0.1490  0.0231
 2551POSM   C2A29933  28.210  10.728  14.729 -0.0435 -0.1819 -0.2583
 2551POSM   C3A29934  28.301  10.985  14.354 -0.2278  0.2516  0.0962
 2551POSM   C1B29935  28.604  10.030  15.027 -0.2955  0.0977 -0.1216
 2551POSM   D2B29936  28.949  10.185  14.778  0.0628  0.1562  0.0538
 2551POSM   C3B29937  29.041  10.349  14.307  0.2230  0.1583 -0.1147
 2551POSM   C4B29938  29.194  10.313  13.832  0.2585  0.1975 -0.2230
 2552DOPC   NC329939  30.026   6.860  16.241  0.1535 -0.1864 -0.2416
 2552DOPC   PO429940  29.676   6.709  16.131 -0.1093 -0.0439 -0.3469
 2552DOPC   GL129941  29.820   6.677  15.857  0.2616 -0.0575 -0.3417
 2552DOPC   GL229942  30.054   6.656  15.767  0.2423 -0.2184 -0.1872
 2552DOPC   C1A29943  29.747   6.475  15.465 -0.0765 -0.0819  0.4970
 2552DOPC   D2A29944  29.689   6.247  15.042  0.3115  0.1555 -0.1094
 2552DOPC   C3A29945  29.932   5.882  14.900 -0.0594 -0.0383  0.2675
 2552DOPC   C4A29946  30.140   5.557  14.605  0.0643 -0.0546 -0.2095
 2552DOPC   C1B29947  30.358   6.422  15.552  0.1640 -0.0652 -0.0621
 2552DOPC   D2B29948  30.735   6.516  15.284 -0.1930 -0.3626 -0.1038
 2552DOPC   C3B29949  30.964   6.253  14.953 -0.0703  0.1562 -0.0721
 2552DOPC   C4B29950  30.879   6.125  14.523  0.1749  0.1019  0.1530
 2553POSM   NC329951  30.900   5.558  16.404  0.2053  0.0660 -0.4236
 2553POSM   PO429952  30.536   5.479  16.338 -0.0615  0.0645 -0.3354
 2553POSM   AM129953  30.475   5.618  16.051  0.3297 -0.2353 -0.0309
 2553POSM   AM229954  30.223   5.698  15.959  0.1358  0.1730  0.0418
 2553POSM   T1A29955  30.604   5.748  15.590 -0.1664 -0.0497 -0.3864
 2553POSM   C2A29956  30.543   6.000  15.215  0.0137  0.2546  0.0674
 2553POSM   C3A29957  30.453   5.929  14.764 -0.0146  0.0536 -0.0517
 2553POSM   C1B29958  30.171   5.970  15.756 -0.1179  0.0090  0.2856
 2553POSM   D2B29959  30.030   6.068  15.338  0.2621  0.2033 -0.0679
 2553POSM   C3B29960  30.228   6.387  15.062  0.2082  0.0257 -0.0836
 2553POSM   C4B29961  30.170   6.584  14.680  0.3421 -0.1012  0.3252
 2554POSM   NC329962  31.206   0.839  15.997 -0.0043  0.0509  0.1122
 2554POSM   PO429963  31.493   0.890  16.271 -0.5195 -0.0240 -0.1009
 2554POSM   AM129964  31.447   1.211  16.106  0.0410 -0.3316 -0.1859
 2554POSM   AM229965  31.282   1.324  15.866 -0.0427 -0.1129  0.1723
 2554POSM   T1A29966  31.702   1.602  15.931  0.0837 -0.0527  0.0142
 2554POSM   C2A29967  31.911   1.743  15.519 -0.1341  0.0934 -0.1220
 2554POSM   C3A29968  31.888   1.830  15.062 -0.1180  0.0696  0.0224
 2554POSM   C1B29969  31.235   1.451  15.504 -0.0413 -0.1511 -0.3005
 2554POSM   D2B29970  31.474   1.584  15.114  0.1379  0.0537 -0.0891
 2554POSM   C3B29971  31.212   1.771  14.788  0.0951 -0.0277 -0.1067
 2554POSM   C4B29972  30.989   2.049  14.483  0.1239  0.3058 -0.0490
 2555DOPC   NC329973  25.822   3.441  15.778 -0.2530  0.2643  0.0035
 2555DOPC   PO429974  25.473   3.412  15.920  0.3997  0.0976  0.0431
 2555DOPC   GL129975  25.384   3.673  15.575  0.6737 -0.1204 -0.1900
 2555DOPC   GL229976  25.112   3.654  15.644  0.1534  0.1591  0.0136
 2555DOPC   C1A29977  25.688   3.853  15.261 -0.0123 -0.0069 -0.1064
 2555DOPC   D2A29978  25.797   4.195  14.992 -0.2035 -0.1871  0.0410
 2555DOPC   C3A29979  25.731   4.419  14.650 -0.0669  0.1409  0.1988
 2555DOPC   C4A29980  25.905   4.615  14.267 -0.2128  0.2916  0.1811
 2555DOPC   C1B29981  25.171   3.811  15.166 -0.0352 -0.1598 -0.1772
 2555DOPC   D2B29982  25.393   3.974  14.785 -0.0514  0.0855  0.0159
 2555DOPC   C3B29983  25.319   3.995  14.362  0.0464  0.0548 -0.0375
 2555DOPC   C4B29984  25.451   3.735  13.951  0.2508 -0.3281  0.1039
 2556DOPE   NH329985  25.206   2.388  16.117 -0.0901  0.1161 -0.0823
 2556DOPE   PO429986  25.361   2.664  16.078  0.0083  0.0731 -0.1670
 2556DOPE   GL129987  25.592   2.737  15.840 -0.0479 -0.0480  0.0526
 2556DOPE   GL229988  25.616   2.968  15.611  0.3225 -0.0608 -0.3343
 2556DOPE   C1A29989  26.046   2.683  15.823  0.3084 -0.0336  0.1061
 2556DOPE   D2A29990  26.369   2.714  15.499  0.0552  0.1911  0.0979
 2556DOPE   C3A29991  26.179   2.646  15.110 -0.0591 -0.2473  0.1335
 2556DOPE   C4A29992  26.230   2.448  14.705 -0.2395  0.0478  0.2207
 2556DOPE   C1B29993  25.764   2.900  15.182  0.0525  0.0873  0.1981
 2556DOPE   D2B29994  25.930   3.171  14.920  0.1291 -0.1346 -0.0499
 2556DOPE   C3B29995  25.529   3.120  14.656 -0.1119 -0.4659  0.2152
 2556DOPE   C4B29996  25.300   3.308  14.326  0.0725 -0.0900  0.1167
 2557DOPC   NC329997  24.191   4.731  16.283 -0.0475 -0.1334  0.1512
 2557DOPC   PO429998  24.029   4.535  15.960  0.2499 -0.1642 -0.2612
 2557DOPC   GL129999  24.218   4.519  15.612  0.0746 -0.2592 -0.0476
 2557DOPC   GL230000  24.397   4.754  15.669 -0.0084 -0.1217 -0.0748
 2557DOPC   C1A30001  23.962   4.612  15.210 -0.0351 -0.0170 -0.1290
 2557DOPC   D2A30002  23.962   4.995  14.983 -0.3117 -0.0350  0.2803
 2557DOPC   C3A30003  24.323   4.966  14.736 -0.3711 -0.2081  0.0578
 2557DOPC   C4A30004  24.290   4.889  14.271 -0.0498 -0.0489  0.0147
 2557DOPC   C1B30005  24.555   4.806  15.211  0.5139 -0.3161  0.0219
 2557DOPC   D2B30006  24.843   4.788  14.834 -0.1117 -0.4906  0.2174
 2557DOPC   C3B30007  24.992   5.148  14.607  0.0179 -0.1475  0.2988
 2557DOPC   C4B30008  25.014   5.280  14.192  0.1275  0.1102  0.4585
 2558POSM   NC330009  32.185   7.666  15.823 -0.0859 -0.1647 -0.2301
 2558POSM   PO430010  32.545   7.640  16.017 -0.0387 -0.3951  0.0195
 2558POSM   AM130011  32.709   7.736  15.753 -0.1792  0.3084  0.1338
 2558POSM   AM230012  32.577   7.844  15.533 -0.0814 -0.1413  0.3072
 2558POSM   T1A30013  33.017   7.657  15.413 -0.2696 -0.0914 -0.2794
 2558POSM   C2A30014  33.342   7.658  15.040 -0.2280 -0.0069 -0.0149
 2558POSM   C3A30015  33.751   7.533  14.890  0.4572 -0.1277  0.0329
 2558POSM   C1B30016  32.601   7.757  15.226 -0.0048 -0.1120  0.1129
 2558POSM   D2B30017  32.829   7.680  14.860 -0.1263 -0.2998  0.0264
 2558POSM   C3B30018  32.906   7.777  14.417 -0.1246 -0.0946  0.2830
 2558POSM   C4B30019  32.791   7.956  13.985  0.2263 -0.0489  0.2402
 2559POSM   NC330020  23.993   9.796  16.155 -0.0128  0.3941  0.0878
 2559POSM   PO430021  24.083   9.420  16.168  0.2052  0.1503 -0.1902
 2559POSM   AM130022  24.116   9.498  15.846  0.1647  0.0057  0.1932
 2559POSM   AM230023  24.327   9.508  15.648 -0.2058  0.1849  0.3074
 2559POSM   T1A30024  23.865   9.585  15.401 -0.1427  0.2232  0.2052
 2559POSM   C2A30025  23.751   9.570  14.925 -0.0391 -0.1022  0.0788
 2559POSM   C3A30026  23.484   9.346  14.598  0.0466 -0.1033 -0.0171
 2559POSM   C1B30027  24.498   9.649  15.408 -0.2519  0.0903 -0.0102
 2559POSM   D2B30028  24.805   9.876  15.062 -0.2357  0.0165  0.0567
 2559POSM   C3B30029  24.977   9.628  14.757  0.1297 -0.1388  0.1165
 2559POSM   C4B30030  25.007   9.525  14.310  0.0593  0.2065  0.1121
 2560POSM   NC330031  26.980   6.578  16.217  0.1006  0.2013  0.1102
 2560POSM   PO430032  26.799   6.362  15.941 -0.0560 -0.2528  0.1546
 2560POSM   AM130033  26.796   6.205  15.669  0.2693 -0.1899 -0.1164
 2560POSM   AM230034  26.681   6.046  15.486 -0.2288 -0.2186  0.1849
 2560POSM   T1A30035  27.122   6.103  15.306  0.1077  0.1153 -0.3201
 2560POSM   C2A30036  27.409   6.081  14.943  0.3342 -0.2479 -0.0556
 2560POSM   C3A30037  27.453   6.119  14.482  0.0398  0.1347 -0.1226
 2560POSM   C1B30038  26.487   6.106  15.164 -0.1929  0.0671 -0.3150
 2560POSM   D2B30039  26.370   6.286  14.760  0.1840  0.1173  0.1104
 2560POSM   C3B30040  25.919   6.220  14.631  0.1251  0.5299  0.2992
 2560POSM   C4B30041  25.617   6.489  14.345  0.4170  0.3142  0.1564
 2561POSM   NC330042  26.208  10.406  15.400 -0.0405  0.0759 -0.1804
 2561POSM   PO430043  26.492  10.609  15.587 -0.3371 -0.0673 -0.2833
 2561POSM   AM130044  26.509  10.781  15.323  0.1948  0.3633 -0.1192
 2561POSM   AM230045  26.616  10.907  15.090 -0.1961 -0.1377  0.0804
 2561POSM   T1A30046  26.195  10.765  14.920  0.0275  0.1392 -0.2817
 2561POSM   C2A30047  25.938  10.701  14.572  0.1721 -0.2020  0.0812
 2561POSM   C3A30048  25.869  10.461  14.158  0.0605 -0.1974 -0.0676
 2561POSM   C1B30049  26.748  10.811  14.820 -0.3379  0.1468 -0.2133
 2561POSM   D2B30050  26.883  10.936  14.425 -0.1276  0.1796  0.3719
 2561POSM   C3B30051  26.871  11.044  13.996  0.1450 -0.2276  0.2090
 2561POSM   C4B30052  26.899  10.968  13.541 -0.2140  0.0615 -0.0812
 2562DOPC   NC330053   0.088   7.493  16.015  0.0218  0.0648 -0.0063
 2562DOPC   PO430054  -0.210   7.244  15.943 -0.0215 -0.1026  0.1866
 2562DOPC   GL130055  -0.339   7.382  15.580 -0.4807 -0.2602  0.2070
 2562DOPC   GL230056  -0.083   7.280  15.460 -0.0185  0.2724 -0.1698
 2562DOPC   C1A30057  -0.400   7.576  15.158 -0.0742  0.2526 -0.0436
 2562DOPC   D2A30058  -0.529   7.582  14.710 -0.5336  0.2642 -0.0087
 2562DOPC   C3A30059  -0.447   7.873  14.300  0.0633  0.0288  0.0148
 2562DOPC   C4A30060  -0.614   8.085  13.941  0.1626 -0.0786  0.3165
 2562DOPC   C1B30061   0.072   7.428  15.082  0.0042  0.1676  0.2242
 2562DOPC   D2B30062   0.043   7.517  14.637 -0.1661 -0.1324  0.0482
 2562DOPC   C3B30063   0.230   7.941  14.448  0.1606 -0.0539  0.1536
 2562DOPC   C4B30064   0.399   8.070  14.027  0.4149  0.1247 -0.3596
 2563POSM   NC330065  33.775   8.840  16.105  0.4157 -0.1377  0.1399
 2563POSM   PO430066  33.793   8.454  16.232 -0.0214  0.1774  0.0884
 2563POSM   AM130067  33.852   8.442  15.905 -0.0365  0.1781  0.3397
 2563POSM   AM230068  33.796   8.525  15.619 -0.2282 -0.1307  0.1041
 2563POSM   T1A30069  33.956   8.077  15.618 -0.1193  0.2903  0.1174
 2563POSM   C2A30070  33.838   7.699  15.375  0.0772  0.0869  0.0552
 2563POSM   C3A30071  33.463   7.483  15.456 -0.0062  0.0272  0.1884
 2563POSM   C1B30072  33.923   8.467  15.277  0.0737 -0.4026 -0.1021
 2563POSM   D2B30073  33.797   8.095  14.966 -0.2512 -0.1594  0.2111
 2563POSM   C3B30074  33.815   8.279  14.534  0.0051  0.0996 -0.1123
 2563POSM   C4B30075  33.634   8.164  14.113  0.1537 -0.1042  0.3963
 2564DOPS   CNO30076  28.365   6.418  15.990 -0.4371  0.0636 -0.0648
 2564DOPS   PO430077  28.629   6.160  15.979  0.0947 -0.2269 -0.0681
 2564DOPS   GL130078  28.640   6.286  15.665  0.1280 -0.0345  0.3512
 2564DOPS   GL230079  28.411   6.157  15.509 -0.0842  0.1968 -0.1094
 2564DOPS   C1A30080  28.617   6.441  15.186  0.1216 -0.0917 -0.0820
 2564DOPS   D2A30081  28.671   6.416  14.686 -0.1339 -0.5070  0.0192
 2564DOPS   C3A30082  28.513   6.227  14.305  0.2406 -0.2775  0.1447
 2564DOPS   C4A30083  28.518   6.454  13.882 -0.3038  0.1771 -0.1714
 2564DOPS   C1B30084  28.577   5.949  15.158 -0.1713  0.0710 -0.2585
 2564DOPS   D2B30085  28.536   5.840  14.714  0.0024 -0.0334 -0.4138
 2564DOPS   C3B30086  28.698   5.586  14.362 -0.0484  0.1491 -0.1858
 2564DOPS   C4B30087  28.750   5.715  13.912 -0.1366  0.3493 -0.1213
 2565DOPS   CNO30088  23.592   7.590  15.949  0.0398 -0.0296 -0.0328
 2565DOPS   PO430089  23.540   7.827  15.684  0.0267  0.1788  0.2970
 2565DOPS   GL130090  23.747   7.848  15.331 -0.4564  0.2866 -0.1593
 2565DOPS   GL230091  23.678   7.505  15.282 -0.3768  0.1115  0.0958
 2565DOPS   C1A30092  24.009   7.771  14.923 -0.5961 -0.0412 -0.2314
 2565DOPS   D2A30093  23.871   7.606  14.516  0.1515  0.2448  0.1038
 2565DOPS   C3A30094  24.173   7.271  14.497  0.1726  0.0022  0.1512
 2565DOPS   C4A30095  24.317   7.081  14.131 -0.1140 -0.0458 -0.0619
 2565DOPS   C1B30096  23.693   7.331  14.874 -0.1462 -0.0809 -0.2115
 2565DOPS   D2B30097  23.642   7.127  14.440  0.0627  0.1708  0.0246
 2565DOPS   C3B30098  23.236   7.220  14.251 -0.0707  0.1520 -0.1705
 2565DOPS   C4B30099  22.922   7.219  13.909 -0.1051 -0.1152 -0.1241
 2566DOPS   CNO30100  29.147   8.610  16.318 -0.0108  0.1614 -0.0042
 2566DOPS   PO430101  29.153   8.403  16.005 -0.2365 -0.0085 -0.0791
 2566DOPS   GL130102  29.310   8.141  15.787  0.1222 -0.0037 -0.1963
 2566DOPS   GL230103  29.093   8.259  15.546  0.2525 -0.2837 -0.3483
 2566DOPS   C1A30104  29.371   7.756  15.557 -0.2461 -0.1137 -0.1724
 2566DOPS   D2A30105  29.282   7.719  15.137  0.0620  0.3570  0.2358
 2566DOPS   C3A30106  28.840   7.653  15.157  0.0030  0.0735  0.0382
 2566DOPS   C4A30107  28.488   7.538  15.338  0.6408 -0.1056 -0.0033
 2566DOPS   C1B30108  28.949   8.108  15.100  0.3091  0.1398  0.2831
 2566DOPS   D2B30109  28.803   8.154  14.636  0.1355  0.1066  0.0451
 2566DOPS   C3B30110  28.979   8.227  14.201 -0.1853 -0.2109  0.1843
 2566DOPS   C4B30111  28.799   8.066  13.768  0.2520 -0.3405 -0.0474
 2567POSM   NC330112  31.708   3.928  16.777  0.0782 -0.0607 -0.0211
 2567POSM   PO430113  31.375   3.726  16.796  0.3152 -0.2268 -0.1127
 2567POSM   AM130114  31.352   3.806  16.474 -0.2436 -0.2819 -0.4258
 2567POSM   AM230115  31.536   3.875  16.256 -0.0212 -0.1530 -0.1762
 2567POSM   T1A30116  31.121   3.986  16.057 -0.0493  0.3390  0.0016
 2567POSM   C2A30117  31.100   3.935  15.612 -0.1953  0.1499  0.4155
 2567POSM   C3A30118  31.074   3.528  15.403 -0.2077  0.0665 -0.1368
 2567POSM   C1B30119  31.567   3.698  15.975  0.1685 -0.2211 -0.1340
 2567POSM   D2B30120  31.600   3.747  15.527 -0.0329  0.2051 -0.2243
 2567POSM   C3B30121  31.952   3.467  15.392 -0.0715  0.0105  0.0111
 2567POSM   C4B30122  32.264   3.210  15.516 -0.1099  0.1188 -0.0186
 2568DOPE   NH330123  31.820  11.426  15.604 -0.3918  0.2962  0.2695
 2568DOPE   PO430124  31.521  11.294  15.654 -0.2459  0.1981 -0.1305
 2568DOPE   GL130125  31.306  11.320  15.285  0.1177  0.0554 -0.5905
 2568DOPE   GL230126  31.004  11.365  15.258  0.1735  0.0775  0.2778
 2568DOPE   C1A30127  31.365  11.603  14.907 -0.0045  0.1388  0.0884
 2568DOPE   D2A30128  31.022  11.759  14.611 -0.0392  0.1182 -0.0504
 2568DOPE   C3A30129  31.073  11.515  14.227  0.0951  0.0139 -0.0494
 2568DOPE   C4A30130  31.154  11.119  14.173  0.1041 -0.2205 -0.1022
 2568DOPE   C1B30131  30.741  10.987  15.164 -0.1599  0.1322 -0.1419
 2568DOPE   D2B30132  30.588  10.746  14.822  0.0101 -0.2142  0.1436
 2568DOPE   C3B30133  30.793  10.787  14.409  0.4268 -0.1185  0.2339
 2568DOPE   C4B30134  30.669  11.136  14.159  0.0235 -0.2473  0.1826
 2569POSM   NC330135  28.076   0.638  16.292  0.0061 -0.0684 -0.3358
 2569POSM   PO430136  27.950   0.999  16.368 -0.0366  0.0319  0.1658
 2569POSM   AM130137  27.845   1.000  16.072  0.0684  0.0390 -0.0042
 2569POSM   AM230138  27.812   1.232  15.856 -0.1102 -0.3528 -0.1254
 2569POSM   T1A30139  27.630   0.812  15.613  0.2275  0.0284 -0.1038
 2569POSM   C2A30140  27.485   0.615  15.244  0.3859  0.1772 -0.0631
 2569POSM   C3A30141  27.129   0.463  14.982  0.2577 -0.0976 -0.1430
 2569POSM   C1B30142  27.926   1.227  15.536 -0.0667  0.0992  0.1818
 2569POSM   D2B30143  28.034   1.508  15.220 -0.2240  0.2644 -0.2354
 2569POSM   C3B30144  28.089   1.449  14.757 -0.1534 -0.0355 -0.1991
 2569POSM   C4B30145  28.107   1.220  14.388  0.0416 -0.3159  0.1337
 2570DOPS   CNO30146  30.898   7.168  16.010  0.0189 -0.2699 -0.1604
 2570DOPS   PO430147  30.570   7.358  15.965 -0.0801 -0.0002  0.0103
 2570DOPS   GL130148  30.402   7.312  15.592 -0.0457  0.0839  0.3903
 2570DOPS   GL230149  30.458   7.035  15.577  0.1424 -0.0851 -0.2788
 2570DOPS   C1A30150  30.412   7.438  15.133  0.0252  0.0586 -0.3157
 2570DOPS   D2A30151  30.409   7.274  14.734  0.0731 -0.4075  0.1991
 2570DOPS   C3A30152  30.057   7.587  14.616  0.0249  0.2200  0.1326
 2570DOPS   C4A30153  29.611   7.697  14.702  0.0764 -0.2159 -0.3219
 2570DOPS   C1B30154  30.440   6.836  15.149  0.1582 -0.3071 -0.1950
 2570DOPS   D2B30155  30.643   6.623  14.808 -0.1165 -0.2098 -0.2793
 2570DOPS   C3B30156  30.647   6.636  14.341 -0.0658 -0.2402 -0.0126
 2570DOPS   C4B30157  30.821   6.306  14.015 -0.2150  0.1766 -0.0922
 2571POSM   NC330158  33.067   5.878  16.377  0.0564 -0.2327  0.1542
 2571POSM   PO430159  33.123   5.533  16.194 -0.0811 -0.3640  0.0809
 2571POSM   AM130160  33.066   5.476  15.899 -0.2230 -0.0334 -0.1395
 2571POSM   AM230161  32.891   5.273  15.727  0.1317 -0.1424 -0.3258
 2571POSM   T1A30162  33.039   5.568  15.410 -0.1866 -0.0578  0.0621
 2571POSM   C2A30163  32.840   5.294  15.119  0.2870  0.0491 -0.0483
 2571POSM   C3A30164  32.451   5.156  14.952  0.1913 -0.1819 -0.0890
 2571POSM   C1B30165  33.100   5.070  15.496 -0.0193 -0.7064  0.3036
 2571POSM   D2B30166  33.132   4.766  15.184 -0.2652 -0.1318  0.0179
 2571POSM   C3B30167  33.509   4.663  14.920  0.4574 -0.1541 -0.2131
 2571POSM   C4B30168  33.866   4.723  14.581  0.2314 -0.1840 -0.2998
 2572POSM   NC330169  28.756   3.911  16.505  0.2640  0.0127 -0.1569
 2572POSM   PO430170  29.124   4.024  16.503 -0.0724  0.0510 -0.1455
 2572POSM   AM130171  29.173   3.795  16.299 -0.2750  0.1617 -0.1055
 2572POSM   AM230172  29.156   3.502  16.326 -0.0711  0.1090  0.3600
 2572POSM   T1A30173  29.297   3.741  15.842  0.2094 -0.3724  0.1116
 2572POSM   C2A30174  29.489   3.610  15.450 -0.0534  0.3786  0.1233
 2572POSM   C3A30175  29.460   3.196  15.217  0.2839  0.0476 -0.1711
 2572POSM   C1B30176  29.003   3.398  16.066 -0.2098  0.0645  0.0173
 2572POSM   D2B30177  28.683   3.397  15.775  0.3031 -0.0052  0.0837
 2572POSM   C3B30178  28.952   3.564  15.437 -0.1133  0.0221  0.0788
 2572POSM   C4B30179  28.841   3.888  15.084  0.0108  0.2894 -0.1383
 2573POSM   NC330180  25.105   7.295  16.451  0.0261  0.1646 -0.0936
 2573POSM   PO430181  24.974   7.481  16.119  0.3325  0.0643  0.2651
 2573POSM   AM130182  25.078   7.681  15.880  0.2568 -0.6416  0.0426
 2573POSM   AM230183  25.293   7.816  15.758 -0.3548 -0.0841 -0.0098
 2573POSM   T1A30184  25.001   7.746  15.354  0.1998  0.2297 -0.3576
 2573POSM   C2A30185  24.953   7.905  14.932 -0.1353  0.1118  0.0359
 2573POSM   C3A30186  24.941   8.268  14.631  0.0455  0.3073 -0.3980
 2573POSM   C1B30187  25.475   7.777  15.513  0.1591  0.0976  0.0800
 2573POSM   D2B30188  25.595   7.936  15.085  0.0627  0.2021  0.1952
 2573POSM   C3B30189  25.954   7.852  14.766 -0.0204 -0.0048 -0.2109
 2573POSM   C4B30190  26.167   7.813  14.379 -0.3855  0.2732 -0.1402
 2574DOPE   NH330191  34.511   8.916  15.943  0.0166  0.0874 -0.0850
 2574DOPE   PO430192  34.266   8.685  15.980  0.0345  0.2125 -0.2236
 2574DOPE   GL130193  34.239   8.652  15.558  0.0610 -0.4365  0.0997
 2574DOPE   GL230194  34.296   8.392  15.560 -0.0548  0.2285  0.2869
 2574DOPE   C1A30195  34.425   8.664  15.154 -0.1648  0.2387 -0.2097
 2574DOPE   D2A30196  34.185   8.420  14.834 -0.1703  0.3145 -0.3122
 2574DOPE   C3A30197  34.274   8.411  14.386 -0.1359 -0.3776  0.1005
 2574DOPE   C4A30198  34.312   8.523  13.950 -0.3738  0.2402 -0.0934
 2574DOPE   C1B30199  34.306   8.115  15.241  0.0353  0.1711 -0.0479
 2574DOPE   D2B30200  34.468   8.006  14.789  0.3665 -0.1274  0.0383
 2574DOPE   C3B30201  34.689   8.432  14.689 -0.3003  0.2209  0.2573
 2574DOPE   C4B30202  35.041   8.457  14.314  0.0035 -0.2601  0.0061
 2575DOPE   NH330203  24.028   7.640  15.728  0.1429 -0.0930 -0.0331
 2575DOPE   PO430204  24.005   7.325  15.665  0.1667  0.2277 -0.3465
 2575DOPE   GL130205  24.182   7.376  15.369  0.5090 -0.2475  0.1195
 2575DOPE   GL230206  24.301   7.075  15.362  0.0098  0.0373 -0.3279
 2575DOPE   C1A30207  24.496   7.286  15.009 -0.0378  0.0077  0.0952
 2575DOPE   D2A30208  24.822   7.450  14.789 -0.1078 -0.0586 -0.1019
 2575DOPE   C3A30209  24.834   7.785  14.505 -0.0971  0.2241  0.3195
 2575DOPE   C4A30210  24.596   8.103  14.287  0.0979  0.0865 -0.2135
 2575DOPE   C1B30211  24.085   7.001  14.944  0.1603 -0.1686 -0.3101
 2575DOPE   D2B30212  23.981   6.797  14.506  0.1517 -0.2527  0.0565
 2575DOPE   C3B30213  23.843   6.855  14.113 -0.1287  0.3008 -0.3804
 2575DOPE   C4B30214  24.001   6.971  13.715 -0.0306 -0.0422  0.1944
 2576DOPS   CNO30215  34.037   0.909  16.837 -0.0578 -0.1494  0.0776
 2576DOPS   PO430216  34.175   0.894  16.528  0.0215  0.1226  0.2562
 2576DOPS   GL130217  34.137   0.759  16.104  0.0534 -0.1167 -0.1172
 2576DOPS   GL230218  33.871   0.750  16.086 -0.1403 -0.1082  0.0553
 2576DOPS   C1A30219  34.170   0.422  15.722 -0.0004  0.1415  0.1659
 2576DOPS   D2A30220  33.932   0.203  15.430 -0.0616 -0.1529  0.1038
 2576DOPS   C3A30221  33.523   0.103  15.688  0.0878  0.0661 -0.2497
 2576DOPS   C4A30222  33.114  -0.141  15.740 -0.0426 -0.1197 -0.1881
 2576DOPS   C1B30223  33.568   0.603  15.704  0.2581  0.2199 -0.0039
 2576DOPS   D2B30224  33.585   0.525  15.301  0.2875 -0.3176 -0.2863
 2576DOPS   C3B30225  33.797   0.327  14.975 -0.4033  0.2816  0.1104
 2576DOPS   C4B30226  33.799   0.333  14.512 -0.1205  0.0307 -0.0007
 2577DOPS   CNO30227  22.842   4.720  15.717 -0.1409 -0.0207 -0.0046
 2577DOPS   PO430228  23.148   4.806  15.492  0.0771 -0.0609  0.0493
 2577DOPS   GL130229  23.465   4.716  15.307 -0.2522  0.0074  0.0534
 2577DOPS   GL230230  23.570   4.951  15.232 -0.1396 -0.1787 -0.1223
 2577DOPS   C1A30231  23.579   4.514  14.932  0.1145  0.0854  0.0699
 2577DOPS   D2A30232  23.371   4.385  14.503 -0.1476 -0.1733 -0.0930
 2577DOPS   C3A30233  23.533   4.613  14.130  0.3988 -0.1679 -0.2393
 2577DOPS   C4A30234  23.994   4.609  13.980  0.2727  0.0649  0.3546
 2577DOPS   C1B30235  23.480   5.045  14.775 -0.1928 -0.0428 -0.0938
 2577DOPS   D2B30236  23.135   4.941  14.474  0.0587  0.1808  0.0626
 2577DOPS   C3B30237  23.237   5.100  14.078 -0.1369  0.1427  0.1481
 2577DOPS   C4B30238  23.122   5.333  13.750  0.2293 -0.3595  0.1722
 2578DOPE   NH330239  27.119   9.751  15.433  0.0361 -0.1200 -0.0496
 2578DOPE   PO430240  27.204   9.463  15.503  0.1738  0.2300 -0.2640
 2578DOPE   GL130241  26.864   9.369  15.204  0.0896  0.0056 -0.2011
 2578DOPE   GL230242  27.036   9.129  15.181  0.1460  0.0404 -0.1096
 2578DOPE   C1A30243  26.970   9.361  14.728 -0.0856  0.3761 -0.0712
 2578DOPE   D2A30244  27.314   9.465  14.390  0.1489  0.0142 -0.2702
 2578DOPE   C3A30245  27.307   9.490  13.927 -0.2508  0.0224  0.1186
 2578DOPE   C4A30246  27.475   9.387  13.553 -0.0128 -0.2409  0.1620
 2578DOPE   C1B30247  27.170   8.917  14.803  0.1071  0.2675  0.3488
 2578DOPE   D2B30248  27.173   8.604  14.452  0.1995 -0.0047 -0.2380
 2578DOPE   C3B30249  27.132   8.556  13.979 -0.1331  0.0749  0.1110
 2578DOPE   C4B30250  27.115   8.571  13.519  0.0157  0.0652 -0.3107
 2579DOPC   NC330251  27.848  10.122  15.345  0.1000  0.0940  0.3829
 2579DOPC   PO430252  27.601   9.809  15.226  0.2972 -0.0496 -0.4581
 2579DOPC   GL130253  27.667  10.011  14.930 -0.1575 -0.0791 -0.2222
 2579DOPC   GL230254  27.953  10.021  14.884  0.0165  0.7328  0.2972
 2579DOPC   C1A30255  27.602  10.352  14.629 -0.1768 -0.2535 -0.0438
 2579DOPC   D2A30256  27.356  10.715  14.544 -0.0473 -0.1598  0.1552
 2579DOPC   C3A30257  27.352  11.008  14.133  0.1823 -0.0843  0.1625
 2579DOPC   C4A30258  27.683  11.377  14.095 -0.0645  0.0217  0.0112
 2579DOPC   C1B30259  28.259  10.199  14.653 -0.3018 -0.2599 -0.0354
 2579DOPC   D2B30260  28.634  10.090  14.392 -0.3075 -0.1049 -0.0743
 2579DOPC   C3B30261  28.653  10.017  13.960  0.0618  0.1010  0.0463
 2579DOPC   C4B30262  28.411  10.185  13.710  0.1921 -0.0496  0.1682
 2580DOPE   NH330263  29.689   8.338  16.008 -0.0387  0.3349 -0.0898
 2580DOPE   PO430264  29.802   8.633  16.102 -0.1888 -0.1450 -0.3089
 2580DOPE   GL130265  29.701   8.836  15.725 -0.2423  0.2099  0.1158
 2580DOPE   GL230266  29.407   8.710  15.781  0.1648 -0.0234 -0.0388
 2580DOPE   C1A30267  29.413   8.960  15.370 -0.0523 -0.1951 -0.1487
 2580DOPE   D2A30268  29.487   8.964  14.932 -0.0325  0.2072 -0.2838
 2580DOPE   C3A30269  29.854   8.855  14.774  0.0996  0.0577 -0.1088
 2580DOPE   C4A30270  30.271   9.071  14.905 -0.0586 -0.0139  0.1767
 2580DOPE   C1B30271  29.595   8.447  15.453 -0.1492  0.0004 -0.2043
 2580DOPE   D2B30272  29.404   8.182  15.093 -0.0570 -0.0972 -0.0342
 2580DOPE   C3B30273  29.248   8.045  14.713 -0.1062  0.0716  0.0718
 2580DOPE   C4B30274  29.102   7.724  14.407  0.4263  0.0143  0.0824
 2581DOPC   NC330275  23.250   3.915  15.886  0.1207  0.2511 -0.0318
 2581DOPC   PO430276  23.253   3.937  15.491 -0.1336  0.0144 -0.2167
 2581DOPC   GL130277  23.135   3.745  15.188  0.4600  0.0316  0.0685
 2581DOPC   GL230278  23.339   3.887  15.019  0.1159 -0.1162  0.1906
 2581DOPC   C1A30279  23.012   3.477  14.868 -0.1442  0.0124 -0.0322
 2581DOPC   D2A30280  22.742   3.242  14.654 -0.3668 -0.1710  0.0102
 2581DOPC   C3A30281  22.370   3.389  14.389  0.1892 -0.1425  0.1342
 2581DOPC   C4A30282  22.114   3.219  14.056  0.0352 -0.2628 -0.0271
 2581DOPC   C1B30283  23.640   4.048  14.737  0.2590 -0.3863 -0.0200
 2581DOPC   D2B30284  24.036   4.267  14.776 -0.2045 -0.1053  0.4821
 2581DOPC   C3B30285  23.911   4.674  14.562 -0.1878  0.0511 -0.1295
 2581DOPC   C4B30286  23.757   5.048  14.326  0.3089  0.2607  0.4024
 2582DOPE   NH330287  32.854   5.026  16.405  0.3746 -0.0614 -0.1617
 2582DOPE   PO430288  32.879   4.733  16.496 -0.4252  0.0044 -0.0528
 2582DOPE   GL130289  32.641   4.743  16.115  0.0471 -0.1935  0.0979
 2582DOPE   GL230290  32.898   4.806  15.892 -0.0477 -0.3020  0.0623
 2582DOPE   C1A30291  32.695   4.362  15.840  0.4052 -0.2305 -0.2034
 2582DOPE   D2A30292  32.669   4.100  15.411 -0.2264  0.2083 -0.0189
 2582DOPE   C3A30293  32.584   3.974  14.955 -0.0218  0.0402  0.1282
 2582DOPE   C4A30294  32.274   3.922  14.656  0.0277  0.4269  0.0822
 2582DOPE   C1B30295  33.194   4.521  15.605  0.0498  0.0669 -0.1606
 2582DOPE   D2B30296  33.090   4.251  15.207  0.0366  0.0258  0.0748
 2582DOPE   C3B30297  33.023   4.422  14.833 -0.0341 -0.1110 -0.1271
 2582DOPE   C4B30298  33.054   4.924  14.675 -0.1666  0.1541  0.2640
 2583DOPE   NH330299  32.892   8.553  15.904  0.1299 -0.3020 -0.2591
 2583DOPE   PO430300  32.685   8.531  15.674 -0.1402  0.0722 -0.0213
 2583DOPE   GL130301  32.745   8.481  15.242  0.2124  0.1697 -0.3276
 2583DOPE   GL230302  32.847   8.208  15.190 -0.2541  0.2858  0.2864
 2583DOPE   C1A30303  32.741   8.781  14.915  0.3995 -0.1669  0.0380
 2583DOPE   D2A30304  32.887   8.891  14.473  0.2610 -0.2093 -0.0957
 2583DOPE   C3A30305  32.722   9.032  14.021  0.0369 -0.0592  0.0080
 2583DOPE   C4A30306  32.779   9.032  13.580 -0.0442  0.0109 -0.0569
 2583DOPE   C1B30307  32.856   8.223  14.722 -0.0788  0.0517  0.1479
 2583DOPE   D2B30308  32.654   8.184  14.384 -0.2176  0.0010 -0.1945
 2583DOPE   C3B30309  32.639   8.447  14.002 -0.3931 -0.0155  0.1234
 2583DOPE   C4B30310  32.629   8.508  13.553  0.3581 -0.0526 -0.0552
 2584DOPC   NC330311  25.685   0.183  15.749 -0.0164 -0.1598  0.1042
 2584DOPC   PO430312  25.291   0.124  15.853  0.0975  0.1474 -0.1196
 2584DOPC   GL130313  25.261   0.320  15.529  0.0961 -0.1398  0.4723
 2584DOPC   GL230314  25.065   0.401  15.353  0.1434 -0.2921 -0.0757
 2584DOPC   C1A30315  25.384   0.780  15.489  0.1612  0.0037  0.0653
 2584DOPC   D2A30316  25.654   0.954  15.169 -0.0383 -0.0472  0.0462
 2584DOPC   C3A30317  26.093   0.886  15.236  0.1801  0.0454  0.0464
 2584DOPC   C4A30318  26.486   1.074  15.081 -0.1740  0.4032 -0.2847
 2584DOPC   C1B30319  24.984   0.506  14.852  0.3442 -0.0717  0.1668
 2584DOPC   D2B30320  24.800   0.516  14.455 -0.1259 -0.1054  0.1421
 2584DOPC   C3B30321  24.449   0.707  14.167  0.0050  0.1972  0.3090
 2584DOPC   C4B30322  24.119   0.959  13.878 -0.0856 -0.0712 -0.3076
 2585DOPC   NC330323  33.820   4.232  15.932 -0.1148 -0.0393  0.2742
 2585DOPC   PO430324  34.180   4.041  15.853  0.0400 -0.1036 -0.0325
 2585DOPC   GL130325  34.091   3.853  15.540 -0.2174  0.1030 -0.2302
 2585DOPC   GL230326  33.969   4.053  15.430  0.2484  0.1862  0.0652
 2585DOPC   C1A30327  33.957   3.647  15.176 -0.1229 -0.1162  0.0297
 2585DOPC   D2A30328  34.229   3.479  14.795  0.3396 -0.1298 -0.2678
 2585DOPC   C3A30329  34.121   3.096  14.591 -0.3646  0.1671  0.2727
 2585DOPC   C4A30330  34.379   2.635  14.613 -0.0057  0.1884 -0.0384
 2585DOPC   C1B30331  33.833   4.135  15.051 -0.1747  0.0449 -0.1372
 2585DOPC   D2B30332  33.459   4.183  14.836  0.0994 -0.0002 -0.1973
 2585DOPC   C3B30333  33.355   4.505  14.470  0.0645  0.1448 -0.1222
 2585DOPC   C4B30334  33.326   4.750  14.145 -0.1939 -0.0188 -0.3634
 2586DOPE   NH330335  30.464   3.219  16.709 -0.3482 -0.1981  0.0810
 2586DOPE   PO430336  30.371   2.884  16.707  0.1961  0.0057 -0.4094
 2586DOPE   GL130337  30.437   2.809  16.350  0.0249 -0.0828  0.2115
 2586DOPE   GL230338  30.575   2.566  16.294  0.0556  0.2081  0.0558
 2586DOPE   C1A30339  30.166   2.526  16.056  0.5730  0.0416 -0.1958
 2586DOPE   D2A30340  29.755   2.420  15.842  0.1800  0.3117 -0.2469
 2586DOPE   C3A30341  29.820   2.008  15.620 -0.1290  0.1254  0.0654
 2586DOPE   C4A30342  29.683   1.835  15.220 -0.0723 -0.1768 -0.3119
 2586DOPE   C1B30343  30.731   2.392  15.899  0.0156  0.2678 -0.0565
 2586DOPE   D2B30344  30.958   2.564  15.495  0.0353 -0.0529  0.1561
 2586DOPE   C3B30345  30.933   3.012  15.277 -0.0187  0.1064 -0.1528
 2586DOPE   C4B30346  30.815   3.341  14.969 -0.1521 -0.0916 -0.4442
 2587DOPE   NH330347  33.658   6.692  15.798 -0.3103 -0.3281 -0.0246
 2587DOPE   PO430348  33.950   6.893  15.813 -0.1701  0.4145 -0.0286
 2587DOPE   GL130349  34.163   7.037  15.527 -0.2251  0.1192  0.0889
 2587DOPE   GL230350  33.911   7.211  15.405  0.0421  0.0409 -0.0033
 2587DOPE   C1A30351  34.424   6.877  15.217 -0.0185 -0.0879 -0.4174
 2587DOPE   D2A30352  34.429   6.421  15.088  0.0659  0.3470  0.0042
 2587DOPE   C3A30353  34.273   6.279  14.671  0.3091  0.0229 -0.1327
 2587DOPE   C4A30354  33.876   6.013  14.591  0.2402 -0.2003 -0.0193
 2587DOPE   C1B30355  34.091   7.158  15.024  0.1268  0.1175  0.1233
 2587DOPE   D2B30356  34.447   7.121  14.745 -0.0810 -0.1909 -0.0473
 2587DOPE   C3B30357  34.625   6.658  14.716 -0.1103  0.0711 -0.0607
 2587DOPE   C4B30358  35.061   6.515  14.694 -0.0245  0.0875 -0.2191
 2588DOPS   CNO30359  24.735   5.835  16.262  0.0193  0.1266  0.1274
 2588DOPS   PO430360  24.488   5.706  16.048 -0.1148 -0.0979 -0.0660
 2588DOPS   GL130361  24.587   5.609  15.693  0.2447  0.1164  0.0499
 2588DOPS   GL230362  24.707   5.350  15.745 -0.2443  0.0846 -0.1953
 2588DOPS   C1A30363  24.873   5.484  15.310 -0.2048  0.0732 -0.1534
 2588DOPS   D2A30364  25.185   5.233  15.153 -0.1725 -0.0656  0.0404
 2588DOPS   C3A30365  25.445   5.373  14.794  0.0239 -0.0473  0.2387
 2588DOPS   C4A30366  25.443   5.388  14.366  0.0079  0.1587 -0.3500
 2588DOPS   C1B30367  24.850   5.040  15.533 -0.0640  0.1040 -0.0563
 2588DOPS   D2B30368  25.116   4.751  15.275  0.0039  0.0033 -0.2355
 2588DOPS   C3B30369  25.426   4.889  14.927 -0.1409  0.0116  0.0215
 2588DOPS   C4B30370  25.706   5.009  14.544  0.0535  0.1623 -0.2868
 2589POSM   NC330371  27.618  10.480  16.320 -0.1174  0.0937  0.1726
 2589POSM   PO430372  27.351  10.452  16.013 -0.2602  0.2821  0.1518
 2589POSM   AM130373  27.501  10.637  15.749  0.2565 -0.0092  0.1380
 2589POSM   AM230374  27.770  10.641  15.562  0.0656 -0.0334  0.1279
 2589POSM   T1A30375  27.507  10.973  15.378  0.2525  0.0341 -0.1245
 2589POSM   C2A30376  27.382  11.393  15.195  0.0381  0.2197  0.1609
 2589POSM   C3A30377  27.443  11.776  15.042  0.0474 -0.0096  0.1866
 2589POSM   C1B30378  28.043  10.800  15.374  0.1614  0.1345  0.3466
 2589POSM   D2B30379  28.461  10.955  15.156  0.0151  0.2957  0.0578
 2589POSM   C3B30380  28.223  11.242  14.796 -0.1338 -0.3276  0.1202
 2589POSM   C4B30381  28.089  11.484  14.427 -0.1416  0.3771  0.2321
 2590DOPC   NC330382  23.320   6.024  15.244  0.0467  0.0530  0.0119
 2590DOPC   PO430383  23.096   5.772  15.463  0.0874 -0.0130 -0.0669
 2590DOPC   GL130384  22.917   5.863  15.078  0.2573 -0.1862  0.1521
 2590DOPC   GL230385  22.771   5.668  15.035  0.0428 -0.3512 -0.2830
 2590DOPC   C1A30386  23.013   6.221  14.843 -0.1707  0.0927  0.0275
 2590DOPC   D2A30387  23.038   6.327  14.414 -0.1659  0.3135 -0.2432
 2590DOPC   C3A30388  22.919   6.080  14.073  0.0840  0.2368 -0.1633
 2590DOPC   C4A30389  23.173   6.025  13.661 -0.0535  0.1448  0.0845
 2590DOPC   C1B30390  22.962   5.773  14.615 -0.0712  0.0207 -0.0003
 2590DOPC   D2B30391  23.338   5.962  14.452  0.0397 -0.0168  0.0266
 2590DOPC   C3B30392  23.383   6.204  14.075 -0.2654  0.2782  0.3628
 2590DOPC   C4B30393  23.657   6.440  13.800 -0.0484 -0.4239  0.1713
 2591DOPC   NC330394  27.115   4.305  16.306 -0.0333  0.0573 -0.1391
 2591DOPC   PO430395  27.477   4.144  16.300 -0.1300  0.1653 -0.0901
 2591DOPC   GL130396  27.549   4.189  15.908  0.0357 -0.1522 -0.2036
 2591DOPC   GL230397  27.296   4.336  15.841 -0.5246  0.1378  0.0046
 2591DOPC   C1A30398  27.828   3.972  15.708  0.0509 -0.0244  0.1532
 2591DOPC   D2A30399  27.915   3.736  15.377 -0.1657 -0.0157  0.0137
 2591DOPC   C3A30400  27.889   3.585  14.896 -0.1171 -0.0711  0.0644
 2591DOPC   C4A30401  27.765   3.608  14.420  0.2751 -0.0294 -0.0010
 2591DOPC   C1B30402  27.348   4.262  15.419 -0.1372 -0.0772 -0.0202
 2591DOPC   D2B30403  27.439   3.891  15.191  0.0457  0.3955  0.1112
 2591DOPC   C3B30404  27.236   3.761  14.814  0.0093 -0.1558  0.0307
 2591DOPC   C4B30405  27.234   3.426  14.533 -0.3209 -0.0885 -0.0085
 2592DOPS   CNO30406  26.699   0.843  16.461 -0.0731  0.1277  0.1969
 2592DOPS   PO430407  26.597   1.133  16.233 -0.0358  0.0016  0.2851
 2592DOPS   GL130408  26.664   1.006  15.873 -0.0320  0.1830 -0.1896
 2592DOPS   GL230409  26.703   1.249  15.813  0.4330 -0.1008  0.1954
 2592DOPS   C1A30410  26.513   0.697  15.570 -0.1531 -0.1784 -0.2846
 2592DOPS   D2A30411  26.826   0.328  15.552  0.1509 -0.2275  0.1029
 2592DOPS   C3A30412  27.336   0.267  15.660 -0.0340  0.0517  0.1489
 2592DOPS   C4A30413  27.779   0.154  15.509 -0.0524  0.0816 -0.2631
 2592DOPS   C1B30414  26.353   1.320  15.513 -0.1800  0.0971  0.1586
 2592DOPS   D2B30415  25.970   1.444  15.214 -0.1446 -0.0970  0.1956
 2592DOPS   C3B30416  26.028   1.266  14.809  0.2421  0.2671  0.2267
 2592DOPS   C4B30417  26.202   0.850  14.729 -0.2143 -0.0158  0.0772
 2593DOPC   NC330418  32.618  11.097  15.119  0.1802 -0.3676  0.2068
 2593DOPC   PO430419  32.766  11.223  15.461  0.0032  0.3425  0.0287
 2593DOPC   GL130420  32.841  11.573  15.296 -0.2853  0.2282 -0.2831
 2593DOPC   GL230421  32.725  11.607  15.020  0.1022 -0.1143 -0.0310
 2593DOPC   C1A30422  33.222  11.733  15.098  0.1288 -0.0302  0.0526
 2593DOPC   D2A30423  33.452  11.743  14.768  0.0411  0.3315 -0.0929
 2593DOPC   C3A30424  33.649  11.691  14.342  0.2066  0.2974 -0.1644
 2593DOPC   C4A30425  33.771  11.859  13.919 -0.1199  0.1576  0.3985
 2593DOPC   C1B30426  32.959  11.717  14.639  0.1139  0.0482  0.4096
 2593DOPC   D2B30427  33.201  11.952  14.407  0.2782  0.1640 -0.0956
 2593DOPC   C3B30428  33.301  11.950  13.957  0.1150 -0.2152 -0.0836
 2593DOPC   C4B30429  33.497  12.205  13.593 -0.1842  0.0815  0.0719
 2594POSM   NC330430  31.761   5.199  16.104 -0.0708  0.1732  0.1354
 2594POSM   PO430431  32.061   4.976  16.133  0.2124  0.6454 -0.1449
 2594POSM   AM130432  32.100   4.918  15.820 -0.0313 -0.0785 -0.3749
 2594POSM   AM230433  32.012   5.075  15.596 -0.2563  0.0526 -0.0058
 2594POSM   T1A30434  32.223   4.543  15.533 -0.0426  0.2262 -0.0702
 2594POSM   C2A30435  32.237   4.084  15.712  0.2399  0.0301 -0.2405
 2594POSM   C3A30436  32.052   3.765  16.014 -0.1485  0.4774  0.1952
 2594POSM   C1B30437  31.919   5.327  15.382  0.0586  0.1383 -0.3378
 2594POSM   D2B30438  32.079   5.722  15.315 -0.0599  0.1455  0.1445
 2594POSM   C3B30439  32.256   5.718  14.892  0.0042 -0.1893 -0.2191
 2594POSM   C4B30440  32.287   5.558  14.499  0.3244  0.1730  0.2075
 2595DOPC   NC330441  28.997   1.744  16.646 -0.3673 -0.0262 -0.1361
 2595DOPC   PO430442  28.638   1.714  16.495  0.2683  0.0185  0.0386
 2595DOPC   GL130443  28.768   1.656  16.161  0.2439 -0.1789  0.1450
 2595DOPC   GL230444  28.958   1.860  16.048  0.2030  0.2828  0.0818
 2595DOPC   C1A30445  29.090   1.411  15.937 -0.1385 -0.0610  0.1635
 2595DOPC   D2A30446  29.336   1.029  15.813  0.0929 -0.1280 -0.3299
 2595DOPC   C3A30447  29.281   0.959  15.386  0.4970 -0.3665  0.3749
 2595DOPC   C4A30448  28.820   0.926  15.207 -0.1615 -0.0004  0.0743
 2595DOPC   C1B30449  28.898   1.721  15.623  0.3938  0.3230 -0.1591
 2595DOPC   D2B30450  28.855   1.477  15.200  0.0520 -0.3304  0.0528
 2595DOPC   C3B30451  28.930   1.430  14.793 -0.2510 -0.0476 -0.0696
 2595DOPC   C4B30452  29.262   1.473  14.520  0.1245  0.3835  0.2134
 2596DOPC   NC330453  32.123  34.403  16.308 -0.3000 -0.0982  0.0328
 2596DOPC   PO430454  32.080  34.797  16.334 -0.0403  0.1060 -0.5449
 2596DOPC   GL130455  31.924  34.730  15.953 -0.1236 -0.2752  0.4825
 2596DOPC   GL230456  32.024  34.993  15.860 -0.1168 -0.0344 -0.2121
 2596DOPC   C1A30457  32.209  34.642  15.586 -0.0553 -0.1126  0.1992
 2596DOPC   D2A30458  32.174  34.534  15.158 -0.0813 -0.1588 -0.2046
 2596DOPC   C3A30459  32.093  34.192  14.831  0.1425 -0.1550 -0.1358
 2596DOPC   C4A30460  31.747  33.860  14.778 -0.0428 -0.0906  0.5890
 2596DOPC   C1B30461  32.103  35.294  15.526 -0.1969  0.3078  0.1727
 2596DOPC   D2B30462  32.291  35.599  15.223 -0.0835  0.0050  0.1701
 2596DOPC   C3B30463  32.571  35.357  14.887 -0.1187  0.1451 -0.0556
 2596DOPC   C4B30464  32.514  35.239  14.485  0.0665 -0.1211  0.2389
 2597DOPE   NH330465  29.746  34.470  16.648  0.1802 -0.2810 -0.2640
 2597DOPE   PO430466  29.705  34.199  16.442 -0.1747  0.4626  0.2178
 2597DOPE   GL130467  29.889  33.942  16.151 -0.1099 -0.1330  0.2817
 2597DOPE   GL230468  30.135  33.975  16.177 -0.2306 -0.2361 -0.1365
 2597DOPE   C1A30469  29.760  33.882  15.703 -0.0692  0.0824  0.2913
 2597DOPE   D2A30470  29.694  33.876  15.234  0.1818 -0.1780 -0.0013
 2597DOPE   C3A30471  29.495  34.001  14.869 -0.0489 -0.1537 -0.2011
 2597DOPE   C4A30472  29.263  34.348  14.790  0.2415 -0.2380 -0.0800
 2597DOPE   C1B30473  30.172  34.206  15.797  0.0228  0.0019 -0.0660
 2597DOPE   D2B30474  29.839  34.401  15.462 -0.1486  0.0791  0.4320
 2597DOPE   C3B30475  29.790  34.820  15.558 -0.0062 -0.0166  0.3575
 2597DOPE   C4B30476  29.900  35.155  15.275  0.0797 -0.0312 -0.2197
 2598POSM   NC330477  32.664   1.288  16.697  0.0631 -0.5313 -0.2270
 2598POSM   PO430478  32.757   1.509  16.384  0.5342  0.1454  0.1452
 2598POSM   AM130479  32.976   1.424  16.102  0.0671 -0.1235  0.0543
 2598POSM   AM230480  33.099   1.630  15.953 -0.1140  0.2956  0.2134
 2598POSM   T1A30481  33.175   1.092  15.742  0.0502  0.1148  0.2646
 2598POSM   C2A30482  33.160   0.783  15.402  0.1194  0.0120  0.0395
 2598POSM   C3A30483  32.970   0.349  15.197 -0.1945  0.0277  0.1281
 2598POSM   C1B30484  33.026   1.630  15.662 -0.0229  0.0415  0.0721
 2598POSM   D2B30485  33.020   1.825  15.272 -0.1582  0.1039 -0.1505
 2598POSM   C3B30486  33.331   1.868  14.919 -0.1032 -0.1732  0.1478
 2598POSM   C4B30487  33.647   1.564  14.861 -0.1097 -0.1510 -0.1694
 2599POSM   NC330488  24.189   6.720  15.704 -0.0550  0.1474  0.3964
 2599POSM   PO430489  24.538   6.650  15.875  0.0725 -0.2084 -0.0301
 2599POSM   AM130490  24.693   6.576  15.589 -0.0152 -0.3109  0.0140
 2599POSM   AM230491  24.925   6.538  15.465  0.1369  0.0115  0.0541
 2599POSM   T1A30492  24.634   6.789  15.127  0.1361  0.2604  0.0186
 2599POSM   C2A30493  24.600   6.957  14.676 -0.1621  0.0200  0.1634
 2599POSM   C3A30494  24.807   7.122  14.361 -0.0591  0.1073 -0.0342
 2599POSM   C1B30495  25.101   6.792  15.330 -0.2574 -0.0173 -0.2406
 2599POSM   D2B30496  25.454   7.009  15.082  0.0500  0.0423 -0.0618
 2599POSM   C3B30497  25.781   6.746  15.058 -0.4390 -0.1396 -0.0702
 2599POSM   C4B30498  26.037   6.387  15.213 -0.2308 -0.2848 -0.2710
 2600DOPE   NH330499  24.736   2.792  15.951 -0.0044  0.1584 -0.0296
 2600DOPE   PO430500  24.767   2.462  15.903 -0.1110  0.0821 -0.1668
 2600DOPE   GL130501  24.803   2.373  15.548 -0.5470  0.1693 -0.2052
 2600DOPE   GL230502  24.954   2.232  15.342  0.0421  0.4637 -0.1119
 2600DOPE   C1A30503  24.524   2.414  15.188 -0.0393  0.2571  0.0519
 2600DOPE   D2A30504  24.355   2.091  14.889 -0.0823 -0.0698  0.0014
 2600DOPE   C3A30505  23.928   1.936  14.677  0.3276 -0.2859 -0.2150
 2600DOPE   C4A30506  23.656   1.806  14.369  0.1969  0.0159  0.1142
 2600DOPE   C1B30507  25.288   2.219  15.042 -0.0658 -0.0561 -0.2300
 2600DOPE   D2B30508  25.360   2.091  14.585  0.2348 -0.1737 -0.0695
 2600DOPE   C3B30509  25.165   1.671  14.483  0.0031  0.0911 -0.1233
 2600DOPE   C4B30510  24.899   1.326  14.668  0.1171  0.1609 -0.0942
 2601POSM   NC330511  24.382   2.144  16.439 -0.0640 -0.3709  0.0007
 2601POSM   PO430512  24.131   2.268  16.199  0.2253  0.0798 -0.4354
 2601POSM   AM130513  24.263   2.304  15.919  0.1421  0.0179 -0.2450
 2601POSM   AM230514  24.312   2.496  15.676 -0.1012 -0.2981 -0.1246
 2601POSM   T1A30515  24.330   2.058  15.486  0.0058 -0.1438  0.2696
 2601POSM   C2A30516  24.631   1.866  15.228 -0.1909  0.3755 -0.1806
 2601POSM   C3A30517  24.519   1.529  14.895 -0.0116 -0.1128  0.0394
 2601POSM   C1B30518  24.163   2.626  15.377  0.1832 -0.1061  0.3344
 2601POSM   D2B30519  24.242   2.772  14.961  0.0621 -0.2950  0.0521
 2601POSM   C3B30520  24.125   2.851  14.522 -0.0774 -0.1095  0.0244
 2601POSM   C4B30521  24.342   3.105  14.151  0.1367  0.0513 -0.0409
 2602DOPE   NH330522  27.204  10.064  15.792  0.0660  0.2813 -0.2174
 2602DOPE   PO430523  27.439  10.165  15.601  0.0621 -0.1436  0.2657
 2602DOPE   GL130524  27.410  10.402  15.327 -0.3706 -0.2329  0.0767
 2602DOPE   GL230525  27.230  10.231  15.124  0.2099 -0.2011 -0.2913
 2602DOPE   C1A30526  27.718  10.569  15.045  0.1315 -0.1990  0.0784
 2602DOPE   D2A30527  27.733  11.007  14.900 -0.0258  0.2616  0.2989
 2602DOPE   C3A30528  27.743  11.012  14.404 -0.0460 -0.0684  0.1950
 2602DOPE   C4A30529  27.844  10.886  13.939  0.1390 -0.0272  0.3630
 2602DOPE   C1B30530  27.173  10.642  15.027 -0.0317  0.2168 -0.1807
 2602DOPE   D2B30531  27.274  11.069  14.859  0.1896 -0.0200  0.1902
 2602DOPE   C3B30532  27.486  11.401  14.674  0.0679 -0.3209 -0.3091
 2602DOPE   C4B30533  27.891  11.702  14.785 -0.1625 -0.1807  0.0738
 2603POSM   NC330534  23.104   5.275  15.717 -0.2143  0.0929  0.2832
 2603POSM   PO430535  23.483   5.185  15.687 -0.0604 -0.2169  0.3477
 2603POSM   AM130536  23.446   5.399  15.403 -0.2138  0.1005  0.1184
 2603POSM   AM230537  23.612   5.591  15.303  0.2807 -0.0163 -0.4237
 2603POSM   T1A30538  23.339   5.536  14.869  0.1573 -0.1843 -0.2153
 2603POSM   C2A30539  23.421   5.461  14.429 -0.2959  0.0497 -0.0692
 2603POSM   C3A30540  23.598   5.399  13.974 -0.2018  0.1222 -0.0555
 2603POSM   C1B30541  23.807   5.481  15.072 -0.0603  0.2482 -0.1377
 2603POSM   D2B30542  24.128   5.490  14.730  0.1748 -0.0044 -0.0141
 2603POSM   C3B30543  24.081   5.458  14.261 -0.1753 -0.1283 -0.2097
 2603POSM   C4B30544  24.036   5.376  13.851 -0.0314  0.1072  0.0208
 2604DOPS   CNO30545  34.435   2.396  15.831  0.0724 -0.0198 -0.1113
 2604DOPS   PO430546  34.702   2.318  16.080  0.1119 -0.0054  0.1660
 2604DOPS   GL130547  34.578   1.892  15.972  0.1183  0.1930 -0.2026
 2604DOPS   GL230548  34.914   1.823  16.082 -0.0448  0.1322  0.1495
 2604DOPS   C1A30549  34.698   1.510  15.690 -0.0219 -0.1868  0.1551
 2604DOPS   D2A30550  35.110   1.624  15.452 -0.0150 -0.0169  0.0448
 2604DOPS   C3A30551  35.167   1.420  15.037  0.2467 -0.0493  0.1472
 2604DOPS   C4A30552  35.339   1.041  14.879  0.2829  0.1403 -0.1294
 2604DOPS   C1B30553  35.146   1.443  15.979 -0.2770 -0.0970  0.0012
 2604DOPS   D2B30554  35.425   1.089  16.022 -0.4225 -0.4451  0.2439
 2604DOPS   C3B30555  35.528   0.925  15.545 -0.2502  0.2903 -0.2742
 2604DOPS   C4B30556  35.582   0.674  15.102 -0.1587  0.2607 -0.2169
 2605DOPC   NC330557  28.490   9.709  15.695 -0.0647  0.2459  0.0745
 2605DOPC   PO430558  28.067   9.714  15.696  0.1814  0.0588  0.3216
 2605DOPC   GL130559  28.192   9.501  15.336 -0.1598  0.0938  0.2833
 2605DOPC   GL230560  28.059   9.604  15.124 -0.0530 -0.0048 -0.1503
 2605DOPC   C1A30561  28.552   9.427  15.116 -0.0604  0.1603 -0.0673
 2605DOPC   D2A30562  28.907   9.220  14.942  0.2962  0.0309 -0.0226
 2605DOPC   C3A30563  29.110   9.001  14.589  0.1267 -0.1585 -0.1047
 2605DOPC   C4A30564  28.988   8.872  14.186  0.0741 -0.0477 -0.1336
 2605DOPC   C1B30565  28.332   9.604  14.699  0.0598 -0.1582 -0.2249
 2605DOPC   D2B30566  28.280   9.608  14.282  0.0302  0.0778  0.2672
 2605DOPC   C3B30567  28.210  10.062  14.184  0.0685  0.1475  0.1904
 2605DOPC   C4B30568  27.984  10.482  14.289  0.1172 -0.1441  0.3120
 2606DOPS   CNO30569  22.959  10.581  15.533  0.1567  0.1678  0.1177
 2606DOPS   PO430570  23.175  10.375  15.777  0.1096  0.0261 -0.2164
 2606DOPS   GL130571  23.337  10.255  15.432 -0.0618 -0.1593  0.0144
 2606DOPS   GL230572  23.076  10.160  15.342  0.3385  0.1036  0.0708
 2606DOPS   C1A30573  23.797  10.192  15.416 -0.0393  0.2049 -0.1068
 2606DOPS   D2A30574  24.125  10.469  15.203 -0.3694  0.2078  0.0074
 2606DOPS   C3A30575  24.143  10.949  15.152 -0.1179 -0.1740 -0.0156
 2606DOPS   C4A30576  24.450  11.287  15.079 -0.1342 -0.0905 -0.2016
 2606DOPS   C1B30577  23.372  10.425  15.041 -0.1532 -0.3315  0.1698
 2606DOPS   D2B30578  23.685  10.763  14.911  0.1391  0.1484 -0.1547
 2606DOPS   C3B30579  23.802  10.945  14.470  0.0456 -0.2165  0.3306
 2606DOPS   C4B30580  24.105  11.251  14.318  0.1390 -0.1826  0.0640
 2607DOPE   NH330581  32.430   8.956  15.516 -0.0721 -0.0269  0.0298
 2607DOPE   PO430582  32.685   9.059  15.710  0.0618 -0.1237 -0.0166
 2607DOPE   GL130583  32.881   9.303  15.429 -0.2987 -0.1543 -0.1552
 2607DOPE   GL230584  32.642   9.285  15.198 -0.0729  0.0014 -0.2865
 2607DOPE   C1A30585  33.179   9.489  15.103 -0.0841 -0.1040 -0.1908
 2607DOPE   D2A30586  33.467   9.715  14.783 -0.1130  0.3559 -0.2025
 2607DOPE   C3A30587  33.741   9.440  14.482  0.0571 -0.0076 -0.1206
 2607DOPE   C4A30588  34.002   9.356  14.088  0.5070  0.0780  0.0266
 2607DOPE   C1B30589  32.232   9.131  14.986 -0.1480 -0.0068 -0.3127
 2607DOPE   D2B30590  31.963   9.019  14.628 -0.1053  0.0472  0.0311
 2607DOPE   C3B30591  32.141   8.804  14.201 -0.0592  0.0484  0.0515
 2607DOPE   C4B30592  32.309   8.874  13.718 -0.1288 -0.0023  0.2306
 2608DOPC   NC330593  24.838   6.386  16.309  0.2245 -0.0347 -0.0656
 2608DOPC   PO430594  24.872   6.237  15.928 -0.0296  0.0009 -0.2647
 2608DOPC   GL130595  24.662   6.089  15.697  0.2337 -0.0916 -0.0158
 2608DOPC   GL230596  24.420   6.185  15.714  0.0601  0.1274  0.2187
 2608DOPC   C1A30597  24.706   5.963  15.267  0.0683 -0.2071 -0.0293
 2608DOPC   D2A30598  24.692   5.890  14.775  0.3528 -0.0639 -0.0747
 2608DOPC   C3A30599  24.887   6.222  14.451 -0.0956  0.0456 -0.1832
 2608DOPC   C4A30600  25.225   6.262  14.141 -0.1097  0.2660  0.2053
 2608DOPC   C1B30601  24.329   6.428  15.279  0.3791  0.2090  0.0264
 2608DOPC   D2B30602  24.160   6.471  14.841 -0.1962 -0.0657  0.0604
 2608DOPC   C3B30603  24.613   6.478  14.756 -0.0242  0.0228  0.2243
 2608DOPC   C4B30604  24.984   6.283  14.943  0.4057  0.1447 -0.0291
 2609DOPS   CNO30605  23.654   3.096  16.097  0.1575  0.2361  0.0711
 2609DOPS   PO430606  23.475   3.471  16.109  0.2171  0.0612 -0.1779
 2609DOPS   GL130607  23.414   3.392  15.705  0.1639  0.1585  0.1266
 2609DOPS   GL230608  23.201   3.453  15.628 -0.0286 -0.2279  0.2195
 2609DOPS   C1A30609  23.607   3.343  15.273  0.0842  0.0733  0.0244
 2609DOPS   D2A30610  23.861   3.183  14.916 -0.0812  0.2671 -0.1741
 2609DOPS   C3A30611  23.958   3.347  14.536 -0.0817 -0.6170  0.0119
 2609DOPS   C4A30612  23.724   3.631  14.210  0.0841  0.0887 -0.1509
 2609DOPS   C1B30613  23.010   3.123  15.285  0.0091 -0.0573 -0.2577
 2609DOPS   D2B30614  22.871   2.815  14.900 -0.3659  0.0903 -0.1697
 2609DOPS   C3B30615  22.982   2.799  14.451 -0.0159 -0.0804  0.0269
 2609DOPS   C4B30616  22.853   2.499  14.121  0.0260  0.0695 -0.3519
 2610DOPC   NC330617  27.110   2.974  17.019  0.2187 -0.1101  0.1032
 2610DOPC   PO430618  26.721   2.925  16.860 -0.2278 -0.1461  0.2456
 2610DOPC   GL130619  26.810   2.942  16.517  0.0522 -0.0034  0.3524
 2610DOPC   GL230620  27.044   2.742  16.415 -0.0262 -0.0910  0.0261
 2610DOPC   C1A30621  26.714   2.810  16.073  0.1097 -0.1983 -0.0118
 2610DOPC   D2A30622  26.555   2.462  15.886 -0.2055  0.0495  0.0749
 2610DOPC   C3A30623  26.771   2.296  15.488  0.1628 -0.0123  0.1960
 2610DOPC   C4A30624  26.592   2.270  15.029  0.3422  0.0881  0.2491
 2610DOPC   C1B30625  27.431   2.830  16.220  0.1901  0.0580 -0.0210
 2610DOPC   D2B30626  27.552   2.996  15.821 -0.1453 -0.0793 -0.1173
 2610DOPC   C3B30627  27.941   3.100  15.685 -0.0164 -0.2752  0.2592
 2610DOPC   C4B30628  28.341   2.973  15.452 -0.0657 -0.0202  0.0486
 2611DOPE   NH330629  33.199   9.092  15.750 -0.0536  0.0159 -0.2853
 2611DOPE   PO430630  33.400   8.834  15.718 -0.1932 -0.1095 -0.2343
 2611DOPE   GL130631  33.569   8.839  15.339 -0.2751 -0.4335 -0.2945
 2611DOPE   GL230632  33.456   9.111  15.296 -0.1974 -0.0190 -0.0469
 2611DOPE   C1A30633  33.609   8.648  14.896 -0.0428 -0.1730 -0.0788
 2611DOPE   D2A30634  33.346   8.534  14.530  0.1795 -0.0715 -0.1258
 2611DOPE   C3A30635  33.277   8.778  14.126 -0.1372 -0.4109  0.2327
 2611DOPE   C4A30636  33.059   8.641  13.740  0.2044 -0.0619 -0.1720
 2611DOPE   C1B30637  33.643   9.147  14.850  0.1919  0.1755  0.0089
 2611DOPE   D2B30638  33.586   8.979  14.467  0.0081 -0.2823  0.1323
 2611DOPE   C3B30639  33.645   9.072  14.022 -0.2843  0.2734  0.1161
 2611DOPE   C4B30640  33.693   9.020  13.519  0.1199  0.3205 -0.3174
 2612POSM   NC330641  30.119   8.987  15.958  0.2414  0.1672  0.1715
 2612POSM   PO430642  30.111   9.352  15.824  0.0512 -0.0013 -0.0946
 2612POSM   AM130643  29.975   9.272  15.575 -0.4534  0.0120  0.3357
 2612POSM   AM230644  29.761   9.351  15.348 -0.3175 -0.0378 -0.5133
 2612POSM   T1A30645  29.887   8.840  15.280 -0.2226  0.1831 -0.4109
 2612POSM   C2A30646  29.926   8.395  15.094  0.1258 -0.0401  0.1192
 2612POSM   C3A30647  29.841   7.970  15.173  0.0292 -0.0442  0.0191
 2612POSM   C1B30648  29.876   9.333  15.054  0.1521  0.1074  0.1025
 2612POSM   D2B30649  29.874   9.326  14.667  0.1360 -0.1043 -0.1012
 2612POSM   C3B30650  29.811   9.805  14.538 -0.3572 -0.1791  0.0772
 2612POSM   C4B30651  29.906  10.093  14.279 -0.0385  0.1776  0.0720
 2613DOPE   NH330652  27.755   9.339  15.540  0.2943 -0.2368 -0.2141
 2613DOPE   PO430653  27.625   9.076  15.374 -0.0951  0.1213 -0.3416
 2613DOPE   GL130654  27.688   9.352  15.062  0.0606 -0.3395  0.2504
 2613DOPE   GL230655  27.470   9.345  14.930  0.1218  0.3211  0.0589
 2613DOPE   C1A30656  27.795   9.618  14.647 -0.2054  0.0236 -0.0736
 2613DOPE   D2A30657  27.757   9.851  14.290  0.1450 -0.0153 -0.0928
 2613DOPE   C3A30658  27.667   9.873  13.809  0.0901  0.0859 -0.3072
 2613DOPE   C4A30659  27.596   9.803  13.298  0.0338 -0.0069  0.1281
 2613DOPE   C1B30660  27.616   9.063  14.630  0.1716 -0.0889 -0.4911
 2613DOPE   D2B30661  27.497   9.044  14.145  0.1483  0.2635  0.2056
 2613DOPE   C3B30662  27.542   8.751  13.709 -0.0795  0.1131 -0.1258
 2613DOPE   C4B30663  27.926   8.562  13.556 -0.0225 -0.2026 -0.2800
 2614POSM   NC330664  30.314   8.970  15.485  0.1594  0.3353  0.1798
 2614POSM   PO430665  30.468   9.369  15.471  0.2855 -0.0512 -0.1617
 2614POSM   AM130666  30.651   9.430  15.179 -0.1217 -0.1543  0.3205
 2614POSM   AM230667  30.919   9.400  15.187  0.3022  0.2220  0.0128
 2614POSM   T1A30668  30.694   9.406  14.673 -0.0786 -0.1847  0.2616
 2614POSM   C2A30669  30.575   9.251  14.274 -0.0598  0.0060  0.2331
 2614POSM   C3A30670  30.360   9.269  13.823  0.2810 -0.3220 -0.0662
 2614POSM   C1B30671  31.084   9.250  14.949  0.2339 -0.1386  0.0404
 2614POSM   D2B30672  31.451   9.076  14.688 -0.0180  0.0142 -0.0814
 2614POSM   C3B30673  31.664   8.918  14.275  0.4217  0.0344  0.0806
 2614POSM   C4B30674  31.645   8.489  14.172  0.1940  0.4868  0.1869
 2615DOPC   NC330675  32.133   5.463  15.928  0.0187 -0.0234 -0.3029
 2615DOPC   PO430676  31.847   5.677  16.108 -0.0994 -0.1711 -0.1733
 2615DOPC   GL130677  31.607   5.598  15.748 -0.0991  0.0178 -0.1217
 2615DOPC   GL230678  31.520   5.264  15.698  0.0500  0.0926 -0.1448
 2615DOPC   C1A30679  31.529   5.716  15.344 -0.0597  0.0660  0.0626
 2615DOPC   D2A30680  31.752   5.539  14.979  0.1699 -0.1942 -0.1066
 2615DOPC   C3A30681  31.933   5.134  14.973  0.2136 -0.2060 -0.0211
 2615DOPC   C4A30682  32.140   4.799  15.132 -0.3672 -0.2997  0.1991
 2615DOPC   C1B30683  31.488   5.126  15.221  0.0162  0.0407  0.0119
 2615DOPC   D2B30684  31.510   4.865  14.826 -0.0881  0.0959 -0.1505
 2615DOPC   C3B30685  31.787   5.026  14.468  0.0141  0.2865 -0.0359
 2615DOPC   C4B30686  32.195   5.140  14.215  0.0507  0.0388 -0.0222
 2616DOPE   NH330687  30.320  10.144  15.886  0.2560  0.1348  0.1332
 2616DOPE   PO430688  30.627  10.228  15.820  0.0452  0.1066 -0.1518
 2616DOPE   GL130689  30.241  10.412  15.489 -0.1102 -0.2779 -0.1481
 2616DOPE   GL230690  30.211  10.211  15.257 -0.2094 -0.1229 -0.3541
 2616DOPE   C1A30691  29.868  10.606  15.294 -0.2267  0.0040  0.0138
 2616DOPE   D2A30692  29.484  10.633  15.069 -0.3850 -0.2980  0.2061
 2616DOPE   C3A30693  29.470  10.472  14.630 -0.2249 -0.0233 -0.2603
 2616DOPE   C4A30694  29.556  10.475  14.173 -0.0976 -0.5125  0.0159
 2616DOPE   C1B30695  29.964  10.273  14.838 -0.0578 -0.1084 -0.2300
 2616DOPE   D2B30696  29.918  10.565  14.476 -0.2219  0.0433 -0.2321
 2616DOPE   C3B30697  30.234  10.882  14.338 -0.0502  0.4049  0.2369
 2616DOPE   C4B30698  30.183  11.319  14.310  0.0966 -0.1950  0.2658
 2617POSM   NC330699  30.410   1.211  16.383 -0.0285  0.0501 -0.0337
 2617POSM   PO430700  30.538   0.887  16.528  0.0971 -0.2187  0.1098
 2617POSM   AM130701  30.531   0.761  16.255 -0.0540 -0.2453  0.1716
 2617POSM   AM230702  30.705   0.723  16.030 -0.3821 -0.1281 -0.0028
 2617POSM   T1A30703  30.317   0.345  16.116  0.0316  0.3376  0.1100
 2617POSM   C2A30704  30.228   0.085  15.754  0.1042 -0.3842 -0.2775
 2617POSM   C3A30705  30.139   0.037  15.233  0.3193 -0.1151  0.1427
 2617POSM   C1B30706  30.587   0.748  15.712 -0.3949  0.4127  0.1060
 2617POSM   D2B30707  30.389   0.986  15.322 -0.0177  0.0519 -0.3131
 2617POSM   C3B30708  30.167   1.333  15.065 -0.2081  0.1664 -0.3920
 2617POSM   C4B30709  30.299   1.573  14.638 -0.0030 -0.0806 -0.2034
 2618DOPE   NH330710  33.058   9.954  15.389  0.1782  0.2401  0.0204
 2618DOPE   PO430711  32.779   9.860  15.491  0.1510  0.2564 -0.0771
 2618DOPE   GL130712  32.559  10.097  15.191 -0.2638  0.1835 -0.2170
 2618DOPE   GL230713  32.776  10.182  14.997 -0.1714 -0.1967  0.0151
 2618DOPE   C1A30714  32.410   9.991  14.744  0.1487 -0.1707 -0.1053
 2618DOPE   D2A30715  32.262   9.800  14.284  0.2615 -0.1346  0.1256
 2618DOPE   C3A30716  32.492   9.928  13.869  0.3352  0.0714  0.0314
 2618DOPE   C4A30717  32.700  10.258  13.645 -0.1746 -0.1342  0.2309
 2618DOPE   C1B30718  32.677  10.372  14.591  0.1484 -0.0740 -0.0003
 2618DOPE   D2B30719  32.679  10.232  14.187  0.0194 -0.4601  0.0586
 2618DOPE   C3B30720  33.034  10.034  13.943 -0.0164  0.2058  0.0490
 2618DOPE   C4B30721  33.252   9.757  13.657  0.0628  0.2504 -0.2850
 2619DOPE   NH330722  24.155   3.965  15.975  0.1144  0.2284  0.1620
 2619DOPE   PO430723  24.166   4.042  15.647 -0.1159 -0.1486 -0.0562
 2619DOPE   GL130724  24.142   4.066  15.303  0.2998  0.2782 -0.2654
 2619DOPE   GL230725  24.374   3.839  15.246 -0.1482 -0.0677 -0.1202
 2619DOPE   C1A30726  24.425   4.361  15.058 -0.1583  0.0005  0.0719
 2619DOPE   D2A30727  24.510   4.515  14.572  0.3169  0.0852 -0.1388
 2619DOPE   C3A30728  24.233   4.303  14.295 -0.1405  0.2543 -0.1570
 2619DOPE   C4A30729  23.814   4.127  14.204 -0.1430 -0.1258 -0.1788
 2619DOPE   C1B30730  24.705   3.810  14.949 -0.0637  0.0832  0.1270
 2619DOPE   D2B30731  25.097   3.663  14.680 -0.3666 -0.0977  0.0170
 2619DOPE   C3B30732  24.869   3.493  14.299 -0.1201 -0.0514  0.4440
 2619DOPE   C4B30733  25.046   3.359  13.864  0.1919  0.2319  0.0552
 2620DOPE   NH330734  31.434   7.406  16.372  0.0206  0.0367  0.1886
 2620DOPE   PO430735  31.314   7.405  16.077  0.0594 -0.0750  0.0706
 2620DOPE   GL130736  31.296   7.277  15.668  0.1589 -0.0697  0.1126
 2620DOPE   GL230737  31.382   6.947  15.655 -0.1623  0.2924  0.2439
 2620DOPE   C1A30738  31.321   7.340  15.237  0.2106 -0.1341 -0.1809
 2620DOPE   D2A30739  31.475   7.281  14.803 -0.1432 -0.0676 -0.4770
 2620DOPE   C3A30740  31.046   7.417  14.558  0.1140 -0.0937  0.2268
 2620DOPE   C4A30741  30.684   7.662  14.603  0.2602 -0.1505  0.0692
 2620DOPE   C1B30742  31.380   6.878  15.167 -0.2257  0.2738  0.2528
 2620DOPE   D2B30743  31.595   6.807  14.762  0.0083  0.0178  0.2290
 2620DOPE   C3B30744  31.787   6.932  14.347  0.3835  0.1196  0.2044
 2620DOPE   C4B30745  31.791   7.088  13.934 -0.0889  0.2368  0.0701
 2621DOPE   NH330746  24.832   1.606  15.740 -0.0305 -0.0979  0.0026
 2621DOPE   PO430747  24.591   1.439  15.834 -0.0474 -0.0208  0.1095
 2621DOPE   GL130748  24.484   1.498  15.435 -0.0236  0.0511 -0.0940
 2621DOPE   GL230749  24.746   1.419  15.315 -0.1904 -0.2154  0.4757
 2621DOPE   C1A30750  24.289   1.158  15.127 -0.2696 -0.2118  0.0333
 2621DOPE   D2A30751  23.991   0.896  14.909 -0.2859 -0.0836 -0.2930
 2621DOPE   C3A30752  23.991   0.436  15.009 -0.3933 -0.5195  0.3223
 2621DOPE   C4A30753  23.981   0.074  15.210  0.1994 -0.0219 -0.1426
 2621DOPE   C1B30754  25.027   1.067  15.213 -0.1265  0.1032  0.1303
 2621DOPE   D2B30755  25.230   0.917  14.830 -0.3826 -0.3966 -0.0522
 2621DOPE   C3B30756  25.194   0.933  14.386 -0.0034 -0.3493  0.2406
 2621DOPE   C4B30757  24.954   0.822  14.044  0.2946 -0.1635  0.1644
 2622POSM   NC330758  32.771   2.387  16.074  0.3069  0.0247  0.3474
 2622POSM   PO430759  32.469   2.514  16.300  0.4004 -0.4242  0.0979
 2622POSM   AM130760  32.527   2.780  16.113 -0.0641  0.1811  0.1043
 2622POSM   AM230761  32.363   2.883  15.897  0.2705 -0.1949 -0.1996
 2622POSM   T1A30762  32.832   2.975  15.752 -0.0935 -0.0412  0.2200
 2622POSM   C2A30763  32.805   3.032  15.292  0.0882 -0.0605  0.1628
 2622POSM   C3A30764  32.665   2.993  14.829  0.2449 -0.2873  0.2403
 2622POSM   C1B30765  32.415   2.781  15.525  0.1028 -0.2212 -0.0934
 2622POSM   D2B30766  32.616   2.604  15.117  0.0424 -0.1646 -0.2819
 2622POSM   C3B30767  32.929   2.222  14.979  0.0715 -0.2061 -0.0116
 2622POSM   C4B30768  33.029   2.189  14.542 -0.1839 -0.1843  0.2050
 2623DOPE   NH330769  32.021   8.636  15.641  0.1319  0.2049  0.1456
 2623DOPE   PO430770  32.139   8.381  15.844  0.1068  0.0736  0.0325
 2623DOPE   GL130771  32.266   8.119  15.677  0.2269 -0.2412 -0.0726
 2623DOPE   GL230772  32.322   8.234  15.364 -0.3899  0.0368 -0.0712
 2623DOPE   C1A30773  32.063   7.868  15.370  0.0038 -0.0079 -0.0860
 2623DOPE   D2A30774  31.682   7.696  15.211  0.1197 -0.1327  0.0707
 2623DOPE   C3A30775  31.340   7.778  14.902 -0.2233 -0.1517 -0.0309
 2623DOPE   C4A30776  30.889   7.576  15.037  0.3073 -0.0503 -0.1036
 2623DOPE   C1B30777  32.294   8.589  15.022 -0.1107  0.1390  0.2457
 2623DOPE   D2B30778  32.428   8.666  14.597 -0.1168 -0.1040  0.3254
 2623DOPE   C3B30779  32.480   9.165  14.532  0.1776  0.3906  0.2606
 2623DOPE   C4B30780  32.693   9.509  14.317 -0.3020  0.1381 -0.3053
 2624DOPE   NH330781  32.474  11.265  15.976  0.2488 -0.0493  0.0224
 2624DOPE   PO430782  32.305  11.213  15.734 -0.0692 -0.3662  0.0986
 2624DOPE   GL130783  32.119  11.119  15.337 -0.1806  0.0790 -0.0101
 2624DOPE   GL230784  32.205  11.373  15.202  0.2177 -0.0521  0.0256
 2624DOPE   C1A30785  31.965  10.932  14.903  0.0079 -0.0254  0.0321
 2624DOPE   D2A30786  31.916  10.852  14.513 -0.3785  0.1300 -0.0567
 2624DOPE   C3A30787  31.723  11.027  14.139 -0.0601 -0.0166 -0.3189
 2624DOPE   C4A30788  31.759  11.364  13.884  0.4699  0.2293 -0.1032
 2624DOPE   C1B30789  32.371  11.429  14.814 -0.2849 -0.0276  0.0333
 2624DOPE   D2B30790  32.430  11.658  14.420 -0.0842 -0.3159 -0.0291
 2624DOPE   C3B30791  32.723  11.611  14.113 -0.0428  0.1816 -0.0630
 2624DOPE   C4B30792  33.179  11.509  14.212 -0.0787  0.1662  0.1579
 2625POSM   NC330793  31.394   4.739  16.589 -0.1490 -0.1146  0.0771
 2625POSM   PO430794  31.504   4.345  16.597  0.0772  0.1305  0.1595
 2625POSM   AM130795  31.575   4.409  16.259 -0.1083 -0.2081  0.1151
 2625POSM   AM230796  31.623   4.623  16.137  0.1804  0.1642 -0.0727
 2625POSM   T1A30797  31.742   4.156  15.827  0.0326 -0.0437  0.0412
 2625POSM   C2A30798  31.877   4.183  15.402 -0.1610  0.4872 -0.4823
 2625POSM   C3A30799  32.143   4.290  14.988  0.2915 -0.0586  0.1845
 2625POSM   C1B30800  31.672   4.650  15.839  0.0532  0.1143  0.3189
 2625POSM   D2B30801  31.697   4.708  15.377 -0.0084  0.0906 -0.0197
 2625POSM   C3B30802  31.626   4.411  14.982  0.1526 -0.1547 -0.3215
 2625POSM   C4B30803  31.843   4.481  14.617  0.0608  0.1379 -0.2628
 2626DOPC   NC330804  25.752   8.006  16.751  0.2772  0.0276  0.1218
 2626DOPC   PO430805  25.762   7.854  16.337 -0.0470  0.2885  0.0083
 2626DOPC   GL130806  25.733   7.873  16.037  0.2952 -0.1737  0.0999
 2626DOPC   GL230807  25.844   7.986  15.796  0.0238 -0.1379 -0.2405
 2626DOPC   C1A30808  25.790   7.484  15.732  0.0606 -0.2380 -0.1495
 2626DOPC   D2A30809  25.774   7.437  15.244 -0.2610 -0.2965 -0.1093
 2626DOPC   C3A30810  25.849   7.200  14.809  0.1100 -0.0600 -0.0045
 2626DOPC   C4A30811  25.808   6.934  14.476 -0.3430 -0.0886 -0.0853
 2626DOPC   C1B30812  25.940   7.925  15.386 -0.0063 -0.0749 -0.0436
 2626DOPC   D2B30813  26.267   7.720  15.119 -0.2316 -0.2276  0.5073
 2626DOPC   C3B30814  26.491   7.940  14.781 -0.3613  0.0713  0.0512
 2626DOPC   C4B30815  26.792   7.842  14.404  0.6087 -0.1979  0.3394
 2627DOPE   NH330816  25.026   3.215  16.077  0.0642 -0.0091 -0.0019
 2627DOPE   PO430817  25.125   3.052  15.830  0.0159 -0.0444 -0.0890
 2627DOPE   GL130818  25.107   3.046  15.459 -0.0865 -0.2037 -0.0203
 2627DOPE   GL230819  25.348   3.265  15.365  0.0838  0.0241  0.1064
 2627DOPE   C1A30820  25.248   2.755  15.182  0.0039  0.1469  0.0054
 2627DOPE   D2A30821  25.336   2.612  14.757 -0.0326 -0.0227 -0.2037
 2627DOPE   C3A30822  25.107   2.486  14.420  0.2299 -0.2461  0.0815
 2627DOPE   C4A30823  25.105   2.480  13.930  0.0133  0.2486 -0.0771
 2627DOPE   C1B30824  25.504   3.494  14.968  0.1548 -0.0015 -0.1443
 2627DOPE   D2B30825  25.642   3.604  14.531 -0.5142  0.1755 -0.2800
 2627DOPE   C3B30826  25.938   3.287  14.385 -0.0885  0.2829 -0.1176
 2627DOPE   C4B30827  26.405   3.271  14.364  0.3305  0.1092  0.0038
 2628DOPC   NC330828  33.466   5.511  15.644  0.1330  0.2545  0.2423
 2628DOPC   PO430829  33.828   5.561  15.797 -0.0322 -0.3172 -0.2496
 2628DOPC   GL130830  33.848   5.721  15.507  0.2821 -0.3403  0.3502
 2628DOPC   GL230831  33.884   5.494  15.320 -0.0355  0.0380  0.1882
 2628DOPC   C1A30832  33.488   5.851  15.236  0.1652 -0.1672 -0.1552
 2628DOPC   D2A30833  33.267   6.158  14.884  0.0708  0.0288  0.2661
 2628DOPC   C3A30834  33.385   6.031  14.467  0.0683  0.1306 -0.1030
 2628DOPC   C4A30835  33.609   5.898  14.130  0.1195  0.0003  0.2585
 2628DOPC   C1B30836  33.769   5.547  14.868  0.0881  0.2644 -0.0694
 2628DOPC   D2B30837  33.586   5.555  14.455  0.3648 -0.2807 -0.0397
 2628DOPC   C3B30838  33.680   5.391  14.060  0.1168 -0.0203  0.1499
 2628DOPC   C4B30839  34.043   5.247  14.003 -0.0617  0.0252  0.3050
 2629POSM   NC330840  24.787   0.261  15.712  0.1146  0.3424 -0.4093
 2629POSM   PO430841  24.510   0.559  15.819  0.1173  0.1311  0.2279
 2629POSM   AM130842  24.463   0.595  15.491  0.0883 -0.3886  0.2911
 2629POSM   AM230843  24.433   0.425  15.241  0.0044  0.3470 -0.0175
 2629POSM   T1A30844  24.658   0.841  15.048 -0.0476 -0.2777 -0.0128
 2629POSM   C2A30845  24.466   0.894  14.667  0.0941  0.1286 -0.0436
 2629POSM   C3A30846  24.487   1.158  14.359  0.2697  0.0229  0.2902
 2629POSM   C1B30847  24.632   0.179  15.092  0.1714  0.0691  0.0536
 2629POSM   D2B30848  24.773   0.004  14.646 -0.0155 -0.0261 -0.1003
 2629POSM   C3B30849  24.599   0.119  14.227  0.3138  0.0079 -0.1472
 2629POSM   C4B30850  24.722   0.009  13.824 -0.1172 -0.1671 -0.1652
 2630DOPE   NH330851  32.009   2.746  16.358  0.1758  0.0718  0.0663
 2630DOPE   PO430852  32.095   3.055  16.374 -0.0972  0.0953 -0.0500
 2630DOPE   GL130853  31.993   3.310  16.099  0.1721  0.1243 -0.2348
 2630DOPE   GL230854  32.340   3.323  16.017 -0.0861  0.1401  0.1985
 2630DOPE   C1A30855  31.659   3.263  15.765  0.5763  0.2514  0.2256
 2630DOPE   D2A30856  31.463   3.154  15.341  0.0392  0.2299 -0.0071
 2630DOPE   C3A30857  31.489   3.507  15.087 -0.3030  0.2305 -0.2399
 2630DOPE   C4A30858  31.712   3.493  14.657  0.3771 -0.1341  0.0212
 2630DOPE   C1B30859  32.491   3.614  15.646 -0.0903  0.1704  0.0357
 2630DOPE   D2B30860  32.250   3.815  15.268  0.2176 -0.2371 -0.2090
 2630DOPE   C3B30861  31.877   3.824  15.039  0.4536 -0.2074  0.1186
 2630DOPE   C4B30862  31.679   4.007  14.646  0.2106 -0.0164 -0.2534
 2631DOPE   NH330863  33.647   3.469  16.182  0.2298 -0.2182 -0.2868
 2631DOPE   PO430864  33.833   3.729  16.171  0.0776  0.1594 -0.0582
 2631DOPE   GL130865  33.611   3.790  15.888 -0.0512 -0.2920 -0.0405
 2631DOPE   GL230866  33.566   3.623  15.637  0.1268  0.0996 -0.0359
 2631DOPE   C1A30867  33.484   4.097  15.513 -0.0975  0.4881 -0.1086
 2631DOPE   D2A30868  33.608   4.540  15.359 -0.0723  0.3818  0.1475
 2631DOPE   C3A30869  34.041   4.571  15.192 -0.0333  0.1051 -0.0416
 2631DOPE   C4A30870  34.280   4.749  14.786 -0.1393 -0.0383 -0.3770
 2631DOPE   C1B30871  33.450   3.641  15.233  0.1311 -0.1546 -0.1095
 2631DOPE   D2B30872  33.154   3.759  14.878 -0.0131  0.1466 -0.1089
 2631DOPE   C3B30873  32.951   3.418  14.627  0.2533 -0.2808  0.0932
 2631DOPE   C4B30874  32.581   3.329  14.343 -0.0416  0.1708  0.0652
 2632POSM   NC330875  27.493   1.188  16.356 -0.0908  0.0304 -0.2043
 2632POSM   PO430876  27.141   1.348  16.367 -0.0880  0.3873  0.2760
 2632POSM   AM130877  27.091   1.392  16.039 -0.5377  0.0051  0.2803
 2632POSM   AM230878  27.213   1.209  15.892  0.1206 -0.0994 -0.0784
 2632POSM   T1A30879  27.046   1.615  15.586 -0.2358  0.5782  0.4296
 2632POSM   C2A30880  27.026   1.880  15.256 -0.2746  0.1046  0.2777
 2632POSM   C3A30881  26.922   1.895  14.824 -0.3015  0.1650 -0.0021
 2632POSM   C1B30882  27.383   1.218  15.648  0.3156 -0.1887 -0.1132
 2632POSM   D2B30883  27.503   1.113  15.240  0.0495 -0.1618  0.0234
 2632POSM   C3B30884  27.199   0.983  14.975  0.0299 -0.3681  0.1771
 2632POSM   C4B30885  26.872   0.877  14.769 -0.0575 -0.0919 -0.0799
 2633DOPS   CNO30886  30.861   1.583  16.861 -0.0895  0.0517  0.1798
 2633DOPS   PO430887  30.721   1.551  16.507  0.5899  0.2593 -0.3683
 2633DOPS   GL130888  31.013   1.638  16.232 -0.1175 -0.0434 -0.1404
 2633DOPS   GL230889  30.887   1.563  16.045 -0.1848  0.3939  0.0993
 2633DOPS   C1A30890  31.280   1.811  15.813  0.1622 -0.0026 -0.3015
 2633DOPS   D2A30891  31.220   1.972  15.353 -0.1351  0.2831 -0.3594
 2633DOPS   C3A30892  31.016   2.262  15.049 -0.0631  0.4530  0.0300
 2633DOPS   C4A30893  30.680   2.379  14.779 -0.0111  0.0135  0.1845
 2633DOPS   C1B30894  30.836   1.927  15.799 -0.0274 -0.0348  0.3668
 2633DOPS   D2B30895  30.703   2.105  15.389 -0.2425 -0.0705 -0.0739
 2633DOPS   C3B30896  30.325   2.304  15.088 -0.0625  0.4257 -0.1188
 2633DOPS   C4B30897  29.875   2.311  14.943  0.2171  0.1508  0.0347
 2634DOPC   NC330898  27.054  10.610  15.586  0.1561 -0.1125  0.2656
 2634DOPC   PO430899  26.898  10.248  15.497 -0.0222  0.0562  0.1207
 2634DOPC   GL130900  26.764  10.286  15.051 -0.2443 -0.3065 -0.2381
 2634DOPC   GL230901  26.562  10.417  15.058 -0.0633 -0.2962 -0.0361
 2634DOPC   C1A30902  26.951  10.216  14.678  0.0553  0.3410 -0.0078
 2634DOPC   D2A30903  26.785  10.209  14.273 -0.0989 -0.0845  0.0338
 2634DOPC   C3A30904  27.013  10.529  13.989  0.2272  0.1442 -0.2742
 2634DOPC   C4A30905  27.419  10.691  13.742  0.0538 -0.1324  0.1054
 2634DOPC   C1B30906  26.474  10.421  14.581  0.2798  0.1636 -0.1036
 2634DOPC   D2B30907  26.481  10.690  14.242 -0.2036 -0.1190  0.0248
 2634DOPC   C3B30908  26.417  11.124  14.338 -0.0711 -0.0451  0.0768
 2634DOPC   C4B30909  26.475  11.622  14.262 -0.0260  0.0799  0.0089
 2635POSM   NC330910  28.184   5.928  16.015 -0.0330 -0.1529  0.0315
 2635POSM   PO430911  28.460   5.672  16.009 -0.0971  0.1310 -0.1694
 2635POSM   AM130912  28.543   5.737  15.728  0.0396 -0.0922  0.5093
 2635POSM   AM230913  28.800   5.805  15.657  0.0287  0.2881 -0.1123
 2635POSM   T1A30914  28.643   5.473  15.319  0.2375  0.1971 -0.0831
 2635POSM   C2A30915  28.601   5.300  14.823 -0.1290  0.2533 -0.2796
 2635POSM   C3A30916  28.746   5.069  14.461 -0.0660 -0.0277 -0.0558
 2635POSM   C1B30917  28.963   5.919  15.384  0.3965  0.1960  0.0668
 2635POSM   D2B30918  29.005   5.772  14.914  0.0180 -0.2242 -0.2199
 2635POSM   C3B30919  29.156   5.539  14.540  0.0276 -0.2510 -0.4154
 2635POSM   C4B30920  29.125   5.263  14.203  0.0004  0.0081 -0.2806
 2636DOPE   NH330921  30.206   2.394  16.679  0.0104  0.1303 -0.0091
 2636DOPE   PO430922  30.081   2.083  16.665  0.1158 -0.1220  0.2622
 2636DOPE   GL130923  30.090   2.047  16.281  0.0336  0.1396  0.1045
 2636DOPE   GL230924  29.875   1.892  16.127  0.1825  0.2523 -0.1503
 2636DOPE   C1A30925  30.326   2.145  15.905 -0.2682 -0.0310  0.0753
 2636DOPE   D2A30926  30.431   2.443  15.570  0.1609 -0.0778 -0.0288
 2636DOPE   C3A30927  30.017   2.469  15.437 -0.0973 -0.0440  0.0414
 2636DOPE   C4A30928  29.550   2.329  15.375 -0.2464 -0.2506 -0.0321
 2636DOPE   C1B30929  29.536   1.677  15.936 -0.2320  0.2662  0.4892
 2636DOPE   D2B30930  29.365   1.522  15.495 -0.0856 -0.0001 -0.0817
 2636DOPE   C3B30931  29.279   1.602  15.073  0.2690  0.0290  0.2917
 2636DOPE   C4B30932  29.491   1.852  14.760 -0.1603 -0.0417 -0.1402
 2637DOPS   CNO30933  28.905   0.847  16.618 -0.3037 -0.0871 -0.0828
 2637DOPS   PO430934  28.577   0.717  16.408  0.2314 -0.3396 -0.3977
 2637DOPS   GL130935  28.889   0.579  16.136 -0.1586  0.1473 -0.1137
 2637DOPS   GL230936  28.974   0.906  16.095 -0.3854 -0.0671  0.0879
 2637DOPS   C1A30937  29.093   0.546  15.735  0.1090  0.1764 -0.0359
 2637DOPS   D2A30938  29.204   0.529  15.284 -0.3674 -0.0207  0.1183
 2637DOPS   C3A30939  29.547   0.681  14.992 -0.1740  0.1684  0.0593
 2637DOPS   C4A30940  29.941   0.729  14.795 -0.1183 -0.3170  0.3366
 2637DOPS   C1B30941  28.889   1.061  15.676  0.1420 -0.1516 -0.0003
 2637DOPS   D2B30942  28.505   1.362  15.570  0.1560  0.0213 -0.0427
 2637DOPS   C3B30943  28.479   1.773  15.323 -0.0708 -0.1914 -0.2222
 2637DOPS   C4B30944  28.548   2.143  15.087 -0.2787  0.2412  0.1822
 2638DOPS   CNO30945  28.871   9.797  16.169  0.1888  0.0261 -0.4793
 2638DOPS   PO430946  29.007   9.661  15.827  0.0848 -0.0316 -0.1910
 2638DOPS   GL130947  28.941   9.746  15.413  0.3836 -0.1259 -0.1626
 2638DOPS   GL230948  29.117   9.405  15.352  0.2928  0.0211  0.4355
 2638DOPS   C1A30949  28.964   9.709  14.945  0.0518 -0.2081 -0.0180
 2638DOPS   D2A30950  28.828   9.555  14.495 -0.0804  0.2911 -0.3764
 2638DOPS   C3A30951  28.773   9.476  14.101  0.1114  0.0396 -0.1299
 2638DOPS   C4A30952  28.611   9.528  13.704 -0.1281 -0.0896 -0.0146
 2638DOPS   C1B30953  29.379   9.399  14.979 -0.0994  0.0562 -0.0683
 2638DOPS   D2B30954  29.393   9.502  14.538 -0.0719 -0.1499 -0.1542
 2638DOPS   C3B30955  29.263   9.378  14.096  0.0581  0.3559 -0.0775
 2638DOPS   C4B30956  29.063   9.314  13.635 -0.1206 -0.1622 -0.0529
 2639DOPE   NH330957  34.238   0.534  17.030 -0.1381 -0.1445 -0.1927
 2639DOPE   PO430958  34.448   0.578  16.784 -0.0527  0.0346  0.1363
 2639DOPE   GL130959  34.342   0.376  16.339  0.3495 -0.1567 -0.2581
 2639DOPE   GL230960  34.040   0.313  16.349  0.1702  0.0080  0.1113
 2639DOPE   C1A30961  34.631   0.453  15.996 -0.0589  0.2909 -0.1923
 2639DOPE   D2A30962  34.787   0.551  15.540  0.0498  0.0079  0.0107
 2639DOPE   C3A30963  34.599   0.989  15.472  0.1572 -0.0125 -0.2595
 2639DOPE   C4A30964  34.583   1.368  15.200 -0.1222 -0.1344  0.4978
 2639DOPE   C1B30965  33.901   0.040  15.950 -0.1378 -0.0096 -0.0488
 2639DOPE   D2B30966  33.910  -0.283  15.585 -0.4142 -0.0845 -0.3135
 2639DOPE   C3B30967  33.926  -0.279  15.082 -0.1636  0.1384  0.0614
 2639DOPE   C4B30968  33.906  -0.497  14.677 -0.2422  0.0488  0.2580
 2640DOPC   NC330969  29.533   3.294  17.191 -0.1639  0.0753  0.0326
 2640DOPC   PO430970  29.865   3.203  17.020  0.0506  0.2995  0.1959
 2640DOPC   GL130971  29.961   3.148  16.525 -0.1228 -0.1619 -0.0346
 2640DOPC   GL230972  29.903   2.836  16.556 -0.1614 -0.1779 -0.0983
 2640DOPC   C1A30973  30.158   3.077  16.089  0.2377  0.0089  0.1626
 2640DOPC   D2A30974  30.030   2.857  15.719 -0.0591 -0.0671 -0.0634
 2640DOPC   C3A30975  29.632   2.872  15.564  0.1477  0.1266 -0.0636
 2640DOPC   C4A30976  29.213   2.666  15.444 -0.2394  0.0484 -0.0289
 2640DOPC   C1B30977  29.700   2.813  16.190  0.0522 -0.1368 -0.1669
 2640DOPC   D2B30978  29.281   2.660  15.940  0.0285  0.1429 -0.1127
 2640DOPC   C3B30979  29.313   2.237  16.036 -0.1620  0.2809 -0.0832
 2640DOPC   C4B30980  29.298   1.995  15.608  0.0192 -0.0870 -0.1429
 2641DOPS   CNO30981  33.938   6.084  15.796 -0.0664 -0.0304 -0.1899
 2641DOPS   PO430982  34.105   6.393  15.882 -0.0127 -0.0667  0.0345
 2641DOPS   GL130983  34.019   6.440  15.501 -0.0781 -0.0425  0.2311
 2641DOPS   GL230984  33.969   6.726  15.291 -0.0871  0.4358 -0.0529
 2641DOPS   C1A30985  33.966   6.044  15.249  0.1713  0.0906  0.2670
 2641DOPS   D2A30986  34.251   5.789  15.010  0.0881  0.3459  0.2395
 2641DOPS   C3A30987  34.334   5.711  14.556  0.2069  0.0543 -0.0432
 2641DOPS   C4A30988  34.272   5.779  14.150  0.0009 -0.2347  0.4206
 2641DOPS   C1B30989  34.010   6.740  14.823  0.0101  0.0766 -0.1608
 2641DOPS   D2B30990  33.978   7.070  14.545 -0.2552  0.2589 -0.1315
 2641DOPS   C3B30991  33.564   7.027  14.231 -0.0393 -0.2454 -0.1819
 2641DOPS   C4B30992  33.212   6.779  14.030  0.1499 -0.1429 -0.1550
 2642DOPE   NH330993  26.438  10.090  15.754 -0.1557  0.4435 -0.0735
 2642DOPE   PO430994  26.716   9.910  15.768  0.1798 -0.2745  0.0327
 2642DOPE   GL130995  26.669   9.840  15.435  0.3066  0.0178 -0.3099
 2642DOPE   GL230996  26.469   9.981  15.276 -0.0855 -0.1222  0.1504
 2642DOPE   C1A30997  26.784   9.819  14.981  0.0010 -0.2279 -0.0077
 2642DOPE   D2A30998  27.263   9.819  14.842 -0.0747 -0.2728 -0.0935
 2642DOPE   C3A30999  27.283   9.998  14.398  0.0153 -0.0671 -0.1278
 2642DOPE   C4A31000  27.498  10.314  14.142 -0.2742 -0.2303  0.0546
 2642DOPE   C1B31001  26.338   9.936  14.835  0.2436 -0.2376 -0.1306
 2642DOPE   D2B31002  26.389   9.935  14.391  0.1526 -0.2698  0.1032
 2642DOPE   C3B31003  26.295   9.629  14.087 -0.3317  0.0520 -0.0591
 2642DOPE   C4B31004  26.251   9.248  13.707  0.0433 -0.3783 -0.2424
 2643DOPE   NH331005  31.633   8.297  15.940  0.5527 -0.1860  0.2178
 2643DOPE   PO431006  31.785   8.037  15.871 -0.1096 -0.0866  0.1872
 2643DOPE   GL131007  31.689   8.180  15.476  0.1715 -0.1421 -0.2035
 2643DOPE   GL231008  31.419   8.111  15.455 -0.0737 -0.2212  0.1152
 2643DOPE   C1A31009  31.942   8.238  15.040  0.2756 -0.1817  0.5052
 2643DOPE   D2A31010  32.370   8.097  14.861  0.1528 -0.0572 -0.4699
 2643DOPE   C3A31011  32.360   7.800  14.534 -0.1153  0.0659  0.1148
 2643DOPE   C4A31012  32.187   7.915  14.174 -0.1634  0.0668 -0.1736
 2643DOPE   C1B31013  31.466   8.285  15.044 -0.1806 -0.0146 -0.0594
 2643DOPE   D2B31014  31.496   8.217  14.583  0.0376 -0.2463 -0.3761
 2643DOPE   C3B31015  31.662   7.821  14.424 -0.1118  0.3422  0.0923
 2643DOPE   C4B31016  31.892   7.407  14.345 -0.2099 -0.0238 -0.1787
 2644DOPE   NH331017  30.420   5.042  16.626  0.1335 -0.2818 -0.0755
 2644DOPE   PO431018  30.154   4.980  16.534 -0.0359 -0.2711 -0.2401
 2644DOPE   GL131019  30.314   4.885  16.187 -0.2059 -0.0007  0.2482
 2644DOPE   GL231020  30.360   5.141  15.943  0.1043 -0.0923 -0.0705
 2644DOPE   C1A31021  30.367   4.670  15.731 -0.2925 -0.2450 -0.0192
 2644DOPE   D2A31022  30.382   4.396  15.380  0.0763 -0.2525  0.0706
 2644DOPE   C3A31023  30.599   4.390  14.932 -0.4181  0.0304  0.0527
 2644DOPE   C4A31024  30.811   4.213  14.548 -0.2101  0.2350 -0.0538
 2644DOPE   C1B31025  30.210   5.342  15.569  0.1332 -0.0371 -0.0932
 2644DOPE   D2B31026  30.250   5.580  15.217 -0.0653 -0.3086  0.1020
 2644DOPE   C3B31027  30.630   5.419  14.937 -0.3885 -0.0304  0.2681
 2644DOPE   C4B31028  30.866   5.651  14.651 -0.0861 -0.2815  0.2112
 2645DOPC   NC331029  33.969  10.752  16.179 -0.2552  0.1438  0.1800
 2645DOPC   PO431030  33.583  10.773  16.129  0.0039 -0.0618  0.1198
 2645DOPC   GL131031  33.773  10.959  15.796 -0.2305  0.0216  0.3147
 2645DOPC   GL231032  33.568  10.882  15.628  0.2044 -0.2327 -0.0739
 2645DOPC   C1A31033  33.984  10.784  15.479 -0.2060  0.1653  0.0037
 2645DOPC   D2A31034  34.171  10.728  15.063 -0.1973  0.1517  0.0789
 2645DOPC   C3A31035  33.990  10.654  14.590 -0.0505 -0.1205 -0.0656
 2645DOPC   C4A31036  34.116  10.855  14.157 -0.0308 -0.0924 -0.3346
 2645DOPC   C1B31037  33.604  10.839  15.115 -0.2456  0.2525 -0.4138
 2645DOPC   D2B31038  33.485  10.886  14.616 -0.0129  0.0618  0.2008
 2645DOPC   C3B31039  33.815  11.184  14.392 -0.0252 -0.1415  0.0975
 2645DOPC   C4B31040  33.947  11.381  13.974 -0.2244  0.2840 -0.1358
 2646POSM   NC331041  25.467   6.288  16.551 -0.4008 -0.0054 -0.1605
 2646POSM   PO431042  25.299   6.310  16.203  0.2993 -0.2193  0.4484
 2646POSM   AM131043  25.413   6.161  15.917  0.2447 -0.4405  0.1169
 2646POSM   AM231044  25.251   6.187  15.675  0.2132  0.1193 -0.3091
 2646POSM   T1A31045  25.652   6.059  15.484  0.3291 -0.1303  0.1942
 2646POSM   C2A31046  25.623   6.056  15.029 -0.2739 -0.0233  0.0333
 2646POSM   C3A31047  25.432   6.061  14.582 -0.0544  0.3758 -0.4631
 2646POSM   C1B31048  25.160   6.091  15.364 -0.2456  0.2155 -0.2193
 2646POSM   D2B31049  25.105   5.763  15.001 -0.2144 -0.0531 -0.0815
 2646POSM   C3B31050  25.050   5.658  14.579  0.3595 -0.1801  0.1236
 2646POSM   C4B31051  24.688   5.754  14.218  0.1518  0.1026  0.1503
 2647POSM   NC331052  22.685  10.097  15.645 -0.1903  0.0922 -0.0832
 2647POSM   PO431053  22.707   9.719  15.496 -0.0306 -0.0494 -0.0633
 2647POSM   AM131054  22.774   9.687  15.177  0.1945  0.0931  0.2109
 2647POSM   AM231055  22.772   9.458  15.005 -0.1597  0.2652 -0.1215
 2647POSM   T1A31056  22.611   9.913  14.724  0.0273  0.0472 -0.0128
 2647POSM   C2A31057  22.745  10.162  14.351 -0.3599  0.0088 -0.0544
 2647POSM   C3A31058  23.180  10.290  14.254  0.0058 -0.0406 -0.0118
 2647POSM   C1B31059  22.894   9.437  14.638  0.0331  0.0565  0.2367
 2647POSM   D2B31060  23.104   9.382  14.253 -0.1535  0.0723  0.0013
 2647POSM   C3B31061  23.501   9.537  14.116 -0.2147  0.0960  0.1818
 2647POSM   C4B31062  23.914   9.680  14.068 -0.2445 -0.0376 -0.2359
 2648DOPC   NC331063  29.395   4.691  16.429 -0.0633  0.1690 -0.1335
 2648DOPC   PO431064  29.091   4.760  16.194  0.2693 -0.0696 -0.3501
 2648DOPC   GL131065  29.247   4.682  15.941 -0.0376 -0.1798  0.0151
 2648DOPC   GL231066  28.959   4.736  15.745 -0.0888 -0.0236  0.1850
 2648DOPC   C1A31067  29.257   4.237  15.705  0.4431 -0.0546  0.1200
 2648DOPC   D2A31068  29.441   4.066  15.269 -0.1370 -0.2910 -0.0792
 2648DOPC   C3A31069  29.288   3.673  15.063 -0.0414  0.2798  0.2901
 2648DOPC   C4A31070  28.962   3.336  15.009  0.2136  0.1894 -0.0057
 2648DOPC   C1B31071  28.907   4.984  15.344 -0.1960 -0.0347  0.2208
 2648DOPC   D2B31072  28.820   4.788  14.918  0.0214  0.1896  0.4160
 2648DOPC   C3B31073  28.977   4.635  14.553 -0.0043 -0.0862  0.0623
 2648DOPC   C4B31074  28.972   4.626  14.086 -0.1496 -0.3910 -0.2262
 2649DOPC   NC331075  31.238   4.949  16.071  0.1657 -0.2847 -0.0146
 2649DOPC   PO431076  31.286   5.215  16.368 -0.1433  0.3239 -0.1764
 2649DOPC   GL131077  31.126   5.355  15.984  0.0742  0.3289 -0.2914
 2649DOPC   GL231078  30.853   5.360  15.933  0.1259 -0.0016  0.0723
 2649DOPC   C1A31079  31.168   5.696  15.685  0.1509  0.0415  0.0082
 2649DOPC   D2A31080  31.410   6.061  15.686 -0.0929 -0.0716 -0.3799
 2649DOPC   C3A31081  31.844   6.119  15.511 -0.0018 -0.1645  0.2696
 2649DOPC   C4A31082  32.294   6.345  15.538 -0.0394  0.0811 -0.0383
 2649DOPC   C1B31083  30.692   5.200  15.555  0.1260 -0.0368 -0.2135
 2649DOPC   D2B31084  30.659   4.808  15.333 -0.2227  0.1810  0.0992
 2649DOPC   C3B31085  30.612   4.871  14.887  0.2862 -0.1269 -0.0113
 2649DOPC   C4B31086  30.665   5.167  14.478  0.1317  0.2117 -0.1343
 2650DOPS   CNO31087  24.130   8.044  16.010  0.2141  0.1671 -0.0437
 2650DOPS   PO431088  24.026   8.238  15.686  0.1642 -0.2420 -0.1866
 2650DOPS   GL131089  24.300   8.314  15.350 -0.3723 -0.1474 -0.4901
 2650DOPS   GL231090  24.106   8.156  15.205  0.1704  0.0041 -0.0052
 2650DOPS   C1A31091  24.629   8.607  15.114  0.4182  0.0326  0.2203
 2650DOPS   D2A31092  24.932   8.750  14.762  0.2340  0.1976 -0.0574
 2650DOPS   C3A31093  24.834   9.163  14.605 -0.0632  0.1650 -0.1465
 2650DOPS   C4A31094  24.570   9.509  14.493  0.2145 -0.0784  0.0975
 2650DOPS   C1B31095  24.456   8.168  14.902 -0.0200 -0.0351  0.0794
 2650DOPS   D2B31096  24.407   8.522  14.692  0.3904  0.0097  0.3181
 2650DOPS   C3B31097  24.664   8.692  14.322 -0.0646  0.0469  0.0024
 2650DOPS   C4B31098  24.959   8.390  14.068 -0.3016  0.1325 -0.0799
 2651DOPE   NH331099  31.090   1.253  16.459 -0.3022 -0.0374 -0.4527
 2651DOPE   PO431100  30.857   1.170  16.272 -0.1166 -0.1753  0.1177
 2651DOPE   GL131101  30.737   1.132  15.897 -0.0884  0.1435 -0.1969
 2651DOPE   GL231102  30.403   1.190  15.890 -0.1456 -0.2515 -0.0153
 2651DOPE   C1A31103  30.878   1.132  15.492  0.2059  0.2716  0.1031
 2651DOPE   D2A31104  30.761   1.167  15.030  0.1003  0.0148  0.0366
 2651DOPE   C3A31105  30.903   1.391  14.643 -0.1370  0.1176  0.1366
 2651DOPE   C4A31106  31.178   1.574  14.336 -0.2095  0.1973  0.1714
 2651DOPE   C1B31107  30.560   1.498  15.613  0.2880  0.0523 -0.3527
 2651DOPE   D2B31108  30.805   1.583  15.239 -0.0168 -0.1078  0.1264
 2651DOPE   C3B31109  30.638   1.890  14.905 -0.2305  0.0982 -0.0376
 2651DOPE   C4B31110  30.452   2.031  14.521 -0.0553  0.0021 -0.1566
 2652DOPS   CNO31111  32.536   5.224  16.045 -0.0587  0.1457  0.1013
 2652DOPS   PO431112  32.589   5.596  16.110 -0.1265  0.1310  0.0299
 2652DOPS   GL131113  32.540   5.589  15.646 -0.2164 -0.0291 -0.4129
 2652DOPS   GL231114  32.419   5.376  15.532  0.0832 -0.0572  0.3477
 2652DOPS   C1A31115  32.540   5.933  15.343 -0.1074 -0.1808 -0.2153
 2652DOPS   D2A31116  32.350   6.240  14.995 -0.0948 -0.2144 -0.1332
 2652DOPS   C3A31117  32.375   6.350  14.562 -0.0222 -0.0606 -0.1713
 2652DOPS   C4A31118  32.619   6.115  14.255  0.2555 -0.1021 -0.1850
 2652DOPS   C1B31119  32.537   4.940  15.545  0.1650  0.0427 -0.3491
 2652DOPS   D2B31120  32.701   4.607  15.362 -0.1930  0.0727  0.1214
 2652DOPS   C3B31121  32.603   4.690  14.951 -0.2623 -0.1734  0.0994
 2652DOPS   C4B31122  32.407   4.480  14.569 -0.0170 -0.3130 -0.0737
 2653DOPE   NH331123  34.125   1.561  12.715  0.1284 -0.2440 -0.2073
 2653DOPE   PO431124  34.397   1.456  12.704 -0.0332  0.1039 -0.0300
 2653DOPE   GL131125  34.603   1.269  12.935  0.1373 -0.1495  0.2612
 2653DOPE   GL231126  34.572   0.940  12.901  0.0354  0.0573  0.3799
 2653DOPE   C1A31127  34.634   1.142  13.400 -0.1649 -0.2268 -0.0544
 2653DOPE   D2A31128  34.890   1.247  13.769 -0.2850  0.0449 -0.2959
 2653DOPE   C3A31129  34.719   1.061  14.149  0.0224  0.0869 -0.0141
 2653DOPE   C4A31130  34.366   0.938  14.482  0.0299 -0.0681 -0.1514
 2653DOPE   C1B31131  34.971   1.129  12.753 -0.0072 -0.0592 -0.2509
 2653DOPE   D2B31132  35.419   1.186  12.656  0.0484 -0.1861  0.1148
 2653DOPE   C3B31133  35.675   1.447  12.825 -0.0094  0.0419  0.1965
 2653DOPE   C4B31134  36.024   1.212  13.000  0.0483  0.2622 -0.2459
 2654DOPS   CNO31135  26.276   4.267  12.222 -0.1277 -0.2882  0.0355
 2654DOPS   PO431136  26.039   4.042  12.412 -0.2623 -0.0863 -0.0065
 2654DOPS   GL131137  25.967   4.009  12.733 -0.3768 -0.0983 -0.2684
 2654DOPS   GL231138  25.685   3.855  12.697  0.1133 -0.2103  0.0113
 2654DOPS   C1A31139  26.129   4.093  13.105 -0.3742  0.1714  0.4237
 2654DOPS   D2A31140  26.167   3.973  13.527  0.2360  0.2250  0.3186
 2654DOPS   C3A31141  26.047   3.535  13.623  0.2297  0.2225 -0.1755
 2654DOPS   C4A31142  26.167   3.170  13.964 -0.2390 -0.0853  0.0815
 2654DOPS   C1B31143  25.690   3.653  13.171  0.1075  0.0859  0.1695
 2654DOPS   D2B31144  25.343   3.492  13.446  0.1816  0.0978  0.4296
 2654DOPS   C3B31145  24.862   3.416  13.346 -0.2132  0.3285  0.0801
 2654DOPS   C4B31146  24.423   3.234  13.292  0.2158 -0.2841  0.3379
 2655DOPE   NH331147  32.368   0.771  12.914 -0.1784 -0.0802 -0.0065
 2655DOPE   PO431148  32.322   1.073  12.739 -0.0778  0.4470  0.1058
 2655DOPE   GL131149  32.323   1.262  13.164  0.0053 -0.0988  0.2644
 2655DOPE   GL231150  32.085   1.469  13.075 -0.1590 -0.0022  0.0927
 2655DOPE   C1A31151  32.406   1.654  13.481  0.3834 -0.0484 -0.1461
 2655DOPE   D2A31152  32.675   1.795  13.825  0.0110  0.2276 -0.0046
 2655DOPE   C3A31153  32.440   1.892  14.209 -0.1638 -0.3442  0.5296
 2655DOPE   C4A31154  32.126   1.955  14.558 -0.1223  0.1828 -0.1398
 2655DOPE   C1B31155  32.192   1.902  13.039 -0.1204  0.2413 -0.2267
 2655DOPE   D2B31156  32.393   2.285  13.299  0.0294 -0.0215 -0.1080
 2655DOPE   C3B31157  32.397   2.209  13.757 -0.2667  0.0208  0.2683
 2655DOPE   C4B31158  32.687   2.305  14.143 -0.1623 -0.0383 -0.4423
 2656DOPE   NH331159  33.617   1.001  12.799 -0.1429  0.2947 -0.0273
 2656DOPE   PO431160  33.333   1.098  12.647 -0.0291  0.2101  0.3354
 2656DOPE   GL131161  33.405   1.478  12.767 -0.2993  0.0792 -0.0408
 2656DOPE   GL231162  33.637   1.533  12.970 -0.2071  0.3145 -0.0308
 2656DOPE   C1A31163  33.119   1.683  13.087  0.2927 -0.3503 -0.3356
 2656DOPE   D2A31164  32.891   2.067  13.171 -0.1194  0.1739  0.3409
 2656DOPE   C3A31165  32.932   2.177  13.641  0.3103  0.1025 -0.0273
 2656DOPE   C4A31166  33.184   2.104  13.992 -0.0227  0.3288 -0.0055
 2656DOPE   C1B31167  33.919   1.702  13.310 -0.3516  0.0797  0.1039
 2656DOPE   D2B31168  34.144   1.793  13.751  0.0178  0.2930 -0.0584
 2656DOPE   C3B31169  33.860   1.684  14.094  0.4100  0.1715 -0.1873
 2656DOPE   C4B31170  33.648   1.997  14.374  0.2054  0.0596 -0.1177
 2657DOPC   NC331171  33.875   1.998  12.869 -0.0188  0.3100 -0.3376
 2657DOPC   PO431172  33.557   1.971  12.633  0.1979  0.0047  0.0474
 2657DOPC   GL131173  33.305   2.131  12.971 -0.2744  0.3905 -0.2143
 2657DOPC   GL231174  33.306   2.417  12.843 -0.0796 -0.3706  0.1764
 2657DOPC   C1A31175  33.481   1.977  13.320  0.2259 -0.0409  0.2123
 2657DOPC   D2A31176  33.592   1.963  13.691  0.3117 -0.1998  0.1353
 2657DOPC   C3A31177  33.578   1.537  13.612  0.0017  0.0764 -0.1127
 2657DOPC   C4A31178  33.472   1.239  13.315  0.0654  0.0954  0.2122
 2657DOPC   C1B31179  33.307   2.425  13.286  0.3648  0.1656  0.3017
 2657DOPC   D2B31180  33.448   2.472  13.720 -0.1560  0.0962 -0.4929
 2657DOPC   C3B31181  33.480   2.862  13.904 -0.5133 -0.2092  0.1550
 2657DOPC   C4B31182  33.682   3.159  14.176 -0.2563  0.0323  0.0179
 2658DOPC   NC331183  25.081   7.789  12.495  0.1855  0.1949  0.3919
 2658DOPC   PO431184  24.976   8.157  12.479 -0.3232  0.3880 -0.2053
 2658DOPC   GL131185  25.298   8.112  12.755 -0.0310 -0.1249  0.0764
 2658DOPC   GL231186  25.450   8.298  12.800  0.0207  0.1894  0.1105
 2658DOPC   C1A31187  25.565   7.789  13.049 -0.0420 -0.0834  0.1277
 2658DOPC   D2A31188  25.889   7.734  13.369 -0.1271  0.2269  0.0457
 2658DOPC   C3A31189  25.811   8.021  13.697 -0.1130 -0.2238 -0.0690
 2658DOPC   C4A31190  25.778   8.118  14.126 -0.0578  0.0005 -0.0186
 2658DOPC   C1B31191  25.430   8.231  13.246  0.0932  0.2121  0.0393
 2658DOPC   D2B31192  25.369   7.803  13.548  0.2186  0.4538  0.1315
 2658DOPC   C3B31193  25.282   7.444  13.288  0.0323 -0.2238  0.1658
 2658DOPC   C4B31194  25.183   7.409  12.825  0.0910 -0.1499 -0.1651
 2659DOPE   NH331195  23.769   7.901  12.566 -0.1836  0.0152  0.0870
 2659DOPE   PO431196  23.605   7.992  12.343 -0.2116  0.2861 -0.1403
 2659DOPE   GL131197  23.209   7.980  12.546  0.1728  0.2833  0.4177
 2659DOPE   GL231198  23.340   8.222  12.693  0.2014 -0.1824  0.1905
 2659DOPE   C1A31199  22.842   7.978  12.802  0.1187  0.0064  0.0168
 2659DOPE   D2A31200  22.457   7.848  13.071 -0.2806  0.2098  0.0196
 2659DOPE   C3A31201  22.192   8.042  13.354  0.0411 -0.0519 -0.0303
 2659DOPE   C4A31202  21.968   8.366  13.599  0.1285 -0.1693  0.2415
 2659DOPE   C1B31203  23.179   8.024  13.093 -0.4373  0.1949 -0.1462
 2659DOPE   D2B31204  22.914   8.018  13.485 -0.0558  0.0045  0.0007
 2659DOPE   C3B31205  22.909   8.409  13.654  0.0350  0.0528  0.0498
 2659DOPE   C4B31206  22.778   8.788  13.928 -0.0749  0.2280 -0.2180
 2660DOPE   NH331207  34.357  10.140  12.403  0.2730  0.2833 -0.1950
 2660DOPE   PO431208  34.363   9.873  12.226 -0.2143 -0.2913 -0.3430
 2660DOPE   GL131209  34.517   9.570  12.423 -0.0897 -0.0333 -0.2424
 2660DOPE   GL231210  34.332   9.630  12.660  0.1792 -0.1659 -0.2794
 2660DOPE   C1A31211  34.742   9.222  12.579 -0.2038  0.2216 -0.0800
 2660DOPE   D2A31212  34.847   8.910  12.916  0.1386 -0.1269 -0.1439
 2660DOPE   C3A31213  35.082   9.155  13.217  0.1868 -0.2123 -0.3327
 2660DOPE   C4A31214  35.186   9.519  13.411 -0.0143 -0.1711 -0.1309
 2660DOPE   C1B31215  34.030   9.710  12.996  0.1948 -0.0631  0.2002
 2660DOPE   D2B31216  33.733   9.746  13.333 -0.0044  0.0947  0.2670
 2660DOPE   C3B31217  33.938   9.883  13.718 -0.0205  0.0089  0.0685
 2660DOPE   C4B31218  34.250   9.891  14.047  0.0744  0.2676 -0.0707
 2661DOPE   NH331219  30.448   5.591  12.712  0.0728  0.2449 -0.0182
 2661DOPE   PO431220  30.343   5.283  12.794  0.0614  0.0952 -0.1267
 2661DOPE   GL131221  30.037   5.380  13.049  0.1359 -0.2229 -0.2530
 2661DOPE   GL231222  30.032   5.259  13.358 -0.4537  0.2652 -0.1139
 2661DOPE   C1A31223  29.745   5.648  13.363 -0.1491  0.0099 -0.2845
 2661DOPE   D2A31224  29.750   5.836  13.822 -0.2808  0.2523  0.0381
 2661DOPE   C3A31225  30.011   6.181  13.885 -0.2814  0.2028  0.0396
 2661DOPE   C4A31226  30.108   6.529  14.186 -0.3050 -0.1580  0.2266
 2661DOPE   C1B31227  30.258   5.197  13.787 -0.0289  0.4884  0.1300
 2661DOPE   D2B31228  30.548   5.292  14.034 -0.0155 -0.2513 -0.0546
 2661DOPE   C3B31229  30.600   5.733  14.274  0.0628  0.1186 -0.1540
 2661DOPE   C4B31230  30.410   6.170  14.253 -0.2049 -0.2423 -0.7116
 2662POSM   NC331231  23.929   8.800  12.270  0.0520 -0.0401  0.2448
 2662POSM   PO431232  23.788   8.465  12.384 -0.3389 -0.2678 -0.1605
 2662POSM   AM131233  24.001   8.438  12.663  0.0599  0.0618  0.4357
 2662POSM   AM231234  23.947   8.308  12.906  0.2746 -0.0314 -0.1494
 2662POSM   T1A31235  24.422   8.431  12.949 -0.0323  0.0884 -0.1412
 2662POSM   C2A31236  24.882   8.277  12.948 -0.3273  0.0703  0.2304
 2662POSM   C3A31237  25.034   7.881  13.095 -0.1035 -0.1812  0.0103
 2662POSM   C1B31238  24.023   8.231  13.196  0.1688 -0.0097  0.0614
 2662POSM   D2B31239  24.174   8.243  13.651 -0.0957 -0.1831  0.3358
 2662POSM   C3B31240  24.615   8.433  13.673  0.2729  0.1450 -0.2398
 2662POSM   C4B31241  25.047   8.410  13.518 -0.0722  0.4334 -0.2231
 2663DOPE   NH331242  27.707   7.280  12.657 -0.0024 -0.2537  0.0412
 2663DOPE   PO431243  27.417   7.131  12.535  0.0001 -0.0261  0.1483
 2663DOPE   GL131244  27.224   7.168  12.883 -0.1591  0.0978  0.0652
 2663DOPE   GL231245  27.033   7.411  12.839 -0.1323 -0.1167  0.3607
 2663DOPE   C1A31246  27.549   7.143  13.189  0.2980 -0.0954  0.0433
 2663DOPE   D2A31247  27.953   7.360  13.193 -0.0253 -0.0433 -0.1861
 2663DOPE   C3A31248  27.944   7.798  13.347  0.0076  0.1679  0.0272
 2663DOPE   C4A31249  28.042   7.871  13.800 -0.2329 -0.2205 -0.0004
 2663DOPE   C1B31250  27.080   7.313  13.293  0.0149  0.1040  0.0933
 2663DOPE   D2B31251  26.784   7.064  13.520 -0.0010 -0.1581  0.1469
 2663DOPE   C3B31252  27.040   7.337  13.820 -0.3226  0.1221  0.1401
 2663DOPE   C4B31253  27.401   7.463  14.099 -0.1996  0.1280 -0.0548
 2664POSM   NC331254  30.976   7.102  12.169  0.3103  0.1874 -0.4393
 2664POSM   PO431255  30.663   7.042  12.445 -0.0271  0.0152 -0.1551
 2664POSM   AM131256  30.820   7.201  12.710  0.2201  0.0158 -0.1389
 2664POSM   AM231257  31.035   7.187  12.935  0.0413 -0.1438 -0.3265
 2664POSM   T1A31258  30.756   7.569  13.074 -0.1471  0.2157 -0.0593
 2664POSM   C2A31259  30.679   7.862  13.416  0.0966  0.5147 -0.2136
 2664POSM   C3A31260  30.440   8.216  13.479 -0.0866 -0.1744  0.3264
 2664POSM   C1B31261  31.277   7.341  13.052 -0.0944  0.0501  0.0767
 2664POSM   D2B31262  31.634   7.319  13.392 -0.0882 -0.2079 -0.0476
 2664POSM   C3B31263  31.544   7.491  13.830 -0.0253  0.2435  0.1632
 2664POSM   C4B31264  31.397   7.280  14.221  0.0604  0.0102  0.2601
 2665POSM   NC331265  23.411  34.471  12.457 -0.1460 -0.3702  0.0609
 2665POSM   PO431266  23.503  34.665  12.144  0.4670  0.0261  0.1976
 2665POSM   AM131267  23.682  34.883  12.307 -0.0650 -0.2819 -0.2628
 2665POSM   AM231268  23.800  34.991  12.559 -0.3377 -0.1598  0.1728
 2665POSM   T1A31269  24.048  35.221  12.268  0.1885 -0.4199 -0.1034
 2665POSM   C2A31270  24.456  35.406  12.329 -0.1233  0.3667 -0.1840
 2665POSM   C3A31271  24.620  35.820  12.517 -0.1110  0.0628  0.0446
 2665POSM   C1B31272  23.936  35.236  12.780 -0.2871  0.0385  0.2616
 2665POSM   D2B31273  24.167  35.556  12.886 -0.0136 -0.0406 -0.1098
 2665POSM   C3B31274  23.964  35.806  13.185 -0.3045 -0.0237  0.1772
 2665POSM   C4B31275  23.733  35.698  13.566 -0.3031 -0.1327 -0.0047
 2666DOPC   NC331276  33.210  10.450  11.656  0.1869 -0.2115 -0.1081
 2666DOPC   PO431277  33.562  10.349  11.578 -0.1363 -0.1856 -0.0523
 2666DOPC   GL131278  33.372  10.012  11.857  0.0191 -0.2547 -0.1458
 2666DOPC   GL231279  33.127   9.907  11.707 -0.2558  0.3070  0.0023
 2666DOPC   C1A31280  33.426   9.911  12.328  0.1091 -0.0533  0.3381
 2666DOPC   D2A31281  33.867  10.058  12.506  0.1372 -0.2626 -0.2286
 2666DOPC   C3A31282  33.769  10.159  12.944  0.1408  0.1896 -0.0159
 2666DOPC   C4A31283  33.773  10.284  13.421  0.2275  0.0678  0.0620
 2666DOPC   C1B31284  32.877   9.480  11.732 -0.0190  0.2377 -0.1114
 2666DOPC   D2B31285  32.746   9.274  12.104  0.2537  0.1697  0.0947
 2666DOPC   C3B31286  32.417   8.943  11.945  0.0901  0.3484  0.0591
 2666DOPC   C4B31287  32.077   8.834  11.645  0.3194  0.2007 -0.1126
 2667DOPC   NC331288  31.259   7.824  12.199 -0.2690  0.0297  0.0465
 2667DOPC   PO431289  31.093   7.587  11.938  0.0760 -0.0560  0.0768
 2667DOPC   GL131290  30.838   7.922  11.974  0.0868 -0.0412 -0.0933
 2667DOPC   GL231291  30.780   7.923  11.685  0.0457 -0.0379  0.2356
 2667DOPC   C1A31292  30.970   8.306  12.142 -0.0244  0.0624 -0.1751
 2667DOPC   D2A31293  31.153   8.696  12.340  0.2633  0.3279 -0.1192
 2667DOPC   C3A31294  31.469   9.027  12.092  0.2848 -0.2432 -0.0710
 2667DOPC   C4A31295  31.976   9.120  12.057  0.1436  0.2564 -0.2757
 2667DOPC   C1B31296  30.928   8.324  11.626  0.0717  0.1902 -0.0674
 2667DOPC   D2B31297  31.172   8.678  11.809  0.1430 -0.0582 -0.1844
 2667DOPC   C3B31298  30.799   8.944  11.814  0.0074  0.0115 -0.0801
 2667DOPC   C4B31299  30.397   9.183  11.638 -0.1523 -0.0949 -0.1530
 2668DOPC   NC331300  27.011   4.481  12.458  0.1048  0.0601  0.1859
 2668DOPC   PO431301  27.253   4.714  12.308  0.0736  0.0207 -0.1411
 2668DOPC   GL131302  27.471   4.964  12.614 -0.3707  0.0084  0.0655
 2668DOPC   GL231303  27.604   5.124  12.413  0.0449 -0.2760 -0.0574
 2668DOPC   C1A31304  27.702   5.018  13.005 -0.0930  0.0294  0.1811
 2668DOPC   D2A31305  27.802   5.099  13.450  0.1841  0.2345  0.3522
 2668DOPC   C3A31306  28.153   5.086  13.656 -0.1410  0.0777 -0.0802
 2668DOPC   C4A31307  28.466   4.792  13.962  0.3435  0.0154  0.0804
 2668DOPC   C1B31308  28.069   5.231  12.296 -0.1675  0.0606  0.2475
 2668DOPC   D2B31309  28.494   5.108  12.405 -0.0679 -0.0095  0.2039
 2668DOPC   C3B31310  28.547   4.782  12.760 -0.1701 -0.1675  0.3452
 2668DOPC   C4B31311  28.845   4.491  12.922 -0.0522 -0.1358 -0.1162
 2669DOPE   NH331312  30.588   0.640  12.798 -0.0329 -0.2009  0.2028
 2669DOPE   PO431313  30.426   0.900  12.764  0.0857 -0.1949 -0.0059
 2669DOPE   GL131314  30.284   1.159  12.965 -0.4165 -0.1157 -0.0234
 2669DOPE   GL231315  30.031   1.241  12.840  0.1985  0.1859 -0.1003
 2669DOPE   C1A31316  30.024   1.221  13.345  0.1958  0.1357 -0.0844
 2669DOPE   D2A31317  29.814   1.335  13.766 -0.1246  0.2352  0.1970
 2669DOPE   C3A31318  29.632   1.248  14.179  0.1211  0.0625 -0.0375
 2669DOPE   C4A31319  29.793   1.222  14.647  0.0443  0.2134  0.2849
 2669DOPE   C1B31320  29.998   1.664  13.109  0.0481 -0.3799 -0.3374
 2669DOPE   D2B31321  30.034   1.729  13.565  0.0598 -0.0578 -0.0407
 2669DOPE   C3B31322  29.698   1.800  13.845 -0.1533 -0.0374 -0.2990
 2669DOPE   C4B31323  29.597   1.745  14.255  0.1052  0.1198  0.5587
 2670POSM   NC331324  29.885  34.692  12.528 -0.0344  0.0264  0.0246
 2670POSM   PO431325  29.751  34.765  12.872  0.1418 -0.0366  0.1743
 2670POSM   AM131326  29.590  34.819  13.171  0.2211  0.1929  0.1566
 2670POSM   AM231327  29.520  35.062  13.289 -0.1311  0.2987  0.0900
 2670POSM   T1A31328  29.600  34.550  13.628 -0.3217 -0.0524 -0.1775
 2670POSM   C2A31329  29.515  34.208  13.893  0.0945 -0.0021 -0.1795
 2670POSM   C3A31330  29.509  34.079  14.343  0.0915 -0.3413  0.2344
 2670POSM   C1B31331  29.721  35.051  13.582 -0.2376  0.2079  0.2112
 2670POSM   D2B31332  30.011  34.956  13.902  0.1475  0.1442 -0.1705
 2670POSM   C3B31333  30.179  34.763  14.255 -0.1340  0.0223  0.1967
 2670POSM   C4B31334  30.162  34.789  14.742 -0.0791  0.0229 -0.1330
 2671DOPE   NH331335  24.441   9.228  12.232  0.1185  0.3713  0.3226
 2671DOPE   PO431336  24.426   8.918  12.320  0.1282 -0.1370  0.1792
 2671DOPE   GL131337  24.388   8.847  12.736  0.1318 -0.2429  0.1197
 2671DOPE   GL231338  24.086   8.893  12.769 -0.2222  0.1428 -0.0479
 2671DOPE   C1A31339  24.522   8.831  13.189 -0.0498 -0.0486  0.3358
 2671DOPE   D2A31340  24.429   8.887  13.649  0.4152  0.2769 -0.2234
 2671DOPE   C3A31341  24.835   8.862  13.866  0.0617  0.0524  0.1277
 2671DOPE   C4A31342  25.257   8.942  14.133  0.0050 -0.2114 -0.1617
 2671DOPE   C1B31343  23.958   8.705  13.164  0.2525  0.0094 -0.0391
 2671DOPE   D2B31344  23.563   8.900  13.405  0.0783 -0.0543  0.0970
 2671DOPE   C3B31345  23.590   9.234  13.731  0.2733 -0.1694  0.0349
 2671DOPE   C4B31346  23.915   9.162  14.063  0.1808  0.0824 -0.3484
 2672DOPC   NC331347  32.215   0.429  12.548  0.2229  0.1134 -0.2467
 2672DOPC   PO431348  32.405   0.242  12.841 -0.0865  0.0603  0.0292
 2672DOPC   GL131349  32.528   0.408  13.231 -0.1880 -0.0934 -0.0089
 2672DOPC   GL231350  32.738   0.527  13.278  0.0474 -0.2667 -0.0675
 2672DOPC   C1A31351  32.468   0.212  13.645 -0.2444 -0.2858  0.0703
 2672DOPC   D2A31352  32.230   0.176  13.996  0.0265  0.1443 -0.0065
 2672DOPC   C3A31353  31.932  -0.150  14.178 -0.1353  0.0320 -0.0305
 2672DOPC   C4A31354  31.872  -0.578  14.377  0.2071 -0.1816  0.0290
 2672DOPC   C1B31355  32.683   0.649  13.718 -0.1738 -0.4048  0.0046
 2672DOPC   D2B31356  32.819   0.823  14.131 -0.1045 -0.5600 -0.1553
 2672DOPC   C3B31357  33.042   0.698  14.542 -0.0108  0.3018 -0.1511
 2672DOPC   C4B31358  33.368   0.643  14.875 -0.1324  0.2980 -0.2325
 2673POSM   NC331359  31.191   0.141  12.931  0.3539 -0.1915 -0.2333
 2673POSM   PO431360  31.029   0.510  12.940  0.1028 -0.1383  0.1741
 2673POSM   AM131361  30.799   0.542  13.217  0.1744 -0.0625  0.5021
 2673POSM   AM231362  30.550   0.432  13.279  0.2952 -0.2189  0.1815
 2673POSM   T1A31363  30.841   0.491  13.741  0.1655 -0.0242 -0.1339
 2673POSM   C2A31364  30.968   0.113  13.983  0.2859  0.1456  0.1485
 2673POSM   C3A31365  31.141   0.039  14.370 -0.1532  0.0495 -0.3892
 2673POSM   C1B31366  30.350   0.518  13.561  0.0489  0.2391  0.0083
 2673POSM   D2B31367  29.949   0.848  13.711 -0.1426 -0.1969  0.0305
 2673POSM   C3B31368  29.909   0.815  14.165  0.0338 -0.0590  0.1813
 2673POSM   C4B31369  30.259   0.634  14.437  0.2553  0.0375  0.0188
 2674DOPE   NH331370  32.093   5.068  12.435  0.1301 -0.1108  0.0627
 2674DOPE   PO431371  31.811   5.183  12.318 -0.1285 -0.0865  0.1302
 2674DOPE   GL131372  31.846   5.590  12.486 -0.0680  0.1362 -0.0061
 2674DOPE   GL231373  32.135   5.658  12.453 -0.2226  0.1756  0.2613
 2674DOPE   C1A31374  31.781   6.016  12.672  0.0888  0.1601  0.1079
 2674DOPE   D2A31375  31.927   6.384  12.897  0.1413 -0.0285  0.1169
 2674DOPE   C3A31376  31.577   6.481  13.237 -0.2263 -0.0320 -0.1145
 2674DOPE   C4A31377  31.640   6.833  13.532 -0.0205 -0.1098  0.1499
 2674DOPE   C1B31378  32.180   5.863  12.878 -0.1588  0.1598 -0.3495
 2674DOPE   D2B31379  31.992   6.021  13.236 -0.0566 -0.0446 -0.2719
 2674DOPE   C3B31380  32.117   5.958  13.685 -0.2726 -0.0913  0.1479
 2674DOPE   C4B31381  32.170   5.907  14.129  0.2382  0.2501  0.1514
 2675DOPE   NH331382  23.312   4.416  12.538 -0.1578  0.1730  0.0976
 2675DOPE   PO431383  23.067   4.208  12.597 -0.0543 -0.2300 -0.0377
 2675DOPE   GL131384  22.973   4.345  12.959 -0.0323 -0.1234 -0.2348
 2675DOPE   GL231385  23.194   4.602  13.024  0.3718  0.0644  0.1398
 2675DOPE   C1A31386  23.080   4.351  13.434 -0.2489 -0.1088  0.0909
 2675DOPE   D2A31387  23.231   4.766  13.663 -0.0801  0.0807 -0.0222
 2675DOPE   C3A31388  23.346   5.093  13.344 -0.0663 -0.1041  0.1098
 2675DOPE   C4A31389  23.431   5.310  12.908 -0.1675 -0.2009  0.1722
 2675DOPE   C1B31390  23.565   4.800  12.878  0.1084  0.1520  0.1618
 2675DOPE   D2B31391  23.741   4.895  12.378 -0.1957  0.1241  0.2637
 2675DOPE   C3B31392  24.049   4.692  12.104  0.1410  0.1664 -0.0758
 2675DOPE   C4B31393  24.448   4.443  12.112  0.0148 -0.1754 -0.2615
 2676DOPC   NC331394  28.031   7.169  12.321  0.1967  0.0185 -0.0906
 2676DOPC   PO431395  28.391   7.009  12.313 -0.0420  0.0006 -0.2896
 2676DOPC   GL131396  28.340   6.799  12.680  0.0318 -0.1377 -0.2038
 2676DOPC   GL231397  28.215   7.055  12.893 -0.1349 -0.1563 -0.0624
 2676DOPC   C1A31398  28.595   6.579  12.979 -0.0121 -0.1656 -0.1871
 2676DOPC   D2A31399  28.470   6.476  13.388 -0.0942 -0.2024 -0.0940
 2676DOPC   C3A31400  28.060   6.398  13.609 -0.0909 -0.0458  0.1348
 2676DOPC   C4A31401  27.687   6.666  13.690 -0.2289 -0.0881  0.1656
 2676DOPC   C1B31402  28.134   6.847  13.277 -0.2262  0.0683  0.1145
 2676DOPC   D2B31403  28.138   6.900  13.738 -0.3324  0.1141 -0.0108
 2676DOPC   C3B31404  28.264   6.760  14.155  0.0435 -0.1491 -0.0267
 2676DOPC   C4B31405  28.215   6.628  14.611  0.2681 -0.1306  0.4811
 2677DOPE   NH331406  24.440   8.409  12.371 -0.2049  0.0372  0.2401
 2677DOPE   PO431407  24.226   8.160  12.372 -0.0595 -0.0432 -0.1157
 2677DOPE   GL131408  24.225   8.038  12.763  0.0262 -0.0421  0.1400
 2677DOPE   GL231409  24.480   7.910  12.738 -0.5111  0.1178 -0.3049
 2677DOPE   C1A31410  24.394   7.910  13.232  0.0159  0.2745  0.0130
 2677DOPE   D2A31411  24.658   7.920  13.611  0.2259 -0.1309  0.0601
 2677DOPE   C3A31412  24.890   7.783  14.016 -0.2151  0.1085 -0.3040
 2677DOPE   C4A31413  25.155   7.493  14.275 -0.0305 -0.0136  0.0964
 2677DOPE   C1B31414  24.707   7.542  12.965 -0.3307 -0.0864 -0.0652
 2677DOPE   D2B31415  24.804   7.501  13.408 -0.2638  0.0695 -0.1611
 2677DOPE   C3B31416  24.406   7.506  13.631  0.2615 -0.1382 -0.0194
 2677DOPE   C4B31417  24.014   7.610  13.543  0.2305  0.4431  0.0820
 2678POSM   NC331418  31.597   5.283  12.754  0.0723 -0.1718 -0.0636
 2678POSM   PO431419  31.229   5.406  12.815 -0.2628  0.2187  0.2240
 2678POSM   AM131420  31.351   5.511  13.087  0.0756 -0.3345  0.1094
 2678POSM   AM231421  31.556   5.427  13.224  0.0228  0.1096  0.2426
 2678POSM   T1A31422  31.183   5.535  13.565 -0.1960  0.1432  0.0678
 2678POSM   C2A31423  30.767   5.732  13.735  0.5147  0.0806 -0.1040
 2678POSM   C3A31424  30.456   6.078  13.691 -0.0403  0.1896 -0.2188
 2678POSM   C1B31425  31.878   5.519  13.196 -0.0363 -0.3635  0.0533
 2678POSM   D2B31426  32.315   5.563  13.346 -0.0961  0.5169 -0.0440
 2678POSM   C3B31427  32.195   5.442  13.768  0.0512 -0.1353  0.3622
 2678POSM   C4B31428  32.557   5.457  14.111  0.1664 -0.1593 -0.1675
 2679DOPC   NC331429  31.824   7.144  12.249  0.0207  0.0730  0.2811
 2679DOPC   PO431430  31.540   7.367  12.072 -0.0535 -0.1841  0.3292
 2679DOPC   GL131431  31.787   7.758  12.177 -0.0147 -0.0193  0.3592
 2679DOPC   GL231432  31.708   7.651  12.463  0.1255 -0.0506  0.1593
 2679DOPC   C1A31433  31.982   8.162  12.337 -0.1518  0.1401  0.1713
 2679DOPC   D2A31434  32.079   8.400  12.739 -0.1051  0.0506  0.0689
 2679DOPC   C3A31435  32.330   8.736  12.782 -0.1929  0.1056 -0.3948
 2679DOPC   C4A31436  32.439   8.901  13.167  0.2269  0.0413  0.0345
 2679DOPC   C1B31437  31.701   8.024  12.761  0.1045 -0.2261 -0.0235
 2679DOPC   D2B31438  31.647   8.377  13.068  0.1152  0.1877  0.0990
 2679DOPC   C3B31439  31.877   8.789  13.040 -0.0784 -0.3356 -0.3675
 2679DOPC   C4B31440  32.050   9.243  13.011  0.2302  0.2949 -0.1438
 2680POSM   NC331441  31.448  11.249  12.087 -0.0396 -0.2430 -0.0340
 2680POSM   PO431442  31.146  11.055  11.894  0.1785 -0.1035 -0.1814
 2680POSM   AM131443  30.929  11.009  12.129 -0.0168  0.1696 -0.0435
 2680POSM   AM231444  30.940  10.980  12.425 -0.1770 -0.2097  0.0951
 2680POSM   T1A31445  30.497  10.774  12.150 -0.1378  0.1653 -0.0395
 2680POSM   C2A31446  30.143  10.575  11.929 -0.1513  0.2121 -0.0394
 2680POSM   C3A31447  29.832  10.305  12.128 -0.0466  0.0790  0.0314
 2680POSM   C1B31448  31.232  10.943  12.550 -0.1178 -0.2650 -0.1458
 2680POSM   D2B31449  31.509  10.777  12.867 -0.3051 -0.0114  0.1626
 2680POSM   C3B31450  31.536  10.854  13.295  0.1742 -0.0617  0.1338
 2680POSM   C4B31451  31.366  11.006  13.718 -0.5012 -0.1721  0.4589
 2681DOPE   NH331452  28.956  34.555  12.927  0.2078  0.0401 -0.4475
 2681DOPE   PO431453  29.171  34.805  12.976 -0.1870  0.0897  0.0012
 2681DOPE   GL131454  29.077  34.910  13.320 -0.2435 -0.3858 -0.2819
 2681DOPE   GL231455  29.122  34.679  13.516 -0.1078 -0.1122 -0.2363
 2681DOPE   C1A31456  29.199  35.140  13.772  0.0096  0.1222  0.0601
 2681DOPE   D2A31457  29.494  35.218  14.149 -0.0586 -0.1790  0.1530
 2681DOPE   C3A31458  29.464  35.527  14.474 -0.1053  0.0618 -0.1363
 2681DOPE   C4A31459  29.241  35.767  14.822  0.2651  0.2134  0.2065
 2681DOPE   C1B31460  29.175  34.625  13.990  0.0828 -0.0929  0.0130
 2681DOPE   D2B31461  29.680  34.663  14.126  0.1452  0.1286 -0.3315
 2681DOPE   C3B31462  29.685  34.475  14.536  0.1077 -0.4135  0.1265
 2681DOPE   C4B31463  29.828  34.397  15.013  0.1365 -0.1223  0.1784
 2682DOPC   NC331464  31.837   4.244  12.782 -0.2002  0.1503  0.2146
 2682DOPC   PO431465  31.865   4.125  12.397 -0.2762  0.1769  0.0879
 2682DOPC   GL131466  31.950   3.839  12.550 -0.3721 -0.1169 -0.0279
 2682DOPC   GL231467  32.031   3.742  12.797  0.1724 -0.1146 -0.0969
 2682DOPC   C1A31468  31.755   3.401  12.495  0.0662 -0.1397  0.3043
 2682DOPC   D2A31469  31.538   3.018  12.704  0.1442  0.2026  0.0173
 2682DOPC   C3A31470  31.497   2.554  12.577 -0.2493  0.2812  0.0742
 2682DOPC   C4A31471  31.859   2.264  12.737  0.3054  0.0301 -0.0777
 2682DOPC   C1B31472  31.973   3.835  13.222 -0.0008  0.1645  0.3941
 2682DOPC   D2B31473  31.927   3.877  13.673  0.3806 -0.0695  0.1322
 2682DOPC   C3B31474  32.295   3.868  13.856 -0.3687 -0.0096 -0.1847
 2682DOPC   C4B31475  32.686   3.672  13.973 -0.0022  0.1088 -0.0455
 2683DOPE   NH331476  34.298   0.580  12.533 -0.2494 -0.0034 -0.2840
 2683DOPE   PO431477  34.536   0.437  12.694  0.0496 -0.1364  0.0201
 2683DOPE   GL131478  34.546   0.367  13.020  0.1828 -0.2022 -0.2364
 2683DOPE   GL231479  34.800   0.194  13.042  0.1962 -0.1286 -0.2946
 2683DOPE   C1A31480  34.617   0.580  13.421  0.0820 -0.0992 -0.0308
 2683DOPE   D2A31481  34.777   0.778  13.728  0.0627 -0.0734 -0.0849
 2683DOPE   C3A31482  34.647   0.597  14.120 -0.1249 -0.1007 -0.2059
 2683DOPE   C4A31483  34.264   0.378  14.312  0.2235 -0.2721  0.1000
 2683DOPE   C1B31484  34.789   0.057  13.446 -0.1227 -0.2226  0.1124
 2683DOPE   D2B31485  34.969   0.325  13.808 -0.0790  0.0002  0.1990
 2683DOPE   C3B31486  34.986   0.179  14.205  0.1811 -0.0106  0.0525
 2683DOPE   C4B31487  35.225  -0.062  14.522  0.1171  0.0060 -0.0324
 2684POSM   NC331488  24.861   4.255  12.411 -0.0195  0.0728  0.0317
 2684POSM   PO431489  25.293   4.267  12.407  0.3529 -0.1979  0.3739
 2684POSM   AM131490  25.200   4.171  12.708  0.2618  0.1824  0.2163
 2684POSM   AM231491  24.938   4.132  12.871 -0.2538 -0.1617 -0.2372
 2684POSM   T1A31492  25.225   3.833  13.099 -0.1195 -0.0559  0.1579
 2684POSM   C2A31493  25.053   3.817  13.538 -0.0114  0.1337  0.1250
 2684POSM   C3A31494  24.922   3.847  13.961 -0.0295 -0.1923  0.0773
 2684POSM   C1B31495  24.996   4.299  13.157 -0.1038 -0.1186  0.1416
 2684POSM   D2B31496  25.105   4.316  13.633 -0.0289  0.0904 -0.1502
 2684POSM   C3B31497  25.048   4.587  13.965 -0.2111 -0.1939 -0.1488
 2684POSM   C4B31498  24.791   4.860  14.250 -0.2866  0.2293 -0.1173
 2685DOPC   NC331499  30.098   6.818  12.206 -0.2470 -0.4216  0.3009
 2685DOPC   PO431500  30.173   7.163  12.391  0.1795  0.0316 -0.0755
 2685DOPC   GL131501  30.054   6.844  12.652 -0.2651 -0.2424  0.4031
 2685DOPC   GL231502  30.323   6.895  12.781 -0.0362 -0.0052  0.1723
 2685DOPC   C1A31503  29.639   6.690  12.607  0.2120  0.0432 -0.1384
 2685DOPC   D2A31504  29.385   6.709  12.994  0.4838 -0.0251  0.1850
 2685DOPC   C3A31505  29.526   7.024  13.279 -0.0458  0.0914  0.1558
 2685DOPC   C4A31506  29.658   7.471  13.460 -0.0699  0.1341  0.1378
 2685DOPC   C1B31507  30.668   6.909  13.138  0.1949 -0.2820 -0.2493
 2685DOPC   D2B31508  30.785   6.733  13.554 -0.0666  0.4438 -0.0783
 2685DOPC   C3B31509  31.190   6.506  13.665 -0.1272 -0.1143 -0.0447
 2685DOPC   C4B31510  31.627   6.339  13.768  0.2101  0.0467  0.2541
 2686POSM   NC331511  31.446   0.861  13.110  0.1591  0.1393  0.3178
 2686POSM   PO431512  31.128   0.924  13.327  0.1109  0.1540 -0.1620
 2686POSM   AM131513  31.051   1.191  13.552  0.2766 -0.0621 -0.0924
 2686POSM   AM231514  30.874   1.416  13.591  0.0652  0.0002  0.1812
 2686POSM   T1A31515  31.359   1.370  13.920  0.0826 -0.1872 -0.1415
 2686POSM   C2A31516  31.622   1.674  14.137 -0.0492  0.0094  0.2689
 2686POSM   C3A31517  31.630   1.876  14.570  0.0685 -0.0662  0.0397
 2686POSM   C1B31518  30.828   1.431  13.937 -0.3007 -0.0182  0.0835
 2686POSM   D2B31519  30.590   1.658  14.252 -0.1954 -0.1382  0.2328
 2686POSM   C3B31520  30.142   1.780  14.163  0.0204  0.2408  0.2506
 2686POSM   C4B31521  29.973   1.996  14.539  0.2173 -0.1286 -0.3961
 2687POSM   NC331522  23.691   7.502  12.214  0.1169  0.0040 -0.0464
 2687POSM   PO431523  23.853   7.227  11.969  0.1006 -0.1219 -0.0686
 2687POSM   AM131524  23.983   7.067  12.244 -0.0627 -0.0553  0.0551
 2687POSM   AM231525  24.170   7.130  12.441 -0.4473 -0.2845 -0.0883
 2687POSM   T1A31526  24.165   6.649  12.442  0.2126 -0.0332  0.3924
 2687POSM   C2A31527  24.441   6.440  12.723  0.0163  0.0206 -0.0756
 2687POSM   C3A31528  24.340   6.296  13.150 -0.0355 -0.2544 -0.1161
 2687POSM   C1B31529  24.417   7.070  12.687 -0.1226 -0.1485 -0.1280
 2687POSM   D2B31530  24.857   6.931  12.828  0.1555  0.0327  0.2161
 2687POSM   C3B31531  24.958   6.952  13.261 -0.0870 -0.2444  0.0922
 2687POSM   C4B31532  25.207   7.055  13.634 -0.0773  0.1454  0.2373
 2688DOPC   NC331533  29.230   2.294  12.789 -0.0365 -0.2259 -0.1900
 2688DOPC   PO431534  28.952   2.231  12.522 -0.0922 -0.1306 -0.0179
 2688DOPC   GL131535  28.561   2.220  12.707 -0.3400  0.0815  0.0810
 2688DOPC   GL231536  28.547   2.564  12.625 -0.2455 -0.2990  0.1100
 2688DOPC   C1A31537  28.166   1.982  12.767  0.0462 -0.1016  0.1631
 2688DOPC   D2A31538  27.715   1.995  12.952 -0.0493  0.2458  0.2671
 2688DOPC   C3A31539  27.617   2.215  13.351 -0.0126  0.4777  0.3260
 2688DOPC   C4A31540  27.391   2.516  13.619  0.1401  0.0949  0.2326
 2688DOPC   C1B31541  28.358   2.419  13.014 -0.1626 -0.1293  0.1593
 2688DOPC   D2B31542  27.977   2.494  13.278  0.5105 -0.1078  0.2862
 2688DOPC   C3B31543  27.911   2.489  13.746 -0.0052 -0.0448 -0.2408
 2688DOPC   C4B31544  28.048   2.586  14.195  0.2233  0.1017  0.1431
 2689DOPE   NH331545  26.920   1.242  13.385 -0.1571 -0.0858 -0.1451
 2689DOPE   PO431546  26.699   1.436  13.294  0.0578  0.0657  0.2059
 2689DOPE   GL131547  26.599   1.714  13.454 -0.0133 -0.1968 -0.0730
 2689DOPE   GL231548  26.367   1.761  13.456 -0.3184 -0.0513 -0.0008
 2689DOPE   C1A31549  26.744   1.876  13.886  0.1292 -0.0114  0.1792
 2689DOPE   D2A31550  26.952   1.771  14.301  0.0955 -0.0626 -0.0462
 2689DOPE   C3A31551  27.259   2.092  14.398  0.3390 -0.0913  0.2677
 2689DOPE   C4A31552  27.557   2.341  14.586 -0.1253  0.1129  0.1435
 2689DOPE   C1B31553  26.280   2.082  13.756 -0.1386  0.2665  0.0972
 2689DOPE   D2B31554  26.584   2.320  13.978  0.3729 -0.0455 -0.1234
 2689DOPE   C3B31555  27.022   2.460  14.184  0.1123  0.1574  0.0073
 2689DOPE   C4B31556  27.237   2.725  14.432  0.0196  0.0136  0.1181
 2690POSM   NC331557  26.270  11.469  12.066  0.3424 -0.2529 -0.0618
 2690POSM   PO431558  26.585  11.514  12.272 -0.0118  0.0369  0.0773
 2690POSM   AM131559  26.576  11.529  12.625  0.2577 -0.0927  0.2439
 2690POSM   AM231560  26.493  11.420  12.871  0.0196 -0.0350  0.3346
 2690POSM   T1A31561  26.912  11.664  12.931  0.2530 -0.3553 -0.1084
 2690POSM   C2A31562  27.274  11.965  12.976 -0.0923  0.1519  0.2246
 2690POSM   C3A31563  27.671  11.812  12.878  0.1007  0.3531 -0.2566
 2690POSM   C1B31564  26.493  11.462  13.227  0.0348  0.0001  0.0849
 2690POSM   D2B31565  26.296  11.667  13.585 -0.1582  0.0820  0.1454
 2690POSM   C3B31566  26.429  12.103  13.609  0.1499  0.2517  0.0085
 2690POSM   C4B31567  26.134  12.481  13.615 -0.1654  0.0068 -0.1709
 2691POSM   NC331568  26.128   2.309  12.190 -0.1314 -0.4118  0.0435
 2691POSM   PO431569  26.310   2.479  12.474 -0.4881  0.2440 -0.3141
 2691POSM   AM131570  26.394   2.329  12.730 -0.3390 -0.0580 -0.0298
 2691POSM   AM231571  26.283   2.179  12.962  0.0207  0.1496 -0.0854
 2691POSM   T1A31572  26.817   2.418  13.005  0.1690 -0.2058 -0.1105
 2691POSM   C2A31573  27.093   2.199  13.309 -0.0299  0.1112 -0.1794
 2691POSM   C3A31574  27.110   2.154  13.755  0.1725  0.0223 -0.1648
 2691POSM   C1B31575  26.390   2.263  13.314 -0.2104 -0.0620  0.2613
 2691POSM   D2B31576  26.626   2.604  13.400  0.1430  0.0611  0.0586
 2691POSM   C3B31577  26.865   2.734  13.795 -0.1394 -0.0995  0.4018
 2691POSM   C4B31578  27.006   3.106  14.046  0.3387  0.0415 -0.1710
 2692DOPS   CNO31579  30.896   6.157  12.371  0.1373 -0.0088 -0.4630
 2692DOPS   PO431580  30.694   6.008  12.677  0.3424  0.0404  0.0970
 2692DOPS   GL131581  30.642   6.066  13.043  0.2144 -0.0884 -0.0356
 2692DOPS   GL231582  30.462   5.856  13.174 -0.0474 -0.1046  0.2625
 2692DOPS   C1A31583  30.423   6.398  13.291  0.0631 -0.1831 -0.1379
 2692DOPS   D2A31584  30.395   6.578  13.772 -0.1940  0.2013 -0.0264
 2692DOPS   C3A31585  30.225   7.016  13.818  0.0627 -0.1897 -0.0514
 2692DOPS   C4A31586  29.775   7.107  13.797  0.1118 -0.0103  0.1798
 2692DOPS   C1B31587  30.218   5.668  13.523 -0.2643  0.2821 -0.3721
 2692DOPS   D2B31588  30.123   5.611  13.999 -0.2980  0.2821  0.0991
 2692DOPS   C3B31589  30.063   5.239  14.265  0.1580 -0.0543  0.1722
 2692DOPS   C4B31590  30.131   4.996  14.621  0.2805  0.1160 -0.0004
 2693DOPC   NC331591  25.673   8.184  12.297  0.2672 -0.1428  0.3950
 2693DOPC   PO431592  25.837   7.929  12.544  0.2719 -0.0823 -0.2101
 2693DOPC   GL131593  25.973   8.268  12.639  0.3019 -0.0916  0.3635
 2693DOPC   GL231594  26.260   8.401  12.705 -0.1315 -0.0550  0.1379
 2693DOPC   C1A31595  25.805   8.620  12.923  0.2336 -0.0462  0.3758
 2693DOPC   D2A31596  25.795   8.938  13.290 -0.0091  0.0134  0.3121
 2693DOPC   C3A31597  25.629   9.376  13.462  0.1640  0.0956  0.2180
 2693DOPC   C4A31598  25.487   9.737  13.751  0.1452 -0.1757  0.1248
 2693DOPC   C1B31599  26.337   8.495  13.172 -0.1989 -0.2002 -0.1165
 2693DOPC   D2B31600  26.228   8.832  13.474  0.1173  0.0525  0.2415
 2693DOPC   C3B31601  25.859   8.947  13.825  0.0301 -0.2989 -0.3852
 2693DOPC   C4B31602  25.733   8.990  14.270 -0.1594  0.1721  0.2322
 2694POSM   NC331603  22.529   5.317  12.229  0.0278 -0.2705 -0.0411
 2694POSM   PO431604  22.895   5.334  12.061  0.0220 -0.1363  0.1642
 2694POSM   AM131605  23.063   5.505  12.283 -0.2740  0.1697  0.0047
 2694POSM   AM231606  22.953   5.688  12.483 -0.0226  0.1501  0.1889
 2694POSM   T1A31607  23.527   5.565  12.431  0.3854 -0.3415 -0.0733
 2694POSM   C2A31608  23.766   5.945  12.451 -0.3310  0.1266  0.0414
 2694POSM   C3A31609  24.201   6.035  12.458  0.0175 -0.1235 -0.0348
 2694POSM   C1B31610  23.171   5.758  12.723  0.5601  0.1576 -0.0315
 2694POSM   D2B31611  23.575   5.985  12.850 -0.0395  0.0158 -0.0354
 2694POSM   C3B31612  23.885   5.630  12.854 -0.1945 -0.1581  0.1367
 2694POSM   C4B31613  24.061   5.388  12.496 -0.0514  0.1539 -0.0667
 2695DOPE   NH331614  29.714   3.078  13.386 -0.1915  0.0239 -0.0346
 2695DOPE   PO431615  29.550   3.349  13.314 -0.2596 -0.2305  0.2454
 2695DOPE   GL131616  29.317   3.580  13.409  0.2060  0.0219  0.4676
 2695DOPE   GL231617  29.029   3.690  13.400  0.3839  0.2720 -0.1575
 2695DOPE   C1A31618  29.193   3.633  13.882 -0.3958  0.1642 -0.1020
 2695DOPE   D2A31619  29.240   3.629  14.353 -0.0248 -0.3300  0.0302
 2695DOPE   C3A31620  29.598   3.671  14.633  0.1569  0.2304  0.2461
 2695DOPE   C4A31621  29.790   3.602  15.058 -0.0263  0.1926  0.0595
 2695DOPE   C1B31622  28.774   3.355  13.637  0.1610  0.1885  0.1648
 2695DOPE   D2B31623  28.977   3.193  14.068  0.0221  0.1247 -0.0403
 2695DOPE   C3B31624  28.749   3.338  14.456 -0.2945 -0.2785 -0.2065
 2695DOPE   C4B31625  28.543   3.574  14.778  0.2532  0.0244  0.0475
 2696POSM   NC331626  24.119   7.827  12.053  0.0216 -0.3011 -0.0370
 2696POSM   PO431627  24.177   7.636  12.434  0.0567  0.1923  0.1372
 2696POSM   AM131628  24.119   7.589  12.732 -0.0225  0.1200  0.1415
 2696POSM   AM231629  23.999   7.701  12.938 -0.2091  0.2559 -0.2996
 2696POSM   T1A31630  24.167   7.201  13.089  0.1546 -0.0558  0.1773
 2696POSM   C2A31631  24.430   6.800  13.096  0.2292  0.1657  0.0485
 2696POSM   C3A31632  24.747   6.497  13.198  0.0001 -0.2053 -0.2354
 2696POSM   C1B31633  23.753   7.836  13.105 -0.0706 -0.2969 -0.2906
 2696POSM   D2B31634  23.718   8.036  13.535  0.4022  0.0201 -0.0289
 2696POSM   C3B31635  23.691   8.488  13.599 -0.2013 -0.1784  0.2053
 2696POSM   C4B31636  23.992   8.784  13.800 -0.0696 -0.1024  0.1279
 2697POSM   NC331637  26.871   6.788  12.466 -0.1187  0.1048 -0.0246
 2697POSM   PO431638  26.939   6.396  12.497  0.1156 -0.0715 -0.0784
 2697POSM   AM131639  26.879   6.423  12.825 -0.2475 -0.0567 -0.0620
 2697POSM   AM231640  26.781   6.646  12.996 -0.0252 -0.1246  0.0166
 2697POSM   T1A31641  27.021   6.304  13.315 -0.2461  0.0932 -0.0405
 2697POSM   C2A31642  27.153   6.131  13.657 -0.0335 -0.0996  0.0495
 2697POSM   C3A31643  27.205   6.275  14.080  0.3490 -0.0549  0.0338
 2697POSM   C1B31644  26.797   6.958  12.978 -0.1532 -0.0775  0.1146
 2697POSM   D2B31645  26.606   7.360  13.111  0.1737 -0.0853 -0.0086
 2697POSM   C3B31646  26.690   7.702  13.323 -0.2694  0.2496  0.1344
 2697POSM   C4B31647  27.068   7.910  13.429 -0.3460 -0.3536  0.2570
 2698POSM   NC331648  26.123   6.483  12.288 -0.1791 -0.2054  0.3043
 2698POSM   PO431649  26.155   6.116  12.450 -0.0177  0.2003 -0.0080
 2698POSM   AM131650  25.984   6.244  12.712  0.5736  0.1826  0.3678
 2698POSM   AM231651  25.782   6.438  12.662  0.0633  0.0485  0.0479
 2698POSM   T1A31652  25.873   6.141  13.205 -0.2313  0.1489 -0.3870
 2698POSM   C2A31653  25.601   6.068  13.624  0.3224 -0.2916 -0.1839
 2698POSM   C3A31654  25.611   6.069  14.075  0.0128  0.4208 -0.0163
 2698POSM   C1B31655  25.779   6.614  12.968  0.1643 -0.0276 -0.1261
 2698POSM   D2B31656  25.654   6.657  13.422 -0.0870  0.3218  0.2642
 2698POSM   C3B31657  25.565   6.565  13.869 -0.2550 -0.0244 -0.0838
 2698POSM   C4B31658  25.279   6.892  14.136  0.1365  0.2034 -0.1672
 2699DOPS   CNO31659  32.278   4.757  12.064  0.0822  0.0449  0.0094
 2699DOPS   PO431660  32.250   4.505  12.368  0.2197  0.0801  0.0437
 2699DOPS   GL131661  32.332   4.109  12.467  0.4770  0.2202 -0.0347
 2699DOPS   GL231662  32.307   4.113  12.743 -0.0615  0.0944 -0.2714
 2699DOPS   C1A31663  32.767   3.786  12.446 -0.3024  0.0236  0.1962
 2699DOPS   D2A31664  33.060   3.454  12.621 -0.4433 -0.0682 -0.0252
 2699DOPS   C3A31665  32.961   3.441  13.094 -0.0271  0.0384  0.1390
 2699DOPS   C4A31666  32.844   3.538  13.502  0.1281  0.4611  0.0296
 2699DOPS   C1B31667  32.572   4.449  12.920 -0.3856 -0.1217  0.0167
 2699DOPS   D2B31668  32.588   4.559  13.384  0.2572 -0.0861  0.0607
 2699DOPS   C3B31669  32.464   4.333  13.735  0.6173  0.3708 -0.2170
 2699DOPS   C4B31670  32.519   4.162  14.203 -0.0311  0.1767  0.0935
 2700POSM   NC331671  30.143   0.755  13.174  0.0570 -0.0131  0.0252
 2700POSM   PO431672  29.914   0.721  12.834  0.0263  0.0067  0.0029
 2700POSM   AM131673  29.713   0.872  12.989  0.0355  0.2694 -0.1319
 2700POSM   AM231674  29.514   0.881  13.204  0.0831  0.2458 -0.3293
 2700POSM   T1A31675  29.561   1.348  13.133 -0.0560 -0.0378  0.2799
 2700POSM   C2A31676  29.495   1.697  13.410  0.0976  0.0886  0.1770
 2700POSM   C3A31677  29.324   2.050  13.737  0.0857 -0.0333  0.0346
 2700POSM   C1B31678  29.409   0.854  13.534 -0.3753  0.2227  0.1783
 2700POSM   D2B31679  29.305   0.945  13.908 -0.0208 -0.3505  0.1493
 2700POSM   C3B31680  28.987   1.170  14.168 -0.1229  0.3432 -0.1616
 2700POSM   C4B31681  28.664   1.408  14.327  0.0330 -0.0153 -0.1979
 2701DOPE   NH331682  33.517   3.391  12.456 -0.1095  0.0489  0.0170
 2701DOPE   PO431683  33.566   3.299  12.802 -0.2084  0.4457  0.2085
 2701DOPE   GL131684  33.425   3.289  13.156  0.2409 -0.0944 -0.3078
 2701DOPE   GL231685  33.488   3.581  13.233 -0.1363  0.0752 -0.2187
 2701DOPE   C1A31686  33.318   3.354  13.607 -0.2978 -0.0318 -0.0897
 2701DOPE   D2A31687  33.301   3.570  14.010  0.0405  0.0736 -0.0757
 2701DOPE   C3A31688  33.701   3.694  14.221 -0.1322  0.1405  0.0591
 2701DOPE   C4A31689  33.758   3.761  14.727 -0.1785 -0.0512 -0.1160
 2701DOPE   C1B31690  33.308   3.843  13.575 -0.0219 -0.2461 -0.2345
 2701DOPE   D2B31691  33.405   4.056  13.946 -0.1049  0.0032  0.3673
 2701DOPE   C3B31692  32.956   4.161  13.983 -0.2172  0.0977  0.0023
 2701DOPE   C4B31693  32.856   4.536  14.245 -0.0540 -0.1173 -0.0426
 2702DOPE   NH331694  33.938  10.837  12.284 -0.0496 -0.1130  0.1273
 2702DOPE   PO431695  33.971  10.486  12.250 -0.2332  0.2597  0.1357
 2702DOPE   GL131696  33.810  10.479  12.568 -0.1085 -0.0312 -0.3220
 2702DOPE   GL231697  33.533  10.421  12.595  0.1507 -0.0916  0.0410
 2702DOPE   C1A31698  33.788  10.679  12.960 -0.3170 -0.0923  0.1838
 2702DOPE   D2A31699  34.090  10.973  13.141 -0.1347 -0.1244  0.0842
 2702DOPE   C3A31700  34.163  10.778  13.577 -0.3031  0.1080 -0.3101
 2702DOPE   C4A31701  33.841  10.565  13.804 -0.1487  0.3736 -0.2527
 2702DOPE   C1B31702  33.131  10.174  12.679 -0.3662 -0.0599 -0.2639
 2702DOPE   D2B31703  32.789  10.119  12.998 -0.1971  0.0772  0.1727
 2702DOPE   C3B31704  32.907   9.704  13.270 -0.0303  0.2596  0.0318
 2702DOPE   C4B31705  32.783   9.550  13.689 -0.3133  0.5234  0.0503
 2703DOPE   NH331706  28.937   7.363  12.385  0.1174 -0.0069  0.2947
 2703DOPE   PO431707  28.840   7.590  12.626  0.0994  0.2136  0.0048
 2703DOPE   GL131708  28.570   7.345  12.785  0.3034  0.2448 -0.3596
 2703DOPE   GL231709  28.689   7.093  12.717 -0.3191  0.1553 -0.1644
 2703DOPE   C1A31710  28.493   7.277  13.224 -0.2565  0.1161 -0.0578
 2703DOPE   D2A31711  28.158   7.420  13.606  0.0021  0.3389  0.2279
 2703DOPE   C3A31712  27.700   7.264  13.692  0.2081  0.0037 -0.1092
 2703DOPE   C4A31713  27.387   6.977  13.911  0.1718 -0.2953 -0.0788
 2703DOPE   C1B31714  28.886   6.714  12.628 -0.1423 -0.2685  0.0797
 2703DOPE   D2B31715  28.696   6.313  12.451  0.3415  0.1873  0.0685
 2703DOPE   C3B31716  28.914   6.039  12.736 -0.1390 -0.1233  0.1530
 2703DOPE   C4B31717  28.989   5.838  13.145  0.2472 -0.0483  0.1013
 2704DOPE   NH331718  23.786   3.564  12.541 -0.1553  0.2226 -0.1921
 2704DOPE   PO431719  23.854   3.415  12.259 -0.0086 -0.2397  0.0102
 2704DOPE   GL131720  24.205   3.166  12.546  0.1985 -0.0096 -0.0198
 2704DOPE   GL231721  24.362   3.299  12.710  0.1668 -0.0646  0.1512
 2704DOPE   C1A31722  24.323   2.782  12.291  0.0263 -0.0254  0.2338
 2704DOPE   D2A31723  24.352   2.338  12.198  0.0859  0.0156 -0.1983
 2704DOPE   C3A31724  24.549   2.020  12.490 -0.2529 -0.0070 -0.1665
 2704DOPE   C4A31725  24.425   1.589  12.500 -0.0130 -0.2879 -0.1429
 2704DOPE   C1B31726  24.391   2.830  12.791 -0.0773 -0.0094  0.0387
 2704DOPE   D2B31727  24.187   2.439  12.674  0.0623 -0.0166 -0.0725
 2704DOPE   C3B31728  24.166   2.254  13.144  0.0512 -0.3991 -0.2107
 2704DOPE   C4B31729  24.258   1.836  13.325 -0.3774  0.0604  0.3621
 2705POSM   NC331730  25.236   3.455  12.137 -0.1312  0.0988 -0.1578
 2705POSM   PO431731  24.950   3.334  12.416 -0.1737 -0.0029 -0.3719
 2705POSM   AM131732  24.901   3.095  12.627  0.0782 -0.0029 -0.1039
 2705POSM   AM231733  24.809   3.097  12.896  0.2153  0.1574 -0.0356
 2705POSM   T1A31734  24.810   2.601  12.711 -0.0888 -0.2372  0.2887
 2705POSM   C2A31735  24.644   2.376  13.100 -0.0538  0.1931 -0.0464
 2705POSM   C3A31736  24.421   2.504  13.474 -0.0700  0.1224  0.0011
 2705POSM   C1B31737  24.776   2.898  13.156  0.1794 -0.2769 -0.1265
 2705POSM   D2B31738  24.699   2.892  13.576 -0.1574  0.1119 -0.0802
 2705POSM   C3B31739  24.231   2.878  13.702  0.0764  0.1361 -0.1048
 2705POSM   C4B31740  23.867   2.724  14.001 -0.1851 -0.3003 -0.1674
 2706DOPC   NC331741  33.341   7.574  11.730  0.2398 -0.0496 -0.1248
 2706DOPC   PO431742  33.349   7.951  11.579  0.0734  0.1148 -0.0807
 2706DOPC   GL131743  33.431   8.279  11.831 -0.5183  0.1463  0.3801
 2706DOPC   GL231744  33.184   8.466  11.895  0.0662  0.0466 -0.0137
 2706DOPC   C1A31745  33.717   8.632  11.959  0.2008  0.1042  0.0304
 2706DOPC   D2A31746  34.117   8.725  12.206 -0.2242  0.1072  0.0724
 2706DOPC   C3A31747  34.338   9.048  12.503 -0.1638  0.0081  0.0307
 2706DOPC   C4A31748  34.286   9.164  12.933 -0.3077 -0.3126 -0.4991
 2706DOPC   C1B31749  33.234   8.938  11.816  0.1036  0.3888  0.1865
 2706DOPC   D2B31750  33.300   9.363  12.050  0.0545  0.4040 -0.2289
 2706DOPC   C3B31751  33.103   9.353  12.482  0.0615  0.0044 -0.0858
 2706DOPC   C4B31752  32.952   9.681  12.766  0.1479  0.4190  0.2383
 2707DOPC   NC331753  29.440  11.111  12.228  0.2871 -0.1287 -0.3341
 2707DOPC   PO431754  29.364  10.777  12.030 -0.0982 -0.3536 -0.0397
 2707DOPC   GL131755  29.361  10.371  12.164  0.0741 -0.1288  0.2277
 2707DOPC   GL231756  29.376  10.210  11.955  0.1314 -0.0817 -0.1059
 2707DOPC   C1A31757  29.552  10.174  12.525  0.0127 -0.1364 -0.1470
 2707DOPC   D2A31758  29.714   9.949  12.911  0.3182 -0.1228 -0.0906
 2707DOPC   C3A31759  29.439   9.740  13.285 -0.0927 -0.1443 -0.0983
 2707DOPC   C4A31760  29.270   9.771  13.695  0.1967 -0.1170  0.1440
 2707DOPC   C1B31761  29.518   9.780  12.179 -0.0258  0.1062 -0.0307
 2707DOPC   D2B31762  29.638   9.393  12.383  0.2305 -0.3099 -0.1861
 2707DOPC   C3B31763  29.524   9.354  12.872 -0.2813  0.0465 -0.1663
 2707DOPC   C4B31764  29.156   9.275  13.117 -0.0037 -0.1236  0.0733
 2708POSM   NC331765  25.513   5.391  12.492  0.3542 -0.1915  0.1390
 2708POSM   PO431766  25.451   5.027  12.590 -0.2609 -0.0729  0.1031
 2708POSM   AM131767  25.389   5.032  12.911 -0.0546 -0.0101  0.1515
 2708POSM   AM231768  25.370   5.182  13.163  0.1185  0.2311  0.0738
 2708POSM   T1A31769  25.080   4.795  13.277 -0.2133  0.1836 -0.0265
 2708POSM   C2A31770  24.675   4.648  13.563  0.1485  0.0411  0.3406
 2708POSM   C3A31771  24.459   4.421  13.854  0.2121  0.3256 -0.0366
 2708POSM   C1B31772  25.214   5.317  13.442 -0.1727 -0.0136  0.1259
 2708POSM   D2B31773  24.912   5.523  13.733  0.0796  0.1777  0.1342
 2708POSM   C3B31774  24.504   5.684  13.523  0.0707 -0.0956  0.1361
 2708POSM   C4B31775  24.264   5.402  13.294  0.2552 -0.3025  0.3153
 2709POSM   NC331776  31.565   6.671  12.721 -0.1384  0.1730  0.1314
 2709POSM   PO431777  31.523   6.751  12.358  0.1293 -0.0379  0.0781
 2709POSM   AM131778  31.873   6.712  12.420  0.0290 -0.1080  0.2250
 2709POSM   AM231779  32.028   6.885  12.604  0.0346  0.2194 -0.0032
 2709POSM   T1A31780  32.232   6.343  12.507  0.1255 -0.0204  0.1230
 2709POSM   C2A31781  32.601   6.060  12.573  0.3478  0.0476 -0.0149
 2709POSM   C3A31782  33.035   5.834  12.727 -0.1220  0.1256  0.0438
 2709POSM   C1B31783  32.117   6.852  12.981  0.0902 -0.0126  0.0453
 2709POSM   D2B31784  32.108   7.036  13.408 -0.0038 -0.2827  0.0255
 2709POSM   C3B31785  32.137   6.746  13.750  0.1618  0.1243 -0.0986
 2709POSM   C4B31786  32.351   6.326  13.816 -0.0148  0.0353  0.1701
 2710DOPS   CNO31787  30.808   1.611  12.618  0.4476  0.2545  0.1053
 2710DOPS   PO431788  31.156   1.441  12.544  0.2588  0.3964 -0.0347
 2710DOPS   GL131789  31.217   1.729  12.878 -0.1015 -0.1405  0.0569
 2710DOPS   GL231790  31.481   1.665  12.797  0.0178 -0.0138 -0.2364
 2710DOPS   C1A31791  31.354   2.151  12.996  0.1079 -0.0703 -0.0517
 2710DOPS   D2A31792  31.665   2.302  13.291 -0.0630 -0.1263 -0.2305
 2710DOPS   C3A31793  31.417   2.404  13.661 -0.1823 -0.0847  0.1014
 2710DOPS   C4A31794  31.019   2.496  13.945  0.2345 -0.1549  0.2274
 2710DOPS   C1B31795  31.746   1.818  13.159  0.0032  0.1859 -0.0893
 2710DOPS   D2B31796  32.029   2.024  13.503  0.0217 -0.0945  0.1624
 2710DOPS   C3B31797  32.050   2.522  13.585 -0.4031  0.1723  0.0826
 2710DOPS   C4B31798  32.210   2.938  13.410 -0.1137  0.1926  0.0624
 2711DOPE   NH331799  30.567   7.435  12.157 -0.0315  0.0411 -0.1107
 2711DOPE   PO431800  30.772   7.519  12.360 -0.2486  0.2140 -0.0421
 2711DOPE   GL131801  30.776   7.740  12.613 -0.0049  0.3457 -0.0211
 2711DOPE   GL231802  30.877   7.985  12.488 -0.2505  0.0375  0.2637
 2711DOPE   C1A31803  30.879   8.021  12.948  0.0234 -0.2364 -0.0439
 2711DOPE   D2A31804  30.913   8.264  13.322  0.1769 -0.0305  0.0643
 2711DOPE   C3A31805  31.167   8.699  13.346  0.2799 -0.0058 -0.0746
 2711DOPE   C4A31806  30.995   9.092  13.554 -0.0450 -0.1309  0.3170
 2711DOPE   C1B31807  31.309   8.209  12.509  0.1377  0.0096  0.1098
 2711DOPE   D2B31808  31.640   8.526  12.406  0.0697 -0.1529  0.2946
 2711DOPE   C3B31809  31.714   8.645  12.007 -0.0843  0.4458  0.0920
 2711DOPE   C4B31810  31.694   8.237  11.757  0.1471 -0.1692 -0.3080
 2712DOPC   NC331811  30.161   4.845  12.828 -0.0611  0.1219  0.3803
 2712DOPC   PO431812  30.530   4.742  12.667 -0.1912  0.2025 -0.0646
 2712DOPC   GL131813  30.623   4.683  13.108  0.3167  0.0400 -0.4212
 2712DOPC   GL231814  30.535   4.904  13.200 -0.1005  0.2342 -0.3168
 2712DOPC   C1A31815  30.946   4.626  13.482 -0.0636  0.0643  0.0258
 2712DOPC   D2A31816  31.050   4.477  13.932 -0.1010 -0.3690 -0.0434
 2712DOPC   C3A31817  30.895   4.045  13.971  0.0506  0.0847  0.0913
 2712DOPC   C4A31818  30.883   3.567  14.089 -0.1859  0.4647 -0.0356
 2712DOPC   C1B31819  30.473   4.736  13.653 -0.2666  0.1635 -0.0996
 2712DOPC   D2B31820  30.311   4.819  14.086  0.0195 -0.3533 -0.1844
 2712DOPC   C3B31821  29.950   4.609  14.330 -0.4575 -0.0666 -0.4066
 2712DOPC   C4B31822  29.531   4.450  14.394  0.4087  0.0805  0.0249
 2713DOPC   NC331823  28.377   7.719  12.447 -0.0901 -0.0484 -0.0987
 2713DOPC   PO431824  28.103   7.607  12.629 -0.1246  0.2917 -0.1800
 2713DOPC   GL131825  28.229   7.878  12.858  0.1183  0.0020 -0.1651
 2713DOPC   GL231826  28.333   7.692  13.056 -0.3709  0.0073 -0.1388
 2713DOPC   C1A31827  28.096   8.229  13.125 -0.1091  0.0455 -0.1059
 2713DOPC   D2A31828  28.190   8.680  13.156 -0.3288  0.0950 -0.1349
 2713DOPC   C3A31829  28.540   8.622  13.424 -0.0113  0.1089 -0.1202
 2713DOPC   C4A31830  29.011   8.548  13.649  0.3066 -0.2120 -0.1071
 2713DOPC   C1B31831  28.564   7.694  13.437  0.2993  0.2908  0.1321
 2713DOPC   D2B31832  28.585   7.364  13.753  0.0066 -0.1329  0.0128
 2713DOPC   C3B31833  28.814   7.219  14.116  0.1284  0.0091  0.0346
 2713DOPC   C4B31834  28.659   6.847  14.410 -0.2351 -0.2534 -0.1901
 2714DOPC   NC331835  28.013   9.755  12.293 -0.3581  0.0260 -0.1309
 2714DOPC   PO431836  28.003  10.140  12.151 -0.1273 -0.0749  0.1167
 2714DOPC   GL131837  27.865  10.155  12.447  0.4181 -0.2356  0.2076
 2714DOPC   GL231838  27.626  10.307  12.566  0.1872  0.2408  0.2238
 2714DOPC   C1A31839  27.902   9.906  12.822  0.1938  0.3412  0.5055
 2714DOPC   D2A31840  28.097   9.996  13.227  0.1160  0.0410  0.1344
 2714DOPC   C3A31841  28.054   9.635  13.533  0.0597  0.0116  0.1258
 2714DOPC   C4A31842  27.869   9.401  13.915  0.1181 -0.0835 -0.2159
 2714DOPC   C1B31843  27.230  10.263  12.838 -0.1676  0.2630  0.4500
 2714DOPC   D2B31844  27.195  10.501  13.237 -0.0250 -0.1750  0.4074
 2714DOPC   C3B31845  27.422  10.237  13.541  0.2730  0.1825  0.1137
 2714DOPC   C4B31846  27.877  10.293  13.672  0.0639  0.3186  0.2571
 2715DOPE   NH331847  30.939   1.094  12.893 -0.0183  0.3681 -0.3530
 2715DOPE   PO431848  30.744   1.175  13.113  0.1888 -0.1149  0.0628
 2715DOPE   GL131849  30.704   0.968  13.526 -0.1506  0.0042  0.0185
 2715DOPE   GL231850  30.443   1.004  13.482  0.1473  0.1247 -0.3113
 2715DOPE   C1A31851  31.028   0.895  13.901 -0.0532 -0.0366  0.0274
 2715DOPE   D2A31852  30.995   0.528  14.230  0.3013 -0.3187 -0.2473
 2715DOPE   C3A31853  30.746   0.381  14.627  0.0443  0.0431 -0.1607
 2715DOPE   C4A31854  30.591   0.134  14.990  0.0437  0.0180  0.1697
 2715DOPE   C1B31855  30.510   0.847  13.933  0.3695 -0.2966 -0.1399
 2715DOPE   D2B31856  30.710   1.027  14.296  0.4574  0.0966 -0.0340
 2715DOPE   C3B31857  31.190   1.049  14.369 -0.1213  0.1418 -0.1142
 2715DOPE   C4B31858  31.586   0.899  14.658 -0.2075  0.1395 -0.0117
 2716DOPC   NC331859  33.800   7.296  12.012 -0.1623  0.0726 -0.0453
 2716DOPC   PO431860  33.806   7.168  12.416 -0.2440  0.1271  0.5601
 2716DOPC   GL131861  33.998   7.520  12.447  0.6080 -0.4096  0.0130
 2716DOPC   GL231862  33.731   7.649  12.397 -0.2177  0.1738  0.1157
 2716DOPC   C1A31863  34.177   7.781  12.741  0.1656 -0.1178  0.0366
 2716DOPC   D2A31864  34.069   8.201  12.786 -0.1352 -0.0080  0.0613
 2716DOPC   C3A31865  33.802   8.410  13.123  0.4702  0.0063  0.1203
 2716DOPC   C4A31866  33.443   8.517  13.361  0.0338  0.2750 -0.1726
 2716DOPC   C1B31867  33.552   8.068  12.592  0.0271 -0.0128  0.2170
 2716DOPC   D2B31868  33.316   8.281  12.874  0.0627  0.4652  0.0755
 2716DOPC   C3B31869  33.281   8.736  12.837  0.0491  0.1629  0.1002
 2716DOPC   C4B31870  33.423   9.119  12.725 -0.1684  0.0815  0.0518
 2717POSM   NC331871  26.427   4.010  12.635 -0.0048 -0.0860  0.1714
 2717POSM   PO431872  26.735   4.083  12.360 -0.0899  0.1532 -0.1043
 2717POSM   AM131873  26.941   4.003  12.565 -0.1619  0.0904  0.0719
 2717POSM   AM231874  26.867   3.814  12.827  0.1806 -0.4358 -0.1247
 2717POSM   T1A31875  27.398   4.014  12.687  0.3403  0.0744 -0.3094
 2717POSM   C2A31876  27.790   4.171  12.550 -0.2153  0.3556  0.1352
 2717POSM   C3A31877  28.100   4.083  12.236  0.0156  0.1169 -0.4434
 2717POSM   C1B31878  27.026   3.869  13.081 -0.1655 -0.0087 -0.1327
 2717POSM   D2B31879  27.336   3.604  13.392  0.4581 -0.1596 -0.1391
 2717POSM   C3B31880  27.030   3.516  13.745  0.1067 -0.2717 -0.0422
 2717POSM   C4B31881  26.709   3.505  14.016 -0.0762 -0.1095  0.0102
 2718DOPS   CNO31882  26.728   0.245  12.327 -0.0358 -0.1873  0.0982
 2718DOPS   PO431883  26.506  -0.016  12.478 -0.3428 -0.2144 -0.0720
 2718DOPS   GL131884  26.261  -0.002  12.760 -0.0110 -0.3447  0.1701
 2718DOPS   GL231885  26.368   0.050  13.002 -0.2962  0.2667  0.0764
 2718DOPS   C1A31886  25.999  -0.394  12.874  0.4576 -0.0406  0.3065
 2718DOPS   D2A31887  25.837  -0.840  12.853  0.0378 -0.1027 -0.0735
 2718DOPS   C3A31888  25.687  -1.091  13.269  0.0635 -0.1883 -0.0455
 2718DOPS   C4A31889  25.322  -1.068  13.505 -0.1120 -0.0371  0.1811
 2718DOPS   C1B31890  26.459  -0.404  13.182  0.0244  0.0935 -0.1570
 2718DOPS   D2B31891  26.465  -0.485  13.609 -0.4545  0.0403 -0.0131
 2718DOPS   C3B31892  26.051  -0.498  13.736  0.2745  0.1653  0.1679
 2718DOPS   C4B31893  25.639  -0.768  13.786 -0.1568 -0.0205 -0.0131
 2719DOPE   NH331894  26.151   5.837  12.871 -0.0741  0.0136 -0.1747
 2719DOPE   PO431895  25.934   5.693  12.681  0.2981 -0.1968  0.1244
 2719DOPE   GL131896  25.606   5.756  12.823  0.0342 -0.2378 -0.2121
 2719DOPE   GL231897  25.552   6.006  12.724  0.1470  0.0029 -0.0250
 2719DOPE   C1A31898  25.132   5.556  12.859 -0.0823 -0.1724  0.0503
 2719DOPE   D2A31899  24.849   5.624  13.204 -0.0682 -0.2785  0.0153
 2719DOPE   C3A31900  24.759   5.157  13.369  0.1484 -0.0764 -0.0242
 2719DOPE   C4A31901  24.855   5.031  13.775 -0.3187  0.1476 -0.2652
 2719DOPE   C1B31902  25.369   6.231  13.070 -0.0538  0.0074 -0.0400
 2719DOPE   D2B31903  25.239   6.471  13.460  0.0559 -0.1220  0.3960
 2719DOPE   C3B31904  24.897   6.593  13.740 -0.1742  0.0014 -0.1787
 2719DOPE   C4B31905  24.552   6.918  13.675 -0.2360 -0.1434  0.0803
 2720POSM   NC331906  23.813   2.796  12.437  0.0312  0.0167  0.3980
 2720POSM   PO431907  23.568   3.062  12.531  0.0860 -0.0742 -0.0293
 2720POSM   AM131908  23.776   3.130  12.784  0.4344 -0.0141  0.4355
 2720POSM   AM231909  23.936   2.996  12.929  0.0766 -0.1958 -0.0671
 2720POSM   T1A31910  24.035   3.466  13.048 -0.2497 -0.3158  0.1677
 2720POSM   C2A31911  24.178   3.719  13.362  0.4692 -0.2827  0.0144
 2720POSM   C3A31912  24.494   3.903  13.721  0.2285 -0.0659 -0.3636
 2720POSM   C1B31913  24.055   2.771  13.208 -0.1903  0.0414 -0.3221
 2720POSM   D2B31914  23.873   2.493  13.530 -0.3652 -0.2319 -0.0574
 2720POSM   C3B31915  24.189   2.237  13.816  0.1026  0.0589 -0.2505
 2720POSM   C4B31916  24.116   1.902  14.167  0.2502 -0.2777  0.0618
 2721DOPC   NC331917  30.461   4.188  12.570  0.1632  0.1809 -0.4333
 2721DOPC   PO431918  30.365   4.329  12.906 -0.1527  0.0908 -0.0782
 2721DOPC   GL131919  30.107   4.287  13.155 -0.3050  0.3539  0.1839
 2721DOPC   GL231920  30.159   4.613  13.281  0.0244  0.2658 -0.1657
 2721DOPC   C1A31921  29.735   4.344  13.363  0.1297  0.2534  0.1729
 2721DOPC   D2A31922  29.516   4.623  13.594  0.0480 -0.1003  0.0410
 2721DOPC   C3A31923  29.171   4.936  13.625 -0.0205 -0.1616 -0.2770
 2721DOPC   C4A31924  28.794   5.134  13.788  0.1005  0.1402  0.0546
 2721DOPC   C1B31925  29.768   4.824  13.223 -0.3256  0.0546  0.3545
 2721DOPC   D2B31926  29.525   5.168  13.160  0.1531 -0.1499 -0.2775
 2721DOPC   C3B31927  29.367   5.446  13.540 -0.0144 -0.2028  0.0868
 2721DOPC   C4B31928  29.183   5.899  13.611  0.3186  0.0512 -0.0085
 2722DOPS   CNO31929  26.708   1.209  12.818 -0.0242  0.0319  0.0459
 2722DOPS   PO431930  26.555   0.979  13.145  0.1048 -0.1029  0.1207
 2722DOPS   GL131931  26.660   0.916  13.547 -0.2827  0.0511  0.0510
 2722DOPS   GL231932  26.901   0.737  13.450 -0.0423 -0.3433  0.1754
 2722DOPS   C1A31933  26.434   0.889  13.984 -0.1420 -0.0946  0.2579
 2722DOPS   D2A31934  26.076   0.870  14.178  0.3317  0.0239  0.1244
 2722DOPS   C3A31935  25.671   0.815  13.963  0.1822  0.1451  0.2527
 2722DOPS   C4A31936  25.401   0.496  14.161 -0.0504  0.0391  0.0892
 2722DOPS   C1B31937  26.979   0.893  13.838  0.2935  0.0751  0.1170
 2722DOPS   D2B31938  27.100   0.901  14.332  0.2507  0.2637 -0.0127
 2722DOPS   C3B31939  27.249   1.216  14.576  0.0996  0.1623 -0.0066
 2722DOPS   C4B31940  27.251   1.500  14.930  0.2912  0.2418  0.0385
 2723DOPC   NC331941  25.927   4.649  12.311 -0.0311  0.1005  0.0905
 2723DOPC   PO431942  25.661   4.511  12.576  0.2246  0.0486 -0.3147
 2723DOPC   GL131943  25.644   4.427  12.978  0.0021 -0.2569  0.0827
 2723DOPC   GL231944  25.522   4.225  13.048 -0.2529 -0.0860  0.0886
 2723DOPC   C1A31945  25.496   4.592  13.442 -0.4887  0.1401  0.3243
 2723DOPC   D2A31946  25.355   4.951  13.772 -0.3034  0.0740  0.3537
 2723DOPC   C3A31947  25.376   5.386  13.890 -0.0323 -0.0343  0.4618
 2723DOPC   C4A31948  25.164   5.769  14.067 -0.0509 -0.0878  0.2441
 2723DOPC   C1B31949  25.589   3.998  13.447 -0.0424  0.1997 -0.0681
 2723DOPC   D2B31950  25.656   4.219  13.852 -0.1822 -0.2767  0.1679
 2723DOPC   C3B31951  25.750   4.112  14.308  0.1507  0.0163 -0.0031
 2723DOPC   C4B31952  26.024   3.880  14.656  0.2050 -0.3253  0.1218
 2724DOPC   NC331953  29.511   3.731  12.710 -0.1944 -0.0632 -0.0140
 2724DOPC   PO431954  29.287   3.533  12.924  0.4055  0.0001 -0.1644
 2724DOPC   GL131955  28.859   3.563  12.839 -0.4764  0.3214  0.0033
 2724DOPC   GL231956  28.730   3.620  12.646 -0.1832 -0.0049 -0.2954
 2724DOPC   C1A31957  28.515   3.306  13.066  0.3662  0.1116  0.0079
 2724DOPC   D2A31958  28.284   3.289  13.410  0.2513  0.0440 -0.0297
 2724DOPC   C3A31959  28.273   3.478  13.828 -0.1774  0.1746 -0.0512
 2724DOPC   C4A31960  28.274   3.422  14.278  0.2020 -0.1668 -0.0733
 2724DOPC   C1B31961  28.274   3.674  12.720 -0.1420 -0.1204 -0.1402
 2724DOPC   D2B31962  27.954   3.856  12.989  0.0870 -0.2878 -0.0604
 2724DOPC   C3B31963  27.577   3.604  12.963  0.0184  0.1794 -0.0603
 2724DOPC   C4B31964  27.214   3.444  12.644  0.0049 -0.0412 -0.2562
 2725DOPE   NH331965  30.496   2.918  13.310 -0.0437  0.0043 -0.1844
 2725DOPE   PO431966  30.261   2.776  13.483 -0.0080 -0.0091  0.1178
 2725DOPE   GL131967  30.048   2.962  13.745 -0.1052  0.1865  0.0159
 2725DOPE   GL231968  29.862   2.721  13.840  0.1412  0.1595 -0.3389
 2725DOPE   C1A31969  30.174   2.914  14.192 -0.1826 -0.1605 -0.0326
 2725DOPE   D2A31970  30.230   3.009  14.690  0.2356  0.1730  0.3380
 2725DOPE   C3A31971  29.795   3.150  14.826  0.1147  0.0612  0.2847
 2725DOPE   C4A31972  29.345   3.152  14.618 -0.3805 -0.0694 -0.2975
 2725DOPE   C1B31973  29.636   2.377  14.024 -0.2203 -0.1116  0.1277
 2725DOPE   D2B31974  29.347   2.155  14.388  0.1476  0.2648 -0.0328
 2725DOPE   C3B31975  29.265   2.467  14.762  0.0488  0.1542  0.0174
 2725DOPE   C4B31976  29.122   2.870  14.992 -0.1838  0.2559  0.0072
 2726DOPC   NC331977  25.931   3.025  12.365 -0.0360  0.1823 -0.0346
 2726DOPC   PO431978  25.601   3.108  12.131  0.2954 -0.0739 -0.2317
 2726DOPC   GL131979  25.352   3.100  12.418  0.0157  0.1199  0.1876
 2726DOPC   GL231980  25.493   3.273  12.644 -0.3483  0.2599  0.0610
 2726DOPC   C1A31981  25.322   2.752  12.689 -0.3403 -0.0825  0.2650
 2726DOPC   D2A31982  25.318   2.429  12.982 -0.1175 -0.0323  0.2767
 2726DOPC   C3A31983  25.013   2.422  13.417 -0.0791 -0.0872  0.3407
 2726DOPC   C4A31984  24.711   2.127  13.619 -0.1850  0.3340  0.0323
 2726DOPC   C1B31985  25.294   3.202  13.037 -0.0807  0.2339 -0.1872
 2726DOPC   D2B31986  25.167   2.954  13.391  0.0319  0.1228  0.1536
 2726DOPC   C3B31987  25.342   2.977  13.782 -0.0048  0.1189  0.3703
 2726DOPC   C4B31988  25.400   2.801  14.199 -0.0424  0.1776 -0.2826
 2727DOPC   NC331989  30.789  11.461  12.242  0.2832  0.1450 -0.0956
 2727DOPC   PO431990  31.144  11.571  12.370  0.0741  0.1138  0.3530
 2727DOPC   GL131991  31.053  11.371  12.701  0.1824  0.0939  0.1859
 2727DOPC   GL231992  31.231  11.501  12.877  0.1685 -0.0441 -0.1257
 2727DOPC   C1A31993  30.914  11.147  13.126 -0.3862 -0.2640  0.3377
 2727DOPC   D2A31994  30.919  10.815  13.473 -0.2233  0.0266  0.0971
 2727DOPC   C3A31995  30.636  10.430  13.331  0.1845 -0.0201  0.0220
 2727DOPC   C4A31996  30.530  10.271  12.864  0.3057  0.0891 -0.2273
 2727DOPC   C1B31997  31.650  11.324  13.012  0.0449  0.2727 -0.0061
 2727DOPC   D2B31998  31.918  11.232  13.453 -0.0426  0.2390 -0.5249
 2727DOPC   C3B31999  31.852  10.807  13.657  0.0685  0.1612 -0.0701
 2727DOPC   C4B32000  31.600  10.440  13.559  0.2137 -0.0720 -0.3356
 2728POSM   NC332001  28.073  10.551  11.743 -0.2365 -0.1152  0.3216
 2728POSM   PO432002  28.371  10.553  12.023  0.0449 -0.1404  0.0689
 2728POSM   AM132003  28.368  10.469  12.340  0.0631 -0.1007 -0.2750
 2728POSM   AM232004  28.543  10.614  12.536 -0.0833  0.1157  0.0342
 2728POSM   T1A32005  28.383  10.084  12.656  0.0528  0.1064 -0.1365
 2728POSM   C2A32006  28.558  10.072  13.086  0.0862  0.2438 -0.0824
 2728POSM   C3A32007  28.832   9.985  13.465  0.2499  0.0665  0.2444
 2728POSM   C1B32008  28.554  10.640  12.884  0.4395 -0.0740 -0.2400
 2728POSM   D2B32009  28.376  10.816  13.267 -0.2407  0.0252  0.6039
 2728POSM   C3B32010  28.301  11.041  13.613  0.0242 -0.0618 -0.0803
 2728POSM   C4B32011  28.126  11.328  13.922  0.1250 -0.2762 -0.0561
 2729DOPE   NH332012  30.179   3.672  12.595 -0.1640  0.0228 -0.1745
 2729DOPE   PO432013  30.032   3.940  12.770  0.1325  0.0593 -0.1634
 2729DOPE   GL132014  29.969   4.267  12.665 -0.2483 -0.1548 -0.2415
 2729DOPE   GL232015  29.747   4.310  12.888  0.2698  0.2869 -0.0535
 2729DOPE   C1A32016  29.798   4.676  12.504 -0.0746 -0.1675 -0.2806
 2729DOPE   D2A32017  29.617   5.064  12.315  0.1093  0.0721  0.3953
 2729DOPE   C3A32018  29.360   4.973  12.664  0.1919 -0.0119 -0.2223
 2729DOPE   C4A32019  29.153   4.828  13.103  0.3707  0.0554 -0.3321
 2729DOPE   C1B32020  29.304   4.315  13.056  0.3029  0.3235 -0.1270
 2729DOPE   D2B32021  29.021   4.451  13.404  0.1936  0.2769  0.3584
 2729DOPE   C3B32022  28.750   4.148  13.665  0.1178 -0.0877 -0.0700
 2729DOPE   C4B32023  28.684   3.769  13.924  0.2164  0.0858 -0.1544
 2730DOPS   CNO32024  29.365   3.135  12.497  0.0822 -0.0591 -0.4616
 2730DOPS   PO432025  29.204   3.439  12.389  0.0274 -0.0108 -0.0501
 2730DOPS   GL132026  28.969   3.808  12.325  0.1213 -0.3582 -0.3692
 2730DOPS   GL232027  29.043   3.978  12.640  0.0072 -0.3254  0.3722
 2730DOPS   C1A32028  28.577   4.015  12.463 -0.0864 -0.4622 -0.1906
 2730DOPS   D2A32029  28.416   4.431  12.323  0.0246  0.0183 -0.2015
 2730DOPS   C3A32030  28.059   4.660  12.597  0.0055 -0.4113  0.0531
 2730DOPS   C4A32031  27.712   4.518  12.890  0.0285  0.0460  0.1315
 2730DOPS   C1B32032  28.815   3.995  13.077  0.0895  0.1859  0.0456
 2730DOPS   D2B32033  28.522   3.774  13.408 -0.0757  0.0379  0.1013
 2730DOPS   C3B32034  28.104   3.952  13.511  0.1025 -0.3740  0.0578
 2730DOPS   C4B32035  27.947   4.303  13.281  0.0443 -0.0768 -0.4629
 2731DOPC   NC332036  27.166  10.596  12.408 -0.1339  0.1730 -0.1083
 2731DOPC   PO432037  27.360  10.944  12.543  0.0286  0.0868 -0.0883
 2731DOPC   GL132038  27.642  10.741  12.658  0.0437  0.1053  0.1769
 2731DOPC   GL232039  27.592  10.684  12.957 -0.0489  0.1552  0.1055
 2731DOPC   C1A32040  27.992  10.954  12.923 -0.0800 -0.2208  0.3257
 2731DOPC   D2A32041  28.232  11.306  13.211  0.3547 -0.2394 -0.1037
 2731DOPC   C3A32042  28.150  11.680  13.482  0.0573 -0.1905 -0.1218
 2731DOPC   C4A32043  28.251  11.936  13.872  0.0291 -0.2177 -0.0488
 2731DOPC   C1B32044  27.460  10.941  13.307  0.2797 -0.2573  0.1132
 2731DOPC   D2B32045  27.427  11.224  13.697  0.0544  0.2544 -0.0249
 2731DOPC   C3B32046  27.186  11.536  13.901 -0.0530 -0.2365 -0.2004
 2731DOPC   C4B32047  26.895  11.838  14.068 -0.3819  0.2864  0.2770
 2732DOPE   NH332048  25.210   3.693  12.579 -0.0146 -0.0622  0.1868
 2732DOPE   PO432049  25.005   3.817  12.438  0.0184  0.3245 -0.0308
 2732DOPE   GL132050  24.744   3.630  12.655 -0.2858 -0.2112 -0.3165
 2732DOPE   GL232051  24.817   3.638  12.911  0.0115  0.2314  0.2436
 2732DOPE   C1A32052  24.336   3.786  12.851 -0.0268  0.1201  0.3165
 2732DOPE   D2A32053  23.925   3.903  12.879  0.2255 -0.3707 -0.2495
 2732DOPE   C3A32054  23.869   4.330  13.047 -0.0466  0.1997  0.0708
 2732DOPE   C4A32055  23.556   4.553  13.321  0.3486  0.1254  0.1144
 2732DOPE   C1B32056  24.641   3.930  13.191  0.3197  0.0815  0.0900
 2732DOPE   D2B32057  24.353   4.249  13.422  0.3573 -0.1326  0.1674
 2732DOPE   C3B32058  23.947   4.320  13.515  0.2173  0.3474 -0.1355
 2732DOPE   C4B32059  23.501   4.206  13.693 -0.1576  0.2861  0.0559
 2733DOPE   NH332060  30.381   5.835  12.286  0.2411 -0.0107  0.4416
 2733DOPE   PO432061  30.288   5.496  12.240 -0.1495  0.2216 -0.3625
 2733DOPE   GL132062  30.003   5.491  12.496  0.0414 -0.4234  0.0814
 2733DOPE   GL232063  29.927   5.746  12.570 -0.0696  0.1858 -0.1267
 2733DOPE   C1A32064  29.610   5.399  12.707 -0.3124 -0.0012 -0.3212
 2733DOPE   D2A32065  29.183   5.405  12.836  0.2704  0.1979  0.1198
 2733DOPE   C3A32066  28.909   5.378  12.479  0.0529 -0.0807  0.2596
 2733DOPE   C4A32067  28.981   5.448  12.028 -0.0013  0.1153  0.1239
 2733DOPE   C1B32068  30.007   5.852  12.995  0.1249  0.0320  0.2556
 2733DOPE   D2B32069  30.006   6.115  13.365  0.2489 -0.2050 -0.1850
 2733DOPE   C3B32070  29.567   6.379  13.398  0.0431  0.2396  0.2643
 2733DOPE   C4B32071  29.372   6.726  13.631  0.2266 -0.0226  0.0425
 2734POSM   NC332072  32.885   6.742  12.147  0.1542  0.1112 -0.1688
 2734POSM   PO432073  32.871   7.022  12.418 -0.2919 -0.2183  0.0562
 2734POSM   AM132074  32.860   7.248  12.704  0.1096 -0.1670 -0.0948
 2734POSM   AM232075  32.728   7.478  12.781  0.2770 -0.0548  0.1006
 2734POSM   T1A32076  33.044   7.332  13.160 -0.2103  0.1611  0.0451
 2734POSM   C2A32077  33.437   7.446  13.390  0.0069  0.2827 -0.0901
 2734POSM   C3A32078  33.587   7.599  13.833 -0.2582  0.3936 -0.2123
 2734POSM   C1B32079  32.584   7.667  12.993 -0.0760  0.2528 -0.1382
 2734POSM   D2B32080  32.634   7.974  13.392 -0.0964 -0.3114  0.0615
 2734POSM   C3B32081  32.278   8.049  13.639 -0.2012  0.1659  0.0752
 2734POSM   C4B32082  32.119   8.415  13.919  0.1941  0.2935 -0.1008
 2735POSM   NC332083  32.846  11.853  12.013  0.1248 -0.2695  0.1997
 2735POSM   PO432084  32.589  11.584  11.840 -0.0011 -0.0225 -0.1410
 2735POSM   AM132085  32.610  11.446  12.151  0.6423 -0.3729 -0.2557
 2735POSM   AM232086  32.457  11.495  12.423  0.0215 -0.1502 -0.1456
 2735POSM   T1A32087  32.478  11.017  12.433 -0.1873 -0.0610 -0.3353
 2735POSM   C2A32088  32.404  11.007  12.918 -0.0053 -0.0765 -0.2400
 2735POSM   C3A32089  32.062  10.880  13.168  0.0507 -0.1706 -0.0945
 2735POSM   C1B32090  32.604  11.485  12.720  0.0003  0.1865 -0.2314
 2735POSM   D2B32091  32.892  11.693  13.082  0.1129  0.0780 -0.1119
 2735POSM   C3B32092  33.324  11.885  13.035  0.0472 -0.1695  0.0735
 2735POSM   C4B32093  33.510  12.287  12.950  0.3898 -0.0920 -0.0317
 2736DOPC   NC332094  24.355   3.726  12.348  0.0620 -0.1645 -0.0363
 2736DOPC   PO432095  24.004   3.932  12.254 -0.0297 -0.0318  0.2187
 2736DOPC   GL132096  24.050   4.198  12.574 -0.1354 -0.1919  0.3012
 2736DOPC   GL232097  24.313   4.193  12.527 -0.1496  0.1364 -0.1334
 2736DOPC   C1A32098  24.139   4.660  12.554 -0.0046  0.0839 -0.0724
 2736DOPC   D2A32099  24.381   4.990  12.393 -0.1050 -0.1729 -0.0103
 2736DOPC   C3A32100  24.325   5.307  12.109  0.1697  0.3547 -0.3221
 2736DOPC   C4A32101  24.118   5.747  12.062 -0.1205 -0.1835 -0.0077
 2736DOPC   C1B32102  24.454   4.300  12.942 -0.0843 -0.1532 -0.1221
 2736DOPC   D2B32103  24.552   4.740  13.097  0.0210 -0.0593 -0.1807
 2736DOPC   C3B32104  24.234   4.755  13.393 -0.2133  0.0716  0.2561
 2736DOPC   C4B32105  24.321   4.926  13.787  0.0659 -0.0279  0.2036
 2737DOPC   NC332106  27.607  10.560  12.060 -0.0450 -0.1233 -0.3317
 2737DOPC   PO432107  27.311  10.297  12.005  0.2623  0.2278  0.5231
 2737DOPC   GL132108  27.246  10.041  12.292  0.1163  0.2489 -0.0721
 2737DOPC   GL232109  27.315   9.802  12.273  0.2439  0.4677 -0.1105
 2737DOPC   C1A32110  26.908   9.939  12.601 -0.3639 -0.1650 -0.4685
 2737DOPC   D2A32111  26.542   9.836  12.836 -0.0644 -0.0566 -0.1073
 2737DOPC   C3A32112  26.485   9.356  12.856  0.3025  0.2230 -0.0039
 2737DOPC   C4A32113  26.370   8.904  12.921  0.2670 -0.1850 -0.1962
 2737DOPC   C1B32114  27.405   9.774  12.746 -0.2043  0.2769 -0.1335
 2737DOPC   D2B32115  27.144   9.861  13.134 -0.0239  0.0418 -0.0016
 2737DOPC   C3B32116  27.092   9.764  13.559 -0.1980 -0.3887  0.4206
 2737DOPC   C4B32117  27.149  10.042  13.920 -0.2112  0.0576 -0.2064
 2738DOPC   NC332118  29.825   7.447  12.459 -0.0005  0.0738  0.2607
 2738DOPC   PO432119  29.903   7.312  12.823  0.0448 -0.3638  0.0195
 2738DOPC   GL132120  30.190   7.205  13.112  0.0084  0.3038 -0.1121
 2738DOPC   GL232121  30.075   7.214  13.353  0.2117 -0.0851  0.2155
 2738DOPC   C1A32122  30.499   7.301  13.444 -0.3167  0.1062  0.2496
 2738DOPC   D2A32123  30.679   7.282  13.872 -0.2317 -0.0274 -0.0273
 2738DOPC   C3A32124  30.964   6.890  14.021 -0.0907  0.1295 -0.2419
 2738DOPC   C4A32125  31.425   6.700  14.058 -0.3025 -0.1059 -0.1178
 2738DOPC   C1B32126  30.055   7.504  13.663  0.0014  0.0124  0.2310
 2738DOPC   D2B32127  30.297   7.782  13.960 -0.1747  0.2505 -0.2195
 2738DOPC   C3B32128  30.376   7.484  14.241 -0.0688  0.1749  0.0114
 2738DOPC   C4B32129  30.675   7.146  14.352 -0.2601  0.2031 -0.0767
 2739POSM   NC332130  26.209   3.693  12.118  0.1238  0.1248  0.1843
 2739POSM   PO432131  26.233   3.332  12.132 -0.2522  0.0827 -0.2186
 2739POSM   AM132132  26.528   3.409  12.241  0.0240 -0.2387 -0.1701
 2739POSM   AM232133  26.658   3.554  12.468 -0.0319  0.0280  0.1214
 2739POSM   T1A32134  27.023   3.329  12.199  0.0278 -0.0388  0.0903
 2739POSM   C2A32135  27.505   3.311  12.257 -0.3007  0.3449 -0.1002
 2739POSM   C3A32136  27.709   3.701  12.383  0.2339  0.0954  0.1416
 2739POSM   C1B32137  26.707   3.303  12.632  0.3670 -0.0024  0.3033
 2739POSM   D2B32138  26.539   2.972  12.911  0.0179  0.2363  0.0111
 2739POSM   C3B32139  26.205   2.743  13.068  0.1415 -0.0614 -0.1885
 2739POSM   C4B32140  25.895   2.414  13.182  0.0810  0.1350  0.0855
 2740DOPC   NC332141  25.076   9.910  12.629  0.0451  0.2187  0.1386
 2740DOPC   PO432142  25.141  10.273  12.544  0.3468 -0.2166 -0.3461
 2740DOPC   GL132143  25.171  10.354  12.976  0.0654  0.0262 -0.2880
 2740DOPC   GL232144  25.411  10.215  12.980  0.1958  0.0520  0.5445
 2740DOPC   C1A32145  24.911  10.008  13.154  0.0200 -0.0622 -0.1599
 2740DOPC   D2A32146  24.705  10.070  13.494 -0.0860 -0.0096 -0.0499
 2740DOPC   C3A32147  24.793   9.690  13.790 -0.2772 -0.0538 -0.1041
 2740DOPC   C4A32148  25.127   9.324  13.831 -0.1688  0.0891 -0.0320
 2740DOPC   C1B32149  25.278  10.176  13.443 -0.2048 -0.0709 -0.2052
 2740DOPC   D2B32150  25.088  10.062  13.863 -0.0526  0.1436 -0.0183
 2740DOPC   C3B32151  25.055  10.410  14.219 -0.0330  0.1030 -0.2237
 2740DOPC   C4B32152  24.892  10.809  14.326  0.1883  0.0830  0.3769
 2741POSM   NC332153  33.976   3.640  13.011 -0.2048 -0.4340  0.3384
 2741POSM   PO432154  33.932   3.709  12.621 -0.1820  0.1833  0.0558
 2741POSM   AM132155  33.633   3.813  12.697 -0.3129 -0.0812  0.0625
 2741POSM   AM232156  33.406   3.860  12.557  0.1124  0.1531  0.0337
 2741POSM   T1A32157  33.496   4.196  13.059  0.0355 -0.0405  0.0838
 2741POSM   C2A32158  33.508   4.363  13.510 -0.0398 -0.1257 -0.1182
 2741POSM   C3A32159  33.721   4.568  13.912 -0.2483 -0.1889 -0.0270
 2741POSM   C1B32160  33.172   3.933  12.781 -0.2763  0.0240  0.0223
 2741POSM   D2B32161  32.857   4.079  13.068  0.2188 -0.0953  0.4160
 2741POSM   C3B32162  32.953   4.263  13.489 -0.1766 -0.2957  0.1117
 2741POSM   C4B32163  32.992   4.601  13.799  0.0446  0.1171 -0.2921
 2742DOPS   CNO32164  31.886   1.419  12.656 -0.1290  0.3427 -0.1603
 2742DOPS   PO432165  31.717   1.181  12.894  0.2114 -0.0089  0.1187
 2742DOPS   GL132166  31.542   1.303  13.243 -0.3648  0.4371 -0.2415
 2742DOPS   GL232167  31.253   1.380  13.124 -0.0443 -0.1278  0.3798
 2742DOPS   C1A32168  31.864   1.542  13.529  0.0653  0.0635 -0.1524
 2742DOPS   D2A32169  32.178   1.576  13.874  0.1563 -0.0434 -0.1702
 2742DOPS   C3A32170  32.214   1.482  14.360  0.1639  0.2129 -0.0637
 2742DOPS   C4A32171  32.014   1.506  14.723  0.2363 -0.0125  0.2430
 2742DOPS   C1B32172  31.320   1.690  13.461 -0.1713 -0.0883  0.0308
 2742DOPS   D2B32173  31.586   1.965  13.717  0.2698 -0.3831  0.0791
 2742DOPS   C3B32174  31.951   2.052  14.005  0.1140  0.2074 -0.0450
 2742DOPS   C4B32175  32.221   2.371  14.155  0.0413  0.1664 -0.1765
 2743DOPC   NC332176  27.181   5.359  12.263 -0.1343 -0.0191  0.0156
 2743DOPC   PO432177  27.433   5.652  12.352 -0.2622 -0.2972 -0.0062
 2743DOPC   GL132178  27.788   5.595  12.518 -0.0287 -0.1426 -0.2608
 2743DOPC   GL232179  28.008   5.716  12.381  0.0698 -0.3358  0.4041
 2743DOPC   C1A32180  28.073   5.377  12.785  0.3165  0.0865  0.1917
 2743DOPC   D2A32181  28.205   5.168  13.158 -0.0853 -0.0055  0.2373
 2743DOPC   C3A32182  28.118   4.721  13.069  0.0668  0.6626  0.0023
 2743DOPC   C4A32183  28.376   4.368  12.993 -0.3275  0.2438 -0.1430
 2743DOPC   C1B32184  28.492   5.701  12.345  0.2269  0.0538 -0.1348
 2743DOPC   D2B32185  28.936   5.859  12.266 -0.0754  0.0612  0.1414
 2743DOPC   C3B32186  29.298   5.786  12.544 -0.0348 -0.2274  0.0373
 2743DOPC   C4B32187  29.477   5.890  12.960  0.2598  0.0676 -0.2437
 2744DOPS   CNO32188  23.722  10.040  12.060  0.2678 -0.1340 -0.0038
 2744DOPS   PO432189  23.957   9.864  12.303 -0.5059  0.0449 -0.1537
 2744DOPS   GL132190  23.836   9.847  12.679 -0.0316 -0.1415  0.3150
 2744DOPS   GL232191  24.063   9.864  12.871  0.2121 -0.2660 -0.1328
 2744DOPS   C1A32192  23.783   9.494  13.047 -0.0874  0.3787  0.0398
 2744DOPS   D2A32193  23.868   9.686  13.488  0.0533  0.2625  0.1720
 2744DOPS   C3A32194  23.522   9.956  13.655 -0.1538 -0.0694  0.3517
 2744DOPS   C4A32195  23.183  10.258  13.722 -0.0781 -0.1502  0.0199
 2744DOPS   C1B32196  24.085  10.087  13.299  0.2975  0.0815 -0.1929
 2744DOPS   D2B32197  24.245   9.935  13.698  0.2065 -0.3484  0.2762
 2744DOPS   C3B32198  24.135  10.213  14.039  0.1312 -0.0714  0.0089
 2744DOPS   C4B32199  23.901  10.568  14.228  0.0678 -0.1172 -0.0348
 2745DOPE   NH332200  27.118   7.647  12.343  0.0889 -0.1489 -0.1337
 2745DOPE   PO432201  27.136   7.784  12.042 -0.2564  0.1555 -0.1259
 2745DOPE   GL132202  27.344   8.202  12.131 -0.0169 -0.1384  0.0084
 2745DOPE   GL232203  27.379   8.191  12.450 -0.0102 -0.2601 -0.0187
 2745DOPE   C1A32204  27.261   8.630  12.217  0.0119 -0.5935  0.0407
 2745DOPE   D2A32205  27.050   8.998  12.393 -0.1390  0.0154  0.2175
 2745DOPE   C3A32206  27.434   9.233  12.597  0.2321  0.0779 -0.5368
 2745DOPE   C4A32207  27.511   9.376  13.027 -0.3126 -0.1727  0.0047
 2745DOPE   C1B32208  27.834   8.228  12.436  0.2129 -0.0773  0.1718
 2745DOPE   D2B32209  28.287   8.377  12.607 -0.1685  0.3574 -0.2401
 2745DOPE   C3B32210  28.636   8.488  12.901 -0.0663  0.1957  0.0082
 2745DOPE   C4B32211  29.035   8.500  13.106 -0.3316 -0.0567  0.0496
 2746DOPE   NH332212  34.191   2.795  12.832  0.0623 -0.0950  0.2435
 2746DOPE   PO432213  34.026   2.495  12.778 -0.1023  0.2103  0.1313
 2746DOPE   GL132214  33.818   2.513  13.101  0.2183  0.1457 -0.3129
 2746DOPE   GL232215  33.817   2.345  13.389  0.0771 -0.0781 -0.2157
 2746DOPE   C1A32216  34.069   2.727  13.419  0.0619  0.1076 -0.0482
 2746DOPE   D2A32217  34.459   2.648  13.723 -0.0224 -0.4569 -0.2933
 2746DOPE   C3A32218  34.448   2.460  14.180  0.0178  0.5547  0.0550
 2746DOPE   C4A32219  34.538   2.164  14.600 -0.0034 -0.1740  0.0176
 2746DOPE   C1B32220  34.078   2.319  13.778 -0.0271 -0.2751 -0.1266
 2746DOPE   D2B32221  34.102   2.121  14.218 -0.0005  0.0980  0.1807
 2746DOPE   C3B32222  34.460   1.862  14.096  0.0603  0.2485  0.0093
 2746DOPE   C4B32223  34.733   1.538  14.202  0.1767 -0.0176 -0.0320
 2747DOPE   NH332224  30.329   3.813  13.184 -0.1218 -0.2082  0.0764
 2747DOPE   PO432225  30.544   3.874  12.974 -0.0176  0.0304  0.2225
 2747DOPE   GL132226  30.572   4.230  13.250 -0.0593 -0.2939 -0.0240
 2747DOPE   GL232227  30.824   4.088  13.352 -0.0124 -0.1505  0.0734
 2747DOPE   C1A32228  30.449   4.241  13.692 -0.0480 -0.0404  0.2789
 2747DOPE   D2A32229  30.447   4.327  14.144 -0.1118  0.0308 -0.0836
 2747DOPE   C3A32230  30.332   4.075  14.482  0.2606 -0.2833 -0.1158
 2747DOPE   C4A32231  30.128   3.713  14.706  0.0134  0.2463  0.1428
 2747DOPE   C1B32232  31.096   3.744  13.613 -0.1246 -0.2049  0.0457
 2747DOPE   D2B32233  31.263   3.348  13.864  0.3026 -0.0009 -0.0811
 2747DOPE   C3B32234  31.358   3.376  14.328 -0.0548  0.3710 -0.1829
 2747DOPE   C4B32235  31.222   3.207  14.729  0.1439  0.2385  0.0424
 2748DOPC   NC332236  29.082   1.501  12.965 -0.1426 -0.3505 -0.0169
 2748DOPC   PO432237  28.905   1.815  12.788 -0.0104  0.1473  0.2990
 2748DOPC   GL132238  28.813   1.944  13.156  0.1366 -0.0871 -0.0971
 2748DOPC   GL232239  29.138   1.986  13.164 -0.0048  0.0752  0.1158
 2748DOPC   C1A32240  28.324   1.950  13.259 -0.0392  0.3094  0.4141
 2748DOPC   D2A32241  27.971   1.967  13.633  0.0687  0.1836  0.1609
 2748DOPC   C3A32242  27.951   1.636  14.034 -0.1152 -0.1905  0.1749
 2748DOPC   C4A32243  28.256   1.705  14.350  0.2845 -0.1403 -0.0192
 2748DOPC   C1B32244  28.940   1.731  13.471  0.0361 -0.0338  0.2934
 2748DOPC   D2B32245  28.634   1.407  13.409 -0.1711  0.1977  0.0181
 2748DOPC   C3B32246  28.212   1.473  13.585 -0.2009  0.2437  0.0584
 2748DOPC   C4B32247  27.794   1.456  13.592 -0.0809 -0.4029 -0.0398
 2749DOPS   CNO32248  34.260   7.250  12.179  0.0017 -0.1553 -0.1648
 2749DOPS   PO432249  34.493   7.424  12.393 -0.2597  0.1072 -0.0298
 2749DOPS   GL132250  34.506   7.492  12.778 -0.1463  0.3652  0.3121
 2749DOPS   GL232251  34.778   7.631  12.836  0.1437  0.2431 -0.1034
 2749DOPS   C1A32252  34.321   7.500  13.200  0.1053 -0.0591  0.1308
 2749DOPS   D2A32253  33.964   7.566  13.503 -0.0500  0.1246 -0.4694
 2749DOPS   C3A32254  34.040   7.556  13.922  0.2137  0.0621  0.1783
 2749DOPS   C4A32255  34.314   7.344  14.241  0.0150 -0.0211 -0.6036
 2749DOPS   C1B32256  34.654   7.916  13.189  0.1668 -0.3712  0.2531
 2749DOPS   D2B32257  34.214   8.050  13.234 -0.0374 -0.2145  0.0916
 2749DOPS   C3B32258  34.096   8.398  13.499 -0.1938  0.0647  0.0934
 2749DOPS   C4B32259  34.159   8.827  13.590  0.2194 -0.3612  0.2674
 2750DOPS   CNO32260  30.789  10.850  11.588  0.0659  0.0765 -0.2178
 2750DOPS   PO432261  31.062  10.556  11.675  0.1243 -0.0229 -0.2007
 2750DOPS   GL132262  30.914  10.401  12.060 -0.0226 -0.1850 -0.0282
 2750DOPS   GL232263  30.652  10.308  11.972 -0.1537 -0.1313 -0.2414
 2750DOPS   C1A32264  30.864  10.300  12.470  0.0034 -0.0133 -0.0348
 2750DOPS   D2A32265  31.224  10.280  12.716 -0.0959  0.2175  0.1694
 2750DOPS   C3A32266  31.426   9.933  12.987  0.2179  0.0168 -0.2398
 2750DOPS   C4A32267  31.899   9.801  12.896  0.1547  0.1312 -0.1469
 2750DOPS   C1B32268  30.425  10.075  12.352 -0.1532  0.2483 -0.1079
 2750DOPS   D2B32269  30.006   9.809  12.508  0.3759  0.1688  0.3766
 2750DOPS   C3B32270  30.043   9.554  12.871 -0.1559 -0.0959  0.2969
 2750DOPS   C4B32271  29.893   9.489  13.332  0.2046 -0.0608  0.2208
 2751DOPC   NC332272  29.802   8.588  12.606  0.0269 -0.0454 -0.2868
 2751DOPC   PO432273  29.993   8.622  12.294 -0.1518 -0.0411  0.1667
 2751DOPC   GL132274  30.213   8.885  12.452  0.0268 -0.1536  0.2608
 2751DOPC   GL232275  29.942   9.080  12.580 -0.2209 -0.1498  0.0103
 2751DOPC   C1A32276  30.367   9.266  12.660  0.0346 -0.2574  0.1739
 2751DOPC   D2A32277  30.497   9.702  12.688  0.1014 -0.0870  0.1244
 2751DOPC   C3A32278  30.734   9.848  13.077  0.2499  0.3392 -0.1259
 2751DOPC   C4A32279  31.116   9.933  13.358 -0.1067  0.1027  0.0804
 2751DOPC   C1B32280  29.982   9.053  13.040  0.1805 -0.2942 -0.2477
 2751DOPC   D2B32281  30.269   9.020  13.434 -0.1548  0.0190 -0.1168
 2751DOPC   C3B32282  30.423   8.684  13.712 -0.2368 -0.2222 -0.2919
 2751DOPC   C4B32283  30.785   8.360  13.832  0.2433 -0.4919  0.1803
 2752DOPS   CNO32284  26.370   4.812  12.156 -0.2904  0.2085  0.0128
 2752DOPS   PO432285  26.555   4.777  12.478  0.1681 -0.3004  0.3788
 2752DOPS   GL132286  26.642   4.542  12.776  0.2738 -0.2734 -0.0019
 2752DOPS   GL232287  26.803   4.324  12.857 -0.2040 -0.3200  0.0203
 2752DOPS   C1A32288  26.497   4.474  13.247  0.0545 -0.1719  0.2274
 2752DOPS   D2A32289  26.047   4.460  13.414 -0.3725  0.0280  0.1117
 2752DOPS   C3A32290  25.938   4.731  13.754 -0.0464 -0.2605  0.0711
 2752DOPS   C4A32291  25.830   5.109  14.023 -0.1335  0.2838 -0.0330
 2752DOPS   C1B32292  27.209   4.391  12.974 -0.3893 -0.1034 -0.1300
 2752DOPS   D2B32293  27.472   4.097  13.275  0.1152  0.2455  0.1017
 2752DOPS   C3B32294  27.191   4.024  13.697  0.1245 -0.0358 -0.0413
 2752DOPS   C4B32295  27.033   3.903  14.088 -0.1295 -0.0468  0.0851
 2753DOPS   CNO32296  27.743   6.771  12.312  0.0352 -0.0492  0.1177
 2753DOPS   PO432297  27.810   6.780  12.671 -0.3881 -0.3361 -0.1236
 2753DOPS   GL132298  27.838   6.681  12.947  0.1282 -0.2187 -0.0132
 2753DOPS   GL232299  27.643   6.693  13.180  0.3207 -0.0325  0.3464
 2753DOPS   C1A32300  28.028   6.273  13.103  0.0278 -0.1796 -0.0724
 2753DOPS   D2A32301  28.105   5.997  13.411  0.0262  0.1323 -0.0237
 2753DOPS   C3A32302  28.420   5.585  13.334 -0.2068 -0.0248 -0.1827
 2753DOPS   C4A32303  28.888   5.490  13.460 -0.0390 -0.1986  0.0416
 2753DOPS   C1B32304  27.228   6.750  13.340 -0.0666  0.2182  0.0482
 2753DOPS   D2B32305  26.930   6.568  13.732  0.1429  0.1605 -0.1326
 2753DOPS   C3B32306  26.773   6.928  14.010 -0.1953 -0.3195 -0.3139
 2753DOPS   C4B32307  26.841   7.254  14.319 -0.0966 -0.2817 -0.1068
 2754DOPC   NC332308  25.171   8.838  12.131  0.0914 -0.0298 -0.1511
 2754DOPC   PO432309  25.317   8.480  12.254 -0.2981  0.0306 -0.0650
 2754DOPC   GL132310  25.203   8.598  12.599 -0.0024  0.5288 -0.0774
 2754DOPC   GL232311  24.846   8.685  12.500 -0.5062  0.1188 -0.1513
 2754DOPC   C1A32312  25.183   8.690  13.039 -0.1975  0.0029  0.1468
 2754DOPC   D2A32313  25.417   8.703  13.494 -0.1017  0.2236  0.1141
 2754DOPC   C3A32314  25.433   8.340  13.755  0.1771  0.1325  0.4358
 2754DOPC   C4A32315  25.290   8.037  14.109  0.4834 -0.1046 -0.1793
 2754DOPC   C1B32316  24.819   9.013  12.840  0.2777 -0.1877 -0.2255
 2754DOPC   D2B32317  24.882   9.463  13.037  0.1798 -0.3448  0.2927
 2754DOPC   C3B32318  25.118   9.571  13.415 -0.2928 -0.3306  0.1736
 2754DOPC   C4B32319  25.482   9.796  13.219 -0.3090  0.2390 -0.2795
 2755DOPE   NH332320  33.231   0.669  12.315  0.1195  0.0122  0.1180
 2755DOPE   PO432321  33.320   0.592  12.588  0.0864  0.0498 -0.2762
 2755DOPE   GL132322  33.388   0.657  13.004 -0.0487  0.5885 -0.4110
 2755DOPE   GL232323  33.182   0.889  13.060 -0.0541  0.1655 -0.1599
 2755DOPE   C1A32324  33.363   0.491  13.447  0.0739 -0.0120  0.1589
 2755DOPE   D2A32325  32.985   0.238  13.607 -0.1100 -0.2153  0.0272
 2755DOPE   C3A32326  33.123  -0.197  13.615 -0.1261 -0.1481 -0.0126
 2755DOPE   C4A32327  33.011  -0.588  13.470 -0.2223 -0.0320  0.0843
 2755DOPE   C1B32328  33.083   0.853  13.484  0.2017  0.0413 -0.1906
 2755DOPE   D2B32329  33.198   0.634  13.873  0.2651 -0.0685 -0.2026
 2755DOPE   C3B32330  33.284   0.360  14.271  0.0184  0.0307  0.1950
 2755DOPE   C4B32331  33.252   0.191  14.711 -0.1880 -0.0766  0.0297
 2756DOPE   NH332332  23.865  10.543  12.130 -0.2191 -0.2162  0.1725
 2756DOPE   PO432333  23.623  10.695  12.017  0.0164  0.0041 -0.1752
 2756DOPE   GL132334  23.485  10.792  12.367 -0.0412  0.2080 -0.1382
 2756DOPE   GL232335  23.532  11.125  12.384  0.0491  0.2472 -0.0093
 2756DOPE   C1A32336  23.260  10.863  12.757 -0.3711  0.2542  0.4606
 2756DOPE   D2A32337  22.950  10.703  13.013  0.0465  0.0426  0.5376
 2756DOPE   C3A32338  22.864  11.028  13.365 -0.2005  0.1264  0.0131
 2756DOPE   C4A32339  22.661  11.420  13.313  0.0074 -0.1880 -0.4110
 2756DOPE   C1B32340  23.539  11.252  12.825 -0.0437  0.1385  0.1917
 2756DOPE   D2B32341  23.508  11.586  13.118  0.2573 -0.1145 -0.1441
 2756DOPE   C3B32342  23.681  11.632  13.504  0.1260 -0.1124 -0.1995
 2756DOPE   C4B32343  23.630  11.503  13.977 -0.1346  0.0368  0.0867
 2757POSM   NC332344  28.990   3.197  13.120  0.2647 -0.2030  0.0872
 2757POSM   PO432345  29.337   2.980  13.037  0.1806 -0.1460  0.0222
 2757POSM   AM132346  29.256   2.903  13.380  0.1348 -0.0544  0.3619
 2757POSM   AM232347  29.247   3.051  13.622  0.0585  0.4164  0.0242
 2757POSM   T1A32348  28.853   2.777  13.710 -0.0376 -0.1326 -0.2863
 2757POSM   C2A32349  28.736   2.617  14.120 -0.0835  0.0865  0.1102
 2757POSM   C3A32350  28.470   2.668  14.456  0.0415  0.0631 -0.1526
 2757POSM   C1B32351  29.405   2.920  13.856  0.0116 -0.1441  0.1245
 2757POSM   D2B32352  29.356   2.766  14.285  0.0741  0.1491  0.0495
 2757POSM   C3B32353  28.943   2.883  14.486 -0.0495  0.0274 -0.0244
 2757POSM   C4B32354  28.695   2.989  14.786 -0.0644 -0.0132 -0.1196
 2758DOPS   CNO32355  33.027  10.999  11.629 -0.1751  0.0241 -0.1816
 2758DOPS   PO432356  32.859  11.204  11.891 -0.1154 -0.1673 -0.2433
 2758DOPS   GL132357  32.819  10.901  12.159  0.0920 -0.2589 -0.1715
 2758DOPS   GL232358  32.927  10.657  12.036  0.1499 -0.0350 -0.1577
 2758DOPS   C1A32359  32.623  10.573  12.415  0.0630  0.3025  0.2360
 2758DOPS   D2A32360  32.459  10.184  12.541 -0.2268  0.1624  0.0996
 2758DOPS   C3A32361  32.076   9.970  12.485 -0.2362 -0.0359 -0.2284
 2758DOPS   C4A32362  31.605   9.987  12.481 -0.0017 -0.1573 -0.2228
 2758DOPS   C1B32363  32.865  10.186  12.046 -0.0972 -0.3214  0.3027
 2758DOPS   D2B32364  32.959   9.801  12.249 -0.1131 -0.2184 -0.0109
 2758DOPS   C3B32365  32.551   9.723  12.467  0.0747 -0.0594 -0.0303
 2758DOPS   C4B32366  32.394   9.644  12.908  0.0350 -0.0098  0.3242
 2759DOPC   NC332367  30.100   2.476  12.952 -0.0746 -0.1477 -0.0964
 2759DOPC   PO432368  30.338   2.623  12.665 -0.0060  0.3329  0.0842
 2759DOPC   GL132369  30.630   2.539  12.960  0.0687 -0.1600 -0.0562
 2759DOPC   GL232370  30.519   2.412  13.239 -0.0833  0.2219 -0.1909
 2759DOPC   C1A32371  30.833   2.146  12.953  0.2213  0.2766  0.2089
 2759DOPC   D2A32372  30.922   1.766  13.238  0.1002 -0.1698  0.0313
 2759DOPC   C3A32373  30.651   1.859  13.626  0.1302  0.2950 -0.3132
 2759DOPC   C4A32374  30.694   2.107  14.021  0.4698 -0.0192  0.1368
 2759DOPC   C1B32375  30.382   1.986  13.178 -0.1509  0.1355 -0.1085
 2759DOPC   D2B32376  30.459   1.529  13.300  0.3945  0.0541 -0.0178
 2759DOPC   C3B32377  30.333   1.383  13.738  0.0106 -0.2253 -0.2586
 2759DOPC   C4B32378  30.161   1.333  14.128  0.2977 -0.2628  0.2906
 2760DOPE   NH332379  23.349   3.945  12.310 -0.3320  0.0255  0.1529
 2760DOPE   PO432380  23.590   4.032  12.542  0.1181  0.3369  0.2748
 2760DOPE   GL132381  23.439   3.862  12.863  0.2556  0.3114 -0.1762
 2760DOPE   GL232382  23.365   4.089  13.027  0.1265 -0.1472 -0.3795
 2760DOPE   C1A32383  23.558   3.493  13.125 -0.0437  0.6634  0.0814
 2760DOPE   D2A32384  23.798   3.193  13.435  0.2501  0.0038  0.2239
 2760DOPE   C3A32385  23.468   3.178  13.653  0.0946  0.0065  0.0557
 2760DOPE   C4A32386  23.142   2.981  13.834 -0.2430  0.2857 -0.2905
 2760DOPE   C1B32387  23.702   3.956  13.332 -0.2150 -0.1022 -0.0633
 2760DOPE   D2B32388  23.875   3.830  13.724 -0.1157  0.1960  0.3206
 2760DOPE   C3B32389  24.101   3.447  13.804  0.1816 -0.3810  0.1229
 2760DOPE   C4B32390  24.569   3.434  13.833  0.3092  0.1748  0.0016
 2761DOPS   CNO32391  29.593   2.489  12.548  0.3449 -0.0634  0.1169
 2761DOPS   PO432392  29.714   2.811  12.743 -0.0195 -0.2549 -0.0475
 2761DOPS   GL132393  29.671   2.642  13.151 -0.4386  0.0083  0.1899
 2761DOPS   GL232394  29.640   2.326  13.127 -0.0043 -0.2194 -0.0869
 2761DOPS   C1A32395  29.441   2.551  13.554  0.1702 -0.1894  0.1458
 2761DOPS   D2A32396  29.164   2.519  13.941 -0.0295  0.3217  0.0442
 2761DOPS   C3A32397  28.889   2.134  13.934  0.1892  0.0206  0.1562
 2761DOPS   C4A32398  28.562   1.742  13.896  0.4255  0.0284  0.1392
 2761DOPS   C1B32399  29.865   2.249  13.518  0.0706 -0.0569  0.0429
 2761DOPS   D2B32400  30.307   2.214  13.713  0.2929 -0.2595 -0.3046
 2761DOPS   C3B32401  30.175   2.361  14.143 -0.2093 -0.1735  0.0475
 2761DOPS   C4B32402  29.804   2.446  14.467 -0.1050 -0.0092 -0.3304
 2762DOPS   CNO32403  32.893   7.340  11.871  0.2295  0.2709 -0.0395
 2762DOPS   PO432404  32.813   7.490  12.226 -0.1023  0.3001  0.1465
 2762DOPS   GL132405  32.652   7.719  11.912 -0.0942 -0.1828 -0.1382
 2762DOPS   GL232406  32.948   7.846  11.891  0.2133  0.0298 -0.0833
 2762DOPS   C1A32407  32.427   8.036  11.709  0.1011  0.0468 -0.1813
 2762DOPS   D2A32408  32.336   8.455  11.875 -0.0288 -0.3517  0.1004
 2762DOPS   C3A32409  32.685   8.528  11.652 -0.0980  0.2677 -0.2205
 2762DOPS   C4A32410  32.784   8.973  11.605  0.4287  0.3109  0.0243
 2762DOPS   C1B32411  32.781   8.236  12.089  0.0432  0.2088 -0.1619
 2762DOPS   D2B32412  32.485   8.345  12.483 -0.1071  0.2975  0.1726
 2762DOPS   C3B32413  32.164   8.682  12.292 -0.1389  0.0305 -0.3198
 2762DOPS   C4B32414  32.328   9.122  12.453 -0.0943  0.0560  0.0660
 2763DOPE   NH332415  23.572   9.561  12.391  0.4514  0.0411 -0.0870
 2763DOPE   PO432416  23.423   9.858  12.397 -0.0609  0.6310 -0.0867
 2763DOPE   GL132417  23.386   9.775  12.765 -0.4842  0.0184  0.0986
 2763DOPE   GL232418  23.303   9.467  12.819 -0.0700  0.0910  0.3252
 2763DOPE   C1A32419  23.633  10.035  13.129 -0.1332 -0.2628 -0.0649
 2763DOPE   D2A32420  23.758  10.451  13.193 -0.2782  0.2201 -0.1276
 2763DOPE   C3A32421  23.849  10.422  13.651 -0.2367  0.2869 -0.2692
 2763DOPE   C4A32422  23.549  10.435  13.949  0.1628  0.1992  0.2443
 2763DOPE   C1B32423  23.130   9.793  13.108 -0.1540 -0.4626  0.2603
 2763DOPE   D2B32424  22.958   9.849  13.522 -0.1299  0.2824 -0.0685
 2763DOPE   C3B32425  22.635   9.570  13.744  0.0163 -0.1196 -0.1744
 2763DOPE   C4B32426  22.616   9.213  13.972 -0.1809  0.1482 -0.2661
 2764DOPE   NH332427  27.913   6.241  12.568 -0.1069  0.0890  0.3219
 2764DOPE   PO432428  28.218   6.301  12.514  0.0603 -0.2965 -0.2698
 2764DOPE   GL132429  28.319   6.063  12.745 -0.0192  0.1771 -0.3505
 2764DOPE   GL232430  28.157   5.870  12.919  0.0365  0.4003  0.3171
 2764DOPE   C1A32431  28.573   6.064  13.153 -0.0633  0.2593  0.3001
 2764DOPE   D2A32432  28.587   6.046  13.589  0.0321 -0.0109 -0.0621
 2764DOPE   C3A32433  28.229   6.037  13.900 -0.0464  0.2382  0.3778
 2764DOPE   C4A32434  27.969   6.284  14.224 -0.0186 -0.3842  0.1514
 2764DOPE   C1B32435  28.549   5.633  12.826  0.4252 -0.0857 -0.1316
 2764DOPE   D2B32436  28.694   5.208  13.033  0.2712  0.1732  0.1755
 2764DOPE   C3B32437  28.605   4.949  13.347  0.1425  0.0144  0.2453
 2764DOPE   C4B32438  28.374   4.550  13.531 -0.1294 -0.2364 -0.0217
 2765POSM   NC332439  33.954   0.324  12.341  0.1454 -0.1543  0.1803
 2765POSM   PO432440  33.777   0.661  12.477 -0.0510 -0.1532 -0.0159
 2765POSM   AM132441  33.862   0.620  12.771  0.2804 -0.1193 -0.5387
 2765POSM   AM232442  34.014   0.461  12.953  0.3445  0.0555  0.2255
 2765POSM   T1A32443  33.736   0.780  13.251  0.0062 -0.0673  0.1511
 2765POSM   C2A32444  33.565   0.906  13.634  0.2630 -0.2971  0.0387
 2765POSM   C3A32445  33.290   1.127  13.909  0.1279  0.1740 -0.0247
 2765POSM   C1B32446  33.878   0.333  13.219  0.0956 -0.0885 -0.1299
 2765POSM   D2B32447  33.918   0.422  13.692 -0.0887 -0.0228 -0.0320
 2765POSM   C3B32448  33.830   0.140  14.084 -0.1955 -0.1599  0.2224
 2765POSM   C4B32449  33.538  -0.086  14.368  0.0429  0.1220 -0.1402
 2766DOPC   NC332450  31.387   3.970  12.535 -0.2108 -0.3957  0.1577
 2766DOPC   PO432451  31.401   4.358  12.556 -0.1086  0.0173 -0.1630
 2766DOPC   GL132452  31.423   4.352  12.989  0.1651 -0.1398 -0.1427
 2766DOPC   GL232453  31.356   4.577  13.168  0.1918  0.0217 -0.0077
 2766DOPC   C1A32454  31.740   4.313  13.357 -0.1445  0.1632  0.0253
 2766DOPC   D2A32455  31.989   4.568  13.600  0.0485 -0.1295 -0.0165
 2766DOPC   C3A32456  31.804   4.970  13.774 -0.0342  0.0380  0.1420
 2766DOPC   C4A32457  31.710   5.358  14.067 -0.2166  0.1352  0.3214
 2766DOPC   C1B32458  31.450   4.618  13.629  0.1601 -0.0664  0.1557
 2766DOPC   D2B32459  31.594   4.440  13.999  0.0417 -0.0746  0.1119
 2766DOPC   C3B32460  31.960   4.648  14.148 -0.0805 -0.1669 -0.1764
 2766DOPC   C4B32461  32.401   4.650  14.117 -0.2914  0.1228  0.1365
 2767DOPC   NC332462  27.103   5.988  12.824 -0.3584 -0.2565  0.1451
 2767DOPC   PO432463  27.033   5.619  12.730  0.1034  0.2969  0.3319
 2767DOPC   GL132464  27.330   5.311  12.791 -0.1760  0.2417  0.3329
 2767DOPC   GL232465  27.528   5.498  12.856 -0.0997  0.0066  0.3416
 2767DOPC   C1A32466  27.326   5.228  13.261  0.1024 -0.1166 -0.0458
 2767DOPC   D2A32467  27.283   4.958  13.673  0.1534  0.1678  0.0354
 2767DOPC   C3A32468  27.395   4.842  14.119  0.1111  0.1882 -0.2799
 2767DOPC   C4A32469  27.582   4.612  14.522 -0.1240  0.0093  0.2408
 2767DOPC   C1B32470  27.866   5.625  13.208 -0.1690  0.0987  0.3126
 2767DOPC   D2B32471  27.993   5.584  13.680 -0.4503  0.0972  0.1411
 2767DOPC   C3B32472  27.894   5.660  14.141 -0.1017  0.2362  0.3541
 2767DOPC   C4B32473  27.579   5.590  14.483 -0.0013  0.0363  0.1645
 2768DOPE   NH332474  31.200  12.064  12.245 -0.2694 -0.2978 -0.2458
 2768DOPE   PO432475  31.542  11.916  12.150  0.0613  0.1107 -0.1660
 2768DOPE   GL132476  31.897  12.060  12.242  0.0018  0.0372 -0.2952
 2768DOPE   GL232477  32.052  11.744  12.232  0.2202 -0.0547  0.1817
 2768DOPE   C1A32478  32.014  12.100  12.663 -0.1143  0.1378 -0.0851
 2768DOPE   D2A32479  32.009  11.997  13.135 -0.4360  0.0622 -0.1392
 2768DOPE   C3A32480  31.674  11.788  13.316  0.1272 -0.0731 -0.0466
 2768DOPE   C4A32481  31.368  11.677  13.691  0.0394  0.3658  0.0378
 2768DOPE   C1B32482  32.037  11.577  12.676  0.2059 -0.0625 -0.2544
 2768DOPE   D2B32483  32.113  11.538  13.102  0.2005  0.0993 -0.2553
 2768DOPE   C3B32484  32.394  11.347  13.419  0.1762  0.1880 -0.2704
 2768DOPE   C4B32485  32.334  10.948  13.595  0.2308  0.3009 -0.2380
 2769POSM   NC332486  33.439  10.374  12.085 -0.0519  0.1472 -0.3773
 2769POSM   PO432487  33.545  10.742  11.988 -0.2528  0.1468 -0.1368
 2769POSM   AM132488  33.433  10.877  12.273 -0.0039  0.3960 -0.3230
 2769POSM   AM232489  33.493  11.128  12.395 -0.1797  0.4881 -0.1099
 2769POSM   T1A32490  33.117  10.626  12.556 -0.5930 -0.3356 -0.3862
 2769POSM   C2A32491  32.792  10.605  12.946  0.2585  0.1164  0.1808
 2769POSM   C3A32492  32.476  10.561  13.261  0.0507  0.0768  0.1982
 2769POSM   C1B32493  33.531  11.012  12.728 -0.1230  0.2926 -0.3368
 2769POSM   D2B32494  33.317  10.946  13.094  0.0072 -0.0180 -0.0184
 2769POSM   C3B32495  33.569  10.888  13.501 -0.3373  0.0055 -0.1021
 2769POSM   C4B32496  33.619  11.005  13.939 -0.1839  0.0580  0.0578
 2770DOPE   NH332497  30.660   6.493  12.702  0.0472  0.3549 -0.0449
 2770DOPE   PO432498  30.442   6.516  12.483 -0.5120 -0.1655 -0.1167
 2770DOPE   GL132499  30.220   6.196  12.560 -0.1631  0.1771  0.3195
 2770DOPE   GL232500  30.230   6.228  12.835 -0.0386  0.0501  0.0449
 2770DOPE   C1A32501  29.781   6.209  12.664  0.3191 -0.0706  0.0406
 2770DOPE   D2A32502  29.312   6.295  12.704  0.2788 -0.2576  0.2366
 2770DOPE   C3A32503  29.034   6.351  13.101 -0.0905 -0.0383 -0.0101
 2770DOPE   C4A32504  28.953   6.437  13.516 -0.1206 -0.1571  0.3010
 2770DOPE   C1B32505  29.955   6.510  13.026 -0.0286 -0.0883 -0.1426
 2770DOPE   D2B32506  30.006   6.773  13.422  0.1656  0.3201 -0.0991
 2770DOPE   C3B32507  29.813   6.586  13.785 -0.1078 -0.0560  0.0034
 2770DOPE   C4B32508  29.387   6.327  13.895 -0.0129  0.0352 -0.1183
 2771DOPC   NC332509  30.779   5.215  12.546  0.1151 -0.2586  0.2363
 2771DOPC   PO432510  30.905   5.601  12.491 -0.2885 -0.1601  0.0728
 2771DOPC   GL132511  30.831   5.639  12.928 -0.0755 -0.1366  0.0959
 2771DOPC   GL232512  30.789   5.418  13.090  0.0340 -0.2442 -0.2626
 2771DOPC   C1A32513  31.077   5.895  13.249  0.1811  0.0128  0.0074
 2771DOPC   D2A32514  31.514   5.958  13.196  0.3585  0.0326 -0.0555
 2771DOPC   C3A32515  31.657   5.802  13.622 -0.2063  0.0422  0.4707
 2771DOPC   C4A32516  31.676   5.858  14.079  0.3921  0.0411 -0.1541
 2771DOPC   C1B32517  30.770   5.218  13.540 -0.0442  0.0764 -0.0935
 2771DOPC   D2B32518  30.888   4.937  13.898  0.1042  0.0421 -0.0502
 2771DOPC   C3B32519  31.116   5.279  14.154  0.0782  0.0104 -0.0269
 2771DOPC   C4B32520  31.169   5.715  14.183  0.0342  0.1036 -0.1618
 2772DOPS   CNO32521  26.247   1.066  12.635  0.1400 -0.0520 -0.0397
 2772DOPS   PO432522  25.938   1.291  12.606  0.0784 -0.2449  0.0877
 2772DOPS   GL132523  25.787   1.487  12.398 -0.1186  0.0750 -0.1096
 2772DOPS   GL232524  25.544   1.595  12.569  0.1701 -0.1859 -0.0308
 2772DOPS   C1A32525  25.432   1.454  12.075 -0.0625  0.0114 -0.3719
 2772DOPS   D2A32526  24.984   1.373  11.925  0.0264  0.1821 -0.1569
 2772DOPS   C3A32527  24.667   1.726  12.101 -0.0008  0.3633  0.3091
 2772DOPS   C4A32528  24.178   1.817  12.145  0.0628  0.2024  0.0986
 2772DOPS   C1B32529  25.323   1.663  12.962  0.1007 -0.0477  0.1451
 2772DOPS   D2B32530  25.253   1.482  13.392  0.1341  0.1683 -0.3986
 2772DOPS   C3B32531  25.440   1.670  13.734  0.0652  0.1220  0.0333
 2772DOPS   C4B32532  25.535   1.634  14.136 -0.1626 -0.0222  0.0928
 2773DOPE   NH332533  26.917   8.238  12.182 -0.2662  0.0760 -0.0962
 2773DOPE   PO432534  26.741   8.221  12.438  0.2099  0.0367 -0.2216
 2773DOPE   GL132535  26.666   8.522  12.502  0.0066  0.1126 -0.3357
 2773DOPE   GL232536  26.620   8.704  12.323 -0.0515  0.1084 -0.0315
 2773DOPE   C1A32537  26.853   8.732  12.816  0.0130  0.1750  0.3701
 2773DOPE   D2A32538  26.754   8.745  13.273 -0.0766 -0.0964  0.0943
 2773DOPE   C3A32539  26.507   9.139  13.302  0.1147 -0.0571  0.1914
 2773DOPE   C4A32540  26.586   9.654  13.324 -0.0132 -0.1895 -0.0321
 2773DOPE   C1B32541  26.590   9.147  12.361  0.2593 -0.1066  0.1538
 2773DOPE   D2B32542  26.902   9.447  12.322  0.2040  0.2744  0.3295
 2773DOPE   C3B32543  26.961   9.475  12.782  0.0306 -0.0619  0.1454
 2773DOPE   C4B32544  26.989   9.272  13.196  0.1002 -0.0137 -0.0049
 2774DOPE   NH332545  26.872   5.149  12.903 -0.2708 -0.0401 -0.0973
 2774DOPE   PO432546  26.970   4.935  12.690  0.0259  0.1691 -0.2034
 2774DOPE   GL132547  27.225   4.843  13.021 -0.3824 -0.2190  0.4206
 2774DOPE   GL232548  27.018   4.773  13.226  0.0599  0.1256  0.2501
 2774DOPE   C1A32549  27.498   4.606  13.342  0.0396  0.0496 -0.1666
 2774DOPE   D2A32550  27.452   4.502  13.807 -0.0676  0.0232 -0.3251
 2774DOPE   C3A32551  27.026   4.483  14.049  0.3680  0.1086 -0.1482
 2774DOPE   C4A32552  26.867   4.259  14.450 -0.0969  0.3340  0.0733
 2774DOPE   C1B32553  27.007   4.395  13.447 -0.0805 -0.2117 -0.1413
 2774DOPE   D2B32554  26.714   4.012  13.528 -0.1678  0.3580  0.1794
 2774DOPE   C3B32555  26.517   3.950  13.955 -0.1370 -0.1387  0.4924
 2774DOPE   C4B32556  26.194   3.691  14.187  0.0152  0.0394 -0.2998
 2775DOPS   CNO32557   0.041  11.065  11.705  0.0377 -0.1868 -0.4106
 2775DOPS   PO432558  -0.186  11.195  11.989 -0.0075  0.3276 -0.1475
 2775DOPS   GL132559  -0.470  11.257  12.372 -0.2838 -0.2651  0.0615
 2775DOPS   GL232560  -0.727  11.391  12.326  0.1674 -0.0422  0.1172
 2775DOPS   C1A32561  -0.358  11.246  12.837 -0.2131 -0.1301  0.1740
 2775DOPS   D2A32562   0.033  11.149  13.035  0.1178 -0.2983 -0.0644
 2775DOPS   C3A32563  -0.039  11.053  13.461  0.0381 -0.0878 -0.3632
 2775DOPS   C4A32564  -0.089  10.830  13.863  0.0469 -0.2537  0.0794
 2775DOPS   C1B32565  -0.836  11.411  12.776 -0.0275  0.2054 -0.2241
 2775DOPS   D2B32566  -1.004  11.260  13.170  0.1388  0.1241 -0.3043
 2775DOPS   C3B32567  -0.656  11.341  13.503  0.0630 -0.0049  0.1413
 2775DOPS   C4B32568  -0.300  11.300  13.744 -0.3447  0.0462 -0.0018
 2776DOPE   NH332569   0.132   2.462  12.485  0.0618 -0.1453  0.0833
 2776DOPE   PO432570  -0.062   2.438  12.775  0.2106 -0.0207  0.0894
 2776DOPE   GL132571  -0.274   2.503  13.132 -0.1377 -0.0073 -0.1381
 2776DOPE   GL232572  -0.446   2.269  13.175 -0.4264 -0.1417  0.2434
 2776DOPE   C1A32573  -0.161   2.927  13.315 -0.0635  0.0587  0.0196
 2776DOPE   D2A32574  -0.271   3.217  13.669 -0.0948  0.1455  0.0491
 2776DOPE   C3A32575  -0.498   3.024  14.015 -0.1300  0.0157  0.0381
 2776DOPE   C4A32576  -0.817   2.687  14.058  0.1849 -0.0720  0.1612
 2776DOPE   C1B32577  -0.206   2.076  13.476  0.0022  0.3206  0.0820
 2776DOPE   D2B32578   0.055   1.751  13.647 -0.1921  0.2000 -0.3294
 2776DOPE   C3B32579   0.521   1.866  13.497 -0.0333 -0.0394  0.1171
 2776DOPE   C4B32580   0.823   1.609  13.293  0.1497 -0.3168 -0.0469
 2777DOPS   CNO32581  28.096   0.180  12.790  0.2123  0.0821 -0.0779
 2777DOPS   PO432582  28.462   0.093  12.737  0.0583  0.0250 -0.0736
 2777DOPS   GL132583  28.795   0.252  12.790  0.1907  0.2820 -0.3125
 2777DOPS   GL232584  28.690   0.318  13.082  0.2180  0.2300 -0.1368
 2777DOPS   C1A32585  28.776   0.674  12.632  0.1117  0.1762  0.2087
 2777DOPS   D2A32586  28.719   1.128  12.667 -0.1338  0.0736  0.1429
 2777DOPS   C3A32587  28.468   1.475  12.957  0.1732  0.1013  0.1127
 2777DOPS   C4A32588  28.034   1.589  13.115  0.2032  0.2917 -0.0161
 2777DOPS   C1B32589  28.638   0.252  13.540 -0.4316 -0.0673 -0.1875
 2777DOPS   D2B32590  28.746   0.257  14.009  0.1575  0.0073  0.0016
 2777DOPS   C3B32591  28.982   0.620  14.238 -0.3475  0.1756  0.3360
 2777DOPS   C4B32592  28.729   0.939  14.511  0.0295  0.2174 -0.3256
 2778DOPS   CNO32593  33.885   1.235  12.386 -0.2472 -0.0531  0.1638
 2778DOPS   PO432594  34.112   1.034  12.625 -0.2387 -0.0024  0.2434
 2778DOPS   GL132595  34.066   0.981  12.982  0.2233 -0.3377 -0.0110
 2778DOPS   GL232596  34.060   1.220  13.087 -0.0357  0.1473 -0.0539
 2778DOPS   C1A32597  34.170   0.753  13.389  0.0687 -0.1503  0.2012
 2778DOPS   D2A32598  34.276   0.900  13.803 -0.0964  0.1396 -0.0901
 2778DOPS   C3A32599  33.944   0.802  14.177 -0.0948  0.2686  0.0114
 2778DOPS   C4A32600  33.501   0.820  14.323 -0.1239 -0.1888 -0.0500
 2778DOPS   C1B32601  33.991   1.245  13.499  0.0643 -0.0981 -0.0277
 2778DOPS   D2B32602  33.842   1.200  13.892 -0.2294 -0.1038 -0.1672
 2778DOPS   C3B32603  33.526   1.341  14.240 -0.0578 -0.0457  0.2623
 2778DOPS   C4B32604  33.127   1.200  14.438 -0.1526 -0.0508  0.2035
 2779DOPC   NC332605  26.772   1.899  13.073  0.0182  0.0071  0.2390
 2779DOPC   PO432606  26.892   1.685  12.787  0.1654  0.3226  0.0139
 2779DOPC   GL132607  27.092   1.546  13.039  0.1264  0.1252  0.2355
 2779DOPC   GL232608  27.286   1.713  13.119  0.0602 -0.1217  0.2118
 2779DOPC   C1A32609  27.381   1.235  13.102 -0.2284 -0.0691  0.0774
 2779DOPC   D2A32610  27.809   1.130  12.994  0.1975 -0.4015 -0.1643
 2779DOPC   C3A32611  27.933   0.985  13.455 -0.3023 -0.3783  0.2149
 2779DOPC   C4A32612  28.012   1.157  13.910 -0.1757 -0.0205  0.2033
 2779DOPC   C1B32613  27.416   1.741  13.531  0.1991  0.3045  0.2343
 2779DOPC   D2B32614  27.422   1.803  14.030 -0.2209  0.0040  0.1874
 2779DOPC   C3B32615  27.712   2.131  14.131  0.1649 -0.0272 -0.0996
 2779DOPC   C4B32616  27.577   2.582  14.091  0.2466  0.1679  0.1017
 2780DOPC   NC332617  34.016   7.133  13.242  0.3539 -0.0621  0.1392
 2780DOPC   PO432618  33.745   7.052  12.918  0.0500  0.1547 -0.2575
 2780DOPC   GL132619  33.616   7.405  12.798 -0.0306 -0.4774  0.1849
 2780DOPC   GL232620  33.754   7.535  12.890  0.1668 -0.3335 -0.0708
 2780DOPC   C1A32621  33.239   7.758  12.876  0.0296  0.0556 -0.2029
 2780DOPC   D2A32622  33.166   7.935  13.298  0.2865 -0.0613  0.0470
 2780DOPC   C3A32623  33.000   7.642  13.602  0.0329  0.0789 -0.1400
 2780DOPC   C4A32624  32.704   7.463  13.936 -0.0149  0.1727 -0.0284
 2780DOPC   C1B32625  33.701   7.954  13.091  0.0692  0.3721 -0.0636
 2780DOPC   D2B32626  33.729   8.066  13.494 -0.3179 -0.0878 -0.0930
 2780DOPC   C3B32627  33.363   8.158  13.690  0.0910 -0.0196 -0.2289
 2780DOPC   C4B32628  33.160   8.295  14.113  0.0212 -0.0540  0.2557
 2781DOPE   NH332629  30.139   3.062  12.799  0.1628 -0.3405 -0.0663
 2781DOPE   PO432630  30.044   2.981  13.074  0.0589  0.1740 -0.1107
 2781DOPE   GL132631  30.149   3.313  13.378 -0.1672 -0.0394  0.2295
 2781DOPE   GL232632  30.016   3.463  13.464  0.0999  0.4598 -0.0680
 2781DOPE   C1A32633  30.342   3.291  13.820 -0.2731 -0.4457  0.0605
 2781DOPE   D2A32634  30.542   3.215  14.215 -0.0980  0.0166 -0.0768
 2781DOPE   C3A32635  30.517   3.600  14.416  0.0886  0.1938 -0.0117
 2781DOPE   C4A32636  30.573   3.825  14.873 -0.1869 -0.0962 -0.1451
 2781DOPE   C1B32637  29.821   3.417  13.881 -0.0347 -0.2355  0.1755
 2781DOPE   D2B32638  29.645   3.785  14.096  0.0433  0.1290 -0.2204
 2781DOPE   C3B32639  29.859   4.016  14.459  0.0699 -0.3751 -0.0092
 2781DOPE   C4B32640  29.741   4.264  14.845  0.2494  0.1821 -0.0850
 2782DOPC   NC332641  33.383  11.225  11.908  0.2814  0.2645  0.2364
 2782DOPC   PO432642  33.511  11.570  11.972  0.0960 -0.0373  0.2176
 2782DOPC   GL132643  33.176  11.521  12.249  0.1570  0.0272 -0.1198
 2782DOPC   GL232644  33.008  11.273  12.343 -0.3778  0.1876 -0.2534
 2782DOPC   C1A32645  32.964  11.824  12.547  0.0665  0.1912 -0.0412
 2782DOPC   D2A32646  32.946  12.168  12.799 -0.0951  0.1479  0.1853
 2782DOPC   C3A32647  32.928  12.130  13.231  0.0006 -0.1993 -0.1480
 2782DOPC   C4A32648  32.695  12.431  13.550  0.3015 -0.0547 -0.0174
 2782DOPC   C1B32649  32.979  11.090  12.769  0.2361 -0.1912  0.5254
 2782DOPC   D2B32650  32.826  11.030  13.214 -0.1013  0.3595  0.0149
 2782DOPC   C3B32651  32.978  10.631  13.434  0.2191  0.2027 -0.0346
 2782DOPC   C4B32652  33.256  10.235  13.557  0.0306 -0.3702  0.0633
 2783POSM   NC332653  28.789   3.079  12.604 -0.1255  0.0550  0.1790
 2783POSM   PO432654  29.022   2.772  12.700  0.0454  0.0546 -0.0628
 2783POSM   AM132655  28.938   2.665  12.989 -0.1385  0.2269  0.0560
 2783POSM   AM232656  29.068   2.531  13.249 -0.0954 -0.0326  0.2501
 2783POSM   T1A32657  28.611   2.824  13.280  0.3347 -0.0589 -0.0451
 2783POSM   C2A32658  28.365   2.787  13.651  0.1059 -0.0089  0.3168
 2783POSM   C3A32659  28.457   3.035  14.040 -0.3184  0.0198 -0.0116
 2783POSM   C1B32660  28.927   2.334  13.466  0.0265  0.0963  0.0148
 2783POSM   D2B32661  28.458   2.255  13.690 -0.0951 -0.2102  0.0832
 2783POSM   C3B32662  28.402   2.141  14.177 -0.1286  0.0179  0.1095
 2783POSM   C4B32663  28.487   2.205  14.619 -0.1471  0.0742 -0.1536
 2784DOPC   NC332664  26.096   7.497  12.576 -0.1547 -0.1724  0.1887
 2784DOPC   PO432665  26.344   7.821  12.593 -0.2568  0.1583  0.0004
 2784DOPC   GL132666  26.161   7.996  12.904  0.3259 -0.1495  0.2127
 2784DOPC   GL232667  25.909   8.116  13.107  0.0413  0.0490  0.3956
 2784DOPC   C1A32668  26.281   7.994  13.371  0.1977 -0.0353 -0.2450
 2784DOPC   D2A32669  26.294   7.905  13.801  0.2713  0.1549 -0.1977
 2784DOPC   C3A32670  26.018   7.597  13.929  0.1992  0.2775 -0.0257
 2784DOPC   C4A32671  25.541   7.581  13.989 -0.3160 -0.1472 -0.0545
 2784DOPC   C1B32672  25.956   8.426  13.449 -0.2155 -0.2590  0.0627
 2784DOPC   D2B32673  25.988   8.493  13.894  0.0375  0.0720  0.3519
 2784DOPC   C3B32674  26.308   8.838  13.983  0.2212 -0.0700 -0.1745
 2784DOPC   C4B32675  26.519   9.183  14.294 -0.4601 -0.1511 -0.0516
 2785DOPC   NC332676  29.939   8.135  12.323 -0.1035 -0.0543  0.2279
 2785DOPC   PO432677  29.941   7.995  12.669  0.1249 -0.1787  0.2791
 2785DOPC   GL132678  29.788   8.178  13.026 -0.0180 -0.0606  0.1093
 2785DOPC   GL232679  29.490   8.247  12.945 -0.1242  0.1283  0.2349
 2785DOPC   C1A32680  29.943   8.558  13.161 -0.3843  0.0977 -0.3542
 2785DOPC   D2A32681  29.811   8.862  13.511 -0.1232  0.0391  0.3030
 2785DOPC   C3A32682  29.957   8.882  13.925  0.0988 -0.2845 -0.1136
 2785DOPC   C4A32683  30.127   9.144  14.285  0.2196  0.1512 -0.0015
 2785DOPC   C1B32684  29.545   8.362  13.397 -0.2405 -0.2777  0.0563
 2785DOPC   D2B32685  29.900   8.414  13.707  0.0005  0.4169  0.3309
 2785DOPC   C3B32686  30.127   8.264  14.084 -0.3200  0.0240  0.1368
 2785DOPC   C4B32687  30.448   8.060  14.349 -0.1312 -0.0351 -0.1030
 2786DOPE   NH332688  26.181   8.131  12.201  0.0287  0.3013 -0.1182
 2786DOPE   PO432689  26.404   8.306  12.050  0.3012  0.0552 -0.2867
 2786DOPE   GL132690  26.134   8.612  12.235  0.1549 -0.0940  0.0337
 2786DOPE   GL232691  25.913   8.598  12.032  0.0600  0.0581 -0.0154
 2786DOPE   C1A32692  26.017   8.948  12.498 -0.0644 -0.0002 -0.0840
 2786DOPE   D2A32693  25.875   9.203  12.820  0.0860  0.2686 -0.0212
 2786DOPE   C3A32694  26.051   9.479  13.141  0.0037  0.0435 -0.0648
 2786DOPE   C4A32695  26.013   9.717  13.561  0.0875 -0.2673 -0.1335
 2786DOPE   C1B32696  25.745   9.045  12.049 -0.0537  0.2870 -0.1486
 2786DOPE   D2B32697  25.688   9.379  12.399 -0.1695  0.3214  0.2617
 2786DOPE   C3B32698  26.083   9.643  12.442  0.0135 -0.1255 -0.2394
 2786DOPE   C4B32699  26.464   9.735  12.206  0.1109  0.3461  0.0170
 2787DOPE   NH332700  25.345  11.055  12.059  0.1046  0.0301 -0.2493
 2787DOPE   PO432701  25.406  10.767  12.221 -0.1091 -0.0419  0.3661
 2787DOPE   GL132702  25.577  10.709  12.535  0.0335 -0.1910 -0.2348
 2787DOPE   GL232703  25.311  10.699  12.699 -0.1114 -0.0434 -0.0672
 2787DOPE   C1A32704  25.763  10.727  12.971  0.2183 -0.0456  0.2272
 2787DOPE   D2A32705  26.047  10.639  13.332  0.2388 -0.2237 -0.3352
 2787DOPE   C3A32706  25.848  10.300  13.620 -0.0416  0.2308 -0.1114
 2787DOPE   C4A32707  25.499  10.299  13.898  0.0797  0.2722 -0.3362
 2787DOPE   C1B32708  25.347  10.714  13.201  0.0232 -0.2237 -0.0461
 2787DOPE   D2B32709  25.124  10.668  13.659  0.0613  0.1600 -0.3061
 2787DOPE   C3B32710  25.178  11.108  13.658  0.1139 -0.1287  0.4997
 2787DOPE   C4B32711  25.418  11.451  13.717  0.0958  0.1360  0.0216
 2788DOPC   NC332712  23.816   6.893  12.760 -0.2831  0.1988 -0.0490
 2788DOPC   PO432713  23.576   6.973  12.455  0.0180  0.2591  0.1260
 2788DOPC   GL132714  23.338   7.027  12.799  0.2439 -0.0027  0.1021
 2788DOPC   GL232715  23.120   7.133  12.730 -0.3129 -0.0076 -0.0984
 2788DOPC   C1A32716  23.230   7.051  13.258 -0.0500  0.0470  0.0285
 2788DOPC   D2A32717  23.322   6.872  13.666  0.0400 -0.2756  0.2902
 2788DOPC   C3A32718  23.566   7.237  13.881 -0.1155 -0.2248 -0.4379
 2788DOPC   C4A32719  23.970   7.408  14.036 -0.0045 -0.4111 -0.1641
 2788DOPC   C1B32720  22.902   6.806  12.964 -0.0206 -0.3815  0.0538
 2788DOPC   D2B32721  22.671   6.464  13.135 -0.1732  0.0871 -0.0943
 2788DOPC   C3B32722  22.402   6.602  13.480 -0.0018  0.1936  0.2143
 2788DOPC   C4B32723  22.488   6.925  13.756  0.0561  0.0087 -0.2863
 2789DOPE   NH332724  33.417   6.839  12.304 -0.1514  0.0406 -0.0960
 2789DOPE   PO432725  33.382   6.929  12.614  0.0315  0.0045  0.0955
 2789DOPE   GL132726  33.127   6.917  12.853  0.1066  0.0152  0.1160
 2789DOPE   GL232727  33.294   6.939  13.187  0.1729 -0.1584  0.0135
 2789DOPE   C1A32728  32.915   6.638  13.090  0.2097  0.0149  0.1723
 2789DOPE   D2A32729  32.972   6.161  13.195  0.0647 -0.2083  0.2943
 2789DOPE   C3A32730  33.031   5.777  13.426 -0.2813 -0.1730  0.0476
 2789DOPE   C4A32731  33.200   5.677  13.803  0.0593 -0.0901 -0.2018
 2789DOPE   C1B32732  33.119   6.683  13.568  0.1495  0.0068 -0.1470
 2789DOPE   D2B32733  32.918   6.378  13.863 -0.0236  0.2631 -0.1762
 2789DOPE   C3B32734  33.074   6.060  14.089  0.1570 -0.0071  0.1731
 2789DOPE   C4B32735  33.010   5.674  14.303  0.4309  0.2359 -0.0960
 2790DOPS   CNO32736  29.355  11.321  11.814  0.2406 -0.3237 -0.2538
 2790DOPS   PO432737  29.742  11.239  11.866  0.1381  0.3685  0.1656
 2790DOPS   GL132738  29.875  10.928  12.100 -0.1238 -0.1225  0.2549
 2790DOPS   GL232739  30.118  11.001  12.278  0.0313 -0.2585 -0.0723
 2790DOPS   C1A32740  29.824  10.654  12.505  0.2443 -0.2594 -0.0673
 2790DOPS   D2A32741  30.023  10.298  12.708  0.0850 -0.4589  0.0704
 2790DOPS   C3A32742  29.832  10.388  13.110  0.0507 -0.0289 -0.4052
 2790DOPS   C4A32743  29.423  10.307  13.351 -0.0413 -0.0186  0.0549
 2790DOPS   C1B32744  30.254  10.912  12.732  0.1500 -0.1725  0.3099
 2790DOPS   D2B32745  30.435  10.836  13.143  0.0365  0.1429 -0.0473
 2790DOPS   C3B32746  30.189  10.607  13.478  0.2395  0.2414  0.1090
 2790DOPS   C4B32747  29.839  10.302  13.675 -0.0485  0.1747 -0.2865
 2791DOPC   NC332748  26.459  10.747  12.219 -0.4840 -0.0176  0.1525
 2791DOPC   PO432749  26.642  10.607  12.519  0.0125  0.0784  0.1345
 2791DOPC   GL132750  26.856  10.478  12.768 -0.0877 -0.2495  0.1030
 2791DOPC   GL232751  26.998  10.732  12.848 -0.1328 -0.1058 -0.2691
 2791DOPC   C1A32752  26.694  10.199  13.075  0.0684  0.1368 -0.1083
 2791DOPC   D2A32753  26.796  10.276  13.542 -0.1668  0.2092 -0.1362
 2791DOPC   C3A32754  26.680   9.884  13.860  0.0177  0.2490 -0.1806
 2791DOPC   C4A32755  26.738   9.650  14.250  0.2688 -0.0906 -0.0874
 2791DOPC   C1B32756  26.920  11.196  13.101  0.1579 -0.0252  0.3079
 2791DOPC   D2B32757  27.036  11.543  13.414 -0.1698 -0.0438 -0.1086
 2791DOPC   C3B32758  26.745  11.442  13.759 -0.2106 -0.3196 -0.1001
 2791DOPC   C4B32759  26.388  11.204  13.821 -0.2101  0.0937 -0.1048
 2792POSM   NC332760  32.443   7.820  12.325 -0.0179  0.0613  0.0840
 2792POSM   PO432761  32.180   7.585  12.091 -0.0024  0.0333  0.1580
 2792POSM   AM132762  32.172   7.471  12.368  0.0496 -0.0630  0.0992
 2792POSM   AM232763  32.346   7.309  12.532 -0.1864 -0.1201 -0.2905
 2792POSM   T1A32764  32.182   7.786  12.727 -0.1890  0.2248  0.0778
 2792POSM   C2A32765  32.190   8.041  13.082  0.0974 -0.1758  0.2562
 2792POSM   C3A32766  32.118   8.453  13.378  0.2188 -0.0480  0.4698
 2792POSM   C1B32767  32.253   7.323  12.906  0.2937  0.1694 -0.1861
 2792POSM   D2B32768  32.146   7.493  13.300  0.1040  0.1016  0.0796
 2792POSM   C3B32769  32.204   7.522  13.771 -0.0060 -0.1254 -0.0249
 2792POSM   C4B32770  32.222   7.098  14.057  0.0682  0.1849 -0.4603
 2793DOPC   NC332771  24.641   7.814  12.239 -0.0470 -0.1226  0.1093
 2793DOPC   PO432772  24.507   7.531  11.977  0.2045  0.0978  0.1040
 2793DOPC   GL132773  24.844   7.357  12.211  0.2335  0.4108  0.0283
 2793DOPC   GL232774  24.682   7.393  12.495 -0.0321 -0.1156  0.0866
 2793DOPC   C1A32775  25.234   7.062  12.237 -0.1613 -0.0619  0.1157
 2793DOPC   D2A32776  25.279   6.732  12.549  0.0273 -0.1371  0.2464
 2793DOPC   C3A32777  25.015   6.352  12.664 -0.1168 -0.0228 -0.2530
 2793DOPC   C4A32778  24.903   6.088  13.008 -0.0532  0.0032 -0.2894
 2793DOPC   C1B32779  24.612   6.935  12.268 -0.0610 -0.1554  0.2688
 2793DOPC   D2B32780  24.606   6.481  12.222  0.0267  0.0700 -0.0892
 2793DOPC   C3B32781  24.983   6.258  12.176  0.3599 -0.1402  0.1413
 2793DOPC   C4B32782  25.360   5.964  12.222  0.0438  0.0663  0.0724
 2794POSM   NC332783  29.003   8.384  12.549  0.2814 -0.1167 -0.2418
 2794POSM   PO432784  28.767   8.108  12.458  0.3230  0.2378  0.1160
 2794POSM   AM132785  28.778   8.029  12.772 -0.2925  0.0374  0.2856
 2794POSM   AM232786  28.993   7.914  12.956  0.0101 -0.1397 -0.0630
 2794POSM   T1A32787  28.563   8.138  13.211 -0.2930 -0.1846  0.0551
 2794POSM   C2A32788  28.290   8.223  13.578  0.1241 -0.1127  0.1450
 2794POSM   C3A32789  28.108   8.370  13.976  0.1758  0.1556 -0.3492
 2794POSM   C1B32790  29.043   7.917  13.285  0.3349  0.0404  0.1843
 2794POSM   D2B32791  29.258   8.029  13.715 -0.1880  0.3556  0.0522
 2794POSM   C3B32792  29.377   8.410  13.958  0.2113  0.0089 -0.2040
 2794POSM   C4B32793  29.329   8.524  14.384 -0.0170  0.0863  0.0111
 2795DOPE   NH332794  26.607   5.937  12.627  0.1783  0.2377  0.1166
 2795DOPE   PO432795  26.622   5.970  12.906 -0.4155 -0.0511 -0.2517
 2795DOPE   GL132796  26.544   6.136  13.165  0.1164  0.0200  0.1211
 2795DOPE   GL232797  26.489   5.931  13.422  0.0993 -0.2336 -0.1396
 2795DOPE   C1A32798  26.535   6.573  13.435 -0.1065 -0.0522  0.1636
 2795DOPE   D2A32799  26.309   6.866  13.652 -0.1319  0.0281 -0.2418
 2795DOPE   C3A32800  26.087   6.742  14.030 -0.0198  0.0744 -0.2736
 2795DOPE   C4A32801  26.068   6.306  14.139 -0.1093 -0.1051  0.2830
 2795DOPE   C1B32802  26.573   6.209  13.768 -0.0823 -0.4965  0.0780
 2795DOPE   D2B32803  26.547   6.302  14.185  0.1671 -0.2244 -0.0034
 2795DOPE   C3B32804  26.478   6.702  14.393  0.1664 -0.0135  0.3269
 2795DOPE   C4B32805  26.218   6.762  14.776 -0.2416  0.1053 -0.0055
 2796DOPE   NH332806  32.435   7.151  12.039 -0.1663  0.1143 -0.2645
 2796DOPE   PO432807  32.374   6.910  12.197  0.2658 -0.0319 -0.0700
 2796DOPE   GL132808  32.449   6.711  12.560 -0.0842  0.0078  0.1047
 2796DOPE   GL232809  32.529   6.919  12.736  0.3161 -0.1189  0.2235
 2796DOPE   C1A32810  32.445   6.430  12.946 -0.0052 -0.1113 -0.1726
 2796DOPE   D2A32811  32.120   6.520  13.344 -0.3704 -0.2772 -0.1400
 2796DOPE   C3A32812  32.560   6.640  13.472 -0.2618 -0.0519  0.0148
 2796DOPE   C4A32813  32.621   6.932  13.804  0.0291  0.0788 -0.1375
 2796DOPE   C1B32814  32.654   7.057  13.163 -0.0529 -0.2288  0.0126
 2796DOPE   D2B32815  32.608   7.386  13.463 -0.0340  0.0130  0.2524
 2796DOPE   C3B32816  33.047   7.164  13.643  0.3001  0.0040 -0.0294
 2796DOPE   C4B32817  33.488   7.061  13.717  0.1845  0.0102 -0.1175
 2797DOPS   CNO32818  30.186   0.398  12.604 -0.3354  0.3307 -0.0857
 2797DOPS   PO432819  30.174   0.320  12.951  0.2584 -0.0349 -0.2050
 2797DOPS   GL132820  30.304   0.109  13.235 -0.2498  0.3184 -0.1325
 2797DOPS   GL232821  30.033  -0.032  13.304 -0.1898  0.0261 -0.2231
 2797DOPS   C1A32822  30.435  -0.344  13.306  0.0458 -0.2097  0.3565
 2797DOPS   D2A32823  30.590  -0.601  13.642 -0.4262  0.3102 -0.0163
 2797DOPS   C3A32824  30.957  -0.883  13.683  0.1750  0.1674  0.3148
 2797DOPS   C4A32825  31.128  -1.108  14.015  0.0551  0.1793  0.1494
 2797DOPS   C1B32826  30.117  -0.213  13.731  0.0372  0.1762  0.0032
 2797DOPS   D2B32827  29.947  -0.441  14.127  0.0777  0.1195 -0.1358
 2797DOPS   C3B32828  30.240  -0.352  14.463 -0.2318 -0.0414  0.0977
 2797DOPS   C4B32829  30.692  -0.499  14.628 -0.0680 -0.1538  0.0496
 2798DOPE   NH332830  26.179   0.694  12.982 -0.0978  0.0927 -0.1432
 2798DOPE   PO432831  25.913   0.927  12.964  0.0679  0.1407  0.3204
 2798DOPE   GL132832  25.522   0.896  12.884 -0.1337 -0.3135  0.1969
 2798DOPE   GL232833  25.503   0.994  12.597 -0.0903 -0.1753 -0.3900
 2798DOPE   C1A32834  25.126   1.194  12.835 -0.0399 -0.1256  0.0714
 2798DOPE   D2A32835  24.794   1.491  12.943 -0.3516  0.1253  0.1911
 2798DOPE   C3A32836  24.535   1.386  13.341 -0.0676 -0.0186  0.1665
 2798DOPE   C4A32837  24.190   1.427  13.564 -0.0314 -0.1776  0.2444
 2798DOPE   C1B32838  25.156   1.152  12.352 -0.3098  0.0228 -0.4644
 2798DOPE   D2B32839  24.971   1.595  12.458 -0.0178  0.0823 -0.1713
 2798DOPE   C3B32840  25.229   1.883  12.242  0.0614 -0.0938  0.0392
 2798DOPE   C4B32841  25.714   1.964  12.218  0.2914 -0.3141 -0.0586
 2799DOPE   NH332842  32.845   0.504  12.765 -0.1606 -0.1045  0.0004
 2799DOPE   PO432843  32.824   0.832  12.652  0.0763  0.1469  0.1196
 2799DOPE   GL132844  32.728   1.068  13.034  0.0246  0.0169 -0.2451
 2799DOPE   GL232845  32.590   0.957  13.337 -0.0085  0.0792  0.2359
 2799DOPE   C1A32846  32.881   1.322  13.372 -0.2647  0.0772  0.0852
 2799DOPE   D2A32847  33.098   1.692  13.589 -0.2173 -0.0815 -0.0836
 2799DOPE   C3A32848  33.179   1.586  13.986  0.1132 -0.1015  0.1021
 2799DOPE   C4A32849  33.139   1.715  14.399 -0.0110  0.2319  0.1919
 2799DOPE   C1B32850  32.219   0.644  13.494  0.0382  0.1377  0.1138
 2799DOPE   D2B32851  32.097   0.652  13.926 -0.1251 -0.1497  0.2025
 2799DOPE   C3B32852  32.269   1.001  14.151 -0.2553  0.1332  0.2882
 2799DOPE   C4B32853  32.589   1.011  14.541 -0.2140 -0.0481 -0.3260
 2800POSM   NC332854  34.177   9.800  11.733  0.1925  0.2065 -0.0774
 2800POSM   PO432855  34.351   9.468  11.920  0.1661  0.1092  0.1527
 2800POSM   AM132856  34.072   9.411  12.112  0.1732 -0.0596  0.0940
 2800POSM   AM232857  33.930   9.562  12.282  0.1675 -0.2682 -0.3801
 2800POSM   T1A32858  33.730   9.109  12.300  0.0331 -0.0137 -0.1525
 2800POSM   C2A32859  33.339   8.917  12.313 -0.0916  0.2369 -0.1036
 2800POSM   C3A32860  32.900   8.818  12.178  0.2483 -0.0175 -0.1077
 2800POSM   C1B32861  33.757   9.539  12.575  0.3566  0.0061 -0.0968
 2800POSM   D2B32862  33.462   9.636  12.882  0.0428  0.1610 -0.0098
 2800POSM   C3B32863  33.342  10.003  13.128  0.1432  0.0480 -0.0311
 2800POSM   C4B32864  33.316  10.441  13.094 -0.1992 -0.1500 -0.0401
 2801DOPC   NC332865  33.884   7.897  11.550 -0.1996  0.1810  0.0134
 2801DOPC   PO432866  34.089   7.625  11.742 -0.1412  0.0055  0.0536
 2801DOPC   GL132867  34.061   7.795  12.128 -0.2242  0.0009 -0.0905
 2801DOPC   GL232868  34.330   7.821  12.217 -0.2681  0.1039 -0.0782
 2801DOPC   C1A32869  33.947   8.233  12.321  0.1738  0.1247  0.2939
 2801DOPC   D2A32870  33.701   8.519  12.639 -0.0105 -0.1437 -0.2366
 2801DOPC   C3A32871  33.735   8.856  12.981  0.2314  0.1532 -0.1549
 2801DOPC   C4A32872  33.837   9.313  13.086 -0.1289  0.5331  0.2693
 2801DOPC   C1B32873  34.340   8.236  12.016 -0.5300  0.0003  0.0700
 2801DOPC   D2B32874  34.561   8.670  12.078 -0.1854  0.2497  0.2736
 2801DOPC   C3B32875  34.806   8.740  12.447 -0.1283 -0.0972 -0.0982
 2801DOPC   C4B32876  35.213   8.683  12.612 -0.1620 -0.4524 -0.1620
 2802DOPC   NC332877  27.545   0.313  12.843  0.1569  0.1973  0.0529
 2802DOPC   PO432878  27.288   0.032  12.863 -0.1985  0.2304 -0.0152
 2802DOPC   GL132879  27.332   0.069  13.235  0.0975  0.3205  0.3050
 2802DOPC   GL232880  27.272   0.261  13.412  0.1358  0.4600 -0.3263
 2802DOPC   C1A32881  27.774   0.136  13.398 -0.1373  0.1836 -0.0598
 2802DOPC   D2A32882  28.071   0.326  13.661 -0.2438  0.0837  0.1172
 2802DOPC   C3A32883  27.930   0.501  14.089  0.1218 -0.1406  0.1323
 2802DOPC   C4A32884  27.769   0.837  14.363 -0.0488 -0.1778  0.0985
 2802DOPC   C1B32885  27.350   0.050  13.812  0.0685  0.0470  0.2404
 2802DOPC   D2B32886  27.353  -0.428  13.965 -0.0171  0.0585 -0.0948
 2802DOPC   C3B32887  27.427  -0.453  14.410 -0.1536 -0.1360 -0.2107
 2802DOPC   C4B32888  27.469  -0.904  14.525  0.1018  0.2885  0.0096
 2803DOPE   NH332889  27.012   0.842  12.959  0.0125  0.0565 -0.0682
 2803DOPE   PO432890  27.138   0.513  13.000  0.0762  0.1667  0.0243
 2803DOPE   GL132891  27.493   0.716  13.056 -0.3474 -0.1908 -0.1559
 2803DOPE   GL232892  27.461   0.798  13.340 -0.2745 -0.3235 -0.0392
 2803DOPE   C1A32893  27.899   0.537  13.205  0.3524 -0.2260  0.1361
 2803DOPE   D2A32894  28.349   0.572  13.294  0.1830  0.1268 -0.2098
 2803DOPE   C3A32895  28.462   0.940  13.541 -0.1200 -0.0864  0.0115
 2803DOPE   C4A32896  28.622   1.221  13.857 -0.0334  0.1460  0.0154
 2803DOPE   C1B32897  27.390   1.192  13.608  0.0702 -0.0504 -0.1547
 2803DOPE   D2B32898  27.072   1.479  13.804  0.0292  0.0149 -0.1853
 2803DOPE   C3B32899  26.684   1.310  14.043  0.1911  0.1223  0.4785
 2803DOPE   C4B32900  26.410   1.196  14.385  0.0027  0.0379  0.2038
 2804DOPE   NH332901  30.886   4.305  12.885 -0.1155 -0.0332  0.0717
 2804DOPE   PO432902  31.074   4.042  12.874 -0.0321  0.0233  0.0155
 2804DOPE   GL132903  31.240   4.008  13.166 -0.1847  0.0048  0.0387
 2804DOPE   GL232904  31.481   3.882  13.108  0.0428 -0.1936  0.0665
 2804DOPE   C1A32905  31.326   4.148  13.611  0.0259 -0.2238 -0.4443
 2804DOPE   D2A32906  31.498   3.855  13.944  0.1829 -0.1932  0.0280
 2804DOPE   C3A32907  31.288   4.029  14.363  0.1513 -0.0161 -0.1015
 2804DOPE   C4A32908  31.268   4.395  14.569  0.0839 -0.0642 -0.2935
 2804DOPE   C1B32909  31.521   3.637  13.486 -0.1983 -0.1577  0.1866
 2804DOPE   D2B32910  31.750   3.384  13.822 -0.1138 -0.0124 -0.4819
 2804DOPE   C3B32911  31.926   3.675  14.167 -0.0715 -0.1735 -0.3245
 2804DOPE   C4B32912  31.995   4.138  14.154  0.2266 -0.1779  0.0401
 2805POSM   NC332913  29.471   0.505  12.781 -0.3063  0.0786 -0.2173
 2805POSM   PO432914  29.409   0.881  12.658  0.0364 -0.2725  0.0818
 2805POSM   AM132915  29.205   0.854  12.893  0.2564 -0.2691  0.0095
 2805POSM   AM232916  29.082   0.673  13.074 -0.1302  0.0697  0.1174
 2805POSM   T1A32917  29.043   1.134  13.319 -0.2316 -0.2324 -0.0713
 2805POSM   C2A32918  29.310   1.324  13.636  0.0344  0.0944 -0.2537
 2805POSM   C3A32919  29.154   1.654  13.973  0.1901 -0.0131  0.1907
 2805POSM   C1B32920  29.007   0.620  13.377 -0.2650 -0.0895  0.2484
 2805POSM   D2B32921  28.839   0.733  13.757  0.2015 -0.0005  0.2674
 2805POSM   C3B32922  28.494   0.733  14.037 -0.3993 -0.0228  0.0488
 2805POSM   C4B32923  28.286   0.712  14.433  0.0749  0.0409 -0.2944
 2806POSM   NC332924  31.256   4.971  12.519 -0.1764  0.2221 -0.2322
 2806POSM   PO432925  31.049   4.931  12.883 -0.0935  0.3378 -0.3235
 2806POSM   AM132926  31.300   5.011  13.067  0.3102  0.3999 -0.0724
 2806POSM   AM232927  31.237   5.029  13.378 -0.0664 -0.0467  0.0210
 2806POSM   T1A32928  31.737   4.981  13.297 -0.0981 -0.2754  0.3363
 2806POSM   C2A32929  32.208   4.989  13.393 -0.0196  0.0030 -0.1176
 2806POSM   C3A32930  32.472   5.006  13.796 -0.1658  0.1307 -0.1007
 2806POSM   C1B32931  31.314   5.085  13.690  0.0149 -0.1434  0.0802
 2806POSM   D2B32932  31.383   4.907  14.135  0.2417  0.2395  0.0950
 2806POSM   C3B32933  31.010   4.859  14.429  0.2519  0.1230  0.2941
 2806POSM   C4B32934  30.555   4.701  14.449  0.0651  0.0417  0.0186
 2807POSM   NC332935  24.304  10.206  12.136 -0.4697  0.1482 -0.2358
 2807POSM   PO432936  24.297   9.816  11.950 -0.0142 -0.0441 -0.2841
 2807POSM   AM132937  24.396   9.714  12.266 -0.1377 -0.1846  0.4028
 2807POSM   AM232938  24.456   9.816  12.518 -0.0529 -0.0178  0.0540
 2807POSM   T1A32939  24.855   9.531  12.444 -0.2738  0.2548  0.1457
 2807POSM   C2A32940  25.169   9.229  12.538  0.1898 -0.3485  0.2146
 2807POSM   C3A32941  25.517   8.942  12.641 -0.1582  0.1323  0.0776
 2807POSM   C1B32942  24.540   9.728  12.844  0.0029  0.0547  0.1612
 2807POSM   D2B32943  24.416   9.659  13.299 -0.1681  0.0257 -0.0525
 2807POSM   C3B32944  24.664   9.257  13.460  0.0077 -0.1795  0.1687
 2807POSM   C4B32945  25.001   8.981  13.364 -0.1771  0.1659  0.2583
 2808POSM   NC332946  33.303   2.921  12.957 -0.1057  0.0262 -0.0800
 2808POSM   PO432947  33.147   2.928  12.556  0.0089  0.1907 -0.0923
 2808POSM   AM132948  32.917   2.800  12.729 -0.0674 -0.1736  0.1169
 2808POSM   AM232949  32.854   2.714  12.993 -0.1611 -0.2034 -0.1739
 2808POSM   T1A32950  32.394   2.597  12.758  0.4132  0.0679  0.1190
 2808POSM   C2A32951  31.989   2.709  13.020  0.1402  0.0634  0.0169
 2808POSM   C3A32952  31.539   2.699  13.047  0.0867  0.0561 -0.1386
 2808POSM   C1B32953  32.619   2.980  13.060  0.1829 -0.1139 -0.0194
 2808POSM   D2B32954  32.230   3.210  12.875 -0.0236  0.2056 -0.3418
 2808POSM   C3B32955  32.018   2.961  12.557 -0.4852 -0.1606 -0.0017
 2808POSM   C4B32956  31.938   2.634  12.284 -0.1995  0.0643 -0.1331
 2809DOPC   NC332957  27.263   6.674  12.830  0.0089 -0.1781  0.1712
 2809DOPC   PO432958  27.443   6.389  12.629  0.0639 -0.0130 -0.0363
 2809DOPC   GL132959  27.550   6.237  12.917 -0.3386 -0.2156  0.3750
 2809DOPC   GL232960  27.636   5.958  12.948 -0.4042 -0.0826 -0.0835
 2809DOPC   C1A32961  27.543   6.235  13.370  0.2391 -0.2265  0.1963
 2809DOPC   D2A32962  27.675   6.037  13.760  0.0040  0.0883 -0.0510
 2809DOPC   C3A32963  27.345   5.815  14.031 -0.0229  0.0785  0.0206
 2809DOPC   C4A32964  27.085   5.740  14.378  0.3020  0.2432  0.2655
 2809DOPC   C1B32965  27.394   5.801  13.428 -0.1042  0.0636  0.2118
 2809DOPC   D2B32966  27.467   5.464  13.682 -0.1687  0.1756  0.0110
 2809DOPC   C3B32967  27.672   5.198  14.024  0.0385 -0.0226 -0.0372
 2809DOPC   C4B32968  27.914   4.896  14.319  0.1384  0.0723  0.3613
 2810DOPC   NC332969  31.804   0.750  12.407 -0.0212  0.1671 -0.0981
 2810DOPC   PO432970  31.810   0.602  12.782  0.2805 -0.2476  0.2657
 2810DOPC   GL132971  31.868   0.596  13.176  0.2288  0.0645 -0.0205
 2810DOPC   GL232972  31.958   0.908  13.207  0.1923 -0.0477  0.1134
 2810DOPC   C1A32973  31.721   0.770  13.608 -0.2816 -0.0342  0.2849
 2810DOPC   D2A32974  31.865   1.186  13.821  0.1189 -0.2865  0.3214
 2810DOPC   C3A32975  31.768   1.226  14.313  0.2143 -0.1576  0.3341
 2810DOPC   C4A32976  31.551   1.389  14.703 -0.0948 -0.3643  0.3040
 2810DOPC   C1B32977  32.268   1.111  13.609  0.1052  0.0853  0.1253
 2810DOPC   D2B32978  32.704   1.244  13.809  0.2436  0.0477 -0.0954
 2810DOPC   C3B32979  32.725   1.409  14.250 -0.0947  0.0535 -0.0678
 2810DOPC   C4B32980  32.667   1.660  14.594  0.1673  0.1874 -0.1701
 2811DOPE   NH332981  30.994   6.618  12.357 -0.2536 -0.2358 -0.1630
 2811DOPE   PO432982  31.083   6.774  12.631 -0.0183  0.2796  0.2939
 2811DOPE   GL132983  31.293   7.134  12.600  0.0316 -0.0452 -0.0785
 2811DOPE   GL232984  31.227   7.377  12.473 -0.0426 -0.1769  0.0860
 2811DOPE   C1A32985  31.734   7.278  12.774  0.0457  0.4165  0.2170
 2811DOPE   D2A32986  31.767   7.656  13.015  0.0906 -0.2237  0.0713
 2811DOPE   C3A32987  31.779   7.940  13.402 -0.0096 -0.2994  0.1426
 2811DOPE   C4A32988  31.708   8.140  13.809  0.0839 -0.0095  0.0859
 2811DOPE   C1B32989  31.260   7.767  12.767  0.0034 -0.1941  0.3258
 2811DOPE   D2B32990  31.366   7.978  13.132  0.0705 -0.1406 -0.2497
 2811DOPE   C3B32991  31.203   7.962  13.535  0.0431  0.1976  0.2641
 2811DOPE   C4B32992  31.253   8.109  13.910 -0.3316  0.1688 -0.1130
 2812DOPC   NC332993  31.152   5.896  12.730  0.2253  0.2287  0.0182
 2812DOPC   PO432994  31.159   6.287  12.782  0.3015 -0.2127  0.2937
 2812DOPC   GL132995  30.963   6.455  13.117  0.2811  0.0825 -0.1400
 2812DOPC   GL232996  31.128   6.717  13.197 -0.0109 -0.0197  0.0988
 2812DOPC   C1A32997  30.862   6.197  13.488  0.3558  0.0812  0.0533
 2812DOPC   D2A32998  31.196   6.003  13.731 -0.2540 -0.0198  0.1851
 2812DOPC   C3A32999  31.307   6.194  14.162  0.3235 -0.2424 -0.0185
 2812DOPC   C4A33000  31.392   6.079  14.571 -0.0039  0.0818  0.1859
 2812DOPC   C1B33001  31.069   7.094  13.495 -0.0109  0.1627 -0.0156
 2812DOPC   D2B33002  30.993   7.525  13.537 -0.2672 -0.2124 -0.2171
 2812DOPC   C3B33003  31.021   7.700  13.970  0.0447  0.2790 -0.3257
 2812DOPC   C4B33004  31.112   7.928  14.395 -0.0087  0.1186  0.1954
 2813DOPC   NC333005  33.251   7.410  12.565  0.4446 -0.2627 -0.1966
 2813DOPC   PO433006  33.332   7.475  12.200 -0.2419 -0.5534 -0.1397
 2813DOPC   GL133007  33.158   7.804  12.300  0.0658  0.2659  0.0361
 2813DOPC   GL233008  33.399   7.978  12.171  0.1639  0.2123  0.0243
 2813DOPC   C1A33009  32.907   8.043  12.597  0.0097  0.0031  0.2175
 2813DOPC   D2A33010  32.777   8.214  13.009 -0.1804 -0.2165  0.0659
 2813DOPC   C3A33011  32.923   8.635  13.164 -0.0758 -0.1787 -0.1508
 2813DOPC   C4A33012  33.283   8.982  13.293 -0.3192 -0.1380  0.1232
 2813DOPC   C1B33013  33.257   8.374  12.350 -0.2499  0.0798  0.0106
 2813DOPC   D2B33014  32.933   8.544  12.606 -0.1655  0.0880  0.0761
 2813DOPC   C3B33015  32.868   8.963  12.740  0.4079  0.4640 -0.1184
 2813DOPC   C4B33016  32.879   9.243  13.090 -0.1280  0.0786 -0.0497
 2814DOPS   CNO33017  31.661  11.589  11.696  0.2022  0.0150 -0.2118
 2814DOPS   PO433018  31.885  11.413  11.949  0.3530  0.3795 -0.1629
 2814DOPS   GL133019  31.679  11.548  12.406 -0.2843 -0.2637  0.2230
 2814DOPS   GL233020  31.620  11.293  12.531  0.0253  0.1194 -0.0814
 2814DOPS   C1A33021  31.601  11.844  12.809 -0.3931  0.1399  0.4267
 2814DOPS   D2A33022  31.563  12.232  12.974 -0.2385 -0.0697 -0.3083
 2814DOPS   C3A33023  31.279  12.370  13.298  0.1226  0.2163  0.0019
 2814DOPS   C4A33024  30.814  12.326  13.247  0.0824  0.1700 -0.4651
 2814DOPS   C1B33025  31.974  10.940  12.683  0.0776  0.1948 -0.0188
 2814DOPS   D2B33026  32.284  10.577  12.774 -0.3137  0.1616  0.0044
 2814DOPS   C3B33027  32.292  10.151  12.997 -0.0104  0.1148 -0.0404
 2814DOPS   C4B33028  32.408   9.945  13.393 -0.1298 -0.0908  0.0640
 2815POSM   NC333029  33.818   6.587  12.622 -0.0006  0.0473  0.1852
 2815POSM   PO433030  33.739   6.391  12.270  0.0349  0.1931 -0.1710
 2815POSM   AM133031  33.615   6.097  12.364  0.3793 -0.4923 -0.4165
 2815POSM   AM233032  33.747   5.943  12.561 -0.0301  0.2920 -0.2192
 2815POSM   T1A33033  33.405   5.641  12.432 -0.2004 -0.2219 -0.1601
 2815POSM   C2A33034  33.164   5.237  12.567  0.0848  0.1711 -0.0379
 2815POSM   C3A33035  32.957   5.301  12.983 -0.0588 -0.1505  0.0545
 2815POSM   C1B33036  33.809   5.650  12.783  0.0522  0.1752 -0.0903
 2815POSM   D2B33037  33.735   5.247  13.007  0.0171  0.0884 -0.2607
 2815POSM   C3B33038  33.378   4.932  12.979 -0.1850 -0.0848  0.0238
 2815POSM   C4B33039  33.049   4.710  13.248 -0.2161 -0.2743 -0.2853
 2816DOPS   CNO33040  30.137   7.731  12.060 -0.0584 -0.0938 -0.0812
 2816DOPS   PO433041  30.412   7.950  12.111  0.2491  0.1037  0.0215
 2816DOPS   GL133042  30.426   8.312  12.348  0.0039 -0.3509 -0.0987
 2816DOPS   GL233043  30.505   8.510  12.141  0.0167 -0.0214  0.3654
 2816DOPS   C1A33044  30.777   8.505  12.588  0.0634 -0.0765 -0.2633
 2816DOPS   D2A33045  31.096   8.502  12.911  0.3174  0.1703 -0.2438
 2816DOPS   C3A33046  31.432   8.802  12.802  0.4255  0.0281  0.0072
 2816DOPS   C4A33047  31.740   8.992  12.575  0.0128 -0.1427  0.2171
 2816DOPS   C1B33048  30.657   8.940  12.298 -0.2882 -0.1379 -0.1219
 2816DOPS   D2B33049  30.831   9.377  12.411  0.4342  0.1722 -0.4114
 2816DOPS   C3B33050  31.229   9.187  12.595  0.1958 -0.1041 -0.0171
 2816DOPS   C4B33051  31.548   9.267  13.008  0.2232 -0.1860 -0.1354
 2817POSM   NC333052  26.177   5.240  13.059 -0.1304 -0.0343 -0.0805
 2817POSM   PO433053  25.804   5.251  12.847  0.1022 -0.0253 -0.0395
 2817POSM   AM133054  25.731   5.439  13.123 -0.1166  0.0047 -0.0207
 2817POSM   AM233055  25.852   5.650  13.267  0.0150 -0.1627 -0.0411
 2817POSM   T1A33056  25.374   5.792  13.236 -0.0239  0.0597  0.0893
 2817POSM   C2A33057  25.139   5.979  13.561  0.2875  0.0927  0.0534
 2817POSM   C3A33058  24.810   6.014  13.822 -0.0986 -0.0455 -0.3198
 2817POSM   C1B33059  26.125   5.596  13.402  0.0477 -0.0820  0.1583
 2817POSM   D2B33060  26.421   5.499  13.760 -0.1555 -0.0610 -0.0690
 2817POSM   C3B33061  26.245   5.373  14.176  0.2181  0.1317  0.0246
 2817POSM   C4B33062  26.295   5.002  14.394 -0.1990  0.0883 -0.2193
 2818DOPC   NC333063  26.727   8.058  12.912  0.1007  0.2828 -0.0539
 2818DOPC   PO433064  27.062   7.928  12.748  0.1629 -0.3958 -0.2707
 2818DOPC   GL133065  27.082   8.330  12.768  0.0731 -0.2196  0.3146
 2818DOPC   GL233066  27.058   8.362  13.059  0.0939  0.2190 -0.2187
 2818DOPC   C1A33067  27.367   8.721  12.714  0.1020 -0.2993  0.2199
 2818DOPC   D2A33068  27.827   8.734  12.584 -0.0669  0.0322 -0.1025
 2818DOPC   C3A33069  27.879   9.053  12.958  0.0209 -0.4274 -0.1192
 2818DOPC   C4A33070  27.982   9.476  13.045  0.0916  0.1861  0.2535
 2818DOPC   C1B33071  26.731   8.247  13.382  0.0991 -0.2878  0.1895
 2818DOPC   D2B33072  26.480   8.425  13.711  0.0691 -0.2406 -0.1192
 2818DOPC   C3B33073  26.714   8.866  13.760  0.2023 -0.2276 -0.2475
 2818DOPC   C4B33074  26.693   9.333  13.837  0.1364 -0.1435  0.0283
 2819DOPC   NC333075  31.802   4.626  12.325  0.1441  0.1198 -0.0208
 2819DOPC   PO433076  31.665   4.773  12.681 -0.0907 -0.1957  0.0768
 2819DOPC   GL133077  31.994   4.763  12.761  0.1425 -0.2134 -0.1032
 2819DOPC   GL233078  32.103   4.622  12.976 -0.0658 -0.2559  0.0856
 2819DOPC   C1A33079  32.138   5.159  12.946  0.1604  0.4419 -0.0944
 2819DOPC   D2A33080  32.526   5.438  12.827  0.0380 -0.0075  0.0602
 2819DOPC   C3A33081  32.672   5.791  13.088 -0.1856  0.1876  0.1811
 2819DOPC   C4A33082  32.463   6.115  13.415  0.1055  0.0033 -0.0398
 2819DOPC   C1B33083  32.250   4.260  13.218 -0.0861  0.0563  0.0205
 2819DOPC   D2B33084  32.467   3.918  13.391 -0.2835  0.1378  0.1254
 2819DOPC   C3B33085  32.527   3.728  12.964 -0.0633  0.1389  0.0018
 2819DOPC   C4B33086  32.606   3.336  12.636  0.2015 -0.2093  0.1082
 2820DOPC   NC333087  25.631   1.321  13.013 -0.0943 -0.1071 -0.1166
 2820DOPC   PO433088  25.861   1.370  13.344  0.0425 -0.1789 -0.1636
 2820DOPC   GL133089  25.746   1.152  13.663  0.0998 -0.0382 -0.0448
 2820DOPC   GL233090  25.845   1.281  13.953  0.0620 -0.0299  0.0992
 2820DOPC   C1A33091  25.358   1.216  13.946 -0.0881  0.3405  0.0330
 2820DOPC   D2A33092  24.911   1.396  14.072 -0.2564 -0.1841  0.2034
 2820DOPC   C3A33093  24.535   1.619  14.061 -0.1143  0.0689 -0.2216
 2820DOPC   C4A33094  24.119   1.429  14.012  0.1112  0.2939 -0.1874
 2820DOPC   C1B33095  26.086   1.647  13.868  0.3104 -0.2726  0.0714
 2820DOPC   D2B33096  25.962   1.939  14.178  0.3295  0.2324 -0.0789
 2820DOPC   C3B33097  26.079   2.368  14.127  0.1367 -0.1280  0.2502
 2820DOPC   C4B33098  26.414   2.705  14.253  0.1325  0.1372 -0.2673
 2821POSM   NC333099  31.976  11.031  12.224  0.1207  0.0820  0.0257
 2821POSM   PO433100  31.846  10.894  11.880  0.2387 -0.0786 -0.1686
 2821POSM   AM133101  31.665  10.722  12.125 -0.5054 -0.0162  0.1077
 2821POSM   AM233102  31.405  10.624  12.230 -0.1646 -0.1325 -0.1688
 2821POSM   T1A33103  31.729  10.427  12.597 -0.1072 -0.1386  0.0987
 2821POSM   C2A33104  31.799  10.277  12.970 -0.1023  0.0273 -0.1091
 2821POSM   C3A33105  32.051  10.406  13.411  0.0466  0.1276  0.2706
 2821POSM   C1B33106  31.323  10.305  12.191  0.0516  0.3338  0.0241
 2821POSM   D2B33107  31.156   9.975  11.948  0.4309  0.2878 -0.1399
 2821POSM   C3B33108  30.782   9.649  12.045  0.2504  0.0752  0.1473
 2821POSM   C4B33109  30.418   9.454  12.184 -0.3046  0.2729 -0.2839
 2822POSM   NC333110  25.623   3.964  12.219  0.0945 -0.3914  0.2079
 2822POSM   PO433111  25.711   3.572  12.269 -0.1691  0.0649 -0.0337
 2822POSM   AM133112  25.905   3.509  12.505  0.1364  0.3519 -0.0298
 2822POSM   AM233113  26.179   3.482  12.603  0.0861 -0.0947 -0.0518
 2822POSM   T1A33114  25.944   3.207  12.905 -0.0713  0.3450  0.0301
 2822POSM   C2A33115  26.229   3.142  13.299 -0.0264  0.0926 -0.2731
 2822POSM   C3A33116  26.606   3.156  13.614  0.3485  0.0415  0.3970
 2822POSM   C1B33117  26.216   3.619  12.888  0.1875 -0.1270  0.0239
 2822POSM   D2B33118  26.451   3.631  13.296  0.1812  0.1400 -0.1000
 2822POSM   C3B33119  26.859   3.434  13.275  0.1476  0.1138  0.3453
 2822POSM   C4B33120  27.294   3.220  13.087  0.0704 -0.0416  0.1215
 2823DOPE   NH333121  29.706   3.283  12.837 -0.1614 -0.0552 -0.1396
 2823DOPE   PO433122  29.912   3.484  12.944 -0.2647  0.0276  0.3527
 2823DOPE   GL133123  29.822   3.698  13.143  0.4128 -0.4503  0.2030
 2823DOPE   GL233124  29.626   3.877  13.139 -0.3161 -0.1024 -0.1319
 2823DOPE   C1A33125  29.802   3.892  13.572 -0.4382  0.0105  0.0989
 2823DOPE   D2A33126  29.925   4.267  13.831  0.2538  0.0222 -0.0466
 2823DOPE   C3A33127  29.969   4.747  13.741  0.0214 -0.2749  0.3536
 2823DOPE   C4A33128  29.708   5.096  13.691 -0.1321  0.1024 -0.0786
 2823DOPE   C1B33129  29.358   4.076  13.503  0.2596 -0.0757 -0.3234
 2823DOPE   D2B33130  29.431   4.236  13.928 -0.0960  0.0809 -0.3071
 2823DOPE   C3B33131  29.030   4.081  14.182 -0.0926  0.0114  0.1076
 2823DOPE   C4B33132  28.816   3.861  14.489 -0.0517 -0.0571  0.0891
 2824DOPS   CNO33133   0.097   3.726  12.405  0.0862  0.1559 -0.0501
 2824DOPS   PO433134  -0.119   3.638  12.730  0.1007  0.1079  0.0597
 2824DOPS   GL133135  -0.325   3.984  12.700 -0.2138  0.2941  0.0181
 2824DOPS   GL233136  -0.449   4.156  12.966 -0.0660  0.2424 -0.3556
 2824DOPS   C1A33137  -0.438   4.375  12.449 -0.1131 -0.1406  0.1511
 2824DOPS   D2A33138  -0.567   4.797  12.452 -0.1048 -0.2439 -0.1107
 2824DOPS   C3A33139  -0.799   4.830  12.828 -0.2416  0.1614 -0.0871
 2824DOPS   C4A33140  -0.819   4.641  13.313 -0.1572 -0.0915  0.2067
 2824DOPS   C1B33141  -0.737   4.174  13.294 -0.1741  0.1154  0.0579
 2824DOPS   D2B33142  -0.926   3.867  13.517  0.0005  0.1276 -0.0410
 2824DOPS   C3B33143  -0.755   4.111  13.891  0.2096  0.0229 -0.1281
 2824DOPS   C4B33144  -0.908   4.288  14.357  0.3253  0.3295 -0.1239
 2825DOPE   NH333145  34.372  10.735  12.013 -0.0305 -0.0745 -0.0309
 2825DOPE   PO433146  34.464  10.714  12.338  0.3685  0.0860 -0.1159
 2825DOPE   GL133147  34.412  10.750  12.710 -0.4395  0.1324 -0.3747
 2825DOPE   GL233148  34.231  10.516  12.729  0.1626 -0.0052 -0.3829
 2825DOPE   C1A33149  34.640  10.677  13.156 -0.0033 -0.1236  0.1694
 2825DOPE   D2A33150  34.734  10.492  13.550 -0.1333  0.2105 -0.1629
 2825DOPE   C3A33151  35.062  10.660  13.766  0.0754  0.0342  0.1177
 2825DOPE   C4A33152  35.458  10.732  13.853  0.2581  0.0943  0.2729
 2825DOPE   C1B33153  34.196  10.384  13.171 -0.2074  0.1462 -0.1031
 2825DOPE   D2B33154  34.278  10.281  13.637 -0.1372  0.4225  0.0731
 2825DOPE   C3B33155  34.366  10.468  14.038  0.0223  0.0926 -0.1132
 2825DOPE   C4B33156  34.512  10.744  14.408 -0.1749 -0.0945 -0.1366
 2826DOPC   NC333157  25.253   4.607  12.833  0.0111 -0.3205 -0.2866
 2826DOPC   PO433158  24.872   4.677  12.701  0.0215 -0.0065 -0.1953
 2826DOPC   GL133159  24.964   5.040  12.646  0.3208  0.0311  0.3566
 2826DOPC   GL233160  24.895   5.103  12.913 -0.1217 -0.0020 -0.1550
 2826DOPC   C1A33161  24.820   5.423  12.470  0.3446 -0.2475 -0.2603
 2826DOPC   D2A33162  24.610   5.834  12.596  0.0861 -0.0984 -0.0404
 2826DOPC   C3A33163  24.346   5.810  12.996 -0.0959  0.0006  0.1409
 2826DOPC   C4A33164  24.019   5.935  13.324  0.1569  0.0966 -0.2200
 2826DOPC   C1B33165  24.421   5.210  12.841 -0.1272 -0.2683  0.3780
 2826DOPC   D2B33166  24.085   4.986  12.899  0.0422  0.0889  0.4336
 2826DOPC   C3B33167  23.848   4.997  13.243  0.0201 -0.2222 -0.1627
 2826DOPC   C4B33168  23.764   4.913  13.688 -0.2098  0.3272 -0.0869
 2827DOPC   NC333169  26.465   2.938  12.373 -0.2960 -0.3001  0.3072
 2827DOPC   PO433170  26.724   2.657  12.169 -0.1761  0.0422 -0.3951
 2827DOPC   GL133171  26.767   2.610  12.542 -0.0588 -0.0597 -0.1707
 2827DOPC   GL233172  27.102   2.507  12.468 -0.2710  0.1064  0.1309
 2827DOPC   C1A33173  26.997   2.836  12.908 -0.0875  0.1539 -0.1617
 2827DOPC   D2A33174  27.104   2.806  13.385  0.1378  0.1518  0.2765
 2827DOPC   C3A33175  27.369   3.015  13.688  0.1851  0.0726  0.4428
 2827DOPC   C4A33176  27.590   3.367  13.961 -0.3109  0.0214 -0.0525
 2827DOPC   C1B33177  27.371   2.822  12.450 -0.0905 -0.2469 -0.1553
 2827DOPC   D2B33178  27.607   3.117  12.707  0.3855  0.1506  0.1905
 2827DOPC   C3B33179  27.899   3.193  13.089  0.0578  0.0547  0.0223
 2827DOPC   C4B33180  27.794   3.412  13.496 -0.0693 -0.0865 -0.2788
 2828POSM   NC333181  32.985   6.381  12.685 -0.0386  0.0824  0.0808
 2828POSM   PO433182  33.246   6.374  12.399 -0.0562  0.0365 -0.1246
 2828POSM   AM133183  33.432   6.383  12.682 -0.0491 -0.0646  0.4055
 2828POSM   AM233184  33.437   6.507  12.935  0.2954  0.0008 -0.1891
 2828POSM   T1A33185  33.405   5.985  12.985  0.0716 -0.2011  0.1324
 2828POSM   C2A33186  33.348   5.514  13.105 -0.0766  0.1933 -0.0743
 2828POSM   C3A33187  33.207   5.234  13.440 -0.0735 -0.3233 -0.0307
 2828POSM   C1B33188  33.447   6.474  13.258 -0.2039 -0.2470  0.1521
 2828POSM   D2B33189  33.360   6.278  13.577  0.0349 -0.0077 -0.1957
 2828POSM   C3B33190  33.539   5.845  13.509 -0.0189 -0.0271 -0.0275
 2828POSM   C4B33191  33.633   5.401  13.523 -0.1310  0.1037  0.1612
 2829POSM   NC333192  23.729   9.600  11.805 -0.0309  0.0841 -0.0831
 2829POSM   PO433193  23.939   9.377  12.068 -0.0508  0.2686 -0.1449
 2829POSM   AM133194  23.954   9.270  12.403 -0.0470  0.0555 -0.0929
 2829POSM   AM233195  24.143   9.415  12.607 -0.0784  0.1317 -0.0887
 2829POSM   T1A33196  23.626   9.085  12.678  0.1809 -0.0011 -0.0071
 2829POSM   C2A33197  23.573   8.665  12.831 -0.1732  0.3751  0.2012
 2829POSM   C3A33198  23.501   8.356  13.154  0.1429 -0.0321  0.0283
 2829POSM   C1B33199  24.303   9.295  12.920  0.1895 -0.0324 -0.0985
 2829POSM   D2B33200  24.152   9.191  13.319 -0.1283 -0.4549 -0.2504
 2829POSM   C3B33201  24.242   9.392  13.748  0.2046  0.0130 -0.1752
 2829POSM   C4B33202  24.383   9.703  14.104  0.1875  0.0383  0.1076
 2830DOPS   CNO33203  30.767   2.946  12.686  0.2753 -0.1683  0.2515
 2830DOPS   PO433204  30.926   3.037  13.023  0.2751  0.1911  0.0224
 2830DOPS   GL133205  31.075   2.767  13.337  0.2475 -0.1616  0.0205
 2830DOPS   GL233206  31.061   2.496  13.236 -0.0508 -0.1925 -0.0463
 2830DOPS   C1A33207  31.208   2.864  13.750 -0.2692  0.0895  0.2721
 2830DOPS   D2A33208  31.423   2.889  14.166  0.0398  0.0656  0.1679
 2830DOPS   C3A33209  31.630   2.887  14.565  0.1469  0.1674 -0.2634
 2830DOPS   C4A33210  31.782   3.036  14.927  0.0497 -0.0599 -0.1273
 2830DOPS   C1B33211  31.009   2.182  13.564  0.0735 -0.1607 -0.2517
 2830DOPS   D2B33212  31.107   1.883  13.882  0.0348  0.0141 -0.0060
 2830DOPS   C3B33213  31.417   2.181  14.107  0.1026  0.1135  0.1814
 2830DOPS   C4B33214  31.707   2.501  14.035 -0.1635 -0.1006 -0.0442
 2831POSM   NC333215  26.352   1.242  13.615 -0.0751 -0.1703  0.3774
 2831POSM   PO433216  26.112   0.936  13.459  0.0391 -0.1474  0.0105
 2831POSM   AM133217  25.833   0.804  13.404 -0.3312  0.3848 -0.1933
 2831POSM   AM233218  25.734   0.585  13.240  0.1402 -0.0332  0.0920
 2831POSM   T1A33219  25.336   0.922  13.384 -0.2263 -0.3028 -0.2033
 2831POSM   C2A33220  24.958   1.123  13.605 -0.0010  0.1509  0.0271
 2831POSM   C3A33221  24.608   1.103  13.848 -0.2749  0.1137  0.0313
 2831POSM   C1B33222  25.429   0.397  13.287  0.1310 -0.1665 -0.0830
 2831POSM   D2B33223  25.013   0.197  13.460 -0.1452 -0.0017  0.0675
 2831POSM   C3B33224  25.211  -0.047  13.858 -0.2148  0.1057 -0.0286
 2831POSM   C4B33225  25.079   0.095  14.255  0.1016 -0.2136 -0.3713
 2832DOPE   NH333226  28.896  10.794  11.888  0.2664  0.0210 -0.1998
 2832DOPE   PO433227  28.904  10.544  12.024  0.0481 -0.3951 -0.2488
 2832DOPE   GL133228  28.781  10.269  12.334  0.3789  0.3037 -0.2783
 2832DOPE   GL233229  28.653  10.087  12.162 -0.0264 -0.0255  0.1992
 2832DOPE   C1A33230  29.059   9.912  12.416 -0.2914  0.0723 -0.2364
 2832DOPE   D2A33231  29.080   9.489  12.557 -0.0804 -0.2517  0.1690
 2832DOPE   C3A33232  28.706   9.299  12.718 -0.1058  0.0699  0.0982
 2832DOPE   C4A33233  28.363   8.996  12.746 -0.1576 -0.1348  0.0230
 2832DOPE   C1B33234  28.579   9.697  12.374  0.2615  0.0724  0.1927
 2832DOPE   D2B33235  28.314   9.567  12.719 -0.2429  0.2541  0.0748
 2832DOPE   C3B33236  27.950   9.317  12.543  0.2150  0.4143  0.3350
 2832DOPE   C4B33237  27.731   9.142  12.205  0.1902 -0.1760  0.2300
 2833DOPE   NH333238  26.407   1.675  12.611 -0.2433 -0.0669 -0.0386
 2833DOPE   PO433239  26.260   1.930  12.513 -0.0728 -0.3508  0.3457
 2833DOPE   GL133240  25.942   2.200  12.645 -0.2151  0.1338 -0.2550
 2833DOPE   GL233241  25.781   2.089  12.857  0.1992 -0.2388 -0.2989
 2833DOPE   C1A33242  25.773   2.618  12.742  0.1499 -0.2691  0.0326
 2833DOPE   D2A33243  25.608   2.835  13.151  0.1784 -0.0538 -0.1611
 2833DOPE   C3A33244  25.720   3.172  13.473 -0.0528  0.2304  0.0592
 2833DOPE   C4A33245  25.679   3.284  13.960 -0.0205 -0.1073  0.1870
 2833DOPE   C1B33246  25.453   2.069  12.610 -0.1050  0.1358 -0.0499
 2833DOPE   D2B33247  25.076   2.013  12.731 -0.0936  0.1204  0.0697
 2833DOPE   C3B33248  24.975   1.924  13.242 -0.1007 -0.0873  0.0982
 2833DOPE   C4B33249  24.867   1.664  13.621  0.3444 -0.0825 -0.1058
 2834DOPE   NH333250  26.236   1.406  13.000  0.1957  0.0464  0.1982
 2834DOPE   PO433251  26.086   1.656  12.992  0.3248 -0.0969 -0.1584
 2834DOPE   GL133252  25.713   1.776  13.178  0.2325  0.0009  0.0461
 2834DOPE   GL233253  25.899   1.895  13.425 -0.0402  0.2081 -0.0409
 2834DOPE   C1A33254  25.480   2.140  13.301 -0.1760 -0.2326  0.2298
 2834DOPE   D2A33255  25.478   2.526  13.508  0.0981 -0.3942 -0.0403
 2834DOPE   C3A33256  25.851   2.701  13.773  0.1481  0.0521  0.2975
 2834DOPE   C4A33257  26.321   2.667  13.750 -0.0567  0.2711  0.0125
 2834DOPE   C1B33258  25.777   2.190  13.682  0.0172 -0.3905 -0.2012
 2834DOPE   D2B33259  25.512   2.247  14.051  0.0686 -0.2606 -0.1088
 2834DOPE   C3B33260  25.118   2.021  14.095 -0.0673  0.1002  0.2447
 2834DOPE   C4B33261  24.686   2.155  14.183  0.5295 -0.2288  0.1000
 2835DOPS   CNO33262  26.585   0.793  12.302 -0.0350  0.1251  0.1651
 2835DOPS   PO433263  26.743   0.674  12.585 -0.0154 -0.0210  0.1390
 2835DOPS   GL133264  27.160   0.576  12.556  0.1929 -0.2927  0.0736
 2835DOPS   GL233265  27.198   0.626  12.248  0.0896 -0.1515  0.0797
 2835DOPS   C1A33266  27.272   1.049  12.528  0.1227 -0.2103 -0.1813
 2835DOPS   D2A33267  27.490   1.452  12.695 -0.2147 -0.3166  0.2386
 2835DOPS   C3A33268  27.802   1.681  12.478  0.0920  0.2023 -0.0259
 2835DOPS   C4A33269  28.252   1.629  12.461  0.0815 -0.0543 -0.0823
 2835DOPS   C1B33270  27.651   0.645  12.393  0.2092 -0.1347  0.0696
 2835DOPS   D2B33271  27.862   0.764  12.743 -0.2024 -0.3483 -0.1500
 2835DOPS   C3B33272  28.254   0.911  12.941 -0.0853  0.1825 -0.0850
 2835DOPS   C4B33273  28.672   0.974  13.113 -0.0513  0.0213 -0.1213
 2836POSM   NC333274  30.756   3.454  12.759 -0.1661 -0.1009 -0.4160
 2836POSM   PO433275  30.488   3.339  12.983 -0.0847 -0.0366  0.0261
 2836POSM   AM133276  30.580   3.413  13.302  0.4574 -0.0185 -0.4045
 2836POSM   AM233277  30.626   3.610  13.474  0.1052 -0.0204  0.0604
 2836POSM   T1A33278  30.814   3.230  13.686  0.1638 -0.0162  0.3344
 2836POSM   C2A33279  30.658   2.822  13.907 -0.0705 -0.3362 -0.1392
 2836POSM   C3A33280  30.581   2.630  14.304 -0.1776  0.1721 -0.2847
 2836POSM   C1B33281  30.537   3.707  13.784  0.1460 -0.0236  0.1326
 2836POSM   D2B33282  30.185   3.839  14.070 -0.1777  0.0048 -0.4034
 2836POSM   C3B33283  30.030   3.431  14.301 -0.2086  0.0179 -0.3894
 2836POSM   C4B33284  29.730   3.147  14.299  0.5066  0.0093 -0.5802
 2837POSM   NC333285  32.157   5.340  12.036  0.0795 -0.0164 -0.0523
 2837POSM   PO433286  32.464   5.355  12.285  0.0210 -0.2502 -0.0190
 2837POSM   AM133287  32.557   5.048  12.450  0.0731 -0.1249  0.0135
 2837POSM   AM233288  32.464   4.916  12.683 -0.0698 -0.1445  0.0121
 2837POSM   T1A33289  32.897   4.664  12.567 -0.0120 -0.0123  0.0087
 2837POSM   C2A33290  33.291   4.423  12.671 -0.2065 -0.1541 -0.2111
 2837POSM   C3A33291  33.730   4.257  12.622  0.1382  0.0993 -0.0985
 2837POSM   C1B33292  32.630   4.907  12.961 -0.2437 -0.1302 -0.0632
 2837POSM   D2B33293  32.693   5.145  13.365 -0.2516  0.2459 -0.0307
 2837POSM   C3B33294  32.759   5.438  13.654 -0.1504  0.1352  0.1404
 2837POSM   C4B33295  32.720   5.847  13.879 -0.0866  0.1108 -0.0384
 2838DOPE   NH333296  31.078   3.596  13.129  0.2877 -0.2607  0.0617
 2838DOPE   PO433297  31.214   3.458  12.867 -0.1399  0.0952 -0.2893
 2838DOPE   GL133298  31.442   3.302  13.110  0.0992  0.0157  0.1927
 2838DOPE   GL233299  31.319   3.123  13.243 -0.2350 -0.1505  0.0729
 2838DOPE   C1A33300  31.880   3.339  13.308  0.0991  0.1993  0.3105
 2838DOPE   D2A33301  32.383   3.356  13.449  0.2164 -0.2631  0.1943
 2838DOPE   C3A33302  32.305   3.362  13.924 -0.0694 -0.0731 -0.1267
 2838DOPE   C4A33303  32.020   3.172  14.274 -0.2118  0.1319  0.2003
 2838DOPE   C1B33304  31.674   2.895  13.543 -0.1431 -0.1451  0.0823
 2838DOPE   D2B33305  31.938   2.912  13.863 -0.0626 -0.0527  0.0183
 2838DOPE   C3B33306  32.409   2.837  13.852  0.4664 -0.0378 -0.2492
 2838DOPE   C4B33307  32.770   3.086  13.717 -0.0662  0.0731  0.1757
 2839DOPS   CNO33308  24.757  10.020  12.125  0.2450 -0.0853 -0.0145
 2839DOPS   PO433309  24.659  10.268  12.420  0.0337  0.0202 -0.0652
 2839DOPS   GL133310  24.683  10.398  12.854 -0.0346  0.3519  0.1290
 2839DOPS   GL233311  24.494  10.324  13.074 -0.1493  0.1476 -0.2942
 2839DOPS   C1A33312  24.857  10.698  13.225  0.0931  0.1233 -0.0307
 2839DOPS   D2A33313  24.794  11.049  13.390 -0.0650 -0.1909  0.2105
 2839DOPS   C3A33314  24.596  11.201  13.742  0.0060  0.1417 -0.4815
 2839DOPS   C4A33315  24.598  11.223  14.193 -0.0995 -0.1699  0.0232
 2839DOPS   C1B33316  24.534  10.518  13.494  0.4287  0.2612 -0.0256
 2839DOPS   D2B33317  24.661  10.434  13.925 -0.1590  0.0987 -0.1413
 2839DOPS   C3B33318  24.444  10.400  14.370  0.2711  0.0958 -0.0488
 2839DOPS   C4B33319  24.215  10.613  14.674  0.0572 -0.4113 -0.4675
 2840DOPE   NH333320  30.446   7.437  12.723  0.2307 -0.2548  0.4264
 2840DOPE   PO433321  30.294   7.674  12.545  0.0475 -0.1217 -0.1899
 2840DOPE   GL133322  30.445   7.945  12.825  0.0830 -0.0038 -0.2534
 2840DOPE   GL233323  30.254   7.773  13.052 -0.0889  0.1728 -0.1736
 2840DOPE   C1A33324  30.460   8.364  12.950 -0.1889 -0.0367  0.0898
 2840DOPE   D2A33325  30.665   8.705  13.135  0.0188  0.1725  0.3977
 2840DOPE   C3A33326  30.929   8.999  12.940 -0.0331 -0.3279  0.1956
 2840DOPE   C4A33327  30.999   9.417  13.090 -0.0485  0.1070 -0.0862
 2840DOPE   C1B33328  29.970   7.923  13.393 -0.1488  0.1233  0.1321
 2840DOPE   D2B33329  29.770   7.904  13.757 -0.1085  0.0766 -0.2404
 2840DOPE   C3B33330  29.499   7.642  14.025 -0.1305  0.1380  0.1928
 2840DOPE   C4B33331  29.341   7.221  14.053 -0.0856 -0.0733  0.0534
 2841POSM   NC333332  23.115   2.497  11.992 -0.4400  0.2423 -0.2097
 2841POSM   PO433333  23.289   2.852  12.142 -0.0648  0.1517 -0.1291
 2841POSM   AM133334  23.386   2.609  12.352 -0.1538 -0.0054 -0.1064
 2841POSM   AM233335  23.334   2.552  12.660 -0.0217 -0.0326  0.0294
 2841POSM   T1A33336  23.746   2.230  12.439  0.1694  0.1732 -0.1510
 2841POSM   C2A33337  24.065   1.925  12.718 -0.2275  0.1273  0.0345
 2841POSM   C3A33338  24.198   1.504  12.940 -0.1154  0.1399 -0.1275
 2841POSM   C1B33339  23.205   2.417  12.891 -0.1333 -0.0275  0.0470
 2841POSM   D2B33340  23.315   2.121  13.289 -0.1875  0.1671  0.2285
 2841POSM   C3B33341  23.044   1.854  13.590  0.4328  0.0322  0.2056
 2841POSM   C4B33342  22.832   1.982  13.950  0.0772  0.1186 -0.3104
 2842POSM   NC333343  23.669  10.302  12.505  0.0607  0.4091 -0.1193
 2842POSM   PO433344  24.093  10.346  12.553  0.1106  0.1355  0.0190
 2842POSM   AM133345  24.167  10.600  12.772  0.1470  0.3941 -0.3736
 2842POSM   AM233346  24.408  10.749  12.760  0.1991 -0.1123  0.2398
 2842POSM   T1A33347  24.156  10.694  13.251 -0.0197 -0.2272 -0.1279
 2842POSM   C2A33348  24.229  10.903  13.631  0.1026  0.1072 -0.0331
 2842POSM   C3A33349  24.324  10.798  14.122  0.0627  0.0605  0.0559
 2842POSM   C1B33350  24.528  10.997  12.951 -0.0530  0.0101 -0.3492
 2842POSM   D2B33351  24.424  11.363  13.204 -0.3001 -0.2979  0.0456
 2842POSM   C3B33352  24.141  11.427  13.638 -0.2283  0.1191  0.0792
 2842POSM   C4B33353  24.091  11.671  14.042 -0.1361 -0.1385  0.1286
 2843DOPC   NC333354  27.643   7.835  11.990 -0.4011  0.1271  0.3540
 2843DOPC   PO433355  27.657   7.641  12.346  0.0653  0.1124 -0.0171
 2843DOPC   GL133356  27.452   7.658  12.673  0.0230 -0.2750 -0.0818
 2843DOPC   GL233357  27.663   7.819  12.789  0.0266 -0.1922  0.1975
 2843DOPC   C1A33358  27.429   7.639  13.175 -0.2927 -0.2036 -0.0027
 2843DOPC   D2A33359  27.527   7.711  13.623  0.1071 -0.1821  0.0039
 2843DOPC   C3A33360  27.188   7.903  13.924 -0.4649  0.0434  0.1072
 2843DOPC   C4A33361  27.232   8.096  14.350  0.0373  0.2285  0.0958
 2843DOPC   C1B33362  27.635   8.211  12.900  0.0505 -0.3344  0.0010
 2843DOPC   D2B33363  27.673   8.625  13.134 -0.3326  0.0768  0.2903
 2843DOPC   C3B33364  27.315   8.958  13.261  0.1088  0.0487 -0.2819
 2843DOPC   C4B33365  27.154   9.042  13.705  0.0471 -0.2164  0.1551
 2844POSM   NC333366  23.370   7.614  12.691  0.0005 -0.2482  0.1136
 2844POSM   PO433367  23.653   7.404  12.695 -0.4019  0.2570 -0.1045
 2844POSM   AM133368  23.694   7.275  13.005  0.1312 -0.0208  0.2071
 2844POSM   AM233369  23.781   7.281  13.324 -0.3370 -0.1230 -0.2341
 2844POSM   T1A33370  23.912   6.798  13.215  0.0221  0.1081  0.1409
 2844POSM   C2A33371  24.074   6.521  13.528  0.0404  0.3018  0.5257
 2844POSM   C3A33372  24.501   6.357  13.646  0.0267  0.0450 -0.1057
 2844POSM   C1B33373  23.460   7.460  13.362  0.2323 -0.3182  0.0958
 2844POSM   D2B33374  23.105   7.534  13.631  0.1447  0.1380  0.2810
 2844POSM   C3B33375  23.209   7.698  13.928 -0.0415  0.0374  0.1563
 2844POSM   C4B33376  23.378   8.188  13.885  0.1299  0.0242  0.0417
 2845DOPE   NH333377  26.663   2.175  12.193 -0.0398  0.1510 -0.0161
 2845DOPE   PO433378  26.812   2.058  12.468  0.0892  0.0612  0.2403
 2845DOPE   GL133379  27.044   2.139  12.725 -0.0627 -0.2810  0.1238
 2845DOPE   GL233380  27.310   1.948  12.630 -0.0913  0.0339 -0.1427
 2845DOPE   C1A33381  27.393   2.426  12.816  0.3898 -0.0645  0.0810
 2845DOPE   D2A33382  27.544   2.786  13.117 -0.2413 -0.0553 -0.1591
 2845DOPE   C3A33383  27.803   2.884  13.482  0.0157  0.3173  0.2836
 2845DOPE   C4A33384  27.964   3.071  13.856 -0.0117  0.0438 -0.1446
 2845DOPE   C1B33385  27.709   2.163  12.513 -0.2169 -0.1307 -0.1298
 2845DOPE   D2B33386  28.062   2.495  12.573 -0.3005  0.2839  0.0171
 2845DOPE   C3B33387  28.174   2.867  12.850 -0.0374 -0.5115  0.1330
 2845DOPE   C4B33388  28.234   3.217  12.609  0.3805  0.5534 -0.0171
 2846DOPS   CNO33389  26.627   5.296  12.462 -0.0340 -0.2784  0.0655
 2846DOPS   PO433390  26.495   5.460  12.789 -0.0095  0.1187 -0.1682
 2846DOPS   GL133391  26.671   5.527  13.164 -0.0251 -0.0081  0.2174
 2846DOPS   GL233392  26.956   5.607  13.231  0.1333  0.0554 -0.1185
 2846DOPS   C1A33393  26.781   5.158  13.433 -0.0914 -0.2596 -0.0323
 2846DOPS   D2A33394  26.833   4.804  13.698 -0.0897 -0.2119  0.1706
 2846DOPS   C3A33395  26.535   4.438  13.717 -0.2233  0.1269 -0.2455
 2846DOPS   C4A33396  26.147   4.280  13.913 -0.1095 -0.3288 -0.2771
 2846DOPS   C1B33397  26.932   5.623  13.676  0.0827  0.1943 -0.4306
 2846DOPS   D2B33398  26.688   5.819  14.013 -0.0157 -0.3314  0.2534
 2846DOPS   C3B33399  26.338   5.847  14.335  0.1052  0.3389 -0.2456
 2846DOPS   C4B33400  25.850   5.811  14.373 -0.1449 -0.0304  0.1034
 2847DOPC   NC333401  26.224   6.470  13.058 -0.0974  0.0563 -0.1539
 2847DOPC   PO433402  26.387   6.502  12.674 -0.1587  0.2151  0.2338
 2847DOPC   GL133403  26.472   6.786  12.735  0.4027 -0.0893 -0.3328
 2847DOPC   GL233404  26.421   7.028  12.554 -0.1334  0.0010  0.0796
 2847DOPC   C1A33405  26.338   6.936  13.166  0.1227  0.0371  0.3280
 2847DOPC   D2A33406  26.210   7.268  13.420 -0.2382  0.1058  0.2253
 2847DOPC   C3A33407  26.502   7.310  13.798 -0.0555 -0.2475 -0.0238
 2847DOPC   C4A33408  26.760   7.649  14.001 -0.0493 -0.1531  0.3301
 2847DOPC   C1B33409  25.980   7.088  12.812 -0.3158  0.0093 -0.2659
 2847DOPC   D2B33410  25.662   7.182  13.099 -0.0558  0.2605  0.1351
 2847DOPC   C3B33411  25.713   7.238  13.575 -0.3272  0.0622  0.1223
 2847DOPC   C4B33412  25.733   7.044  13.972  0.0050  0.0722  0.2341
 2848DOPC   NC333413  31.629  10.516  11.654  0.2232  0.2340  0.3470
 2848DOPC   PO433414  31.910  10.279  11.565  0.1572 -0.0403  0.0985
 2848DOPC   GL133415  31.812  10.078  11.813  0.0897 -0.4324 -0.0382
 2848DOPC   GL233416  31.834  10.178  12.096  0.0491 -0.1014  0.1019
 2848DOPC   C1A33417  31.887   9.671  12.078  0.0347  0.0614 -0.0409
 2848DOPC   D2A33418  31.976   9.466  12.532 -0.1487 -0.0101 -0.0707
 2848DOPC   C3A33419  31.498   9.542  12.646  0.0910  0.1977 -0.3312
 2848DOPC   C4A33420  31.149   9.778  12.547 -0.3977  0.1255 -0.4011
 2848DOPC   C1B33421  32.280  10.110  12.100 -0.1934  0.0803 -0.2989
 2848DOPC   D2B33422  32.541   9.803  11.922  0.3873 -0.2784 -0.4139
 2848DOPC   C3B33423  32.267   9.440  11.802 -0.1168  0.3216  0.1460
 2848DOPC   C4B33424  31.935   9.329  11.549 -0.0778  0.1755  0.0841
 2849DOPC   NC333425  26.121   4.431  12.738  0.3987  0.2016  0.0130
 2849DOPC   PO433426  26.160   4.816  12.727 -0.2784  0.0020 -0.0559
 2849DOPC   GL133427  25.959   4.784  13.039  0.1536  0.0897  0.0236
 2849DOPC   GL233428  25.775   4.893  13.175  0.0003  0.1554 -0.1430
 2849DOPC   C1A33429  26.254   4.898  13.408  0.3270  0.1454  0.0809
 2849DOPC   D2A33430  26.379   4.991  13.832 -0.0344  0.2863 -0.0348
 2849DOPC   C3A33431  26.677   5.209  14.087 -0.2060  0.3104  0.0878
 2849DOPC   C4A33432  27.092   5.284  14.029 -0.1073 -0.1107  0.1465
 2849DOPC   C1B33433  25.771   5.234  13.543 -0.1558 -0.0432 -0.1468
 2849DOPC   D2B33434  25.840   5.583  13.880  0.0616 -0.3551  0.0986
 2849DOPC   C3B33435  26.100   5.964  13.721  0.2014 -0.3087  0.1907
 2849DOPC   C4B33436  26.098   6.376  13.583 -0.1531 -0.2052  0.1061
 2850DOPS   CNO33437  29.336   7.981  12.510 -0.1586  0.0427 -0.0651
 2850DOPS   PO433438  29.482   8.302  12.440  0.2229 -0.0505  0.2028
 2850DOPS   GL133439  29.364   8.605  12.650 -0.2410 -0.1284  0.0916
 2850DOPS   GL233440  29.431   8.912  12.468 -0.1221  0.1808  0.1290
 2850DOPS   C1A33441  29.456   8.784  13.060 -0.0053  0.0350  0.0130
 2850DOPS   D2A33442  29.234   8.893  13.448 -0.0927 -0.1400 -0.1605
 2850DOPS   C3A33443  29.360   8.894  13.913  0.1439 -0.1017 -0.0484
 2850DOPS   C4A33444  29.530   9.012  14.305  0.2253 -0.0038 -0.4074
 2850DOPS   C1B33445  29.077   8.909  12.748  0.2520  0.0236 -0.0276
 2850DOPS   D2B33446  28.773   8.968  13.073  0.0645  0.2087 -0.1082
 2850DOPS   C3B33447  28.406   9.105  13.354 -0.4814 -0.3254 -0.2269
 2850DOPS   C4B33448  27.939   9.117  13.526 -0.0492 -0.0501 -0.0851
 2851POSM   NC333449  26.088   0.832  12.163  0.0925 -0.2317 -0.1627
 2851POSM   PO433450  25.922   0.729  12.491 -0.2514  0.1533 -0.1181
 2851POSM   AM133451  25.817   0.495  12.701  0.0681  0.0509  0.3152
 2851POSM   AM233452  25.536   0.386  12.720  0.0320 -0.0886  0.0228
 2851POSM   T1A33453  25.874   0.160  13.098  0.0262  0.0569  0.1195
 2851POSM   C2A33454  26.036  -0.154  13.375  0.5118 -0.0498  0.0933
 2851POSM   C3A33455  25.813  -0.565  13.311  0.1420 -0.2507 -0.2984
 2851POSM   C1B33456  25.286   0.541  12.826  0.1077 -0.0091 -0.1150
 2851POSM   D2B33457  24.948   0.720  12.653 -0.0019 -0.2149  0.1409
 2851POSM   C3B33458  24.713   0.941  13.037  0.1810 -0.1813 -0.0374
 2851POSM   C4B33459  24.405   0.868  13.444 -0.0684 -0.0108  0.3795
 2852POSM   NC333460  28.613  10.985  12.216  0.0175 -0.0992  0.3022
 2852POSM   PO433461  28.957  11.006  12.426  0.0685  0.0399  0.0774
 2852POSM   AM133462  29.093  10.707  12.475  0.2125  0.1249 -0.0756
 2852POSM   AM233463  29.348  10.680  12.579  0.1642  0.2254 -0.1791
 2852POSM   T1A33464  29.038  10.287  12.761 -0.0322  0.3849 -0.0183
 2852POSM   C2A33465  28.934   9.849  12.867 -0.2882  0.1957 -0.0828
 2852POSM   C3A33466  28.685   9.530  13.168  0.1496 -0.0152  0.2461
 2852POSM   C1B33467  29.497  10.668  12.913  0.0997 -0.3165 -0.2869
 2852POSM   D2B33468  29.603  10.797  13.371  0.0042 -0.0350  0.2091
 2852POSM   C3B33469  29.203  10.738  13.556 -0.0878 -0.3441 -0.0397
 2852POSM   C4B33470  28.741  10.679  13.639  0.0277  0.3331  0.1305
 2853DOPE   NH333471  23.423   6.258  11.814 -0.0491  0.0381  0.1407
 2853DOPE   PO433472  23.598   6.308  12.068 -0.2820 -0.1055  0.1462
 2853DOPE   GL133473  23.632   6.383  12.323  0.3305  0.0513  0.1078
 2853DOPE   GL233474  23.473   6.491  12.536  0.1686  0.0438 -0.1642
 2853DOPE   C1A33475  23.895   6.382  12.744  0.1164 -0.1744  0.0803
 2853DOPE   D2A33476  23.744   6.350  13.233 -0.0961 -0.1044  0.0102
 2853DOPE   C3A33477  23.503   5.950  13.312 -0.2524  0.0819  0.1069
 2853DOPE   C4A33478  23.619   5.530  13.426  0.0122  0.1796  0.5149
 2853DOPE   C1B33479  23.366   6.558  12.964  0.2272  0.1271  0.1445
 2853DOPE   D2B33480  23.161   6.466  13.295 -0.0609 -0.0031  0.2359
 2853DOPE   C3B33481  22.887   6.761  13.444  0.1795  0.2197  0.0358
 2853DOPE   C4B33482  22.623   7.094  13.234  0.0276  0.0130  0.0701
 2854DOPC   NC333483  28.254   0.078  13.259 -0.2542  0.1915 -0.2167
 2854DOPC   PO433484  28.134  -0.260  13.079  0.0061  0.0401  0.1077
 2854DOPC   GL133485  28.154  -0.277  13.482 -0.1481 -0.1861 -0.2219
 2854DOPC   GL233486  28.214  -0.537  13.638 -0.1308 -0.1402 -0.1214
 2854DOPC   C1A33487  28.314  -0.006  13.869 -0.1460 -0.0053  0.1270
 2854DOPC   D2A33488  28.238   0.126  14.292 -0.2649 -0.0265  0.3351
 2854DOPC   C3A33489  27.997  -0.063  14.598  0.1580  0.1719  0.3794
 2854DOPC   C4A33490  27.527  -0.083  14.727 -0.1473 -0.0237  0.1241
 2854DOPC   C1B33491  27.885  -0.683  13.925  0.1067  0.0553 -0.1421
 2854DOPC   D2B33492  27.433  -0.872  14.044  0.0959 -0.2177  0.2339
 2854DOPC   C3B33493  27.321  -1.232  14.210 -0.0655  0.1887  0.1125
 2854DOPC   C4B33494  27.361  -1.581  14.516 -0.0963 -0.2274  0.1914
 2855POSM   NC333495  33.612   2.487  12.429  0.3561 -0.2444 -0.2239
 2855POSM   PO433496  33.700   2.853  12.600 -0.2816 -0.2792 -0.0667
 2855POSM   AM133497  33.764   2.914  12.914 -0.0535  0.1117  0.5159
 2855POSM   AM233498  33.892   3.047  13.117 -0.2260  0.2997  0.2046
 2855POSM   T1A33499  33.580   2.826  13.413  0.1096 -0.2318  0.1847
 2855POSM   C2A33500  33.161   2.845  13.509 -0.2090 -0.1142  0.0914
 2855POSM   C3A33501  32.716   2.650  13.541 -0.3281  0.0208  0.1438
 2855POSM   C1B33502  33.866   3.261  13.366  0.1417  0.0725  0.2460
 2855POSM   D2B33503  33.879   3.388  13.803  0.2813 -0.1559  0.1898
 2855POSM   C3B33504  34.178   3.522  14.120 -0.0504  0.1845 -0.0955
 2855POSM   C4B33505  34.147   3.904  14.413 -0.0541 -0.1782  0.0897
 2856POSM   NC333506  29.404   7.670  12.847  0.0900 -0.0975  0.2730
 2856POSM   PO433507  29.369   7.336  12.697  0.2377 -0.0275 -0.0403
 2856POSM   AM133508  29.080   7.288  12.881 -0.1362  0.3183 -0.1599
 2856POSM   AM233509  28.948   7.435  13.101 -0.2251  0.1426  0.2247
 2856POSM   T1A33510  28.841   6.991  13.212 -0.2506 -0.1230 -0.1800
 2856POSM   C2A33511  28.745   6.886  13.613  0.1682  0.0643 -0.1359
 2856POSM   C3A33512  28.929   6.686  14.022 -0.0984  0.0438  0.2177
 2856POSM   C1B33513  29.146   7.408  13.372  0.1742 -0.2019 -0.0971
 2856POSM   D2B33514  29.071   7.541  13.805  0.0228  0.0091  0.1146
 2856POSM   C3B33515  28.700   7.733  14.057 -0.2527 -0.2749 -0.0821
 2856POSM   C4B33516  28.492   8.103  14.156 -0.0613 -0.3448  0.0146
 2857DOPC   NC333517  25.568  20.304  16.028  0.2696 -0.0337 -0.0910
 2857DOPC   PO433518  25.189  20.461  15.933 -0.0894 -0.0398  0.2343
 2857DOPC   GL133519  25.311  20.295  15.596 -0.2074  0.1708 -0.1112
 2857DOPC   GL233520  25.128  20.455  15.416  0.0359 -0.3238 -0.0433
 2857DOPC   C1A33521  25.589  20.221  15.239  0.0619  0.3227 -0.2103
 2857DOPC   D2A33522  25.637  20.489  14.780 -0.0935  0.0358 -0.1207
 2857DOPC   C3A33523  25.730  20.237  14.374  0.0990 -0.1037 -0.0254
 2857DOPC   C4A33524  25.767  20.123  13.889 -0.1624 -0.3221 -0.0263
 2857DOPC   C1B33525  25.180  20.303  15.031 -0.2345 -0.1453  0.0385
 2857DOPC   D2B33526  25.137  20.253  14.589  0.1435 -0.5162 -0.2333
 2857DOPC   C3B33527  25.298  20.528  14.291  0.4132 -0.2404 -0.2624
 2857DOPC   C4B33528  25.471  20.499  13.907  0.0986  0.2065  0.2919
 2858DOPC   NC333529  33.253  15.060  16.432  0.0789 -0.0657  0.1980
 2858DOPC   PO433530  33.335  15.248  16.070 -0.1075  0.2652 -0.0577
 2858DOPC   GL133531  33.451  15.418  15.733 -0.0754 -0.0901  0.2305
 2858DOPC   GL233532  33.347  15.160  15.514  0.0683  0.0300  0.2410
 2858DOPC   C1A33533  33.092  15.558  15.439  0.2511 -0.0368  0.1248
 2858DOPC   D2A33534  32.655  15.632  15.214  0.1247 -0.0456  0.3259
 2858DOPC   C3A33535  32.816  15.759  14.811 -0.1174  0.3350 -0.1839
 2858DOPC   C4A33536  32.736  15.568  14.387  0.2037 -0.1081 -0.1705
 2858DOPC   C1B33537  33.450  15.118  15.085 -0.0327 -0.1770  0.1618
 2858DOPC   D2B33538  33.781  15.085  14.756  0.5919 -0.3810 -0.0803
 2858DOPC   C3B33539  33.524  15.113  14.339  0.0673  0.0237 -0.1044
 2858DOPC   C4B33540  33.730  14.982  13.953  0.0067 -0.0193  0.1126
 2859DOPE   NH333541  31.960  21.217  15.750  0.2515  0.0352 -0.2037
 2859DOPE   PO433542  32.241  21.305  15.632 -0.4037  0.1529  0.1958
 2859DOPE   GL133543  32.378  21.315  15.243 -0.1296 -0.0912 -0.1408
 2859DOPE   GL233544  32.278  21.040  15.157 -0.5433 -0.0420  0.0411
 2859DOPE   C1A33545  32.648  21.285  14.847 -0.2503 -0.1507 -0.0290
 2859DOPE   D2A33546  32.753  20.976  14.550  0.2325  0.2303  0.1261
 2859DOPE   C3A33547  32.844  21.060  14.087  0.2881  0.3117  0.1069
 2859DOPE   C4A33548  33.051  21.148  13.660 -0.1772  0.3175  0.3650
 2859DOPE   C1B33549  32.238  21.052  14.678 -0.1413  0.3011 -0.1682
 2859DOPE   D2B33550  32.057  20.855  14.311  0.0657  0.0049 -0.2221
 2859DOPE   C3B33551  31.892  20.753  13.880  0.0653 -0.4322 -0.1017
 2859DOPE   C4B33552  31.926  20.418  13.504 -0.1636  0.1729 -0.1946
 2860DOPE   NH333553  24.326  20.513  15.501  0.1487  0.2024  0.2904
 2860DOPE   PO433554  24.195  20.778  15.318  0.0820  0.0591  0.2624
 2860DOPE   GL133555  24.406  20.943  14.948 -0.0188 -0.3364 -0.0287
 2860DOPE   GL233556  24.176  20.793  14.825 -0.0509 -0.2055  0.0545
 2860DOPE   C1A33557  24.842  21.087  14.949 -0.1786 -0.1287  0.3026
 2860DOPE   D2A33558  25.265  21.172  14.647 -0.2408 -0.1152 -0.2457
 2860DOPE   C3A33559  25.217  21.144  14.182  0.1386 -0.1659 -0.0158
 2860DOPE   C4A33560  25.217  21.389  13.748  0.2782  0.4069  0.2882
 2860DOPE   C1B33561  24.283  20.641  14.488 -0.4310 -0.1940 -0.3109
 2860DOPE   D2B33562  24.419  20.730  14.057 -0.2189 -0.0132 -0.0358
 2860DOPE   C3B33563  24.306  20.451  13.701 -0.1207 -0.0370  0.2548
 2860DOPE   C4B33564  24.343  20.250  13.279  0.2009 -0.0092  0.0310
 2861DOPC   NC333565  32.605  22.811  16.357  0.3872 -0.0207  0.0323
 2861DOPC   PO433566  32.827  23.067  16.111 -0.0137 -0.1817  0.2407
 2861DOPC   GL133567  32.823  23.060  15.696 -0.3508 -0.2111 -0.1036
 2861DOPC   GL233568  32.607  23.288  15.625 -0.2930  0.1727  0.2417
 2861DOPC   C1A33569  32.733  22.861  15.265  0.3229 -0.0943  0.1305
 2861DOPC   D2A33570  32.615  23.030  14.857  0.0122  0.1123 -0.0849
 2861DOPC   C3A33571  32.585  22.767  14.499 -0.1060  0.0715  0.2982
 2861DOPC   C4A33572  32.919  22.617  14.212  0.1017 -0.1412 -0.1033
 2861DOPC   C1B33573  32.565  23.388  15.179  0.2659 -0.0575 -0.2382
 2861DOPC   D2B33574  32.133  23.426  15.069 -0.0018 -0.0931  0.2773
 2861DOPC   C3B33575  31.776  23.131  14.848 -0.2421 -0.0470 -0.3500
 2861DOPC   C4B33576  31.623  22.833  14.531 -0.2319  0.3566  0.2834
 2862DOPC   NC333577  33.021  21.192  16.435 -0.3945  0.0540  0.1424
 2862DOPC   PO433578  33.309  21.437  16.447  0.1763 -0.1894  0.2235
 2862DOPC   GL133579  33.392  21.062  16.209  0.0214 -0.1220  0.3915
 2862DOPC   GL233580  33.665  21.012  16.195  0.2405  0.1410  0.1261
 2862DOPC   C1A33581  33.291  20.869  15.792  0.1019 -0.2041 -0.2126
 2862DOPC   D2A33582  33.308  20.975  15.355  0.0043 -0.2430 -0.0532
 2862DOPC   C3A33583  33.811  21.121  15.257 -0.2693  0.0018  0.1688
 2862DOPC   C4A33584  34.222  21.266  15.413  0.0987  0.3482 -0.3106
 2862DOPC   C1B33585  33.522  21.301  15.830  0.1313  0.2992 -0.1116
 2862DOPC   D2B33586  33.553  21.723  15.728 -0.1282  0.4288 -0.2203
 2862DOPC   C3B33587  33.782  21.708  15.350  0.0509  0.2412  0.3058
 2862DOPC   C4B33588  33.997  21.528  15.022  0.1692  0.0734  0.1801
 2863POSM   NC333589  27.449  14.626  15.687 -0.2723 -0.3716  0.1628
 2863POSM   PO433590  27.236  14.872  15.909 -0.0257 -0.0687 -0.0241
 2863POSM   AM133591  27.075  14.887  15.663  0.0014 -0.4456  0.2161
 2863POSM   AM233592  27.068  14.979  15.389  0.0924  0.0953  0.3804
 2863POSM   T1A33593  26.627  14.892  15.351  0.1067 -0.0333  0.3727
 2863POSM   C2A33594  26.215  14.867  15.235  0.0249 -0.0527  0.0191
 2863POSM   C3A33595  25.800  15.064  15.147  0.0912  0.0035 -0.1354
 2863POSM   C1B33596  27.061  14.950  15.039  0.0556  0.1191 -0.2595
 2863POSM   D2B33597  27.050  14.787  14.630  0.0046 -0.1242 -0.5010
 2863POSM   C3B33598  26.834  14.392  14.663 -0.1120  0.2518 -0.2430
 2863POSM   C4B33599  26.922  13.928  14.696  0.0844  0.1445 -0.1856
 2864DOPS   CNO33600  31.467  22.002  16.362  0.0522  0.0823 -0.0059
 2864DOPS   PO433601  31.399  21.842  16.034  0.1945 -0.0907  0.0012
 2864DOPS   GL133602  31.478  21.567  15.727  0.0871  0.1489  0.0512
 2864DOPS   GL233603  31.451  21.326  15.544  0.2743 -0.1338 -0.1355
 2864DOPS   C1A33604  31.410  21.802  15.355  0.2036  0.0758  0.5408
 2864DOPS   D2A33605  31.452  21.776  14.923 -0.1928 -0.1902 -0.0207
 2864DOPS   C3A33606  31.715  21.875  14.590  0.0019 -0.2596  0.2669
 2864DOPS   C4A33607  32.051  21.801  14.326  0.0570 -0.1384  0.2498
 2864DOPS   C1B33608  31.303  21.325  15.067  0.2856 -0.0286  0.4249
 2864DOPS   D2B33609  31.109  21.221  14.669 -0.0157  0.2398 -0.1301
 2864DOPS   C3B33610  31.089  21.048  14.300  0.1130 -0.0791  0.2212
 2864DOPS   C4B33611  31.116  20.620  14.119 -0.2240 -0.2975 -0.0772
 2865DOPC   NC333612  28.492  14.060  16.092  0.0347 -0.0823  0.1953
 2865DOPC   PO433613  28.723  14.168  16.385 -0.2550  0.1262  0.2112
 2865DOPC   GL133614  28.865  14.383  16.002 -0.2386  0.1418 -0.0676
 2865DOPC   GL233615  28.733  14.285  15.771  0.1937 -0.1328  0.3233
 2865DOPC   C1A33616  29.113  14.616  15.669 -0.1214 -0.2342  0.1530
 2865DOPC   D2A33617  29.249  14.793  15.239  0.1004  0.0777  0.1003
 2865DOPC   C3A33618  29.619  14.936  15.065 -0.1422 -0.0457  0.0810
 2865DOPC   C4A33619  30.017  15.181  14.971  0.0129  0.1112  0.0330
 2865DOPC   C1B33620  28.335  14.316  15.651 -0.1796 -0.0992  0.1495
 2865DOPC   D2B33621  27.914  14.251  15.692  0.2415 -0.0534  0.0900
 2865DOPC   C3B33622  27.671  14.272  15.259  0.1189  0.0702 -0.1167
 2865DOPC   C4B33623  27.363  14.525  14.981  0.2677 -0.2012  0.0475
 2866DOPE   NH333624  25.314  17.084  15.610 -0.0580 -0.1488  0.0608
 2866DOPE   PO433625  25.326  17.387  15.516  0.2146 -0.0458  0.0585
 2866DOPE   GL133626  25.552  17.401  15.215 -0.3180 -0.0867 -0.2707
 2866DOPE   GL233627  25.674  17.082  15.217 -0.1517 -0.1850 -0.1982
 2866DOPE   C1A33628  25.258  17.123  14.933 -0.0140  0.1039 -0.0067
 2866DOPE   D2A33629  25.191  17.024  14.461 -0.1167 -0.1184 -0.1091
 2866DOPE   C3A33630  25.074  16.895  14.077  0.1531  0.0374 -0.0997
 2866DOPE   C4A33631  24.647  16.775  13.951 -0.5948 -0.1373  0.2903
 2866DOPE   C1B33632  26.155  17.208  15.101  0.1410  0.0453  0.0547
 2866DOPE   D2B33633  26.599  17.280  15.187  0.1524  0.0737  0.1313
 2866DOPE   C3B33634  26.958  16.992  14.938 -0.0169 -0.4118 -0.1214
 2866DOPE   C4B33635  27.406  16.931  14.702  0.0926  0.1350 -0.0645
 2867POSM   NC333636  31.239  20.994  15.820 -0.0963 -0.0855  0.2208
 2867POSM   PO433637  31.605  20.900  15.812  0.1059  0.2382 -0.0503
 2867POSM   AM133638  31.707  20.821  15.526 -0.0340  0.0737 -0.0717
 2867POSM   AM233639  31.712  20.984  15.304  0.1258 -0.0997  0.0407
 2867POSM   T1A33640  31.591  20.496  15.193 -0.2887  0.2577 -0.1372
 2867POSM   C2A33641  31.560  20.150  14.872 -0.0786  0.1227  0.1135
 2867POSM   C3A33642  31.410  19.894  14.501  0.0934  0.0883  0.0391
 2867POSM   C1B33643  31.706  20.981  14.937  0.0995 -0.0435 -0.0564
 2867POSM   D2B33644  31.488  20.938  14.530 -0.3383  0.2718  0.0628
 2867POSM   C3B33645  31.577  21.059  14.103  0.1090  0.1230 -0.2036
 2867POSM   C4B33646  31.525  21.317  13.704 -0.0567  0.0784 -0.1507
 2868DOPS   CNO33647  29.424  22.716  16.202 -0.1956 -0.2243 -0.0672
 2868DOPS   PO433648  29.085  22.793  16.066  0.0395  0.2025  0.0344
 2868DOPS   GL133649  29.005  22.859  15.686  0.0174  0.0748  0.3821
 2868DOPS   GL233650  28.737  22.842  15.717  0.0111  0.2417 -0.0008
 2868DOPS   C1A33651  29.219  23.096  15.354  0.0817 -0.5724  0.2019
 2868DOPS   D2A33652  29.451  23.314  15.008 -0.0043 -0.1095  0.0243
 2868DOPS   C3A33653  29.520  23.067  14.653 -0.1044 -0.2827  0.0995
 2868DOPS   C4A33654  29.586  22.763  14.324 -0.3312  0.1999 -0.3086
 2868DOPS   C1B33655  28.574  23.057  15.356  0.0105  0.1538 -0.0266
 2868DOPS   D2B33656  28.520  23.177  14.881  0.0705  0.2462 -0.2219
 2868DOPS   C3B33657  28.379  23.277  14.479  0.1944 -0.3155  0.1702
 2868DOPS   C4B33658  28.365  23.416  14.049  0.0637  0.0863  0.0860
 2869DOPC   NC333659  33.724  14.213  16.070 -0.2346  0.1682  0.0140
 2869DOPC   PO433660  34.044  14.049  16.216  0.0719  0.0774  0.0498
 2869DOPC   GL133661  34.260  14.136  15.881  0.0654  0.2607  0.0524
 2869DOPC   GL233662  34.083  14.362  15.688 -0.2640  0.0942  0.1178
 2869DOPC   C1A33663  34.253  13.865  15.498 -0.0218 -0.2455  0.4176
 2869DOPC   D2A33664  34.074  13.665  15.129 -0.1975  0.3444 -0.0638
 2869DOPC   C3A33665  33.692  13.554  14.882  0.0495 -0.0864 -0.0943
 2869DOPC   C4A33666  33.468  13.631  14.476  0.2759  0.1400  0.1668
 2869DOPC   C1B33667  33.573  14.505  15.685 -0.0351  0.2791  0.0416
 2869DOPC   D2B33668  33.297  14.649  15.332  0.2330 -0.0857 -0.1819
 2869DOPC   C3B33669  33.352  14.229  15.171  0.2085 -0.0524 -0.2388
 2869DOPC   C4B33670  33.258  13.857  14.858  0.0188  0.0520  0.0860
 2870DOPE   NH333671  29.608  16.443  16.554 -0.0278 -0.3925 -0.2294
 2870DOPE   PO433672  29.569  16.170  16.386 -0.0214  0.1495  0.1698
 2870DOPE   GL133673  29.391  16.073  15.997  0.1487 -0.3793  0.0748
 2870DOPE   GL233674  29.417  16.364  15.913 -0.1211  0.1421 -0.0650
 2870DOPE   C1A33675  29.359  15.910  15.545 -0.1624 -0.0649  0.1752
 2870DOPE   D2A33676  29.101  15.694  15.221  0.2887  0.1902  0.0445
 2870DOPE   C3A33677  28.980  15.879  14.790 -0.1900 -0.1603 -0.0553
 2870DOPE   C4A33678  28.936  15.685  14.399 -0.0597 -0.1114 -0.0444
 2870DOPE   C1B33679  29.169  16.444  15.580 -0.1239 -0.1628 -0.0315
 2870DOPE   D2B33680  28.820  16.555  15.347  0.5147  0.2563  0.1955
 2870DOPE   C3B33681  28.812  16.870  15.015  0.1076 -0.0975 -0.1246
 2870DOPE   C4B33682  29.108  17.188  14.800 -0.0231 -0.1741  0.1743
 2871DOPE   NH333683  28.640  16.669  16.523  0.0285 -0.0589  0.0812
 2871DOPE   PO433684  28.383  16.721  16.302  0.1742  0.3155  0.3195
 2871DOPE   GL133685  28.496  16.684  15.916  0.0257  0.0299 -0.0691
 2871DOPE   GL233686  28.684  16.858  15.864 -0.1645 -0.0487  0.1580
 2871DOPE   C1A33687  28.486  16.357  15.597  0.1151  0.2392 -0.0249
 2871DOPE   D2A33688  28.418  16.264  15.114  0.1323 -0.1522 -0.1139
 2871DOPE   C3A33689  28.665  16.418  14.801  0.2155  0.1467 -0.5839
 2871DOPE   C4A33690  28.943  16.250  14.488 -0.1903  0.1050 -0.2956
 2871DOPE   C1B33691  28.492  16.937  15.423  0.0786 -0.1410 -0.4009
 2871DOPE   D2B33692  28.351  16.713  15.045 -0.0536 -0.2789  0.1171
 2871DOPE   C3B33693  28.315  16.975  14.637 -0.2508  0.2817 -0.0217
 2871DOPE   C4B33694  27.927  16.942  14.333  0.3871  0.0265  0.0508
 2872DOPC   NC333695  31.803  22.870  16.597 -0.2910  0.0466  0.2196
 2872DOPC   PO433696  32.166  22.875  16.495 -0.1262 -0.0648 -0.2174
 2872DOPC   GL133697  32.226  22.921  16.115 -0.0717  0.1190  0.1928
 2872DOPC   GL233698  32.239  23.204  15.974  0.2337  0.0490 -0.2343
 2872DOPC   C1A33699  31.956  22.703  15.793  0.1928  0.0365  0.2082
 2872DOPC   D2A33700  31.775  22.488  15.393 -0.1733 -0.2581 -0.1411
 2872DOPC   C3A33701  31.434  22.263  15.313 -0.0196 -0.0135  0.1078
 2872DOPC   C4A33702  30.996  22.173  15.153 -0.2963  0.0531  0.0932
 2872DOPC   C1B33703  32.061  23.426  15.605 -0.0259  0.1754 -0.2117
 2872DOPC   D2B33704  31.781  23.793  15.430 -0.1018  0.0665  0.0166
 2872DOPC   C3B33705  31.398  24.018  15.363  0.0246 -0.1000  0.4063
 2872DOPC   C4B33706  31.105  24.197  15.106  0.1450  0.1055  0.0658
 2873POSM   NC333707  32.496  19.383  15.962 -0.1669  0.1607 -0.1034
 2873POSM   PO433708  32.171  19.440  16.102 -0.0919 -0.0472  0.2768
 2873POSM   AM133709  32.022  19.205  15.919 -0.2705 -0.5046  0.2724
 2873POSM   AM233710  32.151  19.091  15.689  0.1153 -0.2922  0.0443
 2873POSM   T1A33711  31.598  19.170  15.653  0.3293 -0.2304  0.0533
 2873POSM   C2A33712  31.415  18.952  15.282 -0.2724  0.0079 -0.0321
 2873POSM   C3A33713  31.346  18.784  14.873 -0.1598  0.3353  0.1410
 2873POSM   C1B33714  32.391  18.853  15.756 -0.0562  0.0288  0.2808
 2873POSM   D2B33715  32.805  18.651  15.722  0.1084  0.2673  0.2289
 2873POSM   C3B33716  33.033  18.824  15.365  0.4753 -0.1496 -0.1545
 2873POSM   C4B33717  33.160  18.994  14.909  0.0156  0.2103  0.0739
 2874DOPE   NH333718  23.787  20.971  15.085 -0.1861  0.3286 -0.0674
 2874DOPE   PO433719  23.860  21.264  15.175  0.0918  0.1695  0.1186
 2874DOPE   GL133720  24.142  21.247  14.812  0.2408 -0.2768  0.1243
 2874DOPE   GL233721  23.888  21.302  14.639  0.1002  0.2478 -0.0071
 2874DOPE   C1A33722  24.499  21.111  14.538 -0.0219 -0.0289 -0.1810
 2874DOPE   D2A33723  24.814  20.865  14.338 -0.0862 -0.1952  0.3331
 2874DOPE   C3A33724  24.969  20.663  13.933 -0.0339 -0.2256  0.3958
 2874DOPE   C4A33725  25.191  20.528  13.532  0.3269  0.0156 -0.3068
 2874DOPE   C1B33726  23.760  21.245  14.202 -0.2961  0.2185  0.0794
 2874DOPE   D2B33727  23.737  21.159  13.724 -0.2166 -0.1923 -0.1631
 2874DOPE   C3B33728  23.732  21.555  13.418  0.0648 -0.0667  0.0238
 2874DOPE   C4B33729  23.584  21.830  13.164  0.3136  0.3561 -0.1388
 2875DOPS   CNO33730  27.902  12.747  16.310  0.1077 -0.0440 -0.1729
 2875DOPS   PO433731  27.815  12.788  15.948  0.0302 -0.3647  0.1064
 2875DOPS   GL133732  27.883  13.170  15.670  0.0571 -0.4852 -0.2094
 2875DOPS   GL233733  28.116  13.341  15.692 -0.0200  0.1316 -0.2035
 2875DOPS   C1A33734  27.843  13.261  15.260 -0.3088 -0.3300  0.1126
 2875DOPS   D2A33735  27.880  13.384  14.818  0.1133  0.2542  0.0229
 2875DOPS   C3A33736  27.725  13.145  14.443  0.0507  0.0132 -0.2210
 2875DOPS   C4A33737  27.683  12.726  14.229  0.1443  0.2255  0.3556
 2875DOPS   C1B33738  27.999  13.686  15.344  0.0882 -0.1272  0.0317
 2875DOPS   D2B33739  27.954  13.942  14.954 -0.1495 -0.2511 -0.2462
 2875DOPS   C3B33740  27.995  13.785  14.560  0.2412 -0.0719  0.2473
 2875DOPS   C4B33741  28.262  13.589  14.255  0.1912  0.0629 -0.4455
 2876POSM   NC333742  30.294  20.049  16.665  0.1016  0.1313 -0.2694
 2876POSM   PO433743  30.616  20.083  16.394  0.3345 -0.2575 -0.0728
 2876POSM   AM133744  30.369  19.974  16.208 -0.3134  0.0570  0.1820
 2876POSM   AM233745  30.152  20.082  16.028 -0.0379  0.0656 -0.1031
 2876POSM   T1A33746  30.128  19.641  15.848 -0.3427  0.0675 -0.3869
 2876POSM   C2A33747  30.038  19.384  15.453 -0.1108 -0.2422 -0.0374
 2876POSM   C3A33748  29.878  19.328  15.042  0.0413 -0.3449 -0.1004
 2876POSM   C1B33749  30.169  20.143  15.672  0.0973 -0.0613 -0.0359
 2876POSM   D2B33750  30.242  20.388  15.216  0.1812 -0.0478 -0.1613
 2876POSM   C3B33751  29.908  20.595  15.033 -0.2255 -0.2592 -0.2266
 2876POSM   C4B33752  29.609  20.567  14.685  0.1331  0.0724 -0.0006
 2877POSM   NC333753  27.317  19.915  16.844 -0.0931 -0.0797  0.2308
 2877POSM   PO433754  27.310  19.906  16.455  0.0976  0.1660 -0.2464
 2877POSM   AM133755  27.373  19.887  16.144 -0.0765 -0.0905  0.2557
 2877POSM   AM233756  27.579  19.864  15.971 -0.1956 -0.1410  0.1025
 2877POSM   T1A33757  27.206  19.778  15.665  0.0911 -0.1520 -0.0486
 2877POSM   C2A33758  27.310  19.726  15.194 -0.1487 -0.1564  0.1271
 2877POSM   C3A33759  27.749  19.653  14.976  0.1240  0.0503 -0.1904
 2877POSM   C1B33760  27.633  19.996  15.597  0.0940  0.0611 -0.1523
 2877POSM   D2B33761  27.924  20.039  15.263 -0.0050 -0.1173  0.3961
 2877POSM   C3B33762  27.973  20.141  14.818 -0.3779  0.0904 -0.0918
 2877POSM   C4B33763  28.213  19.945  14.461 -0.1796 -0.0421 -0.1442
 2878DOPC   NC333764  27.012  11.428  16.001  0.1894 -0.1801 -0.0701
 2878DOPC   PO433765  26.802  11.550  15.633 -0.1113  0.2163 -0.3557
 2878DOPC   GL133766  26.693  11.717  15.320 -0.1067 -0.1481  0.2887
 2878DOPC   GL233767  26.913  11.608  15.120  0.1583 -0.0628  0.3357
 2878DOPC   C1A33768  26.338  12.044  15.189 -0.1388  0.0266  0.0497
 2878DOPC   D2A33769  26.095  12.312  14.818  0.0736  0.1730 -0.2680
 2878DOPC   C3A33770  25.879  12.242  14.475 -0.4494 -0.1126 -0.3386
 2878DOPC   C4A33771  25.753  11.868  14.181 -0.2021 -0.0403  0.0255
 2878DOPC   C1B33772  26.642  11.325  14.859  0.3437 -0.1516  0.0427
 2878DOPC   D2B33773  26.179  11.277  14.772  0.1330  0.0583 -0.0252
 2878DOPC   C3B33774  26.000  11.490  14.368  0.0360  0.1212 -0.0679
 2878DOPC   C4B33775  25.871  11.436  13.905  0.0767 -0.1184 -0.2977
 2879DOPS   CNO33776  30.349  15.776  16.263 -0.0057 -0.1346 -0.1175
 2879DOPS   PO433777  30.568  15.701  16.578  0.1648  0.0068  0.0613
 2879DOPS   GL133778  30.751  15.627  16.230 -0.0152 -0.2369  0.1548
 2879DOPS   GL233779  30.719  15.665  15.935 -0.0749 -0.2007 -0.2503
 2879DOPS   C1A33780  31.086  15.252  16.149 -0.2194  0.2687  0.0587
 2879DOPS   D2A33781  31.216  15.026  15.753 -0.0668 -0.0377 -0.0620
 2879DOPS   C3A33782  30.954  15.183  15.436  0.0709  0.4906  0.2138
 2879DOPS   C4A33783  30.702  15.566  15.306 -0.1986 -0.1783  0.1406
 2879DOPS   C1B33784  30.914  15.993  15.693  0.1138  0.1045  0.2207
 2879DOPS   D2B33785  31.240  16.248  15.640  0.1803  0.1360  0.0506
 2879DOPS   C3B33786  31.211  16.609  15.270  0.4821  0.0575  0.0151
 2879DOPS   C4B33787  31.571  16.715  15.004 -0.1869  0.1835 -0.0418
 2880DOPE   NH333788  32.446  21.715  15.874 -0.3516 -0.0029  0.1451
 2880DOPE   PO433789  32.417  21.956  16.077  0.0121 -0.0028  0.2335
 2880DOPE   GL133790  32.437  22.250  15.803  0.1069 -0.0865  0.0862
 2880DOPE   GL233791  32.125  22.166  15.707  0.2674 -0.1222  0.2582
 2880DOPE   C1A33792  32.665  22.241  15.385 -0.3046 -0.1526  0.1066
 2880DOPE   D2A33793  32.983  22.317  15.053  0.1707  0.3233  0.3818
 2880DOPE   C3A33794  32.788  22.283  14.600  0.0542 -0.0359  0.0136
 2880DOPE   C4A33795  32.527  22.219  14.162  0.2400 -0.0256 -0.2987
 2880DOPE   C1B33796  32.236  22.436  15.396  0.0884 -0.1034 -0.2864
 2880DOPE   D2B33797  32.502  22.515  14.983 -0.3015 -0.2232 -0.1747
 2880DOPE   C3B33798  32.375  22.077  14.856 -0.0514 -0.1446  0.0105
 2880DOPE   C4B33799  32.290  21.635  14.893 -0.0650 -0.1207  0.0025
 2881POSM   NC333800  33.704  18.141  16.548  0.1408 -0.0217  0.1030
 2881POSM   PO433801  33.688  17.859  16.330 -0.1023  0.2764  0.0841
 2881POSM   AM133802  33.560  17.855  16.018 -0.1768 -0.2067 -0.5367
 2881POSM   AM233803  33.632  17.957  15.730  0.0224  0.3425 -0.5475
 2881POSM   T1A33804  33.144  17.678  15.771  0.3841 -0.0294 -0.1073
 2881POSM   C2A33805  32.976  17.501  15.355 -0.0206 -0.0155 -0.0168
 2881POSM   C3A33806  32.918  17.151  15.018  0.3254 -0.2413 -0.1234
 2881POSM   C1B33807  33.848  17.891  15.472 -0.0776 -0.2796  0.2299
 2881POSM   D2B33808  34.043  17.737  15.109 -0.0187  0.1115 -0.0835
 2881POSM   C3B33809  33.772  17.716  14.752 -0.1530 -0.1217  0.2202
 2881POSM   C4B33810  33.335  17.768  14.511  0.0674 -0.1501 -0.2171
 2882POSM   NC333811  34.290  12.861  16.312  0.0568  0.0305  0.0179
 2882POSM   PO433812  34.461  13.092  16.068  0.1104 -0.2991  0.0443
 2882POSM   AM133813  34.322  13.217  15.819 -0.1661 -0.0106  0.0611
 2882POSM   AM233814  34.443  13.447  15.677 -0.3108  0.0904  0.0684
 2882POSM   T1A33815  34.065  13.242  15.378 -0.0871 -0.2584 -0.0287
 2882POSM   C2A33816  34.099  13.252  14.880  0.1984  0.3904  0.2748
 2882POSM   C3A33817  34.203  13.143  14.392  0.2587 -0.1549  0.0438
 2882POSM   C1B33818  34.576  13.505  15.394  0.2133  0.3765 -0.2057
 2882POSM   D2B33819  34.632  13.591  14.933 -0.1737  0.2800  0.3457
 2882POSM   C3B33820  34.428  13.768  14.541  0.0481 -0.1801 -0.0816
 2882POSM   C4B33821  33.982  13.681  14.448  0.0275 -0.0586 -0.1021
 2883DOPC   NC333822  25.049  19.443  15.717  0.0777  0.1343  0.3310
 2883DOPC   PO433823  24.728  19.328  15.590  0.0049 -0.1995  0.0943
 2883DOPC   GL133824  24.511  19.481  15.290 -0.0592  0.0131  0.0671
 2883DOPC   GL233825  24.688  19.729  15.096  0.0366  0.0231 -0.0993
 2883DOPC   C1A33826  24.620  19.324  14.838  0.1409  0.0976  0.2122
 2883DOPC   D2A33827  24.696  19.331  14.416 -0.1870 -0.1102 -0.2431
 2883DOPC   C3A33828  24.398  19.152  14.095 -0.1720 -0.1371  0.2024
 2883DOPC   C4A33829  24.072  19.229  13.712 -0.1302  0.1518 -0.2086
 2883DOPC   C1B33830  24.683  20.123  14.860  0.2128 -0.0926 -0.1756
 2883DOPC   D2B33831  24.741  20.543  14.717 -0.1429  0.2520  0.1448
 2883DOPC   C3B33832  25.086  20.713  14.725  0.3260 -0.0281  0.1728
 2883DOPC   C4B33833  25.372  20.809  15.050  0.0882  0.0434 -0.0788
 2884DOPC   NC333834  24.246  13.913  15.469 -0.3268 -0.1323  0.0006
 2884DOPC   PO433835  24.623  13.868  15.567 -0.1212 -0.0179 -0.0354
 2884DOPC   GL133836  24.698  13.949  15.196 -0.2201 -0.0857  0.2377
 2884DOPC   GL233837  24.626  13.700  15.003  0.2744 -0.1782  0.0555
 2884DOPC   C1A33838  24.639  14.110  14.752 -0.0990  0.0637 -0.0100
 2884DOPC   D2A33839  24.594  14.529  14.491 -0.0303  0.0158 -0.0539
 2884DOPC   C3A33840  24.726  14.589  14.076 -0.0536  0.1974 -0.2569
 2884DOPC   C4A33841  25.066  14.833  13.914  0.3603  0.2875 -0.0563
 2884DOPC   C1B33842  24.647  13.388  14.682 -0.1029 -0.0068 -0.0961
 2884DOPC   D2B33843  24.550  13.307  14.236  0.3714 -0.0991 -0.2544
 2884DOPC   C3B33844  24.317  13.076  13.925  0.0169 -0.0462 -0.0162
 2884DOPC   C4B33845  23.909  13.122  13.688  0.5078 -0.0337 -0.0539
 2885POSM   NC333846  28.953  11.932  15.742  0.1058  0.2711 -0.1649
 2885POSM   PO433847  29.257  11.755  15.808  0.0455 -0.4017  0.1103
 2885POSM   AM133848  29.360  11.789  15.511  0.3448  0.2488 -0.0938
 2885POSM   AM233849  29.527  11.965  15.458 -0.0287 -0.0535 -0.1405
 2885POSM   T1A33850  29.254  11.683  15.097 -0.0146 -0.1560  0.1779
 2885POSM   C2A33851  29.274  11.322  14.832  0.2326  0.0284 -0.0182
 2885POSM   C3A33852  29.266  10.912  14.639 -0.0816  0.3516 -0.2360
 2885POSM   C1B33853  29.436  12.158  15.262 -0.0907  0.2825 -0.1168
 2885POSM   D2B33854  29.404  12.282  14.810  0.0425  0.1160  0.1491
 2885POSM   C3B33855  29.548  12.606  14.627  0.2814 -0.2380 -0.2527
 2885POSM   C4B33856  29.574  13.015  14.513 -0.0565 -0.1016 -0.3570
 2886POSM   NC333857  34.012  16.146  15.800  0.0484  0.0501 -0.1195
 2886POSM   PO433858  33.998  16.525  15.889 -0.0433  0.1494  0.1793
 2886POSM   AM133859  33.974  16.669  15.620 -0.1642 -0.0510 -0.1913
 2886POSM   AM233860  34.043  16.838  15.427 -0.5752 -0.2841  0.0335
 2886POSM   T1A33861  33.632  16.702  15.245 -0.1427 -0.0259  0.2831
 2886POSM   C2A33862  33.621  16.489  14.814 -0.0483 -0.2769 -0.1973
 2886POSM   C3A33863  33.604  16.194  14.438  0.3142  0.1179 -0.0692
 2886POSM   C1B33864  34.204  16.967  15.142 -0.0115  0.0542 -0.2858
 2886POSM   D2B33865  34.197  17.337  14.812 -0.1596 -0.1648 -0.3319
 2886POSM   C3B33866  34.605  17.353  14.557 -0.1006  0.1199 -0.0575
 2886POSM   C4B33867  34.661  17.626  14.193 -0.0824  0.0304  0.1207
 2887DOPE   NH333868  33.374  22.331  16.550 -0.0851  0.2426  0.0189
 2887DOPE   PO433869  33.588  22.416  16.366 -0.0762 -0.2350  0.3779
 2887DOPE   GL133870  33.369  22.477  15.975 -0.0432 -0.3999  0.0391
 2887DOPE   GL233871  33.308  22.241  15.724  0.2247 -0.1824 -0.1889
 2887DOPE   C1A33872  33.642  22.609  15.625  0.4602  0.0564 -0.2152
 2887DOPE   D2A33873  33.902  22.536  15.226  0.1810 -0.0769 -0.1182
 2887DOPE   C3A33874  33.672  22.494  14.810  0.2395 -0.1017  0.1661
 2887DOPE   C4A33875  33.288  22.355  14.580  0.0977  0.1788 -0.1304
 2887DOPE   C1B33876  33.438  22.221  15.258 -0.1886 -0.0373  0.0046
 2887DOPE   D2B33877  33.284  21.927  14.959 -0.0595 -0.1654 -0.2871
 2887DOPE   C3B33878  33.264  21.826  14.496 -0.2103  0.1583 -0.3205
 2887DOPE   C4B33879  33.038  22.131  14.211  0.2912  0.1448  0.1021
 2888DOPC   NC333880  29.322  20.915  16.653 -0.1879 -0.0722  0.0001
 2888DOPC   PO433881  29.676  20.964  16.501  0.1770 -0.0415  0.5378
 2888DOPC   GL133882  29.760  21.224  16.249  0.4384 -0.1097 -0.1960
 2888DOPC   GL233883  29.998  21.158  16.150  0.1623 -0.0814  0.0979
 2888DOPC   C1A33884  29.600  21.288  15.862  0.0388  0.0504  0.3467
 2888DOPC   D2A33885  29.622  21.472  15.424  0.2291  0.1957 -0.0757
 2888DOPC   C3A33886  29.582  21.478  14.969 -0.1030 -0.2735  0.5401
 2888DOPC   C4A33887  29.751  21.513  14.531  0.0439 -0.2285  0.0535
 2888DOPC   C1B33888  30.119  21.153  15.675  0.1125  0.2518  0.0003
 2888DOPC   D2B33889  30.415  21.455  15.466  0.2715 -0.2774 -0.1239
 2888DOPC   C3B33890  30.688  21.308  15.085  0.1505 -0.2170  0.2996
 2888DOPC   C4B33891  30.630  21.281  14.642 -0.1399 -0.1119 -0.0242
 2889DOPE   NH333892  31.910  18.342  16.581 -0.1958 -0.0888  0.1255
 2889DOPE   PO433893  31.659  18.224  16.696 -0.1087 -0.2173  0.0430
 2889DOPE   GL133894  31.319  18.228  16.480 -0.1820 -0.0831  0.2498
 2889DOPE   GL233895  31.091  17.984  16.524  0.0618 -0.2097 -0.1752
 2889DOPE   C1A33896  31.058  18.425  16.141  0.1476 -0.0925 -0.0681
 2889DOPE   D2A33897  30.618  18.499  16.032 -0.3136  0.1937 -0.1367
 2889DOPE   C3A33898  30.518  18.278  15.656 -0.2376 -0.1057  0.0608
 2889DOPE   C4A33899  30.609  18.290  15.219  0.0073 -0.0923  0.0995
 2889DOPE   C1B33900  31.219  17.619  16.313  0.4129  0.1870 -0.0793
 2889DOPE   D2B33901  31.012  17.269  16.080  0.2514  0.4388 -0.0509
 2889DOPE   C3B33902  30.784  17.431  15.645  0.1864 -0.0361 -0.2599
 2889DOPE   C4B33903  30.308  17.345  15.517 -0.1066  0.0149 -0.0962
 2890DOPE   NH333904  33.944  15.172  16.177  0.2431 -0.3259 -0.2466
 2890DOPE   PO433905  33.788  15.168  15.897 -0.0093 -0.0770  0.1165
 2890DOPE   GL133906  33.747  14.965  15.603 -0.0523  0.1477 -0.2304
 2890DOPE   GL233907  33.840  15.149  15.400 -0.1935 -0.1537 -0.0114
 2890DOPE   C1A33908  33.761  14.742  15.205  0.2309 -0.2248  0.3611
 2890DOPE   D2A33909  33.561  14.598  14.739 -0.1159 -0.1099 -0.4295
 2890DOPE   C3A33910  33.517  14.631  14.264 -0.1880 -0.2208  0.0369
 2890DOPE   C4A33911  33.262  14.797  13.881  0.0223 -0.0787 -0.0694
 2890DOPE   C1B33912  34.155  15.161  15.102 -0.4491 -0.2137 -0.1195
 2890DOPE   D2B33913  34.429  15.050  14.738  0.1330 -0.1690  0.2820
 2890DOPE   C3B33914  34.239  15.358  14.440 -0.1119 -0.2340  0.2437
 2890DOPE   C4B33915  33.950  15.636  14.281 -0.4115 -0.1344  0.4007
 2891DOPE   NH333916  30.625  14.384  16.510  0.0562 -0.1391 -0.0995
 2891DOPE   PO433917  30.587  14.144  16.303  0.2382  0.1590 -0.4192
 2891DOPE   GL133918  30.668  14.252  15.976  0.2635  0.0525  0.0324
 2891DOPE   GL233919  30.744  14.492  15.940  0.2744  0.2486 -0.2254
 2891DOPE   C1A33920  30.717  14.116  15.505  0.3787 -0.3730 -0.0392
 2891DOPE   D2A33921  30.477  14.255  15.140 -0.2409 -0.0072 -0.1345
 2891DOPE   C3A33922  30.044  14.167  14.946  0.2193 -0.2242 -0.4297
 2891DOPE   C4A33923  29.600  14.355  14.939 -0.3077  0.1603  0.0705
 2891DOPE   C1B33924  30.701  14.746  15.510 -0.1539 -0.0789  0.3262
 2891DOPE   D2B33925  30.783  14.716  15.027 -0.0845  0.2014  0.0083
 2891DOPE   C3B33926  30.334  14.737  14.813  0.1482  0.2256  0.2798
 2891DOPE   C4B33927  29.989  14.505  14.592 -0.1383  0.1932 -0.0928
 2892DOPS   CNO33928  24.555  16.555  15.710 -0.0282  0.0947  0.4365
 2892DOPS   PO433929  24.296  16.413  15.435  0.1565 -0.4478  0.2563
 2892DOPS   GL133930  24.338  16.396  15.115 -0.3129 -0.2010  0.1000
 2892DOPS   GL233931  24.413  16.149  14.916 -0.0717  0.3612  0.0423
 2892DOPS   C1A33932  24.397  16.763  14.778 -0.0284 -0.2526 -0.2277
 2892DOPS   D2A33933  24.700  16.881  14.434 -0.1752  0.0607 -0.1358
 2892DOPS   C3A33934  24.730  17.221  14.127 -0.0403  0.0815 -0.1973
 2892DOPS   C4A33935  24.664  17.637  13.885  0.1200 -0.1380 -0.0092
 2892DOPS   C1B33936  24.410  16.379  14.498 -0.0259 -0.0830  0.1765
 2892DOPS   D2B33937  24.150  16.734  14.240 -0.2338  0.4151  0.0638
 2892DOPS   C3B33938  24.210  16.754  13.752 -0.2112 -0.2179 -0.1758
 2892DOPS   C4B33939  24.355  16.845  13.360  0.4491  0.0014  0.0814
 2893DOPE   NH333940  29.192  18.626  16.633 -0.0799  0.1225 -0.1442
 2893DOPE   PO433941  29.444  18.740  16.689 -0.0822 -0.1616  0.2253
 2893DOPE   GL133942  29.381  18.903  16.288 -0.0457 -0.0576  0.1292
 2893DOPE   GL233943  29.270  19.174  16.376 -0.1669 -0.0661  0.0230
 2893DOPE   C1A33944  29.646  18.825  15.881 -0.0538 -0.3453  0.1863
 2893DOPE   D2A33945  29.743  18.946  15.433 -0.2381  0.0305  0.0475
 2893DOPE   C3A33946  29.393  18.957  15.095  0.0114 -0.1319 -0.3289
 2893DOPE   C4A33947  29.129  18.847  14.702  0.2636  0.1663  0.2315
 2893DOPE   C1B33948  29.183  19.062  15.928 -0.1336  0.0355 -0.2005
 2893DOPE   D2B33949  29.198  19.166  15.479 -0.2231  0.1880  0.0010
 2893DOPE   C3B33950  28.883  19.000  15.147 -0.1995  0.2522 -0.1845
 2893DOPE   C4B33951  28.611  18.784  14.879  0.2707 -0.1458  0.0865
 2894DOPE   NH333952  25.707  18.007  15.945 -0.0701 -0.0888 -0.2245
 2894DOPE   PO433953  25.959  18.036  15.797 -0.0907  0.1523 -0.0983
 2894DOPE   GL133954  26.211  18.271  15.555  0.1131  0.0417 -0.0507
 2894DOPE   GL233955  26.466  18.161  15.527  0.2577 -0.0255 -0.1444
 2894DOPE   C1A33956  26.248  18.386  15.139  0.1863  0.1125  0.5417
 2894DOPE   D2A33957  26.533  18.273  14.852 -0.0469 -0.0274  0.0107
 2894DOPE   C3A33958  26.595  17.945  14.478 -0.1360  0.0896  0.0792
 2894DOPE   C4A33959  26.449  17.800  14.066 -0.0169  0.1387  0.3496
 2894DOPE   C1B33960  26.769  18.156  15.241  0.2447 -0.0457 -0.1537
 2894DOPE   D2B33961  26.945  18.060  14.800 -0.2487  0.2417  0.0763
 2894DOPE   C3B33962  27.336  17.866  14.676 -0.2052 -0.0705 -0.1020
 2894DOPE   C4B33963  27.766  17.754  14.831 -0.4021 -0.2051 -0.1546
 2895POSM   NC333964  26.572  12.218  15.970 -0.2157  0.1065  0.2612
 2895POSM   PO433965  26.746  12.333  15.639 -0.0071  0.4059 -0.0381
 2895POSM   AM133966  26.820  12.178  15.391 -0.2569 -0.0367 -0.0334
 2895POSM   AM233967  27.097  12.030  15.378 -0.0508  0.4784 -0.0394
 2895POSM   T1A33968  26.846  12.027  14.937 -0.3432  0.2247  0.2573
 2895POSM   C2A33969  26.944  11.656  14.667 -0.3922  0.0559  0.0504
 2895POSM   C3A33970  27.119  11.352  14.355  0.0893  0.0843 -0.2292
 2895POSM   C1B33971  27.263  12.248  15.200 -0.2597  0.3869  0.1578
 2895POSM   D2B33972  27.350  12.477  14.860 -0.5839 -0.2972  0.1215
 2895POSM   C3B33973  27.822  12.618  14.794  0.0588 -0.0455  0.0435
 2895POSM   C4B33974  28.071  12.932  14.987  0.0371  0.1192  0.0918
 2896POSM   NC333975  27.743  15.381  16.012 -0.0542 -0.4046 -0.0732
 2896POSM   PO433976  28.015  15.117  16.019 -0.0864  0.0482 -0.0265
 2896POSM   AM133977  28.000  15.144  15.680 -0.1568  0.0727  0.3427
 2896POSM   AM233978  27.766  15.048  15.550  0.1136  0.1701  0.2326
 2896POSM   T1A33979  28.141  15.452  15.307  0.2404 -0.2635 -0.0159
 2896POSM   C2A33980  28.253  15.703  15.005  0.1603 -0.2030 -0.2992
 2896POSM   C3A33981  28.423  15.951  14.698 -0.3301  0.2576 -0.1114
 2896POSM   C1B33982  27.590  14.948  15.235 -0.2364  0.2033 -0.1731
 2896POSM   D2B33983  27.436  14.970  14.755 -0.2505  0.0397 -0.1025
 2896POSM   C3B33984  27.550  14.880  14.296 -0.1439  0.0263 -0.2771
 2896POSM   C4B33985  27.721  14.471  14.128  0.1865 -0.1865  0.0030
 2897DOPC   NC333986  28.367  18.801  16.421  0.3360  0.0138 -0.1850
 2897DOPC   PO433987  28.715  18.686  16.546 -0.2123 -0.2859  0.1215
 2897DOPC   GL133988  28.918  18.851  16.214 -0.0632 -0.3541  0.0846
 2897DOPC   GL233989  28.677  18.903  16.044  0.0004 -0.1715 -0.0547
 2897DOPC   C1A33990  29.076  18.552  15.887 -0.2082  0.0288 -0.2846
 2897DOPC   D2A33991  29.187  18.155  15.679 -0.1847 -0.0461  0.0504
 2897DOPC   C3A33992  29.085  17.730  15.643 -0.0620  0.1498  0.1456
 2897DOPC   C4A33993  29.140  17.525  15.244  0.0931 -0.0432  0.0844
 2897DOPC   C1B33994  28.805  18.908  15.627  0.0397 -0.2122 -0.2227
 2897DOPC   D2B33995  29.093  18.629  15.423  0.1317 -0.0802 -0.1731
 2897DOPC   C3B33996  29.045  18.467  15.020  0.2158 -0.4150  0.3155
 2897DOPC   C4B33997  29.299  18.351  14.649 -0.0249 -0.4087  0.1433
 2898DOPC   NC333998  27.201  20.713  15.951 -0.0353 -0.0111  0.2138
 2898DOPC   PO433999  26.851  20.599  16.059  0.4763  0.2821  0.1286
 2898DOPC   GL134000  26.707  20.395  15.807 -0.1155 -0.2963  0.2201
 2898DOPC   GL234001  26.836  20.548  15.528 -0.0744 -0.1284  0.1025
 2898DOPC   C1A34002  26.778  20.061  15.468  0.2425 -0.1968  0.0202
 2898DOPC   D2A34003  26.861  19.625  15.355  0.4131  0.3015 -0.2255
 2898DOPC   C3A34004  27.052  19.385  14.952 -0.0467 -0.1227 -0.0215
 2898DOPC   C4A34005  27.173  18.960  14.849 -0.0585  0.0667 -0.0337
 2898DOPC   C1B34006  27.179  20.372  15.299  0.1838 -0.3376 -0.2933
 2898DOPC   D2B34007  27.538  20.156  15.024 -0.1624 -0.1011  0.0333
 2898DOPC   C3B34008  27.484  20.241  14.563  0.0125  0.2582  0.4362
 2898DOPC   C4B34009  27.867  20.296  14.280  0.0893 -0.0053  0.2462
 2899POSM   NC334010  26.385  20.836  15.886 -0.1715  0.2505  0.2559
 2899POSM   PO434011  26.339  21.219  15.833  0.0328 -0.0797 -0.1637
 2899POSM   AM134012  26.372  21.365  15.548  0.3296 -0.0681 -0.1173
 2899POSM   AM234013  26.521  21.299  15.354 -0.2716 -0.0002  0.1694
 2899POSM   T1A34014  26.147  21.247  15.102 -0.0410 -0.1152 -0.0404
 2899POSM   C2A34015  26.269  21.175  14.664 -0.2779  0.2716 -0.1200
 2899POSM   C3A34016  26.151  21.128  14.197 -0.1842 -0.2698  0.0246
 2899POSM   C1B34017  26.614  21.357  15.041 -0.1202 -0.1259  0.0972
 2899POSM   D2B34018  26.647  21.599  14.651 -0.0927  0.1656 -0.1321
 2899POSM   C3B34019  26.557  21.487  14.240  0.0460 -0.1269 -0.1103
 2899POSM   C4B34020  26.683  21.065  14.014 -0.0757 -0.4967  0.2803
 2900DOPC   NC334021  32.657  13.209  15.842  0.2571  0.0627  0.0291
 2900DOPC   PO434022  32.933  13.457  15.980 -0.0753 -0.0104 -0.1340
 2900DOPC   GL134023  32.642  13.744  15.913  0.1156  0.0249 -0.4617
 2900DOPC   GL234024  32.452  13.608  16.117  0.2791 -0.0524  0.5372
 2900DOPC   C1A34025  32.597  13.971  15.481  0.0900 -0.0643 -0.0142
 2900DOPC   D2A34026  32.338  13.943  15.080  0.1664 -0.0260 -0.0379
 2900DOPC   C3A34027  32.323  14.333  14.863  0.2293 -0.1974  0.3123
 2900DOPC   C4A34028  32.555  14.422  14.459 -0.0388 -0.1674 -0.1338
 2900DOPC   C1B34029  32.156  13.889  15.818 -0.0690  0.2072  0.4991
 2900DOPC   D2B34030  32.034  14.236  15.458 -0.1205 -0.0918  0.1742
 2900DOPC   C3B34031  32.361  14.544  15.344  0.2550  0.4969 -0.3831
 2900DOPC   C4B34032  32.261  14.806  15.012  0.0138  0.1687  0.0152
 2901POSM   NC334033  23.749  19.506  15.264  0.1641 -0.0895 -0.2013
 2901POSM   PO434034  23.636  19.477  14.912  0.2475  0.0005  0.2480
 2901POSM   AM134035  23.603  19.363  14.605 -0.2110 -0.0940  0.1649
 2901POSM   AM234036  23.413  19.478  14.396  0.0607 -0.2594  0.0534
 2901POSM   T1A34037  23.907  19.224  14.275 -0.2815  0.4041  0.0104
 2901POSM   C2A34038  23.995  18.828  14.085  0.1273  0.2643  0.2075
 2901POSM   C3A34039  24.204  18.597  13.709  0.3751 -0.2328  0.3725
 2901POSM   C1B34040  23.462  19.612  14.082  0.0002  0.0302 -0.0087
 2901POSM   D2B34041  23.592  19.669  13.683 -0.2171  0.1359  0.1311
 2901POSM   C3B34042  23.630  19.316  13.432 -0.0905  0.0790  0.4764
 2901POSM   C4B34043  23.712  19.167  13.031 -0.0508  0.2232 -0.1857
 2902DOPC   NC334044  25.648  16.686  16.224  0.0641  0.2064  0.2484
 2902DOPC   PO434045  25.635  17.042  16.048 -0.2204 -0.1875  0.3356
 2902DOPC   GL134046  25.679  16.903  15.736  0.1517 -0.0889  0.0347
 2902DOPC   GL234047  25.535  16.605  15.641  0.3537 -0.2936  0.3849
 2902DOPC   C1A34048  26.031  16.861  15.476  0.0207 -0.2434 -0.0879
 2902DOPC   D2A34049  26.461  16.775  15.257 -0.2582  0.0679  0.4423
 2902DOPC   C3A34050  26.883  16.557  15.206 -0.2685 -0.3817 -0.0333
 2902DOPC   C4A34051  27.277  16.587  15.003  0.0386 -0.0656  0.0354
 2902DOPC   C1B34052  25.839  16.406  15.417  0.1702 -0.0507 -0.1542
 2902DOPC   D2B34053  25.889  16.639  15.082 -0.1661  0.2432  0.0135
 2902DOPC   C3B34054  26.185  16.684  14.728 -0.0032  0.1042  0.0400
 2902DOPC   C4B34055  26.553  16.967  14.714 -0.0273 -0.0304  0.1012
 2903POSM   NC334056  24.764  22.584  15.969 -0.2000  0.0787  0.1628
 2903POSM   PO434057  24.398  22.482  15.902  0.2737  0.3367  0.0315
 2903POSM   AM134058  24.488  22.448  15.587  0.2314  0.2242 -0.2073
 2903POSM   AM234059  24.690  22.578  15.448 -0.2533  0.1066 -0.0428
 2903POSM   T1A34060  24.363  22.507  15.117  0.2546 -0.1172 -0.0493
 2903POSM   C2A34061  24.260  22.709  14.679 -0.1563  0.0528  0.0075
 2903POSM   C3A34062  24.261  22.747  14.190 -0.0433 -0.3668  0.3987
 2903POSM   C1B34063  24.824  22.508  15.115  0.1627 -0.1490 -0.0097
 2903POSM   D2B34064  24.774  22.437  14.688  0.2954  0.2048 -0.1226
 2903POSM   C3B34065  25.147  22.369  14.383  0.0955 -0.0733 -0.1132
 2903POSM   C4B34066  25.478  22.078  14.281  0.1101  0.1772 -0.2457
 2904DOPE   NH334067  26.466  18.320  16.013  0.1225  0.1571  0.0509
 2904DOPE   PO434068  26.223  18.498  16.000 -0.1583  0.2187  0.0498
 2904DOPE   GL134069  26.434  18.686  15.596 -0.1543  0.3051 -0.1225
 2904DOPE   GL234070  26.761  18.542  15.537  0.0865 -0.2903 -0.3090
 2904DOPE   C1A34071  26.740  19.045  15.515  0.0885 -0.1775  0.2678
 2904DOPE   D2A34072  27.156  19.178  15.319  0.0545  0.2870 -0.4104
 2904DOPE   C3A34073  27.367  18.754  15.279 -0.2610  0.0869  0.0109
 2904DOPE   C4A34074  27.217  18.403  15.068  0.2625 -0.0640 -0.2780
 2904DOPE   C1B34075  26.718  18.643  15.054  0.0064  0.1994  0.0324
 2904DOPE   D2B34076  26.356  18.782  14.741 -0.0293  0.1230  0.0973
 2904DOPE   C3B34077  26.283  19.142  14.443 -0.0240 -0.0081 -0.0197
 2904DOPE   C4B34078  26.327  19.513  14.180  0.0344 -0.0366  0.0896
 2905DOPC   NC334079  33.828  13.203  15.840 -0.0811 -0.0931  0.0067
 2905DOPC   PO434080  33.576  12.875  15.800  0.3340  0.0178  0.0264
 2905DOPC   GL134081  33.393  13.127  15.480 -0.2473  0.1986  0.1179
 2905DOPC   GL234082  33.317  13.387  15.624  0.0713 -0.1929 -0.2682
 2905DOPC   C1A34083  33.201  13.372  15.108 -0.0922  0.2555  0.1746
 2905DOPC   D2A34084  32.825  13.693  14.996 -0.1015 -0.0696  0.1915
 2905DOPC   C3A34085  32.742  13.970  14.634  0.2001 -0.2923 -0.0157
 2905DOPC   C4A34086  32.857  14.038  14.201 -0.1837 -0.0660 -0.1179
 2905DOPC   C1B34087  33.624  13.622  15.382 -0.1630 -0.1919 -0.0134
 2905DOPC   D2B34088  33.774  14.047  15.377 -0.2064 -0.0830  0.1228
 2905DOPC   C3B34089  33.825  14.265  15.000 -0.1065 -0.0220  0.1570
 2905DOPC   C4B34090  33.694  14.231  14.483 -0.5001 -0.2103 -0.1292
 2906DOPC   NC334091  29.306  12.536  16.632  0.0343 -0.0367  0.1491
 2906DOPC   PO434092  29.653  12.637  16.405  0.1460 -0.0670 -0.0895
 2906DOPC   GL134093  29.808  12.562  15.958 -0.1545 -0.0827 -0.1750
 2906DOPC   GL234094  29.850  12.279  15.799 -0.0618  0.1371  0.1222
 2906DOPC   C1A34095  29.666  12.838  15.618 -0.2812 -0.0127 -0.1651
 2906DOPC   D2A34096  29.496  13.239  15.407  0.1514  0.0978  0.1780
 2906DOPC   C3A34097  29.361  13.171  14.982  0.1483 -0.0198 -0.2958
 2906DOPC   C4A34098  29.161  12.855  14.632  0.2319 -0.0187  0.3299
 2906DOPC   C1B34099  29.935  12.410  15.355  0.0985 -0.0892  0.4510
 2906DOPC   D2B34100  29.830  12.153  14.939 -0.2519  0.3903  0.0938
 2906DOPC   C3B34101  29.796  12.217  14.469  0.0093 -0.0748  0.0992
 2906DOPC   C4B34102  29.617  12.492  14.146 -0.0815 -0.3513  0.1965
 2907DOPC   NC334103  26.775  15.904  16.072 -0.2295 -0.0483  0.4478
 2907DOPC   PO434104  26.720  16.251  16.208  0.0653 -0.0146  0.0261
 2907DOPC   GL134105  26.878  16.354  15.913  0.2315 -0.0891 -0.0070
 2907DOPC   GL234106  26.778  16.266  15.642 -0.0535 -0.0153 -0.2013
 2907DOPC   C1A34107  27.159  16.704  15.773 -0.0418 -0.1280  0.0007
 2907DOPC   D2A34108  27.373  17.110  15.894  0.0318  0.2239 -0.2557
 2907DOPC   C3A34109  27.832  17.177  15.719 -0.2284  0.2569  0.0159
 2907DOPC   C4A34110  28.245  17.361  15.618 -0.1628 -0.0354 -0.0103
 2907DOPC   C1B34111  26.854  16.074  15.249 -0.0066  0.0044 -0.3308
 2907DOPC   D2B34112  26.873  15.796  14.954  0.3642 -0.0189 -0.0396
 2907DOPC   C3B34113  26.390  15.760  15.021  0.0250  0.0752  0.3574
 2907DOPC   C4B34114  26.076  15.474  15.178  0.0014  0.2647 -0.1319
 2908DOPC   NC334115  33.258  19.974  16.327  0.2302  0.1175  0.4243
 2908DOPC   PO434116  32.901  20.192  16.263  0.3040 -0.0596  0.0620
 2908DOPC   GL134117  32.853  20.240  15.798 -0.1043  0.0941  0.0819
 2908DOPC   GL234118  33.011  19.989  15.765 -0.0274 -0.0182 -0.1305
 2908DOPC   C1A34119  33.149  20.454  15.521  0.1322 -0.0286 -0.2103
 2908DOPC   D2A34120  33.163  20.515  15.084 -0.1257  0.2728  0.1827
 2908DOPC   C3A34121  32.854  20.594  14.796  0.3542  0.0826  0.4478
 2908DOPC   C4A34122  32.451  20.509  14.704  0.0200 -0.3016  0.1411
 2908DOPC   C1B34123  33.163  20.009  15.347  0.0875 -0.1104 -0.0331
 2908DOPC   D2B34124  33.125  19.759  15.001  0.0761 -0.1978  0.1621
 2908DOPC   C3B34125  32.820  19.414  14.848 -0.1876  0.1537  0.0768
 2908DOPC   C4B34126  32.548  19.139  14.623 -0.0762 -0.1195 -0.0872
 2909DOPS   CNO34127  29.411  17.205  16.699 -0.0004  0.1012  0.0713
 2909DOPS   PO434128  29.256  16.929  16.518 -0.0688  0.2794 -0.2003
 2909DOPS   GL134129  29.596  16.844  16.398 -0.2124 -0.1653 -0.0502
 2909DOPS   GL234130  29.715  17.137  16.272  0.3044 -0.1516 -0.1155
 2909DOPS   C1A34131  29.761  16.762  16.025 -0.0208  0.3373 -0.1768
 2909DOPS   D2A34132  29.722  16.744  15.539  0.0103  0.0733  0.2889
 2909DOPS   C3A34133  29.958  16.853  15.164  0.1481  0.0901  0.3341
 2909DOPS   C4A34134  30.101  17.271  15.016  0.2135  0.0224 -0.6456
 2909DOPS   C1B34135  29.917  17.208  15.780 -0.0341  0.1824  0.0996
 2909DOPS   D2B34136  29.751  17.324  15.306  0.0198  0.1252  0.0559
 2909DOPS   C3B34137  29.374  17.003  15.231 -0.1713 -0.0338 -0.0398
 2909DOPS   C4B34138  29.002  16.985  15.480 -0.0693  0.2493  0.4214
 2910DOPC   NC334139  29.567  15.687  16.402  0.0160  0.2784  0.1106
 2910DOPC   PO434140  29.940  15.572  16.438 -0.1591 -0.3563 -0.2699
 2910DOPC   GL134141  29.929  15.541  16.018  0.0799 -0.0643  0.1097
 2910DOPC   GL234142  29.771  15.787  15.955  0.2036 -0.0296  0.2768
 2910DOPC   C1A34143  30.271  15.676  15.679  0.3550  0.0762  0.1452
 2910DOPC   D2A34144  30.223  15.634  15.209 -0.0324  0.2634  0.2588
 2910DOPC   C3A34145  30.531  15.820  14.853  0.0121 -0.2475 -0.0567
 2910DOPC   C4A34146  30.450  16.194  14.633  0.2242  0.1633  0.3032
 2910DOPC   C1B34147  29.860  15.874  15.523  0.1625 -0.1778 -0.3004
 2910DOPC   D2B34148  29.936  16.058  15.116 -0.0104  0.0640  0.0198
 2910DOPC   C3B34149  30.009  15.785  14.726 -0.0539 -0.0143  0.1149
 2910DOPC   C4B34150  30.136  15.634  14.298  0.0864  0.1191  0.1266
 2911DOPS   CNO34151  31.151  20.129  16.405 -0.0151 -0.2204  0.0818
 2911DOPS   PO434152  31.023  20.226  16.077 -0.2034 -0.1027  0.0963
 2911DOPS   GL134153  30.739  20.132  15.720 -0.0144 -0.0954 -0.2335
 2911DOPS   GL234154  30.614  19.862  15.847 -0.1248 -0.0519 -0.2441
 2911DOPS   C1A34155  30.717  20.121  15.253 -0.3043 -0.1947 -0.0595
 2911DOPS   D2A34156  30.467  19.951  14.880 -0.0809 -0.1195 -0.4271
 2911DOPS   C3A34157  30.502  19.983  14.445 -0.0814  0.2920 -0.0143
 2911DOPS   C4A34158  30.496  19.971  13.969 -0.2792  0.1597  0.1054
 2911DOPS   C1B34159  30.380  19.816  15.405 -0.2338 -0.0531 -0.0716
 2911DOPS   D2B34160  29.939  19.857  15.182 -0.0665 -0.0917  0.0294
 2911DOPS   C3B34161  29.975  20.169  14.820 -0.1773 -0.1706  0.2681
 2911DOPS   C4B34162  29.700  20.148  14.458 -0.0568 -0.0186 -0.1807
 2912POSM   NC334163  34.410  11.878  15.719 -0.2228  0.0262 -0.0278
 2912POSM   PO434164  34.609  12.232  15.649 -0.0398  0.0323  0.0178
 2912POSM   AM134165  34.815  12.021  15.503 -0.3196  0.2544 -0.0511
 2912POSM   AM234166  34.878  11.769  15.577  0.0874 -0.2105 -0.1585
 2912POSM   T1A34167  35.059  11.883  15.075 -0.1430 -0.1227 -0.2169
 2912POSM   C2A34168  35.126  11.522  14.824 -0.2834  0.4296  0.1583
 2912POSM   C3A34169  35.205  11.410  14.406 -0.0370 -0.1585  0.1837
 2912POSM   C1B34170  34.822  11.544  15.349  0.1987 -0.1097 -0.0904
 2912POSM   D2B34171  34.635  11.530  14.928 -0.0404 -0.3819 -0.1243
 2912POSM   C3B34172  34.446  11.872  14.662  0.2169  0.0533 -0.1337
 2912POSM   C4B34173  33.962  11.904  14.600  0.2412 -0.2095 -0.2300
 2913DOPS   CNO34174  27.419  16.565  16.392 -0.4019 -0.2874  0.1376
 2913DOPS   PO434175  27.608  16.900  16.290  0.0631  0.2292  0.1167
 2913DOPS   GL134176  27.557  16.643  15.937 -0.1837 -0.0097 -0.2603
 2913DOPS   GL234177  27.865  16.634  15.894 -0.0473  0.0763  0.1119
 2913DOPS   C1A34178  27.554  16.733  15.473 -0.3559  0.3193  0.0389
 2913DOPS   D2A34179  27.524  17.068  15.226 -0.2081  0.5223 -0.0971
 2913DOPS   C3A34180  27.235  17.422  15.010 -0.2598  0.0548 -0.0884
 2913DOPS   C4A34181  26.966  17.666  15.243 -0.1519 -0.2212 -0.1036
 2913DOPS   C1B34182  28.039  16.701  15.478 -0.1270  0.3095 -0.0087
 2913DOPS   D2B34183  27.841  16.660  15.056  0.0034  0.2294  0.1737
 2913DOPS   C3B34184  27.641  16.505  14.659  0.0149  0.2555 -0.0454
 2913DOPS   C4B34185  27.710  16.519  14.183 -0.0114  0.0522 -0.0097
 2914DOPS   CNO34186  24.395  14.495  15.134 -0.1092 -0.0263  0.2327
 2914DOPS   PO434187  24.158  14.606  15.412  0.0867 -0.5148  0.0346
 2914DOPS   GL134188  23.991  14.704  14.963  0.0750 -0.0848 -0.2221
 2914DOPS   GL234189  23.753  14.844  14.949 -0.1913  0.1001  0.3794
 2914DOPS   C1A34190  24.134  14.293  14.750 -0.3121 -0.2523 -0.2615
 2914DOPS   D2A34191  23.899  13.977  14.498 -0.0588 -0.2991  0.0482
 2914DOPS   C3A34192  23.826  14.012  14.018 -0.0739  0.2101 -0.1411
 2914DOPS   C4A34193  23.599  14.136  13.650  0.1850  0.2102 -0.2805
 2914DOPS   C1B34194  23.824  14.656  14.509  0.0545  0.1007 -0.2731
 2914DOPS   D2B34195  24.195  14.522  14.197 -0.3114  0.2738  0.0247
 2914DOPS   C3B34196  24.357  14.055  14.293  0.1955  0.0351 -0.1106
 2914DOPS   C4B34197  24.717  13.802  14.241  0.2248  0.3005  0.2009
 2915DOPE   NH334198  25.809  15.481  16.201 -0.1002 -0.1516  0.2780
 2915DOPE   PO434199  26.020  15.495  15.936  0.0682 -0.3413  0.2701
 2915DOPE   GL134200  26.429  15.531  15.693 -0.1123  0.3312  0.1419
 2915DOPE   GL234201  26.519  15.815  15.562  0.0961  0.0490 -0.0256
 2915DOPE   C1A34202  26.662  15.427  15.314 -0.2290  0.2841  0.0501
 2915DOPE   D2A34203  26.578  15.252  14.857  0.0615  0.0055 -0.0341
 2915DOPE   C3A34204  26.170  15.026  14.729 -0.1876 -0.1887 -0.1538
 2915DOPE   C4A34205  25.705  14.984  14.636 -0.2276 -0.2768  0.4194
 2915DOPE   C1B34206  26.062  16.019  15.586  0.1051  0.1531  0.3979
 2915DOPE   D2B34207  25.631  15.886  15.420 -0.2993  0.1885  0.1745
 2915DOPE   C3B34208  25.664  16.091  14.980 -0.0019  0.0688 -0.1282
 2915DOPE   C4B34209  25.909  16.002  14.562  0.1052 -0.2710 -0.2737
 2916DOPE   NH334210  32.306  12.203  15.724  0.1279 -0.1891 -0.4845
 2916DOPE   PO434211  32.574  12.368  15.684 -0.0327 -0.0777  0.1380
 2916DOPE   GL134212  32.637  12.620  15.511  0.2051  0.0795 -0.0595
 2916DOPE   GL234213  32.864  12.547  15.329  0.0374  0.0391  0.1339
 2916DOPE   C1A34214  32.353  12.856  15.224 -0.0800 -0.0752 -0.0243
 2916DOPE   D2A34215  32.134  12.897  14.846 -0.3171  0.0215  0.1434
 2916DOPE   C3A34216  32.058  12.606  14.525  0.2406 -0.3160  0.0889
 2916DOPE   C4A34217  31.948  12.443  14.107  0.0311 -0.2293 -0.2626
 2916DOPE   C1B34218  32.845  13.056  15.317  0.1436  0.1647 -0.0271
 2916DOPE   D2B34219  32.788  13.505  15.444 -0.0539  0.2118  0.1763
 2916DOPE   C3B34220  33.111  13.855  15.353 -0.1437  0.1098  0.0053
 2916DOPE   C4B34221  33.365  14.002  15.639  0.3971  0.0651 -0.3695
 2917DOPE   NH334222  30.876  21.644  16.293  0.2455 -0.1365  0.1358
 2917DOPE   PO434223  31.070  21.401  16.132 -0.0578 -0.0305  0.2704
 2917DOPE   GL134224  31.015  21.509  15.735 -0.0042  0.4216 -0.1782
 2917DOPE   GL234225  30.892  21.733  15.829  0.0146  0.1010  0.0578
 2917DOPE   C1A34226  30.947  21.655  15.286  0.0791 -0.1752 -0.1552
 2917DOPE   D2A34227  30.964  21.755  14.858 -0.3551  0.0816  0.0185
 2917DOPE   C3A34228  30.594  21.896  14.661 -0.1318  0.5011  0.1380
 2917DOPE   C4A34229  30.221  21.717  14.400 -0.3720  0.2927 -0.1450
 2917DOPE   C1B34230  30.690  22.031  15.557  0.2658 -0.1167 -0.0340
 2917DOPE   D2B34231  30.478  21.937  15.142 -0.0617  0.0776 -0.3090
 2917DOPE   C3B34232  30.225  21.538  14.981 -0.1123 -0.2249  0.2143
 2917DOPE   C4B34233  30.096  21.211  14.696 -0.1389 -0.0037  0.2495
 2918DOPC   NC334234  27.004  18.455  16.672  0.0416  0.0808 -0.1031
 2918DOPC   PO434235  26.940  18.462  16.271 -0.0513 -0.1719 -0.0324
 2918DOPC   GL134236  27.190  18.395  15.904 -0.1386  0.0954  0.0796
 2918DOPC   GL234237  27.249  18.715  15.821 -0.1468 -0.1265 -0.1748
 2918DOPC   C1A34238  27.217  18.147  15.472  0.3561  0.3727 -0.1319
 2918DOPC   D2A34239  27.465  17.866  15.261  0.0753 -0.0419 -0.0192
 2918DOPC   C3A34240  27.797  17.495  15.282  0.1218  0.1575 -0.1677
 2918DOPC   C4A34241  28.054  17.123  15.088 -0.2611  0.0510  0.0681
 2918DOPC   C1B34242  27.642  18.835  15.647 -0.0520  0.0626 -0.0861
 2918DOPC   D2B34243  27.870  18.726  15.280 -0.0995 -0.2476 -0.0061
 2918DOPC   C3B34244  28.101  18.615  14.944 -0.0510  0.0770 -0.0036
 2918DOPC   C4B34245  27.960  18.620  14.476  0.1847 -0.0016 -0.1200
 2919DOPC   NC334246   0.625  15.587  15.922  0.1994 -0.3388 -0.0559
 2919DOPC   PO434247   0.263  15.786  15.990 -0.0313 -0.0271 -0.1705
 2919DOPC   GL134248   0.180  15.817  15.689 -0.0832 -0.1283 -0.0133
 2919DOPC   GL234249   0.091  15.598  15.508  0.1152  0.0394 -0.1402
 2919DOPC   C1A34250  -0.137  16.015  15.336  0.0028  0.1793  0.0777
 2919DOPC   D2A34251  -0.535  16.321  15.213  0.1261  0.1083  0.3120
 2919DOPC   C3A34252  -0.612  16.540  14.780 -0.0696 -0.0850  0.0589
 2919DOPC   C4A34253  -0.703  16.518  14.323 -0.2805 -0.1063  0.0801
 2919DOPC   C1B34254   0.398  15.673  15.114 -0.1648  0.0476 -0.0070
 2919DOPC   D2B34255   0.812  15.477  14.882 -0.1392  0.1130 -0.0915
 2919DOPC   C3B34256   1.067  15.078  15.091  0.3815  0.1154  0.1350
 2919DOPC   C4B34257   1.342  15.107  15.395  0.0752  0.1208  0.0660
 2920POSM   NC334258  26.929  16.684  16.273  0.2291  0.1414  0.0471
 2920POSM   PO434259  26.518  16.817  16.364 -0.2004 -0.0822  0.0985
 2920POSM   AM134260  26.546  16.739  16.072 -0.3728 -0.1177 -0.0722
 2920POSM   AM234261  26.425  16.584  15.886 -0.0004  0.0264 -0.1664
 2920POSM   T1A34262  26.704  16.865  15.623 -0.2564  0.0919  0.1262
 2920POSM   C2A34263  27.068  17.051  15.428 -0.0382 -0.0582  0.0751
 2920POSM   C3A34264  27.387  17.415  15.527  0.1546 -0.1059  0.2208
 2920POSM   C1B34265  26.334  16.436  15.615  0.1107  0.0848  0.2703
 2920POSM   D2B34266  26.333  16.195  15.216  0.3042  0.0829  0.3675
 2920POSM   C3B34267  26.678  16.314  14.859  0.1096  0.0378 -0.2944
 2920POSM   C4B34268  26.947  16.624  14.594 -0.0667  0.2002 -0.1778
 2921POSM   NC334269  25.188  21.983  15.821  0.2146  0.0033  0.1951
 2921POSM   PO434270  25.150  21.623  15.609 -0.0230  0.0608  0.1123
 2921POSM   AM134271  25.308  21.502  15.319 -0.0994 -0.0635  0.1699
 2921POSM   AM234272  25.362  21.674  15.089  0.1613 -0.1275  0.0566
 2921POSM   T1A34273  25.650  21.209  15.125 -0.2221  0.1452  0.1185
 2921POSM   C2A34274  25.827  20.965  14.756  0.1751 -0.0666 -0.1760
 2921POSM   C3A34275  25.706  20.796  14.344 -0.0206 -0.0996  0.1726
 2921POSM   C1B34276  25.373  21.599  14.796  0.1861 -0.2472  0.2024
 2921POSM   D2B34277  25.360  21.606  14.348  0.1353 -0.0805  0.1102
 2921POSM   C3B34278  25.052  21.821  14.066  0.0967 -0.1955 -0.3256
 2921POSM   C4B34279  24.607  21.809  13.954  0.0954  0.3635  0.2590
 2922DOPE   NH334280  25.743  14.617  15.590  0.2720  0.1540  0.1389
 2922DOPE   PO434281  25.794  14.359  15.400 -0.1720 -0.0986 -0.1283
 2922DOPE   GL134282  25.849  14.306  15.105 -0.0747  0.0989  0.0947
 2922DOPE   GL234283  25.633  14.015  15.061 -0.0268  0.0206  0.1077
 2922DOPE   C1A34284  26.029  14.566  14.800 -0.0990 -0.2122 -0.2686
 2922DOPE   D2A34285  26.069  14.632  14.374  0.1564 -0.1169  0.1055
 2922DOPE   C3A34286  26.383  14.481  14.121  0.0260 -0.0005  0.0364
 2922DOPE   C4A34287  26.580  14.372  13.707 -0.1896 -0.1568  0.1622
 2922DOPE   C1B34288  25.854  14.136  14.660 -0.0671  0.0726  0.0819
 2922DOPE   D2B34289  25.893  14.167  14.202 -0.2046  0.0715 -0.0092
 2922DOPE   C3B34290  26.289  14.016  14.003  0.0572 -0.1010 -0.2031
 2922DOPE   C4B34291  26.635  13.827  13.831 -0.2815 -0.3360  0.3987
 2923DOPE   NH334292  24.320  14.795  15.933  0.0129 -0.2323 -0.1338
 2923DOPE   PO434293  24.230  15.051  15.773 -0.1580 -0.2942  0.0592
 2923DOPE   GL134294  24.524  14.905  15.497 -0.3009 -0.2594 -0.2233
 2923DOPE   GL234295  24.427  15.014  15.195  0.0497  0.1470 -0.1557
 2923DOPE   C1A34296  24.882  15.192  15.319 -0.0686  0.2210  0.3068
 2923DOPE   D2A34297  25.256  15.435  15.217  0.0776 -0.0005  0.5126
 2923DOPE   C3A34298  25.579  15.590  14.933 -0.2499  0.1247  0.1902
 2923DOPE   C4A34299  26.003  15.485  14.651 -0.0927 -0.1849 -0.1931
 2923DOPE   C1B34300  24.679  15.137  14.848  0.0343 -0.0758  0.0742
 2923DOPE   D2B34301  24.746  15.435  14.499 -0.2746 -0.1041  0.0005
 2923DOPE   C3B34302  24.387  15.460  14.151  0.0048  0.1171  0.1419
 2923DOPE   C4B34303  24.131  15.677  13.875 -0.0271  0.1290  0.3509
 2924DOPE   NH334304  28.541  23.717  16.316 -0.0263  0.3223  0.0956
 2924DOPE   PO434305  28.375  23.563  16.099  0.1882 -0.3822  0.0635
 2924DOPE   GL134306  28.292  23.564  15.628 -0.1255  0.0963  0.3165
 2924DOPE   GL234307  28.191  23.840  15.664 -0.0911 -0.0639  0.1476
 2924DOPE   C1A34308  28.426  23.639  15.195  0.2259 -0.2155 -0.0711
 2924DOPE   D2A34309  28.619  23.675  14.749  0.0118  0.1767 -0.1367
 2924DOPE   C3A34310  28.700  24.042  14.545  0.1740 -0.1023  0.0044
 2924DOPE   C4A34311  28.903  24.476  14.394 -0.3035 -0.0030 -0.1806
 2924DOPE   C1B34312  27.929  23.620  15.361  0.0294 -0.1593  0.0319
 2924DOPE   D2B34313  27.716  23.789  14.975  0.2636 -0.2940  0.2292
 2924DOPE   C3B34314  27.780  24.274  15.031 -0.0205  0.1467 -0.0844
 2924DOPE   C4B34315  28.086  24.565  14.932 -0.1915 -0.0566  0.1632
 2925DOPC   NC334316  23.570  13.248  15.856  0.3747  0.1435  0.2962
 2925DOPC   PO434317  23.568  12.998  15.553  0.1410 -0.0073  0.1204
 2925DOPC   GL134318  23.670  12.733  15.273  0.1064 -0.3266 -0.0460
 2925DOPC   GL234319  23.719  12.400  15.217  0.1911 -0.1328  0.1161
 2925DOPC   C1A34320  23.803  12.745  14.840 -0.1688  0.1656 -0.2327
 2925DOPC   D2A34321  23.785  12.687  14.336  0.1636 -0.2277  0.1717
 2925DOPC   C3A34322  24.055  12.636  13.924 -0.0076 -0.2163 -0.1353
 2925DOPC   C4A34323  24.224  12.248  13.772 -0.1515 -0.3129  0.1979
 2925DOPC   C1B34324  23.753  12.244  14.777  0.2681 -0.0628 -0.0670
 2925DOPC   D2B34325  23.903  11.889  14.526  0.2355  0.1542 -0.0912
 2925DOPC   C3B34326  23.630  11.527  14.510 -0.3630 -0.0990  0.0088
 2925DOPC   C4B34327  23.179  11.422  14.360 -0.0909 -0.3393 -0.1020
 2926DOPC   NC334328  24.076  16.820  15.645  0.0900  0.1992  0.1207
 2926DOPC   PO434329  24.068  17.168  15.464  0.0830 -0.2434  0.1722
 2926DOPC   GL134330  24.027  17.116  15.049  0.1416 -0.2308  0.0667
 2926DOPC   GL234331  24.263  17.258  14.946  0.0597 -0.0807 -0.0828
 2926DOPC   C1A34332  23.976  16.963  14.623  0.0369  0.1491  0.0535
 2926DOPC   D2A34333  23.658  17.052  14.307 -0.0295 -0.1480 -0.0457
 2926DOPC   C3A34334  23.828  16.983  13.900  0.1795 -0.0455  0.3190
 2926DOPC   C4A34335  23.853  17.047  13.460  0.1070 -0.2531 -0.2660
 2926DOPC   C1B34336  24.344  17.220  14.484  0.1685 -0.1437  0.1344
 2926DOPC   D2B34337  24.237  17.207  14.067 -0.2556  0.0312  0.2766
 2926DOPC   C3B34338  23.910  17.446  13.767 -0.0725  0.1567  0.0025
 2926DOPC   C4B34339  23.753  17.610  13.301  0.0320  0.0077  0.1949
 2927POSM   NC334340  27.723  13.627  15.811 -0.0352  0.0185  0.0872
 2927POSM   PO434341  28.079  13.770  15.974  0.0425  0.1468  0.1501
 2927POSM   AM134342  28.309  13.758  15.716 -0.0098  0.0741 -0.4242
 2927POSM   AM234343  28.575  13.707  15.577  0.2205  0.1781  0.0827
 2927POSM   T1A34344  28.366  14.010  15.281 -0.0590  0.0491 -0.1168
 2927POSM   C2A34345  28.438  14.047  14.853 -0.1695  0.1008  0.1067
 2927POSM   C3A34346  28.309  14.263  14.477 -0.2166  0.0040  0.1880
 2927POSM   C1B34347  28.822  13.918  15.394 -0.3441  0.4552  0.1841
 2927POSM   D2B34348  28.790  14.383  15.274  0.0152 -0.2187 -0.2905
 2927POSM   C3B34349  28.391  14.510  15.161 -0.2025  0.2242 -0.0519
 2927POSM   C4B34350  27.966  14.614  15.386  0.1195  0.2659  0.0890
 2928DOPC   NC334351  25.828  22.499  16.113  0.3953  0.0415 -0.1619
 2928DOPC   PO434352  25.554  22.321  15.902 -0.0548 -0.0267 -0.0052
 2928DOPC   GL134353  25.699  22.616  15.647  0.1294 -0.0423 -0.1971
 2928DOPC   GL234354  25.752  22.482  15.361  0.1001  0.1860 -0.2978
 2928DOPC   C1A34355  25.439  22.906  15.376  0.0054 -0.0564  0.4036
 2928DOPC   D2A34356  25.484  23.058  14.970  0.2993  0.2775 -0.0107
 2928DOPC   C3A34357  25.217  23.452  14.837  0.0224  0.1107  0.1957
 2928DOPC   C4A34358  25.325  23.866  15.072  0.0554 -0.0020 -0.1095
 2928DOPC   C1B34359  26.098  22.397  15.074  0.3115 -0.0303 -0.2102
 2928DOPC   D2B34360  26.202  22.159  14.723 -0.3656 -0.0606  0.2036
 2928DOPC   C3B34361  25.915  21.912  14.399 -0.2250 -0.1043 -0.0645
 2928DOPC   C4B34362  25.928  21.616  14.004 -0.3974 -0.0574 -0.0866
 2929DOPE   NH334363  31.229  13.393  16.647  0.0516  0.1059  0.0881
 2929DOPE   PO434364  31.295  13.562  16.408  0.1458 -0.0391  0.1012
 2929DOPE   GL134365  31.531  13.543  16.076 -0.0160  0.3864 -0.0359
 2929DOPE   GL234366  31.402  13.321  15.935 -0.4189 -0.0164 -0.0368
 2929DOPE   C1A34367  31.694  13.796  15.792  0.1220  0.2773  0.0308
 2929DOPE   D2A34368  31.924  13.711  15.410  0.0706 -0.0239  0.0537
 2929DOPE   C3A34369  31.833  13.554  15.001 -0.2526  0.1934 -0.1867
 2929DOPE   C4A34370  32.026  13.321  14.664 -0.2201  0.0283 -0.1099
 2929DOPE   C1B34371  31.431  13.256  15.476 -0.0803  0.1541  0.2041
 2929DOPE   D2B34372  31.371  13.280  14.996 -0.0804 -0.0697  0.2559
 2929DOPE   C3B34373  31.588  12.946  14.753 -0.0336 -0.3062  0.0771
 2929DOPE   C4B34374  31.607  12.854  14.334  0.1401  0.0058 -0.4636
 2930DOPC   NC334375  25.737  18.429  16.235 -0.1180 -0.0912  0.0434
 2930DOPC   PO434376  25.638  18.565  15.881 -0.1888  0.0276  0.0427
 2930DOPC   GL134377  25.778  18.455  15.567 -0.1696 -0.2115  0.5766
 2930DOPC   GL234378  25.976  18.678  15.571  0.0920  0.2392 -0.1730
 2930DOPC   C1A34379  25.730  18.259  15.160 -0.0652  0.0129 -0.1108
 2930DOPC   D2A34380  25.453  18.403  14.857  0.2779  0.0539  0.1310
 2930DOPC   C3A34381  25.520  18.453  14.369  0.0734 -0.1223 -0.1829
 2930DOPC   C4A34382  25.490  18.559  13.911  0.0357 -0.0403  0.1244
 2930DOPC   C1B34383  26.288  18.908  15.281 -0.1107  0.2690  0.0324
 2930DOPC   D2B34384  26.638  19.096  15.002  0.1808 -0.0666  0.1482
 2930DOPC   C3B34385  26.809  19.148  14.574 -0.1032  0.1612 -0.0227
 2930DOPC   C4B34386  26.854  19.539  14.337  0.3124 -0.1627  0.1790
 2931DOPE   NH334387  24.194  20.326  15.069 -0.1719 -0.1848 -0.1949
 2931DOPE   PO434388  23.884  20.452  14.974 -0.0313  0.0891 -0.0877
 2931DOPE   GL134389  23.838  20.463  14.626 -0.0277  0.1856 -0.2571
 2931DOPE   GL234390  23.773  20.693  14.504 -0.0213  0.4236  0.0111
 2931DOPE   C1A34391  23.986  20.254  14.266  0.1403  0.2315  0.0003
 2931DOPE   D2A34392  24.329  20.087  14.004  0.0157  0.0495 -0.1569
 2931DOPE   C3A34393  24.168  19.839  13.657 -0.1962  0.1684 -0.0960
 2931DOPE   C4A34394  23.983  19.620  13.294 -0.1672 -0.2634  0.0756
 2931DOPE   C1B34395  23.919  20.739  14.033 -0.2491  0.1206  0.0635
 2931DOPE   D2B34396  23.781  20.597  13.593  0.0853  0.3796  0.3096
 2931DOPE   C3B34397  24.025  20.606  13.267 -0.0651  0.4185 -0.0777
 2931DOPE   C4B34398  24.027  20.431  12.806  0.1477 -0.1077 -0.0490
 2932DOPE   NH334399  33.452  11.816  15.559  0.1815  0.0961 -0.0879
 2932DOPE   PO434400  33.386  11.989  15.858 -0.0739 -0.0391 -0.1052
 2932DOPE   GL134401  33.343  12.266  15.485 -0.1403  0.0510  0.2264
 2932DOPE   GL234402  33.341  12.567  15.482 -0.0829 -0.0388 -0.0888
 2932DOPE   C1A34403  33.206  12.246  15.075  0.0036 -0.0773  0.0588
 2932DOPE   D2A34404  33.089  12.427  14.613 -0.1924 -0.1675 -0.2141
 2932DOPE   C3A34405  33.401  12.642  14.425  0.0665 -0.0192  0.1844
 2932DOPE   C4A34406  33.836  12.732  14.166  0.0628  0.1229 -0.1607
 2932DOPE   C1B34407  33.205  12.759  15.072 -0.1726 -0.1375 -0.1312
 2932DOPE   D2B34408  32.790  12.751  14.881  0.1263  0.3449  0.0729
 2932DOPE   C3B34409  32.898  12.971  14.422 -0.0856 -0.1383  0.1181
 2932DOPE   C4B34410  32.961  12.762  14.046  0.0362  0.0105  0.1691
 2933DOPC   NC334411  25.935  13.784  15.371  0.0719 -0.1966 -0.1861
 2933DOPC   PO434412  26.228  14.096  15.408  0.2190 -0.4085 -0.0975
 2933DOPC   GL134413  26.234  14.116  14.999 -0.1921  0.0230 -0.0000
 2933DOPC   GL234414  26.437  14.333  15.056  0.3731  0.1008 -0.4889
 2933DOPC   C1A34415  26.385  14.172  14.551  0.0326 -0.0563  0.0515
 2933DOPC   D2A34416  26.756  14.157  14.252  0.0596  0.0988  0.0566
 2933DOPC   C3A34417  26.913  14.608  14.133 -0.2217  0.1570  0.2008
 2933DOPC   C4A34418  27.098  15.015  13.945  0.3433  0.1758  0.2647
 2933DOPC   C1B34419  26.566  14.734  14.842 -0.0735 -0.3021  0.0887
 2933DOPC   D2B34420  26.593  14.962  14.447 -0.0089 -0.3500 -0.0381
 2933DOPC   C3B34421  26.918  15.302  14.500  0.0505  0.0025 -0.0144
 2933DOPC   C4B34422  26.980  15.771  14.435 -0.0535  0.0481 -0.3418
 2934DOPC   NC334423  27.742  16.266  16.219 -0.2056 -0.0106  0.0599
 2934DOPC   PO434424  27.780  15.897  16.242 -0.0525  0.0985 -0.0274
 2934DOPC   GL134425  27.640  15.945  15.823  0.1526 -0.3068  0.0187
 2934DOPC   GL234426  27.488  16.234  15.791 -0.1820  0.2348 -0.0830
 2934DOPC   C1A34427  27.787  16.234  15.406  0.0845 -0.1249  0.2899
 2934DOPC   D2A34428  27.956  16.105  14.965 -0.2859 -0.1480 -0.3515
 2934DOPC   C3A34429  28.177  16.420  14.661 -0.0828  0.1181  0.3008
 2934DOPC   C4A34430  28.477  16.501  14.340  0.0779 -0.1218  0.1245
 2934DOPC   C1B34431  27.288  16.294  15.439  0.0507  0.0607  0.3951
 2934DOPC   D2B34432  27.331  16.054  15.071  0.2042  0.0499 -0.0232
 2934DOPC   C3B34433  27.102  16.148  14.677 -0.1536 -0.0488 -0.3043
 2934DOPC   C4B34434  26.976  16.224  14.268  0.0376  0.0500 -0.3325
 2935DOPC   NC334435  33.953  20.710  16.510  0.1372 -0.0528 -0.2650
 2935DOPC   PO434436  33.667  20.523  16.272  0.1447  0.0285  0.0062
 2935DOPC   GL134437  34.041  20.624  16.036 -0.1204 -0.0742  0.1189
 2935DOPC   GL234438  34.112  20.379  16.012 -0.1982  0.0024 -0.1463
 2935DOPC   C1A34439  34.115  20.812  15.579 -0.0302 -0.2559 -0.2427
 2935DOPC   D2A34440  34.172  20.803  15.123  0.0049 -0.2811  0.0823
 2935DOPC   C3A34441  34.061  20.364  15.027 -0.2887 -0.0224 -0.0810
 2935DOPC   C4A34442  34.032  20.015  14.798  0.0105 -0.2625 -0.0363
 2935DOPC   C1B34443  34.332  20.307  15.589  0.4046 -0.0557 -0.2650
 2935DOPC   D2B34444  34.481  20.101  15.225 -0.0840 -0.1030  0.1303
 2935DOPC   C3B34445  34.496  20.286  14.802  0.3327 -0.1357 -0.2780
 2935DOPC   C4B34446  34.261  20.209  14.395  0.0504 -0.0966 -0.1965
 2936DOPC   NC334447  23.362  13.404  15.383  0.0903 -0.2117  0.0867
 2936DOPC   PO434448  23.018  13.306  15.214  0.0649 -0.2296  0.0965
 2936DOPC   GL134449  23.312  13.164  14.944  0.0197 -0.0972 -0.5583
 2936DOPC   GL234450  23.279  12.855  14.946  0.0248  0.0969  0.1719
 2936DOPC   C1A34451  23.364  13.263  14.475  0.1392 -0.2900 -0.1108
 2936DOPC   D2A34452  23.599  13.252  14.070 -0.2571  0.3157 -0.2395
 2936DOPC   C3A34453  23.376  13.181  13.686  0.0233  0.2881 -0.2625
 2936DOPC   C4A34454  22.974  12.954  13.682  0.1522 -0.2097  0.0220
 2936DOPC   C1B34455  23.201  12.615  14.563  0.1514 -0.1202 -0.1962
 2936DOPC   D2B34456  23.114  12.473  14.180 -0.0062  0.2650 -0.1275
 2936DOPC   C3B34457  22.726  12.723  14.301 -0.0185  0.1837 -0.1201
 2936DOPC   C4B34458  22.553  13.145  14.202  0.2909 -0.1074  0.5798
 2937DOPC   NC334459  29.173  14.441  16.362 -0.1171 -0.1123  0.0052
 2937DOPC   PO434460  29.173  14.849  16.315 -0.0825  0.2558  0.0513
 2937DOPC   GL134461  29.275  14.892  15.930 -0.1469  0.0850 -0.1316
 2937DOPC   GL234462  29.251  15.148  15.848  0.2337 -0.2046  0.2288
 2937DOPC   C1A34463  29.618  14.861  15.661 -0.0737  0.0958 -0.1685
 2937DOPC   D2A34464  30.045  14.845  15.454 -0.3773  0.3944 -0.0444
 2937DOPC   C3A34465  30.347  15.137  15.375 -0.2714 -0.0067  0.2434
 2937DOPC   C4A34466  30.614  15.149  14.998  0.2077  0.1799  0.5797
 2937DOPC   C1B34467  29.386  15.325  15.451  0.0729  0.1854 -0.0843
 2937DOPC   D2B34468  29.326  15.314  15.001  0.0884 -0.0504 -0.1704
 2937DOPC   C3B34469  28.980  15.208  14.778 -0.0552 -0.1078  0.1761
 2937DOPC   C4B34470  28.925  14.910  14.419 -0.0593 -0.0406 -0.4546
 2938DOPE   NH334471  32.535  18.857  16.271 -0.1737 -0.0720  0.1972
 2938DOPE   PO434472  32.782  19.070  16.286 -0.0496 -0.1593  0.0722
 2938DOPE   GL134473  33.033  19.196  16.014 -0.2968  0.1030 -0.1044
 2938DOPE   GL234474  32.988  19.376  15.782  0.2896 -0.0856 -0.1046
 2938DOPE   C1A34475  33.320  18.951  15.721  0.1552 -0.2023 -0.1397
 2938DOPE   D2A34476  33.453  18.537  15.570 -0.1545  0.1680  0.0595
 2938DOPE   C3A34477  33.379  18.515  15.068  0.2308 -0.3017 -0.2255
 2938DOPE   C4A34478  33.615  18.738  14.763 -0.2597 -0.1295 -0.1196
 2938DOPE   C1B34479  32.703  19.150  15.538  0.1381 -0.0392  0.2510
 2938DOPE   D2B34480  32.534  19.060  15.130 -0.1365  0.2112  0.0167
 2938DOPE   C3B34481  32.354  18.740  14.883 -0.1529 -0.3975  0.1054
 2938DOPE   C4B34482  32.312  18.739  14.427 -0.0155  0.0018  0.1950
 2939DOPE   NH334483  32.185  19.143  16.537  0.1608 -0.2908  0.2523
 2939DOPE   PO434484  32.083  18.847  16.631 -0.1603  0.2478 -0.0478
 2939DOPE   GL134485  32.135  18.581  16.259 -0.0207 -0.2478 -0.2222
 2939DOPE   GL234486  32.045  18.837  16.140 -0.2070  0.2555 -0.0945
 2939DOPE   C1A34487  32.345  18.379  15.869  0.5044 -0.0081 -0.2059
 2939DOPE   D2A34488  32.267  18.507  15.497 -0.0815  0.2272  0.1441
 2939DOPE   C3A34489  32.673  18.513  15.271  0.2359 -0.0498  0.1916
 2939DOPE   C4A34490  32.911  18.301  14.916 -0.0664  0.0362  0.0408
 2939DOPE   C1B34491  31.878  18.698  15.747 -0.1247  0.1458 -0.0001
 2939DOPE   D2B34492  31.795  18.293  15.444  0.2293  0.0946 -0.2881
 2939DOPE   C3B34493  32.061  18.071  15.091 -0.2438 -0.0521 -0.1754
 2939DOPE   C4B34494  32.518  18.004  15.159 -0.1995  0.0963  0.2073
 2940POSM   NC334495  27.967  20.553  16.505 -0.1182  0.1000 -0.1975
 2940POSM   PO434496  28.329  20.701  16.486  0.2945  0.0489 -0.4300
 2940POSM   AM134497  28.515  20.673  16.214 -0.3136  0.2107  0.1261
 2940POSM   AM234498  28.667  20.816  15.991 -0.0333 -0.1175  0.0252
 2940POSM   T1A34499  28.610  20.391  15.791  0.1066  0.1915  0.2079
 2940POSM   C2A34500  28.783  20.299  15.376  0.2721 -0.1938  0.0578
 2940POSM   C3A34501  28.982  20.143  15.038  0.1113 -0.2243 -0.0804
 2940POSM   C1B34502  28.786  20.913  15.636  0.4188 -0.0574  0.1099
 2940POSM   D2B34503  28.774  21.012  15.220  0.0751 -0.0613 -0.0037
 2940POSM   C3B34504  28.875  20.652  14.927  0.1998  0.3877  0.3210
 2940POSM   C4B34505  29.135  20.424  14.594 -0.2929 -0.0788  0.1708
 2941DOPC   NC334506  30.906  11.854  16.130 -0.1578  0.0518 -0.0296
 2941DOPC   PO434507  30.654  11.586  16.201 -0.1418  0.1094 -0.0427
 2941DOPC   GL134508  30.606  11.654  15.846 -0.1602  0.1365  0.0549
 2941DOPC   GL234509  30.505  11.351  15.705 -0.1382 -0.0653  0.0483
 2941DOPC   C1A34510  30.785  11.834  15.416  0.1231  0.0984  0.4005
 2941DOPC   D2A34511  31.013  12.038  15.030 -0.1701  0.0096  0.0331
 2941DOPC   C3A34512  31.413  12.121  14.925  0.2528  0.0292 -0.0428
 2941DOPC   C4A34513  31.699  11.873  14.666  0.1838  0.0469 -0.0098
 2941DOPC   C1B34514  30.308  11.071  15.323  0.3888 -0.0997  0.3656
 2941DOPC   D2B34515  30.195  11.252  14.907 -0.1150  0.2177 -0.1401
 2941DOPC   C3B34516  30.612  11.203  14.703  0.2591 -0.1318 -0.4096
 2941DOPC   C4B34517  30.990  11.268  14.668 -0.0525  0.0345 -0.0551
 2942POSM   NC334518  27.050  12.923  15.728 -0.0461  0.2077  0.2449
 2942POSM   PO434519  27.043  13.217  16.013  0.1752  0.1713  0.0187
 2942POSM   AM134520  27.255  13.419  15.782  0.5199  0.0561  0.1733
 2942POSM   AM234521  27.366  13.287  15.542 -0.2046  0.2557 -0.0015
 2942POSM   T1A34522  27.463  13.749  15.420 -0.0903  0.2570 -0.0568
 2942POSM   C2A34523  27.512  13.666  14.978 -0.0824 -0.0105 -0.1174
 2942POSM   C3A34524  27.573  13.617  14.495  0.1674  0.1651  0.3557
 2942POSM   C1B34525  27.231  13.202  15.219  0.5476 -0.0533  0.2235
 2942POSM   D2B34526  27.096  12.900  14.891 -0.1727  0.0604 -0.3324
 2942POSM   C3B34527  27.273  12.757  14.478  0.2990  0.1487  0.4039
 2942POSM   C4B34528  27.106  12.572  14.106 -0.5098 -0.0692  0.0165
 2943POSM   NC334529  24.662  21.501  15.760 -0.0874 -0.1315  0.1497
 2943POSM   PO434530  24.677  21.935  15.792 -0.1654 -0.0767  0.0011
 2943POSM   AM134531  24.759  21.938  15.506  0.3397 -0.0213  0.0261
 2943POSM   AM234532  24.935  22.084  15.357  0.3648  0.1264 -0.1227
 2943POSM   T1A34533  24.565  22.086  15.032 -0.1758 -0.0706 -0.1602
 2943POSM   C2A34534  24.229  22.119  14.713 -0.1930  0.0478 -0.0934
 2943POSM   C3A34535  23.801  21.886  14.634 -0.0681 -0.0874  0.2203
 2943POSM   C1B34536  25.046  22.074  15.038  0.2670  0.0885 -0.2159
 2943POSM   D2B34537  25.039  21.929  14.587 -0.1692 -0.2910 -0.2529
 2943POSM   C3B34538  24.590  21.956  14.418  0.1779  0.1156  0.2815
 2943POSM   C4B34539  24.226  22.138  14.221 -0.0275 -0.2428  0.1519
 2944DOPS   CNO34540  28.015  18.440  17.032 -0.1682 -0.2407  0.0351
 2944DOPS   PO434541  28.314  18.299  16.767  0.1112  0.0761  0.0707
 2944DOPS   GL134542  28.445  18.214  16.435 -0.1397 -0.1339 -0.2412
 2944DOPS   GL234543  28.264  18.022  16.273  0.0974  0.0404  0.3405
 2944DOPS   C1A34544  28.535  18.374  15.995  0.1847  0.1826 -0.2083
 2944DOPS   D2A34545  28.681  18.374  15.564  0.1147 -0.1635  0.1896
 2944DOPS   C3A34546  28.582  18.289  15.047 -0.3971  0.0174 -0.0379
 2944DOPS   C4A34547  28.217  18.056  14.784 -0.0662  0.2709 -0.0659
 2944DOPS   C1B34548  28.156  18.127  15.838 -0.0771 -0.1639 -0.4614
 2944DOPS   D2B34549  28.191  18.398  15.483 -0.2724 -0.1442  0.1123
 2944DOPS   C3B34550  28.391  18.816  15.339  0.1551  0.2804 -0.1017
 2944DOPS   C4B34551  28.523  19.257  15.293  0.0065  0.1675 -0.0319
 2945DOPC   NC334552  26.600  19.710  16.310  0.0198 -0.0097 -0.1063
 2945DOPC   PO434553  26.378  19.871  16.041 -0.0339 -0.1916 -0.0280
 2945DOPC   GL134554  26.283  20.051  15.760  0.1614  0.1581 -0.1006
 2945DOPC   GL234555  26.240  19.877  15.574  0.3070  0.0767 -0.0012
 2945DOPC   C1A34556  26.319  20.478  15.598 -0.1497  0.0351 -0.1970
 2945DOPC   D2A34557  26.427  20.814  15.275 -0.1652  0.3175  0.1466
 2945DOPC   C3A34558  26.243  20.723  14.853  0.0400  0.0370 -0.1984
 2945DOPC   C4A34559  26.145  20.556  14.413 -0.2807 -0.2625  0.1482
 2945DOPC   C1B34560  26.379  19.995  15.167 -0.1163 -0.0177 -0.1502
 2945DOPC   D2B34561  26.845  20.080  14.934  0.0025 -0.2551  0.0571
 2945DOPC   C3B34562  27.085  19.872  14.634  0.1648  0.2581  0.1245
 2945DOPC   C4B34563  27.335  19.962  14.230  0.5247  0.5527 -0.3246
 2946DOPE   NH334564  27.149  18.929  16.300 -0.3226 -0.1798 -0.1139
 2946DOPE   PO434565  27.377  18.915  16.507 -0.0768  0.3043 -0.0043
 2946DOPE   GL134566  27.553  18.886  16.082 -0.1501 -0.2887 -0.1514
 2946DOPE   GL234567  27.782  19.011  16.212  0.1846 -0.0729 -0.0296
 2946DOPE   C1A34568  27.355  19.231  15.791 -0.1355 -0.0276 -0.0140
 2946DOPE   D2A34569  27.604  19.337  15.395 -0.1309 -0.0638 -0.3649
 2946DOPE   C3A34570  27.613  19.176  15.008 -0.2639 -0.0444  0.1806
 2946DOPE   C4A34571  27.625  18.756  14.795 -0.2372  0.1408  0.0857
 2946DOPE   C1B34572  27.859  19.268  15.845  0.0345  0.3835  0.3605
 2946DOPE   D2B34573  28.062  19.187  15.483 -0.0212  0.2744 -0.0096
 2946DOPE   C3B34574  28.133  19.117  15.028 -0.1167 -0.0771  0.0093
 2946DOPE   C4B34575  28.231  19.001  14.561 -0.1857 -0.1159  0.1156
 2947DOPE   NH334576  28.402  12.702  16.105  0.1165  0.1042 -0.1453
 2947DOPE   PO434577  28.296  12.874  15.907 -0.1995  0.0344  0.2781
 2947DOPE   GL134578  28.460  13.055  15.598  0.1876 -0.2443  0.4451
 2947DOPE   GL234579  28.720  13.240  15.640  0.2086  0.3339  0.2563
 2947DOPE   C1A34580  28.377  13.357  15.216 -0.3189  0.0161  0.3034
 2947DOPE   D2A34581  28.455  13.561  14.783 -0.1746 -0.0526 -0.0162
 2947DOPE   C3A34582  28.654  13.403  14.427 -0.4379 -0.0291 -0.0727
 2947DOPE   C4A34583  28.993  13.179  14.205  0.1248 -0.3348  0.1843
 2947DOPE   C1B34584  28.892  13.420  15.231  0.2647  0.0466 -0.2073
 2947DOPE   D2B34585  28.954  13.365  14.763  0.0123  0.3359  0.1710
 2947DOPE   C3B34586  29.306  13.414  14.558  0.4113  0.0582 -0.2203
 2947DOPE   C4B34587  29.717  13.552  14.520 -0.0006  0.2188  0.0585
 2948DOPC   NC334588  30.043  15.054  16.442 -0.0010  0.2305  0.1247
 2948DOPC   PO434589  30.340  14.812  16.310  0.0252 -0.1648 -0.1857
 2948DOPC   GL134590  30.148  14.785  15.921 -0.2972  0.0206 -0.2793
 2948DOPC   GL234591  30.083  15.078  15.883 -0.0547  0.0891 -0.0862
 2948DOPC   C1A34592  30.267  14.398  15.656  0.1412 -0.0363  0.1873
 2948DOPC   D2A34593  30.200  13.946  15.572 -0.2303  0.0434  0.2268
 2948DOPC   C3A34594  30.236  13.796  15.134 -0.0300  0.0727  0.0224
 2948DOPC   C4A34595  30.158  13.745  14.621  0.1105  0.3520 -0.2227
 2948DOPC   C1B34596  29.844  15.301  15.567  0.5164  0.0681 -0.0071
 2948DOPC   D2B34597  29.765  15.531  15.151 -0.3703  0.0834 -0.0892
 2948DOPC   C3B34598  29.543  15.857  14.999 -0.1650 -0.0236  0.1734
 2948DOPC   C4B34599  29.437  16.141  14.638  0.2973 -0.0452  0.0439
 2949POSM   NC334600  30.894  20.587  16.400 -0.2139  0.0327 -0.1298
 2949POSM   PO434601  30.884  20.893  16.202  0.4014 -0.0959 -0.1009
 2949POSM   AM134602  30.893  20.637  15.944 -0.4239  0.1741  0.1113
 2949POSM   AM234603  31.036  20.548  15.701  0.0804 -0.1593 -0.2331
 2949POSM   T1A34604  30.622  20.545  15.532 -0.1831 -0.0737  0.3514
 2949POSM   C2A34605  30.773  20.580  15.084 -0.2504 -0.1130  0.2610
 2949POSM   C3A34606  30.828  20.807  14.653  0.0070  0.0244 -0.2557
 2949POSM   C1B34607  31.147  20.374  15.405  0.0305  0.0215  0.1307
 2949POSM   D2B34608  31.126  20.031  15.072 -0.1003  0.1834  0.2161
 2949POSM   C3B34609  30.921  20.191  14.681 -0.2118 -0.1691  0.1950
 2949POSM   C4B34610  30.892  20.219  14.207  0.2851 -0.0103 -0.1008
 2950POSM   NC334611  25.979  21.575  15.697  0.1124 -0.1774 -0.0215
 2950POSM   PO434612  26.328  21.763  15.772  0.0777  0.0294  0.1623
 2950POSM   AM134613  26.262  21.751  15.429  0.1056 -0.2707  0.0977
 2950POSM   AM234614  26.362  21.774  15.152  0.1419 -0.0792  0.2173
 2950POSM   T1A34615  25.908  21.953  15.130  0.2485 -0.0728  0.3581
 2950POSM   C2A34616  25.604  22.160  14.819 -0.0687 -0.0031 -0.0812
 2950POSM   C3A34617  25.240  22.466  14.858  0.0701  0.2596  0.1385
 2950POSM   C1B34618  26.226  21.694  14.897  0.1926 -0.0512  0.2969
 2950POSM   D2B34619  25.815  21.514  14.796  0.0100 -0.2981 -0.2628
 2950POSM   C3B34620  25.742  21.332  14.390 -0.0491  0.3934  0.1170
 2950POSM   C4B34621  25.655  21.192  14.000  0.2755  0.2186 -0.0185
 2951DOPC   NC334622  31.871  21.909  16.049  0.2046  0.1490 -0.0093
 2951DOPC   PO434623  31.942  21.715  15.710  0.4113  0.0875  0.1562
 2951DOPC   GL134624  32.019  21.831  15.367  0.0669  0.0877  0.1257
 2951DOPC   GL234625  32.291  21.845  15.328 -0.0359 -0.1552  0.0009
 2951DOPC   C1A34626  31.867  21.492  15.071 -0.2164  0.1087 -0.0587
 2951DOPC   D2A34627  31.875  21.401  14.655 -0.0398 -0.3165  0.1058
 2951DOPC   C3A34628  31.516  21.484  14.349 -0.2153 -0.1312  0.1861
 2951DOPC   C4A34629  31.102  21.534  14.083  0.0755  0.2425  0.1042
 2951DOPC   C1B34630  31.965  22.149  15.102  0.1237  0.0712  0.0410
 2951DOPC   D2B34631  31.661  22.381  14.855 -0.1194  0.0645 -0.1779
 2951DOPC   C3B34632  31.272  22.148  14.713  0.2783 -0.2164  0.1806
 2951DOPC   C4B34633  31.022  21.935  14.361  0.2774 -0.0122  0.0617
 2952DOPS   CNO34634  27.851  18.241  16.621  0.0881  0.0619  0.3369
 2952DOPS   PO434635  27.684  17.952  16.470  0.0993 -0.2283 -0.0951
 2952DOPS   GL134636  27.791  18.084  16.195  0.4957  0.1051  0.0565
 2952DOPS   GL234637  27.555  18.039  15.956  0.1229 -0.1770  0.1317
 2952DOPS   C1A34638  27.865  18.508  16.040 -0.0686 -0.1172 -0.1074
 2952DOPS   D2A34639  28.186  18.808  15.862  0.5159  0.0404 -0.1195
 2952DOPS   C3A34640  28.336  19.284  15.856  0.0109  0.0441  0.1476
 2952DOPS   C4A34641  28.764  19.407  15.848  0.0048  0.3493  0.0145
 2952DOPS   C1B34642  27.743  18.268  15.600  0.0538 -0.0552  0.1840
 2952DOPS   D2B34643  27.907  18.228  15.165  0.2187  0.3949  0.1075
 2952DOPS   C3B34644  27.770  18.275  14.765 -0.0037  0.1279  0.2731
 2952DOPS   C4B34645  27.349  18.438  14.579  0.1598 -0.0347  0.3524
 2953DOPE   NH334646  34.039  17.013  16.246 -0.2141  0.1427 -0.0848
 2953DOPE   PO434647  33.953  17.016  15.941  0.2464  0.1787  0.1088
 2953DOPE   GL134648  33.662  17.022  15.643  0.1192  0.3337 -0.3766
 2953DOPE   GL234649  33.447  17.180  15.813 -0.1686 -0.2277  0.3350
 2953DOPE   C1A34650  33.337  17.058  15.290  0.0690 -0.1985 -0.4354
 2953DOPE   D2A34651  33.175  16.735  15.068 -0.1821  0.1689 -0.0063
 2953DOPE   C3A34652  32.787  16.660  14.944  0.2679  0.0024  0.0765
 2953DOPE   C4A34653  32.513  16.549  14.620 -0.1610 -0.0556 -0.2911
 2953DOPE   C1B34654  32.974  17.177  15.804 -0.2198  0.0085  0.2144
 2953DOPE   D2B34655  32.730  17.066  15.467  0.2483  0.1173  0.2395
 2953DOPE   C3B34656  32.465  17.352  15.262 -0.0078  0.0585 -0.1139
 2953DOPE   C4B34657  32.244  17.684  15.393 -0.1630 -0.0976 -0.0812
 2954DOPS   CNO34658  28.782  21.305  16.076  0.3443 -0.0433  0.1315
 2954DOPS   PO434659  28.421  21.312  16.120 -0.3489 -0.2700  0.0483
 2954DOPS   GL134660  28.358  21.102  15.814  0.3343 -0.4618 -0.0291
 2954DOPS   GL234661  28.123  21.076  15.769 -0.1681  0.0469 -0.0490
 2954DOPS   C1A34662  28.314  21.228  15.357  0.3690  0.2185  0.1595
 2954DOPS   D2A34663  28.523  21.429  14.963 -0.0350  0.0419 -0.3031
 2954DOPS   C3A34664  28.446  21.450  14.485  0.2741 -0.0198 -0.0760
 2954DOPS   C4A34665  28.203  21.707  14.201 -0.1813 -0.1181 -0.1703
 2954DOPS   C1B34666  28.247  20.724  15.497 -0.1767  0.0703 -0.1729
 2954DOPS   D2B34667  28.319  20.482  15.130  0.2271  0.0298  0.0669
 2954DOPS   C3B34668  28.466  20.059  14.997  0.2726  0.0732  0.2665
 2954DOPS   C4B34669  28.641  19.750  14.827  0.0629  0.0079  0.3163
 2955DOPS   CNO34670  25.341  12.429  15.587 -0.1574 -0.2797  0.1251
 2955DOPS   PO434671  25.399  12.794  15.545  0.1411  0.2080 -0.2563
 2955DOPS   GL134672  25.299  12.666  15.156  0.2879 -0.0962  0.1754
 2955DOPS   GL234673  25.437  12.875  15.000 -0.1320  0.1357 -0.0742
 2955DOPS   C1A34674  25.046  12.669  14.772 -0.0078 -0.1196 -0.0297
 2955DOPS   D2A34675  24.717  12.401  14.534  0.0928  0.1617 -0.0118
 2955DOPS   C3A34676  24.771  12.297  14.092 -0.4246 -0.2713 -0.0537
 2955DOPS   C4A34677  24.772  12.296  13.625  0.0789 -0.0705 -0.0409
 2955DOPS   C1B34678  25.749  12.684  14.702 -0.2760 -0.2438  0.0267
 2955DOPS   D2B34679  26.044  12.711  14.347  0.0151  0.2813  0.2035
 2955DOPS   C3B34680  26.183  12.368  14.062  0.0973  0.3311  0.1499
 2955DOPS   C4B34681  26.209  11.906  14.003 -0.0444  0.0927 -0.0444
 2956POSM   NC334682  24.821  18.882  15.792  0.2320  0.1248  0.1168
 2956POSM   PO434683  25.193  18.764  15.745  0.1367  0.4177 -0.0567
 2956POSM   AM134684  25.226  19.036  15.578  0.3135 -0.2447  0.0720
 2956POSM   AM234685  25.099  19.068  15.315 -0.1297 -0.1438 -0.3571
 2956POSM   T1A34686  25.486  19.312  15.337  0.0517  0.0820 -0.1878
 2956POSM   C2A34687  25.568  19.528  14.924  0.1049 -0.0846  0.3396
 2956POSM   C3A34688  25.610  19.942  14.716 -0.1011 -0.3453  0.1030
 2956POSM   C1B34689  25.067  19.309  15.099 -0.1421  0.2697 -0.0045
 2956POSM   D2B34690  25.162  19.301  14.629 -0.1869 -0.0610 -0.0247
 2956POSM   C3B34691  25.331  19.691  14.381 -0.4352 -0.2795  0.3997
 2956POSM   C4B34692  25.365  20.075  14.152  0.3683  0.0751  0.1212
 2957POSM   NC334693  32.737  18.091  16.591 -0.1246  0.2519  0.0827
 2957POSM   PO434694  32.485  18.409  16.548 -0.0747 -0.2958  0.0389
 2957POSM   AM134695  32.304  18.213  16.372 -0.4679  0.0419 -0.1185
 2957POSM   AM234696  32.369  18.005  16.171  0.0598  0.0845 -0.1442
 2957POSM   T1A34697  31.883  18.224  16.029  0.1106  0.0986 -0.1777
 2957POSM   C2A34698  31.446  18.010  16.022  0.3930  0.0699  0.3257
 2957POSM   C3A34699  31.302  17.600  15.779  0.3282 -0.3632  0.0983
 2957POSM   C1B34700  32.199  17.849  15.943 -0.0337  0.3083  0.1983
 2957POSM   D2B34701  31.820  17.843  15.717 -0.1061  0.1405  0.1163
 2957POSM   C3B34702  31.707  17.488  15.466  0.2570  0.3469 -0.0782
 2957POSM   C4B34703  31.390  17.168  15.437 -0.2136  0.2597 -0.0071
 2958DOPC   NC334704  25.913  13.138  15.325  0.0470 -0.0690  0.3436
 2958DOPC   PO434705  26.231  13.273  15.543 -0.1949  0.0481  0.1333
 2958DOPC   GL134706  26.313  13.222  15.075 -0.0383  0.3143 -0.0302
 2958DOPC   GL234707  26.396  13.540  15.150 -0.1151 -0.0750  0.3380
 2958DOPC   C1A34708  25.959  13.124  14.779  0.0656  0.1684  0.1323
 2958DOPC   D2A34709  25.843  13.214  14.357 -0.2975  0.0872  0.3457
 2958DOPC   C3A34710  25.823  13.121  13.862 -0.1391 -0.2002  0.1133
 2958DOPC   C4A34711  25.874  13.069  13.376 -0.0585  0.1966  0.0836
 2958DOPC   C1B34712  26.480  13.748  14.754  0.1235 -0.0228  0.0010
 2958DOPC   D2B34713  26.675  13.676  14.322  0.1396 -0.2402  0.0141
 2958DOPC   C3B34714  27.108  13.750  14.268 -0.1799 -0.0126  0.4031
 2958DOPC   C4B34715  27.446  13.640  13.950  0.2262  0.1970  0.1508
 2959POSM   NC334716  28.345  23.101  15.895 -0.1024  0.3787 -0.1611
 2959POSM   PO434717  28.294  22.709  15.833 -0.1816 -0.1699 -0.3762
 2959POSM   AM134718  28.380  22.626  15.516  0.0605 -0.2096  0.0950
 2959POSM   AM234719  28.530  22.410  15.427  0.0702  0.1469  0.0864
 2959POSM   T1A34720  28.292  22.730  15.018 -0.1168 -0.2733  0.0146
 2959POSM   C2A34721  28.486  22.826  14.571  0.2953  0.2683  0.0918
 2959POSM   C3A34722  28.448  22.710  14.100  0.3073  0.2398 -0.1450
 2959POSM   C1B34723  28.862  22.521  15.276 -0.0472 -0.0725 -0.1336
 2959POSM   D2B34724  28.948  22.840  14.948  0.3416  0.1633  0.2604
 2959POSM   C3B34725  29.164  22.747  14.544  0.3258  0.0837 -0.1129
 2959POSM   C4B34726  29.172  22.663  14.049 -0.1977 -0.0961 -0.0109
 2960DOPC   NC334727  30.217  19.182  16.653  0.0614 -0.2573  0.0395
 2960DOPC   PO434728  30.340  18.847  16.504  0.5775  0.1436 -0.2314
 2960DOPC   GL134729  30.243  18.449  16.382  0.2113 -0.1270  0.4122
 2960DOPC   GL234730  30.382  18.200  16.342  0.0413 -0.0456  0.1089
 2960DOPC   C1A34731  30.057  18.351  15.965  0.0554  0.1215 -0.0349
 2960DOPC   D2A34732  29.660  18.347  15.707 -0.2197 -0.2248  0.1714
 2960DOPC   C3A34733  29.610  17.944  15.437  0.0377 -0.2888 -0.0468
 2960DOPC   C4A34734  29.940  17.772  15.179 -0.4135  0.0190  0.0614
 2960DOPC   C1B34735  30.763  17.987  16.209 -0.0732  0.1253  0.3008
 2960DOPC   D2B34736  31.001  18.004  15.792  0.0767 -0.2679 -0.0380
 2960DOPC   C3B34737  30.915  17.922  15.361  0.1973  0.3026 -0.2325
 2960DOPC   C4B34738  31.040  17.828  14.879 -0.1746 -0.2521  0.0028
 2961POSM   NC334739  30.374  16.878  16.546  0.3074  0.3739  0.0356
 2961POSM   PO434740  30.262  17.216  16.719 -0.1376 -0.1160 -0.0795
 2961POSM   AM134741  30.199  17.262  16.392  0.0754  0.0826  0.3244
 2961POSM   AM234742  30.259  17.179  16.122  0.0342  0.2072  0.0232
 2961POSM   T1A34743  29.965  17.624  16.144 -0.1113 -0.2325 -0.1385
 2961POSM   C2A34744  30.065  17.798  15.695  0.2141  0.2253 -0.1157
 2961POSM   C3A34745  30.046  18.204  15.471 -0.1477  0.1018  0.0085
 2961POSM   C1B34746  30.405  17.410  15.996  0.1247  0.1735  0.0074
 2961POSM   D2B34747  30.519  17.799  15.859  0.0944  0.2203  0.2536
 2961POSM   C3B34748  30.448  17.840  15.404  0.1405  0.3167  0.0330
 2961POSM   C4B34749  30.439  17.900  14.965  0.0279 -0.1053 -0.0603
 2962POSM   NC334750  32.462  12.943  16.670  0.2938  0.1638 -0.1270
 2962POSM   PO434751  32.366  13.145  16.309  0.1243 -0.1492 -0.0465
 2962POSM   AM134752  32.210  13.249  16.063  0.0461 -0.2630 -0.1772
 2962POSM   AM234753  32.069  13.205  15.885 -0.2418  0.2261 -0.0269
 2962POSM   T1A34754  32.308  13.450  15.600 -0.0545 -0.0941 -0.2224
 2962POSM   C2A34755  32.367  13.344  15.156 -0.0204  0.3506 -0.0367
 2962POSM   C3A34756  32.562  13.256  14.767 -0.2350 -0.0095 -0.0839
 2962POSM   C1B34757  31.913  13.168  15.599  0.0583 -0.0263  0.1662
 2962POSM   D2B34758  31.823  13.099  15.195 -0.0186  0.1352 -0.1833
 2962POSM   C3B34759  31.821  12.630  15.099 -0.1467  0.1504 -0.2329
 2962POSM   C4B34760  31.870  12.249  14.918  0.1239 -0.1624 -0.2139
 2963DOPC   NC334761  24.959  14.255  15.413  0.3414  0.1048 -0.1302
 2963DOPC   PO434762  25.227  14.489  15.591 -0.1138 -0.2206  0.2016
 2963DOPC   GL134763  25.114  14.700  15.326 -0.0739  0.2283 -0.1281
 2963DOPC   GL234764  24.844  14.702  15.209  0.1571  0.1563 -0.1886
 2963DOPC   C1A34765  25.323  14.929  15.005  0.0601 -0.0251 -0.1239
 2963DOPC   D2A34766  25.232  15.308  14.722 -0.2481  0.1143  0.0441
 2963DOPC   C3A34767  25.494  15.528  14.421  0.1159  0.4389  0.0192
 2963DOPC   C4A34768  25.578  15.929  14.152 -0.0932 -0.0459  0.0801
 2963DOPC   C1B34769  24.983  14.592  14.779  0.1760  0.0355  0.2605
 2963DOPC   D2B34770  25.171  14.837  14.436  0.3179  0.2958 -0.0387
 2963DOPC   C3B34771  25.112  15.268  14.242  0.0809  0.1475  0.2609
 2963DOPC   C4B34772  24.957  15.547  13.923  0.2652 -0.0887 -0.0790
 2964DOPE   NH334773  25.328  13.229  15.318  0.1658  0.0448  0.2018
 2964DOPE   PO434774  25.548  13.435  15.475 -0.2065  0.2734  0.0810
 2964DOPE   GL134775  25.734  13.507  15.128 -0.2431 -0.3172 -0.0111
 2964DOPE   GL234776  25.538  13.471  14.915  0.0054  0.1172  0.0722
 2964DOPE   C1A34777  26.011  13.684  14.811 -0.2413  0.2016  0.2943
 2964DOPE   D2A34778  26.116  13.703  14.356 -0.0203  0.2186  0.0002
 2964DOPE   C3A34779  26.270  13.527  13.967 -0.2570  0.0189 -0.0134
 2964DOPE   C4A34780  26.467  13.321  13.550 -0.1995  0.0931 -0.5949
 2964DOPE   C1B34781  25.576  13.680  14.482 -0.0052 -0.3376 -0.0094
 2964DOPE   D2B34782  25.631  13.675  14.004 -0.0363  0.1055  0.1971
 2964DOPE   C3B34783  25.377  13.669  13.679 -0.1574  0.1791 -0.1749
 2964DOPE   C4B34784  25.067  13.503  13.315  0.4485 -0.0225  0.3639
 2965DOPC   NC334785  23.942  15.402  15.745 -0.0651 -0.0748 -0.0592
 2965DOPC   PO434786  24.042  15.790  15.650 -0.1762 -0.0895  0.1413
 2965DOPC   GL134787  24.222  15.939  15.290  0.2791  0.0957  0.1346
 2965DOPC   GL234788  24.524  15.868  15.322 -0.0751 -0.1569  0.2278
 2965DOPC   C1A34789  23.989  15.870  14.896 -0.1220 -0.1022  0.5757
 2965DOPC   D2A34790  24.203  15.646  14.621 -0.0270  0.1616 -0.4300
 2965DOPC   C3A34791  24.148  15.984  14.290 -0.0928  0.2496 -0.0673
 2965DOPC   C4A34792  24.285  16.252  13.902  0.0266 -0.2178 -0.0156
 2965DOPC   C1B34793  24.622  15.735  14.904  0.2535  0.1424 -0.1247
 2965DOPC   D2B34794  24.685  15.904  14.515  0.0808  0.2477  0.1575
 2965DOPC   C3B34795  25.037  15.808  14.309  0.1585 -0.3326 -0.0366
 2965DOPC   C4B34796  25.135  16.066  13.946 -0.1303  0.0820  0.2777
 2966POSM   NC334797  32.245  19.949  16.233  0.3333 -0.0999 -0.1576
 2966POSM   PO434798  32.552  19.871  16.055 -0.2323  0.0752 -0.2851
 2966POSM   AM134799  32.533  19.821  15.727 -0.1143  0.5326  0.0944
 2966POSM   AM234800  32.293  19.752  15.596 -0.0163 -0.3593 -0.0227
 2966POSM   T1A34801  32.824  19.659  15.367  0.1645  0.0398  0.2824
 2966POSM   C2A34802  33.119  19.310  15.275  0.1584  0.3613 -0.3022
 2966POSM   C3A34803  33.537  19.136  15.160  0.2410  0.3611  0.3116
 2966POSM   C1B34804  32.213  19.598  15.344 -0.1962 -0.2032  0.0165
 2966POSM   D2B34805  32.140  19.392  14.918 -0.0986 -0.0541  0.2461
 2966POSM   C3B34806  31.957  19.677  14.651  0.0290  0.1164  0.0184
 2966POSM   C4B34807  31.862  19.844  14.255 -0.0968 -0.0248  0.1344
 2967POSM   NC334808  24.267  22.065  15.553 -0.1381  0.3004  0.0710
 2967POSM   PO434809  24.268  21.666  15.545 -0.0401  0.0919  0.1046
 2967POSM   AM134810  24.483  21.700  15.287  0.0909 -0.0205  0.1327
 2967POSM   AM234811  24.730  21.556  15.217 -0.0928 -0.1181  0.0157
 2967POSM   T1A34812  24.435  21.579  14.782  0.0876  0.1786 -0.0911
 2967POSM   C2A34813  24.239  21.589  14.388 -0.1682  0.0693 -0.2014
 2967POSM   C3A34814  24.304  21.181  14.080 -0.1479  0.0637 -0.2248
 2967POSM   C1B34815  24.860  21.607  14.949 -0.0974 -0.1741  0.3515
 2967POSM   D2B34816  24.864  21.455  14.526 -0.0489 -0.1237  0.3088
 2967POSM   C3B34817  24.778  21.331  14.087 -0.2506  0.0281  0.0815
 2967POSM   C4B34818  24.534  21.395  13.662 -0.3559  0.0561 -0.0396
 2968POSM   NC334819  26.741  17.585  15.720  0.0437 -0.1171  0.0675
 2968POSM   PO434820  26.381  17.747  15.811  0.3458 -0.3226  0.0445
 2968POSM   AM134821  26.354  17.699  15.509  0.1833  0.2243 -0.0638
 2968POSM   AM234822  26.119  17.727  15.380 -0.0776  0.0338 -0.0137
 2968POSM   T1A34823  26.504  17.798  15.034  0.3157  0.2423  0.1999
 2968POSM   C2A34824  26.741  17.462  14.725  0.3485 -0.1700  0.1251
 2968POSM   C3A34825  27.030  17.196  14.461  0.2067  0.5671  0.1386
 2968POSM   C1B34826  26.095  17.950  15.210  0.0660  0.2530  0.1026
 2968POSM   D2B34827  26.114  18.030  14.782 -0.0840 -0.3347  0.0409
 2968POSM   C3B34828  25.689  18.071  14.611 -0.1152  0.0263  0.1343
 2968POSM   C4B34829  25.367  17.958  14.272 -0.2982  0.1010 -0.0649
 2969POSM   NC334830  26.206  23.167  16.328  0.0542 -0.0587  0.1501
 2969POSM   PO434831  26.196  22.892  16.060  0.3507  0.2386  0.0463
 2969POSM   AM134832  26.154  22.967  15.724 -0.3808 -0.0665 -0.2289
 2969POSM   AM234833  26.377  23.088  15.586 -0.0841  0.0240  0.0521
 2969POSM   T1A34834  25.921  22.876  15.260  0.0994 -0.2257  0.0397
 2969POSM   C2A34835  25.773  22.672  14.844  0.3570  0.1222 -0.5011
 2969POSM   C3A34836  25.605  22.511  14.443  0.0687 -0.0721  0.1320
 2969POSM   C1B34837  26.465  23.138  15.288  0.0181 -0.4075 -0.0866
 2969POSM   D2B34838  26.602  23.313  14.859 -0.0388 -0.2230  0.0398
 2969POSM   C3B34839  26.600  23.044  14.449 -0.0848  0.1769 -0.2938
 2969POSM   C4B34840  26.914  23.008  14.070 -0.0902  0.0923 -0.0278
 2970DOPC   NC334841  34.136  19.272  16.324 -0.0019 -0.3586 -0.1523
 2970DOPC   PO434842  34.529  19.347  16.178  0.0404  0.0704  0.1554
 2970DOPC   GL134843  34.541  19.375  15.756  0.1037 -0.1394  0.0067
 2970DOPC   GL234844  34.800  19.310  15.709 -0.0172 -0.0523 -0.0337
 2970DOPC   C1A34845  34.160  19.383  15.462  0.0113 -0.1471  0.0889
 2970DOPC   D2A34846  34.081  19.085  15.175 -0.1042  0.1215 -0.0661
 2970DOPC   C3A34847  33.930  19.196  14.696 -0.2693 -0.0479 -0.4520
 2970DOPC   C4A34848  33.663  19.172  14.415  0.1249  0.1368  0.3765
 2970DOPC   C1B34849  34.620  19.091  15.373  0.1653 -0.0901 -0.0067
 2970DOPC   D2B34850  34.565  19.176  14.926 -0.3310 -0.2892  0.1687
 2970DOPC   C3B34851  34.401  19.202  14.472  0.2808  0.0917 -0.0978
 2970DOPC   C4B34852  34.113  19.216  14.085 -0.0368 -0.0254  0.2596
 2971POSM   NC334853  33.330  19.023  16.299 -0.1714 -0.1707 -0.0539
 2971POSM   PO434854  33.441  19.403  16.142  0.0822 -0.0015 -0.0844
 2971POSM   AM134855  33.516  19.341  15.845 -0.0990  0.4015  0.1477
 2971POSM   AM234856  33.513  19.479  15.590  0.0122 -0.1372 -0.0885
 2971POSM   T1A34857  33.765  19.014  15.581 -0.0728 -0.1464 -0.0818
 2971POSM   C2A34858  33.825  18.645  15.267 -0.2551 -0.1560  0.0285
 2971POSM   C3A34859  33.810  18.277  15.060  0.0244 -0.1023  0.2772
 2971POSM   C1B34860  33.530  19.697  15.322  0.1716  0.2521 -0.1152
 2971POSM   D2B34861  33.596  19.562  14.893  0.2087  0.5937 -0.0568
 2971POSM   C3B34862  33.282  19.419  14.639  0.0238 -0.0515 -0.2840
 2971POSM   C4B34863  32.963  19.237  14.331 -0.0816 -0.1138 -0.3142
 2972DOPS   CNO34864  28.457  17.456  17.132 -0.3231 -0.1761 -0.1158
 2972DOPS   PO434865  28.324  17.675  16.840 -0.0205 -0.1854 -0.0822
 2972DOPS   GL134866  28.364  17.592  16.500  0.1559  0.0134  0.1677
 2972DOPS   GL234867  28.354  17.298  16.435  0.0309  0.2026 -0.2146
 2972DOPS   C1A34868  28.089  17.535  16.106 -0.0438  0.0044  0.2520
 2972DOPS   D2A34869  27.828  17.728  15.743 -0.1903  0.3292  0.4619
 2972DOPS   C3A34870  28.136  17.818  15.342  0.1799 -0.0105  0.0154
 2972DOPS   C4A34871  28.219  17.596  14.931 -0.2443  0.3694 -0.1935
 2972DOPS   C1B34872  28.552  17.391  16.023  0.3336  0.1825 -0.2246
 2972DOPS   D2B34873  28.801  17.354  15.669  0.0972 -0.2063  0.0008
 2972DOPS   C3B34874  28.637  17.408  15.273 -0.0056 -0.4230  0.0873
 2972DOPS   C4B34875  28.668  17.303  14.821 -0.1129  0.0711  0.1321
 2973DOPS   CNO34876  23.635  19.016  15.213  0.0439 -0.0822 -0.0784
 2973DOPS   PO434877  24.001  19.043  15.368  0.2540  0.1751  0.2013
 2973DOPS   GL134878  24.084  19.142  14.942 -0.1475  0.1965 -0.4855
 2973DOPS   GL234879  23.860  19.030  14.765 -0.1634 -0.0330 -0.2684
 2973DOPS   C1A34880  24.270  18.953  14.559  0.2245 -0.0119 -0.0540
 2973DOPS   D2A34881  24.389  18.575  14.230  0.1264  0.0875  0.0854
 2973DOPS   C3A34882  24.669  18.486  13.860  0.0302 -0.1508  0.1808
 2973DOPS   C4A34883  24.958  18.086  13.817  0.1192  0.0191  0.0469
 2973DOPS   C1B34884  23.787  18.633  14.531 -0.0249  0.1518 -0.0154
 2973DOPS   D2B34885  23.479  18.392  14.306  0.2221  0.0734 -0.0416
 2973DOPS   C3B34886  23.488  18.609  13.912 -0.0202  0.1103  0.0017
 2973DOPS   C4B34887  23.721  18.710  13.585 -0.0678 -0.2937  0.0634
 2974DOPS   CNO34888  27.775  19.634  16.583 -0.0799 -0.0151  0.0702
 2974DOPS   PO434889  27.834  19.960  16.380  0.0192  0.0302 -0.4063
 2974DOPS   GL134890  28.109  20.263  16.227 -0.0204  0.3685 -0.0329
 2974DOPS   GL234891  28.460  20.167  16.224  0.2560 -0.3268 -0.0099
 2974DOPS   C1A34892  28.183  20.116  15.785  0.2384 -0.1411  0.2222
 2974DOPS   D2A34893  28.170  19.676  15.603 -0.1555  0.0316  0.0696
 2974DOPS   C3A34894  28.194  19.619  15.185  0.3742  0.0334  0.0187
 2974DOPS   C4A34895  28.185  19.483  14.737 -0.0464 -0.1173 -0.0831
 2974DOPS   C1B34896  28.616  19.894  15.892  0.1706 -0.0397 -0.1105
 2974DOPS   D2B34897  28.595  19.834  15.456  0.0573 -0.0366 -0.2719
 2974DOPS   C3B34898  28.983  19.678  15.431  0.0198 -0.0565  0.0933
 2974DOPS   C4B34899  29.252  19.567  15.773 -0.2768  0.0265  0.1857
 2975POSM   NC334900  31.057  14.028  16.155 -0.0187  0.0945  0.0797
 2975POSM   PO434901  31.092  14.245  16.446  0.2797  0.0700 -0.1481
 2975POSM   AM134902  31.291  14.401  16.261  0.4860 -0.0007 -0.0415
 2975POSM   AM234903  31.218  14.525  16.035  0.0828  0.0989 -0.0621
 2975POSM   T1A34904  31.700  14.652  16.179 -0.0143  0.0324 -0.1454
 2975POSM   C2A34905  32.194  14.690  16.129 -0.0831 -0.0387 -0.2412
 2975POSM   C3A34906  32.492  14.927  15.899 -0.4187 -0.1965  0.1027
 2975POSM   C1B34907  31.137  14.407  15.681  0.0919 -0.0020  0.0186
 2975POSM   D2B34908  31.137  14.270  15.263  0.0204  0.1970  0.1641
 2975POSM   C3B34909  31.404  14.459  14.989  0.4479 -0.0624  0.0934
 2975POSM   C4B34910  31.528  14.670  14.608  0.0767  0.1317  0.3230
 2976DOPE   NH334911  32.062  23.618  16.275 -0.4699 -0.2613 -0.0696
 2976DOPE   PO434912  31.923  23.317  16.371 -0.1817 -0.1062 -0.0246
 2976DOPE   GL134913  31.778  23.140  16.006 -0.2833 -0.0627  0.1568
 2976DOPE   GL234914  31.560  23.056  16.144  0.3086 -0.0950 -0.2054
 2976DOPE   C1A34915  31.715  23.110  15.563 -0.1178  0.0175  0.3334
 2976DOPE   D2A34916  31.485  23.380  15.243 -0.1020  0.3309 -0.2441
 2976DOPE   C3A34917  31.156  23.163  14.907  0.0448 -0.0743 -0.0564
 2976DOPE   C4A34918  31.015  22.990  14.509  0.0595 -0.0050 -0.4931
 2976DOPE   C1B34919  31.198  22.848  15.886  0.0047 -0.1086 -0.0726
 2976DOPE   D2B34920  31.028  22.557  15.522  0.0807 -0.1800  0.2106
 2976DOPE   C3B34921  30.603  22.495  15.345  0.0878  0.0548 -0.1790
 2976DOPE   C4B34922  30.307  22.416  14.981 -0.0102 -0.2662  0.2176
 2977POSM   NC334923  28.469  11.961  16.095 -0.1094  0.0265  0.0157
 2977POSM   PO434924  28.636  12.274  15.991 -0.1717  0.1481  0.1331
 2977POSM   AM134925  28.511  12.235  15.703 -0.0319 -0.1813  0.2651
 2977POSM   AM234926  28.523  12.397  15.457 -0.2173  0.3741 -0.0008
 2977POSM   T1A34927  28.098  12.088  15.502  0.4822  0.1531 -0.0853
 2977POSM   C2A34928  27.874  11.683  15.445  0.1794  0.1454  0.2464
 2977POSM   C3A34929  27.978  11.300  15.227  0.0943  0.0702 -0.0383
 2977POSM   C1B34930  28.697  12.698  15.378 -0.0232  0.1022  0.0481
 2977POSM   D2B34931  28.846  12.956  15.001  0.3156 -0.2271  0.1118
 2977POSM   C3B34932  28.476  13.057  14.741  0.0442 -0.0107  0.2279
 2977POSM   C4B34933  28.204  13.104  14.435 -0.1758 -0.0477  0.0963
 2978DOPS   CNO34934  30.688  19.268  16.510 -0.2686 -0.0762  0.1095
 2978DOPS   PO434935  30.528  19.621  16.511  0.1998 -0.0833 -0.1786
 2978DOPS   GL134936  30.474  19.504  16.118 -0.1082 -0.4620  0.0086
 2978DOPS   GL234937  30.337  19.185  16.116  0.2030 -0.1659 -0.3846
 2978DOPS   C1A34938  30.540  19.425  15.669 -0.0697 -0.1653 -0.0114
 2978DOPS   D2A34939  30.521  19.239  15.234  0.2268  0.1849 -0.0289
 2978DOPS   C3A34940  30.312  19.398  14.853  0.1793 -0.1207 -0.1937
 2978DOPS   C4A34941  30.084  19.689  14.573  0.3246  0.4661  0.0033
 2978DOPS   C1B34942  30.134  18.938  15.822 -0.1440 -0.2988  0.1781
 2978DOPS   D2B34943  30.455  18.802  15.517 -0.0747 -0.0845  0.2036
 2978DOPS   C3B34944  30.190  18.576  15.182 -0.0638  0.1611 -0.2267
 2978DOPS   C4B34945  29.972  18.215  14.961  0.1086  0.1859  0.1790
 2979POSM   NC334946  33.446  16.819  16.888 -0.1036 -0.3936  0.0075
 2979POSM   PO434947  33.342  17.184  16.770  0.0197  0.1416 -0.1111
 2979POSM   AM134948  33.141  17.151  16.523 -0.0087 -0.1721  0.0741
 2979POSM   AM234949  33.053  16.900  16.394  0.0698 -0.1995 -0.0109
 2979POSM   T1A34950  32.821  17.365  16.250  0.5649 -0.1028 -0.1241
 2979POSM   C2A34951  32.512  17.316  15.883  0.2611 -0.0566  0.3932
 2979POSM   C3A34952  32.129  17.278  15.644  0.1390  0.3544  0.1122
 2979POSM   C1B34953  33.081  16.713  16.106 -0.0606  0.2749 -0.2151
 2979POSM   D2B34954  33.133  16.730  15.650 -0.0839 -0.0287  0.1653
 2979POSM   C3B34955  32.788  16.479  15.408 -0.0150 -0.0518  0.4120
 2979POSM   C4B34956  32.677  16.103  15.216 -0.1342  0.2079 -0.0815
 2980POSM   NC334957  28.403  15.089  16.300 -0.3801  0.1207 -0.0204
 2980POSM   PO434958  28.667  15.316  16.186 -0.1072 -0.0179  0.0557
 2980POSM   AM134959  28.824  15.112  15.992  0.0731  0.1121 -0.0222
 2980POSM   AM234960  28.793  14.847  15.928 -0.0548 -0.0345  0.1114
 2980POSM   T1A34961  28.825  15.106  15.466  0.0683 -0.1337 -0.1096
 2980POSM   C2A34962  28.766  14.826  15.089 -0.1177  0.1021 -0.1267
 2980POSM   C3A34963  28.779  14.452  14.771 -0.1219  0.2843 -0.1732
 2980POSM   C1B34964  28.576  14.769  15.691  0.3060  0.1464  0.2318
 2980POSM   D2B34965  28.331  15.001  15.344 -0.1987  0.1496 -0.1091
 2980POSM   C3B34966  28.032  15.033  15.006  0.0661 -0.0725 -0.1378
 2980POSM   C4B34967  27.957  15.011  14.555  0.0805  0.4465  0.0129
 2981POSM   NC334968  25.605  19.111  15.778  0.0941  0.0770 -0.1744
 2981POSM   PO434969  25.555  19.431  16.017  0.1785  0.0403 -0.3215
 2981POSM   AM134970  25.495  19.640  15.765 -0.4388 -0.0245 -0.1314
 2981POSM   AM234971  25.537  19.864  15.666  0.0884  0.0161 -0.2282
 2981POSM   T1A34972  25.257  19.718  15.346  0.4320 -0.3553  0.4972
 2981POSM   C2A34973  25.181  19.840  14.922 -0.1786  0.0828 -0.2589
 2981POSM   C3A34974  24.857  19.725  14.566 -0.0544 -0.3716 -0.0733
 2981POSM   C1B34975  25.801  19.711  15.475  0.0995 -0.1331 -0.2072
 2981POSM   D2B34976  26.005  19.770  15.049 -0.2506  0.2747 -0.0994
 2981POSM   C3B34977  26.047  19.637  14.589 -0.0291 -0.0434  0.0610
 2981POSM   C4B34978  25.840  19.751  14.187 -0.0162  0.2073 -0.2275
 2982DOPE   NH334979  34.533  19.928  16.356  0.3130  0.0325  0.1539
 2982DOPE   PO434980  34.235  19.861  16.215  0.0382  0.0537  0.0299
 2982DOPE   GL134981  34.213  19.859  15.792 -0.2541 -0.0188  0.0809
 2982DOPE   GL234982  34.469  19.806  15.654  0.1370  0.2495 -0.0240
 2982DOPE   C1A34983  34.113  19.827  15.294  0.2735  0.1742  0.3436
 2982DOPE   D2A34984  34.237  19.505  14.950 -0.0378 -0.1549 -0.3561
 2982DOPE   C3A34985  34.497  19.762  14.692  0.0789 -0.1521 -0.1818
 2982DOPE   C4A34986  34.845  20.030  14.550 -0.0360  0.0057 -0.1683
 2982DOPE   C1B34987  34.601  19.564  15.328 -0.0637 -0.2501 -0.0187
 2982DOPE   D2B34988  34.900  19.587  14.943 -0.4713  0.4577 -0.0325
 2982DOPE   C3B34989  35.234  19.450  14.675  0.2652  0.2738 -0.0725
 2982DOPE   C4B34990  35.328  19.248  14.308  0.1111  0.1234  0.1591
 2983DOPE   NH334991  24.506  18.985  15.213  0.0547  0.0780  0.0152
 2983DOPE   PO434992  24.635  18.734  15.366  0.2087 -0.2399  0.0879
 2983DOPE   GL134993  24.724  18.674  14.933 -0.4437  0.1902  0.2303
 2983DOPE   GL234994  24.921  18.878  14.895 -0.0810 -0.1958 -0.0158
 2983DOPE   C1A34995  24.785  18.828  14.446 -0.2538  0.0197  0.1389
 2983DOPE   D2A34996  24.838  18.949  14.039  0.2700 -0.1020 -0.1176
 2983DOPE   C3A34997  24.519  18.970  13.655 -0.0368  0.0149 -0.0437
 2983DOPE   C4A34998  24.307  19.234  13.306  0.1271 -0.0198  0.2025
 2983DOPE   C1B34999  25.112  18.543  14.580 -0.0547  0.1030  0.0711
 2983DOPE   D2B35000  25.057  18.414  14.190 -0.0062 -0.2063 -0.0228
 2983DOPE   C3B35001  24.669  18.150  14.170 -0.1819 -0.2596  0.1693
 2983DOPE   C4B35002  24.438  18.065  13.775  0.0057  0.0695  0.0260
 2984DOPS   CNO35003  33.736  12.323  15.668 -0.0593 -0.1635  0.1049
 2984DOPS   PO435004  33.913  11.983  15.737  0.0571  0.3448  0.0693
 2984DOPS   GL135005  33.926  11.988  15.359  0.1084 -0.0836  0.2091
 2984DOPS   GL235006  34.122  12.145  15.300  0.0527 -0.0608  0.0713
 2984DOPS   C1A35007  33.815  11.647  15.138  0.2212 -0.1546 -0.0215
 2984DOPS   D2A35008  33.631  11.293  14.891 -0.0522 -0.2755 -0.1340
 2984DOPS   C3A35009  33.231  11.265  14.812 -0.1226 -0.0587  0.2248
 2984DOPS   C4A35010  32.847  11.203  14.597  0.0200 -0.1457  0.0906
 2984DOPS   C1B35011  34.191  12.293  14.870  0.3011 -0.1064  0.0053
 2984DOPS   D2B35012  34.087  12.379  14.472 -0.0314  0.0043  0.0597
 2984DOPS   C3B35013  34.226  12.379  14.045 -0.1291  0.2369  0.0347
 2984DOPS   C4B35014  34.571  12.461  13.749 -0.0353 -0.0276  0.0454
 2985DOPS   CNO35015  23.386  15.698  15.616 -0.0248  0.1192 -0.0711
 2985DOPS   PO435016  23.312  15.843  15.267  0.1778 -0.3297  0.1370
 2985DOPS   GL135017  23.508  15.980  14.925 -0.0959  0.1187 -0.0853
 2985DOPS   GL235018  23.506  16.281  14.923 -0.0285  0.1147  0.1553
 2985DOPS   C1A35019  23.706  15.764  14.520 -0.0068 -0.2593  0.0403
 2985DOPS   D2A35020  23.651  15.866  14.043 -0.0852  0.0782 -0.0371
 2985DOPS   C3A35021  23.408  16.159  13.742  0.0044 -0.1883  0.3970
 2985DOPS   C4A35022  22.926  16.004  13.715  0.1684 -0.0978 -0.0305
 2985DOPS   C1B35023  23.120  16.468  14.715  0.1118  0.1620 -0.0764
 2985DOPS   D2B35024  22.731  16.600  14.502  0.1205  0.1282  0.0184
 2985DOPS   C3B35025  22.860  16.836  14.174  0.4871  0.1272  0.0315
 2985DOPS   C4B35026  22.901  16.812  13.735 -0.2748 -0.0650 -0.2208
 2986DOPE   NH335027  27.123  21.466  16.276 -0.2183  0.0250 -0.3749
 2986DOPE   PO435028  27.169  21.257  16.030  0.1346  0.2736 -0.0002
 2986DOPE   GL135029  27.377  21.181  15.715 -0.2636 -0.0657 -0.2373
 2986DOPE   GL235030  27.436  20.891  15.553  0.0516  0.1216  0.3731
 2986DOPE   C1A35031  27.435  21.246  15.248 -0.0752  0.1805 -0.1024
 2986DOPE   D2A35032  27.157  21.236  14.906 -0.0835 -0.2479 -0.1459
 2986DOPE   C3A35033  26.805  21.054  14.605 -0.2615 -0.0416  0.2346
 2986DOPE   C4A35034  26.683  20.724  14.395  0.0904  0.3736  0.1118
 2986DOPE   C1B35035  27.400  20.790  15.114  0.1443  0.1538  0.1790
 2986DOPE   D2B35036  27.168  20.755  14.688 -0.0477 -0.2236 -0.1996
 2986DOPE   C3B35037  26.992  20.369  14.555  0.0743 -0.1414  0.2274
 2986DOPE   C4B35038  26.809  20.074  14.276  0.3276  0.0407 -0.2937
 2987DOPC   NC335039  28.003  22.325  15.896  0.0538  0.0441  0.0960
 2987DOPC   PO435040  27.791  21.956  15.883  0.0247 -0.1624  0.0350
 2987DOPC   GL135041  27.873  21.949  15.477 -0.1310  0.2375 -0.0179
 2987DOPC   GL235042  27.996  22.232  15.396  0.2282 -0.0491 -0.0920
 2987DOPC   C1A35043  27.661  22.099  15.027 -0.0345  0.0795  0.1411
 2987DOPC   D2A35044  27.354  22.085  14.699 -0.1997  0.0781  0.2000
 2987DOPC   C3A35045  27.314  22.447  14.406  0.1375  0.1152 -0.0091
 2987DOPC   C4A35046  27.438  22.810  14.176 -0.2054  0.3492 -0.2012
 2987DOPC   C1B35047  28.255  22.218  15.049  0.0439  0.1253 -0.0899
 2987DOPC   D2B35048  28.645  22.391  14.843 -0.0637  0.1817  0.1944
 2987DOPC   C3B35049  29.090  22.190  14.856  0.0126  0.0427 -0.0908
 2987DOPC   C4B35050  29.505  21.964  14.902 -0.1434  0.0028  0.1581
 2988DOPE   NH335051  28.771  20.405  16.546  0.3681 -0.0822 -0.0676
 2988DOPE   PO435052  28.926  20.684  16.460 -0.1914  0.2077  0.2230
 2988DOPE   GL135053  29.002  20.414  16.120 -0.1479 -0.2326  0.3079
 2988DOPE   GL235054  29.142  20.601  15.944  0.1038  0.2978  0.0998
 2988DOPE   C1A35055  29.111  20.133  15.767  0.0555 -0.3354 -0.2116
 2988DOPE   D2A35056  29.458  20.078  15.461  0.0501  0.3403 -0.1301
 2988DOPE   C3A35057  29.776  20.330  15.423 -0.3020  0.2450 -0.3754
 2988DOPE   C4A35058  30.112  20.624  15.594 -0.2998 -0.4259 -0.2821
 2988DOPE   C1B35059  29.145  20.582  15.459 -0.2607  0.5234  0.4741
 2988DOPE   D2B35060  29.373  20.470  15.093 -0.0423 -0.0688 -0.0586
 2988DOPE   C3B35061  29.528  20.129  14.945 -0.0122  0.1093  0.0213
 2988DOPE   C4B35062  29.621  19.741  14.758  0.0250 -0.4356  0.0056
 2989DOPC   NC335063  22.812  15.071  14.987  0.3199 -0.0347  0.1103
 2989DOPC   PO435064  23.218  14.950  14.946  0.0748 -0.1004  0.1542
 2989DOPC   GL135065  23.003  14.654  14.707  0.0029  0.2078  0.3712
 2989DOPC   GL235066  22.904  14.825  14.608 -0.6131  0.1715 -0.0503
 2989DOPC   C1A35067  22.644  14.379  14.657  0.0027  0.0395 -0.0457
 2989DOPC   D2A35068  22.541  13.913  14.593 -0.0920  0.0467 -0.0141
 2989DOPC   C3A35069  22.537  13.883  14.110  0.2277 -0.0663 -0.1563
 2989DOPC   C4A35070  22.463  13.732  13.646 -0.1070 -0.1013  0.0503
 2989DOPC   C1B35071  23.245  14.682  14.307 -0.0116 -0.1124  0.0931
 2989DOPC   D2B35072  23.696  14.720  14.074  0.0246 -0.2432  0.1283
 2989DOPC   C3B35073  23.759  14.803  13.595  0.0646 -0.2911  0.2729
 2989DOPC   C4B35074  23.844  14.996  13.199 -0.0337 -0.1130  0.1101
 2990DOPE   NH335075  32.184  16.717  16.851  0.1581 -0.0744  0.0326
 2990DOPE   PO435076  32.416  16.686  16.643 -0.0794 -0.2185 -0.0097
 2990DOPE   GL135077  32.590  16.578  16.252 -0.0976 -0.5441 -0.0235
 2990DOPE   GL235078  32.538  16.915  16.231 -0.1205 -0.0484 -0.2440
 2990DOPE   C1A35079  32.527  16.217  15.950  0.2186 -0.0995  0.0817
 2990DOPE   D2A35080  32.810  15.961  15.666 -0.1849 -0.1815  0.0720
 2990DOPE   C3A35081  33.137  16.061  15.341 -0.1747  0.0326  0.1341
 2990DOPE   C4A35082  33.203  16.215  14.879 -0.4217 -0.0954 -0.0354
 2990DOPE   C1B35083  32.608  16.736  15.849 -0.0530 -0.0128 -0.3198
 2990DOPE   D2B35084  32.396  16.725  15.424  0.0259 -0.0590 -0.1305
 2990DOPE   C3B35085  32.363  16.433  15.063  0.1329  0.2029 -0.0940
 2990DOPE   C4B35086  32.270  16.118  14.760  0.1029  0.2717 -0.2159
 2991DOPE   NH335087  32.439  20.455  15.943 -0.0994  0.0890  0.1810
 2991DOPE   PO435088  32.389  20.301  15.662  0.2109 -0.0948 -0.0298
 2991DOPE   GL135089  32.709  20.129  15.381 -0.2179  0.2264  0.1279
 2991DOPE   GL235090  32.501  20.058  15.208  0.1287  0.0215  0.1477
 2991DOPE   C1A35091  32.887  20.159  14.917  0.2550  0.0138  0.2983
 2991DOPE   D2A35092  32.726  20.164  14.499 -0.0691 -0.1517  0.1174
 2991DOPE   C3A35093  32.861  20.330  14.052 -0.1879  0.4295  0.1988
 2991DOPE   C4A35094  32.940  20.651  13.681  0.1350  0.5490 -0.3651
 2991DOPE   C1B35095  32.494  19.785  14.826  0.0195 -0.0416  0.2474
 2991DOPE   D2B35096  32.467  19.601  14.433 -0.2140  0.2450  0.0874
 2991DOPE   C3B35097  32.430  19.894  14.124 -0.1580  0.0682  0.0729
 2991DOPE   C4B35098  32.457  20.185  13.756  0.0469 -0.0424  0.1988
 2992DOPC   NC335099  26.430  11.306  15.410 -0.0886  0.2092  0.0882
 2992DOPC   PO435100  26.151  11.517  15.563  0.2215  0.0565  0.1816
 2992DOPC   GL135101  26.074  11.596  15.156  0.5259  0.1167 -0.1438
 2992DOPC   GL235102  25.785  11.545  15.197 -0.3367 -0.2585  0.2336
 2992DOPC   C1A35103  26.233  11.790  14.701 -0.1579 -0.1911 -0.2087
 2992DOPC   D2A35104  26.501  12.139  14.481 -0.1262 -0.1249 -0.1294
 2992DOPC   C3A35105  26.650  12.274  14.086 -0.2569 -0.0049  0.1137
 2992DOPC   C4A35106  26.766  12.496  13.728  0.0105 -0.2211 -0.0369
 2992DOPC   C1B35107  25.313  11.613  15.008 -0.0074  0.1285 -0.2266
 2992DOPC   D2B35108  24.907  11.481  14.864 -0.1020 -0.2191  0.0375
 2992DOPC   C3B35109  25.031  11.317  14.450 -0.0965  0.0072 -0.0197
 2992DOPC   C4B35110  25.457  11.316  14.233  0.1415  0.5560  0.0269
 2993DOPC   NC335111  34.552  15.865  16.367  0.0203 -0.0422  0.2564
 2993DOPC   PO435112  34.166  15.799  16.215 -0.1937  0.0170  0.0881
 2993DOPC   GL135113  34.177  15.537  15.954  0.2244  0.0821 -0.4552
 2993DOPC   GL235114  34.010  15.651  15.639  0.3059 -0.1049  0.0307
 2993DOPC   C1A35115  34.337  15.358  15.534 -0.3832 -0.0159  0.1177
 2993DOPC   D2A35116  34.505  15.504  15.111 -0.0782  0.0247  0.0584
 2993DOPC   C3A35117  34.400  15.885  14.810 -0.2392 -0.0557  0.0239
 2993DOPC   C4A35118  34.208  16.036  14.369 -0.2014 -0.0694 -0.0762
 2993DOPC   C1B35119  34.129  15.823  15.183  0.1981  0.3700  0.1975
 2993DOPC   D2B35120  34.006  15.542  14.853 -0.1054  0.1304  0.0113
 2993DOPC   C3B35121  33.603  15.600  14.603  0.3468  0.2144  0.4231
 2993DOPC   C4B35122  33.234  15.703  14.401 -0.0838  0.1819  0.1960
 2994DOPE   NH335123  30.367  13.630  16.680 -0.0195 -0.0054  0.0431
 2994DOPE   PO435124  30.419  13.535  16.404  0.0197  0.0908 -0.2045
 2994DOPE   GL135125  30.541  13.537  16.026 -0.0897  0.1370  0.1096
 2994DOPE   GL235126  30.823  13.603  15.979 -0.1263 -0.1659 -0.0699
 2994DOPE   C1A35127  30.482  13.533  15.514  0.1932  0.1010  0.0518
 2994DOPE   D2A35128  30.529  13.329  15.058  0.0689  0.0521  0.0224
 2994DOPE   C3A35129  30.100  13.237  14.907  0.2314  0.3993 -0.1410
 2994DOPE   C4A35130  29.757  13.478  15.010  0.0189 -0.0758 -0.1710
 2994DOPE   C1B35131  31.125  13.790  15.657  0.1639 -0.1677  0.1660
 2994DOPE   D2B35132  31.349  13.726  15.264 -0.1246 -0.2979 -0.0391
 2994DOPE   C3B35133  31.228  13.832  14.874  0.2986  0.1174  0.1785
 2994DOPE   C4B35134  31.358  14.174  14.578  0.0198  0.1524  0.1467
 2995DOPE   NH335135  34.489  18.689  16.335 -0.0628  0.3398  0.0401
 2995DOPE   PO435136  34.354  18.902  16.160  0.0168  0.1567 -0.1090
 2995DOPE   GL135137  34.649  18.769  15.877  0.2575  0.1768  0.3082
 2995DOPE   GL235138  34.941  18.858  15.695 -0.2730 -0.0297  0.0542
 2995DOPE   C1A35139  34.754  18.396  15.614 -0.2933  0.1598 -0.0325
 2995DOPE   D2A35140  34.872  18.185  15.223  0.2807 -0.0536  0.0155
 2995DOPE   C3A35141  34.853  18.125  14.754  0.0809  0.0539 -0.3763
 2995DOPE   C4A35142  34.589  18.243  14.354 -0.2798  0.1056 -0.2173
 2995DOPE   C1B35143  34.935  18.736  15.236 -0.0164  0.0791  0.1996
 2995DOPE   D2B35144  34.764  18.631  14.737  0.1827  0.1342  0.0505
 2995DOPE   C3B35145  35.093  18.458  14.451  0.1053 -0.1090  0.1910
 2995DOPE   C4B35146  35.384  18.144  14.454 -0.0434  0.0475 -0.1106
 2996DOPS   CNO35147  24.490  17.113  15.788 -0.2928  0.0824 -0.1620
 2996DOPS   PO435148  24.851  16.944  15.697  0.2724  0.0704  0.2436
 2996DOPS   GL135149  25.079  16.614  15.594 -0.0507  0.0523  0.3320
 2996DOPS   GL235150  25.083  16.303  15.555  0.0315 -0.0580  0.0765
 2996DOPS   C1A35151  25.325  16.556  15.191  0.0918  0.0674 -0.0307
 2996DOPS   D2A35152  25.466  16.712  14.750  0.1373  0.4229 -0.0697
 2996DOPS   C3A35153  25.169  16.540  14.394 -0.3148 -0.0367 -0.2542
 2996DOPS   C4A35154  24.780  16.301  14.178  0.1061  0.0844 -0.1137
 2996DOPS   C1B35155  24.952  16.032  15.192  0.1323  0.0308 -0.1835
 2996DOPS   D2B35156  25.099  15.877  14.779 -0.0117  0.0141 -0.1866
 2996DOPS   C3B35157  25.419  16.147  14.565 -0.0718  0.0558  0.1177
 2996DOPS   C4B35158  25.731  16.498  14.404 -0.0686 -0.0191 -0.0539
 2997POSM   NC335159  28.013  23.242  16.233  0.0077  0.2686  0.1897
 2997POSM   PO435160  27.832  22.955  15.988  0.2666 -0.1373  0.0202
 2997POSM   AM135161  27.955  22.940  15.655  0.1995  0.4034 -0.0497
 2997POSM   AM235162  27.908  22.789  15.418 -0.1271  0.2772 -0.0767
 2997POSM   T1A35163  28.112  23.199  15.213 -0.0752  0.0659 -0.3451
 2997POSM   C2A35164  28.123  23.459  14.839 -0.2566  0.2023  0.2280
 2997POSM   C3A35165  27.932  23.565  14.424 -0.0482 -0.2106  0.0394
 2997POSM   C1B35166  27.833  22.762  15.091 -0.0498 -0.1107  0.0109
 2997POSM   D2B35167  28.013  22.934  14.675 -0.1791  0.2032 -0.1257
 2997POSM   C3B35168  27.894  23.059  14.242  0.2129  0.0922  0.2681
 2997POSM   C4B35169  27.825  22.747  13.875 -0.0479  0.0509 -0.0024
 2998DOPC   NC335170  23.221  16.804  15.266  0.1828 -0.2456  0.1304
 2998DOPC   PO435171  23.052  17.116  15.388  0.4185 -0.0448 -0.0344
 2998DOPC   GL135172  23.305  17.258  15.120 -0.0295  0.3806  0.0163
 2998DOPC   GL235173  23.549  17.128  15.067  0.0967 -0.1361  0.2114
 2998DOPC   C1A35174  23.411  17.630  14.893 -0.3122 -0.1487  0.3075
 2998DOPC   D2A35175  23.544  17.941  14.554  0.0958 -0.2671 -0.2841
 2998DOPC   C3A35176  23.615  17.908  14.068  0.1280  0.0699  0.1282
 2998DOPC   C4A35177  23.747  17.977  13.661 -0.2694  0.0243 -0.2145
 2998DOPC   C1B35178  23.814  17.378  14.792  0.1202 -0.1220 -0.1192
 2998DOPC   D2B35179  23.892  17.469  14.357  0.1959  0.0927  0.0229
 2998DOPC   C3B35180  24.089  17.845  14.230 -0.1020 -0.1625  0.3240
 2998DOPC   C4B35181  23.964  18.279  14.117 -0.0136  0.2677 -0.1109
 2999DOPC   NC335182  26.799  15.251  15.796 -0.0142 -0.2491 -0.1550
 2999DOPC   PO435183  26.993  15.449  16.066 -0.0548  0.1424  0.1642
 2999DOPC   GL135184  27.264  15.652  15.883 -0.1420 -0.0288  0.0250
 2999DOPC   GL235185  27.126  15.838  15.729  0.3677  0.0882 -0.4953
 2999DOPC   C1A35186  27.589  15.608  15.502  0.0470  0.0903  0.0171
 2999DOPC   D2A35187  27.671  15.510  15.044 -0.0927 -0.0135  0.1156
 2999DOPC   C3A35188  27.538  15.841  14.736 -0.0468 -0.1273  0.1084
 2999DOPC   C4A35189  27.488  16.089  14.337 -0.1054 -0.1657 -0.4735
 2999DOPC   C1B35190  27.114  15.694  15.360  0.2542  0.2993  0.1531
 2999DOPC   D2B35191  27.199  15.389  14.977 -0.0690  0.2259  0.0872
 2999DOPC   C3B35192  27.408  15.402  14.541  0.0525  0.2002 -0.0272
 2999DOPC   C4B35193  27.688  15.336  14.226  0.0453 -0.3285  0.1645
 3000DOPS   CNO35194  25.758  12.567  15.822 -0.1488 -0.0416  0.0184
 3000DOPS   PO435195  26.093  12.371  15.701  0.2009  0.3312  0.1063
 3000DOPS   GL135196  26.291  12.528  15.369 -0.0160  0.1531 -0.6532
 3000DOPS   GL235197  26.169  12.710  15.200 -0.0804 -0.0481 -0.1298
 3000DOPS   C1A35198  26.563  12.425  14.955  0.0860 -0.1565  0.3962
 3000DOPS   D2A35199  26.913  12.513  14.705  0.2290  0.1885 -0.0979
 3000DOPS   C3A35200  27.059  12.160  14.449  0.0776 -0.0351 -0.0840
 3000DOPS   C4A35201  27.325  11.816  14.299  0.3759  0.2946  0.2302
 3000DOPS   C1B35202  26.329  12.803  14.759 -0.3098  0.0205 -0.1052
 3000DOPS   D2B35203  26.415  13.230  14.571  0.0929 -0.0487 -0.1299
 3000DOPS   C3B35204  26.843  13.226  14.487  0.1843  0.0217 -0.0668
 3000DOPS   C4B35205  27.231  13.299  14.237  0.1576 -0.3953  0.0065
 3001DOPC   NC335206  33.382  22.992  15.908 -0.2407  0.0482 -0.3581
 3001DOPC   PO435207  33.407  23.220  16.239  0.0979  0.1058 -0.1545
 3001DOPC   GL135208  33.385  23.427  15.850 -0.0382 -0.0306 -0.0377
 3001DOPC   GL235209  33.097  23.411  15.832  0.2036 -0.0066  0.2457
 3001DOPC   C1A35210  33.534  23.482  15.448 -0.1042 -0.0503 -0.0676
 3001DOPC   D2A35211  33.581  23.386  15.014  0.1383 -0.0570  0.0966
 3001DOPC   C3A35212  33.540  23.031  14.721 -0.3514 -0.0290  0.1260
 3001DOPC   C4A35213  33.511  22.773  14.357  0.1334  0.2387  0.0642
 3001DOPC   C1B35214  32.988  23.568  15.415  0.0343  0.0628  0.0636
 3001DOPC   D2B35215  32.943  23.436  14.937  0.0162 -0.0605 -0.3764
 3001DOPC   C3B35216  32.915  23.675  14.528  0.0289 -0.0167  0.0857
 3001DOPC   C4B35217  33.295  23.790  14.260 -0.2276 -0.1505 -0.1581
 3002POSM   NC335218  31.645  15.902  16.723 -0.1349 -0.0752 -0.2503
 3002POSM   PO435219  31.844  16.249  16.796  0.1233 -0.1991  0.1185
 3002POSM   AM135220  31.905  16.241  16.451 -0.0185 -0.4365 -0.1111
 3002POSM   AM235221  31.715  16.228  16.250  0.0889  0.1280  0.1106
 3002POSM   T1A35222  32.149  15.977  16.090 -0.1288 -0.6472 -0.0441
 3002POSM   C2A35223  32.128  15.616  15.807 -0.1235 -0.3749  0.2283
 3002POSM   C3A35224  32.210  15.531  15.386 -0.0255  0.1513  0.1096
 3002POSM   C1B35225  31.627  16.418  16.005  0.3004  0.0809 -0.0104
 3002POSM   D2B35226  31.566  16.677  15.634 -0.1836  0.0613 -0.1935
 3002POSM   C3B35227  31.887  16.856  15.439  0.0637 -0.0852  0.1447
 3002POSM   C4B35228  32.053  17.056  15.064  0.1568  0.4118 -0.0960
 3003DOPC   NC335229  29.387  13.081  16.565  0.1604  0.1107  0.1872
 3003DOPC   PO435230  29.063  12.952  16.425  0.1417  0.0094 -0.0341
 3003DOPC   GL135231  29.296  12.816  16.172  0.2908 -0.3772 -0.2420
 3003DOPC   GL235232  29.224  13.026  15.924 -0.2194 -0.0191 -0.0977
 3003DOPC   C1A35233  29.324  12.491  15.858 -0.1833  0.4246  0.2180
 3003DOPC   D2A35234  29.070  12.356  15.496 -0.1022 -0.0964  0.3258
 3003DOPC   C3A35235  28.864  12.384  15.024  0.2351  0.0100 -0.1371
 3003DOPC   C4A35236  28.758  12.233  14.661  0.2757  0.1585 -0.0180
 3003DOPC   C1B35237  29.146  12.950  15.498  0.0520  0.4626  0.0901
 3003DOPC   D2B35238  29.422  12.680  15.173  0.0676 -0.1826  0.4745
 3003DOPC   C3B35239  29.833  12.800  14.988  0.1369  0.1243 -0.3677
 3003DOPC   C4B35240  30.170  12.547  14.774 -0.0635  0.0088 -0.0346
 3004DOPC   NC335241  32.631  11.854  15.791  0.1234 -0.3399 -0.0956
 3004DOPC   PO435242  32.398  11.703  15.505  0.0069  0.2390 -0.0603
 3004DOPC   GL135243  32.532  11.986  15.296  0.0209  0.4657  0.0754
 3004DOPC   GL235244  32.326  12.266  15.243 -0.0237  0.2250 -0.1304
 3004DOPC   C1A35245  32.768  12.090  14.936  0.4197 -0.2726  0.2842
 3004DOPC   D2A35246  32.703  12.103  14.451 -0.1578 -0.1483  0.1275
 3004DOPC   C3A35247  32.908  12.224  14.051 -0.0881 -0.0041  0.0034
 3004DOPC   C4A35248  33.333  12.462  13.969 -0.0436 -0.1305  0.0668
 3004DOPC   C1B35249  32.375  12.444  14.820  0.0574  0.2258  0.2406
 3004DOPC   D2B35250  32.589  12.593  14.401 -0.0363 -0.4774  0.1373
 3004DOPC   C3B35251  32.445  12.538  13.967 -0.2652 -0.1083  0.0107
 3004DOPC   C4B35252  32.204  12.400  13.633 -0.0583  0.0386  0.2497
 3005DOPE   NH335253  29.746  11.254  16.137 -0.1871  0.0534  0.0107
 3005DOPE   PO435254  29.527  11.290  15.865  0.0532 -0.1893  0.0705
 3005DOPE   GL135255  29.619  11.329  15.556 -0.0647 -0.1471  0.0665
 3005DOPE   GL235256  29.975  11.351  15.524  0.1548 -0.0046 -0.2733
 3005DOPE   C1A35257  29.741  11.122  15.125  0.1876 -0.1945  0.2195
 3005DOPE   D2A35258  29.830  10.974  14.697  0.0779  0.3255  0.1428
 3005DOPE   C3A35259  29.756  10.997  14.234  0.0657 -0.1152  0.0562
 3005DOPE   C4A35260  29.610  11.169  13.823  0.6308  0.3215 -0.0858
 3005DOPE   C1B35261  29.819  11.611  15.218  0.0434 -0.2453  0.0802
 3005DOPE   D2B35262  29.635  11.669  14.798 -0.4071 -0.1844 -0.0053
 3005DOPE   C3B35263  29.485  11.587  14.422 -0.1074 -0.3429  0.3022
 3005DOPE   C4B35264  29.307  11.191  14.265  0.2628  0.0125  0.1618
 3006POSM   NC335265  34.214  12.467  15.806 -0.0685 -0.3334  0.2701
 3006POSM   PO435266  34.081  12.802  15.841 -0.0753  0.0550 -0.1335
 3006POSM   AM135267  33.946  12.692  15.504  0.3587  0.3178 -0.1261
 3006POSM   AM235268  33.781  12.848  15.355  0.1000  0.1857 -0.1218
 3006POSM   T1A35269  33.705  12.433  15.109 -0.0351  0.0358 -0.4083
 3006POSM   C2A35270  33.560  12.296  14.723 -0.1554  0.1897  0.3621
 3006POSM   C3A35271  33.677  12.210  14.294  0.0619  0.1272 -0.2108
 3006POSM   C1B35272  33.607  13.062  15.107  0.2762 -0.2151 -0.2357
 3006POSM   D2B35273  33.354  13.117  14.731  0.2663  0.1939 -0.1378
 3006POSM   C3B35274  33.028  13.437  14.535 -0.0923  0.2250 -0.2841
 3006POSM   C4B35275  32.587  13.533  14.314 -0.0960  0.1516  0.2064
 3007POSM   NC335276  24.868  18.257  15.158  0.0002  0.3462  0.3617
 3007POSM   PO435277  25.114  18.535  15.280  0.1755 -0.3196  0.1760
 3007POSM   AM135278  25.372  18.678  15.171  0.1318  0.2816 -0.0419
 3007POSM   AM235279  25.609  18.793  15.272  0.2373  0.1673 -0.1169
 3007POSM   T1A35280  25.447  18.945  14.752 -0.1895 -0.0499  0.1923
 3007POSM   C2A35281  25.339  18.944  14.314 -0.1851  0.0727  0.2207
 3007POSM   C3A35282  25.436  19.099  13.919  0.0999 -0.0443  0.0844
 3007POSM   C1B35283  25.833  18.722  14.992  0.0946  0.0206 -0.0603
 3007POSM   D2B35284  25.989  18.481  14.680  0.1425  0.0698  0.1826
 3007POSM   C3B35285  26.318  18.399  14.418 -0.0381 -0.2100  0.0101
 3007POSM   C4B35286  26.632  18.252  14.101 -0.0852 -0.1028 -0.1166
 3008DOPE   NH335287  24.383  13.022  15.860  0.0293 -0.1767 -0.0069
 3008DOPE   PO435288  24.613  13.042  15.631 -0.1192  0.0276 -0.0272
 3008DOPE   GL135289  24.645  13.099  15.234  0.0136 -0.1623  0.1391
 3008DOPE   GL235290  24.896  13.026  15.240  0.3737  0.3212 -0.1573
 3008DOPE   C1A35291  24.647  12.861  14.868  0.1264 -0.1718 -0.3846
 3008DOPE   D2A35292  24.885  12.989  14.447 -0.0348 -0.0351 -0.1715
 3008DOPE   C3A35293  24.668  12.804  14.096 -0.1512 -0.3643 -0.1536
 3008DOPE   C4A35294  24.594  12.725  13.659 -0.0523 -0.2119  0.3894
 3008DOPE   C1B35295  25.106  13.187  14.833 -0.1835 -0.2045  0.0167
 3008DOPE   D2B35296  25.392  13.124  14.542  0.0278  0.1724 -0.2838
 3008DOPE   C3B35297  25.367  13.259  14.086 -0.2772  0.0296  0.1016
 3008DOPE   C4B35298  25.003  13.407  13.840 -0.3909  0.1123  0.1448
 3009POSM   NC335299  23.890  14.010  15.108  0.1510  0.2636 -0.0067
 3009POSM   PO435300  23.803  13.662  15.301 -0.0463  0.0097  0.1273
 3009POSM   AM135301  24.029  13.497  15.166 -0.0379  0.0102 -0.0893
 3009POSM   AM235302  24.158  13.496  14.909  0.2099 -0.1494 -0.1497
 3009POSM   T1A35303  24.245  13.050  15.025 -0.0882  0.1956  0.3251
 3009POSM   C2A35304  24.265  12.588  14.944 -0.1439 -0.2062  0.2105
 3009POSM   C3A35305  24.264  12.159  14.798 -0.0386  0.1285  0.4845
 3009POSM   C1B35306  24.210  13.595  14.571  0.0346  0.0228  0.3447
 3009POSM   D2B35307  24.093  13.549  14.133 -0.0720 -0.2110  0.2143
 3009POSM   C3B35308  24.447  13.646  13.853  0.0423 -0.0714  0.0744
 3009POSM   C4B35309  24.605  13.674  13.440 -0.4184 -0.0612  0.1512
 3010DOPE   NH335310  27.172  21.693  15.762 -0.2126  0.0691  0.0548
 3010DOPE   PO435311  27.063  21.991  15.865 -0.3845  0.1533 -0.0165
 3010DOPE   GL135312  27.036  22.286  15.646 -0.0154  0.5173  0.2801
 3010DOPE   GL235313  27.160  22.556  15.649 -0.1528 -0.0773 -0.1547
 3010DOPE   C1A35314  27.119  22.362  15.171 -0.1624  0.1175 -0.1270
 3010DOPE   D2A35315  27.302  22.644  14.877 -0.2222  0.0892  0.1207
 3010DOPE   C3A35316  27.689  22.516  14.724  0.1364  0.1271  0.2164
 3010DOPE   C4A35317  27.981  22.481  14.345  0.1330 -0.0398 -0.0762
 3010DOPE   C1B35318  27.471  22.689  15.412  0.1101  0.0962  0.2100
 3010DOPE   D2B35319  27.605  23.164  15.425 -0.0429 -0.0145  0.0180
 3010DOPE   C3B35320  27.660  23.217  14.998  0.1967  0.0570  0.0929
 3010DOPE   C4B35321  27.553  23.038  14.598 -0.1655  0.3918 -0.1356
 3011POSM   NC335322  23.713  16.105  15.335  0.1463  0.2596  0.1736
 3011POSM   PO435323  23.653  16.504  15.463 -0.0647 -0.1780  0.1107
 3011POSM   AM135324  23.713  16.694  15.200  0.1227 -0.1706  0.3062
 3011POSM   AM235325  23.939  16.632  15.074  0.1424 -0.0918 -0.2104
 3011POSM   T1A35326  23.529  16.785  14.738 -0.2009  0.0728 -0.0336
 3011POSM   C2A35327  23.342  16.653  14.352 -0.4373  0.1768 -0.0535
 3011POSM   C3A35328  23.155  16.483  13.988  0.0148 -0.2363  0.3760
 3011POSM   C1B35329  23.974  16.422  14.800  0.0575  0.0758  0.3281
 3011POSM   D2B35330  23.806  16.294  14.441  0.1733 -0.0604  0.0534
 3011POSM   C3B35331  23.751  16.487  14.017 -0.1534  0.4273 -0.1119
 3011POSM   C4B35332  23.527  16.639  13.617  0.0186  0.0342  0.1321
 3012DOPS   CNO35333   0.074  13.512  16.142  0.1792  0.0430  0.1363
 3012DOPS   PO435334   0.359  13.403  15.926 -0.1446 -0.0466  0.2318
 3012DOPS   GL135335   0.177  13.592  15.660  0.0266 -0.1178  0.0188
 3012DOPS   GL235336   0.374  13.431  15.414  0.1651  0.0959 -0.1626
 3012DOPS   C1A35337   0.252  13.890  15.332  0.2459  0.2940 -0.0682
 3012DOPS   D2A35338   0.379  13.865  14.891 -0.1460  0.0306  0.1183
 3012DOPS   C3A35339   0.514  13.548  14.590  0.1677  0.0851 -0.0446
 3012DOPS   C4A35340   0.679  13.273  14.195 -0.2306  0.0607  0.1041
 3012DOPS   C1B35341   0.321  13.241  14.996 -0.2216  0.1240  0.0500
 3012DOPS   D2B35342   0.567  13.070  14.645  0.2134  0.2315 -0.1236
 3012DOPS   C3B35343   0.882  12.755  14.494 -0.3770 -0.0131 -0.0608
 3012DOPS   C4B35344   1.019  12.300  14.379 -0.1722  0.1344 -0.0006
 3013DOPC   NC335345  28.658  21.828  16.169  0.2136 -0.3048  0.2094
 3013DOPC   PO435346  28.249  21.869  16.106 -0.4348  0.1750 -0.2281
 3013DOPC   GL135347  28.405  21.637  15.805  0.0980  0.4135  0.1922
 3013DOPC   GL235348  28.254  21.781  15.619  0.2858 -0.0337  0.0317
 3013DOPC   C1A35349  28.753  21.441  15.525 -0.0511  0.0525 -0.0132
 3013DOPC   D2A35350  29.119  21.470  15.245 -0.0611  0.1045  0.1482
 3013DOPC   C3A35351  29.066  21.689  14.841  0.1752 -0.0379  0.0762
 3013DOPC   C4A35352  28.906  21.760  14.379 -0.0636  0.1411 -0.2401
 3013DOPC   C1B35353  28.126  21.732  15.145 -0.2564  0.1592 -0.2790
 3013DOPC   D2B35354  28.035  21.877  14.683 -0.1376  0.1695 -0.0813
 3013DOPC   C3B35355  27.741  22.020  14.403  0.2224 -0.1028  0.1474
 3013DOPC   C4B35356  27.518  22.306  13.995 -0.1147 -0.0606  0.0889
 3014DOPS   CNO35357  22.712  21.300  14.979  0.0031 -0.1035 -0.0827
 3014DOPS   PO435358  22.908  21.298  14.628  0.2941  0.4603 -0.1177
 3014DOPS   GL135359  23.146  21.487  14.664  0.1551 -0.1544  0.1865
 3014DOPS   GL235360  23.025  21.751  14.507 -0.1236  0.1419 -0.1995
 3014DOPS   C1A35361  23.489  21.597  14.333 -0.1796 -0.0471  0.1478
 3014DOPS   D2A35362  23.784  21.845  14.114  0.2099  0.1012 -0.0033
 3014DOPS   C3A35363  24.133  21.686  13.843  0.2973  0.0137  0.0168
 3014DOPS   C4A35364  24.298  22.148  13.737  0.0768  0.0260 -0.4256
 3014DOPS   C1B35365  23.333  22.089  14.560 -0.1739 -0.2835 -0.0424
 3014DOPS   D2B35366  23.522  22.414  14.762  0.1226 -0.0540  0.0632
 3014DOPS   C3B35367  23.435  22.777  14.597 -0.0609  0.3651 -0.1577
 3014DOPS   C4B35368  23.495  22.867  14.115 -0.2827 -0.0544 -0.0920
 3015DOPE   NH335369  32.129  20.760  15.579  0.2312  0.2394  0.0559
 3015DOPE   PO435370  32.427  20.846  15.673  0.3123 -0.0750 -0.1111
 3015DOPE   GL135371  32.643  20.733  15.434  0.2358  0.0234  0.0702
 3015DOPE   GL235372  32.503  20.594  15.231  0.1784  0.1524  0.3060
 3015DOPE   C1A35373  32.867  20.962  15.129  0.2634  0.0957  0.0004
 3015DOPE   D2A35374  33.151  21.137  14.806 -0.1927  0.1747 -0.0639
 3015DOPE   C3A35375  32.985  21.411  14.459  0.2917  0.0169 -0.1591
 3015DOPE   C4A35376  33.059  21.588  14.009  0.1741 -0.1282  0.2439
 3015DOPE   C1B35377  32.072  20.614  15.088  0.1456 -0.1210 -0.0839
 3015DOPE   D2B35378  31.853  20.514  14.656 -0.2634  0.1153 -0.0137
 3015DOPE   C3B35379  31.835  20.392  14.209 -0.2230 -0.0137 -0.1890
 3015DOPE   C4B35380  31.484  20.252  13.888  0.2114 -0.0114 -0.1768
 3016DOPC   NC335381  24.243  17.566  15.773 -0.1010  0.0233 -0.1310
 3016DOPC   PO435382  24.206  17.789  15.443  0.2308  0.2327  0.0825
 3016DOPC   GL135383  24.049  17.599  15.150 -0.3228 -0.3722 -0.0483
 3016DOPC   GL235384  23.783  17.608  15.291 -0.1476 -0.0215 -0.1038
 3016DOPC   C1A35385  24.207  17.737  14.718 -0.0903 -0.0355 -0.0331
 3016DOPC   D2A35386  24.578  17.686  14.414  0.4088  0.1993  0.1206
 3016DOPC   C3A35387  25.024  17.609  14.308  0.4900 -0.1826  0.0262
 3016DOPC   C4A35388  25.420  17.495  14.604 -0.2156  0.1558  0.0884
 3016DOPC   C1B35389  23.818  17.943  14.965  0.0036 -0.0684  0.1354
 3016DOPC   D2B35390  24.037  18.164  14.605 -0.1401 -0.0148  0.0947
 3016DOPC   C3B35391  24.497  18.171  14.622  0.3658 -0.1160  0.2075
 3016DOPC   C4B35392  24.925  18.025  14.616  0.3227  0.0057 -0.0838
 3017DOPS   CNO35393  23.729  14.188  15.554 -0.0105 -0.1726  0.1335
 3017DOPS   PO435394  23.715  14.408  15.293  0.1506 -0.1261 -0.2219
 3017DOPS   GL135395  23.662  14.375  14.847  0.1423 -0.0647  0.0482
 3017DOPS   GL235396  23.532  14.067  14.825 -0.0726 -0.2093  0.0071
 3017DOPS   C1A35397  23.568  14.272  14.358  0.0038 -0.3491 -0.0413
 3017DOPS   D2A35398  23.288  14.219  14.029 -0.3153 -0.3150 -0.1184
 3017DOPS   C3A35399  23.354  14.559  13.755 -0.0598  0.2015 -0.1485
 3017DOPS   C4A35400  23.275  15.022  13.598  0.1158 -0.4416 -0.1826
 3017DOPS   C1B35401  23.080  14.132  14.599 -0.3430  0.1806  0.2492
 3017DOPS   D2B35402  22.837  14.223  14.246 -0.0145  0.0831  0.1205
 3017DOPS   C3B35403  22.847  14.113  13.797 -0.0043 -0.1317 -0.1308
 3017DOPS   C4B35404  23.086  13.814  13.576 -0.0896 -0.1056 -0.1115
 3018DOPC   NC335405  27.295  13.843  15.975 -0.0783  0.0100  0.4123
 3018DOPC   PO435406  27.303  14.240  16.076 -0.0125  0.0041 -0.1751
 3018DOPC   GL135407  27.170  14.237  15.575  0.0087 -0.6662  0.0581
 3018DOPC   GL235408  27.046  14.059  15.557  0.1484 -0.1423  0.0596
 3018DOPC   C1A35409  26.869  14.418  15.293 -0.2331 -0.0742 -0.3410
 3018DOPC   D2A35410  26.683  14.000  15.249  0.0039 -0.1024 -0.1062
 3018DOPC   C3A35411  26.986  13.677  15.248 -0.0050  0.2976 -0.1936
 3018DOPC   C4A35412  26.813  13.346  14.937  0.1140 -0.2822  0.1950
 3018DOPC   C1B35413  27.208  14.081  15.097  0.0526  0.2412 -0.0092
 3018DOPC   D2B35414  27.406  14.076  14.725 -0.5454 -0.3221  0.0830
 3018DOPC   C3B35415  27.722  14.358  14.598  0.1722 -0.2946 -0.1901
 3018DOPC   C4B35416  28.000  14.569  14.851  0.0202  0.1612  0.5197
 3019DOPE   NH335417  33.706  20.021  16.096 -0.2707  0.0952 -0.1214
 3019DOPE   PO435418  33.538  19.873  15.912  0.1272 -0.1774  0.1338
 3019DOPE   GL135419  33.528  20.095  15.550 -0.2192  0.0110  0.5639
 3019DOPE   GL235420  33.830  20.105  15.604  0.0310  0.1167  0.2009
 3019DOPE   C1A35421  33.599  20.149  15.062 -0.0138 -0.1733 -0.1332
 3019DOPE   D2A35422  33.487  19.983  14.650 -0.0443  0.2053 -0.0434
 3019DOPE   C3A35423  33.234  20.308  14.477 -0.0576 -0.1023 -0.0108
 3019DOPE   C4A35424  33.074  20.713  14.242  0.1814 -0.1577 -0.1049
 3019DOPE   C1B35425  33.672  20.513  15.448 -0.1014 -0.0862 -0.0459
 3019DOPE   D2B35426  33.672  20.672  14.984 -0.0582 -0.1267  0.2921
 3019DOPE   C3B35427  33.761  20.411  14.626  0.0332 -0.0927 -0.0699
 3019DOPE   C4B35428  33.746  20.100  14.223  0.1881 -0.1156  0.0843
 3020POSM   NC335429  29.974  20.607  16.359 -0.1073  0.0016 -0.0237
 3020POSM   PO435430  29.918  20.230  16.425 -0.2192  0.1326  0.2614
 3020POSM   AM135431  29.716  20.076  16.202 -0.1136  0.1165  0.1360
 3020POSM   AM235432  29.440  20.119  16.102 -0.1220 -0.1517  0.2900
 3020POSM   T1A35433  29.685  19.774  15.773 -0.0295 -0.1629 -0.2393
 3020POSM   C2A35434  29.547  19.581  15.396  0.2160  0.0686 -0.0735
 3020POSM   C3A35435  29.204  19.427  15.054  0.0704  0.1645 -0.2661
 3020POSM   C1B35436  29.586  20.353  15.890  0.0542 -0.0051 -0.0031
 3020POSM   D2B35437  29.728  20.755  15.883 -0.1847  0.1426  0.0799
 3020POSM   C3B35438  29.727  20.911  15.460 -0.1684 -0.1308  0.0267
 3020POSM   C4B35439  29.954  21.227  15.203  0.3583 -0.1451  0.1653
 3021DOPE   NH335440  27.907  21.445  16.083  0.3093  0.0756 -0.0253
 3021DOPE   PO435441  27.604  21.500  16.010  0.1171  0.0938 -0.1603
 3021DOPE   GL135442  27.640  21.577  15.638  0.4329  0.4001  0.2171
 3021DOPE   GL235443  27.855  21.419  15.499 -0.1053  0.0029  0.1809
 3021DOPE   C1A35444  27.430  21.728  15.260  0.1981 -0.2016 -0.1201
 3021DOPE   D2A35445  27.638  21.559  14.871 -0.2454 -0.2431 -0.1929
 3021DOPE   C3A35446  28.003  21.297  14.907  0.0898 -0.0607 -0.0196
 3021DOPE   C4A35447  28.401  20.994  14.878 -0.0480  0.0938 -0.0723
 3021DOPE   C1B35448  27.847  20.999  15.285 -0.0042  0.2847 -0.1476
 3021DOPE   D2B35449  27.858  20.602  15.214  0.4049  0.0069  0.0740
 3021DOPE   C3B35450  27.744  20.596  14.816  0.0136 -0.0910  0.3127
 3021DOPE   C4B35451  28.097  20.754  14.553 -0.1248  0.1264  0.0346
 3022POSM   NC335452  30.518  20.399  16.025  0.1018  0.1762  0.2105
 3022POSM   PO435453  30.380  20.783  16.156  0.1644 -0.1656  0.2093
 3022POSM   AM135454  30.526  20.892  15.868 -0.2115  0.2005  0.4730
 3022POSM   AM235455  30.708  21.094  15.751  0.0912 -0.1477 -0.1639
 3022POSM   T1A35456  30.401  20.926  15.378  0.4029 -0.4399 -0.0839
 3022POSM   C2A35457  30.424  20.876  14.896 -0.0469  0.2014 -0.2916
 3022POSM   C3A35458  30.432  20.434  14.734 -0.1356  0.0454  0.1109
 3022POSM   C1B35459  30.911  21.185  15.461 -0.0402 -0.3550 -0.1313
 3022POSM   D2B35460  31.192  20.837  15.272 -0.4009  0.2130 -0.1547
 3022POSM   C3B35461  31.215  20.625  14.874 -0.1490  0.2701  0.1894
 3022POSM   C4B35462  31.353  20.417  14.501 -0.2784  0.1423 -0.4557
 3023DOPC   NC335463  31.403  16.576  16.447 -0.0035  0.0383 -0.2614
 3023DOPC   PO435464  31.236  16.235  16.577  0.0907  0.3029 -0.1606
 3023DOPC   GL135465  31.298  15.974  16.264  0.1729  0.2260 -0.2100
 3023DOPC   GL235466  31.208  15.753  16.209  0.0284 -0.2997  0.0158
 3023DOPC   C1A35467  31.630  15.926  15.930  0.0498  0.0146 -0.1009
 3023DOPC   D2A35468  31.747  16.099  15.505 -0.0640 -0.0281  0.1056
 3023DOPC   C3A35469  31.879  16.325  15.157  0.1727 -0.0763 -0.0197
 3023DOPC   C4A35470  31.980  16.534  14.735  0.2419 -0.0559 -0.2252
 3023DOPC   C1B35471  31.162  15.595  15.767  0.1559 -0.0742 -0.1322
 3023DOPC   D2B35472  31.278  15.737  15.323 -0.1120 -0.3016  0.2402
 3023DOPC   C3B35473  30.979  15.937  15.109  0.1081  0.0393 -0.0876
 3023DOPC   C4B35474  31.002  16.163  14.702  0.1812 -0.2948 -0.2816
 3024DOPE   NH335475  30.005  21.676  16.246  0.0586  0.2630  0.0403
 3024DOPE   PO435476  30.189  21.573  16.477 -0.0557 -0.1452 -0.1282
 3024DOPE   GL135477  30.471  21.721  16.071  0.1546 -0.1190 -0.0068
 3024DOPE   GL235478  30.548  21.948  16.060 -0.1934 -0.1758  0.1194
 3024DOPE   C1A35479  30.212  21.848  15.644  0.0004 -0.0460  0.1485
 3024DOPE   D2A35480  29.965  21.887  15.203 -0.0481  0.1220  0.2335
 3024DOPE   C3A35481  30.017  22.027  14.777 -0.2160 -0.4129  0.1131
 3024DOPE   C4A35482  30.273  22.280  14.456  0.0611 -0.0151 -0.1097
 3024DOPE   C1B35483  30.531  22.403  15.890  0.0583 -0.2320  0.2460
 3024DOPE   D2B35484  30.548  22.859  15.732 -0.0687  0.0326  0.1715
 3024DOPE   C3B35485  30.780  23.228  15.879 -0.2787 -0.1251 -0.0370
 3024DOPE   C4B35486  30.870  23.646  16.104  0.2188 -0.0742 -0.0356
 3025POSM   NC335487  29.961  12.289  16.443  0.0349 -0.0132 -0.0151
 3025POSM   PO435488  29.909  11.949  16.270  0.1982 -0.0736  0.1114
 3025POSM   AM135489  30.141  12.009  16.050  0.1108 -0.0105 -0.0469
 3025POSM   AM235490  30.417  12.023  16.112  0.0512  0.2071 -0.2358
 3025POSM   T1A35491  30.159  11.910  15.540 -0.0264 -0.1003 -0.0685
 3025POSM   C2A35492  30.385  11.536  15.304  0.0299 -0.0277  0.1990
 3025POSM   C3A35493  30.668  11.653  14.964 -0.1890 -0.0413 -0.0094
 3025POSM   C1B35494  30.458  12.179  15.816  0.3284 -0.2333 -0.0158
 3025POSM   D2B35495  30.436  12.328  15.367 -0.2383 -0.1612  0.1597
 3025POSM   C3B35496  30.320  12.059  14.995 -0.1954  0.0845 -0.0203
 3025POSM   C4B35497  30.104  11.846  14.647  0.1190 -0.3138 -0.2479
 3026DOPE   NH335498  32.868  22.115  15.911  0.0352 -0.3431 -0.0592
 3026DOPE   PO435499  33.035  21.861  15.850  0.0497 -0.1876 -0.0687
 3026DOPE   GL135500  32.829  21.843  15.482 -0.1264  0.1201 -0.0817
 3026DOPE   GL235501  32.700  21.575  15.479 -0.3278  0.1235  0.0504
 3026DOPE   C1A35502  32.750  21.788  15.028  0.0997 -0.2728 -0.0378
 3026DOPE   D2A35503  32.643  21.764  14.583  0.0068 -0.0161 -0.3163
 3026DOPE   C3A35504  32.423  21.406  14.398 -0.1259  0.0093 -0.1637
 3026DOPE   C4A35505  32.018  21.300  14.175  0.1553 -0.0065  0.4693
 3026DOPE   C1B35506  33.121  21.515  15.238 -0.3917 -0.1652 -0.1734
 3026DOPE   D2B35507  33.463  21.489  15.013  0.0812  0.1413  0.0058
 3026DOPE   C3B35508  33.673  21.393  14.579  0.1055  0.2880  0.1252
 3026DOPE   C4B35509  34.115  21.539  14.524  0.0309  0.2854 -0.1805
 3027DOPE   NH335510  23.479  14.870  15.392 -0.1572 -0.0348 -0.1628
 3027DOPE   PO435511  23.501  15.155  15.522 -0.1102 -0.2051  0.1278
 3027DOPE   GL135512  23.608  15.383  15.244 -0.1339  0.1945 -0.1495
 3027DOPE   GL235513  23.751  15.594  15.277 -0.0072 -0.2017  0.1427
 3027DOPE   C1A35514  23.692  15.379  14.794  0.1967  0.0346  0.1893
 3027DOPE   D2A35515  23.517  15.150  14.443  0.0273  0.4942  0.0078
 3027DOPE   C3A35516  23.647  15.295  13.985  0.3705  0.1149  0.1037
 3027DOPE   C4A35517  23.880  15.293  13.592  0.2726  0.3204  0.2189
 3027DOPE   C1B35518  24.109  15.427  15.076 -0.2605 -0.0621  0.0803
 3027DOPE   D2B35519  24.207  15.054  14.749 -0.1655  0.1747 -0.2158
 3027DOPE   C3B35520  23.948  15.209  14.382  0.3035  0.1056 -0.0609
 3027DOPE   C4B35521  24.087  15.080  13.975 -0.0313 -0.1300 -0.0821
 3028DOPE   NH335522  31.639  19.377  16.146  0.0619 -0.1128 -0.0399
 3028DOPE   PO435523  31.722  19.198  16.381  0.1858  0.0151  0.2527
 3028DOPE   GL135524  31.608  18.898  16.059 -0.0971 -0.2792 -0.0424
 3028DOPE   GL235525  31.631  18.604  16.224 -0.0047 -0.0741 -0.2532
 3028DOPE   C1A35526  31.198  18.814  15.765 -0.0203 -0.3230 -0.0446
 3028DOPE   D2A35527  30.939  18.612  15.454 -0.0618 -0.2377  0.2113
 3028DOPE   C3A35528  30.741  18.787  15.090  0.1412  0.0584  0.0696
 3028DOPE   C4A35529  30.576  18.981  14.691 -0.3061 -0.0563  0.1440
 3028DOPE   C1B35530  31.456  18.400  15.800  0.2599 -0.3288  0.4310
 3028DOPE   D2B35531  31.346  18.128  15.428 -0.1691 -0.0856 -0.0284
 3028DOPE   C3B35532  31.101  18.314  15.105  0.2935 -0.2173  0.0481
 3028DOPE   C4B35533  30.857  18.299  14.716  0.0513  0.1706  0.0873
 3029DOPE   NH335534  24.941  12.648  15.784 -0.0493 -0.2385  0.0961
 3029DOPE   PO435535  24.737  12.491  15.965  0.0399 -0.1224  0.0966
 3029DOPE   GL135536  24.547  12.528  15.602  0.0181  0.2467 -0.0719
 3029DOPE   GL235537  24.635  12.630  15.326  0.0987  0.1373 -0.0998
 3029DOPE   C1A35538  24.202  12.256  15.348 -0.1539 -0.0323 -0.0409
 3029DOPE   D2A35539  24.009  11.841  15.486  0.0488  0.2499  0.2626
 3029DOPE   C3A35540  23.981  11.393  15.266  0.0997 -0.1223  0.0752
 3029DOPE   C4A35541  23.913  11.266  14.819  0.0572 -0.0141 -0.0320
 3029DOPE   C1B35542  24.726  12.294  15.114 -0.0241  0.0349 -0.2984
 3029DOPE   D2B35543  25.111  12.118  14.992 -0.0332 -0.2366 -0.3341
 3029DOPE   C3B35544  25.295  12.242  14.597  0.3205 -0.3455  0.1775
 3029DOPE   C4B35545  25.508  12.287  14.164  0.1206 -0.0199  0.2796
 3030POSM   NC335546  33.146  13.537  16.446 -0.2111  0.1254  0.0348
 3030POSM   PO435547  33.297  13.896  16.586 -0.1077  0.0766 -0.1758
 3030POSM   AM135548  33.114  14.081  16.374 -0.2304  0.1266 -0.1158
 3030POSM   AM235549  32.998  13.950  16.151  0.3093  0.1991  0.0499
 3030POSM   T1A35550  33.190  14.404  16.005  0.3501  0.3156 -0.0264
 3030POSM   C2A35551  33.107  14.778  15.793 -0.3194 -0.0272  0.3503
 3030POSM   C3A35552  32.868  15.026  15.491  0.0320  0.2217 -0.1874
 3030POSM   C1B35553  32.902  14.064  15.883  0.0901 -0.4805 -0.0143
 3030POSM   D2B35554  32.848  14.387  15.576  0.1437  0.1491  0.2729
 3030POSM   C3B35555  32.837  14.264  15.101 -0.1237 -0.0475 -0.1504
 3030POSM   C4B35556  32.948  14.419  14.731  0.2223  0.1782  0.0601
 3031DOPE   NH335557  31.593  20.380  15.777  0.0091  0.3649 -0.3094
 3031DOPE   PO435558  31.912  20.408  15.879  0.2971  0.0843  0.3415
 3031DOPE   GL135559  31.919  20.099  15.645 -0.1419  0.1657  0.0949
 3031DOPE   GL235560  32.000  20.137  15.399  0.2346 -0.0758  0.1047
 3031DOPE   C1A35561  31.696  19.657  15.648  0.0611  0.0590  0.3905
 3031DOPE   D2A35562  31.354  19.481  15.397 -0.0716 -0.0695 -0.0753
 3031DOPE   C3A35563  30.978  19.181  15.442 -0.0316  0.2535 -0.1119
 3031DOPE   C4A35564  30.772  19.061  15.833  0.2841 -0.0467  0.1984
 3031DOPE   C1B35565  32.090  20.110  14.934 -0.1457  0.1964 -0.0381
 3031DOPE   D2B35566  32.216  20.100  14.522 -0.3187  0.2313  0.1322
 3031DOPE   C3B35567  32.320  20.398  14.156  0.3638  0.0791 -0.1154
 3031DOPE   C4B35568  32.496  20.753  13.923 -0.1880  0.0997 -0.2068
 3032DOPE   NH335569  32.807  22.065  16.422  0.1466  0.0206 -0.2998
 3032DOPE   PO435570  32.896  22.369  16.352  0.0052  0.0487 -0.0775
 3032DOPE   GL135571  32.748  22.538  16.039 -0.1142 -0.0346  0.1126
 3032DOPE   GL235572  32.930  22.632  15.814 -0.1576  0.1398  0.2850
 3032DOPE   C1A35573  32.436  22.751  15.737  0.0848  0.2133  0.3895
 3032DOPE   D2A35574  32.270  22.996  15.381 -0.5293  0.0924  0.1606
 3032DOPE   C3A35575  32.097  22.820  15.030 -0.4136  0.0294 -0.0618
 3032DOPE   C4A35576  32.111  22.574  14.636 -0.1749  0.0118  0.0586
 3032DOPE   C1B35577  33.143  22.614  15.430  0.2945  0.0254 -0.0233
 3032DOPE   D2B35578  33.289  22.769  15.037 -0.2194 -0.1162 -0.1718
 3032DOPE   C3B35579  33.060  22.917  14.656 -0.0304 -0.0784  0.1914
 3032DOPE   C4B35580  32.878  23.159  14.373  0.0106  0.3186  0.1592
 3033POSM   NC335581  31.353  15.557  17.186  0.1165  0.1439  0.4172
 3033POSM   PO435582  31.604  15.331  16.938 -0.0405 -0.1868 -0.0007
 3033POSM   AM135583  31.685  15.397  16.620  0.0921  0.2292 -0.0614
 3033POSM   AM235584  31.621  15.540  16.366  0.0999 -0.2908 -0.0858
 3033POSM   T1A35585  31.968  15.137  16.284 -0.0537  0.2198  0.2085
 3033POSM   C2A35586  32.037  15.139  15.825 -0.1635 -0.0929 -0.0319
 3033POSM   C3A35587  32.282  14.978  15.503  0.0439  0.1172 -0.0351
 3033POSM   C1B35588  31.655  15.407  16.043  0.0652 -0.2163 -0.0925
 3033POSM   D2B35589  31.653  15.523  15.591 -0.0167 -0.3358 -0.0753
 3033POSM   C3B35590  31.835  15.170  15.315  0.2886  0.0862 -0.1589
 3033POSM   C4B35591  31.754  14.819  14.988  0.0913 -0.0191 -0.0404
 3034DOPC   NC335592  26.361  18.938  16.299 -0.2184  0.0395 -0.0301
 3034DOPC   PO435593  26.698  19.177  16.246  0.2419 -0.0852 -0.1902
 3034DOPC   GL135594  26.463  19.343  15.957 -0.0580 -0.0221 -0.1586
 3034DOPC   GL235595  26.578  19.550  15.754 -0.2014  0.0090  0.2472
 3034DOPC   C1A35596  26.100  19.146  15.678 -0.3277  0.0114  0.2539
 3034DOPC   D2A35597  25.932  19.240  15.228  0.1236  0.1075 -0.2325
 3034DOPC   C3A35598  25.939  19.150  14.775 -0.3615 -0.0064 -0.0797
 3034DOPC   C4A35599  25.760  19.191  14.350  0.2409 -0.1371  0.1916
 3034DOPC   C1B35600  26.407  19.457  15.329  0.0729  0.2207  0.1482
 3034DOPC   D2B35601  26.402  19.508  14.904 -0.1874 -0.1402  0.2095
 3034DOPC   C3B35602  26.505  19.810  14.626  0.0457  0.0834  0.0289
 3034DOPC   C4B35603  26.330  20.128  14.317 -0.0299  0.1679  0.1484
 3035DOPE   NH335604  24.885  13.482  15.439 -0.0299  0.1564  0.1249
 3035DOPE   PO435605  25.083  13.739  15.431  0.1796 -0.1589 -0.2651
 3035DOPE   GL135606  25.085  13.635  14.990 -0.2780 -0.4627  0.2656
 3035DOPE   GL235607  25.056  13.910  14.903  0.2751  0.1470 -0.0919
 3035DOPE   C1A35608  25.081  13.543  14.497 -0.2143 -0.0381 -0.0722
 3035DOPE   D2A35609  25.181  13.807  14.111 -0.2880  0.1234  0.1665
 3035DOPE   C3A35610  24.923  13.927  13.791 -0.1141 -0.1808 -0.2381
 3035DOPE   C4A35611  24.485  14.154  13.796 -0.1081  0.2341  0.4415
 3035DOPE   C1B35612  25.354  14.161  14.651 -0.1453  0.0754 -0.1243
 3035DOPE   D2B35613  25.534  14.545  14.501  0.2849  0.1992 -0.2109
 3035DOPE   C3B35614  25.643  14.621  14.021 -0.1433 -0.0046  0.1488
 3035DOPE   C4B35615  26.049  14.517  13.753 -0.0090  0.1693 -0.2874
 3036DOPC   NC335616  34.207  17.564  15.848 -0.4416 -0.1097 -0.1544
 3036DOPC   PO435617  33.836  17.479  15.977 -0.0173  0.1541 -0.2696
 3036DOPC   GL135618  33.624  17.502  15.557  0.0045  0.2585 -0.0285
 3036DOPC   GL235619  33.855  17.417  15.457 -0.1559  0.2059  0.0610
 3036DOPC   C1A35620  33.446  17.536  15.136  0.2946 -0.2629  0.2093
 3036DOPC   D2A35621  33.337  17.315  14.748  0.2125 -0.1080 -0.1164
 3036DOPC   C3A35622  33.645  17.348  14.419  0.2514  0.1534 -0.0405
 3036DOPC   C4A35623  34.115  17.307  14.271  0.1628  0.1468 -0.1701
 3036DOPC   C1B35624  33.776  17.161  15.055 -0.2359 -0.1797 -0.1323
 3036DOPC   D2B35625  33.871  16.969  14.617  0.0277  0.2120  0.0780
 3036DOPC   C3B35626  33.502  16.793  14.382  0.1956 -0.0662  0.2812
 3036DOPC   C4B35627  33.327  16.550  14.105 -0.0506  0.1074  0.0705
 3037POSM   NC335628  24.473  11.782  16.326 -0.3312  0.0937  0.0935
 3037POSM   PO435629  24.246  11.622  16.030 -0.0351 -0.1362 -0.0051
 3037POSM   AM135630  24.413  11.629  15.734 -0.1793 -0.0819  0.1107
 3037POSM   AM235631  24.660  11.589  15.704 -0.3751  0.0441  0.0210
 3037POSM   T1A35632  24.512  11.835  15.303 -0.0526  0.0499  0.3318
 3037POSM   C2A35633  24.654  11.896  14.858  0.1387  0.0122  0.0089
 3037POSM   C3A35634  24.807  11.830  14.369  0.1998  0.1335  0.1432
 3037POSM   C1B35635  24.704  11.311  15.524  0.1909  0.0012  0.0400
 3037POSM   D2B35636  24.929  11.033  15.172 -0.2290  0.4626 -0.1933
 3037POSM   C3B35637  25.244  11.038  14.858  0.2823  0.0663  0.4101
 3037POSM   C4B35638  25.463  10.840  14.518 -0.3133 -0.0892 -0.1996
 3038DOPE   NH335639  32.184  13.499  16.749  0.0573 -0.0799  0.4467
 3038DOPE   PO435640  32.327  13.712  16.577  0.0155 -0.0917  0.1733
 3038DOPE   GL135641  32.271  13.964  16.321  0.0447 -0.5120  0.3215
 3038DOPE   GL235642  32.509  14.117  16.169  0.0732 -0.0633 -0.3519
 3038DOPE   C1A35643  31.967  14.226  16.157 -0.0378 -0.0440  0.1322
 3038DOPE   D2A35644  31.637  14.290  15.880 -0.1525  0.0157 -0.0671
 3038DOPE   C3A35645  31.563  14.116  15.422 -0.0063  0.1905  0.1892
 3038DOPE   C4A35646  31.850  14.099  15.044 -0.1913  0.0742 -0.2234
 3038DOPE   C1B35647  32.381  14.394  15.800  0.2260 -0.0910 -0.1443
 3038DOPE   D2B35648  31.961  14.628  15.712  0.3287 -0.0106 -0.0397
 3038DOPE   C3B35649  31.573  14.614  15.456  0.2025 -0.0989 -0.0859
 3038DOPE   C4B35650  31.323  14.910  15.219 -0.0558 -0.2059  0.2099
 3039DOPE   NH335651  33.694  16.029  16.563  0.3141 -0.1536 -0.3350
 3039DOPE   PO435652  33.409  15.876  16.494 -0.2410  0.1248  0.1585
 3039DOPE   GL135653  33.145  16.016  16.223  0.2211 -0.0270 -0.2668
 3039DOPE   GL235654  33.239  15.752  16.023  0.1229  0.2391 -0.3611
 3039DOPE   C1A35655  33.143  16.284  15.839  0.0824  0.0837 -0.0888
 3039DOPE   D2A35656  33.523  16.412  15.585 -0.0110  0.1114  0.1158
 3039DOPE   C3A35657  33.680  16.106  15.284  0.5595 -0.1256 -0.1393
 3039DOPE   C4A35658  33.852  16.014  14.860 -0.1796  0.0734 -0.0014
 3039DOPE   C1B35659  33.513  15.813  15.631  0.0998 -0.1116  0.0142
 3039DOPE   D2B35660  33.665  15.571  15.257 -0.1006  0.3332  0.0812
 3039DOPE   C3B35661  33.298  15.607  14.960 -0.1182 -0.0759  0.2724
 3039DOPE   C4B35662  33.159  15.260  14.648  0.1940  0.0890  0.3108
 3040POSM   NC335663  27.297  12.731  16.088 -0.0424 -0.1456 -0.1187
 3040POSM   PO435664  27.208  12.407  15.853  0.0369 -0.1477  0.1154
 3040POSM   AM135665  27.424  12.533  15.618  0.0440  0.0035 -0.1345
 3040POSM   AM235666  27.676  12.428  15.603 -0.0267  0.0247  0.2373
 3040POSM   T1A35667  27.665  12.842  15.280 -0.2878 -0.0002 -0.1721
 3040POSM   C2A35668  27.564  13.008  14.889 -0.1845  0.2617  0.0623
 3040POSM   C3A35669  27.276  13.308  14.747  0.0768  0.0776  0.0080
 3040POSM   C1B35670  27.713  12.348  15.257 -0.0696  0.1382 -0.3839
 3040POSM   D2B35671  27.755  12.153  14.892 -0.0164  0.0393 -0.1799
 3040POSM   C3B35672  27.664  12.279  14.454 -0.0776  0.1907 -0.2550
 3040POSM   C4B35673  27.505  12.307  13.980 -0.0194  0.0115 -0.2213
 3041DOPS   CNO35674  31.151  12.923  16.618 -0.1862  0.2084  0.0518
 3041DOPS   PO435675  31.441  13.042  16.366  0.0153  0.2512 -0.0108
 3041DOPS   GL135676  31.410  12.811  16.092  0.4176  0.0162  0.2791
 3041DOPS   GL235677  31.116  12.855  15.974 -0.0573 -0.1467 -0.1299
 3041DOPS   C1A35678  31.504  12.774  15.629 -0.1131  0.0954  0.0208
 3041DOPS   D2A35679  31.388  12.819  15.220 -0.2831 -0.0668  0.1614
 3041DOPS   C3A35680  31.275  12.592  14.890 -0.2181 -0.0199 -0.0194
 3041DOPS   C4A35681  31.094  12.331  14.515  0.1632  0.1591  0.0219
 3041DOPS   C1B35682  30.941  12.856  15.568 -0.0860 -0.0532 -0.0668
 3041DOPS   D2B35683  30.913  12.912  15.088 -0.1273 -0.1045 -0.4172
 3041DOPS   C3B35684  30.974  13.190  14.684  0.1529 -0.2471  0.0173
 3041DOPS   C4B35685  30.608  13.415  14.393  0.0318  0.1854 -0.0984
 3042DOPC   NC335686  26.861  22.951  15.882  0.1177  0.1130  0.3124
 3042DOPC   PO435687  26.585  22.653  15.834 -0.0707 -0.0797 -0.0164
 3042DOPC   GL135688  26.748  22.531  15.433  0.0192 -0.2802  0.0550
 3042DOPC   GL235689  26.811  22.784  15.226  0.2264  0.0065 -0.2607
 3042DOPC   C1A35690  26.625  22.277  15.021  0.0862  0.1036  0.1822
 3042DOPC   D2A35691  26.844  22.318  14.626  0.1728  0.0873  0.1616
 3042DOPC   C3A35692  26.600  22.587  14.312 -0.0888  0.1391  0.3556
 3042DOPC   C4A35693  26.460  22.417  13.933  0.2513 -0.4124  0.2852
 3042DOPC   C1B35694  26.478  22.803  14.911 -0.0191  0.2830  0.1020
 3042DOPC   D2B35695  26.199  22.655  14.580  0.1432  0.1160  0.2400
 3042DOPC   C3B35696  26.140  22.969  14.267  0.1222 -0.1886  0.1108
 3042DOPC   C4B35697  26.193  23.177  13.834  0.0003  0.0665 -0.3359
 3043POSM   NC335698  28.774  18.317  16.839 -0.2523  0.0170  0.1106
 3043POSM   PO435699  29.144  18.183  16.858  0.3401  0.0567  0.1983
 3043POSM   AM135700  29.144  18.124  16.533  0.1233  0.5765 -0.2560
 3043POSM   AM235701  28.968  18.229  16.366 -0.0342 -0.2105  0.3247
 3043POSM   T1A35702  29.306  17.880  16.099 -0.2831 -0.1766  0.1382
 3043POSM   C2A35703  29.543  17.556  15.911 -0.0249  0.1082 -0.0204
 3043POSM   C3A35704  29.404  17.170  15.693 -0.2857  0.1180  0.1799
 3043POSM   C1B35705  28.859  18.056  16.140  0.0681  0.1172 -0.0897
 3043POSM   D2B35706  28.572  17.849  15.843 -0.0050 -0.3148 -0.4551
 3043POSM   C3B35707  28.647  17.910  15.414  0.1913 -0.1305  0.1182
 3043POSM   C4B35708  28.756  17.801  15.009 -0.0355 -0.1296  0.1357
 3044DOPE   NH335709  29.797  13.010  16.100 -0.1475 -0.3912  0.3235
 3044DOPE   PO435710  29.955  13.021  16.376  0.1957  0.0581  0.2618
 3044DOPE   GL135711  30.225  13.193  16.120 -0.0666 -0.3806  0.4109
 3044DOPE   GL235712  30.081  13.387  15.927  0.2782 -0.0790 -0.0747
 3044DOPE   C1A35713  30.647  13.100  15.891  0.3144  0.3406  0.3498
 3044DOPE   D2A35714  30.914  13.334  15.544 -0.1251  0.0271  0.0859
 3044DOPE   C3A35715  30.889  13.608  15.220 -0.1952 -0.1345  0.2649
 3044DOPE   C4A35716  30.698  13.744  14.832 -0.0671  0.0141  0.2634
 3044DOPE   C1B35717  29.634  13.575  15.933 -0.0057 -0.2702  0.0459
 3044DOPE   D2B35718  29.234  13.597  15.621 -0.1751 -0.1368 -0.0482
 3044DOPE   C3B35719  29.350  13.661  15.219 -0.1709  0.1016 -0.0826
 3044DOPE   C4B35720  29.522  13.887  14.830 -0.2972 -0.0053  0.2531
 3045DOPS   CNO35721  29.028  11.386  16.053 -0.3216  0.0226  0.1810
 3045DOPS   PO435722  28.736  11.521  15.811 -0.0940  0.2529  0.2758
 3045DOPS   GL135723  28.741  11.730  15.393  0.0526  0.1638  0.0088
 3045DOPS   GL235724  28.505  11.881  15.444  0.0036  0.0263  0.0069
 3045DOPS   C1A35725  28.824  11.906  14.950 -0.2028  0.2844  0.1284
 3045DOPS   D2A35726  29.172  11.860  14.626  0.3460 -0.0053  0.0632
 3045DOPS   C3A35727  29.229  12.255  14.260 -0.1042 -0.1873  0.0523
 3045DOPS   C4A35728  29.236  12.306  13.834 -0.0054 -0.3923  0.3376
 3045DOPS   C1B35729  28.391  12.170  15.044  0.1124  0.2106 -0.1358
 3045DOPS   D2B35730  28.409  12.555  14.833  0.0307 -0.0594  0.4166
 3045DOPS   C3B35731  28.637  12.624  14.423 -0.0417  0.0542 -0.1190
 3045DOPS   C4B35732  28.608  12.792  13.976 -0.0973 -0.1474 -0.1499
 3046DOPS   CNO35733  29.383  21.893  16.682 -0.1240 -0.0709  0.0422
 3046DOPS   PO435734  29.108  21.880  16.414  0.2723  0.1325 -0.0415
 3046DOPS   GL135735  29.132  21.924  16.023  0.1203 -0.3061  0.1510
 3046DOPS   GL235736  29.375  21.951  15.888  0.1800 -0.1767 -0.1859
 3046DOPS   C1A35737  28.867  21.928  15.660 -0.0424 -0.0334 -0.2304
 3046DOPS   D2A35738  28.751  21.962  15.210 -0.0357  0.2106  0.0156
 3046DOPS   C3A35739  28.539  21.907  14.776  0.3727 -0.2039  0.2288
 3046DOPS   C4A35740  28.349  22.150  14.381  0.2934  0.1995  0.2672
 3046DOPS   C1B35741  29.197  21.533  15.771 -0.0331  0.0931 -0.3030
 3046DOPS   D2B35742  29.253  21.079  15.572 -0.0048  0.1447  0.0761
 3046DOPS   C3B35743  29.359  20.971  15.134 -0.0640  0.1903 -0.2682
 3046DOPS   C4B35744  29.665  21.008  14.841  0.1163  0.0519  0.4589
 3047DOPE   NH335745  33.940  11.605  15.981 -0.0534  0.0777 -0.1639
 3047DOPE   PO435746  34.102  11.347  15.877 -0.3203 -0.2982  0.0544
 3047DOPE   GL135747  33.951  11.529  15.534  0.0314  0.0988 -0.2463
 3047DOPE   GL235748  33.824  11.272  15.391 -0.2817  0.2019  0.0095
 3047DOPE   C1A35749  34.311  11.666  15.234 -0.0094 -0.2218  0.1063
 3047DOPE   D2A35750  34.563  12.052  15.147 -0.4455  0.0243  0.0693
 3047DOPE   C3A35751  34.742  12.338  14.842  0.3654  0.0720  0.1677
 3047DOPE   C4A35752  34.493  12.682  14.652  0.0701  0.0147 -0.1134
 3047DOPE   C1B35753  34.179  11.221  15.073 -0.0009 -0.0503  0.0879
 3047DOPE   D2B35754  34.240  11.110  14.670  0.0423 -0.2926  0.1728
 3047DOPE   C3B35755  34.271  11.496  14.340  0.1230  0.0655  0.0768
 3047DOPE   C4B35756  34.204  11.895  14.138  0.1784 -0.1955 -0.0326
 3048DOPC   NC335757  30.194  13.853  16.101 -0.0888  0.3778  0.0195
 3048DOPC   PO435758  29.979  13.890  16.439  0.4741 -0.1977  0.0861
 3048DOPC   GL135759  29.804  14.133  16.196  0.1434 -0.3812  0.1054
 3048DOPC   GL235760  29.542  14.035  16.143 -0.3232 -0.0726 -0.0583
 3048DOPC   C1A35761  29.776  14.294  15.765  0.0015  0.1701  0.0925
 3048DOPC   D2A35762  29.812  14.413  15.356  0.0849  0.3153  0.0068
 3048DOPC   C3A35763  29.807  13.913  15.317 -0.2086  0.1938  0.1469
 3048DOPC   C4A35764  29.898  13.492  15.511 -0.3345 -0.1143  0.1679
 3048DOPC   C1B35765  29.274  14.071  15.847  0.0519 -0.1225 -0.1089
 3048DOPC   D2B35766  29.315  14.194  15.412  0.3272 -0.0172  0.2825
 3048DOPC   C3B35767  29.089  14.082  14.995  0.1545  0.3360 -0.3478
 3048DOPC   C4B35768  28.886  13.843  14.748  0.1064 -0.0969  0.0379
 3049DOPS   CNO35769  34.207  18.236  16.508 -0.0780  0.2710 -0.1533
 3049DOPS   PO435770  34.013  18.514  16.366 -0.1514  0.0486  0.0999
 3049DOPS   GL135771  34.233  18.479  15.978 -0.0867  0.2478  0.2320
 3049DOPS   GL235772  33.950  18.577  15.797  0.2961 -0.3923  0.1735
 3049DOPS   C1A35773  34.200  18.162  15.630 -0.0994 -0.2122 -0.0144
 3049DOPS   D2A35774  34.352  18.202  15.200 -0.0509  0.4638  0.0576
 3049DOPS   C3A35775  34.194  18.156  14.747  0.1156  0.1155 -0.0974
 3049DOPS   C4A35776  34.120  18.313  14.310 -0.0017 -0.1947  0.0180
 3049DOPS   C1B35777  34.249  18.685  15.518 -0.0229 -0.0841  0.0172
 3049DOPS   D2B35778  34.428  18.663  15.099  0.1860 -0.2564 -0.1333
 3049DOPS   C3B35779  34.101  18.742  14.790  0.0083  0.1515 -0.2221
 3049DOPS   C4B35780  34.032  18.802  14.322  0.1956  0.0975 -0.1745
 3050DOPE   NH335781  26.565  22.162  15.674 -0.0199 -0.0997 -0.0610
 3050DOPE   PO435782  26.724  21.878  15.508  0.0836  0.2347 -0.0646
 3050DOPE   GL135783  26.945  21.661  15.346  0.1391 -0.0397 -0.2087
 3050DOPE   GL235784  26.998  21.351  15.466 -0.0073 -0.4253  0.3034
 3050DOPE   C1A35785  27.047  21.733  14.881 -0.1929 -0.1537  0.1237
 3050DOPE   D2A35786  26.960  21.903  14.459 -0.1266  0.1762  0.1321
 3050DOPE   C3A35787  27.282  21.933  14.176  0.0655  0.0375 -0.1960
 3050DOPE   C4A35788  27.394  21.704  13.794 -0.2316 -0.1000  0.1950
 3050DOPE   C1B35789  26.913  20.984  15.264 -0.0239  0.1345  0.0467
 3050DOPE   D2B35790  26.830  20.609  15.023  0.1114  0.2511  0.2543
 3050DOPE   C3B35791  26.525  20.376  14.722  0.0087  0.2176 -0.0047
 3050DOPE   C4B35792  26.085  20.177  14.776 -0.0257 -0.2777  0.1642
 3051DOPE   NH335793  30.922  19.680  16.214  0.0425 -0.0177  0.2847
 3051DOPE   PO435794  31.224  19.723  16.102  0.0193 -0.4364 -0.0740
 3051DOPE   GL135795  31.388  19.977  15.790 -0.0826  0.3709  0.2956
 3051DOPE   GL235796  31.134  19.863  15.646 -0.2303 -0.0637  0.0332
 3051DOPE   C1A35797  31.540  20.043  15.387 -0.1685 -0.0907  0.1511
 3051DOPE   D2A35798  31.764  19.740  15.104  0.0177  0.1942 -0.1261
 3051DOPE   C3A35799  31.827  19.297  15.266 -0.0276 -0.1165  0.0531
 3051DOPE   C4A35800  32.062  18.905  15.229 -0.0599 -0.2877 -0.0842
 3051DOPE   C1B35801  30.840  19.633  15.269 -0.1349 -0.2260 -0.1859
 3051DOPE   D2B35802  30.778  19.605  14.763 -0.1883 -0.2831  0.1285
 3051DOPE   C3B35803  30.958  19.734  14.357 -0.2963 -0.0686 -0.2624
 3051DOPE   C4B35804  31.142  19.721  13.936 -0.0945 -0.0736 -0.4235
 3052DOPE   NH335805  30.055  16.018  16.630  0.0618  0.0707  0.0571
 3052DOPE   PO435806  30.074  16.298  16.804 -0.0357 -0.0048  0.0831
 3052DOPE   GL135807  30.059  16.440  16.349  0.4628 -0.3658  0.2199
 3052DOPE   GL235808  30.059  16.302  16.125  0.1237  0.0328  0.2223
 3052DOPE   C1A35809  30.265  16.707  16.022 -0.0448  0.3016 -0.0294
 3052DOPE   D2A35810  30.211  16.826  15.593 -0.0039 -0.0993 -0.0202
 3052DOPE   C3A35811  30.192  16.433  15.322  0.1820 -0.0226  0.0938
 3052DOPE   C4A35812  30.464  16.059  15.319 -0.0552  0.0367  0.2275
 3052DOPE   C1B35813  29.922  16.383  15.709  0.0299 -0.0801 -0.0859
 3052DOPE   D2B35814  29.587  16.256  15.378 -0.0043 -0.0156  0.1127
 3052DOPE   C3B35815  29.618  16.422  14.984 -0.2836 -0.2009 -0.0659
 3052DOPE   C4B35816  29.987  16.414  14.742  0.0867  0.0841 -0.1719
 3053DOPC   NC335817  34.029  22.665  16.478  0.0849  0.0311  0.0672
 3053DOPC   PO435818  34.100  22.326  16.339  0.1705 -0.0783 -0.0398
 3053DOPC   GL135819  34.080  22.290  15.964 -0.0090  0.4199 -0.0378
 3053DOPC   GL235820  33.805  22.133  15.979  0.1155  0.2000  0.0538
 3053DOPC   C1A35821  34.483  22.248  15.710 -0.0421  0.0285 -0.1751
 3053DOPC   D2A35822  34.791  22.522  15.577 -0.1249 -0.1468  0.1725
 3053DOPC   C3A35823  34.838  22.646  15.113 -0.2376  0.2036  0.1211
 3053DOPC   C4A35824  34.612  22.691  14.664  0.1805  0.3484 -0.0887
 3053DOPC   C1B35825  33.974  22.144  15.548 -0.0614  0.1109  0.2830
 3053DOPC   D2B35826  34.183  22.053  15.151 -0.1391 -0.0893 -0.1110
 3053DOPC   C3B35827  33.879  21.977  14.839 -0.4991  0.0593 -0.2665
 3053DOPC   C4B35828  33.770  22.152  14.442  0.1542  0.2588  0.1048
 3054POSM   NC335829  25.378  18.234  15.520  0.1512  0.1639  0.0088
 3054POSM   PO435830  25.176  17.884  15.655 -0.1551 -0.1275 -0.1498
 3054POSM   AM135831  25.210  17.827  15.339  0.0031  0.0125  0.3358
 3054POSM   AM235832  25.068  17.751  15.140 -0.1616  0.1705  0.0513
 3054POSM   T1A35833  25.551  17.780  15.025  0.2468 -0.0590 -0.2592
 3054POSM   C2A35834  25.865  17.592  14.849  0.4089 -0.0473  0.1909
 3054POSM   C3A35835  25.740  17.117  14.763 -0.1835 -0.0005  0.0182
 3054POSM   C1B35836  24.998  17.597  14.870  0.0246  0.0318 -0.0525
 3054POSM   D2B35837  24.797  17.232  14.710 -0.2367  0.3261 -0.0772
 3054POSM   C3B35838  24.873  16.826  14.888 -0.3339  0.1586 -0.0594
 3054POSM   C4B35839  24.867  16.335  14.753  0.0872 -0.0964 -0.1331
 3055POSM   NC335840  23.500  21.572  15.015  0.2484  0.1093 -0.0187
 3055POSM   PO435841  23.435  21.224  14.839  0.2639  0.3333 -0.1100
 3055POSM   AM135842  23.406  21.134  14.500  0.0758 -0.3180  0.1945
 3055POSM   AM235843  23.243  20.883  14.452  0.0293 -0.1173  0.0683
 3055POSM   T1A35844  23.175  21.267  14.036 -0.0870 -0.3853  0.2832
 3055POSM   C2A35845  22.921  21.445  13.747  0.1317  0.1634 -0.1090
 3055POSM   C3A35846  22.628  21.350  13.371 -0.0784  0.0557 -0.1708
 3055POSM   C1B35847  23.290  20.804  14.092  0.0298  0.1586 -0.1049
 3055POSM   D2B35848  23.260  20.650  13.624  0.0178  0.1462 -0.2331
 3055POSM   C3B35849  23.514  20.929  13.399 -0.5104 -0.2150  0.0246
 3055POSM   C4B35850  23.435  21.193  13.019  0.1484 -0.1486 -0.1336
 3056DOPC   NC335851  29.302  15.621  15.986 -0.2661  0.1412 -0.0669
 3056DOPC   PO435852  28.933  15.591  15.868 -0.2287 -0.2605 -0.1183
 3056DOPC   GL135853  28.720  15.650  15.547 -0.0795 -0.5349  0.0565
 3056DOPC   GL235854  28.425  15.834  15.450 -0.0705 -0.1928 -0.1784
 3056DOPC   C1A35855  28.693  15.517  15.123  0.0551  0.3833  0.0805
 3056DOPC   D2A35856  28.414  15.237  14.838  0.2674 -0.1813 -0.1019
 3056DOPC   C3A35857  28.175  15.530  14.521  0.1003  0.2222 -0.2436
 3056DOPC   C4A35858  27.979  15.941  14.507  0.1778  0.3808 -0.1340
 3056DOPC   C1B35859  28.886  16.077  15.309 -0.0407  0.1427  0.3003
 3056DOPC   D2B35860  29.169  16.320  15.069  0.0358 -0.2676 -0.1997
 3056DOPC   C3B35861  29.136  16.657  14.711  0.0796  0.2002  0.3413
 3056DOPC   C4B35862  29.091  16.856  14.279 -0.1625  0.0575  0.0972
 3057DOPC   NC335863  30.838  16.062  16.369  0.0734 -0.3007  0.0254
 3057DOPC   PO435864  30.508  16.235  16.540 -0.1354  0.1634  0.1230
 3057DOPC   GL135865  30.530  16.477  16.280  0.4040  0.3296 -0.2627
 3057DOPC   GL235866  30.532  16.299  15.971  0.1976 -0.1508  0.0763
 3057DOPC   C1A35867  30.758  16.817  16.104  0.0742 -0.0815 -0.1094
 3057DOPC   D2A35868  31.191  16.832  15.996 -0.2052 -0.1906  0.2121
 3057DOPC   C3A35869  31.530  17.143  15.944 -0.1296  0.0767 -0.0952
 3057DOPC   C4A35870  31.843  17.520  16.062 -0.0804  0.0512 -0.1560
 3057DOPC   C1B35871  30.720  16.532  15.661  0.3326  0.0109  0.1716
 3057DOPC   D2B35872  30.865  16.920  15.551 -0.0949  0.3181 -0.2298
 3057DOPC   C3B35873  30.856  16.994  15.088 -0.3724 -0.3695 -0.0561
 3057DOPC   C4B35874  31.075  17.258  14.747  0.0459 -0.1507  0.0164
 3058DOPS   CNO35875  23.899  20.165  15.517  0.2321 -0.0289 -0.0001
 3058DOPS   PO435876  23.740  19.987  15.220  0.1206  0.1584 -0.0680
 3058DOPS   GL135877  23.980  19.797  14.898  0.2282  0.2948  0.1510
 3058DOPS   GL235878  24.162  19.574  14.994  0.0278 -0.0915  0.0416
 3058DOPS   C1A35879  24.262  20.027  14.615  0.2543 -0.0332  0.1179
 3058DOPS   D2A35880  24.618  20.135  14.373  0.0108  0.2435 -0.0483
 3058DOPS   C3A35881  24.868  20.016  14.040  0.2256 -0.1075 -0.1129
 3058DOPS   C4A35882  24.737  20.126  13.609 -0.0292 -0.3483 -0.1453
 3058DOPS   C1B35883  24.209  19.502  14.558 -0.3338  0.1023  0.3136
 3058DOPS   D2B35884  24.159  19.592  14.117 -0.1806 -0.1385  0.0749
 3058DOPS   C3B35885  24.595  19.575  13.888  0.0909 -0.1454  0.0304
 3058DOPS   C4B35886  24.902  19.369  13.665 -0.1043 -0.0326  0.0604
 3059DOPE   NH335887  31.674  12.623  16.465  0.1226 -0.0784 -0.2504
 3059DOPE   PO435888  31.388  12.496  16.443 -0.1481 -0.1704  0.0291
 3059DOPE   GL135889  31.236  12.355  16.267 -0.1682 -0.1570 -0.3314
 3059DOPE   GL235890  30.936  12.478  16.318  0.2182 -0.2882 -0.2434
 3059DOPE   C1A35891  31.094  12.215  15.795  0.0191 -0.0085 -0.2819
 3059DOPE   D2A35892  30.990  12.436  15.356 -0.0341 -0.1160  0.0284
 3059DOPE   C3A35893  30.687  12.454  14.940 -0.0482  0.0227 -0.2158
 3059DOPE   C4A35894  30.649  12.103  14.601  0.1273  0.2283 -0.1417
 3059DOPE   C1B35895  30.626  12.587  15.971 -0.1042  0.0336 -0.3737
 3059DOPE   D2B35896  30.361  12.720  15.629 -0.0429  0.2345  0.0107
 3059DOPE   C3B35897  30.331  12.832  15.162 -0.0976 -0.0814 -0.1575
 3059DOPE   C4B35898  30.462  12.982  14.743  0.0538  0.1941  0.0398
 3060DOPS   CNO35899  32.453  17.276  16.699 -0.3144 -0.1459 -0.1620
 3060DOPS   PO435900  32.373  17.615  16.844  0.0593 -0.0631  0.0091
 3060DOPS   GL135901  32.468  17.643  16.389 -0.0543  0.1836  0.0887
 3060DOPS   GL235902  32.263  17.547  16.295  0.1973  0.1054 -0.0579
 3060DOPS   C1A35903  32.843  17.850  16.113  0.1862  0.2505 -0.0644
 3060DOPS   D2A35904  33.126  18.154  15.827 -0.1450  0.0144 -0.1358
 3060DOPS   C3A35905  33.195  18.047  15.355 -0.1069 -0.0125  0.0166
 3060DOPS   C4A35906  33.324  18.042  14.899 -0.0676  0.0465  0.0931
 3060DOPS   C1B35907  32.113  17.097  16.143 -0.2269 -0.0037  0.4659
 3060DOPS   D2B35908  31.966  16.788  15.874 -0.1656 -0.0744  0.2730
 3060DOPS   C3B35909  32.104  16.364  15.656 -0.3303 -0.1182 -0.2331
 3060DOPS   C4B35910  32.277  16.023  15.524  0.1839  0.1018  0.1219
 3061DOPE   NH335911  34.091  13.608  12.259 -0.3378 -0.0700 -0.3810
 3061DOPE   PO435912  34.411  13.550  12.343  0.0646 -0.2059  0.0755
 3061DOPE   GL135913  34.605  13.205  12.533  0.0991  0.3051 -0.1526
 3061DOPE   GL235914  34.790  13.200  12.300 -0.1074 -0.1271 -0.3608
 3061DOPE   C1A35915  34.805  13.032  12.882 -0.0413  0.0222  0.0267
 3061DOPE   D2A35916  34.623  12.956  13.331  0.0428  0.0641  0.1134
 3061DOPE   C3A35917  34.199  12.682  13.398  0.1148 -0.4466 -0.2364
 3061DOPE   C4A35918  33.780  12.538  13.307 -0.1922  0.1106  0.0996
 3061DOPE   C1B35919  35.149  13.353  12.242 -0.1346  0.1327 -0.1199
 3061DOPE   D2B35920  35.474  13.502  12.570  0.1133  0.2832 -0.2069
 3061DOPE   C3B35921  35.644  13.420  12.978 -0.3870 -0.1180  0.3256
 3061DOPE   C4B35922  36.076  13.255  13.103  0.1657 -0.2299  0.1431
 3062DOPS   CNO35923  25.820  15.864  12.759  0.1432 -0.0486 -0.1192
 3062DOPS   PO435924  25.892  15.734  12.397 -0.1266  0.0644 -0.0268
 3062DOPS   GL135925  25.793  15.378  12.610  0.0209  0.2376  0.2854
 3062DOPS   GL235926  25.566  15.279  12.570 -0.1501  0.2482  0.1021
 3062DOPS   C1A35927  25.815  14.983  12.884 -0.2426  0.1598  0.2351
 3062DOPS   D2A35928  25.824  14.621  13.194  0.1476 -0.2694 -0.4276
 3062DOPS   C3A35929  25.564  14.319  13.199  0.0500  0.1357 -0.0145
 3062DOPS   C4A35930  25.220  14.023  13.311 -0.2408  0.0539  0.0904
 3062DOPS   C1B35931  25.355  14.948  12.760 -0.1092  0.2948 -0.0985
 3062DOPS   D2B35932  25.178  14.656  13.029  0.0136 -0.0865  0.0651
 3062DOPS   C3B35933  24.943  14.839  13.384 -0.0896 -0.2328 -0.2286
 3062DOPS   C4B35934  24.548  14.634  13.568  0.1694 -0.0644  0.1782
 3063DOPE   NH335935  31.629  13.913  13.154 -0.4293 -0.0746 -0.1524
 3063DOPE   PO435936  31.820  13.912  12.870  0.0397  0.0131 -0.6074
 3063DOPE   GL135937  31.880  13.513  13.124 -0.2243 -0.1742 -0.3827
 3063DOPE   GL235938  32.104  13.348  13.061 -0.0252 -0.0243  0.2431
 3063DOPE   C1A35939  32.016  13.403  13.545 -0.0222  0.0569 -0.0165
 3063DOPE   D2A35940  32.244  13.597  13.908 -0.0917  0.1129 -0.0444
 3063DOPE   C3A35941  32.374  14.059  13.863 -0.0619 -0.1609  0.3461
 3063DOPE   C4A35942  32.388  14.527  13.967  0.1060 -0.0059 -0.4262
 3063DOPE   C1B35943  32.585  13.478  12.979 -0.0546  0.0630 -0.0802
 3063DOPE   D2B35944  32.988  13.688  13.180 -0.6178  0.0137 -0.2458
 3063DOPE   C3B35945  33.227  13.611  13.557 -0.2752  0.0988  0.0083
 3063DOPE   C4B35946  33.054  13.615  14.038 -0.0447 -0.0413 -0.0646
 3064DOPE   NH335947  34.349  12.992  12.084 -0.0223  0.1220 -0.3978
 3064DOPE   PO435948  34.222  13.020  12.349  0.6249 -0.0059  0.1196
 3064DOPE   GL135949  33.921  13.184  12.624 -0.1871 -0.1477 -0.1139
 3064DOPE   GL235950  33.872  13.401  12.787  0.0373 -0.0783 -0.1133
 3064DOPE   C1A35951  33.480  13.112  12.628  0.1157  0.1067  0.1880
 3064DOPE   D2A35952  32.996  13.142  12.842  0.1257 -0.1006 -0.1143
 3064DOPE   C3A35953  32.855  13.146  13.280 -0.2995  0.0173  0.2869
 3064DOPE   C4A35954  33.093  13.172  13.746 -0.1686 -0.0574 -0.4927
 3064DOPE   C1B35955  33.974  13.491  13.188 -0.0983  0.2020 -0.1350
 3064DOPE   D2B35956  34.107  13.820  13.501 -0.1697  0.0111  0.1209
 3064DOPE   C3B35957  33.716  13.896  13.792  0.0888  0.2677 -0.2077
 3064DOPE   C4B35958  33.372  13.975  14.075  0.0300 -0.1385 -0.0543
 3065DOPC   NC335959  34.165  13.826  12.735 -0.0924 -0.1034 -0.0654
 3065DOPC   PO435960  33.807  13.889  12.546 -0.1561 -0.0636 -0.3231
 3065DOPC   GL135961  33.716  13.967  12.903 -0.1046 -0.1077 -0.1430
 3065DOPC   GL235962  33.954  14.066  13.093  0.2155 -0.1306  0.0772
 3065DOPC   C1A35963  33.484  13.660  13.127 -0.0459 -0.0205 -0.1051
 3065DOPC   D2A35964  33.349  13.224  13.274  0.3378  0.2855  0.1063
 3065DOPC   C3A35965  33.374  12.825  13.056 -0.1642 -0.0068  0.0174
 3065DOPC   C4A35966  33.173  12.598  12.727 -0.0180 -0.0641 -0.0702
 3065DOPC   C1B35967  33.515  14.120  13.304  0.2104  0.1561 -0.2113
 3065DOPC   D2B35968  33.192  14.316  13.525 -0.0339  0.1134 -0.3507
 3065DOPC   C3B35969  32.906  14.011  13.621  0.2605 -0.0738 -0.2435
 3065DOPC   C4B35970  32.730  13.583  13.628 -0.0817  0.1213  0.2664
 3066DOPC   NC335971  26.193  19.493  12.334  0.0408 -0.0330  0.1966
 3066DOPC   PO435972  26.022  19.162  12.362 -0.2105  0.0205  0.0562
 3066DOPC   GL135973  26.244  19.333  12.757 -0.2808  0.0223 -0.1049
 3066DOPC   GL235974  26.086  19.154  12.954  0.4772  0.0667  0.4026
 3066DOPC   C1A35975  26.210  19.776  12.859 -0.0953  0.2926 -0.5044
 3066DOPC   D2A35976  26.260  19.974  13.238  0.1048 -0.3005  0.0517
 3066DOPC   C3A35977  26.270  20.430  13.422  0.0465 -0.3744  0.1779
 3066DOPC   C4A35978  26.337  20.863  13.674 -0.0895 -0.0326  0.0120
 3066DOPC   C1B35979  25.896  19.556  13.133 -0.2031 -0.2468  0.1467
 3066DOPC   D2B35980  25.658  19.657  13.533  0.2220 -0.0010 -0.1678
 3066DOPC   C3B35981  25.278  19.640  13.830 -0.2442 -0.2566  0.1044
 3066DOPC   C4B35982  25.062  19.402  14.135 -0.1043 -0.1372  0.0568
 3067DOPE   NH335983  22.137  19.008  11.645  0.0772 -0.2440 -0.0558
 3067DOPE   PO435984  22.389  19.161  11.707  0.1211 -0.2541  0.1351
 3067DOPE   GL135985  22.783  19.141  11.893  0.2637 -0.4940 -0.1672
 3067DOPE   GL235986  23.110  19.252  11.860 -0.2083 -0.1827 -0.1945
 3067DOPE   C1A35987  22.844  19.338  12.329  0.2911  0.1283  0.1620
 3067DOPE   D2A35988  22.984  19.617  12.605  0.0539 -0.1511 -0.2509
 3067DOPE   C3A35989  23.300  19.993  12.631  0.0210  0.0032  0.2492
 3067DOPE   C4A35990  23.180  20.404  12.470  0.3024  0.1040 -0.0720
 3067DOPE   C1B35991  23.341  18.948  12.079  0.2104 -0.1999  0.1147
 3067DOPE   D2B35992  23.464  18.893  12.493 -0.1952 -0.0626 -0.0176
 3067DOPE   C3B35993  23.022  18.935  12.583 -0.0359 -0.2149 -0.0594
 3067DOPE   C4B35994  22.672  19.163  12.759 -0.0693 -0.1840 -0.4408
 3068DOPE   NH335995   0.065  21.851  12.823  0.1105  0.2458 -0.0351
 3068DOPE   PO435996   0.106  21.565  12.912 -0.0193 -0.0221  0.1766
 3068DOPE   GL135997   0.171  21.555  13.211  0.3189 -0.0374  0.1618
 3068DOPE   GL235998  -0.116  21.515  13.353 -0.2959 -0.1855  0.0225
 3068DOPE   C1A35999   0.400  21.379  13.589 -0.2115  0.0138 -0.2427
 3068DOPE   D2A36000   0.628  21.499  13.969  0.1059  0.0093  0.0214
 3068DOPE   C3A36001   0.273  21.406  14.263 -0.1521 -0.2382 -0.1941
 3068DOPE   C4A36002  -0.084  21.243  14.507 -0.0982  0.0947 -0.1498
 3068DOPE   C1B36003  -0.452  21.512  13.727 -0.1630  0.2228  0.1932
 3068DOPE   D2B36004  -0.709  21.358  14.055 -0.2032 -0.0230  0.2063
 3068DOPE   C3B36005  -0.531  21.080  14.357 -0.3621 -0.0329 -0.2251
 3068DOPE   C4B36006  -0.493  20.667  14.573 -0.2854 -0.2809  0.1307
 3069DOPE   NH336007  30.154  17.620  12.988  0.0437  0.1093 -0.1678
 3069DOPE   PO436008  30.032  17.348  13.148  0.1623 -0.0373 -0.0227
 3069DOPE   GL136009  29.761  17.330  13.395  0.1718  0.0387 -0.5289
 3069DOPE   GL236010  29.930  17.270  13.617 -0.2310  0.0293  0.1255
 3069DOPE   C1A36011  29.438  17.384  13.712  0.1396 -0.1507 -0.0279
 3069DOPE   D2A36012  29.324  17.166  14.067  0.1746 -0.2680  0.0194
 3069DOPE   C3A36013  29.472  17.314  14.495 -0.0812 -0.1464 -0.0414
 3069DOPE   C4A36014  29.900  17.474  14.568  0.0079 -0.1382  0.1554
 3069DOPE   C1B36015  30.260  17.038  13.700  0.2930  0.1364 -0.0836
 3069DOPE   D2B36016  30.388  16.623  13.929  0.1651  0.0860  0.2236
 3069DOPE   C3B36017  30.243  16.615  14.352 -0.4152 -0.4693 -0.0553
 3069DOPE   C4B36018  30.247  16.831  14.741  0.0326 -0.0111  0.0784
 3070POSM   NC336019  24.764  19.854  12.415  0.2578 -0.1434  0.1580
 3070POSM   PO436020  25.045  19.543  12.291  0.1261 -0.2174  0.2268
 3070POSM   AM136021  25.174  19.691  12.594  0.1449  0.1026 -0.0318
 3070POSM   AM236022  25.141  19.634  12.852 -0.2379  0.1183 -0.0800
 3070POSM   T1A36023  25.399  20.035  12.878 -0.0986 -0.0248  0.0781
 3070POSM   C2A36024  25.326  20.468  13.019  0.0980  0.0209  0.1301
 3070POSM   C3A36025  24.929  20.713  13.145  0.1658 -0.0731 -0.2276
 3070POSM   C1B36026  24.872  19.605  13.018 -0.1228 -0.2003  0.0883
 3070POSM   D2B36027  24.410  19.752  12.994  0.3053  0.1536 -0.1031
 3070POSM   C3B36028  24.168  19.869  12.691  0.1850  0.3290  0.2380
 3070POSM   C4B36029  24.090  20.087  12.262  0.0344 -0.4764 -0.1033
 3071DOPE   NH336030  27.294  18.585  12.521 -0.0144  0.2493 -0.1445
 3071DOPE   PO436031  27.613  18.745  12.585 -0.1404  0.0882  0.0986
 3071DOPE   GL136032  27.586  18.838  12.964  0.0881 -0.3972 -0.4189
 3071DOPE   GL236033  27.425  18.604  13.037 -0.0015  0.1965  0.3575
 3071DOPE   C1A36034  27.456  19.021  13.370 -0.1181  0.0726 -0.0315
 3071DOPE   D2A36035  27.360  18.915  13.800  0.1699  0.0402  0.0843
 3071DOPE   C3A36036  27.656  19.164  14.082  0.1956  0.0693 -0.2207
 3071DOPE   C4A36037  27.784  19.220  14.517 -0.2597  0.0125 -0.0120
 3071DOPE   C1B36038  27.685  18.592  13.438  0.0623 -0.2228  0.0758
 3071DOPE   D2B36039  27.860  18.617  13.868 -0.0501  0.1388 -0.0153
 3071DOPE   C3B36040  27.575  18.695  14.245 -0.0760 -0.2316 -0.3130
 3071DOPE   C4B36041  27.220  18.944  14.362  0.0573  0.2776 -0.1547
 3072POSM   NC336042  29.932  18.455  12.826 -0.0440 -0.0139 -0.1434
 3072POSM   PO436043  30.076  18.791  12.922 -0.5827 -0.2548  0.0595
 3072POSM   AM136044  30.263  18.998  13.110  0.0577  0.1925  0.0254
 3072POSM   AM236045  30.470  18.999  13.296  0.2344 -0.1968  0.1512
 3072POSM   T1A36046  30.368  19.473  13.169 -0.1026  0.2028  0.2315
 3072POSM   C2A36047  30.437  19.921  13.276 -0.0668  0.0500  0.1030
 3072POSM   C3A36048  30.201  20.344  13.200 -0.0559 -0.0702 -0.1949
 3072POSM   C1B36049  30.403  19.149  13.545  0.0305 -0.0245  0.1980
 3072POSM   D2B36050  30.343  19.102  13.980 -0.4312  0.0954  0.0275
 3072POSM   C3B36051  30.613  18.875  14.232  0.3969  0.2175 -0.2043
 3072POSM   C4B36052  31.009  18.700  14.426  0.0107  0.3110  0.2826
 3073POSM   NC336053  24.443  11.138  12.221 -0.1033 -0.3165  0.0701
 3073POSM   PO436054  24.386  10.743  12.195 -0.0117  0.1771 -0.0092
 3073POSM   AM136055  24.165  10.829  12.415  0.0515 -0.2193 -0.0335
 3073POSM   AM236056  23.911  10.826  12.528 -0.3277  0.0108 -0.1534
 3073POSM   T1A36057  24.001  11.298  12.496 -0.1070 -0.0242  0.1148
 3073POSM   C2A36058  23.935  11.658  12.651  0.0885 -0.0084  0.1200
 3073POSM   C3A36059  23.945  12.095  12.848 -0.2266 -0.4913  0.2648
 3073POSM   C1B36060  23.857  10.928  12.846  0.1258 -0.2273  0.0443
 3073POSM   D2B36061  23.938  11.219  13.172  0.1448 -0.1770  0.1529
 3073POSM   C3B36062  23.966  11.682  13.119  0.4776 -0.0091  0.0507
 3073POSM   C4B36063  23.869  12.085  13.352 -0.4269 -0.1380  0.2387
 3074DOPC   NC336064  33.826  20.618  12.678 -0.1013  0.1801 -0.2548
 3074DOPC   PO436065  34.007  20.770  12.325 -0.1207  0.0124 -0.0736
 3074DOPC   GL136066  33.809  21.122  12.351  0.0622 -0.1455 -0.4291
 3074DOPC   GL236067  33.637  21.072  12.604 -0.3242 -0.2513 -0.0008
 3074DOPC   C1A36068  33.883  21.491  12.658 -0.0637  0.0607  0.0364
 3074DOPC   D2A36069  34.217  21.774  12.836 -0.0837 -0.2166 -0.0739
 3074DOPC   C3A36070  34.039  21.845  13.291  0.1388  0.1700  0.2120
 3074DOPC   C4A36071  33.723  21.710  13.590 -0.2760 -0.0939  0.3007
 3074DOPC   C1B36072  33.542  21.277  12.982  0.2207  0.0882  0.1848
 3074DOPC   D2B36073  33.103  21.326  13.171 -0.1101 -0.0148  0.1023
 3074DOPC   C3B36074  32.785  21.067  12.841  0.3447  0.0172 -0.4646
 3074DOPC   C4B36075  32.558  20.898  12.447  0.0111 -0.0725 -0.0217
 3075DOPC   NC336076  31.230  22.810  12.626 -0.0463 -0.2708  0.0335
 3075DOPC   PO436077  31.181  22.660  12.273  0.1320 -0.0846 -0.3993
 3075DOPC   GL136078  31.059  22.383  12.538  0.0710 -0.0013 -0.1910
 3075DOPC   GL236079  31.089  22.378  12.854  0.1937  0.2998  0.0271
 3075DOPC   C1A36080  30.929  22.052  12.256  0.3002  0.2199 -0.3130
 3075DOPC   D2A36081  30.677  21.697  12.056  0.2842  0.0445  0.0189
 3075DOPC   C3A36082  30.533  21.303  12.324 -0.1247  0.0928  0.1604
 3075DOPC   C4A36083  30.623  21.085  12.692 -0.1261  0.3692  0.0045
 3075DOPC   C1B36084  31.090  21.949  12.994 -0.2939  0.1844 -0.1000
 3075DOPC   D2B36085  31.079  21.503  13.025  0.2088  0.1014 -0.1158
 3075DOPC   C3B36086  31.145  21.233  13.393 -0.1239  0.4379 -0.1357
 3075DOPC   C4B36087  31.210  20.966  13.769  0.1855  0.2748  0.4296
 3076DOPC   NC336088  26.908  15.777  12.922  0.2778 -0.1155 -0.1542
 3076DOPC   PO436089  26.812  15.957  12.589 -0.3455  0.1703  0.0940
 3076DOPC   GL136090  27.230  16.045  12.809  0.0225 -0.1925 -0.2181
 3076DOPC   GL236091  27.452  16.183  12.671 -0.0932  0.4712  0.4635
 3076DOPC   C1A36092  27.231  16.111  13.271 -0.0408 -0.0428 -0.1446
 3076DOPC   D2A36093  27.505  16.126  13.612 -0.1577 -0.0660  0.0087
 3076DOPC   C3A36094  27.322  16.427  13.943 -0.0736  0.0489  0.0150
 3076DOPC   C4A36095  27.296  16.856  14.190  0.0723  0.1981 -0.0077
 3076DOPC   C1B36096  27.878  16.061  12.599 -0.2332 -0.0961  0.4037
 3076DOPC   D2B36097  28.096  15.753  12.873 -0.1501 -0.3442  0.0534
 3076DOPC   C3B36098  28.184  15.734  13.323 -0.1883 -0.0083 -0.0325
 3076DOPC   C4B36099  28.280  15.921  13.714 -0.1864 -0.2748  0.0258
 3077DOPE   NH336100  31.063  12.701  12.870  0.0745  0.3321  0.0676
 3077DOPE   PO436101  31.083  12.510  12.588 -0.0500  0.1482 -0.0835
 3077DOPE   GL136102  30.716  12.339  12.607 -0.2887  0.0348 -0.1348
 3077DOPE   GL236103  30.535  12.499  12.479  0.0804  0.1535 -0.2706
 3077DOPE   C1A36104  30.522  12.086  12.915 -0.0014  0.2122  0.2564
 3077DOPE   D2A36105  30.166  11.904  13.108 -0.0428 -0.1226  0.0007
 3077DOPE   C3A36106  30.103  11.713  13.525 -0.0948  0.2317  0.1373
 3077DOPE   C4A36107  30.117  11.373  13.803  0.2056 -0.0083 -0.1108
 3077DOPE   C1B36108  30.168  12.803  12.536 -0.0538  0.1021  0.0942
 3077DOPE   D2B36109  29.812  12.788  12.855  0.1775  0.0226  0.1276
 3077DOPE   C3B36110  29.873  12.634  13.288 -0.1602  0.2475 -0.1460
 3077DOPE   C4B36111  29.740  12.372  13.632 -0.2579 -0.1307  0.1675
 3078POSM   NC336112  29.886  11.842  12.535 -0.0360  0.1624 -0.0192
 3078POSM   PO436113  29.801  11.533  12.302  0.0248  0.0201 -0.1716
 3078POSM   AM136114  29.648  11.318  12.580 -0.3824 -0.1340 -0.0197
 3078POSM   AM236115  29.756  11.097  12.690 -0.5339  0.2272 -0.1418
 3078POSM   T1A36116  29.352  11.124  12.908  0.0889 -0.0057 -0.1517
 3078POSM   C2A36117  29.016  10.816  12.994 -0.2001 -0.2357  0.2488
 3078POSM   C3A36118  28.951  10.434  13.226 -0.0632  0.1010 -0.2375
 3078POSM   C1B36119  29.891  11.020  13.009 -0.0739  0.2422  0.3368
 3078POSM   D2B36120  29.981  11.052  13.457  0.1361  0.0682  0.2035
 3078POSM   C3B36121  29.886  10.751  13.818 -0.1260  0.0781  0.0431
 3078POSM   C4B36122  30.220  10.482  14.011 -0.1650  0.1090  0.2582
 3079DOPE   NH336123  24.871  22.153  11.998  0.0116 -0.0493 -0.1112
 3079DOPE   PO436124  24.790  21.892  12.144  0.1348  0.0023  0.0842
 3079DOPE   GL136125  24.979  21.574  12.279  0.0170  0.1732 -0.1496
 3079DOPE   GL236126  25.139  21.460  12.015  0.2410 -0.1792  0.2401
 3079DOPE   C1A36127  24.914  21.205  12.498 -0.0584  0.0865 -0.3180
 3079DOPE   D2A36128  24.730  20.868  12.720 -0.0023  0.2908 -0.0448
 3079DOPE   C3A36129  24.395  20.819  12.957  0.2371  0.2097 -0.2700
 3079DOPE   C4A36130  23.938  20.962  12.860 -0.4080 -0.3186  0.1958
 3079DOPE   C1B36131  24.768  21.166  12.007 -0.1302  0.0197 -0.0284
 3079DOPE   D2B36132  24.560  20.823  12.154  0.0436  0.1687  0.3016
 3079DOPE   C3B36133  24.234  20.869  12.449  0.1941 -0.2271 -0.0577
 3079DOPE   C4B36134  23.824  21.158  12.414 -0.1018 -0.3299  0.0684
 3080DOPC   NC336135  31.590  12.342  12.466  0.0438  0.0041 -0.0062
 3080DOPC   PO436136  31.535  12.404  12.060  0.2481 -0.1371 -0.0190
 3080DOPC   GL136137  31.963  12.461  12.066 -0.1932 -0.2742  0.0694
 3080DOPC   GL236138  31.974  12.742  11.990  0.0424  0.2393 -0.1024
 3080DOPC   C1A36139  32.298  12.387  12.357 -0.2787  0.3002 -0.2470
 3080DOPC   D2A36140  32.482  11.970  12.460  0.0316  0.3005  0.2970
 3080DOPC   C3A36141  32.496  11.916  12.891 -0.1734 -0.0233 -0.2844
 3080DOPC   C4A36142  32.480  11.846  13.337  0.0208 -0.0293  0.0092
 3080DOPC   C1B36143  32.313  12.964  12.192 -0.0989  0.0708 -0.1084
 3080DOPC   D2B36144  32.588  13.011  12.585  0.2669  0.2344  0.1166
 3080DOPC   C3B36145  32.645  12.546  12.666  0.0425 -0.0985 -0.0388
 3080DOPC   C4B36146  32.489  12.370  13.045 -0.1409 -0.4561 -0.2323
 3081POSM   NC336147  30.541  11.889  11.850 -0.2033  0.1196 -0.2304
 3081POSM   PO436148  30.763  11.935  12.162 -0.0664  0.1132 -0.1877
 3081POSM   AM136149  30.766  11.881  12.500 -0.1785 -0.0767  0.2231
 3081POSM   AM236150  30.731  11.650  12.698  0.0358 -0.0197 -0.3773
 3081POSM   T1A36151  31.052  11.971  12.895 -0.0267  0.3231  0.0108
 3081POSM   C2A36152  31.098  11.859  13.321  0.0970 -0.0512 -0.0312
 3081POSM   C3A36153  31.108  12.113  13.704 -0.0490 -0.3024 -0.0125
 3081POSM   C1B36154  30.655  11.601  13.028 -0.0588  0.2578  0.0549
 3081POSM   D2B36155  30.573  11.815  13.475  0.3438  0.2738  0.2055
 3081POSM   C3B36156  30.695  11.742  13.959 -0.1855  0.1868 -0.3344
 3081POSM   C4B36157  30.578  11.617  14.430  0.1765  0.1828  0.1721
 3082DOPE   NH336158  31.397  16.944  13.308 -0.0105 -0.0683 -0.4006
 3082DOPE   PO436159  31.549  17.198  13.205 -0.2047  0.1850 -0.0480
 3082DOPE   GL136160  31.417  17.311  13.573  0.2483  0.1309  0.0303
 3082DOPE   GL236161  31.637  17.148  13.723  0.2498 -0.0854  0.1354
 3082DOPE   C1A36162  31.373  17.642  13.838 -0.1932  0.0745  0.0756
 3082DOPE   D2A36163  31.483  18.067  13.965 -0.1085 -0.2276  0.0663
 3082DOPE   C3A36164  31.247  18.243  14.214  0.3890 -0.1989 -0.0917
 3082DOPE   C4A36165  31.391  18.384  14.623 -0.0722  0.2313 -0.1193
 3082DOPE   C1B36166  31.658  17.272  14.134  0.0336  0.0751  0.1340
 3082DOPE   D2B36167  31.635  16.967  14.520  0.0354 -0.0033 -0.1012
 3082DOPE   C3B36168  31.603  17.242  14.907 -0.4026 -0.1688 -0.0047
 3082DOPE   C4B36169  31.381  17.595  15.165 -0.2686  0.3454  0.0608
 3083DOPE   NH336170  23.192  14.539  12.622  0.2079 -0.1791  0.4434
 3083DOPE   PO436171  23.224  14.664  12.354  0.0200 -0.1691  0.0445
 3083DOPE   GL136172  23.366  14.972  12.713  0.3089 -0.3179  0.1503
 3083DOPE   GL236173  23.521  15.113  12.480  0.0559  0.1988 -0.1600
 3083DOPE   C1A36174  23.365  15.362  12.919 -0.1507  0.2464  0.0350
 3083DOPE   D2A36175  23.226  15.807  12.889  0.1149  0.1565  0.1137
 3083DOPE   C3A36176  23.252  16.037  13.283  0.1644  0.2307 -0.0206
 3083DOPE   C4A36177  23.059  16.438  13.474  0.1433 -0.4454  0.2434
 3083DOPE   C1B36178  23.652  15.419  12.154 -0.0068 -0.2318 -0.0671
 3083DOPE   D2B36179  23.978  15.700  12.107 -0.1774 -0.0218 -0.0435
 3083DOPE   C3B36180  24.421  15.829  11.955  0.0150  0.0379 -0.2013
 3083DOPE   C4B36181  24.574  16.319  11.810 -0.1642  0.0450 -0.0029
 3084DOPC   NC336182  27.971  17.853  12.297  0.1816  0.1173 -0.0421
 3084DOPC   PO436183  27.815  18.141  12.474 -0.2152  0.1516  0.1236
 3084DOPC   GL136184  27.925  18.020  12.857  0.2826 -0.0617  0.3113
 3084DOPC   GL236185  28.310  18.086  12.822 -0.1130  0.2043  0.0079
 3084DOPC   C1A36186  28.008  18.291  13.182  0.0866 -0.3046 -0.1032
 3084DOPC   D2A36187  28.129  18.104  13.620 -0.1495 -0.1584  0.1847
 3084DOPC   C3A36188  27.815  17.937  13.924  0.0870  0.4491 -0.3893
 3084DOPC   C4A36189  27.525  18.060  14.275 -0.2006  0.1643 -0.0749
 3084DOPC   C1B36190  28.494  18.083  13.237 -0.0226  0.1504 -0.1583
 3084DOPC   D2B36191  28.685  18.061  13.650  0.2221  0.1411  0.4916
 3084DOPC   C3B36192  28.661  17.923  14.060 -0.1349 -0.0551 -0.0828
 3084DOPC   C4B36193  28.624  17.767  14.499 -0.1353 -0.1476  0.2663
 3085DOPE   NH336194  25.898  18.590  12.866  0.0180 -0.2499  0.2468
 3085DOPE   PO436195  25.602  18.699  12.959  0.1610 -0.2105 -0.1656
 3085DOPE   GL136196  25.265  18.949  13.188  0.0035 -0.1148  0.2173
 3085DOPE   GL236197  24.977  18.979  13.075  0.2004 -0.0731 -0.0308
 3085DOPE   C1A36198  25.304  19.442  13.294 -0.0456  0.3337  0.0994
 3085DOPE   D2A36199  25.161  19.885  13.336  0.0172  0.0988 -0.2140
 3085DOPE   C3A36200  24.872  20.195  13.137 -0.1265 -0.2401  0.1740
 3085DOPE   C4A36201  24.576  20.312  12.829  0.1368  0.3164 -0.0756
 3085DOPE   C1B36202  24.523  18.954  12.992 -0.0453  0.0253  0.0100
 3085DOPE   D2B36203  24.097  18.711  12.865 -0.0613 -0.0039  0.2416
 3085DOPE   C3B36204  24.106  18.276  12.698 -0.2809 -0.0744 -0.1363
 3085DOPE   C4B36205  24.152  17.822  12.840 -0.2460  0.1706  0.1743
 3086POSM   NC336206  31.325  17.437  12.855 -0.0762 -0.2974 -0.0786
 3086POSM   PO436207  31.049  17.298  13.145  0.0962 -0.0189 -0.0852
 3086POSM   AM136208  30.998  17.208  13.427 -0.2221  0.0332 -0.3268
 3086POSM   AM236209  30.943  16.934  13.553 -0.1820  0.0427 -0.1018
 3086POSM   T1A36210  31.165  17.232  13.913  0.0750 -0.0272  0.1896
 3086POSM   C2A36211  30.947  17.291  14.297 -0.0104  0.2334 -0.0957
 3086POSM   C3A36212  30.646  17.710  14.317  0.0587 -0.0728  0.3802
 3086POSM   C1B36213  30.967  16.798  13.873 -0.0823  0.2398 -0.3083
 3086POSM   D2B36214  31.165  16.807  14.278 -0.1988  0.2583 -0.1927
 3086POSM   C3B36215  31.137  16.647  14.712 -0.1283  0.2006 -0.2744
 3086POSM   C4B36216  30.702  16.555  14.960 -0.0361 -0.0137 -0.2180
 3087DOPC   NC336217  31.167  18.839  12.927  0.1833 -0.1543  0.0955
 3087DOPC   PO436218  31.412  18.685  12.709 -0.3263  0.1491  0.1477
 3087DOPC   GL136219  31.785  18.760  12.897 -0.0530  0.0653  0.5257
 3087DOPC   GL236220  31.679  18.898  13.093 -0.1045  0.1025  0.2584
 3087DOPC   C1A36221  32.131  19.107  12.941  0.0477  0.2325 -0.1704
 3087DOPC   D2A36222  32.414  19.458  13.044 -0.2949  0.0255  0.1812
 3087DOPC   C3A36223  32.238  19.699  13.431 -0.0709  0.2477 -0.0278
 3087DOPC   C4A36224  31.997  20.011  13.761  0.0188 -0.2359  0.2986
 3087DOPC   C1B36225  31.393  19.288  13.059  0.4496 -0.3039  0.2008
 3087DOPC   D2B36226  31.302  19.715  13.309 -0.2711 -0.3430  0.3040
 3087DOPC   C3B36227  31.005  20.036  13.120  0.2161  0.1054  0.0963
 3087DOPC   C4B36228  30.695  20.103  12.755  0.0318 -0.1769  0.1701
 3088POSM   NC336229  30.206  22.698  12.553 -0.0210 -0.0186 -0.1920
 3088POSM   PO436230  30.165  23.041  12.766 -0.0409  0.1530 -0.0189
 3088POSM   AM136231  30.328  22.885  12.956  0.0745 -0.7545 -0.1372
 3088POSM   AM236232  30.595  22.858  13.053 -0.0630 -0.0449 -0.3578
 3088POSM   T1A36233  30.301  22.457  13.196  0.4179  0.1332 -0.0190
 3088POSM   C2A36234  30.227  22.239  13.578  0.1484 -0.1023  0.1235
 3088POSM   C3A36235  30.226  22.035  14.010 -0.2635 -0.0737  0.1764
 3088POSM   C1B36236  30.825  22.750  13.226  0.0879  0.1180 -0.0260
 3088POSM   D2B36237  30.932  22.808  13.695 -0.0102  0.1977  0.4414
 3088POSM   C3B36238  31.089  22.557  14.012 -0.0593 -0.0110 -0.0222
 3088POSM   C4B36239  31.150  22.556  14.441 -0.0123  0.1128  0.1374
 3089DOPE   NH336240  29.459  11.812  11.987 -0.3952  0.3310 -0.1484
 3089DOPE   PO436241  29.483  11.915  12.257  0.1173  0.3712  0.1121
 3089DOPE   GL136242  29.455  11.698  12.600 -0.2069  0.2741  0.2110
 3089DOPE   GL236243  29.345  11.867  12.826 -0.0273 -0.2279  0.1354
 3089DOPE   C1A36244  29.746  11.568  12.933  0.6831 -0.3615 -0.2453
 3089DOPE   D2A36245  29.731  11.419  13.330 -0.0754 -0.1960  0.0050
 3089DOPE   C3A36246  29.561  11.656  13.664 -0.4416 -0.1636 -0.1539
 3089DOPE   C4A36247  29.565  11.972  14.040  0.2912  0.0874 -0.0332
 3089DOPE   C1B36248  29.267  11.552  13.130 -0.0529 -0.2797 -0.2234
 3089DOPE   D2B36249  29.311  11.206  13.409 -0.2137 -0.0930  0.0086
 3089DOPE   C3B36250  29.035  11.157  13.779 -0.1046  0.4033  0.2843
 3089DOPE   C4B36251  28.618  11.089  13.983 -0.3521 -0.1526 -0.0871
 3090DOPC   NC336252  31.570  15.248  13.193  0.2947 -0.1514  0.3430
 3090DOPC   PO436253  31.367  14.983  13.404  0.1856  0.1021 -0.2947
 3090DOPC   GL136254  31.578  15.273  13.672 -0.1896  0.4266  0.0794
 3090DOPC   GL236255  31.496  15.512  13.782  0.1565 -0.0426  0.0634
 3090DOPC   C1A36256  32.008  15.377  13.825  0.0890 -0.0202  0.4122
 3090DOPC   D2A36257  32.468  15.339  13.862 -0.0558 -0.0394  0.1902
 3090DOPC   C3A36258  32.747  14.928  13.900 -0.0266  0.1148  0.3281
 3090DOPC   C4A36259  32.923  14.471  13.938 -0.0654  0.3311 -0.1182
 3090DOPC   C1B36260  31.782  15.677  14.145  0.4053 -0.2526 -0.0165
 3090DOPC   D2B36261  31.856  15.846  14.559 -0.1608 -0.1096  0.0055
 3090DOPC   C3B36262  32.227  15.617  14.857  0.3436  0.0592 -0.1167
 3090DOPC   C4B36263  32.517  15.257  14.929 -0.1436 -0.2220 -0.0515
 3091DOPE   NH336264   0.294  11.421  12.103 -0.3245  0.0625 -0.2930
 3091DOPE   PO436265   0.025  11.557  12.272 -0.1764  0.2033  0.0552
 3091DOPE   GL136266   0.191  11.728  12.563  0.0409  0.1356 -0.2380
 3091DOPE   GL236267   0.029  11.658  12.758  0.2367  0.0323 -0.2628
 3091DOPE   C1A36268   0.237  12.137  12.693 -0.0270  0.2503 -0.1652
 3091DOPE   D2A36269   0.407  12.593  12.852  0.2185 -0.0682 -0.0955
 3091DOPE   C3A36270   0.462  12.560  13.317 -0.1202 -0.0234 -0.2876
 3091DOPE   C4A36271   0.242  12.779  13.675  0.1860  0.2591 -0.2334
 3091DOPE   C1B36272   0.208  11.893  13.139  0.0407  0.1201  0.1809
 3091DOPE   D2B36273   0.323  11.951  13.599 -0.0869 -0.2978  0.4652
 3091DOPE   C3B36274   0.316  12.295  13.917  0.2356 -0.1049  0.0904
 3091DOPE   C4B36275   0.029  12.196  14.269 -0.1210 -0.0648  0.0236
 3092POSM   NC336276  24.796  15.454  12.113 -0.0190  0.0817 -0.2307
 3092POSM   PO436277  25.159  15.499  12.219  0.2190  0.0553 -0.0008
 3092POSM   AM136278  25.112  15.418  12.497 -0.3369 -0.2239 -0.0257
 3092POSM   AM236279  24.938  15.210  12.601 -0.1246 -0.0713 -0.2575
 3092POSM   T1A36280  24.818  15.598  12.876 -0.2911  0.1283  0.2001
 3092POSM   C2A36281  24.461  15.561  13.171 -0.1980 -0.1317 -0.2422
 3092POSM   C3A36282  24.267  15.869  13.399 -0.1891 -0.0882 -0.1742
 3092POSM   C1B36283  24.910  15.113  12.958  0.1473 -0.3864 -0.3343
 3092POSM   D2B36284  24.876  15.336  13.376 -0.0211 -0.2499 -0.1225
 3092POSM   C3B36285  25.073  15.769  13.499  0.0711  0.2902  0.0813
 3092POSM   C4B36286  25.508  15.936  13.642 -0.1662  0.0681  0.1048
 3093DOPC   NC336287  29.606  18.894  13.136  0.1468 -0.0251  0.0579
 3093DOPC   PO436288  29.372  18.659  12.954 -0.0199 -0.2728 -0.2640
 3093DOPC   GL136289  29.229  18.638  13.279  0.2671  0.3564  0.1279
 3093DOPC   GL236290  29.329  18.427  13.458 -0.1234 -0.0632 -0.2057
 3093DOPC   C1A36291  29.132  18.915  13.669  0.0443 -0.0879 -0.3582
 3093DOPC   D2A36292  29.015  18.879  14.075  0.0956  0.0747 -0.0414
 3093DOPC   C3A36293  28.859  19.133  14.434  0.0403 -0.3369  0.3157
 3093DOPC   C4A36294  28.638  19.247  14.797 -0.2013  0.1568 -0.1073
 3093DOPC   C1B36295  29.512  18.639  13.832  0.1031 -0.4968 -0.3890
 3093DOPC   D2B36296  29.866  18.688  14.088  0.0529  0.0852  0.0809
 3093DOPC   C3B36297  30.211  18.712  14.420 -0.0651  0.2113  0.0047
 3093DOPC   C4B36298  30.417  18.477  14.722  0.0454 -0.1967  0.2122
 3094POSM   NC336299  30.913  13.382  12.712 -0.0418  0.0031  0.2150
 3094POSM   PO436300  31.222  13.155  12.768 -0.2147  0.1340  0.0826
 3094POSM   AM136301  30.971  13.122  13.049 -0.2227  0.1339  0.0059
 3094POSM   AM236302  30.724  13.248  13.171  0.1821 -0.4656  0.1871
 3094POSM   T1A36303  30.873  12.828  13.446  0.3229 -0.0975 -0.0657
 3094POSM   C2A36304  30.619  12.517  13.707 -0.1763 -0.1698  0.0902
 3094POSM   C3A36305  30.704  12.190  14.053  0.1015 -0.0579  0.1688
 3094POSM   C1B36306  30.607  13.232  13.509  0.2939 -0.0234 -0.1558
 3094POSM   D2B36307  30.291  13.191  13.897 -0.3355 -0.0044 -0.3081
 3094POSM   C3B36308  30.471  12.937  14.204  0.1977 -0.0221  0.0260
 3094POSM   C4B36309  30.635  12.611  14.465  0.2223 -0.0613 -0.0688
 3095POSM   NC336310  25.427  19.152  12.288 -0.2824 -0.1000 -0.1698
 3095POSM   PO436311  25.665  18.827  12.445  0.0608  0.1022 -0.1043
 3095POSM   AM136312  25.371  18.669  12.479 -0.2966  0.0057  0.0377
 3095POSM   AM236313  25.226  18.561  12.727  0.0904  0.1437  0.3851
 3095POSM   T1A36314  24.933  18.352  12.396  0.4340 -0.2813  0.2380
 3095POSM   C2A36315  24.469  18.223  12.317 -0.2358 -0.2370  0.1665
 3095POSM   C3A36316  24.046  18.020  12.262  0.3977  0.0605 -0.4259
 3095POSM   C1B36317  24.988  18.476  12.980 -0.1940 -0.2527  0.3131
 3095POSM   D2B36318  24.623  18.456  13.253  0.2050 -0.1108  0.0068
 3095POSM   C3B36319  24.175  18.237  13.316 -0.0721 -0.1492 -0.0642
 3095POSM   C4B36320  23.763  18.110  13.073 -0.2540  0.1311 -0.1630
 3096DOPC   NC336321  28.916  14.730  12.123  0.0427 -0.1182  0.0036
 3096DOPC   PO436322  28.674  14.420  12.127  0.2956 -0.1898 -0.4228
 3096DOPC   GL136323  28.608  14.043  12.333 -0.0863 -0.0136  0.0013
 3096DOPC   GL236324  28.777  13.906  12.539 -0.0677 -0.0597  0.3755
 3096DOPC   C1A36325  28.528  13.582  12.292 -0.0218  0.3372  0.2338
 3096DOPC   D2A36326  28.416  13.074  12.283  0.0377 -0.0585 -0.0663
 3096DOPC   C3A36327  28.287  13.097  12.733  0.0357  0.2462 -0.0282
 3096DOPC   C4A36328  28.274  13.280  13.194 -0.0269  0.3320  0.0975
 3096DOPC   C1B36329  28.677  13.489  12.704  0.1350 -0.2076  0.2111
 3096DOPC   D2B36330  28.857  13.244  13.021  0.0636  0.2718 -0.1675
 3096DOPC   C3B36331  28.681  13.170  13.465 -0.1638 -0.2326  0.1361
 3096DOPC   C4B36332  28.695  13.450  13.865 -0.0132 -0.0681 -0.1620
 3097DOPE   NH336333  26.577  12.507  12.622  0.1462 -0.1506  0.1263
 3097DOPE   PO436334  26.531  12.469  12.298 -0.0875  0.2575  0.1884
 3097DOPE   GL136335  26.286  12.781  12.304 -0.2953  0.1431 -0.1989
 3097DOPE   GL236336  26.241  12.975  12.097 -0.1115  0.0046 -0.1156
 3097DOPE   C1A36337  26.370  13.165  12.604 -0.0339  0.2377  0.0578
 3097DOPE   D2A36338  26.753  13.374  12.718 -0.2057  0.1095  0.2852
 3097DOPE   C3A36339  26.746  13.617  13.112 -0.2373 -0.0294  0.3103
 3097DOPE   C4A36340  26.434  13.791  13.380 -0.3827 -0.1951 -0.3726
 3097DOPE   C1B36341  26.523  13.321  12.143  0.1283  0.0453 -0.1775
 3097DOPE   D2B36342  26.710  13.696  12.213 -0.1391 -0.1452  0.0090
 3097DOPE   C3B36343  26.868  13.855  12.661 -0.1585 -0.1528  0.2149
 3097DOPE   C4B36344  26.637  14.142  12.958  0.1165 -0.2127  0.0289
 3098POSM   NC336345  26.512  23.017  12.681  0.1433 -0.2965 -0.0265
 3098POSM   PO436346  26.563  23.396  12.672  0.1064  0.0160 -0.2766
 3098POSM   AM136347  26.305  23.428  12.830  0.0039  0.0435  0.1419
 3098POSM   AM236348  26.029  23.470  12.795  0.1381 -0.4130 -0.0636
 3098POSM   T1A36349  26.290  23.393  13.325  0.1303 -0.1414 -0.3103
 3098POSM   C2A36350  26.547  23.482  13.708 -0.2540  0.0466  0.1920
 3098POSM   C3A36351  26.465  23.482  14.190 -0.0967 -0.1228  0.2493
 3098POSM   C1B36352  25.887  23.551  13.078  0.3644 -0.0760  0.1204
 3098POSM   D2B36353  25.849  23.549  13.566  0.0416  0.1981  0.2469
 3098POSM   C3B36354  25.573  23.848  13.764  0.4650 -0.0473 -0.3455
 3098POSM   C4B36355  25.518  24.285  13.745  0.4820 -0.0060 -0.2206
 3099POSM   NC336356  27.778  14.367  12.082  0.0048  0.3092 -0.2481
 3099POSM   PO436357  27.725  14.153  12.401  0.1039 -0.2038 -0.2182
 3099POSM   AM136358  27.561  14.078  12.660 -0.2682 -0.1294  0.1419
 3099POSM   AM236359  27.442  14.160  12.932  0.0096  0.1615 -0.0968
 3099POSM   T1A36360  27.564  13.729  12.988  0.0932  0.1086 -0.0450
 3099POSM   C2A36361  27.721  13.459  13.335  0.2560 -0.2207 -0.0268
 3099POSM   C3A36362  27.903  13.014  13.458 -0.3857 -0.1527 -0.0969
 3099POSM   C1B36363  27.199  14.039  13.140 -0.2393 -0.2212  0.0147
 3099POSM   D2B36364  26.903  14.071  13.427  0.0094 -0.0601  0.6255
 3099POSM   C3B36365  27.096  14.160  13.860 -0.0929  0.0200  0.2601
 3099POSM   C4B36366  27.312  14.259  14.274  0.1544 -0.1567  0.2010
 3100DOPS   CNO36367  30.252  18.114  13.069 -0.3403 -0.0599 -0.0265
 3100DOPS   PO436368  30.489  18.044  13.353 -0.0081  0.1076 -0.0134
 3100DOPS   GL136369  30.479  18.215  13.679 -0.2295 -0.4690 -0.0757
 3100DOPS   GL236370  30.481  17.947  13.872  0.1423 -0.0562 -0.0894
 3100DOPS   C1A36371  30.231  18.351  14.074  0.0654 -0.1680  0.2428
 3100DOPS   D2A36372  29.831  18.288  14.404 -0.1306  0.0311  0.3278
 3100DOPS   C3A36373  29.664  17.955  14.702  0.1509  0.3138  0.0648
 3100DOPS   C4A36374  29.535  17.573  14.917  0.1461  0.0038 -0.0243
 3100DOPS   C1B36375  30.141  17.670  14.132 -0.1038 -0.0033 -0.1211
 3100DOPS   D2B36376  29.841  17.331  14.058 -0.1803 -0.0655 -0.0693
 3100DOPS   C3B36377  29.876  16.982  14.336  0.0689 -0.0871  0.0779
 3100DOPS   C4B36378  29.731  16.865  14.720  0.3293  0.0248  0.1756
 3101DOPC   NC336379  26.907  20.784  12.676 -0.4043  0.1905  0.4368
 3101DOPC   PO436380  26.806  20.621  12.332 -0.1584 -0.3868  0.1139
 3101DOPC   GL136381  26.500  20.681  12.605  0.2568  0.3345  0.2480
 3101DOPC   GL236382  26.254  20.682  12.364  0.1315 -0.0508 -0.2508
 3101DOPC   C1A36383  26.255  21.004  12.813  0.0684  0.1864 -0.1538
 3101DOPC   D2A36384  26.166  20.852  13.174  0.2485 -0.1766 -0.2057
 3101DOPC   C3A36385  25.788  20.614  13.230  0.1750  0.0644 -0.2735
 3101DOPC   C4A36386  25.654  20.179  13.278 -0.3955 -0.3073 -0.0651
 3101DOPC   C1B36387  25.884  20.662  12.653  0.2686  0.0847 -0.0272
 3101DOPC   D2B36388  25.756  20.991  12.927  0.1859 -0.1186 -0.0067
 3101DOPC   C3B36389  25.412  20.920  13.245 -0.3558 -0.0202  0.1064
 3101DOPC   C4B36390  25.319  20.945  13.710  0.3922  0.0007 -0.0662
 3102POSM   NC336391  23.750  16.777  12.212 -0.0443 -0.1815  0.2275
 3102POSM   PO436392  24.030  17.024  12.194 -0.1288  0.2300 -0.4020
 3102POSM   AM136393  23.860  17.185  12.428  0.1187 -0.1459  0.0779
 3102POSM   AM236394  23.630  17.137  12.579  0.2514  0.3337  0.1467
 3102POSM   T1A36395  23.749  17.587  12.691  0.1569  0.0183  0.2778
 3102POSM   C2A36396  23.497  17.980  12.651  0.2033  0.1578 -0.1379
 3102POSM   C3A36397  23.482  18.469  12.826  0.1603 -0.0875  0.0150
 3102POSM   C1B36398  23.570  16.801  12.674 -0.0127 -0.1460 -0.4449
 3102POSM   D2B36399  23.603  16.304  12.674  0.4775 -0.0568 -0.1157
 3102POSM   C3B36400  23.593  15.959  12.313 -0.1955 -0.3864  0.1792
 3102POSM   C4B36401  23.244  15.812  12.003  0.1315 -0.1308  0.2759
 3103DOPE   NH336402  28.880  15.080  12.969 -0.0707 -0.1781  0.0165
 3103DOPE   PO436403  29.172  14.999  13.021 -0.0209 -0.1454  0.2951
 3103DOPE   GL136404  29.154  15.213  13.371  0.1970  0.0348  0.3255
 3103DOPE   GL236405  28.835  15.195  13.475  0.0013  0.4791 -0.3462
 3103DOPE   C1A36406  29.133  15.247  13.839  0.0610  0.2642  0.2760
 3103DOPE   D2A36407  29.224  15.246  14.351 -0.0948  0.0147  0.0576
 3103DOPE   C3A36408  29.600  15.070  14.525 -0.4412  0.1610  0.3995
 3103DOPE   C4A36409  29.376  14.723  14.633 -0.0812 -0.1642  0.1826
 3103DOPE   C1B36410  28.708  15.032  13.891  0.2424 -0.1135  0.2694
 3103DOPE   D2B36411  28.602  15.237  14.256  0.0288 -0.4201 -0.0471
 3103DOPE   C3B36412  28.447  15.639  14.170 -0.3873 -0.2438 -0.1030
 3103DOPE   C4B36413  28.613  16.061  14.094  0.2245  0.0439 -0.0937
 3104POSM   NC336414  25.636  19.327  12.722 -0.0490  0.1187 -0.2087
 3104POSM   PO436415  25.302  19.104  12.739 -0.1647 -0.2584 -0.0898
 3104POSM   AM136416  25.023  19.037  12.588  0.1483 -0.5481 -0.0834
 3104POSM   AM236417  24.789  19.249  12.644 -0.0567  0.1949  0.0691
 3104POSM   T1A36418  24.633  18.786  12.466 -0.0124  0.2782  0.0631
 3104POSM   C2A36419  24.117  18.745  12.328  0.0988  0.0783 -0.2425
 3104POSM   C3A36420  23.738  18.480  12.367  0.0004  0.3165  0.1567
 3104POSM   C1B36421  24.434  19.385  12.626 -0.1003  0.0063  0.1056
 3104POSM   D2B36422  24.065  19.358  12.842 -0.3757 -0.1437  0.1600
 3104POSM   C3B36423  23.769  19.487  12.511 -0.0686  0.1709 -0.0088
 3104POSM   C4B36424  23.377  19.392  12.346  0.2639  0.1244  0.1538
 3105POSM   NC336425  27.090  19.052  12.388 -0.1436 -0.1242 -0.1065
 3105POSM   PO436426  27.211  19.076  12.743 -0.1550 -0.2796  0.4970
 3105POSM   AM136427  27.118  18.942  13.059  0.1545  0.0627  0.4311
 3105POSM   AM236428  26.881  18.887  13.193 -0.0201 -0.4729 -0.1224
 3105POSM   T1A36429  27.182  18.641  13.474  0.2039 -0.3424  0.2971
 3105POSM   C2A36430  26.979  18.315  13.664 -0.0071 -0.0402  0.2234
 3105POSM   C3A36431  26.930  17.923  13.836 -0.2778 -0.0389 -0.0034
 3105POSM   C1B36432  26.943  19.070  13.500  0.1007  0.2277 -0.0919
 3105POSM   D2B36433  26.894  19.252  13.892  0.2086  0.2081 -0.4094
 3105POSM   C3B36434  26.761  19.653  13.877  0.3642  0.1944 -0.0005
 3105POSM   C4B36435  26.973  20.042  13.722 -0.0541  0.1171  0.0571
 3106POSM   NC336436  26.441  17.453  12.504  0.3913  0.1216 -0.1276
 3106POSM   PO436437  26.374  17.525  12.899 -0.2875  0.0308  0.2570
 3106POSM   AM136438  26.184  17.740  13.090  0.1002 -0.4265  0.0886
 3106POSM   AM236439  25.917  17.782  13.053  0.0641 -0.0916  0.2698
 3106POSM   T1A36440  26.053  17.803  13.595  0.0687 -0.1159  0.1128
 3106POSM   C2A36441  25.767  17.762  13.920 -0.2236 -0.4707  0.0128
 3106POSM   C3A36442  25.827  17.633  14.317  0.0398  0.0753 -0.0467
 3106POSM   C1B36443  25.666  17.796  13.282  0.0781 -0.0039 -0.0037
 3106POSM   D2B36444  25.210  17.958  13.174 -0.0392 -0.1918  0.0127
 3106POSM   C3B36445  25.152  18.335  13.456  0.0937 -0.1021  0.0723
 3106POSM   C4B36446  25.057  18.747  13.584  0.0470 -0.1095  0.0363
 3107DOPS   CNO36447  31.877  14.416  13.026  0.0108  0.2132 -0.0735
 3107DOPS   PO436448  31.612  14.702  13.077 -0.2237  0.1452 -0.1084
 3107DOPS   GL136449  31.925  14.917  13.185  0.3058 -0.2069  0.2860
 3107DOPS   GL236450  32.136  15.175  13.144 -0.1136 -0.1404 -0.0497
 3107DOPS   C1A36451  32.159  14.987  13.593 -0.2210 -0.0559  0.3451
 3107DOPS   D2A36452  32.561  15.039  13.421 -0.1072 -0.0715 -0.1068
 3107DOPS   C3A36453  32.751  15.501  13.421 -0.2366 -0.1733  0.1405
 3107DOPS   C4A36454  33.046  15.905  13.503  0.2065 -0.0026  0.0739
 3107DOPS   C1B36455  32.142  15.549  13.331  0.1027 -0.0034 -0.1637
 3107DOPS   D2B36456  32.452  15.892  13.563  0.0278 -0.3836 -0.0823
 3107DOPS   C3B36457  32.702  15.831  13.932  0.2648 -0.2186  0.1053
 3107DOPS   C4B36458  32.633  16.049  14.359  0.2067 -0.0478  0.0530
 3108POSM   NC336459  30.998  12.522  12.102  0.3117 -0.0556 -0.3030
 3108POSM   PO436460  30.639  12.400  11.929  0.0755 -0.1573  0.0535
 3108POSM   AM136461  30.406  12.282  12.103  0.4849 -0.0087  0.1134
 3108POSM   AM236462  30.266  12.133  12.305 -0.1865 -0.2453  0.1511
 3108POSM   T1A36463  29.890  12.425  12.161 -0.0054  0.2068  0.2041
 3108POSM   C2A36464  29.559  12.433  12.524  0.3655  0.2696  0.0870
 3108POSM   C3A36465  29.313  12.445  12.915 -0.4658 -0.2137  0.0330
 3108POSM   C1B36466  30.143  12.242  12.542  0.1290  0.1323 -0.1655
 3108POSM   D2B36467  29.897  12.291  12.917  0.4025 -0.1015 -0.2565
 3108POSM   C3B36468  29.710  12.034  13.263 -0.3345 -0.1490  0.0665
 3108POSM   C4B36469  29.252  12.209  13.353  0.0061 -0.0489  0.1138
 3109DOPE   NH336470  33.716  15.412  12.638 -0.0126 -0.1928  0.3114
 3109DOPE   PO436471  34.024  15.404  12.760 -0.2585  0.2628 -0.2426
 3109DOPE   GL136472  33.793  15.473  13.119  0.0031  0.1677  0.1808
 3109DOPE   GL236473  33.549  15.661  13.088 -0.1477  0.1209 -0.0024
 3109DOPE   C1A36474  33.831  15.393  13.610  0.1848  0.0818  0.0032
 3109DOPE   D2A36475  34.283  15.494  13.797 -0.2650  0.1612 -0.1518
 3109DOPE   C3A36476  34.398  15.899  13.891 -0.0328 -0.0362 -0.2817
 3109DOPE   C4A36477  34.712  16.226  13.983 -0.1166 -0.1292  0.1843
 3109DOPE   C1B36478  33.565  15.767  13.513 -0.1363  0.0547 -0.1876
 3109DOPE   D2B36479  33.503  15.807  13.959  0.2084 -0.0557  0.1834
 3109DOPE   C3B36480  33.158  16.098  14.150 -0.2266 -0.0399  0.6403
 3109DOPE   C4B36481  33.005  16.379  14.431 -0.1693 -0.2660  0.2408
 3110DOPE   NH336482  34.626  22.272  12.533 -0.1981  0.1838 -0.0334
 3110DOPE   PO436483  34.492  22.386  12.809 -0.3585  0.1146 -0.1380
 3110DOPE   GL136484  34.088  22.369  12.879 -0.0419  0.1242  0.2439
 3110DOPE   GL236485  34.022  22.168  12.602 -0.0878 -0.3874  0.1034
 3110DOPE   C1A36486  33.723  22.223  13.208  0.2619  0.0143  0.1641
 3110DOPE   D2A36487  33.693  22.247  13.653 -0.0499 -0.1061  0.0551
 3110DOPE   C3A36488  33.939  22.453  14.060  0.2010 -0.0068  0.1014
 3110DOPE   C4A36489  34.197  22.620  14.354  0.2204  0.1156 -0.1174
 3110DOPE   C1B36490  33.677  21.910  12.687  0.1079  0.2835  0.2674
 3110DOPE   D2B36491  33.506  21.756  13.082  0.0770  0.2295  0.0587
 3110DOPE   C3B36492  33.080  21.973  13.039 -0.1526 -0.2413 -0.2503
 3110DOPE   C4B36493  32.669  21.965  13.248 -0.0642  0.0293  0.0667
 3111DOPE   NH336494  27.660  19.277  12.803 -0.1708  0.0659  0.0358
 3111DOPE   PO436495  27.732  19.407  12.498 -0.1190 -0.1363 -0.0447
 3111DOPE   GL136496  28.025  19.054  12.674 -0.1901  0.0390 -0.2816
 3111DOPE   GL236497  28.152  18.856  12.537 -0.0224 -0.1360  0.1889
 3111DOPE   C1A36498  28.072  18.754  13.027 -0.3354 -0.1119 -0.1619
 3111DOPE   D2A36499  28.194  18.738  13.466 -0.0333 -0.1116 -0.0860
 3111DOPE   C3A36500  28.417  18.532  13.792  0.2839 -0.0549  0.0760
 3111DOPE   C4A36501  28.239  18.164  14.060 -0.3843 -0.0133  0.1675
 3111DOPE   C1B36502  28.503  18.555  12.654  0.2014 -0.1149  0.0041
 3111DOPE   D2B36503  28.961  18.397  12.822  0.0042 -0.3287 -0.3227
 3111DOPE   C3B36504  29.015  18.023  13.117 -0.2547  0.0782 -0.1899
 3111DOPE   C4B36505  28.947  17.554  13.144 -0.2570 -0.2134 -0.3518
 3112DOPE   NH336506  23.624  14.769  12.035 -0.1231 -0.1328  0.1714
 3112DOPE   PO436507  23.658  14.477  11.993 -0.4031  0.0219 -0.0396
 3112DOPE   GL136508  23.949  14.278  12.041 -0.0310  0.0567 -0.0228
 3112DOPE   GL236509  23.931  14.013  11.860 -0.2042 -0.0055 -0.0776
 3112DOPE   C1A36510  24.387  14.228  11.942  0.2510  0.1099 -0.1794
 3112DOPE   D2A36511  24.769  14.098  12.153 -0.1856  0.4048  0.0511
 3112DOPE   C3A36512  24.695  13.614  12.198  0.0938 -0.0911  0.3842
 3112DOPE   C4A36513  24.645  13.198  12.420  0.0355 -0.0154  0.0165
 3112DOPE   C1B36514  24.008  13.567  11.848  0.0718 -0.2303  0.1706
 3112DOPE   D2B36515  24.157  13.131  11.811 -0.1501  0.0285  0.3612
 3112DOPE   C3B36516  24.191  12.841  12.129 -0.0473  0.4111 -0.1201
 3112DOPE   C4B36517  23.869  12.626  12.380  0.0718  0.1303 -0.5387
 3113POSM   NC336518  23.769  14.676  12.540  0.0387 -0.1543 -0.3000
 3113POSM   PO436519  24.025  14.681  12.297  0.0591 -0.2812 -0.1189
 3113POSM   AM136520  24.246  14.471  12.361  0.3440  0.3354  0.0921
 3113POSM   AM236521  24.478  14.442  12.552  0.0250  0.1670  0.1661
 3113POSM   T1A36522  24.299  13.991  12.346 -0.0404  0.0879  0.4069
 3113POSM   C2A36523  24.507  13.701  12.693  0.1926 -0.1497  0.0614
 3113POSM   C3A36524  24.852  13.420  12.842  0.0358 -0.1502 -0.1286
 3113POSM   C1B36525  24.671  14.220  12.663  0.2115  0.0113  0.1237
 3113POSM   D2B36526  24.909  13.904  12.893 -0.5839  0.1042 -0.0084
 3113POSM   C3B36527  25.091  13.641  12.505 -0.3131  0.1842 -0.0709
 3113POSM   C4B36528  25.144  13.228  12.355  0.1770 -0.1022 -0.2177
 3114DOPC   NC336529  34.504  20.791  12.590  0.0848  0.1551  0.1118
 3114DOPC   PO436530  34.177  20.948  12.748  0.0023  0.1318 -0.2440
 3114DOPC   GL136531  33.994  20.639  13.114 -0.0699  0.1204  0.1283
 3114DOPC   GL236532  33.880  20.885  13.157 -0.1562 -0.0259  0.0740
 3114DOPC   C1A36533  34.116  20.443  13.471 -0.1005 -0.0232 -0.3795
 3114DOPC   D2A36534  34.331  20.397  13.822  0.1623  0.1138 -0.1149
 3114DOPC   C3A36535  34.481  20.819  13.950  0.0237  0.1158 -0.0557
 3114DOPC   C4A36536  34.687  21.237  13.881  0.1812 -0.4001 -0.0988
 3114DOPC   C1B36537  33.411  20.816  13.081 -0.1133  0.3833  0.2170
 3114DOPC   D2B36538  32.987  20.899  13.250  0.0038  0.1787  0.0108
 3114DOPC   C3B36539  32.568  21.062  13.372 -0.1367  0.1599 -0.1272
 3114DOPC   C4B36540  32.255  21.269  13.680 -0.0734 -0.1478  0.1278
 3115DOPC   NC336541  29.495  21.417  12.529 -0.1127 -0.2096 -0.1983
 3115DOPC   PO436542  29.203  21.701  12.597 -0.0506  0.1218  0.3936
 3115DOPC   GL136543  29.159  21.624  13.007 -0.1603  0.4497  0.2273
 3115DOPC   GL236544  29.395  21.466  13.066  0.1182 -0.2273  0.2072
 3115DOPC   C1A36545  28.991  21.558  13.414  0.1569 -0.1550 -0.3884
 3115DOPC   D2A36546  29.242  21.872  13.681 -0.2698  0.0564 -0.1267
 3115DOPC   C3A36547  28.950  22.074  13.975  0.0500 -0.1505  0.1473
 3115DOPC   C4A36548  28.837  22.354  14.329 -0.1125 -0.0560  0.0239
 3115DOPC   C1B36549  29.449  21.181  13.425  0.0719 -0.1071  0.0590
 3115DOPC   D2B36550  29.803  21.175  13.720  0.2034 -0.2554 -0.3616
 3115DOPC   C3B36551  29.543  21.132  14.105  0.0088 -0.0325  0.3755
 3115DOPC   C4B36552  29.217  21.373  14.342  0.1704 -0.2950  0.0318
 3116POSM   NC336553  26.154  16.578  12.312  0.1668  0.0613 -0.0493
 3116POSM   PO436554  25.882  16.787  12.465 -0.1289 -0.0792  0.2597
 3116POSM   AM136555  25.577  16.859  12.631  0.2616 -0.1470 -0.0557
 3116POSM   AM236556  25.575  16.900  12.919  0.0722  0.1492  0.0450
 3116POSM   T1A36557  25.178  16.633  12.858 -0.2679 -0.0089 -0.0138
 3116POSM   C2A36558  24.985  16.205  12.904  0.1163  0.1152  0.1106
 3116POSM   C3A36559  24.714  16.005  13.220 -0.2571  0.0206  0.1563
 3116POSM   C1B36560  25.467  16.821  13.238 -0.3295 -0.1735 -0.2447
 3116POSM   D2B36561  25.347  16.890  13.623  0.2813 -0.0851  0.0641
 3116POSM   C3B36562  24.931  16.991  13.581 -0.1192 -0.1747  0.0783
 3116POSM   C4B36563  24.508  17.156  13.652 -0.1193 -0.0257  0.2103
 3117POSM   NC336564  31.680  17.677  13.186  0.0152  0.1249  0.1155
 3117POSM   PO436565  32.127  17.691  13.076  0.1235  0.1535 -0.3061
 3117POSM   AM136566  32.157  17.502  13.330  0.1535  0.2025 -0.0011
 3117POSM   AM236567  31.958  17.440  13.538 -0.3739  0.0890  0.0149
 3117POSM   T1A36568  32.306  17.034  13.488 -0.2256 -0.1063  0.0933
 3117POSM   C2A36569  32.581  16.736  13.693 -0.2961  0.0775  0.0568
 3117POSM   C3A36570  32.682  16.647  14.162 -0.3198 -0.3439  0.0103
 3117POSM   C1B36571  31.848  17.646  13.789  0.4779 -0.0287  0.1964
 3117POSM   D2B36572  31.821  17.818  14.309  0.1793  0.0775  0.2842
 3117POSM   C3B36573  31.910  18.199  14.551 -0.1518 -0.0731 -0.1296
 3117POSM   C4B36574  31.900  18.564  14.908 -0.2341 -0.0974  0.2729
 3118DOPS   CNO36575  31.391  14.202  12.779 -0.0875 -0.3677 -0.0338
 3118DOPS   PO436576  31.236  14.188  13.105 -0.1492 -0.3154 -0.0446
 3118DOPS   GL136577  31.269  13.944  13.458 -0.2124  0.0430  0.0246
 3118DOPS   GL236578  31.513  13.995  13.629  0.1517 -0.0326 -0.0892
 3118DOPS   C1A36579  31.215  13.694  13.892 -0.2306  0.0383  0.3044
 3118DOPS   D2A36580  30.979  13.759  14.293  0.0166 -0.1294 -0.0439
 3118DOPS   C3A36581  30.852  14.187  14.435 -0.3080  0.2108 -0.0175
 3118DOPS   C4A36582  30.969  14.271  14.846  0.0878  0.2778 -0.1433
 3118DOPS   C1B36583  31.988  13.928  13.589  0.1693 -0.3556  0.0638
 3118DOPS   D2B36584  32.320  13.757  13.312  0.0184  0.1183  0.1200
 3118DOPS   C3B36585  32.645  14.093  13.160 -0.0191  0.3632  0.3863
 3118DOPS   C4B36586  33.088  14.150  13.015 -0.0672  0.1914 -0.2081
 3119DOPE   NH336587  30.523  18.514  13.174 -0.0265 -0.0689  0.1491
 3119DOPE   PO436588  30.731  18.598  12.974 -0.0828 -0.0363 -0.2181
 3119DOPE   GL136589  30.749  18.961  12.947 -0.2739 -0.0710 -0.0931
 3119DOPE   GL236590  30.567  19.132  12.781  0.1834 -0.0749  0.0847
 3119DOPE   C1A36591  30.905  19.301  13.197  0.0289  0.0600 -0.0831
 3119DOPE   D2A36592  30.719  19.569  13.532  0.2549 -0.0427  0.3883
 3119DOPE   C3A36593  30.721  19.423  13.936  0.3258 -0.1272  0.0967
 3119DOPE   C4A36594  30.317  19.578  14.155 -0.2853 -0.2505 -0.0880
 3119DOPE   C1B36595  30.715  19.572  12.804 -0.3742  0.0271  0.3266
 3119DOPE   D2B36596  31.145  19.767  12.716  0.2278  0.0785  0.1423
 3119DOPE   C3B36597  31.484  20.005  12.915 -0.2927 -0.0616 -0.0586
 3119DOPE   C4B36598  31.785  19.952  13.286  0.2978  0.0333 -0.0111
 3120DOPC   NC336599  30.535  17.482  13.208  0.2506 -0.0012  0.1850
 3120DOPC   PO436600  30.669  17.596  12.882  0.2687 -0.0722 -0.0703
 3120DOPC   GL136601  30.510  17.201  12.875  0.4704 -0.0144  0.3566
 3120DOPC   GL236602  30.292  17.259  12.668  0.2126 -0.0205 -0.0480
 3120DOPC   C1A36603  30.553  16.950  13.260  0.2192 -0.2655 -0.0576
 3120DOPC   D2A36604  30.468  16.513  13.427 -0.5647  0.2669  0.1354
 3120DOPC   C3A36605  30.174  16.208  13.666  0.1288 -0.1216  0.2127
 3120DOPC   C4A36606  30.091  15.814  13.847  0.0879 -0.1715 -0.2354
 3120DOPC   C1B36607  30.285  16.763  12.720 -0.0901 -0.2274 -0.2313
 3120DOPC   D2B36608  30.121  16.488  13.073 -0.2463 -0.3413  0.0855
 3120DOPC   C3B36609  29.989  16.750  13.428  0.0510 -0.2231 -0.1368
 3120DOPC   C4B36610  29.724  16.822  13.792  0.1149 -0.1258 -0.2386
 3121DOPC   NC336611  28.252  19.995  13.067 -0.1646 -0.0714 -0.1674
 3121DOPC   PO436612  28.182  19.993  12.693 -0.0161  0.2204 -0.1937
 3121DOPC   GL136613  27.953  19.714  12.820  0.1717 -0.4626  0.1793
 3121DOPC   GL236614  28.109  19.510  12.948  0.2523 -0.1440  0.1064
 3121DOPC   C1A36615  27.786  19.682  13.259  0.2993 -0.3258  0.1284
 3121DOPC   D2A36616  27.719  19.567  13.670 -0.0398  0.1743 -0.1864
 3121DOPC   C3A36617  27.826  19.677  14.110 -0.2599  0.2528  0.2231
 3121DOPC   C4A36618  27.664  19.773  14.530  0.2439  0.0318 -0.1904
 3121DOPC   C1B36619  27.909  19.225  13.276 -0.0317  0.0565  0.2335
 3121DOPC   D2B36620  27.934  19.075  13.663  0.3164 -0.0344 -0.0238
 3121DOPC   C3B36621  28.201  18.934  14.002 -0.4846  0.1678 -0.0286
 3121DOPC   C4B36622  28.527  18.729  14.204  0.0489  0.3117  0.0326
 3122DOPC   NC336623  28.913  21.254  12.833 -0.2128 -0.0525  0.1967
 3122DOPC   PO436624  28.578  21.240  12.980 -0.0437 -0.0158  0.3309
 3122DOPC   GL136625  28.342  21.346  13.257 -0.1861 -0.0363 -0.1741
 3122DOPC   GL236626  28.008  21.344  13.265  0.1410  0.1899 -0.1662
 3122DOPC   C1A36627  28.391  21.271  13.636  0.1444 -0.5455  0.1320
 3122DOPC   D2A36628  28.302  21.212  14.101 -0.0130  0.1767  0.2792
 3122DOPC   C3A36629  27.968  21.348  14.378 -0.3162 -0.1022  0.0810
 3122DOPC   C4A36630  27.548  21.467  14.321 -0.1028  0.0769 -0.1824
 3122DOPC   C1B36631  28.138  21.678  13.457  0.1997  0.1161 -0.0949
 3122DOPC   D2B36632  28.407  21.936  13.694  0.1255  0.2395  0.0569
 3122DOPC   C3B36633  28.672  21.651  13.909 -0.0288  0.0309 -0.3265
 3122DOPC   C4B36634  29.109  21.475  13.873  0.4912 -0.0888 -0.2182
 3123DOPE   NH336635  30.680  12.877  12.197  0.0208 -0.2252  0.2399
 3123DOPE   PO436636  30.927  12.933  12.451 -0.1379  0.2231 -0.1527
 3123DOPE   GL136637  30.636  12.854  12.752 -0.1626 -0.2066 -0.1291
 3123DOPE   GL236638  30.440  13.160  12.703 -0.0174  0.0643  0.0195
 3123DOPE   C1A36639  30.346  12.526  13.001 -0.0949  0.3762 -0.0467
 3123DOPE   D2A36640  30.330  12.274  13.359  0.0739  0.0466  0.0448
 3123DOPE   C3A36641  30.210  12.135  13.759  0.0483  0.0120  0.0361
 3123DOPE   C4A36642  30.192  11.891  14.182  0.7214  0.1250  0.0855
 3123DOPE   C1B36643  30.232  12.978  13.079  0.2390  0.0102  0.0941
 3123DOPE   D2B36644  30.293  12.859  13.495  0.0221 -0.1557 -0.1261
 3123DOPE   C3B36645  30.119  12.671  13.866  0.2889 -0.1414 -0.2413
 3123DOPE   C4B36646  30.140  12.385  14.202 -0.1060  0.3542  0.1095
 3124DOPC   NC336647  33.424  19.538  12.725 -0.1341 -0.0961  0.0381
 3124DOPC   PO436648  33.439  19.194  12.846 -0.0440 -0.1884  0.2378
 3124DOPC   GL136649  33.158  19.043  13.097  0.1374  0.0211  0.1204
 3124DOPC   GL236650  32.963  19.177  12.954 -0.0161  0.0228 -0.2150
 3124DOPC   C1A36651  33.058  19.267  13.503  0.0129 -0.0175  0.0385
 3124DOPC   D2A36652  33.324  19.311  13.894 -0.0233 -0.0305  0.1995
 3124DOPC   C3A36653  33.685  19.541  14.061 -0.3361  0.0273 -0.1520
 3124DOPC   C4A36654  33.903  19.644  14.471 -0.0906  0.0858 -0.0344
 3124DOPC   C1B36655  33.034  19.637  13.146  0.2174 -0.1118  0.0540
 3124DOPC   D2B36656  33.455  19.802  13.335  0.0094 -0.2164 -0.0835
 3124DOPC   C3B36657  33.420  19.808  13.763  0.1080  0.1613 -0.2769
 3124DOPC   C4B36658  33.304  19.885  14.205 -0.1683  0.2395  0.3266
 3125POSM   NC336659  26.732  15.269  12.172 -0.1561  0.2960  0.1510
 3125POSM   PO436660  26.771  15.441  12.497 -0.0342 -0.1795  0.0026
 3125POSM   AM136661  26.671  15.270  12.758 -0.6271  0.1278  0.2346
 3125POSM   AM236662  26.467  15.078  12.834 -0.0399  0.1165 -0.0890
 3125POSM   T1A36663  26.960  15.030  13.091 -0.3539 -0.2006 -0.0423
 3125POSM   C2A36664  27.387  15.104  13.335  0.0308 -0.0170  0.1953
 3125POSM   C3A36665  27.473  15.376  13.694  0.0367  0.3189  0.0501
 3125POSM   C1B36666  26.474  15.000  13.182 -0.2552 -0.1392 -0.1622
 3125POSM   D2B36667  26.396  14.897  13.622 -0.2779  0.1368  0.0107
 3125POSM   C3B36668  26.484  15.152  13.996 -0.2244 -0.1934  0.1976
 3125POSM   C4B36669  26.470  15.442  14.364 -0.0298  0.3994  0.3286
 3126DOPS   CNO36670  26.035  10.827  11.872  0.0272  0.2656 -0.0287
 3126DOPS   PO436671  25.855  11.037  12.157 -0.0001 -0.2699 -0.1261
 3126DOPS   GL136672  25.977  10.602  12.222 -0.2385  0.1277 -0.2462
 3126DOPS   GL236673  26.039  10.765  12.509  0.0425  0.1147 -0.0569
 3126DOPS   C1A36674  25.889  10.184  12.341  0.1720 -0.0873  0.2604
 3126DOPS   D2A36675  25.603   9.914  12.541  0.2761  0.2739 -0.1351
 3126DOPS   C3A36676  25.457   9.566  12.773 -0.0660  0.2343 -0.0520
 3126DOPS   C4A36677  25.327   9.246  13.056 -0.0028 -0.3570 -0.2171
 3126DOPS   C1B36678  26.161  10.433  12.885  0.0271  0.3818  0.0550
 3126DOPS   D2B36679  26.122   9.981  13.028  0.0738 -0.2368 -0.1716
 3126DOPS   C3B36680  26.270  10.135  13.439 -0.1855  0.0495  0.1045
 3126DOPS   C4B36681  26.345  10.323  13.928  0.2797  0.0861  0.0813
 3127DOPE   NH336682  25.824  17.279  12.624  0.1521 -0.0892  0.3187
 3127DOPE   PO436683  25.944  17.563  12.588  0.2369 -0.1689 -0.2427
 3127DOPE   GL136684  25.476  17.560  12.529  0.4846 -0.1471  0.0281
 3127DOPE   GL236685  25.476  17.629  12.839 -0.1084  0.0924  0.5123
 3127DOPE   C1A36686  25.175  17.237  12.697 -0.0781 -0.0581 -0.1126
 3127DOPE   D2A36687  24.865  17.043  13.001 -0.1336  0.1707 -0.1765
 3127DOPE   C3A36688  24.652  16.618  13.032 -0.0360 -0.1344  0.2432
 3127DOPE   C4A36689  24.374  16.357  13.270  0.0718  0.0546 -0.1162
 3127DOPE   C1B36690  25.258  17.401  13.165  0.1660 -0.3180 -0.3000
 3127DOPE   D2B36691  24.829  17.503  13.362 -0.0105  0.2190 -0.0717
 3127DOPE   C3B36692  24.622  17.910  13.326 -0.0051  0.1531  0.3725
 3127DOPE   C4B36693  24.652  18.143  12.867 -0.3968 -0.3799  0.1378
 3128POSM   NC336694  23.198  13.398  11.351 -0.2444  0.4283 -0.0738
 3128POSM   PO436695  23.187  13.680  11.613  0.3207  0.0559 -0.1884
 3128POSM   AM136696  23.435  13.540  11.788  0.0620  0.2326  0.1816
 3128POSM   AM236697  23.530  13.298  11.799 -0.1513  0.1139 -0.0549
 3128POSM   T1A36698  23.711  13.706  12.176 -0.2583 -0.8590 -0.4187
 3128POSM   C2A36699  23.931  13.673  12.637 -0.1091 -0.1713  0.2499
 3128POSM   C3A36700  24.179  13.441  12.931 -0.0015 -0.0657 -0.0540
 3128POSM   C1B36701  23.719  13.211  12.085  0.2395 -0.3485 -0.0027
 3128POSM   D2B36702  24.052  13.260  12.450 -0.2108  0.1357 -0.2891
 3128POSM   C3B36703  24.306  12.979  12.774  0.0288 -0.2253  0.2967
 3128POSM   C4B36704  24.565  12.770  13.032  0.1245  0.2341  0.0902
 3129DOPC   NC336705  29.584  15.216  12.935 -0.1976  0.0599 -0.0212
 3129DOPC   PO436706  29.424  15.410  12.596 -0.2153 -0.0146 -0.3966
 3129DOPC   GL136707  29.500  15.829  12.689 -0.5625  0.1923  0.0442
 3129DOPC   GL236708  29.571  15.887  13.011 -0.0232  0.2577  0.0735
 3129DOPC   C1A36709  29.445  16.259  12.621  0.1948 -0.1103  0.2780
 3129DOPC   D2A36710  29.240  16.713  12.692 -0.0544  0.2607  0.2457
 3129DOPC   C3A36711  28.826  16.696  12.643  0.1391  0.2964  0.1366
 3129DOPC   C4A36712  28.417  16.558  12.462  0.1152 -0.2693 -0.0679
 3129DOPC   C1B36713  29.623  16.339  13.103  0.1032 -0.1532 -0.2432
 3129DOPC   D2B36714  29.633  16.777  13.017  0.2760  0.1000 -0.0412
 3129DOPC   C3B36715  29.436  16.938  13.349  0.2389  0.2175 -0.2295
 3129DOPC   C4B36716  29.061  17.144  13.493 -0.1858  0.5678 -0.1439
 3130DOPS   CNO36717  26.259  11.998  12.191  0.3055  0.1247  0.1392
 3130DOPS   PO436718  26.400  11.956  12.537  0.1367  0.0237  0.2025
 3130DOPS   GL136719  26.388  12.159  12.839 -0.2482  0.2550 -0.1601
 3130DOPS   GL236720  26.501  11.928  13.010 -0.0377 -0.2448  0.0438
 3130DOPS   C1A36721  26.489  12.450  13.140  0.2398 -0.0489 -0.2784
 3130DOPS   D2A36722  26.489  12.845  13.450 -0.0573  0.0477  0.2258
 3130DOPS   C3A36723  26.357  12.831  13.917 -0.0961 -0.0719 -0.1381
 3130DOPS   C4A36724  26.521  12.765  14.304 -0.0243  0.0882 -0.0510
 3130DOPS   C1B36725  26.836  12.016  13.292  0.0881 -0.3283 -0.3855
 3130DOPS   D2B36726  27.137  12.081  13.605 -0.1179  0.0205  0.1104
 3130DOPS   C3B36727  27.498  12.253  13.414  0.0832  0.0514  0.1282
 3130DOPS   C4B36728  27.820  12.219  13.125  0.2696  0.1835  0.1101
 3131DOPC   NC336729  24.955  15.922  12.481 -0.0558  0.0189 -0.3122
 3131DOPC   PO436730  25.385  15.862  12.548  0.2707 -0.0682  0.2257
 3131DOPC   GL136731  25.437  15.744  12.898  0.3920 -0.0701  0.3162
 3131DOPC   GL236732  25.267  15.518  12.950 -0.2065  0.0138 -0.4496
 3131DOPC   C1A36733  25.359  16.067  13.174 -0.3772  0.3235  0.0137
 3131DOPC   D2A36734  25.076  16.432  13.334 -0.1162 -0.6046  0.3500
 3131DOPC   C3A36735  24.790  16.262  13.641  0.2639 -0.4861 -0.1308
 3131DOPC   C4A36736  24.600  15.863  13.741  0.0328 -0.0641  0.1867
 3131DOPC   C1B36737  25.350  15.148  13.242 -0.1106  0.1458  0.2274
 3131DOPC   D2B36738  25.265  15.239  13.686  0.0687  0.0573  0.1558
 3131DOPC   C3B36739  25.493  15.094  14.000 -0.1424 -0.1882 -0.4411
 3131DOPC   C4B36740  25.920  15.124  14.110  0.3478 -0.1028 -0.1326
 3132DOPC   NC336741  28.722  14.753  12.632 -0.2293 -0.1400  0.3237
 3132DOPC   PO436742  28.587  14.372  12.686  0.0959  0.1194  0.1885
 3132DOPC   GL136743  28.335  14.294  12.958 -0.1571  0.0408  0.0611
 3132DOPC   GL236744  28.392  14.533  13.076 -0.1644  0.0978 -0.2624
 3132DOPC   C1A36745  28.375  14.188  13.380  0.0959 -0.4128 -0.1632
 3132DOPC   D2A36746  28.628  14.431  13.714 -0.2873 -0.1943 -0.0329
 3132DOPC   C3A36747  28.620  14.578  14.206  0.0588 -0.0692 -0.3441
 3132DOPC   C4A36748  28.416  14.853  14.600 -0.2116 -0.1254  0.1692
 3132DOPC   C1B36749  27.997  14.604  13.287  0.2052  0.4488  0.0364
 3132DOPC   D2B36750  27.774  14.711  13.692  0.0607 -0.2036  0.2094
 3132DOPC   C3B36751  27.312  14.634  13.723 -0.0572  0.0946 -0.1387
 3132DOPC   C4B36752  26.914  14.629  13.490 -0.1883  0.1941  0.0552
 3133DOPE   NH336753  29.632  14.690  12.844  0.3698  0.0685  0.1299
 3133DOPE   PO436754  29.654  14.878  12.580  0.1741 -0.0889 -0.3999
 3133DOPE   GL136755  30.090  14.784  12.746 -0.1298  0.0659  0.1871
 3133DOPE   GL236756  30.326  14.736  12.612 -0.2725  0.1935  0.1772
 3133DOPE   C1A36757  30.012  14.364  12.996  0.1013 -0.3814  0.0059
 3133DOPE   D2A36758  30.206  14.045  13.228 -0.1360 -0.1602  0.0457
 3133DOPE   C3A36759  30.156  14.031  13.729 -0.1212  0.1243 -0.0427
 3133DOPE   C4A36760  30.113  14.245  14.143 -0.1269 -0.3906 -0.4630
 3133DOPE   C1B36761  30.362  14.307  12.635 -0.1595  0.0703 -0.0603
 3133DOPE   D2B36762  30.088  13.931  12.575  0.0488  0.1599 -0.0719
 3133DOPE   C3B36763  29.799  13.932  12.954  0.3530  0.0291 -0.0255
 3133DOPE   C4B36764  29.729  13.787  13.314  0.3413  0.4815  0.5489
 3134DOPC   NC336765  25.337  15.013  12.228  0.2033  0.3296 -0.1048
 3134DOPC   PO436766  24.989  14.991  12.068  0.1588 -0.0270  0.1677
 3134DOPC   GL136767  24.976  14.575  12.301  0.0600  0.0954  0.5229
 3134DOPC   GL236768  24.881  14.710  12.626 -0.3502  0.1008 -0.1749
 3134DOPC   C1A36769  25.302  14.282  12.432  0.1630 -0.0855 -0.1671
 3134DOPC   D2A36770  25.676  13.998  12.254 -0.0437  0.0942 -0.1240
 3134DOPC   C3A36771  26.062  13.891  12.462 -0.0206 -0.0789 -0.1351
 3134DOPC   C4A36772  26.406  13.709  12.651  0.3720  0.2724  0.4028
 3134DOPC   C1B36773  24.682  14.645  13.019  0.2730  0.4797  0.2976
 3134DOPC   D2B36774  24.737  14.261  13.232  0.1573  0.0217 -0.0072
 3134DOPC   C3B36775  24.979  14.394  13.629  0.1652 -0.1247  0.0212
 3134DOPC   C4B36776  25.178  14.298  14.054 -0.1101 -0.3796 -0.2411
 3135DOPC   NC336777  30.541  23.317  12.824 -0.2428 -0.0499  0.1388
 3135DOPC   PO436778  30.769  23.351  12.536 -0.2857  0.4068  0.2416
 3135DOPC   GL136779  30.956  23.174  12.780  0.0327 -0.0060 -0.4090
 3135DOPC   GL236780  31.180  23.316  12.882  0.3031  0.0460  0.1340
 3135DOPC   C1A36781  30.848  23.321  13.225  0.3727  0.0551 -0.1981
 3135DOPC   D2A36782  30.752  23.236  13.690  0.2157  0.1301  0.0525
 3135DOPC   C3A36783  30.500  23.017  14.051  0.2068  0.0229  0.0048
 3135DOPC   C4A36784  30.489  22.713  14.389 -0.1084  0.2113 -0.1526
 3135DOPC   C1B36785  31.234  23.076  13.268 -0.0583 -0.0207 -0.0100
 3135DOPC   D2B36786  31.469  22.845  13.632  0.0381  0.2504 -0.3600
 3135DOPC   C3B36787  31.768  22.937  13.972  0.1839  0.1008  0.1396
 3135DOPC   C4B36788  32.159  23.073  14.270 -0.2077  0.1184  0.1845
 3136POSM   NC336789  28.666  21.713  13.110 -0.3769 -0.0981  0.1170
 3136POSM   PO436790  28.614  21.631  12.709  0.3060 -0.3332 -0.0278
 3136POSM   AM136791  28.759  21.937  12.662  0.0727 -0.1234  0.1011
 3136POSM   AM236792  28.882  22.130  12.521 -0.1582  0.0255 -0.0545
 3136POSM   T1A36793  28.825  22.359  12.932  0.0268  0.0747  0.1472
 3136POSM   C2A36794  28.894  22.651  13.304  0.1363  0.1165  0.1106
 3136POSM   C3A36795  29.037  22.894  13.613 -0.0532  0.1009 -0.3753
 3136POSM   C1B36796  28.587  22.337  12.528  0.1360  0.0808  0.4164
 3136POSM   D2B36797  28.238  22.599  12.763 -0.1598  0.0707 -0.0426
 3136POSM   C3B36798  28.343  22.743  13.216  0.2211  0.0845  0.0827
 3136POSM   C4B36799  28.085  22.988  13.518 -0.1550 -0.0967 -0.1763
 3137DOPE   NH336800  29.150  15.814  12.421 -0.0264  0.2184  0.0842
 3137DOPE   PO436801  28.859  15.923  12.275  0.1275 -0.0765  0.0008
 3137DOPE   GL136802  28.645  15.870  12.616  0.1190 -0.2116 -0.0921
 3137DOPE   GL236803  28.543  15.666  12.850  0.0575  0.1371  0.1417
 3137DOPE   C1A36804  28.482  16.206  12.878  0.0256  0.0178 -0.0574
 3137DOPE   D2A36805  28.280  16.213  13.237  0.0730  0.0689  0.2651
 3137DOPE   C3A36806  28.470  16.357  13.639  0.0868 -0.1296 -0.1821
 3137DOPE   C4A36807  28.903  16.240  13.660 -0.1790 -0.2788  0.3826
 3137DOPE   C1B36808  28.751  15.601  13.241 -0.2010  0.1988  0.0701
 3137DOPE   D2B36809  28.749  15.664  13.702 -0.0586 -0.0781 -0.4362
 3137DOPE   C3B36810  28.399  15.341  13.735  0.2094  0.2229 -0.4372
 3137DOPE   C4B36811  28.107  15.125  14.009  0.2296  0.0193  0.1017
 3138DOPS   CNO36812  28.220  14.697  12.105  0.0503 -0.1858  0.2835
 3138DOPS   PO436813  28.449  14.963  12.279 -0.0415 -0.1879 -0.1596
 3138DOPS   GL136814  28.148  15.176  12.552  0.0537  0.1170  0.5445
 3138DOPS   GL236815  28.407  15.189  12.782 -0.0626  0.0865  0.0016
 3138DOPS   C1A36816  27.796  15.480  12.546  0.1363  0.0219  0.1551
 3138DOPS   D2A36817  27.357  15.684  12.516  0.0732 -0.0099  0.1457
 3138DOPS   C3A36818  27.390  15.644  12.977  0.2933  0.0683  0.0348
 3138DOPS   C4A36819  27.091  15.668  13.402 -0.1121 -0.0251  0.1483
 3138DOPS   C1B36820  28.340  15.266  13.194 -0.1383  0.2229 -0.0672
 3138DOPS   D2B36821  27.976  15.189  13.487 -0.0024  0.3752  0.0235
 3138DOPS   C3B36822  27.873  15.602  13.667  0.2857 -0.3869 -0.2205
 3138DOPS   C4B36823  27.873  15.785  14.062 -0.0179 -0.1567 -0.1013
 3139DOPC   NC336824  27.699  21.835  12.827 -0.1057  0.1683 -0.1827
 3139DOPC   PO436825  27.480  21.889  12.493 -0.0475 -0.0494  0.1909
 3139DOPC   GL136826  27.333  22.191  12.675 -0.1388  0.1568  0.1939
 3139DOPC   GL236827  27.266  22.037  12.968 -0.1469  0.0335 -0.0696
 3139DOPC   C1A36828  27.292  22.543  12.975  0.1197  0.1738 -0.0177
 3139DOPC   D2A36829  27.305  23.005  13.079  0.0886  0.3959  0.0359
 3139DOPC   C3A36830  27.452  23.128  13.469  0.2113 -0.0456  0.1466
 3139DOPC   C4A36831  27.736  23.262  13.820 -0.0235 -0.0601 -0.1378
 3139DOPC   C1B36832  26.938  22.001  13.235 -0.0778 -0.1544 -0.0057
 3139DOPC   D2B36833  26.698  22.368  13.436 -0.1553 -0.2859  0.0158
 3139DOPC   C3B36834  26.668  22.801  13.674  0.1849  0.1868  0.0819
 3139DOPC   C4B36835  26.780  23.197  13.400 -0.3142 -0.1327 -0.0709
 3140DOPE   NH336836  24.474  14.719  12.067 -0.0894  0.2920 -0.2797
 3140DOPE   PO436837  24.485  14.912  12.352 -0.0589 -0.0106  0.1483
 3140DOPE   GL136838  24.374  14.956  12.712  0.2834  0.1237  0.3046
 3140DOPE   GL236839  24.463  15.178  12.803  0.0419 -0.0834  0.1837
 3140DOPE   C1A36840  24.130  14.685  12.965 -0.0224  0.0150  0.0488
 3140DOPE   D2A36841  23.722  14.509  13.206  0.2298 -0.2343 -0.2510
 3140DOPE   C3A36842  23.320  14.760  13.188  0.1591 -0.0759  0.3051
 3140DOPE   C4A36843  22.947  14.825  12.986 -0.1677  0.1591  0.0882
 3140DOPE   C1B36844  24.423  15.055  13.198 -0.3187  0.3127  0.2185
 3140DOPE   D2B36845  24.392  15.316  13.616  0.1039  0.1156  0.1118
 3140DOPE   C3B36846  24.631  15.096  13.942  0.0322  0.1053  0.1210
 3140DOPE   C4B36847  24.599  14.967  14.376 -0.0019 -0.0215  0.2509
 3141DOPE   NH336848  29.617  18.137  13.059 -0.0734 -0.0108  0.0460
 3141DOPE   PO436849  29.805  17.944  12.870 -0.1121 -0.1001  0.0508
 3141DOPE   GL136850  29.551  17.598  13.055  0.2066  0.0478 -0.0626
 3141DOPE   GL236851  29.503  17.687  13.315 -0.3054 -0.1614  0.2639
 3141DOPE   C1A36852  29.286  17.214  12.988 -0.3116  0.1109 -0.2346
 3141DOPE   D2A36853  29.005  16.852  13.110 -0.0599 -0.0619 -0.0802
 3141DOPE   C3A36854  28.786  16.731  13.489 -0.2565  0.2444 -0.1096
 3141DOPE   C4A36855  28.712  16.693  13.945  0.0617 -0.1358 -0.2479
 3141DOPE   C1B36856  29.245  17.871  13.676  0.0317  0.0412  0.0428
 3141DOPE   D2B36857  29.144  17.717  14.074  0.0971  0.0870  0.2134
 3141DOPE   C3B36858  29.046  18.049  14.343  0.1245  0.3388 -0.2555
 3141DOPE   C4B36859  28.757  18.439  14.529 -0.1526  0.0720  0.0992
 3142POSM   NC336860  32.500  17.915  13.248 -0.2393 -0.2857 -0.1656
 3142POSM   PO436861  32.535  18.274  13.114 -0.0923 -0.2084 -0.0092
 3142POSM   AM136862  32.370  18.506  13.358 -0.2730  0.0125 -0.5593
 3142POSM   AM236863  32.198  18.709  13.428 -0.2965  0.0094  0.2264
 3142POSM   T1A36864  32.223  18.546  13.872 -0.0752  0.0218  0.0393
 3142POSM   C2A36865  32.053  18.951  14.029 -0.0903 -0.0445 -0.4264
 3142POSM   C3A36866  32.101  19.197  14.421 -0.1093 -0.1100  0.1841
 3142POSM   C1B36867  32.101  19.035  13.428 -0.3075 -0.2065 -0.0339
 3142POSM   D2B36868  31.667  19.275  13.428  0.0327  0.2001  0.1440
 3142POSM   C3B36869  31.871  19.541  13.071  0.0543  0.1138  0.1050
 3142POSM   C4B36870  32.121  19.810  12.830  0.3017 -0.3419 -0.0308
 3143POSM   NC336871  32.807  22.744  12.573  0.0906  0.0395  0.0757
 3143POSM   PO436872  32.480  22.820  12.760  0.0218 -0.0149  0.0681
 3143POSM   AM136873  32.557  22.564  12.923 -0.0089  0.2199 -0.3597
 3143POSM   AM236874  32.785  22.386  12.932  0.0527  0.2368 -0.2619
 3143POSM   T1A36875  32.393  22.387  13.335  0.0492  0.1183 -0.0341
 3143POSM   C2A36876  32.329  22.063  13.670 -0.0544 -0.1483 -0.0883
 3143POSM   C3A36877  32.381  21.756  13.990 -0.1426  0.2459  0.1018
 3143POSM   C1B36878  32.899  22.462  13.248 -0.1935  0.2180 -0.3200
 3143POSM   D2B36879  32.938  22.471  13.703  0.0287 -0.0511  0.1109
 3143POSM   C3B36880  32.831  21.999  13.731  0.2577 -0.2782 -0.1076
 3143POSM   C4B36881  32.680  21.573  13.633  0.1242  0.1939 -0.1915
 3144DOPC   NC336882  24.141  14.647  11.739 -0.1581 -0.3926 -0.1520
 3144DOPC   PO436883  24.104  15.005  11.859  0.0128  0.4878 -0.1209
 3144DOPC   GL136884  24.038  15.177  12.279 -0.1751 -0.0921 -0.3067
 3144DOPC   GL236885  24.355  15.370  12.312  0.1467  0.0212 -0.1947
 3144DOPC   C1A36886  23.942  15.308  12.716 -0.2348  0.0310  0.1589
 3144DOPC   D2A36887  23.911  15.588  13.129 -0.0691  0.0884  0.1323
 3144DOPC   C3A36888  23.840  16.071  13.177  0.0082  0.1002  0.0190
 3144DOPC   C4A36889  23.911  16.192  13.624  0.0453 -0.0267 -0.0666
 3144DOPC   C1B36890  24.318  15.653  12.665  0.1708  0.0570 -0.0286
 3144DOPC   D2B36891  24.301  16.101  12.909 -0.1733  0.1556 -0.3882
 3144DOPC   C3B36892  24.018  16.464  12.889  0.2411  0.1319  0.3486
 3144DOPC   C4B36893  23.696  16.542  13.148 -0.0782 -0.0190 -0.0730
 3145DOPC   NC336894  28.071  21.188  12.790  0.0666  0.0584  0.1954
 3145DOPC   PO436895  27.729  21.362  12.821 -0.0070 -0.0334 -0.1072
 3145DOPC   GL136896  27.486  21.548  13.100  0.2032 -0.1774 -0.1021
 3145DOPC   GL236897  27.594  21.608  13.385 -0.1446 -0.1120 -0.3584
 3145DOPC   C1A36898  27.112  21.550  13.405  0.0543 -0.1152  0.0161
 3145DOPC   D2A36899  26.668  21.669  13.559  0.1419 -0.0048 -0.1838
 3145DOPC   C3A36900  26.543  21.919  13.909  0.1051  0.3552  0.0823
 3145DOPC   C4A36901  26.390  22.037  14.290 -0.1114  0.4790  0.0647
 3145DOPC   C1B36902  27.737  22.001  13.317  0.2841 -0.4740  0.5257
 3145DOPC   D2B36903  27.352  22.236  13.407  0.1981  0.3297 -0.0439
 3145DOPC   C3B36904  27.070  22.118  13.727 -0.0277 -0.0298 -0.2506
 3145DOPC   C4B36905  26.921  22.289  14.121 -0.4239  0.4361 -0.3013
 3146DOPC   NC336906  29.020  18.923  12.644 -0.2900 -0.2052  0.1277
 3146DOPC   PO436907  28.937  19.298  12.761 -0.1218 -0.0078 -0.2198
 3146DOPC   GL136908  29.238  19.183  13.042 -0.1099  0.1667 -0.2920
 3146DOPC   GL236909  29.009  19.032  13.158  0.0588  0.1043  0.0053
 3146DOPC   C1A36910  29.412  19.245  13.469  0.2304 -0.0601  0.0946
 3146DOPC   D2A36911  29.628  19.134  13.861 -0.0275  0.0799  0.0154
 3146DOPC   C3A36912  29.854  19.363  14.195  0.1475 -0.1436 -0.3506
 3146DOPC   C4A36913  30.154  19.184  14.450  0.0271  0.1121  0.3849
 3146DOPC   C1B36914  28.937  19.338  13.571  0.0116 -0.0086 -0.0814
 3146DOPC   D2B36915  29.166  19.397  14.039 -0.6720  0.0001 -0.2850
 3146DOPC   C3B36916  29.359  19.148  14.307  0.1891 -0.1007 -0.0183
 3146DOPC   C4B36917  29.602  19.230  14.656 -0.2482 -0.2474 -0.1289
 3147POSM   NC336918  27.233  13.935  11.803 -0.1462  0.0894  0.2230
 3147POSM   PO436919  27.243  14.129  12.157 -0.0386 -0.1388  0.0699
 3147POSM   AM136920  27.352  14.440  12.341  0.1692 -0.0229 -0.0435
 3147POSM   AM236921  27.310  14.524  12.606  0.0108 -0.3747 -0.1654
 3147POSM   T1A36922  27.147  14.894  12.379 -0.1110  0.1434 -0.0418
 3147POSM   C2A36923  27.474  15.094  12.713  0.2871 -0.2958 -0.0324
 3147POSM   C3A36924  27.884  15.032  12.999 -0.0460  0.0232  0.0593
 3147POSM   C1B36925  26.980  14.539  12.713  0.1481 -0.1002 -0.1094
 3147POSM   D2B36926  26.594  14.592  12.840 -0.0526  0.4014 -0.1631
 3147POSM   C3B36927  26.441  14.323  12.498  0.3634  0.0392 -0.0764
 3147POSM   C4B36928  26.206  14.237  12.128 -0.0108  0.0346  0.1366
 3148DOPC   NC336929  24.926  22.982  12.423 -0.0891 -0.0265  0.1986
 3148DOPC   PO436930  25.126  22.911  12.138 -0.1980  0.4015  0.0057
 3148DOPC   GL136931  25.213  22.602  12.386 -0.0727 -0.0689  0.1607
 3148DOPC   GL236932  25.440  22.388  12.316  0.0605 -0.2411 -0.1069
 3148DOPC   C1A36933  25.121  22.593  12.881  0.0871 -0.0669  0.0589
 3148DOPC   D2A36934  25.230  22.396  13.303  0.0274  0.1258  0.2449
 3148DOPC   C3A36935  25.157  21.919  13.412 -0.3822 -0.2192 -0.2361
 3148DOPC   C4A36936  24.988  21.508  13.282 -0.0212  0.1436 -0.1877
 3148DOPC   C1B36937  25.647  22.610  12.728  0.0227 -0.4345  0.0349
 3148DOPC   D2B36938  25.857  22.453  13.096  0.2669 -0.0458  0.1897
 3148DOPC   C3B36939  25.615  22.149  13.399 -0.3669  0.0749 -0.0387
 3148DOPC   C4B36940  25.584  21.894  13.771  0.1698 -0.4043  0.1553
 3149POSM   NC336941  32.999  17.311  12.978  0.0836  0.1250  0.1061
 3149POSM   PO436942  33.045  16.999  12.759  0.1264 -0.1006  0.4850
 3149POSM   AM136943  33.144  16.865  13.075 -0.0004  0.1846 -0.1083
 3149POSM   AM236944  33.080  16.910  13.326 -0.3247 -0.1520 -0.4974
 3149POSM   T1A36945  33.509  16.567  13.305 -0.1176  0.2807  0.1124
 3149POSM   C2A36946  33.915  16.348  13.385  0.3844 -0.1441  0.0153
 3149POSM   C3A36947  34.296  16.446  13.645  0.3784 -0.5020  0.0839
 3149POSM   C1B36948  33.037  16.612  13.510 -0.1030  0.0594  0.1622
 3149POSM   D2B36949  32.860  16.342  13.831 -0.0795 -0.1065 -0.0541
 3149POSM   C3B36950  32.435  16.293  13.960 -0.1319  0.0186 -0.1268
 3149POSM   C4B36951  32.071  16.313  14.270  0.0131 -0.1743 -0.3152
 3150DOPS   CNO36952  31.038  13.854  12.704 -0.0227 -0.2646 -0.1878
 3150DOPS   PO436953  31.335  13.650  12.755  0.1173  0.4014 -0.2317
 3150DOPS   GL136954  31.248  13.482  13.128  0.0113 -0.2668  0.1456
 3150DOPS   GL236955  31.025  13.626  13.219  0.0496 -0.2270 -0.1049
 3150DOPS   C1A36956  31.536  13.483  13.538  0.2668  0.1348 -0.0779
 3150DOPS   D2A36957  31.701  13.450  13.974 -0.1946  0.3374  0.2113
 3150DOPS   C3A36958  31.975  13.769  14.229  0.1610  0.0630  0.0623
 3150DOPS   C4A36959  32.268  13.829  14.598 -0.1221 -0.2814  0.0066
 3150DOPS   C1B36960  31.075  13.293  13.592  0.0425 -0.0027 -0.0371
 3150DOPS   D2B36961  31.344  13.114  13.865 -0.0269 -0.0513  0.0791
 3150DOPS   C3B36962  31.316  13.283  14.326 -0.0351 -0.2221 -0.1969
 3150DOPS   C4B36963  31.533  13.607  14.609 -0.2535  0.2398 -0.1554
 3151DOPC   NC336964  27.309  16.887  12.565 -0.0253  0.1057 -0.3621
 3151DOPC   PO436965  27.200  17.220  12.664  0.4113  0.0393  0.0843
 3151DOPC   GL136966  27.571  17.188  12.788 -0.2150 -0.0933 -0.1091
 3151DOPC   GL236967  27.777  17.171  12.562  0.1833 -0.1325  0.1861
 3151DOPC   C1A36968  27.762  16.753  12.888  0.1680 -0.0075 -0.3632
 3151DOPC   D2A36969  27.607  16.384  13.176  0.0185  0.1792  0.2379
 3151DOPC   C3A36970  27.752  15.932  13.220 -0.0696  0.1021 -0.3793
 3151DOPC   C4A36971  27.781  15.501  13.153 -0.2317 -0.1065 -0.1549
 3151DOPC   C1B36972  28.164  17.009  12.747 -0.1495  0.2684 -0.3858
 3151DOPC   D2B36973  28.500  16.856  13.021  0.0254  0.3410  0.1800
 3151DOPC   C3B36974  28.579  17.218  13.317  0.0523  0.0979  0.2046
 3151DOPC   C4B36975  28.769  17.597  13.639 -0.0575  0.1826  0.1695
 3152DOPS   CNO36976  24.264  22.496  11.819 -0.0843 -0.1848 -0.1659
 3152DOPS   PO436977  24.377  22.252  12.087 -0.3154 -0.3788 -0.1266
 3152DOPS   GL136978  24.279  21.915  12.284 -0.1977 -0.0086  0.1846
 3152DOPS   GL236979  24.450  21.862  12.564 -0.2432  0.0712 -0.2889
 3152DOPS   C1A36980  24.042  21.601  12.545 -0.1530 -0.0499  0.1809
 3152DOPS   D2A36981  23.925  21.517  12.971  0.1615 -0.0631  0.0174
 3152DOPS   C3A36982  24.202  21.324  13.288 -0.3474  0.0395 -0.1345
 3152DOPS   C4A36983  24.281  20.974  13.599  0.0939  0.0130  0.0670
 3152DOPS   C1B36984  24.435  21.686  13.041  0.2681  0.4110  0.4247
 3152DOPS   D2B36985  24.569  21.860  13.444  0.0074 -0.1145 -0.0744
 3152DOPS   C3B36986  24.830  22.242  13.612  0.3101  0.0349 -0.0395
 3152DOPS   C4B36987  25.231  22.278  13.804  0.2451  0.1878  0.0557
 3153DOPE   NH336988  27.904  20.512  12.940 -0.1716  0.1198 -0.3186
 3153DOPE   PO436989  28.104  20.732  12.975 -0.1272 -0.0595  0.4155
 3153DOPE   GL136990  27.978  20.587  13.430 -0.2158  0.2874  0.2323
 3153DOPE   GL236991  28.210  20.400  13.466 -0.2049  0.2748  0.1590
 3153DOPE   C1A36992  27.942  21.007  13.627  0.0115  0.1897  0.2992
 3153DOPE   D2A36993  27.836  21.431  13.820 -0.3392  0.0886  0.2244
 3153DOPE   C3A36994  27.847  21.891  13.878  0.0231 -0.1515  0.0407
 3153DOPE   C4A36995  28.078  22.257  13.833  0.1769  0.1826 -0.1054
 3153DOPE   C1B36996  28.138  20.052  13.688 -0.3878  0.0028  0.1808
 3153DOPE   D2B36997  28.417  19.901  14.032 -0.0533 -0.2296  0.0979
 3153DOPE   C3B36998  28.828  19.882  13.877  0.1298  0.1287  0.2886
 3153DOPE   C4B36999  29.129  20.220  13.668 -0.0296 -0.0559 -0.0851
 3154DOPE   NH337000  34.012  14.400  12.698  0.0584  0.3526  0.1363
 3154DOPE   PO437001  33.692  14.470  12.702 -0.0975  0.0495  0.1988
 3154DOPE   GL137002  33.805  14.537  13.165 -0.2782 -0.4113  0.2286
 3154DOPE   GL237003  33.557  14.625  13.233  0.1283  0.3881 -0.0196
 3154DOPE   C1A37004  34.029  14.313  13.504 -0.2323  0.0227  0.1655
 3154DOPE   D2A37005  34.410  14.308  13.664 -0.3295 -0.0941 -0.0224
 3154DOPE   C3A37006  34.725  14.549  13.889  0.3024  0.0967  0.4104
 3154DOPE   C4A37007  35.085  14.733  14.151  0.0428 -0.0048 -0.1769
 3154DOPE   C1B37008  33.629  14.491  13.694 -0.0328  0.1673  0.2023
 3154DOPE   D2B37009  33.891  14.303  14.016 -0.0090  0.0016 -0.0180
 3154DOPE   C3B37010  34.200  13.932  14.062 -0.1445 -0.1178 -0.0445
 3154DOPE   C4B37011  34.396  13.551  14.002  0.0981 -0.0278  0.1296
 3155DOPE   NH337012  29.970  15.292  12.514 -0.1427  0.1957  0.1595
 3155DOPE   PO437013  29.934  15.567  12.697  0.1004  0.0709 -0.3182
 3155DOPE   GL137014  29.944  15.595  13.047  0.0050 -0.0282 -0.0009
 3155DOPE   GL237015  30.197  15.818  13.093  0.3211  0.1875  0.1345
 3155DOPE   C1A37016  29.808  15.850  13.420 -0.0182 -0.1914 -0.0816
 3155DOPE   D2A37017  29.500  16.157  13.613  0.0535  0.0140  0.3555
 3155DOPE   C3A37018  29.744  16.207  14.016  0.2663 -0.3886 -0.2751
 3155DOPE   C4A37019  30.042  16.108  14.331  0.0604 -0.0432 -0.1016
 3155DOPE   C1B37020  30.365  15.655  13.484  0.3853  0.0908  0.2484
 3155DOPE   D2B37021  30.645  15.460  13.738  0.2935  0.4118 -0.3728
 3155DOPE   C3B37022  30.530  15.245  14.114  0.2942 -0.2569 -0.0538
 3155DOPE   C4B37023  30.696  15.008  14.453  0.0445  0.1596 -0.2639
 3156DOPC   NC337024  29.432  14.055  11.899 -0.0073  0.1097 -0.0749
 3156DOPC   PO437025  29.119  14.032  12.146 -0.0240  0.1274 -0.2012
 3156DOPC   GL137026  29.151  13.717  12.444  0.2112 -0.1539 -0.0172
 3156DOPC   GL237027  29.096  13.482  12.276 -0.1300 -0.0600  0.1282
 3156DOPC   C1A37028  29.376  13.329  12.683  0.0389 -0.0269 -0.0380
 3156DOPC   D2A37029  29.282  12.954  12.921  0.1204  0.2530  0.0408
 3156DOPC   C3A37030  29.367  12.905  13.350 -0.0391  0.0213 -0.1724
 3156DOPC   C4A37031  29.047  12.971  13.756  0.2550 -0.0719 -0.0868
 3156DOPC   C1B37032  28.970  13.107  12.389 -0.0609 -0.2981  0.0666
 3156DOPC   D2B37033  28.727  12.803  12.696 -0.0935 -0.0616 -0.0653
 3156DOPC   C3B37034  28.480  12.807  13.090 -0.0667  0.0899  0.2507
 3156DOPC   C4B37035  28.285  12.498  13.375  0.0164  0.0732 -0.2967
 3157DOPS   CNO37036  33.532  18.444  13.487  0.0778 -0.1333  0.1300
 3157DOPS   PO437037  33.388  18.617  13.194  0.1346 -0.1317  0.0584
 3157DOPS   GL137038  33.499  18.934  13.449  0.2044 -0.4414 -0.3532
 3157DOPS   GL237039  33.538  19.246  13.392  0.1173  0.0679  0.3491
 3157DOPS   C1A37040  33.191  18.856  13.753 -0.2503  0.0377 -0.4893
 3157DOPS   D2A37041  33.205  18.796  14.200  0.0680 -0.1575  0.0633
 3157DOPS   C3A37042  33.594  18.609  14.309 -0.3287  0.0695  0.1599
 3157DOPS   C4A37043  33.605  18.223  14.517 -0.2417  0.2417  0.2587
 3157DOPS   C1B37044  33.998  19.145  13.590 -0.0217 -0.0482  0.0113
 3157DOPS   D2B37045  34.259  19.514  13.729 -0.0776 -0.1799 -0.3731
 3157DOPS   C3B37046  34.645  19.303  13.863  0.1087  0.0100 -0.4720
 3157DOPS   C4B37047  34.808  18.907  13.775  0.1931 -0.1803  0.1397
 3158DOPS   CNO37048  30.602  22.456  12.324  0.1520 -0.0947  0.1516
 3158DOPS   PO437049  30.676  22.778  12.571  0.1352 -0.1247  0.2062
 3158DOPS   GL137050  30.655  22.469  12.889 -0.1091  0.1237 -0.1996
 3158DOPS   GL237051  30.583  22.185  12.822  0.1025  0.0514  0.0395
 3158DOPS   C1A37052  30.769  22.248  13.275  0.1959 -0.0565  0.0118
 3158DOPS   D2A37053  30.758  22.097  13.715  0.0386  0.0113 -0.0632
 3158DOPS   C3A37054  30.636  21.785  14.013 -0.1173 -0.3736  0.1087
 3158DOPS   C4A37055  30.605  21.306  14.128  0.1703  0.1365 -0.1804
 3158DOPS   C1B37056  30.512  21.867  13.111 -0.1244  0.2966  0.1542
 3158DOPS   D2B37057  30.396  21.774  13.516  0.0672  0.0390  0.2272
 3158DOPS   C3B37058  30.230  21.559  13.917  0.2360 -0.1918  0.0851
 3158DOPS   C4B37059  30.021  21.242  14.203 -0.1704 -0.1904  0.2097
 3159DOPC   NC337060  30.067  21.969  12.829  0.0106 -0.0721  0.1832
 3159DOPC   PO437061  29.845  21.778  12.593 -0.1270  0.1994 -0.0717
 3159DOPC   GL137062  29.831  21.637  12.934  0.0083 -0.1236 -0.1411
 3159DOPC   GL237063  29.852  21.308  12.915  0.0649  0.0091 -0.4172
 3159DOPC   C1A37064  30.062  21.452  13.303  0.1992  0.0365 -0.3671
 3159DOPC   D2A37065  30.316  21.056  13.465  0.2492 -0.1201  0.2773
 3159DOPC   C3A37066  30.259  20.931  13.918  0.1520 -0.0641 -0.1117
 3159DOPC   C4A37067  30.386  20.918  14.365  0.2996 -0.2132 -0.2067
 3159DOPC   C1B37068  30.211  21.001  13.015 -0.0394 -0.4198  0.1862
 3159DOPC   D2B37069  30.510  20.635  12.979  0.3350 -0.1148  0.0912
 3159DOPC   C3B37070  30.657  20.410  13.359 -0.0465 -0.3386 -0.3552
 3159DOPC   C4B37071  30.861  20.156  13.698 -0.1207 -0.4221  0.0614
 3160DOPS   CNO37072  26.362  15.604  12.190 -0.0858 -0.0520  0.1961
 3160DOPS   PO437073  26.201  15.274  12.404 -0.2230  0.1058 -0.0113
 3160DOPS   GL137074  26.186  15.534  12.683 -0.0044  0.4033 -0.0461
 3160DOPS   GL237075  26.395  15.639  12.832  0.0915  0.3811  0.0667
 3160DOPS   C1A37076  26.057  15.336  13.127  0.3285 -0.2237  0.0081
 3160DOPS   D2A37077  25.700  15.541  13.329  0.0933  0.0118 -0.0283
 3160DOPS   C3A37078  25.696  15.483  13.802  0.1384  0.0214  0.1030
 3160DOPS   C4A37079  25.990  15.613  14.203 -0.1365 -0.1937  0.0677
 3160DOPS   C1B37080  26.594  15.495  13.254  0.0422 -0.2386  0.1404
 3160DOPS   D2B37081  26.731  15.296  13.595  0.0408 -0.0679 -0.1322
 3160DOPS   C3B37082  26.964  15.473  13.930  0.1426  0.1072 -0.0386
 3160DOPS   C4B37083  27.266  15.790  14.040  0.1321  0.0060  0.0907
 3161DOPS   CNO37084  27.167  18.103  12.510 -0.1580 -0.2972  0.2013
 3161DOPS   PO437085  27.339  18.161  12.851 -0.1101 -0.0255 -0.3607
 3161DOPS   GL137086  27.574  18.093  13.092 -0.1109 -0.3169 -0.3552
 3161DOPS   GL237087  27.413  18.213  13.369 -0.1535 -0.2104  0.0404
 3161DOPS   C1A37088  27.773  17.833  13.391 -0.2583  0.4548 -0.0050
 3161DOPS   D2A37089  28.214  17.652  13.304 -0.0763 -0.1601 -0.1810
 3161DOPS   C3A37090  28.450  17.524  12.950 -0.1564  0.4729  0.2247
 3161DOPS   C4A37091  28.667  17.733  12.575 -0.1098 -0.0596 -0.0246
 3161DOPS   C1B37092  27.457  18.277  13.833  0.2608 -0.1557  0.0452
 3161DOPS   D2B37093  27.153  18.521  14.108 -0.2167 -0.3154 -0.1825
 3161DOPS   C3B37094  27.066  18.145  14.272  0.2713  0.0897  0.0401
 3161DOPS   C4B37095  27.064  17.709  14.233  0.1670  0.3114  0.1152
 3162DOPC   NC337096  25.723  22.003  12.058 -0.0925 -0.0669  0.0937
 3162DOPC   PO437097  25.360  21.881  12.084  0.2513 -0.0868 -0.1212
 3162DOPC   GL137098  25.460  21.715  12.350  0.2966  0.0943 -0.0695
 3162DOPC   GL237099  25.657  21.721  12.587 -0.1918 -0.0342 -0.5546
 3162DOPC   C1A37100  25.432  21.244  12.377 -0.1311 -0.0750  0.0970
 3162DOPC   D2A37101  25.312  20.857  12.183  0.2744 -0.0948 -0.0193
 3162DOPC   C3A37102  25.545  20.436  12.225  0.1781 -0.0158  0.0004
 3162DOPC   C4A37103  25.995  20.222  12.264  0.1130  0.0218  0.0581
 3162DOPC   C1B37104  25.607  21.575  13.016  0.1064  0.4568  0.2913
 3162DOPC   D2B37105  25.719  21.442  13.483  0.0838 -0.2197 -0.1046
 3162DOPC   C3B37106  25.892  21.016  13.578  0.2751 -0.0087 -0.1794
 3162DOPC   C4B37107  25.917  20.660  13.852 -0.1882  0.0024 -0.1937
 3163DOPE   NH337108  34.288  11.674  11.935  0.1326 -0.1272 -0.2379
 3163DOPE   PO437109  33.999  11.655  11.848 -0.1461 -0.1933  0.1094
 3163DOPE   GL137110  33.832  11.885  12.178 -0.0474 -0.0424  0.4166
 3163DOPE   GL237111  33.732  12.216  12.194 -0.3609  0.5158  0.0288
 3163DOPE   C1A37112  33.542  11.755  12.553  0.3049 -0.2001 -0.0177
 3163DOPE   D2A37113  33.286  11.447  12.770  0.1205 -0.1237 -0.0643
 3163DOPE   C3A37114  33.226  11.407  13.274  0.2037 -0.3719  0.0899
 3163DOPE   C4A37115  32.975  11.578  13.662  0.3595  0.0998 -0.1879
 3163DOPE   C1B37116  33.902  12.171  12.620  0.0702 -0.4582 -0.1111
 3163DOPE   D2B37117  33.822  11.969  13.007 -0.1977  0.3086  0.1704
 3163DOPE   C3B37118  33.622  11.766  13.404  0.2740  0.0914  0.4769
 3163DOPE   C4B37119  33.567  11.426  13.671 -0.2026  0.2700  0.0380
 3164DOPE   NH337120  23.175  23.035  12.601 -0.0797 -0.1014  0.1693
 3164DOPE   PO437121  23.441  22.869  12.572  0.2109  0.0276  0.1738
 3164DOPE   GL137122  23.583  22.923  12.960 -0.0881 -0.0721  0.0310
 3164DOPE   GL237123  23.701  22.599  12.904  0.0345  0.1995 -0.1062
 3164DOPE   C1A37124  23.574  23.272  13.295  0.4804  0.4183  0.1614
 3164DOPE   D2A37125  23.816  23.470  13.668  0.2088  0.0690  0.4017
 3164DOPE   C3A37126  23.769  23.258  14.073  0.2305 -0.2874 -0.2405
 3164DOPE   C4A37127  23.883  23.013  14.473 -0.2571 -0.0435 -0.0930
 3164DOPE   C1B37128  23.862  22.851  13.286 -0.0899 -0.1383 -0.1714
 3164DOPE   D2B37129  24.299  22.823  13.536  0.2448 -0.2687  0.1856
 3164DOPE   C3B37130  24.632  22.662  13.759 -0.0058 -0.2174  0.1971
 3164DOPE   C4B37131  24.725  22.335  14.102 -0.0893  0.1192  0.0533
 3165POSM   NC337132  29.040  14.352  12.481 -0.3342  0.0501 -0.0677
 3165POSM   PO437133  29.093  14.487  12.824  0.1121  0.0324 -0.1260
 3165POSM   AM137134  29.226  14.330  13.109 -0.1161  0.1265 -0.1700
 3165POSM   AM237135  29.474  14.248  13.160 -0.0817 -0.0286  0.1425
 3165POSM   T1A37136  29.166  14.193  13.608  0.3709 -0.1999 -0.1242
 3165POSM   C2A37137  28.913  14.201  13.999 -0.0379 -0.0956  0.0540
 3165POSM   C3A37138  28.690  13.958  14.285 -0.0856 -0.5161  0.0300
 3165POSM   C1B37139  29.651  14.257  13.486 -0.1736  0.0775  0.0478
 3165POSM   D2B37140  29.678  13.977  13.827  0.0563  0.2331  0.0561
 3165POSM   C3B37141  29.552  14.179  14.202 -0.0856 -0.0295 -0.3687
 3165POSM   C4B37142  29.180  14.341  14.408  0.0988 -0.1655 -0.1815
 3166DOPS   CNO37143  32.011  22.780  12.117  0.0233  0.2641 -0.3087
 3166DOPS   PO437144  32.348  22.658  12.289  0.0233 -0.0799 -0.1916
 3166DOPS   GL137145  32.407  22.362  12.602  0.2546 -0.1763  0.3877
 3166DOPS   GL237146  32.649  22.228  12.485  0.1318  0.2148 -0.0829
 3166DOPS   C1A37147  32.270  22.136  12.942  0.1163  0.1774  0.1066
 3166DOPS   D2A37148  32.176  21.748  13.181  0.3255  0.0820  0.1257
 3166DOPS   C3A37149  31.902  21.667  13.547 -0.1156 -0.0731  0.2581
 3166DOPS   C4A37150  31.753  21.910  13.962 -0.2679 -0.2379  0.2422
 3166DOPS   C1B37151  32.733  21.907  12.721  0.0919  0.0414 -0.1801
 3166DOPS   D2B37152  32.570  21.550  12.922 -0.0487  0.0566  0.1717
 3166DOPS   C3B37153  32.233  21.202  12.890 -0.3784 -0.4996 -0.3387
 3166DOPS   C4B37154  32.157  20.840  13.227 -0.1222  0.0284 -0.0041
 3167DOPC   NC337155  30.517  13.725  13.423  0.0226  0.0506 -0.0260
 3167DOPC   PO437156  30.531  13.755  13.029 -0.1881 -0.1688  0.1088
 3167DOPC   GL137157  30.171  13.524  13.191  0.0338  0.1122 -0.0039
 3167DOPC   GL237158  30.049  13.486  12.938  0.2124 -0.1305 -0.1383
 3167DOPC   C1A37159  30.088  13.557  13.632  0.0673  0.1115  0.0386
 3167DOPC   D2A37160  30.096  13.678  14.089 -0.2902 -0.0901 -0.1362
 3167DOPC   C3A37161  30.118  13.301  14.367 -0.1315  0.2908  0.1639
 3167DOPC   C4A37162  29.994  12.861  14.272 -0.2311 -0.2205 -0.1854
 3167DOPC   C1B37163  29.846  13.222  13.299  0.0516  0.1277 -0.0094
 3167DOPC   D2B37164  29.838  13.045  13.702 -0.0755 -0.1004 -0.0929
 3167DOPC   C3B37165  29.459  12.902  13.916 -0.0707  0.0369 -0.2236
 3167DOPC   C4B37166  29.076  12.708  14.147  0.0508 -0.0831  0.1322
 3168DOPE   NH337167  23.428  14.064  11.848 -0.1288  0.2542 -0.0568
 3168DOPE   PO437168  23.295  14.156  12.119  0.1369 -0.1934  0.2619
 3168DOPE   GL137169  23.454  14.260  12.399 -0.2611 -0.0575 -0.1530
 3168DOPE   GL237170  23.757  14.142  12.424 -0.0699 -0.0162 -0.0939
 3168DOPE   C1A37171  23.450  14.107  12.866  0.1906  0.2865  0.4492
 3168DOPE   D2A37172  23.688  13.792  13.091  0.2806 -0.2764 -0.0633
 3168DOPE   C3A37173  23.683  13.335  13.272  0.2399 -0.2798 -0.1039
 3168DOPE   C4A37174  24.006  12.950  13.245  0.3225  0.1992 -0.3325
 3168DOPE   C1B37175  24.079  14.230  12.722  0.1780  0.2578  0.2351
 3168DOPE   D2B37176  24.316  13.974  13.031 -0.0396 -0.1356  0.0230
 3168DOPE   C3B37177  24.123  14.065  13.432  0.1767 -0.0333  0.0171
 3168DOPE   C4B37178  24.084  14.404  13.719  0.0154  0.0536 -0.0370
 3169DOPS   CNO37179  29.798  14.381  12.415 -0.0984  0.2570 -0.1604
 3169DOPS   PO437180  29.493  14.487  12.232 -0.2465  0.2144 -0.0705
 3169DOPS   GL137181  29.472  14.060  12.414 -0.1282  0.2260 -0.4596
 3169DOPS   GL237182  29.451  14.170  12.650  0.0512 -0.0113 -0.0528
 3169DOPS   C1A37183  29.701  13.630  12.467  0.1797 -0.0283  0.2579
 3169DOPS   D2A37184  29.860  13.159  12.555  0.2152 -0.1054  0.0101
 3169DOPS   C3A37185  29.507  12.882  12.398 -0.0950 -0.0143  0.1345
 3169DOPS   C4A37186  29.114  12.593  12.403  0.0853  0.0826 -0.2140
 3169DOPS   C1B37187  29.306  13.836  12.848 -0.4486  0.3817 -0.1953
 3169DOPS   D2B37188  29.384  13.521  13.184 -0.2421  0.0871  0.0869
 3169DOPS   C3B37189  29.514  13.507  13.632 -0.0965  0.4095  0.2315
 3169DOPS   C4B37190  29.495  13.435  14.062 -0.0401  0.0638 -0.0022
 3170DOPS   CNO37191  33.434  20.130  12.059 -0.1499 -0.0735  0.1531
 3170DOPS   PO437192  33.613  20.438  12.249  0.0485 -0.1945  0.0219
 3170DOPS   GL137193  33.297  20.631  12.380 -0.0427 -0.0031  0.5226
 3170DOPS   GL237194  33.104  20.453  12.278  0.0195 -0.1746  0.1587
 3170DOPS   C1A37195  33.085  20.563  12.829  0.1656  0.2886  0.0193
 3170DOPS   D2A37196  32.908  20.382  13.195  0.2548 -0.3883  0.0263
 3170DOPS   C3A37197  33.184  20.197  13.534 -0.0273  0.1670  0.1481
 3170DOPS   C4A37198  33.381  20.341  13.940 -0.0785  0.0973 -0.1184
 3170DOPS   C1B37199  32.713  20.431  12.494 -0.0504 -0.2832 -0.0568
 3170DOPS   D2B37200  32.479  20.540  12.853  0.0045  0.0755 -0.1102
 3170DOPS   C3B37201  32.058  20.371  12.901  0.0812  0.2054  0.1535
 3170DOPS   C4B37202  31.672  20.461  13.060 -0.2394 -0.0111  0.1049
 3171DOPE   NH337203  24.013  22.045  11.910  0.2279 -0.1148 -0.1906
 3171DOPE   PO437204  23.780  22.065  12.095  0.0672  0.1785  0.1636
 3171DOPE   GL137205  23.872  22.056  12.458 -0.0013  0.4163 -0.1577
 3171DOPE   GL237206  23.661  22.007  12.610  0.2188 -0.1612  0.1098
 3171DOPE   C1A37207  24.040  22.012  12.901  0.1346  0.0539  0.0859
 3171DOPE   D2A37208  24.111  21.880  13.312 -0.0416  0.1057  0.2710
 3171DOPE   C3A37209  23.797  22.037  13.648 -0.3594  0.0185 -0.0599
 3171DOPE   C4A37210  23.413  22.305  13.762  0.0106  0.0084  0.0998
 3171DOPE   C1B37211  23.366  21.608  12.630 -0.1146  0.1500  0.3266
 3171DOPE   D2B37212  23.263  21.135  12.529 -0.0017  0.0094 -0.4281
 3171DOPE   C3B37213  22.886  20.872  12.589 -0.0671  0.1172 -0.0220
 3171DOPE   C4B37214  22.711  20.526  12.894  0.2119 -0.0318 -0.3175
 3172DOPE   NH337215  27.469  17.646  12.914  0.0205 -0.0803 -0.1752
 3172DOPE   PO437216  27.529  17.681  12.583 -0.0005  0.2254 -0.3284
 3172DOPE   GL137217  27.959  17.570  12.642  0.1320 -0.1142 -0.5900
 3172DOPE   GL237218  27.965  17.475  12.899  0.3096 -0.1700  0.0003
 3172DOPE   C1A37219  28.331  17.421  12.392 -0.0673  0.0020 -0.1336
 3172DOPE   D2A37220  28.693  17.186  12.567 -0.3271 -0.0830  0.3718
 3172DOPE   C3A37221  29.151  17.230  12.473 -0.1825 -0.0531  0.2882
 3172DOPE   C4A37222  29.600  17.098  12.600  0.1310  0.0757 -0.0774
 3172DOPE   C1B37223  27.951  17.140  13.197 -0.1331  0.2525  0.4893
 3172DOPE   D2B37224  28.062  16.647  13.307 -0.0397  0.1833 -0.2786
 3172DOPE   C3B37225  27.950  16.378  13.692 -0.1388  0.1307 -0.2803
 3172DOPE   C4B37226  28.103  16.206  14.087 -0.0134 -0.1849 -0.1880
 3173POSM   NC337227   0.295  12.288  12.225 -0.2870 -0.1281  0.0657
 3173POSM   PO437228   0.077  11.995  12.053  0.2850 -0.0186  0.1260
 3173POSM   AM137229  -0.097  12.045  12.323  0.1684  0.1494  0.1369
 3173POSM   AM237230  -0.303  11.870  12.434 -0.1841  0.0847 -0.2401
 3173POSM   T1A37231  -0.281  12.218  12.773  0.1145 -0.0426  0.0755
 3173POSM   C2A37232  -0.625  12.517  12.920  0.1059  0.0378  0.2431
 3173POSM   C3A37233  -1.035  12.635  12.659 -0.1235  0.2836 -0.2968
 3173POSM   C1B37234  -0.468  11.750  12.690  0.1659  0.1119  0.0491
 3173POSM   D2B37235  -0.508  11.600  13.122 -0.0314 -0.0431 -0.1793
 3173POSM   C3B37236  -0.160  11.682  13.433  0.0827  0.4491  0.3758
 3173POSM   C4B37237  -0.170  11.915  13.802 -0.3243 -0.1359  0.0751
 3174DOPC   NC337238  30.879  15.178  13.406  0.4508  0.1012  0.0313
 3174DOPC   PO437239  31.021  15.155  13.069  0.2259 -0.0267 -0.1756
 3174DOPC   GL137240  31.192  15.508  13.313 -0.2727 -0.1782  0.3178
 3174DOPC   GL237241  31.101  15.716  13.409 -0.0990  0.3017 -0.1392
 3174DOPC   C1A37242  31.597  15.772  13.309 -0.0187  0.3216  0.2871
 3174DOPC   D2A37243  31.567  16.146  13.630  0.3289  0.0028  0.1079
 3174DOPC   C3A37244  31.525  16.146  14.093 -0.0323 -0.0752 -0.1753
 3174DOPC   C4A37245  31.452  16.388  14.488 -0.0901 -0.0776  0.0555
 3174DOPC   C1B37246  31.042  15.828  13.858 -0.0587 -0.0726 -0.0055
 3174DOPC   D2B37247  31.029  16.173  14.169 -0.1131 -0.2206  0.0604
 3174DOPC   C3B37248  30.732  16.548  14.292  0.0175 -0.0948  0.3094
 3174DOPC   C4B37249  30.727  16.926  14.558 -0.2584  0.1100 -0.1408
 3175DOPC   NC337250  26.863  16.323  12.922 -0.0496  0.1940 -0.2963
 3175DOPC   PO437251  27.040  16.450  12.638  0.0058  0.3369 -0.1057
 3175DOPC   GL137252  27.222  16.620  12.997 -0.1249 -0.0940 -0.0574
 3175DOPC   GL237253  27.192  16.940  13.095  0.2804 -0.1334  0.1735
 3175DOPC   C1A37254  27.218  16.560  13.422  0.1772 -0.4267 -0.1348
 3175DOPC   D2A37255  27.026  16.877  13.740  0.0778 -0.2108 -0.0788
 3175DOPC   C3A37256  26.851  16.642  14.103 -0.3247 -0.0190 -0.1958
 3175DOPC   C4A37257  26.448  16.474  14.302  0.1554 -0.0927 -0.0783
 3175DOPC   C1B37258  27.562  16.882  13.345 -0.3050 -0.1286  0.0781
 3175DOPC   D2B37259  27.754  16.820  13.797 -0.0638 -0.0059  0.1190
 3175DOPC   C3B37260  28.240  16.887  13.807 -0.0058  0.0809  0.1713
 3175DOPC   C4B37261  28.638  17.150  13.805 -0.2349 -0.0709  0.1466
 3176DOPE   NH337262  32.135  23.147  12.527 -0.1882 -0.2503  0.0066
 3176DOPE   PO437263  32.049  23.115  12.840  0.0491  0.1002  0.3921
 3176DOPE   GL137264  32.112  23.034  13.234 -0.0753 -0.0991 -0.1268
 3176DOPE   GL237265  32.332  22.905  13.238 -0.2703 -0.2427  0.1446
 3176DOPE   C1A37266  31.795  23.215  13.466  0.1632 -0.5199 -0.0208
 3176DOPE   D2A37267  31.644  23.576  13.700  0.2413 -0.2367 -0.0722
 3176DOPE   C3A37268  31.727  23.453  14.117  0.0713  0.0633 -0.0055
 3176DOPE   C4A37269  31.464  23.320  14.453  0.4078  0.1113 -0.4136
 3176DOPE   C1B37270  32.573  22.847  13.548  0.2079 -0.0412 -0.2852
 3176DOPE   D2B37271  32.534  22.885  13.984  0.0110 -0.1883  0.3774
 3176DOPE   C3B37272  32.237  22.626  14.096 -0.0121  0.1284 -0.0815
 3176DOPE   C4B37273  32.058  22.263  14.196 -0.0386 -0.2543  0.2383
 3177POSM   NC337274  34.178  22.979  12.320  0.2129  0.0269 -0.0335
 3177POSM   PO437275  34.177  22.629  12.477  0.1403  0.2329 -0.1282
 3177POSM   AM137276  33.855  22.642  12.628 -0.0343 -0.0863 -0.2377
 3177POSM   AM237277  33.676  22.753  12.846 -0.0340  0.1667 -0.3339
 3177POSM   T1A37278  33.424  22.367  12.592  0.0143  0.1109  0.1053
 3177POSM   C2A37279  33.135  22.039  12.493 -0.1001 -0.0865 -0.5401
 3177POSM   C3A37280  33.006  21.558  12.436 -0.2576  0.0724  0.1405
 3177POSM   C1B37281  33.751  22.775  13.196 -0.0684 -0.1375  0.3688
 3177POSM   D2B37282  33.748  22.728  13.648 -0.3256 -0.1342 -0.1236
 3177POSM   C3B37283  33.733  23.082  13.944  0.2741 -0.1595 -0.0697
 3177POSM   C4B37284  33.954  23.056  14.375  0.3103  0.4895  0.1047
 3178DOPE   NH337285  30.212  17.658  13.513 -0.2405 -0.0637  0.0462
 3178DOPE   PO437286  29.933  17.786  13.387 -0.1740 -0.2748 -0.2967
 3178DOPE   GL137287  29.698  17.887  13.664 -0.4780 -0.0698  0.3313
 3178DOPE   GL237288  29.724  17.772  13.892  0.1441 -0.0565  0.1977
 3178DOPE   C1A37289  29.479  18.173  14.017  0.0454  0.1681  0.3258
 3178DOPE   D2A37290  29.374  18.585  14.267 -0.1609 -0.0810  0.3731
 3178DOPE   C3A37291  29.622  18.740  14.527  0.0540 -0.0500  0.1629
 3178DOPE   C4A37292  29.845  18.794  14.911  0.1332  0.0326  0.1188
 3178DOPE   C1B37293  29.558  17.750  14.288 -0.1805  0.1572  0.1383
 3178DOPE   D2B37294  29.154  17.669  14.622  0.0393  0.0928 -0.1608
 3178DOPE   C3B37295  29.231  17.982  15.010 -0.2821 -0.1928 -0.1771
 3178DOPE   C4B37296  29.514  18.389  15.121  0.1718  0.1265  0.2392
 3179DOPC   NC337297  31.459  18.034  13.431  0.1058 -0.0141 -0.1089
 3179DOPC   PO437298  31.211  17.790  13.206 -0.3518  0.1273 -0.4341
 3179DOPC   GL137299  30.952  17.983  13.435  0.0349  0.0984  0.0146
 3179DOPC   GL237300  30.831  17.745  13.470  0.0265 -0.3371 -0.0949
 3179DOPC   C1A37301  30.963  17.941  13.909 -0.1871  0.1625 -0.2193
 3179DOPC   D2A37302  31.154  17.801  14.289 -0.0760  0.1502 -0.0645
 3179DOPC   C3A37303  31.506  17.772  14.667 -0.1349  0.0931 -0.0179
 3179DOPC   C4A37304  31.588  18.089  14.975 -0.2263  0.0241 -0.0266
 3179DOPC   C1B37305  30.664  17.445  13.752 -0.1226  0.2282  0.3180
 3179DOPC   D2B37306  30.472  17.227  14.111 -0.0218  0.3132  0.0229
 3179DOPC   C3B37307  30.450  17.358  14.576  0.1891  0.0552  0.0554
 3179DOPC   C4B37308  30.665  17.492  14.977  0.2131  0.1362  0.0305
 3180DOPS   CNO37309  25.549  11.490  12.203  0.0589  0.1736 -0.0135
 3180DOPS   PO437310  25.775  11.779  12.190  0.1926 -0.0832 -0.0141
 3180DOPS   GL137311  25.371  11.937  12.261  0.5749  0.4577 -0.0086
 3180DOPS   GL237312  25.393  12.059  12.615 -0.0355 -0.0090 -0.1182
 3180DOPS   C1A37313  24.939  12.094  12.109  0.2436 -0.1597 -0.1258
 3180DOPS   D2A37314  24.627  12.441  12.086  0.1271 -0.2138  0.2124
 3180DOPS   C3A37315  24.524  12.639  12.483  0.0168  0.0385  0.2477
 3180DOPS   C4A37316  24.269  12.445  12.788  0.3657 -0.0485 -0.1907
 3180DOPS   C1B37317  25.404  12.165  13.094  0.0598  0.0996 -0.0299
 3180DOPS   D2B37318  25.601  12.471  13.433 -0.1371 -0.0648 -0.3005
 3180DOPS   C3B37319  25.657  12.706  13.926  0.5311  0.3442 -0.1960
 3180DOPS   C4B37320  25.278  12.761  14.228  0.1212 -0.0796  0.2604
 3181DOPE   NH337321  27.642  20.712  12.332 -0.0588 -0.0858  0.2148
 3181DOPE   PO437322  27.676  20.833  12.630  0.0430 -0.0633  0.3415
 3181DOPE   GL137323  27.503  20.683  13.024 -0.0431  0.3233  0.1956
 3181DOPE   GL237324  27.653  20.938  13.166 -0.4193  0.0326  0.3552
 3181DOPE   C1A37325  27.156  20.764  13.267 -0.0816  0.3571 -0.2648
 3181DOPE   D2A37326  26.928  20.696  13.669  0.0560 -0.1237  0.1038
 3181DOPE   C3A37327  26.656  20.412  13.859  0.3824 -0.1271  0.2301
 3181DOPE   C4A37328  26.387  20.023  13.803  0.1464  0.0895  0.2180
 3181DOPE   C1B37329  27.458  21.148  13.533  0.0467  0.0672 -0.1783
 3181DOPE   D2B37330  27.245  21.091  13.867 -0.0352 -0.1106 -0.0952
 3181DOPE   C3B37331  27.482  20.944  14.271  0.1847  0.1069 -0.3027
 3181DOPE   C4B37332  27.638  21.094  14.712 -0.1687  0.1890  0.3583
 3182DOPE   NH337333  26.277  16.026  12.563 -0.2387 -0.1312  0.2005
 3182DOPE   PO437334  26.394  16.277  12.671  0.0887  0.2450  0.3086
 3182DOPE   GL137335  26.474  16.040  12.945  0.2123  0.0264  0.0313
 3182DOPE   GL237336  26.329  16.153  13.151 -0.0712  0.4192  0.2683
 3182DOPE   C1A37337  26.764  16.027  13.331  0.0956 -0.0527 -0.0667
 3182DOPE   D2A37338  26.996  16.132  13.745 -0.1171 -0.3263  0.5321
 3182DOPE   C3A37339  26.683  15.956  14.013 -0.1408  0.1137  0.1411
 3182DOPE   C4A37340  26.423  15.658  13.879 -0.2230  0.4382  0.1054
 3182DOPE   C1B37341  26.202  15.740  13.363 -0.0083  0.2801  0.0940
 3182DOPE   D2B37342  26.126  15.270  13.596 -0.1024  0.1962  0.2854
 3182DOPE   C3B37343  25.792  15.021  13.525  0.3189 -0.2485  0.0050
 3182DOPE   C4B37344  25.436  14.643  13.568 -0.2119  0.2359  0.1899
 3183DOPS   CNO37345  33.627  23.161  12.264 -0.1032 -0.1337  0.1851
 3183DOPS   PO437346  33.831  23.203  12.608  0.1093 -0.0529  0.0284
 3183DOPS   GL137347  33.879  23.166  12.994  0.0087 -0.0931  0.2383
 3183DOPS   GL237348  34.114  23.348  13.141  0.3689  0.1390 -0.0103
 3183DOPS   C1A37349  33.661  23.201  13.433  0.2257  0.0386 -0.0082
 3183DOPS   D2A37350  33.688  23.546  13.750  0.2627  0.0275  0.4035
 3183DOPS   C3A37351  34.079  23.424  13.963  0.0023  0.1817  0.0824
 3183DOPS   C4A37352  34.483  23.374  13.775 -0.0433 -0.1315  0.2804
 3183DOPS   C1B37353  34.106  23.097  13.517 -0.0426 -0.4019  0.3233
 3183DOPS   D2B37354  34.275  22.836  13.859  0.0056  0.3968 -0.0986
 3183DOPS   C3B37355  34.581  23.015  14.166  0.2395  0.2254  0.1214
 3183DOPS   C4B37356  34.502  23.195  14.586  0.0908  0.1719 -0.0749
 3184DOPE   NH337357  34.397  15.032  12.838  0.1889  0.0317  0.0619
 3184DOPE   PO437358  34.368  14.720  12.748  0.1150  0.1263 -0.1309
 3184DOPE   GL137359  34.280  14.639  13.117 -0.2216  0.0176  0.0616
 3184DOPE   GL237360  34.388  14.320  13.023 -0.0485 -0.3005 -0.1994
 3184DOPE   C1A37361  34.546  14.781  13.470 -0.1599  0.2161 -0.0205
 3184DOPE   D2A37362  34.575  14.996  13.877 -0.1161 -0.2695 -0.5321
 3184DOPE   C3A37363  34.741  15.438  13.904  0.1861 -0.1293  0.0946
 3184DOPE   C4A37364  35.057  15.799  14.023  0.1711 -0.2829 -0.0101
 3184DOPE   C1B37365  34.513  13.932  13.257  0.0362  0.0354  0.1293
 3184DOPE   D2B37366  34.633  13.614  13.555 -0.1134  0.0820  0.0598
 3184DOPE   C3B37367  34.982  13.260  13.426 -0.3028 -0.3496 -0.1396
 3184DOPE   C4B37368  35.279  13.001  13.173  0.0119  0.1660 -0.0274
 3185DOPS   CNO37369  28.529  11.089  11.700  0.0162 -0.2491  0.1149
 3185DOPS   PO437370  28.855  11.231  11.815  0.0788  0.1136 -0.3379
 3185DOPS   GL137371  28.677  11.397  12.044 -0.2284  0.2786  0.1310
 3185DOPS   GL237372  28.585  11.496  12.343 -0.0030  0.1495 -0.1085
 3185DOPS   C1A37373  28.342  11.689  11.901  0.5572  0.5036  0.0420
 3185DOPS   D2A37374  27.986  11.989  11.819  0.4990 -0.1714 -0.1737
 3185DOPS   C3A37375  27.894  12.288  12.186 -0.1591 -0.1532  0.1094
 3185DOPS   C4A37376  27.838  12.353  12.632 -0.0647 -0.1652  0.1158
 3185DOPS   C1B37377  28.613  11.603  12.777  0.0816  0.1316 -0.1976
 3185DOPS   D2B37378  28.814  11.731  13.194 -0.3354 -0.0941  0.0097
 3185DOPS   C3B37379  29.102  11.754  13.578 -0.0384 -0.0932  0.0192
 3185DOPS   C4B37380  29.110  11.652  14.039 -0.1154  0.0865 -0.2086
 3186DOPS   CNO37381  34.490  12.506  12.269  0.0998  0.1825  0.2093
 3186DOPS   PO437382  34.778  12.744  12.268  0.3202 -0.2692  0.1151
 3186DOPS   GL137383  34.672  12.602  12.662 -0.3898 -0.1343 -0.0969
 3186DOPS   GL237384  34.441  12.742  12.690 -0.3262  0.0296  0.2863
 3186DOPS   C1A37385  34.678  12.507  13.101  0.1216 -0.0592 -0.0351
 3186DOPS   D2A37386  34.486  12.163  13.360  0.0806  0.1202  0.1948
 3186DOPS   C3A37387  34.047  12.117  13.552  0.1110 -0.0213 -0.2732
 3186DOPS   C4A37388  33.823  12.428  13.799  0.1784  0.1133 -0.1720
 3186DOPS   C1B37389  34.177  13.028  13.000  0.0777  0.1077 -0.0292
 3186DOPS   D2B37390  33.789  13.029  13.257  0.0345  0.0579  0.0784
 3186DOPS   C3B37391  33.682  13.336  13.612  0.0432  0.1172 -0.2972
 3186DOPS   C4B37392  33.972  13.415  13.984  0.0566 -0.0270  0.0502
 3187DOPC   NC337393  27.832  13.633  12.342  0.0377  0.2373 -0.2278
 3187DOPC   PO437394  27.705  13.783  12.031  0.0396 -0.2047  0.0160
 3187DOPC   GL137395  27.277  13.649  12.213 -0.2133  0.0994 -0.1656
 3187DOPC   GL237396  27.345  13.754  12.460  0.2582  0.0155 -0.1159
 3187DOPC   C1A37397  27.013  13.261  12.221  0.2515 -0.2319 -0.1229
 3187DOPC   D2A37398  26.773  12.956  12.449  0.0962  0.2470  0.0159
 3187DOPC   C3A37399  26.756  12.881  12.935 -0.0991 -0.3547  0.1306
 3187DOPC   C4A37400  26.878  13.149  13.310  0.2251 -0.1208 -0.6013
 3187DOPC   C1B37401  27.394  13.310  12.633  0.0765  0.3330  0.0794
 3187DOPC   D2B37402  27.289  13.269  13.070  0.1099 -0.1653  0.0133
 3187DOPC   C3B37403  27.407  13.136  13.530  0.0290 -0.0728  0.2760
 3187DOPC   C4B37404  27.643  13.159  13.932 -0.0829 -0.1209 -0.0568
 3188DOPC   NC337405  33.207  18.726  12.691  0.3638 -0.4679  0.1102
 3188DOPC   PO437406  32.832  18.569  12.700  0.1854 -0.2714  0.3882
 3188DOPC   GL137407  32.800  18.716  13.132  0.4338 -0.1702  0.0849
 3188DOPC   GL237408  32.579  18.930  13.144  0.0200 -0.0894  0.0167
 3188DOPC   C1A37409  32.686  18.706  13.561 -0.0270 -0.1609 -0.1717
 3188DOPC   D2A37410  32.760  18.965  13.936 -0.1714  0.3391 -0.1059
 3188DOPC   C3A37411  32.447  19.273  14.044 -0.2178  0.0110 -0.3136
 3188DOPC   C4A37412  31.999  19.457  13.918 -0.1321 -0.1943  0.0742
 3188DOPC   C1B37413  32.557  19.237  13.545 -0.0548 -0.2750 -0.5739
 3188DOPC   D2B37414  32.696  19.701  13.605 -0.1123  0.1802  0.1864
 3188DOPC   C3B37415  32.849  19.586  14.039 -0.1596  0.1069 -0.3174
 3188DOPC   C4B37416  32.933  19.713  14.507  0.0910 -0.4058  0.0115
 3189DOPE   NH337417  30.346  15.237  12.984 -0.2490  0.0137  0.1024
 3189DOPE   PO437418  30.047  15.112  13.099 -0.0528 -0.0630  0.2157
 3189DOPE   GL137419  29.915  14.783  13.229  0.0976  0.2008 -0.0216
 3189DOPE   GL237420  29.640  14.819  13.335 -0.0718  0.1321  0.1247
 3189DOPE   C1A37421  30.010  14.699  13.657  0.0153 -0.0231 -0.0843
 3189DOPE   D2A37422  29.992  14.754  14.138  0.0487  0.3027  0.0497
 3189DOPE   C3A37423  30.128  15.068  14.420  0.0588  0.3633 -0.4652
 3189DOPE   C4A37424  30.331  15.382  14.710  0.0991 -0.3256 -0.0794
 3189DOPE   C1B37425  29.654  15.201  13.550  0.0555 -0.0763 -0.1190
 3189DOPE   D2B37426  29.550  15.553  13.814 -0.1115 -0.2318  0.0340
 3189DOPE   C3B37427  29.673  15.757  14.241 -0.0850  0.1726  0.1037
 3189DOPE   C4B37428  29.590  15.553  14.597 -0.0892  0.1604 -0.2508
 3190DOPC   NC337429  32.405  23.531  12.351 -0.0635  0.0578 -0.1629
 3190DOPC   PO437430  32.624  23.241  12.489  0.3081 -0.1391 -0.1052
 3190DOPC   GL137431  32.508  23.250  12.926 -0.3033 -0.1635  0.3677
 3190DOPC   GL237432  32.842  23.134  12.934  0.0969  0.0176 -0.2880
 3190DOPC   C1A37433  32.599  23.328  13.356 -0.3625 -0.0587  0.0558
 3190DOPC   D2A37434  32.723  23.308  13.823 -0.0240 -0.2315  0.0161
 3190DOPC   C3A37435  32.414  23.491  14.092  0.1334  0.1760  0.1496
 3190DOPC   C4A37436  32.272  23.882  14.340 -0.0993  0.1037 -0.2772
 3190DOPC   C1B37437  33.174  22.786  12.997  0.2191 -0.1278 -0.3267
 3190DOPC   D2B37438  33.345  22.576  13.365  0.0283 -0.0144  0.0513
 3190DOPC   C3B37439  33.251  22.137  13.448 -0.2759  0.0982  0.1099
 3190DOPC   C4B37440  33.202  21.694  13.488 -0.0781 -0.0748  0.0335
 3191POSM   NC337441  29.158  14.739  13.467  0.4193 -0.0895 -0.0452
 3191POSM   PO437442  28.869  14.629  13.247  0.0589 -0.0613  0.0763
 3191POSM   AM137443  28.802  14.318  13.282  0.3089  0.0969 -0.0283
 3191POSM   AM237444  28.768  14.153  13.080 -0.0854 -0.0605  0.0631
 3191POSM   T1A37445  28.711  13.925  13.640  0.0174 -0.2913 -0.2513
 3191POSM   C2A37446  28.298  13.905  13.918  0.3275 -0.1561 -0.1114
 3191POSM   C3A37447  27.863  13.914  14.044 -0.0658  0.0206 -0.1459
 3191POSM   C1B37448  28.952  13.862  13.201  0.3192 -0.0777  0.3192
 3191POSM   D2B37449  29.042  13.558  13.518 -0.0405  0.1445  0.0016
 3191POSM   C3B37450  29.148  13.786  13.875  0.2219 -0.0774  0.1403
 3191POSM   C4B37451  29.159  13.771  14.311 -0.0576  0.2389  0.4096
 3192DOPC   NC337452  26.634  18.416  12.610  0.1370  0.1054  0.0098
 3192DOPC   PO437453  26.874  18.688  12.721 -0.0287  0.0446 -0.0402
 3192DOPC   GL137454  26.784  19.114  12.736  0.0296 -0.3002  0.1744
 3192DOPC   GL237455  26.603  19.154  12.473  0.2861  0.0677 -0.2672
 3192DOPC   C1A37456  26.723  19.324  13.114 -0.0418  0.1226  0.2105
 3192DOPC   D2A37457  26.626  19.677  13.421 -0.0200  0.0349 -0.2399
 3192DOPC   C3A37458  26.164  19.644  13.587  0.2057  0.1920  0.2242
 3192DOPC   C4A37459  25.924  19.317  13.856  0.0479 -0.0984 -0.2215
 3192DOPC   C1B37460  26.691  19.608  12.640 -0.1502  0.1969 -0.2373
 3192DOPC   D2B37461  26.935  19.840  13.045  0.0757 -0.1696  0.2921
 3192DOPC   C3B37462  26.723  20.182  13.331 -0.0721 -0.0441 -0.1857
 3192DOPC   C4B37463  26.693  20.606  13.188  0.2366  0.0607 -0.1226
 3193DOPC   NC337464  28.993  20.472  12.579  0.0586  0.0839 -0.1108
 3193DOPC   PO437465  29.137  20.861  12.582 -0.0541  0.0599  0.0961
 3193DOPC   GL137466  29.293  20.815  12.982 -0.4411 -0.0120  0.2216
 3193DOPC   GL237467  29.334  20.532  13.034 -0.1052  0.0195  0.0852
 3193DOPC   C1A37468  29.751  20.708  13.102  0.3022 -0.3129 -0.1859
 3193DOPC   D2A37469  29.812  20.669  13.566 -0.0346  0.0130  0.0615
 3193DOPC   C3A37470  29.940  20.603  14.010 -0.1012  0.0628  0.2826
 3193DOPC   C4A37471  29.864  20.824  14.396 -0.3089 -0.0065  0.4210
 3193DOPC   C1B37472  29.550  20.319  13.405 -0.1438  0.0985  0.0571
 3193DOPC   D2B37473  29.644  20.208  13.822  0.3589  0.0455 -0.0513
 3193DOPC   C3B37474  29.989  19.984  14.123  0.1605 -0.1613 -0.1007
 3193DOPC   C4B37475  30.171  20.354  14.342  0.1144  0.2557 -0.1167
 3194DOPE   NH337476  27.377  21.390  12.306 -0.3674 -0.2132  0.0254
 3194DOPE   PO437477  27.208  21.082  12.448  0.5367 -0.0423  0.1555
 3194DOPE   GL137478  26.868  21.235  12.608  0.5318  0.0476  0.1273
 3194DOPE   GL237479  26.847  21.446  12.390 -0.0396 -0.0347 -0.0296
 3194DOPE   C1A37480  26.763  21.123  13.060  0.0510  0.2716 -0.2312
 3194DOPE   D2A37481  26.765  21.163  13.541 -0.2489 -0.1377 -0.1610
 3194DOPE   C3A37482  26.954  21.481  13.914 -0.1598  0.1532  0.2897
 3194DOPE   C4A37483  27.117  21.390  14.408  0.2140  0.0113  0.0788
 3194DOPE   C1B37484  26.461  21.455  12.592 -0.1958 -0.0799 -0.0489
 3194DOPE   D2B37485  26.155  21.497  12.937 -0.0814 -0.3035  0.0996
 3194DOPE   C3B37486  26.309  21.409  13.328 -0.2138  0.0019 -0.3396
 3194DOPE   C4B37487  26.328  21.411  13.808 -0.1665 -0.1589  0.0706
 3195DOPE   NH337488  25.602  22.942  12.312 -0.0489  0.0144 -0.1346
 3195DOPE   PO437489  25.613  23.261  12.429  0.4121 -0.0610  0.0538
 3195DOPE   GL137490  25.563  23.098  12.796  0.0409 -0.1552  0.1915
 3195DOPE   GL237491  25.300  23.038  12.744  0.0177 -0.0993  0.1192
 3195DOPE   C1A37492  25.476  22.791  13.168  0.0149  0.0397 -0.1543
 3195DOPE   D2A37493  25.507  22.675  13.642 -0.3333  0.1012 -0.1691
 3195DOPE   C3A37494  25.503  22.911  14.087 -0.1251  0.0167 -0.1227
 3195DOPE   C4A37495  25.520  23.147  14.468 -0.2884 -0.3270 -0.3403
 3195DOPE   C1B37496  24.988  23.142  13.091  0.0020 -0.2508  0.0303
 3195DOPE   D2B37497  24.662  23.271  13.391 -0.2580  0.0404  0.0362
 3195DOPE   C3B37498  24.638  23.576  13.718 -0.0881  0.2461 -0.0177
 3195DOPE   C4B37499  24.452  23.884  14.111 -0.1343 -0.2064 -0.2120
 3196DOPC   NC337500  22.668  18.229  11.701  0.1699  0.1553 -0.0725
 3196DOPC   PO437501  22.892  17.937  11.736 -0.1293 -0.0398 -0.0274
 3196DOPC   GL137502  22.709  17.926  12.076  0.3275  0.0413  0.4964
 3196DOPC   GL237503  22.463  17.848  12.039  0.0866  0.0526 -0.2063
 3196DOPC   C1A37504  22.605  18.208  12.408 -0.0249  0.2779 -0.1524
 3196DOPC   D2A37505  22.862  18.454  12.711 -0.0211  0.0619 -0.0715
 3196DOPC   C3A37506  22.960  18.432  13.195  0.0512 -0.2095 -0.0273
 3196DOPC   C4A37507  23.341  18.338  13.465  0.1986 -0.0235  0.1862
 3196DOPC   C1B37508  22.569  17.676  12.449 -0.0107 -0.1908  0.1456
 3196DOPC   D2B37509  22.708  17.367  12.761 -0.2102 -0.1287 -0.2216
 3196DOPC   C3B37510  22.384  17.104  12.748  0.0032  0.2187 -0.2234
 3196DOPC   C4B37511  22.111  16.810  12.514  0.4684 -0.0537 -0.2419
 3197DOPE   NH337512  32.986  18.308  13.307  0.0203 -0.0889 -0.1384
 3197DOPE   PO437513  32.997  17.990  13.197  0.6024  0.1538 -0.2443
 3197DOPE   GL137514  32.897  17.965  13.618 -0.0095  0.1521 -0.0751
 3197DOPE   GL237515  32.645  18.077  13.659 -0.2412 -0.0651  0.1053
 3197DOPE   C1A37516  33.109  17.904  13.994  0.1151 -0.0858 -0.0680
 3197DOPE   D2A37517  33.494  17.610  14.023  0.1801  0.0708 -0.1737
 3197DOPE   C3A37518  33.873  17.790  14.200  0.1543 -0.3764 -0.0999
 3197DOPE   C4A37519  34.240  17.761  14.496  0.2734  0.0873  0.1606
 3197DOPE   C1B37520  32.880  18.398  13.915  0.0256  0.1405  0.1499
 3197DOPE   D2B37521  33.075  18.300  14.331  0.0992  0.1938 -0.2996
 3197DOPE   C3B37522  32.852  17.903  14.503  0.0622  0.1814 -0.2076
 3197DOPE   C4B37523  32.659  17.631  14.816  0.1378  0.0738 -0.0451
 3198DOPS   CNO37524  29.769  22.639  12.361 -0.1987 -0.0937  0.1364
 3198DOPS   PO437525  29.824  22.336  12.625  0.1053  0.2483  0.1493
 3198DOPS   GL137526  29.845  22.365  13.001 -0.2475 -0.1442  0.1413
 3198DOPS   GL237527  29.815  22.677  12.939 -0.1843  0.0553 -0.2876
 3198DOPS   C1A37528  29.861  22.020  13.272 -0.0931 -0.0638  0.1819
 3198DOPS   D2A37529  29.920  21.794  13.651 -0.1195 -0.0557  0.1470
 3198DOPS   C3A37530  29.644  21.708  14.030 -0.1646 -0.0073  0.0066
 3198DOPS   C4A37531  29.361  21.831  14.389  0.2204 -0.0352  0.1400
 3198DOPS   C1B37532  29.922  22.898  13.350 -0.0818  0.0443  0.2368
 3198DOPS   D2B37533  30.074  22.947  13.784 -0.2477  0.1411  0.1412
 3198DOPS   C3B37534  30.021  22.574  14.114 -0.1142 -0.2139  0.0649
 3198DOPS   C4B37535  29.898  22.568  14.616  0.2000  0.0134  0.2298
 3199DOPC   NC337536  27.218  21.218  12.959 -0.2125 -0.0003  0.2041
 3199DOPC   PO437537  27.196  21.529  12.769  0.1391  0.0866  0.0422
 3199DOPC   GL137538  26.828  21.592  12.951  0.0115 -0.2850  0.4936
 3199DOPC   GL237539  26.815  21.782  12.803 -0.3694 -0.0438  0.0207
 3199DOPC   C1A37540  26.484  21.882  13.164  0.1332  0.1100  0.4238
 3199DOPC   D2A37541  26.094  21.880  13.401 -0.2492 -0.1915 -0.3966
 3199DOPC   C3A37542  26.068  22.079  13.815 -0.2100 -0.0728 -0.4750
 3199DOPC   C4A37543  26.009  22.446  14.170 -0.4197  0.0943 -0.3226
 3199DOPC   C1B37544  26.853  22.240  12.798 -0.0043  0.1407 -0.0755
 3199DOPC   D2B37545  26.763  22.665  13.029  0.0157  0.0712 -0.1230
 3199DOPC   C3B37546  26.360  22.810  13.198 -0.2179  0.0416 -0.1580
 3199DOPC   C4B37547  25.959  23.006  13.199  0.2187 -0.3584  0.0734
 3200POSM   NC337548  31.587  17.945  12.780  0.1960  0.0239 -0.1257
 3200POSM   PO437549  31.593  18.238  12.994  0.1143 -0.1413  0.1694
 3200POSM   AM137550  31.548  18.475  13.238 -0.2301 -0.0579  0.0232
 3200POSM   AM237551  31.748  18.531  13.444  0.1287  0.0716 -0.3905
 3200POSM   T1A37552  31.324  18.889  13.477 -0.4524 -0.1289 -0.1378
 3200POSM   C2A37553  31.291  19.350  13.693  0.1684 -0.2366 -0.0067
 3200POSM   C3A37554  31.588  19.673  13.758 -0.1969 -0.1352 -0.0137
 3200POSM   C1B37555  31.724  18.633  13.772 -0.0948 -0.0262 -0.1130
 3200POSM   D2B37556  31.765  18.511  14.228 -0.0074 -0.2701  0.0463
 3200POSM   C3B37557  31.653  18.834  14.527  0.3695 -0.0403 -0.1530
 3200POSM   C4B37558  31.630  19.191  14.810 -0.0263  0.1267  0.1608
 3201DOPC   NC337559  26.196  18.125  12.822 -0.3336  0.1984  0.0184
 3201DOPC   PO437560  26.182  18.330  12.451  0.3191  0.1718  0.1377
 3201DOPC   GL137561  25.787  18.316  12.557  0.1913 -0.3396 -0.2278
 3201DOPC   GL237562  25.722  18.129  12.726 -0.1864  0.3355 -0.0144
 3201DOPC   C1A37563  25.483  18.211  12.233  0.1346  0.0274  0.1095
 3201DOPC   D2A37564  25.230  17.804  12.127  0.4387  0.3313 -0.0359
 3201DOPC   C3A37565  24.843  17.806  12.371 -0.2214 -0.2007 -0.3623
 3201DOPC   C4A37566  24.645  17.364  12.485 -0.0441  0.2470 -0.0701
 3201DOPC   C1B37567  25.236  18.050  12.656  0.0929  0.2711 -0.0842
 3201DOPC   D2B37568  24.941  17.668  12.813  0.0394  0.0286 -0.1228
 3201DOPC   C3B37569  24.565  17.484  12.965  0.0969  0.0759 -0.6176
 3201DOPC   C4B37570  24.199  17.428  13.330  0.0848 -0.0914 -0.3188
 3202POSM   NC337571  28.226  19.538  12.482  0.1270 -0.3610 -0.1755
 3202POSM   PO437572  28.546  19.636  12.693 -0.2852  0.0200  0.1521
 3202POSM   AM137573  28.589  19.638  13.000  0.0083 -0.0760  0.2144
 3202POSM   AM237574  28.840  19.597  13.146 -0.0258 -0.0224 -0.2543
 3202POSM   T1A37575  28.511  19.660  13.509  0.1228  0.2441 -0.0959
 3202POSM   C2A37576  28.231  19.442  13.833 -0.0897  0.1187  0.5347
 3202POSM   C3A37577  28.300  19.424  14.254 -0.1303 -0.0404 -0.0464
 3202POSM   C1B37578  29.113  19.718  13.306 -0.1638  0.2653  0.0452
 3202POSM   D2B37579  29.322  19.746  13.731 -0.4230 -0.3670 -0.0863
 3202POSM   C3B37580  29.782  19.602  13.777  0.0277  0.3528 -0.0017
 3202POSM   C4B37581  30.221  19.604  13.662 -0.0390 -0.1990 -0.1486
 3203DOPE   NH337582  26.865  17.669  12.793  0.1396 -0.2266 -0.0345
 3203DOPE   PO437583  26.669  17.945  12.756  0.0098  0.0498 -0.0520
 3203DOPE   GL137584  26.534  18.105  13.070 -0.5139 -0.1028 -0.0964
 3203DOPE   GL237585  26.566  17.858  13.294 -0.3001 -0.1649 -0.0851
 3203DOPE   C1A37586  26.140  18.176  13.293  0.2478 -0.0516 -0.1094
 3203DOPE   D2A37587  25.837  18.351  13.610 -0.0509  0.2067 -0.1770
 3203DOPE   C3A37588  25.469  18.052  13.678  0.0795 -0.0632  0.0705
 3203DOPE   C4A37589  25.168  17.666  13.655 -0.0978 -0.0589 -0.1505
 3203DOPE   C1B37590  26.507  18.249  13.571 -0.2977 -0.2842  0.0672
 3203DOPE   D2B37591  26.614  18.670  13.741  0.0478 -0.2607 -0.2817
 3203DOPE   C3B37592  26.206  18.535  13.967  0.0977  0.1842  0.1595
 3203DOPE   C4B37593  25.949  18.181  14.143  0.2885 -0.1916  0.0558
 3204DOPE   NH337594  32.058  18.442  13.033 -0.0593  0.1547  0.2255
 3204DOPE   PO437595  32.019  18.189  13.231  0.0050  0.2919  0.1097
 3204DOPE   GL137596  32.056  17.946  13.526  0.3586  0.0402  0.0753
 3204DOPE   GL237597  31.962  18.167  13.747 -0.0878 -0.0747  0.0120
 3204DOPE   C1A37598  32.343  17.682  13.739  0.0217 -0.0035 -0.0203
 3204DOPE   D2A37599  32.673  17.665  14.067  0.1006 -0.0063 -0.0118
 3204DOPE   C3A37600  32.558  17.374  14.381  0.3368 -0.0744  0.0462
 3204DOPE   C4A37601  32.506  17.117  14.749 -0.3067 -0.1957  0.0688
 3204DOPE   C1B37602  32.224  18.031  14.073  0.4250  0.1210 -0.1421
 3204DOPE   D2B37603  32.310  17.890  14.504 -0.0030  0.1178  0.0274
 3204DOPE   C3B37604  32.517  18.296  14.583 -0.1596 -0.0980  0.0652
 3204DOPE   C4B37605  32.827  18.678  14.642  0.1231 -0.4747 -0.2726
 3205DOPS   CNO37606  30.230  11.468  12.052 -0.3286  0.2699  0.0982
 3205DOPS   PO437607  30.314  11.649  12.368 -0.0355  0.2321  0.4185
 3205DOPS   GL137608  30.286  11.390  12.507  0.1539 -0.2018 -0.1423
 3205DOPS   GL237609  30.149  11.398  12.768  0.2378  0.1647  0.1257
 3205DOPS   C1A37610  30.598  11.195  12.721 -0.0477  0.0039  0.0342
 3205DOPS   D2A37611  30.699  10.727  12.729 -0.4498  0.2343 -0.0419
 3205DOPS   C3A37612  31.018  10.653  13.031  0.1068 -0.1677  0.0932
 3205DOPS   C4A37613  31.274  10.377  13.226  0.1112  0.0332 -0.0952
 3205DOPS   C1B37614  30.328  11.327  13.168  0.2717  0.0006 -0.0111
 3205DOPS   D2B37615  30.524  11.276  13.537 -0.2547  0.0532 -0.0140
 3205DOPS   C3B37616  30.971  11.330  13.631  0.1510  0.0955 -0.1965
 3205DOPS   C4B37617  31.354  11.351  13.377  0.3179  0.1348  0.1924
 3206DOPE   NH337618  24.856  10.693  12.508  0.1337  0.1845 -0.0896
 3206DOPE   PO437619  24.955  10.983  12.429 -0.2449 -0.1252 -0.1623
 3206DOPE   GL137620  24.890  11.356  12.493 -0.2066 -0.0980 -0.0480
 3206DOPE   GL237621  25.071  11.534  12.291 -0.0576  0.0853  0.0643
 3206DOPE   C1A37622  24.508  11.486  12.719  0.0009 -0.2046  0.2309
 3206DOPE   D2A37623  24.382  11.886  12.924  0.2034 -0.1122  0.1594
 3206DOPE   C3A37624  24.448  11.884  13.392 -0.2444 -0.1562 -0.1667
 3206DOPE   C4A37625  24.556  11.890  13.900 -0.0571 -0.0936 -0.3869
 3206DOPE   C1B37626  24.893  11.842  12.543 -0.0944 -0.1990 -0.0458
 3206DOPE   D2B37627  24.849  12.202  12.822  0.2455 -0.0164 -0.0864
 3206DOPE   C3B37628  24.610  12.322  13.153  0.2881  0.1399 -0.0946
 3206DOPE   C4B37629  24.197  12.473  13.335 -0.2220 -0.0027  0.0323
 3207DOPE   NH337630  31.741  13.427  12.715  0.0677 -0.2725 -0.2561
 3207DOPE   PO437631  31.778  13.196  12.563  0.0786  0.0418  0.0264
 3207DOPE   GL137632  32.157  12.971  12.777 -0.1224  0.0644 -0.2821
 3207DOPE   GL237633  32.066  12.776  12.593 -0.0599 -0.1316 -0.2299
 3207DOPE   C1A37634  32.481  12.851  13.089  0.0978  0.2464  0.1967
 3207DOPE   D2A37635  32.910  12.635  13.127  0.2345  0.2151 -0.1097
 3207DOPE   C3A37636  33.212  12.545  13.434  0.1049 -0.0353 -0.0442
 3207DOPE   C4A37637  33.516  12.784  13.628  0.1141 -0.2066 -0.1861
 3207DOPE   C1B37638  32.033  12.527  12.972 -0.0693 -0.3692 -0.1699
 3207DOPE   D2B37639  31.797  12.429  13.354  0.0402  0.4282  0.0354
 3207DOPE   C3B37640  31.753  12.768  13.726 -0.4161  0.0502 -0.0253
 3207DOPE   C4B37641  32.034  13.080  14.044 -0.2634 -0.2274 -0.2800
 3208POSM   NC337642   0.195  21.018  13.285 -0.0275 -0.0033  0.1768
 3208POSM   PO437643   0.074  21.087  12.908 -0.1019 -0.2876  0.2819
 3208POSM   AM137644  -0.199  21.105  13.083  0.0567 -0.2516 -0.2422
 3208POSM   AM237645  -0.446  21.298  13.087 -0.2075  0.0024  0.1854
 3208POSM   T1A37646  -0.422  20.969  13.505  0.1281 -0.0415 -0.1558
 3208POSM   C2A37647  -0.734  20.779  13.777  0.1966 -0.2307  0.5214
 3208POSM   C3A37648  -0.800  20.584  14.193 -0.1098 -0.1218  0.1922
 3208POSM   C1B37649  -0.741  21.342  13.331 -0.0790  0.0587 -0.1487
 3208POSM   D2B37650  -1.098  21.207  13.534 -0.0408 -0.2434  0.1321
 3208POSM   C3B37651  -1.182  21.376  13.954  0.0193 -0.2692  0.2220
 3208POSM   C4B37652  -1.037  21.730  14.198 -0.1017  0.0069  0.1432
 3209DOPC   NC337653  33.939  19.114  12.622 -0.1844 -0.2142 -0.1417
 3209DOPC   PO437654  33.874  19.392  12.918  0.2718 -0.0487  0.3833
 3209DOPC   GL137655  33.886  19.682  13.150 -0.1290 -0.0036  0.1720
 3209DOPC   GL237656  33.923  19.918  13.025 -0.1600 -0.3295 -0.1798
 3209DOPC   C1A37657  33.956  19.941  13.585  0.3780 -0.0544  0.1286
 3209DOPC   D2A37658  34.149  19.981  13.995  0.0668 -0.2886 -0.1470
 3209DOPC   C3A37659  34.350  19.658  14.217  0.1191 -0.0445  0.1659
 3209DOPC   C4A37660  34.792  19.516  14.338  0.2524 -0.1185 -0.1669
 3209DOPC   C1B37661  34.177  20.291  12.956  0.1463  0.1410  0.0272
 3209DOPC   D2B37662  34.430  20.650  13.165 -0.1427  0.0301 -0.5634
 3209DOPC   C3B37663  34.718  20.593  13.487  0.0984  0.0679 -0.2074
 3209DOPC   C4B37664  34.964  20.798  13.781 -0.1459 -0.4876 -0.1780
 3210DOPC   NC337665  27.332  11.010  12.014  0.2043 -0.1734  0.3149
 3210DOPC   PO437666  27.674  11.122  12.193  0.1482 -0.0669 -0.3693
 3210DOPC   GL137667  27.840  11.113  12.544  0.0644  0.0652  0.0662
 3210DOPC   GL237668  27.660  11.294  12.706 -0.1486  0.1229 -0.1745
 3210DOPC   C1A37669  28.124  11.465  12.773 -0.3450  0.3022 -0.1289
 3210DOPC   D2A37670  28.239  11.910  12.923  0.4554  0.3203  0.0367
 3210DOPC   C3A37671  28.412  12.017  13.322 -0.2628  0.0192  0.1481
 3210DOPC   C4A37672  28.652  12.279  13.578 -0.1958 -0.2700 -0.1628
 3210DOPC   C1B37673  27.415  11.449  13.095 -0.0233 -0.0934  0.0476
 3210DOPC   D2B37674  27.484  11.740  13.495 -0.0107 -0.3129 -0.2371
 3210DOPC   C3B37675  27.775  11.835  13.802  0.1330  0.1491 -0.0582
 3210DOPC   C4B37676  27.863  11.891  14.276  0.0512 -0.1099 -0.1427
 3211DOPE   NH337677  26.888  11.879  12.440 -0.1707  0.2727 -0.1080
 3211DOPE   PO437678  26.894  12.147  12.326  0.2541 -0.1188  0.1540
 3211DOPE   GL137679  27.161  12.212  12.613 -0.1256 -0.2331 -0.3355
 3211DOPE   GL237680  26.960  12.330  12.799 -0.0127  0.1867 -0.0642
 3211DOPE   C1A37681  27.446  12.484  12.857 -0.0996  0.1555 -0.3116
 3211DOPE   D2A37682  27.577  12.693  13.271 -0.2279  0.1180  0.1134
 3211DOPE   C3A37683  27.822  12.556  13.678  0.0367  0.0652  0.0442
 3211DOPE   C4A37684  28.239  12.450  13.899 -0.1884  0.1295 -0.0360
 3211DOPE   C1B37685  27.072  12.593  13.189 -0.1930 -0.2447  0.1496
 3211DOPE   D2B37686  27.218  12.663  13.644 -0.1512 -0.3334 -0.3522
 3211DOPE   C3B37687  26.956  12.998  13.824  0.0517 -0.1040 -0.1032
 3211DOPE   C4B37688  26.797  13.378  13.926 -0.3669 -0.0723  0.3906
 3212DOPE   NH337689  31.118  14.654  13.138 -0.1827 -0.1213 -0.0693
 3212DOPE   PO437690  30.905  14.702  13.377 -0.0287 -0.4206  0.3116
 3212DOPE   GL137691  31.005  14.843  13.721 -0.2191 -0.3248 -0.3544
 3212DOPE   GL237692  31.177  15.073  13.835  0.0322  0.1944  0.0062
 3212DOPE   C1A37693  30.965  14.661  14.126 -0.0596 -0.0370 -0.1700
 3212DOPE   D2A37694  31.022  14.654  14.539 -0.2678  0.0395  0.1583
 3212DOPE   C3A37695  31.073  15.056  14.749 -0.1192  0.1461 -0.0077
 3212DOPE   C4A37696  31.158  15.423  15.037  0.0678 -0.3591  0.1281
 3212DOPE   C1B37697  31.010  15.394  14.156 -0.3355 -0.0030 -0.2585
 3212DOPE   D2B37698  31.297  15.763  14.328  0.1160 -0.0790  0.0139
 3212DOPE   C3B37699  31.370  15.835  14.786  0.2826  0.1600  0.0550
 3212DOPE   C4B37700  31.420  16.173  15.054  0.0679 -0.0970  0.0144
 3213POSM   NC337701  29.038  11.445  12.600  0.0377 -0.3415 -0.0663
 3213POSM   PO437702  29.151  11.476  12.243  0.2672  0.2878  0.0224
 3213POSM   AM137703  29.012  11.762  12.298  0.3525 -0.2118 -0.1678
 3213POSM   AM237704  28.817  11.855  12.108 -0.0753  0.1123  0.4507
 3213POSM   T1A37705  28.844  12.026  12.703  0.2932  0.1314 -0.0635
 3213POSM   C2A37706  28.837  12.259  13.069  0.0736 -0.0598 -0.3950
 3213POSM   C3A37707  28.898  12.701  13.301  0.4417 -0.2494 -0.1512
 3213POSM   C1B37708  28.767  12.185  12.118 -0.0758  0.1686 -0.3843
 3213POSM   D2B37709  28.599  12.602  12.183 -0.0424  0.0176  0.3484
 3213POSM   C3B37710  28.228  12.586  12.370  0.3176 -0.0009 -0.2403
 3213POSM   C4B37711  27.935  12.902  12.447 -0.0221  0.3392  0.3375
 3214POSM   NC337712  30.793  16.396  13.056  0.1947 -0.2315  0.0974
 3214POSM   PO437713  31.096  16.563  13.181 -0.1602 -0.2688 -0.0478
 3214POSM   AM137714  31.223  16.509  13.486  0.1253 -0.2287 -0.3183
 3214POSM   AM237715  31.107  16.350  13.626 -0.3453 -0.9041  0.1536
 3214POSM   T1A37716  31.473  16.712  13.873  0.1597 -0.0935 -0.0707
 3214POSM   C2A37717  31.735  16.705  14.180 -0.0613 -0.0872  0.1581
 3214POSM   C3A37718  32.191  16.827  14.333  0.2092 -0.0282  0.2877
 3214POSM   C1B37719  30.788  16.278  13.725  0.0319  0.1147  0.0169
 3214POSM   D2B37720  30.498  16.111  14.011  0.0810 -0.0217 -0.1991
 3214POSM   C3B37721  30.689  15.834  14.342 -0.0316  0.1919  0.0865
 3214POSM   C4B37722  30.960  15.628  14.635  0.0292  0.0851  0.1062
 3215POSM   NC337723  24.316  22.347  12.561  0.2448 -0.1532 -0.2393
 3215POSM   PO437724  24.713  22.291  12.505  0.2758 -0.0416  0.3255
 3215POSM   AM137725  25.002  22.226  12.541 -0.0210  0.0337  0.1721
 3215POSM   AM237726  25.062  21.954  12.561  0.2189 -0.1619 -0.0601
 3215POSM   T1A37727  25.467  22.168  12.841 -0.0370  0.0713  0.0917
 3215POSM   C2A37728  25.949  22.009  12.919 -0.0322 -0.2944  0.1221
 3215POSM   C3A37729  26.381  22.054  12.681 -0.3013  0.1614  0.2294
 3215POSM   C1B37730  25.158  21.686  12.699 -0.1486  0.0191  0.0880
 3215POSM   D2B37731  25.244  21.269  12.897 -0.0231  0.3670  0.0049
 3215POSM   C3B37732  25.208  20.856  12.687 -0.3051 -0.1642 -0.1032
 3215POSM   C4B37733  25.104  20.472  12.573  0.0181  0.2824  0.0907
 3216POSM   NC337734  32.780  15.345  12.897  0.1979 -0.0450  0.0096
 3216POSM   PO437735  33.168  15.448  12.852  0.1861 -0.0305  0.2068
 3216POSM   AM137736  33.242  15.170  13.068 -0.2443  0.1367 -0.1386
 3216POSM   AM237737  33.469  15.149  13.242  0.0233 -0.0376  0.0854
 3216POSM   T1A37738  33.104  14.808  13.398 -0.1714 -0.0569 -0.0316
 3216POSM   C2A37739  32.728  14.527  13.421  0.1279  0.0158 -0.1170
 3216POSM   C3A37740  32.293  14.330  13.479 -0.1938 -0.1990  0.0589
 3216POSM   C1B37741  33.327  15.297  13.519 -0.0213  0.1286  0.2821
 3216POSM   D2B37742  33.074  15.488  13.878  0.0082  0.2610 -0.1409
 3216POSM   C3B37743  32.975  15.186  14.211  0.1323  0.1224 -0.1294
 3216POSM   C4B37744  32.978  14.735  14.299 -0.2659  0.2147  0.1427
 3217DOPC   NC337745  26.920  18.340  13.178 -0.0873  0.1081  0.0887
 3217DOPC   PO437746  27.033  17.947  13.180  0.3500  0.2188 -0.0213
 3217DOPC   GL137747  27.291  17.689  13.409  0.0836 -0.2228 -0.2819
 3217DOPC   GL237748  27.251  17.485  13.355 -0.3536  0.3313  0.2447
 3217DOPC   C1A37749  27.386  17.681  13.855  0.0727 -0.3636 -0.0591
 3217DOPC   D2A37750  27.428  17.319  14.075  0.1363 -0.1453  0.1856
 3217DOPC   C3A37751  27.641  17.494  14.402 -0.0726 -0.2051 -0.0113
 3217DOPC   C4A37752  28.108  17.634  14.430  0.2020  0.2278 -0.0693
 3217DOPC   C1B37753  27.674  17.296  13.606 -0.0689  0.0727  0.1898
 3217DOPC   D2B37754  28.013  17.398  13.884  0.3457  0.0243  0.3873
 3217DOPC   C3B37755  28.372  17.269  14.216 -0.0826  0.0375  0.0742
 3217DOPC   C4B37756  28.851  17.323  14.236  0.2523 -0.3267  0.3382
 3218DOPC   NC337757  31.353  12.946  12.291  0.0857 -0.1931 -0.0453
 3218DOPC   PO437758  31.508  12.796  12.618 -0.0652 -0.0530 -0.2474
 3218DOPC   GL137759  31.573  12.747  13.031  0.5311  0.0316 -0.2709
 3218DOPC   GL237760  31.664  13.065  13.038  0.2538  0.0865 -0.0770
 3218DOPC   C1A37761  31.368  12.855  13.400  0.1385 -0.1612  0.2438
 3218DOPC   D2A37762  31.209  12.645  13.745 -0.0924  0.1768 -0.2124
 3218DOPC   C3A37763  31.391  12.443  14.122  0.2627  0.1967 -0.1712
 3218DOPC   C4A37764  31.582  12.397  14.519 -0.2193  0.2372  0.0320
 3218DOPC   C1B37765  32.061  12.941  13.307 -0.0065  0.0839  0.0589
 3218DOPC   D2B37766  32.427  13.001  13.554  0.3171  0.1011  0.0696
 3218DOPC   C3B37767  32.540  13.080  13.982 -0.2127  0.0096  0.3054
 3218DOPC   C4B37768  32.390  13.050  14.383  0.0348 -0.0100  0.0556
 3219DOPE   NH337769  30.788  18.110  12.986 -0.1019 -0.1801 -0.0259
 3219DOPE   PO437770  31.081  18.253  12.958  0.1936 -0.3970  0.0426
 3219DOPE   GL137771  31.074  18.406  13.315  0.1216  0.0622  0.0139
 3219DOPE   GL237772  30.886  18.594  13.499  0.1166 -0.0214 -0.1392
 3219DOPE   C1A37773  31.304  18.428  13.678  0.0019  0.0424 -0.2475
 3219DOPE   D2A37774  31.287  18.687  14.004 -0.0369  0.1168  0.0318
 3219DOPE   C3A37775  31.559  19.095  14.001 -0.2209  0.0152  0.1304
 3219DOPE   C4A37776  31.496  19.434  14.279 -0.0771  0.1815  0.2157
 3219DOPE   C1B37777  30.913  19.021  13.754  0.0294 -0.4989  0.2190
 3219DOPE   D2B37778  31.064  19.126  14.184 -0.1211 -0.1340 -0.1939
 3219DOPE   C3B37779  31.181  19.232  14.620 -0.1143  0.0928  0.1131
 3219DOPE   C4B37780  31.345  19.591  14.914  0.0692 -0.1042 -0.4433
 3220DOPC   NC337781  29.890  18.321  13.693 -0.2463  0.1408 -0.1467
 3220DOPC   PO437782  29.884  18.429  13.331  0.3020  0.2430 -0.0142
 3220DOPC   GL137783  30.157  18.660  13.386 -0.1685 -0.2087 -0.0783
 3220DOPC   GL237784  30.023  18.842  13.603  0.0051 -0.0601  0.2854
 3220DOPC   C1A37785  30.493  18.682  13.752  0.1186  0.2264  0.0045
 3220DOPC   D2A37786  30.825  18.408  13.917 -0.1968  0.0971  0.0469
 3220DOPC   C3A37787  30.665  18.247  14.303 -0.0130 -0.0248 -0.4682
 3220DOPC   C4A37788  30.260  18.092  14.493  0.0072  0.2171 -0.2427
 3220DOPC   C1B37789  29.931  19.237  13.379 -0.0749  0.0993  0.3680
 3220DOPC   D2B37790  29.865  19.369  12.954  0.1353  0.0314  0.4343
 3220DOPC   C3B37791  29.928  19.821  12.961 -0.3013  0.0795 -0.2288
 3220DOPC   C4B37792  29.754  20.228  12.940  0.1820  0.3612  0.0454
 3221DOPC   NC337793  34.054  19.615  12.566  0.0805 -0.0577 -0.1637
 3221DOPC   PO437794  33.760  19.868  12.543 -0.3103  0.0584 -0.1238
 3221DOPC   GL137795  33.404  20.069  12.556 -0.2344 -0.1818 -0.0300
 3221DOPC   GL237796  33.496  20.266  12.743 -0.2392  0.0825  0.1612
 3221DOPC   C1A37797  33.118  20.052  12.929 -0.1074 -0.4099 -0.1557
 3221DOPC   D2A37798  32.622  20.060  12.871 -0.1791  0.0384  0.2291
 3221DOPC   C3A37799  32.367  20.198  13.268 -0.1484  0.1660 -0.2132
 3221DOPC   C4A37800  32.460  20.574  13.494  0.2813  0.3557 -0.3059
 3221DOPC   C1B37801  33.579  20.365  13.247 -0.3057 -0.0376 -0.3651
 3221DOPC   D2B37802  33.423  20.691  13.534 -0.1310  0.1326 -0.2518
 3221DOPC   C3B37803  33.501  20.852  13.999  0.0994  0.1348  0.2328
 3221DOPC   C4B37804  33.513  20.927  14.414 -0.1160 -0.3533 -0.0834
 3222DOPS   CNO37805  31.693  23.184  12.246  0.3085 -0.0358 -0.0892
 3222DOPS   PO437806  31.634  23.201  12.622  0.1217  0.2290  0.1517
 3222DOPS   GL137807  31.661  23.227  13.013 -0.2293 -0.1026  0.1660
 3222DOPS   GL237808  31.649  22.921  13.046 -0.1518 -0.1132 -0.4626
 3222DOPS   C1A37809  31.476  23.570  13.243  0.0814  0.0638 -0.0536
 3222DOPS   D2A37810  31.542  23.998  13.406  0.0273  0.0696 -0.3653
 3222DOPS   C3A37811  31.330  23.904  13.821 -0.2356 -0.3684 -0.0569
 3222DOPS   C4A37812  31.209  23.619  14.178 -0.1405  0.0353 -0.3184
 3222DOPS   C1B37813  31.880  22.562  13.169  0.0117 -0.0785  0.4423
 3222DOPS   D2B37814  31.834  22.226  13.518  0.0702 -0.2661 -0.3172
 3222DOPS   C3B37815  31.623  22.410  13.922 -0.0465  0.1208  0.4195
 3222DOPS   C4B37816  31.618  22.299  14.347 -0.3008 -0.2144  0.0474
 3223POSM   NC337817  33.841  17.238  12.538  0.0629 -0.1592  0.1996
 3223POSM   PO437818  33.469  17.305  12.666  0.1587  0.4100 -0.0738
 3223POSM   AM137819  33.517  17.216  12.941 -0.5093  0.0093 -0.1031
 3223POSM   AM237820  33.619  17.026  13.153 -0.3686 -0.0843  0.1164
 3223POSM   T1A37821  33.342  17.455  13.356 -0.0318  0.2011  0.0169
 3223POSM   C2A37822  33.365  17.831  13.599  0.0568 -0.1631  0.0224
 3223POSM   C3A37823  33.631  18.102  13.889 -0.0658  0.1057  0.0034
 3223POSM   C1B37824  33.584  17.036  13.490 -0.1227  0.1065  0.2684
 3223POSM   D2B37825  33.466  16.990  13.899  0.0091 -0.1532  0.0880
 3223POSM   C3B37826  33.032  16.969  13.885  0.2658 -0.0053  0.1083
 3223POSM   C4B37827  32.580  17.162  13.947  0.0523 -0.2832 -0.0793
 3224DOPS   CNO37828  30.125  22.336  12.210  0.2236 -0.0113  0.0048
 3224DOPS   PO437829  30.250  22.022  12.375 -0.1354  0.2305 -0.1336
 3224DOPS   GL137830  30.314  21.695  12.579  0.3117  0.1662 -0.6003
 3224DOPS   GL237831  30.327  21.508  12.827  0.0403 -0.1210  0.3048
 3224DOPS   C1A37832  30.739  21.636  12.689 -0.1927  0.0381  0.2945
 3224DOPS   D2A37833  31.224  21.658  12.591  0.3331 -0.3770  0.0877
 3224DOPS   C3A37834  31.223  21.241  12.625  0.1012  0.0548  0.0679
 3224DOPS   C4A37835  31.281  20.940  12.332 -0.1278  0.2949  0.1236
 3224DOPS   C1B37836  30.611  21.344  13.137  0.1697 -0.4142 -0.0072
 3224DOPS   D2B37837  30.757  20.919  13.299 -0.1202  0.3121 -0.1790
 3224DOPS   C3B37838  30.691  20.825  13.750  0.1565 -0.2956  0.2593
 3224DOPS   C4B37839  30.569  20.537  14.129  0.0615  0.0599  0.0801
 3225POSM   NC337840  26.369  16.710  12.901 -0.1736  0.1995  0.0443
 3225POSM   PO437841  26.233  17.010  12.712 -0.0655  0.0381  0.2999
 3225POSM   AM137842  26.109  17.048  13.021  0.2107 -0.2792  0.0493
 3225POSM   AM237843  26.271  17.173  13.239  0.1848 -0.4242 -0.1047
 3225POSM   T1A37844  25.827  17.291  13.355  0.0438 -0.1388  0.1521
 3225POSM   C2A37845  25.587  17.346  13.686 -0.1320 -0.3043  0.0196
 3225POSM   C3A37846  25.325  17.300  14.073  0.0572 -0.1723 -0.1767
 3225POSM   C1B37847  26.390  16.966  13.525  0.4123  0.0522  0.0525
 3225POSM   D2B37848  26.464  16.947  13.991  0.0634 -0.2119 -0.0389
 3225POSM   C3B37849  26.106  16.958  14.318  0.3832 -0.2909  0.1783
 3225POSM   C4B37850  25.625  17.009  14.258 -0.2480  0.1165  0.0010
 3226DOPC   NC337851  27.760  19.886  12.447 -0.1687  0.1033 -0.0047
 3226DOPC   PO437852  27.771  20.264  12.525 -0.0075 -0.4251 -0.2861
 3226DOPC   GL137853  27.337  20.426  12.632 -0.0798  0.1853  0.0953
 3226DOPC   GL237854  27.114  20.238  12.514  0.0046  0.1022  0.0686
 3226DOPC   C1A37855  27.227  20.239  13.077 -0.3272 -0.0984 -0.2065
 3226DOPC   D2A37856  27.256  20.378  13.512  0.6127  0.0260 -0.2024
 3226DOPC   C3A37857  27.597  20.634  13.770  0.3397  0.1364  0.0861
 3226DOPC   C4A37858  27.896  20.767  14.107 -0.1119 -0.0086  0.0562
 3226DOPC   C1B37859  26.722  20.185  12.800  0.1706  0.0492  0.0743
 3226DOPC   D2B37860  26.304  20.336  12.884 -0.2477 -0.1324 -0.1534
 3226DOPC   C3B37861  25.908  20.154  12.782 -0.1620 -0.1885 -0.3346
 3226DOPC   C4B37862  25.726  19.805  12.619 -0.0593 -0.0182 -0.1969
 3227DOPC   NC337863  31.877  16.841  13.354 -0.1202 -0.2362  0.0340
 3227DOPC   PO437864  31.725  16.468  13.252 -0.0134  0.0295 -0.1851
 3227DOPC   GL137865  31.914  16.483  13.601 -0.0111  0.0848  0.3663
 3227DOPC   GL237866  32.110  16.273  13.518  0.1105 -0.1929  0.3486
 3227DOPC   C1A37867  32.082  16.850  13.857 -0.0494  0.1591  0.2491
 3227DOPC   D2A37868  32.148  17.264  14.043 -0.2140  0.1276 -0.0205
 3227DOPC   C3A37869  32.034  17.371  14.507 -0.0787 -0.2393  0.1613
 3227DOPC   C4A37870  32.134  17.628  14.897  0.0806  0.1513 -0.4231
 3227DOPC   C1B37871  32.027  15.902  13.770 -0.1638  0.2209 -0.4025
 3227DOPC   D2B37872  32.268  15.790  14.146  0.2828 -0.0755  0.1279
 3227DOPC   C3B37873  32.156  15.413  14.394  0.1101  0.2018 -0.0265
 3227DOPC   C4B37874  32.002  15.143  14.684  0.3350  0.1953  0.0727
 3228DOPC   NC337875  25.262  11.619  12.760 -0.1425 -0.0297  0.1538
 3228DOPC   PO437876  25.644  11.625  12.696  0.0689  0.1901  0.1065
 3228DOPC   GL137877  25.739  11.794  13.024 -0.0275 -0.1800 -0.4457
 3228DOPC   GL237878  26.029  11.735  12.996  0.2038  0.1203  0.2552
 3228DOPC   C1A37879  25.364  11.741  13.330  0.0643  0.0237  0.1480
 3228DOPC   D2A37880  25.210  12.105  13.603  0.2554  0.1019 -0.1007
 3228DOPC   C3A37881  25.280  11.861  14.002 -0.1562  0.0467 -0.0407
 3228DOPC   C4A37882  25.314  11.777  14.459  0.3028 -0.1790  0.1374
 3228DOPC   C1B37883  26.107  12.133  13.201 -0.0444 -0.1758 -0.1899
 3228DOPC   D2B37884  25.950  12.560  13.015 -0.0485  0.1920 -0.0924
 3228DOPC   C3B37885  26.288  12.902  13.007  0.1718 -0.2191 -0.1230
 3228DOPC   C4B37886  26.258  13.374  13.048  0.1167  0.0391 -0.0338
 3229POSM   NC337887  31.994  22.581  12.660  0.0086 -0.1153 -0.0041
 3229POSM   PO437888  31.669  22.652  12.505  0.2862 -0.0292 -0.2246
 3229POSM   AM137889  31.564  22.481  12.772 -0.3775  0.0633  0.0475
 3229POSM   AM237890  31.617  22.243  12.905  0.0638 -0.0686  0.0233
 3229POSM   T1A37891  31.335  22.582  13.222  0.0650  0.4235  0.1718
 3229POSM   C2A37892  31.245  22.335  13.549  0.0869  0.3380  0.0060
 3229POSM   C3A37893  31.215  22.080  13.969  0.0081 -0.2267 -0.0905
 3229POSM   C1B37894  31.489  22.144  13.161 -0.1977 -0.0399  0.0143
 3229POSM   D2B37895  31.431  21.848  13.555  0.3384 -0.3408  0.0256
 3229POSM   C3B37896  31.029  21.660  13.539 -0.0883  0.0353 -0.1577
 3229POSM   C4B37897  30.658  21.391  13.666 -0.1822 -0.1314 -0.1794
 3230POSM   NC337898  25.651  15.424  12.078 -0.0135 -0.1698  0.2840
 3230POSM   PO437899  25.828  15.042  12.098 -0.2810 -0.0326  0.2705
 3230POSM   AM137900  25.845  14.877  12.378 -0.2277 -0.2790 -0.0737
 3230POSM   AM237901  26.088  14.757  12.501  0.1394  0.2054  0.0101
 3230POSM   T1A37902  25.677  14.574  12.691 -0.3682 -0.0831  0.0780
 3230POSM   C2A37903  25.881  14.207  12.831  0.1643  0.2871  0.0880
 3230POSM   C3A37904  26.048  13.807  13.047  0.2222  0.2100  0.1629
 3230POSM   C1B37905  26.145  14.649  12.801  0.1174 -0.3191  0.0375
 3230POSM   D2B37906  26.235  14.319  13.193 -0.0085  0.1095  0.0742
 3230POSM   C3B37907  26.015  14.050  13.529  0.3736  0.2608  0.1487
 3230POSM   C4B37908  25.586  14.141  13.738 -0.0255 -0.0828 -0.0543
 3231DOPE   NH337909  28.669  15.459  12.267 -0.0590  0.2506 -0.0138
 3231DOPE   PO437910  28.832  15.403  12.508  0.0304 -0.0487  0.1419
 3231DOPE   GL137911  28.987  15.570  12.895 -0.0271  0.0932  0.1498
 3231DOPE   GL237912  29.214  15.552  13.042 -0.0770  0.0823  0.2625
 3231DOPE   C1A37913  29.029  16.010  12.960  0.2400 -0.2687  0.1346
 3231DOPE   D2A37914  28.837  16.420  13.109  0.3776 -0.0802 -0.2771
 3231DOPE   C3A37915  29.208  16.500  13.381 -0.1062  0.2237 -0.1625
 3231DOPE   C4A37916  29.195  16.753  13.788 -0.0295 -0.1174  0.0987
 3231DOPE   C1B37917  29.169  15.821  13.441  0.1058  0.1993  0.0939
 3231DOPE   D2B37918  29.197  15.922  13.885  0.0912 -0.2400  0.1717
 3231DOPE   C3B37919  29.268  16.285  14.123  0.0902  0.1773 -0.1720
 3231DOPE   C4B37920  29.555  16.565  14.313 -0.2841 -0.1250 -0.0209
 3232DOPS   CNO37921  33.435  16.845  12.263 -0.1179 -0.0005  0.0854
 3232DOPS   PO437922  33.822  16.757  12.301  0.0385 -0.0178  0.1684
 3232DOPS   GL137923  33.755  16.795  12.689 -0.3464  0.1196  0.2754
 3232DOPS   GL237924  33.524  16.654  12.766 -0.0442  0.1654  0.2355
 3232DOPS   C1A37925  34.013  16.659  12.989 -0.2819  0.1348  0.0032
 3232DOPS   D2A37926  34.084  16.845  13.451 -0.0698  0.1109 -0.1560
 3232DOPS   C3A37927  33.725  16.605  13.752 -0.1115  0.2472 -0.2137
 3232DOPS   C4A37928  33.395  16.246  13.714  0.1587 -0.1621  0.2249
 3232DOPS   C1B37929  33.678  16.207  12.785 -0.1225  0.0845  0.3465
 3232DOPS   D2B37930  33.979  15.895  13.036 -0.0732  0.0216  0.1881
 3232DOPS   C3B37931  34.118  15.879  13.448  0.0137  0.1072 -0.1086
 3232DOPS   C4B37932  33.946  16.076  13.818  0.2234  0.1992 -0.1156
 3233DOPE   NH337933  34.305  22.889  12.872  0.2019  0.2283 -0.3208
 3233DOPE   PO437934  34.491  23.041  13.065 -0.0586  0.2853 -0.0120
 3233DOPE   GL137935  34.466  22.925  13.308  0.2118 -0.2029 -0.2926
 3233DOPE   GL237936  34.392  22.608  13.300 -0.0786  0.0646  0.2076
 3233DOPE   C1A37937  34.806  23.016  13.646  0.1481 -0.0782 -0.0286
 3233DOPE   D2A37938  35.213  22.882  13.908  0.0142 -0.1825 -0.0703
 3233DOPE   C3A37939  35.019  22.725  14.285 -0.1662 -0.0849 -0.1165
 3233DOPE   C4A37940  35.142  22.654  14.703  0.1285  0.0072  0.1608
 3233DOPE   C1B37941  34.191  22.305  13.562 -0.1789 -0.2719  0.1612
 3233DOPE   D2B37942  34.061  22.002  13.940  0.1715 -0.1789  0.1251
 3233DOPE   C3B37943  34.271  22.108  14.354 -0.1288 -0.2486 -0.2658
 3233DOPE   C4B37944  34.179  22.393  14.759  0.0019 -0.0850 -0.1224
 3234DOPC   NC337945  25.530  15.964  12.071 -0.2829  0.4003 -0.0783
 3234DOPC   PO437946  25.780  16.209  12.274  0.0350 -0.3442 -0.1422
 3234DOPC   GL137947  25.513  16.522  12.391  0.2406 -0.0103  0.1469
 3234DOPC   GL237948  25.289  16.335  12.365 -0.1743 -0.2490 -0.0148
 3234DOPC   C1A37949  25.165  16.809  12.371 -0.0020 -0.1569  0.3597
 3234DOPC   D2A37950  24.759  16.869  12.579 -0.0411  0.2033 -0.0199
 3234DOPC   C3A37951  24.329  16.900  12.810  0.0846 -0.3174  0.1715
 3234DOPC   C4A37952  24.000  17.210  12.901  0.1934  0.1937 -0.3095
 3234DOPC   C1B37953  24.851  16.386  12.450  0.1138 -0.4319 -0.0122
 3234DOPC   D2B37954  24.383  16.455  12.356  0.0397  0.3146 -0.0974
 3234DOPC   C3B37955  24.064  16.108  12.412  0.0403 -0.2651  0.1553
 3234DOPC   C4B37956  23.834  15.863  12.744  0.0127  0.4216 -0.2864
 3235DOPC   NC337957  28.160  14.726  12.609 -0.0574  0.0460 -0.0276
 3235DOPC   PO437958  27.802  14.723  12.427 -0.1114 -0.2215  0.1585
 3235DOPC   GL137959  27.743  14.635  12.820 -0.2977 -0.3471  0.0139
 3235DOPC   GL237960  27.888  14.388  12.842  0.4939 -0.1336  0.0457
 3235DOPC   C1A37961  27.445  14.536  13.206 -0.0474 -0.1629 -0.2233
 3235DOPC   D2A37962  27.580  14.251  13.514 -0.1620 -0.2129  0.1914
 3235DOPC   C3A37963  27.435  13.887  13.540  0.1448 -0.1107  0.2580
 3235DOPC   C4A37964  27.133  13.529  13.553  0.0495 -0.1494 -0.4894
 3235DOPC   C1B37965  28.017  14.025  13.098  0.0235 -0.3156 -0.0174
 3235DOPC   D2B37966  27.934  13.957  13.515  0.1920  0.0645 -0.5452
 3235DOPC   C3B37967  28.076  14.365  13.743  0.0238  0.0363  0.1388
 3235DOPC   C4B37968  28.261  14.722  13.624  0.2831 -0.0084  0.1303
 3236POSM   NC337969  33.283  18.272  12.807 -0.0947  0.0579 -0.0865
 3236POSM   PO437970  33.475  18.104  13.105  0.1396 -0.0232  0.1040
 3236POSM   AM137971  33.726  17.986  13.283 -0.1953 -0.3675 -0.0513
 3236POSM   AM237972  33.952  18.054  13.484 -0.2728 -0.2564 -0.2503
 3236POSM   T1A37973  33.871  17.623  13.586  0.2994  0.0447 -0.0339
 3236POSM   C2A37974  33.968  17.189  13.739  0.1770  0.0003  0.2103
 3236POSM   C3A37975  34.136  16.872  13.998 -0.0672  0.1178  0.3040
 3236POSM   C1B37976  34.198  17.986  13.716  0.1374 -0.0578 -0.1282
 3236POSM   D2B37977  34.646  17.970  13.784 -0.0003  0.0167 -0.0260
 3236POSM   C3B37978  34.874  18.020  13.369 -0.1405 -0.0460 -0.1282
 3236POSM   C4B37979  35.226  17.787  13.065 -0.3024  0.0589 -0.0545
 3237POSM   NC337980  24.744  21.679  11.717  0.0883  0.1296  0.1916
 3237POSM   PO437981  24.373  21.797  11.613 -0.2785 -0.1542  0.1511
 3237POSM   AM137982  24.308  21.590  11.858  0.2199 -0.1302 -0.1970
 3237POSM   AM237983  24.431  21.508  12.096 -0.2811  0.2479  0.0174
 3237POSM   T1A37984  24.171  21.100  12.012  0.2637 -0.0510 -0.1420
 3237POSM   C2A37985  24.106  20.654  12.039 -0.1229 -0.1522 -0.3173
 3237POSM   C3A37986  24.159  20.251  11.756  0.0568 -0.0305 -0.2392
 3237POSM   C1B37987  24.413  21.332  12.385 -0.0176 -0.0251  0.2122
 3237POSM   D2B37988  24.326  21.262  12.806 -0.1606 -0.2235 -0.2022
 3237POSM   C3B37989  24.684  21.221  13.134  0.1216 -0.0448 -0.2347
 3237POSM   C4B37990  24.771  21.001  13.555  0.0882 -0.2226 -0.0388
 3238DOPS   CNO37991  30.746  14.329  13.012 -0.2883 -0.1099 -0.1041
 3238DOPS   PO437992  30.760  14.138  13.362  0.2148 -0.0820 -0.1277
 3238DOPS   GL137993  30.883  14.370  13.666  0.0559 -0.1606 -0.2131
 3238DOPS   GL237994  30.591  14.372  13.817  0.0494 -0.1680 -0.0000
 3238DOPS   C1A37995  31.144  14.197  14.044  0.2787  0.1351 -0.1068
 3238DOPS   D2A37996  31.551  14.102  14.145 -0.1392 -0.3309 -0.0185
 3238DOPS   C3A37997  31.874  14.338  14.424 -0.0299 -0.2150  0.1646
 3238DOPS   C4A37998  32.149  14.679  14.555 -0.0009  0.0041 -0.0002
 3238DOPS   C1B37999  30.710  13.991  14.013  0.0353 -0.0016 -0.0562
 3238DOPS   D2B38000  30.592  13.569  13.932 -0.3238 -0.0815 -0.0223
 3238DOPS   C3B38001  30.899  13.205  14.040 -0.0074  0.2033 -0.3439
 3238DOPS   C4B38002  31.076  12.812  14.264  0.2391  0.2448 -0.1710
 3239POSM   NC338003  26.070  11.560  12.517 -0.0861 -0.0273  0.0422
 3239POSM   PO438004  26.232  11.201  12.463  0.1303  0.0582 -0.0617
 3239POSM   AM138005  26.200  11.089  12.770 -0.0717  0.2603 -0.2299
 3239POSM   AM238006  26.361  10.869  12.867 -0.2944  0.0234 -0.1978
 3239POSM   T1A38007  25.922  11.241  13.154 -0.3121 -0.0127  0.1746
 3239POSM   C2A38008  25.829  11.580  13.422 -0.2187  0.1209 -0.3522
 3239POSM   C3A38009  25.801  11.988  13.690  0.1719 -0.0598  0.2173
 3239POSM   C1B38010  26.496  10.906  13.189 -0.0854  0.3089  0.2314
 3239POSM   D2B38011  26.469  10.644  13.577 -0.1607  0.2982 -0.1433
 3239POSM   C3B38012  26.085  10.761  13.798 -0.2819  0.2903  0.1527
 3239POSM   C4B38013  25.965  10.999  14.153 -0.1049 -0.0319 -0.2930
 3240DOPE   NH338014  28.618  20.898  12.661  0.1301  0.1937 -0.1333
 3240DOPE   PO438015  28.724  20.756  12.907 -0.2041 -0.2392 -0.1522
 3240DOPE   GL138016  28.575  20.644  13.277  0.1576  0.3179 -0.1737
 3240DOPE   GL238017  28.412  20.841  13.407  0.0829 -0.3327  0.1107
 3240DOPE   C1A38018  28.770  20.596  13.724  0.0699  0.1258 -0.0039
 3240DOPE   D2A38019  29.005  20.475  14.071  0.0157 -0.1188 -0.2964
 3240DOPE   C3A38020  29.264  20.100  14.160 -0.1407 -0.0664  0.2195
 3240DOPE   C4A38021  29.560  19.711  14.202  0.0973 -0.5148  0.4760
 3240DOPE   C1B38022  28.322  20.766  13.857 -0.2204 -0.1552 -0.0534
 3240DOPE   D2B38023  28.337  20.416  14.180  0.3355 -0.1263 -0.1524
 3240DOPE   C3B38024  28.704  20.101  14.349 -0.1457 -0.4793  0.1338
 3240DOPE   C4B38025  29.095  19.930  14.596  0.1123 -0.0233 -0.1622
 3241DOPE   NH338026  25.991  12.401  12.117  0.2546  0.0724 -0.0183
 3241DOPE   PO438027  25.707  12.300  12.182  0.0431 -0.1621 -0.1633
 3241DOPE   GL138028  25.554  12.590  12.207  0.0026  0.2754 -0.0098
 3241DOPE   GL238029  25.308  12.518  11.937  0.1831 -0.2036  0.1752
 3241DOPE   C1A38030  25.763  13.019  12.115 -0.0544 -0.0953  0.0803
 3241DOPE   D2A38031  26.013  13.373  12.377  0.2067  0.1112  0.2398
 3241DOPE   C3A38032  25.733  13.581  12.694  0.0974 -0.0151  0.0343
 3241DOPE   C4A38033  25.410  13.910  12.882 -0.0133  0.4059 -0.3229
 3241DOPE   C1B38034  25.135  12.497  12.387 -0.0699  0.0459  0.1521
 3241DOPE   D2B38035  24.967  12.716  12.807  0.0321  0.2742 -0.1656
 3241DOPE   C3B38036  25.079  12.573  13.270 -0.0848  0.1378  0.1515
 3241DOPE   C4B38037  25.170  12.646  13.729 -0.0919  0.1734 -0.1975
 3242DOPE   NH338038  25.916  12.073  12.602  0.3225 -0.0548  0.0400
 3242DOPE   PO438039  26.054  12.383  12.604 -0.0724  0.1013 -0.3254
 3242DOPE   GL138040  25.798  12.625  12.582 -0.3163 -0.2146 -0.0675
 3242DOPE   GL238041  25.541  12.539  12.742 -0.0358  0.1124 -0.0281
 3242DOPE   C1A38042  25.595  13.046  12.661 -0.2702  0.0482  0.1179
 3242DOPE   D2A38043  25.319  13.311  12.937 -0.0216 -0.2811 -0.0409
 3242DOPE   C3A38044  25.655  13.499  13.254 -0.0350 -0.2507 -0.1720
 3242DOPE   C4A38045  26.036  13.551  13.509  0.3013  0.0706 -0.1175
 3242DOPE   C1B38046  25.491  12.819  13.113 -0.0031 -0.2380 -0.1918
 3242DOPE   D2B38047  25.368  13.123  13.490  0.1208 -0.0676 -0.3045
 3242DOPE   C3B38048  24.920  13.038  13.465 -0.1138  0.2091  0.1374
 3242DOPE   C4B38049  24.475  13.207  13.315  0.1675 -0.2955 -0.2607
 3243DOPS   CNO38050  26.744  11.080  12.557 -0.0671  0.3015 -0.0210
 3243DOPS   PO438051  26.882  11.008  12.252 -0.0674  0.2420 -0.0974
 3243DOPS   GL138052  27.006  11.354  12.274 -0.0693 -0.1061 -0.2596
 3243DOPS   GL238053  27.136  11.375  12.528  0.2215 -0.0929 -0.0297
 3243DOPS   C1A38054  27.197  11.643  12.015 -0.0689  0.0497 -0.3596
 3243DOPS   D2A38055  27.435  12.065  12.039  0.2241 -0.3465  0.2583
 3243DOPS   C3A38056  27.438  12.464  12.314  0.0504  0.2345 -0.0162
 3243DOPS   C4A38057  27.280  12.822  12.538 -0.0083  0.0901 -0.1667
 3243DOPS   C1B38058  27.418  11.748  12.483 -0.0594  0.3373  0.1430
 3243DOPS   D2B38059  27.658  11.650  12.148 -0.2857  0.1129  0.2306
 3243DOPS   C3B38060  27.995  11.857  12.456 -0.0894 -0.2957  0.2351
 3243DOPS   C4B38061  28.392  12.122  12.473 -0.0219  0.1861  0.0001
 3244POSM   NC338062  30.368  14.498  13.380 -0.4217  0.0709  0.0970
 3244POSM   PO438063  30.473  14.789  13.154  0.1131 -0.3383  0.0912
 3244POSM   AM138064  30.463  14.964  13.465  0.0079  0.0975 -0.2083
 3244POSM   AM238065  30.279  15.140  13.532  0.2314 -0.1591  0.1084
 3244POSM   T1A38066  30.431  14.812  13.951  0.2812 -0.1741  0.1873
 3244POSM   C2A38067  30.471  14.613  14.297  0.0615  0.1007 -0.0308
 3244POSM   C3A38068  30.417  14.273  14.632 -0.3662  0.2095  0.1113
 3244POSM   C1B38069  30.093  15.264  13.850  0.0221  0.0134 -0.1367
 3244POSM   D2B38070  29.704  15.168  14.046  0.0818 -0.0635  0.0335
 3244POSM   C3B38071  29.533  14.794  13.903 -0.0537  0.1239  0.6321
 3244POSM   C4B38072  29.113  14.626  13.972 -0.0141 -0.3708  0.0132
 3245POSM   NC338073  32.766  18.095  12.693 -0.2906  0.0559  0.1052
 3245POSM   PO438074  32.682  17.735  12.829 -0.1766 -0.0249 -0.2418
 3245POSM   AM138075  32.527  17.467  12.972  0.0917 -0.1313  0.3335
 3245POSM   AM238076  32.573  17.396  13.246  0.2143 -0.1165  0.2805
 3245POSM   T1A38077  32.368  17.003  12.964 -0.0246  0.1210  0.3180
 3245POSM   C2A38078  32.318  16.548  13.092  0.3221  0.1515  0.2219
 3245POSM   C3A38079  32.643  16.278  13.325 -0.1234 -0.3335  0.0775
 3245POSM   C1B38080  32.679  17.376  13.548  0.0164 -0.0646 -0.0831
 3245POSM   D2B38081  33.102  17.417  13.763  0.0802  0.0750  0.1404
 3245POSM   C3B38082  33.068  17.324  14.231  0.2335  0.3934 -0.2730
 3245POSM   C4B38083  33.038  16.913  14.503  0.2920  0.0761 -0.3705
 3246DOPE   NH338084  31.366  14.475  13.553 -0.2489 -0.0584 -0.3258
 3246DOPE   PO438085  31.701  14.524  13.523 -0.2033 -0.0244  0.2515
 3246DOPE   GL138086  31.589  14.828  13.787 -0.1444 -0.0485 -0.1526
 3246DOPE   GL238087  31.503  14.661  14.063  0.0314 -0.2309 -0.0884
 3246DOPE   C1A38088  31.502  15.161  14.145  0.0342 -0.1936 -0.1685
 3246DOPE   D2A38089  31.445  15.382  14.507 -0.0696 -0.2883 -0.1512
 3246DOPE   C3A38090  31.662  15.394  14.911 -0.0455  0.6022  0.2444
 3246DOPE   C4A38091  31.785  15.763  15.186 -0.2438  0.3421 -0.0391
 3246DOPE   C1B38092  31.939  14.854  14.103  0.0889 -0.4558 -0.0394
 3246DOPE   D2B38093  32.374  14.947  14.191  0.0361 -0.4700 -0.3291
 3246DOPE   C3B38094  32.631  14.905  14.554  0.1590  0.1009  0.1648
 3246DOPE   C4B38095  32.744  14.828  15.000  0.1887  0.0766  0.1033
 3247DOPS   CNO38096  24.648  22.891  12.012  0.3412 -0.2391 -0.0120
 3247DOPS   PO438097  24.453  22.743  12.315  0.1349 -0.1419  0.0104
 3247DOPS   GL138098  24.384  22.841  12.657 -0.3476 -0.0059 -0.3753
 3247DOPS   GL238099  24.655  22.755  12.769  0.3681 -0.3073  0.0917
 3247DOPS   C1A38100  24.383  23.086  13.030 -0.1428  0.1256 -0.0208
 3247DOPS   D2A38101  24.155  23.321  13.297  0.0841  0.0534  0.4877
 3247DOPS   C3A38102  24.250  23.235  13.782  0.0635 -0.0410  0.2561
 3247DOPS   C4A38103  24.597  23.155  13.987 -0.0222  0.2253  0.0288
 3247DOPS   C1B38104  24.687  22.740  13.219  0.2282 -0.2806  0.0984
 3247DOPS   D2B38105  25.071  22.824  13.500  0.1132  0.1734 -0.2127
 3247DOPS   C3B38106  25.031  22.777  13.941  0.0917  0.0613  0.1289
 3247DOPS   C4B38107  24.730  22.783  14.310 -0.1757  0.3352  0.0980
 3248DOPE   NH338108  28.458  20.375  12.744 -0.0724 -0.0317  0.0496
 3248DOPE   PO438109  28.637  20.152  12.518 -0.1790 -0.0544  0.0133
 3248DOPE   GL138110  29.005  20.041  12.658  0.1855 -0.3235  0.1748
 3248DOPE   GL238111  29.034  19.773  12.612  0.3156  0.0147 -0.0881
 3248DOPE   C1A38112  29.411  20.159  12.520  0.0604 -0.4473 -0.0855
 3248DOPE   D2A38113  29.741  20.456  12.522 -0.0543 -0.2661  0.4151
 3248DOPE   C3A38114  30.149  20.284  12.671  0.1036 -0.2250  0.2164
 3248DOPE   C4A38115  30.257  19.809  12.629  0.4305 -0.0463 -0.0569
 3248DOPE   C1B38116  29.460  19.678  12.810 -0.0860 -0.3568  0.1308
 3248DOPE   D2B38117  29.605  19.744  13.296 -0.2124 -0.2018  0.0254
 3248DOPE   C3B38118  29.969  19.990  13.535  0.1685 -0.1957  0.1026
 3248DOPE   C4B38119  30.263  20.349  13.702 -0.0922 -0.1199 -0.0352
 3249POSM   NC338120  22.928  12.579  11.611  0.3043  0.0100 -0.5244
 3249POSM   PO438121  22.994  12.973  11.499 -0.1409  0.2014  0.1971
 3249POSM   AM138122  23.157  12.969  11.780 -0.3589 -0.3567 -0.2093
 3249POSM   AM238123  23.145  13.092  12.021 -0.0604  0.1291  0.1745
 3249POSM   T1A38124  23.576  12.712  11.944 -0.0334 -0.1430 -0.1437
 3249POSM   C2A38125  23.900  12.316  11.967  0.1056 -0.2510 -0.1445
 3249POSM   C3A38126  24.187  12.298  12.310 -0.0773  0.3699  0.0098
 3249POSM   C1B38127  23.220  13.001  12.314  0.1195  0.0595 -0.0648
 3249POSM   D2B38128  23.293  12.797  12.739 -0.0112  0.1900  0.1481
 3249POSM   C3B38129  22.962  12.804  13.036  0.1994 -0.0109  0.0898
 3249POSM   C4B38130  22.626  12.786  13.320 -0.0840 -0.2599 -0.2312
 3250POSM   NC338131  23.588  22.459  12.397  0.2728 -0.2639 -0.2067
 3250POSM   PO438132  23.959  22.513  12.244  0.1503 -0.0015  0.1203
 3250POSM   AM138133  23.984  22.643  12.545 -0.1226 -0.3370 -0.0048
 3250POSM   AM238134  23.932  22.900  12.558  0.0840 -0.2425 -0.0452
 3250POSM   T1A38135  24.204  22.521  12.985 -0.1148  0.1348 -0.0776
 3250POSM   C2A38136  24.481  22.308  13.235  0.2486  0.3093  0.3620
 3250POSM   C3A38137  24.870  22.045  13.033 -0.3724 -0.1112  0.1498
 3250POSM   C1B38138  23.942  23.108  12.830 -0.1584  0.0332  0.1701
 3250POSM   D2B38139  24.037  23.545  12.835  0.1459 -0.0100 -0.1806
 3250POSM   C3B38140  23.795  23.738  13.190  0.1086  0.0777  0.0089
 3250POSM   C4B38141  23.698  23.943  13.584 -0.0209  0.1019  0.0136
 3251DOPC   NC338142  27.296  19.479  13.081  0.2618  0.0738  0.0112
 3251DOPC   PO438143  27.339  19.637  12.702  0.1547 -0.1657  0.2748
 3251DOPC   GL138144  27.477  19.904  13.016  0.1763 -0.4121  0.2635
 3251DOPC   GL238145  27.696  20.038  12.944  0.1135  0.1783  0.2447
 3251DOPC   C1A38146  27.349  19.892  13.439  0.2016  0.3008  0.2056
 3251DOPC   D2A38147  27.223  19.476  13.578 -0.0649 -0.2376 -0.0305
 3251DOPC   C3A38148  27.292  19.508  14.020 -0.0931  0.1593  0.1803
 3251DOPC   C4A38149  27.259  19.388  14.499 -0.1010 -0.1517 -0.0411
 3251DOPC   C1B38150  27.703  20.142  13.378  0.0913 -0.0376 -0.1656
 3251DOPC   D2B38151  27.593  20.130  13.832  0.0892  0.0112 -0.1152
 3251DOPC   C3B38152  27.184  20.371  14.011  0.0953  0.0888 -0.2819
 3251DOPC   C4B38153  27.054  20.761  14.144  0.2754 -0.2510  0.3181
 3252POSM   NC338154  22.284  18.944  11.179  0.1736 -0.2213  0.0340
 3252POSM   PO438155  22.471  18.663  11.374 -0.0339  0.0152 -0.2348
 3252POSM   AM138156  22.612  18.765  11.648  0.0605  0.1229 -0.1237
 3252POSM   AM238157  22.664  18.654  11.931  0.2122 -0.1321  0.1258
 3252POSM   T1A38158  23.074  18.759  11.693 -0.1145 -0.1450  0.0797
 3252POSM   C2A38159  23.478  18.502  11.681  0.0937 -0.0378 -0.2326
 3252POSM   C3A38160  23.855  18.384  11.919  0.0645  0.0997 -0.0143
 3252POSM   C1B38161  22.841  18.588  12.181 -0.2105 -0.3744  0.0224
 3252POSM   D2B38162  23.260  18.432  12.146 -0.3985  0.1790 -0.1136
 3252POSM   C3B38163  23.579  18.033  12.121 -0.2200 -0.1703  0.2152
 3252POSM   C4B38164  23.639  17.747  11.706  0.2227  0.3263 -0.1506
 3253DOPE   NH338165  28.157  14.024  12.204 -0.1813 -0.0417  0.2986
 3253DOPE   PO438166  28.194  14.274  12.410 -0.0425  0.0534  0.0600
 3253DOPE   GL138167  28.067  13.921  12.651  0.0358 -0.0337 -0.2850
 3253DOPE   GL238168  28.318  13.854  12.704 -0.0712 -0.1837  0.0458
 3253DOPE   C1A38169  27.988  13.466  12.790  0.0903  0.1626 -0.1802
 3253DOPE   D2A38170  27.765  13.103  12.986 -0.1458  0.1311 -0.1936
 3253DOPE   C3A38171  27.985  12.729  12.932 -0.1587 -0.2377 -0.1458
 3253DOPE   C4A38172  28.337  12.412  12.882  0.1414  0.0674 -0.2243
 3253DOPE   C1B38173  28.476  13.708  13.083 -0.2230  0.1017 -0.0825
 3253DOPE   D2B38174  28.313  13.644  13.495  0.1250 -0.4313 -0.2029
 3253DOPE   C3B38175  28.122  13.334  13.780  0.0252  0.0328 -0.0581
 3253DOPE   C4B38176  28.067  12.896  13.934 -0.1311  0.0633  0.0880
 3254DOPS   CNO38177  26.659  16.564  12.328 -0.0129 -0.2581  0.3120
 3254DOPS   PO438178  26.734  16.909  12.494 -0.0923 -0.0857 -0.0340
 3254DOPS   GL138179  26.838  17.008  12.838 -0.2939 -0.1563 -0.4135
 3254DOPS   GL238180  26.779  17.210  13.019 -0.3119 -0.0059 -0.2149
 3254DOPS   C1A38181  26.802  16.760  13.248  0.1310  0.0145  0.0502
 3254DOPS   D2A38182  26.625  16.535  13.604 -0.0528  0.0809 -0.0145
 3254DOPS   C3A38183  26.399  16.152  13.645  0.0823 -0.0500 -0.1521
 3254DOPS   C4A38184  25.984  15.933  13.724  0.0484  0.1258  0.2742
 3254DOPS   C1B38185  26.812  17.233  13.486 -0.0118  0.0680  0.0612
 3254DOPS   D2B38186  26.854  17.427  13.897 -0.1717 -0.1124  0.2857
 3254DOPS   C3B38187  26.580  17.380  14.291  0.0469  0.0175  0.0830
 3254DOPS   C4B38188  26.253  17.626  14.511  0.0580 -0.3146  0.0298
 3255DOPC   NC338189  26.296  18.744  12.275 -0.1790  0.0679  0.1775
 3255DOPC   PO438190  26.319  18.761  12.692  0.2175  0.0100  0.3354
 3255DOPC   GL138191  26.399  18.866  13.100  0.0977 -0.0424  0.0863
 3255DOPC   GL238192  26.485  18.551  13.104 -0.0306  0.1788  0.2137
 3255DOPC   C1A38193  26.317  19.172  13.437  0.1402  0.0401  0.0604
 3255DOPC   D2A38194  26.389  19.089  13.875  0.1364 -0.1410  0.0567
 3255DOPC   C3A38195  26.653  18.804  14.232  0.1968 -0.3362 -0.0592
 3255DOPC   C4A38196  26.824  18.604  14.603  0.0115  0.0113  0.0881
 3255DOPC   C1B38197  26.164  18.672  13.365 -0.1230  0.1041  0.0276
 3255DOPC   D2B38198  25.771  18.884  13.450  0.1142  0.0841  0.0109
 3255DOPC   C3B38199  25.885  18.850  13.886 -0.1111  0.2218  0.1180
 3255DOPC   C4B38200  25.957  18.772  14.374 -0.0556 -0.0919  0.3543
 3256DOPC   NC338201  31.503  22.156  12.426  0.0329  0.1569 -0.3349
 3256DOPC   PO438202  31.886  22.135  12.418 -0.1564  0.0925 -0.1695
 3256DOPC   GL138203  31.859  21.881  12.696 -0.1311 -0.0370 -0.3141
 3256DOPC   GL238204  32.097  21.647  12.591  0.2305 -0.2784  0.0448
 3256DOPC   C1A38205  31.668  21.672  13.093 -0.1829 -0.0201 -0.1199
 3256DOPC   D2A38206  31.877  21.241  13.339 -0.0095  0.0218 -0.0200
 3256DOPC   C3A38207  31.582  20.891  13.311 -0.1036  0.0391 -0.0926
 3256DOPC   C4A38208  31.263  20.528  13.323 -0.2232 -0.2063  0.0247
 3256DOPC   C1B38209  31.749  21.313  12.615 -0.0987  0.0058  0.0513
 3256DOPC   D2B38210  31.812  20.951  12.855  0.0895  0.3011  0.3598
 3256DOPC   C3B38211  31.349  20.868  12.905 -0.2422  0.0658  0.0720
 3256DOPC   C4B38212  30.972  20.633  12.811  0.0583 -0.1293  0.3923
 3257DOPC   NC338213  25.562  16.349  12.808 -0.1748 -0.2204  0.4010
 3257DOPC   PO438214  25.956  16.483  12.831 -0.3803 -0.0121  0.1316
 3257DOPC   GL138215  25.878  16.493  13.168  0.0416 -0.3727 -0.0841
 3257DOPC   GL238216  25.847  16.163  13.236  0.0963 -0.2331  0.1061
 3257DOPC   C1A38217  26.068  16.527  13.554  0.0611  0.0427  0.1628
 3257DOPC   D2A38218  26.088  16.445  13.990  0.2504  0.3625  0.0896
 3257DOPC   C3A38219  26.230  16.062  14.183 -0.0427 -0.1172 -0.0274
 3257DOPC   C4A38220  26.489  15.928  14.574  0.0253  0.3123  0.0687
 3257DOPC   C1B38221  25.558  16.412  13.509  0.0561  0.1986  0.1518
 3257DOPC   D2B38222  25.581  16.574  13.942 -0.1203 -0.1987 -0.1446
 3257DOPC   C3B38223  25.886  16.911  13.845 -0.1841  0.1455  0.1565
 3257DOPC   C4B38224  26.081  17.403  13.848 -0.4687 -0.1104 -0.0374
 3258DOPS   CNO38225  28.684  20.132  13.369  0.2246 -0.2020  0.0057
 3258DOPS   PO438226  28.824  20.309  13.087 -0.1041 -0.0943 -0.1277
 3258DOPS   GL138227  29.022  20.572  13.366  0.1514 -0.2222 -0.0466
 3258DOPS   GL238228  28.972  20.899  13.339  0.1215 -0.1759  0.1301
 3258DOPS   C1A38229  29.318  20.744  13.682  0.0004 -0.2321  0.0050
 3258DOPS   D2A38230  29.471  20.653  14.144  0.2555 -0.0780 -0.0156
 3258DOPS   C3A38231  29.271  20.911  14.533 -0.1575 -0.2260  0.1189
 3258DOPS   C4A38232  29.031  21.171  14.792 -0.0210 -0.0572  0.1881
 3258DOPS   C1B38233  28.858  21.090  13.677  0.0112  0.0670 -0.1628
 3258DOPS   D2B38234  28.950  21.021  14.088  0.1850  0.1324 -0.0504
 3258DOPS   C3B38235  28.724  20.765  14.378 -0.1317  0.1461  0.0811
 3258DOPS   C4B38236  28.493  20.440  14.652  0.0827 -0.2017  0.1335
 3259POSM   NC338237  25.731  11.137  12.672  0.1749  0.0962  0.2484
 3259POSM   PO438238  25.394  11.214  12.533  0.2615  0.0478  0.2023
 3259POSM   AM138239  25.252  11.161  12.828 -0.0350  0.0567 -0.4297
 3259POSM   AM238240  25.004  11.058  12.920 -0.0811 -0.1622 -0.1234
 3259POSM   T1A38241  25.445  11.211  13.271  0.4061  0.2818 -0.0771
 3259POSM   C2A38242  25.670  11.081  13.607  0.2567  0.0272 -0.0903
 3259POSM   C3A38243  25.543  10.798  13.950 -0.1144  0.1408  0.0177
 3259POSM   C1B38244  24.899  11.399  12.974 -0.0047  0.1294  0.1530
 3259POSM   D2B38245  24.928  11.843  13.140  0.1097 -0.1455 -0.1922
 3259POSM   C3B38246  24.823  11.599  13.547  0.2690 -0.3431  0.0184
 3259POSM   C4B38247  24.955  11.481  13.989  0.0055 -0.0097 -0.2441
 3260POSM   NC338248  29.441  22.145  12.369 -0.0014 -0.0124  0.0759
 3260POSM   PO438249  29.295  22.505  12.524  0.1022 -0.0352  0.1565
 3260POSM   AM138250  29.284  22.283  12.785 -0.0707 -0.0246  0.0256
 3260POSM   AM238251  29.440  22.132  12.920  0.2461  0.3663 -0.0510
 3260POSM   T1A38252  29.059  22.023  13.175  0.0146  0.1346 -0.0660
 3260POSM   C2A38253  28.718  22.166  13.405  0.1071 -0.1877 -0.3655
 3260POSM   C3A38254  28.660  22.482  13.722 -0.3161  0.1130 -0.0749
 3260POSM   C1B38255  29.467  22.304  13.211 -0.0442 -0.0161 -0.1608
 3260POSM   D2B38256  29.234  22.405  13.598 -0.1384  0.1546 -0.0583
 3260POSM   C3B38257  29.433  22.219  14.012  0.2385 -0.0540 -0.1170
 3260POSM   C4B38258  29.826  22.093  14.285 -0.0869  0.1576  0.1383
 3261DOPE   NH338259  22.849  17.404  11.732  0.0958 -0.0917  0.4798
 3261DOPE   PO438260  23.092  17.525  11.954  0.0751 -0.0466 -0.1192
 3261DOPE   GL138261  23.033  17.562  12.302 -0.3712  0.1012 -0.5187
 3261DOPE   GL238262  23.089  17.823  12.358  0.0120  0.0411  0.1090
 3261DOPE   C1A38263  23.253  17.417  12.721  0.4278  0.0172  0.1022
 3261DOPE   D2A38264  23.540  17.219  13.034 -0.2100  0.3752  0.0716
 3261DOPE   C3A38265  23.349  17.203  13.430  0.0566 -0.1215 -0.0524
 3261DOPE   C4A38266  23.322  17.060  13.848 -0.2905 -0.1252  0.0119
 3261DOPE   C1B38267  22.966  17.889  12.818  0.1998 -0.2011 -0.0759
 3261DOPE   D2B38268  22.488  17.985  12.868 -0.0627 -0.1894  0.3184
 3261DOPE   C3B38269  22.216  17.746  13.212  0.0198 -0.0328  0.1375
 3261DOPE   C4B38270  21.747  17.828  13.166  0.3848  0.0207 -0.2116
 3262DOPC   NC338271  28.163  11.309  12.203  0.3243  0.2235  0.2276
 3262DOPC   PO438272  28.100  10.987  11.954  0.0462  0.1714 -0.2071
 3262DOPC   GL138273  28.214  10.887  12.334  0.1268  0.0207 -0.2344
 3262DOPC   GL238274  27.984  10.667  12.351  0.0452  0.1290  0.2260
 3262DOPC   C1A38275  28.409  11.088  12.716 -0.0317  0.1636  0.2668
 3262DOPC   D2A38276  28.807  11.253  13.024 -0.1259 -0.0066 -0.0067
 3262DOPC   C3A38277  28.722  11.330  13.461 -0.1179  0.0839 -0.0729
 3262DOPC   C4A38278  28.632  11.721  13.723  0.0531  0.1645 -0.0966
 3262DOPC   C1B38279  28.081  10.489  12.731  0.1005 -0.0577  0.0655
 3262DOPC   D2B38280  27.989  10.443  13.199  0.0114 -0.2347 -0.1324
 3262DOPC   C3B38281  27.921  10.764  13.438 -0.0626  0.2489  0.0678
 3262DOPC   C4B38282  27.852  11.170  13.515 -0.0966 -0.0874 -0.1214
 3263POSM   NC338283  33.848  14.892  12.434 -0.1462 -0.4281  0.0318
 3263POSM   PO438284  33.819  14.969  12.819 -0.4100  0.2320  0.2030
 3263POSM   AM138285  33.965  15.022  13.107  0.3790 -0.3396  0.0113
 3263POSM   AM238286  34.137  15.192  13.252  0.3838  0.3163 -0.2776
 3263POSM   T1A38287  33.998  14.804  13.544  0.1097 -0.1843 -0.1150
 3263POSM   C2A38288  34.196  14.688  13.931 -0.2275  0.1952 -0.0854
 3263POSM   C3A38289  34.014  14.713  14.346 -0.0440 -0.1360 -0.0952
 3263POSM   C1B38290  34.408  15.254  13.401 -0.1732  0.1174  0.1770
 3263POSM   D2B38291  34.901  15.264  13.457 -0.0796  0.1250 -0.0093
 3263POSM   C3B38292  35.147  15.094  13.772 -0.0228 -0.0180  0.1705
 3263POSM   C4B38293  35.600  14.837  13.809 -0.0090  0.0342  0.4014
 3264POSM   NC338294  28.783  19.437  12.302 -0.0396  0.1888  0.0328
 3264POSM   PO438295  28.559  19.135  12.404  0.0698  0.2319  0.2713
 3264POSM   AM138296  28.520  19.036  12.731  0.1246  0.3096  0.1893
 3264POSM   AM238297  28.427  19.118  12.971  0.0981 -0.2190  0.3289
 3264POSM   T1A38298  28.560  18.680  13.122 -0.1314 -0.0743 -0.2068
 3264POSM   C2A38299  28.819  18.512  13.468 -0.1666  0.1898  0.1591
 3264POSM   C3A38300  29.037  18.355  13.886 -0.2081 -0.4887 -0.0846
 3264POSM   C1B38301  28.439  19.224  13.286  0.2823  0.6182  0.3304
 3264POSM   D2B38302  28.525  19.005  13.679 -0.2597 -0.0145 -0.2063
 3264POSM   C3B38303  28.673  19.278  13.976 -0.1548 -0.1793 -0.0392
 3264POSM   C4B38304  28.763  19.616  14.301 -0.0939  0.1296 -0.1591
 3265DOPC   NC338305  25.155  32.398  16.290  0.4051  0.3009  0.0314
 3265DOPC   PO438306  25.533  32.290  16.257  0.3249  0.0881 -0.2866
 3265DOPC   GL138307  25.602  32.181  15.854 -0.0336  0.1173 -0.0298
 3265DOPC   GL238308  25.266  32.215  15.837 -0.0601  0.1322  0.0709
 3265DOPC   C1A38309  25.806  32.300  15.462  0.1906 -0.1087  0.2838
 3265DOPC   D2A38310  26.001  32.656  15.163  0.1906  0.0103  0.1044
 3265DOPC   C3A38311  25.875  32.801  14.739 -0.2848 -0.0309 -0.2129
 3265DOPC   C4A38312  25.497  32.723  14.493  0.0296  0.2896  0.1280
 3265DOPC   C1B38313  25.315  32.310  15.364  0.2944 -0.2713 -0.0949
 3265DOPC   D2B38314  25.514  32.494  14.997 -0.0115  0.0982  0.2937
 3265DOPC   C3B38315  25.785  32.110  15.005 -0.1354 -0.0765 -0.3017
 3265DOPC   C4B38316  25.914  31.830  15.278  0.0691 -0.3129  0.4212
 3266DOPC   NC338317  32.627  26.461  16.331  0.1226 -0.2227  0.1208
 3266DOPC   PO438318  32.652  26.687  15.989 -0.0169  0.1208 -0.2364
 3266DOPC   GL138319  32.537  26.662  15.668 -0.2854  0.2058 -0.1318
 3266DOPC   GL238320  32.741  26.503  15.442 -0.0748  0.0386  0.3407
 3266DOPC   C1A38321  32.222  26.636  15.300 -0.0088  0.1199  0.2227
 3266DOPC   D2A38322  31.999  26.990  15.114 -0.4523  0.0369 -0.1037
 3266DOPC   C3A38323  31.916  26.808  14.707 -0.0416  0.1831  0.1022
 3266DOPC   C4A38324  31.979  26.718  14.265 -0.1757  0.1037  0.0944
 3266DOPC   C1B38325  32.854  26.751  15.036  0.1581  0.0550 -0.1383
 3266DOPC   D2B38326  32.893  26.739  14.573 -0.1527  0.3347  0.2004
 3266DOPC   C3B38327  33.211  26.450  14.295 -0.0970 -0.0316 -0.3216
 3266DOPC   C4B38328  32.991  26.455  13.880  0.0213  0.0327  0.1834
 3267DOPE   NH338329  32.022  32.487  16.058 -0.0578  0.1513  0.1864
 3267DOPE   PO438330  32.212  32.721  16.101  0.1829 -0.4413 -0.2188
 3267DOPE   GL138331  32.371  32.717  15.812  0.0075 -0.2737  0.1891
 3267DOPE   GL238332  32.224  32.781  15.546 -0.0374  0.1678 -0.1832
 3267DOPE   C1A38333  32.708  32.742  15.522  0.1236 -0.0839 -0.2204
 3267DOPE   D2A38334  33.149  32.875  15.369 -0.0771 -0.3135 -0.1725
 3267DOPE   C3A38335  33.192  32.928  14.882  0.2019 -0.0728  0.2448
 3267DOPE   C4A38336  33.462  32.884  14.498  0.1834 -0.3617 -0.0880
 3267DOPE   C1B38337  32.324  32.669  15.115 -0.1113 -0.2242 -0.1346
 3267DOPE   D2B38338  32.598  32.837  14.770 -0.0032  0.2349 -0.0798
 3267DOPE   C3B38339  32.622  32.798  14.323 -0.0201  0.1182  0.2896
 3267DOPE   C4B38340  32.855  32.738  13.948  0.0024 -0.0860  0.1448
 3268DOPE   NH338341  24.463  32.015  16.476  0.0659  0.1400 -0.0503
 3268DOPE   PO438342  24.165  32.121  16.322  0.0707  0.2285 -0.2204
 3268DOPE   GL138343  24.316  32.306  15.934 -0.3081 -0.0967  0.0833
 3268DOPE   GL238344  24.090  32.088  15.823  0.1275 -0.1453  0.1486
 3268DOPE   C1A38345  24.446  32.692  15.686 -0.0831 -0.1120  0.0361
 3268DOPE   D2A38346  24.772  33.064  15.537 -0.0829  0.1079  0.0125
 3268DOPE   C3A38347  24.800  33.066  15.134  0.1122  0.0939  0.2923
 3268DOPE   C4A38348  25.064  32.889  14.778 -0.2339 -0.2083  0.1454
 3268DOPE   C1B38349  24.293  32.268  15.443  0.1424  0.1664 -0.0062
 3268DOPE   D2B38350  24.518  32.631  15.233 -0.1026 -0.2625 -0.1193
 3268DOPE   C3B38351  24.619  32.556  14.820  0.2049 -0.1028  0.2767
 3268DOPE   C4B38352  24.361  32.360  14.493 -0.1471 -0.0062  0.1466
 3269DOPC   NC338353  31.786  34.000  16.305  0.0460 -0.2262 -0.1550
 3269DOPC   PO438354  32.174  33.934  16.193 -0.1434  0.2285 -0.0149
 3269DOPC   GL138355  32.230  34.127  15.903 -0.0613  0.1343  0.0943
 3269DOPC   GL238356  31.959  34.261  15.871 -0.3196  0.0993 -0.2101
 3269DOPC   C1A38357  32.443  34.079  15.519  0.0986 -0.2099 -0.1654
 3269DOPC   D2A38358  32.781  34.064  15.194  0.2250  0.0325  0.2302
 3269DOPC   C3A38359  32.557  34.310  14.829 -0.0573 -0.1051 -0.0406
 3269DOPC   C4A38360  32.335  34.448  14.427 -0.0325 -0.1439  0.0220
 3269DOPC   C1B38361  31.900  34.154  15.441 -0.1476 -0.4206 -0.1587
 3269DOPC   D2B38362  31.706  34.295  15.066  0.0228 -0.0530  0.2107
 3269DOPC   C3B38363  31.611  34.735  15.010  0.1310 -0.0500 -0.1302
 3269DOPC   C4B38364  31.923  35.064  15.007 -0.0501 -0.4688  0.3071
 3270DOPC   NC338365  34.165  32.253  16.325  0.1486 -0.3000  0.0253
 3270DOPC   PO438366  33.826  32.476  16.252  0.0834  0.2104  0.1514
 3270DOPC   GL138367  33.759  32.183  15.936 -0.2105  0.1033  0.2103
 3270DOPC   GL238368  34.048  32.260  15.828  0.1849 -0.2564 -0.0797
 3270DOPC   C1A38369  33.687  32.191  15.493  0.1553 -0.0817  0.4199
 3270DOPC   D2A38370  33.874  32.310  15.118  0.1793 -0.0381 -0.1638
 3270DOPC   C3A38371  34.281  32.452  15.115  0.3059 -0.2646  0.1643
 3270DOPC   C4A38372  34.601  32.702  15.286 -0.1501 -0.1016  0.0552
 3270DOPC   C1B38373  34.055  32.601  15.507 -0.0670  0.2234 -0.0243
 3270DOPC   D2B38374  34.139  32.955  15.240 -0.1595  0.1566  0.1443
 3270DOPC   C3B38375  34.330  32.978  14.802  0.1309 -0.1900  0.1559
 3270DOPC   C4B38376  34.675  33.170  14.567  0.1373  0.1014  0.1390
 3271POSM   NC338377  26.385  26.436  15.603  0.0036  0.1081  0.5323
 3271POSM   PO438378  26.703  26.685  15.743  0.1526 -0.1214  0.0230
 3271POSM   AM138379  26.629  26.803  15.433  0.2238 -0.2296 -0.0605
 3271POSM   AM238380  26.703  26.843  15.174  0.0831  0.1142  0.0849
 3271POSM   T1A38381  26.256  27.130  15.203 -0.0451  0.2515 -0.0444
 3271POSM   C2A38382  25.943  27.420  14.951 -0.3220  0.1003  0.3930
 3271POSM   C3A38383  25.584  27.669  14.969  0.0333  0.4850  0.2302
 3271POSM   C1B38384  26.824  26.547  14.993  0.0761 -0.0389 -0.1002
 3271POSM   D2B38385  26.679  26.246  14.665  0.2495 -0.1960 -0.2604
 3271POSM   C3B38386  26.827  26.252  14.180 -0.0302 -0.2214 -0.3070
 3271POSM   C4B38387  27.039  26.278  13.797 -0.1443  0.0299  0.0560
 3272DOPS   CNO38388  31.096  32.909  16.147  0.1408  0.2491  0.0081
 3272DOPS   PO438389  31.373  33.140  16.153  0.2065 -0.0969 -0.2731
 3272DOPS   GL138390  31.269  33.082  15.745 -0.4538  0.0397 -0.1108
 3272DOPS   GL238391  31.250  32.803  15.735  0.0802 -0.2033 -0.0797
 3272DOPS   C1A38392  31.380  33.024  15.312  0.1512 -0.0856 -0.0358
 3272DOPS   D2A38393  31.391  33.057  14.813 -0.1459  0.0697  0.1986
 3272DOPS   C3A38394  31.762  33.257  14.557 -0.2100 -0.0541  0.1167
 3272DOPS   C4A38395  31.916  33.584  14.334 -0.2459 -0.1475 -0.0462
 3272DOPS   C1B38396  31.144  32.520  15.342 -0.0029 -0.3199 -0.0448
 3272DOPS   D2B38397  30.960  32.275  15.014  0.1354 -0.2359  0.0838
 3272DOPS   C3B38398  31.071  32.250  14.556 -0.3551  0.1294  0.3303
 3272DOPS   C4B38399  31.052  31.963  14.197  0.0354 -0.2628  0.0993
 3273DOPC   NC338400  29.233  26.157  16.504 -0.1108 -0.0660 -0.0517
 3273DOPC   PO438401  28.855  26.048  16.327  0.1282 -0.1633 -0.0229
 3273DOPC   GL138402  28.935  25.991  16.031 -0.4088 -0.1361 -0.0109
 3273DOPC   GL238403  28.742  25.833  15.852 -0.2236 -0.1074 -0.2898
 3273DOPC   C1A38404  29.203  25.825  15.669 -0.0180 -0.0869  0.4379
 3273DOPC   D2A38405  29.363  25.696  15.257  0.2051  0.1580 -0.2861
 3273DOPC   C3A38406  29.326  25.839  14.834  0.0276  0.1439  0.3668
 3273DOPC   C4A38407  29.125  25.677  14.515  0.2283  0.2454  0.0796
 3273DOPC   C1B38408  28.528  25.866  15.360  0.0502  0.0289 -0.1370
 3273DOPC   D2B38409  28.031  25.881  15.256 -0.0696 -0.3240 -0.3469
 3273DOPC   C3B38410  27.755  26.092  14.958  0.0528  0.0054 -0.0618
 3273DOPC   C4B38411  27.518  25.946  14.578  0.2193 -0.0792  0.3409
 3274DOPE   NH338412  26.107  29.706  16.390 -0.1247 -0.1021 -0.1437
 3274DOPE   PO438413  26.155  29.428  16.223  0.1572  0.1682 -0.0606
 3274DOPE   GL138414  26.139  29.266  15.831  0.0262 -0.3199  0.1103
 3274DOPE   GL238415  26.367  29.090  15.838  0.0241  0.0715 -0.0411
 3274DOPE   C1A38416  26.006  28.906  15.580 -0.0743 -0.3397 -0.0920
 3274DOPE   D2A38417  25.659  28.757  15.287 -0.3040  0.2082 -0.0849
 3274DOPE   C3A38418  25.665  28.799  14.834 -0.2593  0.1847 -0.2096
 3274DOPE   C4A38419  25.704  28.859  14.347  0.1613  0.0256 -0.2274
 3274DOPE   C1B38420  26.434  29.194  15.378 -0.1800 -0.2496 -0.3878
 3274DOPE   D2B38421  26.308  29.429  14.977 -0.0080 -0.0297  0.0506
 3274DOPE   C3B38422  26.540  29.666  14.622  0.2612 -0.1040 -0.3123
 3274DOPE   C4B38423  26.921  29.844  14.396 -0.0883  0.1251  0.0598
 3275POSM   NC338424  31.564  32.648  16.116  0.1400 -0.0540  0.0513
 3275POSM   PO438425  31.532  32.289  16.167 -0.1357  0.0030 -0.0017
 3275POSM   AM138426  31.637  32.318  15.825  0.0449 -0.1611  0.0361
 3275POSM   AM238427  31.729  32.486  15.616 -0.0150 -0.0409  0.2146
 3275POSM   T1A38428  31.848  31.964  15.576 -0.3934  0.0561  0.2223
 3275POSM   C2A38429  31.998  31.653  15.233 -0.1744  0.1495  0.3319
 3275POSM   C3A38430  32.221  31.423  14.883 -0.2959  0.0616  0.3633
 3275POSM   C1B38431  31.628  32.481  15.279  0.0699 -0.0131  0.0508
 3275POSM   D2B38432  31.412  32.467  14.881 -0.0435  0.0920 -0.3328
 3275POSM   C3B38433  31.720  32.467  14.481  0.2054  0.0314 -0.1532
 3275POSM   C4B38434  32.086  32.233  14.345  0.1750  0.5570  0.0497
 3276DOPS   CNO38435  29.202  34.480  16.373 -0.1440 -0.0715 -0.2444
 3276DOPS   PO438436  29.260  34.869  16.469  0.0072 -0.2491 -0.2021
 3276DOPS   GL138437  29.267  34.961  16.045  0.0078  0.3244  0.0642
 3276DOPS   GL238438  28.998  34.795  15.994  0.0996  0.2647 -0.2789
 3276DOPS   C1A38439  29.279  34.750  15.573  0.0471 -0.0577 -0.0789
 3276DOPS   D2A38440  29.376  34.768  15.148 -0.2509 -0.0386  0.1214
 3276DOPS   C3A38441  29.712  34.898  14.898 -0.1405  0.1705  0.0382
 3276DOPS   C4A38442  29.815  34.984  14.494 -0.2124  0.1314 -0.2598
 3276DOPS   C1B38443  28.809  34.890  15.491 -0.0653  0.1588  0.0454
 3276DOPS   D2B38444  28.760  35.111  15.070  0.0028 -0.1167 -0.3755
 3276DOPS   C3B38445  29.131  35.216  14.777  0.0596 -0.3111 -0.1217
 3276DOPS   C4B38446  29.351  34.905  14.489  0.0277  0.1127 -0.1950
 3277DOPC   NC338447  33.636  25.994  16.170  0.1849  0.1044  0.2922
 3277DOPC   PO438448  33.409  26.014  15.804  0.0638 -0.0476 -0.2682
 3277DOPC   GL138449  33.279  25.954  15.477 -0.4063  0.2425 -0.3372
 3277DOPC   GL238450  33.101  26.187  15.454  0.0820 -0.1380 -0.3071
 3277DOPC   C1A38451  33.525  25.855  15.092  0.1247  0.1563  0.1080
 3277DOPC   D2A38452  33.629  25.567  14.703 -0.0427 -0.0618  0.1551
 3277DOPC   C3A38453  33.399  25.121  14.638 -0.1492 -0.0843 -0.0520
 3277DOPC   C4A38454  33.059  24.775  14.489 -0.0061  0.0989  0.0638
 3277DOPC   C1B38455  32.945  25.842  15.161  0.0291 -0.2121 -0.0855
 3277DOPC   D2B38456  32.689  25.693  14.811 -0.0072 -0.2906  0.1449
 3277DOPC   C3B38457  32.455  25.643  14.419 -0.1272  0.1631 -0.3904
 3277DOPC   C4B38458  32.150  25.766  14.074 -0.1789 -0.0591 -0.0023
 3278DOPE   NH338459  29.576  27.865  16.467  0.1928  0.0980  0.3294
 3278DOPE   PO438460  29.496  27.549  16.468 -0.1085 -0.0783 -0.1267
 3278DOPE   GL138461  29.498  27.495  16.135 -0.3897 -0.0685  0.4479
 3278DOPE   GL238462  29.481  27.690  15.934 -0.0044 -0.2334  0.1265
 3278DOPE   C1A38463  29.180  27.323  15.810 -0.3160 -0.0423  0.3196
 3278DOPE   D2A38464  29.043  27.141  15.390  0.1332 -0.1177 -0.0274
 3278DOPE   C3A38465  29.224  26.757  15.166  0.3915  0.1596 -0.1199
 3278DOPE   C4A38466  29.227  26.388  14.901  0.0730  0.1859  0.3162
 3278DOPE   C1B38467  29.083  27.817  15.795 -0.1274 -0.2580 -0.2361
 3278DOPE   D2B38468  29.006  28.238  15.634  0.0613 -0.1003 -0.1259
 3278DOPE   C3B38469  29.239  28.449  15.232  0.3984  0.2215 -0.1468
 3278DOPE   C4B38470  29.076  28.586  14.835  0.0325 -0.3313 -0.0497
 3279DOPE   NH338471  28.173  27.379  16.472  0.0663 -0.0698 -0.2422
 3279DOPE   PO438472  28.281  27.154  16.254 -0.0965  0.2840 -0.0983
 3279DOPE   GL138473  28.349  27.320  15.888 -0.1585 -0.3167 -0.1673
 3279DOPE   GL238474  28.525  27.484  15.958 -0.1403  0.3263  0.0530
 3279DOPE   C1A38475  28.132  27.468  15.439  0.1957  0.1466 -0.3185
 3279DOPE   D2A38476  28.293  27.505  15.019 -0.0506 -0.0063  0.0695
 3279DOPE   C3A38477  28.222  27.915  14.765 -0.2488  0.2560  0.2935
 3279DOPE   C4A38478  28.160  28.402  14.711 -0.2433  0.3233 -0.2396
 3279DOPE   C1B38479  28.557  27.814  15.604 -0.2321  0.1677 -0.1610
 3279DOPE   D2B38480  28.505  28.258  15.539 -0.0552 -0.2824 -0.1195
 3279DOPE   C3B38481  28.139  28.343  15.253  0.0569 -0.1818  0.2974
 3279DOPE   C4B38482  27.819  28.180  14.974 -0.1867  0.0817  0.1262
 3280DOPC   NC338483  31.144  33.888  16.574 -0.0743  0.1265 -0.2095
 3280DOPC   PO438484  31.332  34.223  16.548  0.1358  0.1542 -0.2866
 3280DOPC   GL138485  31.296  34.066  16.116  0.2074  0.2591 -0.0966
 3280DOPC   GL238486  31.473  34.089  15.914 -0.0735  0.0006  0.0081
 3280DOPC   C1A38487  31.115  33.834  15.724 -0.1263  0.0736  0.0414
 3280DOPC   D2A38488  31.175  33.558  15.328  0.1762 -0.0682  0.1187
 3280DOPC   C3A38489  30.834  33.653  14.982 -0.0347 -0.3494  0.1601
 3280DOPC   C4A38490  30.506  33.725  14.682  0.3506 -0.1304 -0.5391
 3280DOPC   C1B38491  31.504  34.399  15.593  0.0110 -0.3325 -0.0063
 3280DOPC   D2B38492  31.702  34.850  15.475 -0.2260 -0.0434  0.0145
 3280DOPC   C3B38493  31.455  35.185  15.266 -0.2679 -0.2105  0.0574
 3280DOPC   C4B38494  31.294  35.594  15.130  0.3507 -0.2131 -0.0928
 3281POSM   NC338495  33.271  28.920  16.074  0.1282  0.0294  0.1078
 3281POSM   PO438496  33.232  29.224  16.331 -0.0327  0.0168  0.1135
 3281POSM   AM138497  33.177  29.412  16.029 -0.1962  0.0841 -0.0391
 3281POSM   AM238498  33.305  29.452  15.756  0.1839  0.0700  0.6027
 3281POSM   T1A38499  32.871  29.688  15.789 -0.3029  0.0184 -0.0354
 3281POSM   C2A38500  32.540  29.959  16.051  0.1452 -0.0878 -0.1234
 3281POSM   C3A38501  32.283  30.272  16.281  0.2538  0.1775 -0.3932
 3281POSM   C1B38502  33.402  29.566  15.475  0.1017  0.0171  0.1515
 3281POSM   D2B38503  33.564  29.625  15.014  0.0201 -0.2511 -0.0342
 3281POSM   C3B38504  33.292  29.981  15.007 -0.0032 -0.1245  0.1172
 3281POSM   C4B38505  33.227  30.398  14.709  0.1795  0.1547  0.0152
 3282DOPE   NH338506  23.931  32.505  16.197  0.1330  0.3902 -0.0490
 3282DOPE   PO438507  23.850  32.818  16.074  0.0536  0.1297  0.1218
 3282DOPE   GL138508  23.976  32.993  15.761 -0.5018 -0.0990  0.3871
 3282DOPE   GL238509  23.776  33.170  15.604 -0.2509  0.0494  0.3216
 3282DOPE   C1A38510  24.216  33.119  15.345  0.1005 -0.4063  0.0967
 3282DOPE   D2A38511  24.321  32.920  14.912  0.3231  0.0742  0.0265
 3282DOPE   C3A38512  24.437  32.881  14.423  0.0128 -0.3966 -0.3945
 3282DOPE   C4A38513  24.583  33.006  14.029  0.2127  0.1668 -0.0662
 3282DOPE   C1B38514  23.463  33.141  15.237  0.0583  0.0712 -0.0313
 3282DOPE   D2B38515  23.157  32.984  14.892 -0.1654 -0.0117 -0.2371
 3282DOPE   C3B38516  23.475  32.804  14.617  0.3024 -0.3284  0.2287
 3282DOPE   C4B38517  23.636  32.515  14.247  0.0607  0.0506 -0.3960
 3283DOPS   CNO38518  27.829  24.595  16.287  0.0837 -0.1138  0.1829
 3283DOPS   PO438519  27.834  24.914  16.067 -0.0763  0.1076 -0.0704
 3283DOPS   GL138520  27.731  24.784  15.654  0.0813 -0.0978 -0.4132
 3283DOPS   GL238521  27.745  25.086  15.534  0.0840  0.0144 -0.0072
 3283DOPS   C1A38522  27.750  24.798  15.167 -0.0018 -0.2778 -0.2454
 3283DOPS   D2A38523  27.516  24.674  14.842  0.0538 -0.2056 -0.0111
 3283DOPS   C3A38524  27.805  24.510  14.478  0.1787 -0.0067  0.0880
 3283DOPS   C4A38525  28.179  24.395  14.226  0.1626 -0.0511  0.1843
 3283DOPS   C1B38526  27.813  25.408  15.206  0.4156 -0.3897 -0.1572
 3283DOPS   D2B38527  27.979  25.549  14.769 -0.0529  0.0577 -0.3603
 3283DOPS   C3B38528  27.894  25.421  14.303 -0.2775 -0.0885 -0.1649
 3283DOPS   C4B38529  27.892  25.268  13.832  0.1104  0.1737 -0.0401
 3284POSM   NC338530  31.148  31.376  16.204  0.2432  0.1631  0.1465
 3284POSM   PO438531  31.046  31.499  16.595 -0.1112 -0.3050 -0.1099
 3284POSM   AM138532  30.767  31.501  16.403  0.2171  0.5763 -0.3583
 3284POSM   AM238533  30.712  31.581  16.120  0.0867  0.1090  0.1357
 3284POSM   T1A38534  30.377  31.253  16.191 -0.0421 -0.0375  0.3391
 3284POSM   C2A38535  30.088  30.853  16.148  0.0965  0.1924  0.2920
 3284POSM   C3A38536  30.038  30.426  16.002 -0.0202 -0.1146  0.0955
 3284POSM   C1B38537  30.741  31.418  15.836  0.0404 -0.0544  0.0865
 3284POSM   D2B38538  30.799  31.380  15.355 -0.1950 -0.1838  0.0548
 3284POSM   C3B38539  30.431  31.246  15.080  0.1222 -0.0071  0.1695
 3284POSM   C4B38540  29.940  31.356  14.950 -0.4598 -0.2598 -0.1108
 3285POSM   NC338541  28.440  31.595  15.951  0.2151 -0.1556  0.0036
 3285POSM   PO438542  28.095  31.601  16.152 -0.0356 -0.0703 -0.1292
 3285POSM   AM138543  27.994  31.836  15.904  0.1164 -0.2257 -0.1518
 3285POSM   AM238544  28.152  32.061  15.782  0.0029  0.0615 -0.1455
 3285POSM   T1A38545  27.703  31.847  15.519  0.1701  0.0796  0.1047
 3285POSM   C2A38546  27.375  31.890  15.244 -0.0710 -0.2014 -0.0880
 3285POSM   C3A38547  27.255  31.713  14.882  0.1159  0.1356  0.2039
 3285POSM   C1B38548  28.289  31.911  15.551 -0.0254 -0.0657  0.5623
 3285POSM   D2B38549  28.546  31.662  15.236  0.0696  0.1881  0.3356
 3285POSM   C3B38550  28.285  31.646  14.845  0.0178  0.1214  0.0336
 3285POSM   C4B38551  28.071  31.682  14.407  0.1795  0.0248 -0.3737
 3286DOPC   NC338552  26.701  23.852  16.196 -0.0715  0.3091  0.0445
 3286DOPC   PO438553  26.435  23.852  15.873  0.0055  0.0058 -0.1028
 3286DOPC   GL138554  26.326  23.805  15.470  0.5850  0.1411  0.1371
 3286DOPC   GL238555  26.206  23.530  15.510 -0.0874  0.1405  0.0721
 3286DOPC   C1A38556  25.950  23.960  15.196 -0.1528  0.0468  0.0519
 3286DOPC   D2A38557  25.676  24.214  14.926 -0.0588  0.1361 -0.0431
 3286DOPC   C3A38558  25.523  24.267  14.520 -0.1892  0.2175  0.1756
 3286DOPC   C4A38559  25.219  24.254  14.113 -0.2602 -0.1519 -0.0724
 3286DOPC   C1B38560  26.099  23.402  15.115 -0.1370 -0.1892 -0.0159
 3286DOPC   D2B38561  25.959  23.108  14.776  0.2337  0.1588  0.0726
 3286DOPC   C3B38562  25.972  23.412  14.438 -0.0119  0.1729  0.4043
 3286DOPC   C4B38563  26.014  23.728  14.049  0.1189  0.1282 -0.1983
 3287DOPS   CNO38564  30.500  27.034  16.807 -0.0486  0.2918  0.1304
 3287DOPS   PO438565  30.354  27.367  16.761 -0.2984  0.2731  0.1575
 3287DOPS   GL138566  30.631  27.491  16.493  0.2940 -0.0400 -0.2447
 3287DOPS   GL238567  30.590  27.777  16.550  0.1105 -0.1420 -0.1162
 3287DOPS   C1A38568  30.659  27.564  16.047  0.1640  0.1938  0.2365
 3287DOPS   D2A38569  30.799  27.949  15.762 -0.2927 -0.2328  0.2345
 3287DOPS   C3A38570  30.810  27.978  15.283  0.1844 -0.2879 -0.0270
 3287DOPS   C4A38571  31.011  27.999  14.857 -0.0635  0.1645 -0.0811
 3287DOPS   C1B38572  30.847  27.999  16.270 -0.2290  0.0633  0.2335
 3287DOPS   D2B38573  30.782  28.445  16.073 -0.2373  0.2070 -0.1987
 3287DOPS   C3B38574  31.145  28.583  15.738  0.1889  0.2886  0.2204
 3287DOPS   C4B38575  31.202  28.857  15.354 -0.0457  0.1694  0.1070
 3288DOPE   NH338576  32.331  33.380  16.137 -0.3162 -0.0822  0.0294
 3288DOPE   PO438577  32.276  33.173  15.869 -0.0796 -0.0236 -0.2780
 3288DOPE   GL138578  32.455  33.248  15.564 -0.1986 -0.1981  0.4957
 3288DOPE   GL238579  32.266  33.232  15.331  0.0357  0.4751 -0.2044
 3288DOPE   C1A38580  32.642  33.591  15.314 -0.0036 -0.0185 -0.3183
 3288DOPE   D2A38581  32.659  33.722  14.882 -0.0119 -0.1851 -0.0042
 3288DOPE   C3A38582  32.930  33.870  14.522 -0.0454 -0.3203  0.0608
 3288DOPE   C4A38583  33.372  34.046  14.473 -0.0405  0.0559 -0.1246
 3288DOPE   C1B38584  32.323  33.176  14.900  0.2026  0.1813  0.1223
 3288DOPE   D2B38585  32.306  33.218  14.430  0.2486 -0.0359  0.1420
 3288DOPE   C3B38586  32.522  33.150  13.991 -0.1892  0.4835  0.1198
 3288DOPE   C4B38587  32.808  33.283  13.677 -0.2044  0.0571  0.1053
 3289POSM   NC338588  33.682  28.675  15.937  0.1788  0.0574 -0.3232
 3289POSM   PO438589  33.421  28.405  15.859 -0.1627  0.1428  0.1210
 3289POSM   AM138590  33.287  28.610  15.668  0.1606 -0.0937  0.1590
 3289POSM   AM238591  33.388  28.834  15.583  0.1422 -0.0004  0.1765
 3289POSM   T1A38592  32.931  28.738  15.304  0.1799 -0.0530  0.1781
 3289POSM   C2A38593  32.791  28.848  14.811  0.0082  0.2467  0.0544
 3289POSM   C3A38594  32.739  28.746  14.376  0.1602  0.4622 -0.0238
 3289POSM   C1B38595  33.407  29.083  15.348 -0.2624  0.1913  0.2596
 3289POSM   D2B38596  33.150  29.326  15.017 -0.1529  0.0329 -0.1757
 3289POSM   C3B38597  33.263  29.418  14.597  0.2600 -0.2900  0.0857
 3289POSM   C4B38598  33.327  29.425  14.134  0.2195  0.0483  0.0973
 3290POSM   NC338599  33.781  24.360  15.661  0.0853 -0.1419  0.0501
 3290POSM   PO438600  33.858  24.731  15.688  0.0204  0.0055 -0.1799
 3290POSM   AM138601  34.000  24.780  15.419  0.3306  0.2716 -0.1195
 3290POSM   AM238602  34.087  24.992  15.279  0.0939  0.3502  0.2470
 3290POSM   T1A38603  34.166  24.526  14.986 -0.0034 -0.0036  0.0489
 3290POSM   C2A38604  34.166  24.555  14.567 -0.1401 -0.1372 -0.0677
 3290POSM   C3A38605  33.964  24.544  14.165  0.2475 -0.1218 -0.1354
 3290POSM   C1B38606  34.033  25.146  14.957 -0.3403 -0.1386  0.2510
 3290POSM   D2B38607  33.912  25.190  14.476 -0.2591 -0.1362 -0.2819
 3290POSM   C3B38608  33.589  25.075  14.105 -0.0814 -0.0930  0.2931
 3290POSM   C4B38609  33.485  24.969  13.709 -0.1139 -0.0521 -0.1320
 3291DOPC   NC338610  25.320  31.808  16.119 -0.0308  0.0073  0.0648
 3291DOPC   PO438611  24.954  31.924  16.321 -0.2755  0.0046  0.1432
 3291DOPC   GL138612  24.883  31.994  15.975  0.1228  0.0500  0.1578
 3291DOPC   GL238613  24.757  32.198  15.778  0.3211  0.0695  0.0858
 3291DOPC   C1A38614  24.970  31.772  15.589 -0.0222  0.0820 -0.0070
 3291DOPC   D2A38615  24.988  31.367  15.333  0.0138  0.0028  0.1199
 3291DOPC   C3A38616  24.524  31.276  15.414 -0.0351  0.0750 -0.1025
 3291DOPC   C4A38617  24.124  31.114  15.596  0.4922 -0.2370 -0.2281
 3291DOPC   C1B38618  24.909  32.608  15.722  0.0338 -0.0707  0.1401
 3291DOPC   D2B38619  25.258  32.908  15.666  0.5435 -0.1081 -0.3430
 3291DOPC   C3B38620  25.710  32.732  15.578 -0.1290 -0.0084 -0.4132
 3291DOPC   C4B38621  26.140  32.541  15.648 -0.0908  0.2486  0.0458
 3292DOPC   NC338622  24.306  25.168  16.224 -0.1634  0.0034 -0.1386
 3292DOPC   PO438623  24.440  25.409  15.901 -0.1639 -0.1379  0.1055
 3292DOPC   GL138624  24.308  25.589  15.628 -0.0053 -0.3504 -0.0526
 3292DOPC   GL238625  24.373  25.510  15.358 -0.0308 -0.3392 -0.3417
 3292DOPC   C1A38626  24.345  26.032  15.429  0.0969  0.1668 -0.2022
 3292DOPC   D2A38627  24.523  26.453  15.604  0.2640  0.0588 -0.0325
 3292DOPC   C3A38628  24.548  26.764  15.257 -0.3237 -0.3021  0.1217
 3292DOPC   C4A38629  24.379  26.878  14.805 -0.1117 -0.0086 -0.1916
 3292DOPC   C1B38630  24.307  25.413  14.946 -0.3481 -0.0435  0.0672
 3292DOPC   D2B38631  24.327  25.134  14.622 -0.2993 -0.1772  0.1581
 3292DOPC   C3B38632  24.316  25.332  14.246 -0.3871  0.2248 -0.1066
 3292DOPC   C4B38633  24.218  25.413  13.817 -0.2783  0.0120  0.1264
 3293POSM   NC338634  30.100  23.087  15.855 -0.1425 -0.2324 -0.3035
 3293POSM   PO438635  29.850  23.105  16.147  0.0581  0.1388  0.2191
 3293POSM   AM138636  29.656  23.071  15.851 -0.0475  0.0433  0.0747
 3293POSM   AM238637  29.595  23.261  15.689 -0.1938 -0.2777  0.0204
 3293POSM   T1A38638  29.618  22.793  15.448  0.2998 -0.3722 -0.0947
 3293POSM   C2A38639  29.326  22.474  15.445  0.0828  0.3356  0.2478
 3293POSM   C3A38640  29.229  22.014  15.330 -0.3311 -0.0690  0.0216
 3293POSM   C1B38641  29.805  23.338  15.464  0.0791  0.1769  0.1466
 3293POSM   D2B38642  29.935  23.476  15.042  0.1342 -0.0359 -0.0924
 3293POSM   C3B38643  29.733  23.577  14.608  0.3467  0.0452 -0.1628
 3293POSM   C4B38644  29.619  24.000  14.480 -0.2049  0.1693  0.1665
 3294POSM   NC338645  34.533  27.608  16.104  0.1980 -0.1344  0.0165
 3294POSM   PO438646  34.482  27.861  15.773  0.0216  0.0101  0.3637
 3294POSM   AM138647  34.462  28.085  15.520 -0.3774  0.3828 -0.1343
 3294POSM   AM238648  34.554  28.352  15.428  0.3425 -0.3468  0.1336
 3294POSM   T1A38649  34.272  28.085  15.050 -0.2321 -0.1513  0.0353
 3294POSM   C2A38650  34.359  28.203  14.592 -0.0150 -0.0446  0.0160
 3294POSM   C3A38651  34.159  28.267  14.168 -0.4907 -0.0854 -0.1251
 3294POSM   C1B38652  34.602  28.525  15.065 -0.0438  0.2629  0.0831
 3294POSM   D2B38653  34.571  28.831  14.741  0.0525 -0.1595  0.0754
 3294POSM   C3B38654  34.738  28.771  14.330 -0.1376 -0.2630 -0.1969
 3294POSM   C4B38655  34.922  28.526  13.964  0.0591 -0.0208 -0.0011
 3295DOPE   NH338656  33.415  33.904  16.580 -0.0725  0.1859  0.2869
 3295DOPE   PO438657  33.286  33.855  16.286  0.0261  0.1337  0.2128
 3295DOPE   GL138658  33.625  33.764  15.973  0.0155  0.0342 -0.2152
 3295DOPE   GL238659  33.571  33.495  16.047  0.1282  0.0464  0.0742
 3295DOPE   C1A38660  33.790  33.933  15.584  0.1858  0.1661 -0.0593
 3295DOPE   D2A38661  33.761  33.886  15.078  0.2783 -0.2281  0.1736
 3295DOPE   C3A38662  34.096  33.589  14.905 -0.2823 -0.0637  0.2550
 3295DOPE   C4A38663  34.295  33.489  14.528  0.2941 -0.1739 -0.0353
 3295DOPE   C1B38664  33.373  33.578  15.637 -0.1237  0.0908  0.3901
 3295DOPE   D2B38665  33.117  33.617  15.298 -0.2342 -0.2432 -0.0807
 3295DOPE   C3B38666  33.221  33.629  14.875 -0.2239  0.0647 -0.0489
 3295DOPE   C4B38667  33.338  33.391  14.471 -0.1341 -0.1286  0.2104
 3296DOPC   NC338668  29.855  32.341  16.199 -0.1817  0.1047  0.0735
 3296DOPC   PO438669  29.968  32.647  16.422 -0.2413  0.1774 -0.1410
 3296DOPC   GL138670  29.941  32.732  16.018  0.2213  0.1054 -0.0744
 3296DOPC   GL238671  30.151  32.926  15.932  0.4427 -0.0072 -0.0934
 3296DOPC   C1A38672  29.863  32.846  15.544  0.1871  0.0759  0.0258
 3296DOPC   D2A38673  29.580  32.882  15.219 -0.3156 -0.1606  0.2889
 3296DOPC   C3A38674  29.621  32.907  14.761  0.1866  0.2312 -0.1375
 3296DOPC   C4A38675  29.534  32.865  14.287  0.0895 -0.2592 -0.2679
 3296DOPC   C1B38676  30.378  32.916  15.545  0.3178  0.1222  0.1256
 3296DOPC   D2B38677  30.614  32.645  15.238 -0.0297 -0.1535  0.0599
 3296DOPC   C3B38678  30.967  32.782  14.946 -0.0399  0.1873  0.0999
 3296DOPC   C4B38679  31.030  32.805  14.513  0.1156 -0.0728  0.0117
 3297DOPE   NH338680  31.136  29.475  16.920  0.0207 -0.3130 -0.0041
 3297DOPE   PO438681  30.803  29.454  16.986 -0.1435  0.0403  0.0923
 3297DOPE   GL138682  30.760  29.476  16.637 -0.2020  0.3905  0.5033
 3297DOPE   GL238683  30.951  29.486  16.378  0.0758  0.4721  0.1175
 3297DOPE   C1A38684  30.618  29.814  16.327 -0.0318 -0.0130  0.0314
 3297DOPE   D2A38685  30.557  29.948  15.837  0.1023  0.1738  0.0308
 3297DOPE   C3A38686  30.690  30.212  15.438 -0.1166  0.3190  0.0118
 3297DOPE   C4A38687  30.736  30.290  14.930  0.3166 -0.2165 -0.1090
 3297DOPE   C1B38688  31.034  29.484  15.968 -0.1398  0.0093  0.2696
 3297DOPE   D2B38689  30.922  29.254  15.542 -0.2337 -0.3000  0.0803
 3297DOPE   C3B38690  30.486  29.175  15.382  0.0570  0.2243  0.2556
 3297DOPE   C4B38691  30.198  29.392  15.134  0.1820 -0.0039 -0.0107
 3298DOPE   NH338692  33.867  26.578  15.492  0.2695  0.2192 -0.0954
 3298DOPE   PO438693  33.568  26.463  15.583 -0.1858 -0.0903  0.2656
 3298DOPE   GL138694  33.509  26.326  15.178  0.2602  0.0495  0.0416
 3298DOPE   GL238695  33.807  26.233  15.038 -0.2814 -0.2645 -0.3896
 3298DOPE   C1A38696  33.155  26.322  14.963  0.5142 -0.2992  0.0495
 3298DOPE   D2A38697  32.830  26.192  14.624  0.0777  0.0053  0.0930
 3298DOPE   C3A38698  32.874  25.993  14.253 -0.1657 -0.0986 -0.2866
 3298DOPE   C4A38699  32.767  25.618  14.027 -0.2956 -0.0622 -0.1102
 3298DOPE   C1B38700  33.800  26.345  14.626  0.2332 -0.1584 -0.0320
 3298DOPE   D2B38701  33.797  26.691  14.426  0.0105  0.0381 -0.1451
 3298DOPE   C3B38702  33.550  26.707  14.058  0.1401 -0.2207 -0.0351
 3298DOPE   C4B38703  33.599  26.937  13.617  0.0817 -0.0821 -0.1126
 3299DOPE   NH338704  31.185  25.781  16.412 -0.1012  0.1579  0.0329
 3299DOPE   PO438705  31.002  25.948  16.584  0.2509 -0.0949 -0.2656
 3299DOPE   GL138706  30.872  26.106  16.219  0.3988 -0.1294 -0.2644
 3299DOPE   GL238707  30.663  26.253  16.297  0.0061 -0.0449  0.0938
 3299DOPE   C1A38708  30.770  26.169  15.763  0.0637  0.1023 -0.0494
 3299DOPE   D2A38709  30.791  26.270  15.289  0.1078 -0.0613 -0.1046
 3299DOPE   C3A38710  30.589  25.842  15.286  0.0838 -0.3063 -0.3166
 3299DOPE   C4A38711  30.262  25.582  15.122 -0.0139 -0.1412  0.2607
 3299DOPE   C1B38712  30.428  26.466  15.923  0.1975  0.1258  0.3484
 3299DOPE   D2B38713  30.565  26.659  15.520 -0.0216  0.1938 -0.1950
 3299DOPE   C3B38714  30.483  26.609  15.019  0.1751 -0.2101 -0.0004
 3299DOPE   C4B38715  30.571  26.504  14.550 -0.2984  0.2315  0.0186
 3300DOPS   CNO38716  24.511  29.286  16.484  0.4097 -0.0642  0.1502
 3300DOPS   PO438717  24.540  28.930  16.287 -0.0889  0.1166  0.0859
 3300DOPS   GL138718  24.540  28.882  15.841 -0.3676 -0.1704 -0.6043
 3300DOPS   GL238719  24.492  28.671  15.597  0.1161 -0.0996  0.2366
 3300DOPS   C1A38720  24.557  29.255  15.541  0.1667  0.0691 -0.3098
 3300DOPS   D2A38721  24.863  29.413  15.337 -0.0068  0.3187  0.1445
 3300DOPS   C3A38722  24.905  29.114  14.963 -0.3718 -0.5013  0.0248
 3300DOPS   C4A38723  25.170  28.892  14.614 -0.0339  0.1986  0.1956
 3300DOPS   C1B38724  24.469  28.873  15.169 -0.0474 -0.0222 -0.0536
 3300DOPS   D2B38725  24.471  28.931  14.699 -0.0352  0.1060  0.4160
 3300DOPS   C3B38726  24.796  29.317  14.462  0.0855  0.0960 -0.1334
 3300DOPS   C4B38727  24.884  29.533  14.035 -0.0230 -0.4515 -0.0619
 3301DOPE   NH338728  29.393  29.494  16.439 -0.1591  0.0541 -0.2891
 3301DOPE   PO438729  29.473  29.724  16.615  0.0000  0.1855  0.2705
 3301DOPE   GL138730  29.454  29.924  16.234 -0.0043  0.1068 -0.0688
 3301DOPE   GL238731  29.376  29.746  16.034  0.1852 -0.3099 -0.0892
 3301DOPE   C1A38732  29.361  30.390  16.257 -0.0418 -0.2226  0.0498
 3301DOPE   D2A38733  29.603  30.742  16.042  0.0811  0.1640  0.1529
 3301DOPE   C3A38734  29.860  30.880  15.696  0.0861 -0.0180 -0.0237
 3301DOPE   C4A38735  30.070  31.026  15.319  0.2983  0.1364 -0.3315
 3301DOPE   C1B38736  29.625  30.139  15.860  0.0531 -0.0081  0.2502
 3301DOPE   D2B38737  29.472  30.542  15.653 -0.4564  0.1254  0.2887
 3301DOPE   C3B38738  29.438  30.817  15.247 -0.0195  0.1808  0.2320
 3301DOPE   C4B38739  29.233  31.210  15.113 -0.4852  0.3283 -0.0097
 3302DOPE   NH338740  27.489  30.418  16.405  0.0406 -0.1577 -0.1046
 3302DOPE   PO438741  27.212  30.219  16.331 -0.1050  0.0467  0.0415
 3302DOPE   GL138742  26.998  29.970  16.053  0.1408 -0.0245  0.1874
 3302DOPE   GL238743  27.200  30.033  15.879 -0.0906 -0.0925  0.2841
 3302DOPE   C1A38744  26.828  29.904  15.595 -0.0094 -0.0391  0.1978
 3302DOPE   D2A38745  26.930  30.017  15.172 -0.2176 -0.1844  0.2302
 3302DOPE   C3A38746  27.221  30.056  14.854  0.0774  0.4261 -0.0698
 3302DOPE   C4A38747  27.535  29.801  14.584  0.3013 -0.0739 -0.3803
 3302DOPE   C1B38748  27.356  29.982  15.441 -0.0068  0.1638  0.1534
 3302DOPE   D2B38749  27.397  29.669  15.092 -0.1078  0.2283  0.2636
 3302DOPE   C3B38750  27.116  29.570  14.805 -0.3743  0.1000  0.0181
 3302DOPE   C4B38751  26.838  29.301  14.467 -0.1815 -0.1203 -0.0330
 3303POSM   NC338752  27.153  23.161  16.347 -0.0013  0.0945  0.0814
 3303POSM   PO438753  27.004  23.395  16.108  0.1158  0.1335 -0.2708
 3303POSM   AM138754  26.946  23.419  15.763 -0.0519 -0.2612 -0.5211
 3303POSM   AM238755  26.747  23.516  15.597  0.1846  0.0064 -0.0369
 3303POSM   T1A38756  27.088  23.168  15.370 -0.4323  0.2376  0.0966
 3303POSM   C2A38757  27.114  23.156  14.939 -0.2480 -0.0296  0.0355
 3303POSM   C3A38758  27.049  22.867  14.578 -0.2437  0.1251 -0.1169
 3303POSM   C1B38759  26.800  23.580  15.242  0.3800 -0.2220 -0.3636
 3303POSM   D2B38760  26.985  23.769  14.850 -0.0087  0.0328  0.3472
 3303POSM   C3B38761  27.380  23.511  14.638  0.1706 -0.0527 -0.0398
 3303POSM   C4B38762  27.373  23.274  14.213  0.2321 -0.2785 -0.0648
 3304POSM   NC338763  27.427  26.300  15.582 -0.1332 -0.2445 -0.1980
 3304POSM   PO438764  27.595  26.589  15.791  0.0874  0.1926  0.3394
 3304POSM   AM138765  27.725  26.762  15.533 -0.1994  0.3767  0.0163
 3304POSM   AM238766  27.653  26.747  15.272  0.1369 -0.1044  0.0314
 3304POSM   T1A38767  28.144  26.898  15.435 -0.0488 -0.1219  0.2921
 3304POSM   C2A38768  28.410  27.045  15.063 -0.0309  0.1500  0.1339
 3304POSM   C3A38769  28.786  27.207  14.899 -0.6485  0.4291 -0.0575
 3304POSM   C1B38770  27.756  26.702  14.975 -0.1659  0.1354  0.0609
 3304POSM   D2B38771  27.670  26.461  14.598 -0.2761  0.1922  0.1755
 3304POSM   C3B38772  28.051  26.207  14.548 -0.1440  0.0281  0.0077
 3304POSM   C4B38773  28.299  25.950  14.845  0.0920  0.1456  0.3396
 3305DOPC   NC338774  29.290  29.001  16.190 -0.2313 -0.1115  0.1662
 3305DOPC   PO438775  29.094  29.121  16.478 -0.3862  0.2471  0.1721
 3305DOPC   GL138776  28.858  29.089  16.109 -0.0720  0.2112  0.1299
 3305DOPC   GL238777  28.583  29.146  15.994 -0.0215  0.1926 -0.0554
 3305DOPC   C1A38778  28.949  28.972  15.648 -0.3470  0.0245  0.0838
 3305DOPC   D2A38779  28.914  28.833  15.222  0.1017 -0.1090 -0.0736
 3305DOPC   C3A38780  28.766  29.109  14.831 -0.0702  0.3647 -0.1571
 3305DOPC   C4A38781  28.684  29.376  14.482 -0.3946 -0.2782 -0.0950
 3305DOPC   C1B38782  28.892  29.429  15.800 -0.0319  0.3922  0.0647
 3305DOPC   D2B38783  29.076  29.814  15.636  0.2239  0.2004 -0.0927
 3305DOPC   C3B38784  28.939  29.938  15.236  0.1568  0.5559  0.1780
 3305DOPC   C4B38785  29.233  30.021  14.881  0.0563  0.2224 -0.0600
 3306DOPC   NC338786  26.990  32.100  16.217  0.0616 -0.2813  0.3804
 3306DOPC   PO438787  27.284  32.038  16.007 -0.2773 -0.2688  0.1770
 3306DOPC   GL138788  27.108  32.056  15.676 -0.4850 -0.3494  0.0700
 3306DOPC   GL238789  27.131  32.281  15.497 -0.0034  0.2783  0.2063
 3306DOPC   C1A38790  26.984  31.673  15.365 -0.0250 -0.2216  0.0033
 3306DOPC   D2A38791  26.892  31.397  15.039  0.1473  0.1764 -0.2756
 3306DOPC   C3A38792  27.221  31.148  14.766 -0.2573 -0.0125 -0.0692
 3306DOPC   C4A38793  27.447  30.941  14.444  0.1370 -0.0478  0.0953
 3306DOPC   C1B38794  27.082  32.305  15.022 -0.0992 -0.1627 -0.0600
 3306DOPC   D2B38795  26.888  32.202  14.619 -0.0948  0.1494 -0.0558
 3306DOPC   C3B38796  27.065  31.911  14.361 -0.1153  0.3431  0.0936
 3306DOPC   C4B38797  27.152  31.450  14.354 -0.0862 -0.1496 -0.0277
 3307POSM   NC338798  25.670  33.195  15.844  0.2252  0.1598  0.1015
 3307POSM   PO438799  26.031  33.200  15.996 -0.3548 -0.0435  0.0796
 3307POSM   AM138800  26.064  33.219  15.651  0.1910  0.0189 -0.0953
 3307POSM   AM238801  26.252  33.323  15.514  0.1546  0.0475 -0.0348
 3307POSM   T1A38802  25.844  33.093  15.192 -0.1216  0.1817  0.2097
 3307POSM   C2A38803  25.621  33.269  14.829 -0.1433  0.0214  0.0188
 3307POSM   C3A38804  25.295  33.216  14.447 -0.3419  0.0354  0.3720
 3307POSM   C1B38805  26.388  33.404  15.256  0.1501 -0.0435  0.1724
 3307POSM   D2B38806  26.478  33.413  14.798  0.4055 -0.1215 -0.0701
 3307POSM   C3B38807  26.108  33.268  14.600 -0.1306  0.2442  0.0101
 3307POSM   C4B38808  25.754  33.203  14.313  0.1295 -0.0640 -0.0219
 3308DOPC   NC338809  32.779  24.775  16.216 -0.0528  0.0966 -0.1370
 3308DOPC   PO438810  32.595  25.110  16.252  0.1997  0.0838 -0.0075
 3308DOPC   GL138811  32.336  25.142  15.930 -0.1493 -0.5774  0.0901
 3308DOPC   GL238812  32.444  25.408  15.858  0.0079  0.0675 -0.2330
 3308DOPC   C1A38813  32.169  25.205  15.507 -0.2663 -0.2076  0.1382
 3308DOPC   D2A38814  32.108  25.220  15.027 -0.3886  0.2346  0.0971
 3308DOPC   C3A38815  32.030  25.542  14.729 -0.0476  0.0403  0.1597
 3308DOPC   C4A38816  31.761  25.714  14.358 -0.0837  0.1107 -0.0703
 3308DOPC   C1B38817  32.152  25.740  15.712 -0.3362 -0.0748 -0.0367
 3308DOPC   D2B38818  31.774  26.023  15.643 -0.0871 -0.1862  0.1344
 3308DOPC   C3B38819  31.941  26.222  15.232 -0.2086  0.1500  0.0872
 3308DOPC   C4B38820  31.832  26.336  14.768 -0.2595  0.2368  0.1370
 3309POSM   NC338821  23.644  31.317  16.780  0.0449  0.0685  0.0463
 3309POSM   PO438822  23.396  31.373  16.481 -0.0563  0.3185  0.0126
 3309POSM   AM138823  23.329  31.331  16.146 -0.2757  0.3026  0.0299
 3309POSM   AM238824  23.199  31.513  15.948 -0.2229  0.2848 -0.0093
 3309POSM   T1A38825  23.353  31.148  15.700  0.1493  0.0747  0.1665
 3309POSM   C2A38826  23.614  31.161  15.354  0.1257 -0.2224  0.0011
 3309POSM   C3A38827  23.812  31.060  14.937 -0.4691  0.0900  0.0180
 3309POSM   C1B38828  23.365  31.656  15.674  0.0374 -0.0219  0.0426
 3309POSM   D2B38829  23.472  31.769  15.263  0.0273  0.1145 -0.0279
 3309POSM   C3B38830  23.630  31.519  14.916  0.0947  0.0413 -0.0742
 3309POSM   C4B38831  24.036  31.533  14.669 -0.0074 -0.0351 -0.0044
 3310DOPC   NC338832  25.766  29.033  16.069 -0.1214  0.1956  0.1009
 3310DOPC   PO438833  26.092  28.875  16.254 -0.0670 -0.1559 -0.4897
 3310DOPC   GL138834  26.265  28.650  15.910  0.0491  0.1406  0.3134
 3310DOPC   GL238835  25.983  28.493  15.912 -0.1258  0.3126  0.0971
 3310DOPC   C1A38836  26.460  28.735  15.481  0.1922 -0.1110  0.5062
 3310DOPC   D2A38837  26.933  28.800  15.264 -0.5487 -0.1175 -0.0457
 3310DOPC   C3A38838  27.390  28.695  15.339 -0.0518 -0.2070 -0.1100
 3310DOPC   C4A38839  27.547  28.226  15.456  0.0095  0.0380  0.1368
 3310DOPC   C1B38840  26.011  28.455  15.449 -0.1986  0.3821  0.0041
 3310DOPC   D2B38841  26.125  28.411  15.041  0.0564  0.2789  0.1230
 3310DOPC   C3B38842  25.951  28.052  14.782  0.2049 -0.1221 -0.0852
 3310DOPC   C4B38843  25.733  28.028  14.378  0.0984  0.0105  0.1663
 3311POSM   NC338844  25.051  34.336  15.724 -0.0616 -0.1657  0.0632
 3311POSM   PO438845  24.728  34.487  15.783  0.0701 -0.0973 -0.0067
 3311POSM   AM138846  24.776  34.598  15.442  0.3251 -0.2181 -0.2975
 3311POSM   AM238847  25.031  34.622  15.346 -0.0833 -0.0189 -0.1083
 3311POSM   T1A38848  24.541  34.406  14.971 -0.0361  0.1406 -0.3000
 3311POSM   C2A38849  24.247  34.729  14.748 -0.1353  0.0316  0.4854
 3311POSM   C3A38850  24.288  35.076  14.581  0.2255  0.2192 -0.1569
 3311POSM   C1B38851  25.067  34.427  15.088  0.4141  0.0941 -0.0961
 3311POSM   D2B38852  25.008  34.227  14.686  0.1478 -0.4819 -0.1842
 3311POSM   C3B38853  24.783  34.278  14.338  0.1285  0.3583  0.0163
 3311POSM   C4B38854  24.676  33.917  13.999  0.1458  0.3394  0.1850
 3312DOPE   NH338855  26.686  30.233  16.523 -0.0759 -0.2434 -0.1411
 3312DOPE   PO438856  26.719  30.381  16.245 -0.1867 -0.3837  0.2140
 3312DOPE   GL138857  26.633  30.465  15.838 -0.0648  0.2362  0.1272
 3312DOPE   GL238858  26.512  30.184  15.865 -0.1021  0.0148  0.0846
 3312DOPE   C1A38859  27.018  30.489  15.539 -0.0402 -0.1124  0.1964
 3312DOPE   D2A38860  27.369  30.463  15.237  0.0571 -0.2073 -0.1679
 3312DOPE   C3A38861  27.595  30.784  14.936 -0.0180  0.0796  0.0133
 3312DOPE   C4A38862  27.915  30.971  14.748 -0.1279 -0.2216  0.1863
 3312DOPE   C1B38863  26.520  30.326  15.381 -0.2770 -0.0128  0.1038
 3312DOPE   D2B38864  26.520  30.688  15.046  0.0582  0.0682 -0.0103
 3312DOPE   C3B38865  26.621  30.675  14.586 -0.1614  0.2962  0.1932
 3312DOPE   C4B38866  26.966  30.838  14.330 -0.2631  0.2379 -0.1116
 3313DOPC   NC338867  34.213  25.697  15.770  0.1008  0.1907  0.3034
 3313DOPC   PO438868  33.852  25.627  15.948 -0.1026  0.1185  0.0989
 3313DOPC   GL138869  33.698  25.677  15.623 -0.2075 -0.3207 -0.3611
 3313DOPC   GL238870  33.841  25.447  15.462 -0.0359 -0.0313  0.0903
 3313DOPC   C1A38871  33.281  25.514  15.437 -0.2165  0.1505  0.0189
 3313DOPC   D2A38872  33.058  25.101  15.393  0.0938  0.1306 -0.0264
 3313DOPC   C3A38873  33.077  24.873  14.978  0.2782  0.1666 -0.1237
 3313DOPC   C4A38874  32.840  24.472  14.868  0.3537  0.1352  0.0844
 3313DOPC   C1B38875  33.601  25.318  15.126 -0.1905  0.3745  0.0577
 3313DOPC   D2B38876  33.199  25.451  14.947 -0.2147  0.0700 -0.1151
 3313DOPC   C3B38877  33.194  25.799  14.713  0.1242 -0.0314  0.1940
 3313DOPC   C4B38878  33.388  26.090  14.553 -0.1047  0.0837  0.0875
 3314DOPC   NC338879  29.355  23.236  16.160  0.4590  0.1020 -0.1071
 3314DOPC   PO438880  29.612  23.534  16.105 -0.1594  0.1269 -0.1891
 3314DOPC   GL138881  29.772  23.728  15.859  0.1927 -0.0814  0.0446
 3314DOPC   GL238882  30.037  23.651  15.709 -0.0059  0.1051  0.0554
 3314DOPC   C1A38883  29.579  24.115  15.647 -0.1706 -0.1569 -0.0169
 3314DOPC   D2A38884  29.719  24.501  15.448  0.1804 -0.0036  0.1797
 3314DOPC   C3A38885  29.372  24.640  15.311 -0.2888  0.0905 -0.2858
 3314DOPC   C4A38886  29.139  24.751  14.847  0.0360  0.1044 -0.1070
 3314DOPC   C1B38887  30.352  23.363  15.506  0.1707 -0.0090 -0.1244
 3314DOPC   D2B38888  30.567  23.259  15.146 -0.1793  0.1122 -0.0049
 3314DOPC   C3B38889  30.679  22.838  14.919 -0.2897  0.0250 -0.1325
 3314DOPC   C4B38890  30.788  22.434  14.744 -0.0377  0.0196  0.1100
 3315DOPC   NC338891  26.964  27.931  16.277 -0.1397  0.2160 -0.1556
 3315DOPC   PO438892  26.987  28.250  16.435  0.0900  0.0420 -0.0876
 3315DOPC   GL138893  27.061  28.566  16.187 -0.0104  0.1328 -0.0853
 3315DOPC   GL238894  27.135  28.376  15.960 -0.0614 -0.4615 -0.1490
 3315DOPC   C1A38895  27.191  28.891  15.902 -0.2328 -0.0776 -0.0394
 3315DOPC   D2A38896  27.533  29.184  15.692  0.3093  0.0258 -0.1682
 3315DOPC   C3A38897  27.565  29.162  15.199 -0.0460  0.1340  0.0276
 3315DOPC   C4A38898  27.720  29.358  14.860 -0.0493  0.0256 -0.0711
 3315DOPC   C1B38899  27.003  28.287  15.509  0.1717 -0.1090 -0.1849
 3315DOPC   D2B38900  26.801  27.906  15.174 -0.0112  0.0338  0.4598
 3315DOPC   C3B38901  27.011  27.670  14.864 -0.1765 -0.0997  0.1464
 3315DOPC   C4B38902  26.829  27.704  14.426 -0.1470 -0.2271 -0.1048
 3316DOPC   NC338903  33.473  31.678  16.596 -0.0915 -0.3446 -0.0526
 3316DOPC   PO438904  33.134  31.675  16.344  0.0917  0.3383  0.2442
 3316DOPC   GL138905  33.110  31.675  15.913 -0.0073  0.2215  0.1226
 3316DOPC   GL238906  33.254  31.392  15.774 -0.1730  0.1017  0.2266
 3316DOPC   C1A38907  32.867  31.998  15.667 -0.1493 -0.3342  0.1887
 3316DOPC   D2A38908  32.616  32.295  15.382 -0.0159 -0.1364 -0.0040
 3316DOPC   C3A38909  32.860  32.561  15.064 -0.0947  0.2474  0.0041
 3316DOPC   C4A38910  32.992  32.521  14.639 -0.0979  0.1442 -0.0264
 3316DOPC   C1B38911  33.100  31.287  15.329 -0.2348 -0.2130 -0.0455
 3316DOPC   D2B38912  33.046  31.184  14.889 -0.0976  0.0316 -0.1028
 3316DOPC   C3B38913  32.697  30.909  14.852 -0.1821  0.0148  0.1217
 3316DOPC   C4B38914  32.392  30.572  14.843  0.1492 -0.1856 -0.2398
 3317DOPS   CNO38915  29.015  27.526  16.335 -0.3064 -0.1974  0.3145
 3317DOPS   PO438916  29.080  27.893  16.469  0.0486  0.2168  0.0228
 3317DOPS   GL138917  29.306  28.165  16.222 -0.0491  0.2804  0.1335
 3317DOPS   GL238918  29.224  28.480  16.177 -0.1754 -0.0617  0.2825
 3317DOPS   C1A38919  29.445  28.229  15.823  0.1433 -0.1667  0.1083
 3317DOPS   D2A38920  29.699  28.386  15.509 -0.1229  0.0466 -0.1818
 3317DOPS   C3A38921  29.722  28.549  15.071  0.0609  0.1081 -0.2921
 3317DOPS   C4A38922  29.687  28.712  14.666  0.2992 -0.2524 -0.2186
 3317DOPS   C1B38923  29.406  28.718  15.848  0.2406  0.2223 -0.0512
 3317DOPS   D2B38924  29.506  28.863  15.406 -0.1592  0.0730 -0.0623
 3317DOPS   C3B38925  29.672  29.255  15.197 -0.2739  0.3568 -0.1042
 3317DOPS   C4B38926  29.590  29.690  15.028 -0.0024  0.0420 -0.2510
 3318DOPC   NC338927  29.256  27.070  16.345 -0.0200  0.2706 -0.1027
 3318DOPC   PO438928  29.642  27.084  16.327 -0.2596  0.0547  0.3588
 3318DOPC   GL138929  29.798  27.118  15.957  0.0271  0.1117 -0.2206
 3318DOPC   GL238930  29.687  27.216  15.761 -0.1467  0.1498 -0.1485
 3318DOPC   C1A38931  30.151  27.464  15.850 -0.1342 -0.0298  0.0329
 3318DOPC   D2A38932  30.351  27.757  15.545 -0.0818  0.1151  0.5130
 3318DOPC   C3A38933  30.481  27.538  15.158  0.2257  0.1366 -0.0378
 3318DOPC   C4A38934  30.539  27.562  14.692  0.0477 -0.2072 -0.1111
 3318DOPC   C1B38935  29.463  27.497  15.423 -0.4973  0.2523 -0.1712
 3318DOPC   D2B38936  29.320  27.868  15.376 -0.1275 -0.0700 -0.0434
 3318DOPC   C3B38937  29.055  28.005  14.965 -0.1706  0.1803 -0.0561
 3318DOPC   C4B38938  28.970  28.095  14.486 -0.2139  0.0210  0.2252
 3319DOPS   CNO38939  31.276  30.671  16.854 -0.1031  0.2046  0.1041
 3319DOPS   PO438940  31.289  31.039  16.894  0.0460  0.0447  0.0299
 3319DOPS   GL138941  31.164  30.981  16.537  0.0307 -0.0013  0.2703
 3319DOPS   GL238942  30.872  30.903  16.486  0.1166  0.3671  0.2415
 3319DOPS   C1A38943  31.336  30.893  16.131 -0.0723  0.0307 -0.3735
 3319DOPS   D2A38944  31.310  31.156  15.744  0.0802  0.2197  0.2930
 3319DOPS   C3A38945  31.214  31.131  15.279  0.1880  0.0073 -0.1718
 3319DOPS   C4A38946  31.047  31.200  14.880 -0.1563 -0.1223 -0.0109
 3319DOPS   C1B38947  30.875  30.909  15.983 -0.2411  0.1507  0.1963
 3319DOPS   D2B38948  30.514  31.020  15.727 -0.0102  0.1945 -0.1366
 3319DOPS   C3B38949  30.131  31.258  15.775 -0.2099 -0.3778  0.1789
 3319DOPS   C4B38950  29.855  31.510  15.457 -0.0134  0.2950 -0.0402
 3320POSM   NC338951   0.077  24.379  15.806 -0.1853 -0.1101 -0.1441
 3320POSM   PO438952   0.179  24.147  16.102 -0.1407  0.1401 -0.0159
 3320POSM   AM138953   0.307  23.856  15.942 -0.2353 -0.3383  0.2931
 3320POSM   AM238954   0.386  23.625  16.097 -0.1158 -0.1550  0.0590
 3320POSM   T1A38955   0.206  23.589  15.527  0.4088 -0.3081  0.3598
 3320POSM   C2A38956   0.383  23.607  15.087  0.3203  0.2381  0.0344
 3320POSM   C3A38957   0.784  23.469  14.917  0.2467 -0.2956 -0.0560
 3320POSM   C1B38958   0.325  23.324  15.927 -0.1967  0.1063  0.1394
 3320POSM   D2B38959   0.239  23.023  15.533  0.2750  0.1106  0.5311
 3320POSM   C3B38960  -0.045  23.262  15.240  0.2740  0.0372 -0.0487
 3320POSM   C4B38961  -0.258  23.675  15.178  0.0231  0.1262 -0.6342
 3321DOPS   CNO38962  28.042  27.651  15.995  0.0700 -0.0508 -0.0574
 3321DOPS   PO438963  27.670  27.596  15.840  0.0585 -0.0254  0.2932
 3321DOPS   GL138964  27.672  27.747  15.527  0.0958  0.0771  0.2587
 3321DOPS   GL238965  27.680  27.621  15.309  0.0954  0.1914 -0.2622
 3321DOPS   C1A38966  27.252  27.803  15.352  0.1839  0.2338  0.0765
 3321DOPS   D2A38967  27.287  28.047  14.990  0.0564 -0.0338  0.0692
 3321DOPS   C3A38968  27.381  28.471  14.760  0.2070 -0.0971  0.0566
 3321DOPS   C4A38969  27.246  28.946  14.898  0.2897 -0.0606 -0.3151
 3321DOPS   C1B38970  27.756  27.683  14.845 -0.0667 -0.1629  0.1560
 3321DOPS   D2B38971  27.783  27.997  14.468 -0.3817 -0.1482 -0.2884
 3321DOPS   C3B38972  27.353  28.096  14.338  0.0823 -0.1468  0.0186
 3321DOPS   C4B38973  27.005  28.197  14.135 -0.4570 -0.1195  0.1026
 3322DOPS   CNO38974  24.595  26.344  16.289  0.2206  0.0717 -0.1590
 3322DOPS   PO438975  24.247  26.457  16.093 -0.2367 -0.2043 -0.0406
 3322DOPS   GL138976  23.999  26.408  15.742 -0.3197  0.1799 -0.4887
 3322DOPS   GL238977  24.042  26.509  15.569  0.0689  0.1232 -0.0918
 3322DOPS   C1A38978  23.664  26.215  15.408  0.0990  0.1873  0.2161
 3322DOPS   D2A38979  23.679  26.142  14.952  0.1615  0.0020 -0.2738
 3322DOPS   C3A38980  23.948  26.076  14.637 -0.1755 -0.1591  0.2611
 3322DOPS   C4A38981  24.035  25.804  14.297 -0.0507  0.1863 -0.3603
 3322DOPS   C1B38982  24.091  26.530  15.112 -0.5480 -0.1856 -0.0118
 3322DOPS   D2B38983  23.955  26.598  14.663 -0.1098 -0.2018  0.1164
 3322DOPS   C3B38984  24.045  26.574  14.236 -0.0184 -0.1938 -0.2137
 3322DOPS   C4B38985  24.010  26.416  13.768 -0.1069 -0.0270  0.0056
 3323DOPE   NH338986  26.785  27.772  15.716  0.0633 -0.0011 -0.1193
 3323DOPE   PO438987  26.813  27.581  15.987  0.2314  0.0992 -0.2198
 3323DOPE   GL138988  26.833  27.178  15.694 -0.2046 -0.1763 -0.1501
 3323DOPE   GL238989  26.545  27.299  15.603 -0.0970 -0.1064 -0.1539
 3323DOPE   C1A38990  26.939  27.413  15.284  0.1881 -0.1124 -0.0405
 3323DOPE   D2A38991  26.943  27.196  14.897 -0.1742 -0.0241 -0.0064
 3323DOPE   C3A38992  27.045  27.252  14.515 -0.3229  0.0018 -0.2255
 3323DOPE   C4A38993  27.162  27.156  14.072 -0.2228  0.1915  0.0935
 3323DOPE   C1B38994  26.430  27.553  15.201  0.0722 -0.1334  0.2606
 3323DOPE   D2B38995  26.388  27.630  14.735 -0.2681 -0.2838  0.2601
 3323DOPE   C3B38996  26.031  27.424  14.422  0.0323  0.2749  0.0149
 3323DOPE   C4B38997  25.774  27.593  14.018  0.1310  0.2073 -0.0343
 3324DOPE   NH338998  32.058  24.263  16.554 -0.0269  0.0371 -0.0176
 3324DOPE   PO438999  32.334  24.383  16.426  0.0617  0.1568 -0.1110
 3324DOPE   GL139000  32.192  24.481  16.074  0.0787 -0.2223 -0.2194
 3324DOPE   GL239001  32.441  24.684  15.889  0.0822  0.2918 -0.0473
 3324DOPE   C1A39002  32.238  24.307  15.581 -0.1370 -0.1561 -0.0764
 3324DOPE   D2A39003  31.944  24.305  15.220  0.0980 -0.1026 -0.3595
 3324DOPE   C3A39004  31.630  24.123  14.954  0.1840  0.2361  0.0665
 3324DOPE   C4A39005  31.702  23.675  14.877 -0.5794 -0.0950  0.2070
 3324DOPE   C1B39006  32.555  24.917  15.515 -0.2928  0.1450  0.1096
 3324DOPE   D2B39007  32.587  24.878  15.102 -0.1025 -0.0751  0.0717
 3324DOPE   C3B39008  32.650  25.180  14.786  0.1221  0.0635 -0.2742
 3324DOPE   C4B39009  32.923  25.364  14.494  0.0061  0.2447 -0.1671
 3325DOPE   NH339010  30.197  33.101  16.560  0.0361  0.0189 -0.3567
 3325DOPE   PO439011  30.434  33.147  16.344  0.3549 -0.0742  0.0470
 3325DOPE   GL139012  30.692  33.132  15.967 -0.0834  0.1362  0.0711
 3325DOPE   GL239013  30.928  33.320  15.884  0.1279 -0.2828 -0.2002
 3325DOPE   C1A39014  30.845  33.026  15.498  0.1590  0.3468  0.0370
 3325DOPE   D2A39015  30.977  33.210  15.128 -0.1144  0.1642  0.1686
 3325DOPE   C3A39016  30.874  33.245  14.708 -0.0399  0.0341  0.3703
 3325DOPE   C4A39017  30.510  33.145  14.412 -0.2786  0.3233 -0.1438
 3325DOPE   C1B39018  30.664  33.479  15.510  0.1388 -0.0769  0.2336
 3325DOPE   D2B39019  30.479  33.352  15.087 -0.1006  0.0140  0.1431
 3325DOPE   C3B39020  30.500  32.956  14.891 -0.0313 -0.0186  0.1657
 3325DOPE   C4B39021  30.235  32.760  14.580  0.3826 -0.0473  0.3987
 3326DOPC   NC339022  28.231  30.688  16.535  0.1331 -0.0942  0.0979
 3326DOPC   PO439023  27.921  30.713  16.311 -0.0212 -0.3211 -0.1166
 3326DOPC   GL139024  27.862  30.473  16.018 -0.6672 -0.5874  0.4260
 3326DOPC   GL239025  27.997  30.624  15.749  0.0612 -0.0254 -0.0944
 3326DOPC   C1A39026  27.715  30.035  15.978 -0.3868 -0.2503 -0.1872
 3326DOPC   D2A39027  27.601  29.683  15.764 -0.1034  0.0187 -0.3710
 3326DOPC   C3A39028  27.845  29.474  15.445 -0.3394  0.1977  0.2437
 3326DOPC   C4A39029  28.094  29.176  15.167  0.0104  0.0097  0.2272
 3326DOPC   C1B39030  27.833  30.448  15.316  0.3494 -0.1393  0.1034
 3326DOPC   D2B39031  28.135  30.410  14.973 -0.1742  0.1231  0.2381
 3326DOPC   C3B39032  28.332  30.230  14.668  0.1844  0.2626  0.2778
 3326DOPC   C4B39033  28.671  29.890  14.715 -0.0767 -0.0429  0.0638
 3327DOPC   NC339034  34.026  27.176  15.348  0.0014  0.0575  0.3591
 3327DOPC   PO439035  33.824  27.418  15.578 -0.0834  0.1052  0.0492
 3327DOPC   GL139036  34.156  27.635  15.460 -0.0053 -0.0675  0.2952
 3327DOPC   GL239037  33.969  27.783  15.270  0.0265  0.0566  0.1030
 3327DOPC   C1A39038  34.410  27.554  15.086 -0.3072 -0.1903 -0.2398
 3327DOPC   D2A39039  34.505  27.769  14.717  0.0002  0.1777  0.1421
 3327DOPC   C3A39040  34.156  27.712  14.469 -0.1155  0.0654  0.0288
 3327DOPC   C4A39041  33.901  27.839  14.095  0.3951 -0.0397 -0.0450
 3327DOPC   C1B39042  33.782  27.556  14.923  0.2082  0.1388 -0.0582
 3327DOPC   D2B39043  33.976  27.170  14.742 -0.1396  0.0697  0.0618
 3327DOPC   C3B39044  34.366  27.069  14.988 -0.2766  0.1474 -0.1267
 3327DOPC   C4B39045  34.796  26.943  15.042 -0.1073 -0.0825 -0.1549
 3328POSM   NC339046  26.862  28.702  16.627 -0.0395 -0.0617 -0.0888
 3328POSM   PO439047  26.444  28.639  16.586 -0.0262 -0.1358  0.1333
 3328POSM   AM139048  26.595  28.534  16.307  0.4357 -0.2119 -0.0926
 3328POSM   AM239049  26.583  28.332  16.133  0.2946  0.0332  0.0839
 3328POSM   T1A39050  26.783  28.661  15.826  0.2167  0.3034 -0.1065
 3328POSM   C2A39051  26.858  29.106  15.645 -0.1764  0.0118  0.0597
 3328POSM   C3A39052  27.138  29.347  15.424 -0.2297 -0.2122 -0.0364
 3328POSM   C1B39053  26.473  28.249  15.779  0.4585  0.1036 -0.0719
 3328POSM   D2B39054  26.535  28.256  15.336 -0.2105 -0.0092  0.1457
 3328POSM   C3B39055  26.807  28.376  14.990 -0.0815  0.0278 -0.0441
 3328POSM   C4B39056  26.967  28.119  14.620 -0.0026 -0.1226 -0.0809
 3329POSM   NC339057  25.030  33.692  16.192 -0.1409 -0.0135 -0.1770
 3329POSM   PO439058  25.301  33.869  15.972 -0.3712  0.1286  0.1845
 3329POSM   AM139059  25.239  33.698  15.679 -0.1158 -0.1668  0.0856
 3329POSM   AM239060  24.966  33.684  15.570 -0.3706  0.3646 -0.0239
 3329POSM   T1A39061  25.459  33.367  15.400 -0.0884  0.3389 -0.0328
 3329POSM   C2A39062  25.365  32.985  15.179  0.1953 -0.0831  0.0117
 3329POSM   C3A39063  25.029  32.650  15.238  0.0317 -0.1032  0.2654
 3329POSM   C1B39064  24.990  33.537  15.269 -0.3449 -0.1267 -0.0706
 3329POSM   D2B39065  25.120  33.450  14.833  0.0480 -0.4513 -0.0532
 3329POSM   C3B39066  25.175  33.767  14.485  0.0158  0.0590  0.1929
 3329POSM   C4B39067  25.181  34.063  14.112  0.0482 -0.0968  0.1940
 3330DOPE   NH339068  25.911  25.963  16.078 -0.0893  0.2421 -0.2414
 3330DOPE   PO439069  25.967  26.228  15.998  0.1654  0.0139  0.1156
 3330DOPE   GL139070  25.890  26.245  15.648 -0.0022  0.7038 -0.0726
 3330DOPE   GL239071  25.729  26.007  15.513 -0.0791 -0.1441  0.1741
 3330DOPE   C1A39072  25.978  26.538  15.322  0.1281 -0.1413 -0.1461
 3330DOPE   D2A39073  25.825  26.922  15.036 -0.2155 -0.1345  0.0469
 3330DOPE   C3A39074  25.984  26.927  14.587  0.2870  0.2471 -0.0185
 3330DOPE   C4A39075  26.303  26.653  14.466  0.2506  0.1333  0.0037
 3330DOPE   C1B39076  25.794  26.145  15.061  0.2538 -0.0848 -0.0532
 3330DOPE   D2B39077  25.998  26.342  14.702 -0.1332  0.0059  0.0142
 3330DOPE   C3B39078  25.851  26.483  14.321  0.0016  0.0723  0.3102
 3330DOPE   C4B39079  25.780  26.433  13.857  0.1295 -0.1483 -0.2973
 3331DOPE   NH339080  24.646  27.589  16.521 -0.1509 -0.1895 -0.3270
 3331DOPE   PO439081  24.895  27.664  16.341  0.1733  0.1842 -0.2479
 3331DOPE   GL139082  24.931  27.852  16.021  0.2663  0.3091  0.1883
 3331DOPE   GL239083  24.682  27.869  15.924  0.1663  0.1286  0.1380
 3331DOPE   C1A39084  25.297  27.937  15.742 -0.2812  0.0213 -0.1242
 3331DOPE   D2A39085  25.688  27.947  15.893  0.0776  0.2268  0.0550
 3331DOPE   C3A39086  26.026  27.979  15.606 -0.2433 -0.2017  0.2548
 3331DOPE   C4A39087  26.175  27.959  15.194 -0.3758  0.1501 -0.0074
 3331DOPE   C1B39088  24.801  27.739  15.484  0.0266  0.1248  0.3185
 3331DOPE   D2B39089  25.146  27.755  15.197  0.0786 -0.0315  0.0244
 3331DOPE   C3B39090  25.027  27.471  14.866 -0.0565  0.0405  0.2723
 3331DOPE   C4B39091  25.091  27.239  14.471 -0.2412  0.4115  0.0684
 3332DOPE   NH339092  28.513  34.626  16.149  0.0045 -0.1438  0.1675
 3332DOPE   PO439093  28.512  34.954  16.181  0.0144 -0.2074  0.0399
 3332DOPE   GL139094  28.615  35.241  15.815 -0.0080  0.0525 -0.1243
 3332DOPE   GL239095  28.492  35.475  15.896  0.0103  0.0991 -0.1967
 3332DOPE   C1A39096  28.457  35.328  15.388  0.1234  0.1243  0.0366
 3332DOPE   D2A39097  28.426  35.466  14.943  0.3178  0.2089 -0.1535
 3332DOPE   C3A39098  28.496  35.920  14.893 -0.1497  0.0646 -0.1439
 3332DOPE   C4A39099  28.541  36.364  14.729  0.0779  0.2433 -0.1248
 3332DOPE   C1B39100  28.088  35.407  15.725 -0.0097  0.0939 -0.0983
 3332DOPE   D2B39101  28.007  35.318  15.253  0.0000 -0.0875  0.1232
 3332DOPE   C3B39102  27.982  35.623  14.921 -0.0907 -0.2579 -0.1014
 3332DOPE   C4B39103  27.672  35.900  14.712  0.2739  0.1558 -0.0886
 3333DOPC   NC339104  23.416  24.171  15.277 -0.0723 -0.3408  0.3009
 3333DOPC   PO439105  23.588  24.248  15.621 -0.0255  0.1048  0.4093
 3333DOPC   GL139106  23.687  24.530  15.342  0.2223 -0.1178  0.2538
 3333DOPC   GL239107  23.865  24.423  15.162  0.1336 -0.0553  0.2921
 3333DOPC   C1A39108  23.538  24.610  14.880  0.2187  0.2051 -0.1898
 3333DOPC   D2A39109  23.601  24.516  14.431  0.0397  0.1643 -0.1392
 3333DOPC   C3A39110  23.467  24.737  14.029 -0.2823  0.0382  0.0142
 3333DOPC   C4A39111  23.238  25.081  13.798  0.0581  0.1749 -0.0353
 3333DOPC   C1B39112  23.808  24.057  14.783  0.1901  0.2377 -0.3069
 3333DOPC   D2B39113  23.723  24.078  14.280 -0.0101  0.0479  0.1441
 3333DOPC   C3B39114  23.514  24.246  13.906  0.2256  0.0944 -0.0963
 3333DOPC   C4B39115  23.716  24.522  13.607 -0.0671 -0.0646 -0.1772
 3334DOPC   NC339116  24.122  28.718  16.111  0.1006  0.0083 -0.2471
 3334DOPC   PO439117  23.823  28.983  16.163 -0.1016 -0.0449 -0.1686
 3334DOPC   GL139118  24.070  29.077  15.862  0.1480 -0.5668  0.0426
 3334DOPC   GL239119  24.251  29.218  15.996 -0.3495 -0.1693 -0.0823
 3334DOPC   C1A39120  24.070  29.037  15.442 -0.2367 -0.0379  0.0713
 3334DOPC   D2A39121  24.007  29.007  14.988 -0.0631 -0.0549 -0.1101
 3334DOPC   C3A39122  23.770  29.263  14.706  0.0883  0.0412  0.1249
 3334DOPC   C4A39123  24.007  29.202  14.313  0.2064 -0.1882  0.0589
 3334DOPC   C1B39124  24.187  29.528  15.606 -0.0790 -0.3673 -0.1732
 3334DOPC   D2B39125  24.403  29.574  15.201 -0.1169  0.0480  0.0837
 3334DOPC   C3B39126  24.402  29.840  14.867  0.0227  0.1593 -0.1474
 3334DOPC   C4B39127  24.383  30.112  14.430 -0.2761  0.1202  0.0667
 3335POSM   NC339128  28.993  24.838  15.909  0.1138  0.0866  0.1948
 3335POSM   PO439129  28.721  25.043  16.105 -0.0739 -0.1279  0.2142
 3335POSM   AM139130  28.573  25.122  15.833  0.0879  0.2436 -0.0700
 3335POSM   AM239131  28.438  25.371  15.794  0.0019 -0.3666 -0.1068
 3335POSM   T1A39132  28.190  24.965  15.479  0.1275 -0.2147  0.3921
 3335POSM   C2A39133  28.120  25.046  14.998  0.1473  0.0386  0.1568
 3335POSM   C3A39134  27.753  25.124  14.699 -0.2998  0.1774  0.1784
 3335POSM   C1B39135  28.427  25.432  15.449  0.2274  0.0180  0.0294
 3335POSM   D2B39136  28.400  25.479  15.030 -0.1931  0.1749  0.0957
 3335POSM   C3B39137  28.358  25.268  14.580  0.0741  0.0322  0.0591
 3335POSM   C4B39138  28.370  25.353  14.117 -0.1381  0.1411 -0.0112
 3336DOPC   NC339139  25.546  34.613  16.224  0.0958 -0.0670  0.3565
 3336DOPC   PO439140  25.599  34.270  16.069 -0.0309 -0.2531  0.2273
 3336DOPC   GL139141  25.619  34.365  15.657 -0.0813  0.1603  0.3865
 3336DOPC   GL239142  25.508  34.111  15.609 -0.3961  0.2081  0.0011
 3336DOPC   C1A39143  25.634  34.615  15.275 -0.0720  0.1926 -0.0041
 3336DOPC   D2A39144  25.325  34.850  14.975  0.0006 -0.2072  0.1668
 3336DOPC   C3A39145  25.582  35.167  14.679  0.0962 -0.1662  0.0960
 3336DOPC   C4A39146  25.710  35.610  14.672  0.1048  0.2522  0.0308
 3336DOPC   C1B39147  25.763  34.169  15.251 -0.0295  0.0349  0.1762
 3336DOPC   D2B39148  25.926  34.215  14.792 -0.0318  0.0113 -0.0462
 3336DOPC   C3B39149  26.221  33.873  14.650 -0.1861 -0.0701  0.1304
 3336DOPC   C4B39150  26.452  33.736  14.230  0.1510 -0.1081 -0.2298
 3337DOPE   NH339151  31.535  25.303  16.700  0.0986  0.1222  0.0396
 3337DOPE   PO439152  31.593  25.401  16.394  0.1169  0.1729 -0.0190
 3337DOPE   GL139153  31.715  25.133  16.127  0.2380  0.1036  0.3461
 3337DOPE   GL239154  31.901  25.243  15.979  0.0439 -0.3091 -0.2373
 3337DOPE   C1A39155  31.523  25.030  15.711  0.2952  0.1181  0.3640
 3337DOPE   D2A39156  31.714  25.087  15.315  0.0045 -0.2139  0.1293
 3337DOPE   C3A39157  31.742  24.813  14.960  0.1356 -0.1926 -0.0705
 3337DOPE   C4A39158  31.839  24.809  14.544  0.3596 -0.1116  0.0656
 3337DOPE   C1B39159  31.681  25.491  15.633  0.0181 -0.0392 -0.0336
 3337DOPE   D2B39160  31.759  25.649  15.132  0.0237  0.0101  0.1247
 3337DOPE   C3B39161  31.511  25.758  14.765  0.4276  0.1696  0.2532
 3337DOPE   C4B39162  31.095  25.921  14.591 -0.2389  0.2053  0.2009
 3338DOPC   NC339163  25.883  30.464  16.531 -0.2073  0.1439 -0.1843
 3338DOPC   PO439164  26.162  30.199  16.473 -0.1078 -0.2212 -0.1616
 3338DOPC   GL139165  26.101  30.179  16.091  0.2047  0.1037 -0.0040
 3338DOPC   GL239166  25.964  30.422  16.046 -0.1902  0.0734 -0.3196
 3338DOPC   C1A39167  26.030  30.030  15.672  0.0170  0.0159  0.0646
 3338DOPC   D2A39168  25.708  30.075  15.345 -0.2882  0.2978  0.0381
 3338DOPC   C3A39169  25.785  30.210  14.920  0.3239 -0.0771 -0.0338
 3338DOPC   C4A39170  25.686  30.496  14.636  0.1584  0.1118  0.0219
 3338DOPC   C1B39171  26.172  30.561  15.703 -0.1863  0.2215  0.2558
 3338DOPC   D2B39172  26.428  30.903  15.583  0.2178  0.2767 -0.0889
 3338DOPC   C3B39173  26.840  30.961  15.400  0.0780 -0.0257 -0.1198
 3338DOPC   C4B39174  27.242  30.907  15.349  0.0249 -0.4094  0.0773
 3339DOPE   NH339175  23.673  31.751  16.215 -0.3071  0.0284  0.0834
 3339DOPE   PO439176  23.665  32.074  16.145  0.1300 -0.0297  0.0802
 3339DOPE   GL139177  23.609  32.195  15.764 -0.0458  0.0282  0.0315
 3339DOPE   GL239178  23.788  32.474  15.688  0.3237 -0.0902  0.2085
 3339DOPE   C1A39179  23.698  32.200  15.298  0.2793 -0.0445 -0.3273
 3339DOPE   D2A39180  23.871  31.955  14.930  0.0552 -0.1792  0.1207
 3339DOPE   C3A39181  24.291  31.954  14.815  0.0608  0.1113 -0.0130
 3339DOPE   C4A39182  24.692  32.075  14.673 -0.2204  0.0767  0.3560
 3339DOPE   C1B39183  23.940  32.735  15.261 -0.1531  0.0472 -0.1034
 3339DOPE   D2B39184  23.816  33.035  14.899 -0.1772 -0.1201 -0.0932
 3339DOPE   C3B39185  24.122  33.269  14.586 -0.1240  0.4880 -0.1327
 3339DOPE   C4B39186  24.426  33.564  14.333 -0.0053  0.1175 -0.1435
 3340DOPE   NH339187  33.451  24.344  16.040 -0.2652  0.0492 -0.1829
 3340DOPE   PO439188  33.195  24.328  16.219  0.0077 -0.0510  0.0432
 3340DOPE   GL139189  33.136  24.404  15.726 -0.1274 -0.4372 -0.1577
 3340DOPE   GL239190  32.972  24.652  15.725 -0.1732  0.0086  0.1873
 3340DOPE   C1A39191  33.263  23.987  15.546 -0.2230  0.0276  0.0597
 3340DOPE   D2A39192  33.340  23.822  15.150 -0.2677 -0.3281 -0.0051
 3340DOPE   C3A39193  33.156  24.086  14.872 -0.0946 -0.1732  0.2151
 3340DOPE   C4A39194  32.991  24.251  14.429 -0.4647  0.0420 -0.1139
 3340DOPE   C1B39195  32.740  24.470  15.369  0.0729  0.0793 -0.3712
 3340DOPE   D2B39196  32.377  24.363  15.049 -0.0906  0.0871 -0.3876
 3340DOPE   C3B39197  32.499  24.254  14.587  0.0387  0.2751 -0.0560
 3340DOPE   C4B39198  32.583  24.308  14.115 -0.1562  0.1711 -0.0247
 3341DOPC   NC339199  26.513  25.645  15.469 -0.0536  0.2814  0.1850
 3341DOPC   PO439200  26.257  25.934  15.529  0.2369  0.2311 -0.2014
 3341DOPC   GL139201  26.164  26.079  15.257  0.0203 -0.2508 -0.2050
 3341DOPC   GL239202  26.348  26.272  15.125  0.2010 -0.2566  0.1313
 3341DOPC   C1A39203  26.096  25.791  14.874  0.0620  0.3837 -0.1720
 3341DOPC   D2A39204  26.308  25.940  14.472 -0.3210  0.0733  0.0819
 3341DOPC   C3A39205  26.502  25.732  14.196  0.0755  0.0582 -0.2450
 3341DOPC   C4A39206  26.914  25.529  14.071  0.1315  0.1903  0.2145
 3341DOPC   C1B39207  26.309  26.682  14.941  0.1207 -0.3719  0.1534
 3341DOPC   D2B39208  26.480  27.095  14.715 -0.0317  0.0141 -0.0724
 3341DOPC   C3B39209  26.553  27.221  14.286 -0.0746  0.3394  0.0431
 3341DOPC   C4B39210  26.733  27.434  13.925 -0.2340 -0.0817  0.2131
 3342DOPC   NC339211  27.965  27.152  15.850  0.1987 -0.2480 -0.0044
 3342DOPC   PO439212  27.559  27.100  15.848 -0.0295  0.1378  0.3344
 3342DOPC   GL139213  27.579  27.160  15.428  0.0142 -0.1765  0.4172
 3342DOPC   GL239214  27.378  27.178  15.229 -0.0946  0.1400  0.5119
 3342DOPC   C1A39215  27.862  27.207  15.108  0.0190 -0.0143  0.2142
 3342DOPC   D2A39216  27.998  27.248  14.687  0.0303 -0.0599 -0.0254
 3342DOPC   C3A39217  28.343  27.470  14.541  0.2792 -0.0083  0.3512
 3342DOPC   C4A39218  28.720  27.701  14.706  0.0501 -0.0138 -0.1341
 3342DOPC   C1B39219  27.410  27.361  14.861  0.2089  0.0821 -0.0592
 3342DOPC   D2B39220  27.424  27.621  14.491  0.1711  0.2015 -0.2349
 3342DOPC   C3B39221  27.281  27.680  14.013  0.0576  0.1967  0.0040
 3342DOPC   C4B39222  27.243  27.571  13.578  0.0581  0.2407 -0.1695
 3343DOPC   NC339223  34.031  31.738  15.954  0.1385  0.0023 -0.0374
 3343DOPC   PO439224  34.372  31.918  16.073  0.1142 -0.0688  0.3353
 3343DOPC   GL139225  34.410  31.839  15.714 -0.1269  0.1360 -0.0438
 3343DOPC   GL239226  34.600  31.655  15.575  0.0375  0.1440  0.1424
 3343DOPC   C1A39227  34.094  31.935  15.370  0.3546 -0.3594  0.4093
 3343DOPC   D2A39228  33.700  31.817  15.182  0.2234 -0.0689  0.0378
 3343DOPC   C3A39229  33.653  31.960  14.763  0.2120  0.0331 -0.0559
 3343DOPC   C4A39230  33.480  31.881  14.362  0.0618 -0.1046 -0.1646
 3343DOPC   C1B39231  34.460  31.661  15.135 -0.0597 -0.0089  0.3397
 3343DOPC   D2B39232  34.244  31.953  14.902 -0.1132 -0.1762 -0.0752
 3343DOPC   C3B39233  34.109  32.372  14.691 -0.2001 -0.3233  0.1554
 3343DOPC   C4B39234  34.003  32.705  14.453  0.2191  0.2924 -0.0524
 3344DOPC   NC339235  23.151  24.890  15.773 -0.0624  0.0282 -0.1182
 3344DOPC   PO439236  23.341  24.651  15.591 -0.3164  0.2765 -0.0933
 3344DOPC   GL139237  23.108  24.638  15.192  0.4144  0.2779  0.1282
 3344DOPC   GL239238  22.929  24.416  15.120  0.2809 -0.1146 -0.0126
 3344DOPC   C1A39239  23.041  24.787  14.775 -0.0245 -0.1547  0.1101
 3344DOPC   D2A39240  23.145  24.925  14.396  0.0223  0.2591 -0.4727
 3344DOPC   C3A39241  22.950  24.761  14.060  0.0092  0.1338  0.2411
 3344DOPC   C4A39242  22.726  24.959  13.685  0.3683  0.0310 -0.1437
 3344DOPC   C1B39243  22.635  24.425  14.760  0.1406  0.1096  0.4270
 3344DOPC   D2B39244  22.512  24.678  14.318  0.1203  0.0450 -0.0452
 3344DOPC   C3B39245  22.347  25.058  14.066  0.0313  0.2339 -0.1350
 3344DOPC   C4B39246  22.170  25.187  13.658  0.2086 -0.0132  0.1250
 3345DOPC   NC339247  28.775  26.526  16.046  0.2315  0.3107  0.0108
 3345DOPC   PO439248  29.122  26.612  16.199 -0.1459 -0.4561 -0.1193
 3345DOPC   GL139249  29.399  26.817  15.838 -0.0203 -0.2815  0.2576
 3345DOPC   GL239250  29.122  26.715  15.699  0.1052 -0.0208 -0.0999
 3345DOPC   C1A39251  29.676  26.767  15.504 -0.0244  0.1925  0.1900
 3345DOPC   D2A39252  30.063  26.688  15.314 -0.1193 -0.1977 -0.1451
 3345DOPC   C3A39253  30.076  27.032  14.957 -0.4039  0.0108 -0.1370
 3345DOPC   C4A39254  29.955  27.364  14.636 -0.2421  0.2572 -0.0527
 3345DOPC   C1B39255  29.359  26.408  15.592 -0.2890  0.0697 -0.0342
 3345DOPC   D2B39256  29.627  26.274  15.244  0.4719 -0.0465 -0.0580
 3345DOPC   C3B39257  29.630  26.657  14.952 -0.1837 -0.0573 -0.3925
 3345DOPC   C4B39258  29.506  27.085  15.001  0.2779 -0.2129  0.1114
 3346DOPE   NH339259  33.676  29.672  16.047 -0.0951 -0.0764  0.1916
 3346DOPE   PO439260  33.423  29.768  16.232 -0.0302  0.0678 -0.1756
 3346DOPE   GL139261  33.342  30.131  16.070 -0.2353 -0.1128  0.0071
 3346DOPE   GL239262  33.330  30.035  15.797  0.0443  0.4108 -0.0421
 3346DOPE   C1A39263  33.028  30.411  15.882 -0.2324 -0.3897  0.2149
 3346DOPE   D2A39264  32.914  30.673  15.500  0.1055 -0.1167  0.1124
 3346DOPE   C3A39265  33.129  30.752  15.150  0.0194  0.1114  0.0191
 3346DOPE   C4A39266  33.551  30.566  15.161 -0.0106  0.0674 -0.0646
 3346DOPE   C1B39267  33.193  30.300  15.419 -0.1523 -0.1608 -0.1183
 3346DOPE   D2B39268  32.877  30.334  15.102  0.0210  0.0433  0.0754
 3346DOPE   C3B39269  32.517  30.054  15.158  0.1627 -0.1640  0.1284
 3346DOPE   C4B39270  32.048  29.972  15.386 -0.0555 -0.0331 -0.0734
 3347DOPE   NH339271  32.117  29.429  16.608 -0.1819 -0.0393 -0.0381
 3347DOPE   PO439272  32.432  29.284  16.586 -0.1812 -0.4637 -0.2210
 3347DOPE   GL139273  32.282  29.247  16.213 -0.2328  0.0307  0.0496
 3347DOPE   GL239274  32.213  29.558  16.118  0.1299 -0.2500 -0.1888
 3347DOPE   C1A39275  32.472  29.319  15.806  0.2520  0.0837 -0.3477
 3347DOPE   D2A39276  32.426  29.735  15.536  0.1220 -0.0915  0.0363
 3347DOPE   C3A39277  32.583  29.525  15.139  0.2308 -0.0714 -0.1154
 3347DOPE   C4A39278  32.358  29.163  14.881 -0.0598  0.1092 -0.1378
 3347DOPE   C1B39279  31.993  29.529  15.740 -0.3768 -0.0731  0.1590
 3347DOPE   D2B39280  32.048  29.358  15.346  0.1121 -0.1905 -0.3876
 3347DOPE   C3B39281  31.806  29.188  15.053  0.3104  0.0617  0.0300
 3347DOPE   C4B39282  31.919  29.162  14.580 -0.0019 -0.0703 -0.1163
 3348POSM   NC339283  28.007  32.105  16.545  0.0055  0.0029 -0.0996
 3348POSM   PO439284  28.318  32.095  16.300 -0.0158 -0.0118  0.1385
 3348POSM   AM139285  28.570  32.006  16.115 -0.1542 -0.0585 -0.1094
 3348POSM   AM239286  28.673  32.018  15.857 -0.4598  0.1492  0.2142
 3348POSM   T1A39287  28.927  31.695  16.090 -0.1288  0.2263  0.3745
 3348POSM   C2A39288  29.201  31.310  16.090 -0.1128  0.1039  0.3106
 3348POSM   C3A39289  29.304  31.003  16.351 -0.0762 -0.0506  0.1742
 3348POSM   C1B39290  28.797  32.022  15.545 -0.3061  0.1669 -0.1609
 3348POSM   D2B39291  29.043  32.074  15.141  0.0719 -0.1436 -0.3307
 3348POSM   C3B39292  29.154  31.761  14.826 -0.0175 -0.2661 -0.0086
 3348POSM   C4B39293  29.458  31.485  14.714  0.2007 -0.1683  0.1669
 3349DOPC   NC339294  31.514  23.985  16.276 -0.2899 -0.1178 -0.2206
 3349DOPC   PO439295  31.904  24.074  16.131  0.0192 -0.0201 -0.0032
 3349DOPC   GL139296  31.710  23.916  15.842 -0.1849 -0.0525  0.0395
 3349DOPC   GL239297  31.672  23.643  15.918 -0.0926 -0.1086 -0.0377
 3349DOPC   C1A39298  31.251  23.856  15.813 -0.1301 -0.0072 -0.1963
 3349DOPC   D2A39299  30.906  23.630  15.558  0.2503  0.0327 -0.3261
 3349DOPC   C3A39300  30.983  23.651  15.107  0.7102  0.2571  0.1548
 3349DOPC   C4A39301  30.923  23.541  14.642  0.1964  0.5164  0.0319
 3349DOPC   C1B39302  31.323  23.381  15.776 -0.0062 -0.0856 -0.1554
 3349DOPC   D2B39303  31.028  23.180  15.426  0.2521  0.2399 -0.2725
 3349DOPC   C3B39304  31.334  22.877  15.286  0.3365 -0.1922 -0.2676
 3349DOPC   C4B39305  31.178  22.610  14.938 -0.3311  0.1992  0.2448
 3350POSM   NC339306  27.377  25.433  15.559 -0.2759 -0.1312 -0.1215
 3350POSM   PO439307  26.991  25.512  15.585  0.0383  0.0734  0.2923
 3350POSM   AM139308  27.042  25.464  15.281  0.0853  0.2730  0.3284
 3350POSM   AM239309  26.936  25.420  15.025  0.0616 -0.2789  0.1988
 3350POSM   T1A39310  27.383  25.574  14.894  0.2287  0.3242 -0.0836
 3350POSM   C2A39311  27.297  25.491  14.430 -0.4223 -0.3825  0.1435
 3350POSM   C3A39312  27.418  25.411  13.986 -0.1498  0.0817 -0.0578
 3350POSM   C1B39313  26.844  25.116  15.003  0.1342 -0.1905  0.0701
 3350POSM   D2B39314  26.879  24.629  15.016  0.1230 -0.1884  0.5055
 3350POSM   C3B39315  27.025  24.520  14.582 -0.1635  0.0193 -0.1580
 3350POSM   C4B39316  27.319  24.482  14.213  0.0938 -0.0135 -0.0341
 3351POSM   NC339317  24.443  33.712  16.094 -0.2138  0.2493 -0.0336
 3351POSM   PO439318  24.689  33.944  15.905 -0.1256  0.1069  0.1745
 3351POSM   AM139319  24.635  33.965  15.594  0.1926 -0.2578  0.0785
 3351POSM   AM239320  24.736  34.145  15.385 -0.2511  0.0033 -0.1148
 3351POSM   T1A39321  24.253  34.035  15.256  0.1299  0.2848  0.1830
 3351POSM   C2A39322  24.063  34.298  14.847  0.0080 -0.0843 -0.0422
 3351POSM   C3A39323  23.920  34.520  14.418 -0.2392 -0.0833  0.1681
 3351POSM   C1B39324  24.774  33.946  15.087  0.0194  0.3322  0.4303
 3351POSM   D2B39325  24.606  33.858  14.667 -0.3542  0.1156  0.0999
 3351POSM   C3B39326  24.351  34.099  14.329  0.1711  0.4223 -0.1813
 3351POSM   C4B39327  24.227  34.376  14.036 -0.2062  0.2451 -0.0935
 3352DOPS   CNO39328  28.453  29.541  16.303 -0.0459  0.1095  0.2528
 3352DOPS   PO439329  28.447  29.861  16.514 -0.0937 -0.0619  0.1892
 3352DOPS   GL139330  28.621  29.996  16.243  0.1406 -0.3523 -0.0364
 3352DOPS   GL239331  28.720  29.829  15.986 -0.0147  0.0140 -0.1220
 3352DOPS   C1A39332  28.930  30.239  15.959  0.1126 -0.2060  0.0648
 3352DOPS   D2A39333  28.808  30.463  15.593 -0.0489 -0.1482  0.0045
 3352DOPS   C3A39334  29.058  30.506  15.192 -0.4148 -0.0486  0.1153
 3352DOPS   C4A39335  29.106  30.739  14.813  0.1874 -0.4591  0.5327
 3352DOPS   C1B39336  28.502  30.042  15.662  0.1750 -0.0966 -0.3706
 3352DOPS   D2B39337  28.334  30.421  15.446  0.0343 -0.1983  0.0597
 3352DOPS   C3B39338  28.560  30.652  15.141  0.1079  0.0256  0.3149
 3352DOPS   C4B39339  28.646  30.849  14.754 -0.3817 -0.0790 -0.1412
 3353DOPC   NC339340  26.416  31.132  16.579  0.1643 -0.2313 -0.0450
 3353DOPC   PO439341  26.558  31.441  16.360  0.2044  0.0098  0.0777
 3353DOPC   GL139342  26.661  31.759  16.171  0.3540 -0.0235  0.0719
 3353DOPC   GL239343  26.770  31.776  15.930 -0.0165 -0.0087  0.0152
 3353DOPC   C1A39344  26.554  32.172  15.966 -0.5090 -0.0946 -0.0648
 3353DOPC   D2A39345  26.629  32.479  15.623  0.1111  0.1016 -0.0086
 3353DOPC   C3A39346  26.479  32.890  15.391 -0.0868 -0.2081  0.2603
 3353DOPC   C4A39347  26.348  32.961  14.932  0.0750  0.2328  0.0370
 3353DOPC   C1B39348  26.644  31.915  15.548  0.1146  0.3158  0.0299
 3353DOPC   D2B39349  26.720  32.024  15.145 -0.2358  0.0086  0.3733
 3353DOPC   C3B39350  26.687  31.786  14.703  0.1143  0.0415 -0.1866
 3353DOPC   C4B39351  26.389  31.839  14.381 -0.0986 -0.1075  0.2864
 3354DOPE   NH339352  27.012  30.634  16.520 -0.2033  0.2621  0.2962
 3354DOPE   PO439353  26.835  30.867  16.438  0.4407  0.1339 -0.0067
 3354DOPE   GL139354  26.921  30.733  15.989  0.1070  0.2745  0.1160
 3354DOPE   GL239355  27.136  30.565  16.012  0.1029 -0.3234  0.2743
 3354DOPE   C1A39356  27.218  31.060  15.837  0.2096 -0.0925  0.0424
 3354DOPE   D2A39357  27.358  31.380  15.467 -0.1412  0.0847 -0.0416
 3354DOPE   C3A39358  27.548  31.368  15.028 -0.1457 -0.1595 -0.0361
 3354DOPE   C4A39359  27.630  31.472  14.592  0.2542 -0.2807 -0.1962
 3354DOPE   C1B39360  27.523  30.685  15.719  0.2192 -0.2648 -0.1301
 3354DOPE   D2B39361  27.768  31.012  15.544 -0.1017 -0.0606 -0.0641
 3354DOPE   C3B39362  28.127  30.911  15.276  0.0014 -0.0233  0.1718
 3354DOPE   C4B39363  28.282  31.177  14.967 -0.1356 -0.0632  0.3519
 3355DOPE   NH339364  28.314  24.764  16.117 -0.0071 -0.2233  0.4237
 3355DOPE   PO439365  28.547  24.589  16.017  0.3805  0.1313 -0.0264
 3355DOPE   GL139366  28.640  24.592  15.663  0.1458 -0.0814  0.1862
 3355DOPE   GL239367  28.652  24.828  15.514  0.0431  0.0280  0.1233
 3355DOPE   C1A39368  28.756  24.449  15.265 -0.0112 -0.1445  0.2584
 3355DOPE   D2A39369  28.678  24.470  14.809 -0.0955  0.1554  0.0053
 3355DOPE   C3A39370  28.552  24.838  14.580 -0.1192 -0.3199  0.2018
 3355DOPE   C4A39371  28.122  24.900  14.376 -0.2199 -0.4236  0.0549
 3355DOPE   C1B39372  28.650  24.963  15.095  0.0149 -0.4631  0.2410
 3355DOPE   D2B39373  28.811  25.279  14.803  0.1131  0.3269  0.0919
 3355DOPE   C3B39374  28.790  25.742  14.834 -0.0367 -0.2521  0.3417
 3355DOPE   C4B39375  28.765  26.206  14.745  0.2601 -0.2823  0.1830
 3356DOPC   NC339376  29.928  26.738  16.672 -0.1102  0.1082  0.1525
 3356DOPC   PO439377  29.548  26.607  16.559  0.0009 -0.3541 -0.0704
 3356DOPC   GL139378  29.668  26.626  16.166  0.3746 -0.3213  0.1221
 3356DOPC   GL239379  29.947  26.691  16.154  0.0404 -0.2111  0.0118
 3356DOPC   C1A39380  29.912  26.408  15.771 -0.1649  0.1642 -0.1298
 3356DOPC   D2A39381  30.158  26.063  15.492 -0.2545 -0.0203 -0.0891
 3356DOPC   C3A39382  30.218  26.210  15.097 -0.0852  0.0422  0.0066
 3356DOPC   C4A39383  30.078  26.534  14.747  0.0585 -0.2498 -0.0393
 3356DOPC   C1B39384  30.201  26.923  15.858 -0.0793 -0.1400  0.1786
 3356DOPC   D2B39385  30.234  27.166  15.436 -0.0548  0.1113 -0.1225
 3356DOPC   C3B39386  29.998  27.486  15.251 -0.1620  0.3501 -0.1159
 3356DOPC   C4B39387  29.664  27.555  15.005  0.1134  0.3014  0.1387
 3357POSM   NC339388  30.673  32.147  16.221 -0.0443  0.1143  0.0184
 3357POSM   PO439389  30.936  31.938  16.391 -0.0062  0.0004  0.0528
 3357POSM   AM139390  31.105  31.900  16.124 -0.0763 -0.1628 -0.3886
 3357POSM   AM239391  31.366  31.817  16.033  0.1457 -0.2227 -0.0160
 3357POSM   T1A39392  30.966  31.797  15.669 -0.1604 -0.0706  0.1365
 3357POSM   C2A39393  30.908  31.832  15.210 -0.0780  0.0184 -0.0816
 3357POSM   C3A39394  31.067  31.770  14.784  0.2136 -0.0843  0.0051
 3357POSM   C1B39395  31.436  31.638  15.754 -0.1363  0.1752 -0.1501
 3357POSM   D2B39396  31.391  31.598  15.342  0.1649 -0.2264  0.0991
 3357POSM   C3B39397  31.560  31.508  14.930 -0.0053 -0.0214  0.2377
 3357POSM   C4B39398  31.780  31.526  14.542 -0.2646  0.1105  0.1476
 3358POSM   NC339399  26.156  33.668  15.842 -0.3302 -0.3860 -0.3821
 3358POSM   PO439400  25.798  33.674  15.900 -0.1443  0.4394 -0.2139
 3358POSM   AM139401  25.737  33.684  15.571  0.3436  0.0596  0.1910
 3358POSM   AM239402  25.927  33.641  15.356 -0.0378 -0.1549 -0.1784
 3358POSM   T1A39403  25.501  33.744  15.136  0.1816  0.0861 -0.0888
 3358POSM   C2A39404  25.432  34.153  14.900 -0.1676  0.1624 -0.1780
 3358POSM   C3A39405  25.470  34.508  14.652 -0.0317 -0.1393  0.2579
 3358POSM   C1B39406  25.951  33.576  15.032 -0.1346  0.0718  0.3124
 3358POSM   D2B39407  25.700  33.732  14.660 -0.0025 -0.1665  0.1189
 3358POSM   C3B39408  25.600  34.076  14.370  0.1658  0.2802  0.0546
 3358POSM   C4B39409  25.534  34.476  14.155 -0.1954 -0.0471  0.1331
 3359DOPC   NC339410  31.877  33.136  16.144  0.1662 -0.0461 -0.0757
 3359DOPC   PO439411  31.784  32.963  15.840 -0.0980  0.3579  0.4698
 3359DOPC   GL139412  31.839  33.041  15.431  0.2855 -0.2449  0.3222
 3359DOPC   GL239413  31.816  33.339  15.458 -0.1961  0.0827 -0.0214
 3359DOPC   C1A39414  31.805  32.917  15.004 -0.1645  0.0396  0.0909
 3359DOPC   D2A39415  32.086  32.774  14.622 -0.0123 -0.1012  0.2342
 3359DOPC   C3A39416  31.923  32.965  14.216  0.1169  0.0387  0.2925
 3359DOPC   C4A39417  31.818  32.953  13.750 -0.2404 -0.3161  0.1298
 3359DOPC   C1B39418  31.707  33.480  15.034 -0.1712 -0.0687 -0.3331
 3359DOPC   D2B39419  31.318  33.606  14.833 -0.2392  0.2595  0.2103
 3359DOPC   C3B39420  31.280  33.349  14.437  0.1425 -0.1776 -0.1431
 3359DOPC   C4B39421  30.970  33.156  14.226  0.0527 -0.3397 -0.1777
 3360DOPS   CNO39422  27.949  30.134  16.890 -0.2364 -0.1123  0.2406
 3360DOPS   PO439423  27.913  30.270  16.567 -0.1911  0.1982 -0.0106
 3360DOPS   GL139424  28.186  30.225  16.304  0.2004  0.1687  0.0225
 3360DOPS   GL239425  28.233  30.027  16.055 -0.0037 -0.2701  0.2270
 3360DOPS   C1A39426  28.448  30.455  15.971  0.1415 -0.1052  0.1168
 3360DOPS   D2A39427  28.499  30.861  15.696  0.1840 -0.1127 -0.1231
 3360DOPS   C3A39428  28.265  31.271  15.571 -0.0862  0.0493 -0.0284
 3360DOPS   C4A39429  27.961  31.504  15.348  0.2231 -0.0573 -0.2059
 3360DOPS   C1B39430  28.021  29.973  15.583  0.3002 -0.0646 -0.0127
 3360DOPS   D2B39431  27.740  30.019  15.185  0.4110  0.1732 -0.3268
 3360DOPS   C3B39432  27.708  30.222  14.809  0.2316 -0.3062 -0.0147
 3360DOPS   C4B39433  27.915  30.352  14.432 -0.0105  0.1893  0.3788
 3361DOPE   NH339434  34.011  28.068  15.721 -0.0782  0.0146  0.0791
 3361DOPE   PO439435  33.717  28.024  15.879  0.1123 -0.1909  0.2032
 3361DOPE   GL139436  33.584  27.836  15.509  0.3108 -0.2155 -0.0977
 3361DOPE   GL239437  33.508  28.123  15.446  0.1575  0.0785  0.0893
 3361DOPE   C1A39438  33.484  27.876  14.999 -0.1245 -0.0028  0.0303
 3361DOPE   D2A39439  33.242  28.002  14.671  0.3735 -0.3700  0.0958
 3361DOPE   C3A39440  33.256  28.434  14.545  0.1098 -0.1653  0.1034
 3361DOPE   C4A39441  33.183  28.884  14.484 -0.2551  0.1438  0.1335
 3361DOPE   C1B39442  33.321  28.355  15.100  0.0724 -0.2533 -0.3774
 3361DOPE   D2B39443  32.903  28.352  14.956  0.2221 -0.1070 -0.1986
 3361DOPE   C3B39444  32.643  28.240  14.592 -0.1851 -0.1302  0.1467
 3361DOPE   C4B39445  32.511  28.203  14.105  0.1266  0.3651  0.3513
 3362DOPS   CNO39446  28.360  32.685  16.477 -0.2889  0.1700  0.1469
 3362DOPS   PO439447  28.537  33.009  16.470  0.0102  0.1924  0.0705
 3362DOPS   GL139448  28.370  32.952  16.080 -0.0287  0.1506 -0.0226
 3362DOPS   GL239449  28.409  32.637  16.006 -0.0981 -0.0988  0.0937
 3362DOPS   C1A39450  28.414  33.084  15.593 -0.0696 -0.2906 -0.1476
 3362DOPS   D2A39451  28.268  32.872  15.238  0.2633 -0.0224  0.1332
 3362DOPS   C3A39452  28.232  33.063  14.811  0.2358  0.1047  0.0549
 3362DOPS   C4A39453  28.399  33.405  14.568 -0.0721  0.3284 -0.0664
 3362DOPS   C1B39454  28.637  32.559  15.606 -0.1217  0.2541  0.0108
 3362DOPS   D2B39455  28.724  32.528  15.183 -0.0994  0.1241  0.1744
 3362DOPS   C3B39456  28.555  32.140  15.037  0.1429  0.0284  0.0193
 3362DOPS   C4B39457  28.683  31.934  14.701 -0.0462  0.0942 -0.1005
 3363DOPS   CNO39458  25.639  24.280  15.498  0.1610  0.0190  0.3510
 3363DOPS   PO439459  25.255  24.361  15.612 -0.0792 -0.1091 -0.1072
 3363DOPS   GL139460  25.162  24.423  15.115  0.0851 -0.0618  0.0296
 3363DOPS   GL239461  25.119  24.727  15.130 -0.3149 -0.0603  0.0533
 3363DOPS   C1A39462  24.863  24.472  14.765 -0.3913  0.1950 -0.0184
 3363DOPS   D2A39463  24.484  24.605  14.582 -0.2576 -0.0536 -0.0648
 3363DOPS   C3A39464  24.291  24.339  14.278  0.2531 -0.0842 -0.0245
 3363DOPS   C4A39465  24.123  24.254  13.862  0.0080 -0.2785  0.2843
 3363DOPS   C1B39466  25.579  24.711  15.204 -0.0538  0.0471 -0.0558
 3363DOPS   D2B39467  26.011  24.603  15.118 -0.0211  0.1950  0.4102
 3363DOPS   C3B39468  26.266  24.310  14.986 -0.0580  0.0427  0.1539
 3363DOPS   C4B39469  26.405  23.858  14.969  0.3713  0.3501 -0.1423
 3364POSM   NC339470  25.759  31.066  15.865 -0.1782 -0.1043  0.2381
 3364POSM   PO439471  25.562  31.334  16.078  0.2277  0.1872 -0.1314
 3364POSM   AM139472  25.370  31.307  15.821  0.0330 -0.1218  0.4104
 3364POSM   AM239473  25.186  31.155  15.694  0.2357 -0.1078  0.0723
 3364POSM   T1A39474  25.485  31.394  15.357 -0.1311 -0.0884  0.0912
 3364POSM   C2A39475  25.599  31.399  14.858 -0.1813 -0.0466 -0.0115
 3364POSM   C3A39476  25.647  31.415  14.403  0.0334 -0.1492 -0.1599
 3364POSM   C1B39477  25.257  30.924  15.528  0.4096 -0.2153  0.1231
 3364POSM   D2B39478  25.247  30.733  15.071 -0.0147 -0.1749 -0.2389
 3364POSM   C3B39479  25.364  30.946  14.691 -0.2367 -0.3729 -0.1188
 3364POSM   C4B39480  25.424  31.027  14.276 -0.3293  0.1722 -0.4243
 3365POSM   NC339481  31.570  28.894  16.557  0.2441 -0.0845 -0.1897
 3365POSM   PO439482  31.268  29.131  16.568 -0.1627  0.2075 -0.0264
 3365POSM   AM139483  31.488  29.270  16.308  0.3890 -0.1223 -0.0809
 3365POSM   AM239484  31.790  29.233  16.216  0.0976 -0.0376  0.2292
 3365POSM   T1A39485  31.506  29.664  16.023 -0.3310  0.1496  0.1755
 3365POSM   C2A39486  31.545  29.971  15.657  0.1721  0.0492  0.3183
 3365POSM   C3A39487  31.440  30.470  15.662 -0.0007 -0.0549 -0.0910
 3365POSM   C1B39488  31.856  29.019  15.987  0.0065 -0.1442 -0.1844
 3365POSM   D2B39489  31.835  28.904  15.479  0.1118 -0.3925 -0.1624
 3365POSM   C3B39490  31.623  28.701  15.143 -0.2108  0.1859  0.0618
 3365POSM   C4B39491  31.646  28.689  14.680  0.1364  0.2045  0.6228
 3366DOPC   NC339492  26.420  24.862  15.739 -0.2532 -0.0752 -0.1787
 3366DOPC   PO439493  26.146  25.129  15.848 -0.0543 -0.0423  0.3385
 3366DOPC   GL139494  26.146  25.128  15.405 -0.2356 -0.2849  0.0697
 3366DOPC   GL239495  26.426  25.197  15.359 -0.0511 -0.1270 -0.1868
 3366DOPC   C1A39496  25.838  25.106  15.036 -0.1801  0.0490 -0.1146
 3366DOPC   D2A39497  25.619  25.309  14.676 -0.1021 -0.0827 -0.1369
 3366DOPC   C3A39498  25.668  25.257  14.189 -0.0263 -0.2501  0.1560
 3366DOPC   C4A39499  25.567  25.100  13.752 -0.0347  0.1111 -0.1536
 3366DOPC   C1B39500  26.409  25.312  14.940  0.0135  0.1536  0.2535
 3366DOPC   D2B39501  26.252  25.331  14.533  0.1056 -0.0809  0.2040
 3366DOPC   C3B39502  26.461  25.147  14.197 -0.3984  0.4269 -0.0415
 3366DOPC   C4B39503  26.734  24.897  13.946  0.3819 -0.2486 -0.0804
 3367POSM   NC339504  28.767  34.177  16.573  0.1337 -0.1633  0.1326
 3367POSM   PO439505  28.510  34.096  16.278  0.1047  0.2968  0.1442
 3367POSM   AM139506  28.706  34.104  16.027 -0.2948  0.0058  0.4532
 3367POSM   AM239507  28.962  34.242  16.003  0.2421  0.0474  0.0497
 3367POSM   T1A39508  28.726  34.013  15.554 -0.3020 -0.0934 -0.2008
 3367POSM   C2A39509  28.858  33.990  15.195  0.0219 -0.0536 -0.0079
 3367POSM   C3A39510  28.780  34.216  14.818 -0.1611 -0.3504  0.2321
 3367POSM   C1B39511  28.933  34.430  15.708  0.2044  0.0998  0.1192
 3367POSM   D2B39512  28.927  34.510  15.225 -0.0156  0.1867 -0.2173
 3367POSM   C3B39513  29.015  34.765  14.869 -0.0365 -0.0589  0.0342
 3367POSM   C4B39514  28.938  34.692  14.408  0.0586 -0.0710 -0.1081
 3368DOPC   NC339515  29.839  29.919  16.843  0.2961 -0.0792  0.2441
 3368DOPC   PO439516  29.933  29.509  16.766 -0.3765 -0.0025  0.1673
 3368DOPC   GL139517  29.858  29.639  16.446  0.0106  0.1460 -0.0979
 3368DOPC   GL239518  30.082  29.821  16.415  0.0491  0.0804 -0.1181
 3368DOPC   C1A39519  29.776  29.486  15.994  0.0414  0.2104  0.0336
 3368DOPC   D2A39520  29.495  29.287  15.687 -0.0855 -0.0501 -0.1427
 3368DOPC   C3A39521  29.180  29.278  15.329 -0.1139  0.2617 -0.0132
 3368DOPC   C4A39522  29.093  29.532  14.964  0.1339  0.2668 -0.3860
 3368DOPC   C1B39523  30.109  29.860  15.948  0.0420  0.0096 -0.0847
 3368DOPC   D2B39524  30.085  30.149  15.622 -0.3139  0.2756 -0.1647
 3368DOPC   C3B39525  30.122  29.863  15.276 -0.1162  0.0273 -0.0760
 3368DOPC   C4B39526  30.441  29.908  14.955  0.0777  0.0268 -0.2137
 3369POSM   NC339527  30.207  29.339  17.102  0.1884  0.1737 -0.1827
 3369POSM   PO439528  30.078  29.005  16.866  0.2081 -0.0449 -0.2606
 3369POSM   AM139529  30.014  29.104  16.580  0.1851  0.3524  0.1327
 3369POSM   AM239530  29.810  29.156  16.375 -0.1836 -0.2348 -0.1693
 3369POSM   T1A39531  30.205  29.323  16.134 -0.0273 -0.3284  0.0806
 3369POSM   C2A39532  30.544  29.432  15.805 -0.2071 -0.0785 -0.0311
 3369POSM   C3A39533  30.645  29.688  15.438 -0.0007  0.0768  0.0744
 3369POSM   C1B39534  29.810  29.023  16.091 -0.0943 -0.1116 -0.1202
 3369POSM   D2B39535  29.905  28.867  15.682  0.2372 -0.0363  0.0983
 3369POSM   C3B39536  30.036  29.358  15.604  0.2317  0.0128  0.0844
 3369POSM   C4B39537  29.697  29.697  15.538  0.3237  0.1871  0.1317
 3370POSM   NC339538  32.165  24.902  16.320  0.2597  0.0097  0.1695
 3370POSM   PO439539  31.809  24.730  16.500  0.2916  0.1947  0.2965
 3370POSM   AM139540  31.812  24.564  16.222  0.2598 -0.0237  0.0081
 3370POSM   AM239541  31.629  24.434  16.025  0.1668  0.0641  0.1252
 3370POSM   T1A39542  31.932  24.707  15.744 -0.0026 -0.2197 -0.0085
 3370POSM   C2A39543  32.117  24.757  15.306 -0.1474 -0.0473 -0.1567
 3370POSM   C3A39544  32.217  24.752  14.809  0.0292  0.3768 -0.0043
 3370POSM   C1B39545  31.479  24.458  15.659  0.0171 -0.0502  0.2330
 3370POSM   D2B39546  31.338  24.643  15.293 -0.1777  0.1039 -0.0270
 3370POSM   C3B39547  31.286  24.975  14.975 -0.1354  0.0503  0.2062
 3370POSM   C4B39548  31.588  25.268  14.760  0.2609 -0.1934  0.1257
 3371DOPC   NC339549  24.966  26.249  15.905  0.2236 -0.0334 -0.2664
 3371DOPC   PO439550  25.196  26.578  16.038  0.1713 -0.2795  0.1739
 3371DOPC   GL139551  25.315  26.713  15.722 -0.0222  0.2532 -0.1719
 3371DOPC   GL239552  24.963  26.729  15.630  0.1535  0.2150 -0.1340
 3371DOPC   C1A39553  25.471  26.439  15.357 -0.0344  0.1847  0.0983
 3371DOPC   D2A39554  25.506  26.574  14.926  0.0224 -0.3753 -0.1905
 3371DOPC   C3A39555  25.479  26.965  14.699 -0.1868  0.1841 -0.0680
 3371DOPC   C4A39556  25.559  27.385  14.555 -0.0757 -0.0196  0.0548
 3371DOPC   C1B39557  24.957  26.451  15.238 -0.0745 -0.1986 -0.0526
 3371DOPC   D2B39558  24.740  26.386  14.831 -0.2325  0.0045  0.0330
 3371DOPC   C3B39559  24.473  26.392  14.466  0.2344  0.0699 -0.0699
 3371DOPC   C4B39560  24.425  26.120  14.071 -0.2211  0.1972  0.1176
 3372DOPE   NH339561  25.740  25.531  15.852 -0.0195  0.2854 -0.1421
 3372DOPE   PO439562  25.505  25.741  15.841 -0.1119 -0.0827 -0.0405
 3372DOPE   GL139563  25.423  25.651  15.470  0.0546  0.4167 -0.3485
 3372DOPE   GL239564  25.226  25.568  15.314  0.1445 -0.0497 -0.0262
 3372DOPE   C1A39565  25.604  25.676  15.077  0.2220  0.0048 -0.0479
 3372DOPE   D2A39566  25.623  25.914  14.672  0.3516 -0.1999  0.1252
 3372DOPE   C3A39567  25.894  25.670  14.397  0.2238  0.1178 -0.0790
 3372DOPE   C4A39568  26.044  25.438  13.997 -0.0056  0.2073 -0.1864
 3372DOPE   C1B39569  25.138  25.632  14.826 -0.1442  0.0222 -0.1697
 3372DOPE   D2B39570  25.288  25.680  14.393 -0.0641  0.0192 -0.0669
 3372DOPE   C3B39571  25.547  26.026  14.155  0.3431  0.1582 -0.1904
 3372DOPE   C4B39572  25.944  25.959  14.023 -0.1418 -0.0064  0.3272
 3373DOPC   NC339573  24.168  28.148  15.990 -0.0128 -0.2168  0.1922
 3373DOPC   PO439574  24.516  28.373  15.995 -0.1339 -0.0874 -0.0494
 3373DOPC   GL139575  24.584  28.234  15.654 -0.0794  0.0014  0.0853
 3373DOPC   GL239576  24.931  28.347  15.658  0.2812  0.3232  0.2613
 3373DOPC   C1A39577  24.548  28.337  15.199 -0.0897  0.1487 -0.0921
 3373DOPC   D2A39578  24.616  28.387  14.780  0.0650  0.1186 -0.1813
 3373DOPC   C3A39579  24.413  28.476  14.408  0.1593  0.2858 -0.0333
 3373DOPC   C4A39580  24.029  28.368  14.185  0.0567 -0.1860  0.0398
 3373DOPC   C1B39581  25.081  28.213  15.286  0.0251  0.1896 -0.0597
 3373DOPC   D2B39582  25.168  28.182  14.813 -0.2228 -0.3282  0.2415
 3373DOPC   C3B39583  24.993  28.463  14.435  0.1656 -0.2694  0.2375
 3373DOPC   C4B39584  24.882  28.827  14.184  0.1175  0.0092 -0.0619
 3374POSM   NC339585  32.516  31.285  17.065 -0.1271  0.2022 -0.4902
 3374POSM   PO439586  32.561  30.882  16.972  0.0238  0.2188 -0.0217
 3374POSM   AM139587  32.665  30.922  16.654 -0.0294  0.1652 -0.0128
 3374POSM   AM239588  32.530  31.050  16.440  0.2601 -0.1221  0.1101
 3374POSM   T1A39589  33.008  30.777  16.303 -0.0567  0.1042  0.2055
 3374POSM   C2A39590  33.213  30.891  15.913  0.2033 -0.1763 -0.0890
 3374POSM   C3A39591  33.540  30.933  15.552 -0.0006  0.1843 -0.1610
 3374POSM   C1B39592  32.493  30.761  16.223 -0.0778 -0.2503  0.2201
 3374POSM   D2B39593  32.513  30.502  15.815  0.0845  0.0404  0.0028
 3374POSM   C3B39594  32.686  30.171  15.621 -0.1772  0.0600  0.2613
 3374POSM   C4B39595  32.945  29.841  15.332 -0.0494  0.1470 -0.0841
 3375POSM   NC339596  23.830  33.290  16.092  0.2378 -0.0738 -0.1629
 3375POSM   PO439597  24.205  33.244  16.021  0.1664 -0.1317 -0.0450
 3375POSM   AM139598  24.168  33.442  15.759  0.0213 -0.2152  0.4900
 3375POSM   AM239599  24.350  33.597  15.599 -0.2822  0.0093  0.0988
 3375POSM   T1A39600  23.912  33.655  15.370 -0.0850 -0.1665 -0.3632
 3375POSM   C2A39601  23.730  33.808  14.949 -0.0245 -0.0286 -0.0169
 3375POSM   C3A39602  24.140  33.818  14.664 -0.0911  0.0859  0.1964
 3375POSM   C1B39603  24.538  33.545  15.306  0.0196  0.0685  0.3018
 3375POSM   D2B39604  24.536  33.398  14.834  0.1118  0.5737 -0.0345
 3375POSM   C3B39605  24.781  33.251  14.488 -0.1573 -0.0626  0.3865
 3375POSM   C4B39606  24.907  33.382  14.109 -0.0170  0.1538 -0.1114
 3376POSM   NC339607  27.289  29.281  16.172  0.3420  0.0921  0.0223
 3376POSM   PO439608  26.937  29.494  16.128  0.0136  0.0456  0.1894
 3376POSM   AM139609  26.744  29.502  15.827  0.1614 -0.1037 -0.2357
 3376POSM   AM239610  26.461  29.606  15.818  0.0213  0.0460  0.0744
 3376POSM   T1A39611  26.761  29.524  15.314  0.1859  0.0795  0.1166
 3376POSM   C2A39612  26.806  29.230  14.969 -0.1834  0.0733  0.1353
 3376POSM   C3A39613  26.761  28.827  14.735 -0.1668 -0.1262  0.1118
 3376POSM   C1B39614  26.261  29.656  15.529 -0.3077 -0.1472  0.2360
 3376POSM   D2B39615  25.930  29.704  15.210  0.0721 -0.0088 -0.0985
 3376POSM   C3B39616  25.983  29.735  14.781  0.1796  0.2941 -0.1730
 3376POSM   C4B39617  26.055  30.093  14.538 -0.2511  0.2231 -0.0099
 3377POSM   NC339618  26.021  34.130  15.703  0.0838 -0.0482  0.1892
 3377POSM   PO439619  26.024  34.500  15.929  0.0791 -0.1158 -0.1370
 3377POSM   AM139620  26.194  34.592  15.672  0.2944 -0.1816  0.0124
 3377POSM   AM239621  26.424  34.490  15.500 -0.1055  0.0543 -0.3438
 3377POSM   T1A39622  26.104  34.610  15.159  0.2203 -0.1547 -0.2496
 3377POSM   C2A39623  25.933  34.727  14.729  0.2251  0.1431  0.1536
 3377POSM   C3A39624  25.765  34.860  14.317  0.2830  0.2324 -0.0929
 3377POSM   C1B39625  26.731  34.446  15.311  0.0831  0.3690  0.1041
 3377POSM   D2B39626  26.907  34.240  14.917  0.1811 -0.0231 -0.0923
 3377POSM   C3B39627  26.649  34.139  14.541 -0.0522  0.1362 -0.0363
 3377POSM   C4B39628  26.535  34.211  14.142  0.0847  0.1263 -0.1714
 3378DOPC   NC339629  34.568  30.459  16.321  0.2965 -0.1796  0.3524
 3378DOPC   PO439630  34.278  30.218  16.354  0.3231 -0.1427  0.1786
 3378DOPC   GL139631  34.259  30.401  15.966  0.1183 -0.0792  0.1082
 3378DOPC   GL239632  34.476  30.458  15.840  0.1172  0.1235 -0.4520
 3378DOPC   C1A39633  34.038  30.557  15.597 -0.0030 -0.4186 -0.0090
 3378DOPC   D2A39634  33.929  30.802  15.218 -0.3838  0.0050  0.1232
 3378DOPC   C3A39635  33.938  30.659  14.805 -0.6159 -0.2341 -0.2485
 3378DOPC   C4A39636  33.722  30.585  14.411  0.1603 -0.1012  0.1051
 3378DOPC   C1B39637  34.485  30.320  15.439 -0.4312 -0.0385  0.1333
 3378DOPC   D2B39638  34.204  30.349  15.092 -0.3295 -0.1547 -0.0375
 3378DOPC   C3B39639  34.388  30.428  14.689  0.3334 -0.1027  0.4194
 3378DOPC   C4B39640  34.761  30.722  14.532 -0.1225  0.0974 -0.2930
 3379POSM   NC339641  34.055  31.236  16.968  0.1153  0.0377 -0.1493
 3379POSM   PO439642  33.789  31.293  16.683  0.3867 -0.2676 -0.3196
 3379POSM   AM139643  33.873  31.140  16.399  0.4800  0.1989  0.0673
 3379POSM   AM239644  33.948  31.210  16.143 -0.1651  0.0052 -0.1159
 3379POSM   T1A39645  33.727  30.798  16.034 -0.2436  0.2662 -0.0706
 3379POSM   C2A39646  33.535  30.471  15.766 -0.0213 -0.2664  0.0248
 3379POSM   C3A39647  33.626  30.131  15.427 -0.3192  0.2477 -0.1180
 3379POSM   C1B39648  33.820  31.272  15.845  0.1078 -0.1975 -0.1208
 3379POSM   D2B39649  33.658  31.387  15.396  0.2622 -0.0181 -0.2794
 3379POSM   C3B39650  33.586  31.074  15.038 -0.2301 -0.2799  0.0931
 3379POSM   C4B39651  33.415  30.880  14.685 -0.0047 -0.1357  0.1242
 3380DOPS   CNO39652  27.768  29.114  17.031  0.0550 -0.3101 -0.1215
 3380DOPS   PO439653  27.806  28.928  16.702 -0.0407 -0.0838 -0.0141
 3380DOPS   GL139654  27.695  29.095  16.282  0.1824 -0.0103  0.1404
 3380DOPS   GL239655  27.758  28.767  16.187  0.0850  0.0297 -0.2093
 3380DOPS   C1A39656  27.855  29.400  16.073 -0.0515  0.0724 -0.2409
 3380DOPS   D2A39657  28.269  29.507  15.795  0.0867 -0.0573 -0.6374
 3380DOPS   C3A39658  28.356  29.683  15.368 -0.1875 -0.0280  0.0916
 3380DOPS   C4A39659  28.474  30.060  15.117  0.1016  0.2094 -0.3703
 3380DOPS   C1B39660  27.679  28.677  15.749 -0.3325 -0.1998 -0.0333
 3380DOPS   D2B39661  27.971  28.765  15.374 -0.1646  0.1394 -0.0359
 3380DOPS   C3B39662  27.779  28.753  14.962  0.0235 -0.5299 -0.0482
 3380DOPS   C4B39663  27.730  28.634  14.471  0.0501  0.2142  0.3201
 3381DOPS   CNO39664  23.877  30.409  16.548 -0.1744 -0.2344 -0.1516
 3381DOPS   PO439665  24.100  30.242  16.250 -0.1686 -0.0799  0.1659
 3381DOPS   GL139666  24.122  30.470  15.902  0.0803 -0.0181 -0.1880
 3381DOPS   GL239667  24.062  30.237  15.668 -0.2658 -0.1239 -0.2218
 3381DOPS   C1A39668  24.419  30.735  15.684  0.1003  0.3163  0.1480
 3381DOPS   D2A39669  24.325  30.779  15.231  0.0277 -0.1387 -0.0290
 3381DOPS   C3A39670  24.685  30.590  15.021 -0.2675  0.0544 -0.1232
 3381DOPS   C4A39671  24.786  30.228  14.786 -0.1715 -0.2312 -0.0477
 3381DOPS   C1B39672  23.953  29.975  15.306 -0.0605  0.0766 -0.2303
 3381DOPS   D2B39673  23.859  29.989  14.808  0.1354  0.1199 -0.4294
 3381DOPS   C3B39674  23.490  30.126  14.558  0.0820  0.0693 -0.0461
 3381DOPS   C4B39675  23.103  30.298  14.619 -0.0490 -0.1619 -0.2141
 3382DOPS   CNO39676  28.492  31.107  16.902 -0.1801  0.0090  0.1151
 3382DOPS   PO439677  28.695  30.832  16.770  0.0698  0.2010  0.0778
 3382DOPS   GL139678  28.656  30.850  16.369 -0.1819 -0.0487 -0.2217
 3382DOPS   GL239679  28.910  30.723  16.228  0.3939 -0.1761  0.0148
 3382DOPS   C1A39680  28.739  31.165  16.019  0.2751  0.2085  0.2018
 3382DOPS   D2A39681  28.823  31.374  15.620  0.0911 -0.0582 -0.0668
 3382DOPS   C3A39682  29.061  31.572  15.360  0.0104 -0.4142  0.2824
 3382DOPS   C4A39683  29.466  31.731  15.205 -0.0909  0.1811 -0.2458
 3382DOPS   C1B39684  29.112  30.851  15.862  0.1802 -0.1147 -0.3956
 3382DOPS   D2B39685  28.985  30.943  15.492 -0.1752 -0.0273 -0.2357
 3382DOPS   C3B39686  28.695  31.138  15.196 -0.0235  0.1345 -0.0041
 3382DOPS   C4B39687  28.719  31.408  14.795  0.0278  0.0938  0.1032
 3383POSM   NC339688  30.693  26.354  16.807 -0.2613 -0.1789 -0.0961
 3383POSM   PO439689  30.947  26.591  16.629  0.1260 -0.0237  0.0679
 3383POSM   AM139690  30.911  26.644  16.319 -0.2355 -0.3328  0.2362
 3383POSM   AM239691  30.941  26.572  16.093  0.1046 -0.0850  0.2021
 3383POSM   T1A39692  30.666  26.984  16.062  0.0264  0.0108 -0.2837
 3383POSM   C2A39693  30.684  27.109  15.653 -0.2286  0.0708  0.2604
 3383POSM   C3A39694  30.786  27.004  15.227  0.0159  0.0447  0.2937
 3383POSM   C1B39695  30.944  26.658  15.773 -0.0020 -0.2379 -0.1128
 3383POSM   D2B39696  31.148  26.627  15.343 -0.0418  0.2365 -0.1167
 3383POSM   C3B39697  30.964  26.591  14.923 -0.2667 -0.1693 -0.1353
 3383POSM   C4B39698  31.044  26.436  14.477 -0.4558 -0.0421 -0.1304
 3384DOPE   NH339699  31.471   0.016  16.458 -0.0699  0.0310 -0.0581
 3384DOPE   PO439700  31.580  -0.173  16.240 -0.2178  0.0708  0.0371
 3384DOPE   GL139701  31.443   0.050  15.922  0.3339  0.0278  0.3383
 3384DOPE   GL239702  31.163  -0.104  15.927 -0.2283  0.1079 -0.0178
 3384DOPE   C1A39703  31.190   0.142  15.508  0.1384 -0.2215  0.2771
 3384DOPE   D2A39704  31.057   0.185  15.109 -0.3381 -0.1112 -0.1466
 3384DOPE   C3A39705  31.159  -0.194  14.857 -0.0670  0.0549  0.2214
 3384DOPE   C4A39706  31.305  -0.563  14.655  0.0437  0.0532  0.0352
 3384DOPE   C1B39707  30.996  -0.333  15.574  0.0323 -0.0793  0.2389
 3384DOPE   D2B39708  30.663  -0.583  15.631 -0.1854  0.0063 -0.0260
 3384DOPE   C3B39709  30.322  -0.484  15.371  0.0496 -0.0964  0.3108
 3384DOPE   C4B39710  30.292  -0.509  14.928 -0.1391  0.0796  0.2619
 3385POSM   NC339711  28.446  24.129  15.962 -0.0960  0.0418  0.0485
 3385POSM   PO439712  28.145  24.256  16.192 -0.0338  0.2095 -0.3126
 3385POSM   AM139713  28.031  24.317  15.876 -0.5473 -0.1408  0.4858
 3385POSM   AM239714  28.147  24.547  15.690 -0.2639  0.2691  0.1876
 3385POSM   T1A39715  27.640  24.354  15.577 -0.0864  0.1279 -0.0647
 3385POSM   C2A39716  27.408  23.979  15.359 -0.0123  0.0617 -0.0665
 3385POSM   C3A39717  27.329  23.551  15.165  0.0542 -0.0142  0.2902
 3385POSM   C1B39718  28.201  24.340  15.432 -0.3481 -0.1197  0.0137
 3385POSM   D2B39719  28.341  24.060  15.079 -0.0453  0.0015  0.1099
 3385POSM   C3B39720  28.217  23.961  14.666  0.0790  0.0447 -0.3469
 3385POSM   C4B39721  28.351  23.830  14.284  0.0905 -0.1329  0.1654
 3386DOPS   CNO39722  30.679  30.132  17.115 -0.1262 -0.0630  0.1978
 3386DOPS   PO439723  30.723  30.421  16.842  0.0787  0.1035 -0.0359
 3386DOPS   GL139724  30.733  30.320  16.437 -0.0558  0.1031  0.1971
 3386DOPS   GL239725  30.544  30.298  16.290 -0.4174 -0.0657 -0.3616
 3386DOPS   C1A39726  30.983  30.457  16.047 -0.1084  0.2997 -0.2444
 3386DOPS   D2A39727  30.955  30.586  15.635  0.0676 -0.0578 -0.2749
 3386DOPS   C3A39728  30.689  30.835  15.293 -0.2901  0.0443  0.0058
 3386DOPS   C4A39729  30.666  30.896  14.832 -0.3823  0.1146  0.1291
 3386DOPS   C1B39730  30.539  30.471  15.832 -0.4048 -0.1554  0.2376
 3386DOPS   D2B39731  30.282  30.580  15.458  0.2236  0.0274 -0.1919
 3386DOPS   C3B39732  29.869  30.434  15.334  0.2275 -0.4301 -0.3175
 3386DOPS   C4B39733  29.500  30.165  15.277  0.4718  0.1455  0.2773
 3387POSM   NC339734  33.274  27.992  16.170 -0.0593  0.0716 -0.1213
 3387POSM   PO439735  33.308  27.691  15.913  0.0561  0.0541 -0.2120
 3387POSM   AM139736  33.145  27.841  15.673 -0.0743 -0.0031 -0.0971
 3387POSM   AM239737  33.012  27.784  15.435  0.0143 -0.3908 -0.1810
 3387POSM   T1A39738  32.899  28.255  15.443  0.2755  0.0811 -0.0852
 3387POSM   C2A39739  32.554  28.566  15.563  0.1684 -0.0007 -0.3932
 3387POSM   C3A39740  32.319  28.875  15.808 -0.2207  0.0554  0.0124
 3387POSM   C1B39741  32.992  27.843  15.087  0.0837 -0.0837 -0.0530
 3387POSM   D2B39742  32.739  27.734  14.732 -0.2248 -0.1265  0.1142
 3387POSM   C3B39743  32.964  27.846  14.301 -0.4266 -0.0448  0.3286
 3387POSM   C4B39744  32.972  28.098  13.921  0.1258  0.1154  0.0081
 3388POSM   NC339745  27.624  25.887  16.139 -0.0289 -0.0039 -0.0562
 3388POSM   PO439746  27.810  26.130  15.935  0.1125  0.0360 -0.2064
 3388POSM   AM139747  27.927  26.220  15.648  0.2032 -0.3052  0.3795
 3388POSM   AM239748  27.897  26.375  15.413  0.0059  0.1829  0.0383
 3388POSM   T1A39749  28.394  26.348  15.552 -0.2765  0.1143  0.1443
 3388POSM   C2A39750  28.851  26.304  15.584  0.3528 -0.2530 -0.3004
 3388POSM   C3A39751  29.058  26.105  15.227 -0.4604 -0.0213  0.2544
 3388POSM   C1B39752  28.119  26.365  15.153 -0.0919 -0.0430  0.1183
 3388POSM   D2B39753  28.281  26.603  14.792  0.1279  0.1833  0.2203
 3388POSM   C3B39754  28.018  26.726  14.412 -0.4285  0.0429 -0.1067
 3388POSM   C4B39755  27.917  26.882  13.992 -0.2022  0.1173 -0.2998
 3389POSM   NC339756  25.497  31.522  16.518  0.0342 -0.0810 -0.0180
 3389POSM   PO439757  25.721  31.820  16.469  0.1294 -0.0162  0.1252
 3389POSM   AM139758  25.768  31.815  16.135 -0.4441  0.2339 -0.3561
 3389POSM   AM239759  25.964  31.866  15.912 -0.3389  0.2633 -0.0047
 3389POSM   T1A39760  25.526  31.813  15.660 -0.0046  0.2850  0.1022
 3389POSM   C2A39761  25.385  31.846  15.230  0.0099 -0.0323  0.0720
 3389POSM   C3A39762  25.387  31.844  14.738  0.0419 -0.2056 -0.1735
 3389POSM   C1B39763  26.200  31.950  15.723 -0.2889 -0.0260  0.2671
 3389POSM   D2B39764  26.281  32.204  15.362 -0.1569  0.1151  0.4786
 3389POSM   C3B39765  26.243  32.012  14.907 -0.2619  0.0091 -0.0739
 3389POSM   C4B39766  25.941  31.857  14.595  0.0514  0.1855  0.0731
 3390DOPE   NH339767   0.053  31.519  16.064  0.1784  0.3265  0.1141
 3390DOPE   PO439768  -0.220  31.395  16.151  0.0208 -0.1120  0.0261
 3390DOPE   GL139769  -0.426  31.256  15.868 -0.3040 -0.2436 -0.1360
 3390DOPE   GL239770  -0.487  30.966  15.807  0.2886  0.2140  0.0461
 3390DOPE   C1A39771  -0.558  31.423  15.479 -0.3141 -0.1448 -0.1886
 3390DOPE   D2A39772  -0.609  31.209  15.076  0.0056 -0.2051  0.2155
 3390DOPE   C3A39773  -0.720  31.554  14.801 -0.2563  0.2130 -0.3268
 3390DOPE   C4A39774  -0.657  31.824  14.438 -0.1094  0.2212 -0.0985
 3390DOPE   C1B39775  -0.309  30.865  15.467 -0.2212 -0.1960 -0.0607
 3390DOPE   D2B39776  -0.281  30.814  15.008  0.1896  0.0927 -0.3716
 3390DOPE   C3B39777  -0.350  31.061  14.654  0.2383 -0.2443 -0.1392
 3390DOPE   C4B39778  -0.155  31.481  14.571  0.2745 -0.1026 -0.3823
 3391DOPE   NH339779  24.431  31.228  16.138  0.0361  0.1391  0.1987
 3391DOPE   PO439780  24.681  31.011  16.158  0.0897 -0.0599  0.0881
 3391DOPE   GL139781  24.817  30.852  15.821  0.2835  0.2200 -0.1735
 3391DOPE   GL239782  24.932  30.576  15.931 -0.0183 -0.1821 -0.3667
 3391DOPE   C1A39783  24.812  30.885  15.365  0.0636  0.2763 -0.1198
 3391DOPE   D2A39784  24.798  31.077  14.920  0.1996 -0.1468 -0.1329
 3391DOPE   C3A39785  25.045  31.323  14.652 -0.2725 -0.0948 -0.0488
 3391DOPE   C4A39786  25.020  31.795  14.444  0.3036  0.1270  0.1136
 3391DOPE   C1B39787  24.723  30.318  15.553 -0.0719  0.5620  0.2447
 3391DOPE   D2B39788  24.400  30.141  15.264  0.2403 -0.2225  0.1620
 3391DOPE   C3B39789  24.240  30.398  14.919  0.0299  0.1860 -0.2183
 3391DOPE   C4B39790  23.966  30.358  14.523  0.1144 -0.2063 -0.1544
 3392DOPS   CNO39791  34.256  24.178  15.956  0.0533 -0.0095 -0.1304
 3392DOPS   PO439792  33.872  24.066  16.089 -0.4073 -0.2090 -0.0590
 3392DOPS   GL139793  33.998  23.759  15.935 -0.4772 -0.0424 -0.3128
 3392DOPS   GL239794  33.856  23.845  15.633 -0.3835 -0.0970 -0.1853
 3392DOPS   C1A39795  34.206  23.467  15.578 -0.0519  0.0765 -0.2475
 3392DOPS   D2A39796  34.015  23.189  15.277  0.1575  0.1850  0.1374
 3392DOPS   C3A39797  33.632  22.989  15.338  0.0614  0.0396  0.1942
 3392DOPS   C4A39798  33.205  23.110  15.464 -0.0557  0.0001 -0.1269
 3392DOPS   C1B39799  33.960  23.691  15.231 -0.0367  0.0447  0.2552
 3392DOPS   D2B39800  34.122  23.531  14.769 -0.1332 -0.2807  0.0533
 3392DOPS   C3B39801  34.555  23.715  14.668  0.0842  0.4298  0.2279
 3392DOPS   C4B39802  34.836  23.798  14.320 -0.4844  0.3394 -0.1585
 3393DOPS   CNO39803  24.158  27.663  16.189 -0.0230  0.0952 -0.1354
 3393DOPS   PO439804  23.815  27.829  16.077  0.3960 -0.2336 -0.0353
 3393DOPS   GL139805  23.718  27.811  15.697  0.4163 -0.1281 -0.4557
 3393DOPS   GL239806  23.844  28.049  15.601  0.1382  0.0498  0.0265
 3393DOPS   C1A39807  23.908  27.588  15.316 -0.0768  0.0916  0.2142
 3393DOPS   D2A39808  23.893  27.640  14.864 -0.2593 -0.1378 -0.0377
 3393DOPS   C3A39809  23.575  27.440  14.528 -0.0825  0.2541  0.1236
 3393DOPS   C4A39810  23.329  27.716  14.188 -0.0906  0.0599  0.3328
 3393DOPS   C1B39811  23.717  28.145  15.146  0.2193 -0.0952 -0.0369
 3393DOPS   D2B39812  23.734  28.313  14.721  0.1531  0.3090  0.2530
 3393DOPS   C3B39813  23.546  28.401  14.333 -0.0974  0.1082 -0.0772
 3393DOPS   C4B39814  23.236  28.229  14.092 -0.0260 -0.1948  0.0922
 3394DOPE   NH339815  27.182  33.614  16.245 -0.1786  0.0758 -0.0037
 3394DOPE   PO439816  27.170  33.327  16.418 -0.2680  0.1697 -0.1122
 3394DOPE   GL139817  27.204  33.153  16.047  0.0559  0.3212 -0.0156
 3394DOPE   GL239818  27.297  32.907  16.062  0.1141  0.4460 -0.0842
 3394DOPE   C1A39819  27.384  33.078  15.597 -0.1481 -0.1673  0.1336
 3394DOPE   D2A39820  27.471  32.754  15.285  0.0741  0.0964 -0.3095
 3394DOPE   C3A39821  27.324  32.754  14.885 -0.0179  0.1514  0.0608
 3394DOPE   C4A39822  26.898  32.869  14.768 -0.0792  0.0037 -0.8375
 3394DOPE   C1B39823  27.551  32.597  15.779 -0.1737 -0.0375  0.0364
 3394DOPE   D2B39824  27.642  32.330  15.456  0.4304  0.0755  0.2894
 3394DOPE   C3B39825  27.606  32.259  15.035  0.0565 -0.1531 -0.0341
 3394DOPE   C4B39826  27.385  32.205  14.635  0.3841 -0.2072  0.3558
 3395DOPC   NC339827  27.658  33.465  16.688 -0.2565  0.3093 -0.2042
 3395DOPC   PO439828  27.745  33.414  16.316  0.0412 -0.0001  0.3360
 3395DOPC   GL139829  27.569  33.403  15.932 -0.3992 -0.1801  0.3499
 3395DOPC   GL239830  27.720  33.594  15.844 -0.1295 -0.1212  0.0692
 3395DOPC   C1A39831  27.204  33.553  15.693  0.0532  0.1696  0.0528
 3395DOPC   D2A39832  27.107  33.823  15.298  0.0335 -0.1980 -0.3507
 3395DOPC   C3A39833  27.221  34.229  15.397  0.0728 -0.1644  0.0464
 3395DOPC   C4A39834  27.432  34.602  15.258 -0.1765  0.1929  0.1623
 3395DOPC   C1B39835  28.006  33.726  15.616 -0.1277 -0.3353 -0.0387
 3395DOPC   D2B39836  28.304  33.992  15.267 -0.1516  0.1347 -0.0350
 3395DOPC   C3B39837  28.533  33.703  14.939  0.0994  0.1377  0.1466
 3395DOPC   C4B39838  28.617  33.247  14.966  0.1500 -0.0587  0.3946
 3396DOPE   NH339839  28.963  32.983  16.818 -0.0291  0.0856 -0.1428
 3396DOPE   PO439840  29.085  32.935  16.490  0.1058  0.1341 -0.0766
 3396DOPE   GL139841  29.089  32.874  16.114 -0.2437  0.1514  0.0574
 3396DOPE   GL239842  28.922  32.734  16.000  0.0245 -0.1040 -0.0974
 3396DOPE   C1A39843  29.425  32.744  15.827  0.0980  0.0262 -0.0677
 3396DOPE   D2A39844  29.718  32.402  15.655 -0.0873  0.0509 -0.2906
 3396DOPE   C3A39845  29.968  31.994  15.574 -0.3639  0.2092 -0.3441
 3396DOPE   C4A39846  30.372  31.726  15.622  0.1614 -0.2075 -0.0072
 3396DOPE   C1B39847  29.165  32.343  15.916  0.2174  0.0987 -0.1297
 3396DOPE   D2B39848  29.425  31.984  16.053 -0.0561  0.0873  0.4258
 3396DOPE   C3B39849  29.535  31.626  15.809  0.1026  0.0053  0.1712
 3396DOPE   C4B39850  29.325  31.250  15.627  0.2615 -0.4415  0.1648
 3397DOPC   NC339851  22.966  27.473  15.514 -0.0218  0.2314 -0.0149
 3397DOPC   PO439852  23.033  27.092  15.558 -0.1918  0.1153 -0.2395
 3397DOPC   GL139853  22.919  26.878  15.206 -0.1033 -0.2526 -0.2582
 3397DOPC   GL239854  23.235  26.956  15.134 -0.1529 -0.0963 -0.1738
 3397DOPC   C1A39855  22.630  26.649  14.890  0.1404 -0.2842 -0.2013
 3397DOPC   D2A39856  22.693  26.559  14.453 -0.0738  0.0123 -0.1216
 3397DOPC   C3A39857  23.102  26.440  14.566 -0.2612  0.1506  0.0685
 3397DOPC   C4A39858  23.570  26.454  14.376  0.2612 -0.0431 -0.1231
 3397DOPC   C1B39859  23.557  27.181  14.954 -0.0471  0.0135  0.0866
 3397DOPC   D2B39860  23.949  27.156  14.817 -0.0227  0.0916 -0.0645
 3397DOPC   C3B39861  24.085  27.375  14.444 -0.0389  0.0705 -0.0021
 3397DOPC   C4B39862  24.301  27.409  14.066  0.2119 -0.4270 -0.0142
 3398DOPE   NH339863  32.541  27.328  15.942  0.1503  0.3814 -0.2077
 3398DOPE   PO439864  32.799  27.463  15.754 -0.0360  0.0300  0.0070
 3398DOPE   GL139865  32.557  27.590  15.440 -0.1928  0.4480  0.2342
 3398DOPE   GL239866  32.574  27.863  15.537  0.1798  0.0841 -0.0705
 3398DOPE   C1A39867  32.459  27.472  15.021 -0.0186  0.0203  0.0370
 3398DOPE   D2A39868  32.415  27.035  14.814  0.0194 -0.2974  0.0526
 3398DOPE   C3A39869  32.340  27.102  14.382 -0.1204 -0.1312  0.0828
 3398DOPE   C4A39870  32.311  27.311  13.907  0.1455 -0.1167  0.0568
 3398DOPE   C1B39871  32.478  28.004  15.098  0.1788  0.0127 -0.0277
 3398DOPE   D2B39872  32.218  27.846  14.748  0.1921 -0.3590 -0.0477
 3398DOPE   C3B39873  32.332  27.684  14.337 -0.2629 -0.0535 -0.0117
 3398DOPE   C4B39874  32.659  27.668  13.962  0.3587 -0.1758 -0.1508
 3399DOPE   NH339875  32.456  31.569  16.638  0.1062  0.1321 -0.0558
 3399DOPE   PO439876  32.694  31.593  16.449  0.1433  0.3015  0.0950
 3399DOPE   GL139877  32.663  31.415  16.097  0.2718  0.1568  0.1643
 3399DOPE   GL239878  32.958  31.285  16.139 -0.1044  0.0863 -0.0459
 3399DOPE   C1A39879  32.755  31.476  15.637  0.2031 -0.0849 -0.1073
 3399DOPE   D2A39880  32.657  31.459  15.170 -0.0586 -0.0593  0.0348
 3399DOPE   C3A39881  32.719  31.492  14.691 -0.0877 -0.0408 -0.2598
 3399DOPE   C4A39882  32.701  31.662  14.285  0.2273 -0.1447  0.1435
 3399DOPE   C1B39883  32.683  31.016  15.823  0.2670  0.3002 -0.0357
 3399DOPE   D2B39884  32.638  31.030  15.402 -0.0373 -0.3632  0.1401
 3399DOPE   C3B39885  32.244  31.010  15.112  0.1483  0.2013 -0.0385
 3399DOPE   C4B39886  32.040  31.007  14.668 -0.2869 -0.1331 -0.2177
 3400DOPC   NC339887  25.545  23.489  15.877 -0.0148  0.0701  0.2576
 3400DOPC   PO439888  25.212  23.545  16.097  0.0430  0.1217 -0.0466
 3400DOPC   GL139889  25.081  23.216  15.767  0.1105  0.3781  0.2748
 3400DOPC   GL239890  24.995  22.939  15.661 -0.4167  0.3372  0.0585
 3400DOPC   C1A39891  25.204  23.402  15.349 -0.2643 -0.0231 -0.0743
 3400DOPC   D2A39892  25.669  23.488  15.313 -0.0764  0.1346 -0.0051
 3400DOPC   C3A39893  25.720  23.641  14.885 -0.1045 -0.2923 -0.2096
 3400DOPC   C4A39894  25.973  23.908  14.593  0.0703 -0.0995 -0.1986
 3400DOPC   C1B39895  25.003  22.972  15.140 -0.1264  0.2011 -0.3299
 3400DOPC   D2B39896  25.101  22.841  14.643 -0.0825  0.0326  0.1468
 3400DOPC   C3B39897  24.957  23.202  14.415 -0.1606 -0.1114 -0.0432
 3400DOPC   C4B39898  24.811  23.592  14.227 -0.3788  0.2491  0.2358
 3401DOPC   NC339899  33.368  27.350  15.572 -0.1300  0.0757  0.2504
 3401DOPC   PO439900  33.519  27.012  15.572  0.0852 -0.3979 -0.0402
 3401DOPC   GL139901  33.500  26.850  15.345  0.1024  0.0248  0.0947
 3401DOPC   GL239902  33.251  26.756  15.256  0.2767 -0.4232 -0.0367
 3401DOPC   C1A39903  33.793  26.773  14.973  0.1479  0.1131 -0.1303
 3401DOPC   D2A39904  34.248  26.656  14.815  0.1900  0.1239 -0.0452
 3401DOPC   C3A39905  34.302  26.217  14.736  0.0805 -0.1103  0.1415
 3401DOPC   C4A39906  34.015  25.891  14.549 -0.0943 -0.1705 -0.0667
 3401DOPC   C1B39907  33.306  26.849  14.832 -0.3123 -0.1294  0.1481
 3401DOPC   D2B39908  33.281  27.012  14.375 -0.2292  0.1978 -0.1151
 3401DOPC   C3B39909  33.290  27.360  13.990 -0.3432 -0.0621  0.0156
 3401DOPC   C4B39910  33.084  27.646  13.692  0.0233  0.2706  0.4912
 3402DOPE   NH339911  30.168  25.864  16.806  0.0777  0.2119 -0.2074
 3402DOPE   PO439912  30.492  25.890  16.748 -0.1956 -0.0256 -0.2082
 3402DOPE   GL139913  30.586  25.777  16.401 -0.4220 -0.4087 -0.4866
 3402DOPE   GL239914  30.714  25.595  16.288 -0.3130 -0.1381 -0.0154
 3402DOPE   C1A39915  30.478  25.870  15.946 -0.0504 -0.0442  0.0680
 3402DOPE   D2A39916  30.216  25.590  15.733 -0.1394 -0.1456  0.0030
 3402DOPE   C3A39917  30.147  25.266  15.455 -0.0376 -0.1044 -0.1774
 3402DOPE   C4A39918  30.036  24.824  15.340 -0.1095  0.2301 -0.0134
 3402DOPE   C1B39919  30.951  25.759  15.921 -0.3994 -0.1028 -0.0830
 3402DOPE   D2B39920  31.088  25.844  15.478 -0.3107 -0.0172  0.0740
 3402DOPE   C3B39921  31.035  25.870  15.091 -0.0349 -0.0392  0.0687
 3402DOPE   C4B39922  30.754  26.132  14.786 -0.2782 -0.1144  0.2898
 3403DOPE   NH339923  34.369  29.700  16.229 -0.2298 -0.0752 -0.1281
 3403DOPE   PO439924  34.169  29.473  16.049  0.4482  0.0134 -0.0751
 3403DOPE   GL139925  34.437  29.484  15.816  0.3112  0.0253 -0.1767
 3403DOPE   GL239926  34.500  29.719  15.720 -0.0870  0.2036  0.0744
 3403DOPE   C1A39927  34.392  29.344  15.363 -0.0576 -0.4435  0.0792
 3403DOPE   D2A39928  34.417  29.464  14.959  0.1058  0.0054 -0.3370
 3403DOPE   C3A39929  34.168  29.150  14.706 -0.0236 -0.0516 -0.0332
 3403DOPE   C4A39930  34.235  28.920  14.301  0.3321  0.0932 -0.0257
 3403DOPE   C1B39931  34.671  29.806  15.298  0.0282  0.0407  0.1092
 3403DOPE   D2B39932  34.435  29.939  14.882  0.4207  0.2455  0.2400
 3403DOPE   C3B39933  34.100  29.685  14.674 -0.0202  0.0217 -0.2200
 3403DOPE   C4B39934  33.699  29.606  14.480 -0.0049 -0.0120 -0.0948
 3404DOPS   CNO39935  25.707  28.604  16.526  0.2050 -0.1683 -0.0800
 3404DOPS   PO439936  25.440  28.835  16.351  0.0790 -0.2512 -0.3175
 3404DOPS   GL139937  25.300  28.950  16.023  0.1209 -0.4849 -0.4946
 3404DOPS   GL239938  25.314  28.664  15.828  0.0480  0.1310  0.1273
 3404DOPS   C1A39939  25.529  29.076  15.638  0.0553  0.0102  0.0407
 3404DOPS   D2A39940  25.346  29.215  15.248  0.2857 -0.0738 -0.0603
 3404DOPS   C3A39941  25.440  29.251  14.818  0.1081 -0.1430 -0.0169
 3404DOPS   C4A39942  25.287  29.437  14.493 -0.0208 -0.1150  0.3813
 3404DOPS   C1B39943  25.579  28.353  15.644 -0.0022 -0.2020 -0.1458
 3404DOPS   D2B39944  25.601  28.051  15.337 -0.1801 -0.1889  0.1526
 3404DOPS   C3B39945  25.583  28.388  15.027  0.2526  0.2510  0.2505
 3404DOPS   C4B39946  25.512  28.414  14.501 -0.2973  0.0147 -0.1715
 3405POSM   NC339947  28.069  33.835  16.115 -0.4052 -0.1243  0.0842
 3405POSM   PO439948  28.025  34.230  16.216  0.0570 -0.0355 -0.1902
 3405POSM   AM139949  28.133  34.350  15.952 -0.1059  0.4087 -0.0229
 3405POSM   AM239950  28.342  34.238  15.783  0.2568  0.2583  0.0989
 3405POSM   T1A39951  28.203  34.805  15.679  0.0838  0.3800  0.1012
 3405POSM   C2A39952  28.285  34.853  15.291 -0.0752 -0.0090 -0.1049
 3405POSM   C3A39953  28.223  35.004  14.910  0.1674  0.0662  0.0329
 3405POSM   C1B39954  28.470  34.420  15.536  0.2136  0.3153  0.1895
 3405POSM   D2B39955  28.397  34.426  15.071 -0.0448 -0.3040  0.0696
 3405POSM   C3B39956  28.522  34.632  14.680 -0.0937  0.0596  0.1565
 3405POSM   C4B39957  28.698  35.085  14.553 -0.2659  0.2950  0.0365
 3406DOPC   NC339958  23.366  28.751  16.215  0.1347 -0.1586 -0.1824
 3406DOPC   PO439959  23.223  29.115  16.300  0.0779 -0.0494 -0.0641
 3406DOPC   GL139960  23.453  29.212  15.890  0.0842 -0.0337  0.0762
 3406DOPC   GL239961  23.597  29.012  15.696 -0.0993  0.3915 -0.0287
 3406DOPC   C1A39962  23.697  29.568  15.725  0.1289 -0.0144 -0.1226
 3406DOPC   D2A39963  23.447  29.785  15.419  0.0110  0.2312  0.2816
 3406DOPC   C3A39964  23.379  29.671  14.945  0.0212  0.4424 -0.1246
 3406DOPC   C4A39965  23.446  29.636  14.464  0.2166 -0.2013 -0.0241
 3406DOPC   C1B39966  23.615  29.204  15.282 -0.2611  0.1380  0.3046
 3406DOPC   D2B39967  23.908  29.555  15.143 -0.0010 -0.0507 -0.2363
 3406DOPC   C3B39968  24.223  29.374  14.814  0.2662 -0.3827 -0.0790
 3406DOPC   C4B39969  24.345  29.582  14.417  0.2147 -0.4532 -0.1206
 3407DOPC   NC339970  27.155  26.824  15.883  0.1533 -0.3997 -0.1221
 3407DOPC   PO439971  27.156  26.791  15.499  0.0291 -0.0859  0.2594
 3407DOPC   GL139972  27.160  26.720  15.183  0.0221 -0.1444  0.1805
 3407DOPC   GL239973  27.314  26.448  15.074 -0.0146 -0.1005 -0.0149
 3407DOPC   C1A39974  27.270  26.825  14.768  0.1851 -0.0193 -0.3998
 3407DOPC   D2A39975  27.556  27.044  14.432  0.1152  0.0381  0.0841
 3407DOPC   C3A39976  27.746  27.385  14.186 -0.2671 -0.0140 -0.2379
 3407DOPC   C4A39977  27.776  27.539  13.748 -0.0923 -0.2526 -0.2037
 3407DOPC   C1B39978  27.235  26.323  14.636  0.1918 -0.1045 -0.0476
 3407DOPC   D2B39979  27.289  26.509  14.220  0.0539  0.0557 -0.4340
 3407DOPC   C3B39980  27.671  26.333  14.089 -0.2453  0.0994  0.2484
 3407DOPC   C4B39981  28.076  26.386  13.996 -0.0688 -0.1153 -0.0763
 3408DOPS   CNO39982  26.673  24.343  15.937  0.1041 -0.2679  0.0019
 3408DOPS   PO439983  27.039  24.329  16.085  0.0680 -0.2830 -0.1282
 3408DOPS   GL139984  27.040  24.343  15.633 -0.1811 -0.1157  0.1295
 3408DOPS   GL239985  26.920  24.561  15.576 -0.0564 -0.1033  0.0237
 3408DOPS   C1A39986  26.858  24.107  15.280 -0.0287 -0.0972  0.0379
 3408DOPS   D2A39987  26.778  24.197  14.850  0.2038 -0.1402 -0.0564
 3408DOPS   C3A39988  27.091  24.063  14.418 -0.2027  0.0341 -0.0046
 3408DOPS   C4A39989  27.463  23.777  14.200 -0.3812 -0.2171 -0.0932
 3408DOPS   C1B39990  26.520  24.575  15.358  0.1686 -0.2007  0.2346
 3408DOPS   D2B39991  26.425  24.829  15.036 -0.2440 -0.1367 -0.1729
 3408DOPS   C3B39992  26.159  24.832  14.661  0.1032 -0.1085  0.3658
 3408DOPS   C4B39993  26.018  24.852  14.195 -0.0394 -0.0523  0.1800
 3409DOPC   NC339994  32.596  34.494  16.799 -0.2542  0.1934 -0.0285
 3409DOPC   PO439995  32.487  34.251  16.565 -0.1334  0.0585 -0.0651
 3409DOPC   GL139996  32.663  34.230  16.330  0.0055 -0.1924 -0.0117
 3409DOPC   GL239997  32.687  33.984  16.158  0.3119  0.0231 -0.0017
 3409DOPC   C1A39998  33.031  34.479  16.322  0.1170 -0.3011  0.0908
 3409DOPC   D2A39999  33.406  34.689  16.176  0.0110 -0.1083 -0.0385
 3409DOPC   C3A40000  33.469  35.062  16.131 -0.2252 -0.0599  0.2214
 3409DOPC   C4A40001  33.339  35.492  16.104 -0.2908  0.0575  0.1213
 3409DOPC   C1B40002  32.657  34.376  15.863 -0.2234 -0.0077  0.0182
 3409DOPC   D2B40003  32.656  34.543  15.405  0.1705  0.4236 -0.1284
 3409DOPC   C3B40004  33.026  34.534  15.141  0.0168  0.1454 -0.1309
 3409DOPC   C4B40005  33.476  34.556  15.221 -0.4250 -0.2099 -0.2383
 3410POSM   NC340006  31.290  28.118  16.940 -0.2766 -0.0927 -0.1305
 3410POSM   PO440007  31.522  28.075  16.594  0.0072 -0.2816 -0.0531
 3410POSM   AM140008  31.634  28.176  16.332 -0.4601 -0.1480  0.4866
 3410POSM   AM240009  31.759  28.423  16.228 -0.1837 -0.2516  0.0124
 3410POSM   T1A40010  31.716  27.959  15.900 -0.2217 -0.0538 -0.0762
 3410POSM   C2A40011  31.672  27.541  15.730  0.1349  0.1496  0.2207
 3410POSM   C3A40012  31.773  27.151  15.517  0.1664  0.1067  0.0115
 3410POSM   C1B40013  31.993  28.426  15.952  0.2600  0.0481  0.0440
 3410POSM   D2B40014  32.132  28.355  15.444  0.1448  0.1509 -0.0318
 3410POSM   C3B40015  32.217  28.734  15.215  0.1530  0.2201  0.4108
 3410POSM   C4B40016  32.528  29.099  15.333 -0.1649 -0.0790 -0.1861
 3411DOPC   NC340017  29.208  24.375  16.588 -0.6843 -0.0806 -0.1737
 3411DOPC   PO440018  28.921  24.100  16.540 -0.0939 -0.1316  0.0861
 3411DOPC   GL140019  28.884  24.032  16.166 -0.1016  0.2752 -0.0946
 3411DOPC   GL240020  28.966  24.278  16.064 -0.0945  0.1205  0.3254
 3411DOPC   C1A40021  29.147  23.866  15.789 -0.2824  0.1435 -0.6045
 3411DOPC   D2A40022  29.455  23.699  15.401 -0.2157  0.1900  0.0391
 3411DOPC   C3A40023  29.418  23.809  14.955 -0.4014  0.0175  0.1786
 3411DOPC   C4A40024  29.124  23.761  14.595  0.0296  0.1116 -0.1119
 3411DOPC   C1B40025  29.084  24.386  15.652 -0.0343 -0.2191  0.3202
 3411DOPC   D2B40026  29.300  24.143  15.231  0.0647 -0.0448  0.1275
 3411DOPC   C3B40027  29.600  24.318  14.952 -0.0590  0.2315 -0.1806
 3411DOPC   C4B40028  29.682  24.767  14.914 -0.0274  0.0248 -0.0116
 3412DOPC   NC340029  32.629  23.636  15.987  0.0565  0.0582  0.0235
 3412DOPC   PO440030  32.505  23.904  16.268  0.0894 -0.1156 -0.0512
 3412DOPC   GL140031  32.330  24.073  15.957 -0.0936  0.1105  0.2054
 3412DOPC   GL240032  32.199  23.884  15.784  0.2099 -0.0462  0.0106
 3412DOPC   C1A40033  32.647  24.059  15.638  0.1863 -0.0154  0.2056
 3412DOPC   D2A40034  32.824  23.992  15.243  0.1109 -0.1909  0.2276
 3412DOPC   C3A40035  32.617  23.865  14.863  0.0683 -0.0874 -0.1191
 3412DOPC   C4A40036  32.457  23.465  14.623  0.0319 -0.2142 -0.1239
 3412DOPC   C1B40037  32.288  23.895  15.267  0.1930  0.1413 -0.1915
 3412DOPC   D2B40038  32.074  23.972  14.872 -0.3785  0.0377  0.0868
 3412DOPC   C3B40039  31.978  24.285  14.557 -0.1143  0.1691 -0.2366
 3412DOPC   C4B40040  32.067  24.530  14.179 -0.0143  0.2904 -0.0694
 3413DOPE   NH340041  29.388  22.278  16.308  0.0534  0.3389 -0.2249
 3413DOPE   PO440042  29.673  22.131  16.236  0.2571  0.0393 -0.2617
 3413DOPE   GL140043  29.616  22.406  15.904 -0.0226  0.0702  0.2328
 3413DOPE   GL240044  29.801  22.623  15.870 -0.0919  0.1725  0.2970
 3413DOPE   C1A40045  29.759  22.227  15.509  0.2053 -0.0446 -0.1230
 3413DOPE   D2A40046  29.839  22.452  15.129  0.1684 -0.0521 -0.0810
 3413DOPE   C3A40047  29.462  22.593  14.895 -0.0461  0.1400  0.1315
 3413DOPE   C4A40048  29.480  22.307  14.555 -0.0969 -0.1095 -0.2519
 3413DOPE   C1B40049  30.092  22.655  15.521 -0.1182  0.0091  0.1322
 3413DOPE   D2B40050  30.263  22.870  15.199  0.1579 -0.0230 -0.2647
 3413DOPE   C3B40051  29.971  22.971  14.860 -0.0407 -0.0632  0.0549
 3413DOPE   C4B40052  30.012  23.030  14.413 -0.1271 -0.1410 -0.1416
 3414POSM   NC340053  33.513  25.160  15.726  0.2103  0.0256  0.0316
 3414POSM   PO440054  33.401  24.815  15.919 -0.2404  0.0783  0.0076
 3414POSM   AM140055  33.404  24.735  15.580  0.0425 -0.1818 -0.0770
 3414POSM   AM240056  33.512  24.780  15.335 -0.1076  0.0563 -0.0203
 3414POSM   T1A40057  33.289  24.426  15.200 -0.3296  0.0200 -0.2773
 3414POSM   C2A40058  33.448  24.460  14.735 -0.1327  0.1659 -0.1959
 3414POSM   C3A40059  33.709  24.236  14.464 -0.1455  0.1929 -0.1293
 3414POSM   C1B40060  33.629  24.850  14.981 -0.0939  0.0934 -0.1167
 3414POSM   D2B40061  33.699  24.752  14.486 -0.0453  0.2439 -0.0567
 3414POSM   C3B40062  33.362  24.646  14.163 -0.2284  0.0520 -0.0237
 3414POSM   C4B40063  32.969  24.712  13.959 -0.1948 -0.4032  0.0228
 3415POSM   NC340064  25.220  30.897  16.170  0.0869 -0.2158 -0.2440
 3415POSM   PO440065  25.556  30.672  16.222 -0.0875 -0.1680 -0.0612
 3415POSM   AM140066  25.401  30.529  15.960  0.5597 -0.0626 -0.3259
 3415POSM   AM240067  25.567  30.537  15.733 -0.1643  0.2432  0.0625
 3415POSM   T1A40068  25.208  30.327  15.521  0.2135  0.1633  0.1461
 3415POSM   C2A40069  25.311  30.180  15.052 -0.2562  0.0200  0.0600
 3415POSM   C3A40070  25.266  30.193  14.608  0.1876 -0.1454  0.3144
 3415POSM   C1B40071  25.673  30.572  15.383  0.1931  0.1861  0.0714
 3415POSM   D2B40072  26.077  30.517  15.160 -0.0113  0.0897  0.1922
 3415POSM   C3B40073  26.172  30.536  14.705  0.2804 -0.2988 -0.0739
 3415POSM   C4B40074  26.354  30.429  14.258 -0.3905 -0.1912 -0.1069
 3416DOPE   NH340075  24.152  24.375  15.588  0.1033 -0.1680 -0.2239
 3416DOPE   PO440076  24.246  24.642  15.448 -0.1281  0.0521 -0.1070
 3416DOPE   GL140077  24.554  24.732  15.120 -0.3336 -0.1403  0.1094
 3416DOPE   GL240078  24.481  25.037  15.250  0.0659  0.0486 -0.3359
 3416DOPE   C1A40079  24.794  24.981  14.776 -0.0556 -0.1693  0.0993
 3416DOPE   D2A40080  25.164  25.216  14.511  0.2538 -0.1772 -0.0711
 3416DOPE   C3A40081  25.143  25.110  14.071 -0.0262  0.1845  0.1146
 3416DOPE   C4A40082  24.859  25.280  13.745  0.0934  0.1268  0.0940
 3416DOPE   C1B40083  24.930  25.078  15.376 -0.2196 -0.2869 -0.1481
 3416DOPE   D2B40084  25.305  25.148  15.100 -0.1114  0.1448  0.0211
 3416DOPE   C3B40085  25.401  24.856  14.723  0.0062 -0.0190 -0.1301
 3416DOPE   C4B40086  25.165  24.724  14.372  0.4677  0.0683  0.0563
 3417POSM   NC340087  24.054  25.987  15.876 -0.2447  0.1645 -0.1031
 3417POSM   PO440088  23.887  25.625  15.868  0.1698  0.0085 -0.1551
 3417POSM   AM140089  23.858  25.552  15.561  0.4538 -0.1399 -0.1205
 3417POSM   AM240090  23.894  25.716  15.335 -0.2296  0.1064  0.0113
 3417POSM   T1A40091  23.879  25.184  15.238 -0.1020 -0.1799  0.3155
 3417POSM   C2A40092  24.064  24.846  14.933 -0.1960  0.0142  0.1277
 3417POSM   C3A40093  24.019  24.457  14.684  0.0396  0.0692  0.5753
 3417POSM   C1B40094  24.037  25.826  15.039 -0.3770 -0.2924 -0.3276
 3417POSM   D2B40095  24.382  25.908  14.697  0.2571  0.0718 -0.2447
 3417POSM   C3B40096  24.806  25.959  14.578  0.1483  0.1395 -0.1688
 3417POSM   C4B40097  25.028  26.020  14.112  0.2160  0.1225 -0.0451
 3418DOPE   NH340098  26.942  34.002  15.941  0.0467  0.0105  0.2192
 3418DOPE   PO440099  27.118  34.141  16.172 -0.0157 -0.0066  0.0100
 3418DOPE   GL140100  27.401  33.976  15.873  0.2758  0.2430 -0.0417
 3418DOPE   GL240101  27.656  34.110  15.846 -0.3256  0.0403 -0.1240
 3418DOPE   C1A40102  27.579  33.906  15.468 -0.1784  0.1324 -0.0118
 3418DOPE   D2A40103  27.474  34.039  15.013  0.0883  0.2543  0.0384
 3418DOPE   C3A40104  27.910  34.135  14.901 -0.0835  0.0240  0.1038
 3418DOPE   C4A40105  28.342  34.139  14.692 -0.0641 -0.0840 -0.1397
 3418DOPE   C1B40106  27.908  34.380  15.568 -0.1529 -0.2017 -0.1472
 3418DOPE   D2B40107  27.924  34.535  15.138  0.3185 -0.0361 -0.0364
 3418DOPE   C3B40108  27.721  34.940  15.042 -0.0359  0.1286 -0.1785
 3418DOPE   C4B40109  27.616  35.209  14.720 -0.1347 -0.4279  0.1107
 3419POSM   NC340110  23.733  28.234  16.374  0.2173  0.1272  0.3099
 3419POSM   PO440111  23.700  28.419  16.045 -0.0629 -0.3274 -0.0021
 3419POSM   AM140112  23.749  28.465  15.735  0.2691  0.0741 -0.2158
 3419POSM   AM240113  24.059  28.485  15.669  0.2895 -0.1941 -0.0627
 3419POSM   T1A40114  23.635  28.727  15.287  0.0773  0.0569 -0.1272
 3419POSM   C2A40115  23.581  28.789  14.792  0.0722  0.3482  0.0623
 3419POSM   C3A40116  23.225  28.777  14.506  0.1841 -0.0166 -0.1372
 3419POSM   C1B40117  24.036  28.456  15.320 -0.0607 -0.3104 -0.0092
 3419POSM   D2B40118  24.152  28.550  14.854 -0.2942 -0.0918 -0.4023
 3419POSM   C3B40119  23.988  28.785  14.541 -0.0964 -0.2100  0.0547
 3419POSM   C4B40120  23.656  28.877  14.246 -0.2536 -0.0458 -0.0247
 3420DOPS   CNO40121  34.409  25.371  15.330 -0.1576 -0.0754  0.0039
 3420DOPS   PO440122  34.787  25.501  15.465  0.2387  0.0130 -0.3590
 3420DOPS   GL140123  34.869  25.307  15.167  0.1761  0.1398  0.0920
 3420DOPS   GL240124  35.022  25.063  15.210 -0.0270 -0.1339 -0.0135
 3420DOPS   C1A40125  34.889  25.216  14.716 -0.0239 -0.0089  0.1936
 3420DOPS   D2A40126  35.087  25.140  14.368  0.0235  0.0935  0.0163
 3420DOPS   C3A40127  35.254  24.649  14.252 -0.0589 -0.1737  0.0130
 3420DOPS   C4A40128  35.384  24.372  13.917  0.0343 -0.2309  0.0607
 3420DOPS   C1B40129  35.247  24.933  14.823 -0.2335  0.0575  0.0153
 3420DOPS   D2B40130  35.339  24.489  14.706  0.1922 -0.1415  0.2173
 3420DOPS   C3B40131  35.640  24.258  14.432 -0.1304 -0.0268 -0.0236
 3420DOPS   C4B40132  35.772  24.094  14.047  0.0424  0.2250  0.1677
 3421DOPC   NC340133  29.132  33.375  16.288  0.1002  0.2976 -0.3422
 3421DOPC   PO440134  28.859  33.656  16.178  0.1354  0.1598  0.1070
 3421DOPC   GL140135  28.837  33.588  15.779 -0.0881  0.2363  0.3203
 3421DOPC   GL240136  28.569  33.512  15.742 -0.1276 -0.0731 -0.4123
 3421DOPC   C1A40137  28.912  33.411  15.350  0.0210 -0.1892 -0.2553
 3421DOPC   D2A40138  29.147  33.169  14.990 -0.0464  0.1422  0.4131
 3421DOPC   C3A40139  29.003  33.313  14.528 -0.0070  0.1449 -0.0800
 3421DOPC   C4A40140  28.917  33.187  14.080 -0.2832 -0.0031  0.0613
 3421DOPC   C1B40141  28.367  33.488  15.363 -0.1805 -0.0209  0.0627
 3421DOPC   D2B40142  28.081  33.461  15.030  0.3184  0.1111  0.3402
 3421DOPC   C3B40143  28.033  33.760  14.675  0.4007  0.2115 -0.1568
 3421DOPC   C4B40144  28.229  33.756  14.279  0.2945  0.1307 -0.2597
 3422DOPS   CNO40145  23.894  34.585  16.018 -0.3333 -0.1494 -0.1478
 3422DOPS   PO440146  23.930  34.227  16.123  0.0932 -0.0671 -0.2055
 3422DOPS   GL140147  23.689  34.234  15.710  0.0324 -0.1006  0.1413
 3422DOPS   GL240148  23.855  34.376  15.534  0.1764  0.0251 -0.1218
 3422DOPS   C1A40149  23.490  33.978  15.374 -0.0883  0.2580 -0.0699
 3422DOPS   D2A40150  23.155  33.708  15.121 -0.2369 -0.1832 -0.1667
 3422DOPS   C3A40151  23.231  33.476  14.751  0.1286 -0.0592 -0.2115
 3422DOPS   C4A40152  22.970  33.369  14.437  0.1119  0.1504 -0.3225
 3422DOPS   C1B40153  23.603  34.390  15.099 -0.0958 -0.1660 -0.0600
 3422DOPS   D2B40154  23.563  34.372  14.681  0.0643 -0.2255  0.3191
 3422DOPS   C3B40155  23.729  33.995  14.414 -0.0637  0.0505 -0.3058
 3422DOPS   C4B40156  23.837  33.668  14.222  0.0027 -0.0232  0.3105
 3423DOPE   NH340157  32.347  32.434  16.550 -0.0498  0.1376  0.0276
 3423DOPE   PO440158  32.632  32.562  16.477 -0.0116  0.0147 -0.0479
 3423DOPE   GL140159  32.715  32.481  16.030  0.0101 -0.4544 -0.3085
 3423DOPE   GL240160  32.499  32.332  15.994 -0.2363 -0.2845  0.0861
 3423DOPE   C1A40161  33.131  32.690  15.872  0.0904 -0.2210 -0.0810
 3423DOPE   D2A40162  33.599  32.677  15.781 -0.0367 -0.1461  0.2077
 3423DOPE   C3A40163  33.608  32.694  15.304  0.2004  0.0959 -0.0079
 3423DOPE   C4A40164  33.800  32.797  14.897 -0.0861 -0.1107  0.1999
 3423DOPE   C1B40165  32.204  32.263  15.632 -0.1539  0.1464 -0.1063
 3423DOPE   D2B40166  32.152  32.214  15.215 -0.4001  0.0423 -0.2369
 3423DOPE   C3B40167  32.032  31.953  14.824 -0.0986 -0.0982  0.0089
 3423DOPE   C4B40168  32.268  31.706  14.461  0.4323 -0.2948  0.1409
 3424DOPC   NC340169  25.080  29.980  16.948  0.2044 -0.1599  0.2860
 3424DOPC   PO440170  24.879  30.170  16.671 -0.3391 -0.2312 -0.0221
 3424DOPC   GL140171  24.833  30.003  16.370 -0.2389  0.1192  0.0868
 3424DOPC   GL240172  24.668  30.189  16.215  0.2025 -0.1665  0.3747
 3424DOPC   C1A40173  24.767  29.621  16.088 -0.1441  0.0023 -0.1322
 3424DOPC   D2A40174  24.790  29.783  15.616  0.2082  0.0142  0.0556
 3424DOPC   C3A40175  24.852  29.922  15.216  0.0955  0.1341  0.1379
 3424DOPC   C4A40176  25.056  29.644  14.872  0.2236 -0.1418 -0.0078
 3424DOPC   C1B40177  25.025  30.095  15.931 -0.1349 -0.1509  0.2870
 3424DOPC   D2B40178  25.384  29.919  15.757 -0.1497  0.1735 -0.0935
 3424DOPC   C3B40179  25.301  29.707  15.397 -0.0360 -0.5431  0.0884
 3424DOPC   C4B40180  25.494  29.742  14.952  0.0992 -0.4401  0.0203
 3425DOPS   CNO40181  23.872  26.762  15.923 -0.2709 -0.0790  0.3238
 3425DOPS   PO440182  23.653  26.514  16.062  0.0068 -0.2147  0.2357
 3425DOPS   GL140183  23.561  26.592  15.631  0.1518  0.1347  0.2806
 3425DOPS   GL240184  23.305  26.656  15.571  0.1108  0.1606 -0.0871
 3425DOPS   C1A40185  23.640  26.685  15.152  0.1184 -0.0834  0.1553
 3425DOPS   D2A40186  23.450  26.783  14.730 -0.0563 -0.1481  0.0912
 3425DOPS   C3A40187  23.646  26.914  14.354  0.0957 -0.2335 -0.0278
 3425DOPS   C4A40188  23.810  26.948  13.941 -0.1659 -0.0927  0.0209
 3425DOPS   C1B40189  23.242  26.388  15.240  0.0878 -0.1148 -0.0438
 3425DOPS   D2B40190  23.269  25.934  15.196 -0.2962  0.1791 -0.4619
 3425DOPS   C3B40191  23.242  26.011  14.710 -0.0256  0.2074  0.0431
 3425DOPS   C4B40192  23.561  25.860  14.423  0.0047  0.1506 -0.1560
 3426DOPC   NC340193  26.901  26.375  15.468  0.2840 -0.0461 -0.0415
 3426DOPC   PO440194  26.824  26.044  15.628  0.0246 -0.0604 -0.0090
 3426DOPC   GL140195  26.866  25.872  15.236  0.2242 -0.1179  0.0496
 3426DOPC   GL240196  27.021  25.976  14.992 -0.1561 -0.1046  0.1288
 3426DOPC   C1A40197  26.626  25.738  14.857  0.0094 -0.0322 -0.2152
 3426DOPC   D2A40198  26.739  25.412  14.519  0.4085 -0.1923  0.0993
 3426DOPC   C3A40199  26.679  24.927  14.574  0.0033 -0.0780  0.2092
 3426DOPC   C4A40200  26.478  24.482  14.508  0.6103 -0.2448  0.1983
 3426DOPC   C1B40201  27.007  25.930  14.501 -0.1535  0.0425 -0.1353
 3426DOPC   D2B40202  27.271  25.894  14.121  0.0594 -0.0536 -0.0380
 3426DOPC   C3B40203  27.799  25.883  14.069  0.1097 -0.0563  0.2741
 3426DOPC   C4B40204  28.243  25.861  13.931 -0.0747  0.0423 -0.2734
 3427DOPE   NH340205  34.114  31.549  16.448 -0.0575 -0.0797  0.0929
 3427DOPE   PO440206  33.947  31.824  16.401  0.0077  0.0527 -0.2527
 3427DOPE   GL140207  33.621  31.805  16.202  0.0453 -0.1566 -0.2572
 3427DOPE   GL240208  33.470  32.051  16.258 -0.2320 -0.1361  0.1745
 3427DOPE   C1A40209  33.555  31.755  15.694 -0.1222 -0.0983  0.3680
 3427DOPE   D2A40210  33.209  31.765  15.363 -0.1336 -0.2616  0.1333
 3427DOPE   C3A40211  33.102  31.793  14.928  0.0868 -0.3034 -0.3258
 3427DOPE   C4A40212  33.005  31.962  14.505  0.4717 -0.2640  0.1289
 3427DOPE   C1B40213  33.282  32.185  15.901 -0.1252 -0.3992 -0.0845
 3427DOPE   D2B40214  33.182  32.331  15.512  0.0266 -0.3601 -0.2443
 3427DOPE   C3B40215  33.305  32.441  15.042 -0.2131 -0.0255  0.4696
 3427DOPE   C4B40216  33.481  32.400  14.576 -0.3522 -0.0353  0.1786
 3428POSM   NC340217  30.671  32.710  15.907 -0.1137  0.0298 -0.2104
 3428POSM   PO440218  30.478  32.646  16.260 -0.0248  0.0129 -0.0846
 3428POSM   AM140219  30.318  32.446  16.092  0.2505  0.2673  0.1831
 3428POSM   AM240220  30.192  32.459  15.831 -0.1834  0.0878  0.2784
 3428POSM   T1A40221  30.196  31.972  16.086  0.0338  0.3110  0.0563
 3428POSM   C2A40222  29.943  31.571  16.169  0.1275  0.2683  0.1342
 3428POSM   C3A40223  29.694  31.176  16.078 -0.0900 -0.1203  0.2426
 3428POSM   C1B40224  30.211  32.433  15.492  0.0251  0.1544  0.0700
 3428POSM   D2B40225  30.159  32.531  15.036 -0.0028 -0.0274 -0.1303
 3428POSM   C3B40226  30.034  32.979  15.098 -0.3069 -0.3187  0.0267
 3428POSM   C4B40227  30.075  33.322  15.430  0.2650  0.2440  0.1822
 3429DOPE   NH340228  28.407  33.519  16.307  0.0413 -0.2434 -0.0572
 3429DOPE   PO440229  28.204  33.336  16.153  0.0963 -0.1166 -0.1292
 3429DOPE   GL140230  28.031  33.296  15.876 -0.3038 -0.2653 -0.0673
 3429DOPE   GL240231  27.816  33.049  15.931 -0.3020  0.1041  0.1105
 3429DOPE   C1A40232  27.855  33.300  15.444 -0.0233  0.0327  0.1267
 3429DOPE   D2A40233  27.758  33.062  15.004  0.0862 -0.0194 -0.0610
 3429DOPE   C3A40234  27.899  32.652  15.013  0.1764 -0.0435 -0.0786
 3429DOPE   C4A40235  28.348  32.587  14.853 -0.0321 -0.0099 -0.0830
 3429DOPE   C1B40236  27.977  32.785  15.623  0.1024 -0.0167  0.0960
 3429DOPE   D2B40237  28.147  32.382  15.409 -0.3086 -0.1027 -0.4011
 3429DOPE   C3B40238  28.027  32.034  15.166  0.1007 -0.0267 -0.1521
 3429DOPE   C4B40239  27.776  31.845  14.822  0.1313  0.0910 -0.0183
 3430POSM   NC340240  31.201  32.298  16.523  0.0582  0.0425  0.0814
 3430POSM   PO440241  31.020  32.422  16.205 -0.0315 -0.1240 -0.2163
 3430POSM   AM140242  31.007  32.406  15.866 -0.3518 -0.0175  0.1038
 3430POSM   AM240243  31.141  32.202  15.741  0.3384 -0.0124  0.4606
 3430POSM   T1A40244  30.697  32.202  15.519 -0.3654 -0.2665 -0.1591
 3430POSM   C2A40245  30.350  32.055  15.204 -0.4870  0.0149  0.0139
 3430POSM   C3A40246  29.921  31.868  15.057 -0.2657 -0.0511 -0.1732
 3430POSM   C1B40247  31.329  32.079  15.485 -0.2185  0.1320 -0.2094
 3430POSM   D2B40248  31.612  31.999  15.146 -0.0247 -0.1271  0.1755
 3430POSM   C3B40249  31.534  31.999  14.681 -0.0711  0.3353  0.0376
 3430POSM   C4B40250  31.622  31.987  14.283 -0.0081 -0.0563 -0.1911
 3431DOPC   NC340251  30.977  28.763  16.499 -0.0056  0.0492 -0.1121
 3431DOPC   PO440252  31.268  28.560  16.309  0.2774 -0.2518 -0.2267
 3431DOPC   GL140253  31.390  28.312  15.990 -0.2109  0.0877  0.2559
 3431DOPC   GL240254  31.272  28.108  16.047 -0.1426 -0.0181  0.1285
 3431DOPC   C1A40255  31.631  28.388  15.600 -0.2153  0.0899  0.3714
 3431DOPC   D2A40256  31.730  28.158  15.167 -0.2392  0.2659  0.2630
 3431DOPC   C3A40257  32.010  28.310  14.819  0.1127  0.0550  0.0867
 3431DOPC   C4A40258  32.280  28.726  14.700  0.0701 -0.0815  0.2880
 3431DOPC   C1B40259  31.337  27.981  15.582 -0.1718 -0.0119 -0.2459
 3431DOPC   D2B40260  31.397  27.658  15.292  0.2223 -0.0940 -0.1105
 3431DOPC   C3B40261  31.492  27.727  14.877  0.2068 -0.0764  0.4729
 3431DOPC   C4B40262  31.665  27.709  14.405 -0.1113  0.1104 -0.1950
 3432DOPE   NH340263  29.533  33.600  16.361  0.0279  0.0602  0.0582
 3432DOPE   PO440264  29.879  33.573  16.402 -0.0510  0.2305  0.1565
 3432DOPE   GL140265  30.070  33.431  16.056 -0.2053 -0.0915  0.1881
 3432DOPE   GL240266  30.360  33.432  15.888 -0.2403 -0.3259 -0.0688
 3432DOPE   C1A40267  29.717  33.342  15.774  0.0844 -0.1856  0.4154
 3432DOPE   D2A40268  29.546  33.347  15.420  0.0863 -0.0203 -0.0490
 3432DOPE   C3A40269  29.716  33.345  15.023 -0.1012  0.1535  0.1598
 3432DOPE   C4A40270  29.616  33.569  14.623 -0.1239  0.1018 -0.0220
 3432DOPE   C1B40271  30.241  33.757  15.537  0.0628  0.2276 -0.0124
 3432DOPE   D2B40272  30.133  33.731  15.051  0.1983  0.0439  0.2169
 3432DOPE   C3B40273  30.105  33.402  14.673 -0.1546 -0.3897 -0.1903
 3432DOPE   C4B40274  29.915  33.330  14.250  0.0365 -0.2958  0.3882
 3433POSM   NC340275  29.894  23.848  16.463  0.1075 -0.2317  0.0027
 3433POSM   PO440276  30.252  23.949  16.498 -0.0649  0.0568 -0.3517
 3433POSM   AM140277  30.276  23.962  16.180 -0.1509 -0.1705  0.1122
 3433POSM   AM240278  30.086  24.051  16.023  0.0941 -0.1735  0.0768
 3433POSM   T1A40279  30.546  23.852  15.754  0.0340 -0.1342 -0.0386
 3433POSM   C2A40280  30.402  23.873  15.334 -0.0880  0.1282  0.5351
 3433POSM   C3A40281  30.424  23.649  14.909  0.2898  0.2324 -0.2770
 3433POSM   C1B40282  30.059  24.134  15.716 -0.1044 -0.0111 -0.1725
 3433POSM   D2B40283  29.906  23.929  15.343  0.1007 -0.0023 -0.2854
 3433POSM   C3B40284  29.959  23.980  14.868 -0.1052  0.4418 -0.0860
 3433POSM   C4B40285  30.269  23.897  14.526  0.1175 -0.0649  0.1247
 3434DOPE   NH340286  32.987  32.973  16.460  0.0486  0.1373  0.1186
 3434DOPE   PO440287  32.776  33.217  16.476  0.0775 -0.0718  0.0360
 3434DOPE   GL140288  32.758  33.473  16.087 -0.1531 -0.2475 -0.2763
 3434DOPE   GL240289  33.021  33.486  16.082  0.0164 -0.1494 -0.2623
 3434DOPE   C1A40290  32.923  33.286  15.638  0.1866 -0.1999 -0.1936
 3434DOPE   D2A40291  32.815  33.181  15.187  0.1225  0.0744 -0.0991
 3434DOPE   C3A40292  32.847  33.247  14.738 -0.2838 -0.0817 -0.2107
 3434DOPE   C4A40293  32.931  33.169  14.297 -0.0419  0.2178  0.0391
 3434DOPE   C1B40294  33.262  33.133  15.960 -0.1794  0.0020 -0.1747
 3434DOPE   D2B40295  33.531  33.136  15.546 -0.2110 -0.3606 -0.1873
 3434DOPE   C3B40296  33.546  33.291  15.073 -0.0503  0.0778  0.3408
 3434DOPE   C4B40297  33.834  33.255  14.680 -0.0865  0.3958 -0.0427
 3435DOPE   NH340298  24.374  26.872  16.370  0.1359  0.1624 -0.0760
 3435DOPE   PO440299  24.248  27.063  16.217 -0.1499 -0.4512 -0.0802
 3435DOPE   GL140300  24.262  27.162  15.862 -0.3702 -0.1585 -0.2333
 3435DOPE   GL240301  24.296  26.935  15.691  0.0474  0.0268  0.0703
 3435DOPE   C1A40302  24.343  27.548  15.614 -0.0372 -0.1552 -0.3360
 3435DOPE   D2A40303  24.300  27.964  15.473 -0.0193 -0.0468  0.1164
 3435DOPE   C3A40304  24.206  28.053  14.985  0.2308 -0.1149  0.0051
 3435DOPE   C4A40305  24.368  27.896  14.621 -0.2452 -0.3258  0.1506
 3435DOPE   C1B40306  24.683  27.165  15.650  0.3115 -0.0651  0.1384
 3435DOPE   D2B40307  25.032  27.226  15.344  0.2932 -0.3898 -0.0715
 3435DOPE   C3B40308  24.979  26.950  14.952  0.1633 -0.0555  0.0255
 3435DOPE   C4B40309  25.029  26.709  14.543 -0.0941 -0.2723 -0.6255
 3436DOPE   NH340310  31.164  30.216  17.004  0.0060  0.3692  0.3220
 3436DOPE   PO440311  31.437  30.060  16.883 -0.1734 -0.0403 -0.2216
 3436DOPE   GL140312  31.275  29.780  16.587 -0.0893 -0.1845  0.0597
 3436DOPE   GL240313  31.545  29.692  16.545  0.0302  0.0830 -0.1356
 3436DOPE   C1A40314  31.036  29.986  16.198 -0.2051 -0.5103  0.1080
 3436DOPE   D2A40315  31.061  29.921  15.737  0.0488 -0.1272 -0.1413
 3436DOPE   C3A40316  31.181  29.957  15.303 -0.1120  0.1361 -0.1355
 3436DOPE   C4A40317  30.973  29.768  14.903  0.3935  0.1366  0.2391
 3436DOPE   C1B40318  31.871  29.863  16.290  0.1012  0.0444  0.0030
 3436DOPE   D2B40319  32.005  30.050  15.898  0.0796 -0.1146 -0.0522
 3436DOPE   C3B40320  31.893  30.366  15.544  0.0033 -0.2748 -0.2236
 3436DOPE   C4B40321  31.878  30.717  15.257 -0.0182  0.1410  0.0758
 3437DOPE   NH340322  24.781  24.526  15.446 -0.2468 -0.1117 -0.0766
 3437DOPE   PO440323  24.662  24.412  15.732 -0.1492 -0.0894  0.2089
 3437DOPE   GL140324  24.438  24.217  15.303 -0.0482 -0.1101  0.1185
 3437DOPE   GL240325  24.340  24.373  15.021  0.0608  0.2793  0.2362
 3437DOPE   C1A40326  24.187  23.921  15.057  0.2079 -0.0277 -0.2764
 3437DOPE   D2A40327  24.330  23.447  14.940 -0.1015 -0.0024  0.1849
 3437DOPE   C3A40328  24.092  23.071  14.948  0.3458  0.1931  0.1627
 3437DOPE   C4A40329  23.754  22.791  15.030 -0.1485  0.0198 -0.1290
 3437DOPE   C1B40330  24.620  24.058  14.802 -0.3069 -0.1273  0.1302
 3437DOPE   D2B40331  24.749  24.149  14.357  0.0108 -0.0680 -0.1558
 3437DOPE   C3B40332  24.782  24.560  14.160  0.1639 -0.1417 -0.1564
 3437DOPE   C4B40333  24.683  24.985  14.279  0.0759 -0.1140 -0.1392
 3438POSM   NC340334  32.810  25.525  16.340 -0.0166  0.1672  0.0767
 3438POSM   PO440335  32.612  25.893  16.285 -0.0692 -0.3701 -0.2102
 3438POSM   AM140336  32.645  25.789  15.989  0.1319  0.0546  0.5090
 3438POSM   AM240337  32.923  25.713  15.836  0.1588 -0.0239 -0.0316
 3438POSM   T1A40338  32.580  25.993  15.514 -0.1082 -0.0749  0.1691
 3438POSM   C2A40339  32.500  26.240  15.082  0.2166 -0.3314 -0.0949
 3438POSM   C3A40340  32.318  26.554  14.830  0.1608  0.0608 -0.1213
 3438POSM   C1B40341  32.853  25.611  15.600  0.5028 -0.0120  0.0297
 3438POSM   D2B40342  32.582  25.462  15.305  0.1632 -0.3951  0.2321
 3438POSM   C3B40343  32.286  25.777  15.098  0.2705  0.0463  0.1456
 3438POSM   C4B40344  32.263  26.052  14.707  0.0434  0.0137 -0.1908
 3439DOPE   NH340345  31.887  31.994  16.184  0.0562 -0.1016 -0.1706
 3439DOPE   PO440346  32.195  32.061  16.275  0.0723  0.0127 -0.0516
 3439DOPE   GL140347  32.335  31.712  16.143 -0.2340 -0.0488  0.0507
 3439DOPE   GL240348  32.409  31.742  15.832  0.0636  0.1050  0.0042
 3439DOPE   C1A40349  32.236  31.266  16.050 -0.0017  0.2595  0.2306
 3439DOPE   D2A40350  31.947  30.999  16.270 -0.0996  0.1616  0.0759
 3439DOPE   C3A40351  31.892  30.529  16.137  0.2157  0.0406  0.0498
 3439DOPE   C4A40352  31.553  30.246  16.104  0.0466  0.2726 -0.1413
 3439DOPE   C1B40353  32.442  31.847  15.421  0.0635 -0.0478  0.3604
 3439DOPE   D2B40354  32.581  31.984  14.957 -0.1915  0.0930 -0.1862
 3439DOPE   C3B40355  32.537  32.319  14.693 -0.0918  0.0308  0.1745
 3439DOPE   C4B40356  32.664  32.311  14.212  0.0422 -0.0544  0.2977
 3440DOPE   NH340357  31.490  33.492  15.862 -0.1735 -0.0172  0.0520
 3440DOPE   PO440358  31.819  33.605  15.924 -0.2282  0.1781  0.1070
 3440DOPE   GL140359  32.147  33.701  15.696 -0.1390  0.0975  0.0552
 3440DOPE   GL240360  32.461  33.699  15.805  0.0632 -0.2758  0.0945
 3440DOPE   C1A40361  32.160  33.759  15.235 -0.0907 -0.2219 -0.1001
 3440DOPE   D2A40362  32.162  33.639  14.811 -0.0804  0.0074  0.1829
 3440DOPE   C3A40363  32.321  33.924  14.480 -0.0281  0.3219 -0.1212
 3440DOPE   C4A40364  32.285  34.137  14.046 -0.0061  0.0882  0.1770
 3440DOPE   C1B40365  32.904  33.926  15.660  0.1488 -0.1572 -0.1969
 3440DOPE   D2B40366  33.316  34.064  15.396 -0.1056  0.0593 -0.0137
 3440DOPE   C3B40367  33.289  34.145  14.946  0.1312 -0.1961  0.2193
 3440DOPE   C4B40368  33.076  34.442  14.633 -0.1066  0.0245  0.0242
 3441POSM   NC340369  30.808  27.439  16.923  0.1100 -0.0333 -0.2515
 3441POSM   PO440370  31.125  27.620  16.733  0.1045  0.0384 -0.1219
 3441POSM   AM140371  31.113  27.540  16.429  0.4630 -0.0047  0.4078
 3441POSM   AM240372  31.158  27.653  16.204  0.1396  0.0382  0.0079
 3441POSM   T1A40373  31.122  27.143  16.101 -0.1418  0.1675 -0.3174
 3441POSM   C2A40374  31.206  27.038  15.659  0.0239  0.0047 -0.1051
 3441POSM   C3A40375  31.319  27.119  15.199 -0.5677  0.1110  0.0270
 3441POSM   C1B40376  31.117  27.589  15.868  0.0979  0.0863 -0.0134
 3441POSM   D2B40377  30.933  27.495  15.459  0.0540  0.1143 -0.4126
 3441POSM   C3B40378  31.043  27.435  14.972  0.4299 -0.1308 -0.1585
 3441POSM   C4B40379  31.084  27.511  14.531 -0.0120  0.1220  0.0320
 3442DOPC   NC340380  26.188  31.730  16.354  0.1203 -0.3330 -0.1511
 3442DOPC   PO440381  25.993  31.421  16.405 -0.3294 -0.0265 -0.2275
 3442DOPC   GL140382  26.072  31.459  16.035  0.1519 -0.0841 -0.2556
 3442DOPC   GL240383  26.305  31.286  15.986  0.1132  0.1787 -0.3365
 3442DOPC   C1A40384  25.992  31.390  15.579 -0.0376  0.0173 -0.1188
 3442DOPC   D2A40385  25.917  30.999  15.383 -0.1444  0.2172 -0.4329
 3442DOPC   C3A40386  25.788  30.964  14.956  0.0680 -0.0278 -0.0514
 3442DOPC   C4A40387  25.905  30.965  14.504 -0.2051 -0.3468 -0.1246
 3442DOPC   C1B40388  26.547  31.412  15.589 -0.0225 -0.1572 -0.5041
 3442DOPC   D2B40389  26.468  31.577  15.178  0.1356  0.1363 -0.0262
 3442DOPC   C3B40390  26.206  31.475  14.833  0.2468 -0.1253  0.0371
 3442DOPC   C4B40391  26.192  31.364  14.384  0.2044 -0.0384 -0.0854
 3443DOPE   NH340392  24.811  25.527  15.587  0.0469 -0.2831 -0.1864
 3443DOPE   PO440393  25.000  25.714  15.751 -0.3631 -0.1958 -0.0448
 3443DOPE   GL140394  24.881  25.996  15.519  0.2081 -0.0216 -0.0168
 3443DOPE   GL240395  25.097  26.025  15.422 -0.1642 -0.0347  0.2928
 3443DOPE   C1A40396  24.710  25.821  15.130  0.1608 -0.0414 -0.1704
 3443DOPE   D2A40397  24.771  25.393  14.995 -0.0087  0.1046 -0.1258
 3443DOPE   C3A40398  24.729  25.490  14.507 -0.0922  0.0639  0.0966
 3443DOPE   C4A40399  24.690  25.677  14.081  0.1360  0.0577  0.0433
 3443DOPE   C1B40400  25.272  26.128  14.981  0.5129 -0.1497  0.0983
 3443DOPE   D2B40401  25.253  26.264  14.533  0.0422  0.2041 -0.0516
 3443DOPE   C3B40402  25.382  26.545  14.231 -0.0755 -0.4854 -0.2506
 3443DOPE   C4B40403  25.294  26.620  13.822  0.0620  0.0340  0.1928
 3444DOPC   NC340404  34.527  28.338  15.964 -0.1904  0.2016  0.1227
 3444DOPC   PO440405  34.163  28.537  15.833  0.0644  0.0175  0.1692
 3444DOPC   GL140406  33.877  28.521  15.520 -0.0369  0.0664 -0.3438
 3444DOPC   GL240407  34.055  28.447  15.297 -0.4183 -0.1171  0.0501
 3444DOPC   C1A40408  33.637  28.706  15.162  0.4178 -0.0554  0.2078
 3444DOPC   D2A40409  33.584  29.090  14.858 -0.0305 -0.0204  0.1329
 3444DOPC   C3A40410  33.657  29.116  14.395  0.0009 -0.1839 -0.0392
 3444DOPC   C4A40411  33.931  29.263  14.040 -0.0348 -0.1688 -0.1927
 3444DOPC   C1B40412  33.749  28.262  14.986  0.3937  0.2165 -0.0492
 3444DOPC   D2B40413  33.825  28.063  14.598  0.4844  0.5506  0.2214
 3444DOPC   C3B40414  33.500  28.133  14.219 -0.1845  0.2049 -0.2916
 3444DOPC   C4B40415  33.426  28.380  13.798 -0.1531 -0.2530  0.0461
 3445POSM   NC340416  24.318  22.917  16.129  0.0317  0.3220  0.3100
 3445POSM   PO440417  24.653  23.116  16.066 -0.1099 -0.4640  0.0574
 3445POSM   AM140418  24.571  23.116  15.773 -0.1732 -0.3276 -0.2619
 3445POSM   AM240419  24.395  23.010  15.584 -0.0205 -0.1382 -0.2805
 3445POSM   T1A40420  24.659  23.428  15.351  0.0881 -0.1442 -0.0282
 3445POSM   C2A40421  24.833  23.671  14.991 -0.0886  0.0087  0.1581
 3445POSM   C3A40422  25.111  23.994  14.685 -0.0375 -0.0154  0.1770
 3445POSM   C1B40423  24.444  22.985  15.293  0.1045 -0.0462  0.1348
 3445POSM   D2B40424  24.631  22.969  14.866  0.2919  0.2967  0.3217
 3445POSM   C3B40425  24.421  23.156  14.535  0.1086  0.0072 -0.1971
 3445POSM   C4B40426  24.321  23.439  14.291  0.1146  0.1389  0.1632
 3446DOPE   NH340427  31.704  26.491  16.640  0.0990 -0.1411 -0.0870
 3446DOPE   PO440428  31.798  26.776  16.606 -0.1373  0.3225 -0.0738
 3446DOPE   GL140429  31.833  26.747  16.222 -0.3407  0.2326 -0.4132
 3446DOPE   GL240430  32.177  26.681  16.238 -0.0057 -0.4490  0.0685
 3446DOPE   C1A40431  31.595  26.683  15.879  0.0098 -0.0228  0.0878
 3446DOPE   D2A40432  31.352  26.246  15.831  0.0335 -0.3141 -0.0914
 3446DOPE   C3A40433  31.417  26.220  15.332  0.1406  0.3317 -0.3134
 3446DOPE   C4A40434  31.284  26.252  14.873 -0.1882 -0.2322  0.1715
 3446DOPE   C1B40435  32.070  26.570  15.760  0.1537  0.1995  0.5320
 3446DOPE   D2B40436  31.734  26.706  15.372  0.2927  0.1314 -0.0382
 3446DOPE   C3B40437  31.553  26.702  14.976  0.2278 -0.2514  0.0555
 3446DOPE   C4B40438  31.478  26.644  14.459  0.0662 -0.0402 -0.1342
 3447DOPE   NH340439  33.153  26.642  15.713 -0.1212 -0.2567 -0.2245
 3447DOPE   PO440440  32.981  26.925  15.687 -0.0308  0.2583  0.3537
 3447DOPE   GL140441  32.976  27.075  15.346  0.1754  0.2067  0.1903
 3447DOPE   GL240442  32.840  27.287  15.268  0.0249  0.1630  0.2247
 3447DOPE   C1A40443  33.266  27.397  15.050  0.3060 -0.1261  0.1649
 3447DOPE   D2A40444  33.316  27.534  14.618  0.1553  0.1578 -0.0914
 3447DOPE   C3A40445  33.658  27.448  14.309  0.0128 -0.1690 -0.0374
 3447DOPE   C4A40446  34.091  27.283  14.195  0.0580 -0.0813 -0.1280
 3447DOPE   C1B40447  32.887  27.164  14.805  0.3691  0.0008  0.1381
 3447DOPE   D2B40448  32.828  27.350  14.396 -0.1921  0.0861 -0.2586
 3447DOPE   C3B40449  32.856  27.071  14.057 -0.0588  0.1489 -0.2210
 3447DOPE   C4B40450  32.754  26.969  13.628  0.0227  0.1049  0.1413
 3448POSM   NC340451  27.408  24.684  15.949 -0.0353 -0.2100 -0.2341
 3448POSM   PO440452  27.297  25.045  15.831 -0.4447  0.2575 -0.3536
 3448POSM   AM140453  27.296  24.958  15.533 -0.0370  0.1382  0.0111
 3448POSM   AM240454  27.337  24.705  15.406 -0.2781 -0.0331  0.1997
 3448POSM   T1A40455  27.353  25.114  15.092  0.0716  0.3606 -0.0629
 3448POSM   C2A40456  27.219  25.021  14.678 -0.2472  0.0938 -0.2338
 3448POSM   C3A40457  27.084  25.074  14.260  0.1716  0.4448 -0.1120
 3448POSM   C1B40458  27.280  24.437  15.218 -0.2594  0.0105  0.1041
 3448POSM   D2B40459  27.260  24.191  14.861 -0.0162 -0.0194 -0.2650
 3448POSM   C3B40460  27.589  24.052  14.607  0.0926  0.0755 -0.0579
 3448POSM   C4B40461  27.892  24.035  14.254  0.1082  0.0986  0.2445
 3449DOPS   CNO40462  30.802  25.106  16.482 -0.0370  0.1917 -0.0448
 3449DOPS   PO440463  31.099  25.289  16.400  0.0039  0.2080 -0.2142
 3449DOPS   GL140464  31.082  25.356  16.034  0.1401  0.2634 -0.1528
 3449DOPS   GL240465  30.835  25.211  15.984 -0.2342 -0.1197  0.2212
 3449DOPS   C1A40466  31.178  25.352  15.593  0.0214  0.2380 -0.2301
 3449DOPS   D2A40467  31.353  25.433  15.219 -0.3111  0.0342 -0.1142
 3449DOPS   C3A40468  31.069  25.466  14.761  0.1274 -0.0404 -0.0679
 3449DOPS   C4A40469  31.285  25.477  14.282  0.1223  0.0898  0.0210
 3449DOPS   C1B40470  30.669  25.428  15.620  0.0514 -0.0067  0.4998
 3449DOPS   D2B40471  30.788  25.424  15.171 -0.1385  0.1874  0.0600
 3449DOPS   C3B40472  30.601  25.632  14.785  0.0872 -0.0236 -0.0407
 3449DOPS   C4B40473  30.585  25.883  14.356 -0.3166 -0.0989  0.1117
 3450DOPC   NC340474  26.494  34.384  16.130  0.1465 -0.1582  0.0936
 3450DOPC   PO440475  26.473  34.067  15.889 -0.1675  0.0522 -0.0422
 3450DOPC   GL140476  26.497  34.046  15.458  0.0069 -0.0306 -0.2588
 3450DOPC   GL240477  26.215  33.980  15.257  0.2715  0.0467 -0.1460
 3450DOPC   C1A40478  26.673  33.796  15.087  0.0075  0.2588  0.2970
 3450DOPC   D2A40479  26.980  33.624  14.793  0.1910  0.2004 -0.1694
 3450DOPC   C3A40480  26.832  33.396  14.388 -0.0956 -0.0019 -0.2697
 3450DOPC   C4A40481  27.018  33.016  14.189  0.2155  0.2949  0.2926
 3450DOPC   C1B40482  26.380  34.251  14.928  0.0658 -0.0111 -0.0940
 3450DOPC   D2B40483  26.496  34.626  14.690 -0.4004  0.0659  0.2639
 3450DOPC   C3B40484  26.647  34.906  14.371  0.1276 -0.1511 -0.1889
 3450DOPC   C4B40485  26.650  35.329  14.389  0.2171 -0.3040 -0.1255
 3451POSM   NC340486  28.164  28.530  15.859 -0.1798 -0.3305 -0.0490
 3451POSM   PO440487  28.584  28.537  15.936  0.0560  0.2974  0.0659
 3451POSM   AM140488  28.530  28.726  15.663  0.0186  0.3255 -0.0329
 3451POSM   AM240489  28.455  28.979  15.592  0.0277 -0.2485  0.2232
 3451POSM   T1A40490  28.417  28.781  15.143 -0.1113  0.2723  0.2409
 3451POSM   C2A40491  28.286  28.875  14.710 -0.1209 -0.0900 -0.1017
 3451POSM   C3A40492  28.450  29.027  14.288 -0.1128  0.0787 -0.5002
 3451POSM   C1B40493  28.595  29.222  15.363 -0.0556  0.1190 -0.1364
 3451POSM   D2B40494  28.499  29.483  14.950  0.3457  0.3064 -0.0501
 3451POSM   C3B40495  28.200  29.336  14.653 -0.0927 -0.0526  0.0241
 3451POSM   C4B40496  27.845  29.136  14.457 -0.0567  0.2174  0.2928
 3452DOPE   NH340497  30.396  24.752  16.732 -0.1435  0.3248 -0.0636
 3452DOPE   PO440498  30.307  24.894  16.435 -0.2343  0.1270  0.0804
 3452DOPE   GL140499  30.390  24.726  16.074  0.1200 -0.4370  0.0275
 3452DOPE   GL240500  30.158  24.681  15.834 -0.2294 -0.1568  0.0712
 3452DOPE   C1A40501  30.526  24.954  15.671 -0.0267  0.0823  0.1618
 3452DOPE   D2A40502  30.468  25.023  15.211  0.1628 -0.2475  0.0281
 3452DOPE   C3A40503  30.272  24.727  14.887 -0.2475  0.0547 -0.1353
 3452DOPE   C4A40504  30.017  24.469  14.593 -0.1818  0.0313  0.0099
 3452DOPE   C1B40505  29.840  24.972  15.732  0.1824  0.3935 -0.2386
 3452DOPE   D2B40506  29.689  25.151  15.298  0.0094 -0.1810  0.2275
 3452DOPE   C3B40507  29.460  25.290  14.898 -0.4432  0.0524 -0.0987
 3452DOPE   C4B40508  29.538  25.409  14.453  0.2522 -0.0621 -0.0109
 3453DOPS   CNO40509  28.946  23.177  16.401 -0.2745  0.1475 -0.1438
 3453DOPS   PO440510  28.792  23.277  16.057 -0.2099  0.2269 -0.1300
 3453DOPS   GL140511  28.705  23.377  15.724 -0.2627 -0.1057 -0.0129
 3453DOPS   GL240512  28.688  23.751  15.789  0.2729  0.3632  0.0188
 3453DOPS   C1A40513  28.960  23.554  15.401 -0.1582 -0.1225  0.0741
 3453DOPS   D2A40514  28.906  23.363  15.053  0.2115 -0.1575 -0.1314
 3453DOPS   C3A40515  29.052  23.224  14.635 -0.1506 -0.0661 -0.3812
 3453DOPS   C4A40516  28.831  23.152  14.258  0.0522 -0.0815 -0.2510
 3453DOPS   C1B40517  28.710  24.013  15.494 -0.2463  0.2530  0.2708
 3453DOPS   D2B40518  28.839  24.010  15.023 -0.2776  0.1554  0.1553
 3453DOPS   C3B40519  29.151  24.232  14.793 -0.0477  0.0502 -0.0733
 3453DOPS   C4B40520  29.431  24.500  14.504  0.0127 -0.2196  0.2739
 3454DOPS   CNO40521  29.173  33.773  16.637  0.0120 -0.0638 -0.3935
 3454DOPS   PO440522  29.225  33.978  16.330 -0.0634 -0.0006 -0.0715
 3454DOPS   GL140523  29.225  33.935  15.892  0.4600 -0.0563 -0.2469
 3454DOPS   GL240524  29.320  33.643  15.912 -0.0186 -0.0965  0.0201
 3454DOPS   C1A40525  29.269  33.787  15.479 -0.0257 -0.0912 -0.3236
 3454DOPS   D2A40526  29.191  33.663  15.052 -0.0599 -0.0062 -0.1016
 3454DOPS   C3A40527  29.104  33.773  14.589 -0.0020  0.1178  0.2083
 3454DOPS   C4A40528  29.064  34.159  14.368 -0.1844  0.1062  0.0695
 3454DOPS   C1B40529  29.199  33.229  15.769 -0.0502  0.0669 -0.1042
 3454DOPS   D2B40530  29.029  32.938  15.514  0.0686 -0.0047 -0.3006
 3454DOPS   C3B40531  29.271  32.502  15.458 -0.3036  0.0116 -0.2466
 3454DOPS   C4B40532  29.323  32.094  15.565 -0.0604  0.0497  0.2495
 3455DOPE   NH340533  33.353  23.869  16.481  0.4025  0.0806  0.0941
 3455DOPE   PO440534  33.460  23.754  16.201 -0.1464  0.2134  0.0547
 3455DOPE   GL140535  33.766  23.435  16.164  0.0711 -0.1510  0.2381
 3455DOPE   GL240536  33.839  23.252  15.866 -0.1899 -0.4223 -0.1107
 3455DOPE   C1A40537  34.212  23.543  16.252  0.1441 -0.0110  0.2791
 3455DOPE   D2A40538  34.550  23.631  15.911  0.2593 -0.3667  0.1935
 3455DOPE   C3A40539  34.545  23.965  15.573 -0.0714  0.1494  0.0950
 3455DOPE   C4A40540  34.177  24.118  15.392 -0.2546 -0.0152  0.3614
 3455DOPE   C1B40541  34.054  22.845  15.664  0.1799 -0.1745  0.1872
 3455DOPE   D2B40542  34.450  22.867  15.498  0.0239 -0.0249 -0.1351
 3455DOPE   C3B40543  34.334  22.787  15.084 -0.0458  0.2080  0.0457
 3455DOPE   C4B40544  34.038  22.854  14.795 -0.1733 -0.2233 -0.0117
 3456DOPC   NC340545  29.352  25.732  16.199 -0.0610 -0.0804  0.0472
 3456DOPC   PO440546  29.573  25.739  16.561  0.0871 -0.2449  0.3286
 3456DOPC   GL140547  29.812  25.758  16.267 -0.1531 -0.1074  0.0179
 3456DOPC   GL240548  30.044  25.663  16.267 -0.2919  0.2754 -0.1542
 3456DOPC   C1A40549  29.810  25.900  15.798 -0.0477 -0.1854 -0.1202
 3456DOPC   D2A40550  29.823  25.713  15.392  0.2485 -0.0842 -0.0445
 3456DOPC   C3A40551  29.808  25.690  14.951 -0.1863  0.1096  0.3786
 3456DOPC   C4A40552  30.036  25.512  14.539  0.0017 -0.1254 -0.2083
 3456DOPC   C1B40553  29.780  25.389  16.033  0.2320  0.0361  0.1341
 3456DOPC   D2B40554  29.449  25.340  15.707 -0.1544 -0.0918 -0.0963
 3456DOPC   C3B40555  29.174  25.156  15.377  0.0497 -0.0687 -0.0875
 3456DOPC   C4B40556  28.886  25.528  15.265 -0.0776 -0.0996 -0.0537
 3457DOPS   CNO40557  33.760  29.300  16.355  0.2410  0.2023  0.4225
 3457DOPS   PO440558  33.719  29.114  16.024 -0.0365 -0.3355  0.2400
 3457DOPS   GL140559  33.791  29.355  15.676  0.0244 -0.0837 -0.2287
 3457DOPS   GL240560  34.016  29.550  15.608 -0.0589  0.1672  0.3400
 3457DOPS   C1A40561  33.887  29.243  15.240 -0.1355 -0.2865  0.0212
 3457DOPS   D2A40562  34.214  28.873  15.165  0.0709 -0.4660 -0.0882
 3457DOPS   C3A40563  34.108  28.574  14.794  0.0039 -0.1127  0.0879
 3457DOPS   C4A40564  33.805  28.570  14.440 -0.0804 -0.1439 -0.2947
 3457DOPS   C1B40565  34.037  29.752  15.208  0.0114 -0.3263  0.2563
 3457DOPS   D2B40566  33.805  30.076  14.948  0.0980 -0.0041  0.2621
 3457DOPS   C3B40567  33.974  30.131  14.511 -0.1460 -0.2042 -0.0252
 3457DOPS   C4B40568  34.248  29.926  14.250 -0.2948  0.2417 -0.0260
 3458DOPE   NH340569  26.061  33.565  16.328  0.2638 -0.0934  0.3187
 3458DOPE   PO440570  26.378  33.657  16.334  0.3737 -0.0306 -0.0774
 3458DOPE   GL140571  26.673  33.605  16.037  0.0978 -0.1272 -0.2947
 3458DOPE   GL240572  26.673  33.333  16.071 -0.0759 -0.2432 -0.0485
 3458DOPE   C1A40573  26.721  33.550  15.604  0.0248  0.4154 -0.0760
 3458DOPE   D2A40574  26.850  33.334  15.241 -0.5127  0.0161 -0.1128
 3458DOPE   C3A40575  27.305  33.287  15.036  0.0888  0.1646 -0.0188
 3458DOPE   C4A40576  27.600  33.545  14.955 -0.1616 -0.0614  0.0220
 3458DOPE   C1B40577  26.905  33.011  15.727 -0.0161  0.0800 -0.0623
 3458DOPE   D2B40578  26.961  32.743  15.329  0.0981 -0.4214  0.4452
 3458DOPE   C3B40579  26.626  32.486  15.023  0.1168 -0.0007 -0.1902
 3458DOPE   C4B40580  26.409  32.474  14.654  0.1913  0.1267 -0.1897
 3459DOPE   NH340581  31.675  31.341  16.662 -0.1042  0.0758  0.1902
 3459DOPE   PO440582  31.888  31.593  16.552 -0.0440  0.0412 -0.4603
 3459DOPE   GL140583  31.674  31.567  16.194  0.2360  0.3621  0.1572
 3459DOPE   GL240584  31.601  31.330  16.120  0.0107  0.1542 -0.0761
 3459DOPE   C1A40585  31.939  31.547  15.811  0.1403  0.0803  0.0256
 3459DOPE   D2A40586  32.220  31.341  15.519  0.0242 -0.0985  0.0148
 3459DOPE   C3A40587  32.199  30.864  15.597  0.0139  0.1152 -0.0886
 3459DOPE   C4A40588  32.380  30.522  15.329  0.1261  0.0909 -0.3863
 3459DOPE   C1B40589  31.806  31.056  15.759 -0.1993 -0.1364  0.2500
 3459DOPE   D2B40590  31.799  31.209  15.289  0.0401 -0.2750  0.2105
 3459DOPE   C3B40591  31.574  31.001  14.875  0.2865 -0.0446 -0.0842
 3459DOPE   C4B40592  31.374  31.135  14.470 -0.0152  0.1103 -0.0524
 3460DOPE   NH340593  30.031  28.433  16.872  0.3035 -0.0312  0.4644
 3460DOPE   PO440594  29.842  28.214  16.720 -0.1054  0.0986  0.2523
 3460DOPE   GL140595  30.102  28.066  16.394  0.0873 -0.8150 -0.1885
 3460DOPE   GL240596  30.286  28.144  16.497 -0.0369  0.2101 -0.2303
 3460DOPE   C1A40597  29.891  28.044  15.937 -0.1868  0.1360  0.0193
 3460DOPE   D2A40598  29.816  27.859  15.525 -0.0624  0.2537 -0.4252
 3460DOPE   C3A40599  29.661  28.045  15.065 -0.1908  0.0126  0.1777
 3460DOPE   C4A40600  29.447  28.218  14.716 -0.0223  0.0379  0.0221
 3460DOPE   C1B40601  30.380  28.111  16.041  0.2689  0.0999 -0.0253
 3460DOPE   D2B40602  30.347  28.224  15.591 -0.1432 -0.1249  0.0781
 3460DOPE   C3B40603  30.165  28.553  15.318 -0.0028 -0.2914 -0.2858
 3460DOPE   C4B40604  30.017  28.908  15.238 -0.1559 -0.1826 -0.0923
 3461DOPC   NC340605  33.734  34.392  16.908  0.2117 -0.0151  0.1888
 3461DOPC   PO440606  33.863  34.118  16.683 -0.0854  0.2346  0.2727
 3461DOPC   GL140607  33.814  33.954  16.329 -0.1186  0.4280 -0.3446
 3461DOPC   GL240608  33.673  34.217  16.184 -0.1504  0.1773  0.2324
 3461DOPC   C1A40609  34.048  33.597  16.161 -0.1509  0.0360  0.1300
 3461DOPC   D2A40610  34.327  33.274  16.202 -0.1385 -0.0773  0.5099
 3461DOPC   C3A40611  34.482  33.345  15.767  0.0285 -0.1697 -0.1668
 3461DOPC   C4A40612  34.615  33.153  15.367 -0.0134  0.0895 -0.0934
 3461DOPC   C1B40613  34.052  34.154  15.947  0.0297  0.3487 -0.0340
 3461DOPC   D2B40614  34.270  33.806  15.730  0.0360  0.0514 -0.1195
 3461DOPC   C3B40615  34.412  33.602  15.315 -0.4865  0.1035  0.0822
 3461DOPC   C4B40616  34.614  33.562  14.888  0.0899 -0.0566 -0.0827
 3462POSM   NC340617  25.505  30.091  16.682  0.0229 -0.1354  0.1042
 3462POSM   PO440618  25.711  30.056  16.299  0.0435  0.3330  0.0011
 3462POSM   AM140619  25.799  29.820  16.062  0.1942  0.0503  0.2653
 3462POSM   AM240620  25.694  29.554  16.086  0.2236  0.0076 -0.1830
 3462POSM   T1A40621  25.761  29.513  15.630 -0.1770  0.1130 -0.0070
 3462POSM   C2A40622  25.865  29.246  15.245 -0.4312 -0.0341  0.1241
 3462POSM   C3A40623  26.125  28.945  15.042 -0.2034  0.2460 -0.1215
 3462POSM   C1B40624  25.365  29.401  15.971 -0.1010  0.0087  0.3626
 3462POSM   D2B40625  24.984  29.155  15.794 -0.2467 -0.0169  0.1487
 3462POSM   C3B40626  25.031  28.879  15.453  0.0217 -0.0954  0.0750
 3462POSM   C4B40627  25.101  28.647  15.076 -0.0051 -0.0149  0.3719
 3463POSM   NC340628  23.187  32.891  16.546 -0.2155  0.1922 -0.2096
 3463POSM   PO440629  23.401  32.989  16.224  0.2699  0.0588  0.0540
 3463POSM   AM140630  23.387  33.043  15.916  0.5542 -0.4238 -0.3423
 3463POSM   AM240631  23.393  32.901  15.712 -0.3149 -0.0269  0.1046
 3463POSM   T1A40632  23.039  33.181  15.465  0.0327 -0.0229  0.1391
 3463POSM   C2A40633  22.736  33.488  15.417  0.1928 -0.5345  0.0967
 3463POSM   C3A40634  22.454  33.797  15.303  0.1932 -0.3077 -0.4149
 3463POSM   C1B40635  23.401  32.678  15.460 -0.2068  0.2477 -0.0086
 3463POSM   D2B40636  23.436  32.602  15.072 -0.0266 -0.3790  0.2344
 3463POSM   C3B40637  23.729  32.382  14.822  0.3627  0.0505 -0.0700
 3463POSM   C4B40638  24.184  32.386  14.933 -0.0116 -0.0111 -0.1629
 3464DOPC   NC340639  28.033  26.584  15.930 -0.0073 -0.2976  0.2358
 3464DOPC   PO440640  28.316  26.610  16.196 -0.2750  0.2035 -0.0018
 3464DOPC   GL140641  28.446  26.751  15.755  0.1338 -0.0770  0.2117
 3464DOPC   GL240642  28.640  26.989  15.908 -0.1079  0.1751  0.0152
 3464DOPC   C1A40643  28.665  26.676  15.359 -0.1128  0.3247  0.1955
 3464DOPC   D2A40644  28.764  26.684  14.921  0.1671  0.1190  0.0762
 3464DOPC   C3A40645  28.572  26.900  14.495 -0.1140  0.1138 -0.0449
 3464DOPC   C4A40646  28.248  27.140  14.204  0.2914 -0.1902 -0.5319
 3464DOPC   C1B40647  28.586  27.274  15.476 -0.2978  0.1422 -0.2695
 3464DOPC   D2B40648  28.825  27.552  15.192 -0.0862  0.2050  0.2900
 3464DOPC   C3B40649  28.582  27.952  15.130 -0.1985  0.0831 -0.0898
 3464DOPC   C4B40650  28.661  28.395  15.032 -0.0481  0.1430 -0.0384
 3465DOPC   NC340651  30.895  28.274  16.675 -0.2234  0.2425 -0.0932
 3465DOPC   PO440652  30.561  28.374  16.828 -0.0179  0.1285 -0.1765
 3465DOPC   GL140653  30.509  28.616  16.517  0.0878 -0.4153  0.1091
 3465DOPC   GL240654  30.203  28.701  16.484  0.0665 -0.0979  0.0046
 3465DOPC   C1A40655  30.555  29.032  16.267 -0.0297  0.2512  0.0758
 3465DOPC   D2A40656  30.872  28.991  15.937 -0.0663 -0.0195  0.0050
 3465DOPC   C3A40657  31.298  29.107  15.858 -0.0714  0.1114  0.0386
 3465DOPC   C4A40658  31.553  29.328  15.526 -0.0236  0.1213  0.1765
 3465DOPC   C1B40659  30.248  28.554  16.069  0.0790  0.2357 -0.0646
 3465DOPC   D2B40660  30.476  28.739  15.703 -0.0054  0.0815 -0.2942
 3465DOPC   C3B40661  30.792  28.575  15.407 -0.2559  0.0690  0.2111
 3465DOPC   C4B40662  30.736  28.408  15.023 -0.1369 -0.0771 -0.2182
 3466DOPS   CNO40663  24.473  31.819  15.981 -0.1269 -0.0849 -0.2379
 3466DOPS   PO440664  24.148  31.642  16.071 -0.0694  0.2333 -0.0783
 3466DOPS   GL140665  24.200  31.601  15.694 -0.1626 -0.1778  0.0011
 3466DOPS   GL240666  23.883  31.606  15.625  0.1989 -0.2099  0.3619
 3466DOPS   C1A40667  24.423  31.795  15.330 -0.1361 -0.0192 -0.1905
 3466DOPS   D2A40668  24.744  32.121  15.310  0.1254 -0.0023 -0.2396
 3466DOPS   C3A40669  25.069  32.297  14.935  0.2262  0.0523  0.0115
 3466DOPS   C4A40670  25.208  32.380  14.539  0.2032  0.2303 -0.0384
 3466DOPS   C1B40671  23.995  31.488  15.216  0.2387 -0.3005  0.3063
 3466DOPS   D2B40672  24.324  31.243  14.972  0.0634  0.3653  0.1664
 3466DOPS   C3B40673  24.617  31.523  14.736 -0.0782 -0.1099  0.3498
 3466DOPS   C4B40674  24.947  31.754  14.986  0.0016 -0.0006 -0.1350
 3467DOPE   NH340675  31.333  24.840  16.345  0.2214 -0.0221 -0.3000
 3467DOPE   PO440676  31.193  24.797  16.664 -0.0018  0.1034  0.1159
 3467DOPE   GL140677  30.910  24.541  16.386  0.0482  0.0329 -0.1131
 3467DOPE   GL240678  30.845  24.721  16.194  0.0326  0.2318  0.0462
 3467DOPE   C1A40679  31.137  24.372  16.030 -0.2823 -0.0226 -0.0640
 3467DOPE   D2A40680  30.993  24.252  15.601 -0.0442 -0.0602  0.0210
 3467DOPE   C3A40681  30.539  24.403  15.671 -0.2613 -0.0959  0.1033
 3467DOPE   C4A40682  30.246  24.358  15.332  0.0061 -0.0160 -0.0499
 3467DOPE   C1B40683  30.992  24.792  15.761 -0.0832  0.0566  0.0201
 3467DOPE   D2B40684  30.915  24.917  15.338 -0.0480 -0.1030  0.1455
 3467DOPE   C3B40685  30.708  24.541  15.153  0.1573  0.0813 -0.2581
 3467DOPE   C4B40686  30.635  24.168  14.870 -0.0158  0.1937  0.0889
 3468DOPS   CNO40687  32.018  27.636  16.134  0.0746  0.0939 -0.0765
 3468DOPS   PO440688  32.389  27.720  16.214 -0.1753  0.1156  0.1240
 3468DOPS   GL140689  32.246  28.005  16.057 -0.2328 -0.4430 -0.2729
 3468DOPS   GL240690  32.204  27.994  15.774 -0.1420 -0.0814 -0.1462
 3468DOPS   C1A40691  32.513  28.366  16.092 -0.0360  0.1343  0.3868
 3468DOPS   D2A40692  32.908  28.568  15.972 -0.0339  0.0192  0.1894
 3468DOPS   C3A40693  32.833  28.974  15.782  0.0788  0.1282  0.1063
 3468DOPS   C4A40694  32.961  29.315  15.470  0.0217  0.2501  0.3085
 3468DOPS   C1B40695  32.094  27.647  15.479 -0.0454  0.0717 -0.1961
 3468DOPS   D2B40696  31.885  27.462  15.073 -0.1577 -0.0115  0.3689
 3468DOPS   C3B40697  32.047  27.331  14.689  0.1799  0.0179  0.2461
 3468DOPS   C4B40698  31.906  27.249  14.245 -0.1516 -0.0375 -0.3139
 3469DOPE   NH340699  33.824  25.197  12.267 -0.0240  0.1220  0.2369
 3469DOPE   PO440700  33.581  25.177  12.463 -0.1056 -0.3597  0.0122
 3469DOPE   GL140701  33.800  24.873  12.602 -0.0448 -0.1994 -0.0395
 3469DOPE   GL240702  34.056  24.749  12.460 -0.3707 -0.1142  0.0404
 3469DOPE   C1A40703  33.861  24.643  12.973 -0.1264 -0.0016  0.2695
 3469DOPE   D2A40704  34.187  24.424  13.264  0.0553  0.0366  0.1642
 3469DOPE   C3A40705  34.589  24.501  13.480 -0.0415 -0.3626 -0.1558
 3469DOPE   C4A40706  34.994  24.679  13.638  0.4013 -0.0334  0.0617
 3469DOPE   C1B40707  34.295  24.464  12.747  0.0515  0.0670  0.1099
 3469DOPE   D2B40708  34.629  24.305  13.033  0.2677 -0.1465 -0.0431
 3469DOPE   C3B40709  35.072  24.331  12.903 -0.1057 -0.0770  0.0697
 3469DOPE   C4B40710  35.386  24.664  12.684 -0.0655  0.1084 -0.1461
 3470DOPS   CNO40711  24.694  27.497  12.447 -0.0703  0.2382 -0.0828
 3470DOPS   PO440712  24.710  27.322  12.761  0.2485  0.0658 -0.0137
 3470DOPS   GL140713  24.732  27.288  13.095 -0.0116 -0.0309 -0.0842
 3470DOPS   GL240714  24.642  27.028  13.252  0.0074 -0.0127  0.0456
 3470DOPS   C1A40715  25.033  26.895  13.112 -0.1038  0.0110 -0.0320
 3470DOPS   D2A40716  25.221  26.520  12.933 -0.1097 -0.0813  0.0860
 3470DOPS   C3A40717  25.030  26.254  12.607 -0.1535  0.1507 -0.0076
 3470DOPS   C4A40718  24.845  25.927  12.321 -0.1361 -0.0548  0.3102
 3470DOPS   C1B40719  24.793  26.819  13.658 -0.1372 -0.0130 -0.2592
 3470DOPS   D2B40720  24.884  26.929  14.093 -0.4991  0.1752  0.0691
 3470DOPS   C3B40721  24.560  27.051  14.350  0.1202  0.1806  0.1560
 3470DOPS   C4B40722  24.585  27.389  14.603  0.0112 -0.1940 -0.2941
 3471DOPE   NH340723  31.579  24.921  12.912 -0.2959  0.1363  0.1681
 3471DOPE   PO440724  31.632  24.925  12.628  0.0034 -0.0110  0.0545
 3471DOPE   GL140725  31.870  25.257  12.590  0.4004  0.0379 -0.0610
 3471DOPE   GL240726  32.126  25.303  12.782 -0.0424 -0.1829 -0.2003
 3471DOPE   C1A40727  31.980  25.730  12.659 -0.1369  0.3232  0.0491
 3471DOPE   D2A40728  32.252  26.069  12.829 -0.1266 -0.1259  0.1981
 3471DOPE   C3A40729  32.437  26.114  13.292 -0.0023 -0.1090 -0.3358
 3471DOPE   C4A40730  32.673  26.405  13.474 -0.1675  0.1532  0.0057
 3471DOPE   C1B40731  32.076  25.111  13.194  0.2510 -0.1605 -0.1392
 3471DOPE   D2B40732  32.395  25.070  13.506  0.1110  0.1797  0.0018
 3471DOPE   C3B40733  32.763  25.110  13.742 -0.1924 -0.2475 -0.2212
 3471DOPE   C4B40734  33.104  25.170  14.075 -0.0407 -0.0038 -0.1265
 3472DOPE   NH340735  33.381  23.599  12.527 -0.3213  0.0584  0.2995
 3472DOPE   PO440736  33.122  23.447  12.368  0.1169  0.0024 -0.2378
 3472DOPE   GL140737  33.060  23.881  12.318 -0.0471 -0.3545  0.0932
 3472DOPE   GL240738  33.176  24.101  12.564  0.1989  0.0533  0.0023
 3472DOPE   C1A40739  32.627  24.039  12.362 -0.1664 -0.1687 -0.1955
 3472DOPE   D2A40740  32.351  24.475  12.347 -0.0070 -0.2721 -0.1003
 3472DOPE   C3A40741  32.394  24.799  12.659 -0.1226  0.2983  0.1721
 3472DOPE   C4A40742  32.577  24.810  13.045 -0.0766 -0.0004 -0.0586
 3472DOPE   C1B40743  33.304  24.428  12.861 -0.0588 -0.0076  0.4025
 3472DOPE   D2B40744  33.343  24.877  12.862 -0.0126 -0.0063 -0.2135
 3472DOPE   C3B40745  33.064  25.174  13.124 -0.4858 -0.1166 -0.1157
 3472DOPE   C4B40746  32.946  25.454  13.391 -0.1306  0.3266  0.0085
 3473DOPC   NC340747  33.460  24.394  12.382 -0.4092  0.2089  0.2850
 3473DOPC   PO440748  33.568  24.704  12.180 -0.1490 -0.0530  0.1303
 3473DOPC   GL140749  33.239  24.900  12.354  0.2759  0.0502 -0.1845
 3473DOPC   GL240750  33.063  25.173  12.523  0.2606 -0.1691  0.0589
 3473DOPC   C1A40751  32.907  24.710  12.673  0.2513  0.1217 -0.0688
 3473DOPC   D2A40752  32.755  24.326  12.871  0.3210  0.0385  0.1191
 3473DOPC   C3A40753  33.033  24.379  13.259  0.0445  0.1559  0.0176
 3473DOPC   C4A40754  33.073  24.786  13.472 -0.1829 -0.1458  0.3414
 3473DOPC   C1B40755  32.739  25.385  12.754 -0.3618  0.0484  0.2028
 3473DOPC   D2B40756  32.519  25.474  13.104 -0.2942  0.3094 -0.0116
 3473DOPC   C3B40757  32.491  25.633  13.537  0.2969 -0.1423  0.1491
 3473DOPC   C4B40758  32.531  26.004  13.858 -0.0284  0.0110 -0.0281
 3474DOPC   NC340759  24.676  31.052  12.452  0.0339 -0.0960  0.1357
 3474DOPC   PO440760  24.915  31.242  12.260 -0.0862 -0.0611 -0.2046
 3474DOPC   GL140761  24.997  31.306  12.602 -0.3686 -0.2789  0.0049
 3474DOPC   GL240762  24.779  31.483  12.707  0.1013  0.2219 -0.0994
 3474DOPC   C1A40763  25.368  31.580  12.702  0.1511 -0.0548  0.0949
 3474DOPC   D2A40764  25.705  31.849  12.906 -0.0657 -0.1674  0.0121
 3474DOPC   C3A40765  25.675  32.132  13.281  0.0660 -0.0419  0.0897
 3474DOPC   C4A40766  25.634  32.120  13.741  0.1532 -0.4235  0.2301
 3474DOPC   C1B40767  24.981  31.596  13.078  0.0458  0.2317 -0.3196
 3474DOPC   D2B40768  25.222  31.417  13.454  0.0813 -0.0405 -0.3193
 3474DOPC   C3B40769  25.644  31.567  13.387 -0.0205  0.3455  0.1354
 3474DOPC   C4B40770  25.969  31.746  13.573  0.2703  0.0438  0.0182
 3475DOPE   NH340771  23.153  30.769  12.580  0.4102 -0.3642 -0.0142
 3475DOPE   PO440772  23.177  31.073  12.674  0.0219 -0.2342  0.2377
 3475DOPE   GL140773  23.320  31.378  12.929  0.0796  0.1057 -0.0828
 3475DOPE   GL240774  23.401  31.628  12.806  0.1786 -0.6216 -0.0926
 3475DOPE   C1A40775  22.950  31.665  13.071 -0.0543 -0.0877  0.0044
 3475DOPE   D2A40776  22.903  31.999  13.404  0.2001  0.0928  0.0153
 3475DOPE   C3A40777  23.069  32.294  13.714 -0.1976  0.0810 -0.2257
 3475DOPE   C4A40778  23.030  32.471  14.140 -0.2741  0.0792  0.4241
 3475DOPE   C1B40779  23.429  31.629  13.273  0.0229  0.3298  0.0143
 3475DOPE   D2B40780  23.710  31.618  13.672 -0.0980  0.2913  0.2757
 3475DOPE   C3B40781  23.667  31.586  14.095 -0.0040  0.0162  0.0370
 3475DOPE   C4B40782  23.507  31.790  14.489  0.0076 -0.1922  0.1371
 3476DOPE   NH340783   0.331  33.424  12.405  0.2525  0.3349 -0.0949
 3476DOPE   PO440784   0.102  33.281  12.513  0.1019 -0.3168  0.0556
 3476DOPE   GL140785  -0.037  33.016  12.819  0.1285 -0.2101  0.1685
 3476DOPE   GL240786  -0.168  33.100  13.097  0.1419 -0.0917 -0.0416
 3476DOPE   C1A40787   0.200  32.704  13.089 -0.0622 -0.0558 -0.1296
 3476DOPE   D2A40788   0.086  32.448  13.452 -0.1088 -0.1436  0.2777
 3476DOPE   C3A40789   0.307  32.380  13.873  0.2905 -0.2707 -0.2894
 3476DOPE   C4A40790   0.447  32.072  14.245  0.1835 -0.2315 -0.4017
 3476DOPE   C1B40791  -0.309  32.756  13.346  0.0180 -0.3102  0.0097
 3476DOPE   D2B40792  -0.328  32.498  13.719 -0.0166 -0.0621  0.1632
 3476DOPE   C3B40793  -0.599  32.257  14.050 -0.0233  0.2995 -0.5159
 3476DOPE   C4B40794  -1.047  32.375  14.109 -0.1260  0.1920  0.1054
 3477DOPE   NH340795  30.361  29.370  12.886  0.0497  0.0424  0.2361
 3477DOPE   PO440796  30.173  29.589  13.067 -0.3437 -0.0815 -0.2363
 3477DOPE   GL140797  30.114  29.454  13.375 -0.0224 -0.1045  0.2136
 3477DOPE   GL240798  30.240  29.205  13.415 -0.2310 -0.2247  0.0481
 3477DOPE   C1A40799  29.830  29.372  13.726 -0.2301 -0.4173  0.1228
 3477DOPE   D2A40800  29.554  29.473  14.099 -0.0422 -0.1532  0.1339
 3477DOPE   C3A40801  29.514  29.157  14.483  0.1485 -0.1543  0.0929
 3477DOPE   C4A40802  29.370  29.059  14.906 -0.0964 -0.0224 -0.4199
 3477DOPE   C1B40803  30.101  28.968  13.784 -0.0296  0.2931 -0.0373
 3477DOPE   D2B40804  30.192  28.674  14.124  0.1996  0.0214 -0.0037
 3477DOPE   C3B40805  30.222  28.892  14.521 -0.3521  0.2218  0.3688
 3477DOPE   C4B40806  30.415  28.867  14.954  0.3502 -0.0333 -0.2827
 3478POSM   NC340807  23.771  31.938  12.572 -0.1960  0.2908  0.1640
 3478POSM   PO440808  24.148  31.862  12.596  0.1817  0.1349  0.1243
 3478POSM   AM140809  24.275  31.790  12.891 -0.1208  0.2543 -0.2249
 3478POSM   AM240810  24.355  31.571  13.064 -0.1193  0.3378  0.2758
 3478POSM   T1A40811  24.632  31.974  13.189 -0.1723  0.0876  0.0417
 3478POSM   C2A40812  24.773  32.131  13.637 -0.1410 -0.2647 -0.1528
 3478POSM   C3A40813  25.065  32.129  13.990 -0.0135 -0.0665  0.1039
 3478POSM   C1B40814  24.334  31.653  13.409 -0.2549 -0.0433  0.1493
 3478POSM   D2B40815  24.428  31.758  13.842  0.0806 -0.0803 -0.2296
 3478POSM   C3B40816  24.589  32.058  14.137 -0.0616 -0.2018  0.0086
 3478POSM   C4B40817  24.772  32.477  14.256 -0.1180  0.2227  0.0250
 3479DOPE   NH340818  26.785  30.824  12.949  0.1322 -0.5168 -0.0023
 3479DOPE   PO440819  27.054  30.966  13.009 -0.1607 -0.0190  0.1192
 3479DOPE   GL140820  27.448  30.959  13.143 -0.0099 -0.5150  0.1595
 3479DOPE   GL240821  27.355  30.777  13.402 -0.2500  0.4321 -0.0738
 3479DOPE   C1A40822  27.521  31.250  13.454  0.2297 -0.1260  0.2406
 3479DOPE   D2A40823  27.505  31.409  13.895 -0.0245  0.1413 -0.1287
 3479DOPE   C3A40824  27.884  31.273  14.204 -0.2294  0.0787  0.1883
 3479DOPE   C4A40825  28.327  31.168  14.459  0.0327 -0.0430 -0.1767
 3479DOPE   C1B40826  27.153  30.979  13.782 -0.3490  0.1085 -0.0052
 3479DOPE   D2B40827  26.853  31.250  13.974  0.0653 -0.2609  0.2954
 3479DOPE   C3B40828  26.667  31.388  14.382 -0.1607 -0.0939 -0.3895
 3479DOPE   C4B40829  26.557  31.135  14.816 -0.3137  0.1586  0.1967
 3480POSM   NC340830  31.514  30.234  13.060  0.2401  0.3073 -0.0448
 3480POSM   PO440831  31.139  30.344  13.043 -0.2125 -0.2703 -0.2549
 3480POSM   AM140832  31.170  30.488  13.357  0.1692 -0.0509 -0.2148
 3480POSM   AM240833  31.012  30.483  13.588  0.3772 -0.4078 -0.0951
 3480POSM   T1A40834  31.280  30.865  13.712 -0.0181 -0.0734 -0.0386
 3480POSM   C2A40835  31.123  31.200  13.986  0.0865  0.0577 -0.0483
 3480POSM   C3A40836  30.856  31.537  13.886 -0.1670 -0.0689  0.0624
 3480POSM   C1B40837  31.074  30.415  13.875 -0.1029  0.1043  0.4376
 3480POSM   D2B40838  31.230  30.615  14.208  0.0832  0.0944  0.2364
 3480POSM   C3B40839  31.064  30.626  14.638 -0.2657  0.1633  0.0839
 3480POSM   C4B40840  31.058  30.619  15.097  0.1718  0.1803 -0.0571
 3481POSM   NC340841  24.132  23.047  11.950 -0.1424 -0.0080  0.1703
 3481POSM   PO440842  23.768  22.948  12.066  0.0575  0.1362  0.0417
 3481POSM   AM140843  23.767  23.219  12.259  0.0251  0.3048  0.3082
 3481POSM   AM240844  23.572  23.340  12.436 -0.0152  0.0847 -0.1958
 3481POSM   T1A40845  23.879  23.706  12.293  0.0991  0.0619  0.0475
 3481POSM   C2A40846  24.056  24.035  12.062 -0.0414  0.4255 -0.0195
 3481POSM   C3A40847  24.005  24.159  11.635 -0.0612  0.0811 -0.0524
 3481POSM   C1B40848  23.540  23.466  12.782 -0.0183  0.3478  0.2339
 3481POSM   D2B40849  23.322  23.787  13.034  0.1010  0.3514  0.0278
 3481POSM   C3B40850  23.516  24.205  13.087  0.2094 -0.2184  0.0536
 3481POSM   C4B40851  23.913  24.424  12.919  0.0377 -0.0063 -0.1043
 3482DOPC   NC340852   0.137  32.873  12.235 -0.0484  0.2405  0.0127
 3482DOPC   PO440853  -0.207  33.092  12.154 -0.3066 -0.0644  0.4988
 3482DOPC   GL140854  -0.352  33.011  12.502  0.2879 -0.0918  0.3829
 3482DOPC   GL240855  -0.608  32.914  12.554 -0.1254 -0.0093 -0.2213
 3482DOPC   C1A40856  -0.570  33.267  12.869  0.2546 -0.1470 -0.0445
 3482DOPC   D2A40857  -0.479  33.571  13.213  0.1571 -0.1009 -0.0271
 3482DOPC   C3A40858  -0.429  33.196  13.546 -0.2002  0.0520 -0.0351
 3482DOPC   C4A40859  -0.755  32.960  13.706  0.0209 -0.0359 -0.3442
 3482DOPC   C1B40860  -1.071  32.709  12.509  0.0523 -0.2044  0.0528
 3482DOPC   D2B40861  -1.388  32.430  12.722 -0.0496  0.0836 -0.0918
 3482DOPC   C3B40862  -1.726  32.729  12.801 -0.1788 -0.0816 -0.3480
 3482DOPC   C4B40863  -1.797  32.982  13.170 -0.0345 -0.2870  0.0378
 3483DOPC   NC340864  30.197  31.787  13.149 -0.0237  0.0636  0.2890
 3483DOPC   PO440865  30.280  31.696  12.763 -0.1586 -0.0322 -0.3034
 3483DOPC   GL140866  30.589  31.899  12.810  0.3043 -0.3532 -0.1908
 3483DOPC   GL240867  30.530  32.139  13.056 -0.0075 -0.1833  0.0562
 3483DOPC   C1A40868  30.939  31.895  13.148  0.1342  0.0107  0.0076
 3483DOPC   D2A40869  31.149  31.815  13.553 -0.0732  0.2552  0.1875
 3483DOPC   C3A40870  31.455  32.134  13.758 -0.0633 -0.1702  0.0325
 3483DOPC   C4A40871  31.773  32.443  13.991 -0.1028 -0.0341  0.0868
 3483DOPC   C1B40872  30.754  32.405  12.757 -0.0057 -0.1137 -0.2252
 3483DOPC   D2B40873  31.132  32.574  12.833  0.1812  0.1940  0.3404
 3483DOPC   C3B40874  31.567  32.725  12.972  0.3811  0.1960 -0.2517
 3483DOPC   C4B40875  31.947  33.035  12.823 -0.2837  0.0099 -0.0740
 3484DOPC   NC340876  26.660  29.037  12.801 -0.0286 -0.0113 -0.3075
 3484DOPC   PO440877  26.661  28.652  12.907 -0.1019  0.0410  0.1330
 3484DOPC   GL140878  26.946  28.822  13.123 -0.1141 -0.2488  0.2506
 3484DOPC   GL240879  27.211  28.993  12.974  0.1277 -0.1605  0.1362
 3484DOPC   C1A40880  27.271  28.759  13.446 -0.0851 -0.1404  0.0478
 3484DOPC   D2A40881  27.333  28.723  13.878 -0.0518 -0.1248 -0.0551
 3484DOPC   C3A40882  27.611  28.392  14.058 -0.2091  0.2621 -0.1746
 3484DOPC   C4A40883  27.850  28.006  13.824 -0.4141 -0.0833  0.0776
 3484DOPC   C1B40884  27.624  29.048  13.184  0.3135  0.3526  0.2448
 3484DOPC   D2B40885  27.936  28.777  13.060  0.1580  0.4590 -0.0067
 3484DOPC   C3B40886  28.146  28.389  13.284  0.1019  0.0571 -0.3546
 3484DOPC   C4B40887  28.549  28.148  13.276  0.1877 -0.0374  0.1102
 3485DOPE   NH340888  30.374  24.965  12.763  0.0703 -0.1912 -0.1264
 3485DOPE   PO440889  30.455  24.721  13.020  0.1644 -0.0939 -0.2117
 3485DOPE   GL140890  30.370  24.434  13.295 -0.1225 -0.3005  0.3679
 3485DOPE   GL240891  30.275  24.185  13.372 -0.0905  0.1197 -0.0337
 3485DOPE   C1A40892  30.359  24.503  13.730  0.3903 -0.3717  0.1249
 3485DOPE   D2A40893  30.172  24.253  14.122  0.0419  0.0133  0.0923
 3485DOPE   C3A40894  29.992  23.822  14.084 -0.5094  0.3131  0.1992
 3485DOPE   C4A40895  29.850  23.391  14.063  0.0341  0.0148 -0.4150
 3485DOPE   C1B40896  29.944  24.192  13.692 -0.3193  0.3846  0.2695
 3485DOPE   D2B40897  29.630  24.117  13.990  0.0244  0.1172 -0.3030
 3485DOPE   C3B40898  29.463  23.712  14.020  0.2745  0.1932 -0.1471
 3485DOPE   C4B40899  29.316  23.292  14.106 -0.1666 -0.0946 -0.2429
 3486POSM   NC340900  29.859  23.774  12.663  0.2839 -0.2078 -0.0562
 3486POSM   PO440901  30.139  23.526  12.540 -0.1428  0.2138 -0.0261
 3486POSM   AM140902  29.867  23.364  12.645  0.0454 -0.0121  0.2901
 3486POSM   AM240903  29.738  23.278  12.941  0.2679 -0.2997  0.4237
 3486POSM   T1A40904  29.365  23.197  12.633  0.0724  0.3424  0.2015
 3486POSM   C2A40905  29.185  22.944  12.974 -0.0866  0.0506  0.2471
 3486POSM   C3A40906  29.436  22.827  13.309  0.0293  0.2721  0.0159
 3486POSM   C1B40907  29.682  23.345  13.233  0.3160  0.1781  0.0104
 3486POSM   D2B40908  29.607  23.232  13.660 -0.1733 -0.0242 -0.2255
 3486POSM   C3B40909  29.584  22.748  13.806 -0.3966 -0.0598 -0.0377
 3486POSM   C4B40910  29.717  22.360  13.606 -0.0179 -0.3727  0.1405
 3487DOPE   NH340911  24.122  32.318  12.169  0.5459 -0.0365  0.0136
 3487DOPE   PO440912  23.869  32.346  12.382  0.0541  0.0426 -0.2808
 3487DOPE   GL140913  23.827  32.345  12.816 -0.3605  0.1938 -0.1777
 3487DOPE   GL240914  24.028  32.265  12.985 -0.1681 -0.0342  0.0779
 3487DOPE   C1A40915  23.675  32.455  13.264  0.3860  0.1481 -0.0446
 3487DOPE   D2A40916  23.456  32.629  13.627 -0.0596 -0.0634 -0.0336
 3487DOPE   C3A40917  23.708  32.996  13.849  0.0344 -0.0005  0.0807
 3487DOPE   C4A40918  24.152  33.186  13.829 -0.1167 -0.0890 -0.1239
 3487DOPE   C1B40919  24.245  32.464  13.317 -0.1105 -0.1643 -0.0969
 3487DOPE   D2B40920  23.988  32.624  13.659 -0.0337 -0.1315  0.1826
 3487DOPE   C3B40921  24.118  32.785  14.097  0.3603 -0.4234  0.1061
 3487DOPE   C4B40922  23.959  32.760  14.527  0.1028  0.0258 -0.3748
 3488DOPC   NC340923  31.495  23.898  12.834  0.0655  0.2214 -0.1263
 3488DOPC   PO440924  31.729  23.730  12.488  0.2117 -0.2294  0.0453
 3488DOPC   GL140925  31.911  23.554  12.784  0.0424 -0.1100 -0.2043
 3488DOPC   GL240926  32.184  23.618  12.745  0.1515 -0.0144 -0.3107
 3488DOPC   C1A40927  31.976  23.647  13.253 -0.0300 -0.0316  0.1388
 3488DOPC   D2A40928  32.240  23.532  13.605 -0.1791  0.0934 -0.4292
 3488DOPC   C3A40929  32.153  23.071  13.710  0.0650  0.1262  0.0350
 3488DOPC   C4A40930  32.082  22.629  13.643 -0.1024 -0.1245  0.4235
 3488DOPC   C1B40931  32.450  23.927  13.036 -0.1952  0.0369  0.1886
 3488DOPC   D2B40932  32.416  24.084  13.435 -0.1132  0.0367 -0.2185
 3488DOPC   C3B40933  32.437  23.916  13.835 -0.0368  0.0894 -0.0376
 3488DOPC   C4B40934  32.841  23.789  14.074  0.0871 -0.1721 -0.0025
 3489POSM   NC340935  31.232  23.637  12.395 -0.2688  0.2740  0.2035
 3489POSM   PO440936  30.987  23.792  12.694 -0.2017  0.2643  0.4824
 3489POSM   AM140937  30.867  23.802  12.983 -0.0967  0.1362  0.0854
 3489POSM   AM240938  30.616  23.711  13.102 -0.2004 -0.1494 -0.0432
 3489POSM   T1A40939  31.095  23.768  13.395  0.1316  0.1489  0.0269
 3489POSM   C2A40940  31.227  23.371  13.659  0.5501  0.1793  0.1688
 3489POSM   C3A40941  31.247  23.022  14.024 -0.0351 -0.0010 -0.5188
 3489POSM   C1B40942  30.534  23.750  13.463  0.0000  0.1692  0.0212
 3489POSM   D2B40943  30.444  23.924  13.847 -0.0465  0.2305 -0.1851
 3489POSM   C3B40944  30.698  23.723  14.126  0.2178  0.1278  0.0851
 3489POSM   C4B40945  30.874  23.273  14.176  0.1615 -0.2992 -0.1554
 3490DOPE   NH340946  31.499  29.632  13.012  0.0119  0.1789  0.3825
 3490DOPE   PO440947  31.706  29.804  13.183  0.0563 -0.0594  0.2657
 3490DOPE   GL140948  31.648  29.822  13.508  0.1753 -0.0841 -0.0180
 3490DOPE   GL240949  31.471  29.638  13.569  0.0568 -0.0478  0.2311
 3490DOPE   C1A40950  31.931  29.650  13.786  0.0988 -0.0612 -0.1504
 3490DOPE   D2A40951  31.727  29.631  14.250 -0.1314  0.1445 -0.1594
 3490DOPE   C3A40952  31.601  29.597  14.677 -0.0732  0.0698  0.0583
 3490DOPE   C4A40953  31.523  29.773  15.035 -0.0867  0.2265 -0.1633
 3490DOPE   C1B40954  31.536  29.306  13.866 -0.0268 -0.1231  0.1261
 3490DOPE   D2B40955  31.534  29.060  14.222  0.3069  0.0261 -0.4224
 3490DOPE   C3B40956  31.395  29.106  14.683 -0.1903 -0.0513  0.1207
 3490DOPE   C4B40957  31.286  29.320  15.133  0.0165  0.1160 -0.0709
 3491DOPE   NH340958  23.280  27.190  13.334 -0.4091  0.4750 -0.0140
 3491DOPE   PO440959  23.613  27.204  13.204  0.0363 -0.1788 -0.1207
 3491DOPE   GL140960  23.648  27.568  13.256  0.0717  0.0628 -0.3952
 3491DOPE   GL240961  23.500  27.805  13.100  0.1848  0.2079 -0.1353
 3491DOPE   C1A40962  23.458  27.738  13.661  0.6867 -0.2684  0.0877
 3491DOPE   D2A40963  23.679  28.062  13.922  0.0531 -0.0495  0.3190
 3491DOPE   C3A40964  23.629  28.507  13.838  0.0094  0.2767  0.1983
 3491DOPE   C4A40965  23.402  28.909  13.804 -0.2300  0.1461 -0.5008
 3491DOPE   C1B40966  23.360  28.219  12.878  0.1164 -0.1439 -0.0195
 3491DOPE   D2B40967  23.057  28.577  12.786  0.0965  0.0037  0.1552
 3491DOPE   C3B40968  23.222  28.958  13.015  0.0264  0.1547 -0.1754
 3491DOPE   C4B40969  23.547  29.317  12.900 -0.0278 -0.0980 -0.1556
 3492DOPC   NC340970  27.855  30.230  12.876 -0.2204  0.0803 -0.3209
 3492DOPC   PO440971  27.592  30.495  12.983  0.2338 -0.0543  0.0563
 3492DOPC   GL140972  27.741  30.421  13.317  0.2583  0.1742  0.1945
 3492DOPC   GL240973  27.804  30.124  13.449  0.2866  0.1584  0.0207
 3492DOPC   C1A40974  27.570  30.460  13.717 -0.2073 -0.1189  0.0557
 3492DOPC   D2A40975  27.300  30.584  14.050 -0.1776 -0.1986 -0.2060
 3492DOPC   C3A40976  27.348  30.465  14.484  0.1965 -0.1985 -0.0499
 3492DOPC   C4A40977  27.101  30.533  14.859  0.2057 -0.2742 -0.0350
 3492DOPC   C1B40978  27.952  30.117  13.876  0.0199  0.0172  0.1704
 3492DOPC   D2B40979  28.333  29.974  14.128  0.3227 -0.0696  0.1010
 3492DOPC   C3B40980  28.065  29.784  14.477  0.0702 -0.1094  0.0914
 3492DOPC   C4B40981  28.087  29.810  14.918 -0.1896  0.5018  0.1553
 3493DOPE   NH340982  24.192  31.122  12.663  0.0383 -0.0561  0.0625
 3493DOPE   PO440983  24.450  31.082  12.849 -0.1074 -0.0683  0.2654
 3493DOPE   GL140984  24.401  31.159  13.208  0.1301 -0.3706  0.1717
 3493DOPE   GL240985  24.681  31.250  13.336 -0.2522 -0.0879 -0.0714
 3493DOPE   C1A40986  24.432  30.856  13.548  0.1693 -0.3414  0.2213
 3493DOPE   D2A40987  24.602  30.874  13.952 -0.1138  0.0626  0.1056
 3493DOPE   C3A40988  24.915  31.044  14.225  0.0946 -0.3189  0.0934
 3493DOPE   C4A40989  25.165  31.441  14.187  0.0406 -0.0031  0.0571
 3493DOPE   C1B40990  24.776  31.353  13.795 -0.1486  0.0054  0.0840
 3493DOPE   D2B40991  24.689  31.528  14.223 -0.1620 -0.0679  0.1921
 3493DOPE   C3B40992  24.522  31.154  14.427 -0.0777  0.2492  0.0920
 3493DOPE   C4B40993  24.247  30.867  14.679  0.0109 -0.0957 -0.3671
 3494POSM   NC340994  31.504  29.080  13.378 -0.2767  0.2448  0.0489
 3494POSM   PO440995  31.200  28.847  13.255  0.2713  0.3516 -0.1998
 3494POSM   AM140996  31.087  28.857  13.543  0.0554 -0.0556  0.1825
 3494POSM   AM240997  30.988  28.644  13.701  0.1265  0.2274 -0.2357
 3494POSM   T1A40998  31.041  29.012  14.004 -0.1760 -0.1303 -0.1646
 3494POSM   C2A40999  30.973  29.137  14.468 -0.2353  0.1310  0.1988
 3494POSM   C3A41000  30.872  29.121  14.904  0.1644 -0.1628 -0.1401
 3494POSM   C1B41001  31.130  28.529  13.982  0.1165  0.3533  0.2357
 3494POSM   D2B41002  31.231  28.657  14.413  0.0452  0.1857 -0.2428
 3494POSM   C3B41003  31.124  28.632  14.912 -0.0433 -0.0709  0.1982
 3494POSM   C4B41004  31.217  28.287  15.196  0.2410 -0.3884 -0.0148
 3495DOPC   NC341005  31.388  30.861  13.144  0.1541  0.0887 -0.2306
 3495DOPC   PO441006  31.665  30.652  13.271 -0.2077  0.2010 -0.0155
 3495DOPC   GL141007  31.991  30.811  13.379  0.0168 -0.2532 -0.1984
 3495DOPC   GL241008  31.858  30.985  13.563 -0.0232  0.0354 -0.1289
 3495DOPC   C1A41009  32.184  31.169  13.189  0.1257  0.0157  0.0804
 3495DOPC   D2A41010  32.453  31.440  13.404  0.1859  0.0769 -0.1287
 3495DOPC   C3A41011  32.259  31.817  13.542 -0.1153  0.1945  0.0086
 3495DOPC   C4A41012  32.381  31.985  14.039  0.2793  0.0170 -0.2060
 3495DOPC   C1B41013  31.904  31.409  13.514  0.0408  0.2765  0.0285
 3495DOPC   D2B41014  31.789  31.854  13.444 -0.1352  0.2540  0.2684
 3495DOPC   C3B41015  32.088  32.248  13.689 -0.0546  0.2840  0.1105
 3495DOPC   C4B41016  32.270  32.626  13.931  0.2160  0.0811 -0.3102
 3496POSM   NC341017  31.025   0.168  12.443 -0.1967  0.3761 -0.1127
 3496POSM   PO441018  31.005  -0.204  12.511 -0.0772 -0.0090  0.2578
 3496POSM   AM141019  30.890  -0.348  12.741 -0.3513  0.0869  0.0929
 3496POSM   AM241020  30.860  -0.324  13.024 -0.1084 -0.0290  0.0465
 3496POSM   T1A41021  30.481  -0.600  12.865 -0.0690  0.1649 -0.2252
 3496POSM   C2A41022  30.156  -0.960  13.056 -0.2548  0.1042 -0.0384
 3496POSM   C3A41023  29.868  -1.150  13.314  0.1649  0.0284 -0.1597
 3496POSM   C1B41024  30.971  -0.416  13.365 -0.2289 -0.0539 -0.0220
 3496POSM   D2B41025  30.954  -0.345  13.851  0.1397  0.2078 -0.0326
 3496POSM   C3B41026  31.090  -0.665  14.169  0.2101 -0.0591  0.0681
 3496POSM   C4B41027  30.939  -1.005  14.422 -0.0946 -0.0635  0.0390
 3497DOPE   NH341028  29.487  24.509  12.375  0.0602  0.0456 -0.1656
 3497DOPE   PO441029  29.590  24.293  12.615 -0.1914 -0.1711  0.1909
 3497DOPE   GL141030  29.464  24.040  12.774  0.2365  0.2128  0.0168
 3497DOPE   GL241031  29.225  23.936  12.598 -0.2182  0.1595  0.1428
 3497DOPE   C1A41032  29.376  23.738  13.071 -0.1168  0.1216 -0.0198
 3497DOPE   D2A41033  29.162  23.423  13.345 -0.1118  0.1321  0.1483
 3497DOPE   C3A41034  28.909  23.489  13.740  0.0942  0.1824  0.3161
 3497DOPE   C4A41035  28.856  23.700  14.182 -0.1413  0.5035  0.2297
 3497DOPE   C1B41036  28.836  23.767  12.777  0.1345 -0.0677 -0.2933
 3497DOPE   D2B41037  28.824  23.317  12.985 -0.2930  0.0547  0.3964
 3497DOPE   C3B41038  28.654  23.188  13.374 -0.0526  0.0280 -0.0931
 3497DOPE   C4B41039  28.565  22.979  13.746  0.0530  0.0193 -0.0146
 3498DOPC   NC341040  30.727  28.972  12.971  0.4128  0.1763  0.2925
 3498DOPC   PO441041  30.983  28.669  12.846  0.0102 -0.0128 -0.0901
 3498DOPC   GL141042  31.241  28.312  12.741 -0.0036 -0.0657  0.3135
 3498DOPC   GL241043  31.285  28.282  13.012 -0.2560 -0.1497 -0.0187
 3498DOPC   C1A41044  31.403  27.862  12.787  0.3215  0.1221 -0.1016
 3498DOPC   D2A41045  31.289  27.440  12.691  0.0061  0.1943  0.3857
 3498DOPC   C3A41046  31.784  27.324  12.667 -0.1046  0.1272 -0.1860
 3498DOPC   C4A41047  32.012  27.160  12.283 -0.0160 -0.2040 -0.2224
 3498DOPC   C1B41048  31.679  28.051  13.125 -0.1578  0.2520 -0.1374
 3498DOPC   D2B41049  31.865  27.728  13.400  0.0302  0.1480 -0.0388
 3498DOPC   C3B41050  31.972  27.705  13.860 -0.0557 -0.0674 -0.0830
 3498DOPC   C4B41051  32.032  28.083  14.190 -0.2368  0.3071  0.4242
 3499DOPE   NH341052  34.177  23.647  12.651 -0.1038  0.4111 -0.1450
 3499DOPE   PO441053  34.328  23.364  12.715 -0.1233 -0.0700 -0.3234
 3499DOPE   GL141054  34.593  23.634  12.960  0.1082  0.2860  0.4027
 3499DOPE   GL241055  34.828  23.432  12.933 -0.0788 -0.0980  0.2164
 3499DOPE   C1A41056  34.937  23.909  13.120 -0.1305  0.1292  0.1408
 3499DOPE   D2A41057  34.991  24.256  13.385 -0.2802 -0.4828 -0.0143
 3499DOPE   C3A41058  34.905  24.167  13.837  0.1110  0.1362  0.0016
 3499DOPE   C4A41059  35.016  24.240  14.314  0.0022 -0.0670  0.2183
 3499DOPE   C1B41060  34.782  23.459  13.399 -0.3942  0.1590 -0.1352
 3499DOPE   D2B41061  34.913  23.661  13.765 -0.0872 -0.1251 -0.0998
 3499DOPE   C3B41062  34.927  23.366  14.097 -0.1208  0.1704  0.0524
 3499DOPE   C4B41063  35.050  23.334  14.595  0.3324  0.0473  0.4387
 3500POSM   NC341064  24.584  28.129  12.225  0.1192 -0.0884  0.1815
 3500POSM   PO441065  24.563  27.949  12.594  0.0170  0.0612 -0.3104
 3500POSM   AM141066  24.550  28.070  12.929 -0.0164  0.0343  0.0198
 3500POSM   AM241067  24.699  28.297  13.054 -0.1742  0.1791  0.1467
 3500POSM   T1A41068  24.630  27.963  13.442 -0.4193 -0.2716  0.2498
 3500POSM   C2A41069  24.715  27.721  13.864  0.4646 -0.0951 -0.0271
 3500POSM   C3A41070  24.809  27.413  14.123  0.2287  0.1071  0.1152
 3500POSM   C1B41071  24.821  28.426  13.314  0.2085 -0.1187  0.2172
 3500POSM   D2B41072  24.876  28.629  13.745  0.2407  0.2990  0.0263
 3500POSM   C3B41073  24.653  28.268  13.988  0.3559  0.0441 -0.0129
 3500POSM   C4B41074  24.824  28.021  14.343  0.2926  0.2782 -0.0437
 3501DOPC   NC341075  29.531  30.674  12.945 -0.3493  0.0364  0.1932
 3501DOPC   PO441076  29.821  30.444  12.882 -0.2620  0.1648  0.1098
 3501DOPC   GL141077  29.806  30.421  13.280 -0.1748  0.1437  0.0601
 3501DOPC   GL241078  29.663  30.184  13.422 -0.1485  0.3284  0.2206
 3501DOPC   C1A41079  29.541  30.705  13.596  0.0999  0.0560  0.1765
 3501DOPC   D2A41080  29.380  30.992  13.922  0.1062 -0.0420  0.1008
 3501DOPC   C3A41081  29.368  31.008  14.378 -0.0404  0.0884  0.0015
 3501DOPC   C4A41082  29.580  31.003  14.790  0.0620 -0.2943  0.1618
 3501DOPC   C1B41083  30.011  30.309  13.710  0.0009  0.1535  0.0562
 3501DOPC   D2B41084  30.233  30.472  14.055  0.2448 -0.0226 -0.0021
 3501DOPC   C3B41085  30.133  30.190  14.374  0.1124  0.0670  0.2977
 3501DOPC   C4B41086  29.976  30.095  14.743  0.1455 -0.1616  0.0073
 3502POSM   NC341087  31.192  25.561  12.827  0.0740  0.0287  0.0468
 3502POSM   PO441088  30.810  25.591  13.028 -0.0587 -0.1203 -0.0316
 3502POSM   AM141089  30.795  25.432  13.316 -0.1889 -0.1247  0.2789
 3502POSM   AM241090  30.710  25.508  13.579 -0.0306  0.0834 -0.0417
 3502POSM   T1A41091  30.998  25.041  13.597  0.1820  0.1351 -0.0041
 3502POSM   C2A41092  31.154  25.067  14.005  0.1512  0.1097  0.0731
 3502POSM   C3A41093  31.308  24.906  14.394  0.0111  0.1138  0.1837
 3502POSM   C1B41094  30.733  25.463  13.878 -0.0676  0.0798 -0.0212
 3502POSM   D2B41095  30.763  25.391  14.342  0.1726  0.0400 -0.1299
 3502POSM   C3B41096  30.779  24.933  14.339  0.0500  0.0152 -0.0044
 3502POSM   C4B41097  30.901  24.510  14.542  0.0390 -0.1992 -0.0616
 3503POSM   NC341098  24.371  30.278  12.367 -0.1217 -0.0581 -0.0549
 3503POSM   PO441099  24.233  30.663  12.455 -0.1609  0.1218  0.4124
 3503POSM   AM141100  24.159  30.632  12.765  0.0634  0.1874  0.0065
 3503POSM   AM241101  24.125  30.744  13.019  0.1778 -0.2120  0.1576
 3503POSM   T1A41102  24.006  30.311  13.110 -0.4494  0.0932  0.0475
 3503POSM   C2A41103  23.882  29.915  13.319 -0.2693 -0.2652 -0.0714
 3503POSM   C3A41104  23.703  29.564  13.539 -0.1919 -0.0000  0.0657
 3503POSM   C1B41105  23.994  30.824  13.275  0.1408  0.1088  0.0141
 3503POSM   D2B41106  23.833  30.991  13.713 -0.2300 -0.1900 -0.1392
 3503POSM   C3B41107  24.131  30.869  14.009  0.3696  0.2154  0.2028
 3503POSM   C4B41108  24.362  30.543  14.222  0.1472 -0.1247 -0.0131
 3504DOPC   NC341109  29.480  25.706  13.025  0.1011  0.0677 -0.1600
 3504DOPC   PO441110  29.222  25.860  12.825  0.1736 -0.0306 -0.1984
 3504DOPC   GL141111  28.763  25.870  12.992 -0.1336 -0.0911  0.2491
 3504DOPC   GL241112  28.893  25.582  13.067  0.1329  0.0499 -0.0570
 3504DOPC   C1A41113  28.375  25.704  13.108  0.0417 -0.2682 -0.0546
 3504DOPC   D2A41114  28.126  25.576  13.511  0.1464  0.2783  0.2185
 3504DOPC   C3A41115  28.434  25.246  13.626  0.4896 -0.0813  0.0681
 3504DOPC   C4A41116  28.862  25.110  13.788 -0.0761 -0.0786  0.0809
 3504DOPC   C1B41117  28.739  25.633  13.493  0.1143  0.1224 -0.0777
 3504DOPC   D2B41118  28.732  25.672  13.934  0.2182  0.1015  0.2120
 3504DOPC   C3B41119  28.997  25.297  14.227 -0.0768  0.0905  0.2157
 3504DOPC   C4B41120  29.246  25.034  14.469  0.0285 -0.1011  0.0995
 3505DOPE   NH341121  26.344  24.491  12.607 -0.3717 -0.1562 -0.1281
 3505DOPE   PO441122  26.602  24.348  12.734  0.0267  0.0218 -0.1254
 3505DOPE   GL141123  26.408  24.328  13.112 -0.0436 -0.0205 -0.1276
 3505DOPE   GL241124  26.426  24.659  13.184  0.2093  0.1652  0.2349
 3505DOPE   C1A41125  26.734  24.265  13.458  0.0009 -0.3702  0.0772
 3505DOPE   D2A41126  27.077  24.560  13.611  0.2357 -0.0390 -0.0915
 3505DOPE   C3A41127  27.541  24.518  13.692  0.1967  0.1215 -0.3682
 3505DOPE   C4A41128  27.876  24.704  13.901 -0.0571 -0.0935 -0.2966
 3505DOPE   C1B41129  26.647  25.005  13.423 -0.0700  0.0329 -0.1875
 3505DOPE   D2B41130  26.540  25.392  13.707 -0.3336 -0.1554  0.1198
 3505DOPE   C3B41131  26.608  25.858  13.726 -0.0056 -0.4718  0.1945
 3505DOPE   C4B41132  26.401  26.254  13.880 -0.2201 -0.3156  0.0167
 3506POSM   NC341133  26.824   0.237  12.814  0.2051  0.0253 -0.0317
 3506POSM   PO441134  26.644   0.496  13.041 -0.3074  0.0050 -0.4220
 3506POSM   AM141135  26.472   0.569  13.310 -0.0761 -0.1146  0.1034
 3506POSM   AM241136  26.254   0.397  13.412  0.0912 -0.0298  0.0626
 3506POSM   T1A41137  26.701   0.488  13.808 -0.1620  0.0533 -0.1634
 3506POSM   C2A41138  27.114   0.461  13.957 -0.0290 -0.4031  0.1200
 3506POSM   C3A41139  27.547   0.548  13.804  0.0820  0.2123  0.0107
 3506POSM   C1B41140  25.961   0.363  13.563  0.0480 -0.1144 -0.0262
 3506POSM   D2B41141  25.604   0.340  13.760 -0.2657 -0.1717  0.2194
 3506POSM   C3B41142  25.209   0.578  13.704 -0.0529 -0.0718  0.0951
 3506POSM   C4B41143  24.788   0.632  13.610 -0.3034 -0.6306  0.2032
 3507POSM   NC341144  26.007  25.397  12.412  0.0095  0.1189 -0.1488
 3507POSM   PO441145  26.424  25.472  12.472  0.0558  0.0402  0.1338
 3507POSM   AM141146  26.519  25.487  12.815 -0.1574 -0.2564 -0.1685
 3507POSM   AM241147  26.401  25.383  13.041  0.3328 -0.0793 -0.1011
 3507POSM   T1A41148  26.819  25.494  13.251 -0.0826 -0.3439 -0.0401
 3507POSM   C2A41149  27.079  25.739  13.554  0.0709 -0.0910 -0.0506
 3507POSM   C3A41150  27.488  26.006  13.621  0.0234 -0.2204 -0.1429
 3507POSM   C1B41151  26.365  25.698  13.255  0.2869  0.2057  0.1624
 3507POSM   D2B41152  26.006  25.847  13.542 -0.2482 -0.0230  0.0037
 3507POSM   C3B41153  26.002  26.317  13.456  0.1928  0.1457  0.0060
 3507POSM   C4B41154  26.107  26.753  13.479  0.1037 -0.0129 -0.1896
 3508DOPS   CNO41155  30.721  30.257  12.791  0.4075 -0.2219 -0.3038
 3508DOPS   PO441156  30.539  29.959  12.930 -0.2086  0.1446  0.1544
 3508DOPS   GL141157  30.478  29.766  13.352  0.2115  0.0491 -0.6025
 3508DOPS   GL241158  30.575  29.656  13.639  0.0718  0.0808 -0.1109
 3508DOPS   C1A41159  30.163  29.822  13.725  0.2569 -0.0028 -0.0499
 3508DOPS   D2A41160  29.955  29.743  14.158 -0.0025  0.0807 -0.0458
 3508DOPS   C3A41161  30.219  29.669  14.520 -0.1563  0.2529  0.1253
 3508DOPS   C4A41162  30.488  29.390  14.708 -0.1801  0.0193 -0.3772
 3508DOPS   C1B41163  30.238  29.399  13.956  0.0049 -0.0198 -0.3554
 3508DOPS   D2B41164  29.969  29.154  14.232 -0.1592  0.3462  0.1313
 3508DOPS   C3B41165  29.696  28.801  14.184 -0.1779  0.3402 -0.0541
 3508DOPS   C4B41166  29.323  28.539  14.348  0.1092 -0.0740  0.0844
 3509DOPC   NC341167  26.651  32.718  12.425 -0.3519 -0.0135 -0.1015
 3509DOPC   PO441168  26.424  32.828  12.769 -0.3794  0.4102 -0.0631
 3509DOPC   GL141169  26.093  32.771  12.971 -0.1940  0.0768  0.1121
 3509DOPC   GL241170  25.893  32.537  12.909 -0.1220 -0.1865 -0.1862
 3509DOPC   C1A41171  25.868  32.669  13.384 -0.3384  0.1167  0.2218
 3509DOPC   D2A41172  25.551  32.826  13.656 -0.0212  0.1272 -0.1891
 3509DOPC   C3A41173  25.366  33.187  13.900  0.2097 -0.0533 -0.4287
 3509DOPC   C4A41174  25.333  33.605  14.036  0.2503 -0.1219  0.0182
 3509DOPC   C1B41175  25.446  32.569  13.097 -0.0600 -0.0006  0.0502
 3509DOPC   D2B41176  25.258  32.388  13.440  0.0090 -0.0019  0.1170
 3509DOPC   C3B41177  25.020  32.706  13.721  0.1192  0.0436  0.0255
 3509DOPC   C4B41178  25.021  32.879  14.203  0.0544 -0.1252 -0.1191
 3510POSM   NC341179  22.819  30.224  11.965 -0.0846  0.2029  0.1377
 3510POSM   PO441180  22.851  29.868  12.123  0.0697  0.4164 -0.0766
 3510POSM   AM141181  23.057  29.741  12.372  0.2123  0.2709 -0.0022
 3510POSM   AM241182  23.024  29.587  12.610 -0.1003 -0.1300 -0.0466
 3510POSM   T1A41183  23.502  29.590  12.474 -0.0172  0.1036  0.1304
 3510POSM   C2A41184  23.876  29.293  12.503  0.1771  0.2852  0.0482
 3510POSM   C3A41185  23.961  28.871  12.495  0.1224 -0.0000 -0.0018
 3510POSM   C1B41186  23.133  29.517  12.962  0.4586 -0.1370 -0.0779
 3510POSM   D2B41187  23.241  29.320  13.413  0.0469 -0.1806 -0.0237
 3510POSM   C3B41188  23.629  29.049  13.425  0.0370  0.1620 -0.0430
 3510POSM   C4B41189  23.894  28.644  13.357  0.2672 -0.0855  0.2164
 3511DOPE   NH341190  29.575  26.707  12.663 -0.1047  0.0955  0.0758
 3511DOPE   PO441191  29.448  26.811  12.943  0.0296  0.0327  0.0262
 3511DOPE   GL141192  29.272  26.853  13.396 -0.1850  0.1045 -0.1059
 3511DOPE   GL241193  29.144  26.620  13.271  0.0953 -0.0025  0.1103
 3511DOPE   C1A41194  28.971  27.269  13.547  0.2622  0.0436  0.1607
 3511DOPE   D2A41195  28.740  27.425  13.895 -0.2632  0.2204  0.2802
 3511DOPE   C3A41196  28.985  27.476  14.273  0.0438  0.0159  0.2275
 3511DOPE   C4A41197  29.362  27.265  14.448  0.2584 -0.1867  0.1492
 3511DOPE   C1B41198  28.775  26.820  13.494  0.1226  0.0515  0.1585
 3511DOPE   D2B41199  28.680  26.901  13.960  0.0747  0.3676  0.3360
 3511DOPE   C3B41200  29.069  26.959  14.239  0.1034  0.0704 -0.1474
 3511DOPE   C4B41201  29.172  26.891  14.658 -0.1309  0.0996  0.1572
 3512POSM   NC341202  23.772  31.101  12.874  0.2001  0.2521 -0.0080
 3512POSM   PO441203  23.796  31.400  12.580  0.1963  0.2028 -0.1070
 3512POSM   AM141204  23.910  31.511  12.879 -0.2189  0.0040  0.1483
 3512POSM   AM241205  23.856  31.729  13.026  0.0955 -0.3852  0.2215
 3512POSM   T1A41206  23.876  31.331  13.349  0.0420  0.3239  0.1265
 3512POSM   C2A41207  24.210  31.291  13.659  0.1489  0.0297 -0.0802
 3512POSM   C3A41208  24.154  31.419  14.168 -0.1924  0.2731  0.1666
 3512POSM   C1B41209  23.953  31.909  13.292  0.3479  0.2050  0.0752
 3512POSM   D2B41210  24.170  32.102  13.646  0.1374 -0.1519  0.0437
 3512POSM   C3B41211  24.070  32.211  14.045  0.0676 -0.1968  0.1841
 3512POSM   C4B41212  23.901  32.019  14.417 -0.1621  0.0944 -0.0229
 3513POSM   NC341213  26.584  31.401  13.016  0.0550 -0.0109 -0.0498
 3513POSM   PO441214  26.383  31.092  12.889  0.0514  0.0715  0.1088
 3513POSM   AM141215  26.370  30.915  13.176 -0.1659  0.1654 -0.2632
 3513POSM   AM241216  26.459  31.068  13.460 -0.0757  0.2066  0.0015
 3513POSM   T1A41217  26.386  30.451  13.346 -0.0437  0.0273  0.2889
 3513POSM   C2A41218  26.410  30.171  13.763 -0.2048 -0.0668  0.0436
 3513POSM   C3A41219  26.541  30.013  14.170 -0.1393 -0.0123 -0.0423
 3513POSM   C1B41220  26.615  30.924  13.724  0.3821  0.1146 -0.2841
 3513POSM   D2B41221  26.427  30.980  14.144 -0.0005 -0.0809  0.1506
 3513POSM   C3B41222  26.000  31.039  14.049 -0.1993 -0.0486 -0.2004
 3513POSM   C4B41223  25.693  31.366  13.930 -0.1074 -0.2405 -0.2524
 3514POSM   NC341224  25.431  29.652  12.780  0.1102  0.0827 -0.3839
 3514POSM   PO441225  25.416  29.979  12.575  0.2739  0.3010 -0.0344
 3514POSM   AM141226  25.379  30.080  12.889  0.2619 -0.1926  0.3370
 3514POSM   AM241227  25.189  30.238  13.032 -0.1714 -0.3311 -0.4344
 3514POSM   T1A41228  25.445  30.012  13.382 -0.0119 -0.0130  0.1601
 3514POSM   C2A41229  25.687  29.765  13.650  0.0992  0.0459 -0.0102
 3514POSM   C3A41230  25.956  29.905  14.007  0.1221  0.1659  0.0369
 3514POSM   C1B41231  25.024  30.493  13.239 -0.0671  0.2241  0.0267
 3514POSM   D2B41232  24.931  30.850  13.515  0.3156  0.0274 -0.1652
 3514POSM   C3B41233  25.197  30.858  13.879 -0.0287 -0.2068  0.2400
 3514POSM   C4B41234  25.354  30.571  14.203 -0.1007  0.0226  0.4106
 3515DOPS   CNO41235  31.924  29.543  11.906 -0.3029 -0.0499  0.0112
 3515DOPS   PO441236  31.821  29.231  12.146  0.0708 -0.0266  0.1495
 3515DOPS   GL141237  31.919  28.887  12.373  0.2722  0.0138  0.1445
 3515DOPS   GL241238  31.972  28.968  12.682 -0.1664  0.0657 -0.2087
 3515DOPS   C1A41239  32.018  28.410  12.237  0.7177  0.1156 -0.4175
 3515DOPS   D2A41240  32.257  28.033  12.029 -0.1358 -0.1177  0.1876
 3515DOPS   C3A41241  32.506  27.790  12.360  0.0043  0.0275 -0.0343
 3515DOPS   C4A41242  32.888  27.825  12.501  0.0078  0.0054  0.3012
 3515DOPS   C1B41243  32.136  28.556  12.813 -0.1285  0.1254 -0.1266
 3515DOPS   D2B41244  32.289  28.152  12.626  0.2491  0.0460  0.0540
 3515DOPS   C3B41245  32.205  27.893  13.035 -0.1439 -0.1188 -0.4428
 3515DOPS   C4B41246  32.363  27.976  13.505  0.0077 -0.0162 -0.0263
 3516POSM   NC341247  30.373  24.360  12.549  0.0838 -0.0927  0.1118
 3516POSM   PO441248  30.068  24.568  12.639  0.1131  0.1340 -0.0292
 3516POSM   AM141249  30.036  24.461  12.897  0.1875 -0.0571 -0.1272
 3516POSM   AM241250  29.879  24.244  13.021  0.5956  0.3372 -0.1086
 3516POSM   T1A41251  29.879  24.556  13.394 -0.1573  0.3120 -0.1298
 3516POSM   C2A41252  29.492  24.428  13.594 -0.2563 -0.0611  0.1266
 3516POSM   C3A41253  29.142  24.538  13.886  0.3271  0.0593  0.1983
 3516POSM   C1B41254  29.735  24.120  13.300  0.2581 -0.1019  0.0310
 3516POSM   D2B41255  29.530  23.814  13.565 -0.2378  0.4283 -0.1428
 3516POSM   C3B41256  29.166  23.993  13.774 -0.1991 -0.0554  0.0071
 3516POSM   C4B41257  29.168  24.103  14.251  0.0767  0.1401  0.0516
 3517DOPE   NH341258  34.117  26.650  12.618 -0.1620  0.0145  0.0089
 3517DOPE   PO441259  33.952  26.701  12.388  0.0023  0.1066  0.1765
 3517DOPE   GL141260  33.638  26.477  12.492  0.5706  0.2365 -0.1587
 3517DOPE   GL241261  33.537  26.575  12.711  0.3727  0.1015 -0.1885
 3517DOPE   C1A41262  33.223  26.257  12.525  0.1683  0.1740 -0.0662
 3517DOPE   D2A41263  32.969  25.987  12.755  0.1616 -0.2291 -0.1876
 3517DOPE   C3A41264  32.901  26.027  13.185 -0.0939 -0.1138  0.2289
 3517DOPE   C4A41265  32.963  25.937  13.617 -0.1786 -0.0784 -0.1064
 3517DOPE   C1B41266  33.401  26.930  13.030  0.1271  0.0116  0.1176
 3517DOPE   D2B41267  33.204  27.228  13.307  0.0045  0.3303  0.1943
 3517DOPE   C3B41268  33.503  27.603  13.397  0.1464 -0.0177  0.2643
 3517DOPE   C4B41269  33.493  27.878  13.805 -0.2036 -0.1856 -0.1617
 3518DOPE   NH341270  34.328  34.287  12.475 -0.0794  0.0098 -0.0598
 3518DOPE   PO441271  34.217  34.179  12.751  0.1195  0.1092 -0.1655
 3518DOPE   GL141272  34.011  33.957  12.911  0.2049 -0.0047 -0.0142
 3518DOPE   GL241273  33.982  33.717  12.720  0.0657 -0.3270  0.4000
 3518DOPE   C1A41274  33.970  33.964  13.449  0.0191 -0.2482  0.0234
 3518DOPE   D2A41275  33.827  33.973  13.867  0.2583 -0.1781  0.1398
 3518DOPE   C3A41276  33.806  33.706  14.240 -0.0808  0.0429  0.2575
 3518DOPE   C4A41277  33.711  33.706  14.623 -0.0840 -0.2567  0.0689
 3518DOPE   C1B41278  33.640  33.647  12.927  0.2423  0.0709 -0.0658
 3518DOPE   D2B41279  33.245  33.349  13.090 -0.1852  0.1148 -0.0591
 3518DOPE   C3B41280  33.289  33.213  13.505 -0.1305 -0.0882 -0.3833
 3518DOPE   C4B41281  33.309  33.005  13.875  0.0516 -0.3257 -0.0151
 3519DOPE   NH341282  28.627  31.015  12.769 -0.0709 -0.0966 -0.0386
 3519DOPE   PO441283  28.444  30.726  12.825 -0.2074 -0.0695  0.2690
 3519DOPE   GL141284  28.076  30.674  13.110  0.2939  0.1978 -0.1137
 3519DOPE   GL241285  28.167  30.424  13.269 -0.0676  0.0670  0.1085
 3519DOPE   C1A41286  27.848  30.866  13.413  0.1102  0.0188 -0.1397
 3519DOPE   D2A41287  27.667  30.909  13.895 -0.0704 -0.1786  0.0867
 3519DOPE   C3A41288  27.878  30.788  14.242  0.0273  0.1170 -0.0139
 3519DOPE   C4A41289  28.291  30.657  14.324  0.3712  0.2901 -0.1129
 3519DOPE   C1B41290  28.335  30.053  13.003 -0.1126 -0.2989  0.0992
 3519DOPE   D2B41291  28.374  29.618  12.765 -0.0132  0.1200 -0.3119
 3519DOPE   C3B41292  28.820  29.461  12.640 -0.1384 -0.0772 -0.1642
 3519DOPE   C4B41293  29.246  29.478  12.651 -0.0768  0.1172 -0.0885
 3520DOPE   NH341294  24.321  27.048  12.399  0.0784 -0.0206 -0.3021
 3520DOPE   PO441295  23.998  27.092  12.358 -0.3695 -0.0059 -0.3274
 3520DOPE   GL141296  23.968  26.626  12.394 -0.1201 -0.4067 -0.0223
 3520DOPE   GL241297  24.125  26.527  12.623 -0.2442  0.0898 -0.1602
 3520DOPE   C1A41298  24.142  26.298  12.155  0.0483  0.0059  0.0596
 3520DOPE   D2A41299  24.449  25.950  12.038 -0.0309 -0.1973 -0.2743
 3520DOPE   C3A41300  24.417  25.654  12.426 -0.0035 -0.3893 -0.0080
 3520DOPE   C4A41301  24.374  25.249  12.686  0.0020  0.1581  0.4548
 3520DOPE   C1B41302  24.063  26.065  12.608 -0.2972 -0.0912 -0.1240
 3520DOPE   D2B41303  23.954  25.597  12.589  0.3000  0.1002  0.3069
 3520DOPE   C3B41304  23.746  25.364  12.878  0.1562  0.0005 -0.0625
 3520DOPE   C4B41305  23.330  25.275  13.090 -0.1277 -0.2183  0.1428
 3521POSM   NC341306  24.084  27.111  13.261  0.0141 -0.1596  0.0822
 3521POSM   PO441307  24.231  27.022  12.914 -0.0419  0.1588  0.0151
 3521POSM   AM141308  24.243  26.703  13.057 -0.0215 -0.4054 -0.1468
 3521POSM   AM241309  24.136  26.584  13.295  0.0285 -0.1113 -0.2314
 3521POSM   T1A41310  24.206  26.202  13.061 -0.0222  0.1010 -0.3215
 3521POSM   C2A41311  24.207  25.709  13.025 -0.0341  0.1017 -0.3562
 3521POSM   C3A41312  24.290  25.318  13.301  0.1671 -0.2521 -0.0371
 3521POSM   C1B41313  24.394  26.526  13.501 -0.0738  0.1520  0.2893
 3521POSM   D2B41314  24.737  26.302  13.669  0.1709 -0.1563  0.0158
 3521POSM   C3B41315  24.911  25.903  13.570 -0.2345 -0.1093 -0.0215
 3521POSM   C4B41316  25.203  25.708  13.270  0.2403  0.2232  0.1725
 3522DOPC   NC341317   0.483  32.089  12.765  0.1149  0.2337 -0.0218
 3522DOPC   PO441318   0.358  31.788  12.538 -0.1659  0.2251 -0.3487
 3522DOPC   GL141319   0.013  31.897  12.730 -0.3607  0.0785 -0.1344
 3522DOPC   GL241320  -0.088  32.040  12.510  0.2557  0.1675 -0.1017
 3522DOPC   C1A41321  -0.428  31.911  12.865  0.3208 -0.0883  0.4489
 3522DOPC   D2A41322  -0.703  31.849  13.153  0.0564 -0.2738  0.0191
 3522DOPC   C3A41323  -1.022  31.878  13.488 -0.0227  0.1664  0.1516
 3522DOPC   C4A41324  -1.285  32.127  13.720 -0.0396 -0.0388  0.2019
 3522DOPC   C1B41325  -0.515  32.233  12.496  0.1301  0.1178  0.1597
 3522DOPC   D2B41326  -0.947  32.067  12.708 -0.0995  0.0681  0.2409
 3522DOPC   C3B41327  -1.163  32.246  13.132 -0.0365  0.0476 -0.1528
 3522DOPC   C4B41328  -1.589  32.385  13.225  0.1327  0.1813 -0.0713
 3523DOPC   NC341329  29.882  32.690  12.937  0.2544  0.1749  0.1184
 3523DOPC   PO441330  29.502  32.652  12.826 -0.0514  0.0293 -0.3041
 3523DOPC   GL141331  29.233  32.804  13.023  0.0953 -0.0143  0.0669
 3523DOPC   GL241332  29.104  32.505  13.167 -0.2490 -0.1579 -0.1424
 3523DOPC   C1A41333  28.913  33.039  13.273 -0.0318 -0.2156  0.1275
 3523DOPC   D2A41334  28.509  32.962  13.416  0.1930 -0.3114 -0.0987
 3523DOPC   C3A41335  28.442  32.927  13.880  0.3617  0.0839  0.1413
 3523DOPC   C4A41336  28.547  32.896  14.315  0.0081  0.2497  0.0097
 3523DOPC   C1B41337  29.112  32.674  13.603 -0.2650  0.0475 -0.0661
 3523DOPC   D2B41338  29.015  32.663  14.044 -0.1313 -0.1570  0.0581
 3523DOPC   C3B41339  29.157  32.626  14.462  0.1656  0.0894  0.4482
 3523DOPC   C4B41340  29.241  32.632  14.935 -0.2221 -0.1130 -0.1108
 3524POSM   NC341341  25.842  28.607  13.085  0.1627  0.1263  0.1130
 3524POSM   PO441342  25.537  28.716  12.888  0.1295 -0.0962  0.0701
 3524POSM   AM141343  25.253  28.866  12.984 -0.3015  0.6153 -0.1548
 3524POSM   AM241344  25.154  29.139  13.094 -0.2062 -0.2058  0.3121
 3524POSM   T1A41345  24.745  28.891  13.102  0.0122 -0.0921 -0.0127
 3524POSM   C2A41346  24.350  28.645  13.131  0.1487 -0.0675  0.4380
 3524POSM   C3A41347  24.244  28.191  13.215 -0.1108 -0.1014  0.3630
 3524POSM   C1B41348  25.065  29.193  13.367 -0.2359  0.1325  0.0568
 3524POSM   D2B41349  24.801  29.090  13.764 -0.0212  0.0036  0.0859
 3524POSM   C3B41350  24.429  29.329  13.890 -0.1759  0.1147 -0.0001
 3524POSM   C4B41351  24.072  29.589  13.945  0.1044  0.1622  0.1986
 3525POSM   NC341352  32.093  29.509  13.319  0.1600 -0.1849 -0.2375
 3525POSM   PO441353  31.865  29.245  13.090  0.2865 -0.0858  0.0048
 3525POSM   AM141354  31.947  29.020  13.319 -0.0097 -0.1898  0.2876
 3525POSM   AM241355  31.964  29.100  13.618  0.0794  0.3503  0.0608
 3525POSM   T1A41356  32.257  28.660  13.367  0.1354 -0.2841 -0.0822
 3525POSM   C2A41357  32.443  28.333  13.131 -0.2764  0.1994 -0.0679
 3525POSM   C3A41358  32.762  28.105  12.892 -0.2494 -0.3189  0.3235
 3525POSM   C1B41359  32.037  29.102  13.965 -0.0527  0.2346 -0.0801
 3525POSM   D2B41360  32.348  29.178  14.282 -0.1316 -0.1074 -0.0027
 3525POSM   C3B41361  32.241  29.517  14.564  0.2274 -0.1187 -0.0828
 3525POSM   C4B41362  32.147  29.738  14.966 -0.1018 -0.0033  0.0099
 3526DOPS   CNO41363  30.467  25.655  12.650  0.3202 -0.0847 -0.1239
 3526DOPS   PO441364  30.808  25.814  12.515  0.6013  0.1060  0.0616
 3526DOPS   GL141365  31.022  26.029  12.900 -0.1513 -0.3965 -0.0877
 3526DOPS   GL241366  31.251  26.089  12.730 -0.0474 -0.1462  0.0940
 3526DOPS   C1A41367  31.279  25.970  13.260 -0.0190 -0.0075  0.2695
 3526DOPS   D2A41368  31.613  25.793  13.508 -0.0154  0.2556  0.1417
 3526DOPS   C3A41369  31.597  25.915  13.955 -0.1882  0.2685  0.1036
 3526DOPS   C4A41370  31.517  26.135  14.407 -0.1546 -0.2596 -0.2536
 3526DOPS   C1B41371  31.655  26.159  12.948  0.1270 -0.0252  0.1245
 3526DOPS   D2B41372  31.922  26.275  13.299  0.2941  0.5131  0.4819
 3526DOPS   C3B41373  32.148  26.648  13.380  0.1218 -0.1814  0.2693
 3526DOPS   C4B41374  32.089  27.125  13.446  0.0633  0.2012  0.3280
 3527DOPE   NH341375  30.790  30.683  13.007  0.2794  0.0143  0.0231
 3527DOPE   PO441376  30.846  30.819  13.264 -0.1096 -0.0941 -0.1882
 3527DOPE   GL141377  30.995  31.147  13.286 -0.1421  0.1279  0.1619
 3527DOPE   GL241378  30.909  31.413  13.277  0.0096  0.1257  0.3898
 3527DOPE   C1A41379  31.413  31.266  13.469 -0.0373  0.2089 -0.0065
 3527DOPE   D2A41380  31.526  31.597  13.802  0.1329 -0.1786  0.1328
 3527DOPE   C3A41381  31.377  31.546  14.200  0.1821 -0.0418  0.1624
 3527DOPE   C4A41382  30.994  31.501  14.396 -0.2049 -0.0179 -0.4457
 3527DOPE   C1B41383  31.258  31.392  12.964 -0.5494  0.1314 -0.0646
 3527DOPE   D2B41384  31.694  31.206  12.943  0.0900 -0.1205  0.1812
 3527DOPE   C3B41385  32.014  31.265  12.688  0.1487  0.2807  0.0053
 3527DOPE   C4B41386  32.264  31.434  12.312  0.0913  0.1589 -0.2151
 3528DOPC   NC341387  29.983  28.652  12.729 -0.1032  0.0982  0.0968
 3528DOPC   PO441388  30.200  28.909  12.959 -0.2264  0.2694 -0.3680
 3528DOPC   GL141389  30.140  28.774  13.314  0.4517  0.4339  0.1302
 3528DOPC   GL241390  29.912  28.616  13.272 -0.0818 -0.4135  0.1934
 3528DOPC   C1A41391  30.222  28.455  13.644 -0.2292  0.0223  0.0268
 3528DOPC   D2A41392  30.173  28.101  13.944 -0.1321  0.1438 -0.0749
 3528DOPC   C3A41393  30.440  27.739  13.962 -0.3354  0.0493  0.0134
 3528DOPC   C4A41394  30.249  27.377  14.172  0.3362  0.0430 -0.1367
 3528DOPC   C1B41395  29.728  28.521  13.690 -0.0970 -0.2433  0.0303
 3528DOPC   D2B41396  29.691  28.223  14.081  0.1063  0.1502  0.0572
 3528DOPC   C3B41397  29.903  28.330  14.482 -0.0710 -0.0201 -0.1073
 3528DOPC   C4B41398  30.149  28.448  14.825 -0.1042  0.1494 -0.2050
 3529DOPC   NC341399  28.366  31.482  12.956 -0.0356  0.0533 -0.6201
 3529DOPC   PO441400  28.121  31.194  12.871 -0.3269  0.2062  0.0283
 3529DOPC   GL141401  28.154  31.121  13.269  0.1394 -0.0374  0.2617
 3529DOPC   GL241402  28.384  30.982  13.298 -0.1547  0.0158 -0.0000
 3529DOPC   C1A41403  27.951  31.269  13.648 -0.2274 -0.1832  0.2233
 3529DOPC   D2A41404  27.933  31.670  13.853 -0.1688 -0.1439 -0.3134
 3529DOPC   C3A41405  28.156  32.070  13.767 -0.3325  0.0674  0.0083
 3529DOPC   C4A41406  28.275  32.490  13.511 -0.2100  0.3749 -0.1450
 3529DOPC   C1B41407  28.615  30.685  13.577  0.1344 -0.4075  0.1090
 3529DOPC   D2B41408  28.596  30.421  13.978  0.2386 -0.1113  0.0166
 3529DOPC   C3B41409  28.755  30.568  14.381 -0.0036  0.1705  0.0214
 3529DOPC   C4B41410  28.740  30.359  14.834 -0.1501  0.0622  0.0097
 3530DOPC   NC341411  27.446  32.696  12.497  0.1546  0.1990  0.1038
 3530DOPC   PO441412  27.116  32.924  12.486  0.0116  0.2110 -0.0702
 3530DOPC   GL141413  27.342  33.135  12.703 -0.0305 -0.0070 -0.0957
 3530DOPC   GL241414  27.276  33.059  12.922 -0.1897 -0.0316 -0.0762
 3530DOPC   C1A41415  27.785  33.139  12.846  0.0142  0.1052 -0.1551
 3530DOPC   D2A41416  28.193  33.373  12.981 -0.1990 -0.0182 -0.0599
 3530DOPC   C3A41417  28.483  33.426  13.302  0.2284  0.1040 -0.0059
 3530DOPC   C4A41418  28.827  33.476  13.607  0.2291 -0.0494  0.0960
 3530DOPC   C1B41419  27.504  33.134  13.317 -0.0555  0.0105 -0.2079
 3530DOPC   D2B41420  27.778  33.481  13.330  0.0009  0.1793 -0.0120
 3530DOPC   C3B41421  28.138  33.642  13.606 -0.0270  0.1404  0.3178
 3530DOPC   C4B41422  28.438  33.443  13.941  0.0558 -0.4115  0.0800
 3531DOPE   NH341423  30.845  25.045  13.081  0.0388  0.1118 -0.0066
 3531DOPE   PO441424  31.052  24.749  13.023  0.0411  0.1787  0.2190
 3531DOPE   GL141425  30.829  24.499  13.267 -0.4213 -0.1430  0.0488
 3531DOPE   GL241426  30.743  24.680  13.422  0.0298 -0.1109  0.1670
 3531DOPE   C1A41427  30.895  24.168  13.488 -0.0982 -0.1466  0.0502
 3531DOPE   D2A41428  30.903  24.119  13.863 -0.0473 -0.1994 -0.2398
 3531DOPE   C3A41429  30.688  24.191  14.231  0.2278 -0.0553  0.2097
 3531DOPE   C4A41430  30.451  24.541  14.347 -0.0666  0.0252 -0.1524
 3531DOPE   C1B41431  30.820  24.605  13.851 -0.3588 -0.2722 -0.0291
 3531DOPE   D2B41432  31.176  24.523  14.115  0.3198  0.0281  0.2322
 3531DOPE   C3B41433  31.198  24.134  14.350 -0.0581 -0.0414 -0.1018
 3531DOPE   C4B41434  31.234  23.901  14.734 -0.0364  0.1700  0.0354
 3532DOPC   NC341435  33.451  30.861  13.162 -0.1841  0.0731 -0.3191
 3532DOPC   PO441436  33.566  30.533  13.000 -0.1471  0.0554  0.1285
 3532DOPC   GL141437  33.506  30.312  13.343  0.0495 -0.1028  0.0960
 3532DOPC   GL241438  33.241  30.381  13.330  0.2219  0.3585 -0.0621
 3532DOPC   C1A41439  33.429  30.564  13.745  0.0645  0.1718  0.2282
 3532DOPC   D2A41440  33.204  30.574  14.160 -0.2623 -0.1968  0.1671
 3532DOPC   C3A41441  32.868  30.946  14.291 -0.1683  0.3428  0.0298
 3532DOPC   C4A41442  32.436  31.033  14.417 -0.1678  0.1962 -0.3174
 3532DOPC   C1B41443  32.929  30.434  13.698  0.2203  0.0342 -0.2102
 3532DOPC   D2B41444  32.653  30.613  13.976 -0.4472 -0.1058  0.1811
 3532DOPC   C3B41445  32.388  30.471  14.285 -0.2233 -0.3015  0.0038
 3532DOPC   C4B41446  32.052  30.446  14.476  0.0432 -0.0403  0.2377
 3533POSM   NC341447  25.991  27.358  12.477  0.2756 -0.1096 -0.1314
 3533POSM   PO441448  26.358  27.345  12.611  0.2497  0.2377 -0.1319
 3533POSM   AM141449  26.566  27.201  12.822 -0.0826  0.1295 -0.0574
 3533POSM   AM241450  26.507  27.035  13.036  0.2222  0.0862  0.2721
 3533POSM   T1A41451  26.973  27.010  12.820 -0.2211 -0.0045  0.1384
 3533POSM   C2A41452  27.371  27.191  12.891  0.0836 -0.3085  0.5505
 3533POSM   C3A41453  27.529  27.264  13.366  0.1547  0.0006  0.3639
 3533POSM   C1B41454  26.691  26.878  13.215  0.1183  0.1844  0.4525
 3533POSM   D2B41455  26.928  26.642  13.508 -0.3435 -0.2185 -0.0841
 3533POSM   C3B41456  26.855  26.735  13.993  0.2771  0.1250 -0.0237
 3533POSM   C4B41457  26.850  26.825  14.427  0.2245  0.3125 -0.0361
 3534DOPS   CNO41458  26.418  23.574  12.067 -0.1217 -0.0805 -0.0316
 3534DOPS   PO441459  26.244  23.287  12.300  0.0364 -0.1490  0.1306
 3534DOPS   GL141460  26.143  22.941  12.399  0.1268  0.4088  0.4690
 3534DOPS   GL241461  25.998  23.019  12.667 -0.0749  0.1573  0.2203
 3534DOPS   C1A41462  25.958  22.559  12.164  0.0312  0.3193  0.0158
 3534DOPS   D2A41463  25.882  22.198  12.490 -0.0169 -0.0092  0.1122
 3534DOPS   C3A41464  26.042  21.710  12.329 -0.1651 -0.0340 -0.2427
 3534DOPS   C4A41465  25.892  21.282  12.498 -0.2234 -0.1224  0.2801
 3534DOPS   C1B41466  26.139  22.595  12.703 -0.0298  0.1903 -0.3013
 3534DOPS   D2B41467  26.361  22.368  13.020 -0.1731  0.0289  0.2513
 3534DOPS   C3B41468  26.165  22.418  13.457  0.1134 -0.0740 -0.0480
 3534DOPS   C4B41469  25.988  22.717  13.743  0.1465 -0.1235  0.2674
 3535DOPE   NH341470  25.172  29.458  12.391 -0.1174  0.0182 -0.1391
 3535DOPE   PO441471  25.015  29.321  12.641  0.0603 -0.0211  0.0669
 3535DOPE   GL141472  24.822  29.618  12.947 -0.1993  0.2872  0.3705
 3535DOPE   GL241473  25.039  29.750  13.146  0.2048  0.0609  0.0093
 3535DOPE   C1A41474  24.636  29.377  13.330 -0.0506 -0.2429 -0.0670
 3535DOPE   D2A41475  24.442  28.954  13.449 -0.0098 -0.2870  0.0104
 3535DOPE   C3A41476  24.020  29.050  13.732 -0.0815 -0.1363  0.1447
 3535DOPE   C4A41477  23.667  29.268  13.975  0.0260 -0.1878  0.2286
 3535DOPE   C1B41478  24.862  30.041  13.424 -0.0194 -0.0769  0.0639
 3535DOPE   D2B41479  24.714  30.446  13.756 -0.1092 -0.2093 -0.1120
 3535DOPE   C3B41480  24.859  30.479  14.199 -0.1429 -0.2384  0.1011
 3535DOPE   C4B41481  24.894  30.692  14.542 -0.1501 -0.3426 -0.0482
 3536POSM   NC341482  23.522  26.137  12.281 -0.1973 -0.0378 -0.0404
 3536POSM   PO441483  23.577  26.424  12.545  0.4559  0.1685  0.3576
 3536POSM   AM141484  23.471  26.191  12.765 -0.3863 -0.4261  0.0551
 3536POSM   AM241485  23.344  25.933  12.729 -0.0108 -0.1602  0.0588
 3536POSM   T1A41486  23.727  25.881  13.130 -0.0269 -0.2887 -0.5237
 3536POSM   C2A41487  24.081  25.939  13.450  0.1646  0.0215  0.0787
 3536POSM   C3A41488  24.459  25.836  13.704  0.1705  0.0912 -0.0378
 3536POSM   C1B41489  23.210  25.614  12.631  0.1626 -0.3040 -0.0138
 3536POSM   D2B41490  23.163  25.186  12.524  0.0004 -0.0859  0.0320
 3536POSM   C3B41491  23.557  24.987  12.629 -0.1364  0.0092 -0.2112
 3536POSM   C4B41492  23.998  24.959  12.444  0.2869 -0.2149 -0.0410
 3537DOPC   NC341493  29.956  28.063  13.442  0.2406 -0.1680  0.0660
 3537DOPC   PO441494  29.869  28.157  13.044 -0.2596  0.0005 -0.1381
 3537DOPC   GL141495  29.438  28.167  12.992 -0.4299 -0.1032 -0.1828
 3537DOPC   GL241496  29.402  28.460  12.960  0.1402 -0.6723  0.2227
 3537DOPC   C1A41497  29.165  28.326  13.356  0.4629 -0.0682  0.0254
 3537DOPC   D2A41498  28.844  28.281  13.637 -0.0454 -0.0715  0.1883
 3537DOPC   C3A41499  28.437  27.945  13.731 -0.0561 -0.1137  0.2800
 3537DOPC   C4A41500  28.237  27.599  13.917  0.1279  0.2169 -0.0904
 3537DOPC   C1B41501  29.422  28.740  13.349 -0.2564 -0.0140  0.2419
 3537DOPC   D2B41502  29.549  28.990  13.715 -0.2073 -0.0010  0.1767
 3537DOPC   C3B41503  29.267  29.050  14.053 -0.1264 -0.0161  0.1834
 3537DOPC   C4B41504  29.051  28.939  14.445  0.0150  0.0593  0.0712
 3538DOPS   CNO41505  26.121  24.103  12.198 -0.1830  0.3395 -0.1515
 3538DOPS   PO441506  25.927  24.226  12.478 -0.3151 -0.3933  0.1804
 3538DOPS   GL141507  25.998  24.182  12.870  0.0364  0.0735  0.3295
 3538DOPS   GL241508  25.756  24.054  12.947 -0.1384 -0.0288  0.0495
 3538DOPS   C1A41509  25.916  24.416  13.217 -0.2510 -0.0042 -0.1796
 3538DOPS   D2A41510  26.219  24.348  13.530  0.2734  0.3948 -0.1146
 3538DOPS   C3A41511  26.002  24.203  13.944  0.1024  0.0547  0.6365
 3538DOPS   C4A41512  25.948  24.391  14.375  0.1271  0.0532 -0.1320
 3538DOPS   C1B41513  25.910  23.984  13.368 -0.2929  0.1936  0.2029
 3538DOPS   D2B41514  26.394  23.916  13.474  0.3275  0.1587  0.2222
 3538DOPS   C3B41515  26.518  23.979  13.978  0.0661  0.1050  0.0360
 3538DOPS   C4B41516  26.401  23.927  14.363 -0.1750 -0.0450 -0.2051
 3539DOPC   NC341517  25.019  27.628  12.890  0.0198 -0.3331 -0.1675
 3539DOPC   PO441518  25.063  27.974  12.713  0.0780  0.0783  0.6190
 3539DOPC   GL141519  25.030  28.023  13.154 -0.2213  0.0393  0.2530
 3539DOPC   GL241520  25.306  27.939  13.258  0.1920 -0.0388 -0.1449
 3539DOPC   C1A41521  24.996  28.117  13.660  0.0440  0.0779 -0.1335
 3539DOPC   D2A41522  25.258  28.244  14.030  0.0426 -0.2338  0.0555
 3539DOPC   C3A41523  25.317  28.694  14.107  0.3042  0.4783 -0.3401
 3539DOPC   C4A41524  25.270  29.102  14.099  0.3570 -0.0108 -0.1284
 3539DOPC   C1B41525  24.984  27.622  13.413  0.2162  0.0817  0.0346
 3539DOPC   D2B41526  25.012  27.245  13.649  0.1227  0.3415 -0.2330
 3539DOPC   C3B41527  25.390  27.203  13.957  0.0949 -0.2526  0.2689
 3539DOPC   C4B41528  25.738  27.060  14.200 -0.1036 -0.0596 -0.2228
 3540DOPC   NC341529  28.983  26.859  12.812 -0.2877 -0.0168 -0.0955
 3540DOPC   PO441530  29.094  26.676  12.485  0.1513 -0.2462 -0.1731
 3540DOPC   GL141531  28.727  26.687  12.506  0.2422  0.4195  0.7259
 3540DOPC   GL241532  28.625  26.541  12.290  0.2242 -0.0283  0.1356
 3540DOPC   C1A41533  28.501  26.922  12.835 -0.0967 -0.0599  0.3121
 3540DOPC   D2A41534  28.252  26.927  13.179 -0.0339  0.3498  0.1100
 3540DOPC   C3A41535  28.286  26.680  13.545  0.0111  0.2386  0.0116
 3540DOPC   C4A41536  28.525  26.449  13.858 -0.1366  0.0701 -0.0180
 3540DOPC   C1B41537  28.614  26.995  12.223  0.0178 -0.1348  0.0228
 3540DOPC   D2B41538  28.513  27.303  12.530  0.0190 -0.0667  0.1757
 3540DOPC   C3B41539  28.083  27.253  12.657 -0.1660  0.3062  0.2133
 3540DOPC   C4B41540  27.848  27.117  13.007  0.0141 -0.0570  0.1513
 3541DOPE   NH341541  30.024  26.424  12.902 -0.1225  0.1925 -0.1808
 3541DOPE   PO441542  29.967  26.725  12.985  0.0152  0.2768  0.4211
 3541DOPE   GL141543  30.140  26.503  13.401 -0.3290 -0.2242 -0.1230
 3541DOPE   GL241544  30.247  26.224  13.352  0.1923  0.0373  0.0059
 3541DOPE   C1A41545  30.164  26.317  13.814  0.0188  0.2567  0.1904
 3541DOPE   D2A41546  30.222  26.249  14.264  0.3102 -0.3108 -0.0272
 3541DOPE   C3A41547  29.816  26.493  14.320  0.3121 -0.1103 -0.2170
 3541DOPE   C4A41548  29.669  26.861  14.538 -0.4716  0.0789 -0.0631
 3541DOPE   C1B41549  30.055  25.855  13.575  0.3644  0.1224 -0.1495
 3541DOPE   D2B41550  29.814  25.771  13.961  0.0367  0.0677  0.0988
 3541DOPE   C3B41551  29.856  25.960  14.385  0.0059 -0.1821  0.1377
 3541DOPE   C4B41552  29.782  26.155  14.779 -0.1733  0.1853 -0.0171
 3542DOPC   NC341553  25.075  27.183  12.512 -0.0551 -0.4278  0.2393
 3542DOPC   PO441554  24.796  27.031  12.259  0.1948  0.2054 -0.6933
 3542DOPC   GL141555  24.873  26.694  12.494  0.0430 -0.2327 -0.1187
 3542DOPC   GL241556  24.710  26.814  12.712  0.1347  0.1853  0.3195
 3542DOPC   C1A41557  24.577  26.372  12.577  0.0142 -0.1988  0.1008
 3542DOPC   D2A41558  24.575  25.981  12.772 -0.0090 -0.2460  0.4232
 3542DOPC   C3A41559  24.831  25.604  12.697 -0.3020  0.0436  0.3292
 3542DOPC   C4A41560  25.127  25.268  12.827 -0.2234 -0.1896  0.2542
 3542DOPC   C1B41561  24.658  26.530  13.049 -0.0880 -0.0446 -0.3446
 3542DOPC   D2B41562  24.868  26.145  13.130 -0.0299  0.1836  0.2494
 3542DOPC   C3B41563  25.204  26.339  13.400 -0.0459 -0.0535  0.0580
 3542DOPC   C4B41564  25.440  26.110  13.640 -0.1541  0.0696 -0.0262
 3543DOPC   NC341565  30.371  34.586  12.844 -0.2316 -0.1703  0.2610
 3543DOPC   PO441566  30.681  34.838  12.839  0.2054 -0.2013  0.3943
 3543DOPC   GL141567  30.826  34.758  13.260 -0.1303 -0.1614 -0.2120
 3543DOPC   GL241568  31.033  34.858  13.470  0.1514  0.3097 -0.1929
 3543DOPC   C1A41569  30.603  34.677  13.659  0.1336 -0.2647 -0.1223
 3543DOPC   D2A41570  30.576  34.519  14.063 -0.1837  0.3116  0.2595
 3543DOPC   C3A41571  30.506  34.046  14.167  0.1295  0.2257  0.1997
 3543DOPC   C4A41572  30.481  33.568  14.189  0.0952 -0.0966 -0.2494
 3543DOPC   C1B41573  31.372  34.639  13.737  0.0768  0.0786 -0.1088
 3543DOPC   D2B41574  31.463  34.413  14.142  0.0512 -0.2609 -0.0407
 3543DOPC   C3B41575  31.587  34.590  14.546  0.0208  0.0404  0.0380
 3543DOPC   C4B41576  31.986  34.675  14.708  0.1715  0.1769  0.2218
 3544POSM   NC341577  28.209  34.447  12.540  0.0140 -0.1880  0.1886
 3544POSM   PO441578  28.523  34.317  12.708 -0.1297  0.0554  0.1328
 3544POSM   AM141579  28.600  34.271  13.006 -0.1567 -0.1229 -0.0184
 3544POSM   AM241580  28.606  34.449  13.266 -0.2219  0.1814  0.2249
 3544POSM   T1A41581  28.682  33.957  13.394 -0.1450  0.0822  0.0973
 3544POSM   C2A41582  28.624  33.933  13.866 -0.0454 -0.0719 -0.1002
 3544POSM   C3A41583  28.727  33.695  14.244 -0.2496  0.1933 -0.2852
 3544POSM   C1B41584  28.731  34.449  13.584 -0.0184 -0.0091 -0.2725
 3544POSM   D2B41585  28.700  34.386  13.999 -0.0208 -0.2692  0.0617
 3544POSM   C3B41586  28.321  34.252  14.186  0.1252  0.0074  0.0107
 3544POSM   C4B41587  27.924  34.110  14.388 -0.1494 -0.0706 -0.4516
 3545DOPE   NH341588  29.649  27.884  12.667 -0.1516 -0.0757  0.0647
 3545DOPE   PO441589  29.352  27.811  12.592  0.0590 -0.1644  0.1256
 3545DOPE   GL141590  29.098  27.717  12.816  0.2341  0.0142 -0.1749
 3545DOPE   GL241591  29.061  27.735  13.155  0.1027 -0.3048 -0.3446
 3545DOPE   C1A41592  28.907  28.168  12.885  0.1503  0.3264  0.2579
 3545DOPE   D2A41593  28.867  28.593  13.019  0.2458  0.1442  0.2558
 3545DOPE   C3A41594  28.912  28.775  13.475 -0.0160 -0.0619 -0.0486
 3545DOPE   C4A41595  28.833  28.995  13.846  0.0939  0.1176  0.0826
 3545DOPE   C1B41596  28.708  27.652  13.431 -0.0529  0.5131  0.2755
 3545DOPE   D2B41597  28.418  27.262  13.563  0.1472 -0.2260  0.1604
 3545DOPE   C3B41598  28.043  27.142  13.606 -0.3677  0.2341  0.0025
 3545DOPE   C4B41599  27.791  26.792  13.407 -0.0312  0.1006 -0.2086
 3546DOPS   CNO41600  29.529  27.418  12.408  0.3260 -0.1387  0.2064
 3546DOPS   PO441601  29.242  27.244  12.602 -0.3159 -0.0075  0.3277
 3546DOPS   GL141602  28.866  27.319  12.840 -0.1298 -0.3002 -0.1979
 3546DOPS   GL241603  28.732  27.250  13.114 -0.0919  0.3561 -0.3979
 3546DOPS   C1A41604  28.637  27.707  12.845  0.1202  0.0998  0.1501
 3546DOPS   D2A41605  28.264  27.914  12.652  0.0359 -0.1092  0.0648
 3546DOPS   C3A41606  27.931  28.058  12.992  0.4880 -0.2054  0.1953
 3546DOPS   C4A41607  27.545  28.415  13.008  0.0219 -0.1664 -0.5466
 3546DOPS   C1B41608  28.271  27.461  13.104  0.1536 -0.1020  0.4203
 3546DOPS   D2B41609  28.053  27.746  13.395  0.1357  0.2491 -0.3145
 3546DOPS   C3B41610  27.589  27.865  13.404 -0.0110 -0.4503 -0.0918
 3546DOPS   C4B41611  27.183  28.061  13.202 -0.2832  0.1522 -0.1420
 3547DOPC   NC341612  27.422  34.230  12.750  0.2500 -0.1048 -0.1334
 3547DOPC   PO441613  27.718  34.486  12.798  0.1350  0.0945  0.0111
 3547DOPC   GL141614  27.617  34.405  13.169 -0.2061  0.2132  0.1758
 3547DOPC   GL241615  27.408  34.232  13.257 -0.0576  0.0481  0.1214
 3547DOPC   C1A41616  27.676  34.392  13.630  0.2307  0.2190  0.0689
 3547DOPC   D2A41617  27.845  34.515  14.077  0.0580 -0.0137  0.0063
 3547DOPC   C3A41618  27.590  34.836  14.299 -0.0487 -0.1094 -0.1191
 3547DOPC   C4A41619  27.193  35.040  14.460 -0.2044 -0.1948 -0.1698
 3547DOPC   C1B41620  27.059  34.395  13.558  0.0153  0.0665  0.1274
 3547DOPC   D2B41621  26.875  34.497  13.985 -0.2177  0.1304 -0.2880
 3547DOPC   C3B41622  26.973  34.522  14.459  0.0028 -0.0368 -0.1054
 3547DOPC   C4B41623  27.044  34.683  14.886 -0.2134  0.0371  0.1292
 3548DOPE   NH341624  24.182  27.710  12.290 -0.1605 -0.0203  0.0297
 3548DOPE   PO441625  24.252  27.516  12.556  0.0366 -0.1162 -0.3638
 3548DOPE   GL141626  24.291  27.589  12.950  0.1592 -0.0011 -0.1226
 3548DOPE   GL241627  24.476  27.617  13.069  0.2273 -0.1583 -0.0729
 3548DOPE   C1A41628  24.102  27.693  13.379  0.2297 -0.0279  0.1896
 3548DOPE   D2A41629  23.884  27.388  13.694  0.1616 -0.0187 -0.1831
 3548DOPE   C3A41630  23.710  27.498  14.037 -0.0161 -0.0187  0.0273
 3548DOPE   C4A41631  23.357  27.213  14.159  0.2295 -0.1114  0.0165
 3548DOPE   C1B41632  24.513  27.436  13.504  0.0070  0.2725  0.1843
 3548DOPE   D2B41633  24.299  27.078  13.695  0.0494 -0.1748 -0.0370
 3548DOPE   C3B41634  24.437  26.674  13.973 -0.1527 -0.0914  0.0826
 3548DOPE   C4B41635  24.841  26.478  14.116  0.2132 -0.3473 -0.0505
 3549DOPE   NH341636  29.784  29.497  12.783  0.3449 -0.2656  0.2359
 3549DOPE   PO441637  29.947  29.215  12.666 -0.0100  0.3548  0.0319
 3549DOPE   GL141638  29.747  28.999  12.886  0.2501 -0.1637  0.0767
 3549DOPE   GL241639  29.755  29.177  13.218 -0.3786  0.1528  0.1677
 3549DOPE   C1A41640  29.282  29.111  12.958  0.0572 -0.0337 -0.2006
 3549DOPE   D2A41641  28.873  29.184  13.087 -0.1470 -0.2731  0.2376
 3549DOPE   C3A41642  28.690  29.644  13.154  0.2502  0.3459 -0.0751
 3549DOPE   C4A41643  28.732  30.118  13.256 -0.1825 -0.0321  0.2188
 3549DOPE   C1B41644  29.363  29.359  13.409 -0.0853  0.1169  0.2273
 3549DOPE   D2B41645  29.013  29.495  13.661 -0.0796 -0.2207  0.0456
 3549DOPE   C3B41646  29.041  29.532  14.130 -0.2829 -0.0135 -0.0685
 3549DOPE   C4B41647  29.101  29.757  14.462 -0.0796  0.1254  0.0884
 3550POSM   NC341648  32.812  30.062  13.163 -0.0431 -0.2127 -0.2101
 3550POSM   PO441649  32.555  30.306  12.948  0.4292  0.0784 -0.0328
 3550POSM   AM141650  32.465  30.355  13.249 -0.1313 -0.3139  0.0347
 3550POSM   AM241651  32.545  30.593  13.394 -0.0456  0.0410 -0.3113
 3550POSM   T1A41652  32.492  30.237  13.729 -0.0446 -0.3146 -0.0595
 3550POSM   C2A41653  32.676  30.062  14.083  0.2157  0.1372  0.1226
 3550POSM   C3A41654  32.985  29.819  14.308  0.1739  0.3361  0.1057
 3550POSM   C1B41655  32.557  30.887  13.532  0.1169 -0.1452  0.0074
 3550POSM   D2B41656  32.576  31.062  13.930 -0.0425 -0.1302  0.1739
 3550POSM   C3B41657  32.328  31.443  13.997 -0.1267 -0.1958  0.3598
 3550POSM   C4B41658  31.949  31.785  13.894 -0.0750 -0.1759 -0.3332
 3551POSM   NC341659  33.649   0.156  12.708 -0.1162 -0.1665 -0.1446
 3551POSM   PO441660  33.472   0.122  12.366 -0.0280  0.3223  0.3591
 3551POSM   AM141661  33.367  -0.172  12.484  0.0463  0.1442  0.1228
 3551POSM   AM241662  33.329  -0.242  12.758  0.4868 -0.0712  0.0963
 3551POSM   T1A41663  33.151  -0.683  12.496  0.2166 -0.0573 -0.2201
 3551POSM   C2A41664  32.774  -0.951  12.610 -0.0021 -0.1855  0.1547
 3551POSM   C3A41665  32.586  -1.087  13.030  0.3515  0.0063 -0.0488
 3551POSM   C1B41666  33.176  -0.474  12.990 -0.1573 -0.0754  0.0898
 3551POSM   D2B41667  33.119  -0.901  12.976  0.3393  0.1826  0.0777
 3551POSM   C3B41668  32.961  -1.070  13.396  0.2424 -0.2630  0.4137
 3551POSM   C4B41669  32.805  -0.906  13.826  0.1938 -0.0911 -0.0291
 3552DOPC   NC341670  23.855  27.387  12.814  0.2239 -0.1395 -0.0651
 3552DOPC   PO441671  23.756  27.684  12.566  0.0818 -0.4796 -0.4374
 3552DOPC   GL141672  23.927  27.911  12.952  0.0171  0.0479  0.0127
 3552DOPC   GL241673  24.086  27.985  12.781 -0.1838  0.1129 -0.0839
 3552DOPC   C1A41674  23.762  28.106  13.358 -0.2090 -0.1380  0.1212
 3552DOPC   D2A41675  24.099  28.271  13.692  0.0039 -0.3414  0.0014
 3552DOPC   C3A41676  24.328  28.676  13.813 -0.0297  0.0156  0.1611
 3552DOPC   C4A41677  24.417  28.930  14.183 -0.0744  0.0818 -0.3061
 3552DOPC   C1B41678  23.868  28.354  12.874 -0.0029  0.0502  0.2104
 3552DOPC   D2B41679  23.606  28.673  12.982 -0.2498 -0.1917  0.1348
 3552DOPC   C3B41680  23.961  29.004  13.006  0.2949  0.1023 -0.0355
 3552DOPC   C4B41681  24.116  29.408  13.182  0.0445 -0.3025  0.2511
 3553DOPC   NC341682  28.326  33.898  13.015 -0.1613 -0.0712 -0.0268
 3553DOPC   PO441683  28.123  34.023  12.736  0.3661  0.1847  0.0160
 3553DOPC   GL141684  27.852  33.797  12.961 -0.1477  0.0212 -0.1963
 3553DOPC   GL241685  27.849  33.989  13.170  0.1377  0.0177 -0.0903
 3553DOPC   C1A41686  27.423  33.771  13.114  0.0816  0.1025 -0.1616
 3553DOPC   D2A41687  26.968  33.576  13.033  0.3613  0.2096 -0.0013
 3553DOPC   C3A41688  26.782  33.439  13.390 -0.1524 -0.0482  0.1537
 3553DOPC   C4A41689  26.672  33.089  13.759 -0.2471  0.0261  0.1907
 3553DOPC   C1B41690  27.621  33.903  13.578  0.0282 -0.0608  0.2157
 3553DOPC   D2B41691  27.229  33.612  13.545 -0.1328  0.1434  0.1315
 3553DOPC   C3B41692  27.204  33.201  13.716  0.1482  0.2333 -0.0781
 3553DOPC   C4B41693  27.448  32.930  13.990  0.3291 -0.0720  0.1530
 3554DOPC   NC341694  30.180  30.931  13.088  0.0605  0.2560 -0.1143
 3554DOPC   PO441695  30.432  31.241  13.033 -0.2444 -0.0108 -0.1394
 3554DOPC   GL141696  30.493  31.085  13.412 -0.1723  0.1372  0.2313
 3554DOPC   GL241697  30.739  31.158  13.637  0.0491 -0.0665 -0.0496
 3554DOPC   C1A41698  30.127  30.939  13.709 -0.0327 -0.0715  0.2371
 3554DOPC   D2A41699  29.819  30.748  14.016 -0.0101 -0.2575  0.2216
 3554DOPC   C3A41700  29.812  30.592  14.468 -0.1060  0.3423 -0.0788
 3554DOPC   C4A41701  29.611  30.429  14.880 -0.0087  0.1604  0.1630
 3554DOPC   C1B41702  30.486  31.277  14.044 -0.2003  0.2596  0.4691
 3554DOPC   D2B41703  30.233  30.919  14.266 -0.2338 -0.1443 -0.0109
 3554DOPC   C3B41704  30.503  30.587  14.462 -0.2954 -0.0505 -0.0042
 3554DOPC   C4B41705  30.772  30.185  14.403 -0.0360 -0.2598  0.2201
 3555POSM   NC341706  25.219  27.674  12.279  0.0931 -0.1779 -0.1111
 3555POSM   PO441707  25.438  27.363  12.097 -0.1223  0.3758 -0.2270
 3555POSM   AM141708  25.568  27.170  12.336  0.5088  0.1788 -0.0624
 3555POSM   AM241709  25.470  26.929  12.485  0.3446  0.0031 -0.1478
 3555POSM   T1A41710  25.917  26.770  12.376  0.0041  0.0508  0.0130
 3555POSM   C2A41711  26.357  26.742  12.453  0.0991 -0.0609  0.3347
 3555POSM   C3A41712  26.609  26.622  12.775  0.0137 -0.0225  0.0660
 3555POSM   C1B41713  25.398  26.615  12.454 -0.1826 -0.0859 -0.1823
 3555POSM   D2B41714  25.528  26.150  12.466 -0.0803  0.0403  0.1485
 3555POSM   C3B41715  25.830  25.929  12.749  0.0644  0.2330  0.2004
 3555POSM   C4B41716  25.833  25.673  13.132 -0.0198 -0.1056 -0.2991
 3556DOPC   NC341717  26.009  33.320  12.558  0.0919 -0.1131 -0.1280
 3556DOPC   PO441718  26.029  32.955  12.481 -0.0159 -0.0383 -0.0750
 3556DOPC   GL141719  25.698  32.891  12.618  0.3330  0.1489  0.1349
 3556DOPC   GL241720  25.679  33.039  12.896 -0.1990 -0.1673 -0.4633
 3556DOPC   C1A41721  25.343  33.092  12.464  0.1366 -0.4205 -0.1746
 3556DOPC   D2A41722  25.042  33.368  12.725 -0.0195  0.0589 -0.1291
 3556DOPC   C3A41723  24.982  33.422  13.165 -0.0681 -0.2754 -0.2825
 3556DOPC   C4A41724  24.982  33.209  13.581  0.2258 -0.1292 -0.0415
 3556DOPC   C1B41725  25.577  33.443  12.850 -0.1416  0.2289  0.1151
 3556DOPC   D2B41726  25.283  33.807  12.889  0.3764 -0.3025 -0.1734
 3556DOPC   C3B41727  25.227  34.132  13.243  0.3900 -0.2063  0.2637
 3556DOPC   C4B41728  24.866  34.441  13.192  0.3069  0.0267 -0.0266
 3557POSM   NC341729  34.090  27.291  12.135 -0.1333 -0.0447 -0.0718
 3557POSM   PO441730  34.266  27.085  12.359 -0.1192 -0.1931 -0.3066
 3557POSM   AM141731  34.024  27.110  12.576  0.2554  0.0010 -0.1926
 3557POSM   AM241732  33.753  27.108  12.662 -0.0371 -0.3292  0.1745
 3557POSM   T1A41733  33.923  27.228  13.050 -0.2069 -0.2085  0.1069
 3557POSM   C2A41734  34.023  27.178  13.465  0.1573 -0.0130  0.0486
 3557POSM   C3A41735  33.765  27.356  13.801 -0.1209 -0.0103 -0.0553
 3557POSM   C1B41736  33.574  27.446  12.774  0.0276  0.1202  0.2187
 3557POSM   D2B41737  33.279  27.771  12.908 -0.2367 -0.1134  0.2338
 3557POSM   C3B41738  32.943  27.718  13.170  0.3828  0.1503 -0.3363
 3557POSM   C4B41739  32.605  27.428  13.406  0.0412  0.0872 -0.1827
 3558DOPS   CNO41740  30.815  25.265  12.563 -0.2823  0.0540  0.0545
 3558DOPS   PO441741  31.163  25.094  12.667  0.1503  0.0142 -0.0676
 3558DOPS   GL141742  31.277  25.237  13.149 -0.0855  0.0550 -0.2531
 3558DOPS   GL241743  31.259  25.494  13.323  0.1977  0.0794  0.2208
 3558DOPS   C1A41744  31.592  25.178  13.453 -0.2886  0.0968  0.1032
 3558DOPS   D2A41745  31.983  25.412  13.627 -0.2152  0.0307 -0.0455
 3558DOPS   C3A41746  32.287  25.280  13.911  0.3475  0.0679  0.0158
 3558DOPS   C4A41747  32.616  25.157  14.199  0.0383 -0.0401 -0.0218
 3558DOPS   C1B41748  31.664  25.515  13.073  0.0387  0.2561  0.0270
 3558DOPS   D2B41749  32.077  25.694  13.205  0.0372 -0.1222 -0.0706
 3558DOPS   C3B41750  32.113  25.934  13.612 -0.0503 -0.0655 -0.0783
 3558DOPS   C4B41751  32.144  26.340  13.797 -0.1348 -0.0029 -0.0411
 3559DOPC   NC341752  27.774  29.812  12.660 -0.1396 -0.0078  0.2348
 3559DOPC   PO441753  27.440  29.654  12.486  0.1171  0.0257  0.0474
 3559DOPC   GL141754  27.590  29.277  12.697  0.0452  0.0614  0.0793
 3559DOPC   GL241755  27.479  29.409  12.927  0.0343 -0.0688 -0.0407
 3559DOPC   C1A41756  28.039  29.150  12.597 -0.2141 -0.2523  0.1825
 3559DOPC   D2A41757  28.436  28.981  12.716 -0.3867  0.0496  0.0304
 3559DOPC   C3A41758  28.423  28.789  13.195 -0.2887 -0.2268  0.1235
 3559DOPC   C4A41759  28.470  28.653  13.638  0.2931 -0.0100  0.0859
 3559DOPC   C1B41760  27.917  29.433  13.026 -0.1256 -0.1802  0.1017
 3559DOPC   D2B41761  28.359  29.299  13.147  0.0678  0.1985 -0.3231
 3559DOPC   C3B41762  28.468  29.344  13.595  0.1821 -0.1543 -0.0485
 3559DOPC   C4B41763  28.550  29.491  13.999 -0.1234 -0.1790  0.2748
 3560DOPS   CNO41764  22.827  33.471  12.524  0.2059 -0.1219  0.0703
 3560DOPS   PO441765  23.135  33.555  12.308 -0.1794 -0.0823  0.0765
 3560DOPS   GL141766  23.323  33.488  12.710  0.3663 -0.3460  0.2396
 3560DOPS   GL241767  23.608  33.427  12.577  0.1081 -0.2773  0.1994
 3560DOPS   C1A41768  23.172  33.408  13.165 -0.2672 -0.3013 -0.1077
 3560DOPS   D2A41769  23.287  33.534  13.549 -0.1173 -0.0845  0.2103
 3560DOPS   C3A41770  23.017  33.511  13.876  0.0275  0.2441  0.0143
 3560DOPS   C4A41771  22.624  33.466  14.073 -0.2115  0.0114 -0.3099
 3560DOPS   C1B41772  23.675  33.369  13.017  0.0385  0.0158  0.1183
 3560DOPS   D2B41773  23.699  33.266  13.454  0.1711 -0.1304 -0.0730
 3560DOPS   C3B41774  23.825  33.628  13.721  0.1031  0.4353 -0.1083
 3560DOPS   C4B41775  24.220  33.761  13.921 -0.0457 -0.2380  0.1725
 3561DOPE   NH341776  26.880  32.119  12.645 -0.2276  0.1965  0.2107
 3561DOPE   PO441777  26.989  32.364  12.489  0.2776 -0.3082  0.1929
 3561DOPE   GL141778  27.283  32.418  12.853  0.1806 -0.3258 -0.3317
 3561DOPE   GL241779  27.393  32.187  12.891 -0.1538 -0.1114  0.1061
 3561DOPE   C1A41780  27.701  32.648  12.973 -0.0849  0.0304  0.0050
 3561DOPE   D2A41781  28.000  32.918  13.224  0.0613  0.1589 -0.2415
 3561DOPE   C3A41782  28.021  33.154  13.635  0.1260 -0.2911  0.0749
 3561DOPE   C4A41783  27.713  33.466  13.834  0.1340  0.0172  0.0654
 3561DOPE   C1B41784  27.658  31.830  12.904  0.1012  0.3295  0.4283
 3561DOPE   D2B41785  27.953  31.630  13.243  0.1620  0.3341 -0.0961
 3561DOPE   C3B41786  28.385  31.563  13.488 -0.2318 -0.0484  0.4480
 3561DOPE   C4B41787  28.694  31.847  13.750  0.0568 -0.0501  0.0474
 3562DOPE   NH341788  34.198  25.666  12.567 -0.3980 -0.0796  0.0334
 3562DOPE   PO441789  33.962  25.717  12.396 -0.0090  0.3955 -0.0559
 3562DOPE   GL141790  33.679  25.627  12.606  0.1303  0.0483  0.1912
 3562DOPE   GL241791  33.364  25.706  12.513 -0.0758  0.2115  0.0503
 3562DOPE   C1A41792  33.813  25.773  13.037  0.0886  0.1214  0.4267
 3562DOPE   D2A41793  33.944  25.660  13.472  0.0494  0.3809 -0.0638
 3562DOPE   C3A41794  33.966  25.966  13.852 -0.1295 -0.1041  0.0639
 3562DOPE   C4A41795  33.695  26.203  14.152  0.2349  0.2001 -0.0253
 3562DOPE   C1B41796  33.216  25.628  12.932 -0.2291 -0.0566 -0.2000
 3562DOPE   D2B41797  33.464  25.442  13.304 -0.1936  0.1412  0.1905
 3562DOPE   C3B41798  33.305  25.437  13.724  0.2456 -0.1432 -0.0780
 3562DOPE   C4B41799  33.327  25.606  14.164 -0.1795  0.2673  0.1215
 3563DOPE   NH341800  30.241  27.669  12.980  0.3245 -0.2840 -0.0652
 3563DOPE   PO441801  29.962  27.636  13.075 -0.1108 -0.4178  0.3026
 3563DOPE   GL141802  30.051  27.591  13.406  0.0279  0.1517 -0.2195
 3563DOPE   GL241803  30.318  27.586  13.476 -0.0649  0.0333  0.1091
 3563DOPE   C1A41804  29.928  27.685  13.856 -0.1596  0.1608 -0.1407
 3563DOPE   D2A41805  29.993  27.788  14.269 -0.0146  0.0709 -0.0185
 3563DOPE   C3A41806  29.964  27.913  14.719 -0.1986 -0.1303  0.0102
 3563DOPE   C4A41807  30.120  28.074  15.166  0.0349 -0.0643 -0.1429
 3563DOPE   C1B41808  30.515  27.274  13.749 -0.0898 -0.1836  0.0212
 3563DOPE   D2B41809  30.721  26.914  13.922  0.1383  0.2234 -0.0173
 3563DOPE   C3B41810  30.855  26.905  14.353 -0.2134 -0.0731  0.0688
 3563DOPE   C4B41811  31.122  27.004  14.695 -0.0392  0.0178  0.0131
 3564DOPC   NC341812  29.326  25.063  13.043 -0.2817 -0.0629  0.0505
 3564DOPC   PO441813  29.216  25.329  12.806 -0.1570 -0.0597 -0.1340
 3564DOPC   GL141814  28.811  25.138  12.681 -0.1908 -0.1652 -0.1636
 3564DOPC   GL241815  28.630  25.257  12.527  0.2956 -0.1073 -0.0887
 3564DOPC   C1A41816  28.441  25.169  12.981 -0.2936  0.1502 -0.2318
 3564DOPC   D2A41817  28.088  25.076  13.295  0.0688  0.2145 -0.2136
 3564DOPC   C3A41818  28.021  24.658  13.403  0.0978 -0.3847 -0.0787
 3564DOPC   C4A41819  28.006  24.280  13.608  0.0153 -0.2603  0.1888
 3564DOPC   C1B41820  28.314  25.556  12.608 -0.3210  0.1658 -0.0317
 3564DOPC   D2B41821  27.873  25.444  12.683 -0.0299  0.0514  0.3228
 3564DOPC   C3B41822  27.652  25.216  13.093  0.3346  0.0683  0.3454
 3564DOPC   C4B41823  27.629  25.006  13.476  0.1299 -0.3907  0.2383
 3565DOPS   CNO41824  34.575  30.908  12.702  0.0322 -0.2032  0.0846
 3565DOPS   PO441825  34.676  30.717  13.036  0.1994 -0.1166  0.0672
 3565DOPS   GL141826  34.471  30.676  13.481 -0.1167  0.0519 -0.2455
 3565DOPS   GL241827  34.580  30.798  13.696 -0.1864 -0.0647  0.1411
 3565DOPS   C1A41828  34.145  30.472  13.708  0.3322  0.0006 -0.1556
 3565DOPS   D2A41829  33.851  30.233  13.987 -0.1090 -0.0021  0.0581
 3565DOPS   C3A41830  33.783  29.765  13.941 -0.1957 -0.1716 -0.2269
 3565DOPS   C4A41831  33.597  29.400  13.680  0.1228  0.0080 -0.2625
 3565DOPS   C1B41832  34.195  31.062  13.820  0.1930  0.1680  0.0046
 3565DOPS   D2B41833  33.785  30.935  14.055 -0.0862  0.0042 -0.3252
 3565DOPS   C3B41834  33.388  31.064  14.077  0.3539  0.0021 -0.0007
 3565DOPS   C4B41835  33.155  31.384  14.266 -0.3473 -0.0673 -0.0906
 3566DOPS   CNO41836  31.481  34.485  12.579 -0.2807 -0.0532 -0.0892
 3566DOPS   PO441837  31.354  34.312  12.856 -0.0657  0.0261  0.2387
 3566DOPS   GL141838  31.306  33.988  13.025  0.4885 -0.1579  0.0500
 3566DOPS   GL241839  31.046  33.914  12.913  0.0286 -0.1949  0.0426
 3566DOPS   C1A41840  31.323  33.631  13.319 -0.0417  0.1213  0.0910
 3566DOPS   D2A41841  31.514  33.563  13.712 -0.0734 -0.2287 -0.0418
 3566DOPS   C3A41842  31.594  33.288  14.023 -0.1724  0.1707  0.0471
 3566DOPS   C4A41843  31.435  32.909  14.247 -0.1743 -0.3382  0.3402
 3566DOPS   C1B41844  30.692  33.710  13.152  0.3043  0.0852  0.0078
 3566DOPS   D2B41845  30.432  33.575  13.480 -0.0544  0.2477  0.0142
 3566DOPS   C3B41846  30.131  33.404  13.789  0.0239  0.3559 -0.0655
 3566DOPS   C4B41847  29.757  33.101  13.790 -0.2438  0.1609  0.0514
 3567DOPC   NC341848  30.433  33.391  12.604  0.0066  0.2466  0.0275
 3567DOPC   PO441849  30.249  33.136  12.846  0.1239 -0.3227  0.1130
 3567DOPC   GL141850  30.133  33.091  13.166  0.1335 -0.2918  0.2378
 3567DOPC   GL241851  29.786  33.094  13.240  0.2898 -0.0825  0.0708
 3567DOPC   C1A41852  30.491  33.037  13.491 -0.1106 -0.2470  0.1505
 3567DOPC   D2A41853  30.852  32.812  13.775  0.0070 -0.0173  0.3918
 3567DOPC   C3A41854  31.231  33.137  13.743 -0.1108  0.0315 -0.0484
 3567DOPC   C4A41855  31.550  33.200  13.374  0.3158 -0.0000  0.1536
 3567DOPC   C1B41856  29.996  32.778  13.487 -0.0553  0.2912  0.3764
 3567DOPC   D2B41857  29.766  32.585  13.851  0.2101 -0.2431  0.0453
 3567DOPC   C3B41858  30.003  32.815  14.122 -0.1294  0.2933  0.1763
 3567DOPC   C4B41859  30.456  32.830  14.054 -0.3546  0.2698 -0.1602
 3568DOPS   CNO41860  25.789  27.752  12.238  0.0080 -0.1655  0.0874
 3568DOPS   PO441861  26.012  27.887  12.524 -0.2648 -0.2196 -0.2015
 3568DOPS   GL141862  26.071  27.906  12.894 -0.0393 -0.0700 -0.0354
 3568DOPS   GL241863  26.244  27.715  12.910 -0.0843 -0.0255 -0.0844
 3568DOPS   C1A41864  25.865  27.733  13.359 -0.0148 -0.1079  0.1133
 3568DOPS   D2A41865  25.427  27.561  13.550  0.0890 -0.1484  0.1764
 3568DOPS   C3A41866  25.221  27.722  13.942 -0.0097 -0.3272  0.0411
 3568DOPS   C4A41867  25.254  27.757  14.392  0.0779  0.0977  0.2466
 3568DOPS   C1B41868  26.686  27.800  13.026  0.0979  0.0183  0.1626
 3568DOPS   D2B41869  26.976  27.456  13.161  0.0239  0.1801  0.1899
 3568DOPS   C3B41870  27.028  27.122  13.531 -0.2831 -0.1025  0.0292
 3568DOPS   C4B41871  27.393  26.859  13.708 -0.0743  0.0266 -0.1031
 3569DOPS   CNO41872  26.986  30.373  12.716 -0.1305  0.2776 -0.0829
 3569DOPS   PO441873  27.075  30.427  13.066 -0.1024 -0.0445 -0.1763
 3569DOPS   GL141874  26.873  30.287  13.464 -0.0658 -0.1978 -0.2939
 3569DOPS   GL241875  26.867  30.673  13.429 -0.1198 -0.0650 -0.0159
 3569DOPS   C1A41876  27.109  30.091  13.771  0.0264  0.1638 -0.2279
 3569DOPS   D2A41877  27.360  30.036  14.170  0.1746  0.0384 -0.0133
 3569DOPS   C3A41878  27.668  29.665  14.035  0.0922 -0.0958 -0.0153
 3569DOPS   C4A41879  28.066  29.384  14.128 -0.0681  0.0789  0.3199
 3569DOPS   C1B41880  26.854  30.467  13.884 -0.0927 -0.3228 -0.2710
 3569DOPS   D2B41881  26.895  30.328  14.331 -0.2318  0.4067  0.1115
 3569DOPS   C3B41882  26.627  30.185  14.675  0.3130  0.0579 -0.1689
 3569DOPS   C4B41883  26.394  30.014  15.027 -0.0675  0.1264 -0.3632
 3570DOPC   NC341884  24.076  31.369  12.155 -0.2686  0.0556  0.1798
 3570DOPC   PO441885  24.401  31.476  12.326  0.0948  0.2109 -0.0674
 3570DOPC   GL141886  24.588  31.796  12.412  0.0977  0.0878 -0.0441
 3570DOPC   GL241887  24.525  32.196  12.460 -0.2903 -0.3896 -0.0595
 3570DOPC   C1A41888  24.947  31.948  12.542 -0.0050 -0.3010  0.2415
 3570DOPC   D2A41889  25.144  32.097  12.930 -0.2111  0.1329 -0.1462
 3570DOPC   C3A41890  25.141  31.904  13.405 -0.2869  0.0308 -0.1605
 3570DOPC   C4A41891  25.332  31.728  13.832  0.0541 -0.0209 -0.0089
 3570DOPC   C1B41892  24.463  32.417  12.837 -0.1101  0.1669  0.2608
 3570DOPC   D2B41893  24.733  32.479  13.184  0.2539  0.2379 -0.1866
 3570DOPC   C3B41894  25.020  32.811  13.202 -0.0442 -0.0076  0.2026
 3570DOPC   C4B41895  25.358  33.136  13.306 -0.3236  0.1874  0.2570
 3571DOPE   NH341896  32.954  23.655  12.800  0.0977  0.2174 -0.1054
 3571DOPE   PO441897  33.188  23.766  12.992  0.1271 -0.0835  0.1538
 3571DOPE   GL141898  33.079  23.472  13.268  0.2934  0.0893  0.1945
 3571DOPE   GL241899  32.903  23.752  13.474 -0.1423  0.0362  0.1079
 3571DOPE   C1A41900  33.078  23.046  13.501  0.1517 -0.3316  0.2590
 3571DOPE   D2A41901  33.301  22.845  13.874  0.1172 -0.0004 -0.0644
 3571DOPE   C3A41902  33.357  22.408  13.956 -0.0089  0.0893  0.0962
 3571DOPE   C4A41903  33.409  21.928  13.896  0.1245  0.2050  0.0233
 3571DOPE   C1B41904  33.165  23.456  13.790  0.0853 -0.0230 -0.0149
 3571DOPE   D2B41905  33.377  23.276  14.234  0.2275 -0.4786  0.1322
 3571DOPE   C3B41906  33.707  23.542  14.385 -0.1913 -0.0730  0.1959
 3571DOPE   C4B41907  33.627  23.823  14.697  0.0816 -0.1091  0.1318
 3572DOPE   NH341908  23.026   0.255  12.653  0.0716 -0.0326 -0.0194
 3572DOPE   PO441909  23.339   0.155  12.708 -0.0703  0.0138 -0.0450
 3572DOPE   GL141910  23.598   0.140  12.914  0.1510 -0.2637  0.1711
 3572DOPE   GL241911  23.772  -0.121  12.854 -0.1000 -0.0804  0.0364
 3572DOPE   C1A41912  23.740   0.134  13.360  0.0277 -0.1655 -0.0590
 3572DOPE   D2A41913  23.688   0.475  13.683  0.0349  0.3467 -0.0025
 3572DOPE   C3A41914  23.631   0.304  14.112  0.0210 -0.1641 -0.1735
 3572DOPE   C4A41915  23.803   0.322  14.560  0.0665 -0.1214  0.1536
 3572DOPE   C1B41916  24.076  -0.500  13.001  0.1707  0.0269  0.3857
 3572DOPE   D2B41917  24.499  -0.720  12.999  0.2266  0.0548 -0.2505
 3572DOPE   C3B41918  24.715  -0.834  13.387 -0.0292 -0.0665  0.0784
 3572DOPE   C4B41919  25.019  -0.592  13.677 -0.0186  0.0461 -0.0503
 3573POSM   NC341920  29.798  26.099  13.233  0.0921 -0.0538  0.5696
 3573POSM   PO441921  29.669  26.469  13.294  0.1421 -0.0854  0.0389
 3573POSM   AM141922  29.446  26.387  13.568 -0.0246 -0.0288 -0.3705
 3573POSM   AM241923  29.484  26.122  13.683 -0.2052 -0.0292 -0.3226
 3573POSM   T1A41924  29.024  26.250  13.827 -0.1231 -0.1394 -0.0356
 3573POSM   C2A41925  28.854  26.020  14.224 -0.2369 -0.0728 -0.0164
 3573POSM   C3A41926  28.492  25.792  14.444  0.0344 -0.1223  0.1139
 3573POSM   C1B41927  29.465  26.145  14.054 -0.1034  0.3308  0.2470
 3573POSM   D2B41928  29.337  26.434  14.342  0.0223  0.1353  0.1411
 3573POSM   C3B41929  28.895  26.510  14.366 -0.0424  0.1604 -0.2528
 3573POSM   C4B41930  28.473  26.363  14.380  0.1323 -0.1884  0.0552
 3574DOPS   CNO41931   0.106  34.391  12.299 -0.0089  0.5302 -0.1580
 3574DOPS   PO441932  -0.017  33.997  12.291  0.0419 -0.1310 -0.0795
 3574DOPS   GL141933  -0.376  33.818  12.343  0.3167 -0.2199  0.0883
 3574DOPS   GL241934  -0.403  33.488  12.371  0.0590  0.0875 -0.0726
 3574DOPS   C1A41935  -0.771  33.822  12.107  0.1179 -0.1883 -0.2245
 3574DOPS   D2A41936  -1.171  33.679  12.084  0.2353  0.2858  0.1383
 3574DOPS   C3A41937  -1.362  33.387  12.393  0.3265  0.1562 -0.0199
 3574DOPS   C4A41938  -1.677  33.270  12.654 -0.0230 -0.1534 -0.6223
 3574DOPS   C1B41939  -0.831  33.353  12.452 -0.2249 -0.2309 -0.0525
 3574DOPS   D2B41940  -1.124  33.138  12.777 -0.1571  0.1269  0.2246
 3574DOPS   C3B41941  -1.306  32.805  13.073 -0.4376 -0.3434 -0.0534
 3574DOPS   C4B41942  -1.195  32.634  13.531  0.0829  0.1258 -0.1113
 3575DOPC   NC341943  30.351  25.695  13.175 -0.3316  0.2087  0.0549
 3575DOPC   PO441944  30.372  25.295  13.134 -0.1780  0.0157  0.1090
 3575DOPC   GL141945  30.485  25.054  13.382 -0.0092 -0.0718  0.3482
 3575DOPC   GL241946  30.235  24.920  13.434  0.1147 -0.1333 -0.0434
 3575DOPC   C1A41947  30.529  25.005  13.835  0.3271  0.1688 -0.1919
 3575DOPC   D2A41948  30.288  25.050  14.233  0.1114  0.0734 -0.2028
 3575DOPC   C3A41949  30.427  25.209  14.714 -0.0715  0.1524  0.0310
 3575DOPC   C4A41950  30.778  25.008  14.862  0.0588 -0.2291 -0.3554
 3575DOPC   C1B41951  29.931  24.812  13.795  0.1146  0.1786  0.0381
 3575DOPC   D2B41952  29.664  24.772  14.143  0.1480  0.0613  0.3175
 3575DOPC   C3B41953  29.785  25.014  14.502 -0.0216  0.2293 -0.1930
 3575DOPC   C4B41954  29.991  25.135  14.905  0.0268 -0.0533  0.2402
 3576DOPE   NH341955  23.666  26.895  12.714 -0.1791  0.0317  0.0213
 3576DOPE   PO441956  23.764  26.728  12.902  0.2950 -0.0641 -0.3721
 3576DOPE   GL141957  23.621  26.628  13.205 -0.1451  0.1647 -0.0490
 3576DOPE   GL241958  23.621  26.706  13.496 -0.2502 -0.0244  0.1210
 3576DOPE   C1A41959  23.625  26.233  13.451  0.0838 -0.0358 -0.4692
 3576DOPE   D2A41960  23.405  25.852  13.549 -0.0242 -0.2994  0.2507
 3576DOPE   C3A41961  23.295  25.756  13.967  0.1404 -0.2365 -0.0843
 3576DOPE   C4A41962  23.343  25.355  14.240 -0.0529 -0.0541  0.2524
 3576DOPE   C1B41963  23.503  26.603  13.920 -0.1153  0.2951  0.4757
 3576DOPE   D2B41964  23.652  26.126  14.024  0.1677  0.1097  0.4044
 3576DOPE   C3B41965  23.774  25.706  13.835 -0.2158 -0.1918  0.2598
 3576DOPE   C4B41966  23.836  25.472  13.420  0.1518  0.0799  0.3853
 3577DOPS   CNO41967  29.703  25.842  12.529 -0.1679  0.0254  0.1947
 3577DOPS   PO441968  29.952  25.852  12.808 -0.0268  0.4118 -0.0947
 3577DOPS   GL141969  29.925  25.601  13.161 -0.0011  0.0371 -0.2548
 3577DOPS   GL241970  29.876  25.392  13.063 -0.2110  0.0344 -0.2116
 3577DOPS   C1A41971  29.587  25.568  13.479 -0.1861  0.0040  0.1604
 3577DOPS   D2A41972  29.161  25.361  13.406 -0.4477  0.3119 -0.0111
 3577DOPS   C3A41973  28.865  25.069  13.249 -0.0457  0.0029 -0.3458
 3577DOPS   C4A41974  28.529  24.773  13.329 -0.0708 -0.3341  0.1196
 3577DOPS   C1B41975  29.777  25.133  13.431  0.0624 -0.0358 -0.0179
 3577DOPS   D2B41976  29.893  25.309  13.824 -0.1062  0.0649 -0.2194
 3577DOPS   C3B41977  30.298  25.575  14.005  0.2979 -0.2242 -0.3918
 3577DOPS   C4B41978  30.477  25.913  13.856  0.0272 -0.0167  0.0006
 3578DOPS   CNO41979  32.035  30.546  12.450  0.1024 -0.0575 -0.0107
 3578DOPS   PO441980  32.401  30.597  12.563  0.3026  0.1205 -0.1764
 3578DOPS   GL141981  32.673  30.758  12.733  0.5337  0.2951 -0.1755
 3578DOPS   GL241982  32.635  30.912  12.981 -0.1875  0.0602  0.3537
 3578DOPS   C1A41983  32.887  31.162  12.574 -0.1261  0.3168 -0.0039
 3578DOPS   D2A41984  32.942  31.621  12.668  0.2463  0.0474 -0.2759
 3578DOPS   C3A41985  32.952  31.966  13.041 -0.1349  0.2036  0.2359
 3578DOPS   C4A41986  32.765  31.984  13.433 -0.0164  0.2633  0.1828
 3578DOPS   C1B41987  32.508  31.309  12.848  0.3200 -0.0503 -0.0592
 3578DOPS   D2B41988  32.288  31.753  12.831 -0.0326 -0.3056 -0.0313
 3578DOPS   C3B41989  31.937  32.101  12.865  0.0666  0.1985 -0.0477
 3578DOPS   C4B41990  31.737  32.398  12.607 -0.0544  0.0780 -0.3509
 3579DOPE   NH341991  23.075  33.903  12.677  0.1718  0.1812 -0.1580
 3579DOPE   PO441992  22.791  33.955  12.644  0.0176 -0.0500  0.1152
 3579DOPE   GL141993  22.831  33.971  13.041 -0.1509 -0.0028  0.0507
 3579DOPE   GL241994  22.783  33.707  13.123  0.0903  0.1209 -0.2019
 3579DOPE   C1A41995  23.249  33.864  13.196  0.0332 -0.0053 -0.1716
 3579DOPE   D2A41996  23.721  33.776  13.256 -0.2664  0.0447  0.3426
 3579DOPE   C3A41997  24.165  33.866  13.384 -0.0866 -0.1173  0.1023
 3579DOPE   C4A41998  24.434  34.265  13.537  0.2924 -0.2637  0.0273
 3579DOPE   C1B41999  22.776  33.456  13.453 -0.4498 -0.0542  0.0301
 3579DOPE   D2B42000  22.615  33.125  13.698 -0.0135  0.0237  0.2620
 3579DOPE   C3B42001  22.839  32.970  14.078  0.2810  0.0102  0.2371
 3579DOPE   C4B42002  22.866  32.806  14.529  0.0783 -0.0020 -0.0260
 3580DOPE   NH342003  27.327  30.116  13.310  0.0597 -0.0028 -0.0225
 3580DOPE   PO442004  27.370  29.990  13.031 -0.1819  0.0605  0.0998
 3580DOPE   GL142005  27.700  29.811  13.155 -0.1612 -0.3499  0.0936
 3580DOPE   GL242006  27.590  29.643  13.421  0.1551 -0.2948 -0.1044
 3580DOPE   C1A42007  28.111  29.779  13.334  0.0807  0.2980  0.0813
 3580DOPE   D2A42008  28.360  30.051  13.662 -0.0859 -0.2864  0.2748
 3580DOPE   C3A42009  28.780  30.006  13.811  0.2239  0.0398 -0.1586
 3580DOPE   C4A42010  28.981  30.133  14.143 -0.0339  0.0408  0.1803
 3580DOPE   C1B42011  27.881  29.377  13.595  0.1779 -0.0795  0.0542
 3580DOPE   D2B42012  28.153  28.999  13.759 -0.1503 -0.0533  0.1713
 3580DOPE   C3B42013  27.904  28.656  13.595  0.3184  0.0367  0.0928
 3580DOPE   C4B42014  27.566  28.343  13.520 -0.2855  0.1986 -0.2757
 3581POSM   NC342015  33.466  23.349  12.983 -0.2007  0.1015  0.0703
 3581POSM   PO442016  33.725  23.614  12.919 -0.3282  0.0111 -0.0235
 3581POSM   AM142017  33.681  23.662  13.249 -0.0467 -0.1042  0.0895
 3581POSM   AM242018  33.462  23.754  13.383  0.2403 -0.0974 -0.2254
 3581POSM   T1A42019  33.981  23.881  13.564  0.1117 -0.1956 -0.2416
 3581POSM   C2A42020  34.161  24.221  13.798  0.1943  0.4280  0.0658
 3581POSM   C3A42021  34.485  24.460  14.041 -0.0318 -0.1895  0.2961
 3581POSM   C1B42022  33.440  23.962  13.616  0.2477  0.0645 -0.1171
 3581POSM   D2B42023  33.667  24.072  14.013 -0.0869  0.1926 -0.0880
 3581POSM   C3B42024  34.096  23.968  14.272 -0.2977  0.1832  0.2376
 3581POSM   C4B42025  34.492  24.133  14.439 -0.1510  0.0861  0.4212
 3582DOPC   NC342026  30.904  27.768  12.876  0.0020 -0.2244 -0.1999
 3582DOPC   PO442027  30.643  27.473  12.773 -0.2950 -0.1170  0.1533
 3582DOPC   GL142028  30.811  27.370  13.112  0.2677 -0.3276 -0.0358
 3582DOPC   GL242029  30.773  27.480  13.371 -0.4238  0.1605  0.2904
 3582DOPC   C1A42030  31.215  27.521  13.255 -0.1377 -0.0471  0.1652
 3582DOPC   D2A42031  31.420  27.882  13.499 -0.1084 -0.1518 -0.0355
 3582DOPC   C3A42032  31.502  28.084  13.963  0.1111 -0.1338  0.0555
 3582DOPC   C4A42033  31.599  28.426  14.247  0.1733 -0.1238  0.0554
 3582DOPC   C1B42034  30.920  27.772  13.650  0.3662  0.1906  0.1758
 3582DOPC   D2B42035  30.941  28.068  13.954 -0.0361 -0.0761  0.0403
 3582DOPC   C3B42036  31.179  27.976  14.331  0.5361  0.1142 -0.0531
 3582DOPC   C4B42037  31.440  28.241  14.657 -0.1645 -0.2858 -0.1244
 3583DOPC   NC342038  26.338  29.841  12.996  0.0667 -0.0545 -0.2758
 3583DOPC   PO442039  26.467  29.600  12.706 -0.0276 -0.2147  0.1198
 3583DOPC   GL142040  26.655  29.552  13.102 -0.1300 -0.1992  0.1667
 3583DOPC   GL242041  26.985  29.439  12.970 -0.1172 -0.0002  0.3571
 3583DOPC   C1A42042  26.710  29.156  13.333  0.3272 -0.1782 -0.0471
 3583DOPC   D2A42043  26.701  28.748  13.524  0.0915  0.0995 -0.0043
 3583DOPC   C3A42044  26.996  28.389  13.560  0.0957 -0.1063 -0.1837
 3583DOPC   C4A42045  27.266  28.064  13.726  0.0288 -0.0173 -0.0546
 3583DOPC   C1B42046  27.186  29.302  13.382 -0.3473 -0.0378 -0.1241
 3583DOPC   D2B42047  27.455  29.262  13.757  0.1433 -0.0471 -0.0208
 3583DOPC   C3B42048  27.746  28.939  13.974  0.1653 -0.0327  0.0479
 3583DOPC   C4B42049  28.092  28.657  14.122  0.2717 -0.2035  0.2307
 3584DOPE   NH342050  32.086  34.465  12.474 -0.0692 -0.0205  0.2880
 3584DOPE   PO442051  32.427  34.508  12.509 -0.1249 -0.3414 -0.1310
 3584DOPE   GL142052  32.553  34.401  12.900 -0.0405  0.2019  0.3148
 3584DOPE   GL242053  32.723  34.196  12.737  0.0855  0.2210 -0.4190
 3584DOPE   C1A42054  32.255  34.503  13.223 -0.0452 -0.3262 -0.0976
 3584DOPE   D2A42055  32.062  34.915  13.355 -0.3193  0.1195 -0.0941
 3584DOPE   C3A42056  31.846  35.025  13.740 -0.0670  0.0031 -0.0073
 3584DOPE   C4A42057  31.548  34.928  14.150  0.2116  0.1256  0.3175
 3584DOPE   C1B42058  32.549  34.071  13.164 -0.1239  0.0882 -0.1139
 3584DOPE   D2B42059  32.329  33.777  13.403 -0.2252 -0.3260  0.0313
 3584DOPE   C3B42060  32.366  33.631  13.825  0.2251 -0.0452 -0.1547
 3584DOPE   C4B42061  32.623  33.542  14.232  0.1897 -0.1039  0.2237
 3585POSM   NC342062  33.723  34.071  12.493  0.0590  0.1701 -0.0021
 3585POSM   PO442063  33.849  34.490  12.440  0.2709 -0.1381 -0.0388
 3585POSM   AM142064  33.831  34.410  12.768  0.0991 -0.6213 -0.1966
 3585POSM   AM242065  33.847  34.523  13.013 -0.1720 -0.1500  0.3104
 3585POSM   T1A42066  33.603  34.094  13.127 -0.0062 -0.1946  0.0092
 3585POSM   C2A42067  33.470  33.738  13.430  0.2336  0.0331 -0.0510
 3585POSM   C3A42068  33.296  33.631  13.833 -0.5219  0.0950 -0.0056
 3585POSM   C1B42069  33.966  34.443  13.277 -0.1216 -0.0816 -0.0110
 3585POSM   D2B42070  33.932  34.446  13.732 -0.4565 -0.0906  0.3205
 3585POSM   C3B42071  33.497  34.513  13.921 -0.0619  0.0601  0.1131
 3585POSM   C4B42072  33.093  34.619  14.088 -0.3741 -0.0065 -0.1274
 3586DOPE   NH342073  30.000  29.971  12.739  0.0326 -0.1633 -0.1084
 3586DOPE   PO442074  29.796  29.922  12.992  0.0102  0.2701  0.0280
 3586DOPE   GL142075  29.559  29.815  13.248 -0.0695 -0.0881 -0.4933
 3586DOPE   GL242076  29.711  29.711  13.442 -0.0745  0.2101 -0.0120
 3586DOPE   C1A42077  29.160  29.967  13.484 -0.0518 -0.1188 -0.1495
 3586DOPE   D2A42078  29.138  30.444  13.651 -0.0804 -0.1043  0.2426
 3586DOPE   C3A42079  29.288  30.501  14.059  0.0170  0.3521 -0.0360
 3586DOPE   C4A42080  29.208  30.379  14.490  0.1204  0.2173 -0.2609
 3586DOPE   C1B42081  29.475  29.829  13.820  0.0575 -0.1544  0.0534
 3586DOPE   D2B42082  29.561  29.979  14.278 -0.5887 -0.2771  0.0488
 3586DOPE   C3B42083  29.717  29.671  14.577  0.1836 -0.1410 -0.1597
 3586DOPE   C4B42084  29.950  29.280  14.723  0.0579 -0.0261  0.2096
 3587DOPC   NC342085  31.055  29.853  12.762 -0.0378  0.3756 -0.0064
 3587DOPC   PO442086  30.935  29.585  13.021 -0.0341  0.0030  0.2082
 3587DOPC   GL142087  31.020  29.303  13.304  0.5045 -0.0741 -0.2934
 3587DOPC   GL242088  30.722  29.261  13.303  0.1202  0.0116 -0.3197
 3587DOPC   C1A42089  31.011  29.462  13.768  0.3544 -0.0170  0.3853
 3587DOPC   D2A42090  31.026  29.940  13.887  0.1139 -0.2624  0.3187
 3587DOPC   C3A42091  31.237  29.989  14.311 -0.0179 -0.0194  0.2165
 3587DOPC   C4A42092  31.286  30.153  14.711  0.2137 -0.0463  0.3338
 3587DOPC   C1B42093  30.619  29.128  13.729  0.3783  0.1222 -0.0436
 3587DOPC   D2B42094  30.534  29.051  14.169 -0.2936 -0.0951  0.0481
 3587DOPC   C3B42095  30.767  28.702  14.312  0.0646  0.1082  0.3003
 3587DOPC   C4B42096  30.836  28.318  14.529  0.1225 -0.0576  0.3631
 3588DOPS   CNO42097  25.621  24.222  12.123  0.1865 -0.1950  0.1354
 3588DOPS   PO442098  25.538  24.614  12.095 -0.2225 -0.4048 -0.0570
 3588DOPS   GL142099  25.254  24.769  12.267 -0.0798 -0.1239  0.2388
 3588DOPS   GL242100  25.273  24.861  12.507 -0.3552  0.0499 -0.1326
 3588DOPS   C1A42101  24.804  24.731  12.144  0.0527 -0.2422  0.0476
 3588DOPS   D2A42102  24.357  24.897  12.161  0.1077  0.0394  0.0455
 3588DOPS   C3A42103  24.213  25.351  12.104  0.1517 -0.0533 -0.0233
 3588DOPS   C4A42104  23.973  25.810  12.159  0.0580 -0.2179 -0.0614
 3588DOPS   C1B42105  25.201  24.808  12.954 -0.1608 -0.4153 -0.0382
 3588DOPS   D2B42106  24.975  24.568  13.247  0.3320  0.0767  0.1503
 3588DOPS   C3B42107  25.166  24.570  13.682  0.2569 -0.1444  0.1179
 3588DOPS   C4B42108  25.496  24.713  14.002 -0.1080 -0.1947 -0.2487
 3589DOPE   NH342109  26.922  32.675  12.920 -0.2262  0.0127  0.1606
 3589DOPE   PO442110  26.826  32.859  13.152 -0.1362  0.1524  0.0827
 3589DOPE   GL142111  27.062  32.813  13.411 -0.0055 -0.0870 -0.0427
 3589DOPE   GL242112  27.239  32.619  13.278  0.0654 -0.0189 -0.1490
 3589DOPE   C1A42113  27.104  32.594  13.825  0.0591 -0.5273  0.3031
 3589DOPE   D2A42114  27.224  32.521  14.312  0.3194 -0.0692  0.1379
 3589DOPE   C3A42115  27.645  32.635  14.503  0.0331 -0.0964  0.0517
 3589DOPE   C4A42116  28.125  32.644  14.388  0.2038  0.4193 -0.2160
 3589DOPE   C1B42117  27.628  32.720  13.559 -0.0061 -0.2079 -0.1069
 3589DOPE   D2B42118  27.980  32.740  13.882 -0.0742 -0.0623  0.1986
 3589DOPE   C3B42119  28.079  33.157  14.152 -0.0831  0.1372 -0.0414
 3589DOPE   C4B42120  27.768  33.358  14.494 -0.2088 -0.3566  0.0693
 3590DOPE   NH342121  26.419  28.210  12.741 -0.1354  0.0503  0.0832
 3590DOPE   PO442122  26.148  28.398  12.726 -0.0705  0.0422  0.3729
 3590DOPE   GL142123  26.234  28.387  13.103 -0.0991 -0.1986  0.3637
 3590DOPE   GL242124  26.101  28.187  13.232 -0.1121  0.1734 -0.1158
 3590DOPE   C1A42125  26.601  28.210  13.305 -0.3999  0.1080  0.2870
 3590DOPE   D2A42126  26.841  27.914  13.613 -0.4681 -0.2276  0.0427
 3590DOPE   C3A42127  26.626  27.966  14.002 -0.1336  0.0634 -0.1462
 3590DOPE   C4A42128  26.190  27.810  14.153  0.1604 -0.2329 -0.0362
 3590DOPE   C1B42129  26.311  27.829  13.499  0.3287  0.0083 -0.1643
 3590DOPE   D2B42130  26.206  27.462  13.780 -0.1002 -0.1455  0.4475
 3590DOPE   C3B42131  25.841  27.129  13.668 -0.1746 -0.0369 -0.1187
 3590DOPE   C4B42132  25.459  26.998  13.390  0.2220  0.0640 -0.1607
 3591DOPS   CNO42133  34.405   0.085  12.326  0.1647  0.2258 -0.0126
 3591DOPS   PO442134  34.215   0.062  12.683 -0.0835 -0.1081  0.3433
 3591DOPS   GL142135  34.315  -0.051  12.989  0.1566  0.1095  0.2823
 3591DOPS   GL242136  34.401  -0.230  13.141 -0.4287 -0.2729 -0.0076
 3591DOPS   C1A42137  34.307   0.172  13.422 -0.0650 -0.0505  0.3340
 3591DOPS   D2A42138  34.390   0.342  13.820 -0.1399  0.3794 -0.2012
 3591DOPS   C3A42139  34.311  -0.033  14.111  0.1437  0.2059  0.1528
 3591DOPS   C4A42140  33.934  -0.288  14.195  0.0207 -0.1528  0.1023
 3591DOPS   C1B42141  34.550  -0.356  13.569 -0.0962  0.2472  0.3589
 3591DOPS   D2B42142  34.322  -0.530  13.954 -0.1706 -0.0602  0.1703
 3591DOPS   C3B42143  34.203  -0.673  14.344 -0.1007  0.0145 -0.1488
 3591DOPS   C4B42144  34.342  -0.661  14.783 -0.1394 -0.1350 -0.3527
 3592DOPE   NH342145  34.025  26.240  12.235 -0.1446  0.0355  0.0395
 3592DOPE   PO442146  34.272  26.149  12.403  0.0089  0.0810 -0.4928
 3592DOPE   GL142147  34.340  26.076  12.777 -0.4839 -0.1641  0.1694
 3592DOPE   GL242148  34.621  25.966  12.741  0.1732  0.1315  0.0504
 3592DOPE   C1A42149  34.219  25.979  13.230  0.2963  0.3546  0.2696
 3592DOPE   D2A42150  33.892  26.236  13.455 -0.1657 -0.3149  0.1767
 3592DOPE   C3A42151  33.553  26.380  13.709 -0.1856  0.3384  0.0586
 3592DOPE   C4A42152  33.233  26.665  13.553  0.0631  0.1246 -0.3046
 3592DOPE   C1B42153  34.503  25.595  13.053  0.2771  0.1892 -0.2876
 3592DOPE   D2B42154  34.586  25.166  13.058 -0.1329  0.0910 -0.3122
 3592DOPE   C3B42155  34.922  24.863  13.065  0.0039  0.0468 -0.3834
 3592DOPE   C4B42156  35.344  24.707  13.169 -0.1451  0.0402 -0.0618
 3593DOPS   CNO42157  29.694  25.260  12.628  0.2894  0.0956  0.3107
 3593DOPS   PO442158  29.413  25.037  12.430  0.0446  0.1887  0.1337
 3593DOPS   GL142159  29.100  24.826  12.632 -0.0249  0.1749  0.1421
 3593DOPS   GL242160  29.062  24.471  12.673  0.1578 -0.0512 -0.1930
 3593DOPS   C1A42161  28.709  24.760  12.856 -0.0429 -0.1723 -0.0594
 3593DOPS   D2A42162  28.306  24.505  12.828 -0.0493 -0.0824 -0.0573
 3593DOPS   C3A42163  27.883  24.738  12.958 -0.4795 -0.0419  0.0967
 3593DOPS   C4A42164  27.530  24.623  13.137 -0.1595  0.2656 -0.2116
 3593DOPS   C1B42165  28.734  24.242  12.899  0.0748  0.1194  0.1465
 3593DOPS   D2B42166  28.292  24.033  12.896 -0.1504 -0.0393 -0.3255
 3593DOPS   C3B42167  28.362  23.652  13.159 -0.3717 -0.5182  0.0475
 3593DOPS   C4B42168  28.195  23.478  13.489  0.0874  0.2125 -0.3044
 3594DOPS   CNO42169  33.549  23.905  12.163  0.0204 -0.0388 -0.4696
 3594DOPS   PO442170  33.790  23.861  12.474 -0.0441  0.0525  0.1895
 3594DOPS   GL142171  33.898  24.057  12.754  0.2716 -0.0565  0.0703
 3594DOPS   GL242172  33.722  24.103  13.032 -0.1506  0.1255  0.0662
 3594DOPS   C1A42173  34.237  23.955  13.084 -0.1457  0.2630 -0.0689
 3594DOPS   D2A42174  34.532  24.013  13.496 -0.0826 -0.2553 -0.4437
 3594DOPS   C3A42175  34.475  23.860  13.904 -0.1052  0.3060 -0.3569
 3594DOPS   C4A42176  34.416  23.552  14.260 -0.1893  0.0653  0.3318
 3594DOPS   C1B42177  33.528  24.393  13.328  0.2137  0.0169  0.2327
 3594DOPS   D2B42178  33.638  24.509  13.764  0.0682  0.3087  0.0198
 3594DOPS   C3B42179  34.031  24.704  13.640  0.0281  0.0131 -0.1525
 3594DOPS   C4B42180  34.244  24.903  13.278  0.1101 -0.0290  0.0060
 3595DOPC   NC342181  26.534  25.015  12.437 -0.0984 -0.1125 -0.0065
 3595DOPC   PO442182  26.579  24.914  12.768  0.1183  0.2417  0.1407
 3595DOPC   GL142183  26.838  24.699  12.966  0.0159  0.2377  0.5389
 3595DOPC   GL242184  27.057  24.844  12.865  0.0669 -0.0489 -0.2494
 3595DOPC   C1A42185  27.106  24.381  13.142 -0.0284 -0.2678 -0.0820
 3595DOPC   D2A42186  27.297  24.097  13.418 -0.4295 -0.1996  0.5076
 3595DOPC   C3A42187  27.683  23.960  13.726 -0.1991 -0.0655 -0.1774
 3595DOPC   C4A42188  28.075  23.767  13.844  0.1266 -0.1319 -0.0895
 3595DOPC   C1B42189  27.183  25.027  13.275  0.1684 -0.0193  0.0754
 3595DOPC   D2B42190  27.108  25.153  13.699  0.3335 -0.2241  0.2490
 3595DOPC   C3B42191  27.320  24.913  13.876 -0.0581  0.3252 -0.0783
 3595DOPC   C4B42192  27.608  24.934  14.259 -0.2024 -0.0632 -0.3250
 3596DOPC   NC342193  33.123  29.550  12.366 -0.0187 -0.0510 -0.2933
 3596DOPC   PO442194  33.290  29.869  12.525 -0.2280 -0.0859  0.1710
 3596DOPC   GL142195  33.195  29.809  12.916 -0.2181 -0.0379  0.2041
 3596DOPC   GL242196  33.418  29.563  12.861 -0.0863  0.0760  0.3365
 3596DOPC   C1A42197  33.022  29.538  13.225 -0.0136 -0.0545 -0.0275
 3596DOPC   D2A42198  33.003  29.476  13.711  0.1543 -0.0956 -0.1796
 3596DOPC   C3A42199  33.159  29.061  13.836  0.0109 -0.1321 -0.2372
 3596DOPC   C4A42200  33.500  28.803  13.990  0.0479 -0.1568  0.1100
 3596DOPC   C1B42201  33.494  29.729  13.283  0.0739 -0.3858  0.0419
 3596DOPC   D2B42202  33.151  29.941  13.525 -0.3719 -0.4511 -0.3272
 3596DOPC   C3B42203  33.201  30.081  13.956 -0.3111 -0.1483  0.0313
 3596DOPC   C4B42204  33.490  30.084  14.314 -0.1129  0.3889  0.2494
 3597DOPE   NH342205  29.835  27.190  12.845 -0.2192 -0.0835 -0.1031
 3597DOPE   PO442206  29.837  27.153  13.165  0.1904  0.0111 -0.0431
 3597DOPE   GL142207  29.722  26.911  13.414 -0.1549  0.2443 -0.2777
 3597DOPE   GL242208  29.570  27.076  13.628 -0.3779 -0.0572 -0.2719
 3597DOPE   C1A42209  29.860  26.670  13.808 -0.0083 -0.1993  0.4493
 3597DOPE   D2A42210  30.217  26.735  14.025 -0.0259  0.0121 -0.0848
 3597DOPE   C3A42211  30.316  26.941  14.416 -0.0461  0.0657  0.1920
 3597DOPE   C4A42212  30.578  27.078  14.778 -0.0390 -0.0992  0.2368
 3597DOPE   C1B42213  29.329  27.293  13.863 -0.0127  0.0703  0.3693
 3597DOPE   D2B42214  29.494  27.624  14.062 -0.1902  0.0128  0.2798
 3597DOPE   C3B42215  29.489  27.755  14.510 -0.0772 -0.0187 -0.4365
 3597DOPE   C4B42216  29.232  27.518  14.828 -0.0022  0.0965  0.3727
 3598DOPC   NC342217  33.024   0.014  12.150  0.2066  0.0257 -0.2171
 3598DOPC   PO442218  32.971   0.124  12.498  0.0299  0.2210 -0.2750
 3598DOPC   GL142219  32.941   0.070  12.900 -0.1576  0.0730  0.0715
 3598DOPC   GL242220  33.203   0.146  13.025  0.0842  0.1160 -0.0304
 3598DOPC   C1A42221  32.773  -0.148  13.271  0.1416 -0.1171  0.0046
 3598DOPC   D2A42222  32.577  -0.391  13.605 -0.0872 -0.0080 -0.1562
 3598DOPC   C3A42223  32.584  -0.095  13.976 -0.1515  0.1595  0.0721
 3598DOPC   C4A42224  32.797   0.282  14.086 -0.0694 -0.1911 -0.2393
 3598DOPC   C1B42225  33.482  -0.054  13.323 -0.0941  0.0972 -0.0801
 3598DOPC   D2B42226  33.513  -0.499  13.567  0.0976 -0.1265 -0.2281
 3598DOPC   C3B42227  33.188  -0.587  13.904 -0.0637  0.3013  0.2952
 3598DOPC   C4B42228  32.808  -0.536  14.158  0.0915 -0.0472  0.2657
 3599POSM   NC342229  29.326  26.263  12.488 -0.4385  0.0184 -0.1728
 3599POSM   PO442230  29.545  26.249  12.864 -0.0574  0.1698 -0.0847
 3599POSM   AM142231  29.303  26.241  13.080 -0.0761  0.2566 -0.0213
 3599POSM   AM242232  29.247  26.072  13.293 -0.1106  0.2080  0.2210
 3599POSM   T1A42233  28.796  26.207  13.299 -0.3058  0.1317 -0.2504
 3599POSM   C2A42234  28.425  26.058  13.526  0.0389 -0.1607 -0.0667
 3599POSM   C3A42235  27.972  26.079  13.568 -0.0527  0.2497 -0.1557
 3599POSM   C1B42236  29.154  25.835  13.519 -0.0340  0.0879 -0.0329
 3599POSM   D2B42237  29.210  25.660  13.940 -0.0013 -0.1832 -0.2103
 3599POSM   C3B42238  29.393  25.283  13.882  0.0160 -0.1367  0.2007
 3599POSM   C4B42239  29.336  24.901  13.617 -0.2151 -0.1001 -0.0840
 3600DOPC   NC342240  26.542  32.428  13.079 -0.1580 -0.2357  0.0344
 3600DOPC   PO442241  26.311  32.342  12.730  0.1634 -0.1591  0.3308
 3600DOPC   GL142242  26.285  31.914  12.797  0.4820  0.1421 -0.1785
 3600DOPC   GL242243  26.481  31.921  13.007  0.2881 -0.0682 -0.1461
 3600DOPC   C1A42244  26.092  31.631  13.101  0.0818  0.0119 -0.3568
 3600DOPC   D2A42245  25.907  31.241  13.116  0.0995  0.1246  0.2595
 3600DOPC   C3A42246  25.986  31.194  13.571 -0.4802 -0.0847  0.0969
 3600DOPC   C4A42247  26.294  31.385  13.840 -0.1948 -0.0639  0.0038
 3600DOPC   C1B42248  26.136  32.102  13.293 -0.2713 -0.0449 -0.0825
 3600DOPC   D2B42249  26.113  32.322  13.703 -0.1239  0.1362  0.0378
 3600DOPC   C3B42250  26.191  32.300  14.123  0.2918 -0.0869  0.1036
 3600DOPC   C4B42251  25.869  32.349  14.468 -0.1422  0.3502  0.0379
 3601DOPC   NC342252  29.574  32.604  13.317  0.0534 -0.1707 -0.2305
 3601DOPC   PO442253  29.545  32.204  13.367  0.2168 -0.0240 -0.4410
 3601DOPC   GL142254  29.831  32.238  13.562 -0.1351 -0.2033  0.0152
 3601DOPC   GL242255  30.009  31.986  13.556 -0.0271 -0.0487 -0.0035
 3601DOPC   C1A42256  30.209  32.410  13.806  0.1003 -0.1628 -0.1646
 3601DOPC   D2A42257  30.217  32.370  14.281 -0.2334  0.3268 -0.0719
 3601DOPC   C3A42258  30.037  32.000  14.516  0.1036  0.0841  0.3924
 3601DOPC   C4A42259  29.998  31.595  14.354  0.1046 -0.3098  0.0665
 3601DOPC   C1B42260  30.223  31.890  13.950  0.1081 -0.1232 -0.0717
 3601DOPC   D2B42261  30.583  31.767  14.205 -0.1804  0.1338  0.1683
 3601DOPC   C3B42262  30.602  32.043  14.570 -0.3106  0.0116 -0.0393
 3601DOPC   C4B42263  30.647  32.499  14.696 -0.1723  0.1882  0.1736
 3602DOPE   NH342264  26.793  33.213  12.768 -0.0527  0.0426 -0.0266
 3602DOPE   PO442265  26.526  33.356  12.703  0.3466  0.2018  0.0909
 3602DOPE   GL142266  26.472  33.370  13.112  0.3281 -0.4104  0.0709
 3602DOPE   GL242267  26.169  33.494  13.047  0.0328 -0.0244  0.0570
 3602DOPE   C1A42268  26.215  33.071  13.288  0.2443 -0.1484  0.2681
 3602DOPE   D2A42269  25.798  33.194  13.462 -0.2406  0.0369  0.1554
 3602DOPE   C3A42270  25.795  33.438  13.858 -0.1243  0.1100  0.0614
 3602DOPE   C4A42271  25.940  33.747  14.201  0.0305  0.0990  0.2606
 3602DOPE   C1B42272  26.316  33.771  13.401 -0.0010 -0.1824  0.1997
 3602DOPE   D2B42273  26.442  33.535  13.772 -0.2877 -0.0450 -0.1252
 3602DOPE   C3B42274  26.330  33.276  14.143 -0.1927  0.1859  0.2147
 3602DOPE   C4B42275  26.192  32.856  14.317 -0.0693  0.0345 -0.1881
 3603DOPE   NH342276  26.321   0.423  12.595  0.0559 -0.0611  0.3078
 3603DOPE   PO442277  26.218   0.334  12.244 -0.0900  0.0078 -0.0387
 3603DOPE   GL142278  25.944   0.187  12.403  0.0770  0.4398  0.0519
 3603DOPE   GL242279  25.721   0.314  12.300 -0.0886 -0.0541 -0.0552
 3603DOPE   C1A42280  25.626  -0.065  12.648 -0.0424  0.0827  0.0998
 3603DOPE   D2A42281  25.379  -0.105  13.040 -0.4876  0.1255 -0.0870
 3603DOPE   C3A42282  25.549  -0.039  13.425  0.0395  0.2227 -0.0116
 3603DOPE   C4A42283  25.884  -0.052  13.837 -0.0216 -0.2691 -0.3062
 3603DOPE   C1B42284  25.262   0.195  12.225 -0.0516 -0.2063 -0.1180
 3603DOPE   D2B42285  24.871   0.038  12.504  0.0593 -0.1039  0.3150
 3603DOPE   C3B42286  24.877   0.173  12.947 -0.0581  0.2272  0.2648
 3603DOPE   C4B42287  24.911   0.512  13.154  0.1496  0.1223 -0.2089
 3604DOPC   NC342288  23.096  30.040  12.858 -0.0727 -0.0281  0.0884
 3604DOPC   PO442289  23.331  30.374  12.847 -0.0993 -0.0416  0.1704
 3604DOPC   GL142290  23.236  30.283  13.236  0.2263  0.0947  0.3201
 3604DOPC   GL242291  22.943  30.270  13.237 -0.0060 -0.4333  0.1264
 3604DOPC   C1A42292  23.156  30.544  13.575 -0.1411 -0.1366  0.0767
 3604DOPC   D2A42293  22.910  30.787  13.814 -0.2292 -0.0632  0.1153
 3604DOPC   C3A42294  22.996  31.163  13.959 -0.1275 -0.0102 -0.2969
 3604DOPC   C4A42295  23.162  31.497  14.148  0.0789 -0.1926  0.1583
 3604DOPC   C1B42296  22.817  30.047  13.652 -0.2046 -0.0544  0.1052
 3604DOPC   D2B42297  22.730  29.756  13.987  0.0359  0.0464  0.2692
 3604DOPC   C3B42298  23.159  29.555  13.867  0.2007  0.2324  0.0679
 3604DOPC   C4B42299  23.509  29.751  14.006 -0.0891 -0.1399  0.1437
 3605DOPE   NH342300  32.260  30.073  12.636  0.3793 -0.4209 -0.1729
 3605DOPE   PO442301  32.313  29.951  12.360 -0.1192  0.0113  0.2691
 3605DOPE   GL142302  32.555  29.685  12.480 -0.1222  0.0791  0.4629
 3605DOPE   GL242303  32.779  29.794  12.640  0.1406  0.1125  0.0483
 3605DOPE   C1A42304  32.703  29.362  12.141  0.1634 -0.0232 -0.3276
 3605DOPE   D2A42305  32.913  28.909  12.066  0.1132 -0.0154 -0.0663
 3605DOPE   C3A42306  32.964  28.749  12.467  0.1125  0.0446  0.2683
 3605DOPE   C4A42307  32.811  28.635  12.865 -0.2174 -0.0367  0.1173
 3605DOPE   C1B42308  32.835  29.361  12.723  0.0271  0.3370 -0.0692
 3605DOPE   D2B42309  33.140  29.056  12.851  0.0329  0.0498 -0.0951
 3605DOPE   C3B42310  33.406  29.188  13.232  0.1802 -0.0361  0.0845
 3605DOPE   C4B42311  33.807  29.290  13.181 -0.0320  0.0518  0.1444
 3606DOPS   CNO42312  29.334   0.113  12.491 -0.2953 -0.0237  0.1475
 3606DOPS   PO442313  29.442  -0.228  12.540 -0.3570  0.3613  0.2159
 3606DOPS   GL142314  29.350  -0.481  12.808 -0.0949  0.2721 -0.2725
 3606DOPS   GL242315  29.522  -0.387  13.084 -0.1408 -0.2940  0.0563
 3606DOPS   C1A42316  29.637  -0.816  12.941 -0.3605 -0.0390  0.1560
 3606DOPS   D2A42317  29.464  -1.265  12.848  0.1779  0.5248  0.1935
 3606DOPS   C3A42318  29.363  -1.504  13.271 -0.1924  0.1053 -0.0969
 3606DOPS   C4A42319  29.217  -1.535  13.714 -0.1760 -0.2247  0.0452
 3606DOPS   C1B42320  29.884  -0.468  13.353  0.0151 -0.0756 -0.0458
 3606DOPS   D2B42321  30.101  -0.778  13.680 -0.0426  0.1961 -0.1232
 3606DOPS   C3B42322  30.019  -0.921  14.142 -0.1955  0.2477 -0.1078
 3606DOPS   C4B42323  29.979  -0.802  14.639  0.1312  0.0119 -0.3294
 3607DOPC   NC342324  27.186   0.071  12.369 -0.0570  0.1169 -0.2339
 3607DOPC   PO442325  26.969  -0.213  12.523 -0.1238 -0.1188 -0.1486
 3607DOPC   GL142326  26.952  -0.344  12.876 -0.1477  0.2808 -0.0052
 3607DOPC   GL242327  26.905  -0.147  13.068  0.0082 -0.0219  0.0049
 3607DOPC   C1A42328  26.840  -0.664  13.204 -0.2615  0.1877  0.3330
 3607DOPC   D2A42329  26.883  -0.767  13.627 -0.1421  0.0455  0.0745
 3607DOPC   C3A42330  26.924  -1.059  13.928 -0.0609  0.2446  0.0658
 3607DOPC   C4A42331  26.968  -0.774  14.231  0.1233  0.2172  0.1707
 3607DOPC   C1B42332  26.654  -0.012  13.437  0.3246  0.0164 -0.1267
 3607DOPC   D2B42333  26.400   0.034  13.816  0.1298  0.0726  0.0170
 3607DOPC   C3B42334  26.248  -0.075  14.191  0.0679  0.3209  0.1828
 3607DOPC   C4B42335  26.011  -0.401  14.343  0.1268  0.0763  0.1965
 3608POSM   NC342336  32.183  30.686  13.007 -0.2389  0.0074 -0.1450
 3608POSM   PO442337  32.018  30.367  12.986  0.1650 -0.2467 -0.0151
 3608POSM   AM142338  32.018  30.310  13.328  0.0807  0.3550 -0.0491
 3608POSM   AM242339  32.073  30.145  13.519  0.2843 -0.0309  0.2590
 3608POSM   T1A42340  32.169  30.614  13.728 -0.0051  0.0869 -0.1167
 3608POSM   C2A42341  32.039  30.836  14.142  0.2778  0.1442 -0.0059
 3608POSM   C3A42342  31.790  31.265  14.076 -0.2318  0.0118 -0.1743
 3608POSM   C1B42343  32.019  30.157  13.865  0.3813  0.3963  0.2505
 3608POSM   D2B42344  32.130  29.947  14.259  0.1472  0.3672  0.0752
 3608POSM   C3B42345  32.332  30.072  14.630 -0.1478 -0.0954 -0.0709
 3608POSM   C4B42346  32.737  30.287  14.622 -0.4091  0.1428  0.4140
 3609DOPC   NC342347  25.093  30.328  12.546  0.2757 -0.0102  0.1067
 3609DOPC   PO442348  24.859  29.986  12.553  0.1428  0.0962  0.1163
 3609DOPC   GL142349  24.719  30.177  12.932  0.2444 -0.1675 -0.1599
 3609DOPC   GL242350  24.396  30.121  12.830 -0.1121 -0.2584  0.0196
 3609DOPC   C1A42351  24.468  30.277  13.347  0.0042 -0.1229  0.0692
 3609DOPC   D2A42352  24.175  30.442  13.612  0.1812 -0.0968 -0.3519
 3609DOPC   C3A42353  24.073  30.163  14.020 -0.1618  0.0873 -0.0755
 3609DOPC   C4A42354  23.928  29.847  14.307  0.0697  0.2433  0.1929
 3609DOPC   C1B42355  24.402  29.831  13.114 -0.0484 -0.5190  0.1918
 3609DOPC   D2B42356  24.310  29.823  13.551  0.0475 -0.1003  0.0187
 3609DOPC   C3B42357  24.522  29.898  13.987 -0.1261  0.1953 -0.2096
 3609DOPC   C4B42358  24.830  29.920  14.327  0.0784  0.0242 -0.0643
 3610POSM   NC342359  29.046  31.597  12.691 -0.0568  0.0116  0.0804
 3610POSM   PO442360  28.847  31.445  12.982  0.3392 -0.1695 -0.0360
 3610POSM   AM142361  28.831  31.391  13.312 -0.1548 -0.4125 -0.0188
 3610POSM   AM242362  28.966  31.520  13.500  0.0314 -0.2700 -0.1715
 3610POSM   T1A42363  28.642  31.190  13.736 -0.0533 -0.0560  0.2550
 3610POSM   C2A42364  28.300  30.917  13.855 -0.3560 -0.2140 -0.0278
 3610POSM   C3A42365  28.068  30.605  13.835  0.3207  0.1471 -0.1367
 3610POSM   C1B42366  29.188  31.415  13.682 -0.0128 -0.1540  0.1792
 3610POSM   D2B42367  29.415  31.541  14.082  0.0629  0.2118  0.0775
 3610POSM   C3B42368  29.394  31.897  14.331  0.0608 -0.0556 -0.0319
 3610POSM   C4B42369  29.351  32.157  14.699  0.0227  0.0373  0.0938
 3611DOPE   NH342370  25.948  29.430  12.762 -0.0699 -0.1922 -0.2212
 3611DOPE   PO442371  26.034  29.687  12.517 -0.1157  0.2514 -0.5248
 3611DOPE   GL142372  25.815  29.931  12.855  0.0126  0.1631 -0.2868
 3611DOPE   GL242373  25.829  29.752  13.104  0.0411 -0.1306  0.1952
 3611DOPE   C1A42374  25.859  30.308  13.115 -0.0625  0.2066 -0.0467
 3611DOPE   D2A42375  25.533  30.552  13.289 -0.2026 -0.0728 -0.0012
 3611DOPE   C3A42376  25.268  30.423  13.638  0.1551 -0.1490 -0.0723
 3611DOPE   C4A42377  25.126  30.056  13.911  0.3307 -0.1553 -0.1753
 3611DOPE   C1B42378  26.042  29.989  13.422  0.0732  0.1512 -0.2181
 3611DOPE   D2B42379  25.862  30.343  13.648 -0.1440 -0.1173  0.0668
 3611DOPE   C3B42380  25.591  30.206  13.935 -0.2162  0.1146 -0.0555
 3611DOPE   C4B42381  25.620  29.957  14.325  0.2092  0.3590 -0.1066
 3612DOPE   NH342382  32.209  29.950  13.111  0.0195  0.4281 -0.1790
 3612DOPE   PO442383  32.422  29.773  13.007 -0.0752  0.1386 -0.1779
 3612DOPE   GL142384  32.514  29.607  13.314  0.2571  0.2538 -0.0314
 3612DOPE   GL242385  32.511  29.761  13.506 -0.0626  0.1883  0.1300
 3612DOPE   C1A42386  32.581  29.240  13.591  0.1409 -0.1366 -0.1628
 3612DOPE   D2A42387  32.464  28.851  13.862  0.1444 -0.1270 -0.0338
 3612DOPE   C3A42388  32.601  28.460  13.659  0.1468 -0.3885  0.1022
 3612DOPE   C4A42389  32.905  28.233  13.444 -0.2258 -0.0428 -0.0357
 3612DOPE   C1B42390  32.616  29.566  13.982 -0.0135 -0.0319  0.0049
 3612DOPE   D2B42391  32.857  29.234  14.226  0.0927  0.4326 -0.0273
 3612DOPE   C3B42392  32.783  29.395  14.654 -0.0950  0.2138  0.0892
 3612DOPE   C4B42393  32.809  29.801  14.810  0.1412 -0.0352 -0.5215
 3613DOPS   CNO42394  30.527  23.839  12.621  0.2090  0.1716 -0.1213
 3613DOPS   PO442395  30.261  23.997  12.821 -0.3399  0.1240 -0.1627
 3613DOPS   GL142396  30.207  23.625  12.985  0.3199 -0.1158  0.2545
 3613DOPS   GL242397  30.071  23.687  13.171  0.2777  0.1386  0.1710
 3613DOPS   C1A42398  30.321  23.273  13.288  0.1458  0.0574 -0.2103
 3613DOPS   D2A42399  30.490  22.858  13.492  0.3377 -0.1714  0.0829
 3613DOPS   C3A42400  30.551  22.517  13.858 -0.3122  0.3868  0.0983
 3613DOPS   C4A42401  30.646  22.238  14.218 -0.0663 -0.0069 -0.0126
 3613DOPS   C1B42402  30.026  23.557  13.603  0.2974  0.1396  0.1192
 3613DOPS   D2B42403  30.283  23.428  13.904 -0.0637 -0.1416  0.4006
 3613DOPS   C3B42404  30.351  23.442  14.359  0.0043 -0.1310  0.0195
 3613DOPS   C4B42405  30.452  23.171  14.687 -0.1686 -0.2486  0.2105
 3614DOPE   NH342406  24.280  23.265  12.376  0.0496  0.0848  0.0236
 3614DOPE   PO442407  24.542  23.371  12.280  0.0191  0.2482  0.1946
 3614DOPE   GL142408  24.558  23.747  12.514 -0.0155 -0.2917 -0.0121
 3614DOPE   GL242409  24.579  23.958  12.262 -0.2188  0.3140  0.1759
 3614DOPE   C1A42410  24.226  24.014  12.697  0.2586 -0.0823  0.2604
 3614DOPE   D2A42411  23.737  24.015  12.685  0.0500 -0.2590  0.0732
 3614DOPE   C3A42412  23.528  24.414  12.592  0.0453  0.0718 -0.1430
 3614DOPE   C4A42413  23.151  24.715  12.509  0.0812  0.4082 -0.0090
 3614DOPE   C1B42414  24.502  24.348  12.439  0.2029 -0.1662 -0.0049
 3614DOPE   D2B42415  24.442  24.609  12.858 -0.0599 -0.2828 -0.1542
 3614DOPE   C3B42416  24.658  24.968  13.051  0.1153  0.1790 -0.1782
 3614DOPE   C4B42417  24.749  25.394  13.250  0.3086 -0.0203  0.0149
 3615DOPE   NH342418  31.292  24.596  12.533  0.4212  0.0496  0.1077
 3615DOPE   PO442419  31.440  24.295  12.516 -0.0397  0.0061  0.0698
 3615DOPE   GL142420  31.826  24.364  12.612  0.2185 -0.1659 -0.1986
 3615DOPE   GL242421  31.937  24.118  12.778  0.0336  0.0953  0.1645
 3615DOPE   C1A42422  32.082  24.600  12.989  0.1477  0.1757  0.1979
 3615DOPE   D2A42423  32.273  24.617  13.357 -0.1347 -0.2465 -0.0823
 3615DOPE   C3A42424  32.612  24.485  13.583 -0.1201 -0.1039  0.0789
 3615DOPE   C4A42425  32.917  24.230  13.761 -0.0455  0.0053 -0.2453
 3615DOPE   C1B42426  31.943  24.205  13.260 -0.1032  0.0579  0.0831
 3615DOPE   D2B42427  31.992  24.261  13.710 -0.0177  0.1490  0.2068
 3615DOPE   C3B42428  31.737  24.139  14.033  0.1748  0.0410  0.0880
 3615DOPE   C4B42429  31.689  23.859  14.407  0.0282  0.0896  0.1723
 3616POSM   NC342430   0.271  32.075  12.135 -0.0317  0.1777  0.1896
 3616POSM   PO442431   0.318  32.369  12.406  0.4797 -0.0008 -0.2759
 3616POSM   AM142432   0.130  32.410  12.663  0.3934  0.1101 -0.0797
 3616POSM   AM242433  -0.135  32.577  12.628 -0.0008 -0.4644  0.3880
 3616POSM   T1A42434  -0.093  32.260  13.033 -0.2077 -0.1680 -0.0530
 3616POSM   C2A42435  -0.500  32.313  13.250  0.3343 -0.0437 -0.1552
 3616POSM   C3A42436  -0.828  32.328  13.533 -0.1287 -0.0431  0.1303
 3616POSM   C1B42437  -0.382  32.606  12.841 -0.0573  0.3102 -0.1792
 3616POSM   D2B42438  -0.802  32.833  13.030 -0.0491 -0.1126  0.2416
 3616POSM   C3B42439  -0.871  33.250  13.252 -0.2638  0.1276  0.4237
 3616POSM   C4B42440  -0.833  33.471  13.665  0.0243 -0.2701  0.3442
 3617DOPC   NC342441  33.423  30.499  12.463  0.3232 -0.0793 -0.0673
 3617DOPC   PO442442  33.756  30.672  12.514 -0.3976  0.0357  0.1561
 3617DOPC   GL142443  33.593  31.022  12.566 -0.2008 -0.1019  0.0068
 3617DOPC   GL242444  33.792  31.075  12.842  0.2400  0.0933  0.2737
 3617DOPC   C1A42445  33.537  31.499  12.516  0.2191  0.3829  0.2073
 3617DOPC   D2A42446  33.389  31.688  12.901  0.0223  0.0728 -0.3109
 3617DOPC   C3A42447  33.515  31.423  13.255 -0.0181 -0.2365  0.0690
 3617DOPC   C4A42448  33.584  31.194  13.621 -0.1732  0.0988  0.0985
 3617DOPC   C1B42449  34.170  31.375  12.871 -0.2681  0.0869 -0.0254
 3617DOPC   D2B42450  34.579  31.528  13.015 -0.0056 -0.2054  0.1650
 3617DOPC   C3B42451  34.523  31.846  13.382  0.1213  0.1042  0.2256
 3617DOPC   C4B42452  34.244  31.974  13.679 -0.4459 -0.0552 -0.1587
 3618DOPC   NC342453  26.937  23.821  12.530 -0.0469  0.0933  0.0858
 3618DOPC   PO442454  26.922  23.572  12.207  0.0370  0.2097  0.0643
 3618DOPC   GL142455  27.043  23.331  12.546  0.0104  0.1409  0.0366
 3618DOPC   GL242456  27.055  23.394  12.887 -0.1669  0.1386 -0.0919
 3618DOPC   C1A42457  27.465  23.175  12.657  0.3303 -0.1432  0.2829
 3618DOPC   D2A42458  27.916  23.307  12.528  0.0300  0.1948 -0.2594
 3618DOPC   C3A42459  28.381  23.083  12.564  0.0094  0.0100  0.1771
 3618DOPC   C4A42460  28.703  22.856  12.781 -0.0305  0.0126  0.1482
 3618DOPC   C1B42461  27.240  23.578  13.271  0.1659 -0.1202 -0.0376
 3618DOPC   D2B42462  27.336  23.665  13.671 -0.4428  0.1937  0.0165
 3618DOPC   C3B42463  27.016  23.647  14.054  0.1104 -0.1357 -0.0688
 3618DOPC   C4B42464  26.960  23.430  14.473 -0.2464  0.2295 -0.2391
 3619DOPE   NH342465  26.370  23.806  12.564 -0.0240  0.0595  0.3545
 3619DOPE   PO442466  26.340  23.927  12.842 -0.0223 -0.1666 -0.0964
 3619DOPE   GL142467  26.683  23.966  13.000  0.1835  0.3078  0.3427
 3619DOPE   GL242468  26.733  23.721  13.134  0.1975  0.0024  0.1939
 3619DOPE   C1A42469  27.159  23.989  12.906  0.0118  0.2926  0.3525
 3619DOPE   D2A42470  27.448  23.749  12.627 -0.0107 -0.1605  0.1447
 3619DOPE   C3A42471  27.791  23.713  12.909 -0.0025 -0.0895  0.1590
 3619DOPE   C4A42472  27.716  23.716  13.318 -0.0212 -0.1449 -0.3241
 3619DOPE   C1B42473  26.894  23.801  13.563 -0.2506 -0.0278 -0.2218
 3619DOPE   D2B42474  27.125  24.100  13.842  0.3288  0.2199 -0.1629
 3619DOPE   C3B42475  26.800  24.387  13.964  0.2132  0.1461  0.1402
 3619DOPE   C4B42476  26.400  24.521  13.978  0.0223 -0.2205  0.1375
 3620DOPE   NH342477  30.475  26.590  13.061 -0.0402 -0.2140 -0.0079
 3620DOPE   PO442478  30.431  26.704  12.784  0.1464  0.3191 -0.1975
 3620DOPE   GL142479  30.717  26.934  12.971 -0.2899 -0.1290  0.1782
 3620DOPE   GL242480  30.915  27.003  12.817 -0.5097 -0.3327  0.1112
 3620DOPE   C1A42481  30.809  26.982  13.416 -0.1720 -0.2493 -0.1348
 3620DOPE   D2A42482  31.101  27.213  13.714  0.0344  0.3360  0.0214
 3620DOPE   C3A42483  30.869  27.450  14.092  0.0091  0.0387  0.1652
 3620DOPE   C4A42484  30.728  27.833  14.348  0.0919 -0.3350 -0.3442
 3620DOPE   C1B42485  31.206  27.024  13.117 -0.0807 -0.1534 -0.1320
 3620DOPE   D2B42486  31.624  27.195  13.130 -0.1206 -0.0590 -0.4064
 3620DOPE   C3B42487  31.596  27.286  13.579  0.0837  0.1620 -0.0352
 3620DOPE   C4B42488  31.493  27.493  13.977  0.3435  0.0143  0.1416
 3621POSM   NC342489  29.941  24.891  12.999 -0.1259 -0.1480  0.0632
 3621POSM   PO442490  29.647  24.771  12.790 -0.1238  0.0917 -0.0739
 3621POSM   AM142491  29.469  24.619  13.013 -0.2881  0.0583 -0.1725
 3621POSM   AM242492  29.349  24.363  13.106  0.0188  0.0449  0.3069
 3621POSM   T1A42493  29.008  24.632  13.260  0.4668  0.1495 -0.1943
 3621POSM   C2A42494  28.724  24.444  13.589  0.1814  0.0883  0.0038
 3621POSM   C3A42495  28.465  24.731  13.892  0.2851  0.0931  0.0899
 3621POSM   C1B42496  29.189  24.134  13.298  0.1155  0.0018  0.0546
 3621POSM   D2B42497  28.773  23.911  13.252 -0.0335  0.0676  0.0521
 3621POSM   C3B42498  28.682  23.922  13.697 -0.1230  0.5112  0.1540
 3621POSM   C4B42499  28.678  24.206  14.015 -0.2481  0.2019 -0.2664
 3622POSM   NC342500  30.549  28.570  13.214 -0.1249  0.0193  0.0099
 3622POSM   PO442501  30.366  28.337  12.925  0.4441  0.3293  0.1119
 3622POSM   AM142502  30.601  28.128  13.049  0.1602 -0.5680  0.1780
 3622POSM   AM242503  30.588  27.923  13.267  0.0414 -0.0513  0.3096
 3622POSM   T1A42504  31.000  28.216  13.389  0.1947  0.3122 -0.0638
 3622POSM   C2A42505  31.357  28.403  13.559  0.0860 -0.1765 -0.0555
 3622POSM   C3A42506  31.560  28.737  13.825  0.0857  0.3009  0.3432
 3622POSM   C1B42507  30.529  28.099  13.558  0.1235  0.0723  0.0772
 3622POSM   D2B42508  30.596  28.406  13.945  0.0158  0.1505  0.3194
 3622POSM   C3B42509  30.389  28.227  14.370  0.0802  0.0531 -0.0799
 3622POSM   C4B42510  30.495  28.015  14.804  0.0960 -0.2773  0.0339
 3623POSM   NC342511  23.719  32.945  12.460 -0.0317  0.4023 -0.1434
 3623POSM   PO442512  23.927  32.793  12.125  0.0103 -0.2248 -0.0610
 3623POSM   AM142513  24.164  32.735  12.336  0.2432  0.0470 -0.2975
 3623POSM   AM242514  24.150  32.736  12.646 -0.1100  0.3025 -0.0876
 3623POSM   T1A42515  24.624  32.710  12.419 -0.0209  0.2077  0.1524
 3623POSM   C2A42516  24.933  32.602  12.737  0.0757 -0.1677  0.0519
 3623POSM   C3A42517  25.397  32.523  12.615 -0.0183  0.0557 -0.0762
 3623POSM   C1B42518  24.346  32.906  12.878  0.0845 -0.0050  0.0545
 3623POSM   D2B42519  24.585  33.129  13.196 -0.3340 -0.0474  0.0230
 3623POSM   C3B42520  24.586  32.811  13.578  0.5240  0.0861  0.0702
 3623POSM   C4B42521  24.430  32.460  13.835  0.0479  0.0339  0.3112
 3624POSM   NC342522  34.064  26.818  11.823  0.1166 -0.0937  0.3842
 3624POSM   PO442523  33.837  26.580  11.877 -0.1853  0.0101  0.0176
 3624POSM   AM142524  33.636  26.735  12.067 -0.1107  0.2460 -0.0219
 3624POSM   AM242525  33.630  27.003  12.147 -0.2491  0.0081  0.2187
 3624POSM   T1A42526  33.229  26.823  12.354 -0.0295 -0.0767 -0.1618
 3624POSM   C2A42527  32.877  26.848  12.645  0.1889 -0.0097  0.1759
 3624POSM   C3A42528  32.433  26.886  12.631 -0.0065 -0.0576 -0.0067
 3624POSM   C1B42529  33.381  27.154  12.001  0.0148 -0.1560  0.1296
 3624POSM   D2B42530  32.983  27.341  11.995 -0.0529 -0.2235 -0.3221
 3624POSM   C3B42531  32.642  27.330  12.349  0.2969  0.1569  0.3596
 3624POSM   C4B42532  32.581  27.487  12.764 -0.1426  0.3458  0.0931
 3625DOPC   NC342533  26.958  29.867  12.695  0.3709  0.0053  0.1578
 3625DOPC   PO442534  26.815  29.997  13.059  0.3588  0.2927 -0.0469
 3625DOPC   GL142535  26.692  29.887  13.500  0.2299 -0.2145  0.1260
 3625DOPC   GL242536  26.959  29.723  13.449  0.2000  0.2184  0.1184
 3625DOPC   C1A42537  26.558  29.449  13.714 -0.1789 -0.0433 -0.1782
 3625DOPC   D2A42538  26.858  29.122  13.821  0.0100  0.1452 -0.1003
 3625DOPC   C3A42539  26.714  28.870  14.106  0.0562  0.0101  0.0599
 3625DOPC   C4A42540  26.664  28.487  14.314 -0.1268 -0.3220  0.1967
 3625DOPC   C1B42541  27.078  29.574  13.869  0.1611 -0.1770  0.1217
 3625DOPC   D2B42542  27.290  29.476  14.266 -0.2432 -0.1173 -0.0434
 3625DOPC   C3B42543  27.335  29.011  14.386  0.1727  0.2577 -0.0222
 3625DOPC   C4B42544  27.167  28.557  14.344 -0.1866 -0.4846  0.1160
 3626DOPC   NC342545  30.665  24.220  13.014 -0.1193 -0.1567  0.0048
 3626DOPC   PO442546  31.051  24.250  12.887 -0.2560 -0.2374 -0.1314
 3626DOPC   GL142547  31.294  24.351  13.154  0.6313 -0.0560 -0.2539
 3626DOPC   GL242548  31.537  24.422  13.026 -0.2284  0.2981  0.0447
 3626DOPC   C1A42549  31.259  24.570  13.587 -0.1382 -0.0151 -0.2805
 3626DOPC   D2A42550  31.632  24.644  13.913 -0.2851  0.0800  0.1201
 3626DOPC   C3A42551  31.579  24.460  14.342 -0.1089 -0.1808 -0.0805
 3626DOPC   C4A42552  31.346  24.483  14.746  0.0974  0.2146 -0.0371
 3626DOPC   C1B42553  31.730  24.661  13.380 -0.0333  0.0129  0.0026
 3626DOPC   D2B42554  31.989  24.882  13.687 -0.0544 -0.2545  0.2416
 3626DOPC   C3B42555  32.405  24.788  13.961  0.2068  0.0714  0.0456
 3626DOPC   C4B42556  32.540  24.741  14.455 -0.0798 -0.2950 -0.0521
 3627DOPE   NH342557  30.867  29.976  13.301  0.3245 -0.1692  0.3199
 3627DOPE   PO442558  31.168  29.954  13.295  0.1678 -0.4676 -0.1708
 3627DOPE   GL142559  31.316  30.131  13.560 -0.4063 -0.4872  0.0476
 3627DOPE   GL242560  31.549  30.331  13.599  0.2101 -0.1915 -0.0649
 3627DOPE   C1A42561  31.579  29.973  13.925  0.0130  0.1723  0.2432
 3627DOPE   D2A42562  31.627  30.205  14.354 -0.0040  0.2015  0.0399
 3627DOPE   C3A42563  31.832  30.005  14.698  0.0606  0.2122 -0.1348
 3627DOPE   C4A42564  32.036  30.263  15.010  0.0512 -0.0024 -0.0711
 3627DOPE   C1B42565  31.652  30.545  13.968  0.1045 -0.2009 -0.1312
 3627DOPE   D2B42566  31.694  30.738  14.437 -0.2931 -0.0585  0.1620
 3627DOPE   C3B42567  31.680  30.481  14.795 -0.0172  0.1987 -0.0084
 3627DOPE   C4B42568  31.479  30.317  15.185  0.0590 -0.1004 -0.0659
 3628DOPC   NC342569  30.152  30.080  13.255  0.1967  0.0150  0.2185
 3628DOPC   PO442570  30.268  30.456  13.166  0.1382 -0.0325  0.0617
 3628DOPC   GL142571  30.608  30.428  13.419 -0.4353 -0.0849  0.2400
 3628DOPC   GL242572  30.488  30.657  13.585 -0.0244  0.0700  0.2889
 3628DOPC   C1A42573  30.606  30.243  13.829 -0.2760 -0.0298 -0.1284
 3628DOPC   D2A42574  30.479  29.878  14.092  0.2357  0.0853 -0.0639
 3628DOPC   C3A42575  30.800  29.613  14.257 -0.1633  0.1992 -0.0240
 3628DOPC   C4A42576  31.214  29.473  14.269 -0.3635 -0.2863 -0.0761
 3628DOPC   C1B42577  30.689  30.703  14.004 -0.1751  0.0858  0.3819
 3628DOPC   D2B42578  30.869  31.009  14.360  0.0010  0.1226  0.0590
 3628DOPC   C3B42579  30.592  31.329  14.533  0.1380 -0.0907  0.1471
 3628DOPC   C4B42580  30.402  31.663  14.844 -0.0223  0.1410  0.1895
 3629DOPC   NC342581  32.810  30.320  12.494 -0.0053  0.3277 -0.1234
 3629DOPC   PO442582  33.059  30.250  12.798 -0.1811 -0.2454  0.1496
 3629DOPC   GL142583  33.070  30.598  12.965  0.2364 -0.0593  0.3005
 3629DOPC   GL242584  33.176  30.771  12.772  0.0067  0.1505 -0.5081
 3629DOPC   C1A42585  32.974  30.855  13.291 -0.0536 -0.1937 -0.1797
 3629DOPC   D2A42586  33.134  31.108  13.639 -0.0359  0.0820  0.1324
 3629DOPC   C3A42587  32.891  31.483  13.823 -0.1398  0.3637  0.1567
 3629DOPC   C4A42588  32.956  31.973  13.903 -0.1628 -0.1341 -0.1272
 3629DOPC   C1B42589  33.232  31.245  12.849 -0.3824  0.1335 -0.0121
 3629DOPC   D2B42590  33.018  31.499  13.165 -0.0723  0.2758  0.2394
 3629DOPC   C3B42591  33.178  31.728  13.480 -0.1954 -0.0752 -0.1663
 3629DOPC   C4B42592  33.387  31.611  13.854  0.2301  0.2339 -0.0084
 3630DOPS   CNO42593  31.778   0.221  12.392 -0.3392 -0.0015 -0.0537
 3630DOPS   PO442594  31.473   0.363  12.540 -0.0076 -0.3257 -0.1521
 3630DOPS   GL142595  31.635   0.188  12.892 -0.1463  0.2278  0.1082
 3630DOPS   GL242596  31.783   0.034  12.912 -0.0836 -0.1621 -0.0034
 3630DOPS   C1A42597  31.510   0.328  13.325  0.2305 -0.0334 -0.1330
 3630DOPS   D2A42598  31.362   0.496  13.751 -0.0989 -0.2204  0.2154
 3630DOPS   C3A42599  31.627   0.681  14.131  0.0945  0.1911  0.1406
 3630DOPS   C4A42600  31.938   0.510  14.436 -0.1309 -0.0906 -0.1627
 3630DOPS   C1B42601  31.773  -0.175  13.398  0.0377  0.1288 -0.2131
 3630DOPS   D2B42602  31.932  -0.396  13.738 -0.0762  0.1029  0.1046
 3630DOPS   C3B42603  31.926  -0.844  13.757 -0.0293  0.0786 -0.1736
 3630DOPS   C4B42604  31.956  -1.245  13.515  0.0469  0.4531 -0.0126
 3631POSM   NC342605   0.019  27.130  12.066  0.0856  0.1837  0.0581
 3631POSM   PO442606   0.119  27.180  12.470 -0.1397  0.1321  0.0020
 3631POSM   AM142607  -0.104  27.397  12.526 -0.1060 -0.1205  0.1756
 3631POSM   AM242608  -0.323  27.498  12.711 -0.1804  0.1360  0.1170
 3631POSM   T1A42609  -0.219  27.847  12.345  0.0236  0.1636  0.1493
 3631POSM   C2A42610  -0.504  28.205  12.399  0.0870 -0.1888  0.0453
 3631POSM   C3A42611  -0.687  28.634  12.324  0.1762  0.1492 -0.0314
 3631POSM   C1B42612  -0.648  27.625  12.727 -0.0397 -0.0125  0.1860
 3631POSM   D2B42613  -0.997  27.813  12.421  0.0158  0.6326  0.0360
 3631POSM   C3B42614  -1.326  27.523  12.334 -0.0414 -0.0696  0.0898
 3631POSM   C4B42615  -1.631  27.295  12.608 -0.0916 -0.0214  0.0509
 3632DOPS   CNO42616  29.791  32.205  12.716 -0.1047  0.0265  0.3006
 3632DOPS   PO442617  30.000  32.251  13.029  0.1740 -0.2731 -0.0081
 3632DOPS   GL142618  30.169  32.448  13.271  0.1113 -0.3502  0.2098
 3632DOPS   GL242619  30.357  32.671  13.130 -0.0308 -0.1121 -0.1549
 3632DOPS   C1A42620  30.640  32.444  13.472  0.0467  0.2304  0.2559
 3632DOPS   D2A42621  31.051  32.363  13.660  0.0283 -0.0214  0.1630
 3632DOPS   C3A42622  31.302  32.313  13.300 -0.1372 -0.3352 -0.0931
 3632DOPS   C4A42623  31.455  31.936  13.104 -0.0556 -0.3900  0.1039
 3632DOPS   C1B42624  30.804  32.845  13.069  0.0399  0.2838 -0.1654
 3632DOPS   D2B42625  31.128  32.873  13.373  0.1340  0.1292  0.1735
 3632DOPS   C3B42626  31.423  32.697  13.772  0.2954  0.0941 -0.1666
 3632DOPS   C4B42627  31.290  32.444  14.162  0.1676 -0.0255  0.0134
 3633POSM   NC342628  25.274  28.874  12.538 -0.0595  0.0697  0.0470
 3633POSM   PO442629  25.526  29.173  12.623  0.2155  0.0807  0.1573
 3633POSM   AM142630  25.621  29.188  12.917 -0.1164  0.2143  0.4482
 3633POSM   AM242631  25.771  29.120  13.115 -0.1563  0.2468 -0.4044
 3633POSM   T1A42632  25.486  29.452  13.333  0.2755 -0.0563  0.1137
 3633POSM   C2A42633  25.147  29.618  13.623  0.1956 -0.1537  0.0964
 3633POSM   C3A42634  25.337  29.648  14.036 -0.1429 -0.1626  0.0527
 3633POSM   C1B42635  25.927  29.107  13.462  0.2331  0.0211 -0.0015
 3633POSM   D2B42636  26.298  29.017  13.773  0.0291 -0.1231  0.1035
 3633POSM   C3B42637  26.226  28.885  14.188  0.0437  0.0061  0.1072
 3633POSM   C4B42638  26.124  28.722  14.586  0.2992 -0.1345  0.0678
 3634DOPC   NC342639  27.242  31.971  13.326 -0.2166 -0.2565 -0.0126
 3634DOPC   PO442640  26.986  32.220  13.154  0.0824 -0.1557  0.3512
 3634DOPC   GL142641  26.968  32.315  13.512  0.0002 -0.2486 -0.2089
 3634DOPC   GL242642  26.696  32.120  13.603 -0.1666 -0.2228 -0.2304
 3634DOPC   C1A42643  27.230  32.089  13.835 -0.3085 -0.3826  0.1411
 3634DOPC   D2A42644  27.541  31.884  14.155 -0.0987  0.1216 -0.1055
 3634DOPC   C3A42645  27.826  32.145  14.425  0.0558 -0.4648 -0.5385
 3634DOPC   C4A42646  28.182  32.130  14.695  0.0161 -0.0243  0.0996
 3634DOPC   C1B42647  26.554  32.536  13.764 -0.1926 -0.1744  0.1912
 3634DOPC   D2B42648  26.154  32.813  13.798  0.0105 -0.3581  0.0625
 3634DOPC   C3B42649  25.790  32.632  14.073 -0.1183  0.3242  0.0513
 3634DOPC   C4B42650  25.330  32.527  14.047  0.0286  0.0183 -0.1751
 3635DOPC   NC342651  31.592  29.270  12.653 -0.2310  0.1272 -0.3190
 3635DOPC   PO442652  31.263  29.193  12.880  0.2204  0.4211 -0.2502
 3635DOPC   GL142653  31.587  28.886  12.950  0.0568 -0.2256 -0.1352
 3635DOPC   GL242654  31.502  28.716  12.731  0.0922 -0.0301  0.1353
 3635DOPC   C1A42655  31.758  28.544  13.186 -0.1871 -0.0792 -0.2307
 3635DOPC   D2A42656  31.840  28.312  13.568 -0.2036 -0.2063  0.0300
 3635DOPC   C3A42657  32.009  28.551  13.942 -0.3848  0.2535 -0.1541
 3635DOPC   C4A42658  32.019  28.769  14.333 -0.2215  0.1605 -0.1511
 3635DOPC   C1B42659  31.718  28.340  12.718  0.0745 -0.1530 -0.0778
 3635DOPC   D2B42660  31.861  27.992  12.464  0.0035 -0.1022  0.0287
 3635DOPC   C3B42661  32.136  27.654  12.638 -0.1817  0.1463  0.1572
 3635DOPC   C4B42662  32.143  27.377  13.020  0.0887  0.2047 -0.1612
 3636DOPC   NC342663  25.087  24.257  12.059 -0.0274 -0.0984  0.0002
 3636DOPC   PO442664  25.150  24.060  12.391  0.0419  0.1387  0.1597
 3636DOPC   GL142665  25.016  23.902  12.713 -0.2178 -0.2789 -0.4930
 3636DOPC   GL242666  25.174  24.052  12.887 -0.1740 -0.3007 -0.2429
 3636DOPC   C1A42667  24.717  24.142  13.025 -0.0546  0.3456  0.1197
 3636DOPC   D2A42668  24.586  24.332  13.458  0.1491  0.0742 -0.0300
 3636DOPC   C3A42669  24.170  24.642  13.393 -0.1230  0.0241  0.2834
 3636DOPC   C4A42670  24.048  24.917  13.010 -0.2291  0.0452  0.0403
 3636DOPC   C1B42671  25.428  24.317  13.200 -0.2749  0.0482 -0.0699
 3636DOPC   D2B42672  25.529  24.711  13.422 -0.0573  0.0462  0.3886
 3636DOPC   C3B42673  25.849  24.708  13.659  0.1644 -0.0281 -0.0068
 3636DOPC   C4B42674  26.164  25.012  13.768  0.1496 -0.1351 -0.1272
 3637POSM   NC342675  31.414  33.933  12.550  0.0065 -0.0638 -0.3929
 3637POSM   PO442676  31.821  34.052  12.564 -0.0696 -0.0884  0.0144
 3637POSM   AM142677  31.716  33.992  12.875 -0.0746 -0.2601 -0.1694
 3637POSM   AM242678  31.702  33.711  12.961 -0.1206  0.1147 -0.0605
 3637POSM   T1A42679  31.606  34.055  13.342 -0.0492 -0.1111 -0.0773
 3637POSM   C2A42680  31.485  34.086  13.800 -0.2416 -0.0784 -0.1130
 3637POSM   C3A42681  31.567  33.823  14.147 -0.0338 -0.0047  0.2237
 3637POSM   C1B42682  31.529  33.441  12.929  0.1279 -0.1716  0.1164
 3637POSM   D2B42683  31.106  33.208  12.995  0.2011 -0.1152 -0.2366
 3637POSM   C3B42684  30.909  33.350  13.413  0.1510 -0.0211 -0.2990
 3637POSM   C4B42685  30.775  33.303  13.813 -0.0444 -0.4282 -0.0497
 3638POSM   NC342686  25.589  27.686  12.920  0.0190 -0.0504  0.0644
 3638POSM   PO442687  25.444  27.359  12.762 -0.0028 -0.1894  0.0707
 3638POSM   AM142688  25.633  27.146  12.882  0.1587  0.2137 -0.0416
 3638POSM   AM242689  25.876  27.226  13.076 -0.2579  0.3474  0.0613
 3638POSM   T1A42690  25.937  26.784  12.894 -0.0614 -0.3074  0.2153
 3638POSM   C2A42691  26.052  26.380  12.854 -0.2405 -0.1520  0.1141
 3638POSM   C3A42692  26.346  26.013  12.862 -0.1907 -0.0619  0.2424
 3638POSM   C1B42693  26.157  27.316  13.273  0.3748  0.0732 -0.0385
 3638POSM   D2B42694  26.574  27.401  13.441 -0.0499  0.0227  0.1620
 3638POSM   C3B42695  26.566  27.034  13.702  0.0385 -0.3023  0.1206
 3638POSM   C4B42696  26.309  26.765  13.942 -0.1258 -0.0017  0.0585
 3639DOPE   NH342697  29.315  27.244  13.135 -0.2435 -0.0840  0.1054
 3639DOPE   PO442698  29.469  27.510  12.998  0.0810 -0.0161  0.0021
 3639DOPE   GL142699  29.567  27.832  13.229 -0.2763  0.4620 -0.0545
 3639DOPE   GL242700  29.533  27.646  13.463  0.1843  0.2017  0.1130
 3639DOPE   C1A42701  29.509  28.087  13.650  0.0395 -0.0787  0.0829
 3639DOPE   D2A42702  29.207  28.440  13.857 -0.2059  0.0760 -0.0914
 3639DOPE   C3A42703  28.851  28.516  14.174  0.1381 -0.1073  0.0088
 3639DOPE   C4A42704  28.705  28.669  14.554  0.1178  0.2921  0.2313
 3639DOPE   C1B42705  29.140  27.726  13.628  0.3276  0.5135  0.1053
 3639DOPE   D2B42706  29.108  27.910  14.028 -0.2154 -0.0473  0.3296
 3639DOPE   C3B42707  28.681  27.857  14.145 -0.1406  0.1987  0.0649
 3639DOPE   C4B42708  28.248  28.069  14.202  0.0072 -0.0786 -0.0085
 3640DOPS   CNO42709  34.575  26.435  12.769  0.0010 -0.2194 -0.4674
 3640DOPS   PO442710  34.653  26.730  12.578  0.3999 -0.1058  0.0548
 3640DOPS   GL142711  34.512  27.039  12.793 -0.3854  0.0488  0.3191
 3640DOPS   GL242712  34.303  26.955  13.036 -0.1212 -0.2198  0.1917
 3640DOPS   C1A42713  34.525  27.335  13.140 -0.0086  0.1553 -0.2677
 3640DOPS   D2A42714  34.238  27.624  13.257  0.0762  0.0115 -0.0044
 3640DOPS   C3A42715  33.874  27.887  13.117  0.0875 -0.2772  0.0162
 3640DOPS   C4A42716  33.553  28.141  13.388 -0.0981 -0.0935  0.1880
 3640DOPS   C1B42717  33.860  26.781  13.217  0.0423 -0.0948 -0.0840
 3640DOPS   D2B42718  33.530  26.472  13.186  0.0236  0.0719 -0.0866
 3640DOPS   C3B42719  33.123  26.484  12.963  0.1936  0.1682 -0.1880
 3640DOPS   C4B42720  32.647  26.464  12.833  0.1563  0.0015  0.1876
 3641DOPE   NH342721  34.683  34.588  12.711  0.4836 -0.2811 -0.1047
 3641DOPE   PO442722  34.710  34.257  12.796  0.0146 -0.1635  0.0089
 3641DOPE   GL142723  34.640  34.119  13.190  0.1129  0.1795  0.1094
 3641DOPE   GL242724  34.366  34.003  13.190 -0.1301 -0.0416 -0.1211
 3641DOPE   C1A42725  34.881  33.961  13.543 -0.3539 -0.1419  0.1172
 3641DOPE   D2A42726  34.989  33.891  13.961  0.0047  0.1037 -0.0495
 3641DOPE   C3A42727  35.427  33.842  14.125 -0.0413 -0.0710 -0.0154
 3641DOPE   C4A42728  35.681  33.794  14.490  0.1050 -0.2917 -0.2982
 3641DOPE   C1B42729  34.385  33.825  13.593 -0.1356  0.3149 -0.0724
 3641DOPE   D2B42730  34.506  33.742  13.992  0.0507  0.5033 -0.0132
 3641DOPE   C3B42731  34.712  33.909  14.414 -0.2007 -0.2063  0.1188
 3641DOPE   C4B42732  34.808  34.288  14.670  0.1691 -0.0181 -0.2135
 3642DOPC   NC342733  25.125  28.441  12.853  0.0814  0.5024  0.0287
 3642DOPC   PO442734  24.918  28.537  12.521 -0.1024 -0.0955  0.0693
 3642DOPC   GL142735  24.555  28.628  12.676  0.2109  0.0673  0.2104
 3642DOPC   GL242736  24.299  28.430  12.572 -0.0544  0.1505  0.0829
 3642DOPC   C1A42737  24.373  29.062  12.760 -0.1108 -0.2881  0.1902
 3642DOPC   D2A42738  24.330  29.534  12.679  0.2109 -0.2588 -0.2091
 3642DOPC   C3A42739  23.900  29.805  12.715  0.0498 -0.1284 -0.1275
 3642DOPC   C4A42740  23.553  29.789  12.981  0.2347 -0.0773 -0.2627
 3642DOPC   C1B42741  23.911  28.351  12.303 -0.1916  0.2758 -0.2682
 3642DOPC   D2B42742  23.474  28.490  12.454  0.2752  0.3853 -0.0625
 3642DOPC   C3B42743  23.447  28.958  12.540 -0.1678  0.0699  0.3115
 3642DOPC   C4B42744  23.190  29.266  12.235 -0.0436  0.2491  0.2985
 3643DOPC   NC342745  26.900  25.733  12.625 -0.2721 -0.5912  0.1456
 3643DOPC   PO442746  26.895  25.346  12.498 -0.0767 -0.1001 -0.0814
 3643DOPC   GL142747  27.150  25.316  12.689 -0.3615  0.0699 -0.3938
 3643DOPC   GL242748  27.368  25.231  12.604 -0.2975  0.1847 -0.0270
 3643DOPC   C1A42749  27.348  25.665  12.965  0.2445 -0.0000 -0.1716
 3643DOPC   D2A42750  27.448  26.048  13.035  0.1452  0.0673 -0.3279
 3643DOPC   C3A42751  26.994  26.225  13.118 -0.4538  0.0421 -0.1843
 3643DOPC   C4A42752  26.532  26.338  13.221  0.2502 -0.2896 -0.2146
 3643DOPC   C1B42753  27.452  25.688  12.399 -0.0452  0.0014 -0.0579
 3643DOPC   D2B42754  27.381  26.224  12.418 -0.0344  0.1214 -0.3819
 3643DOPC   C3B42755  27.699  26.542  12.491  0.1265 -0.0574 -0.2038
 3643DOPC   C4B42756  28.044  26.756  12.747  0.1008 -0.1699  0.3119
 3644POSM   NC342757  33.607  30.041  12.879 -0.4295 -0.2488  0.2015
 3644POSM   PO442758  33.822  29.746  12.637  0.1095 -0.1484 -0.1297
 3644POSM   AM142759  33.750  29.431  12.580 -0.0721  0.0662 -0.3375
 3644POSM   AM242760  33.651  29.241  12.383 -0.2460  0.1059 -0.2507
 3644POSM   T1A42761  33.708  28.964  12.822 -0.1368  0.1051 -0.2222
 3644POSM   C2A42762  33.857  28.535  12.867 -0.1249 -0.0452 -0.4945
 3644POSM   C3A42763  33.617  28.205  12.738  0.1273  0.1403 -0.0258
 3644POSM   C1B42764  33.381  29.027  12.413  0.4148  0.2257  0.2880
 3644POSM   D2B42765  33.437  28.550  12.361  0.0724  0.2219 -0.1250
 3644POSM   C3B42766  33.158  28.224  12.551 -0.0800 -0.0582  0.0088
 3644POSM   C4B42767  33.215  28.274  12.998  0.1274 -0.0698 -0.3878
 3645POSM   NC342768  23.337  32.167  12.258  0.0569  0.0809 -0.0076
 3645POSM   PO442769  23.403  32.566  12.314  0.2114 -0.1792 -0.0691
 3645POSM   AM142770  23.455  32.474  12.604  0.0318 -0.0821 -0.3342
 3645POSM   AM242771  23.483  32.639  12.854 -0.1691  0.1872  0.0095
 3645POSM   T1A42772  23.486  32.095  12.941  0.0212  0.1467 -0.2723
 3645POSM   C2A42773  23.430  32.057  13.364  0.1631 -0.3049  0.0152
 3645POSM   C3A42774  23.695  32.155  13.715  0.0162 -0.3035  0.1131
 3645POSM   C1B42775  23.734  32.851  13.016  0.2110  0.1504 -0.0065
 3645POSM   D2B42776  24.077  32.905  13.287 -0.0174 -0.0299  0.1379
 3645POSM   C3B42777  24.201  33.331  13.279  0.1522 -0.0931  0.1766
 3645POSM   C4B42778  24.499  33.473  13.596 -0.1436  0.1560  0.2160
 3646DOPS   CNO42779  30.341  26.171  12.600 -0.0025  0.1735 -0.1118
 3646DOPS   PO442780  30.490  26.108  12.927 -0.2250 -0.2454 -0.0261
 3646DOPS   GL142781  30.772  26.128  13.234  0.0556  0.1207 -0.2174
 3646DOPS   GL242782  30.729  25.968  13.396 -0.0282 -0.0557 -0.2810
 3646DOPS   C1A42783  30.961  26.306  13.614 -0.1187  0.0042 -0.0482
 3646DOPS   D2A42784  31.457  26.251  13.628  0.1513 -0.2311 -0.0035
 3646DOPS   C3A42785  31.671  26.427  14.004 -0.2064 -0.1163 -0.1557
 3646DOPS   C4A42786  31.974  26.206  14.265 -0.2408  0.1615 -0.1312
 3646DOPS   C1B42787  31.042  25.808  13.695 -0.0970 -0.0617 -0.0083
 3646DOPS   D2B42788  31.363  25.448  13.780 -0.1500  0.0171  0.3781
 3646DOPS   C3B42789  31.668  25.291  14.067 -0.0755 -0.0860 -0.2937
 3646DOPS   C4B42790  32.063  25.224  14.349  0.2101 -0.1338  0.0807
 3647POSM   NC342791  25.909  23.654  12.332  0.0649  0.2044  0.1135
 3647POSM   PO442792  25.576  23.835  12.481 -0.1325  0.0023  0.0562
 3647POSM   AM142793  25.518  23.730  12.759  0.0344  0.4844 -0.1746
 3647POSM   AM242794  25.411  23.504  12.938 -0.2875  0.1933  0.0064
 3647POSM   T1A42795  25.447  23.837  13.270  0.1773 -0.0138  0.2210
 3647POSM   C2A42796  25.115  24.038  13.538 -0.0604  0.0101  0.1271
 3647POSM   C3A42797  24.815  24.035  13.842 -0.0797  0.0135 -0.0751
 3647POSM   C1B42798  25.477  23.314  13.212  0.1018  0.3259  0.2541
 3647POSM   D2B42799  25.488  23.148  13.642 -0.2130 -0.1248  0.5248
 3647POSM   C3B42800  25.619  23.436  14.020 -0.2420  0.3203 -0.2298
 3647POSM   C4B42801  25.330  23.626  14.322  0.2371  0.1871 -0.2135
 3648DOPE   NH342802  29.327  32.007  12.914  0.0545 -0.1025 -0.0132
 3648DOPE   PO442803  29.245  31.841  13.157 -0.0199  0.3273 -0.0802
 3648DOPE   GL142804  29.039  32.062  13.336 -0.0940 -0.1548 -0.3141
 3648DOPE   GL242805  28.806  32.019  13.188 -0.2789 -0.0409  0.4934
 3648DOPE   C1A42806  28.746  32.302  13.608 -0.1246  0.0758  0.0060
 3648DOPE   D2A42807  28.513  32.312  13.987 -0.1147 -0.0238  0.4258
 3648DOPE   C3A42808  28.453  31.940  14.219 -0.1441 -0.1846  0.1636
 3648DOPE   C4A42809  28.368  31.477  14.065 -0.3972 -0.0816  0.3588
 3648DOPE   C1B42810  28.360  31.997  13.251 -0.0908 -0.2756  0.2435
 3648DOPE   D2B42811  27.931  32.235  13.234 -0.0926  0.0570  0.3755
 3648DOPE   C3B42812  27.682  32.063  13.628 -0.0745  0.3482 -0.1076
 3648DOPE   C4B42813  27.625  32.341  13.991  0.0797  0.2266 -0.0412
 3649DOPE   NH342814  26.021  24.584  12.126 -0.5265  0.0591 -0.0847
 3649DOPE   PO442815  26.053  24.859  12.363 -0.0032 -0.0100 -0.3865
 3649DOPE   GL142816  25.700  25.048  12.372  0.0903 -0.4267 -0.2604
 3649DOPE   GL242817  25.649  25.110  12.057  0.3282  0.0138  0.2128
 3649DOPE   C1A42818  25.497  25.474  12.486  0.1551 -0.0829  0.1312
 3649DOPE   D2A42819  25.320  25.757  12.795  0.0256  0.2318  0.0847
 3649DOPE   C3A42820  25.494  26.077  13.089  0.2766 -0.0700  0.2849
 3649DOPE   C4A42821  25.630  26.571  13.206  0.0171 -0.0234  0.2254
 3649DOPE   C1B42822  25.136  25.203  12.076  0.1355  0.1436 -0.1133
 3649DOPE   D2B42823  24.710  25.239  12.206 -0.0684  0.1009 -0.0425
 3649DOPE   C3B42824  24.801  24.965  12.556 -0.0762  0.0604  0.1441
 3649DOPE   C4B42825  24.901  24.554  12.683  0.1877  0.0498  0.2732
 3650DOPE   NH342826  25.463  24.375  12.612  0.0515  0.2586 -0.0075
 3650DOPE   PO442827  25.717  24.603  12.666  0.1878  0.1210 -0.3126
 3650DOPE   GL142828  26.065  24.783  12.825 -0.1143 -0.3405  0.0054
 3650DOPE   GL242829  26.045  25.076  12.803  0.0160 -0.3552  0.1563
 3650DOPE   C1A42830  26.068  24.972  13.249  0.2181 -0.1437  0.0146
 3650DOPE   D2A42831  25.972  25.350  13.498 -0.0327 -0.0213  0.1933
 3650DOPE   C3A42832  25.588  25.582  13.618  0.1982  0.1586  0.1342
 3650DOPE   C4A42833  25.266  25.603  13.890 -0.1645 -0.0658  0.0197
 3650DOPE   C1B42834  25.643  25.271  12.897 -0.1750  0.0683 -0.0580
 3650DOPE   D2B42835  25.448  25.215  13.289 -0.2757  0.0762 -0.1060
 3650DOPE   C3B42836  25.099  25.048  13.404  0.0933 -0.0796  0.0642
 3650DOPE   C4B42837  24.748  24.840  13.558 -0.0638  0.1183 -0.2309
 3651DOPS   CNO42838  26.855  24.218  12.188 -0.1573  0.1505 -0.2184
 3651DOPS   PO442839  26.605  24.543  12.196  0.1106  0.0399  0.3321
 3651DOPS   GL142840  26.869  24.605  12.529  0.0061 -0.0757 -0.3014
 3651DOPS   GL242841  26.999  24.843  12.349 -0.1226 -0.5126  0.1917
 3651DOPS   C1A42842  27.281  24.455  12.717  0.0180  0.0520 -0.0506
 3651DOPS   D2A42843  27.682  24.190  12.798 -0.0860 -0.0008 -0.0742
 3651DOPS   C3A42844  27.965  24.243  13.144  0.1910 -0.2101 -0.0489
 3651DOPS   C4A42845  28.387  24.291  13.299 -0.0920 -0.0223 -0.1703
 3651DOPS   C1B42846  27.319  24.570  12.186 -0.0143  0.1004  0.0876
 3651DOPS   D2B42847  27.685  24.254  12.119  0.2096 -0.3296  0.1572
 3651DOPS   C3B42848  27.934  23.832  12.334  0.0918 -0.3575 -0.0288
 3651DOPS   C4B42849  28.286  23.637  12.562 -0.0903 -0.0848  0.0022
 3652POSM   NC342850  30.305  27.118  12.649  0.0984 -0.1247  0.0841
 3652POSM   PO442851  30.351  27.186  13.041  0.4703  0.5127  0.2040
 3652POSM   AM142852  30.286  26.953  13.273 -0.3512 -0.2894 -0.1000
 3652POSM   AM242853  30.141  26.927  13.485  0.2474  0.0251 -0.0791
 3652POSM   T1A42854  30.501  26.614  13.633 -0.2536  0.2752 -0.0393
 3652POSM   C2A42855  30.695  26.339  14.019 -0.0375 -0.2347  0.0842
 3652POSM   C3A42856  31.096  26.146  14.055 -0.0326  0.1868  0.1211
 3652POSM   C1B42857  30.058  27.145  13.757 -0.1122  0.1425 -0.3631
 3652POSM   D2B42858  29.756  27.230  14.137 -0.1566 -0.0348  0.0261
 3652POSM   C3B42859  29.502  26.837  14.057 -0.1901 -0.2249 -0.1995
 3652POSM   C4B42860  29.153  26.747  13.829  0.0722  0.1797  0.2600
 3653POSM   NC342861  31.960  29.625  12.422 -0.0825 -0.0086  0.0479
 3653POSM   PO442862  32.039  29.581  12.787  0.1605  0.3273 -0.1746
 3653POSM   AM142863  32.275  29.383  12.789  0.1237 -0.2332  0.2657
 3653POSM   AM242864  32.342  29.215  13.005 -0.2751 -0.0608  0.1565
 3653POSM   T1A42865  32.523  28.988  12.513  0.0831  0.0398 -0.3065
 3653POSM   C2A42866  32.453  28.605  12.356  0.0291 -0.1201 -0.2293
 3653POSM   C3A42867  32.685  28.230  12.089  0.0414  0.2384  0.4370
 3653POSM   C1B42868  32.606  29.030  13.097  0.0507  0.2046  0.1017
 3653POSM   D2B42869  32.968  28.992  13.370  0.2253 -0.1091 -0.0997
 3653POSM   C3B42870  33.090  28.644  13.608  0.3382 -0.0838 -0.1473
 3653POSM   C4B42871  33.097  28.575  14.062 -0.1339  0.2021 -0.1331
 3654DOPE   NH342872  30.822  26.388  12.587  0.2330  0.0316 -0.0767
 3654DOPE   PO442873  30.899  26.474  12.882 -0.1918 -0.2950  0.0255
 3654DOPE   GL142874  31.102  26.467  13.242 -0.1795 -0.1270 -0.0265
 3654DOPE   GL242875  31.358  26.548  13.158 -0.1719 -0.0982  0.1777
 3654DOPE   C1A42876  31.231  26.737  13.594 -0.2815  0.2072  0.1383
 3654DOPE   D2A42877  31.167  26.652  14.042  0.1119  0.0426  0.0390
 3654DOPE   C3A42878  31.377  27.066  14.226  0.0134 -0.0042 -0.0790
 3654DOPE   C4A42879  31.555  27.217  14.675 -0.1113 -0.4191  0.1090
 3654DOPE   C1B42880  31.698  26.793  13.447  0.0502  0.2424 -0.1034
 3654DOPE   D2B42881  31.891  26.844  13.837  0.3759  0.3364  0.0749
 3654DOPE   C3B42882  32.345  26.755  13.946 -0.1806  0.1587 -0.1592
 3654DOPE   C4B42883  32.479  26.535  14.329  0.1299 -0.0689  0.2538
 3655DOPS   CNO42884  23.777  33.205  11.911 -0.2938  0.0872 -0.1878
 3655DOPS   PO442885  23.641  33.533  12.062  0.0160  0.3155  0.1928
 3655DOPS   GL142886  24.057  33.534  12.356 -0.0290  0.2020  0.2020
 3655DOPS   GL242887  24.068  33.307  12.513 -0.4159 -0.1270  0.1844
 3655DOPS   C1A42888  24.345  33.936  12.471 -0.1447 -0.0436  0.0923
 3655DOPS   D2A42889  24.592  34.318  12.615 -0.1242 -0.1408  0.0258
 3655DOPS   C3A42890  24.438  34.498  13.047 -0.0402  0.0578 -0.2301
 3655DOPS   C4A42891  24.179  34.876  13.059 -0.0246  0.0567  0.1086
 3655DOPS   C1B42892  24.426  33.222  12.262 -0.2564 -0.0850  0.1279
 3655DOPS   D2B42893  24.764  33.557  12.245 -0.1646  0.0260 -0.1441
 3655DOPS   C3B42894  24.841  33.938  12.578  0.0662  0.0774 -0.0324
 3655DOPS   C4B42895  25.075  34.302  12.753  0.0870 -0.0821  0.1305
 3656DOPE   NH342896  29.941  31.228  12.753 -0.1431 -0.1830  0.2377
 3656DOPE   PO442897  29.766  31.178  13.003 -0.3145  0.2220  0.1239
 3656DOPE   GL142898  29.936  31.220  13.323 -0.0946 -0.0156 -0.0166
 3656DOPE   GL242899  29.689  31.238  13.549 -0.1056 -0.1439 -0.0880
 3656DOPE   C1A42900  30.180  31.435  13.605  0.2404 -0.2366  0.0329
 3656DOPE   D2A42901  30.547  31.691  13.481 -0.3608  0.1600 -0.1750
 3656DOPE   C3A42902  30.676  32.024  13.733 -0.0632 -0.0114 -0.1055
 3656DOPE   C4A42903  30.761  32.363  14.082 -0.0511 -0.1554  0.1790
 3656DOPE   C1B42904  29.855  31.259  14.014 -0.0191  0.2658  0.1036
 3656DOPE   D2B42905  29.858  31.176  14.446  0.0081 -0.1331 -0.1949
 3656DOPE   C3B42906  30.096  30.860  14.796  0.0357 -0.1745 -0.2281
 3656DOPE   C4B42907  30.289  30.455  14.953  0.0149 -0.1277  0.2248
 3657POSM   NC342908  23.510  26.756  12.157  0.1577  0.0485  0.1645
 3657POSM   PO442909  23.186  26.740  12.414  0.1737  0.0422 -0.0415
 3657POSM   AM142910  23.037  26.448  12.385 -0.2459  0.2221 -0.0190
 3657POSM   AM242911  23.015  26.230  12.532 -0.1685 -0.1578 -0.1617
 3657POSM   T1A42912  23.095  25.997  12.125  0.4431 -0.0683  0.1604
 3657POSM   C2A42913  23.389  25.603  12.084 -0.0754 -0.1615  0.0553
 3657POSM   C3A42914  23.683  25.281  12.118 -0.2682 -0.0101 -0.3391
 3657POSM   C1B42915  22.832  25.995  12.681  0.0945 -0.0948  0.2204
 3657POSM   D2B42916  22.443  25.937  12.960  0.3346 -0.2657 -0.4020
 3657POSM   C3B42917  22.457  25.614  13.262 -0.0676  0.1561  0.0622
 3657POSM   C4B42918  22.539  25.494  13.706 -0.1683 -0.1189  0.3052
 3658POSM   NC342919  23.310  34.282  11.952  0.1039  0.1108  0.0980
 3658POSM   PO442920  23.106  34.063  12.193  0.0021  0.0681  0.3231
 3658POSM   AM142921  23.388  34.025  12.373  0.0731  0.2116 -0.1259
 3658POSM   AM242922  23.629  34.000  12.259  0.0115  0.0146 -0.0561
 3658POSM   T1A42923  23.597  34.011  12.829  0.1878  0.4334 -0.0546
 3658POSM   C2A42924  23.999  33.726  12.824 -0.1224  0.2258 -0.2202
 3658POSM   C3A42925  24.447  33.512  12.844  0.1242  0.0224  0.5059
 3658POSM   C1B42926  23.859  34.200  12.467 -0.1845 -0.1321  0.1032
 3658POSM   D2B42927  24.154  34.512  12.603 -0.2443 -0.0406  0.1457
 3658POSM   C3B42928  24.342  34.917  12.522  0.1176  0.1641  0.0295
 3658POSM   C4B42929  24.522  35.203  12.809  0.0627  0.1648 -0.0914
 3659DOPC   NC342930  27.266  31.420  12.940 -0.0553 -0.0345 -0.0147
 3659DOPC   PO442931  26.978  31.658  12.966  0.0820 -0.1356 -0.0906
 3659DOPC   GL142932  26.886  31.654  13.258 -0.0848  0.1303  0.1822
 3659DOPC   GL242933  26.948  31.270  13.391 -0.1553  0.1777  0.1400
 3659DOPC   C1A42934  26.473  31.670  13.496  0.2030 -0.0023 -0.0687
 3659DOPC   D2A42935  26.295  31.887  13.877  0.0171  0.1631  0.0398
 3659DOPC   C3A42936  25.883  31.778  14.078  0.2501 -0.1018 -0.2877
 3659DOPC   C4A42937  25.521  32.072  14.220  0.0029  0.0247 -0.0178
 3659DOPC   C1B42938  27.095  31.608  13.712 -0.1618 -0.0278  0.0164
 3659DOPC   D2B42939  26.741  31.763  14.035  0.0389  0.2577 -0.0561
 3659DOPC   C3B42940  26.805  32.239  14.071  0.1039 -0.2326  0.2578
 3659DOPC   C4B42941  26.694  32.643  14.237  0.1757 -0.1137  0.4044
 3660POSM   NC342942  23.802  30.332  12.565 -0.2353 -0.4202  0.0907
 3660POSM   PO442943  23.733  30.748  12.552  0.0084 -0.0461  0.0112
 3660POSM   AM142944  23.668  30.670  12.875  0.1337  0.0498  0.1638
 3660POSM   AM242945  23.443  30.792  13.052 -0.1233 -0.1932 -0.0014
 3660POSM   T1A42946  23.652  30.475  13.384 -0.0439 -0.2354 -0.1491
 3660POSM   C2A42947  23.717  30.540  13.822  0.0478 -0.0425  0.1944
 3660POSM   C3A42948  23.625  30.619  14.203 -0.1473 -0.0132 -0.1240
 3660POSM   C1B42949  23.453  30.973  13.305 -0.2774 -0.0602  0.1213
 3660POSM   D2B42950  23.341  31.283  13.634  0.4453 -0.0333  0.1749
 3660POSM   C3B42951  23.485  31.148  14.036  0.2837  0.2229  0.0647
 3660POSM   C4B42952  23.853  31.033  14.340  0.0659 -0.3078 -0.3526
 3661DOPE   NH342953  28.858  25.727  12.506 -0.1167  0.0808 -0.1614
 3661DOPE   PO442954  28.936  26.005  12.341  0.0159 -0.2709 -0.0657
 3661DOPE   GL142955  28.767  26.246  12.570 -0.0827 -0.2513  0.0307
 3661DOPE   GL242956  28.911  26.302  12.807  0.0708 -0.1668 -0.1169
 3661DOPE   C1A42957  28.286  26.307  12.667  0.2250  0.2905  0.0465
 3661DOPE   D2A42958  27.996  25.990  12.830 -0.3533  0.2258  0.1073
 3661DOPE   C3A42959  27.833  25.752  13.158  0.1552 -0.1199 -0.0106
 3661DOPE   C4A42960  27.535  25.526  13.478  0.3143 -0.0490  0.0151
 3661DOPE   C1B42961  28.541  26.477  13.009 -0.0752 -0.0916  0.0294
 3661DOPE   D2B42962  28.124  26.364  13.170  0.0595 -0.0372 -0.0215
 3661DOPE   C3B42963  27.754  26.417  12.959  0.1854 -0.0562  0.0235
 3661DOPE   C4B42964  27.348  26.606  12.984 -0.2009 -0.0316 -0.1684
 3662DOPS   CNO42965  25.779  28.657  12.451  0.3944  0.1339 -0.1615
 3662DOPS   PO442966  25.987  28.859  12.656  0.2263 -0.2639  0.1207
 3662DOPS   GL142967  26.142  28.906  12.932  0.3289 -0.2889 -0.1421
 3662DOPS   GL242968  26.284  29.206  13.075 -0.0608  0.1151  0.1133
 3662DOPS   C1A42969  26.239  28.715  13.372 -0.2046  0.0504  0.2533
 3662DOPS   D2A42970  26.297  28.442  13.733 -0.0519  0.3374 -0.0737
 3662DOPS   C3A42971  25.978  28.076  13.784 -0.1216 -0.3010  0.3014
 3662DOPS   C4A42972  25.524  28.015  13.681 -0.0753  0.0150 -0.0239
 3662DOPS   C1B42973  26.212  29.505  13.368  0.3964  0.2670  0.0589
 3662DOPS   D2B42974  26.085  29.481  13.815 -0.4666 -0.1294 -0.1388
 3662DOPS   C3B42975  26.363  29.361  14.189 -0.2214  0.1305  0.0359
 3662DOPS   C4B42976  26.393  29.125  14.610 -0.3200  0.2333  0.1211
 3663DOPC   NC342977  24.598  30.647  13.059  0.0297  0.0588 -0.3951
 3663DOPC   PO442978  24.646  30.616  12.689 -0.1338  0.0191  0.2953
 3663DOPC   GL142979  25.007  30.707  12.811  0.2210  0.2388 -0.2062
 3663DOPC   GL242980  25.101  30.916  12.670  0.0750  0.0542  0.1141
 3663DOPC   C1A42981  25.468  30.605  12.826  0.2431  0.0682  0.0386
 3663DOPC   D2A42982  25.859  30.804  12.900  0.2231 -0.1596 -0.0219
 3663DOPC   C3A42983  26.008  30.762  13.343  0.0976  0.2171 -0.2065
 3663DOPC   C4A42984  26.183  30.673  13.783 -0.0988 -0.1959 -0.2048
 3663DOPC   C1B42985  25.140  31.042  13.091  0.2336 -0.1723  0.0077
 3663DOPC   D2B42986  25.510  31.016  13.405 -0.3599 -0.3782 -0.0107
 3663DOPC   C3B42987  25.650  30.797  13.755  0.0593 -0.1434  0.0058
 3663DOPC   C4B42988  25.844  30.560  14.125  0.0922 -0.1374 -0.2196
 3664DOPC   NC342989  32.199  33.958  12.850 -0.1503 -0.1679  0.0971
 3664DOPC   PO442990  32.305  33.984  12.441  0.2165 -0.4046 -0.1825
 3664DOPC   GL142991  32.319  33.564  12.563  0.1671 -0.1513  0.0937
 3664DOPC   GL242992  32.018  33.561  12.612  0.1148  0.0387 -0.2043
 3664DOPC   C1A42993  32.432  33.142  12.715 -0.0628 -0.0780 -0.3127
 3664DOPC   D2A42994  32.447  32.749  12.887  0.0378 -0.0504 -0.0783
 3664DOPC   C3A42995  32.506  32.494  13.277  0.1288 -0.1514  0.0512
 3664DOPC   C4A42996  32.653  32.352  13.731 -0.1428 -0.2739  0.0178
 3664DOPC   C1B42997  32.094  33.439  13.041 -0.1384 -0.0205  0.1387
 3664DOPC   D2B42998  32.379  33.279  13.412 -0.0973  0.2036 -0.0327
 3664DOPC   C3B42999  32.224  32.810  13.489 -0.0281  0.1943  0.1463
 3664DOPC   C4B43000  31.802  32.561  13.434 -0.3151  0.3141  0.1517
 3665DOPC   NC343001  25.494  28.185  12.582 -0.2960 -0.3662  0.1494
 3665DOPC   PO443002  25.635  28.172  12.969 -0.1325 -0.2671  0.0706
 3665DOPC   GL143003  25.558  28.350  13.282 -0.4266 -0.0323  0.2659
 3665DOPC   GL243004  25.345  28.551  13.326 -0.4095 -0.1545  0.3826
 3665DOPC   C1A43005  25.786  28.575  13.650  0.1537 -0.2048  0.2426
 3665DOPC   D2A43006  25.828  28.447  14.082 -0.1901 -0.2765 -0.3356
 3665DOPC   C3A43007  26.214  28.280  14.286  0.1493 -0.0354  0.1968
 3665DOPC   C4A43008  26.464  28.169  14.639 -0.0599 -0.1524  0.0897
 3665DOPC   C1B43009  25.383  28.915  13.608  0.1507 -0.2703 -0.0026
 3665DOPC   D2B43010  25.619  29.267  13.823 -0.1765  0.1261 -0.0721
 3665DOPC   C3B43011  25.877  29.285  14.222  0.1377 -0.2151 -0.0498
 3665DOPC   C4B43012  25.924  29.229  14.668  0.0387  0.0559  0.0974
 3666DOPS   CNO43013  29.781  31.710  12.855 -0.2722  0.1424  0.1477
 3666DOPS   PO443014  29.725  31.709  13.218  0.2896 -0.0133 -0.2504
 3666DOPS   GL143015  29.635  31.682  13.623  0.2969  0.2150  0.1741
 3666DOPS   GL243016  29.343  31.868  13.650  0.0650 -0.0648  0.0949
 3666DOPS   C1A43017  29.708  31.962  13.989 -0.3435  0.1394 -0.3273
 3666DOPS   D2A43018  29.698  32.361  14.289 -0.1365 -0.0249  0.1241
 3666DOPS   C3A43019  29.809  32.403  14.744 -0.2301  0.1764  0.2079
 3666DOPS   C4A43020  29.714  32.304  15.179  0.1932  0.1204  0.1177
 3666DOPS   C1B43021  29.165  32.162  13.916  0.1053 -0.0242 -0.0237
 3666DOPS   D2B43022  28.927  32.160  14.303 -0.1179  0.0023  0.1003
 3666DOPS   C3B43023  28.630  32.404  14.508 -0.2202 -0.0057  0.0174
 3666DOPS   C4B43024  28.755  32.799  14.757 -0.0063  0.0787 -0.2565
 3667POSM   NC343025  24.980  23.659  12.090 -0.0109  0.2331 -0.2402
 3667POSM   PO443026  25.150  23.474  12.396 -0.2618 -0.0782 -0.0103
 3667POSM   AM143027  24.956  23.494  12.654 -0.0078 -0.0333  0.4691
 3667POSM   AM243028  24.724  23.383  12.763  0.1877 -0.7036 -0.3607
 3667POSM   T1A43029  24.986  23.639  13.122 -0.0758  0.0479  0.1527
 3667POSM   C2A43030  25.158  23.523  13.548 -0.1257 -0.1509 -0.2817
 3667POSM   C3A43031  25.103  23.300  13.978  0.1691 -0.2104  0.1330
 3667POSM   C1B43032  24.518  23.552  12.925  0.2983  0.0841 -0.0497
 3667POSM   D2B43033  24.321  23.890  13.166  0.2137 -0.3090 -0.1487
 3667POSM   C3B43034  24.279  23.851  13.618 -0.0203 -0.2035  0.1236
 3667POSM   C4B43035  24.011  23.772  14.013  0.1762 -0.3153 -0.1283
 3668POSM   NC343036  28.953  34.229  12.525  0.1320 -0.0709 -0.1010
 3668POSM   PO443037  28.745  33.872  12.553  0.0341 -0.2211 -0.0708
 3668POSM   AM143038  28.831  33.909  12.865 -0.2105 -0.1883 -0.0518
 3668POSM   AM243039  28.892  33.664  13.031 -0.1585 -0.2068  0.0873
 3668POSM   T1A43040  29.108  34.177  13.231  0.1467  0.0844  0.1799
 3668POSM   C2A43041  29.086  34.165  13.704 -0.5396 -0.1117 -0.1203
 3668POSM   C3A43042  29.199  33.808  14.043  0.2026 -0.1147  0.1691
 3668POSM   C1B43043  29.138  33.681  13.254 -0.1155 -0.0699  0.2080
 3668POSM   D2B43044  29.493  33.897  13.434  0.0880 -0.0745 -0.0399
 3668POSM   C3B43045  29.651  33.654  13.795  0.2428 -0.0692 -0.1284
 3668POSM   C4B43046  29.411  33.335  14.131 -0.2300 -0.2430  0.1357
 3669DOPE   NH343047  22.499  30.099  12.452 -0.0375 -0.1701 -0.0636
 3669DOPE   PO443048  22.663  29.911  12.681  0.0124  0.0812 -0.2068
 3669DOPE   GL143049  22.664  29.707  12.950 -0.0404 -0.0421 -0.1170
 3669DOPE   GL243050  22.690  29.808  13.196 -0.2688 -0.3284  0.0186
 3669DOPE   C1A43051  22.698  29.223  12.921  0.1832 -0.2020 -0.1085
 3669DOPE   D2A43052  22.649  28.813  12.919  0.1714 -0.2751  0.1027
 3669DOPE   C3A43053  22.495  28.762  13.342  0.3385 -0.0715  0.3087
 3669DOPE   C4A43054  22.535  28.776  13.785 -0.2816  0.2487 -0.1108
 3669DOPE   C1B43055  23.151  29.848  13.396 -0.0366 -0.0577  0.0089
 3669DOPE   D2B43056  23.507  30.061  13.658  0.0242  0.1313 -0.0738
 3669DOPE   C3B43057  23.295  30.297  13.990  0.1317 -0.0217 -0.0799
 3669DOPE   C4B43058  22.850  30.357  14.152 -0.2780  0.0542 -0.0503
 3670DOPC   NC343059  28.018  21.162  12.288  0.0895 -0.2224  0.0579
 3670DOPC   PO443060  27.877  21.492  12.296  0.0279 -0.0530  0.4441
 3670DOPC   GL143061  28.139  21.690  12.530  0.2049  0.2340 -0.3609
 3670DOPC   GL243062  28.160  21.692  12.871 -0.0203  0.0831  0.3180
 3670DOPC   C1A43063  28.070  22.134  12.669 -0.1184  0.2060  0.0676
 3670DOPC   D2A43064  27.772  22.390  12.956  0.0444 -0.1048 -0.3459
 3670DOPC   C3A43065  27.839  22.841  12.978 -0.1528 -0.0709  0.0143
 3670DOPC   C4A43066  27.818  23.235  13.178 -0.1835 -0.0410  0.0169
 3670DOPC   C1B43067  28.253  22.039  13.148 -0.0488 -0.2569  0.0335
 3670DOPC   D2B43068  28.041  22.381  13.362  0.1561 -0.1910 -0.0669
 3670DOPC   C3B43069  27.620  22.654  13.413  0.3084  0.0121  0.1585
 3670DOPC   C4B43070  27.226  22.652  13.716  0.0094  0.1988 -0.1456
 3671POSM   NC343071  33.410  26.322  12.057 -0.0138  0.0969 -0.0145
 3671POSM   PO443072  33.624  25.968  12.140  0.1167 -0.1090 -0.1471
 3671POSM   AM143073  33.687  26.052  12.462 -0.1209  0.0568 -0.0606
 3671POSM   AM243074  33.847  26.111  12.677 -0.0001 -0.1242 -0.2630
 3671POSM   T1A43075  33.458  26.107  12.921 -0.0426 -0.1052 -0.0536
 3671POSM   C2A43076  33.411  25.991  13.342 -0.1698  0.0976  0.0806
 3671POSM   C3A43077  33.468  25.881  13.799 -0.4240 -0.1034 -0.0267
 3671POSM   C1B43078  33.898  26.300  12.960 -0.0653 -0.0370 -0.1167
 3671POSM   D2B43079  34.233  26.501  13.270 -0.2257  0.0813  0.3639
 3671POSM   C3B43080  34.077  26.659  13.699  0.3038 -0.0648  0.2354
 3671POSM   C4B43081  34.319  26.886  14.016 -0.1460 -0.0387  0.0523
 3672POSM   NC343082  29.315  31.346  13.166  0.0319 -0.3983 -0.0212
 3672POSM   PO443083  29.190  31.136  12.824  0.1117 -0.0607  0.2698
 3672POSM   AM143084  28.998  30.907  12.954 -0.2719 -0.2029 -0.0900
 3672POSM   AM243085  28.894  30.936  13.216 -0.1599  0.1932  0.0534
 3672POSM   T1A43086  28.991  30.462  13.109 -0.1268 -0.1560  0.0143
 3672POSM   C2A43087  29.263  30.084  12.973 -0.1403  0.0175 -0.2102
 3672POSM   C3A43088  29.162  29.668  13.077  0.2000 -0.3461 -0.1982
 3672POSM   C1B43089  29.018  30.977  13.507 -0.1059  0.1850 -0.2752
 3672POSM   D2B43090  28.909  30.841  13.973  0.0725  0.0149  0.1464
 3672POSM   C3B43091  28.809  31.244  14.198 -0.1766  0.0995  0.2493
 3672POSM   C4B43092  28.977  31.619  14.376  0.3441  0.1603  0.2079
 3673G1HHO Head43093  17.480  13.074  20.284 -0.1625  0.2639  0.0356
 3673G1HHO Head43094  17.284  12.999  20.040 -0.0497  0.5357 -0.0517
 3673G1HHO Head43095  16.996  12.805  19.703 -0.0370 -0.0105  0.1607
 3673G1HHO Head43096  16.904  13.005  19.875  0.2798 -0.1202  0.3743
 3673G1HHO link43097  17.088  13.165  19.982  0.1013  0.4239 -0.2726
 3673G1HHO link43098  17.091  13.445  20.001  0.1212  0.3632  0.4668
 3673G1HHO Tail43099  17.239  13.629  19.766  0.0168  0.2685 -0.2516
 3673G1HHO Tail43100  16.945  13.715  19.588 -0.1014 -0.0636 -0.0017
 3673G1HHO Tail43101  16.705  13.910  19.641  0.0862 -0.0671 -0.0690
 3673G1HHO Tail43102  16.329  13.916  19.862  0.0820  0.0728 -0.2034
 3673G1HHO Tail43103  17.246  13.935  19.946  0.1174  0.1113  0.2692
 3673G1HHO Tail43104  17.341  14.058  20.205 -0.1099 -0.3004 -0.0149
 3673G1HHO Tail43105  17.533  14.015  20.601 -0.1937 -0.0882 -0.1517
 3674G1HHO Head43106  19.732  14.520  24.936  0.2199  0.0754 -0.1076
 3674G1HHO Head43107  19.553  14.619  24.649  0.2767  0.1449  0.1339
 3674G1HHO Head43108  20.031  14.288  24.536  0.5429 -0.2042  0.0161
 3674G1HHO Head43109  19.934  14.586  24.474 -0.0331  0.0506 -0.1028
 3674G1HHO link43110  19.675  14.609  24.425 -0.1853  0.1023 -0.1467
 3674G1HHO link43111  19.551  14.553  24.172  0.2906  0.0331  0.1975
 3674G1HHO Tail43112  19.622  14.717  23.908 -0.1660  0.3511 -0.1554
 3674G1HHO Tail43113  19.666  14.455  23.677 -0.4006 -0.3014  0.0419
 3674G1HHO Tail43114  19.844  14.402  23.424 -0.2164  0.2174  0.1224
 3674G1HHO Tail43115  20.184  14.142  23.298 -0.1171 -0.1059  0.2275
 3674G1HHO Tail43116  19.304  14.840  23.790  0.3196 -0.5527 -0.2741
 3674G1HHO Tail43117  19.254  15.033  23.530 -0.5405 -0.0643 -0.2972
 3674G1HHO Tail43118  19.418  15.242  23.196 -0.0321  0.0144  0.4666
 3675G1HHO Head43119  13.359  19.830  21.189  0.2907 -0.1138  0.1131
 3675G1HHO Head43120  13.426  19.550  21.078 -0.0098  0.2286 -0.2742
 3675G1HHO Head43121  13.167  19.754  20.509  0.1752  0.0508 -0.0083
 3675G1HHO Head43122  13.337  19.708  20.714  0.0899  0.1388  0.1050
 3675G1HHO link43123  13.326  19.491  20.836 -0.2023  0.0206 -0.4874
 3675G1HHO link43124  13.334  19.229  20.727 -0.0551  0.1793  0.0250
 3675G1HHO Tail43125  13.233  18.968  20.911  0.1250 -0.2838  0.1616
 3675G1HHO Tail43126  13.538  18.808  20.941  0.4606 -0.2619  0.1765
 3675G1HHO Tail43127  13.637  18.538  21.033  0.0751  0.3905  0.0439
 3675G1HHO Tail43128  13.706  18.328  21.423  0.1975 -0.3662 -0.4932
 3675G1HHO Tail43129  13.234  19.112  21.224  0.1420 -0.0987 -0.1900
 3675G1HHO Tail43130  13.461  19.265  21.417  0.1413 -0.5091  0.1724
 3675G1HHO Tail43131  13.781  19.542  21.361 -0.0801  0.2137 -0.2023
 3676G1HHO Head43132  19.302  16.584  25.529  0.1732  0.1133  0.2037
 3676G1HHO Head43133  19.350  16.539  25.231  0.3265  0.3985 -0.1196
 3676G1HHO Head43134  19.091  15.865  25.248  0.1117 -0.0973 -0.1264
 3676G1HHO Head43135  19.212  16.168  25.314  0.5122  0.2422  0.3070
 3676G1HHO link43136  19.289  16.321  25.107 -0.3174  0.2685 -0.2481
 3676G1HHO link43137  19.221  16.293  24.837 -0.4385  0.0055  0.0734
 3676G1HHO Tail43138  19.435  16.155  24.634  0.0747 -0.1211  0.0927
 3676G1HHO Tail43139  19.462  16.408  24.381 -0.1155 -0.0920  0.2237
 3676G1HHO Tail43140  19.364  16.464  24.094  0.1940  0.3733  0.2227
 3676G1HHO Tail43141  18.986  16.408  23.873 -0.0075 -0.4290 -0.2494
 3676G1HHO Tail43142  19.742  16.231  24.781 -0.3470 -0.1549  0.0858
 3676G1HHO Tail43143  20.048  16.099  24.830  0.1789 -0.0011 -0.3275
 3676G1HHO Tail43144  20.331  15.897  24.575 -0.0740 -0.3564  0.4144
 3677G1HHO Head43145  20.918  16.822  24.123 -0.0686 -0.0204  0.2850
 3677G1HHO Head43146  20.898  16.857  23.790  0.6847 -0.1091  0.0639
 3677G1HHO Head43147  20.802  17.544  23.929 -0.0058 -0.0216  0.0939
 3677G1HHO Head43148  20.892  17.240  23.912 -0.1038  0.1128 -0.5477
 3677G1HHO link43149  20.849  17.107  23.709 -0.0171 -0.5220  0.0205
 3677G1HHO link43150  20.899  17.215  23.451 -0.0207  0.0726  0.3397
 3677G1HHO Tail43151  20.635  17.293  23.278  0.4386  0.3110 -0.3219
 3677G1HHO Tail43152  20.500  16.995  23.186  0.3626 -0.0092  0.0059
 3677G1HHO Tail43153  20.633  16.737  23.050  0.6046  0.1855 -0.1019
 3677G1HHO Tail43154  20.584  16.432  22.734  0.0218 -0.3133  0.1671
 3677G1HHO Tail43155  20.428  17.377  23.554 -0.0686  0.1050  0.2750
 3677G1HHO Tail43156  20.182  17.580  23.581  0.0350 -0.1317  0.2840
 3677G1HHO Tail43157  19.969  17.842  23.317 -0.1612  0.0467 -0.2255
 3678G1HHO Head43158  20.832  18.612  24.811  0.0426  0.0728 -0.3505
 3678G1HHO Head43159  20.572  18.481  24.894  0.4855  0.3315  0.2501
 3678G1HHO Head43160  20.505  18.626  25.594  0.1417 -0.1446  0.0055
 3678G1HHO Head43161  20.578  18.461  25.329 -0.1430 -0.2781 -0.0703
 3678G1HHO link43162  20.461  18.574  25.123 -0.3218  0.5000 -0.2086
 3678G1HHO link43163  20.209  18.715  25.145 -0.0233  0.0494  0.0717
 3678G1HHO Tail43164  19.959  18.586  24.946 -0.3195 -0.5317 -0.2825
 3678G1HHO Tail43165  19.793  18.880  24.840  0.3755 -0.1417 -0.2086
 3678G1HHO Tail43166  19.573  18.929  24.613  0.5844 -0.1707 -0.1800
 3678G1HHO Tail43167  19.417  18.758  24.254  0.5236 -0.2400  0.0777
 3678G1HHO Tail43168  20.166  18.540  24.659  0.0933 -0.0520  0.4508
 3678G1HHO Tail43169  20.115  18.479  24.350 -0.1350  0.1102 -0.5541
 3678G1HHO Tail43170  19.854  18.252  24.085  0.4216  0.1307 -0.2528
 3679G1HHO Head43171  13.938  19.946  23.322 -0.1322  0.0123  0.0731
 3679G1HHO Head43172  14.196  19.893  23.148 -0.2087  0.0915  0.1182
 3679G1HHO Head43173  14.169  19.235  23.069 -0.4197  0.1743  0.0994
 3679G1HHO Head43174  14.066  19.547  23.013 -0.2487  0.1512 -0.3729
 3679G1HHO link43175  14.221  19.733  22.933 -0.1503  0.1245  0.0198
 3679G1HHO link43176  14.473  19.700  22.794  0.2345 -0.2343  0.1162
 3679G1HHO Tail43177  14.585  19.426  22.670  0.2578 -0.2994 -0.5364
 3679G1HHO Tail43178  14.454  19.414  22.348 -0.0817 -0.2663  0.0038
 3679G1HHO Tail43179  14.548  19.562  22.089 -0.2774  0.2564 -0.0561
 3679G1HHO Tail43180  14.695  19.458  21.694  0.0268 -0.3770 -0.0832
 3679G1HHO Tail43181  14.930  19.520  22.604 -0.1986 -0.2177  0.0786
 3679G1HHO Tail43182  15.080  19.631  22.338 -0.1254 -0.2248 -0.1902
 3679G1HHO Tail43183  15.045  19.958  22.037  0.0064 -0.0131  0.3427
 3680G1HHO Head43184  17.663  16.050  25.197  0.0975 -0.3152 -0.2019
 3680G1HHO Head43185  17.606  15.914  24.925  0.1868  0.2485 -0.0136
 3680G1HHO Head43186  17.640  15.601  25.406 -0.1207 -0.0537  0.1710
 3680G1HHO Head43187  17.557  15.571  25.105 -0.1491  0.1934 -0.4429
 3680G1HHO link43188  17.687  15.662  24.881 -0.1503 -0.1981 -0.1790
 3680G1HHO link43189  17.909  15.570  24.730 -0.3604 -0.1887  0.2329
 3680G1HHO Tail43190  18.086  15.792  24.555 -0.0747 -0.1865  0.0917
 3680G1HHO Tail43191  18.187  15.593  24.278 -0.3941  0.2309  0.4851
 3680G1HHO Tail43192  18.288  15.655  23.983 -0.1388  0.0686  0.2494
 3680G1HHO Tail43193  18.183  15.898  23.635  0.1075 -0.0315  0.0513
 3680G1HHO Tail43194  17.827  15.996  24.420  0.0671 -0.0883 -0.1559
 3680G1HHO Tail43195  17.782  16.291  24.360  0.7219  0.2578 -0.0406
 3680G1HHO Tail43196  17.512  16.503  24.114  0.0628 -0.2984 -0.1061
 3681G1HHO Head43197  20.915  17.121  24.499  0.1156  0.3166 -0.2226
 3681G1HHO Head43198  20.646  17.208  24.327  0.3558 -0.2414 -0.0768
 3681G1HHO Head43199  20.438  16.746  24.540  0.2522  0.1502 -0.0706
 3681G1HHO Head43200  20.538  16.800  24.282  0.0848 -0.1568  0.3935
 3681G1HHO link43201  20.511  17.034  24.178  0.7763 -0.0510 -0.1704
 3681G1HHO link43202  20.409  17.075  23.916 -0.0767  0.0901 -0.0177
 3681G1HHO Tail43203  20.468  16.872  23.671  0.0154  0.3928 -0.3004
 3681G1HHO Tail43204  20.474  16.595  23.859 -0.0391  0.1183  0.1290
 3681G1HHO Tail43205  20.243  16.525  24.065  0.1628  0.3090  0.3158
 3681G1HHO Tail43206  20.136  16.283  24.410  0.1801 -0.2830 -0.1915
 3681G1HHO Tail43207  20.131  16.848  23.542 -0.1637  0.1055  0.0690
 3681G1HHO Tail43208  19.928  16.617  23.582 -0.3098  0.0410 -0.0558
 3681G1HHO Tail43209  19.842  16.284  23.854  0.1304  0.1616  0.0261
 3682G1HHO Head43210  13.299  18.231  23.111 -0.2935 -0.1672  0.1542
 3682G1HHO Head43211  13.441  18.555  23.007 -0.2814 -0.4364  0.3766
 3682G1HHO Head43212  13.759  18.200  23.177  0.0566 -0.5126  0.0563
 3682G1HHO Head43213  13.834  18.385  22.934  0.1913 -0.0717  0.1042
 3682G1HHO link43214  13.650  18.556  22.849 -0.1422  0.2046  0.2519
 3682G1HHO link43215  13.683  18.748  22.634  0.0333  0.0247 -0.4799
 3682G1HHO Tail43216  13.950  18.749  22.458 -0.2053 -0.2819 -0.0866
 3682G1HHO Tail43217  14.080  18.430  22.537 -0.2195  0.1541  0.0634
 3682G1HHO Tail43218  14.025  18.165  22.382 -0.0926  0.0805  0.4230
 3682G1HHO Tail43219  14.203  17.773  22.289 -0.0626  0.0453 -0.0810
 3682G1HHO Tail43220  13.802  18.659  22.140  0.2667  0.0596  0.2193
 3682G1HHO Tail43221  13.740  18.404  21.956  0.5160 -0.1872 -0.3868
 3682G1HHO Tail43222  13.905  18.062  21.754  0.0461 -0.0536 -0.1202
 3683G1HHO Head43223  17.813  21.483  21.265  0.3067 -0.0792  0.0599
 3683G1HHO Head43224  17.673  21.429  21.020  0.3508 -0.1106  0.3676
 3683G1HHO Head43225  17.463  21.927  21.092 -0.0910 -0.0840  0.2745
 3683G1HHO Head43226  17.459  21.734  20.886 -0.1022 -0.1035  0.0130
 3683G1HHO link43227  17.678  21.583  20.808 -0.2091  0.0695 -0.3960
 3683G1HHO link43228  17.761  21.462  20.557  0.0534 -0.1106  0.2263
 3683G1HHO Tail43229  17.772  21.150  20.467 -0.0787  0.1397  0.0515
 3683G1HHO Tail43230  18.060  21.053  20.610 -0.0969  0.2305 -0.0661
 3683G1HHO Tail43231  18.313  20.870  20.489  0.0043 -0.2074  0.0270
 3683G1HHO Tail43232  18.580  20.855  20.149  0.1244 -0.3207  0.1337
 3683G1HHO Tail43233  17.542  21.019  20.691 -0.0754  0.1119 -0.0194
 3683G1HHO Tail43234  17.366  21.121  20.923  0.1404 -0.3295 -0.0239
 3683G1HHO Tail43235  17.066  21.441  21.014 -0.3706  0.3013  0.1840
 3684G1HHO Head43236  18.326  18.576  21.424  0.1754  0.1146  0.1953
 3684G1HHO Head43237  18.617  18.629  21.288  0.1204 -0.0809 -0.0031
 3684G1HHO Head43238  18.334  18.879  20.684 -0.3251  0.0858 -0.2377
 3684G1HHO Head43239  18.374  18.728  20.965  0.0631  0.0072  0.4630
 3684G1HHO link43240  18.623  18.699  21.034  0.2135 -0.1093 -0.1791
 3684G1HHO link43241  18.869  18.687  20.878 -0.1383 -0.3469  0.0205
 3684G1HHO Tail43242  18.969  18.911  20.647 -0.1598  0.2086  0.0181
 3684G1HHO Tail43243  18.797  19.184  20.758  0.0860  0.2207  0.2060
 3684G1HHO Tail43244  18.629  19.397  20.586  0.4620 -0.0452 -0.2732
 3684G1HHO Tail43245  18.677  19.808  20.487  0.3737 -0.0569  0.0521
 3684G1HHO Tail43246  19.283  18.973  20.792  0.1083 -0.0729 -0.0632
 3684G1HHO Tail43247  19.458  19.192  20.936  0.3091  0.1428  0.1211
 3684G1HHO Tail43248  19.384  19.522  21.214 -0.2307  0.1540  0.1912
 3685G1HHO Head43249  16.716  16.093  21.450 -0.3109 -0.2342 -0.2984
 3685G1HHO Head43250  16.848  15.822  21.446 -0.1120  0.1215  0.3513
 3685G1HHO Head43251  16.665  15.802  21.958 -0.0100  0.2262  0.1793
 3685G1HHO Head43252  16.959  15.852  21.853  0.2568 -0.0930  0.3228
 3685G1HHO link43253  17.032  15.748  21.604 -0.2074  0.0354 -0.2616
 3685G1HHO link43254  17.172  15.501  21.548 -0.3226  0.0233  0.0785
 3685G1HHO Tail43255  17.117  15.227  21.710  0.0437  0.3265  0.4366
 3685G1HHO Tail43256  17.403  15.169  21.893  0.0227 -0.2821 -0.4056
 3685G1HHO Tail43257  17.695  15.219  21.845 -0.0372 -0.0488 -0.1239
 3685G1HHO Tail43258  18.034  15.088  21.620  0.2437 -0.1156 -0.1765
 3685G1HHO Tail43259  16.872  15.364  21.936 -0.1190 -0.1173  0.2159
 3685G1HHO Tail43260  16.859  15.405  22.247 -0.1852  0.3546 -0.0182
 3685G1HHO Tail43261  16.582  15.557  22.523  0.6529 -0.3433  0.0058
 3686G1HHO Head43262  13.113  16.279  19.883  0.0795  0.4164 -0.0466
 3686G1HHO Head43263  13.293  16.528  19.993  0.0547  0.5571  0.0680
 3686G1HHO Head43264  12.808  16.719  19.765  0.2858 -0.0998 -0.3817
 3686G1HHO Head43265  13.014  16.807  19.947 -0.2092 -0.1939  0.3023
 3686G1HHO link43266  13.251  16.756  19.873  0.1396 -0.7426 -0.2452
 3686G1HHO link43267  13.379  16.846  19.634  0.1365 -0.1449  0.0656
 3686G1HHO Tail43268  13.557  16.646  19.460  0.2534  0.3130  0.1702
 3686G1HHO Tail43269  13.878  16.751  19.465 -0.2196  0.5022  0.1775
 3686G1HHO Tail43270  14.111  16.691  19.674  0.2600 -0.2041 -0.2399
 3686G1HHO Tail43271  14.347  16.384  19.851 -0.2008 -0.4262  0.2235
 3686G1HHO Tail43272  13.587  16.380  19.698 -0.3127 -0.1312  0.1405
 3686G1HHO Tail43273  13.808  16.288  19.916 -0.4379 -0.2237 -0.0845
 3686G1HHO Tail43274  13.892  16.341  20.331 -0.0931 -0.5807 -0.0191
 3687G1HHO Head43275  21.832  18.419  22.903 -0.1959 -0.2563  0.1555
 3687G1HHO Head43276  21.719  18.148  22.885 -0.3062 -0.4266  0.2093
 3687G1HHO Head43277  22.142  17.989  22.362  0.0389  0.1753  0.1542
 3687G1HHO Head43278  22.001  18.052  22.614  0.0914  0.1301  0.0497
 3687G1HHO link43279  21.752  18.024  22.656  0.0174 -0.0507  0.4001
 3687G1HHO link43280  21.571  17.998  22.432 -0.3313  0.2795  0.0672
 3687G1HHO Tail43281  21.367  17.749  22.422 -0.0585  0.3285  0.6430
 3687G1HHO Tail43282  21.051  17.905  22.403 -0.1012  0.3572  0.0076
 3687G1HHO Tail43283  20.935  18.140  22.570  0.0036 -0.3834  0.0928
 3687G1HHO Tail43284  20.733  18.524  22.553 -0.0860 -0.0036  0.2144
 3687G1HHO Tail43285  21.389  17.734  22.069 -0.1519 -0.0945 -0.2448
 3687G1HHO Tail43286  21.183  17.815  21.861  0.4733 -0.0435  0.4711
 3687G1HHO Tail43287  21.105  17.862  21.424 -0.1581 -0.0669 -0.0835
 3688G1HHO Head43288  14.777  13.918  23.145  0.0843  0.0114  0.0251
 3688G1HHO Head43289  14.954  13.933  22.883  0.0093 -0.0715  0.5171
 3688G1HHO Head43290  15.254  13.712  23.159  0.1685 -0.2066 -0.2264
 3688G1HHO Head43291  15.327  13.967  23.062  0.3215  0.2636  0.2756
 3688G1HHO link43292  15.199  14.040  22.861  0.6444  0.0816 -0.0566
 3688G1HHO link43293  15.249  14.268  22.703 -0.0452 -0.1170 -0.0407
 3688G1HHO Tail43294  15.218  14.603  22.771 -0.3226 -0.2701 -0.0901
 3688G1HHO Tail43295  15.371  14.586  23.067 -0.0607 -0.1623 -0.2603
 3688G1HHO Tail43296  15.673  14.666  23.179 -0.1461 -0.3299 -0.3403
 3688G1HHO Tail43297  15.965  14.554  23.473  0.1351  0.0592 -0.5068
 3688G1HHO Tail43298  15.431  14.760  22.539 -0.0386  0.1540  0.3951
 3688G1HHO Tail43299  15.480  15.066  22.503  0.3488  0.0632  0.2318
 3688G1HHO Tail43300  15.551  15.415  22.733  0.4722  0.1439  0.4339
 3689G1HHO Head43301  16.581  18.858  22.539 -0.0907  0.5899  0.1751
 3689G1HHO Head43302  16.835  18.756  22.351 -0.1173  0.0122  0.1936
 3689G1HHO Head43303  17.286  18.600  21.975 -0.0266 -0.1148 -0.3147
 3689G1HHO Head43304  17.158  18.893  22.104 -0.0220 -0.1313 -0.0454
 3689G1HHO link43305  16.898  18.922  22.164 -0.0321 -0.2305  0.4018
 3689G1HHO link43306  16.746  19.141  22.068 -0.1562  0.2582  0.1900
 3689G1HHO Tail43307  16.833  19.433  22.035 -0.2019  0.2574 -0.0337
 3689G1HHO Tail43308  16.542  19.584  21.927  0.1960  0.0318 -0.1888
 3689G1HHO Tail43309  16.404  19.872  21.974  0.5721  0.0279  0.2039
 3689G1HHO Tail43310  16.032  20.097  22.101 -0.1646  0.3685  0.0104
 3689G1HHO Tail43311  16.910  19.540  22.378  0.1589 -0.1800  0.0096
 3689G1HHO Tail43312  17.092  19.747  22.538 -0.5323  0.3902  0.4106
 3689G1HHO Tail43313  17.443  19.817  22.781 -0.1050 -0.0706  0.3251
 3690G1HHO Head43314  21.681  15.834  22.002 -0.0687  0.2120  0.0667
 3690G1HHO Head43315  21.768  15.749  21.734  0.3737  0.2462 -0.0119
 3690G1HHO Head43316  22.150  15.886  21.304  0.2865 -0.1953 -0.0742
 3690G1HHO Head43317  21.863  16.006  21.437 -0.1995 -0.2373 -0.1767
 3690G1HHO link43318  21.659  15.878  21.537  0.2225 -0.0429 -0.2305
 3690G1HHO link43319  21.397  15.998  21.550 -0.0844  0.0972  0.1757
 3690G1HHO Tail43320  21.193  15.994  21.278  0.0685  0.2008 -0.0307
 3690G1HHO Tail43321  20.898  16.015  21.439 -0.1146  0.4789 -0.1523
 3690G1HHO Tail43322  20.640  16.176  21.392 -0.0231  0.2748  0.4818
 3690G1HHO Tail43323  20.401  16.292  21.062 -0.0119  0.0428  0.2240
 3690G1HHO Tail43324  21.187  16.331  21.178 -0.0848  0.0946 -0.3504
 3690G1HHO Tail43325  20.954  16.530  21.175 -0.0694  0.0277  0.0798
 3690G1HHO Tail43326  20.737  16.770  20.885  0.2511 -0.5478 -0.1407
 3691G1HHO Head43327  16.116  18.302  20.445 -0.2172 -0.1785 -0.0246
 3691G1HHO Head43328  15.846  18.456  20.544  0.0966  0.4698 -0.0151
 3691G1HHO Head43329  16.231  18.393  21.068  0.2378  0.2777 -0.1391
 3691G1HHO Head43330  15.965  18.316  20.906 -0.0607 -0.4122 -0.1888
 3691G1HHO link43331  15.806  18.506  20.796 -0.2943  0.2087  0.0409
 3691G1HHO link43332  15.683  18.740  20.916 -0.3703  0.2589 -0.1463
 3691G1HHO Tail43333  15.752  18.797  21.236  0.1713  0.0232  0.2255
 3691G1HHO Tail43334  15.511  18.607  21.389 -0.0147  0.1198 -0.0286
 3691G1HHO Tail43335  15.251  18.467  21.313  0.0521  0.1207  0.2702
 3691G1HHO Tail43336  14.839  18.587  21.274 -0.0565  0.2937 -0.0817
 3691G1HHO Tail43337  15.595  19.124  21.297 -0.3514  0.1185  0.2109
 3691G1HHO Tail43338  15.520  19.325  21.524  0.4575  0.2072 -0.3561
 3691G1HHO Tail43339  15.198  19.511  21.748 -0.2053 -0.1728  0.8266
 3692G1HHO Head43340  20.277  19.602  19.147  0.2247 -0.1338 -0.1952
 3692G1HHO Head43341  20.252  19.722  19.427 -0.1171 -0.0952 -0.0435
 3692G1HHO Head43342  20.943  19.795  19.562 -0.2352  0.2203  0.0204
 3692G1HHO Head43343  20.670  19.657  19.483 -0.1037 -0.1550  0.1034
 3692G1HHO link43344  20.458  19.738  19.617  0.3095  0.2483 -0.5720
 3692G1HHO link43345  20.406  19.652  19.887 -0.2483  0.2298 -0.0657
 3692G1HHO Tail43346  20.145  19.473  19.953 -0.0302 -0.2103  0.3545
 3692G1HHO Tail43347  19.894  19.729  19.983  0.6356 -0.3569  0.4914
 3692G1HHO Tail43348  19.655  19.880  19.788  0.0427 -0.2901  0.2174
 3692G1HHO Tail43349  19.222  19.899  19.789  0.2066  0.1191  0.0939
 3692G1HHO Tail43350  20.037  19.370  19.638  0.1453  0.1121  0.3003
 3692G1HHO Tail43351  19.894  19.509  19.387  0.2235 -0.0772 -0.2415
 3692G1HHO Tail43352  19.663  19.845  19.248  0.2174 -0.2254 -0.0975
 3693G1HHO Head43353  13.383  19.346  22.623 -0.1082 -0.0637 -0.1237
 3693G1HHO Head43354  13.563  19.189  22.440 -0.2608 -0.1894  0.1506
 3693G1HHO Head43355  13.306  19.013  21.756  0.0521 -0.1347 -0.2083
 3693G1HHO Head43356  13.454  19.004  22.070  0.0694  0.0404  0.2307
 3693G1HHO link43357  13.567  19.207  22.174 -0.1656 -0.1025  0.2977
 3693G1HHO link43358  13.730  19.392  22.017 -0.0094 -0.1953  0.0272
 3693G1HHO Tail43359  14.047  19.458  22.089  0.2528  0.0078  0.0673
 3693G1HHO Tail43360  14.210  19.146  22.053  0.1896  0.1526 -0.1626
 3693G1HHO Tail43361  14.454  19.047  21.878 -0.0248  0.0011 -0.4086
 3693G1HHO Tail43362  14.600  18.689  21.708 -0.0272 -0.1274  0.0697
 3693G1HHO Tail43363  14.159  19.600  21.809 -0.0135  0.0585 -0.1481
 3693G1HHO Tail43364  14.243  19.456  21.531  0.2812 -0.3665 -0.0532
 3693G1HHO Tail43365  14.348  19.052  21.419 -0.3101 -0.2604  0.3101
 3694G1HHO Head43366  16.992  21.136  20.320 -0.0799 -0.1299 -0.1451
 3694G1HHO Head43367  16.819  20.879  20.320  0.2140  0.2653 -0.1684
 3694G1HHO Head43368  16.410  21.053  19.787 -0.3083  0.1955 -0.1518
 3694G1HHO Head43369  16.650  20.989  19.967  0.0029 -0.1596 -0.3035
 3694G1HHO link43370  16.583  20.854  20.190  0.1712  0.0120  0.7501
 3694G1HHO link43371  16.415  20.626  20.181  0.2243  0.2727 -0.2779
 3694G1HHO Tail43372  16.078  20.647  20.122 -0.1374 -0.2272 -0.3535
 3694G1HHO Tail43373  15.953  20.346  20.255  0.0902  0.1749 -0.2001
 3694G1HHO Tail43374  15.826  20.320  20.537 -0.0667  0.0528  0.0477
 3694G1HHO Tail43375  15.832  20.023  20.852  0.0177 -0.3557  0.0849
 3694G1HHO Tail43376  15.958  20.848  20.404 -0.0100 -0.0431 -0.5351
 3694G1HHO Tail43377  15.866  20.791  20.722 -0.4859 -0.2623  0.3755
 3694G1HHO Tail43378  15.985  20.540  21.043 -0.2075 -0.0471 -0.2134
 3695G1HHO Head43379  14.866  16.664  23.930  0.1447 -0.0463 -0.2317
 3695G1HHO Head43380  14.984  16.783  24.168  0.0996  0.1637  0.2663
 3695G1HHO Head43381  15.110  17.336  23.827 -0.0542  0.1790 -0.0432
 3695G1HHO Head43382  15.121  17.086  23.905 -0.1770  0.2112 -0.5467
 3695G1HHO link43383  15.135  17.011  24.152  0.4480 -0.0414  0.5258
 3695G1HHO link43384  15.272  17.128  24.363 -0.0160 -0.1485  0.3313
 3695G1HHO Tail43385  15.514  17.337  24.289 -0.1050  0.1238  0.1341
 3695G1HHO Tail43386  15.326  17.632  24.224  0.1453 -0.1486  0.0041
 3695G1HHO Tail43387  15.259  17.716  23.935  0.1587 -0.2704  0.0758
 3695G1HHO Tail43388  15.454  17.769  23.539  0.0211  0.1347 -0.1982
 3695G1HHO Tail43389  15.582  17.421  24.618  0.2429 -0.2169  0.0211
 3695G1HHO Tail43390  15.534  17.355  24.909  0.4162  0.1307 -0.2180
 3695G1HHO Tail43391  15.218  17.249  25.190 -0.1484 -0.1898  0.1518
 3696G1HHO Head43392  14.525  20.149  22.994 -0.2048  0.1067 -0.1761
 3696G1HHO Head43393  14.338  20.158  22.705 -0.0884 -0.3746  0.0795
 3696G1HHO Head43394  13.878  20.181  22.904 -0.5266  0.1508  0.2062
 3696G1HHO Head43395  13.981  19.936  22.759 -0.0214  0.0051 -0.2247
 3696G1HHO link43396  14.222  19.950  22.611  0.0745  0.0993  0.1833
 3696G1HHO link43397  14.216  19.864  22.326 -0.0170  0.1465 -0.0992
 3696G1HHO Tail43398  14.226  20.081  22.086 -0.0953  0.2049 -0.4060
 3696G1HHO Tail43399  14.337  20.370  22.255  0.2575 -0.1596  0.0022
 3696G1HHO Tail43400  14.584  20.444  22.446  0.2115  0.1666 -0.1248
 3696G1HHO Tail43401  14.666  20.689  22.789 -0.2073 -0.3383  0.2165
 3696G1HHO Tail43402  14.502  19.963  21.937  0.0653  0.0760  0.1081
 3696G1HHO Tail43403  14.629  20.024  21.665  0.0287  0.2481 -0.0191
 3696G1HHO Tail43404  14.544  20.235  21.307 -0.4158 -0.0793 -0.1406
 3697G1HHO Head43405  14.954  13.613  21.402  0.2117 -0.2515  0.0163
 3697G1HHO Head43406  14.660  13.766  21.391 -0.1591  0.0455 -0.0308
 3697G1HHO Head43407  14.299  14.386  21.616  0.2282 -0.2824  0.2558
 3697G1HHO Head43408  14.353  14.092  21.487 -0.3808  0.0598 -0.1437
 3697G1HHO link43409  14.636  14.006  21.476 -0.3137 -0.2376 -0.3849
 3697G1HHO link43410  14.859  14.159  21.590  0.2168  0.1179 -0.1783
 3697G1HHO Tail43411  14.822  14.323  21.882 -0.0195  0.3224  0.0832
 3697G1HHO Tail43412  14.835  14.071  22.106 -0.2532 -0.0245 -0.0759
 3697G1HHO Tail43413  14.885  14.080  22.424  0.1143  0.1321 -0.1513
 3697G1HHO Tail43414  14.789  14.327  22.774  0.0285  0.0548  0.0050
 3697G1HHO Tail43415  15.131  14.478  21.886  0.0024 -0.3087  0.0798
 3697G1HHO Tail43416  15.368  14.531  22.107  0.2478 -0.3697  0.2188
 3697G1HHO Tail43417  15.798  14.604  22.166 -0.3541  0.4343  0.2257
 3698G1HHO Head43418  16.500  13.758  23.565 -0.1065  0.0368 -0.1519
 3698G1HHO Head43419  16.466  13.946  23.342  0.1314  0.5053 -0.0619
 3698G1HHO Head43420  16.504  13.429  22.886  0.4134  0.2374 -0.1172
 3698G1HHO Head43421  16.441  13.612  23.139 -0.4805  0.3236  0.4376
 3698G1HHO link43422  16.415  13.860  23.094 -0.1727 -0.0576 -0.1272
 3698G1HHO link43423  16.510  14.004  22.857  0.2766  0.0853  0.2168
 3698G1HHO Tail43424  16.471  13.888  22.545  0.1358 -0.0841  0.1140
 3698G1HHO Tail43425  16.195  13.687  22.612  0.1070 -0.1036  0.2510
 3698G1HHO Tail43426  15.894  13.673  22.520  0.3485 -0.0057 -0.0002
 3698G1HHO Tail43427  15.513  13.833  22.639  0.2983  0.4422 -0.1085
 3698G1HHO Tail43428  16.296  14.176  22.418 -0.1638 -0.0554  0.3891
 3698G1HHO Tail43429  16.103  14.235  22.162  0.0081  0.0085 -0.3879
 3698G1HHO Tail43430  16.114  14.398  21.760  0.0488  0.1802 -0.1393
 3699G1HHO Head43431  15.015  17.687  20.727  0.0905 -0.0150  0.1505
 3699G1HHO Head43432  15.147  17.933  20.587  0.2002 -0.2483  0.2515
 3699G1HHO Head43433  14.850  18.256  20.860  0.1638  0.0791  0.1715
 3699G1HHO Head43434  14.875  18.268  20.540 -0.0975  0.2186  0.1419
 3699G1HHO link43435  15.010  18.073  20.412  0.1260 -0.1636 -0.3180
 3699G1HHO link43436  14.998  18.021  20.133  0.0033 -0.0278  0.0427
 3699G1HHO Tail43437  14.780  17.837  19.988  0.2506  0.1087  0.0607
 3699G1HHO Tail43438  14.946  17.732  19.680 -0.3250  0.0361  0.0022
 3699G1HHO Tail43439  15.129  17.887  19.463  0.1614  0.2589  0.2905
 3699G1HHO Tail43440  15.119  18.278  19.270 -0.0710  0.4673 -0.4172
 3699G1HHO Tail43441  14.775  17.529  20.183 -0.1957  0.0957 -0.0935
 3699G1HHO Tail43442  14.577  17.361  20.379 -0.3409  0.0059  0.0822
 3699G1HHO Tail43443  14.502  16.977  20.564 -0.2357  0.0851  0.2763
 3700G1HHO Head43444  21.702  18.452  23.621 -0.1083  0.0496  0.0096
 3700G1HHO Head43445  21.623  18.287  23.334 -0.2021  0.2914  0.0173
 3700G1HHO Head43446  21.720  17.802  23.497 -0.0915  0.1244  0.0180
 3700G1HHO Head43447  21.466  17.918  23.355  0.1614  0.5063 -0.4025
 3700G1HHO link43448  21.394  18.146  23.335  0.5203 -0.0228  0.1015
 3700G1HHO link43449  21.152  18.274  23.399 -0.0962 -0.1760  0.0489
 3700G1HHO Tail43450  20.840  18.157  23.413 -0.0547  0.2709 -0.0306
 3700G1HHO Tail43451  20.687  18.477  23.439  0.1663  0.2111  0.0657
 3700G1HHO Tail43452  20.381  18.582  23.383 -0.2554  0.4316  0.0501
 3700G1HHO Tail43453  20.088  18.869  23.523 -0.0913 -0.0568 -0.2699
 3700G1HHO Tail43454  20.793  18.112  23.076  0.4399 -0.0444 -0.0714
 3700G1HHO Tail43455  20.568  18.029  22.884 -0.1165  0.0928  0.0553
 3700G1HHO Tail43456  20.536  17.916  22.470  0.0752  0.2195  0.1785
 3701G1HHO Head43457  18.157  17.980  21.803 -0.0850  0.0048 -0.1293
 3701G1HHO Head43458  18.176  18.270  21.774 -0.0103 -0.1517 -0.0123
 3701G1HHO Head43459  18.855  18.266  21.965  0.0519 -0.2340  0.2445
 3701G1HHO Head43460  18.585  18.266  21.809  0.1795 -0.3015 -0.0482
 3701G1HHO link43461  18.375  18.407  21.854 -0.6606 -0.2889  0.5676
 3701G1HHO link43462  18.375  18.675  21.962  0.2581 -0.2553  0.0142
 3701G1HHO Tail43463  18.246  18.762  22.255  0.2599  0.0138  0.0576
 3701G1HHO Tail43464  18.432  19.028  22.361  0.1988 -0.0638 -0.2064
 3701G1HHO Tail43465  18.503  19.316  22.301  0.2048  0.3205 -0.1208
 3701G1HHO Tail43466  18.366  19.706  22.438  0.0201  0.2253  0.0246
 3701G1HHO Tail43467  17.973  18.949  22.118 -0.0012  0.5464 -0.1029
 3701G1HHO Tail43468  17.848  19.246  22.098  0.1328 -0.1503 -0.1116
 3701G1HHO Tail43469  17.968  19.646  21.983  0.1223  0.2133 -0.0127
 3702G1HHO Head43470  13.705  16.436  22.401 -0.0145  0.1429  0.0074
 3702G1HHO Head43471  13.888  16.266  22.288 -0.0247  0.3708  0.1575
 3702G1HHO Head43472  13.319  16.096  21.969 -0.1702 -0.1844 -0.1425
 3702G1HHO Head43473  13.542  16.052  22.207  0.4472 -0.2622  0.1115
 3702G1HHO link43474  13.797  16.054  22.149  0.7222 -0.1345 -0.3312
 3702G1HHO link43475  13.923  15.843  21.994  0.0176 -0.2872  0.1765
 3702G1HHO Tail43476  14.229  15.863  21.868  0.1690 -0.3798  0.2390
 3702G1HHO Tail43477  14.365  16.105  22.073  0.0896  0.0588 -0.0584
 3702G1HHO Tail43478  14.403  16.140  22.396 -0.3540  0.5310  0.5309
 3702G1HHO Tail43479  14.483  15.883  22.750 -0.6599  0.0615  0.4002
 3702G1HHO Tail43480  14.352  15.590  22.019  0.0495  0.3043  0.1271
 3702G1HHO Tail43481  14.466  15.303  21.896  0.2165  0.0489  0.3402
 3702G1HHO Tail43482  14.439  15.031  21.554  0.2552 -0.1787 -0.0817
 3703G1HHO Head43483  20.046  20.512  20.972  0.1201 -0.1476  0.1389
 3703G1HHO Head43484  20.056  20.251  21.108 -0.3137  0.0213  0.0090
 3703G1HHO Head43485  19.710  20.212  20.674  0.1322 -0.2059 -0.2391
 3703G1HHO Head43486  20.015  20.128  20.716  0.3184 -0.0373  0.0808
 3703G1HHO link43487  20.092  20.063  20.956  0.1252  0.3074 -0.0824
 3703G1HHO link43488  20.240  19.823  21.029  0.2664  0.3457  0.5283
 3703G1HHO Tail43489  20.223  19.540  20.863  0.1044 -0.3895  0.0069
 3703G1HHO Tail43490  20.328  19.317  21.126 -0.0329 -0.0797 -0.1059
 3703G1HHO Tail43491  20.599  19.143  21.159 -0.1329 -0.3512 -0.2777
 3703G1HHO Tail43492  21.000  19.103  20.995 -0.0449  0.7158 -0.1776
 3703G1HHO Tail43493  19.879  19.510  20.895  0.3127 -0.2008 -0.3604
 3703G1HHO Tail43494  19.597  19.653  20.780 -0.0527 -0.1866 -0.2664
 3703G1HHO Tail43495  19.194  19.540  20.670  0.1824  0.1981 -0.1670
 3704G1HHO Head43496  19.421  14.983  18.320 -0.1348  0.1068 -0.3915
 3704G1HHO Head43497  19.216  15.189  18.396 -0.2903  0.1206  0.4305
 3704G1HHO Head43498  19.123  15.607  18.060  0.0135  0.1671 -0.1593
 3704G1HHO Head43499  19.327  15.574  18.304 -0.2892 -0.4874  0.0813
 3704G1HHO link43500  19.278  15.425  18.507  0.0438  0.1928 -0.4447
 3704G1HHO link43501  19.147  15.504  18.748 -0.1759  0.3166 -0.0349
 3704G1HHO Tail43502  19.221  15.793  18.917 -0.2430  0.0856  0.0568
 3704G1HHO Tail43503  19.285  15.659  19.234 -0.3885  0.2402  0.3167
 3704G1HHO Tail43504  19.325  15.759  19.525  0.1016  0.0758  0.2606
 3704G1HHO Tail43505  19.160  15.677  19.920  0.1817 -0.0970  0.0244
 3704G1HHO Tail43506  19.534  15.862  18.790 -0.0073 -0.0839  0.1616
 3704G1HHO Tail43507  19.724  16.113  18.813  0.1737  0.0007 -0.0713
 3704G1HHO Tail43508  19.746  16.546  18.772 -0.1428 -0.2711 -0.1611
 3705G1HHO Head43509  16.875  20.675  18.474  0.3723 -0.0083  0.1812
 3705G1HHO Head43510  16.730  20.817  18.679  0.3504 -0.1564 -0.1014
 3705G1HHO Head43511  16.294  20.928  19.082 -0.2120 -0.2827 -0.0284
 3705G1HHO Head43512  16.587  20.860  19.075 -0.2999 -0.3029 -0.2112
 3705G1HHO link43513  16.673  20.681  18.884 -0.1208  0.3968  0.1583
 3705G1HHO link43514  16.566  20.428  18.923  0.3330 -0.1935  0.7600
 3705G1HHO Tail43515  16.539  20.277  19.211  0.1845 -0.0835 -0.0041
 3705G1HHO Tail43516  16.378  19.982  19.095  0.0552 -0.0538 -0.1936
 3705G1HHO Tail43517  16.091  19.886  18.996  0.0788 -0.4728  0.5236
 3705G1HHO Tail43518  15.853  19.943  18.633 -0.0708 -0.0280 -0.0431
 3705G1HHO Tail43519  16.870  20.172  19.260 -0.2442  0.3578  0.0138
 3705G1HHO Tail43520  17.161  20.258  19.178 -0.1207 -0.2193  0.0217
 3705G1HHO Tail43521  17.510  20.131  18.926 -0.1182 -0.0640 -0.0996
 3706G1HHO Head43522  18.196  17.186  22.977  0.0603  0.1088  0.1235
 3706G1HHO Head43523  18.249  17.166  23.242  0.1813 -0.0023 -0.4051
 3706G1HHO Head43524  17.999  17.624  23.218  0.0077 -0.1038  0.2350
 3706G1HHO Head43525  18.271  17.573  23.357 -0.1670 -0.0007  0.3154
 3706G1HHO link43526  18.381  17.354  23.379  0.0338  0.0751  0.1158
 3706G1HHO link43527  18.521  17.292  23.615 -0.3824 -0.2573  0.0904
 3706G1HHO Tail43528  18.482  17.017  23.787 -0.1504 -0.2258  0.1402
 3706G1HHO Tail43529  18.188  16.937  23.617 -0.3923  0.1376  0.0114
 3706G1HHO Tail43530  17.876  17.037  23.563 -0.5303  0.0129 -0.0549
 3706G1HHO Tail43531  17.483  16.847  23.552 -0.0500  0.1622  0.3017
 3706G1HHO Tail43532  18.752  16.833  23.658  0.0297  0.0100 -0.4284
 3706G1HHO Tail43533  18.763  16.555  23.470 -0.5584  0.2248  0.2612
 3706G1HHO Tail43534  19.037  16.196  23.413  0.0191 -0.1156  0.2228
 3707G1HHO Head43535  16.466  14.733  17.473  0.2233 -0.4597  0.1041
 3707G1HHO Head43536  16.521  14.956  17.737 -0.2604  0.7355 -0.0508
 3707G1HHO Head43537  16.988  14.749  17.446  0.2651  0.0219  0.1106
 3707G1HHO Head43538  16.863  15.046  17.513 -0.2664  0.3000 -0.4213
 3707G1HHO link43539  16.714  15.106  17.717 -0.0066  0.2152  0.0987
 3707G1HHO link43540  16.753  15.344  17.880  0.2471  0.3946 -0.1224
 3707G1HHO Tail43541  16.853  15.629  17.780  0.0718 -0.0261  0.0089
 3707G1HHO Tail43542  16.707  15.874  18.008  0.1644  0.1364  0.1174
 3707G1HHO Tail43543  16.799  16.094  18.219  0.2338 -0.2053 -0.3494
 3707G1HHO Tail43544  16.716  16.269  18.612  0.0682 -0.1394  0.1970
 3707G1HHO Tail43545  17.195  15.638  17.874  0.2844  0.1911  0.4768
 3707G1HHO Tail43546  17.369  15.545  18.132  0.0972  0.1563 -0.2457
 3707G1HHO Tail43547  17.717  15.304  18.238  0.1088 -0.2785 -0.1672
 3708G1HHO Head43548  16.463  21.556  19.956  0.0143 -0.4333  0.1748
 3708G1HHO Head43549  16.570  21.460  19.699  0.4314  0.1009  0.0031
 3708G1HHO Head43550  16.718  21.843  19.408 -0.2323 -0.2465  0.0204
 3708G1HHO Head43551  16.871  21.570  19.475  0.1397 -0.0913  0.3556
 3708G1HHO link43552  16.835  21.428  19.674 -0.4084  0.2111  0.1287
 3708G1HHO link43553  16.990  21.267  19.841  0.1800 -0.2089  0.1237
 3708G1HHO Tail43554  17.225  21.062  19.726  0.5905 -0.0982 -0.1107
 3708G1HHO Tail43555  17.476  21.135  19.968 -0.2110 -0.2401 -0.1664
 3708G1HHO Tail43556  17.785  21.099  20.059 -0.1080 -0.2865 -0.1379
 3708G1HHO Tail43557  18.080  20.784  20.103 -0.0245 -0.0549 -0.3400
 3708G1HHO Tail43558  17.072  20.766  19.841  0.1829  0.0111 -0.0592
 3708G1HHO Tail43559  16.889  20.534  19.706 -0.1572 -0.1396 -0.3170
 3708G1HHO Tail43560  16.636  20.196  19.813 -0.1160  0.0406  0.4024
 3709G1HHO Head43561  19.595  14.740  19.158  0.0614 -0.0495  0.1949
 3709G1HHO Head43562  19.834  14.669  19.335 -0.3853 -0.0540 -0.2800
 3709G1HHO Head43563  20.272  14.913  19.360  0.2089  0.1843  0.0068
 3709G1HHO Head43564  20.107  14.821  19.593 -0.5908 -0.2094  0.2473
 3709G1HHO link43565  19.841  14.770  19.575 -0.2778 -0.4418  0.0221
 3709G1HHO link43566  19.667  14.701  19.779  0.0915  0.2203  0.2418
 3709G1HHO Tail43567  19.603  14.904  20.021 -0.2111 -0.1804  0.0689
 3709G1HHO Tail43568  19.617  14.695  20.296 -0.0118 -0.0809  0.1293
 3709G1HHO Tail43569  19.411  14.558  20.510  0.1099  0.0318  0.4734
 3709G1HHO Tail43570  19.274  14.575  20.920  0.0764  0.2396  0.3067
 3709G1HHO Tail43571  19.915  15.042  20.028 -0.0679  0.0506 -0.0551
 3709G1HHO Tail43572  20.063  15.319  20.121 -0.0574  0.1491  0.3053
 3709G1HHO Tail43573  20.010  15.738  20.087 -0.0954  0.3425  0.1062
 3710G1HHO Head43574  17.160  15.436  25.429  0.2404 -0.1378 -0.3623
 3710G1HHO Head43575  17.071  15.314  25.201 -0.4367  0.0939  0.5052
 3710G1HHO Head43576  17.609  15.135  24.950  0.1871  0.0025  0.1685
 3710G1HHO Head43577  17.318  15.178  24.855 -0.0599  0.3770  0.0115
 3710G1HHO link43578  17.168  15.375  24.933  0.1901  0.1381 -0.0800
 3710G1HHO link43579  17.033  15.553  24.749  0.0094 -0.0167 -0.2454
 3710G1HHO Tail43580  16.953  15.509  24.424  0.0219  0.3953 -0.5051
 3710G1HHO Tail43581  17.023  15.836  24.318  0.3875 -0.4549  0.0480
 3710G1HHO Tail43582  16.924  16.150  24.349  0.4819 -0.1557 -0.0334
 3710G1HHO Tail43583  16.795  16.453  24.060  0.0614 -0.3370 -0.0690
 3710G1HHO Tail43584  17.236  15.323  24.304  0.4785 -0.0388  0.0281
 3710G1HHO Tail43585  17.270  15.036  24.150  0.2475 -0.0410 -0.2236
 3710G1HHO Tail43586  17.068  14.858  23.822  0.2888  0.3055 -0.1747
 3711G1HHO Head43587  15.373  18.766  24.206 -0.1531 -0.3350  0.1218
 3711G1HHO Head43588  15.111  18.656  24.261  0.0132 -0.2259  0.0997
 3711G1HHO Head43589  14.712  18.400  24.505 -0.0294  0.1743  0.0231
 3711G1HHO Head43590  14.727  18.470  24.181  0.2563  0.0835 -0.0142
 3711G1HHO link43591  14.962  18.564  24.069  0.4803 -0.5475 -0.1396
 3711G1HHO link43592  15.037  18.525  23.802 -0.2297 -0.0887 -0.0819
 3711G1HHO Tail43593  15.323  18.384  23.700 -0.3109 -0.3214  0.1032
 3711G1HHO Tail43594  15.219  18.310  23.381 -0.1333  0.2078 -0.1777
 3711G1HHO Tail43595  15.071  18.049  23.279  0.1131 -0.2715  0.3456
 3711G1HHO Tail43596  14.759  17.930  23.000 -0.1996 -0.0668 -0.3377
 3711G1HHO Tail43597  15.496  18.686  23.687 -0.1855 -0.2535  0.0272
 3711G1HHO Tail43598  15.772  18.852  23.572 -0.3813  0.2387  0.1736
 3711G1HHO Tail43599  16.124  18.807  23.324  0.0863  0.0341 -0.1936
 3712G1HHO Head43600  17.020  17.893  22.252  0.0097 -0.1325  0.4210
 3712G1HHO Head43601  17.153  17.810  22.525 -0.2973  0.1592 -0.0874
 3712G1HHO Head43602  17.192  17.284  22.403  0.2192  0.2564 -0.4854
 3712G1HHO Head43603  16.956  17.470  22.546  0.0414 -0.0701  0.0584
 3712G1HHO link43604  17.011  17.668  22.694  0.0342 -0.1374 -0.2149
 3712G1HHO link43605  16.991  17.674  22.978  0.0233 -0.1818  0.0322
 3712G1HHO Tail43606  16.798  17.475  23.140 -0.3821 -0.6498  0.2181
 3712G1HHO Tail43607  16.881  17.565  23.474  0.1245  0.2786  0.2765
 3712G1HHO Tail43608  16.748  17.764  23.702 -0.3064  0.4094 -0.0644
 3712G1HHO Tail43609  16.595  18.164  23.722  0.0425 -0.2914 -0.2151
 3712G1HHO Tail43610  16.495  17.629  23.096  0.0075 -0.2084  0.0343
 3712G1HHO Tail43611  16.201  17.540  23.168  0.0565  0.4040  0.5646
 3712G1HHO Tail43612  15.954  17.524  23.529  0.2952  0.3465  0.3971
 3713G1HHO Head43613  18.783  12.738  21.741  0.0473 -0.3693  0.0649
 3713G1HHO Head43614  18.775  13.042  21.685 -0.0315  0.0878  0.1152
 3713G1HHO Head43615  18.391  12.913  21.979  0.2228 -0.1745  0.0673
 3713G1HHO Head43616  18.349  13.034  21.730  0.6688  0.0799 -0.1371
 3713G1HHO link43617  18.553  13.132  21.567 -0.1324 -0.0890 -0.5200
 3713G1HHO link43618  18.532  13.353  21.385  0.0461  0.1207  0.0110
 3713G1HHO Tail43619  18.376  13.379  21.116  0.0820 -0.1130 -0.0750
 3713G1HHO Tail43620  18.026  13.365  21.216  0.2444 -0.3710  0.3330
 3713G1HHO Tail43621  17.850  13.579  21.348 -0.2240 -0.0914  0.0318
 3713G1HHO Tail43622  17.427  13.688  21.359  0.0988 -0.0124  0.2660
 3713G1HHO Tail43623  18.409  13.720  21.026 -0.0544 -0.0585  0.0282
 3713G1HHO Tail43624  18.200  13.937  21.002  0.3314 -0.2524 -0.4705
 3713G1HHO Tail43625  18.047  14.308  21.174  0.2941  0.0417  0.0168
 3714G1HHO Head43626  15.107  20.716  24.332  0.0293  0.2396  0.1970
 3714G1HHO Head43627  15.220  20.423  24.243  0.2072 -0.0237  0.0630
 3714G1HHO Head43628  15.776  20.269  24.492  0.0652  0.0119  0.0944
 3714G1HHO Head43629  15.618  20.476  24.305 -0.4824 -0.0773 -0.1336
 3714G1HHO link43630  15.451  20.434  24.113 -0.3926 -0.2803  0.3019
 3714G1HHO link43631  15.474  20.549  23.854 -0.1690 -0.0485  0.1932
 3714G1HHO Tail43632  15.768  20.694  23.747  0.0757 -0.0954  0.1454
 3714G1HHO Tail43633  15.838  20.583  23.414  0.1617 -0.2410  0.2192
 3714G1HHO Tail43634  16.087  20.517  23.227 -0.2883 -0.0664  0.5226
 3714G1HHO Tail43635  16.458  20.694  23.068  0.3507  0.0444 -0.0440
 3714G1HHO Tail43636  15.681  21.022  23.690 -0.2998  0.2409 -0.0205
 3714G1HHO Tail43637  15.504  21.203  23.490  0.3826 -0.0858 -0.3617
 3714G1HHO Tail43638  15.101  21.340  23.398  0.2502  0.0337 -0.1763
 3715G1HHO Head43639  15.016  21.504  20.816  0.2047 -0.0780  0.2933
 3715G1HHO Head43640  15.025  21.474  21.126 -0.2084  0.2308  0.1455
 3715G1HHO Head43641  14.633  20.899  21.258  0.3333 -0.1657  0.1702
 3715G1HHO Head43642  14.785  21.186  21.297 -0.0349 -0.1829 -0.1633
 3715G1HHO link43643  15.030  21.241  21.225 -0.2262 -0.0731  0.0292
 3715G1HHO link43644  15.223  21.056  21.130  0.0373 -0.2868 -0.1212
 3715G1HHO Tail43645  15.168  20.865  20.861 -0.3032  0.3342 -0.3374
 3715G1HHO Tail43646  15.458  20.688  20.858  0.2063  0.2428 -0.2457
 3715G1HHO Tail43647  15.575  20.432  21.007  0.0698 -0.5286 -0.1714
 3715G1HHO Tail43648  15.442  20.052  21.152 -0.3161  0.0696 -0.0485
 3715G1HHO Tail43649  14.958  20.629  21.017 -0.1195 -0.0194 -0.1556
 3715G1HHO Tail43650  14.983  20.456  21.276  0.3788 -0.0569  0.0524
 3715G1HHO Tail43651  14.880  20.469  21.705 -0.2284  0.0430 -0.0259
 3716G1HHO Head43652  16.015  17.105  21.674 -0.1294 -0.0726  0.3638
 3716G1HHO Head43653  15.747  16.975  21.656  0.0641  0.1279 -0.0425
 3716G1HHO Head43654  15.856  17.562  21.619  0.0720  0.1501 -0.0008
 3716G1HHO Head43655  15.614  17.360  21.493  0.0712 -0.1034  0.2572
 3716G1HHO link43656  15.533  17.121  21.599 -0.2600 -0.0691 -0.5417
 3716G1HHO link43657  15.293  17.061  21.738  0.1185 -0.3869  0.6405
 3716G1HHO Tail43658  15.132  16.764  21.771  0.0187 -0.3711  0.3395
 3716G1HHO Tail43659  15.247  16.632  22.076 -0.0412 -0.1314  0.0505
 3716G1HHO Tail43660  15.173  16.639  22.386  0.0421 -0.0358 -0.2147
 3716G1HHO Tail43661  15.283  16.873  22.751  0.2439  0.0672  0.3689
 3716G1HHO Tail43662  14.844  16.888  21.872 -0.0794  0.0497  0.1163
 3716G1HHO Tail43663  14.660  16.972  22.118 -0.2326 -0.2246  0.7471
 3716G1HHO Tail43664  14.466  17.325  22.249  0.1697  0.2767  0.1906
 3717G1HHO Head43665  16.910  15.225  20.869  0.1785  0.4792 -0.1699
 3717G1HHO Head43666  16.861  15.388  20.595 -0.0418  0.0420  0.0093
 3717G1HHO Head43667  16.536  15.731  20.572  0.0732  0.0389 -0.0666
 3717G1HHO Head43668  16.501  15.478  20.404  0.0808 -0.2118  0.3216
 3717G1HHO link43669  16.685  15.280  20.432  0.1934  0.2093 -0.0487
 3717G1HHO link43670  16.662  15.016  20.339 -0.1263  0.3607 -0.2974
 3717G1HHO Tail43671  16.363  14.888  20.365 -0.4399 -0.1389  0.4400
 3717G1HHO Tail43672  16.356  14.699  20.065 -0.3409 -0.1756 -0.2660
 3717G1HHO Tail43673  16.454  14.797  19.763 -0.5609 -0.3674 -0.4174
 3717G1HHO Tail43674  16.349  14.674  19.363 -0.1909 -0.1228  0.1556
 3717G1HHO Tail43675  16.470  14.633  20.574 -0.2300 -0.0785 -0.1058
 3717G1HHO Tail43676  16.315  14.421  20.776  0.3732  0.0027  0.2282
 3717G1HHO Tail43677  15.925  14.238  20.787  0.1309 -0.0975  0.1281
 3718G1HHO Head43678  15.422  13.409  20.997  0.1377 -0.2782  0.2364
 3718G1HHO Head43679  15.658  13.628  20.980 -0.1151 -0.1004  0.0163
 3718G1HHO Head43680  15.801  13.113  20.873 -0.0576 -0.0442 -0.0470
 3718G1HHO Head43681  15.781  13.351  20.690 -0.4679 -0.0767 -0.3850
 3718G1HHO link43682  15.845  13.592  20.788  0.4677 -0.5575 -0.0926
 3718G1HHO link43683  16.093  13.706  20.744  0.1846  0.2324 -0.2349
 3718G1HHO Tail43684  16.117  13.953  20.536 -0.1268 -0.1956 -0.1725
 3718G1HHO Tail43685  16.473  13.968  20.506  0.2593 -0.1326 -0.0831
 3718G1HHO Tail43686  16.679  14.185  20.618  0.1714 -0.3616  0.4481
 3718G1HHO Tail43687  17.026  14.373  20.443  0.1214 -0.1637  0.0749
 3718G1HHO Tail43688  16.009  13.808  20.243 -0.2781  0.1414 -0.0939
 3718G1HHO Tail43689  15.850  13.875  20.000 -0.5402  0.0418  0.4215
 3718G1HHO Tail43690  15.582  14.178  19.865  0.4244  0.1104  0.0856
 3719G1HHO Head43691  14.057  14.064  19.962  0.4059  0.2117  0.1947
 3719G1HHO Head43692  14.294  13.887  19.896 -0.0322 -0.2067 -0.2525
 3719G1HHO Head43693  14.409  13.806  20.345 -0.2137 -0.3370  0.1194
 3719G1HHO Head43694  14.623  13.929  20.183 -0.0272  0.1423  0.0536
 3719G1HHO link43695  14.541  13.997  19.945 -0.0176 -0.1934  0.4651
 3719G1HHO link43696  14.634  14.234  19.794 -0.2680  0.1269  0.0150
 3719G1HHO Tail43697  14.836  14.443  19.935 -0.1789 -0.2020  0.0713
 3719G1HHO Tail43698  14.966  14.265  20.202  0.1321  0.1349 -0.2313
 3719G1HHO Tail43699  15.231  14.249  20.378  0.1353  0.1966 -0.0661
 3719G1HHO Tail43700  15.647  14.219  20.338  0.2449  0.1274  0.1084
 3719G1HHO Tail43701  15.102  14.449  19.733  0.1627 -0.3225  0.5086
 3719G1HHO Tail43702  15.269  14.667  19.583  0.0819 -0.1837 -0.0439
 3719G1HHO Tail43703  15.651  14.684  19.363  0.1089 -0.1330  0.1289
 3720G1HHO Head43704  15.070  18.952  25.098  0.1165 -0.2500 -0.1381
 3720G1HHO Head43705  15.266  19.039  24.938 -0.1108 -0.0727  0.1030
 3720G1HHO Head43706  15.532  19.210  25.524  0.0187 -0.2226  0.1824
 3720G1HHO Head43707  15.381  19.205  25.306 -0.0559 -0.1385 -0.0619
 3720G1HHO link43708  15.461  19.133  25.069 -0.0501  0.2485  0.0328
 3720G1HHO link43709  15.736  19.109  24.994 -0.1024 -0.0399 -0.1588
 3720G1HHO Tail43710  15.849  19.123  24.690  0.3090 -0.2608 -0.0494
 3720G1HHO Tail43711  15.708  18.841  24.566 -0.1736 -0.2505  0.1775
 3720G1HHO Tail43712  15.814  18.545  24.473 -0.0358  0.0898 -0.3185
 3720G1HHO Tail43713  15.745  18.262  24.174 -0.0995 -0.1022  0.2810
 3720G1HHO Tail43714  15.687  19.402  24.553  0.2232  0.5012  0.0708
 3720G1HHO Tail43715  15.649  19.459  24.238  0.0387  0.2127  0.1873
 3720G1HHO Tail43716  15.592  19.206  23.883  0.2266  0.3042  0.0669
 3721G1HHO Head43717  17.401  15.051  20.975  0.1485  0.1661  0.1388
 3721G1HHO Head43718  17.494  15.132  20.669  0.1443 -0.0729  0.1410
 3721G1HHO Head43719  17.319  15.562  20.892  0.1263 -0.0904 -0.1304
 3721G1HHO Head43720  17.307  15.529  20.608  0.4655  0.1242  0.4653
 3721G1HHO link43721  17.354  15.300  20.494 -0.0066  0.4520  0.4859
 3721G1HHO link43722  17.183  15.186  20.288 -0.0847 -0.0609 -0.2750
 3721G1HHO Tail43723  17.168  14.863  20.200  0.1169 -0.2122  0.0700
 3721G1HHO Tail43724  17.231  14.913  19.846  0.1593  0.2757 -0.0591
 3721G1HHO Tail43725  17.217  14.738  19.573  0.0132  0.7604 -0.0190
 3721G1HHO Tail43726  17.106  14.756  19.160 -0.2354  0.1890 -0.5321
 3721G1HHO Tail43727  17.490  14.772  20.348 -0.0183 -0.0710  0.1027
 3721G1HHO Tail43728  17.593  14.502  20.444 -0.0764 -0.1388  0.2134
 3721G1HHO Tail43729  17.899  14.357  20.722 -0.1113  0.1552  0.0436
 3722G1HHO Head43730  15.330  17.800  21.098 -0.0235 -0.2131 -0.0779
 3722G1HHO Head43731  15.119  18.012  21.156 -0.3537 -0.5588 -0.2651
 3722G1HHO Head43732  15.479  18.081  21.500 -0.3195 -0.0693 -0.2064
 3722G1HHO Head43733  15.181  18.020  21.587 -0.0756 -0.1507 -0.0626
 3722G1HHO link43734  15.008  18.038  21.407 -0.2112 -0.1545  0.1724
 3722G1HHO link43735  14.722  18.067  21.473 -0.0470 -0.1384  0.2921
 3722G1HHO Tail43736  14.553  17.807  21.562  0.2159 -0.2979 -0.3214
 3722G1HHO Tail43737  14.390  17.955  21.842 -0.2425  0.2570  0.4253
 3722G1HHO Tail43738  14.301  18.236  21.918 -0.3737 -0.0668  0.3517
 3722G1HHO Tail43739  14.107  18.560  21.708 -0.1064 -0.2351  0.3130
 3722G1HHO Tail43740  14.285  17.833  21.334 -0.0566 -0.3129  0.3482
 3722G1HHO Tail43741  14.006  17.700  21.355  0.3581 -0.5309  0.2875
 3722G1HHO Tail43742  13.576  17.805  21.367  0.0395 -0.0202  0.0221
 3723G1HHO Head43743  16.237  16.346  19.660  0.3253 -0.3861  0.0305
 3723G1HHO Head43744  16.199  16.254  19.953 -0.0386 -0.5898  0.0290
 3723G1HHO Head43745  15.728  16.118  20.317 -0.2982 -0.1253  0.2004
 3723G1HHO Head43746  16.026  16.095  20.261  0.0817 -0.1016 -0.4082
 3723G1HHO link43747  16.099  16.019  20.016  0.0117  0.2712  0.2080
 3723G1HHO link43748  15.958  15.845  19.852  0.1104  0.1790  0.0320
 3723G1HHO Tail43749  16.120  15.610  19.697  0.1680 -0.1287  0.0794
 3723G1HHO Tail43750  16.411  15.759  19.585 -0.0161 -0.2827  0.4510
 3723G1HHO Tail43751  16.478  16.001  19.350  0.0860  0.3360 -0.3562
 3723G1HHO Tail43752  16.337  16.149  18.970  0.1620  0.1411  0.3728
 3723G1HHO Tail43753  16.204  15.440  19.999 -0.0869  0.0844  0.3013
 3723G1HHO Tail43754  16.420  15.208  20.033  0.2145 -0.1017 -0.1795
 3723G1HHO Tail43755  16.824  15.111  19.914 -0.1719  0.0892 -0.1147
 3724G1HHO Head43756  17.763  15.476  20.602 -0.1818  0.2444  0.1878
 3724G1HHO Head43757  17.949  15.700  20.588 -0.2057  0.3584  0.0520
 3724G1HHO Head43758  18.606  15.538  20.766 -0.4151 -0.0910  0.0578
 3724G1HHO Head43759  18.297  15.552  20.735  0.0399 -0.0113  0.0296
 3724G1HHO link43760  18.197  15.683  20.523  0.3006  0.4611  0.1026
 3724G1HHO link43761  18.343  15.778  20.304 -0.0292  0.2643  0.0222
 3724G1HHO Tail43762  18.622  15.622  20.199  0.3015  0.1353  0.0194
 3724G1HHO Tail43763  18.582  15.680  19.866 -0.2679  0.1365 -0.0083
 3724G1HHO Tail43764  18.638  15.899  19.642 -0.2055 -0.3997 -0.0564
 3724G1HHO Tail43765  18.921  16.183  19.532 -0.1627  0.0203  0.1461
 3724G1HHO Tail43766  18.849  15.842  20.307 -0.0003 -0.0381  0.0531
 3724G1HHO Tail43767  18.999  16.123  20.222 -0.0327  0.1293  0.0726
 3724G1HHO Tail43768  19.310  16.387  20.368  0.0378 -0.0962 -0.1089
 3725G1HHO Head43769  13.600  17.806  23.387  0.1533  0.2275  0.0817
 3725G1HHO Head43770  13.899  17.740  23.281  0.2545 -0.1868 -0.1352
 3725G1HHO Head43771  13.792  18.019  23.784 -0.4001 -0.0277  0.0825
 3725G1HHO Head43772  14.026  17.871  23.640  0.1659 -0.0621  0.1296
 3725G1HHO link43773  14.092  17.879  23.389 -0.0541 -0.0314  0.5444
 3725G1HHO link43774  14.352  17.926  23.276  0.0801 -0.1681 -0.0362
 3725G1HHO Tail43775  14.622  17.965  23.476  0.2055  0.1665 -0.1086
 3725G1HHO Tail43776  14.704  18.283  23.389 -0.0146 -0.2603 -0.3985
 3725G1HHO Tail43777  14.743  18.408  23.098  0.0886  0.4010  0.5258
 3725G1HHO Tail43778  14.692  18.795  22.921  0.0411  0.3957  0.0655
 3725G1HHO Tail43779  14.437  18.040  23.775 -0.4616 -0.0043  0.1764
 3725G1HHO Tail43780  14.523  18.071  24.085 -0.0638  0.4149 -0.2727
 3725G1HHO Tail43781  14.835  17.925  24.332  0.0684 -0.2534  0.1861
 3726G1HHO Head43782  19.808  14.148  21.592 -0.0598 -0.3217  0.0007
 3726G1HHO Head43783  20.015  14.273  21.387 -0.0911  0.2182  0.0658
 3726G1HHO Head43784  20.352  14.043  21.010 -0.1461  0.0398 -0.1764
 3726G1HHO Head43785  20.184  14.310  21.007 -0.1414  0.0220 -0.0891
 3726G1HHO link43786  19.948  14.330  21.142  0.0600 -0.3264 -0.0235
 3726G1HHO link43787  19.735  14.481  21.036 -0.0096 -0.2981 -0.0827
 3726G1HHO Tail43788  19.642  14.767  21.184 -0.2825 -0.0367  0.2229
 3726G1HHO Tail43789  19.703  14.698  21.503  0.2347 -0.2082  0.1024
 3726G1HHO Tail43790  19.701  14.880  21.741  0.1597 -0.4189 -0.2513
 3726G1HHO Tail43791  19.466  15.227  21.874 -0.0072 -0.1883 -0.0815
 3726G1HHO Tail43792  19.910  14.961  21.095 -0.1790  0.0657 -0.0023
 3726G1HHO Tail43793  19.953  15.261  21.054 -0.0612 -0.4473 -0.0619
 3726G1HHO Tail43794  20.247  15.525  20.890 -0.0103 -0.0351  0.0217
 3727G1HHO Head43795  16.572  20.794  23.996 -0.2456 -0.2269  0.1839
 3727G1HHO Head43796  16.577  20.499  24.064 -0.1642  0.3042  0.0309
 3727G1HHO Head43797  16.925  20.575  23.668 -0.1917 -0.0772  0.0266
 3727G1HHO Head43798  16.683  20.374  23.685 -0.2448 -0.3505 -0.1016
 3727G1HHO link43799  16.543  20.293  23.898  0.5224 -0.0863  0.2056
 3727G1HHO link43800  16.481  20.031  23.991  0.1409 -0.0652 -0.0369
 3727G1HHO Tail43801  16.281  19.843  23.812  0.0050  0.2799  0.3496
 3727G1HHO Tail43802  16.208  20.085  23.566  0.1776 -0.2249  0.1172
 3727G1HHO Tail43803  16.361  20.185  23.302 -0.4769  0.0247  0.1955
 3727G1HHO Tail43804  16.352  20.278  22.881  0.1513 -0.1590 -0.1944
 3727G1HHO Tail43805  16.485  19.630  23.646 -0.0336  0.2066 -0.1638
 3727G1HHO Tail43806  16.712  19.413  23.706  0.6382  0.2337  0.0848
 3727G1HHO Tail43807  16.769  18.979  23.673 -0.2333 -0.2994 -0.0679
 3728G1HHO Head43808  20.881  18.056  23.839 -0.0900 -0.2744  0.2234
 3728G1HHO Head43809  20.783  18.006  24.088  0.1218  0.0664 -0.1147
 3728G1HHO Head43810  20.195  18.006  24.501  0.1381  0.5203 -0.2474
 3728G1HHO Head43811  20.540  18.077  24.409  0.1076  0.1924  0.1274
 3728G1HHO link43812  20.594  18.155  24.162  0.0929  0.2553  0.1162
 3728G1HHO link43813  20.399  18.297  24.003  0.2525 -0.1268  0.1203
 3728G1HHO Tail43814  20.384  18.253  23.672  0.1127  0.3638 -0.2575
 3728G1HHO Tail43815  20.466  17.910  23.643  0.1246  0.0016  0.1326
 3728G1HHO Tail43816  20.713  17.745  23.570 -0.3508 -0.0105  0.3120
 3728G1HHO Tail43817  21.022  17.664  23.261  0.1447  0.0400 -0.0211
 3728G1HHO Tail43818  20.038  18.250  23.627 -0.1907  0.2595  0.0374
 3728G1HHO Tail43819  19.826  18.474  23.609  0.6212  0.2077 -0.3085
 3728G1HHO Tail43820  19.406  18.523  23.727  0.2374  0.1416  0.1118
 3729G1HHO Head43821  19.290  21.155  22.110 -0.0027  0.2000  0.2477
 3729G1HHO Head43822  19.224  20.898  21.905 -0.2226 -0.1072  0.1690
 3729G1HHO Head43823  19.238  21.445  21.628  0.4688  0.0953 -0.1450
 3729G1HHO Head43824  19.036  21.220  21.745  0.0497 -0.3437 -0.3750
 3729G1HHO link43825  19.081  20.971  21.708 -0.4701 -0.1509 -0.0708
 3729G1HHO link43826  19.087  20.817  21.469  0.4194 -0.0876 -0.1549
 3729G1HHO Tail43827  18.868  20.581  21.442 -0.3952 -0.0461 -0.1758
 3729G1HHO Tail43828  18.737  20.689  21.136  0.1464  0.4327  0.0003
 3729G1HHO Tail43829  18.455  20.702  21.011  0.1200  0.1199  0.0788
 3729G1HHO Tail43830  18.198  20.440  20.759 -0.0440  0.1678 -0.0358
 3729G1HHO Tail43831  19.084  20.331  21.331  0.1291 -0.1377 -0.0143
 3729G1HHO Tail43832  19.078  20.001  21.326  0.3815  0.1542  0.0073
 3729G1HHO Tail43833  18.941  19.679  21.063  0.2118  0.2694  0.1481
 3730G1HHO Head43834  21.143  17.606  19.832 -0.2564  0.3192 -0.0446
 3730G1HHO Head43835  21.214  17.566  19.538  0.0774  0.2647 -0.0215
 3730G1HHO Head43836  21.223  17.671  19.084 -0.0748 -0.0120 -0.0747
 3730G1HHO Head43837  21.172  17.367  19.188  0.1758 -0.1007 -0.0991
 3730G1HHO link43838  21.195  17.319  19.436 -0.0375  0.4758 -0.2482
 3730G1HHO link43839  21.046  17.090  19.561 -0.0045 -0.2689 -0.0440
 3730G1HHO Tail43840  20.761  16.973  19.422  0.3135  0.0621 -0.5137
 3730G1HHO Tail43841  20.698  17.190  19.153 -0.1009 -0.2094 -0.3878
 3730G1HHO Tail43842  20.519  17.450  19.126 -0.2186  0.0004  0.1233
 3730G1HHO Tail43843  20.359  17.786  19.336  0.1283 -0.0594 -0.3257
 3730G1HHO Tail43844  20.890  16.713  19.246 -0.4713 -0.0945  0.1837
 3730G1HHO Tail43845  20.986  16.603  18.971 -0.0583 -0.3184 -0.0804
 3730G1HHO Tail43846  21.140  16.719  18.567 -0.0396  0.3584  0.1405
 3731G1HHO Head43847  17.057  15.263  22.883  0.0141  0.1476  0.1772
 3731G1HHO Head43848  17.304  15.460  22.872 -0.2463 -0.2774  0.5254
 3731G1HHO Head43849  17.594  15.910  22.701 -0.0936  0.2113  0.1763
 3731G1HHO Head43850  17.542  15.801  22.985 -0.1028  0.0084  0.2285
 3731G1HHO link43851  17.335  15.669  23.039  0.4823 -0.0535 -0.0973
 3731G1HHO link43852  17.219  15.685  23.303  0.0829  0.1223  0.3281
 3731G1HHO Tail43853  16.996  15.463  23.408 -0.1264  0.1232  0.4928
 3731G1HHO Tail43854  17.072  15.426  23.754 -0.0112 -0.1769  0.3027
 3731G1HHO Tail43855  16.885  15.466  23.976  0.0099 -0.2383 -0.1518
 3731G1HHO Tail43856  16.552  15.682  24.162  0.5335  0.0719  0.1447
 3731G1HHO Tail43857  16.756  15.713  23.479  0.1741 -0.1939 -0.1400
 3731G1HHO Tail43858  16.687  15.888  23.749 -0.2686 -0.1194  0.1643
 3731G1HHO Tail43859  16.353  16.136  23.865  0.3188  0.3696 -0.0962
 3732G1HHO Head43860  18.319  20.389  23.496  0.0714 -0.1366  0.0249
 3732G1HHO Head43861  18.198  20.169  23.621  0.3453 -0.1783 -0.0179
 3732G1HHO Head43862  18.536  19.749  23.752  0.0628  0.0412 -0.2322
 3732G1HHO Head43863  18.229  19.765  23.709  0.5132 -0.5852 -0.7606
 3732G1HHO link43864  18.160  19.924  23.498  0.3387 -0.0354  0.5451
 3732G1HHO link43865  17.967  19.842  23.289  0.1857 -0.1451 -0.5836
 3732G1HHO Tail43866  17.746  19.616  23.319 -0.3335  0.5535  0.4259
 3732G1HHO Tail43867  17.782  19.467  22.997 -0.0238 -0.0893  0.0087
 3732G1HHO Tail43868  17.624  19.269  22.831  0.3142  0.1636 -0.0200
 3732G1HHO Tail43869  17.491  18.866  22.891 -0.1114 -0.1804 -0.0077
 3732G1HHO Tail43870  17.928  19.360  23.476  0.0526 -0.0126  0.2954
 3732G1HHO Tail43871  18.166  19.168  23.377  0.0796  0.1015 -0.1828
 3732G1HHO Tail43872  18.365  19.085  23.020 -0.3332  0.1479  0.1800
 3733G1HHO Head43873  14.494  20.051  23.540  0.0377  0.0650 -0.1317
 3733G1HHO Head43874  14.772  20.072  23.638  0.2750 -0.3918 -0.1921
 3733G1HHO Head43875  14.866  20.575  23.848 -0.1232 -0.2003  0.0140
 3733G1HHO Head43876  15.048  20.415  23.624 -0.2599 -0.4372 -0.0228
 3733G1HHO link43877  14.913  20.250  23.481 -0.1689 -0.5243 -0.2800
 3733G1HHO link43878  14.998  20.219  23.218  0.2918  0.1384  0.2973
 3733G1HHO Tail43879  15.063  20.472  23.036  0.0375 -0.0674  0.2956
 3733G1HHO Tail43880  14.993  20.742  23.264  0.0398  0.0012 -0.0072
 3733G1HHO Tail43881  15.155  20.851  23.552 -0.2333  0.2291  0.2522
 3733G1HHO Tail43882  15.171  21.126  23.880 -0.0014  0.0154 -0.0306
 3733G1HHO Tail43883  15.414  20.524  23.100  0.3094  0.2542  0.2514
 3733G1HHO Tail43884  15.725  20.412  23.021 -0.2549  0.0240 -0.0315
 3733G1HHO Tail43885  16.005  20.065  23.050  0.2541  0.0099  0.2207
 3734G1HHO Head43886  21.556  19.947  21.654 -0.0460 -0.0929  0.3515
 3734G1HHO Head43887  21.273  19.875  21.572  0.2667  0.0086 -0.2274
 3734G1HHO Head43888  21.303  19.814  22.106  0.2124  0.1046  0.0006
 3734G1HHO Head43889  21.026  19.852  21.931 -0.1504 -0.0868 -0.3351
 3734G1HHO link43890  21.057  19.963  21.701 -0.1017  0.0833  0.1513
 3734G1HHO link43891  20.872  20.145  21.584 -0.0178  0.4456  0.3361
 3734G1HHO Tail43892  20.584  20.218  21.727 -0.4617  0.2368  0.2324
 3734G1HHO Tail43893  20.605  19.948  21.965 -0.0021 -0.1006  0.0171
 3734G1HHO Tail43894  20.651  19.642  21.983 -0.0519  0.2430  0.3502
 3734G1HHO Tail43895  20.570  19.258  21.789 -0.2011 -0.1912  0.2597
 3734G1HHO Tail43896  20.377  20.092  21.497  0.0051  0.0551  0.2877
 3734G1HHO Tail43897  20.046  20.053  21.461 -0.0376  0.1104  0.0931
 3734G1HHO Tail43898  19.719  19.884  21.694  0.0419 -0.0213  0.0290
 3735G1HHO Head43899  15.866  15.915  24.991 -0.2341  0.1312 -0.0133
 3735G1HHO Head43900  15.881  16.081  24.710 -0.1754 -0.3319 -0.3708
 3735G1HHO Head43901  15.693  16.528  25.155  0.0705 -0.0428 -0.1317
 3735G1HHO Head43902  15.927  16.455  24.970  0.0319  0.2943 -0.2125
 3735G1HHO link43903  15.878  16.356  24.740 -0.2204 -0.2169 -0.5903
 3735G1HHO link43904  15.845  16.513  24.511 -0.1426  0.0527  0.0158
 3735G1HHO Tail43905  15.971  16.802  24.499  0.0924 -0.2361 -0.1697
 3735G1HHO Tail43906  15.737  16.970  24.695  0.3581  0.3632  0.1489
 3735G1HHO Tail43907  15.615  16.960  25.012 -0.4359  0.4542  0.2733
 3735G1HHO Tail43908  15.693  17.217  25.342 -0.2017 -0.0600 -0.0060
 3735G1HHO Tail43909  16.241  16.769  24.705 -0.0840 -0.1706 -0.1326
 3735G1HHO Tail43910  16.310  16.578  24.936 -0.0074  0.1488 -0.2094
 3735G1HHO Tail43911  16.310  16.148  25.008  0.0136  0.0246  0.0954
 3736G1HHO Head43912  21.858  16.971  22.136 -0.0123  0.0415  0.2927
 3736G1HHO Head43913  21.665  16.743  22.007  0.0663 -0.4155  0.1041
 3736G1HHO Head43914  22.208  16.552  22.094 -0.1517  0.0144 -0.0401
 3736G1HHO Head43915  22.035  16.620  21.867 -0.0766  0.1592  0.2046
 3736G1HHO link43916  21.799  16.547  21.873 -0.0938 -0.0015 -0.3573
 3736G1HHO link43917  21.684  16.373  21.709  0.0846 -0.1086  0.1050
 3736G1HHO Tail43918  21.457  16.463  21.484 -0.5658  0.1541 -0.6591
 3736G1HHO Tail43919  21.380  16.781  21.601 -0.0004  0.0612 -0.1850
 3736G1HHO Tail43920  21.137  16.980  21.566  0.0263  0.0028 -0.4257
 3736G1HHO Tail43921  20.831  17.080  21.282 -0.3148  0.2601  0.2106
 3736G1HHO Tail43922  21.678  16.538  21.211 -0.0435  0.0651 -0.0098
 3736G1HHO Tail43923  21.666  16.494  20.901 -0.0828  0.3376 -0.3453
 3736G1HHO Tail43924  21.590  16.676  20.528  0.2185 -0.1229 -0.0131
 3737G1HHO Head43925  17.164  16.491  25.441 -0.3177  0.2474  0.0933
 3737G1HHO Head43926  17.293  16.333  25.257 -0.0931  0.4203 -0.1518
 3737G1HHO Head43927  17.213  15.883  25.085  0.1354  0.2233 -0.0857
 3737G1HHO Head43928  17.167  16.143  24.924  0.3061  0.0431 -0.2376
 3737G1HHO link43929  17.259  16.363  25.008  0.0266  0.4663  0.2507
 3737G1HHO link43930  17.386  16.537  24.827  0.0461  0.0629 -0.3174
 3737G1HHO Tail43931  17.326  16.551  24.504  0.1238 -0.0218 -0.0469
 3737G1HHO Tail43932  17.345  16.202  24.463 -0.1753  0.0403  0.0372
 3737G1HHO Tail43933  17.441  16.017  24.214 -0.4401  0.2216  0.1526
 3737G1HHO Tail43934  17.750  16.019  23.900  0.0369  0.0921  0.0438
 3737G1HHO Tail43935  16.982  16.608  24.491 -0.1883  0.1895  0.1679
 3737G1HHO Tail43936  16.741  16.808  24.576  0.1662 -0.0389  0.5284
 3737G1HHO Tail43937  16.608  17.060  24.922 -0.0649  0.5494 -0.0915
 3738G1HHO Head43938  19.090  20.894  20.870  0.0452 -0.1788 -0.0732
 3738G1HHO Head43939  19.239  20.619  20.994  0.1319  0.2323 -0.1494
 3738G1HHO Head43940  19.856  20.959  21.145  0.0414  0.1941 -0.0801
 3738G1HHO Head43941  19.567  20.873  21.036 -0.2258 -0.1071  0.3744
 3738G1HHO link43942  19.498  20.626  21.046 -0.3495 -0.0025 -0.7397
 3738G1HHO link43943  19.629  20.437  21.224 -0.0511 -0.2093 -0.1432
 3738G1HHO Tail43944  19.505  20.119  21.252  0.4122  0.0750  0.2144
 3738G1HHO Tail43945  19.370  20.086  20.933  0.2386 -0.0865  0.2995
 3738G1HHO Tail43946  19.101  20.153  20.806  0.0429  0.1391  0.2248
 3738G1HHO Tail43947  18.674  20.167  20.894  0.1860  0.0885  0.2358
 3738G1HHO Tail43948  19.765  19.919  21.158 -0.1583  0.2262 -0.5452
 3738G1HHO Tail43949  19.894  19.654  21.286  0.1763  0.1334 -0.0804
 3738G1HHO Tail43950  20.138  19.572  21.636 -0.1802  0.1015  0.6013
 3739G1HHO Head43951  19.016  18.513  21.468 -0.3114 -0.3037 -0.0753
 3739G1HHO Head43952  19.168  18.524  21.751 -0.0325 -0.0706  0.0701
 3739G1HHO Head43953  18.740  18.856  21.643 -0.1039 -0.0509  0.0925
 3739G1HHO Head43954  18.861  18.748  21.934 -0.0616  0.1630  0.0141
 3739G1HHO link43955  19.076  18.595  21.976  0.2145  0.2996 -0.4262
 3739G1HHO link43956  19.229  18.564  22.223  0.1446 -0.1910  0.5453
 3739G1HHO Tail43957  19.244  18.776  22.464 -0.2740 -0.0088 -0.1230
 3739G1HHO Tail43958  19.373  19.056  22.325 -0.2716 -0.0833  0.2901
 3739G1HHO Tail43959  19.590  19.156  22.158 -0.2726  0.1510 -0.0472
 3739G1HHO Tail43960  20.018  19.097  22.102  0.0853  0.1695  0.0096
 3739G1HHO Tail43961  18.915  18.876  22.485  0.1473  0.0768 -0.0314
 3739G1HHO Tail43962  18.724  19.061  22.683 -0.3172 -0.2158 -0.3098
 3739G1HHO Tail43963  18.711  19.475  22.802  0.3044 -0.1032 -0.1308
 3740G1HHO Head43964  18.743  15.823  25.601  0.0330  0.0023  0.1093
 3740G1HHO Head43965  18.644  15.783  25.319 -0.1507  0.0801  0.3128
 3740G1HHO Head43966  18.917  15.328  25.510  0.5118 -0.0629 -0.1495
 3740G1HHO Head43967  18.817  15.395  25.214 -0.2376  0.1745  0.3483
 3740G1HHO link43968  18.792  15.650  25.128 -0.1328  0.3548 -0.2766
 3740G1HHO link43969  18.797  15.725  24.858  0.0658 -0.1359  0.1863
 3740G1HHO Tail43970  18.791  16.021  24.716 -0.0455  0.3481 -0.0165
 3740G1HHO Tail43971  19.060  15.978  24.487 -0.0807  0.2598 -0.1367
 3740G1HHO Tail43972  19.124  16.090  24.218  0.7783  0.4649  0.1647
 3740G1HHO Tail43973  19.306  16.012  23.832 -0.1342  0.0330  0.2970
 3740G1HHO Tail43974  18.497  16.005  24.551  0.0858  0.2319 -0.0479
 3740G1HHO Tail43975  18.343  16.027  24.248 -0.0543 -0.1402 -0.0062
 3740G1HHO Tail43976  18.172  16.313  23.969 -0.1098 -0.0259 -0.0839
 3741G1HHO Head43977  20.602  19.679  23.235 -0.1663  0.6381  0.1013
 3741G1HHO Head43978  20.678  19.438  23.063 -0.2154  0.4173 -0.2241
 3741G1HHO Head43979  21.132  19.696  23.230 -0.1542 -0.1714  0.1508
 3741G1HHO Head43980  21.103  19.516  22.989  0.1265 -0.1344  0.0284
 3741G1HHO link43981  20.874  19.460  22.876  0.1576 -0.8861  0.0228
 3741G1HHO link43982  20.806  19.504  22.603  0.0319  0.1426  0.0453
 3741G1HHO Tail43983  20.863  19.271  22.384  0.3095 -0.1427 -0.2379
 3741G1HHO Tail43984  21.019  19.439  22.127  0.2416 -0.1950  0.3827
 3741G1HHO Tail43985  21.215  19.330  21.890 -0.0708 -0.3132 -0.3616
 3741G1HHO Tail43986  21.196  19.085  21.544  0.3351  0.0783  0.0629
 3741G1HHO Tail43987  21.097  19.094  22.537 -0.0648 -0.2586  0.0087
 3741G1HHO Tail43988  21.110  18.783  22.626 -0.2208 -0.2437 -0.0019
 3741G1HHO Tail43989  21.020  18.526  22.969 -0.2600 -0.2955 -0.3804
 3742G1HHO Head43990  13.155  17.405  23.196  0.1005  0.3695 -0.0052
 3742G1HHO Head43991  13.323  17.303  22.918 -0.0335  0.3156 -0.0065
 3742G1HHO Head43992  13.067  17.482  22.537 -0.1216  0.1723  0.1645
 3742G1HHO Head43993  13.339  17.503  22.543 -0.0982 -0.2187  0.1130
 3742G1HHO link43994  13.485  17.449  22.764 -0.0537 -0.1659 -0.0655
 3742G1HHO link43995  13.673  17.628  22.869 -0.2104 -0.0398 -0.0347
 3742G1HHO Tail43996  13.702  17.938  22.730  0.2554  0.6845  0.0450
 3742G1HHO Tail43997  14.044  17.972  22.808 -0.1158 -0.0407 -0.6174
 3742G1HHO Tail43998  14.305  18.022  22.639 -0.0125 -0.1747  0.0268
 3742G1HHO Tail43999  14.676  17.838  22.511  0.3169 -0.2224 -0.1646
 3742G1HHO Tail44000  13.697  17.825  22.398  0.1532  0.1156  0.0195
 3742G1HHO Tail44001  13.628  17.965  22.107 -0.1109  0.3851 -0.0439
 3742G1HHO Tail44002  13.373  17.936  21.763  0.0872  0.1971 -0.1902
 3743G1HHO Head44003  15.001  14.332  23.245 -0.3308 -0.0867  0.2020
 3743G1HHO Head44004  14.677  14.423  23.289  0.0404 -0.0194  0.4183
 3743G1HHO Head44005  14.391  14.720  23.845  0.0517  0.1530  0.1423
 3743G1HHO Head44006  14.446  14.524  23.591 -0.2293 -0.0140 -0.4898
 3743G1HHO link44007  14.631  14.638  23.416  0.1163  0.2669  0.0824
 3743G1HHO link44008  14.787  14.866  23.447  0.4763  0.2632  0.1303
 3743G1HHO Tail44009  14.836  15.072  23.213  0.6357 -0.3101 -0.1098
 3743G1HHO Tail44010  15.178  15.117  23.210 -0.1629  0.0471 -0.1365
 3743G1HHO Tail44011  15.382  15.047  22.977 -0.0260  0.0111 -0.3476
 3743G1HHO Tail44012  15.801  14.989  22.909 -0.1619  0.1653  0.1903
 3743G1HHO Tail44013  14.845  14.835  22.959  0.5663  0.3525  0.0351
 3743G1HHO Tail44014  14.725  14.771  22.670  0.0667  0.2824 -0.3006
 3743G1HHO Tail44015  14.903  14.587  22.316  0.2744  0.1928 -0.1730
 3744G1HHO Head44016  17.187  16.258  17.910 -0.0425  0.0945  0.1182
 3744G1HHO Head44017  17.439  16.395  18.010 -0.1982  0.0799  0.0185
 3744G1HHO Head44018  16.997  16.700  17.762 -0.0421  0.0897 -0.0401
 3744G1HHO Head44019  17.306  16.765  17.824 -0.1457  0.1390 -0.1512
 3744G1HHO link44020  17.458  16.657  18.019  0.0377 -0.3536  0.1579
 3744G1HHO link44021  17.565  16.806  18.240 -0.0499 -0.0236 -0.1742
 3744G1HHO Tail44022  17.403  16.833  18.535  0.0231  0.2651  0.2463
 3744G1HHO Tail44023  17.373  16.487  18.602  0.0424  0.0910 -0.2600
 3744G1HHO Tail44024  17.371  16.212  18.442 -0.3634 -0.2309 -0.3728
 3744G1HHO Tail44025  17.582  15.954  18.188 -0.0343  0.1185  0.1870
 3744G1HHO Tail44026  17.691  16.824  18.747  0.1187 -0.1053 -0.0908
 3744G1HHO Tail44027  17.979  16.705  18.712  0.1670 -0.0877  0.0737
 3744G1HHO Tail44028  18.188  16.354  18.605  0.3321 -0.0202  0.1078
 3745G1HHO Head44029  16.657  16.193  19.863  0.2266  0.1290  0.1327
 3745G1HHO Head44030  16.905  16.372  19.883  0.0693  0.2289  0.0589
 3745G1HHO Head44031  17.132  15.916  19.914 -0.0704 -0.2333 -0.1356
 3745G1HHO Head44032  17.253  16.164  19.809 -0.2421 -0.0335 -0.0912
 3745G1HHO link44033  17.094  16.356  19.714  0.2789 -0.1629 -0.0298
 3745G1HHO link44034  17.166  16.544  19.519 -0.0441  0.0294  0.0256
 3745G1HHO Tail44035  17.387  16.475  19.270  0.2318 -0.1304  0.2387
 3745G1HHO Tail44036  17.500  16.177  19.416 -0.0673 -0.2085  0.5884
 3745G1HHO Tail44037  17.433  15.868  19.386  0.4434 -0.1595  0.0984
 3745G1HHO Tail44038  17.307  15.595  19.061 -0.3016  0.1079 -0.0207
 3745G1HHO Tail44039  17.174  16.332  19.029  0.1834 -0.1597 -0.1863
 3745G1HHO Tail44040  17.221  16.099  18.819 -0.1162 -0.0142  0.1474
 3745G1HHO Tail44041  17.112  15.883  18.447  0.1030 -0.4320  0.1322
 3746G1HHO Head44042  18.698  17.339  21.267  0.0348 -0.3144  0.1663
 3746G1HHO Head44043  18.750  17.063  21.204 -0.0451 -0.1788  0.2726
 3746G1HHO Head44044  18.394  17.401  20.864 -0.2463 -0.1316 -0.1104
 3746G1HHO Head44045  18.650  17.184  20.798 -0.3519 -0.1294  0.3134
 3746G1HHO link44046  18.754  17.005  20.952 -0.2331  0.0378  0.2249
 3746G1HHO link44047  18.766  16.721  20.883 -0.1468  0.2940 -0.2819
 3746G1HHO Tail44048  18.961  16.618  20.650 -0.0690 -0.3215 -0.2155
 3746G1HHO Tail44049  19.242  16.825  20.705  0.0451 -0.2967  0.3255
 3746G1HHO Tail44050  19.370  17.072  20.564  0.2472  0.0144  0.2409
 3746G1HHO Tail44051  19.552  17.458  20.654  0.1298 -0.2354  0.1561
 3746G1HHO Tail44052  19.050  16.300  20.770  0.1461  0.3070  0.1033
 3746G1HHO Tail44053  19.231  16.056  20.660 -0.1022 -0.2906  0.3877
 3746G1HHO Tail44054  19.423  15.906  20.309  0.0204  0.4634  0.1497
 3747G1HHO Head44055  18.644  16.406  22.358  0.3447 -0.0331 -0.1251
 3747G1HHO Head44056  18.538  16.436  22.654 -0.3871  0.1878 -0.1479
 3747G1HHO Head44057  18.309  16.085  22.445  0.3510 -0.1310  0.3242
 3747G1HHO Head44058  18.431  16.053  22.778 -0.0516 -0.0556  0.1094
 3747G1HHO link44059  18.603  16.236  22.834 -0.2942 -0.0565  0.2249
 3747G1HHO link44060  18.879  16.176  22.887  0.3294 -0.0135 -0.1792
 3747G1HHO Tail44061  19.103  16.390  22.784 -0.4643 -0.5368  0.0405
 3747G1HHO Tail44062  19.395  16.256  22.948  0.4028  0.0298 -0.1357
 3747G1HHO Tail44063  19.485  16.260  23.261 -0.1632  0.2301  0.1664
 3747G1HHO Tail44064  19.398  16.494  23.602  0.0318 -0.1207  0.1530
 3747G1HHO Tail44065  19.130  16.290  22.461  0.1739  0.0112  0.0676
 3747G1HHO Tail44066  19.186  16.000  22.330 -0.1494  0.0185 -0.2024
 3747G1HHO Tail44067  19.337  15.829  21.940  0.0511  0.0872 -0.6179
 3748G1HHO Head44068  16.182  17.449  20.913 -0.0084  0.1350 -0.2232
 3748G1HHO Head44069  15.975  17.272  20.835 -0.1010  0.1467  0.2225
 3748G1HHO Head44070  16.125  17.072  20.411  0.1975  0.0018 -0.0042
 3748G1HHO Head44071  15.982  17.318  20.439  0.1025  0.0063  0.4220
 3748G1HHO link44072  15.816  17.335  20.644 -0.0194 -0.0623 -0.3514
 3748G1HHO link44073  15.558  17.444  20.667 -0.3711 -0.0580  0.0669
 3748G1HHO Tail44074  15.315  17.358  20.445 -0.0618 -0.2890  0.0613
 3748G1HHO Tail44075  15.367  17.610  20.226 -0.1379  0.2452  0.3109
 3748G1HHO Tail44076  15.442  17.921  20.255  0.0344 -0.2018  0.0685
 3748G1HHO Tail44077  15.414  18.287  20.505  0.0601  0.2564  0.0882
 3748G1HHO Tail44078  15.494  17.088  20.286 -0.3111  0.2248 -0.2859
 3748G1HHO Tail44079  15.453  16.782  20.256  0.1518 -0.0435  0.4710
 3748G1HHO Tail44080  15.214  16.514  19.993 -0.1645 -0.1779 -0.2703
 3749G1HHO Head44081  18.352  20.380  18.484  0.0617 -0.2158 -0.0025
 3749G1HHO Head44082  18.522  20.420  18.755  0.3570  0.3228 -0.0309
 3749G1HHO Head44083  18.794  19.996  19.170 -0.3007 -0.0141  0.0565
 3749G1HHO Head44084  18.639  20.250  19.120 -0.3542 -0.1471 -0.0884
 3749G1HHO link44085  18.451  20.271  18.954 -0.6975  0.4133  0.1237
 3749G1HHO link44086  18.187  20.208  19.033 -0.2089  0.0993 -0.2516
 3749G1HHO Tail44087  18.083  19.899  19.104 -0.0670 -0.0455 -0.1088
 3749G1HHO Tail44088  18.316  19.845  19.350  0.1118  0.2098  0.5510
 3749G1HHO Tail44089  18.425  20.010  19.589 -0.1319  0.0294  0.2786
 3749G1HHO Tail44090  18.682  19.950  19.909  0.1924 -0.2611  0.2063
 3749G1HHO Tail44091  17.844  19.993  19.344 -0.2111 -0.2304  0.2605
 3749G1HHO Tail44092  17.538  19.971  19.361 -0.3239 -0.1169 -0.0020
 3749G1HHO Tail44093  17.198  19.777  19.178 -0.2064  0.1515  0.0361
 3750G1HHO Head44094  20.730  17.541  19.537  0.4052 -0.1677 -0.0784
 3750G1HHO Head44095  20.628  17.408  19.783  0.3250 -0.4153  0.0406
 3750G1HHO Head44096  20.912  17.414  20.215 -0.2925  0.2418 -0.1236
 3750G1HHO Head44097  20.924  17.229  20.002 -0.0098  0.0697  0.2606
 3750G1HHO link44098  20.729  17.171  19.848 -0.2373 -0.3396  0.0023
 3750G1HHO link44099  20.609  16.923  19.824 -0.0948 -0.3896 -0.1472
 3750G1HHO Tail44100  20.300  16.907  19.691  0.0192 -0.0656 -0.1925
 3750G1HHO Tail44101  20.098  16.927  19.979  0.0541 -0.0832 -0.0841
 3750G1HHO Tail44102  20.099  16.773  20.263  0.2366 -0.0888 -0.0009
 3750G1HHO Tail44103  20.177  16.728  20.692 -0.4876 -0.2658 -0.1941
 3750G1HHO Tail44104  20.253  17.235  19.588  0.3693  0.0470 -0.1021
 3750G1HHO Tail44105  20.009  17.440  19.586  0.2262 -0.2597  0.1886
 3750G1HHO Tail44106  19.685  17.582  19.329 -0.1246  0.0680  0.4591
 3751G1HHO Head44107  15.287  15.919  23.955 -0.1361  0.1860  0.1336
 3751G1HHO Head44108  15.207  16.212  23.849 -0.0136 -0.4371 -0.1132
 3751G1HHO Head44109  14.662  16.226  24.057  0.0194 -0.1345  0.5138
 3751G1HHO Head44110  14.850  16.069  23.840  0.1121  0.4410  0.3866
 3751G1HHO link44111  15.021  16.218  23.672 -0.2480 -0.2568  0.1859
 3751G1HHO link44112  14.954  16.437  23.486  0.3037 -0.0964 -0.0870
 3751G1HHO Tail44113  15.184  16.601  23.327 -0.5988 -0.1921 -0.1946
 3751G1HHO Tail44114  15.292  16.369  23.084 -0.0136  0.0414 -0.0170
 3751G1HHO Tail44115  15.419  16.396  22.795 -0.0337 -0.2308 -0.1033
 3751G1HHO Tail44116  15.384  16.237  22.390 -0.0463  0.1104  0.1008
 3751G1HHO Tail44117  15.019  16.852  23.163  0.0103  0.1538 -0.1732
 3751G1HHO Tail44118  15.016  17.184  23.103 -0.0849 -0.3457  0.1338
 3751G1HHO Tail44119  15.011  17.546  23.356 -0.2380 -0.1869  0.2893
 3752G1HHO Head44120  14.018  18.959  18.145  0.1215 -0.0741  0.1632
 3752G1HHO Head44121  14.270  18.866  18.286 -0.0513  0.2713 -0.1065
 3752G1HHO Head44122  14.182  19.412  18.217 -0.5660  0.1769 -0.2821
 3752G1HHO Head44123  14.442  19.220  18.309  0.2794  0.2277 -0.0124
 3752G1HHO link44124  14.390  19.005  18.457 -0.0741  0.1870 -0.0514
 3752G1HHO link44125  14.510  18.916  18.705 -0.0360  0.3119 -0.1906
 3752G1HHO Tail44126  14.584  19.144  18.938 -0.1675 -0.0020 -0.1767
 3752G1HHO Tail44127  14.500  18.983  19.232  0.3705  0.2130  0.1646
 3752G1HHO Tail44128  14.223  18.922  19.380  0.1985 -0.0060 -0.1105
 3752G1HHO Tail44129  13.839  19.119  19.474 -0.1107 -0.1502  0.3202
 3752G1HHO Tail44130  14.922  19.079  18.968  0.1787 -0.0017 -0.0513
 3752G1HHO Tail44131  15.067  18.829  19.061  0.1374 -0.0128 -0.2957
 3752G1HHO Tail44132  15.307  18.513  18.888  0.1850 -0.2698 -0.0237
 3753G1HHO Head44133  15.487  22.515  21.742 -0.1101 -0.2726  0.1266
 3753G1HHO Head44134  15.506  22.171  21.806 -0.4172  0.3678 -0.0066
 3753G1HHO Head44135  15.396  22.583  22.184  0.1201  0.1699  0.1109
 3753G1HHO Head44136  15.276  22.284  22.131  0.3646  0.4955  0.0596
 3753G1HHO link44137  15.423  22.088  22.035  0.2056 -0.0209  0.4025
 3753G1HHO link44138  15.433  21.828  22.136  0.0396 -0.6343  0.1448
 3753G1HHO Tail44139  15.622  21.580  22.026  0.0160 -0.1597 -0.0306
 3753G1HHO Tail44140  15.413  21.336  21.987  0.0509  0.1777  0.2539
 3753G1HHO Tail44141  15.425  21.023  21.951  0.0170  0.0876  0.0250
 3753G1HHO Tail44142  15.618  20.717  21.706  0.0698 -0.2484  0.2374
 3753G1HHO Tail44143  15.647  21.690  21.693 -0.2266 -0.0888 -0.1941
 3753G1HHO Tail44144  15.811  21.909  21.512  0.0772 -0.4170  0.1753
 3753G1HHO Tail44145  16.218  22.069  21.483  0.3200 -0.0948 -0.2244
 3754G1HHO Head44146  20.519  16.952  20.366 -0.2359 -0.1727 -0.0096
 3754G1HHO Head44147  20.429  17.145  20.191  0.2441  0.0694 -0.0536
 3754G1HHO Head44148  20.282  17.701  19.871 -0.0783 -0.1550  0.1773
 3754G1HHO Head44149  20.161  17.427  19.998  0.0139  0.0989 -0.2228
 3754G1HHO link44150  20.235  17.317  20.235  0.2921 -0.0705 -0.2226
 3754G1HHO link44151  20.179  17.445  20.485 -0.2559  0.2450  0.0744
 3754G1HHO Tail44152  19.981  17.318  20.713  0.1082 -0.1532  0.2649
 3754G1HHO Tail44153  19.853  17.063  20.494 -0.0971 -0.3425  0.1093
 3754G1HHO Tail44154  19.678  17.033  20.225 -0.3400 -0.4957  0.4285
 3754G1HHO Tail44155  19.407  16.771  20.009  0.0345  0.1223 -0.0955
 3754G1HHO Tail44156  20.226  17.166  20.927  0.1760  0.3172 -0.0621
 3754G1HHO Tail44157  20.457  17.234  21.123 -0.3772 -0.5808 -0.1835
 3754G1HHO Tail44158  20.779  17.527  21.138 -0.3532  0.0174 -0.1709
 3755G1HHO Head44159  15.255  17.557  21.680  0.4666  0.1916  0.1922
 3755G1HHO Head44160  15.330  17.751  21.958 -0.1383 -0.0997 -0.4751
 3755G1HHO Head44161  14.810  17.500  21.852  0.0921 -0.1226  0.1968
 3755G1HHO Head44162  15.004  17.494  22.088  0.0066 -0.0300 -0.2358
 3755G1HHO link44163  15.155  17.704  22.155 -0.1823  0.1224 -0.3986
 3755G1HHO link44164  15.156  17.817  22.417  0.2881 -0.0960 -0.0434
 3755G1HHO Tail44165  15.339  17.712  22.652  0.4428 -0.0073  0.1142
 3755G1HHO Tail44166  15.315  17.988  22.862 -0.0475  0.1456  0.0874
 3755G1HHO Tail44167  15.490  18.129  23.088  0.0547  0.3407 -0.1671
 3755G1HHO Tail44168  15.580  18.545  23.190  0.0773 -0.3664  0.3849
 3755G1HHO Tail44169  15.130  17.512  22.817  0.1382  0.1301  0.0560
 3755G1HHO Tail44170  14.815  17.482  22.827  0.1606  0.1797  0.5222
 3755G1HHO Tail44171  14.520  17.200  22.950  0.1337  0.0016  0.1356
 3756G1HHO Head44172  21.344  14.408  22.368 -0.3423  0.1405  0.1188
 3756G1HHO Head44173  21.174  14.585  22.174  0.4210  0.3252 -0.3689
 3756G1HHO Head44174  20.845  14.306  22.471  0.4179 -0.0552  0.0243
 3756G1HHO Head44175  20.881  14.574  22.484 -0.1751 -0.3739 -0.4784
 3756G1HHO link44176  20.934  14.717  22.268  0.0955 -0.3111 -0.0056
 3756G1HHO link44177  20.783  14.930  22.143  0.0551 -0.0909 -0.2263
 3756G1HHO Tail44178  20.659  15.162  22.337 -0.1125  0.0804  0.1811
 3756G1HHO Tail44179  20.589  15.405  22.119 -0.2491  0.0112  0.1334
 3756G1HHO Tail44180  20.696  15.702  22.087  0.1807  0.2214  0.0799
 3756G1HHO Tail44181  20.784  16.070  22.327  0.0968 -0.0475 -0.0328
 3756G1HHO Tail44182  20.340  15.055  22.431  0.1009 -0.2584 -0.0625
 3756G1HHO Tail44183  20.103  15.161  22.623  0.1276  0.0538 -0.2240
 3756G1HHO Tail44184  19.672  15.109  22.707  0.2334  0.0865  0.2480
 3757G1HHO Head44185  17.939  15.746  21.107  0.0863 -0.1091  0.2575
 3757G1HHO Head44186  17.870  15.714  21.392 -0.1037  0.1683 -0.0893
 3757G1HHO Head44187  17.595  15.916  21.700 -0.0171  0.2670  0.0242
 3757G1HHO Head44188  17.573  15.677  21.678 -0.1915 -0.2049  0.1167
 3757G1HHO link44189  17.682  15.564  21.473 -0.3222 -0.2257  0.2590
 3757G1HHO link44190  17.633  15.304  21.359 -0.1075 -0.2715 -0.1480
 3757G1HHO Tail44191  17.811  15.187  21.116 -0.2862 -0.1630 -0.2856
 3757G1HHO Tail44192  18.126  15.307  21.225 -0.2660  0.0749  0.0214
 3757G1HHO Tail44193  18.308  15.563  21.177  0.2065  0.3002 -0.1607
 3757G1HHO Tail44194  18.335  15.947  20.971 -0.1188  0.0347  0.3411
 3757G1HHO Tail44195  17.816  14.865  21.231  0.0689  0.2127  0.0131
 3757G1HHO Tail44196  17.571  14.655  21.263 -0.2373  0.0597 -0.0482
 3757G1HHO Tail44197  17.485  14.276  21.464  0.5310  0.1817  0.2700
 3758G1HHO Head44198  15.859  13.641  23.008 -0.3668  0.0385  0.0562
 3758G1HHO Head44199  15.951  13.926  22.952 -0.2021  0.2319 -0.0892
 3758G1HHO Head44200  16.172  14.086  23.603  0.4294 -0.0076 -0.0468
 3758G1HHO Head44201  16.046  13.945  23.346  0.0284  0.2944 -0.3806
 3758G1HHO link44202  16.114  14.040  23.115  0.2403  0.1150 -0.1077
 3758G1HHO link44203  16.184  14.315  23.087  0.0198  0.1380 -0.0797
 3758G1HHO Tail44204  15.988  14.546  22.960  0.5630 -0.0375  0.0394
 3758G1HHO Tail44205  16.158  14.644  22.671 -0.0517 -0.0071  0.0059
 3758G1HHO Tail44206  16.212  14.611  22.367  0.0540 -0.6842  0.0291
 3758G1HHO Tail44207  16.511  14.453  22.077  0.2903 -0.0910  0.0979
 3758G1HHO Tail44208  15.750  14.336  22.777 -0.2980  0.1942  0.1387
 3758G1HHO Tail44209  15.629  14.342  22.493 -0.7836  0.1959  0.1020
 3758G1HHO Tail44210  15.335  14.144  22.246  0.2568  0.3622 -0.0912
 3759G1HHO Head44211  19.722  17.390  25.204  0.1547  0.0383 -0.2788
 3759G1HHO Head44212  19.776  17.242  24.935 -0.0616 -0.3769 -0.0727
 3759G1HHO Head44213  20.233  17.341  25.233  0.3784  0.1267 -0.0128
 3759G1HHO Head44214  20.114  17.103  25.130  0.1150  0.2675 -0.5431
 3759G1HHO link44215  19.999  17.114  24.895 -0.5840  0.1354 -0.0926
 3759G1HHO link44216  20.047  16.899  24.734 -0.0813 -0.1401  0.2129
 3759G1HHO Tail44217  19.824  16.680  24.637  0.1575  0.2947  0.0503
 3759G1HHO Tail44218  19.529  16.826  24.776  0.2227 -0.0750  0.1175
 3759G1HHO Tail44219  19.434  16.989  25.026  0.1802  0.2118  0.2978
 3759G1HHO Tail44220  19.214  17.344  25.088  0.1187 -0.0274 -0.3220
 3759G1HHO Tail44221  19.822  16.725  24.299  0.1474 -0.2371 -0.4548
 3759G1HHO Tail44222  19.960  16.907  24.045  0.3593 -0.2219 -0.6670
 3759G1HHO Tail44223  19.960  17.321  23.888  0.2555 -0.0792 -0.1441
 3760G1HHO Head44224  20.346  19.511  23.746  0.4200 -0.0464  0.0709
 3760G1HHO Head44225  20.413  19.240  23.665  0.0858  0.1731  0.1110
 3760G1HHO Head44226  20.920  19.445  23.726 -0.0406 -0.1215 -0.0125
 3760G1HHO Head44227  20.823  19.267  23.465  0.0692 -0.1729  0.0602
 3760G1HHO link44228  20.569  19.207  23.450 -0.2330 -0.2540 -0.0884
 3760G1HHO link44229  20.469  19.046  23.243  0.3918  0.1762 -0.0328
 3760G1HHO Tail44230  20.670  18.859  23.067  0.1566 -0.1740 -0.3972
 3760G1HHO Tail44231  20.961  19.042  23.074 -0.3937 -0.4660  0.3682
 3760G1HHO Tail44232  21.270  18.965  23.040  0.5491 -0.0782  0.0343
 3760G1HHO Tail44233  21.537  18.765  22.759  0.0149  0.0318 -0.2073
 3760G1HHO Tail44234  20.570  19.003  22.780 -0.3757 -0.1010  0.3079
 3760G1HHO Tail44235  20.286  18.984  22.607  0.1412  0.0092  0.0612
 3760G1HHO Tail44236  19.883  19.159  22.596 -0.0314  0.2004  0.4645
 3761G1HHO Head44237  13.694  20.107  21.542 -0.0292 -0.3281 -0.1070
 3761G1HHO Head44238  13.808  20.128  21.238  0.0067  0.0168  0.0426
 3761G1HHO Head44239  14.205  19.989  21.489 -0.0240 -0.4401 -0.1763
 3761G1HHO Head44240  14.107  19.830  21.217 -0.1721  0.0198 -0.0814
 3761G1HHO link44241  13.878  19.902  21.118  0.5643  0.1976  0.4805
 3761G1HHO link44242  13.774  19.782  20.863 -0.1539 -0.3668  0.1466
 3761G1HHO Tail44243  13.939  19.520  20.745  0.4683  0.1069 -0.0459
 3761G1HHO Tail44244  14.226  19.519  20.941  0.1941  0.0888 -0.2146
 3761G1HHO Tail44245  14.537  19.541  20.868  0.3419 -0.2900  0.1517
 3761G1HHO Tail44246  14.915  19.335  20.804 -0.0847  0.0674 -0.1568
 3761G1HHO Tail44247  13.747  19.283  20.903 -0.0056  0.2919 -0.0345
 3761G1HHO Tail44248  13.815  19.081  21.147  0.1993  0.1233  0.0182
 3761G1HHO Tail44249  14.004  18.695  21.231  0.2665  0.0610  0.0443
 3762G1HHO Head44250  18.186  13.521  22.191  0.0457 -0.1506  0.0400
 3762G1HHO Head44251  18.416  13.747  22.204 -0.6325 -0.1454  0.1716
 3762G1HHO Head44252  18.938  13.514  21.767 -0.0312  0.2463  0.0442
 3762G1HHO Head44253  18.608  13.571  21.886  0.2472 -0.2301  0.1376
 3762G1HHO link44254  18.543  13.800  21.979  0.2230 -0.6829  0.0452
 3762G1HHO link44255  18.694  14.037  21.922 -0.1689 -0.3570 -0.0673
 3762G1HHO Tail44256  18.736  14.307  22.122  0.0407 -0.0527  0.3659
 3762G1HHO Tail44257  19.015  14.446  21.975  0.0003 -0.2673 -0.0096
 3762G1HHO Tail44258  19.238  14.680  21.984 -0.0401  0.0302  0.1976
 3762G1HHO Tail44259  19.486  14.864  22.286  0.2902 -0.2591  0.1817
 3762G1HHO Tail44260  18.461  14.510  22.044 -0.3213  0.2629 -0.1352
 3762G1HHO Tail44261  18.173  14.431  21.946  0.6549 -0.6110 -0.2501
 3762G1HHO Tail44262  17.877  14.587  21.680 -0.0381 -0.4342  0.0719
 3763G1HHO Head44263  16.664  19.965  25.765  0.0312  0.0480 -0.3952
 3763G1HHO Head44264  16.382  19.851  25.821  0.1966 -0.0411 -0.1054
 3763G1HHO Head44265  15.926  19.390  25.818 -0.2045  0.2576 -0.1314
 3763G1HHO Head44266  16.216  19.468  25.833 -0.2930 -0.2630 -0.4758
 3763G1HHO link44267  16.277  19.669  25.676 -0.1130  0.4028  0.0288
 3763G1HHO link44268  16.232  19.673  25.391  0.1004 -0.0773  0.0821
 3763G1HHO Tail44269  16.019  19.484  25.229 -0.2263  0.1220 -0.0744
 3763G1HHO Tail44270  16.206  19.395  24.946 -0.0716 -0.1342 -0.0566
 3763G1HHO Tail44271  16.173  19.408  24.633 -0.1112 -0.1050  0.0975
 3763G1HHO Tail44272  16.030  19.180  24.287  0.0289 -0.0698 -0.1168
 3763G1HHO Tail44273  16.056  19.189  25.424 -0.0636  0.1426 -0.1129
 3763G1HHO Tail44274  15.957  18.899  25.381  0.2236 -0.4092  0.3314
 3763G1HHO Tail44275  16.151  18.526  25.305  0.0808  0.1201  0.3510
 3764G1HHO Head44276  19.290  20.880  19.896 -0.1300 -0.2212 -0.4289
 3764G1HHO Head44277  19.402  20.667  20.089  0.1910 -0.4756 -0.4647
 3764G1HHO Head44278  19.549  20.595  19.585  0.1578 -0.0982 -0.3082
 3764G1HHO Head44279  19.378  20.412  19.765  0.2253 -0.1717 -0.0531
 3764G1HHO link44280  19.396  20.419  20.014 -0.3148  0.2594 -0.1457
 3764G1HHO link44281  19.557  20.221  20.160  0.3397  0.2334  0.0920
 3764G1HHO Tail44282  19.394  20.045  20.374  0.2447  0.0068  0.1624
 3764G1HHO Tail44283  19.435  19.710  20.254 -0.1033  0.0253  0.4491
 3764G1HHO Tail44284  19.352  19.509  20.007  0.1350  0.2679  0.0091
 3764G1HHO Tail44285  19.518  19.468  19.610  0.2228 -0.0042  0.2357
 3764G1HHO Tail44286  19.061  20.093  20.282  0.1385  0.2379 -0.0283
 3764G1HHO Tail44287  18.849  20.326  20.343 -0.2135 -0.1359 -0.0849
 3764G1HHO Tail44288  18.423  20.426  20.323 -0.1840 -0.0449  0.1968
 3765G1HHO Head44289  22.481  17.798  21.178 -0.1495 -0.1420  0.3203
 3765G1HHO Head44290  22.131  17.846  21.198 -0.4204 -0.1781  0.1001
 3765G1HHO Head44291  22.393  18.244  20.857 -0.0844  0.3157 -0.4471
 3765G1HHO Head44292  22.287  18.212  21.137  0.1013  0.2669  0.3697
 3765G1HHO link44293  22.054  18.099  21.162  0.1643  0.0487  0.2968
 3765G1HHO link44294  21.811  18.174  21.003  0.0655 -0.0389 -0.0180
 3765G1HHO Tail44295  21.779  18.443  20.835  0.2123  0.2883 -0.1873
 3765G1HHO Tail44296  21.515  18.397  20.615 -0.3367 -0.1171 -0.1985
 3765G1HHO Tail44297  21.295  18.162  20.583 -0.2233 -0.2360  0.1602
 3765G1HHO Tail44298  21.053  17.904  20.837 -0.2287  0.0866  0.1891
 3765G1HHO Tail44299  21.644  18.647  21.079  0.2680  0.1539 -0.0408
 3765G1HHO Tail44300  21.483  18.921  21.093  0.2697  0.0840  0.0304
 3765G1HHO Tail44301  21.446  19.332  20.957  0.2209 -0.0342 -0.1688
 3766G1HHO Head44302  18.647  18.179  22.803  0.0259  0.0031 -0.0469
 3766G1HHO Head44303  18.802  18.150  23.070 -0.0750 -0.0812 -0.3149
 3766G1HHO Head44304  18.543  17.560  22.979  0.1927  0.0084  0.0329
 3766G1HHO Head44305  18.591  17.817  23.201  0.3057  0.3042  0.2532
 3766G1HHO link44306  18.820  17.918  23.223  0.0893 -0.3689 -0.0545
 3766G1HHO link44307  19.065  17.785  23.286  0.4187 -0.0741  0.4365
 3766G1HHO Tail44308  19.247  17.887  23.529 -0.1480  0.0687  0.2038
 3766G1HHO Tail44309  19.051  17.752  23.792  0.1628  0.3532 -0.3146
 3766G1HHO Tail44310  18.741  17.671  23.838  0.3143 -0.3595  0.5558
 3766G1HHO Tail44311  18.339  17.782  23.738  0.1229  0.0720 -0.1182
 3766G1HHO Tail44312  19.468  17.621  23.502 -0.1968 -0.0871 -0.1088
 3766G1HHO Tail44313  19.434  17.294  23.517 -0.1534 -0.2333  0.1924
 3766G1HHO Tail44314  19.654  16.956  23.668 -0.2708  0.0980  0.0581
 3767G1HHO Head44315  16.544  18.662  20.406 -0.0755 -0.0389 -0.2560
 3767G1HHO Head44316  16.580  18.752  20.108  0.0364  0.3170  0.3637
 3767G1HHO Head44317  16.097  18.723  20.206 -0.1839 -0.4289  0.4858
 3767G1HHO Head44318  16.226  18.562  20.026 -0.1812  0.3109 -0.3550
 3767G1HHO link44319  16.441  18.648  19.911  0.5663 -0.5284  0.0221
 3767G1HHO link44320  16.492  18.699  19.632  0.2796  0.2441 -0.1032
 3767G1HHO Tail44321  16.627  18.980  19.542 -0.1138 -0.0537 -0.3133
 3767G1HHO Tail44322  16.351  19.157  19.401  0.1383  0.0094  0.0547
 3767G1HHO Tail44323  16.312  19.399  19.183 -0.4108  0.5796  0.1006
 3767G1HHO Tail44324  16.164  19.493  18.792 -0.2439  0.0566 -0.0029
 3767G1HHO Tail44325  16.648  19.118  19.867  0.0841  0.0698  0.3308
 3767G1HHO Tail44326  16.436  19.244  20.070  0.1013  0.6449  0.0603
 3767G1HHO Tail44327  16.244  19.192  20.438  0.0494  0.0313 -0.0404
 3768G1HHO Head44328  17.085  18.339  20.338 -0.0269  0.0522  0.0784
 3768G1HHO Head44329  17.328  18.501  20.281 -0.0270  0.2413 -0.1689
 3768G1HHO Head44330  17.005  18.725  20.739  0.1667 -0.0559 -0.1848
 3768G1HHO Head44331  17.302  18.707  20.625  0.4883 -0.1907 -0.0544
 3768G1HHO link44332  17.338  18.745  20.370  0.0696 -0.3855  0.6299
 3768G1HHO link44333  17.535  18.926  20.275 -0.0635  0.2137 -0.0304
 3768G1HHO Tail44334  17.791  18.875  20.077  0.0145  0.0998 -0.2804
 3768G1HHO Tail44335  18.019  18.714  20.277 -0.0209 -0.0142 -0.0376
 3768G1HHO Tail44336  18.343  18.678  20.284  0.3674  0.0804 -0.0128
 3768G1HHO Tail44337  18.687  18.935  20.288 -0.0060  0.1615  0.2543
 3768G1HHO Tail44338  17.657  18.592  19.919  0.2903 -0.0095  0.0643
 3768G1HHO Tail44339  17.362  18.467  19.858  0.3245  0.2656 -0.2366
 3768G1HHO Tail44340  17.007  18.581  19.653 -0.1744  0.2291 -0.1912
 3769G1HHO Head44341  16.342  15.900  22.318  0.0912 -0.3274 -0.1467
 3769G1HHO Head44342  16.214  15.837  22.023 -0.2979 -0.2248 -0.4175
 3769G1HHO Head44343  15.823  15.815  21.703 -0.1392  0.4719 -0.2754
 3769G1HHO Head44344  15.996  15.550  21.851  0.4006  0.3761  0.1734
 3769G1HHO link44345  16.211  15.591  21.961 -0.5002  0.2899 -0.2109
 3769G1HHO link44346  16.369  15.380  22.085  0.1065 -0.1134  0.0531
 3769G1HHO Tail44347  16.290  15.244  22.378 -0.3385  0.1370  0.2275
 3769G1HHO Tail44348  15.971  15.069  22.310  0.2578 -0.0104  0.3322
 3769G1HHO Tail44349  15.803  15.035  22.045  0.1875 -0.2053  0.1659
 3769G1HHO Tail44350  15.715  14.749  21.732 -0.4282  0.4771 -0.2853
 3769G1HHO Tail44351  16.530  14.986  22.417 -0.0551 -0.2700  0.4377
 3769G1HHO Tail44352  16.843  15.017  22.463 -0.2846 -0.2263  0.1138
 3769G1HHO Tail44353  17.209  14.900  22.273  0.1824  0.6089  0.0826
 3770G1HHO Head44354  19.915  20.813  23.142 -0.2065  0.1411 -0.1992
 3770G1HHO Head44355  19.940  20.700  22.818 -0.0368  0.6572  0.0969
 3770G1HHO Head44356  20.298  20.727  22.457 -0.1415  0.0472 -0.1560
 3770G1HHO Head44357  20.310  20.500  22.650  0.4680 -0.1256 -0.1149
 3770G1HHO link44358  20.057  20.466  22.784 -0.2470 -0.0675  0.3994
 3770G1HHO link44359  19.950  20.223  22.892  0.3118  0.1979  0.0490
 3770G1HHO Tail44360  20.094  19.917  22.860  0.1909  0.1259 -0.0500
 3770G1HHO Tail44361  19.873  19.787  22.626 -0.1783 -0.3172  0.2017
 3770G1HHO Tail44362  19.894  19.560  22.391 -0.5107  0.0151 -0.2319
 3770G1HHO Tail44363  19.783  19.516  21.975  0.0745 -0.0915 -0.1690
 3770G1HHO Tail44364  20.338  20.014  22.613 -0.3244  0.3911  0.5784
 3770G1HHO Tail44365  20.374  20.078  22.313  0.1374  0.3286 -0.1710
 3770G1HHO Tail44366  20.124  20.091  21.931 -0.0577  0.0196 -0.0262
 3771G1HHO Head44367  15.478  22.043  23.571  0.1299  0.3224 -0.0826
 3771G1HHO Head44368  15.369  22.042  23.274  0.1487  0.0937  0.2712
 3771G1HHO Head44369  14.972  22.068  23.545 -0.0021  0.1991  0.2411
 3771G1HHO Head44370  15.021  21.828  23.355 -0.0102  0.1563  0.2076
 3771G1HHO link44371  15.216  21.840  23.199 -0.4948 -0.2755 -0.2206
 3771G1HHO link44372  15.289  21.620  23.051  0.1196  0.1844  0.1143
 3771G1HHO Tail44373  15.525  21.402  23.105 -0.1136 -0.2586 -0.2869
 3771G1HHO Tail44374  15.344  21.097  23.034 -0.1072  0.2877 -0.0178
 3771G1HHO Tail44375  15.219  20.949  22.788 -0.0136 -0.1571  0.0573
 3771G1HHO Tail44376  15.192  20.547  22.637  0.2394 -0.0806  0.0536
 3771G1HHO Tail44377  15.718  21.415  22.835 -0.2631 -0.0597  0.3285
 3771G1HHO Tail44378  16.021  21.425  22.811 -0.2322  0.3037  0.1648
 3771G1HHO Tail44379  16.339  21.456  22.523 -0.1075  0.1121 -0.0438
 3772G1HHO Head44380  17.340  17.668  17.829  0.1584 -0.2529  0.3619
 3772G1HHO Head44381  17.474  17.980  17.918  0.2914 -0.0961 -0.0880
 3772G1HHO Head44382  17.471  18.216  17.273  0.0863  0.0038  0.0450
 3772G1HHO Head44383  17.333  18.131  17.562 -0.0812 -0.0910  0.1981
 3772G1HHO link44384  17.421  18.207  17.792  0.2233 -0.1805  0.0592
 3772G1HHO link44385  17.604  18.417  17.816  0.3677 -0.1779  0.2519
 3772G1HHO Tail44386  17.730  18.471  18.112  0.4022 -0.2102  0.1090
 3772G1HHO Tail44387  17.435  18.403  18.293 -0.1261  0.1634 -0.0166
 3772G1HHO Tail44388  17.173  18.574  18.379  0.1731  0.3371  0.0108
 3772G1HHO Tail44389  16.799  18.685  18.176  0.2896 -0.1482 -0.1482
 3772G1HHO Tail44390  17.930  18.209  18.155  0.2494  0.2122  0.0080
 3772G1HHO Tail44391  17.877  17.898  18.118 -0.0510 -0.2613  0.2439
 3772G1HHO Tail44392  18.091  17.533  18.003 -0.0781  0.1025  0.0755
 3773G1HHO Head44393  16.948  17.901  17.830  0.0848  0.3570 -0.0531
 3773G1HHO Head44394  16.757  17.654  17.894  0.0785  0.6410 -0.1513
 3773G1HHO Head44395  16.908  17.024  18.192  0.2765 -0.0504  0.0179
 3773G1HHO Head44396  16.808  17.274  18.018  0.4312  0.2612 -0.4587
 3773G1HHO link44397  16.797  17.529  18.101 -0.6725  0.6130  0.2929
 3773G1HHO link44398  16.956  17.618  18.320  0.0905  0.2670  0.4220
 3773G1HHO Tail44399  17.200  17.828  18.255  0.1091 -0.1654 -0.0896
 3773G1HHO Tail44400  17.179  18.061  18.530  0.4111  0.0029  0.1160
 3773G1HHO Tail44401  16.960  18.209  18.698  0.0347 -0.0337  0.2905
 3773G1HHO Tail44402  16.725  18.586  18.656  0.0204 -0.1348  0.0431
 3773G1HHO Tail44403  17.472  17.616  18.363 -0.0426 -0.1255  0.3466
 3773G1HHO Tail44404  17.699  17.417  18.246 -0.2570  0.0741  0.0959
 3773G1HHO Tail44405  17.969  17.099  18.340 -0.0505 -0.1160 -0.1761
 3774G1HHO Head44406  14.314  18.983  22.651  0.1579 -0.1762 -0.3025
 3774G1HHO Head44407  14.595  19.040  22.552  0.0315  0.3115 -0.1105
 3774G1HHO Head44408  14.371  18.720  22.208 -0.0315  0.1151 -0.2218
 3774G1HHO Head44409  14.616  18.649  22.425  0.3517 -0.3367 -0.0359
 3774G1HHO link44410  14.757  18.832  22.554  0.0469 -0.0243  0.0290
 3774G1HHO link44411  15.043  18.821  22.578 -0.0825  0.1428  0.1362
 3774G1HHO Tail44412  15.171  18.519  22.592 -0.1681 -0.3241 -0.3387
 3774G1HHO Tail44413  15.166  18.515  22.943  0.3852  0.1082 -0.1201
 3774G1HHO Tail44414  15.178  18.726  23.181  0.0176  0.0669 -0.2073
 3774G1HHO Tail44415  15.439  19.037  23.300 -0.0357 -0.2464 -0.2575
 3774G1HHO Tail44416  14.906  18.282  22.575  0.3835 -0.3017 -0.1108
 3774G1HHO Tail44417  14.623  18.241  22.689  0.2664 -0.0824 -0.2417
 3774G1HHO Tail44418  14.307  18.356  22.982 -0.2435  0.4821 -0.0457
 3775G1HHO Head44419  16.712  18.566  21.871 -0.0786  0.0441  0.0173
 3775G1HHO Head44420  16.848  18.405  22.054  0.0051 -0.2050 -0.0861
 3775G1HHO Head44421  16.252  18.072  22.130  0.1043  0.2431 -0.3616
 3775G1HHO Head44422  16.567  18.101  22.075 -0.1267  0.1833 -0.0393
 3775G1HHO link44423  16.700  18.257  22.232 -0.2143  0.1044 -0.1364
 3775G1HHO link44424  16.648  18.279  22.512 -0.5239  0.1343  0.2521
 3775G1HHO Tail44425  16.853  18.182  22.753 -0.3260 -0.2689 -0.1600
 3775G1HHO Tail44426  16.957  18.513  22.906  0.1377  0.0388  0.0914
 3775G1HHO Tail44427  17.199  18.571  23.096 -0.0745  0.1167  0.0788
 3775G1HHO Tail44428  17.297  18.863  23.390  0.0778 -0.2137  0.1347
 3775G1HHO Tail44429  16.639  18.058  22.971  0.1137  0.1453 -0.0608
 3775G1HHO Tail44430  16.580  18.030  23.288  0.2136 -0.4254  0.0095
 3775G1HHO Tail44431  16.358  17.765  23.534 -0.3445  0.0381 -0.0337
 3776G1HHO Head44432  15.100  15.593  18.593  0.1110 -0.1781 -0.4195
 3776G1HHO Head44433  15.195  15.627  18.906  0.0767  0.3975 -0.3378
 3776G1HHO Head44434  15.408  15.684  19.447  0.2067 -0.0987  0.2973
 3776G1HHO Head44435  15.546  15.570  19.209 -0.2484  0.2066 -0.1582
 3776G1HHO link44436  15.466  15.645  18.952  0.0536  0.0138  0.3238
 3776G1HHO link44437  15.627  15.618  18.718  0.3182 -0.4528 -0.1479
 3776G1HHO Tail44438  15.946  15.615  18.739 -0.4070  0.2917  0.0467
 3776G1HHO Tail44439  16.016  15.899  18.611 -0.0465 -0.1220 -0.1494
 3776G1HHO Tail44440  15.906  16.192  18.647 -0.1356  0.6453  0.0901
 3776G1HHO Tail44441  15.728  16.435  18.956 -0.2334 -0.4280 -0.3853
 3776G1HHO Tail44442  15.972  15.656  19.080 -0.0686 -0.1453 -0.1589
 3776G1HHO Tail44443  15.936  15.459  19.343  0.1006 -0.3253 -0.3306
 3776G1HHO Tail44444  16.182  15.164  19.555 -0.0135 -0.2435 -0.0284
 3777G1HHO Head44445  13.453  16.138  18.494 -0.2580  0.3106  0.0835
 3777G1HHO Head44446  13.604  16.153  18.766  0.3422 -0.3844 -0.0388
 3777G1HHO Head44447  13.658  15.674  18.663 -0.3750 -0.2856 -0.0743
 3777G1HHO Head44448  13.944  15.869  18.733  0.0083  0.1325  0.1063
 3777G1HHO link44449  13.883  16.119  18.801 -0.1323  0.3189  0.6515
 3777G1HHO link44450  14.057  16.291  18.957 -0.0876  0.1843  0.2202
 3777G1HHO Tail44451  14.201  16.536  18.803 -0.2519 -0.1868 -0.2217
 3777G1HHO Tail44452  14.109  16.809  19.003  0.0798 -0.3518 -0.1020
 3777G1HHO Tail44453  14.270  17.007  19.173 -0.0897 -0.3244  0.2154
 3777G1HHO Tail44454  14.684  17.157  19.198  0.1881  0.0743 -0.6229
 3777G1HHO Tail44455  14.516  16.517  18.928  0.0618 -0.4664  0.0025
 3777G1HHO Tail44456  14.741  16.732  18.982 -0.0459  0.1397 -0.2550
 3777G1HHO Tail44457  15.060  16.819  19.259 -0.0114 -0.3684 -0.0334
 3778G1HHO Head44458  17.337  14.227  23.942 -0.1264  0.2558 -0.0529
 3778G1HHO Head44459  17.137  14.381  23.773 -0.6672  0.1917  0.0442
 3778G1HHO Head44460  17.572  14.652  23.821  0.1192  0.2559 -0.0556
 3778G1HHO Head44461  17.476  14.524  23.567  0.3653  0.3528  0.1901
 3778G1HHO link44462  17.209  14.478  23.536 -0.1603 -0.7910  0.0258
 3778G1HHO link44463  17.047  14.627  23.352  0.1251  0.1590  0.1952
 3778G1HHO Tail44464  17.176  14.811  23.105 -0.0077 -0.3083 -0.2438
 3778G1HHO Tail44465  17.493  14.843  23.207 -0.5924 -0.2347 -0.2271
 3778G1HHO Tail44466  17.603  14.959  23.470  0.3130  0.0879 -0.0037
 3778G1HHO Tail44467  17.528  15.251  23.766 -0.0446 -0.2667 -0.1085
 3778G1HHO Tail44468  17.214  14.565  22.845  0.1252 -0.2037  0.0354
 3778G1HHO Tail44469  17.332  14.506  22.558 -0.0379 -0.4097  0.4194
 3778G1HHO Tail44470  17.725  14.358  22.427  0.0011  0.1469 -0.2268
 3779G1HHO Head44471  22.237  16.592  21.010 -0.0125  0.2087 -0.0735
 3779G1HHO Head44472  22.044  16.788  20.887 -0.1254 -0.0606  0.0797
 3779G1HHO Head44473  21.935  17.027  21.512  0.0600 -0.2570  0.0474
 3779G1HHO Head44474  22.043  16.921  21.264 -0.0901  0.1276  0.0116
 3779G1HHO link44475  21.956  16.981  21.034 -0.1819 -0.2295 -0.3069
 3779G1HHO link44476  21.700  17.096  21.015  0.0780 -0.1764  0.0683
 3779G1HHO Tail44477  21.483  17.007  21.234 -0.2198 -0.0414  0.0505
 3779G1HHO Tail44478  21.437  17.309  21.375 -0.0294  0.1126  0.0756
 3779G1HHO Tail44479  21.222  17.457  21.569  0.0701 -0.2046 -0.0246
 3779G1HHO Tail44480  20.798  17.424  21.685  0.1556 -0.0665  0.2933
 3779G1HHO Tail44481  21.212  16.911  21.040 -0.3483 -0.1127 -0.0001
 3779G1HHO Tail44482  21.207  16.688  20.821  0.0322  0.0330 -0.2685
 3779G1HHO Tail44483  21.250  16.259  20.749 -0.0985  0.0863  0.0419
 3780G1HHO Head44484  15.891  17.027  21.185  0.0058  0.1705 -0.0590
 3780G1HHO Head44485  15.610  17.123  21.152  0.5321 -0.1048 -0.0869
 3780G1HHO Head44486  15.424  16.698  21.420  0.3454  0.0117 -0.2985
 3780G1HHO Head44487  15.368  16.752  21.137 -0.6692 -0.1830 -0.0443
 3780G1HHO link44488  15.421  16.993  21.040  0.1447 -0.3776 -0.0493
 3780G1HHO link44489  15.225  17.096  20.858  0.0543  0.2119 -0.2199
 3780G1HHO Tail44490  15.152  16.890  20.614 -0.2065  0.0007 -0.1236
 3780G1HHO Tail44491  14.884  16.715  20.742 -0.3257  0.0055 -0.0800
 3780G1HHO Tail44492  14.752  16.433  20.768 -0.5101  0.1646  0.2076
 3780G1HHO Tail44493  14.622  16.222  21.128 -0.0504 -0.3215 -0.0499
 3780G1HHO Tail44494  14.967  17.110  20.414 -0.2433 -0.0289 -0.1475
 3780G1HHO Tail44495  14.821  17.081  20.155  0.1897  0.0649 -0.0588
 3780G1HHO Tail44496  14.498  16.871  19.960 -0.0284  0.1798  0.2096
 3781G1HHO Head44497  16.683  16.368  19.220 -0.0841  0.1446  0.0688
 3781G1HHO Head44498  16.714  16.558  19.503  0.2361  0.4068  0.1507
 3781G1HHO Head44499  16.986  17.102  19.782 -0.4190 -0.0523  0.2494
 3781G1HHO Head44500  16.751  16.956  19.661  0.2265  0.5388  0.0323
 3781G1HHO link44501  16.799  16.820  19.464 -0.5733 -0.2065  0.1230
 3781G1HHO link44502  16.899  16.938  19.226 -0.2412  0.1283 -0.2012
 3781G1HHO Tail44503  16.720  16.983  18.952 -0.3349  0.2180 -0.2533
 3781G1HHO Tail44504  16.431  17.122  19.087 -0.3377 -0.2297  0.0123
 3781G1HHO Tail44505  16.317  17.423  19.148 -0.4205  0.2159  0.2715
 3781G1HHO Tail44506  16.211  17.763  18.894 -0.0296 -0.0447 -0.0687
 3781G1HHO Tail44507  16.855  17.281  18.855 -0.0985 -0.2411  0.3553
 3781G1HHO Tail44508  16.726  17.531  18.710 -0.1784 -0.1327 -0.1551
 3781G1HHO Tail44509  16.484  17.588  18.360 -0.3793 -0.4696 -0.1439
 3782G1HHO Head44510  20.279  15.464  19.196  0.0918  0.1423  0.0590
 3782G1HHO Head44511  19.979  15.522  19.101 -0.1437  0.0002  0.2616
 3782G1HHO Head44512  19.511  15.102  18.836 -0.1673 -0.0327 -0.0255
 3782G1HHO Head44513  19.604  15.374  18.962  0.2006  0.0734  0.3502
 3782G1HHO link44514  19.767  15.375  19.162  0.1371 -0.0435  0.5085
 3782G1HHO link44515  19.748  15.223  19.404 -0.0995  0.0530  0.0278
 3782G1HHO Tail44516  19.819  15.333  19.712 -0.0637 -0.3674 -0.1676
 3782G1HHO Tail44517  20.161  15.342  19.690 -0.4580 -0.0359  0.0764
 3782G1HHO Tail44518  20.403  15.428  19.909 -0.0891  0.1369  0.2515
 3782G1HHO Tail44519  20.455  15.450  20.331  0.0515 -0.1681 -0.2090
 3782G1HHO Tail44520  19.772  15.684  19.684 -0.0584 -0.0120 -0.1062
 3782G1HHO Tail44521  19.672  15.922  19.868 -0.4312  0.2194  0.4128
 3782G1HHO Tail44522  19.435  16.281  19.876  0.2031  0.2082 -0.1486
 3783G1HHO Head44523  15.094  20.341  18.672  0.0437  0.0413  0.2108
 3783G1HHO Head44524  15.116  20.037  18.737 -0.1725 -0.2550  0.1081
 3783G1HHO Head44525  15.544  20.334  18.929  0.1700  0.0439 -0.1221
 3783G1HHO Head44526  15.452  20.072  18.983 -0.3283  0.1114 -0.0272
 3783G1HHO link44527  15.344  19.934  18.795 -0.1507 -0.3314 -0.6654
 3783G1HHO link44528  15.414  19.666  18.721  0.0089  0.1354 -0.0111
 3783G1HHO Tail44529  15.207  19.420  18.808  0.0485  0.0903  0.1411
 3783G1HHO Tail44530  15.443  19.180  18.889 -0.1267 -0.1700 -0.2781
 3783G1HHO Tail44531  15.544  19.025  19.166 -0.1060 -0.1036 -0.0532
 3783G1HHO Tail44532  15.443  18.664  19.374  0.6257 -0.0431  0.0057
 3783G1HHO Tail44533  15.069  19.532  19.093 -0.0820  0.1268 -0.4007
 3783G1HHO Tail44534  15.173  19.475  19.391 -0.0023 -0.2990  0.0550
 3783G1HHO Tail44535  15.536  19.360  19.609  0.3507  0.5054  0.2308
 3784G1HHO Head44536  20.492  14.942  24.078 -0.1774 -0.4514 -0.2766
 3784G1HHO Head44537  20.358  14.924  23.825 -0.1502 -0.0720  0.1712
 3784G1HHO Head44538  20.175  14.708  23.470  0.4531 -0.1942  0.0068
 3784G1HHO Head44539  20.064  14.944  23.507  0.0779  0.1201  0.0226
 3784G1HHO link44540  20.147  15.082  23.737 -0.3142  0.0097  0.3791
 3784G1HHO link44541  20.073  15.333  23.830  0.1742 -0.2855  0.1752
 3784G1HHO Tail44542  19.925  15.537  23.602  0.0978 -0.0845 -0.1453
 3784G1HHO Tail44543  19.902  15.311  23.330 -0.0119 -0.1246  0.4413
 3784G1HHO Tail44544  19.985  15.334  23.041 -0.1068 -0.3046 -0.0605
 3784G1HHO Tail44545  19.898  15.564  22.679 -0.2833  0.1704  0.3104
 3784G1HHO Tail44546  19.594  15.538  23.710 -0.0859 -0.3750  0.1681
 3784G1HHO Tail44547  19.335  15.516  23.529  0.1133 -0.3591  0.1117
 3784G1HHO Tail44548  18.938  15.688  23.460 -0.0632 -0.4508 -0.1854
 3785G1HHO Head44549  19.358  13.717  22.997  0.3053  0.1583  0.0476
 3785G1HHO Head44550  19.165  13.947  23.013  0.2716  0.2994  0.0879
 3785G1HHO Head44551  19.723  14.018  22.933  0.4277  0.0433  0.0988
 3785G1HHO Head44552  19.443  14.220  22.848 -0.1633  0.1592  0.0672
 3785G1HHO link44553  19.215  14.212  22.947  0.1018 -0.1673 -0.1748
 3785G1HHO link44554  19.019  14.409  22.874 -0.1245 -0.0378  0.0952
 3785G1HHO Tail44555  18.840  14.368  22.592  0.0300  0.2967  0.2340
 3785G1HHO Tail44556  19.028  14.143  22.429  0.1979  0.1264 -0.0210
 3785G1HHO Tail44557  19.124  14.047  22.144 -0.1288  0.0150 -0.1329
 3785G1HHO Tail44558  19.477  13.910  21.930 -0.1555  0.2324  0.1217
 3785G1HHO Tail44559  18.932  14.640  22.411 -0.5548  0.0984  0.0336
 3785G1HHO Tail44560  18.821  14.789  22.168 -0.0507  0.1607  0.0139
 3785G1HHO Tail44561  18.822  14.897  21.741 -0.0213 -0.0100  0.0119
 3786G1HHO Head44562  21.444  14.514  21.196  0.0469  0.0745  0.0668
 3786G1HHO Head44563  21.144  14.603  21.125 -0.3118 -0.1452  0.0878
 3786G1HHO Head44564  21.021  14.652  21.758 -0.0021  0.0622 -0.0624
 3786G1HHO Head44565  21.153  14.696  21.511 -0.2546  0.4335  0.1537
 3786G1HHO link44566  21.013  14.748  21.295  0.4125 -0.1676  0.0991
 3786G1HHO link44567  20.725  14.788  21.280  0.0271  0.0843  0.1134
 3786G1HHO Tail44568  20.563  14.891  21.560  0.0785  0.2654 -0.1125
 3786G1HHO Tail44569  20.791  15.108  21.698 -0.0036  0.2123 -0.2272
 3786G1HHO Tail44570  21.084  15.096  21.830 -0.2661 -0.0076 -0.2022
 3786G1HHO Tail44571  21.433  15.358  21.912 -0.1699 -0.2250  0.1447
 3786G1HHO Tail44572  20.338  15.099  21.431  0.2810 -0.5157 -0.2132
 3786G1HHO Tail44573  20.061  15.251  21.534 -0.3313 -0.1031 -0.1057
 3786G1HHO Tail44574  19.637  15.234  21.411  0.1190  0.5998  0.1945
 3787G1HHO Head44575  15.249  16.219  24.746 -0.1047 -0.0404  0.2093
 3787G1HHO Head44576  15.428  16.332  24.562  0.0636 -0.4541  0.4808
 3787G1HHO Head44577  14.987  16.756  24.692 -0.2365  0.0432  0.1371
 3787G1HHO Head44578  15.271  16.654  24.720  0.0707 -0.3062  0.2868
 3787G1HHO link44579  15.435  16.582  24.532 -0.1162 -0.1718 -0.4821
 3787G1HHO link44580  15.455  16.700  24.270 -0.2266 -0.2637 -0.0680
 3787G1HHO Tail44581  15.713  16.898  24.196 -0.4004  0.0836  0.4046
 3787G1HHO Tail44582  15.942  16.698  24.027 -0.0432  0.0038  0.0668
 3787G1HHO Tail44583  16.229  16.560  24.093 -0.0918 -0.2094 -0.2311
 3787G1HHO Tail44584  16.434  16.328  24.424  0.5751 -0.1386 -0.1320
 3787G1HHO Tail44585  15.583  17.068  23.926  0.0657 -0.1677  0.2964
 3787G1HHO Tail44586  15.602  17.356  23.838 -0.4670  0.0081  0.3678
 3787G1HHO Tail44587  15.743  17.749  23.954 -0.2568 -0.1068  0.3147
 3788G1HHO Head44588  13.126  18.464  20.959 -0.3137  0.0920  0.1430
 3788G1HHO Head44589  12.901  18.634  20.836 -0.1550  0.1429 -0.2604
 3788G1HHO Head44590  12.769  19.070  21.005  0.1402 -0.0021 -0.4052
 3788G1HHO Head44591  12.836  19.020  20.707 -0.4958 -0.0157 -0.1247
 3788G1HHO link44592  12.961  18.793  20.631 -0.4473 -0.2547 -0.0288
 3788G1HHO link44593  13.173  18.764  20.445  0.2562  0.0894 -0.1370
 3788G1HHO Tail44594  13.492  18.709  20.497 -0.2087 -0.4838  0.2540
 3788G1HHO Tail44595  13.577  18.507  20.240 -0.0556 -0.2233  0.0115
 3788G1HHO Tail44596  13.571  18.195  20.230  0.4081  0.2976  0.0791
 3788G1HHO Tail44597  13.785  17.858  20.093 -0.5111  0.2863 -0.0657
 3788G1HHO Tail44598  13.642  18.997  20.351  0.0880 -0.2698  0.1781
 3788G1HHO Tail44599  13.910  19.146  20.440  0.0691 -0.2403 -0.0636
 3788G1HHO Tail44600  14.179  19.450  20.281  0.4921  0.1304  0.0999
 3789G1HHO Head44601  13.995  14.497  19.163  0.2933  0.1968 -0.1855
 3789G1HHO Head44602  14.178  14.780  19.130  0.0611  0.4653  0.3585
 3789G1HHO Head44603  14.448  14.371  19.056 -0.1257 -0.2914 -0.0549
 3789G1HHO Head44604  14.497  14.583  19.307  0.0899 -0.0060  0.4113
 3789G1HHO link44605  14.397  14.829  19.279  0.1796  0.2955  0.0691
 3789G1HHO link44606  14.529  15.083  19.276  0.2875  0.1426  0.0193
 3789G1HHO Tail44607  14.500  15.317  19.512  0.3794  0.3314  0.2310
 3789G1HHO Tail44608  14.323  15.140  19.758 -0.2887  0.0676 -0.2061
 3789G1HHO Tail44609  14.038  15.038  19.831  0.2506 -0.0337 -0.1163
 3789G1HHO Tail44610  13.757  15.039  20.168 -0.6539  0.0730 -0.0392
 3789G1HHO Tail44611  14.800  15.331  19.633 -0.0990 -0.0242 -0.2178
 3789G1HHO Tail44612  15.031  15.530  19.705 -0.1173  0.1181  0.0023
 3789G1HHO Tail44613  15.098  15.955  19.740  0.1902  0.0526 -0.0544
 3790G1HHO Head44614  17.821  18.175  19.666 -0.1764 -0.0128  0.1920
 3790G1HHO Head44615  18.094  18.253  19.602  0.3433 -0.1778 -0.1892
 3790G1HHO Head44616  18.213  18.309  20.046  0.3699 -0.1491  0.1906
 3790G1HHO Head44617  18.370  18.134  19.873 -0.0458 -0.0062 -0.0873
 3790G1HHO link44618  18.280  18.088  19.627  0.1184 -0.1397  0.5572
 3790G1HHO link44619  18.410  17.931  19.415 -0.1389  0.2809 -0.3212
 3790G1HHO Tail44620  18.628  17.686  19.488 -0.1683  0.2283  0.1073
 3790G1HHO Tail44621  18.731  17.547  19.171  0.0835 -0.2636 -0.1618
 3790G1HHO Tail44622  18.839  17.269  19.150  0.0148 -0.0087  0.4939
 3790G1HHO Tail44623  18.823  16.944  18.839  0.0526  0.0658  0.1044
 3790G1HHO Tail44624  18.897  17.875  19.567 -0.1279 -0.0192  0.2294
 3790G1HHO Tail44625  18.934  18.173  19.572 -0.2805 -0.0987 -0.1587
 3790G1HHO Tail44626  19.264  18.449  19.676 -0.2349 -0.3716 -0.0387
 3791G1HHO Head44627  15.538  21.542  21.212  0.0425 -0.1812  0.1983
 3791G1HHO Head44628  15.483  21.355  21.462 -0.1338  0.2805 -0.1724
 3791G1HHO Head44629  15.075  21.726  21.746  0.2530  0.1787 -0.3454
 3791G1HHO Head44630  15.118  21.512  21.533  0.3493 -0.4895  0.0811
 3791G1HHO link44631  15.241  21.296  21.576 -0.0160 -0.0036 -0.1177
 3791G1HHO link44632  15.114  21.051  21.613  0.1092  0.0702 -0.2058
 3791G1HHO Tail44633  14.966  20.980  21.885 -0.0249 -0.3548  0.0447
 3791G1HHO Tail44634  14.931  21.294  22.043  0.3313  0.1139 -0.1278
 3791G1HHO Tail44635  15.017  21.425  22.314  0.0672 -0.3192 -0.3949
 3791G1HHO Tail44636  15.024  21.366  22.756 -0.0482 -0.0829 -0.1609
 3791G1HHO Tail44637  14.623  20.968  21.797  0.0721 -0.2685  0.5090
 3791G1HHO Tail44638  14.363  21.147  21.863  0.1715  0.5336 -0.0042
 3791G1HHO Tail44639  13.974  21.112  22.061 -0.0891 -0.0385  0.1323
 3792G1HHO Head44640  17.317  19.137  20.672 -0.3796  0.0183 -0.0895
 3792G1HHO Head44641  17.579  19.116  20.847  0.3764  0.1243  0.0140
 3792G1HHO Head44642  17.949  18.928  21.108  0.0010 -0.4040  0.0129
 3792G1HHO Head44643  18.005  19.098  20.862  0.1114  0.0382 -0.2234
 3792G1HHO link44644  17.798  19.206  20.752  0.2753  0.0797 -0.1903
 3792G1HHO link44645  17.813  19.287  20.482 -0.1353 -0.3172  0.0373
 3792G1HHO Tail44646  17.906  19.581  20.383  0.4282  0.0526 -0.2830
 3792G1HHO Tail44647  18.242  19.535  20.380  0.1471  0.1475  0.1133
 3792G1HHO Tail44648  18.505  19.532  20.154 -0.0584  0.0051  0.0066
 3792G1HHO Tail44649  18.934  19.593  20.135 -0.2299 -0.1685  0.3871
 3792G1HHO Tail44650  17.837  19.570  20.054 -0.1226 -0.2137 -0.2517
 3792G1HHO Tail44651  18.062  19.622  19.819 -0.0231  0.3602  0.1725
 3792G1HHO Tail44652  18.462  19.495  19.692  0.1000 -0.0120 -0.0479
 3793G1HHO Head44653  14.666  18.066  17.641  0.1589  0.1499  0.1204
 3793G1HHO Head44654  14.596  18.107  17.947 -0.4087  0.0856  0.4474
 3793G1HHO Head44655  14.638  17.576  17.881  0.2918 -0.1149 -0.0414
 3793G1HHO Head44656  14.845  17.782  17.983 -0.6291 -0.0890  0.2863
 3793G1HHO link44657  14.747  17.985  18.124  0.0118 -0.1579 -0.3077
 3793G1HHO link44658  14.720  17.981  18.403 -0.1078 -0.2784  0.4623
 3793G1HHO Tail44659  14.974  17.966  18.590 -0.0694  0.0819  0.0350
 3793G1HHO Tail44660  14.826  17.767  18.823  0.3306  0.2693 -0.2406
 3793G1HHO Tail44661  14.536  17.768  18.961 -0.1932 -0.2375  0.0773
 3793G1HHO Tail44662  14.333  17.618  19.321  0.2290 -0.0850 -0.0824
 3793G1HHO Tail44663  15.187  17.768  18.400  0.0360  0.0799  0.3127
 3793G1HHO Tail44664  15.410  17.791  18.166 -0.4117 -0.2043 -0.4587
 3793G1HHO Tail44665  15.838  17.745  18.109  0.1399  0.1835 -0.0247
 3794G1HHO Head44666  14.258  16.564  23.671 -0.1389  0.1317  0.1275
 3794G1HHO Head44667  14.525  16.409  23.593  0.0854  0.1436 -0.2842
 3794G1HHO Head44668  14.043  15.995  23.670 -0.4456  0.2085  0.0102
 3794G1HHO Head44669  14.319  16.102  23.746 -0.0437 -0.0025  0.1299
 3794G1HHO link44670  14.505  16.159  23.559 -0.1759 -0.3004  0.1045
 3794G1HHO link44671  14.659  15.954  23.420 -0.1324 -0.0246 -0.4355
 3794G1HHO Tail44672  14.904  16.032  23.217 -0.1421  0.4296 -0.1962
 3794G1HHO Tail44673  15.176  15.902  23.396  0.0886 -0.1482  0.1315
 3794G1HHO Tail44674  15.471  16.018  23.480 -0.2906 -0.1388  0.1646
 3794G1HHO Tail44675  15.678  16.395  23.423 -0.1673 -0.2724 -0.0627
 3794G1HHO Tail44676  14.861  15.739  23.020  0.2380  0.0009  0.1541
 3794G1HHO Tail44677  15.019  15.475  22.953  0.2791  0.1418 -0.3866
 3794G1HHO Tail44678  15.018  15.168  22.654 -0.3469  0.1850 -0.3006
 3795G1HHO Head44679  13.219  15.567  20.879 -0.2382  0.3460 -0.0848
 3795G1HHO Head44680  13.294  15.783  20.706  0.0292  0.2695  0.1826
 3795G1HHO Head44681  13.722  15.900  20.202  0.2116 -0.1883  0.2057
 3795G1HHO Head44682  13.563  15.737  20.395 -0.2259  0.0481 -0.0008
 3795G1HHO link44683  13.545  15.814  20.641 -0.1052  0.0666 -0.0091
 3795G1HHO link44684  13.760  15.780  20.816 -0.2922  0.2509 -0.1619
 3795G1HHO Tail44685  14.032  15.614  20.731  0.1596  0.5668 -0.2641
 3795G1HHO Tail44686  14.189  15.779  20.464  0.1736  0.3619 -0.2575
 3795G1HHO Tail44687  14.211  16.062  20.340 -0.1709  0.0048  0.2260
 3795G1HHO Tail44688  14.517  16.381  20.345 -0.0259  0.0031 -0.0985
 3795G1HHO Tail44689  14.242  15.727  20.993  0.0056  0.0537  0.1433
 3795G1HHO Tail44690  14.568  15.775  21.029  0.2393 -0.0829  0.0850
 3795G1HHO Tail44691  14.903  15.716  21.305 -0.3114  0.3910 -0.1049
 3796G1HHO Head44692  18.288  19.386  18.204 -0.1379  0.1380  0.3301
 3796G1HHO Head44693  18.434  19.231  18.429 -0.1678 -0.5822 -0.0007
 3796G1HHO Head44694  18.789  19.191  18.001  0.0828 -0.0905  0.0473
 3796G1HHO Head44695  18.635  18.963  18.115  0.1422  0.1353  0.0513
 3796G1HHO link44696  18.561  18.992  18.368  0.0034  0.3027 -0.5212
 3796G1HHO link44697  18.558  18.768  18.551  0.4384 -0.2049 -0.0035
 3796G1HHO Tail44698  18.314  18.674  18.771  0.2145 -0.2143 -0.0476
 3796G1HHO Tail44699  18.168  18.982  18.863 -0.0097 -0.1083 -0.1556
 3796G1HHO Tail44700  18.243  19.235  19.059  0.1710  0.4161 -0.4338
 3796G1HHO Tail44701  18.075  19.439  19.408  0.1053  0.0120  0.5599
 3796G1HHO Tail44702  18.069  18.577  18.549 -0.1154 -0.0212  0.0805
 3796G1HHO Tail44703  17.732  18.590  18.516 -0.4725  0.4043  0.0338
 3796G1HHO Tail44704  17.383  18.704  18.739 -0.0986 -0.0383 -0.3865
 3797G1HHO Head44705  16.858  16.197  23.481  0.0532  0.0476 -0.0484
 3797G1HHO Head44706  16.943  16.160  23.179  0.2519  0.1055  0.2200
 3797G1HHO Head44707  17.218  16.229  22.608  0.4555  0.1028 -0.1423
 3797G1HHO Head44708  17.130  16.044  22.825 -0.1419  0.2960 -0.1681
 3797G1HHO link44709  17.166  16.115  23.068  0.1614  0.0385 -0.2916
 3797G1HHO link44710  17.417  16.149  23.197 -0.0243  0.0001 -0.0841
 3797G1HHO Tail44711  17.503  16.120  23.511 -0.0830  0.1554  0.2279
 3797G1HHO Tail44712  17.665  15.814  23.474 -0.2106  0.3551 -0.1986
 3797G1HHO Tail44713  17.807  15.589  23.650 -0.3599 -0.3083  0.3126
 3797G1HHO Tail44714  18.170  15.322  23.652  0.0343 -0.2774  0.4204
 3797G1HHO Tail44715  17.765  16.364  23.538 -0.2928 -0.3173  0.1056
 3797G1HHO Tail44716  17.819  16.621  23.731 -0.3145 -0.0218  0.2209
 3797G1HHO Tail44717  18.044  16.727  24.094  0.0037 -0.2678  0.0683
 3798G1HHO Head44718  20.742  15.556  24.480 -0.0191 -0.0287  0.0860
 3798G1HHO Head44719  20.597  15.540  24.746  0.1552  0.1458 -0.1672
 3798G1HHO Head44720  20.297  15.711  25.274  0.1406 -0.1511 -0.4113
 3798G1HHO Head44721  20.248  15.746  24.960 -0.4643 -0.1296  0.0544
 3798G1HHO link44722  20.338  15.582  24.762 -0.3119  0.2938 -0.2418
 3798G1HHO link44723  20.136  15.451  24.596 -0.1312  0.0309 -0.0541
 3798G1HHO Tail44724  20.061  15.136  24.650  0.3423 -0.2481 -0.5454
 3798G1HHO Tail44725  19.707  15.157  24.699  0.2772 -0.0652 -0.1028
 3798G1HHO Tail44726  19.467  15.297  24.543 -0.2734 -0.1418  0.3381
 3798G1HHO Tail44727  19.146  15.230  24.245 -0.4025 -0.3513  0.0502
 3798G1HHO Tail44728  20.097  15.023  24.334 -0.0691  0.2986 -0.1764
 3798G1HHO Tail44729  19.899  14.970  24.112  0.2090 -0.1363  0.1484
 3798G1HHO Tail44730  19.721  15.097  23.731  0.0185  0.2360 -0.1979
 3799G1HHO Head44731  16.237  15.593  25.103 -0.0036 -0.0215  0.0579
 3799G1HHO Head44732  16.201  15.291  24.976 -0.1057 -0.2270  0.0013
 3799G1HHO Head44733  15.893  14.900  24.770 -0.1532  0.1719  0.0619
 3799G1HHO Head44734  16.193  15.017  24.715  0.1882 -0.4290  0.0007
 3799G1HHO link44735  16.230  15.277  24.739  0.4950  0.5653  0.0102
 3799G1HHO link44736  16.180  15.478  24.551  0.2225  0.2214  0.2103
 3799G1HHO Tail44737  16.210  15.802  24.600  0.2099 -0.0495 -0.2376
 3799G1HHO Tail44738  16.553  15.842  24.636  0.1409  0.2624 -0.0441
 3799G1HHO Tail44739  16.764  15.907  24.876  0.1781  0.0863  0.2185
 3799G1HHO Tail44740  16.836  16.182  25.204  0.2677  0.0706 -0.2379
 3799G1HHO Tail44741  16.134  15.931  24.297  0.0936  0.5291 -0.2820
 3799G1HHO Tail44742  16.012  16.173  24.170  0.0210 -0.2412  0.2050
 3799G1HHO Tail44743  15.671  16.317  23.943  0.5621  0.0558  0.0862
 3800G1HHO Head44744  15.350  15.453  23.987  0.2220 -0.2318 -0.2417
 3800G1HHO Head44745  15.468  15.563  23.727  0.5031 -0.0782  0.1439
 3800G1HHO Head44746  14.951  15.627  23.692  0.2367 -0.2104 -0.1064
 3800G1HHO Head44747  15.128  15.401  23.557 -0.0035 -0.4985  0.1323
 3800G1HHO link44748  15.379  15.436  23.504  0.0415  0.4015  0.1055
 3800G1HHO link44749  15.434  15.525  23.240 -0.4104 -0.3067 -0.1922
 3800G1HHO Tail44750  15.590  15.817  23.151 -0.5872 -0.0326  0.3302
 3800G1HHO Tail44751  15.869  15.683  22.972  0.3461 -0.0362  0.0668
 3800G1HHO Tail44752  16.004  15.399  22.998  0.1130 -0.1002 -0.3272
 3800G1HHO Tail44753  16.333  15.165  22.841  0.0611 -0.5623  0.1217
 3800G1HHO Tail44754  15.390  15.944  22.876  0.2843 -0.1439 -0.0197
 3800G1HHO Tail44755  15.086  16.065  22.841 -0.3172  0.1876 -0.5405
 3800G1HHO Tail44756  14.825  16.222  22.533 -0.1635 -0.1434  0.1490
 3801G1HHO Head44757  19.158  17.282  21.525  0.3823 -0.0212  0.0072
 3801G1HHO Head44758  19.042  17.574  21.416  0.0362  0.0161  0.2431
 3801G1HHO Head44759  18.769  17.544  21.864 -0.0906 -0.3661 -0.1605
 3801G1HHO Head44760  18.974  17.751  21.809  0.0967  0.0407 -0.1002
 3801G1HHO link44761  19.049  17.787  21.565 -0.1892  0.4446  0.0106
 3801G1HHO link44762  19.140  18.044  21.475  0.0241  0.1594 -0.0855
 3801G1HHO Tail44763  19.197  18.107  21.155 -0.0037 -0.3184 -0.0341
 3801G1HHO Tail44764  19.435  18.361  21.202 -0.3140 -0.4242 -0.0768
 3801G1HHO Tail44765  19.424  18.676  21.181  0.0395  0.0651 -0.0318
 3801G1HHO Tail44766  19.388  18.992  21.472 -0.0867  0.0017  0.1464
 3801G1HHO Tail44767  19.376  17.827  21.051  0.3850  0.0983 -0.0975
 3801G1HHO Tail44768  19.447  17.540  21.179 -0.1743 -0.0785  0.0433
 3801G1HHO Tail44769  19.680  17.188  21.121 -0.1759 -0.4612 -0.0591
 3802G1HHO Head44770  13.702  15.394  21.161 -0.2019 -0.2547 -0.1164
 3802G1HHO Head44771  13.537  15.677  21.148  0.2939 -0.2274 -0.1761
 3802G1HHO Head44772  13.204  16.103  21.056  0.2929 -0.2951 -0.0182
 3802G1HHO Head44773  13.426  16.075  21.250 -0.1584  0.0437 -0.1731
 3802G1HHO link44774  13.621  15.900  21.252  0.3270  0.3553  0.2046
 3802G1HHO link44775  13.893  15.967  21.304  0.1099 -0.3792  0.2319
 3802G1HHO Tail44776  13.972  16.229  21.493  0.0619 -0.4212  0.1959
 3802G1HHO Tail44777  14.192  16.398  21.288  0.0662 -0.2189 -0.0856
 3802G1HHO Tail44778  14.142  16.637  21.075 -0.1457 -0.2959  0.0137
 3802G1HHO Tail44779  13.924  16.676  20.698  0.3331 -0.1117  0.1568
 3802G1HHO Tail44780  13.703  16.435  21.394  0.0882  0.4236  0.0617
 3802G1HHO Tail44781  13.709  16.665  21.157 -0.1480  0.0206  0.1202
 3802G1HHO Tail44782  13.589  17.068  21.080 -0.1786 -0.1450  0.1266
 3803G1HHO Head44783  15.805  18.044  22.409  0.3019  0.2316  0.2929
 3803G1HHO Head44784  15.772  17.968  22.702  0.2073 -0.3250  0.0146
 3803G1HHO Head44785  15.629  18.429  22.683 -0.0391 -0.0026 -0.2277
 3803G1HHO Head44786  15.812  18.339  22.887 -0.0023  0.0810 -0.1329
 3803G1HHO link44787  15.909  18.095  22.897 -0.3496 -0.0282  0.0055
 3803G1HHO link44788  16.035  17.992  23.131 -0.0864 -0.1826  0.0245
 3803G1HHO Tail44789  16.197  18.181  23.336  0.2426 -0.5081  0.6776
 3803G1HHO Tail44790  16.307  18.382  23.081  0.0079 -0.3434  0.0656
 3803G1HHO Tail44791  16.452  18.666  23.053  0.4736  0.2780  0.1346
 3803G1HHO Tail44792  16.821  18.891  23.183 -0.1333  0.1138  0.3543
 3803G1HHO Tail44793  15.928  18.338  23.480  0.0916  0.4570  0.1282
 3803G1HHO Tail44794  15.904  18.437  23.779 -0.1541  0.5916 -0.2088
 3803G1HHO Tail44795  15.873  18.765  24.043  0.0053 -0.2961  0.2141
 3804G1HHO Head44796  16.739  13.863  19.103 -0.0687  0.2124 -0.1218
 3804G1HHO Head44797  16.828  14.013  18.885 -0.2468 -0.1529  0.3354
 3804G1HHO Head44798  17.471  13.917  18.634 -0.0384 -0.0821  0.3344
 3804G1HHO Head44799  17.231  13.859  18.755 -0.0065 -0.3769  0.1561
 3804G1HHO link44800  17.078  14.070  18.860 -0.1016  0.7982  0.3349
 3804G1HHO link44801  17.170  14.317  18.938  0.3296  0.2445  0.2669
 3804G1HHO Tail44802  17.340  14.490  18.732 -0.4628  0.0892  0.0553
 3804G1HHO Tail44803  17.113  14.736  18.664 -0.2123 -0.4569  0.4375
 3804G1HHO Tail44804  17.063  15.023  18.555 -0.9066 -0.0353  0.4720
 3804G1HHO Tail44805  17.281  15.401  18.574  0.1208  0.0003 -0.0895
 3804G1HHO Tail44806  17.544  14.646  18.969  0.3641  0.1700 -0.2242
 3804G1HHO Tail44807  17.534  14.791  19.229 -0.0676  0.0352  0.6092
 3804G1HHO Tail44808  17.356  15.134  19.429 -0.3090  0.0362 -0.1264
 3805G1HHO Head44809  19.615  19.251  18.811 -0.0325 -0.0555  0.1189
 3805G1HHO Head44810  19.321  19.130  18.776 -0.0728  0.0209  0.2371
 3805G1HHO Head44811  19.458  19.149  18.297  0.0170  0.0805 -0.0488
 3805G1HHO Head44812  19.417  18.894  18.464 -0.3428 -0.1580  0.1740
 3805G1HHO link44813  19.270  18.892  18.695  0.5317  0.0757  0.8856
 3805G1HHO link44814  19.020  18.749  18.734 -0.2428  0.0612  0.1066
 3805G1HHO Tail44815  19.007  18.433  18.764 -0.0908 -0.1199 -0.2545
 3805G1HHO Tail44816  19.235  18.412  19.050 -0.1454 -0.3140  0.0911
 3805G1HHO Tail44817  19.405  18.645  19.211 -0.0939 -0.4058 -0.1421
 3805G1HHO Tail44818  19.703  18.625  19.533 -0.0285 -0.0318  0.1122
 3805G1HHO Tail44819  18.699  18.394  18.911  0.1900  0.0040  0.2641
 3805G1HHO Tail44820  18.560  18.122  19.013 -0.0436  0.1432 -0.2324
 3805G1HHO Tail44821  18.389  17.737  18.894  0.0889  0.1080  0.3256
 3806G1HHO Head44822  18.719  19.588  25.557 -0.1948  0.2342  0.0802
 3806G1HHO Head44823  19.005  19.713  25.639  0.1075 -0.0782  0.2558
 3806G1HHO Head44824  19.401  20.019  25.710 -0.1864  0.0850  0.3026
 3806G1HHO Head44825  19.423  19.743  25.597 -0.1610  0.1599 -0.3928
 3806G1HHO link44826  19.224  19.592  25.557  0.1650  0.4215  0.0270
 3806G1HHO link44827  19.216  19.329  25.434  0.0040  0.0310  0.2206
 3806G1HHO Tail44828  18.937  19.204  25.324  0.3397 -0.0594 -0.0534
 3806G1HHO Tail44829  19.041  18.969  25.097  0.2692  0.1713 -0.2786
 3806G1HHO Tail44830  19.160  18.981  24.788 -0.2407  0.1814  0.2715
 3806G1HHO Tail44831  19.304  19.224  24.465  0.0412  0.0540  0.2563
 3806G1HHO Tail44832  18.856  18.995  25.589 -0.2421  0.2402 -0.1269
 3806G1HHO Tail44833  18.701  18.722  25.636  0.1734  0.4295 -0.2556
 3806G1HHO Tail44834  18.293  18.549  25.615 -0.0957  0.0703 -0.2533
 3807G1HHO Head44835  18.240  14.118  24.357 -0.0105  0.2513 -0.3246
 3807G1HHO Head44836  18.351  14.016  24.097  0.1992 -0.5965  0.2284
 3807G1HHO Head44837  18.496  13.583  24.374 -0.1408  0.0298  0.1934
 3807G1HHO Head44838  18.664  13.812  24.281 -0.4118 -0.1070  0.2951
 3807G1HHO link44839  18.609  13.939  24.062  0.0974 -0.1020 -0.3501
 3807G1HHO link44840  18.802  14.107  23.933 -0.0913  0.0409 -0.0105
 3807G1HHO Tail44841  18.721  14.356  23.739  0.2249 -0.5382 -0.2697
 3807G1HHO Tail44842  18.371  14.394  23.796 -0.1550  0.0570  0.0793
 3807G1HHO Tail44843  18.175  14.601  23.931 -0.0975 -0.3816 -0.1265
 3807G1HHO Tail44844  17.944  14.948  23.821  0.1859 -0.0308 -0.1056
 3807G1HHO Tail44845  18.856  14.642  23.881 -0.0978 -0.4188 -0.1362
 3807G1HHO Tail44846  18.850  14.960  23.803 -0.2617  0.0342  0.1903
 3807G1HHO Tail44847  18.605  15.316  23.890  0.0475  0.0193  0.0720
 3808G1HHO Head44848  18.646  16.245  25.068 -0.1838  0.5248  0.2654
 3808G1HHO Head44849  18.526  16.417  24.850 -0.1362 -0.0899 -0.8376
 3808G1HHO Head44850  17.943  16.685  24.801 -0.3848  0.0604 -0.0836
 3808G1HHO Head44851  18.190  16.615  24.989  0.3576 -0.2829  0.1217
 3808G1HHO link44852  18.434  16.647  24.907  0.2198 -0.0397 -0.3718
 3808G1HHO link44853  18.527  16.877  24.764  0.2233  0.1243  0.1493
 3808G1HHO Tail44854  18.438  16.983  24.461  0.3579 -0.2977 -0.4857
 3808G1HHO Tail44855  18.082  17.055  24.503  0.2685  0.0834 -0.2508
 3808G1HHO Tail44856  17.849  17.197  24.339  0.2000 -0.0984  0.4183
 3808G1HHO Tail44857  17.687  17.116  23.943 -0.3802  0.2756  0.0232
 3808G1HHO Tail44858  18.576  17.307  24.433  0.4061 -0.2942  0.0566
 3808G1HHO Tail44859  18.520  17.550  24.636 -0.1592  0.3007  0.3312
 3808G1HHO Tail44860  18.355  17.965  24.633 -0.1854 -0.3177 -0.1448
 3809G1HHO Head44861  17.656  14.143  19.098  0.2243  0.2929 -0.1859
 3809G1HHO Head44862  17.461  14.243  19.324 -0.3010  0.2167  0.3202
 3809G1HHO Head44863  17.353  13.722  19.301 -0.0688 -0.0740 -0.1072
 3809G1HHO Head44864  17.213  13.934  19.209  0.0504 -0.1180  0.1553
 3809G1HHO link44865  17.216  14.166  19.324 -0.2011 -0.1686 -0.3592
 3809G1HHO link44866  17.028  14.252  19.537 -0.3210  0.5020  0.2740
 3809G1HHO Tail44867  16.819  14.494  19.487  0.0061  0.2967 -0.0821
 3809G1HHO Tail44868  16.715  14.434  19.165 -0.3958 -0.1464  0.3123
 3809G1HHO Tail44869  16.725  14.587  18.886 -0.1817  0.0152  0.4219
 3809G1HHO Tail44870  16.627  14.973  18.738  0.1937 -0.1060 -0.1638
 3809G1HHO Tail44871  16.554  14.346  19.651  0.0574 -0.1000  0.1584
 3809G1HHO Tail44872  16.242  14.371  19.678 -0.3297  0.3454 -0.0696
 3809G1HHO Tail44873  15.868  14.238  19.475 -0.2370 -0.2444  0.4153
 3810G1HHO Head44874  19.610  20.936  22.392  0.1537  0.1130  0.1186
 3810G1HHO Head44875  19.473  20.647  22.479 -0.0057  0.2021 -0.0089
 3810G1HHO Head44876  19.272  20.477  21.824  0.1629 -0.1422 -0.3683
 3810G1HHO Head44877  19.432  20.582  22.085  0.0416 -0.4420  0.1675
 3810G1HHO link44878  19.393  20.492  22.315 -0.1112  0.0805 -0.1310
 3810G1HHO link44879  19.247  20.257  22.362 -0.0084  0.3616  0.0535
 3810G1HHO Tail44880  19.309  20.060  22.619 -0.1129  0.0563  0.4732
 3810G1HHO Tail44881  19.000  20.093  22.787  0.0132  0.4261 -0.2851
 3810G1HHO Tail44882  18.761  20.320  22.762  0.0411 -0.2639 -0.0039
 3810G1HHO Tail44883  18.343  20.355  22.640 -0.2114  0.0769  0.0569
 3810G1HHO Tail44884  19.255  19.748  22.457  0.1935 -0.1987  0.1447
 3810G1HHO Tail44885  19.158  19.658  22.153  0.0358 -0.1791 -0.5786
 3810G1HHO Tail44886  19.269  19.497  21.766 -0.1570  0.1270  0.0220
 3811G1HHO Head44887  18.861  16.367  17.611  0.4690 -0.0024  0.0719
 3811G1HHO Head44888  18.670  16.585  17.772 -0.1318  0.0716 -0.7567
 3811G1HHO Head44889  18.318  17.078  17.853 -0.3977  0.1686  0.3543
 3811G1HHO Head44890  18.534  16.981  17.672  0.2589 -0.1526 -0.1128
 3811G1HHO link44891  18.728  16.853  17.742 -0.1585  0.0530 -0.2325
 3811G1HHO link44892  18.966  16.966  17.853 -0.2523 -0.0794 -0.0990
 3811G1HHO Tail44893  18.957  17.101  18.157 -0.3355  0.0542 -0.2412
 3811G1HHO Tail44894  18.685  17.318  18.137 -0.0810 -0.0399 -0.0909
 3811G1HHO Tail44895  18.636  17.601  18.254  0.1338  0.2066 -0.3115
 3811G1HHO Tail44896  18.332  17.910  18.279 -0.0016 -0.2737  0.1439
 3811G1HHO Tail44897  18.814  16.821  18.347 -0.1573 -0.0600  0.4861
 3811G1HHO Tail44898  18.536  16.801  18.509  0.1535  0.0453  0.0519
 3811G1HHO Tail44899  18.241  17.029  18.731 -0.2147 -0.2315 -0.0161
 3812G1HHO Head44900  13.728  19.354  19.983 -0.2595  0.5972  0.3290
 3812G1HHO Head44901  14.022  19.261  19.958  0.2323  0.0489 -0.1398
 3812G1HHO Head44902  14.461  19.244  19.800 -0.0604 -0.0121 -0.0944
 3812G1HHO Head44903  14.334  18.979  19.894  0.0996 -0.0192  0.0321
 3812G1HHO link44904  14.079  19.011  19.946 -0.2328 -0.1868  0.4284
 3812G1HHO link44905  13.903  18.783  19.959 -0.2899 -0.1257 -0.2431
 3812G1HHO Tail44906  13.953  18.492  19.802 -0.0406 -0.1419  0.0834
 3812G1HHO Tail44907  13.775  18.538  19.514  0.0014  0.0639  0.1176
 3812G1HHO Tail44908  13.876  18.559  19.215  0.0361  0.1624 -0.2259
 3812G1HHO Tail44909  14.270  18.526  19.030  0.1408  0.1852 -0.1798
 3812G1HHO Tail44910  14.278  18.565  19.712  0.0832 -0.0939 -0.1281
 3812G1HHO Tail44911  14.461  18.520  19.473  0.1996  0.3062  0.5384
 3812G1HHO Tail44912  14.640  18.191  19.259  0.2890 -0.0273 -0.1607
 3813G1HHO Head44913  20.934  15.146  22.762 -0.0294  0.3640 -0.4296
 3813G1HHO Head44914  20.869  15.440  22.657  0.5145  0.2796  0.4516
 3813G1HHO Head44915  20.786  15.736  23.304  0.0547  0.3171 -0.4819
 3813G1HHO Head44916  20.854  15.546  23.065 -0.3546  0.1578  0.0562
 3813G1HHO link44917  20.822  15.634  22.833 -0.1277  0.0751 -0.0663
 3813G1HHO link44918  20.654  15.862  22.773 -0.1848  0.2101 -0.0983
 3813G1HHO Tail44919  20.316  15.845  22.779  0.0977  0.1746 -0.1245
 3813G1HHO Tail44920  20.303  15.942  23.122  0.0373  0.0216  0.1434
 3813G1HHO Tail44921  20.098  15.873  23.347 -0.4655  0.1488 -0.1063
 3813G1HHO Tail44922  19.717  15.966  23.493  0.2470 -0.1827  0.1483
 3813G1HHO Tail44923  20.231  16.102  22.595 -0.0036 -0.1114  0.1738
 3813G1HHO Tail44924  20.063  16.393  22.623  0.2748  0.2582  0.0323
 3813G1HHO Tail44925  19.635  16.508  22.665 -0.2341 -0.1945 -0.2095
 3814G1HHO Head44926  15.548  21.459  20.663  0.0991 -0.0973 -0.3715
 3814G1HHO Head44927  15.442  21.174  20.711  0.0573  0.0006  0.1541
 3814G1HHO Head44928  14.907  21.391  20.331 -0.3084 -0.1979  0.2875
 3814G1HHO Head44929  15.207  21.318  20.405  0.0265 -0.6030 -0.1419
 3814G1HHO link44930  15.242  21.098  20.534  0.0362  0.1964 -0.4325
 3814G1HHO link44931  15.250  20.857  20.397 -0.0309 -0.1938  0.0118
 3814G1HHO Tail44932  15.528  20.678  20.385  0.2493  0.1384  0.0577
 3814G1HHO Tail44933  15.541  20.639  20.042 -0.1482 -0.0075  0.5126
 3814G1HHO Tail44934  15.743  20.570  19.809 -0.0664 -0.0415 -0.1540
 3814G1HHO Tail44935  16.154  20.414  19.769  0.1334  0.0190  0.1738
 3814G1HHO Tail44936  15.380  20.372  20.463  0.4019 -0.2683  0.1109
 3814G1HHO Tail44937  15.467  20.057  20.420 -0.2918 -0.2040 -0.0553
 3814G1HHO Tail44938  15.770  19.828  20.238 -0.3346  0.1417  0.5241
 3815G1HHO Head44939  18.793  16.776  22.085  0.0976 -0.0177  0.0767
 3815G1HHO Head44940  18.663  16.914  22.301 -0.0875  0.3425  0.3271
 3815G1HHO Head44941  18.202  17.052  22.468  0.0631  0.2602 -0.1082
 3815G1HHO Head44942  18.404  16.858  22.612 -0.0090 -0.1210 -0.3677
 3815G1HHO link44943  18.649  16.797  22.542 -0.4049 -0.3337  0.1645
 3815G1HHO link44944  18.864  16.767  22.723  0.1238  0.0020 -0.0075
 3815G1HHO Tail44945  18.816  16.650  23.039 -0.0880 -0.2768 -0.0241
 3815G1HHO Tail44946  19.118  16.724  23.184 -0.2061  0.4316 -0.1505
 3815G1HHO Tail44947  19.225  16.909  23.429 -0.3198  0.1081 -0.4496
 3815G1HHO Tail44948  19.232  16.924  23.865  0.1961 -0.1726 -0.0554
 3815G1HHO Tail44949  18.661  16.940  23.172 -0.0501 -0.0139 -0.2370
 3815G1HHO Tail44950  18.785  17.205  23.281  0.3723  0.3579  0.3605
 3815G1HHO Tail44951  19.002  17.300  23.648 -0.0215 -0.0401  0.0946
 3816G1HHO Head44952  19.364  16.711  17.716 -0.0493 -0.1638 -0.3018
 3816G1HHO Head44953  19.333  16.412  17.775 -0.5509 -0.0818  0.4821
 3816G1HHO Head44954  19.748  16.632  18.262  0.3165 -0.0478  0.1605
 3816G1HHO Head44955  19.710  16.424  17.995 -0.1342  0.2823 -0.0534
 3816G1HHO link44956  19.480  16.295  17.962  0.0353 -0.3515 -0.1871
 3816G1HHO link44957  19.364  16.134  18.164  0.0333  0.0814  0.0545
 3816G1HHO Tail44958  19.375  16.156  18.487  0.1140  0.1611  0.1303
 3816G1HHO Tail44959  19.293  16.501  18.529 -0.2016  0.0396 -0.0437
 3816G1HHO Tail44960  19.180  16.656  18.780 -0.0336  0.5729  0.2822
 3816G1HHO Tail44961  18.997  16.586  19.177  0.0261  0.1919 -0.3176
 3816G1HHO Tail44962  19.069  16.002  18.553  0.4051 -0.0193  0.1925
 3816G1HHO Tail44963  18.924  15.760  18.420  0.1483 -0.3196  0.3869
 3816G1HHO Tail44964  18.553  15.687  18.212  0.0108 -0.0075 -0.2628
 3817G1HHO Head44965  21.401  18.730  20.220  0.0618 -0.0470  0.1320
 3817G1HHO Head44966  21.098  18.731  20.237 -0.4095 -0.0060  0.1873
 3817G1HHO Head44967  21.192  19.218  20.392 -0.2357  0.1569 -0.0649
 3817G1HHO Head44968  21.004  19.152  20.183  0.1024  0.3033  0.3668
 3817G1HHO link44969  20.956  18.893  20.110  0.2396 -0.2545  0.2753
 3817G1HHO link44970  20.704  18.811  19.993  0.3914  0.1979 -0.1763
 3817G1HHO Tail44971  20.470  19.039  19.963  0.1592  0.2938  0.1945
 3817G1HHO Tail44972  20.227  18.827  20.094  0.1591  0.1565 -0.2473
 3817G1HHO Tail44973  19.907  18.778  20.042  0.4163  0.1620 -0.0829
 3817G1HHO Tail44974  19.591  18.462  20.055 -0.1056 -0.0072 -0.2345
 3817G1HHO Tail44975  20.549  19.273  20.216  0.0973  0.0057 -0.3777
 3817G1HHO Tail44976  20.423  19.535  20.353  0.0784  0.2431  0.0626
 3817G1HHO Tail44977  20.451  19.969  20.357 -0.1368  0.1276 -0.1997
 3818G1HHO Head44978  17.984  19.754  18.336  0.0322  0.3290 -0.2433
 3818G1HHO Head44979  17.837  19.521  18.487  0.0733 -0.2075  0.0423
 3818G1HHO Head44980  18.073  18.941  18.267  0.0501  0.1205  0.0700
 3818G1HHO Head44981  17.891  19.138  18.429  0.0402 -0.0954  0.1608
 3818G1HHO link44982  17.731  19.338  18.331 -0.1341 -0.5070  0.1156
 3818G1HHO link44983  17.456  19.300  18.285 -0.4053  0.0362  0.1974
 3818G1HHO Tail44984  17.246  19.429  18.500  0.0508 -0.0647  0.1483
 3818G1HHO Tail44985  16.994  19.260  18.342  0.0776  0.3039  0.1483
 3818G1HHO Tail44986  16.747  19.076  18.440  0.0974  0.0505  0.0016
 3818G1HHO Tail44987  16.397  19.068  18.707  0.4621 -0.2857  0.3035
 3818G1HHO Tail44988  17.310  19.216  18.740 -0.2563  0.0398  0.1350
 3818G1HHO Tail44989  17.282  19.207  19.064  0.0362  0.2010 -0.0372
 3818G1HHO Tail44990  16.994  19.122  19.364 -0.1636 -0.0123  0.4021
 3819G1HHO Head44991  17.287  20.912  23.480 -0.1306 -0.0938 -0.0522
 3819G1HHO Head44992  17.078  21.031  23.654  0.3584  0.2083 -0.0919
 3819G1HHO Head44993  17.050  21.415  24.092 -0.2162 -0.1404 -0.0429
 3819G1HHO Head44994  17.157  21.400  23.811 -0.0760 -0.0837 -0.3503
 3819G1HHO link44995  17.041  21.278  23.611  0.0325 -0.1281 -0.3644
 3819G1HHO link44996  16.930  21.404  23.381  0.0401  0.2402  0.1229
 3819G1HHO Tail44997  16.878  21.204  23.137  0.3169  0.1884  0.1614
 3819G1HHO Tail44998  17.220  21.117  23.080  0.0929 -0.0610  0.1345
 3819G1HHO Tail44999  17.482  21.270  22.962  0.0005 -0.0494 -0.1105
 3819G1HHO Tail45000  17.704  21.376  22.595 -0.1410 -0.0336  0.1441
 3819G1HHO Tail45001  16.762  20.930  23.326 -0.2919 -0.0822  0.0478
 3819G1HHO Tail45002  16.548  20.881  23.550  0.2303 -0.0309 -0.0122
 3819G1HHO Tail45003  16.275  20.562  23.661 -0.1266 -0.0083  0.2171
 3820G1HHO Head45004  13.481  15.399  19.904  0.2529 -0.4112  0.3895
 3820G1HHO Head45005  13.726  15.342  19.751  0.0235 -0.0091  0.2728
 3820G1HHO Head45006  13.939  15.137  19.311  0.3905  0.1255  0.0596
 3820G1HHO Head45007  14.011  15.406  19.463 -0.4327 -0.2772 -0.2259
 3820G1HHO link45008  13.834  15.523  19.585 -0.1132 -0.2171 -0.0985
 3820G1HHO link45009  13.791  15.811  19.605  0.0496 -0.1734 -0.3353
 3820G1HHO Tail45010  14.029  16.010  19.732  0.0763 -0.0800 -0.1755
 3820G1HHO Tail45011  14.292  15.802  19.671 -0.0752  0.1817  0.0388
 3820G1HHO Tail45012  14.488  15.720  19.443 -0.1841  0.0388 -0.2315
 3820G1HHO Tail45013  14.905  15.756  19.277  0.2098 -0.3640 -0.2773
 3820G1HHO Tail45014  14.065  16.256  19.484 -0.0628 -0.1126 -0.2721
 3820G1HHO Tail45015  14.288  16.452  19.353 -0.2509  0.3158 -0.0501
 3820G1HHO Tail45016  14.503  16.793  19.475 -0.0723  0.3316  0.1062
 3821G1HHO Head45017  19.927  20.333  23.410  0.0422 -0.1876  0.0566
 3821G1HHO Head45018  20.213  20.264  23.528 -0.0304  0.2371 -0.0346
 3821G1HHO Head45019  20.770  20.001  23.513  0.1283 -0.0492 -0.0456
 3821G1HHO Head45020  20.488  19.940  23.624 -0.3051  0.0332 -0.3062
 3821G1HHO link45021  20.279  20.005  23.481  0.0206 -0.2551  0.1526
 3821G1HHO link45022  20.129  19.812  23.320  0.1626 -0.1597 -0.1307
 3821G1HHO Tail45023  20.221  19.509  23.238  0.0649 -0.0204 -0.1635
 3821G1HHO Tail45024  19.963  19.349  23.399 -0.0931 -0.1212 -0.3808
 3821G1HHO Tail45025  19.904  19.381  23.713 -0.2207  0.1317 -0.1949
 3821G1HHO Tail45026  19.663  19.216  24.036  0.3356  0.1781 -0.3830
 3821G1HHO Tail45027  20.117  19.479  22.911 -0.1908  0.0186 -0.1821
 3821G1HHO Tail45028  20.292  19.478  22.613  0.0668 -0.4455 -0.1219
 3821G1HHO Tail45029  20.303  19.465  22.182  0.4308 -0.1259  0.2117
 3822G1HHO Head45030  15.214  13.517  22.497  0.1540  0.0534 -0.0232
 3822G1HHO Head45031  15.116  13.741  22.290 -0.2889  0.2878 -0.0740
 3822G1HHO Head45032  14.984  13.298  21.761 -0.1841 -0.1711 -0.3609
 3822G1HHO Head45033  14.991  13.441  22.032 -0.0234 -0.4005  0.3928
 3822G1HHO link45034  15.124  13.672  22.049  0.2007 -0.2170 -0.1093
 3822G1HHO link45035  15.212  13.829  21.820  0.0675  0.3774  0.2005
 3822G1HHO Tail45036  15.349  13.689  21.561 -0.3813 -0.0344 -0.3399
 3822G1HHO Tail45037  15.392  13.941  21.325 -0.1981 -0.1331  0.0148
 3822G1HHO Tail45038  15.262  14.242  21.328  0.0086 -0.2037 -0.0082
 3822G1HHO Tail45039  15.049  14.516  21.079  0.1720 -0.0343 -0.1292
 3822G1HHO Tail45040  15.674  13.642  21.676 -0.2597 -0.1303  0.1792
 3822G1HHO Tail45041  15.900  13.849  21.784  0.3741 -0.1543 -0.1623
 3822G1HHO Tail45042  16.333  13.867  21.876 -0.1033  0.0724  0.0791
 3823G1HHO Head45043  14.880  20.590  19.655 -0.2892 -0.0064  0.3049
 3823G1HHO Head45044  15.193  20.436  19.666 -0.7899 -0.0698  0.1414
 3823G1HHO Head45045  15.008  20.703  19.187  0.1980  0.0024 -0.1507
 3823G1HHO Head45046  15.315  20.543  19.266  0.1530  0.0456 -0.2081
 3823G1HHO link45047  15.338  20.366  19.454 -0.0079 -0.1106 -0.0103
 3823G1HHO link45048  15.483  20.126  19.427 -0.1118  0.0408  0.1958
 3823G1HHO Tail45049  15.786  20.098  19.298  0.0349  0.2154 -0.2282
 3823G1HHO Tail45050  15.892  20.422  19.324 -0.3068  0.1944  0.1097
 3823G1HHO Tail45051  16.193  20.529  19.308 -0.0455 -0.2640 -0.4364
 3823G1HHO Tail45052  16.530  20.671  19.534  0.2332  0.1190  0.1791
 3823G1HHO Tail45053  15.923  19.999  19.585 -0.2165 -0.0717 -0.0403
 3823G1HHO Tail45054  16.213  19.945  19.689 -0.0193  0.2827  0.0142
 3823G1HHO Tail45055  16.470  19.601  19.743 -0.4222  0.4021 -0.0948
 3824G1HHO Head45056  17.861  13.277  23.555  0.1857 -0.0469 -0.1338
 3824G1HHO Head45057  17.933  13.570  23.441  0.0772 -0.1175 -0.1245
 3824G1HHO Head45058  18.295  13.475  23.198  0.3887  0.0940 -0.1884
 3824G1HHO Head45059  18.018  13.486  23.078 -0.0678 -0.3771  0.2140
 3824G1HHO link45060  17.857  13.646  23.203  0.7991  0.3875 -0.0115
 3824G1HHO link45061  17.835  13.924  23.129 -0.1838  0.4272 -0.0528
 3824G1HHO Tail45062  17.826  14.022  22.825  0.0032  0.0865  0.1957
 3824G1HHO Tail45063  18.007  14.305  22.837 -0.1456 -0.2681  0.0177
 3824G1HHO Tail45064  18.112  14.543  22.641  0.0341  0.6905 -0.1041
 3824G1HHO Tail45065  18.011  14.780  22.294  0.1355 -0.0798 -0.0598
 3824G1HHO Tail45066  18.063  13.800  22.683 -0.1122  0.1447  0.2802
 3824G1HHO Tail45067  18.369  13.706  22.693  0.0031  0.0956 -0.0098
 3824G1HHO Tail45068  18.757  13.891  22.773 -0.0396  0.0652 -0.1129
 3825G1HHO Head45069  20.621  18.347  19.644 -0.0206  0.2930  0.2297
 3825G1HHO Head45070  20.443  18.330  19.375  0.5095  0.3408  0.2070
 3825G1HHO Head45071  20.373  18.225  18.905 -0.5170 -0.0868 -0.0611
 3825G1HHO Head45072  20.160  18.136  19.126 -0.3296 -0.2117 -0.0367
 3825G1HHO link45073  20.234  18.163  19.377 -0.2235  0.4869  0.2442
 3825G1HHO link45074  20.031  18.177  19.572 -0.3311 -0.0665  0.0577
 3825G1HHO Tail45075  19.865  17.902  19.661 -0.0072 -0.4527 -0.0499
 3825G1HHO Tail45076  19.832  17.993  20.001  0.0764 -0.0871 -0.1269
 3825G1HHO Tail45077  20.023  17.918  20.281  0.0454 -0.0802  0.1406
 3825G1HHO Tail45078  20.257  18.134  20.587 -0.0741 -0.1820  0.3862
 3825G1HHO Tail45079  19.558  18.050  19.534 -0.1803 -0.2032  0.1483
 3825G1HHO Tail45080  19.376  17.979  19.272 -0.3824  0.1680 -0.3872
 3825G1HHO Tail45081  18.974  18.005  19.086 -0.3590  0.0221  0.1911
 3826G1HHO Head45082  13.946  16.359  22.918  0.0843 -0.0895 -0.2299
 3826G1HHO Head45083  13.748  16.552  23.019  0.3640 -0.1677  0.1206
 3826G1HHO Head45084  14.255  16.987  23.353  0.0918  0.6174  0.2779
 3826G1HHO Head45085  13.994  16.771  23.305 -0.0929 -0.4028  0.0489
 3826G1HHO link45086  13.822  16.812  23.106  0.3447 -0.3018  0.2732
 3826G1HHO link45087  13.825  17.063  22.950 -0.1067  0.3667  0.0908
 3826G1HHO Tail45088  14.108  17.174  22.812  0.2906 -0.0287 -0.2078
 3826G1HHO Tail45089  14.180  16.871  22.655  0.2089  0.2715 -0.0543
 3826G1HHO Tail45090  14.290  16.583  22.731  0.3616  0.3397  0.4463
 3826G1HHO Tail45091  14.574  16.357  22.950 -0.1523 -0.0644  0.2128
 3826G1HHO Tail45092  13.989  17.360  22.560 -0.1350  0.2058  0.1004
 3826G1HHO Tail45093  13.967  17.354  22.236  0.4476  0.1854 -0.0870
 3826G1HHO Tail45094  14.006  17.052  21.903  0.2908 -0.0949 -0.0534
 3827G1HHO Head45095  19.910  15.976  25.221 -0.1750 -0.2840  0.1659
 3827G1HHO Head45096  19.611  15.885  25.087 -0.0937  0.0078 -0.3735
 3827G1HHO Head45097  19.242  15.454  24.909  0.0321  0.2880 -0.0509
 3827G1HHO Head45098  19.311  15.728  24.804 -0.1106 -0.0961 -0.3493
 3827G1HHO link45099  19.572  15.809  24.846 -0.1450 -0.1246 -0.6236
 3827G1HHO link45100  19.790  15.772  24.668 -0.1583  0.2845 -0.0971
 3827G1HHO Tail45101  19.813  15.957  24.418  0.0380  0.3051  0.0987
 3827G1HHO Tail45102  20.045  15.806  24.204 -0.0610 -0.0494 -0.2654
 3827G1HHO Tail45103  20.128  15.872  23.899  0.0443 -0.2490  0.1769
 3827G1HHO Tail45104  20.422  16.105  23.659  0.3792  0.0395 -0.1006
 3827G1HHO Tail45105  19.509  15.868  24.276  0.0325  0.0310 -0.1427
 3827G1HHO Tail45106  19.401  15.619  24.131  0.0451 -0.1656 -0.2791
 3827G1HHO Tail45107  19.071  15.481  23.857  0.1454 -0.0627  0.1711
 3828G1HHO Head45108  15.494  18.733  25.265  0.0113 -0.0087  0.3194
 3828G1HHO Head45109  15.399  18.635  25.002 -0.4889  0.1831  0.2832
 3828G1HHO Head45110  15.446  17.913  25.081  0.0196 -0.1493  0.1880
 3828G1HHO Head45111  15.521  18.240  25.125 -0.0003  0.0477  0.1349
 3828G1HHO link45112  15.501  18.402  24.903 -0.0881  0.2200  0.4438
 3828G1HHO link45113  15.464  18.346  24.617  0.1248  0.2793 -0.2991
 3828G1HHO Tail45114  15.495  18.051  24.465  0.0388 -0.3091 -0.0747
 3828G1HHO Tail45115  15.770  17.931  24.644  0.1998 -0.1608  0.0643
 3828G1HHO Tail45116  16.060  18.024  24.629  0.0845 -0.1222 -0.1471
 3828G1HHO Tail45117  16.303  18.347  24.451 -0.2719  0.2057  0.0195
 3828G1HHO Tail45118  15.231  17.913  24.634  0.1303  0.0279 -0.2224
 3828G1HHO Tail45119  15.156  17.605  24.654  0.1778 -0.0248 -0.0722
 3828G1HHO Tail45120  14.837  17.325  24.773  0.2413  0.1118 -0.2382
 3829G1HHO Head45121  18.136  16.797  21.734 -0.3442  0.0432  0.1787
 3829G1HHO Head45122  18.161  16.581  21.470  0.1661  0.0928 -0.1187
 3829G1HHO Head45123  18.649  16.297  21.146  0.0028 -0.1918 -0.0064
 3829G1HHO Head45124  18.534  16.487  21.343  0.1779 -0.0494 -0.0550
 3829G1HHO link45125  18.329  16.404  21.455  0.0272  0.7651  0.1873
 3829G1HHO link45126  18.269  16.130  21.484  0.0314  0.3188 -0.2370
 3829G1HHO Tail45127  18.478  15.890  21.405 -0.1830  0.1824  0.1849
 3829G1HHO Tail45128  18.774  16.024  21.549 -0.1341 -0.1825 -0.1091
 3829G1HHO Tail45129  19.058  15.886  21.593  0.3720  0.4400 -0.0586
 3829G1HHO Tail45130  19.272  15.536  21.508  0.1382 -0.1522 -0.1002
 3829G1HHO Tail45131  18.387  15.641  21.629  0.2647 -0.0802 -0.1174
 3829G1HHO Tail45132  18.449  15.613  21.935  0.0625 -0.1621  0.1970
 3829G1HHO Tail45133  18.675  15.347  22.191  0.0604 -0.0727 -0.1987
 3830G1HHO Head45134  18.952  20.105  23.782 -0.5866  0.2021 -0.0384
 3830G1HHO Head45135  19.009  19.819  23.882 -0.2025  0.2668 -0.3330
 3830G1HHO Head45136  19.033  19.227  24.046  0.0720  0.1065  0.1233
 3830G1HHO Head45137  19.144  19.411  23.816 -0.4846  0.0906 -0.4416
 3830G1HHO link45138  18.999  19.615  23.722  0.8705  0.1881  0.0597
 3830G1HHO link45139  18.933  19.617  23.446  0.1962 -0.2015 -0.2242
 3830G1HHO Tail45140  18.747  19.381  23.322  0.1108 -0.2924 -0.3129
 3830G1HHO Tail45141  18.668  19.238  23.634 -0.0040  0.2307 -0.0136
 3830G1HHO Tail45142  18.461  19.036  23.751 -0.1218 -0.1134 -0.1375
 3830G1HHO Tail45143  18.244  18.687  23.610 -0.2196  0.0014  0.3786
 3830G1HHO Tail45144  18.451  19.550  23.231  0.0401  0.0718 -0.1006
 3830G1HHO Tail45145  18.207  19.521  23.022 -0.0555  0.2516  0.4024
 3830G1HHO Tail45146  18.121  19.325  22.639  0.0711  0.3806  0.2790
 3831G1HHO Head45147  17.064  16.995  26.421  0.2989 -0.0639 -0.0037
 3831G1HHO Head45148  17.161  17.114  26.139 -0.2412  0.2520  0.1334
 3831G1HHO Head45149  17.317  16.612  26.378 -0.2087 -0.3394  0.2304
 3831G1HHO Head45150  17.475  16.884  26.253  0.1233  0.0893 -0.2907
 3831G1HHO link45151  17.383  17.009  26.041 -0.3806 -0.4039  0.0753
 3831G1HHO link45152  17.390  16.893  25.778 -0.0759  0.0886  0.0785
 3831G1HHO Tail45153  17.360  17.063  25.492 -0.0948 -0.4292 -0.1012
 3831G1HHO Tail45154  17.549  16.845  25.321 -0.2258  0.0874 -0.0154
 3831G1HHO Tail45155  17.842  16.845  25.181  0.1526  0.0245 -0.0316
 3831G1HHO Tail45156  18.145  17.102  24.987  0.0625  0.1326 -0.0986
 3831G1HHO Tail45157  17.037  16.999  25.384  0.1281 -0.1184  0.1253
 3831G1HHO Tail45158  16.816  16.805  25.496 -0.2470  0.5823 -0.0878
 3831G1HHO Tail45159  16.492  16.564  25.331 -0.4997 -0.2746 -0.0620
 3832G1HHO Head45160  19.226  18.408  26.210  0.1185 -0.2948  0.1212
 3832G1HHO Head45161  19.206  18.664  26.016  0.1742  0.1916  0.1397
 3832G1HHO Head45162  19.487  18.991  26.295  0.1069 -0.1156  0.0845
 3832G1HHO Head45163  19.577  18.819  26.045  0.3357  0.0605  0.1745
 3832G1HHO link45164  19.404  18.743  25.866 -0.1651 -0.2364  0.3186
 3832G1HHO link45165  19.372  18.883  25.620 -0.2981 -0.1015  0.0208
 3832G1HHO Tail45166  19.327  18.745  25.333 -0.0739  0.0039 -0.0780
 3832G1HHO Tail45167  19.651  18.639  25.321 -0.1995  0.1152  0.0465
 3832G1HHO Tail45168  19.744  18.330  25.264  0.1122 -0.2210  0.0540
 3832G1HHO Tail45169  19.714  17.932  25.429  0.3096 -0.0095  0.2843
 3832G1HHO Tail45170  19.220  18.442  25.434  0.1902 -0.1562 -0.1605
 3832G1HHO Tail45171  19.244  18.141  25.356  0.2608 -0.4327  0.2273
 3832G1HHO Tail45172  19.208  17.889  25.014 -0.0258 -0.0732 -0.1506
 3833G1HHO Head45173  18.413  21.468  21.854 -0.0167  0.2375  0.1356
 3833G1HHO Head45174  18.278  21.176  21.931  0.1443  0.5101  0.4165
 3833G1HHO Head45175  18.260  21.282  22.387 -0.2024 -0.2289 -0.3722
 3833G1HHO Head45176  18.053  21.115  22.244 -0.3025 -0.1854 -0.0031
 3833G1HHO link45177  18.030  21.130  21.980 -0.1011 -0.3250 -0.6015
 3833G1HHO link45178  17.836  20.973  21.845  0.2536  0.2654 -0.0449
 3833G1HHO Tail45179  17.503  21.022  21.869 -0.4898  0.0304 -0.0109
 3833G1HHO Tail45180  17.425  20.682  21.887  0.0834 -0.1684  0.0435
 3833G1HHO Tail45181  17.502  20.497  22.134 -0.2601  0.3399 -0.2409
 3833G1HHO Tail45182  17.336  20.149  22.341  0.3185 -0.1635 -0.2841
 3833G1HHO Tail45183  17.497  21.087  22.204 -0.0961  0.0093 -0.1809
 3833G1HHO Tail45184  17.610  20.908  22.454 -0.8645 -0.2600  0.2523
 3833G1HHO Tail45185  18.003  20.875  22.632 -0.3388  0.1969  0.3184
 3834G1HHO Head45186  20.637  17.852  21.990  0.0597  0.0421  0.0202
 3834G1HHO Head45187  20.299  17.828  22.103 -0.1469 -0.3773 -0.2865
 3834G1HHO Head45188  19.644  17.659  22.137 -0.0531 -0.3471  0.6007
 3834G1HHO Head45189  19.940  17.623  22.117  0.1437 -0.1095  0.6560
 3834G1HHO link45190  20.095  17.745  21.933  0.1503 -0.3252 -0.3269
 3834G1HHO link45191  20.091  17.727  21.651 -0.0059  0.2442  0.0436
 3834G1HHO Tail45192  19.906  17.529  21.483  0.2658  0.1058  0.0530
 3834G1HHO Tail45193  19.902  17.700  21.175 -0.0742 -0.2822 -0.0561
 3834G1HHO Tail45194  20.128  17.744  20.933  0.2667  0.3144  0.1322
 3834G1HHO Tail45195  20.539  17.840  20.894  0.2033  0.2948  0.1562
 3834G1HHO Tail45196  20.113  17.248  21.437  0.0936  0.0500  0.3332
 3834G1HHO Tail45197  20.273  17.044  21.635  0.1057  0.2302 -0.0562
 3834G1HHO Tail45198  20.607  16.992  21.899 -0.2782  0.1595 -0.0344
 3835G1HHO Head45199  17.150  19.457  21.190  0.2157  0.2378  0.1127
 3835G1HHO Head45200  16.858  19.341  21.194  0.2985 -0.4221 -0.3079
 3835G1HHO Head45201  17.140  19.325  21.708 -0.1813 -0.0968  0.1095
 3835G1HHO Head45202  16.867  19.470  21.588 -0.2519 -0.2289  0.3245
 3835G1HHO link45203  16.724  19.367  21.417  0.1031  0.3467 -0.0442
 3835G1HHO link45204  16.452  19.437  21.415  0.1424  0.0423  0.3881
 3835G1HHO Tail45205  16.336  19.742  21.385  0.0011  0.4389 -0.2286
 3835G1HHO Tail45206  16.136  19.743  21.669  0.0733  0.0047 -0.0973
 3835G1HHO Tail45207  15.829  19.841  21.758  0.0807  0.0494 -0.1814
 3835G1HHO Tail45208  15.563  20.179  21.815  0.4745  0.0191 -0.0323
 3835G1HHO Tail45209  16.614  19.926  21.505  0.0520  0.3043  0.0551
 3835G1HHO Tail45210  16.809  19.931  21.751  0.2106 -0.2774  0.6204
 3835G1HHO Tail45211  17.130  19.762  21.937  0.0554  0.5162 -0.0622
 3836G1HHO Head45212  21.685  15.674  19.980  0.3291 -0.2146 -0.2566
 3836G1HHO Head45213  21.934  15.669  20.158 -0.3827  0.1019 -0.0759
 3836G1HHO Head45214  22.312  16.001  20.325 -0.0912 -0.1176  0.1205
 3836G1HHO Head45215  22.069  15.914  20.480 -0.1870  0.0561 -0.1928
 3836G1HHO link45216  21.905  15.717  20.405  0.0431  0.1397  0.3403
 3836G1HHO link45217  21.652  15.638  20.532 -0.3681  0.0297  0.1180
 3836G1HHO Tail45218  21.440  15.867  20.662 -0.1176  0.3225  0.4796
 3836G1HHO Tail45219  21.253  15.956  20.375 -0.0276  0.4039 -0.1454
 3836G1HHO Tail45220  21.106  15.800  20.127 -0.0488 -0.3108  0.0970
 3836G1HHO Tail45221  20.863  15.468  20.026  0.0632 -0.0844  0.2753
 3836G1HHO Tail45222  21.203  15.681  20.836 -0.0747  0.1727 -0.2537
 3836G1HHO Tail45223  21.015  15.685  21.086  0.1136 -0.0355  0.2523
 3836G1HHO Tail45224  20.592  15.745  21.177 -0.1849 -0.0164  0.2876
 3837G1HHO Head45225  18.177  20.645  24.022 -0.1611  0.0876  0.2648
 3837G1HHO Head45226  17.882  20.757  23.882  0.1795 -0.2465 -0.2171
 3837G1HHO Head45227  18.326  21.060  23.824 -0.0567 -0.0885  0.0811
 3837G1HHO Head45228  18.054  21.115  23.716  0.1157  0.3739 -0.0291
 3837G1HHO link45229  17.913  20.903  23.672 -0.2905  0.1366 -0.0268
 3837G1HHO link45230  17.756  20.885  23.436  0.2200 -0.0234 -0.3855
 3837G1HHO Tail45231  17.674  20.609  23.256  0.0590 -0.1321 -0.6225
 3837G1HHO Tail45232  17.572  20.748  22.950 -0.3210  0.0280  0.1847
 3837G1HHO Tail45233  17.309  20.750  22.764 -0.1028  0.1524  0.0984
 3837G1HHO Tail45234  17.191  20.691  22.352  0.2606  0.2038 -0.1606
 3837G1HHO Tail45235  18.000  20.510  23.157 -0.0448  0.0466 -0.2021
 3837G1HHO Tail45236  18.123  20.244  23.014 -0.0341 -0.1963 -0.2683
 3837G1HHO Tail45237  18.017  19.948  22.723  0.0812  0.3337 -0.0218
 3838G1HHO Head45238  15.601  18.852  20.436  0.0058  0.3430 -0.0169
 3838G1HHO Head45239  15.829  18.986  20.590  0.4374  0.1774  0.0610
 3838G1HHO Head45240  16.043  19.307  21.093 -0.4876 -0.0616 -0.0870
 3838G1HHO Head45241  15.920  19.100  20.986  0.2041 -0.0190 -0.3530
 3838G1HHO link45242  15.756  19.134  20.786  0.3896  0.3877 -0.0218
 3838G1HHO link45243  15.509  19.278  20.788  0.2133  0.1446 -0.1486
 3838G1HHO Tail45244  15.469  19.581  20.946  0.0028 -0.1711 -0.1999
 3838G1HHO Tail45245  15.248  19.737  20.738 -0.5990 -0.1603 -0.1825
 3838G1HHO Tail45246  14.927  19.739  20.690 -0.1856 -0.1130 -0.0816
 3838G1HHO Tail45247  14.613  19.629  20.414  0.4160 -0.0133  0.2350
 3838G1HHO Tail45248  15.245  19.477  21.178 -0.1178 -0.0275 -0.3686
 3838G1HHO Tail45249  14.915  19.431  21.223 -0.0929  0.1534  0.2790
 3838G1HHO Tail45250  14.572  19.701  21.293  0.0881  0.1478  0.1778
 3839G1HHO Head45251  15.091  19.304  18.329 -0.0491 -0.1594 -0.3828
 3839G1HHO Head45252  15.064  19.174  18.054  0.0568  0.3844 -0.4626
 3839G1HHO Head45253  15.055  18.508  17.801  0.2607  0.1797  0.0904
 3839G1HHO Head45254  15.018  18.817  17.832 -0.0731 -0.1001 -0.0137
 3839G1HHO link45255  14.918  18.953  18.027  0.0869 -0.1163 -0.2922
 3839G1HHO link45256  14.764  18.836  18.232 -0.0314  0.1315 -0.0878
 3839G1HHO Tail45257  14.888  18.693  18.509  0.4412 -0.2433 -0.1375
 3839G1HHO Tail45258  15.026  18.412  18.375 -0.1156  0.0985 -0.2296
 3839G1HHO Tail45259  15.290  18.235  18.402  0.2029  0.1261 -0.2816
 3839G1HHO Tail45260  15.674  18.203  18.182 -0.5892  0.0711 -0.1172
 3839G1HHO Tail45261  15.173  18.871  18.591 -0.0488  0.0904  0.2839
 3839G1HHO Tail45262  15.438  18.987  18.467  0.3237  0.1648  0.1979
 3839G1HHO Tail45263  15.829  19.124  18.577 -0.0853 -0.0173  0.0172
 3840G1HHO Head45264  15.939  19.510  17.329  0.0918 -0.1128 -0.3598
 3840G1HHO Head45265  15.745  19.308  17.481 -0.0338 -0.0813 -0.2443
 3840G1HHO Head45266  15.905  18.943  17.100  0.1472  0.0183 -0.0242
 3840G1HHO Head45267  15.778  18.914  17.378  0.4847  0.0156 -0.0037
 3840G1HHO link45268  15.823  19.074  17.563  0.1523  0.2202 -0.1893
 3840G1HHO link45269  15.932  19.005  17.824  0.0477  0.0424 -0.2504
 3840G1HHO Tail45270  16.251  18.918  17.892 -0.0609 -0.6716  0.3991
 3840G1HHO Tail45271  16.309  19.096  18.193 -0.1570  0.0839  0.2788
 3840G1HHO Tail45272  16.302  19.406  18.298  0.0073  0.4862 -0.3450
 3840G1HHO Tail45273  16.561  19.756  18.330 -0.0519  0.1479  0.3451
 3840G1HHO Tail45274  16.245  18.586  18.010 -0.3892 -0.4352  0.1248
 3840G1HHO Tail45275  16.220  18.452  18.291  0.1087 -0.0236  0.0361
 3840G1HHO Tail45276  16.238  18.589  18.709  0.0092 -0.0764  0.0073
 3841G1HHO Head45277  16.594  18.749  25.554 -0.1307 -0.1738 -0.1427
 3841G1HHO Head45278  16.394  18.895  25.416  0.1358  0.4941 -0.2240
 3841G1HHO Head45279  16.565  19.308  25.496  0.1900  0.0879  0.1352
 3841G1HHO Head45280  16.480  19.205  25.204 -0.0903 -0.0585 -0.1508
 3841G1HHO link45281  16.435  18.967  25.171 -0.1951  0.0728 -0.2764
 3841G1HHO link45282  16.540  18.800  24.954  0.3988 -0.5043  0.0213
 3841G1HHO Tail45283  16.612  18.485  25.006 -0.0647  0.1350 -0.0001
 3841G1HHO Tail45284  16.802  18.421  24.715  0.0588  0.4079  0.1076
 3841G1HHO Tail45285  16.801  18.517  24.402  0.3160  0.0344  0.3876
 3841G1HHO Tail45286  16.815  18.873  24.154 -0.4812  0.0073  0.3049
 3841G1HHO Tail45287  16.894  18.520  25.214  0.5443  0.0128 -0.1852
 3841G1HHO Tail45288  17.194  18.389  25.163  0.3344 -0.6887  0.0866
 3841G1HHO Tail45289  17.478  18.075  25.278  0.0557 -0.2287  0.1666
 3842G1HHO Head45290  18.711  20.883  18.977  0.2562  0.0483 -0.0488
 3842G1HHO Head45291  18.674  20.978  19.282 -0.1467 -0.0608  0.0291
 3842G1HHO Head45292  18.223  21.438  19.489 -0.0366  0.3396  0.1697
 3842G1HHO Head45293  18.378  21.265  19.297 -0.2691  0.1978 -0.2530
 3842G1HHO link45294  18.451  21.010  19.362 -0.2028 -0.0032  0.0469
 3842G1HHO link45295  18.360  20.892  19.605 -0.2765 -0.0361  0.4058
 3842G1HHO Tail45296  18.484  20.622  19.733 -0.1138 -0.2163 -0.3454
 3842G1HHO Tail45297  18.214  20.422  19.666  0.1277 -0.3856  0.1301
 3842G1HHO Tail45298  18.037  20.224  19.825  0.0233  0.0648 -0.1748
 3842G1HHO Tail45299  18.089  20.000  20.189  0.0604  0.0107  0.5033
 3842G1HHO Tail45300  18.731  20.524  19.492  0.2039 -0.2492  0.1324
 3842G1HHO Tail45301  19.049  20.491  19.496  0.0120 -0.1048  0.0530
 3842G1HHO Tail45302  19.310  20.150  19.392 -0.1280  0.1989  0.3259
 3843G1HHO Head45303  16.984  13.341  20.596  0.0255 -0.4278 -0.0036
 3843G1HHO Head45304  16.853  13.186  20.351  0.2164  0.0035 -0.2238
 3843G1HHO Head45305  16.450  12.939  19.888  0.0443  0.1095 -0.0759
 3843G1HHO Head45306  16.473  13.100  20.202 -0.0957  0.3870  0.5349
 3843G1HHO link45307  16.640  13.286  20.224 -0.3665  0.0890  0.4604
 3843G1HHO link45308  16.593  13.569  20.170 -0.2538 -0.0571 -0.0143
 3843G1HHO Tail45309  16.849  13.769  20.084  0.1217 -0.2280 -0.1838
 3843G1HHO Tail45310  16.750  14.101  20.099 -0.0306  0.0044  0.0383
 3843G1HHO Tail45311  16.515  14.281  20.156  0.0507  0.0449  0.1150
 3843G1HHO Tail45312  16.076  14.298  20.120 -0.1270  0.0991  0.0140
 3843G1HHO Tail45313  17.042  13.797  20.369 -0.0006  0.0795 -0.0884
 3843G1HHO Tail45314  16.986  13.851  20.679 -0.3434 -0.0948  0.0509
 3843G1HHO Tail45315  17.178  14.045  21.026 -0.1308  0.1387  0.0296
 3844G1HHO Head45316  19.871  13.579  22.677  0.2517 -0.0301  0.1063
 3844G1HHO Head45317  19.702  13.490  22.435 -0.2361  0.2382  0.2471
 3844G1HHO Head45318  19.214  13.341  22.662  0.0613 -0.1924 -0.0012
 3844G1HHO Head45319  19.299  13.452  22.366  0.0844 -0.3290 -0.3243
 3844G1HHO link45320  19.480  13.623  22.385 -0.3590 -0.2370  0.0424
 3844G1HHO link45321  19.447  13.886  22.485 -0.1267  0.1264 -0.0825
 3844G1HHO Tail45322  19.601  14.131  22.328 -0.1853 -0.0058 -0.2579
 3844G1HHO Tail45323  19.444  14.420  22.444 -0.0156 -0.0184 -0.1612
 3844G1HHO Tail45324  19.479  14.638  22.694  0.0910  0.3423  0.1338
 3844G1HHO Tail45325  19.226  14.917  22.926  0.1255 -0.1920 -0.1881
 3844G1HHO Tail45326  19.912  14.150  22.473  0.0601 -0.0036  0.0483
 3844G1HHO Tail45327  20.201  14.249  22.400  0.1117  0.1677  0.3596
 3844G1HHO Tail45328  20.431  14.598  22.386  0.0271 -0.3555 -0.0128
 3845G1HHO Head45329  13.758  16.383  21.858  0.0971 -0.1012 -0.0105
 3845G1HHO Head45330  13.751  16.714  21.806  0.1997  0.0676 -0.7498
 3845G1HHO Head45331  13.257  16.702  21.558  0.0318 -0.0675  0.2300
 3845G1HHO Head45332  13.520  16.895  21.504  0.0372  0.1908 -0.2869
 3845G1HHO link45333  13.773  16.818  21.574  0.5550  0.1315 -0.5019
 3845G1HHO link45334  14.004  16.880  21.447  0.0909  0.0880 -0.0798
 3845G1HHO Tail45335  14.288  16.766  21.546 -0.2637  0.0406  0.0999
 3845G1HHO Tail45336  14.442  17.052  21.697  0.0380  0.1779  0.0865
 3845G1HHO Tail45337  14.363  17.346  21.789 -0.2297  0.2550 -0.0930
 3845G1HHO Tail45338  13.997  17.588  21.785 -0.1590 -0.1475  0.0353
 3845G1HHO Tail45339  14.190  16.620  21.850 -0.0325  0.0573  0.2844
 3845G1HHO Tail45340  14.065  16.688  22.166 -0.1763  0.2555  0.2596
 3845G1HHO Tail45341  13.763  16.936  22.362  0.1380 -0.0276  0.0563
 3846G1HHO Head45342  14.763  20.997  20.747  0.0025  0.1348 -0.0271
 3846G1HHO Head45343  14.779  20.928  20.457  0.0173  0.3649 -0.4437
 3846G1HHO Head45344  14.883  20.984  19.995 -0.1276  0.4018  0.2714
 3846G1HHO Head45345  14.946  20.720  20.155  0.1737  0.1328  0.1723
 3846G1HHO link45346  14.848  20.676  20.396 -0.0397 -0.1074 -0.0669
 3846G1HHO link45347  14.678  20.455  20.462 -0.4387  0.0533 -0.0481
 3846G1HHO Tail45348  14.771  20.148  20.536 -0.3153  0.3518 -0.0009
 3846G1HHO Tail45349  15.010  20.101  20.275 -0.0087 -0.1738 -0.0080
 3846G1HHO Tail45350  15.088  19.847  20.098  0.2214 -0.2591  0.1126
 3846G1HHO Tail45351  14.943  19.464  19.962  0.1498 -0.0388  0.2104
 3846G1HHO Tail45352  14.967  20.180  20.817  0.1555 -0.3437  0.0660
 3846G1HHO Tail45353  15.043  19.965  21.046 -0.0303 -0.1732 -0.0738
 3846G1HHO Tail45354  15.002  19.879  21.468 -0.3342 -0.2632  0.2089
 3847G1HHO Head45355  16.255  13.170  21.853 -0.0032 -0.2586  0.2651
 3847G1HHO Head45356  16.011  13.298  21.673 -0.0712  0.2521  0.0737
 3847G1HHO Head45357  15.688  12.885  21.338 -0.4153  0.0671 -0.2884
 3847G1HHO Head45358  15.977  12.956  21.410  0.0815 -0.3577  0.0939
 3847G1HHO link45359  16.033  13.217  21.411  0.3465 -0.2363 -0.1041
 3847G1HHO link45360  16.015  13.382  21.180 -0.2054  0.2821 -0.1132
 3847G1HHO Tail45361  16.191  13.663  21.163 -0.3535  0.2108 -0.3911
 3847G1HHO Tail45362  15.938  13.901  21.223  0.0909  0.5404  0.4821
 3847G1HHO Tail45363  15.829  14.091  21.444  0.0568  0.1008 -0.3739
 3847G1HHO Tail45364  15.483  14.183  21.706 -0.3141 -0.2226  0.3367
 3847G1HHO Tail45365  16.336  13.645  21.466 -0.2778  0.0298 -0.0821
 3847G1HHO Tail45366  16.566  13.483  21.596 -0.1086 -0.0363  0.0552
 3847G1HHO Tail45367  16.748  13.461  22.000 -0.2451  0.2695  0.2655
 3848G1HHO Head45368  16.153  15.216  21.539 -0.0147  0.1329 -0.2427
 3848G1HHO Head45369  16.329  15.171  21.302  0.2159  0.3685 -0.0895
 3848G1HHO Head45370  16.333  15.730  21.554 -0.0190 -0.2896  0.0952
 3848G1HHO Head45371  16.489  15.565  21.282  0.0045  0.1887 -0.3462
 3848G1HHO link45372  16.349  15.378  21.147 -0.2623 -0.4525 -0.1319
 3848G1HHO link45373  16.410  15.359  20.868  0.4412  0.1851 -0.1661
 3848G1HHO Tail45374  16.370  15.050  20.746  0.1274 -0.1129 -0.2111
 3848G1HHO Tail45375  16.546  14.887  21.017 -0.1969 -0.3004  0.3926
 3848G1HHO Tail45376  16.788  14.966  21.218  0.1980  0.3782 -0.2590
 3848G1HHO Tail45377  17.147  14.772  21.372 -0.2655 -0.2057  0.2613
 3848G1HHO Tail45378  16.057  14.979  20.869 -0.2469  0.1371  0.2828
 3848G1HHO Tail45379  15.927  14.696  20.938  0.2365  0.2359  0.4561
 3848G1HHO Tail45380  15.674  14.498  21.228  0.0170 -0.2242 -0.2597
 3849G1HHO Head45381  14.721  21.773  22.625 -0.1215  0.0574 -0.1688
 3849G1HHO Head45382  14.413  21.712  22.593 -0.1446 -0.2058 -0.0436
 3849G1HHO Head45383  14.138  21.279  22.979  0.2655 -0.1363 -0.1542
 3849G1HHO Head45384  14.145  21.503  22.762 -0.0566  0.2679 -0.1766
 3849G1HHO link45385  14.338  21.474  22.598  0.2120 -0.0001  0.2187
 3849G1HHO link45386  14.519  21.250  22.606  0.3099  0.2485  0.0822
 3849G1HHO Tail45387  14.614  21.129  22.324 -0.1458 -0.0093 -0.5021
 3849G1HHO Tail45388  14.902  20.959  22.448 -0.1394 -0.0697 -0.0558
 3849G1HHO Tail45389  15.205  21.030  22.389  0.0089 -0.3673 -0.1884
 3849G1HHO Tail45390  15.473  21.366  22.452 -0.0720 -0.3150  0.3036
 3849G1HHO Tail45391  14.378  20.877  22.313 -0.2636 -0.0762 -0.0631
 3849G1HHO Tail45392  14.264  20.781  22.054  0.0499 -0.0649  0.6737
 3849G1HHO Tail45393  14.300  20.449  21.782 -0.5497  0.3833  0.0381
 3850G1HHO Head45394  13.605  16.145  19.256 -0.2550  0.2948  0.1674
 3850G1HHO Head45395  13.580  15.867  19.097 -0.4520 -0.0516 -0.2268
 3850G1HHO Head45396  13.453  15.482  19.390 -0.0233 -0.0643 -0.2006
 3850G1HHO Head45397  13.672  15.470  19.188  0.2225 -0.0112  0.2916
 3850G1HHO link45398  13.788  15.694  19.121 -0.3659  0.2934 -0.2669
 3850G1HHO link45399  14.053  15.779  19.191 -0.1212  0.5313 -0.3828
 3850G1HHO Tail45400  14.311  15.820  18.991 -0.4764  0.0787 -0.2736
 3850G1HHO Tail45401  14.508  16.053  19.149  0.0292  0.0651  0.0158
 3850G1HHO Tail45402  14.603  16.158  19.447 -0.2904  0.0754 -0.1477
 3850G1HHO Tail45403  14.813  16.472  19.681  0.1760  0.0889 -0.2867
 3850G1HHO Tail45404  14.474  15.518  19.039 -0.2470 -0.0159  0.4128
 3850G1HHO Tail45405  14.765  15.374  19.006  0.2041  0.0129  0.1170
 3850G1HHO Tail45406  15.059  15.159  19.240 -0.0732 -0.2893  0.1658
 3851G1HHO Head45407  16.017  13.187  20.168  0.0567  0.0775 -0.1133
 3851G1HHO Head45408  15.791  13.395  20.116  0.3723 -0.0059  0.0542
 3851G1HHO Head45409  15.666  12.927  20.401  0.1828 -0.1277 -0.2923
 3851G1HHO Head45410  15.534  13.045  20.144 -0.4790  0.1067  0.1471
 3851G1HHO link45411  15.540  13.313  20.094  0.3262 -0.0293  0.0673
 3851G1HHO link45412  15.309  13.480  20.051 -0.2797  0.3478  0.3788
 3851G1HHO Tail45413  15.254  13.767  20.216  0.1056 -0.1674  0.1466
 3851G1HHO Tail45414  14.972  13.699  20.410  0.3922  0.0871 -0.1432
 3851G1HHO Tail45415  14.794  13.857  20.593  0.1974 -0.2571  0.2703
 3851G1HHO Tail45416  14.764  14.281  20.677 -0.2702 -0.1092  0.2370
 3851G1HHO Tail45417  15.487  13.760  20.480  0.0661 -0.0640  0.0202
 3851G1HHO Tail45418  15.557  13.975  20.697  0.6753 -0.2117 -0.5356
 3851G1HHO Tail45419  15.388  14.371  20.814  0.0612  0.2367  0.1435
 3852G1HHO Head45420  18.291  13.877  23.608  0.0303  0.3377  0.2190
 3852G1HHO Head45421  18.081  14.009  23.485  0.1694 -0.2724 -0.0163
 3852G1HHO Head45422  17.807  14.331  24.086  0.0317  0.3849 -0.0766
 3852G1HHO Head45423  17.840  14.122  23.832 -0.2995 -0.2126 -0.4162
 3852G1HHO link45424  17.960  14.208  23.611  0.1904 -0.3683 -0.1476
 3852G1HHO link45425  17.964  14.483  23.525 -0.0775  0.0752  0.1761
 3852G1HHO Tail45426  18.016  14.570  23.208  0.1432  0.0590 -0.1747
 3852G1HHO Tail45427  18.066  14.915  23.270  0.1151 -0.0947 -0.0638
 3852G1HHO Tail45428  18.330  15.095  23.249 -0.3492  0.0857 -0.2505
 3852G1HHO Tail45429  18.738  15.138  23.401 -0.0072 -0.0299  0.2935
 3852G1HHO Tail45430  18.350  14.477  23.152 -0.0042  0.0551  0.2962
 3852G1HHO Tail45431  18.506  14.381  22.885  0.0025  0.1884  0.2013
 3852G1HHO Tail45432  18.397  14.217  22.490 -0.1290 -0.0246 -0.2383
 3853G1HHO Head45433  13.219  17.541  19.264 -0.1097 -0.2749 -0.0374
 3853G1HHO Head45434  13.481  17.570  19.127  0.4218  0.1459 -0.0491
 3853G1HHO Head45435  13.655  18.042  19.622  0.2116 -0.2107  0.1148
 3853G1HHO Head45436  13.508  17.850  19.440  0.1569  0.0306 -0.2488
 3853G1HHO link45437  13.638  17.733  19.243  0.0620  0.3995 -0.3179
 3853G1HHO link45438  13.916  17.767  19.187 -0.2218 -0.2501 -0.0570
 3853G1HHO Tail45439  14.002  18.076  19.114 -0.1321 -0.0906 -0.0410
 3853G1HHO Tail45440  14.163  18.153  19.407 -0.1987 -0.3897 -0.2686
 3853G1HHO Tail45441  14.102  18.042  19.691  0.2410 -0.1747 -0.0727
 3853G1HHO Tail45442  14.255  17.766  19.981 -0.1566  0.3674 -0.3432
 3853G1HHO Tail45443  14.242  18.022  18.850 -0.0602 -0.2127 -0.1481
 3853G1HHO Tail45444  14.488  18.205  18.752 -0.0822  0.0223  0.2112
 3853G1HHO Tail45445  14.763  18.499  18.906 -0.1306 -0.3371  0.1920
 3854G1HHO Head45446  17.417  13.728  22.912  0.4996 -0.1277  0.0859
 3854G1HHO Head45447  17.499  13.480  22.724 -0.2398 -0.1437  0.0956
 3854G1HHO Head45448  17.926  13.227  22.721  0.2002 -0.1618 -0.2327
 3854G1HHO Head45449  17.793  13.356  22.477  0.3087  0.3113 -0.0184
 3854G1HHO link45450  17.647  13.550  22.537  0.0570 -0.6436  0.3504
 3854G1HHO link45451  17.606  13.754  22.340 -0.2435  0.1542 -0.1738
 3854G1HHO Tail45452  17.327  13.783  22.161  0.1003 -0.0232 -0.4556
 3854G1HHO Tail45453  17.100  13.629  22.393  0.0280  0.0607  0.3305
 3854G1HHO Tail45454  16.934  13.344  22.406 -0.1553 -0.1531 -0.0560
 3854G1HHO Tail45455  16.526  13.184  22.370  0.1711  0.0013  0.3740
 3854G1HHO Tail45456  17.259  14.124  22.253  0.1074  0.1322  0.0787
 3854G1HHO Tail45457  17.300  14.413  22.125 -0.0365  0.0792  0.1706
 3854G1HHO Tail45458  17.386  14.633  21.759  0.0718 -0.4079  0.2429
 3855G1HHO Head45459  15.374  19.716  23.743 -0.0948 -0.0854  0.5492
 3855G1HHO Head45460  15.134  19.764  23.485 -0.0491 -0.2678 -0.3331
 3855G1HHO Head45461  14.738  19.692  23.188  0.1935 -0.1259  0.1575
 3855G1HHO Head45462  15.034  19.739  23.081 -0.0048 -0.0327 -0.3576
 3855G1HHO link45463  15.238  19.769  23.254  0.0691  0.2250 -0.3373
 3855G1HHO link45464  15.510  19.856  23.204 -0.1579 -0.0194 -0.0400
 3855G1HHO Tail45465  15.649  19.816  22.889 -0.0477  0.0090 -0.0633
 3855G1HHO Tail45466  15.433  19.594  22.716  0.2380  0.0380 -0.0509
 3855G1HHO Tail45467  15.296  19.321  22.809  0.1182  0.4955 -0.1566
 3855G1HHO Tail45468  14.911  19.205  22.995  0.2045  0.1145 -0.2541
 3855G1HHO Tail45469  15.538  20.127  22.727 -0.0389  0.0756 -0.0749
 3855G1HHO Tail45470  15.626  20.389  22.575 -0.1548 -0.6499  0.3865
 3855G1HHO Tail45471  15.515  20.641  22.228  0.2539  0.0513 -0.0548
 3856G1HHO Head45472  15.867  22.090  23.262 -0.1793 -0.1240  0.0401
 3856G1HHO Head45473  15.881  21.827  23.122  0.1788  0.2044  0.6764
 3856G1HHO Head45474  16.427  21.558  23.435 -0.2949  0.0378 -0.3249
 3856G1HHO Head45475  16.164  21.708  23.408 -0.4344 -0.3432 -0.0440
 3856G1HHO link45476  15.999  21.616  23.234  0.1523 -0.1438 -0.0694
 3856G1HHO link45477  15.909  21.335  23.247 -0.1232  0.1168  0.1850
 3856G1HHO Tail45478  16.129  21.093  23.265  0.1196  0.3228  0.1184
 3856G1HHO Tail45479  15.985  20.893  23.000 -0.0159 -0.0905 -0.0321
 3856G1HHO Tail45480  16.095  20.672  22.805 -0.1229 -0.2304 -0.1090
 3856G1HHO Tail45481  16.102  20.553  22.400  0.1987  0.0156 -0.0637
 3856G1HHO Tail45482  16.397  21.231  23.110 -0.3237 -0.0872 -0.0724
 3856G1HHO Tail45483  16.563  21.247  22.832 -0.1122  0.2783 -0.0841
 3856G1HHO Tail45484  16.910  21.032  22.692 -0.1608  0.1853 -0.1607
 3857G1HHO Head45485  14.822  19.712  24.748  0.2450  0.0757 -0.3581
 3857G1HHO Head45486  14.831  19.788  24.459  0.3029 -0.2582  0.2455
 3857G1HHO Head45487  14.377  19.380  24.393 -0.1354  0.1473  0.0537
 3857G1HHO Head45488  14.695  19.374  24.359 -0.0949  0.1314 -0.3317
 3857G1HHO link45489  14.837  19.608  24.277  0.2220  0.2051 -0.0455
 3857G1HHO link45490  15.058  19.574  24.118 -0.2236 -0.2522  0.0976
 3857G1HHO Tail45491  15.183  19.282  24.104 -0.2742  0.0374  0.1592
 3857G1HHO Tail45492  15.270  19.202  24.425  0.3661 -0.1222  0.1419
 3857G1HHO Tail45493  15.224  19.411  24.668 -0.2705  0.3598 -0.2538
 3857G1HHO Tail45494  15.024  19.447  25.052 -0.2372  0.1389  0.2232
 3857G1HHO Tail45495  14.913  19.054  24.084  0.0123 -0.3108 -0.1166
 3857G1HHO Tail45496  14.766  18.917  23.844 -0.4118 -0.1426  0.4292
 3857G1HHO Tail45497  14.844  18.806  23.431  0.0297  0.1994  0.1193
 3858G1HHO Head45498  17.757  18.638  21.503 -0.1276 -0.2701  0.3992
 3858G1HHO Head45499  17.918  18.636  21.753  0.1595 -0.0185 -0.6624
 3858G1HHO Head45500  17.502  18.110  21.987  0.4343 -0.1033  0.0668
 3858G1HHO Head45501  17.707  18.289  21.827 -0.3521 -0.0671 -0.0457
 3858G1HHO link45502  17.811  18.501  21.950  0.3088 -0.0534  0.7932
 3858G1HHO link45503  17.933  18.472  22.200  0.3747  0.0467  0.0182
 3858G1HHO Tail45504  17.755  18.549  22.475 -0.1234  0.4096  0.0974
 3858G1HHO Tail45505  17.531  18.774  22.380  0.2753  0.2013 -0.1095
 3858G1HHO Tail45506  17.582  19.078  22.305 -0.1733  0.0427 -0.0359
 3858G1HHO Tail45507  17.394  19.400  22.111  0.3043  0.1131 -0.0575
 3858G1HHO Tail45508  17.958  18.779  22.627  0.0140 -0.3053 -0.0401
 3858G1HHO Tail45509  17.923  18.951  22.898  0.5677  0.2972 -0.2170
 3858G1HHO Tail45510  17.792  18.880  23.303 -0.0142  0.1803 -0.0324
 3859G1HHO Head45511  20.628  14.275  21.360  0.0157  0.1159 -0.0927
 3859G1HHO Head45512  20.412  14.271  21.570 -0.5152  0.1876  0.0121
 3859G1HHO Head45513  20.743  14.341  21.987  0.1522 -0.0908 -0.0152
 3859G1HHO Head45514  20.552  14.561  21.859  0.1323  0.2347 -0.0496
 3859G1HHO link45515  20.328  14.488  21.708 -0.2467 -0.1834  0.2512
 3859G1HHO link45516  20.053  14.531  21.773 -0.0906  0.0314 -0.2015
 3859G1HHO Tail45517  19.916  14.393  22.028  0.0327  0.1115 -0.0330
 3859G1HHO Tail45518  19.561  14.419  21.950 -0.2411  0.0148 -0.0880
 3859G1HHO Tail45519  19.394  14.397  21.688  0.0520 -0.4613 -0.1166
 3859G1HHO Tail45520  19.166  14.641  21.415 -0.1769 -0.1169 -0.2252
 3859G1HHO Tail45521  19.945  14.625  22.269 -0.2251 -0.3132 -0.4584
 3859G1HHO Tail45522  19.859  14.641  22.576 -0.2036 -0.3349 -0.1402
 3859G1HHO Tail45523  19.921  14.452  22.961  0.1402 -0.1355 -0.2563
 3860G1HHO Head45524  17.531  16.605  22.874 -0.0797 -0.0298 -0.4943
 3860G1HHO Head45525  17.620  16.775  23.113  0.1443  0.2079  0.1050
 3860G1HHO Head45526  17.775  17.251  22.639 -0.0397 -0.3444 -0.4209
 3860G1HHO Head45527  17.749  17.003  22.809 -0.2173  0.2319 -0.1065
 3860G1HHO link45528  17.723  17.021  23.073 -0.4110  0.2599  0.6372
 3860G1HHO link45529  17.668  17.272  23.202 -0.1307 -0.2967 -0.1112
 3860G1HHO Tail45530  17.449  17.360  23.442 -0.3977  0.0326  0.0552
 3860G1HHO Tail45531  17.681  17.506  23.665 -0.1772  0.1224  0.2546
 3860G1HHO Tail45532  17.988  17.463  23.727 -0.1475  0.2937  0.0264
 3860G1HHO Tail45533  18.194  17.248  24.033 -0.0931 -0.0247  0.4606
 3860G1HHO Tail45534  17.331  17.654  23.339  0.0409 -0.0519  0.2306
 3860G1HHO Tail45535  17.353  17.929  23.493 -0.2979  0.2978 -0.3967
 3860G1HHO Tail45536  17.534  18.319  23.435 -0.1770 -0.1080  0.1114
 3861G1HHO Head45537  18.982  16.595  21.492 -0.0192  0.0706  0.1896
 3861G1HHO Head45538  19.097  16.375  21.346 -0.2641  0.2038 -0.2420
 3861G1HHO Head45539  19.245  16.920  21.210  0.4672  0.2275 -0.2702
 3861G1HHO Head45540  19.405  16.641  21.277  0.1597  0.2238 -0.2059
 3861G1HHO link45541  19.315  16.405  21.189  0.5562 -0.0353 -0.5224
 3861G1HHO link45542  19.448  16.214  21.028 -0.1608  0.2016 -0.3469
 3861G1HHO Tail45543  19.598  16.273  20.755 -0.0242  0.0623 -0.2071
 3861G1HHO Tail45544  19.681  16.623  20.833 -0.1377  0.3970 -0.3123
 3861G1HHO Tail45545  19.812  16.760  21.076 -0.1896  0.3553 -0.1545
 3861G1HHO Tail45546  20.196  16.727  21.281 -0.0412 -0.0542 -0.0110
 3861G1HHO Tail45547  19.906  16.134  20.824  0.2878 -0.0702  0.0176
 3861G1HHO Tail45548  20.043  15.909  20.999 -0.1713 -0.2558 -0.0186
 3861G1HHO Tail45549  20.076  15.662  21.341 -0.1498  0.0656  0.0108
 3862G1HHO Head45550  21.872  18.475  22.398  0.4364  0.0042 -0.1662
 3862G1HHO Head45551  21.624  18.575  22.185 -0.4934  0.0514 -0.0777
 3862G1HHO Head45552  22.014  18.644  21.917  0.0202  0.2324  0.2175
 3862G1HHO Head45553  21.791  18.446  21.841  0.2768  0.1655  0.1473
 3862G1HHO link45554  21.568  18.437  21.970 -0.4141  0.4113  0.1815
 3862G1HHO link45555  21.384  18.233  21.953 -0.2329  0.1642 -0.1555
 3862G1HHO Tail45556  21.098  18.307  22.086 -0.0445  0.0150 -0.2922
 3862G1HHO Tail45557  21.221  18.451  22.388  0.0343  0.0880  0.2958
 3862G1HHO Tail45558  21.279  18.346  22.677 -0.1408 -0.0842 -0.0669
 3862G1HHO Tail45559  21.249  17.977  22.913  0.0765 -0.2518  0.3265
 3862G1HHO Tail45560  20.996  18.609  21.921 -0.0426  0.0833  0.1983
 3862G1HHO Tail45561  20.911  18.703  21.627  0.0490 -0.1510 -0.0128
 3862G1HHO Tail45562  21.047  18.699  21.214 -0.2614  0.0919  0.0816
 3863G1HHO Head45563  16.341  16.871  22.237  0.0933  0.0357 -0.0502
 3863G1HHO Head45564  16.273  16.941  21.974 -0.0434 -0.2375 -0.5847
 3863G1HHO Head45565  15.955  16.617  21.421 -0.3388 -0.0340  0.0571
 3863G1HHO Head45566  16.181  16.712  21.648 -0.0938  0.1847  0.2974
 3863G1HHO link45567  16.106  16.776  21.870  0.2269 -0.1501 -0.2756
 3863G1HHO link45568  15.864  16.698  22.015  0.4049 -0.3280 -0.1919
 3863G1HHO Tail45569  15.698  16.914  22.204 -0.1710 -0.0596  0.0861
 3863G1HHO Tail45570  15.613  16.714  22.475  0.0379 -0.1642  0.2053
 3863G1HHO Tail45571  15.701  16.701  22.789 -0.1002  0.2027 -0.1152
 3863G1HHO Tail45572  15.568  16.847  23.167 -0.3780 -0.0047  0.0796
 3863G1HHO Tail45573  15.953  17.093  22.340 -0.3902 -0.0358  0.1731
 3863G1HHO Tail45574  16.106  17.065  22.619  0.0295 -0.0419 -0.1437
 3863G1HHO Tail45575  16.052  17.162  23.038  0.1578  0.2691  0.3448
 3864G1HHO Head45576  16.685  18.212  25.887 -0.0460 -0.0361 -0.0009
 3864G1HHO Head45577  16.599  18.250  25.593  0.0109  0.0282 -0.5004
 3864G1HHO Head45578  16.641  17.715  25.798 -0.0450 -0.3352 -0.3038
 3864G1HHO Head45579  16.451  17.869  25.589 -0.1817 -0.1288 -0.2061
 3864G1HHO link45580  16.575  18.036  25.429  0.3015  0.0283  0.0332
 3864G1HHO link45581  16.537  18.044  25.145 -0.0554 -0.1407  0.0265
 3864G1HHO Tail45582  16.314  17.889  24.942 -0.4583  0.2590  0.2820
 3864G1HHO Tail45583  16.393  17.561  25.051 -0.3031 -0.1262 -0.1737
 3864G1HHO Tail45584  16.270  17.336  25.229  0.6623  0.2104  0.1725
 3864G1HHO Tail45585  16.378  17.083  25.553  0.1300 -0.3008 -0.1155
 3864G1HHO Tail45586  16.482  17.869  24.648 -0.0032 -0.1075 -0.1457
 3864G1HHO Tail45587  16.460  17.885  24.334  0.0375  0.3603 -0.2604
 3864G1HHO Tail45588  16.193  17.865  24.001 -0.2841 -0.0518  0.0508
 3865G1HHO Head45589  18.440  19.144  26.424 -0.1110  0.0752 -0.1222
 3865G1HHO Head45590  18.267  18.907  26.359 -0.1520 -0.0019  0.0267
 3865G1HHO Head45591  18.502  19.151  25.913 -0.3916  0.1970 -0.0740
 3865G1HHO Head45592  18.406  18.862  25.971 -0.1594  0.1369  0.3046
 3865G1HHO link45593  18.184  18.851  26.102  0.0537 -0.1379  0.2720
 3865G1HHO link45594  17.937  18.725  26.029 -0.0189 -0.0519  0.0599
 3865G1HHO Tail45595  17.741  18.868  25.818  0.1284 -0.1682  0.3381
 3865G1HHO Tail45596  17.632  18.614  25.598 -0.3499  0.4914  0.4894
 3865G1HHO Tail45597  17.676  18.536  25.292  0.2525  0.5340  0.2151
 3865G1HHO Tail45598  17.858  18.696  24.939 -0.0383  0.1513  0.3424
 3865G1HHO Tail45599  17.986  19.005  25.618 -0.0807  0.1667  0.0538
 3865G1HHO Tail45600  18.020  19.021  25.315 -0.3300  0.0898  0.1020
 3865G1HHO Tail45601  17.871  19.205  24.956  0.0469 -0.1915 -0.1026
 3866G1HHO Head45602  17.890  16.198  17.829  0.1027 -0.1978 -0.1351
 3866G1HHO Head45603  18.069  15.976  17.759 -0.2531 -0.0020  0.1389
 3866G1HHO Head45604  17.808  15.332  17.741  0.2801  0.3118  0.1075
 3866G1HHO Head45605  17.927  15.603  17.675 -0.0065  0.0430  0.2217
 3866G1HHO link45606  18.048  15.746  17.847 -0.2460  0.5238 -0.1837
 3866G1HHO link45607  18.034  15.693  18.136  0.1576  0.0098 -0.2636
 3866G1HHO Tail45608  18.002  15.921  18.378  0.4487 -0.0245  0.0346
 3866G1HHO Tail45609  17.755  15.786  18.600  0.0755  0.0606 -0.0005
 3866G1HHO Tail45610  17.709  15.648  18.882  0.0830 -0.3404 -0.1145
 3866G1HHO Tail45611  17.744  15.275  19.082 -0.3570 -0.2024  0.1060
 3866G1HHO Tail45612  18.294  15.841  18.564  0.1095 -0.1384  0.3178
 3866G1HHO Tail45613  18.596  15.960  18.610 -0.2568  0.6140 -0.2640
 3866G1HHO Tail45614  18.757  16.364  18.653  0.2425 -0.0311  0.2124
 3867G1HHO Head45615  18.731  17.785  21.072  0.1957 -0.1290 -0.0755
 3867G1HHO Head45616  18.953  17.921  20.872 -0.1633  0.0443  0.1216
 3867G1HHO Head45617  18.647  18.403  20.496 -0.1862  0.3453  0.2279
 3867G1HHO Head45618  18.720  18.194  20.686 -0.5524 -0.1491  0.0303
 3867G1HHO link45619  18.947  18.180  20.811 -0.0031  0.7934  0.4451
 3867G1HHO link45620  19.168  18.347  20.755  0.0364 -0.2245  0.0193
 3867G1HHO Tail45621  19.303  18.351  20.455  0.1808 -0.3564  0.3984
 3867G1HHO Tail45622  19.073  18.559  20.290 -0.1426 -0.3209  0.0339
 3867G1HHO Tail45623  19.057  18.712  19.997 -0.1897 -0.0597 -0.0422
 3867G1HHO Tail45624  19.338  18.952  19.747 -0.0240 -0.0372  0.2243
 3867G1HHO Tail45625  19.578  18.583  20.537 -0.2627 -0.1053 -0.3652
 3867G1HHO Tail45626  19.637  18.869  20.412 -0.3805  0.4010 -0.0715
 3867G1HHO Tail45627  19.646  19.305  20.499 -0.1389  0.1333  0.2410
 3868G1HHO Head45628  21.740  17.359  20.526 -0.1235 -0.1229 -0.2092
 3868G1HHO Head45629  21.718  17.458  20.228  0.0606 -0.2578 -0.3179
 3868G1HHO Head45630  21.577  17.340  19.601 -0.0587  0.1520  0.2718
 3868G1HHO Head45631  21.709  17.293  19.863  0.2302  0.0974  0.1313
 3868G1HHO link45632  21.569  17.333  20.070 -0.7033  0.1396  0.4536
 3868G1HHO link45633  21.396  17.137  20.152  0.1855 -0.2670  0.2249
 3868G1HHO Tail45634  21.334  17.084  20.472  0.2683 -0.0087 -0.0224
 3868G1HHO Tail45635  21.244  17.411  20.576 -0.4302 -0.0260  0.3931
 3868G1HHO Tail45636  21.248  17.509  20.876  0.3825  0.1331 -0.0719
 3868G1HHO Tail45637  21.490  17.742  21.140 -0.0007  0.0062 -0.0306
 3868G1HHO Tail45638  21.033  16.937  20.468  0.1451 -0.1070 -0.1011
 3868G1HHO Tail45639  20.935  16.640  20.415 -0.3553 -0.4655 -0.2022
 3868G1HHO Tail45640  20.755  16.335  20.633  0.1786 -0.1037 -0.2604
 3869G1HHO Head45641  17.290  21.644  22.472 -0.0932  0.2039  0.3997
 3869G1HHO Head45642  17.128  21.383  22.522  0.3462 -0.0064  0.1966
 3869G1HHO Head45643  16.766  21.804  22.387  0.0057 -0.0046  0.3828
 3869G1HHO Head45644  16.766  21.530  22.507 -0.3706 -0.0404  0.5173
 3869G1HHO link45645  16.872  21.328  22.424 -0.3928 -0.1947  0.4373
 3869G1HHO link45646  16.811  21.171  22.199 -0.1773  0.1542 -0.1258
 3869G1HHO Tail45647  16.502  21.090  22.116 -0.2170 -0.0704 -0.3735
 3869G1HHO Tail45648  16.509  21.183  21.778 -0.6412 -0.0111  0.2229
 3869G1HHO Tail45649  16.358  21.067  21.504  0.1546 -0.1236 -0.2948
 3869G1HHO Tail45650  16.176  21.196  21.145  0.1424 -0.4094 -0.0741
 3869G1HHO Tail45651  16.540  20.759  22.077 -0.2544 -0.2630  0.1898
 3869G1HHO Tail45652  16.777  20.554  22.133 -0.0301  0.2534  0.2404
 3869G1HHO Tail45653  16.808  20.138  22.233 -0.1089 -0.0844 -0.2172
 3870G1HHO Head45654  22.280  18.108  21.774 -0.0975 -0.1867  0.1072
 3870G1HHO Head45655  22.051  18.035  21.582 -0.1783 -0.1013 -0.1174
 3870G1HHO Head45656  22.234  18.513  21.456  0.0307 -0.0046  0.4366
 3870G1HHO Head45657  21.924  18.408  21.400  0.0054  0.0642  0.0609
 3870G1HHO link45658  21.836  18.190  21.531  0.1306 -0.2115 -0.1264
 3870G1HHO link45659  21.573  18.095  21.499  0.0474 -0.0307 -0.3869
 3870G1HHO Tail45660  21.304  18.280  21.466 -0.0181  0.0642  0.1744
 3870G1HHO Tail45661  21.470  18.590  21.520 -0.3475  0.1773  0.2255
 3870G1HHO Tail45662  21.490  18.814  21.759  0.0368 -0.1317 -0.0832
 3870G1HHO Tail45663  21.306  18.923  22.133 -0.0426 -0.0719  0.1413
 3870G1HHO Tail45664  21.292  18.269  21.119  0.0320  0.1777 -0.3679
 3870G1HHO Tail45665  21.097  18.352  20.877  0.0653 -0.0825 -0.2333
 3870G1HHO Tail45666  20.776  18.186  20.613  0.2068  0.3823 -0.0777
 3871G1HHO Head45667  16.839  12.962  21.885 -0.0573 -0.1304 -0.0302
 3871G1HHO Head45668  16.898  13.144  21.625  0.0247 -0.2572  0.4491
 3871G1HHO Head45669  16.443  12.787  21.516 -0.0677 -0.1452 -0.0994
 3871G1HHO Head45670  16.556  13.038  21.461  0.3130  0.2628  0.1109
 3871G1HHO link45671  16.802  13.067  21.400 -0.1451 -0.0311  0.0567
 3871G1HHO link45672  16.908  13.125  21.143 -0.1126 -0.0469  0.0706
 3871G1HHO Tail45673  17.222  13.057  21.103  0.1365 -0.0104 -0.3407
 3871G1HHO Tail45674  17.340  13.337  20.946  0.0405 -0.2167 -0.1618
 3871G1HHO Tail45675  17.596  13.527  20.966  0.1828  0.1172 -0.1855
 3871G1HHO Tail45676  17.707  13.938  21.042  0.0729 -0.3593 -0.2767
 3871G1HHO Tail45677  17.311  13.133  21.437 -0.0313 -0.2352 -0.2927
 3871G1HHO Tail45678  17.570  13.299  21.543 -0.0586 -0.4785  0.5192
 3871G1HHO Tail45679  17.693  13.556  21.869  0.1284  0.0277 -0.0232
 3872G1HHO Head45680  15.820  15.904  20.768  0.2438 -0.1063  0.2226
 3872G1HHO Head45681  16.001  15.632  20.721  0.1712  0.2559  0.0987
 3872G1HHO Head45682  15.965  15.560  21.202 -0.2820  0.1238  0.0546
 3872G1HHO Head45683  15.976  15.370  21.031 -0.1456 -0.5789  0.1087
 3872G1HHO link45684  15.916  15.407  20.769  0.1431  0.5035 -0.0270
 3872G1HHO link45685  15.678  15.283  20.655  0.0135  0.2365  0.0684
 3872G1HHO Tail45686  15.665  14.960  20.608  0.0703 -0.0870 -0.2940
 3872G1HHO Tail45687  15.426  14.868  20.845  0.0856 -0.2401 -0.2634
 3872G1HHO Tail45688  15.106  14.926  20.915  0.0961  0.4351  0.0022
 3872G1HHO Tail45689  14.904  15.159  21.213 -0.1031 -0.0403  0.1442
 3872G1HHO Tail45690  15.449  14.950  20.350  0.0298 -0.1009 -0.4173
 3872G1HHO Tail45691  15.380  15.178  20.152  0.5878  0.2673  0.1223
 3872G1HHO Tail45692  15.412  15.268  19.727  0.2500 -0.0476  0.2395
 3873G1HHO Head45693  15.806  17.756  26.179 -0.2405 -0.1016 -0.1550
 3873G1HHO Head45694  15.816  17.724  25.866  0.5893  0.2289 -0.1428
 3873G1HHO Head45695  16.283  17.937  26.083 -0.2832  0.0835  0.1530
 3873G1HHO Head45696  16.137  17.984  25.846 -0.1642  0.3912 -0.0238
 3873G1HHO link45697  16.030  17.784  25.730 -0.1562  0.6279  0.2187
 3873G1HHO link45698  16.071  17.706  25.449  0.2058 -0.1546  0.0858
 3873G1HHO Tail45699  15.827  17.782  25.236 -0.2567  0.1861 -0.0728
 3873G1HHO Tail45700  15.966  18.090  25.121  0.1377 -0.0987 -0.0392
 3873G1HHO Tail45701  15.960  18.327  24.887 -0.2750 -0.1115  0.2835
 3873G1HHO Tail45702  16.044  18.764  24.878  0.2425 -0.0316  0.1151
 3873G1HHO Tail45703  15.889  17.575  24.966 -0.2655  0.0295 -0.2008
 3873G1HHO Tail45704  15.974  17.273  24.937 -0.0007  0.0405  0.1751
 3873G1HHO Tail45705  16.075  16.926  25.179  0.4602 -0.2352  0.3536
 3874G1HHO Head45706  19.410  19.761  23.633 -0.2159  0.1058 -0.3678
 3874G1HHO Head45707  19.505  19.532  23.565 -0.2260  0.2122 -0.0757
 3874G1HHO Head45708  19.582  19.905  23.050  0.1045 -0.0950  0.4580
 3874G1HHO Head45709  19.688  19.618  23.216 -0.0928 -0.2250  0.2211
 3874G1HHO link45710  19.497  19.484  23.300  0.2409  0.1539  0.3904
 3874G1HHO link45711  19.367  19.278  23.163  0.0568 -0.0830  0.4117
 3874G1HHO Tail45712  19.063  19.287  23.022  0.0030 -0.3199  0.1599
 3874G1HHO Tail45713  19.150  19.255  22.694  0.0659  0.1921  0.2216
 3874G1HHO Tail45714  18.997  19.353  22.425 -0.4437 -0.1488 -0.2362
 3874G1HHO Tail45715  18.945  19.209  22.002 -0.0535  0.1441 -0.1799
 3874G1HHO Tail45716  18.939  18.986  23.121 -0.2325  0.1470 -0.2578
 3874G1HHO Tail45717  18.750  18.904  23.371  0.0411  0.0648 -0.1021
 3874G1HHO Tail45718  18.775  18.687  23.754  0.0676  0.2692 -0.0678
 3875G1HHO Head45719  16.099  20.958  24.011 -0.0390  0.0179  0.1217
 3875G1HHO Head45720  16.106  20.711  24.234  0.1682 -0.3898 -0.0033
 3875G1HHO Head45721  16.243  20.350  24.633 -0.1465 -0.2752  0.5366
 3875G1HHO Head45722  16.297  20.337  24.335 -0.1261  0.0457 -0.1239
 3875G1HHO link45723  16.166  20.472  24.153  0.2712  0.3970  0.1807
 3875G1HHO link45724  15.989  20.330  23.981  0.2517 -0.4129  0.0627
 3875G1HHO Tail45725  15.927  20.006  24.020  0.1100  0.2771  0.4111
 3875G1HHO Tail45726  16.102  19.898  24.291  0.2964  0.0851 -0.0591
 3875G1HHO Tail45727  16.346  19.705  24.324  0.3294  0.0452 -0.1783
 3875G1HHO Tail45728  16.499  19.334  24.137  0.2799  0.0733  0.0067
 3875G1HHO Tail45729  15.609  20.010  24.131  0.0139  0.0876  0.0814
 3875G1HHO Tail45730  15.431  19.844  24.348 -0.0487 -0.0214  0.3444
 3875G1HHO Tail45731  15.374  19.816  24.782  0.3571  0.1480 -0.2939
 3876G1HHO Head45732  20.987  15.261  23.414  0.2156 -0.2889  0.1473
 3876G1HHO Head45733  20.783  15.248  23.697 -0.1867 -0.0828  0.0289
 3876G1HHO Head45734  20.429  15.465  24.123 -0.2801  0.3105 -0.0274
 3876G1HHO Head45735  20.501  15.496  23.844 -0.3306  0.1857 -0.0528
 3876G1HHO link45736  20.531  15.301  23.679 -0.1197  0.0528 -0.3123
 3876G1HHO link45737  20.376  15.288  23.429  0.3128 -0.1015 -0.1101
 3876G1HHO Tail45738  20.502  15.176  23.149  0.0618  0.3128  0.1780
 3876G1HHO Tail45739  20.259  14.970  23.040 -0.1013  0.0283  0.0548
 3876G1HHO Tail45740  19.939  14.935  23.046  0.4204 -0.0201 -0.3510
 3876G1HHO Tail45741  19.641  14.774  23.318 -0.2069  0.4333  0.5661
 3876G1HHO Tail45742  20.419  15.455  22.964 -0.1018 -0.2380  0.3252
 3876G1HHO Tail45743  20.403  15.474  22.643  0.1360 -0.0177  0.2970
 3876G1HHO Tail45744  20.289  15.743  22.296  0.3776 -0.0626  0.1378
 3877G1HHO Head45745  22.275  14.994  21.564  0.0560 -0.3362 -0.2303
 3877G1HHO Head45746  21.966  14.950  21.665  0.0248  0.1175  0.0352
 3877G1HHO Head45747  22.023  15.385  21.951  0.1555 -0.0426  0.1346
 3877G1HHO Head45748  21.836  15.332  21.647 -0.2030 -0.0149 -0.3870
 3877G1HHO link45749  21.759  15.089  21.594  0.2222  0.1096 -0.2041
 3877G1HHO link45750  21.500  14.979  21.554 -0.4052 -0.0721 -0.0220
 3877G1HHO Tail45751  21.265  15.147  21.391 -0.2946 -0.0910  0.2380
 3877G1HHO Tail45752  21.408  15.467  21.405  0.2947 -0.0512 -0.0226
 3877G1HHO Tail45753  21.531  15.636  21.190  0.1247 -0.0960 -0.0438
 3877G1HHO Tail45754  21.596  16.051  21.079  0.0692  0.2453 -0.0214
 3877G1HHO Tail45755  21.317  15.071  21.057 -0.1324 -0.1613 -0.1463
 3877G1HHO Tail45756  21.391  15.248  20.809  0.3554 -0.0882  0.2087
 3877G1HHO Tail45757  21.221  15.378  20.422 -0.2459  0.1887 -0.3634
 3878G1HHO Head45758  14.148  20.043  18.919 -0.2257  0.0013 -0.2730
 3878G1HHO Head45759  14.310  19.841  19.061 -0.1889 -0.0281  0.2233
 3878G1HHO Head45760  14.588  19.428  19.304 -0.1976 -0.2799 -0.0989
 3878G1HHO Head45761  14.452  19.694  19.423  0.3993 -0.0216  0.1804
 3878G1HHO link45762  14.446  19.922  19.284  0.4391 -0.1877 -0.3918
 3878G1HHO link45763  14.404  20.171  19.411 -0.0422 -0.0685  0.0876
 3878G1HHO Tail45764  14.572  20.194  19.682  0.3404  0.0684 -0.1877
 3878G1HHO Tail45765  14.317  20.064  19.844  0.1246 -0.2451 -0.0362
 3878G1HHO Tail45766  14.288  19.895  20.096 -0.0859 -0.1938 -0.1569
 3878G1HHO Tail45767  14.216  19.863  20.524  0.0892 -0.0741 -0.1946
 3878G1HHO Tail45768  14.771  19.920  19.660  0.1657  0.2904  0.0060
 3878G1HHO Tail45769  15.071  19.815  19.689 -0.2462 -0.2885  0.1295
 3878G1HHO Tail45770  15.463  19.872  19.864 -0.0155  0.2493  0.0008
 3879G1HHO Head45771  21.398  15.411  22.812 -0.0291  0.2917  0.2220
 3879G1HHO Head45772  21.373  15.421  22.516  0.3890  0.2557  0.1683
 3879G1HHO Head45773  21.242  15.036  22.287 -0.0814 -0.2895 -0.1643
 3879G1HHO Head45774  21.075  15.273  22.271  0.0381 -0.1093  0.2008
 3879G1HHO link45775  21.164  15.491  22.385 -0.5075  0.0230  0.8101
 3879G1HHO link45776  21.138  15.756  22.278 -0.1076  0.1075 -0.1453
 3879G1HHO Tail45777  21.219  15.818  21.959  0.2855  0.1055  0.1919
 3879G1HHO Tail45778  20.998  15.596  21.792  0.3977  0.0926  0.2565
 3879G1HHO Tail45779  20.852  15.565  21.522 -0.3233  0.1614  0.2286
 3879G1HHO Tail45780  20.785  15.275  21.201 -0.0047  0.2347  0.1101
 3879G1HHO Tail45781  21.057  16.136  21.909 -0.2691 -0.4269  0.1879
 3879G1HHO Tail45782  21.034  16.367  21.679  0.0411 -0.5784 -0.1549
 3879G1HHO Tail45783  20.762  16.664  21.539 -0.1710 -0.2712  0.2675
 3880G1HHO Head45784  17.272  18.929  25.873 -0.0431 -0.2226  0.2927
 3880G1HHO Head45785  17.144  18.738  25.634  0.4046 -0.5723  0.3105
 3880G1HHO Head45786  17.589  18.994  25.263 -0.0159  0.0247 -0.2516
 3880G1HHO Head45787  17.358  18.796  25.272  0.4984 -0.0069 -0.3643
 3880G1HHO link45788  17.125  18.820  25.391 -0.2710  0.1892 -0.2349
 3880G1HHO link45789  16.958  19.026  25.312  0.2031  0.0115 -0.3104
 3880G1HHO Tail45790  16.946  19.157  25.006 -0.4901  0.0178  0.2704
 3880G1HHO Tail45791  17.240  19.350  25.001  0.2608 -0.0454  0.1132
 3880G1HHO Tail45792  17.449  19.431  25.261  0.4174 -0.0093  0.1974
 3880G1HHO Tail45793  17.865  19.553  25.333 -0.0980  0.0475 -0.0347
 3880G1HHO Tail45794  17.068  18.880  24.836 -0.2326  0.2387  0.1274
 3880G1HHO Tail45795  17.102  18.829  24.517  0.2996  0.2439 -0.3857
 3880G1HHO Tail45796  17.305  18.957  24.157 -0.0262 -0.3186  0.1903
 3881G1HHO Head45797  15.663  15.358  24.748 -0.1912 -0.0543  0.1636
 3881G1HHO Head45798  15.723  15.423  24.430 -0.0425  0.0292  0.1421
 3881G1HHO Head45799  15.394  15.064  24.387 -0.3743 -0.1020 -0.0224
 3881G1HHO Head45800  15.711  15.022  24.313 -0.2450 -0.1198 -0.0067
 3881G1HHO link45801  15.872  15.270  24.310 -0.3995 -0.0464 -0.0604
 3881G1HHO link45802  16.039  15.334  24.105  0.0070 -0.0752  0.3843
 3881G1HHO Tail45803  15.975  15.563  23.867 -0.2565 -0.2391 -0.1244
 3881G1HHO Tail45804  16.294  15.631  23.749 -0.0078  0.3970  0.0662
 3881G1HHO Tail45805  16.555  15.452  23.750  0.3395  0.0683  0.6072
 3881G1HHO Tail45806  16.765  15.108  23.584  0.0899  0.0338 -0.0462
 3881G1HHO Tail45807  15.831  15.343  23.631  0.2882 -0.0333  0.1279
 3881G1HHO Tail45808  15.893  15.146  23.366  0.5181 -0.2314 -0.0755
 3881G1HHO Tail45809  16.209  14.903  23.198  0.6601  0.2051  0.1462
 3882G1HHO Head45810  18.340  15.333  17.919 -0.1037  0.0041 -0.0394
 3882G1HHO Head45811  18.148  15.219  18.118  0.0244  0.2195 -0.2513
 3882G1HHO Head45812  18.173  14.658  17.779  0.1172 -0.2557  0.0350
 3882G1HHO Head45813  18.236  14.874  17.961 -0.2478 -0.2300 -0.0157
 3882G1HHO link45814  18.078  14.986  18.121  0.2375 -0.1892 -0.2747
 3882G1HHO link45815  17.930  14.839  18.324 -0.0790 -0.1627 -0.1757
 3882G1HHO Tail45816  17.891  14.959  18.634 -0.3542 -0.1692 -0.1442
 3882G1HHO Tail45817  18.005  15.279  18.601  0.2277 -0.0571 -0.1607
 3882G1HHO Tail45818  18.275  15.380  18.496 -0.3941 -0.4529  0.0353
 3882G1HHO Tail45819  18.667  15.507  18.656  0.0959  0.0855  0.0762
 3882G1HHO Tail45820  17.547  15.009  18.657  0.3110  0.2135 -0.0697
 3882G1HHO Tail45821  17.376  15.056  18.917  0.5183  0.2786  0.3317
 3882G1HHO Tail45822  16.996  15.205  19.087  0.3480 -0.1420  0.3953
 3883G1HHO Head45823  20.121  17.408  24.653 -0.3002  0.0466  0.2358
 3883G1HHO Head45824  20.084  17.690  24.783 -0.0772 -0.0999  0.0016
 3883G1HHO Head45825  20.183  18.182  25.082 -0.0508  0.0238  0.0788
 3883G1HHO Head45826  20.090  17.855  25.138 -0.3770 -0.1167 -0.1140
 3883G1HHO link45827  19.927  17.743  24.988  0.3373  0.0346 -0.0447
 3883G1HHO link45828  19.675  17.841  24.939  0.0739  0.1536  0.0739
 3883G1HHO Tail45829  19.558  17.926  24.653  0.1251 -0.3368  0.0029
 3883G1HHO Tail45830  19.763  18.210  24.580 -0.3428  0.2162 -0.0877
 3883G1HHO Tail45831  19.731  18.527  24.536  0.3314  0.2208 -0.3787
 3883G1HHO Tail45832  19.884  18.847  24.296  0.0287 -0.3105  0.0433
 3883G1HHO Tail45833  19.728  17.684  24.457  0.0809  0.1507  0.5193
 3883G1HHO Tail45834  19.768  17.654  24.130  0.2365  0.0528  0.0223
 3883G1HHO Tail45835  19.805  17.885  23.758 -0.1828  0.0698 -0.1214
 3884G1HHO Head45836  16.877  17.461  19.412 -0.1284 -0.2570  0.1853
 3884G1HHO Head45837  16.704  17.712  19.452  0.0472  0.2664  0.2022
 3884G1HHO Head45838  17.235  18.063  19.727 -0.2960 -0.3446  0.3827
 3884G1HHO Head45839  16.980  17.895  19.708 -0.0473  0.4831 -0.4339
 3884G1HHO link45840  16.786  17.939  19.546  0.0546 -0.3493 -0.0301
 3884G1HHO link45841  16.701  18.198  19.462 -0.2249 -0.2714  0.1398
 3884G1HHO Tail45842  16.829  18.308  19.169  0.1620 -0.3242  0.0535
 3884G1HHO Tail45843  16.550  18.215  18.962 -0.0692 -0.2795 -0.2169
 3884G1HHO Tail45844  16.491  18.160  18.648  0.3555  0.1610  0.1079
 3884G1HHO Tail45845  16.171  18.021  18.393 -0.2932 -0.2888 -0.3200
 3884G1HHO Tail45846  16.773  18.660  19.195 -0.0199  0.0115 -0.2147
 3884G1HHO Tail45847  16.687  18.886  19.007 -0.0489  0.0520 -0.2276
 3884G1HHO Tail45848  16.840  19.279  18.913  0.3454 -0.2975 -0.0085
 3885G1HHO Head45849  21.552  16.694  22.497  0.0040 -0.1530 -0.1874
 3885G1HHO Head45850  21.296  16.874  22.565 -0.2669 -0.1664  0.0642
 3885G1HHO Head45851  21.226  17.109  23.049 -0.0452  0.1267  0.2885
 3885G1HHO Head45852  21.368  17.188  22.779  0.0427 -0.0222  0.3898
 3885G1HHO link45853  21.301  17.131  22.548  0.2638 -0.5276 -0.3953
 3885G1HHO link45854  21.349  17.313  22.327 -0.1666  0.4016  0.0443
 3885G1HHO Tail45855  21.177  17.263  22.038 -0.1438 -0.1468  0.3185
 3885G1HHO Tail45856  21.152  16.910  22.044 -0.0108  0.1712 -0.1232
 3885G1HHO Tail45857  20.961  16.716  21.924  0.0667 -0.4230 -0.0510
 3885G1HHO Tail45858  20.672  16.402  22.000  0.1768  0.4555 -0.2680
 3885G1HHO Tail45859  20.880  17.365  22.148  0.0405 -0.0092  0.0382
 3885G1HHO Tail45860  20.816  17.571  22.399 -0.5822  0.1119  0.4436
 3885G1HHO Tail45861  20.733  17.538  22.832  0.0204  0.1488 -0.4531
 3886G1HHO Head45862  18.929  13.807  20.153  0.3697 -0.2061 -0.1312
 3886G1HHO Head45863  19.028  14.061  20.270 -0.5297 -0.1302  0.0248
 3886G1HHO Head45864  19.711  14.157  20.079  0.1751 -0.0069 -0.3142
 3886G1HHO Head45865  19.459  14.041  20.175  0.0144  0.0950  0.1496
 3886G1HHO link45866  19.240  14.184  20.144  0.7006  0.0808  0.3570
 3886G1HHO link45867  19.241  14.444  20.019 -0.0801  0.0977 -0.0018
 3886G1HHO Tail45868  18.977  14.631  20.002  0.0871  0.1675 -0.2639
 3886G1HHO Tail45869  18.724  14.404  20.121  0.2256  0.0524  0.1744
 3886G1HHO Tail45870  18.397  14.404  20.096 -0.5417 -0.5781 -0.0709
 3886G1HHO Tail45871  18.067  14.589  20.304 -0.2921  0.2477 -0.1719
 3886G1HHO Tail45872  19.018  14.840  20.291 -0.0717  0.2230 -0.2610
 3886G1HHO Tail45873  19.063  14.778  20.596  0.1552 -0.1775 -0.2054
 3886G1HHO Tail45874  18.931  14.909  20.985 -0.2978  0.0617 -0.0374
 3887G1HHO Head45875  17.348  19.808  25.551 -0.0689 -0.0388  0.2206
 3887G1HHO Head45876  17.489  19.993  25.423 -0.4986 -0.1312  0.1013
 3887G1HHO Head45877  17.734  20.358  24.868  0.2203  0.0897 -0.4677
 3887G1HHO Head45878  17.696  20.133  25.118  0.1064 -0.0905  0.3441
 3887G1HHO link45879  17.462  20.029  25.174  0.4913  0.0798 -0.0495
 3887G1HHO link45880  17.352  19.838  24.983  0.5005 -0.1565 -0.1847
 3887G1HHO Tail45881  17.554  19.603  24.851 -0.1796 -0.3365 -0.4641
 3887G1HHO Tail45882  17.396  19.620  24.537 -0.3129 -0.1495  0.0822
 3887G1HHO Tail45883  17.141  19.750  24.436  0.3486 -0.0792  0.0310
 3887G1HHO Tail45884  16.885  19.772  24.082 -0.0288 -0.0951 -0.1363
 3887G1HHO Tail45885  17.834  19.796  24.785  0.0611 -0.2953 -0.3072
 3887G1HHO Tail45886  18.127  19.778  24.898 -0.2851 -0.0769 -0.1457
 3887G1HHO Tail45887  18.329  19.466  25.126  0.0561 -0.1878  0.3123
 3888G1HHO Head45888  17.723  21.504  21.722  0.4071  0.1973  0.1058
 3888G1HHO Head45889  17.496  21.632  21.964  0.0382 -0.2879  0.3131
 3888G1HHO Head45890  17.239  22.066  22.051  0.0012  0.1463  0.1512
 3888G1HHO Head45891  17.115  21.794  22.022 -0.1785 -0.0389  0.2393
 3888G1HHO link45892  17.247  21.558  21.968 -0.0491 -0.2557 -0.0683
 3888G1HHO link45893  17.135  21.333  21.861 -0.0561 -0.0017 -0.0895
 3888G1HHO Tail45894  17.210  21.207  21.567 -0.2758 -0.1030 -0.1681
 3888G1HHO Tail45895  16.888  21.194  21.424  0.1365 -0.1257  0.1621
 3888G1HHO Tail45896  16.664  21.435  21.374 -0.1413 -0.3476 -0.0040
 3888G1HHO Tail45897  16.271  21.595  21.487 -0.0537  0.2164 -0.7812
 3888G1HHO Tail45898  17.266  21.523  21.429 -0.1668  0.1312  0.4466
 3888G1HHO Tail45899  17.081  21.776  21.388  0.0209  0.5771  0.0590
 3888G1HHO Tail45900  16.672  21.889  21.294 -0.0399 -0.0094 -0.0003
 3889G1HHO Head45901  18.152  14.992  18.980  0.1375 -0.0566 -0.0582
 3889G1HHO Head45902  18.418  15.134  18.910  0.3878  0.1126  0.3500
 3889G1HHO Head45903  18.782  14.926  19.448 -0.0406  0.1407 -0.1193
 3889G1HHO Head45904  18.678  14.900  19.152  0.3083 -0.0342  0.4815
 3889G1HHO link45905  18.651  15.116  19.032 -0.3692 -0.1070  0.0357
 3889G1HHO link45906  18.804  15.336  19.084  0.2975 -0.3049  0.4457
 3889G1HHO Tail45907  18.666  15.587  19.235  0.3360 -0.1468 -0.1584
 3889G1HHO Tail45908  18.912  15.567  19.504 -0.2130  0.1755  0.3691
 3889G1HHO Tail45909  19.054  15.291  19.584 -0.1532 -0.1499  0.0124
 3889G1HHO Tail45910  19.308  15.153  19.923  0.2634 -0.3154  0.1571
 3889G1HHO Tail45911  18.781  15.861  19.048  0.0635 -0.0508 -0.2523
 3889G1HHO Tail45912  18.974  16.127  19.081 -0.0022  0.5443 -0.1118
 3889G1HHO Tail45913  19.385  16.239  19.100 -0.1834 -0.2401 -0.0660
 3890G1HHO Head45914  16.096  22.292  21.934  0.1643  0.2089  0.0282
 3890G1HHO Head45915  15.856  22.111  22.097  0.0054  0.4115  0.2704
 3890G1HHO Head45916  15.971  21.919  22.621  0.1410 -0.2764  0.4867
 3890G1HHO Head45917  15.819  21.836  22.372 -0.0060 -0.0276  0.1393
 3890G1HHO link45918  15.898  21.874  22.129  0.0200 -0.0406  0.4424
 3890G1HHO link45919  16.077  21.719  21.968  0.0149  0.0946  0.0364
 3890G1HHO Tail45920  16.115  21.399  21.969  0.3399 -0.4270  0.1355
 3890G1HHO Tail45921  15.904  21.288  22.239  0.2161 -0.1568  0.2296
 3890G1HHO Tail45922  15.888  21.006  22.374 -0.2401  0.2627 -0.4683
 3890G1HHO Tail45923  15.618  20.825  22.676  0.0257  0.2084 -0.3148
 3890G1HHO Tail45924  15.906  21.306  21.714 -0.3229 -0.3362  0.0950
 3890G1HHO Tail45925  15.869  21.106  21.468 -0.3880 -0.4328 -0.3746
 3890G1HHO Tail45926  15.711  21.090  21.059 -0.2406  0.4118 -0.5457
 3891G1HHO Head45927  17.220  20.198  24.629 -0.2131  0.1328 -0.1557
 3891G1HHO Head45928  16.961  20.098  24.762  0.2411  0.2576 -0.0514
 3891G1HHO Head45929  16.774  19.713  25.351 -0.2954 -0.1556 -0.2870
 3891G1HHO Head45930  16.936  19.912  25.140 -0.0723  0.2989 -0.0274
 3891G1HHO link45931  16.940  19.862  24.883  0.2016 -0.2711  0.3855
 3891G1HHO link45932  16.941  19.601  24.770  0.0629 -0.1075 -0.0492
 3891G1HHO Tail45933  16.740  19.513  24.529 -0.2223 -0.0260  0.5120
 3891G1HHO Tail45934  16.961  19.359  24.331 -0.0998 -0.3056  0.1286
 3891G1HHO Tail45935  16.990  19.235  24.034  0.4313  0.2519 -0.1733
 3891G1HHO Tail45936  17.194  19.251  23.658 -0.0176  0.0394  0.0053
 3891G1HHO Tail45937  16.608  19.223  24.670  0.0196  0.2913  0.4591
 3891G1HHO Tail45938  16.395  19.005  24.563  0.0712  0.0161 -0.2159
 3891G1HHO Tail45939  16.324  18.742  24.223  0.2430  0.0262 -0.1970
 3892G1HHO Head45940  19.929  17.551  22.833  0.0580  0.0691  0.1860
 3892G1HHO Head45941  19.813  17.684  22.577 -0.0709 -0.3607  0.3646
 3892G1HHO Head45942  19.484  18.220  22.552 -0.3648  0.0540 -0.1008
 3892G1HHO Head45943  19.460  17.911  22.438 -0.0111  0.0866 -0.1557
 3892G1HHO link45944  19.551  17.704  22.568  0.2499  0.6734 -0.1596
 3892G1HHO link45945  19.382  17.469  22.587  0.0283  0.1668 -0.0491
 3892G1HHO Tail45946  19.448  17.203  22.393 -0.2705 -0.1029 -0.2023
 3892G1HHO Tail45947  19.792  17.220  22.374  0.2874 -0.1231 -0.0522
 3892G1HHO Tail45948  20.056  17.089  22.422 -0.3096 -0.1561  0.0366
 3892G1HHO Tail45949  20.283  16.731  22.303 -0.1740 -0.0275  0.1034
 3892G1HHO Tail45950  19.418  16.940  22.613 -0.1014 -0.6542 -0.2123
 3892G1HHO Tail45951  19.432  16.896  22.928 -0.3681 -0.0042 -0.1463
 3892G1HHO Tail45952  19.654  16.670  23.222 -0.3742 -0.2560  0.3239
 3893G1HHO Head45953  18.444  14.064  19.695 -0.0382  0.4492 -0.1946
 3893G1HHO Head45954  18.123  14.100  19.787 -0.1409  0.1013 -0.4164
 3893G1HHO Head45955  18.072  13.689  19.569  0.0142 -0.2180 -0.2539
 3893G1HHO Head45956  17.940  13.923  19.464  0.0574 -0.3014  0.3060
 3893G1HHO link45957  17.934  14.145  19.594 -0.0933 -0.4961  0.1099
 3893G1HHO link45958  17.877  14.406  19.483  0.2599 -0.1805  0.0340
 3893G1HHO Tail45959  17.633  14.595  19.611 -0.3678 -0.1217 -0.0535
 3893G1HHO Tail45960  17.468  14.366  19.794 -0.1214 -0.0509  0.2426
 3893G1HHO Tail45961  17.196  14.348  19.965 -0.0188  0.4445 -0.0810
 3893G1HHO Tail45962  16.847  14.583  19.979  0.1430 -0.3862 -0.4919
 3893G1HHO Tail45963  17.799  14.778  19.865  0.3894  0.2604 -0.0471
 3893G1HHO Tail45964  18.091  14.857  19.917  0.2618  0.2815 -0.2835
 3893G1HHO Tail45965  18.511  14.754  19.839 -0.0823  0.1546  0.1009
 3894G1HHO Head45966  17.299  20.245  23.550 -0.0820 -0.1960  0.4709
 3894G1HHO Head45967  17.303  20.495  23.372  0.4007 -0.4159 -0.1883
 3894G1HHO Head45968  16.818  20.319  23.250  0.4598 -0.1026  0.6216
 3894G1HHO Head45969  16.956  20.535  23.176 -0.0340 -0.0845 -0.4373
 3894G1HHO link45970  17.201  20.475  23.134 -0.2175 -0.2196  0.0327
 3894G1HHO link45971  17.265  20.272  22.945  0.1339 -0.0558  0.4286
 3894G1HHO Tail45972  17.041  20.184  22.715  0.1861 -0.0103  0.1960
 3894G1HHO Tail45973  16.882  19.961  22.923  0.0485 -0.1690  0.2324
 3894G1HHO Tail45974  16.957  19.665  22.985 -0.5440 -0.1167 -0.1303
 3894G1HHO Tail45975  16.944  19.359  23.283 -0.2539 -0.0730 -0.3969
 3894G1HHO Tail45976  16.837  20.465  22.694  0.1608  0.5210  0.0852
 3894G1HHO Tail45977  16.582  20.569  22.519 -0.2769  0.0544 -0.1579
 3894G1HHO Tail45978  16.361  20.945  22.512  0.1600 -0.1763  0.2366
 3895G1HHO Head45979  13.359  15.306  21.688  0.4523 -0.2742  0.1063
 3895G1HHO Head45980  13.680  15.229  21.653 -0.0626  0.0649  0.1129
 3895G1HHO Head45981  13.988  15.322  22.221 -0.0168 -0.1085  0.2169
 3895G1HHO Head45982  13.970  15.210  21.936 -0.3220 -0.3837  0.2193
 3895G1HHO link45983  13.874  15.376  21.744 -0.0601 -0.1180  0.0800
 3895G1HHO link45984  14.014  15.541  21.560  0.2085  0.1729  0.0080
 3895G1HHO Tail45985  14.353  15.568  21.564  0.0905  0.4639 -0.2597
 3895G1HHO Tail45986  14.466  15.413  21.291  0.1145  0.3149 -0.0737
 3895G1HHO Tail45987  14.372  15.202  21.083  0.2443 -0.0239  0.3713
 3895G1HHO Tail45988  14.071  15.136  20.772 -0.0150  0.1905 -0.3491
 3895G1HHO Tail45989  14.389  15.900  21.461 -0.2128 -0.1793 -0.0081
 3895G1HHO Tail45990  14.572  16.125  21.576  0.4942 -0.3581 -0.3596
 3895G1HHO Tail45991  14.640  16.551  21.602 -0.4241 -0.1717 -0.1597
 3896G1HHO Head45992  19.559  18.345  25.837  0.3420  0.0995  0.1553
 3896G1HHO Head45993  19.375  18.116  25.765  0.3413  0.2362 -0.2275
 3896G1HHO Head45994  19.073  17.964  26.265 -0.1853 -0.0376  0.0153
 3896G1HHO Head45995  19.110  17.896  26.012 -0.0703 -0.0379  0.1217
 3896G1HHO link45996  19.127  18.092  25.841  0.4713 -0.0838 -0.2303
 3896G1HHO link45997  18.919  18.271  25.772 -0.0537 -0.2339 -0.6060
 3896G1HHO Tail45998  18.707  18.212  25.536  0.1691  0.2283  0.5598
 3896G1HHO Tail45999  18.779  18.430  25.269  0.2021  0.1507 -0.2090
 3896G1HHO Tail46000  18.999  18.372  25.029  0.0436  0.0032  0.2057
 3896G1HHO Tail46001  19.337  18.581  24.853 -0.1294  0.2708  0.0075
 3896G1HHO Tail46002  18.852  17.911  25.437  0.0629  0.0865  0.0305
 3896G1HHO Tail46003  18.739  17.617  25.402 -0.1119  0.1305 -0.0405
 3896G1HHO Tail46004  18.722  17.254  25.157 -0.1518  0.3364 -0.1175
 3897G1HHO Head46005  19.899  17.985  18.682 -0.0606  0.0080  0.1199
 3897G1HHO Head46006  19.910  17.840  18.965  0.2371 -0.3479 -0.4098
 3897G1HHO Head46007  20.229  17.204  18.915 -0.2974 -0.1933  0.0551
 3897G1HHO Head46008  20.109  17.467  19.085 -0.4266  0.0305 -0.3343
 3897G1HHO link46009  19.906  17.591  18.975 -0.0459 -0.1793  0.0012
 3897G1HHO link46010  19.682  17.451  18.868  0.3273  0.1371  0.2716
 3897G1HHO Tail46011  19.661  17.131  18.776 -0.1294 -0.0218  0.0710
 3897G1HHO Tail46012  19.855  16.965  19.005  0.2107  0.2662  0.0093
 3897G1HHO Tail46013  19.863  16.983  19.316  0.4807 -0.5511  0.1417
 3897G1HHO Tail46014  19.643  17.158  19.652 -0.0510  0.1352  0.1304
 3897G1HHO Tail46015  19.351  17.065  18.924  0.1835 -0.0012 -0.2548
 3897G1HHO Tail46016  19.215  17.036  19.191  0.1153  0.1412  0.4410
 3897G1HHO Tail46017  19.227  16.759  19.533  0.0153  0.0278 -0.1015
 3898G1HHO Head46018  19.113  19.695  18.760  0.1302  0.3782  0.0629
 3898G1HHO Head46019  19.026  19.407  18.906 -0.4952  0.0957 -0.0197
 3898G1HHO Head46020  18.331  19.508  18.747 -0.2093  0.1123  0.2215
 3898G1HHO Head46021  18.645  19.456  18.751 -0.0307  0.0349 -0.0729
 3898G1HHO link46022  18.773  19.371  18.946 -0.3063 -0.1305 -0.2763
 3898G1HHO link46023  18.682  19.394  19.208 -0.0561 -0.1082 -0.1882
 3898G1HHO Tail46024  18.820  19.572  19.456 -0.0405 -0.0745  0.1988
 3898G1HHO Tail46025  18.951  19.310  19.639 -0.0082 -0.3580  0.1609
 3898G1HHO Tail46026  18.957  19.184  19.942  0.0270 -0.2476 -0.1813
 3898G1HHO Tail46027  19.199  19.101  20.278 -0.1705 -0.1832  0.0121
 3898G1HHO Tail46028  19.122  19.630  19.298 -0.0234 -0.1677 -0.0530
 3898G1HHO Tail46029  19.367  19.463  19.166 -0.1353 -0.1995 -0.0982
 3898G1HHO Tail46030  19.605  19.115  19.260  0.2805  0.2054 -0.1063
 3899G1HHO Head46031  15.478  18.938  22.753  0.2043  0.1814  0.2434
 3899G1HHO Head46032  15.756  18.898  22.895 -0.0424 -0.1920 -0.2353
 3899G1HHO Head46033  16.187  18.528  22.626 -0.3561 -0.1193  0.1831
 3899G1HHO Head46034  15.969  18.768  22.562  0.1440 -0.3345  0.4047
 3899G1HHO link46035  15.978  18.956  22.764  0.7966  0.5590 -0.1328
 3899G1HHO link46036  16.216  19.021  22.892 -0.2385 -0.0107 -0.1773
 3899G1HHO Tail46037  16.290  19.326  23.011  0.1740 -0.0123 -0.2735
 3899G1HHO Tail46038  16.365  19.247  23.345  0.0908  0.1711  0.6897
 3899G1HHO Tail46039  16.193  19.231  23.610  0.4007 -0.0981  0.0477
 3899G1HHO Tail46040  15.967  19.480  23.897  0.0590 -0.0602  0.0848
 3899G1HHO Tail46041  16.611  19.336  22.896  0.0660  0.1620  0.2426
 3899G1HHO Tail46042  16.821  19.130  22.791 -0.4514  0.0829  0.2210
 3899G1HHO Tail46043  17.171  19.143  22.533 -0.1806 -0.4732  0.1998
 3900G1HHO Head46044  17.083  12.716  22.812  0.4370 -0.3379 -0.3659
 3900G1HHO Head46045  17.283  12.878  22.885 -0.0389  0.0190  0.3790
 3900G1HHO Head46046  17.648  12.593  22.974 -0.0727 -0.0210 -0.2087
 3900G1HHO Head46047  17.654  12.836  22.738  0.0729  0.0759  0.0345
 3900G1HHO link46048  17.426  12.974  22.695 -0.2289 -0.1006 -0.0216
 3900G1HHO link46049  17.291  13.071  22.468  0.0584 -0.5365 -0.2323
 3900G1HHO Tail46050  17.429  13.291  22.253 -0.2713 -0.5190  0.0255
 3900G1HHO Tail46051  17.690  13.100  22.136  0.0502 -0.4653  0.0922
 3900G1HHO Tail46052  17.964  13.155  21.989 -0.0299  0.0418 -0.3144
 3900G1HHO Tail46053  18.132  13.443  21.711 -0.1105  0.1399  0.2661
 3900G1HHO Tail46054  17.206  13.282  21.997 -0.1064 -0.4062  0.4081
 3900G1HHO Tail46055  17.200  13.457  21.733  0.1348 -0.0096 -0.0247
 3900G1HHO Tail46056  16.946  13.666  21.438  0.0465 -0.2255  0.2152
 3901G1HHO Head46057  16.496  17.329  19.649  0.1146  0.1784  0.1036
 3901G1HHO Head46058  16.264  17.572  19.660 -0.4082  0.1572  0.1327
 3901G1HHO Head46059  16.173  18.034  20.051 -0.2699  0.1271 -0.0665
 3901G1HHO Head46060  16.407  17.916  19.843  0.2010 -0.4582 -0.3073
 3901G1HHO link46061  16.321  17.821  19.621 -0.1646 -0.3111  0.7612
 3901G1HHO link46062  16.274  17.978  19.383 -0.2677  0.1657  0.0552
 3901G1HHO Tail46063  16.039  18.217  19.347  0.2749  0.2017  0.3013
 3901G1HHO Tail46064  15.898  18.127  19.028 -0.2416 -0.1631 -0.0008
 3901G1HHO Tail46065  15.879  18.251  18.744 -0.0444 -0.1910  0.1158
 3901G1HHO Tail46066  15.629  18.541  18.546  0.2513 -0.2434 -0.2357
 3901G1HHO Tail46067  16.269  18.448  19.276 -0.0966 -0.2886  0.0968
 3901G1HHO Tail46068  16.251  18.745  19.162 -0.0409  0.3413  0.0755
 3901G1HHO Tail46069  15.968  19.067  19.101  0.1865  0.1857  0.2161
 3902G1HHO Head46070  12.735  17.765  21.110 -0.2442 -0.0748  0.0088
 3902G1HHO Head46071  13.022  17.804  21.021 -0.2598 -0.0284 -0.0449
 3902G1HHO Head46072  12.811  17.332  20.762  0.0224  0.0250  0.0579
 3902G1HHO Head46073  13.012  17.544  20.699  0.1772  0.2210 -0.2310
 3902G1HHO link46074  13.162  17.611  20.911 -0.0386  0.3559  0.2066
 3902G1HHO link46075  13.439  17.575  20.931 -0.5478 -0.0183  0.2130
 3902G1HHO Tail46076  13.641  17.586  20.674  0.5252  0.2306  0.0607
 3902G1HHO Tail46077  13.748  17.265  20.646  0.0726 -0.0430  0.0137
 3902G1HHO Tail46078  13.807  17.098  20.380  0.4348 -0.2583  0.1895
 3902G1HHO Tail46079  14.105  16.789  20.286  0.3349 -0.0803  0.0207
 3902G1HHO Tail46080  13.397  17.571  20.404 -0.4355 -0.0916  0.3568
 3902G1HHO Tail46081  13.158  17.774  20.264  0.0367  0.2204  0.0082
 3902G1HHO Tail46082  12.752  17.923  20.326  0.1088 -0.0127 -0.0403
 3903G1HHO Head46083  12.755  16.868  21.082  0.1380  0.0887  0.1628
 3903G1HHO Head46084  12.884  16.732  20.791  0.1314 -0.1516  0.0678
 3903G1HHO Head46085  12.610  16.254  21.137 -0.0755 -0.3457 -0.2530
 3903G1HHO Head46086  12.873  16.409  21.048 -0.1837  0.2579  0.0222
 3903G1HHO link46087  12.924  16.471  20.801 -0.6503  0.1973  0.0983
 3903G1HHO link46088  13.082  16.308  20.617 -0.1978 -0.2195 -0.0998
 3903G1HHO Tail46089  13.404  16.331  20.549  0.1464 -0.2509  0.0286
 3903G1HHO Tail46090  13.449  16.675  20.529  0.3341  0.1063  0.2370
 3903G1HHO Tail46091  13.357  16.928  20.340  0.3767  0.2493 -0.4872
 3903G1HHO Tail46092  13.521  17.201  20.065 -0.1680  0.1108 -0.0183
 3903G1HHO Tail46093  13.583  16.288  20.851  0.0433  0.1331 -0.3070
 3903G1HHO Tail46094  13.898  16.211  20.937  0.2612 -0.0841  0.3623
 3903G1HHO Tail46095  14.287  16.288  20.789 -0.0405  0.1991  0.1425
 3904G1HHO Head46096  15.439  17.001  17.988  0.3611  0.2972 -0.0839
 3904G1HHO Head46097  15.746  17.102  18.029  0.0664  0.3005  0.2158
 3904G1HHO Head46098  15.461  17.491  17.889 -0.2280 -0.0130 -0.0818
 3904G1HHO Head46099  15.733  17.431  17.757 -0.0754  0.4483  0.0623
 3904G1HHO link46100  15.888  17.216  17.836  0.0555  0.0260  0.1200
 3904G1HHO link46101  16.167  17.195  17.816 -0.2587 -0.2853 -0.0469
 3904G1HHO Tail46102  16.356  17.141  18.086 -0.1805 -0.1891 -0.1862
 3904G1HHO Tail46103  16.113  17.218  18.324 -0.0461 -0.1602 -0.4808
 3904G1HHO Tail46104  16.084  17.479  18.544 -0.2997 -0.1380  0.2404
 3904G1HHO Tail46105  15.748  17.710  18.706 -0.1638 -0.0903  0.2529
 3904G1HHO Tail46106  16.377  16.775  18.082  0.2383 -0.3527  0.3842
 3904G1HHO Tail46107  16.584  16.568  18.208 -0.0947  0.3169 -0.1953
 3904G1HHO Tail46108  17.019  16.542  18.261 -0.0829 -0.1957 -0.3219
 3905G1HHO Head46109  17.949  17.033  25.548 -0.2051  0.0970 -0.0882
 3905G1HHO Head46110  17.765  17.256  25.679  0.1239  0.0921  0.1208
 3905G1HHO Head46111  17.172  17.589  25.533 -0.1229  0.1474 -0.0694
 3905G1HHO Head46112  17.406  17.476  25.667 -0.4296 -0.0010  0.2034
 3905G1HHO link46113  17.598  17.357  25.518  0.1218 -0.3736 -0.2527
 3905G1HHO link46114  17.625  17.355  25.240  0.0878  0.5599  0.3078
 3905G1HHO Tail46115  17.677  17.659  25.076 -0.0897 -0.1435 -0.5663
 3905G1HHO Tail46116  17.909  17.795  25.277  0.2397 -0.2986  0.1288
 3905G1HHO Tail46117  17.928  18.074  25.438  0.0800  0.3314 -0.2086
 3905G1HHO Tail46118  17.976  18.237  25.833  0.3840 -0.0527 -0.2094
 3905G1HHO Tail46119  17.878  17.579  24.805  0.0897 -0.0499 -0.3335
 3905G1HHO Tail46120  17.828  17.626  24.505  0.2788  0.0392  0.2078
 3905G1HHO Tail46121  18.005  17.706  24.115  0.0294  0.1982  0.0699
 3906G1HHO Head46122  18.229  17.266  25.904 -0.0978  0.1694 -0.0253
 3906G1HHO Head46123  18.167  17.446  25.655 -0.0881 -0.2785 -0.2299
 3906G1HHO Head46124  18.659  17.229  25.660  0.0386 -0.1233  0.3523
 3906G1HHO Head46125  18.435  17.200  25.481 -0.1211 -0.0785  0.2900
 3906G1HHO link46126  18.309  17.399  25.438  0.1656 -0.2616 -0.3193
 3906G1HHO link46127  18.284  17.511  25.174 -0.1971 -0.2043 -0.1743
 3906G1HHO Tail46128  18.350  17.820  25.082  0.0113  0.0984 -0.0166
 3906G1HHO Tail46129  18.343  17.980  25.390  0.0637  0.1517 -0.0223
 3906G1HHO Tail46130  18.407  17.902  25.696 -0.2708  0.2469  0.1327
 3906G1HHO Tail46131  18.659  17.632  25.923 -0.0688  0.2593 -0.3117
 3906G1HHO Tail46132  18.696  17.787  25.011 -0.0972  0.1948  0.2762
 3906G1HHO Tail46133  18.888  17.601  24.814 -0.2492  0.0007 -0.0533
 3906G1HHO Tail46134  19.299  17.538  24.678  0.5885  0.1433  0.2790
 3907G1HHO Head46135  16.122  14.730  18.498 -0.0286  0.0943  0.3393
 3907G1HHO Head46136  15.948  14.710  18.270  0.1905  0.2739 -0.2231
 3907G1HHO Head46137  16.051  15.023  17.633  0.1489  0.0331 -0.1356
 3907G1HHO Head46138  15.937  14.833  17.861  0.2415  0.0097 -0.0131
 3907G1HHO link46139  15.890  14.909  18.093  0.2988 -0.0899 -0.2715
 3907G1HHO link46140  15.886  15.177  18.173  0.2376  0.0349 -0.0067
 3907G1HHO Tail46141  15.839  15.270  18.483  0.2646  0.1637 -0.1383
 3907G1HHO Tail46142  15.690  14.974  18.594  0.3724  0.0756 -0.3919
 3907G1HHO Tail46143  15.727  14.713  18.750  0.2504  0.0491  0.1864
 3907G1HHO Tail46144  16.015  14.539  19.009 -0.2311  0.2688 -0.2347
 3907G1HHO Tail46145  16.169  15.255  18.605  0.0500 -0.0657 -0.2180
 3907G1HHO Tail46146  16.427  15.447  18.592 -0.1499 -0.0739 -0.3789
 3907G1HHO Tail46147  16.823  15.427  18.437  0.1128 -0.0091 -0.1249
 3908G1HHO Head46148  19.651  17.662  18.175  0.3018 -0.1658  0.1469
 3908G1HHO Head46149  19.524  17.460  18.372  0.1673  0.2616  0.0976
 3908G1HHO Head46150  19.431  17.931  18.775  0.1623 -0.0177  0.2995
 3908G1HHO Head46151  19.328  17.773  18.540 -0.0452  0.4536  0.3724
 3908G1HHO link46152  19.335  17.514  18.549  0.4050 -0.1380  0.1921
 3908G1HHO link46153  19.101  17.362  18.576  0.0515  0.1484  0.2065
 3908G1HHO Tail46154  18.874  17.520  18.755 -0.2354  0.2667  0.0118
 3908G1HHO Tail46155  18.852  17.828  18.580 -0.1877 -0.0040 -0.0653
 3908G1HHO Tail46156  18.648  18.068  18.578  0.3547  0.2680  0.0995
 3908G1HHO Tail46157  18.252  18.190  18.699  0.1235  0.0976 -0.2914
 3908G1HHO Tail46158  18.587  17.346  18.640 -0.0896 -0.1781  0.1063
 3908G1HHO Tail46159  18.304  17.408  18.491  0.0177  0.1577 -0.5152
 3908G1HHO Tail46160  17.929  17.590  18.602  0.0233 -0.0791 -0.0197
 3909G1HHO Head46161  18.618  20.868  21.803 -0.2791  0.3989  0.2997
 3909G1HHO Head46162  18.430  20.801  21.554 -0.1521  0.2719  0.1198
 3909G1HHO Head46163  18.169  20.463  21.342  0.0703  0.0441  0.0548
 3909G1HHO Head46164  18.035  20.718  21.483  0.2029  0.1015  0.0535
 3909G1HHO link46165  18.184  20.918  21.574  0.0517 -0.3395  0.2454
 3909G1HHO link46166  18.137  21.176  21.461  0.5497  0.2201 -0.1707
 3909G1HHO Tail46167  18.085  21.204  21.138  0.2959 -0.0836 -0.1430
 3909G1HHO Tail46168  18.410  21.225  21.046  0.2236  0.1006  0.1558
 3909G1HHO Tail46169  18.577  21.096  20.800  0.2519  0.0308  0.1053
 3909G1HHO Tail46170  18.718  20.729  20.602  0.0919  0.1276 -0.0792
 3909G1HHO Tail46171  18.028  20.870  21.072 -0.1708  0.2375  0.2669
 3909G1HHO Tail46172  17.817  20.628  21.113 -0.3484 -0.3849  0.1812
 3909G1HHO Tail46173  17.386  20.564  21.074  0.0653 -0.1271  0.0379
 3910G1HHO Head46174  18.309  15.798  24.972 -0.1565  0.3570 -0.5093
 3910G1HHO Head46175  18.345  15.574  24.808  0.2271 -0.0880 -0.0880
 3910G1HHO Head46176  17.985  15.348  25.144  0.2320  0.2429  0.2643
 3910G1HHO Head46177  18.212  15.227  24.950  0.2745  0.1396  0.1080
 3910G1HHO link46178  18.433  15.348  24.914  0.0961 -0.3215 -0.1965
 3910G1HHO link46179  18.669  15.221  24.804  0.0289 -0.0290 -0.1503
 3910G1HHO Tail46180  18.739  15.228  24.480 -0.0126  0.2526 -0.0412
 3910G1HHO Tail46181  18.423  15.121  24.367 -0.0345 -0.1690 -0.3271
 3910G1HHO Tail46182  18.309  15.061  24.097  0.1253  0.9155 -0.0177
 3910G1HHO Tail46183  18.406  14.885  23.711  0.1305  0.2917 -0.0314
 3910G1HHO Tail46184  18.691  15.569  24.417 -0.1785  0.0116 -0.1568
 3910G1HHO Tail46185  18.782  15.766  24.198 -0.1923  0.1703 -0.0187
 3910G1HHO Tail46186  18.647  15.957  23.841 -0.1713 -0.2657 -0.1547
 3911G1HHO Head46187  19.365  13.647  21.037 -0.1084  0.1083 -0.0516
 3911G1HHO Head46188  19.194  13.817  21.202  0.2356  0.0608 -0.1494
 3911G1HHO Head46189  18.793  13.943  20.768  0.1608 -0.0274 -0.0078
 3911G1HHO Head46190  18.895  13.732  20.935  0.0658 -0.0308  0.2924
 3911G1HHO link46191  18.934  13.771  21.181  0.1123 -0.3533 -0.0433
 3911G1HHO link46192  18.734  13.811  21.386 -0.0070 -0.1222 -0.0218
 3911G1HHO Tail46193  18.508  14.045  21.315 -0.0527  0.1293  0.0933
 3911G1HHO Tail46194  18.251  13.941  21.528  0.2245  0.1746  0.0572
 3911G1HHO Tail46195  17.950  14.021  21.609  0.4277  0.3096  0.1546
 3911G1HHO Tail46196  17.746  14.218  21.932 -0.2918  0.1485 -0.1814
 3911G1HHO Tail46197  18.635  14.299  21.499 -0.0169  0.0254  0.1682
 3911G1HHO Tail46198  18.523  14.590  21.545  0.0984 -0.0160 -0.1148
 3911G1HHO Tail46199  18.539  14.971  21.379 -0.1717 -0.0877  0.4830
 3912G1HHO Head46200  15.409  16.522  20.622 -0.0076 -0.4247  0.1728
 3912G1HHO Head46201  15.276  16.360  20.807  0.0250  0.1514 -0.0185
 3912G1HHO Head46202  15.742  16.488  20.985 -0.2926  0.0673 -0.0234
 3912G1HHO Head46203  15.517  16.328  21.128  0.1756 -0.4227 -0.1778
 3912G1HHO link46204  15.284  16.412  21.076 -0.1130  0.3179  0.2573
 3912G1HHO link46205  15.082  16.390  21.273  0.0968  0.3077 -0.2567
 3912G1HHO Tail46206  15.045  16.132  21.465 -0.6290  0.0983  0.0500
 3912G1HHO Tail46207  15.365  15.975  21.412 -0.0543  0.0495 -0.2263
 3912G1HHO Tail46208  15.496  15.699  21.303 -0.1805 -0.0928  0.2096
 3912G1HHO Tail46209  15.376  15.333  21.093  0.0197 -0.0476  0.3620
 3912G1HHO Tail46210  15.069  16.266  21.794 -0.0648  0.0897  0.0153
 3912G1HHO Tail46211  14.888  16.282  22.063  0.1655 -0.2706 -0.1273
 3912G1HHO Tail46212  14.555  16.537  22.212  0.0532  0.3961 -0.1888
 3913G1HHO Head46213  16.487  14.677  23.505 -0.1000  0.1030  0.2802
 3913G1HHO Head46214  16.499  14.408  23.451  0.0316  0.2183 -0.2031
 3913G1HHO Head46215  17.122  14.035  23.490  0.0490 -0.2453  0.0935
 3913G1HHO Head46216  16.801  14.116  23.466 -0.2847 -0.5888 -0.0469
 3913G1HHO link46217  16.698  14.300  23.301 -0.0333 -0.0802 -0.3094
 3913G1HHO link46218  16.780  14.379  23.044 -0.3950  0.2375 -0.0104
 3913G1HHO Tail46219  16.588  14.570  22.856  0.1706  0.0642  0.0373
 3913G1HHO Tail46220  16.725  14.908  22.913  0.0164 -0.2059 -0.2369
 3913G1HHO Tail46221  16.672  15.146  23.133 -0.6856  0.0025  0.0604
 3913G1HHO Tail46222  16.353  15.347  23.343 -0.0328 -0.2205  0.0040
 3913G1HHO Tail46223  16.740  14.505  22.539 -0.3666 -0.1222  0.0210
 3913G1HHO Tail46224  16.847  14.250  22.393  0.0008 -0.3318  0.0721
 3913G1HHO Tail46225  16.735  13.908  22.160  0.1830  0.1389  0.3137
 3914G1HHO Head46226  17.113  16.611  20.564  0.1630 -0.2007  0.0321
 3914G1HHO Head46227  17.334  16.760  20.364  0.2513  0.1942 -0.2488
 3914G1HHO Head46228  16.886  16.758  20.123  0.2456 -0.0064 -0.0727
 3914G1HHO Head46229  17.166  16.711  19.978  0.1983 -0.2976 -0.0828
 3914G1HHO link46230  17.376  16.672  20.127  0.1234 -0.0870 -0.4759
 3914G1HHO link46231  17.624  16.662  20.011 -0.1315  0.2591  0.2387
 3914G1HHO Tail46232  17.667  16.534  19.702 -0.2667 -0.1607 -0.1612
 3914G1HHO Tail46233  17.648  16.817  19.511 -0.1004 -0.3385  0.2249
 3914G1HHO Tail46234  17.621  16.908  19.212  0.1991 -0.3973  0.3917
 3914G1HHO Tail46235  17.759  17.253  18.978  0.0457  0.0132  0.1129
 3914G1HHO Tail46236  18.020  16.469  19.717 -0.0126 -0.0399  0.1743
 3914G1HHO Tail46237  18.226  16.309  19.929  0.2742  0.0123  0.3197
 3914G1HHO Tail46238  18.637  16.194  19.982 -0.2664  0.0876  0.0180
 3915G1HHO Head46239  20.819  20.020  21.014 -0.2537  0.2473 -0.5244
 3915G1HHO Head46240  20.756  19.797  20.814  0.0451  0.0547 -0.0502
 3915G1HHO Head46241  20.596  19.667  21.349  0.1975 -0.1541 -0.3005
 3915G1HHO Head46242  20.760  19.521  21.131  0.5081  0.0415 -0.0534
 3915G1HHO link46243  20.690  19.554  20.895  0.1579  0.3849  0.7162
 3915G1HHO link46244  20.655  19.330  20.701 -0.4738 -0.0422  0.3613
 3915G1HHO Tail46245  20.528  19.035  20.754  0.4739 -0.1521  0.3668
 3915G1HHO Tail46246  20.212  19.087  20.595 -0.0491 -0.1139 -0.4543
 3915G1HHO Tail46247  20.053  19.230  20.350  0.1305  0.2236 -0.0693
 3915G1HHO Tail46248  19.746  19.199  20.032  0.0312 -0.1017 -0.2884
 3915G1HHO Tail46249  20.659  18.862  20.476 -0.0860 -0.2501  0.0386
 3915G1HHO Tail46250  20.674  18.575  20.365 -0.0983 -0.1173 -0.3583
 3915G1HHO Tail46251  20.444  18.280  20.140 -0.1742 -0.2927  0.2871
 3916G1HHO Head46252  13.364  18.385  22.597  0.2474 -0.2577 -0.1293
 3916G1HHO Head46253  13.259  18.516  22.301  0.2725  0.3749 -0.2147
 3916G1HHO Head46254  13.006  18.048  22.415 -0.0265 -0.0138  0.1083
 3916G1HHO Head46255  13.206  18.111  22.201 -0.3602 -0.1201 -0.2245
 3916G1HHO link46256  13.202  18.347  22.088  0.5867 -0.2501  0.0086
 3916G1HHO link46257  13.294  18.382  21.825  0.0038 -0.0765  0.2785
 3916G1HHO Tail46258  13.106  18.446  21.567  0.2462 -0.1190 -0.0093
 3916G1HHO Tail46259  13.301  18.654  21.387 -0.0593 -0.2452 -0.1554
 3916G1HHO Tail46260  13.587  18.758  21.397  0.3278  0.0611  0.0465
 3916G1HHO Tail46261  13.827  19.027  21.634  0.0125  0.3393 -0.0200
 3916G1HHO Tail46262  13.190  18.175  21.362  0.0218 -0.2153 -0.0031
 3916G1HHO Tail46263  13.391  18.140  21.114  0.3678  0.1101  0.3554
 3916G1HHO Tail46264  13.429  18.111  20.681 -0.0855  0.1618 -0.1179
 3917G1HHO Head46265  15.154  16.788  18.744  0.3063 -0.0868 -0.3751
 3917G1HHO Head46266  14.926  16.529  18.646  0.3941  0.0786  0.0392
 3917G1HHO Head46267  15.023  16.852  18.178 -0.2164 -0.3288  0.1266
 3917G1HHO Head46268  14.914  16.564  18.254  0.2078 -0.0251  0.3992
 3917G1HHO link46269  14.736  16.562  18.463 -0.5850 -0.4567 -0.0165
 3917G1HHO link46270  14.516  16.726  18.506  0.1239 -0.4659 -0.1395
 3917G1HHO Tail46271  14.509  16.971  18.730 -0.0687  0.4617 -0.1755
 3917G1HHO Tail46272  14.781  17.149  18.636 -0.1974 -0.2674  0.0289
 3917G1HHO Tail46273  14.988  17.351  18.780 -0.0480  0.2903  0.5264
 3917G1HHO Tail46274  15.141  17.430  19.170  0.2200  0.1222  0.2100
 3917G1HHO Tail46275  14.222  17.150  18.614  0.1357  0.0919  0.2816
 3917G1HHO Tail46276  14.164  17.444  18.530  0.5483  0.4588 -0.1828
 3917G1HHO Tail46277  13.887  17.769  18.618  0.0544  0.2773 -0.2510
 3918G1HHO Head46278  14.154  14.213  20.764 -0.2739  0.2161 -0.1659
 3918G1HHO Head46279  14.090  14.254  21.088 -0.1510  0.0027  0.2604
 3918G1HHO Head46280  13.685  14.807  21.071 -0.1134 -0.0353  0.0980
 3918G1HHO Head46281  13.835  14.556  21.235 -0.3817  0.1851 -0.0417
 3918G1HHO link46282  14.086  14.504  21.203 -0.1128 -0.0349 -0.0164
 3918G1HHO link46283  14.279  14.704  21.221 -0.0532  0.0304 -0.1239
 3918G1HHO Tail46284  14.607  14.636  21.189  0.3596 -0.2317 -0.2162
 3918G1HHO Tail46285  14.630  14.284  21.112 -0.0894 -0.2375 -0.0079
 3918G1HHO Tail46286  14.832  14.051  21.094 -0.3712  0.0676  0.2490
 3918G1HHO Tail46287  15.175  13.872  20.886  0.0006 -0.1128  0.0338
 3918G1HHO Tail46288  14.633  14.763  20.883 -0.0431 -0.1810  0.1721
 3918G1HHO Tail46289  14.740  15.052  20.772 -0.0971  0.2409 -0.2799
 3918G1HHO Tail46290  14.935  15.217  20.435 -0.0985 -0.2662 -0.2683
 3919G1HHO Head46291  20.871  16.193  23.084  0.2627  0.1825  0.1586
 3919G1HHO Head46292  20.739  16.235  23.362  0.6315  0.4452 -0.2902
 3919G1HHO Head46293  20.993  16.707  23.269 -0.1000  0.1166 -0.2078
 3919G1HHO Head46294  20.758  16.615  23.476 -0.4122 -0.1309  0.3663
 3919G1HHO link46295  20.580  16.432  23.403  0.5292 -0.3239 -0.1745
 3919G1HHO link46296  20.318  16.480  23.314 -0.0441  0.0803  0.2172
 3919G1HHO Tail46297  20.262  16.384  22.999  0.0596  0.1538 -0.3170
 3919G1HHO Tail46298  19.942  16.264  23.053 -0.2216  0.1216 -0.5520
 3919G1HHO Tail46299  19.814  15.975  23.041 -0.0914 -0.2142 -0.0423
 3919G1HHO Tail46300  19.459  15.717  23.063  0.1938  0.1324  0.2545
 3919G1HHO Tail46301  20.209  16.711  22.867 -0.0831  0.0533  0.1780
 3919G1HHO Tail46302  20.406  16.949  22.733 -0.1180  0.0621  0.1489
 3919G1HHO Tail46303  20.828  17.039  22.752  0.1191 -0.4749  0.1989
 3920G1HHO Head46304  13.861  14.485  20.203  0.3170 -0.0380 -0.3407
 3920G1HHO Head46305  13.789  14.464  19.942  0.3641 -0.0454  0.1892
 3920G1HHO Head46306  13.716  13.985  19.621 -0.0613  0.2188 -0.2749
 3920G1HHO Head46307  13.811  14.303  19.552  0.0361  0.1720 -0.2160
 3920G1HHO link46308  13.955  14.429  19.737  0.6447 -0.0826  0.7426
 3920G1HHO link46309  14.178  14.599  19.698  0.0803 -0.2234  0.0261
 3920G1HHO Tail46310  14.422  14.631  19.910 -0.0530  0.2788  0.2656
 3920G1HHO Tail46311  14.677  14.813  19.756  0.4804  0.0535 -0.1381
 3920G1HHO Tail46312  14.808  14.783  19.458 -0.0404 -0.0055  0.0828
 3920G1HHO Tail46313  14.988  14.502  19.175 -0.3789  0.0343  0.0776
 3920G1HHO Tail46314  14.261  14.793  20.166  0.4385  0.0119  0.0688
 3920G1HHO Tail46315  14.261  15.090  20.256  0.0716  0.1220  0.3734
 3920G1HHO Tail46316  14.482  15.349  20.536 -0.2546 -0.2179  0.0767
 3921G1HHO Head46317  17.602  18.117  22.482  0.1010  0.0804 -0.1118
 3921G1HHO Head46318  17.913  18.199  22.681 -0.2865  0.2546 -0.0736
 3921G1HHO Head46319  18.493  18.083  22.234  0.1023  0.0526 -0.7011
 3921G1HHO Head46320  18.293  18.040  22.482 -0.2822  0.5138  0.0112
 3921G1HHO link46321  18.173  18.237  22.589 -0.4090 -0.1548  0.1833
 3921G1HHO link46322  18.309  18.473  22.646  0.0051 -0.0172  0.0720
 3921G1HHO Tail46323  18.241  18.621  22.913 -0.3725 -0.5113  0.0325
 3921G1HHO Tail46324  17.997  18.444  23.065 -0.0773  0.1216  0.3506
 3921G1HHO Tail46325  18.020  18.205  23.279 -0.0799 -0.0043 -0.0926
 3921G1HHO Tail46326  17.907  18.094  23.674  0.2506  0.3497 -0.0696
 3921G1HHO Tail46327  18.529  18.546  23.087 -0.4827  0.1594  0.2326
 3921G1HHO Tail46328  18.589  18.424  23.384 -0.0019  0.0107 -0.3325
 3921G1HHO Tail46329  18.725  18.062  23.588  0.1637 -0.0770 -0.1401
 3922G1HHO Head46330  16.354  20.211  20.561  0.1689 -0.0464  0.1461
 3922G1HHO Head46331  16.565  19.972  20.526 -0.2264 -0.4371  0.0531
 3922G1HHO Head46332  16.545  19.297  20.842  0.1849  0.2188 -0.1091
 3922G1HHO Head46333  16.533  19.577  20.665 -0.0249 -0.1167  0.4023
 3922G1HHO link46334  16.668  19.798  20.721 -0.0296  0.0774  0.1962
 3922G1HHO link46335  16.814  19.852  20.952 -0.3378 -0.0534 -0.2106
 3922G1HHO Tail46336  16.847  20.152  21.070  0.3984  0.1788 -0.1012
 3922G1HHO Tail46337  16.938  20.339  20.804 -0.1088 -0.3085  0.3213
 3922G1HHO Tail46338  17.182  20.371  20.615 -0.0978 -0.3008 -0.1725
 3922G1HHO Tail46339  17.605  20.485  20.635  0.0403  0.0037 -0.0544
 3922G1HHO Tail46340  16.496  20.226  21.055 -0.3881 -0.1958 -0.0713
 3922G1HHO Tail46341  16.244  20.098  21.190  0.2963 -0.0565 -0.0909
 3922G1HHO Tail46342  15.879  20.222  21.384  0.5192 -0.2441  0.2943
 3923LEFLG Drug46343  15.687  19.700  20.637 -0.1910 -0.2606  0.4639
 3923LEFLG Drug46344  15.902  19.502  20.675  0.0241 -0.1037  0.0859
 3923LEFLG Drug46345  15.811  19.377  20.557 -0.0360 -0.1264  0.1559
 3923LEFLG Drug46346  15.663  19.412  20.369 -0.1401 -0.0039  0.1835
 3923LEFLG Drug46347  15.425  19.323  20.386 -0.1535  0.0092  0.5047
 3923LEFLG Drug46348  15.381  19.599  20.289 -0.0532 -0.2372 -0.2820
 3923LEFLG Drug46349  15.217  19.385  20.410 -0.3434 -0.1515 -0.5201
 3923LEFLG Drug46350  15.056  19.545  20.378  0.0859 -0.1935 -0.8532
 3924LEFLG Drug46351  17.975  13.912  20.714  0.0611 -0.0814  0.0904
 3924LEFLG Drug46352  18.228  13.883  20.566  0.1784  0.3698  0.1927
 3924LEFLG Drug46353  18.152  13.974  20.412 -0.0507 -0.0901  0.0229
 3924LEFLG Drug46354  17.947  14.099  20.397 -0.1579 -0.2399 -0.0316
 3924LEFLG Drug46355  17.744  13.978  20.285 -0.0502  0.0166  0.1012
 3924LEFLG Drug46356  17.792  14.182  20.077  0.3579  0.4402  0.5994
 3924LEFLG Drug46357  17.661  13.917  20.092  0.2180  0.4566 -0.1586
 3924LEFLG Drug46358  17.657  13.931  19.868  0.0940  0.2010  0.3086
 3925LEFLG Drug46359  14.283  17.848  18.511 -0.0227  0.5207 -0.3181
 3925LEFLG Drug46360  14.346  17.727  18.251  0.0809  0.4163 -0.2447
 3925LEFLG Drug46361  14.353  17.903  18.167 -0.2136  0.3652 -0.3823
 3925LEFLG Drug46362  14.202  18.075  18.207  0.3468 -0.1048  0.3771
 3925LEFLG Drug46363  14.233  18.218  18.438  0.2274 -0.0130  0.0111
 3925LEFLG Drug46364  14.473  18.299  18.286 -0.0348  0.2985 -0.2457
 3925LEFLG Drug46365  14.331  18.390  18.529  0.4423 -0.2627  0.2590
 3925LEFLG Drug46366  14.517  18.517  18.549 -0.2689  0.3645  0.4643
 3926LEFLG Drug46367  17.493  19.634  20.705 -0.2753  0.2960 -0.1122
 3926LEFLG Drug46368  17.559  19.665  20.990 -0.3366 -0.0926 -0.0535
 3926LEFLG Drug46369  17.709  19.782  20.946 -0.1977 -0.2001  0.1276
 3926LEFLG Drug46370  17.836  19.762  20.749 -0.1488 -0.4200  0.1017
 3926LEFLG Drug46371  18.098  19.758  20.750 -0.2922  0.0157 -0.2002
 3926LEFLG Drug46372  18.050  20.048  20.720  0.2944  0.1691  0.2468
 3926LEFLG Drug46373  18.280  19.864  20.690  0.0353 -0.1835  0.4010
 3926LEFLG Drug46374  18.384  20.048  20.589  0.1665  0.3406  0.5377
 3927LEFLG Drug46375  15.865  18.198  19.769  0.1565 -0.5413  0.2009
 3927LEFLG Drug46376  16.145  18.276  19.719  0.0673 -0.0762  0.4107
 3927LEFLG Drug46377  16.087  18.453  19.660 -0.2181 -0.3005 -0.0099
 3927LEFLG Drug46378  15.894  18.571  19.721  0.1124 -0.2902  0.1666
 3927LEFLG Drug46379  15.898  18.843  19.649 -0.3897  0.1171  0.5725
 3927LEFLG Drug46380  16.135  18.842  19.827 -0.1217  0.1655  0.2207
 3927LEFLG Drug46381  16.010  19.031  19.636 -0.2385  0.0020  0.1344
 3927LEFLG Drug46382  16.139  19.187  19.743  0.2041  0.1431  0.5511
 3928LEFLG Drug46383  17.006  15.415  19.476  0.0619 -0.1008  0.3130
 3928LEFLG Drug46384  16.950  15.610  19.689 -0.2542  0.1099  0.0407
 3928LEFLG Drug46385  16.766  15.548  19.701 -0.2846  0.1481 -0.1948
 3928LEFLG Drug46386  16.660  15.359  19.595  0.3416 -0.0411  0.4847
 3928LEFLG Drug46387  16.795  15.152  19.494  0.0954  0.1692  0.0149
 3928LEFLG Drug46388  16.652  15.232  19.248 -0.0771 -0.1688  0.0024
 3928LEFLG Drug46389  16.786  14.988  19.350 -0.0120 -0.0329  0.2468
 3928LEFLG Drug46390  16.699  14.887  19.146 -0.2145 -0.5602 -0.0637
 3929LEFLG Drug46391  16.327  15.683  18.223 -0.1124 -0.0260  0.1973
 3929LEFLG Drug46392  16.295  15.905  18.031  0.0467 -0.3441 -0.2043
 3929LEFLG Drug46393  16.279  16.032  18.177 -0.1468 -0.1067 -0.4287
 3929LEFLG Drug46394  16.371  16.020  18.402  0.2727  0.2980 -0.1321
 3929LEFLG Drug46395  16.292  16.210  18.577  0.1589 -0.1570 -0.1353
 3929LEFLG Drug46396  16.273  16.385  18.339 -0.0949  0.3495  0.2465
 3929LEFLG Drug46397  16.196  16.401  18.624 -0.1146 -0.3923  0.2929
 3929LEFLG Drug46398  16.162  16.625  18.572  0.0653 -0.5271  0.5047
 3930LEFLG Drug46399  17.448  20.619  19.705  0.0494 -0.4981  0.1074
 3930LEFLG Drug46400  17.654  20.778  19.843  0.0868 -0.2351 -0.2459
 3930LEFLG Drug46401  17.750  20.616  19.892  0.1356 -0.1404 -0.0232
 3930LEFLG Drug46402  17.667  20.387  19.885 -0.2526  0.1690 -0.0329
 3930LEFLG Drug46403  17.697  20.224  20.097  0.4021  0.2669 -0.4626
 3930LEFLG Drug46404  17.894  20.433  20.167  0.3005  0.2438 -0.1055
 3930LEFLG Drug46405  17.748  20.218  20.309 -0.2196  0.4613 -0.2986
 3930LEFLG Drug46406  17.906  20.268  20.486 -0.0886  0.1138  0.8614
 3931LEFLG Drug46407  20.171  15.064  20.404  0.0482  0.0416 -0.1303
 3931LEFLG Drug46408  20.136  15.219  20.651  0.0239 -0.0772 -0.0583
 3931LEFLG Drug46409  19.943  15.201  20.639  0.0210 -0.0037 -0.1302
 3931LEFLG Drug46410  19.806  15.095  20.478 -0.3619 -0.0894 -0.2386
 3931LEFLG Drug46411  19.552  15.062  20.533 -0.3649 -0.1866  0.0965
 3931LEFLG Drug46412  19.669  14.931  20.771  0.0280  0.0737  0.0515
 3931LEFLG Drug46413  19.405  15.039  20.693 -0.0641  0.1238  0.4263
 3931LEFLG Drug46414  19.342  14.996  20.905 -0.1562 -0.0521 -0.6062
 3932LEFLG Drug46415  17.320  19.618  24.098  0.1118 -0.0778  0.2761
 3932LEFLG Drug46416  17.591  19.570  23.994  0.2660 -0.2634  0.7525
 3932LEFLG Drug46417  17.607  19.409  24.102 -0.4342 -0.8569  0.0286
 3932LEFLG Drug46418  17.473  19.315  24.267  0.4547  0.1969  0.3780
 3932LEFLG Drug46419  17.591  19.178  24.471  0.3225  0.2277 -0.0149
 3932LEFLG Drug46420  17.312  19.180  24.570  0.2993  0.2029 -0.0795
 3932LEFLG Drug46421  17.580  19.126  24.683  0.2561 -0.0013 -0.0742
 3932LEFLG Drug46422  17.462  19.021  24.850  0.1515 -0.3332  0.0652
 3933LEFLG Drug46423  16.296  17.225  24.675 -0.3617 -0.4314  0.1378
 3933LEFLG Drug46424  16.029  17.225  24.550 -0.1623 -0.3159 -0.2967
 3933LEFLG Drug46425  16.105  17.159  24.383  0.1386  0.0377 -0.3063
 3933LEFLG Drug46426  16.323  17.194  24.296  0.1044 -0.2271  0.2252
 3933LEFLG Drug46427  16.467  17.410  24.392 -0.0911  0.3790  0.3130
 3933LEFLG Drug46428  16.620  17.193  24.522 -0.2832 -0.0889 -0.2190
 3933LEFLG Drug46429  16.581  17.484  24.563  0.6356  0.0181  0.0030
 3933LEFLG Drug46430  16.694  17.443  24.762  0.4768 -0.3079 -0.4933
 3934LEFLG Drug46431  18.634  16.338  23.198 -0.1547  0.1969 -0.2200
 3934LEFLG Drug46432  18.428  16.482  23.045 -0.2749  0.0714 -0.1773
 3934LEFLG Drug46433  18.291  16.429  23.173 -0.1068  0.5018  0.1934
 3934LEFLG Drug46434  18.295  16.246  23.319 -0.0834  0.2057  0.0407
 3934LEFLG Drug46435  18.494  16.271  23.512 -0.0317  0.0010 -0.3549
 3934LEFLG Drug46436  18.321  16.503  23.576  0.0391  0.0055 -0.1744
 3934LEFLG Drug46437  18.546  16.361  23.705 -0.0732 -0.2298 -0.2336
 3934LEFLG Drug46438  18.508  16.515  23.872  0.0993 -0.5784 -0.3757
 3935LEFLG Drug46439  16.398  19.024  23.857  0.2609 -0.0178 -0.2800
 3935LEFLG Drug46440  16.160  18.866  23.785  0.0884 -0.1067  0.4457
 3935LEFLG Drug46441  16.273  18.716  23.733 -0.0371 -0.2111  0.4741
 3935LEFLG Drug46442  16.478  18.641  23.834  0.1304  0.3319  0.5113
 3935LEFLG Drug46443  16.675  18.591  23.650  0.1992 -0.7349  0.0169
 3935LEFLG Drug46444  16.433  18.552  23.485  0.3024 -0.0122 -0.3229
 3935LEFLG Drug46445  16.725  18.556  23.441  0.3454 -0.1330 -0.0582
 3935LEFLG Drug46446  16.679  18.445  23.242 -0.5556 -0.7774  0.2184
 3936LEFLG Drug46447  14.362  20.779  20.414  0.0994  0.6120  0.6372
 3936LEFLG Drug46448  14.447  20.985  20.221  0.0059  0.0615 -0.0107
 3936LEFLG Drug46449  14.462  20.851  20.081  0.3562 -0.4287  0.4707
 3936LEFLG Drug46450  14.416  20.610  20.073 -0.2538  0.5943 -0.1248
 3936LEFLG Drug46451  14.638  20.458  20.043  0.1613 -0.1116  0.1373
 3936LEFLG Drug46452  14.449  20.278  20.181 -0.1230  0.0945  0.0205
 3936LEFLG Drug46453  14.717  20.255  20.060 -0.3152 -0.3459 -0.3346
 3936LEFLG Drug46454  14.684  20.019  20.090  0.3487 -0.6430  0.4633
 3937LEFLG Drug46455  16.399  17.270  18.663 -0.1408  0.1057 -0.2474
 3937LEFLG Drug46456  16.590  17.232  18.442 -0.0006  0.0322 -0.1144
 3937LEFLG Drug46457  16.568  17.039  18.453  0.4805 -0.0051  0.3582
 3937LEFLG Drug46458  16.416  16.909  18.586  0.2545  0.2312 -0.0154
 3937LEFLG Drug46459  16.518  16.737  18.764 -0.2308 -0.0646 -0.1846
 3937LEFLG Drug46460  16.736  16.772  18.567 -0.0239  0.0144  0.0559
 3937LEFLG Drug46461  16.699  16.629  18.824 -0.2105  0.1137  0.0848
 3937LEFLG Drug46462  16.934  16.604  18.827  0.0310 -0.1006 -0.5818
 3938LEFLG Drug46463  17.021  19.760  23.369  0.0823 -0.1948 -0.1745
 3938LEFLG Drug46464  17.126  20.019  23.276 -0.0416  0.0195  0.2722
 3938LEFLG Drug46465  17.286  19.933  23.208 -0.1932  0.1467 -0.2682
 3938LEFLG Drug46466  17.369  19.720  23.279  0.1997  0.0594  0.1096
 3938LEFLG Drug46467  17.350  19.547  23.082 -0.0253  0.1879  0.1744
 3938LEFLG Drug46468  17.348  19.360  23.311 -0.1182 -0.0945 -0.0544
 3938LEFLG Drug46469  17.282  19.348  23.023 -0.3030  0.3411 -0.0343
 3938LEFLG Drug46470  17.189  19.137  23.068  0.1880  0.1923 -0.5834
 3939LEFLG Drug46471  16.868  15.012  22.099 -0.1024 -0.4411 -0.1236
 3939LEFLG Drug46472  16.588  15.030  22.011 -0.0860 -0.0051 -0.0921
 3939LEFLG Drug46473  16.642  15.012  21.825 -0.1186  0.1343 -0.1160
 3939LEFLG Drug46474  16.827  14.921  21.736  0.0610 -0.0384  0.2423
 3939LEFLG Drug46475  16.850  14.660  21.702  0.1317  0.2588 -0.1857
 3939LEFLG Drug46476  17.029  14.703  21.934  0.3665 -0.2505 -0.2651
 3939LEFLG Drug46477  16.897  14.472  21.804 -0.6724  0.1546  0.0215
 3939LEFLG Drug46478  16.967  14.342  21.981 -0.4458  0.2059  0.1582
 3940LEFLG Drug46479  15.477  19.515  23.430  0.0628 -0.1603  0.0793
 3940LEFLG Drug46480  15.467  19.414  23.154 -0.0327 -0.3740  0.1599
 3940LEFLG Drug46481  15.275  19.384  23.169 -0.0441 -0.2733  0.2180
 3940LEFLG Drug46482  15.133  19.386  23.360  0.1765  0.0180  0.3855
 3940LEFLG Drug46483  15.067  19.147  23.476 -0.1157 -0.4752 -0.0774
 3940LEFLG Drug46484  15.229  19.279  23.685 -0.2006  0.1381 -0.3890
 3940LEFLG Drug46485  15.111  19.012  23.642  0.1766 -0.1223  0.1407
 3940LEFLG Drug46486  15.227  18.952  23.828  0.2636  0.6361 -0.4361
 3941LEFLG Drug46487  13.786  17.362  18.597  0.1313  0.2501  0.3096
 3941LEFLG Drug46488  13.598  17.258  18.798  0.2227 -0.0274  0.2541
 3941LEFLG Drug46489  13.726  17.294  18.940  0.3159 -0.2919  0.2397
 3941LEFLG Drug46490  13.904  17.431  18.942 -0.1202  0.0016  0.1393
 3941LEFLG Drug46491  14.136  17.323  19.030 -0.3771 -0.1090 -0.4212
 3941LEFLG Drug46492  14.248  17.564  18.900  0.3924 -0.2149  0.0147
 3941LEFLG Drug46493  14.350  17.302  18.991 -0.2316 -0.3306  0.4086
 3941LEFLG Drug46494  14.520  17.353  18.855  0.0904 -0.4985  0.5146
 3942LEFLG Drug46495  18.173  21.793  20.777  0.0853  0.3469  0.0642
 3942LEFLG Drug46496  18.036  21.557  20.887  0.0755  0.4218  0.2142
 3942LEFLG Drug46497  18.133  21.440  20.766 -0.0378  0.3570  0.1848
 3942LEFLG Drug46498  18.251  21.495  20.577  0.0559  0.4283 -0.0426
 3942LEFLG Drug46499  18.316  21.289  20.409  0.0204 -0.0702 -0.0922
 3942LEFLG Drug46500  18.061  21.387  20.296 -0.1442 -0.1154  0.2332
 3942LEFLG Drug46501  18.261  21.180  20.228 -0.0536  0.0994 -0.1723
 3942LEFLG Drug46502  18.154  21.178  20.008  0.1805 -0.0140 -0.2784
 3943LEFLG Drug46503  18.975  15.218  20.234 -0.0304  0.2494  0.3105
 3943LEFLG Drug46504  18.732  15.155  20.388 -0.1308 -0.3729 -0.0838
 3943LEFLG Drug46505  18.830  15.174  20.556 -0.5767  0.5116  0.1047
 3943LEFLG Drug46506  18.987  15.347  20.610  0.0485  0.3714 -0.2745
 3943LEFLG Drug46507  19.238  15.311  20.507  0.6890  0.0039  0.2445
 3943LEFLG Drug46508  19.156  15.560  20.370 -0.1116 -0.2174  0.2957
 3943LEFLG Drug46509  19.363  15.352  20.333  0.1047  0.0737 -0.1727
 3943LEFLG Drug46510  19.423  15.474  20.160  0.3412 -0.3540  0.8748
 3944LEFLG Drug46511  16.778  15.687  19.221 -0.4057 -0.0078 -0.0164
 3944LEFLG Drug46512  16.785  15.954  19.096 -0.1331 -0.0259 -0.0413
 3944LEFLG Drug46513  16.841  15.876  18.926  0.1177 -0.0632  0.0559
 3944LEFLG Drug46514  16.914  15.661  18.875 -0.2242 -0.1183  0.1692
 3944LEFLG Drug46515  16.741  15.463  18.901 -0.1587  0.0068 -0.0124
 3944LEFLG Drug46516  16.556  15.694  18.910 -0.0351  0.1084 -0.0600
 3944LEFLG Drug46517  16.543  15.405  18.974 -0.1622  0.1473  0.0911
 3944LEFLG Drug46518  16.310  15.441  18.977 -0.2393 -0.3262  0.2183
 3945LEFLG Drug46519  15.884  16.048  22.605  0.1726 -0.1129  0.0793
 3945LEFLG Drug46520  15.653  15.866  22.610  0.0063  0.0984  0.1789
 3945LEFLG Drug46521  15.746  15.740  22.495 -0.3185  0.2037 -0.2115
 3945LEFLG Drug46522  15.988  15.699  22.491 -0.0866 -0.0338 -0.1066
 3945LEFLG Drug46523  16.146  15.799  22.685  0.3510  0.5470  0.0299
 3945LEFLG Drug46524  16.207  15.510  22.691 -0.5459  0.3492  0.4299
 3945LEFLG Drug46525  16.323  15.757  22.806  0.3450  0.1880 -0.0818
 3945LEFLG Drug46526  16.451  15.613  22.950 -0.0651  0.1909  0.4302
 3946LEFLG Drug46527  18.709  20.572  22.263  0.1291  0.0977  0.0580
 3946LEFLG Drug46528  18.896  20.596  22.037 -0.0435 -0.4018 -0.1438
 3946LEFLG Drug46529  18.829  20.430  21.960 -0.1639 -0.5294  0.2281
 3946LEFLG Drug46530  18.710  20.271  22.060 -0.3057  0.5111 -0.4081
 3946LEFLG Drug46531  18.838  20.040  22.126 -0.2134 -0.6593 -0.2463
 3946LEFLG Drug46532  18.656  20.079  22.356  0.1849 -0.3644  0.0245
 3946LEFLG Drug46533  18.834  19.865  22.257  0.1143 -0.4417  0.0638
 3946LEFLG Drug46534  18.808  19.770  22.460  0.6307  0.0201  0.0135
 3947LEFLG Drug46535  16.542  19.788  22.312  0.4416  0.0267 -0.0985
 3947LEFLG Drug46536  16.657  19.852  22.575  0.2103  0.0484 -0.0006
 3947LEFLG Drug46537  16.539  20.006  22.593  0.3059  0.1459 -0.1917
 3947LEFLG Drug46538  16.394  20.115  22.441 -0.3405  0.0079  0.3539
 3947LEFLG Drug46539  16.138  20.139  22.498  0.2847 -0.0484  0.6441
 3947LEFLG Drug46540  16.150  19.846  22.463 -0.1654 -0.0184  0.1798
 3947LEFLG Drug46541  15.956  20.042  22.571 -0.0221  0.1372  0.1554
 3947LEFLG Drug46542  15.822  19.865  22.570  0.6685  0.1651  0.9274
 3948LEFLG Drug46543  15.164  19.908  22.769 -0.0764  0.1775 -0.0939
 3948LEFLG Drug46544  14.875  19.917  22.827 -0.1025 -0.1551 -0.1633
 3948LEFLG Drug46545  14.851  20.063  22.700 -0.1278  0.2531  0.2981
 3948LEFLG Drug46546  15.001  20.152  22.529 -0.1970  0.1521  0.1208
 3948LEFLG Drug46547  15.180  19.968  22.431  0.0309 -0.2234 -0.0112
 3948LEFLG Drug46548  15.314  20.224  22.370 -0.1483 -0.1262 -0.0020
 3948LEFLG Drug46549  15.387  19.937  22.367  0.0142 -0.0845 -0.1328
 3948LEFLG Drug46550  15.613  20.019  22.347 -0.2136  0.3618 -0.8014
 3949LEFLG Drug46551  21.547  17.144  23.314 -0.1034  0.1059  0.0797
 3949LEFLG Drug46552  21.647  17.114  23.039 -0.2750  0.1697  0.0101
 3949LEFLG Drug46553  21.667  17.307  23.022 -0.1715  0.1654  0.0854
 3949LEFLG Drug46554  21.553  17.473  23.141 -0.1488 -0.4784 -0.1733
 3949LEFLG Drug46555  21.302  17.520  23.060  0.0040  0.3973  0.1576
 3949LEFLG Drug46556  21.453  17.669  22.855  0.1511  0.0947  0.0430
 3949LEFLG Drug46557  21.190  17.536  22.873  0.0770  0.2485  0.0999
 3949LEFLG Drug46558  21.152  17.607  22.655 -0.8125 -0.2626 -0.0127
 3950LEFLG Drug46559  16.906  13.912  22.792  0.0759  0.1784  0.4257
 3950LEFLG Drug46560  17.149  13.972  22.636 -0.3540  0.4319 -0.1629
 3950LEFLG Drug46561  17.215  14.088  22.778 -0.0072  0.2852 -0.2003
 3950LEFLG Drug46562  17.133  14.113  23.008  0.1737 -0.3813 -0.0121
 3950LEFLG Drug46563  17.292  14.282  23.153 -0.0054  0.1438 -0.3792
 3950LEFLG Drug46564  17.489  14.104  23.023  0.0726  0.0509 -0.1347
 3950LEFLG Drug46565  17.496  14.357  23.176  0.0130 -0.0031 -0.0419
 3950LEFLG Drug46566  17.724  14.352  23.124  0.2473  0.0251 -0.1842
 3951LEFLG Drug46567  17.356  15.627  24.086  0.4842  0.4647 -0.0436
 3951LEFLG Drug46568  17.437  15.623  23.803 -0.0685  0.1921 -0.2045
 3951LEFLG Drug46569  17.365  15.802  23.777 -0.1398  0.1580 -0.2417
 3951LEFLG Drug46570  17.166  15.891  23.887  0.1089 -0.6091 -0.0047
 3951LEFLG Drug46571  17.075  16.156  23.845 -0.2796 -0.1302 -0.2115
 3951LEFLG Drug46572  17.367  16.192  23.878 -0.3445  0.1834  0.0369
 3951LEFLG Drug46573  17.139  16.357  23.787 -0.5067  0.0836  0.2584
 3951LEFLG Drug46574  17.303  16.503  23.715  0.1715  0.4765 -0.4524
 3952LEFLG Drug46575  14.556  17.474  23.447 -0.1210  0.4881 -0.2930
 3952LEFLG Drug46576  14.394  17.680  23.581 -0.3540  0.3633 -0.3797
 3952LEFLG Drug46577  14.236  17.566  23.571 -0.1363  0.0074  0.0387
 3952LEFLG Drug46578  14.197  17.382  23.437 -0.0094 -0.3612  0.3307
 3952LEFLG Drug46579  14.103  17.432  23.180 -0.2145  0.3812 -0.3223
 3952LEFLG Drug46580  14.383  17.523  23.161 -0.0834  0.0471 -0.0333
 3952LEFLG Drug46581  14.147  17.516  22.983  0.0825  0.3517 -0.2702
 3952LEFLG Drug46582  14.306  17.584  22.818 -0.2726 -0.7359 -0.4542
 3953LEFLG Drug46583  14.482  15.796  20.106 -0.0569  0.0716  0.1159
 3953LEFLG Drug46584  14.646  16.028  20.032  0.0162  0.0132  0.0939
 3953LEFLG Drug46585  14.808  15.920  20.040 -0.0808 -0.1971 -0.5477
 3953LEFLG Drug46586  14.859  15.721  20.192 -0.2070 -0.1382 -0.5361
 3953LEFLG Drug46587  14.750  15.687  20.435 -0.1473  0.0713 -0.1920
 3953LEFLG Drug46588  14.757  15.983  20.425 -0.1589  0.0937  0.3225
 3953LEFLG Drug46589  14.622  15.777  20.589 -0.1855 -0.2005 -0.0625
 3953LEFLG Drug46590  14.520  15.950  20.699 -0.0199 -0.0209  0.3323
 3954LEFLG Drug46591  15.576  16.024  18.759  0.0154  0.0400  0.3051
 3954LEFLG Drug46592  15.441  16.278  18.697  0.1325  0.0940  0.2701
 3954LEFLG Drug46593  15.290  16.228  18.809  0.1648  0.2332  0.3759
 3954LEFLG Drug46594  15.237  16.052  18.945 -0.2168  0.0078 -0.3652
 3954LEFLG Drug46595  15.121  16.143  19.175 -0.4185  0.1787  0.1867
 3954LEFLG Drug46596  14.962  16.303  18.984 -0.0226  0.5260  0.1417
 3954LEFLG Drug46597  15.015  16.306  19.275 -0.5168  0.0805  0.2445
 3954LEFLG Drug46598  14.838  16.461  19.275 -0.5467 -0.1336 -0.1069
 3955LEFLG Drug46599  18.675  14.775  24.603 -0.3348 -0.3062 -0.1794
 3955LEFLG Drug46600  18.728  14.823  24.318  0.3005  0.0235 -0.0155
 3955LEFLG Drug46601  18.913  14.865  24.356  0.2198 -0.0199  0.4472
 3955LEFLG Drug46602  19.038  14.872  24.560  0.0332 -0.2230  0.2224
 3955LEFLG Drug46603  19.307  14.925  24.516 -0.0833 -0.2136 -0.0320
 3955LEFLG Drug46604  19.233  14.835  24.244  0.3263 -0.6253 -0.0119
 3955LEFLG Drug46605  19.458  14.981  24.368 -0.1573  0.1238  0.0150
 3955LEFLG Drug46606  19.519  15.050  24.161  0.4993 -0.4581  0.7118
 3956LEFLG Drug46607  15.421  15.202  18.785 -0.4994  0.1041 -0.0503
 3956LEFLG Drug46608  15.440  15.059  19.042 -0.1541 -0.3178 -0.3046
 3956LEFLG Drug46609  15.632  15.086  19.047 -0.2315  0.2594 -0.1968
 3956LEFLG Drug46610  15.763  15.247  18.946  0.0904  0.1119 -0.0599
 3956LEFLG Drug46611  16.012  15.245  19.046  0.1542 -0.1151 -0.1089
 3956LEFLG Drug46612  15.954  14.956  19.029  0.4187 -0.2251  0.6831
 3956LEFLG Drug46613  16.192  15.125  19.080  0.3149  0.1474 -0.0108
 3956LEFLG Drug46614  16.302  14.929  19.063 -0.2799  0.2672 -0.2054
 3957LEFLG Drug46615  18.043  16.509  20.246 -0.4253  0.1542  0.0209
 3957LEFLG Drug46616  18.108  16.620  20.511  0.0475  0.0290 -0.0397
 3957LEFLG Drug46617  18.272  16.515  20.517 -0.0038 -0.0735 -0.3241
 3957LEFLG Drug46618  18.409  16.463  20.340 -0.2066  0.2298  0.1745
 3957LEFLG Drug46619  18.500  16.206  20.368 -0.1836  0.0014 -0.0498
 3957LEFLG Drug46620  18.623  16.339  20.601 -0.2132 -0.0776  0.0112
 3957LEFLG Drug46621  18.578  16.061  20.511 -0.0962 -0.0466 -0.1453
 3957LEFLG Drug46622  18.711  16.024  20.712  0.1373  0.9825  0.6608
 3958LEFLG Drug46623  17.763  14.661  22.775 -0.1734  0.0849 -0.1557
 3958LEFLG Drug46624  17.967  14.861  22.847  0.1115 -0.4310  0.5267
 3958LEFLG Drug46625  17.832  15.000  22.856  0.3534 -0.2006  0.6554
 3958LEFLG Drug46626  17.610  15.006  22.752 -0.2409 -0.1418  0.1298
 3958LEFLG Drug46627  17.616  15.048  22.483  0.2557 -0.0608  0.3682
 3958LEFLG Drug46628  17.580  14.755  22.482 -0.3594  0.0061 -0.1645
 3958LEFLG Drug46629  17.641  14.964  22.282 -0.2810  0.2833  0.1469
 3958LEFLG Drug46630  17.575  14.791  22.117  0.3335 -0.4405  0.1929
 3959LEFLG Drug46631  18.801  15.593  21.505 -0.2715 -0.3341  0.0489
 3959LEFLG Drug46632  18.824  15.717  21.239 -0.0092 -0.0442  0.2036
 3959LEFLG Drug46633  18.738  15.563  21.157  0.1186  0.0207 -0.0565
 3959LEFLG Drug46634  18.699  15.341  21.239 -0.1834 -0.4002 -0.1057
 3959LEFLG Drug46635  18.861  15.249  21.431 -0.0153  0.1945 -0.1702
 3959LEFLG Drug46636  19.053  15.291  21.211  0.4529  0.0908  0.2108
 3959LEFLG Drug46637  19.052  15.150  21.471 -0.2708 -0.2248  0.0461
 3959LEFLG Drug46638  19.272  15.082  21.388  0.2447  0.4051  0.4109
 3960LEFLG Drug46639  17.761  20.153  22.137  0.5048  0.0049 -0.0313
 3960LEFLG Drug46640  17.995  20.034  22.269  0.2319 -0.2799  0.2032
 3960LEFLG Drug46641  18.074  20.210  22.295  0.4779 -0.3828  0.1676
 3960LEFLG Drug46642  17.983  20.429  22.252 -0.0168  0.0236  0.2646
 3960LEFLG Drug46643  17.842  20.540  22.447 -0.1273 -0.3316 -0.2019
 3960LEFLG Drug46644  17.743  20.263  22.472 -0.1709 -0.2852  0.1704
 3960LEFLG Drug46645  17.735  20.509  22.635  0.1601 -0.1551 -0.0063
 3960LEFLG Drug46646  17.664  20.374  22.809  0.2036  0.7682  0.5257
 3961LEFLG Drug46647  18.938  17.167  20.554 -0.2861  0.1885  0.2526
 3961LEFLG Drug46648  18.691  17.074  20.424 -0.0587  0.0360 -0.0768
 3961LEFLG Drug46649  18.793  16.959  20.305  0.1809  0.2062 -0.0394
 3961LEFLG Drug46650  19.008  16.942  20.266  0.2384  0.2264 -0.0880
 3961LEFLG Drug46651  19.064  16.702  20.169  0.1859 -0.0538  0.0451
 3961LEFLG Drug46652  18.946  16.837  19.935  0.0566 -0.2054  0.0225
 3961LEFLG Drug46653  19.007  16.559  20.014 -0.4559 -0.2119  0.4136
 3961LEFLG Drug46654  18.916  16.509  19.805  0.0933  0.3641 -0.7825
 3962LEFLG Drug46655  16.924  17.907  23.285 -0.3873  0.0297 -0.7104
 3962LEFLG Drug46656  16.961  18.180  23.182  0.4787  0.1573 -0.1110
 3962LEFLG Drug46657  16.942  18.253  23.361 -0.6884 -0.0821 -0.1056
 3962LEFLG Drug46658  17.009  18.156  23.579 -0.2187 -0.0006  0.0551
 3962LEFLG Drug46659  16.991  18.324  23.779 -0.4976  0.0772 -0.1420
 3962LEFLG Drug46660  17.159  18.479  23.591 -0.4365  0.2208  0.0297
 3962LEFLG Drug46661  17.068  18.507  23.871 -0.1987 -0.1909  0.1525
 3962LEFLG Drug46662  17.224  18.684  23.879 -0.1578  0.1777  0.1768
 3963LEFLG Drug46663  15.503  13.597  22.285  0.2170  0.2473  0.0026
 3963LEFLG Drug46664  15.445  13.546  22.001 -0.0944 -0.0159  0.1109
 3963LEFLG Drug46665  15.604  13.436  21.985  0.1333  0.3302 -0.0710
 3963LEFLG Drug46666  15.795  13.421  22.125  0.3106 -0.4834 -0.1155
 3963LEFLG Drug46667  16.034  13.512  22.029  0.0045  0.5520  0.0200
 3963LEFLG Drug46668  16.124  13.361  22.267 -0.3172 -0.0830 -0.2505
 3963LEFLG Drug46669  16.247  13.540  22.066  0.0935 -0.0659  0.0120
 3963LEFLG Drug46670  16.437  13.556  22.218  0.6809  0.4172  0.3616
 3964LEFLG Drug46671  15.322  18.258  20.043  0.0915 -0.2101 -0.0033
 3964LEFLG Drug46672  15.443  18.370  19.799  0.0110  0.1644  0.1258
 3964LEFLG Drug46673  15.284  18.324  19.695 -0.0905  0.4727  0.1383
 3964LEFLG Drug46674  15.066  18.256  19.770 -0.3424  0.0711  0.2692
 3964LEFLG Drug46675  14.873  18.368  19.639  0.2522 -0.1491  0.3128
 3964LEFLG Drug46676  15.078  18.578  19.599  0.0483  0.0381  0.2411
 3964LEFLG Drug46677  14.829  18.491  19.464  0.1201 -0.2368  0.2835
 3964LEFLG Drug46678  14.852  18.687  19.341 -0.1330 -0.3240 -0.1989
 3965LEFLG Drug46679  20.039  15.971  22.050 -0.0556 -0.2887 -0.0109
 3965LEFLG Drug46680  19.867  16.097  22.252 -0.5053 -0.0598 -0.5235
 3965LEFLG Drug46681  19.960  16.266  22.231 -0.0275 -0.2510 -0.0596
 3965LEFLG Drug46682  20.176  16.327  22.153  0.3228 -0.2917  0.5969
 3965LEFLG Drug46683  20.375  16.133  22.123  0.3545  0.0823  0.1793
 3965LEFLG Drug46684  20.336  16.219  21.842 -0.2329 -0.6068  0.0368
 3965LEFLG Drug46685  20.514  16.032  21.988  0.4117  0.1219  0.2087
 3965LEFLG Drug46686  20.643  16.029  21.793 -0.7202 -0.1699  0.3044
 3966LEFLG Drug46687  18.850  14.766  22.837  0.5693 -0.0647  0.4930
 3966LEFLG Drug46688  18.781  14.944  23.061 -0.1699  0.1332  0.1258
 3966LEFLG Drug46689  18.600  14.872  23.067 -0.0292 -0.2483 -0.0566
 3966LEFLG Drug46690  18.461  14.820  22.882 -0.0193 -0.0313  0.2675
 3966LEFLG Drug46691  18.584  14.828  22.637 -0.3235  0.1130  0.3590
 3966LEFLG Drug46692  18.315  14.930  22.569 -0.2680 -0.0267 -0.0859
 3966LEFLG Drug46693  18.572  14.894  22.429 -0.0899 -0.1370  0.2641
 3966LEFLG Drug46694  18.459  14.995  22.263  0.4326  0.2970  0.0817
 3967LEFLG Drug46695  20.240  17.361  24.280 -0.4482  0.0762  0.1124
 3967LEFLG Drug46696  20.260  17.096  24.406 -0.0360 -0.0048 -0.1167
 3967LEFLG Drug46697  20.071  17.063  24.374 -0.0102 -0.2266 -0.0457
 3967LEFLG Drug46698  19.885  17.217  24.336  0.1477 -0.3069 -0.2253
 3967LEFLG Drug46699  19.672  17.122  24.206  0.1497 -0.4911 -0.0142
 3967LEFLG Drug46700  19.528  17.286  24.406  0.0690 -0.1867 -0.3173
 3967LEFLG Drug46701  19.465  17.158  24.147  0.0619 -0.9059  0.0285
 3967LEFLG Drug46702  19.244  17.161  24.205  0.2627 -0.1818 -0.4151
 3968LEFLG Drug46703  14.808  16.628  22.504  0.3626 -0.3012  0.0631
 3968LEFLG Drug46704  14.884  16.657  22.786 -0.1498 -0.2858  0.2039
 3968LEFLG Drug46705  14.811  16.837  22.791  0.3804 -0.0503 -0.1174
 3968LEFLG Drug46706  14.755  16.983  22.608 -0.1014 -0.2215  0.3463
 3968LEFLG Drug46707  14.930  16.982  22.396  0.2327 -0.1462  0.2542
 3968LEFLG Drug46708  15.029  17.213  22.552 -0.1799 -0.0013  0.3067
 3968LEFLG Drug46709  15.131  17.041  22.333  0.2441  0.0434  0.4654
 3968LEFLG Drug46710  15.332  17.152  22.364  0.3099 -0.5850 -0.3741
 3969LEFLG Drug46711  13.422  17.093  21.840  0.0796  0.1534  0.2578
 3969LEFLG Drug46712  13.173  17.137  21.991 -0.0728 -0.0361  0.0638
 3969LEFLG Drug46713  13.132  17.294  21.883  0.1446  0.2274  0.3542
 3969LEFLG Drug46714  13.194  17.332  21.651 -0.4300 -0.2436 -0.2430
 3969LEFLG Drug46715  13.437  17.447  21.636 -0.5275 -0.9658  0.3925
 3969LEFLG Drug46716  13.468  17.243  21.424  0.4300 -0.2439 -0.1950
 3969LEFLG Drug46717  13.647  17.419  21.581 -0.3790  0.2145  0.2411
 3969LEFLG Drug46718  13.817  17.281  21.501  0.3577  0.3572 -0.3475
 3970LEFLG Drug46719  15.429  18.565  18.171 -0.1996  0.0398 -0.4856
 3970LEFLG Drug46720  15.229  18.781  18.182  0.2318  0.4163  0.4092
 3970LEFLG Drug46721  15.335  18.889  18.061 -0.1587  0.1566 -0.1832
 3970LEFLG Drug46722  15.514  18.824  17.909 -0.0590 -0.1422 -0.1642
 3970LEFLG Drug46723  15.717  18.691  18.014 -0.3007 -0.3132  0.1881
 3970LEFLG Drug46724  15.730  18.929  18.190 -0.3586 -0.0601 -0.1463
 3970LEFLG Drug46725  15.820  18.648  18.202 -0.1757  0.0112  0.1987
 3970LEFLG Drug46726  15.964  18.715  18.376  0.1986  0.0313  0.0417
 3971LEFLG Drug46727  17.959  13.623  20.862  0.0563  0.0442 -0.0205
 3971LEFLG Drug46728  18.205  13.498  20.761  0.1193  0.1123  0.0472
 3971LEFLG Drug46729  18.118  13.454  20.593  0.1208 -0.0814  0.0954
 3971LEFLG Drug46730  17.898  13.394  20.571  0.1060  0.1543 -0.1812
 3971LEFLG Drug46731  17.745  13.589  20.488  0.1141 -0.0426  0.3353
 3971LEFLG Drug46732  17.552  13.365  20.491 -0.0314  0.0821  0.3476
 3971LEFLG Drug46733  17.557  13.644  20.392  0.2052  0.0248  0.1936
 3971LEFLG Drug46734  17.371  13.578  20.255 -0.7039 -0.0880 -0.8429
 3972LEFLG Drug46735  18.628  16.630  24.205 -0.0785  0.0684  0.2245
 3972LEFLG Drug46736  18.619  16.335  24.210 -0.2747  0.0735  0.2133
 3972LEFLG Drug46737  18.708  16.333  24.383  0.1880 -0.0068 -0.0169
 3972LEFLG Drug46738  18.855  16.494  24.483 -0.0474  0.3674  0.3548
 3972LEFLG Drug46739  19.042  16.614  24.317  0.3611 -0.0304  0.1708
 3972LEFLG Drug46740  19.161  16.677  24.580  0.0235  0.3342  0.2413
 3972LEFLG Drug46741  19.190  16.775  24.303  0.3181  0.0077  0.1524
 3972LEFLG Drug46742  19.402  16.849  24.372 -0.2445  0.5359 -0.0671
 3973LEFLG Drug46743  13.947  17.851  20.498 -0.0453 -0.4292  0.3533
 3973LEFLG Drug46744  14.024  18.079  20.667 -0.3689 -0.1959  0.1900
 3973LEFLG Drug46745  14.045  17.962  20.821 -0.0963 -0.0725  0.2485
 3973LEFLG Drug46746  13.931  17.756  20.872 -0.0409 -0.5882  0.0961
 3973LEFLG Drug46747  14.083  17.566  20.997 -0.1272 -0.1375  0.1293
 3973LEFLG Drug46748  13.812  17.494  21.091 -0.1600 -0.2542 -0.0545
 3973LEFLG Drug46749  14.081  17.370  21.093 -0.1369 -0.2040 -0.0081
 3973LEFLG Drug46750  13.972  17.181  21.170  0.0364 -0.5544 -0.2139
 3974LEFLG Drug46751  20.240  19.121  24.178 -0.2933 -0.4793  0.0590
 3974LEFLG Drug46752  20.357  18.961  24.396  0.2212 -0.1445  0.0362
 3974LEFLG Drug46753  20.346  18.799  24.287  0.0428 -0.2973  0.2764
 3974LEFLG Drug46754  20.340  18.763  24.057  0.1576 -0.3026 -0.1620
 3974LEFLG Drug46755  20.133  18.893  23.929  0.2883 -0.0890  0.2313
 3974LEFLG Drug46756  20.025  18.621  23.972  0.3959 -0.2151 -0.2743
 3974LEFLG Drug46757  19.928  18.875  23.855  0.6846 -0.3740 -0.8743
 3974LEFLG Drug46758  19.714  18.794  23.890  0.2684  0.3344  0.6978
 3975LEFLG Drug46759  15.286  18.651  20.667  0.1589  0.3507 -0.4943
 3975LEFLG Drug46760  15.215  18.932  20.616  0.0849  0.3927 -0.1704
 3975LEFLG Drug46761  15.250  18.977  20.802 -0.0494  0.1634 -0.0871
 3975LEFLG Drug46762  15.251  18.836  20.988 -0.0478 -0.0633 -0.0257
 3975LEFLG Drug46763  15.220  18.970  21.216 -0.2298 -0.3734 -0.0250
 3975LEFLG Drug46764  14.962  19.023  21.081 -0.1874  0.2530  0.1238
 3975LEFLG Drug46765  15.075  19.065  21.351 -0.0647 -0.4160  0.1837
 3975LEFLG Drug46766  14.873  19.081  21.415  0.6301 -0.0562  0.5515
 3976LEFLG Drug46767  16.338  15.836  23.384  0.0474 -0.2250 -0.3236
 3976LEFLG Drug46768  16.435  16.062  23.223  0.3629 -0.2121 -0.1202
 3976LEFLG Drug46769  16.256  16.091  23.151  0.4553 -0.0642 -0.2938
 3976LEFLG Drug46770  16.043  16.011  23.242  0.1513 -0.4541  0.0835
 3976LEFLG Drug46771  15.989  16.112  23.486  0.4614 -0.3131 -0.1810
 3976LEFLG Drug46772  15.898  15.832  23.517 -0.2282 -0.0722  0.0707
 3976LEFLG Drug46773  15.925  16.070  23.691 -0.0679  0.1414 -0.2413
 3976LEFLG Drug46774  15.814  15.924  23.850 -0.5441 -0.8951 -0.3307
 3977LEFLG Drug46775  14.802  17.615  21.077  0.2291 -0.0907  0.0047
 3977LEFLG Drug46776  14.873  17.711  21.346 -0.1879 -0.0095  0.0884
 3977LEFLG Drug46777  14.863  17.530  21.417  0.0977 -0.0458  0.0399
 3977LEFLG Drug46778  14.805  17.317  21.324  0.1434 -0.2768 -0.0587
 3977LEFLG Drug46779  14.551  17.328  21.232 -0.0039  0.3198 -0.3788
 3977LEFLG Drug46780  14.525  17.464  21.493 -0.0515  0.0476 -0.2392
 3977LEFLG Drug46781  14.342  17.349  21.292 -0.0070  0.0826 -0.3006
 3977LEFLG Drug46782  14.182  17.380  21.456 -0.1518  0.2755  0.3732
 3978LEFLG Drug46783  19.749  15.553  20.334  0.0728  0.1841  0.1599
 3978LEFLG Drug46784  20.001  15.553  20.485  0.3375  0.9093 -0.2566
 3978LEFLG Drug46785  19.924  15.670  20.620 -0.0339  0.1218  0.2510
 3978LEFLG Drug46786  19.720  15.777  20.622  0.0137  0.0876 -0.1437
 3978LEFLG Drug46787  19.635  15.850  20.874  0.0258 -0.2835  0.1532
 3978LEFLG Drug46788  19.772  15.594  20.927 -0.0493 -0.3749 -0.0906
 3978LEFLG Drug46789  19.620  15.792  21.084  0.1450 -0.3994  0.1299
 3978LEFLG Drug46790  19.677  15.659  21.273  0.1086 -0.4636  0.0238
 3979LEFLG Drug46791  18.726  17.759  24.245 -0.3370 -0.0126  0.6045
 3979LEFLG Drug46792  18.959  17.818  24.415 -0.0115 -0.0406  0.1779
 3979LEFLG Drug46793  19.051  17.659  24.350 -0.1236 -0.0179 -0.0388
 3979LEFLG Drug46794  18.972  17.473  24.240  0.2846 -0.4575 -0.0063
 3979LEFLG Drug46795  19.113  17.413  24.014  0.2324 -0.4394  0.1622
 3979LEFLG Drug46796  19.324  17.538  24.178 -0.2780  0.2592  0.3126
 3979LEFLG Drug46797  19.308  17.398  23.918  0.3328  0.3669  0.2104
 3979LEFLG Drug46798  19.544  17.418  23.919  0.6979  0.0958 -0.1007
 3980LEFLG Drug46799  16.849  20.130  18.664  0.0222  0.1278 -0.0417
 3980LEFLG Drug46800  17.038  20.083  18.443 -0.1014  0.2525 -0.1759
 3980LEFLG Drug46801  17.121  19.937  18.542  0.0699  0.3117 -0.2303
 3980LEFLG Drug46802  17.133  19.892  18.778  0.1950 -0.2136  0.1192
 3980LEFLG Drug46803  16.897  19.840  18.893  0.0805  0.2539  0.0467
 3980LEFLG Drug46804  16.900  19.644  18.671  0.1627  0.0439  0.2317
 3980LEFLG Drug46805  16.699  19.756  18.857  0.1931 -0.1841  0.4041
 3980LEFLG Drug46806  16.565  19.592  18.755 -1.0964 -0.7554  0.1835
 3981LEFLG Drug46807  19.691  16.003  19.192 -0.3585 -0.3518  0.3094
 3981LEFLG Drug46808  19.921  15.899  19.343 -0.1775 -0.1504  0.1747
 3981LEFLG Drug46809  19.901  16.040  19.476  0.2698  0.3091 -0.2235
 3981LEFLG Drug46810  19.742  16.220  19.496  0.2550 -0.0584  0.4020
 3981LEFLG Drug46811  19.774  16.411  19.306  0.0839 -0.1175 -0.2617
 3981LEFLG Drug46812  19.542  16.516  19.455 -0.1742 -0.6073 -0.3099
 3981LEFLG Drug46813  19.686  16.584  19.206  0.2315  0.1876  0.1261
 3981LEFLG Drug46814  19.524  16.752  19.187  0.5327 -0.5918  0.3128
 3982LEFLG Drug46815  13.917  17.403  20.167  0.2480  0.2591 -0.3978
 3982LEFLG Drug46816  14.090  17.166  20.144  0.0184  0.0541 -0.0433
 3982LEFLG Drug46817  14.180  17.212  20.311 -0.2631 -0.0519  0.1412
 3982LEFLG Drug46818  14.141  17.395  20.467  0.1644  0.5588 -0.3586
 3982LEFLG Drug46819  14.277  17.373  20.698  0.0192 -0.0693  0.2622
 3982LEFLG Drug46820  14.177  17.095  20.681  0.3917 -0.1854 -0.1037
 3982LEFLG Drug46821  14.327  17.259  20.877  0.0093 -0.1832  0.1924
 3982LEFLG Drug46822  14.274  17.079  21.018 -0.4722 -0.3128 -0.1683
 3983LEFLG Drug46823  18.855  15.473  22.685 -0.1100  0.3178 -0.1998
 3983LEFLG Drug46824  18.849  15.192  22.598  0.1646  0.2831 -0.1097
 3983LEFLG Drug46825  18.764  15.139  22.765  0.3526  0.2289 -0.0296
 3983LEFLG Drug46826  18.590  15.259  22.873 -0.4168 -0.0895  0.1306
 3983LEFLG Drug46827  18.473  15.467  22.733 -0.3125  0.4400  0.2202
 3983LEFLG Drug46828  18.505  15.264  22.520  0.4871  0.1027  0.6415
 3983LEFLG Drug46829  18.391  15.537  22.542  0.2329  0.0747 -0.1598
 3983LEFLG Drug46830  18.339  15.503  22.313  0.2259 -0.3125 -0.7375
 3984LEFLG Drug46831  19.736  18.838  20.793  0.0333 -0.0635  0.5216
 3984LEFLG Drug46832  20.019  18.757  20.792 -0.0001 -0.1824  0.1687
 3984LEFLG Drug46833  19.969  18.571  20.817 -0.0462 -0.1548  0.2892
 3984LEFLG Drug46834  19.792  18.496  20.954  0.3089 -0.1061  0.2053
 3984LEFLG Drug46835  19.798  18.234  21.021 -0.1840  0.1848 -0.2272
 3984LEFLG Drug46836  19.756  18.208  20.729 -0.3979 -0.2939 -0.1582
 3984LEFLG Drug46837  19.797  18.025  20.958  0.2087  0.0923  0.0540
 3984LEFLG Drug46838  19.767  17.855  20.801 -0.2314 -0.0586  0.3440
 3985LEFLG Drug46839  16.158  14.368  21.132 -0.1962  0.0194  0.1186
 3985LEFLG Drug46840  16.413  14.514  21.118 -0.1828 -0.0013  0.1464
 3985LEFLG Drug46841  16.489  14.401  21.258 -0.2771  0.1290  0.3048
 3985LEFLG Drug46842  16.372  14.271  21.423 -0.2517 -0.1775 -0.1459
 3985LEFLG Drug46843  16.501  14.201  21.640  0.0330 -0.1605 -0.2203
 3985LEFLG Drug46844  16.625  14.013  21.448  0.5537 -0.3668  0.3025
 3985LEFLG Drug46845  16.678  14.104  21.724 -0.4602 -0.4404  0.5413
 3985LEFLG Drug46846  16.878  13.981  21.700  0.2816 -0.3500 -0.5022
 3986LEFLG Drug46847  14.925  15.667  22.611  0.0509  0.0705 -0.1530
 3986LEFLG Drug46848  14.748  15.838  22.450 -0.0178  0.1415 -0.0032
 3986LEFLG Drug46849  14.642  15.683  22.397 -0.1669  0.1927  0.1404
 3986LEFLG Drug46850  14.616  15.462  22.495  0.2655 -0.5069  0.1171
 3986LEFLG Drug46851  14.594  15.447  22.756 -0.3815  0.1066  0.0310
 3986LEFLG Drug46852  14.637  15.160  22.696  0.3443  0.2032  0.0445
 3986LEFLG Drug46853  14.539  15.320  22.926  0.0343 -0.0230  0.0732
 3986LEFLG Drug46854  14.487  15.108  23.015  1.0169  0.0623  0.5180
 3987LEFLG Drug46855  15.572  17.887  19.172 -0.0942  0.3056 -0.2171
 3987LEFLG Drug46856  15.702  17.798  19.421 -0.2481  0.0309 -0.2333
 3987LEFLG Drug46857  15.706  17.981  19.488 -0.0500 -0.0055 -0.1414
 3987LEFLG Drug46858  15.576  18.171  19.421  0.1870  0.1952 -0.0391
 3987LEFLG Drug46859  15.706  18.396  19.395 -0.3440  0.1691 -0.1591
 3987LEFLG Drug46860  15.574  18.390  19.131 -0.1074  0.1776 -0.2792
 3987LEFLG Drug46861  15.799  18.536  19.255  0.0705 -0.1513 -0.2131
 3987LEFLG Drug46862  15.763  18.684  19.067  0.1479 -0.1920 -0.1420
 3988LEFLG Drug46863  18.930  15.935  20.979 -0.0325 -0.3942  0.3109
 3988LEFLG Drug46864  19.123  15.982  21.197  0.2179 -0.1347  0.0376
 3988LEFLG Drug46865  19.244  15.850  21.122  0.0974 -0.2796  0.0945
 3988LEFLG Drug46866  19.187  15.648  21.016  0.0085  0.1260 -0.3273
 3988LEFLG Drug46867  19.358  15.454  21.073 -0.3152 -0.2413 -0.0506
 3988LEFLG Drug46868  19.405  15.487  20.783  0.2819 -0.0209  0.0628
 3988LEFLG Drug46869  19.529  15.335  21.004 -0.0761 -0.0683  0.2349
 3988LEFLG Drug46870  19.637  15.227  20.830  0.5602 -0.1325 -0.7212
 3989LEFLG Drug46871  14.928  15.909  20.866  0.1374 -0.3601  0.1351
 3989LEFLG Drug46872  15.155  15.999  21.030  0.2017 -0.0333 -0.1286
 3989LEFLG Drug46873  15.281  15.931  20.899  0.1491 -0.1384 -0.1254
 3989LEFLG Drug46874  15.243  15.841  20.680 -0.3950 -0.3084 -0.5341
 3989LEFLG Drug46875  15.029  15.703  20.638 -0.0511  0.6081  0.3144
 3989LEFLG Drug46876  15.118  15.593  20.898  0.6346  0.0709 -0.1303
 3989LEFLG Drug46877  14.870  15.590  20.737  0.3028  0.1441  0.3685
 3989LEFLG Drug46878  14.792  15.469  20.900 -0.3481  0.6091 -0.2469
 3990LEFLG Drug46879  16.298  20.399  21.991  0.0271  0.1752  0.0320
 3990LEFLG Drug46880  16.548  20.286  21.883 -0.2134  0.0163 -0.3676
 3990LEFLG Drug46881  16.448  20.184  21.750 -0.5089 -0.0989 -0.0633
 3990LEFLG Drug46882  16.227  20.173  21.727  0.4317  0.0892  0.4120
 3990LEFLG Drug46883  16.095  20.413  21.731 -0.2539  0.0059 -0.1949
 3990LEFLG Drug46884  16.336  20.489  21.576 -0.1209 -0.3404 -0.1608
 3990LEFLG Drug46885  16.070  20.607  21.632  0.0514  0.0594 -0.1713
 3990LEFLG Drug46886  16.131  20.751  21.461  0.3299 -0.0045 -0.1541
 3991LEFLG Drug46887  20.711  15.581  20.840 -0.0863 -0.5291 -0.2329
 3991LEFLG Drug46888  20.897  15.437  20.663  0.6608  0.1888 -0.0598
 3991LEFLG Drug46889  20.888  15.581  20.532 -0.2325 -0.0808 -0.3207
 3991LEFLG Drug46890  20.808  15.792  20.545 -0.1273 -0.2226 -0.1629
 3991LEFLG Drug46891  20.937  15.944  20.750  0.2909  0.2356  0.1012
 3991LEFLG Drug46892  20.652  15.984  20.816  0.0494 -0.7748 -0.2446
 3991LEFLG Drug46893  20.912  16.079  20.920 -0.3880 -0.1901  0.3575
 3991LEFLG Drug46894  20.787  16.223  21.042 -0.4682 -0.9318 -0.0715
 3992LEFLG Drug46895  14.166  18.223  21.444 -0.1588  0.2075  0.3373
 3992LEFLG Drug46896  14.377  18.429  21.438  0.2600 -0.2184  0.1262
 3992LEFLG Drug46897  14.472  18.332  21.299 -0.0107 -0.4795  0.1186
 3992LEFLG Drug46898  14.378  18.192  21.135 -0.0771 -0.3031  0.1045
 3992LEFLG Drug46899  14.146  18.290  21.011 -0.3986 -0.2923 -0.0377
 3992LEFLG Drug46900  14.023  18.086  21.186 -0.1975 -0.1146  0.3180
 3992LEFLG Drug46901  13.928  18.286  20.989 -0.4369 -0.2386  0.3047
 3992LEFLG Drug46902  13.738  18.177  21.000 -0.2654  0.2950  0.1218
 3993LEFLG Drug46903  14.646  14.657  20.215 -0.1910  0.0555 -0.0412
 3993LEFLG Drug46904  14.596  14.776  20.479  0.1796  0.1950 -0.0315
 3993LEFLG Drug46905  14.599  14.955  20.402  0.1350  0.1581 -0.1207
 3993LEFLG Drug46906  14.667  15.025  20.198  0.0356  0.2619 -0.3358
 3993LEFLG Drug46907  14.922  14.935  20.151  0.3675  0.0095  0.0673
 3993LEFLG Drug46908  14.925  15.181  19.986 -0.0354 -0.0163  0.0179
 3993LEFLG Drug46909  15.077  14.927  19.997 -0.0190 -0.0236 -0.3280
 3993LEFLG Drug46910  15.164  15.000  19.797  0.3367  0.1642 -0.2799
 3994LEFLG Drug46911  20.984  16.224  22.690 -0.3575 -0.2600 -0.1244
 3994LEFLG Drug46912  21.164  16.171  22.464  0.1034 -0.1117  0.2014
 3994LEFLG Drug46913  21.095  16.326  22.368  0.1607 -0.1595  0.0808
 3994LEFLG Drug46914  20.906  16.467  22.442  0.2528  0.3917  0.0329
 3994LEFLG Drug46915  20.877  16.696  22.303  0.2111  0.3434  0.4283
 3994LEFLG Drug46916  20.667  16.735  22.507 -0.1859  0.1655  0.0613
 3994LEFLG Drug46917  20.781  16.891  22.282 -0.1638  0.1257  0.0444
 3994LEFLG Drug46918  20.602  17.038  22.325 -0.4784 -0.4692  0.1230
 3995LEFLG Drug46919  15.788  16.349  19.413 -0.3240  0.0910 -0.2946
 3995LEFLG Drug46920  15.994  16.147  19.358  0.0395  0.3462  0.1057
 3995LEFLG Drug46921  15.877  16.057  19.231  0.2945  0.0376  0.0829
 3995LEFLG Drug46922  15.639  16.029  19.257 -0.0477 -0.0319  0.2744
 3995LEFLG Drug46923  15.490  16.266  19.297 -0.6031 -0.2071  0.0663
 3995LEFLG Drug46924  15.343  16.083  19.476 -0.3420 -0.1103  0.3820
 3995LEFLG Drug46925  15.357  16.375  19.432 -0.3423 -0.1285  0.2625
 3995LEFLG Drug46926  15.244  16.388  19.643 -0.3950 -0.0603  0.5609
 3996LEFLG Drug46927  14.773  20.329  22.096  0.3848  0.3204 -0.2557
 3996LEFLG Drug46928  14.643  20.593  22.093 -0.2241  0.0347  0.1327
 3996LEFLG Drug46929  14.816  20.681  22.086 -0.4206  0.4489  0.3834
 3996LEFLG Drug46930  15.012  20.604  22.169  0.1057 -0.0631  0.0146
 3996LEFLG Drug46931  15.116  20.415  22.019  0.1055  0.3156  0.0303
 3996LEFLG Drug46932  15.251  20.647  21.895 -0.0293  0.1525 -0.4317
 3996LEFLG Drug46933  15.215  20.360  21.832 -0.2172  0.0963 -0.0806
 3996LEFLG Drug46934  15.278  20.424  21.621 -1.0860 -0.5050 -0.2310
 3997W        W46935   1.506   2.069  20.871 -0.0261 -0.0593 -0.0552
 3998W        W46936   0.950   1.485  16.114  0.2903  0.0925  0.0911
 3999W        W46937   3.490   1.506  15.941  0.2997 -0.0738 -0.1937
 4000W        W46938   3.928   1.056  16.653 -0.0190  0.1799  0.0307
 4001W        W46939  33.967   0.058  17.159  0.1587  0.1219  0.2029
 4002W        W46940   2.095   4.138  16.837 -0.1050 -0.2968 -0.0492
 4003W        W46941   0.916   1.306  18.551  0.3901 -0.3315 -0.3496
 4004W        W46942   4.042   2.433  18.047  0.2612 -0.2772  0.3944
 4005W        W46943   2.804   2.001  19.145 -0.2336 -0.0444 -0.3291
 4006W        W46944   1.186   1.384  16.518  0.1710  0.2936  0.0437
 4007W        W46945   1.187   0.462  19.747 -0.0024 -0.0445  0.0608
 4008W        W46946   1.185   2.159  20.320 -0.0847 -0.1726  0.5107
 4009W        W46947   0.111  34.235  17.574  0.0748  0.0126 -0.3837
 4010W        W46948  34.451   0.832  18.298  0.2689 -0.4365  0.0632
 4011W        W46949   3.504   2.022  18.299  0.0919  0.3177  0.0174
 4012W        W46950   0.673   1.548  18.956  0.1653 -0.0240 -0.1964
 4013W        W46951   1.174  34.593  19.129 -0.0178 -0.1224 -0.1381
 4014W        W46952   1.319   1.831  16.830 -0.0280 -0.0236  0.0055
 4015W        W46953   1.457   3.526  17.504  0.2735  0.0036  0.1950
 4016W        W46954   0.734   0.652  20.578  0.3276  0.0830  0.1106
 4017W        W46955   1.700  34.415  19.955 -0.0654  0.0635  0.3316
 4018W        W46956   1.826   2.579  17.946 -0.1158  0.2360 -0.1731
 4019W        W46957   0.342   1.495  16.746  0.1995 -0.1814 -0.0405
 4020W        W46958  33.254   1.653  18.144  0.0297  0.0179  0.3902
 4021W        W46959   0.733   1.444  20.714 -0.1740 -0.0875  0.0439
 4022W        W46960   2.138   0.851  18.388 -0.2773 -0.0247  0.0094
 4023W        W46961   2.981   1.365  17.682 -0.0370 -0.3204  0.0639
 4024W        W46962   1.309   2.715  18.554  0.1120 -0.1904  0.0069
 4025W        W46963   2.202   3.661  17.238 -0.2441 -0.1046 -0.2434
 4026W        W46964   2.950   1.440  19.789  0.0426 -0.3491  0.2656
 4027W        W46965   0.645   1.822  17.716 -0.1297  0.1938 -0.0256
 4028W        W46966  33.723   4.778  18.452 -0.0861  0.0433  0.1239
 4029W        W46967   0.838   3.106  16.741 -0.1937 -0.1266  0.1538
 4030W        W46968   3.683   3.156  18.073  0.0180  0.0265  0.0670
 4031W        W46969   2.953   2.498  18.949 -0.1600 -0.0118 -0.1935
 4032W        W46970   0.483   4.195  20.949 -0.2434 -0.1068  0.1589
 4033W        W46971   2.179   2.981  17.074  0.2542  0.0010 -0.0411
 4034W        W46972   2.191   4.129  19.183 -0.0044 -0.1950 -0.0274
 4035W        W46973   1.229   2.146  19.804  0.2463 -0.2681 -0.0213
 4036W        W46974   2.655   1.191  19.002 -0.0138 -0.1597 -0.1639
 4037W        W46975   2.595   0.450  16.763  0.1125 -0.2072 -0.1060
 4038W        W46976   2.229   1.883  16.708  0.0873 -0.2069 -0.0152
 4039W        W46977   1.855   1.746  17.546 -0.1960 -0.0965  0.1348
 4040W        W46978   0.976   2.246  21.143 -0.2219  0.1888 -0.1241
 4041W        W46979   1.084   2.457  17.518 -0.1192 -0.2152 -0.4189
 4042W        W46980   1.687   1.654  20.631 -0.2132  0.1565  0.4430
 4043W        W46981   2.007   2.371  16.399  0.0434  0.1014 -0.0672
 4044W        W46982   2.192   0.865  15.934 -0.1435 -0.2417 -0.0890
 4045W        W46983   1.116   1.997  15.829  0.1305 -0.0049  0.0990
 4046W        W46984   2.794   2.161  17.792 -0.0209 -0.2033 -0.0612
 4047W        W46985   2.788   0.909  17.734 -0.1347 -0.0117  0.1065
 4048W        W46986   1.381   4.418  17.989 -0.3350  0.0741  0.1749
 4049W        W46987   1.440  34.236  19.350 -0.0209  0.0281  0.2898
 4050W        W46988   2.878   3.680  17.948  0.2035 -0.0492 -0.1537
 4051W        W46989   1.420   1.920  17.321 -0.0192 -0.2396  0.2080
 4052W        W46990   2.862   0.712  18.698  0.1324  0.1102  0.0340
 4053W        W46991   0.948   3.646  18.954  0.5039 -0.0095  0.0429
 4054W        W46992  34.619   2.360  18.213  0.0352 -0.3070 -0.4402
 4055W        W46993   3.599   2.689  17.795 -0.0668  0.0905  0.1112
 4056W        W46994   3.034   2.091  17.341  0.2421 -0.2585 -0.1340
 4057W        W46995   1.708   2.769  16.775 -0.3890  0.1115  0.1775
 4058W        W46996   0.737   0.843  18.435 -0.3971 -0.2362 -0.0349
 4059W        W46997   0.727   2.631  19.761  0.2078 -0.0308  0.1948
 4060W        W46998   0.452   0.989  20.167  0.2089 -0.1256 -0.1561
 4061W        W46999  34.530   1.138  17.637 -0.3147 -0.0278 -0.1559
 4062W        W47000   3.184   2.847  18.071 -0.0719 -0.0678  0.1350
 4063W        W47001   1.219   3.247  18.782 -0.0839 -0.1250 -0.1421
 4064W        W47002   2.649   1.922  17.111 -0.2146 -0.0622  0.1377
 4065W        W47003   1.481   3.039  17.794 -0.1667  0.0885 -0.0308
 4066W        W47004   3.407   3.583  18.906 -0.2024 -0.0655 -0.0569
 4067W        W47005   2.783   1.705  15.629  0.0125 -0.3408 -0.1486
 4068W        W47006   2.672   1.280  17.158 -0.0792 -0.1342 -0.1286
 4069W        W47007   2.065   0.554  19.193 -0.0312  0.0821 -0.1759
 4070W        W47008   1.406   2.443  16.582  0.2434 -0.3419 -0.0213
 4071W        W47009   0.846   0.965  19.004  0.1883 -0.1099  0.2787
 4072W        W47010   3.232   2.322  18.540  0.0570  0.3773  0.0147
 4073W        W47011   2.574   2.381  17.345  0.0596  0.2927 -0.0383
 4074W        W47012   2.201   3.118  18.803  0.2423  0.0376  0.1880
 4075W        W47013   1.715   1.527  18.855 -0.0186  0.1928  0.0046
 4076W        W47014   2.426   2.583  18.874  0.0708  0.1265  0.2924
 4077W        W47015   0.674   4.294  16.795  0.0313  0.0221 -0.2195
 4078W        W47016  34.484   1.893  18.164  0.2002 -0.1603  0.0231
 4079W        W47017   0.422   2.958  16.436 -0.1271 -0.0568  0.1014
 4080W        W47018   0.366  34.647  19.346  0.0511  0.2749 -0.2561
 4081W        W47019   1.890   2.166  19.126  0.2722 -0.1248 -0.1262
 4082W        W47020   2.721   1.735  17.586 -0.1012  0.2525 -0.2771
 4083W        W47021   0.785   0.213  19.314 -0.6341 -0.2342  0.1049
 4084W        W47022   3.307   0.918  17.660  0.0296 -0.1632  0.0911
 4085W        W47023   1.641   2.497  18.844 -0.1141  0.0982  0.0954
 4086W        W47024   3.822   3.660  16.885  0.2427  0.2131  0.0365
 4087W        W47025   3.783   1.746  16.287  0.0599 -0.0313 -0.2268
 4088W        W47026   2.447   2.670  16.446 -0.2968  0.0415  0.1510
 4089W        W47027   0.061   2.092  18.648 -0.2582  0.0180  0.0235
 4090W        W47028   0.922   0.392  18.078  0.3378 -0.0171  0.0493
 4091W        W47029  33.861   1.915  20.371 -0.1727 -0.3128 -0.0771
 4092W        W47030   1.238   0.750  18.236  0.1509  0.3865  0.1135
 4093W        W47031   1.962   0.732  19.638  0.0936 -0.0072  0.0754
 4094W        W47032   2.223   0.366  15.732 -0.0321  0.1222 -0.0415
 4095W        W47033   3.793   0.470  19.316  0.3445 -0.1369  0.3989
 4096W        W47034   2.469   2.683  19.385  0.5193 -0.2849  0.0257
 4097W        W47035  32.633   2.396  17.172  0.3159 -0.0190 -0.0704
 4098W        W47036   2.490   0.839  19.875 -0.1554  0.2285  0.0800
 4099W        W47037   1.246   4.522  19.235  0.0145 -0.1591  0.3722
 4100W        W47038   2.916   2.922  19.392 -0.2324 -0.0340 -0.1654
 4101W        W47039   3.012   2.575  17.644  0.1207  0.2485  0.4182
 4102W        W47040   1.315  34.131  19.814 -0.0364 -0.2653  0.1007
 4103W        W47041   0.816   1.989  17.224  0.0028 -0.1724  0.2496
 4104W        W47042   1.135   5.243  16.768 -0.0667 -0.1591  0.2019
 4105W        W47043   1.209   2.778  19.084  0.0886  0.1158 -0.1444
 4106W        W47044   0.996  34.665  17.668 -0.0062  0.5060 -0.1994
 4107W        W47045   4.405   2.702  18.838  0.2595  0.0099  0.0107
 4108W        W47046   2.320   2.146  18.161 -0.0150  0.2305  0.2643
 4109W        W47047   0.632   0.156  19.815  0.0544 -0.0697 -0.0230
 4110W        W47048   3.028   0.270  18.910 -0.0698 -0.1765 -0.1274
 4111W        W47049   1.603   1.341  20.226 -0.4222  0.0283 -0.0399
 4112W        W47050   2.989   2.541  17.077 -0.1204  0.0453 -0.1462
 4113W        W47051   0.653   1.359  18.128 -0.1733 -0.1352 -0.3545
 4114W        W47052   3.500   3.530  18.301 -0.1021 -0.0324  0.2334
 4115W        W47053   0.311   4.124  18.160 -0.6325 -0.0041  0.1139
 4116W        W47054   0.242   1.869  17.250 -0.0977 -0.0105  0.1028
 4117W        W47055   2.063   2.431  17.460 -0.1648 -0.2164  0.1548
 4118W        W47056   3.041   0.469  17.779 -0.0092 -0.0937  0.3534
 4119W        W47057   1.175   1.647  20.640  0.1966  0.0101  0.0698
 4120W        W47058   2.851  34.663  19.348  0.1905  0.2246  0.1958
 4121W        W47059   0.427   2.274  18.309  0.1691 -0.3878 -0.0125
 4122W        W47060   0.821   1.822  19.685  0.1086 -0.2457 -0.5071
 4123W        W47061   3.146   0.565  16.940 -0.0249  0.2461  0.1711
 4124W        W47062   3.594   1.290  16.420  0.0918  0.0634 -0.2401
 4125W        W47063   1.660   2.262  20.412 -0.1444 -0.0816 -0.1615
 4126W        W47064   2.518   3.137  16.493 -0.2129 -0.2260  0.4684
 4127W        W47065   2.737   1.784  16.528 -0.0590  0.5665  0.1279
 4128W        W47066   2.356   1.015  16.770 -0.0855 -0.1003  0.3129
 4129W        W47067   0.288   1.967  19.068  0.0951  0.2308  0.2002
 4130W        W47068   1.660   2.804  17.304 -0.1469 -0.0948 -0.2628
 4131W        W47069   2.312   3.072  18.077  0.1177  0.3339  0.3483
 4132W        W47070   2.402   0.679  16.395  0.0098 -0.0838 -0.1427
 4133W        W47071   3.195   2.374  15.960 -0.2197  0.3390  0.0151
 4134W        W47072   0.047   2.823  18.263 -0.3228 -0.0694 -0.0573
 4135W        W47073   1.401   2.109  19.338 -0.0407  0.2106  0.3083
 4136W        W47074   4.045   2.945  18.381 -0.3281  0.0325 -0.3008
 4137W        W47075   1.422   0.826  21.173  0.0743  0.0372  0.0095
 4138W        W47076   0.813   1.654  16.832  0.1801 -0.1151 -0.0653
 4139W        W47077   1.950   0.228  18.166 -0.3103  0.0028  0.3411
 4140W        W47078   0.306   2.948  17.109 -0.0184 -0.3195 -0.0997
 4141W        W47079   2.813   0.237  18.454  0.1637 -0.0271 -0.1145
 4142W        W47080   2.435   0.443  17.842 -0.1551 -0.1600 -0.2004
 4143W        W47081   1.429  34.242  18.763  0.1061  0.3049 -0.0511
 4144W        W47082   3.718   0.276  19.827  0.4022  0.0850  0.0676
 4145W        W47083   2.113   1.182  17.223  0.1624  0.3164  0.1500
 4146W        W47084   2.207   2.093  17.107  0.0340  0.3011  0.0044
 4147W        W47085  34.393   0.343  17.470 -0.0186  0.2074 -0.1471
 4148W        W47086   1.612   1.880  20.066 -0.0141  0.2446 -0.0280
 4149W        W47087   1.571   0.435  20.555 -0.0076 -0.0073 -0.1238
 4150W        W47088   0.886   3.979  17.976  0.1353  0.4208 -0.0505
 4151W        W47089   3.374   2.510  19.966 -0.0917  0.1165 -0.2535
 4152W        W47090   2.362   2.566  17.895  0.2895 -0.1294  0.0584
 4153W        W47091   2.162   0.522  20.083 -0.4580 -0.2446  0.1286
 4154W        W47092   3.069   1.377  16.762 -0.0542  0.0511 -0.0194
 4155W        W47093   1.071   3.387  17.128  0.1781  0.0092 -0.2370
 4156W        W47094   1.927   0.753  17.977 -0.0544 -0.1089 -0.0700
 4157W        W47095   1.592   0.002  19.468 -0.3154  0.2104 -0.0553
 4158W        W47096   1.638   2.672  19.411 -0.1014 -0.2517  0.1472
 4159W        W47097   1.157   2.077  17.811 -0.1433  0.0679 -0.0452
 4160W        W47098   1.714   1.770  19.520  0.1183 -0.0117 -0.0920
 4161W        W47099   0.405   3.358  16.857  0.0174 -0.0352  0.0364
 4162W        W47100   3.191  34.225  17.914  0.0807  0.3928  0.2039
 4163W        W47101   0.326   3.029  18.632 -0.2304 -0.3712 -0.1108
 4164W        W47102   0.044   1.976  16.475 -0.0854 -0.0134  0.0712
 4165W        W47103  34.197   1.967  17.786  0.1204  0.0771  0.2160
 4166W        W47104   1.838   1.019  16.771 -0.0100 -0.1109  0.4689
 4167W        W47105   3.788   2.588  17.156 -0.1267  0.1867 -0.0549
 4168W        W47106   0.958  34.075  18.966 -0.2309  0.0514  0.1680
 4169W        W47107   2.158  34.430  17.184  0.1716  0.3027 -0.0248
 4170W        W47108   0.323   3.642  20.266  0.2587 -0.1937  0.0307
 4171W        W47109   1.383   1.611  18.496 -0.1670  0.1158  0.1033
 4172W        W47110   3.322   0.101  16.757  0.1232  0.0082  0.1064
 4173W        W47111   2.650   4.002  18.727 -0.1747  0.0296  0.2606
 4174W        W47112   2.128   1.031  20.112  0.1014 -0.2216  0.2657
 4175W        W47113   1.146   0.602  16.360 -0.0304  0.2627 -0.0449
 4176W        W47114   3.264   1.454  18.381  0.1824 -0.1873 -0.0090
 4177W        W47115   1.277   0.459  17.302  0.1797 -0.0589  0.0765
 4178W        W47116   0.739   3.774  17.096  0.0621  0.1673 -0.1175
 4179W        W47117   2.193   3.940  18.427 -0.3123  0.0536 -0.2839
 4180W        W47118   0.811   1.870  18.224 -0.0009  0.1298  0.0785
 4181W        W47119   0.562   2.725  18.248 -0.0882 -0.0467  0.0920
 4182W        W47120   0.650   0.659  19.484  0.1222  0.1993 -0.0283
 4183W        W47121   1.365   0.496  19.260 -0.2919  0.2243 -0.1433
 4184W        W47122   1.189   1.234  18.098  0.0884 -0.1188 -0.1846
 4185W        W47123   0.014  34.676  17.723 -0.0314  0.1429 -0.0975
 4186W        W47124   2.111   1.444  16.788 -0.0641  0.0331  0.2241
 4187W        W47125   2.660   2.164  18.667  0.1121  0.0624  0.1335
 4188W        W47126   0.957   1.400  19.361 -0.0950 -0.0581  0.1791
 4189W        W47127   0.941   2.865  18.014  0.1237  0.0714 -0.1203
 4190W        W47128   1.448  34.608  17.982 -0.1219  0.1750  0.0438
 4191W        W47129   3.194   3.888  18.490 -0.0669 -0.1687  0.0492
 4192W        W47130   2.571   1.532  19.428  0.3014 -0.2348 -0.1979
 4193W        W47131   1.569   2.338  17.546 -0.1398 -0.0635  0.0667
 4194W        W47132  34.429   2.078  19.142 -0.1868 -0.2963 -0.1243
 4195W        W47133  34.664   2.900  17.689  0.0253  0.1311 -0.2175
 4196W        W47134   2.078  34.614  18.969  0.1904 -0.0736  0.1863
 4197W        W47135   0.446   1.623  19.435 -0.3598  0.0154  0.3104
 4198W        W47136   0.383   2.338  16.471 -0.1289 -0.2020 -0.2276
 4199W        W47137   0.250   3.068  19.921  0.0836 -0.1807  0.0157
 4200W        W47138   3.924   0.667  16.130  0.1626  0.1032  0.0999
 4201W        W47139   2.311   2.032  17.649 -0.1380  0.0836  0.0197
 4202W        W47140   2.291   1.606  17.349  0.1950  0.0199  0.0915
 4203W        W47141   3.582   1.095  18.589  0.7544  0.0996 -0.0795
 4204W        W47142   0.657   1.496  17.332 -0.2822 -0.0024 -0.0678
 4205W        W47143   2.910   0.441  19.416  0.2856  0.2160  0.1437
 4206W        W47144   0.123   1.371  20.246 -0.2111 -0.2522  0.3593
 4207W        W47145   1.336   2.048  18.239  0.1324 -0.0321  0.2666
 4208W        W47146   0.728   0.425  21.155 -0.0149 -0.1155  0.3381
 4209W        W47147   2.140   3.263  19.280 -0.1736  0.1058 -0.0367
 4210W        W47148   0.951   1.026  20.904 -0.2726  0.2310 -0.0083
 4211W        W47149   3.722  34.587  16.859  0.1848  0.0850  0.3519
 4212W        W47150   1.836   0.152  17.222  0.0911 -0.1706  0.1266
 4213W        W47151   0.447   1.778  18.596  0.0270  0.2364  0.2766
 4214W        W47152   3.305   2.320  17.992  0.1288  0.0511  0.0493
 4215W        W47153   2.182   1.673  17.985  0.1005  0.2739  0.1869
 4216W        W47154   3.603   1.857  17.306 -0.2959  0.2072 -0.0624
 4217W        W47155   0.245   2.560  18.722  0.0859 -0.1139 -0.1279
 4218W        W47156   1.490   1.067  18.533  0.0560  0.1525  0.0368
 4219W        W47157   2.596   2.831  16.883  0.0234  0.1352 -0.2438
 4220W        W47158   1.348   2.526  17.943  0.2376 -0.2157 -0.0516
 4221W        W47159   0.987   0.224  20.162  0.1045  0.0805  0.1094
 4222W        W47160   2.357   1.703  18.816 -0.1771 -0.1432  0.1238
 4223W        W47161   1.845   0.227  19.814  0.1934 -0.1178 -0.3271
 4224W        W47162   2.125   0.383  18.638 -0.1727  0.2520  0.1802
 4225W        W47163   1.848   1.230  18.156  0.0227  0.2020 -0.0666
 4226W        W47164   2.140   1.234  18.901 -0.0239 -0.2118 -0.1332
 4227W        W47165   0.655  33.585  19.217  0.1159  0.0776 -0.1145
 4228W        W47166   2.685   3.033  18.965  0.1681 -0.2078  0.0013
 4229W        W47167   4.228   0.661  16.565  0.0695 -0.1102  0.4327
 4230W        W47168   4.306   0.276  18.540 -0.1976 -0.2291  0.1886
 4231W        W47169   4.398   1.994  17.424 -0.0268  0.1230  0.1312
 4232W        W47170   1.858   1.772  17.052 -0.0136 -0.0442 -0.2538
 4233W        W47171   2.656   0.635  17.233  0.0906 -0.1515  0.0507
 4234W        W47172   3.446   2.616  18.936 -0.1243 -0.1104  0.2051
 4235W        W47173   1.943   1.134  17.687 -0.0842 -0.0905  0.3014
 4236W        W47174   2.905  34.453  18.777  0.2279  0.0308  0.0951
 4237W        W47175   1.383   3.054  16.451  0.1840 -0.0277 -0.0868
 4238W        W47176   1.813   2.100  17.931 -0.2269  0.2459  0.0446
 4239W        W47177   3.152   1.167  16.341  0.0393  0.2019  0.0034
 4240W        W47178   0.285   1.812  18.114 -0.1282  0.0797  0.0179
 4241W        W47179   0.692   4.487  18.221 -0.4060  0.1264  0.0722
 4242W        W47180   0.600   1.138  17.000 -0.3957 -0.2661 -0.0761
 4243W        W47181   1.154   1.530  17.179  0.3096 -0.0036 -0.0252
 4244W        W47182   1.812   3.014  18.233  0.4341 -0.1469 -0.0034
 4245W        W47183   3.723   1.633  21.074  0.2947  0.1656  0.3864
 4246W        W47184   2.761  33.718  17.302 -0.1625 -0.1137 -0.0297
 4247W        W47185   2.265   1.147  19.497  0.1307 -0.0776  0.0805
 4248W        W47186   0.635   4.048  17.520  0.1475  0.1841  0.3299
 4249W        W47187   1.648  34.574  18.429  0.2089  0.0979 -0.1102
 4250W        W47188   1.897   5.260  17.736  0.0622 -0.3237  0.3529
 4251W        W47189   0.399   0.786  20.911  0.0268 -0.0826 -0.0326
 4252W        W47190   1.353   3.907  17.088 -0.3102  0.1893  0.2425
 4253W        W47191   3.214   1.259  18.920  0.2597  0.0622 -0.1671
 4254W        W47192   2.086  34.118  19.991  0.0656 -0.0606 -0.0156
 4255W        W47193   1.515   2.002  18.730  0.3095  0.1834 -0.2832
 4256W        W47194   4.382   1.294  19.235  0.1762  0.0063  0.4813
 4257W        W47195   0.897   1.887  19.181  0.0018  0.1277  0.1806
 4258W        W47196   1.064   0.300  18.892  0.2462 -0.1684 -0.0744
 4259W        W47197   2.061   1.635  19.205 -0.1086  0.3505  0.3421
 4260W        W47198   3.955   2.214  17.480  0.0903 -0.4661 -0.2551
 4261W        W47199   0.077   2.105  17.705  0.1502 -0.0472  0.2931
 4262W        W47200  33.882   1.331  20.416 -0.2335 -0.0250  0.1865
 4263W        W47201   1.443   1.211  21.449 -0.2720  0.0907 -0.4502
 4264W        W47202   2.920   2.172  16.302 -0.2727  0.1850  0.0551
 4265W        W47203   1.181  33.864  16.965 -0.2483  0.1543  0.2819
 4266W        W47204   0.819   2.659  16.533  0.0459  0.0891 -0.1139
 4267W        W47205   1.782   4.262  20.152  0.1804  0.2838 -0.0217
 4268W        W47206   1.811   1.361  21.136 -0.1183  0.2422 -0.0935
 4269W        W47207   0.669   3.327  17.327  0.0211  0.2260  0.0283
 4270W        W47208   3.490   2.210  16.933  0.1031 -0.1143 -0.0091
 4271W        W47209   3.882   2.294  16.702  0.0425 -0.0095 -0.1958
 4272W        W47210   3.143   3.883  17.457  0.2825  0.2747 -0.0591
 4273W        W47211   2.152   1.160  16.345  0.0844 -0.0326  0.0616
 4274W        W47212   0.781   3.954  18.533 -0.1379 -0.0727  0.1957
 4275W        W47213   0.784   0.899  16.628  0.1946  0.2155  0.1302
 4276W        W47214   3.019   3.043  17.316 -0.0983 -0.2340 -0.0334
 4277W        W47215   0.796   2.866  17.148 -0.0159  0.1390  0.3801
 4278W        W47216   3.059   2.779  18.548  0.0005 -0.1387 -0.2366
 4279W        W47217   3.094   1.014  17.212  0.0642 -0.1678 -0.3070
 4280W        W47218   5.113   0.874  17.384 -0.1704 -0.1399 -0.2569
 4281W        W47219   3.288   1.690  16.453  0.0016 -0.0115  0.1520
 4282W        W47220   2.411   1.468  19.935 -0.0693  0.0969  0.1942
 4283W        W47221   1.617   0.958  17.249 -0.1758 -0.2224  0.5207
 4284W        W47222   2.185   0.094  16.761  0.1426 -0.1621  0.0041
 4285W        W47223   1.148   0.464  20.834 -0.0292 -0.1051 -0.3105
 4286W        W47224   3.487  34.198  20.221 -0.0932  0.1558  0.2261
 4287W        W47225   0.704   3.070  20.336 -0.1015  0.0676 -0.0049
 4288W        W47226   2.000   2.939  16.416 -0.2114  0.3968 -0.2654
 4289W        W47227   0.565   2.287  17.529 -0.1107  0.0521  0.0828
 4290W        W47228   1.229   0.741  18.845  0.2305 -0.2230 -0.0379
 4291W        W47229   3.295  34.016  17.478 -0.1982 -0.0938 -0.0970
 4292W        W47230   1.233   2.340  17.023 -0.1268  0.0072 -0.1327
 4293W        W47231   1.509   0.928  17.765  0.1555 -0.1096  0.2938
 4294W        W47232   1.266   2.935  16.943  0.0124 -0.1755 -0.1366
 4295W        W47233   1.320   4.023  18.311 -0.3303 -0.0714 -0.0080
 4296W        W47234   1.189   2.615  20.117 -0.0187  0.0124 -0.2540
 4297W        W47235   0.210   0.431  16.543  0.1627  0.1719  0.1466
 4298W        W47236   4.557   1.941  16.928 -0.0553  0.1810 -0.2723
 4299W        W47237   0.126   1.436  19.116  0.0080 -0.1282  0.0462
 4300W        W47238   2.403  33.636  18.417  0.3008  0.0081  0.1981
 4301W        W47239   1.229   0.186  18.392  0.0336  0.0491 -0.0167
 4302W        W47240   3.255   1.830  17.775  0.0417  0.3495  0.1312
 4303W        W47241   1.323   1.669  19.101 -0.1102 -0.3040  0.0021
 4304W        W47242   0.753   0.634  19.982 -0.0574 -0.1133 -0.0966
 4305W        W47243   0.714   0.410  16.675 -0.0210  0.2215 -0.1103
 4306W        W47244   2.793   1.891  19.718  0.0531 -0.0050  0.2799
 4307W        W47245   3.107   1.945  16.840 -0.0284 -0.0317  0.3036
 4308W        W47246   2.572   3.028  20.191  0.0970  0.3963 -0.1056
 4309W        W47247   0.585   0.836  17.951 -0.0044  0.0727 -0.3101
 4310W        W47248   2.453   2.209  16.316  0.0776  0.3306 -0.0459
 4311W        W47249   1.105   1.868  16.369 -0.0063  0.1004  0.2217
 4312W        W47250   1.766   1.231  19.336  0.0274  0.0315  0.0360
 4313W        W47251   2.838   2.334  20.024 -0.0484 -0.1193  0.1783
 4314W        W47252   1.333   0.875  16.716  0.3039  0.2415 -0.1980
 4315W        W47253   2.181   2.525  16.884  0.0018  0.1036 -0.3268
 4316W        W47254   2.779   0.670  18.199 -0.1314  0.1796 -0.1418
 4317W        W47255   2.350   3.572  16.252 -0.2668  0.1363 -0.2496
 4318W        W47256   3.462   2.335  17.463 -0.0989 -0.1855 -0.1387
 4319W        W47257   2.794   3.496  17.503  0.0416  0.2434  0.1229
 4320W        W47258   0.421   1.093  19.649  0.0313  0.1603  0.0966
 4321W        W47259   3.046   4.156  18.961  0.0367 -0.0025  0.0529
 4322W        W47260   4.543   3.502  18.301  0.0363 -0.3047  0.3106
 4323W        W47261   1.872   0.025  17.717  0.2137  0.0630  0.1470
 4324W        W47262   1.311   1.205  19.038 -0.0132 -0.2773  0.2438
 4325W        W47263   0.758   4.894  16.611 -0.0465  0.2225  0.1113
 4326W        W47264   3.362   0.051  19.535  0.0858  0.3514 -0.0126
 4327W        W47265   2.850  32.884  19.911  0.2465  0.0256  0.0785
 4328W        W47266   1.750   3.485  16.295 -0.3265 -0.1117  0.0012
 4329W        W47267   2.542   0.354  19.083 -0.0318  0.1710 -0.3283
 4330W        W47268   2.997   1.876  18.273 -0.0610  0.1908 -0.1415
 4331W        W47269   1.365   3.412  21.128  0.2583  0.0561  0.0444
 4332W        W47270   0.430   0.615  17.095 -0.3174  0.0602 -0.1179
 4333W        W47271   2.242   2.945  20.660 -0.0615 -0.0086  0.0050
 4334W        W47272   1.724   2.386  17.083 -0.0840 -0.2774  0.0612
 4335W        W47273   1.944   1.731  18.456 -0.1261 -0.0996 -0.1070
 4336W        W47274   4.083   2.154  18.424  0.2744  0.0958 -0.1595
 4337W        W47275   2.458   1.297  17.624  0.1499  0.2520 -0.1489
 4338W        W47276   2.814   3.093  17.882  0.0520 -0.1965 -0.1741
 4339W        W47277   1.055   0.775  17.736  0.1791  0.0942 -0.0656
 4340W        W47278   3.734   0.378  16.894  0.1256  0.2498  0.0120
 4341W        W47279   2.441  34.473  17.577 -0.0818  0.3095  0.2804
 4342W        W47280   0.575   1.430  19.965 -0.1600  0.0566  0.1054
 4343W        W47281   0.594   1.811  16.390 -0.0470 -0.1154  0.1143
 4344W        W47282   1.760   2.010  16.597 -0.1270 -0.0672 -0.1229
 4345W        W47283   2.029   2.788  19.174  0.0338 -0.0619 -0.1039
 4346W        W47284   2.542  34.412  19.696 -0.2159  0.1024  0.1617
 4347W        W47285   0.930   1.725  21.087  0.2250  0.0827  0.1106
 4348W        W47286  34.232   1.876  17.218 -0.0469 -0.1427  0.0593
 4349W        W47287   0.182   0.350  17.460 -0.1142 -0.0525 -0.0182
 4350W        W47288   2.308   3.318  17.606 -0.0892  0.1509 -0.1936
 4351W        W47289   0.699   0.329  18.519  0.1797  0.1233 -0.1138
 4352W        W47290   1.267   0.349  16.815 -0.0960 -0.3648 -0.0250
 4353W        W47291   2.532   2.918  17.391 -0.2821  0.0134 -0.2910
 4354W        W47292   2.048   2.924  17.627  0.2617  0.3130 -0.1638
 4355W        W47293   1.505  34.264  17.114  0.1457 -0.2766  0.2007
 4356W        W47294   3.062   3.267  19.842 -0.0265  0.2090 -0.2715
 4357W        W47295   0.908   2.196  16.694  0.1379  0.1433 -0.0119
 4358W        W47296   1.524   1.062  19.823  0.1349 -0.0858  0.2964
 4359W        W47297   1.148  34.653  19.751  0.0323 -0.0754 -0.2183
 4360W        W47298  34.149  33.816  16.988  0.0675 -0.0339 -0.1406
 4361W        W47299   1.693   0.690  20.102 -0.0800  0.0394  0.1806
 4362W        W47300   2.356   3.623  18.023 -0.2381  0.3287  0.0962
 4363W        W47301   1.977   5.158  17.273 -0.0373  0.0572  0.1212
 4364W        W47302   3.353   2.599  19.429 -0.0220 -0.0923 -0.1450
 4365W        W47303   1.659   3.029  18.777  0.0666 -0.3104  0.1136
 4366W        W47304   1.569  33.723  19.589  0.2136 -0.0374 -0.0306
 4367W        W47305   3.831   3.127  16.645  0.0872 -0.0246  0.0615
 4368W        W47306   2.114   2.356  19.555  0.3330  0.1446  0.2611
 4369W        W47307   4.017   3.082  17.120  0.1398  0.0274  0.2194
 4370W        W47308   3.556   1.361  17.383  0.3784  0.0456 -0.0880
 4371W        W47309   2.224   0.798  17.565 -0.0791 -0.0399  0.0548
 4372W        W47310   0.405  34.011  19.071 -0.1997  0.1723  0.1784
 4373W        W47311   2.004   2.403  21.123 -0.1027 -0.0421 -0.0629
 4374W        W47312   2.799   2.492  18.237  0.0888  0.0806 -0.5031
 4375W        W47313   1.553   1.652  17.987  0.1369 -0.0235  0.2602
 4376W        W47314   3.642   0.063  17.758 -0.1361  0.0301  0.3790
 4377W        W47315   1.612   3.749  15.920  0.0226 -0.0747  0.0199
 4378W        W47316  34.696   1.569  18.593  0.2627 -0.1520 -0.3317
 4379W        W47317   0.983   1.839  18.661  0.0303 -0.0985  0.0085
 4380W        W47318   2.066   1.618  20.282 -0.1380  0.1304  0.1837
 4381W        W47319   2.156   2.166  18.649 -0.4292  0.2175  0.1262
 4382W        W47320   2.897   2.814  19.890  0.0664  0.3236 -0.3782
 4383W        W47321   2.281  34.231  16.727  0.1691 -0.2198 -0.2859
 4384W        W47322   4.071   0.656  17.111 -0.2613 -0.0443 -0.2080
 4385W        W47323   3.886   3.059  17.588  0.0382 -0.1511  0.0174
 4386W        W47324   2.647   3.434  19.354  0.2169 -0.0094  0.0926
 4387W        W47325   1.382   3.545  17.997  0.0153 -0.2423  0.0162
 4388W        W47326   3.250   1.855  18.740 -0.0202 -0.2839 -0.0297
 4389W        W47327   0.478  34.484  18.522  0.2183  0.0393 -0.0055
 4390W        W47328   0.765   2.399  17.952  0.4135  0.1070  0.2618
 4391W        W47329   0.472   3.613  17.739  0.0464 -0.2063  0.1820
 4392W        W47330   3.396   0.666  19.497 -0.2315 -0.1676  0.0428
 4393W        W47331   2.393   1.045  18.042  0.0207  0.1783 -0.1941
 4394W        W47332   2.633  34.381  17.159 -0.1911 -0.0790  0.0880
 4395W        W47333   1.680   2.379  19.932 -0.2783 -0.1871  0.2358
 4396W        W47334   0.943   2.303  18.420  0.1644  0.2833 -0.0538
 4397W        W47335   2.290   2.573  22.946 -0.2251  0.0448  0.0564
 4398W        W47336   1.334   2.426  22.064  0.2982 -0.0387 -0.1793
 4399W        W47337   3.423  34.255  19.696  0.2566 -0.0974 -0.0768
 4400W        W47338   4.044   1.396  20.260  0.0706  0.2709 -0.0259
 4401W        W47339   0.107   0.759  23.073 -0.3676 -0.2910 -0.2260
 4402W        W47340   2.035   3.333  20.344  0.0388  0.1223  0.1804
 4403W        W47341   0.680   0.310  22.569 -0.1678 -0.2428 -0.3110
 4404W        W47342   2.414   2.245  21.907 -0.0715  0.1028 -0.1827
 4405W        W47343   2.981   3.061  21.894  0.1817  0.0390  0.1699
 4406W        W47344   2.517   2.434  20.826  0.1025 -0.1806 -0.0231
 4407W        W47345   1.062   0.475  22.830 -0.0557  0.1716 -0.0189
 4408W        W47346   0.037   4.876  22.411 -0.1220  0.0175  0.2654
 4409W        W47347   1.126  33.617  19.806  0.0124  0.0506 -0.0268
 4410W        W47348   0.600  33.438  22.346  0.0032 -0.3339 -0.2218
 4411W        W47349   2.845   1.305  22.911  0.2362 -0.2282  0.2551
 4412W        W47350  33.639   2.767  21.737 -0.0743  0.3420  0.0334
 4413W        W47351   1.214   1.405  22.178  0.2979  0.1672  0.3077
 4414W        W47352   1.865   0.632  21.422 -0.0101  0.1348  0.0122
 4415W        W47353   3.646   3.516  20.210  0.0020  0.0420 -0.3100
 4416W        W47354   0.417   0.722  23.498 -0.1377  0.0478 -0.1788
 4417W        W47355   1.702   0.991  22.690  0.1242  0.1614  0.2421
 4418W        W47356   3.310   4.492  20.677  0.1361 -0.2529  0.1410
 4419W        W47357   0.178   1.545  20.712  0.0452 -0.0110 -0.0841
 4420W        W47358   0.675   0.817  22.680 -0.3916 -0.0669  0.0223
 4421W        W47359   0.050   2.304  22.607  0.0036  0.0773  0.0508
 4422W        W47360   1.167   0.440  21.341 -0.1331 -0.1183 -0.2406
 4423W        W47361   3.430   2.083  21.733 -0.1560  0.2181 -0.1478
 4424W        W47362   0.170   3.577  21.380  0.0807 -0.1190  0.0134
 4425W        W47363   2.207   3.793  23.122 -0.0033 -0.0098  0.0002
 4426W        W47364   2.358   1.177  24.372 -0.1040 -0.1177 -0.1468
 4427W        W47365   0.424   3.199  21.199  0.1468  0.1391  0.1247
 4428W        W47366   1.603   2.226  22.495  0.2542  0.2117 -0.0580
 4429W        W47367   2.471   3.941  21.711  0.1650 -0.0343  0.1775
 4430W        W47368   2.939   1.958  21.804  0.0156  0.1983  0.1033
 4431W        W47369   3.171   2.157  22.233 -0.0764 -0.1421 -0.2542
 4432W        W47370   1.000   3.765  22.378  0.1476 -0.2794 -0.1730
 4433W        W47371  34.094   3.987  21.623  0.4414  0.0582 -0.1836
 4434W        W47372   3.021   4.363  22.840  0.0400 -0.0814  0.0401
 4435W        W47373   0.872   3.301  23.978  0.2110  0.0354  0.0441
 4436W        W47374   1.140   1.067  22.688 -0.0218 -0.3278 -0.2316
 4437W        W47375   1.074   0.517  21.841  0.1576 -0.4040 -0.1925
 4438W        W47376   1.745   3.004  21.150 -0.0375 -0.1185  0.0409
 4439W        W47377   1.109   3.725  21.411  0.2556 -0.0539  0.0041
 4440W        W47378   1.409   2.934  23.217  0.1702 -0.1899  0.0705
 4441W        W47379   0.947   3.201  21.999 -0.0685 -0.1121 -0.1173
 4442W        W47380   3.323   0.562  23.721  0.3181 -0.1945  0.1835
 4443W        W47381   0.100   2.865  22.327  0.0169  0.0967  0.3806
 4444W        W47382   2.452   1.303  20.404  0.0444  0.0949 -0.1887
 4445W        W47383   0.958   1.096  19.802  0.2396  0.0462 -0.0118
 4446W        W47384   2.400   0.721  20.912 -0.0946 -0.0487  0.0488
 4447W        W47385   2.448   0.095  21.405 -0.1259  0.0610  0.1006
 4448W        W47386   1.239   4.715  22.622 -0.1804  0.2093 -0.0932
 4449W        W47387   2.198   0.806  23.420 -0.0060 -0.1033 -0.1359
 4450W        W47388   3.932   2.226  23.402 -0.1183 -0.2129 -0.3978
 4451W        W47389   1.993   0.733  21.899  0.0451  0.0387  0.1100
 4452W        W47390   3.622   1.973  23.972 -0.0194 -0.1729  0.2100
 4453W        W47391   0.560   4.112  22.537 -0.0162 -0.4464 -0.3058
 4454W        W47392   0.193   2.046  21.897 -0.2082 -0.1453 -0.3163
 4455W        W47393   3.606   1.407  20.572  0.0352  0.3384  0.0673
 4456W        W47394   3.292   3.365  21.550 -0.4619  0.0198  0.3863
 4457W        W47395   2.836   1.726  20.174  0.0446  0.1309  0.0422
 4458W        W47396  34.254  34.298  22.633  0.0888  0.1871 -0.0186
 4459W        W47397   0.912   2.937  22.916  0.0118  0.1042  0.0717
 4460W        W47398   0.716   1.825  23.302  0.3006 -0.2405  0.0971
 4461W        W47399   1.575  33.924  20.816 -0.1038 -0.0085  0.0161
 4462W        W47400   4.859   2.177  22.906 -0.1315  0.1955  0.1257
 4463W        W47401  33.213   0.727  23.234  0.0168  0.0966  0.2124
 4464W        W47402   3.674   1.257  21.314 -0.2812  0.0110  0.1274
 4465W        W47403   1.658   2.121  21.551 -0.1388 -0.0264 -0.3861
 4466W        W47404   3.683   2.406  22.017 -0.1530  0.0108 -0.3809
 4467W        W47405   3.451   1.286  20.112 -0.2533 -0.1764 -0.0463
 4468W        W47406   1.858  33.795  22.110 -0.0035 -0.0916  0.1452
 4469W        W47407  34.418   0.364  23.043 -0.0293 -0.0950 -0.1149
 4470W        W47408  34.413   1.618  21.127  0.0589  0.0836 -0.2199
 4471W        W47409   2.178   1.665  20.764 -0.0232 -0.3907  0.3337
 4472W        W47410   3.507   1.810  22.266  0.5245 -0.0414  0.2497
 4473W        W47411   3.308   1.816  20.852  0.0937  0.1582 -0.3853
 4474W        W47412   1.469   3.093  22.733 -0.0231  0.0726  0.0916
 4475W        W47413   0.620   1.281  23.532 -0.4404 -0.1543 -0.0274
 4476W        W47414   2.794   4.160  23.350 -0.1919 -0.2431 -0.0022
 4477W        W47415   1.364   3.588  19.719 -0.1611 -0.0562  0.5207
 4478W        W47416   0.293   1.883  19.860  0.0513  0.4717 -0.2315
 4479W        W47417   0.708   2.684  21.180 -0.1815  0.3564 -0.1222
 4480W        W47418  33.601   0.460  23.651 -0.2187 -0.0228  0.0743
 4481W        W47419   1.677   3.343  21.919 -0.0883 -0.1139 -0.0319
 4482W        W47420   4.595   0.300  22.782  0.1215 -0.0111 -0.0873
 4483W        W47421   0.098  34.212  22.713 -0.1209  0.0919 -0.0363
 4484W        W47422   3.377   1.066  22.873 -0.3132  0.0736  0.1364
 4485W        W47423   2.434   0.584  21.424  0.0945  0.1840  0.4338
 4486W        W47424   3.992   3.187  22.492 -0.1065 -0.0508 -0.1752
 4487W        W47425   4.014   1.989  21.415 -0.1744 -0.0070  0.0754
 4488W        W47426   1.347   1.521  19.738  0.2173  0.1296  0.2939
 4489W        W47427   0.826   1.624  21.909 -0.0083  0.4584  0.1454
 4490W        W47428   0.759   1.661  22.454 -0.1789  0.0799  0.0859
 4491W        W47429   0.481   1.890  23.946  0.0614 -0.0436  0.0154
 4492W        W47430  33.925   0.375  22.352  0.0972  0.0019  0.1896
 4493W        W47431   4.161   1.855  23.778  0.3530  0.1650  0.1300
 4494W        W47432   1.147  34.204  20.830 -0.1397 -0.2686  0.4408
 4495W        W47433   2.630   0.324  21.866 -0.3339  0.3047  0.4071
 4496W        W47434   0.208   0.333  21.285  0.0397 -0.3273 -0.0813
 4497W        W47435   0.381   0.185  21.778  0.3068 -0.3806  0.1139
 4498W        W47436   1.025  34.625  23.747  0.0873  0.2215 -0.0633
 4499W        W47437   3.236   4.133  19.570 -0.1404 -0.1760 -0.1578
 4500W        W47438   4.710   2.646  24.478  0.0331 -0.0322 -0.0280
 4501W        W47439   3.779   3.624  21.443  0.0574 -0.1343  0.1501
 4502W        W47440  34.450  33.773  22.564 -0.1193 -0.0450 -0.1834
 4503W        W47441   0.965   0.088  21.629 -0.1690 -0.1940 -0.0023
 4504W        W47442  33.923   3.367  22.415  0.0858  0.1168  0.0392
 4505W        W47443   1.271   3.673  20.715 -0.0759 -0.1050  0.1067
 4506W        W47444   2.114   0.365  21.087  0.0231  0.1353 -0.2267
 4507W        W47445   1.779   4.573  22.285  0.0376  0.3248 -0.0641
 4508W        W47446   2.477   2.547  20.371 -0.2201  0.2002  0.1227
 4509W        W47447   0.944   3.298  22.557 -0.1247 -0.1077  0.1542
 4510W        W47448   1.841  34.553  23.678 -0.0106 -0.0682  0.3419
 4511W        W47449   3.632   0.783  23.206 -0.2529  0.1716 -0.1013
 4512W        W47450   1.895   0.649  22.408  0.0417  0.2816  0.1018
 4513W        W47451   0.852  34.091  19.948  0.1662  0.0194 -0.0110
 4514W        W47452   2.047   2.064  20.125  0.0266  0.3000 -0.1827
 4515W        W47453  34.602   3.365  20.974  0.1956  0.1915 -0.3449
 4516W        W47454  34.150   1.592  21.849  0.0064  0.1833 -0.2131
 4517W        W47455   3.063   4.172  22.022 -0.1122 -0.3279  0.1635
 4518W        W47456   2.758   1.076  20.794  0.1716  0.1368  0.0333
 4519W        W47457   0.615   4.088  25.380 -0.1805  0.1652  0.0723
 4520W        W47458   1.126   0.400  23.408  0.3196  0.3796  0.0383
 4521W        W47459   2.087  34.194  20.948 -0.0685  0.4480 -0.1291
 4522W        W47460   0.429   2.786  25.015 -0.2734  0.2133  0.1670
 4523W        W47461   2.933  34.141  21.487 -0.3073  0.0296  0.1715
 4524W        W47462   1.965   1.103  21.539 -0.3214  0.1366  0.2714
 4525W        W47463   1.412   1.619  23.757  0.0554 -0.1821  0.1886
 4526W        W47464   3.334   2.298  20.674 -0.0910  0.2308 -0.1199
 4527W        W47465   1.991   0.017  20.270 -0.2213  0.4711 -0.0717
 4528W        W47466   2.855  34.689  20.616  0.0750  0.2898  0.0600
 4529W        W47467   0.952   3.581  24.832  0.1486 -0.0226  0.2777
 4530W        W47468   2.747   3.875  20.270  0.0715 -0.2553  0.0478
 4531W        W47469   2.207   3.142  21.516  0.1822 -0.1404 -0.1510
 4532W        W47470   2.961  34.220  20.473  0.3172 -0.2541 -0.2369
 4533W        W47471   4.148   3.832  21.900 -0.1982 -0.2931 -0.4687
 4534W        W47472  34.603   2.579  23.384 -0.0194  0.2548  0.1078
 4535W        W47473   1.859   2.363  22.905 -0.3750 -0.2625  0.0771
 4536W        W47474   2.212   3.520  21.946  0.2308 -0.2039 -0.0200
 4537W        W47475   1.172   0.083  22.484 -0.0292  0.0990  0.0960
 4538W        W47476   1.895   1.868  21.148  0.0759 -0.0368 -0.1178
 4539W        W47477   2.014  34.519  21.422  0.0628  0.3048 -0.0721
 4540W        W47478   1.019   3.304  19.324  0.2258 -0.0702  0.0499
 4541W        W47479   2.779   0.692  23.029  0.1938  0.0066 -0.0491
 4542W        W47480   2.490   1.691  23.001  0.0348 -0.0891 -0.1286
 4543W        W47481   0.389  33.404  23.154 -0.2773  0.0580  0.0484
 4544W        W47482   3.890   2.157  22.863 -0.1374 -0.0716 -0.1145
 4545W        W47483   4.040   0.061  21.389  0.1404 -0.1140  0.1156
 4546W        W47484   3.717   1.608  21.714 -0.1317 -0.1685 -0.0173
 4547W        W47485   1.458   0.936  20.654 -0.0663 -0.1385 -0.1266
 4548W        W47486   1.070   0.025  23.071  0.0114 -0.1661  0.1997
 4549W        W47487   1.170   1.701  23.291  0.0597 -0.0680 -0.2110
 4550W        W47488  33.213   3.835  21.967 -0.2327 -0.3389  0.1265
 4551W        W47489   2.688   2.876  23.747  0.4666  0.0324 -0.1129
 4552W        W47490   3.121   2.936  21.304  0.4619 -0.1844 -0.0341
 4553W        W47491   0.686   0.906  23.855 -0.1243 -0.0909 -0.1640
 4554W        W47492   2.231   0.192  22.272  0.1010 -0.2361 -0.3491
 4555W        W47493   1.060   3.081  20.040 -0.0609  0.2505  0.0348
 4556W        W47494   2.876   2.054  20.619 -0.0411 -0.1348  0.0406
 4557W        W47495   2.596  33.810  21.446  0.1568  0.0970 -0.2437
 4558W        W47496   1.845   2.895  22.979 -0.0204 -0.0481  0.0399
 4559W        W47497   2.482   2.009  20.377 -0.1795 -0.1282  0.0557
 4560W        W47498   2.456   3.105  22.022 -0.0555  0.0416  0.1183
 4561W        W47499   1.869   2.374  22.051 -0.0527 -0.0499 -0.0528
 4562W        W47500   3.168  33.632  22.933 -0.3076 -0.0646 -0.0045
 4563W        W47501  34.635   2.933  23.857  0.0844  0.0515  0.3069
 4564W        W47502   1.903   1.389  19.803  0.0261  0.0788  0.0819
 4565W        W47503  34.576   2.362  20.369 -0.2162  0.1615  0.1382
 4566W        W47504   2.937  34.485  22.988 -0.1537  0.2434  0.1651
 4567W        W47505   2.379   1.806  22.069 -0.0933  0.0472 -0.0798
 4568W        W47506  34.639  33.584  23.310 -0.2255  0.1086  0.0706
 4569W        W47507   1.465  34.484  21.492 -0.1108 -0.0861 -0.2091
 4570W        W47508   0.081   3.865  22.654  0.1064 -0.0835  0.0882
 4571W        W47509   2.919   2.426  22.618 -0.0468  0.2471 -0.1596
 4572W        W47510   2.785  34.580  21.689 -0.0551  0.0237  0.2164
 4573W        W47511   3.113   2.736  23.472 -0.0036 -0.3665 -0.2127
 4574W        W47512   0.695   3.593  24.367 -0.1394  0.1009  0.3602
 4575W        W47513   1.148  34.626  21.100 -0.0561  0.1076  0.1740
 4576W        W47514   4.100   2.618  22.441 -0.0862 -0.1707 -0.0703
 4577W        W47515   1.476   1.471  22.936 -0.2583 -0.0371  0.0807
 4578W        W47516   0.791   2.066  20.658  0.3014 -0.1038 -0.1287
 4579W        W47517   1.916   3.919  23.656  0.0736  0.1842  0.0029
 4580W        W47518   0.392   1.683  21.445  0.0759  0.2906  0.1102
 4581W        W47519  34.361   1.991  22.085 -0.1573 -0.2689 -0.1793
 4582W        W47520  34.001   0.696  23.903 -0.1254 -0.0686 -0.0970
 4583W        W47521   2.721   1.909  23.661 -0.0945  0.0559  0.1216
 4584W        W47522   2.494   1.141  23.247  0.0513  0.2390  0.1545
 4585W        W47523   1.166  33.910  20.324 -0.2595 -0.0224  0.1186
 4586W        W47524   3.251   1.725  21.395 -0.3199 -0.1868 -0.2043
 4587W        W47525   3.975   2.063  22.344 -0.2525 -0.1298 -0.1542
 4588W        W47526   1.099   0.618  22.329  0.1029 -0.3135  0.1479
 4589W        W47527   1.304   2.630  23.709 -0.1238 -0.0357 -0.1665
 4590W        W47528   1.859   0.657  23.106  0.0341  0.2214 -0.1412
 4591W        W47529   3.434   3.682  19.683  0.1025  0.3953 -0.0886
 4592W        W47530   2.023   1.637  24.429 -0.3161 -0.1068  0.1824
 4593W        W47531   2.608   2.359  21.358 -0.0579  0.1409 -0.3579
 4594W        W47532  34.418   3.612  22.349 -0.0999  0.3358 -0.0748
 4595W        W47533   2.421   2.581  19.923  0.1802  0.1083  0.2374
 4596W        W47534   2.317   1.237  22.764 -0.0616  0.2419 -0.2622
 4597W        W47535   1.922   2.908  22.057 -0.3139  0.1709  0.0851
 4598W        W47536   1.160   2.238  21.637 -0.0254  0.2526 -0.1711
 4599W        W47537   2.205   2.186  22.463 -0.1702  0.0412 -0.1317
 4600W        W47538   2.834   1.692  22.284 -0.0897 -0.0907  0.1623
 4601W        W47539   3.058   2.525  21.030  0.0302  0.1245 -0.0278
 4602W        W47540   0.859  34.321  21.362  0.2553  0.3007 -0.2270
 4603W        W47541   4.213   0.840  22.653 -0.0219 -0.1518 -0.1107
 4604W        W47542   3.276   0.875  20.390 -0.1207 -0.1908  0.0186
 4605W        W47543   1.988   0.054  24.192  0.3545  0.0499 -0.3477
 4606W        W47544   0.196   0.318  22.829  0.0051  0.0895 -0.3504
 4607W        W47545   3.093   2.349  21.491  0.4172  0.1702 -0.2696
 4608W        W47546  34.343   1.515  23.919 -0.2157  0.0677 -0.0382
 4609W        W47547   3.835   3.088  21.497 -0.0518 -0.1854  0.2842
 4610W        W47548   1.362   0.806  23.067 -0.0044  0.0393 -0.0393
 4611W        W47549   1.994   0.205  21.745 -0.0600 -0.1557  0.2222
 4612W        W47550   1.518   0.802  21.694 -0.3204  0.0207  0.4245
 4613W        W47551   1.700   1.256  21.906  0.0119 -0.1651  0.2324
 4614W        W47552   3.956   2.401  21.066  0.0777 -0.0542  0.0137
 4615W        W47553   2.229   1.535  21.397  0.0436 -0.3975  0.0497
 4616W        W47554   3.598   1.264  22.056  0.0797 -0.2061 -0.1062
 4617W        W47555   1.202   1.945  22.214  0.0113  0.0113 -0.3551
 4618W        W47556   2.295   0.787  22.887  0.2658 -0.1317 -0.2402
 4619W        W47557   1.199   0.659  20.233  0.1140  0.1406 -0.3739
 4620W        W47558   0.671   2.017  22.157  0.0684 -0.2031 -0.1857
 4621W        W47559   0.801   0.360  23.787 -0.1610 -0.0213 -0.2767
 4622W        W47560   1.922   0.911  21.018  0.0101  0.1444  0.2066
 4623W        W47561   2.455   0.848  21.873 -0.0742  0.0108 -0.1549
 4624W        W47562   2.028   1.104  22.350  0.0070  0.0645 -0.2251
 4625W        W47563   2.318   2.130  23.788  0.1611  0.1582 -0.4013
 4626W        W47564   1.784   1.704  23.404  0.0257  0.2339  0.0759
 4627W        W47565  33.618   0.905  24.249 -0.4112 -0.0841 -0.0548
 4628W        W47566   3.595   3.533  22.494 -0.1250 -0.3201  0.0429
 4629W        W47567   2.533   0.317  19.776  0.2404  0.0071  0.3678
 4630W        W47568   4.172   1.364  22.616  0.1007 -0.0120  0.1824
 4631W        W47569   3.739   2.458  21.527 -0.0651  0.2665 -0.0621
 4632W        W47570   2.537  34.509  20.219 -0.0225 -0.1453  0.0358
 4633W        W47571  34.063   0.128  22.764 -0.1252  0.1951  0.0687
 4634W        W47572   2.055   0.897  23.990  0.1180 -0.0436  0.2190
 4635W        W47573   1.047   1.612  20.150 -0.1428 -0.0128  0.3839
 4636W        W47574   1.494   2.027  22.963  0.0212  0.1514  0.1453
 4637W        W47575   2.351   4.062  19.961  0.0089 -0.1521  0.1451
 4638W        W47576   2.382   1.698  22.527 -0.0208  0.1428 -0.1796
 4639W        W47577   3.250   0.404  20.357  0.0376 -0.0363 -0.1531
 4640W        W47578   1.116   1.703  22.747  0.0926 -0.0292 -0.1247
 4641W        W47579   0.879   2.746  23.879  0.1582  0.1272 -0.0217
 4642W        W47580   1.644  33.924  20.152  0.0854  0.2050  0.2678
 4643W        W47581   1.567   0.246  21.052 -0.0381 -0.1049 -0.0126
 4644W        W47582   2.675   2.953  22.760 -0.1497  0.1329 -0.2050
 4645W        W47583   4.172   3.003  23.754  0.0860 -0.0724  0.0677
 4646W        W47584   1.796  34.313  20.531  0.1214  0.0156  0.2378
 4647W        W47585   2.837   0.920  22.578 -0.0321 -0.0158  0.0839
 4648W        W47586   0.716   2.109  20.163  0.1865 -0.0570  0.1494
 4649W        W47587   2.409   0.797  22.349  0.2872 -0.3369  0.0798
 4650W        W47588   2.194   2.687  23.957 -0.2419 -0.2069  0.0171
 4651W        W47589   1.337   1.717  21.774  0.1821  0.2058 -0.4434
 4652W        W47590   0.960   4.283  22.288 -0.0505 -0.3219 -0.1645
 4653W        W47591   1.491   0.273  21.668  0.1271  0.1428  0.1955
 4654W        W47592   2.965   1.067  22.055 -0.0505 -0.2141  0.0144
 4655W        W47593   2.175   2.060  21.548  0.2001 -0.0880 -0.2577
 4656W        W47594   4.457   1.603  22.236  0.1728 -0.2419 -0.1567
 4657W        W47595   2.588   2.631  22.287  0.0557  0.2750  0.0014
 4658W        W47596   0.130   1.892  22.390  0.0538 -0.0298  0.0288
 4659W        W47597   2.127   3.495  23.504  0.2006 -0.2556  0.0140
 4660W        W47598   4.187   2.259  19.719 -0.0801  0.2406 -0.0618
 4661W        W47599   0.392   3.004  22.750 -0.1326 -0.3678  0.3460
 4662W        W47600  33.904   2.889  23.741  0.0771 -0.1186 -0.0055
 4663W        W47601   3.096   1.848  24.081 -0.1960 -0.1582  0.1677
 4664W        W47602   2.939   2.025  21.118  0.1121 -0.1459 -0.3915
 4665W        W47603  34.660   0.145  20.608 -0.0035 -0.1495  0.0519
 4666W        W47604   2.370   3.210  19.760 -0.1382  0.0821  0.0778
 4667W        W47605   1.346   5.244  23.755  0.2123  0.1260 -0.0074
 4668W        W47606   0.819   2.583  22.061  0.2119  0.4568  0.1971
 4669W        W47607   0.373   2.266  20.493 -0.1699 -0.1233  0.0883
 4670W        W47608   3.490   0.727  21.334 -0.1826  0.2788 -0.4522
 4671W        W47609   2.111   2.202  20.605 -0.3345  0.1204  0.1556
 4672W        W47610   2.061   3.335  22.896  0.3100  0.0385  0.1266
 4673W        W47611   0.983   1.123  20.318 -0.1494  0.0112 -0.0242
 4674W        W47612   1.378   2.554  22.834 -0.0528  0.1866  0.1558
 4675W        W47613   1.210   2.879  21.074 -0.2197 -0.0703 -0.4380
 4676W        W47614   2.863   1.149  20.202 -0.1302 -0.1619 -0.2329
 4677W        W47615   0.095   2.728  21.754  0.1942  0.2482  0.1727
 4678W        W47616   3.506   3.069  23.340  0.0668  0.0056  0.4249
 4679W        W47617   3.001  34.370  19.996  0.4442  0.3379 -0.0777
 4680W        W47618   4.347   1.393  21.761 -0.0155  0.1669 -0.0967
 4681W        W47619   3.248   1.207  21.020  0.0217 -0.0368  0.2538
 4682W        W47620   2.208   2.535  23.453 -0.6064 -0.3745  0.1454
 4683W        W47621   1.716   1.865  22.163 -0.3411 -0.1533  0.0149
 4684W        W47622   1.990  33.762  20.673  0.0685 -0.2551  0.0943
 4685W        W47623   0.222   2.222  23.093 -0.0331  0.1877 -0.3079
 4686W        W47624   3.286  34.118  23.274 -0.1947 -0.4434 -0.1659
 4687W        W47625   0.390   2.719  23.356 -0.2047 -0.2117 -0.0947
 4688W        W47626   3.166   3.688  20.166 -0.0455 -0.0162  0.0573
 4689W        W47627  34.691   2.035  20.874 -0.1267 -0.1915  0.0679
 4690W        W47628   3.151   1.504  21.864 -0.0278 -0.3912 -0.0232
 4691W        W47629   2.235  33.231  23.230  0.3355 -0.2106  0.2112
 4692W        W47630   1.946   1.196  20.591 -0.0137 -0.1905 -0.2980
 4693W        W47631   1.333  34.578  22.069  0.0626 -0.0614  0.0042
 4694W        W47632   1.119   2.941  20.585 -0.3274 -0.1433  0.4076
 4695W        W47633   1.334   3.276  22.297  0.1092 -0.0462  0.1232
 4696W        W47634  34.331   4.336  24.431 -0.0251  0.3054 -0.1401
 4697W        W47635   0.150   0.616  21.839 -0.3255  0.0923  0.1044
 4698W        W47636   4.686   0.857  20.618 -0.0635  0.3184 -0.3918
 4699W        W47637   0.154   0.243  23.324 -0.1376 -0.3172  0.0939
 4700W        W47638   3.181  34.618  22.475 -0.1437 -0.1936 -0.1519
 4701W        W47639   0.590   0.568  22.142 -0.2338  0.2662 -0.2614
 4702W        W47640   2.896   0.606  20.622  0.1467 -0.4333  0.0625
 4703W        W47641   1.566   2.453  23.279  0.0920 -0.0306  0.0652
 4704W        W47642   0.407   1.268  22.871  0.2453 -0.2679  0.1888
 4705W        W47643   2.364   0.247  20.501 -0.0450 -0.1768  0.1229
 4706W        W47644   4.639   1.236  22.516 -0.2166 -0.0870  0.3852
 4707W        W47645   2.767   1.042  19.495 -0.0873 -0.0956 -0.1521
 4708W        W47646   3.393   3.565  23.238  0.5503  0.0707  0.3386
 4709W        W47647   1.570   0.040  22.872 -0.1305  0.4129  0.1929
 4710W        W47648   2.470   0.775  20.408 -0.0082  0.2234  0.2939
 4711W        W47649   1.054   2.151  23.073 -0.0894  0.1436  0.2192
 4712W        W47650   3.214   1.401  22.501 -0.2004 -0.1877  0.1048
 4713W        W47651   3.450   4.064  24.136  0.1915  0.1876  0.2015
 4714W        W47652   0.532  34.674  21.363 -0.2065 -0.0309  0.1811
 4715W        W47653   3.797   2.605  19.640  0.0475  0.1969  0.5526
 4716W        W47654   3.586   0.243  21.315 -0.2517 -0.1332 -0.1520
 4717W        W47655   2.030   2.797  19.676  0.1957  0.0261  0.0315
 4718W        W47656   2.584   2.109  22.865  0.1505  0.1465  0.2218
 4719W        W47657   2.796   3.296  22.363 -0.3714 -0.1380  0.1021
 4720W        W47658   0.133   1.329  22.451  0.2812 -0.1864  0.1402
 4721W        W47659   2.539   3.575  22.825 -0.0852  0.1407  0.0619
 4722W        W47660   3.004   3.280  20.931 -0.1450  0.2184 -0.0905
 4723W        W47661   2.040   0.650  20.599  0.0174  0.3581 -0.2164
 4724W        W47662   0.643   0.624  21.623 -0.1143 -0.0419 -0.2878
 4725W        W47663  32.517   2.440  21.055 -0.3633 -0.2181  0.6036
 4726W        W47664   3.363   1.030  21.704  0.1638 -0.3247  0.0736
 4727W        W47665   2.989   1.829  22.726  0.1183 -0.0563  0.3056
 4728W        W47666   2.217   1.829  19.653 -0.0477 -0.0750 -0.0056
 4729W        W47667   2.267  33.848  23.351 -0.0948  0.0539  0.1508
 4730W        W47668   1.615   2.693  22.436 -0.1925  0.1984 -0.3172
 4731W        W47669   0.709   4.970  23.260  0.0641  0.2312 -0.0896
 4732W        W47670  34.542   2.280  21.631  0.1289 -0.0493 -0.1786
 4733W        W47671   1.964   1.793  22.821  0.1171 -0.0639  0.1069
 4734W        W47672   2.660   1.586  20.732  0.1555 -0.1292 -0.0678
 4735W        W47673   2.929   2.374  19.512  0.1061  0.5911 -0.2964
 4736W        W47674   1.770   3.439  21.443  0.3237  0.0976  0.2781
 4737W        W47675   1.522   0.507  22.662  0.2112 -0.0478 -0.2846
 4738W        W47676   4.094   1.640  20.751  0.1258  0.0878  0.0660
 4739W        W47677   1.864  33.954  21.320 -0.2831  0.2576 -0.1940
 4740W        W47678   4.122  34.167  20.922  0.0036  0.0560  0.0888
 4741W        W47679   2.334  34.514  21.855  0.1355  0.1851 -0.3095
 4742W        W47680   2.240   3.650  21.333  0.1023 -0.0030 -0.1022
 4743W        W47681  33.413   1.440  19.796 -0.3567 -0.3902 -0.1918
 4744W        W47682  34.393   2.431  21.138 -0.1194  0.2458  0.0666
 4745W        W47683  32.986   2.250  21.367  0.4536 -0.5211 -0.0107
 4746W        W47684   2.024  34.129  23.913  0.2711 -0.2865 -0.0003
 4747W        W47685  34.600   0.260  23.768 -0.0733  0.0190  0.0057
 4748W        W47686   0.505   3.046  22.137 -0.0645  0.0695 -0.1757
 4749W        W47687   0.197  34.440  23.188  0.0684  0.2497 -0.2012
 4750W        W47688   2.546   3.312  20.564 -0.1549 -0.0218  0.1347
 4751W        W47689   1.709   0.105  22.332  0.0071 -0.2089  0.0151
 4752W        W47690   0.298   0.985  22.122 -0.1632 -0.2223 -0.4886
 4753W        W47691   3.113   2.691  20.344  0.1788  0.2802  0.2187
 4754W        W47692   3.958   1.094  21.718 -0.0174  0.2420 -0.0654
 4755W        W47693   2.375  34.560  20.829 -0.0003 -0.1671  0.3807
 4756W        W47694   3.699   1.708  23.499  0.1599  0.2087  0.1605
 4757W        W47695   0.387   3.331  20.740  0.0852 -0.2646  0.3288
 4758W        W47696   1.657   1.064  24.372 -0.2422  0.0216  0.0133
 4759W        W47697  34.318  34.550  24.790  0.1121  0.0423  0.0536
 4760W        W47698  34.347   0.839  20.516  0.1894  0.0887 -0.2077
 4761W        W47699   0.615   0.932  23.157  0.0103  0.2463  0.2674
 4762W        W47700   3.790   2.012  20.726  0.0889 -0.1694 -0.1742
 4763W        W47701   2.346   3.662  18.911 -0.1531 -0.0577  0.0903
 4764W        W47702   1.648   1.449  22.429 -0.0903 -0.0735  0.2805
 4765W        W47703   2.029   4.280  22.578  0.0841 -0.0493 -0.1105
 4766W        W47704   0.284  33.770  22.749 -0.1734  0.0955 -0.1130
 4767W        W47705   1.587   2.808  20.364 -0.1950  0.0167 -0.1253
 4768W        W47706   2.576   2.287  23.304 -0.0914  0.0781  0.1783
 4769W        W47707   4.112   1.726  19.908 -0.2015 -0.1177  0.2199
 4770W        W47708   3.345   0.816  22.272 -0.1053  0.0393  0.2777
 4771W        W47709   1.775   1.611  21.565 -0.0188  0.3018  0.1507
 4772W        W47710   0.613   0.007  23.456  0.1877  0.0843  0.0512
 4773W        W47711   1.460   1.062  23.903 -0.3077  0.1501  0.0343
 4774W        W47712   3.483   1.991  23.136 -0.0266 -0.2185 -0.0872
 4775W        W47713   1.424  33.586  21.379  0.1144 -0.1018  0.0756
 4776W        W47714   2.213  33.440  21.633 -0.1250 -0.0026 -0.0887
 4777W        W47715   2.996   0.793  19.933  0.1158  0.0569 -0.0961
 4778W        W47716   1.457   0.980  22.229 -0.0109 -0.1853  0.2132
 4779W        W47717   2.310   1.271  20.959 -0.2745 -0.2148  0.0816
 4780W        W47718   2.529   1.270  22.259  0.0659 -0.2028 -0.2730
 4781W        W47719   1.482   3.718  22.156 -0.1459 -0.1682 -0.0585
 4782W        W47720   3.352   2.212  23.673  0.1699  0.1089  0.2640
 4783W        W47721   2.451   1.932  21.054  0.2193 -0.0130 -0.1061
 4784W        W47722   4.703   2.216  20.581  0.0325  0.0207 -0.0799
 4785W        W47723   4.107   3.621  22.386 -0.0437 -0.0766 -0.3544
 4786W        W47724   3.211   3.314  23.690  0.0479  0.1870 -0.0433
 4787W        W47725   1.707   2.753  21.558  0.1009 -0.1651  0.3710
 4788W        W47726   2.903   0.705  21.190  0.3700  0.2198  0.1511
 4789W        W47727   0.319  34.558  22.420 -0.1786  0.0967 -0.0152
 4790W        W47728   1.458   2.469  21.190 -0.1261 -0.0826 -0.0027
 4791W        W47729   2.789   3.713  21.998  0.1820  0.1374 -0.0003
 4792W        W47730   3.693   1.707  22.723  0.2738 -0.1537 -0.0588
 4793W        W47731   0.294   0.532  23.940  0.0031  0.0821  0.0740
 4794W        W47732   3.562   0.494  21.786  0.2045  0.2742 -0.0200
 4795W        W47733   1.113   3.472  23.019 -0.1045 -0.2142 -0.2313
 4796W        W47734   2.191   1.332  21.917  0.1481  0.2052  0.1577
 4797W        W47735   0.768   2.530  28.564  0.2644  0.0702  0.0134
 4798W        W47736   1.528   1.633  24.716  0.0776 -0.0920 -0.1472
 4799W        W47737   1.529   0.126  24.457  0.1094  0.0424 -0.0688
 4800W        W47738   3.009   1.547  24.467 -0.0774  0.0349 -0.1140
 4801W        W47739   1.698   1.261  25.579 -0.0652 -0.0684 -0.0989
 4802W        W47740   3.390   3.530  24.121  0.1025 -0.1628 -0.2064
 4803W        W47741  34.093   0.330  27.625  0.2042  0.0946  0.1155
 4804W        W47742   4.691   2.457  25.362  0.1350  0.0377 -0.0477
 4805W        W47743   3.135   2.999  25.878 -0.1831  0.0678 -0.0469
 4806W        W47744   2.721   2.436  24.208 -0.1037  0.2319  0.0982
 4807W        W47745   2.199   1.065  26.691 -0.3620  0.0037  0.2907
 4808W        W47746   2.970   3.384  28.206 -0.1163 -0.1766  0.2416
 4809W        W47747   1.038   0.050  24.180 -0.0055 -0.0101 -0.0915
 4810W        W47748  34.526   1.140  25.246 -0.0350 -0.4581 -0.3475
 4811W        W47749   3.371   0.921  26.087 -0.3517 -0.0379 -0.1038
 4812W        W47750   1.805   1.579  25.223  0.0969  0.0988 -0.3700
 4813W        W47751   0.992  33.902  25.951 -0.1951  0.3179 -0.1468
 4814W        W47752   1.038   0.674  24.238  0.0700  0.1539  0.2338
 4815W        W47753   3.162   3.259  24.478  0.3284  0.3810  0.0833
 4816W        W47754   2.748   0.304  27.464 -0.1343  0.0925  0.0444
 4817W        W47755   3.169  34.259  26.359  0.1781 -0.1599 -0.2674
 4818W        W47756   2.695   2.123  22.322  0.1514  0.0955 -0.1234
 4819W        W47757   0.083   2.394  23.787  0.1915 -0.2115 -0.1562
 4820W        W47758  34.505   1.781  26.023 -0.2938  0.1709  0.0335
 4821W        W47759   2.765   2.005  26.004  0.1012 -0.2577  0.1539
 4822W        W47760   1.106   0.453  25.873 -0.0335  0.1695  0.1764
 4823W        W47761   4.866   1.052  25.785 -0.0227  0.2346 -0.0586
 4824W        W47762   1.684   3.057  26.157  0.1682  0.2719  0.0431
 4825W        W47763   4.704   1.310  24.534  0.1215 -0.0243 -0.1995
 4826W        W47764   3.301  34.525  26.820  0.1125  0.4694 -0.2709
 4827W        W47765   2.246   2.852  25.812  0.3507 -0.3513  0.0835
 4828W        W47766   2.084   3.551  25.445  0.4984  0.0846  0.0522
 4829W        W47767   2.331   3.197  24.072  0.0159  0.2198  0.2753
 4830W        W47768   4.245   2.439  24.543 -0.0892 -0.1398 -0.1288
 4831W        W47769   3.646   2.851  28.116 -0.0358  0.0922 -0.3905
 4832W        W47770   0.772   2.598  27.554 -0.0514 -0.3027  0.1782
 4833W        W47771   1.775   2.164  24.576  0.1157  0.1915 -0.0015
 4834W        W47772   1.479   4.362  26.858  0.1950 -0.0897 -0.0313
 4835W        W47773   0.680   2.015  27.615  0.0393  0.1085  0.1856
 4836W        W47774   2.365   2.373  25.993  0.0505 -0.0571  0.0303
 4837W        W47775   2.386   1.468  25.116 -0.2381  0.2020 -0.0812
 4838W        W47776   2.101   3.423  24.906  0.0882  0.0693  0.1974
 4839W        W47777   3.371   1.424  25.366  0.1538  0.2657 -0.3181
 4840W        W47778   2.146   1.593  27.204 -0.1545 -0.0996  0.0731
 4841W        W47779   2.444   2.696  26.466  0.0398  0.1044 -0.1400
 4842W        W47780   3.367   1.966  26.727  0.0872 -0.0522  0.0661
 4843W        W47781   1.306   3.084  24.115  0.1762  0.0397 -0.2013
 4844W        W47782   4.004   1.219  25.243 -0.0240  0.0279  0.1984
 4845W        W47783   0.576   1.409  24.036  0.1798  0.0759  0.3436
 4846W        W47784   2.359  34.541  24.615  0.0530 -0.0500 -0.1863
 4847W        W47785   1.017   1.466  25.946 -0.0272  0.0350  0.0620
 4848W        W47786   0.433   3.141  24.577  0.2945  0.3237 -0.1594
 4849W        W47787   0.590   1.159  24.985  0.2590 -0.1700  0.3192
 4850W        W47788   3.118   1.489  27.190  0.2056  0.1613 -0.2270
 4851W        W47789   3.237   1.768  24.943  0.6337  0.3054  0.5069
 4852W        W47790   5.422   1.331  27.160  0.1142  0.0827  0.0982
 4853W        W47791   1.292   2.905  27.695  0.0158 -0.3723 -0.0478
 4854W        W47792   1.487   2.017  25.046 -0.1090  0.4006  0.2586
 4855W        W47793   2.898   1.876  23.180 -0.0780  0.1916 -0.0231
 4856W        W47794   3.551   2.959  23.977  0.0310  0.2089  0.2866
 4857W        W47795   3.409   3.840  23.691 -0.1265  0.0754 -0.1033
 4858W        W47796   1.844   2.329  25.064 -0.0800  0.3471  0.1022
 4859W        W47797   0.461   1.741  25.701 -0.3138  0.1183 -0.3580
 4860W        W47798   1.933   0.599  26.955 -0.1303 -0.1516  0.0642
 4861W        W47799   1.857  34.484  24.708 -0.2114 -0.0200 -0.0203
 4862W        W47800   3.562   3.928  26.127  0.0140 -0.0310 -0.2999
 4863W        W47801   1.632   2.938  26.688  0.4742  0.1423 -0.2556
 4864W        W47802   2.861   1.132  24.835  0.2364  0.0597  0.1835
 4865W        W47803   2.236   2.519  25.224  0.0831 -0.0101  0.2718
 4866W        W47804   4.198   1.843  26.229  0.3396 -0.0485 -0.0636
 4867W        W47805   3.380   1.531  23.151 -0.0343  0.1006 -0.0663
 4868W        W47806   2.861   1.084  24.304  0.0066 -0.0763 -0.0286
 4869W        W47807   2.715   0.998  26.689  0.0232 -0.1061 -0.1143
 4870W        W47808   0.981   1.974  24.878  0.4419 -0.0995 -0.1036
 4871W        W47809   1.820   2.174  23.665  0.2709 -0.1317  0.0562
 4872W        W47810   4.572   1.175  26.549  0.0872  0.0766  0.1529
 4873W        W47811   1.992   1.758  23.949 -0.1525  0.2053  0.1409
 4874W        W47812   0.487   3.791  28.420 -0.1180  0.0333  0.1219
 4875W        W47813   1.429   1.198  27.512  0.0101  0.1832  0.1739
 4876W        W47814   1.349   2.287  28.684 -0.3941  0.1463  0.0163
 4877W        W47815   1.591   2.870  24.556  0.0124  0.0359 -0.1545
 4878W        W47816   2.069   2.331  26.649  0.2680 -0.0922 -0.0452
 4879W        W47817   1.563   1.935  24.125 -0.1466 -0.3749  0.3208
 4880W        W47818   1.517   1.841  25.519 -0.1649  0.1776 -0.1779
 4881W        W47819   3.618   2.316  26.327  0.0981  0.3076 -0.0122
 4882W        W47820   1.980   1.299  24.768  0.1001  0.2137 -0.0775
 4883W        W47821   0.266   0.378  26.441  0.1574  0.2247  0.1703
 4884W        W47822   3.358  34.322  24.352 -0.1163 -0.2630  0.2300
 4885W        W47823   1.919   2.783  24.879  0.0866 -0.0425  0.0833
 4886W        W47824   3.930   3.187  24.151 -0.0122 -0.2519  0.2815
 4887W        W47825   3.731   2.646  25.298  0.2571  0.2506  0.0462
 4888W        W47826   2.998   3.131  23.185 -0.1412 -0.3685 -0.0365
 4889W        W47827   0.654   0.687  26.085  0.3040 -0.1285 -0.0606
 4890W        W47828   2.345   0.936  24.927  0.3745 -0.2592  0.2642
 4891W        W47829   1.007   1.662  27.401  0.2194  0.3143 -0.1865
 4892W        W47830   0.142   1.380  25.527 -0.0706 -0.1306  0.1767
 4893W        W47831   4.067   2.073  27.195 -0.2304  0.3827  0.2106
 4894W        W47832  34.404  34.479  25.387  0.1205  0.1500 -0.1141
 4895W        W47833   1.927   0.471  23.754 -0.0079 -0.0267 -0.2789
 4896W        W47834   2.608   2.501  24.829  0.0119  0.2007 -0.1936
 4897W        W47835   0.057   1.872  25.381 -0.0014  0.0423  0.1375
 4898W        W47836   3.410   0.730  27.151 -0.1144  0.0271  0.0378
 4899W        W47837   0.964   4.045  23.630  0.0519  0.0763 -0.0954
 4900W        W47838   2.472   3.259  25.636 -0.0422 -0.0755  0.2120
 4901W        W47839   3.720   3.403  23.710  0.0308 -0.0870  0.6113
 4902W        W47840   1.105   0.510  25.383 -0.2984 -0.2653  0.0662
 4903W        W47841   0.310   2.637  24.541  0.2614  0.0906  0.1924
 4904W        W47842  34.563   3.616  26.484  0.0231 -0.1129 -0.2055
 4905W        W47843   1.212   3.232  26.130 -0.0275 -0.1048  0.0415
 4906W        W47844   0.698   2.344  25.031  0.1854 -0.1895  0.0003
 4907W        W47845   4.103   2.241  25.475  0.1997  0.0722 -0.2844
 4908W        W47846   2.100   2.198  24.176  0.1977 -0.0463  0.1505
 4909W        W47847   2.034   2.758  26.996  0.1418  0.0463 -0.1750
 4910W        W47848   2.012  34.519  26.247 -0.1222  0.2305 -0.1200
 4911W        W47849   3.948   0.788  26.088 -0.0476 -0.0285 -0.1036
 4912W        W47850   3.751   1.648  24.871 -0.0050 -0.1841  0.0917
 4913W        W47851   0.038   0.219  24.886 -0.0143 -0.2025 -0.1753
 4914W        W47852   3.662   3.696  24.995  0.0460 -0.0078 -0.0362
 4915W        W47853   1.055   2.719  25.192 -0.1162  0.0205 -0.1124
 4916W        W47854   1.804   2.693  25.748 -0.0204  0.1883  0.0398
 4917W        W47855   1.221   2.797  25.653  0.1813  0.1431 -0.2085
 4918W        W47856   3.287   0.966  24.543 -0.2875 -0.3229  0.0642
 4919W        W47857   0.107   1.262  26.898 -0.1259 -0.0770  0.2839
 4920W        W47858   3.160   0.558  28.305  0.3870 -0.0672 -0.1067
 4921W        W47859   0.903   1.779  24.291 -0.1492  0.0626  0.0270
 4922W        W47860   2.315   1.849  26.178  0.0361  0.1215  0.1285
 4923W        W47861   3.238   0.440  26.110 -0.0328  0.0434 -0.1894
 4924W        W47862   3.208   0.405  23.273 -0.3404 -0.0477 -0.0792
 4925W        W47863   1.599   2.468  26.864  0.0159 -0.0890 -0.3988
 4926W        W47864   3.828   2.634  24.801 -0.0693  0.3503  0.0973
 4927W        W47865   1.054   1.067  25.139  0.0697 -0.0519 -0.3257
 4928W        W47866   0.887   1.171  24.329 -0.1387 -0.0332 -0.0113
 4929W        W47867   0.519   2.478  28.957 -0.0057 -0.0799  0.0354
 4930W        W47868   2.990   2.332  25.070 -0.0354  0.0219 -0.1601
 4931W        W47869   3.301   2.081  25.970  0.0531  0.0526 -0.0203
 4932W        W47870   2.791   1.460  23.936 -0.0826  0.1616 -0.0524
 4933W        W47871   4.108   3.502  24.685 -0.1437 -0.2714  0.0109
 4934W        W47872   0.227   1.967  26.146  0.0385 -0.0434 -0.3024
 4935W        W47873   2.643   2.840  25.465  0.3043  0.1947  0.2706
 4936W        W47874   4.234   2.645  25.147 -0.0940  0.1603 -0.0018
 4937W        W47875   2.406   1.259  25.638  0.1980  0.4718  0.1730
 4938W        W47876   1.380   1.238  23.343  0.2071 -0.0587 -0.2413
 4939W        W47877   2.013   1.072  25.233  0.2343 -0.0760 -0.3064
 4940W        W47878   0.870   4.602  23.732 -0.0013 -0.3432 -0.1456
 4941W        W47879   4.455   1.305  25.579  0.2413  0.0876  0.3658
 4942W        W47880   1.560   0.012  26.027  0.0744 -0.2543 -0.3111
 4943W        W47881   1.997   0.042  26.696  0.0186  0.0275  0.0938
 4944W        W47882   3.223   1.413  27.746  0.0766 -0.1306 -0.2137
 4945W        W47883   2.631   0.705  24.111 -0.4062  0.0313 -0.0951
 4946W        W47884   4.084   1.368  26.447  0.0443 -0.0516  0.2242
 4947W        W47885   0.493   1.359  24.522  0.1370  0.2140 -0.1805
 4948W        W47886   2.382   1.706  27.717 -0.0975 -0.0510  0.2588
 4949W        W47887   2.241   2.340  27.827  0.2399 -0.0007 -0.2395
 4950W        W47888   0.048   3.236  27.833  0.1419 -0.1618 -0.0979
 4951W        W47889   2.632   3.385  26.552  0.2769 -0.0104  0.2792
 4952W        W47890   4.103   2.927  25.695  0.0073  0.0296  0.2668
 4953W        W47891   2.046  34.079  26.002  0.1074 -0.0569 -0.2042
 4954W        W47892   2.321  34.259  25.442 -0.0878 -0.1542 -0.2360
 4955W        W47893   1.796   2.959  24.113  0.3237 -0.0981  0.1484
 4956W        W47894   2.524   1.915  24.262  0.1410  0.0577 -0.0855
 4957W        W47895  34.034  34.547  26.686 -0.1013  0.3378  0.0114
 4958W        W47896   3.342   2.682  25.032  0.0860 -0.2351  0.0236
 4959W        W47897   2.186   3.008  23.586 -0.1687 -0.1394 -0.2501
 4960W        W47898   2.806   1.752  26.459 -0.1309 -0.2292  0.0068
 4961W        W47899   2.072   3.164  27.414 -0.0213  0.3107  0.0844
 4962W        W47900   2.704   0.497  25.210  0.2520 -0.1807  0.4889
 4963W        W47901   0.860   3.012  27.296  0.0786  0.1368  0.1343
 4964W        W47902   1.223   2.169  24.439 -0.2966 -0.4138 -0.0927
 4965W        W47903   1.911   2.190  25.568 -0.1586 -0.2198 -0.0998
 4966W        W47904   2.887  34.564  24.488  0.0474  0.1162  0.0213
 4967W        W47905   3.366   1.461  24.021 -0.1488 -0.0401  0.0904
 4968W        W47906   0.013   1.536  25.039  0.2415 -0.2626 -0.3149
 4969W        W47907   2.055   1.308  26.054 -0.0469  0.1087 -0.0069
 4970W        W47908  34.046   3.295  27.950 -0.3118  0.2822 -0.0632
 4971W        W47909   3.573   0.620  25.744  0.0430  0.2919  0.0668
 4972W        W47910   2.561   0.275  24.372  0.0757  0.1853  0.1271
 4973W        W47911   3.599   3.441  26.408 -0.0355 -0.1405 -0.1649
 4974W        W47912   0.611   1.406  27.604 -0.1267  0.1504 -0.2629
 4975W        W47913   1.333   2.316  25.504  0.0304 -0.2079 -0.1825
 4976W        W47914   5.422   1.104  26.662  0.0027  0.0679 -0.1745
 4977W        W47915   1.492   0.827  25.430  0.2776  0.0232 -0.1467
 4978W        W47916   0.376   2.237  25.456  0.2973 -0.1535  0.0356
 4979W        W47917   3.240   3.776  27.199 -0.2518  0.0826 -0.1510
 4980W        W47918   0.488   1.926  22.857  0.0004  0.3114 -0.0308
 4981W        W47919   1.449   2.107  26.578  0.0059 -0.1767  0.3362
 4982W        W47920   1.624   1.025  26.759  0.3621  0.0888  0.1324
 4983W        W47921   4.294   2.889  26.174  0.0761  0.1623 -0.2034
 4984W        W47922   2.213   0.066  25.230  0.1451  0.0212 -0.1678
 4985W        W47923   2.056   0.215  25.711 -0.0656  0.0562  0.5099
 4986W        W47924   3.141   2.719  25.451  0.1586  0.2190  0.0458
 4987W        W47925   4.634   1.733  24.764 -0.0880  0.2088 -0.1918
 4988W        W47926   4.049   0.872  25.555 -0.3065  0.0642  0.1549
 4989W        W47927   1.097   2.211  27.863  0.1349  0.0439  0.2321
 4990W        W47928   0.663   0.394  26.776 -0.0331 -0.0608 -0.0063
 4991W        W47929   4.788   3.418  23.881 -0.6117 -0.0612  0.3009
 4992W        W47930   2.064   1.863  28.589  0.3028  0.1647 -0.0139
 4993W        W47931  34.380   1.095  23.690  0.3801 -0.0030  0.1571
 4994W        W47932   1.179   1.802  26.310 -0.1475 -0.0490 -0.0988
 4995W        W47933   2.384   3.004  25.059 -0.0002 -0.0098  0.2566
 4996W        W47934   2.144   0.349  26.209  0.0356 -0.2050 -0.3419
 4997W        W47935   0.812   2.825  26.572 -0.0870 -0.1348 -0.0485
 4998W        W47936   3.164   2.768  24.585 -0.0427  0.0968  0.1837
 4999W        W47937   1.798   3.621  27.881 -0.0041  0.2177  0.1200
 5000W        W47938   2.368  34.521  23.993 -0.0887  0.3477 -0.0463
 5001W        W47939   2.450   3.944  23.592 -0.1653  0.2993 -0.2557
 5002W        W47940   2.817   0.840  26.070  0.1016 -0.2030  0.1840
 5003W        W47941   3.940   0.505  26.880 -0.3243 -0.0306  0.3668
 5004W        W47942   0.825   0.799  24.713 -0.3723  0.1577  0.0113
 5005W        W47943   3.131   0.415  25.584  0.2736 -0.4746 -0.0256
 5006W        W47944   0.681   0.117  26.190 -0.1551  0.0541 -0.2261
 5007W        W47945   4.751   2.418  24.024 -0.2660 -0.1575 -0.0747
 5008W        W47946   2.774   1.534  25.907 -0.0596 -0.1521 -0.1771
 5009W        W47947   1.740   3.782  26.715  0.1439  0.1051  0.1669
 5010W        W47948   1.508   2.084  27.279  0.0490 -0.2684  0.1534
 5011W        W47949   2.085   0.557  25.257 -0.0136 -0.0520  0.0071
 5012W        W47950   0.024   0.534  24.460  0.0726 -0.1784  0.1151
 5013W        W47951   3.253   1.694  26.276 -0.3733  0.2583 -0.1527
 5014W        W47952   4.838   3.353  25.197  0.4311 -0.1241  0.5938
 5015W        W47953   2.143   2.863  22.556  0.0785 -0.2303 -0.2075
 5016W        W47954   4.205   1.749  25.105  0.1056 -0.1575  0.2336
 5017W        W47955   2.723   3.047  26.141 -0.0133  0.2535  0.3261
 5018W        W47956   4.585   1.981  25.381 -0.0626 -0.2582  0.1485
 5019W        W47957   3.010   2.373  23.143  0.0422 -0.0885 -0.0152
 5020W        W47958   2.885   3.046  24.968 -0.0907  0.0756  0.3543
 5021W        W47959   2.042  33.482  25.936  0.4067  0.0247  0.1072
 5022W        W47960   3.689   1.751  26.415  0.1910 -0.2930 -0.1411
 5023W        W47961   1.819   0.745  24.827  0.1349  0.3011  0.0528
 5024W        W47962   3.505   1.614  25.847  0.1797 -0.0686  0.0829
 5025W        W47963   2.534   2.217  27.489 -0.1995 -0.2523 -0.0530
 5026W        W47964   1.118   1.278  26.984 -0.1010  0.0482 -0.2211
 5027W        W47965   0.846   0.569  27.796  0.2561  0.0080 -0.1643
 5028W        W47966   2.915   4.280  25.452  0.0294  0.3361  0.0372
 5029W        W47967   2.793   0.670  23.616 -0.0424  0.2775  0.0136
 5030W        W47968   5.787   0.326  27.649  0.4364 -0.1621  0.0169
 5031W        W47969   3.201   2.347  24.164 -0.0723  0.2730  0.0154
 5032W        W47970   3.083   0.709  25.020  0.1924 -0.0927  0.1835
 5033W        W47971   2.826   1.414  25.416  0.0477  0.2595  0.1075
 5034W        W47972   3.761   3.062  27.665 -0.1919 -0.0274 -0.1069
 5035W        W47973   0.494   1.810  25.083 -0.2236  0.3026  0.1365
 5036W        W47974   2.289   0.590  26.622  0.0189  0.2575  0.0642
 5037W        W47975   2.457   3.168  23.142  0.1992  0.1277  0.4759
 5038W        W47976   4.530   3.772  25.385  0.2250  0.0426 -0.1379
 5039W        W47977   2.700   0.710  24.657  0.2667 -0.2973 -0.1063
 5040W        W47978   1.426   2.408  25.972 -0.2350  0.3729 -0.0460
 5041W        W47979   1.793   2.623  28.096  0.0022 -0.0324 -0.0175
 5042W        W47980  33.666   0.949  22.924  0.0896  0.0072 -0.0459
 5043W        W47981   0.966   2.691  23.314  0.3215  0.3046  0.0876
 5044W        W47982   3.611   1.858  27.304 -0.0081  0.1938 -0.0161
 5045W        W47983   4.247   3.463  27.233 -0.3424 -0.1089  0.0843
 5046W        W47984   1.006   0.304  24.709 -0.0603 -0.2101  0.0585
 5047W        W47985   3.575   1.328  26.240 -0.3560  0.1121 -0.0081
 5048W        W47986  34.146   2.998  24.672  0.2521  0.0014  0.2276
 5049W        W47987   1.598   0.365  25.493 -0.1301  0.0406 -0.3499
 5050W        W47988   0.460   2.399  26.182 -0.2104 -0.1693 -0.0628
 5051W        W47989   0.810   1.936  25.995  0.5778 -0.0272 -0.1347
 5052W        W47990   1.617   2.779  25.252 -0.3767  0.2646 -0.1315
 5053W        W47991   2.557   1.325  27.048 -0.1361 -0.0293 -0.0160
 5054W        W47992   2.673  34.380  25.074 -0.1147 -0.0588  0.1633
 5055W        W47993   2.748   2.360  25.568 -0.0405  0.1307 -0.0592
 5056W        W47994   3.700   0.103  25.074  0.0479  0.0281  0.1738
 5057W        W47995   2.222   2.847  27.857  0.0315 -0.1048  0.4929
 5058W        W47996   0.925   1.970  25.479  0.1890  0.3298 -0.0476
 5059W        W47997   1.599   2.936  27.242 -0.1119 -0.0512  0.0602
 5060W        W47998   4.915   2.122  24.460 -0.1712  0.0702  0.0506
 5061W        W47999   0.874   2.411  25.801  0.1290  0.3056 -0.1399
 5062W        W48000   0.498   1.133  25.804 -0.0186 -0.1072 -0.0719
 5063W        W48001   2.342   0.472  27.694 -0.3882 -0.4655 -0.0507
 5064W        W48002   3.091   1.838  25.464  0.0054 -0.1109 -0.0694
 5065W        W48003   2.231   0.695  24.430 -0.2036  0.2646 -0.0801
 5066W        W48004   2.931   3.783  23.795  0.0313  0.0646 -0.1585
 5067W        W48005   0.907   3.215  28.208 -0.1566 -0.3184  0.0255
 5068W        W48006   1.245   1.341  25.507 -0.0039 -0.1846  0.0465
 5069W        W48007   1.236   2.722  26.309  0.0207 -0.1605  0.0692
 5070W        W48008   2.560   1.628  24.668 -0.1385  0.1090  0.0275
 5071W        W48009   3.564   2.476  23.290  0.1803 -0.4187  0.1297
 5072W        W48010   3.445   3.736  24.589 -0.1824  0.3884  0.4043
 5073W        W48011   1.034   0.887  23.434 -0.3807  0.1436 -0.1435
 5074W        W48012   0.839   3.244  25.749  0.2035  0.0472  0.0796
 5075W        W48013   1.234   3.145  24.837  0.1858 -0.1076  0.2266
 5076W        W48014   3.571   2.616  24.312  0.0112 -0.0316 -0.0428
 5077W        W48015   1.042   2.262  26.285  0.0712 -0.4515 -0.0077
 5078W        W48016   2.858   2.571  26.049 -0.2201 -0.3784  0.1258
 5079W        W48017   3.736   0.715  22.698  0.1228 -0.0113 -0.3127
 5080W        W48018   5.615   1.840  25.737 -0.3188 -0.1870 -0.0882
 5081W        W48019   2.407   0.267  23.785  0.1719  0.2584  0.1180
 5082W        W48020   2.248   3.934  26.016 -0.0952 -0.1096 -0.2270
 5083W        W48021   3.670   1.130  25.761  0.0499 -0.0905 -0.0049
 5084W        W48022   0.644   0.472  24.333  0.1618  0.1530 -0.0572
 5085W        W48023   0.531   1.471  26.164 -0.2423 -0.2115  0.0941
 5086W        W48024   4.442   0.830  26.973  0.0532  0.0213  0.0013
 5087W        W48025   1.986   3.298  26.792 -0.0625  0.0755 -0.2889
 5088W        W48026   3.911   4.236  24.143 -0.0559  0.0960  0.3341
 5089W        W48027   1.210   1.639  25.131 -0.0376 -0.0064  0.1017
 5090W        W48028   2.668   1.810  27.197 -0.1479 -0.0037 -0.4304
 5091W        W48029   3.622  34.523  26.413 -0.0805  0.0712  0.1453
 5092W        W48030   2.092   2.096  23.214 -0.0985  0.0667 -0.0204
 5093W        W48031   3.162   1.208  25.787  0.1510 -0.2356 -0.0367
 5094W        W48032   1.639   3.163  25.674  0.2225 -0.0698  0.0379
 5095W        W48033   2.671   2.613  27.855 -0.1177  0.0008 -0.2607
 5096W        W48034   2.023   3.132  28.226  0.0313  0.4343  0.5287
 5097W        W48035   0.166   1.065  23.868  0.0375 -0.2020  0.0789
 5098W        W48036   3.080   1.064  23.818 -0.0154  0.6367  0.0944
 5099W        W48037   2.192   1.981  25.122 -0.0202 -0.1458 -0.2092
 5100W        W48038   1.875   0.835  26.344 -0.1681  0.0097 -0.1534
 5101W        W48039   1.553   1.148  25.040  0.0008 -0.1456 -0.1140
 5102W        W48040   2.275   2.149  24.669 -0.2657  0.2659 -0.0831
 5103W        W48041   1.905   2.190  26.065  0.2812  0.0571  0.3354
 5104W        W48042   1.303   0.615  24.960  0.3103  0.0261  0.1245
 5105W        W48043   3.092   2.898  24.067 -0.1622  0.0289 -0.0554
 5106W        W48044   2.933   2.565  27.073 -0.1804 -0.0017  0.2417
 5107W        W48045   1.956   1.238  23.084  0.0789  0.1532 -0.0620
 5108W        W48046   2.248   3.689  26.899  0.3985  0.2783  0.2378
 5109W        W48047   1.335   1.009  25.885  0.3520 -0.0879 -0.0781
 5110W        W48048   2.416  34.127  24.288  0.3231 -0.2145 -0.0148
 5111W        W48049  34.453   2.573  24.831  0.0734 -0.1344  0.2251
 5112W        W48050   1.953   2.656  26.236 -0.1170 -0.0484 -0.0607
 5113W        W48051   3.364   2.532  26.704  0.0731  0.2117 -0.2718
 5114W        W48052   0.732  34.284  25.474  0.0025 -0.1511  0.3030
 5115W        W48053   4.309   3.922  23.365 -0.0219  0.2480 -0.2430
 5116W        W48054   4.157   0.394  25.815  0.0733  0.2443  0.3262
 5117W        W48055   1.699   3.261  25.144  0.0093 -0.1829  0.1420
 5118W        W48056   3.519   2.155  25.158  0.0196  0.0038 -0.0240
 5119W        W48057   3.449   2.569  25.840 -0.1677 -0.2724 -0.1930
 5120W        W48058   1.833   1.743  26.312 -0.3210  0.0112  0.0149
 5121W        W48059   3.031   3.764  26.735  0.1077  0.0944 -0.0496
 5122W        W48060   4.861   3.061  26.004  0.3426  0.1481 -0.0541
 5123W        W48061  34.639   0.941  25.681  0.1280 -0.0558 -0.0870
 5124W        W48062   0.781   1.464  25.416 -0.2053  0.1396  0.0223
 5125W        W48063   0.227   3.341  23.907  0.0660  0.0052  0.1896
 5126W        W48064   5.930   1.459  26.013 -0.0500 -0.2250  0.2088
 5127W        W48065   3.588  34.272  27.218 -0.0554  0.0850 -0.5041
 5128W        W48066   1.742   4.128  22.973  0.2276  0.0151 -0.0253
 5129W        W48067   3.107  34.557  25.455 -0.5274 -0.0048  0.1959
 5130W        W48068   2.862   3.555  25.703 -0.3517  0.1198 -0.2703
 5131W        W48069   3.369   3.636  28.755  0.2936 -0.0278 -0.0997
 5132W        W48070   0.893   2.220  23.974 -0.1619 -0.0768  0.1675
 5133W        W48071   3.159   0.992  27.556  0.3921  0.1454 -0.0444
 5134W        W48072   3.455   2.328  24.710  0.0422  0.0308  0.0553
 5135W        W48073   2.213   3.129  26.242  0.1082  0.1330 -0.2484
 5136W        W48074   3.796   2.037  25.977  0.1659  0.2104 -0.0103
 5137W        W48075   3.988   1.501  25.930  0.2502 -0.3134 -0.0299
 5138W        W48076   3.791   2.822  26.151  0.1228  0.3576  0.0262
 5139W        W48077   1.606   0.221  24.942  0.0451 -0.0144 -0.2418
 5140W        W48078   3.164   0.228  25.084 -0.0757 -0.1761 -0.0736
 5141W        W48079   2.580  33.667  24.164 -0.3060  0.2069  0.1476
 5142W        W48080   2.167   2.294  27.139 -0.0807  0.0675 -0.0181
 5143W        W48081   0.063   2.804  25.317  0.2036 -0.0122 -0.0581
 5144W        W48082   2.677   2.892  24.281  0.0789  0.3010 -0.2498
 5145W        W48083   1.511   3.438  27.449 -0.0409  0.0206  0.0078
 5146W        W48084   2.990   0.088  27.073  0.1500  0.0268 -0.1191
 5147W        W48085   1.962   1.480  26.717 -0.0627  0.1817  0.1075
 5148W        W48086   2.677   1.906  25.065 -0.0582  0.1088 -0.3359
 5149W        W48087   1.221   1.069  24.662 -0.0285 -0.2608 -0.3266
 5150W        W48088   2.569   3.478  24.558  0.1500  0.0470  0.0310
 5151W        W48089  33.801   0.074  26.307 -0.2404 -0.1189  0.0491
 5152W        W48090   1.508   0.179  23.877  0.1838 -0.0082 -0.2545
 5153W        W48091   3.977   2.145  24.939  0.1245  0.0039  0.0935
 5154W        W48092   5.281   2.593  24.462  0.1528  0.1090  0.0945
 5155W        W48093   1.019  34.439  24.621 -0.1142 -0.3159  0.2204
 5156W        W48094   3.746   3.377  28.051 -0.1644  0.2277  0.1848
 5157W        W48095   1.245   2.135  23.563 -0.1168 -0.0505  0.1722
 5158W        W48096   2.601   2.250  26.971  0.2404  0.1824  0.0768
 5159W        W48097   2.656   0.613  28.194  0.1101  0.3464  0.0112
 5160W        W48098  33.618   1.884  26.544 -0.2088  0.2145  0.2383
 5161W        W48099   2.362   0.890  26.235 -0.0751 -0.0588  0.2715
 5162W        W48100   3.183   1.693  23.598  0.3799  0.1029  0.4780
 5163W        W48101   3.605   4.468  24.437 -0.0990  0.2949  0.0780
 5164W        W48102   3.363   3.451  25.963  0.3581  0.0381 -0.2957
 5165W        W48103   2.526   2.180  26.490 -0.1475 -0.0533 -0.0723
 5166W        W48104  34.614  34.618  26.809  0.0931 -0.1552 -0.2664
 5167W        W48105   5.055   2.103  25.575  0.0487 -0.0825  0.1946
 5168W        W48106   3.028   2.184  26.424  0.2234  0.0366  0.1248
 5169W        W48107   3.856   3.118  25.165  0.2970 -0.4265 -0.2852
 5170W        W48108   3.533   0.507  25.258 -0.1539  0.1249 -0.0424
 5171W        W48109   3.495   1.805  24.426  0.0282 -0.2378 -0.0095
 5172W        W48110   0.933  34.525  26.526 -0.0790  0.0022 -0.5153
 5173W        W48111   1.952   1.678  25.747  0.1042 -0.3368 -0.0096
 5174W        W48112   4.463   1.393  26.105  0.1557 -0.2402 -0.0702
 5175W        W48113   0.909   0.880  25.658 -0.1151  0.2100  0.3866
 5176W        W48114   2.848   0.860  25.540 -0.2597  0.1322 -0.0567
 5177W        W48115   2.998   3.867  24.325 -0.0601  0.1358  0.0083
 5178W        W48116   2.011   0.819  25.836 -0.0614  0.3928  0.1110
 5179W        W48117   2.076   0.310  24.678  0.2187 -0.4524 -0.1879
 5180W        W48118   1.889   1.186  27.180 -0.0234 -0.3451  0.0762
 5181W        W48119   4.309   1.780  25.711  0.1425 -0.2813  0.0422
 5182W        W48120   2.737   1.334  27.514 -0.0782 -0.3274  0.0116
 5183W        W48121   1.665   0.525  24.173  0.0392 -0.0202 -0.2656
 5184W        W48122   2.828   2.419  23.710 -0.0609 -0.1255 -0.2016
 5185W        W48123   2.677   3.473  25.175  0.0582 -0.0000 -0.0792
 5186W        W48124   3.684   4.870  27.471  0.0743 -0.1421  0.0316
 5187W        W48125   1.897   3.723  27.278  0.0129  0.1892 -0.0269
 5188W        W48126   4.974   1.192  26.288  0.0058  0.1008 -0.2456
 5189W        W48127  34.259   0.070  27.166 -0.0687  0.1397 -0.0419
 5190W        W48128   1.366   1.456  24.275 -0.0055  0.0146  0.0969
 5191W        W48129   2.368   2.013  25.639  0.1858 -0.0200  0.1413
 5192W        W48130   2.394   0.565  25.670 -0.0557 -0.3142  0.1476
 5193W        W48131   2.440   1.380  26.324  0.1480 -0.0243  0.0727
 5194W        W48132   2.984  33.180  24.212  0.0120  0.2822  0.3607
 5195W        W48133   1.762   3.026  27.791 -0.0866 -0.0031 -0.1764
 5196W        W48134   4.973   1.489  26.808  0.1007  0.0561 -0.1205
 5197W        W48135   1.652   2.438  29.750 -0.0075 -0.2236 -0.2402
 5198W        W48136   0.964   0.875  29.331  0.1100 -0.0578  0.0026
 5199W        W48137   2.662   0.790  27.452  0.0403 -0.0894 -0.0373
 5200W        W48138   2.995   1.091  28.003 -0.0468 -0.1443 -0.0279
 5201W        W48139   0.144  34.191  28.498 -0.2676  0.0253 -0.0158
 5202W        W48140   1.170   4.288  26.165 -0.0485  0.4333 -0.0264
 5203W        W48141  34.439  34.031  30.432 -0.0094  0.2016  0.1005
 5204W        W48142   3.121   2.710  30.124  0.3702  0.6000  0.0313
 5205W        W48143   4.464   3.645  31.448  0.6052 -0.3644 -0.2425
 5206W        W48144   3.020   2.412  27.557 -0.0244  0.0180 -0.0418
 5207W        W48145   2.674   1.349  28.420  0.1686 -0.2667  0.0388
 5208W        W48146   1.521   5.024  29.142 -0.1564  0.0850 -0.1106
 5209W        W48147   2.424  34.650  27.586 -0.1836 -0.0368 -0.0783
 5210W        W48148  34.080   0.263  28.411 -0.3301 -0.2897  0.0523
 5211W        W48149   4.082   1.414  28.853  0.1170  0.0682 -0.3966
 5212W        W48150   0.663   1.821  29.079  0.1543  0.0759 -0.0784
 5213W        W48151   2.495   1.890  29.677  0.0480  0.1014  0.1885
 5214W        W48152   1.711   0.377  29.053 -0.2448  0.1187 -0.1087
 5215W        W48153   2.380   4.132  29.140 -0.2395  0.0185  0.1376
 5216W        W48154   2.381   0.638  30.634  0.0362  0.2026 -0.0522
 5217W        W48155   2.866   0.360  30.557 -0.0557  0.0418 -0.0296
 5218W        W48156   2.960   3.352  28.725  0.0226 -0.0394  0.0087
 5219W        W48157   1.954  33.966  28.033 -0.2051  0.2890 -0.0603
 5220W        W48158  33.954  34.067  28.183  0.0312 -0.2017  0.0388
 5221W        W48159   1.296   1.207  30.608  0.1306  0.0355 -0.1271
 5222W        W48160   3.775   0.897  29.695  0.1440 -0.0547 -0.0385
 5223W        W48161   3.175   2.623  29.136  0.3089  0.0135 -0.1011
 5224W        W48162   1.061   3.135  29.031 -0.1373 -0.2810  0.1288
 5225W        W48163   1.295   2.829  29.332 -0.4478 -0.0216 -0.0113
 5226W        W48164   3.790   0.622  30.207 -0.2023 -0.1857 -0.0251
 5227W        W48165   0.653   1.825  29.678  0.0432 -0.1361  0.1649
 5228W        W48166  33.399   2.870  29.381  0.0135  0.0086  0.1368
 5229W        W48167   2.196   2.813  28.645  0.0870 -0.4391 -0.2202
 5230W        W48168   3.387   3.125  29.089  0.1905  0.4457 -0.1336
 5231W        W48169   3.776   3.649  30.952 -0.1258  0.0536  0.0200
 5232W        W48170   2.766   3.129  30.639  0.0098  0.0480 -0.3234
 5233W        W48171   0.669   3.004  28.598  0.3263 -0.1292 -0.3494
 5234W        W48172   3.874   1.862  30.400 -0.2220  0.3161  0.2567
 5235W        W48173   0.481   3.887  31.018  0.0782 -0.0591  0.0644
 5236W        W48174   3.393   1.067  28.940 -0.2844 -0.4315  0.0970
 5237W        W48175   4.478   3.043  28.215  0.1949  0.0797  0.2149
 5238W        W48176   1.970   1.992  27.568 -0.0302  0.3810  0.2058
 5239W        W48177   2.275   2.071  29.292  0.0678 -0.1151 -0.1704
 5240W        W48178   1.749   2.169  30.689 -0.1776  0.1239  0.0683
 5241W        W48179   0.254   2.548  29.398  0.1261  0.3673  0.0582
 5242W        W48180   4.017   0.990  31.914  0.0891  0.2121  0.1678
 5243W        W48181   1.179   1.670  28.729 -0.0361 -0.1711 -0.2122
 5244W        W48182   3.738   1.629  27.824 -0.0856  0.0769 -0.2140
 5245W        W48183   1.889   2.503  27.528 -0.1132  0.0925  0.3396
 5246W        W48184   3.847   1.443  28.297 -0.0359 -0.4671 -0.1544
 5247W        W48185   3.070   0.288  28.879 -0.2085  0.0534 -0.1962
 5248W        W48186   2.345   3.244  29.462  0.3659  0.1076 -0.1977
 5249W        W48187   2.508   0.669  29.272 -0.1367 -0.3579 -0.3724
 5250W        W48188   3.949   3.008  30.824 -0.2115 -0.0292 -0.0137
 5251W        W48189   1.418   0.698  28.616 -0.1168 -0.0967  0.0963
 5252W        W48190   4.448   1.032  30.395 -0.2834 -0.1275  0.1712
 5253W        W48191   0.400   1.410  29.357 -0.0460  0.2998  0.2133
 5254W        W48192   0.006   0.993  30.048  0.0214 -0.0478  0.2307
 5255W        W48193   4.023   3.775  26.862  0.2060  0.1305  0.0287
 5256W        W48194   3.808   3.870  28.895  0.1603  0.2047  0.0932
 5257W        W48195   2.182   2.381  28.421 -0.0729  0.2049 -0.0096
 5258W        W48196   0.080   0.873  28.668 -0.0631 -0.0892  0.0347
 5259W        W48197  34.522   0.982  30.508  0.1876 -0.3185  0.2202
 5260W        W48198  34.475   0.737  29.095 -0.1328 -0.4281  0.1171
 5261W        W48199   2.246   1.101  27.482  0.3985  0.1916  0.1722
 5262W        W48200   3.840   3.516  31.487 -0.3247  0.0678  0.4552
 5263W        W48201   0.488   2.085  31.364 -0.1512 -0.0223 -0.0493
 5264W        W48202   2.934   0.152  28.400  0.0434 -0.0549  0.0569
 5265W        W48203   1.900   2.268  28.954  0.0444 -0.1909  0.1473
 5266W        W48204   4.364   1.881  29.044  0.3566 -0.1058 -0.0807
 5267W        W48205   3.756   1.610  26.908 -0.0651 -0.0909 -0.1053
 5268W        W48206   3.654  34.622  29.371 -0.2419  0.1914  0.0353
 5269W        W48207   3.149   0.075  30.217 -0.0771  0.0420 -0.0299
 5270W        W48208   2.660   2.043  28.022 -0.0043  0.2582  0.2199
 5271W        W48209   1.561   2.255  27.853 -0.2986  0.1848  0.3068
 5272W        W48210   4.145   2.836  30.384  0.1029 -0.2031 -0.0646
 5273W        W48211   3.145   2.001  27.190  0.0446 -0.4780  0.1043
 5274W        W48212   0.218   3.225  30.463 -0.2620 -0.1175  0.1176
 5275W        W48213   2.440   0.223  29.678 -0.0687  0.3834 -0.1878
 5276W        W48214   3.255   0.560  30.865  0.0350  0.1816 -0.0103
 5277W        W48215   1.025   2.556  29.021 -0.1622  0.2554 -0.2817
 5278W        W48216  33.280   2.140  29.685  0.1949 -0.1315  0.0211
 5279W        W48217   0.852   2.082  28.721 -0.0751 -0.0352 -0.1897
 5280W        W48218  33.935   1.488  29.624  0.1951 -0.3217 -0.1236
 5281W        W48219   2.582   2.719  30.205  0.0305  0.2491 -0.1569
 5282W        W48220   2.947   0.602  27.834  0.2406 -0.0816  0.3298
 5283W        W48221   0.424  34.478  29.075 -0.1031  0.1504  0.0695
 5284W        W48222   4.478   0.934  28.704  0.0951  0.0086  0.0707
 5285W        W48223   1.223   1.894  28.303 -0.0839 -0.2018 -0.1297
 5286W        W48224   3.584   3.607  29.309 -0.0834 -0.1612  0.0009
 5287W        W48225   2.593   1.858  28.579  0.2622  0.1273  0.2416
 5288W        W48226   3.302   2.382  28.099 -0.1733  0.3174 -0.0280
 5289W        W48227   1.158   0.486  29.022  0.5288  0.0420 -0.2516
 5290W        W48228   1.538   1.117  28.382  0.3201  0.3836  0.0182
 5291W        W48229   1.107  34.660  31.285 -0.0321 -0.2205 -0.2326
 5292W        W48230  34.543   1.733  29.308 -0.1494  0.0033  0.1400
 5293W        W48231   3.174   1.339  29.797 -0.0317 -0.0214 -0.3830
 5294W        W48232   0.982  34.133  28.012  0.0717 -0.1032 -0.0691
 5295W        W48233   2.960   0.947  28.581  0.1072  0.4791 -0.1513
 5296W        W48234   1.907   1.082  28.065  0.1982 -0.4695  0.1626
 5297W        W48235   0.457   0.954  29.120  0.1389  0.0472  0.1162
 5298W        W48236   4.733   0.921  29.973 -0.0249 -0.0988  0.1459
 5299W        W48237   1.591   5.017  28.663  0.7310 -0.1915 -0.0241
 5300W        W48238   4.707   3.788  30.944 -0.0728 -0.1331  0.0017
 5301W        W48239   3.800   4.181  29.481  0.2703 -0.2776 -0.0857
 5302W        W48240   1.758   1.263  28.899 -0.2680  0.0182 -0.0755
 5303W        W48241   0.971   0.977  27.521 -0.0736 -0.1107 -0.2247
 5304W        W48242   0.120   3.906  29.914 -0.1543  0.0466 -0.1999
 5305W        W48243   0.796   3.528  28.712 -0.2770 -0.0953 -0.0763
 5306W        W48244   1.335  34.153  30.084 -0.0149  0.0667 -0.1992
 5307W        W48245   4.123   3.966  30.641 -0.0368 -0.2348 -0.0739
 5308W        W48246   0.196   1.605  28.935 -0.1684  0.2255  0.0943
 5309W        W48247   2.389   2.808  29.172  0.2065 -0.2866 -0.3386
 5310W        W48248   4.105   0.168  30.265  0.0055  0.3373 -0.0876
 5311W        W48249   4.680   2.970  29.355  0.1658  0.1633 -0.1401
 5312W        W48250   3.024   1.510  28.775 -0.0810  0.1621 -0.2037
 5313W        W48251   1.572  34.300  28.418  0.1880  0.2047  0.0927
 5314W        W48252   3.758   3.526  27.471  0.1354 -0.0260  0.0992
 5315W        W48253   1.427   3.043  28.218 -0.0886  0.0431 -0.3395
 5316W        W48254   1.825   1.981  26.933 -0.1179  0.2301 -0.0433
 5317W        W48255   2.118   3.756  28.687 -0.0938 -0.0456 -0.0248
 5318W        W48256   2.623  34.462  28.297 -0.1942  0.7278  0.0431
 5319W        W48257   1.332   0.765  30.877  0.0947  0.1027  0.1008
 5320W        W48258   2.927   0.398  29.517  0.0189 -0.2653  0.1918
 5321W        W48259   1.878   0.804  28.567  0.3554  0.0906  0.4200
 5322W        W48260   0.622   2.535  30.283 -0.0596  0.1119  0.0065
 5323W        W48261   3.418   0.638  27.810  0.3736  0.0083  0.3409
 5324W        W48262   4.052   1.279  27.845  0.1017 -0.1228 -0.1513
 5325W        W48263   3.143   2.516  30.699 -0.0858 -0.3804 -0.1725
 5326W        W48264   1.710   2.160  28.375  0.0237  0.1425  0.0220
 5327W        W48265   3.746   0.177  28.881  0.0377  0.2396  0.0826
 5328W        W48266   3.252   0.944  26.599  0.1843  0.2109  0.0020
 5329W        W48267  34.091   3.439  31.710  0.1309  0.1404  0.4220
 5330W        W48268   2.796   3.534  29.564  0.0522 -0.1132 -0.0223
 5331W        W48269   1.356   2.033  30.201  0.0929 -0.0898 -0.3425
 5332W        W48270   3.575   0.998  28.477 -0.2505  0.0148  0.2022
 5333W        W48271   4.293   3.188  29.653  0.0021 -0.0696 -0.1640
 5334W        W48272   1.291   1.968  30.698  0.1531 -0.0688  0.2614
 5335W        W48273   1.671   1.697  30.786 -0.0395  0.1489 -0.4433
 5336W        W48274   2.855   4.584  29.414 -0.0668 -0.1954  0.2579
 5337W        W48275   3.690   1.342  29.264 -0.2325  0.0228  0.0453
 5338W        W48276   0.960   1.217  26.389  0.1123 -0.0994  0.0662
 5339W        W48277   2.627   0.189  29.140  0.1510 -0.0596 -0.1055
 5340W        W48278   0.230   2.906  29.014 -0.0541  0.0495  0.0935
 5341W        W48279   4.744   0.256  30.034  0.3478 -0.0339  0.1774
 5342W        W48280   3.545  32.711  30.841 -0.0681  0.0905  0.2018
 5343W        W48281   2.018   1.252  31.306 -0.1568  0.0593 -0.2137
 5344W        W48282   5.270   1.216  30.516 -0.1272 -0.0400  0.2750
 5345W        W48283   3.315   2.695  28.661  0.2884 -0.1205  0.3114
 5346W        W48284   3.408   0.399  29.262 -0.2575  0.2725  0.1689
 5347W        W48285   1.432   1.699  27.747  0.0909  0.0803 -0.0902
 5348W        W48286   4.270   0.702  29.526 -0.0058 -0.1850 -0.1241
 5349W        W48287   1.373   1.578  30.300  0.3380  0.0401  0.0476
 5350W        W48288   2.121   3.174  29.864 -0.2499 -0.0947 -0.1470
 5351W        W48289   3.832   2.610  31.075 -0.0881 -0.4143  0.0544
 5352W        W48290   3.532   1.766  29.559 -0.2379 -0.3059 -0.2945
 5353W        W48291   3.298   1.062  30.670 -0.1727 -0.0425 -0.1490
 5354W        W48292   1.745   0.399  27.368 -0.0791  0.0910  0.2313
 5355W        W48293   1.137   4.651  29.047  0.3516 -0.0321  0.0907
 5356W        W48294   1.233   2.481  27.444  0.0952  0.2604  0.0527
 5357W        W48295   3.488   0.577  28.760 -0.1549 -0.1398 -0.1375
 5358W        W48296   2.343   2.679  29.800 -0.2490 -0.3100 -0.0255
 5359W        W48297   0.947   2.202  26.798  0.0956  0.0985  0.0040
 5360W        W48298   4.452   1.978  30.133 -0.2626  0.2163 -0.4648
 5361W        W48299   0.161   3.009  29.620 -0.0481 -0.2476  0.1574
 5362W        W48300   3.476  34.360  29.725 -0.0293 -0.2161  0.0986
 5363W        W48301   1.056   3.952  29.795 -0.0250  0.3081  0.2578
 5364W        W48302   0.570   0.674  28.604  0.0437 -0.1648  0.0736
 5365W        W48303   0.802   1.318  29.660 -0.2499  0.1763 -0.1118
 5366W        W48304   3.123  33.709  28.567 -0.0226 -0.0572  0.2012
 5367W        W48305   3.298   3.297  27.890 -0.2860 -0.0505 -0.0685
 5368W        W48306   2.124   1.128  29.883  0.0341  0.1206 -0.0352
 5369W        W48307   3.436   0.637  29.876  0.0109 -0.2217  0.1055
 5370W        W48308  34.028   4.955  31.749 -0.1823 -0.0869 -0.2242
 5371W        W48309   4.376   2.007  29.615  0.0410 -0.0116 -0.2015
 5372W        W48310   3.862   0.843  27.275  0.1575 -0.0923  0.2336
 5373W        W48311   4.217   2.891  31.205  0.1355 -0.0870 -0.0217
 5374W        W48312   1.887   0.315  30.394  0.3965 -0.1112 -0.1512
 5375W        W48313   1.727  34.358  27.008 -0.0351 -0.2517 -0.1192
 5376W        W48314   4.355   0.162  30.736 -0.1945  0.0602  0.5820
 5377W        W48315   1.841   1.921  30.176 -0.2721 -0.2205 -0.1430
 5378W        W48316   1.165   2.076  29.079  0.1404  0.2898 -0.0370
 5379W        W48317   3.161   4.796  29.871  0.0983  0.0230 -0.2313
 5380W        W48318   2.011   1.707  29.072 -0.1198  0.1139 -0.1046
 5381W        W48319   0.387   1.303  30.037 -0.0317 -0.1455 -0.1806
 5382W        W48320   1.145   0.835  30.385 -0.0782 -0.2031  0.1199
 5383W        W48321   4.279   1.506  30.292  0.2789 -0.0907  0.1312
 5384W        W48322   2.388   1.114  29.419  0.0873 -0.1884  0.0151
 5385W        W48323   1.129   1.723  29.843  0.2711 -0.1165  0.0534
 5386W        W48324   0.999   1.273  28.494  0.0327  0.0949 -0.0313
 5387W        W48325   2.566   1.362  29.811 -0.2733  0.4129  0.3361
 5388W        W48326   2.343   1.358  30.601 -0.0565 -0.1761  0.0743
 5389W        W48327   1.846   1.450  30.380  0.0845  0.0985  0.2553
 5390W        W48328   3.310  33.245  30.724  0.0880 -0.0329 -0.0153
 5391W        W48329   3.366   3.258  27.406 -0.1758  0.0519  0.0483
 5392W        W48330   3.049   1.846  31.305 -0.0822 -0.0051 -0.2617
 5393W        W48331   0.658   1.141  27.165  0.1495 -0.3087  0.1139
 5394W        W48332   1.405   2.552  30.641 -0.0358  0.1646  0.0392
 5395W        W48333   2.520   1.034  27.933  0.0221 -0.1564 -0.1823
 5396W        W48334   1.411   0.394  30.527 -0.1107 -0.2912  0.1682
 5397W        W48335  34.371   3.207  31.312  0.1900  0.0853  0.0368
 5398W        W48336   2.270   1.409  28.129 -0.0087  0.1391  0.2333
 5399W        W48337   1.921   2.757  30.657 -0.0082  0.1370 -0.0384
 5400W        W48338   4.600   0.090  27.575 -0.2918 -0.1558 -0.1174
 5401W        W48339   4.067   3.591  29.530 -0.0500  0.0095 -0.1199
 5402W        W48340   1.698   1.686  28.193 -0.1185  0.0431 -0.1335
 5403W        W48341   4.874   0.915  31.174 -0.2468  0.0043 -0.1449
 5404W        W48342   2.403   0.097  28.665 -0.3570  0.2550 -0.1553
 5405W        W48343   4.499   0.654  30.873 -0.0699  0.0545  0.0409
 5406W        W48344   1.536   1.133  30.064  0.4088 -0.0895  0.1527
 5407W        W48345   3.555   2.445  30.180  0.0577  0.1139  0.2423
 5408W        W48346   0.881   0.343  29.958  0.2356  0.4161  0.1015
 5409W        W48347   3.177   4.189   0.981  0.2689  0.1920 -0.2367
 5410W        W48348   1.242   1.713  31.104 -0.0572 -0.2106 -0.1674
 5411W        W48349   2.162   0.636  28.180  0.1579  0.0216 -0.1083
 5412W        W48350   1.396   0.576  27.651  0.3505  0.4481 -0.0847
 5413W        W48351   2.854   0.830  30.557 -0.3633 -0.1295 -0.0431
 5414W        W48352   3.258   3.245  29.563  0.3300 -0.1074  0.2913
 5415W        W48353   2.927   1.887  27.630  0.0456  0.0345 -0.1883
 5416W        W48354   4.538   0.445  28.977  0.5226  0.1193 -0.0534
 5417W        W48355   2.203   1.945  30.594 -0.2386  0.1303 -0.0129
 5418W        W48356   3.385   2.012  28.567 -0.0258  0.0089  0.2223
 5419W        W48357   3.098   1.820  28.191  0.3680 -0.1479  0.4382
 5420W        W48358   0.763   1.715  28.411 -0.1137 -0.0854  0.1519
 5421W        W48359   2.396   0.161  30.726 -0.1440  0.0192  0.3638
 5422W        W48360   1.941   2.774  30.088  0.0829 -0.0284  0.0837
 5423W        W48361   1.534   0.816  29.116  0.3131 -0.2024 -0.0354
 5424W        W48362   3.578  34.030  30.682 -0.0221  0.1638  0.0733
 5425W        W48363   3.049   0.909  30.001 -0.0920  0.0259 -0.0086
 5426W        W48364   3.000   1.896  29.465  0.1850  0.0911 -0.0528
 5427W        W48365   0.197   0.144  30.769 -0.0932  0.2665 -0.2933
 5428W        W48366   3.298   3.984  30.147  0.0919  0.1365 -0.3557
 5429W        W48367   3.261   1.477  26.694 -0.2944 -0.0247 -0.4707
 5430W        W48368   4.239   0.681  30.014 -0.4499  0.4372 -0.0538
 5431W        W48369   5.210   0.954  30.131  0.1615 -0.3708  0.0214
 5432W        W48370   1.611   1.871  28.770 -0.0624 -0.1888 -0.1604
 5433W        W48371   0.407   1.925  30.142 -0.0573  0.0819 -0.3420
 5434W        W48372   2.464   2.538   0.099 -0.2531 -0.0690  0.1343
 5435W        W48373   1.529   0.802  27.202 -0.1501 -0.1216  0.1253
 5436W        W48374   4.444   0.246  31.221  0.2461 -0.1628 -0.1093
 5437W        W48375   2.546   3.024  26.972 -0.1947 -0.0078  0.3792
 5438W        W48376   3.474   2.774  29.690  0.2188  0.1164 -0.0967
 5439W        W48377   2.746   1.519  27.996  0.1863 -0.2714 -0.0478
 5440W        W48378  34.022   1.300  28.564  0.1568  0.1750  0.3839
 5441W        W48379   1.177   3.887  30.348  0.2094 -0.2263 -0.0020
 5442W        W48380   0.983   0.656  27.048 -0.1030 -0.1291  0.1852
 5443W        W48381   0.947   0.903  28.822  0.0113  0.1732 -0.2038
 5444W        W48382   2.524   2.044  30.182 -0.2644 -0.1123 -0.1370
 5445W        W48383   3.230   2.312  29.837  0.5793 -0.1192 -0.1565
 5446W        W48384   2.737  34.373  27.260  0.1097 -0.1106  0.1449
 5447W        W48385   3.800  33.907  31.182  0.1098  0.1713  0.0197
 5448W        W48386   0.519   2.984  30.045 -0.1881 -0.3080 -0.0869
 5449W        W48387   4.188  33.302  28.194 -0.1331  0.0238  0.1551
 5450W        W48388   3.316   4.854  29.034  0.2024 -0.1874  0.1016
 5451W        W48389   1.536   2.961  30.339 -0.0226  0.0565 -0.1306
 5452W        W48390   1.208   4.171  29.030  0.0196  0.0561 -0.0299
 5453W        W48391   2.861  34.646  29.819  0.1285  0.3175  0.0172
 5454W        W48392   4.071   1.862  28.430  0.0523 -0.3050 -0.4882
 5455W        W48393   3.387   2.236  29.364 -0.1964 -0.1759 -0.1183
 5456W        W48394   3.472   1.650  31.610  0.0633 -0.0251  0.0539
 5457W        W48395   3.311   0.972  29.459  0.1167 -0.0153 -0.0276
 5458W        W48396   1.324   3.567  29.971  0.0108 -0.2875 -0.3651
 5459W        W48397   3.260   1.837  29.036 -0.0598  0.0200  0.0603
 5460W        W48398   4.314   2.951  28.976 -0.0804  0.0186  0.1045
 5461W        W48399   0.466   2.440  29.827  0.0029  0.0979 -0.3360
 5462W        W48400   0.399   1.114  31.979  0.1122  0.0567  0.0458
 5463W        W48401   3.058   1.494  30.828  0.1677  0.2163  0.1121
 5464W        W48402   2.684   1.515  29.298  0.0885  0.1240  0.4138
 5465W        W48403   1.956   0.296  28.534  0.1902 -0.0583 -0.0983
 5466W        W48404   2.768   4.930  27.556 -0.0939 -0.2553  0.0353
 5467W        W48405   0.176   4.249  31.693 -0.0071  0.0096  0.0065
 5468W        W48406   1.257   1.331  31.605  0.0666 -0.1482 -0.0991
 5469W        W48407   1.196   3.631  29.263  0.0804  0.0869  0.0976
 5470W        W48408   2.104   1.900  28.060 -0.5354 -0.1139 -0.3170
 5471W        W48409   2.775   2.712  28.809  0.1551  0.3458 -0.3650
 5472W        W48410   2.331   3.406  27.912  0.2469  0.1410 -0.0623
 5473W        W48411   0.208   1.589  28.428  0.2462 -0.0919  0.0119
 5474W        W48412   0.945   2.280  30.554 -0.0287 -0.0346 -0.2078
 5475W        W48413   0.375   3.313  28.392 -0.0095 -0.2361 -0.1269
 5476W        W48414   2.748   2.319  29.327  0.4292  0.1096 -0.0185
 5477W        W48415   1.565   4.564  29.875 -0.2471 -0.1262  0.3347
 5478W        W48416   3.413   4.926   0.256 -0.2784  0.0802  0.0828
 5479W        W48417   3.940  34.195  26.783 -0.0766  0.1972  0.2904
 5480W        W48418   4.402   0.202  29.640  0.0303 -0.0328 -0.0543
 5481W        W48419   3.574   1.107  27.901 -0.0227 -0.2761 -0.0510
 5482W        W48420   2.563   4.621  30.836 -0.0190  0.0011  0.1299
 5483W        W48421   1.809   0.685  29.943  0.1982 -0.1398 -0.0930
 5484W        W48422   1.101  34.638  28.233  0.1720  0.2284  0.1200
 5485W        W48423   2.121   0.891  30.312 -0.0835 -0.0740  0.0984
 5486W        W48424   3.639  34.257   0.134 -0.1140 -0.3262 -0.3485
 5487W        W48425   0.453   3.441  30.844  0.1368  0.2935 -0.0430
 5488W        W48426   2.735   3.801  28.328 -0.1764  0.1855  0.0151
 5489W        W48427   1.202   0.241  27.353  0.2270 -0.1261  0.0958
 5490W        W48428   2.189   0.943  28.951  0.2753 -0.3167 -0.1905
 5491W        W48429   4.761   0.967  31.674  0.0479 -0.1160  0.0726
 5492W        W48430   2.975   1.274  26.276 -0.0461  0.1041  0.2216
 5493W        W48431   4.421  34.214  28.737 -0.0534 -0.0138 -0.1591
 5494W        W48432   0.327   3.727  29.012 -0.0938  0.3129  0.0848
 5495W        W48433   1.537   3.245  29.161  0.0265  0.2110  0.0482
 5496W        W48434   1.522   2.373  29.266 -0.0159  0.1332 -0.1877
 5497W        W48435   1.106   0.155  26.870  0.0883 -0.0069  0.1483
 5498W        W48436   3.741   2.066  28.161 -0.2138 -0.1223 -0.1104
 5499W        W48437   3.001   2.257  30.273  0.4299 -0.1185 -0.1205
 5500W        W48438   3.617   1.438  30.551  0.0365 -0.3725 -0.0489
 5501W        W48439   0.243   0.870  29.626 -0.1426  0.0457  0.0250
 5502W        W48440   3.541   2.316  28.934  0.0182  0.3427 -0.1351
 5503W        W48441   2.195   1.669  31.660  0.2715  0.2591  0.2754
 5504W        W48442   1.203   2.863  28.607 -0.0968 -0.2244  0.0167
 5505W        W48443   2.726   1.918  29.050 -0.0741  0.0986  0.1890
 5506W        W48444   4.379   1.624  30.784 -0.1918 -0.2434  0.0351
 5507W        W48445   4.215   1.736  27.980 -0.3204 -0.2041  0.1928
 5508W        W48446   2.160   3.196  30.937  0.0848  0.1545  0.0208
 5509W        W48447   0.816   1.351  29.049  0.3852  0.0097  0.0766
 5510W        W48448   3.790   1.390  29.846  0.1751  0.1489  0.2301
 5511W        W48449   1.827   1.068  29.493 -0.0423  0.2377 -0.2288
 5512W        W48450   2.097   1.559  29.522 -0.0700 -0.1701 -0.1031
 5513W        W48451   3.551   4.090  30.586 -0.3205  0.0100  0.1096
 5514W        W48452   1.226  34.452  27.215  0.0561  0.2453 -0.1648
 5515W        W48453   3.067   2.899  28.215 -0.0441 -0.1251  0.0253
 5516W        W48454   4.233   2.551  30.826  0.0972  0.0238 -0.1940
 5517W        W48455   2.539   3.631  29.091  0.1852  0.1671  0.2803
 5518W        W48456   1.657   3.550  29.588 -0.2062 -0.3320 -0.1158
 5519W        W48457   3.265   3.791  29.639 -0.1701 -0.2127  0.0548
 5520W        W48458   0.201   1.446  31.035 -0.2688  0.1763  0.2732
 5521W        W48459   3.826   5.610  29.518  0.0900  0.3629  0.0741
 5522W        W48460   4.093   3.273  30.153  0.1987  0.0090  0.1690
 5523W        W48461   2.660   0.546  28.759  0.2234  0.0168  0.2167
 5524W        W48462   0.875   2.160  29.993 -0.0091  0.3697 -0.1326
 5525W        W48463   1.082   4.124  27.698  0.1402  0.2823  0.1003
 5526W        W48464   3.983   1.076  30.250  0.0383 -0.1439  0.1243
 5527W        W48465   3.668   0.833  30.858  0.1323  0.0521 -0.1901
 5528W        W48466   3.307   2.827  27.671  0.2677 -0.0225 -0.0750
 5529W        W48467   4.215  34.016  31.577 -0.0235  0.1331  0.1308
 5530W        W48468   3.594   2.974  30.194  0.1740 -0.2194 -0.1140
 5531W        W48469   1.447   2.909  29.843  0.1850 -0.0436 -0.2313
 5532W        W48470   1.100   1.652  29.334  0.0228 -0.1924 -0.1759
 5533W        W48471   3.484   1.865  30.039  0.2938 -0.2479 -0.0979
 5534W        W48472   0.392   2.825  30.684  0.1281  0.1644 -0.3792
 5535W        W48473   2.235   3.836  28.193 -0.0845  0.2141  0.0252
 5536W        W48474   3.961   4.312  28.485  0.0058 -0.0176  0.0192
 5537W        W48475   3.003   2.262  28.866  0.0520  0.1305 -0.0793
 5538W        W48476   2.448   3.410  28.393  0.1175 -0.0164 -0.1424
 5539W        W48477   2.165   0.464  28.946  0.1458  0.1396 -0.0595
 5540W        W48478   3.352  34.571  28.938  0.0951 -0.0816  0.2236
 5541W        W48479   3.449  33.694  27.095 -0.0931  0.0440 -0.0559
 5542W        W48480   1.582   1.569  29.296 -0.1195 -0.1295 -0.1427
 5543W        W48481  34.104   0.893  27.617 -0.1043 -0.1611  0.4628
 5544W        W48482  34.677   1.217  29.130 -0.0485 -0.0349  0.4094
 5545W        W48483   0.473   1.189  28.632 -0.2380  0.0569  0.0939
 5546W        W48484   2.052  34.566  30.247  0.0887  0.3199 -0.3227
 5547W        W48485   0.734   1.913  30.844  0.4117 -0.1547 -0.0473
 5548W        W48486  34.439   2.363  28.541 -0.1160  0.0300  0.4880
 5549W        W48487   1.323  34.104  29.613 -0.1012 -0.1955  0.3994
 5550W        W48488   2.591   2.910  28.294  0.1467 -0.1002  0.1307
 5551W        W48489  34.522   1.414  28.694 -0.1444 -0.2394  0.0167
 5552W        W48490  34.082   1.412  27.822  0.0318  0.0537 -0.1749
 5553W        W48491   1.719   2.670  28.587  0.3694  0.1632 -0.0490
 5554W        W48492   1.750   1.966  29.570 -0.0973  0.3563  0.0862
 5555W        W48493   4.076   0.350  29.222  0.0925 -0.0776  0.0795
 5556W        W48494   5.311   3.414   0.688 -0.3079  0.0483 -0.1702
 5557W        W48495  34.678   3.363  29.055  0.0556  0.0953  0.0404
 5558W        W48496   2.942   1.843  29.968 -0.0775 -0.0728  0.0631
 5559W        W48497   1.243  33.750  30.977  0.2282  0.2210 -0.1912
 5560W        W48498   1.176   1.802  26.950 -0.1885  0.2863  0.3092
 5561W        W48499   2.354   1.001  28.432 -0.0118  0.2842 -0.1954
 5562W        W48500   3.402   3.175  28.508  0.1880 -0.0154  0.0221
 5563W        W48501   2.564   3.867  26.490 -0.0156 -0.0984 -0.0626
 5564W        W48502   2.810   4.019  29.358 -0.1571  0.1233  0.0091
 5565W        W48503   3.676   2.618  30.607  0.2246  0.1079 -0.1062
 5566W        W48504  34.631   0.125  29.770 -0.0527  0.1347  0.0714
 5567W        W48505   2.453   2.268  28.823 -0.2097  0.4178 -0.3076
 5568W        W48506   2.102   2.349  30.986  0.1613 -0.0282 -0.0366
 5569W        W48507   3.754   2.904  28.840 -0.1127  0.0157 -0.1899
 5570W        W48508   5.555   0.219  29.545  0.0857  0.1783  0.1748
 5571W        W48509   1.732   3.212  28.634  0.0504  0.0270 -0.1345
 5572W        W48510   1.172  34.694  30.119  0.4601 -0.2612 -0.0757
 5573W        W48511  34.416   3.094  30.255  0.1711  0.1603  0.0609
 5574W        W48512   4.092   2.849  28.424 -0.1717 -0.0222 -0.2409
 5575W        W48513   2.280   0.164  28.113 -0.1668  0.1453 -0.0466
 5576W        W48514   3.779   2.683  29.326 -0.3562 -0.1889  0.0004
 5577W        W48515   2.715   2.337  29.852 -0.0083  0.2918  0.2137
 5578W        W48516   0.056   2.235  29.919  0.1156 -0.0670 -0.1075
 5579W        W48517   2.814   0.555  26.981  0.1823  0.1703 -0.1095
 5580W        W48518   2.406   1.140   0.215  0.0572 -0.2954 -0.0395
 5581W        W48519   3.926   2.744  29.860 -0.1291 -0.0629  0.1134
 5582W        W48520   2.967   1.644  31.780  0.1538 -0.1169  0.1463
 5583W        W48521   2.836   1.057  29.526 -0.0348 -0.1964  0.0004
 5584W        W48522   3.775   3.385  28.838 -0.0466  0.1667  0.3122
 5585W        W48523   3.974   4.606  30.779 -0.0651 -0.0104  0.2278
 5586W        W48524   3.746   3.260  29.783  0.0747  0.0565  0.1611
 5587W        W48525   4.007   1.832  29.901 -0.2122 -0.3366 -0.0164
 5588W        W48526   4.514   2.583  28.505  0.1824 -0.0536  0.1474
 5589W        W48527  34.481  34.129  29.595 -0.1875 -0.0663  0.0369
 5590W        W48528   1.768   2.820  29.049  0.0269  0.1250 -0.2504
 5591W        W48529   1.787   3.011  29.526  0.1938 -0.0817  0.1161
 5592W        W48530   4.717   3.505  29.921 -0.2498  0.1127 -0.2246
 5593W        W48531   2.049   2.540  29.436  0.1013  0.2829 -0.1323
 5594W        W48532   4.076   0.318  28.454 -0.0427  0.0956 -0.2161
 5595W        W48533   1.679   5.138  29.794  0.1359 -0.0357  0.0484
 5596W        W48534   4.061   2.303  30.432  0.1187 -0.1419  0.0360
 5597W        W48535   2.939   1.312  30.363  0.1952  0.0116  0.1281
 5598W        W48536   2.876   2.784  29.626  0.2211  0.1353  0.1556
 5599W        W48537   1.513   1.584  31.934  0.3162 -0.1135 -0.1712
 5600W        W48538   2.207   1.664  31.013  0.2838 -0.0117 -0.0227
 5601W        W48539   2.103   2.229  29.879  0.2774 -0.3232  0.1263
 5602W        W48540   1.013   2.860   0.150 -0.0590  0.1427 -0.4946
 5603W        W48541   3.492   1.107  31.583 -0.0307 -0.0853  0.0412
 5604W        W48542   1.591   0.749   0.377  0.1929 -0.2169  0.0339
 5605W        W48543   4.132  34.114   0.093 -0.1688 -0.2010 -0.1512
 5606W        W48544   4.473   3.042  30.794 -0.0600 -0.2211 -0.2340
 5607W        W48545   2.378   2.760  30.798 -0.0116 -0.1814 -0.0579
 5608W        W48546   1.560  34.518  30.450  0.0413 -0.0451 -0.0288
 5609W        W48547   3.302   2.141  31.659 -0.0568  0.2886 -0.2870
 5610W        W48548   0.150   1.720  29.748 -0.1508 -0.0744 -0.0832
 5611W        W48549   3.207   1.662  30.368  0.0382  0.0371 -0.1552
 5612W        W48550   0.109   2.739   0.099 -0.1086 -0.3139  0.3590
 5613W        W48551   1.709   3.192  30.723 -0.2735 -0.1072 -0.1153
 5614W        W48552   3.910   3.280  31.979  0.2334 -0.2389  0.0979
 5615W        W48553   1.776  34.174  31.590  0.1544  0.4240 -0.2730
 5616W        W48554   1.433   1.084   0.010  0.0261  0.0362 -0.0151
 5617W        W48555   0.881  33.384  30.933 -0.1034  0.0531 -0.1003
 5618W        W48556   1.984   3.838  31.657  0.4679 -0.3178  0.0789
 5619W        W48557   4.034   1.157  30.737  0.1064 -0.3626 -0.4978
 5620W        W48558   3.153   1.403  29.254  0.0625 -0.1371 -0.1380
 5621W        W48559   3.966  34.519  30.782 -0.2959 -0.0376  0.2827
 5622W        W48560   4.208   1.138  29.824 -0.0889  0.1653  0.0548
 5623W        W48561   0.903   0.441  30.496  0.1703 -0.3370  0.0899
 5624W        W48562  34.369   4.545  30.791 -0.0097  0.1056 -0.0152
 5625W        W48563   0.622   0.617  31.927  0.0329  0.2521 -0.0735
 5626W        W48564   1.217   2.509  30.182  0.0130  0.0309 -0.1211
 5627W        W48565   2.787   3.126  29.219 -0.2871 -0.2890  0.1127
 5628W        W48566   1.506   1.219  31.068  0.4679  0.0068  0.0947
 5629W        W48567   4.407   0.765  31.309  0.1424  0.2034  0.2141
 5630W        W48568   2.664   1.729  30.605  0.0996 -0.1820 -0.0619
 5631W        W48569   1.693   1.694  31.434  0.2527 -0.0202 -0.3269
 5632W        W48570   1.367   0.447  30.017 -0.0277 -0.1646 -0.0961
 5633W        W48571   0.547   1.653   0.323 -0.2986 -0.0609  0.4724
 5634W        W48572   2.072   2.699   0.684  0.0911  0.2197  0.1375
 5635W        W48573   3.517   1.131  30.165 -0.2184  0.0037  0.0755
 5636W        W48574   2.506   0.767  29.819  0.0179  0.2950 -0.0222
 5637W        W48575   4.593  34.126  30.774  0.1890  0.1692  0.2750
 5638W        W48576   4.403  34.419  31.148  0.2242 -0.0521 -0.0746
 5639W        W48577   2.669   0.726  31.479  0.0029  0.1925 -0.0416
 5640W        W48578   3.652   3.107  31.234  0.1156  0.0201  0.2483
 5641W        W48579   0.809   0.961  30.848 -0.0867  0.0794 -0.0762
 5642W        W48580   0.770   2.250  29.384 -0.3321  0.0540  0.2747
 5643W        W48581   2.510   0.049  30.230  0.0980  0.0559  0.2988
 5644W        W48582   2.217   3.067  30.422 -0.2323 -0.1056 -0.2940
 5645W        W48583   2.882   2.425   0.513 -0.2189  0.0802  0.1070
 5646W        W48584   0.643   2.434  30.970 -0.0542  0.0175  0.1000
 5647W        W48585   4.905   2.853   1.062  0.0407  0.1712  0.1278
 5648W        W48586   3.891  33.617  30.338  0.1370 -0.2324  0.0693
 5649W        W48587   1.457  34.234   0.056 -0.0913 -0.0255  0.0914
 5650W        W48588   2.081   2.150   0.731  0.2508  0.1838  0.0835
 5651W        W48589   0.966   0.473  31.075  0.3678 -0.0067  0.4213
 5652W        W48590   3.124   0.922  31.194  0.0315  0.2261  0.0274
 5653W        W48591   4.805   1.355  31.416  0.1532 -0.1290 -0.0240
 5654W        W48592   2.354   4.461   0.641  0.0717 -0.1511 -0.0085
 5655W        W48593   2.152   3.667  31.078  0.0170  0.0186  0.4659
 5656W        W48594   1.573   2.089  31.201 -0.0374  0.1594  0.1049
 5657W        W48595  34.666   1.125   0.415  0.0108  0.0848 -0.0418
 5658W        W48596   1.065   3.049  30.124  0.0761 -0.1571 -0.1261
 5659W        W48597   0.634   1.989  31.847  0.1326  0.3906  0.0805
 5660W        W48598   0.332   0.597   0.393 -0.0244  0.1125 -0.0487
 5661W        W48599   2.814   3.581  30.420  0.1050  0.4846 -0.1348
 5662W        W48600   4.875   0.869  30.489 -0.0880 -0.0463  0.1083
 5663W        W48601   4.463   1.153   0.141  0.0808  0.0618 -0.1183
 5664W        W48602   0.488   6.008  19.557 -0.0835  0.2179  0.3716
 5665W        W48603   1.371   5.895  16.807 -0.0524  0.1292  0.1195
 5666W        W48604   2.872   3.510  16.537 -0.1948 -0.1566  0.0699
 5667W        W48605   3.336   4.801  17.232  0.0253 -0.0642 -0.3518
 5668W        W48606   0.699   5.161  17.010 -0.0765 -0.1488 -0.0515
 5669W        W48607   3.650   6.213  17.479 -0.0456 -0.1098 -0.5192
 5670W        W48608   0.470   5.263  18.444  0.2876  0.1990  0.0313
 5671W        W48609   0.471   5.596  19.837  0.0755 -0.0326 -0.1270
 5672W        W48610   3.568   6.595  18.362 -0.1448  0.1915 -0.0794
 5673W        W48611   2.394   6.314  16.563  0.0852  0.1100  0.2278
 5674W        W48612   2.778   5.168  18.177 -0.1052  0.0847  0.2289
 5675W        W48613   0.030   7.822  17.480  0.0473 -0.0539 -0.5962
 5676W        W48614   1.826   3.359  17.880  0.1613  0.5618 -0.0836
 5677W        W48615   0.965   4.394  17.697 -0.2066 -0.2362  0.1954
 5678W        W48616   2.459   6.157  18.420 -0.1042 -0.0419 -0.0534
 5679W        W48617  33.042   6.472  17.294  0.0092 -0.2454  0.1956
 5680W        W48618   0.872   4.859  18.636 -0.0620 -0.1124  0.0971
 5681W        W48619   1.606   4.940  17.539 -0.0933  0.1281  0.0292
 5682W        W48620   1.899   5.681  18.912 -0.1637 -0.2183  0.0460
 5683W        W48621   1.325   4.442  20.037 -0.1135  0.3665 -0.0951
 5684W        W48622   1.921   3.778  20.007  0.0908  0.0100  0.1639
 5685W        W48623   2.077   6.432  18.450  0.0134  0.1716  0.0547
 5686W        W48624   1.110   4.011  16.670 -0.1085 -0.0514 -0.1267
 5687W        W48625  34.366   5.814  17.515 -0.1734  0.0394 -0.1473
 5688W        W48626   1.104   5.917  18.927  0.2052 -0.0446  0.0119
 5689W        W48627   3.296   4.470  18.210 -0.2377  0.0690 -0.2586
 5690W        W48628   2.162   5.746  18.442  0.1504  0.0155 -0.2913
 5691W        W48629   0.834   6.777  17.452  0.1029  0.0818  0.1925
 5692W        W48630   1.739   6.890  16.973 -0.1718 -0.3326 -0.2943
 5693W        W48631   2.649   5.224  18.992  0.1730  0.2909  0.0663
 5694W        W48632   0.993   5.531  17.155  0.1850  0.1577  0.3061
 5695W        W48633   0.131   8.189  17.128  0.1958  0.0565  0.0692
 5696W        W48634   1.944   6.558  16.668  0.0064 -0.3248  0.2289
 5697W        W48635   3.573   5.709  18.216  0.1304 -0.1436 -0.0143
 5698W        W48636   2.771   5.506  19.554  0.1572 -0.1486 -0.0032
 5699W        W48637   0.867   7.416  18.806  0.0408 -0.2118 -0.3045
 5700W        W48638  33.669   5.817  17.056 -0.0618 -0.0933  0.0809
 5701W        W48639   1.861   6.447  20.964 -0.0694 -0.0066 -0.1819
 5702W        W48640   1.551   6.683  18.990  0.1134 -0.0640  0.0493
 5703W        W48641   0.902   5.815  19.930 -0.3149 -0.2211  0.0910
 5704W        W48642   1.986   6.508  18.894  0.1366 -0.1085 -0.1745
 5705W        W48643   0.771   6.847  16.007 -0.2002 -0.3364 -0.0910
 5706W        W48644   2.878   6.713  17.172  0.0943  0.3486 -0.0354
 5707W        W48645   0.644   5.782  19.099  0.3532 -0.0939 -0.2135
 5708W        W48646   0.520   6.500  18.346  0.1091  0.1182 -0.0847
 5709W        W48647   3.517   3.024  20.110  0.2950 -0.2795  0.0033
 5710W        W48648  34.181   7.207  16.441 -0.2052 -0.0294 -0.0864
 5711W        W48649   2.589   3.905  15.920 -0.3030 -0.0561  0.0437
 5712W        W48650   2.373   4.362  16.231  0.0343  0.1998 -0.0225
 5713W        W48651   2.312   4.749  17.246 -0.0473 -0.0430  0.1916
 5714W        W48652   2.089   3.397  18.420  0.0218 -0.1466  0.3261
 5715W        W48653   0.854   6.802  18.091 -0.1446 -0.2690 -0.2480
 5716W        W48654   1.416   5.105  19.600 -0.6890 -0.1512 -0.0640
 5717W        W48655   4.425   5.803  17.780 -0.6877  0.3628 -0.0990
 5718W        W48656   2.884   5.894  17.474  0.1855 -0.3185 -0.0880
 5719W        W48657   1.801   4.818  19.294 -0.1340 -0.0003  0.0381
 5720W        W48658  34.129   7.572  18.604  0.0368 -0.1774  0.1201
 5721W        W48659   0.185   4.747  19.289 -0.0799  0.1930  0.0085
 5722W        W48660   3.191   6.409  16.782 -0.0142 -0.0168 -0.2990
 5723W        W48661   3.174   6.834  17.936  0.3400  0.0346  0.2827
 5724W        W48662   2.036   7.130  17.288 -0.1151 -0.2749 -0.3494
 5725W        W48663   0.405   4.552  16.481  0.0439 -0.1358  0.0136
 5726W        W48664  33.705   5.519  19.167 -0.3307  0.1174  0.0690
 5727W        W48665  33.883   5.079  19.129  0.1053 -0.2887 -0.1148
 5728W        W48666   0.619   2.824  17.618  0.2910 -0.0624  0.0494
 5729W        W48667   5.077   5.366  19.398  0.1379 -0.1995 -0.1708
 5730W        W48668  34.626   6.465  18.655  0.0266  0.2406 -0.0532
 5731W        W48669   2.275   4.205  17.416  0.3028 -0.2328 -0.1178
 5732W        W48670   1.534   4.851  18.412 -0.0769 -0.2010  0.2355
 5733W        W48671   2.319   7.036  17.774  0.1634  0.1873  0.1669
 5734W        W48672   2.924   5.894  16.912 -0.1017 -0.0499 -0.0592
 5735W        W48673   2.713   3.867  17.131  0.0468 -0.0718  0.0488
 5736W        W48674   2.085   4.407  18.796  0.1055 -0.1608 -0.3412
 5737W        W48675  34.643   5.807  17.004 -0.1067 -0.0264  0.2642
 5738W        W48676   1.221   6.935  16.111 -0.1892 -0.1430 -0.0936
 5739W        W48677   2.540   6.653  18.651  0.1706 -0.0956  0.1603
 5740W        W48678   3.170   5.520  17.254  0.0992  0.1130 -0.1183
 5741W        W48679   1.151   7.095  17.716 -0.1546  0.1370 -0.0320
 5742W        W48680   1.112   4.741  19.708 -0.0734 -0.0060 -0.0033
 5743W        W48681   2.149   6.137  20.644  0.2780 -0.1270 -0.4144
 5744W        W48682  34.040   7.462  15.876 -0.0311 -0.0878  0.1217
 5745W        W48683  34.265   6.009  19.709 -0.3007 -0.1602 -0.1191
 5746W        W48684   1.854   6.080  16.945 -0.2791  0.0370  0.1265
 5747W        W48685  34.419   5.553  18.837  0.1124  0.0556 -0.1036
 5748W        W48686   1.009   5.907  19.453  0.0307 -0.0527  0.0761
 5749W        W48687   3.528   5.968  16.856  0.1025  0.1349 -0.1650
 5750W        W48688   0.316   5.206  20.577 -0.2291  0.0453 -0.0177
 5751W        W48689   3.282   3.315  17.827 -0.1259 -0.0184  0.1056
 5752W        W48690   1.129   4.511  16.639  0.0160  0.2098 -0.1581
 5753W        W48691   2.581   8.112  18.606  0.1399 -0.1493  0.0013
 5754W        W48692   3.298   4.909  16.737  0.1460  0.0542  0.1092
 5755W        W48693   2.515   5.256  16.376  0.0569  0.0410  0.3117
 5756W        W48694   0.078   5.946  19.818  0.3559 -0.1212  0.1101
 5757W        W48695   1.432   4.741  16.255 -0.0839  0.4408 -0.1105
 5758W        W48696   0.974   2.391  19.391 -0.2651  0.0735 -0.1596
 5759W        W48697   0.154   4.631  18.313  0.1669  0.0035  0.0122
 5760W        W48698   2.635   4.393  19.065  0.2210  0.0577 -0.0544
 5761W        W48699   2.045   3.745  17.665 -0.0636 -0.2956  0.0286
 5762W        W48700   3.824   5.149  18.018 -0.4552 -0.1188  0.1621
 5763W        W48701   1.752   6.077  18.353  0.1769 -0.2229 -0.0775
 5764W        W48702   0.665   5.542  16.729  0.0799  0.1941 -0.0702
 5765W        W48703   3.586   4.798  17.739  0.0560 -0.0924  0.0289
 5766W        W48704   2.349   8.053  17.223 -0.2263 -0.0915  0.0969
 5767W        W48705   2.455   5.688  18.979 -0.2247 -0.3487  0.0464
 5768W        W48706   2.151   8.014  18.811  0.0111  0.0207 -0.1046
 5769W        W48707   0.734   3.976  20.071 -0.0742  0.1888 -0.1658
 5770W        W48708   1.155   5.144  16.291  0.2574 -0.1446  0.0416
 5771W        W48709  34.554   5.872  17.949  0.0056 -0.2784  0.1635
 5772W        W48710   1.314   5.879  17.331  0.0023  0.0572  0.0730
 5773W        W48711   1.151   3.615  18.469  0.0241 -0.2550  0.1557
 5774W        W48712   2.385   7.568  18.507  0.0730 -0.1962  0.0286
 5775W        W48713   1.027   6.460  18.392 -0.1724 -0.1022  0.0062
 5776W        W48714  34.355   5.834  20.194 -0.1124  0.0207  0.2104
 5777W        W48715   2.286   3.715  19.518 -0.0234 -0.0191  0.2335
 5778W        W48716   3.722   5.086  19.004  0.0212  0.0667 -0.1196
 5779W        W48717   2.326   5.434  18.083 -0.0412  0.3230  0.0354
 5780W        W48718  34.646   3.687  16.683  0.0872 -0.2537 -0.0167
 5781W        W48719   2.092   7.918  18.217  0.0264 -0.0188 -0.0144
 5782W        W48720  34.263   6.721  16.273  0.1057  0.0799 -0.0353
 5783W        W48721   0.729   4.970  17.823 -0.3441 -0.3336  0.2783
 5784W        W48722   1.786   7.190  17.733 -0.0176  0.1023 -0.3177
 5785W        W48723   4.059   3.642  19.663 -0.0707  0.0520 -0.0243
 5786W        W48724  33.911   7.294  19.926  0.0975 -0.0798  0.2367
 5787W        W48725   1.333   5.074  20.222  0.3234  0.3013  0.0824
 5788W        W48726   1.365   4.508  17.342  0.0381  0.0485 -0.1377
 5789W        W48727   0.871   6.326  19.820  0.2082  0.2578  0.3562
 5790W        W48728   2.753   4.235  17.667 -0.0219 -0.1439 -0.2506
 5791W        W48729   2.377   3.758  16.740  0.0423  0.2304 -0.1518
 5792W        W48730   3.134   6.195  19.608  0.1156 -0.3271  0.2032
 5793W        W48731   2.753   6.250  17.181  0.1127 -0.1321 -0.3056
 5794W        W48732   2.805   4.661  16.978 -0.2468 -0.1399  0.1285
 5795W        W48733   2.081   3.933  15.853  0.2382  0.0525 -0.1000
 5796W        W48734  34.497   4.953  19.789  0.0896 -0.0221  0.0501
 5797W        W48735   2.162   6.503  17.621 -0.1194 -0.1861 -0.0548
 5798W        W48736   0.976   5.388  17.912 -0.1812  0.2796 -0.2394
 5799W        W48737   1.878   4.489  17.197  0.0277 -0.0203 -0.0533
 5800W        W48738   2.855   7.351  17.430 -0.2270  0.0127 -0.1664
 5801W        W48739  34.349   5.357  19.414 -0.1336 -0.0800 -0.2501
 5802W        W48740   1.360   5.921  20.174  0.1542  0.2340  0.3863
 5803W        W48741   2.765   6.904  17.661  0.2856 -0.1437  0.0207
 5804W        W48742   1.815   3.974  18.813 -0.1482 -0.1178 -0.0788
 5805W        W48743   1.715   3.210  16.910  0.0648  0.1173  0.0179
 5806W        W48744   2.626   2.939  18.438 -0.1937 -0.0217  0.1449
 5807W        W48745   1.173   8.688  16.551 -0.0308 -0.0503 -0.1054
 5808W        W48746   2.253   4.856  18.999  0.1125 -0.2195  0.1441
 5809W        W48747   1.046   4.256  19.657 -0.1677 -0.2329 -0.0796
 5810W        W48748   1.790   2.325  18.393 -0.1702 -0.1506  0.2310
 5811W        W48749   2.305   5.297  18.600 -0.1165 -0.2333 -0.2995
 5812W        W48750   3.763   4.441  17.407 -0.2128  0.0515 -0.1337
 5813W        W48751   2.769   5.452  17.750  0.0544  0.0903  0.0146
 5814W        W48752   0.345   5.120  16.596  0.0303 -0.3585  0.1465
 5815W        W48753   1.075   2.903  19.550 -0.1224  0.0364  0.1176
 5816W        W48754   0.939   3.789  19.542 -0.3405  0.1113  0.2398
 5817W        W48755  34.525   5.473  19.924  0.0079  0.0444 -0.2297
 5818W        W48756   1.237   6.744  20.025  0.0443 -0.1020 -0.0854
 5819W        W48757   1.584   6.150  18.885 -0.0856 -0.1000  0.0195
 5820W        W48758   1.662   4.516  19.594  0.0590  0.1125  0.0993
 5821W        W48759   0.938   3.639  17.548  0.1297 -0.0629 -0.2529
 5822W        W48760   1.787   7.562  16.646 -0.0158  0.3911  0.2468
 5823W        W48761   0.989   6.526  16.354  0.2159  0.1501  0.0394
 5824W        W48762   1.649   4.602  18.817 -0.2052  0.0372  0.4735
 5825W        W48763   1.666   7.930  20.689 -0.0774  0.1526  0.4792
 5826W        W48764   1.352   5.655  16.337 -0.2241  0.1664  0.3671
 5827W        W48765   2.565   4.823  20.531 -0.2096  0.4789  0.5763
 5828W        W48766   0.847   5.550  16.275  0.1635  0.1601  0.3124
 5829W        W48767   4.316   3.602  18.710 -0.2717 -0.2602 -0.0142
 5830W        W48768  33.747   6.343  16.228 -0.2208  0.0048 -0.2089
 5831W        W48769   1.795   3.708  16.876  0.3156  0.4139 -0.2514
 5832W        W48770   0.964   4.759  17.046 -0.0179  0.0747  0.1250
 5833W        W48771   3.747   3.528  17.752  0.1886 -0.0544  0.1252
 5834W        W48772   2.925   6.150  16.481 -0.0216 -0.4011 -0.1166
 5835W        W48773   0.876   6.083  18.120  0.0767  0.3100  0.3281
 5836W        W48774   2.570   3.447  18.461  0.0293  0.1058 -0.2378
 5837W        W48775   0.948   8.161  18.820  0.2761  0.2206  0.2384
 5838W        W48776   1.095   7.000  18.566 -0.1615  0.0641 -0.1088
 5839W        W48777   2.698   4.048  16.450  0.0620  0.1026 -0.0443
 5840W        W48778   1.542   6.604  18.481 -0.1824 -0.0800 -0.2223
 5841W        W48779   1.876   3.462  18.891 -0.0739  0.0763 -0.1302
 5842W        W48780  33.882   5.545  17.411 -0.0030 -0.4736 -0.2713
 5843W        W48781   2.609   4.831  18.551 -0.0475 -0.3376  0.0399
 5844W        W48782   1.328   5.278  19.002 -0.1381 -0.1464 -0.0054
 5845W        W48783   0.156   6.962  18.790 -0.0192  0.0781  0.0154
 5846W        W48784   1.432   7.088  18.127 -0.2261  0.0151 -0.1143
 5847W        W48785   0.864   6.451  17.791  0.1696  0.0857  0.3569
 5848W        W48786   1.957   6.071  16.454 -0.1490 -0.2938  0.1438
 5849W        W48787   1.337   3.749  19.213 -0.1624 -0.3380  0.1581
 5850W        W48788   1.411   6.660  17.847  0.2376 -0.2212  0.1063
 5851W        W48789   2.796   4.413  18.576 -0.0872  0.1889  0.1065
 5852W        W48790   1.787   4.340  17.746  0.1238  0.0874  0.0718
 5853W        W48791   2.111   4.565  20.531 -0.2973  0.1959  0.2169
 5854W        W48792   1.730   6.321  19.358 -0.0579  0.2405 -0.1342
 5855W        W48793   1.459   5.570  18.140 -0.2530  0.2651 -0.1059
 5856W        W48794  33.954   7.013  20.375  0.1757  0.0278 -0.0958
 5857W        W48795   1.377   4.006  17.603 -0.1458  0.3536  0.1172
 5858W        W48796   3.649   8.589  18.496 -0.2583 -0.2021 -0.2463
 5859W        W48797   2.364   5.137  19.441 -0.0765  0.1122 -0.4089
 5860W        W48798   0.114   6.727  15.367 -0.1748  0.1619  0.2098
 5861W        W48799   0.391   5.923  18.280  0.0008 -0.0781 -0.1524
 5862W        W48800   0.637   6.713  16.946  0.0033 -0.1308 -0.1383
 5863W        W48801   1.661   5.416  20.127 -0.2615 -0.1036  0.1828
 5864W        W48802  34.046   6.216  17.895 -0.0791 -0.0314  0.1255
 5865W        W48803   0.435   6.207  17.837  0.0574 -0.2989  0.0828
 5866W        W48804  33.484   5.863  18.845  0.0625 -0.0445  0.0287
 5867W        W48805   4.150   3.222  17.923  0.1333  0.1974  0.0977
 5868W        W48806   1.804   6.090  17.419 -0.0322  0.3669 -0.0470
 5869W        W48807   1.408   5.089  17.948  0.3570  0.1028  0.2368
 5870W        W48808   3.772   4.029  19.848  0.1469 -0.1721 -0.1740
 5871W        W48809   1.548   4.323  16.807 -0.0791 -0.0264  0.2289
 5872W        W48810   3.080   3.314  18.439  0.3212 -0.3205 -0.3178
 5873W        W48811   0.506   3.608  19.350  0.1490 -0.0864 -0.2015
 5874W        W48812   1.928   7.835  17.641 -0.0950 -0.2924 -0.0484
 5875W        W48813   0.082   4.643  20.737  0.0186 -0.0939 -0.1276
 5876W        W48814   1.707   6.641  19.830 -0.1282 -0.0228  0.0784
 5877W        W48815   0.168   6.029  20.609 -0.1014 -0.1314  0.0743
 5878W        W48816   2.300   5.205  16.917 -0.2821 -0.0732  0.0894
 5879W        W48817   2.467   3.449  15.705  0.0284  0.0624  0.4788
 5880W        W48818   1.787   7.023  18.611  0.1545  0.1446 -0.1057
 5881W        W48819   2.809   5.954  18.060 -0.0905 -0.0711  0.1587
 5882W        W48820   1.489   5.495  17.082 -0.0073 -0.3055  0.2017
 5883W        W48821   3.710   4.376  17.974  0.0621 -0.0638 -0.0257
 5884W        W48822   1.155   6.384  17.413  0.1817  0.1504 -0.0108
 5885W        W48823   3.096   5.549  18.218 -0.1348  0.2382 -0.3773
 5886W        W48824   2.817   5.114  17.147 -0.0013 -0.2539 -0.1719
 5887W        W48825   1.487   5.454  17.558  0.0737 -0.1318 -0.0559
 5888W        W48826   1.346   3.147  18.323  0.0199 -0.0306  0.2218
 5889W        W48827   2.351   6.123  17.395 -0.2470 -0.0616  0.0468
 5890W        W48828   2.595   3.370  16.964  0.2367 -0.1379  0.1639
 5891W        W48829   2.218   2.615  18.392 -0.0254 -0.1922  0.0026
 5892W        W48830   1.778   5.148  18.782 -0.1869  0.2349 -0.3211
 5893W        W48831   0.821   5.374  18.831  0.0730  0.2906 -0.3944
 5894W        W48832   0.305   4.236  20.039 -0.0854 -0.0892 -0.2014
 5895W        W48833   3.506   7.093  19.217 -0.0975 -0.0859  0.3159
 5896W        W48834   3.554   4.491  16.571  0.1105  0.1032  0.3345
 5897W        W48835   4.323   4.852  18.154 -0.0006 -0.1954 -0.0643
 5898W        W48836   3.244   4.686  18.658  0.4115  0.0462  0.2133
 5899W        W48837   1.943   4.837  16.881 -0.1598 -0.1102  0.0336
 5900W        W48838  34.643   5.146  18.972  0.1742  0.0725 -0.0277
 5901W        W48839   2.505   4.309  20.369  0.4270  0.0088  0.0307
 5902W        W48840   0.459   3.486  16.344 -0.1276  0.0965 -0.0147
 5903W        W48841   1.463   3.352  20.182 -0.3314  0.1787 -0.0350
 5904W        W48842   0.912   8.096  16.541  0.3316 -0.1368  0.0361
 5905W        W48843   1.704   7.789  18.494  0.0300 -0.1038  0.0217
 5906W        W48844   1.993   4.543  16.467  0.0121 -0.4566 -0.3110
 5907W        W48845   0.349   4.856  18.723 -0.0311  0.0171  0.2750
 5908W        W48846  34.597   6.250  19.387  0.2467  0.3406  0.3190
 5909W        W48847   0.434   5.434  16.126 -0.1622 -0.0317 -0.3503
 5910W        W48848   2.415   4.833  16.626  0.3089 -0.2382  0.2703
 5911W        W48849   1.852   7.368  18.271 -0.2236  0.0577  0.1098
 5912W        W48850   3.193   5.113  19.142 -0.3276  0.1773 -0.0208
 5913W        W48851   2.700   2.276  16.774 -0.0062 -0.0961  0.4481
 5914W        W48852   4.198   4.189  19.475  0.2722 -0.0481 -0.2430
 5915W        W48853   0.533   7.236  16.267  0.1606 -0.2541  0.1965
 5916W        W48854   1.737   3.914  18.007 -0.4312  0.1798  0.0177
 5917W        W48855   0.359   7.235  20.349 -0.0618  0.1365  0.4354
 5918W        W48856   0.022   6.936  19.531 -0.2367 -0.0277 -0.2084
 5919W        W48857   1.481   7.109  17.327 -0.0573 -0.3203  0.1096
 5920W        W48858   2.241   4.120  17.951 -0.1993  0.4151  0.1801
 5921W        W48859   2.310   4.951  18.058 -0.1197 -0.0223  0.0270
 5922W        W48860   1.144   6.412  19.324 -0.0400 -0.2992  0.0715
 5923W        W48861   4.164   4.822  18.643 -0.1861  0.0394 -0.0523
 5924W        W48862   1.830   7.847  19.179 -0.1961 -0.2131  0.0603
 5925W        W48863   1.071   4.799  18.182 -0.1117  0.0775 -0.2640
 5926W        W48864   2.579   7.175  19.657 -0.0864  0.1602 -0.0074
 5927W        W48865   3.041   7.322  16.829 -0.2035 -0.1626  0.0088
 5928W        W48866   0.898   5.834  17.563 -0.0533  0.3425  0.1380
 5929W        W48867  34.097   4.745  20.185  0.0487  0.2271  0.0497
 5930W        W48868   0.713   5.954  20.602 -0.1608  0.2587  0.2061
 5931W        W48869   3.246   5.674  17.734  0.1867  0.1064 -0.2739
 5932W        W48870   1.858   5.351  18.297 -0.1523  0.0348  0.3459
 5933W        W48871   0.271   7.042  15.753 -0.3953 -0.1981  0.2271
 5934W        W48872  34.232   5.323  21.484  0.2503  0.0215  0.2793
 5935W        W48873   0.078   6.329  18.178 -0.3029  0.1490 -0.1495
 5936W        W48874   0.025   7.744  15.426  0.1456  0.0615  0.1203
 5937W        W48875   2.193   6.878  16.415  0.0878 -0.0052  0.0580
 5938W        W48876   2.688   7.350  17.925  0.3396  0.2629  0.0553
 5939W        W48877   2.218   7.012  18.809 -0.0557 -0.3389  0.1204
 5940W        W48878   2.113   3.378  16.643 -0.0349  0.0605 -0.1037
 5941W        W48879   0.847   5.950  16.943  0.2343 -0.1856 -0.1307
 5942W        W48880  34.464   6.157  16.710  0.0912  0.0283  0.0542
 5943W        W48881   2.703   7.639  17.056  0.0393 -0.2378 -0.1007
 5944W        W48882   0.949   7.311  18.135  0.1819 -0.1616  0.2795
 5945W        W48883   2.247   6.401  19.273  0.0706 -0.0441 -0.1363
 5946W        W48884   2.829   3.443  16.027 -0.1426 -0.0668  0.4882
 5947W        W48885   3.601   5.345  17.559  0.1199 -0.0827  0.2600
 5948W        W48886   4.209   5.266  18.392  0.0913  0.1245 -0.2509
 5949W        W48887   1.352   7.173  18.977  0.2801  0.2474 -0.5273
 5950W        W48888   1.563   5.210  16.519 -0.1704  0.0695 -0.0542
 5951W        W48889   2.960   2.670  16.489  0.0965  0.2490  0.3722
 5952W        W48890   1.322   4.069  18.842 -0.1325  0.0611  0.0239
 5953W        W48891   2.851   3.516  18.917  0.2178 -0.3273 -0.0525
 5954W        W48892  33.646   8.346  19.228  0.1056 -0.1957 -0.0201
 5955W        W48893   1.730   6.309  17.888 -0.1931 -0.0623  0.0677
 5956W        W48894   0.879   3.564  16.605 -0.1273 -0.4231  0.0691
 5957W        W48895   1.848   5.727  17.928 -0.4124  0.1787 -0.0731
 5958W        W48896   3.664   4.207  18.452 -0.1871 -0.1364  0.1579
 5959W        W48897   0.466   6.800  16.436 -0.1545  0.0008 -0.1208
 5960W        W48898   2.370   4.449  18.347  0.0628 -0.0710  0.0490
 5961W        W48899   1.158   6.878  17.071  0.1975  0.3432 -0.0223
 5962W        W48900   1.532   5.727  19.230 -0.0825 -0.0971  0.1066
 5963W        W48901   1.405   7.390  18.530  0.3795  0.0908  0.0431
 5964W        W48902   0.485   5.683  17.854  0.1762 -0.1953  0.0257
 5965W        W48903   4.028   3.567  17.327  0.0962 -0.1371  0.1480
 5966W        W48904   0.678   4.573  19.287  0.1403  0.0318  0.2055
 5967W        W48905   2.367   2.158  19.143  0.0805 -0.0729  0.0315
 5968W        W48906   1.403   4.957  17.020  0.0976 -0.1195  0.4407
 5969W        W48907   4.148   4.674  17.687 -0.0768 -0.0440  0.1531
 5970W        W48908   0.801   5.654  18.334 -0.2601  0.0659 -0.0334
 5971W        W48909   1.248   6.033  18.479 -0.0916 -0.0154 -0.1478
 5972W        W48910   1.306   6.007  17.954  0.1271 -0.5431 -0.3813
 5973W        W48911   2.215   4.578  19.475  0.0089 -0.1802 -0.1268
 5974W        W48912   2.074   3.968  16.340  0.1617 -0.1308 -0.0199
 5975W        W48913   2.863   7.739  19.372  0.1999  0.2897 -0.1279
 5976W        W48914   0.378   4.492  17.809 -0.0983  0.1400 -0.1454
 5977W        W48915   2.254   5.643  17.642 -0.0835  0.0035 -0.0473
 5978W        W48916   0.673   4.564  17.370  0.0137 -0.0902 -0.2298
 5979W        W48917   0.311   5.617  18.765 -0.0062 -0.0091 -0.0079
 5980W        W48918   2.401   5.796  19.944 -0.0962  0.1734  0.3692
 5981W        W48919   0.429   3.846  18.922  0.0221  0.3140 -0.0676
 5982W        W48920   3.079   5.072  17.713 -0.2281  0.1313 -0.2002
 5983W        W48921   4.119   5.699  18.249  0.1386 -0.0074  0.0051
 5984W        W48922  34.094   6.663  17.629 -0.1119 -0.2064 -0.0201
 5985W        W48923   2.414   5.126  17.607 -0.3516 -0.0603  0.0301
 5986W        W48924   2.672   7.201  18.663  0.2328  0.1369 -0.0124
 5987W        W48925  34.634   5.029  18.460 -0.1148  0.0299 -0.2710
 5988W        W48926   1.958   6.818  19.348 -0.0989 -0.2088  0.2648
 5989W        W48927   2.379   5.951  16.894  0.0677 -0.1236 -0.1612
 5990W        W48928   2.574   5.553  17.272 -0.1316 -0.1472  0.1429
 5991W        W48929   0.635   6.259  17.352 -0.1773  0.0911  0.1445
 5992W        W48930   0.098   6.511  16.549  0.0594 -0.0570 -0.1444
 5993W        W48931   3.272   4.967  18.192 -0.0521 -0.2631  0.0573
 5994W        W48932   2.204   4.589  19.981 -0.2947  0.1059  0.1971
 5995W        W48933   1.330   7.217  16.757  0.1734 -0.0982  0.0184
 5996W        W48934   4.250   1.947  19.307  0.2955  0.2541  0.3009
 5997W        W48935   1.578   6.034  21.034  0.0839 -0.2548 -0.0287
 5998W        W48936   1.057   5.544  20.991 -0.0084  0.1475  0.0425
 5999W        W48937   0.470   4.706  16.972  0.0313  0.2606 -0.0332
 6000W        W48938   0.943   4.947  19.129 -0.2048  0.0656 -0.0527
 6001W        W48939   0.594   6.720  18.793 -0.2794  0.0727  0.0268
 6002W        W48940   1.737   6.703  17.455 -0.1581  0.1132 -0.0713
 6003W        W48941   2.936   6.414  18.133 -0.2475  0.0942  0.2473
 6004W        W48942   2.842   4.723  17.547 -0.1300  0.0860  0.1368
 6005W        W48943   2.747   6.431  17.658  0.0139  0.2348  0.0509
 6006W        W48944   0.983   4.217  17.163  0.0797 -0.1880 -0.1259
 6007W        W48945   3.700   3.925  17.506 -0.0970  0.1239  0.1681
 6008W        W48946   3.077   3.512  17.072 -0.1233 -0.0292  0.2384
 6009W        W48947   0.241   5.148  20.045 -0.2619  0.0342  0.0863
 6010W        W48948  34.425   5.374  17.853  0.1391 -0.2833  0.1020
 6011W        W48949  34.339   5.705  15.840 -0.2035 -0.1022  0.0073
 6012W        W48950   0.705   6.146  18.626 -0.2328  0.2216 -0.0550
 6013W        W48951   3.638   3.031  19.148 -0.0304  0.0199  0.1701
 6014W        W48952   2.084   5.617  20.838  0.0611 -0.0921 -0.1967
 6015W        W48953  34.198   5.435  16.917  0.1707 -0.1021  0.0859
 6016W        W48954   1.323   3.337  15.984 -0.0766  0.2078  0.3256
 6017W        W48955   2.627   7.115  17.073 -0.0432  0.1533  0.0504
 6018W        W48956   0.535   4.086  19.584 -0.1888 -0.1147  0.0034
 6019W        W48957  34.286   3.595  18.665  0.1030  0.0102  0.1223
 6020W        W48958   1.503   6.255  16.538  0.1145 -0.0918 -0.0708
 6021W        W48959   3.159   7.753  17.218 -0.3728 -0.0147  0.3110
 6022W        W48960   1.232   5.250  18.475  0.1321 -0.1645 -0.0017
 6023W        W48961   2.492   6.866  19.252 -0.0687 -0.0834  0.1309
 6024W        W48962  33.620   5.372  16.211 -0.1964  0.4529 -0.4964
 6025W        W48963   1.291   3.963  20.060  0.3997  0.0345  0.1957
 6026W        W48964   0.600   3.099  19.510 -0.0032  0.5518 -0.3570
 6027W        W48965   0.210   3.881  17.172  0.3521  0.1632 -0.1964
 6028W        W48966   1.879   4.756  18.000  0.1436  0.2119  0.0278
 6029W        W48967   2.720   7.886  18.192 -0.0010  0.2010 -0.0147
 6030W        W48968   4.500   7.938  16.490 -0.0497 -0.0672 -0.1028
 6031W        W48969   2.042   6.482  17.122  0.0269 -0.0803 -0.0889
 6032W        W48970   0.222   6.117  18.845 -0.3537  0.2617 -0.0258
 6033W        W48971   0.302   4.680  19.801 -0.1651 -0.1681  0.1554
 6034W        W48972   2.431   6.671  16.886  0.0252 -0.2021 -0.2367
 6035W        W48973   0.416   6.621  19.619 -0.3953  0.1134  0.0693
 6036W        W48974   4.453   5.941  17.191  0.2064  0.3366 -0.1123
 6037W        W48975   4.682   2.896  19.237  0.1059  0.0024  0.1336
 6038W        W48976   4.409   3.283  17.400 -0.3117  0.0140  0.2293
 6039W        W48977   0.840   3.125  18.426 -0.0609 -0.0574 -0.2701
 6040W        W48978   0.120   5.219  19.484  0.3676  0.2290 -0.1876
 6041W        W48979   5.127   6.157  18.328 -0.0330 -0.1578  0.3150
 6042W        W48980   1.080   4.921  17.493 -0.0491  0.0008  0.0442
 6043W        W48981   2.553   4.279  16.886  0.0582  0.2618  0.1330
 6044W        W48982   1.060   6.440  16.882  0.0168 -0.2366 -0.2204
 6045W        W48983  33.632   6.243  18.516 -0.0262  0.0505  0.2465
 6046W        W48984   3.242   4.430  17.643  0.3119 -0.1556 -0.0722
 6047W        W48985   1.416   6.170  19.720  0.0333  0.1889 -0.1297
 6048W        W48986   1.390   6.868  19.439 -0.0087  0.1536 -0.0303
 6049W        W48987   3.501   4.982  20.029  0.0519 -0.2528  0.1758
 6050W        W48988   1.033   6.013  16.490 -0.2251  0.2666 -0.0458
 6051W        W48989   4.440   5.564  16.849  0.0934  0.1651 -0.0277
 6052W        W48990   0.592   7.523  19.483 -0.5173 -0.2875  0.1045
 6053W        W48991   3.168   6.675  19.311  0.1204  0.1858 -0.0697
 6054W        W48992   2.069   6.291  19.727  0.0139 -0.1086 -0.1867
 6055W        W48993   3.905   5.793  17.758  0.0268  0.1570 -0.3854
 6056W        W48994   0.429   5.125  19.136 -0.0179  0.0973  0.0894
 6057W        W48995   0.632   6.286  16.659  0.3004  0.0306 -0.0081
 6058W        W48996   2.036   5.637  17.173 -0.0694 -0.1513 -0.2282
 6059W        W48997   1.536   5.661  18.600  0.2128 -0.0345  0.2077
 6060W        W48998   1.815   4.260  18.359 -0.1590  0.2229  0.2934
 6061W        W48999   1.773   4.000  17.298 -0.0295 -0.2975  0.4469
 6062W        W49000   0.507   7.073  19.833  0.0872  0.0751  0.1174
 6063W        W49001   2.389   7.455  17.477 -0.1695  0.1789  0.1538
 6064W        W49002   0.028   6.451  23.961 -0.2107  0.1615 -0.2533
 6065W        W49003   0.164   3.808  20.889  0.0660  0.2732  0.0383
 6066W        W49004   4.055   4.589  19.153  0.0290 -0.2406  0.1879
 6067W        W49005   3.035   5.947  20.980  0.0309 -0.0303 -0.2659
 6068W        W49006   0.888   5.121  21.884  0.0126 -0.3461  0.0458
 6069W        W49007   1.006   5.339  19.937  0.2026  0.0675  0.1377
 6070W        W49008   0.758   4.643  22.883  0.0686  0.1854  0.1465
 6071W        W49009   1.971   7.162  21.603  0.0576 -0.2823  0.1901
 6072W        W49010   2.691   7.515  20.139  0.0139  0.2885 -0.2530
 6073W        W49011   2.811   4.533  20.887 -0.2488 -0.0228 -0.2071
 6074W        W49012   0.613   5.517  23.443 -0.1266 -0.2638  0.3027
 6075W        W49013   1.415   7.057  24.341  0.0594 -0.2663 -0.2830
 6076W        W49014   2.080   3.334  20.889  0.0753 -0.1674  0.0207
 6077W        W49015   0.668   3.489  21.636 -0.1062  0.1878 -0.0341
 6078W        W49016   2.572   5.374  20.514 -0.2190 -0.0610  0.0247
 6079W        W49017  33.248   4.652  22.220  0.1495  0.2825 -0.2468
 6080W        W49018   1.077   2.784  22.396  0.0202  0.2677  0.1796
 6081W        W49019   0.609   3.543  22.185 -0.1890 -0.1253 -0.0628
 6082W        W49020   0.797   6.865  21.817 -0.0124  0.0709  0.1789
 6083W        W49021   1.471   4.090  22.519  0.1728  0.1862 -0.2339
 6084W        W49022   2.565   4.552  23.599  0.0038 -0.4459  0.0055
 6085W        W49023   1.623   5.642  21.451  0.6657 -0.0610  0.2344
 6086W        W49024  33.363   5.616  19.578 -0.4015 -0.0558 -0.0975
 6087W        W49025   0.570   3.996  21.574 -0.0562 -0.1390  0.2691
 6088W        W49026   1.065   5.643  22.651  0.1738  0.0921  0.2284
 6089W        W49027   3.030   3.166  20.404  0.1726 -0.0792  0.0997
 6090W        W49028   2.893   4.226  19.930 -0.0911 -0.0041 -0.0238
 6091W        W49029   1.760   6.756  23.311  0.1273  0.4963 -0.0575
 6092W        W49030   3.323   7.028  20.832 -0.0722 -0.0495  0.2882
 6093W        W49031   3.481   5.068  24.141 -0.0850  0.2308 -0.2704
 6094W        W49032   1.551   5.542  20.990 -0.1097 -0.2600  0.2858
 6095W        W49033  33.554   5.895  22.326  0.1982  0.2676  0.2052
 6096W        W49034   0.860   5.874  21.719 -0.1270 -0.2312  0.0893
 6097W        W49035   2.240   6.252  20.194  0.0499 -0.1125 -0.1496
 6098W        W49036   3.255   6.896  22.008  0.3102 -0.0129 -0.0560
 6099W        W49037   0.156   8.452  24.289 -0.0069  0.0689 -0.0822
 6100W        W49038   0.153   5.565  20.289  0.2659 -0.2554 -0.1917
 6101W        W49039   2.426   5.622  22.239  0.1954  0.1418 -0.0394
 6102W        W49040   1.234   7.067  23.715  0.0258  0.1325 -0.0411
 6103W        W49041   1.368   3.774  23.399 -0.1602 -0.1475 -0.0146
 6104W        W49042   2.903   5.194  22.819 -0.1812  0.0967 -0.1552
 6105W        W49043  34.653   6.254  20.220 -0.0473 -0.1492  0.0717
 6106W        W49044   1.874   5.325  21.710  0.1830 -0.0719  0.1121
 6107W        W49045   1.371   6.259  25.042 -0.2714 -0.1189 -0.3483
 6108W        W49046   1.531   6.298  23.169  0.1869 -0.2838  0.1289
 6109W        W49047   3.756   5.233  23.683  0.0131  0.0927 -0.1380
 6110W        W49048   0.683   5.858  21.124 -0.1453 -0.0231  0.1190
 6111W        W49049   1.995   4.140  19.657 -0.1029  0.1005 -0.3212
 6112W        W49050   1.701   5.805  20.550  0.1267  0.0641 -0.1032
 6113W        W49051   2.692   4.739  19.956  0.2871  0.3713  0.1107
 6114W        W49052   1.820   4.091  22.077 -0.3406  0.1238  0.0433
 6115W        W49053   1.499   8.453  22.703  0.1630 -0.2551 -0.0586
 6116W        W49054   1.863   5.112  22.988  0.4690 -0.0924 -0.1367
 6117W        W49055   2.916   5.584  22.349 -0.1870  0.1259  0.3350
 6118W        W49056   2.253   5.172  20.805 -0.1709  0.2012  0.0008
 6119W        W49057   3.298   3.671  21.964  0.2400  0.1869 -0.1867
 6120W        W49058   1.773   5.902  23.282  0.0610  0.0704  0.0101
 6121W        W49059  34.347   4.466  21.618 -0.0156  0.2617  0.1987
 6122W        W49060   2.176   7.380  19.249  0.0354  0.1648 -0.1491
 6123W        W49061   3.390   6.717  18.849 -0.5218 -0.1159 -0.3888
 6124W        W49062   1.867   7.711  19.683 -0.0401 -0.1971 -0.0531
 6125W        W49063  34.611   5.279  22.066  0.1346  0.0324 -0.2228
 6126W        W49064  33.894   5.798  23.957  0.1436  0.0278 -0.0799
 6127W        W49065  34.235   5.832  24.350  0.0308 -0.0469 -0.0738
 6128W        W49066   1.612   3.245  19.327  0.0268 -0.2102 -0.1551
 6129W        W49067   2.784   6.959  24.135  0.1906  0.1326  0.1541
 6130W        W49068  34.343   6.540  22.902 -0.0952  0.1638  0.0388
 6131W        W49069   3.812   4.711  20.261  0.3273  0.0347 -0.3794
 6132W        W49070   2.008   5.869  22.432 -0.3171  0.1201 -0.0600
 6133W        W49071   4.320   7.833  21.743  0.0174  0.0567  0.0809
 6134W        W49072   0.985   4.676  20.509  0.3535  0.0883 -0.1210
 6135W        W49073   1.324   2.519  20.692 -0.0686  0.5088 -0.2824
 6136W        W49074   2.657   2.753  23.219  0.1883  0.2369 -0.3255
 6137W        W49075   0.923   5.366  19.444 -0.0461 -0.2402  0.0404
 6138W        W49076   1.466   4.678  20.493  0.3081 -0.0996  0.2389
 6139W        W49077   4.010   6.469  21.936  0.1359  0.1128  0.1368
 6140W        W49078   2.966   5.595  19.073  0.1406 -0.3057 -0.1761
 6141W        W49079   1.135   6.373  22.595  0.3164  0.1599  0.0092
 6142W        W49080   1.347   6.187  24.233  0.1248  0.3493 -0.0003
 6143W        W49081   2.600   6.013  23.641  0.1695 -0.1346  0.0025
 6144W        W49082   1.217   5.911  20.666 -0.1382  0.3304 -0.1376
 6145W        W49083  33.856   4.525  21.947 -0.0145 -0.0442 -0.1407
 6146W        W49084   0.059   5.715  21.148 -0.0502 -0.1049  0.0764
 6147W        W49085   0.702   4.428  21.852 -0.3565  0.1290  0.1075
 6148W        W49086   1.180   5.978  22.180 -0.0170 -0.1131  0.1557
 6149W        W49087   4.664   4.527  19.659 -0.3546 -0.1072  0.0164
 6150W        W49088   0.126   5.490  23.686  0.0378 -0.0643 -0.1184
 6151W        W49089   3.625   4.015  21.861  0.0193  0.1967 -0.0740
 6152W        W49090   2.496   5.245  21.361  0.0528  0.0175 -0.3910
 6153W        W49091   2.844   7.082  20.503  0.1242 -0.0157  0.2795
 6154W        W49092   2.675   5.083  20.955  0.0693  0.2743  0.1935
 6155W        W49093   3.139   5.189  19.780 -0.2165  0.0065  0.1238
 6156W        W49094  34.395   4.625  22.082 -0.1097 -0.0940 -0.0031
 6157W        W49095   0.731   5.439  21.493  0.1732  0.0921 -0.0829
 6158W        W49096  34.184   6.359  24.233  0.0119  0.1690  0.0469
 6159W        W49097   0.007   5.415  21.508  0.0561 -0.0679 -0.0057
 6160W        W49098   2.980   6.296  23.880  0.0726  0.0226  0.3237
 6161W        W49099   0.203   2.402  21.226 -0.1825  0.0165  0.0415
 6162W        W49100   2.033   3.762  22.582 -0.1234  0.0890 -0.1101
 6163W        W49101   1.035   4.227  21.480 -0.0436 -0.2297  0.0531
 6164W        W49102   0.531   4.916  21.541  0.1050  0.1371 -0.2120
 6165W        W49103   4.251   3.972  22.873 -0.1404 -0.3164 -0.0920
 6166W        W49104   1.360   5.632  19.718 -0.1764  0.0324 -0.0579
 6167W        W49105   3.037   6.417  22.108  0.0822 -0.1794  0.0246
 6168W        W49106   4.000   6.210  20.594 -0.1049  0.1461  0.1834
 6169W        W49107   1.386   4.908  23.046 -0.0545  0.2093  0.1606
 6170W        W49108   0.898   3.346  20.817 -0.0396  0.1130 -0.0871
 6171W        W49109   0.026   6.174  21.633 -0.2652 -0.2775  0.0779
 6172W        W49110   2.286   5.787  21.828  0.0734 -0.2376  0.0322
 6173W        W49111   0.634   3.715  21.165 -0.0598 -0.1104 -0.1100
 6174W        W49112   4.904   6.537  21.743  0.1321 -0.1752  0.0474
 6175W        W49113   2.539   4.099  20.838 -0.2549 -0.3471  0.4585
 6176W        W49114   0.994   4.477  24.251 -0.0766  0.4335  0.2248
 6177W        W49115   2.497   4.090  22.906 -0.1338 -0.0379 -0.0132
 6178W        W49116   3.422   4.631  21.164 -0.2007 -0.1402  0.2294
 6179W        W49117   2.586   4.263  21.313  0.0401  0.1125 -0.1565
 6180W        W49118   1.084   2.748  21.587 -0.0470  0.1101 -0.0031
 6181W        W49119   3.294   6.430  20.848  0.3187 -0.2454 -0.0839
 6182W        W49120  32.857   7.036  20.748  0.2269  0.2938  0.2142
 6183W        W49121  34.232   4.040  22.075  0.0391 -0.2414 -0.1795
 6184W        W49122   0.797   6.305  21.989 -0.1574 -0.0930 -0.2298
 6185W        W49123   2.428   4.507  22.434  0.1353  0.1961 -0.2308
 6186W        W49124  34.577   4.966  23.558  0.2395  0.3745 -0.5046
 6187W        W49125   3.535   3.177  22.831  0.0978  0.4331 -0.1041
 6188W        W49126   0.677   3.758  20.641 -0.2582  0.4584  0.1351
 6189W        W49127   1.058   6.285  23.056  0.0716  0.0819 -0.1017
 6190W        W49128   2.720   3.772  21.213 -0.0304 -0.2864 -0.0407
 6191W        W49129   2.679   3.898  19.236  0.0228 -0.2156  0.1130
 6192W        W49130   2.235   4.999  23.874 -0.0565  0.1935  0.1403
 6193W        W49131   3.520   5.823  20.564  0.0883  0.3573  0.0929
 6194W        W49132   1.714   4.795  20.078  0.1889 -0.1278 -0.2016
 6195W        W49133   2.659   4.255  19.544  0.1622 -0.0482 -0.3181
 6196W        W49134   0.199   6.098  25.349  0.0948 -0.0238 -0.0506
 6197W        W49135   1.279   4.220  20.505 -0.0374 -0.0988 -0.0061
 6198W        W49136   1.764   4.730  21.838 -0.1216  0.0027  0.0076
 6199W        W49137   1.868   2.680  20.733  0.1018 -0.0188  0.0997
 6200W        W49138   2.906   5.520  20.109 -0.0931 -0.2139 -0.1876
 6201W        W49139   2.593   6.918  22.830  0.0568 -0.1056 -0.0343
 6202W        W49140   0.868   5.870  24.310 -0.0957  0.0874 -0.0987
 6203W        W49141   3.059   5.540  21.379 -0.3170 -0.0291  0.1817
 6204W        W49142   1.167   3.114  23.651  0.1040 -0.1083  0.5847
 6205W        W49143   0.704   5.021  19.702  0.1184 -0.0764 -0.0341
 6206W        W49144   2.681   4.811  22.058  0.1456  0.1392 -0.0226
 6207W        W49145  33.922   6.768  19.869  0.0269  0.1072  0.1392
 6208W        W49146   2.693   3.438  21.613  0.4810  0.0086  0.0771
 6209W        W49147   2.344   3.381  22.441  0.0042  0.0334 -0.0394
 6210W        W49148   3.537   4.476  22.074  0.1629  0.2320  0.0694
 6211W        W49149   4.162   5.834  22.767 -0.2155 -0.2645 -0.0703
 6212W        W49150   2.166   5.001  20.244 -0.1443  0.0490  0.1415
 6213W        W49151   2.890   5.132  21.707  0.0604 -0.2512  0.0825
 6214W        W49152   0.897   5.004  21.123 -0.0874 -0.0676 -0.3103
 6215W        W49153   3.879   3.677  24.228 -0.0804  0.0675 -0.0639
 6216W        W49154   1.819   5.803  21.948 -0.1923  0.0328  0.1811
 6217W        W49155   1.535   6.399  23.811 -0.6104  0.0377  0.1331
 6218W        W49156   3.980   6.991  20.950 -0.1760 -0.0180 -0.1929
 6219W        W49157   1.225   5.284  21.410  0.2139  0.0246  0.1234
 6220W        W49158   2.964   3.832  22.825 -0.2095  0.1747 -0.0831
 6221W        W49159   1.570   3.269  20.705 -0.2198  0.0020  0.2406
 6222W        W49160   0.786   5.626  22.213  0.1004 -0.0222 -0.2239
 6223W        W49161   1.274   5.612  21.883 -0.1108 -0.0820  0.1967
 6224W        W49162   0.599   2.934  21.718 -0.1654 -0.0107  0.1875
 6225W        W49163   1.527   6.694  22.183 -0.1305 -0.1074 -0.1970
 6226W        W49164   1.814   4.823  20.892  0.0513 -0.0165  0.0688
 6227W        W49165   2.468   5.092  23.019  0.0903 -0.1807  0.2655
 6228W        W49166  33.622   5.538  21.898  0.1210 -0.1288  0.2986
 6229W        W49167   1.626   3.369  23.224 -0.1730  0.1431  0.0010
 6230W        W49168  33.448   6.599  23.086  0.2522 -0.1777  0.2774
 6231W        W49169   2.144   3.910  20.459  0.1619 -0.0449 -0.3844
 6232W        W49170  32.472   7.121  20.446 -0.1438  0.1067  0.1968
 6233W        W49171   3.144   4.652  19.716 -0.0058  0.1294  0.1521
 6234W        W49172   3.391   5.391  20.260 -0.1377  0.1255 -0.3660
 6235W        W49173   0.284   4.939  21.970 -0.0199  0.0292  0.0583
 6236W        W49174   2.118   4.380  23.153  0.3349  0.2451 -0.1519
 6237W        W49175  34.105   6.079  23.107 -0.0525  0.2670  0.1027
 6238W        W49176   2.235   4.409  21.921  0.0858  0.2197 -0.2959
 6239W        W49177   1.675   4.249  19.164  0.2231 -0.0377  0.1015
 6240W        W49178   2.600   5.602  22.718 -0.1857  0.0864  0.1899
 6241W        W49179   1.930   5.577  22.867  0.0069 -0.1062  0.2593
 6242W        W49180   0.325   4.707  20.334  0.1865  0.0230  0.1521
 6243W        W49181   3.434   5.561  23.936 -0.0875 -0.2255  0.0556
 6244W        W49182   0.570   4.459  21.340 -0.0039 -0.0346 -0.3204
 6245W        W49183  33.896   5.918  22.689  0.2477 -0.0551 -0.2240
 6246W        W49184   3.348   6.680  22.515 -0.0947  0.0223  0.1651
 6247W        W49185   1.412   5.335  22.758 -0.1873 -0.0611  0.3534
 6248W        W49186   0.930   6.488  21.425 -0.2105  0.2207  0.3714
 6249W        W49187   0.598   4.220  23.953 -0.0390  0.0695  0.1517
 6250W        W49188   3.094   5.885  23.498  0.0977  0.1803 -0.3111
 6251W        W49189   1.023   4.773  21.573  0.1657  0.0053  0.2708
 6252W        W49190   1.496   3.574  22.724 -0.0300 -0.0694  0.3552
 6253W        W49191   0.550   5.396  22.931  0.4123 -0.0310 -0.1377
 6254W        W49192   2.312   6.688  21.977 -0.3305 -0.2259  0.1346
 6255W        W49193   1.017   4.089  22.751 -0.0864 -0.0199  0.0948
 6256W        W49194  34.440   7.150  24.033 -0.3375 -0.2190 -0.1423
 6257W        W49195   0.513   2.574  22.571  0.2087  0.1701 -0.0683
 6258W        W49196   2.736   6.652  19.644  0.2751  0.1033 -0.0495
 6259W        W49197   3.295   4.873  22.759 -0.4928 -0.1146 -0.0678
 6260W        W49198   1.203   5.487  20.420  0.2907 -0.0699  0.0080
 6261W        W49199  33.782   6.064  24.505  0.0171 -0.0548 -0.4247
 6262W        W49200   2.140   4.630  21.463  0.0202 -0.0963  0.1927
 6263W        W49201   2.580   4.586  23.072  0.2002 -0.3194  0.0346
 6264W        W49202   0.159   5.784  22.603  0.2000  0.2473  0.1002
 6265W        W49203   1.184   5.906  21.298 -0.0732  0.2044  0.0426
 6266W        W49204  33.998   6.953  22.890 -0.0174 -0.2283 -0.1540
 6267W        W49205   1.501   4.051  19.567 -0.0623 -0.0037 -0.0470
 6268W        W49206   3.427   4.939  20.500 -0.2835 -0.0094  0.2134
 6269W        W49207   0.955   3.931  21.913 -0.3716  0.2113 -0.2632
 6270W        W49208   4.549   3.639  22.580 -0.2999 -0.0770 -0.0037
 6271W        W49209   3.798   4.048  20.377 -0.0853 -0.3477  0.0195
 6272W        W49210   3.820   3.740  23.360 -0.2330  0.2605 -0.1018
 6273W        W49211   0.176   4.410  21.714 -0.0331  0.0162 -0.4971
 6274W        W49212   3.197   5.457  21.931 -0.3738  0.1320 -0.2343
 6275W        W49213   0.197   4.446  22.672  0.0228 -0.1305  0.0443
 6276W        W49214   3.684   6.934  22.809  0.3121  0.2425  0.0585
 6277W        W49215   1.130   4.418  23.161 -0.1321 -0.0091  0.1229
 6278W        W49216   1.831   3.251  22.407 -0.0797 -0.0326  0.1130
 6279W        W49217   2.097   4.070  21.037 -0.2099  0.2436  0.0558
 6280W        W49218   1.071   4.677  22.060  0.1768 -0.0235 -0.1605
 6281W        W49219   3.366   7.161  21.358  0.1912 -0.0809 -0.0849
 6282W        W49220   1.850   6.180  21.589 -0.3110 -0.1556 -0.2517
 6283W        W49221   2.704   4.423  21.743  0.0047  0.0816 -0.0640
 6284W        W49222   0.635   5.178  22.381  0.2544  0.1138 -0.1613
 6285W        W49223   3.770   4.901  20.890  0.1461 -0.2093  0.0202
 6286W        W49224   3.086   4.119  20.440  0.3707 -0.1552 -0.0639
 6287W        W49225   0.663   5.519  20.345  0.0887  0.1402  0.2581
 6288W        W49226   1.059   3.867  24.094  0.2763 -0.0905  0.1037
 6289W        W49227   2.917   6.322  21.258  0.0243 -0.0961  0.1909
 6290W        W49228   1.306   3.262  21.620  0.0230 -0.1386 -0.1504
 6291W        W49229   2.355   3.944  22.265  0.3074 -0.1288 -0.1716
 6292W        W49230   3.214   5.160  23.187  0.1573  0.0303 -0.2518
 6293W        W49231   0.928   4.376  24.951 -0.2032 -0.1584 -0.2060
 6294W        W49232   0.554   3.072  23.657 -0.3745  0.2856  0.0261
 6295W        W49233   2.422   5.902  23.083  0.3035 -0.0650 -0.0521
 6296W        W49234   2.018   4.799  18.521 -0.2671  0.1657 -0.3648
 6297W        W49235   2.794   4.155  22.432  0.1257 -0.1020  0.0457
 6298W        W49236   3.379   5.055  21.406 -0.0406 -0.1380 -0.1153
 6299W        W49237   2.872   4.767  21.332  0.0579  0.1244 -0.0816
 6300W        W49238   0.403   5.331  21.139 -0.0414  0.3615 -0.1160
 6301W        W49239   3.308   6.475  23.070 -0.1794  0.0444  0.0001
 6302W        W49240   1.242   4.471  18.556 -0.1226 -0.0577  0.1165
 6303W        W49241   1.267   5.692  24.117  0.0269 -0.0298  0.1892
 6304W        W49242   0.447   6.210  20.087 -0.0752  0.0722  0.2102
 6305W        W49243   4.073   5.792  20.842 -0.1836  0.1635  0.0405
 6306W        W49244   1.795   3.760  20.813  0.0700  0.0954  0.1937
 6307W        W49245  33.681   3.914  21.940 -0.1794 -0.1731  0.1129
 6308W        W49246  34.403   7.141  24.591 -0.2596  0.0698 -0.0689
 6309W        W49247   1.595   3.823  20.371  0.0974  0.0543  0.0643
 6310W        W49248   1.757   6.429  20.298 -0.0544  0.2218 -0.1012
 6311W        W49249   1.564   5.579  22.351  0.1456  0.0284  0.0202
 6312W        W49250   3.502   6.326  24.059  0.2456 -0.1882 -0.0261
 6313W        W49251   1.905   3.261  19.753 -0.1151 -0.2782 -0.0594
 6314W        W49252   3.449   3.949  22.884 -0.1770 -0.1286 -0.5091
 6315W        W49253  34.216   4.253  20.416 -0.0932 -0.1809 -0.0939
 6316W        W49254   2.204   2.606  21.609  0.1624  0.1434  0.2355
 6317W        W49255  34.523   6.128  22.052  0.2474  0.2144 -0.0839
 6318W        W49256  34.285   6.127  23.767 -0.1657 -0.1045  0.1020
 6319W        W49257   0.371   5.786  21.529  0.0857 -0.4327  0.0837
 6320W        W49258   3.408   4.159  23.308 -0.0965  0.0816 -0.2595
 6321W        W49259   3.214   4.845  21.950  0.0951  0.0857 -0.0027
 6322W        W49260   2.327   4.634  21.015 -0.0115  0.0738 -0.1404
 6323W        W49261   2.794   5.454  23.216 -0.1462  0.0417 -0.0140
 6324W        W49262   1.591   5.840  23.789  0.0597 -0.0188  0.0159
 6325W        W49263   2.668   5.600  20.966 -0.1266 -0.1927  0.1577
 6326W        W49264   1.681   5.007  22.508  0.0630  0.0381 -0.0062
 6327W        W49265   2.826   6.042  21.774 -0.5176 -0.0475 -0.1453
 6328W        W49266   0.610   6.124  22.496 -0.1806 -0.2999  0.1842
 6329W        W49267  34.224   4.625  23.345 -0.0704 -0.0395  0.0774
 6330W        W49268   0.281   5.740  24.497 -0.0968 -0.1449 -0.1762
 6331W        W49269   1.656   4.933  24.067 -0.0200 -0.1956  0.0830
 6332W        W49270   1.622   3.815  21.679  0.1592 -0.0025 -0.0464
 6333W        W49271   3.285   6.495  21.577 -0.2043 -0.0675  0.0489
 6334W        W49272  32.546   6.056  23.945 -0.1519  0.0326  0.1425
 6335W        W49273   0.478   5.310  24.305  0.1053  0.0046 -0.1623
 6336W        W49274  34.099   6.427  19.487  0.0025  0.0764  0.1562
 6337W        W49275   1.854   5.305  19.303 -0.0942 -0.4055 -0.1964
 6338W        W49276   1.788   5.266  20.608 -0.0116  0.1602  0.2694
 6339W        W49277   2.103   6.517  22.480  0.2159  0.0991 -0.0866
 6340W        W49278   3.169   4.983  20.923  0.0597 -0.2397 -0.2675
 6341W        W49279  34.553   7.843  20.128 -0.1040 -0.4734  0.1367
 6342W        W49280  34.236   5.603  21.061  0.0969  0.3219 -0.2749
 6343W        W49281   2.071   5.525  19.683  0.2511 -0.2881 -0.1618
 6344W        W49282   1.325   6.332  21.892  0.0890  0.3062 -0.1490
 6345W        W49283   2.219   5.805  24.577 -0.1686  0.3219  0.0630
 6346W        W49284   2.995   5.226  18.634 -0.1141 -0.1746  0.2456
 6347W        W49285   2.986   4.582  20.269 -0.1548  0.2900 -0.0206
 6348W        W49286   3.562   5.279  18.453 -0.0306  0.0769  0.0949
 6349W        W49287   3.283   6.677  23.735 -0.0649 -0.1182  0.1194
 6350W        W49288   1.956   5.128  21.276 -0.2672 -0.0419  0.1919
 6351W        W49289   0.943   3.478  20.332 -0.0335  0.0794  0.0678
 6352W        W49290   0.824   5.807  23.088  0.1977  0.0909  0.3087
 6353W        W49291   5.460   3.263  25.050 -0.0957  0.0850 -0.5556
 6354W        W49292  33.742   8.175  23.605 -0.1735 -0.0635 -0.1292
 6355W        W49293   1.434   6.507  21.244  0.1029  0.1135  0.0234
 6356W        W49294   0.035   4.128  21.392 -0.0972  0.0718  0.0974
 6357W        W49295   2.071   4.959  22.181  0.0798  0.1718 -0.0008
 6358W        W49296   3.101   2.906  22.454 -0.2629 -0.3543  0.1778
 6359W        W49297   0.853   6.801  19.602  0.1434  0.1041 -0.2349
 6360W        W49298   1.344   4.236  21.962 -0.1760  0.0511 -0.1656
 6361W        W49299   1.030   7.240  22.086  0.1974  0.1685 -0.0812
 6362W        W49300   0.407   6.014  21.979  0.3907  0.2314  0.0491
 6363W        W49301   1.266   7.593  23.663 -0.2347 -0.0570  0.1818
 6364W        W49302  33.764   4.448  20.470 -0.1256  0.3010 -0.0253
 6365W        W49303   3.302   3.668  21.121 -0.0364 -0.1135  0.0158
 6366W        W49304   1.945   5.476  23.784 -0.2347  0.1902  0.0890
 6367W        W49305   2.918   3.331  24.077 -0.0721  0.0517 -0.2207
 6368W        W49306  34.590   4.945  21.640  0.1656 -0.2434  0.1216
 6369W        W49307   3.674   4.519  21.537 -0.0358 -0.0800 -0.0035
 6370W        W49308   1.058   5.404  23.176 -0.1835 -0.0743  0.1908
 6371W        W49309  33.635   5.211  21.411 -0.1621 -0.1017  0.2243
 6372W        W49310   2.025   4.158  21.555  0.2653  0.0532  0.0156
 6373W        W49311   3.984   5.681  23.979  0.4394 -0.1140  0.1049
 6374W        W49312   1.986   5.054  19.754  0.0287 -0.3482  0.3215
 6375W        W49313   4.001   5.716  24.860 -0.1502  0.3464 -0.3066
 6376W        W49314  34.533   4.261  20.970  0.0860  0.0011  0.2100
 6377W        W49315   1.825   3.733  19.306 -0.0846  0.1224  0.1357
 6378W        W49316   1.287   5.064  20.803  0.1500  0.0614  0.1237
 6379W        W49317   2.043   4.425  23.844  0.2188  0.2494 -0.3406
 6380W        W49318   2.894   5.987  23.043  0.0469 -0.1223  0.2894
 6381W        W49319   0.515   2.435  21.661 -0.1581  0.1920  0.2443
 6382W        W49320   3.649   6.854  19.605 -0.3079  0.0759  0.1275
 6383W        W49321   3.163   4.496  21.615  0.3559 -0.0235  0.4075
 6384W        W49322   0.536   7.069  19.290  0.0162 -0.3806 -0.1374
 6385W        W49323   2.422   5.191  21.916 -0.3163  0.0880 -0.0307
 6386W        W49324   2.961   7.341  20.987 -0.2123 -0.1089 -0.0225
 6387W        W49325   0.575   4.712  20.827 -0.0053  0.1536  0.1251
 6388W        W49326   2.487   6.235  22.157  0.1782  0.0542  0.0183
 6389W        W49327   4.818   6.070  21.511  0.0724  0.0086  0.4968
 6390W        W49328   2.058   2.735  20.251  0.0897 -0.3888  0.2018
 6391W        W49329   1.719   4.603  22.839  0.1512 -0.1931 -0.0557
 6392W        W49330  33.861   5.728  21.466 -0.0710  0.3057 -0.1965
 6393W        W49331   3.822   3.980  22.587 -0.1106  0.1922  0.0271
 6394W        W49332   2.531   3.246  21.148  0.1156 -0.2440  0.2100
 6395W        W49333   1.143   6.412  18.856  0.3122 -0.4557  0.1113
 6396W        W49334   4.267   5.312  23.574 -0.0241 -0.1171  0.1649
 6397W        W49335   1.026   5.635  23.683 -0.1470  0.0083 -0.0017
 6398W        W49336   0.685   6.713  23.819  0.1059 -0.2160 -0.4732
 6399W        W49337  34.016   3.148  21.693 -0.1979  0.1948  0.0023
 6400W        W49338   0.006   5.759  24.076 -0.3445 -0.0013 -0.0808
 6401W        W49339   2.479   6.119  22.629  0.1223  0.0527 -0.2356
 6402W        W49340   2.418   6.299  21.660 -0.1393  0.4502 -0.2792
 6403W        W49341   3.504   6.394  21.999 -0.1596 -0.0059  0.0445
 6404W        W49342   1.757   4.241  20.670  0.1232  0.3867 -0.0962
 6405W        W49343   3.708   7.389  21.006  0.0047 -0.0555  0.0042
 6406W        W49344   1.416   2.895  21.975  0.1432 -0.0779 -0.0071
 6407W        W49345   2.837   3.716  19.789 -0.1693  0.1120  0.0259
 6408W        W49346   3.534   4.089  21.301  0.0008  0.0487  0.2470
 6409W        W49347  34.477   7.056  22.705 -0.1509  0.1561  0.3041
 6410W        W49348  33.308   5.133  19.244  0.0359 -0.1688  0.2560
 6411W        W49349  34.310   6.649  20.255 -0.0272 -0.0431  0.1439
 6412W        W49350   0.430   5.405  21.926  0.0899 -0.3306  0.1117
 6413W        W49351   1.389   4.655  23.509  0.0753 -0.0419 -0.0949
 6414W        W49352   0.513   4.044  22.049  0.0704  0.0181 -0.2066
 6415W        W49353  34.616   6.076  22.956 -0.0268 -0.0419  0.0166
 6416W        W49354  33.004   3.876  22.367  0.1147 -0.0953  0.1793
 6417W        W49355   2.059   5.925  19.357 -0.0331  0.0971 -0.1019
 6418W        W49356   0.978   3.540  23.540 -0.2659 -0.0589 -0.4581
 6419W        W49357  33.655   3.923  21.208 -0.2858  0.0852 -0.1760
 6420W        W49358   3.115   5.575  20.618 -0.0072 -0.0332 -0.0721
 6421W        W49359   1.857   5.919  19.999 -0.2300  0.0252  0.0422
 6422W        W49360   1.524   3.907  21.228 -0.3255  0.3551 -0.4820
 6423W        W49361   4.579   6.596  22.332  0.0000 -0.0238  0.1043
 6424W        W49362  34.580   5.023  20.354  0.0110  0.1760 -0.1065
 6425W        W49363   1.950   5.384  24.687  0.0602 -0.0548 -0.1999
 6426W        W49364   3.089   4.310  23.737  0.0284 -0.0649  0.0835
 6427W        W49365   0.014   4.257  19.677  0.0627 -0.0836  0.3322
 6428W        W49366   3.084   5.075  22.337  0.1911 -0.0285 -0.0148
 6429W        W49367   3.009   4.109  21.045 -0.1873 -0.0502 -0.0416
 6430W        W49368   2.248   6.726  19.831  0.2851 -0.0180 -0.0995
 6431W        W49369   2.010   6.573  23.681  0.0832 -0.2039 -0.2383
 6432W        W49370   0.203   6.752  22.989 -0.1215 -0.0563  0.1097
 6433W        W49371  34.305   5.510  23.822 -0.2456 -0.0984 -0.1329
 6434W        W49372   3.219   5.989  21.574 -0.0481 -0.1352 -0.0116
 6435W        W49373   1.572   5.428  23.255  0.0894 -0.3435  0.1004
 6436W        W49374   3.456   5.417  21.012  0.1127  0.3503  0.0882
 6437W        W49375   3.062   3.937  21.560  0.1360  0.0628 -0.1644
 6438W        W49376   1.523   4.346  21.453 -0.0648  0.1571  0.1699
 6439W        W49377   0.133   4.074  23.797  0.1097 -0.1533  0.0878
 6440W        W49378   0.124   6.003  23.634 -0.0602  0.2272 -0.0992
 6441W        W49379   3.628   5.586  21.614 -0.2219 -0.0605 -0.0409
 6442W        W49380  34.327   3.641  21.457  0.0164 -0.1396 -0.2685
 6443W        W49381   2.179   4.850  22.717  0.3494  0.0014  0.2853
 6444W        W49382   2.772   6.692  21.787  0.0160 -0.2147  0.0100
 6445W        W49383   1.225   5.124  22.307 -0.2652  0.2549 -0.4755
 6446W        W49384   2.786   4.739  22.638  0.3804 -0.4034  0.0423
 6447W        W49385   3.122   4.567  22.365  0.1046  0.0598 -0.2958
 6448W        W49386   2.141   5.338  22.510 -0.3612  0.3076 -0.2840
 6449W        W49387   3.442   5.543  23.424  0.1041  0.0376 -0.4071
 6450W        W49388   1.022   4.018  21.002  0.2717  0.0307 -0.1380
 6451W        W49389   2.985   5.089  20.412 -0.0316  0.2164 -0.0359
 6452W        W49390   2.424   7.217  21.753 -0.0354  0.1523 -0.2005
 6453W        W49391   2.068   7.644  23.251  0.0415 -0.1009 -0.0684
 6454W        W49392   2.930   6.691  23.389 -0.0319  0.2446  0.0338
 6455W        W49393   4.272   4.793  21.097 -0.1106 -0.1404 -0.2139
 6456W        W49394   0.955   5.107  22.784 -0.0663  0.0801  0.1085
 6457W        W49395   0.124   4.157  20.497  0.0772  0.1650  0.2689
 6458W        W49396   1.460   5.120  21.820  0.1659 -0.0393 -0.0422
 6459W        W49397   3.941   3.597  22.857  0.0516 -0.0796  0.0550
 6460W        W49398   2.177   4.853  23.296 -0.2545  0.2010 -0.1267
 6461W        W49399   3.209   4.549  19.229  0.3614  0.2079  0.2007
 6462W        W49400   2.290   6.958  23.460 -0.2132 -0.1638  0.0706
 6463W        W49401   1.751   5.884  24.409  0.2510  0.0543 -0.1529
 6464W        W49402   1.132   5.006  26.202  0.0469  0.1090 -0.1137
 6465W        W49403   0.275   4.592  25.541 -0.3269  0.0807 -0.1584
 6466W        W49404   3.069   4.837  24.603  0.0667  0.0976 -0.1557
 6467W        W49405   4.375   5.215  25.146 -0.1653  0.0539 -0.0105
 6468W        W49406   0.526   3.972  24.678 -0.0593 -0.0403  0.4240
 6469W        W49407   2.481   6.681  25.353 -0.0627  0.0167  0.0236
 6470W        W49408   0.811   3.667  26.207 -0.1980  0.2157  0.0320
 6471W        W49409   3.824   5.889  25.954  0.0994 -0.2639  0.0833
 6472W        W49410   3.062   7.556  25.844  0.1531 -0.1726 -0.2680
 6473W        W49411   2.613   5.147  22.392  0.1882  0.2013  0.1212
 6474W        W49412   2.458   6.116  25.842 -0.0690 -0.1072  0.1149
 6475W        W49413   1.638   5.851  24.898 -0.0189  0.2543  0.0425
 6476W        W49414   1.421   3.634  23.923 -0.0487 -0.0758 -0.0752
 6477W        W49415   0.295   3.069  25.790 -0.1201  0.1109 -0.1423
 6478W        W49416   3.334   5.827  26.288  0.3550  0.5030 -0.1090
 6479W        W49417  34.569   5.879  25.777  0.0721 -0.1838  0.2215
 6480W        W49418   0.974   3.257  27.708  0.3110  0.0411  0.0242
 6481W        W49419   1.381   4.587  24.501  0.3416  0.2639 -0.2718
 6482W        W49420   1.767   7.690  24.916 -0.0983  0.2931  0.1678
 6483W        W49421   1.415   3.329  26.925 -0.1038  0.4793  0.1777
 6484W        W49422   3.112   4.262  26.421 -0.2183 -0.1086  0.2277
 6485W        W49423   0.991   6.203  24.725  0.0705  0.0393 -0.1637
 6486W        W49424  34.591   4.213  23.053 -0.0270 -0.1021 -0.0382
 6487W        W49425   2.097   4.689  25.449 -0.1146  0.0349  0.0130
 6488W        W49426   1.729   6.230  25.958  0.1297  0.0002 -0.0865
 6489W        W49427   3.231   5.021  26.517  0.4669 -0.0473 -0.1945
 6490W        W49428   2.288   5.811  24.046  0.0998 -0.2287 -0.0975
 6491W        W49429   2.443   6.508  26.424  0.1889 -0.1187  0.1409
 6492W        W49430   3.117   7.762  25.289 -0.0850 -0.0485 -0.0447
 6493W        W49431   2.705   3.825  27.109  0.1659 -0.0102 -0.2501
 6494W        W49432  34.106   6.973  25.493 -0.2186  0.3608  0.2790
 6495W        W49433  33.913   7.798  25.862  0.1098 -0.2271  0.3268
 6496W        W49434   1.427   5.201  25.389 -0.0100 -0.1218 -0.0345
 6497W        W49435   3.718   5.642  25.269 -0.0109 -0.0831 -0.0834
 6498W        W49436   2.646   7.566  25.060 -0.1408 -0.0419 -0.2805
 6499W        W49437   1.174   7.032  27.083 -0.1850  0.2674 -0.0755
 6500W        W49438   0.110   6.352  24.892 -0.0220  0.2029 -0.1799
 6501W        W49439   3.761   7.027  27.032  0.2272  0.1137 -0.2139
 6502W        W49440   1.565   7.191  26.781 -0.0435  0.1699 -0.2279
 6503W        W49441   2.305   5.037  26.210 -0.2652  0.2090  0.0771
 6504W        W49442   3.165   3.654  25.264  0.1370 -0.1557 -0.1758
 6505W        W49443   2.544   5.721  24.979 -0.0841  0.1866 -0.1679
 6506W        W49444   1.466   6.667  26.475  0.0566 -0.2507  0.1140
 6507W        W49445   2.255   5.052  26.707  0.0183  0.0249 -0.3094
 6508W        W49446   0.366   6.521  26.105 -0.0621  0.0129  0.1480
 6509W        W49447   4.028   4.954  27.814  0.1929  0.0988  0.1403
 6510W        W49448   0.855   6.960  24.456  0.0113 -0.0411 -0.1665
 6511W        W49449   1.532   3.901  24.373  0.1418  0.1417  0.0920
 6512W        W49450   1.741   5.033  23.555  0.0729 -0.0408  0.0851
 6513W        W49451   2.624   5.467  23.751  0.1459  0.1951 -0.1985
 6514W        W49452   1.430   3.613  24.963  0.0341 -0.2454 -0.0093
 6515W        W49453   2.197   7.577  25.765 -0.2623 -0.1563 -0.0879
 6516W        W49454   1.744   4.310  25.182  0.1171 -0.1262  0.1118
 6517W        W49455   3.543   5.958  26.965 -0.0623 -0.2879 -0.1613
 6518W        W49456   2.876   5.853  25.790  0.1122 -0.1220  0.1443
 6519W        W49457   4.092   3.919  25.297 -0.2447  0.1084  0.3833
 6520W        W49458   0.477   5.181  26.224 -0.0963  0.1079  0.1177
 6521W        W49459   1.237   4.934  24.842  0.0403 -0.0617 -0.0663
 6522W        W49460   3.650   6.442  23.427 -0.2186  0.0723  0.2070
 6523W        W49461   2.225   6.190  25.058 -0.0367  0.1077  0.0075
 6524W        W49462   1.803   6.700  24.282 -0.1370  0.0967  0.0949
 6525W        W49463   0.508   5.675  25.314  0.1352 -0.3572 -0.0370
 6526W        W49464  34.369   5.369  27.210 -0.0859 -0.0472 -0.0341
 6527W        W49465   0.562   4.082  27.965 -0.0154 -0.4472 -0.3499
 6528W        W49466   1.689   3.361  24.550 -0.4177 -0.2672 -0.1807
 6529W        W49467   4.122   6.303  27.490 -0.1607 -0.0481 -0.1219
 6530W        W49468   0.370   6.763  27.467  0.3798 -0.0803 -0.1896
 6531W        W49469   3.551   3.146  25.607 -0.2537  0.0049  0.1114
 6532W        W49470   2.484   5.766  25.494 -0.3212 -0.0824 -0.1476
 6533W        W49471   3.403   7.079  25.809 -0.0657 -0.0275  0.1490
 6534W        W49472   3.183   5.627  22.854  0.0021 -0.0137 -0.0523
 6535W        W49473   3.958   3.920  25.847 -0.3980  0.0556  0.1379
 6536W        W49474   4.589   3.961  26.008  0.1234  0.0871 -0.1479
 6537W        W49475   1.466   4.193  24.775  0.0047  0.0268  0.3215
 6538W        W49476   1.206   5.719  24.604  0.4068  0.2496  0.2575
 6539W        W49477   4.643   6.472  26.474  0.2315  0.0869 -0.2173
 6540W        W49478   3.669   5.471  24.409 -0.0684  0.0078 -0.0357
 6541W        W49479  34.384   5.389  26.686  0.2005  0.1533  0.0042
 6542W        W49480   3.144   3.242  26.555  0.3125 -0.0796 -0.4097
 6543W        W49481   0.935   6.584  26.436 -0.2156 -0.2723 -0.2785
 6544W        W49482   0.292   6.458  23.427 -0.2345 -0.1229 -0.1099
 6545W        W49483   0.562   6.551  25.617  0.0370  0.0722  0.0068
 6546W        W49484   0.852   6.469  24.303  0.2824  0.2067 -0.0036
 6547W        W49485   1.077   3.929  25.161  0.2347 -0.1665 -0.1806
 6548W        W49486   1.138   4.675  25.788  0.4854 -0.1339  0.1504
 6549W        W49487   3.044   4.260  24.708  0.2711 -0.0647  0.2303
 6550W        W49488   0.280   4.536  27.836  0.2672 -0.1781 -0.1074
 6551W        W49489   4.585   3.158  25.578  0.1528 -0.0373  0.1373
 6552W        W49490   0.908   5.337  25.123  0.0986 -0.1623 -0.1324
 6553W        W49491   3.291   7.143  22.398  0.0779 -0.0163 -0.0279
 6554W        W49492   3.093   5.251  23.729 -0.3623  0.1793  0.1803
 6555W        W49493  34.468   5.789  23.415 -0.0950  0.2865  0.2919
 6556W        W49494  33.804   4.100  26.590  0.0795 -0.2034 -0.0626
 6557W        W49495   1.235   3.174  25.325  0.0250  0.0489 -0.5309
 6558W        W49496   0.674   4.450  27.359  0.5075 -0.1156  0.0161
 6559W        W49497   0.003   3.350  26.091 -0.0872 -0.2514 -0.0129
 6560W        W49498   2.521   4.339  26.311 -0.0531 -0.1654 -0.1278
 6561W        W49499   0.775   3.134  25.092  0.0472 -0.0230 -0.1544
 6562W        W49500   2.638   3.326  23.583 -0.1102  0.1069 -0.5507
 6563W        W49501   1.751   5.441  24.218 -0.2543  0.1056 -0.2030
 6564W        W49502  34.179   6.873  24.968  0.0244 -0.3534 -0.0430
 6565W        W49503   2.956   3.385  27.086  0.2451  0.0955  0.3983
 6566W        W49504   1.724   6.650  25.237 -0.3521 -0.0986 -0.2784
 6567W        W49505   3.856   7.080  25.617 -0.2000 -0.0943  0.3298
 6568W        W49506   2.538   6.528  24.865 -0.0566  0.1145 -0.1409
 6569W        W49507   1.451   5.444  26.300  0.0067  0.1044 -0.2966
 6570W        W49508  34.468   4.529  24.872  0.1125  0.1035  0.1312
 6571W        W49509   0.379   7.411  25.584 -0.2161 -0.2818 -0.1716
 6572W        W49510   2.529   6.943  26.844 -0.1612 -0.0277 -0.2882
 6573W        W49511   0.458   5.020  25.288  0.1359  0.0364  0.1577
 6574W        W49512   2.751   6.964  25.050  0.1951  0.2313 -0.0684
 6575W        W49513   0.980   6.384  25.899 -0.2263  0.1598 -0.0432
 6576W        W49514   1.557   4.649  26.129 -0.2898 -0.0397 -0.5737
 6577W        W49515   3.281   2.949  26.972  0.1156  0.1831 -0.1604
 6578W        W49516   3.282   6.278  27.190  0.2047  0.0551  0.1585
 6579W        W49517   4.426   4.417  26.508 -0.0832  0.0910  0.2155
 6580W        W49518   0.572   3.749  23.793  0.1843  0.0416  0.1900
 6581W        W49519   1.275   8.454  25.920  0.2677  0.2871  0.0956
 6582W        W49520   1.609   6.905  24.832  0.2593  0.2993  0.1463
 6583W        W49521  32.312   5.369  25.565 -0.0402 -0.1209  0.0807
 6584W        W49522   1.476   8.059  24.616 -0.3536  0.1514 -0.1469
 6585W        W49523   3.183   3.925  25.714 -0.0053  0.0700 -0.1886
 6586W        W49524  34.468   5.397  27.672  0.1844 -0.2402  0.0146
 6587W        W49525   1.955   4.532  26.510  0.3696  0.0185 -0.2334
 6588W        W49526  33.898   4.368  24.183  0.1286  0.1644 -0.1622
 6589W        W49527   1.018   5.743  26.412 -0.4170  0.1080  0.1072
 6590W        W49528   5.005   2.476  24.909  0.3084  0.2444  0.1854
 6591W        W49529   3.654   4.224  25.444  0.3314  0.1377  0.0329
 6592W        W49530   1.199   3.977  26.646  0.0541  0.0088  0.2397
 6593W        W49531   2.455   6.428  23.322  0.3218 -0.3927  0.0316
 6594W        W49532   3.068   4.682  23.302  0.0466 -0.0819 -0.0511
 6595W        W49533   3.920   4.745  23.932 -0.1492 -0.3182 -0.0226
 6596W        W49534   1.081   3.248  26.596 -0.2347 -0.2166  0.0294
 6597W        W49535   2.471   5.644  26.045 -0.1280  0.0853  0.0519
 6598W        W49536   3.164   5.382  26.157  0.0267  0.0139  0.0516
 6599W        W49537   2.610   4.896  24.195 -0.0189  0.0716 -0.1077
 6600W        W49538   2.867   6.520  24.433 -0.1102  0.2203  0.1496
 6601W        W49539   1.314   3.744  26.201  0.0229  0.1220  0.0483
 6602W        W49540   1.684   5.856  26.375 -0.1571  0.0379 -0.0798
 6603W        W49541   3.054   7.206  25.488 -0.1693 -0.1135 -0.0398
 6604W        W49542   1.789   3.833  26.126  0.0409 -0.0334 -0.2543
 6605W        W49543  34.345   6.189  22.504 -0.1739 -0.1118  0.0579
 6606W        W49544   0.360   3.280  25.380  0.2557  0.2175  0.0734
 6607W        W49545  33.552   7.244  23.587 -0.0537  0.2088  0.2199
 6608W        W49546   1.416   4.108  25.780 -0.2382 -0.1844  0.1067
 6609W        W49547   2.994   3.184  25.434 -0.2820 -0.0318 -0.0667
 6610W        W49548   1.259   3.413  28.525 -0.0211  0.3849 -0.0402
 6611W        W49549   2.841   6.416  26.950  0.0246  0.1672 -0.2586
 6612W        W49550   3.011   5.205  24.270 -0.0602  0.1215 -0.1818
 6613W        W49551   3.161   6.207  26.622 -0.2316  0.1203  0.3623
 6614W        W49552   0.642   4.805  24.281 -0.2711  0.0297  0.0096
 6615W        W49553   2.810   4.055  26.027  0.3332 -0.4390  0.0692
 6616W        W49554   1.296   4.722  26.553  0.2088 -0.1474 -0.0801
 6617W        W49555   0.823   6.881  26.792 -0.1346 -0.2687  0.1472
 6618W        W49556   3.209   6.298  29.472  0.0424 -0.1840 -0.2616
 6619W        W49557   3.204   6.099  25.340  0.0277  0.0720  0.1050
 6620W        W49558   2.083   5.486  26.320 -0.4510 -0.2327 -0.1757
 6621W        W49559   0.636   3.656  22.793 -0.2582 -0.1107  0.1696
 6622W        W49560   3.095   5.827  24.905  0.0622  0.3315 -0.0100
 6623W        W49561   0.223   7.156  24.490 -0.1967  0.1082  0.0379
 6624W        W49562   1.713   4.831  25.096  0.2904 -0.3467 -0.3217
 6625W        W49563   2.833   7.145  27.177 -0.2257  0.0314  0.0667
 6626W        W49564   1.237   6.810  23.245  0.0260  0.2874  0.0794
 6627W        W49565   1.782   4.911  26.853 -0.0860  0.0544  0.0085
 6628W        W49566   0.928   6.126  23.904 -0.0092 -0.0689  0.0852
 6629W        W49567   3.771   3.118  24.586  0.2141  0.0405 -0.1534
 6630W        W49568   0.865   6.493  25.247 -0.1641  0.1961  0.0920
 6631W        W49569  34.323   4.453  23.856 -0.2301  0.0409 -0.1153
 6632W        W49570   0.958   5.523  25.587  0.2521  0.1508 -0.1498
 6633W        W49571   3.677   3.650  25.554  0.1680 -0.2034  0.1965
 6634W        W49572   4.187   5.627  25.427 -0.2122  0.0704 -0.3722
 6635W        W49573   0.819   4.478  26.850 -0.0821  0.1462 -0.0511
 6636W        W49574   3.748   4.715  25.454 -0.0941 -0.1038  0.0716
 6637W        W49575   0.500   5.831  27.084 -0.0627  0.1366 -0.0797
 6638W        W49576   1.724   4.790  27.407 -0.1328  0.1788 -0.0358
 6639W        W49577   2.057   4.966  24.402  0.5363  0.2677  0.3535
 6640W        W49578   3.484   5.457  26.714 -0.3405 -0.5241  0.1910
 6641W        W49579   1.099   5.347  27.328 -0.2958  0.0598  0.1005
 6642W        W49580   0.411   6.693  25.160 -0.0315  0.1197 -0.0763
 6643W        W49581   3.554   5.048  26.980  0.1284 -0.1282 -0.0237
 6644W        W49582   2.127   4.679  24.825  0.1156  0.0419 -0.1617
 6645W        W49583   0.769   7.593  25.251 -0.0760  0.1100  0.0204
 6646W        W49584   1.913   7.458  26.440 -0.0829 -0.1486  0.1747
 6647W        W49585   0.699   4.906  24.829  0.0112 -0.1480  0.0754
 6648W        W49586  34.190   6.979  27.062 -0.2570  0.0037 -0.1560
 6649W        W49587   1.822   5.473  26.794 -0.1035 -0.1869 -0.1754
 6650W        W49588   2.918   5.888  27.209 -0.2140  0.0620 -0.1394
 6651W        W49589   2.572   4.363  24.851 -0.0026 -0.0824 -0.1278
 6652W        W49590   0.302   5.559  25.770  0.1461 -0.3477 -0.1427
 6653W        W49591   1.962   4.880  25.890 -0.0595  0.0963  0.2546
 6654W        W49592   2.718   5.131  26.555  0.1693 -0.1514  0.0478
 6655W        W49593   3.067   5.313  27.026  0.0753 -0.1429 -0.1673
 6656W        W49594   1.334   6.469  27.892  0.0646  0.3725  0.4283
 6657W        W49595   3.022   3.583  24.781  0.0962 -0.1160  0.0203
 6658W        W49596   4.523   6.648  23.398  0.0927 -0.0865 -0.3660
 6659W        W49597   2.363   5.573  26.676  0.1249  0.0654 -0.0461
 6660W        W49598   0.766   6.648  24.799 -0.3405 -0.0455  0.0012
 6661W        W49599   0.411   6.693  26.615 -0.0316  0.0301  0.3862
 6662W        W49600   0.109   5.156  25.640  0.0732  0.2143 -0.0762
 6663W        W49601   3.478   5.415  24.857  0.3326 -0.0872 -0.0277
 6664W        W49602   0.772   6.026  25.562  0.0765  0.1834 -0.1526
 6665W        W49603   0.454   6.200  24.069  0.1494 -0.2471 -0.0497
 6666W        W49604  34.290   5.098  26.250 -0.0525 -0.1638  0.1492
 6667W        W49605   5.054   3.140  24.771  0.0211  0.0153 -0.0649
 6668W        W49606   2.941   5.739  23.933 -0.1154  0.0950 -0.0399
 6669W        W49607   1.038   4.051  24.591  0.3424 -0.0901  0.3034
 6670W        W49608   4.439   4.215  27.470  0.1503 -0.1588  0.0548
 6671W        W49609   3.197   4.554  24.155  0.1034  0.2539 -0.0375
 6672W        W49610   3.069   4.161  27.952  0.0587 -0.1231  0.1911
 6673W        W49611   0.295   3.519  27.027  0.0033  0.0415 -0.1977
 6674W        W49612   3.460   5.667  25.736  0.0571  0.1436  0.1335
 6675W        W49613   1.399   3.827  27.145 -0.2822  0.0256 -0.0967
 6676W        W49614   2.451   7.301  27.476  0.1407 -0.0680 -0.0480
 6677W        W49615   1.321   5.184  26.746 -0.2427  0.1153  0.0640
 6678W        W49616   2.499   3.703  24.073  0.0672  0.0678 -0.3163
 6679W        W49617   2.515   4.019  24.462  0.0443 -0.3208  0.0235
 6680W        W49618   2.099   6.369  25.568 -0.4455  0.2296  0.0219
 6681W        W49619   3.552   6.954  26.452 -0.1580  0.1990 -0.0135
 6682W        W49620   2.569   6.564  23.829  0.0628 -0.1940  0.1114
 6683W        W49621   2.597   5.264  25.296  0.3794  0.0954 -0.2294
 6684W        W49622   1.642   4.561  25.601 -0.2129 -0.2556 -0.1122
 6685W        W49623   2.638   5.048  23.500 -0.2629 -0.1517  0.0376
 6686W        W49624   2.255   5.407  23.385  0.0208  0.0281  0.0028
 6687W        W49625   2.031   4.126  25.582 -0.1237  0.0729 -0.0696
 6688W        W49626   2.158   4.263  28.725  0.3537 -0.0030 -0.0180
 6689W        W49627   3.655   6.053  25.545  0.1290  0.2940  0.2778
 6690W        W49628   2.168   3.058  24.535  0.1399 -0.2849 -0.0773
 6691W        W49629   4.025   3.668  26.302 -0.4423 -0.1056 -0.0351
 6692W        W49630   2.565   4.259  26.857  0.1820  0.2482 -0.2371
 6693W        W49631   2.123   5.132  27.213  0.1641 -0.1079  0.0333
 6694W        W49632   0.715   3.734  26.735  0.0991  0.1245 -0.1087
 6695W        W49633   1.733   6.623  26.933  0.0513 -0.2482 -0.4042
 6696W        W49634   3.881   4.191  23.208 -0.0014  0.3517  0.0094
 6697W        W49635   3.988   4.173  26.441 -0.0681  0.1215 -0.2280
 6698W        W49636   3.876   5.388  25.770  0.0093  0.0652 -0.1723
 6699W        W49637   2.136   3.661  24.470  0.0480  0.1057  0.2860
 6700W        W49638   0.495   3.872  27.234 -0.1746 -0.3817 -0.0778
 6701W        W49639   2.889   5.702  28.296 -0.2384  0.1293 -0.0822
 6702W        W49640   1.933   3.527  23.994  0.2540 -0.0675  0.4118
 6703W        W49641   2.144   3.604  26.415  0.1145 -0.1302  0.0237
 6704W        W49642   1.298   5.898  23.343 -0.4024  0.0298 -0.3271
 6705W        W49643   2.086   6.899  25.512  0.1444  0.0022  0.0490
 6706W        W49644   4.293   4.524  26.055  0.1436 -0.2130 -0.0507
 6707W        W49645   0.149   4.817  24.561 -0.4400 -0.0844  0.1765
 6708W        W49646   0.839   7.552  26.390  0.0390 -0.2958  0.1894
 6709W        W49647   1.106   4.906  24.060  0.0857  0.2065  0.1691
 6710W        W49648   0.599   5.126  23.823 -0.1138  0.0382 -0.0634
 6711W        W49649   3.031   5.722  26.759  0.1702 -0.0231  0.0282
 6712W        W49650   3.111   6.209  29.006 -0.1475  0.1184  0.2545
 6713W        W49651   2.288   4.479  24.382 -0.1435 -0.1602  0.2088
 6714W        W49652   4.296   3.329  25.150 -0.3392  0.1099  0.3922
 6715W        W49653   0.020   5.706  24.937 -0.5567  0.1790  0.0262
 6716W        W49654   3.374   4.117  25.013  0.0533  0.3346  0.0037
 6717W        W49655   0.587   7.805  25.899  0.0600 -0.2242 -0.1915
 6718W        W49656   0.887   3.540  25.405  0.0848 -0.2767  0.1770
 6719W        W49657   1.537   5.746  25.378 -0.0244  0.2957  0.2119
 6720W        W49658   2.125   4.109  26.637  0.0002  0.1292 -0.2555
 6721W        W49659   2.921   4.929  25.521  0.0001  0.0089  0.4250
 6722W        W49660   3.700   6.213  26.409 -0.2197 -0.2690 -0.0200
 6723W        W49661   2.632   5.089  27.101  0.1504  0.3139  0.0089
 6724W        W49662   2.326   6.500  27.631 -0.0209  0.1166 -0.4645
 6725W        W49663   1.966   5.231  25.203  0.1847  0.1765  0.2421
 6726W        W49664   3.515   6.909  25.243 -0.0513 -0.0504 -0.1643
 6727W        W49665   3.258   4.610  25.532  0.0525 -0.1907 -0.1723
 6728W        W49666   2.539   4.815  25.167  0.3723  0.0877  0.0051
 6729W        W49667  34.282   3.653  28.784  0.0377  0.0575  0.2685
 6730W        W49668   2.668   5.462  27.459 -0.1370 -0.0934  0.0824
 6731W        W49669   2.830   5.859  26.295 -0.0518  0.0341 -0.2020
 6732W        W49670   1.401   3.579  25.749  0.1244  0.1305  0.3771
 6733W        W49671   1.565   5.096  24.522  0.1261 -0.0604  0.2592
 6734W        W49672   0.494   6.516  27.961  0.4296 -0.2400 -0.0758
 6735W        W49673   1.388   6.281  25.585  0.2825 -0.2879  0.0601
 6736W        W49674   0.982   7.802  24.499 -0.2019  0.0108  0.1445
 6737W        W49675   3.375   5.080  25.743  0.0302 -0.0084 -0.0241
 6738W        W49676   4.268   6.064  24.586  0.0693 -0.0985 -0.0092
 6739W        W49677   4.254   8.178  26.426  0.1175  0.0800 -0.1018
 6740W        W49678   1.990   4.198  24.679  0.0520 -0.3242  0.3213
 6741W        W49679   1.046   4.858  25.291 -0.1528 -0.0620  0.0588
 6742W        W49680  33.997   7.078  23.628  0.3111  0.0266 -0.0596
 6743W        W49681   3.297   5.792  24.368  0.0125  0.0761  0.0730
 6744W        W49682   1.616   7.136  25.595 -0.1429 -0.0395  0.1162
 6745W        W49683   4.551   7.030  27.510 -0.0958  0.4712 -0.1483
 6746W        W49684   4.825   4.798  24.307  0.1903  0.0085  0.1024
 6747W        W49685   4.841   5.406  25.324 -0.1436  0.0086  0.0092
 6748W        W49686   3.550   4.389  22.581 -0.1895  0.2247  0.0583
 6749W        W49687   1.276   6.220  26.313 -0.2180 -0.1449 -0.3686
 6750W        W49688   2.434   4.932  25.713  0.0297  0.0500 -0.0638
 6751W        W49689   1.228   3.480  24.416 -0.2206 -0.3024  0.1743
 6752W        W49690   2.539   6.088  26.753 -0.0058 -0.2113  0.0723
 6753W        W49691   3.590   3.325  26.941 -0.0215 -0.1054 -0.4374
 6754W        W49692   1.343   7.686  27.312 -0.1581 -0.0506  0.1421
 6755W        W49693   2.130   6.677  22.957  0.1092 -0.1480 -0.1144
 6756W        W49694   0.044   4.283  24.222 -0.1141 -0.1137  0.0521
 6757W        W49695   3.328   4.755  26.088 -0.0091  0.1294  0.1332
 6758W        W49696   2.526   3.896  25.519 -0.0489 -0.0460  0.2709
 6759W        W49697   1.205   6.824  25.113  0.0292  0.1186 -0.0618
 6760W        W49698   3.688   4.435  25.930 -0.1510 -0.0968 -0.2079
 6761W        W49699   1.006   7.315  24.806 -0.2123  0.3708  0.2317
 6762W        W49700   2.474   6.685  25.847 -0.0908 -0.0489 -0.4508
 6763W        W49701   0.734   5.742  26.008  0.1658  0.0812  0.0151
 6764W        W49702  34.663   4.470  23.456  0.0726 -0.0974 -0.0065
 6765W        W49703   3.550   4.562  26.551 -0.0929 -0.1829 -0.4138
 6766W        W49704   1.282   5.877  25.882  0.0608 -0.0180 -0.2908
 6767W        W49705   4.256   4.009  28.021 -0.0149  0.2625 -0.2497
 6768W        W49706   1.842   3.834  25.060  0.2078 -0.1799  0.1261
 6769W        W49707   3.463   4.790  23.638  0.3866  0.4092  0.0809
 6770W        W49708   2.881   4.538  25.938  0.0328  0.1133 -0.1238
 6771W        W49709   1.495   5.001  25.842  0.1591 -0.0351  0.1113
 6772W        W49710   0.388   3.698  23.336  0.3347 -0.1752  0.0957
 6773W        W49711   3.543   6.358  27.767 -0.0531  0.0434  0.3524
 6774W        W49712   1.727   4.381  24.245  0.1200 -0.0074  0.2200
 6775W        W49713   3.381   7.652  27.471 -0.0087 -0.1476 -0.4293
 6776W        W49714   0.456   4.509  25.033  0.1072  0.3195 -0.0633
 6777W        W49715   2.571   4.826  24.680  0.1739  0.3274  0.0488
 6778W        W49716   2.008   5.732  25.280  0.1466 -0.0139 -0.1419
 6779W        W49717   0.712   3.234  26.923  0.3316 -0.1855  0.0735
 6780W        W49718   2.739   8.582  26.089  0.0496 -0.3137  0.2973
 6781W        W49719   0.639   2.687  25.485 -0.4983 -0.4999 -0.0413
 6782W        W49720   3.958   5.591  23.299 -0.0770  0.0767 -0.0916
 6783W        W49721   3.347   6.137  25.891  0.0779  0.0256  0.0408
 6784W        W49722   1.440   7.510  24.546 -0.1207 -0.0204 -0.1411
 6785W        W49723   3.518   6.443  25.082  0.1287  0.1481 -0.0614
 6786W        W49724   2.932   6.359  25.650  0.3814 -0.1289  0.1848
 6787W        W49725   1.634   5.546  25.794  0.2361  0.0848  0.0487
 6788W        W49726   3.005   6.695  26.551 -0.1503 -0.2866  0.0977
 6789W        W49727   4.720   6.001  26.124 -0.0262 -0.0663  0.4583
 6790W        W49728   3.326   3.245  25.022 -0.0341  0.1540  0.0634
 6791W        W49729   2.763   5.372  25.752  0.2474  0.3553  0.3301
 6792W        W49730   0.564   7.540  24.252  0.1890 -0.1053 -0.0977
 6793W        W49731   2.804   4.645  26.644 -0.3191  0.0289 -0.1437
 6794W        W49732   4.043   4.661  26.880  0.0997  0.1390  0.1006
 6795W        W49733   1.498   5.828  22.856 -0.1890  0.1158  0.2207
 6796W        W49734   4.321   4.160  26.914 -0.1383 -0.0207  0.0402
 6797W        W49735   1.167   6.732  25.601 -0.0072  0.2833  0.0410
 6798W        W49736   2.082   7.473  27.866 -0.2818 -0.1927 -0.1759
 6799W        W49737   0.994   5.188  24.480 -0.1565 -0.0306 -0.0270
 6800W        W49738   2.044   5.951  26.818  0.0861  0.1474 -0.3892
 6801W        W49739   2.027   5.859  25.763 -0.1398  0.1639 -0.2261
 6802W        W49740   2.040   6.721  24.798  0.3550  0.0740  0.1100
 6803W        W49741   3.983   6.601  26.736  0.2795 -0.2569 -0.2413
 6804W        W49742   2.042   4.008  24.152  0.0146 -0.1036 -0.0459
 6805W        W49743   2.253   6.890  23.966 -0.1743  0.0782  0.2011
 6806W        W49744   1.940   3.426  25.890 -0.0581 -0.1339 -0.0428
 6807W        W49745   4.999   3.891  23.864 -0.0865 -0.4713  0.3972
 6808W        W49746   3.463   4.960  25.061 -0.1744 -0.3576 -0.2126
 6809W        W49747   2.190   6.078  26.247 -0.0127 -0.1684 -0.2533
 6810W        W49748  33.639   6.597  24.821  0.1991 -0.1417  0.3531
 6811W        W49749   0.703   5.691  24.744 -0.2028 -0.1987 -0.1963
 6812W        W49750   2.196   5.391  25.683 -0.1329  0.1207  0.0498
 6813W        W49751   2.452   3.998  27.705  0.3107 -0.1972  0.1685
 6814W        W49752   1.163   4.849  27.084 -0.0194  0.0010 -0.0837
 6815W        W49753   1.448   5.395  24.927  0.0818  0.1180 -0.0604
 6816W        W49754   0.479   4.433  24.554  0.2894  0.0242 -0.0577
 6817W        W49755   2.979   6.951  24.630  0.4911  0.0125 -0.3860
 6818W        W49756   0.551   3.402  27.414 -0.1140 -0.1719  0.1279
 6819W        W49757   0.491   3.617  25.065 -0.3350  0.2480 -0.1309
 6820W        W49758   2.450   7.201  25.503 -0.1454 -0.0589  0.2278
 6821W        W49759   1.750   6.951  23.850  0.1226  0.0396 -0.0191
 6822W        W49760   2.272   4.284  25.203 -0.4599 -0.4453 -0.0158
 6823W        W49761   4.345   6.290  27.038  0.2302 -0.1611 -0.3590
 6824W        W49762   0.367   5.341  24.848  0.0034  0.0915 -0.0107
 6825W        W49763   2.288   4.134  27.235  0.1489  0.2910 -0.2632
 6826W        W49764   1.649   4.186  26.404  0.1472 -0.2206 -0.1431
 6827W        W49765  34.654   5.315  24.586  0.5639 -0.2430  0.2511
 6828W        W49766   1.868   6.355  26.456 -0.1716  0.4261  0.1169
 6829W        W49767   2.720   6.220  25.199 -0.0304  0.1776 -0.0393
 6830W        W49768   3.293   6.913  24.233  0.0148  0.0803 -0.0842
 6831W        W49769   1.476   6.675  25.982 -0.0309  0.0224 -0.0947
 6832W        W49770   1.651   7.670  27.728 -0.1001 -0.1575  0.5864
 6833W        W49771  34.084   2.645  26.156 -0.0851 -0.2110 -0.0053
 6834W        W49772   2.641   5.994  24.320  0.0882 -0.1284 -0.1953
 6835W        W49773   2.943   6.842  25.833  0.1500  0.2825  0.0867
 6836W        W49774   3.888   6.540  24.621 -0.0893 -0.0651  0.0440
 6837W        W49775   3.947   5.603  26.962  0.5044 -0.0606  0.1004
 6838W        W49776   2.466   5.387  24.273 -0.0354  0.0675  0.0013
 6839W        W49777  34.416   2.952  28.811  0.3260  0.0456 -0.1244
 6840W        W49778   2.282   6.977  27.954  0.0491  0.2470  0.1580
 6841W        W49779   4.438   3.835  24.874 -0.1276 -0.0849  0.4051
 6842W        W49780   0.921   3.886  25.755  0.0133 -0.1617 -0.2398
 6843W        W49781   2.772   4.455  24.377 -0.0583 -0.3374 -0.1922
 6844W        W49782   1.183   6.705  24.117 -0.0495  0.1502 -0.3251
 6845W        W49783   2.403   3.846  24.945  0.0876  0.0721 -0.0137
 6846W        W49784   3.128   5.533  25.414 -0.0745 -0.1712  0.4255
 6847W        W49785   1.913   4.367  26.001 -0.2416  0.2428 -0.1216
 6848W        W49786   3.017   6.639  25.291  0.2093  0.3653 -0.0450
 6849W        W49787   2.622   6.159  28.208  0.1706  0.2242  0.2031
 6850W        W49788   0.863   3.926  23.183 -0.1645 -0.0216 -0.1378
 6851W        W49789   4.626   5.297  24.672  0.2679  0.1606 -0.2211
 6852W        W49790   1.528   8.072  26.128 -0.1642 -0.0447 -0.1736
 6853W        W49791   4.149   7.950  27.348  0.0190  0.0256 -0.0181
 6854W        W49792   1.208   6.597  26.910  0.0227  0.0489 -0.0330
 6855W        W49793   3.384   7.553  26.573 -0.1536 -0.0881 -0.1473
 6856W        W49794   1.075   2.664  27.037 -0.0669 -0.0031 -0.2536
 6857W        W49795   0.757   4.537  25.461 -0.0122 -0.1105 -0.1017
 6858W        W49796   2.449   4.413  25.745  0.0455 -0.0867  0.1501
 6859W        W49797   3.120   4.238  26.890  0.0439 -0.0310 -0.1221
 6860W        W49798   2.558   3.520  26.089  0.0499 -0.4232 -0.2133
 6861W        W49799   1.427   4.143  23.789 -0.1510 -0.0659  0.0989
 6862W        W49800   2.315   7.237  24.896  0.1594  0.0123  0.1352
 6863W        W49801   2.876   6.316  27.588  0.2300 -0.1494  0.0274
 6864W        W49802   1.295   7.483  31.388  0.1414 -0.0766 -0.2768
 6865W        W49803   1.713   4.086  28.556  0.2558  0.1099  0.0889
 6866W        W49804   2.603   4.561  27.263 -0.0029  0.1162  0.1650
 6867W        W49805   3.546   5.365  28.717 -0.1675  0.0981 -0.0013
 6868W        W49806  34.573   4.509  28.378  0.1436 -0.2047  0.0705
 6869W        W49807   3.935   8.361  28.084 -0.1736 -0.0112  0.2844
 6870W        W49808   1.318   5.351  30.033 -0.0866 -0.1130  0.0070
 6871W        W49809   3.013   8.675  29.239  0.4500  0.0338  0.0708
 6872W        W49810   2.803   7.805  31.361  0.2253  0.1263  0.0874
 6873W        W49811   3.107   5.631  28.878  0.6197 -0.1103 -0.0882
 6874W        W49812   2.637   3.832  30.842  0.5270 -0.0246  0.1122
 6875W        W49813   1.754   7.154  29.243 -0.3401  0.0683  0.1984
 6876W        W49814   1.896   4.214  29.678 -0.1724 -0.0639 -0.1613
 6877W        W49815   0.868   4.929  27.517  0.2842  0.1781 -0.1165
 6878W        W49816   2.491   5.657  30.203  0.0950 -0.4485 -0.2550
 6879W        W49817  34.649   4.877  28.031  0.1474 -0.0352  0.2138
 6880W        W49818   2.366   5.105  30.150  0.0702 -0.3325  0.0869
 6881W        W49819   2.633   4.203  30.468 -0.1138 -0.2699  0.0184
 6882W        W49820   2.826   7.638  27.364 -0.0599  0.0231  0.2580
 6883W        W49821   2.203   4.777  30.494  0.2000 -0.1528  0.1848
 6884W        W49822   1.467   4.065  30.825  0.1959 -0.3725 -0.0663
 6885W        W49823   3.325   5.811  28.496 -0.0900  0.1519  0.0230
 6886W        W49824   0.936   6.708  27.428 -0.1106 -0.1043 -0.0124
 6887W        W49825   1.048   5.828  29.931 -0.0046 -0.0183  0.1896
 6888W        W49826   1.650   5.709  29.815  0.2317 -0.1262 -0.2088
 6889W        W49827   1.821   4.068  31.207  0.0059 -0.0560  0.2446
 6890W        W49828   4.156   7.592  30.528  0.0519  0.1952  0.0579
 6891W        W49829   2.361   7.694  29.514 -0.1462  0.2677 -0.0692
 6892W        W49830   2.861   7.033  28.777  0.1140 -0.0641 -0.2490
 6893W        W49831   3.649   5.445  31.354 -0.1294  0.1226  0.1747
 6894W        W49832   0.867   6.112  29.401 -0.1760  0.3789 -0.0051
 6895W        W49833  34.139   6.386  28.704 -0.0166  0.1598 -0.0080
 6896W        W49834   1.907   6.055  27.890  0.2244  0.1371 -0.0219
 6897W        W49835   4.286   6.899  29.971  0.2164  0.1066  0.3191
 6898W        W49836   3.737   7.642  30.299 -0.1656  0.1649  0.2494
 6899W        W49837   1.188   6.479  30.958  0.3086  0.0217  0.0125
 6900W        W49838   1.480   6.096  27.609 -0.0230  0.0909 -0.0789
 6901W        W49839   1.248   8.087  29.024  0.2498  0.0789 -0.1559
 6902W        W49840   1.163   7.464  30.857  0.0558 -0.1141 -0.3670
 6903W        W49841   2.246   6.270  29.671  0.0446  0.0692  0.3414
 6904W        W49842   2.012   3.882  30.002 -0.3941 -0.2080 -0.0502
 6905W        W49843   2.526   8.465  29.406  0.1562  0.1565  0.1661
 6906W        W49844   3.058   6.692  29.105 -0.1057  0.0094 -0.0925
 6907W        W49845   2.133   6.176  29.136 -0.1623  0.4043 -0.1357
 6908W        W49846  34.183   6.791  29.572 -0.0384 -0.0301 -0.0639
 6909W        W49847   3.190   5.802  29.574 -0.1788 -0.3547 -0.1107
 6910W        W49848   2.241   8.585  28.981  0.0428 -0.3393  0.0094
 6911W        W49849   3.217   4.529  27.518  0.0812 -0.0844 -0.2118
 6912W        W49850   2.404   5.692  27.135  0.2583  0.0822  0.1169
 6913W        W49851   3.868   4.157  27.149  0.0792 -0.1150  0.2074
 6914W        W49852   2.009   5.000  29.358 -0.0489 -0.0219  0.1016
 6915W        W49853   1.688   6.848  29.710 -0.3150  0.2432 -0.1067
 6916W        W49854   2.593   4.028   0.114 -0.2496 -0.2736 -0.1920
 6917W        W49855   2.864   5.485  29.284  0.0280 -0.1640 -0.0162
 6918W        W49856   2.437   5.250  29.077 -0.1348  0.1572  0.2342
 6919W        W49857   2.886   4.256  30.997  0.0211 -0.1011 -0.0108
 6920W        W49858   1.680   6.385  30.777 -0.1029 -0.3351  0.4234
 6921W        W49859   2.473   5.406  28.608  0.0531  0.2993 -0.0015
 6922W        W49860   4.136   6.474  28.997 -0.1167 -0.0266 -0.0776
 6923W        W49861   3.127   6.573  28.180  0.3990  0.0407  0.1582
 6924W        W49862   3.800   6.485  27.156 -0.0327  0.1247  0.2909
 6925W        W49863   2.087   5.208  28.326  0.0938 -0.1873  0.0158
 6926W        W49864   0.338   6.473  30.958 -0.0538  0.0781  0.0226
 6927W        W49865   0.396   6.000  31.159  0.1578  0.2245 -0.1237
 6928W        W49866   1.683   3.638  28.393 -0.1544 -0.1581 -0.1177
 6929W        W49867   2.874   6.782  31.612  0.2418  0.3037 -0.0157
 6930W        W49868   0.015   6.750   0.846 -0.1134  0.0592 -0.0453
 6931W        W49869   4.744   5.801  29.468 -0.0440  0.2012  0.2618
 6932W        W49870   1.655   4.561  28.926  0.2999  0.0438  0.0069
 6933W        W49871   3.624   7.174  29.511 -0.0810  0.0023  0.0330
 6934W        W49872   3.078   6.122  28.047 -0.1195 -0.0115 -0.0821
 6935W        W49873   3.737   3.886  29.903 -0.0674 -0.0666 -0.0208
 6936W        W49874   4.539   4.741  29.636 -0.1778  0.3897 -0.0534
 6937W        W49875   1.384   6.028  28.212  0.0902  0.1280 -0.1498
 6938W        W49876   1.872   5.450  28.743  0.3241 -0.4359 -0.2015
 6939W        W49877   4.617   7.838  30.206 -0.1195  0.0468 -0.3352
 6940W        W49878   3.654   5.335  28.228 -0.0582 -0.1094 -0.2524
 6941W        W49879  34.609   6.919  29.005  0.0252  0.1696  0.1837
 6942W        W49880   1.796   3.203  31.282 -0.2423 -0.4587  0.1675
 6943W        W49881   0.170   7.597  31.468 -0.0319 -0.0971 -0.3255
 6944W        W49882   1.578   8.111  27.120 -0.0432  0.0686  0.3508
 6945W        W49883   0.519   5.924  27.990 -0.1105  0.0883  0.1206
 6946W        W49884   1.127   7.111  28.474  0.1721 -0.0392  0.1390
 6947W        W49885   0.341   4.355  31.287  0.1610 -0.1306  0.0188
 6948W        W49886   2.492   6.169  30.177  0.1979  0.0689 -0.0707
 6949W        W49887   2.465   4.874  29.465 -0.1424 -0.0638  0.0621
 6950W        W49888   1.893   5.472  29.330 -0.1779  0.1682 -0.2636
 6951W        W49889   2.718   3.964  29.980 -0.0187  0.1233  0.1432
 6952W        W49890   0.851   5.898  28.372 -0.2290  0.0795 -0.3484
 6953W        W49891   3.981   7.469  28.599  0.0005 -0.1699 -0.1458
 6954W        W49892   3.152   4.558  28.224  0.0126  0.0144 -0.0250
 6955W        W49893   4.032   7.265  28.148 -0.1886  0.0839 -0.0842
 6956W        W49894   0.847   5.788  30.415  0.1905 -0.0418 -0.1948
 6957W        W49895   1.077   4.431  29.947 -0.1974  0.1885  0.2808
 6958W        W49896   0.908   5.323  30.359 -0.0776  0.1715  0.1131
 6959W        W49897  34.271   4.140  29.142  0.0599 -0.2249  0.0832
 6960W        W49898   2.577   6.541  30.702 -0.2756  0.2222  0.1743
 6961W        W49899   0.663   3.362  29.286 -0.0173  0.1826 -0.1411
 6962W        W49900   3.487   4.880  28.443 -0.2057 -0.1154  0.0431
 6963W        W49901   2.101   4.912  28.786 -0.0510 -0.0171  0.2518
 6964W        W49902   0.799   6.212  28.870 -0.6139 -0.3578 -0.0892
 6965W        W49903   2.903   3.783  31.297  0.1854 -0.3762  0.1550
 6966W        W49904   2.484   7.552  26.996  0.0770 -0.1814 -0.3397
 6967W        W49905   3.396   5.884  31.321 -0.0619 -0.2809 -0.3909
 6968W        W49906   3.765   8.085  29.181 -0.0791  0.2141 -0.1786
 6969W        W49907   0.398   5.285  30.619  0.2042  0.2226  0.1754
 6970W        W49908   2.674   3.138  27.788 -0.1527 -0.0325 -0.2365
 6971W        W49909   1.473   7.019  30.105  0.1851  0.3340 -0.2538
 6972W        W49910   0.519   6.520  29.694 -0.0864  0.1602 -0.0041
 6973W        W49911   1.819   5.795  27.239  0.0480  0.0298 -0.0076
 6974W        W49912   3.313   7.305  28.560 -0.0908  0.1027  0.2293
 6975W        W49913   2.493   6.443  28.884 -0.0941 -0.0637 -0.4718
 6976W        W49914   2.046   5.922  29.990  0.0103  0.1915 -0.0402
 6977W        W49915   5.056   3.245  30.737 -0.1911 -0.0656 -0.2130
 6978W        W49916   4.279   5.993  30.414  0.1013 -0.1192  0.0718
 6979W        W49917   2.697   5.937  29.179 -0.0544 -0.1048  0.1494
 6980W        W49918   0.020   3.626  28.589 -0.2550  0.0864  0.0923
 6981W        W49919   3.380   8.526  28.328 -0.1872 -0.2177 -0.1657
 6982W        W49920   1.813   7.063  27.824 -0.3492 -0.0731  0.0622
 6983W        W49921   1.252   4.422  28.593  0.1673  0.1050  0.0103
 6984W        W49922   1.354   7.819  30.187  0.3782 -0.1042  0.2087
 6985W        W49923   3.308   4.100  28.485 -0.1232 -0.1765 -0.0504
 6986W        W49924  33.982   5.865  31.861 -0.0328 -0.3522 -0.0195
 6987W        W49925   3.298   4.947  30.442 -0.0697  0.1063  0.1180
 6988W        W49926   0.845   4.437  29.448 -0.0408 -0.0882  0.2663
 6989W        W49927   1.067   8.331  30.557  0.1187 -0.1435 -0.2198
 6990W        W49928   2.423   4.311  29.577  0.1296  0.2034 -0.1415
 6991W        W49929   3.440   4.857  27.906 -0.1157  0.2354  0.1773
 6992W        W49930   1.771   3.818  30.463  0.0342  0.0514 -0.0446
 6993W        W49931   2.277   5.723  28.987  0.0535 -0.3257  0.0137
 6994W        W49932   3.487   5.500  27.189  0.0193  0.2430 -0.0999
 6995W        W49933   3.198   5.194  27.587  0.2247  0.2301  0.1720
 6996W        W49934   0.115   6.793  30.119 -0.0146 -0.2150  0.0910
 6997W        W49935   2.089   7.478  29.141  0.0581  0.0297  0.0222
 6998W        W49936   3.345   5.356  29.193  0.1041 -0.1796 -0.1021
 6999W        W49937   1.794   5.042  26.378 -0.2785  0.0760 -0.2695
 7000W        W49938   4.386   6.008  27.844  0.0675  0.1696  0.4537
 7001W        W49939   0.151   5.692  30.045  0.0612 -0.0646 -0.2946
 7002W        W49940   2.107   5.420  29.865  0.1088  0.0123  0.0657
 7003W        W49941   2.667   6.605  28.023  0.0150  0.2673 -0.0859
 7004W        W49942   2.345   3.830  29.642 -0.2819 -0.0396 -0.1719
 7005W        W49943   2.502   6.160  27.326 -0.0167  0.1131  0.1790
 7006W        W49944   2.726   4.564  27.970  0.2076 -0.0308 -0.4166
 7007W        W49945  33.804   8.088  26.814  0.1433  0.3845  0.1563
 7008W        W49946   3.722   2.253  29.707  0.0704  0.1005  0.0079
 7009W        W49947   3.939   4.659  29.491  0.2398 -0.0492  0.1503
 7010W        W49948   3.092   3.979  30.664 -0.2508  0.0227 -0.0018
 7011W        W49949   4.650   5.442  31.681 -0.1001 -0.4034  0.0323
 7012W        W49950   4.254   5.439  27.620 -0.0250 -0.0420  0.1098
 7013W        W49951   3.298   6.249  30.943  0.0804  0.2895 -0.0923
 7014W        W49952   1.304   4.419  27.337 -0.7034 -0.0540  0.0337
 7015W        W49953   2.410   3.548  30.090  0.0194 -0.0504  0.2950
 7016W        W49954   0.965   6.365  29.816  0.1470  0.0090 -0.0332
 7017W        W49955  34.533   6.584  30.920 -0.3029 -0.0168  0.0449
 7018W        W49956   2.567   5.680  30.777 -0.0930  0.1346  0.0932
 7019W        W49957   2.470   7.236  28.473 -0.0589 -0.1566  0.0711
 7020W        W49958   1.367   3.473  30.437 -0.2950 -0.3089 -0.0757
 7021W        W49959   1.905   4.824  27.889 -0.1127 -0.1659  0.0859
 7022W        W49960   2.053   6.871  26.516 -0.3676 -0.2854  0.1442
 7023W        W49961   2.457   6.762  28.461  0.2240  0.1434 -0.0721
 7024W        W49962   2.361   4.296  30.078 -0.2700 -0.1243 -0.0543
 7025W        W49963   2.268   6.755  31.443  0.2715 -0.0177 -0.1136
 7026W        W49964   1.387   5.673  26.756  0.0443  0.0945 -0.2562
 7027W        W49965   2.110   6.491  30.438  0.1447  0.1478 -0.2015
 7028W        W49966  34.310   7.644  27.845  0.0863  0.4116  0.4973
 7029W        W49967   4.232   3.497  28.999  0.0052 -0.2525  0.1231
 7030W        W49968   0.568   7.573  29.408 -0.0348  0.1703 -0.0099
 7031W        W49969   0.944   4.085  27.111 -0.0150  0.0475  0.0512
 7032W        W49970   0.794   4.570  27.848  0.0396 -0.4042 -0.1480
 7033W        W49971   2.783   5.823  27.748 -0.0250  0.0070 -0.0837
 7034W        W49972   4.921   5.008  27.146  0.1004 -0.1090 -0.0219
 7035W        W49973   1.791   4.090  29.090 -0.0470  0.2821 -0.3870
 7036W        W49974   3.007   4.816  31.013  0.0992  0.2967  0.0468
 7037W        W49975   1.069   7.987  28.568 -0.1290  0.0140  0.0513
 7038W        W49976   1.310   5.748  30.355 -0.0852 -0.1630  0.2344
 7039W        W49977   3.125   4.799  27.071 -0.0269 -0.2393  0.3221
 7040W        W49978   2.213   6.743  29.591  0.1815 -0.0287  0.1259
 7041W        W49979   2.079   6.240  31.604  0.1136 -0.1482  0.0680
 7042W        W49980   1.349   3.502  28.005 -0.0628  0.3013 -0.2053
 7043W        W49981   3.837   5.081   0.506  0.3132 -0.1315  0.0691
 7044W        W49982   1.654   5.838  29.123  0.0615 -0.0085 -0.0097
 7045W        W49983   1.018   6.738  28.821  0.1257 -0.0868  0.1680
 7046W        W49984   1.762   7.852  28.983 -0.1922 -0.0490 -0.5822
 7047W        W49985   1.604   5.136  28.168  0.3581  0.0333  0.0864
 7048W        W49986   1.861   6.554  27.823  0.0682  0.1185 -0.0396
 7049W        W49987   1.322   4.663  30.858  0.4548  0.2097  0.4069
 7050W        W49988   2.952   5.055  29.503  0.0555 -0.3113  0.1449
 7051W        W49989   3.608   6.591  30.957 -0.1031  0.2538  0.0281
 7052W        W49990   1.372   4.054  28.123 -0.0040  0.2208 -0.1364
 7053W        W49991   2.520   4.687  28.881 -0.0916 -0.1112 -0.0381
 7054W        W49992   3.350   6.771  29.515  0.0080  0.0690  0.1726
 7055W        W49993   2.576   4.817  31.301  0.2291 -0.2733  0.0510
 7056W        W49994   1.647   6.106  30.242 -0.0508 -0.1769 -0.1051
 7057W        W49995   3.272   3.422  30.083 -0.0938  0.3056  0.1661
 7058W        W49996   4.330   7.476  27.317 -0.0726  0.2244  0.0179
 7059W        W49997   3.336   5.858  30.573  0.1890  0.0952 -0.1001
 7060W        W49998   1.517   6.896  28.216  0.3252 -0.0419  0.1355
 7061W        W49999   0.393   5.526  29.629  0.0276  0.0886 -0.4768
 7062W        W50000   1.086   6.254  27.248 -0.4229 -0.1648 -0.2055
 7063W        W50001   2.190   3.591  30.557 -0.2589 -0.3042 -0.1562
 7064W        W50002   1.164   6.203  30.293 -0.0653 -0.2325  0.1276
 7065W        W50003   2.581   7.381  27.967  0.0382  0.1762  0.2218
 7066W        W50004   2.376   6.684  30.057 -0.1242  0.1004  0.2341
 7067W        W50005   3.481   3.824  27.767 -0.0980  0.1144  0.0620
 7068W        W50006   3.275   6.787  28.593 -0.2895 -0.5562 -0.4872
 7069W        W50007   2.782   4.745  30.410 -0.1415 -0.3140 -0.1100
 7070W        W50008   3.356   3.988  31.082  0.1624  0.2032 -0.2251
 7071W        W50009   2.547   6.754  27.276  0.0069  0.0801 -0.0045
 7072W        W50010   3.477   3.591  31.976 -0.0779 -0.1303  0.2642
 7073W        W50011   1.310   4.869  30.261 -0.0571 -0.0524 -0.2466
 7074W        W50012   3.939   6.439  28.498  0.0839 -0.1167  0.0093
 7075W        W50013   0.822   5.189  31.113 -0.1028  0.4089 -0.0561
 7076W        W50014   2.195   6.862   0.843  0.1865 -0.1623  0.4548
 7077W        W50015  34.327   5.486  31.829 -0.1883 -0.0217  0.1032
 7078W        W50016   2.707   4.834  28.463  0.1169 -0.0455 -0.2060
 7079W        W50017   2.244   4.494  27.631 -0.1082 -0.0481 -0.2500
 7080W        W50018   1.338   5.980  29.546  0.3105  0.0619 -0.1278
 7081W        W50019   3.483   7.109  29.001 -0.2262 -0.3360 -0.1199
 7082W        W50020   1.536   6.834  28.766 -0.2901 -0.2436 -0.0623
 7083W        W50021   3.402   5.402  30.205  0.2481  0.1787 -0.1275
 7084W        W50022   1.900   4.453  30.211  0.2004 -0.0173  0.3166
 7085W        W50023   2.767   5.996  29.786  0.1144  0.0383  0.1123
 7086W        W50024   3.013   7.102  28.127 -0.1403 -0.0367  0.1332
 7087W        W50025   1.650   6.415  29.337 -0.1661 -0.1426 -0.4688
 7088W        W50026   2.670   3.394  31.091  0.0071  0.0660 -0.1131
 7089W        W50027   2.376   7.259  30.040  0.0651 -0.0109  0.2345
 7090W        W50028   2.293   6.077  28.589 -0.4231 -0.0586 -0.1072
 7091W        W50029   1.810   3.392  30.230  0.0401  0.4147  0.0855
 7092W        W50030   1.336   5.127  31.018  0.3073 -0.0698 -0.0851
 7093W        W50031   2.542   4.520   0.005  0.1317 -0.0128  0.0137
 7094W        W50032   1.135   4.087  31.806 -0.0136 -0.0122 -0.1593
 7095W        W50033   3.574   8.020  30.055  0.1880  0.0964 -0.0385
 7096W        W50034   3.861   5.894  27.613 -0.0177  0.2853 -0.4210
 7097W        W50035   3.662   4.538  30.417  0.1526  0.0934 -0.0450
 7098W        W50036   3.999   6.048  29.205  0.1063 -0.2001  0.4386
 7099W        W50037   2.635   5.290  28.067  0.2278  0.3251 -0.0533
 7100W        W50038   1.204   4.932  29.635 -0.2078 -0.3746  0.0503
 7101W        W50039   3.554   4.862  30.911  0.1180  0.0845 -0.2920
 7102W        W50040   1.637   4.408  27.724 -0.0903 -0.3539 -0.1386
 7103W        W50041   3.358   5.296  30.795 -0.1403 -0.0662  0.1603
 7104W        W50042   2.032   6.968  27.327 -0.0006 -0.2163  0.1226
 7105W        W50043   2.984   7.155  29.281 -0.1240 -0.0035  0.0810
 7106W        W50044   3.223   5.532  27.951 -0.1921 -0.1022  0.2255
 7107W        W50045   0.577   4.559  29.930 -0.0210  0.1180  0.1304
 7108W        W50046  34.210   8.084  30.981 -0.0878  0.1400  0.3167
 7109W        W50047   1.807   4.206  27.304 -0.1739  0.0058  0.1234
 7110W        W50048   2.161   5.799  28.206  0.0034 -0.0722  0.0152
 7111W        W50049   2.041   8.123  28.616  0.2022 -0.2453 -0.0020
 7112W        W50050   3.381   6.364  30.460 -0.1948  0.0287  0.1535
 7113W        W50051   1.730   4.645  28.347  0.2691  0.0143  0.1999
 7114W        W50052   4.382   5.525  30.616  0.2658 -0.4435  0.1442
 7115W        W50053   2.173   6.425  28.210 -0.0027  0.0231 -0.0005
 7116W        W50054   2.041   3.276  29.017 -0.0323  0.2025 -0.0741
 7117W        W50055   0.976   5.444  29.648  0.0141 -0.2003  0.2669
 7118W        W50056   1.095   5.532  30.830 -0.1149 -0.0262  0.0736
 7119W        W50057   0.801   8.307  28.992  0.0633  0.0556 -0.2097
 7120W        W50058   3.175   4.446  30.224  0.2840  0.1108  0.2220
 7121W        W50059   3.909   5.557  29.044  0.0137 -0.0549 -0.0684
 7122W        W50060   2.295   5.151  27.751 -0.0949 -0.0613 -0.1045
 7123W        W50061   4.903   5.565  30.667 -0.0539 -0.1501 -0.1295
 7124W        W50062   1.640   5.675  30.710  0.2091  0.0749 -0.1823
 7125W        W50063   0.819   5.483  28.791 -0.2066 -0.1171  0.1905
 7126W        W50064   3.546   7.528  29.844 -0.1499  0.1013 -0.1297
 7127W        W50065   4.042   6.358  27.982  0.2534 -0.0451 -0.1017
 7128W        W50066   1.975   6.866  28.415 -0.0460 -0.1435 -0.0190
 7129W        W50067   0.436   4.732   0.025 -0.1446 -0.2695 -0.0450
 7130W        W50068   3.279   6.049   0.104  0.2035 -0.2076 -0.5158
 7131W        W50069   2.693   6.489  29.400 -0.0816 -0.1738  0.2814
 7132W        W50070   1.356   5.100  27.691  0.2530 -0.1554 -0.1680
 7133W        W50071   2.797   7.840  28.024 -0.1378  0.4212  0.2371
 7134W        W50072   0.483   7.563  30.365  0.1667  0.1860 -0.2325
 7135W        W50073   1.744   5.575  30.256 -0.0354  0.1898 -0.2295
 7136W        W50074   1.255   7.540  28.620 -0.2718 -0.3301  0.0979
 7137W        W50075   2.768   6.035  28.714 -0.0379 -0.3343 -0.5940
 7138W        W50076   2.291   5.667  27.696 -0.3224  0.0094  0.0090
 7139W        W50077   3.204   7.955  28.971 -0.2070  0.3606 -0.0559
 7140W        W50078   2.889   2.971  27.361  0.0172 -0.0038  0.1294
 7141W        W50079   1.957   6.478  29.982  0.2393 -0.2318  0.1521
 7142W        W50080   1.950   6.280  27.254  0.3014 -0.2486  0.0185
 7143W        W50081   3.497   6.266  28.444  0.1427 -0.0025  0.4363
 7144W        W50082   0.321   6.149  28.741  0.2144 -0.1225 -0.1682
 7145W        W50083   3.053   5.722  30.946  0.0467 -0.0905 -0.5014
 7146W        W50084   2.888   3.877  28.796 -0.0847  0.0139  0.0408
 7147W        W50085   3.654   6.365  29.662  0.0123 -0.1279  0.1005
 7148W        W50086   3.647   5.035  29.931 -0.1063  0.2699  0.1055
 7149W        W50087   3.460   6.999  31.502 -0.1982  0.0866 -0.2398
 7150W        W50088   0.395   6.013  30.490  0.2504 -0.0608  0.1942
 7151W        W50089   1.611   3.408  26.440  0.0372  0.4917 -0.2253
 7152W        W50090   1.784   5.079  30.801  0.4025  0.0443  0.2035
 7153W        W50091   4.903   2.789  30.958 -0.3713  0.0096  0.1570
 7154W        W50092  34.492   6.759  31.431 -0.0239  0.2268  0.0228
 7155W        W50093   2.171   7.070  26.051  0.2034 -0.0850 -0.0377
 7156W        W50094   1.491   3.926  27.608  0.1395 -0.1287 -0.0195
 7157W        W50095   0.588   5.544  31.458  0.0256 -0.2094 -0.1768
 7158W        W50096   4.211   4.340  29.763 -0.0242  0.2654 -0.2486
 7159W        W50097   3.053   7.506  28.923  0.0999  0.0323 -0.2342
 7160W        W50098   3.429   4.986  31.393 -0.2419  0.2391  0.2239
 7161W        W50099   0.077   7.229  29.341 -0.1105  0.1957 -0.1763
 7162W        W50100   1.482   7.277  29.630  0.2358  0.1109 -0.1407
 7163W        W50101   1.781   5.898  28.556 -0.1165  0.4116  0.2191
 7164W        W50102   1.460   4.069  29.485  0.2379  0.0785 -0.1068
 7165W        W50103   5.002   5.409  29.883 -0.0259 -0.1224 -0.2473
 7166W        W50104   2.587   5.133  30.617 -0.0189 -0.1104  0.0331
 7167W        W50105   3.703   3.561  30.443  0.1029  0.2259  0.1455
 7168W        W50106   2.226   4.684  28.322  0.1732 -0.0414  0.0048
 7169W        W50107   2.920   3.670  27.631 -0.2219  0.2070  0.1291
 7170W        W50108   2.055   5.965  30.568  0.0085 -0.0678 -0.1075
 7171W        W50109   1.004   4.955  30.676 -0.0496 -0.2452  0.1431
 7172W        W50110   1.086   5.481  28.366  0.3993 -0.0331 -0.1184
 7173W        W50111   1.812   4.472  30.766  0.1177  0.0025 -0.1600
 7174W        W50112   2.142   4.510  26.960  0.1575  0.0637  0.3502
 7175W        W50113   2.149   6.442  30.986 -0.0867 -0.2956 -0.3262
 7176W        W50114   2.046   4.522  29.282  0.1400 -0.0569  0.1141
 7177W        W50115   3.023   5.041  28.086  0.1579 -0.0500 -0.0245
 7178W        W50116   1.372   5.651  27.870 -0.3762  0.1254  0.1848
 7179W        W50117   1.389   4.357  30.362 -0.0959 -0.1988  0.1968
 7180W        W50118   1.570   6.245  31.746 -0.0820 -0.1440 -0.0522
 7181W        W50119   1.366   5.450  28.801 -0.2927 -0.1276 -0.1295
 7182W        W50120   4.383   5.518  26.539 -0.1382  0.0594  0.0912
 7183W        W50121   3.976   5.623  30.023  0.1278 -0.0515 -0.0667
 7184W        W50122   2.658   6.957  26.292 -0.2734  0.1053 -0.1400
 7185W        W50123   3.843   4.893  28.849  0.1267 -0.2087 -0.0369
 7186W        W50124   2.589   7.353  29.080 -0.1711  0.0115  0.0812
 7187W        W50125   1.400   5.264  30.508 -0.0299  0.2472 -0.0125
 7188W        W50126   3.568   9.069  29.515  0.5085  0.1010 -0.2191
 7189W        W50127   5.048   8.099  30.442  0.4136  0.0085  0.2198
 7190W        W50128   2.023   3.680  29.285  0.0389  0.0839 -0.1932
 7191W        W50129   2.318   5.790  29.561  0.0604  0.0456  0.1745
 7192W        W50130  34.680   6.943  27.276  0.0980  0.0633 -0.0475
 7193W        W50131   3.306   5.312  29.738 -0.2299 -0.3228  0.1543
 7194W        W50132   3.787   5.016  30.447 -0.1416 -0.0030  0.2622
 7195W        W50133   1.978   6.613  26.083  0.0147  0.0166 -0.2695
 7196W        W50134   4.316   4.072  31.181  0.0568 -0.0502  0.0605
 7197W        W50135   1.114   7.431  30.028  0.6436  0.0491  0.3141
 7198W        W50136   0.614   6.849  31.132 -0.2388  0.2475 -0.0770
 7199W        W50137   0.895   5.622  26.917 -0.1128 -0.2189  0.2747
 7200W        W50138   0.622   4.185  31.892  0.3209  0.1300  0.1627
 7201W        W50139   1.869   6.008  29.528 -0.2194 -0.0115  0.2446
 7202W        W50140   0.549   7.810  28.977 -0.0931 -0.1360 -0.1857
 7203W        W50141   3.242   8.112  27.971 -0.0083 -0.0295 -0.2111
 7204W        W50142   2.638   5.363  29.746 -0.0841  0.2884 -0.2503
 7205W        W50143   3.879   6.803  29.280  0.1059 -0.4182 -0.0861
 7206W        W50144   0.682   2.877  29.268 -0.5560 -0.3847  0.0205
 7207W        W50145   3.633   4.369  28.112 -0.0985  0.1321  0.2145
 7208W        W50146   2.400   3.589  27.329  0.0082  0.0971  0.1749
 7209W        W50147   2.902   5.168  30.139 -0.1515 -0.0529  0.0348
 7210W        W50148   0.466   5.098  27.882 -0.3349 -0.1089 -0.1961
 7211W        W50149   1.569   5.221  27.181  0.1596 -0.0247  0.0607
 7212W        W50150   2.128   7.096  28.836 -0.0434 -0.2499 -0.2423
 7213W        W50151   2.677   4.200  31.544 -0.0269 -0.2563 -0.0965
 7214W        W50152   1.600   6.353  28.831  0.0852  0.1208 -0.1944
 7215W        W50153   0.105   6.712  29.540 -0.0855  0.2383 -0.0613
 7216W        W50154   0.592   2.155  28.170 -0.1332 -0.0263 -0.0953
 7217W        W50155   3.621   6.797  28.068  0.1217 -0.0676  0.1810
 7218W        W50156   1.513   4.058  30.024  0.2042 -0.2115  0.1189
 7219W        W50157   0.953   5.006  28.119  0.2896 -0.1211 -0.1780
 7220W        W50158   4.379   7.441  27.821 -0.0147 -0.1564  0.2938
 7221W        W50159   2.417   8.284  27.869  0.4367  0.1331 -0.1947
 7222W        W50160   3.637   5.054  29.392 -0.2686  0.3369  0.0485
 7223W        W50161   3.789   5.630   0.731  0.1028 -0.0494 -0.0652
 7224W        W50162   0.113   4.994  27.541 -0.2058 -0.2792 -0.0070
 7225W        W50163   1.653   5.167  31.514  0.5124 -0.0062 -0.1269
 7226W        W50164   3.533   3.213   0.323 -0.0147 -0.2977  0.2048
 7227W        W50165   0.894   1.712  27.895  0.0910  0.0072 -0.2023
 7228W        W50166   2.935   6.076  30.412 -0.1098 -0.0188 -0.3041
 7229W        W50167   3.560   7.703  28.746 -0.0226 -0.1746  0.1851
 7230W        W50168   3.485   7.236  27.891  0.0852 -0.2549 -0.1709
 7231W        W50169   2.012   6.705  29.127  0.0970  0.0818  0.1545
 7232W        W50170   1.861   7.720  29.478 -0.1414 -0.1055  0.3539
 7233W        W50171   1.689   3.638  30.915 -0.0395  0.0289  0.1966
 7234W        W50172   1.813   5.025  30.295  0.0336 -0.1264 -0.2234
 7235W        W50173   1.887   5.591  31.443 -0.3825  0.1740  0.0327
 7236W        W50174   4.712   5.569  27.969  0.0414 -0.1163 -0.0069
 7237W        W50175   3.000   5.694  30.049 -0.0336  0.1992  0.1180
 7238W        W50176   2.856   5.021  28.975 -0.1713 -0.0315  0.0829
 7239W        W50177   2.125   2.808  31.711 -0.1504  0.0934  0.3427
 7240W        W50178   0.690   6.375  30.195 -0.1022 -0.5275 -0.1339
 7241W        W50179   2.912   8.121  29.431  0.0234 -0.1286  0.2462
 7242W        W50180   2.048   4.792  29.818 -0.2153  0.0008  0.0604
 7243W        W50181   2.687   4.285  28.383  0.2195  0.1465 -0.0620
 7244W        W50182   2.482   6.903  29.163  0.0469  0.1679 -0.1465
 7245W        W50183   1.513   6.349  29.861 -0.0795 -0.1368  0.1106
 7246W        W50184   3.340   4.598  29.465  0.1980  0.1888  0.0190
 7247W        W50185   2.692   4.663  29.898 -0.1194 -0.1976 -0.1006
 7248W        W50186   3.183   6.160  29.971  0.0479  0.2390  0.1010
 7249W        W50187   0.606   7.201  31.521 -0.2036 -0.0731  0.2179
 7250W        W50188   3.115   4.243  29.709 -0.0529  0.0528 -0.0683
 7251W        W50189   3.732   5.985  28.760 -0.1238 -0.1828  0.0042
 7252W        W50190   3.377   7.387  30.609  0.2752 -0.1107 -0.3120
 7253W        W50191   4.639   6.576  29.779  0.0066  0.1931  0.1052
 7254W        W50192   1.282   7.745  29.631  0.0133  0.0899 -0.1337
 7255W        W50193   4.187   5.613  28.146 -0.1057  0.1985  0.0722
 7256W        W50194   0.846   4.939  29.983  0.2066  0.0349  0.1590
 7257W        W50195   1.820   5.385  27.638  0.1813 -0.0948  0.1514
 7258W        W50196   1.194   6.358  29.118  0.2397 -0.2388  0.1322
 7259W        W50197   3.534   5.825  29.986  0.0277  0.0522 -0.0029
 7260W        W50198   0.697   3.172  30.470  0.2810 -0.3699  0.1893
 7261W        W50199   2.902   6.502  28.663 -0.1327  0.0603  0.0358
 7262W        W50200   0.617   7.400  29.914  0.0981 -0.0451  0.2036
 7263W        W50201   3.102   5.246  28.522 -0.0799  0.2377 -0.1211
 7264W        W50202   4.067   4.182  30.186  0.0163  0.3144  0.1069
 7265W        W50203   3.054   4.360  31.936  0.0542  0.3142  0.0378
 7266W        W50204   0.297   5.260  31.156 -0.0336 -0.0161 -0.0265
 7267W        W50205   1.238   6.149  31.364  0.5470  0.0538 -0.2362
 7268W        W50206   1.311   6.024  30.834 -0.0937 -0.1039  0.1877
 7269W        W50207   1.568   6.276   0.234  0.0272 -0.2514 -0.4719
 7270W        W50208   2.468   3.788  31.584 -0.1801 -0.2172  0.0665
 7271W        W50209   3.313   4.179  31.528 -0.1139  0.0218 -0.1167
 7272W        W50210   3.239   4.043   0.351  0.1495  0.0725  0.0747
 7273W        W50211   4.287   7.083  30.504  0.2869 -0.2650  0.2318
 7274W        W50212   1.614   4.214  31.609  0.0633 -0.1057  0.0250
 7275W        W50213   1.162   3.349   0.108  0.0053 -0.1957 -0.0777
 7276W        W50214   3.959   5.384   0.134 -0.1160  0.2750 -0.0174
 7277W        W50215   1.657   4.739  31.203 -0.1825 -0.2145  0.0399
 7278W        W50216   3.472   5.986   0.538  0.2443  0.2852 -0.2940
 7279W        W50217   1.375   5.768  31.711  0.0243  0.3826 -0.0779
 7280W        W50218   0.903   5.856  31.192 -0.2866 -0.1730 -0.2339
 7281W        W50219   1.856   6.933   0.447  0.1896 -0.0696 -0.1484
 7282W        W50220   0.273   3.877   0.069 -0.1877 -0.2353 -0.1581
 7283W        W50221   1.250   4.320  31.263  0.0411 -0.2901 -0.0601
 7284W        W50222   1.297   3.187  31.180 -0.0088 -0.1710 -0.1107
 7285W        W50223   1.719   5.980   0.592 -0.0849 -0.2793  0.2962
 7286W        W50224   3.239   5.225  31.877  0.0647 -0.0923  0.3220
 7287W        W50225   3.007   4.652  31.480  0.1689 -0.1705 -0.0384
 7288W        W50226   3.009   4.634   0.399  0.3177 -0.1885 -0.0009
 7289W        W50227   4.618   4.010  31.859 -0.1132  0.1499  0.0592
 7290W        W50228   2.613   5.105  31.681  0.1646 -0.0398  0.0816
 7291W        W50229   1.859   5.938  31.101  0.1137 -0.0637  0.1093
 7292W        W50230   0.894   5.812  31.757  0.2048 -0.1965 -0.0652
 7293W        W50231   2.079   6.172   0.236 -0.1231 -0.0245  0.4886
 7294W        W50232   0.829   6.202  30.785  0.3775 -0.2798 -0.0871
 7295W        W50233   0.679   4.823   0.578 -0.1099  0.0341  0.1267
 7296W        W50234   5.410   6.223   0.248 -0.0787  0.4162  0.2010
 7297W        W50235   4.917   3.702   0.384 -0.2304  0.1903 -0.0062
 7298W        W50236   0.309   3.380  31.379  0.0034  0.0178  0.1121
 7299W        W50237   0.262   5.174  31.645 -0.0057 -0.1584 -0.0369
 7300W        W50238   1.608   6.625  30.323  0.0402  0.1619  0.0158
 7301W        W50239   1.661   7.354  31.069 -0.0836 -0.1747 -0.1194
 7302W        W50240   2.761   6.123  30.895  0.2314  0.0397 -0.2837
 7303W        W50241   2.157   5.377  30.542 -0.2677 -0.2734 -0.3541
 7304W        W50242   2.755   5.295  31.031 -0.0436  0.2657 -0.0520
 7305W        W50243   2.735   5.373   0.109  0.1762 -0.1830 -0.1951
 7306W        W50244   1.149   5.069   0.634 -0.1947 -0.3301 -0.0276
 7307W        W50245   1.053   7.055  31.103  0.0772 -0.0578  0.1391
 7308W        W50246   0.527   4.817  30.897  0.4461 -0.0482  0.0263
 7309W        W50247   3.298   6.644  31.836 -0.1030 -0.1161  0.4064
 7310W        W50248   2.976   5.646  31.783  0.0585 -0.2045 -0.1881
 7311W        W50249   2.007   8.208  31.948  0.0791 -0.3121 -0.1054
 7312W        W50250   2.528   5.546  31.419  0.3933 -0.1338 -0.2818
 7313W        W50251   0.523   4.832  31.360 -0.0636  0.0976 -0.0159
 7314W        W50252   2.698   6.268   0.316 -0.0271 -0.1278  0.0709
 7315W        W50253   2.180   4.106  30.668  0.0407  0.0617  0.4366
 7316W        W50254   2.398   4.206  31.087 -0.0531  0.0449  0.0309
 7317W        W50255   1.803   7.944  30.399  0.1103  0.2303 -0.0896
 7318W        W50256   2.169   4.842  31.071 -0.1557  0.0221 -0.1551
 7319W        W50257   2.913   4.844  31.962  0.1649 -0.2180 -0.4563
 7320W        W50258   3.656   6.130  31.670  0.0802 -0.1030 -0.1411
 7321W        W50259   1.695   8.252  30.880  0.2277 -0.3782  0.2435
 7322W        W50260   3.824   6.826  29.807 -0.1186  0.2134 -0.2976
 7323W        W50261  34.660   6.063   0.743  0.0155 -0.1362 -0.0429
 7324W        W50262  34.076   4.440   0.891 -0.0850 -0.4692  0.2489
 7325W        W50263   1.432   4.703  31.769 -0.2440 -0.1931 -0.1085
 7326W        W50264  33.462   5.048  31.900 -0.0099 -0.0363  0.2307
 7327W        W50265   0.923   4.070  30.837 -0.0522  0.1158  0.3870
 7328W        W50266   1.733   6.387  31.276 -0.0581  0.2078 -0.1279
 7329W        W50267   3.327   6.470  31.363  0.1746 -0.0826  0.1123
 7330W        W50268   3.710   4.799   0.897 -0.0782 -0.0726 -0.0024
 7331W        W50269   0.837  11.006  19.745  0.3027  0.1215  0.2739
 7332W        W50270   1.743   8.609  18.405  0.5714  0.1655  0.3236
 7333W        W50271   3.791   7.703  16.078 -0.0868 -0.0933  0.0191
 7334W        W50272   2.152   9.745  17.413 -0.1931  0.0419 -0.1479
 7335W        W50273   0.433   7.556  17.653  0.0071  0.3025 -0.2453
 7336W        W50274   0.881   9.642  18.328 -0.0843  0.2502 -0.1648
 7337W        W50275   0.977   6.286  20.322  0.0287  0.1007  0.0252
 7338W        W50276   0.911  10.724  20.553 -0.1074  0.1795  0.2897
 7339W        W50277   3.912  10.081  21.401  0.2167  0.4413  0.2749
 7340W        W50278   1.745  10.220  16.950 -0.1915  0.2317 -0.1665
 7341W        W50279   2.189   8.379  18.430 -0.0024 -0.0604 -0.1099
 7342W        W50280   0.313   9.707  19.183  0.1456  0.0043 -0.0870
 7343W        W50281   2.375   6.809  17.355  0.0823 -0.0872 -0.0873
 7344W        W50282   0.129   6.867  16.981  0.0128  0.2067 -0.1761
 7345W        W50283   0.582   9.209  18.387 -0.2178 -0.2007  0.3000
 7346W        W50284  34.594   8.835  17.753 -0.0673  0.1288 -0.4223
 7347W        W50285   0.830   8.835  18.559  0.2198 -0.0092  0.1645
 7348W        W50286   2.201   8.826  17.814 -0.1736 -0.0558  0.0557
 7349W        W50287   0.934   9.967  16.742 -0.1540 -0.1273 -0.0001
 7350W        W50288   2.371   8.283  19.155 -0.2006 -0.2030  0.2887
 7351W        W50289   2.411   8.039  20.900 -0.0046 -0.1439  0.2452
 7352W        W50290   1.260  10.362  16.821 -0.1517 -0.1774  0.2302
 7353W        W50291  33.920   8.454  16.778 -0.1651 -0.3129  0.0638
 7354W        W50292  34.009   9.133  17.808 -0.1417 -0.3890  0.2847
 7355W        W50293   0.278   8.702  18.520  0.2134 -0.2128  0.2758
 7356W        W50294   2.536   8.479  18.005  0.0014  0.1742  0.2094
 7357W        W50295   2.271  10.154  18.473 -0.0340 -0.2614 -0.1308
 7358W        W50296   1.420  11.580  19.163 -0.2739 -0.2652 -0.2640
 7359W        W50297   1.214  11.520  17.478  0.0768 -0.3858 -0.0319
 7360W        W50298   0.549   9.324  19.924  0.2745 -0.0740 -0.3612
 7361W        W50299  33.652   9.320  18.877 -0.0954 -0.1692  0.1194
 7362W        W50300  34.497  10.549  17.876 -0.2351  0.1775 -0.0905
 7363W        W50301   0.950   9.814  17.258  0.0925  0.0600 -0.2766
 7364W        W50302   2.771  10.081  16.907  0.1535  0.4709 -0.1734
 7365W        W50303   4.377  10.170  19.982 -0.1354  0.1450 -0.1247
 7366W        W50304   2.223  10.910  19.856 -0.0791  0.0105 -0.2056
 7367W        W50305  33.679  10.386  15.823  0.1636 -0.0427  0.4270
 7368W        W50306   1.119  12.801  19.884  0.0211  0.0556 -0.2302
 7369W        W50307  33.768  10.503  19.546  0.6031  0.0242  0.0224
 7370W        W50308   1.782   9.098  19.408 -0.0905  0.0907  0.0080
 7371W        W50309   1.767   9.077  17.661 -0.2700  0.0159  0.2005
 7372W        W50310   2.027  11.199  16.964  0.4559 -0.1010  0.0769
 7373W        W50311   1.474   9.445  18.623 -0.1054 -0.0576  0.0892
 7374W        W50312   0.027   9.799  19.636  0.1216 -0.0079 -0.0349
 7375W        W50313   0.937  11.222  18.891 -0.1942  0.1932  0.0853
 7376W        W50314   2.351   8.653  20.126  0.2048  0.0215  0.0727
 7377W        W50315  34.521  11.464  16.694 -0.0670 -0.0635  0.0373
 7378W        W50316   2.168  10.413  16.281  0.2460  0.2115  0.1403
 7379W        W50317   1.327   7.705  16.580 -0.1684 -0.1120  0.2167
 7380W        W50318   2.225   7.516  17.959 -0.1436 -0.0564 -0.2024
 7381W        W50319   1.216   8.201  17.722 -0.1253  0.3301  0.1374
 7382W        W50320   0.938  10.088  18.103  0.2474 -0.0511  0.2852
 7383W        W50321   1.329   7.663  19.393  0.2070  0.0038 -0.1289
 7384W        W50322   4.259  10.085  19.492  0.3130  0.2568 -0.0980
 7385W        W50323   1.901   9.189  16.822 -0.0248 -0.0698  0.1052
 7386W        W50324   2.516   8.962  17.418  0.0103 -0.1619 -0.2659
 7387W        W50325   0.617  12.195  19.359  0.0900  0.0606 -0.2042
 7388W        W50326   0.203   8.563  18.078  0.1911 -0.2422  0.0463
 7389W        W50327   3.938  10.676  17.341  0.5269  0.3978  0.1394
 7390W        W50328   2.165  10.696  17.752 -0.1664  0.2161  0.2583
 7391W        W50329   1.828  11.405  16.460 -0.1056  0.2795 -0.1036
 7392W        W50330   0.539   7.999  17.496  0.1266 -0.0648  0.0179
 7393W        W50331  34.194   9.097  19.799  0.0023 -0.0283 -0.0677
 7394W        W50332  33.819   9.231  18.374 -0.1702 -0.1492 -0.0276
 7395W        W50333   0.860   7.532  16.693  0.2036  0.0440  0.1267
 7396W        W50334   4.172  10.657  20.754  0.1483  0.2171  0.0153
 7397W        W50335  34.580  11.269  18.846 -0.1772  0.0994 -0.0749
 7398W        W50336   2.254   9.935  16.621  0.1159  0.0427 -0.1577
 7399W        W50337   1.866  10.163  18.091 -0.2651 -0.0721 -0.0935
 7400W        W50338   1.293  10.906  19.568 -0.1280  0.2477  0.1283
 7401W        W50339   1.820   9.981  16.450 -0.1522 -0.3105  0.0988
 7402W        W50340   2.283   7.104  18.300  0.3846 -0.1359  0.2632
 7403W        W50341   0.444   9.008  18.883  0.1301  0.0441  0.2579
 7404W        W50342   0.481   9.391  16.563 -0.3271 -0.1294  0.0466
 7405W        W50343   0.587   9.690  18.754 -0.3321  0.1452  0.0526
 7406W        W50344   2.121   9.233  19.730 -0.0841 -0.0563  0.0405
 7407W        W50345   2.803   8.548  16.048  0.0432  0.0652  0.3449
 7408W        W50346  34.248  11.845  19.495  0.0079 -0.0288  0.0069
 7409W        W50347   0.645   8.516  19.875  0.0950 -0.0289 -0.1371
 7410W        W50348   2.540  10.533  19.621  0.0519  0.0182 -0.1921
 7411W        W50349   0.574   9.370  17.323 -0.0289  0.0466 -0.2837
 7412W        W50350   0.370   8.904  17.608 -0.2267  0.0367 -0.0150
 7413W        W50351  34.174   9.772  17.385 -0.0870  0.0091  0.1903
 7414W        W50352  34.339   7.910  17.798 -0.1041  0.2500  0.3420
 7415W        W50353   0.492   9.284  19.426 -0.0252 -0.0092 -0.0200
 7416W        W50354   3.097   8.268  17.830  0.0011  0.0456 -0.0421
 7417W        W50355  34.378   7.043  19.912  0.0084  0.3005 -0.0101
 7418W        W50356   3.762   7.903  18.422 -0.2662 -0.2515  0.3387
 7419W        W50357  33.603   8.241  18.217 -0.3521 -0.2960  0.0791
 7420W        W50358   3.614  11.815  18.138 -0.0675  0.0537 -0.0862
 7421W        W50359   1.957   9.708  16.952 -0.3052 -0.1196 -0.0194
 7422W        W50360   2.627   9.950  17.380 -0.0839 -0.1270  0.0436
 7423W        W50361  33.930   8.428  18.554 -0.0514 -0.0330 -0.0859
 7424W        W50362   0.447   8.500  17.356  0.0781  0.2994 -0.0307
 7425W        W50363   0.367   7.428  18.981  0.1880  0.0176  0.0018
 7426W        W50364   1.582   8.628  17.891  0.1610 -0.2082 -0.5037
 7427W        W50365   1.686   9.962  19.479 -0.0238 -0.2213  0.3020
 7428W        W50366   0.572   8.158  16.929 -0.2708 -0.3137 -0.0455
 7429W        W50367   0.994   9.388  16.763  0.0680  0.1799 -0.0719
 7430W        W50368   0.980   8.936  17.015  0.0173 -0.1779 -0.3596
 7431W        W50369  34.617   9.629  18.162  0.0141 -0.1773 -0.2123
 7432W        W50370   2.943   7.416  18.340 -0.1199 -0.1052 -0.0578
 7433W        W50371   1.830  11.107  18.340  0.1631  0.0137 -0.0166
 7434W        W50372   3.997  10.627  18.613  0.0431 -0.1261  0.0434
 7435W        W50373   3.406  10.840  18.223  0.4535  0.1055  0.2241
 7436W        W50374   0.463   7.639  17.160  0.1912  0.1802 -0.2441
 7437W        W50375  34.655   8.574  17.299 -0.3557 -0.1400 -0.1742
 7438W        W50376   0.067  11.284  18.305 -0.0641 -0.4715  0.2741
 7439W        W50377   0.232  10.765  18.840 -0.0240  0.0747 -0.3636
 7440W        W50378   0.577   7.147  17.266 -0.3931 -0.2136 -0.0714
 7441W        W50379   1.435  10.513  19.269 -0.2463  0.0095  0.3674
 7442W        W50380   2.291  10.494  16.762  0.2980  0.2307  0.2103
 7443W        W50381   0.003  10.152  19.128 -0.3636 -0.2590 -0.1549
 7444W        W50382   4.259   7.690  18.551 -0.2184 -0.0552  0.1697
 7445W        W50383   3.619   9.125  19.216  0.1557  0.1981 -0.0532
 7446W        W50384   1.431   9.491  18.090 -0.2520  0.1939 -0.0612
 7447W        W50385  34.352   8.274  16.808  0.0251 -0.0192 -0.0620
 7448W        W50386   2.431  12.440  17.736  0.1414 -0.1832 -0.0408
 7449W        W50387   1.178  10.985  18.106  0.1876 -0.2124 -0.1938
 7450W        W50388  34.461   9.401  17.671  0.2140 -0.1049 -0.1250
 7451W        W50389   0.591  11.164  18.242  0.0428 -0.4075  0.1596
 7452W        W50390   1.881   8.286  17.064  0.1056 -0.1596 -0.0798
 7453W        W50391  33.285   8.323  20.739  0.0401  0.0842  0.2141
 7454W        W50392   1.588   6.891  20.847 -0.0050 -0.2902 -0.1034
 7455W        W50393   0.269   8.101  15.639  0.2204 -0.2590 -0.1452
 7456W        W50394  33.830   8.782  20.029 -0.0614 -0.2625  0.3358
 7457W        W50395   3.510   8.227  18.771 -0.2131 -0.0527  0.0265
 7458W        W50396   3.531   8.265  18.111 -0.0523 -0.2908  0.1583
 7459W        W50397   0.925   8.848  19.050 -0.0962 -0.0281 -0.1306
 7460W        W50398   2.615  10.440  17.265 -0.0703  0.1679 -0.2105
 7461W        W50399   1.701  10.596  17.391 -0.0131 -0.1353 -0.0460
 7462W        W50400   2.962   8.415  16.478  0.1624 -0.0912  0.2051
 7463W        W50401  34.277   9.047  20.269  0.3751 -0.0620  0.3002
 7464W        W50402   1.641  10.604  18.210 -0.0538  0.0026 -0.1660
 7465W        W50403   0.402   9.702  18.238  0.0280  0.1847 -0.0992
 7466W        W50404   2.183   7.838  16.311  0.0409  0.1102  0.1528
 7467W        W50405   4.156  10.123  16.392  0.0777 -0.2173  0.2075
 7468W        W50406  34.008  10.577  19.091 -0.1588  0.0147  0.0008
 7469W        W50407   1.059  10.243  20.343 -0.0139 -0.0530  0.3663
 7470W        W50408   2.135  10.679  18.271  0.1515  0.1523  0.5399
 7471W        W50409   0.551   7.718  18.504 -0.0795  0.1076  0.1440
 7472W        W50410   1.351   8.160  17.240 -0.1877 -0.0761 -0.0003
 7473W        W50411   1.423   7.702  17.494  0.1243  0.1510 -0.1730
 7474W        W50412   0.427  11.121  16.722  0.0556 -0.0433 -0.5514
 7475W        W50413   1.407   8.152  19.194  0.2659  0.1623 -0.1097
 7476W        W50414   1.415   7.573  18.033 -0.0127  0.1133 -0.2423
 7477W        W50415   1.237   6.857  20.509  0.1237 -0.2042 -0.0366
 7478W        W50416   1.859  10.192  20.276  0.1287 -0.3034 -0.0110
 7479W        W50417   3.667   8.002  16.560 -0.2317  0.2121 -0.2796
 7480W        W50418   2.555   8.956  19.812 -0.0618 -0.2596 -0.0072
 7481W        W50419   0.678   8.689  16.724 -0.0189 -0.2965 -0.0296
 7482W        W50420   0.960   6.896  19.114  0.2269  0.3172 -0.2100
 7483W        W50421   0.062   9.302  19.670  0.0338  0.2121  0.1830
 7484W        W50422   0.273  11.511  19.118 -0.0053 -0.0713 -0.0525
 7485W        W50423   1.189  10.925  20.111  0.0556  0.0327  0.0690
 7486W        W50424   1.112   9.334  17.373 -0.1805 -0.1529 -0.4155
 7487W        W50425   2.120   8.255  20.508  0.0806  0.2172  0.2285
 7488W        W50426   1.351   8.236  16.730  0.0012 -0.0518  0.1524
 7489W        W50427   1.356   8.615  17.458  0.0657 -0.0408  0.1374
 7490W        W50428   0.765   9.689  17.773 -0.1261 -0.0930 -0.2933
 7491W        W50429   0.280   8.112  18.407 -0.2246  0.0738 -0.0824
 7492W        W50430  34.212  10.070  18.969  0.4039 -0.0624  0.0371
 7493W        W50431   3.935   9.989  16.797 -0.0935 -0.0205  0.0014
 7494W        W50432   1.924   9.401  18.270 -0.0342 -0.1275  0.1268
 7495W        W50433  34.674  10.189  17.502 -0.2220 -0.0347 -0.2074
 7496W        W50434   3.551   6.535  17.816  0.2618 -0.0607  0.1126
 7497W        W50435  33.866  11.591  17.796 -0.2799 -0.1009 -0.1104
 7498W        W50436   0.358   8.925  16.464 -0.1166 -0.0008  0.3394
 7499W        W50437  34.642   9.119  17.279 -0.1147  0.0585  0.2275
 7500W        W50438   4.113   6.596  18.499 -0.0552 -0.1204  0.4473
 7501W        W50439   3.175  10.925  17.781 -0.0698  0.0392  0.0786
 7502W        W50440   1.274   8.567  18.890 -0.2167  0.1682  0.1482
 7503W        W50441   1.603   8.084  18.018 -0.1288 -0.2323  0.0287
 7504W        W50442  34.307  11.891  17.832  0.1524 -0.1338  0.1068
 7505W        W50443   2.235   8.739  19.376 -0.0876  0.3615  0.1149
 7506W        W50444   2.595   7.625  16.567 -0.3774  0.1234 -0.4627
 7507W        W50445   0.966   9.282  18.711  0.0973  0.1574 -0.1523
 7508W        W50446   1.367   9.112  19.024  0.1787  0.0908  0.1423
 7509W        W50447  34.312   7.699  16.288 -0.2534  0.2315  0.0749
 7510W        W50448   3.391   9.501  18.896  0.0229  0.0302  0.0140
 7511W        W50449   1.856   9.696  17.842 -0.1297  0.1403  0.1715
 7512W        W50450  34.117   9.626  18.051  0.2752 -0.1088 -0.1028
 7513W        W50451   0.308   8.877  19.816 -0.4604 -0.3369 -0.0870
 7514W        W50452   1.344  10.008  16.355 -0.2350  0.0699  0.1468
 7515W        W50453  33.711   8.792  18.282  0.0145 -0.1028  0.1327
 7516W        W50454   1.500   8.377  20.662  0.0890  0.0191  0.2552
 7517W        W50455   1.499  10.523  20.325  0.2183 -0.0741 -0.0138
 7518W        W50456   1.270   9.388  20.069  0.4032 -0.1657  0.1315
 7519W        W50457   1.099   8.631  18.004 -0.1663  0.2134  0.0635
 7520W        W50458   1.721   9.968  17.444  0.0482 -0.1014 -0.0758
 7521W        W50459   1.379  11.096  18.628  0.0485 -0.1187  0.1937
 7522W        W50460   1.290   8.054  20.284  0.1698  0.0452  0.0294
 7523W        W50461   0.782  10.295  20.840 -0.3354 -0.0541 -0.1379
 7524W        W50462   1.665   7.337  19.320  0.2454 -0.3363 -0.1772
 7525W        W50463   2.577  11.538  18.306 -0.5634  0.2663  0.2387
 7526W        W50464   2.385  10.046  19.602 -0.1515 -0.1940  0.1139
 7527W        W50465   0.818   8.815  17.522  0.0756 -0.1348  0.2339
 7528W        W50466  34.485  10.793  19.099  0.3247  0.0049 -0.3151
 7529W        W50467   1.309   9.751  17.675  0.2380  0.2402  0.0442
 7530W        W50468   1.957   7.493  18.825  0.1870 -0.1095  0.0086
 7531W        W50469  34.103  10.351  18.183  0.1945  0.0468 -0.0842
 7532W        W50470   0.059   9.808  16.767 -0.1714  0.0514  0.0544
 7533W        W50471  34.371   9.188  18.113  0.2772  0.0592  0.0977
 7534W        W50472   3.542   7.933  17.635 -0.1725  0.0796 -0.0974
 7535W        W50473   1.383   9.847  16.954 -0.0566 -0.1924  0.2895
 7536W        W50474   2.128   9.234  17.360  0.2442  0.1822 -0.1493
 7537W        W50475   3.296   7.821  18.990 -0.1682 -0.2481 -0.0427
 7538W        W50476   2.076  11.113  17.495  0.1820  0.1737 -0.0276
 7539W        W50477   1.360   8.930  18.569  0.1327 -0.1860  0.2415
 7540W        W50478  33.791   6.418  20.506  0.1027  0.2440  0.0198
 7541W        W50479   2.479  11.133  19.066 -0.0118 -0.0674  0.2543
 7542W        W50480  34.150   8.236  19.138  0.1566 -0.3555 -0.3460
 7543W        W50481   2.374  10.397  20.564  0.2615  0.1000  0.2083
 7544W        W50482  34.183   9.959  19.485  0.0014 -0.0273 -0.0221
 7545W        W50483   2.939   7.811  17.676 -0.2907 -0.0111  0.0149
 7546W        W50484   1.007   7.596  17.698  0.1071  0.0893  0.4207
 7547W        W50485   0.204  10.000  18.621 -0.0600  0.1298  0.0243
 7548W        W50486   1.828   9.811  18.536  0.1484 -0.0719 -0.0588
 7549W        W50487   1.617   9.460  17.365  0.0504  0.3002 -0.1508
 7550W        W50488   4.044   8.883  18.499  0.1745 -0.0861  0.2091
 7551W        W50489   0.362   7.884  19.212 -0.0332  0.1663  0.0382
 7552W        W50490   0.852   9.604  19.677  0.0927 -0.0802  0.2368
 7553W        W50491   2.505  10.767  16.409  0.0457  0.0393 -0.1835
 7554W        W50492   0.018   9.738  17.321 -0.2896  0.2779 -0.0206
 7555W        W50493   0.149   7.422  19.877 -0.0525 -0.4038  0.1220
 7556W        W50494   2.450   9.828  17.814 -0.1475  0.1075  0.1574
 7557W        W50495   2.683   8.904  17.885  0.0941 -0.1633  0.0550
 7558W        W50496   1.090   6.816  21.075 -0.1956  0.0468 -0.0704
 7559W        W50497   2.944   7.769  18.665 -0.0891  0.0197  0.0206
 7560W        W50498   0.377   7.921  19.752  0.2879 -0.0138 -0.3164
 7561W        W50499   0.767   6.983  20.714 -0.1915  0.0615 -0.1822
 7562W        W50500   1.880  11.350  19.086  0.1249  0.0024 -0.1910
 7563W        W50501   3.098   8.575  16.992  0.0139  0.2220  0.1118
 7564W        W50502   2.552   7.760  18.974 -0.0843  0.0421  0.3730
 7565W        W50503   3.461   8.093  17.067 -0.0775 -0.3846  0.2298
 7566W        W50504   1.625   9.044  16.367 -0.1426 -0.0625 -0.1716
 7567W        W50505   0.805   8.283  18.276 -0.4253  0.2301  0.0529
 7568W        W50506   1.684   9.496  19.735 -0.0497 -0.2153  0.2332
 7569W        W50507   1.424   9.198  16.927 -0.2109 -0.0521  0.1758
 7570W        W50508   1.420   8.727  19.319 -0.0044  0.0233 -0.0884
 7571W        W50509   2.959  10.916  17.151  0.0728 -0.1048 -0.1708
 7572W        W50510   0.505  10.362  18.991  0.0327 -0.4314  0.1217
 7573W        W50511   2.601   9.018  16.101  0.4584 -0.2651  0.1604
 7574W        W50512   0.219   7.908  17.986  0.1613  0.4427 -0.0355
 7575W        W50513   0.141  11.088  19.316 -0.2194 -0.2433 -0.0310
 7576W        W50514  34.638   8.645  16.353  0.0721  0.1847  0.3962
 7577W        W50515   1.458   9.568  16.572 -0.0721 -0.2908  0.1164
 7578W        W50516   0.060  10.417  19.760  0.1813 -0.0338 -0.0411
 7579W        W50517   2.855   8.482  20.160  0.1606  0.2574  0.1885
 7580W        W50518   2.454   8.014  17.711  0.0767  0.3754  0.1607
 7581W        W50519   1.987   8.786  19.822  0.0162 -0.0184 -0.3115
 7582W        W50520   0.546   9.745  16.969  0.1867  0.1118  0.1299
 7583W        W50521   1.817   7.794  17.147  0.1739 -0.0054 -0.1545
 7584W        W50522  34.208  11.292  19.869  0.1805  0.0307  0.0225
 7585W        W50523  34.201   9.257  18.947 -0.3490 -0.2470  0.3521
 7586W        W50524   1.200  10.862  16.628 -0.1805  0.2403 -0.0722
 7587W        W50525   1.376   7.722  18.871 -0.0695 -0.0935 -0.0559
 7588W        W50526   2.266   8.752  18.835 -0.0269 -0.0294 -0.2996
 7589W        W50527   0.585   8.419  17.791  0.3099  0.0180 -0.1475
 7590W        W50528   3.210   8.234  19.844  0.0940  0.1538 -0.0635
 7591W        W50529   1.405   9.589  19.270 -0.1604 -0.3019  0.2855
 7592W        W50530  34.621   9.031  18.693  0.1804 -0.0539  0.2487
 7593W        W50531   1.678  10.948  19.934 -0.1572 -0.4691  0.0732
 7594W        W50532   2.488   9.231  18.339  0.2432 -0.0604  0.3562
 7595W        W50533  34.340  10.064  17.884  0.0201 -0.1739  0.1232
 7596W        W50534  34.572  10.391  18.725 -0.0463 -0.2349 -0.0495
 7597W        W50535   2.553   8.552  20.567 -0.0803 -0.1455  0.0228
 7598W        W50536   2.555   8.367  19.710  0.3562 -0.0588 -0.2103
 7599W        W50537   0.192   6.350  17.054 -0.1191  0.1365  0.1481
 7600W        W50538   0.845   9.044  16.433 -0.0530 -0.0667 -0.2629
 7601W        W50539  34.327   9.645  20.358 -0.0111 -0.0905  0.1388
 7602W        W50540  34.499  10.727  20.481  0.0026 -0.1146 -0.2318
 7603W        W50541   0.221  10.720  18.054 -0.1342 -0.2738  0.1205
 7604W        W50542   2.255  10.169  17.103  0.1674  0.1386  0.0528
 7605W        W50543   2.486   9.618  16.995 -0.0305  0.1523 -0.0625
 7606W        W50544   1.339  10.415  19.787 -0.2250 -0.1733 -0.2420
 7607W        W50545   1.896   8.694  16.719  0.0264 -0.0405 -0.0892
 7608W        W50546   0.354  10.441  18.513  0.2727  0.0427  0.0392
 7609W        W50547  33.037   9.980  16.796  0.4154  0.0573  0.0207
 7610W        W50548   2.174  11.240  18.686  0.2807  0.1289  0.1909
 7611W        W50549  33.620   9.081  17.488  0.4670 -0.0555  0.0206
 7612W        W50550   3.409   9.951  18.486  0.1085 -0.0225 -0.2371
 7613W        W50551   3.410   7.317  17.267 -0.3051  0.0062  0.0559
 7614W        W50552   2.361  10.830  17.161 -0.0675  0.1916  0.1839
 7615W        W50553   2.356   9.677  18.295  0.0110  0.2897 -0.3042
 7616W        W50554   0.868  10.097  19.805  0.3861 -0.0833  0.0650
 7617W        W50555   0.181   9.192  18.074  0.1782  0.1391 -0.2503
 7618W        W50556   1.036   7.372  17.143 -0.1890 -0.0286 -0.1751
 7619W        W50557   1.382  10.179  20.732  0.2881  0.1186 -0.0159
 7620W        W50558   2.657   5.688  18.448  0.1711 -0.1716 -0.1311
 7621W        W50559  33.719  10.818  20.866  0.1008  0.2531  0.1326
 7622W        W50560   2.527  10.934  18.523  0.2228 -0.3151  0.0725
 7623W        W50561   1.438   8.647  16.963 -0.2829 -0.1367 -0.0519
 7624W        W50562  34.576   6.895  17.765  0.1471  0.1590 -0.2645
 7625W        W50563   2.232   6.052  17.965 -0.0522  0.3939 -0.1852
 7626W        W50564   0.500  10.165  16.600 -0.3635  0.2699  0.1269
 7627W        W50565   2.180   8.461  17.413  0.1425  0.1391  0.2388
 7628W        W50566   0.458  11.130  17.265  0.1860 -0.3493  0.0653
 7629W        W50567   1.380   9.924  18.372  0.2054  0.1286  0.0881
 7630W        W50568   0.849   8.964  19.587 -0.1490 -0.2626  0.1749
 7631W        W50569   0.406   7.362  18.144  0.0852  0.1383  0.0873
 7632W        W50570   3.337   8.892  17.283 -0.1076  0.0053  0.2142
 7633W        W50571   1.136   8.521  19.741  0.0824 -0.2580  0.2171
 7634W        W50572   3.994   6.697  18.025  0.2332 -0.1694 -0.0197
 7635W        W50573   0.030   7.514  16.522  0.0080 -0.0788 -0.4537
 7636W        W50574   3.709   9.536  18.356 -0.0038  0.1537 -0.2088
 7637W        W50575   0.750   9.960  19.140  0.0263  0.0815 -0.4278
 7638W        W50576   0.492   8.747  19.322  0.2748 -0.2215 -0.0794
 7639W        W50577   0.434   7.750  16.650  0.2443  0.1255  0.0189
 7640W        W50578   1.505  10.062  18.961 -0.3257  0.0082 -0.0448
 7641W        W50579   1.203   9.340  16.235 -0.0442  0.1999 -0.0396
 7642W        W50580   3.921   9.832  20.274 -0.0854 -0.0068 -0.3508
 7643W        W50581   0.915   7.879  17.123 -0.0011  0.1248 -0.0250
 7644W        W50582   1.727   8.286  17.557  0.4253  0.0003 -0.0361
 7645W        W50583  34.182   9.225  17.322  0.0248 -0.0639 -0.0437
 7646W        W50584   1.519   8.095  19.688  0.0759  0.0216  0.4417
 7647W        W50585   2.804  10.119  19.953  0.1406  0.1901  0.3292
 7648W        W50586   1.544   6.412  17.066  0.1170  0.0973 -0.2891
 7649W        W50587   4.622  10.192  15.686 -0.2230 -0.1232 -0.0070
 7650W        W50588   3.114   9.552  18.444  0.1325  0.0125  0.4831
 7651W        W50589   0.559  10.105  16.090  0.0363 -0.1684 -0.0399
 7652W        W50590   3.992   7.249  18.400 -0.2208 -0.0433  0.2940
 7653W        W50591   1.191   9.999  19.453  0.0351 -0.1509  0.0864
 7654W        W50592   1.055   7.754  18.385 -0.0195  0.1028 -0.0268
 7655W        W50593   1.992  11.426  19.950 -0.1532  0.1087  0.0929
 7656W        W50594   2.964   9.665  19.639 -0.0362  0.3961  0.0506
 7657W        W50595   0.891   7.763  19.168 -0.1651  0.2823  0.0026
 7658W        W50596   0.622   8.801  18.094  0.0884 -0.0862  0.0324
 7659W        W50597   0.649  10.775  17.753 -0.1223  0.3397 -0.0163
 7660W        W50598   3.476   7.529  18.573  0.3554 -0.5599 -0.1107
 7661W        W50599   2.078   8.304  17.904 -0.1042 -0.2347 -0.2503
 7662W        W50600   0.671  10.230  17.066 -0.0554 -0.0126 -0.0213
 7663W        W50601   2.281   7.577  19.923 -0.1431  0.3518 -0.2005
 7664W        W50602   1.136  10.534  17.846  0.0781  0.3949  0.0087
 7665W        W50603   0.467  10.641  21.665 -0.2007  0.0779  0.0046
 7666W        W50604   0.105   9.378  16.891 -0.3455 -0.0173 -0.0370
 7667W        W50605   1.041   8.939  20.051  0.2458 -0.2693  0.1156
 7668W        W50606   1.278   9.115  17.800 -0.2348 -0.4011 -0.0526
 7669W        W50607   1.088   9.802  18.755  0.2663 -0.1891  0.0152
 7670W        W50608   2.421  10.234  19.134 -0.1774  0.2424 -0.0228
 7671W        W50609   2.991   8.654  17.552  0.0575  0.0616  0.0241
 7672W        W50610   3.122   9.987  19.024 -0.2025 -0.0343 -0.0446
 7673W        W50611   0.927   8.457  17.163  0.0584  0.1181 -0.1371
 7674W        W50612   3.010   7.973  16.759 -0.2237  0.1151 -0.1202
 7675W        W50613   3.345   6.812  17.400 -0.3606  0.0137  0.2457
 7676W        W50614   1.346   9.874  19.899 -0.0346  0.2682  0.0220
 7677W        W50615   0.147   9.339  16.177  0.1330  0.3523 -0.2801
 7678W        W50616   0.685   9.197  17.817  0.0414 -0.3156 -0.3689
 7679W        W50617   0.126   9.453  18.593 -0.0744 -0.0613  0.0625
 7680W        W50618   2.432   7.083  20.792 -0.0135  0.1785  0.5150
 7681W        W50619   0.569  10.407  20.104 -0.2418  0.0199  0.0007
 7682W        W50620  34.568   7.792  18.297  0.1494 -0.0276  0.2331
 7683W        W50621   0.005   6.977  16.411  0.2804 -0.0231 -0.0136
 7684W        W50622   3.274  10.583  16.768 -0.0967  0.1567  0.0046
 7685W        W50623  34.621   7.314  18.434  0.0263  0.2182 -0.4686
 7686W        W50624  34.206   7.239  17.577 -0.1225 -0.0788  0.3120
 7687W        W50625   0.443  10.123  19.560  0.1243  0.1431  0.0407
 7688W        W50626   3.195  10.453  17.987  0.2010  0.2366  0.1744
 7689W        W50627  34.485   7.310  18.920 -0.0766 -0.0921  0.1222
 7690W        W50628   4.902  11.130  20.699  0.0038 -0.0937  0.0971
 7691W        W50629  33.772   8.851  17.083 -0.2869 -0.1528 -0.2329
 7692W        W50630   0.704   8.142  20.177  0.0885 -0.0677 -0.0367
 7693W        W50631   1.663   8.163  18.760  0.2843 -0.2879  0.0204
 7694W        W50632  33.887   7.954  16.047 -0.1673  0.1914 -0.1885
 7695W        W50633   3.099   8.219  18.480  0.1423  0.0112 -0.0988
 7696W        W50634   0.952  10.814  18.608 -0.1481 -0.4547  0.4029
 7697W        W50635   1.404  10.122  17.911  0.3257 -0.1049 -0.3522
 7698W        W50636   0.915  10.473  19.443 -0.2319 -0.1274 -0.1593
 7699W        W50637   0.603  11.202  19.367  0.3718  0.1133 -0.2321
 7700W        W50638  34.077   6.296  20.039 -0.0311 -0.1803 -0.1743
 7701W        W50639   2.174   8.876  18.318 -0.2609 -0.0409 -0.0709
 7702W        W50640   1.520   9.846  20.384 -0.2331  0.1455  0.2384
 7703W        W50641   3.459   9.882  16.846  0.0445  0.0073  0.0800
 7704W        W50642   3.886   6.691  17.365  0.1159 -0.1757  0.2392
 7705W        W50643   2.574   9.346  16.567 -0.0668  0.2431 -0.3959
 7706W        W50644   0.020   7.534  20.485  0.0064  0.0157 -0.2555
 7707W        W50645   0.858   9.724  20.151 -0.2166 -0.2888  0.3128
 7708W        W50646   2.982   9.456  19.143 -0.0331  0.0800 -0.1438
 7709W        W50647   0.582   7.062  18.461  0.0300 -0.1846 -0.0078
 7710W        W50648   2.474   8.625  16.524 -0.2412  0.0561 -0.0012
 7711W        W50649   3.039  10.764  16.228  0.2934 -0.0077 -0.0624
 7712W        W50650  34.227   8.087  19.761  0.1260  0.2273  0.0575
 7713W        W50651   2.639   8.604  17.099  0.0167 -0.0373  0.0014
 7714W        W50652   0.932   9.468  19.205  0.2781  0.3225 -0.0123
 7715W        W50653   0.757  10.138  18.600  0.0806 -0.0117 -0.1151
 7716W        W50654   2.100   9.650  19.514 -0.0988 -0.2736  0.1523
 7717W        W50655   2.217   9.351  17.891  0.0118 -0.2067 -0.2464
 7718W        W50656   1.710   9.513  16.071 -0.0585  0.1607 -0.1893
 7719W        W50657   0.413  11.200  18.785  0.1506 -0.1228 -0.0633
 7720W        W50658   2.361  11.449  21.250 -0.2736 -0.0821  0.0821
 7721W        W50659   0.861  11.726  19.168 -0.1178 -0.0093  0.1879
 7722W        W50660   2.256   9.472  18.778 -0.0016 -0.4718  0.2134
 7723W        W50661   0.040   7.214  17.397  0.0787 -0.1295 -0.0954
 7724W        W50662   1.816   8.802  17.200  0.0887  0.1271  0.0042
 7725W        W50663   0.223   9.503  17.686  0.3380 -0.1955 -0.0260
 7726W        W50664   3.806   7.470  18.924 -0.1525 -0.0799 -0.1427
 7727W        W50665   0.723   7.849  18.039  0.1806  0.0176 -0.2301
 7728W        W50666   3.543   8.400  17.455  0.2136  0.5221 -0.2899
 7729W        W50667  33.983  11.435  20.312  0.4240  0.2617  0.2765
 7730W        W50668   2.685  10.203  18.749  0.0865  0.0708 -0.3615
 7731W        W50669   0.502   9.158  23.716 -0.1675  0.3707  0.0511
 7732W        W50670  34.517   7.047  20.985  0.0095 -0.1690 -0.1621
 7733W        W50671   2.728   8.624  18.957 -0.2233 -0.2886 -0.1071
 7734W        W50672   2.580   9.401  19.494 -0.1608 -0.2127 -0.2224
 7735W        W50673  33.734   8.554  20.837 -0.3090  0.0684 -0.1432
 7736W        W50674   2.143  10.574  22.227  0.2359 -0.1377 -0.2326
 7737W        W50675   1.070   6.443  23.530  0.2297  0.0294  0.2154
 7738W        W50676   1.771   9.864  22.116 -0.3348  0.0024 -0.1208
 7739W        W50677   4.332  10.829  22.341  0.2371 -0.1784 -0.0531
 7740W        W50678   2.062   9.791  20.013 -0.0043  0.0336 -0.1778
 7741W        W50679   1.525   7.253  22.313 -0.2734 -0.1048 -0.1336
 7742W        W50680   0.403   8.733  21.614  0.1348 -0.1825  0.0452
 7743W        W50681  34.635   5.147  20.945  0.0501 -0.0835 -0.0008
 7744W        W50682  34.518   8.081  24.100  0.0638  0.0258  0.0821
 7745W        W50683   2.065   8.145  21.931 -0.3220 -0.1975  0.1945
 7746W        W50684  34.273   8.808  19.132  0.2687 -0.2094 -0.0227
 7747W        W50685  34.601   8.192  21.930  0.3883 -0.2503  0.0053
 7748W        W50686   2.009   7.550  22.164  0.1048  0.1881  0.2182
 7749W        W50687   2.788  11.462  20.882  0.2355 -0.0184  0.0866
 7750W        W50688   3.101   7.013  22.881  0.3530 -0.2276 -0.0679
 7751W        W50689   2.844   6.591  20.651  0.0125 -0.0406 -0.3101
 7752W        W50690   1.163   9.539  21.184 -0.0609 -0.3266  0.0953
 7753W        W50691   0.968   8.363  19.269 -0.1557  0.0452  0.1163
 7754W        W50692  34.559   8.477  20.932  0.2092 -0.0471  0.0657
 7755W        W50693   1.310  10.075  22.106  0.3241 -0.0198  0.1919
 7756W        W50694   3.794   8.503  21.128  0.0918  0.0551 -0.3726
 7757W        W50695   2.932   7.990  20.778 -0.0900 -0.0730 -0.0092
 7758W        W50696   2.206  10.561  21.754  0.0205  0.0450  0.2062
 7759W        W50697   2.396  10.935  21.109  0.1763 -0.1377  0.0833
 7760W        W50698   3.261   8.767  24.376  0.1323  0.0922 -0.1305
 7761W        W50699  34.291  10.519  19.862  0.2655  0.2377 -0.1648
 7762W        W50700  34.680   9.859  21.066 -0.1600  0.0299 -0.1479
 7763W        W50701  34.359  11.255  22.190 -0.0949 -0.0936 -0.2782
 7764W        W50702   4.724  10.171  20.937 -0.0425 -0.1227 -0.0191
 7765W        W50703   2.626  10.405  24.442 -0.1981 -0.1281 -0.0072
 7766W        W50704   1.097   9.472  22.488  0.2777  0.1311 -0.1384
 7767W        W50705   0.053   9.384  20.206  0.0609 -0.0597  0.2743
 7768W        W50706   1.801   9.925  22.948  0.4245 -0.1056 -0.2822
 7769W        W50707   1.705   8.619  22.273  0.1099  0.0061 -0.0759
 7770W        W50708   2.533   8.111  22.046 -0.0292  0.4088  0.1173
 7771W        W50709   1.912   8.024  21.399  0.0938 -0.0341  0.3481
 7772W        W50710   0.572   9.998  20.512  0.2969 -0.0658  0.1400
 7773W        W50711   1.571   8.432  21.281 -0.0043 -0.0936  0.1903
 7774W        W50712  34.302   9.766  24.577 -0.1952  0.1411  0.1062
 7775W        W50713   0.878   9.820  21.515 -0.1285 -0.0762 -0.0301
 7776W        W50714   3.292   7.850  23.872 -0.0414  0.2135 -0.2385
 7777W        W50715   0.116  10.937  20.874  0.1725  0.5805  0.0264
 7778W        W50716   2.134   6.696  20.586 -0.1860 -0.2511  0.2044
 7779W        W50717   1.028   8.510  20.356 -0.0711 -0.2610  0.0207
 7780W        W50718   1.372   6.381  20.722  0.2034  0.0484  0.0996
 7781W        W50719   0.668   6.546  22.737  0.0317 -0.2958 -0.0200
 7782W        W50720   0.252  10.345  22.052 -0.0093  0.1982  0.1034
 7783W        W50721  34.634   8.576  21.435 -0.1110 -0.1819 -0.0330
 7784W        W50722   2.839   8.894  22.772  0.0973  0.0895 -0.1459
 7785W        W50723   1.331   8.010  21.022 -0.0778  0.3501  0.0809
 7786W        W50724   2.398   6.749  21.489 -0.4156  0.0461  0.0478
 7787W        W50725   0.942   8.151  21.263 -0.3358 -0.0393  0.0670
 7788W        W50726  34.414   8.020  21.176 -0.1496 -0.2166  0.0734
 7789W        W50727   4.685  10.247  19.574 -0.2513  0.1848 -0.0017
 7790W        W50728   4.347   9.799  21.271 -0.1153  0.0334  0.1085
 7791W        W50729   2.297  10.376  20.081 -0.0850 -0.3943  0.3804
 7792W        W50730   1.384   7.504  20.379 -0.2123  0.2639 -0.1973
 7793W        W50731   0.660   8.818  24.305  0.1494  0.0747  0.1704
 7794W        W50732   0.721   8.767  23.463 -0.1705 -0.2773  0.1089
 7795W        W50733   1.074   7.212  20.045 -0.2351  0.0745 -0.0477
 7796W        W50734   3.622  10.107  22.909  0.2786  0.1082  0.0746
 7797W        W50735   0.848   9.906  22.796 -0.0041  0.0517 -0.0692
 7798W        W50736   1.175   8.536  20.967  0.1720 -0.4612  0.3157
 7799W        W50737   2.756   7.659  21.692  0.1180 -0.0091 -0.0955
 7800W        W50738   2.711   9.526  21.630 -0.1267  0.0363  0.1949
 7801W        W50739   3.150   8.822  19.926 -0.0956 -0.0356  0.5234
 7802W        W50740   1.862   6.675  21.467  0.0080  0.0501  0.3251
 7803W        W50741   2.775   7.052  22.143 -0.0965 -0.1480  0.3404
 7804W        W50742   0.118   9.775  20.522  0.0353 -0.1503  0.4069
 7805W        W50743   2.235  10.416  21.222 -0.3031 -0.0876  0.2253
 7806W        W50744   3.506   9.456  22.292  0.0194  0.2018  0.2214
 7807W        W50745   2.691   8.919  19.316 -0.3391  0.1032  0.0804
 7808W        W50746  34.657  10.841  22.036  0.0934 -0.2418  0.0957
 7809W        W50747   2.168   8.488  23.384 -0.2091 -0.1084 -0.2231
 7810W        W50748   1.074  10.250  23.209 -0.0376  0.0001  0.2035
 7811W        W50749   0.169  10.745  20.122 -0.0303 -0.2200  0.0163
 7812W        W50750  33.586   8.869  22.124  0.0439  0.3516  0.0280
 7813W        W50751   0.783   9.376  20.859 -0.0829 -0.0241 -0.2076
 7814W        W50752   0.764   7.592  22.806 -0.1853  0.2664  0.2974
 7815W        W50753   0.286   9.954  22.374 -0.0187  0.2884 -0.0627
 7816W        W50754   2.457   6.593  20.971  0.1120 -0.0069  0.1250
 7817W        W50755   1.300   8.017  23.165  0.2250 -0.1270 -0.1123
 7818W        W50756   2.594   6.101  20.897  0.1596  0.0833  0.0730
 7819W        W50757   0.243  11.216  22.097 -0.1435 -0.0399 -0.1519
 7820W        W50758   2.418  10.962  20.532 -0.2065 -0.4615  0.0267
 7821W        W50759   2.008   7.042  21.127 -0.0654  0.0864  0.0809
 7822W        W50760   2.501   9.568  19.932 -0.1384 -0.0563  0.0008
 7823W        W50761  33.910   8.512  22.353 -0.0892  0.2688 -0.3754
 7824W        W50762   0.305   7.768  22.038 -0.0003 -0.3881  0.4194
 7825W        W50763   1.741   8.456  23.741  0.1226 -0.1031 -0.1206
 7826W        W50764  33.581   7.056  23.091  0.1715  0.1115  0.1665
 7827W        W50765   2.550   8.646  21.973  0.0785 -0.2508 -0.1544
 7828W        W50766  34.686   6.541  20.741  0.0341 -0.2151  0.0447
 7829W        W50767   1.983   7.225  20.579  0.0974 -0.2509 -0.1021
 7830W        W50768   0.528   8.783  20.270 -0.0979 -0.0345 -0.0500
 7831W        W50769  34.367   9.555  19.893  0.2848  0.0073 -0.0938
 7832W        W50770   4.133   6.752  23.112 -0.0005 -0.3214  0.0857
 7833W        W50771   1.973  10.959  20.761  0.0486 -0.0733 -0.0058
 7834W        W50772   3.444  10.872  23.804 -0.0902 -0.1723  0.2034
 7835W        W50773   2.137   9.994  20.904  0.0207 -0.1126  0.3509
 7836W        W50774   0.425   8.877  21.137 -0.2105  0.3198 -0.1021
 7837W        W50775   0.429   7.826  21.254 -0.0855 -0.2703  0.1245
 7838W        W50776   0.434  10.880  22.719  0.2775  0.1199 -0.3120
 7839W        W50777   1.812  10.746  21.272 -0.0897 -0.2409 -0.2809
 7840W        W50778  34.660   7.638  21.028  0.0705 -0.1744  0.1010
 7841W        W50779   2.587  10.694  22.001 -0.3006  0.1421  0.0876
 7842W        W50780   1.034   9.785  20.673 -0.0206  0.3011  0.1705
 7843W        W50781   1.262   9.587  21.907  0.2000  0.0309 -0.0671
 7844W        W50782   3.334   8.014  23.336  0.1776  0.0680 -0.1555
 7845W        W50783   1.940   7.991  22.852  0.0499 -0.0796  0.0004
 7846W        W50784   1.595   7.665  23.046  0.0748  0.0991 -0.0683
 7847W        W50785  34.603   6.999  20.442  0.1449 -0.0992  0.1401
 7848W        W50786   2.954   8.253  21.640 -0.1636  0.0581 -0.0826
 7849W        W50787  34.331  11.793  20.037  0.2518  0.0345  0.1715
 7850W        W50788  34.400   8.949  20.772  0.0281 -0.1282  0.3622
 7851W        W50789   1.104  10.783  21.874 -0.0572 -0.0552  0.0207
 7852W        W50790   2.614   5.889  21.375 -0.1341  0.0106  0.3567
 7853W        W50791  33.595   8.544  23.959 -0.2073  0.0939 -0.0805
 7854W        W50792   2.513   7.359  23.261  0.0597 -0.1818 -0.0281
 7855W        W50793  33.508   8.559  20.341 -0.0704  0.0543  0.0548
 7856W        W50794   0.861   9.981  22.288  0.0716 -0.0162 -0.1711
 7857W        W50795   2.719   5.571  21.745 -0.0963 -0.0447 -0.1230
 7858W        W50796   2.857   7.751  21.225 -0.1752  0.1408 -0.3830
 7859W        W50797   2.617  10.706  23.397  0.2474  0.1207  0.0798
 7860W        W50798   2.700  10.630  20.850 -0.3118  0.1417  0.1238
 7861W        W50799   3.087   9.098  19.516 -0.2582 -0.2329  0.0058
 7862W        W50800   0.774   6.785  20.261  0.2131 -0.0039  0.0383
 7863W        W50801   0.907  10.634  23.493  0.4284 -0.1564  0.0335
 7864W        W50802   0.768  11.084  21.582 -0.4226 -0.0404 -0.3623
 7865W        W50803   2.230   7.904  22.467 -0.0875 -0.0981 -0.0233
 7866W        W50804  34.664   8.059  20.757 -0.0282  0.0217 -0.2122
 7867W        W50805   4.287  10.321  21.151 -0.1434 -0.3540  0.0900
 7868W        W50806   0.289   9.224  21.525  0.2166 -0.3320 -0.0592
 7869W        W50807   2.169   9.743  23.934 -0.0477  0.0453  0.2295
 7870W        W50808   1.119  10.028  21.155  0.2083 -0.0817  0.3239
 7871W        W50809   3.625   7.646  22.497  0.2350  0.4900  0.0788
 7872W        W50810   0.775   9.296  21.362 -0.1007 -0.0938  0.0706
 7873W        W50811   2.012   6.264  22.009  0.1332 -0.0145  0.1410
 7874W        W50812   0.503  11.694  19.541 -0.0760  0.0731  0.0982
 7875W        W50813   3.601   7.256  21.912  0.0708  0.0517  0.3832
 7876W        W50814   1.680   7.633  21.573  0.1678 -0.0551  0.0239
 7877W        W50815   2.083   6.054  23.584  0.1812 -0.0987 -0.2015
 7878W        W50816   4.594   8.355  24.013 -0.0234  0.0839  0.0234
 7879W        W50817   1.818   8.945  18.889 -0.0861  0.0300  0.3312
 7880W        W50818   3.040   8.807  21.738 -0.0321 -0.1904 -0.2563
 7881W        W50819   1.028   7.295  19.488  0.1611  0.1387 -0.1457
 7882W        W50820   1.899   7.013  22.566  0.0914  0.0652 -0.2290
 7883W        W50821   1.002   9.110  22.101 -0.2795  0.1325 -0.0228
 7884W        W50822  33.910  10.819  22.474  0.3203  0.2613  0.1122
 7885W        W50823   3.637   8.942  24.183 -0.1471 -0.0890  0.2224
 7886W        W50824   1.656   9.771  20.903 -0.2882  0.2338  0.3747
 7887W        W50825   0.599   7.414  22.377 -0.1149  0.0329  0.0136
 7888W        W50826   0.583   6.817  21.234  0.0287  0.0863  0.0644
 7889W        W50827   1.760  11.244  21.230  0.1141  0.0402 -0.1849
 7890W        W50828  34.448  10.783  21.515  0.3084 -0.1064 -0.0176
 7891W        W50829   1.220   7.000  22.588 -0.0374  0.3332  0.0481
 7892W        W50830   0.386   9.719  21.490 -0.1385  0.1209  0.0327
 7893W        W50831  34.353   9.466  19.428 -0.0315 -0.0236  0.1440
 7894W        W50832   3.143   7.737  22.506 -0.2983  0.1391 -0.2080
 7895W        W50833   1.343   9.381  20.676 -0.2371  0.3430 -0.0289
 7896W        W50834   4.169   9.036  20.430  0.1032 -0.5379 -0.2603
 7897W        W50835   0.028  10.278  21.614 -0.0283 -0.0223  0.0404
 7898W        W50836   0.868   6.442  20.891 -0.0776 -0.0720 -0.1866
 7899W        W50837   0.037   7.402  19.360 -0.0161  0.1556  0.0732
 7900W        W50838   1.775   6.913  20.245  0.1849  0.1258 -0.1128
 7901W        W50839   3.488   8.982  20.241  0.0186 -0.4739 -0.1180
 7902W        W50840   0.287   7.247  22.812  0.1513  0.2475 -0.1545
 7903W        W50841   2.843   8.220  23.140  0.0919 -0.0582 -0.1858
 7904W        W50842  34.255  10.125  21.258  0.1727 -0.0334  0.0319
 7905W        W50843   3.765   7.781  21.948  0.2240  0.2581 -0.0687
 7906W        W50844   1.224   7.675  19.887  0.0493 -0.1137  0.0706
 7907W        W50845   3.147   9.828  22.353 -0.1664 -0.4129  0.1049
 7908W        W50846   1.339   8.196  23.603  0.3309 -0.1070  0.0601
 7909W        W50847  33.613   7.203  21.681 -0.0102 -0.2286  0.2413
 7910W        W50848   3.909   7.170  21.434 -0.0353 -0.0007  0.3326
 7911W        W50849   1.209   7.576  21.301  0.1188 -0.0815  0.1712
 7912W        W50850   0.162  10.306  20.349  0.0683  0.1890 -0.1205
 7913W        W50851   1.942   9.091  22.404  0.1874  0.0168 -0.1303
 7914W        W50852   0.855   7.666  20.410  0.1940 -0.1470  0.2875
 7915W        W50853   0.246  10.226  20.869 -0.0279  0.1391  0.0177
 7916W        W50854   1.624   6.698  22.799 -0.4291  0.1506 -0.0855
 7917W        W50855   2.939   9.169  21.262  0.1329  0.0413 -0.2040
 7918W        W50856   1.395   7.963  22.630 -0.3000  0.1024  0.1498
 7919W        W50857   2.181   6.104  21.197 -0.1349 -0.2766  0.1487
 7920W        W50858   0.152   8.601  21.990  0.0143 -0.0873 -0.1230
 7921W        W50859   2.058   8.639  21.948 -0.1805  0.2547 -0.1635
 7922W        W50860   3.246   7.741  21.571  0.2219  0.2298 -0.0076
 7923W        W50861   2.266   8.971  22.811  0.2566  0.0580 -0.1556
 7924W        W50862   0.439   6.460  21.687  0.0797 -0.4334  0.2480
 7925W        W50863   5.216  10.064  20.397 -0.0048  0.1449  0.0494
 7926W        W50864   1.099   7.111  21.516  0.1967 -0.1317 -0.1397
 7927W        W50865  34.673   8.786  20.346  0.1466 -0.1449 -0.3702
 7928W        W50866   0.553   8.838  22.113 -0.2078  0.1887  0.0563
 7929W        W50867   1.157   9.057  21.100  0.1196  0.0198  0.1037
 7930W        W50868   1.363   6.730  21.665 -0.0299 -0.2788 -0.0169
 7931W        W50869  34.406   8.756  22.442  0.0120 -0.1910  0.2734
 7932W        W50870   2.450   9.891  21.320 -0.0722  0.0922 -0.1236
 7933W        W50871   0.582   9.561  22.318  0.1353 -0.2809 -0.0447
 7934W        W50872   2.580   7.555  20.659  0.2950 -0.0145 -0.1374
 7935W        W50873   1.591   8.860  20.960  0.1333 -0.0797  0.1279
 7936W        W50874   0.602   8.618  20.745 -0.0517  0.0581  0.2503
 7937W        W50875   3.696   7.672  21.486  0.1554  0.0422 -0.2034
 7938W        W50876   3.682  10.260  20.116 -0.0589 -0.0583 -0.0715
 7939W        W50877   2.662   6.630  22.419  0.1385 -0.2401 -0.2694
 7940W        W50878   0.660   6.728  23.248  0.1362 -0.0470 -0.1299
 7941W        W50879   2.627  10.748  21.508  0.1158  0.3129  0.0343
 7942W        W50880   0.095   7.948  24.952 -0.1683 -0.3309  0.2879
 7943W        W50881   2.503  11.555  23.541  0.2307  0.0089  0.2217
 7944W        W50882   0.768   7.833  23.332 -0.4166  0.1829 -0.0908
 7945W        W50883   1.624   6.215  22.382 -0.3332 -0.2190  0.3011
 7946W        W50884   0.449   6.502  20.532  0.3089 -0.3107 -0.0137
 7947W        W50885   0.497   9.418  20.437  0.1909 -0.2254 -0.0260
 7948W        W50886   2.117   9.094  21.698 -0.3264 -0.1566  0.3030
 7949W        W50887   2.050  10.076  21.622  0.1633  0.0912  0.1758
 7950W        W50888   2.297   7.463  22.732  0.0840  0.2079  0.3826
 7951W        W50889   1.226   9.209  21.633  0.1941 -0.4023 -0.1402
 7952W        W50890   1.932   8.242  20.950  0.0377  0.1491  0.0746
 7953W        W50891   1.490   8.850  19.833  0.1051 -0.0724  0.2803
 7954W        W50892   0.318   8.237  21.607 -0.2023 -0.2953 -0.3282
 7955W        W50893   0.911   7.802  22.399 -0.1136 -0.2839 -0.0054
 7956W        W50894   3.050   8.013  22.069 -0.1679 -0.0286 -0.0693
 7957W        W50895   1.498   7.227  19.795 -0.0154  0.2501 -0.2630
 7958W        W50896   1.630   7.309  23.507 -0.2646  0.1302  0.3874
 7959W        W50897   2.813   8.582  22.359 -0.2570 -0.0190 -0.1555
 7960W        W50898   1.210   8.141  22.028 -0.1595  0.3246  0.0511
 7961W        W50899   0.267   7.020  23.472 -0.2176  0.1875 -0.2166
 7962W        W50900   3.126  10.585  23.580  0.2029  0.1243  0.1535
 7963W        W50901   3.776   6.824  20.119  0.2119 -0.1612 -0.0589
 7964W        W50902   2.435   8.981  22.371 -0.1097  0.3211  0.4716
 7965W        W50903   2.160   8.046  20.009 -0.0088 -0.0005 -0.1039
 7966W        W50904   1.759   7.867  20.188 -0.2148  0.0359  0.0345
 7967W        W50905  34.375   6.925  23.186 -0.1028 -0.1137  0.0392
 7968W        W50906   2.224   9.378  23.633 -0.1663 -0.1403  0.2197
 7969W        W50907  34.636   8.138  19.066  0.1673 -0.1418 -0.1842
 7970W        W50908   3.210   8.536  21.182  0.2913 -0.2028  0.1728
 7971W        W50909   1.985  10.684  20.317  0.1464  0.0558  0.2810
 7972W        W50910   3.005   9.898  21.797 -0.1388 -0.1719 -0.0654
 7973W        W50911   2.390   7.788  21.320  0.1054 -0.0575  0.0865
 7974W        W50912  33.650   7.263  22.635  0.1534  0.1915 -0.1616
 7975W        W50913   1.699   8.679  23.292 -0.0105 -0.1172 -0.2896
 7976W        W50914   0.868   8.032  19.680  0.1059  0.2210 -0.0028
 7977W        W50915   0.919   8.139  20.689 -0.0266 -0.2626  0.1037
 7978W        W50916   2.267   9.462  22.295 -0.2283 -0.0591 -0.1493
 7979W        W50917   3.042   9.164  23.157  0.0057 -0.0041  0.0094
 7980W        W50918   1.509   4.866  21.370 -0.0780  0.0356  0.2098
 7981W        W50919   3.461   8.009  22.806  0.0289 -0.2160  0.0025
 7982W        W50920   0.964  10.603  21.295  0.0324 -0.0981  0.0782
 7983W        W50921   1.840   7.552  22.603  0.1809 -0.1471  0.1076
 7984W        W50922   0.568  11.726  22.204  0.0414 -0.1211  0.0110
 7985W        W50923   0.462  10.375  22.491 -0.1119  0.1393  0.0618
 7986W        W50924   1.000  10.265  21.674 -0.0802  0.1646  0.4100
 7987W        W50925   1.971   7.015  22.045 -0.2724 -0.2788  0.0079
 7988W        W50926   2.897   7.160  21.545  0.1220 -0.1526  0.0196
 7989W        W50927   1.280   7.455  22.655  0.1045 -0.3161  0.0916
 7990W        W50928   3.705   9.366  21.810  0.2859 -0.3205 -0.0103
 7991W        W50929   3.136   8.337  22.615  0.3659  0.3229  0.0514
 7992W        W50930   0.816   8.342  21.679  0.0946  0.0021  0.0600
 7993W        W50931   2.977  10.853  22.756  0.1777 -0.4016  0.0519
 7994W        W50932   2.250   9.188  20.168 -0.1838  0.0894 -0.5065
 7995W        W50933   1.631   8.417  20.098 -0.0461  0.2251 -0.3403
 7996W        W50934   0.666   9.271  24.797 -0.2160  0.2248 -0.0645
 7997W        W50935   3.138   9.465  22.735 -0.1443 -0.0569  0.1829
 7998W        W50936   2.366   8.254  21.461 -0.3489  0.0542 -0.2955
 7999W        W50937   0.388   6.900  22.441 -0.1974  0.2719  0.0720
 8000W        W50938   0.930   8.910  20.635  0.0006  0.0817  0.1705
 8001W        W50939   0.041   9.661  23.069 -0.3007 -0.3445  0.0161
 8002W        W50940  34.585   8.650  22.952 -0.0780 -0.1134 -0.0856
 8003W        W50941   1.851  10.436  20.769  0.0190  0.1822  0.0090
 8004W        W50942   3.474   8.692  19.583  0.2240  0.0024 -0.3228
 8005W        W50943   1.340   8.020  21.513 -0.0473 -0.0444  0.2058
 8006W        W50944   1.964  11.679  21.436 -0.1997 -0.0910 -0.0768
 8007W        W50945   0.722   7.835  21.637  0.0486  0.0313  0.0712
 8008W        W50946   0.543  10.220  21.341 -0.1910  0.0198  0.0788
 8009W        W50947   0.614   9.831  21.018 -0.2367  0.1704 -0.0742
 8010W        W50948   3.321   9.985  19.859 -0.0811  0.0099  0.1889
 8011W        W50949  34.663  10.633  22.972 -0.1143  0.1222  0.0578
 8012W        W50950   2.859   9.718  23.238  0.0322 -0.0015  0.0739
 8013W        W50951   1.877   8.481  19.111  0.0692  0.0786 -0.2673
 8014W        W50952   2.577   8.033  20.363  0.0629 -0.2652 -0.0487
 8015W        W50953   2.129   7.748  20.503  0.1157  0.1820  0.3815
 8016W        W50954   2.287  10.084  22.086  0.0632  0.1419 -0.3425
 8017W        W50955   0.824   8.945  21.671  0.0718 -0.0633  0.3929
 8018W        W50956   2.554   5.851  20.432 -0.2845  0.0497 -0.0821
 8019W        W50957   0.868   7.737  20.983 -0.2118 -0.2513 -0.0106
 8020W        W50958   2.310   8.854  24.258  0.1828  0.2791  0.0464
 8021W        W50959  34.510   9.465  24.001 -0.0587  0.0105 -0.1022
 8022W        W50960   3.506   9.800  20.613 -0.0102  0.1076  0.0549
 8023W        W50961  34.361   6.613  21.262 -0.3920  0.2720  0.0730
 8024W        W50962   0.773   7.240  21.127  0.1970  0.1979  0.1784
 8025W        W50963   3.816   7.931  21.029  0.0071 -0.2176  0.1095
 8026W        W50964   1.198   8.585  21.704 -0.2475  0.0285 -0.5257
 8027W        W50965   1.572   7.757  22.184  0.3763 -0.0454 -0.0482
 8028W        W50966   0.768  10.427  22.081  0.3460  0.3530  0.2216
 8029W        W50967   1.087  10.378  22.615  0.1825 -0.0093 -0.2247
 8030W        W50968   2.127   9.659  21.860 -0.0627  0.2769 -0.1026
 8031W        W50969  34.442   6.148  21.020 -0.0525  0.2456  0.2059
 8032W        W50970   2.133   7.689  21.735  0.0847 -0.1937  0.1830
 8033W        W50971   0.612   7.366  21.822 -0.0966 -0.1075  0.0816
 8034W        W50972   4.143   6.700  21.322  0.1180 -0.1246 -0.0171
 8035W        W50973  34.153   7.405  21.211 -0.0843 -0.2069 -0.2934
 8036W        W50974   2.351   7.131  22.259  0.1075 -0.1295  0.0968
 8037W        W50975   3.822   9.146  22.558  0.0540  0.1196 -0.0205
 8038W        W50976   1.830   8.153  22.343  0.1977  0.1338 -0.0471
 8039W        W50977   1.036   7.375  20.732  0.0173  0.0676  0.0203
 8040W        W50978   3.629   9.939  22.379 -0.2296 -0.3694 -0.3326
 8041W        W50979   1.749   9.225  20.110 -0.0826  0.0922  0.0020
 8042W        W50980   2.618   8.977  23.678 -0.2279  0.1659  0.0326
 8043W        W50981  34.171   6.938  21.598 -0.0471  0.1302  0.2569
 8044W        W50982   1.839   7.415  20.139  0.3715 -0.0271 -0.0914
 8045W        W50983   0.802   8.621  21.283  0.0603  0.0786  0.2095
 8046W        W50984   0.524   7.484  20.770 -0.0916  0.2720  0.0894
 8047W        W50985   2.050  10.320  22.864 -0.1672  0.1761 -0.3669
 8048W        W50986  34.342   5.881  21.509 -0.1484  0.0875 -0.0263
 8049W        W50987   1.849   9.225  20.601  0.0071 -0.3356  0.0551
 8050W        W50988   1.975   7.531  21.052 -0.0933  0.2478  0.1697
 8051W        W50989   0.267  12.170  20.882  0.1082  0.0329  0.1336
 8052W        W50990   2.259   8.591  21.047 -0.2347 -0.2687  0.0662
 8053W        W50991   2.639  10.247  21.656 -0.2895  0.1251 -0.1510
 8054W        W50992  34.520   7.541  22.769  0.1639  0.0002 -0.0121
 8055W        W50993   3.226  10.100  23.426  0.0326 -0.0932  0.5207
 8056W        W50994   2.870   9.331  20.788  0.2274  0.1511  0.0712
 8057W        W50995   2.151   5.638  21.339  0.0836 -0.1173  0.2265
 8058W        W50996   0.075   7.803  21.602  0.0621 -0.2465  0.0188
 8059W        W50997   0.450  10.799  22.209 -0.2773 -0.2773 -0.0490
 8060W        W50998   3.609   8.288  20.676 -0.0071 -0.1154 -0.1281
 8061W        W50999   4.754   7.161  23.397 -0.2697 -0.2191 -0.1036
 8062W        W51000   1.126  11.886  20.217  0.0261 -0.0825 -0.0437
 8063W        W51001   2.804   6.490  22.880 -0.4283  0.0339 -0.0937
 8064W        W51002   1.723   9.459  22.629  0.1050 -0.0800  0.3194
 8065W        W51003   1.414   9.053  22.436  0.2614  0.0612  0.2378
 8066W        W51004  34.477   9.657  18.967 -0.2139 -0.0816 -0.1210
 8067W        W51005   1.526   8.951  21.899  0.0236 -0.5153  0.0312
 8068W        W51006   2.559   9.929  20.375  0.0359 -0.2042  0.1576
 8069W        W51007   1.474   9.945  21.628  0.0602 -0.2356  0.0244
 8070W        W51008   2.454  11.274  20.088  0.1254  0.1092  0.1336
 8071W        W51009   1.479   7.130  23.015  0.1632 -0.3766 -0.0853
 8072W        W51010   2.639   9.423  20.395 -0.0388 -0.1427 -0.1582
 8073W        W51011   1.901   6.213  22.889 -0.1312  0.3594  0.3981
 8074W        W51012   4.513   7.868  20.830  0.1810  0.4561  0.0492
 8075W        W51013   2.113   5.511  20.314  0.0626 -0.1805 -0.1241
 8076W        W51014   1.656   9.388  22.086 -0.0398 -0.2305  0.0654
 8077W        W51015  33.481   9.837  20.016 -0.0314 -0.1810 -0.1466
 8078W        W51016  34.632   7.891  19.542  0.1344  0.1496 -0.4641
 8079W        W51017   0.319   9.417  21.072  0.1294  0.0114  0.2200
 8080W        W51018   1.053   8.467  24.422 -0.0741  0.0352 -0.2715
 8081W        W51019   1.136   8.794  22.915 -0.3335 -0.0524 -0.2834
 8082W        W51020   0.365   8.349  21.110 -0.0366 -0.1636 -0.2949
 8083W        W51021  34.520   5.669  20.650  0.1208  0.0806  0.1120
 8084W        W51022   3.941   9.658  20.938  0.1403  0.0644  0.0433
 8085W        W51023   0.374   6.495  22.176 -0.2749  0.1432 -0.3651
 8086W        W51024  33.974   7.461  21.905 -0.1866  0.3185  0.0252
 8087W        W51025   2.045   9.030  21.119  0.0747 -0.2691  0.0909
 8088W        W51026   2.924   8.953  20.449 -0.1517  0.2919 -0.3180
 8089W        W51027   0.267   6.911  21.883  0.1616  0.2037  0.0383
 8090W        W51028   3.708  11.405  23.880 -0.2141  0.0880 -0.0116
 8091W        W51029   0.446   7.994  20.771 -0.0858 -0.1164 -0.1948
 8092W        W51030   2.844   7.706  23.020 -0.0942 -0.1593 -0.2970
 8093W        W51031   0.277   8.081  23.927  0.0416 -0.1035  0.0953
 8094W        W51032  34.227   7.406  20.254 -0.1004  0.2168 -0.0237
 8095W        W51033   2.054   7.366  23.671 -0.1165  0.2837 -0.1662
 8096W        W51034   1.636   9.458  21.594  0.0484 -0.3912  0.0542
 8097W        W51035   0.913  11.277  20.510  0.2486 -0.0004 -0.1471
 8098W        W51036   2.252   8.431  22.376  0.0566 -0.0562  0.2217
 8099W        W51037   1.210   9.936  23.695  0.1456  0.0393  0.1085
 8100W        W51038   0.817   7.040  22.853 -0.0227  0.1987 -0.3174
 8101W        W51039   1.597   9.312  21.128  0.2483  0.0751 -0.2189
 8102W        W51040   0.533   9.442  22.850  0.0123 -0.0427  0.4893
 8103W        W51041   4.346  10.127  21.654  0.0179 -0.1122 -0.0937
 8104W        W51042   3.547   6.701  21.192 -0.0799  0.0581 -0.1114
 8105W        W51043   4.396   9.179  19.269 -0.1788  0.0342  0.2810
 8106W        W51044  34.461   6.425  23.393  0.0756  0.0382 -0.2165
 8107W        W51045  34.288  10.533  22.379 -0.0815  0.0799  0.0784
 8108W        W51046   3.428   8.185  21.800 -0.2403 -0.0524 -0.1351
 8109W        W51047  34.695   7.310  23.194 -0.1085 -0.1810  0.0079
 8110W        W51048   1.496   7.478  20.906 -0.0313 -0.1794 -0.2555
 8111W        W51049   2.431   9.147  20.783  0.2194  0.0972  0.0208
 8112W        W51050  34.447   7.624  21.980  0.2016  0.4290  0.0853
 8113W        W51051   1.547   7.073  21.338  0.0675 -0.3370 -0.0850
 8114W        W51052   2.748   8.003  22.542 -0.0569 -0.1746  0.0929
 8115W        W51053   1.624   8.939  21.432  0.0627 -0.1550 -0.0140
 8116W        W51054   2.512   8.466  23.723  0.0854  0.3983 -0.2141
 8117W        W51055   0.293   6.987  20.779 -0.4682 -0.3035 -0.2593
 8118W        W51056   4.120   7.868  20.516  0.0503  0.0028  0.0173
 8119W        W51057   3.045  10.512  21.786  0.0315 -0.2604  0.3363
 8120W        W51058   3.424  10.719  25.491  0.0130 -0.0491 -0.0704
 8121W        W51059   3.357   8.491  23.149  0.1267 -0.0601 -0.0426
 8122W        W51060   1.624   8.339  21.765 -0.1583  0.1643  0.3522
 8123W        W51061   0.601   7.359  23.273 -0.0577 -0.0201  0.1871
 8124W        W51062   1.420   8.765  20.408  0.0217 -0.2959 -0.0410
 8125W        W51063   0.684   9.455  21.834  0.3810  0.0598 -0.2953
 8126W        W51064   1.995   7.179  23.067 -0.3367 -0.1777 -0.2599
 8127W        W51065   0.278   7.353  21.291 -0.2683 -0.0930  0.0189
 8128W        W51066   2.521   6.771  20.292  0.0513  0.1762 -0.0779
 8129W        W51067   1.753  10.322  21.964  0.0101 -0.0685  0.0154
 8130W        W51068   1.983   8.560  21.453  0.2523  0.1476 -0.0009
 8131W        W51069   0.329  10.236  26.757  0.0460 -0.1800  0.0812
 8132W        W51070  34.562   7.953  23.640 -0.1433  0.0835 -0.3232
 8133W        W51071   2.793   9.105  24.373 -0.2722 -0.1061  0.0378
 8134W        W51072   3.354   9.409  25.153  0.0474  0.0863  0.0132
 8135W        W51073  33.841   8.487  24.399 -0.3792 -0.4127  0.1285
 8136W        W51074   2.584   9.452  24.029  0.0719 -0.1363 -0.0757
 8137W        W51075   1.565   6.138  26.802 -0.2556  0.2949 -0.3736
 8138W        W51076   1.558  10.333  25.081 -0.0565  0.0443  0.0165
 8139W        W51077   2.604   9.129  26.741 -0.0567 -0.3741  0.0687
 8140W        W51078   1.740   8.772  24.155  0.0035 -0.2864 -0.2622
 8141W        W51079   1.781   8.543  26.092 -0.2351 -0.1921 -0.2406
 8142W        W51080   0.813  10.801  25.303 -0.0324  0.0565  0.0541
 8143W        W51081   2.425   7.669  23.633  0.2008  0.0079  0.1524
 8144W        W51082   2.245   6.546  26.968 -0.2304  0.1276 -0.1422
 8145W        W51083   1.979   8.529  27.116  0.1174  0.0260  0.2318
 8146W        W51084  34.424  10.376  24.405  0.0032  0.0191  0.1320
 8147W        W51085   0.824   9.181  25.748  0.0566 -0.2327 -0.1829
 8148W        W51086   1.570   8.497  24.744  0.0068 -0.1891 -0.1681
 8149W        W51087   1.140  10.968  25.846 -0.1688 -0.3148  0.1261
 8150W        W51088   1.381   7.507  26.410  0.1522 -0.1760 -0.0860
 8151W        W51089   1.665   7.060  26.240 -0.1382  0.2669 -0.3695
 8152W        W51090   0.981   9.720  23.293  0.1832 -0.1032  0.1130
 8153W        W51091   1.218   7.598  21.796 -0.0718 -0.0778 -0.0232
 8154W        W51092   0.292   8.784  25.548 -0.0508  0.2822 -0.1821
 8155W        W51093   2.618   9.752  27.368  0.1131  0.2601  0.4624
 8156W        W51094   2.982   9.033  25.277 -0.1372  0.2786 -0.2972
 8157W        W51095   4.395   8.538  24.920  0.0619  0.3283  0.2439
 8158W        W51096   0.832   9.706  24.703 -0.0584 -0.1044 -0.1497
 8159W        W51097   1.728  10.834  26.299  0.0379  0.1728 -0.0843
 8160W        W51098   3.305   8.543  26.989 -0.1423  0.2491 -0.1882
 8161W        W51099  34.554   8.912  24.436  0.2270  0.0303  0.0817
 8162W        W51100  33.961  10.634  25.129 -0.0401 -0.1004  0.1465
 8163W        W51101   0.729  10.027  23.812  0.2490  0.0048  0.0654
 8164W        W51102   2.859  10.142  25.769 -0.3069 -0.4428 -0.0423
 8165W        W51103   2.765   9.581  27.946 -0.3160  0.1026 -0.0796
 8166W        W51104   1.562   9.830  26.454 -0.1095  0.2586 -0.1053
 8167W        W51105   0.977   9.017  23.903  0.1316  0.0778  0.6030
 8168W        W51106   1.728  10.383  26.606  0.2533 -0.2520  0.1820
 8169W        W51107   1.907  12.023  25.617  0.2453  0.0874  0.1044
 8170W        W51108   0.897   8.633  25.639  0.1637 -0.0270  0.1383
 8171W        W51109   1.701   9.535  24.510  0.3500 -0.2174  0.0195
 8172W        W51110   0.958  10.520  24.067 -0.0223  0.0091  0.0341
 8173W        W51111   0.963   9.701  25.680 -0.2461  0.1754 -0.0143
 8174W        W51112   0.604   9.270  27.068  0.1888 -0.0182 -0.1860
 8175W        W51113   0.660  10.203  24.899 -0.0809 -0.1174 -0.0625
 8176W        W51114   2.829   7.519  28.432 -0.0048  0.2304 -0.3382
 8177W        W51115   2.396  10.545  25.488  0.0958  0.2759 -0.0640
 8178W        W51116   2.548   8.501  22.790  0.0639 -0.0589 -0.4169
 8179W        W51117   2.125   8.796  23.770 -0.2110  0.3294  0.1065
 8180W        W51118   1.952   7.998  24.582 -0.0678 -0.2321  0.0891
 8181W        W51119   2.146   7.554  24.514 -0.2318 -0.1141  0.0811
 8182W        W51120   0.674  10.057  25.471 -0.1456 -0.1479 -0.1675
 8183W        W51121   1.692   7.493  25.950 -0.1096 -0.2151 -0.3798
 8184W        W51122   3.005   9.978  27.151  0.0086 -0.1191 -0.0395
 8185W        W51123   1.269   8.564  23.971 -0.1895  0.2800  0.1777
 8186W        W51124   2.429   8.613  24.906  0.0306 -0.0669  0.1083
 8187W        W51125   0.030  10.583  26.494 -0.0335 -0.0609  0.2387
 8188W        W51126   0.608   9.655  25.156 -0.0781 -0.0220 -0.2490
 8189W        W51127   1.775  10.963  23.568  0.0740  0.1764 -0.1220
 8190W        W51128   3.911  11.014  25.313  0.0425  0.3172 -0.4332
 8191W        W51129   1.823  10.794  22.558 -0.2756  0.0846  0.1037
 8192W        W51130   0.072   8.406  24.746 -0.0525  0.7007 -0.1519
 8193W        W51131  34.209   8.250  27.094 -0.3552  0.3110 -0.2683
 8194W        W51132   2.085   8.585  27.703  0.0949  0.1831  0.1358
 8195W        W51133  34.556   6.844  23.662 -0.2205 -0.0842  0.0033
 8196W        W51134   2.865   9.401  26.453 -0.0876 -0.1243 -0.1677
 8197W        W51135   1.129  10.252  24.616  0.1829  0.0354 -0.0389
 8198W        W51136   2.393   7.353  26.454 -0.3008  0.0294  0.1842
 8199W        W51137   1.341   9.264  25.628  0.0905 -0.1060 -0.2253
 8200W        W51138   3.754   9.910  25.795  0.3187 -0.1291 -0.3127
 8201W        W51139   2.209  10.052  24.325 -0.1753 -0.2428  0.1610
 8202W        W51140   2.458   8.309  26.415 -0.0396 -0.1344 -0.0440
 8203W        W51141   3.970   7.816  26.083  0.1780 -0.0447 -0.2635
 8204W        W51142   0.892   8.341  23.286  0.1901 -0.2241  0.0668
 8205W        W51143   0.615   8.786  22.976 -0.2455  0.2975 -0.0980
 8206W        W51144   1.747   9.545  27.216 -0.0729 -0.2182 -0.1616
 8207W        W51145   3.378   8.765  22.737 -0.2062  0.2199 -0.1730
 8208W        W51146   0.693  12.280  27.398  0.2967  0.2872 -0.2135
 8209W        W51147   1.437   8.680  27.867 -0.2008  0.0237 -0.1638
 8210W        W51148   2.145  10.077  27.316 -0.2981  0.0266  0.4551
 8211W        W51149   0.358  10.092  22.927  0.1078  0.0089 -0.4403
 8212W        W51150  33.397   9.962  25.207  0.2678  0.0879  0.2654
 8213W        W51151   0.765  10.021  24.322  0.0455 -0.0006 -0.0215
 8214W        W51152   0.203   7.196  26.602 -0.1479  0.0906  0.1073
 8215W        W51153   1.591  10.273  26.133 -0.0259  0.0190 -0.2823
 8216W        W51154   2.829   7.600  23.975 -0.0297  0.1556  0.1573
 8217W        W51155  34.263   8.620  24.749 -0.2323  0.5247  0.0768
 8218W        W51156   3.297   7.463  24.370 -0.0941  0.0589 -0.0799
 8219W        W51157   0.907   8.854  24.759  0.3176 -0.1766 -0.2880
 8220W        W51158   2.791  10.217  24.868 -0.2640 -0.2704  0.1027
 8221W        W51159   3.091   8.456  23.583 -0.1726  0.1588 -0.3332
 8222W        W51160   3.113  11.943  24.055 -0.0413  0.1942 -0.0436
 8223W        W51161   0.215   8.387  25.254 -0.3428  0.1396  0.3918
 8224W        W51162   1.401  10.128  25.649 -0.0013  0.0997  0.1604
 8225W        W51163  34.470   8.495  26.183 -0.3109 -0.0221 -0.3685
 8226W        W51164   0.747   7.179  27.371 -0.1002 -0.0702 -0.1698
 8227W        W51165   2.890   9.146  25.855  0.0245 -0.1445  0.0333
 8228W        W51166   0.514   7.560  24.732  0.0960  0.1635 -0.1925
 8229W        W51167   2.135   8.572  25.526 -0.0557 -0.1962  0.1472
 8230W        W51168   1.217   8.743  23.492  0.3545 -0.1388 -0.2148
 8231W        W51169  32.918  10.534  25.384 -0.0729  0.0244 -0.4663
 8232W        W51170   3.284   8.210  27.448 -0.3141 -0.2851  0.1501
 8233W        W51171   2.455  11.163  24.296 -0.2464  0.0563  0.1690
 8234W        W51172   3.560  10.259  26.972  0.0759  0.2587  0.0765
 8235W        W51173   1.884   9.095  24.508 -0.0178  0.1699 -0.2174
 8236W        W51174   0.798   8.016  27.721  0.0962  0.0042 -0.2446
 8237W        W51175   0.353   7.876  25.430  0.0852  0.0905  0.0542
 8238W        W51176   1.371  10.697  24.523 -0.3209  0.0648  0.2391
 8239W        W51177   0.456   9.311  26.135 -0.0390 -0.1724 -0.0444
 8240W        W51178   2.270   7.781  24.908  0.0314 -0.3890 -0.2725
 8241W        W51179   4.204  10.708  24.134 -0.0580  0.0549 -0.1517
 8242W        W51180   1.844   9.966  25.257 -0.1236 -0.1390  0.0329
 8243W        W51181   1.728   8.997  26.911  0.0290  0.2540  0.1284
 8244W        W51182   2.493   7.953  26.038  0.1785  0.2707 -0.2614
 8245W        W51183   3.381   9.632  26.839 -0.0681  0.3293  0.0747
 8246W        W51184   1.915   9.051  25.449 -0.0841 -0.0279  0.3289
 8247W        W51185   0.808   7.807  23.903 -0.0459 -0.2017 -0.0871
 8248W        W51186   2.040  10.539  24.684  0.0134  0.0770 -0.2482
 8249W        W51187  33.620  11.513  22.689  0.2907 -0.1142 -0.1633
 8250W        W51188  33.962   8.221  24.796  0.0152 -0.1587  0.0012
 8251W        W51189   1.690  10.165  24.508  0.0774 -0.1162 -0.2120
 8252W        W51190   2.672   7.170  23.689  0.1647 -0.1205 -0.1549
 8253W        W51191   0.417  11.581  28.568 -0.2973 -0.0100 -0.0237
 8254W        W51192   2.230   9.495  27.082 -0.0949  0.0965 -0.0207
 8255W        W51193   0.712   8.302  23.811 -0.2838  0.0044  0.2666
 8256W        W51194  34.605  10.014  26.567  0.0212 -0.3369  0.2890
 8257W        W51195   1.696   6.326  24.651  0.0390 -0.0088 -0.2982
 8258W        W51196   2.843   7.334  22.577  0.0451 -0.0489 -0.2862
 8259W        W51197   0.861  10.431  28.704  0.3787 -0.5838  0.1052
 8260W        W51198   3.569  10.434  24.287  0.3984 -0.1669 -0.1622
 8261W        W51199   0.249   7.554  23.591  0.1294  0.4747 -0.0429
 8262W        W51200   3.028   7.589  23.490 -0.1293 -0.1166 -0.0860
 8263W        W51201   1.249   9.673  27.522  0.2606  0.0066  0.1285
 8264W        W51202   2.759   8.693  23.263  0.0515 -0.2741  0.0981
 8265W        W51203   2.131   9.399  25.120  0.0621  0.1723  0.1887
 8266W        W51204   0.815   7.334  23.688 -0.1001  0.0913  0.0913
 8267W        W51205   3.096   9.968  23.925 -0.1156  0.0813  0.1875
 8268W        W51206   0.097   8.136  26.176 -0.1776  0.2411  0.1955
 8269W        W51207   3.750   8.865  27.586  0.1266  0.1293  0.1787
 8270W        W51208   3.140  10.083  26.696 -0.0024  0.0139 -0.1070
 8271W        W51209   1.212   8.580  26.386  0.0330 -0.1730  0.3650
 8272W        W51210   2.419   7.943  23.100 -0.3014  0.2249  0.1200
 8273W        W51211   3.350   8.171  25.023 -0.2693  0.1614 -0.0620
 8274W        W51212  34.307  11.319  23.247  0.1405  0.2062 -0.4495
 8275W        W51213   2.933   8.067  25.733 -0.0651 -0.0310  0.1319
 8276W        W51214   0.303   8.637  26.040 -0.1081  0.0679  0.1762
 8277W        W51215   3.134   7.096  26.253  0.3173 -0.0870  0.3251
 8278W        W51216   3.282   7.955  26.150 -0.3933 -0.2204 -0.0234
 8279W        W51217   2.895   8.791  24.752  0.2860 -0.0038 -0.0784
 8280W        W51218   3.117   8.722  25.764  0.1827  0.1435 -0.0042
 8281W        W51219   2.004   8.529  22.899  0.1136  0.0433  0.2619
 8282W        W51220  34.209   7.512  25.644 -0.3355  0.0020  0.0400
 8283W        W51221   2.350  10.307  26.053 -0.2539  0.1651  0.3285
 8284W        W51222   0.824   8.767  26.115 -0.0812 -0.0530 -0.2934
 8285W        W51223   3.285   9.012  27.364 -0.0148  0.0364  0.1135
 8286W        W51224   2.441   8.954  25.291  0.0855 -0.0419 -0.4142
 8287W        W51225   1.835   8.029  26.542 -0.0144 -0.0587 -0.2046
 8288W        W51226   2.809   8.040  23.766  0.0098  0.0068 -0.4046
 8289W        W51227   2.425  12.048  23.631 -0.4014 -0.2023  0.1523
 8290W        W51228   1.663   8.923  22.841 -0.2594 -0.0153  0.1030
 8291W        W51229   1.403   7.348  25.097  0.3100  0.0088 -0.0390
 8292W        W51230   2.331  10.034  25.578 -0.0128  0.1093 -0.3122
 8293W        W51231   1.711   9.527  23.691  0.1691 -0.1444 -0.1918
 8294W        W51232   2.049   8.572  26.569 -0.0456  0.2360  0.0816
 8295W        W51233   0.611  10.638  24.405 -0.3044 -0.1085 -0.0413
 8296W        W51234   4.278   8.135  25.409  0.2070  0.0608  0.1231
 8297W        W51235  34.496  10.769  25.194  0.0150  0.2682  0.0396
 8298W        W51236   1.238   6.612  24.620  0.1301 -0.1134 -0.1221
 8299W        W51237  33.802   9.917  24.560  0.0745  0.1858  0.1022
 8300W        W51238   2.643   7.577  24.476 -0.2877  0.1580  0.0197
 8301W        W51239   2.645   9.920  24.145  0.0074 -0.0299  0.0269
 8302W        W51240   1.058   9.460  25.180 -0.2655 -0.0869 -0.0247
 8303W        W51241   2.824   6.396  26.164  0.0436  0.0196  0.0129
 8304W        W51242  34.553   9.738  25.519  0.0914  0.1627  0.0564
 8305W        W51243   1.582   8.749  25.704 -0.1265 -0.2157  0.1325
 8306W        W51244   3.152   7.170  23.811  0.1722 -0.3294 -0.2251
 8307W        W51245   2.214  10.576  26.439 -0.0492 -0.1397 -0.5299
 8308W        W51246   3.452  11.034  27.081 -0.2355  0.1628 -0.1847
 8309W        W51247   0.279   6.968  24.034  0.1844 -0.0626 -0.1065
 8310W        W51248   2.342   8.132  27.250  0.0843  0.1675 -0.3077
 8311W        W51249   1.034   8.985  25.233  0.0183 -0.0491  0.0741
 8312W        W51250   1.843  10.525  24.216  0.1047  0.2732  0.0927
 8313W        W51251   1.462   9.868  24.843 -0.1869 -0.0033  0.3649
 8314W        W51252  34.587   8.245  26.762  0.2093  0.1499  0.0707
 8315W        W51253  33.893   9.484  24.760 -0.2515 -0.1339  0.1118
 8316W        W51254   1.155   7.746  26.009  0.0287  0.2702 -0.4860
 8317W        W51255   2.855   8.235  27.109 -0.0195  0.1638  0.2632
 8318W        W51256   2.009   8.023  26.044 -0.2001  0.2385  0.0337
 8319W        W51257   0.209   9.440  24.951  0.1158 -0.1712 -0.2416
 8320W        W51258   1.412   8.964  24.932 -0.3648 -0.2840 -0.0184
 8321W        W51259   1.881   9.583  25.631 -0.2808  0.2153 -0.1182
 8322W        W51260   2.416   9.284  26.110  0.2031 -0.0407  0.2650
 8323W        W51261   0.554  11.320  26.800 -0.3729  0.1728 -0.0471
 8324W        W51262   2.093   7.318  26.926  0.1661 -0.0495 -0.2420
 8325W        W51263   3.361  11.409  24.355 -0.0248  0.0616  0.1504
 8326W        W51264   2.100   9.100  26.581  0.1135 -0.0504  0.1467
 8327W        W51265   1.743   8.196  23.257 -0.1511  0.0411  0.3902
 8328W        W51266   1.390   9.289  26.553  0.0272  0.2271 -0.0245
 8329W        W51267   1.240   9.347  24.664 -0.2874 -0.3488 -0.3393
 8330W        W51268   0.666   8.040  24.989  0.0015 -0.2246  0.2576
 8331W        W51269   0.431   9.649  25.614  0.0175  0.0647  0.0123
 8332W        W51270   0.788   9.545  23.815 -0.0475 -0.0894 -0.0518
 8333W        W51271   0.510   8.350  26.434  0.0427 -0.2111  0.1699
 8334W        W51272   3.757   8.372  22.758 -0.3437 -0.1001 -0.2300
 8335W        W51273   3.148  10.430  23.045  0.0274 -0.0132 -0.1796
 8336W        W51274   2.178   7.547  25.290  0.1123  0.2145  0.1220
 8337W        W51275   4.273   8.710  28.127  0.1364  0.1012  0.3015
 8338W        W51276   3.218   9.041  23.967 -0.1323  0.1343  0.1023
 8339W        W51277   1.554   7.693  26.818  0.2649 -0.0319 -0.0552
 8340W        W51278   1.170   7.079  26.515  0.0537  0.0190  0.1450
 8341W        W51279   3.624   8.968  25.148 -0.2090 -0.0718 -0.2571
 8342W        W51280   1.291   8.997  26.013 -0.1919 -0.0104  0.2213
 8343W        W51281   3.510  11.880  27.724 -0.0001  0.1559  0.3275
 8344W        W51282   0.486   8.262  28.090  0.0136  0.0672  0.1969
 8345W        W51283   2.892   8.469  25.094  0.1108  0.1357 -0.0107
 8346W        W51284   0.612   6.012  23.502  0.1114  0.0121  0.0726
 8347W        W51285   1.684   8.580  25.209  0.1516  0.1029 -0.0704
 8348W        W51286   2.835   9.606  26.876  0.3585  0.1056 -0.1215
 8349W        W51287   2.122   8.022  25.475 -0.1297 -0.0025  0.2312
 8350W        W51288   4.134   8.922  25.109  0.2186  0.1473 -0.4455
 8351W        W51289   1.447   9.674  25.402 -0.3882  0.0396 -0.4994
 8352W        W51290   3.585   8.366  23.659 -0.1682  0.0234  0.0737
 8353W        W51291   3.007   9.711  24.938 -0.0496 -0.1886  0.0234
 8354W        W51292   1.618   9.003  23.637  0.4455  0.4096  0.0192
 8355W        W51293   1.111   7.475  26.840 -0.0523 -0.0060 -0.1145
 8356W        W51294   2.531   9.827  25.095  0.1287  0.2155 -0.1580
 8357W        W51295   2.646   8.069  25.299 -0.4122  0.1159 -0.3838
 8358W        W51296   1.065   8.472  27.329  0.0133  0.3436 -0.0027
 8359W        W51297   3.148   9.458  27.215 -0.1211 -0.3116  0.4191
 8360W        W51298   1.889   9.488  26.262 -0.2495 -0.1971 -0.0306
 8361W        W51299  34.638   7.676  26.642  0.1520  0.0717 -0.2619
 8362W        W51300   3.263  10.521  26.436 -0.3085 -0.0557  0.1061
 8363W        W51301   3.382   7.464  22.973  0.1569  0.2228 -0.2150
 8364W        W51302   4.791   8.513  26.359  0.2495 -0.0475  0.0369
 8365W        W51303   4.175   9.099  25.701  0.1758  0.0760 -0.3684
 8366W        W51304   2.114   8.058  23.671 -0.0023 -0.2740 -0.4059
 8367W        W51305   1.245   8.100  26.513 -0.3421 -0.0551 -0.0049
 8368W        W51306   2.310   7.822  26.551 -0.3948  0.3362  0.0419
 8369W        W51307   0.726   8.537  25.155  0.1501 -0.0017 -0.3554
 8370W        W51308   1.830   8.345  28.184 -0.1780  0.3997 -0.3427
 8371W        W51309   2.072  11.027  25.191  0.2160  0.0432 -0.3649
 8372W        W51310   1.227   9.818  24.363 -0.1107 -0.0556  0.0875
 8373W        W51311   3.878   8.096  24.847  0.0218 -0.0433 -0.0274
 8374W        W51312  34.130   7.448  26.788 -0.4498  0.1820 -0.0200
 8375W        W51313   0.648  11.145  28.685 -0.1257  0.2843 -0.2608
 8376W        W51314   0.823   6.707  22.295 -0.2787 -0.0335 -0.0320
 8377W        W51315   1.555   9.305  23.232  0.1290  0.0927 -0.1750
 8378W        W51316   2.234   9.509  24.450  0.4360  0.0153 -0.0067
 8379W        W51317   2.431   8.849  26.360 -0.0487  0.1331 -0.0433
 8380W        W51318   1.898   6.246  24.042 -0.3190  0.0515 -0.0376
 8381W        W51319   3.608   9.242  27.055 -0.0105  0.2228 -0.1960
 8382W        W51320   0.749  11.461  24.966  0.0210 -0.1127  0.1901
 8383W        W51321   1.583   7.423  24.028  0.2670 -0.3641 -0.3208
 8384W        W51322   1.835  10.864  26.784 -0.0540  0.0363  0.0305
 8385W        W51323  34.463   9.691  25.074 -0.2091 -0.1459 -0.0288
 8386W        W51324   1.422  10.293  24.160 -0.1543 -0.1311  0.1711
 8387W        W51325   2.601   7.347  25.986 -0.1482  0.3193  0.2456
 8388W        W51326   2.682   8.083  24.799  0.1129 -0.0980 -0.1173
 8389W        W51327   1.742   8.275  25.667 -0.4068  0.0063  0.0045
 8390W        W51328   4.434   8.253  25.881 -0.0328  0.3279 -0.2885
 8391W        W51329   1.614  10.097  27.453  0.0998  0.2463 -0.0125
 8392W        W51330   1.611   8.895  26.372  0.0087  0.1021 -0.2235
 8393W        W51331   0.997  10.997  26.423 -0.1862 -0.1044  0.0720
 8394W        W51332   3.439   9.623  24.554 -0.4351 -0.2246  0.0658
 8395W        W51333   0.802  10.205  26.429 -0.5102  0.0033 -0.3964
 8396W        W51334   0.354   7.778  26.395  0.1908  0.1916  0.2446
 8397W        W51335   2.299   8.952  27.121 -0.0262 -0.0434  0.0490
 8398W        W51336   1.591   9.403  25.019  0.0934 -0.2306  0.0989
 8399W        W51337   1.144   7.810  24.979 -0.1900 -0.1826  0.1650
 8400W        W51338   0.759   9.257  23.336 -0.0956 -0.2740 -0.0698
 8401W        W51339   0.180   9.943  25.165 -0.0322  0.0828 -0.0556
 8402W        W51340   1.203  10.064  27.152 -0.2650 -0.1435 -0.2808
 8403W        W51341   0.373  11.186  25.295 -0.4138  0.1293 -0.2136
 8404W        W51342   1.816  10.550  23.309 -0.0657 -0.2488 -0.2921
 8405W        W51343   2.895   9.404  23.637  0.1256 -0.5457  0.2520
 8406W        W51344   2.390   9.569  26.573  0.1455 -0.1399  0.0495
 8407W        W51345   1.134   7.307  23.263  0.3333 -0.0896 -0.0909
 8408W        W51346   1.349  11.050  25.334  0.0345  0.0932 -0.0970
 8409W        W51347   0.344  10.192  24.161 -0.0203  0.3100  0.0533
 8410W        W51348   2.014   9.221  24.015  0.0680  0.2592 -0.2665
 8411W        W51349   1.133  11.116  24.818 -0.0656  0.1551 -0.4124
 8412W        W51350   3.811   9.773  26.979  0.0510 -0.0935  0.0703
 8413W        W51351   2.902   7.992  24.318 -0.1032  0.0144  0.1919
 8414W        W51352   2.982   9.990  25.331  0.3876 -0.1200 -0.2430
 8415W        W51353   3.770   7.713  23.134  0.0318  0.2645 -0.0356
 8416W        W51354   1.662  10.452  27.102 -0.0009  0.1863 -0.1026
 8417W        W51355   2.418   9.943  26.892 -0.0598 -0.0130 -0.0683
 8418W        W51356   1.864   7.142  25.176 -0.1131 -0.1763  0.2364
 8419W        W51357   0.752   9.710  26.112 -0.1624  0.1188  0.0743
 8420W        W51358   3.052   6.722  27.285 -0.2501  0.5425  0.1672
 8421W        W51359  34.240  12.175  28.201  0.0257  0.0180 -0.0425
 8422W        W51360   1.473  10.320  22.886 -0.0622 -0.4383 -0.1095
 8423W        W51361  34.151   7.758  24.947 -0.1222  0.1609  0.1114
 8424W        W51362   1.371   8.879  24.451  0.3420  0.2471 -0.1524
 8425W        W51363   3.188   7.747  27.040 -0.1621 -0.0468  0.1165
 8426W        W51364   3.958   9.281  23.705 -0.0030  0.3569  0.1197
 8427W        W51365   2.625   8.444  24.438 -0.1774 -0.0874  0.0677
 8428W        W51366  34.632  10.316  23.847  0.0710 -0.0486  0.0358
 8429W        W51367   0.902  10.412  25.755 -0.0972 -0.0803  0.2952
 8430W        W51368   1.161   9.995  26.112  0.1205 -0.0547  0.2238
 8431W        W51369  34.688   6.890  24.828  0.1078  0.3628  0.0787
 8432W        W51370   3.187   9.204  24.681 -0.1295  0.2409 -0.0065
 8433W        W51371   2.176   9.587  27.557 -0.3210 -0.0730 -0.0712
 8434W        W51372   3.557   8.670  26.548  0.3018  0.1753  0.1215
 8435W        W51373   2.314  10.713  24.201 -0.2621 -0.0145  0.2663
 8436W        W51374   3.220   8.297  24.117 -0.0209  0.1564 -0.0613
 8437W        W51375   2.641   9.298  24.942  0.0335  0.1018  0.0217
 8438W        W51376   1.875   9.501  26.750  0.0816  0.1927 -0.0324
 8439W        W51377   1.674   8.231  24.188 -0.0352  0.3187  0.0556
 8440W        W51378   3.289   9.415  26.138  0.0377  0.1911 -0.0108
 8441W        W51379   2.626   9.389  22.684  0.2207 -0.0902  0.0239
 8442W        W51380   2.042   9.969  26.541  0.2577  0.0584  0.0253
 8443W        W51381   0.072   7.738  25.841  0.1454 -0.3857  0.0986
 8444W        W51382   1.604   8.129  25.089  0.0972  0.4158  0.0966
 8445W        W51383   1.027  10.017  25.169  0.0127 -0.0437  0.2808
 8446W        W51384   2.390   9.494  25.570  0.0884  0.1685  0.2710
 8447W        W51385   3.012  10.040  27.651 -0.1637 -0.2034  0.0278
 8448W        W51386  33.815   7.585  25.280  0.0598 -0.0631  0.5289
 8449W        W51387   3.429   8.824  23.524 -0.0024 -0.0463 -0.2355
 8450W        W51388   3.404   9.188  25.663 -0.1513  0.2040  0.0860
 8451W        W51389   0.292  10.685  23.386 -0.2172  0.0865  0.0657
 8452W        W51390   2.736   9.698  25.882  0.3621  0.3684  0.1230
 8453W        W51391   1.852  10.621  25.373  0.1526 -0.0523  0.0741
 8454W        W51392   0.299   7.898  26.961 -0.1702  0.0224  0.1258
 8455W        W51393   2.302  11.086  26.661  0.0168 -0.5002  0.1516
 8456W        W51394   3.648   9.797  26.379 -0.1344  0.2917  0.0137
 8457W        W51395   1.890   7.153  24.551  0.0915 -0.0420 -0.0974
 8458W        W51396  34.519   7.123  25.712  0.1150 -0.1967 -0.0687
 8459W        W51397  34.175  11.239  25.006 -0.1372 -0.2619 -0.0684
 8460W        W51398   2.855   8.684  24.038 -0.0945  0.1291  0.0463
 8461W        W51399   2.862   9.524  25.390 -0.0513 -0.0563  0.0942
 8462W        W51400  33.949   9.549  23.334  0.0293 -0.1055  0.3179
 8463W        W51401   3.575   7.428  26.165  0.0187  0.2886  0.1981
 8464W        W51402   1.118   9.581  26.986 -0.1013  0.1559 -0.0691
 8465W        W51403   1.349  10.778  27.777  0.1756 -0.0706  0.1000
 8466W        W51404  34.474   6.711  24.402 -0.2470  0.0742  0.1727
 8467W        W51405   1.339   9.481  26.118  0.1418 -0.3417 -0.0398
 8468W        W51406   0.342   9.608  24.115  0.0402  0.1991 -0.2564
 8469W        W51407   2.068  10.682  25.897 -0.1683  0.0386 -0.0676
 8470W        W51408   4.125  11.144  26.281 -0.1331  0.1646  0.0473
 8471W        W51409   2.014   8.528  24.570 -0.0868 -0.0658  0.1529
 8472W        W51410   3.235   9.640  25.710 -0.1342 -0.2195  0.0652
 8473W        W51411   1.124   8.339  24.900 -0.1390  0.0436 -0.0236
 8474W        W51412   3.807   7.182  23.221  0.3654  0.0174  0.1607
 8475W        W51413   1.978   7.769  24.076  0.1191 -0.0583 -0.0661
 8476W        W51414   0.244  10.066  27.356 -0.0465  0.0078  0.1501
 8477W        W51415   0.372   9.799  24.596 -0.1873  0.1395  0.2072
 8478W        W51416  34.497  10.296  25.073 -0.1366  0.0543  0.1562
 8479W        W51417   0.095   9.667  25.979 -0.1356  0.3224 -0.0215
 8480W        W51418   2.823   7.020  27.666  0.1669 -0.0427  0.0632
 8481W        W51419   1.580   8.538  26.763  0.1243  0.2285 -0.1669
 8482W        W51420  34.147   8.513  25.758 -0.1538 -0.2759 -0.0286
 8483W        W51421   1.082   7.393  24.082 -0.2084  0.1056  0.0084
 8484W        W51422   3.917  11.515  23.419  0.0094 -0.1423 -0.0070
 8485W        W51423   1.279   8.325  25.388  0.5150  0.2350  0.2441
 8486W        W51424   0.275   6.969  25.584  0.4556  0.0220 -0.0323
 8487W        W51425   2.047   8.942  24.969 -0.1581 -0.1666  0.0959
 8488W        W51426   3.015  10.702  24.737  0.0590  0.1831 -0.1384
 8489W        W51427   0.982   7.954  25.533  0.0950  0.1828 -0.0817
 8490W        W51428   2.573   9.361  28.374  0.1036 -0.2045  0.1349
 8491W        W51429   1.002   8.263  22.708  0.0147  0.2058 -0.5210
 8492W        W51430   2.298   8.477  25.972  0.1161  0.0514  0.0154
 8493W        W51431   2.377   7.819  27.728  0.2529  0.1637  0.1324
 8494W        W51432  33.723   8.082  24.125  0.1090 -0.2326  0.0975
 8495W        W51433   2.635   7.655  25.562  0.0781  0.0646 -0.0049
 8496W        W51434   0.507  10.157  23.372  0.1594 -0.1414  0.1215
 8497W        W51435   3.213  10.585  25.930  0.1985 -0.1892 -0.1061
 8498W        W51436   1.655   9.844  25.942 -0.2185  0.4455  0.1566
 8499W        W51437   2.002  10.139  27.889  0.4574 -0.0468  0.3967
 8500W        W51438   1.854   8.138  27.660  0.1278 -0.1159 -0.1186
 8501W        W51439   4.385   8.624  25.492  0.0569 -0.2803  0.0579
 8502W        W51440   2.671  10.946  27.558  0.4752 -0.4840  0.0354
 8503W        W51441   3.525   9.049  23.111  0.0425  0.0952 -0.4457
 8504W        W51442   3.467   8.403  25.554 -0.1978 -0.0855 -0.0330
 8505W        W51443   2.129   8.386  24.101 -0.1053  0.2920 -0.2483
 8506W        W51444   0.023   8.323  27.833  0.0461  0.0593  0.2437
 8507W        W51445   2.215  10.415  26.929 -0.0742  0.2069 -0.0909
 8508W        W51446   3.492  10.225  26.109 -0.0248 -0.1066  0.0767
 8509W        W51447   0.615   8.164  24.301 -0.1409 -0.0510  0.1290
 8510W        W51448   3.396   7.946  24.533 -0.0587 -0.0121  0.1197
 8511W        W51449   1.587  10.899  24.922 -0.1528  0.0739  0.2240
 8512W        W51450   0.534   9.171  25.302 -0.0019  0.1229 -0.0992
 8513W        W51451   3.101   8.364  24.587 -0.1198  0.3367  0.1951
 8514W        W51452   3.179   9.077  26.815  0.2159 -0.0571  0.3514
 8515W        W51453   1.899  10.263  25.728  0.1132  0.0815 -0.1842
 8516W        W51454   2.019   9.100  27.548  0.1259  0.2573 -0.1814
 8517W        W51455   0.219   7.885  24.458 -0.1042  0.0798  0.1041
 8518W        W51456   2.731   9.571  24.518  0.0715 -0.0578  0.0211
 8519W        W51457   2.509  10.884  26.151  0.0408  0.0945 -0.1205
 8520W        W51458   3.331  11.653  28.525 -0.0700 -0.0622  0.3541
 8521W        W51459   2.807  10.475  26.208 -0.1464 -0.1351 -0.0621
 8522W        W51460   2.676   8.522  25.564 -0.0419 -0.0418  0.0682
 8523W        W51461   0.785   7.351  25.888 -0.0609 -0.0895 -0.0214
 8524W        W51462   1.682   7.798  23.640  0.2745 -0.1453  0.0859
 8525W        W51463   1.478   9.988  23.317 -0.0656 -0.0456 -0.2056
 8526W        W51464   3.872   8.651  24.771 -0.2343 -0.0544  0.1303
 8527W        W51465   2.125   8.279  25.043 -0.0432 -0.3025 -0.3177
 8528W        W51466   2.809   5.610  24.555  0.2071  0.0261  0.0462
 8529W        W51467   1.095  11.157  26.971  0.1793 -0.3626 -0.2607
 8530W        W51468   1.499   9.219  24.072 -0.0026 -0.0171 -0.0845
 8531W        W51469   1.020   9.757  29.768  0.1235 -0.0551  0.0627
 8532W        W51470   0.630   8.793  27.305 -0.3270  0.1987 -0.1804
 8533W        W51471   1.597   7.235  27.279 -0.1472 -0.1057 -0.1104
 8534W        W51472   4.243   8.985  28.548 -0.0050  0.2305  0.1322
 8535W        W51473   0.409   9.079  28.449 -0.0360 -0.1850 -0.0745
 8536W        W51474   1.304  10.057  28.391 -0.2850 -0.1504 -0.0272
 8537W        W51475   1.759   7.486  30.029  0.3774 -0.1504  0.0452
 8538W        W51476   3.391  10.128  29.895 -0.3016 -0.2277  0.4051
 8539W        W51477   3.596   9.987  29.464  0.0691  0.0830 -0.0490
 8540W        W51478   3.352   8.158  26.660 -0.1221  0.2672  0.0080
 8541W        W51479   2.040   9.546  31.145  0.0509  0.0383  0.0791
 8542W        W51480   1.472  10.032  30.096 -0.0275  0.1433 -0.6365
 8543W        W51481   1.670   7.868  28.534  0.1651  0.4115 -0.0209
 8544W        W51482   0.086   7.372  27.804 -0.0041 -0.1332 -0.2241
 8545W        W51483   2.387   9.380  29.126  0.2668  0.1805  0.2398
 8546W        W51484   0.855   9.143  28.705 -0.2235 -0.0939  0.2078
 8547W        W51485   1.505   9.485  29.895  0.1339  0.1368  0.1888
 8548W        W51486   2.727   8.332  28.925  0.0719  0.0304 -0.1515
 8549W        W51487   2.464   9.885  29.210 -0.2152 -0.0036 -0.0313
 8550W        W51488   1.850   6.901  30.664  0.3238 -0.0300  0.1780
 8551W        W51489   1.487   9.120  29.480 -0.0434  0.1162 -0.0010
 8552W        W51490   2.281  10.506  27.548  0.1744  0.1989 -0.0795
 8553W        W51491  34.332   8.008  25.790 -0.0986  0.1028  0.1492
 8554W        W51492  33.682   8.828  29.631 -0.0925  0.1088  0.0134
 8555W        W51493   0.256   9.815  30.648 -0.1293 -0.3417 -0.0044
 8556W        W51494   3.031   7.453  27.817 -0.2692 -0.3876 -0.0812
 8557W        W51495   2.534   9.717  28.754 -0.0519  0.2484  0.1898
 8558W        W51496   3.596  10.779  27.901  0.0842 -0.0522  0.3283
 8559W        W51497   0.808  10.653  29.233 -0.2008 -0.0308 -0.2664
 8560W        W51498   2.701   7.611  29.907  0.3587 -0.2480  0.2888
 8561W        W51499  34.525  10.393  28.848  0.2534  0.0857 -0.1427
 8562W        W51500   3.017  11.268  29.937 -0.1614  0.0951 -0.0496
 8563W        W51501   1.782  10.639  28.832  0.1254  0.1849 -0.0847
 8564W        W51502   2.449  10.508  29.548  0.3733  0.0745 -0.0588
 8565W        W51503   3.222   9.235  31.282  0.0322 -0.2330  0.0131
 8566W        W51504   0.512  10.960   0.125 -0.0665  0.2212  0.0817
 8567W        W51505  34.576  10.432  27.467 -0.5102  0.3596 -0.0697
 8568W        W51506   2.904  12.554   0.311  0.1226 -0.0502  0.0603
 8569W        W51507   1.773  10.382  29.884 -0.3237  0.2065  0.1601
 8570W        W51508   1.077   8.659  28.716 -0.1124 -0.1308 -0.0057
 8571W        W51509   2.158   9.627  28.103  0.1775 -0.2904 -0.3891
 8572W        W51510   1.419  10.277  27.937  0.2587 -0.0751 -0.2883
 8573W        W51511   1.228   8.232  29.825 -0.0831  0.0698  0.0984
 8574W        W51512   1.909   9.654   0.187 -0.1942  0.0956  0.0141
 8575W        W51513   2.366  10.683  28.657  0.2537 -0.0878 -0.1080
 8576W        W51514   3.034   8.479  30.339  0.3034 -0.1420  0.4313
 8577W        W51515   0.232  12.600  27.460  0.2732 -0.0794  0.2202
 8578W        W51516   3.786   9.137  28.736  0.1203 -0.0382  0.1134
 8579W        W51517   0.026   8.247  28.285 -0.0895 -0.1283 -0.0726
 8580W        W51518   2.880   8.505  26.682 -0.0592 -0.2654  0.0046
 8581W        W51519   2.026   7.481  28.373 -0.2173 -0.0592 -0.2744
 8582W        W51520   1.041  11.373  29.917 -0.0529 -0.3809 -0.2366
 8583W        W51521   0.105   7.664  28.640 -0.0434  0.1242  0.3137
 8584W        W51522   1.224   8.759  30.293 -0.0732 -0.1602  0.0694
 8585W        W51523   1.721   9.132  28.694  0.0099  0.0231 -0.0420
 8586W        W51524   0.880   7.938  30.060 -0.2938 -0.0095 -0.1239
 8587W        W51525   1.189  10.276  29.767  0.0879  0.0288 -0.1219
 8588W        W51526   1.045   8.936  27.782  0.1420 -0.0046 -0.2457
 8589W        W51527   4.021  11.699  27.693 -0.2811 -0.3405  0.1762
 8590W        W51528   3.003  11.259  28.544  0.1005  0.0763  0.1681
 8591W        W51529   4.015  10.672  26.161 -0.3094 -0.0325 -0.1680
 8592W        W51530   1.081   9.823  27.984 -0.2478  0.1339 -0.1741
 8593W        W51531   0.166   7.482  30.913 -0.0523 -0.2417 -0.0137
 8594W        W51532   1.093   9.828  31.486 -0.1125  0.1350 -0.1242
 8595W        W51533   1.322   8.158  27.698  0.2229 -0.1189 -0.0145
 8596W        W51534   3.403   9.505  29.217 -0.2562 -0.0101 -0.0742
 8597W        W51535   1.233   9.775   0.277 -0.0878  0.3413  0.1132
 8598W        W51536   4.877   8.139  28.393 -0.1452 -0.0935 -0.3341
 8599W        W51537   2.744  10.193  28.712 -0.1167  0.2695  0.0985
 8600W        W51538   2.820  10.823  29.983 -0.1049  0.0938  0.2088
 8601W        W51539   1.705   9.613  27.739 -0.0962 -0.0452 -0.0178
 8602W        W51540   3.511   8.527  27.831 -0.3359 -0.3629 -0.0045
 8603W        W51541   2.338   7.021  30.526 -0.2557  0.0050  0.3582
 8604W        W51542   1.470   9.203  27.525 -0.0714 -0.0801  0.5214
 8605W        W51543   1.111   8.385  28.164  0.0049 -0.2186 -0.1309
 8606W        W51544   4.300  10.326  30.842 -0.0775 -0.0449  0.1852
 8607W        W51545   3.394   9.955  28.108 -0.1758 -0.1001 -0.1229
 8608W        W51546   0.231  10.832  29.305 -0.0440  0.0463  0.0081
 8609W        W51547  34.645   8.281  30.306 -0.2821 -0.2603 -0.2779
 8610W        W51548   2.960   9.862  31.372  0.0319  0.2484  0.1127
 8611W        W51549  33.798  11.550  28.586  0.2743  0.0623 -0.1482
 8612W        W51550   0.590   9.508  29.664 -0.2787 -0.0633 -0.1086
 8613W        W51551   0.168  10.237  29.265 -0.0443 -0.1276 -0.1694
 8614W        W51552   0.562   8.951  29.526 -0.0905  0.0811  0.1965
 8615W        W51553   2.068  10.169  29.433 -0.0651 -0.2575 -0.0362
 8616W        W51554   4.553   9.083  27.942  0.4775 -0.1184  0.2652
 8617W        W51555   0.179   7.043  31.240 -0.2230  0.0442 -0.1185
 8618W        W51556   3.859   8.569  28.595 -0.2625 -0.0934 -0.3063
 8619W        W51557  34.402  10.635  28.404 -0.0993  0.0774  0.0197
 8620W        W51558   1.420  11.156  28.719 -0.1785  0.0637 -0.1627
 8621W        W51559   3.330  10.536  28.813  0.0783 -0.2887 -0.1220
 8622W        W51560   3.488   9.875  27.355  0.1281 -0.1064  0.2371
 8623W        W51561  34.440   9.896  30.794  0.3191  0.0491  0.1322
 8624W        W51562   0.601   9.917  27.918  0.2138  0.2294 -0.1090
 8625W        W51563   0.482   6.440  31.937 -0.0610  0.1688  0.1330
 8626W        W51564  33.297   8.675  28.367 -0.3638 -0.0371  0.4239
 8627W        W51565   3.034   8.968  31.644 -0.3148 -0.0845 -0.1403
 8628W        W51566  34.381   6.161  26.977  0.0761  0.0579 -0.1686
 8629W        W51567   2.544   8.069  29.756  0.3443 -0.1269 -0.1010
 8630W        W51568   1.504   8.733  28.313  0.0855 -0.0388  0.4306
 8631W        W51569  34.587   9.943  28.285  0.1157 -0.0802 -0.0885
 8632W        W51570   2.354   8.725  30.008 -0.0728 -0.2162 -0.1296
 8633W        W51571   2.692  10.476  27.881  0.1294 -0.2458  0.2184
 8634W        W51572   4.541  11.451  29.180  0.1446  0.0182 -0.0469
 8635W        W51573   2.367  10.897  29.227  0.0673  0.1116 -0.0918
 8636W        W51574   1.016   7.336  29.510 -0.3049  0.0884  0.0987
 8637W        W51575  34.528   7.017  29.811 -0.2814  0.1199 -0.1027
 8638W        W51576   2.067  11.530  28.600 -0.0981 -0.2674 -0.2283
 8639W        W51577   1.748   9.895  29.641  0.1769  0.1192  0.0192
 8640W        W51578   0.388   8.078  29.544 -0.1660 -0.1647  0.1443
 8641W        W51579   4.050  11.664  29.155  0.1145 -0.0992  0.0936
 8642W        W51580   2.223  10.615  28.081 -0.1404 -0.0972  0.0260
 8643W        W51581   1.854  10.927  30.269 -0.0305  0.0622  0.0433
 8644W        W51582   2.560   8.921  29.567  0.2528 -0.1934 -0.3085
 8645W        W51583   1.562   8.957  29.924  0.3481  0.2473  0.0622
 8646W        W51584   3.139   9.443  28.262  0.0031 -0.0007  0.0812
 8647W        W51585   0.142   8.612  28.602  0.3637  0.1995 -0.2300
 8648W        W51586   2.814  10.537  28.355 -0.0132  0.0621  0.0274
 8649W        W51587  34.337  11.435  26.300 -0.0669  0.1527  0.0287
 8650W        W51588  34.560   8.527  29.009  0.0100  0.1382  0.1840
 8651W        W51589   1.559  10.300  29.454 -0.2586  0.0084  0.2665
 8652W        W51590   5.451   8.230  28.475 -0.0270  0.1377  0.0791
 8653W        W51591   1.261   8.323  31.151  0.1850 -0.3411  0.1954
 8654W        W51592   3.360   8.350  29.301 -0.1360 -0.0062 -0.0148
 8655W        W51593  34.457   8.977  26.249  0.0783 -0.2284  0.0335
 8656W        W51594   0.402  10.059  31.283  0.3152  0.0225  0.1483
 8657W        W51595   4.361   8.048  27.817  0.2573 -0.0846  0.2955
 8658W        W51596   3.705   6.810  27.538 -0.1958  0.1381 -0.1567
 8659W        W51597   2.037  10.207   0.306 -0.2383  0.4283  0.0211
 8660W        W51598   3.728   9.928  28.505  0.1953  0.1128  0.3022
 8661W        W51599   2.438   8.495  26.938  0.1709  0.1745  0.1130
 8662W        W51600   2.488   8.310  28.470  0.1045  0.1911  0.1541
 8663W        W51601   1.169   9.600  30.892  0.1080  0.0021 -0.2159
 8664W        W51602   2.886  10.824  28.760  0.1007 -0.3238 -0.2702
 8665W        W51603   1.974  10.271  30.918 -0.0637 -0.1452  0.1961
 8666W        W51604   1.741   7.723  25.428 -0.2465 -0.0547 -0.1073
 8667W        W51605   4.405  11.138  28.072  0.2147 -0.5694  0.0004
 8668W        W51606   0.764  10.289  30.123  0.0188 -0.0374  0.1743
 8669W        W51607   2.487   9.659   0.156  0.2011  0.0409  0.0700
 8670W        W51608   1.574  10.196  28.806  0.2086 -0.2307  0.0984
 8671W        W51609   1.985   6.942  30.124  0.0888  0.1157 -0.0657
 8672W        W51610   0.731   7.994  26.658  0.1966 -0.0984 -0.1842
 8673W        W51611   2.767   7.862  26.751 -0.0655 -0.0226 -0.0633
 8674W        W51612   0.759  10.674  27.767  0.0611 -0.0426 -0.0689
 8675W        W51613   1.847   8.437  29.896 -0.0055 -0.2520 -0.0710
 8676W        W51614   2.223   7.769  30.019  0.2592 -0.0075 -0.1034
 8677W        W51615   0.583   8.162  30.460 -0.5469  0.0980  0.4250
 8678W        W51616   2.187   8.359  30.883 -0.1703  0.0730  0.3817
 8679W        W51617   3.026   8.683  27.680 -0.0953 -0.1838  0.0764
 8680W        W51618   2.094   9.470  28.638  0.0053  0.3214  0.2358
 8681W        W51619   0.770   9.976  28.482 -0.0674 -0.0499 -0.1945
 8682W        W51620   1.532   7.464  30.538  0.0806  0.5232  0.1252
 8683W        W51621   0.877   9.275  30.107  0.1833  0.5136  0.3241
 8684W        W51622   1.887  11.471  30.309 -0.0532 -0.0183  0.0094
 8685W        W51623   1.955  11.657  31.513  0.2076 -0.0680  0.2662
 8686W        W51624   3.175   9.917  28.539 -0.0121 -0.2742 -0.0663
 8687W        W51625   2.573   8.356  30.611 -0.0834  0.0659 -0.1390
 8688W        W51626   2.013   7.654  27.348  0.0134 -0.0263 -0.2106
 8689W        W51627   2.063  10.997  28.414  0.3865  0.0194 -0.3008
 8690W        W51628   1.792   9.901  28.270 -0.2080 -0.1897 -0.1792
 8691W        W51629  34.546   7.359  28.281  0.1608  0.3086  0.1316
 8692W        W51630   1.292  10.531  29.054 -0.2763  0.1259  0.0561
 8693W        W51631   1.662   9.944  26.946  0.1027  0.1919  0.2083
 8694W        W51632   3.765   9.493  29.665  0.0946 -0.0057  0.0167
 8695W        W51633   1.852  11.326  28.051  0.0943  0.3106  0.0395
 8696W        W51634   4.167   7.306  29.435 -0.0378 -0.0059 -0.0436
 8697W        W51635   0.897  10.014  30.485 -0.3240 -0.2185 -0.1723
 8698W        W51636   0.841   8.830  28.242  0.3209  0.2566 -0.0655
 8699W        W51637  34.055   8.426  29.035  0.0678 -0.0933  0.1214
 8700W        W51638   4.545   8.061  28.767 -0.1736  0.1159 -0.0393
 8701W        W51639   3.802   8.796  26.934  0.2288  0.0090 -0.1631
 8702W        W51640   0.192   8.329  30.769 -0.1752 -0.0253 -0.3458
 8703W        W51641   1.133   8.518  29.425  0.3019 -0.0543 -0.1605
 8704W        W51642   1.537  10.810  29.688 -0.0897  0.4678  0.2738
 8705W        W51643   1.499   8.125  29.434  0.1730  0.1326  0.2672
 8706W        W51644   2.396   9.137  27.882 -0.3440 -0.1076  0.0657
 8707W        W51645   2.008   9.362  30.564  0.1148  0.0220  0.0016
 8708W        W51646   1.233   8.856  31.061  0.1834 -0.1648  0.1379
 8709W        W51647   1.253   7.046  27.688 -0.0419 -0.1121  0.0342
 8710W        W51648   2.121   8.722  29.548  0.0646  0.1338 -0.2230
 8711W        W51649   1.895   8.655  28.611  0.1257  0.1246  0.0783
 8712W        W51650   0.322  10.442  27.709  0.0643  0.0414  0.2358
 8713W        W51651   2.480   9.730  30.129  0.2345  0.0426 -0.1185
 8714W        W51652   0.587   9.653  27.344 -0.2681  0.0304 -0.0204
 8715W        W51653   1.923  10.689  29.346  0.0088 -0.2054 -0.4056
 8716W        W51654   2.677   6.898  31.184  0.3799  0.0196 -0.1472
 8717W        W51655   3.333  10.935  29.096 -0.2095  0.0665  0.0993
 8718W        W51656   1.508   8.360  28.635  0.0982  0.0492 -0.2380
 8719W        W51657   0.731   7.148  29.127  0.1889 -0.2587  0.0202
 8720W        W51658   1.644   9.444  28.295  0.1950  0.2004 -0.0926
 8721W        W51659   2.573   9.977  29.658  0.0935 -0.1701  0.0162
 8722W        W51660   0.978   7.706  30.467  0.0674 -0.0888  0.0291
 8723W        W51661   0.110   8.936   0.146 -0.1785  0.1073  0.0060
 8724W        W51662   2.434   7.834  28.350  0.2212  0.0403  0.1231
 8725W        W51663   4.364  10.778  28.525 -0.3344  0.0886  0.2466
 8726W        W51664   2.161  10.039  29.983 -0.0237  0.1205  0.0248
 8727W        W51665   0.930   8.177  26.130 -0.0030  0.0151  0.5362
 8728W        W51666   0.427   9.126  30.509  0.0998 -0.1508 -0.1698
 8729W        W51667   2.066   9.945  28.806 -0.1396 -0.2386 -0.2283
 8730W        W51668   2.691   7.025  29.669  0.1667 -0.0454  0.0877
 8731W        W51669   0.481  12.117  28.431  0.0567 -0.0922  0.3890
 8732W        W51670   0.812  11.257  27.954 -0.3003  0.1234  0.0388
 8733W        W51671   0.230  10.257  31.968  0.1780 -0.0337  0.1273
 8734W        W51672   4.030   7.811  28.117 -0.1739 -0.3854  0.0214
 8735W        W51673   1.137   7.548  27.746 -0.0022  0.2305  0.0059
 8736W        W51674   2.892   9.277  28.723 -0.3629 -0.0715 -0.1938
 8737W        W51675   3.362   8.368  30.725  0.5100 -0.0400  0.0889
 8738W        W51676   2.850   8.755  27.137  0.1289  0.0592  0.1905
 8739W        W51677   2.300   8.283  30.108 -0.1639 -0.0286  0.1050
 8740W        W51678   0.729   7.559  31.210  0.1214 -0.2218 -0.2157
 8741W        W51679   3.189  10.791  27.514 -0.0074  0.0818  0.0668
 8742W        W51680   0.362   8.599  30.389  0.1423  0.1005 -0.1229
 8743W        W51681   1.508   9.629  31.335 -0.1228 -0.1101  0.0645
 8744W        W51682   0.247   8.456   0.986 -0.0666 -0.0538  0.1929
 8745W        W51683   1.690   7.985  29.867 -0.4813  0.0342 -0.1996
 8746W        W51684   2.989   8.080  28.527 -0.1208  0.0560  0.1618
 8747W        W51685   0.970   8.900  29.172  0.1236  0.0473  0.0541
 8748W        W51686   3.190  10.459  27.894  0.0464 -0.0021  0.0868
 8749W        W51687   1.097   9.647  28.546  0.0760  0.2558 -0.1988
 8750W        W51688   2.384   9.227  30.052 -0.3977 -0.1341 -0.2681
 8751W        W51689   0.571   9.573  28.730 -0.0773 -0.1535 -0.0279
 8752W        W51690   3.089   9.812  29.530 -0.0350 -0.2477 -0.1432
 8753W        W51691   2.064   9.092  28.328 -0.2370  0.1217  0.0744
 8754W        W51692   0.372  10.543  28.773 -0.0830 -0.3346 -0.0212
 8755W        W51693   0.559   7.048  30.236  0.0273  0.1515 -0.1048
 8756W        W51694   3.934  11.160  27.837  0.0227  0.0249 -0.1782
 8757W        W51695   1.941   9.021  29.165 -0.2587 -0.0869  0.1113
 8758W        W51696   2.038   7.268  29.656 -0.0505  0.0487  0.1107
 8759W        W51697   1.843   8.341  29.082 -0.3485  0.2643 -0.0298
 8760W        W51698   1.894   9.622  30.126  0.1398 -0.0301  0.0955
 8761W        W51699  34.376   7.750  31.635 -0.0495 -0.2385  0.1631
 8762W        W51700   3.342  11.293  30.393  0.0221  0.0378 -0.0021
 8763W        W51701   4.260   8.998  27.504 -0.2247 -0.2633 -0.1595
 8764W        W51702   5.132   7.713  31.490 -0.1395  0.2089 -0.1104
 8765W        W51703   3.329   7.672  28.199 -0.2129  0.1950 -0.0740
 8766W        W51704   1.608   6.668  27.439 -0.0788  0.1550 -0.2756
 8767W        W51705  34.410  10.656  29.265 -0.0132  0.1839  0.0339
 8768W        W51706   2.015   8.508  30.419  0.1695  0.0356 -0.1924
 8769W        W51707   0.371   8.422  26.935 -0.2576 -0.1291  0.0095
 8770W        W51708   3.464   9.045  30.123  0.0307  0.0587 -0.0024
 8771W        W51709   1.085  11.193  27.561  0.6068 -0.0913 -0.1630
 8772W        W51710   2.319  10.351  29.049 -0.1574  0.0454 -0.1649
 8773W        W51711   2.376   8.863  28.590 -0.2304  0.0092  0.1640
 8774W        W51712  34.498   8.994  29.333  0.1363  0.1277 -0.0938
 8775W        W51713   0.938  10.637  30.468  0.1686 -0.4122  0.1616
 8776W        W51714   0.501   8.165  27.336  0.1026  0.2227  0.0412
 8777W        W51715   1.315   9.324  29.032  0.0904  0.0127 -0.1699
 8778W        W51716   2.188   9.996  30.498 -0.2481 -0.3177  0.0486
 8779W        W51717   3.325   7.509  31.529  0.2808 -0.0740 -0.0913
 8780W        W51718   3.285   7.087  26.922  0.4084 -0.2406 -0.2359
 8781W        W51719   3.407   8.433  29.808 -0.1725 -0.0643 -0.1612
 8782W        W51720   1.150   9.978  28.945  0.2732  0.1383 -0.1433
 8783W        W51721   2.821   8.137  27.637  0.0775  0.3887 -0.2030
 8784W        W51722   1.296  11.477  30.305  0.1661 -0.0664  0.0548
 8785W        W51723   0.445   9.386  31.277  0.1122 -0.1470 -0.1177
 8786W        W51724   1.192  12.161  28.393  0.2955  0.0872 -0.1065
 8787W        W51725   2.035   8.158  29.518  0.0733  0.1150 -0.0720
 8788W        W51726   3.853   8.746  29.868 -0.1493 -0.1189  0.1116
 8789W        W51727   2.386   8.697  28.094 -0.3045  0.1026 -0.1325
 8790W        W51728   3.650  10.179  28.939 -0.1407  0.1146 -0.3362
 8791W        W51729   3.646   9.153  30.755  0.3174 -0.1458  0.0093
 8792W        W51730   0.809   9.698  29.234  0.0892 -0.1211 -0.0371
 8793W        W51731   3.080  10.303  30.251  0.2131  0.1048 -0.0045
 8794W        W51732   2.910   9.640  29.101 -0.0257  0.3245  0.3200
 8795W        W51733   1.982  11.103  28.935  0.0055 -0.1081  0.0323
 8796W        W51734  33.523   7.674  30.573  0.2131 -0.0039  0.1490
 8797W        W51735   1.638   6.967  31.964  0.1479  0.2719 -0.0534
 8798W        W51736   0.257   8.514  29.898 -0.0103 -0.0572 -0.1183
 8799W        W51737   0.126   7.826  28.081 -0.1329 -0.2405  0.0400
 8800W        W51738   2.460   9.989  27.770  0.2901 -0.3143 -0.1234
 8801W        W51739  34.686  10.839   1.073  0.1235 -0.0735 -0.0547
 8802W        W51740   0.280  10.090  30.229 -0.0261  0.2126  0.2830
 8803W        W51741  34.499  10.338  27.987 -0.0359  0.3275  0.2288
 8804W        W51742   4.139  10.142  28.238  0.0247  0.0501  0.0199
 8805W        W51743   3.393   9.471  28.709 -0.0350  0.1333 -0.1646
 8806W        W51744   1.974  11.180  30.709  0.0653  0.1168  0.0187
 8807W        W51745   0.741   7.811  28.184 -0.0075  0.0012 -0.2992
 8808W        W51746   1.933  11.248  29.441  0.3190 -0.1091  0.0897
 8809W        W51747  34.620  11.577  29.176 -0.0986  0.0642  0.1185
 8810W        W51748   3.384  12.156  27.252  0.0220  0.3397 -0.0892
 8811W        W51749   0.635  10.991  29.682 -0.0707  0.0277 -0.3231
 8812W        W51750   2.846   9.093  30.765  0.2624 -0.2539 -0.0547
 8813W        W51751   4.164   8.677  26.526 -0.0567  0.1308 -0.0072
 8814W        W51752   4.646   9.237  29.249 -0.1956 -0.1887 -0.4082
 8815W        W51753   5.072   8.065  28.842  0.2816  0.1371  0.0097
 8816W        W51754   1.901  10.117  31.395  0.1183 -0.2281 -0.0752
 8817W        W51755   1.633   8.738  27.412  0.2201  0.2923  0.0850
 8818W        W51756   1.976   7.906  28.106  0.0149 -0.2089  0.0311
 8819W        W51757   1.477   8.204  31.824 -0.1632 -0.2000 -0.1309
 8820W        W51758   3.165   7.178  29.847  0.1392 -0.0107 -0.1981
 8821W        W51759   0.825  11.666  30.279  0.0331  0.0745 -0.2228
 8822W        W51760   3.824  10.805  28.548  0.4053  0.2284  0.4668
 8823W        W51761   0.188   9.147  26.847  0.0160  0.1464 -0.1553
 8824W        W51762   0.600   8.502  28.490  0.4964 -0.0773  0.1626
 8825W        W51763   3.929   8.235  29.653  0.0043 -0.0775 -0.1696
 8826W        W51764   2.828  10.012  28.144 -0.1832 -0.4581 -0.0421
 8827W        W51765   3.112   7.905  29.900 -0.0293 -0.1481 -0.1823
 8828W        W51766   1.115  10.678  27.176 -0.0912  0.2442 -0.2808
 8829W        W51767   1.289  10.983  30.284 -0.0473  0.1890  0.1094
 8830W        W51768   2.488   9.893  31.017 -0.1284  0.1248  0.2869
 8831W        W51769   1.227   9.361  27.993 -0.0958 -0.0593  0.1070
 8832W        W51770   5.267   9.248  29.353 -0.0852 -0.0265 -0.0705
 8833W        W51771   1.514   8.320  30.269  0.2776 -0.0232  0.0276
 8834W        W51772   4.335   8.552  29.484 -0.1941  0.0742 -0.0430
 8835W        W51773   1.000  10.129  27.621  0.0104 -0.1944  0.0475
 8836W        W51774   3.750   8.439  27.355 -0.3937 -0.0177 -0.2543
 8837W        W51775   1.678   9.157  30.980  0.1927 -0.2380 -0.4005
 8838W        W51776   0.519   7.827  30.790  0.0982  0.0352 -0.2432
 8839W        W51777   1.170   8.891  26.774  0.1424  0.1863 -0.1220
 8840W        W51778   1.744  10.677  31.142  0.1854 -0.1280 -0.0468
 8841W        W51779   2.681   9.262  27.288  0.2869  0.0777  0.0306
 8842W        W51780   3.139  11.605  31.627  0.2033 -0.1791  0.0898
 8843W        W51781   1.016   7.659  29.097  0.1525 -0.0271 -0.0401
 8844W        W51782   1.616   9.680  28.759 -0.1541  0.0814  0.1078
 8845W        W51783   0.617  10.111  28.974 -0.0809  0.3196 -0.3989
 8846W        W51784   0.697   8.459  29.584  0.1590  0.2062  0.0382
 8847W        W51785   2.364  11.310  31.569 -0.0605  0.1522  0.0491
 8848W        W51786   1.360   7.923  28.124 -0.0251 -0.2859 -0.2624
 8849W        W51787   2.888   9.162  27.689 -0.0186 -0.0799  0.0867
 8850W        W51788   3.117   8.852  29.733 -0.1296 -0.2286 -0.0083
 8851W        W51789   1.343  11.318  28.026  0.1289 -0.3898 -0.1784
 8852W        W51790   3.419  10.441  29.370  0.1308 -0.2826 -0.2233
 8853W        W51791   2.535  11.050  28.208  0.2137 -0.1845 -0.2137
 8854W        W51792   1.484   8.688  28.988 -0.0149  0.0585  0.1119
 8855W        W51793   2.454  10.321  30.796  0.3376  0.0510  0.1450
 8856W        W51794   3.754  10.419  30.889  0.0494  0.1191 -0.1963
 8857W        W51795   2.880   8.438  28.146  0.1503 -0.0413 -0.1282
 8858W        W51796   0.032   9.205  28.171 -0.2241  0.0206 -0.1964
 8859W        W51797   0.157  10.913  29.838  0.0446  0.2218 -0.1375
 8860W        W51798   3.337   8.971  29.005 -0.0007 -0.0813 -0.1573
 8861W        W51799   2.668   9.441  29.612 -0.2582  0.0579  0.0538
 8862W        W51800   0.969  10.890  28.345 -0.0875  0.2907  0.2714
 8863W        W51801   4.049   6.844  31.324  0.1597 -0.0665 -0.1905
 8864W        W51802   1.517  11.926  31.037 -0.3175  0.0538 -0.2325
 8865W        W51803   1.677  10.094  31.936  0.2813  0.0560 -0.2060
 8866W        W51804   0.723   9.900  26.937 -0.0767 -0.0881 -0.0520
 8867W        W51805   2.562  10.390  30.061  0.2194  0.0631  0.1089
 8868W        W51806   2.043  10.495  30.374 -0.0351  0.0310 -0.0746
 8869W        W51807   2.176  11.031  27.762 -0.1177 -0.0889  0.1495
 8870W        W51808   4.236   9.437  28.834 -0.1437  0.0534  0.0590
 8871W        W51809   3.784   8.870  28.160  0.0249  0.3905 -0.2771
 8872W        W51810   3.208   9.402  29.800  0.1602 -0.2429 -0.4169
 8873W        W51811   0.450   7.995  28.558  0.1512 -0.1427 -0.3070
 8874W        W51812   5.361   6.906  28.469 -0.0287  0.1006 -0.0728
 8875W        W51813   3.543   8.033  28.400  0.1812 -0.0922 -0.1073
 8876W        W51814   1.524   9.145  30.437 -0.0703  0.3114 -0.0760
 8877W        W51815   0.414  10.311  28.198  0.4044  0.0607  0.0129
 8878W        W51816   0.729  10.313  27.141  0.0012  0.1726  0.1921
 8879W        W51817   1.378  10.492  30.230 -0.1976  0.1752  0.1207
 8880W        W51818   1.573   8.703  30.735 -0.0014 -0.3425  0.0945
 8881W        W51819   0.237   6.933  31.780 -0.1846 -0.0378  0.4120
 8882W        W51820   1.386   9.656  29.347  0.1848  0.0406  0.1659
 8883W        W51821   0.520   8.777  28.927 -0.1009  0.1707  0.1410
 8884W        W51822   4.312  10.922  27.114  0.1075 -0.3519  0.0293
 8885W        W51823   1.031   7.171  30.443  0.1891  0.1411 -0.2491
 8886W        W51824   0.406   6.165  26.723 -0.1232  0.2484 -0.0299
 8887W        W51825   3.135  10.577  26.930  0.0271  0.0351 -0.0912
 8888W        W51826   3.037  11.352  27.589 -0.0562 -0.2220 -0.2959
 8889W        W51827   1.710   7.403  28.786  0.1213 -0.3669  0.0044
 8890W        W51828   4.180   9.713  29.932  0.0203 -0.1478 -0.1540
 8891W        W51829  34.648  11.498  28.597 -0.2477 -0.0040 -0.1956
 8892W        W51830   1.037   8.859  29.875 -0.0765  0.0215  0.2973
 8893W        W51831   0.801   8.762  30.584 -0.2090 -0.2652 -0.0022
 8894W        W51832  34.320   8.096  27.542 -0.0224  0.0135  0.0085
 8895W        W51833   0.194   7.588  29.759  0.0350 -0.5585 -0.1073
 8896W        W51834   2.947  11.602  28.095  0.4446  0.2806  0.0053
 8897W        W51835   2.780  11.830  26.535 -0.0332 -0.0486 -0.0923
 8898W        W51836   2.189   9.613  29.679  0.1888 -0.0042 -0.1950
 8899W        W51837   2.868  11.734  31.170  0.3070  0.2869  0.2050
 8900W        W51838  34.180   8.371  31.713 -0.3027 -0.2946 -0.0069
 8901W        W51839   2.531   8.588  27.480  0.3175 -0.0011  0.1046
 8902W        W51840   2.182  10.528  31.277  0.0851  0.0551  0.0026
 8903W        W51841   5.178   9.900  27.998  0.3221  0.0649  0.0680
 8904W        W51842   4.594   7.758  31.509 -0.0255  0.1030  0.2807
 8905W        W51843   3.813   9.691  28.963  0.1692  0.2062 -0.2126
 8906W        W51844   0.295   6.570  31.440 -0.0669 -0.0579  0.2751
 8907W        W51845   1.646   9.138  31.560 -0.2239 -0.1250  0.0500
 8908W        W51846   3.204   9.999  29.043  0.2669 -0.1579 -0.1029
 8909W        W51847   1.558   7.459  28.202  0.0455 -0.0562 -0.0425
 8910W        W51848   3.994   9.238  27.857 -0.0229 -0.1497  0.1225
 8911W        W51849   3.340   9.027  27.937  0.0437 -0.0839 -0.2869
 8912W        W51850   0.372   9.675  28.261  0.5310 -0.2735 -0.1867
 8913W        W51851   1.090   9.014  27.230 -0.1244 -0.3463 -0.2552
 8914W        W51852   1.298   9.146  28.485  0.1734 -0.0307  0.1334
 8915W        W51853   1.963   9.661  29.228  0.3278  0.1991  0.0274
 8916W        W51854   2.972  10.301  29.686  0.2312  0.0033  0.3779
 8917W        W51855   2.807  10.200  29.205 -0.0301  0.0567  0.0219
 8918W        W51856   3.681   8.039  27.681 -0.1327 -0.1564  0.1695
 8919W        W51857   3.224  11.169   0.330  0.3081  0.0976  0.0978
 8920W        W51858   4.150  12.528  31.399  0.1832  0.2268  0.0664
 8921W        W51859   2.579  10.252  31.392  0.3758 -0.0631  0.3333
 8922W        W51860   3.044   9.837  30.123 -0.1547 -0.2984  0.1310
 8923W        W51861   0.087   7.785  29.227 -0.1319  0.1379  0.0167
 8924W        W51862   1.766   9.106  27.941  0.1196  0.3128  0.3018
 8925W        W51863   2.378  10.045  28.401  0.0245 -0.1455  0.1537
 8926W        W51864   2.605   8.911  29.063  0.0528 -0.2747 -0.1056
 8927W        W51865   0.623   7.001  29.567  0.2252  0.2174 -0.4459
 8928W        W51866   1.995   7.893  26.947 -0.1106 -0.0415 -0.1559
 8929W        W51867   1.359  10.126  30.654 -0.1915  0.2276 -0.2323
 8930W        W51868   1.982   8.983  30.231 -0.1864 -0.2920 -0.2084
 8931W        W51869   1.093   6.868  29.782  0.0552 -0.1049 -0.1225
 8932W        W51870   2.465   9.687  31.470 -0.2151 -0.0146 -0.3240
 8933W        W51871   0.725   8.425  30.928 -0.2981  0.0585  0.1746
 8934W        W51872   0.791  10.023   0.301 -0.1548  0.2062  0.0342
 8935W        W51873   1.707   9.690  30.803  0.3037  0.2712  0.0227
 8936W        W51874   0.404  10.056   0.787 -0.0957  0.0003  0.1292
 8937W        W51875   1.304   8.607  31.587  0.0431 -0.3670  0.1566
 8938W        W51876   1.005   9.221  30.606  0.0484 -0.0431 -0.2329
 8939W        W51877   2.686   9.133  31.346  0.0040  0.0266  0.1910
 8940W        W51878   2.990  10.510  31.516  0.0493  0.3638  0.2889
 8941W        W51879   0.814   7.691   0.726  0.0385  0.0361 -0.1019
 8942W        W51880  34.481   7.265  31.495 -0.2841  0.0647  0.3008
 8943W        W51881   2.017  10.004   1.537 -0.1485  0.6624  0.0469
 8944W        W51882   1.641  10.515  31.598  0.1169  0.0492  0.2860
 8945W        W51883   2.612   7.620  31.779  0.0703  0.2317  0.1858
 8946W        W51884  33.621  11.114  30.386  0.2267 -0.1878 -0.1503
 8947W        W51885  34.345   8.901  31.863 -0.0390 -0.0269 -0.0186
 8948W        W51886   2.273  10.046  31.792  0.2024  0.2900  0.2221
 8949W        W51887  33.569   7.158   1.156  0.1480 -0.1315 -0.2822
 8950W        W51888  33.269   7.555   0.516 -0.0380 -0.2734  0.2570
 8951W        W51889  33.935   7.505  31.712  0.1361 -0.0269  0.0169
 8952W        W51890   1.331  11.063  30.824 -0.1150 -0.1755 -0.2562
 8953W        W51891   2.538   7.821  30.871  0.1654 -0.0760 -0.2703
 8954W        W51892   1.634   8.623  29.452 -0.1303  0.0614 -0.1046
 8955W        W51893   1.401   7.946  30.633  0.1659 -0.1252 -0.0703
 8956W        W51894   0.485  11.438  30.711  0.0034 -0.0515  0.4967
 8957W        W51895   1.010   9.400  31.277 -0.0695 -0.0684  0.0734
 8958W        W51896   0.798  11.019  31.524  0.1082  0.3750 -0.1311
 8959W        W51897  34.540   8.076  29.874  0.1216 -0.1307  0.2796
 8960W        W51898   2.746  10.063   0.450  0.0924  0.0886 -0.1225
 8961W        W51899   1.917   9.626  31.678 -0.1872  0.1197  0.0669
 8962W        W51900  34.468   8.086   0.037  0.1519  0.2513 -0.1231
 8963W        W51901   2.868   8.506  31.886 -0.1009  0.0040  0.1448
 8964W        W51902   2.607   8.237  31.164 -0.0340  0.0776 -0.0118
 8965W        W51903  33.151   8.094  31.366 -0.0334  0.0468  0.0404
 8966W        W51904   1.703   9.631   1.967 -0.0774 -0.1064 -0.2772
 8967W        W51905   0.884  11.276   0.092 -0.0583  0.1106 -0.3580
 8968W        W51906   1.119  10.099  31.910 -0.1449  0.3097  0.0492
 8969W        W51907   2.482   8.790  30.995 -0.3787  0.1417  0.0989
 8970W        W51908   2.213   8.456  31.382  0.2446 -0.0756  0.0670
 8971W        W51909   1.641   6.865  31.322 -0.0022 -0.0735  0.2226
 8972W        W51910   0.893   8.645  31.364  0.1765 -0.1958  0.0142
 8973W        W51911  33.704   8.067  30.836  0.0146  0.2138 -0.3517
 8974W        W51912   1.770   9.405   2.599 -0.3252 -0.2714 -0.1247
 8975W        W51913   0.434   8.156  31.253  0.1196 -0.0426  0.0494
 8976W        W51914   0.765   8.476  30.124 -0.0508 -0.0708 -0.1982
 8977W        W51915   1.488   7.847  31.139 -0.0576  0.0302  0.1403
 8978W        W51916   1.157   8.000  31.516  0.0914  0.0502 -0.0088
 8979W        W51917   1.614   9.083   0.881 -0.0299 -0.2328  0.1269
 8980W        W51918   0.460  10.614  31.616  0.2911 -0.0162 -0.0126
 8981W        W51919   2.167   9.053  31.303 -0.2531 -0.0713 -0.0658
 8982W        W51920   3.310   6.927  30.550 -0.1546 -0.1237 -0.0136
 8983W        W51921   0.150   8.071  31.676 -0.2072 -0.0270  0.0763
 8984W        W51922   2.387   9.242  30.818 -0.3837  0.1357  0.1739
 8985W        W51923   0.649   7.959  31.675 -0.0103 -0.2057  0.0645
 8986W        W51924   2.913   9.076  30.151  0.1026 -0.0061 -0.0377
 8987W        W51925   2.833   8.960   0.162 -0.0079 -0.0653 -0.2476
 8988W        W51926   1.034   9.257   0.188 -0.1149  0.1076  0.1056
 8989W        W51927   3.425  11.302  31.876 -0.0937  0.0578 -0.2891
 8990W        W51928   1.551   9.289   0.400  0.1949  0.0736 -0.2595
 8991W        W51929  33.237   6.753  31.284 -0.4202  0.0651  0.0703
 8992W        W51930   1.151   9.084  31.649  0.2563  0.2246  0.1337
 8993W        W51931   0.087   8.997  29.779  0.1707  0.0362 -0.1680
 8994W        W51932  34.015   7.188   0.893  0.1450 -0.0238  0.0722
 8995W        W51933   3.423   9.608  30.942  0.1422  0.1093 -0.2131
 8996W        W51934   2.707  10.027  30.510 -0.3334  0.1649  0.4859
 8997W        W51935   3.258   9.997   0.432  0.4064 -0.2568 -0.1801
 8998W        W51936   1.983  14.228  19.028  0.1006  0.0578  0.0393
 8999W        W51937   0.697  12.268  17.059  0.0629  0.1860  0.0301
 9000W        W51938   2.903  12.228  16.605  0.1032  0.1907  0.2044
 9001W        W51939   2.741  13.063  16.514 -0.0882 -0.2231 -0.3352
 9002W        W51940   0.512  12.994  17.483  0.1951 -0.2156 -0.2241
 9003W        W51941   1.643  15.050  17.684  0.0226  0.0704 -0.1846
 9004W        W51942   0.660  10.895  20.184 -0.3929 -0.3507  0.0556
 9005W        W51943   0.812  12.992  18.348  0.2619  0.0440 -0.2364
 9006W        W51944   2.312  12.757  18.123 -0.0327 -0.1119  0.3773
 9007W        W51945   2.359  12.139  16.226  0.0313  0.2373  0.0129
 9008W        W51946   2.138  12.089  19.349 -0.0070 -0.2280  0.0646
 9009W        W51947   0.503  14.515  18.401  0.0003 -0.2414  0.1135
 9010W        W51948   1.323  10.204  17.313 -0.0653  0.0051  0.1237
 9011W        W51949   0.441  11.678  18.174  0.2545 -0.1024  0.1547
 9012W        W51950   4.288  12.351  18.885  0.0899 -0.1345 -0.2989
 9013W        W51951   1.520  12.390  17.586  0.1735 -0.0151 -0.2977
 9014W        W51952   1.801  12.449  19.564  0.0650  0.1468 -0.0898
 9015W        W51953   0.863  12.617  16.375  0.0899 -0.1585 -0.3295
 9016W        W51954   2.243  14.703  16.912 -0.0964  0.0734 -0.4786
 9017W        W51955   1.043  11.848  19.631 -0.1223 -0.0101  0.3142
 9018W        W51956   1.987  12.091  19.856  0.0608 -0.5385  0.2271
 9019W        W51957   2.302  13.588  16.334 -0.0344 -0.1268 -0.1879
 9020W        W51958  34.594  12.392  16.169 -0.1641  0.0583 -0.1390
 9021W        W51959   0.302  13.596  17.815  0.2562  0.1630 -0.0858
 9022W        W51960   1.177  13.243  18.961  0.1506  0.0728  0.3315
 9023W        W51961   1.968  11.544  18.240  0.2214 -0.4532 -0.1084
 9024W        W51962   1.853  11.994  17.836 -0.2892  0.0801  0.0249
 9025W        W51963   1.879  13.775  16.493 -0.0256 -0.0714 -0.1072
 9026W        W51964   2.057  13.882  18.413  0.0622  0.0597  0.1500
 9027W        W51965   3.372  11.566  20.067  0.1279 -0.1560  0.2028
 9028W        W51966   0.013  14.074  18.644  0.3499  0.2486 -0.0108
 9029W        W51967   0.005  14.023  17.072  0.2239  0.2269 -0.1189
 9030W        W51968   1.646  13.486  16.880 -0.1640 -0.3144  0.1129
 9031W        W51969   4.246  14.208  17.757  0.0778 -0.1767  0.0971
 9032W        W51970   1.517  13.418  17.386  0.0467 -0.3524  0.4115
 9033W        W51971   1.561  13.966  20.774  0.1219  0.1134  0.0191
 9034W        W51972   0.592  13.829  16.007  0.0726  0.0913  0.2198
 9035W        W51973   2.249  14.081  19.873  0.0541  0.3117  0.0896
 9036W        W51974   1.599  12.655  19.972 -0.0507 -0.2277 -0.0131
 9037W        W51975   0.919  12.733  16.906  0.1297 -0.1425  0.2103
 9038W        W51976   1.360  13.118  16.194 -0.0233 -0.3973  0.2355
 9039W        W51977   0.977  14.217  16.442  0.1691  0.1599 -0.0539
 9040W        W51978   1.559  12.808  17.381 -0.0417 -0.1022 -0.0767
 9041W        W51979  34.128  12.955  20.280  0.2521 -0.0910  0.0946
 9042W        W51980   1.049  14.993  17.765 -0.3329  0.1331  0.0283
 9043W        W51981   4.052  10.959  20.320  0.5348 -0.2768  0.2551
 9044W        W51982   0.018  12.723  16.564 -0.1127  0.0316 -0.1602
 9045W        W51983   2.968  11.398  17.040 -0.2872 -0.0467 -0.0342
 9046W        W51984   0.811  11.268  16.430 -0.0924 -0.2355 -0.1577
 9047W        W51985   1.876  12.149  16.049 -0.0682 -0.3287  0.0469
 9048W        W51986   0.530  11.605  17.618 -0.0341  0.3648  0.4027
 9049W        W51987   1.135  14.046  18.802  0.0116 -0.0968  0.2474
 9050W        W51988   2.265  11.167  18.132  0.0813  0.1639  0.2906
 9051W        W51989   2.746  13.967  19.133  0.1815  0.3584 -0.4107
 9052W        W51990   2.114  11.708  16.117  0.4036  0.1395 -0.1547
 9053W        W51991   1.901  13.379  18.686  0.2663  0.2372 -0.2788
 9054W        W51992   1.854  13.228  17.697  0.0737 -0.0305 -0.1148
 9055W        W51993  34.502  14.103  18.243 -0.1235  0.0020  0.1087
 9056W        W51994   2.725  13.373  16.053  0.0795  0.1019 -0.0454
 9057W        W51995   2.950  14.411  17.641  0.3840  0.1910 -0.1063
 9058W        W51996   1.554  13.988  16.191  0.0860 -0.0338 -0.0325
 9059W        W51997  34.696  12.918  17.609  0.1233  0.0544  0.0126
 9060W        W51998   0.683  13.920  17.779 -0.0808  0.1957  0.0356
 9061W        W51999   0.403  12.690  18.275  0.0026  0.0079  0.3542
 9062W        W52000   0.892  11.078  15.987 -0.2064  0.1409 -0.0458
 9063W        W52001   4.303  13.788  18.625 -0.1238  0.0300 -0.5194
 9064W        W52002   0.788  15.551  18.438 -0.3265 -0.2673  0.0114
 9065W        W52003   2.864  12.520  16.975  0.2720  0.0593 -0.2842
 9066W        W52004   2.174  13.251  16.826 -0.2513  0.1339  0.2469
 9067W        W52005   2.946  12.696  17.927 -0.4147 -0.4431  0.1056
 9068W        W52006   2.548  11.160  16.819 -0.1758  0.2183  0.2085
 9069W        W52007   2.438   9.711  19.134  0.0927 -0.0211 -0.2760
 9070W        W52008   1.932  10.448  19.139  0.0772  0.1685  0.0653
 9071W        W52009  34.244  12.023  16.160 -0.1344  0.0947 -0.0557
 9072W        W52010   0.267  12.482  17.324 -0.1282  0.0044 -0.0873
 9073W        W52011   3.022  12.290  18.262  0.0867  0.1288  0.1646
 9074W        W52012   4.291  11.331  15.732  0.0045 -0.2232 -0.0212
 9075W        W52013   0.711  14.462  17.907  0.1689  0.3068  0.1431
 9076W        W52014   1.978  12.924  19.577  0.2788 -0.0104  0.1293
 9077W        W52015   2.224  13.555  20.061  0.0743 -0.0951  0.0233
 9078W        W52016   0.292  15.178  16.016 -0.0755  0.2085  0.1792
 9079W        W52017  34.130  12.639  18.890  0.1111 -0.0360  0.4253
 9080W        W52018  33.962  13.110  17.650 -0.1357  0.3827  0.1758
 9081W        W52019  33.255  11.557  20.297  0.0119 -0.2270 -0.0128
 9082W        W52020   1.602  13.507  18.038 -0.0335 -0.2358  0.0609
 9083W        W52021   3.223  10.287  16.312 -0.0393 -0.1700  0.2142
 9084W        W52022  34.129  10.599  18.635 -0.2371 -0.2245 -0.2877
 9085W        W52023   1.244  10.407  18.360 -0.0678 -0.0031 -0.0656
 9086W        W52024  33.934  13.808  17.141  0.2311  0.1319  0.0943
 9087W        W52025   3.078  13.825  16.043  0.0308  0.2463  0.0137
 9088W        W52026   2.510  11.727  16.953  0.2018  0.1834 -0.0017
 9089W        W52027   2.580  13.999  17.493 -0.1374  0.1378  0.2049
 9090W        W52028  34.564  12.101  18.707  0.1092 -0.2054  0.0260
 9091W        W52029  34.183  13.639  18.115  0.3182 -0.0306 -0.0397
 9092W        W52030   2.102  12.586  20.030  0.3187 -0.3217  0.1457
 9093W        W52031  33.827  11.865  18.176 -0.0195  0.0652  0.0276
 9094W        W52032   2.283  13.805  19.049  0.1609 -0.1091  0.0748
 9095W        W52033   0.160  11.375  16.324 -0.0109 -0.1123  0.3333
 9096W        W52034   2.476  11.379  17.285 -0.2421  0.1837  0.0415
 9097W        W52035  34.433  12.665  17.158 -0.0068  0.2104 -0.0655
 9098W        W52036  34.277  13.790  18.602 -0.1052  0.0582 -0.0573
 9099W        W52037   2.969  11.456  20.300  0.2553  0.2301  0.0316
 9100W        W52038   2.596  13.516  16.723 -0.3480  0.1124  0.1818
 9101W        W52039   3.418  12.344  17.891  0.0515 -0.1515  0.3665
 9102W        W52040   2.939  13.515  17.182  0.1840  0.1939 -0.0182
 9103W        W52041   1.052  11.343  19.472  0.0421  0.0216  0.0084
 9104W        W52042  34.063  11.677  16.491  0.2677 -0.4963  0.2206
 9105W        W52043   1.754  14.410  17.035 -0.0141  0.2163  0.0183
 9106W        W52044   0.603  15.007  18.138  0.1870 -0.1678 -0.1074
 9107W        W52045   0.806  10.752  17.303  0.1946 -0.1222  0.2720
 9108W        W52046   2.158  14.658  19.209  0.1081  0.1066  0.0463
 9109W        W52047   1.396  12.679  16.426  0.1880 -0.1886  0.0494
 9110W        W52048   1.043  12.835  19.291  0.0745  0.0601 -0.0365
 9111W        W52049   1.911  11.639  19.497  0.4780  0.1295 -0.1211
 9112W        W52050   2.233  13.182  19.060  0.0824  0.1558 -0.1115
 9113W        W52051   0.784  12.897  18.865 -0.0136  0.5534  0.0281
 9114W        W52052  34.597  11.336  15.806 -0.0700 -0.1551 -0.0547
 9115W        W52053   1.302  13.080  17.795  0.0595 -0.0600 -0.2339
 9116W        W52054   0.125  14.114  16.583 -0.0074 -0.3048 -0.0161
 9117W        W52055   0.724  13.834  19.074 -0.0613 -0.1256 -0.2430
 9118W        W52056   0.738  13.664  17.207  0.0517 -0.1436 -0.0033
 9119W        W52057   3.179  11.784  18.376 -0.0037 -0.0699 -0.1989
 9120W        W52058  34.687  13.809  20.202 -0.1653  0.4695 -0.0256
 9121W        W52059   2.413  11.821  19.685  0.1518 -0.1233 -0.1628
 9122W        W52060   0.522  11.740  16.311  0.0862  0.2868  0.2090
 9123W        W52061   1.532  14.024  19.435 -0.0093 -0.0215 -0.0377
 9124W        W52062   2.904  12.195  17.696 -0.1234  0.1811  0.0105
 9125W        W52063   3.297  12.265  16.945  0.1056  0.0340 -0.1004
 9126W        W52064   1.597  12.988  18.697  0.2006 -0.0750  0.1199
 9127W        W52065   3.817  13.878  17.653 -0.2465 -0.1211 -0.0542
 9128W        W52066   3.265  12.321  17.412 -0.1743  0.0629  0.0149
 9129W        W52067   1.263  11.758  17.016  0.1654 -0.0788 -0.1956
 9130W        W52068   0.205  13.077  18.589 -0.0776 -0.1123  0.3207
 9131W        W52069   2.462  12.348  17.205  0.0566 -0.0971 -0.1595
 9132W        W52070   1.748  13.055  18.199 -0.0117  0.2574  0.1151
 9133W        W52071   2.106  12.017  17.054 -0.0069  0.0165 -0.2693
 9134W        W52072   3.968  13.842  16.985 -0.0174  0.0225  0.0951
 9135W        W52073   1.247  12.817  18.223 -0.3680 -0.0340 -0.4236
 9136W        W52074   1.921  13.057  20.064  0.0307 -0.1454  0.1752
 9137W        W52075   3.452  13.786  18.052  0.0206 -0.2238 -0.0195
 9138W        W52076   2.167  11.821  18.627  0.1728 -0.0379  0.1944
 9139W        W52077  34.323  12.436  16.675  0.2358  0.0279  0.0658
 9140W        W52078   1.403  11.872  17.754  0.2586  0.2762  0.3078
 9141W        W52079   0.150  14.671  15.902  0.3290 -0.0801  0.2036
 9142W        W52080   4.167  13.036  18.588  0.0914  0.1142 -0.1606
 9143W        W52081   1.961   9.953  19.060 -0.1055 -0.3279  0.0041
 9144W        W52082   2.611  10.735  20.128 -0.0461 -0.0771  0.0664
 9145W        W52083   3.845  13.761  19.251 -0.2016  0.1163  0.1562
 9146W        W52084   3.448  12.138  16.438 -0.0128  0.0815 -0.1270
 9147W        W52085   1.409  11.771  16.537  0.1405  0.2798  0.0361
 9148W        W52086   0.819  12.586  15.496 -0.1236 -0.1249 -0.0951
 9149W        W52087   1.813  10.885  19.434  0.1682  0.4949 -0.0797
 9150W        W52088   2.973  12.657  22.380  0.0882  0.0067  0.2311
 9151W        W52089   1.763  13.937  17.679 -0.0005  0.2160 -0.0598
 9152W        W52090   2.420  13.366  17.299  0.0112  0.1085  0.3046
 9153W        W52091   1.751  11.631  16.894 -0.3339 -0.4330 -0.1134
 9154W        W52092   1.624  11.727  19.987  0.0155 -0.1801  0.0013
 9155W        W52093   1.195  11.011  17.546 -0.1228 -0.0005 -0.1812
 9156W        W52094   1.049  11.209  17.061  0.2994 -0.0575 -0.2172
 9157W        W52095   0.450  12.293  15.712  0.1081  0.2449  0.1468
 9158W        W52096   0.739  10.594  18.211  0.1900 -0.1553 -0.3259
 9159W        W52097   1.267  13.378  19.501 -0.0849  0.1358 -0.1738
 9160W        W52098   0.579  13.319  16.533  0.3258 -0.0025  0.0620
 9161W        W52099   3.095  13.015  19.518  0.1347 -0.1506  0.0714
 9162W        W52100  34.368  14.094  17.442  0.2095  0.0492  0.3062
 9163W        W52101   3.063   9.761  20.233  0.1529 -0.2029 -0.1348
 9164W        W52102   0.581  14.585  19.310 -0.0998 -0.1113 -0.1768
 9165W        W52103  34.611  12.224  17.017 -0.1480  0.0416 -0.1455
 9166W        W52104  34.656  10.857  16.478 -0.1744 -0.2832 -0.0490
 9167W        W52105   2.003  11.575  17.281 -0.0224 -0.0599  0.3437
 9168W        W52106   3.918  11.899  16.281  0.0080  0.2126  0.1033
 9169W        W52107  33.704  12.736  17.977  0.2684 -0.3174  0.1697
 9170W        W52108   0.920  10.856  19.169 -0.1288  0.4254  0.1139
 9171W        W52109   0.513  13.434  18.286  0.0070 -0.1407  0.1766
 9172W        W52110   1.807  14.326  18.101 -0.1614  0.0885 -0.2512
 9173W        W52111   1.132  12.051  17.366 -0.1292  0.2891 -0.1454
 9174W        W52112   2.536  12.535  18.675  0.2414 -0.0304 -0.4045
 9175W        W52113   0.427  12.537  18.921 -0.0730 -0.1370  0.2243
 9176W        W52114  34.518  11.890  17.402  0.0003  0.0972 -0.0622
 9177W        W52115   2.013  12.258  18.746  0.3897  0.2572 -0.2676
 9178W        W52116   0.740  11.784  17.179  0.1035  0.0405  0.1789
 9179W        W52117   1.401  13.596  16.420 -0.3304 -0.1136  0.0624
 9180W        W52118   3.517  12.570  18.923 -0.0362  0.0010  0.2122
 9181W        W52119   1.489  11.181  16.838 -0.1468  0.0761 -0.1867
 9182W        W52120   1.349  14.555  17.600 -0.0435  0.2764  0.1507
 9183W        W52121   0.810  12.431  19.852 -0.0470 -0.1835  0.2458
 9184W        W52122   2.736  12.932  18.923  0.1868 -0.2269 -0.0451
 9185W        W52123   1.449  12.164  18.746 -0.0239 -0.3893  0.0216
 9186W        W52124   0.167  12.089  17.647  0.2288  0.0894 -0.2894
 9187W        W52125   1.066  13.269  16.574  0.2200 -0.0524 -0.0905
 9188W        W52126   3.769  12.597  19.384  0.0160 -0.2221 -0.0472
 9189W        W52127   1.351  10.648  18.806 -0.0554 -0.0617  0.1901
 9190W        W52128   1.323  13.671  19.874 -0.1924  0.0453  0.1287
 9191W        W52129   0.249  11.994  19.039 -0.0395  0.0728 -0.1794
 9192W        W52130   3.308  15.324  17.247 -0.0837 -0.2222  0.2354
 9193W        W52131   2.737  12.154  19.509  0.1191 -0.2337 -0.0029
 9194W        W52132   0.625  13.259  17.038 -0.3485 -0.0195  0.1842
 9195W        W52133   0.474  12.169  18.071  0.0500 -0.0117 -0.0675
 9196W        W52134   1.361  13.034  16.956 -0.0875  0.1607  0.1641
 9197W        W52135   2.223  12.312  18.300 -0.1006  0.2120 -0.0582
 9198W        W52136  34.657  13.549  18.717 -0.0667  0.6023  0.4084
 9199W        W52137   0.037  12.485  17.942 -0.0102  0.2166  0.1592
 9200W        W52138   0.427  13.414  18.836  0.0347 -0.0675 -0.0257
 9201W        W52139   2.065  10.916  16.571 -0.1646  0.0092  0.0038
 9202W        W52140   1.618  12.235  16.765  0.2666 -0.0928 -0.1525
 9203W        W52141   1.612  11.985  17.272 -0.2004 -0.2988  0.3283
 9204W        W52142   3.265  12.007  19.588  0.0683 -0.4031  0.0821
 9205W        W52143   1.358  12.169  16.248  0.1094  0.3208 -0.3502
 9206W        W52144   2.917  11.884  20.021 -0.0447 -0.2220  0.1074
 9207W        W52145   1.364  11.039  20.563  0.3122 -0.0728 -0.3720
 9208W        W52146   3.495  12.763  17.651 -0.1505 -0.2175  0.0430
 9209W        W52147  34.260  12.249  19.794 -0.1134 -0.0613 -0.1594
 9210W        W52148   2.603  13.292  20.391 -0.0521  0.1249 -0.0560
 9211W        W52149  34.659  11.636  21.382  0.0658  0.2410 -0.1770
 9212W        W52150   1.472  11.391  17.966 -0.0828 -0.0596 -0.0421
 9213W        W52151   1.591  11.193  17.367 -0.0836 -0.0613  0.1051
 9214W        W52152   2.525  11.725  20.356  0.0819 -0.0084 -0.1379
 9215W        W52153   3.610  12.132  19.151  0.0154 -0.1598  0.0227
 9216W        W52154   1.208  14.293  18.076  0.2201  0.1505  0.0866
 9217W        W52155   2.419  11.509  17.772  0.0157  0.0353 -0.2649
 9218W        W52156   0.631  12.135  17.546  0.0307  0.2304  0.0848
 9219W        W52157   1.293  11.980  15.805 -0.0556  0.0319  0.0941
 9220W        W52158   1.803  13.060  16.513 -0.1915 -0.1137 -0.1572
 9221W        W52159   0.887  13.613  18.648  0.1674 -0.1236  0.2432
 9222W        W52160   1.210  12.468  19.552  0.1116  0.0620 -0.1235
 9223W        W52161   1.718  10.912  17.813 -0.0671 -0.1105 -0.1119
 9224W        W52162   3.022  11.034  18.639  0.1019 -0.0356 -0.0503
 9225W        W52163   1.770  10.903  18.809 -0.2337  0.0732 -0.4222
 9226W        W52164   2.748  11.488  19.788 -0.0058 -0.1396 -0.0159
 9227W        W52165   1.611  11.530  18.652  0.4970 -0.0212  0.1654
 9228W        W52166  33.912  12.340  20.702  0.2237  0.1120  0.1925
 9229W        W52167   3.046  13.162  17.587 -0.0601  0.1389 -0.2679
 9230W        W52168   3.067  11.040  16.631 -0.1607 -0.0610 -0.0992
 9231W        W52169   3.861  13.228  20.093 -0.0170  0.0221 -0.2948
 9232W        W52170   3.731  12.132  17.167  0.0297 -0.1815  0.2602
 9233W        W52171   2.429  12.247  16.705  0.2772 -0.3726 -0.1711
 9234W        W52172   0.919  11.974  18.343  0.1530  0.1342  0.4108
 9235W        W52173   3.097  14.191  21.079 -0.0128 -0.0105  0.0441
 9236W        W52174   1.402  11.778  18.268 -0.1324 -0.1062 -0.1511
 9237W        W52175   3.822   9.916  19.801  0.1365  0.0488  0.0764
 9238W        W52176   0.387  13.755  16.457 -0.4081  0.1010  0.1392
 9239W        W52177   1.840  12.449  18.029 -0.3748 -0.0654  0.1118
 9240W        W52178   1.313  12.489  17.076 -0.1364  0.0289  0.2829
 9241W        W52179  34.561  12.765  18.291 -0.2991 -0.3309  0.1442
 9242W        W52180   0.097  14.628  19.398 -0.4245 -0.3090  0.0722
 9243W        W52181   0.425  11.406  15.921 -0.2583  0.1626  0.2180
 9244W        W52182   0.393  12.450  16.229 -0.0570 -0.1265  0.1377
 9245W        W52183   1.757  13.263  19.191  0.0858 -0.2621  0.3108
 9246W        W52184   3.961  12.834  18.999 -0.0466  0.0547 -0.0563
 9247W        W52185   1.642  10.915  16.327 -0.3213  0.1363 -0.2421
 9248W        W52186   3.305  11.485  19.075  0.0830 -0.0879  0.1274
 9249W        W52187   0.882  13.441  17.625 -0.3053 -0.0683 -0.3977
 9250W        W52188   2.773  11.812  17.954  0.0719  0.2074  0.3027
 9251W        W52189   0.429  14.860  17.161  0.0420  0.2156 -0.2111
 9252W        W52190   0.206  13.131  19.651 -0.5933 -0.1039 -0.0828
 9253W        W52191  34.044  13.306  16.746 -0.1216 -0.0011  0.3844
 9254W        W52192   1.385  11.499  20.335 -0.1439 -0.0947  0.0527
 9255W        W52193   1.924  11.527  17.744 -0.0492 -0.1311  0.0361
 9256W        W52194   1.627  12.774  19.115  0.0917  0.1045 -0.0650
 9257W        W52195   3.264  12.444  19.412  0.1240 -0.2388  0.3666
 9258W        W52196   1.398  14.619  18.595 -0.1907  0.0999 -0.2917
 9259W        W52197  34.340  13.742  16.647  0.2307  0.0595  0.0977
 9260W        W52198   2.242  14.303  17.756 -0.4999  0.0183  0.2393
 9261W        W52199   2.608  14.032  18.065  0.0667 -0.0525  0.2240
 9262W        W52200   0.971  13.366  18.105  0.2838 -0.1494 -0.0846
 9263W        W52201  33.083  14.013  20.395  0.3666  0.2133 -0.4090
 9264W        W52202   1.827  13.847  19.839 -0.1244  0.0108 -0.3132
 9265W        W52203   1.778  12.049  18.340 -0.3379  0.1017 -0.0804
 9266W        W52204   0.040  11.139  17.034  0.1935  0.1388  0.0266
 9267W        W52205   2.287  13.082  16.339 -0.0787  0.2051  0.0591
 9268W        W52206   0.553  13.625  19.570  0.3444  0.0871  0.3444
 9269W        W52207  34.454  11.736  18.975 -0.2402  0.3201 -0.0460
 9270W        W52208   0.552  13.995  16.911  0.0864 -0.3808  0.1669
 9271W        W52209   2.310  12.860  17.215 -0.1534 -0.1933 -0.0095
 9272W        W52210   2.138  13.751  16.916  0.0707  0.0401  0.1522
 9273W        W52211   1.929  15.604  18.329  0.0730 -0.0508  0.1770
 9274W        W52212   1.275  10.746  17.122 -0.0037 -0.1658 -0.0502
 9275W        W52213   1.241  14.405  16.973  0.0205 -0.4737 -0.2663
 9276W        W52214  34.579  14.492  16.895  0.2790 -0.1418  0.0774
 9277W        W52215   3.056  14.919  17.414  0.1409 -0.0693 -0.1303
 9278W        W52216   1.118  15.142  18.308 -0.0135  0.1634  0.1780
 9279W        W52217   2.564  13.749  19.609 -0.1285  0.0782  0.0405
 9280W        W52218   2.591  11.026  17.665 -0.2839 -0.0611 -0.1842
 9281W        W52219   2.605  12.059  18.399 -0.0523  0.1893  0.2194
 9282W        W52220   2.493  11.947  17.494 -0.0867  0.0153  0.0391
 9283W        W52221   1.309  14.122  20.315  0.1408 -0.0735 -0.1755
 9284W        W52222   1.411  13.514  18.574 -0.0846  0.2303  0.0116
 9285W        W52223   0.804  11.710  16.719  0.0393  0.0979  0.1566
 9286W        W52224   1.341  12.280  20.029  0.1024  0.0147 -0.2882
 9287W        W52225   3.521  10.912  19.760 -0.0437 -0.0771  0.0470
 9288W        W52226   2.437  14.950  20.138 -0.2917 -0.3190  0.2007
 9289W        W52227   1.147  13.828  18.196  0.1055  0.1170 -0.3023
 9290W        W52228  34.386  12.341  17.574  0.1256  0.1305  0.3303
 9291W        W52229   0.889  12.589  17.398  0.0149  0.2601  0.2766
 9292W        W52230   3.244  10.428  18.488  0.2297 -0.0651  0.1912
 9293W        W52231   0.254  13.039  16.266 -0.3029 -0.1964 -0.1262
 9294W        W52232   2.228  13.338  18.071 -0.1518  0.0920 -0.2216
 9295W        W52233   1.066  13.099  17.346 -0.1221  0.0768 -0.2613
 9296W        W52234   0.760  13.377  19.206  0.1684 -0.2017  0.0588
 9297W        W52235   1.995  13.584  17.360 -0.1484  0.1074  0.0805
 9298W        W52236   0.291  11.620  16.791  0.1754 -0.1234 -0.0995
 9299W        W52237   2.530  12.104  18.925 -0.1458 -0.3731 -0.3944
 9300W        W52238   1.491  12.001  19.416  0.2204  0.2593 -0.1886
 9301W        W52239   3.263  10.943  19.337 -0.1417 -0.2372  0.2821
 9302W        W52240  34.661  11.897  16.516 -0.2679 -0.0882  0.0164
 9303W        W52241   3.406  11.352  17.999 -0.3135  0.2331  0.1368
 9304W        W52242   2.286  12.493  19.561 -0.5751 -0.0307 -0.0147
 9305W        W52243   1.070  12.205  19.152  0.3338  0.1328 -0.2618
 9306W        W52244   1.969  12.460  16.494 -0.0190 -0.1048 -0.0626
 9307W        W52245   3.057  14.448  18.976  0.0877  0.0479  0.0723
 9308W        W52246   0.730  11.879  15.903  0.0017 -0.1874 -0.1971
 9309W        W52247   2.623  15.153  20.865  0.1466  0.1718 -0.0052
 9310W        W52248   0.669  11.664  18.683  0.0290  0.0796 -0.1059
 9311W        W52249   3.147  11.804  16.777 -0.0761 -0.2435 -0.0552
 9312W        W52250  34.640  14.527  17.378 -0.1814  0.0320 -0.1267
 9313W        W52251   1.046  11.442  19.952 -0.3741 -0.0268 -0.5095
 9314W        W52252   3.419  14.412  19.738  0.3385 -0.0689 -0.0410
 9315W        W52253  34.047  13.158  18.669 -0.3000 -0.0665  0.0446
 9316W        W52254   3.242  13.335  16.829 -0.0478 -0.1560 -0.2156
 9317W        W52255   4.501  12.963  19.021  0.1718 -0.0404 -0.1794
 9318W        W52256  34.595  13.973  16.152 -0.2053  0.0197 -0.0428
 9319W        W52257   0.816  12.125  16.295 -0.0367  0.3140  0.2149
 9320W        W52258   2.132  15.248  18.596 -0.1441  0.0010  0.3340
 9321W        W52259  34.406  12.796  19.280 -0.1642  0.2643  0.0116
 9322W        W52260   2.482  13.973  18.659 -0.2031 -0.0395  0.0643
 9323W        W52261   1.921  11.903  16.539 -0.0931 -0.4196  0.1364
 9324W        W52262   1.032  10.347  18.985  0.1352  0.0016  0.1730
 9325W        W52263   1.149  11.721  18.764  0.0617  0.4036 -0.0621
 9326W        W52264  34.586  13.867  17.790  0.2385 -0.3898 -0.0620
 9327W        W52265   3.541  12.397  18.405  0.0595  0.2293 -0.0589
 9328W        W52266   1.438  11.054  19.130  0.2726 -0.0260  0.1114
 9329W        W52267  33.505  14.144  17.039 -0.1433 -0.1896 -0.3117
 9330W        W52268   3.028  11.042  19.922  0.1582 -0.2599 -0.2648
 9331W        W52269   1.388  14.958  19.310  0.1951  0.3746 -0.0517
 9332W        W52270   1.008  13.850  19.515 -0.0917 -0.1429  0.1898
 9333W        W52271   0.141  11.891  16.052  0.2895 -0.2107  0.0559
 9334W        W52272   0.869  12.435  18.417  0.0380 -0.0785 -0.0532
 9335W        W52273   2.856  14.372  18.505 -0.0539  0.0051  0.1221
 9336W        W52274   1.155  13.531  17.036 -0.2265  0.1343 -0.0208
 9337W        W52275   2.372  13.322  18.597  0.0941  0.0741  0.1649
 9338W        W52276   1.113  12.148  16.734 -0.0829  0.0271  0.1576
 9339W        W52277   3.548  12.958  16.811  0.0847 -0.0527 -0.0560
 9340W        W52278   0.328  12.252  18.527 -0.0885  0.0885 -0.2438
 9341W        W52279   3.710  11.814  16.813 -0.0404 -0.3266  0.1567
 9342W        W52280   3.394  11.760  17.233  0.4201  0.2706  0.0830
 9343W        W52281   1.236  12.622  18.726 -0.1649  0.2179  0.2853
 9344W        W52282   0.308  11.188  17.788 -0.0324 -0.0207  0.2582
 9345W        W52283   0.456  12.089  16.665  0.2861 -0.2212 -0.0684
 9346W        W52284  34.652  12.567  18.869  0.1759 -0.0331 -0.0202
 9347W        W52285   1.581  11.329  19.641 -0.0685 -0.1779  0.0767
 9348W        W52286   1.790  11.871  19.047  0.1780 -0.0663 -0.1663
 9349W        W52287   0.122  13.356  17.401 -0.1113  0.0201  0.0185
 9350W        W52288   0.270  11.993  17.217 -0.1890  0.2188 -0.1795
 9351W        W52289   2.206  14.203  16.785  0.2400 -0.0668  0.2599
 9352W        W52290   0.952  12.367  17.863  0.6817  0.1922  0.0472
 9353W        W52291  33.057  13.376  17.406 -0.0660  0.1242 -0.0079
 9354W        W52292   2.978  13.884  17.775  0.3100 -0.0931  0.0537
 9355W        W52293   2.175  13.744  17.811 -0.1135  0.1965 -0.2543
 9356W        W52294   2.754  10.625  16.809  0.0843  0.1066  0.0892
 9357W        W52295   1.913  15.020  19.470  0.2030 -0.0500 -0.0433
 9358W        W52296  34.255  11.168  16.379 -0.2376  0.2366 -0.2350
 9359W        W52297   2.399  12.963  19.942 -0.0521 -0.2855  0.3068
 9360W        W52298  34.669  11.703  20.776  0.1233 -0.2923 -0.1096
 9361W        W52299   0.475  12.581  16.694 -0.0620  0.0893 -0.1100
 9362W        W52300   2.085  12.828  18.593 -0.0920 -0.1983 -0.1789
 9363W        W52301   2.617  14.525  16.594  0.0358 -0.3144  0.4630
 9364W        W52302   3.433  14.211  16.257  0.0852 -0.2883 -0.0448
 9365W        W52303   3.189  12.786  18.602 -0.0860  0.1956  0.0807
 9366W        W52304   1.789  13.806  18.844 -0.0205  0.0945  0.0199
 9367W        W52305   0.020  12.008  18.200  0.0357  0.1364 -0.0529
 9368W        W52306   2.608  12.619  16.398 -0.2164 -0.2709  0.0709
 9369W        W52307   3.112  12.373  19.900 -0.2390  0.0107  0.0485
 9370W        W52308   2.711  12.376  15.983  0.0957 -0.1599  0.0480
 9371W        W52309   2.757  10.625  19.126 -0.0057  0.1879  0.0872
 9372W        W52310   1.825  12.594  16.999  0.1372  0.0448 -0.1156
 9373W        W52311   0.484  10.646  19.673  0.2257 -0.2258  0.2412
 9374W        W52312   0.187  12.578  20.582  0.1033  0.0265  0.2640
 9375W        W52313   2.827  13.408  18.768  0.1414 -0.0514  0.1659
 9376W        W52314   0.898  11.859  17.866 -0.0471  0.0009  0.1898
 9377W        W52315   1.967  12.737  17.617 -0.1304 -0.1284  0.1005
 9378W        W52316   2.941  11.987  17.183  0.1940 -0.0399  0.0928
 9379W        W52317  33.852  13.210  17.167 -0.4893 -0.0234 -0.1598
 9380W        W52318   2.273  12.775  16.720 -0.3139 -0.0766  0.2995
 9381W        W52319   1.489  12.901  19.537  0.2007 -0.0157 -0.1152
 9382W        W52320   1.886  13.117  17.162  0.1302 -0.0817  0.3152
 9383W        W52321   3.652  12.963  18.569  0.1705 -0.0586  0.2132
 9384W        W52322  34.472  11.593  16.200  0.0287 -0.1441  0.2043
 9385W        W52323   3.539  11.980  15.943  0.0871  0.1477 -0.4646
 9386W        W52324   1.971  13.948  20.334  0.0955  0.0388  0.2728
 9387W        W52325   2.565  14.468  19.884  0.0114  0.0295 -0.0739
 9388W        W52326   1.710  14.275  20.054 -0.1794  0.0272  0.0476
 9389W        W52327   3.688  13.685  18.630  0.2300  0.3364 -0.0033
 9390W        W52328   0.173  11.692  18.614 -0.0185  0.3595 -0.0137
 9391W        W52329   0.514  12.583  17.744 -0.0911  0.1543 -0.0480
 9392W        W52330   1.342  12.263  18.176 -0.0383 -0.3024 -0.3512
 9393W        W52331   2.933  11.330  17.946 -0.0575 -0.3874 -0.0700
 9394W        W52332   1.688  12.547  18.481  0.1698  0.0189 -0.3430
 9395W        W52333   2.835  10.857  18.148 -0.2816 -0.0567 -0.3739
 9396W        W52334   0.653  14.259  18.873 -0.1415 -0.0114 -0.2147
 9397W        W52335   2.292  14.389  18.388  0.4293  0.0276  0.1173
 9398W        W52336   1.508  13.410  22.883  0.2962 -0.0021 -0.1179
 9399W        W52337   0.441  10.748  21.195  0.1392  0.1712  0.3208
 9400W        W52338   2.331  11.699  19.134 -0.1460 -0.0473 -0.3208
 9401W        W52339   3.436  13.307  21.355  0.1230 -0.1818  0.0103
 9402W        W52340   0.178  11.100  21.532  0.4652 -0.3408  0.0539
 9403W        W52341   4.369  12.571  21.890  0.1269  0.0692 -0.2066
 9404W        W52342   1.224   9.408  23.659 -0.2129 -0.0446 -0.0017
 9405W        W52343   2.969  14.835  21.897  0.1606 -0.1896  0.0947
 9406W        W52344   2.854  14.470  21.470  0.0901 -0.0652  0.0234
 9407W        W52345   3.960  12.167  19.562  0.1422  0.0500  0.2067
 9408W        W52346   2.727  11.696  23.114 -0.2411  0.2148 -0.1859
 9409W        W52347   1.098  13.432  22.569  0.0933  0.3055  0.3190
 9410W        W52348   0.781  12.203  20.486  0.0055  0.3133 -0.0155
 9411W        W52349  34.526  10.079  22.242 -0.0558  0.0452 -0.0094
 9412W        W52350   3.566  12.202  22.287 -0.0949  0.0054  0.0618
 9413W        W52351  34.150  12.341  21.191 -0.6370  0.0803 -0.1515
 9414W        W52352   0.603  12.010  23.617  0.2446  0.1402 -0.1318
 9415W        W52353   1.714  11.304  21.763 -0.0750  0.0276 -0.3311
 9416W        W52354   3.434  13.219  21.828  0.0559  0.0847 -0.0196
 9417W        W52355   0.633  10.540  22.996  0.0538 -0.0564  0.1913
 9418W        W52356   1.474  11.072  22.252  0.1892  0.1611  0.2498
 9419W        W52357  34.600  14.196  21.081  0.0051 -0.1050 -0.1165
 9420W        W52358   1.061  13.138  21.065 -0.3753 -0.0557 -0.2318
 9421W        W52359  34.512  12.196  23.126  0.2182 -0.1276 -0.1877
 9422W        W52360  34.302  11.532  22.659  0.1104 -0.0752 -0.3605
 9423W        W52361   2.435  12.574  22.249  0.2208  0.0732  0.2114
 9424W        W52362   3.353  11.377  21.555  0.1827  0.2777  0.0037
 9425W        W52363   0.656  13.425  22.028 -0.5492  0.0763  0.1287
 9426W        W52364   2.882  14.301  21.944 -0.0205 -0.0334 -0.1864
 9427W        W52365   3.146  12.722  24.513 -0.0300  0.2505 -0.1460
 9428W        W52366   0.409  13.830  20.418  0.0761 -0.3648 -0.4696
 9429W        W52367  33.761  15.588  22.558 -0.1371 -0.1099  0.2134
 9430W        W52368   2.387  12.992  20.693  0.2603  0.0528 -0.1562
 9431W        W52369   3.420  13.731  21.708  0.1304 -0.3063  0.0908
 9432W        W52370   3.655  14.008  24.074 -0.0318 -0.2907  0.1369
 9433W        W52371   0.882  14.829  23.436  0.1132  0.2770  0.0443
 9434W        W52372   2.737  12.777  20.305  0.1231 -0.0180 -0.2570
 9435W        W52373   2.023  13.333  24.644 -0.1824  0.0882  0.0178
 9436W        W52374   0.618  14.735  24.537 -0.1488 -0.2909  0.0648
 9437W        W52375   0.443  11.914  23.103  0.1421 -0.3034 -0.3280
 9438W        W52376   1.961  12.435  22.149  0.0786  0.0551 -0.0915
 9439W        W52377   0.602  13.786  21.146 -0.1657  0.1352  0.0938
 9440W        W52378   0.514  12.967  21.918  0.4127 -0.0324  0.0939
 9441W        W52379   0.952  13.844  24.414 -0.4099  0.0394  0.1058
 9442W        W52380  34.696  13.686  22.009  0.2933  0.1819 -0.2125
 9443W        W52381   1.603  11.241  22.683  0.0581 -0.3028 -0.2282
 9444W        W52382  34.209  13.426  20.413 -0.1862 -0.2095  0.1199
 9445W        W52383   3.460  12.783  19.866  0.0853 -0.0797  0.2298
 9446W        W52384   1.620  12.000  20.579 -0.0041 -0.2109  0.1367
 9447W        W52385   2.922  10.258  20.399 -0.0586  0.2657 -0.0321
 9448W        W52386   0.782  12.199  20.994 -0.0143 -0.0903 -0.0352
 9449W        W52387   1.141  13.596  21.989  0.1697 -0.0221  0.0473
 9450W        W52388  34.234  10.320  23.562 -0.0377  0.0395 -0.1488
 9451W        W52389   2.049  13.264  23.973 -0.0772  0.0896  0.1248
 9452W        W52390   1.718  11.443  20.784  0.0546  0.1280 -0.1254
 9453W        W52391   2.955  11.066  21.117  0.0933  0.1958 -0.0668
 9454W        W52392   0.821  13.986  22.608 -0.0039 -0.2274 -0.3559
 9455W        W52393  33.870  12.119  21.940  0.3253 -0.2067  0.1852
 9456W        W52394   2.715  12.936  21.175 -0.1300  0.4291  0.1136
 9457W        W52395   3.048  13.436  21.070  0.3788 -0.1687 -0.0126
 9458W        W52396   1.921  13.670  19.344 -0.1139 -0.0453  0.0474
 9459W        W52397   1.057  12.656  21.831  0.3131  0.0962 -0.0790
 9460W        W52398  34.574  13.242  25.345  0.0696 -0.2014  0.0691
 9461W        W52399   0.642  14.430  23.287 -0.0836  0.1579 -0.2512
 9462W        W52400   0.027  12.164  20.217 -0.1703 -0.0727  0.0098
 9463W        W52401   3.675  12.613  24.463 -0.2433  0.1074  0.2123
 9464W        W52402   0.086  14.470  23.361 -0.0680  0.0478 -0.1864
 9465W        W52403   3.697  11.521  21.276 -0.0452 -0.0366 -0.1925
 9466W        W52404   1.217  11.279  21.841 -0.2273 -0.0685  0.4108
 9467W        W52405   4.420  13.287  21.951 -0.3255 -0.1474  0.0681
 9468W        W52406   2.246  13.358  19.549 -0.0319  0.3333 -0.2183
 9469W        W52407   2.668  11.119  23.113 -0.0446 -0.1217 -0.0833
 9470W        W52408   3.003  10.083  21.285  0.0689 -0.1735  0.0020
 9471W        W52409   0.519  12.776  19.606  0.2780  0.2015  0.2013
 9472W        W52410  34.584  12.158  21.209  0.1095  0.1612  0.1757
 9473W        W52411   3.494  14.552  25.434  0.0583  0.1800 -0.0182
 9474W        W52412   3.240  12.640  21.886  0.1109  0.1671  0.2072
 9475W        W52413   0.315  12.762  22.433 -0.3114  0.2193 -0.1089
 9476W        W52414   2.088  10.593  23.802  0.3059 -0.1346  0.0024
 9477W        W52415   1.228  13.561  24.021  0.1315  0.0539 -0.1768
 9478W        W52416   0.917  13.882  20.059  0.1662  0.2018  0.1731
 9479W        W52417  34.481  12.876  22.264  0.3002 -0.1410  0.3042
 9480W        W52418   0.197  12.925  19.103 -0.0376  0.2512  0.2833
 9481W        W52419  34.357  10.952  22.715 -0.3598 -0.1305 -0.0411
 9482W        W52420   2.020  13.339  23.362 -0.1161 -0.0468 -0.0180
 9483W        W52421   3.230  11.447  19.563  0.2897 -0.2894 -0.0160
 9484W        W52422   0.604  11.304  22.557 -0.0868  0.1634 -0.2483
 9485W        W52423   2.794  11.551  23.931 -0.2883 -0.2928  0.2312
 9486W        W52424  34.232  11.929  21.588  0.0602 -0.1371 -0.1256
 9487W        W52425   3.561  13.927  21.197 -0.1055  0.0195 -0.1531
 9488W        W52426   3.587  11.774  20.781 -0.2349 -0.2966 -0.0363
 9489W        W52427   2.689  12.344  21.885 -0.2832  0.1339 -0.0388
 9490W        W52428  33.351  12.016  24.054 -0.0522  0.0231  0.2519
 9491W        W52429   1.260  12.315  21.050  0.3204 -0.0373  0.4102
 9492W        W52430   0.287  11.156  24.420  0.0332 -0.0470 -0.1154
 9493W        W52431   0.658  11.420  21.167  0.1691  0.0194  0.1827
 9494W        W52432   1.117  11.247  22.568  0.0335  0.1191 -0.1177
 9495W        W52433   0.380  11.239  19.930 -0.0187  0.1449  0.0556
 9496W        W52434   1.327  11.484  21.371  0.3703 -0.0266 -0.2662
 9497W        W52435   0.038  11.640  22.266  0.1817  0.0114 -0.3912
 9498W        W52436  33.460  12.929  20.373  0.0056  0.0214 -0.1733
 9499W        W52437   1.910  11.720  21.981  0.2338  0.0596  0.0186
 9500W        W52438   2.697  13.749  20.090  0.2745  0.0562  0.1889
 9501W        W52439   4.253  14.790  23.387 -0.1032  0.2184  0.1637
 9502W        W52440   3.846  13.702  20.824  0.0240  0.0319  0.0153
 9503W        W52441  32.954  13.147  22.958 -0.3245  0.0190 -0.0826
 9504W        W52442   0.591  11.633  20.143  0.0118  0.0503 -0.4099
 9505W        W52443   0.693  14.763  22.000  0.1724  0.1876  0.0019
 9506W        W52444   1.499  12.221  22.017  0.3069  0.1893 -0.3776
 9507W        W52445   0.603  11.762  20.835 -0.1449  0.0808 -0.0058
 9508W        W52446   3.802  14.375  21.132  0.0636 -0.0357  0.0727
 9509W        W52447   0.568  13.318  21.235  0.0848  0.0403 -0.0915
 9510W        W52448   1.313  11.760  22.665 -0.0306 -0.0831 -0.0745
 9511W        W52449   2.152  11.115  22.099  0.2721 -0.0885 -0.1818
 9512W        W52450   4.386  12.564  22.402  0.4978  0.0405  0.4910
 9513W        W52451   2.152  12.219  21.244  0.1601  0.0448 -0.0708
 9514W        W52452  34.364  11.352  19.307  0.2395 -0.1980  0.0271
 9515W        W52453   2.993  13.117  22.159  0.3080  0.5064 -0.0124
 9516W        W52454   2.104  13.788  21.050  0.2714 -0.2100 -0.0036
 9517W        W52455  33.706  12.752  21.055  0.2454  0.0860  0.0847
 9518W        W52456   0.328  13.444  20.034  0.2143  0.0176  0.2923
 9519W        W52457   3.233  10.262  20.874 -0.0349 -0.0485 -0.1337
 9520W        W52458   0.100  12.797  24.248  0.0839  0.0684  0.1635
 9521W        W52459   2.373  12.828  23.629  0.1261 -0.2744 -0.3324
 9522W        W52460  34.551  12.675  21.473  0.0549 -0.0410  0.3604
 9523W        W52461   0.973  15.024  22.984 -0.0604 -0.0974  0.1123
 9524W        W52462   3.472  10.971  21.117  0.0168 -0.1549 -0.0917
 9525W        W52463   3.970  11.992  20.482  0.2732  0.0576  0.0558
 9526W        W52464   2.339  13.590  23.716  0.1468  0.0566  0.0145
 9527W        W52465   2.073  12.970  22.052  0.1279  0.4636 -0.0601
 9528W        W52466   3.276  14.028  19.289  0.0010  0.0431  0.0517
 9529W        W52467   2.465  12.232  19.971 -0.1971 -0.0447  0.2961
 9530W        W52468  34.340  13.286  22.747  0.1462 -0.0608 -0.2196
 9531W        W52469   1.093  13.015  22.190 -0.3216 -0.0543 -0.1625
 9532W        W52470   1.068  13.166  23.023 -0.1967 -0.1084  0.0847
 9533W        W52471   2.175  12.165  20.447 -0.0260 -0.1627 -0.1766
 9534W        W52472   5.293  14.499  21.306 -0.0132  0.2026 -0.0319
 9535W        W52473   0.395  12.310  22.665 -0.0797  0.2303 -0.1273
 9536W        W52474   1.893  13.968  23.953  0.3918 -0.0192  0.0298
 9537W        W52475   2.404  14.825  21.837 -0.2974  0.1494  0.1848
 9538W        W52476   0.818  11.973  22.673 -0.1056  0.0601 -0.0543
 9539W        W52477   2.892  12.609  20.749 -0.4415  0.1019  0.1702
 9540W        W52478   1.037  11.876  21.350 -0.1618  0.2052  0.1981
 9541W        W52479   1.311  13.642  20.370 -0.0478  0.3094 -0.4092
 9542W        W52480   2.671  10.215  23.180 -0.0465  0.3363  0.1380
 9543W        W52481   3.020  11.040  21.818  0.2089  0.1626 -0.0579
 9544W        W52482   1.729  10.145  21.184 -0.1573 -0.0603  0.1497
 9545W        W52483   2.611  11.070  22.415 -0.1006 -0.0083  0.5809
 9546W        W52484   2.712  13.302  19.810 -0.1137  0.0935 -0.3164
 9547W        W52485   2.546  11.633  22.242  0.2231 -0.2579 -0.0801
 9548W        W52486   1.722  13.340  19.713 -0.1765 -0.1708  0.0444
 9549W        W52487   1.314  11.120  23.534  0.0700 -0.0494 -0.1609
 9550W        W52488   0.909  13.206  21.567  0.2278  0.3075 -0.0770
 9551W        W52489   0.006  14.001  22.867 -0.1366  0.1166 -0.0616
 9552W        W52490   2.587  14.591  24.136  0.0765 -0.0880 -0.2404
 9553W        W52491   2.813  11.427  21.469 -0.0905 -0.4608 -0.1265
 9554W        W52492   2.320  11.997  23.136 -0.2886 -0.2992 -0.2737
 9555W        W52493   2.292  11.282  19.546  0.1969  0.0049  0.1580
 9556W        W52494   1.727  14.348  20.514  0.1674  0.1117 -0.2220
 9557W        W52495   1.478  12.950  20.389 -0.3022  0.0081 -0.3438
 9558W        W52496   1.515  11.578  22.195  0.1649 -0.2003 -0.1244
 9559W        W52497   2.521  13.920  23.349  0.0901 -0.0918 -0.0486
 9560W        W52498   1.885  12.962  21.521 -0.3308 -0.3321 -0.2698
 9561W        W52499   2.591  14.300  23.643 -0.1005 -0.0167 -0.1681
 9562W        W52500   1.028  13.682  21.425 -0.3421 -0.1186 -0.1758
 9563W        W52501   2.495   9.660  20.801 -0.1977  0.1818 -0.0467
 9564W        W52502  32.952  12.692  22.128  0.1483  0.2709  0.0719
 9565W        W52503   1.687  12.550  21.252  0.1729 -0.0310 -0.0992
 9566W        W52504   0.970  12.694  20.380  0.0884 -0.2815  0.1013
 9567W        W52505   2.526  11.925  21.314 -0.0245 -0.1966  0.0965
 9568W        W52506   2.896  13.828  20.663  0.1605  0.2548  0.0528
 9569W        W52507  34.050  10.145  22.675  0.1933 -0.1234  0.0242
 9570W        W52508   0.804  11.234  22.076 -0.3814  0.4273 -0.0071
 9571W        W52509  34.246  14.181  21.993  0.0905  0.0551 -0.2185
 9572W        W52510   1.739  12.092  23.173  0.1050  0.1115 -0.0286
 9573W        W52511   2.908  10.995  20.523 -0.2927  0.0421  0.2290
 9574W        W52512   2.826  13.816  22.031  0.0991  0.4314  0.0910
 9575W        W52513   1.334  10.815  22.695  0.1714 -0.1376 -0.2658
 9576W        W52514   0.813  12.695  21.020 -0.2736  0.0561  0.4321
 9577W        W52515   2.370  10.689  22.901 -0.2644  0.0928  0.2835
 9578W        W52516   1.957  11.459  22.380 -0.0795  0.0396 -0.2107
 9579W        W52517  34.482  13.872  21.612 -0.1541  0.1068  0.0602
 9580W        W52518   1.949  13.466  22.014 -0.0900 -0.2090 -0.1562
 9581W        W52519  34.364  12.480  20.306 -0.2917 -0.1011  0.1081
 9582W        W52520  33.943  13.620  21.805  0.1610 -0.1932  0.0174
 9583W        W52521   0.776  11.549  23.894  0.0677  0.1105 -0.0326
 9584W        W52522   1.985  13.201  22.905  0.0810  0.5118 -0.0907
 9585W        W52523   1.563  11.957  21.175  0.1569 -0.2267 -0.1010
 9586W        W52524  33.976  12.605  21.535 -0.1748  0.3444 -0.3756
 9587W        W52525   0.841  11.964  24.212  0.2243  0.3667 -0.2734
 9588W        W52526   2.161  12.033  22.387  0.0050 -0.0600  0.0653
 9589W        W52527   0.898  12.050  23.169 -0.1991 -0.1091 -0.1261
 9590W        W52528   1.513  13.123  23.341 -0.0035 -0.0047 -0.1304
 9591W        W52529   2.010   9.677  21.267  0.3412  0.0824  0.0551
 9592W        W52530   3.723  15.586  21.066 -0.1549 -0.0388 -0.0087
 9593W        W52531   2.441  12.444  23.993 -0.0631 -0.1731  0.0862
 9594W        W52532   0.345  12.343  21.347  0.1513 -0.2590  0.5992
 9595W        W52533  34.258  12.058  24.441  0.2248  0.2267  0.3158
 9596W        W52534   2.022  13.298  21.084 -0.2020 -0.1499  0.0571
 9597W        W52535   0.869  10.773  22.501 -0.1960 -0.0341 -0.3762
 9598W        W52536   2.326  13.584  23.022  0.2210  0.2116 -0.2099
 9599W        W52537   1.134  13.621  20.926  0.0187 -0.1256  0.0709
 9600W        W52538   0.333  14.073  23.799  0.0571 -0.0601 -0.1787
 9601W        W52539   3.150  10.605  21.331 -0.2916 -0.0173 -0.1866
 9602W        W52540   3.078  13.057  20.066 -0.2448 -0.1224 -0.0363
 9603W        W52541   1.111  12.693  22.629 -0.3821  0.1461  0.1338
 9604W        W52542   2.786   9.572  22.124 -0.3041 -0.1426 -0.1154
 9605W        W52543   2.313  14.194  20.740  0.0158 -0.1556  0.1757
 9606W        W52544   1.613  11.606  23.803 -0.1876 -0.0025 -0.0288
 9607W        W52545   0.149   9.863  23.688 -0.0726  0.1524  0.0125
 9608W        W52546   2.941  13.983  21.587 -0.1076 -0.1341 -0.2592
 9609W        W52547  34.225  11.108  23.721  0.2771  0.2840  0.0656
 9610W        W52548   2.131  14.494  23.783 -0.1776 -0.2486  0.1024
 9611W        W52549   0.450  13.587  23.587  0.0779  0.1512  0.0702
 9612W        W52550   1.850  12.194  21.666  0.0712  0.0801 -0.0856
 9613W        W52551   0.035  11.660  20.185  0.0224 -0.0708 -0.0854
 9614W        W52552   2.061  13.397  22.469 -0.0871  0.1316  0.2219
 9615W        W52553   3.196  13.267  23.090  0.0297 -0.1820 -0.0058
 9616W        W52554   2.447  13.146  21.559 -0.3265  0.0312 -0.1905
 9617W        W52555   2.239  11.401  20.788 -0.4759 -0.0515  0.0749
 9618W        W52556   0.157  12.621  23.577 -0.1324  0.0569 -0.4320
 9619W        W52557   3.915  13.388  21.597 -0.1746  0.0353  0.1431
 9620W        W52558   2.674  12.421  21.409 -0.0466 -0.0931  0.1598
 9621W        W52559   1.488  13.124  22.460  0.3022 -0.4087  0.0573
 9622W        W52560   1.509  11.922  24.719 -0.0950 -0.3132 -0.0033
 9623W        W52561   2.703  12.151  22.373 -0.0007  0.0711 -0.1169
 9624W        W52562   0.434  11.397  23.071 -0.0739  0.2356 -0.0867
 9625W        W52563   2.888  11.729  22.625 -0.0245  0.0102 -0.1421
 9626W        W52564   2.403  11.732  22.696  0.0556  0.0782  0.2044
 9627W        W52565   0.965  13.010  24.048  0.0505 -0.2215 -0.2598
 9628W        W52566  33.808  10.467  23.332  0.1439 -0.1796  0.1583
 9629W        W52567   3.515  12.814  22.268  0.0291  0.1822 -0.0069
 9630W        W52568   3.636  12.330  19.855  0.0847  0.0753 -0.1420
 9631W        W52569   2.146   9.875  22.574  0.0742  0.1666 -0.0438
 9632W        W52570   3.167  11.547  21.980 -0.1020  0.1494  0.1218
 9633W        W52571   3.131  11.978  19.135  0.0150  0.0339 -0.1008
 9634W        W52572   0.864  11.544  22.902  0.2048  0.0638  0.0708
 9635W        W52573   1.947  12.366  22.809 -0.1680  0.1542 -0.2166
 9636W        W52574   1.045  13.211  20.549 -0.0199 -0.1599  0.1771
 9637W        W52575   1.695  10.907  23.013 -0.2578  0.1788 -0.2949
 9638W        W52576   2.993  13.092  20.658 -0.0857 -0.0093 -0.0012
 9639W        W52577   3.251  13.117  22.608  0.0734 -0.1413  0.1401
 9640W        W52578   2.730  12.225  20.449  0.0224 -0.0353  0.2007
 9641W        W52579  33.923  11.852  22.369 -0.0161 -0.2001  0.0102
 9642W        W52580   1.052  14.487  24.231  0.1715  0.1202 -0.2505
 9643W        W52581   0.419  12.086  19.877  0.1525  0.0422 -0.0695
 9644W        W52582   0.470  12.455  20.219  0.1176  0.1281  0.0463
 9645W        W52583   2.844  13.347  23.745 -0.0780 -0.3045  0.2496
 9646W        W52584   1.954  12.834  22.551 -0.0825 -0.3123  0.3674
 9647W        W52585   2.512  11.930  20.817 -0.2472 -0.0143 -0.1881
 9648W        W52586   3.095  10.951  23.260 -0.2076 -0.1329 -0.2365
 9649W        W52587   0.111  13.173  21.206 -0.0171  0.2382  0.1853
 9650W        W52588   1.301  10.956  21.409  0.2079  0.3129 -0.0869
 9651W        W52589   0.417  13.610  22.755  0.0068  0.1067 -0.1021
 9652W        W52590  34.590  14.045  22.354 -0.0130  0.0342 -0.2746
 9653W        W52591   0.870  14.254  21.247 -0.0141  0.0943  0.0955
 9654W        W52592   2.675   9.834  22.595 -0.0296 -0.1129 -0.0294
 9655W        W52593   4.524  11.288  22.729  0.3761 -0.1492  0.0845
 9656W        W52594   2.450  10.254  22.596 -0.2235 -0.1699 -0.0920
 9657W        W52595   1.755  10.229  22.454  0.1316 -0.0180 -0.1095
 9658W        W52596   3.420  14.525  24.100 -0.0158 -0.0295 -0.1152
 9659W        W52597   0.504  12.111  21.874  0.1140  0.0634 -0.2772
 9660W        W52598   1.561  14.309  23.385 -0.4998 -0.3119  0.4064
 9661W        W52599   3.928  13.212  21.083  0.0245  0.0256 -0.2413
 9662W        W52600   0.670  13.869  21.808  0.3791  0.0706  0.2291
 9663W        W52601  33.888  11.269  22.334  0.1370 -0.1845  0.0170
 9664W        W52602   1.966  12.551  24.080  0.0593 -0.1302  0.0519
 9665W        W52603   1.397  14.075  22.072 -0.0460  0.2396 -0.1611
 9666W        W52604   1.423  10.713  20.971 -0.1672  0.1695 -0.1516
 9667W        W52605   2.762  12.683  19.743  0.1461  0.2689  0.0147
 9668W        W52606   0.873  14.039  25.200 -0.4240  0.0389 -0.2570
 9669W        W52607   0.702  12.536  22.195 -0.1543 -0.2040 -0.0012
 9670W        W52608   0.696  14.486  20.793 -0.1332  0.0581  0.1035
 9671W        W52609   3.449  13.132  20.399 -0.1614 -0.0598  0.0649
 9672W        W52610   3.342  12.035  20.246 -0.1524 -0.0610 -0.3111
 9673W        W52611   1.357  14.046  21.250 -0.1675  0.0944 -0.2772
 9674W        W52612   1.117  11.858  20.706  0.1351 -0.2021  0.2486
 9675W        W52613   0.368  13.505  21.661  0.0225 -0.2394  0.0939
 9676W        W52614  34.663  14.695  21.324 -0.4960 -0.1026  0.2114
 9677W        W52615   3.623  12.802  20.734  0.1851 -0.1299  0.2735
 9678W        W52616   1.146  14.540  21.897  0.0742 -0.0388  0.3791
 9679W        W52617   3.385  14.151  25.040  0.1954  0.1938  0.0386
 9680W        W52618   1.932  10.495  19.748  0.1163  0.2442 -0.0537
 9681W        W52619   4.856  13.458  22.752 -0.1528 -0.0751 -0.0979
 9682W        W52620   4.019  11.982  21.451 -0.1597 -0.3624 -0.0918
 9683W        W52621   1.175  14.939  24.501  0.2249 -0.1551 -0.3094
 9684W        W52622   0.799  11.610  21.743  0.0803 -0.2761  0.2985
 9685W        W52623   1.848  11.183  20.317 -0.0142 -0.0297 -0.0107
 9686W        W52624   1.275  11.257  23.030 -0.0326  0.4828  0.1015
 9687W        W52625   3.012  11.477  23.435  0.2681  0.1937  0.1236
 9688W        W52626   0.345  15.638  24.804 -0.0893 -0.0309 -0.2404
 9689W        W52627   2.539  14.204  20.285 -0.0404  0.2236 -0.3374
 9690W        W52628  34.560  12.925  20.603 -0.1613  0.1272  0.0311
 9691W        W52629   1.586  12.774  22.859 -0.1567 -0.0531  0.2357
 9692W        W52630   3.199   9.422  21.891  0.0332 -0.0905  0.3722
 9693W        W52631   3.071  13.677  19.696 -0.1396  0.1018  0.1092
 9694W        W52632   2.765  11.855  21.841 -0.0230  0.2424 -0.1811
 9695W        W52633   2.555  13.441  20.887 -0.1200 -0.2533 -0.0025
 9696W        W52634   0.969  13.679  22.984 -0.2029  0.0959  0.1147
 9697W        W52635   1.240  14.634  23.156  0.0720  0.1148  0.0035
 9698W        W52636   1.766  12.472  20.392  0.0353  0.2866 -0.3813
 9699W        W52637   3.534  12.083  21.239 -0.1078  0.4473 -0.0729
 9700W        W52638  34.494  12.733  22.725 -0.1363  0.0137  0.1216
 9701W        W52639   1.808  10.193  23.799  0.0491 -0.1134 -0.0202
 9702W        W52640   1.001  12.624  23.118  0.0207  0.0905 -0.3091
 9703W        W52641   3.545  11.096  20.202  0.1997  0.1674  0.0039
 9704W        W52642   1.262  12.234  22.907  0.2339 -0.2288 -0.2901
 9705W        W52643   0.242  11.627  23.482  0.1841 -0.4118  0.0815
 9706W        W52644   1.910  12.878  20.675  0.0930 -0.0076 -0.0748
 9707W        W52645   4.661  12.974  22.236  0.2891  0.0883 -0.1451
 9708W        W52646   3.314  11.337  20.794  0.0152  0.1077  0.0146
 9709W        W52647   1.365  13.815  23.212  0.0118  0.1296  0.0305
 9710W        W52648   1.122  12.169  22.368 -0.2073  0.1063  0.1547
 9711W        W52649   3.245  10.601  20.306 -0.2586 -0.1102  0.0785
 9712W        W52650   0.562  13.340  23.172 -0.0241 -0.1360  0.1441
 9713W        W52651   1.423  12.499  23.312 -0.1712 -0.1739  0.3333
 9714W        W52652   1.504  14.376  23.943 -0.2489  0.3527  0.1528
 9715W        W52653   0.539  11.912  21.359 -0.0382 -0.1876  0.0298
 9716W        W52654   3.931  15.024  20.372 -0.1925 -0.0884  0.2580
 9717W        W52655   3.000  11.079  23.767  0.2437 -0.1629  0.1423
 9718W        W52656   2.044  13.398  20.537  0.2370  0.0681  0.3170
 9719W        W52657   3.189  11.651  21.145 -0.1756  0.1467  0.1396
 9720W        W52658   3.712  14.165  20.719  0.1352 -0.3477  0.0338
 9721W        W52659   0.241  11.469  23.963  0.0899  0.0231 -0.1248
 9722W        W52660   1.968  12.669  23.201 -0.4111  0.1770  0.1525
 9723W        W52661   2.514  13.316  22.041  0.1919 -0.4316 -0.0679
 9724W        W52662   0.411  10.683  20.590  0.0312 -0.0561 -0.1343
 9725W        W52663   0.473  12.438  24.235 -0.3242  0.1383  0.2260
 9726W        W52664   0.286  14.716  21.712 -0.0514 -0.0146 -0.0723
 9727W        W52665   3.467  12.006  21.749  0.1806 -0.0146  0.0411
 9728W        W52666   1.281  10.557  22.251 -0.1777  0.0102  0.2512
 9729W        W52667   1.569  13.308  20.726  0.1737 -0.2062 -0.1657
 9730W        W52668   2.184  10.935  23.282  0.0305 -0.3178 -0.0800
 9731W        W52669   1.197  14.756  23.818  0.0779  0.0707  0.2061
 9732W        W52670   1.286  14.053  24.834 -0.2065  0.0989 -0.1452
 9733W        W52671  34.223  11.914  20.973  0.1723  0.0051 -0.0488
 9734W        W52672   1.163  12.846  23.578 -0.2316  0.0016  0.0828
 9735W        W52673  34.259  12.971  21.751 -0.0938 -0.1339 -0.0466
 9736W        W52674   1.343  12.314  21.524 -0.1542  0.2327 -0.0946
 9737W        W52675   4.446  13.310  20.917 -0.1519 -0.1027  0.1548
 9738W        W52676   1.041  11.679  22.247 -0.0288 -0.1199 -0.0507
 9739W        W52677   3.490  15.242  20.461  0.3884 -0.1466 -0.0137
 9740W        W52678   0.980  12.088  21.895  0.2006  0.1088  0.2775
 9741W        W52679   3.648  10.507  21.114  0.1003 -0.2587 -0.0269
 9742W        W52680   1.432  11.792  21.744  0.2166 -0.1493 -0.1120
 9743W        W52681   1.310  13.276  24.507  0.0290 -0.2102 -0.1428
 9744W        W52682   0.751  12.110  18.813 -0.0425 -0.4095  0.1185
 9745W        W52683   2.489  12.449  20.889 -0.0311 -0.3374  0.2638
 9746W        W52684   1.483  14.006  24.322 -0.2019  0.0634 -0.0090
 9747W        W52685   1.345   9.776  22.816  0.3409 -0.2284  0.0337
 9748W        W52686   0.061  12.358  23.994  0.2507 -0.0644  0.5933
 9749W        W52687   1.023  13.303  23.589 -0.0077  0.2664  0.0799
 9750W        W52688  34.476  11.325  20.568 -0.0721 -0.1914  0.0489
 9751W        W52689   3.343  14.595  21.022 -0.0081 -0.1277  0.3764
 9752W        W52690   0.385  11.184  23.528 -0.3875  0.1975 -0.2025
 9753W        W52691   0.949  11.016  21.015 -0.2288 -0.0530  0.0945
 9754W        W52692   2.985  13.505  21.609 -0.1105  0.1712 -0.1454
 9755W        W52693   3.397  14.621  21.886  0.2297  0.1847  0.0823
 9756W        W52694   1.895  12.381  20.841 -0.1457  0.0963 -0.3225
 9757W        W52695   3.162  13.798  22.847 -0.1804 -0.1642  0.2333
 9758W        W52696  34.265  13.792  21.136  0.2074 -0.1868  0.0671
 9759W        W52697   1.162  11.861  23.750 -0.2560 -0.1189  0.2118
 9760W        W52698   1.674  11.365  23.271  0.0829  0.1795  0.1440
 9761W        W52699  33.261  11.829  18.997 -0.1010 -0.1646  0.1317
 9762W        W52700   1.239  11.431  20.882 -0.2225 -0.0603 -0.0521
 9763W        W52701   2.548  13.686  21.689  0.3097  0.3736  0.1719
 9764W        W52702   2.519  12.944  19.378  0.2768 -0.0439 -0.0028
 9765W        W52703   1.482  14.298  22.898 -0.0062 -0.1498  0.0320
 9766W        W52704   0.713  13.419  23.984  0.1041  0.1668  0.0103
 9767W        W52705  34.288  11.800  23.330  0.2879 -0.2171  0.0628
 9768W        W52706   2.217  12.787  21.123  0.0396  0.2517  0.0570
 9769W        W52707   1.760  12.926  24.811 -0.1774  0.0045  0.1258
 9770W        W52708   4.100  13.788  21.235 -0.0804 -0.0365 -0.0049
 9771W        W52709   2.734  10.231  22.142  0.0298 -0.0943 -0.3686
 9772W        W52710   1.518  12.615  22.358 -0.1957 -0.0224  0.3230
 9773W        W52711  34.549  10.125  22.706 -0.1886  0.1142 -0.1999
 9774W        W52712   0.881  14.064  23.986 -0.0047 -0.2727 -0.0992
 9775W        W52713   2.260  12.075  21.875 -0.1359 -0.1225  0.1194
 9776W        W52714   1.509  10.486  21.571  0.1112  0.2084  0.1302
 9777W        W52715   2.656  12.832  21.860 -0.0988  0.1191  0.3983
 9778W        W52716   2.506  13.053  22.530 -0.1817  0.2782  0.1010
 9779W        W52717  33.895  10.996  23.306 -0.0104 -0.0887  0.0461
 9780W        W52718   2.013  11.898  20.903 -0.4644  0.2320 -0.4716
 9781W        W52719   1.766  12.916  23.740  0.1316 -0.1708 -0.3054
 9782W        W52720   2.247  12.602  21.660  0.0228 -0.3098 -0.1241
 9783W        W52721   2.837  12.706  22.969 -0.1345  0.0143 -0.1445
 9784W        W52722   1.269  12.356  20.526 -0.0842 -0.1830 -0.1636
 9785W        W52723   3.239  12.839  21.058 -0.1029  0.1231  0.1072
 9786W        W52724   1.569  12.687  21.823 -0.0609 -0.0308  0.0990
 9787W        W52725   3.313  13.639  23.927 -0.2642  0.0930 -0.0827
 9788W        W52726   1.625  13.470  23.729  0.1328  0.2446  0.1228
 9789W        W52727   4.598  12.054  22.594  0.1686  0.2373 -0.2362
 9790W        W52728  34.102  10.852  21.980  0.0928  0.0110 -0.1981
 9791W        W52729   0.216  13.311  20.515 -0.1449  0.0437  0.1129
 9792W        W52730   0.423  12.825  21.460  0.0115 -0.0503 -0.0086
 9793W        W52731   1.729  10.823  21.893 -0.1460  0.1592  0.2601
 9794W        W52732   0.820  12.413  21.469  0.0690 -0.1916 -0.2066
 9795W        W52733   2.027  11.720  20.405 -0.1040  0.0675  0.0182
 9796W        W52734   0.495  13.955  23.122  0.3472 -0.1199 -0.1530
 9797W        W52735   2.403  12.583  22.740  0.0624  0.0859  0.0558
 9798W        W52736   2.617  13.377  27.133 -0.2235  0.2588 -0.1385
 9799W        W52737   2.099  11.193  26.130  0.0524 -0.3756 -0.1205
 9800W        W52738   0.821  11.029  22.970 -0.0633 -0.0988 -0.0051
 9801W        W52739   2.224  12.211  24.391  0.1290 -0.1075  0.1196
 9802W        W52740   1.737  11.021  25.671  0.2919 -0.1076  0.1928
 9803W        W52741   2.394  14.036  25.967  0.2944 -0.3235 -0.2276
 9804W        W52742   0.406  10.850  26.684  0.0396 -0.2933 -0.0428
 9805W        W52743   1.944  13.082  26.415  0.4661  0.1156 -0.1544
 9806W        W52744   2.467  14.624  27.964  0.4398  0.1153 -0.2899
 9807W        W52745   0.452  13.815  24.231 -0.1701  0.1098  0.4109
 9808W        W52746   3.180  12.315  25.677  0.0073 -0.1460 -0.2155
 9809W        W52747   1.360  14.001  27.989 -0.1659  0.0240  0.0120
 9810W        W52748   0.453   9.628  23.368  0.3512  0.3012 -0.1738
 9811W        W52749  32.542   9.965  27.740 -0.3800 -0.1693  0.3252
 9812W        W52750   2.217  12.509  25.247 -0.0764 -0.1430  0.0719
 9813W        W52751   0.275  12.512  25.997 -0.1304 -0.1314 -0.2421
 9814W        W52752   1.185  12.247  25.177 -0.2921  0.0805 -0.1165
 9815W        W52753   2.896  12.816  25.917 -0.0537  0.0884 -0.0556
 9816W        W52754   1.717  13.335  25.166 -0.0836  0.1001 -0.0003
 9817W        W52755   2.301  11.735  26.408  0.2997 -0.4407 -0.0730
 9818W        W52756   2.791  10.939  26.664 -0.1422  0.0695 -0.1456
 9819W        W52757   1.609  14.914  24.099  0.1797 -0.1125  0.1910
 9820W        W52758  33.432  12.856  23.451  0.0770  0.2183  0.0706
 9821W        W52759   1.282  11.542  25.125 -0.0331  0.1300  0.0792
 9822W        W52760   1.555  11.775  25.968 -0.1165  0.0878 -0.0676
 9823W        W52761   3.495  11.287  25.272 -0.2717 -0.0574 -0.1063
 9824W        W52762   3.658  10.712  24.926 -0.0639 -0.0943 -0.1517
 9825W        W52763   1.529  15.073  26.113  0.0454 -0.1147  0.0144
 9826W        W52764   2.381  14.378  27.406 -0.0535  0.4096 -0.1678
 9827W        W52765   3.416  12.379  27.761 -0.5314  0.1873 -0.3473
 9828W        W52766   0.200  12.192  25.488  0.1607 -0.0369  0.0426
 9829W        W52767  34.217  13.244  26.056  0.1337  0.0093  0.0225
 9830W        W52768   1.491  14.746  25.621 -0.4046 -0.2148  0.6487
 9831W        W52769   2.161  13.315  25.438  0.1084 -0.3218  0.3850
 9832W        W52770   3.894  15.577  27.418  0.1302  0.0622 -0.1660
 9833W        W52771   1.717  13.937  26.820  0.1614  0.0760 -0.1843
 9834W        W52772  33.945  12.836  24.130 -0.1290 -0.0604 -0.1434
 9835W        W52773   2.329  15.105  27.783  0.2116 -0.1360  0.0679
 9836W        W52774   0.132  13.457  27.235  0.4470 -0.0081  0.1607
 9837W        W52775   2.981  13.071  24.761  0.0055 -0.1540 -0.1636
 9838W        W52776   2.588  13.239  25.737 -0.0747  0.0173 -0.1293
 9839W        W52777   1.609  12.780  25.855  0.0781  0.2096  0.0770
 9840W        W52778   3.589  14.107  25.671  0.1478  0.0540 -0.2904
 9841W        W52779   2.691  12.635  28.229  0.2145  0.0697  0.1231
 9842W        W52780  34.159  12.972  25.448 -0.1274 -0.0686  0.1636
 9843W        W52781   4.336  11.305  27.515  0.0966 -0.3024 -0.0032
 9844W        W52782   0.053  13.109  24.644 -0.0057  0.0642 -0.0622
 9845W        W52783   2.906  12.386  24.213 -0.0543  0.0086 -0.2266
 9846W        W52784   1.850  11.694  22.915  0.1448 -0.1652 -0.0295
 9847W        W52785   2.354  11.494  21.796 -0.0240 -0.0025 -0.0343
 9848W        W52786   3.354  10.222  25.603 -0.0822 -0.0810 -0.1293
 9849W        W52787   0.851  14.580  26.757  0.0807  0.1374  0.0228
 9850W        W52788   0.537  10.971  25.790  0.0546 -0.1477  0.1047
 9851W        W52789   4.448  15.031  26.883  0.0690 -0.0579 -0.2453
 9852W        W52790   2.273  11.504  23.970  0.0629 -0.0709 -0.0919
 9853W        W52791   3.176  11.338  26.598  0.1827  0.1569  0.1258
 9854W        W52792   0.778  14.991  26.440 -0.0435  0.1092  0.1927
 9855W        W52793   1.012  13.834  26.388  0.0142 -0.0006  0.3041
 9856W        W52794   3.769  13.375  23.859 -0.2210  0.1392 -0.1171
 9857W        W52795   2.719  14.421  25.804 -0.4321 -0.4907 -0.2749
 9858W        W52796   1.658  13.916  25.112  0.1492 -0.1337 -0.2435
 9859W        W52797   0.589  12.434  26.733 -0.2223  0.0962  0.0479
 9860W        W52798   1.882  11.657  27.309  0.1353 -0.0142 -0.1164
 9861W        W52799   1.153  12.038  26.963 -0.2981  0.2058 -0.1933
 9862W        W52800   1.969   9.069  23.241  0.0438 -0.2365  0.0793
 9863W        W52801   4.435  14.210  27.517 -0.0796  0.1537 -0.2543
 9864W        W52802   1.318  14.647  26.527  0.1155 -0.1030  0.0142
 9865W        W52803   1.344  11.784  23.234  0.0451 -0.2562 -0.4145
 9866W        W52804   1.905  13.577  26.530 -0.1919 -0.1562 -0.0333
 9867W        W52805   2.237  15.561  25.645  0.0856  0.0024 -0.2259
 9868W        W52806   3.217  13.641  23.413 -0.0229  0.3716 -0.0122
 9869W        W52807   3.751  10.315  25.191  0.1180 -0.0536 -0.0064
 9870W        W52808   2.694  10.366  26.799  0.0764 -0.1658 -0.1420
 9871W        W52809   1.261  12.706  24.958  0.2583 -0.0753  0.0579
 9872W        W52810   1.245  12.307  24.704 -0.0101  0.3322 -0.0517
 9873W        W52811   4.972  14.225  26.986  0.2433 -0.3157 -0.1163
 9874W        W52812   3.360  11.824  22.614  0.2191  0.1040  0.1228
 9875W        W52813   0.917  13.932  27.627 -0.0024 -0.0851 -0.2659
 9876W        W52814   3.309  11.573  27.181 -0.0460  0.1931  0.0277
 9877W        W52815   1.842  13.187  28.626  0.3951 -0.0307  0.3029
 9878W        W52816   0.614  12.602  23.783 -0.0082  0.2511  0.1038
 9879W        W52817   0.487  14.646  26.225 -0.2668  0.0945  0.0095
 9880W        W52818   1.034  12.425  24.069 -0.0250  0.0522  0.3089
 9881W        W52819   0.634  10.736  26.264  0.1336 -0.0528 -0.3500
 9882W        W52820   1.657  12.272  27.452  0.1718 -0.3370 -0.1582
 9883W        W52821   2.566  11.967  24.153  0.0747  0.0273  0.1588
 9884W        W52822   0.715  13.127  26.195  0.1186  0.0224 -0.0495
 9885W        W52823   1.986  11.761  23.480  0.3308 -0.0431 -0.0131
 9886W        W52824   0.620  14.123  26.111  0.0069  0.0766  0.3177
 9887W        W52825   2.030  14.622  24.715 -0.0692  0.0978 -0.0743
 9888W        W52826   2.772  13.349  22.796 -0.1577 -0.0823 -0.2135
 9889W        W52827   1.939  14.019  24.600 -0.2509 -0.0675  0.3698
 9890W        W52828   0.442  11.891  27.001  0.2846  0.4557  0.1704
 9891W        W52829   2.222  12.560  25.873  0.0190  0.2051  0.0536
 9892W        W52830   1.627  12.294  25.978  0.0666  0.1891 -0.0055
 9893W        W52831  34.030  11.951  27.312 -0.1359  0.1284  0.0468
 9894W        W52832   2.942  12.010  27.005 -0.0781  0.0336  0.1342
 9895W        W52833  34.123  12.551  23.026  0.0057 -0.0615 -0.3365
 9896W        W52834   3.388  10.867  24.478 -0.2528  0.0800  0.1442
 9897W        W52835   2.492  11.566  25.473 -0.1853 -0.0061 -0.1526
 9898W        W52836   0.029  12.249  24.477  0.1632 -0.1308 -0.0198
 9899W        W52837   4.091  11.225  28.827 -0.0828 -0.2198 -0.4173
 9900W        W52838   2.165  14.190  24.986  0.2117  0.1799 -0.1220
 9901W        W52839   3.185  15.401  26.605 -0.0886  0.1184 -0.3231
 9902W        W52840   3.097  14.940  23.949 -0.0889  0.3624 -0.1837
 9903W        W52841   1.612  13.099  26.859 -0.0944  0.0666 -0.1255
 9904W        W52842   0.015  11.068  23.118 -0.0557  0.0265 -0.1149
 9905W        W52843  34.614  15.663  24.473 -0.5068 -0.3196  0.1537
 9906W        W52844   1.537  13.725  25.948  0.2054 -0.2884  0.0146
 9907W        W52845   1.378  10.482  23.565  0.0312  0.0904  0.2906
 9908W        W52846   1.858  14.125  26.024 -0.0462 -0.0075  0.3598
 9909W        W52847   2.967  12.988  25.339  0.0060  0.2197 -0.0948
 9910W        W52848   0.236  13.092  26.006 -0.0650 -0.1792  0.1432
 9911W        W52849   3.078  10.948  26.282 -0.2449  0.0110  0.1208
 9912W        W52850   2.052  11.607  25.913  0.1845 -0.1151 -0.2007
 9913W        W52851   3.182  11.492  24.880  0.1319  0.2565  0.1919
 9914W        W52852  32.926  10.603  24.473  0.1649  0.1300  0.1261
 9915W        W52853   1.392  15.677  25.703 -0.4488  0.0945  0.0273
 9916W        W52854   1.059  13.611  24.855 -0.0189 -0.0790 -0.2509
 9917W        W52855  34.470  11.948  25.664 -0.1059  0.1271 -0.0797
 9918W        W52856   1.509  14.026  26.386  0.2728 -0.0685  0.1162
 9919W        W52857   2.151  12.612  24.740  0.1811 -0.0991  0.0358
 9920W        W52858   0.647  11.829  27.524  0.2312 -0.1468 -0.0602
 9921W        W52859   3.896  11.229  28.350 -0.2796 -0.2686  0.1011
 9922W        W52860   0.866  11.273  25.471  0.0003 -0.0638  0.1071
 9923W        W52861   0.754  13.268  27.839  0.1129 -0.0754 -0.1969
 9924W        W52862   1.228  10.768  23.200  0.1798  0.1645  0.2479
 9925W        W52863   4.696  11.629  23.891 -0.4247  0.0818 -0.0813
 9926W        W52864   3.600  14.260  26.883  0.1649 -0.0348 -0.0067
 9927W        W52865   2.676  12.293  24.714  0.5263  0.1091  0.5571
 9928W        W52866   1.992  12.107  24.859  0.2474 -0.0023 -0.1812
 9929W        W52867   1.179  12.755  24.411  0.1744 -0.0043 -0.0323
 9930W        W52868   1.642  13.562  27.087  0.2562  0.4779  0.1639
 9931W        W52869   1.659  12.410  25.522  0.4324  0.1919 -0.0225
 9932W        W52870   1.676  14.907  26.853 -0.3816  0.0264 -0.1037
 9933W        W52871   1.020  12.325  23.554  0.1190 -0.1846 -0.2798
 9934W        W52872   2.923  14.087  24.572 -0.0236 -0.2697 -0.2679
 9935W        W52873   1.229  12.362  26.236  0.1305  0.1809  0.2283
 9936W        W52874   2.690  13.181  28.038  0.3317 -0.0594 -0.1304
 9937W        W52875   2.638  13.673  26.204 -0.0942  0.3151 -0.1711
 9938W        W52876   1.545  10.917  27.268  0.1548 -0.1013 -0.0816
 9939W        W52877   2.067  11.511  24.398  0.0849 -0.0701 -0.0434
 9940W        W52878   2.396  10.227  23.843 -0.1225  0.1377  0.1504
 9941W        W52879  33.497  14.513  25.202  0.0539 -0.2002  0.2259
 9942W        W52880   3.891  11.523  25.095  0.1813 -0.3000 -0.2388
 9943W        W52881   3.602  11.523  26.177  0.0300 -0.2327 -0.1660
 9944W        W52882   0.988  11.546  26.629 -0.0415  0.0026  0.0326
 9945W        W52883   3.575  11.207  24.783  0.0941  0.4870  0.0336
 9946W        W52884   1.559  11.900  25.308 -0.1194 -0.0472 -0.2430
 9947W        W52885   2.546  11.837  25.952 -0.0040 -0.0481  0.1190
 9948W        W52886  34.312  12.455  24.160  0.0933  0.0970 -0.0271
 9949W        W52887   2.624  11.057  25.281 -0.1410  0.3662  0.0766
 9950W        W52888   2.989  12.439  27.309 -0.0572  0.0967 -0.3498
 9951W        W52889   1.357  15.365  27.792  0.0296  0.3193  0.2604
 9952W        W52890   2.614  14.713  27.041  0.0635  0.1501  0.2711
 9953W        W52891   4.255  12.819  26.471 -0.0145  0.0380  0.1698
 9954W        W52892   3.839  11.361  26.672  0.0489 -0.0329  0.2066
 9955W        W52893   1.501  10.831  23.962  0.5615 -0.0698  0.2111
 9956W        W52894   2.202  13.653  24.261  0.1004  0.2791  0.0642
 9957W        W52895   1.120  11.622  24.588  0.1776 -0.1482 -0.1890
 9958W        W52896   2.301  11.052  25.680 -0.1861 -0.2384  0.2852
 9959W        W52897   1.619  14.992  27.456 -0.2640  0.0831  0.5563
 9960W        W52898   2.407  13.826  24.622  0.0727  0.0635 -0.0434
 9961W        W52899   2.186  12.521  27.448  0.0863 -0.1908 -0.1174
 9962W        W52900   0.588  13.689  24.711  0.0714 -0.4134  0.0111
 9963W        W52901   4.048  11.166  24.668 -0.0141  0.2954 -0.0849
 9964W        W52902   0.514  13.683  26.337  0.2539  0.3481  0.1753
 9965W        W52903   0.483  12.046  24.582  0.2042 -0.1850  0.0977
 9966W        W52904   0.663  12.369  25.136 -0.1882  0.4480  0.3751
 9967W        W52905   1.995   9.877  24.788  0.3157  0.1503 -0.0790
 9968W        W52906   2.588  12.442  23.351  0.0774  0.0993 -0.0340
 9969W        W52907   2.489  10.773  24.839 -0.2847 -0.0053 -0.1565
 9970W        W52908   0.542  11.563  26.296 -0.1519  0.2817  0.1265
 9971W        W52909  34.439  14.593  24.416 -0.3186 -0.3052 -0.2916
 9972W        W52910   1.418  12.805  25.391  0.1434 -0.1336 -0.3890
 9973W        W52911   2.251  11.480  23.120  0.0917 -0.0455 -0.3043
 9974W        W52912   3.152  12.889  27.217  0.0882  0.0219  0.1818
 9975W        W52913   2.149  12.035  27.333  0.0443  0.0702  0.2240
 9976W        W52914  34.598  11.738  24.211  0.0197 -0.0827 -0.3563
 9977W        W52915   2.748  12.457  25.483  0.3248  0.0988 -0.0222
 9978W        W52916   2.749  11.273  25.781 -0.0913 -0.1084 -0.0859
 9979W        W52917   0.378  12.695  25.394  0.0353  0.0821  0.0864
 9980W        W52918   2.152  13.683  28.080 -0.2102  0.2735 -0.0764
 9981W        W52919   0.699  12.921  23.424  0.2545  0.1613  0.1612
 9982W        W52920   1.421  14.182  25.724 -0.0904 -0.2719 -0.4233
 9983W        W52921   1.097  10.598  24.988 -0.2124 -0.1057  0.2134
 9984W        W52922   2.402  13.359  26.532 -0.1598 -0.2089 -0.0002
 9985W        W52923   1.118  12.976  25.838  0.0230  0.0155  0.1283
 9986W        W52924   0.804  11.552  23.419  0.0599  0.1770 -0.0653
 9987W        W52925   2.980  12.101  25.039  0.4556  0.2410  0.2556
 9988W        W52926   2.646  14.832  26.113  0.0537 -0.0114  0.2540
 9989W        W52927   3.247  10.329  25.035 -0.0435 -0.0837 -0.3707
 9990W        W52928   2.549  14.045  28.186  0.0675  0.1598 -0.0038
 9991W        W52929   2.346  11.382  24.898 -0.1321  0.0419 -0.0308
 9992W        W52930   2.639  12.774  24.497 -0.0491  0.0621 -0.3612
 9993W        W52931   2.523  12.268  26.507 -0.2383  0.1289  0.0553
 9994W        W52932   0.093  13.525  24.998 -0.2430  0.0226 -0.3989
 9995W        W52933   1.063  12.711  26.609  0.3025 -0.1289  0.0535
 9996W        W52934   1.642  12.434  25.038 -0.0918 -0.0023  0.0900
 9997W        W52935   2.652  11.431  26.829  0.1591 -0.0591  0.1079
 9998W        W52936   0.598  13.621  25.889  0.0102  0.5668  0.1607
 9999W        W52937   1.393  13.920  23.719 -0.2312  0.0619 -0.0630
10000W        W52938   1.636  13.447  27.719 -0.0770 -0.0454  0.1946
10001W        W52939   3.154  12.294  22.626  0.3304  0.1172 -0.0830
10002W        W52940   2.156  15.147  24.761  0.1665  0.1469 -0.0019
10003W        W52941   2.970  11.394  25.329 -0.1302 -0.2016  0.2348
10004W        W52942   3.900  11.811  25.565  0.0382 -0.3095 -0.3778
10005W        W52943   1.584  13.626  24.725  0.2190 -0.4041 -0.0687
10006W        W52944   2.676  11.375  26.322  0.2442  0.0750 -0.3200
10007W        W52945   0.817  12.037  26.075 -0.0556  0.1745  0.1891
10008W        W52946   3.638  13.212  23.345  0.2344  0.1391 -0.0663
10009W        W52947   1.425  11.266  26.574  0.2004  0.2021 -0.1892
10010W        W52948   1.650  14.534  29.644  0.0093  0.1214 -0.2328
10011W        W52949   1.510  11.751  27.623  0.0004 -0.0594 -0.1464
10012W        W52950   2.170  10.311  25.134 -0.0654 -0.0061 -0.0614
10013W        W52951  34.395  10.752  23.385 -0.0334  0.0366 -0.3099
10014W        W52952   2.049  12.191  26.802  0.0515  0.0627 -0.0304
10015W        W52953   2.327  13.710  26.912 -0.4549 -0.0575 -0.0519
10016W        W52954   2.134  13.559  25.932  0.0027 -0.1725 -0.1413
10017W        W52955   2.910  11.876  25.467  0.2729 -0.0657 -0.2996
10018W        W52956  34.600  11.356  26.908 -0.0566 -0.0144  0.1008
10019W        W52957   2.124  12.955  24.405  0.3633  0.1125 -0.0446
10020W        W52958   0.840  13.285  25.541  0.2605 -0.1248  0.1014
10021W        W52959   1.182  13.233  25.103  0.2662  0.0405  0.1091
10022W        W52960  34.514  11.262  25.423 -0.0034  0.2469  0.2910
10023W        W52961   1.975  12.614  26.320  0.0470 -0.2353  0.1452
10024W        W52962   2.050  11.034  24.642 -0.0405  0.0047  0.0168
10025W        W52963   3.363  11.753  25.660  0.0793  0.2389  0.0754
10026W        W52964   3.818  12.651  27.820 -0.0342  0.0346  0.0237
10027W        W52965   2.588  12.835  27.250  0.0942 -0.1985  0.1227
10028W        W52966  34.186  11.698  26.763 -0.1598  0.0761  0.2123
10029W        W52967   2.406  15.297  26.352 -0.3508  0.0691  0.1590
10030W        W52968   3.492  12.782  23.576  0.0672  0.1692  0.1175
10031W        W52969   3.246  11.816  26.527  0.1159  0.0571  0.1033
10032W        W52970   1.575  11.600  24.321 -0.1982 -0.0978 -0.0582
10033W        W52971   2.504  12.107  25.088 -0.0021  0.1099 -0.1594
10034W        W52972   0.913  11.984  24.811  0.1791  0.0281  0.1030
10035W        W52973   3.497  13.142  25.952 -0.0934  0.1801 -0.0304
10036W        W52974  34.559  11.358  24.638  0.0037 -0.0197  0.4766
10037W        W52975   6.476  12.606  27.147  0.1223 -0.1506 -0.0392
10038W        W52976   1.111  16.455  23.400  0.1826  0.0873  0.0013
10039W        W52977   3.236  14.385  25.990 -0.4317 -0.1410  0.0627
10040W        W52978   1.504  12.165  23.687 -0.3209 -0.3097  0.5258
10041W        W52979   0.085  10.920  26.177  0.1999 -0.0600  0.1657
10042W        W52980   1.487  15.397  28.397  0.0526 -0.1863  0.3227
10043W        W52981   2.023  11.083  24.044  0.0594  0.1052  0.0707
10044W        W52982   1.904  11.918  24.129  0.5648  0.2461 -0.0193
10045W        W52983   2.453  12.917  26.150 -0.1408 -0.3554 -0.3745
10046W        W52984   4.894  14.869  26.387 -0.2111  0.0991  0.1100
10047W        W52985   2.215  10.306  23.401 -0.0428 -0.1784  0.0386
10048W        W52986   3.423  12.782  25.558 -0.0199  0.0224  0.1362
10049W        W52987   2.186  13.924  22.535  0.0389 -0.4031 -0.0044
10050W        W52988   1.326  11.466  25.648  0.1985 -0.2279  0.0788
10051W        W52989  34.262  13.949  25.822  0.0497 -0.1119  0.0817
10052W        W52990   0.500  12.570  28.230  0.4367  0.2001 -0.0568
10053W        W52991   2.205  14.007  26.540 -0.0566  0.0498  0.2512
10054W        W52992   1.819  11.543  24.802  0.0217 -0.1838  0.3030
10055W        W52993   2.823  13.031  26.814  0.0822  0.0054  0.0230
10056W        W52994   3.137  13.411  27.086 -0.0642  0.3918  0.1416
10057W        W52995   3.323  13.113  26.718 -0.3406  0.0455  0.0087
10058W        W52996   1.964  12.761  26.951 -0.1996  0.0192  0.1654
10059W        W52997   0.364  13.130  25.065  0.1520 -0.0557  0.1728
10060W        W52998   5.009  14.154  26.082  0.0307 -0.3349 -0.0991
10061W        W52999   3.667  13.548  24.329  0.3626 -0.1081 -0.0745
10062W        W53000   0.389  13.986  25.118 -0.0924 -0.1503  0.2028
10063W        W53001   1.127  12.600  27.660  0.1699  0.0892 -0.1106
10064W        W53002   2.972  12.791  26.424  0.3142 -0.0396  0.4313
10065W        W53003   2.917  12.905  24.122 -0.0514 -0.0975 -0.0708
10066W        W53004   2.807  10.748  25.678  0.2234 -0.1483 -0.1513
10067W        W53005   2.407  12.865  25.516 -0.1796  0.0735  0.1947
10068W        W53006   1.805  13.083  27.397  0.0167 -0.1194 -0.1673
10069W        W53007   1.017  14.272  27.240  0.2865 -0.0398 -0.2176
10070W        W53008   0.634  13.519  25.171 -0.1208 -0.2365  0.0281
10071W        W53009   2.236  13.678  25.042 -0.1824  0.3960 -0.1254
10072W        W53010   2.404  14.047  24.057 -0.0428  0.0479 -0.0227
10073W        W53011   2.048  13.030  25.884 -0.3072  0.2204 -0.0931
10074W        W53012   2.809  10.571  25.200  0.0688  0.2655 -0.2677
10075W        W53013   0.866  15.568  25.748  0.2057  0.0755 -0.5060
10076W        W53014  34.536  13.307  23.600  0.1914  0.3102 -0.0545
10077W        W53015   2.927  15.050  25.359 -0.0916  0.1264  0.5027
10078W        W53016   1.283  14.318  25.306  0.1739 -0.1794  0.2840
10079W        W53017   2.842  14.293  27.132 -0.1784 -0.2272 -0.2633
10080W        W53018   3.493   9.304  23.581  0.1420  0.0611 -0.3885
10081W        W53019   2.689  12.703  24.994 -0.0138 -0.2259  0.0523
10082W        W53020   3.892  12.862  24.063 -0.1058 -0.1254  0.1148
10083W        W53021   3.058  13.544  26.624 -0.1527  0.1227 -0.0273
10084W        W53022   1.711  12.244  26.449  0.0137  0.3442 -0.2286
10085W        W53023   2.090   9.454  22.961 -0.2806 -0.3045  0.1465
10086W        W53024   2.366  12.855  26.654 -0.3171  0.1783 -0.1986
10087W        W53025   5.302  10.978  28.865 -0.0236  0.1781 -0.3151
10088W        W53026   0.914  12.994  27.414 -0.2156  0.1287  0.0774
10089W        W53027   3.152  13.436  24.377 -0.1981  0.0781  0.2846
10090W        W53028   0.508  11.014  24.001  0.0182  0.3574 -0.0418
10091W        W53029   1.385  13.584  26.592  0.4215 -0.3396 -0.2544
10092W        W53030   3.993   9.878  27.476 -0.1765 -0.1303 -0.0006
10093W        W53031   0.871  12.952  24.793 -0.0011  0.0180  0.2819
10094W        W53032   1.769  14.353  25.432  0.4636 -0.0922 -0.1248
10095W        W53033   1.667  14.357  24.917 -0.0649 -0.0354 -0.1092
10096W        W53034   2.155  13.591  27.589 -0.3015  0.1228  0.2441
10097W        W53035   1.283  15.140  26.543 -0.0888  0.1849 -0.0654
10098W        W53036  34.661  11.629  23.066 -0.0047 -0.4934 -0.0156
10099W        W53037   4.468  12.883  23.681  0.1541  0.0892  0.1673
10100W        W53038  34.539  13.202  26.443  0.0811 -0.0522 -0.2416
10101W        W53039   2.184   9.788  25.961  0.0856  0.0614  0.1825
10102W        W53040   1.547  13.276  26.149  0.0811 -0.0462  0.2758
10103W        W53041   2.423  11.040  23.671  0.2054  0.2302 -0.0946
10104W        W53042   2.660  12.375  25.984 -0.0288 -0.1366 -0.1474
10105W        W53043   0.353  13.202  26.594  0.2731  0.3216  0.0825
10106W        W53044   3.419  11.838  25.207 -0.0307 -0.3095  0.1860
10107W        W53045   3.930  13.195  26.583 -0.1164  0.2051  0.1324
10108W        W53046   1.367  12.073  24.185 -0.0035  0.1232 -0.0784
10109W        W53047   2.106  14.149  27.033 -0.1332 -0.1733  0.1043
10110W        W53048   0.335  10.614  25.220  0.0362  0.1210 -0.3971
10111W        W53049   1.943  12.352  23.610 -0.0696 -0.1079  0.0615
10112W        W53050   0.774  12.545  26.253  0.0094  0.0652  0.0505
10113W        W53051   1.104  13.173  26.971 -0.1834  0.0013 -0.0365
10114W        W53052   3.861  13.571  27.559  0.0039  0.0150  0.2153
10115W        W53053   1.054  11.479  26.127 -0.0457  0.0457  0.0943
10116W        W53054   2.695  13.892  25.099  0.3498 -0.0583  0.1582
10117W        W53055   4.114  12.662  24.696  0.3722 -0.2421  0.1724
10118W        W53056   1.004  14.773  26.042  0.2917  0.0656  0.0223
10119W        W53057   3.669  12.000  24.167  0.2126  0.1417 -0.0147
10120W        W53058   1.997  14.575  25.793  0.0977  0.2327 -0.2047
10121W        W53059   0.729  11.974  26.587  0.2531  0.0334 -0.3443
10122W        W53060   2.385  15.200  27.271  0.0651  0.0126 -0.1671
10123W        W53061   4.038  14.762  26.648  0.0763  0.1189  0.1135
10124W        W53062   2.717  11.566  24.413  0.0416 -0.0576  0.2150
10125W        W53063   1.074  13.442  25.952 -0.2903  0.0026  0.3436
10126W        W53064   1.456  12.598  23.921 -0.1928 -0.2229 -0.2524
10127W        W53065   3.731  13.187  25.245 -0.1578 -0.1354 -0.0376
10128W        W53066   2.604  10.057  26.426 -0.2517  0.2888 -0.1790
10129W        W53067   2.693  13.644  24.201  0.1047 -0.3103  0.0829
10130W        W53068   3.589  12.231  26.534 -0.1268  0.1857 -0.0135
10131W        W53069   1.991  14.745  27.747 -0.2051  0.1104  0.1687
10132W        W53070   1.786  14.412  28.669 -0.1650 -0.2371 -0.3525
10133W        W53071  34.364  11.287  24.173 -0.3546  0.2002  0.1010
10134W        W53072   2.989  13.301  26.198 -0.2340  0.0921 -0.1466
10135W        W53073   2.360  11.846  24.659  0.0458  0.2084 -0.0728
10136W        W53074   1.179  14.167  26.769  0.1059 -0.1589 -0.1457
10137W        W53075   1.884  12.887  25.436  0.3169 -0.2279  0.0640
10138W        W53076   1.526  12.793  26.403 -0.1275 -0.1546 -0.0399
10139W        W53077   2.587  13.720  25.635  0.2067  0.2050 -0.0139
10140W        W53078   1.363  10.729  26.691  0.4588 -0.0118 -0.1917
10141W        W53079   2.712  11.669  24.964  0.0020  0.1830  0.2421
10142W        W53080   1.646   9.825  24.099 -0.0407  0.2369 -0.1670
10143W        W53081   2.175  13.247  26.942 -0.0582  0.2649  0.0102
10144W        W53082   0.654  11.719  25.358  0.1953  0.0884  0.0953
10145W        W53083  34.437  12.033  23.800  0.2982  0.0632 -0.0684
10146W        W53084   1.158  13.176  26.455  0.0682  0.0236  0.1933
10147W        W53085   2.133  11.639  27.731  0.2484  0.3218 -0.0907
10148W        W53086   1.028  12.518  27.129 -0.0191 -0.1700 -0.0716
10149W        W53087   0.792  13.494  26.716 -0.1411 -0.1763 -0.5030
10150W        W53088   0.654  11.487  24.373 -0.0704  0.2401  0.6195
10151W        W53089   2.990  14.327  25.412 -0.1840 -0.1461 -0.1028
10152W        W53090   2.130  11.752  25.178  0.2944 -0.0783  0.1849
10153W        W53091  33.207  10.873  26.789 -0.1050  0.0726 -0.0341
10154W        W53092   1.638  12.533  24.477 -0.1536  0.1375  0.3951
10155W        W53093   3.714  15.006  25.165 -0.1737 -0.3443 -0.2884
10156W        W53094   1.778  11.409  25.311 -0.2364 -0.0450  0.0657
10157W        W53095   3.949  14.481  28.145  0.5650  0.2116 -0.0245
10158W        W53096  33.916  12.446  24.460  0.1092  0.1552  0.0543
10159W        W53097   2.855  13.281  27.590 -0.1834  0.1693 -0.2861
10160W        W53098   2.806  11.639  27.254 -0.0124 -0.0819  0.3910
10161W        W53099  33.699  11.251  23.717 -0.2513  0.0617 -0.0214
10162W        W53100   3.180  10.940  25.114 -0.0114  0.0987 -0.1749
10163W        W53101   2.065  13.986  25.471  0.1440  0.2906 -0.2335
10164W        W53102   3.538  14.724  24.599  0.0670  0.1770  0.1728
10165W        W53103   3.173  14.285  26.680 -0.1310  0.0397  0.2437
10166W        W53104   2.071  14.637  28.260  0.1330  0.0133  0.1533
10167W        W53105   1.295  10.588  25.470 -0.0993  0.2301 -0.2132
10168W        W53106   1.598  13.029  24.238 -0.0026 -0.1954  0.0895
10169W        W53107   1.475  12.758  27.284 -0.2675  0.0079 -0.1617
10170W        W53108   2.701  12.184  22.940 -0.1246  0.0289  0.1056
10171W        W53109   4.011  10.154  26.194  0.3000 -0.1741  0.2283
10172W        W53110   2.495  13.280  24.555  0.1387  0.0377 -0.0009
10173W        W53111   0.902  10.609  26.712 -0.0597 -0.2587 -0.2117
10174W        W53112   1.795  11.673  26.384  0.1801  0.1696  0.1423
10175W        W53113   3.092  11.476  26.041 -0.2733 -0.3250  0.2121
10176W        W53114   1.257  11.254  24.074 -0.0096  0.0877  0.1354
10177W        W53115   1.883   9.108  25.965 -0.1253 -0.0171 -0.0583
10178W        W53116   2.220  15.893  24.273  0.2529  0.1978 -0.3347
10179W        W53117  34.667  11.786  26.213 -0.0272 -0.1799 -0.0667
10180W        W53118   3.340  12.240  23.770 -0.0966  0.2221  0.0548
10181W        W53119   3.095  12.304  26.367 -0.1752 -0.0307  0.1939
10182W        W53120   0.116  15.264  26.177 -0.1655 -0.0564 -0.1775
10183W        W53121   2.842  14.294  27.636 -0.2001  0.0207 -0.0562
10184W        W53122   1.594  11.175  24.488 -0.0606  0.0670  0.2760
10185W        W53123   1.713  13.565  24.217  0.2417 -0.3124  0.2203
10186W        W53124   1.858  12.798  28.337 -0.0314  0.2601  0.1723
10187W        W53125   3.085  14.516  28.023  0.0842 -0.1247 -0.1004
10188W        W53126   1.972  15.334  27.577  0.2355  0.0037 -0.0312
10189W        W53127   3.918  13.437  25.624  0.0458  0.0277 -0.2183
10190W        W53128   0.631  10.845  27.179  0.0920 -0.2129  0.1537
10191W        W53129   1.193  12.420  25.731 -0.0035 -0.1352 -0.2203
10192W        W53130   2.069  12.072  26.125  0.3131  0.1039  0.0902
10193W        W53131   2.297  11.751  26.949 -0.0868  0.1084  0.1739
10194W        W53132   0.266  12.723  26.484  0.1557 -0.3057  0.1254
10195W        W53133   2.019   9.808  23.404 -0.2883  0.0678 -0.0488
10196W        W53134   2.381  13.148  27.547  0.1721 -0.2605 -0.1009
10197W        W53135   3.882  12.915  25.616 -0.0742 -0.2490  0.0402
10198W        W53136   0.876  12.694  30.943  0.1062 -0.0129  0.0023
10199W        W53137   2.061  13.140  27.975  0.2260 -0.1081  0.1299
10200W        W53138   4.132  11.634  27.183 -0.2683 -0.0797  0.1527
10201W        W53139   3.271  13.447  28.946 -0.1340  0.5862  0.0821
10202W        W53140   1.130  12.345  29.110 -0.0102 -0.1754 -0.2856
10203W        W53141   1.680  13.083  29.145 -0.1542 -0.1872  0.0607
10204W        W53142   1.215   9.637  30.357 -0.0734 -0.1224  0.1385
10205W        W53143   3.846  14.200  28.588 -0.1278 -0.3150 -0.3677
10206W        W53144   4.853  14.284  30.726 -0.1189  0.0779  0.1991
10207W        W53145   2.397  12.132  25.583  0.1702  0.0187 -0.1646
10208W        W53146   2.093  12.139  30.344 -0.1976 -0.2470  0.0284
10209W        W53147   1.472  12.646  29.315 -0.0880 -0.2237 -0.2709
10210W        W53148   1.370  10.584  28.533 -0.1024 -0.0171 -0.0950
10211W        W53149   0.536  11.741  29.136  0.1063  0.0667  0.5044
10212W        W53150   3.372  12.749  29.402  0.0378 -0.0218  0.3285
10213W        W53151   0.762  13.791  28.938 -0.1353 -0.2671 -0.3245
10214W        W53152   1.330  12.858  30.279 -0.1205 -0.3883 -0.0031
10215W        W53153   1.832  10.639  27.570 -0.0822 -0.2694 -0.1454
10216W        W53154   2.011  14.039  29.519  0.1619  0.2782  0.1350
10217W        W53155   1.647  11.860  30.349 -0.1265 -0.0054  0.0845
10218W        W53156   3.520  11.566   0.419  0.2406 -0.0673 -0.1484
10219W        W53157   2.702  12.735  28.819  0.0376  0.0117 -0.1270
10220W        W53158   1.528  11.714  28.356 -0.0716 -0.1394  0.1539
10221W        W53159  33.970  11.379  30.116  0.3468  0.1715 -0.0623
10222W        W53160   2.489  12.332  29.949 -0.3621  0.0028  0.1317
10223W        W53161   4.026  10.980  29.892 -0.0819  0.1071  0.2209
10224W        W53162   2.399  12.508  29.464  0.0425 -0.2462 -0.1388
10225W        W53163   0.613  14.107  30.513  0.1871 -0.3303  0.0216
10226W        W53164   2.529  14.093  29.177 -0.1848  0.3069  0.0692
10227W        W53165   3.089  12.744  31.160 -0.0595  0.2219  0.1035
10228W        W53166  33.210  12.349  30.627  0.1393 -0.1792 -0.1972
10229W        W53167   0.745  14.680  29.302  0.0652  0.0964  0.0613
10230W        W53168   0.972  14.108  28.294  0.0164 -0.2841  0.2746
10231W        W53169   4.303  14.932  30.308 -0.1015 -0.0029 -0.1844
10232W        W53170   3.820  13.022  29.488  0.3491 -0.0301 -0.0545
10233W        W53171   0.986  14.508  30.153 -0.1679 -0.1856  0.1371
10234W        W53172   1.547  14.662  28.151 -0.1767 -0.2701 -0.1747
10235W        W53173   1.322  13.654   1.034  0.1213 -0.1764  0.0502
10236W        W53174   2.164  13.593  31.594 -0.1099  0.0139  0.0417
10237W        W53175   3.072  12.032  29.036  0.0520  0.0538  0.0477
10238W        W53176   2.637  11.798  29.117  0.1256  0.1952 -0.0748
10239W        W53177   1.117  14.840  29.821  0.0734 -0.0918 -0.1720
10240W        W53178   2.182  13.687  29.089 -0.1814 -0.0137 -0.1994
10241W        W53179   1.325  12.153  31.932 -0.0978  0.0761 -0.1762
10242W        W53180   0.999  14.307  28.998  0.1588  0.1062  0.0395
10243W        W53181   4.522  12.625  31.061  0.0736  0.2356  0.0276
10244W        W53182   0.033  13.263  28.678 -0.3272 -0.0930  0.0797
10245W        W53183   4.390  13.153  26.975  0.0979  0.3037  0.0519
10246W        W53184   3.247  11.160  25.682 -0.0457  0.0041  0.1024
10247W        W53185   3.857  13.140  27.853  0.0883 -0.0864 -0.3756
10248W        W53186   2.238  12.094  29.577 -0.2918 -0.1170  0.4052
10249W        W53187   0.910  14.842  28.773 -0.3043 -0.0300  0.1208
10250W        W53188   2.479  11.988  31.431 -0.0162  0.0384  0.1705
10251W        W53189   3.943  13.548  30.346 -0.3201 -0.3314 -0.1747
10252W        W53190   3.037  11.907  27.595  0.2206  0.0934  0.1603
10253W        W53191   3.347  11.607  29.944  0.0002  0.0877 -0.2070
10254W        W53192   1.403  12.857  30.912 -0.1991  0.1283  0.2224
10255W        W53193   1.786  13.838  28.786  0.3147  0.0775  0.1103
10256W        W53194   2.723  14.505  28.899  0.1562 -0.1329  0.2691
10257W        W53195   4.112  16.259  30.303 -0.1605  0.2312  0.3563
10258W        W53196   2.970  14.128  28.484 -0.1009 -0.2147  0.2179
10259W        W53197   1.341  13.023  27.752 -0.1301 -0.2314  0.1937
10260W        W53198  33.377  12.798  31.882  0.1476  0.0977  0.3993
10261W        W53199  34.583  12.098  30.753 -0.2396  0.2104  0.0658
10262W        W53200   0.367  12.152  27.906  0.1340  0.2686 -0.0053
10263W        W53201   4.420  13.485  30.600  0.1446  0.6458 -0.1471
10264W        W53202   0.416  12.456  30.845  0.0101  0.0810 -0.3429
10265W        W53203   4.096  10.782  28.127 -0.1026  0.3347  0.4471
10266W        W53204   1.469  12.848  28.771 -0.2202  0.1416  0.0167
10267W        W53205   3.688  13.806  29.707  0.1800  0.2973 -0.1592
10268W        W53206   3.022  13.803  27.543 -0.2939  0.0117 -0.2787
10269W        W53207   3.708  10.882  29.506  0.1966  0.1540 -0.0503
10270W        W53208   3.510  10.764  30.301  0.0591 -0.1479 -0.3005
10271W        W53209   1.059  12.574  28.669  0.1416  0.2918  0.0727
10272W        W53210   2.196  12.850  28.867  0.1425 -0.5111  0.0950
10273W        W53211   4.481  13.956  29.354 -0.0605  0.0039  0.0575
10274W        W53212   3.685  12.562  27.315 -0.1078  0.0367  0.0404
10275W        W53213   0.496  11.948  30.547 -0.0906 -0.1179  0.2398
10276W        W53214   1.575  11.972  31.502 -0.1274 -0.0831  0.2757
10277W        W53215   1.372  13.338  31.207 -0.1087  0.2579 -0.2505
10278W        W53216   1.798  14.914  28.527  0.0496 -0.0110 -0.1259
10279W        W53217   0.197  12.857  29.781 -0.1307 -0.4015  0.1262
10280W        W53218   0.615  13.378  29.412 -0.1786  0.0874 -0.0884
10281W        W53219  34.687  10.666  31.945  0.0793 -0.0230  0.2114
10282W        W53220   1.924  12.835  29.494 -0.2652 -0.3857 -0.2167
10283W        W53221   3.784  11.891  28.136  0.0977  0.1069 -0.1277
10284W        W53222   1.142  12.276  31.138  0.1425  0.1636 -0.2215
10285W        W53223   3.426  12.144  28.563  0.2163  0.1519 -0.1974
10286W        W53224  34.434  12.918  29.646 -0.1615  0.1046  0.2887
10287W        W53225   3.384  13.812  29.283 -0.3371  0.0735 -0.1416
10288W        W53226   3.064  12.989  29.137 -0.0259 -0.0588 -0.1814
10289W        W53227   3.168  13.685  28.428 -0.0349 -0.0240 -0.0375
10290W        W53228   0.681  12.881   0.264  0.1186  0.1240  0.1780
10291W        W53229   1.525  12.369  28.776 -0.0497  0.0889 -0.3045
10292W        W53230   1.121  12.481  31.575  0.0452 -0.0836 -0.1197
10293W        W53231   1.552  11.234  29.935  0.0652  0.1201  0.0114
10294W        W53232   4.361  13.970  30.891  0.0999  0.1598  0.1172
10295W        W53233   1.073  11.461  28.411 -0.1400 -0.1810 -0.0451
10296W        W53234   3.783  12.799  29.950  0.1845 -0.1025 -0.0687
10297W        W53235   0.895  12.864  28.082  0.1716 -0.0529  0.1359
10298W        W53236  34.153  13.382  28.580 -0.3282  0.0409  0.1219
10299W        W53237   2.890  12.171   0.805 -0.0208 -0.0557 -0.0965
10300W        W53238   3.147  14.188  28.980 -0.1685 -0.1220 -0.4013
10301W        W53239   3.903  14.552  30.446  0.3348 -0.1037  0.1615
10302W        W53240   2.925  13.445  29.398 -0.2377  0.1379  0.0079
10303W        W53241   1.587  11.531  30.769 -0.1311 -0.1827  0.1149
10304W        W53242   0.281  11.297  27.239 -0.3567  0.0310 -0.3149
10305W        W53243   0.383  15.550  29.753 -0.0868 -0.1564  0.0572
10306W        W53244   1.868  13.644  30.291 -0.2338  0.1157 -0.4502
10307W        W53245   1.037  11.840  27.969 -0.1121 -0.0561  0.0310
10308W        W53246   4.155  13.871  29.666  0.1720  0.0820 -0.0642
10309W        W53247   2.190  13.544  29.947 -0.0743 -0.1035  0.1334
10310W        W53248   2.763  12.902  30.220 -0.2326 -0.3805  0.0509
10311W        W53249   2.915  11.070  30.472 -0.0778  0.3179  0.0626
10312W        W53250   1.752  13.133  30.213  0.0957  0.1355  0.0162
10313W        W53251   3.191  12.519  28.271  0.0857  0.0632 -0.1181
10314W        W53252   1.282  10.173  26.673 -0.0829  0.0463  0.1565
10315W        W53253   2.941  13.993  29.440 -0.1140 -0.2147 -0.1977
10316W        W53254   0.021  15.279  28.785 -0.0831 -0.2365 -0.0202
10317W        W53255   0.698  12.922  29.609 -0.0261  0.2945 -0.1874
10318W        W53256   1.658  13.628  29.351 -0.0036  0.0084  0.1599
10319W        W53257   4.266  12.503  28.424  0.3216 -0.1995  0.0139
10320W        W53258   0.461  11.877  31.488  0.1719 -0.3508  0.1186
10321W        W53259   3.031  12.179  30.776  0.0715  0.1229 -0.2387
10322W        W53260  33.670  13.429  27.102  0.4961 -0.0599  0.0096
10323W        W53261   0.103  14.064  29.910 -0.0182  0.0274 -0.0068
10324W        W53262   3.561  11.348  27.507 -0.3852  0.0353 -0.1625
10325W        W53263   3.847  12.282  26.969  0.0078 -0.0773  0.1043
10326W        W53264   2.607  13.540  30.391  0.1728  0.0900  0.1078
10327W        W53265   3.960  13.930  29.230  0.0437  0.4851  0.1889
10328W        W53266   3.385  12.548  26.942  0.0529 -0.1582 -0.1403
10329W        W53267   2.886  12.554  26.829  0.1210 -0.1370 -0.1183
10330W        W53268  34.591  12.621  31.437 -0.2041 -0.1403 -0.2824
10331W        W53269   2.593  12.041  30.403 -0.0944 -0.2220  0.0514
10332W        W53270   1.312  13.584  29.755 -0.1302 -0.3273 -0.0554
10333W        W53271   2.411  11.526  28.249 -0.2408 -0.1632  0.0573
10334W        W53272   3.420  14.649  29.261 -0.4155  0.1081  0.0569
10335W        W53273   1.800  12.703  30.547  0.0380 -0.0175  0.0072
10336W        W53274   2.700  13.863  30.793 -0.0098  0.2080 -0.4313
10337W        W53275   3.639  13.298  29.936  0.1200 -0.0435 -0.0720
10338W        W53276   3.465  10.572  31.731  0.0247 -0.2512 -0.1351
10339W        W53277   2.312  12.206  28.183 -0.1789 -0.2064  0.0888
10340W        W53278   2.473  11.175  28.704 -0.0509  0.2520 -0.1734
10341W        W53279   1.785  15.168  28.016 -0.1483 -0.1678  0.1760
10342W        W53280   3.458  11.874  30.787 -0.5010 -0.0577  0.1928
10343W        W53281   2.291  11.039  31.161  0.1557 -0.0538 -0.1998
10344W        W53282   2.056  12.586  29.985 -0.1917 -0.3332 -0.0959
10345W        W53283   3.222  12.079  31.912 -0.1286  0.2064 -0.1642
10346W        W53284   2.669  13.257  28.899  0.0097 -0.1343  0.1415
10347W        W53285   3.413  12.962  30.301  0.1393  0.1437  0.3714
10348W        W53286  34.317  12.771  28.292 -0.0999 -0.1656  0.0504
10349W        W53287   2.480  11.954  30.886  0.0829 -0.0532  0.0668
10350W        W53288   0.949  12.919  31.358 -0.1072  0.0897  0.2024
10351W        W53289   1.225  12.470  30.551  0.1812 -0.1512  0.0166
10352W        W53290   4.459  13.902  31.435  0.1480 -0.1956  0.0457
10353W        W53291   2.330  13.087  28.397  0.0139 -0.3108  0.1279
10354W        W53292   2.090  10.498  31.841 -0.1509  0.0762 -0.2434
10355W        W53293   3.323  10.773  28.377  0.1283  0.0178 -0.1116
10356W        W53294   0.711  14.817  28.267 -0.0271 -0.2021  0.1257
10357W        W53295   3.482  13.440  26.324  0.2853  0.0682 -0.1170
10358W        W53296   0.834  10.215  29.436  0.2380  0.2019  0.0727
10359W        W53297   3.276  13.647  29.987  0.0794  0.0316  0.3851
10360W        W53298   2.245  14.073  27.792 -0.1444  0.1144  0.0730
10361W        W53299   3.947  13.437  31.396  0.1077 -0.0534 -0.2585
10362W        W53300  33.590  14.425  29.205  0.1079 -0.2114 -0.0801
10363W        W53301   3.659  10.258  30.376 -0.1418 -0.0732 -0.0512
10364W        W53302  34.324  13.146  30.091 -0.3272 -0.0863  0.3297
10365W        W53303   2.531  11.894  27.784  0.3912 -0.0245 -0.2417
10366W        W53304   0.329  12.996  27.969 -0.2012 -0.1352  0.1886
10367W        W53305   3.202  11.278  29.408  0.1459  0.0136  0.1528
10368W        W53306   4.186  15.022  27.927 -0.0515 -0.3654  0.1883
10369W        W53307   1.189  13.086  29.594  0.3200 -0.1164  0.2305
10370W        W53308   2.437  11.143  29.670 -0.4341  0.1368 -0.0621
10371W        W53309  33.940  13.847  29.293  0.1046  0.0435 -0.1477
10372W        W53310   3.114  13.088  30.747 -0.0351  0.1676  0.1835
10373W        W53311   2.580  11.399  27.793  0.0170 -0.0049 -0.4421
10374W        W53312   2.956  13.436  31.794  0.1345  0.4301 -0.2069
10375W        W53313   2.831  12.233  31.212 -0.1433 -0.0662 -0.1278
10376W        W53314  34.324  10.861  27.947 -0.0595 -0.3783 -0.2009
10377W        W53315   3.491  12.420  31.000  0.1353  0.0831  0.0979
10378W        W53316   1.982  11.809  28.173 -0.2733  0.1100 -0.0248
10379W        W53317   0.618  14.105  29.264 -0.2052 -0.0232 -0.1305
10380W        W53318   2.806  13.794  29.980 -0.2510 -0.0587 -0.2084
10381W        W53319   1.736  14.632  29.124  0.0530 -0.1344 -0.3913
10382W        W53320   0.549  12.433  29.999  0.0943 -0.2453  0.3049
10383W        W53321   1.559  12.281  30.131 -0.0634  0.1749 -0.2830
10384W        W53322   3.158  14.053  30.909  0.0899 -0.0780 -0.0153
10385W        W53323   2.211  10.761  30.771  0.1996 -0.1118 -0.3837
10386W        W53324   2.119  12.429  28.625 -0.3497  0.2218  0.2844
10387W        W53325   2.508  11.638  29.579 -0.1458 -0.1095 -0.1998
10388W        W53326   2.575  13.565  31.327 -0.0356  0.0293  0.2171
10389W        W53327   2.615  11.725  31.858  0.0387  0.1376 -0.0830
10390W        W53328   0.855  13.628  31.500 -0.1470 -0.3001  0.1784
10391W        W53329   3.195  10.818  29.656 -0.0307 -0.1334 -0.0287
10392W        W53330   5.052  14.455  28.126 -0.2508 -0.0876  0.1226
10393W        W53331   2.191  12.433  31.293 -0.0628 -0.2612  0.0862
10394W        W53332   2.186  13.543  28.613 -0.1618  0.1414 -0.0115
10395W        W53333   0.630  13.301  30.432  0.0505 -0.2672  0.1418
10396W        W53334   0.612  12.681  29.166 -0.1522  0.0148 -0.0782
10397W        W53335   2.096  10.747  29.872  0.0421 -0.0207  0.1088
10398W        W53336   2.205  13.265  29.418 -0.4101 -0.2615 -0.1881
10399W        W53337   0.952  13.808  29.474 -0.2409  0.2336  0.0354
10400W        W53338   0.838  12.753  30.392  0.3251 -0.0211 -0.0853
10401W        W53339   4.662  10.498  27.363 -0.2100 -0.1790  0.1030
10402W        W53340   3.577  13.127  27.106  0.2351 -0.0996 -0.0899
10403W        W53341   3.245  11.516  28.997 -0.0109  0.0295  0.0548
10404W        W53342   2.093  11.453   0.005 -0.2893  0.2544  0.1823
10405W        W53343   3.557  11.482  28.052 -0.3683  0.0034  0.0733
10406W        W53344   0.800   9.698   0.656  0.0265  0.2075  0.0557
10407W        W53345   1.020  11.836  29.224  0.1834  0.1798 -0.0194
10408W        W53346   2.906  13.788  28.912  0.1601 -0.0855 -0.0311
10409W        W53347   0.027  12.810  30.897 -0.1085 -0.0121  0.1826
10410W        W53348   0.940  14.165  31.454 -0.0440  0.2400 -0.0383
10411W        W53349   0.575  11.001   1.728 -0.1226  0.0381  0.0062
10412W        W53350   1.674  10.863  28.151 -0.0339 -0.0785 -0.0981
10413W        W53351   1.442  12.093  27.946 -0.3235 -0.1815  0.0438
10414W        W53352   2.153  12.353  30.819 -0.1202  0.0533 -0.2515
10415W        W53353   3.534  13.345  28.543 -0.1190  0.0467 -0.0470
10416W        W53354   2.032  14.208  29.040 -0.0651  0.1088  0.2541
10417W        W53355   4.727  13.069  28.866  0.4052  0.0847 -0.2479
10418W        W53356   1.252  12.221  29.651  0.3881 -0.3381 -0.0930
10419W        W53357   3.243  12.904  27.768  0.1541 -0.1576  0.3153
10420W        W53358   2.798  11.715  28.624 -0.0943 -0.1009 -0.0211
10421W        W53359   1.017  12.638  29.895 -0.0547 -0.2116  0.2367
10422W        W53360   0.624  11.365  31.202 -0.1084 -0.3521  0.1324
10423W        W53361   4.312  13.366  29.452  0.0750 -0.3294  0.0971
10424W        W53362   3.027  11.778  29.526  0.2921  0.3866  0.0328
10425W        W53363   2.577  11.381  30.759  0.1564 -0.2694 -0.3121
10426W        W53364   2.756  11.568  30.283  0.3045  0.2095 -0.1133
10427W        W53365   2.674  12.737  30.889  0.3026  0.0061 -0.2363
10428W        W53366   0.333  11.525  31.855  0.0317 -0.0920 -0.1151
10429W        W53367   3.584  13.876  30.661  0.4012  0.1020  0.2541
10430W        W53368   3.574  12.871  28.354 -0.0668  0.0441 -0.1618
10431W        W53369   2.477  12.550  30.453  0.0376  0.2841  0.5010
10432W        W53370   2.779  11.198  29.107  0.0953 -0.0043 -0.0378
10433W        W53371   3.284  12.650  28.743  0.0780  0.0727  0.2166
10434W        W53372   0.175  13.427  29.540  0.2622 -0.0908  0.2131
10435W        W53373   2.957  13.215  31.352 -0.1355  0.1861  0.0703
10436W        W53374   1.606  11.196  27.657  0.0383  0.1527  0.0635
10437W        W53375   2.210  12.910  30.886  0.1276 -0.1474 -0.1003
10438W        W53376   2.005  14.581  29.983 -0.2030 -0.0650  0.0869
10439W        W53377   2.306  14.202  30.879 -0.4618 -0.1702  0.0166
10440W        W53378   3.666  11.312  29.120  0.1877 -0.2861  0.1564
10441W        W53379   1.422  11.744  29.840  0.0403 -0.0083 -0.3260
10442W        W53380   1.470  13.931  30.423 -0.0420  0.0707  0.0582
10443W        W53381   1.051  11.589  27.283 -0.0770  0.2677  0.1132
10444W        W53382   2.447  12.338  27.010 -0.2373  0.0090 -0.0655
10445W        W53383   4.090  14.053  30.486  0.2557 -0.0248 -0.1312
10446W        W53384   3.521  13.022   0.126 -0.1454  0.0035  0.2994
10447W        W53385   2.518  10.790  27.041  0.1580  0.0521  0.1636
10448W        W53386   3.959  12.647  30.988  0.0494  0.0813  0.2196
10449W        W53387   1.436  13.445  28.701 -0.3211 -0.1064  0.0658
10450W        W53388   2.801  10.703  29.240  0.2154  0.2477 -0.3825
10451W        W53389   0.291  16.221  29.788 -0.2160 -0.2594 -0.3762
10452W        W53390   2.431  12.880  29.787 -0.0363  0.0681 -0.0847
10453W        W53391   0.402  14.390  29.600 -0.1097 -0.0155 -0.0335
10454W        W53392   3.139  12.654  30.604 -0.1118 -0.1611 -0.1047
10455W        W53393   3.774  12.482  29.570  0.0739  0.1231  0.0436
10456W        W53394   1.537  12.035  29.230 -0.2191  0.0474  0.1725
10457W        W53395   3.938  13.044  30.364  0.4843  0.3894  0.0309
10458W        W53396   2.723  14.191  31.163  0.2267  0.0263  0.1210
10459W        W53397   1.797  13.338  29.715 -0.1084 -0.2129 -0.0340
10460W        W53398   2.645  12.654  31.426  0.2262  0.0648  0.0842
10461W        W53399   4.056  14.169  30.043  0.0317 -0.2424 -0.1388
10462W        W53400   0.096  14.235  30.423  0.1907 -0.5609  0.2690
10463W        W53401   2.059  12.154  31.721 -0.0118 -0.0213  0.0707
10464W        W53402   1.404  13.750  31.549  0.0913 -0.1347  0.1879
10465W        W53403   2.749  12.164  29.486  0.1568  0.2702  0.0581
10466W        W53404   1.491  10.998  29.182 -0.0296  0.0147 -0.1629
10467W        W53405   3.283  13.885  26.325  0.3753  0.0115 -0.0025
10468W        W53406   1.177  13.109   0.412  0.0124  0.1051  0.0631
10469W        W53407   2.021  11.793  30.689 -0.3989  0.0589 -0.2394
10470W        W53408  34.629  15.365  29.745  0.1329 -0.1308 -0.3450
10471W        W53409   4.048  14.466  29.014  0.3370  0.0738 -0.0734
10472W        W53410   2.228  12.675  28.023 -0.1209 -0.1140  0.0698
10473W        W53411   2.096  14.503  31.485  0.1600 -0.0671 -0.0641
10474W        W53412   2.756  12.025  28.267 -0.1533  0.2727  0.1276
10475W        W53413   0.943  15.005  30.296  0.3664 -0.2539 -0.0074
10476W        W53414  34.405  13.658  27.393  0.1712 -0.1212  0.1539
10477W        W53415   2.494  13.927  28.687  0.0958 -0.0589 -0.1161
10478W        W53416   0.416  13.720  30.258 -0.1159 -0.0280  0.0835
10479W        W53417   4.214  12.601  30.434  0.0487 -0.0958 -0.0637
10480W        W53418   4.524  10.457  26.849  0.1202  0.0983  0.0922
10481W        W53419   3.048  13.327  30.250 -0.3605  0.0192 -0.0704
10482W        W53420   4.115  12.257  27.961 -0.0635 -0.0055  0.0478
10483W        W53421   3.046  13.538  30.987  0.1324 -0.1979 -0.0692
10484W        W53422   2.791  10.615  30.562  0.3913  0.1140 -0.2052
10485W        W53423   2.028  10.930  27.254  0.1857 -0.1995  0.0200
10486W        W53424   1.230  11.972  30.556  0.0528  0.1023 -0.2566
10487W        W53425   2.949   9.657  30.814  0.0874 -0.2745 -0.0037
10488W        W53426  34.604  13.079  31.351  0.0782 -0.1238  0.1166
10489W        W53427   3.040  14.901  28.996  0.2052  0.0173 -0.3500
10490W        W53428   1.973  12.207  27.842 -0.3818  0.1299  0.2417
10491W        W53429   1.570  12.753  29.813  0.3118  0.2548 -0.1186
10492W        W53430   3.571  11.879  28.964  0.0499  0.2127 -0.2056
10493W        W53431   2.276  14.586  26.320  0.0013  0.0618  0.0522
10494W        W53432   1.869  11.742  29.455 -0.1913 -0.0609 -0.0406
10495W        W53433   1.010  14.356  29.522  0.1809 -0.2948  0.1079
10496W        W53434   3.156  14.285  31.602  0.0893  0.0806 -0.0379
10497W        W53435   1.211  14.439  31.124 -0.0169  0.0467  0.1568
10498W        W53436   1.034  11.393  28.943 -0.1565  0.1576  0.1377
10499W        W53437   4.778  11.653  28.402 -0.0583  0.0212  0.1046
10500W        W53438   1.222  11.697  31.760 -0.1620 -0.0101 -0.1473
10501W        W53439   3.681  11.724  30.331 -0.1281 -0.1675 -0.1375
10502W        W53440   1.666  13.740  28.255  0.1232 -0.0194  0.0591
10503W        W53441   4.016  13.040  27.354 -0.0348 -0.0316  0.0157
10504W        W53442   4.386  13.752  30.163  0.0004  0.0623 -0.1974
10505W        W53443   1.997  12.840  31.554 -0.1416 -0.4495 -0.1400
10506W        W53444   2.641  12.725  27.747 -0.2104  0.1592  0.2590
10507W        W53445   2.841  11.974  29.971 -0.0729 -0.1134 -0.0189
10508W        W53446   3.523  12.522  26.026 -0.3079 -0.2169  0.0392
10509W        W53447   3.449  13.804  31.748 -0.0653 -0.1850 -0.0649
10510W        W53448  33.880  11.696  29.131  0.2898  0.0352  0.2316
10511W        W53449   3.239  12.009  28.086  0.0969  0.0538 -0.2476
10512W        W53450   1.188  13.369  29.213  0.1744 -0.0803  0.0874
10513W        W53451   3.189  11.889  30.352 -0.3026 -0.0567 -0.1292
10514W        W53452   3.076  13.830  30.443  0.1082  0.0915  0.1340
10515W        W53453   0.764  13.299  28.904 -0.3825 -0.0251  0.1373
10516W        W53454   4.003  13.151  28.760  0.1542 -0.2817  0.0065
10517W        W53455   3.525  11.686  29.421  0.1261  0.2013  0.2621
10518W        W53456   0.497  14.214  28.119  0.0408 -0.0881 -0.0877
10519W        W53457   3.006  12.489  29.170 -0.0894 -0.2316  0.0036
10520W        W53458   3.947  13.684  30.938 -0.0004  0.3427 -0.0391
10521W        W53459   1.435  11.437  29.435  0.3820  0.0056  0.1293
10522W        W53460   3.760  15.047  29.288  0.1371 -0.2507 -0.3640
10523W        W53461   4.580  14.625  29.981  0.1389  0.3012  0.4790
10524W        W53462   1.924  10.318  28.417 -0.0871 -0.1949  0.1447
10525W        W53463   1.666  12.262  30.652 -0.1401  0.2442 -0.0246
10526W        W53464   0.474  15.858  30.294  0.1489  0.0997  0.2495
10527W        W53465   3.844  11.643  28.629 -0.1934  0.3034  0.1311
10528W        W53466   3.893  12.134  30.772  0.0876 -0.1045  0.0724
10529W        W53467   2.162  15.570  27.957 -0.0558  0.1470 -0.1711
10530W        W53468   2.830  11.267  31.919  0.0306 -0.2007  0.2354
10531W        W53469   2.255  14.053  29.963 -0.0088  0.0130 -0.0740
10532W        W53470   0.491  13.353  29.937 -0.3752 -0.0480 -0.2133
10533W        W53471   1.496  11.716  26.842 -0.2471 -0.4149  0.3202
10534W        W53472   0.964  13.718  30.642  0.0162  0.1431 -0.1097
10535W        W53473   0.508  13.774  29.727 -0.0969  0.3349 -0.2587
10536W        W53474   1.292  13.855  29.018  0.0223  0.3645  0.1874
10537W        W53475   3.119  14.609  29.794 -0.3055  0.0492 -0.1051
10538W        W53476   2.209  11.583  29.084  0.2249 -0.1448 -0.5205
10539W        W53477   3.829  13.425  29.195  0.1098  0.2084 -0.0210
10540W        W53478   0.704  12.182  29.401 -0.2829 -0.1590 -0.0747
10541W        W53479   3.510  11.198  28.659 -0.3057 -0.1337  0.1085
10542W        W53480   2.920  11.096  27.175 -0.0223 -0.0924  0.0708
10543W        W53481   2.590  12.244  31.880  0.2355  0.1246  0.0026
10544W        W53482   0.647  12.851  28.671  0.2014 -0.2359 -0.1782
10545W        W53483   0.604  12.691  27.721  0.0497  0.0258 -0.1495
10546W        W53484   2.272  12.973  30.298 -0.3326 -0.0058 -0.1904
10547W        W53485   2.286  11.595  31.148  0.1617  0.0573  0.2507
10548W        W53486   0.943  12.183  30.182 -0.0591 -0.1757 -0.2528
10549W        W53487   1.728  13.877  29.878 -0.0255  0.0087 -0.4208
10550W        W53488   2.005  12.078  29.116 -0.4375  0.0376 -0.1508
10551W        W53489   3.951  15.345  28.858  0.1923  0.1564 -0.1316
10552W        W53490   2.353  10.993  30.276  0.0670 -0.2959 -0.1022
10553W        W53491   1.056  10.880  28.854  0.2386  0.0400 -0.1515
10554W        W53492   2.881  12.303  28.692 -0.0407  0.0909 -0.1920
10555W        W53493   1.338  12.655  28.189  0.0040  0.0205 -0.0120
10556W        W53494   2.441  12.306  29.041 -0.1661  0.1415  0.0159
10557W        W53495   3.704  12.389  31.676 -0.2797  0.0936 -0.2122
10558W        W53496   1.724  12.702  27.865  0.0068 -0.0739 -0.0997
10559W        W53497   1.381   9.982   1.508  0.2657  0.3368  0.2365
10560W        W53498   2.359  11.772  30.029  0.2870  0.1534 -0.4555
10561W        W53499   1.922  11.411  26.841 -0.0415  0.0188 -0.2020
10562W        W53500   3.425  13.324  29.421  0.1065 -0.1549 -0.0354
10563W        W53501   2.925  12.370  30.277 -0.1327 -0.2113 -0.0568
10564W        W53502   2.583  13.885  27.371  0.1626  0.0749  0.0358
10565W        W53503   1.560  13.439  30.735  0.1822 -0.1185 -0.2080
10566W        W53504   1.789  13.089  31.079  0.0541 -0.1429 -0.1492
10567W        W53505   0.699   9.667  31.907  0.0475 -0.0233 -0.2217
10568W        W53506   3.391  13.416  27.540 -0.4288  0.0630  0.1328
10569W        W53507   1.469  12.896  31.479  0.2860 -0.0687  0.2417
10570W        W53508   2.844  12.682  29.633  0.1558  0.0347 -0.0528
10571W        W53509   3.813  11.482  29.795  0.0139 -0.3310  0.0250
10572W        W53510   1.678  12.329  28.311  0.1598  0.0009  0.0108
10573W        W53511   1.013  11.495  30.798 -0.2058 -0.1997  0.0058
10574W        W53512   0.888  13.686  30.105 -0.0542  0.1462 -0.3410
10575W        W53513   4.240  14.843  29.292 -0.2366  0.1938 -0.4708
10576W        W53514   1.888  11.951  29.917 -0.0553  0.0414  0.3075
10577W        W53515   2.342  11.396  27.319 -0.0715  0.4205  0.2452
10578W        W53516   2.677  13.532  28.468 -0.0992 -0.0781  0.1652
10579W        W53517   0.895  12.049  31.685  0.2887 -0.1083 -0.0168
10580W        W53518   2.323  11.957  28.696  0.0433 -0.0480  0.4218
10581W        W53519   3.281  12.681  29.945 -0.1631 -0.0311  0.1804
10582W        W53520   2.300  13.902  30.463 -0.0157 -0.4154  0.1439
10583W        W53521   3.433  12.288  30.162  0.1942 -0.0716 -0.1006
10584W        W53522   0.318  13.569  28.530  0.2629  0.0708  0.3555
10585W        W53523   3.467  13.875  28.787  0.1239 -0.2389  0.0277
10586W        W53524   2.981  13.851  31.447 -0.0113 -0.1013  0.0598
10587W        W53525   3.488  13.996   0.262 -0.4051 -0.0827  0.3822
10588W        W53526   3.377  15.331  30.072  0.2197  0.0096  0.1132
10589W        W53527   3.092  13.125  29.776 -0.0902  0.1501  0.0166
10590W        W53528   0.622  10.535  31.127  0.0085 -0.1129  0.4109
10591W        W53529   1.868  12.544  29.081  0.3934 -0.2450  0.3455
10592W        W53530   1.526  13.261  28.175 -0.1348 -0.3862 -0.0297
10593W        W53531   3.218  12.248  29.590  0.3080  0.0621  0.2091
10594W        W53532   0.261  13.595  29.049 -0.1513  0.1983  0.1050
10595W        W53533   3.684  12.387  28.215 -0.0934  0.0275  0.2754
10596W        W53534   0.403  14.915  31.028 -0.1056  0.2102  0.0873
10597W        W53535   2.602  13.244  30.889 -0.1576  0.0841 -0.1860
10598W        W53536   4.272  12.653  29.919 -0.0137 -0.1680  0.0970
10599W        W53537   2.756  12.018   0.338 -0.1910 -0.3016 -0.3306
10600W        W53538   1.798  11.294  31.233 -0.2574  0.2030 -0.1327
10601W        W53539  33.732  12.481   0.554  0.0185  0.0507  0.2680
10602W        W53540   3.208  13.566   0.651  0.3076  0.0484 -0.0458
10603W        W53541  34.497  14.168   0.353 -0.1450  0.2201 -0.1587
10604W        W53542   2.029  11.909   1.252 -0.2793 -0.2771  0.2758
10605W        W53543   1.670  11.735   0.087  0.2125  0.2781 -0.0171
10606W        W53544   0.874  11.184  30.444 -0.2014 -0.0244  0.0776
10607W        W53545   2.306  12.628  31.844 -0.1430 -0.0587 -0.0395
10608W        W53546   5.354  11.762  30.314 -0.0196 -0.1378 -0.0139
10609W        W53547   1.437  10.073  31.200 -0.2237  0.0321 -0.0438
10610W        W53548   2.522  13.133  31.740  0.0781  0.0020  0.0748
10611W        W53549   0.968  12.724   0.727  0.0289  0.0200  0.1208
10612W        W53550   3.417  11.505  31.151  0.0855  0.0377  0.0652
10613W        W53551   0.104  14.651  31.360  0.2338  0.0614 -0.0687
10614W        W53552   2.104  11.564   0.882 -0.2020 -0.0347  0.0828
10615W        W53553   3.390  13.485   0.180 -0.5598 -0.2092 -0.0593
10616W        W53554   0.278  11.102  31.616  0.1351 -0.2149 -0.0638
10617W        W53555   1.974  10.697   0.317 -0.2838 -0.2625 -0.1639
10618W        W53556   0.989  10.548  31.449  0.2880  0.1901 -0.1261
10619W        W53557   0.106  13.412  30.981  0.2693  0.1578  0.3380
10620W        W53558   3.633  11.797  31.652 -0.2070 -0.0188  0.1878
10621W        W53559   3.006  10.474   0.498  0.1906  0.4252 -0.3212
10622W        W53560   1.528  10.661   0.549 -0.2456 -0.1167 -0.0912
10623W        W53561   2.927  11.199   0.708 -0.0328 -0.0198  0.1468
10624W        W53562   1.124  13.146   0.926 -0.0680  0.0150 -0.2144
10625W        W53563  34.570  14.791   0.304 -0.2821 -0.2351 -0.0983
10626W        W53564   1.678  12.451  31.142 -0.1008 -0.0094 -0.1137
10627W        W53565   1.634  12.493  31.696  0.2782 -0.0934  0.0218
10628W        W53566   2.360  13.090  31.310 -0.2360 -0.0013  0.2073
10629W        W53567   0.876  10.056  31.082 -0.0560 -0.3276 -0.1310
10630W        W53568   2.242  11.073   0.552 -0.1982 -0.1088  0.0301
10631W        W53569   3.035  10.873   1.232  0.1501 -0.2316  0.0562
10632W        W53570   1.933  11.025  31.651  0.2264  0.4360 -0.0359
10633W        W53571   0.243  13.104   0.452  0.0682  0.0692 -0.0572
10634W        W53572   1.513  13.051  31.963  0.1313  0.1797 -0.0446
10635W        W53573   2.239  13.638  30.883 -0.0812  0.5715  0.1955
10636W        W53574   4.046  12.270   1.437 -0.1099 -0.2117 -0.0058
10637W        W53575   2.222  12.372   0.258  0.1505 -0.1959 -0.2534
10638W        W53576   3.078  11.903   1.210 -0.0550 -0.0854 -0.1400
10639W        W53577   1.565  11.354   1.172  0.0411 -0.0702  0.0702
10640W        W53578  34.573  10.276   0.342  0.1663  0.0503 -0.1189
10641W        W53579   1.826  13.993  31.631  0.1423 -0.2573 -0.1850
10642W        W53580   3.562  11.102  29.973  0.2579 -0.1914 -0.2118
10643W        W53581   1.782  12.349   1.642  0.4219  0.1264 -0.2783
10644W        W53582   2.555   9.971   1.260  0.1969 -0.0408  0.1428
10645W        W53583   2.221  13.383   0.596 -0.0116 -0.2801  0.0499
10646W        W53584   4.981  15.516  30.909  0.1791 -0.1401  0.0729
10647W        W53585  33.562  14.017  31.710 -0.2706  0.1290 -0.4327
10648W        W53586   2.429  12.247   1.155 -0.0515 -0.0691  0.1980
10649W        W53587   2.896   9.926   0.937 -0.1603  0.1741 -0.0050
10650W        W53588   1.163  10.555  30.886 -0.1343  0.0856 -0.1391
10651W        W53589   2.374  14.703  31.981 -0.1081  0.3385  0.0294
10652W        W53590   1.234   9.858   2.019 -0.0074 -0.0660 -0.2464
10653W        W53591   2.342  12.127   0.693  0.1494 -0.3330 -0.4028
10654W        W53592   3.680  12.827  31.566  0.2835  0.1410  0.1042
10655W        W53593   2.268  14.031  31.375  0.0436  0.0152  0.0847
10656W        W53594   2.629  14.348   0.191  0.0152  0.0369  0.0951
10657W        W53595   0.071  11.294   0.608 -0.1518 -0.1187  0.0718
10658W        W53596   0.475  12.101  31.958  0.1590  0.3538 -0.2676
10659W        W53597   1.048  13.198  30.636 -0.0774  0.0372 -0.4097
10660W        W53598   0.784  11.766   0.168  0.0786  0.2066  0.0253
10661W        W53599  34.570  11.921   1.340 -0.0037  0.0228  0.1346
10662W        W53600   4.104  14.379   0.531  0.1826 -0.5523  0.2410
10663W        W53601   3.602  12.932  30.770 -0.0307 -0.1018  0.0029
10664W        W53602   4.377  13.423   0.069  0.0514 -0.1180 -0.0482
10665W        W53603   0.653  17.544  19.184 -0.3446 -0.0348  0.0237
10666W        W53604   1.808  16.340  16.370  0.1477  0.0708  0.1356
10667W        W53605   2.513  16.011  16.524  0.0495  0.3984 -0.0470
10668W        W53606   2.496  16.976  17.734 -0.1374 -0.1605  0.2736
10669W        W53607   0.518  15.577  17.522 -0.1821  0.0674 -0.1580
10670W        W53608   3.039  18.263  16.692 -0.2630 -0.1468 -0.0341
10671W        W53609   0.804  14.151  18.348 -0.1248 -0.2587  0.0390
10672W        W53610   2.007  17.493  19.995 -0.0866  0.1532  0.1789
10673W        W53611   3.733  17.543  18.465 -0.0595 -0.0645 -0.3076
10674W        W53612   0.278  17.081  16.122  0.0089  0.1800 -0.0576
10675W        W53613   2.616  15.911  18.987  0.1545  0.0441  0.5445
10676W        W53614  34.677  17.736  17.851 -0.2205 -0.1877  0.1855
10677W        W53615   1.558  15.732  17.261 -0.3379  0.2711 -0.0180
10678W        W53616  34.049  14.797  19.062  0.1946  0.0618  0.1087
10679W        W53617   2.093  16.755  18.686 -0.0992  0.2533 -0.1232
10680W        W53618  34.198  16.873  17.696  0.0275 -0.2264 -0.0837
10681W        W53619   0.603  16.214  19.861 -0.1276 -0.2068 -0.0009
10682W        W53620   1.808  14.379  17.553  0.0192  0.0087 -0.3518
10683W        W53621  33.991  18.340  18.246 -0.0824  0.0636  0.0838
10684W        W53622   0.842  15.291  20.243  0.0113  0.0778 -0.1236
10685W        W53623   1.722  13.514  20.201 -0.0867  0.2598 -0.2046
10686W        W53624   0.303  17.472  16.481 -0.1669  0.0997  0.1399
10687W        W53625  34.441  15.891  15.791 -0.0205 -0.1435  0.1671
10688W        W53626   0.838  17.093  19.288 -0.1308 -0.1258 -0.0043
10689W        W53627   1.247  17.639  18.710  0.2414  0.0812  0.1795
10690W        W53628   1.786  16.338  18.429 -0.1841 -0.0994 -0.2202
10691W        W53629   4.100  16.704  17.353  0.2297  0.1859 -0.0709
10692W        W53630   1.144  17.973  17.314 -0.2842  0.2122  0.0073
10693W        W53631   0.977  18.104  17.780  0.4634  0.1008  0.0796
10694W        W53632   1.740  15.195  19.861 -0.1681  0.1834  0.0066
10695W        W53633   0.653  16.507  18.138  0.0961 -0.1803  0.0909
10696W        W53634  33.704  17.211  17.113 -0.0007 -0.1504  0.2531
10697W        W53635   0.126  16.737  16.426  0.1191  0.2408  0.1549
10698W        W53636   3.236  17.132  17.497  0.1053 -0.0929 -0.2201
10699W        W53637   3.713  17.695  18.960 -0.2995  0.1809  0.2210
10700W        W53638   1.043  19.463  18.595  0.0158  0.3278 -0.1318
10701W        W53639  34.581  18.559  16.811 -0.0927  0.1295 -0.0373
10702W        W53640   1.202  17.796  22.420  0.1273  0.0765  0.0170
10703W        W53641   0.106  16.526  20.126  0.0268 -0.3475 -0.1094
10704W        W53642   2.115  16.086  18.200 -0.2264 -0.4506  0.1079
10705W        W53643   1.702  16.327  17.955 -0.1034  0.0375  0.2923
10706W        W53644   1.016  16.860  16.601 -0.0260  0.0309 -0.1667
10707W        W53645   1.896  15.330  17.364  0.0007  0.2111  0.2982
10708W        W53646   2.542  16.766  21.083 -0.2400 -0.1559 -0.0670
10709W        W53647   0.344  17.854  17.514 -0.0716 -0.3194  0.2159
10710W        W53648   3.240  15.145  20.037  0.1756 -0.3759 -0.1411
10711W        W53649   0.537  17.988  16.675 -0.0857  0.1744 -0.1161
10712W        W53650   1.025  16.569  17.427 -0.3559  0.3241 -0.0983
10713W        W53651   2.154  14.097  17.289 -0.0364 -0.3836 -0.0338
10714W        W53652   3.317  15.072  16.550 -0.2961  0.0450 -0.1810
10715W        W53653   1.581  14.036  18.475  0.4005 -0.0098  0.2758
10716W        W53654   0.653  17.916  17.126 -0.2310 -0.2988 -0.0807
10717W        W53655   1.014  15.918  18.761  0.1886  0.3203  0.2148
10718W        W53656   1.271  16.443  18.746  0.2075  0.0348  0.2865
10719W        W53657   1.516  16.063  16.766 -0.2032 -0.3551  0.2763
10720W        W53658   1.388  14.775  18.058 -0.1402 -0.0840 -0.0193
10721W        W53659  33.429  17.809  19.852 -0.1039  0.2040  0.0414
10722W        W53660   0.822  15.200  17.296 -0.1498 -0.1959  0.0504
10723W        W53661   3.039  19.113  17.596 -0.1396 -0.1419  0.2211
10724W        W53662   4.320  18.516  18.251  0.1691 -0.0779 -0.1502
10725W        W53663   2.082  16.724  17.608 -0.0559 -0.2134 -0.1843
10726W        W53664   0.209  16.345  17.967 -0.1355  0.0761  0.1152
10727W        W53665   0.155  18.793  19.219 -0.3202  0.1535  0.1991
10728W        W53666  33.841  14.269  20.407 -0.2061 -0.1312  0.0809
10729W        W53667   0.354  14.363  17.144 -0.3363 -0.0119  0.0675
10730W        W53668   3.216  18.124  18.992  0.3988  0.1104  0.1466
10731W        W53669  34.408  18.208  19.548  0.1326 -0.1709  0.2207
10732W        W53670   4.008  14.933  16.573  0.0142  0.1987 -0.0649
10733W        W53671   0.860  16.099  17.294 -0.0699  0.1471  0.0168
10734W        W53672   2.198  19.142  18.254  0.1283 -0.4115 -0.0397
10735W        W53673   2.980  17.366  17.182 -0.0195 -0.2220 -0.2835
10736W        W53674   2.659  15.082  16.614 -0.2649  0.0571 -0.1826
10737W        W53675   2.573  14.572  18.060  0.2604 -0.1684  0.2023
10738W        W53676   0.149  17.324  18.091 -0.1709  0.2137  0.1526
10739W        W53677   0.971  16.421  16.244  0.1925 -0.0271  0.0567
10740W        W53678   2.224  17.276  18.828 -0.0247  0.6007  0.0622
10741W        W53679   2.249  16.185  17.677 -0.0175 -0.0714 -0.2679
10742W        W53680   0.363  17.856  18.319  0.0802  0.3151  0.0967
10743W        W53681   1.228  14.176  19.808 -0.0030 -0.0620 -0.1715
10744W        W53682   0.900  17.991  19.027  0.4226  0.1193  0.1161
10745W        W53683   1.030  18.112  16.604  0.0263 -0.1093  0.1827
10746W        W53684  34.212  17.028  18.730 -0.1936 -0.4684 -0.1623
10747W        W53685  34.442  16.792  15.987  0.1371  0.0423  0.1461
10748W        W53686  34.177  14.708  20.445  0.0333  0.1819  0.4085
10749W        W53687   1.864  17.161  18.461 -0.1748  0.3457  0.2271
10750W        W53688   2.297  15.423  16.505 -0.0914  0.1920 -0.3345
10751W        W53689   1.320  17.152  18.772 -0.0401 -0.2251  0.0328
10752W        W53690   1.935  14.312  19.561 -0.2763 -0.3436 -0.1254
10753W        W53691  34.306  16.191  17.058 -0.0304 -0.0920  0.0266
10754W        W53692   2.071  19.306  16.467 -0.2625  0.0226  0.2258
10755W        W53693   2.765  15.597  17.366  0.2176  0.3372  0.3097
10756W        W53694   4.133  17.915  16.669  0.1102  0.1610  0.0048
10757W        W53695  34.042  16.324  20.038  0.0376 -0.0638 -0.0299
10758W        W53696   1.395  13.995  16.707 -0.1750 -0.0077  0.1332
10759W        W53697   1.494  15.819  19.653 -0.0325  0.1746 -0.0697
10760W        W53698   0.859  14.663  17.438 -0.0184  0.0570 -0.0524
10761W        W53699   2.289  15.925  19.387 -0.2542 -0.0118 -0.2083
10762W        W53700  34.239  15.895  17.830  0.0279  0.1255 -0.1108
10763W        W53701   2.599  15.408  18.715 -0.0794 -0.0036  0.2664
10764W        W53702   1.709  16.498  16.849 -0.1262 -0.1857 -0.4669
10765W        W53703   1.093  15.407  19.450  0.1588 -0.2846  0.2774
10766W        W53704   4.146  15.084  19.935 -0.1162 -0.0452  0.0799
10767W        W53705   1.680  18.782  18.089 -0.0623 -0.0380 -0.1930
10768W        W53706   5.245  18.801  18.484 -0.0227 -0.1924  0.1213
10769W        W53707   1.940  18.527  19.787  0.0705  0.2184 -0.0296
10770W        W53708   0.206  15.073  18.499  0.0247  0.1662  0.2206
10771W        W53709  34.236  15.840  17.348  0.0820  0.0185  0.2474
10772W        W53710  34.258  16.804  18.281  0.1921 -0.1760  0.1950
10773W        W53711   1.786  17.927  17.579  0.4106 -0.1343  0.0090
10774W        W53712   1.094  15.205  16.771  0.0828  0.1990  0.0928
10775W        W53713   2.427  18.042  19.365 -0.0054  0.0528 -0.0408
10776W        W53714   2.157  16.589  17.047 -0.1227  0.0397 -0.0559
10777W        W53715   0.067  17.548  20.091 -0.2573  0.0782 -0.2533
10778W        W53716   1.738  14.125  21.498 -0.1501  0.2578  0.1116
10779W        W53717   2.836  17.591  19.667 -0.3159  0.3861 -0.3054
10780W        W53718   4.080  15.866  18.069 -0.1999  0.2292 -0.0968
10781W        W53719   0.378  16.020  17.283  0.0994 -0.2997 -0.0124
10782W        W53720   1.956  18.407  17.892 -0.3741 -0.0959 -0.1430
10783W        W53721  34.281  18.691  17.141 -0.0141  0.1544  0.3572
10784W        W53722   0.575  15.952  18.215 -0.0830  0.0045  0.1122
10785W        W53723   1.416  18.686  17.293  0.0438  0.2446  0.3869
10786W        W53724   3.119  15.816  17.136  0.0951 -0.1242 -0.0569
10787W        W53725  33.610  16.790  20.578  0.1273 -0.0917 -0.0473
10788W        W53726   1.705  15.454  18.810 -0.0898 -0.3445 -0.0197
10789W        W53727  34.581  15.412  16.569 -0.0533 -0.0381 -0.2080
10790W        W53728   1.788  18.729  20.798  0.0386 -0.1043  0.3715
10791W        W53729   2.767  15.589  16.445  0.1925  0.3025  0.1886
10792W        W53730   2.990  15.373  16.837 -0.2058  0.2596 -0.0915
10793W        W53731   1.819  15.885  19.202  0.2299 -0.2736  0.2257
10794W        W53732   1.364  17.228  16.786  0.3036  0.1581  0.2418
10795W        W53733   3.000  15.153  16.142 -0.1268 -0.0158  0.1082
10796W        W53734   0.906  13.741  16.514  0.1385 -0.0677  0.2544
10797W        W53735  34.389  17.980  20.954  0.1064 -0.4287  0.0748
10798W        W53736   2.501  16.816  18.359  0.0750 -0.2505 -0.2201
10799W        W53737   2.509  18.245  18.069  0.0895 -0.0279  0.1872
10800W        W53738   1.210  16.883  16.024 -0.2267 -0.0078  0.1437
10801W        W53739   3.148  19.611  17.392  0.1607 -0.2378  0.0554
10802W        W53740   1.284  16.810  19.828 -0.0766  0.0869 -0.2403
10803W        W53741   2.700  17.328  19.267  0.0226  0.1267  0.2706
10804W        W53742   2.379  17.863  17.106 -0.0937 -0.4832 -0.0647
10805W        W53743   0.850  16.266  19.193 -0.2171 -0.1611 -0.3530
10806W        W53744   0.800  15.240  16.371  0.5595  0.2038  0.1615
10807W        W53745   0.558  15.028  17.664  0.3048  0.0154  0.1413
10808W        W53746  34.074  18.016  16.039 -0.2982 -0.1002  0.0077
10809W        W53747   1.282  15.110  18.781  0.0101 -0.3045  0.0817
10810W        W53748   1.902  14.533  18.646  0.0020  0.1268  0.0701
10811W        W53749   3.017  11.997  21.490  0.1019  0.1076 -0.1192
10812W        W53750   3.238  16.300  19.173 -0.0390 -0.0346 -0.0081
10813W        W53751   1.181  17.352  16.185 -0.2240  0.3910  0.0715
10814W        W53752   0.787  15.073  18.655 -0.0903 -0.1737 -0.1912
10815W        W53753  34.288  16.660  16.521  0.0890 -0.0214 -0.0763
10816W        W53754   1.385  13.660  19.093 -0.1974  0.2313 -0.2807
10817W        W53755  34.620  16.953  19.035  0.0534 -0.1941  0.0775
10818W        W53756  34.535  17.840  18.858  0.1347  0.1817  0.0836
10819W        W53757   2.140  17.030  19.248 -0.1439  0.0452 -0.1827
10820W        W53758   1.164  16.413  16.813 -0.1145  0.1905  0.1461
10821W        W53759   1.513  14.755  20.295 -0.0188 -0.0465 -0.4106
10822W        W53760   2.217  15.246  16.978 -0.0230 -0.0657 -0.1912
10823W        W53761   0.533  17.415  17.022 -0.1246  0.0262  0.0799
10824W        W53762   1.026  16.770  17.909 -0.2693  0.0158  0.0728
10825W        W53763   2.666  16.143  18.255  0.0200  0.0567 -0.1097
10826W        W53764   1.340  16.976  19.304 -0.0481 -0.0415 -0.3346
10827W        W53765   0.359  17.005  16.743 -0.2101 -0.4570  0.0856
10828W        W53766   1.869  18.069  19.215  0.0416 -0.0540  0.1482
10829W        W53767  34.632  18.616  17.898 -0.0984  0.1015  0.1725
10830W        W53768   0.533  15.760  18.853 -0.0225  0.4888 -0.0947
10831W        W53769  33.256  17.105  19.127 -0.3713  0.4295  0.3360
10832W        W53770   0.329  16.259  16.292  0.1693 -0.0954  0.0133
10833W        W53771  34.529  15.327  18.845 -0.0038 -0.0598 -0.1160
10834W        W53772   3.442  14.238  17.591 -0.0256  0.3662 -0.0957
10835W        W53773   2.507  17.425  16.907 -0.0996 -0.0878  0.1681
10836W        W53774  34.392  15.783  19.363  0.0880 -0.2948 -0.2891
10837W        W53775   1.374  16.822  17.014  0.1022 -0.1954  0.0384
10838W        W53776  34.322  18.108  17.001  0.0449 -0.0130  0.0671
10839W        W53777   2.334  15.619  20.501 -0.0617 -0.1966 -0.3201
10840W        W53778   1.664  14.883  16.252  0.1730 -0.1284 -0.2104
10841W        W53779   0.595  18.254  18.732  0.3666 -0.2509 -0.0305
10842W        W53780   0.517  16.378  20.347 -0.1591 -0.0355 -0.0004
10843W        W53781   0.086  14.972  16.764  0.1646 -0.0902  0.1161
10844W        W53782   1.595  16.026  18.750  0.0023  0.0853  0.0349
10845W        W53783   0.918  14.759  16.972  0.1266  0.3356  0.1110
10846W        W53784   0.676  18.307  17.392  0.2471  0.1222  0.1489
10847W        W53785   3.380  19.309  17.869  0.1004  0.2194  0.2703
10848W        W53786  34.330  17.282  18.258  0.1570  0.0549 -0.1122
10849W        W53787   0.914  16.734  18.961 -0.0684  0.0939 -0.2825
10850W        W53788   1.087  18.022  19.537 -0.2792 -0.0419 -0.0789
10851W        W53789   1.832  17.601  19.016 -0.1631  0.0117 -0.3140
10852W        W53790   0.747  15.457  19.827 -0.1501  0.1911 -0.1016
10853W        W53791   1.008  15.693  17.506  0.2349 -0.0396 -0.0239
10854W        W53792   1.887  16.157  17.228 -0.0995 -0.1141  0.0827
10855W        W53793   1.649  18.369  20.122 -0.0145 -0.0316  0.1456
10856W        W53794   1.457  17.312  18.264 -0.0014  0.3052  0.1311
10857W        W53795   0.058  18.313  19.016  0.0691  0.0211 -0.0124
10858W        W53796   0.009  15.323  17.873 -0.0185  0.2561  0.0845
10859W        W53797   3.483  18.544  16.856 -0.0835 -0.0388 -0.0161
10860W        W53798   0.966  17.137  20.206  0.1814  0.1190  0.1071
10861W        W53799  34.060  18.918  16.673  0.0805 -0.1331  0.0456
10862W        W53800  34.057  16.617  20.759  0.3796 -0.2859  0.1404
10863W        W53801   0.041  16.925  18.408  0.1080 -0.0060 -0.0628
10864W        W53802   1.773  16.451  19.011  0.1163  0.1869  0.0407
10865W        W53803   0.413  17.100  19.007 -0.3745 -0.2934  0.0614
10866W        W53804   0.029  17.261  17.533  0.0217  0.1569 -0.1992
10867W        W53805  33.363  16.813  18.668  0.1499 -0.1307 -0.2451
10868W        W53806   3.020  13.830  16.749 -0.1238 -0.1418 -0.1612
10869W        W53807   0.695  17.162  16.423 -0.0147  0.1168 -0.2299
10870W        W53808   2.434  16.118  17.051 -0.1381 -0.2550 -0.0949
10871W        W53809   2.552  15.501  19.475  0.1395 -0.0621  0.1254
10872W        W53810   2.231  17.107  17.238  0.2856 -0.0896  0.0317
10873W        W53811   1.259  15.422  19.926 -0.1984 -0.2089 -0.0753
10874W        W53812   0.862  15.833  19.506 -0.3433 -0.0592 -0.0493
10875W        W53813   2.709  19.431  17.528  0.0174  0.0352  0.0014
10876W        W53814   0.456  14.751  18.871 -0.0494 -0.0927  0.0109
10877W        W53815   2.398  18.349  19.867  0.2659  0.1431 -0.1650
10878W        W53816   0.628  18.717  19.542 -0.1334 -0.1123  0.1183
10879W        W53817   1.922  15.026  16.714 -0.1619 -0.0879 -0.2620
10880W        W53818   0.332  15.445  16.432 -0.1357 -0.3032 -0.0667
10881W        W53819  34.255  17.640  19.224  0.1671 -0.0308  0.0175
10882W        W53820   1.550  18.276  19.606  0.0356 -0.1642 -0.0354
10883W        W53821   1.791  16.966  17.144  0.3146 -0.4229 -0.0584
10884W        W53822   2.352  15.250  17.529 -0.0435  0.1573 -0.1442
10885W        W53823   0.504  16.786  18.642  0.0587 -0.1015 -0.4255
10886W        W53824   2.008  17.533  16.864 -0.0383 -0.0361  0.1909
10887W        W53825   1.592  17.719  16.138 -0.4046  0.1437 -0.2380
10888W        W53826   0.967  16.768  18.437 -0.0294 -0.2160 -0.0250
10889W        W53827   1.025  14.520  20.105 -0.1547 -0.1040 -0.0355
10890W        W53828   2.488  17.354  18.324 -0.0178 -0.1666  0.3542
10891W        W53829   1.896  15.726  16.896 -0.1488  0.0841 -0.4137
10892W        W53830   3.053  14.137  19.960  0.2412 -0.0031 -0.2981
10893W        W53831   1.909  15.621  20.267 -0.1359 -0.1303 -0.0290
10894W        W53832   2.427  17.333  19.770  0.1581  0.1019 -0.2418
10895W        W53833  34.289  13.238  19.464  0.0442 -0.2342  0.0805
10896W        W53834   3.863  19.832  19.821 -0.2297  0.1701  0.1386
10897W        W53835   3.800  16.263  16.556  0.0450  0.0286  0.3106
10898W        W53836   2.377  15.007  19.599 -0.2145 -0.0244 -0.1831
10899W        W53837   3.308  15.981  18.254 -0.0989  0.3027  0.3837
10900W        W53838   2.078  15.101  16.117 -0.3623 -0.0136  0.3324
10901W        W53839   0.016  15.864  17.985  0.2387  0.1927 -0.2771
10902W        W53840   2.298  15.387  19.927 -0.1723  0.0111 -0.0716
10903W        W53841   0.219  13.585  16.937 -0.1058  0.0425  0.1221
10904W        W53842   3.442  16.691  19.384 -0.0905 -0.4483 -0.1306
10905W        W53843   2.566  18.525  16.739 -0.3221 -0.2779  0.1463
10906W        W53844   2.715  16.475  19.152  0.0877  0.2591 -0.0312
10907W        W53845   1.563  15.270  16.936 -0.0981 -0.0939 -0.1611
10908W        W53846  34.407  15.267  17.022  0.0837  0.1255 -0.0982
10909W        W53847   0.486  18.531  17.759 -0.0540 -0.2463  0.2347
10910W        W53848   0.490  14.878  16.378  0.2229  0.1135  0.0418
10911W        W53849   0.574  16.560  16.623 -0.0759 -0.1931 -0.1222
10912W        W53850   0.432  18.259  19.421  0.0419  0.1458  0.1055
10913W        W53851   2.199  16.893  19.884  0.1090  0.3204  0.0826
10914W        W53852   2.083  16.150  16.727  0.1799 -0.0108 -0.2012
10915W        W53853   1.852  15.807  17.670 -0.1579  0.0823 -0.0472
10916W        W53854   0.035  17.833  15.466  0.1269  0.0729 -0.0516
10917W        W53855   1.729  13.922  17.106  0.1380 -0.0517  0.0298
10918W        W53856   1.286  18.729  18.415 -0.0438  0.2423  0.2711
10919W        W53857  34.292  17.322  17.733 -0.2742  0.2090 -0.0680
10920W        W53858   1.546  17.538  17.228  0.0946  0.1086 -0.0748
10921W        W53859   2.638  14.000  16.951 -0.0600  0.1351 -0.0338
10922W        W53860   1.541  15.917  18.192 -0.0574  0.1840  0.1372
10923W        W53861   1.562  16.835  17.960  0.0617  0.0297 -0.0986
10924W        W53862   3.098  17.144  19.473  0.1400  0.0230  0.0750
10925W        W53863   3.027  16.904  19.046 -0.1727  0.1745 -0.0274
10926W        W53864   0.955  17.275  18.370  0.2549 -0.0587  0.4381
10927W        W53865   2.752  18.267  19.012  0.4481  0.1443 -0.0092
10928W        W53866   2.774  16.876  17.042  0.0983 -0.0274 -0.0766
10929W        W53867   0.367  17.851  18.807 -0.0221  0.0849 -0.0006
10930W        W53868  34.344  16.526  18.954  0.0717  0.2069  0.0095
10931W        W53869   1.358  17.288  19.681 -0.1926  0.0735 -0.1662
10932W        W53870   3.655  17.098  17.875  0.1190  0.2718  0.3442
10933W        W53871   0.953  14.783  16.484 -0.1035  0.1608 -0.0158
10934W        W53872   1.883  18.046  16.612 -0.1189 -0.2726  0.0630
10935W        W53873  33.663  17.279  19.893 -0.3099 -0.3412  0.0437
10936W        W53874   0.833  16.622  19.572 -0.0153 -0.1975  0.4011
10937W        W53875   0.646  17.089  18.041  0.1048  0.0347 -0.1026
10938W        W53876   2.089  17.709  16.256 -0.1251  0.0216 -0.0126
10939W        W53877   1.541  17.668  16.701 -0.1155  0.2899  0.1970
10940W        W53878   1.491  18.375  17.681 -0.1966 -0.0129  0.2579
10941W        W53879   1.439  14.876  17.187  0.0093  0.0863  0.0941
10942W        W53880   1.302  17.730  17.749 -0.0032 -0.0773 -0.1341
10943W        W53881  33.743  17.394  16.521  0.0991 -0.0651 -0.0167
10944W        W53882   1.356  17.075  17.451  0.0657  0.0329  0.3097
10945W        W53883   2.279  18.089  17.573  0.0370  0.2859 -0.0168
10946W        W53884   3.010  16.926  18.517  0.0516  0.0841 -0.2701
10947W        W53885   2.552  14.949  16.068 -0.2283 -0.3787 -0.0625
10948W        W53886   2.159  16.191  18.990 -0.0374  0.1246  0.0669
10949W        W53887   4.317  16.262  17.826 -0.1454 -0.0180 -0.3918
10950W        W53888   2.728  17.487  20.149  0.1391 -0.3147 -0.2360
10951W        W53889   1.301  15.320  17.443 -0.0354 -0.0000 -0.4186
10952W        W53890   1.996  15.855  16.319 -0.1678 -0.1215 -0.0012
10953W        W53891  34.570  15.493  18.377  0.1262  0.0663  0.0344
10954W        W53892   2.505  14.440  18.889 -0.2447  0.1125  0.1117
10955W        W53893   0.813  17.817  20.295 -0.2114  0.0810  0.0672
10956W        W53894   1.901  18.094  17.062  0.0960  0.0379 -0.1392
10957W        W53895   0.513  16.486  17.537  0.1260  0.0333 -0.1795
10958W        W53896   1.986  16.695  18.162 -0.1299 -0.1690  0.0533
10959W        W53897   3.114  14.238  18.095 -0.2124 -0.2512  0.1780
10960W        W53898   0.508  17.440  17.682 -0.1460  0.0333 -0.0892
10961W        W53899   2.513  16.461  17.922 -0.1706 -0.0328  0.0441
10962W        W53900  34.614  17.672  17.275 -0.0062  0.0404 -0.1861
10963W        W53901   1.272  17.829  18.239 -0.3218 -0.1541  0.0583
10964W        W53902   1.659  17.924  18.613 -0.0967 -0.2786  0.0536
10965W        W53903  34.144  15.339  16.623  0.0029 -0.1279  0.1705
10966W        W53904   3.812  16.510  17.000  0.0688 -0.0236  0.0330
10967W        W53905   0.374  15.489  18.170 -0.1498 -0.0805 -0.0512
10968W        W53906   1.815  14.947  18.944  0.2483  0.0801  0.0753
10969W        W53907   1.019  15.985  15.912  0.4019  0.1300 -0.1634
10970W        W53908   3.224  15.657  17.599  0.1399 -0.0902 -0.3430
10971W        W53909   1.814  17.397  19.520 -0.1473  0.1269  0.1934
10972W        W53910  34.125  16.899  19.260 -0.0934  0.1295  0.0889
10973W        W53911   0.318  17.031  17.209  0.2831 -0.0891  0.1556
10974W        W53912   1.241  15.957  19.187 -0.0013 -0.1153  0.2738
10975W        W53913   1.632  15.513  16.480  0.1539  0.1785  0.2102
10976W        W53914   3.024  19.270  19.414  0.0710 -0.0390  0.0543
10977W        W53915   0.799  15.394  17.897  0.2295  0.0047 -0.1899
10978W        W53916   1.783  14.452  16.535 -0.3260  0.2681  0.1045
10979W        W53917   0.730  16.712  17.093  0.1335 -0.3083 -0.0320
10980W        W53918   0.860  17.299  18.835  0.0033 -0.3164 -0.2286
10981W        W53919   2.724  17.767  19.061 -0.0382 -0.1080 -0.1971
10982W        W53920   0.372  14.562  17.600 -0.0212 -0.2969  0.0076
10983W        W53921   2.855  17.762  16.914  0.0352  0.1541  0.0869
10984W        W53922   2.506  15.726  17.769  0.0710 -0.0687  0.0604
10985W        W53923   1.748  17.445  17.701 -0.2036  0.2592  0.2137
10986W        W53924   2.124  17.701  18.526 -0.0267 -0.1361  0.1190
10987W        W53925   2.618  19.052  19.083  0.3648 -0.1681  0.0312
10988W        W53926  33.385  16.367  18.818  0.2711  0.0268  0.1952
10989W        W53927   1.180  19.084  18.068  0.1318  0.1738  0.2425
10990W        W53928   4.132  18.199  18.745 -0.1058  0.1454 -0.1437
10991W        W53929   1.461  14.866  16.699 -0.0568 -0.1336 -0.1826
10992W        W53930   1.278  16.400  18.210  0.1712 -0.0525 -0.1561
10993W        W53931  34.613  18.151  17.444  0.1190  0.0747 -0.1171
10994W        W53932   2.417  15.138  18.186  0.0570 -0.2183  0.2218
10995W        W53933   3.553  17.020  18.325  0.0752  0.1195 -0.0658
10996W        W53934   1.515  16.826  16.512  0.0203 -0.0873  0.0686
10997W        W53935   1.084  14.211  19.250  0.0726  0.1978  0.5591
10998W        W53936   1.761  18.331  21.131  0.2531  0.0526  0.2276
10999W        W53937  34.679  20.008  19.372 -0.0178 -0.1251  0.1465
11000W        W53938   0.286  16.491  17.041  0.0897 -0.0959 -0.1709
11001W        W53939   0.987  15.927  20.130  0.2027 -0.2401 -0.0858
11002W        W53940   0.723  16.960  17.525 -0.0012  0.2088 -0.0301
11003W        W53941   1.091  17.682  16.929 -0.1961  0.0164 -0.3896
11004W        W53942   1.575  18.261  18.225 -0.0803  0.2524  0.0976
11005W        W53943   2.998  16.009  16.685  0.0087 -0.0544 -0.2476
11006W        W53944   4.543  18.312  19.029  0.0661 -0.0445  0.3641
11007W        W53945   1.334  16.118  17.728  0.0969 -0.2541 -0.0270
11008W        W53946   2.101  14.775  17.837 -0.0459  0.2152 -0.0416
11009W        W53947   2.141  14.706  16.365 -0.2406  0.0733  0.0461
11010W        W53948   1.048  17.287  17.843  0.0781 -0.1378  0.0350
11011W        W53949  34.161  16.202  16.568  0.0898  0.2905  0.1379
11012W        W53950  34.519  17.710  16.692  0.1119  0.1484 -0.0907
11013W        W53951   0.775  16.146  17.785 -0.1390 -0.3349 -0.0170
11014W        W53952   1.270  14.455  20.773  0.0733  0.0091  0.1320
11015W        W53953  34.046  16.081  19.181  0.4082  0.2729 -0.0469
11016W        W53954  34.352  16.379  17.941 -0.1557 -0.1155 -0.0131
11017W        W53955   0.751  15.630  16.763 -0.0532  0.0262 -0.2265
11018W        W53956   2.768  17.863  18.545  0.1506  0.3975 -0.2629
11019W        W53957   0.334  13.951  17.447 -0.3193 -0.0822 -0.0185
11020W        W53958   0.059  13.659  18.249 -0.1241  0.0267  0.1903
11021W        W53959   2.246  17.559  17.480  0.0132 -0.1416  0.1394
11022W        W53960   1.584  16.578  17.501 -0.3532  0.0366  0.0751
11023W        W53961   1.407  15.455  17.964  0.1251 -0.3374  0.1441
11024W        W53962   4.261  18.138  19.357 -0.0635  0.1967  0.0765
11025W        W53963   0.308  15.891  16.714  0.1395  0.0530  0.1418
11026W        W53964   2.392  15.078  19.021 -0.0392  0.0909  0.0866
11027W        W53965   0.950  14.682  18.356  0.4879  0.1867 -0.0273
11028W        W53966  34.509  15.013  16.271 -0.1127 -0.1691 -0.1507
11029W        W53967   0.636  15.120  16.802  0.0093 -0.0850  0.0980
11030W        W53968   0.911  17.507  17.422  0.2135 -0.1082  0.0946
11031W        W53969   2.864  19.442  16.534  0.2369 -0.0984 -0.0318
11032W        W53970   1.741  17.028  18.999 -0.0187 -0.0651 -0.2987
11033W        W53971   0.590  19.354  18.864 -0.0156 -0.0725  0.0877
11034W        W53972   0.992  14.626  18.950  0.0358  0.3043 -0.5462
11035W        W53973   2.208  15.777  17.289  0.1852 -0.1327 -0.0364
11036W        W53974   1.498  17.769  19.523  0.1036 -0.1614  0.0730
11037W        W53975   4.493  18.237  17.046 -0.2438 -0.0194 -0.1447
11038W        W53976   1.490  14.602  19.680  0.3873  0.1042 -0.0678
11039W        W53977   2.519  16.973  16.646  0.1128  0.0397  0.2670
11040W        W53978   0.445  13.864  18.594  0.1071  0.0676 -0.3031
11041W        W53979   1.573  15.438  19.281  0.2158  0.2026  0.2193
11042W        W53980   2.315  17.633  17.961  0.0550  0.1911 -0.1727
11043W        W53981   1.667  15.159  18.421  0.2020  0.1791 -0.1806
11044W        W53982   1.213  15.663  16.877  0.0588  0.1386  0.2624
11045W        W53983   1.527  16.795  18.493  0.1467  0.0732 -0.0796
11046W        W53984   0.551  15.467  19.384 -0.2682 -0.1345 -0.0700
11047W        W53985   1.780  16.822  16.102  0.0696 -0.0828 -0.0456
11048W        W53986   2.029  15.383  17.914 -0.0368  0.0186 -0.0937
11049W        W53987   3.151  18.117  17.347 -0.3156  0.1133 -0.0536
11050W        W53988   1.893  17.203  20.457  0.0381 -0.2175 -0.0641
11051W        W53989   1.397  16.191  17.242 -0.0155 -0.2618 -0.2803
11052W        W53990   4.585  16.933  17.513  0.0544  0.2857 -0.2791
11053W        W53991   2.647  18.933  18.460  0.0603 -0.0479  0.1879
11054W        W53992   4.113  18.766  20.346  0.0518  0.1068  0.0409
11055W        W53993   2.472  18.000  20.390  0.0853 -0.3226 -0.1950
11056W        W53994   2.533  16.371  18.690  0.0077  0.1016 -0.2831
11057W        W53995   0.083  15.128  17.433  0.0822 -0.0307  0.1809
11058W        W53996   0.273  15.507  17.018  0.0395  0.0153 -0.1135
11059W        W53997   1.977  14.819  17.370 -0.0955  0.1659 -0.0830
11060W        W53998   2.519  16.870  18.950 -0.1108  0.0438  0.0757
11061W        W53999   1.057  15.801  18.005 -0.2049 -0.2586  0.1766
11062W        W54000   2.461  13.008  17.688 -0.1009  0.1319 -0.1497
11063W        W54001   0.849  19.550  19.616  0.1496 -0.4287 -0.3339
11064W        W54002   0.340  17.088  19.512  0.1476 -0.0934 -0.0525
11065W        W54003   2.083  16.898  23.615 -0.0235 -0.0491 -0.0500
11066W        W54004   0.586  15.767  20.505 -0.1885  0.3049 -0.4481
11067W        W54005   2.808  15.284  19.851  0.0331  0.1038 -0.0889
11068W        W54006   1.950  17.044  21.355 -0.0665  0.0325  0.2169
11069W        W54007  33.929  16.400  22.131  0.1489  0.3142 -0.0024
11070W        W54008   2.006  19.119  21.095 -0.1026  0.1558  0.0050
11071W        W54009   1.083  14.286  23.519 -0.1845  0.0948  0.1910
11072W        W54010   1.589  17.452  22.344 -0.0888  0.2217 -0.0853
11073W        W54011   3.267  18.027  21.254  0.0525 -0.5253 -0.1222
11074W        W54012   0.385  15.242  18.959 -0.2305  0.1345 -0.1196
11075W        W54013   0.243  15.802  22.585  0.3522 -0.1575 -0.0157
11076W        W54014   1.924  19.443  24.561 -0.1200 -0.2084  0.0367
11077W        W54015   3.108  14.855  19.616  0.0801  0.1333  0.0142
11078W        W54016  33.760  13.339  23.420  0.1497 -0.3897 -0.1722
11079W        W54017   2.201  16.563  23.093 -0.3503 -0.0430  0.2278
11080W        W54018  34.661  16.977  21.497  0.0965  0.0215  0.1026
11081W        W54019   0.904  16.175  22.072  0.1120  0.1254 -0.3537
11082W        W54020   2.080  16.757  20.330 -0.0096  0.1134  0.0592
11083W        W54021   0.995  16.597  21.910 -0.1199  0.0195  0.1344
11084W        W54022   0.818  15.932  23.389 -0.1369  0.1018  0.1207
11085W        W54023   1.811  13.818  22.971 -0.3494 -0.5416  0.1476
11086W        W54024   2.294  17.410  21.743  0.0000  0.0431 -0.0648
11087W        W54025  34.105  18.127  19.093 -0.2862  0.0000  0.0839
11088W        W54026   1.561  15.546  23.286 -0.0476  0.1473 -0.1054
11089W        W54027   0.944  16.506  22.491 -0.1819 -0.0050  0.1100
11090W        W54028   2.233  14.003  21.510 -0.2766  0.0709 -0.0834
11091W        W54029   2.192  15.635  22.473  0.0781 -0.0605 -0.1230
11092W        W54030   2.283  19.180  22.683  0.0829  0.0578  0.0248
11093W        W54031   2.451  17.809  19.930 -0.3499 -0.2294  0.0293
11094W        W54032   1.607  15.307  23.702  0.0628 -0.7192 -0.1034
11095W        W54033   1.052  17.327  22.239 -0.3017 -0.0200  0.0766
11096W        W54034   0.475  16.824  21.038  0.2871  0.0334  0.1495
11097W        W54035   1.795  17.781  22.729  0.1650  0.0320 -0.1617
11098W        W54036   3.654  17.573  20.016  0.0049  0.1159  0.1150
11099W        W54037   2.028  17.484  23.047  0.0656 -0.0961 -0.2798
11100W        W54038   2.349  19.068  23.946 -0.1224 -0.1102  0.0133
11101W        W54039   1.275  18.084  20.004  0.2099 -0.1949 -0.2339
11102W        W54040   2.269  16.889  22.423  0.1521 -0.1559 -0.1526
11103W        W54041   0.598  19.286  23.087 -0.0039  0.1461  0.1166
11104W        W54042   2.351  15.424  22.925  0.0919  0.2485 -0.1490
11105W        W54043   1.260  15.901  21.098 -0.0428  0.1680 -0.1094
11106W        W54044   1.691  18.220  20.647 -0.0491 -0.0368 -0.2174
11107W        W54045   2.151  16.861  21.917 -0.6474 -0.0930  0.1326
11108W        W54046   1.742  17.642  21.551 -0.0024 -0.0422  0.3054
11109W        W54047   0.886  16.551  21.335  0.0688 -0.1080  0.2651
11110W        W54048   3.800  14.452  25.017  0.1737 -0.0731 -0.0625
11111W        W54049   0.767  17.787  18.537  0.0846 -0.2154  0.5216
11112W        W54050   2.510  16.343  19.655 -0.1201  0.2744  0.0083
11113W        W54051   1.251  16.311  19.762  0.0634  0.0444  0.3399
11114W        W54052   2.011  15.495  19.541  0.1377 -0.0492 -0.0703
11115W        W54053   1.530  13.584  21.201 -0.1544  0.1045  0.2095
11116W        W54054   3.144  18.230  21.709 -0.2385 -0.0621  0.2254
11117W        W54055   0.929  15.208  21.909  0.1626  0.3785 -0.4278
11118W        W54056   2.634  17.259  22.587  0.1603 -0.3287  0.0836
11119W        W54057   0.138  16.030  21.641 -0.0231 -0.1585  0.0731
11120W        W54058   2.334  14.554  23.300 -0.2781 -0.1328 -0.2009
11121W        W54059   0.381  18.421  22.564  0.2065 -0.2554  0.0627
11122W        W54060   0.961  15.677  20.800  0.2025 -0.0878  0.0910
11123W        W54061   3.980  17.123  20.202 -0.0330 -0.1428 -0.0922
11124W        W54062   2.173  17.027  20.858  0.1683  0.0886  0.1498
11125W        W54063   2.867  18.820  20.018  0.1005  0.2092  0.0744
11126W        W54064   0.398  16.325  22.160  0.1551  0.2769  0.0351
11127W        W54065   1.472  18.007  24.316  0.0417  0.2605  0.1500
11128W        W54066   1.510  15.723  21.962  0.2496  0.1377  0.1865
11129W        W54067   0.053  12.693  21.032 -0.2372  0.0078  0.0321
11130W        W54068   2.743  15.619  23.120  0.0248  0.0422 -0.0531
11131W        W54069   0.723  18.148  23.563  0.1236 -0.0074  0.2832
11132W        W54070   3.044  14.971  20.525 -0.1391 -0.0219  0.0572
11133W        W54071   1.115  17.692  23.563  0.0809  0.0234 -0.0312
11134W        W54072   3.079  17.598  21.413 -0.1144 -0.0510  0.1707
11135W        W54073   1.754  16.813  19.542  0.0540  0.3009  0.0612
11136W        W54074   2.639  14.945  21.380  0.1390 -0.1082 -0.0551
11137W        W54075   2.463  14.332  22.490 -0.0199 -0.1590  0.0197
11138W        W54076   1.922  15.939  19.890 -0.0883  0.0843 -0.0379
11139W        W54077   1.629  16.685  21.701 -0.3035  0.0375  0.1525
11140W        W54078   1.907  17.722  22.055 -0.4046 -0.1620 -0.0620
11141W        W54079   4.696  16.390  20.131 -0.2065  0.3548 -0.0730
11142W        W54080   1.200  16.112  21.680 -0.3126  0.1082  0.0696
11143W        W54081   3.154  15.833  22.268 -0.2865 -0.1146 -0.2092
11144W        W54082   2.047  19.000  24.428  0.2809  0.2434 -0.0567
11145W        W54083   0.129  17.991  19.845 -0.0371  0.1061  0.0983
11146W        W54084  34.354  17.140  21.931 -0.2184  0.0500  0.1094
11147W        W54085   0.441  15.796  20.001 -0.1470  0.0415  0.0648
11148W        W54086   0.279  14.287  22.023  0.1105  0.0087  0.2376
11149W        W54087   1.524  16.373  22.573  0.0672  0.3697 -0.0894
11150W        W54088   2.092  16.400  19.996 -0.0060 -0.0584  0.0096
11151W        W54089   1.028  14.233  22.988  0.1550 -0.0921  0.1150
11152W        W54090   2.887  14.738  20.995 -0.2124  0.1075 -0.1608
11153W        W54091   0.443  16.635  19.221 -0.2181  0.0778 -0.0763
11154W        W54092   3.686  18.110  21.960  0.2082 -0.0802 -0.0210
11155W        W54093   3.690  15.352  20.007  0.1811 -0.2942 -0.0440
11156W        W54094   1.354  18.670  20.385  0.2049  0.0121 -0.1214
11157W        W54095   0.325  14.918  24.197  0.1611 -0.0850 -0.0371
11158W        W54096   0.818  16.093  21.194 -0.1050  0.1205  0.1514
11159W        W54097   0.608  16.899  23.961  0.1066 -0.1277  0.2096
11160W        W54098  34.342  15.894  23.250 -0.0916  0.1814  0.0251
11161W        W54099   2.197  14.948  22.307 -0.2016  0.0809 -0.0704
11162W        W54100   0.412  16.212  20.815 -0.2744 -0.3024  0.0176
11163W        W54101   1.929  14.998  20.323  0.0643 -0.2861  0.3867
11164W        W54102   2.058  15.325  20.846  0.1116 -0.2176 -0.0134
11165W        W54103   1.296  17.380  20.477 -0.2505  0.0427 -0.2692
11166W        W54104   4.386  14.309  23.318  0.2963 -0.0863  0.2660
11167W        W54105   1.560  18.820  19.781 -0.0462 -0.0503 -0.1603
11168W        W54106   2.398  18.325  23.270  0.0646  0.1584  0.2333
11169W        W54107   2.391  17.124  20.257 -0.3888  0.3298  0.2509
11170W        W54108   1.126  15.888  24.240  0.4012  0.1002 -0.0852
11171W        W54109   0.189  12.908  20.176  0.0390 -0.1870 -0.0688
11172W        W54110   0.098  16.866  22.057 -0.0585  0.1958  0.2081
11173W        W54111   0.802  18.906  23.408  0.1627  0.1796 -0.2312
11174W        W54112   2.072  14.698  19.858  0.0745  0.0288  0.0841
11175W        W54113   3.407  20.362  20.029 -0.0551  0.0284 -0.0293
11176W        W54114   0.605  16.206  21.687 -0.1665 -0.1143  0.0800
11177W        W54115   1.327  17.060  23.120 -0.0443  0.0128 -0.2710
11178W        W54116   2.983  14.394  23.260  0.3162 -0.1559 -0.0044
11179W        W54117   2.975  16.276  22.389  0.0256  0.0201  0.1315
11180W        W54118   1.934  14.519  22.051  0.2459 -0.0324  0.1745
11181W        W54119   0.735  14.302  19.741 -0.3336 -0.0685 -0.2562
11182W        W54120   2.292  18.057  21.996  0.0051 -0.1758  0.0037
11183W        W54121  34.171  17.313  20.014  0.0204 -0.0005 -0.0612
11184W        W54122   0.720  17.644  21.112 -0.2000  0.0672 -0.1674
11185W        W54123   1.774  16.641  22.187 -0.3541 -0.2109  0.2415
11186W        W54124   1.550  14.716  21.731  0.1762  0.1969 -0.0878
11187W        W54125   0.315  15.248  25.190  0.0448  0.1159  0.1073
11188W        W54126   0.719  15.607  23.990 -0.0852  0.1096 -0.0688
11189W        W54127   1.718  15.671  20.690  0.1665 -0.1470 -0.0028
11190W        W54128   1.092  18.954  24.865  0.0308  0.0032  0.0460
11191W        W54129   2.611  14.039  21.179 -0.0779 -0.0513 -0.0097
11192W        W54130   3.348  15.674  20.208  0.0555 -0.0061 -0.0484
11193W        W54131   2.820  16.069  22.851 -0.3190  0.0620  0.0115
11194W        W54132   3.891  15.864  20.060 -0.2286 -0.0973  0.1850
11195W        W54133   0.974  15.451  18.997 -0.2209  0.1744  0.0175
11196W        W54134   0.246  16.346  18.880  0.0705  0.0381  0.0063
11197W        W54135   0.344  17.700  22.978 -0.2752 -0.0557 -0.1662
11198W        W54136   0.629  17.190  21.344 -0.0656 -0.2322 -0.0199
11199W        W54137   2.163  16.343  22.261 -0.1921 -0.1438 -0.0466
11200W        W54138   0.487  15.705  21.116  0.2172 -0.0290 -0.2733
11201W        W54139   2.970  17.783  20.499  0.2546 -0.1589  0.0964
11202W        W54140   0.513  16.235  23.146  0.0222  0.0037 -0.1529
11203W        W54141   3.060  16.614  23.486  0.1976  0.1669  0.2156
11204W        W54142   1.396  16.064  20.582 -0.0094  0.0146 -0.0728
11205W        W54143   0.367  14.771  22.404  0.3781  0.2044 -0.1110
11206W        W54144   0.658  14.885  20.010 -0.1750 -0.0131  0.0456
11207W        W54145   2.515  15.829  19.859  0.0783  0.2148 -0.1935
11208W        W54146   0.464  19.299  19.368  0.0179 -0.0136 -0.1170
11209W        W54147   0.465  14.526  21.239 -0.2387 -0.0733  0.0120
11210W        W54148   1.948  15.559  21.838  0.3260 -0.3748 -0.1979
11211W        W54149   0.890  15.086  23.975 -0.1760  0.0150  0.1882
11212W        W54150   1.889  15.726  23.744 -0.2274 -0.1151  0.2162
11213W        W54151   2.857  16.994  19.955  0.3106 -0.3444 -0.0644
11214W        W54152   2.958  15.289  22.208 -0.0821 -0.0099 -0.3068
11215W        W54153   0.079  17.079  19.969  0.1586 -0.1558 -0.2397
11216W        W54154   1.286  13.897  22.653  0.3950 -0.0078 -0.5098
11217W        W54155   1.449  16.696  23.684 -0.3501 -0.2088 -0.3478
11218W        W54156   0.423  17.225  22.322 -0.0512 -0.1409 -0.0281
11219W        W54157   3.369  16.953  23.704 -0.0081  0.0701 -0.0480
11220W        W54158   1.616  16.493  20.173  0.0504 -0.4103  0.1341
11221W        W54159   3.060  14.560  24.473  0.0474 -0.1531  0.1691
11222W        W54160   0.149  15.647  19.590 -0.1404 -0.0138  0.1621
11223W        W54161   0.841  17.883  21.541 -0.0333 -0.3099  0.0229
11224W        W54162   0.311  17.300  21.764 -0.2010  0.2492  0.1776
11225W        W54163   1.257  14.427  22.417  0.4118  0.1031  0.0085
11226W        W54164   1.100  18.096  23.875 -0.1975 -0.2298  0.0104
11227W        W54165  34.117  17.953  18.526  0.0181  0.1305 -0.0279
11228W        W54166   2.589  17.378  24.993 -0.0328 -0.0823 -0.1877
11229W        W54167   0.402  18.087  20.259 -0.0170 -0.4452 -0.1419
11230W        W54168   1.865  13.977  22.081  0.3725  0.2479  0.1495
11231W        W54169  34.560  17.510  21.588 -0.2214 -0.0836 -0.2297
11232W        W54170   1.408  16.631  21.151 -0.0801 -0.3087  0.2197
11233W        W54171  33.452  16.514  22.063 -0.3390  0.1938 -0.1268
11234W        W54172   4.265  15.939  20.382  0.2244 -0.1543 -0.4384
11235W        W54173   3.005  15.948  20.395  0.0510 -0.0959 -0.1264
11236W        W54174  34.620  15.686  23.556  0.2416 -0.0822 -0.1873
11237W        W54175   1.246  12.781  21.403 -0.1532  0.1737  0.0404
11238W        W54176   1.335  18.124  22.857 -0.2804  0.3112 -0.0683
11239W        W54177   1.494  15.252  22.897 -0.0856 -0.1386  0.1670
11240W        W54178   1.691  14.400  21.037  0.0719 -0.1072  0.0248
11241W        W54179   3.896  17.166  21.548 -0.2066 -0.1721 -0.1382
11242W        W54180   3.203  16.819  24.583  0.1574 -0.1893 -0.1516
11243W        W54181   0.685  14.316  21.656  0.1188  0.2164 -0.1738
11244W        W54182   2.547  15.134  22.591 -0.0965 -0.0921 -0.0899
11245W        W54183   0.067  15.508  21.849 -0.2842 -0.3802  0.0422
11246W        W54184  34.593  17.312  20.591  0.0255 -0.1301  0.1649
11247W        W54185   0.325  18.616  21.993  0.4046  0.3218 -0.2991
11248W        W54186   0.935  14.043  20.742  0.1948  0.0269  0.0917
11249W        W54187   0.622  18.050  20.719  0.1177 -0.4040  0.1386
11250W        W54188   1.714  14.105  22.503  0.0255  0.1727 -0.0215
11251W        W54189   2.818  16.785  22.462 -0.1680 -0.1755 -0.0200
11252W        W54190   1.728  15.733  21.220  0.1269 -0.0790  0.1246
11253W        W54191   1.274  15.614  21.527 -0.1383  0.0388  0.0644
11254W        W54192   1.818  15.973  22.341 -0.0625 -0.0450  0.0634
11255W        W54193   2.634  17.060  22.072  0.2279 -0.0321 -0.0669
11256W        W54194   2.495  14.339  24.525  0.2229  0.1566  0.3090
11257W        W54195   0.332  17.476  25.102 -0.0445 -0.2049  0.1173
11258W        W54196   1.548  13.606  22.313  0.0240  0.0174 -0.0781
11259W        W54197   3.351  18.239  19.466  0.0161  0.2878 -0.0961
11260W        W54198   4.033  16.159  23.746  0.1717  0.2378 -0.0047
11261W        W54199   0.292  18.192  21.731  0.0848 -0.3235 -0.0777
11262W        W54200   1.179  16.446  22.922  0.0605  0.0785 -0.3073
11263W        W54201   1.378  16.363  22.090 -0.0396  0.1601 -0.0576
11264W        W54202   0.396  15.424  22.209 -0.2476 -0.2989  0.2995
11265W        W54203   2.763  18.049  21.239 -0.1587  0.3185 -0.1019
11266W        W54204   0.292  16.400  21.330  0.1210 -0.0374 -0.1032
11267W        W54205   0.940  16.536  23.863 -0.0051  0.2317  0.0186
11268W        W54206   3.495  13.315  20.824  0.2478  0.3993  0.0348
11269W        W54207   1.207  14.969  19.979  0.2352 -0.1506 -0.0446
11270W        W54208   1.264  15.902  22.390  0.0927  0.1712  0.2131
11271W        W54209   2.389  14.313  21.886 -0.2524  0.1714  0.0505
11272W        W54210   2.165  15.609  18.983  0.4108 -0.0808  0.0631
11273W        W54211   0.962  16.516  25.520  0.1789 -0.2919  0.2409
11274W        W54212   0.370  14.748  23.064 -0.2388  0.0528 -0.2517
11275W        W54213   2.188  15.066  21.248 -0.2042 -0.0632  0.2025
11276W        W54214   1.796  16.751  22.754  0.0358 -0.2444 -0.1710
11277W        W54215   2.030  17.868  24.159  0.0944 -0.0423  0.0353
11278W        W54216   0.654  17.758  23.863 -0.2531  0.1264  0.1184
11279W        W54217   1.715  15.309  21.450  0.0361 -0.0458 -0.0190
11280W        W54218  34.615  13.835  20.739 -0.2134 -0.0753 -0.1933
11281W        W54219   2.190  15.552  23.372 -0.2858  0.0042  0.2222
11282W        W54220   2.809  18.332  22.681 -0.2028 -0.0666 -0.0221
11283W        W54221   1.966  17.476  21.038  0.0664 -0.1559  0.1774
11284W        W54222   3.715  15.009  19.191  0.0014  0.1580 -0.0088
11285W        W54223   1.841  17.040  23.192  0.0736 -0.2932 -0.0900
11286W        W54224   1.896  16.276  21.825 -0.1553  0.4424 -0.3289
11287W        W54225   1.372  16.885  20.374 -0.3254  0.0474  0.0941
11288W        W54226   0.819  17.125  21.782  0.2370  0.1836  0.0833
11289W        W54227   1.524  15.978  23.886 -0.3449  0.1465  0.1468
11290W        W54228   1.884  15.587  22.876 -0.2329 -0.0886  0.0825
11291W        W54229   1.907  16.138  20.410  0.0231  0.4109 -0.1284
11292W        W54230   0.958  16.012  22.913 -0.0986  0.0273  0.1658
11293W        W54231   1.972  15.119  22.684  0.2757 -0.1521  0.2194
11294W        W54232   1.333  15.936  23.427  0.1244 -0.1718 -0.0981
11295W        W54233   1.413  15.189  21.907 -0.0864  0.0364 -0.1298
11296W        W54234   2.002  18.977  21.718  0.2879 -0.0242 -0.1868
11297W        W54235   1.693  16.307  19.616 -0.0336  0.2217  0.0024
11298W        W54236   2.714  14.754  22.331  0.0659  0.1501  0.2583
11299W        W54237   2.467  15.353  22.115  0.1522  0.3230  0.1873
11300W        W54238   0.742  16.715  20.619 -0.2175 -0.0649  0.0119
11301W        W54239   0.015  15.897  22.163  0.0616 -0.0491 -0.3623
11302W        W54240   2.185  15.079  23.683  0.2388 -0.0765  0.1604
11303W        W54241   0.332  14.120  20.866  0.2213 -0.2465 -0.1565
11304W        W54242   3.335  13.706  24.743 -0.0060 -0.2650  0.2905
11305W        W54243   0.999  18.300  20.374  0.0640 -0.4050  0.1301
11306W        W54244   2.044  16.531  21.357 -0.0976 -0.0021  0.0592
11307W        W54245   2.891  15.416  20.377  0.1914  0.0468  0.1229
11308W        W54246  34.457  16.516  21.356 -0.1954  0.0874  0.1109
11309W        W54247   0.472  17.194  22.886 -0.2286 -0.1088 -0.0335
11310W        W54248   0.712  15.193  20.739 -0.0889  0.0415  0.1238
11311W        W54249   1.523  17.295  21.231 -0.2428 -0.5749 -0.2683
11312W        W54250   0.825  16.758  23.068  0.2882 -0.0249 -0.1088
11313W        W54251   2.702  14.806  23.584 -0.1871  0.2469 -0.0456
11314W        W54252   1.436  13.208  21.601 -0.0608 -0.1914  0.1515
11315W        W54253   4.220  16.027  22.487  0.1094  0.2288 -0.5767
11316W        W54254   0.449  18.619  20.095  0.0335  0.2669 -0.0133
11317W        W54255   1.543  13.669  21.671 -0.3067 -0.0749 -0.2120
11318W        W54256   1.887  17.882  23.472  0.0934  0.0061 -0.0148
11319W        W54257   0.111  15.873  23.130 -0.2119  0.5552  0.0626
11320W        W54258   1.676  18.489  22.682  0.1217 -0.1038  0.0639
11321W        W54259   1.404  14.828  22.668  0.0948  0.0898 -0.1595
11322W        W54260   1.849  14.615  22.562  0.2934 -0.0875  0.0357
11323W        W54261   0.621  16.133  22.612 -0.1631 -0.2450 -0.2321
11324W        W54262   2.604  15.954  22.398 -0.0114 -0.1184  0.0007
11325W        W54263   2.260  18.009  22.868  0.0915  0.0855  0.2136
11326W        W54264  34.511  15.987  22.664  0.3447 -0.0339  0.2108
11327W        W54265   2.739  17.861  21.724 -0.0806 -0.3752  0.0622
11328W        W54266   1.918  16.100  20.967 -0.1115  0.0124 -0.1899
11329W        W54267   1.479  19.307  24.414 -0.0788  0.1889  0.0205
11330W        W54268  33.836  15.092  22.613  0.0457  0.1147 -0.0114
11331W        W54269   2.272  16.472  23.906  0.1124  0.0311  0.0305
11332W        W54270   0.568  17.404  20.120 -0.0702 -0.3062  0.1231
11333W        W54271   0.994  14.830  20.489  0.2061 -0.2699 -0.3188
11334W        W54272   2.541  16.586  20.119  0.1428  0.1400  0.1338
11335W        W54273   1.144  18.433  24.671 -0.2000  0.0722  0.0216
11336W        W54274  34.154  16.305  23.044  0.0829  0.1103 -0.0074
11337W        W54275  34.600  17.837  20.509  0.1132 -0.1934  0.1722
11338W        W54276   1.127  16.504  20.263 -0.1146  0.2200  0.0552
11339W        W54277   2.611  17.785  20.814  0.1863  0.3702 -0.0815
11340W        W54278   1.537  18.989  22.615 -0.0218  0.4254  0.1031
11341W        W54279   1.212  17.539  20.947  0.0347 -0.2103  0.0550
11342W        W54280   1.217  17.417  22.762 -0.2386  0.1240 -0.3686
11343W        W54281  33.808  17.186  20.341  0.1658  0.0547 -0.2794
11344W        W54282   2.095  17.912  20.781 -0.0586  0.2436 -0.1660
11345W        W54283   0.410  18.554  20.798 -0.1898  0.1385  0.0413
11346W        W54284   1.924  17.367  23.572  0.3228 -0.0079  0.0149
11347W        W54285   2.072  14.531  21.420 -0.0037  0.3899 -0.2299
11348W        W54286   3.554  17.310  22.328  0.0413  0.0815  0.0614
11349W        W54287   3.486  14.474  19.238 -0.4370 -0.1380  0.1252
11350W        W54288   1.835  18.438  24.355  0.4372 -0.4395  0.1318
11351W        W54289   2.008  15.090  21.877 -0.1123 -0.2481  0.0521
11352W        W54290   2.148  12.625  19.076 -0.1664 -0.1707  0.0206
11353W        W54291  34.484  16.471  24.029  0.0988  0.0273 -0.1442
11354W        W54292   2.847  13.868  23.742 -0.0557  0.0842  0.1298
11355W        W54293   0.546  18.562  23.908 -0.0831  0.0700 -0.1620
11356W        W54294   2.237  18.831  20.659  0.1913  0.2371 -0.1333
11357W        W54295   0.830  15.319  21.284  0.3371  0.1612  0.1422
11358W        W54296   0.532  16.716  21.625 -0.0042 -0.2546  0.3261
11359W        W54297   3.461  14.060  23.097  0.1662 -0.1962  0.1989
11360W        W54298   1.732  17.014  20.014  0.5717 -0.1071  0.0994
11361W        W54299   2.061  13.509  21.511  0.4736  0.0710 -0.1569
11362W        W54300   1.715  17.620  20.612 -0.1324 -0.5367 -0.2529
11363W        W54301   1.455  17.576  23.250  0.1178  0.3654  0.1861
11364W        W54302   1.603  19.855  24.462  0.1816  0.0592  0.0717
11365W        W54303   0.992  15.657  22.014 -0.1129  0.1109  0.2095
11366W        W54304   2.448  16.233  21.114 -0.3568  0.0852 -0.0668
11367W        W54305   1.747  14.678  23.089  0.2862  0.3346  0.1866
11368W        W54306   2.323  14.736  22.815  0.1313 -0.0825 -0.0269
11369W        W54307   1.251  15.092  21.494  0.0289  0.0023  0.0093
11370W        W54308   2.685  15.879  20.809 -0.3321 -0.2987  0.4408
11371W        W54309   2.332  17.056  22.923 -0.2891  0.1072  0.1218
11372W        W54310   2.523  16.466  22.651  0.1840  0.0077 -0.2625
11373W        W54311   1.556  17.091  20.799 -0.3343 -0.0932  0.1787
11374W        W54312   1.270  14.601  21.331  0.2815  0.0365 -0.1102
11375W        W54313   2.978  15.539  18.986 -0.0466  0.3462  0.0399
11376W        W54314   3.037  16.534  22.854 -0.3464  0.1746 -0.1849
11377W        W54315   0.070  15.974  21.129  0.1111  0.1310  0.0551
11378W        W54316   2.297  15.691  21.043 -0.2520 -0.1570  0.4021
11379W        W54317  34.454  16.681  22.906  0.0071 -0.2196 -0.1305
11380W        W54318   1.702  14.814  23.541  0.1873  0.0683 -0.0915
11381W        W54319   4.276  17.215  24.106  0.2664  0.2639 -0.3630
11382W        W54320   0.798  15.764  21.575 -0.0192  0.0018 -0.2514
11383W        W54321   2.315  16.461  20.685  0.5081 -0.0622 -0.0724
11384W        W54322   2.340  13.871  22.103  0.0572 -0.0983 -0.1838
11385W        W54323   1.398  17.982  21.476 -0.2259  0.1855 -0.1239
11386W        W54324   2.916  15.303  21.221 -0.0118 -0.2989 -0.1903
11387W        W54325   2.294  18.359  21.413  0.3736  0.1669 -0.1440
11388W        W54326  34.608  15.138  24.399 -0.4815 -0.0412 -0.1441
11389W        W54327   3.360  18.556  20.027  0.4028  0.3327  0.0419
11390W        W54328   1.763  17.224  21.864 -0.3551  0.0735 -0.1389
11391W        W54329   2.389  13.710  20.519  0.1485  0.1034  0.0611
11392W        W54330   0.510  15.562  22.965 -0.0981  0.0208 -0.0036
11393W        W54331  34.122  17.629  20.657  0.0529 -0.0496  0.3764
11394W        W54332   3.335  14.305  21.465 -0.0056 -0.0169 -0.1920
11395W        W54333   2.649  13.670  22.454  0.0172 -0.0919 -0.0269
11396W        W54334   2.130  18.422  20.339  0.0896  0.5148  0.0162
11397W        W54335   1.154  15.522  23.710  0.3857  0.4179 -0.2434
11398W        W54336   1.387  16.924  22.609  0.0301  0.0814  0.2335
11399W        W54337   1.138  19.565  25.656  0.0556 -0.0770  0.1592
11400W        W54338   0.068  17.893  19.343 -0.3232  0.0422  0.0226
11401W        W54339   1.882  15.927  23.243  0.5403 -0.0584  0.1964
11402W        W54340   0.864  17.047  22.612  0.0727 -0.0608  0.4414
11403W        W54341   2.518  17.499  21.226  0.2173 -0.4210 -0.1729
11404W        W54342   2.714  15.992  21.552  0.0084 -0.1503  0.0153
11405W        W54343   1.608  16.198  21.388 -0.0971  0.1974  0.1680
11406W        W54344   2.238  17.586  20.410 -0.1058 -0.2326  0.1595
11407W        W54345   1.091  14.910  21.012 -0.1993  0.3856  0.0160
11408W        W54346   4.799  14.139  21.058 -0.0397  0.2177  0.1662
11409W        W54347   3.373  13.780  20.723  0.0353 -0.0783 -0.1389
11410W        W54348   1.284  16.929  24.100  0.0534  0.2092 -0.0730
11411W        W54349   0.259  16.894  20.556 -0.0634 -0.2296  0.3616
11412W        W54350   1.109  18.533  19.551  0.1625  0.1060 -0.0913
11413W        W54351   2.533  16.710  23.532 -0.0685  0.1173 -0.0652
11414W        W54352   1.225  15.365  22.419 -0.2000  0.0237 -0.1321
11415W        W54353   1.648  16.405  23.117 -0.0743  0.1726  0.0065
11416W        W54354   2.277  17.534  22.622  0.4491 -0.3073  0.1058
11417W        W54355  34.650  16.172  19.264 -0.1469 -0.0514 -0.1270
11418W        W54356   1.721  16.555  20.621  0.0268 -0.2809 -0.2845
11419W        W54357   1.278  15.081  23.398 -0.0451  0.0656 -0.0737
11420W        W54358  34.095  15.069  21.281  0.2466  0.1755  0.0474
11421W        W54359   2.953  17.168  21.187 -0.0216  0.0705 -0.2004
11422W        W54360   3.344  17.672  19.541 -0.0698  0.1175 -0.4343
11423W        W54361   1.506  15.990  20.127  0.1619 -0.0708  0.1556
11424W        W54362   2.699  17.813  22.672 -0.1660 -0.0634  0.1108
11425W        W54363  33.040  17.878  21.150  0.3159 -0.0764 -0.0717
11426W        W54364   1.728  15.415  22.312 -0.1737  0.1837 -0.0974
11427W        W54365   0.798  15.669  22.512  0.2658 -0.4169  0.0443
11428W        W54366   0.453  15.031  19.517  0.0632  0.1754  0.1294
11429W        W54367   3.225  15.611  20.716  0.1562 -0.0702  0.0306
11430W        W54368   2.636  18.429  21.810 -0.3872 -0.1108 -0.0993
11431W        W54369   3.002  19.709  20.802 -0.1890  0.1706 -0.3120
11432W        W54370   2.027  16.207  22.757  0.1607  0.1861 -0.0978
11433W        W54371   1.398  17.445  24.243  0.2607 -0.1618 -0.2637
11434W        W54372  34.472  14.912  22.593 -0.1184 -0.2070  0.3014
11435W        W54373   2.441  16.093  20.368 -0.1253  0.1468  0.2882
11436W        W54374   1.784  18.163  23.047 -0.2061 -0.0880 -0.1120
11437W        W54375   2.599  16.871  19.481  0.1586  0.0135  0.0456
11438W        W54376   2.387  14.581  21.082  0.2353  0.2142  0.3694
11439W        W54377   1.303  16.489  19.260  0.0383 -0.1135  0.0556
11440W        W54378   0.817  15.017  24.933  0.1181  0.3203  0.1378
11441W        W54379   0.878  17.260  23.175  0.0510 -0.1791  0.1248
11442W        W54380   2.381  16.371  21.704 -0.0239  0.1982  0.0710
11443W        W54381   1.653  14.909  22.262 -0.5111 -0.2002  0.0076
11444W        W54382   1.545  15.064  20.757 -0.0320 -0.2151  0.0392
11445W        W54383   2.206  17.557  19.358 -0.2522 -0.1134  0.0244
11446W        W54384   0.722  15.110  22.512  0.1266  0.0039  0.0078
11447W        W54385   0.359  15.353  20.267  0.2063  0.1372 -0.2586
11448W        W54386   1.907  16.468  23.553  0.1628 -0.0598 -0.1605
11449W        W54387   0.151  16.287  22.768 -0.0782  0.1360  0.0720
11450W        W54388   2.304  15.990  23.597 -0.0967  0.3482  0.0879
11451W        W54389   1.193  16.962  21.527 -0.2638 -0.0999 -0.2367
11452W        W54390   3.066  16.110  21.046  0.0220 -0.0188 -0.1873
11453W        W54391   2.780  17.647  23.621 -0.1761 -0.0786  0.0274
11454W        W54392   2.598  18.708  24.901  0.2461 -0.4389  0.2806
11455W        W54393   1.793  18.383  25.191  0.2935  0.4694  0.0383
11456W        W54394   2.746  15.762  21.970 -0.2124 -0.2646  0.0392
11457W        W54395  34.659  13.515  23.021  0.0162  0.2227 -0.0742
11458W        W54396   0.480  16.647  22.705 -0.0885 -0.1586  0.0830
11459W        W54397   1.350  16.893  22.105  0.1585  0.0828 -0.0199
11460W        W54398   2.682  14.046  22.920  0.0619  0.0376  0.0773
11461W        W54399   1.104  14.082  21.662 -0.0739 -0.1794 -0.0900
11462W        W54400   2.146  14.473  20.262 -0.1273  0.0723  0.3846
11463W        W54401   1.897  17.216  22.626  0.0118  0.1986 -0.0965
11464W        W54402   2.403  15.523  21.552  0.2539  0.1830  0.1400
11465W        W54403   1.552  17.910  27.284 -0.0533  0.0788 -0.1249
11466W        W54404   0.172  16.596  25.084  0.0120  0.2703 -0.3362
11467W        W54405   2.865  15.577  22.622 -0.0705  0.2613 -0.0089
11468W        W54406   1.417  16.634  25.434 -0.0710  0.0946  0.1636
11469W        W54407   0.263  14.972  24.693 -0.1265  0.3357 -0.0646
11470W        W54408   3.669  16.918  25.489  0.1033  0.0827 -0.0500
11471W        W54409   1.818  14.396  27.442 -0.0054  0.0939  0.0177
11472W        W54410   1.597  19.142  24.920 -0.0009  0.4672  0.0985
11473W        W54411   4.304  17.074  27.465  0.3044  0.0138  0.1752
11474W        W54412   1.921  15.170  23.217  0.1827 -0.0646  0.2880
11475W        W54413   1.862  15.358  27.016 -0.0862  0.2083 -0.0043
11476W        W54414   1.950  17.780  27.608  0.1459 -0.3655 -0.0512
11477W        W54415   1.444  15.453  24.246 -0.1942  0.3913 -0.1377
11478W        W54416  34.677  14.847  25.403 -0.0876  0.0353  0.1312
11479W        W54417   1.937  14.888  26.376  0.0902 -0.1230  0.0454
11480W        W54418   1.139  16.431  24.607  0.0605  0.1754  0.1741
11481W        W54419   1.381  15.699  26.327 -0.2497  0.1572 -0.2403
11482W        W54420   1.462  14.807  25.160  0.0686  0.0525 -0.1128
11483W        W54421   2.316  17.834  24.541 -0.1384 -0.0752  0.0746
11484W        W54422   2.334  15.123  28.284  0.1529 -0.3626 -0.4046
11485W        W54423   3.636  14.552  26.423  0.0551  0.0272  0.1736
11486W        W54424   1.430  17.228  23.668 -0.2115 -0.1765 -0.0308
11487W        W54425   0.932  15.535  25.026  0.0964 -0.2466  0.0229
11488W        W54426  34.620  16.063  26.615 -0.0343  0.1195  0.3221
11489W        W54427   1.572  15.626  27.355  0.0443  0.0997  0.3843
11490W        W54428   2.590  15.759  27.021  0.1053 -0.1941  0.2219
11491W        W54429   4.710  16.376  26.984  0.1288  0.2973 -0.0885
11492W        W54430   1.840  18.489  26.317  0.3639  0.2056  0.1808
11493W        W54431   3.825  17.441  26.118 -0.2334  0.0023 -0.2719
11494W        W54432   2.782  16.012  28.267 -0.1083  0.0225  0.0055
11495W        W54433   0.277  17.454  24.512 -0.4721 -0.2265  0.1724
11496W        W54434  34.244  19.120  25.093  0.4295 -0.1529 -0.0369
11497W        W54435   0.258  16.881  24.352  0.1918  0.0768  0.0795
11498W        W54436   4.125  17.749  24.873  0.1434 -0.1617 -0.1084
11499W        W54437   4.136  16.474  26.826 -0.2128  0.1827 -0.1369
11500W        W54438   1.564  19.016  28.024  0.2444  0.1089 -0.2251
11501W        W54439   1.609  17.656  25.938  0.1981 -0.0458 -0.0788
11502W        W54440   2.744  18.486  26.648 -0.2148 -0.1960 -0.4910
11503W        W54441   2.552  17.243  26.965 -0.1599 -0.1312  0.2377
11504W        W54442   1.546  16.050  27.110  0.0088  0.3109  0.1850
11505W        W54443   0.150  17.595  25.707  0.0833  0.0148 -0.2699
11506W        W54444   0.285  16.042  24.536  0.0807 -0.0969 -0.0455
11507W        W54445   1.405  16.674  26.025  0.1884 -0.0770  0.2110
11508W        W54446   2.012  16.359  27.250  0.2091 -0.1866  0.2322
11509W        W54447   2.484  18.295  25.804 -0.2333  0.0555  0.0041
11510W        W54448   3.130  15.659  26.995 -0.1162 -0.0059  0.0696
11511W        W54449   0.313  17.926  24.840  0.0188 -0.1774 -0.0933
11512W        W54450   2.445  15.537  23.858  0.0131 -0.4254  0.0317
11513W        W54451   1.599  16.291  24.727  0.1219 -0.1993  0.1754
11514W        W54452   1.681  15.804  24.884  0.1901 -0.2624  0.0572
11515W        W54453   1.539  14.521  26.073 -0.0109 -0.1123 -0.1595
11516W        W54454   1.262  19.039  25.655 -0.1346 -0.1491  0.0812
11517W        W54455   0.326  15.908  27.097 -0.2305 -0.3026 -0.0894
11518W        W54456   5.175  16.715  27.728  0.2389  0.2618  0.3020
11519W        W54457   0.295  16.403  24.191  0.3757  0.0126 -0.0805
11520W        W54458   1.409  16.161  25.530 -0.0510 -0.5555  0.1865
11521W        W54459   0.874  17.563  26.659 -0.1535  0.0901  0.1870
11522W        W54460   1.596  16.815  26.566 -0.2282 -0.2973 -0.0524
11523W        W54461   2.413  17.830  25.229  0.2184  0.0769  0.0371
11524W        W54462   5.281  17.546  25.542 -0.1663 -0.1155  0.1007
11525W        W54463   2.673  18.121  26.305  0.0410 -0.0224  0.1340
11526W        W54464   1.273  16.286  25.104 -0.2985  0.2663  0.2956
11527W        W54465   0.833  16.873  28.150 -0.1052 -0.1386  0.0337
11528W        W54466   0.511  15.857  26.575  0.0709 -0.2204 -0.0465
11529W        W54467   0.745  14.422  24.929 -0.1033  0.3352  0.1269
11530W        W54468   2.551  17.586  28.942  0.0246  0.2403 -0.0681
11531W        W54469  34.639  17.324  26.323  0.2515  0.2457 -0.1038
11532W        W54470   3.444  15.892  25.863  0.1420  0.0230 -0.2179
11533W        W54471   2.781  17.279  25.930  0.0349 -0.1944 -0.0220
11534W        W54472   2.715  15.594  25.263  0.2278 -0.0126  0.1512
11535W        W54473   1.986  17.117  24.554 -0.1775 -0.0337  0.2724
11536W        W54474   1.829  14.410  26.482  0.3648  0.0204 -0.3370
11537W        W54475   3.185  14.786  26.508  0.0865  0.0893 -0.0350
11538W        W54476  33.706  16.927  24.011 -0.0635  0.2247 -0.1928
11539W        W54477   0.480  17.284  26.036  0.1238  0.0390 -0.0389
11540W        W54478   3.343  16.404  25.319 -0.1832 -0.1709  0.0716
11541W        W54479   2.830  15.360  23.549  0.0483  0.3158 -0.1890
11542W        W54480  34.359  18.257  23.966  0.0105  0.1201  0.1401
11543W        W54481   2.708  15.291  26.881 -0.0955  0.0536 -0.1133
11544W        W54482   2.238  18.072  28.256  0.1167 -0.0535  0.1551
11545W        W54483   1.022  17.797  24.261  0.0018  0.0817 -0.2137
11546W        W54484   0.775  17.703  26.142  0.1662  0.0049  0.2816
11547W        W54485  33.104  16.888  24.085  0.0261  0.1111  0.0600
11548W        W54486   0.007  15.578  26.668 -0.0465  0.1767 -0.0295
11549W        W54487   0.525  16.724  25.368 -0.2775 -0.1702 -0.4271
11550W        W54488   2.259  15.918  25.242 -0.1843 -0.0141 -0.0131
11551W        W54489   0.393  16.176  28.675  0.2756  0.0568 -0.1630
11552W        W54490   2.624  14.856  24.562  0.0671  0.2841  0.4347
11553W        W54491   0.530  17.849  24.330  0.1633 -0.0407  0.3660
11554W        W54492   3.968  17.846  25.853 -0.1202  0.0767 -0.1383
11555W        W54493   2.497  15.350  24.423  0.4803  0.1701 -0.1018
11556W        W54494   2.635  16.283  23.287 -0.1307  0.4368  0.0554
11557W        W54495   0.979  16.208  27.921  0.0661 -0.4066  0.3149
11558W        W54496   0.540  15.693  25.345  0.0944 -0.3678 -0.0989
11559W        W54497   1.559  15.542  28.862 -0.0446  0.1408 -0.1811
11560W        W54498   0.020  14.207  25.451  0.1286 -0.0483  0.0048
11561W        W54499   3.436  15.830  27.395  0.0987  0.0161  0.0066
11562W        W54500  34.505  14.229  23.730 -0.0647  0.1426  0.2208
11563W        W54501   1.922  15.504  24.523  0.1168 -0.3122 -0.0869
11564W        W54502   0.918  18.235  25.582 -0.2292 -0.1654 -0.5013
11565W        W54503  33.887  16.305  25.225 -0.0332 -0.0468 -0.0842
11566W        W54504   2.882  15.878  27.382 -0.3593  0.1443 -0.1050
11567W        W54505   2.742  18.765  25.366 -0.1806  0.2288 -0.1410
11568W        W54506   4.004  16.735  27.731  0.2262 -0.6043 -0.1192
11569W        W54507   3.629  18.513  25.322  0.0929 -0.1064 -0.0554
11570W        W54508   1.201  14.997  28.359 -0.0998 -0.1034  0.1738
11571W        W54509  34.574  15.421  23.969  0.1532 -0.0128 -0.1630
11572W        W54510  34.107  19.090  26.553 -0.1197  0.0820 -0.3678
11573W        W54511   2.227  18.795  25.390  0.0847  0.3899 -0.1047
11574W        W54512   1.216  15.856  24.719  0.1939 -0.1832  0.0189
11575W        W54513   3.442  19.229  25.967 -0.1182  0.1435  0.1132
11576W        W54514   1.927  17.661  25.501 -0.0288 -0.0010 -0.0682
11577W        W54515   1.390  15.522  26.865  0.0316 -0.1058 -0.4136
11578W        W54516   3.757  14.067  26.415  0.2931 -0.0589  0.0027
11579W        W54517   3.855  16.095  25.630 -0.0037  0.0788 -0.1933
11580W        W54518   1.579  17.371  27.132 -0.1575 -0.2561 -0.1342
11581W        W54519   1.089  15.557  23.053  0.0628  0.0868 -0.3412
11582W        W54520   3.314  18.143  25.702 -0.0965 -0.5136 -0.0029
11583W        W54521   1.651  18.921  24.063  0.3122  0.3011 -0.0045
11584W        W54522  34.280  16.149  26.976 -0.3500  0.1588  0.2430
11585W        W54523   1.598  18.134  23.830  0.4613 -0.2133 -0.0764
11586W        W54524   3.411  14.867  26.093 -0.0112 -0.2849 -0.4254
11587W        W54525   1.341  16.300  26.366  0.0617  0.2327 -0.0394
11588W        W54526   2.187  16.686  26.605 -0.0035 -0.0126 -0.0061
11589W        W54527  34.548  15.335  24.887  0.4675  0.2586 -0.0258
11590W        W54528   0.908  15.504  26.687  0.2306  0.0009 -0.2013
11591W        W54529   2.301  16.476  25.450  0.2628 -0.0494 -0.0489
11592W        W54530   3.068  16.085  24.442  0.0252  0.0149 -0.1001
11593W        W54531   2.982  16.057  26.122  0.3648 -0.2085 -0.1246
11594W        W54532   3.686  15.648  26.736  0.2148 -0.2797 -0.4324
11595W        W54533   2.593  15.100  23.949 -0.1816 -0.0168 -0.1121
11596W        W54534   1.659  14.971  24.616 -0.2659  0.2439 -0.0531
11597W        W54535   2.421  17.675  26.405  0.1920  0.2538 -0.3662
11598W        W54536   2.436  15.799  26.136  0.1293 -0.1186  0.1522
11599W        W54537   1.741  17.370  26.474  0.1946  0.0048  0.2626
11600W        W54538   1.771  16.845  24.063  0.2054 -0.1739  0.1387
11601W        W54539   3.781  17.106  24.160  0.5010 -0.1206  0.1895
11602W        W54540   0.814  16.359  26.517  0.1140 -0.0859 -0.2400
11603W        W54541   3.273  16.900  26.433 -0.1739 -0.0312 -0.1597
11604W        W54542   3.499  15.889  25.379  0.0613  0.1476  0.0845
11605W        W54543   2.007  14.886  27.208  0.1718  0.2463 -0.0807
11606W        W54544   1.230  18.042  25.072 -0.0154  0.2412  0.1847
11607W        W54545   0.955  13.904  25.751 -0.5295 -0.1533  0.1740
11608W        W54546   0.738  18.731  24.616 -0.2202  0.0289  0.3108
11609W        W54547   2.631  14.836  27.543  0.2039 -0.2506 -0.1068
11610W        W54548   0.948  16.072  25.694  0.0218 -0.0988  0.0188
11611W        W54549   1.408  15.071  28.830  0.0960 -0.1875 -0.1860
11612W        W54550   3.275  15.050  27.890  0.0401 -0.0313  0.1598
11613W        W54551   1.893  16.711  24.891  0.0095  0.0882  0.1914
11614W        W54552   2.382  16.920  25.164  0.0812  0.1963 -0.1706
11615W        W54553   1.028  16.025  23.787 -0.0125 -0.0893 -0.1253
11616W        W54554   2.383  15.707  27.482 -0.1204 -0.0466 -0.0324
11617W        W54555   1.106  16.762  26.436 -0.0183  0.0652  0.0487
11618W        W54556  34.416  17.777  25.957 -0.0673 -0.0426 -0.3896
11619W        W54557   3.682  16.665  26.705  0.0254  0.0076 -0.2361
11620W        W54558   2.946  17.070  25.119 -0.1636 -0.3018 -0.4390
11621W        W54559   2.225  15.078  26.747 -0.2144 -0.0627  0.1222
11622W        W54560   1.361  15.373  24.771 -0.0211 -0.1194  0.2583
11623W        W54561   1.732  19.427  25.397 -0.1533  0.0427  0.3703
11624W        W54562   1.519  16.745  24.524  0.1523  0.1074 -0.2523
11625W        W54563   0.500  14.756  25.496 -0.3140 -0.3793  0.5679
11626W        W54564   2.933  15.867  26.619  0.0332 -0.0635 -0.0668
11627W        W54565   1.313  18.478  24.129  0.2983 -0.1441 -0.0789
11628W        W54566   2.114  17.267  26.777  0.2996  0.0465  0.1636
11629W        W54567   0.374  18.358  24.537  0.1078  0.1871 -0.0024
11630W        W54568   3.155  13.918  26.964  0.1201  0.1401  0.2954
11631W        W54569   1.343  18.434  26.183  0.1381  0.0284 -0.1459
11632W        W54570   0.856  16.069  25.193  0.0677  0.1159 -0.0749
11633W        W54571   0.439  16.989  24.770  0.0714  0.1092 -0.1214
11634W        W54572   2.688  14.867  26.578  0.0394  0.1969  0.0530
11635W        W54573   1.549  18.784  24.592  0.2114 -0.0172 -0.2489
11636W        W54574   0.418  15.027  27.209  0.1445 -0.1926 -0.1567
11637W        W54575   1.759  15.810  25.417 -0.1973  0.0853 -0.2003
11638W        W54576  34.066  17.796  25.612  0.0738 -0.1456  0.1031
11639W        W54577   1.843  17.025  25.906  0.0614 -0.1343  0.0970
11640W        W54578   2.286  15.136  25.328  0.1753 -0.1558  0.1975
11641W        W54579   4.530  16.725  26.675 -0.0347 -0.1566  0.2000
11642W        W54580   1.055  15.386  28.702 -0.2519 -0.2550 -0.3238
11643W        W54581  33.917  16.093  24.727 -0.3037 -0.0603 -0.0248
11644W        W54582   3.395  15.441  26.042 -0.1981  0.1966  0.0134
11645W        W54583   0.337  16.331  26.768  0.0078 -0.2837 -0.1294
11646W        W54584   1.294  17.612  24.724  0.0729 -0.2642 -0.0150
11647W        W54585   2.514  16.280  27.243  0.0933  0.0100 -0.0366
11648W        W54586   0.381  16.554  23.590 -0.1168 -0.0921 -0.1640
11649W        W54587   0.834  18.052  24.712  0.0973 -0.1282  0.0810
11650W        W54588   1.085  17.190  29.397 -0.0674 -0.0715 -0.0642
11651W        W54589   3.885  16.077  27.138  0.0439  0.2364  0.0112
11652W        W54590   1.793  15.241  25.576  0.0181  0.3437 -0.0585
11653W        W54591   0.307  16.091  25.103  0.2386  0.1378 -0.1233
11654W        W54592   1.835  16.568  26.192  0.1450  0.1985  0.1787
11655W        W54593   3.244  16.507  25.805  0.0505  0.0776  0.0740
11656W        W54594   1.814  15.585  25.985 -0.0525  0.2220  0.2423
11657W        W54595   2.160  17.585  29.223  0.1545 -0.1693 -0.0061
11658W        W54596   1.158  15.140  25.764  0.1335  0.0126 -0.1018
11659W        W54597   4.328  17.390  25.349 -0.2694 -0.2005 -0.0587
11660W        W54598   2.858  16.338  26.909 -0.3079 -0.0488 -0.1914
11661W        W54599  34.267  16.653  25.053  0.0723  0.4825  0.1183
11662W        W54600   1.344  17.075  27.459 -0.1640  0.1970 -0.1496
11663W        W54601   0.829  16.652  25.033  0.1992 -0.0588 -0.2794
11664W        W54602   0.813  15.078  26.962 -0.0689  0.3767 -0.0608
11665W        W54603   2.152  18.036  26.154  0.0350 -0.0740  0.0594
11666W        W54604   1.585  18.209  24.742  0.1678  0.3684  0.0362
11667W        W54605  34.465  17.651  27.434 -0.1629  0.0102  0.0090
11668W        W54606   3.503  14.197  24.514  0.2974 -0.0336  0.0084
11669W        W54607   1.478  15.979  22.904  0.2252 -0.2112 -0.1783
11670W        W54608   1.303  15.745  25.225 -0.2542 -0.1077  0.0620
11671W        W54609   3.519  14.784  26.864 -0.2013 -0.0099  0.1045
11672W        W54610   1.951  16.169  23.974  0.2943  0.1102  0.0130
11673W        W54611   2.745  13.879  26.637 -0.1948  0.1640 -0.5356
11674W        W54612   1.200  14.795  27.076 -0.0902 -0.2940 -0.0425
11675W        W54613   3.207  16.423  26.497 -0.0792  0.0355 -0.1497
11676W        W54614   0.782  14.741  27.423  0.2990 -0.0686 -0.0531
11677W        W54615   2.448  17.762  26.909  0.4803  0.1036 -0.2870
11678W        W54616   1.459  16.919  28.859  0.3593  0.1324 -0.2057
11679W        W54617   1.945  14.742  25.208  0.1843  0.3655 -0.1838
11680W        W54618   0.295  14.568  25.056  0.2334 -0.3403 -0.1390
11681W        W54619   1.717  15.851  26.656 -0.5007  0.1143  0.0018
11682W        W54620   2.763  16.565  25.234  0.2847  0.2023 -0.1874
11683W        W54621   1.601  17.675  23.837  0.2174 -0.0349 -0.0551
11684W        W54622   4.413  16.328  26.424 -0.2104  0.1195  0.3839
11685W        W54623   0.794  16.890  25.930  0.2020 -0.2297  0.1182
11686W        W54624   1.840  16.302  25.228  0.1293  0.0853  0.3906
11687W        W54625   1.552  17.228  24.918 -0.0432 -0.1464  0.0636
11688W        W54626   2.201  17.181  25.634 -0.1762 -0.0930  0.2203
11689W        W54627   0.089  14.051  27.837  0.2033 -0.1040 -0.3884
11690W        W54628   2.659  16.795  24.740  0.4443 -0.1505 -0.0981
11691W        W54629   2.613  15.244  25.828  0.1011 -0.2143  0.0585
11692W        W54630   2.754  15.950  28.894  0.2115  0.0217 -0.3154
11693W        W54631   3.732  15.201  27.719  0.0897  0.3689 -0.3998
11694W        W54632   1.121  15.851  27.204 -0.2357 -0.5190 -0.3141
11695W        W54633  34.128  15.182  26.259 -0.3349 -0.2441 -0.1410
11696W        W54634   3.753  18.486  26.980  0.0870 -0.1096 -0.0425
11697W        W54635   3.211  15.624  23.870  0.1099 -0.0811 -0.1049
11698W        W54636   5.362  15.429  26.496  0.1728 -0.3400  0.0297
11699W        W54637   2.496  14.771  25.526 -0.0446 -0.0389  0.0458
11700W        W54638   2.317  16.810  24.280 -0.1343  0.0390  0.4795
11701W        W54639  34.198  17.150  25.159  0.4633 -0.3132 -0.0181
11702W        W54640   3.308  15.395  27.555 -0.4022  0.1129  0.3192
11703W        W54641   0.904  15.390  24.473 -0.3539 -0.1767  0.3767
11704W        W54642   3.187  15.906  28.503 -0.2069 -0.0703 -0.2457
11705W        W54643   1.940  16.433  24.369 -0.2846  0.1704 -0.0712
11706W        W54644   2.440  17.087  26.357 -0.2115 -0.0414  0.4116
11707W        W54645   1.689  15.964  24.390  0.3257 -0.1022  0.1612
11708W        W54646  34.535  15.869  25.661 -0.1435 -0.0049 -0.2396
11709W        W54647   1.738  16.881  27.052 -0.1717  0.0538 -0.2657
11710W        W54648   0.050  15.671  25.238 -0.0862  0.0512 -0.0225
11711W        W54649   0.756  16.836  24.426  0.1354 -0.0782 -0.0603
11712W        W54650   3.119  17.031  25.655 -0.0980 -0.1414 -0.2481
11713W        W54651   3.834  17.422  27.963 -0.1347 -0.0787  0.3877
11714W        W54652   2.022  14.378  24.273  0.0402 -0.0719 -0.1125
11715W        W54653   3.431  15.861  26.369  0.0572  0.1758 -0.1030
11716W        W54654   0.859  17.596  25.054  0.1619  0.1892 -0.2702
11717W        W54655   2.476  14.759  25.036  0.3544  0.2902  0.3067
11718W        W54656   2.044  18.677  27.287 -0.5859 -0.2457  0.1351
11719W        W54657   0.402  17.637  26.471  0.2368 -0.1823 -0.0150
11720W        W54658   0.395  16.585  25.945  0.1108 -0.2686 -0.2574
11721W        W54659   2.523  14.333  26.749  0.0160 -0.1393  0.4154
11722W        W54660   2.689  15.209  24.929 -0.0638 -0.1664 -0.0581
11723W        W54661   2.066  16.101  26.352  0.4227 -0.0816  0.1643
11724W        W54662   4.502  15.506  27.282 -0.0486 -0.0597  0.2276
11725W        W54663   3.196  15.857  27.822 -0.1233  0.1239 -0.3349
11726W        W54664   2.258  15.763  26.637  0.2789 -0.1333 -0.3411
11727W        W54665   3.852  17.108  26.466 -0.0274  0.2876 -0.0686
11728W        W54666   3.986  16.193  27.596  0.0539  0.0791 -0.1222
11729W        W54667   1.218  18.059  25.913  0.2645 -0.0556  0.0734
11730W        W54668  34.651  15.435  27.861 -0.5955  0.0381  0.2817
11731W        W54669   1.971  16.761  28.099  0.1456  0.3300  0.1693
11732W        W54670   3.182  16.147  23.839  0.0119 -0.1421  0.1303
11733W        W54671   1.649  13.315  25.632 -0.2027 -0.0728 -0.3190
11734W        W54672   2.002  18.611  25.834 -0.1131 -0.1122 -0.0259
11735W        W54673   0.267  17.606  28.301 -0.0517 -0.0501  0.0995
11736W        W54674   0.440  16.704  26.432 -0.0972 -0.2297 -0.3206
11737W        W54675   0.818  18.423  25.089 -0.1978  0.2400 -0.1376
11738W        W54676   3.381  17.338  24.732  0.3247 -0.0409  0.0207
11739W        W54677   1.193  17.032  25.631  0.1616  0.1419  0.0883
11740W        W54678   3.566  18.052  26.739 -0.2275  0.0437  0.1895
11741W        W54679   1.310  16.393  24.175  0.2613  0.1652  0.1133
11742W        W54680  34.448  18.387  25.561 -0.1220  0.0719  0.4008
11743W        W54681   0.204  17.077  25.567 -0.3657  0.0313 -0.1230
11744W        W54682   2.785  15.661  24.179 -0.0817  0.0848  0.0289
11745W        W54683   2.813  17.349  26.457  0.2002 -0.3991  0.0454
11746W        W54684   1.678  17.329  27.986  0.0052  0.3310 -0.0649
11747W        W54685   3.647  15.359  23.621 -0.0534 -0.0989  0.2859
11748W        W54686   3.150  15.940  24.994  0.1953  0.1606  0.2994
11749W        W54687   2.476  17.358  24.407  0.0340  0.2053  0.1774
11750W        W54688   1.860  17.123  27.480  0.1921 -0.1184  0.1272
11751W        W54689   1.788  15.274  25.068 -0.0368  0.2693 -0.1097
11752W        W54690   1.251  13.696  25.365 -0.2173 -0.0305  0.3534
11753W        W54691   0.985  16.419  26.032 -0.0540 -0.0176  0.3909
11754W        W54692   4.766  15.794  27.711  0.0346  0.0690 -0.3009
11755W        W54693   0.361  18.066  28.383 -0.1577  0.1532  0.4943
11756W        W54694   1.740  17.828  25.055  0.0630 -0.1281  0.0155
11757W        W54695   0.001  17.087  25.115 -0.0660  0.1648 -0.1567
11758W        W54696   1.129  17.069  24.627  0.1535  0.1036 -0.0983
11759W        W54697   4.495  13.875  26.101 -0.1258  0.0186  0.2256
11760W        W54698   2.093  16.042  24.738 -0.0227 -0.0646  0.1335
11761W        W54699   2.994  15.147  26.235  0.0732 -0.0972  0.0671
11762W        W54700   2.006  15.381  24.056  0.2659 -0.1287  0.2896
11763W        W54701   1.946  16.817  25.343  0.0574  0.1804  0.1787
11764W        W54702   0.948  18.656  25.858 -0.0293  0.1750  0.1111
11765W        W54703  32.108  14.838  25.314 -0.2402 -0.0214  0.0694
11766W        W54704   4.309  14.398  24.852 -0.0617 -0.0339 -0.2857
11767W        W54705   0.740  15.549  27.163 -0.2339 -0.0158 -0.1800
11768W        W54706   2.670  13.690  27.860  0.0017  0.0823 -0.2808
11769W        W54707   1.862  16.505  25.743 -0.1509  0.0925 -0.0729
11770W        W54708   2.663  16.086  25.080  0.0105 -0.0297  0.0518
11771W        W54709   3.791  16.586  27.233 -0.0412 -0.0964  0.0636
11772W        W54710   0.866  16.419  28.360  0.1187 -0.0589  0.0263
11773W        W54711   2.291  16.422  24.962 -0.3261 -0.1339 -0.2777
11774W        W54712   3.241  16.683  26.962  0.3949  0.0183 -0.3504
11775W        W54713   2.426  15.038  23.232  0.1215  0.0222  0.1667
11776W        W54714   2.819  18.694  27.066 -0.0691 -0.0775  0.0412
11777W        W54715  34.446  15.386  25.875  0.1398  0.0905 -0.4302
11778W        W54716   2.782  16.933  24.291  0.1203 -0.3032  0.1866
11779W        W54717  34.626  16.345  25.788  0.0592 -0.1779  0.0610
11780W        W54718   2.214  17.466  27.252  0.2269  0.2708 -0.0883
11781W        W54719   3.514  17.487  26.619 -0.0925  0.0836  0.1762
11782W        W54720  34.110  13.245  23.816  0.1244  0.0081 -0.1679
11783W        W54721   2.948  14.954  23.087  0.4661 -0.2084 -0.1082
11784W        W54722   3.857  16.777  28.498 -0.2263  0.3845 -0.0161
11785W        W54723   1.449  18.442  25.640  0.0964  0.0339 -0.1911
11786W        W54724   2.185  14.927  24.257  0.0919  0.0188 -0.0276
11787W        W54725   3.588  16.380  26.168  0.0253  0.0427 -0.1714
11788W        W54726   0.930  15.913  26.272 -0.2789 -0.0538 -0.1208
11789W        W54727   2.398  16.974  28.078  0.0906 -0.1700 -0.0546
11790W        W54728   4.302  16.569  24.952  0.1820 -0.0856  0.2514
11791W        W54729   1.031  14.763  25.360  0.1450 -0.0815  0.2511
11792W        W54730   1.614  16.093  25.983  0.3928  0.0624 -0.1943
11793W        W54731  33.189  17.798  25.238  0.2405  0.1643 -0.0159
11794W        W54732   3.984  13.997  25.909 -0.0875 -0.1005 -0.0046
11795W        W54733   2.846  15.348  27.412 -0.1047  0.1556 -0.0479
11796W        W54734   2.513  18.803  25.821  0.1121  0.0399  0.2767
11797W        W54735   4.255  15.754  27.671  0.0241  0.2035  0.1801
11798W        W54736   3.161  17.247  26.853  0.0992  0.4991  0.2702
11799W        W54737   0.985  19.237  27.866  0.2987  0.1246 -0.1266
11800W        W54738   0.026  14.028  24.799 -0.3146  0.0283  0.1357
11801W        W54739   2.308  16.236  26.750  0.6406 -0.1061 -0.0860
11802W        W54740   2.478  17.758  25.823  0.0335 -0.0564  0.2828
11803W        W54741   1.816  17.662  24.536  0.1585 -0.0341  0.0458
11804W        W54742   3.342  17.294  25.243 -0.1421  0.0127  0.1701
11805W        W54743   0.983  17.110  25.144 -0.0391 -0.3715 -0.1909
11806W        W54744   4.267  16.298  25.439  0.4769 -0.2191  0.2733
11807W        W54745  34.467  14.394  25.046  0.1956 -0.0747 -0.1272
11808W        W54746   3.914  14.903  26.133 -0.1672  0.0646 -0.1275
11809W        W54747   2.127  15.061  25.971 -0.0958  0.3513  0.1312
11810W        W54748   1.391  17.152  26.172  0.0920  0.0757 -0.0568
11811W        W54749  34.184  15.873  25.315 -0.2594  0.1647 -0.2171
11812W        W54750   2.069  18.628  23.843 -0.0226  0.2373 -0.1210
11813W        W54751   1.275  17.645  26.312 -0.1411  0.3378  0.1741
11814W        W54752   1.677  15.723  28.004 -0.2686 -0.2263 -0.1629
11815W        W54753   1.594  15.942  28.471 -0.0211 -0.2605  0.3975
11816W        W54754  34.681  16.934  26.639  0.2835 -0.0649 -0.2298
11817W        W54755  34.690  14.487  22.828 -0.0308  0.1564  0.0228
11818W        W54756   3.733  17.557  24.016  0.0004 -0.0508 -0.2742
11819W        W54757  34.404  14.904  25.793 -0.1874 -0.0747  0.0108
11820W        W54758  34.333  16.754  25.687 -0.0261 -0.0374  0.1469
11821W        W54759   2.593  15.974  25.592 -0.0526 -0.6394  0.0157
11822W        W54760   4.072  17.519  23.675 -0.2916  0.1735 -0.0961
11823W        W54761   0.552  15.174  25.901 -0.0518 -0.1928  0.1898
11824W        W54762   3.052  17.245  27.314 -0.1179 -0.0227  0.2569
11825W        W54763   0.547  16.123  23.841 -0.0281  0.0814 -0.0588
11826W        W54764   1.518  17.981  25.514 -0.1836  0.0428  0.1989
11827W        W54765   0.603  13.216  28.329  0.3603 -0.0111  0.2071
11828W        W54766  33.156  15.092  24.621  0.0861 -0.2179 -0.2741
11829W        W54767   1.844  15.380  26.471  0.1116  0.1052 -0.2301
11830W        W54768   2.981  17.783  26.061  0.0868 -0.3048  0.0519
11831W        W54769   2.070  18.160  24.811  0.0628 -0.0619  0.0079
11832W        W54770   2.798  18.076  26.888  0.0393  0.3876  0.2345
11833W        W54771   3.018  16.398  24.818 -0.2334 -0.2731 -0.2863
11834W        W54772   2.128  14.614  26.805 -0.2467 -0.1958 -0.0819
11835W        W54773   2.828  15.683  24.683 -0.1741 -0.1150 -0.2304
11836W        W54774   2.305  16.831  27.131 -0.0030 -0.2532  0.0451
11837W        W54775   2.552  18.001  24.122 -0.1588  0.0041 -0.0730
11838W        W54776   4.386  14.327  25.796 -0.1447  0.0935  0.1128
11839W        W54777   1.318  17.547  25.260 -0.3096  0.1438 -0.0003
11840W        W54778   0.489  14.364  27.103  0.1474 -0.1099  0.0025
11841W        W54779   1.011  15.429  26.178  0.0500  0.0162  0.0672
11842W        W54780   3.938  16.535  25.819  0.0657 -0.1698  0.0278
11843W        W54781   0.930  14.424  25.702  0.0662  0.2412 -0.0120
11844W        W54782   2.125  16.078  25.736 -0.0361  0.0574 -0.1805
11845W        W54783   4.271  17.959  25.313 -0.2905  0.2854  0.0803
11846W        W54784   0.496  16.265  25.536  0.2968  0.1201 -0.1101
11847W        W54785   1.295  16.751  24.969 -0.0921  0.1621 -0.2591
11848W        W54786   3.436  16.125  26.865  0.0568  0.1218 -0.3027
11849W        W54787   2.071  18.102  25.601  0.0498  0.0274 -0.1744
11850W        W54788   2.607  16.436  26.383  0.0979 -0.0809 -0.3503
11851W        W54789   1.628  17.249  25.530 -0.2183  0.2274 -0.2751
11852W        W54790   3.980  16.268  24.637 -0.0397 -0.4314 -0.0230
11853W        W54791   1.371  17.704  26.833 -0.3879 -0.1785  0.0987
11854W        W54792   2.489  18.614  27.467 -0.2279  0.1129  0.2477
11855W        W54793   2.607  16.880  25.677  0.0758 -0.2047  0.0333
11856W        W54794   3.839  16.111  26.574 -0.0645  0.1340  0.0492
11857W        W54795  34.401  13.707  25.197 -0.1593  0.0159 -0.1158
11858W        W54796   2.068  17.450  26.038 -0.1284  0.0785 -0.1608
11859W        W54797   2.248  16.688  26.018 -0.1668  0.0757 -0.0891
11860W        W54798   2.832  16.849  26.710  0.6072  0.0652  0.1625
11861W        W54799   0.136  15.298  25.655 -0.1506 -0.2701  0.1940
11862W        W54800   1.327  15.280  25.310  0.0519  0.1335  0.1555
11863W        W54801   2.198  18.114  26.608 -0.0447  0.0487 -0.0932
11864W        W54802   2.016  15.809  27.097 -0.0389 -0.1762 -0.1879
11865W        W54803   1.068  16.692  30.250 -0.0486  0.1171  0.0371
11866W        W54804   2.009  15.300  28.645  0.0128  0.0522 -0.3255
11867W        W54805   2.522  14.748  30.040 -0.3118 -0.1676 -0.1949
11868W        W54806   3.228  15.858  29.071 -0.0628  0.2237  0.1162
11869W        W54807   1.145  15.741  28.132 -0.2294 -0.2046  0.0984
11870W        W54808   2.699  17.447  28.086  0.0573  0.1267  0.3406
11871W        W54809   0.428  13.715  30.768 -0.0947 -0.1166 -0.1633
11872W        W54810   3.630  17.858  28.947 -0.0624  0.0137 -0.0268
11873W        W54811   3.832  16.324  30.704 -0.0667 -0.3106  0.0201
11874W        W54812   3.700  15.900  27.823  0.2803 -0.0817  0.2868
11875W        W54813   1.787  16.501  29.760  0.0890  0.1123 -0.2571
11876W        W54814   2.048  16.922  31.084 -0.0844  0.0834 -0.0198
11877W        W54815   3.516  15.061  28.847 -0.1510 -0.1454 -0.2241
11878W        W54816   0.656  15.143  29.591 -0.0055 -0.2625 -0.0529
11879W        W54817   2.937  16.964  29.768  0.1689 -0.0284 -0.1967
11880W        W54818  34.193  17.724  27.991  0.0303 -0.3047  0.0236
11881W        W54819   0.412  15.491  31.790 -0.1878  0.2631  0.2458
11882W        W54820   0.727  14.181  29.984 -0.4782 -0.0465  0.0299
11883W        W54821   1.394  18.501  29.350 -0.1782  0.0918 -0.1108
11884W        W54822   2.026  16.721  29.003  0.0006 -0.0544 -0.0346
11885W        W54823   0.676  15.203  31.345  0.2526  0.1547  0.1741
11886W        W54824  34.109  18.452  28.638  0.0991 -0.2093 -0.0055
11887W        W54825   1.175  15.974  26.726  0.0207 -0.0345 -0.2573
11888W        W54826   0.171  14.917  30.162 -0.0990  0.1150  0.0659
11889W        W54827   1.182  15.339  29.979  0.2488 -0.2816 -0.0986
11890W        W54828   1.193  14.026  29.920  0.3294  0.6032 -0.3655
11891W        W54829   2.880  14.984  31.063 -0.1821  0.4322 -0.4499
11892W        W54830   0.900  18.543  30.826  0.0631  0.0213 -0.2250
11893W        W54831   4.197  17.207  30.252 -0.1424  0.0516  0.2884
11894W        W54832   1.300  15.886   0.396 -0.1453 -0.1013  0.0676
11895W        W54833   0.458  17.159  27.915 -0.2286 -0.3608 -0.1875
11896W        W54834  33.537  17.551  28.546  0.3411  0.0595  0.4061
11897W        W54835   1.139  18.278  29.905 -0.1755 -0.0623  0.1780
11898W        W54836   3.365  17.520  28.642 -0.1159  0.0746  0.0811
11899W        W54837   2.351  17.073   0.180  0.1663  0.1053  0.2038
11900W        W54838   1.342  17.078  31.701  0.1401  0.0382 -0.0587
11901W        W54839   0.331  18.447  28.716 -0.2703 -0.0300 -0.0276
11902W        W54840   2.581  18.832  30.771  0.0151  0.0769 -0.2236
11903W        W54841   1.772  17.278  29.140 -0.1818 -0.1377 -0.0582
11904W        W54842   2.911  15.051  29.982  0.3320  0.1164 -0.0418
11905W        W54843   2.279  14.481  29.557  0.2809  0.2746  0.0683
11906W        W54844   2.711  18.262  28.282  0.1234  0.0236 -0.0372
11907W        W54845   3.126  16.145  29.572  0.0043 -0.0909  0.1184
11908W        W54846   1.376  16.316  30.102  0.1578  0.0959  0.2166
11909W        W54847  34.010  16.130  31.013  0.1931  0.2081  0.0980
11910W        W54848   3.586  14.362  31.875  0.3109 -0.0837 -0.2939
11911W        W54849   0.791  17.645  27.728 -0.0083  0.2584  0.2128
11912W        W54850   3.741  16.379  28.129 -0.1786  0.0299  0.0758
11913W        W54851   1.205  16.663  27.899  0.3118  0.1606 -0.1566
11914W        W54852   3.692  15.889  28.854  0.1071  0.1407 -0.1376
11915W        W54853   0.134  14.451  29.128  0.1777 -0.0424  0.2474
11916W        W54854  34.576  18.343  28.890  0.0513 -0.2593 -0.1348
11917W        W54855   0.705  15.949  29.819 -0.1811 -0.0915  0.2008
11918W        W54856   1.567  16.503  29.233 -0.1572  0.3151  0.1730
11919W        W54857   2.180  17.360  27.835 -0.1424  0.3744 -0.3419
11920W        W54858   0.923  14.775  30.737  0.4552  0.1472 -0.0390
11921W        W54859   1.484  17.300  30.335  0.4645  0.0410  0.1587
11922W        W54860   1.107  16.344  27.393  0.3104 -0.0068  0.0087
11923W        W54861   1.818  17.776  28.151  0.1558  0.1411 -0.1553
11924W        W54862   3.937  16.957  29.892 -0.1533  0.0713 -0.1286
11925W        W54863   3.068  17.915  28.861 -0.1089  0.1616 -0.1590
11926W        W54864   0.166  16.742  27.908 -0.2357  0.2210  0.0173
11927W        W54865  34.323  16.440  31.202  0.1457 -0.4549 -0.1359
11928W        W54866   0.981  15.517  31.062 -0.0587  0.0878  0.0477
11929W        W54867   0.381  16.204  27.987 -0.0682  0.1964 -0.0363
11930W        W54868   3.188  16.255   0.417  0.2154  0.1481  0.2815
11931W        W54869   0.402  17.034  31.524 -0.2295 -0.1892  0.0864
11932W        W54870   2.013  14.937  29.530 -0.0903  0.0371  0.2878
11933W        W54871   1.581  16.711  30.374  0.2633  0.0744 -0.0395
11934W        W54872   1.361  16.970  30.753 -0.2478 -0.0175  0.2041
11935W        W54873   2.433  18.061  29.128  0.5435  0.0885  0.3291
11936W        W54874   2.541  15.271  30.259  0.2370 -0.2405  0.0405
11937W        W54875   1.089  14.297  30.644 -0.0022 -0.1066 -0.0304
11938W        W54876   1.924  15.911  27.595 -0.4217 -0.1758  0.1013
11939W        W54877   1.066  17.563  28.686  0.1222 -0.1471  0.0080
11940W        W54878   3.407  16.673  31.965 -0.1440 -0.0185 -0.0339
11941W        W54879   2.385  16.032  28.572  0.0341  0.0433 -0.1121
11942W        W54880   0.588  18.888  30.476 -0.0203 -0.0317 -0.2465
11943W        W54881   1.342  14.733  30.445 -0.1965  0.1835 -0.0872
11944W        W54882   0.818  18.063   0.092  0.1544 -0.1314 -0.2970
11945W        W54883   0.686  19.658  28.125 -0.0860 -0.0882  0.0138
11946W        W54884   0.356  16.728  29.859  0.0044  0.1241  0.1055
11947W        W54885  33.398  18.371  29.277 -0.1086 -0.1764  0.4002
11948W        W54886   0.165  16.365  30.289  0.2553 -0.2672  0.2025
11949W        W54887   1.967  15.806  28.726 -0.3025  0.2513 -0.0152
11950W        W54888   2.265  14.406  30.357  0.0926  0.0830  0.2717
11951W        W54889  34.660  14.033  30.859 -0.1396  0.2845  0.0928
11952W        W54890   2.722  14.215  30.436  0.0821  0.0388  0.1399
11953W        W54891   0.347  17.569  27.619 -0.1811 -0.1359 -0.0997
11954W        W54892   3.670  16.936  29.032  0.0776  0.1203  0.4446
11955W        W54893   3.631  15.456  28.534  0.0589 -0.0367 -0.0504
11956W        W54894   3.336  17.055  28.688  0.0117 -0.1253  0.3786
11957W        W54895  33.969  16.897  30.443  0.3011  0.2026 -0.4240
11958W        W54896   0.511  15.184  28.580  0.1752 -0.1173  0.0787
11959W        W54897  34.205  15.815   0.974  0.0441  0.1722  0.1083
11960W        W54898  34.359  15.224  30.606  0.1734 -0.2218 -0.1716
11961W        W54899   2.830  16.320  30.904 -0.0783  0.4327 -0.2297
11962W        W54900  34.497  14.378  28.689 -0.5797 -0.2344  0.1585
11963W        W54901   2.447  15.982  27.923 -0.1016  0.1375  0.1644
11964W        W54902   2.212  17.517  28.277  0.1625  0.2108 -0.3309
11965W        W54903   1.308  18.049  29.048 -0.1758 -0.0620  0.1299
11966W        W54904   0.729  14.497  31.099  0.0397  0.2637 -0.3481
11967W        W54905   1.259  18.183  28.232  0.2868 -0.0276  0.1754
11968W        W54906   3.695  16.837  30.809  0.0767 -0.0088  0.1172
11969W        W54907   1.935  17.359  30.121 -0.0786 -0.0099  0.0942
11970W        W54908   1.169  15.907  31.374  0.3354 -0.3222  0.1843
11971W        W54909   1.923  17.002  28.530  0.1558  0.2103 -0.0639
11972W        W54910  34.632  19.240  28.326  0.2906  0.1435 -0.3220
11973W        W54911   0.996  18.131  29.480  0.1137  0.1972 -0.0558
11974W        W54912   2.098  16.324  27.763  0.0978 -0.0143 -0.1161
11975W        W54913   2.848  18.698  27.964  0.3966 -0.0950 -0.3357
11976W        W54914   2.013  17.434  30.961 -0.0782 -0.0587 -0.2472
11977W        W54915   1.330  17.220  29.823 -0.0082 -0.2226  0.0661
11978W        W54916   1.118  14.914  31.385 -0.3907 -0.0125 -0.1534
11979W        W54917   3.876  16.054  29.864  0.1498 -0.0358  0.4565
11980W        W54918   2.516  15.594  29.396 -0.0599  0.3799  0.0955
11981W        W54919   0.458  13.663  28.018 -0.1378  0.1184  0.0387
11982W        W54920   1.917  17.976  30.847 -0.1144 -0.2289  0.2923
11983W        W54921   0.753  18.458  28.467 -0.3928 -0.0386 -0.1842
11984W        W54922   0.085  17.129  30.138  0.1307 -0.0587 -0.0731
11985W        W54923   1.964  18.459  29.162  0.1331 -0.2506 -0.1989
11986W        W54924   3.395  15.105  31.511  0.0949  0.1275  0.1595
11987W        W54925  34.484  16.735   1.620  0.1660 -0.0013  0.0233
11988W        W54926   2.953  14.724  31.509  0.0077 -0.0387 -0.2260
11989W        W54927   1.312  17.049  28.317 -0.2750 -0.2136 -0.0109
11990W        W54928   0.071  16.195  31.446  0.1553 -0.1145 -0.0285
11991W        W54929   2.648  13.357  29.831 -0.1336  0.0224  0.0356
11992W        W54930   3.509  14.179  28.202  0.0613 -0.1795 -0.0427
11993W        W54931   1.501  16.179  31.125 -0.0892  0.0213  0.2220
11994W        W54932   4.528  15.927  30.086 -0.2123  0.0763 -0.1569
11995W        W54933   2.486  16.491  28.147 -0.3437  0.2881 -0.0760
11996W        W54934   2.429  14.909  28.697  0.1810 -0.0600 -0.1160
11997W        W54935  34.352  15.944  31.479 -0.2430 -0.1400  0.1179
11998W        W54936   2.483  17.146  29.906 -0.1549 -0.4493  0.1641
11999W        W54937   2.757  15.529  29.853  0.0916 -0.3173  0.4687
12000W        W54938   2.763  15.134  28.003  0.0619  0.1672 -0.2594
12001W        W54939   3.877  17.428  28.941 -0.1068 -0.1384 -0.2296
12002W        W54940  34.515  17.588  29.629  0.0597 -0.3237  0.0727
12003W        W54941   3.188  17.982   0.417  0.2551  0.0316  0.0088
12004W        W54942   3.781  17.309  28.462  0.1245  0.2226  0.0735
12005W        W54943   1.852  13.909  30.758 -0.3423  0.1701  0.2187
12006W        W54944   1.430  16.077  27.623 -0.0165 -0.0111 -0.0780
12007W        W54945   2.482  13.732  29.536  0.1643  0.0844 -0.2463
12008W        W54946   0.383  19.179  27.965 -0.0014 -0.0542  0.2226
12009W        W54947   3.110  14.190  30.102  0.0777  0.3364  0.2273
12010W        W54948   2.016  15.088  31.781 -0.0226  0.0961 -0.0586
12011W        W54949   2.028  13.288  30.643  0.1708  0.2642  0.0124
12012W        W54950   1.473  14.596   0.304  0.1487 -0.3428 -0.4251
12013W        W54951   3.828  16.610  29.415  0.1164  0.0118 -0.0450
12014W        W54952   2.228  15.884  29.725 -0.4176  0.0605  0.4617
12015W        W54953   2.416  16.898  29.260  0.1800 -0.0591 -0.0453
12016W        W54954   1.460  15.858  30.348 -0.0833 -0.1500 -0.0945
12017W        W54955   0.846  16.686  30.831 -0.0159  0.1194 -0.2334
12018W        W54956   0.823  18.038  31.009  0.0765  0.0081 -0.2483
12019W        W54957   2.835  17.226   0.234  0.2086  0.1424 -0.0775
12020W        W54958   2.135  16.453  29.393 -0.0399 -0.1010  0.0367
12021W        W54959   1.616  14.317  30.779 -0.2352  0.1647  0.1330
12022W        W54960   1.041  15.242  29.157 -0.2721 -0.0891 -0.1121
12023W        W54961   0.885  16.839  27.406  0.0077  0.4932  0.2387
12024W        W54962   1.465  18.029  29.544  0.1825 -0.4138  0.1742
12025W        W54963   1.489  14.407  30.128 -0.1638  0.2468  0.0287
12026W        W54964   2.824  16.816  28.847 -0.1580  0.1891  0.0943
12027W        W54965   1.320  17.240  26.669  0.1433  0.1676  0.1847
12028W        W54966   1.668  16.692  31.832 -0.0043 -0.0236  0.0840
12029W        W54967   0.451  17.068  28.454  0.0109 -0.0609  0.1120
12030W        W54968   5.354  15.284  30.522  0.2211  0.0801  0.0399
12031W        W54969   1.198  17.693  30.428  0.1617  0.0927  0.1438
12032W        W54970   1.750  16.446  28.674  0.1163 -0.1538 -0.0278
12033W        W54971  34.273  16.262  28.698  0.0142 -0.0914 -0.2914
12034W        W54972   2.801  15.265  28.606  0.1865 -0.2758 -0.1359
12035W        W54973   3.455  17.338  29.148 -0.2380  0.2813  0.2121
12036W        W54974   1.308  15.824  30.782  0.1343  0.1443  0.1504
12037W        W54975   2.851  14.546  29.374 -0.3123  0.0630 -0.1961
12038W        W54976   0.958  17.808  31.654 -0.1322 -0.0925 -0.0860
12039W        W54977   1.357  16.703  31.194  0.0497 -0.0292  0.1669
12040W        W54978   3.180  15.126  29.443 -0.0775 -0.0494  0.0101
12041W        W54979   2.823  16.967  30.247  0.0368  0.0118 -0.3618
12042W        W54980   0.988  16.267  31.039 -0.2466 -0.0681  0.0456
12043W        W54981   0.430  15.295  26.788 -0.0275  0.5085 -0.2730
12044W        W54982   2.186  15.825  31.891 -0.1980 -0.0567  0.0978
12045W        W54983   2.135  14.727  30.908 -0.1461 -0.0001  0.2694
12046W        W54984   0.096  18.525  29.726  0.2327 -0.4308 -0.0018
12047W        W54985   2.082  18.082  30.023 -0.2398  0.1220 -0.0076
12048W        W54986   2.784  17.105  27.767 -0.0871  0.0665  0.0642
12049W        W54987  34.662  18.360  28.385  0.0738 -0.2969  0.0267
12050W        W54988   0.629  14.696  31.587 -0.0595  0.1943  0.1346
12051W        W54989   1.792  15.142  30.655  0.1139  0.1761  0.1001
12052W        W54990   2.209  15.355  29.741  0.1525  0.2408  0.3259
12053W        W54991   1.315  16.402  30.673  0.1063 -0.2134 -0.2476
12054W        W54992   2.290  15.762  30.175  0.1258 -0.1260  0.1631
12055W        W54993   3.052  16.824  30.994  0.0672  0.1109  0.0676
12056W        W54994   2.471  15.225   0.055 -0.0954 -0.0744  0.0378
12057W        W54995   0.848  17.135  31.792 -0.1959 -0.1676 -0.1800
12058W        W54996   2.719  14.267  29.780  0.3151  0.1924  0.1302
12059W        W54997   2.742  17.786  28.484 -0.1343 -0.5127  0.2271
12060W        W54998   2.418  16.662  30.203  0.3763  0.0077 -0.1367
12061W        W54999   1.330  17.581  29.154 -0.1574  0.1419 -0.0227
12062W        W55000   0.418  16.091  31.121 -0.0136  0.1466  0.1172
12063W        W55001   1.702  18.262  28.835 -0.1660  0.0878 -0.1245
12064W        W55002   1.875  14.164  30.295  0.2818 -0.0628 -0.1878
12065W        W55003   0.806  17.680  29.147 -0.1570 -0.1883 -0.1321
12066W        W55004   0.904  18.005  28.648  0.0219  0.2433  0.1761
12067W        W55005   0.070  16.424  30.916 -0.1230  0.1008  0.2154
12068W        W55006   3.617  14.261  29.022  0.0110  0.1423 -0.2628
12069W        W55007   2.316  16.672  28.579  0.0636 -0.2165 -0.1289
12070W        W55008   0.807  16.152  28.991  0.2729 -0.1147 -0.0939
12071W        W55009   2.960  13.917   0.035  0.0753 -0.0606 -0.1240
12072W        W55010   4.145  15.916  29.039 -0.0780  0.2179  0.0917
12073W        W55011   1.524  15.548  31.197 -0.0145 -0.2335  0.1164
12074W        W55012   0.055  15.828  30.020  0.3053  0.0926 -0.1832
12075W        W55013   1.990  16.122  31.036  0.3518 -0.1531 -0.1000
12076W        W55014  34.374  16.971  28.829  0.0205 -0.1470 -0.1160
12077W        W55015   5.471  17.265   0.738  0.1422 -0.2054 -0.1173
12078W        W55016   0.113  16.149   0.379 -0.1029  0.2957  0.1714
12079W        W55017   2.579  14.884  30.623 -0.1576 -0.0789  0.0184
12080W        W55018   0.192  14.920  29.657 -0.2085 -0.0459  0.3000
12081W        W55019   2.240  16.025  29.105  0.1636  0.0746 -0.0122
12082W        W55020   3.731  17.211  30.374 -0.0983 -0.1641 -0.0314
12083W        W55021   1.030  17.151  27.809 -0.4917 -0.2879  0.1211
12084W        W55022   4.399  14.881  28.799 -0.2714 -0.2220  0.2293
12085W        W55023   1.835  16.050  30.015  0.1892  0.0714 -0.0427
12086W        W55024   3.476  15.477  29.260  0.2366 -0.3116  0.0253
12087W        W55025   1.101  16.680  29.133  0.3220 -0.0594 -0.0928
12088W        W55026   2.990  17.062  29.272 -0.3099  0.0126 -0.0268
12089W        W55027   1.587  14.896  30.014 -0.2583 -0.2514  0.2737
12090W        W55028   3.447  16.615  30.451  0.0732 -0.1611  0.2943
12091W        W55029   2.620  15.925  30.560  0.0610  0.0176 -0.1798
12092W        W55030   1.613  15.038   0.234 -0.3256  0.1191  0.0138
12093W        W55031   4.107  17.119  31.722  0.1945 -0.0318 -0.2950
12094W        W55032   2.076  14.999  30.256 -0.2347 -0.3902  0.2138
12095W        W55033  34.132  14.724   0.027 -0.0512 -0.1131 -0.0295
12096W        W55034   1.782  18.427  30.568 -0.2929 -0.0775 -0.4133
12097W        W55035   2.763  15.611  27.793 -0.0229 -0.1582  0.1593
12098W        W55036   2.104  16.581  30.568  0.0167  0.0652 -0.2428
12099W        W55037   2.704  14.992  29.497 -0.4303 -0.1072  0.1085
12100W        W55038   3.068  15.651  29.469 -0.2924 -0.2569 -0.0279
12101W        W55039   2.735  16.166  30.072 -0.0610 -0.0193  0.1435
12102W        W55040   1.801  17.223  31.694 -0.0879  0.0725  0.0853
12103W        W55041   0.847  15.294  28.114  0.0525 -0.0615 -0.2929
12104W        W55042   1.110  14.666  31.930 -0.1649 -0.3438  0.0264
12105W        W55043   2.598  18.056  30.117 -0.2109 -0.2371 -0.1864
12106W        W55044   2.586  17.366  29.396  0.0231 -0.0670  0.3121
12107W        W55045   1.840  15.113  29.063  0.1585  0.2722  0.1825
12108W        W55046  33.536  14.525  28.715  0.2292  0.2489 -0.2274
12109W        W55047   2.546  17.412  30.880  0.2511  0.0588 -0.2560
12110W        W55048   1.193  15.226  27.266 -0.1773 -0.1240  0.2774
12111W        W55049   1.416  16.321  28.226  0.0286  0.2678 -0.2746
12112W        W55050   1.809  17.564  29.615  0.3842  0.3074 -0.0581
12113W        W55051   2.550  16.206  31.797  0.1631  0.0627 -0.2138
12114W        W55052   2.291  15.193  29.209 -0.2154 -0.0424 -0.0541
12115W        W55053   2.826  15.434  31.274 -0.0260  0.0270 -0.0577
12116W        W55054   0.752  17.393  28.233  0.0469 -0.0996 -0.0072
12117W        W55055   2.263  14.719  29.104 -0.1616  0.2217 -0.0946
12118W        W55056   1.954  17.066  30.621  0.0472  0.1144  0.2753
12119W        W55057  34.306  17.365  31.881 -0.1246  0.0562  0.2402
12120W        W55058   1.568  17.422  28.526 -0.0477 -0.2939 -0.0311
12121W        W55059   1.675  14.617  31.245  0.1098 -0.0221  0.1254
12122W        W55060   1.427  14.122  29.394 -0.1264  0.0657  0.0067
12123W        W55061   3.060  15.781  30.936  0.0414 -0.0140  0.0026
12124W        W55062   1.343  14.940  30.969  0.3169  0.2056 -0.2778
12125W        W55063   1.848  19.580  30.020 -0.1907 -0.0150 -0.0012
12126W        W55064   1.720  15.656  29.742 -0.0545  0.1103  0.0307
12127W        W55065   2.660  17.063  31.234  0.0888 -0.1033  0.0428
12128W        W55066   2.543  16.684  27.631  0.2678 -0.3220 -0.0811
12129W        W55067   0.936  17.436  30.063  0.0602 -0.0611  0.2288
12130W        W55068  34.136  15.713  30.753  0.0153  0.1660  0.0856
12131W        W55069   0.776  15.936  30.743  0.3634  0.1049 -0.0212
12132W        W55070   2.468  16.648  29.708  0.0017 -0.1755 -0.0690
12133W        W55071   0.132  13.961  29.435  0.1669 -0.2488  0.0500
12134W        W55072   1.111  18.049  27.753  0.1300 -0.2229 -0.0298
12135W        W55073  33.936  15.703  31.316 -0.0946  0.1245 -0.0255
12136W        W55074   0.012  16.864  30.622  0.0967 -0.3113  0.0523
12137W        W55075   1.173  18.916  28.484 -0.0163  0.1516 -0.0612
12138W        W55076   2.465  16.469  28.984  0.2866  0.1302 -0.6025
12139W        W55077   2.000  16.237  28.323  0.0348 -0.0009 -0.0558
12140W        W55078   2.399  18.561  30.028  0.2756  0.0396  0.1382
12141W        W55079   0.941  17.133  28.583 -0.3642  0.1932 -0.0686
12142W        W55080   0.570  17.871  29.566  0.1671  0.0993 -0.3039
12143W        W55081  33.715  18.437  28.209  0.0463 -0.2894  0.3510
12144W        W55082   2.021  18.823  28.296  0.0143  0.1226 -0.0676
12145W        W55083   1.975  17.838  28.667  0.4863 -0.2275  0.1737
12146W        W55084   3.612  17.746  30.312  0.3434  0.2735  0.0959
12147W        W55085   2.998  14.033  28.022 -0.1447  0.0701  0.1096
12148W        W55086   3.783  15.591  30.122 -0.1483  0.0537  0.2578
12149W        W55087   4.458  14.418  28.065  0.1708 -0.1389 -0.0523
12150W        W55088   1.535  16.953   0.274  0.1378  0.2989  0.0232
12151W        W55089   1.911  15.627  29.217  0.4580  0.0662 -0.3472
12152W        W55090   1.245  14.559  28.567 -0.1343  0.5274 -0.1794
12153W        W55091   1.537  16.136   0.803  0.0512 -0.0921  0.1111
12154W        W55092   5.272  13.946  30.637 -0.0772  0.2814  0.0982
12155W        W55093   0.573  16.588  31.275  0.3037 -0.1163  0.1391
12156W        W55094   3.384  16.688  28.387  0.3342 -0.1065 -0.3935
12157W        W55095   2.591  17.227  28.494  0.1104  0.1025 -0.0492
12158W        W55096   2.920  16.410  28.538 -0.2009 -0.2727 -0.0406
12159W        W55097   5.171  14.786  30.426 -0.0726  0.0656 -0.1932
12160W        W55098   2.222  17.193  28.870  0.1635 -0.1453 -0.1509
12161W        W55099   2.384  16.299  30.785 -0.0507  0.2071 -0.1504
12162W        W55100   0.343  17.956  28.932  0.2346  0.1409 -0.0639
12163W        W55101   1.455  17.716  29.956  0.0666 -0.0847 -0.0950
12164W        W55102   2.210  18.403  28.742 -0.0791 -0.2189  0.2804
12165W        W55103   0.540  14.266  27.602  0.2664 -0.4627 -0.2079
12166W        W55104   3.753  15.427  31.290  0.1844 -0.1818 -0.0526
12167W        W55105   0.724  15.715  31.507 -0.0478  0.1517  0.0127
12168W        W55106   3.456  13.412  30.472 -0.0723  0.1439 -0.3373
12169W        W55107   1.204  17.654  28.237  0.0055  0.0922 -0.1902
12170W        W55108   4.530  15.551  28.163 -0.1932 -0.0336 -0.3099
12171W        W55109   2.841  16.842  28.283 -0.0377 -0.1231  0.5437
12172W        W55110   1.114  16.570  29.713  0.2669 -0.1627 -0.1173
12173W        W55111   2.886  16.213  27.763 -0.3030  0.1746  0.1077
12174W        W55112   3.329  16.536  31.420 -0.1812  0.0631 -0.0248
12175W        W55113   2.798  14.724  28.419 -0.1550  0.1525 -0.1210
12176W        W55114   1.986  16.759   0.287  0.2328  0.1877 -0.0544
12177W        W55115  34.496  15.880  29.598  0.0248 -0.0843  0.1336
12178W        W55116   1.836  14.278  28.022  0.1377  0.2393  0.0952
12179W        W55117   2.403  15.519  28.863  0.0972  0.2629 -0.1621
12180W        W55118   0.543  17.117  30.845 -0.2667  0.2578  0.2499
12181W        W55119   2.729  17.618  31.888  0.1074 -0.0525  0.0302
12182W        W55120   1.021  15.722  29.094 -0.0032  0.2735 -0.0142
12183W        W55121   2.656  17.513  27.529  0.0140 -0.0310  0.0766
12184W        W55122   4.145  15.543  29.350  0.3770 -0.1388 -0.2882
12185W        W55123   1.087  18.072  27.054  0.0570  0.1140  0.1442
12186W        W55124   3.189  16.339  27.297  0.1402 -0.2805 -0.2206
12187W        W55125   2.321  17.636  29.993 -0.0815  0.1619 -0.1954
12188W        W55126  34.655  14.721  30.584 -0.1209 -0.2645 -0.2540
12189W        W55127   2.500  16.784  30.769  0.0986  0.1928  0.0200
12190W        W55128   4.119  17.034  28.847 -0.2590 -0.0158  0.1185
12191W        W55129   0.592  15.412  29.158 -0.2242  0.2004  0.1129
12192W        W55130   0.853  16.956  29.923  0.1078 -0.0066 -0.1618
12193W        W55131  34.643  18.114  27.937 -0.2028  0.2205  0.1592
12194W        W55132   2.926  14.661  30.325 -0.1397  0.1239  0.2718
12195W        W55133   1.321  15.311  30.501  0.4576  0.1841 -0.0396
12196W        W55134   4.037  16.632  26.273  0.0415  0.0649 -0.1769
12197W        W55135   2.561  13.805  31.771  0.1258 -0.0738 -0.0181
12198W        W55136   2.986  18.923  29.342 -0.2489  0.0648 -0.0008
12199W        W55137   0.468  17.511  31.736  0.0467 -0.0692  0.1011
12200W        W55138   0.801  16.163  26.982 -0.2171 -0.0262 -0.4049
12201W        W55139   0.134  15.715  31.447  0.0532 -0.2276  0.1331
12202W        W55140   1.054  17.644  29.624  0.0077 -0.0833  0.3070
12203W        W55141   1.683  18.571  27.875 -0.1577 -0.0621  0.0208
12204W        W55142   3.130  16.398  29.010 -0.0832  0.0303 -0.0026
12205W        W55143   3.313  14.257  29.527  0.4412 -0.0647  0.1613
12206W        W55144   4.412  17.396  28.953  0.1707 -0.0251 -0.0407
12207W        W55145   1.808  15.454  30.192 -0.0585  0.1497 -0.1978
12208W        W55146   4.214  15.658  29.826 -0.1043  0.1053 -0.0646
12209W        W55147   2.050  14.023  28.400  0.0074 -0.1018 -0.2172
12210W        W55148   2.207  16.246  30.263 -0.0495 -0.1218 -0.0481
12211W        W55149   0.044  18.007  29.326  0.1218  0.0172  0.0635
12212W        W55150   0.840  17.070  26.942 -0.0258  0.2314 -0.1487
12213W        W55151   0.240  17.420  29.191  0.0445 -0.1357  0.3439
12214W        W55152   2.071  13.715   0.066  0.0300  0.0572 -0.2596
12215W        W55153   0.042  15.580  30.443 -0.0435 -0.0578  0.1145
12216W        W55154   0.787  17.932  30.019  0.0203  0.0925 -0.0550
12217W        W55155   1.079  15.891  28.596  0.0815 -0.0228  0.5001
12218W        W55156   3.705  17.681  29.439 -0.1290 -0.1897 -0.0144
12219W        W55157   0.493  14.642  30.453  0.2751 -0.2564  0.2223
12220W        W55158   0.449  14.623  28.748 -0.1482  0.0117  0.3539
12221W        W55159   3.528  14.903  29.746 -0.1194 -0.0998 -0.2886
12222W        W55160   3.528  15.703  29.721  0.1682  0.0310 -0.0294
12223W        W55161   1.212  16.099  29.381  0.2582  0.3042  0.3533
12224W        W55162   2.659  17.551  31.358 -0.0984 -0.2825  0.2940
12225W        W55163   0.574  16.518  27.207  0.1848  0.2455 -0.1504
12226W        W55164   0.547  16.101   0.010  0.1781 -0.1391  0.0937
12227W        W55165   0.244  14.952  31.867  0.0302 -0.2537  0.0474
12228W        W55166   0.342  15.518  27.441  0.0885  0.4729 -0.0607
12229W        W55167   1.834  16.065  29.476  0.0264  0.0832  0.0716
12230W        W55168   3.437  18.767  29.223 -0.1697 -0.1142 -0.1022
12231W        W55169   1.781  17.818  29.107 -0.2076  0.4194  0.1880
12232W        W55170   1.644  18.428  31.056 -0.1406  0.0321 -0.2006
12233W        W55171   1.600  17.162  31.141  0.1626 -0.0772 -0.1791
12234W        W55172  33.611  14.495   0.331 -0.2039  0.0524  0.1958
12235W        W55173   2.471  15.627  28.324  0.1458 -0.5825  0.0855
12236W        W55174   2.263  17.317  31.411  0.1878  0.1454  0.0151
12237W        W55175   3.161  17.279  28.285 -0.1591  0.0059  0.0309
12238W        W55176   2.544  14.363  31.621 -0.1633 -0.0202 -0.1246
12239W        W55177   1.538  16.019  29.004  0.0373 -0.1998  0.0113
12240W        W55178   0.597  14.763  29.904  0.1180  0.2123 -0.2946
12241W        W55179   1.616  15.838   0.022 -0.0186 -0.0696 -0.2236
12242W        W55180   2.666  15.442  30.783  0.0203 -0.0839  0.2280
12243W        W55181   0.510  15.930  29.296  0.1296 -0.0932  0.1065
12244W        W55182   3.560  14.620  28.646  0.3767 -0.1237  0.0627
12245W        W55183   2.760  18.289  28.785  0.0704  0.1730 -0.0057
12246W        W55184   0.154  17.146  29.663  0.1847 -0.1199  0.2306
12247W        W55185   1.549  15.208  29.557 -0.0438  0.1423  0.2670
12248W        W55186   1.506  16.022   1.282 -0.4286 -0.0431 -0.0295
12249W        W55187   1.446  17.743  31.753  0.0331  0.1378  0.2887
12250W        W55188   1.711  17.394   0.178  0.2534  0.0070 -0.0715
12251W        W55189   2.013  17.986  29.525 -0.0558  0.0569  0.1526
12252W        W55190   2.832  16.814  27.188  0.1692  0.2663 -0.1091
12253W        W55191   2.065  18.253  31.271 -0.1288 -0.1052  0.1020
12254W        W55192   3.532  17.430  30.929  0.1114 -0.1154 -0.1327
12255W        W55193   2.165  17.479  31.927 -0.2654 -0.0250  0.2591
12256W        W55194   3.135  16.540  30.044 -0.1422  0.1699  0.0574
12257W        W55195   1.398  15.617  29.351  0.1522 -0.0765 -0.0054
12258W        W55196   1.538  16.957  29.432 -0.3575 -0.1723  0.0109
12259W        W55197   2.800  15.381  29.094  0.0141  0.0829  0.4500
12260W        W55198   1.813  14.637  30.442 -0.1085  0.1890  0.2663
12261W        W55199   0.953  15.588  29.587 -0.1728  0.2904  0.2365
12262W        W55200   3.349  14.147  27.644 -0.1665 -0.2789 -0.2380
12263W        W55201   1.671  18.951  31.218  0.1365  0.0303 -0.1018
12264W        W55202   1.821  16.521  31.338 -0.0045 -0.1747 -0.0224
12265W        W55203   3.524  13.816  31.224 -0.0162 -0.0586  0.1495
12266W        W55204   1.742  15.661  30.749 -0.0114  0.0364  0.0521
12267W        W55205   0.863  15.536  30.397  0.4413 -0.1451 -0.1885
12268W        W55206  33.918  16.138   0.721 -0.0862 -0.0861 -0.0863
12269W        W55207   1.123  16.794   0.084  0.0623 -0.0037  0.1564
12270W        W55208   0.618  16.647  31.829 -0.1432 -0.1535  0.2652
12271W        W55209   4.157  15.159   0.725 -0.1565  0.1194 -0.0435
12272W        W55210   2.117  14.638   0.785  0.0951  0.3918  0.1291
12273W        W55211   1.958  15.202   0.761 -0.1479 -0.0717  0.2405
12274W        W55212   2.393  17.863  31.022 -0.2627 -0.2845  0.0974
12275W        W55213   0.967  17.062  31.220 -0.2765  0.0665  0.2659
12276W        W55214   0.835  13.901  31.049 -0.1759 -0.1192  0.0708
12277W        W55215   3.912  17.622  31.813 -0.3286 -0.2947  0.3410
12278W        W55216   1.867  15.719   0.886 -0.1579  0.1639  0.0495
12279W        W55217   2.568  15.707   0.230  0.3217 -0.2497  0.0144
12280W        W55218  34.204  18.720   1.159  0.0596  0.2360 -0.1530
12281W        W55219   0.732  16.551   0.540 -0.3523 -0.3375 -0.2541
12282W        W55220   4.643  18.349  31.797 -0.3621  0.0586  0.1241
12283W        W55221   1.332  13.812  31.008 -0.1782 -0.0411 -0.2696
12284W        W55222   0.650  16.074   0.510 -0.0791  0.0262  0.1396
12285W        W55223   1.290  15.341   0.080  0.1141 -0.0493 -0.1335
12286W        W55224   1.730  16.259  30.517  0.2378  0.1992  0.1623
12287W        W55225   2.246  15.176  31.158 -0.0137 -0.3077 -0.0514
12288W        W55226   2.221  16.320   0.221  0.1309  0.1032  0.3734
12289W        W55227   2.145  14.995   0.377 -0.1689  0.0704 -0.1143
12290W        W55228   2.512  15.066  31.559  0.1235  0.1179 -0.1886
12291W        W55229   1.735  16.631  30.883 -0.2048 -0.3084 -0.2311
12292W        W55230   1.221  17.599  31.319 -0.0178  0.1277 -0.0671
12293W        W55231   1.002  16.255   0.237  0.0509 -0.5450  0.0564
12294W        W55232   2.260  16.057  31.419 -0.0149  0.2156 -0.1374
12295W        W55233   1.833  18.195   0.417  0.2492 -0.1524  0.1643
12296W        W55234   0.230  14.410  30.955  0.0313  0.0212 -0.1557
12297W        W55235   2.355  15.453   0.603  0.2643  0.0047 -0.1515
12298W        W55236   2.866  16.823   1.486  0.1260  0.0863  0.0502
12299W        W55237  33.943  14.757  30.975  0.0584 -0.2604 -0.1707
12300W        W55238   0.693  17.160   1.365  0.3769  0.0803  0.0108
12301W        W55239   2.061  16.403   0.722 -0.1789 -0.1533 -0.0487
12302W        W55240   1.784  16.484   1.210 -0.3695  0.0394  0.1913
12303W        W55241   4.591  16.414   0.167 -0.1517 -0.1258  0.0982
12304W        W55242   2.185  16.703  31.783 -0.2727  0.1002 -0.0589
12305W        W55243   3.760  15.760  31.777  0.0341 -0.0555  0.1337
12306W        W55244   2.721  16.572  31.514  0.1281  0.2727  0.0463
12307W        W55245  34.672  14.494  31.868  0.0170 -0.0789  0.0020
12308W        W55246   0.812  16.207  31.598 -0.1062 -0.1130  0.1116
12309W        W55247   0.979  16.072  30.298 -0.0084  0.2966  0.0574
12310W        W55248   1.065  15.394   0.712  0.3445  0.1013  0.3630
12311W        W55249   0.661  14.985   0.786  0.3151  0.0830  0.0939
12312W        W55250   1.048  16.636  31.569 -0.1864  0.1744 -0.0120
12313W        W55251   3.182  18.989  31.952  0.1955 -0.1118  0.2440
12314W        W55252   0.743  16.884   0.957  0.0289  0.2584 -0.1317
12315W        W55253   2.071  17.811  31.514  0.2512 -0.4565 -0.0207
12316W        W55254   2.525  15.855  31.060 -0.2088 -0.0751 -0.0203
12317W        W55255   2.203  14.152  31.950  0.0167  0.0718 -0.3444
12318W        W55256   2.519  16.429   1.476 -0.2569 -0.2966 -0.1564
12319W        W55257   1.629  14.801   0.756  0.0425  0.1175 -0.5519
12320W        W55258   3.047  16.907  31.675  0.1443  0.2291 -0.0209
12321W        W55259   4.385  16.870   0.144 -0.1089 -0.3167  0.2439
12322W        W55260   2.299  18.819  31.941 -0.1084  0.0126 -0.1195
12323W        W55261   1.620  19.229   0.359 -0.2273 -0.0944  0.3036
12324W        W55262  34.621  15.378  31.850 -0.2056 -0.1118  0.2839
12325W        W55263  33.518  14.976   0.388 -0.2762 -0.2131  0.1010
12326W        W55264   0.430  18.064   0.397  0.1347 -0.1463 -0.4066
12327W        W55265  34.547  16.370   2.084 -0.2959  0.2531  0.3885
12328W        W55266   0.241  14.099   0.013 -0.1018 -0.3002  0.3336
12329W        W55267   2.638  19.956  31.802  0.0049 -0.1491  0.0150
12330W        W55268   1.537  16.472   0.289 -0.0931 -0.2568 -0.0996
12331W        W55269   2.198  16.126   1.200 -0.3637 -0.0107 -0.0898
12332W        W55270   0.389  19.916  20.236 -0.0345 -0.3093  0.1489
12333W        W55271  34.279  18.415  18.698 -0.0075  0.2305 -0.1257
12334W        W55272   2.550  18.590  15.890 -0.2474  0.1672  0.2564
12335W        W55273   3.004  21.201  16.693 -0.2505 -0.0608 -0.0963
12336W        W55274   0.254  18.206  17.059 -0.3296 -0.1506 -0.0897
12337W        W55275   1.196  20.881  18.253  0.0714 -0.1670  0.2720
12338W        W55276   0.123  18.944  20.321  0.3501  0.0758 -0.2691
12339W        W55277   2.801  21.941  18.377 -0.2620 -0.1765 -0.1213
12340W        W55278   1.865  21.321  20.555  0.1219 -0.1518  0.1529
12341W        W55279   3.508  20.296  16.179  0.1543 -0.0552 -0.0057
12342W        W55280   1.443  17.976  19.043  0.0827 -0.0073 -0.1017
12343W        W55281  33.995  20.100  19.504 -0.0188  0.2034  0.0966
12344W        W55282   0.960  17.129  17.064 -0.2959  0.0657  0.0776
12345W        W55283  34.275  17.842  17.598 -0.2208 -0.0671 -0.1759
12346W        W55284   1.059  20.072  19.329  0.0980  0.2109  0.2284
12347W        W55285  33.974  20.122  16.553 -0.0205 -0.0169 -0.1869
12348W        W55286  32.792  19.785  19.209  0.2822  0.1035 -0.1717
12349W        W55287   0.162  19.863  18.355  0.1736  0.0965 -0.0360
12350W        W55288  33.784  20.922  19.137  0.1287 -0.0941 -0.1520
12351W        W55289   1.750  19.323  18.023  0.0638 -0.0587 -0.1628
12352W        W55290   2.867  18.271  20.016 -0.0206 -0.0831 -0.2404
12353W        W55291   2.464  19.792  18.297  0.0799 -0.1822 -0.1189
12354W        W55292   0.569  20.629  16.874  0.1154  0.0670  0.2765
12355W        W55293  34.391  20.002  18.595 -0.0866 -0.0485 -0.1889
12356W        W55294   0.950  20.328  17.649 -0.0745 -0.0512  0.3027
12357W        W55295   1.701  18.386  18.730 -0.1753 -0.0951  0.0924
12358W        W55296   1.953  21.490  18.000 -0.3130  0.2607  0.2019
12359W        W55297   1.208  21.630  20.123 -0.0777  0.0096  0.1180
12360W        W55298   0.164  21.174  18.214 -0.1518 -0.0278  0.1586
12361W        W55299   2.653  20.590  21.348 -0.3507 -0.0451 -0.0248
12362W        W55300   0.615  19.890  18.056  0.0800  0.1310  0.0474
12363W        W55301  33.992  21.912  18.146  0.3723 -0.0481 -0.0455
12364W        W55302   1.502  21.277  16.948 -0.0286 -0.0326 -0.3043
12365W        W55303   3.698  20.805  17.215 -0.2041  0.0755 -0.1050
12366W        W55304   1.133  20.838  19.442  0.0472  0.1160 -0.2128
12367W        W55305  34.590  21.855  20.065 -0.2721  0.0217 -0.3568
12368W        W55306   0.643  21.201  17.562  0.3084  0.1114 -0.0956
12369W        W55307   0.407  20.784  19.471 -0.3073 -0.2085  0.0718
12370W        W55308   0.244  20.653  20.027 -0.1890  0.2059 -0.2871
12371W        W55309   0.149  19.980  17.787 -0.2563  0.0193 -0.1741
12372W        W55310   0.559  20.937  17.982 -0.0030 -0.2028 -0.0119
12373W        W55311   1.087  21.544  16.825  0.0004 -0.0744 -0.0814
12374W        W55312   1.410  20.876  16.470 -0.1064 -0.1777 -0.0159
12375W        W55313  34.642  18.918  20.882 -0.1060  0.1451 -0.2784
12376W        W55314   0.147  21.140  17.685 -0.1058  0.2064 -0.1414
12377W        W55315   3.548  18.878  18.109  0.0578  0.2265 -0.1137
12378W        W55316   0.799  20.709  18.552 -0.0601  0.0184 -0.0631
12379W        W55317   2.764  20.703  16.933 -0.3804 -0.0890 -0.0642
12380W        W55318   0.357  18.027  15.835  0.0474 -0.1148  0.1785
12381W        W55319   3.029  18.894  16.615 -0.2719  0.0572  0.0970
12382W        W55320   0.755  18.190  18.213 -0.1188 -0.0708 -0.1984
12383W        W55321   0.935  21.463  17.866  0.3609 -0.1712 -0.2022
12384W        W55322   0.995  19.979  18.387  0.0989  0.1519 -0.1821
12385W        W55323   0.270  20.299  19.676 -0.0230 -0.1877  0.0661
12386W        W55324   0.385  19.498  17.882 -0.0788 -0.0073  0.1384
12387W        W55325   1.361  20.200  18.135 -0.1768  0.1916 -0.0421
12388W        W55326  34.138  20.847  19.806 -0.1580 -0.6465  0.2261
12389W        W55327  33.992  19.672  18.683  0.1802  0.2050  0.0357
12390W        W55328   4.677  21.699  16.868  0.1204  0.1983 -0.0939
12391W        W55329   3.297  21.986  18.204 -0.4172 -0.0609 -0.2434
12392W        W55330   2.346  21.856  18.074 -0.1907 -0.2505  0.1950
12393W        W55331  34.461  19.452  17.498  0.2552  0.1415  0.0161
12394W        W55332   0.672  20.323  20.293 -0.1210 -0.0481  0.0112
12395W        W55333  33.508  19.288  19.682 -0.1877  0.1931  0.2689
12396W        W55334   0.807  19.491  16.536 -0.1806 -0.1839 -0.1425
12397W        W55335   3.384  20.860  18.726 -0.2998 -0.1779 -0.1382
12398W        W55336  34.648  22.527  19.407 -0.0889 -0.0519 -0.1915
12399W        W55337   2.487  19.373  18.650 -0.1139 -0.0721  0.0237
12400W        W55338   0.337  20.343  17.225 -0.1365  0.0869 -0.0814
12401W        W55339   3.602  22.185  18.904  0.1778  0.2184 -0.0557
12402W        W55340   1.745  20.557  17.360  0.0891  0.1021 -0.1498
12403W        W55341   2.679  19.873  17.246  0.2312 -0.3699 -0.0966
12404W        W55342   2.995  20.139  18.027 -0.0702  0.1196 -0.4134
12405W        W55343   0.818  20.251  17.146 -0.2214 -0.0761 -0.0613
12406W        W55344   1.697  20.309  16.789 -0.2215 -0.0840  0.1322
12407W        W55345   4.441  21.262  19.535  0.2569  0.3092  0.0735
12408W        W55346   2.988  20.795  16.387 -0.3003  0.2426  0.0757
12409W        W55347   0.249  21.202  19.301 -0.0259 -0.0418 -0.1727
12410W        W55348   1.838  18.540  19.299 -0.1542 -0.1337  0.0621
12411W        W55349   0.789  21.211  19.494  0.0114  0.2597  0.1154
12412W        W55350  33.877  22.375  17.848  0.2434 -0.1483  0.1955
12413W        W55351   0.126  19.615  18.815  0.2402  0.2384  0.1248
12414W        W55352  34.164  20.508  16.888 -0.2383 -0.0902  0.1299
12415W        W55353  32.755  19.025  20.486 -0.0982  0.2509  0.1003
12416W        W55354  34.437  21.102  17.994 -0.0053 -0.1449 -0.2250
12417W        W55355   2.901  19.623  18.400  0.2405 -0.2749  0.2923
12418W        W55356   1.566  19.205  18.481 -0.1896  0.4013 -0.0538
12419W        W55357   3.047  19.811  18.865 -0.2334 -0.0322 -0.0313
12420W        W55358  33.807  20.145  17.137  0.1524 -0.1378 -0.2151
12421W        W55359   1.277  21.787  18.745 -0.1875 -0.3148  0.1045
12422W        W55360   2.456  21.571  17.316 -0.2361  0.1980  0.0068
12423W        W55361   2.114  22.437  16.876 -0.0850 -0.1400  0.1421
12424W        W55362  33.718  19.013  18.034 -0.0749 -0.0968  0.0163
12425W        W55363   0.437  19.375  18.357 -0.0619 -0.1156 -0.0130
12426W        W55364  34.028  18.473  19.477  0.0267  0.1101  0.1033
12427W        W55365  33.207  18.438  19.118  0.2458  0.0069  0.1005
12428W        W55366   2.269  19.411  19.337 -0.1973  0.1010 -0.0659
12429W        W55367  33.776  19.415  17.729 -0.0028  0.0018 -0.0169
12430W        W55368   1.323  19.448  17.750 -0.1122 -0.2767  0.0370
12431W        W55369   0.015  20.969  18.878 -0.0498  0.1559 -0.0007
12432W        W55370  33.305  20.468  18.922  0.1788  0.0726 -0.1135
12433W        W55371   2.586  21.022  19.306 -0.1417  0.0337 -0.1849
12434W        W55372   1.468  21.190  17.936  0.0833 -0.0203  0.0341
12435W        W55373   1.824  23.524  19.082 -0.1754 -0.0275 -0.0137
12436W        W55374   2.300  20.974  18.083 -0.0060 -0.1068  0.0825
12437W        W55375  34.396  19.699  18.996 -0.0427  0.1605  0.0783
12438W        W55376   0.046  19.931  17.283 -0.0498  0.0622  0.1654
12439W        W55377  33.854  21.963  17.559  0.2322 -0.1343  0.0720
12440W        W55378   1.022  21.780  19.255 -0.0933 -0.0929  0.2069
12441W        W55379   0.764  19.039  18.493  0.1227 -0.1424  0.0344
12442W        W55380   3.239  21.482  18.213 -0.2808  0.1175  0.0570
12443W        W55381   2.455  19.525  16.881 -0.0041 -0.0805  0.0246
12444W        W55382   0.141  20.148  18.808  0.1946  0.1508 -0.0844
12445W        W55383   2.871  18.719  18.012 -0.1636 -0.1465 -0.2591
12446W        W55384   1.529  19.378  18.947 -0.0153  0.1702  0.0373
12447W        W55385   2.241  19.652  17.361  0.2623  0.1998 -0.0577
12448W        W55386   0.503  19.141  16.651 -0.0094  0.1300  0.2061
12449W        W55387   1.716  21.352  19.229  0.2443 -0.1052 -0.0403
12450W        W55388   0.063  21.894  17.156 -0.0219 -0.1893  0.1334
12451W        W55389  33.857  20.408  17.880 -0.5451  0.2043  0.1877
12452W        W55390   1.010  20.984  17.762  0.0086 -0.0087  0.3956
12453W        W55391   3.368  21.015  18.162  0.1846 -0.0299 -0.0752
12454W        W55392  34.357  19.887  21.440  0.3400 -0.0197 -0.1469
12455W        W55393   1.722  19.195  19.377  0.0101  0.0021 -0.0236
12456W        W55394   0.599  19.949  17.496 -0.1217  0.0530  0.0262
12457W        W55395  34.645  21.052  20.567 -0.2072 -0.2045  0.0555
12458W        W55396   2.276  18.417  17.111 -0.0640 -0.0418 -0.0791
12459W        W55397   2.475  21.119  17.058 -0.1394 -0.0842 -0.1858
12460W        W55398   0.958  19.036  19.719  0.1131 -0.2362 -0.3207
12461W        W55399   3.982  20.982  17.633  0.1789 -0.0627 -0.0778
12462W        W55400   1.440  18.150  16.911  0.2932 -0.0598 -0.0854
12463W        W55401   1.482  18.141  16.356 -0.1004 -0.0608  0.1344
12464W        W55402  34.116  20.543  19.408 -0.3107  0.0609 -0.1033
12465W        W55403   1.820  20.858  17.856 -0.2567  0.1453 -0.3703
12466W        W55404   0.935  21.736  18.329  0.3668  0.2145 -0.0895
12467W        W55405   0.931  19.037  16.850 -0.0863  0.0674  0.1722
12468W        W55406   3.789  21.745  16.947  0.1297  0.2331  0.4126
12469W        W55407  33.602  20.204  20.127 -0.1866 -0.2608 -0.1456
12470W        W55408   1.454  20.986  19.756 -0.1303 -0.1512 -0.0339
12471W        W55409   2.233  21.500  18.435 -0.0734  0.1769  0.4235
12472W        W55410   1.212  17.475  19.160 -0.0695  0.1100  0.0072
12473W        W55411   1.145  19.078  16.399 -0.0867 -0.2737 -0.2305
12474W        W55412   1.905  19.460  16.959  0.0684  0.0421  0.1393
12475W        W55413  34.589  21.899  16.661 -0.0148 -0.3682 -0.0691
12476W        W55414   3.795  19.607  18.763  0.1598  0.1005 -0.1570
12477W        W55415   0.726  18.193  19.856 -0.2754  0.1968 -0.0619
12478W        W55416   1.547  17.651  20.112 -0.3714  0.0928 -0.0133
12479W        W55417   4.610  20.512  19.937 -0.0658 -0.2038  0.2134
12480W        W55418   3.121  20.102  17.464  0.1261 -0.2615  0.0613
12481W        W55419   2.625  19.309  18.087 -0.3908  0.0296 -0.1185
12482W        W55420   0.035  19.564  16.946  0.0880  0.2848 -0.3249
12483W        W55421   3.297  19.051  19.919  0.1815 -0.2285  0.1957
12484W        W55422   0.036  19.475  19.476 -0.0691 -0.0595  0.4343
12485W        W55423   0.072  21.469  18.951  0.2706 -0.1346  0.1549
12486W        W55424   1.679  20.633  18.666 -0.2873 -0.2351 -0.1452
12487W        W55425   2.226  19.953  16.924  0.0410 -0.1513 -0.2405
12488W        W55426   1.642  19.160  20.550  0.1184 -0.0315  0.1783
12489W        W55427   1.485  19.061  16.807  0.3521 -0.2237  0.3604
12490W        W55428   0.532  20.679  17.601 -0.2043 -0.1228 -0.1126
12491W        W55429   0.498  19.645  16.924  0.3259 -0.0779  0.0480
12492W        W55430   0.938  18.587  18.842  0.0584  0.0200  0.1715
12493W        W55431   0.484  21.117  18.684 -0.2366 -0.0505 -0.0913
12494W        W55432   0.172  19.735  15.959 -0.0271 -0.0224 -0.0070
12495W        W55433   2.735  21.866  19.310 -0.1290  0.0113 -0.2500
12496W        W55434  34.009  21.366  18.332  0.1171  0.1962  0.0007
12497W        W55435   3.799  17.495  16.965  0.0959  0.0483 -0.2211
12498W        W55436  32.547  21.955  18.782 -0.1917  0.2120  0.2255
12499W        W55437   0.204  19.035  17.061 -0.2770  0.0199 -0.1152
12500W        W55438   0.579  19.008  18.052 -0.2068  0.1481 -0.0021
12501W        W55439   4.400  18.824  17.842 -0.1687  0.0090 -0.1618
12502W        W55440   2.511  20.866  16.541 -0.0908 -0.2833 -0.1631
12503W        W55441  34.362  18.615  19.156 -0.3900 -0.1090  0.0788
12504W        W55442   2.027  18.998  17.718 -0.1513  0.2773  0.2464
12505W        W55443  33.751  21.742  19.570  0.0178  0.1807  0.3159
12506W        W55444   1.722  20.081  19.475  0.0083 -0.0724  0.0185
12507W        W55445   2.954  19.254  17.051  0.1822  0.2295  0.3156
12508W        W55446   1.370  20.410  19.694 -0.2114 -0.1022  0.0534
12509W        W55447   0.897  19.549  20.096 -0.1225 -0.0798 -0.1526
12510W        W55448   0.200  18.176  17.970  0.0740 -0.0879  0.0430
12511W        W55449   2.139  18.929  19.258  0.2074 -0.1031  0.3835
12512W        W55450   1.104  19.848  17.391 -0.0373 -0.2710 -0.2532
12513W        W55451  34.502  21.261  16.981 -0.1624  0.0565  0.3498
12514W        W55452   2.960  20.835  18.999 -0.1353 -0.1972  0.1545
12515W        W55453  33.331  19.743  17.533  0.1366  0.0509 -0.0258
12516W        W55454   1.358  20.371  16.424  0.0676  0.0741 -0.0327
12517W        W55455  33.403  19.987  18.485  0.0375 -0.0809  0.0592
12518W        W55456   2.771  20.515  19.364  0.0307  0.1217 -0.2540
12519W        W55457   0.403  20.378  17.983 -0.2529  0.1473  0.3400
12520W        W55458   0.485  19.734  19.166 -0.0547  0.0433 -0.1621
12521W        W55459  34.467  20.177  18.149 -0.3051  0.0546  0.1304
12522W        W55460   0.525  20.251  19.211 -0.0266 -0.0795 -0.2261
12523W        W55461   1.948  19.571  18.454 -0.0883  0.0443  0.1395
12524W        W55462  34.641  20.262  20.175 -0.2331 -0.0836  0.1942
12525W        W55463   1.147  18.192  18.641 -0.2538 -0.0093 -0.0414
12526W        W55464   3.900  22.490  17.644  0.4767 -0.1567 -0.0900
12527W        W55465   2.335  18.686  18.087  0.0780  0.2123  0.2978
12528W        W55466  34.433  20.050  16.890 -0.1602 -0.0814  0.2134
12529W        W55467  32.555  19.708  17.353 -0.0092 -0.2711  0.1665
12530W        W55468   1.958  20.985  16.694 -0.2510 -0.1104 -0.2189
12531W        W55469   1.654  18.837  18.900  0.2137  0.3727 -0.2654
12532W        W55470  34.044  21.511  17.793  0.2274 -0.3366  0.2938
12533W        W55471   0.888  20.792  17.280  0.0623 -0.0785 -0.0876
12534W        W55472  33.506  21.419  19.308 -0.0815  0.0067  0.0135
12535W        W55473   3.089  18.622  17.360 -0.0467 -0.2218  0.3176
12536W        W55474   1.050  21.013  16.849 -0.0115 -0.0642 -0.0946
12537W        W55475   2.100  18.631  18.513  0.1596 -0.0171  0.1009
12538W        W55476   3.107  19.068  18.269  0.1832  0.2144 -0.1974
12539W        W55477   2.883  21.643  17.047 -0.2328  0.0367  0.1852
12540W        W55478   2.682  18.605  19.418  0.1468  0.0011  0.4673
12541W        W55479   1.168  19.007  18.842  0.0474 -0.1847  0.0783
12542W        W55480   2.498  20.316  17.134 -0.1086  0.0890 -0.1985
12543W        W55481  34.353  18.680  20.001 -0.1553 -0.0868 -0.0394
12544W        W55482   2.015  21.094  20.142  0.2053  0.0207 -0.1416
12545W        W55483  34.632  20.909  21.500  0.2187  0.1713 -0.0614
12546W        W55484   1.384  18.571  16.604 -0.1029  0.1947  0.0435
12547W        W55485   0.787  17.597  16.522 -0.3107 -0.4418 -0.0823
12548W        W55486   0.900  19.499  18.135  0.1766  0.0443 -0.0438
12549W        W55487   2.243  21.902  17.582  0.1592  0.0350  0.1791
12550W        W55488   2.433  21.518  16.756  0.1877 -0.2423 -0.0716
12551W        W55489   2.256  20.289  18.533 -0.1590 -0.4158 -0.2347
12552W        W55490   0.047  20.710  17.993  0.3884  0.0488  0.1802
12553W        W55491   2.955  19.793  16.133  0.0085 -0.1746 -0.2404
12554W        W55492   1.510  18.963  17.674 -0.1032 -0.2377 -0.2965
12555W        W55493  34.642  20.543  18.587 -0.2392 -0.0934 -0.0874
12556W        W55494   0.068  18.537  19.712 -0.1727  0.1340 -0.1755
12557W        W55495   2.681  20.612  18.083  0.1739 -0.2629  0.1880
12558W        W55496   3.343  18.341  17.788 -0.0605  0.1012 -0.0194
12559W        W55497   2.066  19.043  19.753 -0.2630  0.2704  0.0155
12560W        W55498   1.316  18.459  19.067  0.0490  0.1550 -0.1273
12561W        W55499   2.074  19.364  20.690  0.2212  0.0254  0.0399
12562W        W55500  34.368  17.700  19.711 -0.0215 -0.1175 -0.2974
12563W        W55501   2.871  21.689  17.958  0.2323  0.1726  0.3370
12564W        W55502   1.936  19.675  16.046 -0.2344 -0.2052 -0.3582
12565W        W55503   3.340  19.438  18.511  0.2213 -0.0459  0.0005
12566W        W55504   2.571  18.969  17.686 -0.1505  0.3289  0.2660
12567W        W55505   0.619  19.227  17.183 -0.2132  0.2128 -0.1026
12568W        W55506   0.512  18.585  18.303  0.0757 -0.1176 -0.2637
12569W        W55507   2.290  19.810  18.769  0.0343  0.2819  0.2275
12570W        W55508   0.324  18.485  16.635 -0.0493  0.0950  0.2066
12571W        W55509   3.211  19.754  19.320 -0.0375 -0.1429  0.0563
12572W        W55510   2.276  21.990  18.531  0.2243  0.1433  0.1378
12573W        W55511   1.800  20.393  17.921  0.0256  0.0983  0.0557
12574W        W55512   2.670  19.922  16.637 -0.0421  0.0627  0.1244
12575W        W55513  33.868  18.078  17.811  0.0714 -0.2184  0.0698
12576W        W55514  34.266  20.204  19.063 -0.2177  0.2516  0.0840
12577W        W55515   1.177  18.461  16.147  0.1128 -0.1549 -0.3857
12578W        W55516   1.247  19.158  17.248  0.4821  0.1863  0.4161
12579W        W55517   1.974  21.177  18.762 -0.1393 -0.0021  0.1423
12580W        W55518   4.726  19.918  18.909  0.1803 -0.0379  0.6531
12581W        W55519   2.072  17.131  17.989 -0.2262 -0.2082 -0.3049
12582W        W55520   1.852  20.404  21.411  0.0695  0.2505 -0.0931
12583W        W55521   1.402  21.050  17.412  0.0607 -0.0492 -0.1718
12584W        W55522   2.770  17.816  18.050  0.3698  0.0755 -0.2071
12585W        W55523   0.747  21.493  20.259  0.0806  0.0466  0.0732
12586W        W55524  33.719  20.552  19.746  0.1472  0.3852  0.1926
12587W        W55525   0.442  21.614  18.481 -0.0613  0.1495  0.4357
12588W        W55526   2.238  18.096  18.817  0.1394 -0.2683  0.0710
12589W        W55527   2.176  20.678  18.975 -0.0613 -0.2004 -0.4288
12590W        W55528   0.298  19.479  17.380  0.1874 -0.1648  0.1667
12591W        W55529   3.058  21.016  19.495  0.0154  0.0240  0.2460
12592W        W55530   1.418  20.627  20.160  0.0743  0.2567 -0.0480
12593W        W55531   1.263  20.028  16.896 -0.0745  0.1066  0.0274
12594W        W55532   0.522  21.098  20.397  0.2035  0.0689  0.3262
12595W        W55533   2.362  20.460  19.632  0.2029 -0.0877  0.1705
12596W        W55534   1.268  21.336  18.481 -0.1062  0.0310  0.0309
12597W        W55535  33.075  17.583  20.722 -0.0241  0.1109  0.1851
12598W        W55536   1.448  20.293  19.095 -0.0968  0.0280  0.1402
12599W        W55537   1.348  20.303  17.275  0.1769  0.0519  0.0257
12600W        W55538   0.333  19.004  17.565  0.1464  0.0271  0.0787
12601W        W55539   0.995  19.526  17.033  0.0068 -0.1390 -0.1733
12602W        W55540  33.581  21.413  20.618  0.2320 -0.3909 -0.3235
12603W        W55541  34.412  20.327  19.698  0.1891 -0.0526  0.0077
12604W        W55542  33.900  22.239  19.042 -0.0020  0.3387  0.2263
12605W        W55543   2.508  21.699  16.308  0.3745 -0.1424  0.1046
12606W        W55544   2.225  19.534  17.839 -0.0688 -0.0642  0.3909
12607W        W55545   1.072  21.165  19.962  0.1832  0.0251  0.1163
12608W        W55546   2.044  18.148  18.306  0.1934 -0.1998 -0.1415
12609W        W55547  34.410  21.572  19.288  0.2915 -0.0301  0.1259
12610W        W55548  34.634  20.222  15.992  0.0422 -0.0225 -0.2385
12611W        W55549   2.757  21.249  16.158  0.1514 -0.0788 -0.1434
12612W        W55550  33.931  21.759  18.587 -0.0879 -0.0709 -0.2920
12613W        W55551   1.949  20.974  19.463  0.0014 -0.1574 -0.1039
12614W        W55552   3.557  18.438  17.330 -0.0064 -0.1808  0.3129
12615W        W55553   2.473  19.672  19.792 -0.2030 -0.1870 -0.0474
12616W        W55554   2.278  19.171  17.268  0.3192  0.1016  0.1431
12617W        W55555   1.465  19.645  21.838 -0.3826 -0.0731 -0.0513
12618W        W55556  33.681  19.724  19.286 -0.2957  0.0864 -0.1155
12619W        W55557   0.139  18.387  16.122 -0.0297 -0.0869  0.0527
12620W        W55558  33.987  19.593  20.968 -0.1858  0.0709  0.0493
12621W        W55559   3.429  19.337  19.091  0.1036  0.2519  0.0605
12622W        W55560  33.852  23.163  19.105 -0.4672  0.1356  0.1134
12623W        W55561   3.297  21.776  16.837 -0.0104  0.4026 -0.1512
12624W        W55562  33.464  19.403  18.663  0.0270  0.1613  0.2668
12625W        W55563   0.833  19.458  17.614 -0.2168 -0.1802  0.0718
12626W        W55564   3.525  18.635  19.197 -0.1423  0.0626  0.0205
12627W        W55565   1.113  20.531  16.815  0.0966  0.1485  0.2496
12628W        W55566   1.802  19.547  17.540  0.1686 -0.2492  0.3059
12629W        W55567   1.921  22.269  19.500 -0.1263  0.6019 -0.3262
12630W        W55568  33.255  20.584  19.846 -0.0591 -0.0052 -0.0850
12631W        W55569   0.800  21.247  18.315 -0.0239 -0.2217  0.2402
12632W        W55570   0.016  18.578  17.292 -0.0585 -0.1193  0.0338
12633W        W55571   3.022  20.246  19.068  0.0177  0.1271 -0.0601
12634W        W55572   0.427  20.671  18.877  0.1429 -0.2868  0.1278
12635W        W55573   4.079  20.360  18.445 -0.4793 -0.0048  0.2325
12636W        W55574  34.427  21.312  17.496 -0.0968  0.2929 -0.0978
12637W        W55575   2.623  19.092  19.737 -0.0856 -0.1584  0.3831
12638W        W55576  34.628  20.741  19.606 -0.2498  0.0962  0.2324
12639W        W55577  34.343  19.989  17.676  0.0750 -0.2186  0.1343
12640W        W55578   1.695  19.806  16.682  0.0962  0.0355  0.1203
12641W        W55579   3.577  20.004  19.052 -0.0401  0.1232 -0.2742
12642W        W55580   1.795  20.582  16.423 -0.2011 -0.1992 -0.1093
12643W        W55581   3.498  21.717  19.095  0.0787  0.5197  0.2663
12644W        W55582  34.621  18.724  18.392 -0.1227  0.2599  0.0536
12645W        W55583   1.794  19.005  17.226  0.1781  0.0701 -0.0927
12646W        W55584  33.514  21.228  17.419  0.1408  0.1345 -0.2909
12647W        W55585  34.281  19.747  19.622 -0.3028  0.0600 -0.3047
12648W        W55586   1.219  21.328  19.061  0.2393  0.1518 -0.0667
12649W        W55587  33.727  17.012  18.932  0.2075 -0.3098 -0.0629
12650W        W55588   3.086  21.589  16.447  0.2366  0.2436  0.2664
12651W        W55589   1.184  20.891  18.776  0.0652 -0.0066 -0.1462
12652W        W55590   1.927  20.984  17.199 -0.4244  0.0609 -0.1326
12653W        W55591   1.952  19.908  18.051 -0.0741 -0.0383 -0.2125
12654W        W55592   3.940  22.555  18.923 -0.1094 -0.2166 -0.0340
12655W        W55593  33.592  18.066  19.319 -0.1274  0.2071  0.1043
12656W        W55594   2.010  21.765  19.549 -0.1770  0.0967  0.2054
12657W        W55595   3.437  21.090  19.182 -0.0283  0.2723 -0.3996
12658W        W55596   1.761  17.702  18.143  0.1617  0.0416 -0.2134
12659W        W55597   0.027  19.083  18.010  0.1516 -0.0888 -0.5122
12660W        W55598   0.168  22.931  17.541  0.2197  0.1115 -0.3706
12661W        W55599   2.655  20.963  17.552 -0.0189  0.2393  0.5827
12662W        W55600   3.292  19.918  19.948  0.0613 -0.2406  0.0942
12663W        W55601   1.055  21.290  16.253  0.0005  0.0632  0.0737
12664W        W55602   3.409  20.565  19.131  0.1299  0.0678  0.3388
12665W        W55603   0.371  21.298  19.902  0.1218 -0.0829  0.0362
12666W        W55604   0.862  20.402  20.715  0.2991  0.0260 -0.1774
12667W        W55605  33.847  19.970  17.638 -0.0876  0.0964 -0.0337
12668W        W55606   0.906  20.069  18.901  0.0894 -0.0054 -0.4007
12669W        W55607   1.773  20.011  17.214  0.2502  0.0086 -0.0609
12670W        W55608   0.876  20.795  16.341  0.2584  0.3733  0.0109
12671W        W55609   3.391  22.669  17.620  0.5022 -0.5625  0.1836
12672W        W55610   1.470  19.598  17.165 -0.0564  0.1580 -0.0975
12673W        W55611   2.469  21.398  17.852 -0.0167  0.0660  0.1303
12674W        W55612   0.613  19.780  18.572 -0.0665  0.1467  0.3314
12675W        W55613   2.379  18.599  18.995 -0.0073 -0.0949 -0.3768
12676W        W55614   2.505  17.948  16.588 -0.0548 -0.0686  0.3792
12677W        W55615   0.523  19.072  20.690  0.0221  0.0254  0.1657
12678W        W55616  34.597  19.190  16.591 -0.1612  0.0540 -0.3150
12679W        W55617   0.405  20.112  16.827 -0.0202  0.0924  0.1403
12680W        W55618  34.473  21.467  18.354 -0.1622  0.0294 -0.1501
12681W        W55619   0.691  18.958  19.100 -0.1737  0.0684  0.0738
12682W        W55620  33.992  18.927  19.172  0.1074 -0.0660  0.1556
12683W        W55621  33.250  20.082  19.685 -0.0796  0.0211  0.0497
12684W        W55622  34.231  18.981  18.304  0.0372  0.1231 -0.1090
12685W        W55623   2.106  20.551  16.921 -0.2195 -0.1663  0.1280
12686W        W55624   1.490  19.873  18.755 -0.2764  0.2142  0.2394
12687W        W55625  33.874  19.140  18.622  0.0361 -0.2194  0.1222
12688W        W55626   2.200  21.321  16.353 -0.1984 -0.0184  0.1569
12689W        W55627   1.403  22.095  17.602 -0.0885 -0.0793  0.0716
12690W        W55628   1.038  18.453  17.019 -0.0299 -0.0486 -0.1830
12691W        W55629   4.396  22.677  19.776  0.1139 -0.0466 -0.2020
12692W        W55630  33.206  21.339  16.947 -0.0999  0.0584 -0.1532
12693W        W55631   0.204  19.555  20.859 -0.0844  0.1011  0.1381
12694W        W55632   1.457  19.695  18.247  0.1705  0.0469 -0.0826
12695W        W55633  34.672  18.125  16.487  0.4157 -0.0613  0.2373
12696W        W55634   0.145  19.120  18.756  0.0960 -0.0697  0.0020
12697W        W55635  34.494  21.170  19.703 -0.0591  0.0849 -0.2097
12698W        W55636   1.352  20.614  17.729 -0.1393 -0.1659 -0.1801
12699W        W55637   0.422  19.485  19.975 -0.0611  0.1721 -0.1303
12700W        W55638   1.013  20.923  20.407 -0.2038 -0.1923 -0.2396
12701W        W55639   0.064  18.205  18.496  0.1514 -0.1528  0.0526
12702W        W55640   2.322  20.270  18.017 -0.0166  0.0817  0.0256
12703W        W55641   0.864  20.370  19.720  0.2310  0.0516  0.1274
12704W        W55642   3.467  21.306  16.930 -0.0725  0.1043 -0.0371
12705W        W55643   2.854  20.125  18.546 -0.2734 -0.1625  0.1316
12706W        W55644   2.191  20.164  17.482 -0.3501 -0.0185 -0.0128
12707W        W55645  34.326  18.919  18.765 -0.1067 -0.1114 -0.2295
12708W        W55646   1.070  19.096  20.652 -0.1411 -0.0838  0.0061
12709W        W55647   2.012  20.234  18.972 -0.0152  0.2903 -0.0828
12710W        W55648   0.811  18.789  17.522  0.0907 -0.2693  0.0513
12711W        W55649   1.884  18.469  17.404 -0.1312 -0.2383  0.0702
12712W        W55650   1.099  21.851  16.298  0.3765 -0.0064  0.0524
12713W        W55651  33.239  19.830  19.041 -0.2146  0.2980 -0.1660
12714W        W55652   1.808  18.527  16.855 -0.1592 -0.2000 -0.1774
12715W        W55653   1.365  19.700  19.249  0.0289  0.1171  0.1448
12716W        W55654   0.533  20.256  18.507  0.1298  0.0661 -0.0704
12717W        W55655   3.544  19.017  20.370  0.2643 -0.1005 -0.1153
12718W        W55656  34.684  20.439  16.860  0.0617  0.1231 -0.2160
12719W        W55657   4.389  19.804  17.601  0.4704 -0.1759 -0.1635
12720W        W55658   1.870  20.581  19.909  0.1992  0.1418 -0.0043
12721W        W55659   3.186  21.497  19.479 -0.3881 -0.1596 -0.1653
12722W        W55660   0.743  21.629  19.784  0.3480 -0.2786  0.0814
12723W        W55661   0.706  22.129  18.389 -0.2434 -0.0329  0.1913
12724W        W55662   0.782  17.673  18.059  0.0851 -0.1794  0.2377
12725W        W55663  34.331  20.331  17.305  0.2834  0.3401 -0.1424
12726W        W55664   1.330  21.650  18.087 -0.0619  0.1997  0.0729
12727W        W55665   1.355  19.310  19.663  0.3227  0.0027 -0.0024
12728W        W55666   0.352  20.748  18.395 -0.0423  0.0817  0.2140
12729W        W55667   2.259  18.809  16.237 -0.2156 -0.0499  0.0240
12730W        W55668   0.692  20.844  19.950 -0.2912  0.0296 -0.0946
12731W        W55669   1.895  20.518  19.382 -0.0773 -0.0255 -0.0226
12732W        W55670   1.287  22.009  24.244  0.0131 -0.0593  0.2024
12733W        W55671  34.400  19.264  19.157  0.4166 -0.2558  0.0853
12734W        W55672   3.370  18.517  21.004 -0.0792 -0.1687 -0.0251
12735W        W55673   2.258  20.288  21.059  0.5234 -0.3942  0.5039
12736W        W55674  34.454  18.984  21.946  0.0130 -0.2757  0.2736
12737W        W55675   1.417  20.451  21.193 -0.1625 -0.2929  0.5872
12738W        W55676   0.331  17.860  23.462  0.0554  0.1160  0.1899
12739W        W55677   2.758  20.951  23.621 -0.0083  0.5345  0.0053
12740W        W55678   3.120  22.108  23.359 -0.3478 -0.0618 -0.1711
12741W        W55679   1.660  20.208  20.539  0.0020  0.0027  0.0670
12742W        W55680   0.792  19.772  22.101 -0.1021  0.2151  0.1616
12743W        W55681   2.531  21.365  22.279 -0.1226 -0.0630  0.0456
12744W        W55682   1.200  18.327  22.352  0.0291 -0.2425  0.2628
12745W        W55683  34.378  17.477  21.069  0.2123  0.0822  0.0721
12746W        W55684   2.798  18.035  22.174  0.3870  0.0207  0.0514
12747W        W55685  34.420  20.325  21.091 -0.1304  0.0447 -0.1795
12748W        W55686   0.329  19.738  23.610  0.1137 -0.0241  0.1583
12749W        W55687   0.603  19.092  20.234 -0.3884 -0.1306  0.1572
12750W        W55688   3.308  22.214  22.885 -0.5028 -0.0899  0.0933
12751W        W55689   1.452  19.592  24.004 -0.1619 -0.1701  0.1523
12752W        W55690   1.526  19.042  23.065  0.2992  0.1960  0.2142
12753W        W55691   1.418  21.672  22.707  0.0931 -0.0450  0.0545
12754W        W55692  34.478  19.513  21.791  0.0733 -0.0548 -0.0191
12755W        W55693  34.564  20.092  21.844  0.1654 -0.0664 -0.2607
12756W        W55694   0.808  19.583  22.761 -0.0805 -0.1929 -0.1296
12757W        W55695   3.278  19.604  22.685  0.0796  0.3942 -0.0873
12758W        W55696   2.949  19.029  21.281 -0.1104  0.1623  0.2188
12759W        W55697   0.494  19.999  21.695 -0.0313  0.1278 -0.1103
12760W        W55698   2.147  21.131  22.031 -0.0042 -0.1692  0.1476
12761W        W55699   5.267  20.303  22.837  0.2576  0.1477  0.0626
12762W        W55700  34.580  21.088  22.087 -0.3300  0.0761  0.0331
12763W        W55701   0.414  20.914  21.415  0.0623 -0.2446  0.0905
12764W        W55702   2.178  21.226  21.512 -0.0754  0.0171  0.1525
12765W        W55703   3.994  21.325  20.977 -0.1802  0.1021  0.0762
12766W        W55704   3.051  21.991  24.750 -0.0970  0.2697 -0.0124
12767W        W55705   1.643  21.833  23.766 -0.0258 -0.0696  0.3180
12768W        W55706   0.427  20.666  20.545 -0.0703  0.2248 -0.2208
12769W        W55707   1.884  20.800  23.727 -0.0893  0.4620  0.2948
12770W        W55708   1.207  20.769  23.037  0.1369  0.1255  0.0987
12771W        W55709   3.046  20.748  23.965  0.0556  0.2443  0.0302
12772W        W55710   0.612  18.667  21.506 -0.2147  0.3322 -0.2396
12773W        W55711   2.063  19.448  21.837  0.0074 -0.1798  0.2694
12774W        W55712   2.290  20.104  22.054  0.0501 -0.0329 -0.0128
12775W        W55713   0.714  20.986  23.770  0.1849  0.0036  0.1780
12776W        W55714   1.075  21.978  23.123 -0.0376 -0.2625 -0.1260
12777W        W55715   2.911  17.353  24.600  0.0553 -0.1030 -0.1254
12778W        W55716   0.518  20.566  21.066 -0.3382  0.0951 -0.1320
12779W        W55717   4.109  19.267  19.844 -0.0673  0.2725  0.1310
12780W        W55718  33.975  20.085  21.166 -0.0043  0.2911 -0.1361
12781W        W55719   2.240  20.012  19.411 -0.1344  0.0359 -0.2794
12782W        W55720   1.790  19.062  23.573 -0.0055  0.3203  0.1948
12783W        W55721   1.465  22.317  20.934  0.0888  0.0483  0.1057
12784W        W55722   2.596  19.160  23.111  0.0389  0.2524 -0.1222
12785W        W55723   3.482  20.421  22.572  0.1917  0.2379 -0.0296
12786W        W55724   1.647  19.526  20.896  0.1754 -0.0779  0.0629
12787W        W55725   2.484  18.960  21.744  0.1384  0.1445  0.0970
12788W        W55726   1.508  20.502  23.502 -0.0794 -0.1789 -0.2885
12789W        W55727   1.610  18.638  22.216  0.3051  0.2297 -0.0363
12790W        W55728   2.033  21.657  18.918  0.1363  0.0351  0.2148
12791W        W55729   3.067  22.304  22.147 -0.0740  0.1560  0.0498
12792W        W55730   0.897  21.322  20.712 -0.1711 -0.4858  0.0456
12793W        W55731  34.573  19.249  21.215 -0.1825 -0.4323 -0.1426
12794W        W55732   0.234  20.568  23.211 -0.1520  0.2370 -0.2285
12795W        W55733   1.805  21.161  24.660 -0.3843  0.0185 -0.3117
12796W        W55734  34.352  18.767  20.495 -0.1396 -0.0492 -0.0127
12797W        W55735   3.059  20.914  24.439  0.2545 -0.2641  0.0305
12798W        W55736   1.099  19.826  24.410 -0.1702 -0.2278 -0.2726
12799W        W55737   2.241  19.373  20.165  0.1203 -0.2477  0.0560
12800W        W55738   0.377  19.029  21.158  0.0820  0.0718  0.2712
12801W        W55739   3.069  21.336  23.897  0.1266  0.0157 -0.1033
12802W        W55740   1.263  19.528  20.485 -0.0607  0.1527 -0.1323
12803W        W55741   2.504  19.613  20.604  0.3564 -0.0616 -0.0362
12804W        W55742   2.797  18.372  24.428  0.0610 -0.0543 -0.0734
12805W        W55743   0.619  19.557  20.495 -0.1324  0.0594  0.2504
12806W        W55744  33.975  19.931  20.502  0.3037  0.1070 -0.0205
12807W        W55745   3.558  22.284  23.285 -0.0835  0.2950  0.2133
12808W        W55746   2.189  20.072  19.960 -0.1523 -0.1331 -0.2099
12809W        W55747  34.401  23.323  22.437 -0.5415 -0.0591 -0.1075
12810W        W55748   3.147  20.050  22.572  0.1808 -0.0680  0.2693
12811W        W55749   1.483  20.049  23.134 -0.0570 -0.0796 -0.0911
12812W        W55750   1.798  23.593  20.031  0.0428  0.1590  0.1768
12813W        W55751  34.453  19.882  20.437  0.0580  0.2201  0.1147
12814W        W55752  34.161  21.072  21.396 -0.2403  0.2231 -0.1587
12815W        W55753   0.346  18.959  23.610 -0.0997 -0.0452 -0.0728
12816W        W55754   1.402  19.868  22.589  0.3151 -0.0486  0.3014
12817W        W55755   2.673  18.461  20.427 -0.1456  0.0185  0.1093
12818W        W55756  33.551  20.517  22.810 -0.0674 -0.1781  0.1076
12819W        W55757   3.003  18.274  20.850 -0.1475 -0.1448 -0.2738
12820W        W55758   0.099  19.446  20.368 -0.2521 -0.0133 -0.1427
12821W        W55759   3.849  21.959  20.734  0.2092  0.1639  0.1483
12822W        W55760   2.357  18.853  20.158  0.0461 -0.2042 -0.0771
12823W        W55761   3.205  21.313  18.748 -0.3196  0.0606  0.3947
12824W        W55762  34.476  19.231  22.369 -0.1467  0.1146 -0.1464
12825W        W55763   1.153  18.929  22.287  0.1647 -0.1326  0.2746
12826W        W55764   1.039  19.921  23.936 -0.0845 -0.1894  0.2781
12827W        W55765   0.645  18.987  21.877  0.0429  0.0674  0.1748
12828W        W55766   3.501  19.422  23.160  0.0444 -0.0661  0.1764
12829W        W55767  34.095  18.390  20.722  0.1783  0.1591  0.1306
12830W        W55768   1.851  19.913  22.851 -0.0647 -0.0774 -0.2529
12831W        W55769   1.300  18.433  20.886 -0.1526  0.2579  0.2471
12832W        W55770  33.862  20.634  21.331  0.1414  0.2079 -0.0868
12833W        W55771   2.455  19.441  24.299  0.1909  0.0544  0.0805
12834W        W55772   1.796  21.532  21.329 -0.4392  0.0057  0.2217
12835W        W55773   3.051  23.627  23.256  0.0381 -0.0976  0.1792
12836W        W55774   1.849  21.412  22.914  0.1803  0.0178  0.0088
12837W        W55775  34.077  19.311  23.222 -0.0191 -0.0810  0.0682
12838W        W55776  34.215  18.524  22.002  0.1032 -0.2157 -0.0195
12839W        W55777  34.192  23.781  22.709  0.0413  0.2255  0.1324
12840W        W55778   0.831  20.554  21.520 -0.0802 -0.3125 -0.1862
12841W        W55779   0.372  18.672  18.793  0.2766  0.0031  0.0467
12842W        W55780   2.641  21.309  21.292  0.2947 -0.0803 -0.1850
12843W        W55781   2.523  20.087  20.410 -0.1381 -0.1602 -0.0723
12844W        W55782   2.361  19.693  22.899  0.0229 -0.0349  0.2724
12845W        W55783   2.327  18.445  24.495 -0.0693  0.2852 -0.2008
12846W        W55784   3.695  21.095  22.935 -0.2860  0.1008  0.1088
12847W        W55785   1.461  19.978  21.411  0.0576 -0.2494  0.0010
12848W        W55786  33.639  18.817  19.934 -0.0880 -0.3446 -0.0261
12849W        W55787   1.923  21.872  22.640  0.1658  0.0995 -0.2072
12850W        W55788  34.518  21.541  20.610  0.0214  0.0343  0.1780
12851W        W55789   0.261  19.114  22.144 -0.1243  0.0609 -0.3020
12852W        W55790   2.587  20.073  22.526  0.2241 -0.1569  0.1687
12853W        W55791   2.995  18.670  22.068  0.0711 -0.5051 -0.0839
12854W        W55792   1.729  20.879  25.024 -0.0595  0.0028  0.2514
12855W        W55793   3.754  20.738  23.708  0.1145  0.3026  0.0940
12856W        W55794   1.076  18.032  21.059 -0.0880 -0.1600 -0.1784
12857W        W55795   0.565  22.745  24.220  0.0837  0.0576  0.2471
12858W        W55796   2.779  18.755  20.846  0.3312  0.2121  0.0492
12859W        W55797   2.347  21.021  19.766  0.0070 -0.0389 -0.0034
12860W        W55798   3.193  21.401  24.588 -0.4584 -0.1318  0.2661
12861W        W55799   2.621  21.575  20.790 -0.0103  0.0083 -0.2704
12862W        W55800   1.964  19.667  19.689 -0.0451 -0.1698  0.0775
12863W        W55801   1.625  17.884  21.034 -0.0136  0.0713 -0.0601
12864W        W55802   0.303  21.657  24.198 -0.3922 -0.2058 -0.0713
12865W        W55803   1.618  20.856  21.351 -0.1477  0.1828  0.2349
12866W        W55804   1.399  20.488  22.356 -0.0710 -0.1549 -0.3081
12867W        W55805   1.032  19.386  19.184  0.0064  0.2615  0.0735
12868W        W55806   3.736  22.215  19.455 -0.0592 -0.0238  0.2575
12869W        W55807  34.538  22.039  22.265 -0.2148  0.1825  0.1000
12870W        W55808   2.062  19.291  23.158 -0.2372  0.3178  0.3126
12871W        W55809   1.667  21.141  21.783 -0.1006 -0.0160  0.1434
12872W        W55810   1.957  19.333  24.034  0.1440 -0.2736  0.0034
12873W        W55811   1.298  19.876  19.755  0.1603 -0.0292 -0.2378
12874W        W55812   1.436  18.028  22.018  0.2810 -0.0371 -0.1342
12875W        W55813   0.880  22.509  20.353 -0.0981  0.1116  0.0926
12876W        W55814   2.967  19.852  23.016  0.1631 -0.0418 -0.1683
12877W        W55815   1.082  19.231  21.854  0.2456  0.1006  0.2935
12878W        W55816   2.486  18.378  22.362 -0.0169  0.0547 -0.2052
12879W        W55817   3.288  17.671  24.355  0.2048 -0.0854  0.1667
12880W        W55818   1.854  18.910  20.197 -0.0408  0.0038  0.2287
12881W        W55819   2.109  18.675  22.476 -0.2048  0.0005 -0.2006
12882W        W55820  34.290  20.364  20.621 -0.0277  0.1656  0.1269
12883W        W55821   2.971  18.523  21.304  0.1825  0.1691 -0.0408
12884W        W55822   1.037  20.607  24.368  0.2281  0.2380 -0.3590
12885W        W55823  34.302  22.338  22.545 -0.0542 -0.0370  0.2527
12886W        W55824   2.549  21.724  23.919 -0.2431  0.2070 -0.0676
12887W        W55825   2.193  19.763  22.466 -0.6012 -0.2775  0.1822
12888W        W55826   1.377  18.761  23.468  0.0629 -0.2086  0.3013
12889W        W55827   1.110  20.049  20.238 -0.0039  0.1098 -0.1056
12890W        W55828   1.670  20.117  20.014  0.2440 -0.2514  0.1895
12891W        W55829   1.839  19.593  21.400  0.0058  0.0301 -0.0524
12892W        W55830   2.867  19.353  22.630  0.1607 -0.2199  0.2118
12893W        W55831   1.953  21.537  21.804  0.1168 -0.0230 -0.1497
12894W        W55832   1.388  20.571  20.731 -0.1105  0.2070  0.0220
12895W        W55833   2.868  19.768  22.193 -0.0967 -0.1726 -0.0317
12896W        W55834   1.798  20.101  21.764  0.1479  0.1863 -0.0185
12897W        W55835   3.145  19.163  20.847  0.3744  0.0827 -0.0230
12898W        W55836   0.417  21.940  22.354  0.1677 -0.2509 -0.2846
12899W        W55837  34.279  18.122  20.029  0.3264  0.0607 -0.0145
12900W        W55838  33.891  20.062  21.659  0.0433 -0.2365  0.2233
12901W        W55839   2.428  18.313  20.908  0.0672  0.0843 -0.0760
12902W        W55840   2.306  20.829  21.114  0.2090 -0.3765  0.2024
12903W        W55841   1.634  19.543  23.105  0.2988 -0.0851 -0.0387
12904W        W55842   2.453  18.806  21.245  0.0901 -0.1170 -0.0098
12905W        W55843   0.470  21.539  21.052  0.1632 -0.1561  0.1152
12906W        W55844   2.408  20.945  24.495  0.0569 -0.1175 -0.2652
12907W        W55845   0.968  18.670  20.027  0.2104 -0.0499  0.0452
12908W        W55846   2.632  21.491  24.538 -0.1614 -0.3882  0.0816
12909W        W55847   2.599  21.443  23.559  0.4111  0.1010  0.1114
12910W        W55848  33.300  19.671  20.037  0.2471 -0.0494  0.0471
12911W        W55849   2.478  19.382  22.184  0.0821  0.0549 -0.2955
12912W        W55850   1.011  18.443  23.253  0.0593 -0.3502 -0.1276
12913W        W55851   0.142  19.727  21.447  0.2745 -0.0225 -0.0730
12914W        W55852   2.042  21.467  22.421 -0.0359  0.0372 -0.0898
12915W        W55853  34.621  18.392  20.708 -0.1521  0.1031  0.1681
12916W        W55854   0.283  21.260  21.765  0.1217  0.2333 -0.5298
12917W        W55855  34.160  21.373  22.871 -0.1093 -0.2382 -0.5618
12918W        W55856   3.514  19.130  22.702  0.1097  0.1339  0.0099
12919W        W55857   2.799  19.108  20.495 -0.1779 -0.4309  0.3984
12920W        W55858   0.609  18.236  21.169 -0.0813 -0.3045  0.2874
12921W        W55859   2.793  20.157  19.891  0.1553 -0.2653  0.1897
12922W        W55860   3.021  21.103  21.958  0.0136  0.0359 -0.1306
12923W        W55861   3.293  18.189  24.473 -0.3217 -0.0652  0.0387
12924W        W55862   0.462  22.538  23.783  0.1760  0.0342 -0.1442
12925W        W55863   1.400  18.143  23.374  0.0954  0.1659  0.0188
12926W        W55864   4.412  22.017  21.359  0.0957  0.1289 -0.1362
12927W        W55865   2.982  19.425  24.284 -0.3542 -0.0539  0.0437
12928W        W55866  34.308  18.145  22.327 -0.0469 -0.2509 -0.0393
12929W        W55867  34.108  19.739  23.484 -0.1111 -0.0550 -0.1191
12930W        W55868   1.487  18.814  21.147 -0.1237  0.3173 -0.1621
12931W        W55869   0.863  19.069  22.664 -0.0798 -0.0773 -0.1384
12932W        W55870   0.218  20.195  22.897  0.0491  0.3159 -0.1576
12933W        W55871   0.189  20.184  21.160  0.1816 -0.0386 -0.0383
12934W        W55872  34.603  19.810  23.294  0.0795  0.0018  0.3565
12935W        W55873   3.148  18.665  19.534  0.1303 -0.1753 -0.2315
12936W        W55874   0.640  19.935  19.807 -0.1763 -0.0570 -0.1575
12937W        W55875   0.958  19.680  21.533  0.3920  0.4146 -0.1288
12938W        W55876   2.473  17.116  23.904  0.2673  0.2439 -0.0438
12939W        W55877   2.091  19.909  20.753  0.0803  0.1670  0.1387
12940W        W55878   2.807  16.569  23.941 -0.4735 -0.0205  0.0179
12941W        W55879   0.833  18.150  22.670 -0.0170 -0.0811 -0.2176
12942W        W55880   2.957  20.526  22.686  0.1853  0.0800  0.0574
12943W        W55881   0.732  19.298  22.228 -0.3700  0.0393 -0.0632
12944W        W55882   2.235  21.812  24.282  0.3793 -0.3186 -0.1415
12945W        W55883  34.075  18.904  22.327 -0.1605 -0.0686 -0.1434
12946W        W55884   1.969  18.715  21.331 -0.0307 -0.0945 -0.1971
12947W        W55885  34.161  18.293  21.524 -0.1671 -0.1253  0.2100
12948W        W55886   0.719  20.091  22.740 -0.1548  0.0528  0.1032
12949W        W55887   3.639  19.974  22.402 -0.2320 -0.0338  0.4247
12950W        W55888  34.515  19.879  20.999 -0.0899  0.4157  0.2169
12951W        W55889   2.987  19.148  21.852 -0.1917  0.1007 -0.0757
12952W        W55890   0.037  19.233  23.879  0.0666  0.7291  0.1359
12953W        W55891   2.762  20.090  21.476  0.3043 -0.2119  0.0297
12954W        W55892   1.679  19.437  20.090 -0.2424 -0.0533  0.2059
12955W        W55893   0.044  21.555  22.515 -0.1856 -0.0345 -0.1682
12956W        W55894  33.392  19.537  24.047  0.1067 -0.0639  0.1405
12957W        W55895   3.369  19.648  22.177  0.0746  0.0667 -0.0258
12958W        W55896   1.953  18.169  22.349  0.1932 -0.0118 -0.1826
12959W        W55897   4.439  18.822  21.672 -0.2791 -0.2463  0.0673
12960W        W55898   3.850  18.714  23.954 -0.1048 -0.2219  0.0709
12961W        W55899   2.318  19.333  23.575 -0.2056  0.0584 -0.3036
12962W        W55900   1.518  19.743  25.069  0.0968  0.1583  0.2557
12963W        W55901   2.122  21.970  23.715  0.2150 -0.0525  0.2713
12964W        W55902   2.755  19.986  19.427 -0.1438 -0.2220 -0.0833
12965W        W55903   3.309  18.185  22.858 -0.1514  0.3485 -0.1937
12966W        W55904   3.290  20.820  20.788 -0.1410 -0.0364 -0.2215
12967W        W55905   1.955  19.789  20.275  0.1756  0.2330  0.2242
12968W        W55906   0.672  18.719  22.949  0.1122  0.1124 -0.2450
12969W        W55907   3.528  21.217  23.893 -0.0716  0.0837 -0.0887
12970W        W55908   1.056  19.884  17.868  0.0262  0.0515 -0.1962
12971W        W55909   2.824  17.123  23.552  0.0612 -0.1864 -0.1824
12972W        W55910   2.577  21.054  21.807 -0.0983 -0.0986  0.0391
12973W        W55911   2.374  22.821  23.915 -0.1615  0.0500  0.0394
12974W        W55912   3.340  19.726  21.203  0.1245  0.1498 -0.0353
12975W        W55913   0.176  19.392  23.268  0.0291 -0.1124 -0.0761
12976W        W55914   1.054  20.088  21.773  0.0560 -0.3085  0.1670
12977W        W55915   1.003  20.548  19.077  0.0457  0.1525 -0.0731
12978W        W55916   1.208  19.115  20.169  0.1984 -0.1587 -0.1413
12979W        W55917   1.373  21.257  22.958  0.2259  0.1907 -0.0085
12980W        W55918   3.650  21.172  24.513 -0.0065  0.1090 -0.0847
12981W        W55919   1.044  17.405  21.419 -0.0262 -0.2762 -0.1930
12982W        W55920   3.413  19.695  23.907 -0.0360  0.0951 -0.1864
12983W        W55921  33.551  20.009  20.763  0.2773 -0.0217  0.0708
12984W        W55922   0.905  17.746  23.035 -0.1165  0.0153  0.1647
12985W        W55923   0.636  20.593  22.921 -0.2046 -0.0316 -0.1343
12986W        W55924   1.019  20.494  23.881  0.2843  0.2515  0.2824
12987W        W55925   2.112  20.986  22.513 -0.1042 -0.2606 -0.0112
12988W        W55926   2.550  18.570  24.046 -0.0363  0.0468 -0.1202
12989W        W55927   0.972  20.161  22.358 -0.3423  0.1013  0.4226
12990W        W55928   3.240  20.199  22.079 -0.1942 -0.2831  0.0496
12991W        W55929   3.680  20.221  23.580 -0.0275 -0.0056  0.2317
12992W        W55930   1.917  20.274  23.268  0.0657 -0.1326  0.1839
12993W        W55931   1.914  18.826  22.913 -0.1571  0.2953  0.1990
12994W        W55932   3.022  21.724  24.256  0.1356 -0.1351 -0.0239
12995W        W55933   1.094  19.557  21.015  0.1039 -0.0013  0.1008
12996W        W55934   0.370  19.774  23.045  0.1398 -0.1985  0.1702
12997W        W55935  33.743  18.461  23.117  0.1785  0.0137  0.1635
12998W        W55936   2.401  20.704  24.030 -0.1806 -0.1339  0.2232
12999W        W55937   2.710  20.252  21.983 -0.0966  0.0441  0.2901
13000W        W55938   2.171  17.313  22.193  0.0906  0.0093  0.3856
13001W        W55939   0.032  19.857  19.904 -0.1160 -0.0576 -0.1748
13002W        W55940   0.565  22.207  22.803  0.0041 -0.0538  0.2117
13003W        W55941   1.184  20.287  22.823 -0.0661  0.1757  0.1108
13004W        W55942  34.506  20.828  20.147 -0.0580  0.3939 -0.2572
13005W        W55943   1.853  20.522  20.913 -0.2554 -0.0341 -0.5295
13006W        W55944   1.860  19.428  22.613  0.0465 -0.1898 -0.2574
13007W        W55945   2.151  22.130  23.016 -0.1738  0.1739  0.3622
13008W        W55946  34.501  19.342  19.904  0.1175  0.2245 -0.1295
13009W        W55947   1.091  20.591  22.040 -0.2215 -0.1178 -0.0870
13010W        W55948  32.964  19.497  18.714 -0.3293 -0.2084 -0.2546
13011W        W55949   2.814  21.716  21.567 -0.1806 -0.0327  0.1088
13012W        W55950  34.363  21.835  21.738  0.0923  0.2028  0.1364
13013W        W55951   3.240  22.162  24.199  0.1558 -0.1499 -0.3692
13014W        W55952   2.676  19.579  19.109 -0.1421  0.1678  0.3377
13015W        W55953   3.423  19.258  21.317 -0.0501 -0.0736 -0.0425
13016W        W55954   4.183  18.458  21.431 -0.0273  0.0653 -0.4464
13017W        W55955   2.906  19.784  23.864 -0.1320 -0.2990 -0.0512
13018W        W55956   1.929  20.221  22.382  0.2506 -0.4162 -0.0630
13019W        W55957   0.170  19.021  19.737 -0.2234 -0.0337 -0.0285
13020W        W55958   2.712  19.685  23.383  0.0549 -0.0222 -0.2897
13021W        W55959   2.467  19.779  21.078  0.1417  0.1826  0.0066
13022W        W55960   1.064  21.443  22.406 -0.2953 -0.0933  0.1574
13023W        W55961   3.468  22.193  20.481 -0.3158  0.2059  0.0461
13024W        W55962  34.211  18.964  21.504  0.0133 -0.0488 -0.1285
13025W        W55963  34.696  17.318  22.809 -0.1747 -0.1230 -0.0572
13026W        W55964   3.233  17.675  21.908 -0.2120 -0.2342  0.0066
13027W        W55965   1.735  20.818  20.489 -0.0257 -0.0703  0.0448
13028W        W55966   2.041  19.123  22.201  0.2121 -0.0230 -0.0773
13029W        W55967   1.144  21.963  23.715 -0.1220  0.1262  0.3327
13030W        W55968  34.505  19.668  23.808  0.1529  0.1952 -0.2628
13031W        W55969   2.158  21.133  23.236  0.2388 -0.2122  0.2285
13032W        W55970  33.105  19.549  19.548 -0.2479  0.2584 -0.0405
13033W        W55971   5.145  20.542  21.729 -0.1987  0.1558  0.1034
13034W        W55972   3.562  19.547  21.686 -0.3151  0.2405  0.0482
13035W        W55973   3.300  18.127  22.334 -0.4335 -0.1691 -0.3857
13036W        W55974   0.572  19.817  21.189  0.0801 -0.0713  0.1105
13037W        W55975   2.054  20.729  21.676  0.1231  0.1736 -0.0752
13038W        W55976   1.663  20.458  22.818  0.0077 -0.0179  0.0591
13039W        W55977   0.381  20.068  22.213  0.0066  0.0584  0.0561
13040W        W55978   2.613  19.224  20.939  0.1034 -0.3480  0.0491
13041W        W55979   3.108  20.399  23.181 -0.3555  0.0597  0.2212
13042W        W55980   2.946  19.508  19.861 -0.1144  0.0994 -0.2851
13043W        W55981   1.542  22.047  24.721  0.0097 -0.3432  0.2199
13044W        W55982   1.001  18.636  21.883  0.0362  0.1616  0.7234
13045W        W55983   1.229  18.930  19.329 -0.1830  0.0274  0.1872
13046W        W55984   1.313  21.027  22.160 -0.0416 -0.1149 -0.0214
13047W        W55985   2.834  17.865  24.513 -0.0811  0.1359 -0.1918
13048W        W55986   1.075  21.867  24.673 -0.0023  0.0372  0.1619
13049W        W55987   0.914  16.213  20.640  0.2237  0.1371 -0.1434
13050W        W55988   1.829  21.337  19.751  0.1158  0.1695 -0.0388
13051W        W55989   2.893  18.882  22.769  0.1318  0.0285  0.4681
13052W        W55990   0.101  21.267  21.261  0.2048 -0.0168 -0.1713
13053W        W55991   1.762  19.703  22.230  0.0795  0.0526  0.0326
13054W        W55992   2.234  19.899  21.624  0.2095 -0.1182  0.2114
13055W        W55993   1.203  18.662  22.876  0.3007 -0.1099  0.1571
13056W        W55994   2.599  20.961  22.693  0.1669  0.1698 -0.1564
13057W        W55995   2.842  21.285  23.141 -0.0451 -0.0568  0.2218
13058W        W55996   1.848  18.094  21.695  0.1311  0.3018 -0.1946
13059W        W55997   0.311  17.753  21.411  0.1840 -0.1908  0.1854
13060W        W55998   2.383  19.329  21.386  0.1360 -0.2657 -0.4500
13061W        W55999   3.298  18.741  21.593 -0.2062  0.2547  0.0371
13062W        W56000   2.516  18.895  24.430  0.0012 -0.0027 -0.0875
13063W        W56001   1.056  20.845  21.026  0.0368  0.0859  0.1970
13064W        W56002   2.051  18.470  21.932 -0.0969  0.1150 -0.3135
13065W        W56003   2.443  22.416  23.670 -0.1812 -0.2232 -0.1103
13066W        W56004   2.015  21.514  23.582 -0.0767 -0.2799 -0.2155
13067W        W56005  33.540  19.142  20.357  0.1777 -0.1189  0.0383
13068W        W56006   2.255  20.540  22.848 -0.0184  0.2511  0.0664
13069W        W56007   1.007  20.124  21.172 -0.2188 -0.0096  0.1394
13070W        W56008   0.511  21.405  22.315  0.1489 -0.0068 -0.0874
13071W        W56009   3.179  21.840  22.509 -0.2084  0.0170  0.1434
13072W        W56010   1.086  18.350  21.427  0.2005  0.0608 -0.0012
13073W        W56011   4.367  21.057  20.748 -0.1391  0.1988 -0.2406
13074W        W56012   1.541  19.055  21.863  0.1827 -0.1265 -0.0190
13075W        W56013   2.631  18.450  18.571 -0.0305  0.3027 -0.0563
13076W        W56014   1.949  17.978  20.272 -0.0195 -0.1048 -0.0144
13077W        W56015   0.348  21.245  23.208 -0.1043 -0.3006 -0.1423
13078W        W56016  33.820  18.441  21.152 -0.0494 -0.1263  0.1368
13079W        W56017  34.395  19.450  20.763 -0.0552  0.1506 -0.0732
13080W        W56018   0.483  20.082  20.743  0.3017  0.0908  0.1906
13081W        W56019   2.163  19.861  24.445  0.2482  0.2127  0.0392
13082W        W56020   1.112  20.160  23.462 -0.3087 -0.0567  0.1367
13083W        W56021   0.503  20.588  21.957  0.0153 -0.0268  0.0546
13084W        W56022   0.672  18.209  22.116  0.0813  0.1410  0.0255
13085W        W56023   2.408  20.535  20.132 -0.1352 -0.2304 -0.1294
13086W        W56024   0.513  17.772  21.924  0.0478  0.4966  0.3143
13087W        W56025  34.510  17.942  21.840 -0.0652 -0.1131  0.0876
13088W        W56026   3.662  20.522  21.906 -0.0136 -0.1787  0.1275
13089W        W56027   3.119  21.431  20.974  0.2531  0.0382 -0.0092
13090W        W56028   0.032  18.370  20.208 -0.0943 -0.0549 -0.0631
13091W        W56029   4.948  22.387  23.506  0.0333 -0.1212  0.3359
13092W        W56030  34.154  19.600  20.067 -0.0835  0.1455  0.1866
13093W        W56031   0.847  19.762  23.234  0.5128  0.1771 -0.1224
13094W        W56032   2.255  18.168  23.757  0.3152 -0.0608  0.0866
13095W        W56033  33.745  18.511  18.945 -0.1357 -0.0430 -0.1924
13096W        W56034   2.652  18.960  22.351 -0.0361  0.3938 -0.3924
13097W        W56035   0.730  21.299  21.460  0.1464  0.0546 -0.0117
13098W        W56036   3.199  21.630  20.054 -0.0350  0.2313 -0.1639
13099W        W56037   2.576  20.158  23.129 -0.3397 -0.3022  0.2666
13100W        W56038   1.437  22.509  24.458  0.0200 -0.0215  0.1413
13101W        W56039  33.855  18.970  22.948  0.3370  0.0206 -0.1067
13102W        W56040   2.949  20.597  21.740 -0.1321  0.2334 -0.2425
13103W        W56041   2.309  21.984  24.768  0.0296 -0.0667  0.1262
13104W        W56042   3.529  21.316  20.721 -0.2257  0.3298  0.1994
13105W        W56043   4.490  17.676  21.788  0.3459  0.0175 -0.1371
13106W        W56044   1.410  20.076  22.109  0.0212 -0.3101 -0.1781
13107W        W56045   0.571  19.161  24.009  0.1346 -0.0606  0.1940
13108W        W56046  34.555  20.987  23.082  0.0687  0.4673 -0.2565
13109W        W56047   4.113  20.487  22.331  0.1143 -0.2837 -0.0500
13110W        W56048   1.249  17.559  21.829  0.2418 -0.0807  0.1600
13111W        W56049   3.186  19.356  20.322  0.0602  0.3266 -0.2822
13112W        W56050   3.035  21.171  22.442 -0.0963 -0.0716 -0.0723
13113W        W56051   0.050  20.092  23.701  0.2774  0.1058  0.1791
13114W        W56052   1.201  19.533  22.282  0.1145  0.0772 -0.1061
13115W        W56053   1.217  21.342  24.911  0.1848 -0.0295 -0.1578
13116W        W56054   2.281  20.553  22.337  0.2877 -0.2209 -0.1060
13117W        W56055   3.606  20.569  23.217 -0.0444  0.3574  0.2028
13118W        W56056  33.856  19.463  20.474  0.1658  0.0102  0.1213
13119W        W56057   1.891  21.005  20.935 -0.1183  0.0834  0.0171
13120W        W56058   1.726  20.912  23.080  0.0553  0.0894  0.1334
13121W        W56059   3.049  22.487  24.603 -0.0548  0.1292  0.0581
13122W        W56060   1.658  21.780  23.163 -0.2521 -0.2962  0.0398
13123W        W56061   3.386  20.489  21.131 -0.0054 -0.2984  0.1195
13124W        W56062  34.296  18.775  22.801  0.1060 -0.0184 -0.1502
13125W        W56063   0.222  19.262  21.586 -0.0225  0.1644 -0.1544
13126W        W56064   0.872  18.725  20.952  0.5538  0.1358  0.0667
13127W        W56065   4.643  18.643  21.237 -0.2796 -0.2165  0.1160
13128W        W56066   0.701  18.713  22.339 -0.0657 -0.3468 -0.0132
13129W        W56067   0.128  18.455  21.195 -0.4243  0.2230  0.1307
13130W        W56068   0.663  22.227  23.462  0.3839 -0.1642 -0.0686
13131W        W56069   2.841  21.530  22.680 -0.0266 -0.1900  0.0861
13132W        W56070   0.468  20.525  26.183  0.0429 -0.1852  0.0408
13133W        W56071   1.871  20.267  24.419 -0.0560  0.3215  0.1549
13134W        W56072   2.329  19.712  23.916 -0.0029  0.1685  0.0090
13135W        W56073   2.898  20.427  25.487 -0.0352  0.1259  0.0906
13136W        W56074   0.078  18.879  24.727 -0.1876  0.2462 -0.1800
13137W        W56075   1.951  21.961  25.327  0.1755 -0.0716 -0.3216
13138W        W56076   1.751  16.391  26.798  0.1334  0.0853  0.0276
13139W        W56077   4.081  21.423  26.177 -0.1714 -0.0481  0.0968
13140W        W56078   4.427  18.984  26.419  0.2317  0.0800 -0.2118
13141W        W56079   0.680  21.535  24.639  0.1101 -0.0510  0.0610
13142W        W56080   1.313  17.596  27.595 -0.0203  0.0607 -0.1719
13143W        W56081   1.066  21.909  27.083 -0.2516 -0.4668 -0.1024
13144W        W56082   0.543  18.968  25.080  0.1276 -0.0101  0.0240
13145W        W56083   1.204  19.280  25.236 -0.1281  0.0089  0.1671
13146W        W56084   2.049  20.627  26.012 -0.3420  0.0111 -0.1286
13147W        W56085   1.374  21.166  25.390  0.1335 -0.0708 -0.0500
13148W        W56086  34.649  18.176  27.342  0.1114  0.1542  0.1520
13149W        W56087   2.289  19.669  25.305  0.4911 -0.0216 -0.0635
13150W        W56088   2.607  21.251  25.285 -0.0521  0.0065 -0.0393
13151W        W56089   1.191  18.586  28.034  0.1598 -0.1165  0.1468
13152W        W56090   2.110  18.320  27.805  0.0486 -0.2320  0.1792
13153W        W56091   1.867  21.564  26.099 -0.2474  0.0490  0.1726
13154W        W56092  34.650  19.780  22.237 -0.2257  0.2154  0.2813
13155W        W56093   0.149  20.305  25.267 -0.2316  0.1192  0.2122
13156W        W56094   2.006  20.116  26.105  0.2553  0.3882 -0.0304
13157W        W56095   3.222  17.359  26.229 -0.0586 -0.2584  0.2051
13158W        W56096   0.859  18.804  27.093  0.1042 -0.2250 -0.1847
13159W        W56097   0.929  21.530  26.611 -0.0110  0.0492  0.2659
13160W        W56098   0.366  22.478  24.617 -0.0757  0.3703 -0.1116
13161W        W56099   2.968  17.338  28.831 -0.2150 -0.1213 -0.1640
13162W        W56100   0.540  20.664  25.194  0.0682  0.4287  0.3176
13163W        W56101  34.608  21.348  25.520  0.0882  0.1030  0.3059
13164W        W56102   1.104  21.109  25.824  0.0512 -0.2395  0.1063
13165W        W56103   3.849  20.145  24.694 -0.1831 -0.0616  0.1552
13166W        W56104   4.210  20.127  25.678  0.0899  0.0644 -0.0868
13167W        W56105   2.066  21.240  27.965 -0.1274 -0.0238  0.2986
13168W        W56106   0.430  22.925  25.054 -0.1841 -0.0253  0.0481
13169W        W56107   0.516  21.857  27.881  0.0870 -0.0209  0.0145
13170W        W56108   0.449  21.907  26.354 -0.0329  0.2540  0.0663
13171W        W56109   2.685  18.975  26.615 -0.2037 -0.0018 -0.2141
13172W        W56110   3.068  18.324  24.917 -0.4520 -0.2426 -0.3179
13173W        W56111   0.328  22.168  24.192  0.0878  0.0242 -0.1335
13174W        W56112   2.020  19.555  26.198 -0.0567 -0.2357 -0.1781
13175W        W56113   1.113  20.036  26.314 -0.3063  0.0275 -0.1803
13176W        W56114   0.688  22.454  26.900 -0.1740 -0.1719  0.2877
13177W        W56115   4.073  17.524  27.319 -0.2079  0.1279 -0.2316
13178W        W56116   1.637  21.228  23.449  0.1762 -0.3060  0.1010
13179W        W56117   3.317  20.735  25.632 -0.0773 -0.0891 -0.1416
13180W        W56118   3.628  20.575  24.228  0.1930 -0.3121 -0.1567
13181W        W56119   3.384  18.731  23.572 -0.1771 -0.0592  0.2969
13182W        W56120   1.412  20.263  24.284  0.3199 -0.0370 -0.0602
13183W        W56121   3.120  21.355  25.520  0.1222 -0.1851 -0.1416
13184W        W56122   0.462  18.426  26.974  0.1259 -0.0097 -0.2164
13185W        W56123   2.588  19.582  26.590  0.0139  0.0956 -0.0494
13186W        W56124   3.532  19.461  24.375  0.1554 -0.2184  0.0993
13187W        W56125   0.385  18.393  27.479  0.1521  0.0458 -0.0495
13188W        W56126   2.238  21.023  26.633  0.0419  0.0521 -0.0679
13189W        W56127   2.620  20.128  25.188  0.2538  0.2179 -0.3066
13190W        W56128   4.288  20.797  23.714  0.1422  0.4344 -0.1061
13191W        W56129   3.555  21.533  25.029  0.1953 -0.1570 -0.2100
13192W        W56130   2.756  22.498  23.099  0.1096 -0.0188  0.1907
13193W        W56131   1.714  21.466  25.064  0.1201  0.0963 -0.1498
13194W        W56132   0.276  19.806  26.915  0.0401 -0.0452 -0.2817
13195W        W56133  34.481  18.949  26.908  0.0492  0.1515 -0.0227
13196W        W56134   2.567  19.254  25.575 -0.1832  0.2809 -0.1521
13197W        W56135   2.947  20.252  28.070  0.1060  0.2391  0.0906
13198W        W56136  34.695  21.210  26.771  0.0289  0.3456 -0.2301
13199W        W56137   4.285  19.186  25.951 -0.0377  0.0691  0.0634
13200W        W56138   1.614  19.288  26.491 -0.0505  0.2774  0.0092
13201W        W56139   3.358  19.741  25.829  0.0529  0.0600  0.0765
13202W        W56140   2.793  20.440  23.512 -0.1104 -0.3479 -0.2348
13203W        W56141   3.839  17.338  25.593 -0.3062 -0.0787  0.3256
13204W        W56142   3.438  18.628  25.852  0.2917  0.0997  0.5641
13205W        W56143   0.829  21.128  25.217 -0.4642 -0.1051 -0.0653
13206W        W56144   2.543  20.628  24.915 -0.2308 -0.0602 -0.2151
13207W        W56145   2.843  21.204  26.362  0.0175  0.1355 -0.2178
13208W        W56146   4.019  20.393  23.945 -0.0323  0.1937 -0.0157
13209W        W56147   1.650  22.290  25.142  0.3065 -0.2225  0.0436
13210W        W56148   1.591  18.261  26.678  0.0044  0.4822 -0.0739
13211W        W56149   2.087  20.450  28.405 -0.0294  0.0905 -0.2307
13212W        W56150   1.330  21.820  25.128  0.0676  0.3189  0.0823
13213W        W56151   0.275  20.619  25.670 -0.0847  0.0272 -0.1495
13214W        W56152   0.336  19.827  25.204  0.1203 -0.1046  0.1518
13215W        W56153   2.651  16.427  25.867 -0.2093  0.5086  0.2107
13216W        W56154   0.823  19.139  25.921  0.2743 -0.2551  0.2559
13217W        W56155   3.861  19.365  25.762 -0.0587  0.0901  0.0320
13218W        W56156   0.649  17.249  27.361  0.0124 -0.1980 -0.3683
13219W        W56157   3.802  19.298  26.420  0.0878 -0.0746 -0.1726
13220W        W56158   1.806  21.680  24.169  0.0805  0.2453 -0.2251
13221W        W56159   3.414  22.388  25.559  0.0158 -0.2786  0.0222
13222W        W56160   3.121  20.357  24.395  0.0632 -0.0126  0.3358
13223W        W56161   2.831  20.093  24.757  0.0038 -0.0287  0.1364
13224W        W56162   0.655  19.754  25.701 -0.1187 -0.0448  0.1013
13225W        W56163   1.661  20.278  24.834 -0.0517  0.3144  0.3351
13226W        W56164   0.211  19.627  27.596 -0.1551 -0.1868 -0.2336
13227W        W56165  34.643  20.873  25.306 -0.2053  0.0023  0.4623
13228W        W56166   2.905  19.145  28.405 -0.2824  0.0087 -0.1460
13229W        W56167   0.975  18.594  23.762 -0.1261 -0.3308 -0.1129
13230W        W56168   4.228  18.556  25.334 -0.1610 -0.1252 -0.1423
13231W        W56169   2.488  19.620  24.775  0.0314 -0.2867  0.0437
13232W        W56170   2.267  21.292  24.752  0.1312  0.1101 -0.3249
13233W        W56171   2.951  19.461  27.527 -0.2040 -0.4638 -0.3471
13234W        W56172   2.179  22.432  25.589 -0.2447  0.2698 -0.1066
13235W        W56173   3.226  21.129  26.726  0.0644 -0.1460 -0.4162
13236W        W56174   3.204  21.633  26.340  0.1212  0.0052  0.2954
13237W        W56175   0.304  18.246  26.430 -0.1119 -0.0853  0.0520
13238W        W56176   1.577  20.013  23.636  0.2967  0.1813 -0.1222
13239W        W56177   0.936  22.001  26.384 -0.3200  0.2950 -0.0272
13240W        W56178   2.322  22.207  26.640 -0.2468 -0.0561 -0.2125
13241W        W56179   1.293  18.507  26.924  0.0480  0.0183  0.1123
13242W        W56180   4.671  23.850  25.066  0.2427 -0.0363 -0.2008
13243W        W56181   2.766  21.066  24.801 -0.4374 -0.0804  0.0242
13244W        W56182   0.350  22.342  25.171  0.4053  0.1668  0.1037
13245W        W56183   3.557  16.923  25.938 -0.1612 -0.0474 -0.0466
13246W        W56184   3.502  20.189  26.657  0.0249 -0.0342  0.1135
13247W        W56185   2.101  19.107  25.831  0.3512 -0.1732  0.3176
13248W        W56186   1.861  19.870  24.038 -0.2816 -0.0778  0.0138
13249W        W56187   2.457  22.675  26.471 -0.1411 -0.0249  0.1962
13250W        W56188   0.852  21.553  23.712 -0.1350  0.4478 -0.1191
13251W        W56189   2.319  20.208  24.748  0.3381  0.1839 -0.0429
13252W        W56190   1.372  20.693  25.655  0.1735  0.0921 -0.1322
13253W        W56191   3.871  18.753  25.739  0.1570 -0.2560 -0.1803
13254W        W56192  32.965  20.331  27.163  0.1347 -0.0927  0.1118
13255W        W56193   3.026  19.332  26.442 -0.0900  0.0715 -0.0019
13256W        W56194   1.329  20.056  25.669 -0.2918  0.1510  0.0742
13257W        W56195   0.130  22.277  26.150 -0.0726  0.0458  0.1852
13258W        W56196   2.853  17.988  25.532 -0.1066 -0.0653 -0.0385
13259W        W56197   2.606  18.181  24.880 -0.0963  0.0645  0.0285
13260W        W56198   0.653  19.781  26.222 -0.2489 -0.1355  0.1260
13261W        W56199   2.749  19.621  25.188  0.0338  0.1478  0.2719
13262W        W56200   2.823  19.286  23.759 -0.1500  0.0111 -0.1519
13263W        W56201   2.293  17.695  23.767  0.4360 -0.0167 -0.0933
13264W        W56202   0.375  21.282  25.489 -0.5070 -0.0268  0.1564
13265W        W56203   2.119  19.093  26.516 -0.2558 -0.2710 -0.1700
13266W        W56204   2.085  21.119  25.947 -0.0236  0.2268 -0.3379
13267W        W56205   1.984  20.765  24.251 -0.2811  0.3331  0.0192
13268W        W56206   3.726  20.070  24.191  0.3336  0.0772 -0.0884
13269W        W56207  34.480  19.780  26.756 -0.0963 -0.1770  0.2527
13270W        W56208   1.898  20.733  28.078  0.0458 -0.0817  0.3286
13271W        W56209   3.782  21.847  25.750  0.3022  0.1337 -0.3287
13272W        W56210   1.390  19.014  27.168  0.1050 -0.0548 -0.1368
13273W        W56211  34.463  19.373  22.915 -0.0380  0.0799 -0.0621
13274W        W56212   2.706  19.888  24.322  0.2522 -0.1760 -0.0604
13275W        W56213   0.714  22.490  22.338  0.1339 -0.0996 -0.0390
13276W        W56214   3.512  17.994  26.116 -0.1372  0.1682  0.0120
13277W        W56215   3.072  16.090  25.583 -0.0382  0.1207  0.0672
13278W        W56216   1.536  18.484  27.424 -0.1777  0.0585 -0.1363
13279W        W56217   2.334  18.916  26.950 -0.0419 -0.0621 -0.0582
13280W        W56218   3.037  19.013  25.803  0.0003  0.2833 -0.0950
13281W        W56219   2.947  18.284  27.357 -0.0077 -0.2498  0.0850
13282W        W56220   1.764  21.210  24.005  0.1585  0.3433 -0.0308
13283W        W56221   3.118  18.912  25.035  0.0034 -0.2388  0.0018
13284W        W56222   1.020  20.389  25.216 -0.4855  0.3374  0.0838
13285W        W56223   0.235  20.505  27.807 -0.0289  0.3068  0.2870
13286W        W56224   2.853  20.734  25.889 -0.0011  0.0992 -0.0883
13287W        W56225   1.980  18.584  26.821 -0.1387  0.1893  0.0166
13288W        W56226   0.080  19.361  26.846 -0.1771  0.3783  0.0762
13289W        W56227   2.888  18.912  24.117 -0.2709 -0.0725  0.2418
13290W        W56228   2.260  21.582  25.728 -0.0316  0.2189  0.2980
13291W        W56229  34.423  20.340  24.507 -0.1173 -0.2101 -0.3377
13292W        W56230   1.530  18.860  26.067  0.5172 -0.0184 -0.2016
13293W        W56231   1.921  22.870  25.958  0.1509 -0.1034 -0.0818
13294W        W56232   2.273  20.602  23.490 -0.0321  0.2492  0.0796
13295W        W56233   2.505  20.433  26.207  0.1957  0.0164  0.3676
13296W        W56234   1.386  22.777  25.112  0.0818  0.2971  0.0174
13297W        W56235   4.414  17.583  25.837  0.0489  0.2016  0.1748
13298W        W56236  34.236  21.740  24.358 -0.3935  0.1122 -0.0764
13299W        W56237   0.565  20.644  24.173  0.1859 -0.3099 -0.3369
13300W        W56238   1.161  20.267  24.743 -0.2546  0.1708 -0.2226
13301W        W56239   3.943  18.274  25.590 -0.2143  0.2055 -0.3115
13302W        W56240   3.013  19.636  24.725  0.4064  0.1592 -0.0475
13303W        W56241   0.143  19.287  25.408  0.1435  0.0776 -0.0009
13304W        W56242   1.525  18.783  26.577 -0.0044  0.0485  0.1933
13305W        W56243   1.083  22.404  26.614  0.1909 -0.0935 -0.2830
13306W        W56244   1.619  19.849  26.328 -0.3568 -0.4607 -0.0875
13307W        W56245   2.754  19.198  24.722 -0.0774 -0.0481 -0.0934
13308W        W56246   2.768  21.747  25.509  0.3191  0.2215 -0.0920
13309W        W56247   0.690  18.915  28.649  0.0576 -0.2489 -0.1219
13310W        W56248   1.200  19.496  24.825  0.0522  0.1535  0.1831
13311W        W56249   3.062  17.738  26.590 -0.1296  0.0959 -0.1007
13312W        W56250   0.335  19.033  25.767  0.1561  0.0229 -0.1468
13313W        W56251  34.286  20.830  24.311 -0.2172  0.2236  0.0474
13314W        W56252   2.506  22.106  25.784 -0.3644  0.2608 -0.4230
13315W        W56253   1.508  21.991  25.637 -0.0142 -0.1017  0.0486
13316W        W56254   0.605  22.363  26.416  0.1867 -0.3317  0.0797
13317W        W56255   0.914  18.416  27.464  0.0459 -0.0796 -0.0494
13318W        W56256   1.272  20.091  26.802 -0.0593 -0.1745  0.0304
13319W        W56257   1.823  20.356  25.708  0.2459  0.0331  0.0549
13320W        W56258   1.396  18.720  25.174 -0.2291  0.0873  0.2044
13321W        W56259   3.375  18.876  26.311 -0.0300  0.0504  0.1319
13322W        W56260   3.702  20.787  26.024 -0.2137  0.0522 -0.0760
13323W        W56261   2.376  18.341  27.060 -0.5483  0.1087 -0.3543
13324W        W56262   0.514  21.462  27.115 -0.0007  0.0547 -0.1782
13325W        W56263   1.720  18.169  25.955 -0.1575  0.1942  0.2082
13326W        W56264   5.101  22.453  25.431  0.4211  0.0658  0.0342
13327W        W56265   1.204  18.862  27.633 -0.1566 -0.3020 -0.1705
13328W        W56266   0.859  21.040  24.723  0.1080  0.2446 -0.0426
13329W        W56267   0.730  19.242  25.432 -0.4777 -0.2366  0.1201
13330W        W56268   1.376  21.953  26.594 -0.2693 -0.2164  0.0119
13331W        W56269   1.919  17.726  26.941 -0.2100  0.0058  0.1547
13332W        W56270   1.254  20.734  26.193 -0.1616 -0.0116  0.1493
13333W        W56271   1.291  21.377  23.845  0.1821 -0.1598  0.1741
13334W        W56272   0.928  20.437  25.913 -0.2519 -0.4128 -0.0723
13335W        W56273   3.987  18.049  24.464  0.0710 -0.0008  0.1436
13336W        W56274   2.676  21.098  24.106 -0.3821 -0.3854  0.0149
13337W        W56275   3.279  18.023  25.240  0.0515 -0.1877 -0.5079
13338W        W56276   4.854  18.417  26.805 -0.4547  0.0995  0.5177
13339W        W56277   2.695  21.783  25.035 -0.0137  0.1988  0.1947
13340W        W56278   2.585  17.930  27.840 -0.0972 -0.1383  0.3504
13341W        W56279   2.900  17.676  27.111 -0.0605  0.2596  0.0488
13342W        W56280   2.711  21.209  25.827  0.1615  0.1128  0.1130
13343W        W56281   0.587  20.216  25.436 -0.0277 -0.3802 -0.2216
13344W        W56282   3.028  21.557  28.305 -0.0802 -0.1602  0.2572
13345W        W56283  34.599  19.256  27.321 -0.0893 -0.0270 -0.3458
13346W        W56284   3.280  18.621  24.121 -0.1637 -0.0752  0.1476
13347W        W56285  34.192  18.611  24.510 -0.1215  0.1327 -0.0582
13348W        W56286   0.557  20.598  24.689  0.2906 -0.2221  0.1616
13349W        W56287   1.652  19.356  25.923 -0.0732 -0.1798  0.2524
13350W        W56288   1.931  21.660  24.698 -0.0307  0.1397  0.1265
13351W        W56289   3.024  19.845  26.417  0.0014  0.0658 -0.0137
13352W        W56290   1.093  18.951  26.277  0.1539 -0.1021 -0.1056
13353W        W56291   3.394  21.076  24.927 -0.0097  0.0759 -0.0795
13354W        W56292   1.207  20.880  23.523 -0.3512 -0.2232 -0.1859
13355W        W56293   3.196  19.909  25.268 -0.2066  0.0209 -0.0612
13356W        W56294   1.565  16.642  27.490  0.1553  0.1673  0.1451
13357W        W56295   2.308  19.556  25.803 -0.2381  0.2917 -0.0825
13358W        W56296   3.114  18.864  24.566  0.1753 -0.1959  0.3300
13359W        W56297   2.926  18.910  27.470  0.2375 -0.2837 -0.1157
13360W        W56298   2.487  19.258  26.153 -0.2549  0.0783  0.1405
13361W        W56299   0.894  19.207  27.372 -0.0134  0.2276 -0.1709
13362W        W56300  34.124  17.783  28.536  0.0396  0.5233  0.0162
13363W        W56301   2.189  22.077  27.190 -0.0633  0.1663  0.0916
13364W        W56302   3.153  19.059  23.252 -0.1383 -0.3889  0.1859
13365W        W56303   3.089  17.739  28.037 -0.1270 -0.0803 -0.0838
13366W        W56304   2.666  19.248  27.039  0.2758  0.2087  0.4103
13367W        W56305   2.135  19.824  23.334  0.1932 -0.1510  0.0230
13368W        W56306   0.708  18.062  26.663  0.3589  0.0767 -0.3894
13369W        W56307   3.987  19.290  28.511 -0.0499 -0.2399  0.2150
13370W        W56308   1.045  21.019  24.154  0.0246 -0.0864  0.0140
13371W        W56309   2.114  19.779  27.990 -0.2335  0.4472 -0.3138
13372W        W56310   2.246  21.903  26.255 -0.0949 -0.0696 -0.0167
13373W        W56311   2.774  20.298  26.666 -0.2291 -0.0010 -0.2195
13374W        W56312   3.343  20.150  24.782 -0.4571 -0.3070  0.1510
13375W        W56313  33.989  18.314  25.464 -0.1145  0.1914 -0.0031
13376W        W56314   1.074  22.003  27.651  0.0344 -0.3036 -0.1300
13377W        W56315   1.085  19.314  23.101 -0.1415 -0.0290  0.1980
13378W        W56316   1.929  20.331  23.872 -0.1695 -0.1172 -0.1940
13379W        W56317   1.803  21.277  26.733  0.1399 -0.1012  0.1897
13380W        W56318   3.124  20.745  27.988  0.0591  0.1815  0.1717
13381W        W56319   2.718  17.464  25.463  0.2024  0.2794 -0.2739
13382W        W56320   4.488  18.174  27.935  0.0974 -0.1454 -0.2016
13383W        W56321  34.669  22.486  24.039  0.0025  0.3043  0.1636
13384W        W56322   2.881  18.724  26.266 -0.1508  0.1296 -0.1364
13385W        W56323   0.558  23.124  27.101 -0.4459 -0.1109  0.2355
13386W        W56324   0.142  19.710  26.334 -0.0215  0.1120  0.1574
13387W        W56325   1.470  21.307  26.277 -0.0686  0.1537 -0.0291
13388W        W56326   3.032  17.796  27.569  0.4109 -0.0753  0.1432
13389W        W56327   1.950  18.181  27.238 -0.0401 -0.0135 -0.1943
13390W        W56328   2.217  21.513  25.185  0.4428 -0.1422  0.0675
13391W        W56329   3.201  18.933  26.784 -0.0372 -0.2791 -0.0336
13392W        W56330   2.321  21.407  26.316 -0.3705  0.1071  0.0237
13393W        W56331   2.296  20.211  24.139  0.2297 -0.1797 -0.2523
13394W        W56332   2.658  21.252  27.429  0.1566  0.3799 -0.1880
13395W        W56333   3.753  20.288  26.130 -0.0615  0.1473  0.2764
13396W        W56334   1.421  21.533  25.734 -0.1011  0.0849  0.0918
13397W        W56335   0.481  20.264  27.023 -0.0144  0.0287  0.1426
13398W        W56336   1.817  20.912  26.379 -0.0896 -0.1519 -0.2329
13399W        W56337   1.831  19.023  26.935 -0.1994  0.0766  0.0039
13400W        W56338   2.020  19.808  24.918 -0.1702 -0.1033  0.0114
13401W        W56339   0.872  22.545  23.096  0.1592  0.0806  0.2716
13402W        W56340   0.775  20.128  27.855  0.0557 -0.0567 -0.1756
13403W        W56341   0.363  20.157  26.455  0.1005  0.0061 -0.0247
13404W        W56342   0.337  21.638  25.113 -0.1318 -0.2699 -0.2153
13405W        W56343   1.837  21.333  25.535  0.0813  0.0343  0.1597
13406W        W56344   2.039  20.693  24.714 -0.3397  0.6067 -0.1276
13407W        W56345   2.251  23.106  26.356 -0.0829 -0.2964  0.1540
13408W        W56346   2.349  18.360  25.256  0.0943 -0.3515  0.3742
13409W        W56347   0.923  21.493  25.583  0.2609  0.0738  0.0974
13410W        W56348   1.018  22.014  25.882  0.0491 -0.3026 -0.4610
13411W        W56349   3.007  22.170  25.253  0.0881 -0.2256 -0.2170
13412W        W56350   1.941  22.029  25.822  0.3447  0.0336 -0.0622
13413W        W56351   2.036  20.991  27.447 -0.1840 -0.3200  0.1214
13414W        W56352   3.556  18.052  24.144 -0.1165 -0.0990  0.0565
13415W        W56353   3.293  20.294  23.901  0.0792 -0.1078 -0.1758
13416W        W56354   2.943  17.723  25.024 -0.3551  0.0158  0.1192
13417W        W56355   0.573  21.435  28.094 -0.3812 -0.0622  0.2087
13418W        W56356   1.552  20.369  25.337 -0.1621 -0.0648 -0.0946
13419W        W56357   1.068  18.879  24.280 -0.1026 -0.0455 -0.1196
13420W        W56358   0.251  20.094  25.934 -0.1898  0.0140  0.3576
13421W        W56359   4.117  17.048  25.903 -0.0542 -0.2766 -0.2374
13422W        W56360  34.377  21.057  27.148  0.0154 -0.0899  0.1576
13423W        W56361   3.789  22.051  24.189  0.1775  0.2392  0.0303
13424W        W56362   1.955  20.074  25.310 -0.2109  0.0837 -0.3842
13425W        W56363   1.593  21.082  25.888 -0.0280 -0.2514  0.2407
13426W        W56364   6.147  16.501  26.015  0.1008  0.0569  0.0080
13427W        W56365   2.992  20.566  24.845 -0.2190  0.2092 -0.2411
13428W        W56366   2.325  18.666  26.307  0.1046  0.3522 -0.0917
13429W        W56367   0.122  23.523  25.746  0.2120 -0.1292  0.1342
13430W        W56368  34.564  21.422  24.999 -0.1697 -0.0684  0.0441
13431W        W56369   1.854  23.052  25.068  0.1267 -0.0004  0.0215
13432W        W56370  34.599  18.025  25.307  0.1767  0.0514 -0.2312
13433W        W56371   3.409  19.221  24.797  0.1106 -0.0292 -0.4591
13434W        W56372   0.581  18.976  26.701  0.1454  0.1020  0.3637
13435W        W56373   3.145  18.253  26.361 -0.1393 -0.0885  0.0206
13436W        W56374   2.081  20.548  25.192  0.0619 -0.0007  0.0121
13437W        W56375   2.591  20.497  24.421 -0.0267  0.1044 -0.2141
13438W        W56376   0.913  20.630  27.112 -0.1255  0.2398  0.1757
13439W        W56377   1.757  17.883  26.468  0.0980  0.0793  0.2356
13440W        W56378   2.798  20.302  24.012 -0.1065  0.0362  0.1118
13441W        W56379   1.904  20.452  27.383 -0.2761  0.2230  0.1870
13442W        W56380   3.608  19.732  24.899 -0.0568 -0.0541  0.0466
13443W        W56381   3.087  21.460  27.208  0.1642 -0.0506  0.0616
13444W        W56382   2.196  19.625  26.943  0.5175  0.0965  0.0552
13445W        W56383   4.338  18.571  23.636  0.2726 -0.3920 -0.5796
13446W        W56384   0.592  21.521  26.096 -0.3221  0.0636  0.1846
13447W        W56385   2.137  20.544  26.546 -0.1815  0.1262  0.0110
13448W        W56386   3.060  21.315  29.178  0.1889 -0.1391  0.0778
13449W        W56387   0.553  19.746  24.573 -0.0938 -0.1748 -0.1031
13450W        W56388   0.859  20.755  25.555  0.2524 -0.3500 -0.2829
13451W        W56389   2.948  18.440  25.875 -0.0422  0.3741  0.2885
13452W        W56390   0.956  21.532  24.214  0.4996  0.1798  0.1261
13453W        W56391   4.005  21.161  24.870  0.0986  0.0681  0.0781
13454W        W56392   3.396  20.585  25.215 -0.0571  0.2199 -0.2854
13455W        W56393  33.743  19.264  27.007 -0.0314 -0.2567 -0.1694
13456W        W56394   2.930  22.381  26.175  0.0606  0.2406 -0.1315
13457W        W56395   4.096  19.951  25.173 -0.1011 -0.5326 -0.2021
13458W        W56396   2.184  19.222  24.931  0.3520  0.1657  0.2758
13459W        W56397   0.858  18.504  26.636  0.1186 -0.0781  0.0704
13460W        W56398   0.400  23.365  24.164  0.0855  0.1932 -0.3975
13461W        W56399   3.325  18.650  27.243 -0.0734  0.0093  0.5568
13462W        W56400   3.036  20.755  26.329  0.1139 -0.0844  0.0046
13463W        W56401   0.014  21.733  24.590 -0.0538  0.0108 -0.1764
13464W        W56402   3.372  17.511  25.708 -0.1504  0.0716 -0.0061
13465W        W56403   2.720  21.627  26.056 -0.0001  0.0213  0.0485
13466W        W56404   0.950  21.127  26.342 -0.0768  0.2092  0.0855
13467W        W56405   0.574  21.083  25.900 -0.0011  0.4039  0.1038
13468W        W56406   1.454  20.530  26.567  0.1791  0.0183 -0.0395
13469W        W56407   1.846  20.837  25.535  0.0812 -0.1104 -0.1424
13470W        W56408   0.541  22.262  25.861  0.2188 -0.1784  0.0226
13471W        W56409   4.388  21.425  25.784  0.2320 -0.0481 -0.0112
13472W        W56410   3.236  19.452  25.460  0.0079 -0.0933 -0.1025
13473W        W56411   3.548  21.144  25.389 -0.0708  0.2313  0.0144
13474W        W56412   2.068  18.694  24.904  0.0509  0.2240 -0.0718
13475W        W56413   4.354  17.114  26.391  0.0455 -0.0651 -0.0191
13476W        W56414   3.742  17.862  25.377 -0.1339  0.0034  0.2179
13477W        W56415   1.691  21.176  27.163  0.0016  0.2236  0.1572
13478W        W56416  34.669  18.817  25.421 -0.6130  0.1677 -0.4053
13479W        W56417   0.534  20.175  23.315  0.1706 -0.0526 -0.2334
13480W        W56418  34.567  21.814  25.494  0.3633  0.0964  0.0191
13481W        W56419   0.870  18.373  29.044  0.2080 -0.1336  0.2630
13482W        W56420   1.136  19.448  26.199 -0.1983 -0.4495 -0.4759
13483W        W56421   0.099  19.579  25.824  0.2319  0.1757  0.1100
13484W        W56422   1.719  18.897  25.473 -0.2278 -0.0134 -0.5661
13485W        W56423   2.653  22.603  24.227 -0.0502  0.1237 -0.0152
13486W        W56424   0.371  19.187  26.329  0.2818 -0.0020 -0.0828
13487W        W56425  33.586  19.311  26.408  0.2425 -0.0286 -0.0979
13488W        W56426   3.494  21.804  24.488  0.1909  0.1156  0.1717
13489W        W56427   3.048  21.433  25.052  0.2976 -0.1174 -0.0702
13490W        W56428   2.876  16.810  26.164 -0.4429  0.0821  0.5157
13491W        W56429   3.629  20.748  27.880 -0.1963 -0.2867  0.2616
13492W        W56430   0.767  20.590  23.416  0.2408 -0.3881  0.3109
13493W        W56431   1.618  19.148  28.568 -0.0096 -0.2465  0.0027
13494W        W56432   1.982  19.266  27.858  0.1229  0.2595 -0.2420
13495W        W56433   1.794  19.512  23.556  0.1024 -0.0068 -0.1042
13496W        W56434   1.856  19.506  27.319 -0.1237  0.1233 -0.1693
13497W        W56435   2.963  20.895  25.211 -0.4812  0.0270 -0.0165
13498W        W56436   2.226  21.307  24.203  0.3807  0.1715  0.0734
13499W        W56437   0.570  19.528  26.640 -0.3815 -0.0654 -0.3193
13500W        W56438   1.864  22.001  26.508 -0.2230 -0.0678  0.0503
13501W        W56439   1.630  18.065  27.772  0.0711  0.0781  0.0292
13502W        W56440   3.749  19.776  25.521 -0.0717  0.1585 -0.2453
13503W        W56441   1.324  20.957  26.738 -0.2359 -0.0621  0.0174
13504W        W56442   4.823  20.772  25.009 -0.1703  0.3145  0.2826
13505W        W56443   4.269  18.028  26.944  0.2133 -0.3962  0.0537
13506W        W56444   2.899  19.519  25.942  0.1823 -0.0303 -0.0554
13507W        W56445  34.662  18.777  27.438 -0.0201 -0.0413  0.0329
13508W        W56446  34.590  20.692  26.701  0.1083  0.2671 -0.2187
13509W        W56447   4.037  20.956  25.326  0.1053 -0.1847  0.1687
13510W        W56448   0.929  18.792  25.411 -0.3857 -0.1724  0.2429
13511W        W56449   3.519  18.561  24.816  0.1059 -0.1461 -0.2758
13512W        W56450   3.233  22.602  25.089  0.0224  0.3629 -0.0513
13513W        W56451   0.781  19.992  26.667 -0.1737  0.1070 -0.1327
13514W        W56452   2.435  20.120  23.665  0.1321  0.0002 -0.0180
13515W        W56453   0.642  18.821  27.625 -0.1685  0.1156  0.0900
13516W        W56454   2.412  20.720  27.248  0.0430  0.1637  0.3148
13517W        W56455   3.009  20.868  28.516  0.0211 -0.3596  0.5250
13518W        W56456   1.517  20.734  24.027  0.0193  0.1839 -0.2362
13519W        W56457   4.518  21.701  24.929 -0.2973 -0.0818  0.2476
13520W        W56458   0.363  21.009  27.896 -0.0335  0.2057 -0.1112
13521W        W56459   3.342  22.731  28.617 -0.2739 -0.2981  0.0039
13522W        W56460   2.631  20.746  26.786 -0.0107  0.2803  0.1431
13523W        W56461   1.337  19.418  27.543  0.1330 -0.0049  0.0341
13524W        W56462   1.204  16.577  26.878  0.2589  0.1447  0.0240
13525W        W56463   1.848  19.833  25.746  0.2436 -0.3012 -0.2977
13526W        W56464   2.843  20.140  25.904  0.0763  0.2148  0.1574
13527W        W56465   3.687  18.276  27.416 -0.2701  0.0014 -0.3208
13528W        W56466   1.126  19.148  26.741 -0.1001 -0.3290 -0.3367
13529W        W56467   1.929  17.335  24.094 -0.0859  0.0773 -0.0271
13530W        W56468   1.494  21.955  26.100  0.2747 -0.1652  0.1362
13531W        W56469   2.606  19.966  27.029 -0.0845 -0.0693 -0.1920
13532W        W56470   1.082  22.186  30.674  0.0689  0.1824 -0.2844
13533W        W56471   2.405  19.379  29.406 -0.1527 -0.0035 -0.0933
13534W        W56472   4.104  17.770  28.672  0.1023  0.0910  0.3536
13535W        W56473   3.066  18.664  28.572  0.1431  0.1949 -0.0802
13536W        W56474   0.215  19.553  30.141  0.2837  0.0111 -0.2118
13537W        W56475   3.372  21.757  28.799  0.0580  0.1523  0.2389
13538W        W56476   2.031  16.848  30.012 -0.2984 -0.0672  0.0708
13539W        W56477   2.514  22.856  29.479  0.0748  0.0638  0.0515
13540W        W56478   3.238  21.595  30.983 -0.0358 -0.4053  0.0371
13541W        W56479   1.438  20.159  27.364  0.2982  0.2231 -0.5306
13542W        W56480   0.493  18.382  31.168  0.2067  0.2152 -0.1131
13543W        W56481   1.582  21.926  30.674  0.0805  0.1862 -0.0596
13544W        W56482   0.467  19.016  29.566 -0.1721  0.0558  0.3548
13545W        W56483   0.524  18.775  29.156  0.3245  0.0680 -0.0865
13546W        W56484   2.527  19.754  30.615  0.0410 -0.1922  0.2232
13547W        W56485   1.455  20.608  27.119 -0.1787  0.2060  0.1856
13548W        W56486  33.953  19.051  29.900  0.1514 -0.4141  0.2681
13549W        W56487   1.733  18.242  28.304  0.2489 -0.0960  0.5081
13550W        W56488   1.610  20.866  29.072  0.0372  0.2573 -0.0431
13551W        W56489   0.299  20.646  30.482  0.0979 -0.0166 -0.0254
13552W        W56490   2.104  18.711  31.020  0.0691  0.0930  0.0950
13553W        W56491   1.274  22.054  28.145 -0.3062 -0.3436  0.1093
13554W        W56492  34.080  19.847  27.561 -0.3148  0.2907 -0.0123
13555W        W56493   1.088  19.934  29.786  0.4230 -0.2315  0.0435
13556W        W56494   1.249  19.849  30.789  0.0032  0.2404 -0.3680
13557W        W56495   3.922  20.741  29.783  0.2893  0.1230  0.1193
13558W        W56496   2.794  20.094  29.029  0.0532  0.0902  0.0362
13559W        W56497   1.606  21.415  28.116 -0.0789 -0.1995 -0.1527
13560W        W56498   2.294  22.151  30.139 -0.2778  0.1190 -0.1674
13561W        W56499   2.724  20.408  31.604  0.3095 -0.2603 -0.0316
13562W        W56500  34.194  20.518  28.282 -0.0258 -0.1514 -0.2506
13563W        W56501   0.084  21.648  28.824 -0.2261 -0.2978  0.2768
13564W        W56502   1.385  20.917  28.095 -0.2561 -0.4444 -0.0579
13565W        W56503   3.440  22.275  28.732  0.1225  0.1362  0.0263
13566W        W56504   2.835  21.888  31.059  0.0054 -0.1095  0.0857
13567W        W56505   1.883  21.959  31.074 -0.1557 -0.0336 -0.2824
13568W        W56506   0.610  20.521  28.180 -0.0928  0.0701 -0.2934
13569W        W56507   0.887  22.136  31.277 -0.0849  0.1908 -0.0914
13570W        W56508   1.638  22.898  30.473  0.0097  0.0282 -0.2439
13571W        W56509   1.998  19.312  31.312  0.3998 -0.4892 -0.0175
13572W        W56510   2.549  18.887  29.631  0.2242  0.0654 -0.1901
13573W        W56511   1.460  21.651  27.337 -0.1099  0.0531 -0.1336
13574W        W56512   1.042  18.828  29.092 -0.0067 -0.0860  0.0255
13575W        W56513   1.301  20.763  30.278  0.2393  0.2344  0.2692
13576W        W56514   0.878  22.062  28.815 -0.1749  0.0184  0.0238
13577W        W56515   4.223  18.505  30.829 -0.0475  0.1755 -0.2063
13578W        W56516   1.521  21.251  27.673  0.0491  0.2962 -0.0215
13579W        W56517   2.599  19.341  27.960 -0.0400  0.1312  0.0336
13580W        W56518   1.745  20.234  26.919  0.0751  0.0090  0.0259
13581W        W56519   3.826  18.215  29.284 -0.1372  0.0469 -0.1569
13582W        W56520   0.288  18.364  30.191  0.0451  0.2056 -0.1501
13583W        W56521   1.525  20.986  29.782 -0.3952  0.1542 -0.0102
13584W        W56522   1.591  18.253  30.072 -0.1484 -0.1924  0.0772
13585W        W56523   2.579  21.865  30.579  0.1155  0.2112 -0.1256
13586W        W56524   2.208  18.811  27.839  0.0385 -0.0222 -0.0264
13587W        W56525   2.181  19.705  31.000  0.0513 -0.0542  0.2511
13588W        W56526   1.472  22.478  30.196  0.0014  0.2163  0.0567
13589W        W56527  34.565  19.717  31.437  0.0997  0.1308  0.0271
13590W        W56528   3.402  21.278  28.563  0.1027 -0.2765 -0.1143
13591W        W56529   3.817  21.887  28.970  0.0730 -0.0414 -0.3312
13592W        W56530   2.091  21.581  29.300 -0.1669  0.2347 -0.2402
13593W        W56531   0.092  20.162  28.926 -0.0564 -0.1532 -0.2308
13594W        W56532   0.623  20.045  29.670  0.2833  0.3514 -0.1106
13595W        W56533  34.426  20.626  30.967 -0.1353  0.1389 -0.1522
13596W        W56534   0.721  18.428  27.939 -0.0388  0.0550  0.0404
13597W        W56535   3.681  20.722  30.635 -0.0569  0.1918 -0.2008
13598W        W56536   1.787  20.382  28.903  0.1249  0.3697 -0.1201
13599W        W56537   3.294  18.089  30.630 -0.2668 -0.1835 -0.3291
13600W        W56538   2.013  20.747  31.590 -0.1083  0.0568  0.2627
13601W        W56539   2.272  21.180  30.148 -0.0556  0.1372  0.3074
13602W        W56540   2.439  20.928  26.200 -0.2023 -0.0127  0.1339
13603W        W56541   2.763  17.986  30.605 -0.1809 -0.1371  0.0366
13604W        W56542   2.732  17.469  30.340 -0.4422  0.1744  0.1523
13605W        W56543   2.443  21.673  27.569 -0.0664 -0.0159 -0.0551
13606W        W56544   1.290  19.546  29.556  0.1019 -0.2531  0.1173
13607W        W56545   2.477  19.077  31.235  0.1258 -0.1427 -0.2365
13608W        W56546   4.669  18.756  28.414 -0.0332 -0.2637 -0.3385
13609W        W56547   2.404  20.945  30.989  0.2941 -0.0189  0.0080
13610W        W56548   0.843  19.176  31.684 -0.0735 -0.2432  0.1670
13611W        W56549   2.993  21.093  31.356 -0.0176 -0.1081 -0.0612
13612W        W56550   2.130  21.934  27.820  0.2509 -0.0800  0.0265
13613W        W56551  34.576  20.364  29.938  0.0957 -0.1764 -0.1290
13614W        W56552   0.921  20.160  27.366 -0.0083  0.0873 -0.2104
13615W        W56553   0.043  17.371  30.576  0.0662 -0.2471 -0.0171
13616W        W56554   1.792  21.078  30.220 -0.2433 -0.2386  0.0903
13617W        W56555   3.177  19.392  27.994 -0.1318 -0.3230 -0.0966
13618W        W56556   1.593  18.494  31.522  0.1176  0.0533  0.0171
13619W        W56557   3.567  18.593  27.855 -0.2679  0.0926  0.0592
13620W        W56558  33.745  20.746  27.946 -0.0221 -0.0901  0.1254
13621W        W56559   2.005  22.870  28.679 -0.1352  0.0592 -0.1078
13622W        W56560   3.008  18.034  29.743 -0.1127 -0.0383 -0.1569
13623W        W56561   2.049  20.277  27.965  0.0034  0.1138  0.0148
13624W        W56562  34.206  19.294  29.413  0.1519  0.2416 -0.3800
13625W        W56563   0.832  20.369  30.022  0.1569 -0.1347  0.2660
13626W        W56564  34.538  17.282  31.472 -0.0240 -0.1730  0.0775
13627W        W56565  34.379  18.826  28.923 -0.0139  0.0536 -0.0958
13628W        W56566   3.577  20.255  31.182  0.0790  0.1715  0.0267
13629W        W56567  34.383  18.790  28.323 -0.1725 -0.0996 -0.2083
13630W        W56568   2.910  19.453  29.190 -0.1676 -0.2692 -0.3702
13631W        W56569   1.181  19.974  28.220  0.2495  0.0366  0.2489
13632W        W56570  34.450  20.518  28.988  0.0986 -0.0979  0.0879
13633W        W56571   3.486  17.542  31.446 -0.3006  0.4706 -0.1247
13634W        W56572   2.000  21.223  28.467  0.1017 -0.1178 -0.0210
13635W        W56573   2.025  21.245  31.130 -0.0826  0.1572  0.0041
13636W        W56574   2.747  24.044  28.866 -0.3325  0.2817  0.0253
13637W        W56575   1.604  20.237  30.580  0.3019  0.0316  0.1974
13638W        W56576   1.226  18.419  28.643  0.0082 -0.0078 -0.0468
13639W        W56577   1.014  21.105  30.542  0.0153 -0.1859  0.0202
13640W        W56578   2.129  20.844  30.535  0.0890 -0.0812  0.3738
13641W        W56579   1.043  19.145  30.424  0.1073  0.4957  0.1700
13642W        W56580   2.969  21.348  30.485 -0.0852 -0.1067 -0.1255
13643W        W56581   2.368  19.148  28.374  0.1275 -0.2743 -0.0711
13644W        W56582   1.037  20.849  29.818 -0.1774 -0.0603 -0.2354
13645W        W56583   2.415  18.578  31.399 -0.0046  0.0192 -0.0924
13646W        W56584   3.560  20.013  30.160  0.1179 -0.1889 -0.0524
13647W        W56585   3.032  20.528  29.521 -0.2589  0.2130  0.0410
13648W        W56586   0.775  18.852  28.149  0.1903  0.2138 -0.0044
13649W        W56587   1.870  21.359  29.716  0.0192 -0.3106  0.0121
13650W        W56588   0.550  22.680  27.364  0.0169 -0.1197  0.0900
13651W        W56589  33.708  19.396  28.435 -0.3467 -0.1383  0.0709
13652W        W56590   2.033  21.097  29.301 -0.2536 -0.2828  0.2536
13653W        W56591   2.499  18.679  28.265 -0.2674  0.0308  0.2684
13654W        W56592   0.649  19.939  30.895  0.4106 -0.0817 -0.1144
13655W        W56593   1.116  20.062  31.937 -0.0837 -0.4022  0.0209
13656W        W56594   1.482  19.507  28.173  0.3359  0.1043  0.4662
13657W        W56595   0.846  19.583  30.465  0.1753 -0.1400 -0.0041
13658W        W56596   1.587  18.779  28.976  0.5203  0.4769  0.0875
13659W        W56597   5.222  18.255  29.478 -0.0787  0.1226  0.1706
13660W        W56598   2.043  20.211  30.918 -0.0666  0.0166 -0.0783
13661W        W56599   3.365  21.268  29.858 -0.2573 -0.1600 -0.2036
13662W        W56600   3.796  17.887  27.188 -0.3142  0.1898  0.4204
13663W        W56601   2.392  19.078  27.445 -0.2876 -0.2509 -0.1649
13664W        W56602   0.932  21.107  31.535 -0.2306  0.0680  0.3457
13665W        W56603   2.732  21.213  28.756  0.2349 -0.0777  0.2819
13666W        W56604   2.653  19.658  30.082 -0.1984 -0.2430 -0.1399
13667W        W56605   2.433  19.622  27.510  0.1968 -0.0218  0.1190
13668W        W56606   2.853  21.918  29.230 -0.2636  0.1017  0.0851
13669W        W56607   0.146  19.824  29.312 -0.2254 -0.0920 -0.1391
13670W        W56608   2.434  22.518  30.462  0.1395 -0.0878  0.1334
13671W        W56609   3.524  21.568  30.241  0.0294  0.0584  0.0020
13672W        W56610   2.663  18.500  30.427 -0.0304 -0.5998  0.3574
13673W        W56611   0.642  20.588  27.553  0.1590 -0.0511 -0.3111
13674W        W56612   2.839  17.859  29.302 -0.2173 -0.1067  0.1390
13675W        W56613   0.458  23.960  27.563 -0.0942  0.0235  0.1618
13676W        W56614   3.595  18.718  30.059 -0.2920 -0.0882  0.5263
13677W        W56615   2.878  18.440  29.330 -0.3479 -0.0909 -0.2448
13678W        W56616   2.584  20.232  29.888  0.0616  0.0425  0.2195
13679W        W56617   2.946  19.857   0.257 -0.2168  0.0028  0.0300
13680W        W56618   1.885  19.904  28.784  0.1123  0.0985 -0.4978
13681W        W56619   2.765  19.810  29.648 -0.0198  0.0155 -0.3151
13682W        W56620   1.192  19.909  27.744  0.4252  0.1337  0.1872
13683W        W56621   1.762  18.125  31.903  0.2003 -0.1307 -0.0971
13684W        W56622   0.713  18.774  31.412  0.0881  0.0618 -0.0858
13685W        W56623  33.983  21.964  30.639  0.1481  0.3064 -0.2151
13686W        W56624   2.629  20.945  30.497 -0.1142  0.1976 -0.0884
13687W        W56625   3.323  18.535  29.634 -0.0294 -0.0308 -0.2056
13688W        W56626   2.072  18.879  31.508  0.0342 -0.0728  0.0431
13689W        W56627   1.515  19.605  28.671 -0.0549  0.0354  0.0979
13690W        W56628   0.786  21.912  28.356  0.1263  0.1100 -0.1951
13691W        W56629   1.736  18.991  27.492 -0.2813  0.3462 -0.2909
13692W        W56630   1.732  17.851  30.420  0.2614  0.1791  0.2049
13693W        W56631   2.295  21.727  31.036  0.2417  0.0828 -0.2353
13694W        W56632   1.957  20.774  26.980 -0.2253 -0.3006 -0.0280
13695W        W56633   2.447  20.469  30.687  0.0366 -0.0800 -0.1813
13696W        W56634   0.760  21.226  29.172  0.0646  0.1477  0.0966
13697W        W56635   3.492  17.999  29.798 -0.2326 -0.0174 -0.1761
13698W        W56636  34.415  19.815  29.812  0.2240  0.1176  0.0842
13699W        W56637   1.607  19.652  26.916 -0.0658  0.5072  0.0534
13700W        W56638   0.301  18.762  28.354  0.1178 -0.2461  0.2020
13701W        W56639   2.113  18.926  29.286 -0.0630  0.1121  0.0251
13702W        W56640   2.001  18.961  29.771  0.0716  0.0253  0.2567
13703W        W56641   2.236  18.311  30.496 -0.0400 -0.3668 -0.1438
13704W        W56642   1.224  18.262  30.433 -0.2297 -0.0424  0.0981
13705W        W56643   0.930  20.474  29.501  0.1543 -0.2187 -0.1627
13706W        W56644   2.459  20.627  30.183  0.3218  0.1021 -0.0914
13707W        W56645   3.502  18.498  28.362 -0.2852 -0.2775  0.2125
13708W        W56646   4.686  20.591  30.493 -0.0257 -0.0145 -0.1857
13709W        W56647   1.485  19.996   0.958 -0.1777  0.0516 -0.1367
13710W        W56648   0.311  18.883  27.059 -0.1484  0.1803 -0.4162
13711W        W56649   3.779  18.517  31.066  0.1194  0.2370  0.0124
13712W        W56650   1.347  19.136  30.860  0.4574 -0.1075 -0.0216
13713W        W56651   0.976  20.829  28.357 -0.1301 -0.3806 -0.0675
13714W        W56652   1.500  21.298  29.381  0.1231 -0.0451 -0.1780
13715W        W56653   0.472  20.974  28.402 -0.0290 -0.1643 -0.0620
13716W        W56654   0.729  20.756  28.839  0.0911 -0.0332 -0.3198
13717W        W56655   1.073  19.073  29.908  0.1609 -0.2601 -0.0680
13718W        W56656   3.175  20.211  29.889 -0.0822  0.4970 -0.2434
13719W        W56657   1.277  20.171  30.188 -0.0864  0.0649 -0.3185
13720W        W56658   0.351  19.339  29.225 -0.0031 -0.0936 -0.1261
13721W        W56659   1.821  19.323  29.362  0.2091  0.0769 -0.2991
13722W        W56660   1.883  20.527  30.219  0.1552 -0.3450 -0.2701
13723W        W56661   2.628  19.465  31.009 -0.2142  0.1109  0.0099
13724W        W56662  34.194  21.107  31.148 -0.1482 -0.0600  0.2449
13725W        W56663   1.895  18.465  29.621 -0.2811  0.0242  0.2685
13726W        W56664   2.951  22.376  28.778  0.1727 -0.0556 -0.1834
13727W        W56665   3.108  19.687  31.757  0.2669  0.1222 -0.1110
13728W        W56666   0.860  22.370  27.927  0.2691  0.0069  0.0632
13729W        W56667   0.813  20.638  30.580 -0.0710  0.2024  0.1255
13730W        W56668   1.664  19.765  27.743  0.0814  0.0913  0.1282
13731W        W56669   2.189  19.795  29.742 -0.0902  0.1372 -0.1765
13732W        W56670   2.063  20.832  29.789 -0.0296 -0.2381  0.1805
13733W        W56671   0.994  21.481  27.361 -0.4273  0.2685  0.2801
13734W        W56672   1.668  19.924  31.001 -0.1327  0.0508  0.0987
13735W        W56673   3.594  16.976  28.033  0.1081 -0.0369 -0.1752
13736W        W56674   1.545  20.728  27.633  0.0488  0.0830 -0.0027
13737W        W56675   2.714  19.692  28.718 -0.0575 -0.2819  0.3042
13738W        W56676   3.107  17.653  30.679 -0.3769 -0.0347 -0.0876
13739W        W56677   2.061  19.998  27.517  0.0597 -0.0266  0.0946
13740W        W56678   2.037  19.343  30.444 -0.0072  0.1706 -0.0479
13741W        W56679   2.878  18.299  31.425  0.1102 -0.1879 -0.2062
13742W        W56680   2.893  20.981  29.562 -0.4162  0.3443  0.1080
13743W        W56681   0.245  18.486  31.565 -0.1188 -0.1955  0.2308
13744W        W56682   1.932  21.647  31.454 -0.1232 -0.0481 -0.1243
13745W        W56683   1.163  20.805  31.233  0.1029 -0.2080 -0.2461
13746W        W56684   3.208  19.531  28.653  0.2137 -0.0144  0.3174
13747W        W56685  34.109  19.251  28.158 -0.1580 -0.0800 -0.2634
13748W        W56686  34.590  19.975  30.216 -0.1859 -0.3644  0.0687
13749W        W56687   4.512  19.911  30.471 -0.1952 -0.3108 -0.3585
13750W        W56688   1.571  20.292  26.170 -0.0887 -0.0520  0.0246
13751W        W56689   2.760  20.254  30.393 -0.2077  0.0480  0.0905
13752W        W56690   0.854  20.152  30.505 -0.1557  0.1834 -0.1748
13753W        W56691   3.155  20.394  28.871  0.2169 -0.0141  0.0323
13754W        W56692   3.611  19.616  27.842  0.2167 -0.0705  0.0972
13755W        W56693   1.118  20.449  28.052 -0.0546 -0.2723 -0.2095
13756W        W56694   1.354  18.985  31.629  0.0753  0.1423 -0.1693
13757W        W56695   1.957  20.170  29.312 -0.0713 -0.1842 -0.4345
13758W        W56696   2.461  18.220  29.656 -0.0853 -0.2932 -0.4586
13759W        W56697   3.934  18.935  30.759 -0.2884 -0.0289 -0.2548
13760W        W56698   4.066  18.879  31.263 -0.3066  0.3716 -0.1272
13761W        W56699   1.543  17.608  30.862 -0.2169 -0.1028  0.1788
13762W        W56700   0.290  20.044  31.285 -0.0746  0.0278 -0.2957
13763W        W56701   2.129  22.080  30.675  0.1516  0.3430  0.0902
13764W        W56702   3.323  18.174  27.827 -0.0852  0.0212  0.1513
13765W        W56703   3.104  19.883  30.312 -0.2771 -0.3475  0.1266
13766W        W56704   2.876  18.535  29.848  0.1719 -0.1403 -0.1343
13767W        W56705   2.296  20.227  28.883 -0.0518 -0.2346  0.0172
13768W        W56706   0.733  20.234  29.030  0.1378  0.1560  0.3376
13769W        W56707   3.064  20.233  31.927  0.2704  0.1914  0.2650
13770W        W56708   1.499  17.879  28.638  0.1324  0.0071  0.0920
13771W        W56709   2.920  18.773  31.217 -0.0906  0.1851  0.2373
13772W        W56710   1.735  22.105  27.354  0.0499  0.0678  0.2608
13773W        W56711   1.924  20.688  30.991  0.3459  0.0793  0.0519
13774W        W56712   2.822  17.616  29.854 -0.1729  0.0795 -0.0042
13775W        W56713  33.637  17.684  29.726  0.0282  0.2292  0.1724
13776W        W56714   0.737  21.135   0.009 -0.0544 -0.1119 -0.0754
13777W        W56715   1.113  20.594  27.548 -0.3482  0.1482 -0.2623
13778W        W56716   2.215  21.358  27.126  0.0670 -0.0961 -0.2106
13779W        W56717   2.326  21.278  30.635 -0.1449  0.0044 -0.0255
13780W        W56718   4.067  21.258  31.398 -0.1172 -0.1849 -0.2694
13781W        W56719   2.039  18.896  28.799 -0.2616  0.0001  0.0389
13782W        W56720   3.084  19.321  30.229 -0.2137 -0.1217  0.0692
13783W        W56721   0.056  21.347  27.258 -0.0282  0.2041  0.1280
13784W        W56722   2.631  16.126  29.568 -0.0778 -0.0424  0.3615
13785W        W56723   1.952  22.550  30.299 -0.3484  0.0589  0.1040
13786W        W56724   0.057  22.141  30.943  0.1268 -0.0060  0.4190
13787W        W56725   0.921  20.937  27.880  0.2437  0.0111 -0.2538
13788W        W56726   1.374  19.944  31.488  0.2941 -0.3636 -0.1147
13789W        W56727   2.302  20.138  30.307 -0.1192 -0.0467 -0.0045
13790W        W56728   1.907  18.674  30.168 -0.1979  0.0492 -0.1622
13791W        W56729   3.564  19.280  29.976 -0.2534 -0.0479  0.1583
13792W        W56730   2.140  19.975  31.407  0.0972 -0.0973  0.2794
13793W        W56731   1.569  19.264  30.381 -0.1872  0.2888  0.1418
13794W        W56732   2.375  21.141   0.050 -0.1938  0.4914 -0.0600
13795W        W56733   2.687  20.210  28.498  0.2075 -0.1267  0.2365
13796W        W56734   2.013  19.807  30.564  0.0976  0.1617 -0.0339
13797W        W56735  33.548  18.936  31.794  0.3538  0.1767 -0.0050
13798W        W56736   1.626  20.334  31.270  0.1313 -0.1097  0.4171
13799W        W56737   1.349  20.438  29.786 -0.0244 -0.3488 -0.0257
13800W        W56738   0.834  18.669  29.516  0.2596 -0.1035 -0.1056
13801W        W56739   1.052  21.469  28.355 -0.0088 -0.4619  0.0661
13802W        W56740   0.274  21.130  30.172 -0.0542 -0.0597 -0.0405
13803W        W56741  34.047  18.805  31.823 -0.1160 -0.0174 -0.3121
13804W        W56742   0.231  21.725  28.310 -0.5566  0.1152  0.0443
13805W        W56743   2.870  19.693  28.279  0.0894 -0.0985 -0.1391
13806W        W56744   2.512  20.508  28.125 -0.2842 -0.3189 -0.4069
13807W        W56745   2.687  22.951  30.440  0.0640  0.1162  0.1466
13808W        W56746   1.962  19.375  28.867 -0.2266 -0.2671 -0.1133
13809W        W56747   1.591  21.070  31.172  0.1122 -0.1141 -0.1793
13810W        W56748   1.208  21.030  27.276 -0.0757 -0.2244  0.1220
13811W        W56749   2.484  20.963  28.366 -0.0675  0.1312 -0.0393
13812W        W56750   0.981  22.448  28.445  0.1285  0.2079 -0.0957
13813W        W56751   2.609  21.560  30.075 -0.1870 -0.0275  0.0274
13814W        W56752   3.773  17.123  27.518  0.2185  0.0124  0.1483
13815W        W56753   3.070  18.856  30.466 -0.0190  0.0066 -0.2380
13816W        W56754   2.848  19.266  29.701  0.1016  0.3541 -0.0211
13817W        W56755   1.542  21.229  30.648  0.2395  0.0375  0.0360
13818W        W56756   2.210  19.158  30.850  0.2058  0.0013 -0.2730
13819W        W56757   1.281  19.582  30.099 -0.1038  0.0598 -0.1555
13820W        W56758   0.357  18.184  30.768  0.1452  0.0330  0.0469
13821W        W56759   3.572  18.536  30.519 -0.0149 -0.0884  0.2566
13822W        W56760   0.152  22.193   0.396 -0.4572 -0.2536  0.3283
13823W        W56761   3.830  21.265  29.534  0.1655 -0.1663 -0.3668
13824W        W56762  34.665  18.398  26.859 -0.1480 -0.2859 -0.3002
13825W        W56763   1.410  20.258  29.256 -0.2888  0.0255 -0.1033
13826W        W56764   4.226  17.508  29.676  0.0857 -0.1781 -0.3824
13827W        W56765   0.862  21.121  26.926 -0.0047 -0.2470 -0.0705
13828W        W56766   1.760  20.058  30.076 -0.0469 -0.0885  0.1659
13829W        W56767   1.975  22.073  28.693  0.2486 -0.0706  0.3038
13830W        W56768   0.608  21.502  30.264  0.4473  0.1924 -0.1510
13831W        W56769   1.713  21.375  28.929  0.1143  0.0127 -0.0009
13832W        W56770  34.006  19.113  29.059 -0.4589  0.2221 -0.0373
13833W        W56771   3.334  18.308  28.967  0.1716  0.2201  0.1345
13834W        W56772   1.588  19.194  29.872  0.0987 -0.0256  0.1186
13835W        W56773   3.747  17.465  29.912 -0.1812  0.1620 -0.1016
13836W        W56774   2.484  18.592  29.123 -0.0620 -0.0975  0.0058
13837W        W56775   3.836  20.047  28.499  0.1430  0.2225  0.0380
13838W        W56776   0.660  19.893  30.122 -0.0188  0.0544  0.2341
13839W        W56777   0.503  19.564  29.663  0.1479  0.0440  0.1031
13840W        W56778   1.126  19.622  26.650  0.1347  0.1838 -0.0013
13841W        W56779   3.518  19.578  30.394 -0.2845  0.2019 -0.0426
13842W        W56780   3.289  19.186  27.225 -0.0925  0.1304 -0.0616
13843W        W56781   2.457  21.361  31.377 -0.1142 -0.0914  0.0412
13844W        W56782   0.495  20.283  28.605  0.3591  0.1857  0.0704
13845W        W56783   2.285  19.777  29.083  0.1723 -0.5632  0.2224
13846W        W56784   0.779  19.321  28.945 -0.1420 -0.2385  0.1479
13847W        W56785  34.302  19.990  30.643  0.0284 -0.2915  0.0400
13848W        W56786   1.520  20.814  31.575  0.0030  0.2008 -0.1914
13849W        W56787   0.258  18.661  27.867 -0.1181 -0.1497  0.2152
13850W        W56788   2.583  20.619  28.766  0.2426  0.2557 -0.0109
13851W        W56789   4.408  20.283  29.995 -0.1405  0.2518  0.0652
13852W        W56790   0.362  20.908  27.120 -0.0042  0.2468 -0.2478
13853W        W56791   3.172  21.119  27.592  0.1362  0.0940 -0.2647
13854W        W56792   2.086  21.778  29.765 -0.2018  0.1704  0.0041
13855W        W56793   0.247  19.271  30.734 -0.2442  0.0326  0.0734
13856W        W56794   1.085  21.343  30.090  0.1979 -0.1986 -0.0890
13857W        W56795   3.949  21.720  29.436  0.1735 -0.0166  0.0560
13858W        W56796   1.481  18.684  29.832  0.0696 -0.0281  0.0336
13859W        W56797   0.750  18.221  30.380 -0.3662 -0.2318 -0.2218
13860W        W56798   1.232  21.255  28.971 -0.1480  0.1124  0.2533
13861W        W56799   3.546  21.126  31.301  0.2422 -0.3089  0.1185
13862W        W56800   2.509  18.355  30.928 -0.2699 -0.0240 -0.0243
13863W        W56801   0.732  21.069  27.405 -0.0551 -0.1815  0.0288
13864W        W56802   2.108  17.118  29.569  0.0600  0.0321  0.2162
13865W        W56803   1.792  18.925  30.702 -0.0719  0.0082 -0.0612
13866W        W56804  34.186  21.049  30.492 -0.0611 -0.0536 -0.1878
13867W        W56805   0.537  19.777  28.867  0.1786 -0.0429  0.0582
13868W        W56806   0.322  20.267  30.193 -0.2262 -0.0786  0.2535
13869W        W56807   2.916  21.549  29.637 -0.3248  0.0948 -0.0700
13870W        W56808   1.716  19.964  28.267  0.2107 -0.2971 -0.0760
13871W        W56809   2.035  23.179  29.331  0.2781 -0.1937  0.2699
13872W        W56810   3.310  17.969  29.330 -0.1115  0.1039 -0.2589
13873W        W56811   2.553  21.513  29.134  0.0046 -0.1203  0.2445
13874W        W56812   1.319  19.063  29.474  0.3840  0.0438  0.1297
13875W        W56813   2.807  16.569  29.339  0.3535 -0.2855 -0.0293
13876W        W56814   2.627  18.851  28.694 -0.0370  0.1449 -0.2737
13877W        W56815   0.657  20.802  30.132  0.0184  0.1590 -0.0667
13878W        W56816   0.750  19.690  27.587  0.0453  0.1806  0.1217
13879W        W56817   0.948  20.496  26.550 -0.0049  0.1114  0.1134
13880W        W56818   1.705  19.488  30.848  0.2056  0.1352  0.0449
13881W        W56819   2.275  18.888  30.404  0.4379  0.0300 -0.0634
13882W        W56820  33.549  19.248  31.138  0.0442 -0.0945 -0.0697
13883W        W56821   1.681  19.871  29.648 -0.1288  0.0295  0.2858
13884W        W56822  34.535  19.517  30.532  0.0770 -0.0407  0.3037
13885W        W56823   2.857  21.729  28.718 -0.1861  0.2242  0.0084
13886W        W56824   0.905  18.713  31.856 -0.0683 -0.0129 -0.1315
13887W        W56825   0.443  18.280  29.258  0.0637  0.1423 -0.0331
13888W        W56826   1.162  20.892  29.282 -0.3534 -0.0187 -0.1223
13889W        W56827   2.448  21.421  28.224  0.0953 -0.0110  0.0690
13890W        W56828   1.593  18.686  28.486 -0.1524  0.0269  0.2377
13891W        W56829   2.806  21.260  30.962 -0.3719  0.1624  0.0948
13892W        W56830   0.954  20.289  28.498  0.3303 -0.0656  0.0557
13893W        W56831   1.127  20.392  31.535  0.2098 -0.3428  0.0523
13894W        W56832   1.247  19.536  31.756 -0.1352  0.2783 -0.2123
13895W        W56833  34.295  18.497  27.172  0.2647 -0.2473  0.2579
13896W        W56834   2.337  19.308  29.907 -0.0932  0.1182 -0.0566
13897W        W56835   1.714  20.600  29.493 -0.3000  0.2518  0.1004
13898W        W56836   3.035  22.826  26.973 -0.3966  0.0345  0.1316
13899W        W56837   0.826  20.080  31.338 -0.0481  0.2531  0.1265
13900W        W56838   1.107  22.252   0.597 -0.0772 -0.2127  0.0023
13901W        W56839   0.369  18.001  31.805 -0.1661 -0.1550  0.4751
13902W        W56840   2.194  20.588  29.233  0.0814  0.1567  0.3492
13903W        W56841   0.527  21.050  30.558 -0.2711  0.2014 -0.2156
13904W        W56842   2.334  19.844  28.469 -0.2969 -0.1571  0.1900
13905W        W56843   3.986  18.006  29.720  0.1474 -0.1985 -0.2383
13906W        W56844   3.179  20.046  28.530  0.0618 -0.1449  0.1569
13907W        W56845   0.715  17.516  31.303 -0.0691  0.2975  0.0655
13908W        W56846  34.558  21.163  30.772  0.0643 -0.2706 -0.1394
13909W        W56847   3.087  20.300  30.871  0.0931 -0.2165  0.2390
13910W        W56848   0.637  19.294  30.101 -0.2320  0.0266 -0.0355
13911W        W56849   3.879  19.647  28.842  0.0874 -0.1012  0.0303
13912W        W56850   1.518  19.726  29.157 -0.1463  0.1327 -0.0264
13913W        W56851   0.353  19.747  30.566  0.0215 -0.0404  0.3614
13914W        W56852   2.586  19.925  27.936  0.2852  0.1414 -0.0633
13915W        W56853   2.601  20.078  31.176  0.1020  0.1572 -0.1089
13916W        W56854   2.095  20.346  29.754  0.2010  0.1098 -0.0878
13917W        W56855   1.792  20.233   0.531  0.0118 -0.0991 -0.1016
13918W        W56856   1.005  19.835  28.737  0.0939 -0.0637 -0.2555
13919W        W56857   2.815  19.975  27.451 -0.0101  0.1494  0.0409
13920W        W56858   1.517  21.533  30.271 -0.4064  0.2237  0.2326
13921W        W56859   4.975  22.225  30.708  0.1809 -0.1874  0.0740
13922W        W56860   1.801  22.027  30.179  0.2108 -0.2155 -0.1065
13923W        W56861   2.286  20.497  31.252 -0.0442  0.0959 -0.0988
13924W        W56862   1.006  17.533  30.838  0.0527  0.5074  0.2542
13925W        W56863   1.053  19.414  28.486 -0.1225  0.1019 -0.1423
13926W        W56864   0.352  21.155  28.914 -0.1705 -0.1962 -0.3279
13927W        W56865   2.748  18.929  30.157  0.1412 -0.0973  0.0730
13928W        W56866   0.591  18.304  29.799  0.3615 -0.1391  0.3991
13929W        W56867   1.368  19.217  29.000  0.0729  0.0699 -0.0006
13930W        W56868   1.556  21.566  31.116 -0.0054 -0.2021 -0.1869
13931W        W56869   2.393  21.297  29.622 -0.3218 -0.0892  0.0587
13932W        W56870   4.148  18.644  31.776 -0.2434 -0.0531  0.0730
13933W        W56871   1.852  21.206  31.817  0.3398  0.1984 -0.1309
13934W        W56872   2.308  19.278  31.711  0.1364 -0.1485 -0.0427
13935W        W56873   1.675  21.209   0.304  0.1124  0.0281  0.0526
13936W        W56874   2.355  22.419   0.280 -0.0965 -0.0537 -0.2060
13937W        W56875   0.292  22.246  31.883 -0.2773  0.0946  0.3440
13938W        W56876   3.492  19.164   0.573 -0.0467  0.1451  0.2293
13939W        W56877   1.623  17.965  31.368  0.0148 -0.0113  0.0866
13940W        W56878   3.079  17.842  31.530 -0.0899 -0.1619 -0.0317
13941W        W56879   3.346  22.022  31.979 -0.0195 -0.0250  0.0597
13942W        W56880   1.374  21.296  31.577  0.1528 -0.1591 -0.1040
13943W        W56881   1.470  17.878   0.271 -0.0162 -0.1933  0.4074
13944W        W56882   2.472  22.226  30.974 -0.2903 -0.0487  0.0352
13945W        W56883   1.190  20.282  31.020 -0.0800  0.1381  0.0435
13946W        W56884   4.703  19.368  30.675 -0.1124 -0.2908  0.2041
13947W        W56885   2.049  23.586  30.896 -0.1068  0.2879  0.2463
13948W        W56886   0.089  23.245   0.395 -0.2092 -0.3063 -0.2139
13949W        W56887   4.476  22.455  31.397 -0.0143  0.1429  0.0182
13950W        W56888  33.502  17.951   0.237  0.0111  0.0047 -0.0904
13951W        W56889   1.855  18.708   0.433  0.1847 -0.2799 -0.2033
13952W        W56890   1.383  18.053  30.844  0.1345  0.1367 -0.3070
13953W        W56891  34.240  22.630   0.616  0.0293  0.1596 -0.0872
13954W        W56892   2.550  18.814   0.405  0.1642  0.0806 -0.0984
13955W        W56893   2.512  19.631  31.440  0.3126  0.0812 -0.0290
13956W        W56894   2.802  18.622  31.798 -0.3719  0.0716  0.0498
13957W        W56895   1.230  20.451   0.888 -0.0382  0.1610 -0.2283
13958W        W56896   3.413  20.530  31.671  0.0945 -0.0835 -0.1398
13959W        W56897  34.378  20.742   0.195  0.4251  0.0313 -0.0500
13960W        W56898   0.828  19.942   0.403  0.0971  0.0150  0.0031
13961W        W56899   1.327  20.744  30.746 -0.3800 -0.1751 -0.0321
13962W        W56900   0.566  21.844  31.711  0.0084  0.0927  0.0964
13963W        W56901   1.034  17.349   0.965 -0.1727 -0.0247  0.2823
13964W        W56902   3.646  21.403   0.863 -0.1069 -0.2763 -0.4428
13965W        W56903   3.977  19.966  31.043 -0.0790 -0.0451 -0.0698
13966W        W56904   0.576  18.539   1.100  0.3131  0.0351  0.1694
13967W        W56905   1.030  21.059   0.946 -0.1920 -0.0698  0.1801
13968W        W56906   1.056  21.751   0.367  0.2068 -0.1502  0.0880
13969W        W56907   2.480  19.638   0.100 -0.1725  0.1034 -0.0728
13970W        W56908   4.497  19.735  30.942 -0.0894  0.0672  0.1165
13971W        W56909   0.734  19.235  30.856  0.1784 -0.0037  0.1844
13972W        W56910   4.114  19.439  29.784 -0.0780  0.3190  0.2586
13973W        W56911   3.188  19.987  29.417 -0.4205  0.0819  0.2130
13974W        W56912   1.222  18.229  31.927 -0.1698 -0.0471  0.2276
13975W        W56913   1.142  19.633   1.270 -0.2465 -0.4157  0.1133
13976W        W56914   1.635  19.989   0.095  0.1015  0.4441 -0.3016
13977W        W56915   2.420  21.635  31.921  0.0091 -0.1932  0.1312
13978W        W56916   1.724  16.959   1.178 -0.0144 -0.4030 -0.0898
13979W        W56917  34.571  20.212  31.149  0.2626 -0.2116 -0.1886
13980W        W56918   2.174  22.692  31.792 -0.0099 -0.2390 -0.3350
13981W        W56919  34.684  21.845   0.712 -0.2075  0.4376  0.0708
13982W        W56920   2.779  20.573  31.137 -0.1004 -0.4740  0.0303
13983W        W56921   3.087  19.218  30.764 -0.0334 -0.1321  0.0184
13984W        W56922   0.756  19.073   1.894 -0.0427  0.1093  0.2425
13985W        W56923   1.241  21.164   0.090 -0.2051 -0.0896 -0.0979
13986W        W56924   1.803  19.207  31.747 -0.0656 -0.0709  0.0805
13987W        W56925   2.963  19.758  30.773 -0.1372  0.3479  0.0410
13988W        W56926   3.080  19.362   0.308  0.1494  0.0193  0.0363
13989W        W56927   1.094  20.845   0.508 -0.0247  0.1272  0.1217
13990W        W56928   2.532  23.723  31.164 -0.1142  0.0194  0.2193
13991W        W56929  33.630  21.314  31.573  0.2170 -0.1468 -0.2401
13992W        W56930   0.664  20.449  30.973 -0.0555  0.1860 -0.0646
13993W        W56931   0.224  21.474  31.783  0.3069 -0.0615 -0.1811
13994W        W56932   0.871  21.335   0.516  0.1004  0.0367 -0.2559
13995W        W56933   1.360  18.752  30.457 -0.2087 -0.2244  0.4288
13996W        W56934   4.164  22.103   1.198 -0.0592 -0.1689  0.4019
13997W        W56935   3.473  20.578   0.169  0.0137 -0.2556 -0.1443
13998W        W56936   4.673  19.681  31.762 -0.0716  0.0174  0.1921
13999W        W56937   0.096  24.240  19.309 -0.1998  0.1420  0.0018
14000W        W56938   1.433  22.630  17.476 -0.1915 -0.3354  0.3117
14001W        W56939   3.502  22.617  16.492  0.2600  0.0241 -0.1141
14002W        W56940   2.434  23.431  16.714 -0.0677 -0.0241 -0.1423
14003W        W56941   0.063  22.362  16.960 -0.1393 -0.2392  0.0009
14004W        W56942   2.790  25.086  16.401  0.2301  0.0018 -0.0720
14005W        W56943   0.255  21.992  18.058  0.1768  0.0241  0.1615
14006W        W56944   3.504  24.371  17.569  0.2265  0.2858 -0.1661
14007W        W56945   3.735  25.322  16.568 -0.3517  0.1884  0.1796
14008W        W56946   2.915  23.791  16.740  0.1197  0.4470  0.1455
14009W        W56947   1.051  22.464  18.457 -0.0991  0.3361 -0.0588
14010W        W56948   2.845  24.246  18.803  0.1875 -0.1521 -0.1273
14011W        W56949   1.778  21.107  18.321  0.2079 -0.1973 -0.0309
14012W        W56950   0.262  22.965  19.521  0.1152  0.0716 -0.0401
14013W        W56951   2.998  24.231  16.961 -0.1202 -0.1433 -0.0817
14014W        W56952   0.693  24.398  17.643 -0.0384  0.0808  0.1650
14015W        W56953   2.724  22.314  20.479  0.1684 -0.0304  0.1715
14016W        W56954   0.791  21.890  17.701  0.0796  0.0980  0.0319
14017W        W56955   2.438  24.864  16.863  0.0972  0.0654 -0.1510
14018W        W56956   1.186  22.218  19.529  0.2532  0.0720 -0.5260
14019W        W56957   1.517  21.212  20.234  0.1151  0.2173 -0.1139
14020W        W56958   1.092  23.162  17.626  0.0459 -0.1777 -0.1884
14021W        W56959   0.932  23.149  16.922  0.1405  0.1328  0.3499
14022W        W56960   1.635  23.054  19.118  0.0311  0.2843 -0.0387
14023W        W56961   0.960  24.108  19.644 -0.1938 -0.1273  0.2545
14024W        W56962   2.372  22.959  18.521 -0.0440  0.0720 -0.1052
14025W        W56963   3.035  23.558  17.482 -0.3635  0.1204  0.1541
14026W        W56964   1.351  25.606  18.567 -0.0448  0.0268 -0.0739
14027W        W56965   2.995  24.577  17.688 -0.2440 -0.2201 -0.0763
14028W        W56966   3.207  21.955  19.654  0.1157 -0.0733 -0.0285
14029W        W56967   1.359  23.981  16.682  0.1947 -0.3662  0.0262
14030W        W56968  33.850  25.058  17.134 -0.0557  0.1076 -0.1207
14031W        W56969   0.885  25.214  16.565  0.1180  0.3547  0.1288
14032W        W56970   4.143  23.919  17.668  0.1024  0.0308  0.3363
14033W        W56971   0.883  22.463  19.269  0.0191  0.0967 -0.0586
14034W        W56972   2.079  25.654  18.694  0.0873 -0.1938  0.0207
14035W        W56973  34.009  25.238  16.681  0.4469  0.3605 -0.0696
14036W        W56974   1.759  25.790  18.340 -0.0402 -0.0643  0.1535
14037W        W56975   2.392  25.480  19.498 -0.4254  0.0435  0.0615
14038W        W56976   3.493  24.201  18.826  0.0592 -0.2710  0.0828
14039W        W56977   2.615  23.369  18.904  0.1945 -0.5874 -0.1858
14040W        W56978  34.157  25.919  16.189 -0.2024  0.0789  0.1232
14041W        W56979   2.875  25.033  17.938  0.1032 -0.0514 -0.1032
14042W        W56980   2.283  24.196  21.729 -0.1548 -0.1207  0.1008
14043W        W56981  34.289  23.663  18.329 -0.2650  0.0164 -0.1231
14044W        W56982   3.001  21.754  20.486  0.1522 -0.3327 -0.0191
14045W        W56983  34.346  25.252  17.138  0.2349  0.0981 -0.1158
14046W        W56984   3.493  22.187  17.382  0.1804 -0.1231  0.1137
14047W        W56985   2.377  22.315  17.266  0.1388 -0.1918 -0.1010
14048W        W56986   3.317  23.677  17.057 -0.0125 -0.0901 -0.3122
14049W        W56987   0.448  21.527  17.976 -0.0583  0.1110 -0.2877
14050W        W56988   0.744  25.493  19.348  0.0843  0.1721 -0.0295
14051W        W56989   0.177  22.521  18.684  0.1049  0.1293 -0.0564
14052W        W56990   3.142  23.724  18.720 -0.2553  0.1998  0.2702
14053W        W56991   0.923  23.799  16.777 -0.1819  0.0117 -0.1831
14054W        W56992   3.140  23.074  17.412  0.0639 -0.1182  0.3048
14055W        W56993   2.541  24.425  17.941 -0.5633 -0.0138  0.0981
14056W        W56994   0.841  22.980  18.589  0.1685  0.1137 -0.1115
14057W        W56995   3.797  25.854  16.538  0.1862 -0.2867  0.0002
14058W        W56996   3.506  25.648  16.963 -0.0901 -0.3212  0.3217
14059W        W56997   1.863  24.039  16.953  0.2522 -0.1188  0.0658
14060W        W56998   2.221  23.697  17.748  0.0474  0.1536  0.2419
14061W        W56999   0.295  24.869  20.116 -0.1096 -0.4610  0.2061
14062W        W57000  34.227  23.118  18.751  0.2512 -0.0223 -0.1744
14063W        W57001   0.621  22.739  16.362  0.0343 -0.1676  0.4157
14064W        W57002   3.960  23.639  20.018  0.1797 -0.3165 -0.2602
14065W        W57003  34.295  24.992  18.289 -0.0692  0.1115 -0.0289
14066W        W57004   2.902  21.405  17.526  0.0972 -0.1810 -0.0307
14067W        W57005   1.440  23.551  18.006  0.3904  0.1785  0.0029
14068W        W57006   3.489  24.799  16.761 -0.2838  0.1156 -0.0466
14069W        W57007   3.878  24.076  17.324  0.1626  0.4974  0.1923
14070W        W57008   2.678  22.261  18.857  0.1868 -0.2970  0.1874
14071W        W57009   1.546  20.819  19.168  0.2501 -0.1788 -0.0653
14072W        W57010   0.238  23.795  16.516 -0.0843 -0.1260  0.0925
14073W        W57011   0.860  24.247  16.506  0.0247 -0.0386 -0.1024
14074W        W57012   2.745  25.477  20.367  0.1881 -0.1904 -0.0756
14075W        W57013   2.033  23.374  17.020  0.5100 -0.2451  0.2111
14076W        W57014   1.313  24.258  19.073 -0.0796 -0.1082  0.1156
14077W        W57015   2.280  23.519  19.924  0.1505 -0.2653 -0.1869
14078W        W57016   2.249  24.201  20.568 -0.2628  0.0326  0.4679
14079W        W57017  34.350  24.911  16.298  0.0018  0.0577  0.1609
14080W        W57018   0.003  23.463  17.608  0.0592 -0.1614 -0.0558
14081W        W57019   0.456  25.145  16.773 -0.0392 -0.1074  0.0226
14082W        W57020  33.600  22.659  19.203 -0.1118  0.0042  0.0913
14083W        W57021   1.662  24.513  18.876 -0.0640  0.2015 -0.0118
14084W        W57022   4.169  21.493  17.762 -0.0392  0.0617 -0.2320
14085W        W57023   0.104  21.961  19.206 -0.4922 -0.0220  0.0852
14086W        W57024   4.195  22.025  18.184 -0.0518  0.2054 -0.2097
14087W        W57025  34.491  23.967  17.494 -0.1187 -0.2694  0.0463
14088W        W57026   3.519  26.417  17.166  0.2650 -0.4213  0.2095
14089W        W57027   2.554  23.664  16.173 -0.1637  0.1073 -0.1325
14090W        W57028   1.909  24.466  16.006  0.1764 -0.3324  0.0741
14091W        W57029  33.749  24.134  18.812 -0.1405 -0.0052 -0.0273
14092W        W57030  34.370  22.613  18.656 -0.1640 -0.2442  0.4781
14093W        W57031   2.324  21.389  20.389  0.1447  0.0255 -0.1838
14094W        W57032  33.864  22.717  18.766  0.0793  0.2492  0.0662
14095W        W57033   4.114  25.332  17.467 -0.3177  0.1289  0.0710
14096W        W57034   0.028  20.606  17.501 -0.0865  0.1839  0.0222
14097W        W57035   3.221  23.060  17.972 -0.0052  0.0824 -0.1543
14098W        W57036   1.179  23.222  18.292  0.1940  0.5104 -0.0607
14099W        W57037  34.376  23.024  16.660 -0.1114 -0.3196  0.3070
14100W        W57038   3.170  22.430  19.568  0.1564 -0.1088  0.0037
14101W        W57039   1.707  23.986  17.733 -0.2536  0.0033 -0.1415
14102W        W57040   3.377  25.268  20.502 -0.2216 -0.3006 -0.0053
14103W        W57041   1.955  25.720  17.161 -0.2077 -0.1700  0.2940
14104W        W57042   1.019  22.924  19.481  0.3653 -0.1622  0.0857
14105W        W57043   0.757  22.259  16.288 -0.0803 -0.0543  0.1207
14106W        W57044  34.113  24.677  19.109  0.1273 -0.2195 -0.1341
14107W        W57045   1.086  25.186  17.336 -0.1753  0.0018 -0.3108
14108W        W57046   2.267  20.676  17.403  0.2816  0.0468 -0.1176
14109W        W57047   3.187  26.495  19.108  0.0285 -0.0764 -0.1093
14110W        W57048   1.344  24.010  17.213  0.1198  0.3040 -0.4874
14111W        W57049  34.503  23.777  19.446 -0.1240  0.1652  0.0979
14112W        W57050   3.021  21.774  18.794  0.0458 -0.0519 -0.0837
14113W        W57051   3.875  24.284  17.892 -0.1471 -0.0672  0.3367
14114W        W57052   2.095  22.986  17.469  0.1998 -0.2264 -0.0985
14115W        W57053   0.371  22.370  16.539  0.0622  0.0939 -0.3114
14116W        W57054   1.875  24.843  17.012 -0.1711  0.0874  0.0157
14117W        W57055   0.541  25.695  16.781  0.3902 -0.0320 -0.2567
14118W        W57056   0.600  22.655  18.356 -0.0194 -0.0699 -0.0999
14119W        W57057   0.941  24.862  17.670  0.2886 -0.0353  0.1733
14120W        W57058   4.128  23.367  17.657  0.0263  0.2126  0.0077
14121W        W57059  34.278  23.175  20.126 -0.4615  0.0467  0.1260
14122W        W57060   2.709  23.620  20.137 -0.1839  0.1881 -0.0880
14123W        W57061   0.412  21.950  16.778 -0.1314 -0.2788 -0.1909
14124W        W57062   0.205  24.656  19.515 -0.1906 -0.0354  0.1551
14125W        W57063   2.255  21.505  19.903  0.0518 -0.3884 -0.0740
14126W        W57064   2.780  21.948  17.463 -0.2464 -0.1528 -0.1711
14127W        W57065   2.026  23.953  18.679  0.1659 -0.0672 -0.2973
14128W        W57066   2.795  25.184  16.990  0.1111  0.1720 -0.1749
14129W        W57067   2.592  22.946  16.647 -0.0587  0.0827  0.1742
14130W        W57068   3.107  22.407  16.622 -0.2344  0.0823  0.0251
14131W        W57069  33.654  25.427  19.396 -0.1405  0.0808  0.3807
14132W        W57070   1.275  24.338  17.580  0.0069  0.1994 -0.0986
14133W        W57071   2.254  25.108  18.575 -0.0372  0.0423  0.3095
14134W        W57072   1.889  22.271  16.453  0.0028 -0.1449 -0.0251
14135W        W57073   4.927  25.427  17.553  0.3780  0.2187  0.3183
14136W        W57074  34.193  23.963  17.028 -0.2849 -0.1286  0.2468
14137W        W57075   3.089  22.114  20.113  0.3684 -0.1845 -0.0161
14138W        W57076   4.222  25.262  16.654 -0.0543 -0.1482  0.1591
14139W        W57077   0.401  22.400  20.101  0.0309  0.1082 -0.1478
14140W        W57078   1.869  22.706  17.884  0.1169  0.1449  0.2495
14141W        W57079   1.875  23.339  17.691 -0.1093  0.0041  0.1238
14142W        W57080  34.589  26.592  16.969  0.0846 -0.3774  0.1246
14143W        W57081   2.891  22.763  18.643 -0.0835 -0.1844  0.0874
14144W        W57082   0.338  21.945  17.539 -0.2442 -0.0981 -0.4700
14145W        W57083   2.002  23.097  18.198 -0.1054  0.2151  0.2153
14146W        W57084   4.381  23.894  20.231  0.4411 -0.0217  0.0456
14147W        W57085   2.043  23.657  16.111 -0.0169 -0.1991 -0.2891
14148W        W57086   1.542  24.473  16.879  0.2147  0.0816 -0.1538
14149W        W57087   0.128  23.315  16.416  0.3115 -0.0550 -0.2616
14150W        W57088   1.997  21.990  20.006  0.1646  0.1960 -0.1886
14151W        W57089  34.041  23.613  18.795 -0.0674 -0.2528  0.3422
14152W        W57090   0.654  25.322  20.809  0.2049  0.0650 -0.2018
14153W        W57091   0.493  24.707  18.829  0.3655  0.3295 -0.0446
14154W        W57092   4.322  24.895  17.338  0.0982 -0.2056  0.0961
14155W        W57093   2.614  22.423  19.956  0.1770 -0.1953 -0.1015
14156W        W57094   1.500  21.728  17.113 -0.3604  0.1192 -0.2630
14157W        W57095   0.130  25.330  17.107 -0.4608 -0.1310 -0.0343
14158W        W57096   1.563  24.724  16.404 -0.0090 -0.1095  0.1336
14159W        W57097   1.472  21.983  19.198  0.1582  0.2240 -0.1522
14160W        W57098   1.849  25.272  18.342  0.1567 -0.1201  0.0650
14161W        W57099   2.208  25.286  15.685  0.0175  0.0326 -0.2712
14162W        W57100   1.630  23.935  18.365  0.1347 -0.2564  0.0717
14163W        W57101   1.242  25.631  16.242  0.2976  0.3115 -0.0635
14164W        W57102   4.371  22.292  18.642 -0.0541  0.0417  0.1254
14165W        W57103   0.482  25.244  17.984 -0.0122 -0.0300 -0.1341
14166W        W57104   0.611  23.468  16.629  0.0820 -0.2425  0.0557
14167W        W57105   1.212  22.433  16.645  0.2478  0.0589 -0.1694
14168W        W57106   2.287  22.043  19.215  0.0227 -0.2301  0.2905
14169W        W57107   2.257  23.845  16.574  0.1760 -0.4053  0.2076
14170W        W57108   0.319  21.516  20.532 -0.2414  0.0156  0.0331
14171W        W57109   0.690  22.466  18.816 -0.0789 -0.1365 -0.3091
14172W        W57110  33.996  25.256  19.014  0.2875 -0.0637 -0.0038
14173W        W57111   1.948  24.839  18.018 -0.0644  0.0923 -0.0242
14174W        W57112   3.163  22.212  17.700 -0.0871 -0.0138  0.2985
14175W        W57113   2.839  25.706  18.995  0.2460  0.0767  0.1003
14176W        W57114  34.036  24.335  20.120 -0.2080 -0.0831  0.4064
14177W        W57115   1.577  23.183  16.754  0.1247  0.2522  0.2574
14178W        W57116   2.590  22.463  19.452 -0.2687  0.3407  0.0221
14179W        W57117   1.080  22.102  18.052 -0.0841  0.1921 -0.3310
14180W        W57118   0.245  24.298  18.199 -0.1220 -0.0023  0.0869
14181W        W57119   2.000  25.006  16.569  0.1122  0.1573 -0.1869
14182W        W57120   0.676  24.183  16.071  0.1029 -0.0702  0.2115
14183W        W57121   1.104  24.607  18.790 -0.0513  0.3595 -0.1405
14184W        W57122   0.499  23.402  19.610  0.3016 -0.1920 -0.0034
14185W        W57123   3.617  23.526  18.633  0.0919 -0.0522 -0.2244
14186W        W57124   0.551  22.017  19.489  0.0030 -0.2638  0.0375
14187W        W57125  34.380  22.263  17.263  0.1036  0.1093 -0.1997
14188W        W57126   1.845  21.956  18.172 -0.0432 -0.0040  0.3731
14189W        W57127   3.773  23.064  18.066 -0.0465  0.0435 -0.1598
14190W        W57128  34.302  20.983  19.246  0.2757  0.3129  0.2160
14191W        W57129  34.269  24.095  19.709  0.2328 -0.0084  0.0157
14192W        W57130   0.533  21.602  19.262 -0.0775 -0.1753  0.0667
14193W        W57131   4.371  26.277  17.150 -0.2053 -0.4027  0.2685
14194W        W57132   2.137  23.748  20.368 -0.3773  0.2826 -0.0911
14195W        W57133   0.021  24.842  16.019  0.2416  0.1274 -0.0571
14196W        W57134  33.746  24.944  19.293  0.0681 -0.0871  0.1800
14197W        W57135   0.756  24.871  17.131 -0.0675  0.1109  0.1362
14198W        W57136   1.252  22.147  20.196 -0.2322  0.1048  0.1275
14199W        W57137  34.375  23.357  19.167 -0.0122 -0.0845  0.4172
14200W        W57138   1.039  24.481  18.024  0.1145  0.0423  0.1014
14201W        W57139  34.306  24.432  17.819 -0.0093  0.1855 -0.0347
14202W        W57140   1.896  21.503  17.389 -0.0793  0.2847 -0.1263
14203W        W57141   2.297  24.655  15.754  0.2573 -0.1849 -0.2287
14204W        W57142   1.517  22.194  18.476  0.0516 -0.0023 -0.3084
14205W        W57143   4.004  22.607  18.148  0.1219  0.3316 -0.1333
14206W        W57144   1.326  23.551  17.007 -0.0325 -0.0723  0.2304
14207W        W57145   2.957  23.452  21.434  0.1982 -0.0386  0.2273
14208W        W57146  34.475  22.225  19.012  0.0756 -0.1934  0.0471
14209W        W57147   3.512  25.533  16.064  0.2134 -0.2489 -0.0397
14210W        W57148  33.265  22.777  20.000 -0.4613  0.1211  0.1648
14211W        W57149   1.793  26.381  19.085 -0.5482  0.0934 -0.2440
14212W        W57150  34.508  24.976  20.307  0.1775  0.0458  0.1049
14213W        W57151   0.474  22.787  17.197  0.0343 -0.2335  0.2701
14214W        W57152   1.411  22.515  18.018  0.4694 -0.0476  0.1903
14215W        W57153   2.327  24.020  18.106 -0.0105 -0.1816 -0.0457
14216W        W57154   3.529  24.738  18.658 -0.1458  0.1716 -0.0795
14217W        W57155   1.786  24.194  16.458 -0.0624 -0.0705 -0.1037
14218W        W57156   2.780  22.978  18.193 -0.1658 -0.2638 -0.1141
14219W        W57157   1.530  22.598  18.792  0.2337 -0.1517 -0.2083
14220W        W57158   1.569  24.532  17.918  0.0005 -0.2141  0.1938
14221W        W57159   1.792  23.726  17.336  0.3310  0.2149  0.0583
14222W        W57160   0.359  24.737  17.511 -0.2195  0.1758  0.1441
14223W        W57161   0.489  21.054  20.917  0.1256  0.1989 -0.1299
14224W        W57162   4.399  24.519  18.107 -0.0074  0.2335  0.4686
14225W        W57163   4.058  22.623  19.383  0.1278  0.4981  0.0768
14226W        W57164   1.355  23.043  18.676 -0.0711  0.0236 -0.3825
14227W        W57165   2.433  23.490  18.191  0.1091  0.2866 -0.0824
14228W        W57166   0.488  23.863  19.919 -0.0371 -0.0463 -0.1245
14229W        W57167  32.323  23.169  20.462  0.1824 -0.0441  0.1872
14230W        W57168   1.313  27.163  19.022  0.1708 -0.0905  0.0724
14231W        W57169   2.849  22.528  17.343 -0.0285  0.1714 -0.0692
14232W        W57170   3.519  22.727  18.277 -0.1842 -0.1594 -0.2783
14233W        W57171   3.804  23.573  17.298  0.1007  0.2004 -0.2224
14234W        W57172   1.570  22.256  16.984 -0.1636 -0.0772  0.0508
14235W        W57173   0.127  21.658  19.601  0.2501  0.0558 -0.0285
14236W        W57174   2.162  24.181  19.578  0.3178  0.1889  0.1106
14237W        W57175   0.141  22.771  16.447  0.1097 -0.0120 -0.0596
14238W        W57176   2.132  22.753  19.541 -0.1151 -0.0336  0.1242
14239W        W57177   1.859  25.419  16.364 -0.1470  0.1170 -0.2982
14240W        W57178   1.729  24.375  17.387  0.1457 -0.2688  0.0080
14241W        W57179   2.745  23.295  17.790  0.1184 -0.2617  0.0137
14242W        W57180   0.589  22.919  19.123  0.2456  0.1684  0.3270
14243W        W57181   1.982  25.011  20.733  0.1919  0.1187  0.1150
14244W        W57182   1.929  23.575  18.206  0.3144  0.1656  0.2005
14245W        W57183   1.571  24.165  15.793  0.3152 -0.0978 -0.1062
14246W        W57184   1.797  22.700  17.134  0.2319 -0.1368  0.0027
14247W        W57185   2.358  24.748  18.260  0.0921  0.0143 -0.0156
14248W        W57186   1.051  21.277  17.254 -0.1933  0.1206 -0.3205
14249W        W57187   2.385  22.124  19.679  0.2154  0.0032 -0.1591
14250W        W57188  34.332  24.666  15.742 -0.0719  0.0759  0.1378
14251W        W57189   2.259  23.144  19.172  0.0563  0.2081 -0.1909
14252W        W57190   0.398  23.822  18.877  0.0561  0.0965  0.2538
14253W        W57191  33.449  23.742  20.170  0.0899  0.2215 -0.2068
14254W        W57192   0.066  23.837  18.509 -0.0835 -0.2581 -0.3011
14255W        W57193   2.083  22.551  19.074 -0.0074 -0.2110 -0.1060
14256W        W57194   2.221  24.023  17.358  0.0456  0.1460 -0.6294
14257W        W57195   0.568  22.389  17.989 -0.2214  0.4827  0.0557
14258W        W57196   2.736  21.464  20.121 -0.0153  0.1307 -0.1304
14259W        W57197   3.131  24.169  17.908 -0.1564  0.0553 -0.1164
14260W        W57198   0.927  23.511  17.937  0.0029 -0.1583 -0.1974
14261W        W57199   2.041  25.075  19.613 -0.0771 -0.0365  0.0597
14262W        W57200   2.158  24.463  16.651 -0.0057 -0.0767  0.0371
14263W        W57201   2.532  23.803  18.680 -0.0001 -0.1730  0.3112
14264W        W57202   0.627  21.927  20.470  0.4127 -0.1332 -0.0757
14265W        W57203   2.411  24.657  20.863 -0.2764  0.1857  0.1053
14266W        W57204   3.825  23.046  17.476  0.0523  0.1933  0.1358
14267W        W57205   1.089  22.323  17.201 -0.3241  0.3065  0.0207
14268W        W57206   1.460  24.659  15.879  0.0400  0.0498 -0.1215
14269W        W57207  33.265  25.412  19.673 -0.1446  0.0059 -0.0507
14270W        W57208   0.992  22.415  17.736  0.0025  0.1672  0.1958
14271W        W57209   0.064  24.849  17.002 -0.1521 -0.0694  0.0233
14272W        W57210   3.316  24.651  17.187 -0.0116  0.1264  0.1922
14273W        W57211   2.244  24.476  17.234  0.2124 -0.0051  0.3585
14274W        W57212   2.344  25.090  17.855  0.0988  0.0425  0.0252
14275W        W57213   3.174  23.673  18.027  0.0894  0.0740  0.2694
14276W        W57214   1.132  23.743  18.360 -0.1460 -0.0606  0.1880
14277W        W57215   1.333  23.581  17.533  0.1721  0.1734 -0.2058
14278W        W57216   2.338  24.853  16.295  0.1702  0.3907  0.1151
14279W        W57217   0.693  23.977  18.060  0.0991  0.2140 -0.0731
14280W        W57218   2.629  24.398  19.614 -0.2097 -0.1483  0.0012
14281W        W57219   3.012  20.358  16.049  0.1166  0.1202 -0.0478
14282W        W57220   2.998  23.975  20.325  0.0649 -0.1017  0.1278
14283W        W57221   2.673  22.448  16.796 -0.0572  0.0971 -0.1314
14284W        W57222   3.180  24.182  18.450 -0.0708 -0.1038  0.1987
14285W        W57223   0.539  23.280  18.817  0.1706 -0.2994  0.3105
14286W        W57224   2.028  22.000  17.095  0.1773 -0.1617  0.1409
14287W        W57225   0.873  22.878  21.045  0.1257 -0.3790 -0.2312
14288W        W57226   2.606  22.756  20.357 -0.1563 -0.1763  0.1275
14289W        W57227   1.842  24.094  19.120  0.2828 -0.0271 -0.2114
14290W        W57228   2.633  25.033  15.831 -0.1796  0.5579  0.1068
14291W        W57229   1.020  22.800  18.079 -0.2220 -0.0048  0.1342
14292W        W57230  34.519  24.019  18.024 -0.0290  0.0812 -0.1478
14293W        W57231   3.161  22.142  19.134  0.0530 -0.0805  0.0188
14294W        W57232   1.304  24.323  16.249  0.0946 -0.0805 -0.1896
14295W        W57233   2.115  24.397  17.763  0.0052  0.3169 -0.1424
14296W        W57234   0.677  24.237  18.573  0.1907  0.2198  0.0868
14297W        W57235   0.091  24.891  18.446 -0.2243 -0.0538 -0.0725
14298W        W57236   2.253  25.884  18.009 -0.0485  0.0312 -0.5211
14299W        W57237   0.901  22.102  16.707  0.1067 -0.0941 -0.4140
14300W        W57238   5.177  22.064  18.920  0.0364  0.0021  0.0478
14301W        W57239  34.268  22.512  19.735  0.2244  0.0631  0.1887
14302W        W57240   1.227  20.371  18.629 -0.1396 -0.3898 -0.3377
14303W        W57241   0.484  24.712  18.044 -0.3147  0.1889 -0.2566
14304W        W57242   2.600  22.467  18.295 -0.0977  0.4759  0.2343
14305W        W57243   2.506  24.163  19.136 -0.0752  0.3068 -0.1782
14306W        W57244  34.675  23.395  18.766  0.3424 -0.2341  0.3319
14307W        W57245   1.575  21.472  16.470 -0.1446  0.0561  0.1316
14308W        W57246   2.584  22.769  19.060 -0.1078 -0.0258  0.0721
14309W        W57247   1.117  22.880  16.522 -0.0142 -0.1801  0.0052
14310W        W57248   2.305  25.903  19.173 -0.0760 -0.1448 -0.0290
14311W        W57249   1.441  21.535  17.596  0.0620 -0.0320  0.0801
14312W        W57250   2.368  22.776  17.868  0.0926 -0.0619  0.1726
14313W        W57251   0.015  22.430  18.181  0.1184  0.0336 -0.0433
14314W        W57252   1.092  23.427  18.810 -0.0829 -0.0660  0.2750
14315W        W57253   2.543  25.046  20.584  0.0441  0.0106 -0.1885
14316W        W57254  33.726  23.329  17.594  0.0301  0.1872 -0.0660
14317W        W57255   4.496  24.898  16.491  0.1446 -0.0263 -0.0572
14318W        W57256   3.282  22.553  17.075  0.4798  0.1463  0.2189
14319W        W57257   0.623  25.051  16.177  0.1673 -0.4923  0.0864
14320W        W57258   1.604  23.448  18.601 -0.0655  0.2007  0.2016
14321W        W57259   3.319  26.301  18.133 -0.0462 -0.2731  0.1425
14322W        W57260   0.557  21.689  17.171 -0.3569  0.0201 -0.3816
14323W        W57261   3.498  24.456  18.132  0.1833  0.3459  0.1993
14324W        W57262   3.573  23.883  18.284  0.2130 -0.4045  0.0936
14325W        W57263   1.862  22.252  17.499  0.2242 -0.1663  0.1936
14326W        W57264   0.580  21.999  18.956 -0.1076 -0.1742 -0.1872
14327W        W57265   0.622  24.698  16.667 -0.1235  0.1436 -0.2269
14328W        W57266   3.002  22.122  17.002 -0.3343  0.4919 -0.0608
14329W        W57267   1.900  23.218  19.577 -0.0482 -0.0726  0.0042
14330W        W57268   2.081  25.832  16.636 -0.3518 -0.1348 -0.0783
14331W        W57269   2.226  22.500  18.596 -0.1927 -0.1502 -0.0950
14332W        W57270   3.048  25.007  17.473 -0.1638 -0.0046  0.2710
14333W        W57271   0.894  25.006  19.069 -0.0700 -0.1099  0.0867
14334W        W57272   0.834  23.587  17.213  0.0566  0.0631  0.0347
14335W        W57273   1.318  26.596  19.305 -0.1466 -0.1506  0.0245
14336W        W57274   2.645  24.245  17.476 -0.2700 -0.2278  0.1767
14337W        W57275   1.302  25.477  16.965 -0.1292 -0.0570  0.0708
14338W        W57276   3.151  26.124  17.279  0.1540  0.0570  0.1467
14339W        W57277   2.424  22.879  17.134  0.2597 -0.2559  0.0739
14340W        W57278   3.369  24.884  17.839  0.1251 -0.0105 -0.3291
14341W        W57279   1.154  22.252  18.931 -0.0098 -0.1880  0.0368
14342W        W57280   1.332  22.830  16.962 -0.1114  0.1218  0.2075
14343W        W57281   2.146  22.323  18.028 -0.2840  0.0786  0.1007
14344W        W57282   2.893  23.842  19.229  0.5657 -0.0723  0.2554
14345W        W57283   0.263  24.305  16.617 -0.2848  0.1807 -0.0123
14346W        W57284  34.667  25.744  16.011  0.0035 -0.0580  0.1033
14347W        W57285   0.944  23.922  18.921 -0.1161  0.0205  0.1761
14348W        W57286   2.489  22.053  20.816  0.1303 -0.1489  0.0280
14349W        W57287   1.576  22.802  19.640 -0.0965  0.3553  0.0309
14350W        W57288   1.497  23.066  17.962 -0.0329 -0.0989 -0.0015
14351W        W57289   0.990  22.782  17.326 -0.0285 -0.0317 -0.1926
14352W        W57290   3.917  25.076  17.033 -0.3267 -0.1644  0.1151
14353W        W57291   1.061  22.802  18.956  0.2202  0.0556  0.1479
14354W        W57292  34.478  22.767  17.856 -0.2039 -0.0997 -0.1477
14355W        W57293   2.752  24.628  17.177  0.1360  0.0330 -0.1590
14356W        W57294   2.994  26.122  16.541 -0.1895  0.2449 -0.2087
14357W        W57295   0.827  22.144  19.916  0.2724  0.3657  0.0662
14358W        W57296   1.589  25.390  19.605 -0.1242 -0.2942  0.0392
14359W        W57297   0.119  24.779  16.520 -0.0736  0.1713 -0.0995
14360W        W57298   1.733  21.914  22.143 -0.2969 -0.1732  0.0366
14361W        W57299   1.231  21.471  19.611 -0.0201 -0.1620  0.4316
14362W        W57300  34.475  22.476  16.647 -0.0633  0.2002  0.0620
14363W        W57301   0.755  20.999  19.071 -0.0631 -0.0132 -0.2700
14364W        W57302   1.599  23.149  17.242  0.2307 -0.0955  0.1362
14365W        W57303   2.662  25.686  16.473 -0.1894  0.1280  0.0142
14366W        W57304   2.535  23.246  20.441 -0.1252  0.3228  0.1682
14367W        W57305   1.716  25.256  17.847  0.1873 -0.0898 -0.0834
14368W        W57306   0.375  22.427  19.201  0.0480  0.0446 -0.1714
14369W        W57307   3.082  24.218  16.419 -0.0781 -0.2653  0.0383
14370W        W57308   1.543  24.183  19.515  0.2806  0.2182  0.0529
14371W        W57309   4.887  25.740  16.970 -0.0501  0.1400 -0.2294
14372W        W57310   3.164  22.926  16.728  0.1100 -0.0696  0.2145
14373W        W57311   1.164  24.557  17.185 -0.0042 -0.1930 -0.1414
14374W        W57312  34.512  22.334  20.142 -0.0705  0.1212  0.0542
14375W        W57313   0.998  23.620  19.670 -0.1046  0.2312  0.1385
14376W        W57314   2.149  24.434  18.749 -0.3831 -0.0786  0.2039
14377W        W57315   1.527  20.783  16.983  0.1639 -0.1787  0.1545
14378W        W57316   3.120  22.448  18.142  0.0936  0.1431  0.0487
14379W        W57317   3.840  23.811  16.888  0.2467  0.2425  0.0009
14380W        W57318   2.346  24.641  20.329 -0.0915 -0.1854  0.3828
14381W        W57319   2.503  24.199  16.902  0.1215 -0.0201 -0.2744
14382W        W57320   1.708  21.728  20.345 -0.4875  0.0459  0.0926
14383W        W57321   2.783  23.908  18.275 -0.2765 -0.0580 -0.3224
14384W        W57322   2.499  23.834  19.556  0.3302 -0.0855  0.1635
14385W        W57323   0.546  22.260  17.139  0.0227 -0.0251 -0.1330
14386W        W57324   4.671  23.569  16.485  0.1767 -0.0846 -0.1110
14387W        W57325   2.521  24.745  17.572  0.0862  0.1751 -0.0206
14388W        W57326   1.541  25.875  20.472  0.0469  0.0648  0.0472
14389W        W57327   1.173  25.116  18.641  0.0117 -0.1845 -0.1389
14390W        W57328   3.126  24.042  17.430  0.0352  0.1555 -0.3102
14391W        W57329  34.381  21.753  18.813 -0.0505  0.0457  0.4853
14392W        W57330   0.884  24.189  17.096 -0.0210  0.0173 -0.0521
14393W        W57331   2.721  23.850  17.735  0.0453  0.0977 -0.0392
14394W        W57332   2.854  23.451  18.423 -0.0280 -0.0296  0.0809
14395W        W57333   0.519  23.368  17.590  0.0423  0.0151  0.1823
14396W        W57334   0.798  21.521  18.845  0.0317 -0.0842  0.2352
14397W        W57335  34.648  24.678  19.033 -0.1174 -0.1042 -0.0996
14398W        W57336   1.954  24.328  18.246  0.0584 -0.3063  0.2105
14399W        W57337   1.232  24.672  22.960 -0.0477 -0.3108 -0.1270
14400W        W57338   0.859  21.791  21.093  0.1435  0.1786 -0.2828
14401W        W57339   2.932  23.165  20.133 -0.0868 -0.0454  0.0769
14402W        W57340   3.558  23.315  19.749  0.1039 -0.2226 -0.3009
14403W        W57341  34.660  22.801  20.374  0.1918 -0.1162 -0.0210
14404W        W57342   2.507  24.993  22.199 -0.3154 -0.0846  0.1117
14405W        W57343   0.179  22.482  22.994 -0.2187 -0.0938  0.2615
14406W        W57344   2.646  23.572  22.259  0.0628 -0.1428  0.1053
14407W        W57345   2.933  24.341  23.210 -0.0864  0.1941 -0.2790
14408W        W57346   1.470  24.898  19.103 -0.1859  0.0483 -0.0639
14409W        W57347   2.281  22.629  23.235 -0.4303  0.0301  0.0561
14410W        W57348   0.667  25.018  23.076 -0.0542 -0.0733 -0.0520
14411W        W57349   2.172  22.472  20.903 -0.1556 -0.2400 -0.4643
14412W        W57350  33.422  22.587  21.395  0.1464  0.0152 -0.0557
14413W        W57351   1.728  23.367  23.168  0.1474 -0.1345 -0.0271
14414W        W57352   0.560  22.514  21.092 -0.2874 -0.3992  0.1091
14415W        W57353  34.660  22.835  21.825 -0.1844 -0.1573 -0.1670
14416W        W57354   2.628  22.940  21.274  0.1269  0.1333  0.2857
14417W        W57355   2.407  25.169  21.705  0.2377 -0.1581  0.0716
14418W        W57356   1.862  21.985  21.586  0.0979  0.0418  0.1853
14419W        W57357   0.839  22.577  25.179 -0.0623  0.3996 -0.1093
14420W        W57358   2.133  24.551  22.136  0.2643  0.0159 -0.1797
14421W        W57359  34.690  24.287  21.152  0.1121 -0.0134  0.1954
14422W        W57360  34.530  23.274  21.577  0.0124 -0.1606 -0.2180
14423W        W57361   0.737  22.897  21.552  0.0746  0.4582 -0.3263
14424W        W57362   2.649  23.266  21.832 -0.0146  0.5270 -0.2776
14425W        W57363   3.884  24.063  23.215  0.1844  0.0010  0.0048
14426W        W57364  34.682  24.955  22.312  0.1123  0.6778  0.0062
14427W        W57365   2.109  25.423  22.582 -0.0746 -0.1611  0.1738
14428W        W57366   2.355  23.751  24.057 -0.1642 -0.0510 -0.2019
14429W        W57367  34.583  24.507  21.919  0.2458  0.1096 -0.4063
14430W        W57368   0.801  26.068  22.721 -0.2438  0.0362  0.2619
14431W        W57369   1.328  24.507  21.335  0.1283 -0.1727 -0.2691
14432W        W57370   2.848  23.774  21.833  0.1679 -0.3355  0.0827
14433W        W57371   2.899  24.669  23.608  0.0623 -0.3225 -0.1546
14434W        W57372   1.860  24.697  23.710  0.0977  0.2382 -0.1138
14435W        W57373   0.640  25.075  21.238 -0.4470  0.0749  0.1418
14436W        W57374   2.024  24.083  22.771  0.0204 -0.1967  0.1169
14437W        W57375   2.815  27.162  23.201 -0.0284  0.2020 -0.1596
14438W        W57376   1.467  21.866  21.300 -0.0612 -0.2743 -0.0782
14439W        W57377   1.699  23.263  21.027 -0.3666 -0.1108  0.0214
14440W        W57378   1.220  26.722  19.799  0.1830  0.0019 -0.1443
14441W        W57379   1.904  24.485  20.833  0.1073  0.2234  0.3204
14442W        W57380   1.987  25.666  25.059 -0.0811 -0.0935 -0.0285
14443W        W57381   1.083  24.962  21.441  0.0245 -0.2638 -0.0340
14444W        W57382   4.315  23.375  24.071 -0.1021 -0.0435 -0.4414
14445W        W57383  34.644  24.755  20.831  0.0731 -0.0825  0.1267
14446W        W57384   3.026  23.507  20.498  0.2416 -0.1921 -0.1323
14447W        W57385   1.983  22.919  18.777 -0.0305 -0.3097  0.0869
14448W        W57386   3.157  21.866  21.271 -0.1805  0.0234 -0.1378
14449W        W57387   1.498  22.216  22.946  0.1168 -0.4371  0.1945
14450W        W57388   1.383  24.038  21.685  0.1945 -0.1708 -0.1844
14451W        W57389   0.478  22.799  23.276 -0.1346 -0.1807  0.3618
14452W        W57390   4.091  24.804  21.997  0.1936 -0.0796  0.0666
14453W        W57391   1.588  24.805  20.529 -0.1270 -0.0744  0.0862
14454W        W57392   1.851  22.630  22.927 -0.0778 -0.0909 -0.1338
14455W        W57393   2.086  24.865  23.250  0.0079 -0.1107  0.0226
14456W        W57394   0.202  21.719  21.495  0.2510 -0.1116 -0.2582
14457W        W57395   2.867  25.419  20.826  0.1986  0.2314 -0.0776
14458W        W57396   4.142  25.678  20.807 -0.0459 -0.2014 -0.2159
14459W        W57397   2.424  25.660  19.953 -0.0757 -0.2906 -0.3742
14460W        W57398  34.103  24.247  22.592 -0.4493 -0.0524 -0.1891
14461W        W57399   0.548  24.105  21.378 -0.2813 -0.1902 -0.0592
14462W        W57400   1.405  24.243  22.771 -0.4125  0.0453  0.2902
14463W        W57401   1.122  21.851  20.547  0.1640  0.0045  0.2630
14464W        W57402   2.833  23.960  23.609  0.1551 -0.2814 -0.1009
14465W        W57403   1.409  24.546  21.878  0.1845  0.2464  0.1328
14466W        W57404   3.011  22.070  20.853 -0.1739 -0.1355  0.2949
14467W        W57405   0.813  23.720  22.096 -0.1478  0.1803  0.0145
14468W        W57406   1.271  24.250  23.233 -0.3631 -0.0318  0.0373
14469W        W57407   2.987  22.987  20.680 -0.2555 -0.0585 -0.0099
14470W        W57408   1.495  21.731  21.740 -0.0222  0.2049  0.0101
14471W        W57409   1.777  22.314  22.523 -0.2958  0.2599 -0.0854
14472W        W57410   0.157  23.370  19.260  0.0703  0.2466 -0.1481
14473W        W57411  34.386  24.648  21.388 -0.2508  0.0450 -0.2614
14474W        W57412   2.350  26.238  20.905 -0.0489 -0.1111 -0.1161
14475W        W57413   3.354  23.602  19.227  0.0819  0.0982  0.0573
14476W        W57414   0.640  25.004  23.750 -0.0469  0.0950 -0.1228
14477W        W57415   1.267  22.359  23.435 -0.0672  0.0523  0.0176
14478W        W57416   2.930  25.920  22.589  0.3616 -0.1081  0.0470
14479W        W57417   0.885  25.521  18.759  0.1570  0.0298 -0.1631
14480W        W57418  34.305  22.877  20.901 -0.3896  0.0868  0.0701
14481W        W57419   1.868  23.798  19.568  0.1368  0.0770 -0.1198
14482W        W57420   0.949  22.066  22.058  0.5546  0.0450 -0.4190
14483W        W57421   1.236  23.808  22.599 -0.0943  0.0645  0.0639
14484W        W57422   2.451  22.527  22.135 -0.0799  0.1149 -0.1023
14485W        W57423  33.310  22.728  23.292 -0.0527 -0.1878 -0.1168
14486W        W57424   3.528  21.229  19.799  0.0291 -0.1246 -0.2254
14487W        W57425   0.389  25.082  19.165 -0.0130  0.0872  0.1876
14488W        W57426   4.098  26.131  22.092  0.2865  0.4616 -0.0492
14489W        W57427   3.127  22.514  20.562  0.1730 -0.1315 -0.2364
14490W        W57428   3.350  23.553  21.092 -0.0229 -0.1337  0.4393
14491W        W57429  34.483  22.774  23.221 -0.2139 -0.4568  0.1869
14492W        W57430  33.698  23.645  21.244  0.0388 -0.2298  0.1543
14493W        W57431   0.570  23.013  23.821 -0.2076  0.0407  0.6441
14494W        W57432   0.164  22.013  23.241  0.4669  0.2741 -0.3349
14495W        W57433   2.073  23.092  23.529 -0.0777 -0.2099  0.0905
14496W        W57434   1.054  21.412  21.882 -0.1861 -0.2446  0.2890
14497W        W57435   1.676  22.790  23.377 -0.1323  0.1089 -0.0926
14498W        W57436   0.869  22.197  20.793  0.1431 -0.3745 -0.0190
14499W        W57437   0.165  25.455  19.581  0.1929  0.0858 -0.0716
14500W        W57438   5.309  22.091  22.823 -0.2619 -0.3034  0.2874
14501W        W57439   1.986  25.700  19.668 -0.0195 -0.2963  0.0760
14502W        W57440   4.754  26.032  23.320  0.0437 -0.1066  0.4751
14503W        W57441   3.125  25.747  21.106 -0.0219  0.1105 -0.0270
14504W        W57442   1.241  22.840  23.139  0.2364 -0.2263  0.2691
14505W        W57443   0.052  22.035  20.487 -0.0440 -0.2616  0.2031
14506W        W57444   1.613  25.106  21.646  0.0341  0.0668 -0.1642
14507W        W57445   2.021  24.273  23.907  0.2891 -0.0735 -0.2603
14508W        W57446   1.598  21.698  20.842 -0.2747  0.1217  0.1133
14509W        W57447   2.035  25.413  21.291 -0.2619 -0.1419  0.3273
14510W        W57448   2.373  24.041  20.063 -0.1715 -0.3246 -0.2902
14511W        W57449   2.451  26.829  23.438 -0.0509 -0.4491  0.0552
14512W        W57450   2.636  22.322  24.852  0.0678 -0.1582  0.0103
14513W        W57451   2.936  22.696  22.645 -0.2320 -0.0107  0.2471
14514W        W57452   1.336  22.079  22.425  0.1531  0.1256  0.0451
14515W        W57453  34.585  22.426  20.813 -0.0245 -0.0835  0.0952
14516W        W57454   1.235  24.494  20.420  0.0346 -0.0663  0.1063
14517W        W57455   1.283  24.566  19.498 -0.1892 -0.3825  0.1188
14518W        W57456   1.000  23.244  20.755 -0.2038  0.1906 -0.1419
14519W        W57457   3.388  25.492  21.679  0.1772 -0.2255  0.1592
14520W        W57458   1.772  20.075  21.055  0.2837  0.1340 -0.1096
14521W        W57459  34.219  24.086  23.107  0.2505  0.0348  0.0622
14522W        W57460   0.400  23.985  23.320 -0.3566  0.2814 -0.1217
14523W        W57461   1.840  23.921  20.756  0.0767  0.1776  0.1960
14524W        W57462   0.378  25.889  22.906  0.2538  0.0804  0.1908
14525W        W57463   2.263  22.236  22.515 -0.3128  0.0325  0.1548
14526W        W57464   3.487  22.723  21.556  0.2201  0.1484 -0.0124
14527W        W57465   1.691  24.874  22.178 -0.0239  0.0788  0.0055
14528W        W57466   2.831  23.383  20.946  0.0532  0.1427  0.4938
14529W        W57467   3.059  22.993  21.622 -0.0838  0.2968  0.1101
14530W        W57468   2.108  20.354  20.524  0.2470  0.1035  0.0821
14531W        W57469   0.352  24.331  22.562 -0.0213  0.0441 -0.2448
14532W        W57470   2.953  24.851  21.082  0.0513  0.2711 -0.4162
14533W        W57471   1.426  24.217  20.784 -0.2011  0.0540 -0.1473
14534W        W57472   0.538  22.549  19.638 -0.0627 -0.1853  0.2230
14535W        W57473   4.224  25.315  20.456  0.0508 -0.0712 -0.2023
14536W        W57474   0.211  25.054  21.818 -0.0288 -0.1520 -0.2659
14537W        W57475   2.365  24.712  24.186 -0.0668  0.0699 -0.0193
14538W        W57476   3.089  24.313  21.791  0.1270  0.0670  0.1696
14539W        W57477   1.632  20.982  22.541  0.0725 -0.1681  0.0835
14540W        W57478   2.262  23.539  20.866 -0.2111 -0.3960  0.2256
14541W        W57479   1.751  22.786  20.783 -0.2254  0.1734 -0.1217
14542W        W57480   0.228  25.581  19.118 -0.1956 -0.0736 -0.0400
14543W        W57481   1.962  22.999  22.126 -0.1900 -0.0173  0.0862
14544W        W57482   1.540  22.645  22.110  0.1383 -0.0922  0.2027
14545W        W57483   0.258  22.026  23.699  0.0137  0.0458  0.0612
14546W        W57484   1.989  23.323  24.070 -0.0360 -0.1887  0.0163
14547W        W57485   2.328  23.318  21.366  0.0633  0.3704  0.2425
14548W        W57486   0.352  23.549  22.316  0.3324  0.1475 -0.0205
14549W        W57487   2.085  23.089  20.299  0.1358 -0.0583 -0.0195
14550W        W57488   1.639  23.345  23.712  0.0133 -0.1382 -0.0872
14551W        W57489   0.796  24.167  22.371  0.2075 -0.2278 -0.0598
14552W        W57490   0.271  25.306  23.152 -0.2914  0.1916 -0.1954
14553W        W57491   1.994  22.548  23.785  0.3253 -0.1910 -0.0806
14554W        W57492   2.534  22.079  21.808  0.2512 -0.2138  0.0444
14555W        W57493   0.632  24.283  24.038 -0.1468 -0.1471  0.0122
14556W        W57494   2.427  21.510  21.823  0.2330  0.0466  0.0322
14557W        W57495   1.019  24.516  20.968  0.0285  0.0304  0.5302
14558W        W57496   0.875  23.372  19.278 -0.2907  0.1702  0.1228
14559W        W57497   1.357  22.607  22.571  0.2122  0.4011 -0.2206
14560W        W57498   1.568  25.450  22.051  0.2035 -0.0358 -0.0995
14561W        W57499   2.328  24.618  19.286  0.0786  0.0851 -0.0932
14562W        W57500   1.797  24.493  22.487  0.1794  0.1169 -0.0101
14563W        W57501   0.215  24.784  21.306 -0.0994  0.3811  0.1145
14564W        W57502   1.818  22.149  24.310  0.1217  0.3689  0.1373
14565W        W57503  33.961  24.884  21.604  0.1189  0.0708 -0.0112
14566W        W57504   0.377  22.020  20.908 -0.3374 -0.3271  0.0067
14567W        W57505   0.320  22.597  21.526 -0.2942 -0.1869  0.2400
14568W        W57506   2.696  21.379  19.632 -0.1672  0.2400 -0.2559
14569W        W57507   3.569  24.012  21.028 -0.1987  0.4269 -0.0510
14570W        W57508   1.929  22.756  24.247 -0.1066  0.1072  0.0328
14571W        W57509   0.997  22.387  23.894 -0.1062 -0.2496 -0.1835
14572W        W57510   1.334  27.015  23.523 -0.1926  0.0317  0.2254
14573W        W57511   1.663  23.879  23.554  0.0294 -0.1197 -0.0940
14574W        W57512   3.821  23.116  20.992  0.0318  0.0630  0.0790
14575W        W57513   2.185  26.795  22.781  0.2065  0.1070 -0.2305
14576W        W57514   1.489  22.824  23.828  0.0352 -0.0196  0.1402
14577W        W57515   0.535  23.261  20.942 -0.0841  0.2037 -0.0734
14578W        W57516   3.174  24.215  23.880  0.1950  0.0889 -0.2169
14579W        W57517   0.640  23.118  22.289 -0.3061  0.0561 -0.1599
14580W        W57518   0.238  24.542  20.438  0.0415  0.0683 -0.1658
14581W        W57519   2.466  24.290  24.462 -0.0286 -0.2501 -0.2106
14582W        W57520  34.428  21.240  20.971  0.1970 -0.3444 -0.1862
14583W        W57521   0.305  25.965  21.592 -0.1304 -0.3049  0.1986
14584W        W57522   0.933  22.328  24.424  0.1573  0.0576  0.2458
14585W        W57523   2.164  23.430  21.958  0.0551  0.0701  0.3087
14586W        W57524   1.427  23.183  21.886 -0.0222 -0.1442 -0.1488
14587W        W57525   1.438  22.265  21.823 -0.0944  0.0078  0.0403
14588W        W57526   1.801  23.288  21.597 -0.0943  0.0280 -0.1062
14589W        W57527   1.296  24.571  22.412 -0.1314  0.1243  0.0865
14590W        W57528   1.750  22.767  21.627 -0.1764 -0.1351 -0.2471
14591W        W57529   1.630  25.922  23.304 -0.1845 -0.1437 -0.1107
14592W        W57530   2.312  21.721  21.355 -0.2682 -0.1758 -0.1335
14593W        W57531   1.654  26.825  21.393 -0.0611 -0.1060 -0.2657
14594W        W57532   1.879  23.588  22.753 -0.1669 -0.1197 -0.1294
14595W        W57533   1.891  24.055  19.998  0.2784 -0.0749  0.2396
14596W        W57534   0.004  23.709  21.300 -0.0439 -0.0697  0.0773
14597W        W57535   1.033  24.115  21.244  0.2042  0.0841 -0.2484
14598W        W57536   2.935  23.008  23.150  0.0056 -0.0330  0.1517
14599W        W57537   1.344  23.290  22.829 -0.2205 -0.0524 -0.0707
14600W        W57538   0.278  25.049  20.605 -0.1436  0.1371 -0.2035
14601W        W57539  34.534  25.354  23.360  0.2230  0.1408  0.0285
14602W        W57540   2.875  22.853  22.112 -0.3478  0.4135  0.2368
14603W        W57541   3.045  23.904  20.823 -0.0044  0.0903 -0.1225
14604W        W57542   1.349  23.568  21.441 -0.1445  0.2837 -0.0854
14605W        W57543   3.893  22.497  23.891 -0.0661  0.4550  0.0232
14606W        W57544   1.999  22.618  20.046 -0.0308 -0.1097 -0.2797
14607W        W57545   3.386  21.739  23.918  0.2075  0.0330  0.2273
14608W        W57546   0.066  22.048  22.731 -0.3809 -0.2687 -0.0690
14609W        W57547   2.950  24.628  22.193  0.0137 -0.0485 -0.2869
14610W        W57548   0.554  23.922  22.764 -0.0019  0.0579  0.2551
14611W        W57549   2.406  25.512  23.889 -0.2804 -0.1447 -0.2689
14612W        W57550  33.813  24.957  22.550  0.0290 -0.3227  0.2635
14613W        W57551   1.684  22.385  21.357 -0.3368 -0.0233  0.3392
14614W        W57552   0.080  20.699  21.072 -0.1957  0.0103  0.2570
14615W        W57553   0.869  23.715  21.030 -0.0586 -0.0119  0.3974
14616W        W57554   2.702  24.196  22.601  0.1374  0.0127  0.0760
14617W        W57555   1.821  23.744  21.860  0.3144  0.0635  0.0837
14618W        W57556   3.194  23.353  21.964 -0.1530 -0.2227 -0.0097
14619W        W57557   0.452  22.866  20.055  0.0008  0.1226  0.2642
14620W        W57558   1.744  22.239  20.552  0.2970  0.0702  0.0783
14621W        W57559   0.570  23.866  19.403 -0.4113  0.1373  0.0420
14622W        W57560   1.275  23.644  21.970  0.2735 -0.0461 -0.3604
14623W        W57561   0.952  22.792  24.660  0.0349 -0.0376  0.0712
14624W        W57562   2.430  23.684  22.699 -0.1363 -0.2309  0.1200
14625W        W57563   2.950  21.568  22.084  0.1006 -0.1012  0.2175
14626W        W57564   2.221  21.670  23.175 -0.1188 -0.0852 -0.0121
14627W        W57565   3.449  23.132  23.179  0.0150  0.1604  0.0119
14628W        W57566   0.704  23.261  24.540  0.0318 -0.0010 -0.2136
14629W        W57567  33.015  23.625  24.092  0.2022  0.2036  0.0078
14630W        W57568   2.383  24.607  22.625  0.0439  0.0804  0.0142
14631W        W57569   2.215  20.896  20.558 -0.1344  0.3087 -0.2728
14632W        W57570   1.856  23.151  24.573 -0.2016 -0.4336  0.0905
14633W        W57571   4.090  24.031  19.579 -0.0801 -0.1887 -0.0543
14634W        W57572   2.215  24.170  21.247 -0.0792  0.1429 -0.0008
14635W        W57573   0.963  23.615  23.050 -0.1450  0.1959 -0.1193
14636W        W57574   3.537  25.323  22.122 -0.3315 -0.3597  0.0096
14637W        W57575   1.622  22.300  19.846 -0.0498  0.1406 -0.3239
14638W        W57576   2.241  21.104  23.741 -0.1388 -0.2678 -0.1696
14639W        W57577   2.174  23.416  18.675  0.1895 -0.0063  0.2651
14640W        W57578   2.302  22.829  21.737  0.0111  0.0284  0.1414
14641W        W57579   2.415  22.891  20.781  0.1834 -0.1497 -0.1977
14642W        W57580   0.195  22.131  21.836 -0.0635 -0.0760  0.1357
14643W        W57581  34.655  25.583  22.104 -0.0406  0.0270 -0.1488
14644W        W57582   1.501  23.199  20.035 -0.1363 -0.1367 -0.0514
14645W        W57583   1.140  22.534  19.922  0.1582  0.0292 -0.0615
14646W        W57584   0.771  24.160  23.561  0.1663  0.3574 -0.1192
14647W        W57585   3.729  24.406  23.809  0.0041  0.3797  0.0724
14648W        W57586   1.431  22.557  19.234  0.0209  0.2898 -0.3055
14649W        W57587   2.524  23.301  24.026 -0.1347 -0.2248  0.1910
14650W        W57588   0.251  26.587  21.980 -0.3145 -0.0793 -0.0034
14651W        W57589   1.442  21.113  20.751 -0.0885  0.0924 -0.1188
14652W        W57590   0.689  26.302  23.282 -0.1454 -0.2470  0.1517
14653W        W57591  34.202  23.762  21.759 -0.0284 -0.2990 -0.1305
14654W        W57592   1.354  23.699  20.853 -0.0861  0.1482  0.0797
14655W        W57593   1.832  22.295  23.321 -0.3127 -0.2725 -0.1313
14656W        W57594   2.659  23.790  21.178 -0.5113 -0.1416 -0.0186
14657W        W57595   2.069  22.865  21.284 -0.0089 -0.1642  0.1075
14658W        W57596   3.417  24.480  22.316 -0.3039 -0.3290  0.0244
14659W        W57597   1.741  24.575  24.740  0.4423 -0.1222 -0.2711
14660W        W57598   0.832  24.628  22.186 -0.1048 -0.1048 -0.2604
14661W        W57599   1.534  24.931  22.631 -0.2735 -0.0216  0.3369
14662W        W57600   2.058  23.060  22.988  0.0383  0.0672  0.2239
14663W        W57601   0.990  24.016  20.190  0.2777  0.2642 -0.0114
14664W        W57602   0.396  23.814  21.771 -0.5038  0.1035  0.1070
14665W        W57603   0.698  22.013  23.911  0.1933 -0.0791 -0.0054
14666W        W57604   1.708  23.401  22.258 -0.0413 -0.1745 -0.2578
14667W        W57605   1.449  20.426  21.708  0.1200 -0.0559 -0.0251
14668W        W57606   1.811  22.663  18.370  0.0522  0.1364  0.1292
14669W        W57607  34.551  25.343  23.958  0.2077  0.3202  0.0046
14670W        W57608   0.358  23.286  21.874  0.1599 -0.1215  0.3388
14671W        W57609   0.575  25.049  19.674 -0.0981 -0.1364  0.3839
14672W        W57610   2.284  24.691  19.834  0.3887 -0.2625 -0.2106
14673W        W57611   3.302  24.084  19.291  0.0553 -0.0061 -0.2436
14674W        W57612   1.213  25.501  21.669 -0.0908 -0.0829 -0.2851
14675W        W57613   0.407  21.871  20.055  0.1502  0.0135  0.2571
14676W        W57614   0.471  24.494  20.898 -0.0556  0.2949 -0.1137
14677W        W57615   0.913  25.419  22.130 -0.0922 -0.0016 -0.4165
14678W        W57616   3.124  23.939  21.327  0.4998 -0.0586  0.1296
14679W        W57617   0.010  25.490  21.578  0.0048  0.1580  0.1796
14680W        W57618   3.560  24.732  22.789 -0.1685 -0.0991  0.1337
14681W        W57619   2.095  21.792  20.690  0.0488 -0.3744  0.1544
14682W        W57620   3.311  23.065  21.165  0.0278  0.1939 -0.1707
14683W        W57621   3.676  23.060  21.965 -0.0922 -0.1091  0.1047
14684W        W57622   3.248  25.000  23.604 -0.0353 -0.0968 -0.1280
14685W        W57623   1.479  23.795  23.045 -0.0711 -0.1213  0.3470
14686W        W57624   1.942  22.036  21.106 -0.2373 -0.0064 -0.0181
14687W        W57625   0.140  23.353  22.674  0.3138 -0.0124 -0.2519
14688W        W57626   4.025  20.926  23.316  0.0687  0.0242 -0.0278
14689W        W57627  32.726  25.851  23.790  0.0214 -0.2555 -0.1320
14690W        W57628   2.456  25.087  21.104 -0.1895 -0.1087  0.2908
14691W        W57629   0.149  22.906  20.860 -0.2589  0.1028  0.1283
14692W        W57630   1.441  22.823  21.215  0.2377  0.3113 -0.1717
14693W        W57631   3.440  21.327  22.113 -0.1841  0.2112  0.2241
14694W        W57632   1.319  25.469  19.080  0.0206  0.2564 -0.2594
14695W        W57633   1.263  22.723  21.638 -0.0372  0.2509 -0.1043
14696W        W57634   1.833  24.493  21.540  0.3363 -0.0371  0.1103
14697W        W57635   0.954  24.098  20.678  0.0678  0.0789  0.2818
14698W        W57636   1.144  25.308  22.996  0.2004  0.1737  0.1546
14699W        W57637   0.586  22.050  21.410  0.0321 -0.1208 -0.4829
14700W        W57638   3.588  21.958  21.485 -0.1649 -0.2029 -0.0451
14701W        W57639   1.533  24.329  23.714  0.2527  0.1530 -0.2732
14702W        W57640   3.817  22.856  22.460  0.1495 -0.1204  0.1874
14703W        W57641   1.082  22.818  22.091  0.1897  0.1182 -0.0422
14704W        W57642   4.026  23.829  18.561  0.0405  0.0218 -0.2075
14705W        W57643   1.693  23.918  22.403  0.1289  0.1264  0.0843
14706W        W57644   0.281  23.965  23.800 -0.2529  0.1560 -0.2224
14707W        W57645   1.776  24.710  19.428 -0.3907 -0.0998  0.0771
14708W        W57646   2.818  23.410  22.853  0.1591  0.1594  0.2877
14709W        W57647   2.765  25.041  18.545  0.1126 -0.2894 -0.1849
14710W        W57648   2.384  24.723  23.643  0.1470 -0.1300 -0.2848
14711W        W57649   0.470  23.476  23.029  0.1271  0.0918  0.1475
14712W        W57650   2.628  21.104  20.853  0.1317  0.0099 -0.0772
14713W        W57651   0.482  24.078  20.362  0.1912  0.2806 -0.1406
14714W        W57652   0.932  24.319  21.782 -0.0196  0.0525 -0.0944
14715W        W57653   2.001  24.949  22.767 -0.3597 -0.3383 -0.2007
14716W        W57654   1.033  21.847  21.603  0.2565  0.2696  0.2733
14717W        W57655   2.917  25.597  19.518 -0.0863  0.1871  0.3293
14718W        W57656   2.708  21.939  22.282  0.2842 -0.2451  0.1171
14719W        W57657   1.968  25.448  19.189  0.3144  0.0077 -0.0597
14720W        W57658   2.703  22.472  21.004 -0.2076 -0.0041 -0.3975
14721W        W57659   0.714  25.028  21.752 -0.0778  0.2466 -0.0119
14722W        W57660   0.407  23.483  23.617  0.2222 -0.3481 -0.3460
14723W        W57661   2.877  25.432  22.394  0.1733  0.1484  0.0521
14724W        W57662   2.975  26.949  21.792 -0.2510 -0.2743  0.4784
14725W        W57663   2.193  22.357  21.484 -0.0905 -0.0018 -0.3135
14726W        W57664   1.617  25.031  23.178  0.0437 -0.1994 -0.0453
14727W        W57665  34.124  26.795  21.443  0.1944  0.0087 -0.0323
14728W        W57666   3.555  22.330  21.827  0.0224  0.1833 -0.0536
14729W        W57667   4.042  22.852  23.546  0.1678 -0.0025  0.1329
14730W        W57668   2.557  25.945  19.594  0.2489  0.0174  0.0819
14731W        W57669   0.964  22.773  23.540  0.4939  0.0327  0.1828
14732W        W57670   0.765  24.632  22.721  0.1610 -0.1892 -0.2155
14733W        W57671   1.629  25.923  24.841  0.0145 -0.2231  0.3628
14734W        W57672   0.713  24.495  20.343  0.0705  0.0035 -0.0272
14735W        W57673   0.906  24.227  22.954 -0.1209  0.2510  0.1036
14736W        W57674   1.972  23.684  21.284  0.0626 -0.0338 -0.0728
14737W        W57675   2.899  24.042  19.805  0.0664  0.1760 -0.3091
14738W        W57676   3.385  26.626  21.863 -0.0700  0.3015 -0.1359
14739W        W57677   1.242  21.433  21.168  0.5474 -0.3866 -0.0742
14740W        W57678   3.453  26.232  22.789  0.1266 -0.2293  0.2236
14741W        W57679   1.038  22.276  22.739  0.1046 -0.0658 -0.2278
14742W        W57680   2.229  21.901  22.204 -0.0021  0.1119  0.1672
14743W        W57681   1.940  22.412  21.945  0.4870 -0.2203  0.0365
14744W        W57682   1.383  23.662  23.983 -0.0584 -0.0254  0.1901
14745W        W57683   0.714  23.399  20.076 -0.1037  0.2112  0.1825
14746W        W57684   1.184  23.500  20.262  0.2138  0.1641 -0.0438
14747W        W57685   0.438  24.446  21.790 -0.1916 -0.0099  0.2823
14748W        W57686   1.582  22.490  25.922  0.2005  0.3293  0.2119
14749W        W57687   0.516  25.002  22.229  0.0148  0.0500 -0.3003
14750W        W57688  34.416  24.016  22.129 -0.0582 -0.1080 -0.0109
14751W        W57689  34.465  22.619  21.301  0.1745  0.0250 -0.1048
14752W        W57690   2.555  24.644  21.332 -0.3315  0.1174 -0.1732
14753W        W57691   1.145  22.267  21.344  0.1803  0.1040  0.1880
14754W        W57692   1.175  23.233  22.349  0.0681 -0.0080  0.0442
14755W        W57693   2.179  24.006  22.256  0.0101  0.2432 -0.0598
14756W        W57694   4.001  24.725  19.969 -0.0518 -0.1413 -0.0536
14757W        W57695   1.852  20.691  22.197  0.0484  0.0116 -0.1202
14758W        W57696   4.040  25.695  23.788  0.2544  0.0269 -0.0014
14759W        W57697  33.973  23.785  19.364  0.0958 -0.1548 -0.1389
14760W        W57698   1.136  23.209  23.817  0.2361  0.2403 -0.2139
14761W        W57699   1.167  22.379  24.863 -0.0273  0.0366  0.1757
14762W        W57700   1.222  22.699  20.687  0.3140  0.0611 -0.0459
14763W        W57701   2.885  21.944  22.971 -0.2295 -0.0673 -0.1988
14764W        W57702   2.959  24.754  21.606  0.0647  0.1624 -0.0308
14765W        W57703   1.836  24.783  18.543  0.1137 -0.4889  0.3237
14766W        W57704   1.771  24.559  23.028  0.1579 -0.1420 -0.1292
14767W        W57705   1.197  23.722  23.503 -0.0572  0.0257 -0.1339
14768W        W57706   0.838  20.986  21.891 -0.2044  0.0938 -0.3141
14769W        W57707   2.482  22.954  19.863  0.0795 -0.0456  0.0081
14770W        W57708   1.725  25.183  24.295  0.0121 -0.1387  0.1882
14771W        W57709   2.729  24.383  20.511  0.3006  0.0788 -0.0113
14772W        W57710   2.200  21.347  20.961 -0.1021 -0.1180 -0.0197
14773W        W57711   2.744  22.559  21.658  0.1581  0.0528 -0.4149
14774W        W57712   0.888  21.847  22.568 -0.0252 -0.1559  0.1637
14775W        W57713   0.271  24.117  22.154  0.1581  0.0326 -0.0372
14776W        W57714   1.953  25.831  22.133  0.0487 -0.1187 -0.0702
14777W        W57715   0.933  23.330  21.828  0.0482 -0.0062 -0.1060
14778W        W57716   2.421  21.822  22.693  0.1182  0.1961 -0.0340
14779W        W57717   1.486  23.901  20.361  0.3523 -0.1620  0.0794
14780W        W57718  34.650  24.061  21.625  0.1033  0.1595 -0.2909
14781W        W57719   1.654  24.075  21.223  0.1541 -0.2363 -0.2309
14782W        W57720   2.225  22.482  24.554 -0.0328  0.1231  0.0744
14783W        W57721   2.678  24.199  22.033  0.1282  0.2566  0.0796
14784W        W57722   2.099  23.619  24.473 -0.2459  0.1551  0.0633
14785W        W57723   2.615  23.815  20.587  0.1846 -0.2107  0.1606
14786W        W57724   3.446  23.022  20.202 -0.2042 -0.2770 -0.1972
14787W        W57725   2.479  25.114  22.689  0.0054 -0.0010 -0.2373
14788W        W57726   2.075  25.902  23.463 -0.2525  0.0721 -0.1868
14789W        W57727   1.546  25.076  23.746  0.0278 -0.1732  0.1577
14790W        W57728   3.305  23.354  22.779 -0.1601 -0.2702 -0.0799
14791W        W57729  34.631  21.597  22.997  0.1741 -0.1324  0.1140
14792W        W57730   0.913  23.281  21.308 -0.1009 -0.0180 -0.1577
14793W        W57731   1.738  24.368  20.369 -0.0766 -0.1556 -0.1008
14794W        W57732   2.167  23.257  22.576 -0.0503 -0.1330  0.0165
14795W        W57733  34.695  22.756  22.661  0.0686  0.0863  0.0699
14796W        W57734   2.205  22.772  22.578  0.0736 -0.0941 -0.1982
14797W        W57735   0.526  25.739  22.404  0.2014 -0.1326 -0.0993
14798W        W57736   2.332  24.028  23.580 -0.2275  0.0812  0.0722
14799W        W57737   0.361  23.467  26.234 -0.3302  0.1542 -0.1892
14800W        W57738   1.824  24.610  24.191 -0.1956  0.0455 -0.1472
14801W        W57739   5.016  23.848  24.596 -0.0150 -0.0301  0.0063
14802W        W57740   4.505  23.773  23.837  0.0033 -0.0431 -0.1432
14803W        W57741  33.808  22.310  23.884 -0.5640 -0.1684 -0.4440
14804W        W57742   2.798  24.876  25.771  0.4112  0.0234  0.3379
14805W        W57743   1.102  21.584  26.116 -0.0138 -0.3493  0.1593
14806W        W57744   1.836  24.563  26.091 -0.1905  0.0505  0.1201
14807W        W57745   3.992  25.935  26.797  0.0599 -0.2926  0.1567
14808W        W57746   2.032  23.812  23.204 -0.0807 -0.1086  0.4849
14809W        W57747   0.974  23.304  27.215  0.1090  0.0295 -0.0593
14810W        W57748   1.165  24.934  25.726  0.1101 -0.2232 -0.1887
14811W        W57749   1.043  22.468  26.083 -0.0256  0.0304  0.1821
14812W        W57750  34.591  21.931  24.071 -0.0720 -0.1832  0.2956
14813W        W57751   1.852  24.812  25.163 -0.1130 -0.3337 -0.0957
14814W        W57752   0.782  23.698  24.898  0.3410 -0.3085 -0.1604
14815W        W57753   1.467  22.927  26.791 -0.1332 -0.2219 -0.0888
14816W        W57754   1.641  24.059  24.789  0.1600  0.1657  0.1129
14817W        W57755   3.530  24.754  26.608 -0.1847  0.1065  0.3162
14818W        W57756   3.452  22.779  26.684 -0.1476  0.0571  0.4927
14819W        W57757   2.925  21.530  27.749 -0.1647 -0.1379 -0.0841
14820W        W57758   2.598  23.536  23.624 -0.2348 -0.1966 -0.1184
14821W        W57759   1.387  24.698  23.441 -0.0456 -0.2858  0.1051
14822W        W57760   0.058  23.861  25.293  0.2172  0.0597 -0.0002
14823W        W57761   0.505  23.485  26.755  0.0726  0.0524  0.1844
14824W        W57762   2.542  23.552  26.210 -0.0568 -0.2547 -0.0515
14825W        W57763   2.365  23.489  24.896 -0.1821 -0.1981 -0.1748
14826W        W57764   1.174  25.284  25.370 -0.1645  0.2813 -0.1486
14827W        W57765   0.726  25.515  25.019 -0.0969 -0.0863 -0.0322
14828W        W57766   2.896  23.437  25.824  0.0541  0.0718 -0.2625
14829W        W57767  34.070  25.842  24.666  0.0945  0.1964 -0.2145
14830W        W57768  33.681  25.170  23.623 -0.4164  0.0753 -0.0549
14831W        W57769   2.725  25.500  25.289  0.0184  0.0114 -0.0452
14832W        W57770   3.895  24.235  24.697  0.2371  0.0097 -0.0243
14833W        W57771   4.979  24.292  27.781  0.1571  0.1401 -0.2731
14834W        W57772   1.914  23.630  26.985 -0.0167 -0.0873 -0.2600
14835W        W57773  34.675  23.660  23.154 -0.1997 -0.2902 -0.0221
14836W        W57774   0.717  25.954  27.214  0.2861  0.1785 -0.1337
14837W        W57775   1.449  24.317  26.513 -0.1425 -0.2389  0.2477
14838W        W57776   1.131  22.272  25.391 -0.0409  0.0372 -0.1951
14839W        W57777   2.162  24.644  25.739  0.0946 -0.2709 -0.1011
14840W        W57778   1.515  25.477  24.605 -0.3898 -0.0506 -0.1552
14841W        W57779   2.300  25.753  25.443  0.4126  0.1907 -0.0177
14842W        W57780   0.553  24.117  28.010  0.0564  0.0605 -0.3558
14843W        W57781   0.351  24.462  23.640 -0.0055  0.0039  0.2134
14844W        W57782   3.432  22.405  27.575 -0.3843 -0.3104  0.0273
14845W        W57783   0.695  25.907  23.726 -0.0953  0.1301  0.0625
14846W        W57784   4.272  23.779  23.375  0.1019  0.0963  0.1184
14847W        W57785   0.783  23.496  22.620  0.0272  0.0720  0.1797
14848W        W57786   3.809  23.199  23.827 -0.0273 -0.0153  0.0526
14849W        W57787   1.867  23.572  24.944  0.1301 -0.1022  0.1919
14850W        W57788   2.508  25.762  25.905  0.1548  0.1444  0.1016
14851W        W57789   1.167  23.140  25.851 -0.1109 -0.0716 -0.0346
14852W        W57790   3.775  24.288  25.906  0.1908  0.2524  0.1805
14853W        W57791   1.858  23.790  24.019  0.0932  0.3754  0.0637
14854W        W57792   2.692  22.378  28.159 -0.1659  0.0741 -0.0854
14855W        W57793   0.566  25.186  26.649 -0.1221  0.1296 -0.0056
14856W        W57794  34.622  24.153  23.548  0.0345 -0.2255 -0.0158
14857W        W57795   3.243  24.845  24.577  0.2434  0.3197  0.2806
14858W        W57796   4.733  24.747  24.392  0.3482  0.1328  0.0269
14859W        W57797   2.647  24.391  23.932 -0.0572 -0.1776  0.1548
14860W        W57798  33.927  22.713  25.310 -0.1841 -0.0436 -0.0599
14861W        W57799  34.011  23.925  26.883  0.0229 -0.1402  0.0814
14862W        W57800  33.987  23.645  25.908 -0.3807  0.5161 -0.1192
14863W        W57801   1.162  24.091  23.914  0.1279 -0.1566 -0.2235
14864W        W57802   3.406  25.431  26.450 -0.3187  0.2310 -0.3029
14865W        W57803  34.498  23.827  27.055  0.0664 -0.4787 -0.0317
14866W        W57804   2.122  23.894  25.311  0.0868 -0.5097 -0.1410
14867W        W57805  34.478  23.217  24.467 -0.3487 -0.0714 -0.2259
14868W        W57806   1.654  24.678  25.593 -0.1988  0.4566  0.0507
14869W        W57807   4.070  25.746  24.552  0.3994 -0.1177 -0.1639
14870W        W57808   3.945  21.462  25.503  0.2892 -0.1252 -0.0087
14871W        W57809   2.606  22.676  27.498  0.1268 -0.2386 -0.2492
14872W        W57810   0.856  24.777  24.655  0.1836 -0.6282  0.2333
14873W        W57811   2.140  25.099  23.895 -0.0516  0.2514 -0.1488
14874W        W57812   1.836  26.348  27.129  0.2340  0.2531  0.2271
14875W        W57813   3.745  23.668  24.778 -0.3159 -0.2823 -0.0302
14876W        W57814   0.731  24.712  25.589  0.4859 -0.2073 -0.0468
14877W        W57815   3.783  23.908  26.912 -0.1636 -0.4939  0.0389
14878W        W57816   1.990  25.959  27.546 -0.0444 -0.1939  0.2389
14879W        W57817   1.659  25.630  23.853  0.0023 -0.0825 -0.1269
14880W        W57818  34.483  23.446  25.361  0.1604 -0.0172  0.2540
14881W        W57819  34.268  23.829  24.956  0.3177  0.2549  0.3455
14882W        W57820   0.079  22.234  25.666  0.1021  0.3868 -0.2906
14883W        W57821   2.833  23.190  26.321 -0.1269 -0.0708 -0.0764
14884W        W57822   1.746  22.705  24.757 -0.2561 -0.5025  0.2216
14885W        W57823  34.496  22.505  26.575 -0.2127  0.1919  0.4038
14886W        W57824   3.921  21.879  25.185 -0.2192 -0.1512 -0.0942
14887W        W57825  34.529  25.588  24.824  0.2281  0.0570 -0.2260
14888W        W57826   4.318  25.542  25.499 -0.1925  0.2365 -0.0868
14889W        W57827   2.121  23.575  23.612  0.1858 -0.0082 -0.1585
14890W        W57828   3.347  24.525  23.495  0.0642  0.2983 -0.0454
14891W        W57829   0.165  23.051  25.468  0.0488 -0.2341 -0.1317
14892W        W57830   0.424  24.613  24.964 -0.1024  0.0752 -0.1326
14893W        W57831   2.613  21.851  28.049 -0.2891 -0.3734  0.0144
14894W        W57832   0.468  22.705  25.590 -0.0894  0.1631  0.2967
14895W        W57833   3.220  23.215  26.743  0.1516  0.2715 -0.0393
14896W        W57834   1.257  21.576  23.333  0.5921  0.0522  0.1319
14897W        W57835   1.532  22.285  23.950  0.1367  0.0686 -0.1644
14898W        W57836   0.815  23.291  23.434 -0.2689  0.1602 -0.3745
14899W        W57837   0.139  24.068  24.297 -0.1922 -0.0029  0.0418
14900W        W57838   3.129  21.912  26.895  0.0925  0.0099  0.0114
14901W        W57839   2.448  25.146  25.557  0.0638  0.1173  0.5975
14902W        W57840   4.632  24.212  27.348  0.5808  0.1599 -0.4084
14903W        W57841   3.791  26.447  26.930  0.2360 -0.1926 -0.0467
14904W        W57842   1.697  23.393  27.446  0.3005  0.3311 -0.0481
14905W        W57843  34.357  23.214  25.873  0.1312  0.4506  0.1707
14906W        W57844  34.384  25.171  24.421 -0.3268 -0.1420  0.0420
14907W        W57845  34.604  24.330  25.753  0.1546 -0.0128 -0.4396
14908W        W57846   2.599  22.633  25.371 -0.1707  0.2073 -0.1916
14909W        W57847   5.849  24.526  24.974  0.2213 -0.0772  0.1689
14910W        W57848   1.903  23.699  25.761 -0.0898  0.0404  0.3037
14911W        W57849   1.546  23.798  26.523  0.1113  0.0704  0.0847
14912W        W57850   2.399  20.913  27.826 -0.2892  0.0524 -0.1485
14913W        W57851   3.042  22.738  26.474 -0.1176  0.2076 -0.0015
14914W        W57852   3.037  24.503  26.103  0.2264 -0.0406 -0.1924
14915W        W57853   1.122  22.819  24.192 -0.2214 -0.0274  0.1602
14916W        W57854   0.959  24.846  26.155 -0.0008 -0.2728 -0.0888
14917W        W57855   0.862  25.828  23.233 -0.2588 -0.1922  0.2402
14918W        W57856   0.227  25.163  25.095  0.0896  0.0564 -0.0759
14919W        W57857   1.745  24.066  26.163 -0.2145  0.1485  0.0023
14920W        W57858   3.895  22.560  26.533  0.0902  0.0598 -0.0377
14921W        W57859   1.092  22.448  27.194  0.1762 -0.0613  0.2140
14922W        W57860   3.693  24.753  27.093  0.1188  0.2273  0.0113
14923W        W57861   0.783  24.184  24.658  0.0279  0.0447 -0.1334
14924W        W57862   0.823  25.044  28.464  0.0210 -0.2183  0.2820
14925W        W57863   3.405  22.671  26.143  0.2197  0.0449  0.2326
14926W        W57864   3.314  23.133  23.964  0.0677 -0.3992 -0.0246
14927W        W57865   0.004  24.094  27.759 -0.2051 -0.1306  0.1591
14928W        W57866   1.509  25.316  26.263  0.0410  0.0177 -0.2687
14929W        W57867   1.270  23.264  23.366  0.0379 -0.1612 -0.0186
14930W        W57868   3.383  23.211  25.062 -0.1840 -0.0877  0.1996
14931W        W57869   0.673  25.177  28.979  0.1147 -0.1136 -0.0991
14932W        W57870   2.740  26.152  26.209 -0.0939  0.1071  0.1161
14933W        W57871   2.210  24.317  26.371 -0.1003  0.0671 -0.1276
14934W        W57872   1.272  23.688  24.886  0.1421  0.1684  0.2105
14935W        W57873   2.770  24.929  24.373 -0.3846 -0.1408 -0.0940
14936W        W57874  34.036  24.949  26.158  0.1022 -0.3657 -0.3430
14937W        W57875   4.632  24.501  26.917 -0.0413 -0.2280 -0.1280
14938W        W57876   2.563  24.429  25.954 -0.0077 -0.0899  0.0062
14939W        W57877   1.913  21.589  27.494  0.0474 -0.0925  0.0429
14940W        W57878   1.578  24.163  24.212  0.0540 -0.3908  0.2157
14941W        W57879   2.166  21.026  25.123 -0.0815  0.0247  0.1273
14942W        W57880  34.090  25.181  23.883 -0.2113 -0.1797  0.0284
14943W        W57881   2.699  21.255  26.874 -0.2281  0.1349  0.2893
14944W        W57882   2.067  23.425  25.356  0.1465  0.4489  0.0543
14945W        W57883   1.784  21.758  26.999 -0.1237 -0.0426  0.1402
14946W        W57884   3.333  22.329  26.556  0.0596  0.0230 -0.4031
14947W        W57885   3.086  23.223  23.564  0.0816  0.2049 -0.0589
14948W        W57886   2.902  23.254  24.958  0.0134  0.0392  0.1565
14949W        W57887   0.229  22.971  24.570  0.2380  0.0149 -0.4286
14950W        W57888   2.450  22.916  26.913  0.0853  0.0643 -0.2403
14951W        W57889   0.434  24.239  25.819 -0.0881 -0.0839 -0.0279
14952W        W57890   0.179  26.130  27.306 -0.0170  0.5103  0.1676
14953W        W57891   3.092  24.990  26.352  0.0822 -0.1255  0.1974
14954W        W57892   3.319  23.731  25.708 -0.0320  0.2661 -0.1474
14955W        W57893   1.614  22.267  26.899 -0.1723 -0.0797 -0.0338
14956W        W57894   1.371  23.182  24.768 -0.0158  0.3206 -0.1968
14957W        W57895   1.051  25.782  24.650 -0.1222  0.0217  0.0562
14958W        W57896   0.188  25.818  23.993 -0.0435 -0.0361  0.2892
14959W        W57897   1.380  24.000  25.748 -0.1036  0.0788  0.3918
14960W        W57898   1.237  24.460  25.471  0.1847 -0.1971  0.3176
14961W        W57899   0.725  25.049  25.206  0.1244  0.0276  0.1137
14962W        W57900   3.850  23.856  25.667 -0.2139 -0.2759 -0.0006
14963W        W57901   1.336  25.547  23.393  0.0274 -0.0544  0.0526
14964W        W57902   2.451  19.837  26.180 -0.3143 -0.0761 -0.1994
14965W        W57903  34.577  26.123  24.895 -0.0258  0.0762  0.3725
14966W        W57904   0.657  25.405  23.400 -0.0965  0.0015  0.0296
14967W        W57905  33.871  23.368  23.615  0.0470  0.2257  0.0232
14968W        W57906   2.617  23.528  24.473  0.0355  0.1225 -0.0591
14969W        W57907   2.501  24.675  25.380  0.1142 -0.2163 -0.1127
14970W        W57908   0.507  23.596  27.252 -0.1093  0.0506 -0.1955
14971W        W57909   1.540  23.504  26.075  0.0113  0.3868 -0.5864
14972W        W57910   0.423  24.771  26.021 -0.3041  0.0245  0.0875
14973W        W57911   1.803  22.488  28.869  0.0396  0.1137  0.0702
14974W        W57912   3.792  22.521  25.242 -0.1142 -0.0853  0.2172
14975W        W57913   2.470  24.740  27.622 -0.7081  0.0478 -0.0741
14976W        W57914   1.858  23.119  27.057  0.1206 -0.0446 -0.0383
14977W        W57915   0.042  22.452  23.521 -0.0157  0.1823 -0.1699
14978W        W57916   2.857  23.919  25.961  0.0929  0.0503  0.1903
14979W        W57917   0.837  23.215  25.025  0.4012 -0.0750 -0.0297
14980W        W57918   1.580  25.509  25.691 -0.2804 -0.0815  0.0633
14981W        W57919   0.945  23.588  25.423 -0.3518 -0.1476 -0.0356
14982W        W57920   2.128  24.389  25.088  0.1561 -0.4760  0.1157
14983W        W57921   1.612  23.768  25.344  0.4599 -0.2236  0.1356
14984W        W57922   1.371  22.576  28.135  0.4884 -0.0890 -0.0967
14985W        W57923   4.043  23.907  25.142  0.2634 -0.1001 -0.0105
14986W        W57924   3.203  21.093  25.941  0.1848  0.0775  0.2859
14987W        W57925   1.094  22.856  26.397 -0.0137  0.0421  0.3150
14988W        W57926   1.890  22.764  26.456  0.1285 -0.2107 -0.2711
14989W        W57927   2.657  25.307  26.285  0.3370 -0.0607 -0.1319
14990W        W57928   2.974  22.475  25.696 -0.3540 -0.0544 -0.0045
14991W        W57929   0.326  24.917  27.110  0.1726  0.3924 -0.0504
14992W        W57930   3.390  21.895  25.374  0.0929  0.0870 -0.1676
14993W        W57931   4.878  25.563  24.895 -0.1074 -0.0695 -0.3691
14994W        W57932   1.537  23.005  26.170  0.1484  0.2278  0.2240
14995W        W57933   2.264  22.929  24.851  0.1852  0.3941  0.0171
14996W        W57934  33.769  24.486  26.194  0.0790  0.1807 -0.3503
14997W        W57935  34.514  24.903  25.015 -0.0623 -0.0012 -0.2101
14998W        W57936   1.726  22.646  25.484 -0.0010  0.1606  0.0916
14999W        W57937   0.627  25.774  25.905  0.3206  0.2351 -0.1926
15000W        W57938   1.098  25.156  24.928 -0.1992 -0.1044 -0.1549
15001W        W57939   0.745  23.204  26.182  0.2216 -0.0173  0.1327
15002W        W57940   3.544  24.511  24.301 -0.2303  0.1955  0.1658
15003W        W57941   1.938  24.243  23.369  0.3148  0.1554 -0.0954
15004W        W57942   1.706  23.177  25.655  0.3403  0.1014  0.0552
15005W        W57943   3.635  23.500  26.608  0.1908 -0.1253 -0.1244
15006W        W57944   3.418  23.654  23.923 -0.5406  0.2485 -0.1646
15007W        W57945   1.680  21.702  28.551 -0.2112  0.2849 -0.1461
15008W        W57946  34.553  21.974  26.468 -0.2105 -0.1544 -0.0117
15009W        W57947   3.628  24.215  25.255  0.1012 -0.1676  0.1008
15010W        W57948   1.343  23.021  27.302 -0.1229 -0.1448  0.2185
15011W        W57949   0.975  26.296  27.542 -0.4203  0.3394  0.1168
15012W        W57950   1.214  23.344  26.389 -0.0063 -0.1310  0.0387
15013W        W57951   2.000  23.356  26.061 -0.3705 -0.2715 -0.1387
15014W        W57952  34.605  22.236  24.490 -0.0118  0.0518  0.0559
15015W        W57953   0.288  24.967  25.584 -0.1447 -0.0417  0.2171
15016W        W57954   3.288  24.732  25.649 -0.2101 -0.0777 -0.2444
15017W        W57955   2.452  24.100  25.571  0.3026 -0.2460  0.1010
15018W        W57956   4.043  22.174  24.749 -0.0641  0.1027  0.2215
15019W        W57957   0.613  23.752  25.774  0.0929  0.2297  0.0409
15020W        W57958   2.598  24.258  25.085 -0.0835 -0.0842  0.4833
15021W        W57959   1.138  23.463  24.406  0.0540 -0.0174 -0.1608
15022W        W57960   2.230  25.264  25.955  0.2334 -0.2650  0.1272
15023W        W57961   2.764  21.785  26.526  0.1316  0.1778  0.1943
15024W        W57962   2.458  23.596  25.653 -0.3215 -0.1860  0.2127
15025W        W57963   2.815  23.085  24.410  0.2134  0.1501  0.3166
15026W        W57964   2.637  21.656  27.125 -0.1012  0.0008 -0.1095
15027W        W57965   2.388  22.680  25.931 -0.1780 -0.3105  0.3741
15028W        W57966   1.431  23.456  27.016  0.1998 -0.1186 -0.0395
15029W        W57967   0.052  22.894  26.921  0.1537 -0.0410 -0.0665
15030W        W57968   3.176  25.248  26.950  0.0253 -0.1589 -0.4507
15031W        W57969   3.742  24.028  24.169 -0.4333 -0.1097 -0.1577
15032W        W57970   4.066  21.045  25.836  0.2886 -0.2730  0.1535
15033W        W57971   4.274  24.160  25.936  0.1885 -0.0247 -0.2442
15034W        W57972   2.567  23.036  23.541 -0.1371 -0.1638  0.2569
15035W        W57973   0.611  22.747  26.095 -0.2571  0.2428  0.1263
15036W        W57974   4.132  23.308  26.486 -0.0482  0.3349 -0.2871
15037W        W57975   0.318  23.351  24.865 -0.2498  0.1642  0.0340
15038W        W57976   3.533  20.765  26.491 -0.2038 -0.2488  0.0510
15039W        W57977   3.273  24.323  24.856 -0.1592 -0.1908 -0.0867
15040W        W57978   1.074  25.722  25.611  0.1498  0.0572  0.2386
15041W        W57979   2.450  23.167  25.856  0.0382  0.1626  0.0304
15042W        W57980  34.673  24.348  24.853 -0.1642  0.0930 -0.2017
15043W        W57981   1.098  26.909  27.713 -0.0354  0.0792 -0.1647
15044W        W57982   0.453  22.919  22.737 -0.1011  0.1569 -0.1296
15045W        W57983   2.398  24.409  23.185 -0.0820 -0.1457  0.0459
15046W        W57984   0.881  24.512  25.077 -0.3480 -0.1259 -0.1539
15047W        W57985   4.127  24.252  27.397  0.2582 -0.0463  0.1824
15048W        W57986   2.114  22.526  25.110  0.2312  0.0282 -0.0780
15049W        W57987   3.584  21.362  25.861  0.0325  0.1688 -0.0862
15050W        W57988   0.585  25.742  24.370 -0.0774 -0.1060  0.0160
15051W        W57989   2.951  22.892  25.954  0.4554  0.0391 -0.2700
15052W        W57990   0.124  26.203  25.691 -0.0350 -0.0438 -0.1043
15053W        W57991   0.069  24.067  26.161  0.1570 -0.0212 -0.1853
15054W        W57992   1.979  25.256  24.719  0.0597  0.1838  0.0115
15055W        W57993   0.903  22.957  27.540  0.0651 -0.1937 -0.1389
15056W        W57994   4.584  22.814  24.320  0.0355  0.0289  0.0335
15057W        W57995   1.163  24.013  25.236  0.1169 -0.0294 -0.1456
15058W        W57996   3.603  24.798  24.961  0.2060 -0.3100 -0.1055
15059W        W57997   1.383  25.063  26.819 -0.3527 -0.0852 -0.1963
15060W        W57998  33.673  24.002  26.016 -0.4239  0.0318 -0.1215
15061W        W57999   2.112  23.660  26.460 -0.2414  0.1282 -0.0589
15062W        W58000   3.245  24.219  25.694 -0.2322  0.0503  0.0038
15063W        W58001   0.651  24.783  24.229 -0.1245  0.1991 -0.0477
15064W        W58002  33.954  22.549  26.748 -0.1040  0.2148 -0.5132
15065W        W58003   0.817  24.059  27.184 -0.0156  0.2694  0.0193
15066W        W58004   3.103  24.075  25.259  0.1334 -0.1353 -0.1763
15067W        W58005   0.616  23.799  24.315  0.1750  0.1425 -0.1968
15068W        W58006   1.991  24.119  24.459 -0.1223  0.2281 -0.2380
15069W        W58007  34.693  25.548  28.279  0.1088  0.0984 -0.2506
15070W        W58008   0.716  23.520  27.735  0.0651  0.1612 -0.1912
15071W        W58009   1.153  26.216  24.974  0.1417 -0.1538 -0.0411
15072W        W58010   3.681  24.899  23.964 -0.3407  0.0449 -0.0570
15073W        W58011   2.775  24.009  24.701  0.1437  0.0350  0.3123
15074W        W58012   2.254  24.783  24.664 -0.0610 -0.1071 -0.2005
15075W        W58013   1.578  23.693  24.465  0.1010 -0.0562  0.2172
15076W        W58014  34.394  23.837  25.700  0.2668 -0.1710  0.0549
15077W        W58015  34.449  24.891  23.559 -0.0108  0.0518 -0.3642
15078W        W58016   1.638  25.914  25.376 -0.1454 -0.0185 -0.1008
15079W        W58017   0.684  26.351  25.097  0.0983  0.0641 -0.1113
15080W        W58018   3.059  23.522  25.362  0.2705 -0.2758 -0.1652
15081W        W58019   3.985  21.666  24.721 -0.0324  0.3487 -0.1496
15082W        W58020   3.800  24.012  26.365 -0.0418  0.2156 -0.2213
15083W        W58021   4.638  24.470  23.856 -0.5139 -0.1404  0.0440
15084W        W58022   0.622  25.403  27.902  0.0682 -0.0572  0.0179
15085W        W58023   0.280  23.067  25.936 -0.0693 -0.1726  0.2083
15086W        W58024   1.360  24.898  24.510  0.0254  0.0849 -0.2372
15087W        W58025   0.454  21.450  27.597 -0.0766 -0.0070  0.0079
15088W        W58026   3.772  21.236  27.608  0.1654 -0.2992  0.3714
15089W        W58027  34.323  25.259  27.119 -0.0190 -0.0075  0.3782
15090W        W58028   3.588  25.649  24.760 -0.3844  0.0635 -0.1825
15091W        W58029  33.717  23.094  25.029  0.4800 -0.0694  0.0444
15092W        W58030   3.115  23.660  24.867 -0.0029  0.1934 -0.1222
15093W        W58031   4.465  21.574  26.521  0.2066  0.0609 -0.0883
15094W        W58032   1.697  22.975  22.577  0.3469 -0.0514 -0.0942
15095W        W58033   0.438  23.484  25.346  0.5021  0.1694  0.1685
15096W        W58034   2.251  25.571  26.305  0.2564  0.3988  0.0071
15097W        W58035   0.597  24.665  26.739 -0.1659 -0.2021  0.4740
15098W        W58036   1.363  24.809  25.162  0.0495 -0.0280  0.1460
15099W        W58037  34.572  21.357  24.032  0.0733  0.2450  0.0781
15100W        W58038   4.862  23.617  25.501  0.1756  0.1887  0.0582
15101W        W58039   0.506  24.904  27.580  0.1895  0.2807  0.3063
15102W        W58040   2.846  22.297  26.697  0.0634  0.0740  0.1393
15103W        W58041  34.696  22.999  24.082 -0.0660  0.1432  0.3238
15104W        W58042   2.824  22.158  23.905  0.0924  0.0903 -0.0034
15105W        W58043   0.773  24.197  26.707  0.0198  0.0095 -0.3940
15106W        W58044   1.238  23.363  27.640  0.0211 -0.0296 -0.0593
15107W        W58045   1.540  23.163  24.196  0.1770 -0.2541  0.2484
15108W        W58046   3.329  23.195  26.247  0.1868 -0.0145 -0.4473
15109W        W58047   3.420  24.044  23.485 -0.2355 -0.0267  0.0300
15110W        W58048   1.391  24.346  27.459 -0.0174 -0.0324  0.1515
15111W        W58049   0.523  22.842  26.638 -0.1885  0.2404  0.0215
15112W        W58050   2.952  22.682  23.658 -0.0823  0.2595 -0.1256
15113W        W58051   0.302  24.501  24.472 -0.2318  0.0782 -0.3573
15114W        W58052   2.870  23.486  27.116 -0.2503 -0.0836 -0.0845
15115W        W58053   3.239  23.724  26.813  0.2499 -0.0246  0.0915
15116W        W58054  34.392  22.692  24.421  0.0931  0.2651 -0.1293
15117W        W58055   3.849  24.519  23.202 -0.0936  0.2282  0.0091
15118W        W58056   3.736  22.971  25.433  0.4623 -0.0779  0.1212
15119W        W58057   2.161  26.145  25.149  0.0381 -0.0505  0.0448
15120W        W58058   4.389  24.167  24.758  0.0931 -0.2634 -0.0763
15121W        W58059   3.875  25.572  26.425 -0.0647  0.4979  0.1773
15122W        W58060  33.508  22.113  24.645 -0.2528  0.0513  0.0938
15123W        W58061   2.429  25.278  26.760  0.3701 -0.3309 -0.0896
15124W        W58062   1.758  25.053  25.861  0.0558  0.1328 -0.2470
15125W        W58063   1.529  22.406  26.385 -0.0497 -0.0932  0.3208
15126W        W58064   0.712  23.133  25.656  0.1750 -0.1860 -0.0926
15127W        W58065  34.409  25.951  23.761  0.0737  0.3090 -0.1463
15128W        W58066   3.335  24.165  26.318 -0.0815  0.2422  0.0629
15129W        W58067   3.927  22.304  26.147 -0.0502 -0.2886  0.3494
15130W        W58068   2.355  25.243  24.323 -0.0939  0.1636  0.3848
15131W        W58069   3.903  21.644  27.392  0.1875  0.1036 -0.2190
15132W        W58070   0.834  25.796  27.705  0.0182  0.0440 -0.1000
15133W        W58071   0.512  26.274  26.121  0.3614  0.0774  0.3077
15134W        W58072  34.100  25.111  23.011 -0.0785 -0.1020  0.3694
15135W        W58073   2.047  23.563  27.718  0.3329 -0.0198  0.0272
15136W        W58074   1.127  23.940  24.425  0.0693 -0.0610  0.1157
15137W        W58075   2.035  25.575  24.203  0.3042  0.0635  0.1377
15138W        W58076   2.903  25.058  25.315 -0.0703  0.0735 -0.1420
15139W        W58077   3.964  23.368  25.158  0.2066 -0.1045 -0.0638
15140W        W58078   4.626  26.219  26.170  0.0565  0.0120 -0.1369
15141W        W58079   2.582  23.188  25.321  0.0437  0.2611  0.2336
15142W        W58080   3.919  21.595  24.067 -0.0286  0.3766  0.0824
15143W        W58081   3.735  22.875  24.911  0.0510 -0.0020  0.1402
15144W        W58082   2.181  22.952  25.551  0.0529 -0.0955  0.2259
15145W        W58083  34.266  23.950  23.996 -0.0645 -0.4176 -0.1905
15146W        W58084   0.827  24.587  23.315 -0.2910  0.0998 -0.0665
15147W        W58085  33.628  24.441  25.527 -0.0548  0.0155  0.0673
15148W        W58086   2.022  23.071  27.872  0.0890 -0.0800  0.3874
15149W        W58087   1.081  21.444  27.843 -0.0735 -0.2746  0.0875
15150W        W58088  34.103  24.627  25.801 -0.3051  0.0357 -0.0744
15151W        W58089  34.617  22.512  24.919  0.0015 -0.2343  0.0858
15152W        W58090   3.168  25.521  24.516  0.2619 -0.0676  0.1969
15153W        W58091  34.311  23.032  26.727 -0.1982  0.1617  0.5170
15154W        W58092   1.204  22.698  25.617 -0.0047 -0.3510 -0.0972
15155W        W58093   1.123  25.401  25.986 -0.1608  0.4251 -0.0402
15156W        W58094   2.939  24.537  25.358 -0.0858 -0.1604  0.0922
15157W        W58095   1.317  23.224  25.322  0.0653 -0.2819 -0.3568
15158W        W58096   3.093  24.372  27.627 -0.0688 -0.0511  0.3789
15159W        W58097   1.108  25.008  24.081  0.1049  0.1818  0.0717
15160W        W58098   2.843  22.826  27.941  0.0174  0.2790 -0.1035
15161W        W58099   2.528  22.151  27.608  0.2029 -0.2420 -0.0374
15162W        W58100  32.844  23.191  22.589  0.0546 -0.0338 -0.0736
15163W        W58101   3.020  23.021  25.408  0.1214 -0.1487 -0.1636
15164W        W58102   2.759  24.002  24.200  0.0713 -0.3198 -0.0368
15165W        W58103   2.210  26.284  22.874 -0.2236  0.2781 -0.1146
15166W        W58104   0.337  27.518  27.163 -0.3119  0.1377  0.0669
15167W        W58105   2.289  25.879  27.129 -0.1600 -0.1395 -0.2344
15168W        W58106   0.684  22.109  27.309 -0.0433 -0.1341 -0.3749
15169W        W58107   2.934  25.376  25.763 -0.2389 -0.1540 -0.0469
15170W        W58108   2.279  23.336  27.298 -0.0986 -0.1642  0.1272
15171W        W58109   3.177  25.261  24.037  0.0836  0.1776  0.0007
15172W        W58110   3.404  23.190  25.745  0.1927 -0.0943  0.0273
15173W        W58111   3.555  23.658  25.239  0.1486 -0.2960  0.3906
15174W        W58112   1.633  21.888  27.796 -0.3301  0.2420 -0.1059
15175W        W58113   0.328  23.191  27.534 -0.1892  0.1690  0.3989
15176W        W58114   3.442  23.312  27.177 -0.2503  0.0405 -0.3194
15177W        W58115  34.456  23.618  26.165 -0.2249  0.0904 -0.2162
15178W        W58116   3.877  23.187  25.838 -0.0766 -0.1463  0.0957
15179W        W58117   2.261  23.964  24.822 -0.1144 -0.0718  0.2114
15180W        W58118   1.136  24.475  24.239  0.1479 -0.1460  0.1194
15181W        W58119   2.307  22.244  24.090  0.4911 -0.1343 -0.0637
15182W        W58120   0.794  23.768  28.321 -0.1459  0.1171 -0.1085
15183W        W58121   2.484  23.129  27.713 -0.1422  0.1663  0.2265
15184W        W58122   1.725  23.282  26.528 -0.1378 -0.2028  0.0342
15185W        W58123   2.299  22.992  24.388  0.2468 -0.2282 -0.3180
15186W        W58124   3.560  25.238  24.424 -0.1768 -0.0105  0.3395
15187W        W58125   1.855  24.627  26.611 -0.0284 -0.0382 -0.0685
15188W        W58126   2.845  24.954  26.809 -0.0601 -0.3072 -0.4588
15189W        W58127  34.624  25.650  27.059 -0.5475  0.3424  0.2419
15190W        W58128   2.507  24.847  26.188 -0.0811 -0.1821 -0.1883
15191W        W58129  33.927  23.152  24.490  0.2005 -0.3171  0.0203
15192W        W58130   0.933  25.323  24.405  0.1946  0.0195 -0.0819
15193W        W58131  34.433  24.690  24.527  0.1243  0.2050  0.2123
15194W        W58132   3.256  21.741  25.818 -0.1394 -0.0747 -0.3471
15195W        W58133   2.282  23.947  26.004 -0.1728 -0.1994  0.0383
15196W        W58134   2.434  22.134  25.265 -0.0385 -0.0872 -0.2951
15197W        W58135   1.044  24.528  27.100 -0.1986 -0.1017 -0.2899
15198W        W58136   2.274  21.717  26.787 -0.0250 -0.1532 -0.0042
15199W        W58137   1.293  24.111  31.096 -0.2370  0.1642 -0.3811
15200W        W58138   0.214  23.016  28.589  0.2153 -0.1849 -0.1254
15201W        W58139   4.066  21.821  27.878  0.1524 -0.1948 -0.1778
15202W        W58140   3.048  24.270  28.241 -0.1626  0.3251  0.0167
15203W        W58141  34.586  20.696  29.511 -0.0986  0.1021  0.1585
15204W        W58142   3.137  25.102  28.101  0.1594  0.2706  0.1162
15205W        W58143   1.352  21.943  30.067 -0.1437 -0.0786  0.0312
15206W        W58144   3.072  24.015  29.793 -0.4629  0.0474 -0.3374
15207W        W58145   3.619  25.682  29.902 -0.1415 -0.0214 -0.0920
15208W        W58146   1.987  23.970  28.144 -0.0612  0.1304  0.1019
15209W        W58147   1.722  23.913  30.648 -0.0090 -0.0286  0.2183
15210W        W58148   1.383  25.276  29.748  0.0027 -0.3037 -0.0236
15211W        W58149   2.536  22.096  28.560  0.1846 -0.3283  0.0141
15212W        W58150   0.539  21.202  29.637  0.0453  0.0688  0.2163
15213W        W58151   3.205  24.720  28.430 -0.2044  0.1283  0.0831
15214W        W58152   0.162  24.512  28.577  0.0529  0.1549  0.1736
15215W        W58153   0.590  23.433  28.575 -0.1276 -0.0934  0.2721
15216W        W58154   2.155  21.623  28.777  0.1972  0.2209 -0.0699
15217W        W58155   2.596  24.274  29.317  0.1351 -0.1974 -0.0131
15218W        W58156   4.071  22.134  31.239  0.0116  0.2339  0.0294
15219W        W58157   1.962  23.163  31.786  0.0970  0.0382  0.2477
15220W        W58158   1.519  25.999  27.609  0.1202 -0.1213  0.2627
15221W        W58159   0.250  21.845  27.361  0.3612  0.0109  0.0585
15222W        W58160  33.702  24.098  29.257  0.2401 -0.2952  0.1531
15223W        W58161   1.869  23.423  30.500  0.1705 -0.1111  0.0941
15224W        W58162   3.213  23.673  29.447 -0.1025 -0.4301 -0.2557
15225W        W58163   3.957  23.594  29.011  0.0439  0.0281  0.0506
15226W        W58164   1.859  24.768  28.779  0.2676  0.0883 -0.1146
15227W        W58165   2.194  24.511  28.044 -0.0060  0.3214 -0.3556
15228W        W58166   3.042  23.868  31.224  0.1118 -0.0283  0.0744
15229W        W58167   0.218  24.537  27.979  0.2404 -0.0682  0.0583
15230W        W58168   0.623  26.058  30.156  0.1461  0.1579  0.0269
15231W        W58169   2.287  24.813  28.554 -0.0057  0.2554 -0.1369
15232W        W58170   3.698  23.907  29.403  0.2471  0.1114  0.2626
15233W        W58171   4.230  24.974  30.143  0.1468  0.0474  0.1225
15234W        W58172   1.384  25.865  30.835 -0.0737 -0.4000  0.0047
15235W        W58173   0.456  25.427  28.430  0.2641  0.1172  0.0889
15236W        W58174   1.555  24.986  30.537 -0.2612 -0.0452  0.0197
15237W        W58175   0.368  25.967  31.312 -0.0917  0.2673  0.0106
15238W        W58176   1.241  22.881  30.071  0.1527 -0.1178  0.0170
15239W        W58177   1.838  22.715  28.187 -0.1867 -0.1868 -0.0961
15240W        W58178   1.561  27.086  28.160  0.2616 -0.1958  0.0871
15241W        W58179   3.160  24.779  28.962  0.2191  0.1444 -0.1657
15242W        W58180   1.423  24.143  29.856  0.1549  0.0285 -0.0383
15243W        W58181   1.437  24.663  30.123 -0.0910  0.0198  0.0688
15244W        W58182   4.478  23.058   0.110 -0.2020  0.1410 -0.1799
15245W        W58183   1.329  23.790  28.152 -0.0858 -0.0935 -0.1675
15246W        W58184   2.419  23.925  26.811 -0.0847  0.4467 -0.2704
15247W        W58185   2.040  22.383  26.160 -0.0294 -0.2339 -0.1678
15248W        W58186   2.167  22.762  27.401  0.2618 -0.2177  0.1176
15249W        W58187   2.382  22.718  29.970 -0.0485  0.1753 -0.0460
15250W        W58188   1.684  24.814  29.625 -0.0526 -0.2542  0.0879
15251W        W58189   2.059  22.409  29.822  0.0077 -0.0789 -0.1103
15252W        W58190   4.563  25.303  30.397  0.0751 -0.1081 -0.1685
15253W        W58191   2.696  22.766  28.557 -0.0488  0.1202 -0.1230
15254W        W58192   3.126  23.405  29.889  0.1328 -0.1636 -0.2111
15255W        W58193  34.506  26.227  29.532 -0.0714  0.0141  0.0139
15256W        W58194  34.102  23.187  30.304 -0.1112 -0.0969  0.0173
15257W        W58195   2.693  25.781  27.660  0.1917 -0.0025  0.2137
15258W        W58196   2.806  25.070  29.258 -0.0171  0.3124 -0.0743
15259W        W58197   1.998  24.317  28.555  0.2389  0.0487 -0.0321
15260W        W58198   1.305  24.038  29.383  0.1588  0.3231  0.2567
15261W        W58199   1.446  23.144  31.764  0.2199  0.1403 -0.2877
15262W        W58200   2.110  24.141  30.856 -0.2112 -0.3108  0.1093
15263W        W58201   1.378  22.721  28.717 -0.1330 -0.0298 -0.2464
15264W        W58202   5.234  25.530  31.549  0.2076  0.1956 -0.0121
15265W        W58203   0.845  24.986  31.087 -0.5866  0.1059 -0.2148
15266W        W58204   3.426  23.139  27.918 -0.1635  0.0549 -0.1712
15267W        W58205   1.070  24.393  28.835 -0.1900  0.0523  0.1430
15268W        W58206   2.411  24.209  29.823 -0.0318 -0.0944 -0.1504
15269W        W58207   2.931  23.834  27.931 -0.1298  0.0244 -0.0711
15270W        W58208   2.422  21.990  29.024  0.1478 -0.0629 -0.1251
15271W        W58209   2.509  22.534  31.440 -0.0182 -0.2046 -0.1628
15272W        W58210   2.091  23.439  28.338  0.1694  0.1919  0.1484
15273W        W58211   0.734  24.463  27.619 -0.1888  0.1466 -0.1022
15274W        W58212   4.238  25.920  29.904 -0.2982 -0.0678 -0.1144
15275W        W58213   2.790  24.013  27.202  0.1703 -0.0012  0.2057
15276W        W58214   1.066  24.922  30.577  0.0080 -0.1271  0.2644
15277W        W58215   2.702  23.302  30.988  0.1972 -0.1459  0.1302
15278W        W58216   2.659  25.190  31.560 -0.1389  0.2349  0.0690
15279W        W58217   0.879  24.999  27.019 -0.0657 -0.2924 -0.0144
15280W        W58218  33.050  23.292  28.518  0.0949 -0.2429 -0.1569
15281W        W58219  34.596  24.794  27.719 -0.0987  0.0739 -0.2125
15282W        W58220   0.864  23.215  29.492 -0.1720 -0.1023  0.0914
15283W        W58221   0.554  25.055  30.639 -0.0033  0.1316 -0.1209
15284W        W58222   3.400  23.882  28.516  0.0250  0.0385 -0.0400
15285W        W58223   0.824  23.007  30.337  0.3037 -0.0389  0.1641
15286W        W58224   4.594  22.027  30.995 -0.1621  0.2430  0.0839
15287W        W58225   0.324  23.699  28.063  0.1565 -0.0139  0.0857
15288W        W58226   2.040  25.744  29.308 -0.0786 -0.1162 -0.2518
15289W        W58227   2.360  22.976  28.269 -0.2712  0.2011  0.1952
15290W        W58228   2.855  25.050  27.329  0.3555  0.1253 -0.0935
15291W        W58229   0.328  24.256  29.005  0.2613  0.1896 -0.1765
15292W        W58230  34.666  21.995  27.925 -0.0507  0.1121 -0.0603
15293W        W58231   0.963  23.999   0.061 -0.2535 -0.1642  0.1219
15294W        W58232   2.039  22.617  29.314 -0.1286  0.1160 -0.0431
15295W        W58233   3.811  23.062  29.337 -0.2456 -0.0900 -0.0075
15296W        W58234   1.810  22.218  28.250 -0.0923  0.0888 -0.1208
15297W        W58235   5.354  23.474  28.898  0.0002 -0.1017 -0.1623
15298W        W58236   2.186  24.290  29.037  0.2458  0.0861  0.4927
15299W        W58237   1.510  23.675  29.681  0.2736 -0.1999 -0.4495
15300W        W58238   3.328  20.992  30.294  0.2597 -0.0356 -0.0394
15301W        W58239   1.164  25.738  27.354 -0.0532  0.1509 -0.0033
15302W        W58240   3.824  25.244  30.340 -0.0808 -0.4463  0.1339
15303W        W58241   5.275  23.679  28.239 -0.2698  0.0624  0.1972
15304W        W58242   1.387  22.143  31.134  0.0791 -0.0557 -0.3940
15305W        W58243  34.481  22.216  27.444  0.0043  0.2927  0.1043
15306W        W58244   0.432  26.125  29.223  0.0423  0.1465 -0.0075
15307W        W58245   0.631  24.615  29.802 -0.0601  0.2760  0.2446
15308W        W58246   0.919  22.888  28.014  0.0783  0.0699  0.1421
15309W        W58247   4.581  25.432  29.343 -0.1482 -0.1114  0.2482
15310W        W58248   1.646  22.616  27.199  0.0684  0.1807  0.0182
15311W        W58249   1.660  24.184  31.577  0.1694 -0.2222 -0.0005
15312W        W58250   3.347  22.951  30.090  0.1769 -0.2014 -0.3855
15313W        W58251   3.358  24.757  30.836 -0.2516  0.2202 -0.0303
15314W        W58252   3.852  24.728  28.209 -0.1266 -0.0775  0.0050
15315W        W58253   0.982  22.878  26.978  0.2250 -0.0441  0.1434
15316W        W58254   4.022  25.382  29.052 -0.0543  0.1800  0.0111
15317W        W58255   0.351  25.950  28.304  0.0189 -0.3756 -0.1872
15318W        W58256   0.370  24.778  29.313  0.2259 -0.0697  0.1887
15319W        W58257   1.238  25.061  28.212 -0.0922 -0.0362 -0.0564
15320W        W58258   3.185  24.743  29.869 -0.0719 -0.2025 -0.2056
15321W        W58259   0.658  22.767  29.327  0.0892  0.0441  0.2650
15322W        W58260   2.413  23.417  29.567 -0.2042 -0.2536 -0.1876
15323W        W58261   0.327  23.744  28.869  0.2800 -0.0246 -0.0599
15324W        W58262   1.038  25.959  30.460 -0.1054 -0.0419 -0.0246
15325W        W58263   2.354  22.448  28.911 -0.0798 -0.1330  0.0499
15326W        W58264   3.561  22.027  27.224 -0.1426  0.0537  0.0615
15327W        W58265   4.971  24.806  30.995  0.1180 -0.1527  0.1693
15328W        W58266   4.443  24.829  28.152 -0.1249  0.0982  0.0422
15329W        W58267   3.236  22.875  27.471  0.0677 -0.2900  0.1514
15330W        W58268   3.056  21.955  27.435 -0.1282 -0.1430 -0.0018
15331W        W58269   0.835  23.570  30.388  0.0687 -0.1121 -0.4796
15332W        W58270   2.058  24.182  27.624 -0.2916 -0.0597 -0.3266
15333W        W58271   1.875  24.995  30.099 -0.1897 -0.2525  0.1997
15334W        W58272   2.286  22.498  28.442 -0.0937  0.0236  0.1294
15335W        W58273   4.059  25.208  28.184 -0.1705 -0.1002 -0.1651
15336W        W58274   0.380  24.709  30.263 -0.2856 -0.0496 -0.0453
15337W        W58275   2.363  25.444  30.885 -0.2201 -0.1847  0.0502
15338W        W58276   2.265  23.881  29.353 -0.2474 -0.1862  0.3545
15339W        W58277   1.671  22.228  29.648 -0.1238  0.2166 -0.1819
15340W        W58278   3.042  23.446  28.855  0.1964 -0.3255 -0.0974
15341W        W58279   2.827  22.085  30.112 -0.0525  0.0962 -0.3641
15342W        W58280  33.907  24.528  27.952  0.0079  0.3382 -0.3700
15343W        W58281   3.115  22.408  29.328  0.0364  0.0657 -0.0158
15344W        W58282   2.461  23.003  29.011  0.1741  0.0849 -0.2853
15345W        W58283   3.972  22.966  31.104  0.0746  0.1807 -0.3162
15346W        W58284   3.092  24.527  31.311 -0.2582 -0.0110 -0.1109
15347W        W58285   2.729  23.352  28.091 -0.1255 -0.3460  0.1566
15348W        W58286   3.418  24.982  30.273  0.1639 -0.0600  0.0756
15349W        W58287   0.546  21.507  28.674  0.1267 -0.1152  0.0275
15350W        W58288   1.444  22.875  30.923  0.1135  0.2483 -0.0623
15351W        W58289   0.606  23.920  30.023  0.0175 -0.2622 -0.3284
15352W        W58290   1.565  25.931  30.371 -0.0555  0.1698  0.3742
15353W        W58291   2.411  26.297  31.804 -0.2146  0.3684 -0.4372
15354W        W58292   2.007  25.126  27.662 -0.0610  0.0800  0.0516
15355W        W58293   3.406  23.406  30.339  0.2362 -0.1389 -0.3912
15356W        W58294   2.545  23.366  28.595 -0.2666  0.1454 -0.1537
15357W        W58295   0.805  24.894  27.986  0.1557 -0.2183 -0.1041
15358W        W58296   1.614  24.321  25.210 -0.3641 -0.4848  0.0247
15359W        W58297   1.387  22.230  29.182 -0.0180 -0.0849  0.1011
15360W        W58298   1.349  25.622  28.243  0.1770 -0.0646  0.0088
15361W        W58299   1.161  24.082  26.237  0.0195 -0.2798 -0.1514
15362W        W58300   2.177  25.725  30.418  0.1762  0.1459 -0.0003
15363W        W58301   0.019  24.305  27.291 -0.2288 -0.0325  0.0394
15364W        W58302   2.547  21.978  29.739  0.1528  0.0642  0.3394
15365W        W58303  34.523  24.440  29.092  0.2775  0.1873 -0.0101
15366W        W58304   0.893  23.011  28.505 -0.1076  0.0990 -0.2518
15367W        W58305   1.277  23.455  29.197  0.0833  0.2622  0.2500
15368W        W58306   3.435  23.317  29.114 -0.0039  0.1678 -0.1993
15369W        W58307   4.872  25.125  28.302  0.0923 -0.0525 -0.3343
15370W        W58308   2.147  21.641  30.323  0.1987 -0.1594 -0.0258
15371W        W58309   1.772  21.894  29.093  0.3086 -0.3479 -0.0349
15372W        W58310   0.798  25.593  29.819  0.0073  0.1262  0.3652
15373W        W58311   2.807  24.407  29.982 -0.1315  0.2112 -0.2701
15374W        W58312   3.899  23.866  27.717 -0.3663  0.1067 -0.3043
15375W        W58313   4.061  24.502  29.089 -0.0094  0.2861  0.1241
15376W        W58314   3.339  23.757  30.807  0.2693 -0.0244  0.0120
15377W        W58315   0.089  21.681  26.885  0.1639 -0.1659  0.2778
15378W        W58316   3.263  23.363  31.782 -0.1533  0.2030  0.1554
15379W        W58317   1.749  23.887  28.927  0.0197  0.3139  0.1149
15380W        W58318   0.855  24.584  30.245  0.0154 -0.1500  0.1676
15381W        W58319   1.821  25.299  29.455 -0.1606  0.0156  0.1407
15382W        W58320   1.173  23.884  28.789 -0.1106 -0.1795  0.1073
15383W        W58321   0.914  24.208  29.732  0.3008 -0.0727 -0.0770
15384W        W58322   2.945  22.888  31.231 -0.3322 -0.1427 -0.1226
15385W        W58323   2.131  23.854  30.384  0.1777 -0.1550 -0.1907
15386W        W58324   1.778  24.189  29.472  0.0731 -0.1290  0.1008
15387W        W58325   0.523  22.641  28.844  0.0550 -0.2208 -0.0352
15388W        W58326   2.435  23.803  28.022  0.0873  0.0521  0.3256
15389W        W58327   3.806  23.888  30.930  0.3703 -0.2392  0.1045
15390W        W58328   1.718  23.136  31.355  0.3512  0.1264 -0.1669
15391W        W58329  34.493  25.922  31.437 -0.0644 -0.0350  0.0534
15392W        W58330   2.529  20.629  29.575 -0.2166  0.0868 -0.0152
15393W        W58331   3.197  25.648  28.971 -0.0753  0.0959  0.1774
15394W        W58332   2.576  23.158  29.977  0.1461  0.0270 -0.1185
15395W        W58333   0.824  25.303  27.415 -0.2940 -0.0577 -0.1026
15396W        W58334  34.117  24.492  30.543  0.0497 -0.0648 -0.0890
15397W        W58335   0.834  25.749  28.312  0.2185  0.0353  0.0270
15398W        W58336   1.334  23.136  29.630 -0.3212  0.2678  0.1453
15399W        W58337   0.480  24.276  31.605  0.1195  0.0588  0.0584
15400W        W58338   1.282  23.770  27.351 -0.1568 -0.3058  0.2011
15401W        W58339   1.334  25.087  31.007 -0.2311 -0.1355 -0.0162
15402W        W58340   2.436  23.385  26.796 -0.1528  0.0212  0.0573
15403W        W58341   1.693  24.415  28.095 -0.0374  0.0369  0.3001
15404W        W58342   3.041  23.041  28.413 -0.2456 -0.1666 -0.0699
15405W        W58343   3.851  21.072  30.290  0.3777 -0.0778 -0.1349
15406W        W58344   2.803  23.940  26.452  0.0540 -0.3174 -0.1724
15407W        W58345   2.148  23.111  30.833 -0.1106  0.0209 -0.1675
15408W        W58346   1.603  22.754  29.714 -0.1255 -0.4465  0.0887
15409W        W58347   2.036  24.611  29.396 -0.1469 -0.3423  0.3752
15410W        W58348   0.430  22.777  30.600 -0.0953  0.2308  0.0249
15411W        W58349   1.894  26.442  31.584 -0.0992  0.1107 -0.2219
15412W        W58350   0.635  25.096   0.150 -0.0819  0.1392 -0.1986
15413W        W58351   1.851  23.334  28.872  0.0930  0.0313 -0.1655
15414W        W58352   1.172  23.388  28.675  0.2389 -0.0245  0.2008
15415W        W58353   2.218  23.845  28.630 -0.3361  0.1271 -0.2252
15416W        W58354   3.589  23.422  29.641 -0.2593 -0.0414  0.0319
15417W        W58355   1.068  23.376  28.093 -0.2226 -0.0436  0.2647
15418W        W58356   4.577  23.029  29.284  0.1886 -0.0269  0.1809
15419W        W58357   0.761  24.182  30.516  0.1093  0.0367  0.0507
15420W        W58358   2.990  22.534  30.262  0.0337 -0.1661  0.1560
15421W        W58359   1.595  24.351  28.981  0.1383 -0.0421  0.0238
15422W        W58360   0.802  24.522  29.301  0.1618  0.1117  0.0754
15423W        W58361   1.541  22.416  30.708 -0.1897 -0.3221 -0.0036
15424W        W58362   2.085  24.563  29.905  0.1763 -0.0569  0.2534
15425W        W58363   3.182  22.001  29.708 -0.2830 -0.2139 -0.1379
15426W        W58364   1.590  23.036  29.202  0.2751 -0.0263  0.0290
15427W        W58365   1.700  23.211  30.090 -0.0657  0.4752 -0.1392
15428W        W58366   2.944  23.402  30.417 -0.1321 -0.1241 -0.1135
15429W        W58367   0.678  22.417  30.850  0.2403  0.0490  0.3204
15430W        W58368   2.011  26.245  31.178 -0.2660  0.4062 -0.2929
15431W        W58369   3.208  22.364  27.108  0.5140  0.0843  0.0233
15432W        W58370   2.559  22.764  30.895 -0.1579 -0.1091  0.1491
15433W        W58371   3.216  23.554  28.200  0.5028 -0.0488  0.2997
15434W        W58372   3.440  24.084  27.891 -0.0587  0.0752  0.0067
15435W        W58373   0.975  22.496  28.971 -0.1275 -0.1140 -0.4871
15436W        W58374   2.813  23.747  30.758 -0.1139 -0.2711  0.0833
15437W        W58375   1.601  23.081  28.423  0.2419 -0.0266 -0.1750
15438W        W58376   3.811  23.065  29.997  0.0327 -0.1554 -0.0876
15439W        W58377   1.932  24.154  26.798  0.0852  0.0626 -0.2105
15440W        W58378   2.231  25.015  29.643  0.0093 -0.0001  0.2904
15441W        W58379   2.573  23.514  29.151  0.1375  0.2154  0.1823
15442W        W58380   1.070  21.717  30.451 -0.0265  0.0812  0.1915
15443W        W58381   1.549  25.485  31.164  0.1489 -0.0409  0.1305
15444W        W58382  34.262  22.430  27.880 -0.3002  0.0022 -0.0842
15445W        W58383   1.014  23.702  26.745 -0.0372 -0.0678 -0.0066
15446W        W58384   2.121  25.307  28.765  0.1669 -0.4748 -0.0896
15447W        W58385   4.137  22.726  31.954  0.0305  0.1139  0.0916
15448W        W58386   1.555  20.273  27.862 -0.0058 -0.3801  0.0987
15449W        W58387   3.370  20.671  31.071 -0.2096 -0.0851  0.2232
15450W        W58388   0.161  24.928  29.786 -0.1364 -0.0223 -0.0194
15451W        W58389   1.849  23.634  29.329 -0.0699  0.2372 -0.0921
15452W        W58390   2.231  26.995  29.760 -0.2071  0.1096  0.2327
15453W        W58391  34.030  24.522  29.262  0.0141 -0.0054 -0.0767
15454W        W58392   1.822  24.834  28.291 -0.0425 -0.2752  0.1415
15455W        W58393   0.343  23.106  29.725  0.2050  0.1014  0.0764
15456W        W58394   2.805  25.565  29.454  0.1070 -0.0805 -0.4571
15457W        W58395   3.119  24.306  28.730  0.0608  0.2805  0.1246
15458W        W58396   3.984  22.603  29.241 -0.2397  0.3727  0.1626
15459W        W58397   3.010  25.140  31.173  0.0019 -0.0500 -0.1297
15460W        W58398   1.512  24.146  28.499 -0.1994  0.2087 -0.1759
15461W        W58399   3.126  25.160  30.648  0.1594  0.1322 -0.0246
15462W        W58400   3.587  24.299  28.351 -0.2999 -0.0738  0.0301
15463W        W58401   0.609  25.136  30.066 -0.1345 -0.1179 -0.1838
15464W        W58402   0.294  22.408  31.313 -0.2706 -0.1598 -0.3288
15465W        W58403   2.477  24.749  30.175 -0.0308 -0.1570  0.2040
15466W        W58404   2.081  26.216  29.077  0.1390  0.3789  0.0111
15467W        W58405   1.031  21.324  29.627 -0.1279  0.1257 -0.3611
15468W        W58406   1.096  24.664  26.610  0.2940 -0.2756  0.0256
15469W        W58407   0.016  26.909  30.667 -0.2354  0.2218 -0.0626
15470W        W58408   0.388  25.624  30.249 -0.0992 -0.0280  0.3107
15471W        W58409   0.841  26.246  28.190 -0.0042  0.0750  0.1175
15472W        W58410   1.306  24.129  26.969  0.2020  0.1682 -0.0290
15473W        W58411   3.697  24.214  28.873 -0.0877  0.0986 -0.4986
15474W        W58412   1.425  25.752  29.429  0.0585  0.0723  0.0837
15475W        W58413   1.408  22.210  28.612  0.1224 -0.0279  0.3209
15476W        W58414   1.195  25.334  27.732  0.0163 -0.2515 -0.2402
15477W        W58415  34.199  23.999  29.361  0.1311  0.0709  0.2312
15478W        W58416   3.393  24.894  27.488  0.0692 -0.0796 -0.1072
15479W        W58417   1.682  24.420  30.708  0.0723 -0.1604 -0.0116
15480W        W58418   4.593  25.277  30.905  0.1708  0.1659 -0.0075
15481W        W58419   3.435  21.605  27.808  0.2525 -0.0427 -0.1353
15482W        W58420   3.867  23.576  30.135  0.2124 -0.0958  0.1248
15483W        W58421   2.943  22.384  27.707 -0.0301  0.1836  0.0146
15484W        W58422   3.156  24.863   0.700  0.0154  0.0853 -0.2692
15485W        W58423   2.739  23.785  29.583  0.2237  0.0256 -0.0792
15486W        W58424   1.019  23.613  26.000  0.2767 -0.0410  0.2750
15487W        W58425   2.427  23.452  30.552  0.1805  0.0713 -0.3658
15488W        W58426   3.727  22.550  30.267 -0.1616 -0.2130 -0.4460
15489W        W58427  34.255  26.506  31.574 -0.0543 -0.0565  0.2094
15490W        W58428   2.642  25.324  28.777  0.0223 -0.0152 -0.1044
15491W        W58429   0.508  23.203  28.167 -0.0420  0.1423 -0.1678
15492W        W58430   1.023  24.163  28.194  0.1775 -0.3891  0.2238
15493W        W58431   3.636  21.868  30.606  0.2463  0.2549 -0.0223
15494W        W58432   2.360  24.913  27.175  0.2431  0.1107 -0.0809
15495W        W58433   3.732  24.775  28.774  0.0023 -0.0009  0.5141
15496W        W58434   0.171  24.225  30.104 -0.1708  0.2196 -0.1796
15497W        W58435   1.631  23.923  27.775 -0.1021 -0.2716 -0.0045
15498W        W58436   1.666  25.444  30.126 -0.0274  0.1405 -0.0659
15499W        W58437  34.174  21.006  28.023 -0.0609 -0.0965  0.0794
15500W        W58438   4.448  22.647  29.575 -0.0283  0.0969  0.2429
15501W        W58439   1.855  23.615  31.737  0.1663 -0.0531  0.0819
15502W        W58440   3.070  20.130  31.412  0.0121  0.0634  0.0209
15503W        W58441   0.043  23.528  28.476  0.1039 -0.0463  0.2349
15504W        W58442   2.656  24.586  28.868  0.0596  0.3395  0.2825
15505W        W58443   2.152  22.993  30.289 -0.1292  0.1530  0.2178
15506W        W58444   1.256  23.244  30.502  0.1907 -0.2305  0.1908
15507W        W58445   1.709  22.459  27.738 -0.3963 -0.2715 -0.2777
15508W        W58446   3.028  24.621  29.392  0.3028  0.0425 -0.2715
15509W        W58447   1.605  23.337  27.977 -0.1064 -0.0748  0.1615
15510W        W58448   3.554  26.229  31.950 -0.0312 -0.0562  0.2360
15511W        W58449   0.402  22.806  27.855  0.1262  0.5149 -0.0349
15512W        W58450   2.227  22.567  27.895 -0.4375  0.0121 -0.1768
15513W        W58451   0.679  24.148  28.630 -0.1741  0.1952 -0.1368
15514W        W58452   2.193  23.476  30.100 -0.1631  0.2478 -0.0924
15515W        W58453   4.874  25.743   0.303 -0.0200 -0.1453  0.1028
15516W        W58454   0.351  22.293  27.618  0.0273 -0.2349 -0.0694
15517W        W58455   2.374  24.761  26.674 -0.4872 -0.0612  0.0284
15518W        W58456   4.061  23.681  29.546  0.0045  0.2200 -0.1655
15519W        W58457   1.562  27.020  27.627  0.1833 -0.4361  0.0531
15520W        W58458   3.282  22.894  29.585  0.0735 -0.1464 -0.3448
15521W        W58459   1.493  27.384  29.376 -0.1088 -0.2064 -0.2784
15522W        W58460   0.483  23.640  29.431  0.0567 -0.0862  0.0967
15523W        W58461   3.063  26.125  31.069 -0.0245  0.0758 -0.0682
15524W        W58462   2.654  25.510  30.529 -0.2307 -0.1037  0.0824
15525W        W58463   0.001  22.600  28.086 -0.0716  0.1128  0.1395
15526W        W58464   1.522  24.797  29.165  0.1247  0.3730 -0.0686
15527W        W58465   1.612  23.699  30.209 -0.1583  0.0067 -0.0811
15528W        W58466   3.545  22.953  30.615 -0.1013 -0.1143  0.2705
15529W        W58467   3.407  22.122  30.225  0.0499  0.0843 -0.0211
15530W        W58468   1.667  25.557  27.687 -0.3090  0.0202  0.1137
15531W        W58469   4.020  21.996  30.171  0.0291 -0.1013 -0.1960
15532W        W58470   1.322  25.469  30.466  0.1100 -0.2107 -0.6011
15533W        W58471   0.924  24.519  31.395  0.1331  0.2659 -0.0793
15534W        W58472  34.428  23.078  28.413  0.0123  0.1023 -0.0029
15535W        W58473   3.479  23.828  29.974 -0.1591 -0.2366  0.0460
15536W        W58474   3.480  25.195  28.980 -0.1904 -0.0182  0.4338
15537W        W58475   1.584  24.888  27.834 -0.0648 -0.0078 -0.1115
15538W        W58476   2.355  25.286  30.227 -0.3938  0.1375  0.0666
15539W        W58477   2.102  22.571  26.941 -0.0078 -0.0737 -0.3467
15540W        W58478   3.325  25.016  29.390  0.1855 -0.3881 -0.0644
15541W        W58479   0.786  23.522  29.049  0.1147  0.2485  0.1955
15542W        W58480   3.355  22.478  29.872  0.1495  0.1650  0.0822
15543W        W58481   2.976  23.278  27.635  0.4324 -0.1079  0.0425
15544W        W58482   1.273  24.329  30.467 -0.1914  0.0082  0.2877
15545W        W58483   0.152  23.767  26.574 -0.3457  0.4288 -0.0643
15546W        W58484  34.528  23.690  28.018  0.0781 -0.0147 -0.2900
15547W        W58485   1.076  25.411  29.291 -0.4030  0.0396 -0.6324
15548W        W58486   3.382  22.058  31.050 -0.0610  0.0541  0.3829
15549W        W58487   2.853  23.509  31.518 -0.3670 -0.1062  0.2721
15550W        W58488  34.531  23.800  30.193 -0.0237  0.1329  0.0021
15551W        W58489   0.362  22.117  28.664  0.2813 -0.2020 -0.1900
15552W        W58490   2.603  24.214  27.799 -0.1621  0.0562  0.0965
15553W        W58491   0.728  23.370  29.937 -0.2649  0.1824  0.1851
15554W        W58492  34.390  22.321  28.940 -0.3539 -0.2833  0.0937
15555W        W58493   3.431  24.369  29.630 -0.2007 -0.1372 -0.1937
15556W        W58494   4.634  24.751  28.819  0.4260 -0.0185  0.0095
15557W        W58495   2.577  22.340  29.401 -0.0703 -0.0437 -0.1065
15558W        W58496   5.154  24.981  29.727 -0.0408 -0.0398  0.0680
15559W        W58497  34.422  24.458  28.017  0.1834  0.3725  0.1612
15560W        W58498   2.124  24.503  30.497  0.1864 -0.0642  0.0659
15561W        W58499   2.018  22.607  30.797 -0.0724  0.3338  0.1619
15562W        W58500   0.161  22.492  27.156  0.1144 -0.3304  0.1646
15563W        W58501   0.985  23.689  29.655  0.2268  0.1260 -0.1372
15564W        W58502   2.310  24.881  29.101 -0.1023  0.3216  0.0389
15565W        W58503   1.991  25.069  26.357  0.3214  0.0966  0.2560
15566W        W58504   1.781  25.541  31.628 -0.0603 -0.1794 -0.1275
15567W        W58505   1.824  24.873  31.020  0.1451  0.0243 -0.0207
15568W        W58506   0.243  20.200  30.758  0.1932  0.0234 -0.0534
15569W        W58507   2.875  23.876  28.454 -0.1325 -0.2241 -0.0177
15570W        W58508   2.086  25.060  30.571  0.0666  0.3150  0.1940
15571W        W58509   4.687  23.394  26.428  0.0276 -0.0013 -0.1172
15572W        W58510   4.099  23.387  30.615 -0.0106  0.3784  0.1530
15573W        W58511   2.261  23.795  27.251 -0.1712  0.0912 -0.1083
15574W        W58512   2.897  22.637  29.768  0.0645 -0.0302  0.1966
15575W        W58513   2.376  24.601  30.887 -0.0586 -0.1673  0.1286
15576W        W58514   4.437  25.486  31.329  0.4814 -0.4698  0.0498
15577W        W58515   1.233  23.398  30.032 -0.1603  0.0885  0.1708
15578W        W58516   3.072  22.063  28.449  0.4081  0.2276 -0.0728
15579W        W58517   2.649  23.702  27.546 -0.1683  0.3957  0.1301
15580W        W58518   1.125  24.525  30.899  0.2743 -0.1510  0.2347
15581W        W58519   2.697  22.185  27.155 -0.1738  0.1281  0.1742
15582W        W58520   2.014  23.934  29.862  0.3014  0.0320 -0.4117
15583W        W58521   3.157  25.266  29.838 -0.2950  0.0891  0.1993
15584W        W58522   1.616  25.971  31.328 -0.0064  0.1257 -0.1185
15585W        W58523   1.271  24.496  29.521 -0.2402 -0.0037  0.2200
15586W        W58524   4.228  24.696  27.215 -0.1133  0.2407 -0.0501
15587W        W58525   3.382  25.507  29.525 -0.0805  0.1149 -0.2441
15588W        W58526   3.266  26.677   0.821  0.2008  0.1646  0.0167
15589W        W58527   2.533  25.985  30.284  0.2037 -0.2615 -0.3748
15590W        W58528   3.710  25.184  29.837  0.0340  0.1001 -0.1360
15591W        W58529   0.259  22.038  29.568 -0.0468  0.0542 -0.1284
15592W        W58530   0.601  24.646  28.824  0.2011  0.0331  0.1703
15593W        W58531   3.140  24.170  29.229 -0.1197 -0.1773  0.0861
15594W        W58532   3.704  23.156  31.538 -0.0627  0.1542  0.2410
15595W        W58533   1.465  22.898  27.777  0.4824 -0.1270  0.0069
15596W        W58534   3.241  22.594  28.124  0.4862  0.2644 -0.1039
15597W        W58535   0.772  25.903  30.864 -0.2517  0.0283 -0.1813
15598W        W58536   2.871  25.023  30.234  0.4565 -0.0162  0.2249
15599W        W58537   3.485  23.321   0.270 -0.1935 -0.1209  0.0326
15600W        W58538   3.278  24.318  30.113 -0.0525  0.0793  0.2227
15601W        W58539   2.188  24.456  31.756 -0.0062  0.2716 -0.1539
15602W        W58540   0.920  25.611   0.898 -0.1772  0.2691  0.1559
15603W        W58541   3.960  26.708   0.356 -0.0552 -0.0776 -0.1040
15604W        W58542  34.493  26.247   0.065  0.0428  0.3852 -0.0148
15605W        W58543   4.857  25.244  31.332  0.1356 -0.1465 -0.0045
15606W        W58544   3.166  22.484   0.789 -0.1231 -0.0607  0.1492
15607W        W58545   3.451  26.062  30.756  0.0318 -0.0447 -0.3141
15608W        W58546   4.412  24.952   0.919 -0.2917 -0.0037 -0.0489
15609W        W58547   3.777  24.572  30.550  0.2099 -0.2754 -0.3621
15610W        W58548   1.922  21.563  30.774 -0.0080  0.1488  0.1685
15611W        W58549   1.402  25.329  31.942  0.1073 -0.2147  0.0548
15612W        W58550   2.055  22.963  29.757 -0.1714  0.1633  0.1732
15613W        W58551   3.251  22.860  31.593 -0.2038  0.2776  0.3283
15614W        W58552   2.781  25.310   0.100  0.1028  0.0408 -0.0007
15615W        W58553   0.386  24.139   0.117  0.2779  0.0529 -0.1029
15616W        W58554   2.632  24.326  30.532 -0.0221  0.0814 -0.2288
15617W        W58555   0.741  22.389  30.335 -0.0055  0.2233  0.0516
15618W        W58556   1.359  22.482  31.538  0.0641  0.0154  0.4162
15619W        W58557   1.914  21.718  31.979  0.2391 -0.2909 -0.4559
15620W        W58558  34.606  24.684   0.659 -0.0124 -0.0023 -0.2537
15621W        W58559   2.645  24.205  31.063 -0.2133 -0.0388 -0.2526
15622W        W58560   3.135  21.919  31.495  0.3322  0.2138  0.0462
15623W        W58561   3.131  22.389  31.698 -0.1588  0.0347  0.0482
15624W        W58562   2.513  22.009  31.455  0.0107  0.2642 -0.0302
15625W        W58563   3.079  22.989   0.126  0.1453  0.0536 -0.0333
15626W        W58564  34.047  25.678  31.571 -0.2210  0.1076 -0.6002
15627W        W58565   0.494  23.654  30.946 -0.0524 -0.3359  0.2098
15628W        W58566   0.731  25.515  31.304 -0.2865  0.0527  0.1126
15629W        W58567   1.797  25.402  30.723  0.1710 -0.2496  0.2496
15630W        W58568   1.714  24.247   0.158  0.2132 -0.1553  0.2587
15631W        W58569   4.218  25.284   0.571  0.0360 -0.1261 -0.0386
15632W        W58570   3.266  24.163  31.555  0.2071  0.1610 -0.0991
15633W        W58571   0.826  21.940  29.979 -0.1086  0.1176 -0.0497
15634W        W58572   1.437  24.649  31.264  0.2983  0.1382  0.4112
15635W        W58573   1.092  24.888  31.845  0.0129 -0.0103  0.1409
15636W        W58574   2.571  25.037  30.636 -0.1806  0.1961 -0.1536
15637W        W58575   3.473  25.029  31.280  0.0056  0.0922 -0.2226
15638W        W58576   1.817  24.196  30.287 -0.2306 -0.1122  0.2762
15639W        W58577   2.789  23.391   0.006  0.0647  0.1193 -0.3392
15640W        W58578   2.690  24.012  31.585  0.1389 -0.0056  0.0067
15641W        W58579   2.143  22.117  29.352 -0.2768  0.2427 -0.3940
15642W        W58580   1.330  25.164   0.637  0.4116 -0.1448  0.0839
15643W        W58581   1.202  23.143  31.321  0.1594  0.1579 -0.1815
15644W        W58582   2.206  24.020  31.363 -0.3003  0.0338  0.0723
15645W        W58583   2.793  22.665   0.465 -0.0165  0.3373 -0.2181
15646W        W58584   0.150  25.763  31.846  0.0152 -0.0778 -0.2066
15647W        W58585   2.317  25.628  31.388  0.0423 -0.0380 -0.1463
15648W        W58586  32.892  23.181  31.775 -0.4495  0.1468  0.1999
15649W        W58587   1.674  26.273  30.785 -0.0485  0.0275  0.2989
15650W        W58588   2.418  20.670  31.929 -0.1854  0.2808  0.2978
15651W        W58589   2.581  22.991  31.665  0.0861 -0.3450 -0.2322
15652W        W58590   3.463  23.618  31.395  0.2034  0.0175 -0.2182
15653W        W58591   2.356  23.495  31.543 -0.1827  0.1158  0.1478
15654W        W58592   3.259  22.540   0.188 -0.0805  0.2235 -0.0439
15655W        W58593   4.530  24.359  31.550 -0.1106 -0.1652 -0.0854
15656W        W58594   1.116  26.343  30.871  0.1643  0.0257 -0.0290
15657W        W58595   3.103  25.353   0.498  0.0954  0.0850 -0.2048
15658W        W58596   2.287  23.918  31.913 -0.1166 -0.2604 -0.1257
15659W        W58597  33.970  24.038  30.793 -0.1344  0.0323 -0.0345
15660W        W58598   1.396  25.703   0.619 -0.1031 -0.2130  0.1708
15661W        W58599   1.081  23.613  31.106  0.1031 -0.4923  0.0898
15662W        W58600   0.534  23.254  31.274 -0.5322 -0.1621 -0.0923
15663W        W58601   2.880  26.556   0.556 -0.2951 -0.0877  0.0010
15664W        W58602   4.562  23.836  31.414  0.1658 -0.2212 -0.1283
15665W        W58603   3.724  24.456  31.494 -0.2554 -0.0253  0.0410
15666W        W58604   0.582  27.512  18.804  0.2258  0.0293 -0.1714
15667W        W58605   0.389  26.592  16.402 -0.1189  0.1246 -0.0596
15668W        W58606   4.285  26.053  15.819  0.1712  0.2260  0.1498
15669W        W58607   2.086  26.204  17.078 -0.0437  0.0689 -0.1127
15670W        W58608  34.186  26.812  17.280 -0.4608  0.0932  0.0338
15671W        W58609   1.517  27.730  17.937 -0.0505 -0.0760 -0.2329
15672W        W58610   1.075  25.701  19.666  0.3126  0.1391  0.2783
15673W        W58611   2.485  27.860  18.710 -0.0234 -0.5144 -0.1158
15674W        W58612   3.397  28.547  20.040 -0.0266 -0.0028 -0.1490
15675W        W58613   2.053  28.474  15.753  0.2455  0.2659  0.0484
15676W        W58614   2.349  26.920  16.519 -0.1483  0.1339  0.0490
15677W        W58615   1.063  30.054  19.513 -0.0768  0.1922  0.3990
15678W        W58616   1.518  26.621  15.765 -0.4934 -0.0501 -0.0930
15679W        W58617   0.740  26.056  17.073  0.0700  0.1984 -0.1673
15680W        W58618   0.555  27.808  19.178 -0.0646  0.2561  0.0443
15681W        W58619  33.793  27.750  16.321 -0.2145  0.0624 -0.1606
15682W        W58620   0.313  26.645  19.983 -0.1874 -0.1026  0.1388
15683W        W58621   0.958  26.447  17.021 -0.1292 -0.1448 -0.1610
15684W        W58622   2.209  30.107  17.481  0.0940 -0.1585 -0.0571
15685W        W58623   2.080  24.979  19.057 -0.1859 -0.2706 -0.1177
15686W        W58624   2.310  26.395  19.084 -0.3571  0.0624 -0.1549
15687W        W58625   2.877  28.164  17.003 -0.1175  0.0415  0.1227
15688W        W58626  33.581  26.770  15.997 -0.1294  0.0352  0.1150
15689W        W58627   1.003  25.704  16.656  0.2652 -0.1883  0.2146
15690W        W58628   1.438  26.555  18.787 -0.2732  0.0394  0.0422
15691W        W58629   2.608  25.623  18.485  0.3009  0.0200 -0.1065
15692W        W58630   1.930  26.234  18.114  0.1174 -0.1336 -0.3934
15693W        W58631   1.828  28.285  17.764 -0.1725  0.2714  0.0494
15694W        W58632   1.561  28.084  18.514 -0.0291 -0.2051  0.2617
15695W        W58633   4.062  25.186  19.408 -0.2291 -0.0009  0.1389
15696W        W58634  34.465  27.376  17.396 -0.3216  0.0279 -0.0148
15697W        W58635   0.517  28.944  17.928  0.2961 -0.1115 -0.0698
15698W        W58636   1.190  27.294  17.503  0.2935 -0.2121 -0.0905
15699W        W58637   3.292  27.712  17.440  0.1906 -0.4136 -0.2806
15700W        W58638   3.875  29.016  19.466 -0.2186 -0.0337  0.0219
15701W        W58639   0.634  29.578  20.548  0.1088 -0.1436  0.2357
15702W        W58640   0.314  26.666  15.910 -0.2628 -0.0102 -0.0740
15703W        W58641   1.455  27.814  19.742  0.0309 -0.2036 -0.0944
15704W        W58642   0.742  28.496  19.674  0.0163  0.1735  0.1273
15705W        W58643   1.713  26.850  19.272 -0.2151  0.1594  0.2582
15706W        W58644   0.715  27.308  19.319  0.0599 -0.2503  0.1951
15707W        W58645   0.468  26.863  15.472  0.0561 -0.3528 -0.0760
15708W        W58646   0.160  28.641  16.961  0.0977 -0.0591 -0.0541
15709W        W58647   0.630  28.237  20.965  0.2742 -0.1470  0.1218
15710W        W58648   2.337  27.928  17.995  0.1277 -0.4464  0.0944
15711W        W58649   4.052  25.189  19.998  0.2062 -0.5063 -0.1176
15712W        W58650   1.179  28.975  16.448 -0.1295 -0.2628 -0.0357
15713W        W58651   2.240  26.430  16.549 -0.1469 -0.1365  0.1842
15714W        W58652   2.255  25.258  17.192  0.0981 -0.0055 -0.1561
15715W        W58653   1.199  24.231  18.484  0.0326  0.0584 -0.0736
15716W        W58654   2.035  24.914  17.484  0.3824  0.1778  0.1649
15717W        W58655   0.937  29.969  18.687  0.0013 -0.0006  0.1103
15718W        W58656   0.695  27.313  17.762  0.0254 -0.0807 -0.0018
15719W        W58657   3.924  29.344  19.048 -0.0499  0.0160  0.2269
15720W        W58658  34.417  27.717  16.994 -0.0063 -0.0723 -0.1294
15721W        W58659   3.041  26.236  19.628  0.1112 -0.1078  0.2683
15722W        W58660   1.725  28.838  18.445  0.1495 -0.1736  0.1144
15723W        W58661   0.727  26.923  18.186  0.2811 -0.2499  0.3395
15724W        W58662   2.618  27.328  16.732 -0.1165 -0.3432 -0.1778
15725W        W58663   3.282  28.223  18.259  0.0784  0.1446  0.1023
15726W        W58664   1.993  27.706  16.920  0.0053 -0.0767  0.0807
15727W        W58665  34.391  26.146  16.980  0.2425 -0.0566  0.3273
15728W        W58666   0.015  28.258  19.356  0.0992  0.0497  0.0627
15729W        W58667  34.532  25.803  19.419  0.3657  0.0206  0.1290
15730W        W58668   1.393  25.687  17.434 -0.0298  0.0653 -0.1063
15731W        W58669   3.040  28.112  19.996  0.0785 -0.1415 -0.1300
15732W        W58670   0.397  29.035  18.480 -0.0856  0.1568  0.1110
15733W        W58671   3.556  25.126  17.377  0.0975  0.0732  0.0790
15734W        W58672   2.018  27.368  18.623  0.0983 -0.1644 -0.1876
15735W        W58673   2.531  28.353  18.306 -0.0623 -0.3576 -0.0111
15736W        W58674   2.065  27.243  17.250 -0.2568  0.0881 -0.3008
15737W        W58675   2.527  24.739  18.835 -0.2126  0.2384 -0.0162
15738W        W58676   3.026  25.311  19.998 -0.3200 -0.1626  0.2949
15739W        W58677  34.424  26.775  16.002 -0.1692  0.0063  0.3108
15740W        W58678   1.526  28.004  16.279  0.4714 -0.1355 -0.2325
15741W        W58679   3.769  27.609  17.444 -0.1574  0.2479  0.0194
15742W        W58680   3.380  27.195  16.712 -0.3477 -0.0949  0.0693
15743W        W58681  34.530  29.336  18.251  0.1919 -0.0701  0.0646
15744W        W58682  34.238  27.611  19.680  0.1876 -0.1354  0.4153
15745W        W58683   1.708  28.662  19.612 -0.0433 -0.2294 -0.1375
15746W        W58684  34.580  28.994  16.707 -0.0491  0.0579 -0.0704
15747W        W58685   1.060  27.906  16.477  0.0547  0.0494 -0.3844
15748W        W58686   0.657  26.909  16.176 -0.2492 -0.2564 -0.2224
15749W        W58687  34.317  25.764  17.840 -0.3178 -0.0022 -0.4148
15750W        W58688   0.427  28.537  19.240  0.1288  0.0704 -0.2656
15751W        W58689   4.998  27.050  17.475  0.1302  0.1850 -0.0243
15752W        W58690   1.258  25.962  19.043 -0.3829 -0.0109 -0.2736
15753W        W58691   3.396  26.112  16.772 -0.3265 -0.0268 -0.3949
15754W        W58692   1.247  26.570  17.449 -0.0417 -0.4200 -0.2760
15755W        W58693   2.533  29.158  16.383 -0.1324 -0.0726 -0.1017
15756W        W58694   4.312  26.951  16.616 -0.0774  0.0284  0.2655
15757W        W58695   2.975  28.422  16.576 -0.1326  0.2413 -0.2040
15758W        W58696   0.592  26.960  18.698  0.1422 -0.2105 -0.2611
15759W        W58697   1.371  25.965  17.975 -0.0025 -0.0836 -0.3362
15760W        W58698   2.198  26.702  19.472 -0.0116 -0.4059  0.2166
15761W        W58699   1.407  26.344  18.281  0.0648 -0.0418 -0.3417
15762W        W58700   3.593  28.233  18.677 -0.0233  0.1290 -0.0900
15763W        W58701   0.490  25.211  17.427 -0.0453 -0.3249 -0.0098
15764W        W58702   3.103  26.833  17.222 -0.4589  0.0918  0.0264
15765W        W58703   1.486  27.417  16.787  0.1291 -0.0151 -0.1571
15766W        W58704   0.046  27.835  17.297 -0.2056 -0.0509 -0.3203
15767W        W58705   2.502  25.330  18.969  0.2368 -0.1071  0.1760
15768W        W58706   1.523  27.941  16.827 -0.1901  0.1035  0.3199
15769W        W58707   2.056  29.791  18.250  0.3679 -0.1485 -0.0704
15770W        W58708   2.986  28.973  16.446 -0.0432  0.0183  0.1336
15771W        W58709   1.648  25.255  18.797  0.0654  0.1296 -0.1405
15772W        W58710   0.924  26.536  16.436  0.2446  0.3884 -0.1565
15773W        W58711   1.392  30.877  19.713  0.0376  0.2651  0.2828
15774W        W58712   2.322  27.009  17.635  0.1810  0.2654 -0.2218
15775W        W58713   1.681  25.953  16.284  0.1188 -0.3123 -0.0055
15776W        W58714   4.354  28.833  18.107 -0.1108  0.0243 -0.1570
15777W        W58715   1.053  27.354  16.952 -0.0432  0.0917 -0.3420
15778W        W58716   0.183  28.750  18.868  0.0453  0.1161  0.0751
15779W        W58717   3.504  27.069  18.669  0.0950  0.0798 -0.1220
15780W        W58718   3.112  28.378  17.493 -0.0231  0.0394 -0.3654
15781W        W58719   3.037  26.694  17.893 -0.2509 -0.2563  0.1909
15782W        W58720  34.687  26.311  16.173  0.0023  0.0502 -0.2056
15783W        W58721   3.947  28.988  18.417 -0.2637 -0.2268  0.1112
15784W        W58722  34.013  26.822  16.301  0.0147  0.0822 -0.2819
15785W        W58723   0.244  26.267  18.233 -0.0170  0.4258 -0.1397
15786W        W58724   1.322  26.147  16.605  0.2796 -0.3902 -0.0695
15787W        W58725   2.809  26.370  18.296  0.3494  0.1666 -0.0968
15788W        W58726  33.367  28.148  19.801 -0.2551  0.1832  0.1491
15789W        W58727   2.433  26.736  20.775  0.1930  0.0975  0.0617
15790W        W58728  34.231  27.628  16.536  0.0832  0.2331  0.4680
15791W        W58729   0.209  29.661  19.727 -0.0914  0.0240  0.1072
15792W        W58730   2.625  25.314  17.494  0.0153 -0.2800  0.0006
15793W        W58731   3.414  25.796  17.600 -0.1364 -0.0440  0.2318
15794W        W58732   2.400  28.180  19.635  0.0533 -0.2088 -0.2713
15795W        W58733   2.633  28.029  17.422  0.2189  0.0444  0.0492
15796W        W58734   2.976  25.748  16.976 -0.3157  0.0201  0.0862
15797W        W58735   2.341  25.342  16.646 -0.3787 -0.0002 -0.2150
15798W        W58736   0.448  28.104  19.586  0.0222  0.1090 -0.0008
15799W        W58737   2.504  27.493  18.390  0.0531  0.3057 -0.2815
15800W        W58738  34.285  28.587  19.741 -0.1051 -0.0605 -0.0758
15801W        W58739   2.482  25.716  17.149  0.1202  0.0547 -0.1981
15802W        W58740   4.086  27.667  16.751  0.0735 -0.0244  0.0217
15803W        W58741  34.584  28.836  18.422  0.0530 -0.1511  0.2480
15804W        W58742   2.976  27.178  19.885  0.0610 -0.1310  0.0931
15805W        W58743   2.330  28.348  17.727 -0.0225  0.5967  0.1736
15806W        W58744   0.905  25.666  17.669  0.0214  0.1684 -0.0968
15807W        W58745   1.407  26.432  16.197  0.1093  0.0193  0.1086
15808W        W58746  34.614  27.089  18.316  0.1331 -0.0394  0.2479
15809W        W58747  33.038  28.042  18.019  0.2715 -0.0571  0.0422
15810W        W58748   3.502  25.769  18.195 -0.1882  0.3052 -0.1449
15811W        W58749   3.532  25.242  20.043  0.2037 -0.2658 -0.0110
15812W        W58750   0.820  26.466  18.436  0.0456 -0.1502 -0.0223
15813W        W58751   4.190  26.164  18.404  0.3106 -0.2731  0.0055
15814W        W58752   3.355  26.681  16.790  0.1458  0.0448 -0.0279
15815W        W58753   2.164  25.502  17.617 -0.2690 -0.3698  0.1087
15816W        W58754  34.149  28.067  16.696  0.1244 -0.0156  0.2837
15817W        W58755   3.187  26.178  18.641  0.4875 -0.0452 -0.0205
15818W        W58756   0.704  28.579  18.722  0.0692  0.3123 -0.0396
15819W        W58757   0.656  29.053  18.950  0.0637 -0.1217 -0.0205
15820W        W58758   1.941  29.236  20.310 -0.1995 -0.0620  0.2108
15821W        W58759   2.434  27.040  18.162  0.0814  0.2864  0.0963
15822W        W58760   1.012  26.158  19.422 -0.3866 -0.2050 -0.3352
15823W        W58761   1.294  25.428  18.049  0.0475 -0.0043  0.0267
15824W        W58762   1.788  28.947  17.267  0.1544 -0.0670 -0.0606
15825W        W58763   1.809  26.267  16.663 -0.0698  0.0494  0.1561
15826W        W58764   1.091  24.677  16.661  0.1588  0.0334  0.2814
15827W        W58765   0.114  29.379  20.670 -0.1924  0.1240  0.0811
15828W        W58766   1.620  28.714  16.709  0.1062  0.0657  0.2522
15829W        W58767   0.998  28.683  19.117  0.1542 -0.2157  0.0374
15830W        W58768   0.126  28.046  16.169 -0.1043  0.0445  0.0326
15831W        W58769   2.886  25.898  18.216 -0.3328  0.1792  0.4001
15832W        W58770  34.398  29.182  17.173 -0.1659  0.1444 -0.3382
15833W        W58771   0.436  27.363  16.413 -0.1171 -0.1656  0.0641
15834W        W58772   0.250  27.426  16.996 -0.0058  0.2864 -0.0526
15835W        W58773   2.600  26.143  17.341  0.0472 -0.1599 -0.0046
15836W        W58774   1.126  26.041  18.517 -0.2203  0.1899  0.0646
15837W        W58775  34.371  25.749  18.908 -0.1112 -0.1932 -0.0618
15838W        W58776   2.176  26.542  17.497 -0.1134 -0.1272 -0.2557
15839W        W58777  34.148  30.699  17.693  0.2253 -0.2673 -0.0472
15840W        W58778   0.811  28.196  19.145  0.0085 -0.0098  0.0396
15841W        W58779   3.214  25.231  16.695 -0.2288  0.1842 -0.3195
15842W        W58780   3.603  28.607  17.514  0.3153  0.1223  0.1414
15843W        W58781   0.298  28.451  20.677 -0.1145 -0.0753 -0.1993
15844W        W58782   0.131  27.085  16.179  0.1459 -0.0205 -0.0380
15845W        W58783   3.294  26.624  18.508 -0.1244 -0.1029  0.3542
15846W        W58784  34.044  25.318  18.017 -0.0720 -0.2849  0.3312
15847W        W58785  34.681  28.212  16.982  0.0295 -0.0651 -0.0797
15848W        W58786   2.090  28.867  18.796 -0.0831 -0.1313 -0.0180
15849W        W58787   0.122  27.853  16.626 -0.0464 -0.0090  0.1507
15850W        W58788   0.844  26.837  17.697 -0.1444 -0.1188 -0.1193
15851W        W58789   2.398  27.610  19.590 -0.2197  0.0632 -0.2857
15852W        W58790   2.407  28.722  19.210  0.0827 -0.2815 -0.2397
15853W        W58791   1.235  25.999  17.056  0.1424  0.0795  0.2290
15854W        W58792   1.411  25.228  16.506  0.0995 -0.0279  0.0091
15855W        W58793  34.290  27.111  16.858  0.0121 -0.0231 -0.1990
15856W        W58794   3.319  27.736  18.125 -0.2343  0.0907 -0.3187
15857W        W58795   3.062  27.342  18.552 -0.3232  0.0070 -0.2007
15858W        W58796   1.504  28.735  19.098  0.1784  0.2533 -0.3779
15859W        W58797   0.816  24.801  18.384  0.0612  0.0032  0.1699
15860W        W58798   3.426  28.662  16.550 -0.1415  0.0393 -0.0074
15861W        W58799   1.494  27.872  19.004 -0.1749 -0.2281  0.0849
15862W        W58800  34.390  28.656  17.089 -0.0998 -0.1361  0.1238
15863W        W58801   0.124  27.750  18.885  0.0043  0.1079  0.2249
15864W        W58802   1.708  27.135  18.273  0.0766 -0.1521  0.1691
15865W        W58803   2.447  26.572  17.042 -0.2715 -0.1151 -0.2658
15866W        W58804   1.666  27.303  17.689 -0.3308 -0.1140  0.0205
15867W        W58805   0.246  28.119  15.684  0.4802 -0.0667  0.1038
15868W        W58806   0.352  28.276  17.771 -0.2172 -0.0562 -0.1900
15869W        W58807   2.776  26.616  16.473 -0.2165  0.0423 -0.2490
15870W        W58808   1.727  28.674  16.164  0.1157 -0.1183 -0.1101
15871W        W58809   2.056  27.661  17.548 -0.0719  0.3165  0.1954
15872W        W58810   4.154  25.854  18.779 -0.1523 -0.0940  0.0525
15873W        W58811   3.588  27.266  16.132 -0.3012  0.3660  0.0798
15874W        W58812   2.256  26.386  20.364  0.1976  0.1807  0.2154
15875W        W58813  33.326  24.606  18.444 -0.1448 -0.2949  0.0166
15876W        W58814   2.743  26.614  17.511  0.0528  0.1373 -0.0840
15877W        W58815   0.900  26.344  18.985 -0.1515 -0.4683  0.1860
15878W        W58816   2.975  28.720  19.162 -0.0799 -0.4426  0.1579
15879W        W58817  34.006  27.702  19.262  0.0498 -0.5971  0.0324
15880W        W58818   1.928  26.976  16.226 -0.0773 -0.3839  0.2307
15881W        W58819   0.438  25.710  15.849 -0.0481 -0.2204 -0.0787
15882W        W58820   0.497  26.392  19.302  0.0106  0.0754 -0.3122
15883W        W58821   1.928  26.139  18.644  0.0044  0.0157 -0.0458
15884W        W58822   0.932  27.247  16.447  0.0288 -0.2547 -0.3618
15885W        W58823   2.470  26.460  17.894  0.1491 -0.0027 -0.1709
15886W        W58824  34.465  27.035  19.125  0.0313 -0.0727  0.0870
15887W        W58825   2.971  26.171  17.768 -0.0264 -0.0632  0.2995
15888W        W58826   2.260  27.429  16.407 -0.1081  0.0713 -0.0827
15889W        W58827  33.956  27.243  17.328  0.0611  0.0245  0.1716
15890W        W58828   0.650  26.133  19.782  0.0594  0.3291  0.0025
15891W        W58829   2.314  26.542  18.386 -0.1127  0.0512 -0.1538
15892W        W58830   0.233  26.975  16.762  0.5719  0.1022 -0.3805
15893W        W58831   2.983  27.792  18.988  0.0990 -0.1714 -0.0937
15894W        W58832   3.029  26.901  19.464 -0.0014 -0.0977  0.2535
15895W        W58833   2.352  27.912  19.179  0.0911  0.0882 -0.0618
15896W        W58834   0.821  25.849  20.190 -0.1047  0.0048 -0.0272
15897W        W58835   3.102  29.106  18.848 -0.0374 -0.1782 -0.4043
15898W        W58836   2.832  25.732  17.609  0.3978 -0.0404 -0.3252
15899W        W58837   3.376  25.323  21.109 -0.1293  0.0372 -0.5338
15900W        W58838   1.618  26.386  17.747 -0.1304  0.3769 -0.1535
15901W        W58839   0.659  27.181  17.235 -0.1269 -0.2037  0.0570
15902W        W58840   1.171  24.983  18.125 -0.1821  0.0069 -0.1811
15903W        W58841   1.901  27.788  19.954 -0.2181  0.0771  0.1826
15904W        W58842   0.159  25.286  16.291 -0.0363  0.1522 -0.0575
15905W        W58843   1.814  26.616  18.434 -0.0890 -0.2599 -0.1209
15906W        W58844   2.474  27.601  17.145  0.1964 -0.1900  0.0117
15907W        W58845   1.565  27.491  18.628 -0.2575  0.0455  0.0359
15908W        W58846   1.623  25.800  16.787  0.0385  0.2336 -0.1970
15909W        W58847  34.401  27.066  17.764  0.2398  0.2158  0.1031
15910W        W58848   0.705  29.356  18.173 -0.0755  0.0920 -0.1773
15911W        W58849   1.058  25.828  15.836 -0.2386 -0.0096  0.2763
15912W        W58850   2.447  27.097  15.954  0.1811 -0.1235  0.0347
15913W        W58851   1.567  27.386  19.387  0.0914 -0.1620 -0.1334
15914W        W58852   1.706  26.163  21.171  0.0994  0.0181  0.0940
15915W        W58853   2.591  26.128  16.823  0.0085 -0.0858 -0.2901
15916W        W58854   1.988  27.315  20.427  0.1501 -0.0899  0.1434
15917W        W58855   0.551  27.858  16.366  0.0984 -0.3875  0.0756
15918W        W58856   2.529  24.256  18.469 -0.0351 -0.0388  0.3196
15919W        W58857   1.321  29.627  18.813 -0.0799 -0.0100 -0.3729
15920W        W58858   0.224  28.695  17.452 -0.0153  0.1064 -0.1582
15921W        W58859  34.305  28.812  17.618 -0.1096  0.0258 -0.3414
15922W        W58860   1.717  26.841  17.508 -0.0645  0.2068  0.0052
15923W        W58861   2.752  26.492  18.798 -0.1466  0.1610 -0.1332
15924W        W58862   0.868  28.286  16.934 -0.0217 -0.1262 -0.1853
15925W        W58863   1.942  26.754  17.953  0.2529  0.0804  0.0123
15926W        W58864   3.500  29.135  19.125 -0.1372 -0.2091  0.0200
15927W        W58865   0.106  26.333  19.566 -0.3154  0.1795  0.1709
15928W        W58866   2.873  28.233  18.705  0.1407  0.4419  0.0190
15929W        W58867   2.884  27.359  18.048 -0.2402 -0.0616 -0.0351
15930W        W58868   2.036  27.403  17.976  0.4027 -0.0226 -0.1391
15931W        W58869  34.071  25.759  19.691  0.0387  0.3833 -0.0228
15932W        W58870   2.268  25.373  20.378  0.1854  0.0419 -0.1058
15933W        W58871   2.662  27.316  18.843 -0.2532  0.0796  0.0001
15934W        W58872   1.434  24.867  17.549 -0.2435  0.0450  0.0023
15935W        W58873   2.179  27.604  15.732  0.0713  0.0888 -0.2571
15936W        W58874   0.671  29.426  19.760 -0.3225 -0.0481  0.1123
15937W        W58875  34.670  28.326  18.497 -0.0220  0.1375  0.2817
15938W        W58876  34.613  28.308  17.541 -0.0611  0.0820 -0.1641
15939W        W58877   2.931  27.181  17.555  0.0101 -0.1423 -0.0436
15940W        W58878   2.125  28.366  16.230 -0.2962 -0.1894 -0.2143
15941W        W58879   1.469  29.171  19.589  0.1866 -0.2117  0.0431
15942W        W58880   1.708  26.720  16.586 -0.1939 -0.0914  0.3188
15943W        W58881   1.248  28.160  17.924  0.1303  0.1135 -0.1286
15944W        W58882   0.406  28.285  17.241  0.1215 -0.0097 -0.1471
15945W        W58883   2.572  29.057  16.958 -0.0769  0.5449 -0.2845
15946W        W58884   0.411  28.269  16.623 -0.1506 -0.0782  0.1919
15947W        W58885   2.948  29.585  20.745  0.2684  0.0500  0.0331
15948W        W58886   3.453  26.088  16.279 -0.2967  0.2932 -0.5175
15949W        W58887   3.811  26.625  18.430 -0.2228  0.1904 -0.1921
15950W        W58888   3.488  27.186  17.263 -0.2336 -0.1710 -0.1980
15951W        W58889   1.954  28.696  20.110 -0.2079  0.1438  0.1990
15952W        W58890  34.623  27.241  19.578 -0.0390 -0.4379 -0.2464
15953W        W58891   0.680  25.586  16.291  0.2295  0.1091  0.2629
15954W        W58892   1.879  29.100  19.845 -0.0670  0.2404  0.2582
15955W        W58893   1.508  26.301  19.631 -0.0743  0.1467  0.3718
15956W        W58894  34.114  29.032  19.584 -0.3314 -0.1258 -0.0781
15957W        W58895   3.400  28.090  17.131  0.2164  0.1698 -0.2025
15958W        W58896  34.484  26.814  16.473  0.0166  0.0153  0.0170
15959W        W58897   1.266  26.824  18.422 -0.2236  0.1184  0.3346
15960W        W58898   3.906  24.829  18.291 -0.3490  0.0739 -0.1421
15961W        W58899   1.465  27.959  17.505 -0.1256  0.0201  0.1587
15962W        W58900   1.975  26.775  17.032  0.2405 -0.2643 -0.2540
15963W        W58901   1.562  26.521  17.071 -0.1874 -0.0346  0.0921
15964W        W58902   1.306  28.635  18.653  0.0497 -0.0776 -0.1508
15965W        W58903   0.951  28.595  17.865  0.0753  0.0766 -0.1103
15966W        W58904   0.114  26.250  16.681  0.0777  0.0863 -0.2764
15967W        W58905   3.983  26.493  17.415  0.0058  0.3471  0.0024
15968W        W58906   2.503  27.127  19.617  0.2452  0.4023  0.0047
15969W        W58907   2.821  24.597  19.210  0.0913  0.0078 -0.0787
15970W        W58908   0.333  26.768  17.583  0.1188  0.0449  0.0320
15971W        W58909   2.940  26.968  16.760  0.2085  0.0849  0.1020
15972W        W58910   1.146  27.341  18.004 -0.2741  0.2797  0.1006
15973W        W58911  34.506  26.120  18.513 -0.0049 -0.1551 -0.1572
15974W        W58912   4.005  27.315  17.076  0.0433  0.1720  0.0219
15975W        W58913   3.349  28.118  19.545  0.0102 -0.0256 -0.0520
15976W        W58914   1.735  27.472  16.391 -0.0013 -0.1159 -0.0680
15977W        W58915   3.108  28.579  19.641  0.2750 -0.1562  0.1439
15978W        W58916   0.568  26.203  16.648 -0.1039  0.2646  0.0540
15979W        W58917   1.257  26.912  16.666  0.1101 -0.1078  0.2377
15980W        W58918   1.415  26.808  17.907  0.0937 -0.0515  0.0911
15981W        W58919   1.913  27.528  19.100 -0.0041  0.0867  0.0588
15982W        W58920   2.570  29.709  18.185  0.0145 -0.0653 -0.0231
15983W        W58921   0.799  25.555  17.204  0.0106 -0.1724  0.2474
15984W        W58922   3.650  27.692  16.453  0.3307 -0.2269  0.2077
15985W        W58923   2.794  26.144  19.181  0.2419 -0.0477 -0.3841
15986W        W58924   1.259  28.412  16.511 -0.1626  0.2100  0.1593
15987W        W58925   3.282  27.072  18.210 -0.0295 -0.0398 -0.0932
15988W        W58926   2.347  28.400  18.808 -0.1739  0.3420  0.0442
15989W        W58927   0.412  25.580  18.421 -0.2967  0.1014 -0.0798
15990W        W58928   1.763  26.987  18.793  0.1771  0.1290  0.1786
15991W        W58929   2.125  28.679  17.456 -0.2490 -0.3453 -0.3089
15992W        W58930   1.000  26.068  16.291 -0.0540  0.1123 -0.1367
15993W        W58931   1.697  25.266  17.377 -0.0482  0.1376  0.0566
15994W        W58932   0.921  28.927  18.414  0.0525 -0.3312 -0.0915
15995W        W58933   3.743  27.290  19.319  0.1490 -0.0960  0.3192
15996W        W58934   1.973  26.299  19.672  0.1648 -0.1023 -0.1493
15997W        W58935   2.298  28.144  16.894  0.2138 -0.0903 -0.2019
15998W        W58936   1.667  26.106  17.332  0.1300  0.2392  0.0107
15999W        W58937   1.045  27.683  19.968 -0.0327  0.2800 -0.0719
16000W        W58938  34.499  29.401  19.440  0.3468  0.3233 -0.3655
16001W        W58939   0.274  27.640  15.944 -0.3589  0.1256 -0.0925
16002W        W58940   0.676  27.997  18.618  0.0003  0.1382 -0.2829
16003W        W58941   1.297  28.609  17.530  0.1856 -0.3386  0.0436
16004W        W58942   1.871  28.122  17.262  0.1833 -0.2730  0.1005
16005W        W58943   2.503  27.513  17.735 -0.0640  0.2731  0.0528
16006W        W58944   1.010  25.294  15.994 -0.3831 -0.0522  0.1567
16007W        W58945   1.929  27.780  18.321 -0.0819  0.0311  0.0498
16008W        W58946   1.316  24.979  16.934  0.2037  0.3801 -0.2285
16009W        W58947   3.440  25.808  18.889  0.2152 -0.1711 -0.2552
16010W        W58948   2.141  26.022  17.545 -0.0857  0.0016  0.2171
16011W        W58949   0.156  27.726  18.373 -0.3231  0.0365  0.1985
16012W        W58950  32.795  26.794  17.347 -0.0304 -0.2516 -0.3388
16013W        W58951   0.070  26.490  15.464 -0.3941 -0.0713 -0.1929
16014W        W58952   0.631  26.009  18.514 -0.0790  0.3154 -0.3805
16015W        W58953   0.496  26.065  20.594 -0.3199  0.0753  0.2069
16016W        W58954   1.131  26.251  19.953 -0.0656  0.0287  0.3369
16017W        W58955   0.187  25.883  18.731 -0.1376  0.2837 -0.0530
16018W        W58956   0.740  25.888  19.001  0.0933 -0.0016 -0.0705
16019W        W58957   2.904  27.826  17.855 -0.0946 -0.3929  0.2824
16020W        W58958   0.692  26.998  20.041 -0.0633  0.1589  0.1540
16021W        W58959   0.019  26.612  17.954  0.0411  0.0908  0.1447
16022W        W58960   2.124  28.692  18.042 -0.0957  0.0863  0.2407
16023W        W58961   2.114  29.170  16.895  0.1784  0.1252 -0.0549
16024W        W58962   1.790  25.325  16.858 -0.0854 -0.0664  0.0245
16025W        W58963   3.750  28.533  19.613  0.0769 -0.0074  0.0104
16026W        W58964   0.234  29.195  17.028  0.1898 -0.1495  0.4164
16027W        W58965   2.628  26.597  19.664  0.1107  0.0221 -0.1443
16028W        W58966   0.748  26.622  19.753 -0.0762  0.1557 -0.1054
16029W        W58967  33.990  26.514  16.869 -0.3403 -0.0502 -0.0436
16030W        W58968   0.976  27.257  18.509  0.1487 -0.2564  0.2744
16031W        W58969   1.910  29.137  18.137  0.0918 -0.1945  0.2723
16032W        W58970   2.343  26.608  16.083 -0.0555  0.3805 -0.0420
16033W        W58971   0.761  29.190  20.305 -0.0430 -0.1211 -0.0985
16034W        W58972   1.261  28.636  19.660  0.1173 -0.1978  0.1367
16035W        W58973   0.614  25.571  19.819  0.5117  0.0160 -0.0050
16036W        W58974   1.547  27.066  17.122 -0.0521  0.0089  0.1782
16037W        W58975   1.344  28.302  19.992  0.0347  0.2500 -0.0264
16038W        W58976   2.780  27.170  16.292  0.0583  0.0521 -0.3006
16039W        W58977   3.460  26.782  17.515  0.0161  0.1912 -0.2006
16040W        W58978   1.077  26.910  17.177  0.2316 -0.2140  0.0855
16041W        W58979   0.419  25.895  19.421  0.3550 -0.0044 -0.3952
16042W        W58980   0.489  28.483  18.305  0.2804 -0.0120  0.3181
16043W        W58981   3.850  27.720  17.947  0.1948  0.0626  0.1878
16044W        W58982   1.259  24.031  17.979  0.2535 -0.1385 -0.1675
16045W        W58983   3.279  25.688  16.511  0.0679 -0.0416  0.2028
16046W        W58984   2.389  29.210  18.007  0.0306 -0.1050 -0.1794
16047W        W58985   1.778  25.790  17.804 -0.4430  0.0400  0.2098
16048W        W58986   2.802  26.718  15.998  0.2045  0.1624 -0.0596
16049W        W58987   2.321  26.848  18.795 -0.3568 -0.1139 -0.2732
16050W        W58988   1.030  27.662  18.774  0.0113  0.0373  0.0357
16051W        W58989   3.740  28.251  19.170  0.1283  0.0343  0.0087
16052W        W58990   1.173  26.103  17.537  0.2413  0.1629 -0.0469
16053W        W58991   3.455  27.589  15.757  0.0544 -0.0246  0.0789
16054W        W58992   1.322  30.019  19.072 -0.0182 -0.1010  0.2777
16055W        W58993   2.180  29.531  20.873  0.0956  0.1340  0.1195
16056W        W58994   1.187  28.198  18.785  0.2700 -0.3120 -0.2730
16057W        W58995   3.253  28.198  19.015  0.0460 -0.0276  0.2881
16058W        W58996   0.546  24.268  19.086  0.0699 -0.5368  0.1006
16059W        W58997   0.445  26.662  17.097  0.0457  0.1662 -0.0133
16060W        W58998   1.911  27.162  16.743 -0.1120  0.1076  0.2144
16061W        W58999   2.906  27.847  18.412 -0.0835 -0.0020 -0.0762
16062W        W59000  34.525  24.577  19.961  0.0898  0.0547  0.0324
16063W        W59001   2.617  25.494  18.038  0.1821  0.1344 -0.0141
16064W        W59002   0.304  31.003  19.491  0.3320 -0.4544  0.0464
16065W        W59003   2.647  28.328  19.200 -0.1778  0.4043 -0.1689
16066W        W59004  34.358  28.892  22.180 -0.3774 -0.1323  0.0746
16067W        W59005   1.130  26.796  20.790 -0.1986  0.0891  0.3390
16068W        W59006   3.481  26.892  19.149  0.1505  0.0696 -0.1607
16069W        W59007   3.087  27.706  20.399 -0.1923 -0.2400 -0.3080
16070W        W59008   0.192  26.426  20.437 -0.1004  0.1544  0.2385
16071W        W59009   2.761  27.261  20.320 -0.0460  0.0989 -0.0886
16072W        W59010   1.393  26.516  24.050  0.0200 -0.2865  0.1335
16073W        W59011   2.524  27.170  21.602 -0.1244 -0.2526 -0.1257
16074W        W59012   3.462  27.931  22.966 -0.1611  0.3231  0.0293
16075W        W59013   1.958  26.798  20.499  0.1430 -0.0502 -0.0981
16076W        W59014   1.177  25.013  22.066 -0.1810 -0.0760  0.1990
16077W        W59015   1.740  28.740  23.055  0.1571  0.1709  0.1250
16078W        W59016   2.042  24.877  21.721 -0.1549  0.2343  0.0247
16079W        W59017   0.173  27.707  23.241 -0.1695  0.3205  0.3157
16080W        W59018   2.099  26.862  22.196 -0.0297 -0.1193 -0.2731
16081W        W59019  34.459  27.508  19.189 -0.0107 -0.1365 -0.1992
16082W        W59020   0.826  27.271  22.097  0.3959 -0.1001  0.0724
16083W        W59021   1.658  25.411  22.830 -0.0430  0.2266 -0.5091
16084W        W59022   2.967  27.427  21.728 -0.2728  0.1318 -0.1472
16085W        W59023   1.900  26.381  24.249  0.1140  0.2684  0.1568
16086W        W59024   3.176  24.784  24.110  0.0407 -0.0216 -0.2070
16087W        W59025   0.642  27.631  21.548  0.1150 -0.1425 -0.1787
16088W        W59026   1.038  28.046  19.586 -0.3684 -0.2692 -0.2116
16089W        W59027  33.900  26.832  21.887  0.0143 -0.0284  0.2229
16090W        W59028   0.441  27.751  22.028 -0.1639 -0.0642  0.1449
16091W        W59029   2.192  25.688  21.698 -0.1622  0.0507  0.1774
16092W        W59030   1.257  26.431  21.223  0.0241 -0.2548  0.0853
16093W        W59031   1.681  27.868  21.565 -0.0182  0.2311 -0.1424
16094W        W59032   2.332  29.340  21.293 -0.3065  0.0589  0.0313
16095W        W59033   2.321  27.212  23.111 -0.0165  0.0432 -0.1503
16096W        W59034   1.223  26.833  21.614  0.2329 -0.1589 -0.1343
16097W        W59035  34.190  29.784  19.349  0.0155 -0.1554  0.3034
16098W        W59036  34.546  27.973  20.668 -0.0259  0.0428  0.0343
16099W        W59037   3.601  27.846  20.328  0.2083 -0.2230 -0.0025
16100W        W59038   2.248  27.706  22.351  0.2422 -0.0785  0.0662
16101W        W59039   1.393  28.447  21.663 -0.0655  0.1017  0.2956
16102W        W59040   0.337  29.008  19.452  0.1346  0.0858  0.2235
16103W        W59041   2.195  27.311  24.274 -0.0636 -0.0544  0.0273
16104W        W59042   1.586  28.595  21.218  0.0045 -0.1395  0.3153
16105W        W59043   1.731  26.683  22.555 -0.2408 -0.0491  0.0810
16106W        W59044   1.215  27.241  21.088  0.0158  0.1627  0.0026
16107W        W59045   1.815  28.244  19.814  0.2239 -0.0227  0.1228
16108W        W59046   1.550  28.203  20.863 -0.0851  0.1303 -0.2918
16109W        W59047  34.431  28.561  23.756 -0.0031  0.2175  0.1676
16110W        W59048  33.718  28.092  21.239 -0.2089 -0.2248  0.1390
16111W        W59049   4.611  26.177  22.539  0.0456 -0.0428  0.1131
16112W        W59050   1.332  28.597  20.514  0.2667  0.0257  0.1475
16113W        W59051   1.123  26.262  20.456  0.0413 -0.1586 -0.1202
16114W        W59052   2.248  27.214  19.130  0.1981  0.0378 -0.1193
16115W        W59053   1.680  25.607  21.586  0.0452  0.0922  0.0061
16116W        W59054   1.613  24.897  21.074 -0.0478 -0.2176 -0.0342
16117W        W59055  34.687  28.239  21.052 -0.1696  0.1815  0.2003
16118W        W59056   0.408  27.280  21.809 -0.1680  0.0025  0.0943
16119W        W59057   2.725  28.383  22.786 -0.1027 -0.2120 -0.0173
16120W        W59058   1.864  26.057  21.654  0.1427 -0.1968  0.0430
16121W        W59059   2.385  25.835  22.519  0.1869  0.3447 -0.0458
16122W        W59060  34.249  28.368  21.451 -0.2436  0.2398 -0.0499
16123W        W59061   0.872  26.850  19.281 -0.2358  0.0403  0.1748
16124W        W59062   3.320  27.691  19.934  0.0604  0.1005 -0.2062
16125W        W59063   2.952  28.574  21.260 -0.2930  0.1064  0.0350
16126W        W59064   1.705  28.276  20.375  0.1797 -0.0150  0.1388
16127W        W59065   0.247  27.334  19.177 -0.1909  0.1000 -0.3575
16128W        W59066  33.513  27.419  23.604 -0.3224 -0.0698 -0.3246
16129W        W59067   0.006  27.767  24.959 -0.1287  0.0669 -0.2181
16130W        W59068   1.366  24.905  19.983  0.0978 -0.2168 -0.3123
16131W        W59069   3.644  27.859  22.064  0.2374  0.1244 -0.1569
16132W        W59070  33.874  28.006  21.729 -0.0819  0.1067  0.1767
16133W        W59071   2.899  25.846  19.985 -0.2759 -0.1147  0.3563
16134W        W59072   1.411  27.347  21.523 -0.0135  0.1021  0.1065
16135W        W59073   1.629  27.533  21.961 -0.1923 -0.1314 -0.1229
16136W        W59074   2.202  28.132  20.673 -0.2150  0.0220 -0.2586
16137W        W59075   2.045  24.861  21.221 -0.1117 -0.0976  0.0367
16138W        W59076   2.633  26.362  22.680  0.2061  0.3165  0.0318
16139W        W59077   0.172  27.215  20.106  0.0582 -0.0505 -0.0270
16140W        W59078   1.813  27.787  20.738 -0.0258 -0.0816  0.5167
16141W        W59079   2.921  28.033  23.036 -0.1705 -0.0203 -0.1303
16142W        W59080   3.543  26.962  19.834  0.1541  0.1526 -0.1457
16143W        W59081   0.360  28.484  21.331  0.0592  0.0204 -0.2263
16144W        W59082   1.989  27.683  23.895 -0.0217  0.0160 -0.1166
16145W        W59083   2.188  26.077  26.193  0.0010 -0.2897  0.1774
16146W        W59084  33.588  29.909  17.985  0.2838  0.2222  0.2210
16147W        W59085  33.333  27.516  21.520  0.2428 -0.0577 -0.1407
16148W        W59086  33.289  29.123  21.210  0.0353 -0.2297  0.2786
16149W        W59087  34.692  26.975  21.868  0.2495 -0.3128  0.1957
16150W        W59088   2.034  27.478  21.384  0.1117 -0.1011  0.3708
16151W        W59089   3.780  25.536  20.344 -0.2849  0.0334  0.2240
16152W        W59090   0.041  26.635  23.350 -0.2563  0.0803  0.1070
16153W        W59091   3.892  25.639  22.354  0.1243  0.3564 -0.0382
16154W        W59092  33.006  27.833  20.203  0.1954  0.1143 -0.0524
16155W        W59093   3.204  29.519  19.899  0.0496  0.2230  0.3275
16156W        W59094   3.117  25.875  21.570  0.1165  0.1607 -0.0901
16157W        W59095   2.209  28.683  19.654  0.1525  0.3084  0.0412
16158W        W59096   0.558  27.852  22.896 -0.1535 -0.1202  0.1704
16159W        W59097   1.520  26.836  20.277 -0.0112  0.2398 -0.1377
16160W        W59098   1.825  26.738  23.693  0.1152  0.2691  0.1566
16161W        W59099   1.298  25.809  22.863  0.0639  0.3500 -0.0829
16162W        W59100   1.793  26.324  22.193 -0.2964 -0.0635  0.2540
16163W        W59101   0.492  24.372  19.869 -0.0588  0.3137  0.1172
16164W        W59102   1.894  26.192  20.721 -0.3053  0.1174 -0.2313
16165W        W59103   0.872  26.176  21.085  0.0551  0.1444 -0.2102
16166W        W59104  33.862  26.282  21.718 -0.1953 -0.0317  0.1675
16167W        W59105   2.118  25.470  23.101 -0.1909 -0.2543  0.3924
16168W        W59106   2.251  28.655  20.522 -0.1252 -0.1313  0.4114
16169W        W59107   3.214  28.364  22.732  0.0771  0.0463 -0.6184
16170W        W59108   2.627  28.178  22.024 -0.1729  0.0583 -0.2628
16171W        W59109   1.304  25.356  22.528  0.0509 -0.0201 -0.1049
16172W        W59110  34.446  25.585  20.864 -0.1859 -0.0914  0.1629
16173W        W59111  34.658  28.219  21.572 -0.2232 -0.2243 -0.2626
16174W        W59112   1.843  27.133  21.782 -0.0381 -0.1126  0.1718
16175W        W59113   1.273  23.735  19.289  0.0688 -0.1272 -0.0581
16176W        W59114   1.849  28.289  22.069  0.1742  0.1579  0.1611
16177W        W59115   0.834  27.109  20.587  0.5313  0.0111 -0.0339
16178W        W59116  34.189  28.405  21.961  0.1646 -0.2495  0.2468
16179W        W59117   2.806  25.582  24.149 -0.0814 -0.2208  0.2951
16180W        W59118   2.017  26.579  21.018  0.0737  0.1687 -0.0185
16181W        W59119   1.552  25.837  22.443  0.0983 -0.0481  0.1094
16182W        W59120   1.195  27.219  20.208 -0.2580 -0.1627 -0.1032
16183W        W59121   1.706  29.613  21.433 -0.0937 -0.3265  0.0089
16184W        W59122  34.176  28.920  20.110  0.0644  0.0781  0.0504
16185W        W59123   0.842  27.154  21.489  0.0094 -0.1982 -0.0784
16186W        W59124   2.525  27.698  21.552 -0.0720  0.0261 -0.0895
16187W        W59125   4.177  26.394  22.468  0.0828  0.2099 -0.0752
16188W        W59126   0.763  26.953  23.625 -0.0393 -0.1156 -0.0307
16189W        W59127   1.498  27.105  22.468  0.4845 -0.5489  0.1225
16190W        W59128   0.399  26.991  19.607  0.1426 -0.2227  0.0676
16191W        W59129  34.429  27.712  22.977  0.0555 -0.0124 -0.2106
16192W        W59130   1.767  24.247  21.987  0.1312  0.2834 -0.2607
16193W        W59131   2.780  26.401  20.740 -0.0583 -0.0710  0.0586
16194W        W59132   1.133  26.774  22.178  0.1929  0.1032 -0.2035
16195W        W59133   3.106  27.954  20.842 -0.2499  0.1038 -0.1119
16196W        W59134   2.657  26.871  19.168  0.3942 -0.4826 -0.0914
16197W        W59135   2.526  25.911  20.460 -0.1500  0.0273 -0.0376
16198W        W59136   0.589  28.076  23.446  0.0548 -0.2215  0.3148
16199W        W59137   0.684  27.568  20.936  0.0170  0.3439 -0.1602
16200W        W59138   1.111  27.689  21.389 -0.2074  0.0523 -0.0783
16201W        W59139   1.557  25.866  19.436  0.0477 -0.2071 -0.0692
16202W        W59140   2.967  27.179  21.216  0.1819  0.0657 -0.0770
16203W        W59141   0.237  27.214  23.319  0.0133  0.2942  0.1533
16204W        W59142   2.404  26.327  24.303  0.0787  0.1732 -0.1875
16205W        W59143   3.235  28.159  21.271  0.0655 -0.0921  0.1599
16206W        W59144   1.268  24.112  22.187  0.3694 -0.2928 -0.0768
16207W        W59145   1.901  27.884  19.479  0.0878 -0.1704 -0.1345
16208W        W59146   1.423  25.309  21.241 -0.0355  0.2684  0.0063
16209W        W59147  33.744  27.953  20.638  0.2687 -0.2350  0.1042
16210W        W59148   4.442  26.437  21.991  0.0876 -0.0831 -0.3155
16211W        W59149   2.312  26.234  21.923 -0.2429 -0.0879 -0.1683
16212W        W59150   2.024  26.004  23.943 -0.1476  0.0391  0.1499
16213W        W59151   3.514  27.135  22.548 -0.0669  0.2702  0.1089
16214W        W59152   3.516  27.791  19.189  0.0069  0.1649  0.1368
16215W        W59153   1.527  27.644  21.126 -0.0404 -0.3204 -0.2463
16216W        W59154   0.403  27.793  17.745  0.2115  0.3418 -0.1964
16217W        W59155   0.873  25.068  22.532  0.1285 -0.1758 -0.0866
16218W        W59156   1.056  27.624  22.978 -0.4540 -0.4808  0.4321
16219W        W59157  34.617  28.413  22.808 -0.2683 -0.1930 -0.2880
16220W        W59158   2.750  27.526  23.494  0.0194 -0.1363 -0.3238
16221W        W59159   2.641  27.757  20.019  0.0852  0.3456  0.2968
16222W        W59160   1.500  26.426  21.698  0.1041  0.1777  0.0630
16223W        W59161   1.287  25.995  21.443  0.1674 -0.1569 -0.3219
16224W        W59162   0.973  28.735  20.122  0.0831 -0.1682  0.2124
16225W        W59163  34.234  28.060  20.006 -0.4683 -0.0056 -0.1288
16226W        W59164  33.796  25.257  20.427  0.0495 -0.2382  0.0125
16227W        W59165   1.317  28.543  22.968 -0.2100 -0.4310 -0.0104
16228W        W59166   0.115  30.217  19.758 -0.0541  0.0909  0.2680
16229W        W59167   2.489  27.307  21.151  0.4311 -0.0071 -0.0025
16230W        W59168   0.250  27.239  20.734 -0.3915 -0.0217  0.1602
16231W        W59169   4.145  24.225  21.189  0.1966 -0.1184 -0.1902
16232W        W59170  32.964  28.659  22.644  0.0981 -0.1129 -0.0516
16233W        W59171   1.707  25.821  18.949 -0.1127  0.3610 -0.3186
16234W        W59172  34.452  26.484  20.577  0.1727 -0.2718 -0.2240
16235W        W59173   2.551  24.643  21.848 -0.0979  0.1353  0.3886
16236W        W59174   2.824  27.427  19.324 -0.1861 -0.0725  0.0676
16237W        W59175   1.173  26.637  22.637 -0.3146 -0.0213 -0.1482
16238W        W59176   0.799  24.601  21.398  0.2386 -0.0243  0.3007
16239W        W59177  34.147  28.845  21.451  0.0072  0.0457  0.0776
16240W        W59178   1.356  25.945  21.927  0.1589  0.1944  0.0193
16241W        W59179   2.912  24.480  20.073  0.1391 -0.2737  0.3889
16242W        W59180   3.004  25.883  20.660  0.3156 -0.1096  0.0070
16243W        W59181   2.149  26.701  24.529 -0.3156  0.2741  0.2497
16244W        W59182  33.519  27.183  19.863 -0.2497  0.0140 -0.0985
16245W        W59183   3.392  27.479  24.535  0.0142  0.1350 -0.0729
16246W        W59184   0.927  25.730  20.806 -0.0785  0.0700  0.3481
16247W        W59185  33.513  28.976  21.765  0.0464 -0.0335 -0.0528
16248W        W59186   1.591  27.924  23.635  0.0254  0.0737 -0.2058
16249W        W59187  33.895  27.194  20.197  0.0139 -0.1347  0.1884
16250W        W59188  34.128  27.079  20.568  0.0528  0.4219 -0.0976
16251W        W59189   1.619  26.773  22.093  0.2491 -0.1562 -0.1931
16252W        W59190   1.958  27.311  22.303  0.2417  0.2142  0.0940
16253W        W59191   0.773  26.426  22.372  0.0290 -0.3814 -0.1684
16254W        W59192   0.978  27.142  22.632  0.2763  0.1296  0.1855
16255W        W59193   1.113  27.895  20.925  0.1994 -0.0088  0.3487
16256W        W59194   2.777  26.286  21.237 -0.0924 -0.2054  0.2057
16257W        W59195   2.253  26.295  22.402 -0.3853 -0.0080 -0.0785
16258W        W59196   1.138  27.455  24.297  0.4404 -0.3323  0.1925
16259W        W59197   2.063  25.256  22.112 -0.0219 -0.0809  0.2225
16260W        W59198   2.685  28.456  20.045 -0.2040 -0.0450 -0.0962
16261W        W59199   1.929  27.244  20.895  0.2590  0.0101  0.3166
16262W        W59200   0.467  28.932  20.590 -0.0950  0.1393  0.0984
16263W        W59201   0.060  27.656  20.975  0.0305  0.2188 -0.2034
16264W        W59202   1.149  27.488  20.686 -0.1294 -0.0177  0.0895
16265W        W59203   2.426  25.562  22.142 -0.2004  0.1887  0.0063
16266W        W59204   0.365  27.978  21.300 -0.3337 -0.0026 -0.0382
16267W        W59205   1.109  27.574  19.314 -0.0617 -0.0612 -0.3258
16268W        W59206   0.599  28.772  22.648 -0.0942  0.2487 -0.1672
16269W        W59207   3.401  24.828  21.884  0.4127  0.1592  0.2143
16270W        W59208   0.577  27.503  19.785 -0.0143 -0.0222 -0.1186
16271W        W59209   1.575  26.271  22.809  0.1207 -0.1110  0.0477
16272W        W59210   4.202  26.795  23.518 -0.0484 -0.0646  0.1630
16273W        W59211   2.168  26.925  21.396 -0.0206 -0.2092  0.0460
16274W        W59212   2.198  26.395  23.626 -0.0584  0.2113  0.0911
16275W        W59213   0.979  25.873  22.284  0.3450 -0.0953  0.1242
16276W        W59214   3.199  27.306  20.699 -0.1206 -0.0630 -0.0699
16277W        W59215   1.094  26.542  23.500  0.3474 -0.0958 -0.0240
16278W        W59216   3.250  29.589  23.368 -0.3097 -0.2546 -0.0726
16279W        W59217  34.453  28.454  22.349  0.1387  0.0053 -0.4814
16280W        W59218   0.772  24.889  20.633  0.0130 -0.1076 -0.1577
16281W        W59219   1.698  25.331  20.502  0.3851 -0.0111  0.0274
16282W        W59220   1.167  26.209  23.163  0.2795  0.2598 -0.0853
16283W        W59221   2.668  27.978  22.474  0.1630  0.0040  0.3101
16284W        W59222   1.045  26.728  20.277 -0.3092 -0.1370  0.3378
16285W        W59223   2.604  25.948  21.615 -0.2212 -0.1918  0.0946
16286W        W59224   1.325  27.170  21.992  0.2468  0.0447 -0.1660
16287W        W59225   2.657  26.742  21.217  0.1971 -0.2656  0.1188
16288W        W59226   3.033  25.223  21.429  0.0645  0.3519 -0.2225
16289W        W59227   1.337  28.134  21.304  0.0276 -0.0151 -0.2241
16290W        W59228   2.376  25.089  25.055 -0.0722  0.0781  0.0748
16291W        W59229   2.311  27.698  20.900 -0.0053 -0.1701 -0.0372
16292W        W59230   1.092  25.046  20.980  0.0446  0.1931  0.2299
16293W        W59231   2.630  24.808  23.198 -0.2439  0.1734 -0.0211
16294W        W59232   2.903  26.340  21.754  0.0679  0.2199 -0.1778
16295W        W59233   0.648  26.704  22.747 -0.0679 -0.0030  0.0863
16296W        W59234  34.586  26.049  23.219  0.0999 -0.1561 -0.0974
16297W        W59235   1.804  28.777  21.903 -0.1370 -0.1823  0.0249
16298W        W59236   2.595  26.222  20.029 -0.0469  0.3332 -0.2427
16299W        W59237   3.484  26.252  23.293 -0.1663 -0.0778  0.0724
16300W        W59238   2.566  25.476  21.377  0.0191  0.1721 -0.1313
16301W        W59239   1.518  27.568  20.306 -0.0595  0.1518  0.0076
16302W        W59240   0.744  27.596  22.486  0.0539 -0.1646 -0.4322
16303W        W59241   3.637  26.724  23.400  0.3531  0.2397  0.0467
16304W        W59242   0.853  26.659  21.351 -0.1783 -0.3226 -0.2976
16305W        W59243   1.811  27.038  23.223 -0.0314 -0.1197 -0.0018
16306W        W59244  34.041  29.497  19.757 -0.1592  0.0657 -0.1866
16307W        W59245   2.245  27.411  21.933  0.0539  0.0818  0.3271
16308W        W59246   2.390  27.200  22.568  0.0923  0.1881 -0.0374
16309W        W59247   0.730  26.830  21.860  0.1624 -0.0542  0.0173
16310W        W59248  34.339  28.833  24.361  0.4171 -0.4819  0.0567
16311W        W59249   2.300  26.835  20.046 -0.2477  0.0491 -0.0005
16312W        W59250   1.711  27.194  20.012 -0.1568  0.3634  0.1574
16313W        W59251   2.674  28.525  22.326 -0.0263  0.1030 -0.1070
16314W        W59252   3.230  27.275  23.534  0.1245  0.1017 -0.1077
16315W        W59253   1.843  25.556  20.089  0.1371 -0.2613 -0.2265
16316W        W59254   3.117  26.575  23.183 -0.2133 -0.2501  0.0253
16317W        W59255  33.283  29.204  20.058 -0.0129 -0.0625 -0.1902
16318W        W59256   1.904  25.288  23.509  0.4402  0.1406  0.2421
16319W        W59257  33.871  28.469  22.463 -0.1363  0.1567  0.0880
16320W        W59258  33.566  28.041  22.612  0.0623 -0.0272 -0.0104
16321W        W59259   0.490  29.164  22.389 -0.3170  0.3234 -0.1562
16322W        W59260   1.932  27.247  22.798  0.2292  0.1225 -0.3162
16323W        W59261   4.364  27.172  22.619 -0.0017  0.3407 -0.1661
16324W        W59262   1.221  26.305  22.275 -0.1092  0.0216 -0.0840
16325W        W59263   3.032  26.885  23.826 -0.2005  0.1018 -0.0189
16326W        W59264   0.074  28.528  21.975  0.0747 -0.1040  0.1509
16327W        W59265   0.589  27.000  21.022 -0.1622 -0.0455  0.2175
16328W        W59266   3.099  29.074  23.411 -0.1166 -0.1130 -0.2790
16329W        W59267   3.702  26.714  21.449  0.0899  0.2127 -0.2117
16330W        W59268   0.421  27.907  20.089 -0.5327  0.2727 -0.0001
16331W        W59269  34.016  25.758  23.971  0.2490 -0.3302 -0.3498
16332W        W59270   1.922  27.121  25.373  0.4005  0.1347  0.1222
16333W        W59271   2.885  26.912  20.809 -0.1898 -0.1374  0.4833
16334W        W59272   0.673  26.342  20.234  0.0338 -0.2004  0.1278
16335W        W59273   1.243  27.991  20.426  0.2125 -0.1728  0.0193
16336W        W59274  33.149  29.486  25.612  0.0424  0.1543 -0.1545
16337W        W59275   0.614  27.298  22.890 -0.1729 -0.0189  0.0095
16338W        W59276   0.044  29.002  19.858  0.4037  0.0343 -0.1119
16339W        W59277   3.971  27.850  21.176  0.0786 -0.0384  0.0621
16340W        W59278   1.492  27.146  20.655 -0.2191 -0.0895 -0.0859
16341W        W59279   1.404  29.687  22.522 -0.0338 -0.3867 -0.3249
16342W        W59280   1.951  25.003  20.202  0.2258 -0.4164 -0.2993
16343W        W59281   0.842  28.099  21.417 -0.1253 -0.1386 -0.1183
16344W        W59282  33.400  29.371  18.993 -0.2406 -0.1728 -0.1427
16345W        W59283   2.234  28.144  20.144  0.0274 -0.0229 -0.0973
16346W        W59284   0.013  28.857  20.318 -0.1858 -0.0852 -0.5242
16347W        W59285   1.405  27.949  21.951 -0.0468 -0.1426  0.2286
16348W        W59286   3.774  24.498  20.349 -0.0926  0.2899 -0.2267
16349W        W59287   3.659  27.048  22.086 -0.1407  0.0763 -0.1301
16350W        W59288   3.667  26.615  20.930 -0.1387  0.0143  0.1438
16351W        W59289   1.955  28.289  22.938  0.0606  0.0940  0.0214
16352W        W59290   1.505  27.675  22.724 -0.2208 -0.0523 -0.1432
16353W        W59291   1.400  23.828  19.828 -0.0973 -0.0563  0.0522
16354W        W59292   0.796  27.213  25.309 -0.0363  0.0356 -0.1978
16355W        W59293   3.606  25.702  24.200  0.0075 -0.1675 -0.2487
16356W        W59294  34.027  28.395  23.515  0.0129 -0.0063 -0.4292
16357W        W59295   2.048  28.472  20.960 -0.0498 -0.0189  0.3286
16358W        W59296   0.396  26.838  21.493 -0.1780 -0.1260  0.1699
16359W        W59297   1.371  27.239  23.051 -0.3979 -0.1962  0.1701
16360W        W59298   2.849  24.729  22.745  0.3312  0.1240 -0.0881
16361W        W59299  34.624  26.932  20.482 -0.2470  0.0532  0.2132
16362W        W59300   1.315  26.064  20.887 -0.1247  0.1197  0.2160
16363W        W59301   0.460  28.211  21.806  0.1196  0.0023 -0.1407
16364W        W59302   1.053  28.067  22.838  0.0533  0.2932 -0.0883
16365W        W59303   1.247  27.546  22.323 -0.1865 -0.0938 -0.1463
16366W        W59304   1.585  25.932  19.955  0.1003 -0.0128  0.1220
16367W        W59305   4.321  27.052  21.276 -0.3489  0.2926  0.0195
16368W        W59306   0.510  26.956  22.307 -0.0971 -0.0998  0.2346
16369W        W59307   2.643  25.459  23.026 -0.0104  0.1470 -0.0133
16370W        W59308   0.943  25.472  21.287 -0.2549 -0.1216  0.1046
16371W        W59309   2.111  26.008  20.066  0.0597 -0.0234 -0.0515
16372W        W59310   1.265  27.622  23.425 -0.0605 -0.1659  0.0340
16373W        W59311   0.047  26.407  21.481 -0.0341 -0.1133  0.2839
16374W        W59312   1.544  26.510  20.783  0.2388 -0.3963 -0.0695
16375W        W59313   3.330  27.070  23.071 -0.2221 -0.0368 -0.1466
16376W        W59314   1.967  27.939  18.782  0.1684  0.0316 -0.1245
16377W        W59315   2.481  29.301  22.769 -0.1930 -0.1315  0.0082
16378W        W59316   0.580  26.381  21.646 -0.0168  0.2005  0.0608
16379W        W59317   3.003  24.912  20.390 -0.1631  0.3318 -0.0067
16380W        W59318   0.727  25.251  20.339  0.1130 -0.0637 -0.1029
16381W        W59319  34.662  27.497  22.000  0.2890  0.1403 -0.1415
16382W        W59320   1.971  27.759  22.762  0.6302  0.0230  0.0082
16383W        W59321   0.257  25.729  23.437 -0.5861 -0.0093 -0.1592
16384W        W59322   1.787  29.830  18.851 -0.1191 -0.0530  0.0468
16385W        W59323   3.307  27.249  24.031  0.1310 -0.0980  0.2528
16386W        W59324   1.383  28.973  20.984  0.0903 -0.2885  0.0923
16387W        W59325   3.001  25.093  22.020  0.0590  0.0287 -0.0212
16388W        W59326   2.892  29.366  22.544  0.0820 -0.0392 -0.1343
16389W        W59327   0.114  27.467  22.707 -0.0686 -0.2338  0.0073
16390W        W59328   2.905  27.832  23.872 -0.0627 -0.4257 -0.5496
16391W        W59329   2.303  26.369  21.410 -0.0500 -0.0375 -0.3643
16392W        W59330   1.795  24.633  19.910 -0.0529  0.1042  0.2495
16393W        W59331   0.319  27.315  21.264  0.3583  0.3199 -0.3386
16394W        W59332  34.456  27.462  20.548 -0.1562 -0.0088 -0.1355
16395W        W59333   3.649  26.675  22.881  0.2669 -0.4008 -0.1714
16396W        W59334   2.923  25.268  23.383 -0.0432  0.0678 -0.0194
16397W        W59335   1.148  29.753  19.877  0.1034 -0.0721  0.2077
16398W        W59336   4.366  25.215  22.195  0.0133  0.3852 -0.0439
16399W        W59337   1.446  28.538  22.134  0.0802 -0.2168 -0.1141
16400W        W59338   0.639  28.108  22.423 -0.0379  0.3240  0.3062
16401W        W59339  33.755  27.648  19.823  0.3780  0.0867  0.1185
16402W        W59340  34.497  27.015  23.724  0.0306 -0.1676  0.0650
16403W        W59341   0.886  28.636  21.520  0.0669 -0.1706  0.1543
16404W        W59342   0.338  28.425  20.129  0.0732 -0.0705  0.5334
16405W        W59343   2.911  27.669  21.234 -0.2518  0.0680 -0.3741
16406W        W59344   1.678  26.747  19.763 -0.2842 -0.0771  0.1270
16407W        W59345   3.792  28.305  21.293  0.2689  0.2605  0.2576
16408W        W59346   0.465  26.092  22.087 -0.0644  0.0184  0.1129
16409W        W59347   1.744  26.340  20.249  0.0140  0.2519  0.0939
16410W        W59348   1.695  25.678  20.935  0.1358 -0.1504 -0.0849
16411W        W59349   1.110  27.991  22.355 -0.0254 -0.0975 -0.0046
16412W        W59350  32.605  27.787  19.915 -0.3776 -0.0362 -0.0424
16413W        W59351  34.572  28.343  20.284 -0.0071  0.0844 -0.0104
16414W        W59352   0.441  26.365  21.161  0.1491  0.2567  0.1925
16415W        W59353   1.283  25.539  24.120 -0.2825 -0.1289  0.2059
16416W        W59354   1.042  26.716  24.442 -0.0518 -0.0118 -0.1550
16417W        W59355   0.436  26.820  20.451  0.1101  0.3327 -0.1460
16418W        W59356   0.496  25.517  21.498 -0.3144  0.1517 -0.0504
16419W        W59357   3.696  29.649  20.052 -0.0485  0.2404 -0.0264
16420W        W59358   0.299  26.400  22.469  0.3414  0.1352 -0.1278
16421W        W59359   0.084  26.968  22.902 -0.0886  0.1635  0.0732
16422W        W59360   3.139  26.657  19.910 -0.2521 -0.2717 -0.0944
16423W        W59361   3.616  28.063  20.822  0.2130  0.1737 -0.0484
16424W        W59362   1.097  25.110  19.618  0.1411  0.1637  0.3223
16425W        W59363   2.661  27.149  22.130  0.0254 -0.0474  0.1271
16426W        W59364  33.722  29.100  19.868  0.2452  0.4139 -0.0740
16427W        W59365   1.556  27.371  23.781  0.3545  0.0276  0.2684
16428W        W59366   1.040  25.112  23.468  0.1189  0.2819  0.3967
16429W        W59367   0.137  25.285  21.129  0.0792 -0.1454 -0.0519
16430W        W59368   1.026  26.438  21.835  0.1197 -0.1283  0.0721
16431W        W59369   2.724  28.173  20.455  0.1164 -0.1111 -0.0986
16432W        W59370   3.428  28.617  19.252  0.1976  0.2837 -0.3046
16433W        W59371   1.013  28.277  21.961  0.0900  0.1490  0.2430
16434W        W59372  34.540  27.500  24.582  0.0633  0.2815  0.0167
16435W        W59373  34.489  27.460  23.429 -0.2518 -0.2082 -0.2073
16436W        W59374   1.969  27.145  19.569 -0.1574  0.0318  0.2330
16437W        W59375   0.219  28.206  23.162 -0.0654 -0.0446  0.3223
16438W        W59376   3.410  28.764  21.375  0.1083  0.1350 -0.1097
16439W        W59377   4.567  25.181  24.117  0.2012 -0.0809  0.0658
16440W        W59378   3.117  29.077  20.808  0.2062  0.1979  0.2273
16441W        W59379   0.116  24.872  23.917  0.1156  0.1345  0.1070
16442W        W59380   0.663  27.635  24.074  0.1476  0.2097 -0.3439
16443W        W59381   2.696  27.520  22.791  0.1062 -0.1942 -0.0081
16444W        W59382   2.740  24.166  21.514  0.0822 -0.4044 -0.0344
16445W        W59383   3.320  24.303  20.608 -0.1388  0.1471  0.1001
16446W        W59384   2.743  27.534  20.794  0.0000 -0.1727 -0.0402
16447W        W59385  33.984  28.427  22.997 -0.0793  0.0656 -0.0111
16448W        W59386   1.270  25.434  20.015  0.1548  0.0216  0.2629
16449W        W59387   1.554  28.008  23.119 -0.0296 -0.2800  0.1498
16450W        W59388   2.357  27.664  20.419  0.1347 -0.2961  0.0303
16451W        W59389   2.413  28.437  23.250  0.0355  0.0523 -0.2366
16452W        W59390   1.023  27.242  19.705 -0.0630  0.0933 -0.0947
16453W        W59391   3.413  27.562  21.143  0.0695  0.0153  0.1914
16454W        W59392   2.226  28.198  22.426 -0.0344 -0.1589  0.0619
16455W        W59393   2.416  29.577  23.236 -0.1373 -0.0725 -0.2525
16456W        W59394   2.036  27.969  21.244  0.0091 -0.1920  0.3309
16457W        W59395   3.303  27.400  22.107 -0.0606 -0.2824  0.0651
16458W        W59396  34.623  26.217  22.073  0.0363  0.2128 -0.0530
16459W        W59397   0.119  27.741  19.595 -0.2505 -0.0380  0.0769
16460W        W59398   0.101  27.743  21.591 -0.2207 -0.1449 -0.0524
16461W        W59399   2.662  26.000  22.163 -0.1098 -0.3272 -0.0917
16462W        W59400   0.682  25.514  22.881  0.0357  0.3637 -0.1440
16463W        W59401   2.257  23.677  19.145 -0.1530  0.0136  0.2070
16464W        W59402   1.043  27.362  23.765  0.0323 -0.0805  0.0949
16465W        W59403   2.521  26.706  22.356 -0.1671 -0.0149  0.2420
16466W        W59404   1.727  28.742  27.941  0.1290  0.0721  0.3043
16467W        W59405   1.785  27.821  25.909 -0.1899 -0.0449 -0.0195
16468W        W59406   1.625  26.281  23.718  0.1307 -0.3475  0.0002
16469W        W59407   3.893  26.540  24.882  0.0337  0.0377  0.2088
16470W        W59408  34.503  26.373  24.480 -0.0411  0.1477  0.0599
16471W        W59409   3.135  28.337  23.764  0.3534 -0.1124  0.1347
16472W        W59410   1.008  26.335  27.030  0.1509 -0.2543  0.3733
16473W        W59411   3.961  28.235  25.748 -0.1060  0.0776  0.0666
16474W        W59412   4.324  28.691  26.192 -0.0054  0.0635  0.1293
16475W        W59413   1.808  27.295  24.944 -0.0058  0.3160  0.0421
16476W        W59414   0.723  25.636  26.411  0.1513 -0.2383  0.3515
16477W        W59415   1.250  28.400  26.610 -0.0588  0.1197  0.0634
16478W        W59416   1.476  26.715  24.855  0.1651 -0.1944  0.1249
16479W        W59417  33.450  25.223  24.675 -0.0968  0.2327 -0.3025
16480W        W59418   3.186  26.720  26.090 -0.1477 -0.0039 -0.2746
16481W        W59419  34.197  27.435  25.597 -0.2506  0.0042 -0.0392
16482W        W59420   0.594  27.861  27.531 -0.1019  0.0701  0.2105
16483W        W59421   1.478  26.002  26.061 -0.0474 -0.1484  0.1370
16484W        W59422   1.235  27.931  25.176 -0.1031  0.0565  0.3376
16485W        W59423   2.495  26.010  26.643 -0.2580  0.0520  0.0702
16486W        W59424   2.386  26.578  27.891  0.0016 -0.1685  0.0312
16487W        W59425   1.501  28.411  23.431  0.0028 -0.2879  0.0747
16488W        W59426   0.767  27.450  23.342  0.1385  0.1640  0.0128
16489W        W59427  33.992  26.321  24.851  0.0663 -0.2330 -0.2448
16490W        W59428   1.388  26.503  27.311 -0.0992  0.0072 -0.1243
16491W        W59429   2.447  26.764  27.368  0.0787 -0.0990 -0.2183
16492W        W59430   2.814  26.841  25.740 -0.5374  0.0231  0.0093
16493W        W59431   2.603  29.045  25.435  0.1665 -0.0019 -0.1531
16494W        W59432   2.453  28.265  24.404 -0.0455 -0.2961 -0.0798
16495W        W59433   3.720  26.993  28.509 -0.0189  0.3467  0.0230
16496W        W59434   0.628  28.480  24.574 -0.0496 -0.1105  0.0467
16497W        W59435  34.696  29.749  26.066 -0.0109  0.5355  0.0035
16498W        W59436  34.258  28.004  24.778  0.0457  0.2095  0.2324
16499W        W59437   2.627  27.518  26.362 -0.1421  0.0865  0.0897
16500W        W59438   2.239  28.076  26.866  0.0470  0.1732 -0.0908
16501W        W59439   2.599  28.543  27.692 -0.1692  0.0234 -0.0766
16502W        W59440   0.139  28.675  24.506  0.2532  0.0883  0.1989
16503W        W59441   1.687  29.976  27.421 -0.3285 -0.1155  0.0379
16504W        W59442   1.826  29.305  24.963 -0.0676 -0.1259 -0.2756
16505W        W59443   1.976  27.568  28.866  0.0149  0.1069  0.1507
16506W        W59444   1.878  26.666  26.769  0.0960  0.0299 -0.1496
16507W        W59445   2.324  27.794  25.120  0.1981  0.0092 -0.0701
16508W        W59446   1.695  27.425  24.332 -0.0973 -0.0076  0.0922
16509W        W59447   1.315  29.785  26.832  0.2061  0.1627  0.1036
16510W        W59448   0.917  28.157  26.299 -0.3107  0.0345  0.2819
16511W        W59449   2.969  26.611  28.175 -0.1017 -0.1722  0.0806
16512W        W59450   1.840  28.379  23.897 -0.0868  0.0689 -0.3228
16513W        W59451   3.343  26.445  23.718 -0.2869  0.0147 -0.2825
16514W        W59452   1.879  26.335  23.221 -0.0773  0.1484 -0.2757
16515W        W59453   2.998  26.132  23.413  0.0365 -0.1177 -0.3598
16516W        W59454   2.638  23.800  25.185  0.2014  0.0955 -0.0576
16517W        W59455   1.381  28.969  24.598 -0.1700 -0.1587 -0.1066
16518W        W59456   0.279  25.873  26.308 -0.0139  0.2010 -0.1445
16519W        W59457   4.091  27.774  25.760  0.1436 -0.0100 -0.2990
16520W        W59458   0.467  27.392  26.626  0.0635  0.0579  0.1969
16521W        W59459   0.446  26.854  26.922  0.1033  0.2399 -0.2335
16522W        W59460   0.665  28.686  26.214 -0.1271  0.0848  0.0980
16523W        W59461   0.311  27.970  25.404 -0.0601 -0.6121  0.1175
16524W        W59462   1.875  29.544  22.493  0.2031 -0.1071 -0.0125
16525W        W59463   2.970  28.812  25.639  0.0848 -0.0297  0.3399
16526W        W59464   1.804  26.960  24.221  0.3780 -0.4034 -0.3512
16527W        W59465   1.817  26.809  25.793 -0.3609  0.1963 -0.0933
16528W        W59466   0.984  29.683  25.435  0.3840  0.0138 -0.1584
16529W        W59467   0.426  27.995  27.083  0.1041  0.2372  0.2066
16530W        W59468   2.448  26.296  24.781 -0.0224 -0.4148 -0.1483
16531W        W59469   4.035  28.334  26.982  0.0102 -0.0626 -0.5421
16532W        W59470  34.102  27.640  27.285  0.2068 -0.3002  0.4025
16533W        W59471   2.593  26.527  25.219  0.0405 -0.1855 -0.0680
16534W        W59472   2.303  28.341  26.030 -0.1523  0.0010  0.4147
16535W        W59473   1.839  27.153  26.800  0.3658 -0.0087  0.1501
16536W        W59474   2.209  26.739  25.540  0.0052 -0.0401 -0.1173
16537W        W59475   3.954  26.269  26.439 -0.0943  0.1527  0.0209
16538W        W59476   1.675  26.519  26.278 -0.1076 -0.0681 -0.2454
16539W        W59477   0.440  28.146  24.224  0.1287  0.0035  0.2601
16540W        W59478   0.939  28.117  24.313  0.3795  0.0936  0.2713
16541W        W59479   3.325  28.548  26.304  0.0304  0.2783 -0.0850
16542W        W59480   3.785  28.252  24.343  0.0725  0.0931  0.3672
16543W        W59481   0.881  29.532  26.467 -0.1284  0.2317  0.2027
16544W        W59482   0.845  27.423  27.516  0.2825 -0.1702  0.2739
16545W        W59483   2.267  28.601  27.266 -0.1616 -0.1753 -0.0946
16546W        W59484   0.798  28.327  23.789 -0.3723 -0.1027 -0.0521
16547W        W59485  33.923  27.482  24.742  0.0812 -0.2511 -0.1847
16548W        W59486   0.655  28.690  25.142  0.3865 -0.0767 -0.1864
16549W        W59487   0.114  25.622  25.921 -0.3409 -0.3264 -0.0700
16550W        W59488   1.118  27.759  28.291  0.1037  0.2215  0.3962
16551W        W59489   3.999  25.300  24.175 -0.1133  0.1002  0.2906
16552W        W59490   0.279  26.145  25.221 -0.0455  0.0006 -0.0956
16553W        W59491   2.795  24.647  24.868 -0.0636  0.1311  0.2319
16554W        W59492   0.261  26.668  25.894  0.1568  0.0383 -0.0252
16555W        W59493   2.876  30.464  24.857  0.0452  0.1797 -0.1533
16556W        W59494   3.312  27.826  23.599  0.0505 -0.4750 -0.0157
16557W        W59495   2.379  27.318  24.872 -0.0328  0.0755 -0.5749
16558W        W59496  34.446  28.072  25.351  0.2798  0.2198 -0.1994
16559W        W59497   0.444  27.586  25.671 -0.2343 -0.2917 -0.0673
16560W        W59498  34.379  27.636  27.822  0.0039  0.3043  0.1573
16561W        W59499   0.731  25.370  25.600  0.2547  0.0691 -0.1934
16562W        W59500   3.435  25.524  27.968  0.2621  0.1534 -0.1582
16563W        W59501   1.325  26.284  24.486  0.0927 -0.0084 -0.0985
16564W        W59502   3.230  26.233  26.183  0.1951  0.1599 -0.1635
16565W        W59503   0.628  27.676  26.197  0.1224  0.0733 -0.3971
16566W        W59504   0.979  27.394  25.758 -0.2196 -0.3966  0.2272
16567W        W59505   2.434  26.240  27.481  0.2316 -0.0030 -0.0341
16568W        W59506   1.530  28.727  24.170  0.0405 -0.0324 -0.2271
16569W        W59507   4.673  28.783  27.653 -0.0049 -0.1423 -0.0264
16570W        W59508   4.040  28.037  23.966  0.1119  0.1178 -0.3037
16571W        W59509  34.225  26.605  27.178  0.0778 -0.4573  0.0124
16572W        W59510   0.373  27.249  26.114 -0.1728 -0.2570  0.0459
16573W        W59511   0.181  29.526  26.473 -0.0430  0.0464  0.0310
16574W        W59512   1.573  28.161  25.584 -0.2356  0.3896 -0.0400
16575W        W59513  34.604  27.107  25.763  0.1936 -0.1205 -0.1862
16576W        W59514   3.764  29.643  26.983 -0.2344 -0.0537 -0.0282
16577W        W59515   0.363  27.527  24.522 -0.1055  0.3420  0.0267
16578W        W59516   0.524  29.411  26.896 -0.1052  0.1870  0.0545
16579W        W59517   1.322  25.559  26.821  0.1134  0.1649  0.3896
16580W        W59518   3.298  26.026  25.315  0.1004  0.0804  0.1456
16581W        W59519   2.931  27.137  26.131  0.0738  0.2678 -0.2373
16582W        W59520   0.796  26.263  24.586  0.2008 -0.0441 -0.0565
16583W        W59521   3.111  29.292  25.815 -0.1070 -0.1215 -0.1595
16584W        W59522   0.426  29.217  24.241  0.1751  0.0097  0.2247
16585W        W59523   1.125  26.146  26.499 -0.0868  0.1644  0.0394
16586W        W59524   2.273  29.896  25.420  0.1367  0.1857  0.2111
16587W        W59525   4.430  26.162  25.691  0.4047 -0.1193  0.0377
16588W        W59526  34.509  28.255  28.521 -0.0079 -0.3952  0.5267
16589W        W59527   2.734  25.497  27.223  0.0118 -0.0049  0.2554
16590W        W59528   0.577  26.412  25.606  0.1709  0.0017 -0.0804
16591W        W59529   0.863  26.900  27.187 -0.1141  0.1590 -0.2427
16592W        W59530   3.276  26.027  24.498 -0.0277  0.1392  0.0299
16593W        W59531   3.621  26.180  24.137 -0.0306  0.1319  0.4238
16594W        W59532   1.966  26.434  27.663 -0.0467 -0.2851 -0.0687
16595W        W59533   2.784  28.397  26.017 -0.0152  0.1086 -0.1726
16596W        W59534   1.562  25.365  25.055 -0.0855  0.2654 -0.1545
16597W        W59535   3.105  25.956  24.035 -0.2405  0.0134  0.1655
16598W        W59536   1.157  29.242  26.170 -0.1770  0.3112  0.1577
16599W        W59537   2.096  27.558  25.560 -0.3381 -0.0514 -0.1168
16600W        W59538   2.126  27.649  24.617  0.1533  0.1818  0.1962
16601W        W59539   2.749  26.072  25.216  0.0316 -0.1471  0.1188
16602W        W59540   2.930  27.938  24.369  0.1458 -0.3458  0.3649
16603W        W59541   0.364  27.435  25.118  0.0502 -0.4341  0.0354
16604W        W59542   2.077  27.917  28.017 -0.0016  0.0053  0.2236
16605W        W59543   1.933  28.484  24.442 -0.0730  0.2151 -0.0186
16606W        W59544   3.774  26.537  27.505 -0.0513  0.0843 -0.3190
16607W        W59545   1.901  25.892  22.895 -0.1448 -0.1017 -0.3807
16608W        W59546   2.497  25.738  24.894  0.0068 -0.1996 -0.1553
16609W        W59547   1.717  28.927  23.783 -0.4098  0.1594  0.3410
16610W        W59548   2.413  26.230  25.679 -0.3856 -0.1096  0.2938
16611W        W59549   2.737  26.030  27.159 -0.0778  0.0344  0.1190
16612W        W59550   2.229  24.380  27.141  0.1997  0.0670  0.1388
16613W        W59551   3.943  26.531  28.105  0.0671 -0.0432 -0.0101
16614W        W59552   2.666  26.525  23.897  0.2185  0.0149  0.0048
16615W        W59553   1.839  27.368  27.471  0.0903 -0.0985 -0.1394
16616W        W59554  34.459  27.875  24.310  0.0198  0.0244  0.0723
16617W        W59555   2.803  26.487  26.719  0.1995  0.0595  0.0021
16618W        W59556   1.261  27.518  26.151  0.2630  0.2874  0.0555
16619W        W59557   1.822  28.583  25.619  0.3717  0.0279  0.0683
16620W        W59558   2.359  27.680  27.189  0.2434 -0.0255  0.0152
16621W        W59559   3.373  26.818  24.949  0.1113  0.0947 -0.1124
16622W        W59560   2.305  26.389  27.022 -0.0052 -0.2183  0.0408
16623W        W59561   2.590  26.020  23.917  0.2471  0.3211 -0.1714
16624W        W59562   1.936  29.320  23.018  0.0259  0.1624  0.0509
16625W        W59563  34.348  26.965  23.207  0.0259 -0.0041 -0.1006
16626W        W59564   1.710  24.497  27.091  0.0816 -0.0841 -0.1308
16627W        W59565   3.034  28.127  27.156  0.0394 -0.1504 -0.5300
16628W        W59566   1.428  27.121  24.602  0.0494  0.1281 -0.2396
16629W        W59567   1.490  26.557  27.913 -0.3091  0.0048  0.1495
16630W        W59568   1.148  28.423  25.782  0.0090  0.1872 -0.1082
16631W        W59569   3.966  25.160  27.260  0.1273 -0.2196  0.0696
16632W        W59570   0.106  27.052  27.238  0.1158  0.1334  0.1323
16633W        W59571   2.175  27.219  23.621  0.0595  0.0490  0.2289
16634W        W59572  34.194  29.086  24.728 -0.1490 -0.1949  0.3089
16635W        W59573   3.391  27.045  27.621 -0.0171  0.1768 -0.0706
16636W        W59574   2.628  27.752  24.699 -0.1003  0.1444  0.2595
16637W        W59575   0.596  25.920  24.825 -0.0362 -0.0950  0.2872
16638W        W59576   2.002  25.787  25.827  0.1338 -0.2875 -0.0492
16639W        W59577  34.104  28.089  27.004 -0.3794  0.1290 -0.0508
16640W        W59578   1.843  27.702  26.991 -0.2684 -0.2705  0.1730
16641W        W59579   2.425  25.187  23.485  0.0705 -0.1571 -0.1475
16642W        W59580   1.571  27.843  27.353  0.1740  0.0179 -0.1805
16643W        W59581   2.839  26.266  27.792 -0.2311  0.3040  0.4203
16644W        W59582  34.327  27.039  24.704  0.1803  0.4570 -0.1235
16645W        W59583   4.071  26.241  25.441 -0.1210  0.1775  0.0275
16646W        W59584   1.215  26.718  26.345  0.0894 -0.0510 -0.0613
16647W        W59585   0.151  29.339  25.175 -0.4060  0.2592 -0.2690
16648W        W59586   2.106  30.077  26.974  0.1962 -0.2529 -0.2143
16649W        W59587   0.126  26.736  24.225  0.0718 -0.1916 -0.3150
16650W        W59588   0.780  28.211  25.322  0.2816 -0.1691  0.0537
16651W        W59589   1.153  28.956  26.625  0.0036 -0.0319 -0.0185
16652W        W59590   3.610  26.657  26.354  0.0436  0.4026 -0.2318
16653W        W59591   0.918  26.721  25.445  0.0652  0.0811 -0.1791
16654W        W59592   0.758  26.686  26.016  0.0603 -0.4472  0.0905
16655W        W59593   1.774  25.739  26.306  0.1331 -0.0124  0.2308
16656W        W59594   1.356  27.379  27.117 -0.1008  0.2938  0.0049
16657W        W59595   2.044  28.027  27.530 -0.1819  0.1401 -0.1841
16658W        W59596   0.954  28.932  27.080  0.0713 -0.1011 -0.0851
16659W        W59597   2.069  25.585  26.772 -0.1171  0.2677 -0.0697
16660W        W59598   5.285  29.628  24.419  0.0102  0.1318 -0.3072
16661W        W59599   3.887  27.966  27.567  0.0597 -0.2899 -0.0418
16662W        W59600   0.845  27.140  26.224 -0.0262 -0.2496 -0.0186
16663W        W59601  34.517  26.877  26.138  0.2678  0.0234 -0.3353
16664W        W59602   0.084  28.829  25.328  0.1126 -0.3121  0.0869
16665W        W59603   2.309  26.490  26.504  0.0945  0.0475  0.1303
16666W        W59604   1.411  27.968  26.296 -0.1035  0.0507 -0.2739
16667W        W59605  34.695  28.387  24.130  0.3600  0.2631  0.0721
16668W        W59606   0.541  28.474  27.153 -0.2219 -0.0939 -0.0784
16669W        W59607   3.833  25.951  25.046 -0.0573  0.2080  0.0355
16670W        W59608   2.161  26.792  25.060  0.1354  0.0898 -0.1160
16671W        W59609   1.505  24.828  26.351 -0.2611 -0.1155 -0.3307
16672W        W59610   1.400  26.486  26.759 -0.0202  0.1955  0.0987
16673W        W59611   2.590  26.819  24.315 -0.2188  0.0736 -0.1256
16674W        W59612   1.687  25.643  27.163 -0.2687 -0.0408  0.2189
16675W        W59613   0.185  25.288  26.292  0.0132 -0.1667  0.0523
16676W        W59614   1.648  28.388  26.131 -0.3083  0.2231 -0.0848
16677W        W59615   0.204  25.710  27.725  0.1193  0.0879  0.2613
16678W        W59616   2.763  29.615  28.630 -0.1834 -0.0069 -0.1508
16679W        W59617   1.645  28.788  26.483  0.0488  0.1478 -0.3560
16680W        W59618   1.854  27.973  26.453 -0.2085 -0.5178 -0.0611
16681W        W59619   1.195  26.011  23.726  0.0917  0.2007 -0.1322
16682W        W59620   2.880  28.331  26.489  0.1535  0.1790 -0.0942
16683W        W59621   2.478  28.724  26.392  0.1553  0.1555  0.0708
16684W        W59622   0.914  27.748  24.644  0.0581 -0.1157  0.3459
16685W        W59623   4.588  24.964  27.034  0.1512 -0.0125  0.2164
16686W        W59624   1.393  27.892  26.808 -0.1962  0.0218 -0.2091
16687W        W59625   2.532  25.946  23.022  0.1904  0.0480  0.1341
16688W        W59626   2.397  27.058  25.892  0.1019 -0.0868 -0.1503
16689W        W59627   0.035  27.037  26.759  0.0935 -0.2313 -0.0520
16690W        W59628   0.004  27.812  27.393  0.1636 -0.0395 -0.0489
16691W        W59629   2.025  27.496  26.227  0.0114  0.0442 -0.1322
16692W        W59630   2.961  26.356  25.746 -0.1824  0.1500 -0.2500
16693W        W59631   1.766  24.971  27.130  0.0171 -0.1451  0.1141
16694W        W59632   2.373  26.865  26.892 -0.2274  0.1463  0.3137
16695W        W59633   2.483  28.103  27.842  0.2097 -0.0483  0.1343
16696W        W59634  34.312  25.245  28.096  0.2253 -0.0530 -0.2150
16697W        W59635   3.434  29.063  26.890 -0.1522  0.0797  0.0420
16698W        W59636   3.042  27.118  22.684  0.0591 -0.0310  0.1667
16699W        W59637   3.718  27.520  27.726 -0.0829 -0.1925  0.1518
16700W        W59638   2.961  25.682  26.167 -0.0722 -0.0603  0.0071
16701W        W59639   3.566  25.365  23.730 -0.0735  0.2583 -0.3698
16702W        W59640  34.446  26.130  27.060 -0.1586 -0.4401 -0.0324
16703W        W59641   3.323  26.543  27.822  0.0251  0.0290  0.0070
16704W        W59642   1.848  26.337  25.815  0.0641 -0.1715  0.1232
16705W        W59643   1.728  23.999  27.254 -0.2884 -0.2526  0.5139
16706W        W59644   2.432  27.163  25.354  0.1012 -0.0397 -0.0705
16707W        W59645   1.675  27.268  25.791  0.2791  0.0413  0.0105
16708W        W59646   1.793  26.865  27.261 -0.2272  0.0141  0.0809
16709W        W59647  33.872  26.246  24.369  0.3505  0.3098 -0.1247
16710W        W59648   2.531  29.325  28.302  0.2748  0.4735 -0.2605
16711W        W59649  34.131  27.765  23.497 -0.1435  0.0687  0.0065
16712W        W59650   1.258  26.989  25.954 -0.1298 -0.1164 -0.2398
16713W        W59651   2.574  28.469  26.918  0.2873  0.1912 -0.1251
16714W        W59652   4.717  28.177  27.590 -0.3245  0.2268  0.0225
16715W        W59653   1.638  25.964  24.219 -0.0999 -0.1770 -0.1324
16716W        W59654   3.653  25.963  26.184  0.0072 -0.0358  0.0349
16717W        W59655   1.061  27.836  23.835  0.1924  0.0781 -0.0388
16718W        W59656   1.858  26.087  26.666 -0.0077 -0.2710 -0.3938
16719W        W59657   0.825  29.551  25.990 -0.0713  0.2717 -0.1488
16720W        W59658   0.059  28.789  27.233 -0.0088  0.1941  0.0650
16721W        W59659   2.598  27.832  25.551 -0.1811  0.1860  0.0649
16722W        W59660   1.304  24.862  27.380 -0.0127  0.0830 -0.0088
16723W        W59661   2.714  26.682  26.225  0.0051  0.0865 -0.0656
16724W        W59662   1.863  28.079  24.734 -0.0032 -0.0334  0.0945
16725W        W59663   2.874  26.838  27.682  0.0972  0.5084  0.0337
16726W        W59664   1.806  28.197  27.055  0.1379 -0.3265  0.0262
16727W        W59665   0.281  27.997  25.966  0.0092  0.0727 -0.1326
16728W        W59666   3.176  27.638  27.028 -0.0816 -0.2742  0.3157
16729W        W59667   3.544  26.519  24.460  0.0941  0.0010 -0.1466
16730W        W59668   0.558  29.019  24.784 -0.0054  0.3996  0.0855
16731W        W59669   0.598  27.598  28.932 -0.2522  0.0493 -0.0542
16732W        W59670   3.008  28.202  27.697 -0.0145  0.0536 -0.0393
16733W        W59671   1.165  27.473  24.989 -0.1463  0.1109  0.1568
16734W        W59672   1.196  25.746  25.149 -0.0212  0.1228  0.0084
16735W        W59673   1.712  26.606  25.367  0.2967 -0.0593  0.1762
16736W        W59674  34.111  28.570  27.352  0.1666 -0.0953  0.1627
16737W        W59675   1.032  27.638  26.549 -0.3711  0.0924  0.0864
16738W        W59676  34.677  27.138  25.150 -0.0829 -0.2262  0.1243
16739W        W59677   2.152  28.660  23.636  0.0464 -0.1233  0.0354
16740W        W59678   1.995  28.195  23.411 -0.0574  0.1353  0.0842
16741W        W59679   3.829  27.836  27.048  0.2955  0.2551 -0.2928
16742W        W59680   0.925  25.444  23.816  0.2941 -0.1040  0.1891
16743W        W59681   0.922  29.167  24.157 -0.0652 -0.0423 -0.0926
16744W        W59682  34.550  27.220  24.157  0.3003 -0.1428 -0.0076
16745W        W59683   2.422  28.009  22.942 -0.1054 -0.1378 -0.3017
16746W        W59684   1.543  28.876  25.293 -0.0067  0.1418  0.1232
16747W        W59685   3.370  27.882  27.423 -0.1027 -0.1242  0.2330
16748W        W59686   3.129  25.835  23.005 -0.2881 -0.1964  0.0217
16749W        W59687   3.533  25.986  26.691  0.1064 -0.1992 -0.2538
16750W        W59688   2.794  25.277  24.779 -0.5247  0.1433  0.2823
16751W        W59689   2.595  29.765  27.719  0.0936  0.2170 -0.0142
16752W        W59690   1.403  26.966  26.735  0.1429  0.1332  0.0615
16753W        W59691   2.097  25.939  24.590  0.2114 -0.1458  0.2106
16754W        W59692   0.413  28.026  26.576 -0.3661  0.0830 -0.0314
16755W        W59693   3.073  25.362  27.634  0.0520  0.1126 -0.0182
16756W        W59694   0.373  29.164  27.326 -0.2814  0.1013  0.0130
16757W        W59695   2.552  28.588  25.162  0.3041 -0.1020  0.1229
16758W        W59696  34.355  26.410  25.220 -0.0729 -0.1681  0.1003
16759W        W59697   1.109  27.812  27.260 -0.3152 -0.3236  0.0103
16760W        W59698   4.283  26.663  27.192  0.0597  0.0909 -0.1031
16761W        W59699  34.304  27.645  23.908  0.0810 -0.1484 -0.0788
16762W        W59700   2.960  25.875  25.724  0.0164 -0.2509 -0.0991
16763W        W59701   0.766  27.743  25.276 -0.0023  0.1641  0.0171
16764W        W59702   1.355  29.518  25.074 -0.3521 -0.0813 -0.0077
16765W        W59703   1.464  30.059  25.751  0.2060  0.1079 -0.2320
16766W        W59704   0.473  26.642  23.871 -0.2183 -0.0048 -0.1219
16767W        W59705   3.356  25.119  25.930 -0.3029 -0.3231  0.1115
16768W        W59706   0.213  26.633  26.542  0.0640 -0.1064  0.1615
16769W        W59707   2.219  26.572  26.009 -0.1538  0.3068 -0.0092
16770W        W59708   1.321  26.472  25.829 -0.1173 -0.0524 -0.1875
16771W        W59709   2.230  26.841  24.001  0.1119 -0.1388  0.0379
16772W        W59710   2.325  27.769  25.956  0.0464 -0.1981 -0.1039
16773W        W59711   0.807  27.520  26.970 -0.0300  0.1294  0.2188
16774W        W59712   2.719  25.096  23.868 -0.0962 -0.0005 -0.1123
16775W        W59713   2.571  27.055  26.500  0.0797  0.2294  0.2277
16776W        W59714   1.824  27.580  23.231  0.2108  0.1005 -0.1926
16777W        W59715   2.394  28.014  26.404 -0.1299  0.2740  0.2786
16778W        W59716   1.204  25.681  26.351  0.2462 -0.2818  0.1686
16779W        W59717   2.812  25.579  26.683 -0.1118 -0.2897  0.0010
16780W        W59718   0.007  28.995  24.854  0.1139 -0.1105 -0.3119
16781W        W59719   1.938  28.848  26.058  0.0536  0.2919  0.1121
16782W        W59720   2.088  29.120  27.286  0.0994 -0.2200 -0.1941
16783W        W59721   0.585  25.165  24.723  0.2360 -0.1325  0.4274
16784W        W59722   3.750  27.819  24.583  0.0814 -0.0858  0.5345
16785W        W59723   3.478  25.116  25.387 -0.1384  0.1070 -0.1180
16786W        W59724   2.293  28.135  23.811  0.1468  0.0775 -0.2537
16787W        W59725   3.270  26.844  25.620  0.0149 -0.0480 -0.0079
16788W        W59726   3.131  28.580  26.856  0.0336 -0.0096 -0.0676
16789W        W59727  34.441  24.843  25.511  0.1469  0.1559 -0.1031
16790W        W59728   4.018  28.446  26.519  0.2048  0.2770  0.0056
16791W        W59729   3.160  27.778  25.486  0.2403 -0.1270 -0.3587
16792W        W59730   2.005  25.273  25.403  0.2481  0.0742  0.1382
16793W        W59731   0.475  26.989  27.542 -0.1797  0.0865 -0.1226
16794W        W59732   1.009  28.228  24.775  0.1080 -0.1160  0.2314
16795W        W59733   1.025  26.187  25.439  0.1648  0.1169 -0.0832
16796W        W59734   4.184  24.807  26.742  0.0846  0.1185 -0.3159
16797W        W59735   0.103  27.624  24.080  0.3770 -0.1177 -0.1600
16798W        W59736   1.990  24.636  27.510 -0.1881  0.1290 -0.0129
16799W        W59737   2.834  27.748  27.510  0.4588  0.2452  0.2170
16800W        W59738   1.219  28.575  28.772 -0.5263  0.1680 -0.4349
16801W        W59739  34.584  29.492  24.253 -0.0823 -0.0047 -0.1886
16802W        W59740   0.624  28.625  25.628 -0.1107  0.1586 -0.3751
16803W        W59741   0.468  27.893  24.865 -0.2252  0.4831  0.1791
16804W        W59742   2.573  27.222  23.883  0.0329  0.2038 -0.4101
16805W        W59743   2.792  27.536  25.202 -0.0903 -0.3038 -0.0054
16806W        W59744   1.310  27.000  25.287 -0.1786  0.1263 -0.2286
16807W        W59745   3.371  28.069  26.707 -0.1575  0.0961  0.1213
16808W        W59746   1.040  25.210  26.520  0.1055  0.0544  0.0826
16809W        W59747   4.123  26.088  24.201 -0.0666  0.0755  0.2359
16810W        W59748   3.300  25.236  24.954  0.2474 -0.3128  0.1041
16811W        W59749   2.233  27.571  27.644  0.0610  0.3783 -0.0169
16812W        W59750  34.206  25.611  25.616  0.1655 -0.1479 -0.1226
16813W        W59751   0.172  27.094  24.610  0.0112 -0.2828  0.1654
16814W        W59752   0.161  28.469  26.182 -0.0117  0.2092  0.3714
16815W        W59753   0.850  25.526  26.856 -0.3078 -0.0915  0.1229
16816W        W59754   0.218  27.463  27.656  0.1356 -0.1994  0.2289
16817W        W59755  34.482  26.528  25.782  0.3154 -0.0304 -0.1502
16818W        W59756   1.840  26.391  24.878 -0.4210 -0.0657 -0.0227
16819W        W59757   2.387  28.209  24.894  0.3189 -0.0361  0.1064
16820W        W59758   1.313  24.503  25.949  0.4026 -0.0951  0.1502
16821W        W59759   0.644  25.206  26.149  0.4332  0.1780 -0.0830
16822W        W59760   3.361  28.206  24.782  0.0345 -0.2174 -0.0743
16823W        W59761   1.769  27.928  25.201  0.2506 -0.0453 -0.2022
16824W        W59762   3.456  25.658  25.772  0.0023  0.2409  0.0167
16825W        W59763   4.595  27.741  28.441  0.0574  0.0318 -0.3104
16826W        W59764   0.358  27.133  23.912  0.2022  0.1796 -0.0266
16827W        W59765   2.065  26.959  27.744 -0.0193 -0.1393  0.0125
16828W        W59766   0.743  27.456  28.475  0.0608 -0.0674  0.2557
16829W        W59767   0.978  25.937  24.188  0.2333  0.2208  0.1760
16830W        W59768   1.670  27.095  26.296  0.1889 -0.0692 -0.2643
16831W        W59769   2.758  27.321  24.410 -0.2202  0.0505 -0.1321
16832W        W59770   4.477  28.237  23.995  0.0943  0.0409 -0.2283
16833W        W59771   3.643  29.169  25.914 -0.0596  0.2245  0.3325
16834W        W59772   2.140  29.131  26.400  0.0312  0.3237 -0.0444
16835W        W59773  34.461  25.619  26.393  0.2435  0.3893  0.0864
16836W        W59774   3.137  26.602  22.675  0.0471  0.0706  0.1488
16837W        W59775   2.047  28.795  26.868  0.2652 -0.0202 -0.4399
16838W        W59776   1.564  27.509  25.345 -0.1954 -0.0385 -0.0093
16839W        W59777   3.915  25.049  26.349 -0.0521 -0.2332  0.1294
16840W        W59778   0.846  27.215  24.609  0.0537 -0.1054  0.0825
16841W        W59779  34.477  25.224  26.046  0.1221 -0.3708 -0.1220
16842W        W59780   0.016  28.277  27.117  0.2929  0.2053  0.0605
16843W        W59781   3.369  26.646  27.206  0.0004  0.0598 -0.2144
16844W        W59782   1.847  24.199  25.644 -0.0564  0.3804  0.3186
16845W        W59783   3.732  25.557  25.271 -0.0954  0.1382  0.0599
16846W        W59784   1.517  27.842  24.168  0.0193  0.0460 -0.1121
16847W        W59785   0.742  26.597  26.545 -0.0818 -0.1507  0.1275
16848W        W59786   2.565  26.385  23.229  0.2139  0.0164 -0.2502
16849W        W59787   3.218  25.746  27.053  0.0597  0.2645  0.2277
16850W        W59788   1.533  27.476  26.594 -0.1469 -0.0059 -0.1836
16851W        W59789   2.863  26.873  27.071  0.0455  0.0760  0.0334
16852W        W59790   1.492  26.683  23.077  0.0817 -0.2308 -0.0243
16853W        W59791   2.734  28.920  23.095  0.1448  0.0307  0.0047
16854W        W59792   1.740  29.667  25.386 -0.0814 -0.1567  0.1107
16855W        W59793   2.982  29.364  27.607 -0.3745 -0.1298 -0.0689
16856W        W59794   1.684  29.235  26.657 -0.2329  0.1710  0.1084
16857W        W59795   3.930  27.093  26.310  0.0268  0.2675 -0.0656
16858W        W59796   0.719  24.397  26.253  0.1293  0.3226  0.3921
16859W        W59797   1.204  27.879  25.761 -0.0623  0.1349  0.0203
16860W        W59798   0.891  27.030  26.686  0.3243 -0.2252  0.2798
16861W        W59799   3.026  26.015  26.623  0.0003  0.1811  0.0004
16862W        W59800  34.109  27.043  25.886 -0.1259  0.1504 -0.1267
16863W        W59801   2.687  26.834  24.801 -0.0420  0.1497 -0.4231
16864W        W59802   1.408  29.680  26.267 -0.0623 -0.0602 -0.0166
16865W        W59803   3.555  28.240  27.160 -0.2933  0.0996  0.1202
16866W        W59804   0.804  28.416  30.164 -0.2310  0.2425  0.0491
16867W        W59805   0.532  27.040  28.625 -0.3318 -0.0511  0.1463
16868W        W59806   3.099  25.227  28.679  0.1165  0.0732  0.0986
16869W        W59807   4.118  27.336  29.509  0.0663 -0.1099 -0.0543
16870W        W59808  33.785  26.635  28.550  0.1980  0.0214 -0.0200
16871W        W59809   2.731  28.846  28.532 -0.1326  0.0807 -0.1400
16872W        W59810   0.153  25.919  28.784 -0.2855 -0.0052 -0.0070
16873W        W59811   2.396  28.630  29.922 -0.2754  0.1213 -0.2521
16874W        W59812   3.588  29.316  30.056  0.0570  0.1071 -0.1958
16875W        W59813   2.587  27.465  28.540  0.0556  0.2672  0.0276
16876W        W59814   2.097  26.518  29.739  0.2203 -0.0958 -0.2040
16877W        W59815   3.236  28.827  30.458  0.0770 -0.1664  0.1232
16878W        W59816  34.520  27.800  28.358  0.1163  0.1461  0.0986
16879W        W59817   0.326  25.928  29.655 -0.0256  0.2542 -0.1675
16880W        W59818   4.334  28.733  30.960 -0.1932 -0.0843 -0.2400
16881W        W59819   0.142  28.440  28.911 -0.0360 -0.2081 -0.1308
16882W        W59820   2.658  25.197  29.783 -0.0322 -0.1913  0.0440
16883W        W59821   1.352  27.445  27.643  0.0370  0.1095  0.1033
16884W        W59822   1.754  29.764  29.733 -0.2704  0.0519  0.1475
16885W        W59823   1.354  26.748  30.772 -0.0606 -0.1119 -0.2697
16886W        W59824   2.798  27.377  30.387 -0.1502  0.1748  0.0095
16887W        W59825   2.250  28.870  28.325  0.0079  0.0858 -0.3195
16888W        W59826  34.199  28.038  27.533  0.1000 -0.2584  0.0946
16889W        W59827   0.967  28.072  29.124 -0.1787  0.1929 -0.2758
16890W        W59828   0.944  27.108  29.032 -0.2118 -0.3674 -0.1696
16891W        W59829   1.267  26.771  29.937 -0.0191 -0.2368 -0.2062
16892W        W59830   3.134  28.141  30.376 -0.0092 -0.0844  0.0359
16893W        W59831   2.099  28.962  29.682 -0.0155  0.1384 -0.2603
16894W        W59832   2.954  29.357  31.237  0.0579  0.3064 -0.2771
16895W        W59833   2.924  26.432  31.582  0.1681  0.1586 -0.0537
16896W        W59834   1.589  27.778  29.609 -0.0226 -0.3878  0.0874
16897W        W59835   0.283  29.705  28.511  0.0728 -0.1168  0.2073
16898W        W59836   1.128  29.147  27.531 -0.2837 -0.0245  0.0195
16899W        W59837   3.877  26.589  29.958 -0.2843  0.0231 -0.0877
16900W        W59838   4.273  29.674  29.501 -0.0495  0.1463  0.2825
16901W        W59839   2.947  29.066  31.963  0.1624 -0.0583 -0.1905
16902W        W59840   1.088  28.727  29.300  0.1498  0.0164  0.0385
16903W        W59841   1.835  28.601  31.825  0.1001 -0.0819 -0.1911
16904W        W59842   2.136  30.797  31.082 -0.0503  0.4942 -0.2151
16905W        W59843   1.063  28.139  30.545 -0.1038  0.0783 -0.0927
16906W        W59844   1.584  26.313  29.930 -0.0938 -0.0637 -0.3173
16907W        W59845   1.978  27.360  28.061 -0.0440 -0.2631 -0.0069
16908W        W59846   2.064  28.341  28.422 -0.0919 -0.2091  0.4899
16909W        W59847   1.395  28.363  30.924  0.0329  0.2532  0.1461
16910W        W59848  34.252  29.396  29.336 -0.4855  0.1915  0.0402
16911W        W59849   4.518  26.212  31.846 -0.0363  0.1835  0.0191
16912W        W59850   1.448  29.021  28.686  0.1066 -0.1720 -0.2262
16913W        W59851   2.731  24.651  28.212  0.0543  0.1887  0.2092
16914W        W59852   1.094  27.287  28.083  0.0015  0.1074 -0.1688
16915W        W59853   3.285  25.669  28.451  0.0376  0.0758 -0.0253
16916W        W59854   0.413  26.105  27.838 -0.2904 -0.0768  0.0572
16917W        W59855   1.645  29.304  29.532 -0.2389  0.0792 -0.1487
16918W        W59856   0.775  27.059  30.220 -0.2290 -0.1371 -0.3313
16919W        W59857   3.382  29.194  30.814 -0.1197 -0.2084  0.0984
16920W        W59858   1.551  27.491  28.498 -0.2258  0.1432 -0.2256
16921W        W59859   3.713  26.390  30.404  0.1571  0.1287  0.0583
16922W        W59860   1.569  28.798  29.352 -0.0300 -0.2040  0.1912
16923W        W59861   0.950  27.084  29.744 -0.0354  0.1889 -0.2410
16924W        W59862   4.184  29.359  28.398  0.2197  0.1814 -0.1369
16925W        W59863   3.349  28.127  28.810  0.1247 -0.2618  0.2177
16926W        W59864   3.017  29.199  28.157 -0.2120 -0.2713 -0.2318
16927W        W59865   0.786  26.499  29.683  0.0136  0.4509 -0.1827
16928W        W59866  34.168  28.185  30.983 -0.1046 -0.2135  0.1315
16929W        W59867   0.677  27.726  30.809  0.3425 -0.1389  0.0540
16930W        W59868   1.477  26.056  26.974  0.0034 -0.0728  0.2484
16931W        W59869   5.350  27.801  31.390  0.0948  0.1213  0.0754
16932W        W59870   0.552  29.585  31.124 -0.2106  0.0197  0.2433
16933W        W59871   3.171  27.012  28.656  0.1226  0.5488 -0.0689
16934W        W59872   1.516  28.503  30.253  0.0815 -0.0941  0.2476
16935W        W59873   2.930  28.976  30.922  0.1121 -0.1446  0.1499
16936W        W59874   2.945  27.222  27.419  0.1197 -0.1452 -0.1100
16937W        W59875   3.091  23.930  30.324  0.0358 -0.2259 -0.1076
16938W        W59876   2.563  26.208  29.740  0.1437 -0.0108  0.2740
16939W        W59877   0.673  29.707  28.090 -0.0168 -0.2248  0.0864
16940W        W59878   2.101  28.433  26.538  0.0329 -0.1198  0.0203
16941W        W59879   4.469  28.759   0.416 -0.0392  0.2147  0.0904
16942W        W59880   3.220  27.517  27.803 -0.0921  0.0140 -0.0893
16943W        W59881   2.230  29.908  29.367 -0.0134  0.2463  0.1031
16944W        W59882   0.278  26.819  31.133  0.3082  0.0523  0.3926
16945W        W59883   2.626  27.931  31.808 -0.0006 -0.0334 -0.0951
16946W        W59884   0.696  30.176  27.186  0.2048  0.1236 -0.1971
16947W        W59885  34.257  28.901  29.590 -0.0614  0.3440  0.3794
16948W        W59886   0.459  28.367  28.473  0.2200 -0.1831  0.1466
16949W        W59887  34.454  26.854  29.256  0.2373 -0.2262 -0.0204
16950W        W59888   1.997  28.480  29.347 -0.1520  0.2666  0.2091
16951W        W59889   2.611  25.194  27.786  0.0886  0.1536 -0.1612
16952W        W59890   2.186  26.232  30.719  0.0143  0.0378  0.0813
16953W        W59891   2.943  25.549  28.053  0.0849 -0.1870  0.1818
16954W        W59892   1.332  28.263  27.219  0.2563 -0.0271 -0.2983
16955W        W59893   5.126  28.830  27.489  0.1991  0.0872  0.1285
16956W        W59894   2.369  25.531  28.401  0.0829 -0.0680 -0.1046
16957W        W59895   4.358  28.505  27.889  0.0719  0.4469 -0.0823
16958W        W59896   1.081  28.423  31.386  0.1577 -0.0000 -0.2991
16959W        W59897   0.630  27.278  29.396  0.1540  0.0473  0.1334
16960W        W59898   0.453  28.240  29.686 -0.2125  0.2859 -0.0360
16961W        W59899   1.441  26.496  30.375  0.1742  0.0893 -0.0322
16962W        W59900   2.815  28.753  30.073 -0.1241 -0.1667 -0.0578
16963W        W59901  33.992  27.248  27.814 -0.2026 -0.0194  0.0858
16964W        W59902   3.260  27.233  30.013  0.1034  0.0042 -0.3149
16965W        W59903   2.192  26.645  28.706  0.0412  0.1918 -0.1423
16966W        W59904   0.189  27.619  29.264  0.0223  0.2052 -0.1107
16967W        W59905   2.829  26.790   0.032  0.0546 -0.3122 -0.2041
16968W        W59906   2.238  28.649  28.814 -0.0841  0.0423 -0.1516
16969W        W59907   4.623  28.201  29.812  0.1561 -0.1211 -0.1297
16970W        W59908   3.286  29.973  29.419  0.2238 -0.1073  0.0508
16971W        W59909   0.870  26.017  29.522  0.1961  0.0490 -0.2432
16972W        W59910   1.259  26.052  28.036 -0.2520 -0.1008  0.1350
16973W        W59911   1.418  30.173  29.417 -0.3833  0.0768  0.3669
16974W        W59912   2.998  28.196  29.127 -0.0438 -0.0368  0.2288
16975W        W59913   0.585  26.535  27.819  0.1011  0.2722  0.3513
16976W        W59914   3.828  29.850  29.438  0.5632 -0.0953  0.2437
16977W        W59915   0.576  26.793  29.178  0.1659 -0.4392  0.2100
16978W        W59916   0.645  29.246  29.721 -0.1199 -0.0850 -0.0511
16979W        W59917   2.840  25.583  31.329 -0.0268 -0.0539  0.0490
16980W        W59918   3.746  27.024  30.265 -0.2637 -0.1005 -0.3149
16981W        W59919   4.084  26.832  29.599  0.1151  0.0431  0.0542
16982W        W59920   0.556  26.476  27.348 -0.0645 -0.1566 -0.1175
16983W        W59921   2.559  28.424  28.267  0.0048  0.0488  0.1551
16984W        W59922   0.371  29.333  28.831  0.1235  0.1986  0.0207
16985W        W59923   0.321  29.258  30.140 -0.0871 -0.0332  0.1599
16986W        W59924   1.877  28.987  29.054 -0.2333  0.0805 -0.5569
16987W        W59925   2.388  26.478  29.295 -0.3399 -0.1429  0.2832
16988W        W59926  34.532  27.552   0.708 -0.0246  0.1632  0.0076
16989W        W59927   2.216  27.254  30.738  0.2251 -0.0380 -0.1162
16990W        W59928   0.837  26.409  29.139  0.1924 -0.0206 -0.1287
16991W        W59929   1.284  29.347  30.770 -0.2793  0.1200  0.0004
16992W        W59930   2.120  25.547  27.902 -0.2889 -0.0220 -0.2504
16993W        W59931   4.658  25.078  29.754  0.1641 -0.2045 -0.0420
16994W        W59932   1.843  26.826  31.119 -0.2839 -0.1746 -0.1777
16995W        W59933   5.361  26.577  28.584  0.2218 -0.0215 -0.5487
16996W        W59934   3.162  27.072  29.219  0.0304  0.3683  0.1275
16997W        W59935   0.337  25.773  26.778  0.0359 -0.1951 -0.3588
16998W        W59936   0.671  28.171   0.312 -0.3297  0.1319  0.3809
16999W        W59937   1.286  28.048  28.690 -0.1234  0.3246 -0.1505
17000W        W59938   2.353  27.492  30.172 -0.0938 -0.3670  0.1944
17001W        W59939   2.063  27.896  29.382  0.1332 -0.3645  0.0199
17002W        W59940   3.010  28.552  28.064 -0.0407 -0.0417  0.2354
17003W        W59941   1.142  27.511  28.764  0.5423  0.1387  0.1530
17004W        W59942   2.308  28.317  31.828  0.2598  0.2210  0.2118
17005W        W59943   3.612  27.959  28.417  0.0115 -0.4457  0.1374
17006W        W59944   1.966  26.296  30.303  0.0637 -0.2183  0.0271
17007W        W59945   0.833  26.680  28.679  0.1512  0.2650  0.1339
17008W        W59946   2.223  25.062  28.115 -0.2418  0.4512  0.2051
17009W        W59947   1.050  28.571  27.956  0.1782  0.0974  0.1209
17010W        W59948   3.371  26.057  30.226 -0.1339 -0.2990  0.2902
17011W        W59949   1.982  27.402  29.331  0.2988  0.0869 -0.0343
17012W        W59950   2.107  26.050  29.923 -0.1217  0.4162  0.0116
17013W        W59951   4.088  28.001  31.440 -0.0077 -0.3424  0.1184
17014W        W59952   3.330  27.012  28.163  0.0037  0.1428 -0.2196
17015W        W59953   3.282  27.946  29.898  0.0077 -0.1384  0.1527
17016W        W59954   0.687  27.551  28.004  0.0944  0.1429  0.1782
17017W        W59955   1.795  26.178  29.504 -0.2143  0.3394 -0.0044
17018W        W59956   0.630  27.795  29.477  0.0916  0.0967 -0.3193
17019W        W59957   1.115  29.117  30.146 -0.2496 -0.2783  0.0402
17020W        W59958   3.521  28.436  30.608  0.4461  0.0626 -0.1617
17021W        W59959   1.977  28.156  28.899 -0.4548 -0.0014  0.0905
17022W        W59960   1.754  26.809  30.083 -0.0609 -0.1826  0.0056
17023W        W59961   0.997  28.360  28.373  0.0747  0.0248 -0.2135
17024W        W59962   2.632  28.886  28.035 -0.0070  0.2356 -0.0742
17025W        W59963   1.319  28.704  27.549  0.1114  0.5796 -0.1719
17026W        W59964   1.519  25.295  28.966  0.0325 -0.1199 -0.2747
17027W        W59965   2.698  28.306  30.166  0.1389 -0.0391  0.0155
17028W        W59966   0.696  28.116  28.020  0.0466 -0.1288 -0.1048
17029W        W59967   1.953  28.209  30.953  0.0110 -0.1459  0.1334
17030W        W59968   0.444  29.752  29.819  0.2117  0.0640  0.2351
17031W        W59969   3.036  25.529  30.228  0.0672 -0.1074 -0.1375
17032W        W59970   0.611  28.485  30.588  0.3307 -0.1348 -0.0527
17033W        W59971  34.582  26.532  28.114 -0.1602  0.2266  0.0120
17034W        W59972  34.384  27.130  28.203 -0.0955  0.2474 -0.2327
17035W        W59973   2.077  25.489  29.863  0.0249 -0.0614  0.1082
17036W        W59974   4.822  26.471  27.705  0.1136  0.4328 -0.2421
17037W        W59975   1.004  24.949  29.857 -0.1600  0.3364  0.1159
17038W        W59976   2.379  25.400  29.246 -0.0438  0.2116 -0.1979
17039W        W59977   0.822  28.893  31.564  0.1413 -0.1677  0.0403
17040W        W59978   2.537  27.841  30.542  0.2009  0.0487  0.0091
17041W        W59979   4.069  25.717  28.215 -0.0728 -0.2488  0.2168
17042W        W59980   1.929  27.661  30.503 -0.2278 -0.1918  0.0266
17043W        W59981   1.454  27.229  29.897 -0.1938  0.0509  0.0641
17044W        W59982  34.304  26.861  27.692 -0.0558 -0.0019 -0.1240
17045W        W59983   4.098  25.890  28.798  0.2325 -0.1287 -0.1564
17046W        W59984   1.601  27.123  28.857 -0.0126 -0.3410 -0.1419
17047W        W59985  33.545  28.707  30.156 -0.1595 -0.2048  0.1169
17048W        W59986   2.836  28.516  30.619 -0.0355  0.0590 -0.1608
17049W        W59987   0.736  28.026  28.685  0.0563 -0.0736  0.1263
17050W        W59988  34.655  29.193  29.095  0.0365  0.0394 -0.0650
17051W        W59989   0.915  26.947  30.821  0.2051  0.1790  0.0202
17052W        W59990   2.901  28.189  31.321 -0.0786  0.1858  0.0875
17053W        W59991   1.773  26.206  28.497  0.0665 -0.4431 -0.0590
17054W        W59992  34.621  26.733  29.711 -0.2636 -0.0613 -0.0599
17055W        W59993   2.507  28.068  29.069 -0.4873 -0.1757 -0.1591
17056W        W59994   3.307  28.819  29.898 -0.0753 -0.1669  0.0468
17057W        W59995   2.865  27.724  31.424  0.1228 -0.0882  0.0056
17058W        W59996   0.789  29.149  31.105  0.2122  0.1657  0.0585
17059W        W59997   2.553  24.680  29.667 -0.1798  0.0409 -0.2287
17060W        W59998   4.022  28.456  27.459 -0.0123  0.0506 -0.0846
17061W        W59999   3.440  27.921  30.775  0.0455  0.0248 -0.0355
17062W        W60000   1.336  28.959  28.116 -0.4802  0.2207 -0.0626
17063W        W60001  34.626  27.917  30.337  0.0313  0.2841  0.2474
17064W        W60002   0.752  28.785  27.576 -0.0306  0.2021  0.1091
17065W        W60003   1.685  26.601  29.136 -0.1146  0.0545 -0.0556
17066W        W60004   0.738  28.511  28.910  0.1377 -0.2620  0.1938
17067W        W60005   0.899  28.298  27.480 -0.0705 -0.0680  0.0584
17068W        W60006  34.336  28.342  30.318  0.0150  0.4389  0.3769
17069W        W60007   4.402  25.404  28.486 -0.0722 -0.0715 -0.1805
17070W        W60008   2.516  28.108  27.356 -0.0996 -0.0098  0.3824
17071W        W60009   3.388  26.720  30.177  0.1330 -0.3015  0.3629
17072W        W60010   2.698  26.388  30.578  0.0310  0.0136 -0.0532
17073W        W60011   2.913  27.784  28.832  0.0255 -0.2044 -0.3697
17074W        W60012   2.017  25.278  31.230  0.2310  0.1110  0.0274
17075W        W60013   0.622  26.453  30.887 -0.0734  0.0929 -0.0340
17076W        W60014   4.037  28.505  29.323 -0.1390  0.1041 -0.1439
17077W        W60015   0.100  26.061  30.154 -0.3327  0.1837 -0.0502
17078W        W60016   2.326  28.676   0.734  0.3675 -0.1436 -0.0971
17079W        W60017   1.194  28.826  31.100 -0.1838 -0.1072  0.1064
17080W        W60018   1.314  26.042  28.584 -0.1583  0.0706  0.0834
17081W        W60019  34.429  26.011  28.503 -0.0748  0.1567 -0.5116
17082W        W60020   1.786  27.290  30.208 -0.1126 -0.2817 -0.0137
17083W        W60021   3.099  28.887  29.458 -0.2295 -0.0356  0.0588
17084W        W60022   2.518  29.283  27.794 -0.0014  0.3066 -0.1347
17085W        W60023   4.073  27.939  29.589  0.1287  0.3117 -0.2339
17086W        W60024  34.453  27.620  29.649  0.1839 -0.0187  0.1925
17087W        W60025   3.091  27.462  28.470 -0.3256  0.2135 -0.0977
17088W        W60026   1.927  27.092  28.489  0.2136  0.0220 -0.0088
17089W        W60027   1.049  27.556  29.257 -0.1189  0.2267 -0.2068
17090W        W60028   0.646  25.892  31.738  0.0952  0.2010  0.0933
17091W        W60029   3.407  28.549  29.228  0.2304 -0.1062 -0.1761
17092W        W60030   2.637  25.109  28.332  0.1092 -0.4532  0.2832
17093W        W60031   3.053  28.386  29.736 -0.1408  0.1555 -0.1801
17094W        W60032   2.871  26.838  30.199  0.2760  0.2573  0.1308
17095W        W60033   1.604  28.108  30.607 -0.1285  0.1557  0.0015
17096W        W60034   0.992  26.776  31.793  0.1371 -0.6771  0.1283
17097W        W60035   2.725  29.069  30.454  0.0996 -0.0856 -0.0064
17098W        W60036   2.285  27.128  28.818  0.0305  0.1037 -0.0293
17099W        W60037   3.368  26.075  28.717 -0.0037  0.0940  0.1870
17100W        W60038   1.613  26.120  28.999 -0.1092  0.1120  0.2169
17101W        W60039   2.507  27.165  27.691  0.1341  0.1192 -0.0676
17102W        W60040   2.365  25.754  28.924 -0.1343 -0.1828 -0.0473
17103W        W60041   3.874  28.055  30.550 -0.2878 -0.0103 -0.1593
17104W        W60042   0.518  27.084  28.119 -0.1078  0.1656  0.1331
17105W        W60043   2.399  26.955  30.312 -0.0913 -0.2891  0.3584
17106W        W60044   2.173  28.451  27.953  0.2400 -0.4410  0.1316
17107W        W60045   2.785  27.231  28.943  0.2120  0.2810 -0.2697
17108W        W60046   2.418  26.042  27.989  0.0505  0.2625 -0.2354
17109W        W60047  34.490  25.731  29.752  0.1000 -0.2755 -0.2074
17110W        W60048   2.031  29.131  30.513 -0.1922  0.0007  0.2018
17111W        W60049   0.391  28.354  27.642  0.0558  0.1780  0.1353
17112W        W60050   0.074  27.449  28.098 -0.0073 -0.2998  0.1296
17113W        W60051   2.596  28.181  29.632  0.3333  0.1257 -0.0108
17114W        W60052   4.502  28.361  31.496 -0.1707  0.0173 -0.0031
17115W        W60053   1.139  25.887  29.041  0.2572 -0.1886  0.0756
17116W        W60054   3.237  26.562  30.648 -0.0601 -0.2971  0.0204
17117W        W60055  34.591  28.064  26.619  0.2848  0.2607 -0.0486
17118W        W60056   2.628  25.699  29.869 -0.1014  0.1160 -0.1149
17119W        W60057   1.390  29.435  29.052 -0.3070  0.2703 -0.1604
17120W        W60058   1.089  27.582  29.839 -0.1536  0.1694  0.0348
17121W        W60059   1.729  28.643  28.810  0.0079  0.3248  0.1006
17122W        W60060   2.748  26.671  29.740 -0.0591  0.2289 -0.0109
17123W        W60061   3.320  26.126  28.168 -0.1208  0.3559 -0.2524
17124W        W60062   1.757  27.981  28.397 -0.2122 -0.2248  0.1508
17125W        W60063   3.658  26.829  31.406 -0.2723  0.1544  0.0999
17126W        W60064   1.961  29.353  29.952 -0.3937 -0.1265  0.0190
17127W        W60065   2.016  27.629  29.813 -0.0428 -0.2331  0.0837
17128W        W60066   2.598  27.285  31.013 -0.0720 -0.0227 -0.0708
17129W        W60067   3.376  29.226  29.626 -0.0949  0.2663  0.2123
17130W        W60068   0.806  29.534  30.556 -0.0933 -0.0690  0.0037
17131W        W60069  34.349  26.384  31.043 -0.1934  0.2980 -0.1068
17132W        W60070   1.968  27.637  31.036 -0.4865 -0.2561 -0.0724
17133W        W60071   2.898  27.785  29.450 -0.2784 -0.0014  0.0835
17134W        W60072   0.368  26.475  28.249  0.4876 -0.0003  0.1732
17135W        W60073   2.325  27.011  28.187 -0.0402 -0.1226 -0.2428
17136W        W60074   2.299  28.961  31.972  0.1207  0.0317 -0.0176
17137W        W60075   0.479  27.360  29.876 -0.1696  0.0672 -0.0530
17138W        W60076   0.788  29.802  29.524  0.1365 -0.0902  0.1617
17139W        W60077   2.809  27.896  28.126 -0.1346 -0.0275 -0.1180
17140W        W60078   1.571  27.771  29.064  0.0316  0.0052  0.0267
17141W        W60079   3.192  29.792  30.886  0.0484 -0.1150  0.3757
17142W        W60080   0.357  27.796  28.361 -0.0425 -0.2261 -0.0552
17143W        W60081   1.999  29.189  28.062  0.2875 -0.1840 -0.4060
17144W        W60082   0.727  30.039  28.517  0.0997  0.3470  0.0668
17145W        W60083   3.005  28.882  27.660  0.0657 -0.0901  0.2403
17146W        W60084   2.591  29.478  29.673  0.3492 -0.0697 -0.1297
17147W        W60085   3.706  28.340  31.616  0.1057  0.1519  0.1649
17148W        W60086   2.269  25.412  27.235 -0.1382  0.2416  0.1467
17149W        W60087   5.252  26.560  29.044 -0.2620 -0.2171  0.0799
17150W        W60088   3.812  26.102  29.611  0.0090 -0.0399  0.4918
17151W        W60089   2.922  27.626  30.796  0.0153  0.0591  0.2316
17152W        W60090   0.917  27.555  31.206 -0.3047  0.0537  0.4785
17153W        W60091   1.827  25.725  28.797  0.0226  0.2533 -0.1116
17154W        W60092   1.455  28.332  31.719  0.0222  0.5778 -0.2523
17155W        W60093   3.844  24.758  31.067 -0.3034 -0.1480  0.1583
17156W        W60094   1.667  29.475  31.510 -0.0682  0.2068  0.1286
17157W        W60095   3.501  28.457  28.363 -0.2292  0.0599  0.0563
17158W        W60096   0.816  26.134  28.712 -0.0209 -0.2035 -0.4994
17159W        W60097   1.278  28.086  30.030  0.0967 -0.1140  0.0668
17160W        W60098   5.072  25.525  29.178  0.1282 -0.0857 -0.0482
17161W        W60099   1.455  28.811  27.005 -0.0339  0.0087 -0.1836
17162W        W60100   2.109  26.913  29.253 -0.0564 -0.1115 -0.0849
17163W        W60101   0.963  29.012  28.908  0.1555 -0.0398  0.0459
17164W        W60102   1.929  28.420  29.839 -0.0828  0.0219  0.2619
17165W        W60103   3.174  31.369  28.504  0.1203  0.0170 -0.2091
17166W        W60104  34.132  26.592  29.800  0.4358  0.0827  0.0980
17167W        W60105   2.970  26.345  30.083  0.1319 -0.5580  0.0479
17168W        W60106   0.523  26.509  31.697 -0.1714 -0.0374  0.3114
17169W        W60107   4.661  26.669  29.851 -0.0564  0.2337 -0.0452
17170W        W60108   0.140  27.437  28.662  0.0910  0.2557  0.1380
17171W        W60109   1.180  26.471  28.397 -0.2744 -0.0246 -0.2275
17172W        W60110   1.612  29.002  30.914  0.0615  0.0270  0.0173
17173W        W60111   2.753  27.739  29.995 -0.2396  0.1578 -0.2702
17174W        W60112   1.711  26.659  28.635  0.1020 -0.1066 -0.2455
17175W        W60113   3.542  29.187   0.055 -0.2155  0.0871 -0.0544
17176W        W60114   4.186  27.285  28.457 -0.5056  0.0562  0.2367
17177W        W60115   3.050  31.451  29.765 -0.4460  0.0041  0.0429
17178W        W60116   0.554  25.605  29.299  0.2769 -0.1305  0.1283
17179W        W60117   1.774  25.874  28.108 -0.1136 -0.0619 -0.1387
17180W        W60118   1.108  26.781  29.389 -0.1950  0.2759 -0.3103
17181W        W60119   2.316  27.982  29.985  0.0589 -0.1438  0.0422
17182W        W60120   3.292  27.111  30.525  0.0942  0.0212 -0.4499
17183W        W60121   1.160  24.920  28.839  0.2119 -0.5185  0.3462
17184W        W60122   5.034  27.520  28.393 -0.1840 -0.0071  0.0880
17185W        W60123   3.976  26.917  29.057 -0.2799  0.1032  0.0107
17186W        W60124   1.414  30.556  26.913  0.1730  0.4768 -0.1268
17187W        W60125   3.900  27.638  29.181 -0.1716 -0.0308 -0.1595
17188W        W60126   2.651  28.577  29.338 -0.3041 -0.0726  0.0340
17189W        W60127  34.574  27.371  30.498  0.3053  0.1707 -0.2598
17190W        W60128   2.252  28.706  31.517 -0.0807 -0.1189 -0.0881
17191W        W60129   4.534  28.976  30.554  0.1445  0.1613 -0.0292
17192W        W60130   1.352  24.640  28.448  0.1245 -0.0576 -0.0907
17193W        W60131   1.187  26.999  28.558  0.2349  0.2852  0.0610
17194W        W60132  34.688  30.698  29.629 -0.1674 -0.0076  0.1888
17195W        W60133   3.628  26.652  29.465  0.0976 -0.0771  0.0469
17196W        W60134   2.845  26.870  30.725 -0.0277  0.0268 -0.0895
17197W        W60135   1.964  29.519  27.584  0.0234  0.0779 -0.2918
17198W        W60136   4.727  26.307   0.386 -0.0477 -0.0971  0.2162
17199W        W60137   1.950  29.080  31.266  0.0203 -0.0187 -0.2020
17200W        W60138   1.961  28.772  30.170  0.0805  0.1659  0.3278
17201W        W60139   0.039  26.541  27.032 -0.0696  0.6306 -0.3787
17202W        W60140   1.354  28.794  31.570 -0.0211  0.1413 -0.1018
17203W        W60141   2.428  27.555  29.112 -0.0767 -0.0367  0.4333
17204W        W60142   1.171  31.095  29.266 -0.0353  0.0496 -0.2225
17205W        W60143   3.782  27.964  30.030 -0.1117 -0.1235  0.1018
17206W        W60144   3.359  27.889  29.276 -0.0538  0.4234 -0.3755
17207W        W60145   4.547  28.178  28.747 -0.1011 -0.0013  0.1686
17208W        W60146   2.770  26.776  29.068  0.0271 -0.2463 -0.1516
17209W        W60147   4.257  25.418  27.503 -0.3452 -0.0499  0.4196
17210W        W60148   2.894  25.972  28.804  0.0388 -0.1348  0.0626
17211W        W60149   1.480  27.625  30.868 -0.0410 -0.2104 -0.1435
17212W        W60150  34.306  27.242  28.714  0.0304  0.0809  0.1510
17213W        W60151   1.349  28.956  25.777 -0.0955  0.1886  0.0763
17214W        W60152   1.130  29.133  29.595 -0.1642 -0.1771  0.0299
17215W        W60153   1.116  25.801   0.064 -0.0970  0.0713  0.1204
17216W        W60154   1.082  26.187  29.979  0.1373 -0.0512 -0.3994
17217W        W60155   0.456  26.878  29.668 -0.4897  0.0385 -0.5608
17218W        W60156   0.932  27.546  30.409  0.2158  0.1472  0.0665
17219W        W60157   3.967  28.333  28.476  0.1782  0.1095  0.2160
17220W        W60158   1.253  25.766  29.959  0.0988 -0.0350  0.0078
17221W        W60159   1.046  24.954  29.304 -0.1383  0.2422 -0.1214
17222W        W60160   2.518  28.038  28.581 -0.0698 -0.3235 -0.3938
17223W        W60161   3.433  28.798  27.936  0.1906  0.4675 -0.1962
17224W        W60162   1.662  26.889  29.560 -0.2803 -0.4506  0.3804
17225W        W60163   3.737  29.692   0.767  0.1386 -0.0192  0.4029
17226W        W60164  34.139  28.506  28.687  0.1564 -0.4718 -0.1706
17227W        W60165   3.173  25.929  31.553  0.2312 -0.2761  0.4510
17228W        W60166   0.955  26.619  30.429  0.0772 -0.0027  0.0325
17229W        W60167  34.549  24.861  28.256  0.2034  0.0174  0.1849
17230W        W60168   1.554  28.895  29.859 -0.2711 -0.0386 -0.0998
17231W        W60169   2.694  28.427  28.798  0.0263  0.1224  0.1146
17232W        W60170   2.959  30.428  28.084  0.1572 -0.1830  0.1420
17233W        W60171   2.041  28.216  30.435  0.0466 -0.0522 -0.0005
17234W        W60172   2.759  29.497  31.714 -0.1016 -0.0641  0.1874
17235W        W60173   0.087  25.525  31.417 -0.1565  0.3119 -0.0839
17236W        W60174   2.722  26.899  28.522  0.0533 -0.0447 -0.1138
17237W        W60175   1.936  28.114  31.458  0.1231 -0.1178 -0.1303
17238W        W60176   3.690  28.598  28.804 -0.0529  0.0189  0.0283
17239W        W60177   2.732  27.224  29.895 -0.0918 -0.0135  0.1142
17240W        W60178   1.478  28.503  28.268 -0.1688 -0.0401  0.0588
17241W        W60179   0.294  26.412  29.841 -0.2298  0.3493 -0.0888
17242W        W60180   0.895  29.034  30.656  0.3686 -0.2632 -0.0626
17243W        W60181   2.990  28.117  30.840 -0.1745  0.1392 -0.0648
17244W        W60182   1.823  25.383  28.308  0.0435  0.0635  0.3947
17245W        W60183   1.946  26.631  28.170 -0.0525  0.0025 -0.0134
17246W        W60184   2.455  27.564  28.062  0.4928  0.3759  0.0503
17247W        W60185   0.622  28.616  29.425 -0.1370 -0.2905 -0.1415
17248W        W60186   1.284  26.506  28.868  0.1637  0.2437 -0.0306
17249W        W60187   0.665  27.013  31.406 -0.1468 -0.0260  0.0320
17250W        W60188   2.951  29.231  29.924  0.2190  0.0715 -0.0858
17251W        W60189   2.466  27.696  29.611  0.1005 -0.3163  0.1087
17252W        W60190   1.546  27.824  27.977 -0.0031  0.1613 -0.0894
17253W        W60191   3.211  27.411  29.566 -0.0323  0.0496  0.0741
17254W        W60192   2.497  29.417   0.127  0.2944 -0.0509 -0.0524
17255W        W60193   3.261  29.178  31.576  0.2365 -0.1709 -0.0683
17256W        W60194   2.144  29.706  31.331  0.1733  0.0251 -0.1369
17257W        W60195   4.947  27.230  29.874 -0.1163 -0.2966  0.1498
17258W        W60196   0.204  26.572  29.320 -0.0307  0.0736  0.0786
17259W        W60197   1.404  28.327  29.175 -0.0607  0.1977  0.2082
17260W        W60198   2.132  27.653  28.424 -0.0912 -0.1007 -0.0638
17261W        W60199   3.229  27.656  30.347  0.0844  0.1821 -0.2725
17262W        W60200   1.283  26.246  29.500 -0.1873 -0.0131  0.2294
17263W        W60201   2.320  26.352  28.329  0.0709  0.0833 -0.3260
17264W        W60202   2.640  28.783   0.369 -0.0379 -0.1594  0.2018
17265W        W60203   2.687  27.106  29.443 -0.2467 -0.1709  0.1427
17266W        W60204   4.017  26.477  31.442 -0.1256 -0.1345 -0.0288
17267W        W60205   2.387  28.308  30.766 -0.0716 -0.2382  0.1455
17268W        W60206   0.313  27.370  31.280 -0.0122 -0.0901  0.3054
17269W        W60207   0.301  28.966  31.375  0.0797 -0.2549  0.0483
17270W        W60208   1.268  29.529   0.624  0.4021  0.2868 -0.0047
17271W        W60209   1.648  29.081   0.670  0.0477 -0.1604 -0.3251
17272W        W60210   3.733  26.662  31.861 -0.1455 -0.3784 -0.0736
17273W        W60211   2.277  26.695  31.298  0.0483  0.2061  0.0209
17274W        W60212   2.582  26.045  31.363 -0.1400 -0.0077  0.0580
17275W        W60213   2.333  27.401   1.315  0.0041  0.1460  0.0796
17276W        W60214   3.343  27.702  31.191 -0.2754  0.1055 -0.1699
17277W        W60215   2.003  26.101   0.210  0.0454 -0.3065  0.1925
17278W        W60216   3.088  27.219  31.117 -0.0914 -0.0417  0.3615
17279W        W60217   0.298  27.944  30.979 -0.0050  0.2524 -0.3165
17280W        W60218   4.290  26.872  30.111 -0.1089  0.2773  0.1075
17281W        W60219  34.619  29.202  31.818 -0.0229 -0.1757  0.3502
17282W        W60220   1.070  27.796  31.710 -0.1730 -0.0333  0.0104
17283W        W60221   3.680  26.370  31.052 -0.1203 -0.1938 -0.0766
17284W        W60222   0.896  26.290  31.967 -0.0651  0.2531  0.0651
17285W        W60223   0.646  24.907  31.549 -0.0993  0.0865  0.0966
17286W        W60224  34.008  25.276  30.899  0.0904  0.1627 -0.0400
17287W        W60225   0.216  28.437  31.184 -0.3013 -0.2708 -0.0200
17288W        W60226   4.017  25.010   0.200 -0.1825 -0.3569  0.1683
17289W        W60227   2.348  26.779  30.792  0.0140  0.1884  0.1953
17290W        W60228   2.413  26.438  30.183 -0.1570 -0.1694  0.1232
17291W        W60229   0.989  26.602  31.267  0.2857  0.1507  0.3552
17292W        W60230   2.162  27.213  31.294  0.1035 -0.0454  0.3893
17293W        W60231  33.902  29.960  31.034  0.1361 -0.3272 -0.1232
17294W        W60232   1.582  27.858  31.869  0.2324  0.0078 -0.1664
17295W        W60233   1.459  27.911  31.340 -0.0314  0.3756 -0.2056
17296W        W60234   1.744  27.974  30.124  0.3769 -0.0569  0.1357
17297W        W60235   1.962  27.031   0.303 -0.1247 -0.1081 -0.0587
17298W        W60236   4.036  27.220  30.714  0.0963  0.2973  0.2633
17299W        W60237   3.283  26.607   0.126 -0.0403  0.0008 -0.0133
17300W        W60238  34.538  27.497   0.102 -0.0019 -0.0721  0.1114
17301W        W60239   0.294  28.791  30.805  0.5465  0.4571 -0.0589
17302W        W60240   1.120  28.514   0.453 -0.0421  0.1413  0.1732
17303W        W60241   2.733  26.980  31.442 -0.0143  0.2183 -0.1474
17304W        W60242   1.994  25.754  31.023  0.1557  0.0629  0.2401
17305W        W60243   2.390  28.271  31.304 -0.1269  0.1111  0.1749
17306W        W60244   4.873  27.434   0.206  0.0025  0.0096 -0.1753
17307W        W60245   3.527  27.445  30.807 -0.2176 -0.0466  0.1064
17308W        W60246   1.196  25.712  31.573 -0.0187 -0.0145 -0.0203
17309W        W60247   4.458  28.236   0.518 -0.1174 -0.2485  0.0331
17310W        W60248   1.100  27.950  30.986 -0.2439 -0.0405  0.1310
17311W        W60249   1.323  27.198  31.196 -0.0070  0.2964  0.0331
17312W        W60250   1.310  27.109  30.434  0.1307  0.2014 -0.1922
17313W        W60251   1.801  27.491  31.497 -0.1756 -0.0543  0.4009
17314W        W60252   3.235  28.609  30.938  0.2336  0.2825  0.0958
17315W        W60253  33.081  26.850   0.678  0.0035  0.1042  0.0387
17316W        W60254   4.650  30.764   1.013  0.2283  0.1401 -0.2372
17317W        W60255   4.253  25.304  31.810 -0.3611 -0.0842  0.0963
17318W        W60256   2.690  26.501  31.120 -0.1674 -0.0698 -0.0090
17319W        W60257   2.727  28.518  31.679 -0.1781  0.0541 -0.1469
17320W        W60258   4.415  26.416  31.065  0.1322  0.1208  0.0231
17321W        W60259   3.188  26.857  31.640  0.0396  0.2739 -0.1399
17322W        W60260   4.392  27.400  31.900 -0.3073  0.1975  0.3251
17323W        W60261   1.593  29.830   0.352  0.0829  0.0812  0.1973
17324W        W60262   1.391  27.644  30.334  0.1094 -0.1192  0.0018
17325W        W60263   1.128  27.272  31.670  0.1513  0.0565  0.0879
17326W        W60264   0.762  29.398  31.610  0.0009 -0.1319 -0.1598
17327W        W60265   0.659  28.895  30.280 -0.1400 -0.4695 -0.0709
17328W        W60266   0.257  28.788  31.849 -0.1123 -0.0008 -0.2014
17329W        W60267  34.211  26.547  30.512 -0.0066 -0.5406  0.0889
17330W        W60268   3.660  29.797  31.524  0.0319  0.2315  0.0207
17331W        W60269   4.269  27.752  30.658 -0.1872 -0.2574  0.1062
17332W        W60270   2.570  27.890  31.029  0.0797 -0.0464  0.1213
17333W        W60271   1.708  31.968  19.796  0.1964  0.1265 -0.0115
17334W        W60272  34.071  30.816  17.212 -0.1967  0.2129 -0.0612
17335W        W60273   3.248  28.929  15.738 -0.0737  0.0508  0.0747
17336W        W60274   4.273  31.439  17.773 -0.3183  0.0197 -0.0632
17337W        W60275  32.538  30.142  17.831  0.1287  0.1330  0.1160
17338W        W60276   2.896  30.621  17.656  0.1436 -0.0024 -0.1314
17339W        W60277   0.290  29.597  19.187  0.4200 -0.1033 -0.1000
17340W        W60278   1.868  31.503  19.570  0.0851  0.1378 -0.0219
17341W        W60279   3.424  30.718  17.502 -0.0090 -0.0845  0.0254
17342W        W60280   2.211  31.265  16.994 -0.0200 -0.0123  0.1928
17343W        W60281   2.259  29.812  18.784 -0.0806  0.1027  0.0484
17344W        W60282   2.690  32.414  17.616 -0.1004  0.0742  0.1839
17345W        W60283   0.677  28.627  17.474  0.0438  0.0122 -0.0085
17346W        W60284   0.741  30.266  19.960 -0.3370  0.1916  0.0464
17347W        W60285   2.551  29.728  19.500 -0.1423 -0.2441 -0.3631
17348W        W60286   0.810  31.516  17.032  0.2000 -0.1613  0.1941
17349W        W60287   1.699  29.261  18.979 -0.0297  0.5426  0.1560
17350W        W60288   1.887  29.684  16.773 -0.0820  0.3014 -0.0177
17351W        W60289   2.999  31.518  17.241  0.1267  0.0360  0.0063
17352W        W60290   1.521  29.652  19.523  0.2192  0.4696  0.0660
17353W        W60291   1.356  28.335  19.268  0.1897  0.3047  0.0974
17354W        W60292   1.714  31.364  17.115 -0.2006 -0.3290  0.0981
17355W        W60293  34.439  31.516  16.843 -0.3484 -0.0044  0.0368
17356W        W60294   0.212  30.739  18.350 -0.1009 -0.2463  0.3140
17357W        W60295   2.259  31.914  19.616  0.0323 -0.1228  0.0526
17358W        W60296   2.688  29.968  19.032 -0.0023  0.0107 -0.0470
17359W        W60297   3.451  29.646  17.775 -0.3337 -0.2505 -0.0496
17360W        W60298   1.977  31.695  17.952  0.1282 -0.1342 -0.2242
17361W        W60299   2.867  30.949  18.014  0.3196 -0.1893  0.1146
17362W        W60300   2.642  30.362  19.467  0.1861  0.1107  0.2517
17363W        W60301   1.411  31.350  18.383 -0.0752 -0.0148 -0.2078
17364W        W60302  33.788  32.571  18.050 -0.1304 -0.2358 -0.2938
17365W        W60303   3.434  32.043  17.818  0.1280 -0.0404 -0.0909
17366W        W60304   3.510  31.521  17.769  0.2568 -0.3613  0.0357
17367W        W60305   2.456  32.968  18.925  0.1249  0.1778  0.2025
17368W        W60306   1.668  33.331  18.476 -0.2340  0.0867  0.1622
17369W        W60307   0.207  31.957  17.519 -0.0914  0.0505  0.2840
17370W        W60308   1.759  31.484  20.461 -0.2179  0.1599 -0.1008
17371W        W60309   1.639  33.347  17.603 -0.0394 -0.1640  0.1447
17372W        W60310   1.456  31.752  18.056  0.1045  0.2915 -0.2057
17373W        W60311   1.250  30.646  17.486  0.3087  0.0879 -0.1615
17374W        W60312   1.110  32.420  17.658  0.1559  0.1573  0.2893
17375W        W60313   2.555  31.393  17.512 -0.0780 -0.0655  0.1601
17376W        W60314   2.409  32.489  19.107 -0.0621  0.0208  0.1783
17377W        W60315  34.109  31.298  18.479 -0.0359  0.2173 -0.0035
17378W        W60316   2.981  29.602  19.244 -0.0761 -0.1057  0.0579
17379W        W60317   0.299  31.915  18.016  0.1123 -0.1925 -0.2338
17380W        W60318   1.592  30.105  16.729 -0.2271  0.1561 -0.2278
17381W        W60319   0.379  29.075  16.115 -0.0546 -0.1953 -0.2438
17382W        W60320   2.960  29.193  17.853  0.1761  0.3009 -0.1962
17383W        W60321   1.693  28.815  17.724  0.4206 -0.1950  0.3050
17384W        W60322   1.917  32.446  18.932  0.0751 -0.0624  0.3826
17385W        W60323   2.006  28.246  18.278 -0.0305  0.0551  0.0861
17386W        W60324   3.142  31.346  18.274  0.2883  0.0020  0.0779
17387W        W60325   2.085  31.230  17.568  0.2431  0.2120  0.0070
17388W        W60326   1.138  31.678  18.671  0.0064 -0.0653  0.1041
17389W        W60327   2.089  32.281  19.912  0.0271  0.1739 -0.0414
17390W        W60328   0.346  30.697  17.053  0.1298 -0.1581  0.0122
17391W        W60329   3.254  32.948  18.264 -0.1428 -0.0058 -0.0018
17392W        W60330   3.238  33.574  18.174 -0.0008 -0.1675  0.0750
17393W        W60331   1.893  32.205  16.325 -0.2201 -0.1862 -0.3232
17394W        W60332  34.087  29.362  17.531  0.1706 -0.0774  0.0574
17395W        W60333   0.292  32.522  20.562  0.2907 -0.2858 -0.1943
17396W        W60334   0.736  30.697  20.265  0.0024  0.1643  0.3393
17397W        W60335   1.100  28.767  16.886  0.1402  0.0599 -0.0047
17398W        W60336   3.954  31.252  19.602 -0.0406  0.0860 -0.3850
17399W        W60337   0.627  31.194  20.333 -0.3393 -0.0654  0.2861
17400W        W60338   3.952  28.709  16.545 -0.1320 -0.0186  0.4699
17401W        W60339   1.438  30.032  18.549  0.0066 -0.1106  0.0457
17402W        W60340   1.596  31.832  18.555 -0.2038 -0.4251  0.0760
17403W        W60341   1.673  31.273  16.573 -0.0415  0.1036  0.4178
17404W        W60342   2.617  28.769  17.900 -0.1025  0.0897  0.1381
17405W        W60343   2.079  28.360  19.271 -0.1984  0.5453 -0.0625
17406W        W60344   0.688  30.741  16.291 -0.2220  0.2405 -0.2520
17407W        W60345   1.535  30.480  17.067  0.0972  0.0477 -0.0137
17408W        W60346   3.881  31.633  18.687  0.1818  0.0001  0.3248
17409W        W60347   3.862  30.934  17.173 -0.0276 -0.4277 -0.1208
17410W        W60348  34.661  32.800  18.004 -0.3190 -0.0949  0.0627
17411W        W60349   1.123  31.107  20.168  0.2983 -0.1018  0.1459
17412W        W60350   1.946  32.072  20.331 -0.4285 -0.2043  0.0058
17413W        W60351   1.372  32.319  16.295  0.0882  0.1711  0.1218
17414W        W60352  33.801  32.274  19.661  0.0599  0.2705 -0.0135
17415W        W60353   1.194  31.614  17.332 -0.1132  0.5004  0.0052
17416W        W60354   2.008  30.623  17.316 -0.0102 -0.1585 -0.1244
17417W        W60355   0.887  32.080  18.735 -0.1608  0.1240 -0.1778
17418W        W60356   3.235  29.496  16.525  0.2651 -0.0475 -0.1278
17419W        W60357   0.874  29.645  21.262  0.0125  0.0794  0.1022
17420W        W60358   4.688  28.823  19.765 -0.2461 -0.0818 -0.0584
17421W        W60359   0.563  32.288  17.268  0.0072  0.1560 -0.0809
17422W        W60360   4.580  30.750  18.453  0.1189 -0.0960  0.2762
17423W        W60361   4.012  30.770  16.722 -0.1219 -0.0863 -0.0296
17424W        W60362   3.405  33.575  17.653 -0.2511  0.3984  0.0368
17425W        W60363   1.556  31.607  18.974 -0.4268  0.3273 -0.3784
17426W        W60364   1.732  30.003  17.167  0.0292  0.3840 -0.0794
17427W        W60365  34.427  30.811  21.272 -0.1278  0.0101  0.1204
17428W        W60366   1.016  28.435  18.330  0.0870 -0.1398 -0.3589
17429W        W60367   3.595  32.326  18.754 -0.1811  0.1978  0.2930
17430W        W60368   1.229  30.151  17.442 -0.1424  0.0321  0.0532
17431W        W60369   1.295  29.195  18.564  0.0579 -0.3120 -0.0036
17432W        W60370   1.367  29.623  16.485 -0.0439  0.1169 -0.0593
17433W        W60371   0.408  31.139  18.567  0.1002  0.2747  0.0353
17434W        W60372   2.303  29.214  19.582  0.1804 -0.0386 -0.2198
17435W        W60373   2.873  31.517  16.565  0.0030  0.0489 -0.0423
17436W        W60374   4.676  31.874  18.998 -0.1341 -0.1074  0.1998
17437W        W60375   3.533  32.519  18.227 -0.0975  0.1916 -0.0735
17438W        W60376   0.279  29.386  20.170  0.0463 -0.0905 -0.1087
17439W        W60377   0.651  28.773  17.054  0.1898  0.1181 -0.0123
17440W        W60378   1.206  33.020  18.439 -0.3281  0.0724 -0.0618
17441W        W60379   1.204  31.955  17.704 -0.5392  0.3044 -0.1880
17442W        W60380   1.384  28.400  17.017  0.0222 -0.0964  0.1819
17443W        W60381   4.693  31.975  18.446 -0.1105  0.1555  0.2940
17444W        W60382   2.239  30.045  16.461 -0.0044 -0.0556 -0.0603
17445W        W60383   1.352  30.667  18.884 -0.0964  0.0717 -0.2042
17446W        W60384   1.588  29.438  20.047  0.0850 -0.0054  0.0101
17447W        W60385   3.009  29.868  18.665 -0.3674 -0.1503 -0.3108
17448W        W60386   2.468  30.178  16.919  0.1992 -0.1887 -0.1570
17449W        W60387  34.591  28.770  16.203 -0.1711  0.1038  0.4015
17450W        W60388   3.163  32.117  19.006  0.2331  0.2842  0.2578
17451W        W60389  34.420  32.478  16.756 -0.0200  0.2006  0.1371
17452W        W60390   0.872  30.317  19.034 -0.2174 -0.1163  0.0166
17453W        W60391   1.565  32.852  18.729  0.2133 -0.0164 -0.3747
17454W        W60392   3.439  29.080  18.160  0.3460  0.0096  0.1734
17455W        W60393  33.091  31.859  20.171 -0.1397 -0.1594 -0.0324
17456W        W60394   1.796  29.869  19.899 -0.1069 -0.2473  0.1792
17457W        W60395   0.283  30.418  17.654  0.1776  0.0676 -0.1719
17458W        W60396   1.083  32.696  20.149 -0.4346  0.2011  0.1291
17459W        W60397   2.713  28.216  16.224 -0.2354  0.1910 -0.1300
17460W        W60398   4.190  29.953  17.250 -0.0921 -0.2123 -0.1441
17461W        W60399   0.403  31.029  21.603  0.1231  0.1704  0.0818
17462W        W60400   4.572  31.800  15.967 -0.3878  0.1403 -0.0799
17463W        W60401   1.984  30.476  16.286 -0.2557  0.0017 -0.0990
17464W        W60402   2.138  29.806  15.884 -0.2422 -0.0855 -0.0947
17465W        W60403  34.645  31.217  21.000  0.2161  0.1815 -0.0933
17466W        W60404   2.108  31.936  16.765  0.2018 -0.0109  0.0460
17467W        W60405   2.292  30.161  18.033  0.2217  0.1400 -0.3108
17468W        W60406   2.780  29.033  15.957  0.0646 -0.1896  0.0723
17469W        W60407   3.399  31.421  16.373  0.0566 -0.1149 -0.0030
17470W        W60408   0.914  31.846  19.612 -0.3343  0.1016 -0.0493
17471W        W60409   1.846  31.943  19.273  0.0560  0.0197  0.2249
17472W        W60410   3.658  31.355  18.326  0.1254  0.1640  0.2276
17473W        W60411   0.875  28.964  19.531 -0.2356  0.2566 -0.1483
17474W        W60412   0.201  30.800  16.583  0.0752  0.1980 -0.0285
17475W        W60413   2.473  29.632  17.638  0.3553 -0.0061 -0.2132
17476W        W60414  33.931  31.699  16.961  0.1597 -0.0559 -0.0093
17477W        W60415   2.764  29.340  19.769 -0.1455 -0.0636  0.1475
17478W        W60416   1.486  29.790  17.661 -0.1098  0.2289  0.0947
17479W        W60417   1.233  29.150  19.085  0.0644 -0.2343 -0.2078
17480W        W60418   2.770  30.536  19.925  0.2070 -0.0060  0.0645
17481W        W60419   3.038  29.910  16.869  0.0264  0.2023 -0.3174
17482W        W60420   2.395  30.758  16.936 -0.0028 -0.0920  0.1304
17483W        W60421  34.140  30.724  16.317  0.2765 -0.0120  0.3670
17484W        W60422   1.394  30.171  20.115 -0.1013 -0.3148  0.2126
17485W        W60423   1.301  30.470  19.414 -0.1550  0.0679  0.1199
17486W        W60424   0.736  32.423  19.771  0.1329  0.0186 -0.1201
17487W        W60425   2.939  31.923  20.238  0.0690  0.0459 -0.0067
17488W        W60426   1.679  31.288  17.927  0.1389 -0.1806  0.0260
17489W        W60427   2.751  28.710  18.754  0.0213 -0.0269 -0.0022
17490W        W60428   1.062  29.596  17.367  0.1389  0.1935 -0.2250
17491W        W60429   1.066  33.401  16.864 -0.0848  0.4585 -0.2348
17492W        W60430   0.748  32.366  18.037  0.2210  0.2571 -0.0527
17493W        W60431   1.095  29.633  18.359 -0.0663  0.1280 -0.2395
17494W        W60432   2.058  32.097  18.600  0.0359  0.0879  0.0222
17495W        W60433   0.707  30.677  18.224  0.2026  0.0890 -0.2993
17496W        W60434   3.222  31.790  19.410 -0.2736 -0.0156 -0.1320
17497W        W60435   1.915  32.485  17.298 -0.0592  0.0558 -0.0873
17498W        W60436   3.268  28.608  18.771  0.2530 -0.0534  0.1965
17499W        W60437  34.355  32.497  17.751  0.0336 -0.2085 -0.0289
17500W        W60438   0.593  31.134  16.653 -0.1453 -0.0662 -0.1318
17501W        W60439   0.632  31.133  17.940 -0.2266 -0.3164  0.0981
17502W        W60440   3.174  29.094  16.899 -0.0119 -0.3514 -0.1388
17503W        W60441   2.050  30.953  16.446  0.0099  0.0950  0.2154
17504W        W60442  34.520  31.242  19.802  0.1815 -0.0677  0.1148
17505W        W60443   1.561  29.303  17.710  0.1948 -0.1547  0.0589
17506W        W60444   0.410  32.743  18.242  0.2173 -0.3397  0.0514
17507W        W60445   4.564  30.277  18.167  0.2069 -0.0185  0.0674
17508W        W60446   2.526  28.555  16.595 -0.2723  0.0040 -0.0688
17509W        W60447   2.848  31.134  18.583 -0.0920 -0.1101 -0.0966
17510W        W60448   3.331  31.266  19.488 -0.2041  0.1765  0.2724
17511W        W60449   0.180  30.239  16.878  0.1424 -0.1459  0.1618
17512W        W60450   4.012  29.967  18.682 -0.1684  0.2310 -0.1070
17513W        W60451   2.714  29.961  17.255  0.1331  0.0599 -0.1263
17514W        W60452   0.154  32.117  16.828 -0.0152  0.4484 -0.0343
17515W        W60453   2.436  32.277  18.124 -0.1434  0.2151 -0.2722
17516W        W60454   1.062  30.388  18.486  0.0114 -0.0367 -0.1061
17517W        W60455   1.081  31.608  19.161 -0.2458 -0.4460 -0.2322
17518W        W60456   0.875  30.810  18.758 -0.0267  0.0871 -0.3001
17519W        W60457   2.527  30.795  19.226 -0.0920  0.0739 -0.0104
17520W        W60458   3.141  30.340  17.135 -0.0323  0.0652  0.0317
17521W        W60459   1.562  29.660  18.172  0.0643  0.2004  0.3257
17522W        W60460   1.260  30.039  20.739 -0.2193 -0.1305  0.2032
17523W        W60461   2.267  31.230  18.109 -0.2914  0.0070  0.3191
17524W        W60462   2.402  30.745  18.249  0.3050 -0.0311  0.1806
17525W        W60463   2.025  33.207  19.893 -0.1180 -0.1306  0.0415
17526W        W60464   2.628  29.202  17.429 -0.1419  0.0058  0.1374
17527W        W60465   3.254  33.272  16.226  0.1859 -0.0353  0.1162
17528W        W60466   2.083  31.661  20.042 -0.2051  0.0487 -0.0955
17529W        W60467   1.080  30.474  17.926 -0.0792  0.1141  0.0055
17530W        W60468  33.657  32.573  20.523  0.1524 -0.3743  0.1428
17531W        W60469   1.575  31.026  17.432 -0.4360 -0.2529 -0.1058
17532W        W60470   1.758  30.148  18.201 -0.0543  0.1549  0.0750
17533W        W60471   1.263  30.861  18.421  0.0378 -0.0587 -0.0876
17534W        W60472   1.068  31.473  17.797  0.0155  0.0065  0.0243
17535W        W60473   0.836  31.544  20.008  0.1838 -0.1942 -0.0844
17536W        W60474   4.305  29.095  16.226 -0.0532 -0.1005  0.3594
17537W        W60475   1.699  31.965  17.091  0.0365 -0.1071 -0.1598
17538W        W60476   1.754  30.255  17.683  0.0604  0.0607  0.3498
17539W        W60477   3.208  29.589  18.243  0.0810  0.0435 -0.0469
17540W        W60478   2.033  30.428  16.782  0.3105 -0.0578  0.2274
17541W        W60479   2.200  30.315  19.828  0.1894  0.0575  0.1774
17542W        W60480   1.315  30.075  18.023 -0.3413 -0.4642 -0.0162
17543W        W60481   2.985  31.074  17.432  0.2171  0.0303  0.2163
17544W        W60482   1.689  31.115  18.800 -0.1359 -0.1056  0.2068
17545W        W60483   3.586  32.174  21.386 -0.0350  0.2399 -0.2588
17546W        W60484  34.091  31.035  20.099 -0.2151  0.1578 -0.5276
17547W        W60485   2.371  29.546  16.716 -0.2568  0.1058  0.1236
17548W        W60486   0.569  29.941  16.783 -0.0075  0.0201 -0.1065
17549W        W60487   1.889  31.023  19.690 -0.2354 -0.0222 -0.0711
17550W        W60488   3.582  32.053  18.356  0.2292 -0.0062 -0.0360
17551W        W60489   1.227  31.011  17.844  0.0972  0.2071  0.0819
17552W        W60490   3.960  30.523  17.657  0.1607 -0.2349  0.0973
17553W        W60491   1.542  32.381  19.319 -0.0128  0.1526 -0.0523
17554W        W60492   2.981  29.457  17.167  0.1688  0.0950 -0.0624
17555W        W60493   1.136  30.932  16.505 -0.1401  0.1387  0.0657
17556W        W60494   1.696  30.534  18.512  0.2408  0.0377  0.0567
17557W        W60495   1.005  29.190  17.713  0.1608  0.0774  0.1635
17558W        W60496   2.488  31.834  17.824  0.0835 -0.1207  0.3361
17559W        W60497   3.383  28.087  17.801  0.2179  0.0984  0.3788
17560W        W60498   2.321  31.163  18.607 -0.1467  0.0284 -0.1275
17561W        W60499   1.714  30.747  19.272  0.1428  0.1230  0.3993
17562W        W60500   1.255  29.960  21.248  0.0910 -0.2346  0.0387
17563W        W60501   0.547  30.299  18.650 -0.2717  0.1593 -0.0445
17564W        W60502   3.555  30.678  18.864  0.1340  0.1623 -0.1706
17565W        W60503   4.712  31.113  17.548 -0.0398 -0.0626  0.0801
17566W        W60504   3.383  29.628  18.927 -0.0935 -0.0131 -0.2041
17567W        W60505   3.142  30.862  17.042 -0.0936 -0.2143 -0.1593
17568W        W60506   2.747  30.103  16.538  0.2145 -0.2278 -0.1095
17569W        W60507   0.229  29.610  18.173  0.0565 -0.1083  0.3538
17570W        W60508   2.982  30.791  19.558 -0.1812 -0.1307 -0.1895
17571W        W60509  34.442  31.122  17.457  0.0847 -0.0791 -0.0256
17572W        W60510   1.743  30.534  19.753 -0.0331  0.1404 -0.1652
17573W        W60511   1.639  31.621  17.553  0.1972 -0.0907 -0.0895
17574W        W60512   3.458  31.187  17.331 -0.5585 -0.2526  0.1741
17575W        W60513   2.136  29.490  16.289  0.0914 -0.1462  0.3424
17576W        W60514   0.431  30.203  19.149 -0.2207 -0.0062  0.1357
17577W        W60515   0.672  31.508  18.781 -0.2512  0.0782  0.0855
17578W        W60516   0.216  29.612  17.412  0.0746  0.0833  0.0737
17579W        W60517  34.600  31.040  16.994 -0.2616 -0.1046 -0.1210
17580W        W60518   3.249  30.496  18.051 -0.0594 -0.2037 -0.2590
17581W        W60519   2.553  31.302  19.016  0.2077 -0.1706 -0.0971
17582W        W60520   1.256  29.077  17.320  0.2167 -0.0993 -0.2854
17583W        W60521   4.055  31.272  18.982  0.1822  0.3488  0.0238
17584W        W60522   1.001  31.931  18.231 -0.1449  0.2437 -0.1019
17585W        W60523   2.206  29.305  19.031 -0.0861 -0.1843 -0.0809
17586W        W60524   1.536  32.360  18.541  0.0248 -0.1437 -0.0672
17587W        W60525   0.430  31.464  19.716  0.0260  0.1402  0.3165
17588W        W60526   0.927  32.977  17.579 -0.0582 -0.1116 -0.1657
17589W        W60527   1.789  29.415  18.524 -0.0745  0.0848 -0.0373
17590W        W60528   3.148  28.911  17.387  0.2840 -0.2086 -0.0771
17591W        W60529   2.741  30.446  18.082 -0.3410 -0.1975 -0.2135
17592W        W60530   3.540  30.760  20.754  0.2009 -0.2532 -0.4206
17593W        W60531   3.291  30.135  20.685  0.0818  0.0339  0.0751
17594W        W60532   1.916  30.819  17.801 -0.0975 -0.1170  0.1595
17595W        W60533   2.690  31.539  18.128  0.1535  0.0293  0.0351
17596W        W60534   5.082  29.324  18.798  0.5128  0.4818 -0.0079
17597W        W60535   0.911  32.246  19.303 -0.1422 -0.1501  0.1570
17598W        W60536  34.433  29.829  19.797  0.0238 -0.1341 -0.0626
17599W        W60537   1.691  30.346  20.779  0.0745 -0.2718 -0.0033
17600W        W60538   3.251  30.817  18.411 -0.0234  0.3099  0.4016
17601W        W60539   0.299  29.562  16.125 -0.1255 -0.1817  0.2589
17602W        W60540   0.337  31.633  16.896  0.1324  0.2852  0.1214
17603W        W60541   0.586  32.743  20.203 -0.1167 -0.1579  0.0896
17604W        W60542   0.553  29.953  19.567 -0.0611  0.0258  0.2062
17605W        W60543  34.644  31.787  16.452 -0.1554  0.0349 -0.0714
17606W        W60544   3.913  33.057  16.840 -0.0650 -0.0921  0.3891
17607W        W60545   2.510  31.719  16.960  0.0643  0.2173 -0.1651
17608W        W60546   3.087  31.905  18.363  0.4910  0.1628  0.1551
17609W        W60547   1.069  30.074  16.514 -0.1448 -0.2593 -0.0892
17610W        W60548   0.188  32.604  17.082  0.0988  0.2314 -0.2792
17611W        W60549  33.114  30.236  17.074 -0.4408  0.0250 -0.4820
17612W        W60550   3.084  32.011  16.971  0.0901  0.0556 -0.0374
17613W        W60551   1.464  32.842  17.495  0.0337  0.2462  0.3126
17614W        W60552   1.541  31.318  20.943  0.0219 -0.4342 -0.0568
17615W        W60553   3.672  29.150  16.612 -0.0102  0.0201 -0.0329
17616W        W60554   2.976  29.642  17.645 -0.1676 -0.2514  0.0779
17617W        W60555   3.016  30.005  18.041 -0.0789  0.2173 -0.2632
17618W        W60556   2.804  31.920  19.703 -0.1241  0.3633  0.1935
17619W        W60557   1.812  30.355  18.999  0.0755 -0.0976  0.1846
17620W        W60558   1.127  29.301  16.938 -0.0770 -0.1321  0.0288
17621W        W60559   1.432  31.766  19.461  0.2504  0.2469 -0.1040
17622W        W60560   3.051  28.958  20.018  0.2606 -0.0722  0.1084
17623W        W60561   1.701  33.237  19.521 -0.1865 -0.0644  0.1169
17624W        W60562   3.023  32.440  16.723 -0.3177  0.1766  0.0384
17625W        W60563   0.099  29.938  16.458  0.3066  0.1297  0.1888
17626W        W60564   1.786  30.990  18.340  0.0599  0.4376  0.0647
17627W        W60565   5.573  28.249  19.546  0.1809  0.0068 -0.2385
17628W        W60566   0.282  30.624  15.901  0.0393  0.0056  0.0038
17629W        W60567   2.651  30.118  18.440 -0.1835 -0.3304  0.2117
17630W        W60568   2.761  31.927  17.393 -0.0193  0.4533  0.1935
17631W        W60569   1.241  32.539  18.892 -0.0920  0.3338  0.0288
17632W        W60570   1.181  33.368  17.862 -0.0799 -0.2209  0.0744
17633W        W60571  34.394  29.980  16.801 -0.2970  0.2176 -0.3242
17634W        W60572   4.367  30.009  17.758 -0.1001  0.0816  0.1969
17635W        W60573   2.143  31.166  20.141 -0.0955  0.0497 -0.0488
17636W        W60574   1.926  29.734  17.790 -0.0891  0.0154 -0.2340
17637W        W60575   0.830  30.340  17.192  0.0101 -0.1381  0.0136
17638W        W60576   2.773  29.292  18.362 -0.0705  0.1075 -0.1604
17639W        W60577   2.313  30.549  17.791  0.1708 -0.0132 -0.2539
17640W        W60578  34.512  31.555  20.210  0.4092 -0.0265 -0.0727
17641W        W60579   0.567  30.480  16.701  0.1414 -0.1584 -0.4618
17642W        W60580   2.671  30.845  20.329 -0.1933  0.0592  0.1787
17643W        W60581   2.080  28.903  16.510 -0.0417 -0.0419  0.2586
17644W        W60582   3.064  31.468  19.021  0.0262  0.0801 -0.1655
17645W        W60583   0.169  29.979  18.567 -0.0225 -0.1445  0.1194
17646W        W60584   1.531  29.509  17.203  0.2859 -0.4279  0.0424
17647W        W60585   0.762  30.702  17.569 -0.3264  0.0675  0.3231
17648W        W60586   2.448  30.363  18.916 -0.0174  0.0811  0.2286
17649W        W60587   2.161  31.665  18.909  0.1204 -0.0186 -0.0053
17650W        W60588   1.873  28.274  16.656  0.2908 -0.2683 -0.0681
17651W        W60589   3.481  32.854  16.908  0.1386  0.0904  0.1197
17652W        W60590   2.713  30.164  17.701  0.0038  0.1050  0.1845
17653W        W60591   2.327  32.416  16.307 -0.2724 -0.1470 -0.1774
17654W        W60592   3.485  31.782  17.335 -0.0008 -0.2422  0.0822
17655W        W60593   3.824  31.106  17.640  0.0106  0.0439  0.1869
17656W        W60594   1.162  29.569  20.588 -0.0983  0.0850  0.0598
17657W        W60595   2.730  31.634  18.615  0.0518  0.0164  0.0130
17658W        W60596   4.043  32.086  16.845  0.4685  0.0270  0.0777
17659W        W60597   2.161  28.645  16.968  0.2443 -0.3660 -0.1954
17660W        W60598   2.136  29.697  17.221  0.1088  0.1968  0.1083
17661W        W60599   1.039  32.158  17.253  0.1381 -0.1556  0.0200
17662W        W60600   2.620  30.498  17.286  0.0662  0.1224  0.4662
17663W        W60601   1.367  28.969  18.105 -0.2541  0.3024 -0.0278
17664W        W60602   1.627  32.292  16.762 -0.1152 -0.1453  0.1750
17665W        W60603   3.168  29.042  19.519  0.3536 -0.1819  0.1702
17666W        W60604   2.594  32.110  18.739  0.0812 -0.1521  0.0617
17667W        W60605   0.569  33.397  19.747 -0.3436 -0.2740 -0.0416
17668W        W60606   0.813  30.826  17.043  0.1700 -0.1827 -0.0726
17669W        W60607   1.351  32.032  19.006 -0.0831  0.0768 -0.3764
17670W        W60608   0.958  31.145  17.415  0.1216  0.0398  0.2536
17671W        W60609   1.650  31.767  16.605 -0.3125  0.0113 -0.0855
17672W        W60610   4.201  30.641  18.106  0.2600  0.1610  0.1219
17673W        W60611   0.777  30.076  18.200 -0.0260  0.0685 -0.0252
17674W        W60612   4.070  30.098  18.206 -0.1376 -0.2017  0.1964
17675W        W60613   1.039  29.666  17.874  0.0545  0.1248  0.3985
17676W        W60614   3.686  28.558  17.000 -0.0106 -0.2882 -0.0639
17677W        W60615   1.666  27.563  17.242 -0.0371  0.0993 -0.0050
17678W        W60616   2.365  31.396  19.619 -0.2844  0.2238 -0.1845
17679W        W60617   0.568  31.480  17.558 -0.0961 -0.1382 -0.3583
17680W        W60618   0.100  31.296  16.560 -0.0196 -0.0318  0.2623
17681W        W60619   0.951  32.600  18.442  0.2229 -0.2554 -0.0185
17682W        W60620   1.815  28.452  18.788 -0.0931 -0.0763 -0.2942
17683W        W60621   0.504  29.835  20.058 -0.1133  0.1861 -0.1906
17684W        W60622   0.385  30.665  19.817  0.0845  0.0623 -0.2077
17685W        W60623   1.155  30.487  16.736  0.0622 -0.0962  0.0894
17686W        W60624   3.188  32.238  17.449  0.0003 -0.1031 -0.0463
17687W        W60625   0.739  30.209  17.731  0.3205  0.1006 -0.0773
17688W        W60626  34.377  28.502  18.889  0.4195 -0.2451 -0.0805
17689W        W60627   3.305  31.326  16.899 -0.1640 -0.0785 -0.4496
17690W        W60628   3.219  33.188  17.210 -0.0139  0.0348 -0.0244
17691W        W60629   0.539  29.102  17.422  0.1677  0.2569 -0.0662
17692W        W60630   4.816  31.208  18.451 -0.0892  0.4037  0.2069
17693W        W60631  33.926  29.860  17.007 -0.0089 -0.1059  0.4158
17694W        W60632   2.049  29.706  20.423 -0.1904 -0.1990 -0.1714
17695W        W60633   0.264  30.246  20.317 -0.2776  0.1439  0.0980
17696W        W60634  34.001  28.976  15.647 -0.1852 -0.2715 -0.0026
17697W        W60635   3.118  30.344  18.566 -0.2721  0.0411  0.1214
17698W        W60636   2.161  32.198  17.669  0.0039  0.5453  0.0120
17699W        W60637   2.184  32.411  16.805 -0.1275 -0.1871 -0.1041
17700W        W60638   2.297  31.717  18.374 -0.1182 -0.2275 -0.0169
17701W        W60639   1.529  32.850  19.260  0.2436  0.2966 -0.1183
17702W        W60640  34.463  30.769  19.784 -0.0111  0.1140  0.1239
17703W        W60641   2.474  30.603  16.472 -0.0033  0.2869 -0.4013
17704W        W60642   1.495  31.223  19.261  0.2470 -0.0250  0.2735
17705W        W60643   3.497  32.334  16.764 -0.1523  0.1285  0.1178
17706W        W60644   4.760  28.822  18.430 -0.0831  0.0098  0.2586
17707W        W60645   3.280  29.867  17.311  0.0798 -0.1223  0.0742
17708W        W60646   0.214  28.582  19.670 -0.1134  0.2360  0.2384
17709W        W60647   1.903  33.224  20.389 -0.0885  0.0008 -0.0558
17710W        W60648   3.540  29.860  18.471  0.2769 -0.1942 -0.3238
17711W        W60649   0.632  29.460  17.053  0.0864 -0.1801 -0.3387
17712W        W60650   2.098  29.265  17.637 -0.2325 -0.3189 -0.0813
17713W        W60651   2.724  31.271  16.958 -0.0348 -0.1476  0.0702
17714W        W60652   1.702  32.878  18.120 -0.0315  0.1819 -0.1447
17715W        W60653  34.639  30.572  17.284  0.1640  0.1680  0.1136
17716W        W60654   2.745  30.658  18.596 -0.1892 -0.1365 -0.0253
17717W        W60655   1.917  31.420  18.478 -0.1341 -0.3522  0.1475
17718W        W60656   4.565  31.532  18.718  0.4261 -0.0600  0.2973
17719W        W60657   0.882  29.601  16.553 -0.2530 -0.1193  0.2162
17720W        W60658   3.709  30.238  17.343  0.2279 -0.4261 -0.1004
17721W        W60659   2.872  32.916  20.396  0.1706  0.2261 -0.0586
17722W        W60660   4.505  33.388  18.775 -0.1822  0.3176  0.0324
17723W        W60661   1.261  32.853  17.905  0.0105 -0.2034  0.2190
17724W        W60662   4.614  31.108  18.982 -0.0154 -0.1092 -0.1790
17725W        W60663   1.106  30.902  19.271 -0.0257 -0.0596 -0.2731
17726W        W60664   1.178  31.197  18.823 -0.1150  0.4238  0.2289
17727W        W60665   0.222  29.878  17.818  0.1562 -0.1138  0.0617
17728W        W60666   2.392  30.322  20.297  0.1529  0.0708 -0.3732
17729W        W60667   0.772  30.956  19.734  0.1376  0.2517  0.1225
17730W        W60668   3.192  28.623  16.996 -0.0208  0.0999  0.0131
17731W        W60669   0.732  32.938  19.779 -0.4826 -0.0920  0.0418
17732W        W60670   2.142  30.294  18.497  0.1143  0.0214  0.0616
17733W        W60671   1.306  31.810  23.541  0.0917  0.0716  0.0484
17734W        W60672   0.492  30.424  20.979 -0.3922 -0.1899  0.0022
17735W        W60673   3.304  28.270  20.494 -0.0121 -0.1746  0.1578
17736W        W60674   4.127  30.241  21.370  0.1807  0.0713 -0.0637
17737W        W60675   0.756  28.750  21.062  0.1295  0.3303 -0.0761
17738W        W60676   2.639  33.055  22.617 -0.0274  0.0246 -0.1814
17739W        W60677  33.607  28.341  22.060 -0.2253  0.2181  0.0578
17740W        W60678   1.924  32.225  22.868 -0.0533 -0.2440  0.2401
17741W        W60679   3.011  33.171  22.089  0.0384 -0.0363  0.0251
17742W        W60680   2.361  30.858  19.701  0.4419  0.0754  0.0551
17743W        W60681   1.408  30.767  22.863 -0.0660 -0.2411  0.0689
17744W        W60682  34.544  32.473  23.451 -0.0205  0.1740 -0.0096
17745W        W60683   1.746  30.141  19.450 -0.0887  0.1624  0.0927
17746W        W60684   0.160  28.850  21.057 -0.1804 -0.0782 -0.0172
17747W        W60685   3.127  30.487  21.063  0.0249 -0.4442 -0.2380
17748W        W60686  34.366  31.636  21.181  0.0518 -0.1905  0.2922
17749W        W60687   0.780  29.871  21.730 -0.0353 -0.2240 -0.3489
17750W        W60688   1.156  30.411  20.468 -0.2719  0.0277  0.1622
17751W        W60689   1.413  31.455  21.490 -0.0673  0.0843  0.0182
17752W        W60690   0.579  28.821  21.946 -0.0985 -0.1466  0.0050
17753W        W60691   1.344  28.862  22.454  0.1828  0.1602 -0.1002
17754W        W60692   2.041  32.041  20.905 -0.5316  0.0492  0.0618
17755W        W60693   0.727  30.819  21.214  0.0595 -0.0995  0.1066
17756W        W60694  34.329  29.737  22.098 -0.2076  0.1030  0.1573
17757W        W60695   0.150  30.134  22.876  0.1076  0.3289  0.0468
17758W        W60696   2.913  28.567  21.779  0.4183  0.0788 -0.2023
17759W        W60697   3.899  30.842  21.924  0.0095  0.1092  0.0317
17760W        W60698   0.857  32.112  21.262  0.0060  0.2132 -0.0091
17761W        W60699   2.395  31.864  21.801  0.1895 -0.6169 -0.1896
17762W        W60700   3.033  29.771  22.993 -0.0371 -0.2888  0.1628
17763W        W60701   1.335  33.168  21.683 -0.0345 -0.1379  0.0768
17764W        W60702  34.138  33.385  21.616  0.3425 -0.1213 -0.1420
17765W        W60703   1.096  32.214  22.281  0.2747  0.1183  0.0086
17766W        W60704   3.647  31.667  22.474  0.3483 -0.1306  0.5010
17767W        W60705   3.088  30.592  25.297  0.5914  0.1367  0.0828
17768W        W60706   1.625  32.995  22.674  0.1497  0.2105  0.2859
17769W        W60707   0.939  31.564  21.750  0.0304  0.1324  0.0709
17770W        W60708   0.853  33.568  23.275 -0.1942 -0.1785 -0.1551
17771W        W60709   0.285  31.991  24.443  0.3018  0.1435  0.2839
17772W        W60710   1.546  31.194  21.917  0.3648  0.1315  0.1444
17773W        W60711   1.327  31.372  22.670 -0.1506 -0.1264 -0.5884
17774W        W60712   2.532  32.069  20.643 -0.0551 -0.1285 -0.1719
17775W        W60713  34.117  30.957  21.958 -0.1340 -0.0994 -0.1491
17776W        W60714   1.640  32.149  24.889  0.0346  0.5042 -0.2464
17777W        W60715   0.998  31.283  20.798  0.1674  0.0004  0.0169
17778W        W60716   3.248  29.374  23.811 -0.2787  0.0835 -0.2271
17779W        W60717   0.154  31.683  21.030  0.1093 -0.1019  0.1318
17780W        W60718   2.387  31.178  20.695 -0.4525  0.0988 -0.0180
17781W        W60719   0.975  29.965  20.300  0.0858 -0.0726  0.1915
17782W        W60720   2.159  30.649  20.673  0.3355  0.1259  0.1530
17783W        W60721   1.274  29.515  21.631 -0.3382  0.1899  0.0297
17784W        W60722   0.288  31.857  23.159  0.0373  0.0312  0.1320
17785W        W60723   1.807  30.746  23.245 -0.1641 -0.0529 -0.0678
17786W        W60724   4.042  31.725  23.739  0.1086 -0.3605  0.2955
17787W        W60725   2.025  31.175  21.652 -0.1823 -0.0984 -0.0932
17788W        W60726   1.870  30.670  22.621  0.1435 -0.0029  0.2912
17789W        W60727   0.010  32.350  24.041  0.1921  0.5465  0.0098
17790W        W60728   1.295  30.191  22.811 -0.4283  0.0733 -0.2528
17791W        W60729   2.706  31.756  19.237 -0.0250  0.1261 -0.0072
17792W        W60730   3.768  31.363  21.917 -0.3614 -0.1509 -0.0075
17793W        W60731   3.067  32.788  21.700 -0.0768  0.0772 -0.0690
17794W        W60732   1.527  29.809  20.387  0.0666  0.1330  0.2837
17795W        W60733  34.050  30.438  23.627  0.1298  0.2702  0.3176
17796W        W60734   0.503  32.226  24.111  0.2254  0.0874  0.0005
17797W        W60735   0.761  27.854  20.554 -0.0904  0.0905  0.4455
17798W        W60736   4.621  31.060  23.585 -0.1115 -0.0856 -0.0288
17799W        W60737  33.609  30.783  21.563 -0.2539  0.1031  0.2021
17800W        W60738   2.024  30.496  21.105  0.3177 -0.2078 -0.0043
17801W        W60739  33.664  29.699  21.815 -0.2386 -0.3305  0.0662
17802W        W60740   1.708  30.668  22.008 -0.0512 -0.5263 -0.1583
17803W        W60741   2.424  30.252  21.070 -0.1205  0.1850 -0.2240
17804W        W60742   4.119  28.107  20.481 -0.0217 -0.0075 -0.0203
17805W        W60743   1.773  29.183  21.156  0.0410 -0.3069 -0.2464
17806W        W60744   1.124  31.056  21.575  0.0605  0.1014  0.0144
17807W        W60745   0.418  31.435  21.912 -0.1931 -0.1361 -0.0665
17808W        W60746   2.979  32.320  22.586  0.2119 -0.2111  0.0074
17809W        W60747   2.556  31.515  20.074  0.1222 -0.0392  0.0581
17810W        W60748   0.041  31.512  23.436 -0.3129  0.1807  0.0338
17811W        W60749   1.035  30.028  23.208  0.0563  0.1012 -0.0883
17812W        W60750   2.079  31.637  23.543 -0.2571 -0.1998 -0.2395
17813W        W60751   0.451  32.032  19.725 -0.0829  0.2629  0.1632
17814W        W60752   0.328  30.580  21.558 -0.1356 -0.1098  0.0145
17815W        W60753   0.006  29.752  21.673  0.1307 -0.2534 -0.4398
17816W        W60754   1.152  29.489  23.052 -0.1935 -0.0234 -0.0813
17817W        W60755   2.568  31.870  22.642  0.0255 -0.0732 -0.0943
17818W        W60756   1.637  29.436  20.678  0.0406  0.0514 -0.1585
17819W        W60757   1.427  30.492  22.430 -0.5052  0.1745  0.0899
17820W        W60758   2.368  28.255  21.570 -0.1103 -0.2106 -0.0490
17821W        W60759  33.829  31.529  21.138  0.2233  0.1185  0.1503
17822W        W60760   3.362  31.557  22.107  0.1283  0.1322 -0.1040
17823W        W60761   2.153  29.928  19.277  0.0992 -0.1900  0.0300
17824W        W60762   0.529  32.174  20.840 -0.0799 -0.0890  0.3740
17825W        W60763  34.372  30.481  24.337  0.0275  0.1859  0.1281
17826W        W60764   0.455  29.448  21.638  0.3642 -0.1814 -0.0117
17827W        W60765   0.104  27.993  22.613 -0.0936  0.0958 -0.1685
17828W        W60766   0.016  29.342  22.493  0.0541  0.0868  0.0629
17829W        W60767   1.794  31.027  23.737  0.0146  0.0171  0.1587
17830W        W60768  32.883  28.842  20.558  0.1043 -0.1847  0.0478
17831W        W60769   1.196  30.777  22.094  0.0287  0.1285 -0.3850
17832W        W60770   1.630  31.003  21.409  0.3501 -0.1050 -0.1674
17833W        W60771  34.678  31.249  21.492 -0.1167 -0.2965 -0.0230
17834W        W60772   3.340  30.555  22.513  0.2707  0.2954 -0.0090
17835W        W60773   2.192  33.247  19.378  0.1048  0.1082 -0.0365
17836W        W60774   4.199  30.789  23.357  0.0845  0.2583  0.0077
17837W        W60775   3.182  31.438  21.248  0.0142  0.5627 -0.3506
17838W        W60776   0.392  31.539  22.769  0.2391  0.1413 -0.1304
17839W        W60777  34.507  30.653  20.778  0.0749 -0.0189  0.1394
17840W        W60778  34.671  32.569  22.975 -0.2162  0.1066 -0.2594
17841W        W60779   1.531  32.209  21.886 -0.0954  0.0043  0.0565
17842W        W60780   1.287  29.444  21.076  0.1032  0.0503  0.0024
17843W        W60781   4.196  30.455  22.779  0.0368  0.0752 -0.0807
17844W        W60782   2.193  32.231  22.415 -0.1947  0.0919 -0.0829
17845W        W60783  33.350  31.901  23.923  0.0697 -0.1837 -0.2431
17846W        W60784   3.048  30.150  22.725 -0.1310  0.0383 -0.1446
17847W        W60785   2.818  28.929  22.032  0.0155 -0.1508 -0.0960
17848W        W60786   2.728  30.343  20.644  0.1772  0.2455  0.0546
17849W        W60787  33.676  29.718  19.284 -0.3954  0.0425 -0.0281
17850W        W60788   2.762  31.287  22.328  0.0873 -0.3413 -0.1370
17851W        W60789   0.778  33.000  21.685 -0.0810 -0.2011  0.0818
17852W        W60790  34.319  29.073  20.599  0.0274 -0.3666 -0.0381
17853W        W60791   1.159  32.041  21.646 -0.0109  0.1681  0.0522
17854W        W60792   4.132  28.259  21.898 -0.0045 -0.1583 -0.1265
17855W        W60793   1.397  28.889  23.352  0.3697 -0.2487 -0.4259
17856W        W60794   1.773  30.183  22.673 -0.2893  0.0322  0.1159
17857W        W60795   0.047  30.318  21.101 -0.2257 -0.1289  0.0926
17858W        W60796   1.608  32.929  24.418  0.1527  0.2541  0.1669
17859W        W60797   2.735  29.174  19.259 -0.0913  0.1002  0.1924
17860W        W60798   4.659  29.420  20.250  0.0893 -0.1422  0.0667
17861W        W60799   0.929  29.799  22.727 -0.2906 -0.3685  0.1858
17862W        W60800   3.531  31.171  20.452 -0.0225  0.0746 -0.1337
17863W        W60801   1.793  30.982  20.497 -0.0695  0.1776  0.1842
17864W        W60802   1.706  29.881  20.916 -0.0137  0.3524 -0.0702
17865W        W60803  34.344  31.869  22.269 -0.0879  0.0904  0.0747
17866W        W60804   3.239  30.938  22.863  0.2046 -0.1438 -0.1197
17867W        W60805   0.857  31.092  21.967 -0.2002  0.0910 -0.0905
17868W        W60806   1.105  30.524  19.851 -0.0264  0.0387 -0.3046
17869W        W60807   2.720  31.553  20.593  0.1701 -0.0136 -0.0445
17870W        W60808   0.123  30.433  22.052  0.3603 -0.0203 -0.2411
17871W        W60809   1.525  32.066  23.979  0.0686  0.0239  0.3912
17872W        W60810   2.172  31.700  21.363  0.0445  0.1388  0.2961
17873W        W60811   1.162  30.097  22.323  0.0955  0.2122 -0.0116
17874W        W60812   1.166  31.326  19.652  0.0312  0.2234  0.3200
17875W        W60813   1.483  28.878  20.028  0.2592  0.1031 -0.1744
17876W        W60814  34.544  31.446  19.241 -0.2324 -0.4076 -0.0962
17877W        W60815   2.149  27.867  21.916 -0.0328 -0.0518 -0.0823
17878W        W60816   0.648  28.316  22.889  0.0277  0.1165 -0.2572
17879W        W60817   2.244  27.728  23.451  0.0589 -0.0530  0.0129
17880W        W60818   3.407  30.134  23.140 -0.1435 -0.3238  0.2491
17881W        W60819   2.446  30.877  21.907 -0.2332  0.1020 -0.0862
17882W        W60820   2.043  31.176  22.217  0.0172 -0.1130  0.1557
17883W        W60821   0.817  32.425  20.487 -0.0068  0.3941  0.2295
17884W        W60822   1.028  29.664  22.120 -0.4003  0.0369 -0.1753
17885W        W60823   0.973  31.424  23.085 -0.0625  0.2861 -0.0373
17886W        W60824  34.576  30.324  21.588  0.2259 -0.1932  0.0464
17887W        W60825   2.028  31.218  23.305 -0.0402  0.0721 -0.0559
17888W        W60826   1.587  31.019  22.365  0.1585  0.0050 -0.2792
17889W        W60827   2.849  28.667  24.191 -0.1084 -0.0312 -0.3285
17890W        W60828   1.280  29.094  20.486  0.1374 -0.3219 -0.1035
17891W        W60829   2.025  32.915  22.328 -0.1563  0.0577  0.0753
17892W        W60830   0.492  31.464  21.453  0.2644 -0.0335 -0.0458
17893W        W60831   0.812  28.548  20.566  0.0331  0.1435  0.0367
17894W        W60832   1.733  31.735  22.844 -0.1055 -0.4376 -0.4254
17895W        W60833   1.210  32.304  19.693 -0.2748 -0.0260  0.1696
17896W        W60834   2.508  31.307  23.132 -0.0149  0.0304 -0.0374
17897W        W60835   1.196  32.931  20.669 -0.1072 -0.0995 -0.0772
17898W        W60836   2.493  28.949  22.444 -0.0101  0.1276 -0.1775
17899W        W60837  34.642  32.604  21.589  0.1648  0.1865 -0.0162
17900W        W60838   0.854  29.206  20.836  0.2155  0.1968  0.1541
17901W        W60839  34.135  30.540  21.570  0.3659  0.2175 -0.0475
17902W        W60840   2.565  29.548  21.666  0.3299  0.0352  0.0578
17903W        W60841   1.858  30.256  20.270 -0.2456  0.0960 -0.1830
17904W        W60842   0.728  30.195  22.865  0.1773  0.1226  0.0123
17905W        W60843   0.970  29.151  21.378  0.1718 -0.3317  0.0804
17906W        W60844  33.867  32.652  23.904  0.1588  0.1149  0.3780
17907W        W60845   2.962  31.364  22.837 -0.3452  0.0128  0.0421
17908W        W60846   2.139  29.008  20.855 -0.0518 -0.5209  0.0693
17909W        W60847   3.217  31.062  22.212  0.2105 -0.1735 -0.1301
17910W        W60848   0.863  31.596  22.615 -0.1514  0.2197  0.0373
17911W        W60849   0.037  30.637  20.244 -0.0573  0.3297 -0.0912
17912W        W60850   3.043  29.772  21.657  0.0831  0.0414  0.3239
17913W        W60851   1.232  30.481  21.540 -0.2057  0.2464  0.3736
17914W        W60852   0.621  31.962  21.791 -0.0478 -0.0501 -0.0851
17915W        W60853   1.393  32.249  22.709  0.0351 -0.1923  0.2949
17916W        W60854  34.165  31.190  20.854 -0.0589  0.1246 -0.2887
17917W        W60855   0.522  32.607  21.507  0.1554  0.0636  0.0852
17918W        W60856   1.087  28.120  23.338 -0.2445 -0.1204 -0.0405
17919W        W60857   2.202  29.906  22.213  0.0721 -0.0214  0.0526
17920W        W60858   1.338  29.984  21.781  0.1398  0.4357  0.1629
17921W        W60859   0.482  29.006  21.425 -0.1708  0.0508 -0.0603
17922W        W60860   0.340  30.128  21.742  0.1008 -0.0253 -0.3353
17923W        W60861   2.411  30.133  21.661  0.1559 -0.3737  0.0670
17924W        W60862   1.771  31.153  22.839  0.1623 -0.1286 -0.2059
17925W        W60863  34.486  33.054  23.203 -0.1360  0.0861  0.1875
17926W        W60864   1.112  28.436  20.972 -0.0991  0.1854  0.0715
17927W        W60865   3.711  31.860  21.889 -0.2277 -0.2385  0.0999
17928W        W60866   3.059  30.311  24.057  0.2303  0.2103  0.4165
17929W        W60867  34.579  29.875  20.258  0.1117 -0.3219 -0.2572
17930W        W60868  33.318  30.932  22.690  0.0383 -0.4147  0.1551
17931W        W60869   1.421  31.718  21.959  0.2532 -0.0340 -0.0161
17932W        W60870   1.490  28.290  22.583 -0.1940 -0.2259 -0.4736
17933W        W60871   0.521  31.445  23.294  0.1477 -0.0699 -0.0637
17934W        W60872   0.870  31.183  18.429  0.2207 -0.0706 -0.0233
17935W        W60873  33.728  32.513  23.358  0.0409 -0.2561 -0.1566
17936W        W60874   3.255  28.773  20.473  0.4076 -0.1800 -0.0438
17937W        W60875   1.596  31.189  20.075 -0.0624 -0.2558  0.1516
17938W        W60876   1.759  28.831  20.569  0.1754 -0.2465  0.2531
17939W        W60877   3.462  27.771  25.012 -0.1159  0.1489  0.0085
17940W        W60878   1.867  30.054  21.711  0.1232 -0.0043  0.1215
17941W        W60879   3.298  28.390  24.314 -0.0548 -0.0780  0.1393
17942W        W60880   1.863  28.627  22.412 -0.1093  0.2229 -0.1163
17943W        W60881   3.415  31.518  22.881 -0.0364 -0.0682  0.2227
17944W        W60882  34.341  29.979  24.308  0.1329  0.0799  0.1132
17945W        W60883   2.383  33.423  23.709 -0.0228 -0.3209 -0.5552
17946W        W60884  33.539  30.735  24.709  0.2087 -0.0767 -0.0507
17947W        W60885   2.117  30.123  20.748 -0.5124  0.2625  0.0022
17948W        W60886   0.005  29.252  21.407 -0.2596 -0.0595  0.1555
17949W        W60887  34.262  30.028  22.484 -0.0888 -0.2205  0.0678
17950W        W60888   2.484  30.569  21.437  0.0195  0.0640 -0.0141
17951W        W60889   1.695  30.792  20.917 -0.3031 -0.3022 -0.0149
17952W        W60890   3.519  30.606  21.363  0.1358 -0.0140 -0.1269
17953W        W60891   1.201  31.371  22.197 -0.0939 -0.2407  0.0641
17954W        W60892   2.371  31.202  22.640 -0.2142 -0.0994 -0.0003
17955W        W60893   1.380  32.260  21.136  0.2507 -0.0551  0.2504
17956W        W60894  33.296  31.459  22.031 -0.0521  0.0638 -0.0993
17957W        W60895   2.566  29.186  24.028 -0.1253 -0.0170 -0.1057
17958W        W60896   1.781  31.542  22.409 -0.2025 -0.0399 -0.0142
17959W        W60897   2.117  28.828  21.400  0.0399 -0.2632  0.3143
17960W        W60898   2.230  28.576  21.947 -0.4788 -0.0500  0.0090
17961W        W60899   3.162  29.773  22.393  0.1938 -0.2606 -0.0754
17962W        W60900   0.966  28.576  23.330 -0.4128  0.0671 -0.1176
17963W        W60901  33.928  29.426  22.869  0.2187 -0.2572 -0.1976
17964W        W60902   3.164  32.516  23.423  0.1942  0.0478 -0.0575
17965W        W60903   3.179  30.613  20.497 -0.3117  0.0673 -0.1361
17966W        W60904   2.369  29.410  22.259  0.1669 -0.1083  0.3960
17967W        W60905   1.969  30.663  21.586  0.4434  0.1156 -0.0632
17968W        W60906   1.522  30.682  20.204  0.2523 -0.1105  0.2724
17969W        W60907  34.154  29.341  22.412  0.1169  0.0908 -0.1098
17970W        W60908   1.727  30.092  23.952 -0.0814 -0.0186  0.1014
17971W        W60909   1.623  30.280  21.323 -0.0411  0.1614 -0.1061
17972W        W60910   0.661  29.279  22.825 -0.3113 -0.1040  0.1970
17973W        W60911   1.862  32.484  20.607 -0.3076  0.1712 -0.1509
17974W        W60912   2.223  30.815  22.986  0.0818 -0.3091 -0.1281
17975W        W60913   1.881  28.397  21.572  0.0007 -0.0262  0.3742
17976W        W60914   0.757  29.974  20.879  0.3829  0.2539  0.0119
17977W        W60915   0.033  31.928  24.876 -0.1911  0.2315 -0.1637
17978W        W60916   1.028  30.423  20.963 -0.1903  0.0972 -0.0505
17979W        W60917  34.406  31.011  22.900 -0.1900  0.1104  0.1183
17980W        W60918   0.800  30.886  23.361  0.1369  0.0894 -0.0937
17981W        W60919   1.558  30.651  23.997  0.0162  0.0755 -0.2809
17982W        W60920   1.081  29.193  19.944 -0.2136  0.0188  0.2252
17983W        W60921   1.084  29.318  22.537 -0.1455  0.2323  0.0018
17984W        W60922   0.700  31.724  21.036 -0.3924  0.1930 -0.0615
17985W        W60923   2.615  28.117  21.015  0.0727 -0.2295 -0.1824
17986W        W60924   1.769  32.019  22.283  0.0723 -0.0956  0.0188
17987W        W60925  33.521  31.390  23.782 -0.3858  0.1824 -0.3027
17988W        W60926   1.172  31.752  21.175 -0.1674 -0.0577  0.1113
17989W        W60927   1.751  27.837  22.329 -0.0097 -0.4201 -0.1774
17990W        W60928   2.721  30.889  22.999  0.0946 -0.1238 -0.0458
17991W        W60929   1.246  30.838  21.170  0.0168  0.0429 -0.1626
17992W        W60930   2.804  29.929  22.046 -0.0112  0.3040  0.1020
17993W        W60931   2.640  30.463  22.806  0.1148  0.2975 -0.0935
17994W        W60932  34.161  31.201  21.449  0.0819 -0.1690  0.0555
17995W        W60933   2.798  32.311  23.143  0.1749 -0.0863  0.3385
17996W        W60934   3.676  33.016  21.661  0.3285  0.1516 -0.1294
17997W        W60935  34.621  32.862  22.623 -0.0035  0.2162 -0.0168
17998W        W60936  34.469  29.483  23.752 -0.1896 -0.0641  0.0782
17999W        W60937   1.441  29.877  23.533 -0.0767 -0.0899  0.0316
18000W        W60938   2.127  30.444  22.084  0.1362  0.5711  0.0811
18001W        W60939   0.808  28.179  20.133 -0.0195 -0.0196  0.1515
18002W        W60940   1.231  32.693  22.462  0.1505 -0.1431 -0.2334
18003W        W60941   0.091  31.342  22.416  0.0566 -0.2929  0.2031
18004W        W60942  34.515  29.281  21.874 -0.2318 -0.0139  0.1149
18005W        W60943  34.242  32.823  19.559  0.0466  0.1062 -0.6596
18006W        W60944   1.968  31.519  20.934 -0.0949 -0.3602 -0.1264
18007W        W60945   2.863  30.770  22.479  0.0782 -0.1425  0.2626
18008W        W60946   1.131  33.099  22.776 -0.1895 -0.1043  0.1485
18009W        W60947   0.753  30.275  21.445 -0.1219 -0.3027  0.1549
18010W        W60948   0.879  31.803  22.170  0.0704 -0.2307 -0.0482
18011W        W60949  34.025  31.863  20.715  0.2036 -0.2340 -0.0645
18012W        W60950   1.585  31.918  20.676 -0.1334 -0.0907  0.0539
18013W        W60951  34.076  30.706  23.235  0.2731 -0.0938 -0.1501
18014W        W60952   3.120  31.344  23.836  0.3000 -0.1126  0.0699
18015W        W60953   1.962  29.513  19.412 -0.2004 -0.0153  0.0980
18016W        W60954   2.971  29.425  21.279  0.0980  0.2984  0.4238
18017W        W60955   4.129  29.862  20.881  0.1540 -0.0770 -0.0066
18018W        W60956   2.598  30.380  24.456 -0.1033  0.1394  0.0785
18019W        W60957   0.130  30.912  22.168 -0.0758  0.0197  0.0187
18020W        W60958   1.402  28.967  21.510  0.0510  0.1989  0.2023
18021W        W60959   0.503  31.233  23.732 -0.2082 -0.0467 -0.2196
18022W        W60960   2.089  29.619  21.796 -0.0471 -0.0512  0.1106
18023W        W60961   0.322  32.861  23.153  0.1572 -0.0058 -0.0156
18024W        W60962   2.637  32.167  21.312 -0.2315 -0.1912 -0.1243
18025W        W60963   0.877  29.276  21.830  0.1011  0.1081 -0.2617
18026W        W60964   0.449  29.880  21.260  0.1446 -0.2032 -0.0525
18027W        W60965   3.480  28.171  22.419 -0.3421 -0.0127 -0.1700
18028W        W60966   2.024  31.221  19.187  0.2308  0.2288 -0.0739
18029W        W60967   0.606  30.761  22.301  0.0131 -0.0542 -0.1599
18030W        W60968   0.885  32.638  22.850  0.2247  0.1222 -0.2566
18031W        W60969  34.062  30.046  21.650  0.0792 -0.1775 -0.0585
18032W        W60970   1.376  32.709  23.040  0.1582  0.1856 -0.0975
18033W        W60971   0.721  29.756  19.157  0.2098  0.1140  0.4180
18034W        W60972   4.054  29.282  21.137 -0.1902  0.0047 -0.1986
18035W        W60973   0.906  32.007  23.907 -0.1856  0.0323  0.1735
18036W        W60974   1.637  29.673  21.992  0.0598  0.0784 -0.1058
18037W        W60975   1.338  31.795  22.454 -0.1078 -0.1156  0.1080
18038W        W60976   2.461  29.380  20.464  0.0316  0.2512  0.3881
18039W        W60977   2.674  30.457  23.301 -0.0682  0.2444 -0.1063
18040W        W60978  34.555  31.587  23.891  0.0741  0.0025 -0.0849
18041W        W60979   0.757  30.805  20.706  0.2549 -0.1441 -0.0742
18042W        W60980   3.726  29.137  22.703  0.0465 -0.2502 -0.0536
18043W        W60981   2.096  30.681  20.119  0.2170 -0.1760 -0.2303
18044W        W60982   1.941  32.135  23.543 -0.0909 -0.2200  0.0534
18045W        W60983  34.413  29.701  20.700 -0.1463  0.2653  0.0245
18046W        W60984   2.054  29.996  21.263  0.1220  0.1148 -0.4731
18047W        W60985  33.663  30.288  22.396 -0.0025  0.3212  0.0622
18048W        W60986  34.683  31.870  22.675  0.0199  0.0846  0.0780
18049W        W60987   3.324  31.787  24.118  0.1238 -0.1674 -0.0826
18050W        W60988   1.223  31.605  20.475  0.1421  0.1362 -0.0620
18051W        W60989   3.157  30.836  20.019  0.0812 -0.0898 -0.1816
18052W        W60990   3.554  30.083  22.388  0.1722  0.6265  0.0089
18053W        W60991   1.814  32.798  19.654 -0.1165 -0.0045  0.1361
18054W        W60992   3.392  30.796  23.314  0.3050  0.2630 -0.3737
18055W        W60993   3.217  33.074  22.564  0.1992  0.0123  0.0369
18056W        W60994   0.574  29.790  22.336 -0.0287 -0.0739 -0.2020
18057W        W60995   2.594  30.001  23.040 -0.0430  0.1259  0.0788
18058W        W60996   4.494  31.544  23.556 -0.0337  0.0354  0.0872
18059W        W60997   1.036  28.863  22.074  0.0607  0.1403  0.0588
18060W        W60998   0.161  30.872  22.650 -0.1072  0.6271  0.2874
18061W        W60999   0.261  33.086  21.463 -0.1469  0.1143  0.0983
18062W        W61000   4.472  28.664  21.225 -0.2588 -0.1860 -0.1221
18063W        W61001   2.394  29.148  21.891  0.0406  0.1191 -0.1056
18064W        W61002   3.283  32.342  20.362  0.1014 -0.1886 -0.0525
18065W        W61003   2.216  28.920  23.169  0.0123  0.2127 -0.1251
18066W        W61004   2.390  31.992  23.647 -0.1685 -0.0747 -0.1181
18067W        W61005   1.746  31.795  24.514  0.4222  0.2197 -0.1462
18068W        W61006   0.215  30.815  21.141  0.1468 -0.0619 -0.1391
18069W        W61007   2.267  31.688  22.283  0.1486 -0.0281 -0.0296
18070W        W61008   1.246  32.098  20.247 -0.0972 -0.0148  0.2506
18071W        W61009   1.409  32.696  21.976 -0.0932 -0.2843 -0.0801
18072W        W61010   1.948  31.589  21.891 -0.0209  0.1757 -0.1145
18073W        W61011   2.908  28.039  21.631  0.0526  0.1321 -0.2025
18074W        W61012   4.003  29.689  22.632 -0.1113 -0.0845 -0.2299
18075W        W61013  33.820  28.541  21.610  0.1169  0.2137 -0.3838
18076W        W61014   4.457  29.467  20.722 -0.0604 -0.0807 -0.1002
18077W        W61015   3.228  30.201  22.013 -0.0053  0.3314 -0.3058
18078W        W61016   0.636  31.089  22.905  0.0550  0.1828  0.0561
18079W        W61017   0.252  31.400  20.572 -0.0365  0.1092  0.0157
18080W        W61018   0.511  31.210  20.985  0.0845 -0.2104 -0.1671
18081W        W61019  34.645  29.733  21.178  0.4580  0.2428 -0.2506
18082W        W61020   1.351  27.028  24.091  0.1436 -0.2865 -0.0417
18083W        W61021  34.031  31.387  23.728 -0.0339 -0.1239 -0.0776
18084W        W61022   0.081  29.928  22.360  0.3499  0.0415  0.0934
18085W        W61023  34.448  29.374  20.143 -0.1046  0.0773 -0.2325
18086W        W61024   2.971  32.284  21.732 -0.1506 -0.0628  0.0297
18087W        W61025   0.972  27.747  21.925  0.0004  0.0190 -0.0271
18088W        W61026  33.728  29.075  20.914  0.1126 -0.0059  0.3658
18089W        W61027   2.039  32.257  21.492  0.2063 -0.1072 -0.0909
18090W        W61028   2.932  31.233  21.869 -0.0039  0.4958  0.1052
18091W        W61029  34.614  30.783  21.742  0.0631 -0.0717  0.0844
18092W        W61030   4.217  32.237  24.205  0.0943 -0.1680 -0.1986
18093W        W61031  33.763  31.036  20.591  0.1659  0.0251  0.3788
18094W        W61032   0.949  30.509  22.564  0.2648 -0.1532  0.1480
18095W        W61033  34.690  28.028  22.138 -0.1672 -0.0006 -0.0965
18096W        W61034  34.040  30.665  20.895 -0.0444  0.0852  0.1574
18097W        W61035   2.179  30.314  23.069  0.2071  0.1393 -0.1463
18098W        W61036   2.635  32.254  22.171  0.2272 -0.2297 -0.2393
18099W        W61037   3.220  31.833  21.674 -0.1729  0.3507 -0.4009
18100W        W61038   0.593  31.318  22.335 -0.1198 -0.2022 -0.0874
18101W        W61039   0.285  32.204  23.551 -0.0419 -0.1996  0.0915
18102W        W61040  33.959  29.337  21.920 -0.0723  0.1247 -0.0462
18103W        W61041   2.423  31.367  21.964 -0.2329 -0.1330  0.2144
18104W        W61042   2.013  29.852  23.276  0.0347  0.3563  0.0349
18105W        W61043   3.315  31.944  19.922 -0.0727 -0.2694 -0.1084
18106W        W61044   2.658  28.896  21.537  0.1987 -0.0658 -0.0550
18107W        W61045   1.727  29.256  21.743 -0.0748  0.0529  0.1502
18108W        W61046   0.288  28.428  22.414  0.0277 -0.1045 -0.1218
18109W        W61047  34.525  32.023  23.133  0.0411  0.4166  0.0824
18110W        W61048   2.889  33.024  23.546 -0.1242 -0.2884 -0.0503
18111W        W61049   0.299  29.186  23.127 -0.2576  0.0485  0.1875
18112W        W61050   1.374  29.265  22.095  0.0308  0.2143  0.1646
18113W        W61051   2.220  31.708  20.540 -0.3277  0.0027 -0.2208
18114W        W61052   0.818  31.852  23.287 -0.2302 -0.2404  0.1949
18115W        W61053   2.644  30.744  20.947  0.0806 -0.0785  0.4587
18116W        W61054   2.266  30.272  22.587  0.2882  0.3709  0.0599
18117W        W61055   2.220  31.800  23.055  0.2228 -0.1210  0.1402
18118W        W61056   2.321  30.748  22.408 -0.3128 -0.0013 -0.0265
18119W        W61057   1.269  30.880  20.606 -0.0426  0.3266  0.0762
18120W        W61058   2.765  31.258  21.029  0.0970  0.0804  0.4106
18121W        W61059   0.586  33.040  22.774 -0.1369  0.1346  0.0064
18122W        W61060   2.806  31.672  24.140 -0.0682  0.0729 -0.0660
18123W        W61061   1.221  31.838  22.963  0.1601 -0.2552  0.1683
18124W        W61062   2.958  30.301  21.569 -0.0023 -0.0475 -0.1680
18125W        W61063  33.860  28.883  22.119 -0.0026 -0.1822  0.1074
18126W        W61064  33.662  30.569  20.610 -0.1907  0.4506 -0.1005
18127W        W61065   0.815  30.656  21.781  0.0440  0.2501  0.0440
18128W        W61066   0.745  30.256  22.055 -0.3562 -0.0572 -0.1828
18129W        W61067   0.035  28.838  22.581  0.3083 -0.1222  0.0945
18130W        W61068   1.961  28.949  19.279 -0.1421 -0.3214  0.2521
18131W        W61069   2.524  32.812  23.178  0.0484  0.0818  0.0121
18132W        W61070   0.960  30.999  22.501  0.1099 -0.2276 -0.2891
18133W        W61071   1.812  32.737  27.411 -0.1482 -0.0102 -0.3223
18134W        W61072  33.268  30.274  24.516  0.1594 -0.3340  0.1298
18135W        W61073   3.534  29.743  22.769  0.0136  0.4137  0.3069
18136W        W61074   2.959  30.868  24.448  0.0816  0.3149  0.2890
18137W        W61075   1.095  29.533  23.634 -0.2265  0.0702 -0.4850
18138W        W61076   2.715  31.849  24.575  0.1449 -0.0353 -0.0001
18139W        W61077   1.248  28.710  26.191 -0.0600  0.0846  0.0276
18140W        W61078   2.780  31.437  26.465  0.4410  0.1920 -0.2340
18141W        W61079   2.264  32.894  27.208 -0.3311  0.0491  0.1296
18142W        W61080   2.608  29.892  22.501 -0.0974  0.1062  0.0443
18143W        W61081   2.544  30.842  26.959 -0.2393 -0.5306 -0.2735
18144W        W61082   2.851  30.565  26.442  0.2139  0.0579  0.1435
18145W        W61083   2.162  28.851  25.026  0.0690 -0.2487 -0.0821
18146W        W61084   0.839  29.052  25.828  0.0635 -0.2080  0.1291
18147W        W61085   2.077  30.684  26.918  0.2846  0.1754  0.0894
18148W        W61086   1.214  32.557  24.570 -0.1516 -0.2367 -0.1317
18149W        W61087   1.031  30.370  25.148  0.2548  0.0804  0.0658
18150W        W61088   1.563  28.565  24.848  0.0182 -0.2459 -0.3133
18151W        W61089   3.238  30.901  24.052  0.3709  0.0900 -0.4795
18152W        W61090   0.887  30.605  26.963  0.0990 -0.0134 -0.1347
18153W        W61091   3.006  29.134  27.168  0.2818 -0.0596  0.0698
18154W        W61092   1.393  31.358  23.688 -0.0529 -0.1566 -0.3914
18155W        W61093   0.764  30.440  23.574 -0.1484 -0.2406 -0.3088
18156W        W61094   0.402  29.622  25.474 -0.0811  0.1513  0.0281
18157W        W61095   0.558  29.996  25.900  0.1415  0.0031 -0.0591
18158W        W61096   2.917  28.982  26.618  0.2411  0.0986 -0.2424
18159W        W61097   2.649  29.501  24.620  0.0748  0.1000  0.1249
18160W        W61098   2.088  32.051  25.618  0.1108 -0.0926  0.2184
18161W        W61099   1.263  32.892  26.794  0.2803  0.1415 -0.1293
18162W        W61100   2.511  30.768  28.048 -0.4921 -0.0831 -0.3906
18163W        W61101   0.686  32.574  25.543  0.0851 -0.2225  0.0305
18164W        W61102   1.028  32.544  26.402  0.0025 -0.3993 -0.2263
18165W        W61103   2.198  31.086  24.994 -0.0668 -0.4541  0.2634
18166W        W61104   3.287  31.554  25.589  0.3707 -0.2634  0.2195
18167W        W61105   1.608  33.924  25.815  0.2725  0.0626  0.1458
18168W        W61106   1.661  31.936  27.757  0.0877 -0.0058 -0.0163
18169W        W61107   1.798  31.646  24.009 -0.1130 -0.0196 -0.4329
18170W        W61108   2.392  33.407  27.248  0.0325 -0.0836 -0.0285
18171W        W61109   2.102  31.227  28.583  0.4136  0.1695  0.0007
18172W        W61110   1.251  31.355  25.912 -0.0658 -0.0914  0.0477
18173W        W61111   1.916  29.510  24.512  0.3694  0.2171 -0.0491
18174W        W61112   2.465  30.850  24.568  0.1569 -0.3635 -0.0355
18175W        W61113   2.506  31.987  26.221 -0.0634  0.1154 -0.0192
18176W        W61114   1.631  30.122  26.744 -0.0625  0.1056 -0.3167
18177W        W61115   0.538  31.367  25.532 -0.1483  0.1341  0.2557
18178W        W61116   3.353  29.473  27.917  0.1167  0.0737 -0.2332
18179W        W61117   1.278  31.480  24.171  0.1582  0.0164  0.3799
18180W        W61118   2.667  31.021  24.085 -0.1741  0.2458  0.0015
18181W        W61119   1.619  30.240  23.164  0.1372  0.0345 -0.3505
18182W        W61120   2.357  29.120  24.498 -0.4393  0.5175 -0.0624
18183W        W61121   2.002  28.422  25.146  0.2539  0.1425 -0.1213
18184W        W61122   1.112  31.758  25.639 -0.2416 -0.1416 -0.1368
18185W        W61123   0.981  29.997  26.218  0.0755 -0.0157 -0.2483
18186W        W61124   3.433  32.343  27.244  0.3902 -0.0256 -0.0273
18187W        W61125   0.974  30.739  24.783  0.1790  0.0116 -0.4451
18188W        W61126   3.720  30.139  27.114  0.0872  0.1711 -0.1878
18189W        W61127   1.135  32.253  26.920 -0.1398 -0.0709 -0.4021
18190W        W61128  34.494  29.466  24.759  0.1058  0.0303  0.0887
18191W        W61129   1.600  31.515  23.242 -0.0507 -0.0924  0.0644
18192W        W61130   2.746  33.128  27.107 -0.1353  0.1922  0.3631
18193W        W61131   3.307  31.127  25.871  0.0937 -0.1534 -0.1545
18194W        W61132   1.132  28.913  23.783  0.0267  0.2380 -0.3550
18195W        W61133  34.085  30.817  24.737 -0.2395 -0.0843  0.1700
18196W        W61134   0.977  31.274  26.417 -0.0667 -0.1444 -0.3745
18197W        W61135   0.489  28.586  24.108 -0.2202  0.0698 -0.0491
18198W        W61136   2.830  29.745  27.235 -0.1187 -0.1149  0.0506
18199W        W61137   0.554  31.122  27.277 -0.0100 -0.0526  0.0211
18200W        W61138   2.815  30.155  25.317 -0.0632 -0.1685  0.2540
18201W        W61139   0.240  31.428  24.565 -0.0456  0.0153 -0.2232
18202W        W61140   3.545  31.052  25.253 -0.1624 -0.0971  0.1742
18203W        W61141   2.333  30.807  23.512  0.0988 -0.2825 -0.0205
18204W        W61142   3.774  28.655  26.002  0.0918 -0.0208  0.0259
18205W        W61143   2.516  29.891  26.668 -0.5098  0.1433  0.1282
18206W        W61144   0.114  30.990  24.914 -0.1823 -0.1952  0.1733
18207W        W61145   0.672  30.890  25.142 -0.5352  0.1747 -0.0378
18208W        W61146   3.009  31.900  26.344 -0.1501 -0.1766 -0.2001
18209W        W61147   2.197  31.286  23.971 -0.1157 -0.1516 -0.2987
18210W        W61148  34.069  31.995  25.460  0.1415  0.1851 -0.1430
18211W        W61149   2.331  29.659  26.214 -0.0888 -0.0853 -0.0579
18212W        W61150   1.971  32.178  27.470 -0.0836 -0.4377 -0.1663
18213W        W61151   0.559  33.759  23.991 -0.0574  0.2839  0.0710
18214W        W61152   1.030  31.215  25.497 -0.1273  0.3927 -0.1637
18215W        W61153  34.188  32.551  24.720  0.0612  0.2371  0.1645
18216W        W61154   0.633  30.950  26.678 -0.0748  0.0597  0.1143
18217W        W61155   1.919  31.187  25.409 -0.2346  0.0917  0.1543
18218W        W61156   2.272  29.414  25.276 -0.0667 -0.1558 -0.0787
18219W        W61157  34.189  30.370  27.966 -0.1127  0.0561 -0.2162
18220W        W61158   2.278  29.750  24.301  0.2439  0.0915  0.0525
18221W        W61159   1.893  31.443  24.944 -0.1995  0.0725 -0.1930
18222W        W61160   2.690  32.459  25.199 -0.1076 -0.1492  0.1187
18223W        W61161   3.120  30.571  23.640 -0.0240 -0.1227 -0.3372
18224W        W61162   3.126  30.004  24.964  0.2265  0.1240  0.4259
18225W        W61163   1.221  31.029  26.809 -0.1366  0.0765  0.0810
18226W        W61164  34.137  29.301  24.322 -0.0159  0.2799  0.0829
18227W        W61165   1.067  30.924  25.967 -0.1148 -0.0013  0.3151
18228W        W61166  33.959  29.775  25.582  0.0191  0.1923  0.0725
18229W        W61167   2.451  32.015  27.296 -0.0241 -0.3704  0.1379
18230W        W61168   0.502  28.722  23.167 -0.4348  0.0351 -0.0904
18231W        W61169   1.888  29.689  26.530 -0.2808  0.0896  0.2200
18232W        W61170  34.178  32.428  25.311 -0.0510  0.2911 -0.2279
18233W        W61171  34.269  32.912  25.222 -0.1731 -0.1365  0.1240
18234W        W61172   2.698  29.260  26.302 -0.0910 -0.1999 -0.0275
18235W        W61173   2.015  32.113  24.050  0.1468 -0.1623 -0.1156
18236W        W61174   3.669  31.790  26.023 -0.1850 -0.2102 -0.1087
18237W        W61175   3.369  32.257  26.704 -0.1173  0.0966 -0.1643
18238W        W61176   0.090  30.963  27.496  0.1008 -0.1287  0.0224
18239W        W61177   1.284  28.330  23.904  0.0728  0.2830  0.0474
18240W        W61178   1.349  32.070  24.434  0.0969 -0.0627 -0.2287
18241W        W61179   1.711  31.049  25.962  0.2344 -0.1265 -0.3123
18242W        W61180   0.998  28.733  24.802 -0.1046  0.1251 -0.0915
18243W        W61181   2.805  32.578  25.709  0.0962  0.0437 -0.0162
18244W        W61182   1.249  30.844  25.144 -0.2601  0.2878  0.0121
18245W        W61183   1.073  31.784  26.290  0.1444  0.0469  0.0098
18246W        W61184   3.504  28.388  27.609 -0.0049 -0.1522  0.3312
18247W        W61185   3.052  31.527  27.332  0.3386  0.4101  0.1297
18248W        W61186   2.088  31.306  24.471  0.1314 -0.2757  0.0473
18249W        W61187   2.104  29.232  24.118 -0.2070 -0.3880 -0.1689
18250W        W61188   2.568  33.006  25.349  0.2332 -0.2457 -0.2047
18251W        W61189  34.221  32.405  24.274  0.0926  0.2240  0.1625
18252W        W61190   1.358  31.320  25.147 -0.3540  0.1526  0.2045
18253W        W61191   2.619  31.459  24.955 -0.0822  0.3050  0.0044
18254W        W61192   3.570  29.540  25.608 -0.3425  0.1713 -0.0722
18255W        W61193   0.754  30.534  26.025  0.2555  0.0469  0.0889
18256W        W61194   1.223  30.206  27.177  0.2596  0.3947  0.1938
18257W        W61195  34.221  30.888  23.983 -0.2177 -0.1484 -0.4377
18258W        W61196   1.691  30.976  26.814  0.3597 -0.2034 -0.2790
18259W        W61197   2.528  28.585  25.643  0.3491  0.4771  0.2151
18260W        W61198   2.971  29.273  24.265 -0.0135 -0.1381  0.0942
18261W        W61199   2.750  32.173  28.321 -0.0008  0.1088 -0.1457
18262W        W61200   2.108  30.108  24.585 -0.2430 -0.0925  0.0350
18263W        W61201   2.936  30.079  23.422 -0.0699 -0.0773  0.1428
18264W        W61202   2.968  28.249  25.525 -0.2640  0.0346 -0.0923
18265W        W61203   1.549  31.380  27.155  0.1416  0.1429 -0.0245
18266W        W61204   2.174  32.148  24.553 -0.1580  0.0691  0.1565
18267W        W61205   2.564  30.988  26.466  0.1338  0.2508  0.2925
18268W        W61206   1.543  29.253  22.744  0.2215  0.1190 -0.1243
18269W        W61207   3.473  30.927  24.587 -0.0272  0.2997  0.1053
18270W        W61208   0.611  30.979  26.215  0.2306 -0.2662  0.1357
18271W        W61209   2.751  33.018  28.083 -0.1759  0.1365  0.0888
18272W        W61210   3.894  32.688  26.056 -0.0503 -0.2449 -0.1611
18273W        W61211   2.135  30.437  27.382  0.2407 -0.2290  0.0443
18274W        W61212  34.513  32.827  24.357 -0.0518 -0.4710  0.0667
18275W        W61213   0.892  29.587  24.425 -0.0382 -0.0148  0.0478
18276W        W61214  32.922  32.649  23.646 -0.1875 -0.0501  0.1357
18277W        W61215   3.262  29.508  26.804  0.0045 -0.0234  0.1979
18278W        W61216   2.549  28.983  27.416 -0.2793  0.2424 -0.2547
18279W        W61217   2.229  29.684  24.803 -0.0402 -0.0017  0.0880
18280W        W61218   2.639  31.269  27.251 -0.1180 -0.2663  0.1935
18281W        W61219   2.916  29.962  24.485  0.2797  0.1446 -0.1695
18282W        W61220   2.774  30.048  25.823 -0.1283 -0.1780 -0.0944
18283W        W61221   0.175  30.514  24.287  0.0556 -0.4189 -0.1377
18284W        W61222   2.142  28.922  25.579 -0.1749  0.0291 -0.0278
18285W        W61223   1.637  31.870  27.239  0.1328  0.2522 -0.2266
18286W        W61224   0.690  32.220  26.605 -0.0613 -0.2223 -0.0265
18287W        W61225   2.452  32.855  25.980  0.0097 -0.1401  0.0304
18288W        W61226   2.194  32.489  24.926  0.3333 -0.1320  0.3260
18289W        W61227   1.657  30.684  28.645  0.0095 -0.0599 -0.1037
18290W        W61228   2.588  29.157  24.979  0.0414 -0.0694 -0.1058
18291W        W61229   0.559  30.968  24.601 -0.1683 -0.3527 -0.0119
18292W        W61230   0.729  32.911  24.107  0.0623 -0.0299  0.1195
18293W        W61231  34.462  28.678  26.401  0.0064 -0.2873  0.1282
18294W        W61232   2.935  30.442  27.453  0.1477 -0.0894  0.3971
18295W        W61233   0.794  31.240  24.196  0.0325 -0.0057  0.0036
18296W        W61234   2.943  31.207  27.695 -0.1261  0.0568 -0.1896
18297W        W61235   0.877  32.529  25.020  0.2270 -0.1566  0.0030
18298W        W61236   2.458  29.018  26.927 -0.0393 -0.1528  0.3875
18299W        W61237   0.247  31.271  26.010  0.0843 -0.0439  0.2000
18300W        W61238  34.195  29.709  23.264 -0.1914  0.1107  0.0213
18301W        W61239  34.268  31.454  24.815 -0.3038  0.0284  0.2709
18302W        W61240   2.561  29.445  25.775 -0.0550 -0.4144 -0.2467
18303W        W61241   3.424  29.977  23.699 -0.2838  0.2276 -0.2195
18304W        W61242  34.416  31.051  26.769 -0.0234 -0.1398 -0.2407
18305W        W61243   0.552  30.448  25.565  0.2064  0.0925 -0.1764
18306W        W61244   0.516  31.785  25.747  0.3700  0.0979 -0.2676
18307W        W61245   0.980  30.203  25.653 -0.3027 -0.2480  0.0815
18308W        W61246   2.440  28.670  24.670  0.3468 -0.0432 -0.3354
18309W        W61247   4.853  32.603  25.104 -0.0020  0.0090  0.0848
18310W        W61248   1.772  31.391  27.677  0.1137 -0.1346  0.1718
18311W        W61249   0.898  29.962  23.706  0.0999  0.0061 -0.0980
18312W        W61250   3.336  29.182  26.321 -0.1971  0.3308  0.3333
18313W        W61251   1.809  29.234  25.689 -0.1208 -0.0261  0.2807
18314W        W61252   0.399  33.337  25.004 -0.1733  0.1337 -0.0260
18315W        W61253   1.835  33.692  26.344 -0.1324  0.1804  0.1535
18316W        W61254   2.137  29.709  23.770  0.0281  0.1443 -0.1523
18317W        W61255   2.782  31.529  25.411  0.0854  0.0372  0.1772
18318W        W61256  34.661  29.232  27.642  0.0008 -0.2603  0.1539
18319W        W61257   4.402  30.859  26.440 -0.0261  0.1337 -0.3709
18320W        W61258   1.139  29.914  24.867  0.0026  0.0935 -0.1366
18321W        W61259  34.382  28.558  25.604 -0.0174 -0.0671 -0.1990
18322W        W61260   1.671  29.762  24.849  0.2866 -0.0806 -0.0672
18323W        W61261   2.921  30.464  26.966  0.1925  0.1942 -0.0829
18324W        W61262   2.428  28.955  25.972 -0.0952 -0.0857 -0.0695
18325W        W61263   0.897  32.534  28.054  0.1661 -0.0161 -0.1734
18326W        W61264   1.406  29.564  25.715 -0.0131 -0.2805  0.0876
18327W        W61265   3.027  32.106  24.308 -0.0709 -0.1566  0.1192
18328W        W61266   1.789  30.557  25.884 -0.0097  0.1843  0.1565
18329W        W61267   0.017  31.128  23.750 -0.1498  0.0141  0.2739
18330W        W61268   0.120  30.963  26.484  0.0749  0.3852  0.1566
18331W        W61269   0.321  32.630  24.321 -0.0009  0.0703  0.1763
18332W        W61270   1.658  30.482  27.447  0.0315 -0.1064 -0.0886
18333W        W61271   2.066  30.875  26.365 -0.2826 -0.2851 -0.2615
18334W        W61272   2.261  31.699  24.687  0.1016  0.3006  0.1114
18335W        W61273  34.305  33.107  28.024 -0.0218 -0.2474 -0.0159
18336W        W61274   2.577  30.490  23.845 -0.0251  0.0750 -0.0111
18337W        W61275   0.843  32.007  24.403  0.1282  0.0603  0.0688
18338W        W61276   1.391  29.509  24.591  0.1818  0.0141 -0.0456
18339W        W61277   4.287  28.199  26.137 -0.2363 -0.2187 -0.2015
18340W        W61278   2.586  31.381  23.611  0.0415 -0.0669 -0.3229
18341W        W61279   2.433  29.078  29.209 -0.1531 -0.0270  0.0174
18342W        W61280   0.036  30.081  25.636  0.0235 -0.1025 -0.3577
18343W        W61281   2.623  32.340  24.612 -0.1605 -0.0341  0.2796
18344W        W61282  34.672  30.275  26.107  0.2656  0.1423 -0.1185
18345W        W61283   2.706  33.650  28.900 -0.1006 -0.0472 -0.0958
18346W        W61284   1.046  32.069  28.671  0.0276  0.0169  0.0562
18347W        W61285   2.341  28.785  24.175 -0.1208 -0.0579 -0.0205
18348W        W61286   1.479  28.259  24.441 -0.1114  0.1704  0.0622
18349W        W61287   2.402  32.471  26.961  0.0238  0.2371 -0.2716
18350W        W61288   3.763  31.553  25.405 -0.1966  0.1508 -0.0261
18351W        W61289   0.930  31.429  23.625  0.1477  0.3165  0.1290
18352W        W61290   4.301  30.311  25.627  0.3139  0.0925  0.1589
18353W        W61291   1.416  30.973  26.353 -0.0980 -0.0703 -0.0142
18354W        W61292   1.465  30.494  25.441  0.2612 -0.1342  0.3318
18355W        W61293   1.264  30.410  23.519 -0.0009  0.0524  0.0825
18356W        W61294   1.051  30.580  23.100  0.0296 -0.2194  0.0897
18357W        W61295   1.795  28.650  27.377  0.0541  0.1867  0.0917
18358W        W61296   1.391  30.004  25.290  0.0360 -0.0129  0.0786
18359W        W61297   3.603  29.715  24.649 -0.1625  0.0931  0.0927
18360W        W61298   1.265  30.453  26.088 -0.1760  0.3715  0.0538
18361W        W61299   2.260  29.493  26.769  0.1850 -0.5061  0.3343
18362W        W61300   1.945  30.806  27.699  0.1956 -0.1104  0.0996
18363W        W61301   0.833  30.990  27.985  0.0675 -0.1685  0.0785
18364W        W61302   3.221  33.593  26.616  0.1219 -0.2372  0.0619
18365W        W61303   2.422  30.124  23.571  0.2000  0.1213  0.3204
18366W        W61304   4.074  28.866  26.837  0.0528  0.1639 -0.1337
18367W        W61305   3.573  30.553  25.376 -0.1952 -0.1551  0.4259
18368W        W61306   1.880  30.292  25.430  0.1851  0.1902  0.1522
18369W        W61307  34.335  29.194  25.196  0.1485  0.2426 -0.3519
18370W        W61308   2.331  31.227  27.745  0.0224  0.0053 -0.1893
18371W        W61309   0.954  28.487  22.452 -0.2860 -0.1213 -0.2715
18372W        W61310   2.574  30.312  27.751  0.0725  0.1055 -0.0991
18373W        W61311   2.479  33.800  25.140 -0.1404 -0.1301  0.3598
18374W        W61312   2.506  31.085  25.493 -0.1268 -0.0083  0.0493
18375W        W61313   2.637  28.484  23.786  0.1704  0.0022 -0.0733
18376W        W61314  34.261  30.077  25.736 -0.1045 -0.4477  0.0757
18377W        W61315   1.404  33.338  27.064  0.0269  0.1267  0.2747
18378W        W61316   0.226  28.575  23.630 -0.3730  0.1206  0.0363
18379W        W61317   1.973  30.381  23.616  0.0244  0.0431  0.1294
18380W        W61318   2.134  31.181  25.881  0.0407 -0.0605 -0.0638
18381W        W61319   2.881  30.133  28.540  0.0837  0.1246  0.1169
18382W        W61320   2.609  30.016  24.000 -0.0801  0.0455 -0.2498
18383W        W61321   3.217  30.151  26.350 -0.0477  0.2155  0.1207
18384W        W61322  33.335  32.532  23.902  0.1956 -0.1094  0.3880
18385W        W61323   0.573  29.144  25.330  0.2573 -0.0398 -0.0315
18386W        W61324   1.352  32.153  26.454  0.5019 -0.1435 -0.1913
18387W        W61325   1.013  30.751  26.476 -0.1377 -0.1528  0.4623
18388W        W61326   1.567  31.741  26.291 -0.0760  0.0468 -0.1318
18389W        W61327   1.213  28.415  25.259 -0.1052 -0.1405 -0.0496
18390W        W61328   2.242  30.264  25.851  0.0794 -0.1327  0.0380
18391W        W61329   1.967  30.800  24.666 -0.0672 -0.0412 -0.0113
18392W        W61330   3.879  30.947  26.317  0.3211  0.0937  0.1468
18393W        W61331   4.564  31.950  25.717  0.2087  0.1043 -0.2986
18394W        W61332   1.532  30.038  24.474  0.3298 -0.0117  0.2427
18395W        W61333   1.552  32.657  26.425  0.0687 -0.1110  0.0691
18396W        W61334   4.561  31.624  26.120  0.2132  0.2033  0.1303
18397W        W61335   1.716  31.509  25.766 -0.1485  0.0922  0.0967
18398W        W61336  34.049  31.386  26.652  0.1220  0.0609 -0.0186
18399W        W61337   2.242  31.420  26.340 -0.1754 -0.3435  0.0810
18400W        W61338   2.083  30.316  26.320 -0.0519 -0.1534  0.0812
18401W        W61339   0.657  29.591  25.016  0.2327 -0.2750 -0.1384
18402W        W61340   2.881  31.776  23.691  0.0804  0.0719 -0.2512
18403W        W61341   0.234  32.788  27.270  0.3007  0.5033  0.0156
18404W        W61342   1.592  30.128  26.225 -0.5095  0.0062 -0.0012
18405W        W61343   1.164  31.975  25.012 -0.1967 -0.2605 -0.1238
18406W        W61344   1.815  30.458  24.325  0.0993  0.0807 -0.2130
18407W        W61345   1.591  29.741  22.992  0.2110  0.2544 -0.0273
18408W        W61346   3.025  31.076  25.381 -0.0022  0.2817  0.1366
18409W        W61347   2.198  29.142  23.624  0.0162 -0.2081 -0.3547
18410W        W61348   1.691  33.192  24.848 -0.0167  0.0375  0.1513
18411W        W61349  33.654  32.564  24.363 -0.2772  0.0726 -0.0747
18412W        W61350   2.589  32.141  25.560  0.2429 -0.1140 -0.0917
18413W        W61351   0.113  32.158  25.831 -0.2933  0.1190  0.0170
18414W        W61352   5.088  31.981  25.805 -0.1901 -0.2484 -0.3592
18415W        W61353   3.650  28.591  24.009  0.0875  0.0524 -0.0952
18416W        W61354   4.456  29.928  24.776  0.0052  0.1013 -0.1572
18417W        W61355   3.363  30.568  24.857  0.0560  0.1852  0.0977
18418W        W61356   3.577  33.109  28.631 -0.0279 -0.0702  0.1018
18419W        W61357   1.117  30.338  24.014  0.3768  0.1179  0.0481
18420W        W61358   2.454  27.719  24.167 -0.1756  0.0377 -0.2637
18421W        W61359   1.990  29.738  28.134 -0.1280  0.1948 -0.0457
18422W        W61360   3.319  29.561  27.346 -0.0592  0.3444  0.0577
18423W        W61361   1.147  31.861  27.288  0.1698 -0.2905 -0.1005
18424W        W61362   3.731  31.376  26.543  0.1233 -0.0563  0.0714
18425W        W61363   1.910  28.980  24.527  0.0621 -0.0912 -0.1004
18426W        W61364  34.417  30.968  25.191 -0.2867  0.2365  0.2452
18427W        W61365   3.897  27.012  27.356 -0.0017 -0.0777 -0.1390
18428W        W61366   1.279  30.989  23.398  0.0396 -0.2532  0.1395
18429W        W61367   1.641  29.273  26.170  0.1202 -0.1925 -0.0446
18430W        W61368   1.297  33.054  23.539 -0.1153  0.2013 -0.2017
18431W        W61369   0.255  32.349  26.907 -0.0886  0.1212 -0.1682
18432W        W61370   1.869  33.450  27.211 -0.1175  0.2241  0.3070
18433W        W61371   0.207  29.812  23.757  0.2391  0.2148  0.1976
18434W        W61372   3.028  28.717  25.156  0.0933 -0.0639 -0.0228
18435W        W61373   2.547  30.156  27.224 -0.1303  0.2543  0.1474
18436W        W61374   3.928  28.878  27.780  0.0092  0.0382 -0.2610
18437W        W61375   1.545  29.380  23.321 -0.0541  0.0581  0.0592
18438W        W61376   2.662  29.695  25.095  0.0653  0.2313  0.0950
18439W        W61377   3.088  31.012  26.380 -0.2811 -0.1140 -0.0255
18440W        W61378  34.491  30.841  26.113  0.0732  0.2992 -0.1231
18441W        W61379   2.191  29.749  22.827 -0.1314  0.3081  0.1488
18442W        W61380   2.290  32.204  27.897 -0.2879  0.1387  0.1553
18443W        W61381   2.038  29.068  22.649  0.1086 -0.0019 -0.0189
18444W        W61382   3.158  34.135  27.651  0.0205 -0.1337  0.1050
18445W        W61383   0.243  29.485  24.697 -0.1039 -0.1591  0.1513
18446W        W61384   2.213  30.245  24.100 -0.0439 -0.1058 -0.1190
18447W        W61385  34.574  30.549  24.813  0.0128  0.2356 -0.0926
18448W        W61386   1.058  31.334  28.284  0.4170  0.0403  0.2192
18449W        W61387   3.163  32.798  27.326 -0.1347 -0.0295 -0.1334
18450W        W61388  34.202  29.545  26.010 -0.2219 -0.0831  0.0721
18451W        W61389   2.113  30.690  23.977  0.1660  0.0114 -0.0073
18452W        W61390   4.119  30.534  26.206 -0.1219  0.0853 -0.0361
18453W        W61391   0.986  31.268  24.799  0.1158 -0.0630 -0.3488
18454W        W61392   2.479  31.594  25.821  0.2963 -0.1245 -0.1297
18455W        W61393   3.245  32.707  26.514  0.2177  0.1257  0.2204
18456W        W61394  34.129  29.921  25.121  0.2661 -0.0902  0.0405
18457W        W61395   2.979  30.737  25.894  0.1098 -0.0706 -0.0197
18458W        W61396   3.319  31.494  26.280  0.0737 -0.3145 -0.2492
18459W        W61397   1.994  28.004  24.251  0.1697 -0.1856 -0.0508
18460W        W61398   0.951  30.268  24.513  0.3323 -0.0995  0.2562
18461W        W61399  34.487  33.931  25.461  0.0213 -0.0613  0.0948
18462W        W61400   3.049  29.651  26.364  0.2632 -0.0050 -0.2945
18463W        W61401   3.450  30.670  26.273  0.0277 -0.2725  0.3019
18464W        W61402   2.320  31.728  24.131 -0.2394 -0.0831 -0.0789
18465W        W61403   4.476  27.998  27.088 -0.0355  0.2343 -0.0309
18466W        W61404   2.210  31.259  26.801  0.0921  0.1902  0.0650
18467W        W61405   1.375  32.475  27.319 -0.0723 -0.0100  0.0740
18468W        W61406  34.256  31.778  23.498  0.1672  0.1338  0.2026
18469W        W61407   2.933  31.148  26.815 -0.1824  0.0271 -0.0605
18470W        W61408   1.693  31.141  24.221  0.1929 -0.1076  0.0958
18471W        W61409   2.624  30.887  25.057 -0.0392  0.0313 -0.1353
18472W        W61410   2.443  30.367  26.761  0.1180  0.0784 -0.1952
18473W        W61411   1.236  29.836  24.076 -0.3300 -0.2179 -0.0613
18474W        W61412   3.683  31.887  26.611  0.2083  0.0799 -0.2386
18475W        W61413   0.550  30.004  24.676  0.0024  0.0206  0.1449
18476W        W61414   2.982  28.923  26.138  0.1349  0.1395  0.0821
18477W        W61415   3.097  29.480  24.734  0.0752 -0.1068 -0.0458
18478W        W61416   0.648  30.136  26.672 -0.2243 -0.0596  0.1463
18479W        W61417  34.343  32.243  22.709  0.1724  0.2104 -0.1823
18480W        W61418   0.414  31.768  23.648  0.1185 -0.3033  0.0042
18481W        W61419   0.844  31.609  25.197  0.0942 -0.1339 -0.1564
18482W        W61420   1.867  29.598  27.083 -0.0554  0.1605 -0.0791
18483W        W61421   0.264  30.462  26.872 -0.0002  0.0849 -0.1627
18484W        W61422   1.032  30.672  25.533 -0.0061 -0.1000 -0.1976
18485W        W61423   1.480  27.790  24.696 -0.2594 -0.3359  0.0009
18486W        W61424   1.152  31.000  24.359 -0.1313 -0.2153  0.0904
18487W        W61425  34.690  29.094  26.291 -0.1297 -0.0100 -0.1270
18488W        W61426   0.086  29.280  25.684  0.0455 -0.4305  0.1251
18489W        W61427   2.613  31.328  24.468  0.0220 -0.1060  0.0771
18490W        W61428   3.142  31.547  25.004 -0.0562 -0.2260  0.3602
18491W        W61429   1.806  30.366  24.901 -0.3252 -0.0004  0.0702
18492W        W61430   3.644  32.563  27.797 -0.0672  0.0138  0.0246
18493W        W61431  34.095  32.274  23.643 -0.0190 -0.0567 -0.0941
18494W        W61432   1.615  30.748  28.144 -0.1590  0.1425  0.2053
18495W        W61433   1.157  30.023  27.637 -0.4266 -0.0491  0.2745
18496W        W61434   1.058  28.591  24.316  0.1714 -0.0718 -0.0769
18497W        W61435   3.065  29.262  25.175  0.0255 -0.1192 -0.2177
18498W        W61436   2.427  32.438  26.476  0.2676  0.2102 -0.1033
18499W        W61437   2.150  32.529  23.734  0.1051 -0.1962  0.2465
18500W        W61438   2.071  32.130  26.974  0.1407  0.1479  0.0026
18501W        W61439   1.380  31.103  27.941  0.0956  0.1818 -0.1925
18502W        W61440   0.429  29.291  27.900  0.3704  0.1336 -0.1776
18503W        W61441   1.063  30.854  23.874  0.0459 -0.1075  0.0089
18504W        W61442   2.862  31.747  27.999 -0.2508  0.4356  0.0711
18505W        W61443   2.235  30.537  25.037  0.1425 -0.0133  0.0813
18506W        W61444   2.250  28.154  25.567  0.1321  0.1334  0.2183
18507W        W61445   2.477  30.692  25.963  0.1539  0.0479  0.0859
18508W        W61446   0.356  30.543  26.395  0.0471  0.0010 -0.2196
18509W        W61447   2.116  31.458  29.059 -0.1345 -0.3587 -0.2651
18510W        W61448   1.764  30.841  25.123  0.0430 -0.3769  0.1254
18511W        W61449   1.020  28.974  25.308  0.4260 -0.0292  0.0278
18512W        W61450   2.992  28.969  24.735  0.2736  0.4024  0.0843
18513W        W61451   0.732  30.637  24.263 -0.0261  0.3395 -0.1083
18514W        W61452   0.248  30.710  25.914  0.1298 -0.0476  0.0298
18515W        W61453   1.727  29.438  23.802 -0.1414 -0.0679 -0.3013
18516W        W61454   2.188  31.600  27.174  0.0211 -0.0067  0.1159
18517W        W61455   1.758  31.297  26.449 -0.2650 -0.1697 -0.1794
18518W        W61456   4.082  32.137  28.672 -0.0677  0.1192  0.1613
18519W        W61457   0.580  28.921  23.700  0.1438  0.2171 -0.1103
18520W        W61458   3.486  29.558  25.075  0.0834  0.3935  0.0362
18521W        W61459   2.802  32.113  26.706 -0.1626  0.0499  0.0415
18522W        W61460   3.153  32.664  27.801 -0.2176 -0.1719 -0.2306
18523W        W61461   2.152  33.701  26.706  0.0578  0.0016  0.0947
18524W        W61462   2.756  31.169  25.951  0.0765 -0.0060  0.2283
18525W        W61463  33.766  29.824  26.668 -0.0183  0.0412  0.0290
18526W        W61464  34.537  31.773  24.417 -0.0434 -0.1811  0.1557
18527W        W61465   2.230  31.593  25.377  0.1104 -0.0355  0.0639
18528W        W61466   4.062  31.082  26.766  0.1753 -0.1387 -0.0700
18529W        W61467  33.733  29.324  25.629 -0.3308  0.0747 -0.0128
18530W        W61468   2.666  28.950  23.611  0.0447 -0.1800 -0.1843
18531W        W61469   1.694  33.718  26.805  0.3085 -0.1244 -0.2272
18532W        W61470   1.901  32.169  26.447  0.2174  0.0739  0.2017
18533W        W61471   1.728  31.490  29.814 -0.0353 -0.0092  0.0532
18534W        W61472   0.507  30.617  29.529 -0.1851  0.1733  0.3044
18535W        W61473   2.530  30.750  27.503  0.2257 -0.0559 -0.0674
18536W        W61474   3.200  32.150  28.504  0.0336 -0.2191 -0.0591
18537W        W61475  34.635  28.791  28.644  0.0719  0.1284  0.0525
18538W        W61476   4.205  32.754  28.070 -0.0186 -0.2611 -0.1754
18539W        W61477   2.188  28.696  31.034  0.3220 -0.0140  0.1095
18540W        W61478   2.988  31.973  30.543  0.0444  0.1917 -0.0542
18541W        W61479   3.431  32.180  30.715  0.1758 -0.2549  0.2182
18542W        W61480   1.801  32.446  27.834 -0.1128 -0.0058 -0.2528
18543W        W61481   1.349  30.259  31.041 -0.0553  0.2008  0.1092
18544W        W61482   0.998  32.225  31.725  0.1200  0.0507  0.0779
18545W        W61483   2.170  28.868  27.716 -0.1938 -0.0837  0.0092
18546W        W61484  34.292  29.938  30.563 -0.0010  0.1821 -0.0544
18547W        W61485   1.809  29.981  30.182 -0.0052 -0.0041 -0.3179
18548W        W61486   1.328  30.765  28.984  0.2002 -0.0501 -0.0291
18549W        W61487   0.317  29.832  30.385  0.0127  0.2393 -0.0586
18550W        W61488   2.151  30.711  29.701 -0.3469  0.0711 -0.0285
18551W        W61489   3.165  34.129  29.040  0.0575  0.0104 -0.1093
18552W        W61490   2.038  31.106  30.598 -0.0856  0.0907 -0.1805
18553W        W61491   2.915  30.451  30.460  0.0992 -0.1175  0.2710
18554W        W61492   1.577  31.148  28.472  0.0041 -0.0234  0.2321
18555W        W61493  34.421  29.621  25.495 -0.1513 -0.1041  0.2368
18556W        W61494   0.185  30.809  30.821  0.1437 -0.3311 -0.0181
18557W        W61495   1.512  30.441  29.872 -0.1792  0.0390  0.1260
18558W        W61496   4.058  29.436  30.178  0.0312  0.2090  0.0241
18559W        W61497   2.643  32.153  30.920 -0.0411 -0.0017  0.0082
18560W        W61498   1.962  31.965  29.991 -0.2454  0.1528  0.1706
18561W        W61499   4.113  32.799  30.822  0.3136 -0.1335 -0.2891
18562W        W61500   3.517  29.976   0.235  0.0708  0.0879 -0.2202
18563W        W61501   0.204  33.109  30.597 -0.4495 -0.1010  0.2161
18564W        W61502   0.530  32.555  29.514 -0.0206  0.0408  0.1838
18565W        W61503   1.152  31.317  28.813 -0.1709  0.0034 -0.2309
18566W        W61504   3.909  31.010  28.845 -0.3762  0.0403  0.1558
18567W        W61505   2.813  32.588  29.514 -0.3287  0.2060  0.0344
18568W        W61506   1.211  33.070  31.684 -0.1310  0.3088 -0.2420
18569W        W61507   0.688  32.072  27.652 -0.1002 -0.2292 -0.2358
18570W        W61508   1.659  34.549  31.309 -0.1756  0.2031  0.0024
18571W        W61509   0.537  33.486  30.532  0.0912  0.0657  0.0467
18572W        W61510   2.112  31.725  29.567 -0.3647 -0.1902 -0.0484
18573W        W61511   2.495  30.403  28.371  0.0026  0.1557  0.0287
18574W        W61512   1.249  31.624  27.699  0.0949  0.2286 -0.0866
18575W        W61513   2.518  30.997  29.042 -0.1367  0.2038 -0.1764
18576W        W61514   1.778  32.005   0.522 -0.0631 -0.1389 -0.3714
18577W        W61515   0.764  32.084  30.425  0.1663 -0.1896 -0.1857
18578W        W61516   3.758  29.302  31.571 -0.1729  0.0889  0.2481
18579W        W61517   1.203  32.960  27.346  0.1359 -0.2675  0.1436
18580W        W61518   4.447  29.240  27.696 -0.0464  0.2375  0.0657
18581W        W61519   1.205  29.705  28.050  0.0062  0.0920  0.2528
18582W        W61520   3.585  31.021  28.457  0.1015  0.3350 -0.1682
18583W        W61521   1.185  30.817  28.399 -0.0192  0.1197  0.0142
18584W        W61522   1.533  33.179  28.449 -0.1808 -0.2857  0.0846
18585W        W61523   1.654  29.563  31.005  0.0028 -0.1633 -0.0001
18586W        W61524   1.942  31.425  31.550  0.0820  0.1769 -0.2208
18587W        W61525   1.590  30.037  28.696 -0.0769  0.2140 -0.0855
18588W        W61526   3.989  31.296  29.257 -0.2659 -0.0111  0.0051
18589W        W61527  33.639  32.704  30.266 -0.1252  0.0184  0.1625
18590W        W61528   0.426  30.412  28.728  0.2779 -0.0995  0.0969
18591W        W61529   3.510  30.540  28.110 -0.0574 -0.0763 -0.0817
18592W        W61530   4.225  30.181  29.444  0.1807 -0.0515 -0.3661
18593W        W61531   3.700  32.853  27.384  0.0885  0.1515  0.1228
18594W        W61532   0.241  30.922  28.823 -0.6600  0.1417  0.0175
18595W        W61533   0.050  32.144  30.355 -0.1059 -0.1548  0.0553
18596W        W61534   2.087  31.923  31.238  0.2975 -0.1522  0.3147
18597W        W61535   1.634  28.212  27.671 -0.0149 -0.0893  0.2871
18598W        W61536   2.876  31.946  29.964  0.2822 -0.2363  0.2191
18599W        W61537   0.863  31.185  31.777  0.2163  0.0217  0.1041
18600W        W61538   3.270  30.224  29.827 -0.4222 -0.2546  0.0277
18601W        W61539   1.814  31.223  29.358 -0.0656  0.0350  0.1310
18602W        W61540   2.400  32.797  29.741 -0.2106 -0.1972  0.0441
18603W        W61541   3.194  33.113  28.325 -0.1727 -0.2447 -0.0440
18604W        W61542   3.285  29.688  29.866 -0.3092  0.0087 -0.2364
18605W        W61543   2.379  29.191  30.105 -0.1381  0.1177  0.2890
18606W        W61544   0.717  30.530  28.350 -0.1559  0.0129  0.0561
18607W        W61545   1.769  30.908  30.205 -0.3760  0.0536 -0.1486
18608W        W61546   2.518  31.605  31.104 -0.1464 -0.3271 -0.0339
18609W        W61547   3.702  32.174  28.293  0.0055  0.1535  0.1418
18610W        W61548   1.548  32.379  29.810  0.2353  0.0670 -0.1339
18611W        W61549   4.126  30.036  31.488  0.3045  0.0011  0.0044
18612W        W61550   1.607  32.381  30.287 -0.5737  0.2338 -0.0606
18613W        W61551   0.458  33.343  27.748 -0.0153  0.1120  0.0491
18614W        W61552  34.581  32.283  30.972 -0.0248 -0.1336  0.0276
18615W        W61553   0.423  32.216  28.045  0.0380  0.3312 -0.0946
18616W        W61554   2.142  29.483  30.867  0.1875 -0.0417 -0.1321
18617W        W61555   1.458  32.828  29.358  0.0787  0.0638  0.2871
18618W        W61556   4.159  30.125  27.386 -0.0058  0.0726  0.0748
18619W        W61557   1.301  30.018  29.973  0.0511 -0.1811  0.3683
18620W        W61558   2.968  29.380  29.335  0.2412 -0.3631 -0.1379
18621W        W61559   0.651  31.984  29.588  0.0416 -0.2053  0.1710
18622W        W61560   4.841  32.835  28.884  0.2644 -0.0869 -0.2318
18623W        W61561   4.026  30.451  27.738 -0.0692 -0.1626  0.1948
18624W        W61562   1.765  32.986  28.056  0.3414 -0.4695 -0.5072
18625W        W61563   0.591  31.046  31.120  0.2077 -0.2233  0.4258
18626W        W61564   1.406  31.064  29.731 -0.0591 -0.1295  0.0776
18627W        W61565   1.438  29.473  29.991 -0.2232 -0.1923  0.0142
18628W        W61566   1.379  31.527  29.392 -0.3241  0.4452  0.2927
18629W        W61567   3.852  31.408  31.043 -0.0544  0.0506  0.0536
18630W        W61568   0.426  29.011  29.248 -0.0839 -0.0466  0.2303
18631W        W61569   4.033  29.416  29.161  0.3706  0.0372  0.1714
18632W        W61570   2.157  31.192  29.746  0.0935 -0.1058 -0.0576
18633W        W61571   0.651  31.042  29.192  0.2157 -0.1341 -0.1952
18634W        W61572   4.151  29.708  30.691 -0.0544  0.0153  0.1174
18635W        W61573   2.698  34.289  27.807  0.0868 -0.0593  0.1776
18636W        W61574   2.248  32.595  31.842 -0.1191  0.3744  0.0303
18637W        W61575   3.936  32.797  28.489 -0.3205  0.0930 -0.0051
18638W        W61576   0.433  30.359  30.453 -0.1863 -0.1039  0.0368
18639W        W61577   1.542  29.361  27.896 -0.1287 -0.1582  0.1187
18640W        W61578   0.132  32.780  29.733 -0.5357 -0.1068  0.0062
18641W        W61579   2.468  33.207  28.887 -0.0100  0.0426  0.2128
18642W        W61580   1.761  30.384  29.037  0.1832 -0.2163 -0.1135
18643W        W61581   4.730  33.337  30.611  0.1303  0.1947 -0.2679
18644W        W61582   2.417  32.504  28.853  0.0763  0.2785  0.1096
18645W        W61583   0.716  31.875  31.418 -0.1637  0.1933  0.2674
18646W        W61584   4.509  28.533  30.209 -0.2106  0.1691  0.1451
18647W        W61585   3.566  31.197  29.802  0.0251  0.2574  0.0619
18648W        W61586   1.977  30.915  28.958  0.1958 -0.0510 -0.2021
18649W        W61587   0.407  30.131  28.133 -0.4089  0.2990 -0.3058
18650W        W61588   2.539  32.121  30.353  0.1870  0.1464 -0.0283
18651W        W61589   1.052  33.454  27.474  0.1057  0.1749  0.0960
18652W        W61590  34.119  31.224  29.005  0.0532  0.3077  0.1351
18653W        W61591   2.303  32.622  29.288 -0.0594 -0.2724  0.2998
18654W        W61592   4.204  29.098  29.485  0.0061  0.0322 -0.3970
18655W        W61593   0.504  31.060  30.500 -0.2273  0.1875  0.2010
18656W        W61594   2.943  30.266  31.026  0.0696  0.1962 -0.2118
18657W        W61595   1.305  30.582  27.799 -0.0064 -0.3546  0.1315
18658W        W61596   1.460  31.604  31.750 -0.0574 -0.2185  0.1964
18659W        W61597   1.761  29.795  29.183 -0.0327  0.5383 -0.0033
18660W        W61598   1.971  31.074  27.279 -0.0572  0.1364 -0.0507
18661W        W61599   2.498  30.997  30.804 -0.2762  0.2965  0.1377
18662W        W61600   3.784  31.717  29.176  0.0525 -0.0300  0.0172
18663W        W61601   3.242  30.739  27.680  0.1004  0.1859  0.0663
18664W        W61602   2.370  29.587  27.245  0.0345  0.0176 -0.0324
18665W        W61603   0.780  32.683  31.052  0.0276 -0.1513  0.1995
18666W        W61604   2.700  32.844  29.064  0.1853  0.0661 -0.0215
18667W        W61605   1.534  31.301  30.399 -0.0511  0.2586  0.1423
18668W        W61606   1.699  30.563  26.495  0.0197  0.0704 -0.2642
18669W        W61607   4.578  32.062  28.881 -0.1491  0.4399  0.0538
18670W        W61608   1.448  32.636  31.492 -0.1725 -0.2386 -0.0841
18671W        W61609   1.637  31.633  31.215  0.0838  0.3410  0.0055
18672W        W61610   2.071  32.081  30.583  0.6188  0.2203  0.0658
18673W        W61611   1.487  30.340  30.376  0.2218 -0.2254  0.2100
18674W        W61612   2.104  30.409  27.982  0.1847 -0.0409  0.2570
18675W        W61613   2.131  29.444  29.385 -0.0524  0.3437  0.0339
18676W        W61614   0.752  32.685  26.991 -0.0452  0.0871 -0.0068
18677W        W61615   3.572  30.679  29.810  0.2561  0.0084 -0.0294
18678W        W61616   1.253  29.724  30.376  0.3357  0.1538 -0.0076
18679W        W61617   3.202  30.011  30.258  0.1498  0.3069  0.2475
18680W        W61618   3.892  31.104  30.648  0.1657 -0.0096 -0.3745
18681W        W61619   3.022  32.588  28.285 -0.0248 -0.3261 -0.4644
18682W        W61620   2.488  32.088  29.641  0.2492 -0.0201  0.0191
18683W        W61621   0.933  31.373  27.040 -0.0304  0.1084 -0.2062
18684W        W61622   3.771  30.510  30.823  0.0676 -0.1291  0.3897
18685W        W61623   0.390  31.724  30.513 -0.0193 -0.1354  0.0524
18686W        W61624   0.021  33.946  30.026  0.3538  0.1434  0.1324
18687W        W61625   3.132  31.897  30.991 -0.2266  0.2648  0.0209
18688W        W61626   2.751  29.646  30.148  0.2152 -0.1618 -0.2245
18689W        W61627   3.987  30.434   0.221 -0.0250 -0.0013 -0.2030
18690W        W61628   2.009  30.333  28.479  0.2588  0.0479 -0.0311
18691W        W61629   1.135  32.579  29.009  0.0759  0.5042  0.2698
18692W        W61630   2.618  31.365  28.659  0.1457 -0.1642  0.0058
18693W        W61631   2.707  28.607  31.158 -0.1806  0.0393 -0.0346
18694W        W61632   2.241  32.431  30.176  0.0203  0.1044  0.0795
18695W        W61633   0.652  30.938  25.706  0.0222 -0.2649  0.3582
18696W        W61634   1.290  32.622  31.929  0.2279 -0.0901  0.0166
18697W        W61635   1.415  32.747  27.772 -0.2678 -0.2143  0.1009
18698W        W61636   3.939  30.275  29.935  0.0212 -0.0835  0.2081
18699W        W61637   0.203  32.225  29.849  0.1310  0.0754  0.2971
18700W        W61638   0.899  31.442  29.649 -0.0357  0.1185 -0.3871
18701W        W61639   0.818  31.640  28.651 -0.1430 -0.0035  0.1768
18702W        W61640   2.884  29.068  28.923 -0.0851  0.0147 -0.4137
18703W        W61641   2.674  32.778  28.558  0.1536 -0.1381 -0.1488
18704W        W61642   0.418  30.232  29.952  0.1373  0.0210  0.1391
18705W        W61643   1.175  30.592  29.418  0.0353 -0.0672 -0.0801
18706W        W61644   1.397  32.732  30.578 -0.1135 -0.0892  0.0522
18707W        W61645   2.265  29.765  29.923 -0.0198  0.0493  0.1688
18708W        W61646   2.767  29.452  26.826  0.2190  0.1783  0.0997
18709W        W61647   2.308  31.636  30.631 -0.3904 -0.3691 -0.1165
18710W        W61648   0.859  31.477  31.032 -0.2199  0.0353  0.1753
18711W        W61649  34.567  31.213  28.827 -0.2185  0.1502 -0.0803
18712W        W61650   4.219  30.680  30.864  0.2897  0.1529 -0.0388
18713W        W61651   2.632  30.988  29.870  0.1792  0.0051  0.0162
18714W        W61652   2.493  32.503  27.510  0.0717 -0.1464  0.1119
18715W        W61653   2.938  32.854  29.891  0.1607  0.3220 -0.0374
18716W        W61654   1.660  30.741  29.377  0.2398  0.1788  0.1016
18717W        W61655   1.216  33.098  28.963 -0.0429  0.1686 -0.1112
18718W        W61656   1.003  30.471  30.122 -0.1507 -0.0080  0.0368
18719W        W61657   1.854  31.611  30.673 -0.1067  0.1298 -0.2396
18720W        W61658   2.494  30.118  30.299  0.1702  0.0644 -0.0387
18721W        W61659   0.848  30.737  28.831  0.1153 -0.0995 -0.0618
18722W        W61660   2.250  30.791  28.476  0.0213 -0.0758  0.0361
18723W        W61661   2.012  31.294  31.069  0.1752 -0.0649  0.1521
18724W        W61662   3.182  29.392  30.451  0.0077 -0.0524  0.0780
18725W        W61663   0.210  34.018   0.500 -0.2268  0.2381  0.3087
18726W        W61664   1.632  30.020  30.761 -0.1867 -0.0241 -0.0259
18727W        W61665   2.688  32.539  27.927 -0.2059 -0.1220 -0.0179
18728W        W61666   2.249  31.677   0.120  0.0832  0.3637  0.0739
18729W        W61667   1.088  31.913  29.463  0.1034  0.0862 -0.0194
18730W        W61668  34.357  31.535  29.777  0.0408 -0.1704 -0.1832
18731W        W61669   0.071  32.404  29.354 -0.0852  0.1883 -0.0143
18732W        W61670   1.697  29.490  30.500  0.3153  0.0178 -0.0153
18733W        W61671   1.730  32.141  30.969  0.0204  0.1858 -0.1395
18734W        W61672   2.578  31.646  27.571 -0.2642  0.0684 -0.0221
18735W        W61673   1.132  32.061  29.975 -0.0406  0.1945  0.0023
18736W        W61674   3.798  29.649  28.290  0.1328  0.1868 -0.3587
18737W        W61675   2.086  31.753  27.765 -0.2180 -0.1217 -0.0018
18738W        W61676   2.574  29.946  29.011 -0.0887  0.1671 -0.0974
18739W        W61677   4.086  29.092  30.576  0.0040  0.0423 -0.2263
18740W        W61678   2.276  30.474  29.181 -0.0048  0.4161 -0.2531
18741W        W61679   2.356  29.233  31.560  0.1404 -0.0021  0.0251
18742W        W61680   2.773  29.005  31.520  0.2834 -0.2888  0.4030
18743W        W61681   2.841  32.140  29.068 -0.1721 -0.0155 -0.0472
18744W        W61682   1.272  29.669  29.527 -0.1739  0.1423  0.0507
18745W        W61683   1.673  32.853   0.502 -0.2273 -0.1413  0.0636
18746W        W61684   0.472  31.141   0.633 -0.1891  0.0713  0.0506
18747W        W61685   2.652  28.950  29.637 -0.1446  0.0696 -0.0507
18748W        W61686   1.570  29.194  27.316 -0.2014  0.2932  0.1197
18749W        W61687   1.384  31.675  28.522 -0.0540  0.0585  0.1906
18750W        W61688   3.429  31.832  29.758  0.1327  0.2121  0.1830
18751W        W61689   3.544  30.769  27.236 -0.0450 -0.1622  0.1505
18752W        W61690   3.557  29.531  29.102  0.2995 -0.1163 -0.1299
18753W        W61691   1.979  31.486  30.206 -0.1246  0.1528 -0.2334
18754W        W61692   2.975  30.955  30.473 -0.0480  0.1370  0.0470
18755W        W61693   2.889  31.764  28.647  0.2984  0.1318  0.4356
18756W        W61694   2.701  31.283  28.163 -0.1005  0.0824  0.1426
18757W        W61695   1.797  30.463  31.195 -0.2103 -0.2951  0.0059
18758W        W61696   2.532  30.498  30.790 -0.0842 -0.0047  0.1059
18759W        W61697   2.879  29.915  29.647 -0.1648  0.1395 -0.0469
18760W        W61698   2.372  31.122  31.392 -0.1691 -0.0544 -0.0007
18761W        W61699   2.962  30.788  30.913 -0.0077  0.0080 -0.0994
18762W        W61700   0.959  31.724  31.820  0.0518 -0.1300 -0.0126
18763W        W61701  33.895  29.022  29.963 -0.0135 -0.3060  0.1154
18764W        W61702   3.639  33.065  31.180  0.2154 -0.1108  0.0462
18765W        W61703   2.419  29.911  28.298  0.0938 -0.3837 -0.2011
18766W        W61704   3.492  30.534  30.280 -0.2565  0.1805 -0.1819
18767W        W61705   4.292  30.358  28.570  0.0986  0.2654  0.0405
18768W        W61706   2.104  29.985  28.845 -0.0020  0.0542 -0.1736
18769W        W61707   0.157  30.569  29.152 -0.1068  0.2025  0.1080
18770W        W61708   3.412  30.554   0.039  0.0043 -0.0511 -0.2232
18771W        W61709   1.152  29.357  26.952 -0.1151  0.0068 -0.1454
18772W        W61710   3.911  29.703   0.054 -0.1528  0.0508 -0.0773
18773W        W61711   2.234  32.717  27.912  0.1859  0.0199 -0.3288
18774W        W61712   3.130  32.244  29.621 -0.2525 -0.2278  0.0574
18775W        W61713   2.714  30.272  29.362 -0.0018 -0.1531 -0.0991
18776W        W61714  33.887  30.459  30.092  0.1393  0.3522 -0.0752
18777W        W61715   1.313  32.419  30.955 -0.0874 -0.0549 -0.1113
18778W        W61716   0.882  29.571  27.622  0.1803  0.5120  0.1908
18779W        W61717   3.066  29.881  27.680 -0.1706  0.1826 -0.0990
18780W        W61718   2.712  32.404  29.975  0.0625  0.2768 -0.2249
18781W        W61719   3.359  31.266  31.708 -0.1128 -0.0666 -0.2804
18782W        W61720   2.325  29.504  28.794  0.2421 -0.2089 -0.2009
18783W        W61721   3.403  30.858  30.705  0.1327 -0.1263 -0.0841
18784W        W61722   0.303  31.845  26.700 -0.1536  0.2155 -0.3215
18785W        W61723   2.782  30.439  29.989  0.0006 -0.1083  0.0965
18786W        W61724   0.659  32.341  30.007 -0.1073 -0.1193 -0.0636
18787W        W61725   1.260  30.907  30.184  0.0839  0.0785 -0.0650
18788W        W61726   3.516  33.266  29.120  0.1331 -0.4627 -0.1355
18789W        W61727   3.855  29.414  29.649 -0.2280  0.1578  0.2010
18790W        W61728   2.715  30.757  29.447 -0.1981 -0.2743 -0.2846
18791W        W61729   1.979  32.316  28.845 -0.2124  0.1023  0.4436
18792W        W61730   1.649  30.678  30.750  0.0030 -0.1586 -0.0705
18793W        W61731   2.613  32.866  30.233  0.1720 -0.2493 -0.0065
18794W        W61732   0.801  31.959  30.894  0.1369 -0.1824 -0.3623
18795W        W61733   2.649  32.631  31.129  0.3201 -0.2608 -0.2359
18796W        W61734   2.321  32.005  28.576  0.1403  0.0119  0.3457
18797W        W61735   2.313  32.018  29.139  0.0841 -0.0977  0.1734
18798W        W61736  33.852  29.743  31.550 -0.1871  0.3021 -0.0838
18799W        W61737   1.768  31.004  31.396 -0.1988  0.0075 -0.1155
18800W        W61738   2.958  31.821  29.463 -0.0473 -0.0130 -0.0095
18801W        W61739   1.155  29.898  29.040  0.0706 -0.1400  0.0058
18802W        W61740   1.786  31.537  28.185  0.1842 -0.0831  0.1243
18803W        W61741   1.226  32.132  30.490 -0.1157 -0.1126 -0.0254
18804W        W61742  34.579  31.136  30.582 -0.3803  0.3267  0.0536
18805W        W61743   0.996  32.897  29.628  0.1039 -0.2218  0.3022
18806W        W61744   2.328  31.644  28.186  0.0162 -0.0502  0.2044
18807W        W61745   3.714  32.451  28.819  0.3791  0.3510 -0.2377
18808W        W61746   3.503  33.407  29.590 -0.1246  0.4846 -0.2939
18809W        W61747   0.997  31.126  27.518 -0.0132  0.0772 -0.1830
18810W        W61748   0.752  32.909  29.074  0.1022 -0.0589  0.2069
18811W        W61749   0.210  32.625  30.215 -0.1828  0.2545  0.0733
18812W        W61750   2.720  31.673  26.991  0.1512 -0.0021 -0.2339
18813W        W61751   1.785  32.593  28.405 -0.2125 -0.0602  0.2770
18814W        W61752   2.434  32.164  31.977  0.1048  0.1734  0.3070
18815W        W61753   4.451  28.528  28.389 -0.2315  0.1526 -0.0270
18816W        W61754   3.398  30.055  28.034  0.0149  0.1267 -0.1152
18817W        W61755   3.678  29.189  28.183  0.5127  0.4172  0.3308
18818W        W61756   2.807  32.938  31.884 -0.2434 -0.0178 -0.1885
18819W        W61757   2.027  30.476  30.118  0.0437 -0.0960  0.1341
18820W        W61758   1.879  29.794  25.955  0.1058  0.1488  0.0652
18821W        W61759  34.534  31.089  30.009 -0.0770  0.2453  0.0999
18822W        W61760   3.904  29.256   0.479  0.0166  0.1811 -0.0679
18823W        W61761  34.029  33.527   0.225  0.2475  0.0987  0.2390
18824W        W61762   3.753  32.975  28.052  0.2126  0.0711  0.0125
18825W        W61763   0.359  31.017  29.902  0.0045  0.2952 -0.0299
18826W        W61764   1.553  31.916  29.657 -0.1317 -0.1185  0.3933
18827W        W61765   3.537  28.427  30.112 -0.0558  0.0755 -0.1494
18828W        W61766   3.188  32.777  28.693 -0.1940  0.1519 -0.2347
18829W        W61767   3.308  31.508  27.953  0.1596  0.2300  0.1193
18830W        W61768   1.838  31.798  28.634 -0.1842 -0.0763  0.0174
18831W        W61769   0.987  32.422  29.608 -0.1819 -0.0106  0.1425
18832W        W61770   1.471  32.281  29.281  0.0812 -0.4349  0.0846
18833W        W61771  34.643  30.185  29.727  0.1815 -0.0456  0.0579
18834W        W61772   5.080  30.763  29.802 -0.0423 -0.0957 -0.0053
18835W        W61773   2.299  30.295  31.241  0.0423  0.3735  0.1825
18836W        W61774   4.283  27.943  30.134  0.0513 -0.1049  0.0419
18837W        W61775   0.210  31.351  30.272 -0.2226 -0.1543 -0.1093
18838W        W61776   3.209  30.619  28.522 -0.1926  0.0472  0.1390
18839W        W61777   2.177  32.375  31.027 -0.3850 -0.2729  0.0710
18840W        W61778   0.131  30.169  31.546  0.2788 -0.1680  0.0444
18841W        W61779   2.009  31.111  28.128 -0.0027 -0.0518 -0.0057
18842W        W61780   3.841  31.395  30.204  0.1209  0.1318  0.1534
18843W        W61781   1.659  30.085  27.975  0.4290 -0.1455  0.2849
18844W        W61782   2.934  33.557  30.679  0.0818 -0.1880  0.0782
18845W        W61783   2.485  30.711  30.274  0.1562  0.0649  0.2049
18846W        W61784   3.080  29.755  29.002  0.0446  0.0676  0.0562
18847W        W61785   1.256  31.575  30.025 -0.0498  0.0666 -0.0455
18848W        W61786   0.923  30.265  29.691 -0.3748 -0.2625 -0.2078
18849W        W61787   5.080  33.088  30.844 -0.0081  0.3139 -0.0238
18850W        W61788   0.869  29.496  28.807  0.0118  0.1206  0.3229
18851W        W61789   2.900  33.392  27.635  0.1431 -0.0496  0.1149
18852W        W61790   3.241  30.556  29.398 -0.0715  0.1269  0.0273
18853W        W61791   1.302  32.726  28.457 -0.1714  0.3271  0.1159
18854W        W61792   2.973  31.281  29.044 -0.1263  0.0320  0.0240
18855W        W61793   4.347  33.176  29.731 -0.0552  0.1764  0.0241
18856W        W61794   0.649  30.573  30.827  0.0946  0.1415  0.0876
18857W        W61795   3.109  34.079  30.615 -0.0093  0.4136 -0.3526
18858W        W61796   3.410  32.917  29.688  0.4166  0.1031  0.4251
18859W        W61797   0.749  30.350  29.191  0.1562 -0.1160 -0.4422
18860W        W61798   1.572  31.830  30.308  0.0828  0.0935 -0.1436
18861W        W61799  33.609  33.249  29.203  0.1328  0.4969  0.2551
18862W        W61800   3.689  29.537  30.589 -0.1067 -0.1138 -0.0431
18863W        W61801   2.451  29.152  31.063 -0.0808 -0.0473 -0.1297
18864W        W61802   3.111  33.529  28.109 -0.0567  0.0227  0.2007
18865W        W61803   2.159  29.955  30.716  0.1876  0.0413  0.0938
18866W        W61804   1.986  32.241  29.550  0.1110 -0.2394  0.0040
18867W        W61805   2.604  34.088  31.425  0.0561 -0.1936  0.1220
18868W        W61806   0.113  31.431  27.374  0.0580  0.1938 -0.2394
18869W        W61807   1.256  31.272  31.394  0.3323 -0.1424  0.0424
18870W        W61808   2.625  31.347  29.498  0.0226  0.0308 -0.0745
18871W        W61809   2.285  32.473  28.369  0.1007  0.2796  0.0792
18872W        W61810   3.256  32.798  29.185  0.0550 -0.1530  0.4917
18873W        W61811   2.768  30.855  28.590 -0.0901  0.0396  0.1357
18874W        W61812   2.607  31.647  29.101 -0.0611  0.2172 -0.3242
18875W        W61813   2.628  30.511  28.882 -0.1589  0.1445 -0.0972
18876W        W61814   3.800  29.108  28.677 -0.2324  0.0176  0.2552
18877W        W61815   3.420  29.114  27.557 -0.0512 -0.1010  0.1895
18878W        W61816   1.150  30.576  30.622  0.0349 -0.1497  0.1727
18879W        W61817   1.735  31.871  29.209 -0.1218 -0.4192  0.3366
18880W        W61818   0.828  31.911  28.203  0.2125 -0.0531  0.1449
18881W        W61819   1.125  31.089  30.653  0.0118  0.3201 -0.0290
18882W        W61820   1.322  28.733  30.643 -0.2609 -0.2763  0.3647
18883W        W61821   0.768  30.249  31.185  0.0198  0.1300 -0.0034
18884W        W61822  34.366  32.477  29.655 -0.0861  0.2111 -0.0897
18885W        W61823   1.751  29.574  28.718  0.0699 -0.1554 -0.1587
18886W        W61824   3.487  31.749  28.310 -0.0524 -0.2483 -0.0831
18887W        W61825  34.248  30.141  30.103 -0.0673 -0.0350 -0.0681
18888W        W61826  34.102  28.782  30.346  0.3329  0.0966 -0.1101
18889W        W61827   2.409  31.744  30.051 -0.2357  0.0305 -0.1235
18890W        W61828   3.358  31.964  29.268  0.1357  0.2791 -0.2441
18891W        W61829   1.363  30.368  28.381  0.1428 -0.2862  0.0391
18892W        W61830   2.781  32.237   0.399 -0.0115 -0.0412  0.0755
18893W        W61831   0.243  31.500  28.623  0.0070 -0.1132  0.3645
18894W        W61832   3.341  30.293  31.621  0.1664  0.1213  0.4027
18895W        W61833   3.129  29.858  31.468  0.0972 -0.2833 -0.0788
18896W        W61834   0.319  31.380  26.911  0.0160  0.0569  0.1739
18897W        W61835   2.072  30.467  30.575  0.5221  0.1197  0.0944
18898W        W61836   3.271  32.354  28.950  0.3803 -0.0705 -0.1182
18899W        W61837   4.054  32.942  27.003  0.0157 -0.2591  0.1142
18900W        W61838   2.613  30.649  31.267 -0.0108 -0.0572 -0.2141
18901W        W61839   1.808  32.772  30.049  0.2672 -0.1779 -0.0815
18902W        W61840   1.688  29.066  31.765 -0.1181  0.3125  0.0993
18903W        W61841   3.445  31.097  28.915 -0.1394 -0.3252  0.0028
18904W        W61842   1.327  31.074   0.912 -0.2078 -0.1068  0.2410
18905W        W61843   4.717  31.379  28.399 -0.1632 -0.2991  0.0673
18906W        W61844   5.453  29.151  30.312 -0.0389 -0.0369 -0.0924
18907W        W61845   3.085  30.824  29.878  0.2205  0.2880  0.1485
18908W        W61846   1.711  29.927  31.356  0.1259  0.0007  0.0859
18909W        W61847   1.314  31.678  30.777 -0.3006 -0.2113  0.2053
18910W        W61848   3.024  32.530  30.378  0.3086  0.0166 -0.4370
18911W        W61849   0.849  30.900  29.752 -0.0324 -0.1866 -0.0442
18912W        W61850   4.301  29.820  28.323  0.0599 -0.0550  0.2270
18913W        W61851   3.406  33.895  27.989 -0.0815 -0.0222 -0.1935
18914W        W61852   0.820  31.228  30.171 -0.1370 -0.0984 -0.0921
18915W        W61853   1.103  30.337  28.827  0.2109 -0.1291 -0.3456
18916W        W61854   2.371  29.588  30.417  0.3750  0.3647 -0.1850
18917W        W61855   2.297  33.573  28.618  0.0113  0.1017 -0.2119
18918W        W61856   2.472  31.657  31.630  0.1467  0.1136 -0.0334
18919W        W61857   1.169  29.798  28.558  0.0126  0.1115 -0.1222
18920W        W61858   3.509  30.327  27.577  0.0608  0.3117  0.0399
18921W        W61859   4.404  32.579  28.839 -0.1840  0.0723 -0.2780
18922W        W61860   2.551  32.667   0.289 -0.1639 -0.3097  0.0183
18923W        W61861   4.015  34.324  30.346  0.0269 -0.3645 -0.0332
18924W        W61862   2.417  31.269  30.331 -0.1199  0.1647 -0.0615
18925W        W61863  34.595  28.895  30.426 -0.3477 -0.1325 -0.0158
18926W        W61864   1.633  31.390  28.911 -0.1317  0.0629  0.0419
18927W        W61865   1.848  32.109  28.239  0.0037 -0.1319  0.2237
18928W        W61866   2.693  29.963  30.685  0.0596  0.0394 -0.1754
18929W        W61867   1.890  30.250  29.628  0.0406  0.2811  0.0183
18930W        W61868   2.927  29.697  28.132  0.2630  0.1186  0.0087
18931W        W61869   1.203  33.568  29.795 -0.0053 -0.0693 -0.4441
18932W        W61870   2.366  30.253  29.756 -0.1831 -0.2484 -0.3728
18933W        W61871   3.450  29.465  31.183 -0.3465 -0.1242  0.2065
18934W        W61872   2.249  30.633   0.896  0.2474  0.1544  0.1517
18935W        W61873   1.502  31.193  30.928 -0.0752 -0.2687 -0.0260
18936W        W61874   0.694  33.124  31.887  0.0639 -0.0130 -0.0719
18937W        W61875   2.052  31.502   1.512  0.2088  0.0701 -0.2623
18938W        W61876   1.158  33.435   1.197  0.1947  0.0713 -0.0174
18939W        W61877   3.384  29.611  31.843 -0.1453  0.0833  0.1236
18940W        W61878   0.714  30.354  31.798  0.3472  0.2725 -0.0268
18941W        W61879   3.958  30.924  30.154 -0.2715  0.2946 -0.0555
18942W        W61880   4.155  31.739   0.573  0.0661  0.0146 -0.1468
18943W        W61881   1.532  33.646  31.670 -0.1369 -0.0370  0.1062
18944W        W61882   1.826  28.603  30.699 -0.0903  0.0439  0.2267
18945W        W61883   2.472  32.575  30.632  0.3830 -0.1256 -0.0048
18946W        W61884   0.880  31.807   0.452 -0.0775  0.3517  0.0698
18947W        W61885   4.068  30.457  30.400 -0.1880  0.3101  0.1538
18948W        W61886   0.185  32.796  31.006 -0.2134  0.0252  0.0559
18949W        W61887   2.357  31.898   0.562 -0.1708  0.0552 -0.2863
18950W        W61888   1.890  33.916   0.665  0.1254  0.2406 -0.0895
18951W        W61889  34.246  28.259  31.510  0.0960  0.0566 -0.2121
18952W        W61890   0.903  29.364   1.562 -0.2412 -0.2900  0.0666
18953W        W61891   1.122  29.599   0.178  0.1672  0.0530  0.0703
18954W        W61892   1.285  32.017   0.128 -0.0361  0.0230  0.1130
18955W        W61893   3.517  28.940  31.265  0.1490  0.2246  0.0022
18956W        W61894   2.703  29.450  30.771 -0.1259  0.1804 -0.0554
18957W        W61895   2.683  29.908   0.233  0.1257 -0.0280 -0.2636
18958W        W61896   1.412  30.579   0.839  0.2237  0.2909 -0.0308
18959W        W61897   3.358  30.548  31.115 -0.2020  0.0343 -0.3855
18960W        W61898   0.788  33.856  31.313  0.0864  0.0208  0.1050
18961W        W61899   1.114  30.174  31.508  0.0864  0.0805 -0.1279
18962W        W61900   0.715  33.136  31.358  0.0527  0.3676  0.0764
18963W        W61901   1.555  33.131   0.116  0.3740  0.0991 -0.0187
18964W        W61902   1.524  30.562  31.626 -0.0443 -0.0008  0.2702
18965W        W61903   2.259  30.281   1.279 -0.0327  0.3303 -0.0595
18966W        W61904   5.316  29.462   0.147 -0.1649  0.0337 -0.0481
18967W        W61905   0.409  30.570  31.383 -0.1480 -0.0766 -0.1347
18968W        W61906   1.407  32.430   0.423 -0.0041  0.2912 -0.2197
18969W        W61907   2.549  33.356   1.320 -0.0098  0.2051 -0.1186
18970W        W61908   2.449  32.222  31.445  0.2111 -0.1167  0.2388
18971W        W61909   2.540  30.725  31.795 -0.0477 -0.4389 -0.0478
18972W        W61910   2.160  30.624  31.545  0.1630 -0.1448 -0.1443
18973W        W61911   4.324  29.439  31.465 -0.0661  0.0140 -0.2828
18974W        W61912   1.192  31.467   0.179 -0.2577 -0.1922 -0.1920
18975W        W61913   1.574  31.116  31.867 -0.0987 -0.0220 -0.1362
18976W        W61914   1.504  32.608   0.970  0.1152 -0.0391  0.2066
18977W        W61915   0.356  31.031  31.722  0.1411 -0.0027 -0.2615
18978W        W61916   1.531  30.015  31.835  0.2328 -0.1638 -0.0897
18979W        W61917   2.919  30.471   0.137  0.0780 -0.1368 -0.1238
18980W        W61918   2.876  31.759  31.395 -0.1749 -0.0135 -0.2991
18981W        W61919   2.402  31.349   0.458 -0.2036  0.0763  0.1092
18982W        W61920  33.775  30.487  31.893  0.0420 -0.0024  0.0896
18983W        W61921   2.703  33.092  31.373  0.2857  0.1361 -0.0756
18984W        W61922   3.548  28.500   0.815 -0.1496  0.2811 -0.0224
18985W        W61923   1.187  29.691  31.677  0.1254 -0.0520 -0.0019
18986W        W61924   1.949  31.903  31.720 -0.0614  0.1050 -0.2862
18987W        W61925   2.503  29.586   0.624  0.1513  0.1857 -0.4439
18988W        W61926   2.764  31.727   0.211 -0.0957 -0.1336 -0.3052
18989W        W61927   3.232  31.664   0.034  0.0946 -0.1722 -0.1776
18990W        W61928   2.011  33.757  31.542  0.0262  0.2274 -0.2960
18991W        W61929   0.237  33.242   0.201  0.2814 -0.3086  0.0476
18992W        W61930   0.831  33.265   0.362 -0.0137  0.0653  0.0430
18993W        W61931   0.320  31.909   1.489  0.0375  0.0709 -0.3462
18994W        W61932   0.010  31.649   0.963  0.0412  0.5190 -0.0255
18995W        W61933   0.887  33.578   0.795  0.2149 -0.2010  0.0258
18996W        W61934  33.769  28.014  31.448  0.0824 -0.0706  0.2255
18997W        W61935   2.746  32.496  31.741  0.1331  0.0280 -0.2301
18998W        W61936   5.134  30.381  30.919  0.0179  0.2203 -0.0602
18999W        W61937   4.817  30.229   0.139  0.0711  0.3113 -0.1290
19000W        W61938   1.469   0.136  16.379 -0.1945 -0.0637 -0.0239
19001W        W61939   2.641  32.803  16.071 -0.1380  0.0116  0.0823
19002W        W61940   3.638  33.911  17.882  0.0666 -0.0599  0.0638
19003W        W61941  34.073  33.780  18.189  0.0041  0.1887 -0.1915
19004W        W61942  34.367  31.638  18.215  0.0127  0.0688  0.2982
19005W        W61943   1.922  34.578  16.362  0.0154  0.0597 -0.0264
19006W        W61944   2.014  32.916  18.584 -0.1764  0.0201 -0.3990
19007W        W61945   1.997  32.940  17.603 -0.2051  0.2621 -0.0201
19008W        W61946  34.228  34.676  18.285 -0.2144  0.3884  0.2841
19009W        W61947   2.303   0.218  17.270 -0.1458  0.2045  0.3678
19010W        W61948   1.379  34.666  17.358 -0.0234 -0.2480 -0.0728
19011W        W61949   2.219   0.056  19.394 -0.2934  0.3016 -0.3135
19012W        W61950   0.853  33.828  17.329  0.0930  0.3598 -0.1994
19013W        W61951   2.281  32.711  19.756 -0.0938 -0.0185 -0.2178
19014W        W61952   2.464  32.009  20.095 -0.1124  0.1329  0.1005
19015W        W61953  34.614  33.798  17.172  0.2689 -0.0622 -0.0184
19016W        W61954   0.350  33.883  17.288  0.0777  0.1146 -0.0836
19017W        W61955   0.405   0.274  18.000  0.0166 -0.0258  0.0089
19018W        W61956   2.857  32.481  18.923  0.2891 -0.0309 -0.0032
19019W        W61957   3.496   0.828  19.021 -0.0505 -0.2579 -0.0829
19020W        W61958   2.804  34.504  21.175 -0.0106  0.0532 -0.0100
19021W        W61959   2.276   1.397  18.397 -0.2147  0.1960 -0.2927
19022W        W61960   1.430  33.818  19.087 -0.0552 -0.0091 -0.1831
19023W        W61961   3.763  32.693  20.559 -0.4494 -0.1335  0.4373
19024W        W61962   3.084  33.682  15.982 -0.2334 -0.2200 -0.0765
19025W        W61963   2.075  32.914  16.556 -0.0078 -0.0605 -0.1601
19026W        W61964   3.013  33.583  16.575  0.2679 -0.0527 -0.3102
19027W        W61965   1.493  33.808  17.478 -0.1365 -0.0944 -0.1684
19028W        W61966   1.322  32.953  16.981  0.1713 -0.3355 -0.4412
19029W        W61967   2.422  32.997  16.914  0.4009  0.0774  0.1491
19030W        W61968   2.145  33.335  18.810 -0.1747  0.0361 -0.0262
19031W        W61969  34.515   1.156  19.378 -0.1385 -0.0733  0.0306
19032W        W61970   1.555  33.539  17.079 -0.1459  0.2641 -0.0450
19033W        W61971  34.388   0.234  19.216 -0.0444  0.1455  0.1328
19034W        W61972   2.015  33.671  19.794 -0.1416  0.1498 -0.3489
19035W        W61973   0.832  32.948  16.829 -0.0829 -0.0655  0.0470
19036W        W61974   2.520   0.016  18.048  0.0555  0.3524 -0.2866
19037W        W61975   2.723  32.779  18.121  0.2010 -0.2894 -0.0412
19038W        W61976   3.816  30.894  18.510  0.4940  0.0979  0.0295
19039W        W61977   3.527  34.154  16.672  0.2777 -0.0800  0.0192
19040W        W61978   1.196  33.325  17.357  0.0655  0.1380  0.1163
19041W        W61979  34.577  33.860  18.154 -0.0358  0.0790 -0.0072
19042W        W61980   2.440  33.086  17.822 -0.0206 -0.0580 -0.2850
19043W        W61981  34.329  32.858  18.968  0.0146  0.1827  0.1977
19044W        W61982   2.874  32.891  18.573 -0.1594 -0.0390  0.0250
19045W        W61983   3.047  32.929  16.571  0.3248  0.2567  0.0447
19046W        W61984   0.262  32.825  18.924  0.2042  0.7096  0.1237
19047W        W61985   0.500  34.631  17.556  0.0262  0.2244  0.0710
19048W        W61986   2.575  34.262  19.150  0.2077 -0.3886  0.2243
19049W        W61987   0.777  33.040  18.093 -0.1656 -0.3348  0.0786
19050W        W61988   4.359  32.964  18.510  0.1189  0.2336 -0.0607
19051W        W61989   0.592  33.251  16.156  0.0900 -0.0369  0.1018
19052W        W61990   3.244  33.849  17.027  0.0442 -0.3188  0.4184
19053W        W61991   1.706  34.063  18.389  0.1550  0.1273 -0.1351
19054W        W61992   3.480  33.080  19.133 -0.0633 -0.1287  0.1564
19055W        W61993   0.973  33.255  19.465  0.0643 -0.0422  0.2603
19056W        W61994   1.982  33.393  16.820  0.0866 -0.0084  0.3818
19057W        W61995   1.363  32.704  16.587 -0.3698 -0.0420 -0.0341
19058W        W61996   2.398  33.081  18.360  0.2759  0.1442 -0.1749
19059W        W61997   2.174  34.207  18.704  0.2248 -0.0119  0.1564
19060W        W61998  34.300  32.006  16.707 -0.1740  0.1221 -0.0272
19061W        W61999  34.041  34.227  17.264 -0.1415  0.1279 -0.2743
19062W        W62000   3.853  34.153  18.387 -0.1650  0.0207  0.1266
19063W        W62001   0.823  34.349  19.383  0.1122  0.0432 -0.0879
19064W        W62002   3.318  33.397  20.011 -0.1887  0.4679  0.3484
19065W        W62003   0.625  34.329  16.724 -0.0775 -0.0119  0.1369
19066W        W62004   1.445  32.407  17.224  0.2911 -0.1197  0.2842
19067W        W62005   1.892  33.938  16.736 -0.0077  0.0820  0.3678
19068W        W62006   2.261  34.165  16.181  0.4176 -0.1096  0.1117
19069W        W62007   1.451  33.681  16.589 -0.1834 -0.1203 -0.0992
19070W        W62008   2.324  33.451  17.447  0.0587  0.2186 -0.0028
19071W        W62009   2.069  32.829  19.214 -0.0747  0.2802 -0.1267
19072W        W62010   0.792  34.694  16.422 -0.0539 -0.0875 -0.0025
19073W        W62011   2.402  32.796  17.375 -0.1585 -0.1664  0.3476
19074W        W62012   3.309  32.803  20.158  0.2014  0.0830  0.0657
19075W        W62013   4.370  32.279  18.252  0.0648  0.0376  0.0844
19076W        W62014   3.426  32.217  19.452 -0.2372 -0.2306 -0.2040
19077W        W62015   3.294  34.475  21.431  0.1240  0.0615  0.0061
19078W        W62016   2.980  32.810  17.060  0.3372  0.0573 -0.0570
19079W        W62017   1.993  34.205  17.703  0.2764 -0.0109 -0.3987
19080W        W62018   0.363  34.439  17.995  0.2280  0.2081  0.0256
19081W        W62019   3.045  33.126  19.514 -0.0269  0.1501  0.0487
19082W        W62020   2.329  32.465  20.358 -0.1364  0.0056  0.1394
19083W        W62021   2.367  34.019  17.440  0.0317 -0.0976 -0.3434
19084W        W62022   1.989  34.430  18.150  0.1647  0.1826  0.2046
19085W        W62023   3.285   0.138  18.499 -0.3422  0.2315  0.1645
19086W        W62024   2.319  32.158  17.200 -0.3490 -0.0451 -0.0814
19087W        W62025   0.132  34.078  16.701  0.1087 -0.1055 -0.1567
19088W        W62026   2.854  33.890  18.255 -0.2268 -0.1854 -0.0494
19089W        W62027   1.559  33.632  18.054  0.1708 -0.0344  0.0522
19090W        W62028   1.858  32.148  18.103  0.0234 -0.4205 -0.0157
19091W        W62029   2.814  34.399  18.308 -0.2258 -0.0176  0.1333
19092W        W62030   2.345  33.595  16.510 -0.0297 -0.2574  0.1398
19093W        W62031   2.305  33.600  20.275  0.0187 -0.2430 -0.0583
19094W        W62032   0.247  33.579  16.863  0.2062 -0.0730  0.2050
19095W        W62033   3.773  34.079  19.018  0.1014 -0.1196 -0.0689
19096W        W62034   1.121  33.021  19.010 -0.2694  0.0652  0.1032
19097W        W62035  34.362  34.244  16.865 -0.0726  0.1363  0.1041
19098W        W62036   1.177  34.175  17.488  0.1150 -0.1726 -0.0893
19099W        W62037   1.953  33.724  17.711  0.3736  0.2534 -0.0872
19100W        W62038   0.632  33.349  16.623 -0.0470 -0.2093 -0.0604
19101W        W62039   1.636   0.521  18.504  0.0991 -0.0854 -0.1533
19102W        W62040   3.722  33.618  19.153  0.1299 -0.2432  0.1519
19103W        W62041   3.128  32.583  19.363 -0.3920  0.3587  0.0243
19104W        W62042   1.453   0.120  20.118 -0.1480  0.1321 -0.0752
19105W        W62043   2.592  32.847  19.406 -0.2525  0.0631  0.0178
19106W        W62044   3.007  32.413  18.401 -0.1111 -0.0938  0.1890
19107W        W62045   2.153  31.654  17.373  0.2029  0.4421  0.0129
19108W        W62046   4.813  33.342  19.212  0.0781  0.1762  0.2106
19109W        W62047   2.307  33.727  17.020 -0.0556  0.2275 -0.1486
19110W        W62048   3.683  32.256  20.054  0.3054  0.0235 -0.1518
19111W        W62049   2.038  33.343  18.038 -0.3379  0.0495 -0.3559
19112W        W62050   2.094  32.360  19.427  0.0326 -0.2556 -0.3642
19113W        W62051  34.508  34.171  19.873  0.1516 -0.0823 -0.0703
19114W        W62052   2.740   0.014  16.821 -0.2120  0.0500 -0.2109
19115W        W62053   1.609  33.195  16.612 -0.0447 -0.1657 -0.0340
19116W        W62054   1.035   1.207  17.521  0.1472  0.0780 -0.0088
19117W        W62055   4.019   0.719  18.639  0.2574 -0.1018  0.3761
19118W        W62056   0.670  33.408  17.737 -0.1586  0.1217  0.0218
19119W        W62057   2.810   0.196  17.397  0.3378 -0.2841 -0.3023
19120W        W62058   0.501  32.979  19.330  0.2823  0.1125 -0.3499
19121W        W62059   2.433  33.669  17.920  0.1261  0.1161  0.1395
19122W        W62060   2.972  31.481  17.732  0.1508 -0.1725 -0.3581
19123W        W62061   2.371  33.738  18.962  0.0220 -0.1965 -0.2995
19124W        W62062   1.844  33.754  18.740 -0.0519 -0.1115  0.0317
19125W        W62063   0.135  31.924  19.268  0.3504  0.0846  0.1405
19126W        W62064   4.745  32.814  16.185 -0.1535  0.0572  0.2030
19127W        W62065   5.090  34.287  17.967 -0.0086 -0.2821 -0.0760
19128W        W62066   3.742   0.613  17.720 -0.1055 -0.0626 -0.3744
19129W        W62067   2.670  34.340  16.373  0.0781  0.4727 -0.1309
19130W        W62068   0.033   0.038  18.289  0.1920  0.0858 -0.3142
19131W        W62069   2.744  34.644  22.183 -0.0562 -0.1944  0.2433
19132W        W62070   2.089  32.819  16.092 -0.1642 -0.0034  0.1827
19133W        W62071   2.591  33.066  21.568  0.0320  0.0842 -0.1243
19134W        W62072   2.085   0.620  17.100 -0.1107  0.0533  0.2567
19135W        W62073   0.524  32.920  17.240 -0.3540 -0.2317  0.1718
19136W        W62074  34.273  34.029  17.682  0.0053  0.0200  0.1676
19137W        W62075   1.103  34.014  16.502  0.0165 -0.0367  0.0962
19138W        W62076   2.619  32.652  16.640  0.4101 -0.0105 -0.2800
19139W        W62077   2.941  33.595  19.703 -0.1708  0.0998 -0.0922
19140W        W62078   1.716  32.548  17.758 -0.0993 -0.1558 -0.1003
19141W        W62079   2.985  32.944  19.031 -0.1550  0.1454  0.5904
19142W        W62080   2.032  33.818  18.169  0.0809  0.1078 -0.0427
19143W        W62081   1.027  34.481  18.637  0.0849  0.0314 -0.4268
19144W        W62082   2.718   0.330  20.242 -0.0737  0.0248  0.1092
19145W        W62083   0.686   0.411  17.607  0.1376  0.0030  0.3099
19146W        W62084   0.111  33.645  19.867 -0.1687 -0.2594 -0.1878
19147W        W62085   0.151  33.293  17.958 -0.1132 -0.1353  0.1448
19148W        W62086   0.900  34.030  16.033 -0.0807  0.0539  0.0702
19149W        W62087   2.367  33.204  15.896 -0.2233  0.2046  0.0995
19150W        W62088   2.847  33.281  18.230  0.1639  0.0077  0.1711
19151W        W62089   2.760  33.196  17.398 -0.0602  0.2680 -0.2145
19152W        W62090   0.710  32.602  18.945  0.0273  0.0056  0.1912
19153W        W62091   2.837  33.272  16.903  0.4393 -0.4701  0.2998
19154W        W62092   1.845  34.162  19.095 -0.0756 -0.0105 -0.1809
19155W        W62093   3.695  31.700  19.601  0.1173 -0.2367  0.0982
19156W        W62094   0.550  32.465  16.780 -0.1325  0.1929  0.0324
19157W        W62095   0.886  34.602  18.177 -0.1689 -0.1982 -0.0174
19158W        W62096   2.932  33.562  17.795 -0.1519 -0.0705 -0.0402
19159W        W62097   2.449  34.684  18.701  0.2004 -0.0741  0.2198
19160W        W62098   0.731  33.858  16.834  0.2388 -0.0522  0.3565
19161W        W62099   4.160  34.376  17.222  0.1007  0.3467  0.0660
19162W        W62100   1.941  33.914  17.256 -0.0291  0.2210 -0.3084
19163W        W62101   4.804  32.687  18.224 -0.3295  0.1740 -0.2182
19164W        W62102   0.542   0.582  18.892  0.0540  0.1972  0.3325
19165W        W62103   3.052  33.067  17.826  0.2657 -0.0958  0.2180
19166W        W62104   1.058  33.467  18.310  0.0306 -0.2050 -0.0741
19167W        W62105   1.155  34.450  16.178 -0.1736  0.1814  0.0227
19168W        W62106   3.743   1.150  19.735  0.0130 -0.0994 -0.5279
19169W        W62107   1.838   0.770  16.319 -0.0264 -0.5267  0.1599
19170W        W62108   0.687  34.177  17.685  0.0064  0.1229 -0.0997
19171W        W62109   1.656  34.627  16.819 -0.0590  0.1255 -0.0637
19172W        W62110   1.518   1.394  17.479  0.2894 -0.1867  0.0868
19173W        W62111   1.214  34.203  18.313 -0.1322 -0.1739 -0.0272
19174W        W62112  33.976  32.665  16.768 -0.0336 -0.4227  0.2391
19175W        W62113   3.730   0.687  18.263  0.4928  0.1734  0.0027
19176W        W62114   3.091   1.566  17.206  0.1240  0.2477 -0.0773
19177W        W62115   0.324  33.799  17.839 -0.1281  0.0484  0.0090
19178W        W62116   3.859  33.206  18.283  0.0464  0.0756 -0.1698
19179W        W62117   1.572   0.080  18.896 -0.0852  0.0145 -0.3863
19180W        W62118   4.343  33.083  19.104  0.2727 -0.3565 -0.0312
19181W        W62119   3.690  32.635  19.149  0.2728 -0.1940  0.1910
19182W        W62120   2.953  32.071  17.919 -0.1232  0.1701 -0.0900
19183W        W62121   1.530  34.120  17.843 -0.1905 -0.3408  0.3110
19184W        W62122   0.708  34.101  18.194  0.1396 -0.0388  0.3129
19185W        W62123   3.967  32.539  16.838 -0.0663  0.2705 -0.1541
19186W        W62124   3.896  33.441  17.875 -0.1355 -0.5463  0.2286
19187W        W62125   1.328   0.002  20.626 -0.2684 -0.1295  0.0325
19188W        W62126   0.193  34.364  17.113 -0.0426 -0.1061 -0.1444
19189W        W62127   2.459  33.808  19.633 -0.1627 -0.0016  0.2921
19190W        W62128   1.950  33.716  19.332  0.0099 -0.0923 -0.1480
19191W        W62129  34.428  34.531  17.320  0.2027  0.1777 -0.1323
19192W        W62130   0.177  33.398  17.307  0.0413 -0.1103 -0.1483
19193W        W62131   0.462  32.210  18.451  0.0191  0.0749 -0.4118
19194W        W62132   0.640  33.407  17.188 -0.0057  0.0979  0.2012
19195W        W62133   2.438  34.185  17.987 -0.0198  0.1139  0.0430
19196W        W62134   2.691  33.417  18.769  0.0407 -0.1917 -0.4697
19197W        W62135   0.915  33.413  18.801  0.4822  0.1082 -0.0741
19198W        W62136  33.464  31.577  17.141  0.1197  0.2563  0.1293
19199W        W62137   2.187  32.661  17.991  0.0040  0.0748  0.0530
19200W        W62138  34.528  31.944  17.844  0.1052  0.1041 -0.2889
19201W        W62139   3.304  33.832  19.352  0.1229  0.0447  0.2790
19202W        W62140   1.752   0.559  17.499  0.2919  0.0916 -0.1039
19203W        W62141  34.276  32.060  19.860 -0.3499 -0.2886 -0.1980
19204W        W62142   1.394  32.301  18.054 -0.4041  0.1652 -0.0960
19205W        W62143   1.522  34.218  16.551 -0.1737  0.0676 -0.1051
19206W        W62144  34.524  33.642  17.715 -0.0602 -0.2845  0.2262
19207W        W62145   2.748  32.376  17.114 -0.3016  0.2220  0.5309
19208W        W62146   2.510  33.278  19.779 -0.3748  0.0570 -0.2123
19209W        W62147   0.543  33.749  16.364  0.1472 -0.0974 -0.3028
19210W        W62148   3.295   0.402  15.621 -0.2778  0.1231  0.2660
19211W        W62149   0.676  33.032  18.588 -0.1437 -0.1811  0.1246
19212W        W62150   0.892   0.213  17.116  0.0823  0.1087 -0.1417
19213W        W62151   1.863  32.937  17.142  0.0497  0.0450 -0.2574
19214W        W62152   3.394  31.670  18.626  0.2568 -0.0361  0.1704
19215W        W62153   1.105  33.840  17.872  0.0524 -0.1450 -0.1272
19216W        W62154   1.440   0.442  17.953  0.4424  0.0884 -0.3571
19217W        W62155   1.146  33.730  20.894 -0.0051  0.0596  0.0801
19218W        W62156   3.565  33.904  21.215  0.1676 -0.0096  0.0685
19219W        W62157   3.848  32.432  21.068 -0.2808 -0.1194  0.1541
19220W        W62158  34.614  34.033  20.966 -0.0178 -0.0202 -0.1015
19221W        W62159   0.020  32.320  22.380  0.2594 -0.2505 -0.1315
19222W        W62160   2.851  32.486  20.719  0.1695  0.0137 -0.2464
19223W        W62161   1.113  33.490  22.394 -0.0730  0.0812  0.0966
19224W        W62162   1.643  33.245  19.002  0.0713 -0.1621 -0.0001
19225W        W62163   0.518  33.501  21.415 -0.1642 -0.0155 -0.2164
19226W        W62164   2.031   0.314  22.726  0.0338 -0.0460 -0.3245
19227W        W62165  34.354  34.453  20.305  0.0063 -0.0478 -0.0171
19228W        W62166   0.652  34.108  22.752  0.1794 -0.1959  0.0207
19229W        W62167   1.360  32.471  20.627 -0.0115 -0.0861 -0.1098
19230W        W62168   1.415  33.488  24.455 -0.1905  0.3013  0.0226
19231W        W62169   1.989  33.834  22.604 -0.1372 -0.0438  0.1571
19232W        W62170  34.601   0.028  21.570  0.3848 -0.1132 -0.1503
19233W        W62171   1.854  34.328  22.022  0.3551  0.0474  0.3988
19234W        W62172   1.731  32.509  22.452 -0.1435 -0.1131  0.1642
19235W        W62173   2.366  33.688  22.845  0.1419  0.0172  0.2343
19236W        W62174   2.144  34.001  21.726 -0.0981 -0.1325 -0.2369
19237W        W62175   3.263  34.614  23.455 -0.0118 -0.1635 -0.0665
19238W        W62176   1.715  34.215  23.023  0.1793  0.1091  0.2202
19239W        W62177   2.974   0.518  22.223 -0.2234  0.0218 -0.1046
19240W        W62178   2.832  34.415  23.860 -0.0636  0.0319 -0.0960
19241W        W62179   2.672   0.324  21.004  0.0084 -0.1631  0.1367
19242W        W62180   2.490  32.564  18.612 -0.1769  0.3812  0.2466
19243W        W62181   2.411  34.280  21.407 -0.0015 -0.2636 -0.1762
19244W        W62182   1.607  33.218  22.083  0.0000 -0.1395 -0.0029
19245W        W62183   1.966  34.646  23.172 -0.1633 -0.1297  0.3912
19246W        W62184   3.171   0.161  21.874 -0.0424 -0.2640  0.1965
19247W        W62185   2.713   0.115  23.406 -0.3371  0.0186  0.0569
19248W        W62186   0.223  33.831  20.638  0.2262 -0.0002  0.0298
19249W        W62187   0.846   0.118  20.664 -0.1404 -0.0275  0.2558
19250W        W62188  33.849   0.412  24.375 -0.0524  0.0842 -0.2387
19251W        W62189   0.532   0.014  24.072  0.3108 -0.2930 -0.0145
19252W        W62190   0.694  34.033  20.483  0.0443  0.1867  0.0419
19253W        W62191   3.458  33.475  21.985 -0.5163 -0.1092  0.0489
19254W        W62192   3.609  32.149  22.355 -0.0442  0.0170 -0.0559
19255W        W62193   3.166  32.166  23.818  0.1607  0.3372  0.0532
19256W        W62194   3.091   0.301  19.864  0.1629  0.0409  0.1398
19257W        W62195   0.833  33.819  22.144  0.1243 -0.3041 -0.2279
19258W        W62196  34.047  34.161  23.079 -0.0437  0.3649 -0.3326
19259W        W62197   3.154  33.341  20.567 -0.3868 -0.2121  0.3226
19260W        W62198   0.306  32.804  21.935  0.1953  0.0590  0.2934
19261W        W62199   2.772  34.195  23.398  0.1945  0.0664 -0.2590
19262W        W62200   4.789  33.212  19.928 -0.1895 -0.1136  0.0971
19263W        W62201   0.400  34.065  22.298  0.1893  0.0939  0.0036
19264W        W62202   1.052  33.165  20.115 -0.2067 -0.1418 -0.1557
19265W        W62203  34.637  33.547  21.661  0.0905 -0.1694  0.0131
19266W        W62204   1.537  34.050  21.744 -0.1981  0.0650  0.0725
19267W        W62205   1.332  34.218  23.803 -0.2160  0.0361  0.1503
19268W        W62206  34.268  33.144  20.192  0.4527 -0.0200 -0.2766
19269W        W62207   2.680  34.137  21.914 -0.0542  0.4398 -0.3285
19270W        W62208   2.680  33.361  21.167  0.1671 -0.0837  0.2232
19271W        W62209   3.007  32.672  23.867 -0.0264 -0.1034 -0.0068
19272W        W62210  33.401  33.982  23.752 -0.1899  0.1630  0.1915
19273W        W62211   1.621  32.410  20.130 -0.0253  0.3341 -0.2039
19274W        W62212   0.601  33.151  21.060  0.0169  0.0417 -0.2629
19275W        W62213   3.038  32.061  24.875 -0.3160  0.1662  0.0795
19276W        W62214   1.750  33.089  23.148  0.1114 -0.1544  0.0682
19277W        W62215   1.641  31.925  21.388 -0.1975  0.1940  0.1320
19278W        W62216  34.417  33.946  20.470  0.1831  0.0516  0.0246
19279W        W62217   4.330  33.526  20.709 -0.0111  0.1101  0.0143
19280W        W62218  34.146   0.421  23.483  0.1369 -0.2041  0.2588
19281W        W62219   1.239  34.037  23.243  0.1692 -0.1062 -0.1130
19282W        W62220   0.446   0.301  20.394  0.0174 -0.0819  0.0431
19283W        W62221   3.048  33.529  22.444  0.2017 -0.0615 -0.0862
19284W        W62222   4.758  32.741  20.658  0.1805  0.1210 -0.1060
19285W        W62223   2.829  33.381  20.189 -0.2029 -0.0486  0.2176
19286W        W62224   3.552  32.596  19.701 -0.3107 -0.1191  0.0014
19287W        W62225   2.750  33.779  20.550  0.4877 -0.1626 -0.1074
19288W        W62226   1.076  32.259  23.264 -0.0218 -0.2618  0.4695
19289W        W62227   1.330  32.964  19.767 -0.2278 -0.2637 -0.0693
19290W        W62228   2.118  32.940  21.750  0.1091 -0.2288  0.3269
19291W        W62229   2.660  33.886  22.426 -0.0111  0.3213  0.0255
19292W        W62230   2.992  32.625  22.181  0.3546 -0.2163  0.1824
19293W        W62231   0.799  32.115  22.709 -0.4030  0.1354 -0.1541
19294W        W62232   3.523  34.410  22.897 -0.1224  0.0503 -0.0767
19295W        W62233   3.003   0.219  21.379 -0.0148 -0.0356  0.1084
19296W        W62234   2.337  34.526  23.516 -0.1627 -0.2438  0.0329
19297W        W62235   1.457  33.483  20.502  0.0122  0.0232  0.0499
19298W        W62236   0.767  33.072  23.286 -0.3822 -0.0124  0.1421
19299W        W62237   1.389  33.594  23.646 -0.2004  0.1736 -0.0177
19300W        W62238   3.023  32.458  21.268 -0.2187 -0.3801 -0.2701
19301W        W62239   2.417  32.646  22.362  0.0267  0.0621 -0.0407
19302W        W62240   3.653  31.178  22.466  0.0600  0.3914 -0.1607
19303W        W62241  34.519  32.980  18.512 -0.0454  0.0309  0.0791
19304W        W62242   0.420  33.295  20.627  0.1161 -0.2528  0.0427
19305W        W62243   3.474  34.009  21.683 -0.0470 -0.0113  0.0918
19306W        W62244   0.548  32.240  22.249  0.3283 -0.2361 -0.2143
19307W        W62245   0.811  34.411  22.344 -0.1155 -0.0914  0.4437
19308W        W62246   2.497   1.110  23.715 -0.2339  0.0724 -0.3516
19309W        W62247   1.915   0.062  20.740  0.1097  0.0315  0.2171
19310W        W62248  34.488  34.096  23.402 -0.0423  0.1650 -0.0721
19311W        W62249   0.280  33.160  20.108  0.0543 -0.1665  0.3322
19312W        W62250   2.760  33.981  22.945 -0.3103 -0.1365  0.0341
19313W        W62251   0.879  33.412  20.565  0.1699  0.0961 -0.1872
19314W        W62252  34.493   0.201  21.111  0.0916  0.2697 -0.0814
19315W        W62253   0.050  33.511  23.782  0.0211 -0.1213  0.0399
19316W        W62254   2.229   0.315  23.313 -0.0735  0.1440  0.1309
19317W        W62255   1.049  32.525  21.489  0.1303 -0.0267  0.3138
19318W        W62256   2.448  32.488  21.730 -0.1536  0.1404 -0.1175
19319W        W62257   0.585   0.403  23.163  0.0165  0.2019  0.2723
19320W        W62258   2.702  33.529  21.819 -0.1131  0.0723  0.2262
19321W        W62259   1.287  33.517  23.084  0.1761  0.0775 -0.5576
19322W        W62260   0.051  33.274  22.843  0.0740 -0.0208  0.0500
19323W        W62261   3.078  32.369  19.778 -0.2498  0.2251 -0.3615
19324W        W62262   0.251  33.091  22.320 -0.0387 -0.0570  0.0286
19325W        W62263   2.828  31.730  23.138  0.3274  0.2004  0.4059
19326W        W62264   2.204  33.635  21.067  0.1636  0.2374  0.0105
19327W        W62265   1.913  32.998  23.584  0.0623  0.1802  0.0877
19328W        W62266   0.773  32.498  23.644  0.0665  0.1108 -0.0378
19329W        W62267   1.326  34.068  21.281  0.2928  0.5722 -0.2154
19330W        W62268   0.217   0.435  25.869 -0.2701  0.0437  0.0134
19331W        W62269   2.615  33.995  20.044 -0.1847  0.0779  0.0227
19332W        W62270   1.529  32.918  20.328  0.1736 -0.1563  0.1047
19333W        W62271   0.847   0.155  22.091  0.0234  0.0740 -0.0691
19334W        W62272   4.103   0.369  22.990  0.2344 -0.1788  0.0414
19335W        W62273  34.466   0.595  22.506 -0.0750  0.0608 -0.0008
19336W        W62274   3.535  33.966  22.271  0.2421  0.1850 -0.3331
19337W        W62275   0.448  32.277  24.871  0.4012  0.0305  0.0593
19338W        W62276   3.070  33.862  22.016  0.2116  0.0202  0.0219
19339W        W62277   1.348  33.874  22.756 -0.0856  0.2344  0.0767
19340W        W62278   2.315  33.789  24.625 -0.0288  0.0501  0.1005
19341W        W62279   1.558  34.399  24.233 -0.1452  0.0848  0.1461
19342W        W62280   0.067  33.747  24.234  0.3074  0.0634  0.2522
19343W        W62281   3.450  32.700  21.276  0.1810  0.3819 -0.2769
19344W        W62282   2.763  33.678  23.393  0.2616 -0.2691 -0.4479
19345W        W62283   3.158  33.715  21.407  0.1640  0.1091  0.0330
19346W        W62284   3.124  33.408  19.126  0.0383 -0.2202  0.0981
19347W        W62285   0.660  34.402  20.897  0.0213  0.2094  0.0511
19348W        W62286   0.651  33.963  24.582 -0.0455  0.3213  0.3374
19349W        W62287   2.257  32.654  21.206  0.0378  0.1535  0.0013
19350W        W62288   3.500  32.232  24.173  0.1283  0.1081 -0.0079
19351W        W62289   1.620  32.769  21.020 -0.0047 -0.0488 -0.1541
19352W        W62290   0.418  33.956  21.789  0.0574 -0.0121  0.0174
19353W        W62291   0.585  31.720  19.245  0.1018  0.1514  0.1653
19354W        W62292   1.161  34.423  20.222  0.0584 -0.1663 -0.2218
19355W        W62293   2.423  32.965  20.212 -0.1145  0.0945 -0.3525
19356W        W62294   2.007  33.033  24.102  0.0381 -0.1758  0.0058
19357W        W62295   1.616  32.574  21.495 -0.0872 -0.0189  0.1053
19358W        W62296   1.830  32.547  23.285  0.0680  0.0946  0.1516
19359W        W62297   4.122  33.034  22.949 -0.0462  0.0883 -0.2285
19360W        W62298   1.753  33.739  23.110 -0.1333 -0.1164 -0.3226
19361W        W62299   4.037  33.893  22.419 -0.0731  0.3636  0.3074
19362W        W62300  34.328   0.845  23.166 -0.1365  0.3442  0.0373
19363W        W62301   0.180  34.391  24.724 -0.0751  0.1563 -0.0261
19364W        W62302   2.805  32.443  20.186 -0.4752 -0.2979 -0.0576
19365W        W62303   2.592  32.878  20.947  0.1681 -0.1868  0.0564
19366W        W62304   3.663  31.944  19.140 -0.3700 -0.4635 -0.2607
19367W        W62305   4.242  32.752  21.296 -0.2682 -0.0669 -0.0569
19368W        W62306   3.850  33.648  20.871  0.1981  0.0537  0.0421
19369W        W62307   1.686  33.479  22.686  0.0630 -0.0748 -0.1774
19370W        W62308   2.630  32.360  19.574  0.3191 -0.3812  0.0901
19371W        W62309   2.529  34.004  23.845 -0.3806 -0.0039  0.0233
19372W        W62310   3.647  32.015  23.749  0.1414  0.1973 -0.2655
19373W        W62311   0.493  33.899  19.585 -0.1618 -0.0853 -0.0519
19374W        W62312   2.613   0.446  22.589  0.1445 -0.0410  0.1113
19375W        W62313   3.112  31.233  23.324 -0.0203 -0.3267 -0.1742
19376W        W62314   2.279  32.348  23.229 -0.0939 -0.0434  0.1008
19377W        W62315  33.922   0.128  20.171  0.0730  0.1521 -0.1559
19378W        W62316   4.406  34.464  21.289  0.4789 -0.0320 -0.2602
19379W        W62317   0.631  34.447  21.890 -0.0501  0.1803  0.4339
19380W        W62318   2.811  31.773  22.053  0.2791 -0.0309  0.0322
19381W        W62319   0.131   0.291  22.271 -0.2126  0.1515  0.2175
19382W        W62320   3.137  33.264  21.607  0.0439  0.2170 -0.0435
19383W        W62321   1.629  34.322  22.481 -0.1056  0.0819  0.1120
19384W        W62322   2.657  33.279  20.651 -0.2473 -0.1720 -0.0195
19385W        W62323   3.080   0.963  23.301 -0.2066 -0.4992  0.0492
19386W        W62324   1.984  34.330  19.559  0.2221 -0.0087  0.3931
19387W        W62325   1.615  33.435  19.985  0.2796 -0.1653 -0.0317
19388W        W62326   2.624  33.366  19.287 -0.2211 -0.1460  0.1528
19389W        W62327   2.205  33.126  21.065 -0.1150 -0.1816 -0.0458
19390W        W62328   2.260  34.119  22.246 -0.1470 -0.1023  0.6787
19391W        W62329   0.292  32.298  21.820  0.2844 -0.0749  0.0200
19392W        W62330   3.310  33.005  23.290  0.2248 -0.3112  0.2467
19393W        W62331   2.080  34.530  22.628 -0.0320  0.1349 -0.1345
19394W        W62332   0.731  32.834  22.314  0.1074  0.0317 -0.0829
19395W        W62333   1.978  32.503  21.968 -0.1892  0.1772 -0.2202
19396W        W62334   2.369  34.307  23.054  0.1524  0.1753 -0.1510
19397W        W62335   2.600  34.369  22.565 -0.2317 -0.3344  0.0869
19398W        W62336   2.108  32.763  22.822  0.0243  0.2331 -0.1932
19399W        W62337   2.865  33.469  23.810 -0.2825  0.1375  0.1172
19400W        W62338   1.742  33.070  21.418  0.3928  0.0005  0.1561
19401W        W62339   1.012  32.047  20.747 -0.0605 -0.1265 -0.0896
19402W        W62340   2.520  33.003  22.022  0.3095 -0.0705 -0.4735
19403W        W62341   2.557  31.746  21.026  0.1881 -0.0989  0.4054
19404W        W62342   0.156   0.837  22.613  0.0488  0.0471  0.4563
19405W        W62343   0.065  34.506  21.980  0.1956  0.1872  0.1783
19406W        W62344   2.720  32.715  24.263 -0.1528 -0.0818  0.1185
19407W        W62345   0.660  34.235  23.716  0.1299 -0.2813  0.1793
19408W        W62346  34.247  34.476  21.990 -0.1290  0.1438  0.0279
19409W        W62347   1.681  33.327  20.902 -0.0602 -0.0144 -0.4259
19410W        W62348   0.301  32.635  23.764 -0.1821 -0.2734  0.2569
19411W        W62349  34.015  33.431  21.115 -0.2375  0.0536  0.2660
19412W        W62350   2.221  33.359  22.167  0.0412 -0.1567 -0.2022
19413W        W62351   2.060  33.587  24.076  0.2313 -0.2517 -0.0790
19414W        W62352   1.383  32.523  23.581  0.1135 -0.2714 -0.2287
19415W        W62353   0.003  31.728  19.806  0.2878  0.3876  0.2157
19416W        W62354   1.415  34.495  23.391  0.0762  0.0357  0.2421
19417W        W62355  33.729  32.701  22.903 -0.0421 -0.0526  0.1596
19418W        W62356   2.845  33.227  23.089  0.0397 -0.2847 -0.1538
19419W        W62357   2.110  33.271  22.650  0.0347  0.1603  0.2715
19420W        W62358   0.791  32.140  25.413 -0.0860 -0.2484  0.0275
19421W        W62359   1.114  33.081  22.105  0.1547  0.0544 -0.0466
19422W        W62360   2.176  32.873  20.629  0.1398 -0.1200 -0.1849
19423W        W62361   0.816  34.275  23.235  0.2648 -0.2381 -0.1276
19424W        W62362   1.968  32.740  20.145 -0.0452  0.2147 -0.4068
19425W        W62363   0.766  33.626  22.797 -0.2216  0.1502 -0.0400
19426W        W62364   0.092  34.238  19.437  0.2318 -0.1846 -0.0392
19427W        W62365   3.216   0.030  20.978 -0.0026 -0.0581 -0.0372
19428W        W62366   0.360  32.537  22.674  0.3694  0.1519  0.3173
19429W        W62367   2.337  34.108  20.450 -0.0957 -0.1262 -0.2057
19430W        W62368   1.744  33.512  21.728  0.2259  0.2419  0.3261
19431W        W62369   1.859  33.477  23.547 -0.3890  0.4757 -0.0749
19432W        W62370   1.344  33.633  21.956  0.0761  0.0206  0.4321
19433W        W62371   3.274  32.795  20.742 -0.1693 -0.4508  0.0658
19434W        W62372   1.076  34.000  24.928  0.3173 -0.1163  0.0290
19435W        W62373   2.818  33.590  24.574  0.0021 -0.1377  0.0074
19436W        W62374   3.274  33.615  24.018  0.0231  0.2255 -0.0010
19437W        W62375  33.655   0.053  24.021  0.0535 -0.1073  0.0126
19438W        W62376   1.352  31.598  26.736 -0.1805 -0.1681  0.0452
19439W        W62377   1.226   0.610  23.840 -0.1133  0.1447 -0.0435
19440W        W62378   1.371  34.547  25.530  0.0826  0.0296  0.0801
19441W        W62379   0.516  33.289  23.665 -0.0374  0.2525  0.1968
19442W        W62380  34.016  34.085  25.339  0.2075 -0.5482  0.2640
19443W        W62381   3.296  34.649  25.986 -0.1898 -0.0215 -0.0700
19444W        W62382   0.470  34.601  25.736  0.0590 -0.0340  0.0546
19445W        W62383   0.772  33.032  25.366 -0.1552 -0.0202 -0.0959
19446W        W62384   0.575  33.839  25.049 -0.0212 -0.3538  0.0568
19447W        W62385   1.184  32.616  25.398  0.1218  0.0382 -0.1867
19448W        W62386   2.908  33.210  25.692  0.0866  0.0496  0.1141
19449W        W62387   0.077  34.670  24.235  0.1287 -0.0379  0.0431
19450W        W62388  33.796  34.416  25.763 -0.1056  0.0240 -0.0747
19451W        W62389   1.325  32.159  25.429 -0.1065 -0.0127  0.2150
19452W        W62390   1.336  34.079  25.447  0.0254 -0.0588  0.3585
19453W        W62391   1.283  34.038  24.475  0.0624 -0.1380 -0.2716
19454W        W62392   2.762  33.736  26.697  0.0045  0.1103  0.0735
19455W        W62393   1.541   1.222  26.304  0.3757  0.0846 -0.4016
19456W        W62394   0.671  34.338  24.950 -0.0425 -0.0600 -0.1078
19457W        W62395   5.762  33.591  27.701 -0.1977 -0.1195  0.1237
19458W        W62396   3.284  33.473  24.524  0.0722  0.3096  0.2151
19459W        W62397   1.602  33.817  24.097 -0.1438 -0.0170 -0.1629
19460W        W62398   3.397  32.418  25.163 -0.2800  0.5244  0.0301
19461W        W62399   2.123  32.023  25.079  0.0260  0.0771 -0.0007
19462W        W62400   0.854  32.910  25.932 -0.1138 -0.0613 -0.1849
19463W        W62401   0.568   0.041  24.635 -0.3897 -0.0986  0.1591
19464W        W62402   2.369  33.320  24.851 -0.0293 -0.1620  0.1160
19465W        W62403   0.535  33.734  26.224 -0.0810  0.0773 -0.2279
19466W        W62404   0.651   0.140  25.154 -0.1611  0.1038  0.1499
19467W        W62405   1.866   0.333  27.862  0.2277 -0.0470 -0.1790
19468W        W62406  34.491  33.972  28.181  0.4960 -0.1413  0.0340
19469W        W62407   0.129  32.774  24.771  0.0912 -0.0756  0.2395
19470W        W62408   3.620  33.689  26.351  0.0931  0.1067  0.1252
19471W        W62409   3.058  32.097  25.894 -0.0306 -0.1071  0.0941
19472W        W62410   2.058  31.833  26.041 -0.0611 -0.1313 -0.1140
19473W        W62411   3.019   0.191  23.819  0.2381 -0.2846  0.0508
19474W        W62412   1.197   0.230  26.311  0.1764  0.3279  0.2522
19475W        W62413   1.629  32.646  24.910  0.2915  0.2864  0.0435
19476W        W62414   4.082  32.007  25.713 -0.3851  0.0905  0.2402
19477W        W62415   0.540  31.599  27.306  0.1214 -0.0992  0.0812
19478W        W62416   3.071  32.794  25.286 -0.2883  0.2114  0.2903
19479W        W62417   3.329  34.682  24.672 -0.1250 -0.1393  0.2731
19480W        W62418  33.860   0.316  26.711  0.1989  0.1996  0.1044
19481W        W62419  34.139  34.627  24.324 -0.2890 -0.0202 -0.0380
19482W        W62420   0.283  33.364  28.573  0.0721 -0.1592 -0.3262
19483W        W62421  34.144  34.070  25.820 -0.3272 -0.3150 -0.2607
19484W        W62422   3.792   0.180  26.063 -0.0803  0.2782  0.1535
19485W        W62423  34.039  33.012  24.205  0.0896  0.1411 -0.4123
19486W        W62424   2.909  33.832  26.151  0.0968 -0.2245 -0.0582
19487W        W62425   1.646   0.248  23.396 -0.0231  0.1448 -0.0289
19488W        W62426   3.931  33.663  26.764 -0.2726  0.0597 -0.0763
19489W        W62427   0.691  33.490  26.622  0.0877 -0.0724  0.2360
19490W        W62428   0.957  33.576  24.718  0.2353 -0.0545  0.2122
19491W        W62429   0.011  33.091  25.143  0.1605 -0.0195 -0.1312
19492W        W62430   2.997  32.897  26.086  0.0351  0.0913  0.0112
19493W        W62431   1.843  34.427  25.709  0.0590 -0.2780  0.4138
19494W        W62432  34.390  33.669  24.577 -0.1262 -0.1030 -0.1147
19495W        W62433   0.419  34.010  26.627  0.0405  0.0191  0.4563
19496W        W62434   3.910  32.429  25.571  0.0285 -0.0718 -0.1953
19497W        W62435  32.613  34.564  26.777 -0.3236 -0.1266 -0.2585
19498W        W62436   1.638   0.537  25.950  0.0216 -0.0321 -0.3061
19499W        W62437   1.004  33.668  24.185 -0.0940  0.2625 -0.1384
19500W        W62438   2.641  32.220  24.054  0.1325 -0.0556  0.0608
19501W        W62439   2.461  32.909  23.838 -0.1016 -0.2102  0.1519
19502W        W62440   3.187  32.601  24.312 -0.0401  0.1466  0.1459
19503W        W62441   1.108  33.045  24.432 -0.0265 -0.0885 -0.1742
19504W        W62442   0.458  33.881  23.337  0.1564  0.0603  0.0135
19505W        W62443   1.602  31.765  25.242 -0.0080 -0.5475 -0.3925
19506W        W62444   0.990  33.294  23.880  0.5276  0.1135 -0.1343
19507W        W62445   2.519  32.865  24.731  0.1732  0.2505 -0.3319
19508W        W62446   3.652  33.229  26.801 -0.1342  0.2538 -0.4338
19509W        W62447   1.811  32.395  25.431  0.0550 -0.2498 -0.0160
19510W        W62448   2.354  33.739  26.258 -0.0613  0.0150  0.2189
19511W        W62449   3.354  33.211  27.276 -0.0341 -0.2703  0.0941
19512W        W62450   3.349  33.225  25.394 -0.1669 -0.2320  0.0086
19513W        W62451   3.122  34.285  24.893  0.0617  0.0653  0.1633
19514W        W62452   0.946  34.233  24.134  0.3580  0.1519  0.2509
19515W        W62453   1.352   0.582  26.701  0.3162 -0.0757  0.0821
19516W        W62454   1.663  32.854  25.354  0.0654  0.2650 -0.1254
19517W        W62455   0.980  33.876  23.696  0.0862  0.1709  0.0708
19518W        W62456   1.607  32.004  25.856  0.2214 -0.0064 -0.3178
19519W        W62457   1.622  32.418  26.872 -0.3995  0.0914 -0.1420
19520W        W62458   0.200  34.079  25.227  0.1739 -0.1769 -0.2654
19521W        W62459  34.332   0.247  25.204  0.2003  0.0363 -0.1919
19522W        W62460   2.701  34.065  24.680  0.1082 -0.0350 -0.2703
19523W        W62461   2.280  32.385  25.984 -0.3293 -0.2050 -0.1961
19524W        W62462   0.836  33.493  25.202  0.2022  0.1518  0.0868
19525W        W62463   2.790   0.432  26.514  0.1504  0.0189 -0.2032
19526W        W62464   2.596  32.002  25.069  0.1087  0.1800  0.2364
19527W        W62465   1.602  34.179  26.245 -0.1898  0.2360 -0.0631
19528W        W62466  33.965  34.236  23.638 -0.1274  0.1212 -0.2774
19529W        W62467   2.832  33.297  26.381  0.4923 -0.0739  0.2085
19530W        W62468   0.244  33.515  25.850 -0.0128 -0.0416 -0.2561
19531W        W62469   0.461  32.747  25.109  0.1249 -0.1960  0.1316
19532W        W62470   1.181   0.790  26.264 -0.0775  0.1479 -0.2784
19533W        W62471   1.438  32.576  25.827  0.2523 -0.0845  0.1894
19534W        W62472   1.309  32.851  23.978  0.1992 -0.0150 -0.1455
19535W        W62473   1.865  33.994  24.533  0.1818  0.1006 -0.1293
19536W        W62474   1.924  32.759  26.054  0.0413 -0.0655 -0.2257
19537W        W62475   2.326  31.847  26.661 -0.1044 -0.1887  0.1847
19538W        W62476   3.312  33.205  26.358 -0.3331  0.4415  0.4991
19539W        W62477   2.936  33.272  25.117  0.1556 -0.0625  0.4526
19540W        W62478   3.653  31.940  24.982 -0.0019  0.2769  0.1650
19541W        W62479  34.574  33.376  25.531  0.1019 -0.0497 -0.2421
19542W        W62480   4.657  32.581  27.175 -0.0181 -0.3863  0.1695
19543W        W62481   2.206  32.564  24.206  0.3420  0.0400 -0.3991
19544W        W62482   2.223  33.184  26.330 -0.0530  0.1488  0.1323
19545W        W62483   1.912  31.644  26.769  0.0227  0.2604  0.1648
19546W        W62484   1.643  33.169  25.922 -0.0942  0.0084 -0.1160
19547W        W62485   1.322  33.776  26.380 -0.2064  0.1761  0.1472
19548W        W62486   2.118  33.021  25.151  0.1300 -0.2698 -0.3179
19549W        W62487   0.856  33.024  24.903  0.0633 -0.0735 -0.1387
19550W        W62488  34.631  34.319  25.903  0.0026 -0.0946 -0.1412
19551W        W62489   2.870  34.353  25.929  0.2426  0.0130 -0.1497
19552W        W62490   0.621   0.451  25.584 -0.1185 -0.3993  0.0526
19553W        W62491   2.416  33.141  24.322 -0.0443 -0.2391  0.0600
19554W        W62492   0.902  33.258  27.063  0.0445 -0.2565 -0.0187
19555W        W62493   1.708  34.128  25.022 -0.0687  0.3552  0.2296
19556W        W62494   2.912  32.543  26.913  0.0843 -0.1136 -0.0040
19557W        W62495   1.663   0.312  26.404 -0.1384  0.3041 -0.2847
19558W        W62496   2.579  34.677  26.421 -0.1008  0.0289  0.1738
19559W        W62497  34.689  32.046  28.258  0.1305 -0.1532  0.4408
19560W        W62498   4.275   0.084  20.899 -0.0184  0.0228 -0.1139
19561W        W62499   4.236  32.524  26.804  0.1127  0.1859 -0.2522
19562W        W62500   3.509  34.299  25.365 -0.4097  0.2002 -0.1570
19563W        W62501   2.346  33.436  25.487  0.1875 -0.3633  0.0522
19564W        W62502  33.564  32.752  25.964 -0.0668 -0.2481  0.0601
19565W        W62503   2.734  33.439  28.391  0.1508 -0.0455  0.2408
19566W        W62504   1.164  34.336  22.722  0.1741  0.3076  0.0793
19567W        W62505   2.539  33.954  25.790  0.0075 -0.1600 -0.1620
19568W        W62506   2.008  33.691  25.021 -0.0999  0.0458 -0.0248
19569W        W62507  33.948  34.543  25.154 -0.4405  0.3179  0.1186
19570W        W62508   0.347  34.220  24.238  0.1710 -0.0623  0.2692
19571W        W62509   1.628   0.762  23.544  0.2038 -0.1521 -0.4520
19572W        W62510   1.701  32.532  23.987 -0.0502  0.1115  0.0879
19573W        W62511   4.177  33.887  27.170  0.2244 -0.0533 -0.0922
19574W        W62512   1.289  33.202  25.139  0.0143 -0.0836  0.2699
19575W        W62513   2.287  32.608  25.496 -0.1506  0.0601 -0.1676
19576W        W62514   1.157  34.649  25.088 -0.1467  0.1447 -0.0252
19577W        W62515   1.668  33.152  26.472  0.3047 -0.2427  0.3744
19578W        W62516   5.336  34.655  27.315 -0.0432  0.3456  0.0138
19579W        W62517   0.174  34.673  26.140 -0.1729  0.1658  0.0694
19580W        W62518  33.344   0.314  27.332 -0.3105  0.0384  0.2064
19581W        W62519   0.065  33.996  26.224 -0.1723  0.2145  0.1939
19582W        W62520   1.598  33.258  23.982  0.0336 -0.0662 -0.2497
19583W        W62521   3.013  32.578  24.812  0.0814 -0.0734  0.0115
19584W        W62522   4.293  33.657  25.968 -0.2095 -0.2721  0.0425
19585W        W62523   3.048  33.954  23.721 -0.0015  0.0543  0.0888
19586W        W62524   1.245  33.091  25.610 -0.0586  0.3359 -0.2726
19587W        W62525   1.715  32.424  24.467  0.2280 -0.0080 -0.3388
19588W        W62526   0.883  33.379  26.159  0.1057 -0.3147 -0.0202
19589W        W62527   4.171  32.575  27.431 -0.0559 -0.0105  0.3418
19590W        W62528   0.465  33.523  24.497 -0.0194  0.6001 -0.2473
19591W        W62529  34.302  33.799  27.138 -0.1041 -0.2536 -0.2594
19592W        W62530   3.987  32.207  26.133 -0.2330  0.1520  0.1677
19593W        W62531   1.721  33.393  25.351  0.1157  0.0977  0.1804
19594W        W62532   0.357  34.053  25.714  0.2307  0.1261  0.0018
19595W        W62533   4.260  34.256  24.584 -0.3519  0.2079  0.1455
19596W        W62534   0.662  34.306  27.508 -0.0882  0.1668 -0.3432
19597W        W62535   4.378  33.328  26.386 -0.1379  0.0385  0.0295
19598W        W62536   1.235  33.556  25.471  0.0729  0.0476 -0.1173
19599W        W62537   3.684  33.835  25.018  0.1845  0.4100  0.3322
19600W        W62538   1.118  34.467  26.047 -0.1789 -0.1288 -0.0370
19601W        W62539   2.216  34.158  24.894  0.0498 -0.1041  0.2821
19602W        W62540   3.963  34.189  25.397  0.0988  0.0174  0.1920
19603W        W62541   1.991  33.435  24.534  0.4173  0.2367 -0.1190
19604W        W62542  34.448  34.100  24.955 -0.2005 -0.2805  0.0812
19605W        W62543   1.466  33.662  24.995  0.2313 -0.2008 -0.2785
19606W        W62544   0.187  34.509  23.738 -0.1622 -0.0700 -0.1466
19607W        W62545   0.905   0.025  25.561  0.3749 -0.3553 -0.0421
19608W        W62546  34.319  33.604  25.914  0.0683  0.1667 -0.0956
19609W        W62547   2.535  33.358  25.981 -0.4480 -0.1637  0.1591
19610W        W62548   3.633   0.516  24.110 -0.0087  0.1356 -0.3086
19611W        W62549   0.493  34.209  26.195 -0.2426  0.1820  0.1409
19612W        W62550   2.033  32.928  24.605 -0.2404  0.1293  0.2981
19613W        W62551   1.265  33.013  26.248 -0.1989 -0.1786 -0.0969
19614W        W62552   2.050  33.030  25.635 -0.2534 -0.2792  0.0307
19615W        W62553   2.453  33.354  26.742 -0.0582  0.0579  0.0680
19616W        W62554   3.790  33.832  27.515  0.2080 -0.1587 -0.2184
19617W        W62555   2.084  33.817  25.490 -0.2356 -0.0192 -0.0459
19618W        W62556   0.495  33.012  24.528 -0.2016 -0.0572 -0.4038
19619W        W62557   3.150  33.739  25.024  0.1862 -0.2309  0.1712
19620W        W62558   2.111  30.755  25.535  0.2016 -0.2100 -0.1802
19621W        W62559   2.466   2.700  27.348 -0.1980 -0.1066  0.1190
19622W        W62560   0.952   1.532  24.689 -0.3568 -0.0131 -0.0050
19623W        W62561   2.612  32.910  26.545  0.0998 -0.3194 -0.5548
19624W        W62562   1.329  33.503  25.935  0.0901 -0.0533 -0.3600
19625W        W62563   0.086   0.506  25.311  0.4314 -0.0382  0.2390
19626W        W62564   0.310  33.642  25.425  0.0314  0.2148  0.0464
19627W        W62565  34.638  32.819  26.279 -0.3232 -0.2096  0.5011
19628W        W62566   1.088  32.176  25.909 -0.0886 -0.2174  0.0215
19629W        W62567   1.526  32.134  23.261  0.2185 -0.0794  0.0881
19630W        W62568   2.346   0.624  27.169 -0.0188 -0.0765 -0.0122
19631W        W62569   1.771  32.975  26.971  0.3912  0.4876 -0.3247
19632W        W62570  33.524   0.099  23.350 -0.0427  0.1216 -0.0852
19633W        W62571   1.967  34.164  26.627  0.0297  0.1076 -0.0682
19634W        W62572   1.915  33.472  28.083  0.2564  0.1646 -0.1423
19635W        W62573   3.889  32.430  25.053  0.0500 -0.0952  0.0130
19636W        W62574   2.390  34.597  25.877 -0.0244  0.1303  0.1955
19637W        W62575   0.612  33.781  27.513  0.1197  0.1542  0.1553
19638W        W62576   0.336  33.080  26.137 -0.1208  0.0752  0.1479
19639W        W62577   3.353  33.538  25.850  0.2219  0.3405  0.1307
19640W        W62578   0.176  34.589  25.279  0.0473 -0.1465  0.0399
19641W        W62579   1.777  34.567  25.216 -0.1637 -0.1686 -0.0840
19642W        W62580   3.288   0.207  27.948 -0.0799 -0.0901  0.0912
19643W        W62581   0.264   0.966  25.329  0.0270 -0.1944 -0.2370
19644W        W62582   1.938   1.250  23.602 -0.2617 -0.0493 -0.1895
19645W        W62583   0.432  32.595  26.382 -0.3633  0.0074 -0.2651
19646W        W62584   1.502   1.641  25.971 -0.4426 -0.1285  0.1200
19647W        W62585  34.625   0.091  25.722  0.0875 -0.1909 -0.1428
19648W        W62586   3.009  33.636  27.190  0.2496 -0.3633 -0.0505
19649W        W62587  33.766  34.151  27.396 -0.0106 -0.1579 -0.0733
19650W        W62588   2.948  33.055  24.682 -0.0971 -0.1422 -0.1583
19651W        W62589   1.819  34.571  28.785  0.0230 -0.1550 -0.2112
19652W        W62590   2.518  34.194  26.229 -0.0861 -0.0473 -0.0338
19653W        W62591   4.805   0.113  28.138  0.0230 -0.1682  0.3173
19654W        W62592   0.389  32.888  28.712 -0.0196  0.1482  0.1928
19655W        W62593   1.597  33.169  29.814  0.0475  0.0404 -0.1382
19656W        W62594   2.831   0.092  27.921 -0.0524 -0.1312  0.0864
19657W        W62595   1.788  34.241  29.438  0.1529 -0.0495  0.2105
19658W        W62596   2.438  33.950  28.142  0.3567 -0.1607 -0.1564
19659W        W62597   1.655   0.022  28.197  0.2778 -0.1646 -0.1649
19660W        W62598   4.114  33.915  30.727 -0.2352  0.1723 -0.0345
19661W        W62599   0.606  34.365  28.430  0.0233 -0.2316 -0.0988
19662W        W62600   2.180  33.094  30.083  0.1583  0.2252 -0.2340
19663W        W62601   2.871  34.500  28.876  0.1036 -0.2971  0.4774
19664W        W62602   1.942   0.203  29.837  0.0501  0.0003  0.1008
19665W        W62603   3.454  32.362  31.199 -0.1027 -0.0528  0.1409
19666W        W62604  34.230  33.280  26.249  0.0878  0.0143 -0.1419
19667W        W62605   1.275   1.231  29.116  0.1051 -0.0139 -0.1429
19668W        W62606   1.567   0.286  29.541 -0.1474 -0.0777  0.1898
19669W        W62607   3.166  33.664  29.323  0.1271 -0.0211 -0.1159
19670W        W62608   3.122  34.255  28.538 -0.2223  0.0409  0.2062
19671W        W62609   3.465  34.470  31.471 -0.0159 -0.0367 -0.1498
19672W        W62610   3.623   0.146  30.171 -0.1447  0.2868 -0.0464
19673W        W62611   2.209  34.003  29.506  0.2126 -0.1699  0.2310
19674W        W62612   5.276  32.245   0.006  0.1414 -0.1862 -0.1321
19675W        W62613   3.126   0.060  26.425  0.0348 -0.2871  0.0428
19676W        W62614   2.495  33.391  27.878  0.2114  0.1010 -0.2762
19677W        W62615   3.304  34.390  28.075 -0.1686 -0.2510 -0.0865
19678W        W62616   2.085  32.859  28.659  0.1107 -0.0506  0.3081
19679W        W62617   3.052  34.086  29.566 -0.1245  0.3163 -0.1227
19680W        W62618   3.305   0.350  27.414  0.2912  0.0135 -0.3916
19681W        W62619   3.365  33.653  30.427  0.0305 -0.1756 -0.2427
19682W        W62620   0.548   0.485  29.140  0.0339 -0.1578  0.1029
19683W        W62621   2.032  34.472  28.361  0.0260  0.4026 -0.0853
19684W        W62622   1.298  34.066  30.587 -0.0827 -0.1225  0.1046
19685W        W62623   2.234  33.898  31.049 -0.1090  0.0953 -0.2273
19686W        W62624   2.069  33.133  27.664  0.0388  0.2210 -0.1166
19687W        W62625   3.938  33.620  29.190 -0.2739 -0.1899 -0.1206
19688W        W62626   3.001  33.159  29.411  0.0380 -0.0136  0.2167
19689W        W62627   3.663  33.546  30.880 -0.1660 -0.0992 -0.1878
19690W        W62628   3.640   0.573  26.426  0.0156  0.2350 -0.1535
19691W        W62629   2.225  33.293  31.295  0.2648 -0.0084 -0.1653
19692W        W62630   1.237  33.324  30.600 -0.1120  0.2388 -0.0170
19693W        W62631   3.600  34.009  28.486 -0.2304 -0.2799  0.0664
19694W        W62632   0.435  31.527  31.427  0.1754 -0.1047 -0.1469
19695W        W62633   4.838  32.505  29.229 -0.3403  0.2665 -0.1376
19696W        W62634   4.964  33.430  27.123 -0.2738 -0.0558  0.0687
19697W        W62635   0.134  34.507  29.484 -0.0321  0.3046 -0.1951
19698W        W62636   2.068   0.018  27.221  0.1298 -0.3628 -0.0991
19699W        W62637   1.781  32.761  31.822  0.1228  0.1379 -0.1356
19700W        W62638   0.624  33.330  28.191  0.2215  0.0063 -0.1630
19701W        W62639   3.950   0.476  31.070 -0.1383 -0.1905  0.1109
19702W        W62640   0.634  33.019  27.398  0.0495  0.0398  0.0079
19703W        W62641   4.156  34.558  29.075 -0.1221  0.0677  0.2174
19704W        W62642   2.226  34.375  27.935  0.0855 -0.1270 -0.0524
19705W        W62643   3.742   0.302  30.632 -0.2132  0.0308 -0.1633
19706W        W62644   2.274   0.771  31.142  0.0640  0.1179 -0.0919
19707W        W62645   1.322  34.130  26.823  0.0489 -0.0761 -0.0858
19708W        W62646   1.114  34.085  27.554  0.0360  0.2866  0.0201
19709W        W62647   4.568  32.887  30.729 -0.0808  0.3410  0.1685
19710W        W62648   1.609  34.167  28.968  0.3573 -0.2921  0.0551
19711W        W62649   0.903  33.749  27.022 -0.0247  0.1896  0.1227
19712W        W62650  34.069   0.048  28.866  0.2562 -0.0412 -0.2062
19713W        W62651   4.236  33.631  28.750  0.0824 -0.0560 -0.1341
19714W        W62652  34.570  32.603   0.424 -0.0199 -0.0844  0.0548
19715W        W62653   3.652  32.714  31.545 -0.4388  0.3650 -0.2300
19716W        W62654   2.519   0.133  26.945  0.0087  0.0297  0.0324
19717W        W62655   3.542  33.786  28.960  0.1714 -0.0108  0.1084
19718W        W62656   4.711  33.393  28.398 -0.0772  0.2861 -0.0092
19719W        W62657   2.599  33.820  27.652 -0.1224  0.0502  0.1344
19720W        W62658   2.328  33.160  28.259  0.0889 -0.3081  0.0395
19721W        W62659   2.311  34.164  27.489  0.1809  0.0483 -0.1040
19722W        W62660   2.133  33.449  30.851 -0.0279 -0.3890 -0.0836
19723W        W62661   0.419  33.064  26.885 -0.1712 -0.1631 -0.2005
19724W        W62662   1.236  33.243  28.029  0.1008 -0.2112 -0.2200
19725W        W62663   4.076  32.041  31.522  0.1764 -0.1613  0.2225
19726W        W62664   3.794  32.807  29.174  0.0070 -0.1555 -0.0015
19727W        W62665   2.695  33.585  29.457  0.0444  0.1423  0.1080
19728W        W62666   4.346  32.441   0.294  0.0721  0.0089 -0.3625
19729W        W62667   3.577  34.510  27.650 -0.4216 -0.2320 -0.1304
19730W        W62668   3.930  34.585  29.881 -0.2678 -0.2927 -0.1912
19731W        W62669   0.143  33.908  27.082  0.0176  0.2144  0.1198
19732W        W62670   2.188  32.739  31.399  0.0499 -0.0472  0.2957
19733W        W62671   1.724  32.648  31.086 -0.0806  0.1730  0.2324
19734W        W62672   1.385  33.811  27.207  0.0027 -0.1661  0.0748
19735W        W62673   1.963  32.723  30.551  0.0382 -0.4608  0.2311
19736W        W62674   3.522  33.532  31.393 -0.2538 -0.3025  0.1927
19737W        W62675   2.281  34.380  26.981  0.1094 -0.1840 -0.1652
19738W        W62676   1.181   0.483  28.195  0.1631  0.0398 -0.1569
19739W        W62677   2.243  33.264  29.554 -0.1350  0.2726  0.0097
19740W        W62678   0.942  34.402  29.748 -0.0517 -0.2770 -0.0019
19741W        W62679   3.098  33.698  29.861  0.2945  0.1819  0.1297
19742W        W62680   3.826   0.337  29.668 -0.2426 -0.3437  0.1682
19743W        W62681   3.291  33.147  27.829 -0.2500 -0.3450  0.0453
19744W        W62682   0.671   0.047  31.562  0.1809 -0.3935  0.0687
19745W        W62683  34.337  34.463  28.478 -0.0063 -0.2264 -0.2657
19746W        W62684   4.930  34.312  30.149 -0.2992 -0.3825  0.3975
19747W        W62685   1.377   0.011  29.147  0.3671 -0.1900 -0.0567
19748W        W62686   1.974   1.360  28.517 -0.0542 -0.0713  0.1463
19749W        W62687   3.273   0.593  30.358 -0.0091 -0.1126 -0.1828
19750W        W62688   3.062  34.591  29.360 -0.0965  0.2651  0.1692
19751W        W62689   1.937  33.219  29.004 -0.2871 -0.0829  0.2047
19752W        W62690   3.476   0.174  28.446 -0.0540  0.2655  0.1408
19753W        W62691   3.018  33.202  30.311  0.1192 -0.0605  0.1155
19754W        W62692   2.644  34.082  28.610 -0.4050 -0.1279  0.3531
19755W        W62693   3.074   0.023  30.903  0.1741  0.0828 -0.1060
19756W        W62694   2.708  33.286  29.842 -0.2943  0.2719  0.0790
19757W        W62695   4.130  33.991  28.413  0.0369 -0.0762  0.0637
19758W        W62696   2.231  34.440  29.819  0.2194 -0.2117 -0.2514
19759W        W62697   2.391  34.186  30.214  0.0451 -0.2671  0.0834
19760W        W62698   4.011  34.504  27.224 -0.1016  0.2480 -0.1164
19761W        W62699   3.847  33.287   0.179 -0.0608  0.1544  0.0423
19762W        W62700   1.247  32.997  30.095  0.1779  0.1254  0.0557
19763W        W62701   0.615  34.234  29.432 -0.0772 -0.1362  0.2591
19764W        W62702   0.474  34.463  30.648  0.2206  0.0535  0.1268
19765W        W62703   2.343  33.652  29.944 -0.0263  0.1952 -0.0662
19766W        W62704   0.911  32.970  27.794  0.0335 -0.3330 -0.0727
19767W        W62705   2.440  33.733  30.577 -0.2725  0.1298  0.0659
19768W        W62706   3.898  33.152  29.510  0.1755  0.1565 -0.0118
19769W        W62707   1.438   0.785  29.604  0.0020 -0.3409 -0.0709
19770W        W62708   3.123  34.624  27.560  0.1695  0.0255  0.0941
19771W        W62709   0.858  32.597  30.560 -0.1748  0.1806 -0.0969
19772W        W62710   1.799  33.778  29.262 -0.2208 -0.0575  0.1843
19773W        W62711   4.217  32.252  30.440  0.0815  0.0294 -0.0150
19774W        W62712   2.226  32.929  30.947 -0.0652  0.2211  0.0814
19775W        W62713   2.055   0.028  29.292  0.1518 -0.2684  0.0827
19776W        W62714   0.253  32.566   0.055 -0.0020  0.1693  0.2027
19777W        W62715   3.751  33.473  27.961 -0.1214  0.0924 -0.4225
19778W        W62716   4.504  33.638  31.981 -0.0113 -0.1071 -0.0053
19779W        W62717   4.904  34.427  28.414  0.0201 -0.1934  0.2907
19780W        W62718   2.562  33.886  27.140  0.0896 -0.3751 -0.2240
19781W        W62719   0.872   0.105  29.251 -0.0773  0.2401  0.0040
19782W        W62720   2.133   0.294  31.108  0.2231  0.0625 -0.0368
19783W        W62721   0.240  32.641  25.906  0.2696 -0.2182 -0.2752
19784W        W62722   3.006  33.709  31.515 -0.0258 -0.0578 -0.2272
19785W        W62723   4.039  33.071  27.649 -0.1974 -0.0231  0.3701
19786W        W62724   0.733  34.084  28.938 -0.0779 -0.1499 -0.1994
19787W        W62725   0.760  34.230  26.956 -0.0408 -0.2785 -0.2069
19788W        W62726   1.400  34.533  26.562 -0.2098  0.1756  0.1961
19789W        W62727   2.963  34.027  28.171  0.2978 -0.1982  0.0270
19790W        W62728   4.860  33.312  31.859 -0.0965 -0.3928 -0.1380
19791W        W62729   2.666  33.596  31.075 -0.1112  0.0736  0.0194
19792W        W62730   2.759  34.467  30.516  0.0780  0.3638  0.1587
19793W        W62731   4.136  34.589  27.728 -0.1584  0.4195 -0.0370
19794W        W62732   2.517  34.483  29.400 -0.0700  0.1957 -0.1979
19795W        W62733   3.395  33.542   0.043 -0.2146 -0.2268  0.3606
19796W        W62734   0.892   0.212  28.721  0.1571  0.1407 -0.2839
19797W        W62735   1.218  33.797  29.227 -0.4265  0.0063 -0.3627
19798W        W62736   1.857  33.623  29.725 -0.0475 -0.1857 -0.1068
19799W        W62737   1.425   0.156  28.591  0.5554  0.1515  0.0788
19800W        W62738   3.522  33.003  25.845 -0.0560  0.2420  0.3528
19801W        W62739   3.997  33.126  28.909  0.2105  0.1928 -0.0707
19802W        W62740   4.518  33.075  27.893  0.0290  0.0884 -0.1804
19803W        W62741   2.577   1.049  30.194 -0.0791  0.1802  0.1396
19804W        W62742   1.993  33.967  27.141  0.2034  0.1875 -0.0677
19805W        W62743   1.945  34.076  29.941 -0.0339  0.0246  0.3968
19806W        W62744   3.521  32.136   1.083  0.1552  0.2661  0.3498
19807W        W62745  33.719  33.784  27.830  0.1767  0.1405 -0.3580
19808W        W62746   1.914  33.958  28.609  0.2738  0.0253  0.0790
19809W        W62747   6.461  32.899  30.591  0.1833 -0.1132 -0.0508
19810W        W62748   2.598  34.127  29.772  0.2704 -0.2121 -0.0482
19811W        W62749   0.130  33.107  28.151  0.0954 -0.1501 -0.1535
19812W        W62750   4.529  33.659  27.999  0.2286  0.0788 -0.0424
19813W        W62751   0.770  33.836  30.106 -0.0778  0.0592 -0.2024
19814W        W62752   4.805  32.438   0.038 -0.1704 -0.2221  0.1637
19815W        W62753   2.980  34.235  30.093  0.2089  0.1480 -0.3036
19816W        W62754   3.799  34.237  28.048 -0.3866 -0.0158 -0.0354
19817W        W62755   2.699   1.094  29.016 -0.0628  0.4051 -0.0043
19818W        W62756   1.246  33.340  26.587  0.2981  0.0775 -0.1239
19819W        W62757   5.148  32.462  31.551 -0.0795 -0.0220  0.0506
19820W        W62758   3.122  34.123  27.049  0.2433  0.2990  0.0416
19821W        W62759   1.056  33.551  28.740  0.0800 -0.2201 -0.0182
19822W        W62760   1.588  34.694  27.593 -0.0069  0.3085  0.0121
19823W        W62761   1.074  34.588  27.719 -0.0892 -0.1588  0.0734
19824W        W62762   2.860   0.474  30.057 -0.1336  0.0309 -0.3886
19825W        W62763   0.184  34.614  28.230  0.2994  0.0541  0.0650
19826W        W62764   4.561  33.254  28.868  0.0862  0.0531  0.0207
19827W        W62765   4.068   0.910  28.313  0.1703 -0.0368  0.3029
19828W        W62766   1.057  34.456  28.722  0.1191  0.1142  0.3874
19829W        W62767   1.516  32.247  28.731  0.0375  0.2902  0.0876
19830W        W62768   3.030   0.755  29.061  0.1261 -0.0024  0.2626
19831W        W62769   5.313  32.795  29.478 -0.3697 -0.4762 -0.1110
19832W        W62770   3.047  32.585   0.155  0.2932  0.1665  0.2042
19833W        W62771   4.128  32.577  31.376  0.0137  0.0105  0.0074
19834W        W62772   2.772  33.667  30.194 -0.0099 -0.1182 -0.1626
19835W        W62773   0.896  32.571  27.498 -0.1583 -0.2112  0.0981
19836W        W62774   4.514  33.502  29.386  0.4140 -0.0598  0.1463
19837W        W62775   4.492  32.200  29.464 -0.0433 -0.0842 -0.0054
19838W        W62776   2.040   0.620  29.529 -0.0662  0.2401 -0.0176
19839W        W62777   1.564   0.150  26.942  0.0892 -0.1659  0.1063
19840W        W62778   3.052  33.075   0.369 -0.0257  0.0245 -0.0766
19841W        W62779   0.301  34.003  30.442  0.4032  0.2891  0.4327
19842W        W62780   1.115   0.449  29.534  0.2359 -0.0606 -0.0811
19843W        W62781   1.489  33.342  29.359 -0.1516  0.0210 -0.1990
19844W        W62782   1.986  33.578  30.262  0.1876 -0.0489 -0.0932
19845W        W62783   0.456  32.726  28.188  0.1990  0.0532  0.2726
19846W        W62784   3.027  33.231  28.886  0.1570  0.3496  0.0343
19847W        W62785   2.314  34.343  30.669 -0.0022  0.1864 -0.1332
19848W        W62786   1.761  33.158  31.475  0.2728  0.0161 -0.1959
19849W        W62787   2.013  32.708  26.563  0.3138  0.0372 -0.1018
19850W        W62788   3.348   0.154  29.767 -0.0569  0.2331 -0.0557
19851W        W62789  34.559  33.663  30.910 -0.2637 -0.3872  0.0299
19852W        W62790   4.391  33.680  30.099 -0.1382 -0.1890 -0.0656
19853W        W62791   1.759  34.243  27.489 -0.4784  0.2553 -0.3352
19854W        W62792   1.169  32.901   0.395  0.2128  0.0607  0.0584
19855W        W62793   2.114  34.325  31.206  0.0231  0.1595  0.0357
19856W        W62794   3.802  33.509  28.511 -0.3030 -0.0130  0.1424
19857W        W62795   1.620  33.191  30.342 -0.2129 -0.2999 -0.0473
19858W        W62796   2.033  33.661  27.626  0.3321 -0.1882  0.1901
19859W        W62797   3.073  32.523  30.910  0.1476  0.3497 -0.0504
19860W        W62798   1.537  33.613  28.758 -0.2332 -0.0548  0.2776
19861W        W62799   3.527   1.155  26.963  0.1849  0.0837 -0.3131
19862W        W62800   1.456  34.288  27.916 -0.2458  0.0971 -0.3045
19863W        W62801   2.621  34.064  29.128  0.0140 -0.0716 -0.1028
19864W        W62802   1.911   0.758  27.621  0.0810 -0.1294  0.3869
19865W        W62803   3.930  34.100  28.903 -0.1434  0.1390  0.2504
19866W        W62804   1.675  33.641  30.633 -0.0324 -0.2614  0.1950
19867W        W62805   1.593  33.201  27.637  0.1032 -0.0862  0.2108
19868W        W62806   4.067  33.557  31.832 -0.2494  0.3298  0.0781
19869W        W62807   2.681   0.517  31.005 -0.0314 -0.1723  0.4006
19870W        W62808  34.128  33.948  31.888 -0.1904  0.1980  0.0250
19871W        W62809   5.043  33.881   0.009  0.1030  0.0921  0.1617
19872W        W62810   3.501  33.306  30.054 -0.2107  0.0160  0.1806
19873W        W62811   4.384  33.533   0.874 -0.0978 -0.2021  0.0573
19874W        W62812   2.956  32.298  31.319 -0.0985  0.1006 -0.0637
19875W        W62813   4.694  33.863   0.463  0.0003  0.1254  0.1027
19876W        W62814   0.303  33.826  31.427  0.0906  0.0476  0.0298
19877W        W62815   1.771  34.090  30.961 -0.1502  0.3098 -0.1829
19878W        W62816   3.165  33.240  31.683 -0.1138  0.4864 -0.0667
19879W        W62817   4.015  32.770  31.982  0.0140 -0.0043 -0.0311
19880W        W62818   4.702  33.379   0.420  0.1536  0.1208 -0.1343
19881W        W62819   3.284  32.400  31.716 -0.2004 -0.0442  0.0700
19882W        W62820   3.679  33.191  31.710  0.1657 -0.0816 -0.0681
19883W        W62821   2.566  33.278  30.511  0.1584 -0.0053 -0.3268
19884W        W62822   1.455   0.042  31.761  0.0419 -0.0004  0.0519
19885W        W62823   1.715  33.742   0.227 -0.1283  0.3069 -0.3198
19886W        W62824   3.397  32.548   0.632 -0.2566  0.1551  0.3855
19887W        W62825   0.460  33.856  30.918 -0.1454  0.1012 -0.1101
19888W        W62826   1.450   0.200  31.010 -0.3407  0.0162  0.1558
19889W        W62827   4.860  33.680  30.959 -0.1194  0.0384 -0.0314
19890W        W62828   4.053   0.257   0.060  0.2350 -0.3199 -0.1554
19891W        W62829   1.900  33.402  31.886 -0.2904 -0.0835  0.0339
19892W        W62830   0.494  34.681  29.851  0.3900  0.1605  0.0068
19893W        W62831   3.239  33.743  31.033 -0.1759  0.1874 -0.3960
19894W        W62832   2.520  33.208   0.242 -0.2714  0.0977 -0.2054
19895W        W62833   5.236  32.827  31.902 -0.2149 -0.3029 -0.0023
19896W        W62834   2.235   0.471  30.123 -0.2136 -0.0126 -0.0159
19897W        W62835   1.901  34.092  30.449  0.0901 -0.0179 -0.0693
19898W        W62836   2.903  32.916  30.664 -0.0387 -0.1917 -0.0205
19899W        W62837   0.563   0.162  30.359 -0.2332 -0.2588 -0.0165
19900W        W62838   0.045  32.451  31.536 -0.0185 -0.0010 -0.1897
19901W        W62839   3.702   0.588  31.835 -0.1322 -0.2379  0.1183
19902W        W62840   5.439   1.825  20.143 -0.1612  0.2928  0.4092
19903W        W62841   4.964   1.032  16.892  0.1128 -0.0296  0.1032
19904W        W62842   5.773   1.191  16.020  0.2592  0.3643 -0.1748
19905W        W62843   7.016   1.354  17.742  0.2541 -0.0191 -0.1027
19906W        W62844   3.479   1.113  16.899 -0.1437 -0.1381  0.3916
19907W        W62845   5.460   2.809  17.288 -0.2123  0.0331  0.0666
19908W        W62846   4.081  33.951  19.938 -0.1862  0.1642 -0.1565
19909W        W62847   4.202   3.749  19.137 -0.2848 -0.0982 -0.2500
19910W        W62848   5.732   3.186  16.738 -0.1215 -0.2419  0.1446
19911W        W62849   5.267   2.244  16.427 -0.1013 -0.0084  0.0584
19912W        W62850   3.973  34.504  19.883  0.1665  0.1871 -0.0897
19913W        W62851   4.261   1.233  19.839  0.2825  0.1004  0.2234
19914W        W62852   5.160   0.081  15.874 -0.2745  0.1259 -0.0470
19915W        W62853   3.349   0.619  18.610 -0.0564  0.0302  0.0104
19916W        W62854   6.733   2.890  18.203  0.4452 -0.1729  0.1735
19917W        W62855   3.926   1.308  17.071 -0.3701 -0.0192 -0.0394
19918W        W62856   5.170   2.200  17.385  0.0767  0.2490  0.1168
19919W        W62857   5.979   0.897  18.525  0.3415  0.1893  0.1954
19920W        W62858   4.891   3.419  18.821  0.2674  0.1775  0.0295
19921W        W62859   4.704  34.628  19.106  0.0391  0.1438  0.3546
19922W        W62860   4.560   1.066  17.841 -0.2663 -0.0886  0.2408
19923W        W62861   4.496   2.853  17.095  0.0769 -0.0162  0.3366
19924W        W62862   4.279   2.680  16.188 -0.0722  0.0389  0.0151
19925W        W62863   3.253  34.308  19.105  0.1662 -0.0718 -0.0148
19926W        W62864   5.250   2.326  18.978  0.3143 -0.1646  0.0741
19927W        W62865   5.348   1.087  18.840  0.3252 -0.3183 -0.0510
19928W        W62866   6.663   2.587  18.671  0.0273 -0.0181  0.0817
19929W        W62867   5.448   2.614  18.603 -0.0406 -0.2465 -0.2014
19930W        W62868   6.070   2.788  17.620  0.1152  0.1317  0.0944
19931W        W62869   6.602   1.117  21.136  0.0358 -0.0058  0.1944
19932W        W62870   4.175   2.226  18.916 -0.2847  0.3983  0.1967
19933W        W62871   4.651   2.988  18.090  0.4655  0.1282  0.1823
19934W        W62872   5.013   2.692  18.327 -0.2882 -0.1363 -0.2937
19935W        W62873   6.495   2.521  17.274  0.2870  0.0417  0.3745
19936W        W62874   6.149   3.161  19.718  0.1008 -0.0345  0.0231
19937W        W62875   3.819   2.296  20.099 -0.2710 -0.3357 -0.0037
19938W        W62876   2.535   1.585  16.048 -0.5324 -0.2658  0.0883
19939W        W62877   4.623   4.235  19.150  0.1750  0.0827  0.2275
19940W        W62878   3.745   4.717  18.407  0.0285  0.1125 -0.1481
19941W        W62879   6.052   2.658  19.115 -0.1924 -0.1428 -0.0729
19942W        W62880   7.229   1.965  17.333  0.1602  0.0250 -0.0966
19943W        W62881   3.804   2.713  16.385  0.0074  0.1194  0.2428
19944W        W62882   5.788   2.763  19.704  0.0380  0.1313 -0.0695
19945W        W62883   5.178   3.110  19.631  0.0144  0.1095 -0.1862
19946W        W62884   2.835   1.606  18.675 -0.4664 -0.1878 -0.4686
19947W        W62885   8.784   1.512  21.699  0.1477 -0.1667  0.2878
19948W        W62886   3.551   3.443  17.284 -0.2249 -0.3324  0.1310
19949W        W62887   7.211  33.735  18.140 -0.1041 -0.0659 -0.2129
19950W        W62888   5.243   1.512  16.748 -0.1195  0.2308 -0.1306
19951W        W62889   6.135   0.913  16.299  0.0865  0.1679  0.1014
19952W        W62890   5.074   0.212  18.405 -0.1154 -0.3670 -0.0968
19953W        W62891   3.890   2.764  18.826  0.2650  0.1616  0.1528
19954W        W62892   5.383   0.437  18.125 -0.1549 -0.1991 -0.0999
19955W        W62893   7.055   1.847  20.519 -0.0082 -0.2090  0.2603
19956W        W62894   6.721   0.479  18.186 -0.0889 -0.0869  0.0536
19957W        W62895   7.493   1.392  20.240  0.0689  0.2607 -0.0589
19958W        W62896   4.058   3.074  19.360  0.1999 -0.2049 -0.0545
19959W        W62897   3.654   2.161  18.803 -0.3294 -0.0660  0.2294
19960W        W62898   6.478   2.925  15.502 -0.1845 -0.0966 -0.1950
19961W        W62899   8.140   2.903  18.125  0.1841 -0.2248  0.1600
19962W        W62900   5.016   1.419  18.519 -0.0787 -0.0351 -0.1971
19963W        W62901   5.319   1.077  18.342  0.1759  0.3643 -0.0272
19964W        W62902   3.281   2.161  19.197 -0.0810 -0.0205 -0.0841
19965W        W62903   3.258   1.128  19.608  0.0648 -0.1418 -0.0174
19966W        W62904   4.197  34.686  16.028 -0.0085 -0.0414 -0.0136
19967W        W62905   6.794   0.549  20.973  0.2579 -0.0010 -0.1018
19968W        W62906   4.429   3.294  19.621 -0.4568 -0.1364 -0.0336
19969W        W62907   7.579   1.741  18.967  0.1870 -0.0196 -0.1466
19970W        W62908   4.828   2.028  17.702 -0.2351  0.4040 -0.0016
19971W        W62909   7.016   2.734  19.407  0.1772 -0.0745  0.0532
19972W        W62910   6.253   2.536  16.034 -0.0748  0.0271  0.4306
19973W        W62911   6.041   0.125  16.893 -0.0790  0.0131  0.0021
19974W        W62912   6.073  33.912  18.478  0.2978 -0.3152  0.0378
19975W        W62913   4.850   2.433  16.743 -0.0538  0.0712  0.1031
19976W        W62914   4.880   1.776  17.256  0.1360  0.0304  0.1176
19977W        W62915   7.075   3.598  18.804  0.2097  0.3007  0.0882
19978W        W62916   6.104   1.843  16.566  0.5118  0.0307 -0.1946
19979W        W62917   6.277   2.542  18.187  0.2378 -0.0502 -0.3212
19980W        W62918   4.668   1.160  18.314  0.2809 -0.2144  0.1110
19981W        W62919   5.347   4.275  19.894  0.0585 -0.2128  0.1871
19982W        W62920   3.395   2.769  16.729 -0.1919  0.0082 -0.1703
19983W        W62921   2.650   1.468  18.058  0.2262 -0.3302  0.0684
19984W        W62922   4.024   1.913  17.074  0.0478  0.4349 -0.0737
19985W        W62923   4.227   0.806  19.325 -0.3077  0.2906  0.1009
19986W        W62924   5.043   1.743  19.788  0.1465 -0.3267 -0.0471
19987W        W62925   6.945   0.389  16.596  0.1066 -0.1374 -0.3019
19988W        W62926   3.996   0.274  18.093 -0.1763 -0.0242 -0.1035
19989W        W62927   6.140  33.780  17.070 -0.5533  0.0606 -0.0281
19990W        W62928   4.683   2.922  17.573 -0.0203  0.1813  0.1638
19991W        W62929   5.895   3.106  17.252 -0.2695 -0.1090 -0.0189
19992W        W62930   6.608   1.178  16.858  0.0413 -0.0980  0.2476
19993W        W62931   5.880   2.700  16.917 -0.1358  0.3133  0.0852
19994W        W62932   3.220   0.949  18.240 -0.1177  0.5069  0.0707
19995W        W62933   4.918   0.181  17.382  0.1690 -0.1954 -0.2281
19996W        W62934   4.173   0.344  19.076 -0.0954 -0.1319  0.1971
19997W        W62935   4.228   1.389  17.967  0.1548  0.0201 -0.0603
19998W        W62936   7.093   1.181  20.494 -0.2880  0.4100  0.0302
19999W        W62937   3.066  34.328  16.944 -0.1625 -0.1133  0.2790
20000W        W62938   5.919   1.727  18.154  0.1558  0.1255 -0.2110
20001W        W62939   5.553   1.924  16.663  0.0300  0.0963 -0.0141
20002W        W62940   4.392   2.564  18.336 -0.2690 -0.4855  0.0628
20003W        W62941   6.559   0.033  20.953 -0.0012 -0.0085 -0.0085
20004W        W62942   6.151   4.086  16.785 -0.0692  0.1473 -0.0243
20005W        W62943   6.782   3.984  18.887  0.1781 -0.1058  0.1594
20006W        W62944   6.250   4.293  17.214 -0.1612  0.0279 -0.0446
20007W        W62945   3.719  33.058  20.087 -0.3199 -0.0605  0.2680
20008W        W62946   4.403   1.133  16.415 -0.0761  0.1331 -0.0781
20009W        W62947   5.189   3.810  17.638 -0.1192 -0.2770 -0.4691
20010W        W62948   4.722   4.031  17.767 -0.1075 -0.5662  0.1122
20011W        W62949   5.542   1.160  17.515  0.2398  0.1175  0.0048
20012W        W62950   8.037   3.722  17.120  0.2253 -0.2911  0.0627
20013W        W62951   6.664   0.429  17.414  0.0605  0.0479 -0.3631
20014W        W62952   4.655   2.186  19.163 -0.0507 -0.2430  0.0036
20015W        W62953   6.372   0.708  19.755  0.1155 -0.0279  0.0326
20016W        W62954   6.317   2.968  18.545 -0.1275 -0.0654  0.0013
20017W        W62955   5.542   1.791  19.635  0.0620  0.2380  0.3155
20018W        W62956   4.199   0.148  16.843 -0.0011 -0.0113 -0.3766
20019W        W62957   7.270   3.132  17.058 -0.1571  0.2576 -0.6803
20020W        W62958   4.877   3.388  17.195  0.2119  0.0469  0.2230
20021W        W62959   3.397   2.277  16.418 -0.0648 -0.0258 -0.1361
20022W        W62960   5.048   2.641  17.528 -0.0576 -0.2258  0.0607
20023W        W62961   5.900   2.186  19.847 -0.1979  0.1220  0.1289
20024W        W62962   3.758   2.009  19.642 -0.0776  0.1098 -0.2888
20025W        W62963   6.749   0.578  20.111  0.1353 -0.1974  0.0799
20026W        W62964   3.981   1.631  17.555  0.1330 -0.1518 -0.1071
20027W        W62965   4.558   1.610  18.232 -0.4070  0.4627 -0.3441
20028W        W62966   6.169   0.868  17.659 -0.1995  0.2168  0.3096
20029W        W62967   9.250  34.088  17.370 -0.0272  0.1008  0.0365
20030W        W62968   5.081   2.110  19.382 -0.1308 -0.0743  0.1912
20031W        W62969   7.013   1.912  18.270  0.0508  0.1955  0.1328
20032W        W62970   6.141   0.450  18.218 -0.3188  0.2041 -0.2948
20033W        W62971   5.445   0.980  17.002 -0.1023  0.0203  0.1328
20034W        W62972   4.043   2.749  20.299  0.1199  0.0212  0.1220
20035W        W62973   6.865   1.585  17.319  0.0365  0.2876 -0.0821
20036W        W62974   6.023   3.152  19.176 -0.3916  0.2831 -0.3228
20037W        W62975   4.819   0.461  15.810  0.1141  0.1858  0.2047
20038W        W62976   7.218   2.490  17.039 -0.0134 -0.1067 -0.1150
20039W        W62977   3.665   1.601  18.667 -0.3016  0.1815  0.1330
20040W        W62978   6.473   2.972  18.993 -0.1008 -0.1249 -0.1248
20041W        W62979   5.969   3.647  18.631  0.0096 -0.2777 -0.0524
20042W        W62980   5.300   0.921  17.843 -0.0754  0.2360  0.3418
20043W        W62981   6.581   1.983  17.352 -0.0086 -0.1373 -0.0442
20044W        W62982   4.661   1.133  17.361  0.0835  0.3224  0.0408
20045W        W62983   3.563   3.949  16.557 -0.1496  0.3633  0.1008
20046W        W62984   6.869   1.439  20.146  0.0935 -0.0259  0.0851
20047W        W62985   5.342  34.644  17.621  0.1872  0.0366  0.0421
20048W        W62986   4.073  34.448  18.771  0.0345  0.1594 -0.2070
20049W        W62987   8.085   1.525  20.403 -0.0502  0.3672 -0.3265
20050W        W62988   6.355   0.608  16.824  0.2435  0.0455  0.3841
20051W        W62989   5.851   1.568  20.067 -0.1246  0.1068 -0.2053
20052W        W62990   4.560   1.289  15.952 -0.0557  0.2609 -0.2162
20053W        W62991   5.738   0.192  19.923  0.0455 -0.2243  0.1694
20054W        W62992   3.482   0.701  19.987  0.0501 -0.2517  0.0694
20055W        W62993   3.135   3.425  19.370  0.1903 -0.0841  0.1656
20056W        W62994   6.571   1.958  20.278  0.2268  0.2531 -0.1838
20057W        W62995   6.347   1.724  17.673 -0.1647  0.0702  0.2890
20058W        W62996   5.816  34.584  20.469 -0.0420  0.2963 -0.3509
20059W        W62997   5.713   0.987  16.588 -0.0174 -0.2246 -0.4101
20060W        W62998   3.407   3.463  16.684 -0.0949  0.0185 -0.2498
20061W        W62999   6.086   2.415  15.520  0.1527  0.1027 -0.2644
20062W        W63000   3.706   1.132  17.892 -0.1799 -0.2151 -0.0191
20063W        W63001   5.229   3.950  18.511 -0.2873  0.0076 -0.0118
20064W        W63002   6.741   3.488  16.206  0.0833  0.0969 -0.1301
20065W        W63003   6.965   2.231  20.086  0.2624  0.0576 -0.0990
20066W        W63004   4.628   2.876  16.572 -0.3235  0.3329 -0.1065
20067W        W63005   7.770   1.127  19.854 -0.2350  0.1604  0.1109
20068W        W63006   3.933   3.310  18.821 -0.2482  0.0705  0.1913
20069W        W63007   5.810   1.660  17.427  0.1676 -0.1782 -0.3297
20070W        W63008   4.541   0.346  18.068 -0.1462  0.1955 -0.0957
20071W        W63009   6.971   0.766  17.730  0.0298 -0.2366  0.0970
20072W        W63010   6.082   1.774  17.062  0.0468  0.1031 -0.0388
20073W        W63011   4.301  34.008  18.267  0.0742  0.5432  0.1147
20074W        W63012   5.707   0.583  16.879  0.0590 -0.0939 -0.1030
20075W        W63013   3.775   2.282  19.260 -0.4378  0.3320  0.0846
20076W        W63014   6.248  34.694  18.637  0.1505  0.3666 -0.0836
20077W        W63015   5.659   0.161  16.227  0.2757  0.1197 -0.0977
20078W        W63016   5.633   3.262  19.487 -0.2254  0.1621  0.1372
20079W        W63017   4.477   1.651  20.424 -0.1270 -0.1530  0.0006
20080W        W63018   4.464  34.298  16.655  0.2443 -0.1886 -0.0239
20081W        W63019   7.278   1.846  20.046 -0.0363 -0.1237 -0.0328
20082W        W63020   4.585   0.633  17.211 -0.0792  0.1342  0.1052
20083W        W63021   4.670   2.528  17.885 -0.0842  0.0114  0.2248
20084W        W63022   6.380   3.494  18.892 -0.4003 -0.0988  0.1940
20085W        W63023   4.176   2.720  16.756  0.0021  0.2100 -0.3512
20086W        W63024   4.709   2.141  18.204  0.2931  0.2480  0.2294
20087W        W63025   4.959   0.154  19.475 -0.1336 -0.0162  0.1416
20088W        W63026   6.028   1.578  19.541  0.1602  0.1478 -0.0546
20089W        W63027   5.237   2.201  18.368 -0.4094 -0.0657  0.1816
20090W        W63028   5.581   1.411  17.991  0.3249  0.2263  0.0464
20091W        W63029   5.758   1.362  18.637 -0.3104 -0.2225  0.0473
20092W        W63030   5.660   0.764  19.093 -0.0321  0.1199 -0.1109
20093W        W63031   5.114   0.589  19.065  0.2526 -0.1944 -0.0297
20094W        W63032   4.938   3.756  20.288  0.2034 -0.2053 -0.0006
20095W        W63033   5.240  33.728  17.641 -0.0778 -0.1081 -0.0618
20096W        W63034   7.784   3.696  17.750 -0.3420 -0.0002 -0.0041
20097W        W63035   6.815   3.299  19.114 -0.1097 -0.4623 -0.1960
20098W        W63036   5.849   2.186  16.973 -0.1939  0.3088  0.1128
20099W        W63037   4.633   2.983  18.553  0.2010 -0.5022 -0.1998
20100W        W63038   4.313   2.338  17.017 -0.2564  0.2833 -0.0975
20101W        W63039   6.443  34.334  17.748 -0.0755 -0.0257  0.0892
20102W        W63040   4.005   1.534  19.472  0.0507  0.1322 -0.1152
20103W        W63041   4.879   2.475  16.174  0.0240  0.0281  0.1261
20104W        W63042   4.023   3.454  18.312 -0.0251 -0.2480  0.1551
20105W        W63043   5.592   0.694  16.161 -0.0278 -0.3584  0.0863
20106W        W63044   5.339   0.995  15.770  0.0171  0.3123 -0.1051
20107W        W63045   6.282   1.357  17.241 -0.1651  0.2247  0.3610
20108W        W63046   6.574   1.060  20.055 -0.0723 -0.0697  0.0040
20109W        W63047   5.700   2.118  16.139  0.1707  0.2293  0.0888
20110W        W63048   6.932   0.189  20.606  0.0157  0.0217 -0.0198
20111W        W63049   2.960  34.163  19.537  0.2935  0.1447  0.0629
20112W        W63050   6.108   2.175  17.409 -0.1141  0.1290  0.1856
20113W        W63051   3.133   1.588  19.342 -0.1984 -0.2013  0.1012
20114W        W63052   5.628   3.050  20.052  0.2092 -0.0362  0.1999
20115W        W63053   3.087   1.376  20.576  0.0242  0.3228 -0.0575
20116W        W63054   5.343   0.452  17.592  0.1934  0.1087  0.0298
20117W        W63055   4.131  34.521  15.538  0.2055 -0.0411 -0.1549
20118W        W63056   5.311   1.368  20.192  0.2795  0.0485  0.0448
20119W        W63057   7.985   2.183  18.141 -0.3886 -0.3521  0.2898
20120W        W63058   5.567   3.031  18.217 -0.0302  0.1849 -0.1663
20121W        W63059   7.117   2.660  18.398  0.0354  0.0451 -0.3177
20122W        W63060   4.806   1.702  19.209 -0.2770  0.0376 -0.1818
20123W        W63061   6.541   1.678  16.757 -0.0053 -0.1037  0.1747
20124W        W63062   4.732   2.375  17.234 -0.0738 -0.0297  0.2100
20125W        W63063   4.421   1.541  17.215  0.0014  0.1178  0.2516
20126W        W63064   6.291  34.369  20.070  0.1406 -0.1981 -0.0812
20127W        W63065   5.943   2.653  18.537  0.2682  0.0847  0.0097
20128W        W63066   5.866   0.385  17.752  0.2594  0.2545  0.1418
20129W        W63067   5.950   0.463  19.432 -0.2795 -0.1970 -0.0980
20130W        W63068   6.723   1.429  20.634  0.2489  0.1582 -0.1818
20131W        W63069   5.138  34.473  21.183  0.1048  0.1864  0.2677
20132W        W63070   2.822  33.841  19.164  0.1629 -0.2021 -0.0201
20133W        W63071   6.992   2.934  17.392  0.2846 -0.1341 -0.1708
20134W        W63072   6.542   1.838  16.251  0.0675  0.0619  0.0460
20135W        W63073   7.880   0.974  20.405  0.1705  0.1167  0.4019
20136W        W63074   5.705   1.384  19.163  0.0639  0.0974  0.0131
20137W        W63075   6.004   0.449  16.436  0.3715 -0.0436 -0.0766
20138W        W63076   3.618   2.646  18.342  0.2975  0.1035 -0.0156
20139W        W63077   7.029   1.834  19.160  0.1475 -0.0046  0.3269
20140W        W63078   5.264   0.702  16.628  0.1707 -0.1419 -0.1535
20141W        W63079   7.652   0.507  20.374 -0.2564 -0.0767  0.3465
20142W        W63080   5.577   2.609  16.120  0.1175 -0.1722  0.3489
20143W        W63081   5.202   2.199  19.867 -0.2312 -0.4541 -0.3174
20144W        W63082   6.229  34.659  17.407 -0.4446  0.0211  0.1101
20145W        W63083   4.440   1.044  16.937  0.1743  0.3753  0.0837
20146W        W63084   2.871   3.693  20.716  0.1491 -0.1378 -0.0833
20147W        W63085   5.148   2.384  17.913 -0.0960 -0.0959 -0.2230
20148W        W63086   5.063   1.972  16.842 -0.3391 -0.0292  0.2187
20149W        W63087   5.662   2.577  17.937 -0.4329  0.3309 -0.2045
20150W        W63088   7.997   2.409  20.577 -0.0129  0.0857 -0.1696
20151W        W63089   3.610  34.585  18.200 -0.0668  0.0850  0.4890
20152W        W63090   8.288   3.340  19.044 -0.0079 -0.0005  0.2594
20153W        W63091   3.487   2.968  17.173  0.2475 -0.3828  0.0008
20154W        W63092   6.069  34.091  17.484 -0.2273  0.0486 -0.0597
20155W        W63093   5.026   2.889  18.920 -0.2665 -0.0997  0.4071
20156W        W63094   3.923   0.955  20.188 -0.0462  0.0764  0.0504
20157W        W63095   5.455   1.793  18.947  0.1696  0.3201  0.1262
20158W        W63096   5.530   0.664  18.552 -0.2807  0.0646 -0.1165
20159W        W63097   5.010   1.909  18.709  0.3575 -0.0644  0.1669
20160W        W63098   5.614   2.208  19.367  0.1446  0.0885  0.2829
20161W        W63099   8.074   2.086  20.027 -0.0713 -0.0849  0.2315
20162W        W63100   6.072   2.743  20.605  0.0564  0.0269  0.1501
20163W        W63101   4.506   1.956  18.672 -0.0672  0.3093  0.4748
20164W        W63102   5.573   3.384  20.560 -0.0131 -0.0698  0.0507
20165W        W63103   8.387   1.779  17.983  0.2530  0.1474  0.1299
20166W        W63104   6.009   0.971  17.106 -0.1823  0.0706 -0.0044
20167W        W63105   1.793   0.824  18.884 -0.3580  0.2012  0.0906
20168W        W63106   5.455  34.213  20.496  0.0757  0.0888  0.0062
20169W        W63107   6.377   3.956  19.177  0.2465  0.0452 -0.1425
20170W        W63108   3.045  34.691  17.999  0.0174 -0.0313 -0.0366
20171W        W63109   5.899   3.432  15.742 -0.2319  0.1446 -0.1036
20172W        W63110   3.116   2.620  22.052  0.0143  0.0074  0.1219
20173W        W63111   3.562   3.122  18.580 -0.1938  0.2684  0.0492
20174W        W63112   4.655   3.894  17.302 -0.0002 -0.2643  0.2399
20175W        W63113   7.766   2.504  16.679 -0.0331  0.2686 -0.3058
20176W        W63114   6.315   1.763  18.676 -0.2508  0.0598 -0.1605
20177W        W63115   6.211   2.324  19.479 -0.0795 -0.2039  0.2749
20178W        W63116   5.119   0.436  16.236  0.0271  0.0656  0.2251
20179W        W63117   4.671   1.570  17.710  0.0838 -0.0051 -0.1284
20180W        W63118   3.008   2.531  15.486 -0.1163  0.0461 -0.0488
20181W        W63119   6.043   2.178  17.934  0.0277  0.2021 -0.0187
20182W        W63120   3.826   3.798  18.735 -0.3968  0.1822  0.2258
20183W        W63121   8.339   0.915  20.566  0.0167 -0.1510  0.3779
20184W        W63122   7.187  34.122  15.649  0.2470 -0.0174  0.2981
20185W        W63123   6.508   1.325  19.527  0.2829  0.0657  0.2508
20186W        W63124   8.040   0.104  17.335  0.0924 -0.0128 -0.6846
20187W        W63125   6.844   2.044  21.210  0.0008  0.1740 -0.0371
20188W        W63126   5.281   1.656  17.627 -0.0187 -0.0552  0.0078
20189W        W63127   3.400   0.804  16.531 -0.0569  0.3416 -0.1504
20190W        W63128   3.557   1.755  19.181 -0.0778  0.0720  0.0143
20191W        W63129   6.630  34.379  19.670 -0.2524 -0.2429  0.1715
20192W        W63130   4.419   3.233  19.035  0.2191  0.3101  0.1233
20193W        W63131   7.640   2.693  17.110  0.1632  0.5492 -0.1277
20194W        W63132   2.951   0.126  16.399  0.4285  0.2042 -0.0987
20195W        W63133   5.997   1.336  17.748  0.0341  0.2078 -0.4168
20196W        W63134   6.728   0.091  18.532 -0.4903  0.0202 -0.2811
20197W        W63135   5.713   2.412  16.554 -0.0075 -0.3004  0.0765
20198W        W63136   5.670   1.311  19.674 -0.2796  0.0094  0.2002
20199W        W63137   6.040   1.946  19.151  0.0286  0.1835 -0.1558
20200W        W63138   5.663   3.035  18.731 -0.1810 -0.3427  0.1133
20201W        W63139   5.042   3.889  19.006 -0.2675 -0.0065  0.2706
20202W        W63140   3.343   0.366  16.130 -0.6140  0.1487  0.3443
20203W        W63141   7.300  34.624  17.500 -0.0745 -0.6196  0.0289
20204W        W63142   2.761   1.156  18.462  0.2398  0.2395 -0.1506
20205W        W63143   6.481   0.453  19.155  0.0468  0.0332 -0.3208
20206W        W63144   6.196   1.350  16.474  0.2501  0.3089  0.1484
20207W        W63145   7.164   2.151  17.854 -0.1695 -0.1978  0.1560
20208W        W63146   5.246   1.523  19.327 -0.2200  0.3397  0.1747
20209W        W63147   4.144   0.591  19.754  0.2036  0.0405 -0.1071
20210W        W63148   6.541   0.048  16.936  0.0455  0.0134  0.0190
20211W        W63149   6.370   3.864  18.396  0.1496  0.0712  0.1953
20212W        W63150   5.448   0.461  15.755  0.1291 -0.0748 -0.1006
20213W        W63151   5.222   2.724  19.991 -0.2154 -0.0499 -0.0490
20214W        W63152   3.654   1.710  16.801  0.1916  0.2604  0.1272
20215W        W63153   5.346  33.309  16.813  0.2796  0.2922 -0.1328
20216W        W63154   5.081   1.788  18.101 -0.1520  0.1195 -0.0095
20217W        W63155   4.905   0.694  18.113  0.2707  0.2592 -0.1434
20218W        W63156   7.145   3.173  20.486  0.1826 -0.0547 -0.1611
20219W        W63157   3.011  34.471  16.025 -0.1700 -0.4294  0.1586
20220W        W63158   6.965   2.392  17.433 -0.0914  0.0959  0.0622
20221W        W63159   7.003   2.696  17.823 -0.0059  0.2129  0.0146
20222W        W63160   4.128   3.247  16.241  0.0629  0.1787  0.2284
20223W        W63161   5.479   1.728  18.397 -0.2206  0.2881  0.0781
20224W        W63162   6.464   3.339  18.133  0.2881  0.2771  0.1678
20225W        W63163   4.059   1.631  18.921 -0.1235 -0.2126  0.1485
20226W        W63164   6.408   4.491  19.013 -0.2502  0.1899 -0.0073
20227W        W63165   7.827   3.834  18.449 -0.0382 -0.3060  0.2100
20228W        W63166   5.703   1.387  17.005  0.1192  0.1551  0.0784
20229W        W63167   4.121   1.271  18.553  0.1875 -0.3146 -0.0364
20230W        W63168   5.384   2.400  16.990  0.1179 -0.1416  0.0525
20231W        W63169   7.636   2.943  20.170 -0.0510  0.1174 -0.0339
20232W        W63170   7.072   1.257  19.341 -0.1639 -0.2129  0.4562
20233W        W63171   4.761   2.992  15.988  0.1596 -0.0403  0.1041
20234W        W63172   6.895   0.825  19.549 -0.0642  0.1865 -0.1888
20235W        W63173   6.154   1.259  19.853  0.0036 -0.3874 -0.2688
20236W        W63174   4.299   6.109  19.976 -0.2878 -0.1127  0.4159
20237W        W63175   4.430   2.340  16.552  0.2070  0.0989 -0.1646
20238W        W63176   4.641   2.029  20.070 -0.0182 -0.0912 -0.3702
20239W        W63177   5.117   2.962  17.920 -0.0464 -0.1426  0.1448
20240W        W63178   5.332   3.433  17.971  0.0431 -0.0706  0.1804
20241W        W63179   6.098   3.027  18.044 -0.1530  0.2343 -0.2246
20242W        W63180   6.840  33.943  18.448  0.2534  0.0553  0.3693
20243W        W63181   7.092   3.498  17.322 -0.0501  0.0908 -0.0628
20244W        W63182   4.710   0.028  16.715 -0.2226  0.0318 -0.2703
20245W        W63183   7.198  34.665  16.470  0.0631  0.0691  0.2196
20246W        W63184   7.454   0.749  17.543 -0.0200 -0.2416 -0.0044
20247W        W63185   4.476   0.937  18.845  0.0943 -0.3285 -0.0357
20248W        W63186   4.787   0.529  16.799  0.0988 -0.0639 -0.0577
20249W        W63187   1.915   3.312  17.363  0.2085 -0.2335 -0.2625
20250W        W63188   3.254   2.010  19.638  0.1213 -0.0339 -0.1650
20251W        W63189   5.513   0.576  19.571 -0.1024 -0.0039 -0.1342
20252W        W63190   3.040   0.841  19.144  0.0211 -0.0974  0.1539
20253W        W63191   5.002   1.281  17.953  0.0920  0.4163 -0.0413
20254W        W63192   4.659  34.574  16.188  0.1816 -0.3640 -0.1262
20255W        W63193   6.233   2.269  16.430  0.0872 -0.1144  0.0724
20256W        W63194   4.299   1.945  17.975 -0.3476 -0.0873 -0.1053
20257W        W63195   4.445   0.153  17.319 -0.0517  0.1028  0.0208
20258W        W63196   7.527   3.027  18.141 -0.0442 -0.1965 -0.2169
20259W        W63197   5.514   2.013  17.931 -0.2170 -0.2348  0.6079
20260W        W63198   5.008   0.191  17.894 -0.1295 -0.2949 -0.1744
20261W        W63199   7.920   2.586  19.970 -0.0048  0.4072 -0.0293
20262W        W63200   4.237   2.697  17.546 -0.0689  0.0955  0.2658
20263W        W63201   6.331  34.577  20.513 -0.0820  0.2782  0.2267
20264W        W63202   5.740   1.120  20.232  0.2460 -0.0251 -0.0188
20265W        W63203   3.541   0.694  17.236 -0.0675 -0.0382  0.0350
20266W        W63204   6.618   0.874  20.590  0.5885  0.2084  0.0278
20267W        W63205   5.782   2.234  18.391 -0.1768  0.1282 -0.0293
20268W        W63206   5.389   1.785  17.124 -0.0753  0.0408 -0.1171
20269W        W63207   6.229   0.967  18.936  0.1974 -0.0266 -0.0007
20270W        W63208   3.271   2.046  20.188  0.1537 -0.1592  0.0009
20271W        W63209   3.570   1.250  19.253 -0.0094  0.5648 -0.0899
20272W        W63210   6.523   1.847  19.330  0.2773  0.3744  0.1176
20273W        W63211   5.067   2.604  19.428  0.0778  0.1472 -0.0527
20274W        W63212   8.576   2.261  18.065 -0.1248 -0.2996  0.0445
20275W        W63213   6.627   2.113  19.758 -0.1840 -0.0505  0.3053
20276W        W63214   6.378   3.126  16.138 -0.0327 -0.0057  0.0914
20277W        W63215   4.536  34.538  19.562  0.2469 -0.0049  0.3687
20278W        W63216   4.847   2.446  18.733  0.0603 -0.2422 -0.1350
20279W        W63217   6.458   1.761  21.442 -0.1356 -0.0171  0.1017
20280W        W63218   4.189  34.497  18.236 -0.1443  0.0253 -0.0644
20281W        W63219   6.825   1.795  17.839  0.0155 -0.2412  0.1665
20282W        W63220   6.819   3.259  16.980 -0.0549  0.2595  0.3849
20283W        W63221   3.753   1.554  18.136  0.0235  0.0035  0.0831
20284W        W63222   5.832  34.583  17.714 -0.0669 -0.0146  0.2875
20285W        W63223   6.378   1.717  19.839  0.1317  0.1996 -0.0237
20286W        W63224   5.750   2.269  18.872  0.0192 -0.1911  0.1748
20287W        W63225   5.834   2.668  21.117 -0.0220 -0.1381 -0.2344
20288W        W63226   5.720   0.693  17.377 -0.0461  0.0764 -0.0018
20289W        W63227   7.025   1.133  15.965  0.3657  0.2696 -0.3504
20290W        W63228   5.691   4.034  17.598  0.3980  0.0190 -0.0715
20291W        W63229   7.901   2.503  19.368 -0.2709 -0.0877 -0.0038
20292W        W63230   5.972   3.879  18.027 -0.3463  0.3017  0.1997
20293W        W63231   6.220   2.277  18.759  0.1438  0.0210  0.1631
20294W        W63232   5.494  33.463  19.399  0.1612  0.1067 -0.0830
20295W        W63233   4.735   1.473  16.797  0.1800 -0.1864 -0.1777
20296W        W63234   5.162   1.363  17.228  0.3897  0.2899 -0.1603
20297W        W63235   7.224   1.389  18.860 -0.3726  0.2175  0.1751
20298W        W63236   3.782   2.021  17.903  0.1031  0.1007 -0.3021
20299W        W63237   6.590   0.946  17.389 -0.3243 -0.2934  0.0927
20300W        W63238   4.286   2.520  19.303  0.3478  0.2744  0.0326
20301W        W63239   5.757   0.939  18.058  0.1693  0.1770 -0.4036
20302W        W63240   4.811   0.300  23.358 -0.1681  0.3814 -0.3241
20303W        W63241   4.816   1.322  20.608 -0.2987 -0.0622  0.1183
20304W        W63242   7.300   2.285  20.610 -0.0581 -0.0614  0.1862
20305W        W63243   6.864   0.769  21.483 -0.3163  0.1830 -0.1098
20306W        W63244   3.654  34.588  21.818 -0.1584 -0.1903  0.2210
20307W        W63245   6.162   2.977  21.276 -0.2857 -0.1131  0.1842
20308W        W63246   3.917  34.679  22.661 -0.2202  0.6314  0.3037
20309W        W63247   6.537   1.852  23.457  0.1597  0.3523 -0.1593
20310W        W63248   5.811   2.643  22.102 -0.0793 -0.0252 -0.3209
20311W        W63249   5.447   0.681  20.293 -0.0912 -0.0168 -0.0943
20312W        W63250   5.426  34.069  23.033  0.1696  0.0427  0.3728
20313W        W63251   4.488   2.340  22.503  0.0175 -0.0548  0.0354
20314W        W63252   5.062  33.577  19.703  0.1691  0.0089  0.2562
20315W        W63253   2.508   0.052  22.931  0.0326 -0.1272 -0.3155
20316W        W63254   8.041   0.166  22.090  0.2384 -0.1621 -0.0125
20317W        W63255   5.084   1.356  21.068 -0.0636 -0.2640 -0.1034
20318W        W63256   4.324   0.570  22.005 -0.2139  0.2433  0.3282
20319W        W63257   5.285   1.043  20.627  0.1059  0.1362 -0.0781
20320W        W63258   4.844   3.926  21.623  0.1107 -0.0038 -0.0743
20321W        W63259   5.934   0.476  23.788 -0.0893  0.1785 -0.0020
20322W        W63260   4.995  34.263  23.294 -0.0291 -0.1718  0.1068
20323W        W63261   5.398   3.875  20.672 -0.0993 -0.2461 -0.0983
20324W        W63262   4.608   0.849  19.627 -0.0514  0.1731 -0.2713
20325W        W63263   2.914   1.080  21.525 -0.4017  0.3201  0.3615
20326W        W63264   5.392   1.571  20.674 -0.1296 -0.2787 -0.0463
20327W        W63265   5.102   0.425  22.134  0.2127  0.0884 -0.1859
20328W        W63266   6.113   1.003  21.210  0.1952 -0.3032  0.0798
20329W        W63267   4.549   2.132  21.592 -0.2930  0.1609 -0.1538
20330W        W63268   4.849   3.054  20.796  0.2825  0.0142  0.0247
20331W        W63269   7.273   2.085  22.911  0.0391  0.0973  0.1204
20332W        W63270   4.168   2.039  20.383 -0.1330  0.5029 -0.1229
20333W        W63271   2.320   2.809  21.167 -0.0337  0.3611 -0.0067
20334W        W63272   4.617   4.249  21.296  0.2485  0.0443  0.4149
20335W        W63273   7.968   2.149  21.946  0.1884  0.0081  0.2125
20336W        W63274   6.225   3.344  22.718 -0.0452  0.0299  0.2319
20337W        W63275   6.192   2.003  23.184  0.1577  0.1076 -0.1204
20338W        W63276   3.425   2.895  20.677  0.1091  0.1148 -0.1456
20339W        W63277   5.305   3.513  23.181  0.1717  0.2929  0.1488
20340W        W63278   4.053   1.637  23.182 -0.0644 -0.1839 -0.0759
20341W        W63279   5.060   0.887  21.367 -0.0682 -0.1197 -0.0942
20342W        W63280   5.260   1.662  21.836  0.0538 -0.2359 -0.0180
20343W        W63281   5.043   3.486  20.750 -0.0738  0.3288 -0.2619
20344W        W63282   4.452   2.601  20.736 -0.2756 -0.1135 -0.1568
20345W        W63283   5.492   2.152  24.349 -0.1079 -0.0479 -0.0857
20346W        W63284   3.608   2.721  22.400 -0.0527 -0.1036 -0.2401
20347W        W63285   7.921   2.371  22.567  0.0602  0.0204  0.1219
20348W        W63286   5.318   3.212  19.135 -0.0085 -0.0897  0.0129
20349W        W63287   7.303   1.270  21.427  0.1506 -0.2527 -0.0538
20350W        W63288   4.992   0.780  18.582 -0.1726 -0.0791 -0.0516
20351W        W63289   6.433  34.353  21.314  0.3834  0.0695  0.0848
20352W        W63290   5.672  34.515  23.163  0.0231 -0.0747 -0.0133
20353W        W63291   4.169   1.321  21.162 -0.1508  0.0347 -0.0872
20354W        W63292   4.524  34.162  22.540  0.0169 -0.2978  0.0667
20355W        W63293   7.081   2.315  21.621 -0.0715 -0.2064  0.0595
20356W        W63294   5.433   1.798  21.335  0.1415  0.0066 -0.2108
20357W        W63295   6.492   1.258  22.793  0.0891  0.3162  0.0776
20358W        W63296   3.073   3.363  22.729 -0.3826  0.1581 -0.0777
20359W        W63297   4.473   0.911  21.570  0.0820 -0.1018  0.1017
20360W        W63298   6.275   2.359  20.333  0.0272  0.1946 -0.2834
20361W        W63299   6.687   2.641  21.885  0.0552  0.0925  0.4360
20362W        W63300   6.098   3.259  21.794 -0.0636  0.0512 -0.0367
20363W        W63301   3.793   0.401  20.303  0.1589 -0.2657  0.0542
20364W        W63302   4.879   1.738  24.173 -0.1442 -0.1895 -0.0907
20365W        W63303   4.794   1.848  22.461 -0.1849  0.1413  0.1827
20366W        W63304   5.272   0.171  20.126 -0.0292  0.3386 -0.3747
20367W        W63305   7.808   1.543  22.894 -0.2968  0.0970 -0.2887
20368W        W63306   5.525   1.533  25.013 -0.0911 -0.1627 -0.3153
20369W        W63307   6.685   0.057  20.084 -0.0303  0.0910  0.1065
20370W        W63308   5.780   2.491  22.571  0.1144  0.0370  0.1601
20371W        W63309   7.191   3.428  21.687 -0.2683 -0.1740  0.1221
20372W        W63310   6.562   2.236  21.624 -0.2805 -0.1514 -0.0796
20373W        W63311   7.092  34.154  21.867  0.0120  0.1556  0.0563
20374W        W63312   6.787   0.395  22.817  0.1717  0.2008  0.1562
20375W        W63313   4.250   1.164  20.700 -0.2452  0.3936  0.2758
20376W        W63314   4.752   1.444  20.049  0.0881  0.0473 -0.0565
20377W        W63315   7.786   1.518  22.213  0.2028 -0.0443 -0.1213
20378W        W63316   5.600   1.172  21.505  0.2306 -0.2944 -0.0495
20379W        W63317   3.840   2.653  22.835 -0.0124 -0.0021 -0.0791
20380W        W63318   4.021   0.149  22.002 -0.1425  0.1106 -0.1039
20381W        W63319   4.996   2.163  23.487  0.3541 -0.1921  0.0849
20382W        W63320   3.500   1.592  19.719  0.0498 -0.1274  0.2169
20383W        W63321   4.193   1.134  22.156  0.0435 -0.2126  0.1587
20384W        W63322   5.532   2.104  20.582  0.0145 -0.1092 -0.0928
20385W        W63323   3.001   0.631  21.764 -0.1278 -0.2201  0.0527
20386W        W63324   5.532   1.202  22.483  0.0131 -0.1509 -0.1631
20387W        W63325   6.196  34.332  21.858  0.0748 -0.0710 -0.1148
20388W        W63326   3.110   0.351  22.712 -0.0682 -0.0793  0.0470
20389W        W63327   5.669   0.686  22.270 -0.0594  0.0020  0.2635
20390W        W63328   4.779   1.318  21.528  0.1441 -0.0797  0.0765
20391W        W63329   6.440   2.272  22.209  0.0705  0.0466 -0.0942
20392W        W63330   7.033   0.264  21.894  0.1338 -0.0906  0.1401
20393W        W63331   7.674   2.133  19.682 -0.2055  0.2649  0.2271
20394W        W63332   4.173   0.713  21.089 -0.0485 -0.0377 -0.1319
20395W        W63333   3.687  34.482  21.031 -0.0432 -0.1767 -0.0365
20396W        W63334   3.936  34.373  23.341  0.2930  0.2541  0.0509
20397W        W63335   4.722  34.225  21.043  0.0325  0.1329 -0.1896
20398W        W63336   8.134   1.346  23.816  0.1507 -0.0553  0.0579
20399W        W63337   3.074  33.866  20.110  0.0029 -0.0901  0.1228
20400W        W63338   5.679   1.393  21.050  0.0441  0.1409 -0.2560
20401W        W63339   4.952   1.819  21.329  0.1318  0.0101 -0.0492
20402W        W63340   4.977   1.805  20.394  0.1173  0.1907 -0.1273
20403W        W63341   7.283  34.402  23.942  0.0946 -0.0950  0.3446
20404W        W63342   7.478   3.152  19.578  0.0021  0.1340 -0.0378
20405W        W63343   7.797   2.583  23.000  0.1503  0.2091 -0.0108
20406W        W63344   6.532   1.744  22.398 -0.0659  0.2103  0.2850
20407W        W63345   4.855   0.701  21.812 -0.2428 -0.0628  0.0328
20408W        W63346   6.888   1.718  19.720  0.0485  0.3128  0.2029
20409W        W63347   3.556   3.270  21.051 -0.3947  0.0589 -0.1155
20410W        W63348   4.704   1.743  20.853  0.0422  0.0874  0.2864
20411W        W63349   4.913  34.680  22.997  0.0761  0.3647  0.1007
20412W        W63350   6.819   2.899  23.218  0.2571 -0.0618 -0.1528
20413W        W63351   5.482   3.311  21.498  0.0479 -0.1259  0.2949
20414W        W63352   4.619   2.214  22.080  0.0321 -0.3264 -0.1259
20415W        W63353   5.860   0.300  22.600  0.0326 -0.0318  0.6114
20416W        W63354   7.922   1.101  22.580 -0.1545 -0.1924  0.1923
20417W        W63355   6.589   0.401  21.853  0.3761  0.0100  0.0232
20418W        W63356   3.792   0.185  18.596  0.0657  0.1755 -0.4049
20419W        W63357   5.754   3.620  21.835 -0.0989  0.3369 -0.0433
20420W        W63358   3.922   2.962  22.031 -0.2523  0.2059  0.0572
20421W        W63359   3.797   0.886  20.693  0.4987 -0.0092 -0.1512
20422W        W63360   4.683   3.360  21.806 -0.1281  0.0716  0.3399
20423W        W63361   7.316   1.319  22.086  0.2166 -0.0769 -0.1352
20424W        W63362   3.746   2.461  23.862 -0.1208  0.2689 -0.1396
20425W        W63363   5.059   0.342  23.842 -0.0142 -0.1422  0.1217
20426W        W63364   4.892   1.291  19.591  0.2243 -0.0366  0.2573
20427W        W63365   5.298   0.847  24.003  0.3732  0.1570  0.1923
20428W        W63366   6.209  33.721  21.928  0.1553 -0.4208 -0.0367
20429W        W63367   6.063   0.428  18.841  0.0384  0.1374  0.2394
20430W        W63368   6.336   0.709  22.159 -0.0748  0.1553  0.2233
20431W        W63369   7.558   0.444  21.918 -0.1995  0.0730 -0.0401
20432W        W63370   6.222   1.578  20.958 -0.1077  0.1292  0.3009
20433W        W63371   6.246   0.782  20.268  0.0501 -0.0748  0.3477
20434W        W63372   4.911   1.552  25.082 -0.3123  0.1018 -0.0034
20435W        W63373   7.169   2.396  21.113  0.0115 -0.0192 -0.0421
20436W        W63374   5.885   3.221  23.180 -0.0708  0.1446  0.2157
20437W        W63375   5.261   0.940  19.356  0.0881  0.0305  0.0224
20438W        W63376   7.620   2.165  21.499  0.1381 -0.0882  0.1373
20439W        W63377   4.859   1.309  23.826 -0.4300  0.1701  0.0014
20440W        W63378   5.775   1.748  23.204 -0.2224 -0.0137 -0.2115
20441W        W63379   6.168   2.654  21.785  0.2000 -0.1025  0.1278
20442W        W63380   5.024  34.032  23.839  0.0591  0.0577 -0.1278
20443W        W63381   6.200   0.223  20.025  0.0654 -0.1016 -0.2101
20444W        W63382   7.024  33.480  21.115  0.2510  0.0668 -0.0331
20445W        W63383   3.999   4.258  21.313 -0.1104 -0.0841 -0.2143
20446W        W63384   7.151   0.751  22.000  0.1251  0.4034 -0.1981
20447W        W63385   6.016  34.050  21.432 -0.1057 -0.1633  0.3519
20448W        W63386   5.430  34.114  23.588 -0.3473 -0.2195 -0.0253
20449W        W63387   7.528   0.630  23.229  0.1188 -0.2134 -0.2616
20450W        W63388   7.071   0.965  21.009  0.3004 -0.2274  0.1355
20451W        W63389   6.068   0.125  23.393 -0.0714 -0.3838  0.1348
20452W        W63390   4.663   0.511  19.226  0.3783  0.3208  0.2916
20453W        W63391   4.898   1.168  23.333 -0.1622  0.0900 -0.1356
20454W        W63392   4.380   1.870  22.800  0.3350 -0.0701  0.1982
20455W        W63393   2.830   3.669  23.281 -0.1820  0.0328 -0.2444
20456W        W63394   7.434   2.419  22.578 -0.0280 -0.0627 -0.3824
20457W        W63395   6.137   2.222  20.792 -0.0568 -0.1472 -0.2822
20458W        W63396   5.518   1.018  23.239 -0.0535  0.0635 -0.0339
20459W        W63397   4.866  34.319  20.299  0.1919 -0.0674 -0.0602
20460W        W63398   4.543   3.178  21.174 -0.5326 -0.4381 -0.1657
20461W        W63399   4.506   1.614  19.653 -0.2453  0.0253  0.0458
20462W        W63400   5.370  33.814  22.193  0.1426  0.1100 -0.3107
20463W        W63401   5.406   3.044  23.091  0.0213 -0.0181 -0.0948
20464W        W63402   3.695   1.837  20.290 -0.0576 -0.2506  0.1281
20465W        W63403   5.545   2.350  23.041 -0.1287 -0.0865 -0.0378
20466W        W63404   3.847   3.128  20.580 -0.2955 -0.2432  0.1705
20467W        W63405   6.595  34.640  21.995  0.1466 -0.2152 -0.2191
20468W        W63406   2.669   1.481  21.748  0.3224  0.1911  0.1238
20469W        W63407   4.653   0.617  20.149  0.0934 -0.1169 -0.2390
20470W        W63408   5.177   2.355  20.328 -0.0419 -0.3067 -0.0947
20471W        W63409   6.521  33.345  21.881  0.1794 -0.0980 -0.1563
20472W        W63410   6.707   3.181  22.787  0.0323  0.0760  0.1507
20473W        W63411   4.061  33.425  22.628  0.0709  0.2132  0.0174
20474W        W63412   4.358  34.566  23.010  0.1724  0.0417 -0.2402
20475W        W63413   3.389   2.830  21.693 -0.1375 -0.1859  0.0372
20476W        W63414   6.151  34.556  22.983 -0.0607 -0.1220 -0.0410
20477W        W63415   5.953  34.528  21.389 -0.3130 -0.1491 -0.1507
20478W        W63416   4.743   2.283  21.134  0.0836  0.1086  0.2904
20479W        W63417   4.550   2.021  23.283  0.1363 -0.2299 -0.1060
20480W        W63418   3.372   0.513  20.865 -0.1136 -0.4164  0.2382
20481W        W63419   7.266   0.689  22.797 -0.0408 -0.1493 -0.1913
20482W        W63420   5.885   1.444  20.591  0.1492  0.0499  0.1183
20483W        W63421   4.752   3.268  20.319 -0.2120  0.1341  0.0318
20484W        W63422   5.381   2.845  22.426 -0.0546 -0.1905 -0.0943
20485W        W63423   4.585   1.468  18.754  0.0342  0.0755 -0.0281
20486W        W63424   5.023   3.329  21.271  0.1519  0.2703 -0.0914
20487W        W63425   4.339   0.374  24.361 -0.2559 -0.2905 -0.0171
20488W        W63426   6.976   1.598  22.646  0.0484 -0.0709 -0.0005
20489W        W63427   4.044   0.607  21.564 -0.1960  0.0541 -0.0776
20490W        W63428   5.115   0.298  20.931  0.1125 -0.2036 -0.0740
20491W        W63429   4.477   0.334  21.566 -0.4918  0.1028  0.0617
20492W        W63430   7.019   0.123  22.425 -0.2323  0.3183  0.0007
20493W        W63431   6.901   1.088  22.372  0.0736  0.0528  0.2900
20494W        W63432   5.733   2.713  23.371 -0.1215  0.0551 -0.3243
20495W        W63433   5.021   0.068  22.477 -0.1408 -0.0632 -0.2426
20496W        W63434   5.309   2.668  21.422 -0.1433  0.0095 -0.1912
20497W        W63435   6.827   0.584  22.339 -0.0602  0.0441  0.1360
20498W        W63436   4.471   1.135  20.249 -0.2067 -0.2219 -0.0292
20499W        W63437   3.899   0.746  22.138 -0.1282  0.1583 -0.3305
20500W        W63438   4.742   2.746  20.387  0.3913  0.0084  0.0267
20501W        W63439   6.704  34.461  23.569  0.1385 -0.4273  0.0120
20502W        W63440   3.497   2.196  21.199  0.0786 -0.0599  0.1362
20503W        W63441   4.617   1.137  21.067  0.2855 -0.0319  0.1974
20504W        W63442   4.226   2.966  22.898  0.1470  0.2146 -0.0206
20505W        W63443   7.161   0.300  21.053  0.2857  0.1695  0.3370
20506W        W63444   5.338   2.996  21.047 -0.2716 -0.1464  0.0403
20507W        W63445   5.540   0.120  22.296  0.2301 -0.1220  0.1610
20508W        W63446   6.382   0.567  23.580  0.2356 -0.2722  0.0901
20509W        W63447   6.457   2.846  19.526  0.1300 -0.1232 -0.0762
20510W        W63448   5.663   0.324  24.612 -0.0594  0.2493 -0.1797
20511W        W63449   4.586   0.631  22.412 -0.1864  0.0410 -0.1557
20512W        W63450   6.842   1.566  21.168  0.0762  0.5109 -0.1950
20513W        W63451   4.066   1.158  24.129 -0.1624 -0.1202  0.0277
20514W        W63452   6.315   2.852  23.016 -0.2374 -0.4111 -0.0167
20515W        W63453   5.308   1.445  23.149 -0.3580 -0.0614  0.2932
20516W        W63454   5.223   0.004  21.905 -0.0582  0.0847 -0.1138
20517W        W63455   4.664   0.326  20.720 -0.2166  0.1318  0.0824
20518W        W63456   4.696   1.158  21.983  0.1361 -0.0184 -0.0670
20519W        W63457   6.412   1.164  22.305 -0.2703 -0.4131 -0.1995
20520W        W63458   6.090   1.862  20.429  0.3641  0.0352  0.2233
20521W        W63459   5.694   0.161  21.739  0.0053 -0.3485 -0.2618
20522W        W63460   5.043   1.400  22.232 -0.0626  0.1910 -0.3571
20523W        W63461   7.508  33.872  20.350 -0.1191  0.0179  0.0382
20524W        W63462   5.553   3.555  21.070 -0.0022 -0.2509 -0.1586
20525W        W63463   5.507   2.262  21.089  0.2387 -0.0915  0.2601
20526W        W63464   4.512   0.213  23.827  0.0524 -0.0484 -0.2557
20527W        W63465   5.745   1.752  21.800  0.2238  0.0510 -0.2150
20528W        W63466   5.509   0.686  22.727 -0.0090  0.3229  0.2109
20529W        W63467   5.175  34.690  23.477 -0.2488  0.0909 -0.0869
20530W        W63468   6.165   1.671  22.773  0.1251 -0.0655  0.1062
20531W        W63469   5.540   0.297  24.011  0.1595  0.1238 -0.0808
20532W        W63470   3.710   1.178  22.505 -0.4452  0.0101  0.4386
20533W        W63471   6.992   3.936  23.176  0.1210 -0.1654  0.4398
20534W        W63472   5.047   0.375  21.511 -0.1796 -0.1475  0.1876
20535W        W63473   8.542  34.335  22.098 -0.1065 -0.1140  0.2966
20536W        W63474   8.088  34.359  21.746 -0.0338  0.0334  0.1024
20537W        W63475   6.330   0.616  20.953  0.1034  0.2147  0.1420
20538W        W63476   3.959  34.636  20.446  0.6009 -0.1287 -0.0310
20539W        W63477   7.710   3.143  22.945 -0.1095  0.1887  0.1110
20540W        W63478   3.422  34.652  20.069 -0.0157  0.0626 -0.1804
20541W        W63479   7.254   1.580  23.083 -0.1248  0.2428 -0.3094
20542W        W63480   5.885   3.167  20.866 -0.0058 -0.0115 -0.0204
20543W        W63481   4.824   2.811  21.263  0.0206 -0.0963  0.3252
20544W        W63482   5.458   0.812  21.076 -0.0080  0.0074 -0.0339
20545W        W63483   3.922  34.249  21.411  0.1633  0.3053 -0.0395
20546W        W63484   4.441   1.506  24.045 -0.0297  0.0405  0.2338
20547W        W63485   5.131   0.147  18.903 -0.2456  0.0183  0.2229
20548W        W63486   6.303   1.435  20.321 -0.0083 -0.0281  0.0152
20549W        W63487   5.391   3.861  21.518  0.1037  0.1838  0.2289
20550W        W63488   8.485   1.426  24.242 -0.1300 -0.2169  0.3478
20551W        W63489   7.046  33.526  20.281 -0.0161 -0.1412  0.0466
20552W        W63490   5.918  33.488  21.128 -0.1705 -0.0907 -0.0490
20553W        W63491   2.747   2.872  20.732 -0.1801  0.1520  0.1721
20554W        W63492   5.323  34.314  22.371 -0.0642 -0.0945  0.1427
20555W        W63493   4.695   1.546  22.997 -0.0401 -0.1979 -0.0261
20556W        W63494   2.700   1.493  21.209 -0.0547 -0.2745  0.0429
20557W        W63495   5.650   1.876  22.720  0.2092  0.0797 -0.0915
20558W        W63496   4.189   0.079  23.435 -0.2031  0.0843  0.1937
20559W        W63497   6.045   0.305  22.151 -0.1535 -0.3403 -0.2719
20560W        W63498   6.025   1.569  22.286  0.0925  0.3283  0.0616
20561W        W63499   7.407   0.424  22.397 -0.0029 -0.0179 -0.1040
20562W        W63500   5.331   1.207  23.692  0.1247 -0.1710  0.0632
20563W        W63501   5.764   1.349  22.945 -0.0888  0.1071 -0.1062
20564W        W63502   5.910   0.631  21.836  0.1392  0.1761  0.1722
20565W        W63503   6.764   2.311  20.535 -0.0439 -0.2033  0.0060
20566W        W63504   3.412   2.335  22.728 -0.0411  0.0558  0.1722
20567W        W63505   4.032   1.375  23.695  0.0783  0.3220 -0.3129
20568W        W63506   5.190   0.629  23.154 -0.3964 -0.1545 -0.0733
20569W        W63507   5.487   1.626  22.263 -0.0731  0.1142  0.5010
20570W        W63508   4.175   0.602  20.502  0.2334 -0.1051  0.0705
20571W        W63509   7.129   3.646  20.222  0.0641 -0.0432  0.1798
20572W        W63510   3.621   1.298  24.462  0.0485  0.1389 -0.0689
20573W        W63511   4.190   2.443  21.915 -0.0962  0.2655  0.0153
20574W        W63512   4.579   3.540  20.652  0.0208  0.3707 -0.0248
20575W        W63513   5.919   3.494  21.395 -0.2726 -0.0021  0.0474
20576W        W63514   6.066   2.026  21.387  0.3903  0.2352 -0.1250
20577W        W63515   4.915   2.557  22.401  0.2428  0.2611 -0.1240
20578W        W63516   4.706   0.114  20.255  0.2129 -0.2439  0.0425
20579W        W63517   4.174   1.885  21.889 -0.3090 -0.0434  0.0060
20580W        W63518   3.792   2.511  20.620 -0.0097 -0.0741  0.0160
20581W        W63519   5.788   2.906  21.601 -0.0554 -0.0347 -0.1867
20582W        W63520   4.820   4.601  23.073 -0.0648  0.2795 -0.0158
20583W        W63521   6.950   1.162  22.866 -0.0152  0.1688 -0.0984
20584W        W63522   5.886  34.225  19.214  0.1008  0.1365 -0.1585
20585W        W63523   8.531   2.879  20.640 -0.0401  0.3436  0.0765
20586W        W63524   8.386   1.993  20.655  0.3228  0.0578  0.1931
20587W        W63525   6.095   2.377  23.516  0.1287  0.3369 -0.0649
20588W        W63526   5.028   0.598  22.618  0.4124  0.1594  0.1922
20589W        W63527   4.576   0.311  19.768 -0.2743  0.0839  0.2923
20590W        W63528   5.761   1.382  23.477 -0.0136  0.0289 -0.0201
20591W        W63529   7.208   0.298  24.033 -0.0723  0.0629 -0.0514
20592W        W63530   4.797   3.705  23.307  0.1105 -0.3341  0.1139
20593W        W63531   6.769   2.640  19.853 -0.1382 -0.0185  0.0221
20594W        W63532   3.866   0.378  20.883  0.0075 -0.1409  0.1026
20595W        W63533   4.237   2.864  21.667 -0.1172 -0.0440  0.4377
20596W        W63534   8.272  32.293  23.123  0.1919  0.2469  0.1278
20597W        W63535   5.214   2.914  20.466 -0.2477  0.0309 -0.3174
20598W        W63536   5.221   1.153  21.780  0.0598  0.0550  0.0543
20599W        W63537   4.158   3.446  21.014  0.2102  0.1456  0.1449
20600W        W63538   4.411   3.091  23.334 -0.0006  0.2058 -0.1159
20601W        W63539   5.148   1.976  20.871 -0.1880  0.3256  0.0384
20602W        W63540   4.213   0.245  20.094  0.1713 -0.1661 -0.1491
20603W        W63541   6.236   2.639  19.920 -0.1060  0.2195 -0.1827
20604W        W63542   4.664   0.812  22.944  0.0838  0.3819  0.1001
20605W        W63543   7.091  32.822  22.031  0.1598 -0.2430  0.3063
20606W        W63544   4.685   0.610  21.141  0.0656  0.2794  0.2255
20607W        W63545   6.230  34.518  22.363  0.1755  0.2373 -0.0443
20608W        W63546   5.737   1.193  22.020  0.2365  0.0869 -0.1538
20609W        W63547   4.460   1.674  21.355 -0.1015 -0.2572  0.0164
20610W        W63548   4.713   2.412  19.673  0.1615  0.1388  0.0307
20611W        W63549   6.534   0.749  23.097  0.0894 -0.2552 -0.1314
20612W        W63550   7.551   0.953  21.128 -0.1824 -0.1404 -0.2582
20613W        W63551   6.637   3.675  22.889  0.3195 -0.4417  0.2288
20614W        W63552   4.409  34.404  20.064  0.3961  0.1105 -0.3231
20615W        W63553   5.973  34.029  20.478 -0.1721  0.0449  0.0921
20616W        W63554   4.948   1.010  20.203 -0.1351  0.1474  0.0947
20617W        W63555   5.213   1.597  22.689  0.0661  0.2924  0.1566
20618W        W63556   8.031   3.017  24.907 -0.3246  0.0920  0.0870
20619W        W63557   4.321  33.999  20.372 -0.2538  0.0845 -0.1072
20620W        W63558   7.704   2.358  21.015 -0.1794  0.4256 -0.3047
20621W        W63559   7.122  34.586  21.479  0.1315 -0.0044  0.1268
20622W        W63560   4.796   3.735  21.131 -0.0795  0.0384  0.0141
20623W        W63561   6.324   1.727  21.916 -0.3711  0.1693  0.0076
20624W        W63562   5.072   2.182  21.596  0.1345 -0.0513 -0.3010
20625W        W63563   3.713   0.143  23.237  0.4012  0.1286  0.1523
20626W        W63564   7.010   2.477  23.065 -0.1107 -0.0443  0.1681
20627W        W63565   6.381   2.124  22.730  0.1178 -0.0778 -0.1314
20628W        W63566   5.639  34.542  21.043  0.0569  0.1563 -0.4905
20629W        W63567   5.972   0.508  21.317  0.2519  0.1098  0.0174
20630W        W63568   2.666   2.867  21.505  0.0124  0.0525 -0.1441
20631W        W63569   6.043   2.178  21.884  0.1723  0.0909  0.0599
20632W        W63570   6.994   0.612  23.229  0.1168  0.2798 -0.0085
20633W        W63571   5.708   3.529  19.905  0.0087  0.0436  0.1554
20634W        W63572   6.943  34.036  24.043  0.0428 -0.3393 -0.0421
20635W        W63573   6.048   2.462  23.049  0.0313  0.0453 -0.2378
20636W        W63574   5.252   3.540  23.714 -0.2618  0.2344 -0.1213
20637W        W63575   4.854   1.144  19.095  0.0393 -0.1837  0.0134
20638W        W63576   6.001   1.077  22.572 -0.0691 -0.0219 -0.2296
20639W        W63577   5.108   2.484  20.783  0.1035 -0.4387  0.0447
20640W        W63578   6.275   3.677  20.027  0.1451  0.2155 -0.2595
20641W        W63579   6.231   1.205  21.784  0.1258 -0.1473 -0.0444
20642W        W63580   5.782  34.500  22.065 -0.2490  0.1046 -0.2441
20643W        W63581   8.073   2.371  21.398 -0.1994  0.3168  0.0763
20644W        W63582   5.212   0.889  22.232 -0.1274 -0.3259 -0.0653
20645W        W63583   6.311   0.231  21.456  0.2885 -0.0294  0.0610
20646W        W63584   6.560  34.004  21.649  0.0041  0.0587 -0.1669
20647W        W63585   3.959   1.549  22.224  0.1268 -0.1521 -0.2769
20648W        W63586   5.058   0.534  20.527  0.3091  0.0395 -0.3548
20649W        W63587   6.296   3.410  21.057 -0.0596  0.1239 -0.0029
20650W        W63588   4.737   1.683  21.858 -0.1237 -0.4153  0.1557
20651W        W63589   4.237  34.356  23.776 -0.2980  0.1172 -0.3109
20652W        W63590   4.417   1.037  23.759  0.1553  0.2900 -0.0159
20653W        W63591   5.148   2.038  22.097  0.0416  0.1818 -0.1200
20654W        W63592   5.493   0.250  20.631 -0.1528 -0.1342 -0.2189
20655W        W63593   6.763   3.279  21.920  0.1312  0.0311  0.0574
20656W        W63594   5.244  34.036  20.896  0.1331  0.0130 -0.0815
20657W        W63595   5.164  34.013  19.910  0.1271 -0.3947 -0.1373
20658W        W63596   5.641   2.269  21.622 -0.0223  0.3554  0.1610
20659W        W63597   8.433   2.900  21.192  0.0623 -0.0011 -0.0793
20660W        W63598   5.375  33.752  21.622  0.3649  0.1218 -0.0858
20661W        W63599   7.965   2.270  23.366 -0.1493 -0.5161 -0.1277
20662W        W63600   2.434   3.556  20.048  0.0431  0.2865  0.1989
20663W        W63601   5.440   0.098  22.736  0.0225  0.4151  0.1179
20664W        W63602   7.229   0.197  23.487  0.2113  0.0983  0.0710
20665W        W63603   3.455  34.577  20.575 -0.2161  0.0146  0.3201
20666W        W63604   6.635  34.593  22.784  0.0752  0.2420 -0.2282
20667W        W63605   6.466   2.550  20.842  0.1714  0.0170 -0.0833
20668W        W63606   6.779   2.910  22.307 -0.1799  0.0866  0.0371
20669W        W63607   5.151   2.649  23.295  0.2048  0.2981 -0.2131
20670W        W63608   4.619   1.977  23.812 -0.0463  0.4203  0.5489
20671W        W63609   4.887  34.480  21.606  0.1884  0.0459  0.2166
20672W        W63610   6.015   2.047  22.388 -0.1439  0.0361  0.0757
20673W        W63611   5.620   2.108  22.135  0.2564 -0.1570  0.1427
20674W        W63612   7.613   1.933  20.444  0.0130 -0.0133  0.4221
20675W        W63613   6.348   0.757  21.577  0.1928 -0.0142  0.1107
20676W        W63614   6.816   0.276  21.406  0.0371 -0.2455 -0.0717
20677W        W63615   4.577  33.562  23.320  0.1615 -0.3083  0.0155
20678W        W63616   5.260   1.944  23.073 -0.2677  0.2949 -0.0262
20679W        W63617   8.085   2.936  22.707  0.2885 -0.2752  0.0273
20680W        W63618   5.446  33.614  21.164  0.0374 -0.3290  0.1278
20681W        W63619   5.848  33.641  22.228  0.1466  0.1582 -0.0093
20682W        W63620   6.643   2.797  20.315  0.0774  0.0152  0.2104
20683W        W63621   4.717   0.117  21.178  0.0277  0.4419 -0.2888
20684W        W63622   5.310   0.984  19.859 -0.0369 -0.1488 -0.1590
20685W        W63623   6.358   1.375  23.242  0.1407 -0.0557 -0.3106
20686W        W63624   5.180   2.599  22.812  0.1196 -0.2253 -0.0890
20687W        W63625   7.428   2.335  23.372  0.1966  0.1421  0.3010
20688W        W63626   6.000   1.545  21.434 -0.0740  0.1348 -0.0336
20689W        W63627   7.571   0.983  21.750  0.2079 -0.0447 -0.0896
20690W        W63628   5.374   3.842  22.602 -0.2079 -0.4411  0.2205
20691W        W63629   7.332   4.762  25.267 -0.0276 -0.0580 -0.0789
20692W        W63630   4.915   3.989  22.496 -0.1287  0.0578  0.1223
20693W        W63631   6.655   1.796  22.969  0.1696  0.0462 -0.1433
20694W        W63632   4.856  33.810  21.806 -0.1392  0.0647 -0.1020
20695W        W63633   5.699   2.451  20.234 -0.3149 -0.3925 -0.1266
20696W        W63634   5.816   1.860  20.918 -0.1061 -0.1808 -0.0127
20697W        W63635   7.454   0.926  22.363 -0.0177  0.0756  0.0411
20698W        W63636   5.454   0.663  21.598  0.1079 -0.0131 -0.0072
20699W        W63637   6.806  34.256  20.294  0.0542 -0.1423 -0.1316
20700W        W63638   3.168   2.789  22.897 -0.0335  0.1480 -0.0022
20701W        W63639   6.690   0.949  21.915 -0.0530 -0.0157  0.4842
20702W        W63640   5.850   2.729  25.848 -0.0002  0.3183 -0.1061
20703W        W63641   5.725  34.565  23.646  0.0212  0.1407 -0.0093
20704W        W63642   6.495   0.768  22.621 -0.1592 -0.2304 -0.1190
20705W        W63643   7.386   1.822  25.475  0.3444 -0.1478  0.1528
20706W        W63644   3.536   1.188  23.569  0.1058 -0.1356 -0.0900
20707W        W63645   5.084   2.503  25.881 -0.1949 -0.1184 -0.1503
20708W        W63646   4.913  34.327  27.013  0.0014  0.2867 -0.0242
20709W        W63647   6.773   3.323  25.587  0.4087 -0.1505 -0.0669
20710W        W63648   7.072   2.896  26.924  0.1235  0.2982 -0.3173
20711W        W63649   5.279   0.505  24.355  0.1531 -0.1686  0.1402
20712W        W63650   4.823   0.423  26.804 -0.0672 -0.0933 -0.0710
20713W        W63651   5.894   3.322  25.347 -0.1282 -0.2712  0.1046
20714W        W63652   3.640  34.457  22.315 -0.0813  0.2826  0.0686
20715W        W63653   2.687   0.116  24.907 -0.1802  0.2072  0.2211
20716W        W63654   6.783   1.458  26.233 -0.1004  0.1073 -0.0720
20717W        W63655   4.505   1.270  24.970  0.1658 -0.4821  0.2488
20718W        W63656   6.424   2.121  24.884 -0.0059  0.0161 -0.3763
20719W        W63657   5.302   0.524  24.991 -0.1051  0.1173 -0.0224
20720W        W63658   7.192   4.181  25.871 -0.1807 -0.3702 -0.1454
20721W        W63659   6.275   0.086  26.404  0.1067 -0.1223  0.2125
20722W        W63660   6.711  34.679  26.658  0.0187  0.0042  0.3953
20723W        W63661   5.251   1.363  24.198 -0.1467 -0.0726  0.3224
20724W        W63662   4.951   0.971  24.310  0.2624  0.0446 -0.0290
20725W        W63663   5.673   1.352  25.554 -0.0317 -0.3178  0.2581
20726W        W63664   6.183   1.462  27.710 -0.0604 -0.1874 -0.1213
20727W        W63665   6.298   0.949  26.801 -0.0899 -0.0379  0.1885
20728W        W63666   7.940   1.706  24.787  0.0237  0.2615  0.1931
20729W        W63667   6.246   2.561  24.111  0.1698  0.1223 -0.1448
20730W        W63668   7.035   2.157  25.218 -0.2737  0.1627  0.2515
20731W        W63669   7.362   0.837  28.688 -0.0936  0.0612 -0.0937
20732W        W63670   5.495   2.034  25.282 -0.2773 -0.4745 -0.1673
20733W        W63671   3.810   4.074  24.735 -0.0690 -0.2129  0.2308
20734W        W63672   5.329   3.327  25.602 -0.1236 -0.1811  0.1112
20735W        W63673   6.030   3.825  25.103  0.0630 -0.0883  0.1755
20736W        W63674   6.776   3.714  25.881  0.3053 -0.0281 -0.0406
20737W        W63675   5.789   3.148  26.314  0.0066  0.2694  0.0704
20738W        W63676   5.266   2.153  22.546 -0.2491 -0.0538  0.2705
20739W        W63677   6.878   3.419  27.097  0.0137 -0.3024 -0.0290
20740W        W63678   6.059   2.384  25.093 -0.0518 -0.1428 -0.1818
20741W        W63679   6.157   2.651  26.481 -0.1227 -0.3588 -0.2125
20742W        W63680   4.748  34.630  25.368  0.2424  0.1385 -0.0266
20743W        W63681   4.595   3.385  24.761 -0.0069  0.3821 -0.3348
20744W        W63682   6.053   1.043  25.398  0.0115  0.1560 -0.1489
20745W        W63683   4.324   2.989  27.406 -0.4562  0.0648  0.3272
20746W        W63684   5.711   1.754  26.852  0.0208  0.1324  0.1412
20747W        W63685   7.892   0.279  28.349  0.0994 -0.1369 -0.1092
20748W        W63686   4.909   3.089  23.283 -0.0287  0.1534  0.0407
20749W        W63687   5.611   1.323  24.545 -0.0405 -0.0470 -0.2052
20750W        W63688   3.846  33.898  23.233  0.2292 -0.0140  0.3439
20751W        W63689   7.278   0.147  25.505  0.1880  0.0363 -0.1475
20752W        W63690   5.344   0.895  25.942  0.0221  0.0090 -0.0159
20753W        W63691   5.299   3.862  24.247 -0.1169 -0.0823  0.1480
20754W        W63692   5.206  34.665  26.759 -0.0013  0.3895 -0.3940
20755W        W63693   7.610   2.025  28.466  0.0423  0.0827  0.0742
20756W        W63694   5.393   1.042  25.152 -0.0442  0.0472  0.1963
20757W        W63695   5.087  34.466  26.294 -0.1252  0.1152 -0.2946
20758W        W63696   5.404   1.382  25.974 -0.1181 -0.3507  0.0099
20759W        W63697   3.867   2.127  24.372  0.1325 -0.1638  0.1451
20760W        W63698   7.005   3.574  24.976  0.3360 -0.0264  0.1896
20761W        W63699   7.186   3.584  25.540  0.0588  0.1127  0.1565
20762W        W63700   6.753   3.334  23.725  0.1700  0.2195 -0.1287
20763W        W63701   4.114   0.452  25.313  0.0503 -0.0103  0.1958
20764W        W63702   5.522   1.989  28.706  0.2859 -0.1560 -0.3911
20765W        W63703   5.364   0.436  26.734 -0.1228 -0.0388  0.0541
20766W        W63704   5.131   0.661  25.477 -0.2908 -0.0507  0.1342
20767W        W63705   7.741   2.746  27.809 -0.1724 -0.0389 -0.1032
20768W        W63706   4.013   2.517  26.482  0.1044 -0.2007 -0.0131
20769W        W63707   6.735   1.172  25.197  0.0229  0.0376  0.0607
20770W        W63708   5.052   0.716  26.457  0.2034  0.0683 -0.1646
20771W        W63709   5.723   4.385  26.043  0.0366  0.0393  0.0433
20772W        W63710   6.912   3.136  24.210  0.1151 -0.4516  0.0782
20773W        W63711   6.115   0.651  27.273 -0.2093  0.0751 -0.1586
20774W        W63712   6.156   1.492  25.556  0.1325 -0.2178  0.1492
20775W        W63713   5.552   2.214  23.491 -0.2334 -0.1969 -0.1111
20776W        W63714   4.968   0.851  24.900  0.3165  0.0416 -0.0495
20777W        W63715   6.746   4.086  25.211 -0.0572  0.2975 -0.1603
20778W        W63716   8.603   0.002  24.021  0.0658  0.0039 -0.2550
20779W        W63717   4.226   4.024  24.428 -0.1593 -0.0914 -0.0854
20780W        W63718   5.605  34.668  26.421  0.3842 -0.1837 -0.2349
20781W        W63719   7.062   0.992  28.253  0.3582 -0.0482  0.0282
20782W        W63720   4.322   2.385  22.994  0.0882  0.2237 -0.2517
20783W        W63721   4.985   0.563  25.992 -0.1503  0.1206 -0.2585
20784W        W63722   5.894   2.815  23.847  0.0267  0.0010 -0.6024
20785W        W63723   4.182  34.521  25.052 -0.0668 -0.4492 -0.3720
20786W        W63724   5.781   1.801  24.638 -0.1802  0.1000  0.1996
20787W        W63725   7.703   0.338  23.761 -0.1394 -0.1294 -0.3603
20788W        W63726   3.712  34.329  25.988 -0.0687 -0.0168 -0.2026
20789W        W63727   6.964   1.115  25.921  0.1833  0.0106  0.2784
20790W        W63728   5.934   1.269  24.952  0.1001  0.0902  0.2662
20791W        W63729   6.535   2.549  25.283 -0.2782 -0.0170 -0.0098
20792W        W63730   7.648   1.057  24.152  0.1983 -0.0323 -0.0868
20793W        W63731   7.504   2.711  23.694  0.0463 -0.1589  0.0212
20794W        W63732   5.952   1.594  27.256 -0.1581  0.2825 -0.2311
20795W        W63733   4.435   0.766  24.831 -0.2097 -0.4937  0.2373
20796W        W63734   5.252   0.523  27.523  0.1747 -0.2800 -0.0010
20797W        W63735   4.581   0.369  26.104  0.2445 -0.2313 -0.0076
20798W        W63736   6.279   1.660  26.737  0.0937  0.3075 -0.1402
20799W        W63737   3.813   0.039  24.497 -0.0760  0.0629 -0.1478
20800W        W63738   6.174   0.527  24.582  0.1517  0.2214 -0.6281
20801W        W63739   5.992   2.351  26.081  0.1486 -0.2127 -0.1307
20802W        W63740   5.356   2.569  23.901 -0.3335  0.1138  0.0706
20803W        W63741   7.735  34.631  26.495 -0.2760  0.3127  0.0094
20804W        W63742   7.114   3.130  25.218  0.1813 -0.0005  0.2561
20805W        W63743   6.870   3.225  26.582  0.4045 -0.1692 -0.1520
20806W        W63744   5.404   2.901  25.958 -0.0795 -0.0956 -0.2370
20807W        W63745   4.427   1.650  26.741  0.2558 -0.1341 -0.0253
20808W        W63746   3.970   0.754  24.507  0.0722 -0.1582 -0.3403
20809W        W63747   4.877   3.587  25.723 -0.1212 -0.2363 -0.2010
20810W        W63748   4.990   2.925  25.483  0.0407  0.0073 -0.2908
20811W        W63749   4.373  33.620  24.479 -0.2320 -0.1844  0.0437
20812W        W63750   8.376   3.818  25.708  0.1074 -0.1728 -0.0568
20813W        W63751   6.708   0.916  23.531  0.0782 -0.1006  0.1327
20814W        W63752   4.628   1.317  27.134 -0.0910  0.2653 -0.0540
20815W        W63753   6.372   0.374  27.697 -0.0802 -0.0930  0.1317
20816W        W63754   6.706   1.823  26.614 -0.1342  0.0024 -0.2085
20817W        W63755   5.953  34.326  25.068  0.0446 -0.0923  0.0435
20818W        W63756   3.818   0.490  23.606 -0.2501  0.1887  0.4496
20819W        W63757   7.062   4.418  25.420 -0.0032  0.0283 -0.1411
20820W        W63758   4.661   3.391  26.290 -0.0875 -0.0608 -0.0411
20821W        W63759   3.566   1.184  24.954  0.1747 -0.0554  0.1846
20822W        W63760   5.196   1.784  24.650 -0.0020 -0.0407  0.0928
20823W        W63761   5.575  34.640  25.776  0.1834 -0.2161 -0.0386
20824W        W63762   3.224   1.352  28.305 -0.1523  0.1828  0.0179
20825W        W63763   5.562   1.696  28.287 -0.2154  0.0835 -0.2356
20826W        W63764   3.003   0.375  24.590 -0.0235  0.1973 -0.0091
20827W        W63765   5.364   3.796  25.801  0.1410  0.1016  0.1737
20828W        W63766   6.577   0.805  24.429  0.1534  0.1575  0.3336
20829W        W63767   8.014   0.200  24.164  0.1886  0.1274  0.1439
20830W        W63768   4.631   1.857  27.198  0.2270  0.0072 -0.0744
20831W        W63769   5.417   1.743  23.726 -0.0066 -0.1494  0.1841
20832W        W63770   5.511   0.587  23.556  0.1719  0.1418 -0.1153
20833W        W63771   4.566  34.661  24.678 -0.1762 -0.1560  0.1888
20834W        W63772   3.763   2.522  27.814  0.0667 -0.0647 -0.2965
20835W        W63773   5.636   2.895  25.459 -0.0577 -0.1143 -0.0334
20836W        W63774   6.282   2.542  24.636 -0.0676 -0.1570 -0.0858
20837W        W63775   5.164   1.072  22.847 -0.0284 -0.1618  0.3303
20838W        W63776   7.672   2.101  24.527  0.1000  0.0179 -0.0587
20839W        W63777   5.738   1.130  26.319  0.2037  0.0933  0.2069
20840W        W63778   5.554   1.897  27.421  0.0542 -0.1826 -0.1157
20841W        W63779   6.333   1.680  24.672 -0.2908 -0.0144  0.3073
20842W        W63780   4.864  34.137  26.583  0.1878  0.1215  0.2481
20843W        W63781   4.656   0.661  23.988 -0.0037 -0.4854  0.2485
20844W        W63782   6.670  34.487  26.133 -0.2348 -0.0004  0.1841
20845W        W63783   3.956   1.643  24.138  0.0295  0.0978 -0.2261
20846W        W63784   6.685   1.454  25.622  0.1998 -0.1766 -0.1346
20847W        W63785   5.918   0.858  25.918  0.0279  0.4277  0.6869
20848W        W63786   6.318  33.975  25.362  0.3371 -0.1589 -0.1482
20849W        W63787   7.140   1.638  26.922  0.1795 -0.0660  0.2376
20850W        W63788   6.192   0.613  26.332  0.1419  0.2702 -0.0185
20851W        W63789   6.456   1.558  25.170  0.2671  0.0467  0.2134
20852W        W63790   4.287   2.106  20.860  0.0201 -0.1308  0.0594
20853W        W63791   6.872   0.215  27.552 -0.2272  0.1530  0.1362
20854W        W63792   5.059   1.127  27.540  0.0755 -0.3248  0.3349
20855W        W63793   5.431   3.060  27.262  0.3220  0.2001 -0.1495
20856W        W63794   7.444   2.394  25.488  0.3854 -0.0637  0.0077
20857W        W63795   7.615   1.785  23.356  0.0456 -0.2336 -0.1969
20858W        W63796   5.818   1.886  29.143  0.1402  0.0026  0.3578
20859W        W63797   3.937  33.310  24.488 -0.0726 -0.0176 -0.0798
20860W        W63798   4.333   3.589  25.866  0.0229 -0.1047 -0.4264
20861W        W63799   6.359   3.065  24.744  0.0978  0.3045 -0.1068
20862W        W63800   5.502  34.320  25.308  0.0876 -0.0622 -0.0221
20863W        W63801   5.291   3.362  26.119  0.0110 -0.2228  0.0129
20864W        W63802   5.457   3.141  24.105 -0.0701  0.0796  0.0967
20865W        W63803   6.486   1.099  27.788  0.0795  0.0609  0.0327
20866W        W63804   5.150   2.132  23.985 -0.0030  0.0302  0.1528
20867W        W63805   7.347  33.867  25.309  0.0602  0.0791  0.1508
20868W        W63806   4.698   2.887  25.090 -0.0294  0.1706  0.0209
20869W        W63807   4.890   0.156  24.293 -0.0135  0.0657 -0.1284
20870W        W63808   4.058   1.192  24.755 -0.0296 -0.1142  0.1186
20871W        W63809   4.803  33.891  24.662  0.3812  0.2984  0.1843
20872W        W63810   7.029   2.532  23.570 -0.2721 -0.0565 -0.0620
20873W        W63811   2.800   0.312  25.995 -0.0236  0.1732  0.0704
20874W        W63812   3.826  33.347  25.408 -0.1888 -0.0989  0.1293
20875W        W63813   2.012   2.995  25.375 -0.1653  0.0282  0.0619
20876W        W63814   6.331   2.431  25.724 -0.0140 -0.0158  0.2649
20877W        W63815   6.855   0.432  23.682  0.2942 -0.1465  0.0526
20878W        W63816   7.535   2.890  24.974  0.0098 -0.0815 -0.0613
20879W        W63817   5.565   0.954  29.073 -0.0968  0.0261  0.5269
20880W        W63818   5.828   0.646  25.038  0.1619 -0.1371  0.1380
20881W        W63819   7.846   0.540  28.986  0.3880  0.0805 -0.1804
20882W        W63820   6.644   1.103  24.042  0.3751 -0.1841  0.1219
20883W        W63821   3.920   2.759  23.378 -0.1284 -0.0515 -0.2229
20884W        W63822   5.376   2.372  27.001 -0.0007 -0.1313  0.1245
20885W        W63823   4.474   1.480  23.446  0.2184 -0.2609  0.1270
20886W        W63824   4.462   3.006  24.190  0.0578  0.4011 -0.0517
20887W        W63825   5.072   1.615  27.483  0.4322  0.0772  0.3238
20888W        W63826   7.830   2.909  27.302  0.2257 -0.0897 -0.3131
20889W        W63827   5.094   0.126  25.780  0.0170 -0.0758 -0.0171
20890W        W63828   4.598   0.306  25.600  0.2055 -0.1195  0.3004
20891W        W63829   5.481   2.297  25.950 -0.2479 -0.0270 -0.0363
20892W        W63830   6.431   0.385  26.772 -0.1495  0.0412  0.3262
20893W        W63831   5.607   0.608  26.287  0.3004  0.0397 -0.0839
20894W        W63832   5.863   2.351  28.816  0.0471  0.2871  0.2692
20895W        W63833   5.311  33.823  25.582 -0.0639 -0.1701  0.1458
20896W        W63834   7.557   1.520  25.110 -0.0358 -0.0169  0.0197
20897W        W63835   6.032   0.837  27.832 -0.0602 -0.2768  0.1079
20898W        W63836   5.752   2.218  23.935  0.1036 -0.0863  0.2990
20899W        W63837   5.231   1.882  27.069  0.0794  0.0500 -0.0060
20900W        W63838   5.139   1.253  24.699  0.3508  0.0202  0.0819
20901W        W63839   5.800   0.803  26.945  0.0839 -0.0659  0.0572
20902W        W63840   6.334   1.086  25.851 -0.1536 -0.0714  0.0079
20903W        W63841   5.961   2.857  24.982  0.3889  0.1138 -0.0629
20904W        W63842   4.025   1.996  26.694  0.0363  0.0187  0.2984
20905W        W63843   6.491  34.100  23.153 -0.0027 -0.1683  0.1893
20906W        W63844   6.207   2.640  22.462 -0.1574 -0.3618 -0.1332
20907W        W63845   6.641   0.385  24.874 -0.1416 -0.2353  0.0832
20908W        W63846   7.233  34.124  26.247  0.2963 -0.2636  0.1335
20909W        W63847   6.819   1.427  23.330  0.2207  0.0433  0.1363
20910W        W63848   7.425  33.706  27.309  0.1051 -0.0127  0.0414
20911W        W63849   4.396   0.107  27.067  0.2768 -0.5839 -0.5042
20912W        W63850   6.946   1.669  25.228  0.0160  0.0790  0.2235
20913W        W63851   4.752   1.664  26.395 -0.4248 -0.0558 -0.0017
20914W        W63852   6.665   2.790  26.617 -0.0956 -0.3044 -0.0926
20915W        W63853   4.520   2.314  26.391 -0.0592  0.0227 -0.3025
20916W        W63854   4.494   0.886  25.293 -0.1019 -0.2077 -0.1408
20917W        W63855   3.552   1.030  24.059  0.1734 -0.0472  0.1436
20918W        W63856   5.392   3.133  26.613 -0.3125  0.1133  0.1419
20919W        W63857   6.568   2.897  25.673 -0.3351  0.0389 -0.1773
20920W        W63858   6.537   2.180  24.305 -0.0285  0.3487 -0.3403
20921W        W63859   7.771   1.286  25.496  0.1878  0.0451  0.0004
20922W        W63860   5.461   2.728  24.974  0.3357  0.0199 -0.1609
20923W        W63861   6.220   0.413  22.965  0.0232  0.1636  0.1214
20924W        W63862   6.352   1.924  23.962  0.1049  0.2149 -0.3051
20925W        W63863   4.158   1.731  24.580 -0.2583  0.2839 -0.0653
20926W        W63864   5.896   1.313  26.835  0.0958 -0.0220  0.2493
20927W        W63865   7.151   0.670  25.574 -0.0063  0.0604  0.2033
20928W        W63866   5.084  33.911  26.144 -0.0946 -0.0537  0.1847
20929W        W63867   6.311   1.264  27.234 -0.1434  0.2597 -0.2030
20930W        W63868   6.775   1.320  26.687  0.0993  0.1347 -0.2043
20931W        W63869   5.658   1.589  27.793 -0.0573  0.3190  0.0331
20932W        W63870   4.168   1.277  26.994 -0.2125  0.0639 -0.3358
20933W        W63871   6.321   2.527  26.995 -0.1447 -0.4652  0.1446
20934W        W63872   7.719   0.543  24.936 -0.0621 -0.2031 -0.4490
20935W        W63873   5.634  34.151  25.804  0.1714  0.3531  0.1092
20936W        W63874   6.753   2.483  24.829 -0.0339  0.1165 -0.0002
20937W        W63875   5.725   0.475  23.131 -0.4036 -0.2218 -0.2639
20938W        W63876   4.537   0.680  26.505  0.1281 -0.0397 -0.0377
20939W        W63877   7.580   1.765  29.005  0.1465  0.0373  0.0655
20940W        W63878   4.125   0.703  23.938  0.2972 -0.0291 -0.0255
20941W        W63879   6.421   0.136  25.905  0.1032 -0.0952 -0.1023
20942W        W63880   6.521   2.394  23.756 -0.0728 -0.0222 -0.0002
20943W        W63881   6.626   0.396  24.143 -0.2606 -0.1731 -0.0560
20944W        W63882   5.466  34.467  24.684  0.1427  0.1432 -0.1604
20945W        W63883   4.942   1.161  25.327  0.1744  0.3502  0.0058
20946W        W63884   5.360   4.108  26.256  0.0548  0.0256  0.3509
20947W        W63885   4.378  34.621  22.405  0.0267 -0.1863 -0.3660
20948W        W63886   6.154   1.543  24.186 -0.2677  0.0049 -0.1121
20949W        W63887   6.540   1.786  27.613  0.2649 -0.2602 -0.2050
20950W        W63888   6.827   2.917  27.440  0.0938  0.2641 -0.0822
20951W        W63889   5.419  33.777  24.015  0.2709 -0.3913 -0.2355
20952W        W63890   7.077   0.656  27.356  0.2824  0.0402 -0.1032
20953W        W63891   6.003   1.739  25.052  0.1706 -0.4039 -0.0799
20954W        W63892   5.712   0.063  25.050 -0.2028  0.3385  0.0998
20955W        W63893   5.609   2.268  24.871 -0.0985  0.0598 -0.1869
20956W        W63894   3.763   1.808  25.456  0.1022  0.0393 -0.0620
20957W        W63895   5.458   2.580  26.478  0.1555  0.0736 -0.2556
20958W        W63896   6.447  34.140  27.586 -0.0679 -0.1653 -0.0891
20959W        W63897   6.677   1.634  27.117 -0.0842 -0.1478  0.1535
20960W        W63898   5.366  34.189  26.777  0.3381 -0.0449  0.0970
20961W        W63899   7.518   2.310  26.420  0.3565  0.1515 -0.2077
20962W        W63900   5.849   2.270  26.639  0.2697  0.2165  0.0020
20963W        W63901   4.441   0.877  25.923 -0.3264 -0.1540 -0.0488
20964W        W63902   5.931   3.588  26.598  0.1006 -0.1917  0.0297
20965W        W63903   6.625   3.028  25.150  0.3180 -0.0908  0.1177
20966W        W63904   5.186   1.571  25.468 -0.2407  0.2851 -0.1697
20967W        W63905   2.898   2.805  26.599 -0.0048  0.3169  0.4442
20968W        W63906   4.963   2.396  28.673  0.0387 -0.1241  0.1095
20969W        W63907   6.067   1.740  23.661  0.0471 -0.0144 -0.0412
20970W        W63908   3.624  33.917  24.157  0.2761 -0.3372  0.0043
20971W        W63909   6.892   2.095  23.902  0.1021 -0.3443 -0.0081
20972W        W63910   4.565   2.808  26.595 -0.3900 -0.2037 -0.3354
20973W        W63911   3.818   2.387  26.935  0.2621 -0.0565 -0.0931
20974W        W63912   4.989   3.013  24.218 -0.1224 -0.1152 -0.1341
20975W        W63913   7.422   3.045  24.141 -0.0388  0.1766 -0.0670
20976W        W63914   5.858   0.934  23.600 -0.1122  0.0889 -0.4041
20977W        W63915   5.770   3.376  25.858  0.4230  0.1067  0.2476
20978W        W63916   6.022   0.914  23.082  0.1898 -0.0420 -0.1097
20979W        W63917   4.497   2.221  24.924  0.0167  0.1359  0.0397
20980W        W63918   2.800   1.424  23.454 -0.2807  0.0108  0.3145
20981W        W63919   6.837   3.166  24.675  0.2226 -0.2673  0.0100
20982W        W63920   6.165   4.578  24.348  0.0146  0.0558 -0.4054
20983W        W63921   6.184   2.960  26.138  0.0481 -0.1399  0.3010
20984W        W63922   6.810  34.579  24.117 -0.2806  0.2574  0.0563
20985W        W63923   7.143   3.335  26.017  0.1052  0.1189  0.0387
20986W        W63924   6.676   1.553  23.800 -0.1423  0.2385  0.1808
20987W        W63925   6.093   1.947  25.782 -0.2136 -0.0594 -0.3294
20988W        W63926   4.917   0.989  26.870 -0.2092 -0.1624 -0.0242
20989W        W63927   4.600  34.533  23.466 -0.1366 -0.0142 -0.2799
20990W        W63928   5.292   1.961  27.852  0.0505 -0.0027  0.1334
20991W        W63929   6.884  32.982  26.136 -0.1638 -0.0503  0.2312
20992W        W63930   4.816   4.699  27.584 -0.1591 -0.0808  0.2275
20993W        W63931   5.356   4.282  23.884 -0.0332  0.0149  0.1700
20994W        W63932   4.943   1.643  23.441 -0.3647  0.0126  0.0198
20995W        W63933   4.663   2.134  25.906 -0.0033 -0.1427  0.1753
20996W        W63934   6.252  34.619  26.900 -0.1513  0.0299  0.1679
20997W        W63935   6.483   3.293  23.178  0.3581  0.0841 -0.1031
20998W        W63936   6.792   0.307  27.082 -0.1530  0.0290 -0.1213
20999W        W63937   4.913   4.325  26.243 -0.1163  0.3289  0.0080
21000W        W63938   4.997   3.452  26.783 -0.0877 -0.0358 -0.0786
21001W        W63939   6.384   3.466  25.111 -0.0542 -0.1020  0.1896
21002W        W63940   3.420   0.075  24.132  0.0976  0.1144 -0.0435
21003W        W63941   6.573   1.247  24.726  0.0412  0.1871 -0.3391
21004W        W63942   5.666   0.787  28.237 -0.3404 -0.0765 -0.2124
21005W        W63943   5.579   0.414  27.171  0.1150  0.0290  0.1605
21006W        W63944   6.170   0.232  25.015 -0.1685 -0.2217 -0.1888
21007W        W63945   7.066   0.825  24.147 -0.2321  0.4577  0.1678
21008W        W63946   5.750   2.391  25.524  0.1674  0.2385  0.3903
21009W        W63947   3.953   2.087  27.688  0.1501 -0.0451  0.0112
21010W        W63948   6.957   2.084  23.370 -0.2850 -0.0738 -0.2172
21011W        W63949   7.351   2.124  26.970 -0.0600  0.4084  0.0683
21012W        W63950   6.257   1.234  23.706 -0.4872  0.2169  0.0711
21013W        W63951   6.391   3.197  26.514 -0.1622  0.1031  0.0391
21014W        W63952   4.490  34.138  25.453 -0.4416  0.0425  0.2478
21015W        W63953   5.004   0.751  23.598  0.0581  0.2552  0.0640
21016W        W63954   4.815   1.600  25.839 -0.4068  0.1423 -0.2956
21017W        W63955   5.881   0.226  26.105 -0.0337 -0.2411 -0.1621
21018W        W63956   7.098   2.893  25.704  0.0457  0.1112 -0.3261
21019W        W63957   4.684  34.528  25.895 -0.0733 -0.2029 -0.2617
21020W        W63958   8.264   1.157  23.387 -0.0894  0.1266  0.2500
21021W        W63959   6.496   2.056  25.400 -0.3240 -0.1448 -0.0724
21022W        W63960   6.000   3.458  24.099  0.0725 -0.0677  0.2680
21023W        W63961   7.018   1.184  24.458  0.1401  0.0220 -0.1536
21024W        W63962   7.251   3.943  25.198 -0.0233  0.0996  0.0180
21025W        W63963   2.938   1.033  27.155 -0.4055  0.0152  0.2011
21026W        W63964   5.951   3.301  24.818  0.1526  0.2057 -0.0675
21027W        W63965   8.083   0.967  25.340 -0.1826  0.0152  0.1718
21028W        W63966   4.766  33.893  25.762  0.2305 -0.1389 -0.2279
21029W        W63967   4.194  34.189  25.843  0.1855  0.0143 -0.4121
21030W        W63968   4.615   2.683  25.850 -0.4473  0.3805  0.0162
21031W        W63969   6.968  34.185  26.632 -0.0734 -0.0564 -0.3937
21032W        W63970   7.256   1.170  26.858  0.0291 -0.1019  0.0812
21033W        W63971   5.641   3.226  23.611 -0.3761  0.0918  0.0120
21034W        W63972   6.189  34.070  26.891 -0.1865 -0.2353 -0.2558
21035W        W63973   5.903   2.221  27.130 -0.0451  0.1358  0.1428
21036W        W63974   5.020   2.283  27.357  0.2430 -0.0140 -0.0859
21037W        W63975   5.647   1.703  24.157  0.0775  0.3424 -0.1398
21038W        W63976   4.225   2.381  25.933  0.0460  0.0597  0.3384
21039W        W63977   5.786   2.579  24.502 -0.2288 -0.0905 -0.0829
21040W        W63978   5.038   2.277  26.349 -0.0132 -0.0863 -0.3396
21041W        W63979   6.191   4.262  25.455 -0.1475  0.2173  0.0684
21042W        W63980   5.477   0.441  25.828  0.1406 -0.4344  0.0749
21043W        W63981   6.859   2.435  25.688 -0.2016  0.3034  0.2047
21044W        W63982   5.090  34.456  25.050  0.1905 -0.1707  0.1897
21045W        W63983   7.921   0.146  25.653 -0.2469 -0.0776  0.2958
21046W        W63984   6.032   0.132  24.185  0.2596 -0.2300  0.3466
21047W        W63985   5.813   1.196  28.687  0.1305 -0.1950  0.1898
21048W        W63986   2.317   1.627  23.510 -0.2645  0.0927 -0.0080
21049W        W63987   4.443   0.906  24.328  0.0200 -0.1123  0.0288
21050W        W63988   2.878   2.063  24.568  0.3245 -0.1459  0.2621
21051W        W63989   5.148   0.070  27.766  0.0059 -0.1402  0.2114
21052W        W63990   3.609   0.087  27.082  0.0296 -0.2056  0.2979
21053W        W63991   4.981   2.050  25.107  0.1696 -0.1406  0.3822
21054W        W63992   4.757   0.433  24.687  0.2037 -0.0381 -0.0529
21055W        W63993   8.051   2.367  24.237 -0.2605 -0.1225 -0.1229
21056W        W63994   4.459  34.308  26.813  0.2316 -0.1419  0.0101
21057W        W63995   3.349   0.942  25.405 -0.1979  0.0456  0.1436
21058W        W63996   5.247   2.494  25.349 -0.0286 -0.1470 -0.1277
21059W        W63997   6.472   3.441  24.386  0.2450 -0.0472 -0.2192
21060W        W63998   3.935  33.005  24.914 -0.2280 -0.1841 -0.1153
21061W        W63999   7.444   2.784  29.004 -0.0335  0.0152 -0.1084
21062W        W64000   4.038   2.725  24.162  0.0068 -0.2680 -0.0192
21063W        W64001   4.975   0.238  27.219  0.2327  0.2692  0.0066
21064W        W64002   7.677   1.221  28.926 -0.2452 -0.0396 -0.1139
21065W        W64003   3.736  34.667  23.712  0.3105  0.3615  0.2935
21066W        W64004   6.012   0.133  27.255  0.1593  0.0320 -0.2834
21067W        W64005   5.591   3.482  24.452 -0.1252 -0.0168 -0.0047
21068W        W64006   7.407   2.832  23.237 -0.2959  0.0954 -0.1478
21069W        W64007   5.311   1.686  26.421 -0.0874 -0.1970 -0.2755
21070W        W64008   5.675   3.835  27.255 -0.0236  0.1913 -0.1713
21071W        W64009   4.342  33.508  27.517 -0.1184 -0.0076 -0.0664
21072W        W64010   6.713   1.565  24.327 -0.1112  0.0929  0.2191
21073W        W64011   5.725   3.266  27.588 -0.0747  0.1845  0.0952
21074W        W64012   6.619   2.747  24.360 -0.0386  0.3032  0.1443
21075W        W64013   5.900   0.298  26.734  0.1909 -0.2880 -0.1317
21076W        W64014   6.240   0.778  24.005  0.0673  0.1105 -0.2884
21077W        W64015   4.563   1.382  27.774 -0.1146  0.3112 -0.0935
21078W        W64016   4.142   2.811  26.862 -0.2631  0.2824  0.1973
21079W        W64017   7.454   0.931  25.212  0.1846  0.2732  0.0449
21080W        W64018   4.838   0.434  25.165 -0.3409 -0.0461 -0.0105
21081W        W64019   6.536   0.266  25.384 -0.0044 -0.1269 -0.0771
21082W        W64020   7.171   1.723  23.601 -0.1770 -0.0308  0.1547
21083W        W64021   4.761   0.748  27.384  0.1265  0.0580  0.3100
21084W        W64022   5.733   1.119  24.028 -0.2808 -0.2276 -0.2267
21085W        W64023   6.114   1.296  28.203 -0.2789 -0.0861 -0.1214
21086W        W64024   6.586   2.609  26.091 -0.0781  0.3231  0.1352
21087W        W64025   6.514   1.647  28.631 -0.4176 -0.0731 -0.0658
21088W        W64026   5.778   0.709  24.258  0.2747 -0.3617  0.0200
21089W        W64027   7.975   1.788  24.274  0.0079  0.0061  0.1829
21090W        W64028   6.954   3.676  26.345  0.0533 -0.2788 -0.1045
21091W        W64029   6.702   2.178  26.238  0.1844  0.0320 -0.2470
21092W        W64030   4.961   3.806  26.295 -0.0033  0.1332  0.0376
21093W        W64031   6.323   1.212  26.378 -0.1384  0.0988  0.0913
21094W        W64032   4.690  33.848  27.076 -0.0649  0.0323 -0.0371
21095W        W64033   3.880   0.793  25.006 -0.0455 -0.0777 -0.0592
21096W        W64034   6.111   1.118  24.512  0.0139 -0.0170 -0.0837
21097W        W64035   7.170  34.584  26.455  0.3180  0.1894 -0.0366
21098W        W64036   5.315   0.150  25.339 -0.3070 -0.3778 -0.1625
21099W        W64037   4.048   0.907  23.465 -0.1424 -0.2551 -0.1408
21100W        W64038   3.313   2.835  26.308 -0.1858  0.0564  0.1907
21101W        W64039   6.226   1.369  28.934 -0.0283  0.0342  0.5074
21102W        W64040   5.812   1.913  29.753  0.1679 -0.2337 -0.0748
21103W        W64041   5.480   1.105  27.828  0.0834 -0.0142 -0.2246
21104W        W64042   7.055  33.705  26.509 -0.3198 -0.1481  0.1927
21105W        W64043   7.603   1.457  27.699 -0.1218 -0.2453  0.0564
21106W        W64044   4.024   0.693  28.783  0.0843  0.1543  0.1450
21107W        W64045   6.711   3.022  27.950  0.0765 -0.1095 -0.0020
21108W        W64046   4.470  33.424  31.538 -0.1452 -0.1638  0.5329
21109W        W64047   7.229   3.308  29.956 -0.2321 -0.3074 -0.1125
21110W        W64048   7.385   3.309  30.531  0.0372 -0.0588 -0.2731
21111W        W64049   5.183   1.932  26.016  0.2645 -0.0651 -0.0041
21112W        W64050   6.987   1.235  30.211  0.0076  0.4535  0.2168
21113W        W64051   6.237   2.591  29.108 -0.0764 -0.1654 -0.2395
21114W        W64052   4.457  34.335  27.361  0.1324  0.1230 -0.0485
21115W        W64053   4.495  34.515  30.452  0.0849  0.0456 -0.0084
21116W        W64054   7.187   1.242  29.654  0.0717  0.0683  0.2357
21117W        W64055   2.399   1.444  28.860 -0.0690 -0.0791 -0.0816
21118W        W64056   5.511   0.233  30.430 -0.0881  0.1449  0.1709
21119W        W64057   5.501   0.404  29.023 -0.1253 -0.0599  0.0901
21120W        W64058   5.929   3.157  29.136 -0.1288 -0.0163  0.0080
21121W        W64059   6.733   0.153  29.204 -0.0088  0.1707 -0.2427
21122W        W64060   6.425   1.195  30.609 -0.2275 -0.0652  0.3111
21123W        W64061   6.174   3.073  28.211  0.1462 -0.2690  0.5281
21124W        W64062   5.869   2.627  28.349  0.1479  0.1873 -0.2455
21125W        W64063   4.147   1.503  29.442  0.1797 -0.4146  0.0768
21126W        W64064   4.921   1.927  29.958  0.1931 -0.0736  0.2492
21127W        W64065   7.295  34.055  29.940 -0.2966 -0.1714 -0.0258
21128W        W64066   7.178   2.224  28.318  0.3949  0.5060 -0.0751
21129W        W64067   6.151   3.528  27.094  0.0718 -0.0444 -0.2016
21130W        W64068   7.074   2.620  29.347 -0.2542  0.0842  0.4174
21131W        W64069   7.141   1.299  31.230 -0.0055 -0.1262  0.0242
21132W        W64070   4.740   3.240  27.828 -0.0895  0.1001  0.2424
21133W        W64071   4.616   3.500  29.398  0.0606 -0.0953 -0.1874
21134W        W64072   5.236   3.144  27.742 -0.3678  0.0381  0.3063
21135W        W64073   8.274   3.118  28.488  0.3452  0.4206 -0.0514
21136W        W64074   7.063   2.594  31.230  0.0869 -0.1840  0.1363
21137W        W64075   5.801   3.952  31.089 -0.0098  0.0872 -0.0608
21138W        W64076   3.584   4.543  27.082  0.2810  0.2204  0.2173
21139W        W64077   7.189   3.414   0.251  0.1023 -0.4125 -0.3666
21140W        W64078   4.822   2.401  31.265  0.1307 -0.1043 -0.1331
21141W        W64079   5.408   1.633  29.763 -0.2576  0.0089  0.4319
21142W        W64080   6.297   0.247  28.517  0.0856 -0.2273  0.1373
21143W        W64081   4.996   3.799  28.368  0.2165  0.2134 -0.2808
21144W        W64082   6.632   1.797  29.598 -0.1039  0.0877 -0.3207
21145W        W64083   5.773   1.815  30.295  0.4789  0.2398  0.2864
21146W        W64084   4.169   2.775  27.844  0.1973  0.2277  0.0756
21147W        W64085   7.260   1.038   0.205 -0.1333 -0.3159 -0.0527
21148W        W64086   6.866   2.623  28.414  0.2116  0.0915  0.3614
21149W        W64087   6.599   1.122  28.441 -0.0331 -0.0195  0.1105
21150W        W64088   5.697  34.515  26.946 -0.0117 -0.3212  0.0650
21151W        W64089   5.628   1.443  29.102 -0.1211  0.3879 -0.4098
21152W        W64090   4.448   0.905  27.949  0.0158 -0.0337 -0.1217
21153W        W64091   6.177   3.587  29.233  0.1514  0.1935  0.0282
21154W        W64092   6.131  34.484  29.934 -0.0811 -0.0266  0.1040
21155W        W64093   7.157   3.847  31.158 -0.1854  0.0453  0.1128
21156W        W64094   4.710   1.707  28.178  0.2321 -0.0256  0.2290
21157W        W64095   6.978   0.468  29.920  0.0388 -0.0003  0.0717
21158W        W64096   4.784   1.272  30.821  0.3389  0.0676 -0.0687
21159W        W64097   5.018   0.363  28.991  0.2053 -0.2916  0.0427
21160W        W64098   7.387   3.729  28.448 -0.3419 -0.1255 -0.3246
21161W        W64099   8.379   3.011  29.428  0.3155 -0.0629  0.5147
21162W        W64100   6.672   2.174  28.408  0.2831  0.1519 -0.0207
21163W        W64101   4.197   0.360  27.921  0.0943  0.0892 -0.5065
21164W        W64102   5.124   1.803  30.892  0.0495 -0.1605 -0.3161
21165W        W64103   4.613  34.203   0.007 -0.1958 -0.0644  0.1829
21166W        W64104   5.927  34.539  27.704  0.1760  0.0568 -0.3565
21167W        W64105   7.594   2.426   0.915 -0.0625 -0.3604 -0.1729
21168W        W64106   5.167   3.304  29.600  0.2863 -0.0061 -0.2222
21169W        W64107   8.550   1.413  29.293  0.2817 -0.1947  0.3444
21170W        W64108   5.346   2.310  28.281  0.2536 -0.2240 -0.0812
21171W        W64109   7.465   3.184  29.532 -0.1532  0.1067  0.2352
21172W        W64110   6.583   1.525  28.127  0.0106  0.1893  0.0948
21173W        W64111   7.791  34.003  27.992  0.1229  0.0004 -0.1174
21174W        W64112   6.930   0.828  30.604  0.2866  0.1662 -0.0490
21175W        W64113   4.774   1.894  27.710  0.0297  0.0009  0.0469
21176W        W64114   5.771   2.229  28.036 -0.0671 -0.1879  0.0940
21177W        W64115   9.308   4.715  28.760  0.0129  0.0425 -0.1633
21178W        W64116   8.090   1.321  27.771 -0.3665  0.3836 -0.1362
21179W        W64117   5.382   2.647  28.697 -0.0355  0.0908 -0.0258
21180W        W64118   7.081   1.744  31.464 -0.1216 -0.1856 -0.1085
21181W        W64119   5.830   2.753  30.456  0.2780  0.1631 -0.0593
21182W        W64120   3.927   3.799  28.293  0.3922  0.0270  0.3141
21183W        W64121   4.254   2.656  29.444  0.0646  0.3879 -0.0925
21184W        W64122   4.452   3.714  27.599  0.0394  0.0389 -0.4566
21185W        W64123   4.735   0.553  29.458  0.1019  0.0049 -0.2101
21186W        W64124   7.167   2.000  29.227 -0.0482  0.1313  0.1608
21187W        W64125   6.997  34.543  27.976  0.0854  0.0612  0.0486
21188W        W64126   4.952   0.058  30.504 -0.1361  0.0851 -0.3668
21189W        W64127   7.932   0.514  29.473 -0.1869 -0.2803  0.5285
21190W        W64128   4.659   3.433  28.699 -0.2144 -0.4116  0.0229
21191W        W64129   7.112   4.978  29.075  0.0899 -0.2129  0.1064
21192W        W64130   7.774   0.310  26.922  0.4376  0.0778  0.2395
21193W        W64131   7.375   1.567  28.537 -0.3387  0.0221  0.0912
21194W        W64132   3.827   1.868  28.919 -0.1376 -0.0722 -0.1716
21195W        W64133   3.708   0.809  29.167 -0.5649 -0.3417 -0.0423
21196W        W64134   5.276   1.312  30.999  0.1397 -0.0538  0.1235
21197W        W64135   5.124  33.526  28.144 -0.0993 -0.2348  0.1145
21198W        W64136   8.285   0.499  31.374  0.0394 -0.0003 -0.2376
21199W        W64137   3.761   0.337  27.539  0.0878 -0.1432 -0.0263
21200W        W64138   7.508   0.425  29.962 -0.0430 -0.0870 -0.0104
21201W        W64139   4.835   2.052  29.055 -0.0232  0.3218  0.2381
21202W        W64140   4.186   3.340  28.542 -0.0583 -0.0965 -0.3831
21203W        W64141   7.804   0.493  31.633  0.0252  0.0726 -0.1096
21204W        W64142   6.407   2.134  27.981 -0.1213 -0.0597 -0.2391
21205W        W64143   7.287   3.064  31.381  0.1248 -0.0713  0.1109
21206W        W64144   7.696   3.142  28.251 -0.0048  0.3073  0.2104
21207W        W64145   5.620   1.649  30.735  0.1839 -0.1075 -0.2791
21208W        W64146   4.040   2.142  29.328 -0.0279  0.4049  0.0457
21209W        W64147   6.382   2.640  27.963  0.1142 -0.2267  0.1649
21210W        W64148   6.688   2.273  29.433  0.0839  0.2625 -0.1140
21211W        W64149   4.231  34.509  28.233  0.0456 -0.0849  0.1943
21212W        W64150   7.090   5.255  28.268 -0.4482 -0.3647 -0.0737
21213W        W64151   7.040   2.921  28.804  0.2537  0.0861 -0.0886
21214W        W64152   4.839   1.964  30.473 -0.2033 -0.2040 -0.0228
21215W        W64153   7.040   0.828  31.503 -0.2471  0.0998 -0.2282
21216W        W64154   7.371   1.668  30.477  0.0311  0.2982 -0.0226
21217W        W64155   6.370   1.320  29.410 -0.1784 -0.1228 -0.2204
21218W        W64156   4.185   1.026  29.151  0.0489 -0.0720  0.1630
21219W        W64157   7.068   2.918  29.764  0.0634  0.0401 -0.1918
21220W        W64158   3.750   2.929  27.139  0.2011  0.1263  0.0989
21221W        W64159   3.418   2.016  27.716 -0.0143  0.0249  0.1981
21222W        W64160   5.669   2.340  29.524  0.3587  0.2112  0.3849
21223W        W64161   7.054   0.162  29.549  0.2329 -0.2863  0.2043
21224W        W64162   3.310   1.820   0.099  0.0388  0.2901  0.0500
21225W        W64163   6.759   0.999  31.019  0.3241 -0.0017 -0.0872
21226W        W64164   2.749   2.445  28.364  0.1534 -0.1776 -0.2556
21227W        W64165   5.126   2.381  30.730 -0.2075  0.2913 -0.1032
21228W        W64166   7.691   0.626  27.441  0.2287  0.0711  0.3352
21229W        W64167   7.933   1.537  29.242  0.0748 -0.3285  0.0308
21230W        W64168   5.363   2.138  31.686  0.1204 -0.2341  0.1943
21231W        W64169   7.161   1.964  26.247  0.1902 -0.0805  0.1303
21232W        W64170   8.028  34.409  27.796 -0.0487  0.0157 -0.3222
21233W        W64171   5.310   1.282  28.378 -0.0054 -0.1498 -0.0072
21234W        W64172   5.435   2.140  29.976 -0.1534 -0.0383 -0.2692
21235W        W64173   6.721   2.181  26.960  0.2487 -0.0066 -0.0541
21236W        W64174   6.019   1.653  28.593 -0.0597 -0.0185 -0.3792
21237W        W64175   5.298   0.837  27.194 -0.0492  0.0932  0.1910
21238W        W64176   7.394   3.257  27.814  0.0158 -0.1521  0.0033
21239W        W64177   3.279   4.479  30.715 -0.3230  0.4241  0.0459
21240W        W64178   6.675   3.671   0.047 -0.0836  0.4597 -0.2037
21241W        W64179   7.451   3.261  28.654  0.0933 -0.0755 -0.0106
21242W        W64180   7.261   2.814   0.056 -0.3662 -0.0560  0.0114
21243W        W64181   5.114   1.504  28.004 -0.0244 -0.5857  0.0157
21244W        W64182   6.030  33.266  29.122 -0.0718  0.0874 -0.1164
21245W        W64183   4.743   3.261  27.244  0.2769  0.1923 -0.1793
21246W        W64184   7.307  34.585  29.878  0.1515  0.2663 -0.1792
21247W        W64185   7.146  34.568  28.556 -0.0397  0.0893  0.0515
21248W        W64186   5.784  34.284  30.734 -0.1154 -0.0905 -0.2067
21249W        W64187   7.604   0.977  31.459  0.1103  0.1102  0.0983
21250W        W64188   7.506   0.602  28.213  0.1150  0.3156  0.2458
21251W        W64189   6.648   2.116  30.380  0.1251  0.0874  0.1679
21252W        W64190   4.316   1.089  27.464  0.2553 -0.1276  0.2724
21253W        W64191   7.517   2.881  31.002  0.2457 -0.1516  0.5193
21254W        W64192   3.930   1.606  30.940  0.0512 -0.1446 -0.0580
21255W        W64193   5.509   2.145  31.082 -0.2139 -0.0026 -0.1000
21256W        W64194   6.777   2.600  30.465 -0.1389  0.0596 -0.2171
21257W        W64195   6.076   0.913  29.123  0.0657 -0.1907 -0.2762
21258W        W64196   6.301   0.784  30.882  0.2226  0.0464  0.1435
21259W        W64197   6.474  34.622  27.816 -0.2791  0.0102 -0.0091
21260W        W64198   5.296   5.363  27.225 -0.1612 -0.0759  0.1986
21261W        W64199   4.856   2.199  26.847 -0.0356  0.0227 -0.0813
21262W        W64200   5.267  33.514  30.082  0.0872 -0.2755  0.2899
21263W        W64201   4.897   2.937  30.423  0.1373 -0.0249 -0.0462
21264W        W64202   6.901   1.170  27.219  0.1135  0.0976 -0.0513
21265W        W64203   6.074   1.768  28.077  0.1066 -0.4009 -0.2825
21266W        W64204   4.686   2.727  27.906 -0.1598  0.0015  0.0382
21267W        W64205   7.789  33.964  28.594 -0.1847 -0.0860  0.0814
21268W        W64206   3.968   3.142  29.312 -0.3755  0.0338  0.0353
21269W        W64207   5.080   1.946  28.424  0.1285 -0.0145  0.0440
21270W        W64208   4.034   2.401  28.941 -0.2495  0.0818  0.0622
21271W        W64209   6.242   0.858  28.686 -0.2329 -0.1887  0.1635
21272W        W64210   6.603   1.112  29.021 -0.3368  0.3075  0.1933
21273W        W64211   5.700  34.277  31.795  0.1401 -0.1016 -0.4660
21274W        W64212   5.929   0.894  29.942  0.0404 -0.0505 -0.2612
21275W        W64213   4.573   2.763  31.570 -0.1888  0.1411 -0.3987
21276W        W64214   6.315   2.053  29.955 -0.3183  0.0157  0.2410
21277W        W64215   6.616   0.310  28.110  0.1347  0.1509  0.0279
21278W        W64216   9.125   5.053  30.356  0.0678  0.0145  0.2038
21279W        W64217   5.946   1.990  30.897  0.1101  0.3870  0.1273
21280W        W64218   3.493   2.378  27.368 -0.0369  0.1334  0.1316
21281W        W64219   6.655   1.208  31.445  0.1602 -0.0309 -0.3874
21282W        W64220   5.311  34.611  30.927 -0.0159 -0.2723 -0.0733
21283W        W64221   3.968   3.945  27.657 -0.0542  0.1577 -0.1446
21284W        W64222   6.222   2.043  29.460 -0.2199  0.1047 -0.3395
21285W        W64223   5.476   3.298  29.067 -0.2423  0.0121 -0.1298
21286W        W64224   5.238   3.573  27.365  0.0140  0.3516 -0.4042
21287W        W64225   6.045   0.327  29.939  0.0330  0.1378 -0.0176
21288W        W64226   7.873   1.961  31.256  0.0007  0.1191  0.1283
21289W        W64227   5.156   0.722  29.323 -0.0780  0.0396  0.1586
21290W        W64228   5.053   0.167  29.557  0.2432 -0.2871 -0.0390
21291W        W64229   4.607   0.060  28.701 -0.1025 -0.0804  0.4190
21292W        W64230   7.566   4.692  30.460  0.5215 -0.0400 -0.2877
21293W        W64231   7.362   0.412  30.885  0.1029 -0.0612 -0.1798
21294W        W64232   4.679   3.160  31.251  0.0890 -0.1906  0.0990
21295W        W64233   5.286   0.835  30.858  0.0552 -0.1201 -0.0257
21296W        W64234   8.440   4.299  28.658  0.1687 -0.1485 -0.0331
21297W        W64235   6.164   2.175  31.328 -0.0966 -0.3268 -0.0756
21298W        W64236   6.204   2.990  28.725  0.0540 -0.0671 -0.0940
21299W        W64237   4.271   2.386  31.330  0.1548  0.0806  0.1690
21300W        W64238   6.368   2.573  28.529  0.0870  0.0752 -0.0539
21301W        W64239   6.348   0.911  29.678  0.1651 -0.3090 -0.0093
21302W        W64240   4.215   3.476  30.635 -0.1055  0.1510 -0.1509
21303W        W64241   4.223   2.297  28.102  0.0408 -0.0115 -0.0826
21304W        W64242   4.810   2.437  29.491 -0.0431 -0.1773 -0.0346
21305W        W64243   7.398  34.401  27.680 -0.1058 -0.3532 -0.0722
21306W        W64244   7.046   2.477  26.589  0.2607  0.0544  0.0753
21307W        W64245   6.243   0.136  29.136 -0.2590 -0.1255 -0.2576
21308W        W64246   8.434  33.242  31.068  0.0387  0.3638  0.1216
21309W        W64247   6.533   0.574  29.122 -0.0791 -0.0158 -0.1553
21310W        W64248   7.188  33.606  30.925  0.1156  0.2348 -0.1250
21311W        W64249   4.868   0.407  31.421  0.1081  0.0711 -0.2163
21312W        W64250   7.423   3.163  27.174 -0.1849 -0.1236 -0.1410
21313W        W64251   4.910   1.680  29.515 -0.4906 -0.1164 -0.1547
21314W        W64252   6.946   4.136   0.931 -0.0875 -0.0631 -0.1436
21315W        W64253   5.550   1.051   0.043 -0.0235  0.0726  0.0089
21316W        W64254   6.272  34.505  28.807  0.0431 -0.0455 -0.1961
21317W        W64255   4.314   0.529  27.382 -0.1914  0.3750  0.2209
21318W        W64256   4.966   1.321  29.853 -0.0707 -0.1315 -0.2864
21319W        W64257   6.338   2.724  30.201  0.1048  0.0445  0.0409
21320W        W64258   6.044   1.952  27.583  0.0032 -0.0776  0.2518
21321W        W64259   7.582   0.068  29.418 -0.0293 -0.0835 -0.2596
21322W        W64260   5.285   1.679  30.309  0.0799  0.1756 -0.0704
21323W        W64261   5.810   1.260  29.537 -0.1134 -0.0679 -0.3449
21324W        W64262   5.121   1.250  28.960 -0.0192  0.1043  0.0098
21325W        W64263   4.419   2.485  29.934  0.1519  0.0141  0.4179
21326W        W64264   5.771   0.060  30.917 -0.3835 -0.1032  0.2311
21327W        W64265   6.567   3.017  29.883  0.1684  0.1299  0.0685
21328W        W64266   4.682   1.206  29.487  0.0228 -0.0684  0.2046
21329W        W64267   6.890   0.500  31.894 -0.2103  0.0899  0.1621
21330W        W64268   6.923   3.111  30.335  0.3003  0.1230  0.2542
21331W        W64269   5.914   0.459  30.626 -0.3068  0.0171 -0.1634
21332W        W64270   5.096   0.475  30.325  0.0459 -0.0758 -0.0702
21333W        W64271   6.337   2.860  30.719  0.1444  0.2541  0.3668
21334W        W64272   7.367   0.412  27.762  0.2117 -0.3313 -0.0144
21335W        W64273   6.999   0.270  30.413  0.1622 -0.0265 -0.1764
21336W        W64274   7.636   1.178  29.423 -0.1933  0.3785  0.0735
21337W        W64275   5.450  34.344  28.546 -0.0005  0.4222 -0.0679
21338W        W64276   6.119   2.154  28.411  0.3025  0.0940  0.1296
21339W        W64277   7.304   1.339  31.770  0.0551 -0.0221  0.1491
21340W        W64278   4.571   1.376  29.060 -0.0704  0.2227  0.1552
21341W        W64279   7.047  34.264  31.130  0.2258 -0.1787  0.2493
21342W        W64280   5.214   3.147  28.669 -0.1414  0.4258 -0.0117
21343W        W64281   6.254   2.471  29.689  0.0266 -0.2844 -0.1630
21344W        W64282   5.665   0.758  29.550 -0.1959 -0.0409  0.0749
21345W        W64283   3.556   1.523  28.660  0.0634 -0.0606 -0.2287
21346W        W64284   6.250   4.224  30.846  0.0187  0.1011 -0.1117
21347W        W64285   5.812   1.071  27.376  0.1799 -0.0440  0.1383
21348W        W64286   5.383   0.475  27.991  0.0704  0.1692 -0.2151
21349W        W64287   6.641   0.683  30.202  0.0616  0.0155  0.0682
21350W        W64288   6.655   1.468  31.018 -0.2699  0.0288  0.0648
21351W        W64289   6.863   0.725  27.811 -0.0347 -0.0135  0.0478
21352W        W64290   7.703  34.386  31.163 -0.0510 -0.1064 -0.3275
21353W        W64291   3.089   3.610  29.150  0.1167 -0.0450  0.0467
21354W        W64292   7.256   0.020  29.045  0.3327 -0.0115 -0.0377
21355W        W64293   4.295   3.744  30.170 -0.1126 -0.1101 -0.0968
21356W        W64294   4.504   2.127  28.582 -0.2192  0.1372  0.0459
21357W        W64295   4.641   1.973  31.049 -0.1068  0.3065 -0.2213
21358W        W64296   6.594  34.531  31.219  0.2295  0.4436 -0.2440
21359W        W64297   7.718   0.966  29.890  0.0977  0.0105 -0.0326
21360W        W64298   6.512   0.270  29.624  0.1746  0.0064 -0.0354
21361W        W64299   7.366   0.460  31.367 -0.1453 -0.1585  0.0872
21362W        W64300   6.437   3.292  30.286  0.0037 -0.1057  0.0856
21363W        W64301   5.218   0.044  30.020 -0.1027 -0.0338 -0.1310
21364W        W64302   5.490   2.108  30.595 -0.2958  0.0109 -0.1834
21365W        W64303   6.727   2.490  29.876 -0.1265 -0.0184  0.0585
21366W        W64304   5.565   3.422  31.011  0.2771 -0.0199 -0.0508
21367W        W64305   3.353   2.106  30.582 -0.2362  0.1636  0.0506
21368W        W64306   6.469   1.250   0.177  0.0783  0.1853  0.3441
21369W        W64307   4.622   2.722  27.135 -0.2766 -0.0474  0.0816
21370W        W64308   3.798  34.500  28.543  0.1691 -0.2649  0.1440
21371W        W64309   5.553   2.403  27.531 -0.1786 -0.1228 -0.0482
21372W        W64310   4.994   3.717  31.359  0.1090 -0.0172 -0.0091
21373W        W64311   4.964   2.803  28.316 -0.2051 -0.3243  0.1370
21374W        W64312   3.333   4.043  29.177  0.1249 -0.1491 -0.0569
21375W        W64313   6.937   1.353  28.696 -0.1814  0.1587  0.0695
21376W        W64314   5.231   1.748  29.120  0.1197  0.0894 -0.1033
21377W        W64315   6.984   3.572  29.634 -0.2575 -0.5632  0.2673
21378W        W64316   6.414   0.715  28.208 -0.0106 -0.0925 -0.0712
21379W        W64317   4.197   3.313  27.866  0.3236 -0.0693  0.2065
21380W        W64318   3.035   3.643  26.257  0.0681  0.1045 -0.1521
21381W        W64319   6.312   2.130  28.878  0.0837  0.1331  0.0187
21382W        W64320   3.672   4.353  27.625 -0.1541  0.0350  0.0179
21383W        W64321   8.022   2.629   1.370 -0.1602 -0.1629 -0.2985
21384W        W64322   4.967  33.972  28.035 -0.0509  0.2777 -0.1860
21385W        W64323   7.571   2.327  29.293  0.3716  0.0020  0.0698
21386W        W64324   7.094   0.482  29.072 -0.2228 -0.2605  0.1120
21387W        W64325   6.025   2.721  31.345 -0.0932  0.1288  0.2427
21388W        W64326   5.686  34.576  29.948 -0.1617 -0.0062  0.1947
21389W        W64327   4.375   1.383  28.351  0.0293  0.1189 -0.0603
21390W        W64328   4.508   1.572  29.813 -0.3695  0.0583 -0.3223
21391W        W64329   6.811   0.135  31.503 -0.0261 -0.1653 -0.0480
21392W        W64330   3.755   4.020  31.542 -0.0184  0.1316 -0.1234
21393W        W64331   7.823   4.674  27.971 -0.0475  0.0168 -0.2796
21394W        W64332   3.778   1.357  27.353  0.0175  0.0527 -0.0878
21395W        W64333   5.308   2.252  29.055 -0.0777  0.0403  0.2890
21396W        W64334   9.450  33.331  31.163  0.0407  0.0229  0.2510
21397W        W64335   5.081   0.554  28.340  0.0631  0.1044  0.1380
21398W        W64336   6.099   0.509  29.450  0.0819  0.1566 -0.6621
21399W        W64337   5.503   3.517  28.352  0.4447 -0.0800  0.1118
21400W        W64338   4.579   2.500  30.476 -0.1536 -0.0743  0.3227
21401W        W64339   5.787   4.188  30.672 -0.0332  0.0759 -0.0581
21402W        W64340   4.564   0.533  28.333  0.1882 -0.2137 -0.2878
21403W        W64341   6.192   0.790  30.380 -0.1842 -0.0880  0.3255
21404W        W64342   6.624   1.682  30.092 -0.1806 -0.0388  0.1520
21405W        W64343   7.806  34.602  30.066  0.0422  0.1976 -0.1870
21406W        W64344   3.719   0.554  28.177 -0.1105 -0.1848  0.3170
21407W        W64345   7.424   0.699  29.509 -0.2384  0.0587  0.0450
21408W        W64346   5.860   2.573  30.002  0.0809 -0.1152 -0.0046
21409W        W64347   4.409   1.230  31.110 -0.3169 -0.0577 -0.3488
21410W        W64348   4.849   1.521  28.627 -0.0876 -0.2541  0.1355
21411W        W64349   7.759   2.299  31.729 -0.2252  0.1993  0.1455
21412W        W64350   6.565   2.313  27.424  0.2742  0.0088  0.0369
21413W        W64351   6.935   3.381  30.793 -0.0778  0.1332  0.0216
21414W        W64352   5.386  34.123  29.032  0.2098  0.4029 -0.2618
21415W        W64353   6.768   0.198  28.699  0.0318  0.2895 -0.2309
21416W        W64354   4.771   0.903  29.080 -0.3727 -0.3882 -0.0808
21417W        W64355   5.261   1.245  29.445  0.0138 -0.2170  0.3053
21418W        W64356   8.217   2.768  31.798  0.2217 -0.0750  0.1696
21419W        W64357   4.734  33.722  28.958  0.1130 -0.0341  0.2196
21420W        W64358   6.851   1.984  27.944 -0.1013  0.3421  0.1619
21421W        W64359   7.239   0.851  30.002  0.1041 -0.0938  0.0413
21422W        W64360   4.801   3.833  29.017 -0.1404 -0.0198 -0.1896
21423W        W64361   7.574   1.414  30.016 -0.3496  0.0816  0.0853
21424W        W64362   6.672   3.093  28.526 -0.0492 -0.0148 -0.0106
21425W        W64363   5.263  34.452  29.613  0.2358  0.1940  0.1147
21426W        W64364   6.567   2.769  29.425 -0.1888 -0.0544  0.0613
21427W        W64365   8.017   3.501  29.502  0.3541 -0.0298 -0.1479
21428W        W64366   5.140   0.568  29.802  0.1474  0.0056 -0.0961
21429W        W64367   4.511   3.056  30.062 -0.0822 -0.0492 -0.0765
21430W        W64368   2.871   4.159  27.467  0.1052  0.0656  0.3103
21431W        W64369   7.029   0.038  30.848  0.0198 -0.2745 -0.0246
21432W        W64370   6.543   1.938   0.379  0.0999  0.1812  0.2216
21433W        W64371   5.911   1.865  26.295  0.2307 -0.2290  0.1100
21434W        W64372   7.108  33.459  30.416  0.1456 -0.0580  0.4303
21435W        W64373   6.990   3.167  29.257  0.2183  0.1026  0.2928
21436W        W64374   4.448   4.366  30.501 -0.1548  0.0538 -0.1947
21437W        W64375   3.678   2.445  28.472  0.1669  0.1875 -0.0224
21438W        W64376   6.425   1.139  30.101  0.0502 -0.1081  0.1276
21439W        W64377   5.968   2.817  29.510  0.0148  0.1327 -0.4119
21440W        W64378   6.529   3.707  27.346  0.0031 -0.2221  0.3423
21441W        W64379   8.370   2.987  30.670  0.5269  0.2673 -0.2271
21442W        W64380   5.887  34.103  28.851  0.0558  0.0754  0.0237
21443W        W64381   7.889   3.047  29.688  0.1815 -0.1944  0.3691
21444W        W64382   5.089  34.172  30.591 -0.1208  0.0878 -0.1021
21445W        W64383   7.464   0.337  26.513 -0.1347  0.2921  0.3647
21446W        W64384   5.226   0.120  28.650  0.0092  0.1751  0.2691
21447W        W64385   5.997   1.348  30.368 -0.3344  0.2398 -0.2903
21448W        W64386   4.208   1.627  27.502  0.3050 -0.1390  0.1941
21449W        W64387   4.532   2.360  27.584 -0.0610  0.0837  0.3477
21450W        W64388   5.236   2.037  29.494  0.0593  0.0223 -0.2889
21451W        W64389   5.188  33.571  31.523 -0.1254 -0.1670  0.1993
21452W        W64390   4.897   2.337  28.130  0.1270  0.4136 -0.1086
21453W        W64391   6.516   1.758  29.140  0.0652  0.1157  0.1860
21454W        W64392   4.949  34.178  28.834  0.0049  0.0673  0.2284
21455W        W64393   6.898   1.896  28.864  0.3042 -0.5176  0.0300
21456W        W64394   4.867  34.208  29.334 -0.2800  0.2078 -0.1272
21457W        W64395   3.496  34.040  30.104 -0.0121  0.4163 -0.2425
21458W        W64396   6.976   1.778  28.370  0.0092 -0.0615 -0.1292
21459W        W64397   6.567   3.471  28.072 -0.1929  0.1318 -0.0284
21460W        W64398   5.552   0.796  30.417 -0.4604  0.0147 -0.1548
21461W        W64399   8.027   2.972  30.151 -0.2064  0.1085  0.2347
21462W        W64400   4.126   2.529  27.317  0.0720  0.2322 -0.1568
21463W        W64401   6.551   2.564  31.188  0.1358  0.2219 -0.0922
21464W        W64402   6.266  34.595  30.766  0.1140  0.0749  0.3359
21465W        W64403   4.928   0.686  27.860  0.2860 -0.0102  0.1039
21466W        W64404   5.968   0.460  28.862 -0.3627  0.3327  0.0450
21467W        W64405   5.343   3.710  29.381  0.0341  0.0163 -0.0429
21468W        W64406   6.555   4.308  28.206  0.2876 -0.0035 -0.0903
21469W        W64407   4.546   2.452  29.004 -0.2709 -0.0035 -0.3855
21470W        W64408   5.183   2.807  29.128  0.2387 -0.0712 -0.1549
21471W        W64409   4.765  33.840  31.498 -0.1170  0.3212 -0.0012
21472W        W64410   6.814  34.645  29.928  0.3292  0.3963  0.1151
21473W        W64411   4.999   2.948  29.852  0.0547 -0.1822 -0.0932
21474W        W64412   8.396   2.307  28.837 -0.1513  0.0315 -0.0872
21475W        W64413   6.965  33.879  29.618 -0.1445 -0.1837  0.1741
21476W        W64414   5.682   0.328  28.483  0.0512  0.0435 -0.2590
21477W        W64415   4.518   0.474  30.402 -0.1744  0.0861  0.0030
21478W        W64416   4.963   0.482  30.809  0.0219 -0.3324 -0.2402
21479W        W64417   7.640   1.833  29.533  0.0879 -0.4684 -0.0371
21480W        W64418   5.831  34.628  28.787 -0.2406 -0.2220 -0.0369
21481W        W64419   8.115   0.959  29.277  0.1114  0.2829  0.0550
21482W        W64420   7.099   1.466  27.983  0.0376 -0.0125 -0.1324
21483W        W64421   5.585   0.524  30.002 -0.2994  0.1226  0.1976
21484W        W64422   5.340  34.660  29.112  0.0265  0.1465 -0.0775
21485W        W64423   6.258   1.643  31.335  0.2210  0.0495 -0.1436
21486W        W64424   5.537   2.986  29.925 -0.1320  0.1830 -0.2676
21487W        W64425   6.630   2.005  31.507  0.5870  0.1726  0.1155
21488W        W64426   4.820   1.201  28.246  0.1325 -0.0439 -0.1086
21489W        W64427   8.044   1.683  29.968  0.0589 -0.2112  0.1388
21490W        W64428   5.870   3.020  30.962 -0.3240  0.1121 -0.1009
21491W        W64429   7.667   2.105   0.214  0.0778  0.0666 -0.1171
21492W        W64430   6.710   3.581  29.215  0.1637 -0.1781 -0.0365
21493W        W64431   7.927   2.401  28.876  0.2534  0.1584  0.0683
21494W        W64432   5.440  34.441  30.366  0.0314  0.2370  0.4064
21495W        W64433   5.191   2.666  27.889  0.0245  0.0894 -0.0902
21496W        W64434   6.779   1.680  30.569  0.1946 -0.1738  0.1736
21497W        W64435   6.121   1.500  30.874 -0.0706  0.3202 -0.0561
21498W        W64436   4.734  34.683  29.247  0.0728  0.1521  0.1781
21499W        W64437   6.902  34.053  28.552 -0.2182 -0.1793 -0.2531
21500W        W64438   5.474   3.143  30.365  0.1199  0.1558  0.1094
21501W        W64439   6.165   1.564  29.912 -0.0433  0.2812 -0.0370
21502W        W64440   7.290   0.210  31.765  0.2535  0.2565  0.0082
21503W        W64441   6.842   3.946  31.626 -0.4936 -0.4279  0.0277
21504W        W64442   5.121   1.387   0.777 -0.0990 -0.2090 -0.0042
21505W        W64443   3.838   2.149  30.883  0.0499 -0.1107  0.0040
21506W        W64444   4.654   3.358  30.468 -0.3469 -0.0629 -0.2616
21507W        W64445   4.004   3.059   0.452 -0.0122 -0.1498  0.1518
21508W        W64446   7.429   0.582   0.309 -0.1888 -0.2005  0.1004
21509W        W64447   6.488   0.674  31.291  0.0885 -0.2734  0.3204
21510W        W64448   5.798   0.138   0.743  0.1181 -0.0276  0.0850
21511W        W64449   6.110   2.087   0.300  0.1300  0.0039 -0.1013
21512W        W64450   5.194   3.124  31.242  0.2129 -0.0029 -0.1740
21513W        W64451   7.293   0.871  31.042  0.2314  0.1783 -0.1616
21514W        W64452   6.017   3.561  31.719 -0.0778  0.2534  0.2614
21515W        W64453   5.889   1.372  31.610  0.2261  0.4147  0.0934
21516W        W64454   5.703   2.998   0.138 -0.3509 -0.1331  0.2040
21517W        W64455   5.937   3.676  30.733 -0.1179  0.1421  0.1994
21518W        W64456   5.620   1.279  30.000  0.0907  0.2152  0.1790
21519W        W64457   8.653   2.481  30.589  0.0188  0.1252  0.0090
21520W        W64458   5.267  34.349   0.238 -0.2272  0.0215 -0.1267
21521W        W64459   4.802   0.025  31.000 -0.2558  0.0256 -0.2547
21522W        W64460   4.738   0.793   0.197 -0.3452  0.0151 -0.0208
21523W        W64461   4.145   4.553   0.680 -0.0798  0.1411 -0.0444
21524W        W64462   6.554   0.604   1.082  0.3155  0.1855 -0.0286
21525W        W64463   6.157  34.255  31.380 -0.0494 -0.0335 -0.1530
21526W        W64464   5.983   0.992   0.280 -0.0400 -0.1742  0.1433
21527W        W64465   5.320   0.591   0.715  0.1221  0.2314  0.0028
21528W        W64466   6.489   1.568  31.792  0.0265  0.2329  0.2202
21529W        W64467   3.366   3.635  31.415 -0.4005 -0.0564 -0.1030
21530W        W64468   5.640   1.072  31.191  0.0034 -0.1060 -0.1390
21531W        W64469   6.002   2.555   0.035 -0.2794  0.2181 -0.3626
21532W        W64470   5.395   2.557  30.297 -0.0182  0.0648 -0.2105
21533W        W64471   5.188   0.968   0.417 -0.0689  0.0964 -0.3636
21534W        W64472   6.304   2.560   0.551 -0.0654 -0.1354 -0.0097
21535W        W64473   7.020  33.678  31.430 -0.1446 -0.3698 -0.0571
21536W        W64474   5.626  34.366  31.314 -0.0006  0.0188  0.1527
21537W        W64475   6.344   3.950  31.593  0.3132 -0.3114 -0.1154
21538W        W64476   4.047   2.235   0.366 -0.1025  0.2687 -0.2304
21539W        W64477   5.368   2.873  30.793  0.0032 -0.0433  0.0519
21540W        W64478   5.952   0.659   0.785  0.1489 -0.1282  0.1209
21541W        W64479   5.628   2.708  31.663 -0.0917 -0.0629 -0.1149
21542W        W64480   6.813   2.225   0.694  0.2643  0.1866  0.1583
21543W        W64481   4.827   3.121  31.751 -0.4645 -0.1167  0.0132
21544W        W64482   4.805  34.618   0.255 -0.3342 -0.0092 -0.1629
21545W        W64483   6.657   3.644  31.226 -0.4724  0.0025 -0.4845
21546W        W64484   5.567   1.016   0.865 -0.3828  0.0400 -0.0209
21547W        W64485   6.230   1.843  30.482  0.1854  0.1141 -0.3354
21548W        W64486   6.222   0.293  31.095 -0.1824 -0.0484 -0.0226
21549W        W64487   5.077   3.289   0.230  0.0478 -0.1785  0.0106
21550W        W64488   7.226   2.277   2.280 -0.3559  0.4589 -0.0470
21551W        W64489   4.745   3.898  30.444  0.0501  0.0657 -0.0135
21552W        W64490   6.516   4.090   0.582  0.1290 -0.2450 -0.1783
21553W        W64491   6.904   0.484  31.116 -0.1107 -0.0043  0.1517
21554W        W64492   6.378   0.947   0.657 -0.1020  0.1931 -0.1922
21555W        W64493   6.430   1.915  30.988 -0.0166 -0.3602  0.1177
21556W        W64494   5.709   1.646  31.223 -0.1791  0.1524  0.0895
21557W        W64495   7.282   1.161   0.690  0.3756 -0.1990  0.1175
21558W        W64496   6.915   3.348   0.768  0.2662  0.5147  0.2364
21559W        W64497   6.277   3.947   0.113 -0.1206 -0.0610  0.1618
21560W        W64498   5.833   2.433  30.846 -0.1254 -0.1454 -0.0494
21561W        W64499   5.444   0.402  30.879  0.0843 -0.1830 -0.1544
21562W        W64500   4.691   0.317  31.873  0.1332  0.1340 -0.0223
21563W        W64501   5.179   1.698  31.700 -0.0459 -0.1302  0.0484
21564W        W64502   3.383   2.668  31.462  0.0916 -0.0456 -0.0497
21565W        W64503   5.459   0.540   0.215 -0.0600  0.3801 -0.0674
21566W        W64504   7.452   4.678   0.076  0.1982 -0.0264 -0.4667
21567W        W64505   7.467   2.672  31.605 -0.0057 -0.0348 -0.0135
21568W        W64506   6.945   2.562  31.704  0.0051  0.0444 -0.0505
21569W        W64507   5.512   5.546  19.152 -0.1771  0.2771 -0.0732
21570W        W64508   5.791   5.317  18.734  0.0056 -0.0435  0.2067
21571W        W64509   6.996   3.673  15.751 -0.0706  0.3342  0.0982
21572W        W64510   5.721   5.736  17.614 -0.1975  0.1392  0.0372
21573W        W64511   5.244   3.763  17.082  0.0248  0.1103  0.3323
21574W        W64512   7.216   7.884  17.444  0.0869 -0.1386  0.0384
21575W        W64513   4.359   2.768  19.750 -0.2523  0.0924  0.3149
21576W        W64514   7.673   7.276  17.905 -0.1046  0.1472  0.0888
21577W        W64515   7.091   7.765  18.363  0.0090  0.0136 -0.4495
21578W        W64516   5.536   8.241  16.710  0.1068  0.2384  0.2082
21579W        W64517   4.613   4.514  18.399 -0.0019  0.0053  0.1035
21580W        W64518   5.176   6.177  19.770  0.1268 -0.1549 -0.1707
21581W        W64519   4.972   2.900  17.095 -0.0078  0.3304 -0.1640
21582W        W64520   3.774   3.489  19.251 -0.2484  0.0073  0.1461
21583W        W64521   6.488   5.554  18.400  0.0585 -0.0745  0.2175
21584W        W64522   4.552   4.963  17.542  0.1088  0.0532 -0.0155
21585W        W64523   5.344   4.842  19.209  0.2576  0.1630  0.0324
21586W        W64524   5.571   4.638  15.931 -0.3750  0.2210  0.2000
21587W        W64525   5.118   6.415  16.721 -0.0457  0.1335  0.0017
21588W        W64526   4.534   3.819  19.575  0.2108 -0.2140  0.2128
21589W        W64527   6.517   4.596  18.509  0.2043 -0.1898 -0.2454
21590W        W64528   5.213   7.601  17.268 -0.1753  0.0118  0.1138
21591W        W64529   3.275   4.729  16.171 -0.0470 -0.1902 -0.1299
21592W        W64530   4.677   4.554  17.914  0.1768  0.1343  0.0963
21593W        W64531   5.557   4.914  17.886 -0.3255  0.1694  0.2970
21594W        W64532   6.578   5.294  17.375  0.0470 -0.0246 -0.0265
21595W        W64533   6.015   6.535  17.202 -0.1956  0.4031  0.0093
21596W        W64534   5.081   7.851  18.276 -0.1344 -0.0423  0.3657
21597W        W64535   6.578   6.625  18.321  0.0648 -0.2864 -0.0688
21598W        W64536   5.908   4.164  18.967  0.1428  0.4096 -0.0133
21599W        W64537   2.894   4.815  18.936  0.1357 -0.2921 -0.0833
21600W        W64538   3.391   7.676  16.788  0.3012 -0.0901 -0.0354
21601W        W64539   5.159   6.856  17.001  0.3029  0.1920  0.3569
21602W        W64540   7.276   5.362  16.725 -0.0993  0.1646 -0.0862
21603W        W64541   6.186   6.088  19.383  0.0000  0.0975 -0.0292
21604W        W64542   6.165   7.473  20.435  0.1087  0.2469 -0.1560
21605W        W64543   4.250   6.260  16.191  0.0106  0.0940 -0.4289
21606W        W64544   4.846   6.306  19.263  0.2304 -0.0062  0.1666
21607W        W64545   4.667   6.431  18.453 -0.0593 -0.1459 -0.0969
21608W        W64546   6.073   4.860  19.679  0.3449 -0.2521  0.2929
21609W        W64547   5.728   5.961  18.984 -0.0449 -0.1067  0.2175
21610W        W64548   3.250   6.238  17.229  0.2109  0.2157 -0.0919
21611W        W64549   1.926   6.757  18.046  0.1781 -0.3314 -0.0810
21612W        W64550   5.685   6.189  19.487 -0.0320 -0.0206  0.1859
21613W        W64551   3.826   7.504  17.473  0.0762  0.2235 -0.1363
21614W        W64552   6.332   4.151  19.617  0.0043 -0.0878  0.0401
21615W        W64553   3.660   6.734  16.593  0.0756 -0.0209 -0.0529
21616W        W64554   6.267   4.734  15.735 -0.1939 -0.2337  0.3416
21617W        W64555   4.771   4.162  16.472 -0.0334 -0.0897 -0.1398
21618W        W64556   6.441   3.689  16.616 -0.2266 -0.0758  0.1301
21619W        W64557   5.729   4.453  18.098 -0.2046 -0.2577  0.3519
21620W        W64558   3.750   6.194  18.177 -0.0746 -0.1087 -0.1356
21621W        W64559   5.484   3.915  18.035  0.2410  0.0788 -0.1342
21622W        W64560   6.801   6.733  19.117  0.2423  0.2039  0.1253
21623W        W64561   5.638   5.748  16.286 -0.3582  0.1645 -0.1932
21624W        W64562   6.721   4.191  18.039 -0.0136  0.0060  0.0752
21625W        W64563   5.693   6.465  18.075  0.1416 -0.1326  0.1668
21626W        W64564   3.730   4.191  16.992 -0.0903 -0.1124  0.0342
21627W        W64565   6.054   5.699  16.600 -0.0136  0.1800 -0.0123
21628W        W64566   6.117   6.117  16.894  0.0273 -0.1446  0.0763
21629W        W64567   6.732   7.453  16.592 -0.1325 -0.0765 -0.2765
21630W        W64568   3.629   5.733  17.318 -0.0108  0.0744 -0.1421
21631W        W64569   4.493   6.484  18.893 -0.0617  0.0517 -0.0278
21632W        W64570   3.215   6.081  19.086  0.0426  0.0976 -0.1340
21633W        W64571   4.423   4.967  16.117 -0.1376  0.0177  0.1850
21634W        W64572   6.017   5.334  19.793  0.0157  0.1649  0.0783
21635W        W64573   5.128   5.844  19.275  0.0944 -0.1464 -0.3626
21636W        W64574   6.625   4.049  16.883  0.0735  0.2241 -0.1075
21637W        W64575   4.268   6.315  19.424  0.0553 -0.0960 -0.2298
21638W        W64576   6.583   6.316  17.923 -0.3917  0.0359 -0.0014
21639W        W64577   6.453   6.036  16.378 -0.1094 -0.0477 -0.1043
21640W        W64578   5.811   3.463  18.184 -0.0213 -0.1265  0.0411
21641W        W64579   6.102   3.512  16.898 -0.2104  0.0256 -0.1051
21642W        W64580   5.085   5.917  16.382 -0.1020  0.1223 -0.0092
21643W        W64581   5.579   5.204  16.050  0.1648  0.0715 -0.3673
21644W        W64582   5.922   7.214  17.971  0.1829 -0.0555  0.1481
21645W        W64583   7.563   4.028  16.514  0.2905 -0.1475  0.2758
21646W        W64584   5.090   7.419  19.446 -0.0002 -0.0454 -0.1714
21647W        W64585   4.749   2.983  19.920  0.1140 -0.1100  0.1493
21648W        W64586   6.321   5.352  18.851 -0.0135  0.0391  0.4191
21649W        W64587   4.068   7.688  16.499  0.0609 -0.1532 -0.1403
21650W        W64588   3.283   6.152  18.370  0.1150 -0.0576 -0.0004
21651W        W64589   3.647   5.340  16.932  0.1215  0.3883  0.2454
21652W        W64590   3.481   3.087  19.597 -0.2102  0.0575 -0.1670
21653W        W64591   6.527   6.326  17.220 -0.0715 -0.0945 -0.0460
21654W        W64592   7.747   3.321  17.362  0.1089  0.2077  0.1892
21655W        W64593   4.821   3.503  19.306  0.1697  0.0447 -0.0197
21656W        W64594   6.505   3.156  16.631  0.0807  0.1524  0.0313
21657W        W64595   4.832   5.481  17.747 -0.1248 -0.1126 -0.1442
21658W        W64596   7.566   7.315  17.404  0.0963  0.0034 -0.2381
21659W        W64597   5.943   5.246  17.846 -0.0386 -0.0561  0.0212
21660W        W64598   5.551   4.930  17.416  0.0933  0.1739  0.0383
21661W        W64599   2.791   4.847  19.432  0.4424  0.1771  0.0607
21662W        W64600   3.974   4.989  17.367  0.0049 -0.0716 -0.2290
21663W        W64601   3.875   5.530  18.739  0.0332 -0.1993  0.0663
21664W        W64602   4.254   3.647  17.748 -0.1264 -0.2074  0.2967
21665W        W64603   7.009   5.154  20.332  0.1271 -0.0889 -0.1675
21666W        W64604   4.759   3.469  17.738  0.1258  0.0114 -0.1808
21667W        W64605   5.783   4.997  16.947  0.0158  0.0126 -0.2154
21668W        W64606   4.640   5.373  17.322 -0.1742  0.1937 -0.0744
21669W        W64607   3.210   6.148  17.768  0.0150 -0.1001  0.1014
21670W        W64608   5.719   4.010  19.484  0.0369  0.2644  0.1755
21671W        W64609   6.185   6.618  18.012 -0.0088  0.1728 -0.2956
21672W        W64610   5.746   5.709  19.609  0.0544  0.0259  0.1234
21673W        W64611   6.521   6.490  16.677 -0.1486  0.1119  0.0897
21674W        W64612   5.265   5.288  18.794 -0.2824  0.2273 -0.0037
21675W        W64613   3.413   3.948  17.942 -0.2479  0.3895  0.1767
21676W        W64614   4.694   7.663  17.400 -0.0859  0.2293  0.0078
21677W        W64615   5.960   7.488  17.110 -0.2208 -0.0641  0.0394
21678W        W64616   3.626   4.529  18.946 -0.3478 -0.0044 -0.3406
21679W        W64617   7.790   6.315  18.063 -0.0194 -0.1791  0.1730
21680W        W64618   4.839   5.952  16.863 -0.3099 -0.1703 -0.2302
21681W        W64619   5.427   5.681  18.547  0.3457  0.0633  0.2225
21682W        W64620   7.047   3.787  17.801  0.0636  0.2066  0.1725
21683W        W64621   6.719   4.715  18.037  0.1685  0.0640  0.1081
21684W        W64622   6.326   5.688  17.189  0.1356  0.0421  0.0664
21685W        W64623   3.209   3.669  16.193 -0.0855  0.0797 -0.0737
21686W        W64624   6.106   7.211  16.265  0.2887 -0.0169  0.1155
21687W        W64625   4.021   7.069  16.006 -0.0595 -0.1957  0.0454
21688W        W64626   4.105   5.420  17.275  0.2895  0.3854  0.0215
21689W        W64627   5.900   8.274  17.065  0.1489 -0.1881  0.1783
21690W        W64628   7.463   3.118  16.120 -0.0380 -0.3294 -0.4907
21691W        W64629   3.356   5.633  18.745 -0.1788  0.1544  0.1087
21692W        W64630   6.096   3.686  19.498 -0.3880  0.0353  0.1429
21693W        W64631   4.665   5.146  16.856 -0.0275 -0.0764 -0.1443
21694W        W64632   4.363   6.019  19.034  0.0165  0.4135  0.0334
21695W        W64633   4.894   3.243  16.728  0.1523  0.1908  0.1811
21696W        W64634   7.002   3.169  16.517 -0.1624 -0.1124  0.1035
21697W        W64635   7.545   6.972  21.119  0.2300  0.0324 -0.0104
21698W        W64636   5.356   5.911  17.256  0.2034  0.0054 -0.3258
21699W        W64637   5.910   4.318  16.095 -0.1847  0.1164 -0.2691
21700W        W64638   5.687   3.571  16.236 -0.1982  0.0620  0.3052
21701W        W64639   2.515   5.295  19.958 -0.2942 -0.1036  0.3579
21702W        W64640   4.719   6.823  16.820  0.0317 -0.0246  0.0305
21703W        W64641   4.810   5.086  19.076  0.1385  0.0058 -0.0750
21704W        W64642   4.709   4.168  15.735 -0.0452  0.1996 -0.2285
21705W        W64643   7.013   7.901  16.443  0.0803 -0.0735 -0.1191
21706W        W64644   5.610   5.479  20.055 -0.0882  0.1950 -0.3335
21707W        W64645   5.940   6.774  20.130  0.0183 -0.1207 -0.2559
21708W        W64646   7.828   6.821  16.039  0.2810  0.0878  0.0376
21709W        W64647   5.344   3.688  19.694  0.1430  0.0977 -0.1206
21710W        W64648   4.187   4.639  15.859  0.1890 -0.0099 -0.3895
21711W        W64649   6.045   4.821  18.096  0.5120  0.1470 -0.1086
21712W        W64650   4.105   8.145  16.293 -0.0361  0.0725 -0.1839
21713W        W64651   6.399   4.236  16.313 -0.1355 -0.4351  0.0969
21714W        W64652   5.707   4.451  17.368 -0.0913 -0.0648  0.0976
21715W        W64653   4.880   3.534  19.862  0.0468 -0.2310 -0.1948
21716W        W64654   7.625   3.667  20.425  0.0551 -0.3746 -0.0445
21717W        W64655   7.847   4.278  16.875 -0.1034 -0.2257  0.0469
21718W        W64656   6.335   5.581  17.778  0.1167 -0.0093 -0.0379
21719W        W64657   4.296   3.845  16.866  0.2896 -0.0783  0.1160
21720W        W64658   6.748   3.404  20.388 -0.1701 -0.0493  0.1743
21721W        W64659   5.482   5.230  19.562  0.0976  0.2863 -0.0012
21722W        W64660   4.525   6.838  18.030  0.1212  0.1407  0.5625
21723W        W64661   6.658   6.482  19.639  0.3238 -0.1121  0.0728
21724W        W64662   6.020   5.273  17.347 -0.4202 -0.0992 -0.2224
21725W        W64663   5.006   4.160  19.518  0.0896  0.1689  0.0333
21726W        W64664   5.349   4.648  17.034 -0.3471  0.1310 -0.1968
21727W        W64665   4.658   6.456  17.094 -0.2703  0.3927  0.0883
21728W        W64666   4.424   5.454  16.106 -0.0567 -0.1555  0.1050
21729W        W64667   5.057   4.171  17.222 -0.1156 -0.1102 -0.1225
21730W        W64668   6.476   7.131  17.926  0.1932  0.0778 -0.0180
21731W        W64669   5.256   8.822  17.323  0.0402 -0.2534  0.3204
21732W        W64670   7.894   5.738  20.132  0.1326  0.0488  0.1169
21733W        W64671   3.292   6.895  16.928 -0.0428  0.2370 -0.0334
21734W        W64672   7.501   2.877  18.656  0.0262  0.0365  0.3842
21735W        W64673   3.640   7.037  17.670 -0.3921  0.1230 -0.1635
21736W        W64674   3.877   4.321  16.221  0.0923  0.1167 -0.0336
21737W        W64675   4.326   6.276  17.540 -0.0286  0.2546 -0.1235
21738W        W64676   6.652   3.984  17.477 -0.0056 -0.3388  0.0527
21739W        W64677   7.347   6.510  16.513  0.0348 -0.1474 -0.3643
21740W        W64678   5.056   4.833  18.770 -0.0050 -0.0519 -0.2090
21741W        W64679   4.943   3.701  18.194  0.1059 -0.3361  0.2346
21742W        W64680   4.648   5.952  18.323  0.1511 -0.0198 -0.0079
21743W        W64681   6.498   5.178  19.994  0.0717  0.0542  0.2335
21744W        W64682   6.539   3.414  15.762  0.1235 -0.2253  0.1005
21745W        W64683   7.288   7.186  18.267  0.1073  0.0318 -0.0386
21746W        W64684   5.513   4.686  20.727  0.3316 -0.1561 -0.0379
21747W        W64685   4.843   3.840  16.075  0.1743 -0.1949 -0.0892
21748W        W64686   6.680   3.453  17.619 -0.0973  0.0680 -0.4773
21749W        W64687   5.123   4.735  17.584 -0.0176  0.0119 -0.0347
21750W        W64688   4.320   7.662  17.719 -0.4241 -0.0066 -0.3050
21751W        W64689   5.356   7.498  17.755 -0.0022 -0.0851  0.1827
21752W        W64690   5.004   5.526  17.026  0.2146 -0.0691 -0.1066
21753W        W64691   3.612   6.456  16.965  0.0262 -0.1429  0.3313
21754W        W64692   4.291   5.192  18.913  0.1738 -0.2124  0.1413
21755W        W64693   5.998   5.728  18.129 -0.1360 -0.0121  0.1091
21756W        W64694   5.076   5.145  17.315 -0.1752 -0.3451 -0.3436
21757W        W64695   5.458   5.421  17.190  0.2352 -0.1287  0.2027
21758W        W64696   4.323   4.714  17.175  0.2082  0.0239  0.0060
21759W        W64697   5.907   4.723  20.320  0.1989 -0.0862 -0.4168
21760W        W64698   5.279   5.656  19.760 -0.1995  0.0535  0.0899
21761W        W64699   2.828   6.026  18.811  0.0218 -0.3135 -0.1638
21762W        W64700   4.947   4.195  18.209  0.0602 -0.2062 -0.2005
21763W        W64701   8.214   6.839  16.341 -0.4257  0.1247 -0.0474
21764W        W64702   6.729   3.700  19.402  0.4306  0.0584  0.4155
21765W        W64703   4.733   6.440  16.383 -0.0693 -0.0074  0.0943
21766W        W64704   4.655   5.816  19.553 -0.0238  0.0083 -0.0977
21767W        W64705   4.352   7.690  16.891 -0.0454 -0.0071 -0.0142
21768W        W64706   5.609   4.927  18.425  0.3759  0.0009  0.0690
21769W        W64707   5.339   6.496  19.291 -0.2463  0.1347  0.1879
21770W        W64708   4.074   6.282  17.089  0.1641 -0.2943 -0.1865
21771W        W64709   6.395   5.190  19.464  0.0795 -0.0767 -0.1424
21772W        W64710   7.837   3.089  16.917 -0.0888 -0.0586 -0.1086
21773W        W64711   6.132   5.230  16.484 -0.0600  0.1495 -0.2940
21774W        W64712   5.295   3.280  17.475 -0.0712 -0.1866  0.2244
21775W        W64713   7.019   2.921  18.827 -0.1091 -0.2494 -0.1588
21776W        W64714   7.024   5.593  15.824  0.0108 -0.3811 -0.0612
21777W        W64715   4.681   3.916  18.660 -0.0112  0.1866  0.0225
21778W        W64716   3.957   3.950  18.032 -0.1826  0.0483  0.0071
21779W        W64717   5.212   6.387  17.218  0.0968 -0.1506 -0.0936
21780W        W64718   4.147   4.416  18.331 -0.0683  0.0117 -0.1421
21781W        W64719   5.184   5.674  20.241  0.0506  0.2575  0.1805
21782W        W64720   4.741   5.610  19.087  0.0539  0.0949  0.5050
21783W        W64721   6.491   4.605  16.789  0.1822 -0.0017  0.0800
21784W        W64722   4.146   4.269  17.162  0.1653  0.0482 -0.1394
21785W        W64723   5.942   4.521  18.532  0.0613 -0.1526 -0.2050
21786W        W64724   6.291   5.168  16.954  0.1709 -0.0267 -0.2214
21787W        W64725   5.560   6.341  16.366  0.0619 -0.1242 -0.3100
21788W        W64726   7.808   4.142  18.010  0.1034  0.1125 -0.1452
21789W        W64727   4.765   5.027  19.625 -0.0831 -0.1191 -0.1808
21790W        W64728   5.683   5.350  16.559 -0.0288 -0.0991 -0.3039
21791W        W64729   5.971   5.139  15.684  0.0292  0.1268  0.5742
21792W        W64730   5.343   6.538  18.474 -0.4541 -0.2680  0.1970
21793W        W64731   5.731   4.078  17.084 -0.0572  0.0774  0.0400
21794W        W64732   5.257   5.265  17.787 -0.0496  0.0002  0.0358
21795W        W64733   6.087   4.629  16.520  0.3277  0.1980 -0.2133
21796W        W64734   5.392   4.362  19.261  0.0185  0.1762 -0.0603
21797W        W64735   6.827   4.786  19.909  0.0543 -0.1058  0.2464
21798W        W64736   5.968   5.219  20.369  0.0498 -0.0065  0.0986
21799W        W64737   3.986   5.960  19.578  0.0241 -0.0329  0.0939
21800W        W64738   6.545   7.180  18.861  0.1360 -0.4158 -0.4596
21801W        W64739   7.244   3.598  16.221 -0.0924 -0.0003  0.1235
21802W        W64740   6.624   4.987  18.975  0.0629  0.4725 -0.0512
21803W        W64741   7.556   3.808  17.017  0.1367 -0.0405 -0.1298
21804W        W64742   5.226   4.466  15.665  0.2147  0.2370 -0.0359
21805W        W64743   4.453   4.004  18.192  0.0034 -0.1710  0.4229
21806W        W64744   5.589   4.283  20.515  0.0277 -0.1851  0.0698
21807W        W64745   4.200   3.075  15.801  0.2689  0.1925  0.2357
21808W        W64746   6.613   3.138  19.974  0.1183  0.1485  0.1516
21809W        W64747   4.339   8.439  18.228  0.2583 -0.1501 -0.2165
21810W        W64748   5.824   6.775  17.655 -0.1186  0.1034  0.0024
21811W        W64749   6.906   4.008  16.374 -0.2793 -0.0102 -0.0796
21812W        W64750   2.381   4.580  17.725  0.3852 -0.3619  0.1934
21813W        W64751   4.814   5.986  20.575 -0.2175  0.0984  0.1539
21814W        W64752   4.818   4.950  16.406 -0.3399 -0.2692  0.3862
21815W        W64753   5.082   4.572  16.579  0.3391 -0.2055 -0.0684
21816W        W64754   5.802   6.435  18.994 -0.2944 -0.0487  0.1800
21817W        W64755   6.398   4.690  20.469 -0.1778  0.1215  0.1298
21818W        W64756   5.338   4.032  15.933  0.0112  0.3247  0.0393
21819W        W64757   6.069   4.293  17.742 -0.2963 -0.2843  0.0069
21820W        W64758   3.874   7.125  17.067  0.2993  0.1699  0.0982
21821W        W64759   5.581   3.671  16.765 -0.3346  0.2823  0.2737
21822W        W64760   6.278   6.587  19.237 -0.2611  0.3632  0.0394
21823W        W64761   4.181   6.078  18.565  0.2396  0.0675 -0.0027
21824W        W64762   4.390   6.815  17.549  0.1278 -0.1055 -0.1840
21825W        W64763   4.247   4.192  18.756  0.0576 -0.0443 -0.2743
21826W        W64764   6.494   4.502  17.589  0.0315 -0.4011 -0.2101
21827W        W64765   5.228   5.773  17.727  0.1120  0.0114 -0.0029
21828W        W64766   7.002   4.875  18.640  0.0397 -0.1492 -0.0347
21829W        W64767   5.861   6.775  18.478  0.0615 -0.1293  0.0211
21830W        W64768   5.126   5.111  18.357 -0.0095 -0.2918 -0.1574
21831W        W64769   5.854   7.093  20.508 -0.3403  0.2582 -0.0453
21832W        W64770   6.086   7.010  17.217 -0.1430 -0.0763  0.1466
21833W        W64771   4.846   6.743  17.417  0.0738 -0.0161 -0.1938
21834W        W64772   4.568   4.642  18.855  0.0613 -0.0734  0.3247
21835W        W64773   5.913   5.178  20.860  0.2313 -0.0819  0.2128
21836W        W64774   7.008   7.427  17.374 -0.1852 -0.2110  0.4075
21837W        W64775   3.961   3.693  16.396 -0.1650 -0.0509  0.0467
21838W        W64776   5.597   7.251  16.342  0.0949 -0.2629  0.1562
21839W        W64777   4.282   6.219  18.094 -0.2409  0.1412  0.2813
21840W        W64778   4.408   5.639  18.647  0.2726  0.0763 -0.0472
21841W        W64779   4.028   8.081  17.898 -0.0368 -0.0825 -0.1773
21842W        W64780   5.989   5.974  16.065 -0.2441  0.4072  0.1539
21843W        W64781   5.368   5.748  16.770  0.0354  0.0394 -0.0685
21844W        W64782   6.578   8.516  17.877  0.1696  0.0371 -0.3424
21845W        W64783   5.297   3.246  16.966 -0.2111  0.0725 -0.1389
21846W        W64784   4.888   5.982  17.399  0.1799 -0.0248 -0.3867
21847W        W64785   3.833   6.568  16.167 -0.3116 -0.0644  0.0286
21848W        W64786   6.629   5.972  16.862  0.2650 -0.0218 -0.2708
21849W        W64787   3.833   7.637  16.953  0.3940 -0.2249 -0.0969
21850W        W64788   6.492   5.785  19.140 -0.2376 -0.0334  0.0708
21851W        W64789   5.968   4.924  16.117 -0.1253  0.0737  0.1601
21852W        W64790   6.917   6.559  17.509  0.0713 -0.0806  0.2387
21853W        W64791   6.985   3.679  16.723  0.1394 -0.0943  0.0845
21854W        W64792   7.676   6.526  21.257  0.3449 -0.3579  0.2674
21855W        W64793   6.412   5.021  17.777  0.1246  0.1162  0.1931
21856W        W64794   5.231   3.818  16.409  0.1421 -0.1408  0.0218
21857W        W64795   4.806   6.103  18.745 -0.1585 -0.1462  0.1789
21858W        W64796   8.020   3.056  19.772  0.1173 -0.2545  0.1431
21859W        W64797   2.720   6.415  19.096  0.2178 -0.1030 -0.2176
21860W        W64798   6.345   6.765  17.552  0.2158  0.2940  0.1138
21861W        W64799   3.220   4.360  17.008 -0.0133 -0.1205 -0.1345
21862W        W64800   5.526   5.902  18.104 -0.0148  0.2058  0.0279
21863W        W64801   7.430   3.890  17.509 -0.2379  0.2272 -0.1474
21864W        W64802   5.582   6.790  17.221  0.1178 -0.0646  0.0797
21865W        W64803   6.146   4.726  17.114  0.1328 -0.0668 -0.1272
21866W        W64804   3.804   7.681  17.979 -0.1189  0.2774 -0.0624
21867W        W64805   5.302   6.242  17.847 -0.2766 -0.0372  0.4362
21868W        W64806   6.721   5.775  17.996 -0.0028  0.0013  0.0978
21869W        W64807   4.362   3.317  16.798 -0.0251 -0.3174  0.5844
21870W        W64808   7.166   4.148  16.774  0.2926  0.0634  0.2101
21871W        W64809   5.418   4.513  18.530  0.0312  0.0817  0.2695
21872W        W64810   7.366   3.242  19.077  0.1410 -0.1286  0.1200
21873W        W64811   4.254   7.312  17.290 -0.3321 -0.3511 -0.0381
21874W        W64812   6.008   4.786  17.602 -0.0173  0.0064  0.2239
21875W        W64813   6.217   6.183  18.923 -0.1253  0.0475 -0.3503
21876W        W64814   5.139   4.660  18.120  0.1740  0.2631  0.2162
21877W        W64815   5.431   4.880  16.444  0.2457 -0.3729 -0.0360
21878W        W64816   8.015   5.755  18.803 -0.1393 -0.1108  0.1546
21879W        W64817   5.325   4.150  16.772  0.1494 -0.2231 -0.1980
21880W        W64818   6.435   6.569  20.104  0.0977  0.1964  0.0611
21881W        W64819   2.680   4.023  18.215  0.0894 -0.0317  0.3498
21882W        W64820   5.361   2.829  16.651  0.0088  0.1803  0.0268
21883W        W64821   3.791   4.724  16.964 -0.2054 -0.0204 -0.0681
21884W        W64822   6.799   3.705  18.238  0.0413 -0.1474  0.1005
21885W        W64823   6.712   7.368  21.090  0.2250  0.0023 -0.0568
21886W        W64824   5.053   3.214  18.347 -0.0636  0.1579  0.0006
21887W        W64825   7.113   6.158  17.821 -0.0248 -0.1790 -0.2423
21888W        W64826   6.161   3.754  17.351  0.0585 -0.1289 -0.0692
21889W        W64827   5.451   7.304  16.858 -0.2616  0.3980  0.2575
21890W        W64828   5.394   4.374  16.305 -0.1741 -0.1102 -0.0856
21891W        W64829   6.852   7.438  18.031  0.0080  0.0973 -0.2149
21892W        W64830   4.698   4.451  17.422 -0.0294  0.1498  0.0480
21893W        W64831   5.839   7.758  17.558  0.2021  0.1916  0.1174
21894W        W64832   6.155   6.213  17.558  0.0417 -0.2489  0.0122
21895W        W64833   5.694   3.020  17.718  0.1742 -0.0404 -0.1887
21896W        W64834   4.268   4.198  17.666  0.1934 -0.0894  0.1770
21897W        W64835   4.121   7.173  17.760  0.3146  0.0046 -0.1655
21898W        W64836   5.732   4.782  18.965 -0.0666  0.1882 -0.2430
21899W        W64837   5.747   4.060  18.479 -0.0068  0.2180  0.2044
21900W        W64838   5.215   7.653  16.574  0.2260  0.2121  0.4063
21901W        W64839   8.140   3.553  19.897  0.3148 -0.0754  0.0451
21902W        W64840   5.316   6.187  18.880  0.1403  0.0143  0.2882
21903W        W64841   5.350   4.697  20.239 -0.1210  0.0374  0.1693
21904W        W64842   3.081   3.905  16.671 -0.0379 -0.2061 -0.0932
21905W        W64843   6.805   6.036  19.482 -0.1689  0.1974  0.0226
21906W        W64844   4.275   5.340  17.849  0.4109  0.3303  0.0983
21907W        W64845   3.890   9.127  18.066  0.2820 -0.2296 -0.2765
21908W        W64846   5.887   7.122  16.721 -0.0249  0.3072 -0.1930
21909W        W64847   6.389   2.630  16.770  0.3159  0.0052  0.2181
21910W        W64848   7.144   6.953  17.267  0.1843  0.0327  0.1329
21911W        W64849   5.223   4.300  17.777  0.1858 -0.1064  0.3941
21912W        W64850   5.724   4.452  16.729 -0.1492 -0.0234  0.0114
21913W        W64851   7.283   1.402  16.321  0.0718 -0.1653 -0.2227
21914W        W64852   7.072   6.124  18.756 -0.0644  0.0597 -0.4987
21915W        W64853   4.008   5.776  16.967 -0.1185  0.1083 -0.1212
21916W        W64854   4.682   7.222  17.150 -0.0285  0.0994  0.2001
21917W        W64855   4.791   5.058  17.973 -0.0314  0.2008 -0.2551
21918W        W64856   5.446   3.451  18.514 -0.0161  0.1467  0.0225
21919W        W64857   4.601   5.470  18.224 -0.0280 -0.2643  0.4499
21920W        W64858   4.962   4.306  18.740 -0.0713 -0.0869  0.3791
21921W        W64859   2.781   4.615  18.137 -0.1549 -0.1425  0.2328
21922W        W64860   5.306   6.659  17.602 -0.2843 -0.0217  0.0499
21923W        W64861   4.746   3.786  16.801 -0.2716  0.0455  0.0849
21924W        W64862   3.195   3.101  18.937  0.3175  0.2493 -0.0984
21925W        W64863   4.681   7.227  17.624  0.4620  0.1216 -0.1495
21926W        W64864   5.740   7.679  16.537 -0.1028 -0.0134 -0.1268
21927W        W64865   5.712   3.528  17.723  0.0009 -0.0903  0.0773
21928W        W64866   7.107   5.794  19.156 -0.0393 -0.0083 -0.1080
21929W        W64867   2.496   5.791  16.365  0.0075  0.3128 -0.1690
21930W        W64868   7.019   3.357  19.604 -0.2032 -0.2437  0.1398
21931W        W64869   4.728   4.780  20.659 -0.0754 -0.2532 -0.1683
21932W        W64870   3.008   3.112  16.780 -0.1293  0.1838 -0.4026
21933W        W64871   5.599   5.388  18.142  0.0034  0.1403 -0.2633
21934W        W64872   4.556   8.155  17.717 -0.2605  0.2312  0.0739
21935W        W64873   5.738   7.621  15.960 -0.1417  0.0114 -0.0543
21936W        W64874   6.087   5.775  18.638 -0.0762  0.1998  0.2311
21937W        W64875   6.201   6.185  18.308 -0.1114  0.1799  0.0870
21938W        W64876   3.905   3.119  19.861 -0.2233 -0.1730 -0.1667
21939W        W64877   6.434   6.090  15.858  0.1055 -0.0725  0.0214
21940W        W64878   6.013   6.253  20.172  0.0788 -0.1726  0.1175
21941W        W64879   5.147   7.133  17.461  0.2617  0.1901  0.0025
21942W        W64880   5.653   3.529  17.248  0.0139  0.0659  0.3403
21943W        W64881   4.889   4.727  17.041 -0.2420  0.0485  0.1643
21944W        W64882   4.420   4.860  19.300  0.1891  0.0402 -0.0066
21945W        W64883   3.599   6.358  19.449 -0.0077  0.2467 -0.0923
21946W        W64884   6.561   5.098  18.436 -0.0313 -0.3760  0.2119
21947W        W64885   5.740   4.033  16.435  0.1081 -0.2425  0.2413
21948W        W64886   6.084   3.356  16.437 -0.1444 -0.0974 -0.0964
21949W        W64887   5.592   6.235  16.897  0.0616 -0.1322 -0.2609
21950W        W64888   4.876   5.582  18.598 -0.2025  0.1255  0.0394
21951W        W64889   5.217   5.176  16.766  0.2528  0.1756 -0.2480
21952W        W64890   6.080   5.746  20.072  0.0153 -0.1716 -0.1909
21953W        W64891   6.194   7.403  17.585  0.0798  0.0658 -0.0579
21954W        W64892   6.518   4.655  19.501 -0.3202  0.2294 -0.0267
21955W        W64893   4.648   4.282  16.955 -0.3725 -0.2189  0.2081
21956W        W64894   7.825   6.483  16.809 -0.1789  0.1742  0.0217
21957W        W64895   5.380   7.506  19.906 -0.3008 -0.1724  0.1138
21958W        W64896   7.774   7.889  20.382 -0.0109 -0.0221  0.1061
21959W        W64897   5.816   7.237  18.446  0.2536 -0.4220  0.2758
21960W        W64898   7.133   5.158  17.187 -0.0127  0.1634  0.1120
21961W        W64899   5.545   2.703  19.157 -0.2839  0.0320  0.3627
21962W        W64900   5.147   5.594  18.167 -0.0091 -0.2013  0.0627
21963W        W64901   4.493   4.694  16.707  0.2421  0.0789  0.1388
21964W        W64902   6.268   4.330  18.179 -0.0007 -0.0866  0.1813
21965W        W64903   4.156   4.260  16.606  0.1987 -0.2876  0.0255
21966W        W64904   6.898   2.045  16.978 -0.2852 -0.2062  0.2320
21967W        W64905   4.996   7.166  18.071 -0.1045 -0.0389 -0.0697
21968W        W64906   5.626   6.276  17.452  0.1293  0.2592 -0.2377
21969W        W64907   3.630   7.202  23.792 -0.2498  0.2430 -0.0575
21970W        W64908   4.150   4.932  20.539  0.0063  0.0915  0.0267
21971W        W64909   7.151   4.017  18.514  0.1584  0.1921  0.2231
21972W        W64910   6.348   3.960  21.190 -0.4082  0.3035 -0.1325
21973W        W64911   4.621   3.047  22.528 -0.1689 -0.1760 -0.2787
21974W        W64912   6.354   7.034  20.245  0.0079 -0.1199  0.2464
21975W        W64913   4.304   3.494  23.678 -0.1297 -0.0395  0.1011
21976W        W64914   7.594   6.672  22.529  0.2048  0.0643 -0.3049
21977W        W64915   6.805   7.207  22.766  0.1369  0.0074  0.1882
21978W        W64916   7.575   3.476  18.639  0.0637  0.3041 -0.1656
21979W        W64917   6.119   4.721  22.008 -0.0981 -0.1441 -0.0492
21980W        W64918   5.554   6.509  23.506  0.1488  0.3168  0.3514
21981W        W64919   5.091   4.133  21.237 -0.0794  0.0505 -0.1854
21982W        W64920   3.958   3.255  23.215 -0.0991 -0.0314 -0.2450
21983W        W64921   6.597   5.136  23.446  0.1042  0.0715 -0.0078
21984W        W64922   4.451   5.077  20.214 -0.1156 -0.2601  0.0880
21985W        W64923   5.872   5.601  22.115  0.0491 -0.3954 -0.0520
21986W        W64924   5.798   4.170  22.179  0.1166 -0.1837 -0.1746
21987W        W64925   4.834   4.643  21.643 -0.1435 -0.2866 -0.1784
21988W        W64926   4.811   5.149  23.077 -0.2401  0.0047  0.0811
21989W        W64927   5.746   3.656  22.930 -0.0750  0.2177 -0.1770
21990W        W64928   5.479   5.176  20.552 -0.0106 -0.2142 -0.1555
21991W        W64929   3.547   5.058  19.531 -0.1413  0.0043 -0.0239
21992W        W64930   4.205   3.377  21.604 -0.2514 -0.0266 -0.3171
21993W        W64931   5.181   4.067  23.443  0.0132 -0.0481 -0.1929
21994W        W64932   5.031   3.065  22.756  0.0418  0.0841  0.0266
21995W        W64933   7.104   5.313  21.389  0.1898  0.2916 -0.1515
21996W        W64934   4.451   6.756  21.799  0.1487 -0.3531  0.0346
21997W        W64935   3.906   5.204  20.191 -0.0553 -0.2780 -0.2160
21998W        W64936   6.463   5.754  22.652 -0.1033  0.2780 -0.0933
21999W        W64937   4.053   6.205  21.078  0.1926 -0.2903  0.0217
22000W        W64938   2.253   7.153  20.124  0.3608  0.1303  0.0689
22001W        W64939   4.002   5.897  21.508  0.0622  0.0086 -0.1987
22002W        W64940   6.783   6.174  19.964 -0.2296 -0.2592 -0.0671
22003W        W64941   6.184   6.988  22.198  0.1586 -0.0037  0.3275
22004W        W64942   4.843   6.112  24.129 -0.0654  0.1720 -0.2105
22005W        W64943   4.343   5.898  20.429  0.0872 -0.0023  0.0392
22006W        W64944   6.416   7.697  23.227 -0.1406 -0.1127  0.0289
22007W        W64945   4.339   7.768  22.240 -0.0660  0.1146  0.0163
22008W        W64946   4.580   5.926  23.103 -0.1070 -0.0280 -0.2404
22009W        W64947   5.335   5.299  21.949  0.0875  0.0291  0.0561
22010W        W64948   4.985   5.822  21.032  0.0215  0.4093  0.2795
22011W        W64949   4.899   7.028  21.970 -0.2559  0.0732  0.1478
22012W        W64950   5.017   6.613  23.567  0.1099  0.0118  0.2436
22013W        W64951   4.141   7.476  20.803 -0.0649 -0.1012 -0.1376
22014W        W64952   6.608   4.237  22.942 -0.0186  0.3825  0.1335
22015W        W64953   3.755   5.959  19.097 -0.1137  0.2841  0.4969
22016W        W64954   6.031   4.524  19.299 -0.0895  0.0135 -0.0432
22017W        W64955   5.973   3.212  20.357  0.2125  0.0892 -0.1448
22018W        W64956   5.857   3.027  22.627  0.3393  0.1874  0.1860
22019W        W64957   5.366   3.451  22.095 -0.0453 -0.1945  0.0569
22020W        W64958   5.919   6.159  20.653  0.1555  0.1234  0.0624
22021W        W64959   5.156   3.070  23.718  0.0871 -0.0624  0.0047
22022W        W64960   6.806   5.956  20.832  0.1183 -0.1044 -0.2722
22023W        W64961   6.833   5.689  21.761  0.1257 -0.1431 -0.0461
22024W        W64962   7.075   3.661  22.093  0.0483  0.0679 -0.1801
22025W        W64963   4.677   6.738  20.611  0.1499 -0.3155 -0.1882
22026W        W64964   4.892   3.514  22.853 -0.2896 -0.0483  0.0981
22027W        W64965   6.811   7.095  19.547  0.1098 -0.2116 -0.0222
22028W        W64966   7.416   8.041  20.087 -0.1625  0.1101  0.0179
22029W        W64967   6.746   5.309  21.026 -0.2835 -0.0561 -0.2605
22030W        W64968   4.713   5.369  19.946  0.0439  0.0543  0.0228
22031W        W64969   3.791   6.470  22.389 -0.1610 -0.1130 -0.0248
22032W        W64970   4.132   4.464  24.806  0.0238 -0.0006 -0.0017
22033W        W64971   5.425   3.850  20.160  0.0524  0.1390  0.0571
22034W        W64972   7.271   6.012  22.925  0.0226  0.1203 -0.1653
22035W        W64973   3.342   7.011  23.318 -0.1237  0.0210  0.1406
22036W        W64974   7.080   3.142  21.006 -0.0772  0.1556 -0.1040
22037W        W64975   3.621   5.088  21.852 -0.2833 -0.2621 -0.2350
22038W        W64976   5.589   5.956  23.440 -0.0378 -0.3149  0.1495
22039W        W64977   6.003   3.909  20.830 -0.2364 -0.0500  0.0540
22040W        W64978   7.059   4.109  22.738 -0.0216  0.0650  0.2811
22041W        W64979   5.119   3.031  21.661 -0.0292  0.0025 -0.0131
22042W        W64980   4.828   5.298  20.470 -0.1893  0.3909 -0.0967
22043W        W64981   4.258   4.942  19.790  0.2301 -0.0666  0.4262
22044W        W64982   8.207   4.967  22.708 -0.1247  0.2250 -0.1517
22045W        W64983   8.176   5.365  20.355  0.4645 -0.0524  0.1126
22046W        W64984   3.686   6.783  21.705  0.0012 -0.1127  0.1350
22047W        W64985   4.707   5.468  23.396  0.0083  0.0858  0.0429
22048W        W64986   6.011   7.141  21.662 -0.3484 -0.0452  0.1760
22049W        W64987   4.559   6.717  19.425 -0.0349 -0.2439  0.3872
22050W        W64988   3.372   6.579  19.893  0.1249  0.0873 -0.1329
22051W        W64989   2.800   6.061  19.981 -0.1651 -0.0031  0.2138
22052W        W64990   3.765   3.485  21.986  0.0343 -0.0810 -0.1404
22053W        W64991   5.058   5.908  21.884  0.1995  0.1764 -0.2499
22054W        W64992   7.668   4.194  20.256  0.3753  0.1014 -0.2488
22055W        W64993   5.204   5.566  23.058 -0.0095 -0.0507  0.0566
22056W        W64994   6.596   4.077  22.413 -0.0288  0.0256  0.2074
22057W        W64995   4.539   5.642  20.785 -0.1433  0.0699 -0.0665
22058W        W64996   7.557   7.317  20.751  0.3931  0.1434  0.3252
22059W        W64997   6.318   3.676  21.594  0.1165 -0.1121  0.0083
22060W        W64998   6.225   6.728  20.620  0.3092 -0.2914  0.3625
22061W        W64999   4.384   3.497  23.054 -0.1226  0.3628 -0.2283
22062W        W65000   4.548   5.047  21.485 -0.1812  0.0786  0.1704
22063W        W65001   5.864   4.033  24.315 -0.1555  0.0748  0.1107
22064W        W65002   4.064   2.950  21.080 -0.2922 -0.1617 -0.2079
22065W        W65003   6.506   5.642  23.191  0.1818 -0.3982  0.1550
22066W        W65004   4.471   3.694  20.100  0.2845  0.2809  0.2604
22067W        W65005   7.109   3.954  21.691  0.4829  0.0540 -0.2040
22068W        W65006   4.325   4.079  20.422  0.1187 -0.1326 -0.1551
22069W        W65007   3.598   5.979  21.168 -0.1203 -0.0483 -0.1103
22070W        W65008   6.246   4.715  22.928 -0.1157  0.0503  0.0992
22071W        W65009   4.253   6.579  20.753  0.0081  0.1507  0.2593
22072W        W65010   7.379   7.277  23.385 -0.5032 -0.0441  0.0913
22073W        W65011   7.583   5.121  21.307 -0.3230  0.3191 -0.1250
22074W        W65012   5.160   5.800  22.393 -0.1342 -0.1490 -0.0164
22075W        W65013   5.609   4.240  21.004 -0.0604  0.0083 -0.1781
22076W        W65014   5.412   7.372  21.863  0.6055  0.0341  0.0539
22077W        W65015   4.590   6.233  21.984  0.2076 -0.0436 -0.1220
22078W        W65016   6.044   4.513  20.776 -0.1237  0.1853  0.1918
22079W        W65017   8.161   8.455  21.943  0.2845  0.2242 -0.1586
22080W        W65018   4.848   4.847  22.526  0.2110 -0.1226 -0.1177
22081W        W65019   4.308   7.307  23.257  0.0952 -0.0351  0.0672
22082W        W65020   5.733   4.260  22.669 -0.0685 -0.0593 -0.0585
22083W        W65021   7.403   3.590  23.002  0.0869  0.1320 -0.2602
22084W        W65022   5.326   4.733  21.942 -0.0643  0.3066 -0.0170
22085W        W65023   3.536   4.049  19.134  0.3292  0.0350 -0.0749
22086W        W65024   5.832   7.535  22.105  0.1687  0.1878  0.3528
22087W        W65025   2.230   6.092  18.886 -0.1129 -0.0624 -0.0353
22088W        W65026   4.589   5.180  20.930 -0.0025  0.1512  0.3150
22089W        W65027   4.236   5.427  21.429  0.0676  0.2318  0.1774
22090W        W65028   5.755   3.153  22.125  0.0190 -0.2167 -0.2760
22091W        W65029   3.255   6.104  22.711  0.0238 -0.3017 -0.1847
22092W        W65030   6.722   4.370  22.032  0.2418 -0.2530 -0.0978
22093W        W65031   4.304   4.598  20.204 -0.0540  0.3379 -0.1917
22094W        W65032   3.967   6.815  23.620 -0.1720  0.0503  0.2300
22095W        W65033   5.340   2.518  22.006 -0.0536 -0.0132  0.2157
22096W        W65034   6.652   3.901  20.245 -0.2383  0.0786 -0.0393
22097W        W65035   6.334   6.483  24.087  0.2310  0.1133  0.0379
22098W        W65036   6.182   5.452  21.229  0.0028 -0.0596 -0.2890
22099W        W65037   6.310   3.627  20.583  0.0228 -0.1154  0.0199
22100W        W65038   5.246   3.380  20.155 -0.0740  0.1120  0.2084
22101W        W65039   4.652   6.145  22.588  0.0237 -0.2373 -0.2873
22102W        W65040   5.491   6.046  21.159 -0.0972 -0.2701 -0.0840
22103W        W65041   5.730   5.963  22.385  0.1449 -0.2167 -0.2326
22104W        W65042   6.252   4.266  21.822  0.0325 -0.4222 -0.2616
22105W        W65043   6.778   6.888  20.433  0.1524 -0.2702 -0.1543
22106W        W65044   3.703   6.276  21.515  0.1084 -0.1057  0.2089
22107W        W65045   6.743   6.565  22.271 -0.3211  0.0756 -0.0748
22108W        W65046   6.405   6.289  20.876 -0.0960 -0.1308 -0.2146
22109W        W65047   4.674   2.722  22.921 -0.1970 -0.1874  0.3733
22110W        W65048   4.201   5.561  19.889  0.1054  0.1161 -0.0524
22111W        W65049   4.612   3.781  22.101 -0.3657 -0.2167 -0.1878
22112W        W65050   2.622   6.082  19.486 -0.0575 -0.0743 -0.2974
22113W        W65051   7.090   4.529  23.051 -0.0679 -0.0474  0.1736
22114W        W65052   4.949   3.013  22.092  0.2610 -0.1331  0.1936
22115W        W65053   5.833   5.028  22.784  0.0377 -0.0751  0.0754
22116W        W65054   6.528   4.609  23.973  0.0371 -0.0446 -0.1866
22117W        W65055   6.548   4.810  21.742  0.2867 -0.1876  0.1377
22118W        W65056   5.277   4.960  23.004 -0.1111  0.0020  0.0214
22119W        W65057   4.660   5.027  18.548  0.3076 -0.3455  0.2071
22120W        W65058   5.223   4.454  22.760 -0.2343  0.1189  0.1030
22121W        W65059   3.608   5.364  22.747  0.2056 -0.1183  0.2548
22122W        W65060   5.223   8.388  22.745 -0.1485 -0.0851 -0.1141
22123W        W65061   7.226   4.925  22.775 -0.0292  0.2339  0.2491
22124W        W65062   4.946   5.327  22.353 -0.1102  0.1553 -0.2412
22125W        W65063   6.343   5.248  21.954 -0.1796 -0.1225 -0.1607
22126W        W65064   5.909   4.025  21.469 -0.0470  0.0382  0.2541
22127W        W65065   3.630   7.427  19.536 -0.0394 -0.2469 -0.1573
22128W        W65066   4.425   5.372  19.490 -0.0532  0.0996 -0.0120
22129W        W65067   4.513   2.754  22.156  0.0924  0.0303 -0.1420
22130W        W65068   5.931   6.937  21.035 -0.1671  0.1036 -0.0544
22131W        W65069   3.969   5.221  19.514 -0.1484 -0.4208  0.0790
22132W        W65070   4.985   6.570  22.670 -0.1766 -0.1757 -0.3305
22133W        W65071   3.828   5.760  20.211  0.1399  0.1473 -0.0117
22134W        W65072   6.223   4.432  22.437 -0.1531  0.3628 -0.0392
22135W        W65073   3.525   6.329  20.348 -0.2444 -0.4610  0.3773
22136W        W65074   4.134   5.220  20.952  0.1523  0.3087 -0.3231
22137W        W65075   4.271   3.940  20.934 -0.3145 -0.1384  0.2208
22138W        W65076   6.259   4.552  21.430  0.2360  0.1568  0.0281
22139W        W65077   5.138   5.030  20.942  0.1288  0.0783  0.2415
22140W        W65078   3.673   5.943  22.568 -0.2031  0.1250 -0.2244
22141W        W65079   5.255   4.297  21.713  0.2388  0.0720  0.3092
22142W        W65080   4.444   7.094  21.136 -0.0225 -0.0555 -0.2885
22143W        W65081   5.467   4.089  23.042  0.0142 -0.0238  0.0945
22144W        W65082   8.399   3.023  20.068 -0.0261 -0.0576 -0.1044
22145W        W65083   5.776   6.406  23.007  0.0795 -0.2555 -0.1315
22146W        W65084   5.730   6.723  21.503 -0.4108 -0.2062 -0.3051
22147W        W65085   4.144   5.590  19.157  0.1750 -0.1850  0.1199
22148W        W65086   7.064   4.841  23.482  0.0652 -0.0249  0.0621
22149W        W65087   4.010   4.396  21.914 -0.2403  0.0670 -0.1679
22150W        W65088   4.197   7.716  21.291 -0.1202  0.3691 -0.3314
22151W        W65089   3.908   5.977  22.015 -0.0541 -0.4707  0.3390
22152W        W65090   5.777   6.219  21.475  0.0427 -0.1919  0.0791
22153W        W65091   3.712   6.676  20.664 -0.2160  0.2605  0.0043
22154W        W65092   6.155   4.523  23.393 -0.0232 -0.3273  0.2771
22155W        W65093   6.352   5.353  23.835 -0.1937  0.0727  0.0526
22156W        W65094   4.327   4.620  21.532 -0.4049 -0.0740 -0.0422
22157W        W65095   4.308   4.775  22.310  0.1046  0.2337 -0.0994
22158W        W65096   6.332   5.190  22.928 -0.3207 -0.1117 -0.1337
22159W        W65097   6.102   6.625  21.783  0.0376  0.0618 -0.3661
22160W        W65098   5.262   5.120  23.517 -0.3295  0.1858  0.0968
22161W        W65099   4.674   6.667  24.035  0.4732  0.3431  0.1683
22162W        W65100   4.682   2.625  21.711 -0.3754  0.1976 -0.1634
22163W        W65101   6.389   7.122  20.820  0.1679 -0.3264 -0.1937
22164W        W65102   6.661   4.510  23.352  0.1599  0.1891 -0.0791
22165W        W65103   4.718   4.084  20.797  0.1049 -0.1571  0.2681
22166W        W65104   3.255   5.939  22.206 -0.0942  0.1656  0.1164
22167W        W65105   4.246   5.429  20.483 -0.0350  0.0665 -0.1952
22168W        W65106   5.334   4.367  22.299  0.2922  0.1144  0.0316
22169W        W65107   4.796   7.047  21.482 -0.0128  0.1414 -0.1435
22170W        W65108   3.753   5.352  20.641 -0.0041  0.1759  0.0387
22171W        W65109   4.569   6.373  20.370  0.4902  0.0303  0.0794
22172W        W65110   5.695   3.541  19.036 -0.0849 -0.1417  0.1249
22173W        W65111   5.052   5.088  21.442  0.0320  0.0454 -0.1108
22174W        W65112   4.327   3.159  20.153  0.0991 -0.0663 -0.1660
22175W        W65113   8.095   4.175  21.864  0.2376 -0.2002 -0.1062
22176W        W65114   6.812   4.825  21.233 -0.2989 -0.1195 -0.1667
22177W        W65115   6.323   2.830  23.491  0.1373  0.2706  0.1015
22178W        W65116   3.625   4.849  22.369 -0.0362  0.1773 -0.1281
22179W        W65117   8.688   6.490  20.947  0.0948 -0.0242 -0.1725
22180W        W65118   4.296   3.275  22.073  0.0767 -0.0040 -0.1921
22181W        W65119   6.248   6.817  23.022  0.0909 -0.0524 -0.0003
22182W        W65120   4.342   6.016  24.046  0.1696  0.2585  0.0225
22183W        W65121   5.180   4.303  20.771 -0.0658 -0.1357  0.2138
22184W        W65122   4.387   2.455  20.141  0.0673  0.2077 -0.0881
22185W        W65123   4.782   7.463  22.220  0.2230 -0.1482  0.1386
22186W        W65124   6.945   6.932  21.332 -0.0658  0.1077  0.2833
22187W        W65125   5.535   5.151  21.501 -0.0332  0.0846 -0.4876
22188W        W65126   7.129   5.553  22.258  0.0878  0.3111  0.0889
22189W        W65127   4.154   5.685  22.311 -0.0579  0.0280  0.3637
22190W        W65128   6.275   2.458  21.259 -0.1470 -0.3050 -0.0344
22191W        W65129   6.191   5.605  20.737 -0.0552 -0.0869  0.2591
22192W        W65130   4.874   5.453  21.840  0.1328  0.0402  0.0052
22193W        W65131   4.642   2.914  23.719  0.0083 -0.0196  0.2767
22194W        W65132   6.807   6.637  20.949  0.0042 -0.0744  0.0323
22195W        W65133   6.848   4.559  22.554  0.2274 -0.0848 -0.2084
22196W        W65134   4.960   3.494  22.339 -0.2788 -0.0047 -0.0283
22197W        W65135   4.845   5.118  23.788 -0.2723  0.0008  0.1659
22198W        W65136   6.765   4.856  22.963  0.2100  0.0363 -0.1378
22199W        W65137   4.540   3.979  23.905 -0.2411 -0.1837  0.1547
22200W        W65138   6.460   7.495  23.680  0.1653 -0.2111 -0.3098
22201W        W65139   5.695   4.553  19.609  0.5415 -0.1555 -0.2543
22202W        W65140   6.377   5.903  24.010  0.3759  0.2104  0.1001
22203W        W65141   6.373   3.148  20.651  0.0617 -0.0281 -0.2155
22204W        W65142   6.602   3.958  20.781  0.3655 -0.3898  0.2652
22205W        W65143   4.544   4.354  22.645 -0.1345  0.0756  0.1234
22206W        W65144   7.368   6.508  23.013 -0.2710 -0.1356 -0.0657
22207W        W65145   5.226   5.191  20.050  0.1992 -0.0915 -0.0000
22208W        W65146   7.848   3.249  23.825 -0.3041  0.3177  0.1755
22209W        W65147   7.277   6.409  21.003  0.0208 -0.1349 -0.0967
22210W        W65148   4.785   4.715  21.144 -0.2510  0.2622 -0.3211
22211W        W65149   5.821   4.756  21.210 -0.0440 -0.4551  0.1021
22212W        W65150   3.858   4.432  20.762  0.0136 -0.3513  0.0625
22213W        W65151   3.857   6.809  24.080 -0.2572  0.2759  0.0277
22214W        W65152   3.662   5.483  19.790 -0.2594  0.2920  0.3262
22215W        W65153   3.627   5.484  19.257  0.2749  0.1000  0.0102
22216W        W65154   6.579   5.278  21.482 -0.4309 -0.1476  0.0017
22217W        W65155   7.416   6.629  22.029 -0.0372  0.0265  0.0141
22218W        W65156   6.154   4.930  18.692  0.1664  0.0209 -0.1432
22219W        W65157   7.079   3.274  23.192 -0.0300 -0.4138  0.0256
22220W        W65158   3.825   6.335  19.904  0.2708  0.0453  0.0793
22221W        W65159   6.637   3.850  21.962  0.1216  0.2109  0.1788
22222W        W65160   4.340   7.359  21.793 -0.0359  0.0120 -0.0694
22223W        W65161   3.841   6.907  22.163 -0.1173  0.2622  0.2335
22224W        W65162   5.559   6.411  22.035  0.1688 -0.1742  0.1147
22225W        W65163   6.275   3.113  22.269 -0.2048  0.1434 -0.4066
22226W        W65164   6.415   4.930  22.411  0.4154 -0.1349 -0.3302
22227W        W65165   5.065   5.984  22.826  0.0319  0.1579 -0.0593
22228W        W65166   7.311   5.100  22.336  0.1258  0.0379  0.0335
22229W        W65167   5.247   4.562  23.392 -0.0647 -0.0236  0.1730
22230W        W65168   4.733   5.526  21.378  0.1908 -0.2531  0.2024
22231W        W65169   7.168   6.998  22.494  0.0446 -0.0319  0.1987
22232W        W65170   6.209   4.493  19.984 -0.1310 -0.1514  0.0054
22233W        W65171   4.137   6.879  22.580  0.0512 -0.0260 -0.0705
22234W        W65172   4.463   5.232  22.518  0.1504  0.0893  0.0286
22235W        W65173   5.648   5.442  23.569  0.0810  0.0650  0.1113
22236W        W65174   5.327   4.965  22.371 -0.0631 -0.0050  0.0256
22237W        W65175   4.865   4.389  22.131 -0.0917 -0.3518  0.1489
22238W        W65176   3.909   6.467  19.076  0.0398 -0.0085  0.2255
22239W        W65177   3.544   5.981  24.756  0.1732  0.1974 -0.1950
22240W        W65178   3.558   5.968  23.648 -0.0062  0.0084  0.2927
22241W        W65179   4.546   6.875  18.606  0.1204 -0.0167 -0.1765
22242W        W65180   5.690   4.997  19.949 -0.2083  0.3870  0.2310
22243W        W65181   6.878   4.826  20.755  0.3229  0.3188 -0.0326
22244W        W65182   5.526   7.748  20.953  0.1129 -0.1206 -0.0194
22245W        W65183   4.023   4.487  19.823 -0.1384 -0.0290 -0.2325
22246W        W65184   3.043   6.034  20.420 -0.1343  0.2310 -0.0720
22247W        W65185   3.285   5.744  19.491  0.4099  0.2322  0.5393
22248W        W65186   6.306   5.669  19.579 -0.0108 -0.0738 -0.0751
22249W        W65187   4.110   6.963  19.244 -0.0619  0.1354 -0.1089
22250W        W65188   7.382   5.475  22.678  0.4118 -0.0061  0.1375
22251W        W65189   7.060   3.229  18.091 -0.1105 -0.0251  0.0015
22252W        W65190   7.279   4.576  21.035  0.0848  0.0894 -0.0252
22253W        W65191   5.857   4.091  19.944 -0.0386 -0.1748 -0.1050
22254W        W65192   7.471   4.962  23.219  0.0735 -0.4164  0.0287
22255W        W65193   5.362   4.663  21.179 -0.3085  0.2917 -0.2382
22256W        W65194   4.952   4.564  19.199 -0.0309  0.3561  0.2888
22257W        W65195   4.828   6.071  24.702 -0.3299  0.0895  0.1918
22258W        W65196   6.151   3.314  23.551 -0.1099  0.2841  0.3924
22259W        W65197   4.293   8.714  23.331 -0.5279  0.2019  0.2321
22260W        W65198   7.318   7.723  20.479  0.1310 -0.0431  0.0561
22261W        W65199   3.618   4.480  19.546  0.0778 -0.2131 -0.0099
22262W        W65200   4.473   4.185  21.817 -0.2332  0.0112  0.0570
22263W        W65201   7.196   3.187  22.141 -0.1452 -0.1312 -0.0340
22264W        W65202   6.231   4.127  20.329  0.1032 -0.0860 -0.2644
22265W        W65203   6.203   3.688  23.131 -0.0835  0.1476 -0.1337
22266W        W65204   5.515   5.949  21.838  0.0325  0.4397  0.1063
22267W        W65205   4.685   6.656  21.245 -0.2246 -0.1251  0.1517
22268W        W65206   5.278   6.971  21.425  0.0139  0.1404 -0.1618
22269W        W65207   3.319   3.898  22.391  0.1645 -0.0994 -0.0703
22270W        W65208   6.651   3.454  22.390  0.1090  0.2809  0.2722
22271W        W65209   4.708   5.633  22.762  0.1576  0.2301  0.2370
22272W        W65210   6.070   3.035  24.374 -0.0629 -0.1329 -0.0102
22273W        W65211   3.883   4.979  21.400 -0.0274 -0.1887  0.1708
22274W        W65212   6.734   3.468  20.848 -0.2194 -0.1073  0.2544
22275W        W65213   4.433   5.756  21.785 -0.0427  0.2708  0.1280
22276W        W65214   3.615   4.657  23.084  0.0241  0.2395  0.0071
22277W        W65215   5.229   4.833  19.671  0.0346 -0.0360  0.1782
22278W        W65216   5.727   5.020  22.043 -0.1575 -0.2313  0.0423
22279W        W65217   6.870   5.353  18.748 -0.1561 -0.1868 -0.2561
22280W        W65218   6.156   6.140  22.691  0.2156 -0.2172  0.4313
22281W        W65219   4.381   4.447  20.749 -0.3391 -0.1005  0.0528
22282W        W65220   6.519   4.403  20.927  0.0049  0.1996  0.1091
22283W        W65221   4.459   5.264  21.971  0.1223  0.0952 -0.0032
22284W        W65222   4.242   6.193  22.341 -0.0507 -0.2890  0.4183
22285W        W65223   6.082   8.105  22.693 -0.3307  0.2785 -0.1275
22286W        W65224   4.062   3.598  20.495  0.1795  0.2426 -0.2008
22287W        W65225   6.981   3.964  21.048  0.0358  0.0316  0.0783
22288W        W65226   6.858   5.866  20.359 -0.1023 -0.0221 -0.1602
22289W        W65227   5.848   6.913  19.332 -0.1551 -0.0620  0.0584
22290W        W65228   5.847   5.584  21.537 -0.0887 -0.2495 -0.0468
22291W        W65229   7.011   6.303  21.935 -0.3249 -0.0279 -0.2022
22292W        W65230   4.371   2.573  21.333 -0.0825  0.0332  0.1892
22293W        W65231   4.447   7.072  22.213 -0.0007 -0.2674  0.2820
22294W        W65232   4.524   4.910  23.400  0.4607  0.4265 -0.1614
22295W        W65233   5.549   2.636  20.687 -0.5804  0.0572 -0.0040
22296W        W65234   4.039   4.429  22.730  0.3511  0.0351 -0.1548
22297W        W65235   2.941   6.509  20.110 -0.0948  0.2019  0.0246
22298W        W65236   5.667   5.407  23.050  0.0383 -0.2028  0.0608
22299W        W65237   5.442   3.322  22.718  0.0090  0.2633 -0.0379
22300W        W65238   5.323   5.913  20.690  0.1950  0.2893  0.1963
22301W        W65239   7.514   3.243  22.543 -0.2292  0.0611  0.1010
22302W        W65240   6.321   6.347  22.259 -0.0940  0.0557  0.1716
22303W        W65241   6.567   7.044  21.734  0.4906  0.0665  0.0110
22304W        W65242   3.371   4.342  20.052 -0.1481  0.2625  0.4006
22305W        W65243   6.062   6.130  21.864 -0.2060  0.0328 -0.0093
22306W        W65244   3.995   5.449  21.851  0.2435  0.0012 -0.1725
22307W        W65245   5.543   5.993  20.058  0.1288  0.1315  0.1779
22308W        W65246   6.906   6.803  19.948  0.0831  0.0900 -0.1951
22309W        W65247   6.109   5.005  21.561  0.1261 -0.2678 -0.3260
22310W        W65248   7.675   7.454  21.343  0.3778 -0.1693  0.1275
22311W        W65249   4.259   3.828  21.406 -0.2127  0.3184 -0.1536
22312W        W65250   6.954   2.700  20.825 -0.0209 -0.2549  0.3258
22313W        W65251   7.247   3.956  19.036  0.5494 -0.3179  0.2816
22314W        W65252   5.049   6.252  22.232 -0.1586 -0.0729 -0.1649
22315W        W65253   4.594   6.248  20.929 -0.0696  0.0816 -0.1245
22316W        W65254   2.917   7.038  19.983 -0.2919 -0.0209  0.0490
22317W        W65255   3.790   6.384  22.899  0.2676 -0.0396  0.0119
22318W        W65256   7.909   3.510  24.881  0.2156  0.1753  0.1398
22319W        W65257   6.363   5.032  24.217 -0.2773 -0.0474 -0.0747
22320W        W65258   3.621   5.556  22.199 -0.0257 -0.0642  0.0316
22321W        W65259   3.545   2.701  21.152 -0.1773 -0.3991 -0.0003
22322W        W65260   6.822   4.378  20.396  0.0717  0.2393  0.2821
22323W        W65261   3.376   3.557  20.603 -0.0719  0.1326 -0.0593
22324W        W65262   4.329   3.097  20.704  0.0827 -0.2762 -0.1697
22325W        W65263   7.330   5.732  20.182  0.2914  0.0311 -0.2601
22326W        W65264   6.232   7.310  21.252 -0.2067  0.1329 -0.3293
22327W        W65265   4.618   4.141  19.950 -0.1725  0.2627 -0.1381
22328W        W65266   7.986   7.101  23.878 -0.1576  0.0781  0.1640
22329W        W65267   3.305   5.851  19.980 -0.0486  0.0656  0.4328
22330W        W65268   5.731   4.298  23.444  0.0862  0.2346 -0.0213
22331W        W65269   5.565   2.996  24.573  0.3536  0.4340  0.0200
22332W        W65270   3.477   4.090  20.817  0.0936  0.0433  0.2237
22333W        W65271   5.768   4.647  22.394  0.2404 -0.0686  0.2065
22334W        W65272   6.195   7.618  22.390  0.1286  0.4379  0.3601
22335W        W65273   5.437   7.177  20.883 -0.0046  0.1700  0.0087
22336W        W65274   4.277   6.301  21.572 -0.0439 -0.1863 -0.0435
22337W        W65275   4.998   7.054  22.509  0.0888  0.1053  0.2770
22338W        W65276   4.413   3.523  24.221 -0.1911 -0.2637  0.1195
22339W        W65277   6.300   5.830  22.185 -0.2233 -0.0666 -0.3035
22340W        W65278   5.293   6.333  21.529  0.0208 -0.1684 -0.1549
22341W        W65279   6.681   4.265  19.923  0.3179  0.3538  0.2547
22342W        W65280   7.085   4.691  22.139 -0.0260 -0.1009  0.3074
22343W        W65281   5.297   5.628  21.445  0.0950  0.2549  0.0897
22344W        W65282   4.263   2.404  23.731  0.0107 -0.3824  0.0174
22345W        W65283   4.403   7.006  23.801 -0.2063 -0.0286 -0.0843
22346W        W65284   6.665   6.587  21.756 -0.0458 -0.0209 -0.0117
22347W        W65285   5.161   3.935  22.033 -0.0873  0.1169  0.0111
22348W        W65286   7.577   3.295  20.758  0.0559 -0.1934 -0.2123
22349W        W65287   3.808   3.744  20.942  0.1353  0.0017  0.1816
22350W        W65288   4.284   4.107  22.323  0.0484 -0.2405  0.0308
22351W        W65289   5.029   4.254  20.292  0.2161  0.0400 -0.3420
22352W        W65290   4.738   6.374  23.037 -0.0083  0.1319 -0.0883
22353W        W65291   5.461   6.331  22.612  0.0460 -0.2069 -0.0992
22354W        W65292   6.175   5.374  22.456 -0.0975  0.1908  0.4762
22355W        W65293   4.859   4.810  20.171  0.3241  0.2921  0.2502
22356W        W65294   8.259   6.121  21.036 -0.0472 -0.4908 -0.0878
22357W        W65295   5.478   6.841  22.719  0.2226  0.1769 -0.2552
22358W        W65296   6.316   7.302  22.872  0.2387 -0.0932  0.0740
22359W        W65297   4.717   7.789  22.624  0.1906 -0.0237  0.3894
22360W        W65298   6.403   6.312  23.143  0.0083 -0.0198  0.1881
22361W        W65299   3.412   3.100  22.125  0.3228 -0.2745  0.0977
22362W        W65300   4.653   5.753  22.260  0.2826 -0.0094  0.0129
22363W        W65301   5.834   3.623  22.405 -0.0676  0.2175 -0.2917
22364W        W65302   6.867   5.174  22.573 -0.0168  0.0678  0.3489
22365W        W65303   4.090   4.919  21.865  0.1925  0.1855 -0.0421
22366W        W65304   5.828   3.754  20.356  0.3008 -0.3270 -0.1460
22367W        W65305   6.174   6.769  23.578  0.3590  0.3205 -0.1750
22368W        W65306   6.576   6.093  21.857  0.0481  0.3401  0.1268
22369W        W65307   5.589   5.807  25.095 -0.0291  0.2522 -0.1510
22370W        W65308   5.034   5.285  24.276  0.0553  0.2922  0.0189
22371W        W65309   7.505   4.144  23.032  0.1698 -0.0774 -0.4346
22372W        W65310   7.542   4.331  23.944  0.0196  0.1706 -0.3466
22373W        W65311   4.014   5.188  24.153  0.1913 -0.0712 -0.2256
22374W        W65312   6.489   7.396  24.240 -0.2379 -0.0720  0.0652
22375W        W65313   5.044   2.777  26.343  0.1410 -0.1811  0.0461
22376W        W65314   7.446   5.994  25.701  0.0800  0.0407  0.0104
22377W        W65315   6.595   5.971  25.180  0.0732  0.1979 -0.0444
22378W        W65316   5.567   5.547  22.543  0.1108 -0.0784 -0.1869
22379W        W65317   5.090   5.329  25.760 -0.4681 -0.2498 -0.2219
22380W        W65318   5.645   6.003  25.749  0.1579 -0.0687  0.2065
22381W        W65319   6.179   2.842  25.401 -0.0145  0.0056 -0.1625
22382W        W65320   3.510   4.007  26.654 -0.1963  0.0853 -0.0276
22383W        W65321   6.745   6.991  25.279 -0.1605 -0.1483 -0.1563
22384W        W65322   3.773   5.129  23.169  0.0960  0.0377 -0.1884
22385W        W65323   6.117   5.399  27.149  0.1096 -0.0320 -0.0248
22386W        W65324   6.042   4.722  25.148  0.2568  0.0968  0.2485
22387W        W65325   3.069   7.672  24.740 -0.0650 -0.2292  0.0569
22388W        W65326   5.241   4.418  25.820  0.2287  0.0912  0.0343
22389W        W65327   6.051   2.477  27.596  0.0292 -0.1856  0.0582
22390W        W65328   5.065   6.632  24.547  0.0410  0.4799 -0.3692
22391W        W65329   3.707   4.362  23.708 -0.0180 -0.1125  0.1233
22392W        W65330   2.817   5.010  26.085 -0.1286 -0.1100 -0.0592
22393W        W65331   4.814   5.218  26.607 -0.0970  0.0044 -0.2694
22394W        W65332   7.074   5.096  25.536  0.1156 -0.0748 -0.1524
22395W        W65333   7.001   5.077  26.069 -0.5375  0.2218  0.1040
22396W        W65334   5.612   6.471  25.739  0.0191 -0.1625 -0.3378
22397W        W65335   5.263   7.551  25.027  0.0794  0.2641  0.1848
22398W        W65336   7.557   4.389  26.717 -0.2786  0.0813  0.0815
22399W        W65337   3.867   5.627  26.434  0.2835 -0.2760 -0.1789
22400W        W65338   3.034   6.350  24.853  0.1513 -0.1166 -0.1362
22401W        W65339   4.513   7.727  23.685  0.3863  0.0168 -0.1036
22402W        W65340   7.236   6.375  23.525  0.5200  0.0002 -0.2644
22403W        W65341   6.876   6.230  26.685 -0.3864 -0.2255 -0.2777
22404W        W65342   4.185   6.779  27.196 -0.1214 -0.1916  0.3670
22405W        W65343   1.333   7.891  24.073 -0.1998 -0.1791  0.0897
22406W        W65344   4.752   8.007  26.543  0.2178  0.2182 -0.1417
22407W        W65345   4.641   6.539  25.933  0.0168 -0.3123 -0.1233
22408W        W65346   6.591   5.224  25.697 -0.1228  0.0066 -0.0272
22409W        W65347   5.791   5.243  25.013 -0.0137 -0.1294  0.3592
22410W        W65348   5.371   6.273  24.329 -0.0472  0.0805 -0.0764
22411W        W65349   6.152   4.919  23.706  0.1764  0.1339  0.0700
22412W        W65350   5.257   6.849  25.457  0.0370  0.2285 -0.3193
22413W        W65351   3.401   6.559  25.597  0.0529 -0.2012 -0.2772
22414W        W65352   6.931   4.736  27.609  0.4627  0.2392  0.1101
22415W        W65353   4.479   7.002  24.360 -0.1683 -0.2281 -0.0217
22416W        W65354   6.837   5.149  24.600  0.1975 -0.2531  0.0577
22417W        W65355   4.622   2.524  23.366 -0.1116 -0.0274  0.1703
22418W        W65356   8.137   5.211  25.097 -0.0907  0.2207  0.0784
22419W        W65357   5.653   3.885  24.761 -0.0908 -0.1522 -0.0936
22420W        W65358   4.564   6.903  24.882  0.0851 -0.0347 -0.1192
22421W        W65359   5.502   3.781  25.239 -0.1819 -0.1653 -0.0200
22422W        W65360   7.295   6.955  26.111 -0.2925  0.3162 -0.4143
22423W        W65361   6.218   5.214  25.317  0.1879  0.2445 -0.0355
22424W        W65362   7.279   4.587  26.259 -0.1856 -0.0425 -0.0254
22425W        W65363   4.315   7.165  26.898 -0.2987 -0.1928  0.0962
22426W        W65364   5.004   5.043  24.820  0.4972 -0.2337  0.3262
22427W        W65365   7.640   7.670  23.211  0.0441 -0.1852  0.0195
22428W        W65366   7.009   5.934  23.798  0.1245 -0.0118  0.0412
22429W        W65367   6.633   6.243  22.671 -0.0823  0.0877  0.0754
22430W        W65368   3.960   6.366  23.811  0.3168  0.0771 -0.1346
22431W        W65369   5.102   6.270  26.332 -0.0284  0.0340 -0.0232
22432W        W65370   5.989   3.049  26.789 -0.0337  0.2912 -0.1286
22433W        W65371   5.699   3.870  23.898  0.1392  0.0805  0.2473
22434W        W65372   8.232   5.850  27.754  0.0662  0.0357 -0.1905
22435W        W65373   2.830   7.304  26.686 -0.1159  0.4214  0.1446
22436W        W65374   7.333   4.487  24.406 -0.0311 -0.0608 -0.1779
22437W        W65375   5.751   5.714  26.923  0.2033 -0.1829 -0.2122
22438W        W65376   7.061   6.040  25.265  0.1459 -0.0886  0.2251
22439W        W65377   7.687   5.918  22.475 -0.1895  0.0544 -0.1538
22440W        W65378   6.661   3.082  26.112 -0.0254  0.1127 -0.2424
22441W        W65379   7.776   6.331  24.482  0.0123  0.1309  0.0643
22442W        W65380   4.612   6.289  23.708  0.0166  0.0853 -0.1233
22443W        W65381   5.028   5.969  23.326  0.1537 -0.1455  0.1823
22444W        W65382   7.853   7.175  25.835 -0.1720 -0.0201 -0.0847
22445W        W65383   7.190   6.346  22.574 -0.1536 -0.4537  0.2914
22446W        W65384   3.999   6.187  25.102 -0.0682  0.4567 -0.1764
22447W        W65385   5.865   4.655  27.341 -0.1394  0.1284 -0.1709
22448W        W65386   6.672   5.165  26.923 -0.0338  0.0940  0.3017
22449W        W65387   5.443   8.552  23.236  0.1212 -0.0932  0.3914
22450W        W65388   4.734   5.350  26.085  0.0449  0.0352 -0.2266
22451W        W65389   4.158   4.785  25.128 -0.1101  0.3091 -0.2159
22452W        W65390   5.233   3.895  26.990 -0.4016 -0.0031 -0.1074
22453W        W65391   5.294   4.884  24.479 -0.0890  0.3095 -0.1144
22454W        W65392   7.512   2.467  24.220  0.0305  0.1343 -0.2466
22455W        W65393   4.560   4.530  27.127 -0.2069  0.1891  0.1570
22456W        W65394   7.715   2.976  24.492 -0.0998 -0.0431 -0.0346
22457W        W65395   4.162   5.111  24.724  0.2056 -0.2866 -0.2250
22458W        W65396   4.895   7.260  24.598  0.2360 -0.0333  0.0997
22459W        W65397   6.122   5.399  23.343 -0.2939  0.0242 -0.2790
22460W        W65398   7.784   6.200  22.881 -0.0569 -0.0836  0.1925
22461W        W65399   4.015   5.145  26.625 -0.1799 -0.0871 -0.0035
22462W        W65400   4.571   4.765  24.789  0.2501  0.1010  0.1292
22463W        W65401   5.757   4.487  26.612  0.1101 -0.1391  0.0253
22464W        W65402   4.476   4.318  25.181 -0.1394 -0.3263 -0.0126
22465W        W65403   7.105   5.745  27.992 -0.1887 -0.0916 -0.2993
22466W        W65404   4.345   2.039  24.220  0.1518 -0.0853  0.3364
22467W        W65405   5.960   4.823  26.275  0.0586  0.1694  0.1226
22468W        W65406   5.432   5.430  24.683 -0.0689 -0.1470 -0.0213
22469W        W65407   3.013   5.143  24.971  0.1094  0.0066 -0.1288
22470W        W65408   6.225   4.497  26.954  0.0896 -0.4479  0.0468
22471W        W65409   6.117   7.307  23.322 -0.1551  0.1568  0.0045
22472W        W65410   7.158   9.541  26.391 -0.1460 -0.0613  0.4636
22473W        W65411   5.267   7.980  24.287 -0.0937 -0.1115  0.3291
22474W        W65412   6.592   4.653  26.541 -0.0445  0.2369  0.1735
22475W        W65413   4.803   4.612  23.766 -0.1176  0.0838 -0.2754
22476W        W65414   2.997   4.629  25.137  0.1213 -0.1491 -0.2379
22477W        W65415   6.100   6.284  23.594  0.1206 -0.1637 -0.3838
22478W        W65416   6.718   2.839  23.808 -0.0758 -0.0534  0.0500
22479W        W65417   7.370   8.101  25.106  0.2452  0.2300  0.0732
22480W        W65418   6.343   4.952  24.684  0.1895 -0.1773  0.0003
22481W        W65419   5.727   5.137  27.175  0.0729  0.3211 -0.2644
22482W        W65420   6.648   4.713  27.139 -0.0241  0.0746 -0.1227
22483W        W65421   7.005   5.022  26.555  0.0879  0.1570  0.2911
22484W        W65422   6.850   4.675  24.334  0.2781 -0.2535 -0.0806
22485W        W65423   2.418   5.310  24.749 -0.0499  0.1232  0.3948
22486W        W65424   5.735   7.056  26.085 -0.4142  0.0492 -0.1668
22487W        W65425   4.229   8.064  24.110 -0.2106 -0.4504 -0.0090
22488W        W65426   4.425   4.402  24.118  0.0129  0.1407 -0.2383
22489W        W65427   5.306   8.050  25.017 -0.0885 -0.1332 -0.0530
22490W        W65428   6.861   5.998  26.224  0.3293  0.1123  0.0059
22491W        W65429   3.294   5.875  27.606 -0.1797 -0.2367 -0.0182
22492W        W65430   4.857   4.704  26.717  0.0169  0.2454 -0.3104
22493W        W65431   4.743   4.112  22.997  0.0211 -0.0107  0.1144
22494W        W65432   5.503   6.464  26.630 -0.3405  0.1902 -0.0245
22495W        W65433   6.410   4.063  24.304 -0.0793 -0.0270  0.0589
22496W        W65434   6.592   3.825  24.772 -0.0837  0.4853 -0.1559
22497W        W65435   6.419   4.938  26.107 -0.0957 -0.1437 -0.0329
22498W        W65436   5.937   5.402  24.089 -0.2187 -0.0170 -0.1252
22499W        W65437   4.978   4.302  24.171 -0.1109 -0.0157 -0.0987
22500W        W65438   6.105   3.953  23.560 -0.0105 -0.5915  0.0113
22501W        W65439   3.465   6.623  26.789 -0.1152 -0.0853 -0.1631
22502W        W65440   6.119   6.548  24.621  0.0324 -0.1456  0.1349
22503W        W65441   5.552   5.501  25.930 -0.4469  0.0080  0.0120
22504W        W65442   4.323   4.417  23.150  0.2310 -0.0322 -0.1356
22505W        W65443   6.986   6.537  24.374  0.1073 -0.1213 -0.0675
22506W        W65444   4.694   5.706  25.735 -0.1566  0.0892 -0.1731
22507W        W65445   6.185   5.990  28.007 -0.2716 -0.0063 -0.1923
22508W        W65446   6.226   7.362  25.001 -0.3847  0.1198 -0.2287
22509W        W65447   6.243   4.268  26.429 -0.2419  0.1522  0.0259
22510W        W65448   4.287   5.325  22.962  0.0067 -0.0787  0.0186
22511W        W65449   6.014   4.351  23.855  0.1748  0.0413 -0.2318
22512W        W65450   4.077   8.776  22.793 -0.0377  0.0350 -0.1091
22513W        W65451   6.368   3.669  26.313  0.0377 -0.1904  0.0055
22514W        W65452   4.612   3.747  27.046 -0.0272 -0.0599 -0.0244
22515W        W65453   6.312   1.938  27.144 -0.1009 -0.0537 -0.1260
22516W        W65454   7.567   4.726  28.963  0.0959 -0.1389 -0.1830
22517W        W65455   6.866   5.494  24.123  0.2979  0.1790  0.1008
22518W        W65456   6.740   4.690  25.809 -0.0694 -0.1153 -0.1480
22519W        W65457   4.388   4.863  23.839  0.1219 -0.1440 -0.0090
22520W        W65458   6.291   3.405  25.787  0.0212 -0.4109 -0.1019
22521W        W65459   4.310   5.877  27.340 -0.0525  0.0168  0.1031
22522W        W65460   3.900   6.518  25.704  0.0795 -0.0570 -0.0125
22523W        W65461   6.457   5.778  25.647 -0.2367  0.1032  0.3060
22524W        W65462   5.804   5.072  24.520  0.0773 -0.2505  0.1599
22525W        W65463   5.191   5.253  26.253 -0.0124  0.4217 -0.0132
22526W        W65464   4.021   4.814  23.447  0.0443  0.1339  0.1443
22527W        W65465   4.620   7.828  24.298 -0.0004  0.2534  0.0920
22528W        W65466   6.346   5.983  24.594 -0.2846  0.0810 -0.3935
22529W        W65467   4.884   3.955  25.124  0.0950 -0.0721  0.0673
22530W        W65468   4.968   6.466  25.061 -0.1136  0.0401 -0.3124
22531W        W65469   6.690   6.603  23.393  0.3110  0.0359 -0.2301
22532W        W65470   6.115   6.057  25.458 -0.3598 -0.1554 -0.0502
22533W        W65471   4.667   5.979  26.687  0.0457  0.1370 -0.0309
22534W        W65472   5.403   3.645  26.528 -0.0175  0.0219 -0.2497
22535W        W65473   4.283   5.137  26.205  0.1977  0.0781  0.2900
22536W        W65474   5.693   4.600  23.041 -0.1219  0.1693  0.0758
22537W        W65475   4.136   4.324  25.644  0.1388  0.0281 -0.0288
22538W        W65476   7.298   4.674  25.785  0.1069  0.0904  0.0723
22539W        W65477   6.730   6.712  22.843 -0.1284  0.0574  0.1131
22540W        W65478   4.353   5.084  25.634 -0.0457 -0.3814  0.0273
22541W        W65479   5.587   4.623  25.446 -0.0994  0.5717 -0.1246
22542W        W65480   2.269   6.293  24.384 -0.4963 -0.1992  0.0311
22543W        W65481   5.996   4.936  26.809 -0.1501 -0.0357  0.0170
22544W        W65482   6.942   3.613  24.450  0.0615  0.3433 -0.0556
22545W        W65483   5.860   7.066  27.152 -0.0682 -0.1843 -0.0080
22546W        W65484   4.600   6.505  27.424  0.1708 -0.0817  0.1574
22547W        W65485   3.952   4.903  22.729 -0.0463  0.1808  0.2083
22548W        W65486   6.829   6.327  27.201 -0.2961  0.0803  0.0891
22549W        W65487   6.052   4.215  24.808  0.2018 -0.1363  0.1355
22550W        W65488   4.741   6.767  25.446 -0.2505 -0.1286  0.2303
22551W        W65489   5.265   7.117  26.831  0.1352  0.0373  0.1735
22552W        W65490   4.280   6.427  22.752 -0.1200 -0.0886  0.0612
22553W        W65491   5.252   6.689  24.098 -0.0760  0.0643  0.0101
22554W        W65492   4.090   3.229  26.547  0.0338  0.2223 -0.0365
22555W        W65493   5.998   5.756  25.978  0.0467 -0.1652  0.0156
22556W        W65494   6.118   4.858  25.663  0.1263  0.2046  0.0827
22557W        W65495   5.425   4.322  24.445  0.2639 -0.1206  0.3231
22558W        W65496   5.294   4.609  26.289  0.1251  0.2142 -0.0765
22559W        W65497   6.269   7.169  25.555  0.1317 -0.0389 -0.0610
22560W        W65498   4.657   4.837  26.300 -0.0417 -0.0294 -0.1242
22561W        W65499   5.114   6.574  25.937 -0.1596 -0.0748 -0.1323
22562W        W65500   6.472   3.785  25.476 -0.1669 -0.2257 -0.1858
22563W        W65501   6.461   6.940  24.406  0.0848 -0.0572  0.1655
22564W        W65502   7.092   5.417  26.952 -0.3060 -0.4711  0.1364
22565W        W65503   4.214   6.452  24.222  0.0338 -0.0943 -0.0041
22566W        W65504   4.734   4.870  25.298  0.0634  0.0290 -0.1174
22567W        W65505   5.448   5.299  24.018  0.0176  0.1444  0.0252
22568W        W65506   6.686   4.159  26.690 -0.2730  0.1946  0.1649
22569W        W65507   4.527   6.149  25.353 -0.1811 -0.2013 -0.3177
22570W        W65508   4.699   5.695  24.422  0.1589  0.0007 -0.2842
22571W        W65509   4.258   5.580  25.941  0.1139 -0.0764 -0.0612
22572W        W65510   6.920   3.853  23.846 -0.2924  0.0588 -0.1262
22573W        W65511   6.796   6.403  23.837  0.1065  0.0259  0.1602
22574W        W65512   6.583   4.599  25.316 -0.1330  0.3631 -0.0987
22575W        W65513   7.538   4.045  27.125 -0.2568  0.1468 -0.2456
22576W        W65514   5.701   5.860  23.939 -0.1148  0.0157 -0.0902
22577W        W65515   5.673   2.794  27.769  0.1319  0.3115  0.2013
22578W        W65516   5.717   4.599  24.678  0.0290 -0.1590 -0.2782
22579W        W65517   7.893   6.504  23.919 -0.3780  0.0042 -0.1035
22580W        W65518   4.032   6.029  26.703 -0.1372  0.2254 -0.3053
22581W        W65519   5.926   6.323  27.813  0.2805 -0.2064  0.1055
22582W        W65520   4.439   4.926  26.769  0.2724 -0.1227  0.0162
22583W        W65521   6.975   4.092  24.686  0.4352  0.0031 -0.2624
22584W        W65522   6.211   3.908  22.653 -0.1108  0.3249 -0.3105
22585W        W65523   5.182   4.923  25.512  0.2702 -0.0936 -0.0139
22586W        W65524   7.048   6.280  25.856 -0.1333 -0.2183 -0.0123
22587W        W65525   5.251   5.714  23.725 -0.0007 -0.0025 -0.0031
22588W        W65526   7.472   4.953  24.633 -0.0570 -0.0790 -0.2856
22589W        W65527   5.013   5.929  25.177 -0.0244 -0.0873  0.1365
22590W        W65528   7.396   4.327  24.874 -0.2361  0.3041  0.1230
22591W        W65529   5.234   4.849  24.003  0.1843  0.0592 -0.1824
22592W        W65530   5.835   6.488  25.326  0.0104 -0.0259  0.0767
22593W        W65531   5.714   5.203  26.501  0.0002 -0.1517  0.1460
22594W        W65532   5.691   6.899  25.620 -0.1457  0.0586  0.3047
22595W        W65533   5.663   4.139  25.540  0.3542  0.0596 -0.1244
22596W        W65534   5.844   3.831  26.135 -0.0171  0.0155  0.0945
22597W        W65535   6.128   2.982  27.322 -0.0653 -0.0458 -0.0814
22598W        W65536   4.943   5.647  26.436 -0.0745 -0.2377  0.3912
22599W        W65537   4.552   3.561  28.175  0.0143  0.1082  0.0922
22600W        W65538   6.617   6.253  25.566  0.2500  0.2014  0.2177
22601W        W65539   8.310   3.848  23.176 -0.1243 -0.0143 -0.1814
22602W        W65540   8.139   5.171  24.440  0.0186  0.1184  0.2023
22603W        W65541   7.717   6.018  24.060 -0.0271  0.1423  0.0125
22604W        W65542   7.235   4.980  24.233  0.0915 -0.1309  0.1980
22605W        W65543   4.571   4.328  24.571 -0.1246 -0.5054 -0.0153
22606W        W65544   7.227   6.176  28.257 -0.1047  0.1409  0.0754
22607W        W65545   5.043   3.465  24.367  0.1243 -0.2677 -0.3084
22608W        W65546   6.951   3.935  27.514  0.3505 -0.1396  0.2527
22609W        W65547   5.532   5.936  22.899 -0.0756 -0.0505 -0.0256
22610W        W65548   6.756   6.134  24.286  0.0279 -0.0617 -0.0059
22611W        W65549   6.540   4.177  23.750  0.4514  0.2314 -0.0152
22612W        W65550   4.228   5.566  24.445  0.0693 -0.5961 -0.2082
22613W        W65551   6.158   7.219  26.374 -0.0349  0.1750  0.0926
22614W        W65552   4.047   3.897  23.834 -0.0109  0.0866 -0.1236
22615W        W65553   4.771   5.605  23.910  0.0855 -0.0921  0.0140
22616W        W65554   5.313   6.081  24.779 -0.2155 -0.0703  0.2822
22617W        W65555   8.386   5.679  26.068 -0.1067  0.0189 -0.1054
22618W        W65556   7.044   2.146  24.443  0.2089  0.0132 -0.1195
22619W        W65557   7.456   5.024  26.803  0.1524 -0.0389  0.0431
22620W        W65558   4.516   5.706  24.962  0.0750 -0.1595 -0.3072
22621W        W65559   5.563   4.280  25.006 -0.1750 -0.4530  0.1597
22622W        W65560   2.439   7.929  24.145  0.1987  0.0232 -0.0018
22623W        W65561   3.633   5.219  26.174 -0.3342 -0.0139  0.1847
22624W        W65562   4.870   7.413  24.120  0.0273  0.1260 -0.3190
22625W        W65563   4.530   3.275  26.786 -0.2372 -0.2567  0.3583
22626W        W65564   6.942   5.885  24.773  0.2005 -0.0390 -0.0390
22627W        W65565   6.242   6.341  25.068  0.1247  0.1333 -0.0805
22628W        W65566   7.127   6.613  27.508 -0.1380 -0.1165 -0.2477
22629W        W65567   6.637   6.657  26.663 -0.0119 -0.3004 -0.2411
22630W        W65568   5.021   4.532  24.733  0.0687  0.1413  0.0424
22631W        W65569   6.348   6.132  26.005 -0.2310 -0.2709 -0.0248
22632W        W65570   7.290   6.369  24.776 -0.0948  0.1791  0.1285
22633W        W65571   5.295   5.313  25.172  0.1325  0.2803 -0.2267
22634W        W65572   3.889   4.858  25.880  0.0592  0.1394  0.0542
22635W        W65573   6.230   5.212  26.454  0.1435 -0.0001  0.0329
22636W        W65574   6.401   5.525  24.329 -0.0552  0.2516  0.0727
22637W        W65575   3.885   5.168  25.278 -0.0450 -0.0201  0.0780
22638W        W65576   5.510   7.141  24.138  0.3080 -0.5827 -0.0809
22639W        W65577   5.980   6.642  26.716  0.0137  0.0687  0.0021
22640W        W65578   5.323   5.376  26.766  0.0694  0.0215  0.2279
22641W        W65579   5.826   6.209  24.876  0.2146 -0.0056  0.4181
22642W        W65580   7.548   7.132  22.217 -0.0282  0.0069 -0.1080
22643W        W65581   6.433   6.809  24.948  0.0282 -0.1016 -0.0677
22644W        W65582   5.690   7.332  25.090  0.1382  0.1695  0.0180
22645W        W65583   5.495   4.864  25.010 -0.0079  0.1367 -0.1115
22646W        W65584   5.861   5.564  25.452 -0.0355  0.0323 -0.0275
22647W        W65585   3.254   7.253  25.016  0.0319  0.1148 -0.0864
22648W        W65586   5.945   6.182  24.263 -0.1675  0.2983  0.1291
22649W        W65587   3.420   6.392  24.573 -0.3208 -0.1827  0.0451
22650W        W65588   5.902   4.845  28.562  0.1066 -0.3460  0.0813
22651W        W65589   6.403   3.083  24.054  0.0304 -0.1973 -0.3805
22652W        W65590   8.241   6.458  24.629  0.0031  0.0205  0.2410
22653W        W65591   7.996   3.422  25.417 -0.3043  0.0086 -0.1111
22654W        W65592   5.442   6.452  28.584  0.2832  0.0897  0.1528
22655W        W65593   5.240   5.731  25.522 -0.1104  0.2138 -0.0941
22656W        W65594   6.089   4.166  23.050  0.1432 -0.0356 -0.1538
22657W        W65595   5.198   5.696  27.710  0.3694  0.1085 -0.0828
22658W        W65596   7.288   2.849  27.578  0.0961  0.2161  0.2264
22659W        W65597   4.939   6.151  25.677 -0.3170 -0.0533 -0.1415
22660W        W65598   6.932   7.075  24.185 -0.0104  0.2690 -0.0941
22661W        W65599   5.197   5.760  24.241 -0.1883  0.0692  0.2128
22662W        W65600   6.615   5.503  24.867 -0.0181  0.3142  0.3405
22663W        W65601   7.034   3.915  27.035  0.2329 -0.0795 -0.3157
22664W        W65602   5.280   6.211  23.802 -0.0850  0.1012 -0.1686
22665W        W65603   6.868   4.210  24.205 -0.3887  0.1909 -0.1255
22666W        W65604   4.680   7.628  25.129  0.1091 -0.0406 -0.1244
22667W        W65605   4.620   6.481  24.485 -0.0424  0.0802  0.0829
22668W        W65606   5.280   5.966  26.686 -0.0880 -0.3882 -0.1663
22669W        W65607   4.729   4.210  23.509  0.2671 -0.1245 -0.3762
22670W        W65608   7.791   4.757  25.649  0.3556 -0.0385 -0.3510
22671W        W65609   5.112   5.135  27.635  0.0407 -0.1243  0.1550
22672W        W65610   8.312   3.503  27.621  0.0258  0.1431  0.0098
22673W        W65611   5.836   5.734  24.560  0.2660 -0.0005 -0.2246
22674W        W65612   7.680   5.197  24.239 -0.1063  0.0787 -0.0771
22675W        W65613   5.552   6.139  26.213  0.3311 -0.0270  0.0917
22676W        W65614   4.787   4.076  26.752 -0.1860 -0.1275 -0.0127
22677W        W65615   5.648   4.738  23.664 -0.1460 -0.0699 -0.1274
22678W        W65616   6.708   6.509  26.155 -0.2551  0.0123  0.0241
22679W        W65617   6.603   3.797  23.408  0.4900  0.0949 -0.0025
22680W        W65618   6.302   6.949  26.906  0.2895 -0.2951 -0.0325
22681W        W65619   5.228   3.623  24.829  0.2199 -0.0384 -0.0534
22682W        W65620   6.805   5.008  23.878 -0.1434 -0.2694 -0.1931
22683W        W65621   5.013   5.581  24.823  0.1119 -0.0767  0.3414
22684W        W65622   5.512   4.917  25.990  0.0394  0.0514 -0.0853
22685W        W65623   7.861   6.123  26.886 -0.1426 -0.2918 -0.0739
22686W        W65624   4.221   4.416  23.667 -0.2896 -0.0381  0.3921
22687W        W65625   7.960   7.355  23.369 -0.3587  0.0977  0.0186
22688W        W65626   7.206   5.605  26.384  0.0635  0.1048  0.0751
22689W        W65627   5.692   6.896  23.166  0.3260 -0.0167 -0.1208
22690W        W65628   7.425   5.857  24.870 -0.2008  0.2918  0.0515
22691W        W65629   6.254   6.841  26.038 -0.0192  0.0629 -0.0104
22692W        W65630   5.062   4.051  24.664  0.1791  0.2965 -0.0008
22693W        W65631   6.650   7.241  26.597  0.3217  0.2040 -0.2069
22694W        W65632   8.078   7.957  26.683  0.0351 -0.0343  0.3868
22695W        W65633   6.129   3.728  24.588 -0.0524  0.2462 -0.1661
22696W        W65634   5.073   4.434  25.277  0.0200  0.2428  0.0284
22697W        W65635   3.694   4.911  24.634 -0.0841 -0.1300 -0.2769
22698W        W65636   6.239   3.994  25.937 -0.0656  0.3252 -0.2796
22699W        W65637   7.966   4.279  26.915 -0.0919 -0.0158  0.0418
22700W        W65638   5.872   6.575  22.416  0.0246 -0.2136 -0.1128
22701W        W65639   7.110   2.870  26.232 -0.0903 -0.0367 -0.3335
22702W        W65640   5.900   6.160  26.572  0.0209 -0.0151 -0.2416
22703W        W65641   4.794   7.248  26.622 -0.2197  0.1277 -0.1496
22704W        W65642   4.247   4.789  24.364  0.3010 -0.0919  0.0047
22705W        W65643   6.100   4.723  28.035 -0.0133  0.3960  0.1732
22706W        W65644   5.958   5.218  25.998  0.1406  0.1119 -0.3016
22707W        W65645   5.134   8.451  24.777 -0.0673 -0.3485  0.0306
22708W        W65646   6.943   6.499  25.232 -0.0584  0.0588 -0.3967
22709W        W65647   7.189   5.524  24.534  0.0116 -0.2220  0.1486
22710W        W65648   7.521   6.756  23.437  0.1448 -0.1337 -0.0062
22711W        W65649   5.233   4.322  26.711 -0.1933  0.2611 -0.0306
22712W        W65650   6.545   4.425  24.662  0.2411 -0.1378 -0.1711
22713W        W65651   7.237   3.450  23.862  0.1899 -0.2483 -0.0043
22714W        W65652   5.325   4.851  26.762  0.1940  0.2874 -0.1891
22715W        W65653   4.453   4.848  22.862 -0.2186  0.2795  0.1773
22716W        W65654   3.836   5.969  24.341  0.4484  0.1328 -0.1281
22717W        W65655   3.901   6.844  26.114 -0.1894  0.1023  0.1755
22718W        W65656   6.149   4.020  26.935 -0.1528 -0.0436  0.1007
22719W        W65657   5.582   5.636  26.424 -0.1041  0.0765 -0.3125
22720W        W65658   4.632   4.569  25.725  0.2288  0.0646  0.0670
22721W        W65659   2.840   3.996  25.047  0.3495  0.2262  0.1840
22722W        W65660   7.680   7.537  23.862  0.2740  0.1202 -0.1261
22723W        W65661   4.713   3.952  24.346  0.0898  0.0811 -0.3375
22724W        W65662   4.303   2.913  24.741  0.0733  0.0579 -0.0660
22725W        W65663   5.887   6.888  24.949  0.0372 -0.0491 -0.0117
22726W        W65664   7.911   4.569  23.629 -0.0879  0.3264 -0.1386
22727W        W65665   6.437   3.657  23.893  0.2511  0.0219 -0.0507
22728W        W65666   7.815   5.686  27.121 -0.0127 -0.0730 -0.1076
22729W        W65667   3.991   5.215  22.382 -0.0918 -0.0469  0.2850
22730W        W65668   5.675   3.417  26.952  0.2284 -0.3590 -0.1546
22731W        W65669   5.256   4.295  27.688 -0.0780 -0.0940 -0.1210
22732W        W65670   2.590   4.238  23.995  0.1260 -0.1212  0.0021
22733W        W65671   6.149   5.823  25.040  0.1167  0.2623  0.1394
22734W        W65672   4.961   7.262  25.400  0.3373 -0.1259  0.0518
22735W        W65673   5.808   7.824  24.954  0.0757  0.0075 -0.0008
22736W        W65674   4.972   6.409  26.859  0.0302  0.2000 -0.1207
22737W        W65675   5.269   7.195  27.311 -0.0150  0.1206  0.0765
22738W        W65676   3.687   2.916  26.663 -0.0319  0.1763 -0.1057
22739W        W65677   6.570   6.015  23.497 -0.1866 -0.0216  0.0009
22740W        W65678   5.593   6.724  27.563  0.0090 -0.1198 -0.0060
22741W        W65679   7.367   6.415  24.054  0.1024  0.0566 -0.1337
22742W        W65680   7.685   5.391  24.808 -0.2818 -0.1064 -0.0610
22743W        W65681   6.927   5.754  22.747  0.2742 -0.0865  0.3405
22744W        W65682   4.892   3.729  27.815 -0.0534  0.0888  0.0196
22745W        W65683   5.252   5.822  28.239  0.2378  0.1032 -0.0793
22746W        W65684   8.872   6.371  24.680  0.0871  0.0284 -0.0089
22747W        W65685   4.900   4.090  25.597  0.3987  0.0075 -0.3342
22748W        W65686   5.971   3.774  25.612  0.1365  0.0559  0.1656
22749W        W65687   6.904   6.297  23.081  0.2008  0.1025  0.0060
22750W        W65688   5.718   5.101  25.533 -0.1632 -0.0971 -0.1576
22751W        W65689   5.387   6.260  25.270  0.0335 -0.1581 -0.0802
22752W        W65690   5.017   4.837  25.962 -0.2836  0.0087 -0.0055
22753W        W65691   5.057   6.962  25.013  0.1448  0.0555 -0.0073
22754W        W65692   6.517   5.547  26.109 -0.0769  0.1209 -0.2041
22755W        W65693   5.648   3.772  23.453  0.0362  0.0928  0.1978
22756W        W65694   7.066   4.263  23.620  0.2963  0.2551  0.2686
22757W        W65695   5.612   6.676  24.477  0.0205  0.0018  0.0831
22758W        W65696   7.571   6.902  27.388 -0.1306 -0.4308 -0.0148
22759W        W65697   5.483   6.654  26.182 -0.1567  0.1412  0.0746
22760W        W65698   7.736   5.746  24.485 -0.2293  0.0100 -0.4132
22761W        W65699   4.475   3.818  26.482  0.0776  0.3871 -0.2897
22762W        W65700   4.517   5.217  24.141  0.1644  0.1194 -0.2035
22763W        W65701   5.746   4.676  24.165  0.3592 -0.1483 -0.0756
22764W        W65702   8.541   5.897  24.490  0.1042  0.0465  0.0501
22765W        W65703   5.016   6.821  27.383 -0.2965 -0.1931 -0.2012
22766W        W65704   7.339   3.265  24.738 -0.1081  0.5096  0.0515
22767W        W65705   5.315   7.199  25.805  0.1429 -0.1486  0.1273
22768W        W65706   5.351   7.099  24.637 -0.2150  0.0051  0.1278
22769W        W65707   5.414   6.224  31.674 -0.4461  0.2351 -0.3099
22770W        W65708   4.065   4.586  27.411 -0.0485 -0.0620  0.0907
22771W        W65709   6.278   3.257  27.711 -0.0872 -0.2642  0.4183
22772W        W65710   7.388   5.115  28.695 -0.1017  0.0176  0.2302
22773W        W65711   4.907   3.931  29.561 -0.0382 -0.0211  0.0593
22774W        W65712   5.137   7.097  28.874 -0.2280 -0.1921 -0.0395
22775W        W65713   5.786   3.593   0.512  0.0451 -0.1095 -0.5806
22776W        W65714   5.192   6.566  28.991 -0.1791 -0.0550  0.0889
22777W        W65715   6.777   7.957  29.518  0.0382 -0.2323  0.1802
22778W        W65716   6.025   4.184  27.436  0.0425  0.2030  0.1617
22779W        W65717   5.813   3.337  29.600 -0.1667 -0.1555  0.0958
22780W        W65718   4.487   6.385  30.826 -0.0185 -0.0373  0.1038
22781W        W65719   5.671   3.989  26.733 -0.2172 -0.0002  0.1202
22782W        W65720   5.461   3.040  28.161 -0.1707  0.0202  0.1469
22783W        W65721   6.900   6.016  30.095 -0.0077  0.0266  0.0813
22784W        W65722   4.236   5.967  29.769  0.0471  0.0714 -0.3453
22785W        W65723   4.163   6.437  29.763 -0.0053 -0.3305  0.1647
22786W        W65724   5.266   4.151  28.183  0.1244 -0.2343  0.2530
22787W        W65725   6.714   6.498  28.342  0.0439 -0.1744  0.0473
22788W        W65726   5.046   4.264  28.636  0.0170  0.1148 -0.1333
22789W        W65727   7.779   3.722  31.893  0.1699 -0.4574 -0.1911
22790W        W65728   5.240   5.972  28.768  0.2770 -0.0328 -0.0237
22791W        W65729   4.832   5.881  27.428 -0.0064 -0.1670  0.0094
22792W        W65730   4.507   5.678  30.100  0.1384 -0.2119  0.2526
22793W        W65731   5.134   4.219  29.129  0.2127 -0.3255  0.2733
22794W        W65732   7.020   6.517  29.851 -0.1250  0.0215  0.1469
22795W        W65733   6.676   4.959  29.375 -0.0892 -0.0720 -0.0786
22796W        W65734   4.881   6.773  28.430  0.0915  0.0309  0.1699
22797W        W65735   4.174   6.771  27.737  0.0688  0.1747 -0.0383
22798W        W65736   7.173   4.315  31.322 -0.1059  0.0016  0.1838
22799W        W65737   4.781   5.231  29.332  0.0852 -0.0428  0.0628
22800W        W65738   3.460   7.960  29.577  0.1108  0.0016 -0.1183
22801W        W65739   4.343   5.129  28.193 -0.0005 -0.0676  0.1098
22802W        W65740   6.715   7.470  28.602 -0.1495  0.1123 -0.1624
22803W        W65741   6.341   7.514  29.376  0.1032 -0.1564 -0.1190
22804W        W65742   3.856   8.104  31.103 -0.0074 -0.0963 -0.3566
22805W        W65743   5.198   6.342  27.398  0.3338  0.0643 -0.1494
22806W        W65744   5.922   6.947  30.599  0.1745  0.2018 -0.0683
22807W        W65745   5.493   6.895  30.891  0.2061 -0.0838  0.0382
22808W        W65746   6.725   4.871  29.858  0.0969 -0.0368 -0.1295
22809W        W65747   4.925   7.323  27.699  0.0950 -0.1951  0.2459
22810W        W65748   5.635   5.249  27.655  0.1272 -0.1728 -0.2150
22811W        W65749   4.751   6.887  29.153 -0.0394 -0.1352  0.1822
22812W        W65750   3.823   4.666   0.108 -0.0792  0.3163 -0.1945
22813W        W65751   3.818   7.486  29.123 -0.1582  0.2072  0.2741
22814W        W65752   6.597   6.029   0.606 -0.0549 -0.2101 -0.2912
22815W        W65753   4.723   5.360  27.412 -0.1650 -0.3444 -0.0331
22816W        W65754   6.530   3.667  26.773 -0.1828 -0.0914  0.1222
22817W        W65755   6.817   5.283  27.859 -0.1630 -0.4560  0.2659
22818W        W65756   6.393   4.726  28.437 -0.1243  0.0424  0.0595
22819W        W65757   6.040   3.660  27.569  0.1353  0.2105 -0.3629
22820W        W65758   4.216   7.079  28.981 -0.2248 -0.2769  0.0872
22821W        W65759   5.042   4.431  29.674 -0.1155 -0.0648  0.1996
22822W        W65760   8.722   6.230  30.978  0.2452  0.0843 -0.1525
22823W        W65761   4.579   4.276  29.357 -0.1727  0.0364  0.0971
22824W        W65762   5.442   4.709  29.901  0.2165 -0.0651 -0.0602
22825W        W65763   4.990   7.148  30.800 -0.0539  0.2181 -0.1796
22826W        W65764   4.629   4.201  30.053 -0.1886  0.3231  0.0181
22827W        W65765   7.923   7.100  26.972 -0.2904 -0.0595 -0.1529
22828W        W65766   7.758   7.359  27.650  0.2546  0.0275  0.1083
22829W        W65767   6.722   6.959  28.704  0.0589 -0.3273 -0.0953
22830W        W65768   5.585   4.200  28.779 -0.4402 -0.0466  0.3360
22831W        W65769   5.061   5.114  28.825  0.1861  0.1351  0.0659
22832W        W65770   3.725   5.107  31.816 -0.0244  0.1150  0.0553
22833W        W65771   6.075   4.200  28.047 -0.0590  0.4372 -0.2051
22834W        W65772   5.656   6.419  30.199  0.0219 -0.3015 -0.1016
22835W        W65773   3.616   7.120  30.147 -0.0188  0.4753  0.0196
22836W        W65774   7.722   6.007  29.580  0.1316  0.2065 -0.0333
22837W        W65775   5.992   7.100  29.335 -0.3746 -0.0211  0.1521
22838W        W65776   7.629   6.880  31.224  0.1576 -0.0732  0.0473
22839W        W65777   6.411   6.367  27.596 -0.2959  0.1852 -0.1148
22840W        W65778   7.011   3.887  28.821  0.1842  0.4032 -0.0791
22841W        W65779   6.265   4.722  29.585  0.1232 -0.0154  0.4068
22842W        W65780   5.167   5.827  25.977 -0.0285  0.0463 -0.4137
22843W        W65781   6.585   5.227  27.390  0.1891 -0.0674 -0.1056
22844W        W65782   5.763   7.427  30.184  0.0887 -0.2560  0.1169
22845W        W65783   7.234   5.149  27.640 -0.3464  0.0885  0.1429
22846W        W65784   4.328   6.782  29.432  0.0466  0.0275 -0.0363
22847W        W65785   4.929   4.728  31.165  0.1226 -0.0453 -0.0789
22848W        W65786   4.889   5.282  31.237 -0.0792 -0.1782  0.3087
22849W        W65787   4.685   7.739  27.573 -0.0334  0.4413  0.1714
22850W        W65788   4.610   6.191  30.076  0.3107  0.2633 -0.2535
22851W        W65789   5.063   4.479  27.173 -0.0367 -0.2238 -0.1196
22852W        W65790   3.069   3.799  31.803  0.0198  0.0935  0.1058
22853W        W65791   6.079   6.514  29.777  0.0632 -0.3832 -0.4031
22854W        W65792   7.483   4.651  27.167  0.2375  0.2795 -0.0984
22855W        W65793   4.993   4.430  30.199 -0.4226  0.0394 -0.1127
22856W        W65794   6.155   4.376  28.644  0.0573  0.3593  0.0674
22857W        W65795   4.503   6.516  28.072 -0.0296  0.0670  0.2088
22858W        W65796   6.663   7.750  29.049  0.0513  0.1674  0.3350
22859W        W65797   8.372   4.766  28.943 -0.0506  0.2592  0.1146
22860W        W65798   6.854   7.172  27.470  0.1009  0.0640 -0.1775
22861W        W65799   5.097   5.109  30.791 -0.0975  0.0618 -0.4128
22862W        W65800   5.978   3.894  29.676  0.0331 -0.0148  0.0510
22863W        W65801   5.145   3.982  30.055 -0.0254  0.0374 -0.2371
22864W        W65802   3.989   4.394  29.041 -0.1695  0.1246  0.2455
22865W        W65803   5.641   5.003  30.712  0.1192  0.0709  0.2017
22866W        W65804   4.391   2.374  26.909  0.1424 -0.2701  0.3430
22867W        W65805   5.703   4.052  30.129 -0.0606 -0.0631 -0.1756
22868W        W65806   5.064   4.593  28.128  0.0887 -0.0208  0.1156
22869W        W65807   3.694   5.331  27.694  0.3029 -0.0059 -0.2891
22870W        W65808   5.349   4.945  31.196 -0.0154  0.0007  0.0235
22871W        W65809   7.162   7.143  28.414  0.2221 -0.0703  0.4140
22872W        W65810   8.185   7.466  29.693 -0.0381  0.0177 -0.0465
22873W        W65811   6.778   6.143  29.550  0.1292  0.1416 -0.1100
22874W        W65812   3.583   4.415  29.917 -0.1547 -0.1988  0.1137
22875W        W65813   3.672   5.930  28.111  0.0251  0.1303 -0.0517
22876W        W65814   4.684   6.797  30.572 -0.2113 -0.2627  0.3422
22877W        W65815   6.773   5.360  28.770  0.0476 -0.0184 -0.2507
22878W        W65816   5.464   3.784  27.858  0.0649 -0.1422 -0.2089
22879W        W65817   7.323   6.880  29.610  0.1409 -0.0712 -0.1103
22880W        W65818   5.935   5.857  27.600  0.3465 -0.3806 -0.2395
22881W        W65819   5.508   5.912  30.291 -0.2666 -0.1520 -0.0121
22882W        W65820   6.750   4.722  31.258 -0.1018  0.0626  0.0513
22883W        W65821   8.160   5.723  29.820 -0.1206  0.1601  0.1055
22884W        W65822   5.832   5.132  28.152 -0.0779 -0.1977 -0.0245
22885W        W65823   3.040   4.482  28.845 -0.0923 -0.1604  0.1141
22886W        W65824   6.197   7.163  28.630  0.0316 -0.0642 -0.0049
22887W        W65825   4.544   7.003  28.081  0.1024  0.0273 -0.0980
22888W        W65826   3.468   5.885  29.176  0.1557 -0.1248  0.1653
22889W        W65827   5.902   6.527  29.211 -0.1806  0.1757 -0.0903
22890W        W65828   7.018   4.494  29.043  0.0879  0.0426 -0.1828
22891W        W65829   3.828   6.653  30.421  0.3721  0.0853  0.0136
22892W        W65830   5.454   5.261  29.943  0.0539  0.1939 -0.1261
22893W        W65831   3.998   5.299  28.568 -0.0370 -0.0174  0.1975
22894W        W65832   4.760   6.031  30.569 -0.3483 -0.0367 -0.0153
22895W        W65833   6.272   3.933  28.423  0.0025 -0.2492 -0.2496
22896W        W65834   5.754   2.703  27.087  0.0349  0.6367 -0.0657
22897W        W65835   6.046   6.043  30.362  0.1179  0.1440 -0.1702
22898W        W65836   7.238   6.174  28.929 -0.3033 -0.0538 -0.0683
22899W        W65837   6.153   5.949  27.006  0.1182  0.1730  0.0996
22900W        W65838   7.356   1.884  28.016 -0.2323 -0.1532 -0.1605
22901W        W65839   3.299   7.259  31.069 -0.1952  0.3108 -0.2829
22902W        W65840   5.748   7.824  28.302 -0.0812  0.2622  0.1207
22903W        W65841   6.430   7.060  29.575 -0.1068  0.1817 -0.1776
22904W        W65842   6.434   5.797  27.417  0.1900 -0.1277 -0.0395
22905W        W65843   7.601   7.411  28.207 -0.3012  0.1006  0.1540
22906W        W65844   4.347   5.481  29.437 -0.3571  0.0694  0.4073
22907W        W65845   5.111   6.633  30.029 -0.1067  0.0432  0.1744
22908W        W65846   5.624   7.354  28.466  0.0915  0.1062 -0.0810
22909W        W65847   4.560   5.163  29.821  0.1132 -0.1009 -0.0303
22910W        W65848   4.423   4.965  27.332 -0.1040 -0.2132  0.0528
22911W        W65849   5.286   3.752  28.790 -0.1938 -0.1271 -0.3624
22912W        W65850   4.135   7.702  26.898 -0.0042 -0.1544  0.2412
22913W        W65851   7.184   4.719  29.542  0.0068 -0.2266  0.3879
22914W        W65852   5.002   4.894  29.847  0.1030  0.0133  0.0802
22915W        W65853   5.920   2.266  30.403 -0.1855 -0.0034  0.0974
22916W        W65854   6.732   5.439  30.685 -0.1841  0.2671  0.0984
22917W        W65855   6.554   4.220  27.263 -0.1115 -0.1176 -0.0078
22918W        W65856   6.667   4.882  28.770 -0.0683 -0.0784 -0.2420
22919W        W65857   6.214   4.983  27.506 -0.1970 -0.1761 -0.2775
22920W        W65858   6.911   3.698  30.290  0.1324 -0.0438  0.1432
22921W        W65859   5.301   4.614  30.742  0.1256  0.3026  0.2393
22922W        W65860   2.236   7.991  29.099 -0.0658 -0.0034 -0.0404
22923W        W65861   5.077   6.146  29.805 -0.0848  0.1277 -0.1024
22924W        W65862   7.185   5.986  29.366  0.0676 -0.0235 -0.1308
22925W        W65863   6.494   4.872   0.429  0.1651  0.0688  0.4699
22926W        W65864   6.778   2.491  28.907  0.0467 -0.0323  0.1189
22927W        W65865   5.325   5.889  27.237 -0.1908 -0.3668  0.0460
22928W        W65866   4.896   5.085  28.146 -0.0340  0.1959  0.1582
22929W        W65867   6.567   3.053  29.038  0.0362  0.4857  0.0954
22930W        W65868   6.362   6.133  28.991 -0.1789  0.1012 -0.0037
22931W        W65869   5.337   7.628  27.549  0.2549 -0.0835  0.3567
22932W        W65870   6.334   5.670  28.953  0.3506 -0.1747 -0.0060
22933W        W65871   5.213   7.756  28.453 -0.1648  0.1367 -0.2765
22934W        W65872   7.560   2.986  30.072  0.2097 -0.0878  0.0794
22935W        W65873   6.286   6.143  29.492 -0.1354 -0.3774  0.1748
22936W        W65874   5.416   4.846  27.887 -0.1070  0.2575 -0.1111
22937W        W65875   4.078   5.112  29.212  0.1462  0.4048 -0.3268
22938W        W65876   6.400   4.006  29.436  0.5785 -0.2633 -0.1147
22939W        W65877   6.851   6.023  28.488 -0.0598 -0.0063  0.1247
22940W        W65878   4.445   3.909  29.702 -0.2856 -0.0797 -0.0492
22941W        W65879   5.518   3.652  29.900  0.0695 -0.1591  0.3820
22942W        W65880   4.549   7.439  30.789  0.0129  0.0482 -0.0393
22943W        W65881   7.268   5.185  30.606 -0.2605  0.0545  0.2167
22944W        W65882   5.368   4.784  27.328  0.0137  0.0857 -0.1146
22945W        W65883   6.388   5.042  30.666  0.1693 -0.1704 -0.0640
22946W        W65884   3.949   4.962  31.208  0.0529 -0.2381 -0.3104
22947W        W65885   4.959   5.638  26.945 -0.4374 -0.1684 -0.1608
22948W        W65886   7.645   3.860  31.160 -0.0548 -0.0971  0.2868
22949W        W65887   4.562   4.700  28.040 -0.3162  0.0156  0.3683
22950W        W65888   4.553   6.483  28.811 -0.1959  0.1012  0.0579
22951W        W65889   6.205   7.741  30.146 -0.0427 -0.3002 -0.0103
22952W        W65890   4.260   4.786  28.566 -0.1408 -0.3154  0.0839
22953W        W65891   4.742   4.712  28.735 -0.0499 -0.2061 -0.0028
22954W        W65892   5.051   5.749  31.535  0.0479  0.2292  0.1273
22955W        W65893   6.146   5.351  31.553  0.0993  0.0191 -0.1070
22956W        W65894   6.717   3.980  29.940  0.1970  0.3080  0.0841
22957W        W65895   4.499   4.271  28.877  0.0869 -0.0694 -0.3576
22958W        W65896   5.835   4.565  28.954 -0.0866  0.0069 -0.3310
22959W        W65897   6.219   5.482  29.393  0.1845  0.1161  0.3277
22960W        W65898   4.921   4.496  31.754 -0.1233  0.2785 -0.0906
22961W        W65899   5.924   5.987  29.814  0.3381  0.0342  0.0287
22962W        W65900   6.995   3.387  27.604  0.4032 -0.1428  0.0441
22963W        W65901   7.068   7.340  29.000  0.2164 -0.0068 -0.0788
22964W        W65902   6.044   4.673  30.660  0.2596 -0.0124  0.3591
22965W        W65903   5.496   6.100  27.740  0.0436  0.0593 -0.2874
22966W        W65904   3.444   6.635  30.064  0.0144 -0.0265  0.0705
22967W        W65905   5.892   5.462  28.986 -0.2254  0.2624 -0.0784
22968W        W65906   6.051   3.087  29.973  0.2759  0.1010  0.2185
22969W        W65907   5.471   5.440  30.485 -0.2983 -0.2863 -0.0524
22970W        W65908   4.901   5.613  28.983 -0.1060 -0.1154 -0.1100
22971W        W65909   3.531   6.492  28.992  0.1026  0.1019  0.5271
22972W        W65910   7.043   2.373  27.312  0.0227  0.0802 -0.4166
22973W        W65911   6.932   4.254  27.893  0.0310  0.3524 -0.3379
22974W        W65912   5.893   4.394  29.530 -0.4905  0.2842 -0.1469
22975W        W65913   8.547   4.017  31.109 -0.1153  0.2772 -0.2636
22976W        W65914   6.189   5.449  27.846 -0.3199 -0.2613 -0.0591
22977W        W65915   6.401   4.754  30.233 -0.1608 -0.0534 -0.0679
22978W        W65916   4.614   4.756  30.149  0.1889 -0.1278 -0.0175
22979W        W65917   5.692   6.118  28.257  0.0932  0.3551  0.2184
22980W        W65918   5.254   4.991  30.292 -0.0072 -0.1977 -0.3058
22981W        W65919   5.312   5.848  30.739 -0.0551 -0.2586 -0.2229
22982W        W65920   4.095   6.680  30.835  0.0315 -0.2101 -0.2117
22983W        W65921   6.619   4.148  28.714  0.0771  0.1264  0.0831
22984W        W65922   4.787   4.220  27.900 -0.2523  0.1006  0.1728
22985W        W65923   5.697   5.425  29.510 -0.2325  0.0103 -0.1974
22986W        W65924   7.432   5.946  30.785 -0.1000 -0.0704  0.0205
22987W        W65925   4.914   6.594  27.805  0.0367  0.0597 -0.0650
22988W        W65926   6.734   3.694  28.465 -0.2041  0.0561 -0.0244
22989W        W65927   4.878   7.009  30.122  0.0116 -0.2874  0.0123
22990W        W65928   6.292   4.505  29.125 -0.2183 -0.2096  0.2803
22991W        W65929   4.405   5.753  29.019 -0.0422  0.0135 -0.2093
22992W        W65930   5.905   6.264  28.769  0.0436 -0.0085 -0.0697
22993W        W65931   5.444   3.692  30.389 -0.0304 -0.0071 -0.0990
22994W        W65932   4.476   6.243  29.368 -0.0396 -0.4210 -0.0044
22995W        W65933   6.306   3.182  29.480  0.0417 -0.1409  0.0368
22996W        W65934   5.938   4.642  29.977  0.1664  0.0819  0.0238
22997W        W65935   7.042   3.469  31.608  0.1751  0.1716 -0.0507
22998W        W65936   4.263   5.719  31.859  0.1483  0.2216 -0.0695
22999W        W65937   3.432   4.644  31.778 -0.3253  0.2799  0.1466
23000W        W65938   6.964   8.820  29.943 -0.1742  0.0856  0.0164
23001W        W65939   8.124   5.064  27.909 -0.0993  0.1195  0.4055
23002W        W65940   7.787   3.436  30.103 -0.0818  0.2284  0.2003
23003W        W65941   8.676   5.847  26.476  0.2302 -0.0794 -0.0549
23004W        W65942   6.426   4.433  27.736  0.2790  0.0057 -0.1003
23005W        W65943   4.989   3.316  28.264  0.0918  0.0777 -0.1559
23006W        W65944   5.811   5.582  30.085 -0.0718  0.1589  0.0681
23007W        W65945   5.705   4.435  27.759  0.1771 -0.1669  0.1616
23008W        W65946   7.335   5.110  31.407 -0.0885  0.0981  0.1475
23009W        W65947   5.318   7.345  26.311 -0.1534 -0.2036 -0.0408
23010W        W65948   6.424   6.772  29.053 -0.0357  0.0301  0.0192
23011W        W65949   5.644   4.482  28.378  0.1488  0.1797 -0.1858
23012W        W65950   4.084   5.164  29.699 -0.0061 -0.0102  0.1264
23013W        W65951   5.343   6.574  31.218  0.2253  0.1046 -0.2195
23014W        W65952   6.140   5.263  28.527 -0.4188 -0.2078 -0.1566
23015W        W65953   6.777   5.861  27.003  0.2825  0.4202  0.1215
23016W        W65954   6.570   7.252  29.013  0.3504  0.2189  0.0642
23017W        W65955   5.840   5.646  30.758  0.3913 -0.1108 -0.1753
23018W        W65956   5.918   3.528  28.034  0.4598 -0.1354 -0.0283
23019W        W65957   6.808   4.862  30.441 -0.0593 -0.1239  0.0713
23020W        W65958   4.927   6.081  27.949 -0.0207  0.1216  0.1015
23021W        W65959   5.710   3.053  28.616 -0.0488 -0.2797 -0.3199
23022W        W65960   4.511   7.342  30.185 -0.1082  0.1212  0.5858
23023W        W65961   2.954   6.596  30.369  0.0120 -0.0211 -0.2105
23024W        W65962   4.828   7.396  29.205 -0.2894  0.3227 -0.0602
23025W        W65963   5.974   3.216  30.528  0.3060 -0.0102  0.1580
23026W        W65964   6.731   4.210  30.372  0.0907  0.1082  0.5053
23027W        W65965   5.442   4.524  29.378  0.0087 -0.1876  0.1756
23028W        W65966   7.443   4.247  30.353  0.3210 -0.2486  0.1539
23029W        W65967   5.797   5.101  30.257  0.0939 -0.3317 -0.1049
23030W        W65968   5.815   5.995  29.301  0.1995 -0.0534 -0.1329
23031W        W65969   6.524   7.981  31.106 -0.0659 -0.1408 -0.0205
23032W        W65970   7.652   5.974  27.991 -0.0808 -0.0862  0.1546
23033W        W65971   5.105   6.861  29.581 -0.1073  0.2253  0.1333
23034W        W65972   4.398   4.706  31.072  0.0917  0.1425 -0.0777
23035W        W65973   4.583   4.987  31.602 -0.2686  0.2069 -0.1579
23036W        W65974   6.674   5.652  29.522 -0.2309  0.3299  0.0967
23037W        W65975   5.365   5.283  28.086 -0.0027 -0.1428 -0.0723
23038W        W65976   6.074   5.648  26.436 -0.2133  0.0962  0.0793
23039W        W65977   2.981   8.112  30.825  0.0146 -0.2150 -0.1003
23040W        W65978   3.853   6.224  30.672 -0.0366 -0.2672  0.0371
23041W        W65979   3.360   8.399  28.819  0.1066 -0.0814 -0.1108
23042W        W65980   7.122   6.525  27.965 -0.1707 -0.3965 -0.3151
23043W        W65981   6.313   6.182  28.482  0.3135 -0.0208 -0.0833
23044W        W65982   5.171   8.151  29.400 -0.0687 -0.1282  0.2041
23045W        W65983   5.044   2.909  26.898  0.4141  0.1049 -0.1168
23046W        W65984   4.630   7.124  28.670  0.0951 -0.2772 -0.2484
23047W        W65985   3.228   6.748  27.760  0.1290  0.0985  0.3335
23048W        W65986   6.750   7.056  26.161  0.1031 -0.0122  0.0293
23049W        W65987   3.378   7.537  29.276  0.1393  0.3555  0.0464
23050W        W65988   6.958   7.790  31.189 -0.1631  0.2786  0.0923
23051W        W65989   6.331   2.144  26.559 -0.1189  0.0808 -0.0440
23052W        W65990   6.288   6.640  28.629  0.1511  0.1086 -0.1993
23053W        W65991   8.289   4.674  28.370  0.1965 -0.0859 -0.0817
23054W        W65992   5.324   5.983  29.317  0.1548  0.1728 -0.0497
23055W        W65993   5.731   3.961  29.233 -0.0928 -0.0501  0.1894
23056W        W65994   4.652   5.885  28.559 -0.0545 -0.4441 -0.0671
23057W        W65995   5.513   5.384  31.026  0.0418  0.1883 -0.1051
23058W        W65996   8.426   4.715  31.703 -0.3906 -0.0741 -0.0692
23059W        W65997   2.758   8.006  30.291 -0.0411 -0.1677  0.0009
23060W        W65998   6.940   7.117  27.999 -0.4111  0.1093 -0.0422
23061W        W65999   4.117   4.465  27.876 -0.2115  0.0936 -0.1037
23062W        W66000   5.389   4.949  28.480 -0.0191  0.1987 -0.0230
23063W        W66001   7.057   4.389  29.967  0.0545  0.0047  0.4966
23064W        W66002   5.698   7.046  26.643 -0.0403 -0.1420  0.0540
23065W        W66003   7.329   5.629  29.691  0.2593  0.0851  0.0338
23066W        W66004   5.692   7.229  27.628 -0.1583 -0.1283  0.0886
23067W        W66005   6.193   5.006  29.038  0.1124 -0.1971 -0.0330
23068W        W66006   6.520   6.916  30.573 -0.4083  0.1889  0.1351
23069W        W66007   5.754   3.940  28.332 -0.1106  0.0075  0.1735
23070W        W66008   7.748   4.652  29.989  0.2631 -0.5853  0.1174
23071W        W66009   5.942   3.588  30.102  0.2530 -0.2506 -0.3665
23072W        W66010   7.136   4.314  31.865 -0.2711 -0.1863  0.0920
23073W        W66011   4.232   3.925  29.219 -0.2287 -0.1275 -0.0204
23074W        W66012   8.356   5.622  27.316  0.0254 -0.2147 -0.2625
23075W        W66013   5.462   5.758  29.778  0.0513  0.1085  0.1735
23076W        W66014   4.951   6.212  31.340  0.1048  0.2235 -0.4520
23077W        W66015   5.855   6.563  28.304 -0.1751 -0.0219  0.1229
23078W        W66016   5.372   5.529  29.095  0.1395 -0.1529  0.1919
23079W        W66017   7.113   4.346  27.279  0.0040  0.2525  0.0305
23080W        W66018   6.246   7.361  30.508  0.0396 -0.0522  0.2916
23081W        W66019   4.438   4.324  28.346 -0.1911 -0.1972 -0.0666
23082W        W66020   7.140   5.645  28.747  0.1631 -0.2074 -0.2448
23083W        W66021   4.887   4.735  29.237 -0.1889  0.2247 -0.0432
23084W        W66022   5.443   4.096  29.644  0.0531 -0.4199  0.0206
23085W        W66023   8.033   6.941  31.596  0.4039 -0.0778  0.1580
23086W        W66024   4.300   3.850  28.647 -0.2393 -0.1051  0.1214
23087W        W66025   7.208   6.608  28.530  0.0757 -0.0169 -0.1106
23088W        W66026   5.650   4.973  29.062 -0.0378  0.1590 -0.3560
23089W        W66027   4.994   6.296  28.415 -0.0709 -0.2178  0.0401
23090W        W66028   7.208   6.128  27.628 -0.0682  0.0725 -0.2479
23091W        W66029   5.731   8.189  29.363  0.3555 -0.3381  0.0974
23092W        W66030   4.771   5.206  30.321  0.1422 -0.3031  0.0211
23093W        W66031   6.661   7.356  30.910  0.0985 -0.0930  0.1751
23094W        W66032   7.545   5.272  29.996 -0.2826 -0.2540  0.1767
23095W        W66033   6.145   3.463  28.594  0.1033  0.2992 -0.1337
23096W        W66034   4.926   4.003  27.418 -0.4170 -0.0647 -0.0403
23097W        W66035   3.771   6.966  28.618 -0.2219  0.2788  0.0535
23098W        W66036   6.524   5.236  30.158 -0.0095 -0.0214  0.0165
23099W        W66037   5.767   4.948  29.599  0.0776  0.1608  0.0756
23100W        W66038   5.048   6.768  26.517  0.0578  0.1231  0.0881
23101W        W66039   7.146   4.715  30.778  0.0189  0.0615 -0.0205
23102W        W66040   6.626   7.666  29.887  0.2982 -0.0904 -0.3028
23103W        W66041   4.392   7.047  31.003 -0.2071 -0.0545 -0.0569
23104W        W66042   4.451   5.402  27.005 -0.0970 -0.1463  0.1327
23105W        W66043   5.418   6.900  30.307 -0.4053  0.1195  0.0011
23106W        W66044   4.216   6.059  28.670  0.0642 -0.1203  0.2121
23107W        W66045   6.600   7.522  28.076  0.0615  0.3671  0.0489
23108W        W66046   5.774   7.553  29.373 -0.0369  0.0749  0.1664
23109W        W66047   6.498   5.198  28.172  0.1870  0.0262 -0.4837
23110W        W66048   6.445   6.182  30.017 -0.0343  0.0059 -0.0559
23111W        W66049   6.421   3.571  29.772 -0.2580 -0.3352  0.2684
23112W        W66050   8.471   4.374  29.206 -0.1724  0.1191  0.1524
23113W        W66051   7.444   4.284  29.258 -0.0088 -0.0992  0.0761
23114W        W66052   5.094   6.269  30.322 -0.1162  0.3267 -0.0405
23115W        W66053   5.022   5.491  28.467  0.0625  0.0557 -0.0599
23116W        W66054   3.980   4.724  26.405 -0.0100  0.0685  0.2018
23117W        W66055   4.491   5.375  28.621 -0.0236 -0.1332 -0.1499
23118W        W66056   6.386   2.368  30.761  0.1023 -0.1592  0.2377
23119W        W66057   5.579   4.607  30.352  0.0758 -0.1885 -0.0402
23120W        W66058   3.889   6.205  30.129  0.2472  0.0637  0.1990
23121W        W66059   3.353   3.694  28.207 -0.0101  0.1842 -0.0783
23122W        W66060   7.068   6.468  29.312  0.1036 -0.1325 -0.0714
23123W        W66061   4.023   4.675  30.074  0.1881 -0.1890  0.0152
23124W        W66062   5.021   2.844  27.434  0.2591  0.1193  0.2176
23125W        W66063   6.055   7.658  28.887  0.0793  0.2498 -0.0740
23126W        W66064   6.555   6.566  29.507  0.0719  0.0109 -0.2365
23127W        W66065   5.331   4.628  28.880  0.2854  0.1509 -0.2852
23128W        W66066   6.995   6.582  30.833  0.1826 -0.0110 -0.0278
23129W        W66067   3.975   5.160  27.154 -0.0243  0.1692  0.0179
23130W        W66068   6.557   4.581  30.786  0.0163  0.0354 -0.2709
23131W        W66069   5.128   3.358  30.098 -0.1615  0.1053  0.1347
23132W        W66070   3.873   3.331  25.901  0.1537 -0.0751 -0.1232
23133W        W66071   6.413   3.328  30.837 -0.1612 -0.0474  0.1523
23134W        W66072   5.256   7.613  28.995  0.2607 -0.2629  0.1380
23135W        W66073   6.463   7.015  28.248 -0.2331  0.1508  0.0308
23136W        W66074   4.017   7.289  29.903 -0.1598 -0.3306  0.0142
23137W        W66075   6.055   6.965  30.073 -0.0146 -0.3116 -0.0856
23138W        W66076   4.986   3.342  29.025  0.1984 -0.0796 -0.1259
23139W        W66077   7.318   4.863  28.071 -0.1658  0.1361  0.0059
23140W        W66078   5.150   7.485  30.057  0.0392  0.0707  0.1776
23141W        W66079   7.436   7.555  28.623 -0.0920  0.0307  0.0567
23142W        W66080   8.410   5.851  28.969  0.0128 -0.0311  0.0105
23143W        W66081   6.814   4.748  28.130  0.1470 -0.0388 -0.0935
23144W        W66082   4.403   5.258  31.187 -0.2456 -0.2923 -0.1241
23145W        W66083   4.605   5.709  31.074 -0.1607  0.1413  0.4763
23146W        W66084   7.944   7.362  30.696 -0.0177  0.2306  0.0794
23147W        W66085   3.494   4.382  28.828 -0.2369  0.2684 -0.2023
23148W        W66086   6.187   4.013  28.970 -0.0203  0.1283 -0.1392
23149W        W66087   6.956   5.540  27.438  0.2460 -0.0494 -0.0384
23150W        W66088   4.279   5.172  30.199 -0.1385  0.0185 -0.1619
23151W        W66089   6.471   3.925  27.835 -0.0025  0.0118  0.0460
23152W        W66090   5.309   5.025  29.496 -0.0160 -0.2556  0.1553
23153W        W66091   6.698   6.006  27.834 -0.1572 -0.0376  0.2157
23154W        W66092   6.731   6.960  31.139  0.2475 -0.0089  0.1465
23155W        W66093   5.768   3.657  28.787 -0.4157  0.0610  0.2081
23156W        W66094   6.392   5.675  28.359 -0.1646 -0.3298 -0.1812
23157W        W66095   6.847   7.291  30.352 -0.0908 -0.1338  0.1163
23158W        W66096   7.208   7.040  30.960 -0.1756 -0.1489  0.0775
23159W        W66097   5.841   7.362  30.880 -0.4263 -0.1475 -0.0455
23160W        W66098   7.378   6.167  29.897  0.3453  0.1982  0.2941
23161W        W66099   4.805   2.924  28.795  0.1922  0.2777 -0.0471
23162W        W66100   5.704   5.645  28.050  0.0990 -0.0660 -0.2489
23163W        W66101   6.308   6.528  28.080  0.1054 -0.0871 -0.1229
23164W        W66102   7.473   4.322  30.917  0.1366 -0.2493 -0.0662
23165W        W66103   4.408   4.729  29.098  0.1392 -0.0385 -0.1653
23166W        W66104   7.244   2.835  28.082  0.1118 -0.0984  0.1147
23167W        W66105   4.384   6.543  30.327  0.1326 -0.1321 -0.0185
23168W        W66106   4.849   6.095  29.050 -0.3145 -0.2159 -0.3211
23169W        W66107   6.266   6.213  31.321  0.2825  0.0333 -0.0614
23170W        W66108   6.418   5.264  31.159 -0.2041  0.2001  0.1509
23171W        W66109   3.432   4.522  31.222 -0.0291 -0.2182  0.1240
23172W        W66110   4.179   5.733   0.407 -0.0453 -0.0025 -0.1513
23173W        W66111   4.429   6.145   0.297 -0.0162  0.2678  0.1300
23174W        W66112   3.696   7.658  30.858  0.0853  0.0090 -0.0833
23175W        W66113   6.931   4.590   0.240 -0.1737  0.0418  0.0019
23176W        W66114   6.143   4.290  30.327 -0.1555 -0.3163  0.0155
23177W        W66115   7.209   5.348   1.340 -0.0154 -0.1913  0.3018
23178W        W66116   5.905   6.613  30.972 -0.0615  0.0527 -0.0297
23179W        W66117   5.973   6.087  30.892 -0.0873 -0.0367 -0.0378
23180W        W66118   5.144   3.724  30.821 -0.0126 -0.0015  0.1600
23181W        W66119   8.105   7.848  30.499  0.0458  0.1829 -0.0624
23182W        W66120   5.810   4.865  31.546  0.2012 -0.1443 -0.2851
23183W        W66121   5.933   5.580   0.145 -0.4077  0.0370  0.0491
23184W        W66122   2.556   7.532  30.427  0.0363 -0.0136 -0.2772
23185W        W66123   4.715   4.782  30.641 -0.0080  0.0553  0.1865
23186W        W66124   6.625   6.319  30.497  0.1421 -0.1453 -0.2094
23187W        W66125   2.857   3.808   0.763  0.0155  0.1335  0.1113
23188W        W66126   2.205   4.504  31.417  0.0351  0.0913 -0.2471
23189W        W66127   4.393   4.876   1.006 -0.2756 -0.0271  0.0509
23190W        W66128   3.877   6.295  31.292 -0.0059 -0.0816  0.0354
23191W        W66129   6.079   5.603   0.890 -0.2246 -0.3210 -0.0811
23192W        W66130   5.713   4.590  31.050 -0.1738 -0.3158 -0.0581
23193W        W66131   6.961   4.249  30.816 -0.0180 -0.5035 -0.0300
23194W        W66132   6.738   4.570   0.720 -0.0907  0.2641 -0.5066
23195W        W66133   6.128   3.576  31.218  0.1493 -0.2142  0.0011
23196W        W66134   2.958   7.616  30.794  0.1317  0.3838 -0.1329
23197W        W66135   5.018   5.796  30.171 -0.1612 -0.1190 -0.2639
23198W        W66136   5.147   6.624  30.644 -0.1546  0.1052  0.4365
23199W        W66137   4.149   5.298  31.575  0.1139 -0.1775  0.0656
23200W        W66138   4.420   4.466  31.580  0.2568 -0.1756  0.1480
23201W        W66139   6.100   5.987   0.414  0.2209 -0.0971 -0.3822
23202W        W66140   6.146   4.172   0.974 -0.0890 -0.3733  0.0431
23203W        W66141   3.415   5.062   1.264  0.3151 -0.0639  0.1018
23204W        W66142   5.436   6.691   0.723  0.1112 -0.0227 -0.0606
23205W        W66143   4.743   7.339  31.273 -0.0131 -0.0801  0.1226
23206W        W66144   5.751   7.941  31.699 -0.1116 -0.2408 -0.1471
23207W        W66145   6.644   5.125  31.560  0.5317  0.1101 -0.0647
23208W        W66146   4.938   6.130  31.865  0.1451 -0.1262  0.1205
23209W        W66147   7.398   3.801   0.649  0.3297  0.1471 -0.2435
23210W        W66148   6.207   5.459  30.507  0.0902 -0.4365  0.0363
23211W        W66149   5.700   3.157  31.453  0.0179 -0.0310  0.0733
23212W        W66150   5.509   6.322  30.833  0.0884  0.1029 -0.0638
23213W        W66151   3.892   5.353  30.859 -0.0744  0.0568 -0.0002
23214W        W66152   4.974   6.404  29.383 -0.2162  0.1774 -0.2647
23215W        W66153   6.815   2.911  30.872  0.1256  0.4467  0.2158
23216W        W66154   5.888   6.231   0.018  0.0544 -0.4572 -0.2798
23217W        W66155   7.959   6.347   0.658 -0.0014 -0.1180 -0.0932
23218W        W66156   1.991   7.400  30.509  0.0673  0.0005 -0.1449
23219W        W66157   7.636   8.216  31.785  0.1354 -0.0586 -0.0177
23220W        W66158   6.986   4.794  31.736  0.1351  0.3050 -0.0583
23221W        W66159   5.486   4.440  31.600 -0.1528  0.2342 -0.1573
23222W        W66160   4.287   5.061  30.737 -0.1631  0.2093 -0.1489
23223W        W66161   6.082   4.334  31.385  0.5928 -0.0890  0.1621
23224W        W66162   5.952   5.139  31.093  0.2502 -0.0655 -0.5670
23225W        W66163   6.908   5.942  30.692 -0.0658  0.0642 -0.1521
23226W        W66164   4.583   6.678   1.170 -0.0400 -0.0453  0.0043
23227W        W66165   6.225   7.046  30.994  0.1068 -0.0413 -0.1990
23228W        W66166   4.191   5.951  30.895  0.3696  0.0703 -0.0020
23229W        W66167   5.144   5.421  31.891 -0.0917 -0.1816 -0.0242
23230W        W66168   3.594   5.608  31.807  0.3228  0.2785  0.1372
23231W        W66169   5.121   5.023   0.190  0.1841  0.0664 -0.2066
23232W        W66170   3.847   5.755  30.453  0.0051  0.1671 -0.1119
23233W        W66171   6.335   5.648  29.991  0.3028 -0.3426 -0.0770
23234W        W66172   6.863   6.093  31.608 -0.0414  0.3638 -0.2891
23235W        W66173   6.500   5.710  31.445  0.0344 -0.1678  0.2417
23236W        W66174   4.268   9.670  19.125  0.3479  0.1217  0.1387
23237W        W66175   3.109   9.832  17.243  0.3388  0.1009  0.3270
23238W        W66176   6.174   8.062  16.599  0.5282 -0.0401  0.3520
23239W        W66177   6.121   8.579  16.700  0.2184  0.0730  0.3490
23240W        W66178   4.042   8.150  16.857 -0.0504  0.1863  0.1417
23241W        W66179   4.266   9.527  16.769 -0.1655 -0.6214 -0.0191
23242W        W66180   4.803   5.952  20.020 -0.0452  0.2053 -0.1706
23243W        W66181   6.797   9.526  18.242  0.0934  0.1266 -0.0401
23244W        W66182   6.505  10.388  19.744 -0.0650 -0.1823  0.0571
23245W        W66183   5.659   9.432  16.386  0.2393  0.0301  0.3247
23246W        W66184   4.584   7.432  20.565 -0.0766 -0.0830  0.0042
23247W        W66185   4.490  10.122  19.061  0.1029 -0.4002  0.3215
23248W        W66186   5.019   8.082  17.522  0.1100  0.1061  0.2098
23249W        W66187   4.763   6.132  17.861  0.1783  0.0647 -0.0180
23250W        W66188   7.463   9.327  18.594 -0.1671  0.0733 -0.2248
23251W        W66189   3.325  11.321  17.505 -0.2154 -0.1409  0.1210
23252W        W66190   3.613   9.835  17.350  0.0464 -0.1587  0.0933
23253W        W66191   3.344   9.205  18.081  0.0406  0.0615  0.0961
23254W        W66192   5.169  10.951  18.059  0.1564  0.1709 -0.0609
23255W        W66193   4.982   7.182  19.880 -0.0334 -0.0363 -0.5235
23256W        W66194   6.924   7.840  20.904 -0.1262 -0.1365 -0.0560
23257W        W66195   4.308  10.630  16.493 -0.4439 -0.1914  0.2001
23258W        W66196   3.961   9.024  16.750 -0.0982  0.3866 -0.0402
23259W        W66197   2.782   9.493  18.014 -0.2529 -0.2390  0.0713
23260W        W66198   5.050   9.147  18.796  0.1124  0.0033  0.2308
23261W        W66199   5.959   9.010  19.019 -0.0237  0.0865  0.1499
23262W        W66200   5.835   9.575  18.632 -0.0902  0.1875 -0.1898
23263W        W66201   4.463   9.742  18.163 -0.2073  0.1492  0.0066
23264W        W66202   6.096  10.109  17.459  0.1805  0.2176 -0.0577
23265W        W66203   7.572   8.249  19.480  0.4033  0.0209 -0.1622
23266W        W66204   1.639   9.018  18.175 -0.0378 -0.1353  0.1494
23267W        W66205   3.453  11.401  18.537 -0.0505 -0.1593  0.2858
23268W        W66206   3.521   9.288  15.942  0.0521  0.0665  0.1252
23269W        W66207   6.885   9.875  19.016 -0.2486  0.1088 -0.2861
23270W        W66208   6.300  10.694  20.233 -0.0263 -0.0732 -0.1268
23271W        W66209   4.518  10.819  20.416  0.0075  0.2619  0.1174
23272W        W66210   3.327   9.411  16.418  0.0089 -0.1079 -0.0584
23273W        W66211   5.921   9.641  20.408 -0.2646  0.0604  0.1199
23274W        W66212   4.707  11.074  19.198  0.0682  0.1365 -0.0131
23275W        W66213   3.907   9.447  18.866 -0.1069  0.2282  0.1011
23276W        W66214   5.523   8.646  18.948  0.0726 -0.0627  0.1262
23277W        W66215   4.746   9.594  16.948  0.1625 -0.3386  0.1076
23278W        W66216   5.923  10.397  18.039  0.3236 -0.0422 -0.0699
23279W        W66217   4.750   8.896  19.697 -0.2920 -0.0034  0.2467
23280W        W66218   3.648  10.280  18.794  0.1865 -0.1308  0.2397
23281W        W66219   8.307   6.899  19.034 -0.1035 -0.0309  0.1991
23282W        W66220   3.683  10.170  16.231  0.0259  0.2381 -0.0827
23283W        W66221   5.884   8.746  15.933  0.0173 -0.1436  0.3402
23284W        W66222   6.254   7.540  16.692 -0.2554 -0.1918  0.0874
23285W        W66223   6.032   8.728  17.296  0.5754  0.1164  0.1037
23286W        W66224   7.272   7.542  17.818  0.0859 -0.1213 -0.2012
23287W        W66225   2.964  10.146  17.670 -0.0512 -0.1220 -0.2554
23288W        W66226   4.853   7.695  17.850  0.1686  0.1446  0.1501
23289W        W66227   5.129   9.100  20.697 -0.2026 -0.0758 -0.0105
23290W        W66228   4.726   8.852  17.031 -0.3289  0.1254  0.4275
23291W        W66229   6.193   8.182  19.393 -0.1312 -0.1764 -0.1410
23292W        W66230   4.437   9.231  18.813  0.2124 -0.1321  0.2782
23293W        W66231   2.617   9.443  17.437 -0.0986 -0.1896 -0.1909
23294W        W66232   4.933  10.310  16.818 -0.0110 -0.0070 -0.3271
23295W        W66233   5.712  11.868  18.050 -0.0800  0.0104 -0.3897
23296W        W66234   5.663  11.939  16.088  0.0425 -0.1092 -0.1112
23297W        W66235   3.415   8.798  17.816 -0.1313  0.2189  0.1921
23298W        W66236   4.634   7.599  19.102  0.1599 -0.0273 -0.0029
23299W        W66237   4.459   8.627  18.883 -0.4028 -0.0987 -0.0998
23300W        W66238   3.836   8.781  17.469  0.0465  0.0371  0.0731
23301W        W66239   7.113  10.731  19.205 -0.4372 -0.0146  0.0383
23302W        W66240   2.858  10.125  19.398  0.1257  0.1834  0.0409
23303W        W66241   8.287   7.762  17.473 -0.1475  0.0964  0.1285
23304W        W66242   4.479   9.722  18.666  0.0534 -0.3824 -0.0396
23305W        W66243   7.103   9.086  19.620  0.1906 -0.1282 -0.1016
23306W        W66244   6.331   9.438  15.658 -0.1658  0.2108 -0.0487
23307W        W66245   6.289   7.054  18.401 -0.0377 -0.0998  0.0242
23308W        W66246   5.327   7.030  19.275 -0.1869  0.1233  0.0325
23309W        W66247   4.959   9.001  16.022  0.2105 -0.1028  0.0170
23310W        W66248   4.462  10.004  16.747  0.1718 -0.1060  0.0402
23311W        W66249   7.635   8.830  18.903 -0.1950 -0.3305 -0.1160
23312W        W66250   6.335   8.576  15.809 -0.0871 -0.1419  0.0587
23313W        W66251   2.744  10.399  18.303 -0.0147 -0.2128  0.2355
23314W        W66252   3.848   6.951  18.788  0.0172  0.2996 -0.4155
23315W        W66253   5.498   9.446  19.554  0.1384 -0.0809  0.0742
23316W        W66254   4.850  10.770  16.440  0.2719 -0.0996  0.2790
23317W        W66255   1.781   9.436  19.021 -0.3387  0.0926  0.0779
23318W        W66256   2.081   9.496  16.441  0.1022  0.1940 -0.1472
23319W        W66257   4.453   7.365  18.170  0.1838 -0.1092  0.0290
23320W        W66258   4.964   9.660  17.943  0.0631  0.2234 -0.0769
23321W        W66259   6.662   8.683  17.373 -0.0700  0.2069  0.2315
23322W        W66260   5.046   6.928  18.493 -0.0535  0.2119 -0.0107
23323W        W66261   7.162   7.080  17.791 -0.2007 -0.1117  0.2581
23324W        W66262   2.895   9.137  17.136 -0.0522  0.1312  0.0130
23325W        W66263   5.768  10.444  16.944 -0.1177  0.1758 -0.0747
23326W        W66264   6.529   8.825  16.870  0.0466  0.1148  0.3268
23327W        W66265   6.742  11.215  17.499  0.0359  0.1162 -0.2184
23328W        W66266   2.932   8.193  19.034 -0.1171 -0.1589 -0.3108
23329W        W66267   3.180   7.325  18.936  0.1841 -0.0297  0.0472
23330W        W66268   5.939   7.436  20.886  0.0251  0.0015  0.2578
23331W        W66269   2.758   6.856  18.290  0.4704  0.0924 -0.2600
23332W        W66270   6.307   9.275  20.479 -0.2413 -0.1258  0.1687
23333W        W66271   4.640   8.216  16.104 -0.0561  0.0981  0.2032
23334W        W66272   5.867   8.762  18.419  0.0242  0.1600  0.2359
23335W        W66273   4.144   8.320  17.452  0.3219  0.2593 -0.3164
23336W        W66274   2.446   9.490  15.882  0.0237  0.1496  0.1410
23337W        W66275   7.879   7.394  18.444  0.2667  0.0171 -0.3079
23338W        W66276   6.316  11.002  17.355  0.3361 -0.1153  0.1629
23339W        W66277   6.993  10.657  19.707 -0.1352  0.0203  0.1132
23340W        W66278   6.094  10.905  18.039 -0.1250  0.0844  0.3796
23341W        W66279   4.002   8.401  18.836  0.1000  0.2242 -0.0662
23342W        W66280   4.544   8.176  17.201 -0.3501 -0.4354  0.0338
23343W        W66281   2.804  11.655  19.323 -0.0318  0.0762  0.0820
23344W        W66282   3.635  10.290  17.054  0.3674 -0.0407 -0.0872
23345W        W66283   4.508   8.338  16.734  0.2018  0.0502 -0.1719
23346W        W66284   6.629  11.673  17.678 -0.2838 -0.3505  0.2445
23347W        W66285   4.038  10.185  17.459 -0.1817  0.1654 -0.0172
23348W        W66286   2.665   9.134  18.840  0.0447  0.1579 -0.0495
23349W        W66287   6.034   7.034  18.891  0.1511 -0.1175  0.2252
23350W        W66288   6.508   7.744  18.523  0.2933 -0.0411  0.0419
23351W        W66289   6.696  10.113  18.651  0.0637 -0.1985  0.2742
23352W        W66290   3.025   9.212  17.640 -0.2268  0.0751  0.2362
23353W        W66291   6.751  10.416  16.823 -0.0485 -0.0712 -0.1821
23354W        W66292   3.008  11.524  16.432 -0.1276 -0.0165 -0.0680
23355W        W66293   2.544  10.359  17.853  0.2558  0.0253 -0.2881
23356W        W66294   3.710  10.420  18.296 -0.2079 -0.0459  0.1044
23357W        W66295   6.754   8.397  16.565 -0.0901  0.3889 -0.0394
23358W        W66296   2.813   7.938  19.893 -0.3054  0.0644  0.3018
23359W        W66297   5.125   8.081  19.588  0.2923  0.1169 -0.0890
23360W        W66298   5.132   8.588  16.453  0.0533  0.0857  0.2596
23361W        W66299   3.093  10.509  19.747 -0.2188 -0.0424 -0.1061
23362W        W66300   5.674   8.318  18.218  0.3287  0.2235  0.0730
23363W        W66301   6.352   9.194  16.631  0.3539 -0.0432 -0.0508
23364W        W66302   6.157   9.585  19.511  0.0057  0.2565 -0.1721
23365W        W66303   5.871   9.872  16.318  0.0465  0.0985 -0.0611
23366W        W66304   4.860   9.113  17.424 -0.0504  0.0422  0.2822
23367W        W66305   5.299   8.118  16.260  0.2574 -0.1338 -0.0120
23368W        W66306   3.421   9.544  19.430  0.1766  0.1756 -0.3816
23369W        W66307   4.733  10.790  16.989 -0.0564  0.0107  0.3328
23370W        W66308   4.743  10.139  18.169  0.0828  0.1678  0.1496
23371W        W66309   5.298   9.047  16.878  0.1109  0.0778  0.0629
23372W        W66310   6.841  10.013  18.180 -0.0912  0.0836  0.0990
23373W        W66311   2.286  10.600  18.767 -0.1231 -0.1936  0.1296
23374W        W66312   5.163   9.816  19.609  0.0206 -0.2989  0.0601
23375W        W66313   5.498   9.956  18.661 -0.0120 -0.4976  0.3089
23376W        W66314   3.499   9.105  18.567 -0.2452  0.1666  0.1355
23377W        W66315   5.082   7.369  16.160  0.0425  0.1297  0.1816
23378W        W66316   6.276   7.504  18.157  0.0086  0.2153 -0.1765
23379W        W66317   3.908  11.727  17.278 -0.0766  0.1873 -0.0006
23380W        W66318   7.154   8.303  18.451  0.0113 -0.0588  0.0583
23381W        W66319   4.782   7.377  18.551 -0.3908 -0.0370 -0.1050
23382W        W66320   5.156   6.686  20.565  0.3140 -0.1698  0.1348
23383W        W66321   6.146   8.687  19.417  0.3935 -0.0111  0.0219
23384W        W66322   5.192   9.223  17.765  0.1337 -0.2886 -0.3455
23385W        W66323   5.472   7.796  18.619 -0.1496 -0.0355 -0.1002
23386W        W66324   3.685   8.517  16.929  0.2972 -0.2117  0.2576
23387W        W66325   5.733   6.607  20.613  0.2228 -0.3436  0.1631
23388W        W66326   3.534   8.674  19.012 -0.0957 -0.0831 -0.1781
23389W        W66327   3.246  10.547  19.021  0.1887  0.1580 -0.1415
23390W        W66328   5.957  10.476  20.556  0.3712  0.1764 -0.0114
23391W        W66329   5.881   9.487  19.115 -0.3006  0.1505  0.0094
23392W        W66330   5.634   7.988  19.705  0.0390  0.0005 -0.0030
23393W        W66331   4.986   8.097  16.635 -0.0221  0.0891  0.2960
23394W        W66332   4.191  10.470  18.028  0.0331  0.0194 -0.1527
23395W        W66333   4.365   9.256  17.172  0.1584 -0.3171 -0.0837
23396W        W66334   5.695   7.432  18.989 -0.1225 -0.3497 -0.0653
23397W        W66335   6.527  11.728  20.523  0.2790  0.0255 -0.0151
23398W        W66336   4.539  11.229  16.818 -0.2292  0.0908  0.1085
23399W        W66337   6.368   9.102  19.404 -0.0577 -0.1642 -0.0394
23400W        W66338   3.058   9.527  16.825  0.2291 -0.3290  0.0361
23401W        W66339   6.949   7.568  18.787 -0.2166  0.1610  0.0858
23402W        W66340   3.810  11.157  17.209 -0.2474  0.1273 -0.0303
23403W        W66341   3.093   8.673  18.148 -0.0068 -0.1921 -0.0193
23404W        W66342   3.197   9.722  17.754  0.1855 -0.1030  0.0461
23405W        W66343   5.366   7.975  17.851  0.1583  0.0447  0.0338
23406W        W66344   6.245   9.676  17.100 -0.3381 -0.0572 -0.0120
23407W        W66345   4.852   8.089  19.175 -0.0871  0.2616 -0.2835
23408W        W66346   4.961   8.330  18.142  0.2303 -0.0970  0.0091
23409W        W66347   1.799  10.307  18.632  0.0587  0.0109  0.0284
23410W        W66348   6.447  10.191  19.095 -0.1447 -0.0913  0.1656
23411W        W66349   5.650   9.077  18.070 -0.1894 -0.1378 -0.1001
23412W        W66350   4.404  11.072  18.660 -0.1072  0.0399 -0.2007
23413W        W66351   3.866   7.823  19.672  0.0298  0.2701  0.0861
23414W        W66352   3.694   8.901  15.695  0.2183 -0.1561 -0.0488
23415W        W66353   6.959   8.197  17.121  0.5034  0.0733  0.5977
23416W        W66354   3.608   7.250  18.108 -0.1466  0.0537 -0.1600
23417W        W66355   4.100   9.654  17.210 -0.1612 -0.0333 -0.3884
23418W        W66356   5.324  10.930  18.552  0.1816  0.2175 -0.0979
23419W        W66357   3.826   9.208  17.199 -0.1845  0.1408 -0.1042
23420W        W66358   3.722   9.505  16.802  0.1082  0.1749  0.1083
23421W        W66359   5.018   6.728  19.646 -0.1917 -0.2679 -0.1133
23422W        W66360   6.710   9.357  19.762 -0.1529  0.1508 -0.0366
23423W        W66361   4.718   9.228  18.426  0.0750 -0.1842 -0.0347
23424W        W66362   4.251   9.715  17.687  0.2313  0.1598 -0.2514
23425W        W66363   6.121   8.118  18.336 -0.0369  0.1288  0.1661
23426W        W66364   6.520   8.790  18.812  0.1910  0.2848  0.0053
23427W        W66365   5.388   8.021  19.118 -0.0337 -0.4070  0.1512
23428W        W66366   4.678  11.525  19.943  0.3342  0.3092  0.0657
23429W        W66367   5.847   7.876  19.191  0.1950  0.0732  0.2762
23430W        W66368   5.916  11.247  17.185 -0.0408 -0.0699  0.0418
23431W        W66369   6.551   7.923  19.758 -0.0330 -0.0534  0.0857
23432W        W66370   2.322   9.973  16.148  0.2533  0.0853 -0.0684
23433W        W66371   2.617   8.689  18.485 -0.0065 -0.1936 -0.1684
23434W        W66372   3.603   9.188  17.651 -0.1199  0.0871 -0.1309
23435W        W66373   4.430   8.923  18.117 -0.0807 -0.3893  0.1209
23436W        W66374   4.807   9.545  18.939 -0.1922  0.0025  0.2699
23437W        W66375   3.341   9.107  16.868  0.0277 -0.2885  0.1585
23438W        W66376   2.250   9.202  19.222 -0.0085 -0.0290 -0.1867
23439W        W66377   6.205   7.857  16.159  0.1660  0.2871  0.1424
23440W        W66378   3.410  11.166  16.217  0.4215 -0.1328 -0.1216
23441W        W66379   5.446   9.753  17.742  0.1634 -0.1641  0.0730
23442W        W66380   6.840   6.782  17.967  0.1188  0.1185 -0.0463
23443W        W66381   5.234   9.422  17.276  0.1295  0.3636  0.2983
23444W        W66382   6.378   6.920  19.780  0.3348  0.0362 -0.3144
23445W        W66383   4.548   7.220  19.477 -0.2581 -0.1872 -0.1620
23446W        W66384   5.886   9.915  16.818  0.1349  0.0154 -0.1591
23447W        W66385   3.041   8.528  19.402 -0.0425 -0.2520  0.2376
23448W        W66386   5.052  10.540  20.463  0.1181 -0.0774 -0.1720
23449W        W66387   3.977  10.429  19.737  0.1694  0.0371  0.0069
23450W        W66388   4.410   8.016  18.913  0.0977 -0.3544 -0.1258
23451W        W66389   5.681   7.248  17.504 -0.1842 -0.1086 -0.0141
23452W        W66390   4.984   9.725  18.495  0.0910  0.0726 -0.0762
23453W        W66391   6.071   8.506  17.976 -0.3722  0.1020 -0.1361
23454W        W66392   3.369   9.400  17.247  0.1177 -0.0771  0.0862
23455W        W66393   6.106   9.359  18.162  0.0275  0.1872  0.0324
23456W        W66394   2.992   9.091  18.412  0.2587  0.0404  0.1197
23457W        W66395   7.162  11.377  18.788 -0.0770 -0.1365 -0.1864
23458W        W66396   5.330   9.534  16.777 -0.4680 -0.0939 -0.3114
23459W        W66397   4.815  10.370  17.326  0.2029 -0.0714 -0.0354
23460W        W66398   3.643   6.241  18.694  0.3374  0.1823 -0.4595
23461W        W66399   5.284  10.477  17.209 -0.0542 -0.0245 -0.0455
23462W        W66400   6.027   7.637  18.601  0.0412  0.3019  0.2361
23463W        W66401   5.440   6.924  19.856 -0.2033  0.1094  0.1555
23464W        W66402   7.407   8.694  19.776  0.0472 -0.1853  0.2943
23465W        W66403   3.340   7.732  21.006 -0.1029 -0.0357 -0.0020
23466W        W66404   3.109   7.104  19.547 -0.0331 -0.1277  0.1937
23467W        W66405   5.840  11.000  18.519 -0.1124  0.1431  0.1012
23468W        W66406   7.614   8.705  16.821  0.0859 -0.1591  0.1223
23469W        W66407   8.924   7.499  17.968  0.0027 -0.0071 -0.1704
23470W        W66408   6.733   9.331  16.974 -0.2641  0.1801  0.0140
23471W        W66409   4.246   8.749  17.122  0.1466 -0.2111  0.0171
23472W        W66410   3.853   8.036  19.190  0.1661 -0.0781 -0.0945
23473W        W66411   7.392   8.831  21.387  0.0567  0.1183  0.2039
23474W        W66412   6.361   7.855  17.265 -0.1082 -0.2069  0.2310
23475W        W66413   7.050   7.281  20.127 -0.4403 -0.2938  0.1331
23476W        W66414   4.251  10.418  16.978 -0.2560  0.1935  0.1969
23477W        W66415   4.291  11.100  17.238 -0.1986  0.1809  0.0955
23478W        W66416   5.206   8.230  18.566  0.0155  0.0965  0.1801
23479W        W66417   2.384   6.573  18.060 -0.1484 -0.0673  0.0734
23480W        W66418   5.337   9.661  20.060  0.1668  0.0549  0.2147
23481W        W66419   4.167   8.632  16.517 -0.1435  0.0956  0.1054
23482W        W66420   4.153   9.136  16.284 -0.0952  0.1112 -0.0883
23483W        W66421   6.063  11.254  17.697 -0.1364 -0.2088  0.0924
23484W        W66422   8.430   8.984  19.381 -0.0161  0.2318  0.3013
23485W        W66423   5.329   8.579  17.910  0.1963 -0.0274 -0.1173
23486W        W66424   7.145   8.468  20.341  0.0622  0.1442 -0.3561
23487W        W66425   3.082  10.376  17.176 -0.1351 -0.0682  0.2655
23488W        W66426   7.461   6.622  17.132 -0.0417 -0.0860  0.2935
23489W        W66427   3.450  10.199  19.410  0.0339 -0.3366 -0.2513
23490W        W66428   2.950   9.300  19.991  0.2356 -0.0183  0.2416
23491W        W66429   3.663  10.764  17.757 -0.0446 -0.1944 -0.1778
23492W        W66430   4.921   7.614  20.117 -0.2966 -0.1215  0.0343
23493W        W66431   6.466   8.401  18.501  0.0280 -0.0262  0.0098
23494W        W66432   3.933   8.554  18.019 -0.1109 -0.1448 -0.3701
23495W        W66433   7.339   8.865  18.490  0.1194  0.0272 -0.0516
23496W        W66434   5.858   9.114  19.511 -0.0315  0.0890 -0.2969
23497W        W66435   5.893   9.762  17.986 -0.0973 -0.1521 -0.2139
23498W        W66436   6.034  11.679  20.639 -0.1215 -0.1876 -0.0135
23499W        W66437   5.953  10.030  18.441  0.1095 -0.0821 -0.0848
23500W        W66438   2.119  10.210  17.615 -0.1921  0.0505 -0.1682
23501W        W66439   4.332   7.300  18.841 -0.0564 -0.1415 -0.3752
23502W        W66440   5.785   9.891  19.799  0.1503  0.0522 -0.1546
23503W        W66441   5.394  10.124  16.918  0.0488  0.1039  0.0767
23504W        W66442   4.918   7.828  18.737  0.3845  0.1427  0.4420
23505W        W66443   4.521  10.164  17.748  0.1319  0.0668 -0.0088
23506W        W66444   3.964   9.296  20.011 -0.0723 -0.0392  0.1209
23507W        W66445   1.045   9.161  18.230 -0.0342  0.3477  0.0981
23508W        W66446   4.087  11.476  16.886 -0.1476 -0.0570 -0.3139
23509W        W66447   4.632   9.522  16.463 -0.0272 -0.0701 -0.0827
23510W        W66448   4.962   9.922  16.525 -0.1151 -0.2413 -0.2779
23511W        W66449   5.461  11.361  18.756  0.0197 -0.0791 -0.1600
23512W        W66450   4.835   8.548  17.478  0.1128 -0.0515 -0.0059
23513W        W66451   4.213  10.936  17.746 -0.0054 -0.0489  0.2646
23514W        W66452   2.765   9.704  18.772 -0.2081 -0.1425 -0.4004
23515W        W66453   5.714  11.250  16.741  0.1841 -0.5527  0.2238
23516W        W66454   4.439  10.565  17.511  0.0881  0.2049 -0.0634
23517W        W66455   7.334  10.395  19.556 -0.0160 -0.1003 -0.1205
23518W        W66456   5.385   8.260  17.224 -0.0120  0.1594 -0.3478
23519W        W66457   7.137   9.014  18.942 -0.0082  0.1783 -0.1873
23520W        W66458   7.295   9.265  16.334  0.0255 -0.0096 -0.0855
23521W        W66459   6.149  10.396  21.084  0.1286  0.1142 -0.0092
23522W        W66460   4.987   6.582  18.864  0.1740 -0.3150  0.1938
23523W        W66461   5.813   6.811  16.185  0.0857  0.0975 -0.2981
23524W        W66462   4.026   8.989  19.610  0.0696  0.0901  0.1918
23525W        W66463   8.260   6.400  18.237  0.1308  0.0348 -0.1921
23526W        W66464   5.065  10.129  17.751  0.1066 -0.1146 -0.2913
23527W        W66465   6.100   9.506  17.589  0.0129  0.0324  0.2381
23528W        W66466   4.083   7.873  17.312 -0.1090 -0.0061 -0.1906
23529W        W66467   4.964   8.578  18.894 -0.0856  0.0537  0.0309
23530W        W66468   8.208   6.387  18.887  0.1158  0.0603 -0.1066
23531W        W66469   4.878   8.877  17.930  0.1319  0.0568  0.1628
23532W        W66470   5.447   7.338  20.387 -0.2004 -0.0886  0.1628
23533W        W66471   5.310  10.550  17.750 -0.1220  0.3208 -0.1004
23534W        W66472   3.777   9.881  19.232 -0.1000 -0.1256  0.0362
23535W        W66473   4.753  10.644  17.900  0.1720 -0.3316 -0.1167
23536W        W66474   2.876   8.925  16.587 -0.1788  0.2319  0.2695
23537W        W66475   7.080   9.098  17.339  0.0654 -0.2130  0.3169
23538W        W66476   4.157   7.524  19.340 -0.1993  0.0272  0.1871
23539W        W66477   6.004   5.597  19.180 -0.3071 -0.1755  0.1727
23540W        W66478   3.491  10.336  17.530 -0.0724 -0.3483 -0.3461
23541W        W66479   4.950   8.435  17.045 -0.0097  0.1918  0.0325
23542W        W66480   4.853   8.964  19.174  0.2648 -0.1457  0.0001
23543W        W66481   3.543  10.065  18.036  0.1543 -0.0011  0.1045
23544W        W66482   4.402   8.825  17.562  0.0931  0.0796  0.0645
23545W        W66483   6.053  10.644  19.329  0.0662 -0.0157 -0.2299
23546W        W66484   5.846   9.407  16.932  0.2274 -0.1990  0.3063
23547W        W66485   5.485  11.387  19.886 -0.1991  0.2794  0.0320
23548W        W66486   3.296   7.836  18.125  0.0716 -0.2055  0.4637
23549W        W66487   2.860   8.134  17.343  0.1852  0.2198  0.0078
23550W        W66488   5.145   9.142  18.260  0.2960 -0.4365  0.2120
23551W        W66489   5.602   9.894  19.193 -0.0435  0.0178  0.3197
23552W        W66490   6.373  10.218  20.192 -0.2069  0.0254  0.1281
23553W        W66491   3.252   7.408  17.787  0.1101 -0.0344 -0.0116
23554W        W66492   7.050  10.055  16.582 -0.1302 -0.0616  0.1087
23555W        W66493   8.398   7.086  19.699  0.3332  0.1364 -0.3382
23556W        W66494   4.349  11.741  16.016 -0.4259 -0.0520  0.1875
23557W        W66495   6.429   9.671  17.947 -0.1128  0.1643  0.5141
23558W        W66496   6.517  10.668  18.132 -0.0144  0.1705  0.3181
23559W        W66497   3.420   7.254  20.013  0.2867  0.4339 -0.0943
23560W        W66498   6.300  11.220  19.346 -0.2658 -0.4817 -0.2993
23561W        W66499   7.069   9.616  19.549 -0.0482  0.0367  0.0340
23562W        W66500   4.669   8.272  18.580  0.0620  0.1082 -0.0516
23563W        W66501   4.595   9.270  17.814 -0.0963  0.2413  0.2514
23564W        W66502   3.827  10.535  16.610 -0.0320  0.2386  0.1213
23565W        W66503   5.728   8.180  18.790 -0.0604 -0.1439 -0.1758
23566W        W66504   6.618   7.621  19.341 -0.2695 -0.3114 -0.0424
23567W        W66505   6.898  11.597  16.594 -0.0705 -0.2075  0.1271
23568W        W66506   7.126   5.764  19.762  0.0453 -0.0129  0.6026
23569W        W66507   4.279   9.682  19.823  0.1849 -0.0679  0.1408
23570W        W66508   5.809   8.881  21.856 -0.2881  0.0079 -0.0363
23571W        W66509   2.891   9.408  16.194 -0.0324 -0.0714  0.3184
23572W        W66510   6.252   7.589  19.049  0.0033 -0.2218  0.0167
23573W        W66511   4.679  10.321  16.363 -0.0404 -0.0414 -0.1641
23574W        W66512   4.567  10.675  18.321  0.0729  0.0797 -0.0828
23575W        W66513   7.030  10.464  18.371  0.3068 -0.0262 -0.0890
23576W        W66514   4.706   9.640  17.501 -0.0820  0.0264 -0.0993
23577W        W66515   6.100  10.590  18.530 -0.0143 -0.0929 -0.0632
23578W        W66516   5.507   6.966  18.156  0.0573 -0.0498 -0.2451
23579W        W66517   6.196   7.919  17.858 -0.1919 -0.3736  0.1294
23580W        W66518   5.582   7.847  16.996 -0.0560  0.3330 -0.1475
23581W        W66519   4.247   9.323  18.379 -0.2043  0.0107  0.1419
23582W        W66520   3.644   9.032  16.341  0.0685  0.0501 -0.0656
23583W        W66521   3.972   9.944  15.910 -0.1185  0.0783  0.2642
23584W        W66522   4.035   9.930  18.074 -0.2737 -0.1263 -0.0631
23585W        W66523   5.410   9.060  19.215  0.0565 -0.0589  0.1208
23586W        W66524   4.217   7.984  20.034 -0.0789 -0.2187 -0.1515
23587W        W66525   3.746   9.616  17.803 -0.1875  0.1596  0.2257
23588W        W66526   4.127   9.221  17.663  0.2524 -0.0229  0.2174
23589W        W66527   5.659   8.734  17.560 -0.2720  0.1656 -0.2289
23590W        W66528   5.014   6.646  18.044 -0.2439  0.2540 -0.0398
23591W        W66529   4.532   7.911  18.204 -0.2137 -0.0687 -0.0110
23592W        W66530   5.022   9.962  17.157  0.0462 -0.0041 -0.2031
23593W        W66531   6.229   9.289  18.643  0.0470  0.2298 -0.1634
23594W        W66532   4.882   7.224  16.638 -0.2838 -0.0159  0.0061
23595W        W66533   7.905  10.659  18.768 -0.1428  0.0554 -0.1475
23596W        W66534   2.292   8.918  16.957  0.2022  0.0094  0.1374
23597W        W66535   5.421   8.750  20.367 -0.3414  0.0578  0.2190
23598W        W66536   7.279   7.328  19.343  0.1854 -0.0618  0.0567
23599W        W66537   3.159   7.499  16.357 -0.0825  0.1239 -0.1887
23600W        W66538   5.468   7.037  18.716 -0.2338  0.1371 -0.1551
23601W        W66539   4.507  10.021  17.244 -0.0239  0.0717 -0.2295
23602W        W66540   6.006  10.878  16.860 -0.0345  0.0968  0.0281
23603W        W66541   4.970  10.035  19.162 -0.0917  0.1397  0.2653
23604W        W66542   5.700  10.326  19.495  0.2367 -0.1868 -0.1378
23605W        W66543   2.691   7.307  19.139  0.2833 -0.3525  0.0482
23606W        W66544   6.423   9.674  16.400  0.0549  0.0520 -0.0161
23607W        W66545   5.589   9.139  18.625  0.0458 -0.1524  0.1429
23608W        W66546   6.636   9.905  16.887 -0.2126  0.0416  0.1783
23609W        W66547   8.222   6.871  18.155  0.1702 -0.1062 -0.3655
23610W        W66548   5.602   8.680  16.995 -0.1261  0.0009 -0.0049
23611W        W66549   3.421   8.175  19.402 -0.2854  0.0226 -0.1820
23612W        W66550   4.991   9.360  19.494 -0.1791  0.1478 -0.3089
23613W        W66551   6.789   8.733  18.363 -0.3736 -0.0112  0.2915
23614W        W66552   4.874   7.644  16.915  0.0448  0.0455  0.0731
23615W        W66553   6.436   7.330  17.103 -0.3060 -0.2926 -0.0953
23616W        W66554   5.700   9.757  17.307 -0.0369  0.1228 -0.2138
23617W        W66555   4.791   8.757  18.453 -0.2146  0.1210  0.0627
23618W        W66556   4.529   8.937  15.899 -0.1191 -0.2035 -0.1366
23619W        W66557   6.824   8.803  19.272 -0.2663 -0.0069  0.2157
23620W        W66558   6.375   9.541  19.066  0.0600 -0.0604  0.1103
23621W        W66559   5.853   8.819  20.948 -0.0380  0.2672 -0.1043
23622W        W66560   4.645   8.658  16.345 -0.2462 -0.0657 -0.2954
23623W        W66561   6.199   9.956  15.953 -0.0260 -0.2869 -0.0431
23624W        W66562   5.120  11.605  19.074  0.0951 -0.0416  0.2140
23625W        W66563   4.599  10.311  20.435 -0.3802 -0.3380 -0.2877
23626W        W66564   4.071  10.369  19.154 -0.2592 -0.0123  0.0672
23627W        W66565   6.090   8.532  18.827 -0.1575  0.0810  0.6293
23628W        W66566   3.223   7.051  18.498 -0.1377  0.0418 -0.1096
23629W        W66567   3.456   8.564  16.471  0.3669  0.0168 -0.0464
23630W        W66568   6.084   8.931  17.734  0.0926  0.0631  0.0690
23631W        W66569   6.238   7.244  19.447 -0.2368  0.0211 -0.1613
23632W        W66570   3.019   6.471  18.604 -0.0415  0.1343  0.3119
23633W        W66571   6.663   8.243  16.110  0.1153 -0.1977  0.1665
23634W        W66572   4.017  10.912  19.606 -0.0076  0.1256 -0.0110
23635W        W66573   5.289   7.380  18.444 -0.0554  0.0244  0.2116
23636W        W66574   5.288   9.512  23.704 -0.0890 -0.1081 -0.0337
23637W        W66575   3.652   7.741  20.613 -0.0835 -0.0051 -0.2246
23638W        W66576   7.225   6.832  19.364  0.0602 -0.1351  0.1027
23639W        W66577   6.082   8.332  20.433 -0.1799 -0.2734 -0.1306
23640W        W66578   2.929   6.862  18.891  0.0420  0.0921 -0.0348
23641W        W66579   5.407  10.245  19.949  0.5139 -0.1496  0.2102
23642W        W66580   3.537   5.987  23.104 -0.3491 -0.1302 -0.1301
23643W        W66581   6.840   9.626  20.911  0.2969 -0.0029  0.0007
23644W        W66582   7.138  11.636  20.535  0.2175 -0.1266 -0.3385
23645W        W66583   5.706   9.248  19.964  0.4252  0.1478  0.0564
23646W        W66584   5.588   8.807  22.766  0.0132 -0.1367  0.3150
23647W        W66585   4.535  11.338  22.177 -0.1057  0.1069  0.1635
23648W        W66586   5.612   6.435  19.915 -0.1029  0.4162  0.1077
23649W        W66587   5.395   6.631  21.021  0.2893  0.2253  0.2312
23650W        W66588   6.672   9.037  23.628  0.1766 -0.0440  0.0345
23651W        W66589   3.734   9.140  21.096  0.0074  0.2318 -0.0960
23652W        W66590   4.042   7.496  23.612 -0.2088 -0.2767 -0.1372
23653W        W66591   2.734   8.788  20.952  0.2024  0.1512 -0.0952
23654W        W66592   4.773  10.240  21.895  0.2890 -0.0912  0.1523
23655W        W66593   4.191   9.273  21.625  0.1395 -0.1183  0.0912
23656W        W66594   5.917   9.291  22.849 -0.0511 -0.1259  0.4833
23657W        W66595   5.886   9.926  22.186 -0.1476  0.1456 -0.1462
23658W        W66596   4.756   8.391  19.577  0.1019 -0.1463 -0.2198
23659W        W66597   3.432   8.139  21.270 -0.0473  0.1383 -0.2032
23660W        W66598   3.853  10.376  22.422 -0.0322 -0.1772 -0.0965
23661W        W66599   7.695   6.924  21.617  0.1838 -0.0840  0.1528
23662W        W66600   6.264   8.483  22.081  0.1088  0.1925 -0.1944
23663W        W66601   4.253   9.995  20.719 -0.0216 -0.1199  0.2373
23664W        W66602   5.620  10.319  21.801 -0.0550 -0.0700 -0.0369
23665W        W66603   5.850   8.120  23.896  0.0870 -0.4129 -0.1059
23666W        W66604   4.257  10.072  22.216  0.1380 -0.1456  0.0229
23667W        W66605   3.655  10.861  20.626 -0.2108  0.2457 -0.2112
23668W        W66606   4.987   7.881  21.036 -0.0602  0.1365  0.4012
23669W        W66607   5.674   8.342  20.713 -0.2158 -0.0767 -0.0229
23670W        W66608   6.902  11.315  22.813  0.0756  0.0980 -0.1287
23671W        W66609   3.951  11.724  22.632  0.1052 -0.0259  0.1333
23672W        W66610   5.757  10.114  20.238 -0.1039  0.0067 -0.2039
23673W        W66611   5.111   9.910  21.840  0.0303  0.0692  0.1131
23674W        W66612   3.490  10.262  23.805 -0.0465  0.4114  0.0203
23675W        W66613   4.124   8.258  20.881 -0.3522  0.1633  0.1605
23676W        W66614   6.744   8.962  21.372  0.2301 -0.0355  0.0448
23677W        W66615   3.155   9.023  19.011 -0.0448  0.2579  0.2331
23678W        W66616   4.776   8.100  20.011  0.1891  0.0389  0.1926
23679W        W66617   5.008   9.174  23.365  0.1573  0.1280  0.0380
23680W        W66618   3.417  10.484  22.654 -0.0931 -0.0442  0.0240
23681W        W66619   6.921   7.712  24.444  0.2872  0.1528  0.0540
23682W        W66620   3.549   9.548  20.102 -0.2449 -0.1895 -0.1578
23683W        W66621   5.849   7.804  20.183 -0.1664  0.0927  0.0562
23684W        W66622   6.080   7.765  19.612  0.0299  0.2604  0.0243
23685W        W66623   7.305   7.807  19.052  0.1244 -0.1543 -0.0390
23686W        W66624   4.463   7.369  22.702  0.1406 -0.2304  0.1070
23687W        W66625   5.528  11.671  21.541 -0.3796 -0.1124  0.0246
23688W        W66626   4.516   9.116  23.003  0.0732  0.1071 -0.1124
23689W        W66627   7.848  10.577  23.883  0.1328  0.3993 -0.0431
23690W        W66628   6.311   8.199  20.981 -0.0616  0.1721 -0.2751
23691W        W66629   6.702   7.074  22.282  0.2198  0.0918  0.0447
23692W        W66630   3.831  10.961  22.440  0.0537 -0.0070 -0.0265
23693W        W66631   3.821   8.748  20.705 -0.1802  0.0422 -0.0269
23694W        W66632   5.942  12.224  19.728  0.0222  0.0155  0.1256
23695W        W66633   7.763   9.530  20.627  0.0196 -0.2378 -0.0452
23696W        W66634   5.518  10.708  20.406 -0.2422  0.1788  0.2113
23697W        W66635   2.002   7.171  19.687 -0.0937 -0.1375  0.1834
23698W        W66636   3.833   9.123  24.627 -0.1068 -0.0536  0.0503
23699W        W66637   5.357   9.589  23.211  0.1497 -0.0526 -0.3334
23700W        W66638   4.542   6.930  19.890  0.2752 -0.0642  0.2504
23701W        W66639   7.533   9.162  23.363  0.0698  0.1079  0.3213
23702W        W66640   3.409   9.000  22.084 -0.2978 -0.1542 -0.1450
23703W        W66641   7.913   8.386  22.366  0.0194 -0.0147 -0.1101
23704W        W66642   3.922   8.482  19.318  0.1905  0.1404  0.0418
23705W        W66643   7.469  10.556  23.384 -0.1148 -0.0451  0.1897
23706W        W66644   5.981   7.826  21.323  0.2321 -0.0076 -0.0166
23707W        W66645   7.949   7.456  20.322 -0.2668  0.0676 -0.4908
23708W        W66646   6.636   5.767  21.259  0.0578 -0.1643 -0.3724
23709W        W66647   4.391   8.651  19.382  0.0097 -0.1725  0.0744
23710W        W66648   6.013   7.886  20.663  0.1394  0.0618  0.2334
23711W        W66649   7.657   9.945  22.200 -0.1157  0.0189 -0.0647
23712W        W66650   6.947   8.194  19.270 -0.1689 -0.2390  0.1569
23713W        W66651   3.267   9.681  21.465 -0.1470  0.1746  0.2080
23714W        W66652   4.775   8.443  21.934  0.2153 -0.1554 -0.0886
23715W        W66653   6.454  10.401  21.463  0.0038 -0.2097  0.1189
23716W        W66654   5.242   8.729  20.972  0.1060 -0.0091  0.0023
23717W        W66655   3.066   8.441  20.632 -0.1109  0.1919  0.0106
23718W        W66656   4.265   8.735  21.191 -0.0394  0.2539  0.0017
23719W        W66657   3.476   8.167  22.326  0.2808 -0.0787 -0.0876
23720W        W66658   4.790  10.685  22.805 -0.0352  0.0502  0.0338
23721W        W66659   8.113   8.170  19.484 -0.0490 -0.2807  0.0950
23722W        W66660   4.923   7.455  21.718  0.1544  0.0368  0.2636
23723W        W66661   6.472   7.938  21.375 -0.0496 -0.2337  0.3844
23724W        W66662   4.243   9.509  20.495  0.0319 -0.1937 -0.0239
23725W        W66663   6.447   9.777  20.573 -0.1179 -0.2134 -0.0601
23726W        W66664   6.899   7.857  20.263  0.0026 -0.1228  0.1162
23727W        W66665   6.709  10.762  21.746  0.2182  0.0803 -0.2773
23728W        W66666   2.670   8.696  21.427  0.0510  0.0465  0.4355
23729W        W66667   2.978   6.827  21.130 -0.1025  0.3717  0.1363
23730W        W66668   5.540   8.090  22.325  0.1172 -0.1414 -0.2105
23731W        W66669   3.973   7.389  22.716  0.0714  0.2389 -0.3044
23732W        W66670   6.797   8.462  22.229 -0.0504  0.1978  0.2454
23733W        W66671   3.353   7.701  19.827 -0.1826  0.2510  0.4173
23734W        W66672   6.818   8.668  21.755  0.2089  0.0906  0.2353
23735W        W66673   6.202   9.207  19.922 -0.3363  0.1225  0.0833
23736W        W66674   3.107   8.026  20.272 -0.1525 -0.1571 -0.2514
23737W        W66675   6.425   6.729  21.299  0.1528  0.1789 -0.1504
23738W        W66676   4.984   9.058  20.118 -0.0471 -0.2897  0.2124
23739W        W66677   8.257   9.340  20.469 -0.2000  0.2761 -0.0582
23740W        W66678   4.878   9.933  21.347 -0.2113  0.1276 -0.3636
23741W        W66679   4.855   8.614  23.112  0.0689 -0.3735 -0.1188
23742W        W66680   4.132   6.556  20.274 -0.1983 -0.2924  0.3498
23743W        W66681   3.797  11.488  21.762  0.0785 -0.1372 -0.3196
23744W        W66682   5.072   9.230  22.220 -0.0487 -0.0733  0.0478
23745W        W66683   4.547   8.691  20.159  0.2585  0.2890 -0.1826
23746W        W66684   6.418  10.630  22.368 -0.1070 -0.3961 -0.0000
23747W        W66685   6.449   8.642  21.229  0.0623  0.0115  0.1848
23748W        W66686   3.460  10.250  21.605  0.0554  0.1484 -0.0395
23749W        W66687   6.241   7.700  21.756  0.1351  0.2229 -0.2375
23750W        W66688   6.741   9.020  23.063  0.3536  0.2570  0.0719
23751W        W66689   5.861   9.359  21.945  0.1646  0.0134  0.2002
23752W        W66690   4.164   6.650  19.762  0.0198 -0.2328 -0.3354
23753W        W66691   5.482   9.606  22.230  0.0091  0.1314  0.0206
23754W        W66692   4.197  11.081  19.141 -0.0236  0.2523 -0.2022
23755W        W66693   4.530   9.847  20.319  0.0639 -0.0221 -0.0104
23756W        W66694   4.711   9.490  20.978 -0.0003  0.0631 -0.0259
23757W        W66695   7.869   8.083  21.032 -0.5200 -0.0780  0.3352
23758W        W66696   3.609   9.529  22.801  0.0257 -0.1544  0.1633
23759W        W66697   6.356   8.203  23.727 -0.2321  0.1830  0.4284
23760W        W66698   5.228   7.485  18.914  0.0561  0.0808 -0.1287
23761W        W66699   3.515   9.806  21.848  0.3021 -0.0134  0.0146
23762W        W66700   6.318   7.913  20.219 -0.1008  0.0081 -0.0820
23763W        W66701   6.999   5.298  19.837 -0.0596  0.0145 -0.1478
23764W        W66702   6.004   9.491  22.418 -0.1109 -0.1027  0.2908
23765W        W66703   7.589   9.246  21.707  0.0215 -0.0517  0.0928
23766W        W66704   7.585   6.101  18.975  0.0038  0.0501 -0.0262
23767W        W66705   5.738   5.723  20.476 -0.0768  0.0296  0.1087
23768W        W66706   4.374   9.438  23.468  0.4945 -0.0014  0.1286
23769W        W66707   3.759   9.311  20.586 -0.3526  0.0917  0.2635
23770W        W66708   5.537   9.099  22.272  0.3509  0.0005  0.0084
23771W        W66709   5.232   8.484  19.334  0.1236 -0.2259 -0.0588
23772W        W66710   6.773  10.526  20.153 -0.0966 -0.3122 -0.0898
23773W        W66711   3.240   8.544  22.076  0.1745 -0.1935 -0.0057
23774W        W66712   6.089   8.634  23.011  0.0862  0.0066  0.2353
23775W        W66713   6.334   8.910  21.703 -0.0231  0.2002  0.0797
23776W        W66714   5.252   6.736  22.237  0.0574  0.1824 -0.1166
23777W        W66715   5.737   8.353  19.238 -0.1561 -0.0186  0.1970
23778W        W66716   4.649   7.522  21.298 -0.1210  0.0346  0.0827
23779W        W66717   3.980   9.882  18.673 -0.1179  0.3741  0.0711
23780W        W66718   7.192   7.403  21.141 -0.0680  0.1943 -0.2989
23781W        W66719   6.827   7.482  21.618 -0.2955 -0.5019 -0.1187
23782W        W66720   3.508   7.557  23.541  0.4559 -0.1268 -0.0429
23783W        W66721   7.487   7.101  23.924  0.2402 -0.1997 -0.0332
23784W        W66722   5.851   8.473  22.444 -0.2529 -0.0188 -0.3129
23785W        W66723   5.488   8.683  21.556  0.2429  0.0394 -0.1222
23786W        W66724   2.032   8.260  19.532  0.2387  0.0865 -0.3158
23787W        W66725   5.001   7.004  23.849  0.0657 -0.2973  0.4945
23788W        W66726   3.872   9.652  23.222 -0.0377 -0.0981  0.1440
23789W        W66727   2.817  10.228  23.657 -0.1410  0.1630 -0.1324
23790W        W66728   6.390  11.182  20.884  0.1161  0.0789  0.0011
23791W        W66729   6.943   8.915  22.139  0.2853 -0.2500 -0.2357
23792W        W66730   5.629   6.980  23.680  0.0510  0.0118  0.0172
23793W        W66731   5.261   7.819  22.024  0.0273 -0.1421 -0.3020
23794W        W66732   4.007   8.383  20.364 -0.0004 -0.3597 -0.0537
23795W        W66733   4.353   7.491  19.939 -0.1435 -0.1039 -0.0638
23796W        W66734   5.673   7.444  21.388  0.2254  0.2904  0.1335
23797W        W66735   6.228  10.138  22.483  0.0792  0.4805  0.2725
23798W        W66736   4.285   8.022  19.480 -0.1377  0.3623  0.1344
23799W        W66737   6.781   9.808  22.859  0.3919 -0.0404  0.3154
23800W        W66738   5.081   8.536  20.005  0.1073  0.0777 -0.1195
23801W        W66739   7.232   6.601  21.565  0.2746  0.0069 -0.1203
23802W        W66740   2.130  11.065  21.573 -0.1023 -0.1831  0.1601
23803W        W66741   5.200   8.242  20.765 -0.1426 -0.1864 -0.1793
23804W        W66742   3.219   7.441  20.520  0.0054  0.0080 -0.5047
23805W        W66743   5.184   7.406  21.274  0.1067  0.1514  0.2475
23806W        W66744   5.094   7.509  20.767 -0.2531 -0.1042 -0.1827
23807W        W66745   4.736   8.358  20.988  0.4229 -0.1002 -0.0912
23808W        W66746   5.217   7.883  22.640  0.3667  0.1751  0.0348
23809W        W66747   2.367   9.371  21.194 -0.1030  0.1370 -0.0525
23810W        W66748   6.101   8.569  23.500 -0.0125  0.0797 -0.3061
23811W        W66749   6.083   6.514  19.700  0.2082  0.1395 -0.3904
23812W        W66750   4.749   8.732  21.467  0.0109 -0.1660  0.1426
23813W        W66751   5.158   9.112  22.697  0.1579  0.1664 -0.0712
23814W        W66752   3.751   8.291  19.825  0.4209  0.0653 -0.0852
23815W        W66753   7.094   7.867  21.396  0.1685  0.0521  0.0074
23816W        W66754   2.968   9.093  22.352  0.2137  0.0543 -0.1011
23817W        W66755   3.314   9.465  20.984 -0.0667  0.2505 -0.0192
23818W        W66756   5.208  10.573  22.508  0.1333 -0.0501 -0.1858
23819W        W66757   6.371   9.755  19.972 -0.2819  0.0966 -0.1269
23820W        W66758   4.285   9.240  21.148 -0.0646 -0.3269 -0.2425
23821W        W66759   5.561   9.083  23.265 -0.1198  0.0729 -0.2606
23822W        W66760   7.789   8.878  22.163  0.2933 -0.1761  0.0653
23823W        W66761   3.484   8.620  21.586 -0.0440  0.3054  0.0005
23824W        W66762   4.339   7.024  20.358  0.0781 -0.0477  0.1542
23825W        W66763   5.421   9.307  21.810  0.1181  0.2077 -0.0477
23826W        W66764   7.830   9.229  22.982  0.1165 -0.3176  0.1516
23827W        W66765   5.394   8.567  22.243 -0.1397  0.1758 -0.4255
23828W        W66766   4.840  10.977  25.093 -0.2061 -0.3179  0.1210
23829W        W66767   6.309   6.178  21.455 -0.0415 -0.1038  0.1136
23830W        W66768   6.717  12.201  20.376  0.2107 -0.0656  0.1701
23831W        W66769   6.651   8.216  22.835  0.0467 -0.1544  0.1918
23832W        W66770   3.704   7.994  20.171 -0.1892 -0.2947 -0.1480
23833W        W66771   2.026   8.734  20.581 -0.2257  0.3491 -0.1219
23834W        W66772   3.172   8.680  18.672  0.1366 -0.2077 -0.0357
23835W        W66773   5.378   7.411  22.445  0.0236  0.1391 -0.1014
23836W        W66774   4.064   9.579  22.322  0.1779  0.0543  0.0382
23837W        W66775   5.519   9.689  20.638  0.5261  0.3006 -0.0832
23838W        W66776   2.626  10.146  20.946 -0.3229 -0.0095 -0.0289
23839W        W66777   5.871   7.319  20.041 -0.0954 -0.0908 -0.2735
23840W        W66778   5.966   9.319  20.805  0.2654  0.0336 -0.0310
23841W        W66779   5.016   8.239  22.314 -0.0546 -0.3936  0.0642
23842W        W66780   6.845   8.590  23.760 -0.2777 -0.0321 -0.3682
23843W        W66781   5.684   7.845  21.770  0.2559 -0.0738 -0.7199
23844W        W66782   6.106   7.165  23.894  0.2646 -0.2960  0.2620
23845W        W66783   4.506   8.250  22.386 -0.0865 -0.0233 -0.1979
23846W        W66784   7.241   9.519  21.346  0.1155 -0.1697  0.1342
23847W        W66785   3.891   8.522  21.888 -0.1094  0.3592  0.0240
23848W        W66786   6.474  11.337  23.857 -0.1634  0.3201  0.1692
23849W        W66787   4.185   9.464  22.796 -0.0271  0.1980 -0.1089
23850W        W66788   5.250   7.895  21.441 -0.2065 -0.1061 -0.0694
23851W        W66789   4.440   5.879  21.224 -0.0308 -0.0337  0.2668
23852W        W66790   4.577   9.923  22.725 -0.0586  0.2577 -0.0284
23853W        W66791   7.125   9.150  21.043 -0.0719  0.0506  0.2658
23854W        W66792   4.876   9.533  19.953 -0.2837  0.0099  0.2844
23855W        W66793   6.628   9.459  21.484 -0.1130  0.0070  0.2785
23856W        W66794   3.427   9.204  21.432 -0.0144 -0.3643  0.0808
23857W        W66795   5.885   8.973  20.468 -0.0980 -0.2649 -0.2064
23858W        W66796   6.083   8.224  21.625  0.2833  0.0051  0.1315
23859W        W66797   4.449   8.677  20.635  0.0823  0.2600  0.2522
23860W        W66798   4.250   8.337  22.965 -0.1887 -0.1062 -0.3087
23861W        W66799   6.427   8.529  22.571 -0.0712  0.1647  0.0270
23862W        W66800   4.051   7.208  19.725  0.1247  0.1168 -0.0127
23863W        W66801   5.789   7.654  22.629 -0.0400 -0.1865  0.2167
23864W        W66802   5.018   7.425  22.830  0.0766 -0.0510 -0.1252
23865W        W66803   5.126   8.404  21.311  0.0720  0.1761 -0.2479
23866W        W66804   4.310   7.484  24.169 -0.2106  0.1541  0.5611
23867W        W66805   7.769   9.958  21.697 -0.1704 -0.0554  0.1670
23868W        W66806   8.665   9.009  19.883  0.1013  0.5328 -0.1041
23869W        W66807   7.560   8.671  23.005  0.1951  0.1448  0.0405
23870W        W66808   9.089   8.826  20.454  0.1202  0.1691  0.4741
23871W        W66809   4.963   7.139  20.403  0.3682 -0.1523 -0.1029
23872W        W66810   3.674   8.631  22.334  0.2232  0.0891  0.0861
23873W        W66811   7.196   7.947  23.131  0.0715 -0.0712 -0.3725
23874W        W66812   5.962   5.889  21.082  0.3679  0.0251  0.0924
23875W        W66813   8.049   7.293  22.284 -0.2679 -0.0234  0.1388
23876W        W66814   4.461   9.209  20.095  0.3563 -0.1536 -0.0470
23877W        W66815   5.994   8.942  22.418  0.0387 -0.0135 -0.2391
23878W        W66816   5.694   8.364  21.921 -0.0842  0.0323 -0.3988
23879W        W66817   3.311   6.806  20.387 -0.1016 -0.0279 -0.2043
23880W        W66818   3.634   9.940  24.232 -0.1058 -0.0655 -0.1582
23881W        W66819   1.260   9.195  19.543  0.0466  0.2537  0.0897
23882W        W66820   6.473   8.069  22.343  0.0645 -0.1038  0.2787
23883W        W66821   6.481   9.568  22.426 -0.1251  0.0062 -0.1939
23884W        W66822   6.708   8.219  24.148 -0.1441  0.3601  0.3163
23885W        W66823   5.571   5.513  21.001 -0.0710 -0.0497  0.3922
23886W        W66824   6.583   7.058  23.284 -0.2497  0.0721  0.0482
23887W        W66825   4.633   9.713  19.423 -0.3945 -0.0536  0.3637
23888W        W66826   5.931   6.442  21.060 -0.2589  0.1769 -0.0604
23889W        W66827   2.971  10.299  22.605 -0.0857  0.1554  0.3471
23890W        W66828   2.880   9.657  21.155 -0.0640 -0.2249  0.4072
23891W        W66829   5.416   9.331  21.009  0.0004  0.1441  0.2456
23892W        W66830   5.350   7.580  24.003 -0.0334 -0.1639 -0.0568
23893W        W66831   6.001   8.034  22.151  0.1249  0.2540  0.3060
23894W        W66832   5.199   8.252  21.773  0.2514  0.3379 -0.1969
23895W        W66833   7.425   9.001  23.909 -0.0005  0.1032  0.1943
23896W        W66834   5.145   9.661  22.717  0.0434  0.0075  0.1205
23897W        W66835   3.271   9.364  20.492 -0.1034 -0.1125 -0.0905
23898W        W66836   3.966  11.401  22.209  0.3472 -0.0468  0.4211
23899W        W66837   7.880   8.707  21.139  0.0354  0.3043 -0.0417
23900W        W66838   2.965   9.868  20.734  0.0545  0.0031  0.0084
23901W        W66839   3.342   9.584  23.207 -0.3022  0.2217  0.3865
23902W        W66840   5.652   8.097  22.848  0.1978 -0.2321 -0.0935
23903W        W66841   5.072   8.909  21.851  0.2809 -0.1414  0.2640
23904W        W66842   4.898   4.967  22.032  0.0354 -0.1219  0.0851
23905W        W66843   6.636   9.828  19.470 -0.0208 -0.2919  0.1318
23906W        W66844   3.138  10.526  24.087 -0.0685 -0.2503  0.0263
23907W        W66845   2.540   9.218  23.151 -0.4418 -0.0435 -0.3638
23908W        W66846   4.237  10.496  22.008  0.1318 -0.2846 -0.0886
23909W        W66847   6.781   8.641  20.872  0.1951 -0.3894  0.0095
23910W        W66848   6.614   8.227  20.590 -0.0494  0.1020 -0.2293
23911W        W66849   5.921  11.668  22.870  0.1164  0.1234 -0.0984
23912W        W66850   4.725   7.050  19.062 -0.0963  0.1774  0.1702
23913W        W66851   4.923   9.541  20.461  0.0637  0.1349 -0.4900
23914W        W66852   3.937   9.499  19.508 -0.1080 -0.3055 -0.1626
23915W        W66853   6.618   9.104  20.907 -0.1325 -0.0021 -0.1227
23916W        W66854   4.697  11.533  20.900 -0.1527 -0.0971  0.0343
23917W        W66855   7.289   9.690  23.162  0.3509  0.3268  0.0784
23918W        W66856   7.401   7.027  19.800  0.3880  0.0807 -0.0843
23919W        W66857   8.545   8.806  22.808  0.0693  0.1632 -0.0670
23920W        W66858   7.282   8.212  20.811  0.1652 -0.0536 -0.0521
23921W        W66859   6.330   9.179  22.100 -0.2140  0.0995  0.1688
23922W        W66860   4.054   9.729  21.837 -0.1340  0.0851 -0.2606
23923W        W66861   3.759   7.190  20.485  0.3581 -0.1458 -0.0297
23924W        W66862   3.853  10.196  21.913  0.1037 -0.2125 -0.0980
23925W        W66863   5.927   7.147  22.616  0.0996 -0.0955 -0.2350
23926W        W66864   3.552  10.706  23.322  0.2234 -0.1002  0.0812
23927W        W66865   5.902  10.984  20.665 -0.2515 -0.1208  0.0084
23928W        W66866   2.769   8.245  21.177  0.0639 -0.0887  0.2724
23929W        W66867   5.177   9.022  21.353  0.0831  0.0320 -0.1288
23930W        W66868   7.793   6.296  20.436 -0.1422 -0.0710  0.0557
23931W        W66869   5.395   9.522  18.905 -0.0258 -0.2737  0.1987
23932W        W66870   4.201   8.602  22.275 -0.0418 -0.0949 -0.0756
23933W        W66871   4.746  11.197  21.307  0.0693  0.0913 -0.1275
23934W        W66872   4.651   9.765  21.799  0.0379 -0.1742  0.0638
23935W        W66873   5.053  11.485  21.589 -0.0008 -0.0050 -0.0868
23936W        W66874   4.016   8.884  19.009 -0.1259  0.0516 -0.2832
23937W        W66875   7.846   8.737  21.656 -0.1270 -0.0072 -0.1817
23938W        W66876   3.928   8.784  23.646  0.1871 -0.1593 -0.1699
23939W        W66877   7.895   7.303  21.805  0.3574  0.1118  0.0933
23940W        W66878   4.888   7.942  20.516 -0.1382  0.2829  0.0261
23941W        W66879   6.459   7.397  19.895  0.2882  0.3528 -0.2061
23942W        W66880   6.831   9.798  23.405 -0.3801 -0.0430  0.0130
23943W        W66881   4.314   9.072  22.495 -0.3351 -0.1514  0.0296
23944W        W66882   6.438   7.711  20.865 -0.0850 -0.3309  0.0993
23945W        W66883   8.112   9.239  21.227 -0.4883  0.0253 -0.1094
23946W        W66884   6.251   8.062  18.916 -0.0959 -0.2249 -0.0372
23947W        W66885   5.693  10.798  22.631  0.0045  0.0850 -0.0635
23948W        W66886   2.470   7.274  21.278  0.0768 -0.1904  0.0734
23949W        W66887   4.891   6.654  20.115 -0.1026 -0.0587 -0.0721
23950W        W66888   4.735   7.738  19.579  0.3312  0.1894 -0.0520
23951W        W66889   5.311  10.092  22.310  0.0071 -0.1443 -0.3919
23952W        W66890   6.919  10.478  22.345  0.2021 -0.1675  0.2735
23953W        W66891   4.671   6.372  19.801 -0.2795  0.1641  0.4104
23954W        W66892   6.820   9.327  19.215 -0.1200 -0.1696 -0.0479
23955W        W66893   7.002   8.152  19.804 -0.1454 -0.0914 -0.0501
23956W        W66894   3.763  10.301  20.669 -0.2047 -0.0675 -0.3137
23957W        W66895   7.342   8.757  21.917  0.1587  0.0961  0.1973
23958W        W66896   6.504  10.351  22.834  0.0120 -0.2466 -0.0522
23959W        W66897   4.029   9.055  22.102 -0.0669  0.0513  0.1707
23960W        W66898   5.934  10.512  22.188  0.0574 -0.2629 -0.1777
23961W        W66899   8.094  10.836  21.676  0.1439 -0.0848  0.0318
23962W        W66900   5.260   8.033  20.125  0.2901 -0.0029  0.0277
23963W        W66901   3.296   8.952  20.810  0.0749  0.0180  0.1056
23964W        W66902   3.714   9.591  21.366 -0.1318 -0.1276  0.0360
23965W        W66903   7.219   9.336  22.202  0.2195  0.0459  0.3608
23966W        W66904   7.013   8.779  22.644 -0.1469 -0.2309  0.2255
23967W        W66905   5.145  10.379  19.551 -0.2427 -0.1667 -0.3052
23968W        W66906   6.690   7.442  24.810 -0.0709  0.0535  0.0774
23969W        W66907   5.893   9.505  23.321  0.1274 -0.1647 -0.1024
23970W        W66908   4.319   9.780  23.124  0.2805 -0.0429  0.1790
23971W        W66909   5.687   8.393  20.164  0.3051  0.1282  0.1572
23972W        W66910   5.031  10.167  22.787 -0.2554  0.1201 -0.2526
23973W        W66911   4.711   8.958  21.050 -0.1727  0.0863  0.2088
23974W        W66912   5.787  11.021  20.063  0.1707 -0.1030 -0.2074
23975W        W66913   6.985  10.605  20.617 -0.0373 -0.0313 -0.0011
23976W        W66914   3.902   8.145  21.621  0.0209  0.2114 -0.0882
23977W        W66915   6.803   9.313  20.446  0.4609  0.1129 -0.0520
23978W        W66916   5.670   6.936  22.024  0.1155  0.0099  0.1390
23979W        W66917   7.201   6.303  19.211  0.1210 -0.1604 -0.0363
23980W        W66918   7.464   7.774  19.638  0.1411  0.0403  0.0004
23981W        W66919   4.913   9.697  22.240 -0.0028 -0.1085  0.1361
23982W        W66920   3.882   8.929  21.591 -0.1696  0.3136  0.1418
23983W        W66921   3.400   8.490  20.268  0.1586 -0.0003 -0.1626
23984W        W66922   2.058   9.744  20.469 -0.1837 -0.2371  0.2005
23985W        W66923   5.556   7.682  24.524  0.2460  0.0733  0.0476
23986W        W66924   3.090   7.427  21.964  0.3483 -0.2753 -0.2604
23987W        W66925   3.571   9.174  19.737  0.1015 -0.0408  0.4150
23988W        W66926   4.948   7.004  20.948 -0.0594  0.0171 -0.1902
23989W        W66927   5.578   9.807  21.776 -0.0701  0.0475  0.1054
23990W        W66928   4.275   8.225  21.960 -0.0362  0.3704  0.0069
23991W        W66929   3.864   7.494  20.085  0.1255 -0.3341  0.1128
23992W        W66930   6.852   8.266  21.238 -0.1905 -0.1658 -0.1986
23993W        W66931   5.964   8.657  21.433 -0.3408  0.0084 -0.0230
23994W        W66932   5.634   7.367  22.961 -0.0960 -0.0430 -0.4164
23995W        W66933   8.106  10.122  23.053  0.3485 -0.1729 -0.2060
23996W        W66934   3.909   8.738  20.054  0.2624  0.0637  0.0940
23997W        W66935   3.744   7.574  24.112  0.0511  0.2605  0.1507
23998W        W66936   4.997   6.825  23.108 -0.1983 -0.5232 -0.2357
23999W        W66937   2.310   7.812  19.427 -0.1435  0.1199  0.3288
24000W        W66938   4.755   7.923  21.981  0.1772 -0.0617 -0.1617
24001W        W66939   4.257   8.450  19.771 -0.0223  0.2384  0.0058
24002W        W66940   4.654   9.133  20.539 -0.0458 -0.1651 -0.1679
24003W        W66941   4.766  10.300  22.396 -0.2352  0.0610  0.1238
24004W        W66942   6.242   9.070  23.261  0.1407 -0.1263 -0.3852
24005W        W66943   4.257   7.857  22.781  0.1639 -0.1469 -0.0191
24006W        W66944   7.504   8.883  22.549  0.0748  0.1809  0.2235
24007W        W66945   6.002   8.642  23.967 -0.3152  0.2569 -0.1092
24008W        W66946   6.839   9.752  20.164  0.0185  0.1314  0.1329
24009W        W66947   7.674   8.130  22.721  0.3156  0.0071  0.0549
24010W        W66948   4.785   8.104  21.518 -0.3074 -0.2891  0.1067
24011W        W66949   4.029   7.369  22.169  0.2111  0.0934 -0.3249
24012W        W66950   5.656   9.717  22.736 -0.1832 -0.0249 -0.2954
24013W        W66951   8.071   9.155  21.798 -0.2774 -0.0588 -0.1506
24014W        W66952   5.183   6.259  20.300 -0.1929 -0.0371 -0.0320
24015W        W66953   5.271   8.939  19.715  0.2620  0.0233  0.3241
24016W        W66954   6.293   8.711  20.762  0.3581 -0.0142 -0.0960
24017W        W66955   2.668   9.125  21.909  0.2460 -0.0645 -0.3011
24018W        W66956   4.931   8.661  20.524  0.3359 -0.0184  0.2909
24019W        W66957   6.846  10.133  21.561  0.0998  0.2630 -0.1326
24020W        W66958   4.526   9.307  22.126 -0.2748 -0.0622 -0.0173
24021W        W66959   6.579   8.632  23.325  0.0579 -0.2362 -0.0929
24022W        W66960   5.458   9.273  20.403  0.1737 -0.0364  0.4142
24023W        W66961   7.658   9.016  19.431 -0.1149  0.0865  0.1637
24024W        W66962   5.850  11.257  21.950 -0.0856 -0.1323 -0.0075
24025W        W66963   6.598  10.152  22.109  0.2023 -0.3536  0.0298
24026W        W66964   4.862  11.003  22.431 -0.1574 -0.1318 -0.4221
24027W        W66965   6.378   9.027  22.757 -0.2741  0.0651  0.0317
24028W        W66966   3.974   8.083  22.400 -0.0741 -0.0574  0.3044
24029W        W66967   4.366   8.326  21.417  0.0626 -0.1522 -0.0598
24030W        W66968   4.689   9.328  21.462  0.0744  0.0743  0.0228
24031W        W66969   6.670   7.688  22.066 -0.0188  0.1601 -0.0168
24032W        W66970   4.525   8.256  20.451  0.1496 -0.0230  0.0386
24033W        W66971   5.078   6.268  20.885 -0.3449 -0.1959 -0.1302
24034W        W66972   5.356  11.159  22.403  0.2093  0.0984 -0.1964
24035W        W66973   5.917   7.772  23.056  0.1595  0.0495 -0.0269
24036W        W66974   3.854   9.806  27.980  0.2443  0.0017  0.3366
24037W        W66975   5.397   8.025  23.739 -0.0386  0.2416  0.1634
24038W        W66976   6.954   7.468  23.184 -0.1038  0.0462 -0.1108
24039W        W66977   7.498  10.337  24.730  0.0139  0.0173  0.0058
24040W        W66978   2.414   7.346  24.095 -0.4286  0.3441 -0.0104
24041W        W66979   6.671   9.325  24.013  0.1002 -0.0359  0.1412
24042W        W66980   2.846   7.582  26.299 -0.2941 -0.1216  0.1376
24043W        W66981   5.782  10.274  24.761 -0.1387 -0.2053  0.1085
24044W        W66982   5.688  10.314  26.204 -0.2825 -0.0750  0.1624
24045W        W66983   5.238   8.956  23.883  0.1398  0.0774  0.2208
24046W        W66984   5.086   8.963  26.380 -0.1523  0.2861 -0.2369
24047W        W66985   4.432   9.919  27.226 -0.0702  0.0881  0.0932
24048W        W66986   6.560   6.904  23.857 -0.1820  0.0031 -0.0791
24049W        W66987   4.236   6.115  25.707 -0.0200 -0.2689  0.1063
24050W        W66988   6.405   7.728  26.677  0.1713  0.0147 -0.0553
24051W        W66989   4.257   9.725  23.989  0.0060 -0.2840  0.1995
24052W        W66990   4.424   7.467  26.467  0.0629  0.1573 -0.0069
24053W        W66991   4.913   8.006  23.814 -0.3505 -0.1473 -0.4931
24054W        W66992   5.761   9.211  26.219  0.1479 -0.0818  0.0529
24055W        W66993   5.480   8.668  27.109  0.6096 -0.0078 -0.0691
24056W        W66994   5.287   8.498  26.478 -0.0989 -0.1018  0.0351
24057W        W66995   5.598  10.291  25.287 -0.0834  0.1310  0.1085
24058W        W66996   3.847   8.153  23.293  0.0336 -0.1662 -0.1103
24059W        W66997   3.559   7.833  25.775 -0.0671 -0.0659 -0.1336
24060W        W66998   4.825   9.685  25.809 -0.0572 -0.2415  0.2573
24061W        W66999   7.527   7.783  25.858 -0.0922  0.0085 -0.1491
24062W        W67000   6.891   7.811  25.877 -0.0551 -0.4221 -0.1438
24063W        W67001   5.002  11.333  23.598 -0.1717 -0.0897 -0.0724
24064W        W67002   6.524  10.322  26.067  0.1530 -0.2580 -0.2022
24065W        W67003   6.497   8.379  27.141 -0.1994 -0.2981 -0.3781
24066W        W67004   3.101  10.153  24.453  0.1568 -0.1522 -0.1452
24067W        W67005   4.396  11.338  24.954  0.0873 -0.2174 -0.1341
24068W        W67006   4.131   9.304  24.177  0.2035 -0.1775 -0.0425
24069W        W67007   7.810   8.314  25.479  0.0167 -0.1945  0.1078
24070W        W67008   5.360  12.114  26.183 -0.1393 -0.1652 -0.1086
24071W        W67009   4.749   9.013  27.252  0.1919 -0.1324  0.1051
24072W        W67010   4.022   9.134  23.186  0.1253 -0.4650 -0.0185
24073W        W67011   5.392  11.363  27.566  0.1004 -0.0012 -0.0722
24074W        W67012   4.921  10.136  27.029 -0.0430  0.5217  0.1455
24075W        W67013   5.329   9.839  25.426 -0.1095 -0.0579  0.0197
24076W        W67014   6.673   8.481  26.366  0.1609 -0.1188  0.1189
24077W        W67015   5.084  11.004  25.835  0.3582  0.4270 -0.2884
24078W        W67016   6.338   8.967  25.622 -0.0954 -0.0478 -0.0304
24079W        W67017   5.433  10.158  25.810 -0.3436 -0.1545 -0.0028
24080W        W67018   4.485   9.446  26.069 -0.1197 -0.2185 -0.1504
24081W        W67019   8.132   8.844  27.598 -0.0340  0.0287  0.0726
24082W        W67020   4.634  10.194  23.169  0.1080 -0.1489 -0.0781
24083W        W67021   4.625   6.921  22.791 -0.1570 -0.2345 -0.0062
24084W        W67022   4.466   8.937  21.805  0.3173 -0.1082  0.1003
24085W        W67023   7.099   8.876  24.789  0.0676  0.1202  0.3212
24086W        W67024   4.315   6.858  25.787  0.5160  0.0060 -0.4829
24087W        W67025   4.666   9.899  26.281 -0.0818  0.2936  0.1955
24088W        W67026   4.144   8.304  26.930 -0.1217 -0.1523 -0.1606
24089W        W67027   7.428   9.143  25.668  0.1706 -0.1110  0.1073
24090W        W67028   5.598   7.445  23.508  0.0043  0.1292  0.1278
24091W        W67029   6.072   8.007  25.830 -0.2019 -0.4377  0.0282
24092W        W67030   6.097  10.098  26.060  0.0755 -0.0181 -0.0010
24093W        W67031   4.439   9.782  24.509 -0.0427 -0.2409  0.1574
24094W        W67032   6.380   9.967  23.288  0.0325 -0.0138  0.2052
24095W        W67033   5.834  10.016  25.597  0.0240 -0.2223 -0.0270
24096W        W67034   5.644  10.282  22.585  0.0433  0.0380 -0.1143
24097W        W67035   4.285   8.813  24.448 -0.1053 -0.1122  0.0811
24098W        W67036   3.912  10.405  27.730 -0.0717 -0.1340  0.0180
24099W        W67037   4.952   9.438  26.207 -0.1474  0.2681  0.0066
24100W        W67038   4.161   8.342  23.602  0.0837  0.1443 -0.0017
24101W        W67039   7.289  10.191  27.224 -0.1723 -0.0399  0.0539
24102W        W67040   4.415  10.225  27.719 -0.0572  0.1241 -0.1443
24103W        W67041   6.085   8.207  24.836  0.0395  0.2537 -0.1024
24104W        W67042   5.735   9.035  23.746  0.1337  0.0168  0.1014
24105W        W67043   6.004   9.918  24.197 -0.2554 -0.0269 -0.0111
24106W        W67044   7.297   9.556  24.148  0.3540 -0.1510 -0.0471
24107W        W67045   7.112   7.291  25.217  0.2482  0.2657 -0.1114
24108W        W67046   5.981   6.594  27.273 -0.1469 -0.0246  0.2445
24109W        W67047   5.168   9.325  24.206 -0.0313  0.1170  0.1137
24110W        W67048   5.522   8.536  23.804 -0.2116 -0.1464 -0.0334
24111W        W67049   5.266  10.769  25.025 -0.2194  0.0049 -0.0855
24112W        W67050   7.923  10.089  24.483  0.0888 -0.1317  0.0528
24113W        W67051   3.604  10.965  26.027 -0.2520 -0.0781  0.2493
24114W        W67052   5.818   9.690  27.443  0.1681 -0.1341 -0.1072
24115W        W67053   5.496   9.015  26.774  0.1071 -0.0515 -0.0306
24116W        W67054   3.143   9.967  22.943  0.1529  0.0992 -0.2630
24117W        W67055   2.759  10.383  27.337  0.0437  0.0019 -0.0627
24118W        W67056   3.721   9.788  23.714  0.0533  0.0509  0.0960
24119W        W67057   4.219   6.429  26.119 -0.0553 -0.1718  0.4517
24120W        W67058   5.197  10.802  26.591  0.0102 -0.0725 -0.0988
24121W        W67059   5.849   7.141  24.508  0.0459 -0.1929 -0.0962
24122W        W67060   4.957   8.229  27.796 -0.0047 -0.0879  0.0131
24123W        W67061   6.799   7.799  23.902 -0.3413  0.0471 -0.1660
24124W        W67062   4.830   9.915  24.965 -0.3246 -0.1900  0.0302
24125W        W67063   7.656  10.066  23.966 -0.0044  0.1477 -0.1513
24126W        W67064   6.925   9.506  24.994 -0.2617  0.2051 -0.1701
24127W        W67065   7.510  10.950  23.929  0.2163 -0.4357 -0.1742
24128W        W67066   3.251   9.511  27.761 -0.1400 -0.0767  0.0328
24129W        W67067   4.367   7.344  24.755 -0.1283 -0.2211  0.0468
24130W        W67068   5.432   7.474  28.028 -0.2567 -0.1990  0.2037
24131W        W67069   4.840   8.605  25.746 -0.0807  0.1541 -0.2651
24132W        W67070   5.639   8.157  26.736  0.2134 -0.1365  0.1703
24133W        W67071   4.757   8.193  22.885 -0.1283  0.0007  0.0149
24134W        W67072   6.661   9.012  25.175  0.1519  0.1297 -0.1635
24135W        W67073   6.219   8.314  24.269  0.2410 -0.1167 -0.2145
24136W        W67074   3.651   8.402  24.413 -0.0617 -0.1104 -0.0449
24137W        W67075   6.832   7.039  26.995 -0.0242  0.0962 -0.2306
24138W        W67076   3.736  10.175  23.427  0.3523 -0.2628  0.3144
24139W        W67077   6.837  10.943  26.643 -0.2434 -0.1912  0.0066
24140W        W67078   7.018  10.271  24.596 -0.1171  0.0267  0.2303
24141W        W67079   4.060   8.609  25.972  0.0209 -0.0483  0.0974
24142W        W67080   3.833   8.650  23.210  0.1277 -0.2182  0.0441
24143W        W67081   5.095  12.012  25.640 -0.0968 -0.2607  0.2208
24144W        W67082   4.726   8.786  23.605  0.1104  0.2432 -0.2343
24145W        W67083   4.695   8.342  24.525  0.1780 -0.0699  0.3203
24146W        W67084   6.290   9.697  26.265  0.1293  0.0769  0.1372
24147W        W67085   8.021   8.777  24.535 -0.1366 -0.0462  0.0821
24148W        W67086   4.626   8.945  26.113  0.2015 -0.0952  0.2674
24149W        W67087   5.926   6.456  26.160 -0.0094 -0.1073  0.2503
24150W        W67088   6.452   7.750  25.689 -0.0920  0.0782  0.2787
24151W        W67089   5.555   8.065  27.248  0.1595  0.0612  0.3860
24152W        W67090   2.599   7.611  22.181  0.1476  0.0031 -0.2229
24153W        W67091   6.016   9.849  23.658  0.0922  0.0511 -0.1952
24154W        W67092   2.344   9.898  23.019 -0.1739  0.3784  0.0400
24155W        W67093   3.953   9.626  24.528 -0.2310  0.0349  0.3949
24156W        W67094   6.390  10.407  24.742  0.2841  0.1157 -0.2534
24157W        W67095   7.597   7.582  24.999 -0.1431  0.1763  0.2067
24158W        W67096   3.748  10.449  25.774  0.0634 -0.1903  0.1744
24159W        W67097   6.022   7.898  27.027  0.0534  0.0388  0.1072
24160W        W67098   3.848   7.194  24.475  0.2260  0.0783 -0.0948
24161W        W67099   4.236   9.501  28.292  0.1843  0.2341  0.1278
24162W        W67100   6.130   7.626  25.372  0.5178 -0.1059  0.2158
24163W        W67101   5.995   5.880  23.126  0.5150 -0.0205 -0.2590
24164W        W67102   5.177   8.221  26.900 -0.1771  0.1552 -0.2836
24165W        W67103   7.568  10.628  24.319 -0.0887 -0.0146 -0.1247
24166W        W67104   4.635   7.636  23.117  0.0293 -0.0636  0.0361
24167W        W67105   5.239   6.401  23.112  0.0363 -0.1054  0.3030
24168W        W67106   5.146   8.988  28.441 -0.0901 -0.1576  0.2217
24169W        W67107   6.369   9.563  24.340  0.2739  0.1721 -0.0470
24170W        W67108   5.484   8.432  24.474  0.3267  0.0996 -0.0641
24171W        W67109   5.082   8.194  23.278  0.2227 -0.1390  0.4042
24172W        W67110   7.006  10.722  24.165 -0.0523  0.0955  0.0560
24173W        W67111   3.013   8.963  26.335  0.2570  0.0202 -0.0542
24174W        W67112   6.000   9.393  26.573 -0.1744  0.0154 -0.0508
24175W        W67113   5.399  11.658  25.462 -0.1757 -0.0276 -0.0660
24176W        W67114   5.797   7.569  26.141 -0.1109  0.2409  0.1884
24177W        W67115   4.746   8.844  22.250  0.0455  0.3856  0.2039
24178W        W67116   4.798   8.694  25.187  0.2435  0.3242  0.1873
24179W        W67117   3.968  10.258  24.022  0.1123  0.2471 -0.3833
24180W        W67118   5.458   6.651  24.939  0.0960 -0.1838  0.1609
24181W        W67119   6.668   6.383  24.765 -0.1529 -0.0604  0.1657
24182W        W67120   5.079   8.006  27.344 -0.2013  0.1038  0.1721
24183W        W67121   7.888   9.599  26.876  0.1787  0.1982 -0.2250
24184W        W67122   6.522   8.493  25.070  0.2118 -0.1791  0.2401
24185W        W67123   5.270   8.413  25.935  0.1416  0.3815  0.2324
24186W        W67124   4.749   8.802  24.135 -0.1203  0.2291  0.0740
24187W        W67125   4.603   8.837  26.689 -0.0194 -0.0440 -0.0160
24188W        W67126   4.076   9.191  26.679  0.1587 -0.3695  0.1624
24189W        W67127   4.186  10.228  24.930 -0.2284  0.0993 -0.2819
24190W        W67128   5.657  10.715  26.590 -0.1458  0.1961  0.1114
24191W        W67129   4.605  10.006  25.412  0.1152  0.1739 -0.0465
24192W        W67130   4.423   7.551  28.369 -0.4269 -0.2009  0.2342
24193W        W67131   5.337   7.734  23.084 -0.0257 -0.0022  0.2441
24194W        W67132   4.649   9.146  25.625  0.3428 -0.3461 -0.0078
24195W        W67133   5.920   9.274  24.757 -0.2734  0.1129  0.0447
24196W        W67134   3.854   7.327  26.597 -0.0298 -0.0664 -0.0374
24197W        W67135   5.289  10.647  25.562  0.1031 -0.0112 -0.0061
24198W        W67136   4.483  10.219  24.038 -0.2084 -0.0350 -0.0596
24199W        W67137   5.337   9.411  26.485 -0.0776 -0.1529  0.0937
24200W        W67138   3.834   9.426  25.530 -0.1413 -0.2982 -0.0736
24201W        W67139   7.112   8.086  26.315  0.1788 -0.2086 -0.0703
24202W        W67140   3.760  10.417  26.551 -0.4853  0.4923 -0.0660
24203W        W67141   4.323   8.980  23.856 -0.0146  0.2374  0.0453
24204W        W67142   4.177   8.317  24.526  0.2079  0.0796 -0.1243
24205W        W67143   6.470   8.702  24.054 -0.2293 -0.0832 -0.1067
24206W        W67144   7.744   9.072  24.759 -0.0919 -0.0999  0.2770
24207W        W67145   5.670   8.280  26.249 -0.2321 -0.2981  0.2371
24208W        W67146   5.189   8.848  24.444  0.1305 -0.1617 -0.4112
24209W        W67147   4.111  11.008  25.751 -0.2671 -0.0812  0.1405
24210W        W67148   5.268   9.132  25.497  0.2341 -0.0398 -0.0538
24211W        W67149   6.058   7.598  24.494 -0.0150  0.1827  0.0690
24212W        W67150   6.174   9.843  24.821 -0.2462 -0.1853  0.2758
24213W        W67151   5.674   9.658  28.009  0.0032 -0.0522 -0.2170
24214W        W67152   4.616   8.290  23.443 -0.1001 -0.1624  0.0379
24215W        W67153   6.701   9.480  25.482 -0.4175 -0.0728 -0.0439
24216W        W67154   4.774   8.801  24.723 -0.1132 -0.0838  0.0877
24217W        W67155   4.355   9.273  24.670  0.2835  0.2534 -0.1675
24218W        W67156   5.759   9.712  26.017  0.1547 -0.1374 -0.0293
24219W        W67157   5.115   9.791  24.495  0.1126 -0.0568  0.1035
24220W        W67158   4.504  10.644  23.339 -0.0468 -0.0271  0.0733
24221W        W67159   4.725   8.388  26.911  0.1564 -0.0742 -0.5829
24222W        W67160   7.019  10.391  25.762  0.1287 -0.1050  0.0963
24223W        W67161   4.403   7.227  25.291  0.1697  0.0065 -0.0276
24224W        W67162   4.085   7.516  25.561 -0.3449  0.1352  0.1638
24225W        W67163   5.674   8.752  26.121 -0.0201 -0.1231 -0.0586
24226W        W67164   5.750   8.603  26.637 -0.0387 -0.0151 -0.0803
24227W        W67165   4.901   7.016  26.033  0.1825 -0.0868 -0.0652
24228W        W67166   4.336   9.480  27.590 -0.3721  0.0490  0.1013
24229W        W67167   5.425   7.823  25.894 -0.1075  0.1991  0.2280
24230W        W67168   7.308  10.447  23.893 -0.2547  0.0131 -0.2796
24231W        W67169   6.071   8.883  26.879  0.2646  0.0348 -0.0328
24232W        W67170   3.619  10.178  24.687  0.2714 -0.2718  0.1448
24233W        W67171   4.316   8.720  27.072  0.3547  0.0204  0.3342
24234W        W67172   6.218   8.826  24.881 -0.1501  0.0224  0.0950
24235W        W67173   4.550   7.783  25.629  0.0874  0.2298  0.4252
24236W        W67174   3.810   9.442  26.022  0.1197  0.0338  0.3389
24237W        W67175   4.303  10.118  23.570 -0.1578 -0.3941  0.0046
24238W        W67176   4.889   9.580  27.129  0.0647 -0.1764 -0.1494
24239W        W67177   6.896   6.826  24.822 -0.0231  0.3987 -0.2771
24240W        W67178   6.150  10.804  22.813  0.0196  0.0603 -0.0207
24241W        W67179   5.920   6.690  24.003 -0.1493 -0.3374 -0.0040
24242W        W67180   7.367   8.634  25.589 -0.0759 -0.1994  0.0665
24243W        W67181   6.191   9.088  23.841 -0.2735  0.2190  0.2288
24244W        W67182   7.086   6.944  26.556  0.0634  0.2537 -0.1491
24245W        W67183   3.809   7.885  26.583 -0.0869  0.3216 -0.1191
24246W        W67184   5.706   8.898  25.569  0.2150  0.1107  0.1488
24247W        W67185   4.146   9.111  26.207 -0.2221  0.2288  0.1384
24248W        W67186   5.851   9.874  26.523 -0.1436  0.1147  0.1820
24249W        W67187   3.587   9.258  26.489 -0.2033 -0.4751  0.2559
24250W        W67188   5.691   8.363  25.174 -0.2266 -0.1717  0.0835
24251W        W67189   3.492   7.504  25.462 -0.2181 -0.0695  0.3283
24252W        W67190   4.723   8.172  25.140  0.2277  0.1878  0.3227
24253W        W67191   7.121   9.048  25.315 -0.2588 -0.2092  0.0360
24254W        W67192   5.582   9.070  24.216 -0.1593  0.2046  0.2783
24255W        W67193   5.989   9.660  25.305  0.1024  0.2673  0.3204
24256W        W67194   4.413   9.310  27.033 -0.0599 -0.1329 -0.0096
24257W        W67195   6.834   8.108  25.316 -0.0073  0.2604  0.2396
24258W        W67196   6.450   9.501  23.095 -0.1762  0.1341 -0.2462
24259W        W67197   5.292  10.285  24.839  0.2438  0.2103  0.2182
24260W        W67198   4.446   6.924  26.345 -0.1557  0.3091 -0.1406
24261W        W67199   6.705  10.048  24.918 -0.2829 -0.1977 -0.3509
24262W        W67200   5.076   7.624  23.541  0.0175  0.2108  0.2653
24263W        W67201   6.050   7.376  26.846  0.1475 -0.0368 -0.0845
24264W        W67202   7.305   8.156  26.750  0.1012  0.4382  0.1583
24265W        W67203   5.862   9.277  27.704  0.2774 -0.0757  0.1786
24266W        W67204   3.649   7.486  27.005 -0.0037 -0.3084 -0.0854
24267W        W67205   6.155  10.645  26.032 -0.2655  0.1446  0.1981
24268W        W67206   7.258   7.498  24.127  0.1173  0.3800  0.0070
24269W        W67207   7.098   8.532  26.007 -0.3177  0.4740 -0.0466
24270W        W67208   7.589   7.337  24.467 -0.0532  0.4210 -0.2338
24271W        W67209   5.706   7.898  25.448  0.1681  0.0997  0.0029
24272W        W67210   4.423   7.937  24.802 -0.0724 -0.1379  0.0383
24273W        W67211   6.594   8.903  27.233 -0.2254  0.2347 -0.3803
24274W        W67212   4.631   8.718  22.686  0.2445  0.2445  0.2343
24275W        W67213   6.790   8.134  26.732  0.2286 -0.1422  0.0993
24276W        W67214   4.727   9.352  22.633  0.0561  0.1774  0.6464
24277W        W67215   4.966   9.548  25.390 -0.2212 -0.0478 -0.0061
24278W        W67216   4.984   7.873  24.702 -0.0686 -0.2538  0.0551
24279W        W67217   4.061   8.551  24.092 -0.1671  0.0249 -0.2838
24280W        W67218   5.060  12.238  27.603 -0.1905  0.1518 -0.0210
24281W        W67219   3.362   8.661  24.869 -0.4201  0.1295 -0.0063
24282W        W67220   5.973  10.403  23.541 -0.3054  0.1489  0.3811
24283W        W67221   5.041  11.502  25.896 -0.0159 -0.2173 -0.3941
24284W        W67222   5.769   9.377  25.661 -0.0473  0.1353  0.1940
24285W        W67223   5.834   7.591  24.018 -0.2743  0.1221  0.3978
24286W        W67224   7.379   8.880  26.949  0.2533  0.0025 -0.0863
24287W        W67225   3.528   9.827  25.248 -0.1459  0.0677  0.0240
24288W        W67226   4.417   6.390  24.936  0.0696  0.1508  0.1220
24289W        W67227   3.814   9.421  27.443 -0.0311 -0.0870  0.0557
24290W        W67228   4.316   9.835  25.845 -0.0937  0.0194 -0.1924
24291W        W67229   4.713   9.748  24.130 -0.0105 -0.2003  0.2888
24292W        W67230   5.331   8.193  25.509  0.0384 -0.1180  0.2704
24293W        W67231   7.057   7.743  24.968  0.3074  0.0129  0.1305
24294W        W67232   5.816   8.401  25.722  0.5185 -0.0582  0.0157
24295W        W67233   6.439   8.648  27.685  0.4775 -0.1096  0.1956
24296W        W67234   5.069   9.768  26.681  0.1721  0.0082  0.0893
24297W        W67235   4.741   9.847  23.558  0.2563 -0.1592  0.2565
24298W        W67236   5.890  11.184  26.769 -0.0494  0.2109 -0.4131
24299W        W67237   5.995   9.130  25.287  0.3108 -0.2179 -0.2404
24300W        W67238   5.406   9.285  24.695  0.2908  0.1938  0.0155
24301W        W67239   4.514   7.811  26.135  0.1936  0.1088  0.2246
24302W        W67240   5.570   8.408  27.610 -0.0547 -0.0632 -0.2119
24303W        W67241   5.557   9.290  25.168 -0.0603 -0.1479  0.1895
24304W        W67242   4.194   6.709  25.282 -0.0003  0.2759  0.0663
24305W        W67243   5.103  10.078  23.359  0.0499 -0.3498 -0.2439
24306W        W67244   5.296  11.828  27.558 -0.0118  0.0159 -0.0435
24307W        W67245   3.440   8.972  26.113  0.0573  0.0937  0.4604
24308W        W67246   4.660   9.257  25.119 -0.3338  0.1045 -0.1846
24309W        W67247   6.346   9.414  25.092 -0.0857  0.0937 -0.0507
24310W        W67248   6.393   9.500  23.579 -0.0822 -0.1341 -0.0232
24311W        W67249   5.869  10.254  26.892  0.3778  0.0213 -0.0090
24312W        W67250   3.875   7.219  25.090 -0.1584 -0.0436 -0.0705
24313W        W67251   3.925   9.396  25.023  0.1516 -0.0818 -0.0490
24314W        W67252   3.820  10.996  24.273 -0.3761  0.1023 -0.0549
24315W        W67253   6.110  10.470  24.331  0.0879  0.0784  0.0466
24316W        W67254   3.502  11.801  24.659  0.4007 -0.3563 -0.1361
24317W        W67255   6.244   9.663  25.761 -0.0503 -0.0295 -0.2441
24318W        W67256   7.013   6.839  23.666  0.0535  0.0871  0.2141
24319W        W67257   6.496   7.482  26.106 -0.0862 -0.5577 -0.0344
24320W        W67258   7.998   7.875  23.503  0.1227  0.0653 -0.0662
24321W        W67259   5.288   9.885  26.202 -0.2469  0.0563 -0.3947
24322W        W67260   5.593   8.794  24.934 -0.1039 -0.4209  0.0403
24323W        W67261   4.285   7.932  23.281 -0.1843  0.2076  0.0057
24324W        W67262   4.865   9.375  27.607  0.1592 -0.2627  0.0048
24325W        W67263   6.650   7.517  25.290 -0.0287  0.3648  0.2066
24326W        W67264   3.774   8.814  25.586  0.2511  0.0085 -0.3399
24327W        W67265   6.479  11.266  22.511 -0.0816  0.0844 -0.0523
24328W        W67266   3.855   7.969  23.810 -0.2018 -0.0060  0.0788
24329W        W67267   6.199   9.026  24.383 -0.4084  0.1564 -0.2225
24330W        W67268   7.617   6.733  26.828 -0.0540  0.2630 -0.1785
24331W        W67269   7.266  10.004  23.622  0.1479  0.0550 -0.0128
24332W        W67270   4.994   7.631  25.985 -0.0714 -0.1624 -0.4766
24333W        W67271   5.444  11.023  26.927 -0.0925  0.1196  0.1279
24334W        W67272   4.788  10.706  25.545  0.0648  0.0821  0.0904
24335W        W67273   6.311  10.053  26.603 -0.3351  0.2100  0.0703
24336W        W67274   3.464   6.892  24.730 -0.2628  0.5885 -0.2713
24337W        W67275   7.451   9.431  25.182 -0.0076  0.1072 -0.2117
24338W        W67276   5.026   7.807  25.482 -0.1299 -0.3852  0.0808
24339W        W67277   6.402   7.814  24.973 -0.0349 -0.0961 -0.0641
24340W        W67278   5.843   8.064  24.421  0.0365 -0.1985 -0.2217
24341W        W67279   6.989   8.638  24.229 -0.0351  0.0008  0.1952
24342W        W67280   6.096   8.575  25.329 -0.0603  0.3199 -0.1272
24343W        W67281   4.891   8.099  25.885  0.2708 -0.1366  0.3383
24344W        W67282   6.442   7.997  24.532 -0.2501 -0.1687  0.1405
24345W        W67283   7.473  10.443  25.948 -0.0407  0.1520  0.0070
24346W        W67284   5.272   7.221  23.241  0.1521 -0.2798  0.1388
24347W        W67285   7.690  10.945  26.009 -0.0834 -0.2403  0.2960
24348W        W67286   4.612   9.259  24.254 -0.1084 -0.1815 -0.0563
24349W        W67287   6.055   7.833  23.570 -0.0233  0.1966  0.0543
24350W        W67288   3.632   9.441  24.138 -0.2111  0.3240 -0.3893
24351W        W67289   4.959  10.733  24.643  0.3611  0.2513 -0.1418
24352W        W67290   7.529  10.444  28.431  0.0470  0.2383 -0.1892
24353W        W67291   2.409   6.928  24.515  0.2536 -0.1235 -0.0517
24354W        W67292   8.175  11.166  24.743 -0.3448 -0.0941  0.1354
24355W        W67293   5.980   7.926  26.450  0.0486  0.0725 -0.1635
24356W        W67294   4.771   9.612  23.114  0.2941  0.1301 -0.0418
24357W        W67295   6.752   7.302  25.710  0.0286 -0.0984 -0.2909
24358W        W67296   4.350  12.187  26.998  0.2294 -0.0958  0.1681
24359W        W67297   3.894   8.197  25.699 -0.0514 -0.2598 -0.3582
24360W        W67298   7.356  10.957  25.115  0.0229 -0.1868 -0.4211
24361W        W67299   8.663   9.917  25.549  0.3675  0.1157  0.2622
24362W        W67300   4.207   5.942  26.254  0.1636  0.2487  0.0092
24363W        W67301   4.350   9.693  25.005  0.0496 -0.1731  0.0686
24364W        W67302   3.118   9.924  26.241  0.2270 -0.2075 -0.0050
24365W        W67303   6.525   8.261  25.810 -0.0577 -0.0013  0.2147
24366W        W67304   7.120   8.560  26.516 -0.1213 -0.0865  0.0474
24367W        W67305   5.454  10.032  23.048 -0.1526  0.0765  0.1624
24368W        W67306   7.094   6.645  26.924 -0.2602 -0.0230 -0.2372
24369W        W67307   5.028   9.204  26.819  0.1397 -0.1274 -0.2214
24370W        W67308   3.910  11.214  27.150  0.1694  0.2593 -0.2782
24371W        W67309   4.071  10.092  24.469  0.2807  0.1888 -0.3280
24372W        W67310   6.586   9.023  26.785  0.0742 -0.0141 -0.0730
24373W        W67311   5.111   8.473  24.106  0.1902 -0.3666 -0.4648
24374W        W67312   4.928  10.228  24.469 -0.2121  0.1919 -0.0541
24375W        W67313   6.521  10.015  24.376 -0.2415  0.0382  0.2200
24376W        W67314   5.764   7.427  25.611 -0.0281  0.1247  0.2007
24377W        W67315   6.969  10.076  25.391  0.3110  0.0581 -0.0786
24378W        W67316   5.280   8.664  25.267 -0.0331 -0.0151 -0.1193
24379W        W67317   7.654   7.067  24.960  0.3654 -0.0444  0.2215
24380W        W67318   8.242   8.348  24.145 -0.0351 -0.2565 -0.3613
24381W        W67319   4.616   9.324  26.575  0.1573  0.0934 -0.0283
24382W        W67320   3.087   9.507  24.081 -0.4036  0.0954 -0.0993
24383W        W67321   5.124  10.017  24.001 -0.0662  0.0957 -0.2102
24384W        W67322   3.202   8.436  26.275  0.0259  0.2717  0.2670
24385W        W67323   5.663   7.639  26.626 -0.0112  0.2900  0.3944
24386W        W67324   2.803   8.938  28.187  0.0724  0.3186 -0.1229
24387W        W67325   3.866   8.460  25.230 -0.0729 -0.0145  0.1531
24388W        W67326   3.984   7.723  24.580  0.3825  0.1831  0.3196
24389W        W67327   6.861   9.658  24.338  0.0786  0.0680 -0.0026
24390W        W67328   4.096   7.296  26.039  0.1868  0.1609 -0.1674
24391W        W67329   3.636   7.652  24.960 -0.1126  0.0089 -0.2883
24392W        W67330   7.037   9.431  23.674  0.1029 -0.1846 -0.0217
24393W        W67331   5.532  10.111  24.357  0.1108 -0.3931  0.0041
24394W        W67332   4.808   9.242  23.822  0.0380 -0.2217 -0.0469
24395W        W67333   6.078   8.887  26.357 -0.1892  0.4271 -0.2371
24396W        W67334   2.919  11.009  24.260 -0.1626 -0.0202 -0.1754
24397W        W67335   6.510   5.573  26.706  0.1598  0.1459  0.1624
24398W        W67336   5.066   8.743  26.859 -0.4949 -0.2546  0.0837
24399W        W67337   4.151   6.111  23.338 -0.2467  0.1047 -0.1612
24400W        W67338   6.297   8.261  26.639  0.0749 -0.2250 -0.3908
24401W        W67339   4.914   9.379  24.637  0.2111  0.1332 -0.1570
24402W        W67340   7.612   9.165  21.061 -0.1640  0.1625 -0.0620
24403W        W67341   5.321   9.686  24.963 -0.0359  0.0147 -0.1488
24404W        W67342   6.078  10.473  26.492  0.2035  0.1803  0.0344
24405W        W67343   5.233   7.925  26.495  0.0465 -0.0577  0.0845
24406W        W67344   6.690   9.171  24.688  0.1551  0.1639  0.2989
24407W        W67345   6.595  10.181  28.591 -0.1614  0.4471  0.0599
24408W        W67346   8.002   9.430  25.145  0.1101  0.2279 -0.0476
24409W        W67347   6.301   8.123  25.358  0.2266 -0.0369 -0.0386
24410W        W67348   6.571   8.578  24.562 -0.1044  0.1085 -0.1394
24411W        W67349   4.677   6.864  26.941  0.0397 -0.0726  0.0085
24412W        W67350   4.903  10.452  26.464 -0.0237  0.2563 -0.1768
24413W        W67351   5.665   9.692  24.597 -0.1656  0.1288  0.3180
24414W        W67352   4.594   7.270  25.736  0.3739 -0.1391  0.3118
24415W        W67353   6.977   7.897  22.554 -0.1031  0.1450  0.0781
24416W        W67354   7.613  10.056  23.270 -0.2453  0.2284  0.0560
24417W        W67355   4.142   7.674  25.105 -0.4455  0.1907  0.4028
24418W        W67356   5.665   8.168  23.373  0.1061 -0.0618  0.0569
24419W        W67357   5.278   9.475  25.850 -0.0551  0.0398  0.0313
24420W        W67358   4.151  10.554  25.391  0.0534  0.0167 -0.1507
24421W        W67359   5.775  10.547  25.738  0.4443  0.0622  0.1538
24422W        W67360   6.268   8.168  23.228 -0.0433  0.1534  0.4015
24423W        W67361   7.656   9.562  23.722 -0.0468  0.2218  0.1530
24424W        W67362   5.912  11.753  25.364  0.0015 -0.4019  0.0058
24425W        W67363   7.164   9.560  25.655 -0.0598 -0.2291 -0.1708
24426W        W67364   4.882  10.182  25.851 -0.0894  0.1496  0.3905
24427W        W67365   4.571  10.453  25.173  0.0117 -0.2366  0.0023
24428W        W67366   3.372   6.638  26.080 -0.1240  0.1140 -0.1258
24429W        W67367   5.933   8.638  24.548  0.0292 -0.0017  0.2862
24430W        W67368   5.950   9.411  24.093 -0.2353  0.1718  0.2137
24431W        W67369   6.534   8.026  26.298  0.1395 -0.7085 -0.2235
24432W        W67370   3.779   7.963  25.314 -0.2497 -0.1063 -0.0244
24433W        W67371   6.872   8.154  24.793 -0.0937 -0.1300  0.0731
24434W        W67372   4.658  10.708  26.037 -0.2963 -0.2691  0.1083
24435W        W67373   5.114   9.063  25.022  0.1698  0.0199  0.0958
24436W        W67374   3.840   8.609  31.490 -0.2802  0.1437 -0.4218
24437W        W67375   5.093   8.552  28.664 -0.3936 -0.2527 -0.0836
24438W        W67376   5.995   8.769  27.390 -0.1260  0.1324 -0.0370
24439W        W67377   7.560   9.349  27.184  0.1483  0.0922 -0.2655
24440W        W67378   4.550   8.563  28.590  0.1113 -0.1076  0.0125
24441W        W67379   6.088  10.636  27.695  0.0633 -0.0940 -0.2233
24442W        W67380   4.201   7.723  30.992 -0.1023  0.0210  0.0410
24443W        W67381   6.209  11.059  28.671 -0.1251 -0.0492 -0.0690
24444W        W67382   6.599  11.371  27.935 -0.1213 -0.1894 -0.0230
24445W        W67383   7.394   9.980  25.663  0.0484 -0.0256 -0.0583
24446W        W67384   5.229   8.776  29.578  0.0111 -0.2446  0.3178
24447W        W67385   4.634  11.446  30.113  0.0266  0.0104  0.1432
24448W        W67386   5.416   6.560  27.982 -0.1720  0.1874  0.2457
24449W        W67387   2.910   8.752  28.701  0.1107 -0.0278 -0.3109
24450W        W67388   5.544  10.277  31.187 -0.2610 -0.0145  0.1676
24451W        W67389   5.720   9.864  29.101 -0.3510  0.1655 -0.1159
24452W        W67390   4.198   8.944  29.159 -0.2653 -0.1148  0.2021
24453W        W67391   5.471   8.881  27.582 -0.0181  0.1657 -0.1334
24454W        W67392   6.915  11.616  28.815 -0.1338 -0.0627 -0.0947
24455W        W67393   5.756   8.980  29.292 -0.0173 -0.0792 -0.1665
24456W        W67394   5.947   8.260  30.492 -0.0352  0.1375 -0.3195
24457W        W67395   6.026   9.609  28.685 -0.0593  0.1354  0.1360
24458W        W67396   4.546   9.799  26.751 -0.3360  0.0685 -0.0482
24459W        W67397   3.298  10.003  30.622  0.1681 -0.1009 -0.0380
24460W        W67398   5.826   9.858  30.552 -0.1920  0.0928  0.1310
24461W        W67399   6.771   8.359  28.605  0.2195 -0.0362  0.0774
24462W        W67400   7.693   8.829  27.354 -0.0173  0.0224 -0.2934
24463W        W67401   5.421   9.517  29.884  0.0048 -0.1207 -0.1744
24464W        W67402   5.553  10.298  30.159  0.4401 -0.0550  0.2069
24465W        W67403   6.420   9.083  31.165  0.0639  0.2223 -0.2080
24466W        W67404   4.864  10.112  29.422 -0.3698  0.4494 -0.0263
24467W        W67405   3.078  10.997  27.957  0.0440 -0.0442 -0.2393
24468W        W67406   6.407   9.253  30.100 -0.0739  0.1330 -0.0880
24469W        W67407   6.886  10.020  29.044 -0.2932 -0.1451 -0.1652
24470W        W67408   7.295  11.106  29.751 -0.1694  0.0539 -0.1248
24471W        W67409   3.838  12.077  31.282 -0.2662  0.1517  0.1271
24472W        W67410   4.612  10.592  28.129  0.0553  0.0371 -0.2548
24473W        W67411   6.939  11.292  30.088  0.5079 -0.1388  0.2294
24474W        W67412   3.954  10.018  31.168  0.2392 -0.0189  0.1235
24475W        W67413   5.396   8.904  31.111 -0.0215 -0.0426 -0.0027
24476W        W67414   5.596   8.737  28.534  0.1339  0.0581 -0.0391
24477W        W67415   5.187  10.441  27.428 -0.0549  0.0106  0.2242
24478W        W67416   5.167  11.427  27.138 -0.0542  0.0309 -0.0866
24479W        W67417   3.646  10.910  30.798 -0.1385 -0.1343 -0.1942
24480W        W67418   4.775  10.610  29.600 -0.1017 -0.1836 -0.1625
24481W        W67419   6.744   7.374  31.470  0.0562  0.3449  0.3563
24482W        W67420   4.912  10.288  27.796  0.2643  0.1641  0.2742
24483W        W67421   7.420   7.744  26.470 -0.2377  0.5214 -0.2997
24484W        W67422   6.113   6.849  27.671 -0.1371  0.0414 -0.1540
24485W        W67423   5.226   6.988  27.824 -0.2198 -0.0416  0.0055
24486W        W67424   4.660   7.134  29.638  0.1960 -0.2916 -0.0685
24487W        W67425   4.795   9.861  27.551  0.2005 -0.1638  0.0127
24488W        W67426   3.921   7.711  29.590  0.2040 -0.1619  0.2034
24489W        W67427   6.349  10.069  31.438  0.1362  0.1352  0.2612
24490W        W67428   6.496   8.544  28.999 -0.0780  0.1740  0.0473
24491W        W67429   4.685   9.723  29.164 -0.0126  0.1589  0.0769
24492W        W67430   5.281  10.579  29.540  0.0247 -0.2507 -0.0416
24493W        W67431   4.305   8.214  28.359 -0.1287  0.4204  0.1137
24494W        W67432   6.302  10.259  25.632 -0.1970  0.2775 -0.1461
24495W        W67433   7.540  10.855  28.697  0.0509 -0.0869 -0.1611
24496W        W67434   5.845  11.224  27.270 -0.0197 -0.1884 -0.2041
24497W        W67435   5.984   8.679  28.902  0.1314 -0.3451 -0.2624
24498W        W67436   3.455  10.681  31.246  0.0457 -0.2223  0.2037
24499W        W67437   3.129   8.384  31.403 -0.0154  0.3495  0.0031
24500W        W67438   4.593   7.829  27.065 -0.1998 -0.1262 -0.0791
24501W        W67439   7.180   9.983  30.353  0.3178  0.2696  0.1334
24502W        W67440   3.247  10.525  30.781 -0.0383 -0.1118  0.0626
24503W        W67441   7.037   7.868  28.666  0.1232  0.3438 -0.0275
24504W        W67442   6.438   9.300  28.705 -0.0343 -0.2012 -0.0478
24505W        W67443   7.895  12.221  29.083 -0.0750 -0.1980  0.2329
24506W        W67444   7.744   9.750  25.474  0.1160  0.1365  0.1976
24507W        W67445   5.500   6.855  29.258  0.2417  0.1663  0.0067
24508W        W67446   6.174   7.981  29.448  0.1287 -0.1629 -0.0456
24509W        W67447   5.541   9.716  28.601 -0.0692 -0.1994  0.0410
24510W        W67448   6.255  10.008  28.974 -0.0227  0.2817 -0.2420
24511W        W67449   6.923   9.251  30.303 -0.0274  0.3689 -0.1180
24512W        W67450   7.484   7.923  27.909 -0.2374  0.1942 -0.0160
24513W        W67451   4.079  10.467  28.749 -0.2925 -0.1460 -0.2761
24514W        W67452   5.035   8.808  30.571 -0.0721 -0.1938 -0.1875
24515W        W67453   6.515   9.517  31.331  0.1547 -0.2299 -0.0546
24516W        W67454   4.905  10.804  27.736  0.1080  0.1553 -0.1640
24517W        W67455   2.985   9.198  29.340  0.3971  0.1680 -0.1457
24518W        W67456   5.454  10.641  28.415  0.2330  0.3416 -0.1316
24519W        W67457   4.731   8.881  29.560  0.0020 -0.1843 -0.0873
24520W        W67458   4.166  11.692  30.163  0.2807 -0.0612  0.4757
24521W        W67459   5.232   8.554  30.122  0.1399  0.2012  0.1845
24522W        W67460   5.293   7.719  29.634  0.3333 -0.0641 -0.0378
24523W        W67461   6.829   8.201  29.083 -0.1618  0.0595 -0.0534
24524W        W67462   4.615   8.687  27.666 -0.0047 -0.1342 -0.0850
24525W        W67463   5.343  10.502  27.910 -0.2318  0.1094 -0.0332
24526W        W67464   5.730   8.319  28.065  0.1130 -0.0888 -0.3469
24527W        W67465   6.798  10.291  27.341  0.0403 -0.2120 -0.0708
24528W        W67466   2.609   7.850  28.865  0.0609  0.3529 -0.0058
24529W        W67467   4.324   7.592  29.001 -0.0137  0.0609 -0.0242
24530W        W67468   4.462   8.621  31.250 -0.0571 -0.3213  0.0400
24531W        W67469   2.971   6.576  29.859  0.0973  0.0525  0.2328
24532W        W67470   6.202   8.079  31.509  0.6013 -0.0657  0.3469
24533W        W67471   4.613   8.257  27.421 -0.0883  0.0625  0.2037
24534W        W67472   6.465   8.558  28.175  0.0514 -0.1331 -0.3178
24535W        W67473   4.366  10.825  30.709  0.1313  0.4141  0.1614
24536W        W67474   5.240   9.735  29.077 -0.2685 -0.0328  0.0150
24537W        W67475   6.949   8.164  30.766  0.1250 -0.0256 -0.1564
24538W        W67476   5.860  11.148  29.748  0.1862  0.5696 -0.0933
24539W        W67477   6.140  11.132  31.412 -0.1569 -0.2148 -0.0413
24540W        W67478   6.597   9.400  28.211 -0.2214 -0.1086 -0.1581
24541W        W67479   5.532   8.414  28.943  0.0192 -0.0777  0.2908
24542W        W67480   4.810   7.388  27.196 -0.0735 -0.1397  0.0528
24543W        W67481   5.652   9.514  29.457 -0.1136  0.4215 -0.1055
24544W        W67482   5.950  10.752  30.407  0.0785  0.0462 -0.2160
24545W        W67483   4.772   8.701  28.218  0.1575  0.1740 -0.2457
24546W        W67484   6.859  10.949  28.191  0.1655  0.1368 -0.0189
24547W        W67485   6.462  10.163  27.668  0.0969  0.0531 -0.2317
24548W        W67486   4.975   9.276  29.778  0.2610  0.2160  0.1073
24549W        W67487   6.178   7.517  31.199  0.0272 -0.0861 -0.2934
24550W        W67488   6.549  10.156  30.283 -0.1103  0.0897  0.5219
24551W        W67489   6.340   8.588  30.259  0.0138  0.1260 -0.1874
24552W        W67490   5.680   6.263  27.026 -0.0367 -0.0253  0.2121
24553W        W67491   5.756  12.921  28.729 -0.0547 -0.0806 -0.1936
24554W        W67492   3.851  10.800  27.402  0.1922 -0.2087  0.2124
24555W        W67493   4.677   9.165  28.445 -0.1793  0.0823 -0.3364
24556W        W67494   6.602  11.223  29.070 -0.3659  0.1238 -0.1067
24557W        W67495   7.291   6.794  28.949 -0.2659 -0.1688 -0.1044
24558W        W67496   2.458   8.623   0.217 -0.1646  0.0465 -0.0558
24559W        W67497   7.164   8.207  31.691 -0.5081  0.2345 -0.3407
24560W        W67498   5.068   9.472  28.238  0.1373 -0.0085  0.0898
24561W        W67499   4.215  10.752  29.423 -0.3121  0.1364  0.0299
24562W        W67500   5.644   7.925  28.839  0.2728 -0.0192  0.1930
24563W        W67501   6.450   8.106  27.770  0.0257 -0.3452  0.1291
24564W        W67502   4.691   8.218   0.386  0.0463 -0.0018 -0.0071
24565W        W67503   6.237   9.234  26.082  0.0291  0.1927  0.0293
24566W        W67504   6.531   7.448  27.061  0.1506  0.1590 -0.1767
24567W        W67505   6.469   7.904  27.270  0.6742 -0.0998 -0.1881
24568W        W67506   4.405  10.543  31.295  0.0532  0.2071 -0.1135
24569W        W67507   6.063   9.765  29.513 -0.4484  0.1253 -0.1855
24570W        W67508   5.037  11.160  29.320 -0.5027  0.4219 -0.0657
24571W        W67509   5.406   6.743  27.085  0.1392  0.1851 -0.0573
24572W        W67510   7.411  11.357  28.645  0.1697 -0.2376 -0.3902
24573W        W67511   2.537   8.812  30.487 -0.1853  0.0526 -0.0510
24574W        W67512   5.309   9.058   0.046 -0.0602  0.0116 -0.3912
24575W        W67513   6.815  10.086  28.096  0.1937  0.2178 -0.4701
24576W        W67514   4.491   7.607  29.619  0.0255  0.4439 -0.2628
24577W        W67515   5.816  10.350  29.099  0.0785  0.0045 -0.1053
24578W        W67516   4.747   7.960  29.240  0.0375 -0.1684  0.1550
24579W        W67517   4.393  10.057  29.474  0.3844 -0.4040  0.3408
24580W        W67518   6.713   8.028  30.253 -0.1362 -0.3619  0.2247
24581W        W67519   5.640   9.427  30.361  0.0254 -0.1857  0.1711
24582W        W67520   5.778   6.986  31.352 -0.1933  0.1563 -0.0342
24583W        W67521   6.262   9.007  31.731 -0.0291 -0.0085  0.3117
24584W        W67522   6.852   8.421  27.884 -0.1622  0.1445 -0.1758
24585W        W67523   6.571   9.733  29.822 -0.1480  0.3175  0.1316
24586W        W67524   4.184   8.431  27.619 -0.2266 -0.1747  0.1833
24587W        W67525   7.872   9.011  30.367  0.0679 -0.0309  0.3475
24588W        W67526   4.291   9.133  29.605 -0.1366 -0.0064 -0.0912
24589W        W67527   3.915  10.185  29.792 -0.0841 -0.1772  0.2683
24590W        W67528   5.010  10.101  30.349  0.0514 -0.2555 -0.6040
24591W        W67529   6.528  10.090  29.455  0.3488  0.2502 -0.1287
24592W        W67530   5.504   7.284  29.791 -0.1037 -0.0172  0.3041
24593W        W67531   6.382   7.244  27.531 -0.1622 -0.3794 -0.3107
24594W        W67532   4.875  11.343  27.552 -0.1551  0.0410 -0.1794
24595W        W67533   5.745   9.198  27.239  0.1899  0.0588 -0.1640
24596W        W67534   5.531   6.369  29.597 -0.1814 -0.0122 -0.0536
24597W        W67535   4.546  10.464  30.359  0.0073  0.2463  0.1427
24598W        W67536   4.150   9.668  26.341 -0.0303 -0.1220  0.0015
24599W        W67537   4.794   9.280  30.521 -0.0878  0.0776 -0.0517
24600W        W67538   5.721  10.747  29.500 -0.0435 -0.0144 -0.3312
24601W        W67539   6.130   8.490  29.393  0.0581 -0.0022  0.0986
24602W        W67540   3.676   9.695  30.113 -0.2748 -0.1305  0.1600
24603W        W67541   5.134   9.076  27.932 -0.1863  0.3511 -0.0105
24604W        W67542   4.730   7.600  28.720 -0.0520  0.0361  0.1160
24605W        W67543   6.964   8.866  29.207 -0.0735  0.0289 -0.0532
24606W        W67544   6.200   8.414  26.112 -0.0337  0.1346 -0.1744
24607W        W67545   5.031   7.639  30.989 -0.2011  0.1767  0.2010
24608W        W67546   5.995   8.929  30.339  0.0110  0.0992  0.0569
24609W        W67547   4.342  10.509  29.870 -0.0842  0.1617  0.0087
24610W        W67548   5.944   8.847  31.228 -0.1640  0.1086  0.1268
24611W        W67549   6.212   7.583  28.395  0.4591 -0.0418 -0.0803
24612W        W67550   6.899  10.192  30.739  0.4385 -0.2136 -0.1625
24613W        W67551   5.429   8.235  29.773  0.2145  0.5267  0.0239
24614W        W67552   4.629   9.705  28.660 -0.1063 -0.2005 -0.0210
24615W        W67553   6.033   8.265  29.834 -0.2765 -0.1492 -0.4004
24616W        W67554   5.586   9.379  28.989  0.1193 -0.3108 -0.1984
24617W        W67555   4.543  10.323  28.580  0.4381 -0.0140  0.0144
24618W        W67556   6.504  10.693  30.401 -0.0202  0.1739  0.0022
24619W        W67557   5.042   8.540  27.378 -0.1534 -0.0823 -0.1925
24620W        W67558   5.083   9.377  28.863  0.1656  0.1590  0.3039
24621W        W67559   4.959  10.459  30.037 -0.0241 -0.0048 -0.1331
24622W        W67560   6.900  10.563  31.891 -0.1520  0.1803  0.1346
24623W        W67561   5.445   9.711  31.084  0.0580  0.1848 -0.1786
24624W        W67562   5.788   6.791  28.776 -0.1139 -0.1139 -0.0654
24625W        W67563   5.789  10.272  29.674  0.0990 -0.0137  0.2323
24626W        W67564   6.535  10.622  27.963 -0.1770  0.1815 -0.0462
24627W        W67565   5.942   7.983  30.905  0.1340  0.1276 -0.0886
24628W        W67566   4.511   9.842  30.392 -0.3570 -0.0541 -0.0483
24629W        W67567   5.507   8.876  30.484 -0.2538 -0.1743 -0.1804
24630W        W67568   6.538   9.521  26.709  0.0594  0.0632  0.2240
24631W        W67569   6.268   8.438  31.121  0.0680  0.2754 -0.2621
24632W        W67570   5.375   8.891  28.995 -0.0206 -0.2532 -0.1018
24633W        W67571   3.789   8.981  31.235 -0.0379 -0.1303  0.0153
24634W        W67572   5.939  10.089  28.490 -0.0784  0.0848 -0.0849
24635W        W67573   5.758   7.850  29.762  0.0373  0.6296 -0.0537
24636W        W67574   4.499  10.424  29.199 -0.2528  0.2613  0.1206
24637W        W67575   3.678   9.373  28.258 -0.0968 -0.0787  0.0895
24638W        W67576   4.070   8.300  30.139  0.3216 -0.1594  0.0057
24639W        W67577   6.173   8.031  28.114  0.3301  0.0343 -0.0128
24640W        W67578   5.122  10.951  27.338 -0.2212 -0.2701 -0.1921
24641W        W67579   5.790   7.823  27.794  0.0665  0.2896 -0.1221
24642W        W67580   7.778   9.150  29.477 -0.0724  0.1001 -0.0327
24643W        W67581   6.217   9.241  27.327 -0.2600  0.3684 -0.1319
24644W        W67582   5.934   7.624   0.085  0.0992 -0.0249 -0.1703
24645W        W67583   6.081   7.418  29.779  0.0442 -0.0491 -0.0945
24646W        W67584   6.794  10.539  28.988  0.1213  0.0051 -0.1677
24647W        W67585   1.983   9.183  29.703  0.1867  0.0769  0.2046
24648W        W67586   6.381  10.373  30.868  0.0956 -0.0143  0.0860
24649W        W67587   3.939   9.224  30.149  0.0307 -0.0267  0.1069
24650W        W67588   6.028   8.237  27.633 -0.1478 -0.0585 -0.0700
24651W        W67589   5.177   7.652  26.945 -0.0793  0.0336  0.3445
24652W        W67590   6.225  10.132  29.856  0.0499 -0.5275 -0.0519
24653W        W67591   6.491   9.080  29.134  0.0546  0.0466  0.0805
24654W        W67592   5.584   9.137  28.248 -0.1305  0.1780  0.0073
24655W        W67593   7.307   9.409  27.660 -0.1671 -0.1248  0.1383
24656W        W67594   4.556   8.327  30.281  0.0464 -0.1727  0.0212
24657W        W67595   7.217   8.536  27.363  0.0741 -0.0805  0.1909
24658W        W67596   6.393   7.987  28.632 -0.2646  0.1027  0.0502
24659W        W67597   4.649   9.642  29.681 -0.0340 -0.0623 -0.3770
24660W        W67598   5.237   9.215  30.236  0.2610 -0.2540  0.1763
24661W        W67599   6.335  10.662  28.959 -0.0253 -0.2270  0.1103
24662W        W67600   5.715   8.626  29.653  0.0620  0.0197  0.1189
24663W        W67601   6.766   8.858  28.724  0.1852 -0.1804  0.2251
24664W        W67602   5.695   8.603  30.842 -0.0732  0.0647  0.1597
24665W        W67603   4.106   8.787  30.412 -0.4572 -0.1901 -0.0193
24666W        W67604   3.288   9.409  30.394 -0.1255  0.0175 -0.1493
24667W        W67605   6.745  10.861  31.363  0.7584  0.2072  0.0147
24668W        W67606   7.596   9.850  26.422  0.1236  0.3577 -0.1967
24669W        W67607   7.475   9.335  29.132  0.4133  0.1668 -0.0754
24670W        W67608   6.532   8.727  29.651  0.1865 -0.2942 -0.0386
24671W        W67609   5.249   9.194  27.227 -0.3059  0.1115 -0.0338
24672W        W67610   3.866   9.817  30.594  0.1493  0.1322  0.0761
24673W        W67611   6.827   9.283  29.747  0.3023 -0.0850 -0.0657
24674W        W67612   3.657   7.978  27.074 -0.0832 -0.1726  0.4113
24675W        W67613   7.837   8.285  29.665  0.1234  0.1175 -0.1883
24676W        W67614   5.767  11.003  28.425  0.2131 -0.1292 -0.0029
24677W        W67615   6.731   9.720  28.608  0.1042 -0.0145  0.4045
24678W        W67616   5.770   6.962  28.061  0.2350  0.1801  0.0869
24679W        W67617   4.191   9.596  29.291 -0.2376 -0.0447 -0.1508
24680W        W67618   5.485  10.803  29.981 -0.0173  0.0457  0.1408
24681W        W67619   3.740   8.275  26.238 -0.1814  0.3050  0.0942
24682W        W67620   6.208  10.462  29.451  0.2358 -0.3816 -0.2864
24683W        W67621   6.550   8.958  30.482  0.4375  0.0158 -0.0150
24684W        W67622   6.471   9.927   0.324  0.0174  0.2781  0.0173
24685W        W67623   5.613   7.515  27.099  0.1297  0.0776 -0.0859
24686W        W67624   7.875   9.472  30.075 -0.3593 -0.0746  0.1939
24687W        W67625   4.906  10.149  28.946  0.0512  0.1047 -0.0470
24688W        W67626   5.273   7.231  29.362 -0.0670 -0.4089  0.1593
24689W        W67627   5.745  11.690  30.579  0.0924 -0.4469  0.0789
24690W        W67628   4.488   9.260  30.076 -0.0474 -0.0307 -0.0788
24691W        W67629   4.601  11.291  30.654  0.0719  0.1322  0.0157
24692W        W67630   7.539   7.708  30.452 -0.1304  0.0076  0.2990
24693W        W67631   8.136   9.459  29.578  0.1723  0.0380 -0.1570
24694W        W67632   6.309  11.086  30.072  0.1289  0.0116 -0.1292
24695W        W67633   4.913   9.669  30.128  0.0340  0.0653  0.4993
24696W        W67634   6.039  10.228  30.358  0.2170  0.0277 -0.1513
24697W        W67635   6.228   9.768  30.186 -0.0436  0.1375  0.1525
24698W        W67636   5.087   9.877  31.400 -0.2116  0.1618 -0.0598
24699W        W67637   8.026   9.919  29.570 -0.1491 -0.0786  0.2259
24700W        W67638   5.189   9.646  30.538 -0.3295  0.0020  0.1413
24701W        W67639   3.970  10.476   0.077 -0.2680 -0.0650  0.0449
24702W        W67640   6.347   8.011   0.027 -0.0716  0.1392 -0.0140
24703W        W67641   5.780   9.847  30.023 -0.3901  0.1131 -0.0608
24704W        W67642   5.306   8.584  28.069 -0.1307  0.0249  0.3343
24705W        W67643   5.495  11.493  26.782  0.0026  0.1585 -0.1330
24706W        W67644   3.654  10.560  29.872 -0.0630  0.3183 -0.1063
24707W        W67645   3.032   7.520  30.260 -0.1393 -0.0728 -0.0841
24708W        W67646   5.039  10.386  28.297  0.0711 -0.1760  0.0860
24709W        W67647   6.937   8.554  26.986  0.1135 -0.0742  0.0873
24710W        W67648   6.031  10.090  27.906 -0.0010 -0.1288  0.2338
24711W        W67649   6.937  10.772  30.044  0.0526  0.0169 -0.5701
24712W        W67650   4.891   7.694  28.003  0.0897 -0.3481 -0.0135
24713W        W67651   4.201  10.032  29.006 -0.1095  0.3531 -0.1523
24714W        W67652   3.296  10.333  27.373 -0.0800 -0.3225  0.1722
24715W        W67653   6.525  10.672  27.434  0.2036  0.0427 -0.0640
24716W        W67654   6.081   9.380  29.130  0.0110 -0.1515 -0.2573
24717W        W67655   7.054   9.466  31.339  0.0601 -0.0025  0.0137
24718W        W67656   6.865   8.119  27.317  0.1687 -0.1120  0.1589
24719W        W67657   7.413   9.323  30.986  0.2053  0.0452  0.1973
24720W        W67658   6.781   8.942  28.160  0.1086  0.1169  0.0806
24721W        W67659   7.522   9.095  31.562  0.2531  0.2308  0.0791
24722W        W67660   3.337   8.978  28.537  0.0155  0.0313  0.0061
24723W        W67661   6.215   6.691  25.526  0.0392  0.0473 -0.4351
24724W        W67662   5.403   8.236  31.936 -0.3826  0.0260  0.1133
24725W        W67663   7.042   8.280  29.958  0.0362  0.2431  0.0613
24726W        W67664   4.343  12.178  31.033 -0.6238 -0.1658  0.0403
24727W        W67665   6.992  11.039  28.684 -0.1336  0.0823 -0.2576
24728W        W67666   4.617   9.627  28.027 -0.0441 -0.0738  0.0984
24729W        W67667   6.180   8.747  30.746  0.0957 -0.2359 -0.2178
24730W        W67668   6.837   7.472  29.434  0.1651 -0.4512 -0.0707
24731W        W67669   6.274   9.073  27.884 -0.0892 -0.1634 -0.2173
24732W        W67670   6.857   8.563  30.385 -0.1095 -0.3308  0.1942
24733W        W67671   5.983  10.687  29.908  0.2326  0.1337 -0.0036
24734W        W67672   4.712  12.497  30.263  0.3514 -0.0337  0.1501
24735W        W67673   4.357  11.624  29.693 -0.0802  0.0365 -0.0901
24736W        W67674   3.273   7.195  27.434  0.1782  0.3852 -0.0163
24737W        W67675   7.399   8.443  27.915  0.0747  0.0252  0.0716
24738W        W67676   4.525   8.793  30.612  0.0761 -0.1967 -0.2726
24739W        W67677   7.591   8.160  29.196 -0.1927 -0.3875  0.0862
24740W        W67678   4.835   8.414  29.065  0.3428  0.0459 -0.4852
24741W        W67679   7.324   8.949  28.800 -0.2253  0.0738 -0.0959
24742W        W67680   4.958   9.481  31.118 -0.2283  0.0921 -0.0185
24743W        W67681   3.243   8.879  30.551  0.1895  0.0967 -0.2617
24744W        W67682   7.335   7.982  27.333 -0.0899  0.0168  0.0878
24745W        W67683   6.937  10.086  29.905 -0.2892 -0.0356  0.0964
24746W        W67684   6.029   7.564  27.417 -0.1902 -0.1127  0.0890
24747W        W67685   4.796  10.228  31.830  0.1283  0.3913  0.1673
24748W        W67686   4.450   8.105  29.825  0.3557 -0.1062  0.6635
24749W        W67687   4.904   7.297  28.290 -0.1024  0.2924  0.0449
24750W        W67688   4.824   8.932  28.845 -0.0381  0.0946  0.2612
24751W        W67689   5.772   8.382  31.316  0.0210  0.1624  0.2835
24752W        W67690   7.093  11.093  30.563 -0.0142 -0.1406 -0.0290
24753W        W67691   4.204   6.861  28.429  0.1539 -0.1223  0.0058
24754W        W67692   6.754   9.907  27.018  0.0275  0.0905 -0.2050
24755W        W67693   7.391   9.102  30.148  0.2154 -0.2207 -0.1962
24756W        W67694   5.215  11.247  25.134 -0.0947 -0.0946  0.1448
24757W        W67695   6.740   9.145  27.727 -0.0035 -0.0398  0.1989
24758W        W67696   7.085  11.549  29.607 -0.4705 -0.1180 -0.3286
24759W        W67697   4.211   8.388  30.806  0.1822  0.1525 -0.0284
24760W        W67698   6.698  11.679  31.164  0.1364 -0.1300 -0.2021
24761W        W67699   6.671  11.320  31.536 -0.1089 -0.0790 -0.0315
24762W        W67700   6.510   6.728  27.299  0.1226  0.1343  0.2452
24763W        W67701   2.942   7.665  29.461 -0.1170  0.0052  0.0174
24764W        W67702   4.294  10.823  27.645 -0.0658 -0.1553  0.2196
24765W        W67703   8.103   8.173  28.733 -0.1156 -0.0162 -0.0156
24766W        W67704   6.897   9.108  31.003  0.0396  0.1355 -0.1207
24767W        W67705   4.980  11.683  26.723 -0.1371 -0.0558 -0.1529
24768W        W67706   6.532   5.841  30.421  0.2867 -0.0242 -0.0208
24769W        W67707   5.341  10.130  30.735  0.0192  0.1348  0.2368
24770W        W67708   4.893  10.823  30.458 -0.0666 -0.3697  0.1318
24771W        W67709   5.347   9.974  27.563  0.0658 -0.4298 -0.1240
24772W        W67710   4.779   9.007  31.662 -0.0050 -0.0287  0.4154
24773W        W67711   5.000   9.912  28.478  0.1083  0.1408  0.3842
24774W        W67712   6.541  10.732  28.508  0.1787  0.0419  0.2259
24775W        W67713   7.165  12.156  30.320  0.2810 -0.0162 -0.1262
24776W        W67714   6.251   8.964  28.411 -0.0794  0.2763  0.1029
24777W        W67715   7.362  10.129  28.089  0.1937 -0.1265  0.0058
24778W        W67716   7.214   8.494  28.865  0.2181  0.2240 -0.6310
24779W        W67717   6.067   8.177  28.952 -0.3412  0.0569 -0.0024
24780W        W67718   5.348   7.956  28.021 -0.1332  0.1442  0.0691
24781W        W67719   5.110   9.702  29.520  0.2483  0.1180 -0.0948
24782W        W67720   5.388   9.465  27.582 -0.1315  0.2063  0.0339
24783W        W67721   4.494  10.493  24.661 -0.1567 -0.3288 -0.0068
24784W        W67722   5.338  10.089  29.726 -0.1434 -0.2987 -0.2543
24785W        W67723   5.873   6.501  31.476 -0.0765  0.0833 -0.1678
24786W        W67724   3.615   8.549  30.293 -0.3230  0.1272  0.3528
24787W        W67725   3.845   9.276  29.201 -0.0750 -0.0221 -0.1805
24788W        W67726   4.211   8.443  28.961 -0.3480  0.0772 -0.1020
24789W        W67727   7.064  10.050  27.678 -0.3633 -0.3799  0.1353
24790W        W67728   4.841   8.471  29.825 -0.0335  0.3311  0.0285
24791W        W67729   4.274   7.999  29.314 -0.1568 -0.2058 -0.4426
24792W        W67730   5.695  10.880  27.601  0.1919 -0.0982 -0.1451
24793W        W67731   5.385  10.213  28.712 -0.0811  0.0640  0.3443
24794W        W67732   5.485   9.569  26.916 -0.2525 -0.0005 -0.0055
24795W        W67733   7.658   9.916  30.448  0.0874 -0.1824  0.3417
24796W        W67734   3.619  10.386  28.191 -0.0018  0.0772 -0.2388
24797W        W67735   5.918   9.392  29.958  0.0145 -0.0939  0.1391
24798W        W67736   5.487   5.911  31.226 -0.0717  0.1976  0.2461
24799W        W67737   3.925   7.296  27.611 -0.0880 -0.0235 -0.2519
24800W        W67738   5.720   8.558  30.150  0.1948  0.1741  0.0999
24801W        W67739   5.502  10.551  27.059 -0.0835  0.0222 -0.0097
24802W        W67740   7.127   9.324  26.925  0.2556  0.1603 -0.0243
24803W        W67741   4.577  10.083  29.980  0.1524 -0.0448  0.1703
24804W        W67742   5.043  10.403  31.354  0.1385 -0.0512 -0.0972
24805W        W67743   4.115   7.799  30.040 -0.3124 -0.2492  0.0348
24806W        W67744   5.885   9.081  28.736  0.3231 -0.0042  0.2695
24807W        W67745   5.410   8.653  31.584 -0.3702 -0.0116  0.1852
24808W        W67746   6.429   9.764  27.374 -0.0583  0.1014 -0.0249
24809W        W67747   6.559   7.766  30.623 -0.3195 -0.2995  0.1339
24810W        W67748   5.423  10.064  27.050  0.2652 -0.2193 -0.0150
24811W        W67749   5.453   7.399  30.525  0.0561  0.1326 -0.1142
24812W        W67750   4.458   9.424  31.089 -0.0291  0.1663 -0.0334
24813W        W67751   6.735  11.196  29.598 -0.4128  0.0752  0.1429
24814W        W67752   4.052   7.946  28.766 -0.0319  0.3913  0.2462
24815W        W67753   6.135   8.898  29.845 -0.0289  0.0619  0.0599
24816W        W67754   5.379  10.323  26.605  0.1113  0.1388  0.0475
24817W        W67755   4.878   8.855  30.108  0.1367 -0.1217 -0.0292
24818W        W67756   6.011   8.372  28.505 -0.0105  0.1833 -0.1302
24819W        W67757   5.419   7.915  30.799  0.1555  0.1796 -0.3753
24820W        W67758   6.267  10.961  29.535  0.1275  0.0650  0.0348
24821W        W67759   5.299   9.245  30.757 -0.0788 -0.4567  0.1312
24822W        W67760   5.907   8.795  28.007  0.3052 -0.0797 -0.0892
24823W        W67761   8.992   9.158  27.108 -0.0235 -0.0190  0.2320
24824W        W67762   6.700  11.904  29.755 -0.0425  0.3127  0.0882
24825W        W67763   7.910  10.399  29.865 -0.0148  0.2940 -0.1665
24826W        W67764   6.122  11.432  29.232 -0.0704 -0.1587  0.2320
24827W        W67765   6.104   9.453  30.566  0.1331 -0.2145 -0.2897
24828W        W67766   3.898   8.073  30.561 -0.0823  0.0255  0.1144
24829W        W67767   5.323  10.197  29.191 -0.0083 -0.3300  0.1126
24830W        W67768   6.107   9.399  28.239  0.2590  0.2288 -0.0202
24831W        W67769   6.133   9.438  31.055  0.3442 -0.1670  0.2726
24832W        W67770   5.471   8.344  30.479  0.0683 -0.0385  0.2268
24833W        W67771   6.115   7.488  27.920 -0.0168  0.0281 -0.0314
24834W        W67772   3.662  11.120  31.279 -0.1727 -0.1644  0.2549
24835W        W67773   5.769  10.519  30.778 -0.2459 -0.0984  0.1171
24836W        W67774   6.448   8.269  30.652  0.2270 -0.0572 -0.0973
24837W        W67775   6.612   9.441  30.799 -0.0959 -0.4209  0.3146
24838W        W67776   3.404   8.659  31.739  0.2710  0.1242  0.1410
24839W        W67777   3.626   9.730  31.446 -0.2294 -0.1037 -0.0553
24840W        W67778   4.802   8.990  30.998 -0.1528 -0.4528 -0.1077
24841W        W67779   2.617  10.402  31.916  0.1178 -0.0991 -0.2595
24842W        W67780   6.675   8.630  30.907 -0.2409  0.0279 -0.2129
24843W        W67781   5.611   9.006  29.977 -0.0564 -0.1244 -0.2002
24844W        W67782   6.428   9.485   0.074 -0.0063  0.2540  0.3094
24845W        W67783   7.359   8.466  30.829  0.1017  0.1264  0.0614
24846W        W67784   5.683   9.146   0.445  0.0584  0.1822  0.0382
24847W        W67785   5.040   7.996  29.924  0.0044 -0.1460 -0.1024
24848W        W67786   5.355  10.235  31.716 -0.0258  0.0496  0.1414
24849W        W67787   2.955   9.442  31.862  0.0411  0.1754 -0.2921
24850W        W67788   5.001   8.602  31.289 -0.2190  0.1683  0.0557
24851W        W67789   4.031  10.671  30.301 -0.0456 -0.0192  0.0571
24852W        W67790   3.609   8.148   1.111 -0.1616  0.1678 -0.1515
24853W        W67791   5.963  10.315  31.719 -0.0436  0.0897 -0.0933
24854W        W67792   4.240   7.322  31.405  0.0222  0.2231 -0.0026
24855W        W67793   5.271   7.169  31.273 -0.3112  0.3619 -0.1373
24856W        W67794   4.947   7.595  30.512  0.0988  0.1035 -0.0925
24857W        W67795   2.074   8.877  30.726  0.1155  0.0030  0.0756
24858W        W67796   5.151   7.857   1.432  0.0034  0.0067  0.0202
24859W        W67797   5.773   7.451  31.590  0.1216  0.1459  0.2010
24860W        W67798   7.087   7.392  31.860  0.1894 -0.0251 -0.0756
24861W        W67799   6.314   7.617  31.680  0.0558 -0.1699  0.2283
24862W        W67800   5.885   8.610  31.774  0.2603  0.1031  0.2142
24863W        W67801   2.933  10.159  30.959 -0.0148 -0.2258 -0.0910
24864W        W67802   3.381   7.902  30.562 -0.1603  0.0898  0.1410
24865W        W67803   2.809   9.949  31.847  0.0142  0.1613 -0.0800
24866W        W67804   4.282   9.138  31.455 -0.2440  0.1696  0.2564
24867W        W67805   5.451   7.886  30.265 -0.1348  0.2060 -0.1272
24868W        W67806   3.969   9.442  31.090  0.1449 -0.3193 -0.0850
24869W        W67807   4.381   8.116  31.248 -0.0674  0.0765  0.0185
24870W        W67808   2.739   7.014  30.259  0.0782 -0.0498 -0.1693
24871W        W67809   5.291   8.381  30.947 -0.0833 -0.0229  0.0195
24872W        W67810   4.625  10.030  31.269  0.0665 -0.5412  0.0324
24873W        W67811   6.967   8.318  31.241  0.1932 -0.1252 -0.0923
24874W        W67812   6.071   9.499  31.580  0.0597  0.0461 -0.5000
24875W        W67813   4.661   7.662   0.501  0.2899 -0.2738  0.2174
24876W        W67814   6.801   9.795  31.621  0.2993  0.2437 -0.0054
24877W        W67815   4.359   8.771  31.876  0.1108  0.2983  0.2100
24878W        W67816   4.598   6.585   0.032  0.2031  0.0721 -0.0137
24879W        W67817   6.516  11.252  31.042 -0.1177  0.2948 -0.1867
24880W        W67818   5.673   7.216   0.149 -0.1845 -0.2882  0.1893
24881W        W67819   4.875   8.074  31.214 -0.1498  0.0740  0.1374
24882W        W67820   7.042   7.613  30.737  0.1146  0.0214 -0.0663
24883W        W67821   5.795   9.540   0.160  0.0750  0.0203 -0.2031
24884W        W67822   5.738   9.865   0.582  0.2394 -0.2276  0.2474
24885W        W67823   2.709   8.621  31.430  0.1771 -0.3331  0.0288
24886W        W67824   7.263   9.976  31.717 -0.2009  0.0353  0.1068
24887W        W67825   6.545   6.758  30.014  0.0559 -0.0944 -0.2991
24888W        W67826   5.889   7.754  30.525  0.2000  0.2025 -0.0073
24889W        W67827   3.743   8.673  30.829 -0.1873 -0.2890  0.0774
24890W        W67828   7.302   8.675  31.592 -0.2790 -0.2116  0.1898
24891W        W67829   6.272   8.624   0.076 -0.0246 -0.1831 -0.1853
24892W        W67830   6.486   9.318   0.937  0.2332  0.0526  0.2604
24893W        W67831   4.546  10.806  31.683  0.1044  0.5041  0.3664
24894W        W67832   5.755   9.888  31.500  0.0774 -0.3380 -0.0740
24895W        W67833   4.367   8.676  29.970  0.2029 -0.1480  0.2106
24896W        W67834   2.969   8.607  30.874 -0.1711  0.3676 -0.2399
24897W        W67835   4.119  10.116  30.269 -0.0326  0.0597 -0.2937
24898W        W67836   2.511   9.265  31.799 -0.0868 -0.2543 -0.2563
24899W        W67837   2.493   7.327  30.898  0.0709 -0.0252 -0.1052
24900W        W67838   7.973   9.863   0.328  0.0218 -0.1433  0.1159
24901W        W67839   7.416   9.359   0.041  0.0746  0.0091  0.2950
24902W        W67840   8.232   9.043   0.348  0.0817  0.1172  0.1692
24903W        W67841   4.566  12.918  18.279 -0.0830 -0.1047 -0.4398
24904W        W67842   4.481  11.789  16.493 -0.3063 -0.1726 -0.0120
24905W        W67843   5.680  12.072  16.655 -0.3449  0.0765 -0.0623
24906W        W67844   6.055  12.430  17.177  0.1328 -0.0348 -0.1059
24907W        W67845   3.776  11.639  18.862 -0.0458 -0.0070 -0.2794
24908W        W67846   6.826  15.384  16.814  0.0577 -0.2982 -0.1884
24909W        W67847   2.945   9.955  18.180 -0.0269 -0.0042  0.3168
24910W        W67848   6.463  14.837  18.301  0.3598 -0.0972  0.1363
24911W        W67849   7.085  14.562  19.842  0.1679 -0.0629 -0.1097
24912W        W67850   5.472  12.538  16.753  0.2091  0.1277 -0.0874
24913W        W67851   5.172  11.843  20.027 -0.1138  0.3057 -0.0459
24914W        W67852   5.144  13.326  19.677 -0.1420  0.1937  0.1077
24915W        W67853   5.550  11.072  17.684 -0.0114 -0.0820 -0.0655
24916W        W67854   3.726  11.966  17.690  0.3769 -0.1934  0.1716
24917W        W67855   6.058  12.181  18.782 -0.0690 -0.1479  0.2722
24918W        W67856   3.792  12.749  18.047 -0.0867  0.1163  0.2479
24919W        W67857   5.030  11.880  18.572  0.0789  0.0517  0.6310
24920W        W67858   5.104  10.531  18.312 -0.1358 -0.1205  0.0415
24921W        W67859   5.587  13.502  17.659  0.1142  0.5290 -0.1527
24922W        W67860   4.241  11.521  18.510  0.0090  0.1441 -0.0861
24923W        W67861   5.711  11.281  21.054  0.0291 -0.0888 -0.1144
24924W        W67862   6.415  12.388  16.753 -0.1338  0.3056  0.2725
24925W        W67863   3.863  11.201  15.369  0.1217  0.1183 -0.0273
24926W        W67864   2.847  13.023  18.293  0.1514 -0.1184  0.1847
24927W        W67865   4.762  13.785  18.413  0.2087 -0.1356 -0.0881
24928W        W67866   5.359   8.720  18.481 -0.1176  0.1389  0.0468
24929W        W67867   6.322  13.024  18.299  0.0452 -0.1852 -0.1845
24930W        W67868   4.237  14.163  19.111  0.1251  0.3264  0.1181
24931W        W67869   6.231  14.436  18.508  0.2031  0.0749  0.1907
24932W        W67870   5.479  13.423  21.505 -0.2216 -0.1785 -0.2680
24933W        W67871   2.770  13.075  17.037  0.2556  0.4929  0.0196
24934W        W67872   3.557  14.900  16.949 -0.0748 -0.2736  0.0975
24935W        W67873   5.082  14.219  18.595 -0.1370 -0.0308  0.3953
24936W        W67874   6.685  14.283  17.496  0.2690  0.0342 -0.1628
24937W        W67875   4.949  14.126  18.060  0.2187  0.1913  0.1339
24938W        W67876   4.795  14.053  20.478 -0.1799  0.0335  0.1184
24939W        W67877   4.926  13.408  15.737  0.0793  0.0711 -0.2295
24940W        W67878   5.314  13.699  19.210  0.0051 -0.2069 -0.4901
24941W        W67879   4.271  14.035  19.829 -0.0160 -0.2763  0.0667
24942W        W67880   3.504  14.175  18.787  0.2885 -0.1428 -0.0398
24943W        W67881   5.270  12.350  18.444 -0.0746 -0.1430 -0.1275
24944W        W67882   4.897  13.294  18.358 -0.0099  0.0155 -0.0552
24945W        W67883   5.216  13.707  18.044 -0.1150 -0.2316 -0.0964
24946W        W67884   4.190  13.385  19.037  0.2023  0.1337  0.0809
24947W        W67885   4.111  14.439  16.299  0.0137  0.0689 -0.0929
24948W        W67886   5.964  13.761  19.084 -0.1014  0.2552 -0.0414
24949W        W67887   4.302  14.306  16.985 -0.1711  0.0024 -0.0881
24950W        W67888   6.238  13.644  17.065  0.0723 -0.0425 -0.0665
24951W        W67889   4.480  10.938  16.072  0.0970  0.0037 -0.1270
24952W        W67890   5.955  11.891  17.056 -0.0948  0.1161 -0.1674
24953W        W67891   4.960  10.176  18.684 -0.0361  0.1639  0.7334
24954W        W67892   3.597  14.238  18.231 -0.1872 -0.1845 -0.1036
24955W        W67893   4.425  10.670  19.425 -0.3321 -0.0241 -0.0989
24956W        W67894   6.567  13.356  21.275  0.4555 -0.0129 -0.2225
24957W        W67895   5.574  12.177  17.160  0.5276  0.0698 -0.0974
24958W        W67896   5.820  12.711  19.955  0.2494 -0.1597 -0.0674
24959W        W67897   3.815  15.417  18.240  0.0412 -0.0604 -0.3184
24960W        W67898   3.219  12.821  17.179 -0.0839  0.2026 -0.0172
24961W        W67899   6.921  14.235  16.952 -0.1812 -0.0672  0.0255
24962W        W67900   6.266  15.047  19.124  0.1089  0.2452  0.2712
24963W        W67901   6.242  12.075  17.937  0.1495 -0.2936  0.0420
24964W        W67902   3.803  11.213  17.716 -0.0899  0.0983  0.0972
24965W        W67903   3.451  13.829  20.208 -0.0655 -0.1165 -0.0952
24966W        W67904   4.566  11.984  17.873  0.1104 -0.1177 -0.2370
24967W        W67905   5.321  10.580  16.718  0.1395 -0.1198 -0.1883
24968W        W67906   6.031  15.266  19.959  0.0588 -0.1430 -0.0294
24969W        W67907   2.443  14.250  19.376 -0.2969 -0.2956 -0.1848
24970W        W67908   7.249  10.818  17.290  0.0238  0.0474  0.2534
24971W        W67909   5.287  13.618  17.192  0.1919 -0.0313 -0.0760
24972W        W67910   6.089  14.610  19.424 -0.0037 -0.0862 -0.3760
24973W        W67911   5.374  13.278  15.906  0.1348  0.3211 -0.1020
24974W        W67912   6.199  10.900  18.930  0.0278 -0.0999 -0.0219
24975W        W67913   6.155  10.075  19.506 -0.0607 -0.0008  0.3004
24976W        W67914   5.004  13.767  16.767  0.1781  0.1532  0.1105
24977W        W67915   3.311  13.011  18.141  0.1655 -0.0483 -0.1427
24978W        W67916   5.616  14.447  18.543  0.1977  0.0312  0.0068
24979W        W67917   7.243  13.043  16.825  0.0337  0.2000  0.3387
24980W        W67918   3.683  14.847  19.875 -0.1179 -0.0414  0.0912
24981W        W67919   6.409  12.871  19.894 -0.0524 -0.0086 -0.0534
24982W        W67920   4.546  12.724  20.231  0.1476  0.2046 -0.2009
24983W        W67921   4.818  13.470  17.209  0.2633 -0.0343  0.1055
24984W        W67922   3.046  13.467  18.075  0.0164 -0.0596 -0.0175
24985W        W67923   3.831  13.253  18.214 -0.0317  0.0277  0.0125
24986W        W67924   4.268  13.073  19.477 -0.1718  0.2252 -0.1565
24987W        W67925   4.485  14.393  20.094 -0.2356 -0.2004 -0.1134
24988W        W67926   7.260  10.319  16.954 -0.1542  0.1101  0.3766
24989W        W67927   2.337  11.945  17.990 -0.0348 -0.1063  0.2701
24990W        W67928   7.353  11.024  18.223  0.2769  0.1997  0.3660
24991W        W67929   3.654  12.638  17.208  0.1258 -0.0186 -0.2096
24992W        W67930   7.134  14.865  17.570  0.0965 -0.0508 -0.1423
24993W        W67931   6.354  12.426  17.588  0.1667  0.1647  0.4257
24994W        W67932   5.859  12.910  16.226  0.0440 -0.1479  0.0446
24995W        W67933   4.413  13.450  18.175  0.1549  0.1813 -0.2444
24996W        W67934   3.953  12.008  18.523  0.1427 -0.1596 -0.0165
24997W        W67935   4.485  11.786  20.416  0.2709 -0.2796 -0.0832
24998W        W67936   2.797  12.501  19.202  0.1508 -0.1607 -0.1266
24999W        W67937   6.875  13.925  17.933  0.2184  0.1231  0.1387
25000W        W67938   3.060  12.903  16.121 -0.0513  0.1024 -0.1246
25001W        W67939   6.498  11.229  17.938 -0.0026 -0.1559 -0.1063
25002W        W67940   5.184  11.483  17.809  0.0171 -0.0996 -0.2908
25003W        W67941   3.281  13.606  17.553  0.0305  0.2616 -0.3383
25004W        W67942   6.052  13.147  20.112  0.2522  0.1341 -0.3196
25005W        W67943   4.379  13.868  17.393  0.1976 -0.1405 -0.0265
25006W        W67944   6.661  15.368  19.438  0.0263  0.1011  0.3247
25007W        W67945   5.661  15.101  16.486  0.0016  0.1804  0.0313
25008W        W67946   4.094  11.550  19.369 -0.3642  0.0174 -0.0987
25009W        W67947   4.035  10.928  16.843  0.1493 -0.2873  0.0227
25010W        W67948   3.669  14.880  17.496 -0.0008  0.2659 -0.0242
25011W        W67949   4.933  13.491  20.168 -0.0488 -0.0044  0.1295
25012W        W67950   4.971  12.284  17.600  0.2012 -0.2048  0.2651
25013W        W67951   6.706  15.934  19.948  0.0460 -0.0624  0.1624
25014W        W67952   5.230  11.463  18.338 -0.3891  0.2477  0.2514
25015W        W67953   3.279  13.362  18.526 -0.2760  0.0382  0.1089
25016W        W67954   5.722  12.201  20.306  0.1524 -0.0550  0.1957
25017W        W67955   5.666  13.466  18.801  0.2234 -0.0762 -0.2811
25018W        W67956   4.461  12.051  18.385 -0.0890 -0.0354 -0.1993
25019W        W67957   3.351   9.738  16.053  0.4270 -0.3196  0.2138
25020W        W67958   5.476  14.051  17.727 -0.2382 -0.5278  0.1510
25021W        W67959   3.007  14.715  16.379  0.0348 -0.0440 -0.0201
25022W        W67960   2.017  12.268  17.454  0.0163  0.0623  0.0615
25023W        W67961   4.764  14.598  18.303  0.1262  0.3164 -0.0044
25024W        W67962   6.884  11.022  18.436  0.2252 -0.0371 -0.0874
25025W        W67963   4.248  12.592  19.329 -0.0811 -0.0608 -0.2289
25026W        W67964   6.919  12.452  21.092 -0.2068  0.1194  0.2246
25027W        W67965   4.321  11.334  16.331  0.0856  0.1847 -0.1374
25028W        W67966   3.717  15.786  18.604  0.3948 -0.0065 -0.1297
25029W        W67967   5.543  10.442  18.506  0.0647  0.1149 -0.0548
25030W        W67968   7.291  11.015  16.396  0.4029  0.0485 -0.0574
25031W        W67969   5.061  12.865  20.397  0.1296  0.1899 -0.1934
25032W        W67970   5.702  12.868  18.222  0.0654  0.0659 -0.3082
25033W        W67971   4.669  11.119  17.676  0.2351  0.1162  0.1062
25034W        W67972   4.571  12.598  16.858  0.4088 -0.3172  0.1555
25035W        W67973   3.184  13.676  18.963 -0.3890  0.0650  0.0100
25036W        W67974   5.637  13.060  16.670  0.0287 -0.4229 -0.1395
25037W        W67975   4.669  14.665  21.191 -0.2757  0.2340  0.0446
25038W        W67976   4.995  12.500  16.609  0.0490 -0.2330 -0.2371
25039W        W67977   6.423  14.518  16.992  0.0120 -0.0783 -0.0356
25040W        W67978   2.631  13.464  17.710 -0.2100  0.4696 -0.1115
25041W        W67979   6.145  13.341  19.584  0.0085 -0.1790  0.2001
25042W        W67980   6.007  15.505  18.921 -0.2072 -0.0082 -0.1474
25043W        W67981   4.927  10.874  19.583 -0.1697  0.1842  0.1009
25044W        W67982   4.221  13.305  16.222  0.1656  0.0159  0.1160
25045W        W67983   3.437  10.869  17.315  0.0837 -0.1252  0.1232
25046W        W67984   3.477  14.107  16.854 -0.3092 -0.2395  0.0042
25047W        W67985   5.873  10.704  17.605  0.2657  0.1542 -0.0578
25048W        W67986   6.237  11.702  19.044 -0.1331 -0.3220 -0.1376
25049W        W67987   5.376  11.852  19.546  0.1460 -0.0544 -0.2674
25050W        W67988   5.789  14.959  19.155  0.2157  0.1496  0.0000
25051W        W67989   5.370  12.986  16.293  0.1123  0.2402 -0.2642
25052W        W67990   5.690  11.733  19.047  0.0281 -0.2384 -0.1192
25053W        W67991   3.850  11.545  15.946 -0.0021  0.2303 -0.2957
25054W        W67992   4.845  10.572  19.193 -0.0155  0.0584 -0.0430
25055W        W67993   4.670  13.855  19.038 -0.0885 -0.0172  0.0248
25056W        W67994   3.243  13.017  19.039 -0.1626 -0.1655 -0.1114
25057W        W67995   5.890  15.400  20.608  0.1411 -0.2981 -0.0014
25058W        W67996   5.312  12.533  17.945  0.0809  0.4289  0.2664
25059W        W67997   4.855  11.052  20.059  0.0214 -0.1784  0.0067
25060W        W67998   6.391  10.179  18.021 -0.3363  0.1950  0.2643
25061W        W67999   4.634  13.045  17.063 -0.4484 -0.2839 -0.0329
25062W        W68000   4.396  12.980  16.594 -0.1175 -0.1507 -0.0946
25063W        W68001   3.724  11.390  19.766 -0.0055  0.1562  0.0521
25064W        W68002   4.337  13.770  19.420 -0.0907 -0.2028  0.2854
25065W        W68003   4.827  14.448  16.792 -0.0038 -0.0388 -0.0478
25066W        W68004   5.495  14.008  18.826 -0.3280 -0.0131  0.3184
25067W        W68005   3.761  15.108  18.701 -0.3619  0.1773 -0.1710
25068W        W68006   6.168  11.439  18.213  0.2208 -0.2145 -0.0653
25069W        W68007   4.057  13.880  18.158  0.0542 -0.1179  0.0743
25070W        W68008   3.878  12.973  16.459  0.0408 -0.2221 -0.1879
25071W        W68009   3.742  12.376  16.128 -0.1362  0.0098 -0.3039
25072W        W68010   6.282  10.499  17.189 -0.0795  0.0953 -0.3370
25073W        W68011   4.413  12.764  17.398  0.0797 -0.2464  0.0394
25074W        W68012   3.677  11.230  19.296  0.3992 -0.1845 -0.0871
25075W        W68013   5.779  10.663  18.922 -0.1544 -0.1871  0.1221
25076W        W68014   3.317  14.582  18.495  0.0731 -0.1241 -0.0069
25077W        W68015   6.506  12.629  18.088  0.0014  0.0798  0.0811
25078W        W68016   6.015  11.712  16.430  0.0434  0.0516  0.0917
25079W        W68017   5.975  13.187  18.559 -0.0741 -0.1347  0.1083
25080W        W68018   4.223  12.439  20.587  0.1898 -0.1537 -0.2294
25081W        W68019   3.897  11.040  16.160 -0.1425 -0.2497 -0.0535
25082W        W68020   6.280  11.864  18.428  0.0342  0.0300 -0.2509
25083W        W68021   4.974  11.350  19.570  0.3514  0.0114  0.1728
25084W        W68022   4.431  14.195  18.248 -0.1088  0.0358 -0.3892
25085W        W68023   5.289  14.158  20.229 -0.0310 -0.0875  0.2656
25086W        W68024   4.189  12.030  16.867  0.2230  0.0503  0.1868
25087W        W68025   3.883  14.576  19.005  0.1316  0.0396  0.0574
25088W        W68026   5.244  12.095  18.986  0.0609  0.5288  0.0818
25089W        W68027   6.226  13.645  18.288 -0.0885 -0.0012  0.3529
25090W        W68028   3.631  11.721  19.403  0.0182  0.1826  0.0450
25091W        W68029   4.466   9.004  16.656 -0.2809 -0.2636 -0.1868
25092W        W68030   5.468  11.336  19.364  0.2314 -0.1121  0.0506
25093W        W68031   6.556  13.263  19.217  0.0316 -0.0207 -0.0371
25094W        W68032   4.945  12.075  19.453 -0.2631 -0.2351 -0.3338
25095W        W68033   4.950  13.806  19.530  0.1060 -0.1599  0.1228
25096W        W68034   5.309  10.388  19.082 -0.1687 -0.0348 -0.2403
25097W        W68035   7.275  12.778  17.540 -0.2274  0.1304  0.1108
25098W        W68036   5.315  13.124  19.198  0.3038 -0.0481  0.2528
25099W        W68037   3.110  12.820  16.693  0.2729 -0.0332 -0.2652
25100W        W68038   2.555  13.616  18.276 -0.1370  0.0276  0.0734
25101W        W68039   4.621  13.486  18.767 -0.2947  0.0212 -0.0987
25102W        W68040   5.676  11.586  20.360  0.1753  0.0506 -0.2765
25103W        W68041   4.116  13.528  17.803 -0.0697  0.0940 -0.0914
25104W        W68042   4.915  11.653  16.879  0.2298 -0.3295  0.4387
25105W        W68043   3.174  13.872  18.511  0.0249 -0.1537  0.0220
25106W        W68044   5.936  10.200  19.029  0.1081 -0.1093  0.0352
25107W        W68045   4.907  12.789  17.388 -0.1579 -0.4778  0.1038
25108W        W68046   5.009  10.807  17.416 -0.2949  0.0749  0.0405
25109W        W68047   6.848  12.482  20.044  0.0720 -0.0660 -0.1781
25110W        W68048   5.993  12.620  16.652  0.2784 -0.1247  0.0189
25111W        W68049   5.257  12.208  20.405 -0.1531 -0.1200 -0.2034
25112W        W68050   5.625  10.766  18.101 -0.1000 -0.1709  0.0444
25113W        W68051   5.482  14.996  18.169 -0.2199  0.1976 -0.1050
25114W        W68052   2.971  12.214  18.717 -0.5134  0.1514  0.0966
25115W        W68053   6.123  15.670  21.833 -0.1473  0.1421  0.0629
25116W        W68054   3.017  14.449  20.565 -0.2160  0.0159  0.0955
25117W        W68055   4.836  11.138  18.400 -0.1944 -0.3237 -0.2034
25118W        W68056   5.127  11.896  17.292  0.1852 -0.1119  0.1090
25119W        W68057   4.323  13.107  19.967  0.1109 -0.0929 -0.3590
25120W        W68058   6.423  13.081  17.722  0.0034  0.1785  0.2485
25121W        W68059   6.148  13.891  16.658  0.0180  0.4903  0.0393
25122W        W68060   6.666  12.379  18.448 -0.1430  0.3856  0.2339
25123W        W68061   4.250  14.626  18.105 -0.0896  0.0594  0.0369
25124W        W68062   7.669  11.390  17.945 -0.0203  0.1582 -0.0766
25125W        W68063   5.648  11.991  18.590 -0.1400 -0.0301  0.2491
25126W        W68064   5.274  13.124  17.918  0.0431  0.1001  0.2092
25127W        W68065   3.609  10.967  16.635 -0.3953  0.0729  0.0796
25128W        W68066   4.975  14.669  19.381 -0.2499 -0.0279 -0.0112
25129W        W68067   4.634  11.512  18.807 -0.0518  0.0321  0.2337
25130W        W68068   5.907  11.690  19.490 -0.1457  0.0550  0.1186
25131W        W68069   6.724  12.782  18.993 -0.0808  0.1120 -0.1380
25132W        W68070   3.912  11.176  18.696 -0.0317  0.0783 -0.1825
25133W        W68071   3.542   9.977  21.091 -0.1871  0.1299  0.0424
25134W        W68072   6.755  16.040  18.727 -0.1179  0.4234 -0.0181
25135W        W68073   5.991  12.488  15.849 -0.1223 -0.0895 -0.1264
25136W        W68074   6.605  11.649  19.589  0.3099 -0.0431  0.0437
25137W        W68075   6.292  14.108  17.238  0.1084 -0.1815  0.3861
25138W        W68076   5.135  12.835  16.935  0.0925  0.1871 -0.1401
25139W        W68077   5.606  13.504  18.310 -0.0472  0.0534 -0.0491
25140W        W68078   5.048  12.539  20.051  0.1065  0.0641  0.5301
25141W        W68079   5.164  12.049  16.769  0.0549 -0.0696  0.0382
25142W        W68080   5.956  13.490  20.514  0.2307 -0.2903 -0.1835
25143W        W68081   4.577  14.442  16.389  0.1282  0.1258  0.0126
25144W        W68082   4.438  14.613  19.089  0.0664 -0.0369  0.0877
25145W        W68083   5.299  11.242  17.320  0.2002  0.1686 -0.0284
25146W        W68084   2.883  11.604  17.507 -0.2536  0.1226  0.0654
25147W        W68085   3.451  14.709  20.274  0.2832  0.1720  0.0405
25148W        W68086   4.192  12.068  17.533  0.0277 -0.0052 -0.1583
25149W        W68087   4.689  12.108  16.773  0.0032 -0.0108 -0.2480
25150W        W68088   5.147  12.900  18.345 -0.0155  0.0908 -0.0418
25151W        W68089   6.799  13.048  20.771  0.0953  0.0528 -0.0165
25152W        W68090   5.614  10.209  17.454  0.1348 -0.1101  0.1923
25153W        W68091   6.814  13.001  20.061 -0.1904 -0.0580  0.1036
25154W        W68092   3.659  13.263  17.773  0.0315 -0.0340 -0.0513
25155W        W68093   5.357  10.074  18.171 -0.1878  0.0773 -0.0256
25156W        W68094   4.612  14.231  18.720 -0.0098  0.3328  0.2077
25157W        W68095   3.285  11.808  17.768 -0.2008 -0.1529  0.0659
25158W        W68096   4.587  14.378  19.570  0.2126  0.2524  0.3943
25159W        W68097   3.718  10.731  19.269  0.0710 -0.2078 -0.1159
25160W        W68098   5.800  12.770  19.454  0.0236 -0.0600  0.0249
25161W        W68099   4.725  12.609  18.663  0.2267 -0.0752  0.1289
25162W        W68100   5.939  13.979  18.569 -0.0525 -0.3195 -0.1124
25163W        W68101   5.616  14.554  19.875  0.2049 -0.0248  0.3393
25164W        W68102   3.513  13.207  17.293 -0.1219 -0.4497  0.0556
25165W        W68103   6.096  14.808  20.017  0.0278  0.2022 -0.2048
25166W        W68104   6.709  14.745  17.422  0.1809  0.2498  0.0448
25167W        W68105   5.023  13.805  17.570  0.2216 -0.2796  0.0032
25168W        W68106   4.396  10.793  19.974  0.3913 -0.0852  0.1920
25169W        W68107   5.370  13.272  21.966  0.2511  0.2105  0.2157
25170W        W68108   5.117  14.239  19.166  0.0083  0.0324  0.2787
25171W        W68109   4.042  10.948  18.160 -0.4067  0.0140  0.1407
25172W        W68110   5.752  12.840  17.116 -0.2343 -0.0944 -0.1186
25173W        W68111   4.090  14.512  20.472 -0.0356 -0.2205  0.1457
25174W        W68112   3.109  13.486  20.338 -0.0828  0.1884  0.0963
25175W        W68113   5.262  13.087  17.363 -0.0611 -0.1541 -0.0594
25176W        W68114   6.568  13.918  18.481 -0.3515  0.1504  0.0027
25177W        W68115   6.013  13.279  17.958  0.0347  0.2124 -0.0004
25178W        W68116   5.762  15.524  18.420  0.2816  0.1855 -0.1900
25179W        W68117   5.029  12.412  17.116 -0.3177 -0.1036 -0.1318
25180W        W68118   4.069  13.026  16.987  0.3770 -0.1495 -0.0507
25181W        W68119   3.863  14.025  16.515  0.1698 -0.3531  0.2739
25182W        W68120   5.888  14.343  16.952  0.0345 -0.1678  0.1121
25183W        W68121   3.368  14.626  17.867 -0.4059  0.1252  0.0770
25184W        W68122   6.332  14.079  18.952  0.0497 -0.1548 -0.1033
25185W        W68123   6.811  11.109  16.439 -0.2586  0.2077  0.0625
25186W        W68124   6.917  13.251  18.891 -0.3744 -0.0357 -0.0825
25187W        W68125   6.590  11.107  16.964 -0.2118 -0.1284 -0.2414
25188W        W68126   5.059  13.253  20.730 -0.2307  0.0566  0.0982
25189W        W68127   4.723  12.505  19.198 -0.3504  0.2172 -0.1869
25190W        W68128   5.546  11.642  17.025 -0.2918 -0.1158 -0.0596
25191W        W68129   3.672  13.330  18.989 -0.2088 -0.1610  0.1346
25192W        W68130   6.261  11.171  20.314  0.2702  0.1626  0.2632
25193W        W68131   2.982  14.685  20.082  0.0451 -0.2072  0.1807
25194W        W68132   8.070  13.731  17.992 -0.0418  0.0507 -0.1156
25195W        W68133   4.731  11.628  18.211  0.0550  0.0855 -0.0313
25196W        W68134   4.808  12.408  18.205 -0.2801 -0.0978 -0.0811
25197W        W68135   6.685  11.028  20.043 -0.0894  0.1254 -0.2346
25198W        W68136   5.456  12.736  15.810 -0.3620 -0.1048 -0.1018
25199W        W68137   5.873  11.300  19.051 -0.3780  0.3937 -0.4321
25200W        W68138   4.846  12.851  17.864  0.0034  0.0636  0.3257
25201W        W68139   2.954  14.299  19.495 -0.0615 -0.0849  0.0348
25202W        W68140   4.837  14.030  19.943  0.0520  0.0116  0.1177
25203W        W68141   3.470  11.361  16.885  0.0502  0.2793 -0.2511
25204W        W68142   7.372  12.308  17.869  0.0925  0.1839 -0.1914
25205W        W68143   4.743  12.115  18.917 -0.1729  0.1623  0.1434
25206W        W68144   6.513  12.693  20.433 -0.0113 -0.0930 -0.0301
25207W        W68145   5.699  13.339  17.186  0.0838 -0.3784 -0.0863
25208W        W68146   5.724  11.591  17.549  0.1122  0.0473  0.3550
25209W        W68147   5.212  14.691  18.495  0.4172 -0.2647  0.0628
25210W        W68148   4.239  12.562  18.411 -0.2594  0.1298 -0.0889
25211W        W68149   5.035  11.201  16.838 -0.1987 -0.1000 -0.3774
25212W        W68150   6.336  15.574  19.750  0.0707  0.1528 -0.0920
25213W        W68151   5.466  12.084  17.653  0.0103 -0.1041 -0.1056
25214W        W68152   5.567  15.412  19.771  0.0385 -0.0616  0.0253
25215W        W68153   3.979  12.945  17.485 -0.1527 -0.0035 -0.1153
25216W        W68154   5.895  12.366  17.710 -0.4889  0.0058 -0.0488
25217W        W68155   2.780  12.718  17.423 -0.1996  0.1771  0.1204
25218W        W68156   5.208  13.015  21.444 -0.0943 -0.0590  0.2084
25219W        W68157   5.743  14.401  20.338 -0.1507 -0.3297  0.1118
25220W        W68158   3.742  12.369  16.731 -0.1092 -0.2404  0.1465
25221W        W68159   6.703  13.782  16.891  0.1462  0.0991 -0.2502
25222W        W68160   6.099  13.192  17.365  0.0288  0.1636 -0.1756
25223W        W68161   5.015  15.809  17.017  0.1925 -0.1146  0.0562
25224W        W68162   5.414  12.584  17.389 -0.2689  0.0159 -0.2009
25225W        W68163   5.888  15.971  18.795  0.0907  0.4322 -0.2415
25226W        W68164   4.134  11.779  18.000  0.0058 -0.2049 -0.0818
25227W        W68165   5.922  14.261  18.151  0.2927  0.2351  0.0625
25228W        W68166   7.961  14.361  18.683  0.1130 -0.1310  0.0808
25229W        W68167   3.856  11.387  18.224 -0.4782 -0.0411  0.3218
25230W        W68168   4.287  11.865  19.043 -0.3343 -0.0339 -0.4247
25231W        W68169   3.068  14.027  17.251  0.0098 -0.0122  0.2964
25232W        W68170   6.677  13.422  18.448  0.0845 -0.1046  0.1478
25233W        W68171   6.576  12.020  20.943 -0.1194 -0.0716 -0.2324
25234W        W68172   4.959  15.153  16.874  0.1164 -0.4590 -0.1463
25235W        W68173   6.208  10.817  19.797 -0.2017 -0.0745 -0.0432
25236W        W68174   4.050  13.509  19.701 -0.0847  0.0167  0.0280
25237W        W68175   6.218  13.908  20.428 -0.1859 -0.1020  0.0666
25238W        W68176   4.789  11.329  17.250  0.0310 -0.3583 -0.0148
25239W        W68177   5.337  12.849  20.983  0.3659  0.3648  0.0725
25240W        W68178   5.060  11.989  18.003 -0.2863  0.1702 -0.2560
25241W        W68179   6.373  12.790  17.088 -0.0294 -0.0755 -0.0099
25242W        W68180   6.421  14.575  19.022  0.0859 -0.1373  0.5473
25243W        W68181   4.736  11.723  17.508 -0.1669  0.0379 -0.0246
25244W        W68182   7.450  14.256  18.611 -0.0325  0.1994  0.1409
25245W        W68183   5.666  11.335  18.088  0.1095  0.0841  0.0426
25246W        W68184   7.585  11.325  17.289  0.0370  0.3795 -0.2079
25247W        W68185   7.559  12.289  18.359 -0.1067 -0.0018 -0.3950
25248W        W68186   5.489  12.964  18.731 -0.2892 -0.1498 -0.0141
25249W        W68187   3.014  11.963  16.149  0.1719 -0.1117  0.2100
25250W        W68188   4.321  13.469  17.007 -0.1297  0.1982  0.1002
25251W        W68189   5.328  14.479  17.999  0.0359 -0.1040  0.0165
25252W        W68190   5.322  10.726  19.964  0.1307  0.0335 -0.0225
25253W        W68191   4.401  11.322  18.089  0.1810 -0.0114 -0.2344
25254W        W68192   4.475  11.710  17.068  0.0791 -0.3714 -0.1746
25255W        W68193   4.288  11.479  17.560  0.2178  0.2681  0.1050
25256W        W68194   7.204  13.642  17.600  0.1921 -0.1233 -0.3743
25257W        W68195   4.630  11.647  19.398 -0.1421  0.2785  0.1688
25258W        W68196   4.243  11.754  19.806  0.0821  0.0606 -0.1103
25259W        W68197   5.790  14.660  17.832 -0.2013  0.2546  0.1155
25260W        W68198   5.071  14.305  17.534  0.1294  0.4606  0.0980
25261W        W68199   4.417  10.234  18.505 -0.0285  0.0606  0.1687
25262W        W68200   5.892  13.094  21.950  0.2201  0.2596 -0.2243
25263W        W68201   4.377  12.551  17.901  0.2556  0.1132  0.2351
25264W        W68202   5.550  11.889  20.706  0.0539 -0.0418 -0.2206
25265W        W68203   4.873  10.039  19.982  0.3448 -0.0117 -0.3237
25266W        W68204   3.902  12.430  17.591  0.1071 -0.2019 -0.2326
25267W        W68205   5.592  12.453  18.857 -0.2991 -0.0982  0.1541
25268W        W68206   4.915  13.041  16.509 -0.0890 -0.0146 -0.3671
25269W        W68207   5.796  14.689  16.100 -0.1239 -0.2547  0.1193
25270W        W68208   5.448  14.725  19.437 -0.1477  0.0496 -0.1785
25271W        W68209   4.648  15.290  20.093  0.1519 -0.3597 -0.2321
25272W        W68210   2.727  11.061  19.509 -0.3200 -0.1137 -0.2595
25273W        W68211   6.103  12.771  17.878 -0.1174  0.3938  0.0482
25274W        W68212   4.310  14.675  18.621  0.0135  0.0063 -0.0501
25275W        W68213   7.586  12.844  16.552  0.1379 -0.0472 -0.0842
25276W        W68214   6.713  11.607  19.103  0.1678 -0.1615 -0.1555
25277W        W68215   6.049  12.731  18.687  0.0503  0.1847 -0.2220
25278W        W68216   3.549  10.820  18.714 -0.0733  0.2052  0.2226
25279W        W68217   2.762  13.388  19.266  0.0956  0.0442  0.0136
25280W        W68218   8.086  14.217  17.916 -0.1422 -0.1563 -0.2052
25281W        W68219   5.568  10.868  17.117  0.1287 -0.0901 -0.0508
25282W        W68220   5.404  11.682  16.456 -0.2238 -0.1308 -0.0616
25283W        W68221   4.766  14.119  17.178 -0.1872  0.1291 -0.0866
25284W        W68222   4.837  13.374  17.779 -0.0893  0.0553 -0.1295
25285W        W68223   4.117  12.508  17.113  0.0117 -0.0320  0.4297
25286W        W68224   4.950  13.109  18.838  0.0373 -0.2533  0.1320
25287W        W68225   5.867  13.821  17.998 -0.0808  0.2321  0.0561
25288W        W68226   5.632  13.247  19.557 -0.2043 -0.0988  0.1586
25289W        W68227   3.982  12.286  18.067 -0.2060 -0.0071  0.0092
25290W        W68228   6.807  12.896  16.642  0.0128  0.1170 -0.0201
25291W        W68229   5.331  15.169  19.398 -0.0330 -0.1297  0.3472
25292W        W68230   4.492  15.480  19.035  0.1134 -0.0498  0.1296
25293W        W68231   5.215  14.990  18.913  0.2117  0.2490  0.1100
25294W        W68232   8.157  13.814  19.516  0.1167  0.0662 -0.1710
25295W        W68233   4.438  10.646  18.859  0.1924 -0.0468  0.3528
25296W        W68234   4.559  12.272  17.224 -0.0198  0.1777  0.1939
25297W        W68235   4.046  14.233  18.634 -0.1204  0.0359 -0.0160
25298W        W68236   5.663  12.970  17.627  0.0499 -0.0573 -0.2670
25299W        W68237   4.903  10.765  18.766 -0.4142  0.1351  0.1592
25300W        W68238   5.337  11.064  16.429  0.1030  0.1335 -0.0495
25301W        W68239   5.006  14.522  20.067  0.1366 -0.0048 -0.0716
25302W        W68240   5.118  12.603  18.893 -0.0733 -0.1614  0.1194
25303W        W68241   5.904  12.075  21.471 -0.0984 -0.1418 -0.0099
25304W        W68242   3.794  12.604  21.193  0.1656 -0.1137 -0.3336
25305W        W68243   5.087  12.431  20.796 -0.0359 -0.1463  0.0054
25306W        W68244   7.076  13.312  20.344  0.0555 -0.3387 -0.2735
25307W        W68245   3.892  11.184  20.881 -0.2907  0.0096 -0.3351
25308W        W68246   6.896  14.387  20.754 -0.2665 -0.2632  0.0154
25309W        W68247   4.135  10.363  23.158 -0.4059 -0.1163  0.2300
25310W        W68248   5.937  13.296  23.262  0.0367  0.0748 -0.1096
25311W        W68249   7.617  15.533  24.117  0.0986 -0.0645  0.0064
25312W        W68250   4.881  12.966  19.992  0.1377 -0.0601 -0.0623
25313W        W68251   5.683  11.773  23.489  0.2010 -0.0736  0.0876
25314W        W68252   5.911  11.235  23.736  0.0825 -0.1361  0.2344
25315W        W68253   5.774   9.659  21.160  0.1077 -0.0508 -0.6504
25316W        W68254   3.078  10.725  22.263 -0.1570  0.1662 -0.4344
25317W        W68255   7.184  11.634  22.970 -0.0549 -0.1830  0.0119
25318W        W68256   4.155  13.488  20.500  0.1097  0.3413 -0.1050
25319W        W68257   5.630  11.262  22.807 -0.0053 -0.2964 -0.1957
25320W        W68258   5.072  12.047  22.365 -0.0593  0.3336 -0.0674
25321W        W68259   6.551  13.403  21.792 -0.2299 -0.2488 -0.0986
25322W        W68260   4.559  11.157  21.745  0.1695  0.2896  0.2472
25323W        W68261   5.527  11.270  23.377  0.2835  0.0932 -0.3151
25324W        W68262   6.479  14.094  20.839  0.0258 -0.2848  0.1480
25325W        W68263   4.440  11.181  19.605  0.0204 -0.2728 -0.0365
25326W        W68264   4.936  12.531  22.324  0.2042 -0.2094 -0.0406
25327W        W68265   3.826  12.414  21.655 -0.1467  0.0377  0.0191
25328W        W68266   7.102  13.293  22.452 -0.1488  0.0524 -0.1081
25329W        W68267   4.826  13.258  21.710 -0.3934  0.1210 -0.2058
25330W        W68268   5.991  14.009  20.987  0.1258 -0.0252  0.1188
25331W        W68269   5.213  14.256  23.277  0.3610 -0.1090  0.1925
25332W        W68270   6.930  12.480  23.781  0.1765 -0.1122 -0.0308
25333W        W68271   5.466  12.429  22.447 -0.2216  0.1607 -0.1480
25334W        W68272   4.115  14.587  22.153  0.0618 -0.1140 -0.0249
25335W        W68273   5.076  15.118  21.363 -0.1594  0.0185 -0.2753
25336W        W68274   7.120  13.455  20.847 -0.0980  0.1667 -0.0145
25337W        W68275   8.052  13.534  22.418 -0.2100  0.3143 -0.0390
25338W        W68276   4.786  14.578  23.420 -0.1896 -0.1872  0.2267
25339W        W68277   2.959  12.143  21.009 -0.0289  0.0637 -0.2287
25340W        W68278   5.039  13.577  24.021  0.2066  0.0598 -0.0246
25341W        W68279   4.914  13.566  24.893  0.2791  0.3290  0.0078
25342W        W68280   7.020  12.146  21.984 -0.1668 -0.3299 -0.1366
25343W        W68281   5.673  12.338  21.823  0.1077  0.0361  0.2090
25344W        W68282   3.994  13.786  20.136  0.0582  0.0108  0.1243
25345W        W68283   5.796  13.410  22.384 -0.2556  0.1437  0.1324
25346W        W68284   5.020  14.000  24.658 -0.2115 -0.0278  0.2322
25347W        W68285   4.190  13.676  22.173  0.0035  0.0414  0.0406
25348W        W68286   6.159  12.838  24.563  0.2443 -0.0615  0.0022
25349W        W68287   3.584  13.860  19.694 -0.2794 -0.1282  0.0650
25350W        W68288   7.963  12.201  21.217  0.2195 -0.1877 -0.0438
25351W        W68289   5.917  10.504  20.035 -0.0196 -0.1594  0.0425
25352W        W68290   6.657  12.496  21.810  0.2220 -0.1391 -0.0621
25353W        W68291   5.932  10.058  21.401 -0.2318 -0.1317  0.1644
25354W        W68292   5.710  15.630  22.619 -0.0222  0.3131 -0.4230
25355W        W68293   4.367  10.842  22.931  0.0791 -0.0380  0.0070
25356W        W68294   6.172  12.094  23.214  0.2126 -0.2792  0.0769
25357W        W68295   5.594  12.922  22.283  0.0104 -0.2436 -0.0786
25358W        W68296   6.174  11.610  23.519 -0.4736  0.1466  0.0271
25359W        W68297   4.945  13.370  23.400 -0.0609  0.0108  0.0769
25360W        W68298   5.023  13.496  21.204 -0.0906 -0.1641 -0.2833
25361W        W68299   6.724  14.219  20.316  0.1194  0.2575 -0.0710
25362W        W68300   7.752  14.557  23.439 -0.1537  0.1765  0.1618
25363W        W68301   6.655  15.693  20.928  0.1595 -0.2844 -0.1866
25364W        W68302   3.805  12.670  20.305  0.1898 -0.2795  0.2070
25365W        W68303   2.416  13.022  23.056  0.1020  0.4058  0.1621
25366W        W68304   3.844  12.390  23.761 -0.3140 -0.2525  0.0333
25367W        W68305   5.091  11.565  20.488  0.0294  0.0062 -0.1623
25368W        W68306   6.112  12.323  24.215  0.0971  0.1835  0.1015
25369W        W68307   3.908  14.376  23.353  0.0899 -0.0265  0.0168
25370W        W68308   6.531  10.236  20.720 -0.0387 -0.0088 -0.0578
25371W        W68309   3.815  14.176  22.250 -0.4199  0.0030  0.3196
25372W        W68310   4.379  15.011  22.144 -0.2158 -0.1511  0.0508
25373W        W68311   6.802  14.147  19.756 -0.1099  0.1051  0.0076
25374W        W68312   5.287  10.966  23.046  0.1143  0.2465 -0.0023
25375W        W68313   6.489  12.339  21.375 -0.0816  0.0880 -0.0472
25376W        W68314   3.034  11.830  20.671 -0.2007 -0.1332 -0.1522
25377W        W68315   4.602  13.775  21.894 -0.0765  0.0769  0.1082
25378W        W68316   6.116  12.576  21.682 -0.2386 -0.3043 -0.1301
25379W        W68317   6.278  13.111  20.711  0.0881  0.1665  0.0878
25380W        W68318   3.159  14.595  22.330 -0.0815 -0.0837 -0.2862
25381W        W68319   5.295  12.940  23.506  0.1209 -0.0612  0.0257
25382W        W68320   5.199  13.484  24.504 -0.0826  0.1107 -0.0002
25383W        W68321   4.681  14.547  20.594  0.3175  0.0322  0.1837
25384W        W68322   4.103  12.863  21.524  0.0231 -0.0874 -0.0442
25385W        W68323   3.495  12.337  20.728 -0.0440 -0.2882  0.1746
25386W        W68324   3.345  10.316  22.149 -0.1834  0.2018  0.1144
25387W        W68325   6.639  12.665  22.257 -0.3554  0.2921  0.4712
25388W        W68326   6.769  11.850  21.522  0.0276 -0.1397 -0.0516
25389W        W68327   4.056  11.051  23.748 -0.2119 -0.0743 -0.0308
25390W        W68328   6.824   9.303  22.546 -0.0418  0.2690  0.2483
25391W        W68329   4.521  13.745  20.225 -0.3301 -0.0869  0.0216
25392W        W68330   6.700  15.777  21.695 -0.1181  0.2478 -0.0860
25393W        W68331   6.388  10.691  20.743 -0.0185  0.1491 -0.1169
25394W        W68332   5.453  13.273  20.356 -0.2835 -0.1300 -0.1082
25395W        W68333   4.337  11.759  22.316  0.2193  0.1395 -0.0455
25396W        W68334   4.808  11.840  22.031 -0.2248  0.1554  0.1591
25397W        W68335   5.091  12.249  22.775 -0.0549  0.2383  0.0085
25398W        W68336   4.739  10.528  21.307 -0.0237  0.1479  0.0549
25399W        W68337   7.292  12.946  22.786 -0.0399  0.0318  0.1156
25400W        W68338   4.308  10.796  21.341  0.1057 -0.0450 -0.1094
25401W        W68339   5.491  13.435  20.955 -0.0058 -0.0284  0.0798
25402W        W68340   4.269  12.410  21.350  0.2442 -0.0965 -0.0309
25403W        W68341   3.990  14.532  21.623  0.1705 -0.1787 -0.0781
25404W        W68342   8.329  10.603  22.921 -0.1089  0.0057  0.1643
25405W        W68343   5.891  14.550  20.966 -0.0891 -0.1095  0.1225
25406W        W68344   7.232  15.859  23.821  0.2808  0.0576 -0.4213
25407W        W68345   6.133  12.989  22.424  0.0553  0.0217  0.3161
25408W        W68346   3.906  11.094  21.382  0.2716 -0.0749 -0.1646
25409W        W68347   4.176  11.343  20.012 -0.3020  0.1315  0.2771
25410W        W68348   5.351  15.363  21.000  0.0616 -0.3001  0.0417
25411W        W68349   5.091  13.053  22.500  0.0265  0.0754  0.1106
25412W        W68350   5.119   9.813  20.889 -0.3797  0.0644 -0.2699
25413W        W68351   7.772  13.940  21.676  0.0300  0.2276 -0.3663
25414W        W68352   6.077  13.052  21.417 -0.2608  0.0766 -0.1990
25415W        W68353   3.900  12.638  22.633 -0.1138 -0.3944  0.0964
25416W        W68354   5.058  12.439  23.232  0.0231 -0.0236 -0.0999
25417W        W68355   7.695  12.580  21.386  0.0833 -0.2433  0.0561
25418W        W68356   6.024  12.170  20.992  0.0861  0.1433  0.1648
25419W        W68357   5.199   9.552  21.393  0.0441  0.0340 -0.4336
25420W        W68358   6.139  15.167  23.834 -0.1934  0.0697 -0.0093
25421W        W68359   4.367  13.799  20.819 -0.1858  0.0771  0.0063
25422W        W68360   3.266  12.668  20.361 -0.2974  0.0944 -0.2293
25423W        W68361   5.104  13.640  21.809 -0.2883 -0.2156 -0.2631
25424W        W68362   6.310   9.712  21.955  0.1634  0.0829 -0.0301
25425W        W68363   2.069  14.115  23.491  0.0739  0.0145  0.1378
25426W        W68364   4.828  11.542  23.232 -0.0596 -0.0481 -0.1245
25427W        W68365   5.969   9.967  20.803  0.1139  0.2725  0.2684
25428W        W68366   4.727  13.999  23.974 -0.1116 -0.1176  0.0104
25429W        W68367   6.023  11.007  22.312  0.1396  0.0218 -0.0165
25430W        W68368   6.275  12.886  19.411 -0.0744 -0.0472 -0.0095
25431W        W68369   4.698  13.837  23.455  0.0555  0.2948  0.1147
25432W        W68370   6.234  14.321  20.047  0.0468  0.0573  0.1540
25433W        W68371   5.623  12.395  20.799  0.0079  0.2008  0.1106
25434W        W68372   4.509  11.305  20.396  0.1226 -0.1214 -0.0233
25435W        W68373   4.540  13.251  23.108  0.3807  0.0865  0.2830
25436W        W68374   5.296  13.572  22.444  0.2282  0.0726 -0.3728
25437W        W68375   7.146  13.979  22.389 -0.2929  0.2288 -0.1692
25438W        W68376   4.681  12.229  20.473  0.0046  0.1505  0.1572
25439W        W68377   7.251  14.197  19.472 -0.1233  0.1898 -0.4398
25440W        W68378   4.291  14.565  22.593 -0.0124 -0.0401 -0.0687
25441W        W68379   5.165  14.130  24.220 -0.0061 -0.0114 -0.2003
25442W        W68380   5.920  13.920  22.528 -0.1286  0.0173  0.0021
25443W        W68381   4.381  10.410  22.701 -0.0447 -0.0114  0.2646
25444W        W68382   5.075  12.821  21.967  0.0541  0.1268  0.0345
25445W        W68383   5.087  11.933  20.883 -0.2568  0.2031  0.3297
25446W        W68384   3.807  15.677  20.502  0.0057  0.0142  0.3203
25447W        W68385   6.355  11.176  21.895 -0.3144  0.4200  0.1193
25448W        W68386   4.014  11.311  22.910 -0.0317 -0.0889  0.0007
25449W        W68387   5.091  10.949  21.103  0.1890 -0.0951 -0.2081
25450W        W68388   7.886  12.738  24.081 -0.2095 -0.0030 -0.2012
25451W        W68389   6.156  11.657  21.154  0.1081 -0.0252 -0.2820
25452W        W68390   6.261  11.592  22.148 -0.0745 -0.0117  0.0967
25453W        W68391   4.011  12.733  19.806 -0.0499  0.1239 -0.1890
25454W        W68392   4.744  11.066  23.138  0.0052  0.2740 -0.2080
25455W        W68393   5.315  12.512  24.475  0.3051 -0.0060  0.0594
25456W        W68394   4.027  13.351  23.017  0.1741 -0.1829 -0.1733
25457W        W68395   5.952  13.995  21.695  0.1766  0.1638 -0.5758
25458W        W68396   4.672  10.761  21.968 -0.3737 -0.0081 -0.1436
25459W        W68397   4.730  10.649  24.202  0.1364 -0.2531  0.0472
25460W        W68398   6.106  10.874  21.115 -0.1382  0.2502  0.2690
25461W        W68399   3.896  14.257  19.525  0.0183  0.2037  0.4587
25462W        W68400   3.411  13.347  19.894  0.2490 -0.2429 -0.1305
25463W        W68401   4.675  11.726  21.372  0.0552 -0.2181  0.2629
25464W        W68402   5.128  13.912  22.803  0.0997 -0.2885 -0.0893
25465W        W68403   4.131  12.985  20.568  0.3796 -0.2073 -0.1060
25466W        W68404   5.887  12.644  22.682 -0.4480  0.0142  0.0289
25467W        W68405   4.801  13.025  21.174  0.0149 -0.0025  0.1214
25468W        W68406   7.042   9.176  21.707  0.0448  0.2230  0.1694
25469W        W68407   4.672  14.604  22.307  0.0687 -0.1200  0.0736
25470W        W68408   4.164  11.606  20.779 -0.0320 -0.0226 -0.1426
25471W        W68409   3.889  12.581  22.129 -0.0446 -0.0608 -0.1762
25472W        W68410   7.430  10.246  20.698 -0.1716 -0.1534  0.1527
25473W        W68411   4.588  13.767  22.441 -0.0801 -0.1369 -0.1148
25474W        W68412   3.538  11.158  22.096  0.0450  0.0664 -0.1682
25475W        W68413   5.019  10.837  21.567  0.4174 -0.1468  0.1297
25476W        W68414   2.940  14.099  22.446  0.0841  0.0413  0.4865
25477W        W68415   5.337  11.518  22.002  0.0801  0.1661  0.1732
25478W        W68416   6.735  10.618  21.132  0.0535 -0.4849  0.3457
25479W        W68417   6.482  15.219  22.448  0.6578  0.0395 -0.1532
25480W        W68418   5.208  11.766  23.719 -0.0012  0.1534 -0.2412
25481W        W68419   4.201  11.461  21.226 -0.1979  0.2949 -0.0406
25482W        W68420   7.374  11.972  22.288  0.0051  0.1751 -0.1641
25483W        W68421   5.149  11.943  23.212 -0.0626 -0.0449 -0.1922
25484W        W68422   5.568  14.207  20.781  0.1736 -0.2034  0.1315
25485W        W68423   5.244  14.853  22.599 -0.1257 -0.0612  0.0451
25486W        W68424   3.741  13.085  19.433 -0.1311 -0.0127  0.2038
25487W        W68425   5.668  13.640  22.807  0.1075  0.2051  0.0531
25488W        W68426   3.837  10.626  22.872 -0.0576 -0.3033  0.0030
25489W        W68427   5.067  11.103  21.968  0.0991 -0.0695  0.1499
25490W        W68428   5.477  11.128  21.585 -0.1577 -0.1932 -0.0657
25491W        W68429   4.187  12.279  20.060  0.0161 -0.3306  0.0660
25492W        W68430   5.002  11.502  22.364  0.2311 -0.2357 -0.2052
25493W        W68431   6.369  13.539  22.257  0.5616  0.0277 -0.5065
25494W        W68432   5.301  12.632  23.971  0.1482 -0.0842  0.1783
25495W        W68433   4.181  15.279  24.879  0.0254 -0.0967 -0.2401
25496W        W68434   5.537  10.241  20.733 -0.1659 -0.3659  0.1727
25497W        W68435   5.786  14.103  19.846 -0.1092  0.0927 -0.3529
25498W        W68436   7.144  12.088  24.003 -0.1573 -0.1476 -0.0076
25499W        W68437   4.492  11.987  20.930  0.1980  0.1900  0.2194
25500W        W68438   4.901  11.765  22.799  0.2333  0.1615  0.0040
25501W        W68439   5.410  12.698  22.843  0.1146  0.2237 -0.1432
25502W        W68440   3.584  11.396  22.534  0.1602  0.3661  0.4072
25503W        W68441   4.966  12.906  23.084 -0.2309 -0.1219  0.4278
25504W        W68442   4.442  12.143  19.471 -0.0590 -0.0157 -0.1167
25505W        W68443   3.363  14.162  23.573  0.2302  0.1582 -0.2629
25506W        W68444   6.202  12.424  20.094  0.3020 -0.2730  0.1878
25507W        W68445   4.894  12.889  19.442  0.2615 -0.1212 -0.1584
25508W        W68446   6.331  11.609  21.606 -0.2578 -0.3636  0.2748
25509W        W68447   7.271  11.421  22.341 -0.1342 -0.0638 -0.2599
25510W        W68448   5.370  13.843  19.849  0.0748  0.1823  0.0599
25511W        W68449   6.279  10.894  23.434  0.1371  0.1718 -0.1258
25512W        W68450   5.198  10.322  21.520  0.0261  0.0131 -0.1057
25513W        W68451   6.048  12.153  22.583 -0.0213  0.2465 -0.0946
25514W        W68452   2.927  11.990  23.575 -0.0748  0.1824 -0.0116
25515W        W68453   5.195  14.458  22.139  0.1991 -0.0580  0.0774
25516W        W68454   3.129  14.069  24.139  0.0417 -0.1662  0.0664
25517W        W68455   5.965  11.213  21.481  0.2825 -0.4537 -0.0088
25518W        W68456   4.851  10.547  19.967  0.1441  0.3834  0.0718
25519W        W68457   6.148  12.533  22.161 -0.1904 -0.0069  0.1125
25520W        W68458   6.649  12.406  23.297  0.0804  0.0621 -0.0249
25521W        W68459   5.661  13.796  21.320  0.0245 -0.0520 -0.0150
25522W        W68460   7.037  12.573  22.994  0.1932 -0.3054  0.0465
25523W        W68461   2.869  12.977  23.424 -0.0680  0.0175 -0.1194
25524W        W68462   5.530  10.825  21.995 -0.1865  0.0682 -0.0190
25525W        W68463   5.676  12.167  19.261  0.0330 -0.0338  0.0459
25526W        W68464   3.629  12.926  22.914  0.0778 -0.0708 -0.2584
25527W        W68465   4.038  11.057  21.875 -0.1273  0.0907  0.3102
25528W        W68466   6.657  13.196  22.308 -0.1507  0.1009  0.0900
25529W        W68467   5.135  10.548  21.968  0.0045 -0.1910 -0.4256
25530W        W68468   5.541  10.811  23.766 -0.2388 -0.0912 -0.4066
25531W        W68469   6.742  11.744  24.053  0.3017  0.4939  0.1998
25532W        W68470   3.750  12.487  23.195  0.0697  0.3980 -0.3707
25533W        W68471   3.397  11.724  23.601  0.0000  0.1713  0.1348
25534W        W68472   7.631  15.509  23.131 -0.0352  0.3426  0.1130
25535W        W68473   7.582  12.895  22.069 -0.1257 -0.1438  0.0828
25536W        W68474   7.683  10.898  22.038 -0.0268  0.0752 -0.2376
25537W        W68475   7.185  12.163  21.502  0.2792  0.1626 -0.0877
25538W        W68476   6.033  12.750  21.016  0.1268 -0.1011 -0.4500
25539W        W68477   3.096  11.230  22.449  0.1544  0.1542  0.0795
25540W        W68478   6.845  13.014  21.761  0.0149 -0.1691 -0.3427
25541W        W68479   3.813  11.866  20.036 -0.3190  0.0107 -0.1279
25542W        W68480   6.606  10.858  23.864  0.3787 -0.0221  0.1662
25543W        W68481   4.225  14.071  20.439 -0.2472 -0.2632 -0.0025
25544W        W68482   5.361  13.143  24.089 -0.1274 -0.4305  0.1692
25545W        W68483   6.570   9.985  21.135  0.1851  0.1746 -0.1982
25546W        W68484   3.585  11.745  22.143 -0.1166  0.0100 -0.2451
25547W        W68485   4.340  14.838  24.218  0.0492 -0.0320 -0.0466
25548W        W68486   3.991  12.197  20.952  0.3805 -0.0034 -0.2127
25549W        W68487   4.510  12.098  21.661  0.4151  0.0488  0.4097
25550W        W68488   5.258  13.329  22.993  0.2145 -0.0035  0.0394
25551W        W68489   6.430  12.662  23.853 -0.2829  0.0239  0.1966
25552W        W68490   4.729  10.641  20.830 -0.1248 -0.1302 -0.1089
25553W        W68491   5.674  12.298  22.956  0.0163 -0.0349  0.0044
25554W        W68492   3.022  12.956  21.549  0.3198  0.0181 -0.1340
25555W        W68493   5.148  10.471  20.965 -0.0731  0.0281  0.2638
25556W        W68494   5.781  13.887  23.734  0.0913 -0.1066 -0.1522
25557W        W68495   3.722  13.594  22.048  0.0109 -0.1587 -0.2050
25558W        W68496   5.160  13.981  21.369  0.2536 -0.0256  0.0473
25559W        W68497   5.460  11.668  22.492  0.1156 -0.0204 -0.1295
25560W        W68498   6.825  11.611  22.110  0.2995 -0.3176  0.2155
25561W        W68499   4.958  12.301  21.815 -0.3393 -0.0739  0.2211
25562W        W68500   6.615  12.806  22.738  0.1317  0.1326  0.0627
25563W        W68501   6.466  12.304  22.745 -0.2289  0.1411  0.2251
25564W        W68502   4.300  12.820  21.048  0.1002  0.0520 -0.0768
25565W        W68503   5.260  13.944  23.725  0.1328 -0.2396  0.2431
25566W        W68504   7.957  13.304  21.722  0.3926  0.1079 -0.0174
25567W        W68505   4.143  14.024  21.721 -0.1494  0.2899 -0.1335
25568W        W68506   5.259  11.491  23.011  0.2502  0.2910  0.0357
25569W        W68507   5.392  12.336  23.559  0.0263  0.1339 -0.3623
25570W        W68508   6.962  11.784  22.540  0.1708  0.0098 -0.1521
25571W        W68509   6.182  10.239  21.869 -0.3069 -0.2020  0.0658
25572W        W68510   5.585  13.759  21.946  0.1561  0.0555 -0.1986
25573W        W68511   4.309  13.766  24.147  0.0180 -0.0340  0.1565
25574W        W68512   4.032  13.747  22.631  0.1236  0.0352 -0.2121
25575W        W68513   4.655  13.757  21.341  0.0125 -0.3529 -0.1394
25576W        W68514   5.816  12.023  22.207 -0.2730 -0.1900  0.0783
25577W        W68515   5.531  12.699  20.363 -0.1692  0.1322  0.1800
25578W        W68516   7.143  15.328  23.057 -0.1866 -0.1092  0.2335
25579W        W68517   5.418  10.003  21.233 -0.2216  0.0114 -0.5550
25580W        W68518   3.868  15.256  22.718 -0.3736 -0.0451 -0.0618
25581W        W68519   4.030  14.722  19.529  0.3899  0.0788  0.0571
25582W        W68520   5.679  13.884  20.404  0.0731 -0.1443 -0.0180
25583W        W68521   3.815  14.983  21.761 -0.1944  0.1821 -0.2653
25584W        W68522   7.484  15.414  23.611 -0.0732 -0.1526 -0.1197
25585W        W68523   5.453  11.225  20.584  0.2821  0.1592 -0.2120
25586W        W68524   7.243  13.271  21.971 -0.0693 -0.0896 -0.3011
25587W        W68525   7.323  10.187  21.982  0.1933 -0.0780 -0.1292
25588W        W68526   5.883  15.590  23.155  0.0571  0.2166 -0.0832
25589W        W68527   5.928  11.753  21.815  0.0580 -0.1837 -0.0772
25590W        W68528   6.138  11.587  20.198  0.0297 -0.1366 -0.0146
25591W        W68529   4.240  12.905  22.910 -0.0555 -0.2899  0.0519
25592W        W68530   7.202  10.557  22.834  0.1034 -0.0485 -0.1397
25593W        W68531   2.833  13.592  24.707 -0.0605 -0.1666  0.0585
25594W        W68532   6.065  13.540  21.734  0.1308 -0.0059  0.4470
25595W        W68533   4.103  10.461  20.289  0.0935  0.0682  0.3096
25596W        W68534   5.315  12.019  21.946 -0.0996  0.0251  0.5611
25597W        W68535   6.037  10.310  22.986 -0.0689  0.1514  0.1282
25598W        W68536   4.665  13.423  19.747  0.1357 -0.0438 -0.2198
25599W        W68537   5.181  12.507  21.395 -0.1242  0.0023 -0.1908
25600W        W68538   5.747  14.299  21.373  0.0978  0.2794 -0.0836
25601W        W68539   4.879  13.443  22.212 -0.0124  0.0752  0.0667
25602W        W68540   4.889  13.080  23.953 -0.5109 -0.3542  0.0542
25603W        W68541   3.506  10.914  21.652  0.1689 -0.1184  0.0059
25604W        W68542   6.481  11.137  21.364 -0.1198  0.1560 -0.0207
25605W        W68543   4.564  12.670  23.217 -0.0084  0.0252  0.3719
25606W        W68544   6.507  12.014  22.301 -0.2720  0.1549  0.2645
25607W        W68545   3.589  12.850  21.577 -0.0488  0.2418 -0.0802
25608W        W68546   7.621  11.741  22.648 -0.3963  0.0122  0.0225
25609W        W68547   5.701  12.718  23.321 -0.0852  0.0966  0.3210
25610W        W68548   3.591  12.233  22.832  0.1756 -0.0246  0.1106
25611W        W68549   5.628  10.681  20.945  0.0428 -0.0456 -0.0332
25612W        W68550   6.388  11.527  24.374 -0.2705 -0.2437  0.0417
25613W        W68551   5.344  12.821  19.761 -0.2093  0.3006 -0.0358
25614W        W68552   6.826  14.945  23.420 -0.2367  0.1890  0.1138
25615W        W68553   3.905  10.588  21.585 -0.2653  0.1460 -0.1707
25616W        W68554   5.747  11.829  19.948 -0.3573 -0.0240  0.3115
25617W        W68555   4.719  12.378  21.162  0.0792 -0.3057 -0.0448
25618W        W68556   4.607  13.485  23.812 -0.0509 -0.0642  0.0269
25619W        W68557   6.159  15.150  22.912 -0.1065  0.2313 -0.0514
25620W        W68558   5.671   8.242  21.258  0.2583 -0.1072 -0.0281
25621W        W68559   5.495  14.930  20.610  0.1599 -0.4795  0.2761
25622W        W68560   8.459  11.958  22.400  0.2127 -0.0615  0.0761
25623W        W68561   4.359  14.954  20.770 -0.1323  0.2357  0.0967
25624W        W68562   8.443  11.398  22.280 -0.0414  0.0602  0.0821
25625W        W68563   6.145  14.491  22.326  0.2029 -0.1556  0.1225
25626W        W68564   3.493  11.201  23.470  0.1794  0.3023 -0.1966
25627W        W68565   7.070  13.314  21.378 -0.1255  0.2991  0.0957
25628W        W68566   8.080  13.924  22.139 -0.1471 -0.0604 -0.3696
25629W        W68567   6.092   9.557  21.518  0.0752 -0.1483  0.0709
25630W        W68568   6.296  12.128  21.842  0.2436  0.6734 -0.4964
25631W        W68569   4.435  14.491  21.787  0.2079 -0.1900  0.0169
25632W        W68570   7.586  10.833  21.338  0.1060  0.1707  0.0647
25633W        W68571   5.984  11.245  23.205  0.1846 -0.1306  0.1008
25634W        W68572   5.758  14.984  19.670  0.0261 -0.1786  0.0064
25635W        W68573   7.884  10.465  22.123 -0.0714  0.2058  0.0460
25636W        W68574   6.174  14.275  22.847  0.0264  0.0069 -0.0343
25637W        W68575   3.938  15.713  24.689 -0.0587  0.0355  0.0790
25638W        W68576   3.873  11.426  20.464  0.0568  0.2096  0.0219
25639W        W68577   4.665  12.131  23.080  0.2187 -0.0540  0.0692
25640W        W68578   4.791  14.158  23.066  0.2260 -0.0724  0.2549
25641W        W68579   4.605  13.240  20.399  0.4564  0.2181 -0.0791
25642W        W68580   6.893  14.209  21.705  0.1827  0.0830 -0.1882
25643W        W68581   6.150  10.751  21.731  0.0755 -0.1751 -0.3290
25644W        W68582   6.481  13.537  20.819 -0.3854  0.1224  0.1138
25645W        W68583   5.483  12.040  21.167 -0.1251 -0.4462  0.0418
25646W        W68584   6.953  10.128  20.461  0.0346  0.0634  0.0083
25647W        W68585   6.260   9.166  21.239  0.3767  0.0172 -0.1248
25648W        W68586   4.119  13.017  22.281 -0.0867 -0.1083 -0.0205
25649W        W68587   2.261  10.770  19.298 -0.2551 -0.0177  0.2615
25650W        W68588   3.208  12.433  21.418  0.0624  0.2252  0.2010
25651W        W68589   4.373  13.328  22.644 -0.0931 -0.1928 -0.1146
25652W        W68590   5.565   9.685  24.081 -0.1043  0.0531  0.1362
25653W        W68591   4.812  12.021  23.529  0.0070  0.0026 -0.2302
25654W        W68592   3.135  12.140  22.110  0.1575  0.1234  0.2117
25655W        W68593   5.689  10.691  21.482 -0.0820 -0.2328  0.2297
25656W        W68594   7.846  13.524  20.029 -0.0377 -0.0642 -0.3035
25657W        W68595   4.369  11.297  23.375  0.1275 -0.0096  0.0155
25658W        W68596   4.016  12.027  22.018  0.0280  0.2080  0.0864
25659W        W68597   5.713  12.541  21.286  0.0405 -0.2129  0.4547
25660W        W68598   7.839  14.056  20.704 -0.1179 -0.2954 -0.0068
25661W        W68599   6.409  12.940  21.964 -0.0327  0.0800  0.4460
25662W        W68600   7.247  14.063  23.920 -0.0190  0.0907 -0.1439
25663W        W68601   3.403  13.463  19.382 -0.2103  0.0150 -0.1168
25664W        W68602   5.159  12.149  24.040 -0.0505 -0.0563  0.1603
25665W        W68603   4.560  12.117  23.957 -0.0701  0.0959  0.3154
25666W        W68604   2.812  11.739  18.788 -0.1270  0.0411 -0.1038
25667W        W68605   6.283  11.912  24.003 -0.2671 -0.0933  0.0485
25668W        W68606   5.680  14.842  22.120 -0.0754  0.3868  0.0279
25669W        W68607   5.162  14.922  19.833 -0.0992 -0.0265  0.0573
25670W        W68608   4.319  11.625  21.721  0.0901 -0.0751 -0.0660
25671W        W68609   6.267  13.745  23.568  0.2332  0.0395  0.2537
25672W        W68610   2.722  10.652  23.906  0.1261  0.2662  0.3626
25673W        W68611   4.923  14.675  21.676 -0.1365  0.1028  0.2420
25674W        W68612   4.003  13.117  24.461  0.3056 -0.2812 -0.1830
25675W        W68613   6.469  12.412  19.660  0.2979 -0.1008  0.0429
25676W        W68614   6.017  13.342  21.058 -0.0115  0.0604  0.0109
25677W        W68615   4.670  12.740  20.719  0.2929 -0.1575  0.2529
25678W        W68616   3.961  10.979  23.277 -0.4381 -0.1174  0.3967
25679W        W68617   5.355  13.409  23.670 -0.0377 -0.1293 -0.1011
25680W        W68618   7.329  12.156  22.785 -0.0246  0.0199  0.1837
25681W        W68619   4.709  12.118  19.997 -0.1837  0.1309 -0.1360
25682W        W68620   7.349   9.839  20.272  0.1409 -0.0116  0.0839
25683W        W68621   6.581  13.404  20.335 -0.3593  0.1041 -0.0235
25684W        W68622   2.220  11.152  22.749 -0.2270 -0.1610 -0.2728
25685W        W68623   4.417  11.052  20.877 -0.0087 -0.0193  0.0078
25686W        W68624   6.164  13.033  22.897 -0.2385 -0.2084  0.1745
25687W        W68625   4.713  12.565  22.732 -0.1701  0.0718  0.1166
25688W        W68626   7.360  13.483  22.841 -0.0462 -0.3974  0.0110
25689W        W68627   4.725  12.736  21.590 -0.1472 -0.2680  0.2296
25690W        W68628   8.453  13.409  21.919 -0.0472 -0.1980 -0.0634
25691W        W68629   5.169  14.402  22.796 -0.0274  0.2044 -0.0004
25692W        W68630   6.875  14.773  22.468 -0.0035  0.1176 -0.0100
25693W        W68631   6.073  13.036  24.131 -0.0874  0.0481  0.3148
25694W        W68632   6.936  12.345  22.503 -0.2464  0.1346 -0.2120
25695W        W68633   3.722  10.680  22.038 -0.0935 -0.0645 -0.0434
25696W        W68634   5.622  12.850  21.633  0.1966  0.0496 -0.4504
25697W        W68635   4.345  13.274  21.395 -0.0517  0.1950 -0.1082
25698W        W68636   7.711  11.600  22.047 -0.0361 -0.0336 -0.0738
25699W        W68637   5.137  11.952  21.462 -0.0180  0.2139 -0.4115
25700W        W68638   5.262  11.529  21.139 -0.1427  0.1796 -0.1301
25701W        W68639   4.023  13.902  23.128 -0.1360 -0.0028  0.0338
25702W        W68640   5.693  13.133  22.815 -0.1112 -0.0890 -0.1739
25703W        W68641   3.572  14.650  27.871  0.2827  0.0871 -0.2741
25704W        W68642   4.158  13.590  24.661 -0.0393 -0.0154 -0.2697
25705W        W68643   7.657  12.123  23.523  0.0426  0.0132  0.4597
25706W        W68644   5.920  11.538  24.152  0.1088  0.0881  0.1283
25707W        W68645   3.867  11.592  24.394 -0.0074  0.0613  0.0569
25708W        W68646   6.610  14.187  24.779  0.0609  0.1355 -0.2156
25709W        W68647   4.634  10.844  26.557  0.3037 -0.1735 -0.0656
25710W        W68648   6.110  14.575  25.425  0.0899 -0.1942 -0.0742
25711W        W68649   7.405  14.829  24.944  0.3175  0.1359 -0.2579
25712W        W68650   6.833  13.265  22.871 -0.2511  0.2272  0.0500
25713W        W68651   5.924  11.415  25.713  0.3613  0.0384 -0.0395
25714W        W68652   5.841  14.445  26.773 -0.1422  0.0203  0.1955
25715W        W68653   5.070  11.279  24.639 -0.1451 -0.0568 -0.0564
25716W        W68654   4.112  10.806  26.696  0.1160 -0.2045  0.4269
25717W        W68655   7.521  13.326  26.465  0.1069 -0.1787 -0.0562
25718W        W68656   3.503  13.036  24.246  0.1685  0.1551  0.0611
25719W        W68657   6.110  11.339  25.198 -0.0632 -0.0413  0.1427
25720W        W68658   4.639  12.411  26.294 -0.3063 -0.0658 -0.0496
25721W        W68659   6.878  15.368  23.587 -0.3246 -0.0157  0.0838
25722W        W68660   3.849  12.060  27.406 -0.0039 -0.4000  0.0125
25723W        W68661   4.904  12.695  25.904 -0.0651 -0.1325 -0.0847
25724W        W68662   3.150  13.850  25.351 -0.0526  0.3094 -0.0913
25725W        W68663   4.112  12.176  22.507 -0.0139 -0.2892  0.1127
25726W        W68664   2.982  11.936  24.534  0.1172 -0.0037 -0.2685
25727W        W68665   5.025  13.716  27.673 -0.2216 -0.4623 -0.0521
25728W        W68666   5.533  10.438  23.384  0.0824 -0.1993  0.0964
25729W        W68667   6.162  11.911  25.956 -0.0473  0.1335 -0.0554
25730W        W68668   6.793  15.077  26.839 -0.0308 -0.1369 -0.1515
25731W        W68669   6.082  13.349  26.465  0.2945  0.4884  0.2421
25732W        W68670   6.579  10.822  26.225  0.3608 -0.0115  0.0878
25733W        W68671   5.216  13.025  26.183 -0.2490 -0.3285 -0.2813
25734W        W68672   4.050  14.786  24.671 -0.1042 -0.0939  0.3382
25735W        W68673   5.439  13.840  25.986  0.2022  0.1070  0.3276
25736W        W68674   6.144  14.235  24.738 -0.1622 -0.1991  0.0981
25737W        W68675   7.510  15.055  27.433 -0.1813  0.1505  0.0190
25738W        W68676   5.146  14.654  27.369 -0.0529 -0.1245  0.0928
25739W        W68677   4.244  13.787  23.633 -0.0549 -0.2169 -0.0600
25740W        W68678   5.467  14.908  28.654  0.0504  0.1706  0.0062
25741W        W68679   6.005  14.915  27.304  0.1342  0.0097 -0.0277
25742W        W68680   4.020  12.504  26.074 -0.0035  0.0991 -0.1361
25743W        W68681   4.812  14.343  25.050 -0.2802  0.0289  0.2399
25744W        W68682   5.044  16.015  23.946  0.0075  0.3108  0.0539
25745W        W68683   5.537  13.714  25.475  0.0377  0.1147 -0.1469
25746W        W68684   4.089  12.920  28.275 -0.0199 -0.2767 -0.0447
25747W        W68685   4.624  14.717  27.693 -0.1159 -0.1849 -0.0292
25748W        W68686   6.683  11.873  26.583 -0.1305  0.0714  0.4012
25749W        W68687   3.703  15.481  25.623  0.1638 -0.1651 -0.3002
25750W        W68688   7.154  10.495  21.435 -0.3060 -0.1835  0.0364
25751W        W68689   4.107  10.590  23.617  0.0422  0.1823  0.2050
25752W        W68690   5.883  12.257  23.610 -0.0236  0.1192  0.1742
25753W        W68691   4.874  12.009  26.172 -0.0660  0.2262  0.2581
25754W        W68692   6.371  14.713  23.610  0.2280 -0.1122 -0.0529
25755W        W68693   4.530  11.640  26.239  0.1430  0.0285 -0.2560
25756W        W68694   7.999  12.679  27.223  0.1674  0.0459  0.3668
25757W        W68695   4.151  12.474  24.225  0.2135 -0.0657 -0.1607
25758W        W68696   4.382  13.129  25.470 -0.2131 -0.2236  0.0552
25759W        W68697   4.406  13.346  26.497  0.0053 -0.1313  0.3058
25760W        W68698   3.346  12.285  24.387  0.3282  0.2120  0.0579
25761W        W68699   6.726  15.577  23.167  0.1251  0.1638  0.0316
25762W        W68700   5.811  14.304  24.291 -0.0828  0.0466  0.0560
25763W        W68701   6.739  14.470  23.826 -0.4352 -0.0379  0.0679
25764W        W68702   3.881  12.196  24.643 -0.0476 -0.0565  0.2808
25765W        W68703   3.141  13.379  25.631 -0.2563  0.0488  0.1064
25766W        W68704   4.655  12.358  27.949  0.1361 -0.2270  0.0469
25767W        W68705   4.335  11.688  22.972  0.1188 -0.0766 -0.0422
25768W        W68706   7.995  13.794  27.457 -0.1747  0.0450  0.2428
25769W        W68707   5.090  13.467  27.104 -0.1078  0.0811 -0.0944
25770W        W68708   5.789  10.924  24.297  0.1139 -0.1390  0.3393
25771W        W68709   5.270  12.828  25.375 -0.0777 -0.1135 -0.1291
25772W        W68710   6.276  13.860  26.685 -0.0986  0.1295 -0.0868
25773W        W68711   6.066  13.858  24.163  0.0421  0.2528  0.0589
25774W        W68712   5.797  12.695  25.577 -0.0241  0.1560  0.2407
25775W        W68713   6.512  13.491  26.239 -0.3497  0.0266 -0.2394
25776W        W68714   4.021  12.835  23.394  0.2539 -0.0551  0.3428
25777W        W68715   3.588  13.715  25.252 -0.0343  0.1939 -0.2763
25778W        W68716   6.532  12.495  25.069 -0.1073 -0.0583  0.2760
25779W        W68717   6.401  11.713  22.738 -0.3426 -0.0452 -0.1030
25780W        W68718   2.781  14.372  26.282  0.0056 -0.2604  0.0613
25781W        W68719   5.839  12.554  27.688  0.4789 -0.2347  0.0194
25782W        W68720   4.292  13.595  27.305 -0.0126  0.1326 -0.0272
25783W        W68721   3.608  15.026  24.085 -0.2014  0.0955 -0.0007
25784W        W68722   4.281  12.057  26.090 -0.3342 -0.1061  0.0334
25785W        W68723   3.692  13.785  23.468  0.1998 -0.1537  0.0315
25786W        W68724   4.090  12.249  25.105 -0.1757  0.0031  0.1320
25787W        W68725   4.437  13.285  25.948 -0.0515  0.0092 -0.2268
25788W        W68726   6.288  10.984  24.220 -0.0600 -0.1047  0.1356
25789W        W68727   3.560  10.911  26.571 -0.3716  0.1979  0.0498
25790W        W68728   7.602  11.664  25.034 -0.1080  0.0314 -0.0883
25791W        W68729   4.448  12.703  25.093  0.0526  0.0156 -0.0826
25792W        W68730   6.576  13.760  24.496 -0.1012 -0.1098 -0.0922
25793W        W68731   5.324  11.997  24.516  0.0518  0.4731  0.0454
25794W        W68732   6.442  13.353  23.169  0.2903 -0.0350 -0.2097
25795W        W68733   3.220  13.386  25.143 -0.1148  0.2477 -0.2008
25796W        W68734   3.506  13.251  24.768 -0.1076 -0.1492 -0.2615
25797W        W68735   3.713  12.672  26.486  0.0361  0.3455 -0.2569
25798W        W68736   4.519  10.989  24.537  0.1913  0.3207  0.1377
25799W        W68737   6.400  12.381  26.391 -0.1083 -0.4142 -0.0491
25800W        W68738   4.283  11.311  24.115  0.0317 -0.3107 -0.0460
25801W        W68739   5.629  11.762  25.998 -0.0209 -0.2725 -0.0571
25802W        W68740   4.752  12.710  24.747 -0.1526 -0.0631 -0.3265
25803W        W68741   3.230  12.643  24.986 -0.2267  0.1120 -0.1747
25804W        W68742   7.295  11.296  25.915  0.3304  0.1063  0.0174
25805W        W68743   6.155  14.782  24.651 -0.2044  0.2375  0.1588
25806W        W68744   7.609  13.489  25.350  0.0119  0.2904 -0.1533
25807W        W68745   7.710  15.726  25.478 -0.2170 -0.1593 -0.0038
25808W        W68746   4.163  12.516  27.376  0.0847  0.4283 -0.1752
25809W        W68747   5.670  11.088  25.332 -0.3046 -0.3353 -0.1020
25810W        W68748   2.935  13.985  25.904  0.2447 -0.0100  0.0223
25811W        W68749   5.806  14.021  25.059 -0.5261  0.2420 -0.0795
25812W        W68750   3.641  12.080  23.415  0.1185  0.1757 -0.2684
25813W        W68751   7.729  12.896  26.305 -0.0570  0.0067 -0.0826
25814W        W68752   6.008  12.560  25.160  0.1123  0.3344  0.2310
25815W        W68753   4.748  12.761  28.382 -0.0221  0.2535  0.4646
25816W        W68754   5.500  11.179  26.347  0.0431 -0.1232 -0.0629
25817W        W68755   7.839  12.213  26.993  0.0149 -0.0110  0.1746
25818W        W68756   6.114  12.296  25.575 -0.1183  0.0392 -0.3232
25819W        W68757   3.512  10.988  22.868  0.1101  0.1717 -0.0172
25820W        W68758   7.412  15.335  26.213 -0.0718  0.2205  0.0198
25821W        W68759   3.126  12.391  23.262  0.1054 -0.0564  0.0529
25822W        W68760   4.260  13.259  24.077 -0.0699  0.1541  0.0035
25823W        W68761   5.963  13.535  25.749  0.1655  0.1922 -0.0414
25824W        W68762   6.676  10.793  24.501 -0.0896 -0.3971 -0.2153
25825W        W68763   4.436  12.055  28.268 -0.1350 -0.0379  0.2397
25826W        W68764   5.752  12.269  25.872  0.0319  0.1405 -0.5211
25827W        W68765   4.252  12.371  22.897  0.0270  0.0721  0.0694
25828W        W68766   4.502  14.138  26.970  0.2780 -0.2334  0.0374
25829W        W68767   5.518  10.691  24.617  0.1001 -0.0723  0.3940
25830W        W68768   7.068  12.519  24.304  0.1974  0.0311  0.1060
25831W        W68769   6.536  13.090  27.230  0.1256  0.1279 -0.0884
25832W        W68770   5.300  14.667  24.079 -0.0437 -0.2722 -0.2868
25833W        W68771   5.496  11.362  24.000  0.0820  0.2641 -0.0397
25834W        W68772   5.173  10.492  23.085  0.2433  0.0693  0.0016
25835W        W68773   3.546  13.916  27.304  0.1209 -0.2211 -0.2448
25836W        W68774   5.903  13.570  25.183  0.0775 -0.0220 -0.0813
25837W        W68775   7.081  11.953  27.440  0.2810 -0.1347  0.0289
25838W        W68776   4.133  11.798  24.796  0.3453 -0.2729 -0.1630
25839W        W68777   6.454  13.302  24.659  0.0519  0.0371  0.0347
25840W        W68778   4.311  13.759  25.579 -0.0045  0.0601 -0.0100
25841W        W68779   6.218  13.778  27.797 -0.1760  0.2411 -0.1890
25842W        W68780   6.358  14.271  24.270  0.0230  0.1635  0.0452
25843W        W68781   4.430  10.345  26.315  0.1297  0.0261  0.0910
25844W        W68782   4.193  11.956  24.330  0.1501  0.0522 -0.1312
25845W        W68783   4.779  11.993  24.371  0.0948 -0.2199  0.2893
25846W        W68784   3.813  13.909  24.793 -0.0456 -0.1371 -0.0286
25847W        W68785   6.592  10.666  25.731  0.1457  0.2486 -0.0297
25848W        W68786   6.123  12.728  26.667 -0.0457 -0.1621 -0.0315
25849W        W68787   4.129  10.134  26.656 -0.1950  0.3194 -0.0713
25850W        W68788   6.522  12.060  27.359  0.0528 -0.1228  0.2081
25851W        W68789   6.810  13.273  24.195 -0.2866 -0.0360 -0.2371
25852W        W68790   6.533  11.121  25.299 -0.1413 -0.3775 -0.0957
25853W        W68791   3.711  13.315  22.453 -0.1308 -0.0576  0.0720
25854W        W68792   5.701  11.035  25.910  0.1904  0.0058  0.3379
25855W        W68793   3.007  11.950  25.993 -0.0324  0.0914 -0.3091
25856W        W68794   3.178  15.458  25.533  0.2719 -0.4278 -0.0651
25857W        W68795   6.385  13.028  27.731  0.0782  0.0037 -0.0336
25858W        W68796   6.441  13.778  25.799 -0.2731  0.1104  0.1536
25859W        W68797   4.225  12.554  25.489 -0.1859  0.2011  0.0536
25860W        W68798   5.623  11.152  24.827  0.2456 -0.0085  0.1000
25861W        W68799   4.820  14.733  24.136 -0.0160  0.2125  0.0988
25862W        W68800   5.984  13.790  23.172 -0.2855 -0.0448  0.0360
25863W        W68801   5.996  12.038  27.375  0.0345 -0.0722 -0.2448
25864W        W68802   6.393  11.989  25.331 -0.1188  0.1467  0.0892
25865W        W68803   5.590  14.035  24.586  0.1380  0.2139 -0.0418
25866W        W68804   5.336  12.996  27.023  0.0524 -0.1881  0.1012
25867W        W68805   4.528  14.277  24.361  0.2079 -0.1215  0.1303
25868W        W68806   7.104  10.840  25.928 -0.0351 -0.0972  0.1127
25869W        W68807   3.219  14.538  27.322  0.1215  0.1439  0.1812
25870W        W68808   4.676  13.188  24.654 -0.2273  0.2879 -0.1915
25871W        W68809   2.507  13.195  24.058 -0.1068  0.0250 -0.1909
25872W        W68810   5.804  10.805  23.198  0.0202  0.0182 -0.0028
25873W        W68811   4.870  12.504  24.192 -0.2149  0.1153 -0.2400
25874W        W68812   3.816  12.731  25.130 -0.0704 -0.0047 -0.1405
25875W        W68813   6.311  11.709  24.817  0.1925 -0.2088 -0.0609
25876W        W68814   2.481  14.299  25.302  0.1721  0.0258 -0.1456
25877W        W68815   6.400  11.342  26.575  0.2365 -0.0630 -0.0082
25878W        W68816   5.559  10.024  23.622 -0.2608  0.2087  0.3458
25879W        W68817   5.529  13.427  26.320  0.2147  0.0410  0.0838
25880W        W68818   3.811  12.305  25.638  0.0889  0.1451  0.2093
25881W        W68819   3.619  11.619  23.015  0.2761 -0.0736 -0.2979
25882W        W68820   6.461  11.173  27.069 -0.0513  0.0104 -0.2174
25883W        W68821   5.908  12.289  26.325  0.1162 -0.1308 -0.0773
25884W        W68822   3.240  14.714  25.010  0.0263  0.1817 -0.1052
25885W        W68823   6.778  13.724  26.548 -0.0401  0.0374  0.0123
25886W        W68824   3.978  11.991  23.044 -0.0886 -0.5485 -0.2768
25887W        W68825   3.966  15.952  25.135 -0.2589 -0.2305  0.0160
25888W        W68826   4.084  10.026  25.400 -0.0754  0.2239  0.2313
25889W        W68827   6.762  13.280  26.771 -0.3641  0.0233  0.3358
25890W        W68828   5.546  12.781  24.843  0.2530 -0.1364 -0.2588
25891W        W68829   4.278  10.824  24.979  0.1393 -0.2948 -0.2007
25892W        W68830   5.295  12.448  25.729 -0.0164 -0.1154  0.1968
25893W        W68831   6.552  13.467  27.570  0.0906  0.0197  0.0641
25894W        W68832   5.673  11.911  26.504  0.0286  0.1184  0.2260
25895W        W68833   4.060  14.062  27.230 -0.1527 -0.1921  0.1019
25896W        W68834   5.305  10.660  26.157 -0.1697  0.1664  0.0744
25897W        W68835   7.747  14.920  23.773  0.1684 -0.1381 -0.0086
25898W        W68836   5.535  12.379  26.633  0.0938  0.1530 -0.0467
25899W        W68837   4.173  13.504  25.156 -0.0714 -0.0016  0.1144
25900W        W68838   4.754  13.879  27.272 -0.0399  0.1884 -0.1761
25901W        W68839   5.649  14.266  25.476 -0.0912 -0.2713 -0.0644
25902W        W68840   4.317  11.328  26.761  0.0354  0.3411 -0.0443
25903W        W68841   5.414  14.075  26.861 -0.0417 -0.1025  0.0178
25904W        W68842   4.003  14.013  25.231  0.0456 -0.1909 -0.0165
25905W        W68843   4.872  13.526  26.211 -0.2398  0.0089  0.2376
25906W        W68844   7.819   9.685  24.206 -0.1382 -0.3942  0.2258
25907W        W68845   6.248  13.549  22.741 -0.2794  0.2149 -0.0120
25908W        W68846   4.608  11.868  25.725 -0.1882 -0.2300 -0.2009
25909W        W68847   7.438  12.238  24.977 -0.3873  0.0345  0.1653
25910W        W68848   6.179  12.574  23.111  0.0259  0.0184 -0.3078
25911W        W68849   6.104   9.717  26.961 -0.1231 -0.1618 -0.2926
25912W        W68850   6.052  11.653  26.889  0.3556 -0.1026  0.1822
25913W        W68851   6.244  13.775  24.880 -0.1735  0.0948 -0.4539
25914W        W68852   5.159  12.737  26.600  0.0147  0.1237 -0.2739
25915W        W68853   7.105  15.674  28.042 -0.1608 -0.0967  0.2290
25916W        W68854   4.876  12.901  27.179 -0.1083  0.0562 -0.2750
25917W        W68855   5.727  11.657  24.952 -0.1747 -0.2800 -0.1367
25918W        W68856   4.361  11.890  23.413  0.3261  0.1060 -0.0893
25919W        W68857   6.102  12.788  28.072  0.2902 -0.1094  0.1639
25920W        W68858   6.937  14.400  25.619 -0.1733  0.0191 -0.1727
25921W        W68859   4.680  13.551  24.357  0.1684 -0.0865 -0.0382
25922W        W68860   6.893  13.667  25.516  0.3422 -0.3904 -0.1683
25923W        W68861   4.600  13.644  26.843  0.3179 -0.0756  0.3885
25924W        W68862   6.080  13.123  25.376 -0.0061 -0.2658 -0.0626
25925W        W68863   5.037  12.991  24.426 -0.2052 -0.0853 -0.0348
25926W        W68864   5.334  14.366  25.040  0.1159  0.0960  0.1877
25927W        W68865   4.861  11.119  26.965  0.0232 -0.0766 -0.0373
25928W        W68866   6.368  13.532  25.379 -0.0034 -0.0808  0.2106
25929W        W68867   5.032  12.343  25.207 -0.0218  0.2481 -0.1398
25930W        W68868   5.373  11.918  26.960  0.6507  0.3112  0.0988
25931W        W68869   7.738  12.673  26.789  0.1238  0.0079 -0.1005
25932W        W68870   4.726  12.927  26.334 -0.0853 -0.0668  0.2727
25933W        W68871   4.997  10.623  26.987 -0.0552  0.2284  0.2509
25934W        W68872   6.846  14.162  27.064  0.1243 -0.1144 -0.0240
25935W        W68873   5.751  10.382  23.955 -0.0100 -0.1617 -0.0151
25936W        W68874   6.306  11.182  25.992 -0.1463 -0.1153 -0.2882
25937W        W68875   5.499  12.246  24.887 -0.0111 -0.1353  0.0788
25938W        W68876   5.693  12.432  24.070  0.0627 -0.1793  0.0009
25939W        W68877   3.500  12.326  25.245  0.1205  0.0860  0.1844
25940W        W68878   6.173  11.861  26.438  0.2123 -0.0461  0.3081
25941W        W68879   4.804  11.186  24.149 -0.0663 -0.0729  0.0763
25942W        W68880   7.265  11.008  27.796  0.1958  0.1706 -0.2066
25943W        W68881   6.092  15.215  24.338 -0.0363 -0.0089  0.0211
25944W        W68882   5.405  13.318  25.816  0.2638 -0.0647  0.2113
25945W        W68883   5.107  11.613  24.205  0.1896  0.1698  0.1183
25946W        W68884   4.715  11.726  24.936  0.1102 -0.2120  0.0487
25947W        W68885   6.032  13.318  27.521 -0.0016 -0.1496  0.1452
25948W        W68886   3.340  12.640  24.029 -0.0085 -0.1671 -0.3137
25949W        W68887   4.952  12.265  24.729 -0.1822 -0.0797  0.0735
25950W        W68888   5.860  13.107  26.016  0.1926  0.2066 -0.2170
25951W        W68889   7.259  13.129  25.430 -0.1323  0.1938  0.0327
25952W        W68890   4.321  12.407  23.595  0.0992 -0.1101 -0.0224
25953W        W68891   6.433  11.534  25.635  0.2614 -0.4646 -0.0788
25954W        W68892   3.636  13.561  22.854 -0.2932 -0.0281  0.0572
25955W        W68893   7.181  10.718  24.612  0.1257  0.2931  0.0999
25956W        W68894   4.015  14.473  25.474  0.3003  0.0564 -0.1226
25957W        W68895   3.042  14.934  26.961 -0.3482  0.0826 -0.1155
25958W        W68896   3.929  13.559  26.187  0.0209  0.0932  0.0653
25959W        W68897   5.872  11.957  24.518 -0.3467 -0.1519 -0.0185
25960W        W68898   5.978  12.096  25.026  0.1356  0.2395 -0.1995
25961W        W68899   5.475  13.691  24.935 -0.0799  0.0794 -0.1838
25962W        W68900   7.112  13.158  27.477  0.0227 -0.0004  0.0308
25963W        W68901   5.794  13.845  26.516 -0.0901  0.3810  0.0430
25964W        W68902   5.666  13.040  26.572 -0.0835 -0.0233  0.0430
25965W        W68903   6.225  14.064  28.197  0.0307  0.0574  0.1982
25966W        W68904   5.138  13.409  25.368  0.0349  0.1079 -0.1924
25967W        W68905   4.389  12.795  25.905  0.0915  0.2766 -0.1689
25968W        W68906   4.233  12.293  26.534  0.1627  0.0321  0.1069
25969W        W68907   5.683  11.687  27.267 -0.0719 -0.0513  0.2537
25970W        W68908   6.579  12.264  26.838 -0.0084 -0.1123  0.1325
25971W        W68909   5.005  10.770  23.522  0.0903  0.0428  0.0353
25972W        W68910   6.683  14.698  24.290 -0.3727  0.1210 -0.0411
25973W        W68911   4.240  16.557  28.188 -0.0104 -0.0946  0.0238
25974W        W68912   4.020  11.749  26.504  0.2492  0.1617  0.3247
25975W        W68913   4.880  15.816  24.760 -0.2275 -0.2999 -0.0273
25976W        W68914   6.936  14.244  24.254 -0.1841 -0.1944 -0.1223
25977W        W68915   5.459  13.785  23.305 -0.0569  0.0250 -0.0709
25978W        W68916   6.437  14.134  25.242  0.1649 -0.1494 -0.0124
25979W        W68917   4.585  10.963  23.754  0.0177  0.1246  0.0024
25980W        W68918   5.077  14.403  26.497 -0.0644  0.1460 -0.2876
25981W        W68919   3.052  14.471  23.749  0.0006  0.1366 -0.0248
25982W        W68920   7.880  14.748  24.851  0.0137 -0.2892 -0.2323
25983W        W68921   4.159  13.809  26.589  0.2231  0.0808  0.0736
25984W        W68922   6.814  13.721  27.955  0.2229 -0.0367 -0.1254
25985W        W68923   7.440  10.435  22.389  0.0688  0.0927  0.1203
25986W        W68924   6.459  11.185  24.733  0.2184 -0.1995 -0.2849
25987W        W68925   6.569  12.279  25.903  0.2467  0.0527  0.0318
25988W        W68926   5.118  13.220  27.729 -0.0500  0.3478  0.0715
25989W        W68927   4.661  12.342  25.667  0.0344  0.4758  0.1718
25990W        W68928   4.084   9.979  22.707  0.1743 -0.2935  0.0241
25991W        W68929   4.573  12.141  25.199 -0.0988  0.0674  0.0465
25992W        W68930   8.103  10.400  24.860  0.1821  0.1254 -0.0341
25993W        W68931   4.759  13.949  28.028 -0.1031 -0.0486 -0.1259
25994W        W68932   7.164  15.060  24.349  0.1283  0.0512  0.1701
25995W        W68933   2.952  12.473  23.725 -0.1306  0.1135  0.0874
25996W        W68934   4.547  13.973  24.898 -0.1155  0.2288 -0.3600
25997W        W68935   6.191   9.622  27.777 -0.0021 -0.1221 -0.1121
25998W        W68936   4.240  13.316  23.497  0.2378  0.1273  0.3102
25999W        W68937   5.234  11.875  25.016 -0.2627  0.0708  0.1290
26000W        W68938   5.816  14.823  23.893  0.1078 -0.1026 -0.0962
26001W        W68939   5.010  14.779  24.984 -0.0254 -0.4762  0.3003
26002W        W68940   6.060  13.874  26.094  0.1270  0.1186 -0.0163
26003W        W68941   2.518   9.775  23.574 -0.2876 -0.0804 -0.0695
26004W        W68942   6.404  12.928  26.242  0.1775 -0.1829 -0.3259
26005W        W68943   4.006  13.041  26.089  0.0053  0.1609  0.0976
26006W        W68944   5.631  12.206  25.349 -0.0704  0.2552  0.2431
26007W        W68945   5.147  13.921  25.267 -0.1288 -0.2366  0.1935
26008W        W68946   6.676  12.126  24.394 -0.0939 -0.1341  0.2564
26009W        W68947   5.824  13.212  27.071 -0.0510 -0.2266  0.2028
26010W        W68948   4.302  10.347  25.805 -0.0503  0.2565 -0.4176
26011W        W68949   5.665  14.127  22.940  0.0792 -0.1541  0.1353
26012W        W68950   6.415  13.544  28.186 -0.1380  0.2206  0.1249
26013W        W68951   4.433  12.234  24.694  0.5811  0.0348  0.2585
26014W        W68952   6.893  15.474  27.144  0.0409  0.0645  0.0319
26015W        W68953   4.547  11.093  25.498 -0.1813 -0.1305  0.0511
26016W        W68954   5.283  10.963  24.311 -0.1268 -0.3831  0.0759
26017W        W68955   3.597  13.733  26.778 -0.2275  0.0270 -0.2820
26018W        W68956   4.085  11.575  25.999  0.1511 -0.0969  0.1033
26019W        W68957   6.267  14.840  26.825 -0.1929  0.4022  0.1163
26020W        W68958   3.970  10.567  24.597 -0.3123 -0.2824  0.4507
26021W        W68959   6.384  14.756  22.646  0.1151  0.0066  0.1812
26022W        W68960   6.753  12.869  24.615 -0.0267  0.1476 -0.1359
26023W        W68961   5.845  14.338  23.347 -0.3642 -0.0237  0.0891
26024W        W68962   7.223  13.675  25.096 -0.0711  0.1244  0.0074
26025W        W68963   6.482  15.445  26.328  0.0406  0.0832 -0.2260
26026W        W68964   3.737  11.333  25.672  0.3526  0.1260 -0.1021
26027W        W68965   7.832  14.807  26.119 -0.2562  0.0788 -0.2714
26028W        W68966   6.906  13.972  25.914 -0.0710  0.0842 -0.0371
26029W        W68967   4.845  10.352  23.692 -0.0442 -0.0076 -0.1732
26030W        W68968   4.815  13.013  25.173 -0.5404 -0.1500  0.1547
26031W        W68969   5.010  13.712  25.762  0.0415 -0.0972 -0.2464
26032W        W68970   7.422  11.605  24.540  0.3165 -0.3032  0.0692
26033W        W68971   6.006  10.955  26.337 -0.0459 -0.1214 -0.1579
26034W        W68972   4.329  14.156  22.808 -0.2602 -0.0105  0.1479
26035W        W68973   7.976   9.731  27.918 -0.0300 -0.0340 -0.2727
26036W        W68974   5.471  14.740  25.331 -0.2081 -0.2068  0.0942
26037W        W68975   5.935  14.789  27.916 -0.1674  0.2523  0.1112
26038W        W68976   2.731  13.435  23.275  0.2026  0.3774  0.3270
26039W        W68977   4.661  13.276  27.458 -0.1166  0.1684 -0.0590
26040W        W68978   2.665  13.361  25.138  0.0002  0.0557 -0.1547
26041W        W68979   5.029  14.938  23.711 -0.0600  0.0733  0.0168
26042W        W68980   6.579  14.144  26.265  0.0739 -0.0796  0.1506
26043W        W68981   5.584  11.903  23.974  0.3174  0.0554 -0.3394
26044W        W68982   7.836  13.789  26.074  0.0593  0.2450 -0.3550
26045W        W68983   4.290  11.507  25.483 -0.0719 -0.1501  0.0324
26046W        W68984   5.947  10.764  24.981 -0.0764 -0.1307 -0.2454
26047W        W68985   6.336  10.229  23.838  0.1894 -0.0849 -0.0686
26048W        W68986   5.587  13.204  25.368  0.0770 -0.1961  0.2415
26049W        W68987   3.216  13.549  22.358 -0.5379  0.0518 -0.2756
26050W        W68988   4.517  13.728  22.987 -0.0486 -0.1595  0.2793
26051W        W68989   5.482  12.642  26.158 -0.0017  0.1232 -0.0653
26052W        W68990   5.868  11.272  27.831  0.2404  0.0321 -0.2517
26053W        W68991   3.612  12.018  26.073 -0.1087  0.0149  0.1980
26054W        W68992   4.219  13.113  24.897  0.1565  0.0113  0.0711
26055W        W68993   4.115  11.844  23.872 -0.1879 -0.0721  0.1833
26056W        W68994   7.916  15.227  24.494 -0.3175  0.0736  0.1247
26057W        W68995   4.577  11.222  26.005  0.3638  0.0656 -0.2936
26058W        W68996   2.807  11.185  24.852 -0.1785 -0.1139  0.0627
26059W        W68997   5.855  13.376  23.898  0.0643  0.0000  0.3032
26060W        W68998   6.720  14.987  23.911 -0.0743 -0.1936 -0.0321
26061W        W68999   4.907  11.553  25.406  0.1137  0.0167  0.0067
26062W        W69000   7.271  13.411  27.900  0.2741  0.1194  0.3481
26063W        W69001   3.297  13.149  23.848  0.0511  0.3681  0.3285
26064W        W69002   5.551  13.536  26.808 -0.0759  0.0913 -0.1432
26065W        W69003   5.046  12.233  26.618  0.0319 -0.2271 -0.2411
26066W        W69004   4.903  12.567  23.675 -0.1112  0.0785  0.1387
26067W        W69005   5.225  11.660  26.312  0.1157  0.2241  0.1115
26068W        W69006   6.483  12.995  25.034  0.0921 -0.1376 -0.1456
26069W        W69007   7.435  15.379  25.235 -0.0062  0.1175  0.0700
26070W        W69008   6.268  13.458  27.024 -0.0391  0.1895  0.5803
26071W        W69009   4.330  13.263  27.822  0.2647 -0.0921  0.2189
26072W        W69010   3.650  11.823  26.888  0.0754  0.1662 -0.1318
26073W        W69011   5.694  13.069  24.471 -0.0483  0.0815  0.2166
26074W        W69012   6.055  12.279  26.919 -0.3205  0.4311 -0.1573
26075W        W69013   5.832  13.172  24.928  0.2495 -0.0434  0.2003
26076W        W69014   6.871  11.604  24.476  0.0045 -0.1814 -0.1117
26077W        W69015   4.570  11.470  24.470  0.0314 -0.0984 -0.1370
26078W        W69016   4.393  12.015  27.499 -0.0865 -0.0791  0.0684
26079W        W69017   4.940  14.243  27.670  0.2558 -0.2636  0.0064
26080W        W69018   7.012  13.740  24.253 -0.1592  0.2621 -0.0730
26081W        W69019   4.521  12.881  24.291 -0.1538  0.2364 -0.1542
26082W        W69020   5.511  11.466  24.482 -0.0632 -0.2238 -0.2209
26083W        W69021   5.222  13.124  24.856 -0.3349 -0.0275 -0.3255
26084W        W69022   3.996  12.752  26.928 -0.1338  0.0330 -0.0445
26085W        W69023   5.766  12.925  23.760 -0.2573  0.1783  0.0652
26086W        W69024   7.018  12.526  26.763  0.1060  0.1732  0.0225
26087W        W69025   5.237  13.820  26.464 -0.0800  0.0700  0.0713
26088W        W69026   6.626  12.800  26.699  0.2065  0.4063  0.1972
26089W        W69027   3.077  11.334  22.941  0.3250 -0.0089 -0.0173
26090W        W69028   6.706  13.454  23.599  0.0235 -0.0052 -0.3934
26091W        W69029   5.556  14.399  27.252 -0.1403 -0.2230 -0.2093
26092W        W69030   7.647  14.511  26.563 -0.2260 -0.3344 -0.0649
26093W        W69031   6.114  12.834  27.360 -0.2011 -0.0009  0.1190
26094W        W69032   6.723  13.682  24.996 -0.2551  0.2470  0.5775
26095W        W69033   4.343   9.515  25.449  0.0500 -0.1255 -0.0316
26096W        W69034   3.198  11.905  23.108  0.0350  0.1762  0.0835
26097W        W69035   4.713  13.639  25.337  0.0294 -0.1746  0.2018
26098W        W69036   6.358  12.687  25.487  0.0995  0.0695  0.0599
26099W        W69037   4.858  13.189  25.703  0.2268 -0.0579 -0.0687
26100W        W69038   5.293  10.518  24.057 -0.3579 -0.0794  0.0927
26101W        W69039   4.721  14.052  25.559  0.1019  0.1574  0.1654
26102W        W69040   6.915  14.076  25.251  0.1843  0.0412 -0.0399
26103W        W69041   5.581  11.688  31.115 -0.0183  0.0426  0.0605
26104W        W69042   3.809  12.540  28.687  0.0527  0.0685 -0.1029
26105W        W69043   7.056  13.124  26.344  0.1080 -0.2848 -0.0258
26106W        W69044   7.205  11.942  28.531  0.0315  0.2312 -0.1605
26107W        W69045   5.429  11.057  27.986  0.0442  0.0586  0.1820
26108W        W69046   6.686  12.938  29.216 -0.2612 -0.0094  0.2119
26109W        W69047   4.255  11.620  30.673  0.0372 -0.2627  0.1065
26110W        W69048   5.986  14.814  29.301  0.1804  0.1678 -0.3631
26111W        W69049   7.771  14.262  29.822  0.0358 -0.2686  0.1060
26112W        W69050   5.957  11.451  26.245 -0.0204 -0.0647  0.3357
26113W        W69051   4.354  12.109  30.494  0.1096  0.0460  0.0210
26114W        W69052   4.613  14.054  29.871  0.0648  0.1268  0.0118
26115W        W69053   5.680  10.384  27.516  0.1048  0.2491 -0.0884
26116W        W69054   2.034  11.325  29.888 -0.2309  0.4680 -0.0506
26117W        W69055   7.966  13.448  29.801 -0.0612  0.0111 -0.1058
26118W        W69056   4.542  11.631  27.802 -0.1989  0.1664 -0.2361
26119W        W69057   4.881  11.458  29.671 -0.0272 -0.0590 -0.3864
26120W        W69058   4.782  13.226  28.183 -0.3683  0.1423  0.1526
26121W        W69059   7.501  12.857  27.501 -0.0308  0.3059 -0.0316
26122W        W69060   6.077  11.362  30.495 -0.1267  0.0401  0.1056
26123W        W69061   4.067  12.068  29.523  0.0681 -0.0717 -0.3704
26124W        W69062   6.483  13.312  28.884  0.1416 -0.0190 -0.1726
26125W        W69063   3.977  13.481  26.979 -0.0886 -0.1438 -0.1165
26126W        W69064   3.924  11.326   0.298 -0.1041 -0.1374  0.1082
26127W        W69065   5.096  11.356  30.902  0.2153 -0.1161 -0.0545
26128W        W69066   7.827  11.902  28.483  0.2389 -0.4824  0.0533
26129W        W69067   7.233  13.472  28.451 -0.1891  0.3558  0.1249
26130W        W69068   4.850  13.892  28.947 -0.0199  0.0938 -0.2532
26131W        W69069   7.020  13.965  29.154 -0.3339 -0.1749  0.1852
26132W        W69070   8.470  12.366  30.489 -0.0107 -0.1142 -0.0027
26133W        W69071   4.500  14.338  30.357 -0.0168  0.0650  0.1568
26134W        W69072   3.622  13.952  30.178 -0.0546  0.0564 -0.0589
26135W        W69073   5.428  14.817  28.151  0.0484 -0.2965 -0.0134
26136W        W69074   7.551  13.776  29.054 -0.1220  0.1063 -0.1576
26137W        W69075   6.403  14.452  30.627  0.1929  0.2395  0.1770
26138W        W69076   5.466  13.300  30.046  0.0625  0.1180 -0.4368
26139W        W69077   6.055  14.976  28.858 -0.3568 -0.1124  0.1547
26140W        W69078   6.644  13.649  31.054  0.1666 -0.1247 -0.3430
26141W        W69079   5.721  13.694  30.728 -0.0367 -0.4130 -0.3033
26142W        W69080   6.323  13.718  28.707  0.3136  0.3222  0.1875
26143W        W69081   6.138  12.939  29.416 -0.1584 -0.1171 -0.1059
26144W        W69082   5.539  13.365  28.612 -0.1093  0.1111 -0.0706
26145W        W69083   6.107  14.372  29.704 -0.2553  0.0336  0.0310
26146W        W69084   4.677  14.325   0.565 -0.2704  0.1213  0.2309
26147W        W69085   4.771  13.543  29.957  0.0623 -0.1069  0.3287
26148W        W69086   8.272  10.418  31.164 -0.2622 -0.4393 -0.1388
26149W        W69087   5.398  15.799  28.764 -0.1513 -0.1092  0.3107
26150W        W69088   5.956  10.721  27.237  0.1391  0.2739  0.0178
26151W        W69089   6.484  12.234  28.256 -0.3616 -0.0057  0.0833
26152W        W69090   7.232  11.733  26.568 -0.1173 -0.0735 -0.0080
26153W        W69091   5.351  11.870  29.813  0.1653 -0.2249 -0.1839
26154W        W69092   4.573  14.452  29.063  0.0307  0.3648 -0.4538
26155W        W69093   5.777  11.635  29.598  0.1031  0.2605 -0.0021
26156W        W69094   5.939  12.427  29.221 -0.2350 -0.1381  0.1435
26157W        W69095   6.662  11.718  29.313  0.0459  0.1711 -0.0236
26158W        W69096   5.680  12.320  28.800  0.1402 -0.1089 -0.2461
26159W        W69097   5.099  13.518  30.417  0.0126  0.1568 -0.0391
26160W        W69098   3.173  13.308  27.980  0.0453  0.0637 -0.1294
26161W        W69099   6.998  14.464  27.481  0.2431 -0.0258 -0.1589
26162W        W69100   7.428  12.164  28.967 -0.1632  0.2935 -0.0863
26163W        W69101   7.807  16.037  26.832  0.1570  0.0590  0.1435
26164W        W69102   5.052  13.501  28.638 -0.4474  0.2664  0.2127
26165W        W69103   4.130  12.933  31.739 -0.1499  0.1029 -0.1900
26166W        W69104   5.561  10.617   0.025  0.3864  0.0308 -0.1804
26167W        W69105   5.136  11.488  27.989 -0.0677  0.0355 -0.3212
26168W        W69106   5.989  12.474  30.004  0.0178  0.2464  0.1340
26169W        W69107   4.490  13.470  31.142 -0.0231  0.1638  0.0436
26170W        W69108   6.669  10.413  26.536 -0.0566  0.0468  0.0282
26171W        W69109   5.818  12.171  29.634 -0.1351 -0.1223 -0.0179
26172W        W69110   6.153  13.988  30.704 -0.0675  0.1565 -0.3633
26173W        W69111   7.311  12.807  28.377 -0.0459 -0.4696  0.2622
26174W        W69112   8.591  12.057  29.637  0.3607  0.2056  0.1204
26175W        W69113   4.385  11.779  31.373 -0.2553 -0.0519  0.0295
26176W        W69114   5.184  12.481  27.076 -0.3656 -0.2370 -0.1146
26177W        W69115   5.675  13.529  27.826 -0.3021  0.1756 -0.1720
26178W        W69116   6.867  13.113  30.291  0.0325 -0.3219  0.2510
26179W        W69117   5.821  13.676  28.872 -0.3604  0.3583  0.1071
26180W        W69118   4.243  14.318  31.632 -0.1921 -0.0915 -0.1640
26181W        W69119   5.726  12.050  30.127  0.1332  0.0048 -0.1874
26182W        W69120   5.810  13.654   0.075  0.2851 -0.1520  0.2154
26183W        W69121   4.814  15.708  28.562 -0.3507  0.3101 -0.1645
26184W        W69122   4.943  12.082  29.575  0.1705 -0.1836  0.2262
26185W        W69123   5.394  14.413  28.535  0.0821 -0.3539  0.2702
26186W        W69124   4.470  12.189  29.274  0.1658  0.0356  0.0809
26187W        W69125   6.161  12.384  31.235 -0.0350  0.2197 -0.1100
26188W        W69126   6.471  10.644  29.934 -0.1496  0.1530 -0.1541
26189W        W69127   4.016  10.788  31.130 -0.1183  0.1270  0.3693
26190W        W69128   6.647  11.751  28.293  0.3397 -0.0434 -0.2217
26191W        W69129   4.297  14.456  28.576 -0.1316  0.0116 -0.1554
26192W        W69130   7.280  14.437  28.967 -0.0121  0.2650 -0.1074
26193W        W69131   6.805  13.230  27.955 -0.2116  0.3430 -0.0787
26194W        W69132   6.524  14.277  27.410  0.0348 -0.1489 -0.0590
26195W        W69133   3.559  13.035  28.954 -0.1101  0.2139  0.1259
26196W        W69134   3.514  12.325  29.124 -0.3093  0.2498 -0.2186
26197W        W69135   5.071  11.367  30.373 -0.2600 -0.0741 -0.2579
26198W        W69136   3.927  11.172  30.351 -0.2560  0.0585  0.0134
26199W        W69137   6.151  11.928  30.376  0.1604 -0.4232 -0.0087
26200W        W69138   3.815   8.666  29.281 -0.1046  0.0228  0.2078
26201W        W69139   7.691  12.906  29.110 -0.2993 -0.1169 -0.0661
26202W        W69140   4.685  14.186  28.522 -0.0430 -0.0412  0.2189
26203W        W69141   4.346  11.687  28.720  0.1241  0.0527 -0.0374
26204W        W69142   5.908  11.984  31.383 -0.1141  0.0045  0.0397
26205W        W69143   6.370  15.261  29.609  0.1649 -0.1515  0.1039
26206W        W69144   6.698  13.930  30.421 -0.0544  0.0073  0.2033
26207W        W69145   7.433  13.915  27.720 -0.0240  0.1321  0.1242
26208W        W69146   5.992  10.016  31.013 -0.1633  0.4282 -0.0749
26209W        W69147   4.160  11.224  29.416  0.2175  0.1435  0.0232
26210W        W69148   3.953  14.887  28.598 -0.0989  0.1656 -0.1834
26211W        W69149   5.803  13.810  28.239  0.1657 -0.4210 -0.0447
26212W        W69150   4.965  10.902  28.244 -0.4268  0.0452 -0.1958
26213W        W69151   9.357  13.641  28.689  0.2568  0.3583  0.1895
26214W        W69152   5.656  13.039  27.608  0.0376 -0.1380 -0.2417
26215W        W69153   4.328  14.374  29.605  0.0157  0.2411  0.2235
26216W        W69154   6.018  11.217   0.074 -0.1786 -0.1868  0.2359
26217W        W69155   7.794  10.609  30.663 -0.2339 -0.0408  0.1449
26218W        W69156   6.531  11.677  27.030  0.0050 -0.0551  0.0667
26219W        W69157   4.001  12.103  28.499  0.1925 -0.3020 -0.0431
26220W        W69158   6.696  14.538  26.602 -0.0117  0.4542  0.1214
26221W        W69159   3.857  14.532  29.461  0.3035  0.2455 -0.2434
26222W        W69160   3.448  13.726  27.955  0.0345  0.0019  0.1769
26223W        W69161   5.035  12.847  29.270 -0.4113  0.1920 -0.1944
26224W        W69162   7.070  12.573  28.972  0.0336 -0.1957  0.0635
26225W        W69163   3.959  11.026   0.891 -0.0954  0.3560 -0.1756
26226W        W69164   6.297  12.474  30.445 -0.3529 -0.0049 -0.2503
26227W        W69165   4.502  11.117  29.722  0.0216 -0.3088 -0.0578
26228W        W69166   3.797  13.898   0.739  0.1866  0.0908 -0.1102
26229W        W69167   5.242  11.718  29.306 -0.2333  0.0599 -0.0822
26230W        W69168   7.023  11.463  28.270 -0.2460 -0.0907 -0.0108
26231W        W69169   6.636  12.120  30.601  0.1662 -0.1626 -0.0619
26232W        W69170   6.785  13.298  28.510  0.0819 -0.1227 -0.0432
26233W        W69171   4.940  12.001  27.161  0.0102  0.1193 -0.0408
26234W        W69172   5.569  11.321  29.243  0.1636 -0.2118 -0.1292
26235W        W69173   4.976  12.455  31.247 -0.0640 -0.2227 -0.0079
26236W        W69174   5.419  13.994  29.521  0.0210  0.1247  0.1386
26237W        W69175   5.119  12.802  30.134  0.3102  0.2207  0.1383
26238W        W69176   4.606  12.007  26.625  0.0406 -0.3766  0.1009
26239W        W69177   7.855  13.155  27.729  0.0744  0.1109  0.3073
26240W        W69178   4.877  12.739  30.692 -0.2112 -0.0884  0.2244
26241W        W69179   5.363  12.377   0.516  0.1345 -0.0065  0.1448
26242W        W69180   5.469  13.430  29.559 -0.1912 -0.0993 -0.2649
26243W        W69181   5.795  11.441  31.620 -0.2722  0.2264 -0.0139
26244W        W69182   6.770  12.237  27.788 -0.0074  0.0683 -0.0460
26245W        W69183   5.727  11.783  27.742 -0.0284  0.0194  0.2167
26246W        W69184   1.224  14.814  29.350 -0.1504 -0.2391 -0.0631
26247W        W69185   6.934  12.068  29.119  0.4324 -0.0177  0.2866
26248W        W69186   6.553  13.737  29.160 -0.3770  0.0218  0.0365
26249W        W69187   5.430  12.731  31.890 -0.2990 -0.0354  0.0636
26250W        W69188   7.214  11.846  31.065  0.1651 -0.0299  0.2856
26251W        W69189   5.243  13.542  28.136  0.1821  0.1561  0.2524
26252W        W69190   5.199  12.105  28.860 -0.0498 -0.1658 -0.0438
26253W        W69191   4.538  12.624  26.869 -0.0432 -0.0692 -0.2328
26254W        W69192   5.899  10.751  31.240 -0.2253 -0.1923  0.2681
26255W        W69193   4.005  13.205  30.878 -0.0485 -0.1910  0.3122
26256W        W69194   4.788  13.722  30.804 -0.0020 -0.0020  0.1886
26257W        W69195   6.576  13.127  31.010 -0.0225  0.2350  0.2802
26258W        W69196   6.672  12.706  28.698  0.0011  0.0421  0.0595
26259W        W69197   5.430  10.741  31.552  0.0750 -0.3231 -0.0730
26260W        W69198   5.953  12.128  28.071  0.0742  0.0117  0.2054
26261W        W69199   5.363  14.002  27.938  0.2444  0.0273 -0.0729
26262W        W69200   3.958  13.612  28.190 -0.3344  0.6008 -0.0152
26263W        W69201   7.291  10.316  28.925 -0.0548 -0.3201 -0.1790
26264W        W69202   5.154  13.816  29.927  0.0742 -0.0325  0.4471
26265W        W69203   5.524  14.555  27.766  0.1174  0.1126 -0.1183
26266W        W69204   5.995  13.541  30.135 -0.2492 -0.0788 -0.1516
26267W        W69205   4.683  14.833  28.215  0.1815  0.1081 -0.0565
26268W        W69206   7.632  11.669  29.759 -0.0579  0.1926 -0.2102
26269W        W69207   4.090  13.210  29.920  0.1407  0.1254  0.0362
26270W        W69208   4.296  12.726  27.784  0.0597  0.2334  0.3422
26271W        W69209   4.589  13.698  28.453  0.2236 -0.0248 -0.3048
26272W        W69210   6.259  12.845  28.951  0.1745 -0.0729 -0.2644
26273W        W69211   7.191  13.975  28.662 -0.0605  0.1366 -0.2074
26274W        W69212   5.356  10.716  31.006  0.0709  0.0421 -0.1520
26275W        W69213   5.834  11.403  28.691  0.1760 -0.1821  0.0275
26276W        W69214   3.296  15.260  31.012 -0.1508  0.5015 -0.1464
26277W        W69215   6.316  13.055  29.936 -0.0853  0.2326 -0.0944
26278W        W69216   7.351  10.879  28.238  0.0421 -0.0505 -0.4170
26279W        W69217   8.277  13.626  29.463 -0.0072 -0.0215  0.2252
26280W        W69218   4.893  11.770  31.527  0.1017 -0.2865  0.0572
26281W        W69219   4.812  12.816  27.703  0.0054 -0.0507  0.0488
26282W        W69220   7.957  12.324  30.962 -0.0512 -0.2046  0.1324
26283W        W69221   5.470  12.671  29.104 -0.3066 -0.1893  0.0909
26284W        W69222   5.887  15.756  29.533  0.0718  0.0903 -0.1744
26285W        W69223   5.039  13.636  29.448  0.1029  0.0427  0.0665
26286W        W69224   6.917  12.420  27.248  0.0710  0.2441 -0.3882
26287W        W69225   5.164  15.114  29.530 -0.1300 -0.2426  0.3429
26288W        W69226   5.835  12.337  30.583  0.1183 -0.1715 -0.1105
26289W        W69227   6.480  11.666  30.190 -0.1758 -0.1508 -0.2807
26290W        W69228   4.886  12.270  28.441  0.0557  0.2768 -0.1572
26291W        W69229   3.996  12.217  29.049  0.2970 -0.0391  0.2348
26292W        W69230   5.415  12.417  29.869 -0.1466 -0.1207 -0.1674
26293W        W69231   7.567  12.815  30.454 -0.0220 -0.3919  0.1269
26294W        W69232   6.196  11.976  29.911 -0.2305  0.0147  0.2321
26295W        W69233   3.967  13.666   0.216  0.0113  0.0078 -0.2473
26296W        W69234   5.903  11.920  28.554 -0.1536  0.0705  0.1335
26297W        W69235   6.965  13.536  28.907  0.3676 -0.0920 -0.0044
26298W        W69236   8.522  12.376  30.998  0.0950  0.2074 -0.0584
26299W        W69237   3.841  14.108  27.734  0.0087  0.0088 -0.0522
26300W        W69238   2.595  12.949  29.259 -0.1286  0.0766  0.3744
26301W        W69239   5.811  14.260  29.312 -0.1543 -0.0228  0.0935
26302W        W69240   5.424  11.659  28.809 -0.4589 -0.3301  0.2398
26303W        W69241   4.890  12.385  29.085  0.2602 -0.0036 -0.0693
26304W        W69242   4.208  14.041  28.216 -0.0669 -0.0391  0.0691
26305W        W69243   5.413  12.812  29.596  0.3209 -0.0037 -0.0532
26306W        W69244   7.122   9.683  27.281 -0.1753  0.0114 -0.2557
26307W        W69245   6.054  14.323  27.762 -0.1454  0.0074  0.1911
26308W        W69246   5.961  11.541  30.067  0.0575 -0.2859 -0.2864
26309W        W69247   7.662  12.178  29.667 -0.0076 -0.0860  0.0856
26310W        W69248   6.870  10.917  27.157 -0.0830  0.0372  0.0410
26311W        W69249   8.005  11.455  30.740  0.0914 -0.2568  0.2383
26312W        W69250   3.923  10.378  29.284  0.1537  0.2811  0.2747
26313W        W69251   6.486  14.214  29.364  0.1875  0.1723  0.1564
26314W        W69252   3.250  12.028  31.370  0.0931 -0.1491  0.3211
26315W        W69253   5.384  14.467  30.693 -0.0284  0.1341 -0.0493
26316W        W69254   5.982   9.606   0.995 -0.0312  0.0723  0.0724
26317W        W69255   5.207  12.545  28.070 -0.0131  0.1061  0.1448
26318W        W69256   4.627  11.516  27.116  0.4403  0.0161 -0.0871
26319W        W69257   5.255  13.069  30.532 -0.2670 -0.1188  0.1679
26320W        W69258   8.624  13.357  29.718 -0.1382  0.1445  0.0296
26321W        W69259   6.872  11.374  26.826  0.4616  0.2154 -0.1163
26322W        W69260   8.004  12.394  29.963  0.0850  0.1402 -0.0425
26323W        W69261   4.450  13.487  28.901  0.1803  0.0057  0.0421
26324W        W69262   8.133  11.989  27.515 -0.1939 -0.3158 -0.2108
26325W        W69263   5.706  12.644  27.052 -0.1999  0.4228  0.1983
26326W        W69264   5.222  13.329  29.110  0.3040  0.2322  0.1742
26327W        W69265   4.319   9.844  30.834  0.3323 -0.0310 -0.2315
26328W        W69266   7.853  13.868  29.443  0.1260 -0.1883 -0.1909
26329W        W69267   6.208  12.137  28.858  0.0333 -0.0247 -0.0222
26330W        W69268   6.921  11.617  30.498  0.2723 -0.1121  0.0931
26331W        W69269   5.923  13.400  29.664 -0.0895 -0.4551  0.0640
26332W        W69270   6.965  12.406  29.923 -0.0214 -0.1379 -0.3351
26333W        W69271   2.804  11.269  31.286  0.0583 -0.2071  0.0500
26334W        W69272   8.641  14.032  29.854 -0.2612  0.0473  0.2741
26335W        W69273   6.941  11.338  26.274  0.1636 -0.2924 -0.2722
26336W        W69274   6.316  11.478  29.683  0.0328 -0.1577 -0.0319
26337W        W69275   6.181  12.542  28.537  0.0664  0.3413  0.0857
26338W        W69276   6.973  12.215  26.411  0.1493 -0.1492  0.3122
26339W        W69277   4.414  11.020  30.212 -0.1147 -0.0087 -0.3574
26340W        W69278   7.156  12.199   0.073  0.2413 -0.1134 -0.2213
26341W        W69279   4.573  11.252  28.607  0.2421 -0.1983 -0.1875
26342W        W69280   5.550  11.192  31.260 -0.1971 -0.1055 -0.1849
26343W        W69281   4.261  13.821  27.768  0.0979 -0.0641  0.2948
26344W        W69282   6.264  11.097  27.547  0.0286 -0.2057 -0.0925
26345W        W69283   6.423  11.831  27.853  0.0301  0.2001  0.0409
26346W        W69284   4.842  10.690  28.690 -0.0449 -0.2505  0.2559
26347W        W69285   4.887  15.259  30.470 -0.1512 -0.2903  0.0219
26348W        W69286   4.649  12.458  27.353 -0.0585  0.2829  0.2029
26349W        W69287   6.353  12.994  28.504 -0.0253  0.0602  0.0134
26350W        W69288   5.585  11.656  28.209  0.1012 -0.1133  0.0274
26351W        W69289   6.556  12.190  30.095  0.0004  0.0370  0.1711
26352W        W69290   5.529  10.162  28.216  0.0389  0.1381 -0.1267
26353W        W69291   8.149  11.906  29.927 -0.0505 -0.1724  0.0661
26354W        W69292   3.711  14.457  27.315 -0.0155  0.1277  0.3623
26355W        W69293   5.798  10.622  28.077 -0.1561  0.1187 -0.3927
26356W        W69294   6.536  14.700  29.594  0.2265 -0.0413 -0.0010
26357W        W69295   4.848  13.250  30.774  0.0193 -0.1664 -0.0093
26358W        W69296   5.175  14.289  30.233  0.0072 -0.2818  0.0440
26359W        W69297   5.789  11.911  29.135 -0.1686 -0.1166  0.0677
26360W        W69298   6.755  12.162  28.694 -0.2326  0.1206 -0.2387
26361W        W69299   5.394  12.104  28.408 -0.0194  0.1521 -0.0583
26362W        W69300   6.932  11.540  31.900 -0.3000 -0.0475  0.0931
26363W        W69301   5.801  13.296  31.135 -0.0289 -0.4732 -0.2482
26364W        W69302   3.669  11.989  29.779  0.0692 -0.0629  0.0006
26365W        W69303   5.918  13.103  30.342  0.0369  0.0535  0.2082
26366W        W69304   8.206  11.839  28.857 -0.0393 -0.1426 -0.2298
26367W        W69305   5.136  13.933  28.382  0.2637  0.2656  0.0608
26368W        W69306   4.125  11.209  30.967  0.0001 -0.2099  0.0195
26369W        W69307   5.692  12.105   0.259  0.2754  0.2267 -0.1196
26370W        W69308   6.835  13.044  29.717 -0.3193  0.0519 -0.3536
26371W        W69309   4.600  10.936  29.036  0.3057  0.0499 -0.1304
26372W        W69310   7.231  12.429  27.677  0.0463 -0.0444 -0.0097
26373W        W69311   3.725  14.438   0.946  0.0593  0.0135  0.0446
26374W        W69312   4.889  11.753  30.629 -0.2862  0.2033 -0.1706
26375W        W69313   3.656  15.891  28.295  0.0581  0.2520  0.0026
26376W        W69314   7.029  12.375  28.199  0.4179  0.1573 -0.2110
26377W        W69315   6.809  12.733  27.633 -0.0946 -0.0276 -0.1488
26378W        W69316   6.649  14.182  28.834 -0.1901 -0.0562 -0.1279
26379W        W69317   5.062  11.974  28.029  0.1119 -0.0104  0.1271
26380W        W69318   4.693  14.761  30.559  0.0231  0.0523 -0.0876
26381W        W69319   4.434  15.517  28.845  0.0626 -0.0323  0.0184
26382W        W69320   6.648  14.677  27.113  0.1744  0.2012 -0.0169
26383W        W69321   5.776  15.076  30.608  0.0414 -0.3181  0.3123
26384W        W69322   5.828  12.942  29.855 -0.0278 -0.2704  0.2977
26385W        W69323   6.516  10.567  25.197  0.0698  0.0135 -0.0856
26386W        W69324   6.497  13.437  29.684  0.0133 -0.0605 -0.2404
26387W        W69325   7.840  10.259  28.074 -0.1779 -0.1159  0.3020
26388W        W69326   5.563  13.715  31.335 -0.2258 -0.1203  0.1488
26389W        W69327   4.807  11.860  29.012 -0.2079  0.2798 -0.3076
26390W        W69328   5.527  12.236  27.342 -0.0207  0.1420  0.0514
26391W        W69329   3.889  12.705  29.103 -0.4468 -0.1900 -0.1383
26392W        W69330   8.721   9.965  31.123  0.2565  0.1285  0.1860
26393W        W69331   4.716  13.076  30.274 -0.1546  0.2259  0.0515
26394W        W69332   8.312  14.524  28.923 -0.2698 -0.0026  0.3350
26395W        W69333   5.295  11.276  28.449  0.0355 -0.1640 -0.0552
26396W        W69334   5.883  14.146  28.657 -0.0717 -0.0917 -0.0659
26397W        W69335   7.099  11.785  30.029 -0.0355 -0.1609  0.0382
26398W        W69336   5.475  12.200  27.879  0.2088  0.1015  0.0724
26399W        W69337   7.330  12.921  26.791  0.1028  0.0237  0.1378
26400W        W69338   5.686  14.309  28.201 -0.3164  0.1596  0.0476
26401W        W69339   5.370  12.288  29.403  0.0373 -0.1131 -0.0747
26402W        W69340   5.685  14.146  30.933  0.2987  0.2702  0.2122
26403W        W69341   3.827  10.817  29.036 -0.1744  0.1000 -0.2537
26404W        W69342   8.109  12.681  29.120 -0.0037 -0.0849 -0.0703
26405W        W69343   5.356  12.044  30.727 -0.0469 -0.2080 -0.1808
26406W        W69344   7.603  11.942  30.181 -0.1921  0.0045 -0.0620
26407W        W69345   4.749  13.219  29.331 -0.0284  0.1138  0.0240
26408W        W69346   7.145  11.799  26.102  0.1948 -0.0491  0.0510
26409W        W69347   6.889  12.224  31.141  0.1126  0.1049  0.3086
26410W        W69348   3.953  12.265  30.092  0.2428  0.0691 -0.3640
26411W        W69349   6.319  11.663  28.817  0.1549 -0.2662 -0.3815
26412W        W69350   7.114  13.978  29.971 -0.1560 -0.2193 -0.0546
26413W        W69351   6.153  11.577  28.313  0.0006  0.1061  0.0117
26414W        W69352   6.296  13.737  31.828 -0.0144  0.2388  0.0820
26415W        W69353   4.968  11.401  28.903 -0.0225  0.3251  0.2811
26416W        W69354   6.213  11.609  27.406  0.4156  0.3010  0.1558
26417W        W69355   3.208  15.066  28.407  0.2937  0.0015  0.1326
26418W        W69356   5.553  11.309  30.248 -0.1315 -0.1570  0.2580
26419W        W69357   6.209  13.812  29.605 -0.0950  0.1125  0.2365
26420W        W69358   6.227  10.398  28.217 -0.1335 -0.2331  0.1624
26421W        W69359   6.530  15.148  27.434  0.2726 -0.0178  0.1420
26422W        W69360   7.467  12.494  29.296  0.2325  0.1960  0.1735
26423W        W69361   5.327  14.571  29.405 -0.0059 -0.2836 -0.0016
26424W        W69362   6.163  11.888  29.406  0.1551 -0.1680 -0.0047
26425W        W69363   5.701  13.129  29.145  0.3464 -0.0172 -0.3715
26426W        W69364   4.426  12.124  29.893 -0.0869 -0.1506 -0.0382
26427W        W69365   6.407  14.452  28.467 -0.0893  0.1430 -0.1000
26428W        W69366   8.768  13.837  29.408  0.0238 -0.3337  0.0842
26429W        W69367   5.022  10.677  29.169  0.1955 -0.0760 -0.0235
26430W        W69368   5.037  10.960  29.895 -0.2012  0.1366  0.1091
26431W        W69369   3.382  14.771  30.231 -0.2800 -0.4718  0.2085
26432W        W69370   7.021  10.508  27.906  0.0759 -0.2215 -0.0579
26433W        W69371   8.129  11.443  31.270 -0.0100 -0.0478  0.2399
26434W        W69372   4.754  15.078  27.243 -0.1620 -0.0955 -0.0980
26435W        W69373   6.286  10.544  31.382  0.0911  0.0544  0.1177
26436W        W69374   5.644  12.410  31.124 -0.0278  0.3781 -0.3934
26437W        W69375   5.225  15.804  31.222 -0.1831 -0.0359 -0.2468
26438W        W69376   3.939  13.677  28.674  0.2713 -0.2260  0.0970
26439W        W69377   4.572  11.345  31.243 -0.1271 -0.1465  0.3419
26440W        W69378   4.352  12.702  28.880  0.1350  0.0742  0.1488
26441W        W69379   6.724  11.571  27.440  0.1047 -0.0724  0.0714
26442W        W69380   8.921  13.809  28.910 -0.1084  0.0372  0.1839
26443W        W69381   7.476  11.605  28.098 -0.0809 -0.2865 -0.2501
26444W        W69382   8.498  13.486  28.650 -0.1298  0.2795 -0.1248
26445W        W69383   5.446  10.758  30.466  0.2478  0.4256 -0.2846
26446W        W69384   8.053  10.773  29.369 -0.0494 -0.2576  0.0663
26447W        W69385   6.324   9.881  28.252  0.3893  0.0162  0.2717
26448W        W69386   5.626  12.713  30.311  0.0965 -0.0295  0.2619
26449W        W69387   2.917  12.344  27.857  0.0662  0.1635 -0.1744
26450W        W69388   5.342  12.645  27.549  0.0369  0.0711 -0.4541
26451W        W69389   5.062  13.162  29.791 -0.3019  0.3085 -0.1107
26452W        W69390   4.870   9.867  30.871 -0.4805 -0.1641  0.2183
26453W        W69391   5.759  11.092  30.791  0.0767 -0.1731 -0.1535
26454W        W69392   4.504  12.154  28.759  0.1207  0.2626 -0.2051
26455W        W69393   5.986  10.895  29.113  0.0413 -0.3751  0.0859
26456W        W69394   5.892  13.245  28.209  0.0590 -0.3219  0.0125
26457W        W69395   4.235  11.587  28.245 -0.3368  0.1087 -0.0550
26458W        W69396   4.673  10.080  28.208 -0.1685 -0.0777  0.0157
26459W        W69397   6.571  12.420  29.096 -0.1623  0.1011  0.0062
26460W        W69398   8.422  13.816  29.039 -0.0149 -0.0797 -0.1950
26461W        W69399   5.212  12.584  28.688  0.0267 -0.0452  0.1847
26462W        W69400   5.810  12.394  31.590  0.1558  0.2693 -0.0567
26463W        W69401   2.971  13.083  28.485  0.0029 -0.1649  0.5989
26464W        W69402   4.992  12.142   1.179 -0.0859 -0.2443 -0.2625
26465W        W69403   6.028  11.487  31.043 -0.1865  0.1979  0.1489
26466W        W69404   4.020  10.363  27.194  0.0240  0.0684 -0.0943
26467W        W69405   4.577  13.048  29.796  0.4705  0.1869  0.1359
26468W        W69406   5.811  13.953  29.857  0.1193 -0.3264  0.0719
26469W        W69407   6.601  14.816  30.052 -0.2416  0.1163 -0.1842
26470W        W69408   6.229  12.762  30.860 -0.0650 -0.1049 -0.1329
26471W        W69409   6.540  13.998  31.387 -0.0935 -0.3475  0.1436
26472W        W69410   3.078  11.473  30.756  0.0861 -0.1753  0.0385
26473W        W69411   5.622  12.586  28.356 -0.1570 -0.2266  0.3203
26474W        W69412   5.267  13.541  30.988  0.0173 -0.1284  0.1336
26475W        W69413   5.939  14.627  28.536 -0.3798 -0.1736 -0.1115
26476W        W69414   8.428  11.455  29.912 -0.0046 -0.0146 -0.1883
26477W        W69415   6.792  11.045  27.658 -0.0946  0.1385 -0.4704
26478W        W69416   3.915  11.574  31.292  0.0110  0.1273 -0.0985
26479W        W69417   4.570  14.296  31.142  0.0414  0.1019 -0.0249
26480W        W69418   6.629  12.708  30.159 -0.0412  0.2193  0.0330
26481W        W69419   5.892  10.566  28.673  0.2657 -0.1611  0.0324
26482W        W69420   7.053  11.901  28.013  0.0680 -0.0572 -0.1549
26483W        W69421   6.587  14.245  27.940 -0.2864  0.2232 -0.0959
26484W        W69422   4.260  12.735  29.441 -0.2146 -0.0703  0.0762
26485W        W69423   6.224  10.991  28.156 -0.0260 -0.1849 -0.1637
26486W        W69424   5.349  11.319  29.728 -0.3508 -0.1121 -0.2792
26487W        W69425   6.292  14.522  28.995 -0.1344 -0.1577 -0.1415
26488W        W69426   6.155  13.538  30.602  0.0799 -0.3432 -0.1005
26489W        W69427   6.034  13.320  28.654 -0.1095 -0.0165  0.0640
26490W        W69428   7.726  11.172  27.926  0.0838  0.0199 -0.3208
26491W        W69429   7.298  13.302  30.290 -0.0594 -0.1039 -0.4477
26492W        W69430   7.598  13.759  29.937  0.0895 -0.2741 -0.0102
26493W        W69431   5.067  14.663  29.851  0.0407 -0.1501 -0.0350
26494W        W69432   7.354  13.701  29.525 -0.2760  0.3209 -0.1368
26495W        W69433   3.670  12.509  30.509  0.1198 -0.1534 -0.0848
26496W        W69434   5.365  12.999  28.124  0.2362 -0.1018 -0.1261
26497W        W69435   4.310  13.970  28.867 -0.1406 -0.0310  0.1010
26498W        W69436   6.561  11.287  28.437 -0.0743 -0.1937  0.0019
26499W        W69437   4.914  11.855  30.102 -0.1408 -0.1891 -0.1409
26500W        W69438   6.344  12.463  27.635 -0.0372 -0.2652  0.0397
26501W        W69439   5.343  14.740  31.484  0.0089  0.0747  0.4331
26502W        W69440   6.885  13.401  29.357  0.0893  0.2488 -0.0318
26503W        W69441   6.464  11.599  30.702 -0.2486 -0.1914  0.0981
26504W        W69442   8.230  13.411  30.227 -0.1086  0.2137  0.1320
26505W        W69443   3.728  11.437  30.732 -0.0909  0.4363  0.3016
26506W        W69444   4.287  14.472  30.757  0.1239 -0.0128  0.0484
26507W        W69445   4.935  13.513  31.389  0.0815  0.0661  0.2329
26508W        W69446   4.869  12.593  29.680 -0.2024 -0.1292  0.0086
26509W        W69447   7.372  10.856  30.947  0.2307  0.0174  0.2120
26510W        W69448   5.898  10.851  31.775  0.1664  0.1195 -0.2362
26511W        W69449   6.196  10.876  30.827 -0.1465  0.1251  0.1621
26512W        W69450   6.388  13.093  30.459 -0.0519 -0.2737 -0.2538
26513W        W69451   5.953  14.038  31.508  0.1366 -0.0243  0.2215
26514W        W69452   3.156  10.993  30.955  0.1335  0.3111  0.1719
26515W        W69453   7.432  12.313  31.113 -0.0815 -0.2296 -0.2023
26516W        W69454   4.439  12.448  31.980  0.0715  0.1443  0.2361
26517W        W69455   7.821  10.702  31.953 -0.0334 -0.0324 -0.1651
26518W        W69456   3.802  13.390  31.861 -0.0431 -0.3109 -0.0171
26519W        W69457   4.054  12.639   0.670 -0.0736 -0.3147 -0.0993
26520W        W69458   7.651  13.751  30.810  0.1449 -0.1276 -0.1754
26521W        W69459   3.097  11.689   0.205  0.0732 -0.3441 -0.2844
26522W        W69460   3.706  12.106   0.150 -0.2046  0.0755 -0.0524
26523W        W69461   3.363  11.192   0.984  0.1396 -0.2558  0.2424
26524W        W69462   4.542  13.853   0.012 -0.3218  0.0266 -0.3898
26525W        W69463   6.931  11.947   0.939 -0.1703 -0.1855  0.1427
26526W        W69464   7.999  11.999  30.510  0.0667  0.2947 -0.0419
26527W        W69465   6.956  11.942  31.595  0.0650  0.0930  0.1070
26528W        W69466   4.242   9.460  30.515  0.0538  0.1697 -0.0639
26529W        W69467   5.345  10.768   0.781  0.0297  0.0897  0.2322
26530W        W69468   3.275  14.484   1.143  0.2055  0.3367  0.0631
26531W        W69469   4.087  11.840   0.317  0.0948  0.1227 -0.4769
26532W        W69470   3.317  13.036   0.578  0.1669  0.0423 -0.0500
26533W        W69471   4.586  12.685   0.427 -0.0529 -0.3672 -0.5674
26534W        W69472   5.847  12.691   1.423  0.0542  0.4388  0.1360
26535W        W69473   7.136  13.509   0.301 -0.1401  0.1612 -0.0402
26536W        W69474   6.123  10.281   0.264  0.0503 -0.0353  0.1356
26537W        W69475   4.068  10.831   0.408 -0.0388  0.1549 -0.2663
26538W        W69476   5.035  10.659  31.834 -0.1592  0.0173  0.1045
26539W        W69477   5.174  12.253  30.289 -0.0233  0.1784 -0.0588
26540W        W69478   6.186  14.519  30.147 -0.1027 -0.3767  0.3207
26541W        W69479   5.660  11.882  31.820 -0.1213 -0.1292 -0.1585
26542W        W69480   4.290  13.880   0.527 -0.0241 -0.1011 -0.1370
26543W        W69481   8.347   9.751  31.942  0.3141  0.1790 -0.0596
26544W        W69482   4.831  12.185   0.330 -0.3221  0.2395 -0.0080
26545W        W69483   4.721   9.531  31.555  0.1353 -0.0770 -0.0744
26546W        W69484   6.450  13.425  31.466 -0.7068 -0.2159  0.0205
26547W        W69485   5.310  12.050  31.535 -0.1293 -0.1828  0.4770
26548W        W69486   6.487  11.795   0.402  0.2120  0.1756 -0.0989
26549W        W69487   4.645  11.616   0.312  0.2621  0.1009 -0.2735
26550W        W69488   7.509  12.895  31.581  0.5127  0.2998  0.2116
26551W        W69489   4.606  11.392  31.779  0.2326  0.1346  0.0996
26552W        W69490   4.046  12.598   0.206 -0.4466  0.2746 -0.2222
26553W        W69491   5.486  13.751  30.248 -0.0408  0.0537  0.1330
26554W        W69492   6.946   9.528   0.149  0.1130 -0.1288 -0.3042
26555W        W69493   5.031  11.919  31.069 -0.1661  0.2093 -0.5016
26556W        W69494   5.341  13.766  31.892 -0.0537  0.1353 -0.2319
26557W        W69495   7.719  11.188   0.220  0.1270  0.0486  0.0376
26558W        W69496   7.383  12.654  29.742  0.0985 -0.2315 -0.2043
26559W        W69497   6.631  12.600  31.142 -0.5349  0.2296 -0.3028
26560W        W69498   4.989  12.997  31.694 -0.1991 -0.0086 -0.0125
26561W        W69499   5.360  12.551  30.704 -0.1960  0.2811 -0.1180
26562W        W69500   4.571  11.963  31.934  0.2722 -0.0491  0.0711
26563W        W69501   4.060  11.523  31.825  0.2978 -0.2014 -0.2597
26564W        W69502   4.406  12.954  30.739 -0.1163  0.2796 -0.2438
26565W        W69503   3.055  12.933  31.809  0.0695  0.1974 -0.2177
26566W        W69504   4.731  10.829  31.146 -0.2498  0.0078 -0.1752
26567W        W69505   6.239  13.369   0.270  0.2527  0.0630 -0.0492
26568W        W69506   6.973  11.765   0.434  0.0397  0.0701  0.1589
26569W        W69507   6.387  11.831   1.101  0.3495  0.2412  0.2729
26570W        W69508   4.549  17.220  18.927  0.2166  0.0338  0.1448
26571W        W69509   2.822  16.077  19.459  0.0426 -0.1889  0.1567
26572W        W69510   5.815  14.317  16.452 -0.1096  0.0451 -0.0705
26573W        W69511   7.439  17.291  17.619  0.1775  0.2872  0.0967
26574W        W69512   1.318  15.603  18.482 -0.0296 -0.0174  0.0658
26575W        W69513   5.600  18.634  16.862 -0.1055  0.2905  0.0152
26576W        W69514   4.711  15.023  19.128 -0.2175  0.1478 -0.0687
26577W        W69515   5.423  16.441  18.791  0.2125 -0.1672  0.2563
26578W        W69516   5.926  17.323  18.581  0.4663  0.0576  0.1055
26579W        W69517   5.462  16.797  17.435  0.0086  0.3754  0.0051
26580W        W69518   4.798  17.023  18.322 -0.2849 -0.1417 -0.0740
26581W        W69519   4.481  17.765  19.036 -0.2438  0.4005 -0.0066
26582W        W69520   3.960  14.377  17.380  0.2230  0.3326  0.0890
26583W        W69521   3.485  13.684  17.066 -0.0528  0.0324 -0.0024
26584W        W69522   6.263  16.215  19.022 -0.0544  0.0163  0.0696
26585W        W69523   3.210  17.651  17.517  0.0739 -0.3771 -0.0267
26586W        W69524   5.717  16.362  18.424 -0.1303 -0.1367 -0.0346
26587W        W69525   4.485  14.890  16.832  0.0825  0.1927 -0.1447
26588W        W69526   4.773  18.262  18.032 -0.1252 -0.2757  0.2311
26589W        W69527   3.766  16.198  18.274  0.2680 -0.2391  0.6735
26590W        W69528   5.130  13.596  18.715  0.0286  0.1288  0.1826
26591W        W69529   2.766  18.289  17.099  0.1515  0.0036 -0.1192
26592W        W69530   3.312  17.528  16.785  0.1537 -0.0842 -0.0186
26593W        W69531   3.823  16.391  19.247  0.0521  0.1093  0.1037
26594W        W69532   4.602  16.757  19.354  0.1870  0.1683  0.2890
26595W        W69533   4.987  15.263  17.374  0.0630 -0.1262  0.0871
26596W        W69534   5.583  15.935  17.532  0.1015 -0.1677  0.0157
26597W        W69535   3.098  20.762  17.788  0.0731 -0.1793 -0.0257
26598W        W69536   5.863  19.182  18.479 -0.1301  0.2327  0.1829
26599W        W69537   6.562  17.350  19.283  0.2569  0.0176  0.0488
26600W        W69538   4.132  16.933  16.746  0.0245  0.2688  0.0740
26601W        W69539   3.853  19.259  18.413 -0.0527 -0.1336  0.1344
26602W        W69540   5.192  18.395  17.760 -0.5022 -0.1158 -0.3368
26603W        W69541   6.789  17.254  17.393  0.3345 -0.0324  0.1784
26604W        W69542   5.446  15.900  18.557  0.2716 -0.1653  0.1291
26605W        W69543   6.383  16.463  18.609  0.0217 -0.0722  0.2625
26606W        W69544   4.223  17.568  17.659 -0.0016 -0.0747 -0.1108
26607W        W69545   5.924  19.108  20.151 -0.2272  0.0274  0.1976
26608W        W69546   4.962  17.341  19.791 -0.0251  0.0325  0.0368
26609W        W69547   5.016  16.850  17.822 -0.3191 -0.2473  0.1739
26610W        W69548   4.463  17.249  17.988 -0.1315 -0.0256  0.1167
26611W        W69549   5.070  18.377  16.615 -0.0279  0.1643  0.1594
26612W        W69550   5.011  17.900  17.726  0.0501  0.3631 -0.0027
26613W        W69551   5.267  16.255  18.211  0.3717 -0.1383  0.0821
26614W        W69552   5.652  16.702  19.334 -0.1550  0.2849 -0.0847
26615W        W69553   6.513  14.534  19.657  0.1967  0.2192  0.3625
26616W        W69554   4.067  18.763  17.463  0.1965 -0.1748  0.0378
26617W        W69555   5.791  15.668  16.726 -0.2006  0.0969  0.2895
26618W        W69556   4.642  15.419  16.046 -0.1964 -0.0229 -0.4216
26619W        W69557   4.678  15.404  16.549  0.0692 -0.1256 -0.0112
26620W        W69558   3.832  14.693  18.408  0.2563 -0.1508  0.0345
26621W        W69559   3.877  18.703  18.585 -0.2043 -0.1862  0.0347
26622W        W69560   2.921  15.782  18.520  0.0376  0.0219 -0.0081
26623W        W69561   6.273  18.218  19.588  0.0270 -0.0874  0.3338
26624W        W69562   4.258  16.364  16.735 -0.3649 -0.2429 -0.1927
26625W        W69563   4.761  16.507  18.453 -0.1646  0.3324  0.3011
26626W        W69564   4.128  17.594  18.753  0.0413 -0.2642  0.1071
26627W        W69565   3.633  15.964  19.169 -0.1033  0.2029  0.1342
26628W        W69566   6.532  19.116  16.479 -0.2302 -0.2544 -0.0525
26629W        W69567   7.160  18.834  18.569 -0.0460 -0.0133  0.3655
26630W        W69568   5.806  17.730  16.357 -0.0790  0.0371 -0.0925
26631W        W69569   4.244  16.208  17.291 -0.0423  0.2001  0.2120
26632W        W69570   3.172  17.528  19.096 -0.1011  0.0127 -0.1946
26633W        W69571   2.766  17.396  18.719 -0.3272  0.0135  0.0653
26634W        W69572   3.543  15.494  16.852  0.0349 -0.2826  0.1725
26635W        W69573   4.713  15.879  21.323  0.0396 -0.1251  0.1765
26636W        W69574   3.313  17.901  18.484  0.1697 -0.0343 -0.0570
26637W        W69575   6.717  16.093  16.990  0.1624  0.5838 -0.0125
26638W        W69576   3.335  15.429  18.613 -0.0830  0.0382 -0.2109
26639W        W69577   6.089  18.590  18.929  0.0910  0.3188 -0.3903
26640W        W69578   5.427  16.545  16.901 -0.1032 -0.2732  0.1259
26641W        W69579   5.960  14.484  18.937  0.1793  0.0479 -0.1240
26642W        W69580   6.214  15.387  18.147 -0.0800  0.0999  0.0101
26643W        W69581   4.204  18.142  16.132  0.1050  0.3083  0.0121
26644W        W69582   4.601  15.856  17.425  0.1516 -0.1983 -0.3289
26645W        W69583   6.954  18.316  19.044  0.3448 -0.1447 -0.0337
26646W        W69584   6.135  15.305  16.603 -0.1281  0.1474  0.1599
26647W        W69585   4.498  18.260  19.816  0.0091  0.1888  0.0943
26648W        W69586   3.275  15.888  18.836 -0.1466  0.0621 -0.0036
26649W        W69587   5.592  15.633  19.284  0.1532  0.1845 -0.2328
26650W        W69588   4.870  18.743  17.615  0.2851  0.1143  0.2263
26651W        W69589   3.444  16.523  18.141 -0.1822  0.2315  0.0615
26652W        W69590   3.646  17.819  16.541  0.1307 -0.2650  0.1150
26653W        W69591   2.797  15.304  17.882  0.1744 -0.1380  0.2468
26654W        W69592   4.939  16.922  18.798 -0.0090 -0.0903  0.4443
26655W        W69593   6.371  15.616  16.929 -0.2460  0.0382 -0.2573
26656W        W69594   4.066  14.511  19.975 -0.2225  0.1570  0.3636
26657W        W69595   5.296  14.806  16.124 -0.0795 -0.1285  0.0836
26658W        W69596   2.453  15.665  18.283  0.1882  0.2109  0.2311
26659W        W69597   6.103  18.499  16.883 -0.2471  0.1661 -0.3133
26660W        W69598   6.022  14.789  16.799 -0.0637  0.2077  0.1141
26661W        W69599   4.901  17.539  16.634  0.0685  0.0054 -0.0985
26662W        W69600   3.459  16.805  18.827 -0.0506  0.3577  0.2202
26663W        W69601   3.038  16.297  18.688 -0.1114  0.1324 -0.0400
26664W        W69602   3.937  16.138  19.622 -0.1845  0.4229  0.0298
26665W        W69603   2.582  14.850  17.663  0.1805 -0.1971 -0.2478
26666W        W69604   6.223  15.987  21.329 -0.1365  0.1468  0.5365
26667W        W69605   3.852  14.436  16.821  0.2956 -0.1798  0.2214
26668W        W69606   6.357  15.709  18.633 -0.3156 -0.0801  0.1221
26669W        W69607   3.869  15.267  17.203 -0.0188  0.3475 -0.1141
26670W        W69608   3.673  17.291  16.543 -0.1793  0.2180 -0.0018
26671W        W69609   6.353  14.533  17.758 -0.1070 -0.0331 -0.0916
26672W        W69610   4.968  18.443  19.586  0.1082 -0.2141  0.0634
26673W        W69611   5.983  18.870  20.653 -0.0775 -0.2386 -0.2090
26674W        W69612   6.730  17.504  17.850  0.1773 -0.2015  0.3013
26675W        W69613   3.601  15.765  19.675  0.0772  0.3043 -0.0901
26676W        W69614   3.670  15.754  17.308  0.3573  0.1375 -0.0273
26677W        W69615   2.647  18.857  17.173 -0.4404 -0.1127 -0.0081
26678W        W69616   5.529  17.813  18.681 -0.1163  0.1505 -0.3048
26679W        W69617   3.411  14.540  17.204 -0.2692 -0.1807  0.2383
26680W        W69618   6.173  17.633  19.058 -0.1386  0.2822 -0.0020
26681W        W69619   4.188  15.330  16.752  0.1687  0.0134  0.0332
26682W        W69620   3.653  15.858  17.887  0.4296  0.0884 -0.1959
26683W        W69621   4.085  15.734  19.398 -0.0559 -0.2051  0.2132
26684W        W69622   6.407  15.787  17.808 -0.1389 -0.1809 -0.0817
26685W        W69623   6.242  16.078  16.783  0.0413 -0.1268  0.2075
26686W        W69624   3.327  15.564  16.322 -0.0733 -0.0845  0.0854
26687W        W69625   5.140  18.826  16.875  0.0593 -0.1919  0.3082
26688W        W69626   3.046  17.822  16.403  0.3214  0.2242  0.0932
26689W        W69627   4.147  15.650  17.455 -0.0063 -0.1928 -0.0455
26690W        W69628   5.550  17.778  17.262  0.3139  0.4466  0.0807
26691W        W69629   6.696  15.525  18.221  0.0260 -0.0039  0.0773
26692W        W69630   4.746  17.499  18.480 -0.1354 -0.1321 -0.2315
26693W        W69631   5.871  16.379  19.699  0.2619 -0.0172  0.0942
26694W        W69632   4.038  15.924  16.943  0.0274  0.0998 -0.0524
26695W        W69633   2.138  16.501  19.418  0.2784  0.0341  0.1329
26696W        W69634   5.808  13.819  17.273 -0.2008  0.1148  0.2018
26697W        W69635   7.165  15.865  16.982 -0.0016 -0.3242  0.2982
26698W        W69636   5.506  17.127  19.476 -0.2697  0.5502 -0.0000
26699W        W69637   5.584  17.252  17.123 -0.0210 -0.0893 -0.0611
26700W        W69638   4.423  13.219  17.446 -0.3267  0.1493 -0.2776
26701W        W69639   3.854  16.230  17.618  0.0029  0.3110  0.2272
26702W        W69640   3.286  17.277  18.714 -0.1179  0.1397  0.1245
26703W        W69641   3.439  16.217  17.331 -0.1567  0.0659 -0.2977
26704W        W69642   2.983  16.543  18.173 -0.2928 -0.1966 -0.3606
26705W        W69643   5.044  15.171  15.875 -0.2626  0.0887 -0.2842
26706W        W69644   7.652  17.971  16.873 -0.1874 -0.0933 -0.0415
26707W        W69645   4.176  17.191  17.173  0.1169 -0.0133 -0.3068
26708W        W69646   5.555  16.749  19.902 -0.1051  0.5044 -0.2049
26709W        W69647   5.717  18.715  18.365 -0.1241  0.1127  0.0445
26710W        W69648   4.605  15.425  18.340  0.0819 -0.1883  0.0324
26711W        W69649   5.234  16.425  17.664  0.0724  0.0682  0.3321
26712W        W69650   3.194  15.019  18.853 -0.2330 -0.2075 -0.1349
26713W        W69651   3.521  19.841  17.105  0.2737 -0.2291 -0.1451
26714W        W69652   6.928  16.219  19.508  0.0507  0.0856 -0.0160
26715W        W69653   5.456  14.549  18.976  0.0369 -0.0414  0.0780
26716W        W69654   5.021  15.769  20.806  0.1499  0.3516  0.0097
26717W        W69655   7.561  16.461  18.798  0.0341 -0.0805  0.1247
26718W        W69656   4.530  15.668  16.988  0.1280  0.2963 -0.0583
26719W        W69657   5.367  15.387  16.884 -0.2487 -0.3384 -0.2160
26720W        W69658   3.868  15.665  16.506 -0.0744  0.1803  0.1030
26721W        W69659   3.850  15.335  19.536  0.0515 -0.1184  0.0547
26722W        W69660   3.847  16.653  18.453 -0.3047  0.0886  0.0558
26723W        W69661   3.841  18.460  17.845 -0.0598 -0.0021 -0.0685
26724W        W69662   6.020  17.231  19.419 -0.4239  0.2079  0.0292
26725W        W69663   5.925  15.953  18.233 -0.1534 -0.0384 -0.0667
26726W        W69664   5.607  16.238  20.109 -0.1787 -0.0642 -0.0744
26727W        W69665   5.594  13.689  16.784 -0.2187 -0.1783 -0.0752
26728W        W69666   4.880  17.806  16.210  0.1735  0.1692  0.0702
26729W        W69667   5.756  17.900  16.833 -0.2278 -0.0051 -0.2221
26730W        W69668   4.221  15.104  18.316  0.1664 -0.0995  0.0686
26731W        W69669   4.969  17.833  18.742 -0.1644 -0.0241 -0.1458
26732W        W69670   4.722  18.008  16.662 -0.0528 -0.0532  0.2042
26733W        W69671   7.023  17.860  19.253 -0.0477  0.1551 -0.2923
26734W        W69672   2.306  18.601  17.567 -0.3617 -0.0007 -0.1623
26735W        W69673   6.748  15.319  19.989  0.0760 -0.0676  0.2749
26736W        W69674   2.731  17.870  17.448  0.2191 -0.0965  0.1983
26737W        W69675   2.957  16.625  17.570 -0.2473 -0.1136 -0.5526
26738W        W69676   2.521  15.646  16.904 -0.0768  0.1129  0.1215
26739W        W69677   6.320  15.205  18.615 -0.0130 -0.3867  0.3724
26740W        W69678   6.574  16.568  16.728  0.0797 -0.1074  0.1062
26741W        W69679   4.557  16.009  18.379  0.2225 -0.4721  0.3205
26742W        W69680   4.594  13.799  17.830 -0.1289 -0.0340 -0.0887
26743W        W69681   4.828  18.737  18.213  0.2039 -0.2855 -0.3259
26744W        W69682   4.869  15.253  19.581  0.3804  0.0038 -0.1109
26745W        W69683   6.969  15.284  17.278  0.3464 -0.2339 -0.1210
26746W        W69684   4.488  18.680  19.370 -0.1255 -0.0334  0.1854
26747W        W69685   5.070  16.140  19.887  0.4134 -0.1655  0.2063
26748W        W69686   2.945  16.271  17.092  0.0226  0.1830  0.0671
26749W        W69687   7.282  16.063  18.745  0.1928 -0.1540 -0.2048
26750W        W69688   3.032  15.739  19.805 -0.2114  0.0051 -0.0459
26751W        W69689   3.764  17.596  17.892  0.0845 -0.2339 -0.1889
26752W        W69690   5.945  18.068  19.042  0.1838 -0.1368 -0.0392
26753W        W69691   4.725  16.464  17.561  0.0085 -0.2585 -0.2239
26754W        W69692   4.491  18.420  17.543 -0.1069 -0.3525 -0.0868
26755W        W69693   5.001  16.154  18.640  0.2101  0.1115 -0.0410
26756W        W69694   6.032  15.841  17.213  0.0836  0.3003  0.2820
26757W        W69695   4.662  15.075  17.752 -0.2030 -0.1422 -0.2295
26758W        W69696   3.366  15.506  18.113 -0.0885 -0.4165 -0.2129
26759W        W69697   4.702  14.597  17.803 -0.0326 -0.1190  0.1261
26760W        W69698   5.709  17.423  19.050 -0.1408 -0.0353  0.0234
26761W        W69699   4.713  15.035  18.597  0.2521  0.2692  0.3049
26762W        W69700   4.064  17.063  18.199  0.1522 -0.2570 -0.1461
26763W        W69701   5.195  15.344  18.437  0.1423 -0.1834  0.0761
26764W        W69702   6.357  18.338  18.217 -0.1211 -0.4153 -0.0488
26765W        W69703   5.230  17.038  20.310 -0.2270  0.1853 -0.1163
26766W        W69704   4.494  17.652  16.989  0.0116 -0.0855  0.0142
26767W        W69705   3.174  16.965  17.960 -0.3563 -0.1934 -0.1386
26768W        W69706   4.952  15.785  18.242 -0.3928 -0.0873  0.1778
26769W        W69707   4.255  15.640  18.608  0.4011  0.0263  0.1228
26770W        W69708   2.897  18.070  19.554 -0.0054  0.0783 -0.3169
26771W        W69709   4.039  17.795  17.249 -0.2445  0.0675 -0.0805
26772W        W69710   1.899  17.925  19.764 -0.0652  0.5191  0.0822
26773W        W69711   6.607  14.482  16.158 -0.2251  0.1446  0.0856
26774W        W69712   6.091  16.714  17.640  0.1168 -0.1245 -0.0464
26775W        W69713   5.666  15.369  17.944  0.1252 -0.1044  0.0741
26776W        W69714   7.346  14.844  19.419  0.0303  0.0463  0.3387
26777W        W69715   4.120  16.255  16.177 -0.2535 -0.0912  0.0415
26778W        W69716   6.047  15.906  19.466  0.1894  0.0801 -0.2482
26779W        W69717   2.883  15.153  19.235 -0.0227 -0.1821 -0.0976
26780W        W69718   6.279  17.472  17.572  0.3305  0.0460  0.0751
26781W        W69719   3.231  15.832  19.336  0.2629  0.0334 -0.0851
26782W        W69720   5.910  17.534  20.443 -0.3389  0.1474  0.1062
26783W        W69721   4.507  16.103  19.685  0.1547 -0.0930 -0.4177
26784W        W69722   5.003  15.437  17.885  0.0386  0.0670  0.3670
26785W        W69723   3.818  14.945  17.984  0.0469 -0.1107 -0.1772
26786W        W69724   4.152  17.625  18.209  0.2058 -0.1043  0.0582
26787W        W69725   6.455  17.016  17.868  0.1010 -0.1137  0.0127
26788W        W69726   5.116  16.222  16.696  0.2344  0.1391 -0.0419
26789W        W69727   5.478  15.482  17.421  0.0648  0.0126 -0.3494
26790W        W69728   4.794  16.233  17.972  0.2278  0.5083 -0.3328
26791W        W69729   5.748  16.857  18.341 -0.3226 -0.0289 -0.3857
26792W        W69730   5.303  15.762  16.566  0.2490  0.0490  0.3015
26793W        W69731   4.121  17.071  17.703  0.1648 -0.2515 -0.1442
26794W        W69732   4.573  12.634  19.783 -0.0185  0.0010 -0.0935
26795W        W69733   5.600  16.579  17.978 -0.0959 -0.2336  0.1335
26796W        W69734   5.147  13.439  16.357  0.1237  0.1016  0.0705
26797W        W69735   4.744  15.714  19.860  0.4435  0.1608 -0.0602
26798W        W69736   6.118  17.276  19.904  0.2935  0.5844  0.6675
26799W        W69737   6.119  16.545  18.202 -0.0300 -0.0265 -0.3114
26800W        W69738   2.586  14.712  20.520 -0.0215  0.1751 -0.0163
26801W        W69739   6.792  17.277  18.867 -0.1391 -0.1866 -0.2153
26802W        W69740   7.672  15.744  16.952  0.0050 -0.0605 -0.0430
26803W        W69741   7.252  16.716  19.394 -0.1974 -0.0270  0.2595
26804W        W69742   7.296  15.501  16.630  0.0611 -0.0537  0.0960
26805W        W69743   4.332  15.790  16.542 -0.4350 -0.1538 -0.0909
26806W        W69744   4.209  15.401  17.862 -0.0023  0.1094  0.0893
26807W        W69745   5.253  17.755  20.039  0.0440  0.1192 -0.0837
26808W        W69746   4.091  14.812  17.079 -0.0043  0.1274  0.1773
26809W        W69747   7.194  15.182  20.069  0.0717 -0.3211  0.1471
26810W        W69748   6.231  16.900  15.979  0.1377 -0.1049  0.1270
26811W        W69749   4.616  16.545  18.909 -0.0182 -0.1768 -0.0034
26812W        W69750   5.184  15.266  16.413 -0.0671 -0.0980  0.3170
26813W        W69751   3.232  16.231  17.792  0.2815  0.1347 -0.2158
26814W        W69752   3.003  18.687  18.959 -0.3333  0.0798 -0.1232
26815W        W69753   5.399  14.101  17.034  0.1099 -0.0762  0.0137
26816W        W69754   4.637  17.168  16.859 -0.2731  0.0818 -0.0435
26817W        W69755   4.362  16.886  18.526 -0.0888  0.1432  0.1256
26818W        W69756   7.092  17.045  21.542  0.1357 -0.0534  0.1524
26819W        W69757   4.608  14.024  16.660 -0.1654 -0.2538  0.3743
26820W        W69758   6.885  16.658  21.271  0.1817  0.0207 -0.0590
26821W        W69759   3.703  18.020  17.577  0.1392 -0.0386 -0.2023
26822W        W69760   5.688  15.075  18.679 -0.4166 -0.2090  0.0100
26823W        W69761   4.826  18.377  18.552  0.0010  0.0858  0.1204
26824W        W69762   3.521  18.373  18.234 -0.1205  0.3533 -0.1450
26825W        W69763   3.550  16.332  18.695  0.1953  0.1019  0.0223
26826W        W69764   4.834  13.387  19.210 -0.0354  0.2498 -0.2083
26827W        W69765   4.410  15.214  17.217  0.2622 -0.1547  0.1920
26828W        W69766   4.475  16.766  17.994 -0.0806  0.0631 -0.0461
26829W        W69767   5.141  16.535  20.146  0.0693 -0.0249 -0.1171
26830W        W69768   6.206  16.770  19.288 -0.4798 -0.1686 -0.0179
26831W        W69769   4.900  18.449  17.213 -0.0626 -0.2235 -0.1875
26832W        W69770   4.843  17.573  19.321  0.3686  0.2703 -0.3974
26833W        W69771   6.465  17.959  17.712 -0.3083 -0.1963 -0.2436
26834W        W69772   3.941  16.628  17.925  0.2146 -0.1031 -0.2855
26835W        W69773   3.258  15.342  19.566 -0.1261  0.2937 -0.3673
26836W        W69774   4.726  15.791  20.340 -0.0736  0.2801  0.3328
26837W        W69775   5.127  17.132  17.450 -0.0635 -0.1244 -0.1543
26838W        W69776   4.207  13.712  16.521  0.1145 -0.3020  0.0089
26839W        W69777   5.017  16.618  17.197  0.1136 -0.0655 -0.0465
26840W        W69778   4.955  18.282  21.026  0.1505  0.0198  0.1430
26841W        W69779   2.866  17.408  17.790  0.0422 -0.1850  0.0237
26842W        W69780   5.421  20.091  16.899 -0.2699  0.0547 -0.1010
26843W        W69781   6.204  17.024  16.784 -0.0660 -0.2270 -0.1783
26844W        W69782   4.679  16.192  16.989 -0.1446  0.0434  0.2558
26845W        W69783   6.236  18.786  18.489  0.1569  0.0162  0.1595
26846W        W69784   2.727  14.717  19.342  0.0241  0.2022  0.0166
26847W        W69785   4.328  18.891  18.939  0.1209  0.1074  0.1876
26848W        W69786   3.118  18.585  18.445 -0.2951 -0.4116 -0.0341
26849W        W69787   6.967  18.051  17.916  0.2238  0.0342  0.0926
26850W        W69788   4.822  17.487  17.474 -0.1607 -0.1698  0.1250
26851W        W69789   6.986  16.391  19.020  0.0943  0.0102 -0.2378
26852W        W69790   5.517  14.431  17.415  0.0751 -0.1868 -0.1883
26853W        W69791   7.182  15.511  18.702 -0.2088  0.2129 -0.1017
26854W        W69792   6.240  16.397  17.223 -0.0308  0.1382  0.1450
26855W        W69793   5.231  17.523  19.041  0.0552  0.0592 -0.2013
26856W        W69794   5.748  14.267  19.347 -0.0083 -0.1549  0.0488
26857W        W69795   4.344  13.981  16.157  0.2098 -0.2074  0.1724
26858W        W69796   4.739  15.848  19.318  0.0902 -0.1804 -0.3423
26859W        W69797   6.382  14.991  19.619 -0.1266  0.1768 -0.0730
26860W        W69798   3.841  17.683  19.499 -0.0234  0.1528 -0.0041
26861W        W69799   5.967  17.222  18.068 -0.0322 -0.1428 -0.2348
26862W        W69800   3.544  16.661  17.615  0.2385  0.1404 -0.2632
26863W        W69801   4.456  16.657  17.039 -0.1297  0.0135  0.0717
26864W        W69802   5.997  15.316  19.441 -0.0565 -0.4068 -0.0845
26865W        W69803   4.009  17.701  16.234  0.0500  0.2667  0.1500
26866W        W69804   5.426  15.821  18.015 -0.0475 -0.2664  0.1674
26867W        W69805   3.906  19.126  17.880 -0.0008  0.0766 -0.1707
26868W        W69806   4.492  17.998  18.441 -0.5026 -0.1301  0.3425
26869W        W69807   3.653  19.335  17.431  0.1671  0.0716 -0.0358
26870W        W69808   3.045  14.787  16.908  0.1604  0.0684 -0.0945
26871W        W69809   6.412  15.236  17.256 -0.1604 -0.1463 -0.0445
26872W        W69810   5.223  16.017  19.097 -0.2166 -0.0904  0.3620
26873W        W69811   7.101  13.607  18.574 -0.1974  0.2755 -0.0073
26874W        W69812   4.743  14.883  17.281 -0.2043  0.0421 -0.0950
26875W        W69813   5.556  14.855  17.081  0.2330 -0.0603 -0.1400
26876W        W69814   6.041  17.575  17.156  0.0961  0.0219 -0.0467
26877W        W69815   4.388  16.219  19.225 -0.0116  0.0176 -0.0020
26878W        W69816   3.707  16.970  17.178 -0.1303 -0.0632 -0.1189
26879W        W69817   5.861  17.764  19.402  0.3112  0.0613 -0.0502
26880W        W69818   5.035  16.352  16.206  0.1486  0.1120 -0.1357
26881W        W69819   7.479  18.505  18.829  0.2954  0.1025 -0.3461
26882W        W69820   3.826  14.464  17.842 -0.0450  0.0557 -0.1910
26883W        W69821   5.165  13.291  16.832  0.0201  0.1316  0.1658
26884W        W69822   2.512  16.455  17.370  0.2052 -0.2091  0.2767
26885W        W69823   4.913  15.616  18.700 -0.0301 -0.0073 -0.3712
26886W        W69824   6.481  18.492  19.205 -0.1878 -0.0235  0.0219
26887W        W69825   2.783  16.085  17.551  0.0626  0.1185  0.0374
26888W        W69826   7.167  17.966  16.963 -0.1388 -0.0910 -0.0594
26889W        W69827   6.046  16.552  16.732 -0.1949 -0.0643 -0.3310
26890W        W69828   6.214  18.044  17.122  0.1142  0.0974  0.0051
26891W        W69829   6.070  16.222  17.802  0.0622 -0.1120 -0.0337
26892W        W69830   5.370  17.527  17.678 -0.3795 -0.1264 -0.2531
26893W        W69831   2.640  14.566  17.221  0.0466 -0.0423  0.0273
26894W        W69832   4.847  18.038  19.315 -0.0424  0.0585 -0.3532
26895W        W69833   6.223  17.083  18.896 -0.1954 -0.1995  0.2356
26896W        W69834   5.097  14.624  17.131  0.1085 -0.2370  0.3919
26897W        W69835   5.064  15.926  17.685  0.0244  0.0196  0.2563
26898W        W69836   4.655  17.762  17.980 -0.0459 -0.2318  0.0535
26899W        W69837   7.680  15.012  17.600  0.1428  0.0208 -0.3602
26900W        W69838   6.459  16.137  20.394  0.3078 -0.0225  0.1620
26901W        W69839   5.333  17.786  16.618 -0.0096  0.0647 -0.4038
26902W        W69840   6.163  16.063  19.962 -0.2013  0.1452  0.0702
26903W        W69841   5.737  16.229  19.187 -0.1168  0.3927 -0.2669
26904W        W69842   4.049  18.922  19.431  0.2853  0.1134  0.1057
26905W        W69843   3.150  17.081  16.764 -0.2459 -0.2303  0.0857
26906W        W69844   5.151  16.665  19.162  0.2516  0.2134  0.3792
26907W        W69845   5.263  16.177  17.215 -0.1065 -0.0464 -0.0220
26908W        W69846   4.975  17.946  17.205  0.2499  0.1940  0.2123
26909W        W69847   5.456  17.050  17.984  0.1259  0.0827  0.1055
26910W        W69848   5.672  16.117  16.923  0.0788 -0.3187 -0.0796
26911W        W69849   6.231  18.410  17.742 -0.0496 -0.0188  0.2974
26912W        W69850   3.335  15.115  17.852  0.0563 -0.3177  0.0495
26913W        W69851   7.436  16.539  17.078  0.0242  0.0886  0.1503
26914W        W69852   5.468  13.844  16.359 -0.0583  0.3365 -0.0563
26915W        W69853   4.240  16.402  18.317 -0.0140 -0.1648  0.1473
26916W        W69854   3.289  16.664  17.183 -0.1498 -0.2114 -0.0076
26917W        W69855   5.152  17.016  16.947  0.0290 -0.1264 -0.2884
26918W        W69856   4.158  16.573  18.856  0.0590 -0.4880 -0.0098
26919W        W69857   5.002  13.973  22.110  0.2787  0.0072  0.0329
26920W        W69858   3.703  15.353  17.698  0.4744  0.0580 -0.0545
26921W        W69859   2.630  15.032  17.152 -0.0446  0.0594 -0.0311
26922W        W69860   4.459  14.453  17.410  0.2494 -0.1397  0.0352
26923W        W69861   6.711  17.744  16.259 -0.2401  0.1960  0.1918
26924W        W69862   3.409  15.030  18.312 -0.0621 -0.1241 -0.1175
26925W        W69863   2.959  14.846  18.080  0.0637 -0.1625  0.0477
26926W        W69864   5.829  17.156  17.582  0.0491  0.1918 -0.1325
26927W        W69865   5.816  17.657  17.716 -0.2593  0.0058  0.0719
26928W        W69866   4.203  13.018  17.949  0.2564 -0.1358  0.0739
26929W        W69867   6.340  17.688  18.112 -0.0255 -0.0591  0.0185
26930W        W69868   3.683  17.371  17.467  0.3087 -0.2874 -0.0571
26931W        W69869   5.411  17.637  19.507  0.2213 -0.1319 -0.0827
26932W        W69870   5.652  15.060  20.162  0.1476 -0.0705  0.0993
26933W        W69871   3.015  14.317  16.823 -0.0999 -0.0567  0.1539
26934W        W69872   5.641  15.928  19.773 -0.1037  0.4232 -0.0853
26935W        W69873   5.353  18.776  17.328  0.1989  0.0668  0.0928
26936W        W69874   5.821  18.627  17.347  0.0367 -0.0211 -0.1541
26937W        W69875   5.702  18.214  18.313  0.2548  0.1218 -0.1175
26938W        W69876   5.026  17.123  19.247  0.3714 -0.2126 -0.0782
26939W        W69877   1.561  14.482  19.091 -0.1737  0.0006  0.1726
26940W        W69878   6.862  16.927  16.922 -0.2711 -0.1188 -0.2142
26941W        W69879   5.910  16.613  18.799 -0.1675  0.1718 -0.0636
26942W        W69880   6.251  17.733  16.684 -0.0151 -0.2035  0.2124
26943W        W69881   7.081  15.534  19.666  0.1256 -0.0747  0.1613
26944W        W69882   5.894  15.317  17.111  0.0601 -0.0716  0.3653
26945W        W69883   5.223  14.319  19.673 -0.3049  0.0410  0.2372
26946W        W69884   5.460  15.502  18.854  0.2382  0.0907 -0.1011
26947W        W69885   6.479  15.843  19.248  0.2125 -0.1748 -0.1270
26948W        W69886   3.958  13.472  17.341 -0.0680 -0.0845 -0.2198
26949W        W69887   4.984  14.994  18.168 -0.1849  0.0453 -0.1422
26950W        W69888   4.551  17.926  17.421 -0.2277  0.2684 -0.1997
26951W        W69889   4.576  15.926  18.831  0.0593  0.2741  0.1159
26952W        W69890   4.203  14.889  17.605  0.0183  0.2035  0.1264
26953W        W69891   5.585  17.230  19.931  0.2612  0.1158  0.1713
26954W        W69892   6.216  19.392  17.634  0.1289 -0.0271 -0.2387
26955W        W69893   6.723  16.724  19.275 -0.3073  0.2539 -0.0163
26956W        W69894   2.951  15.782  18.050 -0.0084 -0.2501 -0.2097
26957W        W69895   5.875  16.832  17.129  0.0860 -0.0690  0.2165
26958W        W69896   5.784  18.359  19.933 -0.2337  0.0616  0.2448
26959W        W69897   6.220  20.095  21.149  0.1082 -0.1793 -0.3035
26960W        W69898   4.990  20.132  17.924  0.3717  0.0314  0.0382
26961W        W69899   5.156  15.481  20.003  0.2936  0.1124 -0.2561
26962W        W69900   2.914  15.277  18.355 -0.2021 -0.3922  0.0580
26963W        W69901   4.602  15.752  17.901  0.2343  0.0461 -0.2574
26964W        W69902   5.187  17.524  17.093  0.0096 -0.3810 -0.0719
26965W        W69903   5.966  14.980  18.261 -0.1201  0.2551 -0.0967
26966W        W69904   2.746  14.836  18.594  0.4069  0.1913 -0.0592
26967W        W69905   6.169  13.649  17.571  0.0049  0.3374 -0.0291
26968W        W69906   5.161  18.337  20.027  0.2379 -0.2009 -0.1942
26969W        W69907   5.022  17.350  18.017 -0.2454  0.2546 -0.3413
26970W        W69908   5.205  15.750  22.602 -0.2262  0.0369 -0.0897
26971W        W69909   4.774  16.622  20.995 -0.0251 -0.1492  0.2050
26972W        W69910   4.454  15.541  21.551  0.0467 -0.0638  0.0122
26973W        W69911   8.050  15.431  22.563 -0.0535  0.3300 -0.2584
26974W        W69912   5.172  14.526  20.655  0.2111 -0.2527 -0.2088
26975W        W69913   5.486  19.205  20.971  0.1544  0.1993 -0.3010
26976W        W69914   4.206  15.308  23.371  0.3856  0.1396  0.2969
26977W        W69915   7.097  18.238  22.061 -0.1508  0.1540 -0.0091
26978W        W69916   6.715  19.033  23.601 -0.0102 -0.0123  0.1009
26979W        W69917   4.961  16.809  19.687  0.1768 -0.2868  0.5412
26980W        W69918   4.049  15.049  23.804 -0.2668 -0.0060 -0.1937
26981W        W69919   4.195  17.341  22.067 -0.0577  0.1560  0.3333
26982W        W69920   4.473  14.850  20.252  0.3008  0.2237 -0.0566
26983W        W69921   4.168  14.930  22.907 -0.2996 -0.2886  0.0183
26984W        W69922   5.298  16.538  22.460  0.0298 -0.0077 -0.1595
26985W        W69923   4.713  17.145  20.138  0.3074  0.2202  0.0921
26986W        W69924   3.456  16.126  21.867  0.2626 -0.2491  0.1629
26987W        W69925   4.904  14.974  20.897  0.2105 -0.0279 -0.1287
26988W        W69926   4.979  19.309  20.592 -0.3180  0.3196  0.0913
26989W        W69927   3.770  14.969  23.226 -0.2675 -0.0680  0.4212
26990W        W69928   6.080  14.294  23.830 -0.2866 -0.1373 -0.1438
26991W        W69929   5.507  15.827  21.239 -0.1267  0.0212  0.2601
26992W        W69930   4.196  16.268  20.012 -0.0787 -0.0020 -0.2493
26993W        W69931   4.163  14.739  21.198 -0.1824  0.3781 -0.1589
26994W        W69932   3.004  16.328  21.805 -0.0891  0.1717  0.4804
26995W        W69933   8.228  15.528  22.118  0.1984  0.0330 -0.0654
26996W        W69934   7.271  16.655  20.947 -0.0282 -0.0210 -0.2729
26997W        W69935   5.058  18.428  22.176 -0.2686  0.1950 -0.1143
26998W        W69936   5.840  17.997  22.232  0.1820  0.2991 -0.0246
26999W        W69937   5.184  15.341  23.407  0.1019 -0.0259 -0.0679
27000W        W69938   3.436  17.253  21.128 -0.2391  0.1287 -0.0259
27001W        W69939   3.801  17.634  21.998  0.1197 -0.0075 -0.1043
27002W        W69940   3.918  14.996  22.298 -0.4141 -0.0128  0.0019
27003W        W69941   6.847  17.652  21.431  0.0178  0.1928 -0.2732
27004W        W69942   6.156  16.956  22.727  0.0478 -0.1666  0.0790
27005W        W69943   4.776  17.334  22.013  0.2381 -0.1518 -0.0706
27006W        W69944   4.244  17.412  19.328  0.0908 -0.3511  0.0601
27007W        W69945   6.085  18.116  23.924 -0.1240 -0.2823  0.2258
27008W        W69946   5.060  16.735  23.342  0.2147 -0.0596 -0.0526
27009W        W69947   4.378  16.483  21.410 -0.2917 -0.0394  0.0001
27010W        W69948   5.122  15.966  21.754 -0.0954 -0.2331  0.1974
27011W        W69949   3.810  18.038  20.274  0.0196 -0.0566 -0.2056
27012W        W69950   4.133  17.801  20.879 -0.2504 -0.0152 -0.0807
27013W        W69951   5.307  18.085  24.394  0.0681 -0.0084  0.1505
27014W        W69952   3.836  16.887  21.170 -0.2488  0.4183 -0.4293
27015W        W69953   6.740  15.747  24.722 -0.0632 -0.0403  0.0150
27016W        W69954   3.539  18.068  19.886 -0.3077 -0.0116 -0.0045
27017W        W69955   6.442  16.264  19.513 -0.0289 -0.1583  0.1050
27018W        W69956   5.040  15.459  19.148  0.1754 -0.0343 -0.1622
27019W        W69957   5.891  16.244  20.995  0.4044 -0.0914 -0.1883
27020W        W69958   4.543  15.252  21.127  0.2280 -0.0871 -0.2041
27021W        W69959   4.862  16.358  21.421  0.0247 -0.0375  0.0632
27022W        W69960   4.506  15.692  22.115  0.1446 -0.0628 -0.0430
27023W        W69961   6.305  15.780  22.942 -0.3891 -0.0963  0.1091
27024W        W69962   3.715  15.756  21.643 -0.2976  0.0457  0.1843
27025W        W69963   5.551  16.256  21.469 -0.3493  0.1918 -0.1138
27026W        W69964   4.070  17.473  22.541 -0.3449  0.0792 -0.1216
27027W        W69965   4.670  15.400  20.676 -0.2490 -0.3155  0.3819
27028W        W69966   7.208  18.037  18.505  0.1925  0.1044 -0.2730
27029W        W69967   7.342  16.554  21.431  0.1125  0.0081 -0.2314
27030W        W69968   4.659  18.582  20.183 -0.2269 -0.3288 -0.2173
27031W        W69969   4.260  15.600  19.824  0.2874  0.1201 -0.5627
27032W        W69970   3.156  17.229  22.718 -0.0476 -0.2811  0.0325
27033W        W69971   4.971  14.410  23.814 -0.1104 -0.0603 -0.4264
27034W        W69972   4.903  14.609  18.911 -0.2135  0.2831  0.3334
27035W        W69973   5.809  16.896  23.554  0.0819 -0.1406  0.0747
27036W        W69974   3.344  17.151  21.683  0.2689  0.1999 -0.4726
27037W        W69975   6.636  14.708  21.513 -0.1814 -0.0892 -0.0421
27038W        W69976   4.314  16.885  20.634 -0.0955  0.0231 -0.3680
27039W        W69977   5.002  17.581  22.408  0.1756  0.1540 -0.0941
27040W        W69978   7.222  18.667  19.278 -0.0485  0.0502 -0.1639
27041W        W69979   5.517  16.306  22.036 -0.2841 -0.1058  0.1543
27042W        W69980   6.079  16.574  21.338 -0.2085 -0.0984  0.1841
27043W        W69981   4.889  17.963  19.782 -0.0094  0.1632 -0.2766
27044W        W69982   4.096  16.470  20.940 -0.2797 -0.1277 -0.0691
27045W        W69983   5.836  16.527  22.363 -0.1496  0.1944 -0.0871
27046W        W69984   6.393  15.469  21.297  0.0209 -0.2794  0.0032
27047W        W69985   4.328  16.902  22.198 -0.1172  0.4783 -0.1451
27048W        W69986   3.891  16.064  23.255 -0.2023  0.0546 -0.1420
27049W        W69987   5.005  16.232  22.670  0.0499 -0.0037 -0.2561
27050W        W69988   3.513  17.567  20.530 -0.1502 -0.2323 -0.1761
27051W        W69989   2.124  15.990  21.437 -0.0964  0.0071 -0.1335
27052W        W69990   4.714  17.892  20.797  0.2044 -0.0702 -0.1381
27053W        W69991   3.480  14.025  22.530  0.4824 -0.0589 -0.0730
27054W        W69992   2.750  16.833  20.480  0.0173  0.3063 -0.2302
27055W        W69993   5.791  14.257  22.115 -0.2617 -0.2085 -0.2135
27056W        W69994   4.649  14.615  22.919 -0.1870  0.0994  0.1779
27057W        W69995   7.037  12.610  21.586  0.3312 -0.3799 -0.2820
27058W        W69996   3.554  18.039  20.762 -0.0097  0.1230 -0.2798
27059W        W69997   5.897  17.472  21.075 -0.4136 -0.3428 -0.2581
27060W        W69998   7.001  15.697  21.237  0.0284 -0.0679 -0.0209
27061W        W69999   6.393  17.485  20.663  0.0401 -0.1742  0.0897
27062W        W70000   2.765  17.325  21.665 -0.1691  0.0622 -0.1666
27063W        W70001   3.364  15.550  21.928 -0.0685  0.0523 -0.1109
27064W        W70002   2.806  14.601  22.764  0.1288 -0.0063 -0.0574
27065W        W70003   4.224  15.498  20.413 -0.0840 -0.0864  0.0472
27066W        W70004   7.809  16.920  24.472 -0.0700  0.0301  0.1126
27067W        W70005   4.199  14.219  20.920  0.1247 -0.3391  0.0553
27068W        W70006   5.498  16.330  20.607  0.2074 -0.2510 -0.2164
27069W        W70007   4.982  15.085  22.270  0.0340  0.1373 -0.1239
27070W        W70008   3.107  17.275  20.501 -0.5314  0.0816  0.0723
27071W        W70009   5.938  14.896  23.378  0.1036 -0.1792  0.1129
27072W        W70010   5.007  17.453  20.536 -0.1815  0.0651 -0.1111
27073W        W70011   5.596  18.192  23.939  0.1229  0.2011 -0.1269
27074W        W70012   4.567  17.520  21.110  0.0533 -0.0358  0.2386
27075W        W70013   5.106  15.322  22.834 -0.0026  0.0754 -0.0758
27076W        W70014   3.675  17.080  20.747  0.1591  0.0912 -0.4411
27077W        W70015   4.682  17.059  22.516 -0.0543  0.2047 -0.2371
27078W        W70016   4.759  16.738  20.514  0.0001  0.1001  0.1979
27079W        W70017   5.562  14.906  21.110 -0.0579  0.1157 -0.1156
27080W        W70018   6.638  18.468  21.926 -0.5892  0.1811  0.2134
27081W        W70019   4.480  17.376  20.524 -0.2847 -0.0535  0.0256
27082W        W70020   2.380  17.839  23.304 -0.1941  0.1040  0.0567
27083W        W70021   5.409  14.093  22.402  0.2531 -0.2627  0.1677
27084W        W70022   5.575  15.314  21.478  0.2002 -0.0455 -0.2865
27085W        W70023   5.204  16.574  21.765  0.0009 -0.1347 -0.0604
27086W        W70024   3.659  14.289  20.183  0.2859 -0.1656  0.0890
27087W        W70025   6.829  17.630  22.177  0.3306  0.0780 -0.2168
27088W        W70026   3.954  17.088  18.729  0.0150 -0.3172  0.2723
27089W        W70027   2.990  16.556  19.575 -0.0516 -0.1565 -0.3804
27090W        W70028   6.877  18.667  21.527 -0.2173 -0.0566  0.1357
27091W        W70029   7.495  16.222  23.076  0.1447  0.1984 -0.1799
27092W        W70030   3.479  16.258  22.971 -0.0626 -0.0002  0.1768
27093W        W70031   6.205  15.634  22.427 -0.0302  0.0152  0.1501
27094W        W70032   4.656  14.837  19.743  0.0581  0.0605 -0.2858
27095W        W70033   2.165  18.837  23.348 -0.1389  0.2249 -0.2464
27096W        W70034   6.946  15.219  21.502 -0.0377 -0.1861 -0.1988
27097W        W70035   6.393  14.608  20.970  0.0441  0.0824  0.1136
27098W        W70036   6.366  15.824  25.042 -0.0908  0.0320 -0.0751
27099W        W70037   5.602  17.544  21.471  0.2922  0.2251  0.2568
27100W        W70038   5.003  14.944  20.307 -0.0565  0.1235 -0.0746
27101W        W70039   5.418  14.191  21.718  0.0446 -0.1720  0.1205
27102W        W70040   2.189  17.853  21.438 -0.0460  0.0433  0.3245
27103W        W70041   4.788  16.907  21.416 -0.2050  0.1074 -0.0596
27104W        W70042   4.954  15.577  22.110  0.0228  0.0205  0.0198
27105W        W70043   3.459  16.241  19.589  0.0562  0.2322 -0.2163
27106W        W70044   6.830  17.315  23.315  0.0920  0.1060 -0.0800
27107W        W70045   3.455  16.720  22.646 -0.0648 -0.0215  0.1359
27108W        W70046   5.672  17.948  24.824  0.2196  0.0293  0.2121
27109W        W70047   6.033  17.112  22.149 -0.1693  0.5342 -0.5279
27110W        W70048   5.520  14.625  23.094  0.0110 -0.2388  0.0327
27111W        W70049   3.293  16.820  19.827 -0.0817  0.0952  0.2004
27112W        W70050   3.948  15.252  20.811 -0.0861  0.1004  0.0390
27113W        W70051   3.266  18.162  20.335  0.1736 -0.1229  0.1189
27114W        W70052   6.993  16.435  22.712 -0.3403 -0.1931  0.1341
27115W        W70053   7.197  15.869  23.308 -0.1704  0.0227 -0.1963
27116W        W70054   5.932  14.685  22.903  0.0888  0.1836  0.0189
27117W        W70055   5.372  15.800  23.527 -0.2498 -0.0625  0.2896
27118W        W70056   5.355  15.359  20.444  0.3619 -0.0450 -0.3001
27119W        W70057   5.962  16.257  21.709  0.1852  0.0820 -0.0126
27120W        W70058   4.556  16.135  20.959 -0.0975  0.4788  0.2652
27121W        W70059   5.607  15.201  23.050 -0.0332  0.0371  0.0171
27122W        W70060   2.646  17.478  23.059  0.2507  0.1176 -0.4468
27123W        W70061   4.404  16.745  24.015  0.1050  0.0852  0.1735
27124W        W70062   4.831  17.023  23.846  0.3175  0.0088  0.0944
27125W        W70063   3.910  16.408  22.607  0.0183 -0.3037  0.3577
27126W        W70064   5.615  14.509  22.568  0.1370  0.0066  0.0336
27127W        W70065   3.459  15.451  19.122  0.1205 -0.0081  0.4585
27128W        W70066   4.066  17.962  19.845 -0.0244  0.1223 -0.0961
27129W        W70067   5.352  16.337  19.553 -0.1998 -0.0641  0.1857
27130W        W70068   4.398  14.239  21.371 -0.1716 -0.1233  0.0405
27131W        W70069   3.409  16.297  21.392  0.0310 -0.5815 -0.0887
27132W        W70070   6.190  17.961  20.124  0.0533  0.3870 -0.0003
27133W        W70071   6.828  16.339  23.652  0.0128  0.0041  0.2531
27134W        W70072   4.193  17.363  19.822 -0.0364  0.1500 -0.0866
27135W        W70073   6.619  15.607  22.168 -0.3276  0.1021 -0.1195
27136W        W70074   3.068  17.544  20.932 -0.1566  0.0180 -0.0519
27137W        W70075   3.460  16.113  20.086 -0.0247 -0.3647  0.1204
27138W        W70076   2.268  15.947  21.983  0.1823  0.1369  0.0113
27139W        W70077   6.365  16.261  20.876  0.1585  0.0568  0.1085
27140W        W70078   7.023  17.141  22.150 -0.2321  0.1261 -0.1818
27141W        W70079   3.661  14.173  21.793  0.2147  0.1042  0.0024
27142W        W70080   6.033  15.197  21.647  0.2755  0.1171  0.0291
27143W        W70081   4.114  19.653  20.191  0.2517  0.3303 -0.1563
27144W        W70082   5.662  15.311  22.006  0.0165  0.0515  0.0660
27145W        W70083   6.355  15.223  20.788 -0.1442 -0.0161  0.1400
27146W        W70084   5.273  18.065  21.775 -0.2481  0.1822  0.3476
27147W        W70085   4.382  16.579  22.681 -0.1270 -0.1044 -0.0238
27148W        W70086   3.845  16.259  20.375 -0.2194 -0.0205 -0.0610
27149W        W70087   5.650  17.514  22.315 -0.1573 -0.0838  0.3346
27150W        W70088   3.941  15.988  20.883  0.2705  0.2648 -0.1441
27151W        W70089   2.654  17.281  20.709 -0.1731  0.0158  0.4221
27152W        W70090   4.911  18.727  23.085 -0.2879 -0.0112 -0.0393
27153W        W70091   3.753  16.668  20.060  0.0103 -0.2251 -0.2376
27154W        W70092   3.607  17.823  21.545  0.1253  0.4332 -0.1885
27155W        W70093   3.808  16.804  23.763  0.0763 -0.1079 -0.0652
27156W        W70094   6.733  16.798  22.439  0.1312  0.0402 -0.4067
27157W        W70095   3.936  15.182  21.347 -0.1214 -0.3504 -0.0736
27158W        W70096   3.633  14.758  21.371  0.0854  0.3291  0.1513
27159W        W70097   3.606  14.580  22.399  0.0486  0.2750  0.3008
27160W        W70098   4.739  17.104  20.841  0.0247  0.3459 -0.1701
27161W        W70099   4.681  15.961  22.463 -0.2215  0.3771 -0.0033
27162W        W70100   3.609  16.500  23.431 -0.1985 -0.1297  0.0781
27163W        W70101   6.616  16.032  22.481  0.0060  0.2858 -0.4324
27164W        W70102   6.987  19.302  22.093  0.1237  0.1536  0.2181
27165W        W70103   5.762  15.069  22.573 -0.0046 -0.5049 -0.2088
27166W        W70104   4.783  18.049  20.268  0.1240  0.0661 -0.1336
27167W        W70105   3.306  16.781  21.295 -0.1349  0.0634  0.1671
27168W        W70106   3.662  17.128  19.729  0.0457 -0.3708  0.0002
27169W        W70107   5.188  16.346  21.008  0.1960  0.2448 -0.0778
27170W        W70108   4.268  16.410  22.128  0.1227  0.0075  0.0678
27171W        W70109   4.367  18.725  19.828 -0.2885 -0.0133  0.1314
27172W        W70110   3.128  16.799  20.813  0.0222 -0.3753  0.0975
27173W        W70111   6.503  15.256  21.790 -0.1985 -0.0820  0.1387
27174W        W70112   5.154  15.690  19.574 -0.0067 -0.0419  0.2363
27175W        W70113   5.093  15.628  21.374  0.1555  0.2725 -0.2005
27176W        W70114   7.425  16.402  23.663 -0.2616  0.4025  0.1439
27177W        W70115   6.506  16.724  20.991 -0.1429  0.0651 -0.1725
27178W        W70116   4.568  15.738  23.948  0.0905  0.2161 -0.2979
27179W        W70117   3.299  14.084  22.111  0.0586 -0.1920 -0.0171
27180W        W70118   6.398  19.100  21.415  0.2318  0.3249  0.0165
27181W        W70119   3.093  17.209  22.143  0.0323 -0.0030 -0.0103
27182W        W70120   6.521  19.133  24.999 -0.0204  0.3304 -0.1046
27183W        W70121   2.519  16.304  24.558  0.0985 -0.2957 -0.3297
27184W        W70122   4.074  15.388  21.931  0.1654 -0.0193 -0.1409
27185W        W70123   4.307  15.215  19.457 -0.1192  0.2154 -0.1276
27186W        W70124   3.971  16.021  22.006  0.0000  0.0745  0.0417
27187W        W70125   6.671  17.818  20.961  0.2127 -0.4251  0.0984
27188W        W70126   5.603  16.815  20.475  0.0279  0.0952 -0.0847
27189W        W70127   5.630  16.677  20.997 -0.0296  0.2177 -0.0318
27190W        W70128   3.471  16.018  20.654  0.0007  0.0465 -0.1784
27191W        W70129   6.664  17.305  21.793 -0.0150  0.1503 -0.0845
27192W        W70130   5.179  16.832  20.752 -0.1562 -0.0252 -0.1618
27193W        W70131   3.973  16.335  21.626 -0.1349  0.0943 -0.1904
27194W        W70132   3.755  15.614  24.150 -0.0698  0.0091  0.2035
27195W        W70133   6.060  17.025  21.526 -0.2303  0.0230  0.1210
27196W        W70134   3.745  15.644  22.270  0.0989  0.0509  0.0450
27197W        W70135   6.313  16.470  22.234 -0.0882 -0.2398 -0.0538
27198W        W70136   5.604  16.129  22.492 -0.2311 -0.1506 -0.1545
27199W        W70137   4.785  15.719  22.929  0.2206  0.1611  0.2735
27200W        W70138   4.530  15.239  24.031  0.2640 -0.0930 -0.2141
27201W        W70139   6.478  18.038  23.570 -0.0725  0.0696 -0.0708
27202W        W70140   6.671  16.185  21.259 -0.2218  0.0282 -0.0123
27203W        W70141   6.874  16.341  22.233  0.2694 -0.1005 -0.0113
27204W        W70142   6.864  17.147  21.106  0.1209 -0.1680  0.1979
27205W        W70143   4.095  15.865  21.336  0.1194 -0.2097  0.1727
27206W        W70144   3.261  15.863  22.895  0.0249  0.2494  0.1262
27207W        W70145   4.348  15.860  23.443 -0.0725  0.1509  0.0374
27208W        W70146   3.931  15.480  19.010 -0.2459  0.0021 -0.1769
27209W        W70147   4.717  15.336  23.549 -0.0594  0.0663  0.2195
27210W        W70148   4.032  18.253  20.742  0.0198 -0.0315  0.0307
27211W        W70149   5.637  17.259  21.877 -0.2201  0.0032 -0.4606
27212W        W70150   5.443  15.771  22.195 -0.5057  0.0508 -0.0752
27213W        W70151   1.702  14.872  21.231 -0.0205 -0.2288  0.2380
27214W        W70152   3.820  16.746  22.957  0.0413  0.1113 -0.2897
27215W        W70153   4.227  15.085  18.978  0.0983  0.0049  0.4745
27216W        W70154   5.193  15.974  20.331  0.1597 -0.0259 -0.0428
27217W        W70155   4.023  18.639  21.942 -0.0340 -0.1727  0.1979
27218W        W70156   6.023  16.099  24.717 -0.0771  0.0348 -0.3652
27219W        W70157   5.792  13.564  20.017 -0.3005  0.2184  0.1099
27220W        W70158   6.296  15.698  23.448 -0.2406 -0.4226 -0.1517
27221W        W70159   3.175  14.912  21.434 -0.2266  0.0639 -0.1430
27222W        W70160   4.333  14.144  22.209 -0.1782  0.0352 -0.3299
27223W        W70161   5.615  18.400  22.347  0.0388  0.3402  0.0287
27224W        W70162   3.584  18.511  20.485  0.2150  0.1611 -0.3579
27225W        W70163   6.089  18.657  21.949 -0.2658 -0.2663 -0.1219
27226W        W70164   6.799  16.034  22.998  0.0001  0.0337  0.1822
27227W        W70165   5.592  15.763  21.696  0.0427 -0.1513 -0.0488
27228W        W70166   6.105  16.111  22.592  0.2206 -0.1582 -0.1805
27229W        W70167   7.627  15.890  22.036  0.3155  0.2106  0.0220
27230W        W70168   5.017  16.298  23.555 -0.4665 -0.2452 -0.1310
27231W        W70169   2.347  15.929  23.044  0.2579 -0.1639  0.3227
27232W        W70170   5.495  17.925  22.678  0.4908 -0.3553  0.0891
27233W        W70171   7.642  17.189  22.771  0.1348  0.1516 -0.1726
27234W        W70172   5.420  16.975  22.638 -0.0073 -0.1668  0.1974
27235W        W70173   3.685  14.684  23.701 -0.0961  0.1450  0.1047
27236W        W70174   5.397  16.378  24.052 -0.1657 -0.0115  0.0313
27237W        W70175   5.521  15.753  20.730 -0.1698  0.1486 -0.1025
27238W        W70176   4.435  15.007  21.647 -0.0155  0.2163  0.2341
27239W        W70177   5.194  17.967  20.499  0.0572  0.1632 -0.0358
27240W        W70178   4.146  17.652  21.363  0.0611  0.1968  0.1124
27241W        W70179   2.949  16.835  21.793 -0.0391 -0.4199  0.1877
27242W        W70180   3.865  18.091  21.177 -0.0873 -0.1598 -0.1393
27243W        W70181   4.842  16.324  19.429 -0.0626 -0.1822  0.2155
27244W        W70182   5.146  14.934  23.179  0.0364  0.1638 -0.0809
27245W        W70183   6.286  17.750  22.057 -0.1739  0.0240  0.0602
27246W        W70184   3.522  17.166  19.220 -0.0928  0.1222 -0.2443
27247W        W70185   3.483  17.068  20.273  0.1132 -0.2391  0.3888
27248W        W70186   3.218  17.324  19.947  0.2412  0.4017  0.1288
27249W        W70187   6.058  18.677  21.084  0.0479 -0.0504 -0.1569
27250W        W70188   3.609  17.664  21.033 -0.0605  0.1000  0.0066
27251W        W70189   6.006  17.857  23.504  0.1574  0.1537  0.2987
27252W        W70190   4.800  14.182  21.681 -0.0421 -0.0327  0.0147
27253W        W70191   8.024  15.436  23.516 -0.1183 -0.0004 -0.1996
27254W        W70192   7.687  13.545  20.714  0.0108  0.0083 -0.0442
27255W        W70193   6.289  17.162  23.331  0.2339  0.1482  0.0020
27256W        W70194   5.405  15.651  23.051  0.4351 -0.0232 -0.2863
27257W        W70195   5.159  13.901  20.804  0.2763  0.3137 -0.2458
27258W        W70196   3.445  15.056  22.149  0.0226  0.0398  0.0984
27259W        W70197   8.144  17.265  23.985 -0.0374 -0.0239  0.0978
27260W        W70198   2.489  16.934  21.543 -0.1670 -0.3166 -0.1169
27261W        W70199   6.329  18.620  21.510 -0.0694 -0.0848  0.2473
27262W        W70200   4.154  16.598  19.616 -0.1660 -0.0198  0.0737
27263W        W70201   3.604  16.493  20.968 -0.3840 -0.0177  0.3290
27264W        W70202   7.860  14.774  22.455  0.3140  0.0477  0.1309
27265W        W70203   4.280  16.743  20.103  0.0701  0.1066 -0.0865
27266W        W70204   4.628  14.990  22.640 -0.2049 -0.0571 -0.2321
27267W        W70205   4.036  18.393  20.040  0.1751  0.1022 -0.2081
27268W        W70206   3.968  17.617  23.094  0.2203 -0.0174 -0.0879
27269W        W70207   4.957  18.840  21.871 -0.0528  0.0977 -0.4295
27270W        W70208   2.882  16.520  21.368  0.1396 -0.2095 -0.0455
27271W        W70209   6.661  15.604  20.424  0.0268 -0.0839  0.3283
27272W        W70210   3.068  14.989  22.577  0.0555 -0.0949  0.0708
27273W        W70211   6.712  14.208  22.983 -0.0629  0.0512  0.3477
27274W        W70212   4.467  16.098  21.741 -0.0259 -0.2809  0.0097
27275W        W70213   6.423  15.178  20.293 -0.3894  0.3349 -0.3541
27276W        W70214   5.218  16.098  23.095 -0.1621  0.4397 -0.1975
27277W        W70215   3.578  16.085  22.420 -0.0173  0.2186 -0.0875
27278W        W70216   4.077  16.125  18.701  0.0042 -0.2627 -0.0058
27279W        W70217   7.582  18.217  21.924 -0.1964  0.0148  0.0780
27280W        W70218   5.928  16.100  20.495  0.2415  0.4122 -0.0068
27281W        W70219   5.483  17.823  23.587 -0.1632 -0.1747 -0.1820
27282W        W70220   3.470  15.313  21.479 -0.0290 -0.0417 -0.2459
27283W        W70221   7.076  15.208  22.558 -0.2719 -0.0239  0.1702
27284W        W70222   2.841  16.346  20.591 -0.2365 -0.0152  0.0841
27285W        W70223   3.488  14.911  22.808 -0.2180  0.0321 -0.2112
27286W        W70224   6.506  16.720  23.561  0.0010  0.1705 -0.1351
27287W        W70225   3.755  14.739  20.773  0.2277  0.2345  0.0592
27288W        W70226   7.837  17.556  22.448 -0.3492  0.0481 -0.0996
27289W        W70227   5.328  18.131  19.055 -0.1111  0.0854  0.1452
27290W        W70228   3.106  18.746  20.408 -0.1470  0.3958  0.3039
27291W        W70229   5.533  17.136  21.152  0.0334  0.0534 -0.2845
27292W        W70230   5.413  18.666  23.214  0.0274  0.0995  0.4768
27293W        W70231   2.654  16.513  22.129 -0.1018 -0.0269 -0.0843
27294W        W70232   6.768  16.872  23.060  0.1197  0.0041  0.1589
27295W        W70233   6.840  17.679  23.653  0.0379  0.3007  0.2555
27296W        W70234   5.838  15.533  21.119 -0.3093  0.1358 -0.0629
27297W        W70235   3.788  16.491  22.126 -0.0207 -0.2681 -0.1965
27298W        W70236   2.599  17.569  22.189  0.1235  0.1280  0.2245
27299W        W70237   6.934  17.367  24.163 -0.2203  0.0898  0.3632
27300W        W70238   5.490  14.401  23.672 -0.3965  0.1443  0.1165
27301W        W70239   5.199  18.907  20.181 -0.1590  0.0700 -0.0792
27302W        W70240   7.940  16.281  23.736  0.1010  0.3821  0.3019
27303W        W70241   5.722  17.329  22.818 -0.2592  0.3290  0.1419
27304W        W70242   4.514  17.960  24.469 -0.1931  0.1090  0.2446
27305W        W70243   4.103  17.296  20.945  0.1857 -0.4093 -0.0058
27306W        W70244   6.201  16.431  24.371  0.0308 -0.0297  0.1903
27307W        W70245   4.018  17.551  20.362  0.1300 -0.0426  0.0095
27308W        W70246   4.566  17.152  19.608  0.1473 -0.0528  0.0486
27309W        W70247   6.699  18.347  22.406  0.2607  0.1469  0.0567
27310W        W70248   5.626  14.730  21.624 -0.2352  0.4273  0.3961
27311W        W70249   5.492  16.801  22.096 -0.4604  0.1228 -0.0475
27312W        W70250   7.165  15.776  22.784  0.0620  0.1235  0.1938
27313W        W70251   7.186  15.506  21.856 -0.1220  0.1294 -0.0428
27314W        W70252   6.225  14.284  21.330 -0.0426  0.0465 -0.0670
27315W        W70253   2.384  17.280  23.414  0.2247  0.0890  0.0634
27316W        W70254   2.907  16.205  19.941 -0.0127 -0.3147 -0.0213
27317W        W70255   3.194  16.600  20.316  0.2295  0.2630  0.1976
27318W        W70256   3.757  17.010  21.962  0.0031 -0.0288  0.1611
27319W        W70257   6.116  15.168  22.185  0.0406 -0.1792 -0.2793
27320W        W70258   3.607  15.867  23.659  0.3981  0.2268 -0.0126
27321W        W70259   3.528  16.639  21.709 -0.1449  0.3960 -0.0302
27322W        W70260   4.357  16.400  20.543  0.0479 -0.0313 -0.0170
27323W        W70261   7.212  17.561  21.166 -0.1356 -0.1764 -0.1523
27324W        W70262   4.738  15.437  22.530  0.2035  0.0280  0.1694
27325W        W70263   2.071  14.304  22.945  0.3300  0.4653  0.0239
27326W        W70264   5.690  18.416  21.858 -0.0935 -0.1338  0.1692
27327W        W70265   6.812  18.197  21.414  0.0237  0.0236  0.1543
27328W        W70266   4.875  16.266  20.564 -0.1314 -0.1216 -0.1158
27329W        W70267   7.473  19.056  23.364  0.0265 -0.0116  0.3303
27330W        W70268   4.091  16.939  19.204  0.3211  0.1889  0.1669
27331W        W70269   4.236  15.363  22.445  0.1255  0.0300  0.1085
27332W        W70270   3.499  15.381  23.077 -0.0742  0.1406 -0.2773
27333W        W70271   2.030  14.820  20.806  0.0179 -0.0375 -0.2140
27334W        W70272   3.366  15.451  22.534  0.2922  0.0244 -0.1239
27335W        W70273   4.358  16.881  21.137  0.1891 -0.1134  0.0568
27336W        W70274   4.526  18.323  20.643  0.0906 -0.2176  0.0461
27337W        W70275   5.387  15.315  22.389 -0.1131  0.0285  0.1694
27338W        W70276   4.694  16.998  23.161 -0.1957  0.1290 -0.2378
27339W        W70277   3.380  15.134  20.942  0.0743  0.0248  0.1478
27340W        W70278   4.742  16.506  22.327 -0.0184  0.0724 -0.0954
27341W        W70279   4.608  16.628  23.537 -0.3514  0.0104  0.1129
27342W        W70280   6.059  16.695  20.068  0.1212 -0.0928  0.1565
27343W        W70281   6.403  14.311  21.875 -0.0976  0.2920 -0.2311
27344W        W70282   5.217  16.748  21.249  0.0468  0.1804  0.2121
27345W        W70283   3.266  14.447  22.798 -0.2543  0.0650  0.0765
27346W        W70284   3.314  18.229  23.585  0.0858  0.1151  0.1035
27347W        W70285   6.944  17.926  22.671  0.1294  0.3764  0.0627
27348W        W70286   6.026  15.071  21.160 -0.2628 -0.2851  0.1446
27349W        W70287   6.946  15.122  22.055  0.0384 -0.0810  0.4060
27350W        W70288   5.214  17.520  21.960 -0.0741 -0.2092 -0.1231
27351W        W70289   2.926  15.344  21.739  0.2079  0.0213 -0.1724
27352W        W70290   5.934  16.020  22.147 -0.2835 -0.0960 -0.2211
27353W        W70291   3.838  15.798  22.771  0.1811 -0.0275 -0.2443
27354W        W70292   4.207  16.823  21.716  0.0897 -0.0796 -0.0779
27355W        W70293   5.522  15.787  24.022 -0.1298 -0.0185 -0.0752
27356W        W70294   6.524  14.831  22.061 -0.0770  0.0361  0.2796
27357W        W70295   6.689  16.823  18.769  0.5173  0.2276 -0.2906
27358W        W70296   5.132  17.524  20.992  0.0512 -0.1017  0.2610
27359W        W70297   8.770  18.697  23.498 -0.0881  0.3166 -0.1563
27360W        W70298   5.599  16.423  23.424 -0.1876  0.0746  0.0688
27361W        W70299   7.132  17.034  22.663 -0.1128 -0.0230  0.1707
27362W        W70300   4.107  14.259  23.916 -0.1101  0.0892 -0.1015
27363W        W70301   3.194  15.829  21.483 -0.3230 -0.0105  0.1411
27364W        W70302   4.786  14.201  22.577  0.1548  0.1420  0.1572
27365W        W70303   5.227  15.095  21.843 -0.0203 -0.0736 -0.1626
27366W        W70304   4.316  15.659  20.867 -0.2695 -0.0998 -0.1280
27367W        W70305   6.706  15.556  22.647  0.1115  0.1863 -0.2008
27368W        W70306   3.774  18.382  22.451 -0.0567 -0.1146 -0.0815
27369W        W70307   5.068  16.099  22.187 -0.1947 -0.2687  0.0378
27370W        W70308   4.486  16.379  27.811 -0.0007 -0.2011  0.1007
27371W        W70309   5.769  16.662  25.033 -0.0326  0.3466 -0.4484
27372W        W70310   6.352  15.224  23.386 -0.4292  0.2404  0.1538
27373W        W70311   6.615  16.763  24.500 -0.0459  0.3763 -0.3340
27374W        W70312   3.914  15.007  25.655  0.2474  0.1914 -0.2593
27375W        W70313   5.529  16.979  24.701 -0.0508  0.0157 -0.0738
27376W        W70314   3.473  14.972  27.353 -0.0442 -0.1351 -0.0704
27377W        W70315   6.637  16.264  25.280 -0.1574 -0.2736 -0.1020
27378W        W70316   7.336  17.508  26.918  0.2031  0.0355  0.2349
27379W        W70317   6.844  16.708  25.023  0.0186  0.0068 -0.1596
27380W        W70318   6.283  15.314  26.964 -0.0838  0.0547 -0.1364
27381W        W70319   6.036  16.075  26.752 -0.3348 -0.1474 -0.0353
27382W        W70320   3.866  14.259  22.749  0.3250 -0.0795  0.0463
27383W        W70321   3.724  14.543  25.859 -0.1080 -0.1640 -0.0027
27384W        W70322   6.785  15.702  27.603 -0.0662 -0.1555 -0.1837
27385W        W70323   4.701  16.831  25.469  0.0622 -0.0487 -0.1050
27386W        W70324   4.182  15.329  25.366 -0.2228  0.0526 -0.0274
27387W        W70325   4.200  14.870  25.140  0.0296  0.0812 -0.1225
27388W        W70326   5.942  18.348  26.241 -0.0348 -0.0691 -0.3166
27389W        W70327   5.817  14.509  25.024  0.0419  0.0061 -0.0321
27390W        W70328   5.523  15.011  29.124  0.0040 -0.1363 -0.0222
27391W        W70329   5.723  15.254  24.690 -0.1822 -0.0460  0.1630
27392W        W70330   3.816  16.446  25.113  0.2088 -0.4307  0.0845
27393W        W70331   4.099  14.272  26.714 -0.0537  0.2271  0.1746
27394W        W70332   5.502  15.346  25.691 -0.4029 -0.0166 -0.1263
27395W        W70333   4.643  15.188  25.066 -0.0768  0.1597  0.0070
27396W        W70334   5.660  15.273  24.086 -0.2783 -0.4583 -0.1192
27397W        W70335   5.533  16.432  26.723 -0.0788  0.0599 -0.0618
27398W        W70336   7.090  16.297  26.154  0.1561  0.0605 -0.1829
27399W        W70337   6.433  16.014  28.403 -0.1345 -0.0084 -0.1356
27400W        W70338   4.240  16.810  25.387  0.0592 -0.4363  0.1437
27401W        W70339   3.182  18.564  25.410  0.0741 -0.0123 -0.0181
27402W        W70340   4.344  18.430  24.288 -0.1081  0.2909 -0.1225
27403W        W70341   8.096  17.645  25.111 -0.1217  0.1360  0.0278
27404W        W70342   7.249  16.346  28.166 -0.0436  0.0927 -0.0412
27405W        W70343   5.027  17.963  28.182 -0.2786  0.0834 -0.0668
27406W        W70344   3.792  17.481  25.102  0.1212  0.1053  0.0106
27407W        W70345   5.790  18.819  27.147 -0.0103  0.0805  0.0829
27408W        W70346   4.329  17.440  27.734 -0.0639  0.0790 -0.1332
27409W        W70347   4.813  16.206  25.995  0.0683  0.0939  0.5220
27410W        W70348   4.697  16.385  25.135 -0.1434  0.3577  0.1921
27411W        W70349   4.538  17.554  22.519 -0.0823  0.1670  0.2752
27412W        W70350   5.288  17.809  25.946 -0.0021 -0.2149 -0.3767
27413W        W70351   5.696  16.291  28.777 -0.0048 -0.2930  0.2484
27414W        W70352   6.206  17.928  26.307  0.1676 -0.3017  0.1988
27415W        W70353   7.935  14.801  27.526  0.0359  0.2747  0.2160
27416W        W70354   5.219  17.051  21.724  0.0138  0.1313  0.3074
27417W        W70355   4.528  16.220  23.835  0.1441  0.0662 -0.0676
27418W        W70356   4.024  17.059  23.416 -0.1709  0.0810  0.0862
27419W        W70357   6.411  15.981  24.346  0.0422  0.1198  0.1371
27420W        W70358   5.890  15.028  25.123 -0.1502  0.1383  0.1252
27421W        W70359   5.687  17.524  25.179 -0.0511 -0.2076 -0.0874
27422W        W70360   5.078  15.060  25.398  0.2628 -0.1787  0.2397
27423W        W70361   7.676  16.973  27.826  0.1340 -0.0876  0.2821
27424W        W70362   5.780  16.529  24.547  0.0227  0.0092 -0.0989
27425W        W70363   5.547  14.293  26.296  0.1371 -0.2827 -0.0501
27426W        W70364   4.076  17.169  26.976  0.0899 -0.0725  0.3552
27427W        W70365   4.676  17.096  25.925  0.2575 -0.0343  0.4723
27428W        W70366   6.268  17.763  24.358  0.1849  0.0061  0.1344
27429W        W70367   6.195  17.802  24.833 -0.0128 -0.0554 -0.0014
27430W        W70368   5.916  16.196  23.121  0.0734  0.0794  0.1541
27431W        W70369   4.423  16.128  24.773  0.1908 -0.0918 -0.0594
27432W        W70370   3.484  16.380  27.663 -0.2309 -0.2484  0.0353
27433W        W70371   4.998  16.184  28.524  0.1712 -0.0508  0.1463
27434W        W70372   4.444  14.618  23.792 -0.0770  0.0951  0.3426
27435W        W70373   8.016  18.398  26.488 -0.2856 -0.0258  0.1765
27436W        W70374   5.665  16.832  27.158 -0.0157  0.3399 -0.1129
27437W        W70375   6.632  15.826  26.084 -0.0080 -0.0739 -0.1915
27438W        W70376   4.430  17.471  24.529  0.1477  0.0592  0.1014
27439W        W70377   7.772  17.962  26.640 -0.2253  0.0144  0.1764
27440W        W70378   5.835  16.670  24.037 -0.1261 -0.0734 -0.0478
27441W        W70379   7.159  14.789  26.409  0.2496 -0.1976  0.2830
27442W        W70380   6.382  15.269  24.989  0.0486 -0.0546 -0.2043
27443W        W70381   5.218  16.779  24.286  0.2472 -0.1067  0.1690
27444W        W70382   5.759  16.574  26.351 -0.2640  0.1470  0.2795
27445W        W70383   7.412  16.383  27.110  0.1680  0.1862 -0.0118
27446W        W70384   5.858  15.963  23.532 -0.0527 -0.3123  0.6630
27447W        W70385   4.832  17.097  26.564 -0.1831 -0.1461 -0.2403
27448W        W70386   5.534  15.041  27.551  0.1389 -0.0921 -0.0141
27449W        W70387   5.295  17.811  26.861 -0.3168 -0.0874  0.1460
27450W        W70388   2.030  17.389  25.014 -0.2976 -0.0830 -0.2041
27451W        W70389   4.515  17.442  26.725 -0.2129 -0.1044 -0.2690
27452W        W70390   3.295  17.144  24.244  0.1421  0.1042  0.4014
27453W        W70391   4.338  14.824  25.797  0.0895  0.0231  0.0306
27454W        W70392   4.453  16.552  25.850  0.4441 -0.0927  0.2983
27455W        W70393   6.841  14.965  24.733 -0.0725 -0.0554 -0.0138
27456W        W70394   4.651  15.261  27.733  0.0251 -0.0493 -0.3277
27457W        W70395   6.519  14.937  26.335  0.1490  0.0257  0.0066
27458W        W70396   5.402  16.602  25.346 -0.2759  0.1105  0.0688
27459W        W70397   6.699  16.375  24.228  0.2236  0.3156  0.2998
27460W        W70398   7.089  15.379  24.885 -0.0613  0.2437 -0.1521
27461W        W70399   6.086  16.667  23.194  0.2780 -0.2242 -0.1674
27462W        W70400   4.603  14.426  26.232 -0.0848 -0.1098 -0.1144
27463W        W70401   4.347  16.355  24.329 -0.1468 -0.3296  0.1437
27464W        W70402   2.880  15.597  25.930  0.3010 -0.0850 -0.2573
27465W        W70403   3.041  14.794  25.772 -0.3623  0.2299 -0.1317
27466W        W70404   5.623  15.998  27.082  0.0753 -0.1391 -0.2109
27467W        W70405   3.355  16.577  24.069 -0.2418  0.0278  0.2061
27468W        W70406   6.567  14.616  25.035 -0.0386 -0.2690 -0.2817
27469W        W70407   5.326  16.282  25.720 -0.0780 -0.0553 -0.2134
27470W        W70408   3.855  15.651  26.178 -0.3670  0.2518  0.6849
27471W        W70409   8.065  15.831  27.285 -0.0317  0.2322  0.1556
27472W        W70410   5.801  17.879  24.287 -0.0388 -0.1769 -0.4277
27473W        W70411   9.077  18.592  25.922  0.2549 -0.0379  0.0552
27474W        W70412   8.385  17.122  26.512 -0.2325  0.2197 -0.1599
27475W        W70413   5.457  15.068  26.210 -0.0022  0.0869 -0.2990
27476W        W70414   4.636  15.142  24.543 -0.1933 -0.0451 -0.1625
27477W        W70415   5.777  18.554  25.501 -0.0424  0.1816  0.2151
27478W        W70416   6.183  17.354  25.369  0.1891  0.0417  0.3106
27479W        W70417   4.741  16.982  24.312  0.0277 -0.1162  0.0937
27480W        W70418   7.031  16.805  26.475 -0.1506 -0.3471  0.1242
27481W        W70419   6.098  16.278  25.166  0.0160  0.1919 -0.0171
27482W        W70420   4.209  15.479  26.893  0.1158 -0.2253 -0.0572
27483W        W70421   6.839  14.699  28.027  0.1030 -0.4637  0.0863
27484W        W70422   5.799  14.699  26.284  0.0939  0.2079 -0.3558
27485W        W70423   5.597  15.959  26.549  0.4079 -0.0055  0.3163
27486W        W70424   3.454  14.586  23.240  0.3656  0.2911 -0.0157
27487W        W70425   5.369  18.055  25.522  0.1670 -0.0758 -0.0668
27488W        W70426   4.954  17.545  23.735 -0.0731  0.2348 -0.2986
27489W        W70427   4.130  15.295  26.424  0.2571 -0.1964  0.2456
27490W        W70428   6.321  18.512  25.477  0.0792  0.1047 -0.0451
27491W        W70429   7.263  14.975  26.906 -0.1877  0.0974  0.0054
27492W        W70430   5.676  16.391  27.841  0.2594  0.3099 -0.5019
27493W        W70431   5.398  15.026  27.065  0.0579  0.0102 -0.2387
27494W        W70432   4.116  15.298  24.327 -0.2236 -0.0540 -0.2254
27495W        W70433   4.688  16.030  28.134  0.2766 -0.3063 -0.0168
27496W        W70434   5.487  14.840  24.838  0.0704  0.1060 -0.0010
27497W        W70435   7.159  16.348  24.069  0.0257 -0.0580 -0.0006
27498W        W70436   5.306  15.926  27.509 -0.0433 -0.1286  0.3565
27499W        W70437   5.395  17.697  24.063  0.0894  0.0765 -0.2995
27500W        W70438   7.003  14.902  25.216 -0.1985 -0.0622  0.0570
27501W        W70439   3.904  16.485  24.139 -0.2687  0.3385  0.4106
27502W        W70440   4.357  16.601  27.380  0.1094 -0.2733 -0.1472
27503W        W70441   6.759  16.164  25.786  0.0429  0.1055 -0.4212
27504W        W70442   6.233  16.659  26.709  0.2567 -0.2023 -0.1762
27505W        W70443   5.114  15.448  23.918  0.1643  0.0909  0.1033
27506W        W70444   7.384  18.786  24.999 -0.0487  0.1453  0.5095
27507W        W70445   5.224  18.016  27.734 -0.0891 -0.3392 -0.2427
27508W        W70446   6.016  16.701  27.520  0.4068 -0.2717  0.0526
27509W        W70447   5.683  15.880  25.426 -0.0206  0.0757  0.2103
27510W        W70448   4.978  13.240  26.652 -0.2127 -0.0289  0.0721
27511W        W70449   4.654  16.373  23.103 -0.1056 -0.0545 -0.2454
27512W        W70450   5.057  16.173  24.426 -0.0936  0.2648  0.1963
27513W        W70451   2.748  16.883  23.093 -0.0212 -0.0490  0.1487
27514W        W70452   7.783  15.655  25.965 -0.2062  0.1441 -0.0721
27515W        W70453   6.238  15.560  24.620  0.1935 -0.0577 -0.1941
27516W        W70454   6.133  13.882  27.265 -0.1692 -0.2313  0.1621
27517W        W70455   7.250  17.346  27.920 -0.0882  0.0587  0.0031
27518W        W70456   6.560  15.529  23.872 -0.0518 -0.0964 -0.1089
27519W        W70457   6.897  16.453  27.588 -0.0371 -0.0321 -0.0602
27520W        W70458   3.280  14.979  23.500  0.1210  0.0426 -0.1817
27521W        W70459   4.060  14.568  27.610 -0.2684 -0.0055 -0.1038
27522W        W70460   4.660  15.599  26.784 -0.0241 -0.0029  0.3773
27523W        W70461   5.716  17.213  28.926 -0.0289 -0.0068  0.2140
27524W        W70462   7.241  15.515  27.476 -0.3900  0.1999  0.2753
27525W        W70463   6.570  15.159  25.909  0.1688  0.0240 -0.1529
27526W        W70464   6.224  15.149  27.877 -0.3394 -0.0973  0.1256
27527W        W70465   6.665  14.785  25.545 -0.1912 -0.0191  0.1988
27528W        W70466   2.825  17.457  24.075 -0.2638  0.0106  0.2257
27529W        W70467   4.086  17.223  24.845  0.2197  0.2324 -0.4019
27530W        W70468   5.484  14.744  26.645 -0.1361  0.1537  0.2440
27531W        W70469   4.540  17.049  24.934 -0.2045 -0.1410  0.2898
27532W        W70470   4.895  17.732  23.257  0.1033 -0.4114 -0.2851
27533W        W70471   5.751  16.013  25.948  0.2551  0.2904 -0.4225
27534W        W70472   5.877  15.662  24.972  0.0833 -0.1507 -0.1902
27535W        W70473   7.511  15.399  27.062 -0.2187 -0.2386 -0.0133
27536W        W70474   4.269  17.619  26.346 -0.1460 -0.0077 -0.0054
27537W        W70475   4.180  16.564  23.308 -0.1979 -0.0367  0.0935
27538W        W70476   3.575  16.042  24.823 -0.2346 -0.0902  0.3105
27539W        W70477   5.137  14.521  24.537  0.1383  0.1003  0.3343
27540W        W70478   6.669  17.152  23.768 -0.0448 -0.0166 -0.0111
27541W        W70479   4.094  14.420  26.222  0.0754 -0.2061  0.0697
27542W        W70480   5.074  15.283  25.954 -0.0963  0.2575  0.1392
27543W        W70481   5.146  18.174  26.383 -0.2919 -0.0785  0.0026
27544W        W70482   6.742  16.239  28.057 -0.0578  0.2102  0.1283
27545W        W70483   5.789  15.633  24.407 -0.1232 -0.2158 -0.3067
27546W        W70484   6.617  17.654  25.167 -0.4727  0.0972 -0.1919
27547W        W70485   5.508  16.094  28.313  0.0954 -0.0378 -0.3871
27548W        W70486   3.152  15.416  24.955  0.0651 -0.0799 -0.2282
27549W        W70487   5.958  15.147  26.053 -0.2653  0.2933  0.0862
27550W        W70488   4.095  16.078  26.107 -0.3333 -0.0845 -0.0447
27551W        W70489   3.973  17.608  26.741  0.1346 -0.0131  0.0233
27552W        W70490   7.112  18.224  25.796  0.1239  0.3015 -0.0398
27553W        W70491   3.800  16.751  24.543  0.0397  0.0248 -0.1108
27554W        W70492   3.863  17.526  24.506 -0.0432 -0.1280  0.3055
27555W        W70493   5.173  15.486  27.200 -0.1953 -0.2560  0.0945
27556W        W70494   6.062  15.720  27.110 -0.0515 -0.0331 -0.0195
27557W        W70495   4.755  16.551  24.592 -0.2279 -0.1014 -0.0013
27558W        W70496   4.283  15.791  25.702  0.0086 -0.1331  0.1861
27559W        W70497   5.237  16.480  24.800  0.0351 -0.0462 -0.0027
27560W        W70498   7.286  15.960  26.827  0.0334 -0.0285 -0.2958
27561W        W70499   6.253  14.696  25.900 -0.1932 -0.3448 -0.2411
27562W        W70500   4.266  17.362  28.411 -0.0814  0.3224 -0.1603
27563W        W70501   5.670  13.681  27.234 -0.1693 -0.0623  0.2021
27564W        W70502   7.255  17.938  26.699  0.2770 -0.1200  0.1347
27565W        W70503   5.524  16.717  25.887 -0.1897  0.3838 -0.2289
27566W        W70504   3.285  16.714  22.174 -0.1108 -0.2081 -0.0730
27567W        W70505   5.305  17.000  26.867 -0.2884 -0.1772  0.0765
27568W        W70506   5.829  16.373  25.619  0.1072  0.1427  0.3283
27569W        W70507   6.242  14.708  24.110 -0.1678  0.0406 -0.2119
27570W        W70508   5.020  17.163  27.751 -0.1578 -0.2623  0.0892
27571W        W70509   4.502  17.193  23.544  0.0575  0.1939 -0.0666
27572W        W70510   4.309  15.994  26.803  0.3779 -0.0412  0.2984
27573W        W70511   8.541  15.178  25.373  0.3844  0.0670 -0.2628
27574W        W70512   6.514  19.001  25.486  0.2758  0.0564 -0.0463
27575W        W70513   4.622  15.189  25.581 -0.0893  0.0088 -0.1025
27576W        W70514   7.496  14.584  27.231  0.3640 -0.2321 -0.0081
27577W        W70515   6.092  16.953  24.427 -0.4262  0.0324  0.0357
27578W        W70516   6.270  15.559  27.604 -0.2678 -0.1163 -0.0914
27579W        W70517   4.758  13.985  26.543 -0.1407 -0.0599 -0.0085
27580W        W70518   7.524  16.574  25.299  0.0349  0.2994  0.3019
27581W        W70519   6.034  13.975  25.576 -0.1211  0.0571  0.0193
27582W        W70520   6.257  17.564  27.662 -0.2111 -0.4011  0.5039
27583W        W70521   4.959  15.337  28.168  0.0246 -0.1037 -0.2247
27584W        W70522   4.510  15.586  24.525  0.2718  0.3711 -0.1211
27585W        W70523   4.331  15.474  22.893 -0.1016  0.1552 -0.0168
27586W        W70524   5.402  17.293  26.010  0.1118 -0.0881 -0.0134
27587W        W70525   6.896  15.919  26.491  0.1091  0.3515 -0.0299
27588W        W70526   5.639  17.184  24.215  0.2546  0.0182  0.1346
27589W        W70527   5.285  15.517  24.411 -0.1147  0.0834  0.1876
27590W        W70528   4.977  16.679  26.130  0.0706  0.1789  0.1681
27591W        W70529   6.419  16.134  23.868 -0.1150 -0.1524 -0.7717
27592W        W70530   6.378  16.817  25.271 -0.1536 -0.0285  0.2416
27593W        W70531   6.486  16.231  26.508  0.1375  0.0001 -0.0417
27594W        W70532   5.022  14.769  26.883  0.1984  0.3641 -0.2165
27595W        W70533   6.175  16.333  27.126  0.0813 -0.1260 -0.0288
27596W        W70534   4.625  15.363  26.364 -0.1001  0.0759 -0.4454
27597W        W70535   6.150  14.342  26.376  0.2996 -0.0216  0.2649
27598W        W70536   6.126  15.587  25.955  0.0410 -0.0478  0.0694
27599W        W70537   5.063  15.595  25.302  0.0234 -0.1909  0.2176
27600W        W70538   3.954  15.454  28.092 -0.0201 -0.0335 -0.3910
27601W        W70539   7.649  18.721  26.515  0.0002  0.1082 -0.3080
27602W        W70540   6.089  15.678  23.989  0.1413  0.2721  0.1342
27603W        W70541   7.986  16.063  26.162 -0.0672  0.0561  0.1584
27604W        W70542   7.861  16.514  24.894  0.0229  0.1652 -0.0158
27605W        W70543   3.331  15.650  24.429  0.0513 -0.0057  0.0535
27606W        W70544   3.530  15.332  27.062 -0.2717 -0.1721  0.2199
27607W        W70545   4.854  16.145  26.538  0.0297 -0.0859 -0.2400
27608W        W70546   4.843  15.823  23.536  0.0062 -0.1834 -0.1598
27609W        W70547   7.230  15.129  27.905 -0.0948  0.2394  0.3585
27610W        W70548   4.567  15.871  26.276  0.0777  0.2301  0.1211
27611W        W70549   7.465  16.686  25.776  0.0901  0.0239 -0.2787
27612W        W70550   6.438  15.591  25.475 -0.1650 -0.1161  0.2085
27613W        W70551   2.980  15.265  24.333 -0.0263  0.1478  0.1153
27614W        W70552   3.706  17.841  28.335 -0.0728 -0.3856  0.3505
27615W        W70553   3.926  14.648  24.185 -0.3109  0.0053 -0.0368
27616W        W70554   5.946  17.148  24.966  0.1937  0.0766  0.1894
27617W        W70555   4.982  16.799  25.053  0.0476  0.0308 -0.0155
27618W        W70556   7.904  16.016  27.698 -0.4202  0.1412  0.0179
27619W        W70557   5.154  15.075  24.344 -0.0626  0.1310 -0.1731
27620W        W70558   6.990  16.557  28.555  0.2447  0.1395  0.0833
27621W        W70559   3.112  16.134  23.264 -0.3448 -0.0079 -0.1010
27622W        W70560   5.025  15.342  24.814 -0.0553 -0.0294 -0.2928
27623W        W70561   6.133  18.343  26.726 -0.0808 -0.0211  0.1360
27624W        W70562   2.472  17.925  27.354  0.2220  0.1253  0.0824
27625W        W70563   4.773  17.809  25.352  0.0950  0.2195 -0.0358
27626W        W70564   5.289  14.034  27.334 -0.0445 -0.1330  0.3972
27627W        W70565   7.464  16.964  26.232  0.1058  0.2279  0.0196
27628W        W70566   5.320  16.266  26.252 -0.2236  0.3815  0.2566
27629W        W70567   8.451  15.856  27.558 -0.0777 -0.0127 -0.1324
27630W        W70568   6.470  17.493  26.435  0.0758 -0.1619  0.0325
27631W        W70569   3.661  15.569  25.080  0.3296 -0.1028 -0.0154
27632W        W70570   6.421  18.941  27.784  0.2030  0.3632  0.4125
27633W        W70571   5.921  17.447  24.586 -0.2089 -0.0982  0.0470
27634W        W70572   5.429  17.101  25.139 -0.1837  0.1513  0.0348
27635W        W70573   4.968  15.232  26.744  0.3068 -0.1122 -0.1387
27636W        W70574   7.160  17.013  28.746  0.0149  0.0313 -0.1342
27637W        W70575   7.813  16.163  25.272 -0.2460 -0.1145  0.4440
27638W        W70576   4.670  14.696  24.632  0.4665  0.0556 -0.0455
27639W        W70577   3.670  17.258  22.838 -0.0507 -0.2172  0.0742
27640W        W70578   6.266  18.549  27.181 -0.2477  0.2713  0.0793
27641W        W70579   5.122  16.158  27.924  0.0288  0.2498 -0.0705
27642W        W70580   5.087  17.233  23.349 -0.1925  0.3130 -0.3257
27643W        W70581   6.540  16.259  24.770 -0.1059 -0.0287  0.2182
27644W        W70582   5.576  16.112  24.438  0.0365 -0.0393  0.0967
27645W        W70583   7.226  17.831  26.188  0.1117 -0.4239  0.2496
27646W        W70584   4.154  15.899  24.266  0.2284  0.0638 -0.3209
27647W        W70585   5.190  17.498  24.984 -0.1799  0.1050 -0.1646
27648W        W70586   2.814  15.862  23.601 -0.2749 -0.0808  0.1326
27649W        W70587   5.982  18.565  24.092  0.2852  0.0802 -0.1214
27650W        W70588   3.281  16.910  23.148 -0.2556  0.1126 -0.0069
27651W        W70589   6.723  17.185  26.128  0.1755 -0.0099 -0.0718
27652W        W70590   6.781  15.837  23.578  0.0091 -0.0083 -0.1155
27653W        W70591   6.877  15.838  25.258  0.1569  0.1490  0.0069
27654W        W70592   8.243  15.716  25.210  0.2294 -0.1512 -0.1398
27655W        W70593   6.944  17.288  27.128  0.1465  0.1269 -0.0734
27656W        W70594   5.180  17.247  24.136 -0.1647 -0.0667 -0.2014
27657W        W70595   4.631  15.063  23.130  0.1125  0.4032  0.0729
27658W        W70596   5.883  17.362  28.008 -0.0452 -0.2295  0.0558
27659W        W70597   7.188  13.398  27.012 -0.1943 -0.0985  0.1119
27660W        W70598   3.200  16.296  28.159  0.0613  0.2801 -0.2142
27661W        W70599   7.154  17.730  24.646  0.4053  0.0176 -0.1798
27662W        W70600   3.675  15.264  24.618  0.0859 -0.2349 -0.0910
27663W        W70601   4.778  15.626  25.824 -0.1697  0.1379 -0.0626
27664W        W70602   6.752  14.605  26.052  0.1134 -0.3524  0.2332
27665W        W70603   4.343  15.977  22.939 -0.0315  0.1270 -0.3555
27666W        W70604   5.454  14.563  25.895  0.1583 -0.1364  0.1557
27667W        W70605   4.645  17.552  24.923 -0.5108  0.0385 -0.1170
27668W        W70606   4.644  18.127  24.957  0.2596  0.1891 -0.4131
27669W        W70607   5.880  18.049  27.077  0.0646 -0.1484 -0.0007
27670W        W70608   2.800  14.449  24.884  0.0387  0.3417 -0.0635
27671W        W70609   8.723  15.253  25.976  0.2258  0.2024 -0.1402
27672W        W70610   5.200  15.757  28.176  0.1179  0.4216  0.1517
27673W        W70611   6.495  15.871  27.215  0.1202  0.1497  0.2695
27674W        W70612   4.186  15.299  25.924  0.5348  0.3615 -0.0680
27675W        W70613   8.736  15.491  25.046  0.0134 -0.2071  0.1070
27676W        W70614   5.451  17.456  26.506  0.0833 -0.3773  0.2307
27677W        W70615   5.473  16.439  27.371  0.1888 -0.0365  0.3109
27678W        W70616   4.865  16.517  24.029 -0.1902  0.0412  0.3598
27679W        W70617   7.535  16.441  27.636 -0.2541 -0.1747  0.4937
27680W        W70618   5.744  15.321  23.580 -0.0881  0.0439 -0.1709
27681W        W70619   7.058  16.839  27.073  0.2843  0.1103  0.2038
27682W        W70620   3.978  14.223  24.486 -0.1357 -0.4282 -0.0968
27683W        W70621   4.118  15.602  23.777 -0.0477  0.2264 -0.0769
27684W        W70622   6.245  17.592  25.975  0.1571 -0.2529  0.2911
27685W        W70623   5.776  15.490  27.503 -0.4903 -0.0446  0.1452
27686W        W70624   6.208  17.825  28.082 -0.1446 -0.1744  0.3233
27687W        W70625   3.536  13.675  25.867 -0.4027  0.2679  0.0357
27688W        W70626   7.319  16.865  24.897  0.1268  0.0697 -0.2429
27689W        W70627   5.964  15.399  25.433 -0.0244 -0.0403 -0.0666
27690W        W70628   6.105  19.281  24.804 -0.0779  0.4544  0.2886
27691W        W70629   8.372  16.419  26.134  0.3802  0.2280 -0.1294
27692W        W70630   7.021  16.470  25.516  0.0738  0.1890  0.0257
27693W        W70631   5.133  15.784  26.184  0.1833 -0.0258  0.0489
27694W        W70632   6.509  15.771  26.774  0.3040 -0.1244  0.3269
27695W        W70633   7.808  17.268  27.383  0.0827 -0.0936 -0.0930
27696W        W70634   5.715  14.833  24.357  0.0641  0.0188  0.0454
27697W        W70635   4.902  14.774  25.826  0.2564  0.3825  0.0409
27698W        W70636   3.299  17.756  23.788 -0.0461 -0.0520 -0.2935
27699W        W70637   7.833  17.031  25.727  0.1628 -0.4253  0.1919
27700W        W70638   6.064  15.617  26.572 -0.0658 -0.0506 -0.1350
27701W        W70639   4.477  17.456  23.105 -0.0916 -0.1871  0.1766
27702W        W70640   7.188  14.840  25.756 -0.2546 -0.2866 -0.2977
27703W        W70641   5.368  16.864  26.366 -0.1935  0.1352  0.1161
27704W        W70642   5.440  18.117  28.464  0.0953 -0.1729  0.2293
27705W        W70643   2.307  15.575  24.849  0.0073  0.1265  0.1546
27706W        W70644   5.155  16.988  25.687 -0.2797  0.1175 -0.1582
27707W        W70645   4.990  17.758  24.516 -0.1789  0.0668  0.0570
27708W        W70646   5.206  18.394  22.806  0.1218  0.0621  0.2969
27709W        W70647   8.081  16.705  25.324 -0.0927  0.0779 -0.1452
27710W        W70648   6.734  17.131  25.396  0.3215 -0.0748 -0.0527
27711W        W70649   7.972  16.356  27.367 -0.2870 -0.0376  0.0899
27712W        W70650   5.493  15.367  25.198  0.2081 -0.0846  0.4525
27713W        W70651   6.429  14.273  25.725  0.0152 -0.1255 -0.1710
27714W        W70652   7.253  15.977  25.563 -0.1365 -0.3790  0.0186
27715W        W70653   5.143  15.797  26.734 -0.0073  0.0903  0.1175
27716W        W70654   3.442  16.815  24.987  0.1442  0.2297  0.0710
27717W        W70655   3.059  17.661  22.394  0.0019 -0.1101 -0.0397
27718W        W70656   4.593  14.595  25.456  0.2659 -0.0069 -0.1164
27719W        W70657   4.242  15.011  27.420  0.1623 -0.1522 -0.1741
27720W        W70658   4.736  15.199  28.596  0.1300  0.2582 -0.0629
27721W        W70659   4.748  16.035  25.538 -0.0037  0.1394 -0.2007
27722W        W70660   3.204  15.623  23.350 -0.0836  0.3189  0.0810
27723W        W70661   6.689  18.171  24.610  0.3609  0.0361  0.1138
27724W        W70662   5.120  14.393  25.498  0.0390  0.0464  0.2956
27725W        W70663   3.409  15.039  25.572  0.1204 -0.1695  0.1335
27726W        W70664   6.796  18.547  23.590 -0.1686  0.2920  0.2990
27727W        W70665   6.555  16.647  25.738  0.0553 -0.2285  0.1005
27728W        W70666   6.044  13.474  24.455 -0.1935  0.1192  0.0253
27729W        W70667   7.196  17.930  27.239 -0.0355 -0.0092 -0.0616
27730W        W70668   2.641  16.105  24.036 -0.0906 -0.2623  0.0836
27731W        W70669   5.062  16.682  27.158  0.0753 -0.2295  0.2612
27732W        W70670   5.783  14.873  25.645  0.0894 -0.0770 -0.2011
27733W        W70671   3.583  16.098  24.155 -0.0663 -0.0854  0.0026
27734W        W70672   4.424  14.884  26.303  0.2090 -0.0213  0.0847
27735W        W70673   5.325  16.877  23.713 -0.0796 -0.1405  0.3141
27736W        W70674   7.267  18.739  24.469 -0.1512  0.2809  0.0957
27737W        W70675   5.793  16.914  25.454 -0.2903  0.3822 -0.3204
27738W        W70676   5.864  18.143  25.751 -0.0955  0.1021  0.0901
27739W        W70677   3.910  15.075  27.028  0.2762  0.2417 -0.1401
27740W        W70678   7.581  16.464  24.281  0.1769 -0.2583 -0.2432
27741W        W70679   4.091  17.024  28.114  0.2033  0.2329 -0.1467
27742W        W70680   5.876  17.099  25.915  0.0574 -0.2755 -0.1665
27743W        W70681   7.134  15.767  26.065  0.0422 -0.0072  0.1035
27744W        W70682   6.586  16.689  26.276  0.2434 -0.1401  0.1583
27745W        W70683   4.668  14.606  27.211  0.2794 -0.0473 -0.1051
27746W        W70684   5.121  17.467  28.179 -0.1122  0.2589  0.1393
27747W        W70685   6.717  16.755  28.051  0.0370  0.0005  0.2379
27748W        W70686   5.357  15.761  24.854  0.1085  0.2855 -0.1636
27749W        W70687   6.642  15.301  24.340  0.1241  0.0297 -0.0491
27750W        W70688   5.890  16.131  24.008  0.0604  0.0185  0.0885
27751W        W70689   4.411  15.698  25.140 -0.1507 -0.2169 -0.1941
27752W        W70690   5.629  16.184  24.979  0.1830  0.1457 -0.2623
27753W        W70691   5.898  14.328  25.965  0.2805 -0.1021  0.0476
27754W        W70692   5.752  17.629  25.734  0.0632 -0.2495 -0.2320
27755W        W70693   6.451  16.192  27.590 -0.0312  0.1643 -0.2382
27756W        W70694   4.759  17.518  24.205  0.2628 -0.3004 -0.0054
27757W        W70695   9.094  16.785  24.545  0.0921 -0.0688  0.2699
27758W        W70696   6.104  16.009  26.276 -0.1827  0.0892  0.1726
27759W        W70697   6.599  19.468  28.603 -0.0648 -0.0685 -0.2185
27760W        W70698   6.667  16.403  27.140  0.1237 -0.0577  0.1688
27761W        W70699   7.204  16.376  24.989 -0.1035 -0.0791  0.2555
27762W        W70700   4.551  14.583  26.697  0.3579 -0.3936  0.0482
27763W        W70701   4.266  16.921  24.501 -0.0535 -0.0134  0.1709
27764W        W70702   5.862  15.144  26.600  0.0437  0.1130 -0.3155
27765W        W70703   5.643  15.564  26.118 -0.3542  0.0274  0.1478
27766W        W70704   3.629  15.158  26.542  0.2879 -0.0302 -0.3566
27767W        W70705   6.820  15.319  25.352  0.2922  0.1940 -0.0775
27768W        W70706   5.075  16.585  26.670  0.3227  0.0993 -0.2040
27769W        W70707   6.112  16.064  27.999 -0.2760 -0.2705 -0.1516
27770W        W70708   4.549  17.083  30.570 -0.0534  0.0341  0.2348
27771W        W70709   5.382  15.569  29.730  0.2698  0.2712 -0.1740
27772W        W70710   6.415  16.614  28.455  0.3597  0.1709 -0.0710
27773W        W70711   7.471  15.441  28.283 -0.0426 -0.0452  0.1119
27774W        W70712   5.599  14.817  29.734 -0.0884  0.0767  0.1408
27775W        W70713   7.684  18.743  27.615 -0.3140  0.1780 -0.2757
27776W        W70714   5.095  14.554  31.098 -0.1171  0.1824  0.1055
27777W        W70715   5.863  18.204  30.433  0.1922  0.1892  0.0309
27778W        W70716   7.024  17.934  30.694 -0.0891  0.1464  0.0310
27779W        W70717   5.259  16.915  29.115  0.3116  0.2370  0.3142
27780W        W70718   5.837  15.027  31.538 -0.0295 -0.0156 -0.1537
27781W        W70719   4.997  16.670  30.800  0.1854 -0.0970 -0.0394
27782W        W70720   5.086  14.931  27.766  0.0618 -0.2476  0.1326
27783W        W70721   3.690  15.003  28.204  0.0043 -0.0836 -0.1177
27784W        W70722   7.768  15.289  29.527 -0.2513  0.0824 -0.2298
27785W        W70723   4.600  17.051  27.021  0.2964  0.0258 -0.1371
27786W        W70724   5.209  15.984  29.403  0.0754 -0.1029 -0.0669
27787W        W70725   5.634  16.169  29.245  0.0952  0.1078 -0.0475
27788W        W70726   5.591  17.066  28.322 -0.3488 -0.2338 -0.1765
27789W        W70727   6.042  13.723  31.157  0.1502 -0.1136  0.1862
27790W        W70728   7.006  13.488  29.906  0.0223 -0.0375 -0.3241
27791W        W70729   6.052  16.906  28.263 -0.0632  0.0006 -0.0161
27792W        W70730   4.259  15.205  28.439 -0.0435 -0.1305  0.0575
27793W        W70731   3.991  15.819  30.612 -0.2817 -0.0307 -0.2089
27794W        W70732   3.962  15.991  31.121 -0.1294  0.0638  0.0872
27795W        W70733   6.944  14.264  28.371  0.0432 -0.0966 -0.3511
27796W        W70734   6.422  15.803  29.419 -0.3464  0.2513 -0.4073
27797W        W70735   6.417  17.727  28.530  0.1786  0.1487  0.2985
27798W        W70736   4.892  17.379  29.060  0.1282  0.0222  0.0596
27799W        W70737   5.735  16.029  31.220 -0.3022 -0.3091  0.3373
27800W        W70738   3.968  16.739  30.322  0.0853  0.0371 -0.2314
27801W        W70739   4.728  17.264  28.567  0.1218  0.1307  0.4413
27802W        W70740   4.666  16.405  29.262  0.0397 -0.2447 -0.1924
27803W        W70741   8.186  17.765  27.985  0.2673  0.2001 -0.0261
27804W        W70742   6.745  18.289  30.518 -0.0612 -0.0415  0.1561
27805W        W70743   6.366  18.982  31.521  0.3187 -0.0594  0.0156
27806W        W70744   5.471  17.533  27.741 -0.2871  0.1544 -0.0310
27807W        W70745   5.818  17.461  31.028 -0.4297  0.2305  0.1749
27808W        W70746   4.882  17.166  30.990  0.0953  0.1160 -0.1227
27809W        W70747   6.703  17.082  29.866 -0.0365  0.2520 -0.0370
27810W        W70748   7.416  16.329  28.936 -0.3402  0.2185  0.0700
27811W        W70749   5.191  16.218  27.013 -0.0087  0.5770  0.3223
27812W        W70750   6.805  17.145  29.066  0.0616  0.0276  0.0022
27813W        W70751   4.525  16.192  31.716 -0.2149  0.0187 -0.0482
27814W        W70752   4.254  18.304  29.502  0.2915 -0.0348  0.1544
27815W        W70753   7.708  14.593  31.287 -0.0418  0.0146 -0.2760
27816W        W70754   5.521  18.998  28.622 -0.2881 -0.0767 -0.3284
27817W        W70755   6.551  16.711  28.988 -0.1294 -0.4108 -0.1686
27818W        W70756   5.903  16.467  28.369  0.0627  0.2446  0.0384
27819W        W70757   7.966  15.630  28.388 -0.1799  0.2489 -0.4303
27820W        W70758   5.006  14.265  29.573  0.0333  0.2018  0.0632
27821W        W70759   4.999  17.354  29.669  0.3276 -0.0295 -0.0814
27822W        W70760   3.624  14.900  30.628 -0.1417 -0.1521  0.3884
27823W        W70761   7.498  16.288  30.938 -0.0059 -0.3737  0.1629
27824W        W70762   6.158  15.456  28.622  0.1189 -0.0177 -0.0863
27825W        W70763   7.112  15.712  30.024  0.1187 -0.1237  0.1528
27826W        W70764   2.615  17.157  31.741 -0.0573 -0.2780 -0.0644
27827W        W70765   4.826  15.572  29.812 -0.2106  0.1080 -0.0379
27828W        W70766   8.184  17.189  27.859 -0.0214 -0.1438 -0.1761
27829W        W70767   7.596  17.305  29.328  0.0904 -0.0099  0.0579
27830W        W70768   7.464  18.263  26.406  0.1408  0.0073  0.2485
27831W        W70769   3.477  16.276  28.579  0.1341  0.3527  0.0176
27832W        W70770   3.088  16.280  31.794  0.3680 -0.1363  0.0718
27833W        W70771   3.544  15.852  30.961  0.0480 -0.0962  0.0261
27834W        W70772   5.216  15.356  28.695 -0.0625 -0.0304 -0.0836
27835W        W70773   7.811  18.472  30.390  0.0320  0.0619  0.0864
27836W        W70774   4.059  17.159  30.789  0.0527 -0.4494  0.1757
27837W        W70775   7.491  15.822  28.680  0.0232  0.0661 -0.1263
27838W        W70776   5.216  16.516  29.513  0.3187 -0.2349  0.1704
27839W        W70777   5.500  17.489  29.816  0.1095  0.1300  0.0450
27840W        W70778   6.259  16.052  25.726 -0.2144 -0.3096 -0.0812
27841W        W70779   6.219  14.013  30.160  0.0721  0.1441 -0.1294
27842W        W70780   6.933  14.479  29.346 -0.1816  0.3171 -0.2916
27843W        W70781   6.218  16.325  28.770  0.2912  0.1254  0.1672
27844W        W70782   5.203  16.385  28.985 -0.2166  0.2805 -0.0159
27845W        W70783   7.250  18.351  30.353  0.1226 -0.1091 -0.0679
27846W        W70784   7.180  16.027  27.742  0.3871  0.2321 -0.0856
27847W        W70785   4.072  18.614  30.374 -0.1371  0.0103  0.0232
27848W        W70786   5.618  15.879  30.696 -0.0653 -0.0344  0.1988
27849W        W70787   6.251  16.919  31.572 -0.1345 -0.1127 -0.0885
27850W        W70788   4.987  19.543  28.008  0.2645  0.0910 -0.3683
27851W        W70789   2.955  15.532  28.240 -0.0174  0.1476 -0.0461
27852W        W70790   4.119  15.956  28.090  0.0119  0.0849  0.1207
27853W        W70791   2.770  14.482  30.807  0.1137 -0.2267  0.1488
27854W        W70792   6.056  16.576  30.519 -0.1791  0.1649 -0.2416
27855W        W70793   7.748  17.470  27.828 -0.1010 -0.1321 -0.0636
27856W        W70794   4.506  15.673  30.668 -0.5036  0.0777  0.0795
27857W        W70795   8.464  15.053  29.193 -0.2325  0.0289 -0.1183
27858W        W70796   3.116  16.714  27.877  0.1678  0.1066  0.1576
27859W        W70797   6.822  17.978  29.568  0.0587 -0.0374  0.2162
27860W        W70798   8.284  16.898  28.620  0.1419  0.0426  0.2105
27861W        W70799   7.080  16.899  27.604  0.0512 -0.0479 -0.2758
27862W        W70800   4.825  16.548  29.846  0.1702  0.0686  0.0912
27863W        W70801   4.701  15.970  29.004 -0.0805  0.1797 -0.0669
27864W        W70802   6.109  14.723   0.403 -0.0863 -0.1037 -0.2461
27865W        W70803   4.117  14.968  30.810 -0.3469 -0.1258 -0.2050
27866W        W70804   6.734  15.496  30.847  0.1867  0.0252  0.2749
27867W        W70805   2.297  14.390  28.606 -0.1130  0.2886 -0.0757
27868W        W70806   6.768  13.902  29.611 -0.1889 -0.2618 -0.2613
27869W        W70807   5.371  16.491  29.984  0.3847  0.1313  0.2890
27870W        W70808   3.340  16.828  27.420  0.0567 -0.1365 -0.1935
27871W        W70809   5.608  15.170  30.101  0.2967  0.1270 -0.0057
27872W        W70810   5.597  17.908  28.040  0.0301  0.0400  0.1503
27873W        W70811   6.188  18.651   0.654  0.0415  0.3735 -0.2765
27874W        W70812   5.602  17.883  29.447 -0.0544 -0.0325 -0.1702
27875W        W70813   5.061  16.072  30.025  0.0614 -0.0941  0.2008
27876W        W70814   4.072  15.662  28.491 -0.2369 -0.4251  0.2933
27877W        W70815   3.777  18.209  30.154  0.2212  0.1736 -0.0896
27878W        W70816   5.992  17.465  29.687 -0.1699  0.0131 -0.0986
27879W        W70817   4.613  15.170  29.293 -0.0343 -0.0383 -0.1957
27880W        W70818   7.847  18.820  29.321  0.0582  0.0102 -0.2752
27881W        W70819   5.915  15.479  29.946 -0.0950  0.0737  0.1722
27882W        W70820   5.428  17.225  31.285 -0.0091 -0.0077  0.1240
27883W        W70821   5.425  13.960  28.979 -0.0994 -0.2946 -0.1763
27884W        W70822   7.024  16.785  30.181 -0.1266 -0.0216  0.0051
27885W        W70823   7.391  14.957  28.867 -0.3122 -0.0104 -0.0521
27886W        W70824   4.613  16.455  28.720 -0.1011 -0.3212 -0.0552
27887W        W70825   5.000  17.017  28.204  0.0455 -0.0241 -0.1642
27888W        W70826   3.335  16.694  29.569  0.2387  0.0375 -0.0319
27889W        W70827   3.627  16.068  30.272  0.2881  0.1415  0.2033
27890W        W70828   6.732  17.248  27.771 -0.1554 -0.0549 -0.1936
27891W        W70829   8.309  15.185  28.747  0.2061 -0.5600 -0.0657
27892W        W70830   4.631  15.856  31.331 -0.0940  0.0971 -0.1307
27893W        W70831   6.692  16.993  30.784  0.1293 -0.1682 -0.1437
27894W        W70832   3.978  16.240  28.583 -0.1986 -0.0023 -0.1825
27895W        W70833   3.012  18.522  30.831 -0.2911 -0.2117  0.2643
27896W        W70834   6.095  14.928  29.839  0.0829 -0.1532 -0.2100
27897W        W70835   5.651  16.894  27.857  0.0936  0.1089 -0.2356
27898W        W70836   5.987  17.726  30.137 -0.5132  0.0487 -0.1819
27899W        W70837   8.145  16.726  27.622  0.1611  0.0321 -0.4045
27900W        W70838   6.759  15.148  27.876  0.1041  0.2281 -0.0192
27901W        W70839   7.233  14.778  28.325 -0.0599 -0.2100  0.1651
27902W        W70840   2.704  16.634   0.030  0.2892 -0.1613 -0.0052
27903W        W70841   5.291  17.260  28.657 -0.0970 -0.2129 -0.0411
27904W        W70842   5.782  17.027  30.090 -0.0836 -0.0461 -0.1286
27905W        W70843   7.009  14.912  27.344 -0.0882 -0.0755  0.0354
27906W        W70844   8.258  17.678  28.543  0.1768  0.0150  0.3709
27907W        W70845   3.438  18.037  31.903  0.0343  0.1117 -0.1506
27908W        W70846   5.626  18.050  29.995 -0.0159 -0.0578 -0.1426
27909W        W70847   5.926  17.898  28.585 -0.0044  0.1820  0.0481
27910W        W70848   5.474  15.684  30.276 -0.1143 -0.0002  0.0677
27911W        W70849   6.893  15.247  28.315  0.0214 -0.0468  0.0167
27912W        W70850   6.911  14.636  28.732  0.0130 -0.4007 -0.0854
27913W        W70851   3.568  17.092  27.030 -0.0940  0.0131 -0.0359
27914W        W70852   6.105  15.469  29.182 -0.1719  0.0970  0.0612
27915W        W70853   6.986  14.906  29.745 -0.1013  0.0481  0.1004
27916W        W70854   5.340  13.179  31.411  0.1257  0.0815  0.0113
27917W        W70855   7.838  14.433  31.747 -0.2345  0.3464  0.2728
27918W        W70856   7.339  14.481  29.882  0.1499  0.3297 -0.1349
27919W        W70857   6.966  17.598  29.235  0.0853  0.1497  0.0120
27920W        W70858   4.406  16.025  28.601 -0.1649  0.2488  0.2142
27921W        W70859   6.026  15.059  31.082  0.2079 -0.1639  0.0873
27922W        W70860   3.657  14.899  31.187  0.1160 -0.1798 -0.1342
27923W        W70861   3.010  17.444  31.091  0.2016 -0.0440 -0.0158
27924W        W70862   7.105  17.151  31.084 -0.6335 -0.0372  0.1805
27925W        W70863   6.535  16.159  30.046  0.1161  0.1848 -0.0223
27926W        W70864   6.158  13.023  31.374 -0.0835 -0.0889  0.0900
27927W        W70865   4.575  16.851  27.930  0.4190 -0.2657  0.0918
27928W        W70866   4.667  17.830  28.908  0.2608  0.2040 -0.0181
27929W        W70867   5.950  16.051  27.465 -0.1443  0.1382 -0.1341
27930W        W70868   4.453  15.059  29.829  0.4376 -0.1891  0.3273
27931W        W70869   6.370  17.413  30.022  0.0620  0.0899  0.0972
27932W        W70870   4.728  18.289  27.538 -0.0491 -0.1546  0.3296
27933W        W70871   7.764  17.175  30.959  0.0068  0.1037 -0.4086
27934W        W70872   3.292  17.530  29.656  0.0244  0.1771  0.1347
27935W        W70873   7.045  15.371  29.474  0.2542 -0.0263 -0.0083
27936W        W70874   3.997  19.231  30.261 -0.0352  0.2928 -0.1650
27937W        W70875   7.044  15.958  28.505 -0.0952 -0.0967 -0.2967
27938W        W70876   4.324  16.728  29.440 -0.1901  0.1665 -0.0450
27939W        W70877   7.378  14.971  29.386 -0.3390 -0.1054 -0.1911
27940W        W70878   6.455  17.434  26.941  0.0679  0.0524 -0.1366
27941W        W70879   3.621  14.332  31.358 -0.0481 -0.0703  0.1021
27942W        W70880   6.569  15.671  29.883  0.0753 -0.5097  0.1688
27943W        W70881   4.266  18.965  29.910 -0.0099  0.0201  0.2245
27944W        W70882   5.840  17.496  30.524  0.0567 -0.0041 -0.0205
27945W        W70883   6.494  14.872  28.274 -0.2328  0.4524 -0.0303
27946W        W70884   7.390  16.465  30.492  0.2238 -0.0543  0.1113
27947W        W70885   6.547  16.546  30.669  0.2081 -0.0799  0.0013
27948W        W70886   3.463  15.483  28.049  0.0116  0.1280  0.2419
27949W        W70887   7.499  15.422  31.514 -0.4180 -0.0277 -0.2537
27950W        W70888   5.645  16.657  29.106  0.2036  0.2094 -0.0725
27951W        W70889   5.603  17.527  28.401 -0.1526  0.1619 -0.1391
27952W        W70890   5.565  17.768  28.864 -0.1030  0.1908 -0.1380
27953W        W70891   3.721  16.014  29.345  0.1153  0.1877 -0.1790
27954W        W70892   4.022  17.204  29.356 -0.2357 -0.2346  0.0895
27955W        W70893   4.255  15.879   0.016 -0.0029  0.3246  0.2556
27956W        W70894   7.836  16.215  30.595 -0.1917 -0.0461  0.2443
27957W        W70895   4.262  16.378  29.843  0.0555  0.2675  0.1094
27958W        W70896   4.717  14.691  29.515 -0.2763 -0.0407  0.3385
27959W        W70897   4.918  15.794  30.401  0.0714  0.4789 -0.0240
27960W        W70898   7.510  16.807  30.166 -0.0883  0.2075 -0.1618
27961W        W70899   5.657  15.530  31.453 -0.0275 -0.1193  0.0247
27962W        W70900   4.893  17.879  31.860  0.1950 -0.2104 -0.2756
27963W        W70901   6.664  12.733  28.163  0.0931  0.0585  0.2159
27964W        W70902   7.590  18.145  28.474 -0.1304  0.2949 -0.0711
27965W        W70903   6.874  17.450  30.775  0.0787 -0.1185 -0.0965
27966W        W70904   5.407  15.522  29.242  0.1773 -0.0763 -0.0902
27967W        W70905   3.002  16.078  31.369 -0.1256 -0.4732 -0.3261
27968W        W70906   5.396  17.426  29.267 -0.1280 -0.1713 -0.1655
27969W        W70907   5.365  16.015  31.669 -0.2157  0.0182  0.3909
27970W        W70908   3.383  16.391  30.913 -0.4414 -0.0212 -0.0396
27971W        W70909   4.625  17.323  28.074  0.1667 -0.2270 -0.1427
27972W        W70910   2.875  17.957  31.074 -0.3845 -0.0698 -0.0444
27973W        W70911   7.763  14.748  28.300 -0.1805  0.0674  0.0268
27974W        W70912   4.892  16.925  29.571 -0.0940  0.0321  0.1831
27975W        W70913   5.621  15.526  28.377  0.0370  0.1767 -0.0943
27976W        W70914   6.161  13.462  29.221 -0.0044  0.1292 -0.3811
27977W        W70915   6.951  15.003  29.046 -0.2519  0.0318 -0.0192
27978W        W70916   6.439  13.099  31.868  0.1200  0.2646 -0.0375
27979W        W70917   5.783  15.205  29.521 -0.1446 -0.0899  0.1656
27980W        W70918   5.988  17.592  29.152  0.3257 -0.3006  0.0834
27981W        W70919   5.078  15.024  30.858 -0.1275  0.1585 -0.0470
27982W        W70920   6.542  16.653  30.059  0.2620  0.2022  0.0953
27983W        W70921   4.182  15.630  31.504  0.0600 -0.2887 -0.3660
27984W        W70922   6.699  15.786  30.371 -0.0157 -0.1713 -0.0716
27985W        W70923   4.864  15.566  29.312 -0.1808 -0.1639  0.0984
27986W        W70924   5.524  16.774  30.929 -0.0472  0.0597 -0.0899
27987W        W70925   6.214  16.946  29.713 -0.0910  0.2107  0.0784
27988W        W70926   4.976  16.840  28.660  0.2157  0.0503 -0.0679
27989W        W70927   7.656  15.918  29.182 -0.1494 -0.1879 -0.0409
27990W        W70928   2.827  16.529  30.440 -0.2438  0.1095  0.0705
27991W        W70929   6.716  15.504  29.148 -0.1455 -0.0241  0.1728
27992W        W70930   6.056  15.566  28.105 -0.0351  0.3645  0.2677
27993W        W70931   3.732  16.454  28.973 -0.0940 -0.1109 -0.2101
27994W        W70932   6.243  14.908  30.422 -0.0536  0.0665  0.1274
27995W        W70933   6.771  16.173  28.820  0.0408 -0.0428  0.0191
27996W        W70934   8.415  15.889  31.223  0.1401  0.2600  0.3123
27997W        W70935   5.673  16.213  30.285  0.0677 -0.0740  0.1211
27998W        W70936   6.309  15.282  30.736  0.1529  0.0637  0.1098
27999W        W70937   5.013  16.198  31.424 -0.0808 -0.2431  0.2193
28000W        W70938   3.516  14.863   0.017  0.2641  0.2308  0.1110
28001W        W70939   5.869  18.339  31.006  0.0101  0.2426 -0.1272
28002W        W70940   8.088  16.079  28.277  0.2650 -0.0264 -0.0297
28003W        W70941   6.355  15.356  30.203 -0.1185  0.0037  0.0671
28004W        W70942   7.537  15.946  28.139 -0.0762 -0.1253 -0.1019
28005W        W70943   5.903  15.088  28.392 -0.1378 -0.3489  0.0904
28006W        W70944   2.169  15.454  30.655  0.1239  0.0694  0.0505
28007W        W70945   7.388  15.752  29.616  0.1961  0.0609  0.0929
28008W        W70946   6.606  15.131  28.706 -0.1527 -0.0404 -0.0253
28009W        W70947   6.868  14.816  31.714  0.0013  0.1581 -0.0608
28010W        W70948   6.231  17.056  27.760  0.2803 -0.0463  0.0405
28011W        W70949   6.083  16.588  29.287 -0.5509 -0.0164  0.0619
28012W        W70950   7.394  15.235  29.864 -0.2960  0.0945  0.1569
28013W        W70951   3.125  16.093  30.504  0.2093  0.1149  0.3013
28014W        W70952   4.528  17.527  31.037 -0.1564  0.1667  0.1640
28015W        W70953   4.893  16.319  27.473 -0.0856  0.0745 -0.1716
28016W        W70954   5.823  17.237  27.499 -0.1158  0.0391 -0.1214
28017W        W70955   7.158  15.880  29.098  0.4853  0.2395 -0.2963
28018W        W70956   7.042  15.709  31.525 -0.1438  0.1167 -0.0088
28019W        W70957   6.129  14.000  29.125  0.0697  0.0935  0.2472
28020W        W70958   6.687  14.470  31.263 -0.0761 -0.0112 -0.1993
28021W        W70959   4.465  16.899  28.433 -0.0372 -0.0440 -0.1606
28022W        W70960   7.119  13.083  28.903 -0.0294 -0.2518 -0.1940
28023W        W70961   5.104  17.861  29.141 -0.0634 -0.0011  0.0462
28024W        W70962   2.291  16.554  31.244 -0.5744 -0.1527  0.1286
28025W        W70963   3.594  17.103  29.558 -0.1370  0.0361  0.1509
28026W        W70964   6.811  15.273  29.981  0.4308 -0.3241 -0.2041
28027W        W70965   6.051  16.591  30.040 -0.0449 -0.0695 -0.0601
28028W        W70966   7.012  16.610  29.211  0.0162 -0.0659  0.2189
28029W        W70967   7.599  14.276  30.902  0.2267 -0.0739  0.1395
28030W        W70968   3.777  16.479  31.165  0.1967  0.0797 -0.1473
28031W        W70969   4.846  17.061  30.073  0.0058  0.0622 -0.2043
28032W        W70970   4.592  17.493  30.033  0.0439 -0.2941  0.3136
28033W        W70971   8.204  16.754  28.135 -0.2208  0.3206  0.1588
28034W        W70972   4.425  17.062  29.814 -0.2538  0.3554 -0.1407
28035W        W70973   3.486  13.348  31.023 -0.5168 -0.0090 -0.0430
28036W        W70974   4.895  15.990  31.888  0.0052  0.1580 -0.2915
28037W        W70975   6.696  15.609  28.605 -0.0920 -0.3163  0.0700
28038W        W70976   4.204  16.385  29.067 -0.0419  0.2772 -0.1436
28039W        W70977   4.549  16.883  29.026  0.1273 -0.2952  0.2571
28040W        W70978   2.912  16.733   0.496  0.2839  0.0236  0.0179
28041W        W70979   3.102  15.834  30.076  0.0101  0.1976 -0.1117
28042W        W70980   4.009  17.865  27.854  0.2715 -0.1868 -0.0077
28043W        W70981   6.367  17.306  28.134 -0.2253 -0.0659  0.1447
28044W        W70982   6.392  15.836  28.896  0.1079 -0.3080  0.1059
28045W        W70983   4.791  18.140  29.682 -0.0864  0.0150 -0.0338
28046W        W70984   5.931  15.927  28.481 -0.1766 -0.4120  0.0103
28047W        W70985   4.772  17.964  30.162 -0.2051 -0.0998  0.1819
28048W        W70986   4.579  17.548  27.260  0.0335  0.0942  0.2864
28049W        W70987   5.558  17.377  27.049 -0.0732 -0.0461  0.0458
28050W        W70988   4.963  17.450  30.490 -0.2755  0.2774 -0.2511
28051W        W70989   7.146  16.727  29.696 -0.1900 -0.2408  0.1853
28052W        W70990   7.135  15.406  28.760  0.1722 -0.0146  0.4660
28053W        W70991   7.795  16.443  29.297 -0.0330  0.1767  0.2754
28054W        W70992   8.864  14.560  27.102 -0.2259 -0.1232 -0.0495
28055W        W70993   5.582  16.093  29.732  0.0872  0.2100 -0.2755
28056W        W70994   5.444  16.781  28.701 -0.3478  0.1810 -0.1226
28057W        W70995   5.719  15.334  28.795 -0.2620 -0.0256 -0.2210
28058W        W70996   3.284  15.671  31.541  0.0948 -0.0931 -0.2080
28059W        W70997   9.008  12.809  29.504 -0.1006 -0.0990  0.4341
28060W        W70998   3.993  17.523  31.326 -0.1210  0.1595  0.1226
28061W        W70999   6.842  18.015  29.030  0.0748 -0.1000  0.2106
28062W        W71000   3.978  15.142  29.776 -0.2500 -0.2872  0.1783
28063W        W71001   6.119  15.697  30.966  0.0136  0.2514  0.4049
28064W        W71002   7.377  13.346  31.770  0.2097 -0.0719  0.1159
28065W        W71003   6.402  18.027  27.361 -0.1314  0.1842  0.1167
28066W        W71004   5.606  16.679  30.401  0.1234 -0.1366  0.1891
28067W        W71005   4.700  18.249  29.189  0.1727  0.0883 -0.1546
28068W        W71006   5.303  17.224  30.148 -0.0555 -0.1600  0.1051
28069W        W71007   6.008  19.491  29.968  0.3220  0.0425  0.1441
28070W        W71008   3.236  15.500  28.777  0.0180 -0.2651  0.0138
28071W        W71009   6.609  16.807  29.483  0.0914 -0.4157  0.1429
28072W        W71010   2.956  15.477  30.402  0.1898 -0.2726  0.0710
28073W        W71011   5.507  14.861  31.006  0.1996 -0.1474  0.1485
28074W        W71012   4.176  15.422  30.416 -0.0339  0.2137  0.1465
28075W        W71013   6.432  15.027  29.162 -0.2319  0.0338 -0.5202
28076W        W71014   3.744  15.361  30.695 -0.2889  0.2557 -0.0489
28077W        W71015   3.444  15.666  30.481 -0.0902  0.0011  0.2446
28078W        W71016   4.871  16.542  28.147 -0.0726  0.0309  0.0412
28079W        W71017   7.701  17.809  31.050 -0.1476  0.2601  0.0662
28080W        W71018   5.670  15.266  27.951 -0.5433  0.1527 -0.1427
28081W        W71019   5.427  18.682  30.381  0.0245 -0.0162  0.0745
28082W        W71020   4.363  16.184  30.801  0.1556 -0.1036 -0.0427
28083W        W71021   5.244  15.438  27.737 -0.0883  0.2936  0.0959
28084W        W71022   3.129  15.028  30.619 -0.0127 -0.0530  0.1955
28085W        W71023   5.296  16.267  31.008  0.1868 -0.0702  0.1022
28086W        W71024   8.146  19.293  30.423  0.4283 -0.1663  0.0153
28087W        W71025   4.946  14.593  28.598 -0.2852 -0.0195 -0.2140
28088W        W71026   7.297  17.448  27.432 -0.2767 -0.0227 -0.1831
28089W        W71027   7.250  16.293  30.024  0.2685  0.1558  0.1274
28090W        W71028   4.976  17.356  26.967 -0.1235  0.0264 -0.2125
28091W        W71029   6.743  16.347  29.635 -0.1223 -0.1558  0.1780
28092W        W71030   6.325  18.069  29.366  0.0351 -0.1654  0.1862
28093W        W71031   3.321  14.618  30.941 -0.2158  0.3385  0.1170
28094W        W71032   6.840  18.278  29.984 -0.1533  0.1736  0.1098
28095W        W71033   6.814  17.563  29.900  0.4407  0.1407 -0.1644
28096W        W71034   5.705  14.554  28.943  0.1538 -0.2027  0.0575
28097W        W71035   6.445  16.267  29.214  0.0404  0.1766 -0.1325
28098W        W71036   3.610  16.513  29.938  0.0423 -0.0044 -0.3580
28099W        W71037   6.863  16.340  30.407 -0.1077  0.0261 -0.3192
28100W        W71038   6.645  14.123  30.889  0.2404  0.1049 -0.0078
28101W        W71039   5.029  17.548  27.389 -0.1562 -0.0605  0.0443
28102W        W71040   5.508  14.340  29.881 -0.0206  0.1915 -0.1136
28103W        W71041   5.324  17.177  30.669  0.2987  0.1127  0.3724
28104W        W71042   5.031  18.592  30.689  0.0757 -0.0070  0.0224
28105W        W71043   4.823  15.888  27.139 -0.3020 -0.1747 -0.0504
28106W        W71044   5.386  17.037  29.644  0.1500 -0.1641  0.0584
28107W        W71045   5.815  17.075  29.418 -0.0487  0.0076 -0.2057
28108W        W71046   5.310  17.073  27.408  0.1052 -0.3877 -0.0698
28109W        W71047   7.246  16.250  29.502  0.0711 -0.1835 -0.3830
28110W        W71048   5.861  15.835  28.991  0.2490 -0.0538  0.0082
28111W        W71049   7.476  17.574  28.763  0.1117 -0.0045  0.0088
28112W        W71050   5.042  14.834  29.039 -0.0278  0.1657 -0.0087
28113W        W71051   7.782  16.442  28.109 -0.0526  0.1787 -0.2896
28114W        W71052   7.976  15.087  29.139  0.0282 -0.5293  0.1364
28115W        W71053   5.234  16.280  30.500 -0.2891 -0.2985 -0.0626
28116W        W71054   4.429  16.087  27.340  0.0212  0.0688  0.0507
28117W        W71055   5.383  16.590  28.185  0.2374  0.0653  0.1934
28118W        W71056   4.227  16.065  29.471 -0.0430  0.1881 -0.2488
28119W        W71057   5.774  14.972   0.661  0.0493  0.1032 -0.0086
28120W        W71058   3.236  14.848   0.446 -0.1173 -0.1757 -0.0993
28121W        W71059   3.792  16.615  31.646  0.0535  0.0299 -0.1810
28122W        W71060   4.733  16.108  29.662 -0.1365  0.0109 -0.0894
28123W        W71061   6.536  17.088  28.608  0.0990  0.2264 -0.0013
28124W        W71062   3.595  14.404  29.951  0.1225 -0.0571 -0.1210
28125W        W71063   3.391  14.318  30.487  0.0553 -0.1518 -0.3905
28126W        W71064   6.167  17.002  27.084 -0.0379 -0.0694  0.0803
28127W        W71065   6.099  17.344  28.584  0.5365  0.1660  0.1068
28128W        W71066   5.107  15.256  30.036 -0.2716 -0.2201 -0.1789
28129W        W71067   6.787  19.056  30.579  0.2719  0.2166  0.2612
28130W        W71068   3.210  17.383  30.151  0.0490  0.3930 -0.1140
28131W        W71069   3.352  17.072  31.253 -0.0565 -0.0487  0.0921
28132W        W71070   5.590  15.632   0.653  0.1958 -0.2964  0.0499
28133W        W71071   4.179  14.567  27.117  0.3225 -0.2408  0.4876
28134W        W71072   7.041  15.943  30.760  0.3302  0.2684 -0.2154
28135W        W71073   6.884  17.597  28.738  0.0273 -0.0923  0.0365
28136W        W71074   6.370  17.960  26.816  0.3090 -0.3254 -0.2805
28137W        W71075   4.426  16.685  30.173  0.2646  0.0462 -0.0259
28138W        W71076   5.057  16.710  30.304  0.1311  0.0039  0.0527
28139W        W71077   2.958  13.230   0.293 -0.0319  0.4205  0.1217
28140W        W71078   7.769  17.618  28.305 -0.0961 -0.1604 -0.0573
28141W        W71079   5.796  16.885  31.291  0.1189 -0.0097  0.0807
28142W        W71080   7.907  17.283  28.720  0.2034 -0.1022  0.2269
28143W        W71081   8.169  13.898  29.922 -0.0629 -0.1260  0.0734
28144W        W71082   6.083  15.951  30.099  0.0745  0.0286  0.0026
28145W        W71083   4.199  15.497  30.987  0.1633  0.1700 -0.2090
28146W        W71084   5.533  16.428  31.402 -0.2574 -0.1167  0.0355
28147W        W71085   7.514  15.710  30.833 -0.0354  0.0928  0.2563
28148W        W71086   4.003  14.633  29.910 -0.3714  0.2384  0.0269
28149W        W71087   5.777  13.740  29.359  0.0631 -0.1601 -0.0993
28150W        W71088   6.869  17.216  28.311 -0.0831 -0.1844 -0.0916
28151W        W71089   4.679  17.063  31.665 -0.0109  0.2357 -0.0920
28152W        W71090   5.682  15.861  27.891  0.3729  0.0374  0.2382
28153W        W71091   7.082  15.472  30.495 -0.0348 -0.1245 -0.1222
28154W        W71092   6.465  18.473  29.769 -0.1382 -0.0500  0.0072
28155W        W71093   8.895  17.007  31.583  0.1821  0.2105  0.0977
28156W        W71094   6.095  16.258  29.655 -0.0227  0.1299  0.1766
28157W        W71095   8.474  14.558  26.257 -0.2487 -0.0108 -0.3943
28158W        W71096   6.318  18.285  30.806  0.0169  0.2754 -0.0263
28159W        W71097   5.950  18.864   1.167 -0.1968 -0.0165  0.2556
28160W        W71098   6.808  17.257  30.333  0.0565  0.0494 -0.2142
28161W        W71099   7.408  17.281  28.379 -0.2791  0.1324  0.3576
28162W        W71100   5.254  15.262  31.315 -0.1249 -0.0007 -0.3908
28163W        W71101   6.090  16.831  28.778  0.0572  0.1242 -0.0628
28164W        W71102   5.721  16.656  29.690 -0.2365  0.0873 -0.0682
28165W        W71103   6.905  15.878  29.517 -0.1175 -0.0043 -0.3442
28166W        W71104   5.965  15.518  30.472  0.0884 -0.2693  0.3811
28167W        W71105   6.777  13.795  28.465 -0.1815  0.0679 -0.4261
28168W        W71106   4.269  18.149  30.451  0.2505 -0.0972 -0.0764
28169W        W71107   6.253  17.068  29.212 -0.1014  0.1944  0.0877
28170W        W71108   7.051  16.215  31.222 -0.2170 -0.0100 -0.0661
28171W        W71109   8.017  17.004  31.407  0.0762 -0.2214 -0.2793
28172W        W71110   3.506  16.093  31.493 -0.0678 -0.1498  0.1963
28173W        W71111   5.153  16.243   0.232  0.1531  0.1161  0.3078
28174W        W71112   6.261  17.817  31.603  0.0632 -0.2188 -0.1704
28175W        W71113   4.198  17.999  31.011  0.0352 -0.4217 -0.0167
28176W        W71114   6.339  15.222   0.289 -0.1052  0.2605 -0.0369
28177W        W71115   6.218  14.315  31.092  0.1150 -0.2717  0.1632
28178W        W71116   7.162  15.009  30.216  0.1253 -0.2712 -0.1477
28179W        W71117   8.466  17.263  31.447  0.2140  0.1340 -0.1460
28180W        W71118   5.866  16.919  31.906 -0.0284  0.1173  0.0027
28181W        W71119   4.804  13.929  30.330 -0.1132 -0.2080  0.0830
28182W        W71120   7.053  15.250  31.553 -0.3252 -0.2107  0.0710
28183W        W71121   6.396  16.359  31.751 -0.0163 -0.1118  0.2136
28184W        W71122   7.299  16.201   0.055 -0.1876  0.0008  0.0079
28185W        W71123   4.383  17.031  31.135 -0.0017 -0.2023  0.0608
28186W        W71124   3.421  17.229   0.201 -0.2772  0.0635 -0.2427
28187W        W71125   6.223  17.834  30.571 -0.1447 -0.1216 -0.0100
28188W        W71126   5.591  15.430  30.950  0.1145 -0.2899  0.3977
28189W        W71127   4.333  16.659  31.586  0.2911  0.0266 -0.0795
28190W        W71128   5.866  15.974  31.710 -0.0112  0.1395  0.1998
28191W        W71129   3.641  18.292   0.989 -0.2655  0.5687  0.0440
28192W        W71130   6.776  13.886  31.796 -0.1806  0.0905  0.1603
28193W        W71131   7.027  16.572  30.851  0.0431  0.1407  0.1292
28194W        W71132   5.246  12.936  31.011  0.0369  0.1508 -0.0496
28195W        W71133   6.928  14.674  30.821  0.4498 -0.1197 -0.1397
28196W        W71134   5.359  15.306  31.790 -0.3978  0.0529  0.1677
28197W        W71135   4.081  16.468   0.153 -0.0667 -0.0142  0.2670
28198W        W71136   4.696  16.272  30.434 -0.0448 -0.0062  0.3095
28199W        W71137   4.143  17.342   0.255 -0.1498  0.2577  0.2190
28200W        W71138   5.666  17.898  30.822 -0.0569  0.3262 -0.0862
28201W        W71139   5.778  14.567  31.268  0.2031  0.0824 -0.1268
28202W        W71140   6.388  16.224   0.426  0.2456 -0.1347  0.0102
28203W        W71141   6.461  14.813   0.049  0.1370 -0.1671 -0.0460
28204W        W71142   4.941  16.564  31.810 -0.0863 -0.1702  0.0103
28205W        W71143   6.835  16.116   2.557  0.0721  0.0075 -0.3069
28206W        W71144   4.548  16.484  31.174 -0.1909 -0.0694  0.0328
28207W        W71145   6.815  17.508  31.334  0.0494  0.1546  0.2916
28208W        W71146   6.826  16.322   0.657 -0.2502  0.0342  0.3228
28209W        W71147   6.558  15.379  31.313  0.3489  0.1143 -0.1168
28210W        W71148   6.283  17.023  30.291  0.1096 -0.4389 -0.0092
28211W        W71149   6.566  16.457  31.255  0.0881 -0.3531  0.3004
28212W        W71150   4.575  15.213  30.834  0.2917 -0.0928  0.2172
28213W        W71151   5.304  18.824   0.254  0.2457  0.3141 -0.2624
28214W        W71152   3.627  14.444   0.401 -0.0357  0.1316  0.0146
28215W        W71153   5.427  17.717  31.388  0.1236  0.2038  0.2065
28216W        W71154   5.895  12.963  31.797 -0.2919 -0.0355  0.1543
28217W        W71155   7.382  17.507  30.820 -0.1832 -0.1346  0.0499
28218W        W71156   6.780  16.703  31.714  0.2342 -0.0082 -0.0353
28219W        W71157   4.421  17.518  31.586  0.1533 -0.3540  0.0679
28220W        W71158   8.097  18.062  31.256  0.0212 -0.0580 -0.0260
28221W        W71159   5.892  14.613  30.791  0.0417 -0.3014  0.1164
28222W        W71160   5.691  15.886   0.183 -0.2428  0.1458 -0.0503
28223W        W71161   4.246  16.138   0.507  0.1144 -0.1931  0.0139
28224W        W71162   6.198  16.148  31.238  0.3791  0.0636  0.0949
28225W        W71163   5.856  16.435  31.011  0.1360  0.0330  0.3296
28226W        W71164   6.553  17.874  31.015  0.3081 -0.1419 -0.2339
28227W        W71165   6.875  19.219  30.095  0.1343 -0.6089 -0.2691
28228W        W71166   6.073  17.859  31.122  0.1298  0.0840 -0.4816
28229W        W71167   4.445  15.597   0.683 -0.3134  0.4907 -0.3315
28230W        W71168   2.428  16.772   0.533 -0.2164 -0.0292  0.0180
28231W        W71169   4.455  15.311  31.799 -0.0451 -0.1983  0.2874
28232W        W71170   3.516  16.157   0.022 -0.1141 -0.1185 -0.0004
28233W        W71171   4.082  14.618  31.177 -0.4705  0.1754 -0.1408
28234W        W71172   7.506  18.949  31.197 -0.1480  0.3292 -0.1381
28235W        W71173   8.278  17.883  31.690  0.2110  0.1870 -0.0914
28236W        W71174   7.213  17.013  30.592  0.1934 -0.0985 -0.3047
28237W        W71175   5.188  21.199  18.888 -0.1570  0.0121  0.0430
28238W        W71176   4.832  20.050  15.756 -0.3001  0.2035 -0.1311
28239W        W71177   8.238  17.495  15.993 -0.0393  0.1914 -0.2917
28240W        W71178   6.405  19.544  16.180 -0.0629 -0.0658  0.2848
28241W        W71179   4.821  20.634  17.619 -0.3594  0.0117  0.0030
28242W        W71180   6.835  21.349  17.113  0.0531 -0.0041  0.0034
28243W        W71181   3.732  18.140  19.183  0.2158 -0.0044  0.1866
28244W        W71182   5.591  22.236  18.614 -0.0240 -0.2798 -0.0101
28245W        W71183   7.615  23.043  18.503  0.0422  0.0413 -0.1524
28246W        W71184   5.944  19.309  16.390 -0.1644  0.0010 -0.1146
28247W        W71185   5.377  21.685  19.632  0.2877  0.2586  0.1236
28248W        W71186   4.392  21.729  18.706 -0.1203  0.0864  0.0094
28249W        W71187   5.134  19.127  16.111 -0.2267  0.1431 -0.1509
28250W        W71188   2.526  20.173  18.959  0.1221  0.1148 -0.1872
28251W        W71189   5.846  20.179  18.091  0.1346 -0.2895  0.0459
28252W        W71190   4.417  20.581  17.006  0.1630  0.2940 -0.0639
28253W        W71191   4.968  20.327  19.065  0.1690 -0.0029  0.1203
28254W        W71192   4.451  19.582  17.095 -0.2970 -0.2323  0.0647
28255W        W71193   4.814  21.807  18.004 -0.2514 -0.3867 -0.0485
28256W        W71194   5.661  19.061  19.362 -0.1349 -0.1689 -0.0327
28257W        W71195   5.166  19.793  20.498  0.1731  0.0821  0.2196
28258W        W71196   4.431  21.557  18.187 -0.0917 -0.0170 -0.1407
28259W        W71197   3.321  19.446  16.341 -0.1254 -0.0083 -0.0437
28260W        W71198   1.536  19.939  17.770  0.0739 -0.1631 -0.0325
28261W        W71199   3.622  20.261  18.170 -0.0409  0.1377  0.0199
28262W        W71200   7.442  19.017  18.937 -0.3004  0.2982 -0.0635
28263W        W71201   5.810  20.951  18.021 -0.0404  0.1348  0.0200
28264W        W71202   5.744  22.051  18.144 -0.1065  0.3975 -0.0354
28265W        W71203   6.377  21.812  18.925  0.1711 -0.0624 -0.0471
28266W        W71204   4.578  19.458  19.886  0.0947 -0.0598 -0.0201
28267W        W71205   2.165  20.791  18.489  0.0135 -0.0989  0.1457
28268W        W71206   4.287  21.503  17.278 -0.0466  0.1483 -0.1710
28269W        W71207   4.414  20.989  17.775  0.0996 -0.0244 -0.1030
28270W        W71208   6.298  20.822  16.665 -0.4086 -0.2135 -0.1681
28271W        W71209   4.593  20.127  18.352  0.3703 -0.1266 -0.0802
28272W        W71210   4.690  22.369  19.551 -0.4526  0.3123 -0.0485
28273W        W71211   3.992  20.781  16.827 -0.0315 -0.1200  0.1762
28274W        W71212   5.516  22.658  18.242  0.4696  0.1491  0.0260
28275W        W71213   4.286  23.737  19.019  0.1051 -0.0237  0.2870
28276W        W71214   4.346  19.823  21.089  0.0740  0.1773  0.1429
28277W        W71215   5.841  19.741  18.306 -0.2131  0.0816 -0.2014
28278W        W71216   6.134  21.280  16.482  0.2177 -0.1441 -0.0611
28279W        W71217   4.675  21.477  17.688  0.0277 -0.1281 -0.0820
28280W        W71218   5.144  21.573  21.080 -0.0172 -0.1005  0.2770
28281W        W71219   3.537  21.709  18.550  0.2192  0.3029 -0.3713
28282W        W71220   6.301  19.611  20.145  0.2964 -0.2506 -0.2540
28283W        W71221   4.438  21.897  16.347  0.4370 -0.0335  0.2697
28284W        W71222   5.729  19.973  17.443 -0.0188  0.2584 -0.1451
28285W        W71223   5.594  19.640  16.959 -0.2826  0.0124  0.1016
28286W        W71224   6.344  18.603  16.419 -0.1165 -0.1012  0.0094
28287W        W71225   5.032  20.168  16.645  0.0778  0.3562  0.0653
28288W        W71226   6.908  22.448  17.406  0.1075 -0.2594  0.0350
28289W        W71227   5.582  18.873  18.893  0.0699 -0.3147  0.2281
28290W        W71228   6.920  21.870  18.986  0.0129  0.1150 -0.0538
28291W        W71229   3.853  19.636  17.820 -0.1106  0.2263 -0.2242
28292W        W71230   6.877  18.752  20.396 -0.1737 -0.0466  0.3721
28293W        W71231   2.747  21.440  18.414 -0.1885  0.0725 -0.1537
28294W        W71232   2.944  20.219  16.971  0.2905 -0.0746 -0.3496
28295W        W71233   6.340  21.227  17.182  0.3191  0.0386  0.3333
28296W        W71234   4.721  21.892  17.325 -0.0053 -0.2972 -0.4483
28297W        W71235   6.437  21.345  16.041 -0.0187  0.1557 -0.4215
28298W        W71236   3.916  19.644  16.827 -0.0956 -0.0786 -0.1179
28299W        W71237   4.564  21.854  19.737  0.0769  0.0593  0.0588
28300W        W71238   3.831  19.760  18.317  0.1233  0.1138  0.0050
28301W        W71239   4.058  18.284  17.370 -0.2985  0.0380 -0.1531
28302W        W71240   6.296  21.687  19.424 -0.2453  0.1107 -0.2320
28303W        W71241   1.566  21.792  19.789 -0.2362  0.0635  0.0792
28304W        W71242   6.237  19.529  19.063  0.3210 -0.1764 -0.2409
28305W        W71243   4.823  20.566  18.109  0.1465  0.2241 -0.0893
28306W        W71244   7.577  20.858  19.462 -0.0617 -0.0058 -0.1154
28307W        W71245   5.954  21.130  16.883  0.0967 -0.2807 -0.1288
28308W        W71246   5.166  17.787  18.250 -0.0879 -0.2382 -0.1107
28309W        W71247   5.721  17.650  18.226  0.0549  0.1516  0.1448
28310W        W71248   5.511  20.544  17.147  0.0391 -0.1066  0.0098
28311W        W71249   5.332  20.927  17.705 -0.0541 -0.0326 -0.0842
28312W        W71250   6.761  20.636  17.427 -0.0938  0.2336  0.1618
28313W        W71251   7.675  18.476  16.719  0.0286  0.1275  0.1215
28314W        W71252   4.860  23.127  17.722 -0.0325  0.0321 -0.1855
28315W        W71253   5.264  19.168  19.675  0.1518 -0.1484  0.1427
28316W        W71254   6.065  23.198  19.176 -0.1042  0.0576 -0.2344
28317W        W71255   3.948  21.275  16.937  0.1627 -0.0101  0.3972
28318W        W71256   2.641  20.601  18.651 -0.0680  0.2292  0.2122
28319W        W71257   4.150  20.567  17.440 -0.0418  0.2885  0.2806
28320W        W71258   3.939  19.413  19.366 -0.1190  0.0519 -0.2035
28321W        W71259   6.316  20.782  19.535  0.0653 -0.0546  0.1587
28322W        W71260   5.704  19.051  17.508  0.2549  0.0907  0.2574
28323W        W71261   3.403  18.947  18.768 -0.2457 -0.1724 -0.0012
28324W        W71262   6.152  19.414  18.160 -0.1563  0.3537  0.0766
28325W        W71263   5.022  21.289  16.741 -0.0859 -0.1891 -0.2156
28326W        W71264   7.175  21.093  16.826  0.1388  0.0926 -0.0346
28327W        W71265   7.402  18.364  17.208  0.1049  0.0132 -0.1882
28328W        W71266   7.456  21.537  15.985 -0.2546 -0.2353  0.3597
28329W        W71267   3.947  20.355  19.033  0.3349 -0.0422 -0.0212
28330W        W71268   3.962  20.189  17.734 -0.1508  0.0419  0.1080
28331W        W71269   4.457  19.622  18.472  0.1323 -0.1297  0.3957
28332W        W71270   4.019  18.540  19.121  0.1085 -0.1397 -0.0952
28333W        W71271   5.338  20.307  20.384  0.1704 -0.0516 -0.1102
28334W        W71272   3.453  18.979  17.186 -0.0630 -0.1701 -0.4489
28335W        W71273   6.765  18.874  18.264 -0.2296 -0.0240  0.0833
28336W        W71274   6.280  19.327  16.826 -0.3497  0.2554  0.1868
28337W        W71275   3.638  21.386  17.893  0.4582  0.0713  0.2269
28338W        W71276   6.040  20.541  20.493 -0.0768 -0.1888  0.0262
28339W        W71277   5.119  21.024  17.203  0.0544  0.2837 -0.2239
28340W        W71278   7.004  22.875  18.756 -0.2188  0.2988 -0.0057
28341W        W71279   7.977  22.158  17.661  0.0405 -0.0767 -0.0393
28342W        W71280   3.826  18.392  19.597 -0.0918 -0.2198 -0.1109
28343W        W71281   3.217  20.605  17.242  0.3320 -0.0592  0.1512
28344W        W71282   2.824  22.717  17.797 -0.1439  0.1234  0.0789
28345W        W71283   6.469  19.799  16.920  0.3304  0.3332  0.1649
28346W        W71284   5.396  17.935  16.081 -0.1082 -0.0180  0.1448
28347W        W71285   7.124  21.563  17.628 -0.1822  0.1833  0.2737
28348W        W71286   6.084  19.954  16.201 -0.3036  0.1339  0.1249
28349W        W71287   2.914  20.969  18.468  0.0273  0.0516  0.0731
28350W        W71288   5.507  19.545  19.371  0.1360 -0.0408  0.1262
28351W        W71289   6.402  20.052  18.975 -0.3215  0.0027  0.1710
28352W        W71290   4.718  21.294  17.148 -0.1306  0.1243 -0.1935
28353W        W71291   4.665  18.676  16.762 -0.0991 -0.0262  0.1837
28354W        W71292   4.826  21.555  18.946 -0.2319  0.0962  0.2980
28355W        W71293   4.687  20.215  16.303  0.2070 -0.3700  0.1336
28356W        W71294   2.118  21.147  17.607  0.0036 -0.0779  0.0766
28357W        W71295   5.806  21.881  18.937  0.0233 -0.0339 -0.2692
28358W        W71296   4.757  19.261  17.741 -0.0236  0.0770 -0.1999
28359W        W71297   4.826  21.140  19.199 -0.2469 -0.0509 -0.0794
28360W        W71298   5.950  21.641  20.543  0.0492 -0.2733  0.2549
28361W        W71299   4.518  18.849  17.245 -0.6092  0.1433  0.1727
28362W        W71300   5.208  22.518  20.230  0.3453 -0.0353  0.0513
28363W        W71301   5.351  18.247  17.114 -0.0678  0.0258 -0.1727
28364W        W71302   6.123  20.170  17.674 -0.3176  0.1868  0.1222
28365W        W71303   6.273  19.687  18.598 -0.0702 -0.1893 -0.1213
28366W        W71304   6.309  20.197  16.622 -0.0337  0.0563  0.3622
28367W        W71305   6.001  18.020  17.948  0.0809 -0.3421 -0.1875
28368W        W71306   6.310  18.847  17.550 -0.0638 -0.1455  0.3426
28369W        W71307   5.047  22.059  19.409  0.0090  0.3265  0.0944
28370W        W71308   6.435  21.714  17.040  0.0817 -0.1218 -0.1016
28371W        W71309   5.226  20.629  19.753 -0.1090 -0.1755  0.0141
28372W        W71310   6.020  19.607  17.254 -0.0655 -0.1393  0.2259
28373W        W71311   7.121  21.129  16.305 -0.1591  0.1037 -0.1745
28374W        W71312   2.518  21.079  18.761 -0.1627  0.0062  0.3653
28375W        W71313   5.081  20.396  18.575 -0.1219  0.0374  0.4257
28376W        W71314   4.232  21.260  18.576 -0.0271 -0.1400 -0.3072
28377W        W71315   3.482  18.845  17.640  0.1625  0.1157  0.1886
28378W        W71316   5.085  19.698  16.142  0.3006 -0.0106  0.0236
28379W        W71317   4.351  19.013  18.398 -0.0959  0.0647  0.2041
28380W        W71318   5.289  22.414  16.478  0.0933 -0.0927  0.0503
28381W        W71319   5.856  18.490  19.390  0.0014 -0.0668 -0.1108
28382W        W71320   5.627  18.596  17.922  0.1948  0.0285 -0.1739
28383W        W71321   5.263  18.937  17.944  0.2923 -0.0048  0.1727
28384W        W71322   7.522  20.783  20.378  0.2349  0.0868 -0.2003
28385W        W71323   7.222  19.846  18.182 -0.1431 -0.0150 -0.0018
28386W        W71324   5.403  19.280  18.393 -0.0630 -0.2009  0.3140
28387W        W71325   4.465  20.378  17.837 -0.0492  0.0622  0.0383
28388W        W71326   4.482  19.217  19.486 -0.0552  0.2704  0.1231
28389W        W71327   3.216  20.569  18.262  0.0518 -0.0990 -0.0374
28390W        W71328   4.200  21.726  19.403  0.2667 -0.0018  0.0334
28391W        W71329   7.125  22.555  19.799 -0.1992 -0.1048 -0.0281
28392W        W71330   5.099  21.524  17.394  0.0257 -0.0333  0.1577
28393W        W71331   3.869  19.114  18.947 -0.0305 -0.1054 -0.4291
28394W        W71332   2.968  19.620  17.922 -0.1523  0.0060  0.1045
28395W        W71333   3.296  21.726  17.427 -0.0347  0.0318  0.1414
28396W        W71334   4.453  20.205  17.318  0.0450  0.2038 -0.1102
28397W        W71335   5.362  18.122  19.579 -0.2966 -0.2144 -0.0923
28398W        W71336   6.800  22.016  21.704 -0.0873  0.0839 -0.1591
28399W        W71337   5.741  20.953  16.428 -0.1579 -0.1059 -0.0040
28400W        W71338   6.245  20.882  18.395  0.0771  0.3505 -0.2535
28401W        W71339   3.865  21.896  17.395 -0.2397  0.1942 -0.0052
28402W        W71340   6.896  18.420  18.325 -0.0892 -0.1340 -0.3168
28403W        W71341   3.543  22.369  17.981 -0.0663 -0.1601  0.0852
28404W        W71342   4.752  19.241  16.383 -0.1639 -0.0585  0.1344
28405W        W71343   3.058  19.705  16.903 -0.1342  0.0753 -0.2250
28406W        W71344   6.723  19.710  17.987 -0.1034  0.1356 -0.4364
28407W        W71345   7.003  20.795  15.551  0.4098 -0.1656  0.1906
28408W        W71346   5.122  18.765  21.134  0.1734 -0.1784 -0.0548
28409W        W71347   5.236  19.820  18.951  0.2893 -0.2548 -0.0634
28410W        W71348   3.783  22.337  18.499 -0.0312  0.1600  0.4102
28411W        W71349   5.491  20.291  18.929  0.1972  0.0145  0.0351
28412W        W71350   6.486  18.844  16.986  0.2403  0.2110  0.0090
28413W        W71351   6.148  21.378  19.873 -0.1752 -0.1289 -0.0495
28414W        W71352   4.469  20.229  19.190  0.0840 -0.3938  0.1991
28415W        W71353   4.255  19.303  17.545 -0.1355 -0.0598  0.0084
28416W        W71354   7.057  20.720  18.635 -0.1320  0.2065 -0.1870
28417W        W71355   6.039  21.542  17.373  0.1471 -0.0439 -0.0019
28418W        W71356   3.185  22.260  18.638  0.0823 -0.1865 -0.1418
28419W        W71357   5.840  21.557  19.273  0.1246  0.1087  0.1695
28420W        W71358   4.688  19.173  16.890  0.4762 -0.0795  0.0930
28421W        W71359   5.363  20.437  17.958 -0.0719 -0.2606  0.0048
28422W        W71360   3.764  20.163  20.241  0.1927 -0.0888  0.0707
28423W        W71361   6.288  20.159  19.500  0.1340 -0.1377 -0.0306
28424W        W71362   4.832  18.993  19.818  0.1369  0.0768  0.0530
28425W        W71363   4.786  18.867  18.679 -0.1898 -0.1305  0.0016
28426W        W71364   5.193  19.489  17.965 -0.1461  0.2788  0.0579
28427W        W71365   6.087  22.348  18.339 -0.3528  0.0656 -0.2296
28428W        W71366   4.866  20.031  20.117 -0.2031 -0.0620 -0.3160
28429W        W71367   3.073  21.142  19.959  0.1385  0.4148 -0.1326
28430W        W71368   4.528  19.695  19.353 -0.2490  0.3001 -0.0427
28431W        W71369   7.933  22.406  16.328 -0.1270 -0.2427  0.3895
28432W        W71370   5.694  20.496  18.421  0.1707  0.2268 -0.2393
28433W        W71371   3.407  19.794  18.069  0.0734 -0.1512  0.0060
28434W        W71372   1.679  21.622  18.522 -0.0596  0.1189  0.3251
28435W        W71373   5.241  19.318  18.885  0.1591  0.0536  0.2734
28436W        W71374   4.355  19.908  19.756  0.0049 -0.1750 -0.1562
28437W        W71375   5.015  21.379  18.426 -0.0615  0.2490  0.1096
28438W        W71376   4.734  21.006  16.219  0.1271  0.0050  0.0115
28439W        W71377   4.076  20.637  17.947 -0.1322 -0.1166  0.0280
28440W        W71378   6.996  17.560  18.516 -0.0463 -0.1712 -0.0992
28441W        W71379   6.769  20.285  16.869 -0.0305  0.0756  0.0533
28442W        W71380   5.205  20.093  17.457 -0.2273 -0.2128  0.0637
28443W        W71381   6.391  18.549  20.675  0.1305  0.1782 -0.1475
28444W        W71382   5.494  19.494  17.513  0.1815 -0.0348 -0.0531
28445W        W71383   6.797  19.854  20.005 -0.1684 -0.0392 -0.0229
28446W        W71384   5.464  18.029  17.899  0.1988  0.0183 -0.5735
28447W        W71385   5.761  21.928  17.566  0.1452  0.0539  0.1143
28448W        W71386   4.954  18.949  19.272  0.0448 -0.4048 -0.0907
28449W        W71387   6.651  22.194  21.237 -0.1302 -0.1683 -0.0310
28450W        W71388   4.334  21.329  19.034 -0.0070  0.1487 -0.0754
28451W        W71389   5.438  20.532  16.542 -0.0131 -0.2563 -0.0603
28452W        W71390   4.019  18.140  18.250 -0.0091  0.1365  0.1004
28453W        W71391   4.446  20.449  18.776  0.2613  0.1068 -0.0405
28454W        W71392   6.005  21.647  16.772 -0.2047 -0.0657  0.0541
28455W        W71393   5.736  21.107  18.492  0.1912 -0.1753  0.3296
28456W        W71394   6.772  18.207  19.520  0.2201 -0.1967 -0.4521
28457W        W71395   3.679  21.211  18.531 -0.1863  0.0101 -0.1574
28458W        W71396   6.711  19.949  18.512  0.0738 -0.0036  0.0271
28459W        W71397   6.517  20.506  15.940 -0.2938  0.0461  0.0368
28460W        W71398   4.187  19.962  18.088  0.0012 -0.2363 -0.3764
28461W        W71399   6.138  17.942  18.517 -0.4057  0.0892 -0.0364
28462W        W71400   6.437  21.192  18.010  0.3151 -0.4529  0.1694
28463W        W71401   5.475  19.156  17.013  0.0831  0.0349  0.0945
28464W        W71402   5.653  18.343  21.370  0.0426  0.2238  0.1964
28465W        W71403   5.314  19.800  21.127  0.3169  0.4660 -0.3150
28466W        W71404   5.445  20.726  18.782 -0.1844  0.1114  0.0334
28467W        W71405   4.237  19.424  18.901 -0.2038  0.0169 -0.1018
28468W        W71406   8.266  21.116  18.781  0.0514  0.0817 -0.2368
28469W        W71407   5.879  20.643  16.835 -0.1859  0.0817 -0.0222
28470W        W71408   6.468  17.998  18.977 -0.1173 -0.1703  0.0654
28471W        W71409   5.073  18.557  18.986  0.0036 -0.0564  0.0814
28472W        W71410   6.073  19.101  17.212  0.1316 -0.2971  0.0481
28473W        W71411   3.784  20.744  18.356 -0.0199 -0.1209 -0.3738
28474W        W71412   6.421  21.393  20.327 -0.2278 -0.0187  0.3387
28475W        W71413   3.846  19.542  16.365 -0.1311  0.1091  0.1492
28476W        W71414   6.045  19.212  21.119 -0.1721  0.0015  0.1618
28477W        W71415   4.685  21.996  18.430  0.0094 -0.1998  0.0404
28478W        W71416   6.177  20.558  18.012  0.1040 -0.0709  0.2434
28479W        W71417   5.013  19.507  19.288 -0.2797 -0.0616 -0.2212
28480W        W71418   2.587  19.957  17.739 -0.1718 -0.3260 -0.1981
28481W        W71419   4.729  21.881  20.317 -0.0352 -0.0120  0.2794
28482W        W71420   4.067  19.174  17.102  0.1791  0.0380  0.1632
28483W        W71421   4.823  20.665  16.579  0.0237  0.0960 -0.0691
28484W        W71422   5.638  22.050  19.371 -0.0141 -0.1738  0.2060
28485W        W71423   7.239  21.504  19.743 -0.3282  0.0539 -0.0403
28486W        W71424   5.805  17.402  16.691  0.1641  0.0566 -0.1264
28487W        W71425   6.215  20.510  19.133 -0.0192 -0.0244  0.1556
28488W        W71426   4.555  20.134  16.779  0.2341  0.0653 -0.1344
28489W        W71427   4.804  19.265  18.300  0.0237  0.1298 -0.2101
28490W        W71428   4.370  22.739  18.476  0.0590 -0.2020 -0.0297
28491W        W71429   3.888  20.825  18.818  0.0901 -0.1627  0.1927
28492W        W71430   2.545  21.676  18.827 -0.1686  0.0223 -0.1152
28493W        W71431   6.878  18.913  18.962 -0.1349  0.1381 -0.1123
28494W        W71432   6.296  19.925  18.151  0.3367  0.0448  0.0993
28495W        W71433   5.137  19.720  18.413  0.0954  0.0988  0.4475
28496W        W71434   6.673  21.181  19.505  0.2021  0.0087 -0.2181
28497W        W71435   6.719  20.417  19.290 -0.1700  0.1213  0.2451
28498W        W71436   3.756  20.179  19.487  0.4749  0.0367 -0.0098
28499W        W71437   8.112  20.243  17.918  0.1173 -0.2244 -0.0016
28500W        W71438   5.536  21.470  17.581 -0.1043 -0.1608  0.0317
28501W        W71439   5.643  21.104  19.075 -0.3672  0.0809  0.1939
28502W        W71440   2.895  20.672  19.885 -0.1833 -0.4741  0.0584
28503W        W71441   4.499  20.926  20.274 -0.1886 -0.2693  0.0072
28504W        W71442   6.067  21.855  18.519  0.0377  0.0043 -0.1792
28505W        W71443   3.539  20.410  18.657  0.1634  0.0168  0.1730
28506W        W71444   5.495  20.960  16.852 -0.0237 -0.1732  0.0032
28507W        W71445   3.971  21.272  19.410 -0.2528  0.1236  0.3033
28508W        W71446   2.847  21.376  19.086  0.0965  0.2997  0.1924
28509W        W71447   3.056  21.110  17.147 -0.0902  0.1585  0.1730
28510W        W71448   6.202  20.829  16.185 -0.1421  0.3482  0.0674
28511W        W71449   7.913  20.621  17.272 -0.0958 -0.2171  0.0123
28512W        W71450   5.561  22.094  19.890  0.4324 -0.0217 -0.2978
28513W        W71451   4.669  19.642  18.050  0.4919 -0.3221  0.1081
28514W        W71452   4.855  20.676  19.402  0.1623 -0.0992  0.3981
28515W        W71453   4.317  21.021  17.234 -0.2093 -0.1554  0.1576
28516W        W71454   5.960  20.188  17.027  0.0769  0.3509 -0.3236
28517W        W71455   1.870  19.738  19.059 -0.3197  0.0155 -0.0965
28518W        W71456   7.100  20.533  20.125 -0.0336  0.0346  0.0649
28519W        W71457   6.299  17.091  17.248  0.0123 -0.1703  0.2261
28520W        W71458   4.421  20.822  19.221 -0.0307 -0.0068  0.2490
28521W        W71459   6.782  19.855  16.560 -0.3331 -0.4040  0.1067
28522W        W71460   6.576  21.844  19.901  0.0118 -0.3550 -0.1151
28523W        W71461   4.798  20.801  18.813  0.0190 -0.0119 -0.3578
28524W        W71462   4.731  19.739  16.520  0.2507 -0.0708 -0.0263
28525W        W71463   3.170  20.253  19.590  0.0582 -0.0479 -0.0669
28526W        W71464   6.066  19.398  19.474  0.0424  0.0567 -0.1413
28527W        W71465   1.771  20.172  18.457  0.1503 -0.1531  0.0069
28528W        W71466   5.314  22.246  16.923 -0.1645  0.2272  0.0072
28529W        W71467   3.963  19.720  17.323  0.2423  0.0859  0.0695
28530W        W71468   5.008  19.179  17.306  0.1086  0.0518 -0.1763
28531W        W71469   7.615  19.598  19.540  0.2163 -0.0849  0.1343
28532W        W71470   4.207  19.991  18.733 -0.1568  0.1870 -0.1508
28533W        W71471   5.654  19.259  17.971 -0.3356 -0.0730  0.1131
28534W        W71472   4.750  21.496  16.412 -0.2984  0.1883  0.0426
28535W        W71473   4.825  22.500  18.656  0.0173 -0.1156 -0.0072
28536W        W71474   5.024  23.082  19.055  0.2954 -0.0721  0.1798
28537W        W71475   4.173  18.674  16.905 -0.1518  0.4343  0.0316
28538W        W71476   7.961  20.279  18.394  0.0683 -0.0158 -0.1280
28539W        W71477   4.842  21.607  19.441 -0.2427 -0.0963 -0.1017
28540W        W71478   7.799  18.778  18.481  0.1007 -0.2980  0.0523
28541W        W71479   3.528  19.954  17.638  0.2055 -0.0816  0.0231
28542W        W71480   5.886  20.081  18.736 -0.1606 -0.1508 -0.2227
28543W        W71481   6.178  19.683  21.437  0.1505  0.1119  0.0942
28544W        W71482   3.623  20.658  17.762 -0.0817  0.0429  0.0964
28545W        W71483   4.928  19.913  17.072 -0.1462  0.2349  0.0064
28546W        W71484   7.515  20.551  18.248 -0.0668 -0.1774 -0.0819
28547W        W71485   5.982  18.968  16.753 -0.1895 -0.0442 -0.0490
28548W        W71486   6.003  23.563  19.525 -0.2000  0.3298 -0.1896
28549W        W71487   2.718  20.417  17.611  0.1606  0.1623 -0.0197
28550W        W71488   5.124  19.403  16.728  0.0045  0.0453  0.2062
28551W        W71489   3.992  20.153  16.898 -0.2387 -0.0795  0.3414
28552W        W71490   4.851  21.099  17.957  0.2898  0.0297  0.0387
28553W        W71491   8.046  22.168  20.778 -0.3851  0.0727  0.0562
28554W        W71492   4.222  18.064  17.789 -0.0703  0.1846  0.3004
28555W        W71493   7.066  18.932  16.769  0.2681 -0.1881  0.1828
28556W        W71494   7.134  20.670  17.798  0.0813  0.1839 -0.0001
28557W        W71495   6.135  20.966  17.634 -0.2521  0.0174  0.0895
28558W        W71496   6.714  20.863  16.958  0.0300  0.0742 -0.1827
28559W        W71497   7.890  22.617  18.489 -0.1339  0.1387 -0.2044
28560W        W71498   2.652  20.971  20.211 -0.0761 -0.2071  0.1161
28561W        W71499   6.771  21.669  18.038  0.0456 -0.3808  0.0591
28562W        W71500   7.252  21.153  18.443 -0.1825  0.1543  0.0131
28563W        W71501   5.579  18.238  16.508 -0.4618 -0.1467  0.1001
28564W        W71502   4.758  19.342  18.887 -0.2270  0.1001  0.1953
28565W        W71503   3.430  21.014  16.380  0.2106  0.0749  0.0180
28566W        W71504   6.682  20.371  18.699  0.1259 -0.1758 -0.0711
28567W        W71505   5.633  19.646  18.793 -0.4407  0.3090 -0.3914
28568W        W71506   6.957  19.781  17.182  0.0905  0.4217  0.1676
28569W        W71507   5.299  20.698  19.284 -0.1959  0.3838  0.2900
28570W        W71508   5.765  22.583  19.627  0.2131  0.0403  0.1921
28571W        W71509   4.360  22.230  20.062  0.0410 -0.1354 -0.0270
28572W        W71510   4.250  20.357  16.439  0.3753 -0.2867 -0.1281
28573W        W71511   5.819  21.242  20.242 -0.1121 -0.2472 -0.0821
28574W        W71512   4.062  21.135  18.168  0.0299  0.2898 -0.0766
28575W        W71513   3.776  21.392  17.372  0.1428  0.0890 -0.1992
28576W        W71514   6.231  21.839  18.015  0.0986  0.0136  0.0495
28577W        W71515   4.274  19.395  18.039  0.0758  0.0340  0.0112
28578W        W71516   7.476  20.231  17.618  0.0794 -0.1866 -0.0067
28579W        W71517   3.538  18.402  18.772  0.0963  0.1153  0.1502
28580W        W71518   6.530  19.165  17.952  0.2483  0.3368  0.0285
28581W        W71519   5.828  18.139  17.467 -0.0098  0.1149  0.0412
28582W        W71520   3.469  20.701  19.648  0.1301  0.2215 -0.3622
28583W        W71521   3.518  20.294  16.780 -0.1902 -0.0182  0.0569
28584W        W71522   5.144  21.809  16.919 -0.3156  0.2789  0.1578
28585W        W71523   3.327  21.090  17.512  0.2727 -0.2745  0.0633
28586W        W71524   5.974  19.375  20.558  0.1128  0.0450  0.0116
28587W        W71525   2.959  19.305  18.822  0.0196  0.0174  0.1241
28588W        W71526   2.912  21.153  17.967  0.1445  0.2169  0.0051
28589W        W71527   3.348  17.844  18.003  0.1100 -0.0677 -0.1316
28590W        W71528   6.689  20.960  15.946 -0.0138  0.3531  0.1888
28591W        W71529   5.259  18.339  18.300 -0.0666 -0.0077 -0.2151
28592W        W71530   1.994  19.213  18.823  0.1054  0.0511 -0.0013
28593W        W71531   5.986  19.713  16.683 -0.1160  0.0110  0.1316
28594W        W71532   6.624  19.979  16.105  0.0163 -0.2416 -0.2879
28595W        W71533   4.973  19.633  17.516 -0.0260  0.3573 -0.0558
28596W        W71534   6.833  21.322  19.994  0.1243  0.4224 -0.1544
28597W        W71535   3.388  20.770  16.814  0.1402  0.0766  0.1447
28598W        W71536   5.079  21.666  20.589  0.2007 -0.1970 -0.3025
28599W        W71537   5.574  18.420  18.744 -0.2207  0.1735  0.1723
28600W        W71538   3.710  20.304  17.282 -0.1219  0.3022  0.1233
28601W        W71539   5.431  19.945  17.917 -0.3896 -0.0402  0.1050
28602W        W71540   6.134  21.048  19.185  0.3315 -0.1012  0.1606
28603W        W71541   5.255  22.081  17.395  0.3394 -0.2835  0.1594
28604W        W71542   5.711  21.259  19.655  0.1627 -0.0247 -0.0194
28605W        W71543   5.543  23.562  19.172 -0.0265 -0.2316 -0.1228
28606W        W71544   2.771  18.377  17.621 -0.1633 -0.2567  0.2972
28607W        W71545   6.867  18.699  16.292 -0.1043 -0.3371  0.1052
28608W        W71546   4.964  22.477  19.129 -0.0941 -0.0964  0.2882
28609W        W71547   7.751  21.948  15.842  0.1475 -0.0511 -0.3859
28610W        W71548   7.220  16.565  18.059 -0.1475  0.0373  0.0197
28611W        W71549   6.267  20.716  17.166 -0.1582  0.0846 -0.2769
28612W        W71550   4.704  18.819  20.701  0.3600  0.2566  0.0680
28613W        W71551   4.580  21.390  20.111 -0.0859  0.1772  0.0073
28614W        W71552   7.442  22.084  18.191 -0.5837  0.0662  0.1978
28615W        W71553   6.378  18.974  19.162 -0.0886  0.0799 -0.3186
28616W        W71554   6.278  20.324  18.422 -0.0824  0.1297 -0.0914
28617W        W71555   6.384  20.249  17.235 -0.5679 -0.0496 -0.0358
28618W        W71556   3.365  19.980  18.508  0.1634  0.2022 -0.1188
28619W        W71557   6.526  19.343  17.245 -0.2302  0.1433  0.0075
28620W        W71558   5.901  21.020  20.647  0.0405  0.0976 -0.0268
28621W        W71559   5.914  20.733  18.814 -0.1351 -0.1676 -0.0048
28622W        W71560   5.974  21.424  17.853 -0.6338  0.1592  0.1166
28623W        W71561   6.886  20.298  16.387 -0.0030  0.1742 -0.0972
28624W        W71562   7.176  20.024  16.839  0.1021 -0.0263 -0.0305
28625W        W71563   6.560  22.665  18.632  0.0657  0.2492 -0.1115
28626W        W71564   5.800  20.798  19.447 -0.3565  0.1330  0.0505
28627W        W71565   4.979  22.857  19.563  0.0198  0.0775 -0.0063
28628W        W71566   5.164  21.843  18.410  0.2132 -0.0182 -0.2143
28629W        W71567   3.015  18.193  18.153 -0.0894 -0.1266  0.1027
28630W        W71568   4.977  20.452  17.097 -0.4506  0.0067  0.0688
28631W        W71569   5.758  20.546  17.664  0.0862 -0.2167  0.0658
28632W        W71570   5.455  20.087  18.411  0.0353 -0.2422 -0.1203
28633W        W71571   5.399  18.659  19.349 -0.2879 -0.2025 -0.2938
28634W        W71572   5.849  19.671  17.817 -0.0267 -0.0477 -0.2592
28635W        W71573   4.072  22.057  18.979  0.0541 -0.0403 -0.2409
28636W        W71574   5.569  21.634  18.528  0.1255  0.0487  0.0080
28637W        W71575   5.751  21.306  24.162  0.1035  0.2546 -0.1039
28638W        W71576   4.580  19.778  20.475 -0.0390 -0.3573 -0.0282
28639W        W71577   5.227  19.142  22.958  0.1009  0.1364  0.2168
28640W        W71578   5.989  20.153  22.109  0.1440 -0.0224 -0.2177
28641W        W71579   4.241  18.714  20.900  0.2910 -0.1936 -0.1654
28642W        W71580   5.879  21.188  21.741 -0.2355  0.1359 -0.4530
28643W        W71581   2.733  18.168  23.603 -0.3412 -0.1060 -0.0935
28644W        W71582   5.773  22.271  21.890  0.1470 -0.2604  0.0849
28645W        W71583   6.705  22.581  23.794  0.0227  0.2848  0.1100
28646W        W71584   5.580  21.999  20.387 -0.4264 -0.1793  0.2649
28647W        W71585   6.084  18.261  22.616  0.1471 -0.1364 -0.2773
28648W        W71586   4.383  21.143  22.915 -0.0969  0.3254 -0.1410
28649W        W71587   5.756  18.042  20.332 -0.1081 -0.0411 -0.2504
28650W        W71588   4.486  19.202  20.309  0.0022  0.2585 -0.2112
28651W        W71589   4.633  20.556  22.152 -0.0067  0.2866 -0.1047
28652W        W71590   3.022  20.187  20.462  0.3046 -0.2129  0.0628
28653W        W71591   4.095  18.034  21.670  0.0097  0.3895 -0.0270
28654W        W71592   5.891  17.917  21.241  0.0588 -0.0592 -0.2113
28655W        W71593   4.455  22.260  20.556  0.0521 -0.0679 -0.1356
28656W        W71594   3.880  18.519  23.442  0.2982  0.1184  0.1442
28657W        W71595   5.912  17.557  23.914 -0.3340 -0.1625 -0.3195
28658W        W71596   5.603  22.083  21.393 -0.5681  0.2943  0.0094
28659W        W71597   3.436  19.507  19.693 -0.4297  0.1068 -0.2514
28660W        W71598   3.897  19.523  21.280  0.1836  0.1948 -0.1561
28661W        W71599   5.079  20.709  20.687 -0.4724 -0.1479 -0.2038
28662W        W71600   5.304  19.776  24.258  0.2661  0.1248  0.0100
28663W        W71601   7.229  19.776  22.145 -0.0381  0.4199 -0.0004
28664W        W71602   6.283  22.388  21.955  0.0340 -0.2342  0.1355
28665W        W71603   5.292  20.431  22.239 -0.2505 -0.3008 -0.1089
28666W        W71604   5.916  19.602  23.301  0.0815  0.1761  0.0673
28667W        W71605   3.722  21.557  21.692  0.0414  0.0454  0.0113
28668W        W71606   3.513  21.795  23.436 -0.3617 -0.0823 -0.0699
28669W        W71607   5.018  22.055  19.981 -0.0984  0.4455  0.0966
28670W        W71608   6.593  20.963  22.162 -0.2189 -0.0747  0.0764
28671W        W71609   6.000  20.797  22.794 -0.0161  0.1768 -0.2991
28672W        W71610   5.451  22.302  23.464  0.1092  0.3174 -0.0569
28673W        W71611   4.796  21.011  19.837  0.1325 -0.3034  0.4838
28674W        W71612   6.304  21.757  23.421 -0.1085 -0.0651 -0.0590
28675W        W71613   6.021  20.541  24.233 -0.3886 -0.4489  0.0256
28676W        W71614   5.156  18.856  22.518  0.0362  0.3535 -0.0767
28677W        W71615   4.122  19.083  21.181  0.1042  0.0090 -0.0047
28678W        W71616   6.065  22.131  19.755  0.2443  0.3830  0.0605
28679W        W71617   4.963  21.203  21.414  0.4740  0.0616 -0.0418
28680W        W71618   3.529  21.311  23.344 -0.0923 -0.0823 -0.0627
28681W        W71619   2.344  21.373  22.790 -0.0350  0.0434 -0.1592
28682W        W71620   6.483  18.936  24.101 -0.0274  0.1023  0.2255
28683W        W71621   5.131  22.137  20.508 -0.0345 -0.1618 -0.1124
28684W        W71622   5.641  19.436  19.820  0.0523 -0.0581  0.4002
28685W        W71623   4.262  20.849  19.702 -0.0649  0.0878  0.3890
28686W        W71624   5.563  20.004  20.737  0.5505  0.0750  0.3399
28687W        W71625   4.857  17.946  21.998 -0.0384 -0.1164 -0.0603
28688W        W71626   4.377  20.698  22.758 -0.1069 -0.1188 -0.1975
28689W        W71627   4.139  19.956  22.492  0.1017 -0.2439 -0.4688
28690W        W71628   6.956  19.105  24.231 -0.0587  0.0369 -0.0064
28691W        W71629   5.632  19.338  21.935  0.0081 -0.3540 -0.5397
28692W        W71630   3.974  19.300  22.946 -0.3752  0.1820 -0.1741
28693W        W71631   3.803  22.693  23.109 -0.1134  0.2743 -0.4181
28694W        W71632   3.164  19.105  22.341 -0.0741 -0.1176  0.1668
28695W        W71633   4.621  21.506  20.642  0.0504 -0.1891  0.0901
28696W        W71634   7.091  19.699  21.569  0.0555  0.0005 -0.0431
28697W        W71635   5.823  21.684  20.019 -0.2787  0.2258  0.1045
28698W        W71636   4.718  20.211  21.173  0.1795  0.0124 -0.3426
28699W        W71637   2.708  20.775  23.157  0.1178 -0.1142  0.3277
28700W        W71638   3.738  17.955  23.634  0.1588 -0.1348  0.0641
28701W        W71639   3.181  17.386  18.222 -0.2520  0.1426 -0.3587
28702W        W71640   7.149  20.456  23.412 -0.1171 -0.1122  0.3039
28703W        W71641   3.454  20.686  24.658 -0.1786  0.2893  0.0690
28704W        W71642   7.224  20.816  21.341 -0.0387 -0.0694  0.2084
28705W        W71643   3.821  20.899  20.705  0.0000 -0.1312  0.2486
28706W        W71644   6.114  20.073  23.489 -0.0209 -0.0246 -0.0175
28707W        W71645   5.610  18.811  19.828  0.0937  0.0661 -0.4839
28708W        W71646   6.585  19.252  20.633 -0.0417 -0.2808  0.0389
28709W        W71647   4.254  19.001  22.593 -0.0659 -0.1532 -0.0762
28710W        W71648   4.563  22.014  19.212 -0.1172  0.1091 -0.1942
28711W        W71649   3.511  20.487  20.497 -0.1026  0.3121 -0.1368
28712W        W71650   8.357  20.190  23.468 -0.1438 -0.2453  0.1180
28713W        W71651   4.826  20.362  20.508 -0.2786  0.2197 -0.1063
28714W        W71652   3.061  22.149  21.667 -0.4490  0.0869 -0.2881
28715W        W71653   5.107  18.050  23.853 -0.6486  0.1700 -0.0214
28716W        W71654   5.205  19.996  23.259  0.0365  0.4317 -0.1194
28717W        W71655   3.397  21.770  20.764 -0.1126 -0.0689 -0.1969
28718W        W71656   3.160  19.864  21.730  0.3100 -0.0305  0.2181
28719W        W71657   4.405  20.770  18.308  0.2612  0.0390 -0.1381
28720W        W71658   2.909  17.970  23.150 -0.0668  0.0211  0.1704
28721W        W71659   5.044  20.950  23.503  0.0122 -0.1252 -0.0374
28722W        W71660   5.543  18.758  20.860 -0.0181  0.1509  0.0188
28723W        W71661   4.806  18.529  23.940 -0.0860 -0.2238  0.1682
28724W        W71662   5.786  17.897  21.762  0.1252 -0.2807 -0.0100
28725W        W71663   5.297  22.287  21.727  0.1042  0.1130 -0.1457
28726W        W71664   7.548  20.656  20.966 -0.0905 -0.0339 -0.1154
28727W        W71665   6.731  20.842  19.911 -0.1404  0.1265 -0.0958
28728W        W71666   5.770  20.768  19.924  0.1216 -0.2064  0.0999
28729W        W71667   2.783  20.224  20.939 -0.0465  0.2030 -0.0592
28730W        W71668   4.956  17.481  21.444  0.0881 -0.0976 -0.4002
28731W        W71669   5.203  18.643  24.643 -0.2917 -0.0822 -0.0781
28732W        W71670   1.439  19.269  21.375 -0.1546 -0.1306 -0.2028
28733W        W71671   6.470  20.239  24.374 -0.2082  0.0841  0.1684
28734W        W71672   3.527  19.429  20.753  0.0739 -0.0469 -0.0659
28735W        W71673   5.299  17.943  22.256 -0.1154 -0.0586  0.0621
28736W        W71674   5.244  17.969  21.226  0.0928  0.4025  0.2393
28737W        W71675   3.077  20.666  20.326  0.0181  0.0180  0.2774
28738W        W71676   5.815  17.383  23.350 -0.0752 -0.0944 -0.2465
28739W        W71677   6.231  21.915  20.249 -0.0473 -0.1393 -0.0556
28740W        W71678   6.101  21.623  22.484  0.3129 -0.4743 -0.2802
28741W        W71679   6.779  20.527  22.624  0.3693 -0.4019 -0.5029
28742W        W71680   3.649  20.080  21.706 -0.2008 -0.3138 -0.0770
28743W        W71681   2.891  19.753  20.259 -0.0200 -0.2564 -0.3177
28744W        W71682   4.125  21.799  21.899  0.0079 -0.0306  0.0073
28745W        W71683   3.912  20.939  22.014  0.2302 -0.2074  0.2765
28746W        W71684   3.652  19.452  20.159  0.0782  0.0779  0.0514
28747W        W71685   7.041  21.509  22.635 -0.2142  0.2783  0.2249
28748W        W71686   5.206  19.660  21.818 -0.0037  0.2019  0.0481
28749W        W71687   2.670  20.799  22.243 -0.0817  0.0649 -0.4821
28750W        W71688   5.723  18.287  23.436  0.2928  0.0442 -0.0335
28751W        W71689   6.191  19.978  22.543  0.2477  0.0967 -0.0850
28752W        W71690   5.555  19.253  22.523 -0.2016 -0.0907  0.2305
28753W        W71691   3.386  20.081  20.875 -0.2045 -0.2286  0.2146
28754W        W71692   6.771  21.427  21.906 -0.0755 -0.1126  0.2688
28755W        W71693   2.655  22.060  21.308 -0.1190  0.0200 -0.1749
28756W        W71694   3.399  19.830  20.477 -0.0108 -0.0513 -0.0198
28757W        W71695   5.964  22.369  21.139 -0.0151  0.1307  0.3906
28758W        W71696   6.249  18.262  22.166 -0.1299 -0.2112  0.1205
28759W        W71697   3.467  20.001  23.034 -0.0217 -0.2720 -0.0751
28760W        W71698   4.435  20.219  22.802 -0.0658 -0.0432  0.0333
28761W        W71699   5.783  17.686  19.951  0.5216 -0.1778 -0.1792
28762W        W71700   4.932  20.714  23.921  0.2571 -0.0499  0.1938
28763W        W71701   4.747  18.072  22.461 -0.1033  0.0427  0.1127
28764W        W71702   5.772  19.619  20.958 -0.1317  0.1663 -0.0203
28765W        W71703   3.730  18.854  22.383 -0.2840  0.2609 -0.0160
28766W        W71704   7.190  21.650  21.678 -0.0263  0.1808  0.1457
28767W        W71705   5.937  19.855  19.303 -0.2071 -0.1109  0.1367
28768W        W71706   5.598  17.795  20.754 -0.0483  0.0044  0.1269
28769W        W71707   4.318  21.869  24.332  0.0390 -0.2825  0.0839
28770W        W71708   5.483  20.990  21.554  0.0584  0.1712  0.1789
28771W        W71709   4.643  20.776  21.265  0.0418  0.0812 -0.2773
28772W        W71710   4.331  20.166  20.671 -0.4192  0.0561 -0.3085
28773W        W71711   7.643  21.864  20.709  0.0732  0.0124  0.1542
28774W        W71712   4.489  21.549  22.356 -0.5067  0.1703 -0.0048
28775W        W71713   6.082  20.214  24.693 -0.3162  0.4863  0.2542
28776W        W71714   6.829  20.767  21.658 -0.4392  0.3794 -0.2358
28777W        W71715   5.108  17.313  22.842  0.2533 -0.1240  0.0198
28778W        W71716   3.853  20.748  19.332 -0.1486 -0.2329 -0.1462
28779W        W71717   4.715  18.666  22.673 -0.0757  0.2183 -0.1357
28780W        W71718   3.680  21.698  20.205  0.1192 -0.2684  0.4009
28781W        W71719   4.313  18.898  23.160  0.0846  0.0774 -0.0685
28782W        W71720   4.730  18.224  22.921 -0.1203  0.4372  0.0399
28783W        W71721   5.451  17.342  23.680  0.0254  0.3007 -0.0319
28784W        W71722   7.255  19.017  23.785  0.0911 -0.3217 -0.2309
28785W        W71723   5.002  20.695  20.217 -0.2015  0.0117 -0.1746
28786W        W71724   5.553  19.703  22.865 -0.0262 -0.3694  0.1978
28787W        W71725   3.960  19.859  20.689  0.2306  0.2165  0.1217
28788W        W71726   4.198  17.734  24.120 -0.0843  0.2774  0.1941
28789W        W71727   3.841  20.643  22.810 -0.1309 -0.3185 -0.3052
28790W        W71728   3.557  21.398  22.579 -0.0007 -0.3468  0.0828
28791W        W71729   4.893  20.002  22.571 -0.3740  0.0404 -0.0977
28792W        W71730   5.503  20.247  19.912  0.2898  0.1006  0.1331
28793W        W71731   4.268  17.930  22.791 -0.1002 -0.2096  0.3169
28794W        W71732   4.293  18.023  20.313 -0.2554  0.0260  0.3654
28795W        W71733   5.235  22.432  19.667  0.0597 -0.0672  0.0493
28796W        W71734   4.850  21.143  20.931  0.1350  0.1289 -0.2378
28797W        W71735   4.694  16.597  21.842  0.1231 -0.0634 -0.2792
28798W        W71736   5.663  20.566  21.983 -0.0215 -0.0422  0.0568
28799W        W71737   4.314  21.807  20.873  0.0667 -0.1806  0.2952
28800W        W71738   5.136  19.535  22.615 -0.2299 -0.1884  0.0057
28801W        W71739   3.204  21.447  21.569  0.2898  0.0519  0.0048
28802W        W71740   6.709  19.745  22.188  0.0328  0.2423  0.2430
28803W        W71741   3.238  22.610  23.202  0.3474 -0.2192  0.0383
28804W        W71742   4.249  20.359  19.594 -0.1141 -0.1796  0.0642
28805W        W71743   2.579  20.560  20.609  0.0889  0.1534  0.0923
28806W        W71744   6.082  20.022  20.706 -0.0470 -0.1360  0.1606
28807W        W71745   6.197  20.876  20.166 -0.1030 -0.1123  0.1603
28808W        W71746   4.366  18.898  24.043 -0.1029  0.0814  0.2091
28809W        W71747   3.524  18.555  22.060 -0.0619 -0.1684  0.1536
28810W        W71748   3.684  21.816  22.962 -0.1019  0.0505 -0.1697
28811W        W71749   5.627  20.155  22.450  0.2272  0.1286 -0.0249
28812W        W71750   5.245  20.910  18.279  0.1336  0.2005 -0.1189
28813W        W71751   5.584  20.670  22.618  0.1789  0.0196 -0.2219
28814W        W71752   4.546  20.414  23.948  0.1340 -0.1960  0.0394
28815W        W71753   3.526  19.023  21.962 -0.0862  0.1120  0.1988
28816W        W71754   8.500  20.272  21.253 -0.2222 -0.0767 -0.0533
28817W        W71755   3.255  18.623  22.547 -0.0556 -0.1256  0.1279
28818W        W71756   4.571  21.638  21.688 -0.1746  0.2894 -0.2267
28819W        W71757   5.484  20.927  23.136 -0.0117  0.0361  0.2537
28820W        W71758   4.595  18.656  22.207 -0.4315 -0.0759 -0.1208
28821W        W71759   4.089  21.502  22.739  0.2777 -0.0920 -0.1530
28822W        W71760   4.113  19.032  23.614 -0.1735  0.2299  0.1534
28823W        W71761   4.918  19.413  23.686  0.2879  0.0234  0.2072
28824W        W71762   4.391  17.263  21.549  0.2822 -0.0623  0.1113
28825W        W71763   3.135  17.806  20.017  0.1505 -0.2725 -0.0232
28826W        W71764   5.429  19.786  22.251  0.1391 -0.0337 -0.0476
28827W        W71765   7.418  20.184  21.977  0.1694  0.1554  0.3311
28828W        W71766   4.117  20.313  21.865 -0.1197 -0.1465  0.0523
28829W        W71767   5.560  21.623  24.592 -0.1511  0.3299  0.2482
28830W        W71768   5.684  18.357  22.942  0.0283 -0.1660 -0.0394
28831W        W71769   7.157  21.347  21.248  0.4479 -0.0741 -0.0622
28832W        W71770   5.791  19.729  23.829 -0.2335 -0.2192 -0.4404
28833W        W71771   4.283  20.240  20.186 -0.0272 -0.2252  0.1139
28834W        W71772   3.163  20.910  22.888 -0.0015 -0.1039 -0.0809
28835W        W71773   5.214  21.170  19.559  0.1674  0.1662  0.1533
28836W        W71774   5.040  17.871  22.797  0.0241  0.1644  0.0728
28837W        W71775   3.959  20.171  22.912  0.2886  0.1850  0.0726
28838W        W71776   4.056  21.397  20.503 -0.1903 -0.0149  0.2080
28839W        W71777   3.746  21.858  22.486 -0.0659  0.1512  0.0194
28840W        W71778   6.438  19.686  19.682 -0.3448 -0.2310  0.0990
28841W        W71779   6.033  21.286  21.280 -0.1650 -0.0994 -0.0650
28842W        W71780   4.517  18.322  21.767  0.0412 -0.5353  0.0654
28843W        W71781   6.421  19.266  23.242 -0.1401 -0.1514  0.1065
28844W        W71782   5.495  21.862  21.911  0.3443 -0.3070 -0.2338
28845W        W71783   5.655  18.740  23.691  0.0298  0.0555  0.0891
28846W        W71784   3.761  17.904  22.553 -0.2434 -0.2409  0.1619
28847W        W71785   6.044  20.894  22.083 -0.4085 -0.0200  0.4854
28848W        W71786   3.213  19.466  23.532  0.2268  0.1872  0.1840
28849W        W71787   5.986  21.556  23.812  0.3741  0.1356  0.1568
28850W        W71788   4.091  20.428  23.369 -0.0440 -0.1620  0.0979
28851W        W71789   5.742  19.818  21.789 -0.0676 -0.0015  0.3485
28852W        W71790   3.649  18.942  20.887 -0.0302  0.1736 -0.0347
28853W        W71791   3.758  19.338  22.356  0.0009  0.0280  0.0528
28854W        W71792   6.311  20.491  23.021 -0.1377 -0.0354  0.1264
28855W        W71793   4.674  21.613  21.160 -0.1053  0.1054  0.0535
28856W        W71794   5.807  17.846  23.058 -0.1200 -0.1150  0.0814
28857W        W71795   4.283  21.253  21.827 -0.4417  0.2592 -0.0235
28858W        W71796   6.927  20.519  20.576 -0.0415  0.1492  0.2850
28859W        W71797   5.334  21.177  20.741 -0.0903  0.4973 -0.1808
28860W        W71798   3.119  20.965  21.347  0.2867  0.0437 -0.1527
28861W        W71799   3.399  17.853  23.258  0.1842  0.2749  0.0308
28862W        W71800   6.001  19.514  22.665  0.1106  0.0103  0.2735
28863W        W71801   6.434  17.875  22.559  0.1017 -0.2067 -0.0011
28864W        W71802   5.310  18.542  24.156  0.0311  0.1279  0.0772
28865W        W71803   4.350  19.142  22.118 -0.1815 -0.0635  0.0162
28866W        W71804   3.767  20.528  21.425  0.1793 -0.0712 -0.1123
28867W        W71805   4.137  17.132  22.870 -0.2922 -0.2073 -0.0688
28868W        W71806   6.222  22.146  21.497  0.2455  0.1361  0.0154
28869W        W71807   5.923  19.894  19.854  0.1830  0.2901 -0.0391
28870W        W71808   5.669  18.484  24.562 -0.0696 -0.3183 -0.0063
28871W        W71809   5.200  19.275  22.160 -0.1093 -0.1001 -0.0336
28872W        W71810   4.662  19.754  21.580 -0.0792 -0.1398 -0.0319
28873W        W71811   1.541  18.589  21.692  0.1268 -0.0980 -0.2729
28874W        W71812   6.137  19.083  22.844 -0.0724 -0.2556  0.0866
28875W        W71813   5.394  18.710  21.539  0.0529  0.2547  0.0969
28876W        W71814   6.227  19.437  23.688 -0.0401 -0.2941  0.1350
28877W        W71815   5.478  22.495  20.648  0.2381  0.0065 -0.2089
28878W        W71816   5.541  20.449  21.374 -0.0333  0.1291  0.0170
28879W        W71817   5.094  20.200  20.851 -0.2473 -0.1570  0.0435
28880W        W71818   4.250  17.942  22.178 -0.1164  0.0800  0.1658
28881W        W71819   3.999  21.229  23.709 -0.1497  0.0653 -0.0077
28882W        W71820   4.108  19.885  19.195  0.2825  0.0824 -0.1804
28883W        W71821   4.334  21.157  21.285 -0.1779  0.4816 -0.1817
28884W        W71822   7.449  21.112  22.826 -0.2706  0.0457 -0.1161
28885W        W71823   8.047  19.750  22.555 -0.0484 -0.0470  0.1022
28886W        W71824   5.492  17.327  20.690  0.1262 -0.0657  0.0761
28887W        W71825   6.225  18.181  23.118 -0.0680  0.0075 -0.0798
28888W        W71826   3.588  21.538  21.140 -0.3023  0.2845 -0.0928
28889W        W71827   5.670  19.145  23.158 -0.1994 -0.0614 -0.0554
28890W        W71828   7.009  23.221  22.515  0.0631  0.0240  0.1081
28891W        W71829   3.290  19.850  24.329  0.0738  0.0348  0.0352
28892W        W71830   4.962  21.492  22.148  0.1906 -0.1792  0.2878
28893W        W71831   4.628  17.626  20.090 -0.2786 -0.0212  0.0688
28894W        W71832   4.797  19.595  22.177  0.0300  0.2463 -0.1357
28895W        W71833   5.212  19.218  21.572  0.1772 -0.0444  0.0145
28896W        W71834   6.522  20.184  22.212  0.1823  0.0759 -0.0098
28897W        W71835   4.443  21.250  23.418 -0.0129 -0.0293  0.4474
28898W        W71836   4.268  20.318  21.338  0.2232  0.1944 -0.1395
28899W        W71837   5.932  20.240  22.897 -0.0573 -0.2035  0.1255
28900W        W71838   6.274  20.509  21.880 -0.0016 -0.1259 -0.0249
28901W        W71839   4.189  21.618  21.335 -0.2144  0.1149 -0.1255
28902W        W71840   4.003  19.858  23.842 -0.0307  0.1580 -0.0813
28903W        W71841   3.602  20.893  22.411  0.0574  0.3951 -0.2133
28904W        W71842   4.237  20.744  21.661 -0.0435 -0.2799  0.2052
28905W        W71843   4.720  17.926  21.391  0.0036 -0.2025  0.1364
28906W        W71844   5.592  21.481  21.377  0.3138 -0.2176  0.2834
28907W        W71845   4.296  21.303  24.300 -0.1126 -0.2214  0.0648
28908W        W71846   3.088  20.029  23.496 -0.3036 -0.1495 -0.0148
28909W        W71847   3.696  22.609  21.137  0.0110 -0.0637 -0.0042
28910W        W71848   7.177  21.740  20.903  0.0251  0.1188  0.0417
28911W        W71849   5.671  20.992  21.112  0.0653  0.1445 -0.0450
28912W        W71850   5.197  21.176  22.487 -0.0298 -0.2589 -0.2899
28913W        W71851   4.709  19.290  21.804  0.0351  0.0625  0.0399
28914W        W71852   5.438  21.980  20.908  0.2481  0.0425  0.0722
28915W        W71853   3.613  20.966  21.162 -0.3561  0.0523 -0.2905
28916W        W71854   6.422  20.586  21.369 -0.2144  0.1265  0.0304
28917W        W71855   5.607  22.336  22.412  0.0209  0.0656  0.0672
28918W        W71856   6.099  19.628  22.165 -0.1920 -0.2079 -0.0043
28919W        W71857   5.383  20.066  19.361  0.2068  0.3642  0.3552
28920W        W71858   6.628  19.509  21.772  0.1777  0.1742 -0.0654
28921W        W71859   5.008  19.341  21.179 -0.1516  0.0521  0.3052
28922W        W71860   6.795  20.658  23.127  0.2620 -0.0814  0.1594
28923W        W71861   5.354  19.530  23.432  0.1276  0.3335 -0.2263
28924W        W71862   5.090  18.457  20.517 -0.0219  0.0243  0.3191
28925W        W71863   3.939  18.659  22.907  0.2227 -0.1364 -0.0432
28926W        W71864   6.207  17.512  23.028  0.1621 -0.5387 -0.0602
28927W        W71865   4.159  22.409  23.394 -0.3979  0.0787 -0.1310
28928W        W71866   6.708  21.691  21.161  0.3116  0.0104  0.1620
28929W        W71867   3.889  20.407  20.833  0.0769 -0.0925 -0.1444
28930W        W71868   3.842  19.717  22.053 -0.0561  0.2226 -0.2751
28931W        W71869   6.423  16.491  22.804  0.0955  0.0298  0.0955
28932W        W71870   5.997  21.819  21.093 -0.0291  0.1586 -0.2117
28933W        W71871   5.570  18.805  22.721  0.1361  0.3203 -0.4615
28934W        W71872   4.080  21.386  19.904  0.0902 -0.0446  0.1421
28935W        W71873   4.556  22.059  21.943 -0.3230 -0.2174 -0.0457
28936W        W71874   4.077  20.986  22.471 -0.1699  0.2184 -0.0785
28937W        W71875   3.779  18.848  19.955  0.0029  0.2772  0.0969
28938W        W71876   7.273  20.676  21.847  0.1592 -0.0082  0.1149
28939W        W71877   4.438  19.795  24.099  0.0265 -0.0346 -0.1010
28940W        W71878   4.253  18.427  22.588 -0.2757  0.0084  0.1619
28941W        W71879   4.498  20.585  20.850 -0.2487 -0.1054  0.1790
28942W        W71880   5.316  21.073  20.025  0.0050  0.0688  0.1504
28943W        W71881   4.098  20.727  21.136 -0.2597  0.1363  0.3927
28944W        W71882   4.142  19.836  21.555  0.1161 -0.1603 -0.0063
28945W        W71883   4.985  21.159  20.396 -0.2195 -0.0242  0.1532
28946W        W71884   7.236  20.418  24.157  0.2094 -0.0797 -0.2350
28947W        W71885   4.958  20.238  19.590 -0.0579  0.1589  0.0367
28948W        W71886   5.335  20.300  24.054  0.1958  0.0963 -0.0157
28949W        W71887   3.957  19.278  21.855  0.1032  0.4904 -0.3124
28950W        W71888   5.933  18.939  21.496 -0.0001  0.3652 -0.3600
28951W        W71889   3.249  20.721  22.132  0.0057  0.0048 -0.1770
28952W        W71890   4.568  19.668  22.686 -0.3027 -0.2364  0.0485
28953W        W71891   8.061  20.455  23.863  0.0585 -0.0930 -0.2046
28954W        W71892   4.047  19.251  20.658 -0.2610  0.0767  0.0169
28955W        W71893   6.614  20.952  20.591 -0.0986 -0.3037  0.3828
28956W        W71894   6.183  18.952  23.554  0.2833  0.0606  0.0922
28957W        W71895   5.017  21.487  19.928 -0.0776  0.0980 -0.1359
28958W        W71896   5.957  20.711  21.536  0.1075  0.0179  0.3078
28959W        W71897   4.744  20.881  21.773 -0.0164 -0.1976  0.2646
28960W        W71898   2.985  18.552  23.748  0.0163 -0.0410  0.2654
28961W        W71899   4.971  21.445  23.281  0.0314 -0.0452  0.1229
28962W        W71900   8.932  19.949  22.227 -0.3142  0.0339  0.2881
28963W        W71901   5.629  16.781  21.586 -0.1227  0.0786  0.2130
28964W        W71902   4.402  18.151  21.115 -0.1021 -0.1663 -0.2640
28965W        W71903   3.967  22.184  20.324 -0.0662  0.2736 -0.4018
28966W        W71904   6.597  19.598  22.653  0.3867 -0.3003  0.1880
28967W        W71905   4.866  19.022  24.019  0.0025  0.0167 -0.3431
28968W        W71906   5.088  23.198  19.934  0.2560 -0.3483  0.2480
28969W        W71907   7.101  18.171  23.668  0.1314  0.1130  0.0204
28970W        W71908   4.664  21.110  23.889 -0.0034  0.0534 -0.0084
28971W        W71909   5.847  23.597  22.771  0.3044 -0.1367 -0.0213
28972W        W71910   2.891  19.547  21.302 -0.1469  0.1582  0.3108
28973W        W71911   5.383  20.492  23.288  0.2040  0.2005 -0.4237
28974W        W71912   4.126  20.596  20.454 -0.0321  0.0435 -0.3735
28975W        W71913   3.934  21.601  18.789 -0.1307  0.4075 -0.1664
28976W        W71914   6.636  20.202  23.302 -0.0780 -0.2149 -0.0542
28977W        W71915   5.714  19.985  21.323  0.2512 -0.0380 -0.0924
28978W        W71916   8.572  19.200  21.993  0.0108 -0.1918  0.1496
28979W        W71917   3.755  19.425  23.630 -0.0998  0.0009  0.1692
28980W        W71918   5.671  19.449  21.442 -0.0763  0.0477 -0.1144
28981W        W71919   5.010  16.897  22.165  0.0459 -0.0412 -0.2387
28982W        W71920   4.642  20.411  24.468 -0.1331 -0.0540 -0.1789
28983W        W71921   1.150  21.002  21.485  0.1785 -0.1771 -0.1012
28984W        W71922   3.891  20.505  19.923 -0.2344  0.0654 -0.1765
28985W        W71923   3.922  21.119  21.520  0.2514  0.1822 -0.1755
28986W        W71924   5.363  17.607  23.077  0.1534 -0.1836  0.3333
28987W        W71925   4.338  19.494  25.098 -0.3312  0.0520 -0.1180
28988W        W71926   3.380  21.890  21.978 -0.3332  0.2529  0.1698
28989W        W71927   3.802  20.055  21.196  0.0159  0.1410  0.2979
28990W        W71928   7.060  20.956  20.385 -0.0497 -0.1036 -0.1175
28991W        W71929   4.519  19.340  21.306 -0.0598  0.1894  0.0601
28992W        W71930   3.843  18.839  21.487 -0.2997 -0.0248  0.1450
28993W        W71931   5.526  18.848  22.060  0.3325  0.3731  0.3392
28994W        W71932   7.836  20.322  21.620 -0.1591 -0.0247 -0.0017
28995W        W71933   4.479  19.419  20.834 -0.0799 -0.0043 -0.1369
28996W        W71934   7.376  20.049  23.792  0.2073  0.1427  0.2805
28997W        W71935   3.455  21.046  20.237 -0.0250  0.3102  0.2141
28998W        W71936   4.385  19.426  23.747  0.0939  0.1267 -0.0152
28999W        W71937   4.854  18.311  24.482  0.4199 -0.0626 -0.1008
29000W        W71938   3.562  19.021  19.524 -0.0120 -0.0420  0.1703
29001W        W71939   3.430  18.640  23.077 -0.1772 -0.1730 -0.0772
29002W        W71940   5.964  21.715  21.693 -0.1496  0.0152 -0.0384
29003W        W71941   6.558  22.291  19.062  0.0220 -0.0575 -0.1034
29004W        W71942   5.086  20.576  21.178  0.3096 -0.1061  0.2590
29005W        W71943   5.484  20.867  24.240 -0.1290  0.0198  0.2023
29006W        W71944   1.788  18.464  23.473  0.0613  0.0216  0.0669
29007W        W71945   6.865  21.370  20.791  0.2170 -0.3476 -0.0079
29008W        W71946   5.523  20.847  23.744  0.0484 -0.2077 -0.1392
29009W        W71947   7.486  21.735  20.142  0.0045  0.2334 -0.0907
29010W        W71948   6.123  17.513  22.523  0.0203 -0.0207  0.0750
29011W        W71949   6.275  20.943  20.954 -0.2624 -0.0250 -0.1068
29012W        W71950   2.423  18.703  22.891 -0.3564  0.0965 -0.1715
29013W        W71951   3.278  21.441  22.941 -0.4393  0.0694 -0.2452
29014W        W71952   7.154  20.313  22.941 -0.1024  0.1129 -0.0846
29015W        W71953   4.935  18.356  21.541  0.1420  0.4209  0.4093
29016W        W71954   5.068  19.404  20.091 -0.1668  0.1546 -0.0615
29017W        W71955   5.700  21.445  20.905 -0.1704  0.0081  0.1198
29018W        W71956   2.623  19.654  21.764 -0.3319 -0.1238 -0.0289
29019W        W71957   5.487  20.797  20.404 -0.0322  0.2529 -0.1426
29020W        W71958   4.698  19.152  22.901 -0.4418 -0.1527 -0.1894
29021W        W71959   4.649  21.032  22.409  0.1186 -0.1246 -0.2074
29022W        W71960   6.139  19.334  24.207 -0.2156 -0.0734  0.2127
29023W        W71961   4.009  20.974  20.178  0.0186  0.0537  0.2633
29024W        W71962   6.987  20.827  19.207 -0.3398  0.1832 -0.2273
29025W        W71963   4.979  20.990  22.946  0.1569 -0.1144 -0.1213
29026W        W71964   6.017  21.580  23.028 -0.0090 -0.1641  0.0977
29027W        W71965   5.469  21.297  23.442 -0.0218  0.0316  0.0483
29028W        W71966   4.990  20.065  22.029 -0.0386  0.4703 -0.0305
29029W        W71967   3.906  16.951  22.465 -0.1412  0.0238 -0.0487
29030W        W71968   4.844  19.778  20.970 -0.1846  0.5942  0.1129
29031W        W71969   4.320  19.613  21.930  0.0105 -0.0249  0.0442
29032W        W71970   5.674  19.007  24.116 -0.0202 -0.1317  0.2837
29033W        W71971   3.618  18.379  21.530  0.2697  0.1943 -0.0019
29034W        W71972   6.249  18.460  20.194  0.1063  0.0566 -0.0321
29035W        W71973   4.482  21.578  23.065  0.1450  0.0249 -0.1605
29036W        W71974   4.681  20.335  21.735 -0.2547  0.2209 -0.0118
29037W        W71975   4.816  20.225  26.764  0.0304 -0.0131 -0.1252
29038W        W71976   4.739  18.219  23.496  0.1447 -0.2023  0.0128
29039W        W71977   9.198  18.984  24.211 -0.1306 -0.0927 -0.3098
29040W        W71978   6.230  20.018  25.305 -0.1844 -0.0091 -0.0449
29041W        W71979   3.988  18.896  25.021 -0.0882  0.3338 -0.0553
29042W        W71980   5.722  20.298  25.956  0.1228 -0.2932  0.1876
29043W        W71981   6.177  16.987  26.287 -0.1771  0.1005 -0.1447
29044W        W71982   5.109  19.868  26.488  0.1784  0.2783 -0.1811
29045W        W71983   5.979  22.667  25.103  0.0882 -0.2201  0.2295
29046W        W71984   4.884  19.560  24.189  0.0278  0.0112  0.1492
29047W        W71985   5.931  19.042  25.462 -0.1254 -0.1628  0.0055
29048W        W71986   5.242  21.158  26.201 -0.1564 -0.1346  0.0324
29049W        W71987   4.988  17.134  24.682 -0.0549 -0.1841  0.4205
29050W        W71988   3.597  17.874  24.758 -0.5592  0.2723  0.0767
29051W        W71989   6.954  19.268  25.259  0.2782 -0.2003 -0.2403
29052W        W71990   4.113  18.859  24.489 -0.2004 -0.3867 -0.1808
29053W        W71991   4.492  19.303  26.865 -0.4321 -0.3266  0.0801
29054W        W71992   4.378  19.448  23.167 -0.1661  0.0225 -0.0382
29055W        W71993   6.056  20.890  23.811 -0.2300 -0.0173 -0.0557
29056W        W71994   5.225  19.144  26.303  0.1791 -0.3927  0.1181
29057W        W71995   6.803  17.984  25.515  0.0660 -0.2320 -0.2741
29058W        W71996   4.981  20.673  25.447 -0.0407 -0.0553 -0.0307
29059W        W71997   3.273  20.866  23.497 -0.3329 -0.0080 -0.2564
29060W        W71998   3.807  18.811  27.464  0.2914 -0.2610 -0.3140
29061W        W71999   3.221  20.317  26.217 -0.0847  0.0358 -0.4066
29062W        W72000   6.446  19.265  26.500  0.2858  0.3440 -0.3260
29063W        W72001   7.469  19.359  25.484  0.1703  0.0929 -0.2106
29064W        W72002   5.681  21.383  25.008  0.2649  0.1176 -0.2441
29065W        W72003   6.895  20.167  24.588 -0.3760  0.0167  0.1197
29066W        W72004   6.818  20.786  27.755 -0.0263 -0.2589  0.0677
29067W        W72005   4.249  19.623  25.581 -0.0366 -0.1115  0.0408
29068W        W72006   4.596  22.159  24.581 -0.1239  0.0428  0.2501
29069W        W72007   5.085  21.592  24.817 -0.2609 -0.1830 -0.0942
29070W        W72008   8.160  19.768  25.365  0.1302  0.1424  0.3986
29071W        W72009   5.843  20.499  27.322  0.1112 -0.2506 -0.3399
29072W        W72010   3.925  21.575  26.725 -0.0208  0.1885 -0.1893
29073W        W72011   4.142  21.978  23.115 -0.1580 -0.0763 -0.2062
29074W        W72012   5.158  21.011  27.775  0.2546 -0.2061 -0.2457
29075W        W72013   3.694  22.081  26.742 -0.0568  0.1575  0.0095
29076W        W72014   4.981  18.210  25.828 -0.4267  0.2213  0.1551
29077W        W72015   5.615  19.943  24.678 -0.1527 -0.1752  0.0048
29078W        W72016   5.017  20.324  23.657 -0.1785 -0.0119 -0.0846
29079W        W72017   5.553  20.456  25.510  0.2039 -0.1347  0.0432
29080W        W72018   3.403  19.124  27.677  0.2098 -0.2350  0.1172
29081W        W72019   3.813  21.026  26.806  0.0816  0.2183 -0.7259
29082W        W72020   8.597  18.765  26.867 -0.1668 -0.3548  0.3533
29083W        W72021   4.412  20.821  24.717  0.0473  0.3383  0.0054
29084W        W72022   6.651  19.710  24.318 -0.4027 -0.0624  0.1227
29085W        W72023   4.668  19.874  25.209 -0.0466 -0.0861  0.2930
29086W        W72024   8.638  19.956  24.600 -0.2390 -0.4733  0.2441
29087W        W72025   6.016  17.855  25.289 -0.4170 -0.3010 -0.2518
29088W        W72026   4.231  22.789  25.013  0.1626 -0.0536 -0.0165
29089W        W72027   5.909  17.486  26.290 -0.3187  0.1800 -0.1696
29090W        W72028   5.310  20.818  25.833  0.0645 -0.1477  0.1112
29091W        W72029   5.765  20.409  23.807  0.3459 -0.1646  0.0073
29092W        W72030   6.584  18.722  26.637 -0.0819 -0.0364 -0.2441
29093W        W72031   3.689  21.837  26.248 -0.1715 -0.1464  0.1621
29094W        W72032   4.492  20.893  25.583  0.1420  0.1897  0.1092
29095W        W72033   6.380  20.758  23.427 -0.0146 -0.2237  0.1859
29096W        W72034   7.853  20.026  26.197  0.4036 -0.0511  0.1614
29097W        W72035   4.793  20.985  24.380 -0.3391  0.0865 -0.1530
29098W        W72036   4.542  18.814  24.913  0.2341 -0.0330 -0.0490
29099W        W72037   3.194  20.623  26.810  0.0216 -0.1542 -0.3025
29100W        W72038   4.058  18.420  26.116 -0.0023 -0.0414 -0.1957
29101W        W72039   3.624  17.342  23.390  0.1647 -0.2769 -0.4385
29102W        W72040   8.456  21.617  27.108 -0.0135 -0.1332 -0.1251
29103W        W72041   3.987  19.419  26.839  0.0577 -0.2522 -0.1769
29104W        W72042   7.557  18.031  25.812  0.0305 -0.2963  0.2467
29105W        W72043   4.008  20.935  26.360 -0.1233 -0.4573 -0.0345
29106W        W72044   6.578  20.563  24.722 -0.0004 -0.0577 -0.2628
29107W        W72045   5.739  19.244  23.640  0.1232  0.0785  0.1488
29108W        W72046   6.820  18.779  25.143 -0.0547 -0.0872  0.2316
29109W        W72047   6.990  16.731  25.937 -0.0225  0.1746  0.1565
29110W        W72048   4.814  20.289  23.180 -0.1620 -0.0466 -0.4162
29111W        W72049   4.737  19.374  25.626 -0.1429 -0.0430  0.2448
29112W        W72050   6.778  20.986  26.364  0.1640 -0.2202 -0.1629
29113W        W72051   7.309  19.987  24.861  0.2745  0.0401  0.2690
29114W        W72052   4.424  21.064  26.181 -0.0032 -0.0784  0.0363
29115W        W72053   6.251  19.101  26.943  0.0073 -0.0509 -0.1537
29116W        W72054   6.000  21.318  27.465 -0.1963  0.0221  0.2865
29117W        W72055   4.674  21.226  24.853  0.1083  0.3110  0.1060
29118W        W72056   2.358  20.533  25.636 -0.0137 -0.2248  0.1129
29119W        W72057   4.011  19.759  26.048 -0.1126  0.0036 -0.0817
29120W        W72058   4.389  18.216  25.772 -0.2959 -0.1394  0.2039
29121W        W72059   4.252  20.474  26.980 -0.1712 -0.3303  0.3319
29122W        W72060   7.545  18.487  25.561  0.0804  0.0296  0.2910
29123W        W72061   5.961  17.705  26.712  0.2268  0.2269  0.0312
29124W        W72062   6.659  17.584  24.611 -0.1999 -0.1112 -0.3669
29125W        W72063   4.574  19.702  26.042  0.1174 -0.1901 -0.0426
29126W        W72064   7.788  20.693  24.216 -0.1065  0.0244  0.2060
29127W        W72065   6.554  19.234  24.522  0.3134  0.1733 -0.0636
29128W        W72066   5.540  20.993  22.214 -0.1269 -0.0407 -0.1029
29129W        W72067   4.894  17.941  27.073  0.1907 -0.0717 -0.2169
29130W        W72068   4.275  19.088  25.464 -0.3741 -0.0504 -0.0280
29131W        W72069   4.853  18.836  26.504  0.0423  0.2593  0.1466
29132W        W72070   4.665  17.943  26.677 -0.2055  0.1544  0.1264
29133W        W72071   7.404  19.531  27.170  0.2958  0.0539 -0.1034
29134W        W72072   3.876  18.217  24.980 -0.2501  0.1330 -0.1000
29135W        W72073   5.951  18.327  25.019  0.0077 -0.0506  0.2260
29136W        W72074   4.811  18.953  25.393  0.1432  0.0100  0.0942
29137W        W72075   3.739  18.982  23.296 -0.0407 -0.0859 -0.2591
29138W        W72076   8.160  18.414  27.006 -0.0976 -0.1485 -0.0705
29139W        W72077   6.802  21.534  24.728  0.2617 -0.2715  0.2142
29140W        W72078   6.172  20.771  26.590  0.1058 -0.0384 -0.1480
29141W        W72079   6.067  21.520  24.629 -0.3278 -0.2421 -0.0607
29142W        W72080   5.218  19.105  25.663 -0.0395 -0.1418  0.3946
29143W        W72081   5.621  17.915  26.308 -0.0182  0.0161 -0.1204
29144W        W72082   3.589  22.498  24.507 -0.2993  0.0737  0.1463
29145W        W72083   5.125  20.664  24.569 -0.1536  0.0163 -0.1769
29146W        W72084   5.489  18.401  25.070 -0.3943 -0.0026  0.0344
29147W        W72085   5.909  21.247  26.323 -0.0501 -0.1016  0.1129
29148W        W72086   3.904  19.794  23.345 -0.0501  0.2345  0.0977
29149W        W72087   3.645  19.873  26.993 -0.0706  0.1672 -0.2582
29150W        W72088   6.987  18.401  26.340  0.1916 -0.3201  0.0093
29151W        W72089   5.181  19.220  26.890  0.2014 -0.0702 -0.1210
29152W        W72090   5.999  19.771  24.932  0.1075 -0.2871 -0.1186
29153W        W72091   4.608  17.998  23.934 -0.0353 -0.0952  0.0802
29154W        W72092   6.498  21.192  26.037 -0.1081  0.3855 -0.1854
29155W        W72093   4.429  21.792  25.463  0.0046  0.0057  0.2397
29156W        W72094   3.617  20.156  25.233  0.1990  0.3310  0.0880
29157W        W72095   6.368  22.085  25.841 -0.0104  0.1972  0.1509
29158W        W72096   7.005  17.449  26.532 -0.0435 -0.3740  0.4325
29159W        W72097   2.522  19.301  28.887 -0.4110  0.0849  0.1969
29160W        W72098   6.259  19.617  28.273 -0.3344 -0.0649  0.4972
29161W        W72099   4.043  19.648  24.299 -0.1347 -0.0152  0.0871
29162W        W72100   4.052  19.818  27.554 -0.2041 -0.0845 -0.0604
29163W        W72101   6.339  17.137  25.817 -0.0153 -0.4199  0.2856
29164W        W72102   7.970  19.392  25.591  0.3570  0.0769 -0.0259
29165W        W72103   5.466  21.270  27.494 -0.2314  0.0899 -0.0667
29166W        W72104   6.542  19.470  25.686 -0.0292  0.1028  0.2878
29167W        W72105   6.536  18.366  24.053  0.1333  0.2656  0.0110
29168W        W72106   7.241  17.519  25.142 -0.0021 -0.0866  0.0052
29169W        W72107   2.973  19.653  26.920 -0.2434  0.1780 -0.2079
29170W        W72108   5.086  19.535  25.199 -0.1498 -0.1641  0.2072
29171W        W72109   4.848  20.192  26.213  0.0338 -0.1725  0.0052
29172W        W72110   2.624  18.838  23.591  0.3634 -0.0369  0.0061
29173W        W72111   6.666  19.971  25.547 -0.0788  0.0642 -0.0640
29174W        W72112   4.511  19.906  26.487  0.2309 -0.0267 -0.1532
29175W        W72113   5.528  19.878  27.665  0.3077 -0.0385  0.1187
29176W        W72114   7.239  21.077  26.563 -0.0338  0.0364 -0.2374
29177W        W72115   4.510  18.737  25.774 -0.0934 -0.0985 -0.0521
29178W        W72116   4.009  19.212  24.091  0.5578 -0.2395 -0.1151
29179W        W72117   6.066  19.522  25.467 -0.0823 -0.1805  0.4464
29180W        W72118   4.009  22.023  23.748 -0.1958 -0.0773 -0.0045
29181W        W72119   6.490  20.141  26.647  0.3255 -0.1761  0.0185
29182W        W72120   6.164  18.667  25.889 -0.2100 -0.1785  0.1093
29183W        W72121   4.967  17.595  26.424 -0.3755 -0.0947 -0.1124
29184W        W72122   7.103  20.378  27.524 -0.0837 -0.0812  0.0739
29185W        W72123   5.690  19.482  24.271  0.0342  0.0100 -0.2141
29186W        W72124   5.116  19.248  24.444  0.0282 -0.0977 -0.0158
29187W        W72125   4.624  20.358  25.365 -0.1180  0.1218  0.0906
29188W        W72126   6.735  18.521  27.393 -0.0359  0.0160  0.0558
29189W        W72127   3.669  18.450  26.433  0.1330 -0.0943  0.0077
29190W        W72128   3.946  20.187  27.177  0.0107 -0.1025  0.0106
29191W        W72129   6.625  20.163  27.629  0.1044  0.0830  0.2582
29192W        W72130   6.012  20.562  25.607 -0.0252  0.0799  0.2360
29193W        W72131   6.630  19.017  27.292  0.0676 -0.3335  0.1034
29194W        W72132   5.363  18.902  25.191 -0.1994  0.0618 -0.0588
29195W        W72133   5.048  23.233  23.120 -0.1221 -0.1346  0.0023
29196W        W72134   5.325  19.393  23.952 -0.0460  0.1790 -0.2190
29197W        W72135   5.628  18.285  26.666 -0.0298  0.2953 -0.1529
29198W        W72136   5.234  21.225  24.495  0.1454 -0.0895  0.0006
29199W        W72137   5.758  21.961  24.126 -0.0238  0.1262 -0.0761
29200W        W72138   6.185  20.185  27.044 -0.0228  0.0620  0.1177
29201W        W72139   4.192  20.227  24.348  0.0692 -0.0290 -0.2038
29202W        W72140   7.027  16.045  27.245  0.2297 -0.2892 -0.0449
29203W        W72141   4.018  20.464  26.525  0.1571 -0.2913  0.2315
29204W        W72142   4.405  19.247  24.444 -0.3066 -0.0600 -0.1110
29205W        W72143   3.707  18.476  24.383  0.0030 -0.0548 -0.2110
29206W        W72144   5.834  18.843  25.018  0.0906  0.2029  0.1768
29207W        W72145   5.805  20.263  25.140 -0.1372 -0.0468  0.0684
29208W        W72146   5.595  19.009  26.733  0.0573  0.2805 -0.1161
29209W        W72147   5.474  18.395  25.971 -0.2396  0.1363  0.1122
29210W        W72148   4.638  21.057  27.118  0.1632 -0.1269  0.0321
29211W        W72149   5.852  20.397  26.721 -0.1530  0.0809  0.2412
29212W        W72150   6.885  18.648  22.772 -0.0794 -0.1963  0.0826
29213W        W72151   6.671  20.588  26.759  0.1915 -0.0617 -0.3843
29214W        W72152   4.542  19.357  27.914  0.2046 -0.1751 -0.2010
29215W        W72153   2.921  18.510  23.225  0.1934 -0.2024  0.0533
29216W        W72154   7.164  18.707  27.216 -0.4783  0.0339  0.1061
29217W        W72155   5.011  18.684  26.012  0.0726  0.0891  0.1216
29218W        W72156   4.909  21.519  25.395  0.0313 -0.0077  0.2953
29219W        W72157   4.756  19.953  25.680  0.0365  0.0477 -0.0320
29220W        W72158   4.413  19.795  24.677  0.0162 -0.0579  0.0597
29221W        W72159   5.312  20.506  25.017  0.0646 -0.0290 -0.0297
29222W        W72160   4.805  18.668  28.901  0.3520 -0.1810 -0.1366
29223W        W72161   6.757  19.728  27.994  0.0304 -0.2124 -0.1057
29224W        W72162   5.098  19.601  26.102  0.1193  0.0353  0.0432
29225W        W72163   4.848  17.284  25.357  0.0151 -0.1103 -0.3060
29226W        W72164   4.895  20.757  26.085 -0.1071 -0.1659  0.4196
29227W        W72165   5.771  19.926  25.641 -0.1829 -0.0256  0.0963
29228W        W72166   5.547  19.501  26.484  0.1007 -0.1513  0.1896
29229W        W72167   4.824  21.375  27.484  0.1293  0.0309 -0.2293
29230W        W72168   6.756  17.963  25.999 -0.2165  0.0477 -0.3122
29231W        W72169   7.702  21.736  24.433  0.4191 -0.2897  0.1204
29232W        W72170   7.021  20.177  27.968 -0.2656 -0.2631  0.1166
29233W        W72171   5.686  20.993  24.674  0.2653 -0.0437 -0.1763
29234W        W72172   3.733  18.978  26.850  0.0723  0.5285  0.0099
29235W        W72173   3.995  20.628  24.634  0.3331 -0.0290  0.1696
29236W        W72174   6.918  19.517  27.187  0.3452 -0.0291  0.2907
29237W        W72175   3.585  21.242  26.411  0.0379 -0.1265  0.2483
29238W        W72176   3.021  21.608  23.445  0.0477 -0.4681  0.1594
29239W        W72177   2.806  20.746  27.620  0.3350 -0.2553  0.3089
29240W        W72178   7.779  18.586  24.582 -0.0773 -0.0632  0.0685
29241W        W72179   5.919  20.631  23.279  0.1101 -0.0899 -0.0916
29242W        W72180   7.000  18.369  24.950 -0.3587  0.2805 -0.1691
29243W        W72181   8.198  18.500  27.539 -0.1695 -0.1443  0.2514
29244W        W72182   6.071  19.744  24.458 -0.1248 -0.1785  0.0779
29245W        W72183   7.537  18.323  26.931  0.0452  0.0215  0.2031
29246W        W72184   5.924  18.651  27.645  0.1371 -0.1538  0.0187
29247W        W72185   6.773  20.391  26.229  0.3162 -0.2507  0.1489
29248W        W72186   4.457  18.496  27.084 -0.0808 -0.2040  0.1626
29249W        W72187   5.186  20.070  27.383 -0.2310  0.0819 -0.2834
29250W        W72188   3.359  20.275  27.129  0.0380  0.0255 -0.0032
29251W        W72189   5.204  18.136  23.231 -0.3022 -0.2080 -0.2429
29252W        W72190   4.259  18.344  23.097 -0.1654  0.1090 -0.0492
29253W        W72191   3.324  19.823  27.409 -0.0314 -0.0032 -0.1242
29254W        W72192   6.190  20.266  26.220  0.4027 -0.0534 -0.1233
29255W        W72193   5.812  20.083  24.238 -0.4558 -0.0316  0.1462
29256W        W72194   7.462  19.150  24.173  0.1747  0.0638  0.0873
29257W        W72195   3.736  20.527  26.923 -0.3275 -0.2829 -0.2941
29258W        W72196   6.085  19.623  25.953 -0.4149 -0.1857 -0.2994
29259W        W72197   6.639  19.407  23.959  0.2022  0.1953  0.1074
29260W        W72198   3.866  19.317  25.236  0.1861 -0.0409  0.2123
29261W        W72199   5.784  19.377  27.129  0.2097 -0.0968  0.1210
29262W        W72200   7.148  19.501  24.472  0.3373 -0.0274  0.1574
29263W        W72201   5.578  19.108  24.598 -0.1425 -0.1687  0.2031
29264W        W72202   6.645  16.883  27.315  0.1589  0.0916 -0.1495
29265W        W72203   6.213  19.830  27.449  0.0896  0.0773  0.0900
29266W        W72204   6.131  19.098  27.402  0.3471  0.0481 -0.2401
29267W        W72205   5.244  18.704  26.958  0.0270 -0.1593  0.2282
29268W        W72206   6.264  20.710  27.136  0.1169  0.1795 -0.1527
29269W        W72207   8.334  19.234  23.285 -0.2011  0.0588  0.2074
29270W        W72208   6.538  19.870  26.093  0.4115  0.1162 -0.0425
29271W        W72209   7.833  18.970  25.334 -0.1383 -0.0023  0.1830
29272W        W72210   6.711  18.659  24.534  0.0474  0.1465 -0.0024
29273W        W72211   3.522  19.022  25.440 -0.0352 -0.4176  0.2692
29274W        W72212   7.189  20.656  28.091  0.0928  0.1958  0.0499
29275W        W72213   3.041  18.130  24.049  0.2721 -0.2739 -0.1457
29276W        W72214   6.172  18.800  26.383  0.0803 -0.0928 -0.4143
29277W        W72215   3.317  19.158  23.920  0.2428  0.0900  0.0349
29278W        W72216   6.717  18.576  25.869 -0.1289 -0.3376  0.1004
29279W        W72217   6.199  19.142  25.959 -0.0571 -0.2476  0.0615
29280W        W72218   3.227  18.370  26.807  0.1641 -0.1138 -0.0727
29281W        W72219   4.068  20.914  27.255 -0.2843 -0.0305 -0.0363
29282W        W72220   4.041  18.171  23.964  0.0164  0.1221 -0.1158
29283W        W72221   4.339  19.955  23.223 -0.3033 -0.0473  0.2054
29284W        W72222   6.488  18.341  26.310  0.1898 -0.0548  0.0620
29285W        W72223   7.943  20.597  27.473 -0.1324 -0.2186 -0.0245
29286W        W72224   5.535  16.958  23.150  0.1363 -0.1381 -0.2094
29287W        W72225   7.133  18.766  26.660 -0.3229  0.3894  0.4008
29288W        W72226   2.688  22.076  24.400 -0.0339  0.0658  0.1699
29289W        W72227   5.684  18.872  25.860 -0.4963 -0.0531 -0.3905
29290W        W72228   5.502  21.208  26.699 -0.0577 -0.0831 -0.0256
29291W        W72229   4.289  20.198  28.354 -0.0828 -0.0661  0.0821
29292W        W72230   4.277  20.167  26.176 -0.2449  0.2743 -0.2802
29293W        W72231   6.580  17.022  26.667 -0.0975 -0.0628  0.0693
29294W        W72232   6.856  19.188  26.847  0.1645  0.4023 -0.0703
29295W        W72233   4.921  19.717  24.692  0.3775 -0.1552  0.0745
29296W        W72234   7.439  20.057  26.656 -0.1686 -0.0301  0.3236
29297W        W72235   5.603  20.842  26.330  0.1390  0.1871  0.2914
29298W        W72236   3.422  20.235  25.696 -0.2146 -0.1333  0.1948
29299W        W72237   4.764  20.917  28.542 -0.0479 -0.2291 -0.0394
29300W        W72238   6.474  20.421  25.588 -0.1911  0.2231  0.2485
29301W        W72239   5.223  21.157  25.000 -0.1551  0.0065 -0.0791
29302W        W72240   4.790  19.230  27.290  0.0687  0.0791 -0.1723
29303W        W72241   5.653  20.104  28.484  0.0135  0.0750 -0.0118
29304W        W72242   5.212  19.524  27.310 -0.0688 -0.1987 -0.1248
29305W        W72243   4.269  17.988  23.504 -0.0510 -0.1317  0.0325
29306W        W72244   5.200  19.905  23.780  0.1821 -0.0773 -0.1221
29307W        W72245   3.377  21.194  28.097  0.0898  0.0741 -0.0758
29308W        W72246   2.358  20.023  25.641  0.1642 -0.2140 -0.1547
29309W        W72247   5.313  21.958  25.361 -0.1333 -0.0618  0.2797
29310W        W72248   4.583  20.468  25.831  0.0327 -0.4870 -0.0271
29311W        W72249   4.885  20.095  24.148 -0.0214 -0.0432  0.2651
29312W        W72250   5.296  20.359  26.368  0.1280 -0.0506  0.1594
29313W        W72251   5.136  18.043  25.059  0.1770  0.1120  0.3563
29314W        W72252   4.149  20.610  25.974 -0.1103 -0.1362 -0.2321
29315W        W72253   3.830  20.570  25.630 -0.0173 -0.0281 -0.0862
29316W        W72254   4.602  20.788  23.238 -0.2520 -0.1700  0.1154
29317W        W72255   4.902  22.409  24.295  0.1435 -0.0447 -0.0169
29318W        W72256   7.637  21.406  27.502 -0.0571  0.0259  0.0629
29319W        W72257   8.317  19.324  24.530  0.1829  0.1549  0.0904
29320W        W72258   6.883  19.608  24.879  0.1194 -0.3316 -0.0529
29321W        W72259   6.932  19.000  23.117 -0.0994 -0.2849 -0.3536
29322W        W72260   5.704  20.029  27.212  0.1841 -0.1143 -0.0439
29323W        W72261   4.824  19.389  26.477  0.0815 -0.1523  0.1047
29324W        W72262   6.168  18.431  24.488 -0.1199  0.2769 -0.1989
29325W        W72263   3.580  20.176  27.631 -0.0623  0.2724  0.1220
29326W        W72264   7.949  19.172  28.174  0.0123 -0.1486 -0.1717
29327W        W72265   3.452  20.709  27.329 -0.2467  0.1321 -0.0154
29328W        W72266   7.001  20.245  26.669  0.1193 -0.1261  0.2953
29329W        W72267   3.586  18.961  24.402 -0.4176  0.2384  0.1040
29330W        W72268   3.972  19.921  26.543 -0.1312 -0.2454 -0.0489
29331W        W72269   7.405  17.015  26.808  0.0734 -0.0950  0.1427
29332W        W72270   4.777  19.143  22.395 -0.2418 -0.2310 -0.2091
29333W        W72271   5.467  19.740  26.904 -0.3243 -0.1078  0.0783
29334W        W72272   6.208  20.951  24.718  0.0363  0.2951  0.2542
29335W        W72273   4.960  20.110  27.818 -0.1489  0.3227 -0.0088
29336W        W72274   5.471  19.853  25.131 -0.1548 -0.0667 -0.0130
29337W        W72275   3.319  17.696  22.799  0.2442 -0.2600  0.1125
29338W        W72276   7.838  18.105  25.296  0.5084 -0.0920  0.2073
29339W        W72277   4.320  19.836  27.019 -0.1640 -0.1027  0.6093
29340W        W72278   7.800  18.269  27.387 -0.4146  0.1193  0.2162
29341W        W72279   4.286  19.457  26.425  0.3342  0.0746  0.3207
29342W        W72280   7.675  20.188  24.379  0.0026  0.0946  0.1401
29343W        W72281   5.643  19.366  26.008 -0.1342 -0.5330 -0.3193
29344W        W72282   3.272  17.252  27.742  0.0952 -0.5555 -0.4034
29345W        W72283   4.672  19.912  23.620  0.2941 -0.0057  0.0153
29346W        W72284   8.130  19.989  27.517  0.1110  0.2530 -0.0850
29347W        W72285   4.492  20.094  22.198  0.0222 -0.0645  0.0275
29348W        W72286   5.224  20.228  25.851  0.3630 -0.0450  0.2468
29349W        W72287   4.726  18.395  25.424  0.1226 -0.0238 -0.0434
29350W        W72288   6.063  18.922  24.491  0.0865  0.0354  0.0939
29351W        W72289   4.316  20.293  24.859  0.1503  0.0509 -0.0859
29352W        W72290   6.075  19.726  26.894  0.1687 -0.1556  0.0412
29353W        W72291   6.314  20.932  27.582 -0.2268 -0.2639 -0.0412
29354W        W72292   4.758  18.823  24.459 -0.1250  0.1048 -0.3308
29355W        W72293   8.215  18.781  24.315 -0.1183 -0.0610 -0.2513
29356W        W72294   6.736  20.803  25.826  0.5093 -0.4210  0.0184
29357W        W72295   6.847  21.690  24.242  0.1898 -0.2646  0.1352
29358W        W72296   9.813  20.313  24.772  0.2549  0.0605  0.1545
29359W        W72297   7.069  21.155  24.445 -0.1241  0.0606 -0.0525
29360W        W72298   3.320  18.028  27.205  0.0355  0.2190  0.0612
29361W        W72299   6.822  21.072  26.875  0.0393  0.1983  0.1336
29362W        W72300   7.867  20.981  26.515 -0.1260  0.0568 -0.0959
29363W        W72301   4.890  19.576  23.115 -0.0690 -0.0033  0.0957
29364W        W72302   3.507  19.766  26.323 -0.0898 -0.0389  0.0849
29365W        W72303   4.104  20.435  25.285 -0.2310 -0.4152 -0.3102
29366W        W72304   6.502  19.574  25.245 -0.0959 -0.3097 -0.0224
29367W        W72305   7.231  19.202  26.395 -0.0305 -0.0204 -0.0621
29368W        W72306   5.761  21.963  22.750 -0.2586  0.2090  0.0674
29369W        W72307   7.756  18.493  26.040  0.1559 -0.4820  0.2194
29370W        W72308   5.990  21.484  25.905 -0.0672 -0.1245  0.2843
29371W        W72309   4.706  22.042  26.766  0.3213  0.2290 -0.0112
29372W        W72310   4.025  21.522  23.324  0.0664 -0.4412 -0.2602
29373W        W72311   4.694  20.148  27.342  0.2269 -0.2244  0.0668
29374W        W72312   6.294  20.487  25.100 -0.1235 -0.0101 -0.4531
29375W        W72313   5.443  21.960  24.876  0.1625 -0.2894  0.4290
29376W        W72314   6.455  21.377  23.934 -0.3239 -0.0205  0.4378
29377W        W72315   3.909  19.272  24.695 -0.1354 -0.1821 -0.1217
29378W        W72316   6.299  21.008  25.614  0.0891  0.3681  0.1874
29379W        W72317   6.346  18.001  25.670  0.0439 -0.1225  0.2602
29380W        W72318   7.576  17.410  26.432  0.0956 -0.0566 -0.0133
29381W        W72319   6.449  18.134  25.108 -0.2959 -0.1074 -0.0748
29382W        W72320   4.877  19.720  26.981 -0.1100 -0.0893 -0.3354
29383W        W72321   3.812  19.706  22.799  0.0775  0.4607  0.0184
29384W        W72322   4.367  21.513  23.865  0.1991  0.1822  0.3921
29385W        W72323   3.543  21.188  27.200  0.0777 -0.1536 -0.0983
29386W        W72324   7.306  18.667  27.962 -0.0763  0.1127 -0.1368
29387W        W72325   4.745  19.140  26.071 -0.0222 -0.2113 -0.0306
29388W        W72326   5.210  18.569  25.526  0.0298 -0.0359 -0.2174
29389W        W72327   4.667  19.044  23.442  0.2262  0.2092 -0.1988
29390W        W72328   6.454  19.871  24.854 -0.2992 -0.1307 -0.4542
29391W        W72329   6.804  17.952  26.510  0.1757  0.1214  0.0114
29392W        W72330   4.259  18.430  24.773 -0.0061 -0.1576 -0.1088
29393W        W72331   6.319  20.334  23.848  0.0486 -0.1535 -0.4775
29394W        W72332   7.292  20.976  25.076 -0.0198  0.2440  0.1222
29395W        W72333   5.149  18.537  23.596 -0.0641  0.0531  0.0196
29396W        W72334   5.151  21.323  27.077 -0.0381 -0.0028 -0.2423
29397W        W72335   2.596  21.973  23.441  0.0522 -0.2098  0.0251
29398W        W72336   6.843  19.288  28.179 -0.1753  0.1055 -0.0990
29399W        W72337   5.452  18.288  27.095  0.0939  0.0673 -0.1581
29400W        W72338   3.183  17.423  23.201 -0.0719  0.0776  0.3256
29401W        W72339   4.979  19.043  24.936  0.1217 -0.1113 -0.1536
29402W        W72340   5.816  22.023  25.160 -0.1179 -0.0756  0.0701
29403W        W72341   5.943  20.979  25.203  0.0624 -0.0241 -0.1256
29404W        W72342   5.288  20.204  26.834  0.2448  0.0345  0.1485
29405W        W72343   5.037  20.513  28.586 -0.1580 -0.1647  0.1706
29406W        W72344   4.239  18.506  26.594 -0.0078 -0.0054 -0.1825
29407W        W72345   4.828  20.224  24.929 -0.1999 -0.0631  0.0985
29408W        W72346   4.493  19.256  28.400  0.0596 -0.1004  0.0068
29409W        W72347   5.155  20.109  24.574 -0.3132  0.3823 -0.2575
29410W        W72348   8.505  17.724  25.791  0.1543 -0.1352 -0.2422
29411W        W72349   5.255  19.057  23.451  0.1420  0.0152 -0.0740
29412W        W72350   4.723  17.721  27.786  0.0591 -0.1654 -0.1352
29413W        W72351   4.304  21.761  28.790 -0.0519 -0.2754  0.2118
29414W        W72352   7.176  20.621  26.298 -0.0660 -0.1269 -0.2975
29415W        W72353   4.549  18.452  26.238 -0.2524  0.0379  0.0741
29416W        W72354   7.810  18.554  23.508 -0.1111 -0.1269  0.2831
29417W        W72355   4.291  20.737  24.253  0.1568 -0.2588  0.2336
29418W        W72356   4.224  18.902  26.925 -0.4166 -0.1121  0.1364
29419W        W72357   5.385  19.514  24.814 -0.0760 -0.2422 -0.1048
29420W        W72358   6.411  19.462  27.207  0.1664 -0.1388 -0.1016
29421W        W72359   4.975  18.541  25.031  0.1787  0.1991  0.0465
29422W        W72360   6.381  19.460  27.814 -0.0866 -0.1519 -0.2480
29423W        W72361   3.831  18.157  23.051 -0.2185 -0.2726  0.1277
29424W        W72362   7.139  20.563  24.870 -0.1243 -0.0595  0.0007
29425W        W72363   6.100  22.064  26.657 -0.1782 -0.0577 -0.1600
29426W        W72364   5.824  21.033  25.766 -0.0708 -0.4191 -0.2360
29427W        W72365   4.591  20.631  26.540  0.1385 -0.0867 -0.1866
29428W        W72366   5.969  19.339  26.389  0.0920 -0.0977  0.0360
29429W        W72367   4.919  17.515  25.888  0.0567  0.2030 -0.1070
29430W        W72368   3.452  19.417  26.797  0.1236  0.1887  0.2101
29431W        W72369   5.099  20.161  25.350  0.0633 -0.2125 -0.2160
29432W        W72370   5.666  19.350  25.177 -0.0728  0.0501  0.0375
29433W        W72371   3.944  17.967  26.364 -0.1051  0.1871 -0.0047
29434W        W72372   6.484  17.126  24.896  0.2810 -0.1805 -0.1213
29435W        W72373   4.678  19.680  27.524 -0.2683  0.1359  0.1592
29436W        W72374   5.813  19.886  26.355 -0.3406  0.3176 -0.1158
29437W        W72375   4.195  19.957  29.705 -0.1379  0.1089  0.0297
29438W        W72376   5.771  19.026  30.275 -0.2412  0.2753 -0.3094
29439W        W72377   7.604  19.587  28.302 -0.2607 -0.2244  0.0853
29440W        W72378   7.038  19.680  28.376  0.1389  0.0799  0.3220
29441W        W72379   3.617  18.733  28.771  0.1165 -0.1024 -0.2928
29442W        W72380   6.637  22.321  28.808  0.1321 -0.0012 -0.0984
29443W        W72381   4.411  18.436  29.943 -0.0210  0.1602 -0.2236
29444W        W72382   4.264  19.372  28.976  0.3746 -0.1593  0.0704
29445W        W72383   5.149  21.670  30.544  0.1770 -0.2009  0.1940
29446W        W72384   5.719  19.693  28.113 -0.1646 -0.0237  0.3465
29447W        W72385   4.326  19.937   0.528  0.2190  0.0823  0.0671
29448W        W72386   6.004  22.079  31.176  0.1833 -0.2134 -0.2664
29449W        W72387   5.789  18.982  29.002  0.0906  0.2086  0.3170
29450W        W72388   3.438  16.964  30.002  0.3273 -0.0757  0.0521
29451W        W72389   4.466  18.694  27.906  0.2815  0.0882 -0.1076
29452W        W72390   2.547  21.037  29.208  0.0445 -0.1686  0.0107
29453W        W72391   2.930  20.624  29.979  0.1170  0.0216 -0.4664
29454W        W72392   5.445  18.874  27.824 -0.0730 -0.2382  0.2076
29455W        W72393   5.683  21.122  28.465  0.0837 -0.1758 -0.3619
29456W        W72394   6.073  19.455  31.224 -0.0814  0.1346  0.0968
29457W        W72395   5.791  19.171  30.824 -0.0127  0.0810 -0.3405
29458W        W72396   3.957  19.206  27.661  0.2205 -0.2463  0.1399
29459W        W72397   2.234  20.305  27.036 -0.3735 -0.0592  0.1855
29460W        W72398   4.278  19.128  29.433  0.1964  0.1684 -0.0677
29461W        W72399   5.496  19.868  30.411  0.1872 -0.0637  0.1092
29462W        W72400   6.512  18.526  29.236  0.2844 -0.2941 -0.1394
29463W        W72401   5.628  19.611  29.486 -0.0144 -0.3046 -0.0448
29464W        W72402   4.308  20.645  28.589  0.0310  0.0952 -0.2575
29465W        W72403   5.548  20.778  27.995  0.0806 -0.0087  0.0159
29466W        W72404   6.534  19.509  31.582 -0.0928  0.2008 -0.1812
29467W        W72405   2.430  20.145  29.422 -0.0990  0.2364  0.2586
29468W        W72406   3.548  21.280  29.068 -0.0576 -0.0637 -0.1619
29469W        W72407   4.873  20.202  30.159 -0.0635  0.0481 -0.2266
29470W        W72408   6.572  20.410  28.088 -0.1551 -0.2382 -0.1788
29471W        W72409   5.257  21.245  29.540  0.1260  0.1006 -0.0074
29472W        W72410   5.284  24.538  31.757 -0.1659  0.0218 -0.2025
29473W        W72411   3.043  20.917  27.142 -0.2722  0.2540  0.0164
29474W        W72412   5.331  20.811  29.837  0.0832 -0.1473 -0.0030
29475W        W72413   3.921  21.482  30.638 -0.1564 -0.1681  0.1173
29476W        W72414   5.487  20.601  28.449  0.1577 -0.0112  0.0642
29477W        W72415   5.849  20.287  30.521  0.1359  0.2436 -0.0173
29478W        W72416   4.323  18.852  28.809  0.0393  0.2556 -0.1537
29479W        W72417   6.203  20.453  28.975 -0.0564  0.0584  0.4485
29480W        W72418   3.082  22.829  30.728  0.3073 -0.3105  0.1147
29481W        W72419   3.533  21.171  30.761 -0.0300  0.0163 -0.4322
29482W        W72420   7.361  19.255  29.952  0.2984 -0.0831  0.1411
29483W        W72421   3.936  20.441  28.178  0.1785  0.0398 -0.1216
29484W        W72422   7.172  20.064  27.098 -0.1015 -0.2602 -0.2628
29485W        W72423   4.955  19.042  28.097 -0.0199 -0.1471 -0.0997
29486W        W72424   8.126  18.134  28.426  0.3435  0.0222 -0.2545
29487W        W72425   5.355  18.271  28.972 -0.0827  0.3829  0.1082
29488W        W72426   4.313  20.595  29.065  0.1986  0.0832  0.0681
29489W        W72427   4.938  18.959  30.391 -0.1328  0.4505 -0.1100
29490W        W72428   6.255  20.856  31.277  0.0822  0.2410 -0.0834
29491W        W72429   5.759  18.738  28.217  0.0398 -0.2566 -0.3419
29492W        W72430   6.590  18.738  31.073  0.0601 -0.0924 -0.1992
29493W        W72431   4.026  19.741  30.144 -0.1590 -0.1622 -0.1567
29494W        W72432   4.514  19.403  30.243 -0.1629 -0.1895  0.0047
29495W        W72433   6.779  20.980  28.660 -0.2486  0.0570 -0.1714
29496W        W72434   7.239  20.260  30.280 -0.4641 -0.2291 -0.0984
29497W        W72435   4.568  20.636  28.098 -0.0774  0.0359  0.1224
29498W        W72436   4.920  18.445  28.070 -0.0489 -0.0576  0.0877
29499W        W72437   3.802  20.425  30.187  0.4407 -0.0033 -0.0349
29500W        W72438   2.606  19.257  30.496  0.0256  0.1356  0.1855
29501W        W72439   4.675  17.919  26.166  0.0712  0.1069 -0.2227
29502W        W72440   5.590  21.337  30.366 -0.0655  0.2204  0.0357
29503W        W72441   4.275  21.511  30.320 -0.2174  0.0649  0.0129
29504W        W72442   7.123  18.231  28.250  0.0820 -0.0400  0.3735
29505W        W72443   4.156  18.429  27.577  0.0971  0.1930 -0.0905
29506W        W72444   5.660  21.749  29.192 -0.0949  0.2138  0.1067
29507W        W72445   7.124  20.684  26.912 -0.1183 -0.1101  0.1267
29508W        W72446   6.551  17.514  29.474  0.0316 -0.4654  0.0191
29509W        W72447   6.324  18.205  30.218 -0.1914  0.0755 -0.3849
29510W        W72448   2.226  20.028  26.588 -0.2297  0.0579  0.1765
29511W        W72449   3.423  17.571  27.192 -0.0412 -0.1591 -0.0500
29512W        W72450   5.929  21.271  30.684 -0.1294  0.0164 -0.0830
29513W        W72451   7.490  20.613  27.280  0.1526 -0.2676 -0.1957
29514W        W72452   4.643  21.558  30.686 -0.2341 -0.0034 -0.1150
29515W        W72453   5.185  20.442  30.590  0.1126 -0.0958  0.1946
29516W        W72454   6.034  20.599   0.631 -0.1800 -0.1644 -0.0521
29517W        W72455   5.105  22.953  28.892  0.0170  0.0844 -0.1613
29518W        W72456   2.933  21.161  30.009  0.0461 -0.0463 -0.2289
29519W        W72457   3.117  20.336  27.635 -0.2108  0.0454  0.1378
29520W        W72458   5.127  18.887  29.465 -0.0049  0.0606 -0.0255
29521W        W72459   5.782  20.125  31.024 -0.1102  0.2572  0.2376
29522W        W72460   6.346  18.149  28.751  0.0492  0.0801 -0.1684
29523W        W72461   4.483  17.649  30.535  0.0401  0.3619 -0.0248
29524W        W72462   7.069  18.721  31.277  0.1661  0.1261  0.2912
29525W        W72463   4.617  19.739  28.910  0.0183  0.0352 -0.2406
29526W        W72464   5.730  19.940  29.900 -0.0977  0.0241  0.0426
29527W        W72465   6.287  19.182  30.240  0.0276 -0.0189  0.2338
29528W        W72466   4.797  21.181  26.632  0.1366  0.1783  0.0508
29529W        W72467   5.406  19.246  30.521 -0.3162 -0.1205 -0.0602
29530W        W72468   3.869  19.463  29.351 -0.0774  0.1950  0.0946
29531W        W72469   6.561  19.102   0.426 -0.1327  0.1457  0.3138
29532W        W72470   4.134  17.770  30.162 -0.0967  0.0317  0.1993
29533W        W72471   7.512  19.913  30.697 -0.2525 -0.0698  0.1164
29534W        W72472   4.144  17.868  29.176  0.1358 -0.0577  0.2321
29535W        W72473   4.803  20.164  28.346  0.2175 -0.1601 -0.0040
29536W        W72474   5.193  19.412  29.671  0.2362  0.1313  0.3163
29537W        W72475   3.471  19.161  28.545  0.2145 -0.0806 -0.0404
29538W        W72476   7.409  19.271  31.903  0.3465  0.0875 -0.3965
29539W        W72477   7.065  20.275  28.470 -0.2842  0.2772  0.0021
29540W        W72478   6.782  20.876   0.600  0.2915  0.2323 -0.1296
29541W        W72479   6.230  21.350  28.552 -0.1022  0.2972  0.1467
29542W        W72480   6.088  19.923  30.281  0.0617  0.0212 -0.0432
29543W        W72481   4.978  19.154  28.635  0.2924  0.0530 -0.1616
29544W        W72482   3.967  21.562  29.948 -0.2392  0.0166 -0.0354
29545W        W72483   4.889  20.201  29.664 -0.2052 -0.1605 -0.0671
29546W        W72484   4.297  17.947  27.436 -0.2652  0.0848 -0.2419
29547W        W72485   8.175  21.024  29.696 -0.2396 -0.0147 -0.0130
29548W        W72486   5.868  20.363  29.409  0.1995 -0.3679 -0.1123
29549W        W72487   4.364  20.276  30.793  0.1807 -0.4693  0.0817
29550W        W72488   7.181  19.209  30.883 -0.0863 -0.2211  0.0352
29551W        W72489   7.958  19.566  30.004  0.0823 -0.2544  0.1784
29552W        W72490   6.350  20.464  30.415  0.1528  0.0154  0.0570
29553W        W72491   4.646  17.752  28.423 -0.0740  0.2081 -0.1083
29554W        W72492   5.783  21.647  27.717  0.1346 -0.0661 -0.0576
29555W        W72493   2.203  20.948  28.798  0.2179  0.0598 -0.0249
29556W        W72494   3.342  19.239  29.516 -0.1535  0.1155  0.5730
29557W        W72495   4.094  21.388  29.109 -0.1732  0.1598  0.1438
29558W        W72496   7.641  19.488  30.491  0.0191 -0.4405 -0.0303
29559W        W72497   4.848  18.712   0.351 -0.0414  0.0874 -0.0864
29560W        W72498   5.727  18.551  28.696 -0.0271  0.0339 -0.2479
29561W        W72499   3.558  17.734  27.653  0.2067 -0.4125 -0.1604
29562W        W72500   5.043  21.031  30.334  0.1398  0.0520  0.4249
29563W        W72501   6.441  17.695  29.016  0.1050  0.1005 -0.0367
29564W        W72502   7.272  18.752  28.620 -0.1549  0.2922  0.2866
29565W        W72503   5.088  21.812  31.018 -0.3327  0.0684  0.2739
29566W        W72504   7.970  20.234  28.024 -0.0130  0.0695 -0.1407
29567W        W72505   6.269  18.350  27.917  0.0398  0.0914 -0.0641
29568W        W72506   6.816  18.349  26.868 -0.0194 -0.1635 -0.0260
29569W        W72507   4.538  21.067  30.730 -0.4648  0.0602 -0.2172
29570W        W72508   6.052  21.447  29.031  0.2556 -0.1676 -0.0715
29571W        W72509   5.364  20.319  29.591  0.1399  0.2533  0.0671
29572W        W72510   6.779  18.373  27.924  0.2161  0.0277  0.2276
29573W        W72511   7.450  20.587  28.760 -0.0574  0.1930 -0.1375
29574W        W72512   4.000  20.065  30.510 -0.1230  0.1494 -0.0311
29575W        W72513   5.777  20.667  31.197 -0.1363 -0.1486  0.2552
29576W        W72514   7.056  21.282  27.289  0.0164 -0.1464 -0.0302
29577W        W72515   4.760  18.046  31.309  0.0531 -0.0140 -0.0514
29578W        W72516   5.399  19.277  28.236  0.0943 -0.1944  0.0141
29579W        W72517   7.075  19.325  29.495  0.0135 -0.0260  0.0418
29580W        W72518   3.734  23.653  27.324 -0.0672  0.0485  0.0522
29581W        W72519   5.882  18.705  30.612  0.1513 -0.0296 -0.3923
29582W        W72520   5.486  18.672  30.887  0.1494 -0.0912 -0.0460
29583W        W72521   6.012  18.244  29.751 -0.0235 -0.2068 -0.0045
29584W        W72522   5.634  19.352   0.102 -0.3238 -0.0602 -0.0096
29585W        W72523   6.168  19.309  28.827 -0.0184 -0.2713  0.1631
29586W        W72524   5.354  20.346  30.104 -0.0216  0.0226  0.2154
29587W        W72525   4.435  18.906  27.430 -0.0441 -0.0089 -0.0100
29588W        W72526   5.525  19.531  30.062  0.4079 -0.1275 -0.2517
29589W        W72527   3.402  18.895  30.989  0.2105 -0.1806 -0.2924
29590W        W72528   4.596  20.581  29.489  0.0913  0.0666  0.3509
29591W        W72529   6.946  20.351  31.723  0.0930  0.0348 -0.2159
29592W        W72530   6.117  19.887  28.679  0.3467  0.2443  0.1288
29593W        W72531   6.695  18.734  30.221  0.2444 -0.0357  0.0135
29594W        W72532   5.306  18.636  28.412  0.2173  0.2547  0.0113
29595W        W72533   3.849  21.410  28.095 -0.0871 -0.1283  0.1208
29596W        W72534   3.800  18.212  28.667 -0.3198 -0.0348 -0.1071
29597W        W72535   6.316  19.194  30.789  0.0021 -0.2760  0.0505
29598W        W72536   4.229  21.703  31.016 -0.2139  0.0859 -0.0659
29599W        W72537   4.386  20.217  27.839  0.0813 -0.2264 -0.2155
29600W        W72538   5.093  20.753  29.350 -0.0943  0.0667 -0.3856
29601W        W72539   2.380  20.342  27.609 -0.0281 -0.0493 -0.0699
29602W        W72540   6.678  20.400  29.847  0.0342 -0.1548 -0.0075
29603W        W72541   4.260  20.972  29.395 -0.2168 -0.2064  0.4481
29604W        W72542   4.346  18.234  28.394  0.1094  0.0450 -0.2480
29605W        W72543   3.118  19.045  28.875  0.1065  0.1257  0.2530
29606W        W72544   6.595  18.110  28.274  0.2407  0.1937 -0.2450
29607W        W72545   6.187  20.409  27.614 -0.0460 -0.0427 -0.1812
29608W        W72546   5.057  19.487  30.236 -0.1033  0.1916  0.0877
29609W        W72547   5.288  19.027  30.001  0.1128  0.1032 -0.0134
29610W        W72548   3.425  23.768  29.010  0.0321  0.0829  0.1643
29611W        W72549   6.757  19.577  30.655 -0.3962  0.0329  0.0370
29612W        W72550   7.474  19.072  26.864  0.0666  0.3995  0.3299
29613W        W72551   4.769  20.666  28.994 -0.1875  0.0560 -0.0914
29614W        W72552   6.102  20.656  30.820  0.1276 -0.0751  0.3087
29615W        W72553   3.092  19.813  27.823 -0.1577 -0.0292 -0.2150
29616W        W72554   8.681  20.736  31.524 -0.0679 -0.1167 -0.1239
29617W        W72555   5.044  19.480  29.041  0.1450  0.0365  0.2096
29618W        W72556   3.813  20.823  29.276  0.3174 -0.1855 -0.1896
29619W        W72557   4.743  21.009  29.661  0.0768  0.2740  0.0313
29620W        W72558   4.947  18.819  27.628 -0.0442 -0.4002  0.0267
29621W        W72559   3.491  20.679  29.892  0.3734 -0.3595 -0.5182
29622W        W72560   4.350  18.998  30.511  0.1551  0.1073 -0.0972
29623W        W72561   7.753  19.178  30.870 -0.2393  0.1269  0.5014
29624W        W72562   4.960  18.645  29.889  0.0067 -0.0813  0.0720
29625W        W72563   5.557  18.587  29.328 -0.0194  0.0957  0.1384
29626W        W72564   5.761  19.542  28.934  0.0325  0.0885  0.2134
29627W        W72565   5.880  19.503  30.438  0.1031 -0.2322  0.0586
29628W        W72566   7.021  19.144  31.558  0.2392  0.0273 -0.0393
29629W        W72567   2.751  21.305  31.788  0.4015  0.0779 -0.0687
29630W        W72568   6.195  19.077  29.745  0.0390 -0.0308  0.0569
29631W        W72569   7.002  20.634  28.918 -0.0811  0.2217  0.0637
29632W        W72570   6.065  19.869  31.545  0.2204 -0.0244  0.1093
29633W        W72571   3.970  18.351  28.043 -0.2173  0.0860  0.0249
29634W        W72572   3.663  19.726  29.806 -0.1905  0.1049 -0.1666
29635W        W72573   3.783  19.943  29.348  0.2144 -0.0137  0.1822
29636W        W72574   4.643  18.755  29.517  0.2317 -0.0641 -0.0115
29637W        W72575   4.011  20.364  29.381  0.1174  0.1807 -0.1533
29638W        W72576   2.995  20.820  29.069 -0.1793 -0.0127  0.0100
29639W        W72577   4.190  20.334  31.437 -0.3476  0.1763  0.0906
29640W        W72578   6.694  17.610  27.448 -0.0673  0.0012 -0.0912
29641W        W72579   5.327  18.993  27.367  0.2880 -0.2951 -0.2909
29642W        W72580   4.218  18.355  28.848  0.3028 -0.2301  0.0814
29643W        W72581   8.464  19.361  30.072 -0.1208  0.3508  0.1967
29644W        W72582   4.889  19.706  28.480  0.0543  0.2540 -0.0869
29645W        W72583   7.219  18.175  31.560  0.0247  0.4108 -0.0685
29646W        W72584   5.519  18.533  29.909  0.2998  0.1391 -0.0582
29647W        W72585   5.374  19.568  28.606  0.2330 -0.0327 -0.0525
29648W        W72586   3.336  18.345  31.211 -0.2160  0.1066  0.2951
29649W        W72587   5.643  23.175  31.931  0.0808 -0.1668 -0.3163
29650W        W72588   5.136  19.044  30.932 -0.0575  0.1013 -0.0509
29651W        W72589   6.643  17.799  27.918  0.0190 -0.0760  0.1282
29652W        W72590   5.428  18.390  28.022 -0.0908 -0.2374  0.1402
29653W        W72591   4.849  19.618  31.298  0.0902  0.5157  0.3334
29654W        W72592   6.342  19.713  29.136 -0.1338  0.0219  0.2229
29655W        W72593   5.198  19.869  29.934  0.0268 -0.2291  0.0595
29656W        W72594   6.936  18.826  29.072 -0.1585  0.1178 -0.3546
29657W        W72595   3.170  19.643  29.824  0.2072 -0.0385  0.1605
29658W        W72596   6.799  19.297  27.658 -0.0137  0.1433 -0.3057
29659W        W72597   5.257  19.918  28.179  0.1260 -0.0733 -0.1339
29660W        W72598   3.376  20.897  29.428 -0.1272  0.0160 -0.2545
29661W        W72599   5.047  18.662  31.801  0.2114 -0.1166 -0.2497
29662W        W72600   6.178  20.296  29.951 -0.0649 -0.1143  0.0586
29663W        W72601   5.907  18.230  29.061  0.0993 -0.0622  0.4424
29664W        W72602   5.675  19.083  29.694  0.1163 -0.1124  0.1244
29665W        W72603   5.178  20.463  31.597  0.0529  0.2030  0.2249
29666W        W72604   5.956  19.342  31.705 -0.3799 -0.2681  0.0215
29667W        W72605   5.128  19.529  30.908  0.3100  0.0796 -0.2169
29668W        W72606   6.363  21.573  30.604 -0.3345 -0.1126  0.1243
29669W        W72607   7.058  19.240  28.649 -0.3558  0.0338  0.2698
29670W        W72608   6.415  19.830  31.102 -0.0258 -0.0448 -0.2756
29671W        W72609   8.168  19.768  28.966  0.2085  0.1167 -0.1969
29672W        W72610   6.930  18.806  28.237  0.0850  0.1310  0.0515
29673W        W72611   4.302  19.266  31.031 -0.3554 -0.1265 -0.4217
29674W        W72612   6.667  20.121  30.679 -0.1281 -0.3310 -0.0084
29675W        W72613   5.362  18.642  26.453 -0.3692 -0.1716  0.2226
29676W        W72614   5.521  18.289   0.404  0.0623 -0.2631 -0.3927
29677W        W72615   3.957  19.999  28.003  0.0245  0.0662  0.0431
29678W        W72616   5.184  20.039  28.704 -0.0318 -0.4149  0.4602
29679W        W72617   7.349  18.715  26.095 -0.0507  0.0044 -0.1428
29680W        W72618   3.830  18.182  30.742  0.1340 -0.1870 -0.1733
29681W        W72619   5.204  22.528  30.360  0.0332 -0.0230  0.1788
29682W        W72620   3.197  18.144  28.475 -0.1826 -0.1023 -0.1226
29683W        W72621   5.299  18.481  27.500 -0.1244 -0.0075 -0.1581
29684W        W72622   4.351  20.772  30.098  0.2482  0.0988  0.1151
29685W        W72623   7.700  21.650  30.955  0.0426 -0.0745  0.0387
29686W        W72624   5.515  17.797  27.363  0.2009 -0.0426 -0.0607
29687W        W72625   6.590  19.976   0.815  0.0890 -0.1790  0.1149
29688W        W72626   3.594  19.634  28.376  0.0564 -0.1946  0.1113
29689W        W72627   5.433  19.195  29.217  0.0051 -0.3599  0.0191
29690W        W72628   4.570  23.586  30.555  0.1588 -0.2241 -0.0013
29691W        W72629   4.632  21.279  31.162 -0.4416 -0.1250  0.1012
29692W        W72630   3.074  20.837  30.719  0.0261 -0.4063  0.1268
29693W        W72631   4.929  18.638  31.219  0.1313  0.5562 -0.1479
29694W        W72632   6.436  18.577  28.369  0.1174 -0.1753 -0.2195
29695W        W72633   4.577  20.269  28.763 -0.1757  0.0849  0.0694
29696W        W72634   7.506  20.495  30.711  0.0807 -0.2912 -0.0682
29697W        W72635   5.767  21.216  31.206 -0.1065 -0.2371 -0.0219
29698W        W72636   4.684  18.482  30.365  0.2388  0.2068  0.0727
29699W        W72637   5.641  20.831  29.416 -0.0404 -0.0162  0.2443
29700W        W72638   6.037  19.352  29.371 -0.3614  0.0624 -0.1848
29701W        W72639   4.095  19.496  28.069 -0.2708 -0.0042 -0.0660
29702W        W72640   4.599  18.881  30.931  0.1440  0.0295  0.1382
29703W        W72641   6.842  20.820   0.106 -0.3135  0.0260  0.0869
29704W        W72642   3.483  20.425  29.229 -0.3852  0.2949  0.0499
29705W        W72643   4.896  18.284  28.576 -0.3875  0.2083 -0.1840
29706W        W72644   4.027  18.782  28.400  0.0742 -0.0300 -0.0463
29707W        W72645   4.176  22.248  31.685  0.2082  0.1684  0.2140
29708W        W72646   3.961  19.878  31.706  0.0826 -0.0845  0.3066
29709W        W72647   3.831  22.910  28.842 -0.0894 -0.1971 -0.2487
29710W        W72648   6.005  20.610  28.050 -0.2900  0.0660 -0.3548
29711W        W72649   5.865  19.966  29.113 -0.2019 -0.1312 -0.0912
29712W        W72650   5.854  19.402  28.450 -0.2186  0.0662 -0.1393
29713W        W72651   6.883  18.379  28.674 -0.0014  0.0831  0.1211
29714W        W72652   3.638  20.252  29.693 -0.1527 -0.2424  0.0311
29715W        W72653   4.143  20.141  28.982  0.0944  0.1723  0.3054
29716W        W72654   5.906  19.495  27.635  0.1199  0.1941 -0.0762
29717W        W72655   3.470  21.563  29.437  0.0488 -0.0330  0.1857
29718W        W72656   6.837  19.964   0.067  0.1797  0.2300 -0.3056
29719W        W72657   8.049  18.880  26.245  0.4045  0.0434  0.2692
29720W        W72658   8.399  19.307  28.892  0.0374 -0.1093 -0.1021
29721W        W72659   8.485  19.144  29.383 -0.0112  0.5065  0.0372
29722W        W72660   6.262  21.265  31.917  0.1624  0.2228  0.0658
29723W        W72661   4.989  19.787  29.412  0.3386  0.1005 -0.1840
29724W        W72662   6.023  18.307  28.368  0.1072  0.1092 -0.3384
29725W        W72663   3.966  20.519  31.011  0.1898  0.1028 -0.1099
29726W        W72664   7.748  18.961  30.258 -0.0159 -0.0372 -0.2041
29727W        W72665   3.622  21.841  29.829  0.0294  0.1207  0.4500
29728W        W72666   6.063  19.802  29.559 -0.0798  0.1958 -0.0720
29729W        W72667   3.823  19.130  28.992 -0.1853 -0.1622 -0.4317
29730W        W72668   4.669  19.129  29.068  0.2205 -0.1774 -0.1824
29731W        W72669   6.332  18.226  31.296 -0.1547  0.0358  0.3070
29732W        W72670   5.413  19.366  27.757  0.2214 -0.0908  0.1356
29733W        W72671   6.418  19.016  29.207  0.2283  0.1138 -0.0892
29734W        W72672   4.299  21.144  28.410  0.0738 -0.2688 -0.0480
29735W        W72673   4.994  20.235  29.168  0.2793 -0.0673  0.0167
29736W        W72674   4.867  21.181  29.243  0.3430 -0.4236 -0.0433
29737W        W72675   3.181  18.894  29.923  0.0040 -0.0838  0.0472
29738W        W72676   8.203  18.709  29.679  0.2476  0.0605 -0.0409
29739W        W72677   4.744  20.096  31.451 -0.3381 -0.1214  0.0434
29740W        W72678   7.936  20.821  30.785  0.2273 -0.1459  0.3017
29741W        W72679   3.491  20.037  28.909  0.1017  0.0130 -0.0763
29742W        W72680   7.450  17.781  29.212  0.0137  0.0438  0.2004
29743W        W72681   5.526  20.769  30.400  0.0190 -0.0041 -0.1181
29744W        W72682   4.783  20.405  31.039  0.0188 -0.1566 -0.0919
29745W        W72683   6.108  18.636  29.408 -0.5973  0.0466 -0.1070
29746W        W72684   6.724  21.403  30.242 -0.2387  0.1315 -0.2149
29747W        W72685   6.933  18.858  27.705 -0.2564  0.0168  0.1722
29748W        W72686   6.960  22.327   0.150 -0.1024  0.1081  0.0523
29749W        W72687   4.055  18.670  29.208  0.0881  0.0477 -0.1295
29750W        W72688   6.812  17.802  26.963 -0.4474 -0.3555  0.1371
29751W        W72689   4.783  19.159  29.841 -0.0106 -0.3028  0.1286
29752W        W72690   5.509  19.093  31.307 -0.1971  0.0958  0.0405
29753W        W72691   6.211  21.316  30.120 -0.0117  0.0826  0.3076
29754W        W72692   3.805  18.973  29.661 -0.0170 -0.2581  0.0791
29755W        W72693   6.757  20.667  27.233  0.0558 -0.0189 -0.0332
29756W        W72694   6.853  20.598  30.433 -0.3581  0.1754  0.1190
29757W        W72695   3.468  20.112  28.130  0.0804  0.2775 -0.1990
29758W        W72696   6.186  18.734  28.858 -0.1512 -0.0460 -0.0662
29759W        W72697   7.710  21.970  29.389 -0.1994  0.2496  0.1055
29760W        W72698   4.666  19.745  29.904 -0.1796  0.0750 -0.1613
29761W        W72699   6.736  20.370  29.320 -0.1142 -0.0830  0.2463
29762W        W72700   6.453  20.828  29.068  0.0310  0.2725 -0.1214
29763W        W72701   7.282  18.356  27.546  0.0383 -0.2269  0.0316
29764W        W72702   2.252  17.686  30.529 -0.2924 -0.2873  0.3923
29765W        W72703   2.832  21.127  28.030 -0.2423  0.1692  0.0550
29766W        W72704   7.379  18.917  29.550 -0.2404 -0.3233  0.3453
29767W        W72705   6.251  19.700  30.680 -0.0368 -0.0833 -0.0259
29768W        W72706   3.737  19.067  28.133 -0.1452  0.0674  0.2243
29769W        W72707   6.002  18.860  31.169  0.0294 -0.0272  0.0712
29770W        W72708   4.182  20.703  30.570  0.2177  0.1115  0.2399
29771W        W72709   3.896  22.639  31.464 -0.1514  0.1291 -0.1772
29772W        W72710   4.256  19.445  27.282 -0.0826 -0.0253 -0.0199
29773W        W72711   6.042  20.381  31.576  0.0246  0.2244  0.0399
29774W        W72712   4.815  21.806  28.846 -0.0230  0.2676  0.1689
29775W        W72713   4.713  21.104  28.043 -0.0673  0.1670  0.2387
29776W        W72714   4.285  19.703  28.538 -0.1741  0.1051 -0.0624
29777W        W72715   5.859  19.132  28.010 -0.2678 -0.1476 -0.0212
29778W        W72716   6.511  19.643  30.183 -0.1400  0.0460  0.0880
29779W        W72717   5.264  18.737  28.944  0.1211  0.2680 -0.3415
29780W        W72718   7.370  18.634  29.085 -0.0575  0.1705  0.0972
29781W        W72719   7.115  17.154  29.488  0.1180 -0.0905 -0.0551
29782W        W72720   3.524  20.092  30.644  0.3048 -0.1288  0.0051
29783W        W72721   4.767  18.856  27.007  0.1751  0.4416  0.3781
29784W        W72722   3.735  19.488  27.283  0.2012  0.3392 -0.2519
29785W        W72723   3.468  20.595  28.337  0.0161 -0.2954  0.0127
29786W        W72724   6.347  18.707  30.521  0.0886  0.1640 -0.3790
29787W        W72725   3.204  18.317  30.165 -0.0914 -0.1197 -0.0314
29788W        W72726   3.403  19.592  29.106  0.1769  0.0847  0.0741
29789W        W72727   4.650  17.623  29.430  0.0661 -0.1650  0.1649
29790W        W72728   6.001  21.097  28.045 -0.1053  0.2222  0.0023
29791W        W72729   4.862  17.883  30.769  0.2203 -0.1779 -0.2587
29792W        W72730   3.075  17.838  30.198 -0.0203  0.0982  0.0858
29793W        W72731   5.491  20.366  28.964 -0.0787 -0.1240  0.1173
29794W        W72732   5.086  20.604  28.080 -0.2017 -0.1942 -0.0344
29795W        W72733   7.172  17.863  27.780  0.0993  0.3687  0.1256
29796W        W72734   6.024  20.900  31.678  0.1153  0.1733 -0.0213
29797W        W72735   2.847  20.428  27.212 -0.1256 -0.0526  0.0153
29798W        W72736   6.263  20.302  31.130  0.3707  0.0701 -0.1084
29799W        W72737   5.226  17.568  30.985 -0.1322  0.3227 -0.1878
29800W        W72738   5.113  17.734  28.650  0.3203  0.1317 -0.4544
29801W        W72739   5.278  20.471  31.097 -0.3072  0.0009  0.1264
29802W        W72740   5.777  21.651  30.062  0.2004  0.0322  0.1290
29803W        W72741   5.891  21.539  28.223 -0.0301  0.0107  0.0481
29804W        W72742   4.456  19.573  29.421 -0.1974  0.0924  0.0067
29805W        W72743   4.434  21.103   0.250 -0.2239  0.1184  0.1524
29806W        W72744   3.257  17.076  30.592  0.2304  0.1415 -0.0797
29807W        W72745   7.492  20.047  28.127 -0.1247  0.0453  0.1168
29808W        W72746   4.408  20.752  31.143 -0.3250 -0.1055  0.1954
29809W        W72747   6.009  20.101  27.949 -0.0810  0.3309 -0.5642
29810W        W72748   8.336  20.310  30.203  0.2696  0.2258 -0.0696
29811W        W72749   7.042  19.669  28.917  0.4566  0.0686  0.3927
29812W        W72750   3.377  19.264  31.457 -0.1686  0.1924  0.0756
29813W        W72751   4.970  19.974  30.648  0.0171 -0.0274 -0.1647
29814W        W72752   7.453  19.845  29.967 -0.0285  0.4992 -0.4000
29815W        W72753   3.860  18.499  29.702 -0.0989  0.1622  0.0559
29816W        W72754   6.536  20.011  28.346  0.2051  0.0042 -0.0427
29817W        W72755   4.554  19.809  28.125 -0.0258  0.0624  0.0661
29818W        W72756   4.344  21.426  29.625 -0.2633 -0.1186  0.2167
29819W        W72757   6.304  19.091  28.279  0.1128  0.1294 -0.0148
29820W        W72758   4.861  20.727  29.987  0.1470  0.0777 -0.2685
29821W        W72759   6.303  20.153  29.318  0.1132  0.5282 -0.0314
29822W        W72760   7.959  19.592  30.873 -0.3446 -0.2608  0.1911
29823W        W72761   5.727  18.230  27.588 -0.2034 -0.1198 -0.0516
29824W        W72762   5.367  19.904  29.126 -0.0343  0.0513  0.4081
29825W        W72763   6.455  21.887  31.142  0.0860  0.0771 -0.0111
29826W        W72764   6.110  21.234   0.511 -0.1565 -0.1279 -0.0945
29827W        W72765   4.990  23.150  31.180 -0.0610 -0.0395 -0.1401
29828W        W72766   7.767  20.095  30.351 -0.1163 -0.1539  0.3566
29829W        W72767   3.911  17.702  30.721 -0.0440 -0.0757 -0.0819
29830W        W72768   3.242  18.911  28.153  0.0829  0.5555 -0.2486
29831W        W72769   3.435  20.830  28.849 -0.1002 -0.3035  0.1574
29832W        W72770   7.181  19.590  30.329  0.0345  0.2869 -0.2052
29833W        W72771   3.941  19.484  30.745 -0.1347  0.0280 -0.2352
29834W        W72772   6.040  17.568  27.213  0.0009  0.3481 -0.0361
29835W        W72773   4.828  21.496  29.684 -0.0546 -0.0915  0.0372
29836W        W72774   5.660  19.629  30.853  0.2239 -0.0658 -0.0377
29837W        W72775   7.602  17.369   1.504 -0.0222  0.0359  0.1562
29838W        W72776   7.143  21.216   0.531 -0.2721 -0.2187 -0.3616
29839W        W72777   5.164  18.433   0.666  0.0107  0.0228 -0.1196
29840W        W72778   4.013  21.024  30.930  0.0609  0.1397  0.2252
29841W        W72779   5.729  21.296  31.709 -0.4125  0.0236  0.3072
29842W        W72780   3.511  20.956   0.499  0.0616 -0.0361  0.0688
29843W        W72781   5.256  21.014  31.899 -0.3795  0.2681  0.1866
29844W        W72782   5.303  19.230   0.525 -0.1007  0.2742 -0.1530
29845W        W72783   5.786  20.144   0.887 -0.1625  0.1629  0.0813
29846W        W72784   6.441  20.692  31.823 -0.0192  0.0621 -0.1211
29847W        W72785   7.249  21.366  31.502 -0.1684  0.1683 -0.0816
29848W        W72786   3.496  17.916  31.018  0.2464  0.2097  0.0882
29849W        W72787   6.983  20.312   1.006 -0.1843  0.0411 -0.0989
29850W        W72788   5.346  19.965  31.044 -0.0580  0.1314 -0.0561
29851W        W72789   6.568  20.050  31.634  0.3838 -0.0860 -0.1181
29852W        W72790   5.003  21.847   0.687 -0.2326 -0.0213 -0.1839
29853W        W72791   4.431  19.262  31.479 -0.5242 -0.1981 -0.0615
29854W        W72792   5.204  21.286   1.598  0.3134 -0.3360 -0.0999
29855W        W72793   5.427  17.867   0.016  0.2631  0.2552  0.0716
29856W        W72794   3.740  18.396  31.658  0.1600 -0.0386  0.0657
29857W        W72795   5.234  18.184  30.995  0.1326  0.0484 -0.2297
29858W        W72796   5.333  22.736   0.884 -0.1679 -0.2326  0.0234
29859W        W72797   7.776  18.279   0.487 -0.0806  0.0250 -0.2100
29860W        W72798   4.594  18.755  31.511 -0.1662 -0.2049  0.0179
29861W        W72799   6.084  18.701  30.081  0.1555  0.1793  0.1729
29862W        W72800   6.618  19.356  31.103 -0.1910 -0.2967  0.1301
29863W        W72801   4.294  20.689  31.913 -0.2850 -0.1392  0.0002
29864W        W72802   3.499  22.202   1.098  0.0836  0.0442  0.2485
29865W        W72803   4.779  19.295   0.528 -0.0003  0.3249  0.3784
29866W        W72804   5.568  20.204  31.457 -0.3715 -0.1915  0.2734
29867W        W72805   4.894  21.607  31.376  0.0910  0.2052 -0.2776
29868W        W72806   6.155  19.778   0.018 -0.1008 -0.0412 -0.0459
29869W        W72807   6.002  20.490   0.113 -0.2341 -0.1626 -0.0534
29870W        W72808   6.402  18.685   0.089 -0.0631 -0.1851 -0.1297
29871W        W72809   5.547  18.636  31.446  0.0259  0.1689 -0.1447
29872W        W72810   4.380  21.720  31.546  0.0146  0.2999  0.1853
29873W        W72811   4.662  18.309  30.897 -0.1050  0.0606  0.0269
29874W        W72812   7.315  21.992   0.124 -0.0555  0.0324 -0.0228
29875W        W72813   6.864  19.489   0.543 -0.2911 -0.1004  0.2046
29876W        W72814   5.628  20.907   0.695  0.0428 -0.5793 -0.1169
29877W        W72815   8.491  18.867  31.219  0.2226 -0.0861  0.2186
29878W        W72816   6.048  20.065   0.426 -0.0513 -0.0161 -0.2129
29879W        W72817   5.151  18.246  30.072 -0.1204  0.2010 -0.0615
29880W        W72818   4.311  19.787  31.405  0.0501 -0.1503 -0.2667
29881W        W72819   4.312  20.088   0.014 -0.1182  0.1267  0.0988
29882W        W72820   5.893  18.932   0.317  0.0465 -0.0031  0.1127
29883W        W72821   4.929  20.534   2.187  0.1100  0.3350  0.1519
29884W        W72822   4.939  20.105   0.014  0.2075  0.4168 -0.0478
29885W        W72823   8.179  22.392   0.805  0.0097 -0.1040  0.1004
29886W        W72824   3.730  21.634  31.110  0.2678 -0.2403  0.0614
29887W        W72825   4.980  21.111  31.510 -0.1772  0.4233  0.2780
29888W        W72826   8.041  18.206  30.773  0.0459 -0.0558 -0.1746
29889W        W72827   5.653  19.772   0.367 -0.3721  0.0953 -0.1304
29890W        W72828   5.208  19.879  31.562 -0.2613  0.0129 -0.0057
29891W        W72829   7.682  18.905  31.678 -0.2984 -0.3283 -0.1205
29892W        W72830   7.178  19.090   0.392  0.0524 -0.1735 -0.0110
29893W        W72831   6.185  21.415  31.466  0.2233 -0.0326 -0.0322
29894W        W72832   4.605  21.745  30.055  0.0472  0.1575 -0.1371
29895W        W72833   5.195  22.513  31.520  0.1721 -0.0843  0.1845
29896W        W72834   4.908  19.142  31.979  0.0703  0.1027 -0.1894
29897W        W72835   2.878  19.282  31.533  0.0072  0.3477 -0.0019
29898W        W72836   3.993  21.185  31.909 -0.2331 -0.0258 -0.0558
29899W        W72837   3.472  22.434  31.360 -0.0343  0.0693 -0.2923
29900W        W72838   4.173  17.909   0.481 -0.0017  0.0910 -0.0952
29901W        W72839   5.566  21.977  31.965 -0.0612 -0.1344  0.0681
29902W        W72840   6.334  20.798   0.327  0.2183 -0.1991  0.1914
29903W        W72841   8.101  21.371  31.816 -0.2280  0.3921 -0.1885
29904W        W72842   3.349  24.871  20.855  0.2461 -0.2723 -0.1176
29905W        W72843   5.302  24.215  18.599  0.2248  0.1115 -0.0871
29906W        W72844   5.170  22.791  16.231  0.0589  0.0204  0.0760
29907W        W72845   7.940  23.548  16.963  0.1110  0.0654  0.0404
29908W        W72846   4.449  22.460  17.933  0.1940  0.0896  0.2274
29909W        W72847   6.371  25.079  16.940 -0.0852 -0.1221  0.5175
29910W        W72848   4.366  22.337  17.395  0.0559  0.0443  0.1905
29911W        W72849   7.087  24.898  19.451 -0.2225 -0.0505 -0.0818
29912W        W72850   6.282  25.612  18.695 -0.0198  0.1989  0.0855
29913W        W72851   5.028  23.917  16.683 -0.2745 -0.1157  0.0338
29914W        W72852   5.306  24.160  18.079 -0.0013  0.0178  0.1570
29915W        W72853   4.623  25.693  18.831 -0.1296 -0.1654 -0.0002
29916W        W72854   5.610  22.014  16.573  0.1904  0.1677  0.0373
29917W        W72855   4.255  21.930  17.029 -0.2857  0.0770  0.2527
29918W        W72856   5.951  24.851  18.217  0.1366 -0.0961  0.1442
29919W        W72857   4.251  24.083  18.197 -0.1952 -0.3263 -0.0179
29920W        W72858   4.345  23.099  18.163  0.0976 -0.0511 -0.0257
29921W        W72859   4.432  23.154  18.874 -0.3042  0.0276  0.5107
29922W        W72860   5.919  25.561  17.340 -0.0391  0.3576  0.1848
29923W        W72861   5.947  23.662  20.034  0.2318  0.0988 -0.1945
29924W        W72862   7.128  23.254  19.190 -0.1466  0.2668 -0.0158
29925W        W72863   6.418  25.083  17.482  0.2443  0.0347  0.1050
29926W        W72864   3.462  24.207  17.048  0.0738 -0.0609  0.3023
29927W        W72865   2.846  23.294  16.895  0.1227 -0.1204  0.1560
29928W        W72866   3.789  23.053  19.378 -0.3526  0.0433  0.0145
29929W        W72867   5.636  23.203  18.236 -0.3371  0.2255 -0.0105
29930W        W72868   7.236  23.070  18.183  0.2408  0.4667 -0.1027
29931W        W72869   5.403  26.284  17.993 -0.2134  0.5163 -0.3167
29932W        W72870   5.938  26.000  17.575 -0.1545 -0.0750  0.0586
29933W        W72871   5.953  23.404  18.599  0.0420 -0.2736  0.3747
29934W        W72872   4.882  24.531  18.553 -0.1531  0.1907 -0.1097
29935W        W72873   4.832  24.845  17.437  0.3573 -0.1442  0.3774
29936W        W72874   5.643  24.621  17.109 -0.1499 -0.0101  0.2736
29937W        W72875   5.912  22.750  18.527 -0.0892 -0.4722  0.3559
29938W        W72876   7.685  24.524  19.184 -0.0128  0.4533  0.2138
29939W        W72877   3.621  24.972  19.582  0.0360 -0.2960  0.1124
29940W        W72878   5.093  24.643  17.012 -0.0537 -0.0012  0.1755
29941W        W72879   4.646  25.029  20.643  0.1868  0.1482 -0.1062
29942W        W72880   4.270  24.254  19.049 -0.1291 -0.2402  0.0792
29943W        W72881   5.836  25.386  19.296 -0.0843 -0.0549 -0.3600
29944W        W72882   6.491  23.530  17.388 -0.1948 -0.0760 -0.0653
29945W        W72883   4.190  22.894  17.771 -0.0902 -0.1334  0.0740
29946W        W72884   5.369  25.174  19.899  0.0787  0.1284 -0.3117
29947W        W72885   4.709  23.283  20.521 -0.2704  0.2144 -0.1268
29948W        W72886   2.910  24.589  18.254  0.3225  0.5259  0.2063
29949W        W72887   7.488  22.625  18.098  0.1163 -0.2388 -0.1526
29950W        W72888   4.884  23.142  16.582  0.0225  0.4114  0.1180
29951W        W72889   6.346  22.221  16.221  0.1830  0.4276  0.1213
29952W        W72890   6.801  22.135  16.529  0.1611  0.2367 -0.0568
29953W        W72891   5.773  22.453  16.987 -0.1625 -0.1816  0.1061
29954W        W72892   5.416  22.992  17.764  0.1066  0.0586 -0.0454
29955W        W72893   5.606  24.649  17.793 -0.2679 -0.2985 -0.0848
29956W        W72894   4.448  23.011  19.342  0.1941  0.3248 -0.0018
29957W        W72895   7.996  24.518  18.799 -0.1893 -0.0349 -0.1291
29958W        W72896   6.506  23.851  17.021 -0.3111  0.0483 -0.0266
29959W        W72897   5.796  22.895  17.428 -0.2214 -0.2167  0.1481
29960W        W72898   3.679  25.071  19.073 -0.2855 -0.0867 -0.1483
29961W        W72899   2.687  23.262  19.417  0.1022  0.0340 -0.2774
29962W        W72900   6.393  25.266  15.749 -0.0723 -0.0693 -0.1266
29963W        W72901   6.761  25.492  18.800  0.3966 -0.1980 -0.0968
29964W        W72902   5.388  23.167  16.508 -0.3681 -0.2008  0.3081
29965W        W72903   4.208  22.824  17.228  0.0393  0.0279 -0.0836
29966W        W72904   3.160  24.531  19.641  0.0592  0.0104  0.0865
29967W        W72905   3.069  22.634  20.082  0.5117 -0.2229 -0.0524
29968W        W72906   4.313  22.455  16.867 -0.0825 -0.0480 -0.3478
29969W        W72907   6.998  24.018  19.060  0.0271 -0.2439  0.2956
29970W        W72908   3.176  25.164  19.519 -0.1468 -0.0985 -0.0131
29971W        W72909   7.534  22.834  16.903 -0.0295 -0.0502 -0.0583
29972W        W72910   5.706  23.839  18.830  0.3116 -0.0783  0.0910
29973W        W72911   7.195  24.753  17.470 -0.2074  0.2176  0.0872
29974W        W72912   5.924  23.129  15.812 -0.1545  0.4069  0.0967
29975W        W72913   6.944  23.563  18.370  0.1382  0.1291 -0.1749
29976W        W72914   5.299  22.574  17.330 -0.1173 -0.0954 -0.1565
29977W        W72915   3.957  22.289  17.142  0.1648 -0.1964  0.0736
29978W        W72916   4.299  23.690  17.244  0.1571  0.0259 -0.3298
29979W        W72917   7.132  24.588  19.071  0.0294  0.0954 -0.3863
29980W        W72918   6.623  23.497  15.863  0.1856 -0.1584  0.1321
29981W        W72919   4.142  25.213  18.143  0.0652  0.0765 -0.2973
29982W        W72920   6.240  23.700  18.922 -0.1955 -0.0145 -0.0284
29983W        W72921   5.786  25.051  20.305 -0.0307  0.1284  0.3724
29984W        W72922   4.288  23.327  16.176 -0.0575  0.2766 -0.1349
29985W        W72923   3.980  25.439  18.994 -0.2765 -0.0422 -0.1424
29986W        W72924   3.480  24.032  16.131  0.0066  0.0489  0.2240
29987W        W72925   2.893  22.835  19.673  0.2610  0.1575  0.1743
29988W        W72926   4.489  24.904  18.405  0.1066  0.1033  0.0331
29989W        W72927   7.188  21.938  15.729 -0.3265 -0.0680 -0.1684
29990W        W72928   3.457  23.690  20.079  0.0018  0.2328 -0.1208
29991W        W72929   6.984  22.761  17.031 -0.1625 -0.0578 -0.3440
29992W        W72930   3.801  24.595  17.274  0.1539 -0.1330  0.1098
29993W        W72931   7.817  25.349  16.976 -0.1410 -0.0371 -0.2989
29994W        W72932   6.157  22.676  16.461  0.3929 -0.0372 -0.0432
29995W        W72933   5.914  24.734  16.191 -0.1823  0.0172  0.1212
29996W        W72934   3.916  24.890  17.750 -0.2653  0.0294 -0.0998
29997W        W72935   5.194  23.364  18.056  0.0076  0.1717  0.0583
29998W        W72936   5.995  23.168  20.061  0.0505 -0.2463  0.0572
29999W        W72937   3.031  22.683  19.184  0.1675  0.0849  0.0422
30000W        W72938   6.340  24.462  19.763 -0.1176 -0.1571 -0.3003
30001W        W72939   3.978  22.654  16.510 -0.1181 -0.0658 -0.0283
30002W        W72940   6.025  23.827  17.134  0.0733  0.0555 -0.0949
30003W        W72941   4.748  24.088  18.235 -0.0692  0.0089 -0.0967
30004W        W72942   3.932  23.652  18.084  0.0911  0.2147 -0.1963
30005W        W72943   6.930  22.512  18.356  0.2450  0.0678 -0.1511
30006W        W72944   5.463  24.929  16.611 -0.0544 -0.0751  0.2395
30007W        W72945   7.409  25.325  20.748  0.0378  0.0837 -0.0848
30008W        W72946   6.998  26.514  16.471 -0.1571 -0.1440 -0.3133
30009W        W72947   3.531  23.855  20.558 -0.0385 -0.1938 -0.1295
30010W        W72948   4.392  21.836  15.744 -0.2359 -0.0690  0.4199
30011W        W72949   3.861  26.029  17.460 -0.0080 -0.2209  0.0481
30012W        W72950   5.441  25.105  17.461  0.2504 -0.1433  0.2299
30013W        W72951   5.100  23.089  17.165  0.0034  0.0514 -0.1357
30014W        W72952   6.700  25.393  18.295  0.1382 -0.0024  0.1813
30015W        W72953   7.493  24.415  17.798 -0.0562 -0.2384 -0.1996
30016W        W72954   5.371  25.517  19.506  0.0879  0.0641 -0.0419
30017W        W72955   5.991  22.698  19.153 -0.0965  0.0853 -0.1533
30018W        W72956   7.418  22.495  18.620  0.2161  0.1655  0.2941
30019W        W72957   5.821  23.518  16.766  0.0543  0.0841 -0.1054
30020W        W72958   3.700  20.612  16.473  0.1477 -0.0906 -0.3103
30021W        W72959   6.275  25.592  17.756 -0.1240  0.0886  0.3239
30022W        W72960   4.632  24.081  17.718  0.0646  0.0905  0.0275
30023W        W72961   5.149  25.031  18.454  0.4369 -0.1220  0.1179
30024W        W72962   5.791  24.247  18.403  0.0588  0.0085  0.0128
30025W        W72963   7.863  22.304  18.119 -0.2317  0.2110  0.1071
30026W        W72964   3.712  21.706  19.543  0.1529 -0.1145  0.4099
30027W        W72965   5.650  23.985  19.385  0.0317 -0.0041 -0.1172
30028W        W72966   4.212  23.551  16.667 -0.0091  0.0901  0.1512
30029W        W72967   3.637  24.407  19.733  0.2399 -0.1657  0.3437
30030W        W72968   5.473  21.287  18.099  0.1047 -0.1741  0.1885
30031W        W72969   8.366  22.603  16.477 -0.3629  0.1598  0.0230
30032W        W72970   5.073  23.874  19.107 -0.0844 -0.2223 -0.2304
30033W        W72971   4.930  23.617  17.406  0.1536  0.1497 -0.0806
30034W        W72972   5.712  24.100  16.778 -0.0770 -0.1792  0.0077
30035W        W72973   6.451  21.780  16.498 -0.0251 -0.0141 -0.0192
30036W        W72974   3.519  22.664  19.259  0.3500  0.2056 -0.0232
30037W        W72975   6.077  23.705  17.632  0.3620 -0.0483  0.2516
30038W        W72976   5.966  25.782  19.678 -0.1613  0.2268 -0.0639
30039W        W72977   4.849  22.142  16.512 -0.2066  0.1518 -0.1200
30040W        W72978   6.007  24.136  17.986  0.4250 -0.0477  0.4061
30041W        W72979   5.092  23.712  19.598 -0.2034 -0.1804 -0.0269
30042W        W72980   4.853  26.014  20.939  0.3399 -0.2001  0.2207
30043W        W72981   4.888  26.185  17.320 -0.0250  0.3068 -0.5342
30044W        W72982   4.198  23.450  19.494  0.2341  0.4094  0.2926
30045W        W72983   5.593  21.863  17.087 -0.0518  0.2167  0.3551
30046W        W72984   5.431  22.438  17.813  0.4161 -0.1053 -0.1004
30047W        W72985   4.231  24.678  16.906 -0.1790  0.0486 -0.1886
30048W        W72986   7.556  21.816  17.738  0.0386 -0.2636  0.0952
30049W        W72987   8.196  23.269  17.750  0.1763 -0.3896 -0.0893
30050W        W72988   5.063  22.433  18.158  0.3429 -0.0773 -0.0353
30051W        W72989   6.522  23.432  17.925  0.2497  0.0811  0.1299
30052W        W72990   7.025  22.590  17.858  0.1625  0.0555  0.1593
30053W        W72991   8.050  24.314  18.125  0.0550  0.0403 -0.4193
30054W        W72992   5.561  23.071  16.957 -0.0056  0.1212  0.0836
30055W        W72993   6.143  24.078  19.550 -0.0562  0.0171 -0.0260
30056W        W72994   3.678  22.576  20.263  0.3459 -0.1039  0.2019
30057W        W72995   2.628  25.031  19.332 -0.0091  0.1598  0.3300
30058W        W72996   4.893  25.879  18.382 -0.3487  0.0353  0.0506
30059W        W72997   6.108  25.320  18.234  0.0775  0.1746  0.0870
30060W        W72998   5.579  23.801  17.819  0.1650  0.0293  0.0571
30061W        W72999   6.075  22.913  16.893  0.0381  0.3777 -0.2886
30062W        W73000   5.694  25.240  17.032  0.0965 -0.2983  0.0035
30063W        W73001   5.278  24.513  17.469  0.0184 -0.0879  0.0320
30064W        W73002   6.120  22.308  18.842  0.1588 -0.1756  0.3676
30065W        W73003   5.478  25.274  18.963 -0.2462 -0.1807 -0.0433
30066W        W73004   2.695  23.821  17.254  0.0143  0.1184 -0.0363
30067W        W73005   6.092  24.510  19.231  0.0484 -0.0109  0.0450
30068W        W73006   4.552  25.335  17.179 -0.0167  0.2506  0.1845
30069W        W73007   5.869  22.724  17.925 -0.1210 -0.3305 -0.3173
30070W        W73008   3.301  25.002  18.322  0.1213  0.3906 -0.1425
30071W        W73009   4.539  23.561  17.840  0.2615 -0.3486  0.0884
30072W        W73010   4.366  23.023  16.680  0.1983  0.2181  0.1252
30073W        W73011   5.565  22.412  19.082  0.0130  0.1065 -0.1496
30074W        W73012   7.181  23.317  16.800 -0.0400  0.2335 -0.1319
30075W        W73013   3.887  24.332  16.830 -0.0766 -0.2006 -0.0509
30076W        W73014   4.812  22.850  18.131 -0.0385  0.2638  0.2477
30077W        W73015   3.731  26.094  18.596 -0.3120 -0.1638  0.0732
30078W        W73016   6.426  24.505  18.812  0.1888 -0.0190 -0.0349
30079W        W73017   7.971  22.840  16.589 -0.1158  0.0364 -0.1121
30080W        W73018   6.653  24.531  19.302  0.0721 -0.3906  0.3995
30081W        W73019   5.244  24.682  19.808 -0.0815 -0.0149  0.4552
30082W        W73020   2.464  23.372  17.207 -0.1667 -0.2687  0.1610
30083W        W73021   7.953  22.638  17.710  0.0815  0.1773  0.0380
30084W        W73022   4.711  23.495  19.376  0.0248  0.0535  0.0563
30085W        W73023   4.964  24.904  19.067 -0.2379 -0.3508  0.3857
30086W        W73024   6.166  24.769  17.751  0.4349  0.1117  0.0472
30087W        W73025   4.222  24.462  17.601 -0.2148  0.1885  0.0326
30088W        W73026   3.122  25.643  18.562 -0.0828 -0.0942  0.1027
30089W        W73027   4.747  24.170  21.017  0.0018 -0.3807  0.0498
30090W        W73028   6.432  23.657  19.873  0.1221 -0.2778  0.0011
30091W        W73029   5.339  22.774  19.279  0.4315 -0.0751 -0.1151
30092W        W73030   3.503  23.208  18.995 -0.0675 -0.0924  0.0893
30093W        W73031   6.307  23.031  17.668  0.0353  0.0789  0.1602
30094W        W73032   6.003  25.278  20.742 -0.1010 -0.2751 -0.0546
30095W        W73033   5.564  23.824  18.365  0.0050 -0.3425  0.0856
30096W        W73034   5.316  24.972  19.393  0.0488 -0.3256  0.0528
30097W        W73035   6.170  22.273  17.802  0.2503  0.1917  0.0794
30098W        W73036   7.314  25.527  17.048 -0.2507 -0.0088  0.0380
30099W        W73037   6.397  25.895  19.994  0.3125  0.2487  0.3580
30100W        W73038   4.490  25.849  17.408  0.1011 -0.2272 -0.2425
30101W        W73039   4.359  24.426  18.599 -0.1072 -0.0798  0.2360
30102W        W73040   6.205  26.161  18.041  0.1056 -0.3378  0.1023
30103W        W73041   5.358  23.454  18.688 -0.0287 -0.0114 -0.0264
30104W        W73042   5.541  25.630  17.673  0.3730 -0.2382  0.1605
30105W        W73043   3.049  24.694  18.731 -0.3769 -0.0271 -0.2346
30106W        W73044   3.765  25.701  19.390 -0.1864 -0.1795 -0.2164
30107W        W73045   7.069  22.724  15.978 -0.1888 -0.4873 -0.2021
30108W        W73046   5.980  23.358  17.289 -0.0302 -0.0762 -0.0391
30109W        W73047   5.447  23.433  17.416  0.1068 -0.0556 -0.5440
30110W        W73048   7.928  21.444  17.807 -0.1679 -0.0384  0.1131
30111W        W73049   5.256  23.452  16.893 -0.2076 -0.0337  0.2123
30112W        W73050   6.478  22.749  19.172 -0.1861 -0.0433  0.1800
30113W        W73051   3.019  21.236  20.491  0.1216  0.1742  0.0528
30114W        W73052   6.786  23.104  18.340 -0.0061  0.2946  0.1022
30115W        W73053   4.271  23.337  20.835  0.0811  0.1186  0.1821
30116W        W73054   4.684  25.914  19.937 -0.1971  0.1770 -0.0127
30117W        W73055   4.282  22.749  20.248  0.0028 -0.0147  0.0731
30118W        W73056   6.551  22.993  17.142  0.0869  0.4964 -0.0521
30119W        W73057   3.940  21.180  16.407 -0.2071  0.1049  0.0611
30120W        W73058   4.627  24.008  18.709  0.1176  0.3475 -0.4125
30121W        W73059   6.480  23.437  19.353  0.0140 -0.1499  0.1802
30122W        W73060   5.595  23.969  17.321  0.0166  0.1075  0.2278
30123W        W73061   7.001  23.907  17.247 -0.1852  0.0058 -0.0382
30124W        W73062   5.449  24.680  18.261 -0.0231  0.0228 -0.2679
30125W        W73063   7.471  22.692  17.447 -0.1459  0.3123  0.3178
30126W        W73064   4.600  24.007  16.317  0.2633 -0.1016 -0.1246
30127W        W73065   4.415  24.825  18.910  0.3519 -0.2474 -0.0297
30128W        W73066   3.947  23.376  19.046  0.1673  0.0387 -0.0255
30129W        W73067   6.780  22.897  17.617  0.3779 -0.0462  0.1953
30130W        W73068   4.769  23.504  18.834 -0.2775  0.0189 -0.1145
30131W        W73069   6.683  24.604  20.237 -0.0932  0.0509 -0.0586
30132W        W73070   7.030  22.667  19.261  0.1287 -0.1612  0.1692
30133W        W73071   4.781  23.328  18.287 -0.2127  0.3444  0.0107
30134W        W73072   5.426  21.533  20.260  0.2849 -0.1261 -0.2009
30135W        W73073   6.316  25.427  19.703  0.0824 -0.1114 -0.0848
30136W        W73074   7.522  22.758  16.365  0.2864 -0.0789  0.1336
30137W        W73075   7.606  23.018  17.783 -0.0968 -0.1200 -0.3847
30138W        W73076   7.071  24.056  16.708  0.1015 -0.2737 -0.0861
30139W        W73077   4.029  23.226  17.002  0.0877  0.0336  0.3601
30140W        W73078   4.589  23.153  19.829 -0.3699  0.1021  0.0742
30141W        W73079   6.201  23.080  20.560 -0.0549  0.1051  0.1561
30142W        W73080   5.285  21.706  16.293  0.1829  0.3233 -0.1429
30143W        W73081   6.323  24.031  20.191  0.3567 -0.0327 -0.0105
30144W        W73082   5.491  25.173  16.103 -0.0534  0.1019 -0.3267
30145W        W73083   6.508  24.077  17.454  0.3279 -0.0639 -0.1692
30146W        W73084   7.834  22.887  16.036  0.1969  0.0258  0.2471
30147W        W73085   3.295  23.187  18.502  0.0931 -0.1062  0.2038
30148W        W73086   3.779  25.277  20.780  0.1059 -0.1973 -0.1690
30149W        W73087   3.396  23.031  16.246  0.0137 -0.0267  0.3309
30150W        W73088   4.567  24.444  17.226  0.1554  0.1086  0.1730
30151W        W73089   5.491  25.270  18.077 -0.3163  0.3067  0.0532
30152W        W73090   7.330  23.391  19.904  0.0153 -0.2027 -0.1699
30153W        W73091   5.545  21.353  17.082  0.1542  0.0351 -0.1159
30154W        W73092   7.059  21.990  18.477 -0.1564 -0.2241 -0.1561
30155W        W73093   3.417  23.891  16.624  0.1182  0.2357  0.1124
30156W        W73094   5.830  23.238  17.748 -0.1199  0.1857 -0.1587
30157W        W73095   3.651  25.260  18.118  0.2935 -0.0221  0.1983
30158W        W73096   3.057  23.577  19.651 -0.1542  0.2575  0.0153
30159W        W73097   5.120  27.088  17.004 -0.2907  0.3686  0.1420
30160W        W73098   6.531  23.980  18.088  0.0126  0.0055 -0.2495
30161W        W73099   7.379  22.986  19.575 -0.0489  0.4465  0.1203
30162W        W73100   5.042  25.412  19.149  0.1260 -0.1968  0.0391
30163W        W73101   7.790  23.047  20.198  0.0010  0.3037 -0.0508
30164W        W73102   6.381  25.696  20.550  0.1724 -0.0865  0.0782
30165W        W73103   3.235  23.152  19.385 -0.1480 -0.1131  0.2471
30166W        W73104   5.084  25.524  20.625  0.1891  0.5467  0.1650
30167W        W73105   6.812  23.666  16.682  0.0015 -0.2509  0.0446
30168W        W73106   4.453  23.698  18.386  0.2532  0.1246  0.0382
30169W        W73107   2.731  21.894  19.903  0.0231  0.2181  0.0270
30170W        W73108   6.510  23.143  20.137 -0.0693  0.2815  0.4320
30171W        W73109   6.545  23.030  16.621  0.0517 -0.1778  0.0893
30172W        W73110   3.763  22.676  16.950 -0.1387 -0.0463  0.0521
30173W        W73111   5.225  24.170  17.090 -0.0520 -0.2141 -0.1845
30174W        W73112   3.946  24.092  20.694 -0.0635 -0.1585  0.3018
30175W        W73113   3.539  23.911  19.667  0.0553 -0.0737 -0.1284
30176W        W73114   4.233  24.754  16.070  0.1061 -0.0662 -0.1345
30177W        W73115   6.584  24.083  16.585 -0.2473  0.2173 -0.0718
30178W        W73116   4.531  23.195  17.389 -0.1655  0.0537  0.2386
30179W        W73117   5.781  24.916  19.174 -0.3576  0.2040 -0.1505
30180W        W73118   4.752  23.353  16.980 -0.2004 -0.0148  0.3081
30181W        W73119   3.951  25.673  18.379  0.0877 -0.1408  0.1366
30182W        W73120   3.898  24.857  16.462 -0.0341 -0.2055  0.1686
30183W        W73121   5.284  24.358  16.642  0.4426 -0.0232  0.2014
30184W        W73122   4.359  26.131  16.388 -0.0775 -0.0385 -0.0134
30185W        W73123   6.449  24.944  20.551  0.0942  0.0029  0.2575
30186W        W73124   7.317  23.149  16.118 -0.0704 -0.0292 -0.2649
30187W        W73125   8.411  24.042  18.564  0.4130 -0.1978  0.4448
30188W        W73126   8.774  23.279  17.644  0.0614 -0.1134  0.1060
30189W        W73127   5.080  25.604  19.905  0.3732 -0.1786 -0.3645
30190W        W73128   6.110  24.176  18.862  0.0792  0.1679  0.1542
30191W        W73129   5.825  22.361  16.319 -0.3820 -0.2052  0.2461
30192W        W73130   5.728  24.130  19.945 -0.0670  0.0026  0.4289
30193W        W73131   6.754  22.246  19.495 -0.1336  0.0505  0.2393
30194W        W73132   3.447  25.690  20.710  0.1824  0.0086 -0.2155
30195W        W73133   6.003  24.300  16.411  0.1699  0.2007 -0.0102
30196W        W73134   3.674  21.931  17.837  0.0144  0.2156 -0.0258
30197W        W73135   5.979  24.665  18.710 -0.2532  0.3341  0.0121
30198W        W73136   7.649  22.639  19.901  0.2118 -0.2263  0.1051
30199W        W73137   4.996  23.784  16.142 -0.1901 -0.0664  0.2601
30200W        W73138   6.231  23.100  18.300  0.0692 -0.0890  0.2656
30201W        W73139   4.708  25.384  16.683  0.0800  0.3066  0.0072
30202W        W73140   4.440  25.749  18.236  0.0565  0.0015 -0.1185
30203W        W73141   6.843  25.667  17.915  0.4948 -0.0129  0.1639
30204W        W73142   3.512  22.215  16.870  0.2661  0.0084  0.2809
30205W        W73143   8.368  22.503  17.961 -0.1788 -0.0452  0.0527
30206W        W73144   4.827  24.082  20.343 -0.0646 -0.1978  0.0546
30207W        W73145   6.266  22.537  17.344 -0.3839  0.2412 -0.2079
30208W        W73146   3.032  23.116  18.965  0.4369 -0.1072  0.2339
30209W        W73147   6.609  22.519  16.841 -0.0083  0.0600  0.4383
30210W        W73148   7.280  24.545  16.993 -0.2159 -0.3520 -0.0118
30211W        W73149   3.930  21.608  18.253  0.1912 -0.2217  0.2148
30212W        W73150   5.193  23.012  18.434 -0.1167 -0.0886  0.2041
30213W        W73151   6.846  23.628  18.836  0.0351 -0.1747  0.2041
30214W        W73152   4.862  22.336  17.181  0.0674  0.3843  0.0861
30215W        W73153   5.846  26.227  20.512  0.0170 -0.0249 -0.1127
30216W        W73154   4.729  22.650  16.544  0.1013 -0.0873  0.0509
30217W        W73155   6.115  22.164  16.696  0.2279 -0.1867  0.1823
30218W        W73156   5.466  25.960  19.310  0.1910 -0.2426  0.1038
30219W        W73157   5.211  24.459  19.053 -0.1766  0.4566  0.2197
30220W        W73158   7.742  25.340  20.380 -0.2099  0.0479 -0.0583
30221W        W73159   5.669  22.739  16.613 -0.0240 -0.1412  0.2538
30222W        W73160   6.332  24.938  16.357 -0.0411 -0.0325  0.2966
30223W        W73161   5.513  22.875  19.973 -0.0679 -0.0387 -0.1362
30224W        W73162   4.766  24.942  15.997  0.1400 -0.1198 -0.0938
30225W        W73163   6.131  23.852  16.590 -0.0549  0.3581 -0.1228
30226W        W73164   5.798  26.369  18.287  0.0668 -0.0758  0.1056
30227W        W73165   3.344  25.475  19.186  0.5185 -0.1368  0.2624
30228W        W73166   6.615  24.018  18.639  0.0689 -0.1172 -0.3542
30229W        W73167   7.067  23.987  18.205 -0.1826 -0.2186 -0.2518
30230W        W73168   4.273  21.971  17.707 -0.2858 -0.1833  0.0603
30231W        W73169   3.838  22.939  18.593  0.0738  0.3137 -0.2152
30232W        W73170   4.674  24.370  16.695 -0.2237  0.0323  0.0738
30233W        W73171   7.633  23.225  19.191 -0.0894 -0.2352 -0.1542
30234W        W73172   6.462  23.534  18.499 -0.0844 -0.2492 -0.1450
30235W        W73173   5.978  24.733  16.648  0.2601  0.0798  0.2502
30236W        W73174   7.004  22.385  18.870 -0.2294 -0.0903  0.0469
30237W        W73175   3.806  24.223  19.216  0.1477  0.2488 -0.1392
30238W        W73176   3.365  24.195  20.116 -0.1368 -0.3817  0.2947
30239W        W73177   4.543  24.961  17.864 -0.1038  0.0816 -0.1628
30240W        W73178   4.485  25.377  19.800  0.1641 -0.1538  0.3488
30241W        W73179   4.881  24.476  17.909 -0.0584  0.1033 -0.2067
30242W        W73180   5.649  26.023  17.100 -0.1025  0.0271 -0.1838
30243W        W73181   7.245  22.363  16.473 -0.1016 -0.1910  0.1069
30244W        W73182   4.634  22.748  17.547  0.3004  0.1634 -0.0531
30245W        W73183   7.129  23.337  17.706 -0.1186  0.0111 -0.1753
30246W        W73184   4.903  22.309  17.686 -0.1494 -0.1215 -0.1699
30247W        W73185   6.855  22.251  16.042  0.3300  0.2713  0.1784
30248W        W73186   5.300  21.895  17.858  0.1864 -0.0743 -0.1206
30249W        W73187   5.185  24.959  17.955  0.0109  0.2640  0.1377
30250W        W73188   2.881  23.238  16.390  0.2924  0.2236 -0.0469
30251W        W73189   4.247  24.022  16.864 -0.0782  0.1136 -0.4597
30252W        W73190   3.905  24.141  20.040 -0.2334 -0.1800 -0.0496
30253W        W73191   6.614  23.176  18.871  0.3220  0.1939 -0.1591
30254W        W73192   3.495  22.826  19.758 -0.1782  0.0713  0.1516
30255W        W73193   3.544  23.899  17.744 -0.1212 -0.2721  0.1109
30256W        W73194   3.980  22.076  16.678  0.0747  0.0637  0.2157
30257W        W73195   6.170  24.269  16.935  0.2730 -0.2110  0.2305
30258W        W73196   3.479  22.652  18.781 -0.3883 -0.0073  0.0462
30259W        W73197   4.672  22.818  17.014 -0.1566 -0.0134  0.0589
30260W        W73198   6.359  24.594  17.301 -0.3154  0.0633  0.2330
30261W        W73199   6.488  24.926  18.164  0.2798 -0.2591  0.0743
30262W        W73200   4.257  21.526  16.618  0.2244  0.0795  0.1151
30263W        W73201   6.926  23.462  20.202 -0.4805  0.0230 -0.3174
30264W        W73202   4.773  23.976  17.093  0.0598  0.2134 -0.1205
30265W        W73203   5.824  24.652  19.898  0.0541 -0.1835 -0.1099
30266W        W73204   5.299  23.252  19.449  0.0270 -0.2430  0.1063
30267W        W73205   3.909  22.910  16.055 -0.0865  0.2040 -0.0565
30268W        W73206   4.957  23.792  17.892  0.0030  0.1628 -0.3090
30269W        W73207   6.771  24.310  17.067  0.0602 -0.2614 -0.0618
30270W        W73208   6.978  26.559  17.965 -0.2364 -0.0133  0.1886
30271W        W73209   3.990  25.428  21.310 -0.0405 -0.1328  0.0376
30272W        W73210   5.097  26.305  19.134  0.1265  0.1723 -0.1453
30273W        W73211   4.224  22.226  19.586  0.2423 -0.1924  0.0354
30274W        W73212   6.322  23.387  16.906  0.1970 -0.2115 -0.4131
30275W        W73213   5.615  24.509  19.466  0.0667  0.5104 -0.1667
30276W        W73214   6.496  24.634  16.766  0.0573  0.1565 -0.2533
30277W        W73215   8.246  21.924  18.183  0.0735 -0.2224 -0.1362
30278W        W73216   5.181  22.712  16.839  0.0491  0.3081  0.0395
30279W        W73217   5.316  21.644  19.152 -0.0363  0.1612  0.1306
30280W        W73218   3.394  24.695  20.094 -0.2146 -0.3400 -0.2809
30281W        W73219   6.856  23.749  17.729  0.0376 -0.1788  0.1185
30282W        W73220   4.093  23.335  18.553  0.2212  0.3801  0.2556
30283W        W73221   7.484  22.319  17.708 -0.3487 -0.0494  0.0119
30284W        W73222   6.476  25.086  18.628 -0.3992  0.0009  0.1838
30285W        W73223   3.957  24.649  18.890 -0.0496 -0.1828  0.3422
30286W        W73224   5.953  23.164  16.451 -0.1127  0.2552  0.1070
30287W        W73225   5.999  25.250  18.841  0.0424  0.3198  0.0776
30288W        W73226   6.279  24.892  19.093 -0.1561 -0.1551  0.0899
30289W        W73227   6.819  23.979  20.159  0.1762  0.0231 -0.3143
30290W        W73228   3.309  23.365  16.602 -0.2825  0.0697  0.1877
30291W        W73229   7.974  24.060  17.122  0.0133  0.1927 -0.0499
30292W        W73230   6.855  26.328  19.102 -0.1200 -0.0846  0.2925
30293W        W73231   7.357  24.581  19.684  0.1859 -0.2740  0.2011
30294W        W73232   7.008  25.366  19.707 -0.1670 -0.0979 -0.3224
30295W        W73233   7.362  23.148  17.308  0.1993  0.1830  0.2212
30296W        W73234   3.502  23.143  17.084 -0.0091 -0.2011  0.0045
30297W        W73235   3.938  23.957  16.413  0.0326 -0.0714 -0.1618
30298W        W73236   5.164  24.079  17.603  0.2519  0.3427 -0.0189
30299W        W73237   6.026  23.527  18.098  0.0118  0.2548  0.4147
30300W        W73238   3.492  23.402  17.617 -0.1544  0.1722 -0.0203
30301W        W73239   6.431  22.214  15.706  0.0802  0.2367 -0.1405
30302W        W73240   2.780  24.848  19.765  0.1846  0.1424 -0.0384
30303W        W73241   5.027  23.763  18.411 -0.0701 -0.1497 -0.1782
30304W        W73242   5.020  25.068  22.979 -0.2693  0.1207 -0.0306
30305W        W73243   4.694  22.787  22.406 -0.2362  0.2429 -0.0713
30306W        W73244   6.841  23.034  19.554  0.1396  0.1191  0.3435
30307W        W73245   7.321  23.461  20.490 -0.1469  0.2211  0.1171
30308W        W73246   2.637  23.082  22.515  0.1894  0.0577 -0.2512
30309W        W73247   6.056  24.082  22.664 -0.1810  0.3481  0.2078
30310W        W73248   4.481  21.873  23.449 -0.0621  0.2810  0.1927
30311W        W73249   5.281  24.187  20.586 -0.2062 -0.0137 -0.1149
30312W        W73250   7.792  24.246  21.067 -0.1105 -0.0165  0.2854
30313W        W73251   6.041  24.742  20.674  0.1976  0.0843 -0.1248
30314W        W73252   4.642  23.289  22.182  0.1350  0.1399 -0.0528
30315W        W73253   4.910  24.508  22.233  0.3749 -0.3103 -0.0563
30316W        W73254   6.120  22.115  19.269  0.0321  0.1202 -0.2353
30317W        W73255   4.389  22.551  22.029 -0.1229 -0.1770  0.1506
30318W        W73256   4.546  23.308  23.142  0.0648  0.0705  0.1279
30319W        W73257   2.726  24.272  20.999 -0.1930  0.2028  0.1150
30320W        W73258   4.650  24.097  21.989  0.0973  0.0313  0.0404
30321W        W73259   4.094  22.666  20.801  0.0939  0.3186 -0.0712
30322W        W73260   5.177  25.232  22.024 -0.1573  0.1661 -0.0925
30323W        W73261   4.732  21.552  24.424 -0.1389 -0.2605  0.1834
30324W        W73262   5.406  23.360  22.779 -0.1213  0.1117  0.2326
30325W        W73263   5.547  24.461  20.930  0.0078  0.1085 -0.1648
30326W        W73264   3.591  22.175  19.975  0.2009  0.1206 -0.1587
30327W        W73265   3.442  22.246  20.985  0.1554 -0.0401  0.1136
30328W        W73266   5.190  24.253  23.822 -0.1098  0.0131 -0.1667
30329W        W73267   5.654  22.604  21.461  0.0051 -0.3373 -0.1470
30330W        W73268   5.102  24.063  21.298 -0.0821  0.1376 -0.3355
30331W        W73269   5.187  24.839  22.413  0.1010 -0.2504 -0.0727
30332W        W73270   6.252  24.601  22.515 -0.0723 -0.0439  0.1419
30333W        W73271   7.087  23.952  23.555  0.0940  0.1599 -0.1040
30334W        W73272   3.656  24.506  21.397  0.0523 -0.1030 -0.0425
30335W        W73273   3.126  26.366  22.227  0.1259 -0.0676  0.1158
30336W        W73274   4.824  25.989  20.446 -0.1275 -0.0587 -0.0394
30337W        W73275   5.727  25.695  20.610  0.2022 -0.1092  0.2204
30338W        W73276   7.900  26.095  22.747  0.3070  0.0145  0.0208
30339W        W73277   5.447  25.507  23.502 -0.2539  0.2133 -0.1395
30340W        W73278   3.944  23.632  21.097 -0.1641  0.0443  0.0165
30341W        W73279   5.873  24.639  22.208  0.3511 -0.2538 -0.2465
30342W        W73280   5.375  24.222  23.322  0.1554 -0.4734  0.1868
30343W        W73281   5.967  23.168  22.691 -0.0976  0.1173 -0.0468
30344W        W73282   5.300  24.118  21.785  0.1838 -0.0639  0.1146
30345W        W73283   3.673  25.845  21.900 -0.1242 -0.0475  0.2261
30346W        W73284   5.091  23.567  20.522 -0.1556  0.0322  0.0531
30347W        W73285   5.850  25.310  24.220  0.4143  0.2230 -0.2403
30348W        W73286   3.308  24.947  22.427  0.1322 -0.4404 -0.0834
30349W        W73287   7.334  20.938  24.080  0.1688 -0.0556  0.1519
30350W        W73288   4.441  24.882  19.676 -0.1336  0.1457 -0.2134
30351W        W73289   5.555  23.081  18.949 -0.1975  0.0057 -0.0310
30352W        W73290   5.241  23.019  20.505  0.1369 -0.3350  0.0540
30353W        W73291   6.683  22.196  20.304 -0.0185 -0.0387 -0.1164
30354W        W73292   4.877  22.214  21.479  0.2200  0.1192 -0.1167
30355W        W73293   3.923  25.414  23.231 -0.0233 -0.0205 -0.3117
30356W        W73294   5.350  21.637  24.188  0.0268  0.1655  0.3409
30357W        W73295   4.910  24.320  23.055  0.1043  0.0288 -0.0205
30358W        W73296   4.586  22.432  21.035 -0.2449  0.0255 -0.2011
30359W        W73297   5.385  22.604  22.075  0.0832 -0.0824 -0.2421
30360W        W73298   4.619  24.755  23.137  0.0375 -0.3351 -0.3296
30361W        W73299   3.332  23.904  21.800 -0.0241 -0.1893  0.0422
30362W        W73300   6.096  24.922  19.567  0.1954  0.2677  0.0862
30363W        W73301   6.874  25.174  20.564 -0.0504 -0.3081  0.0676
30364W        W73302   6.500  25.343  20.885  0.0527  0.0641 -0.1998
30365W        W73303   3.930  23.523  20.505 -0.0509  0.0398 -0.3069
30366W        W73304   4.233  24.630  23.569 -0.1167  0.0406  0.0137
30367W        W73305   5.168  23.565  22.423  0.1885  0.3039  0.0122
30368W        W73306   5.576  23.601  19.689  0.0475  0.3274  0.1412
30369W        W73307   7.851  24.846  22.546  0.3273 -0.2929 -0.0506
30370W        W73308   3.159  24.351  22.777  0.0236 -0.0667  0.0703
30371W        W73309   6.228  22.416  20.350  0.1658 -0.3410 -0.2765
30372W        W73310   5.258  24.327  20.136 -0.2890 -0.0712 -0.4639
30373W        W73311   7.920  25.200  21.845 -0.2029 -0.0428  0.1111
30374W        W73312   6.590  25.979  18.853  0.0737  0.1300  0.1850
30375W        W73313   5.377  21.329  21.852 -0.1416 -0.1359 -0.1329
30376W        W73314   5.115  20.925  22.052 -0.3615  0.1738 -0.0274
30377W        W73315   3.557  22.746  20.697 -0.2749 -0.2202  0.0781
30378W        W73316   3.894  22.637  21.972 -0.2605  0.0770 -0.0462
30379W        W73317   7.644  24.453  22.958 -0.1508 -0.1593  0.0057
30380W        W73318   6.318  23.029  19.589 -0.0299  0.1646 -0.4077
30381W        W73319   3.136  23.867  22.807 -0.0588  0.1122 -0.1015
30382W        W73320   6.815  23.671  22.941  0.0522 -0.0420  0.2891
30383W        W73321   6.804  25.176  24.648  0.0005 -0.0229  0.0557
30384W        W73322   3.343  26.019  19.313 -0.0600 -0.1840 -0.0724
30385W        W73323   3.209  23.625  22.357 -0.1186  0.0724  0.2031
30386W        W73324   4.634  24.064  19.341  0.3363  0.0477 -0.0886
30387W        W73325   2.713  22.256  22.643 -0.2419 -0.1463 -0.1840
30388W        W73326   4.925  25.413  23.353  0.1541 -0.1149 -0.0550
30389W        W73327   7.418  21.138  19.146 -0.1453 -0.3480  0.0358
30390W        W73328   4.038  22.224  22.194 -0.0891  0.2016 -0.1432
30391W        W73329   7.094  22.316  21.447  0.2267 -0.2316  0.1196
30392W        W73330   4.307  26.024  21.077  0.0536  0.3201 -0.0563
30393W        W73331   4.774  26.008  21.442 -0.0694  0.2614  0.0754
30394W        W73332   5.735  23.103  19.590  0.0355  0.2147 -0.1141
30395W        W73333   5.781  25.839  21.501  0.3052 -0.0495 -0.0752
30396W        W73334   2.365  23.417  23.184 -0.0489  0.0003 -0.1102
30397W        W73335   4.622  22.144  22.987 -0.4244 -0.0895 -0.1461
30398W        W73336   3.468  22.243  23.758  0.1348  0.0631 -0.0888
30399W        W73337   3.552  22.766  23.539  0.0406 -0.2304 -0.2041
30400W        W73338   7.628  24.830  22.116 -0.0614  0.1789  0.0527
30401W        W73339   3.952  22.549  19.892 -0.0885  0.4089 -0.0786
30402W        W73340   6.091  23.162  22.189 -0.2487 -0.0035 -0.0050
30403W        W73341   5.637  23.904  20.900  0.2444 -0.2389  0.1563
30404W        W73342   3.720  23.982  21.508  0.1818 -0.2332  0.2115
30405W        W73343   6.515  21.558  22.871  0.0152  0.2845  0.1168
30406W        W73344   4.162  24.810  20.654 -0.0183  0.1555  0.1065
30407W        W73345   7.461  25.633  23.394 -0.0148 -0.2347 -0.2093
30408W        W73346   6.382  26.718  21.167 -0.0206  0.0160  0.2596
30409W        W73347   4.971  21.745  23.650 -0.2411 -0.1225  0.2062
30410W        W73348   4.037  22.241  21.078 -0.0851 -0.3065 -0.2915
30411W        W73349   4.752  25.206  21.113  0.1073  0.0175 -0.3430
30412W        W73350   4.606  24.774  21.516 -0.1083 -0.0197 -0.2039
30413W        W73351   2.219  22.350  20.412 -0.3337 -0.0426 -0.0683
30414W        W73352   5.129  24.961  20.935 -0.3842  0.1715 -0.3162
30415W        W73353   5.652  23.015  21.910  0.3395  0.3973  0.1784
30416W        W73354   2.915  23.613  24.021  0.1096 -0.0733  0.1024
30417W        W73355   6.756  20.541  23.716  0.1350  0.0189 -0.0648
30418W        W73356   7.474  23.688  21.349  0.1028 -0.1958 -0.0660
30419W        W73357   5.659  22.885  22.463 -0.1516 -0.0980 -0.2039
30420W        W73358   3.852  24.379  18.450 -0.0034  0.0390 -0.0239
30421W        W73359   6.137  23.933  21.817 -0.1089  0.2341  0.0034
30422W        W73360   4.067  24.602  19.433 -0.2509 -0.2147 -0.1771
30423W        W73361   2.372  23.736  21.648  0.1266 -0.2247  0.0438
30424W        W73362   4.182  24.451  21.669 -0.2626  0.0740  0.0540
30425W        W73363   6.975  21.810  22.149  0.0586 -0.0689 -0.2737
30426W        W73364   4.422  25.239  23.162  0.2175 -0.1348  0.3568
30427W        W73365   6.053  22.724  23.958  0.1904  0.1334 -0.2654
30428W        W73366   3.497  23.307  21.552  0.1933 -0.2867 -0.2567
30429W        W73367   4.031  25.201  23.703  0.0668  0.0326  0.0116
30430W        W73368   4.779  21.982  20.862 -0.0999 -0.1328  0.1061
30431W        W73369   6.529  24.287  20.619  0.1623 -0.4916 -0.1066
30432W        W73370   5.740  24.466  22.676  0.5531  0.0376 -0.2657
30433W        W73371   5.006  24.545  21.251  0.0232 -0.0768 -0.1701
30434W        W73372   5.737  22.457  20.214  0.3628  0.0464  0.3306
30435W        W73373   6.705  22.778  20.480 -0.1173 -0.0180  0.1160
30436W        W73374   2.660  23.947  23.055 -0.1315 -0.0314  0.0700
30437W        W73375   6.305  24.459  22.006 -0.0722  0.2481  0.1080
30438W        W73376   4.699  25.289  21.674 -0.3849  0.0552 -0.2925
30439W        W73377   5.258  22.584  21.087 -0.2150 -0.0463 -0.3108
30440W        W73378   6.159  25.379  20.216  0.0697  0.5054  0.1432
30441W        W73379   4.132  24.114  22.154 -0.3558  0.0566  0.0866
30442W        W73380   6.607  23.602  23.451  0.1440 -0.0077 -0.1119
30443W        W73381   4.992  24.041  22.338 -0.0782  0.0003  0.0603
30444W        W73382   4.218  23.013  22.137 -0.1557  0.0530 -0.0898
30445W        W73383   5.484  24.813  18.789  0.1540  0.2921  0.1643
30446W        W73384   4.945  22.547  20.722  0.2552  0.3831  0.1580
30447W        W73385   3.750  26.036  20.237  0.0732 -0.0705 -0.1672
30448W        W73386   4.584  22.953  21.796 -0.1307  0.0133  0.1539
30449W        W73387   5.087  22.370  22.397 -0.1713  0.0439  0.1101
30450W        W73388   5.370  21.503  22.971  0.2485  0.0887  0.2482
30451W        W73389   8.595  22.215  23.822  0.0458  0.1798 -0.0430
30452W        W73390   5.664  23.720  20.424  0.5994  0.0340 -0.1335
30453W        W73391   6.591  23.081  21.486 -0.2078  0.3417 -0.0588
30454W        W73392   4.259  21.768  20.285  0.0775  0.0780 -0.2503
30455W        W73393   6.092  22.439  22.641  0.1518  0.0815 -0.3222
30456W        W73394   3.637  24.005  22.378  0.3166  0.0428 -0.1866
30457W        W73395   5.489  26.069  23.143 -0.1443 -0.0444  0.1923
30458W        W73396   6.708  24.922  22.152  0.0721 -0.3411  0.2539
30459W        W73397   6.617  23.864  21.505 -0.0952  0.2549  0.1735
30460W        W73398   5.480  21.701  23.710 -0.1721  0.0145 -0.0581
30461W        W73399   4.026  23.040  19.859 -0.2069 -0.3186 -0.1348
30462W        W73400   5.306  24.829  20.277 -0.3112  0.2962 -0.1389
30463W        W73401   5.207  24.266  19.534 -0.1757 -0.0362 -0.1671
30464W        W73402   5.126  21.986  23.282  0.1792 -0.0066 -0.3206
30465W        W73403   5.352  24.722  22.893  0.2012 -0.0103  0.0155
30466W        W73404   4.812  25.552  22.191  0.0168 -0.0688  0.1868
30467W        W73405   7.065  22.405  22.548  0.0566  0.1054 -0.3415
30468W        W73406   4.273  25.200  20.949 -0.1444  0.3904  0.1770
30469W        W73407   6.697  22.535  21.705 -0.0551  0.2095 -0.0094
30470W        W73408   5.944  25.683  21.994  0.1152 -0.0218 -0.1573
30471W        W73409   4.002  21.914  19.879 -0.2923 -0.2466 -0.1744
30472W        W73410   3.818  23.207  22.840 -0.0518  0.0313  0.1232
30473W        W73411   7.821  22.361  21.230  0.0876 -0.0139  0.0027
30474W        W73412   6.197  24.513  20.259  0.1413  0.0534  0.0297
30475W        W73413   4.594  22.275  22.406  0.0889 -0.0816  0.0720
30476W        W73414   6.666  22.829  21.009  0.0830 -0.1301 -0.0743
30477W        W73415   4.707  24.905  21.992 -0.5465  0.0143 -0.0280
30478W        W73416   7.348  23.585  22.500 -0.1997  0.2881  0.3954
30479W        W73417   6.504  21.335  18.897  0.1000 -0.0070 -0.1328
30480W        W73418   6.238  23.866  23.096 -0.1716  0.1082 -0.0288
30481W        W73419   5.927  23.267  23.961  0.0033 -0.1031  0.0136
30482W        W73420   3.146  22.562  21.238 -0.0921  0.2665 -0.3290
30483W        W73421   7.285  22.879  22.267  0.3338  0.1973  0.1513
30484W        W73422   5.138  23.098  22.084 -0.0175 -0.1924 -0.2135
30485W        W73423   3.157  24.079  22.268 -0.2940  0.0360 -0.0328
30486W        W73424   7.025  25.330  22.149 -0.2616  0.1009  0.0738
30487W        W73425   4.799  23.675  20.079 -0.4943 -0.0082  0.1685
30488W        W73426   3.229  24.396  21.132 -0.1175 -0.0290  0.1520
30489W        W73427   5.169  22.849  22.692 -0.0551  0.0787  0.1464
30490W        W73428   5.852  24.056  21.394 -0.0500  0.1135  0.0823
30491W        W73429   4.952  22.761  21.499 -0.2289 -0.1405 -0.0637
30492W        W73430   5.012  23.076  20.979  0.3469  0.1435  0.1815
30493W        W73431   4.519  24.219  22.456 -0.0687  0.2324 -0.1083
30494W        W73432   4.484  25.575  21.292  0.0896 -0.4351 -0.0569
30495W        W73433   6.624  23.283  22.231 -0.0120  0.0010  0.2725
30496W        W73434   6.544  24.537  23.001 -0.0858 -0.3048  0.2141
30497W        W73435   5.642  22.388  23.026  0.0634  0.2590 -0.2857
30498W        W73436   8.732  24.166  19.976  0.0645  0.1200 -0.0002
30499W        W73437   6.879  23.707  22.455  0.0992 -0.2804  0.4573
30500W        W73438   4.822  24.559  19.983  0.0215  0.2454  0.0651
30501W        W73439   4.263  25.427  22.698  0.2140  0.1716 -0.1748
30502W        W73440   4.949  24.534  20.514  0.0477 -0.0001  0.0936
30503W        W73441   5.688  21.289  22.649  0.0084 -0.4029 -0.2429
30504W        W73442   4.225  23.841  21.525 -0.0342 -0.2350 -0.0417
30505W        W73443   4.636  23.750  20.671 -0.0593 -0.0297  0.0999
30506W        W73444   4.031  24.931  22.981  0.0078 -0.1268  0.2951
30507W        W73445   7.396  21.919  21.328  0.4770  0.0563 -0.0870
30508W        W73446   5.611  25.536  21.110  0.0872  0.0981  0.0722
30509W        W73447   4.452  23.797  21.109 -0.1002 -0.0067 -0.0958
30510W        W73448   6.077  22.954  21.685  0.0574 -0.0594 -0.0443
30511W        W73449   6.777  24.188  21.097  0.1054 -0.2365  0.0709
30512W        W73450   6.050  22.129  22.268 -0.0196 -0.0143 -0.0625
30513W        W73451   4.086  23.304  23.248 -0.0590  0.1554 -0.1675
30514W        W73452   8.662  24.151  21.279 -0.0927  0.0638  0.1987
30515W        W73453   4.246  22.579  22.530 -0.0609  0.0415 -0.0665
30516W        W73454   4.479  25.749  23.045 -0.0618 -0.3438  0.1479
30517W        W73455   4.555  22.625  23.781 -0.0152 -0.1251  0.3740
30518W        W73456   5.099  23.333  21.395 -0.1039 -0.0969 -0.0042
30519W        W73457   5.979  22.669  20.701 -0.1774 -0.0074  0.0909
30520W        W73458   3.683  23.592  21.913 -0.0396  0.0278 -0.1581
30521W        W73459   6.923  25.135  21.126 -0.0254 -0.1860  0.4472
30522W        W73460   4.906  25.065  20.053 -0.2620 -0.0831 -0.1894
30523W        W73461   6.648  22.651  19.942  0.3014 -0.2178 -0.2054
30524W        W73462   4.346  23.286  22.573  0.2144 -0.1987 -0.0418
30525W        W73463   6.376  22.586  21.314  0.1494 -0.0898 -0.0388
30526W        W73464   5.910  23.555  21.310 -0.0173 -0.2148  0.2797
30527W        W73465   4.813  24.082  19.830  0.0786  0.3328  0.3069
30528W        W73466   4.817  21.460  22.725  0.1339 -0.0512 -0.3396
30529W        W73467   5.811  24.317  21.878 -0.2972  0.0821  0.0326
30530W        W73468   7.994  23.976  21.833  0.0700 -0.0712 -0.0768
30531W        W73469   7.279  21.902  22.887 -0.3549 -0.1715  0.1212
30532W        W73470   6.547  24.019  22.728  0.0578 -0.2664  0.2159
30533W        W73471   6.597  23.042  22.757  0.0854 -0.1272 -0.2411
30534W        W73472   5.273  22.077  23.952 -0.0526 -0.0993 -0.0209
30535W        W73473   6.072  25.616  22.457 -0.3490 -0.1418 -0.1579
30536W        W73474   5.277  22.594  18.770 -0.0217  0.2240 -0.0585
30537W        W73475   5.735  21.486  22.120  0.2584 -0.1941 -0.0057
30538W        W73476   7.246  22.189  19.442  0.2024 -0.2251  0.4556
30539W        W73477   5.677  24.508  20.388  0.1366 -0.0369  0.1779
30540W        W73478   3.620  23.581  23.454 -0.0736  0.0920 -0.2566
30541W        W73479   6.410  23.541  23.927  0.1773 -0.3580 -0.1969
30542W        W73480   4.474  22.543  19.068 -0.1849  0.0604  0.1223
30543W        W73481   4.879  21.907  22.504  0.4889 -0.1895 -0.2038
30544W        W73482   4.341  24.414  20.196 -0.1800  0.1817 -0.1335
30545W        W73483   4.667  25.480  20.274  0.0967 -0.0571  0.1978
30546W        W73484   6.922  22.983  21.944  0.1198  0.2674 -0.0998
30547W        W73485   4.208  23.509  22.030  0.3009  0.1671 -0.3080
30548W        W73486   2.576  25.750  23.476  0.0231 -0.1204  0.3195
30549W        W73487   4.432  23.772  19.761  0.0320 -0.2163 -0.1657
30550W        W73488   4.865  25.150  19.574 -0.0097 -0.0632 -0.1466
30551W        W73489   5.536  23.939  22.433  0.0650 -0.1447  0.1089
30552W        W73490   6.985  23.444  23.941  0.2305  0.1732 -0.1550
30553W        W73491   6.301  22.503  19.521 -0.1793 -0.0812  0.2221
30554W        W73492   7.238  23.365  22.945  0.0581  0.0183  0.0562
30555W        W73493   3.330  25.803  20.174  0.0094  0.0262  0.2661
30556W        W73494   4.739  22.580  22.833  0.0228 -0.0185  0.4103
30557W        W73495   3.996  24.801  21.167 -0.0945  0.1483  0.4351
30558W        W73496   3.957  25.413  21.864 -0.0492  0.0660  0.2237
30559W        W73497   4.003  23.350  21.522 -0.1115 -0.0063 -0.2069
30560W        W73498   5.460  20.189  21.820 -0.2052  0.3082  0.0541
30561W        W73499   6.746  22.757  22.369  0.2610 -0.0262  0.0709
30562W        W73500   5.638  23.417  22.268 -0.2932  0.0842 -0.0971
30563W        W73501   6.325  22.012  22.669  0.1495 -0.0636 -0.0071
30564W        W73502   7.176  24.295  22.944  0.2021 -0.1565  0.2774
30565W        W73503   4.976  24.523  21.759  0.0614 -0.2464  0.2396
30566W        W73504   6.406  23.520  22.617 -0.0981 -0.3733 -0.0775
30567W        W73505   7.043  24.197  20.582  0.0070 -0.2721 -0.0906
30568W        W73506   5.473  23.412  20.942 -0.0337 -0.1090 -0.1718
30569W        W73507   3.981  23.709  23.839 -0.2340 -0.2379  0.0169
30570W        W73508   5.627  23.990  22.924 -0.2367 -0.1626  0.1505
30571W        W73509   5.984  24.465  21.113 -0.3357  0.2338  0.0606
30572W        W73510   3.492  20.942  21.705  0.1190 -0.1112  0.0539
30573W        W73511   5.967  26.841  20.015 -0.1581  0.2959 -0.2317
30574W        W73512   5.036  24.610  23.486 -0.0890  0.2925  0.0783
30575W        W73513   3.186  23.073  22.379  0.2169  0.1400  0.1296
30576W        W73514   2.479  25.153  19.985 -0.1890  0.0764  0.1907
30577W        W73515   4.616  24.215  21.480  0.0543  0.1200  0.2966
30578W        W73516   5.531  25.296  21.696  0.0097  0.1194 -0.1504
30579W        W73517   4.938  26.622  22.090 -0.0324  0.1279  0.2656
30580W        W73518   4.544  22.875  20.760 -0.0574  0.0589  0.2769
30581W        W73519   3.755  24.338  21.946 -0.0673 -0.0812  0.0386
30582W        W73520   3.595  25.016  21.420 -0.0562 -0.0874  0.1535
30583W        W73521   6.731  25.917  21.470  0.2512  0.0831  0.0994
30584W        W73522   4.966  23.656  21.013 -0.1600  0.0214 -0.0862
30585W        W73523   7.106  24.781  21.915 -0.0626 -0.0384 -0.1411
30586W        W73524   8.185  21.986  19.394 -0.2765  0.0680 -0.0670
30587W        W73525   6.292  23.612  20.467  0.4431 -0.2045  0.0395
30588W        W73526   6.422  21.951  20.838 -0.1596 -0.3487  0.0640
30589W        W73527   5.629  24.686  23.305  0.0746  0.1151  0.0280
30590W        W73528   6.041  23.706  22.316 -0.2871 -0.0863  0.1204
30591W        W73529   6.142  22.709  19.938 -0.0181  0.1904  0.0266
30592W        W73530   5.530  22.998  23.053 -0.0537 -0.0977  0.0092
30593W        W73531   7.067  21.388  23.092 -0.1933 -0.1834 -0.2072
30594W        W73532   3.194  24.831  23.125 -0.2762  0.1160  0.0334
30595W        W73533   6.143  26.319  20.894  0.0625  0.3258 -0.2003
30596W        W73534   4.304  22.953  21.191 -0.1004  0.1456 -0.1648
30597W        W73535   5.252  23.578  21.910  0.0569  0.0800  0.0881
30598W        W73536   6.701  22.642  23.258 -0.1821  0.1041  0.0716
30599W        W73537   5.958  25.867  20.209  0.1664 -0.0945  0.1416
30600W        W73538   6.761  23.173  23.186 -0.1409 -0.2966 -0.0822
30601W        W73539   5.111  25.621  21.680 -0.0844 -0.1242  0.0079
30602W        W73540   5.401  24.388  22.256 -0.0004  0.0965 -0.3002
30603W        W73541   3.930  24.561  22.456 -0.5081 -0.0591 -0.0943
30604W        W73542   4.791  22.795  20.141 -0.1245 -0.1770  0.1939
30605W        W73543   5.482  23.707  21.454  0.2166  0.4413 -0.0942
30606W        W73544   5.803  23.113  23.481 -0.0246  0.1785  0.0627
30607W        W73545   5.894  21.146  23.246 -0.1969  0.1961  0.0060
30608W        W73546   4.602  23.321  21.183 -0.3025 -0.0442 -0.0979
30609W        W73547   7.999  21.745  21.336  0.2295 -0.1265 -0.2563
30610W        W73548   5.514  24.455  21.403 -0.0758  0.3045 -0.3085
30611W        W73549   4.611  23.982  22.872 -0.0278  0.1106  0.2500
30612W        W73550   5.538  23.364  20.082  0.2928 -0.0755 -0.1666
30613W        W73551   7.295  24.336  21.902 -0.3303  0.0965  0.1375
30614W        W73552   5.285  23.858  20.080  0.2986  0.2500  0.0787
30615W        W73553   5.435  26.758  23.806 -0.2543 -0.1130  0.3172
30616W        W73554   4.274  21.936  22.638 -0.2303  0.0033 -0.1674
30617W        W73555   5.962  23.394  20.857 -0.0104 -0.0869  0.0334
30618W        W73556   3.715  24.241  22.777  0.0412 -0.1104 -0.2014
30619W        W73557   4.855  24.664  22.734  0.2521 -0.1654  0.0914
30620W        W73558   5.933  23.617  24.305  0.2364  0.1634 -0.4017
30621W        W73559   5.940  22.709  22.132  0.3927  0.2319 -0.2140
30622W        W73560   6.835  24.537  19.766  0.0194  0.0569  0.1282
30623W        W73561   6.335  23.981  21.027  0.2247  0.0740 -0.1440
30624W        W73562   3.517  26.454  20.128  0.3623 -0.0597 -0.0309
30625W        W73563   4.575  24.709  21.063 -0.1365  0.0529  0.0191
30626W        W73564   5.150  26.223  21.795  0.0657 -0.3565  0.2458
30627W        W73565   3.355  22.664  22.107 -0.0977  0.1506  0.1949
30628W        W73566   6.773  24.254  21.852  0.2438  0.0674 -0.0621
30629W        W73567   6.971  25.814  22.319  0.1179 -0.2479  0.1347
30630W        W73568   4.489  22.509  21.539  0.3107 -0.5943  0.2242
30631W        W73569   5.119  23.887  22.922  0.0050 -0.0476  0.0418
30632W        W73570   3.752  26.102  20.739  0.1529  0.0025 -0.0600
30633W        W73571   6.992  22.805  21.484  0.3183 -0.0761 -0.4597
30634W        W73572   6.254  22.841  22.495  0.1685 -0.0145  0.0028
30635W        W73573   3.442  23.264  20.629  0.1842 -0.1951 -0.0323
30636W        W73574   6.814  21.952  22.637 -0.0969 -0.0179  0.0644
30637W        W73575   6.730  23.745  21.958 -0.0517  0.0375 -0.1814
30638W        W73576   6.436  23.731  24.458 -0.0445  0.4997 -0.0101
30639W        W73577   3.789  23.824  18.978 -0.0593 -0.3930 -0.0061
30640W        W73578   4.200  24.180  23.750 -0.0063 -0.2078  0.5120
30641W        W73579   4.235  25.061  21.629  0.2496 -0.1616 -0.1253
30642W        W73580   4.149  26.043  21.570  0.0006  0.1090 -0.0319
30643W        W73581   8.686  25.396  20.953 -0.1407  0.0087  0.2605
30644W        W73582   5.725  23.052  20.476 -0.0794 -0.0835 -0.0121
30645W        W73583   6.524  25.398  21.413  0.3086  0.5800  0.1482
30646W        W73584   4.006  22.772  21.524  0.1237  0.1172 -0.0120
30647W        W73585   7.672  21.042  21.184  0.1094 -0.0369 -0.2143
30648W        W73586   4.935  20.625  22.576 -0.0125  0.1508  0.4780
30649W        W73587   4.810  23.259  22.688 -0.2039 -0.1266  0.0021
30650W        W73588   2.437  21.900  20.318 -0.2020 -0.4754  0.0631
30651W        W73589   4.312  23.296  20.233 -0.0916 -0.2907  0.1557
30652W        W73590   3.905  22.994  20.459  0.2231 -0.3652 -0.1110
30653W        W73591   6.321  21.287  23.488  0.3836  0.0658 -0.0077
30654W        W73592   4.695  22.192  23.920  0.0204  0.0740 -0.0964
30655W        W73593   5.501  24.811  21.929 -0.0893 -0.0102  0.2124
30656W        W73594   4.881  22.504  21.943 -0.1928  0.1267 -0.3142
30657W        W73595   6.870  25.790  19.907 -0.1800 -0.3802  0.0124
30658W        W73596   5.065  22.033  22.070  0.1895 -0.1311  0.3176
30659W        W73597   3.934  21.420  22.177  0.0131  0.1394 -0.0944
30660W        W73598   6.602  24.715  21.283  0.2869 -0.1172 -0.2499
30661W        W73599   4.378  24.376  20.709  0.0250  0.1367  0.1463
30662W        W73600   4.574  23.721  22.375  0.1515  0.0587  0.1166
30663W        W73601   8.098  24.651  23.049 -0.2345 -0.0070  0.1358
30664W        W73602   4.410  24.415  19.719  0.0977 -0.3139 -0.2985
30665W        W73603   6.316  23.207  24.361 -0.0468  0.0652 -0.0209
30666W        W73604   5.668  21.846  23.226 -0.0733  0.1966 -0.1117
30667W        W73605   2.334  21.460  19.311  0.0066  0.0699  0.1143
30668W        W73606   5.773  23.538  21.809  0.1243 -0.1303  0.0615
30669W        W73607   5.577  23.214  21.492 -0.0852  0.0795  0.2513
30670W        W73608   5.053  25.613  21.190  0.2466  0.4902 -0.0581
30671W        W73609   6.400  23.440  21.791 -0.1594 -0.1113  0.1562
30672W        W73610   6.394  25.368  21.951  0.1911  0.3017 -0.0932
30673W        W73611   3.201  22.706  24.152  0.0455  0.2117 -0.0537
30674W        W73612   4.871  24.622  19.462 -0.0062 -0.1515  0.2080
30675W        W73613   5.562  23.509  23.222 -0.0912 -0.1569  0.2550
30676W        W73614   5.946  24.153  20.603  0.2686  0.1371  0.0507
30677W        W73615   6.464  21.913  22.022 -0.3252  0.1124  0.2631
30678W        W73616   6.408  22.456  20.819  0.0344  0.1749  0.2158
30679W        W73617   3.540  22.329  22.380  0.1028  0.1686  0.0345
30680W        W73618   4.120  23.991  22.625 -0.0565  0.0998  0.1436
30681W        W73619   6.485  24.093  22.252  0.1928  0.2446  0.0437
30682W        W73620   5.412  21.776  22.431 -0.2644  0.1389  0.0350
30683W        W73621   6.406  21.439  20.867 -0.2069 -0.2980 -0.2825
30684W        W73622   4.349  25.872  20.321 -0.1842  0.0247  0.1320
30685W        W73623   3.651  23.701  22.872 -0.0905  0.1061  0.2565
30686W        W73624   5.574  22.956  20.885  0.0161  0.1050 -0.5065
30687W        W73625   6.015  23.574  23.550 -0.0643 -0.3639  0.1503
30688W        W73626   5.709  23.743  23.849 -0.1524 -0.2638  0.0575
30689W        W73627   6.276  23.802  25.106  0.0559  0.0563  0.4530
30690W        W73628   3.991  22.283  21.584 -0.1432 -0.3271 -0.0064
30691W        W73629   8.236  23.332  20.915  0.0428  0.2618  0.5576
30692W        W73630   5.278  25.777  22.350  0.1310 -0.1096  0.1071
30693W        W73631   7.326  24.644  23.301 -0.1068  0.0643 -0.2670
30694W        W73632   6.374  24.335  21.464  0.2139  0.2187  0.0592
30695W        W73633   7.084  23.448  22.072  0.2621 -0.0794 -0.0149
30696W        W73634   5.092  21.711  21.667  0.0413  0.0208 -0.2064
30697W        W73635   4.722  23.559  21.655  0.0038 -0.0534 -0.1517
30698W        W73636   5.230  24.305  22.700 -0.4451  0.0483 -0.2095
30699W        W73637   7.001  24.194  22.395  0.3152 -0.0183 -0.2268
30700W        W73638   3.712  23.464  22.404 -0.3146  0.0754  0.3456
30701W        W73639   5.996  22.948  21.194  0.2339 -0.0335  0.2915
30702W        W73640   4.474  24.823  22.441 -0.0339  0.0453 -0.2656
30703W        W73641   6.451  22.847  22.021 -0.1407 -0.4858 -0.2044
30704W        W73642   5.595  23.344  27.569  0.0100  0.2884 -0.1729
30705W        W73643   5.123  23.326  24.971 -0.5277 -0.0405 -0.1985
30706W        W73644   6.601  21.989  23.111  0.1472  0.1347  0.0716
30707W        W73645   6.572  24.674  23.857  0.0581 -0.0241 -0.0362
30708W        W73646   3.713  23.478  24.294 -0.0460 -0.1397 -0.2015
30709W        W73647   6.217  25.082  23.810  0.4013  0.2732 -0.1232
30710W        W73648   4.858  20.643  27.553 -0.0738 -0.1682 -0.1321
30711W        W73649   6.017  23.865  26.056 -0.0899  0.1183 -0.0321
30712W        W73650   7.638  23.294  25.728  0.1987  0.2260  0.1606
30713W        W73651   6.311  24.363  24.724  0.0125 -0.4225 -0.0367
30714W        W73652   4.779  22.920  26.221 -0.1382 -0.0321 -0.0286
30715W        W73653   5.571  23.608  26.169  0.4640  0.2399  0.0758
30716W        W73654   5.419  22.317  24.375 -0.3329 -0.1843 -0.0823
30717W        W73655   4.341  21.057  26.702  0.1898  0.1051  0.2248
30718W        W73656   6.418  23.867  26.559 -0.1121 -0.1051  0.0005
30719W        W73657   4.535  24.380  25.157  0.4134  0.0541 -0.0570
30720W        W73658   3.968  22.266  25.622 -0.1424  0.1056 -0.1649
30721W        W73659   5.084  22.812  24.399  0.2673 -0.0561  0.3233
30722W        W73660   5.842  25.119  26.045  0.0215 -0.3247  0.0412
30723W        W73661   5.101  21.494  27.954  0.1320  0.1054 -0.0924
30724W        W73662   6.412  22.413  26.340  0.0409 -0.0394 -0.4436
30725W        W73663   4.429  24.869  24.873  0.0694 -0.2238 -0.1762
30726W        W73664   4.518  22.764  23.296  0.5196 -0.1170 -0.1443
30727W        W73665   4.012  23.096  24.589 -0.0601 -0.3667 -0.2587
30728W        W73666   3.943  24.514  26.389  0.0310  0.1283  0.0875
30729W        W73667   5.421  21.050  25.435  0.0727  0.1457  0.0580
30730W        W73668   7.497  22.186  24.841 -0.0572  0.1483 -0.0967
30731W        W73669   5.846  24.651  26.006 -0.1533 -0.3447  0.1477
30732W        W73670   6.641  24.122  25.133 -0.1747 -0.3192 -0.0760
30733W        W73671   6.099  22.142  27.200 -0.1516 -0.1595 -0.0439
30734W        W73672   3.927  24.853  25.881  0.0185  0.2202 -0.0409
30735W        W73673   5.362  24.710  25.440  0.3095  0.1033 -0.1688
30736W        W73674   5.063  23.349  24.505  0.0318  0.1302 -0.0325
30737W        W73675   7.302  25.384  24.764  0.1339 -0.0182  0.0074
30738W        W73676   6.222  23.859  27.605  0.4205  0.1496  0.0753
30739W        W73677   5.718  26.639  27.229 -0.0591  0.0010 -0.1394
30740W        W73678   4.354  25.749  22.280  0.1097  0.3210 -0.1637
30741W        W73679   5.973  24.434  27.353  0.2532  0.0959  0.1241
30742W        W73680   4.271  23.556  24.792  0.5255  0.1195  0.0328
30743W        W73681   5.432  23.420  26.739 -0.1065 -0.1622  0.2367
30744W        W73682   5.967  22.878  24.581 -0.0741 -0.0572 -0.1173
30745W        W73683   5.425  23.348  24.008  0.1490 -0.4348  0.0522
30746W        W73684   5.390  24.120  24.783 -0.1233 -0.1787 -0.0632
30747W        W73685   4.120  25.860  25.863 -0.0754  0.2507  0.0611
30748W        W73686   4.105  24.280  25.488 -0.1582  0.4227  0.1858
30749W        W73687   8.082  22.146  26.189  0.0590 -0.3818 -0.0061
30750W        W73688   4.108  24.356  24.277  0.1668 -0.0222 -0.0695
30751W        W73689   7.283  23.004  23.265  0.0827  0.0836 -0.1146
30752W        W73690   6.310  21.404  22.043  0.1364 -0.2674 -0.0311
30753W        W73691   7.203  22.495  24.571  0.0880  0.1319  0.0920
30754W        W73692   4.444  20.899  27.597 -0.0233  0.3120 -0.0273
30755W        W73693   4.851  24.396  24.744  0.1728 -0.0238  0.3238
30756W        W73694   6.245  21.676  26.334  0.4739  0.3323  0.1963
30757W        W73695   6.689  24.056  26.957 -0.2197  0.2339  0.0978
30758W        W73696   6.128  23.166  25.285  0.0904  0.1063  0.2408
30759W        W73697   6.914  21.937  24.970 -0.1453  0.0137  0.2502
30760W        W73698   4.609  23.180  27.317 -0.0658 -0.3730 -0.0979
30761W        W73699   4.573  23.307  25.160  0.3617 -0.0780  0.0866
30762W        W73700   7.748  24.219  24.122  0.2573  0.2279  0.3910
30763W        W73701   7.485  23.677  26.505 -0.1155  0.1906 -0.0422
30764W        W73702   6.070  24.913  24.637 -0.1785  0.1080  0.0551
30765W        W73703   4.432  23.164  23.591 -0.0478  0.2230 -0.1857
30766W        W73704   3.180  24.631  27.160  0.1818 -0.0812 -0.1973
30767W        W73705   4.079  23.241  27.263  0.0821  0.0817 -0.1704
30768W        W73706   3.515  22.121  24.946  0.0421  0.0640  0.0009
30769W        W73707   6.779  23.647  27.640  0.1756 -0.0475 -0.1312
30770W        W73708   2.729  24.505  27.259  0.0401 -0.1243 -0.0263
30771W        W73709   6.569  23.481  25.548  0.2511  0.0416 -0.0478
30772W        W73710   4.479  23.489  26.953  0.4808 -0.0226  0.0590
30773W        W73711   6.985  23.880  26.581 -0.2273 -0.2945 -0.1775
30774W        W73712   5.896  25.175  23.317  0.2427  0.1315 -0.3665
30775W        W73713   6.768  23.129  25.999 -0.1485 -0.0009 -0.5435
30776W        W73714   5.264  21.715  27.536 -0.1201 -0.0615 -0.0587
30777W        W73715   5.289  23.759  23.571 -0.1086  0.3737 -0.0962
30778W        W73716   6.153  24.052  23.946 -0.0362  0.2462  0.0384
30779W        W73717   6.170  24.334  26.769  0.2138 -0.1787  0.0236
30780W        W73718   6.667  22.556  25.240 -0.0543  0.0737  0.4111
30781W        W73719   3.782  24.675  25.448 -0.0720 -0.3236  0.2549
30782W        W73720   5.204  21.053  28.302  0.2241 -0.3375 -0.0873
30783W        W73721   6.297  24.929  28.184 -0.0906  0.1312 -0.2072
30784W        W73722   3.033  25.222  22.841  0.2142  0.1530 -0.1051
30785W        W73723   4.333  23.095  25.554  0.1664  0.0664 -0.2590
30786W        W73724   3.796  22.277  22.843  0.1680 -0.0093  0.1673
30787W        W73725   5.053  23.078  25.666 -0.2436  0.0920  0.0359
30788W        W73726   5.731  23.130  26.433 -0.2794 -0.1741  0.2991
30789W        W73727   6.737  22.288  24.200  0.0021  0.2103  0.1352
30790W        W73728   3.682  22.541  27.037  0.0305  0.0067 -0.0539
30791W        W73729   6.910  20.681  24.381  0.1275  0.2006  0.0865
30792W        W73730   4.270  24.782  24.058  0.1765 -0.0664  0.1038
30793W        W73731   6.324  24.774  23.343 -0.0762  0.1175  0.0328
30794W        W73732   6.987  21.684  25.699  0.1957 -0.0609  0.2830
30795W        W73733   6.651  25.445  22.424 -0.0346  0.0827 -0.1380
30796W        W73734   3.402  22.170  26.074 -0.1632  0.4286  0.1795
30797W        W73735   5.539  23.319  25.406 -0.0464 -0.1578  0.1447
30798W        W73736   4.453  21.726  27.375 -0.0518  0.0737 -0.2168
30799W        W73737   5.080  21.949  24.466 -0.3285 -0.2212  0.4026
30800W        W73738   5.264  22.766  26.380  0.0204  0.1297 -0.2738
30801W        W73739   4.133  22.627  24.570  0.1225  0.1817 -0.1345
30802W        W73740   5.154  22.355  24.807  0.1313  0.0432 -0.2207
30803W        W73741   6.362  22.974  23.492  0.0680 -0.2540  0.0047
30804W        W73742   4.364  22.530  26.259 -0.2392 -0.0935 -0.0454
30805W        W73743   6.807  22.607  26.699 -0.0698  0.1671  0.0172
30806W        W73744   6.567  25.005  22.662 -0.0655  0.1273 -0.0776
30807W        W73745   6.949  24.857  26.549 -0.2820 -0.0100  0.0803
30808W        W73746   6.861  24.807  24.315  0.0775 -0.2926  0.1170
30809W        W73747   4.451  23.473  27.701 -0.1108  0.0559  0.3374
30810W        W73748   4.851  23.441  23.530  0.2562 -0.1434  0.1385
30811W        W73749   3.488  26.149  27.257 -0.0003 -0.0356 -0.1425
30812W        W73750   4.997  23.675  24.056  0.0441 -0.0779  0.1901
30813W        W73751   5.552  22.859  24.137 -0.1836  0.1824  0.2192
30814W        W73752   8.641  25.554  26.425 -0.1000  0.2480 -0.0178
30815W        W73753   4.858  23.979  23.541  0.3891 -0.0847  0.1025
30816W        W73754   3.278  23.899  27.351 -0.2677 -0.0982  0.3479
30817W        W73755   7.033  22.966  26.410  0.0665  0.2357  0.2333
30818W        W73756   7.012  23.319  27.346 -0.4242  0.1133 -0.1111
30819W        W73757   5.958  22.676  25.587 -0.1800  0.1109  0.0136
30820W        W73758   5.193  21.206  23.956 -0.1036 -0.1295 -0.2088
30821W        W73759   5.880  25.575  23.782  0.2056  0.1263 -0.2427
30822W        W73760   5.404  24.695  23.871 -0.1887  0.1602 -0.1265
30823W        W73761   4.228  22.895  23.999  0.2413 -0.2358  0.1871
30824W        W73762   6.002  24.583  23.669  0.1885  0.0601 -0.0435
30825W        W73763   6.798  23.091  25.291 -0.2558  0.1070 -0.0806
30826W        W73764   3.099  24.544  26.574  0.3054  0.3093 -0.1507
30827W        W73765   5.982  22.899  26.059  0.2240  0.0787 -0.0059
30828W        W73766   5.587  23.219  24.478  0.0805 -0.0670  0.0488
30829W        W73767   3.919  24.365  26.913  0.1397 -0.3959  0.1979
30830W        W73768   5.515  22.777  24.663  0.1638  0.0550  0.0867
30831W        W73769   7.129  23.457  23.405  0.1535 -0.0259  0.1116
30832W        W73770   6.763  24.115  28.014 -0.2616  0.0580 -0.2331
30833W        W73771   6.190  25.420  22.892 -0.1175 -0.2140 -0.2068
30834W        W73772   6.111  22.192  23.106  0.1266 -0.0513  0.0273
30835W        W73773   7.337  23.011  24.451  0.0178 -0.0017 -0.1900
30836W        W73774   5.338  22.910  26.968  0.0401  0.2972  0.1338
30837W        W73775   5.163  24.317  24.315 -0.3374 -0.0090 -0.2379
30838W        W73776   6.123  24.239  25.299  0.0142  0.0091  0.3295
30839W        W73777   6.874  24.659  25.175 -0.3398  0.1658  0.2965
30840W        W73778   8.087  25.335  25.184  0.2264 -0.2094 -0.0774
30841W        W73779   4.645  24.213  25.596  0.4658 -0.1452 -0.3565
30842W        W73780   7.158  24.992  27.371 -0.2483  0.2181 -0.1822
30843W        W73781   7.579  25.581  25.721 -0.2282 -0.0070  0.1886
30844W        W73782   5.054  22.002  27.179 -0.2617  0.3305  0.0700
30845W        W73783   5.244  25.061  23.457  0.3761  0.1838 -0.0210
30846W        W73784   5.689  20.509  24.696 -0.2041 -0.0207 -0.0205
30847W        W73785   5.509  25.188  23.069  0.2469  0.0732  0.1900
30848W        W73786   7.478  21.407  25.787 -0.4198 -0.0507 -0.1183
30849W        W73787   6.321  22.276  25.386  0.0083 -0.0488 -0.0163
30850W        W73788   3.751  20.995  28.377 -0.0685 -0.2591 -0.0421
30851W        W73789   6.275  22.701  27.368 -0.0638 -0.1605 -0.1165
30852W        W73790   6.522  23.047  23.938 -0.1959 -0.0112  0.0435
30853W        W73791   6.714  24.139  26.277  0.2673  0.1372  0.2318
30854W        W73792   5.195  22.665  23.175  0.0470  0.1059  0.5202
30855W        W73793   4.805  22.522  26.547  0.0892 -0.1623  0.2734
30856W        W73794   3.416  24.225  26.945  0.2878  0.1356 -0.1751
30857W        W73795   4.517  24.507  27.745  0.1969  0.2381 -0.0975
30858W        W73796   7.577  24.450  29.252  0.1249 -0.3278  0.1956
30859W        W73797   6.146  23.417  24.856  0.1753 -0.1887 -0.1010
30860W        W73798   6.625  21.430  28.283  0.1928 -0.1956 -0.2047
30861W        W73799   6.760  22.402  24.739  0.1049 -0.2469 -0.0823
30862W        W73800   5.572  25.041  24.623 -0.2152 -0.0222  0.1563
30863W        W73801   6.221  23.325  23.127  0.2023  0.1750  0.5532
30864W        W73802   4.697  22.664  27.059  0.0269  0.2055 -0.2592
30865W        W73803   5.863  24.664  25.468  0.0302 -0.0464  0.5213
30866W        W73804   6.413  25.310  23.409 -0.5195 -0.3966  0.0236
30867W        W73805   6.923  23.808  25.923 -0.1113  0.3436 -0.0802
30868W        W73806   5.281  24.639  24.816 -0.1279 -0.0801 -0.0877
30869W        W73807   5.891  24.216  25.729  0.1532 -0.3372  0.1847
30870W        W73808   3.799  25.293  25.744  0.2765  0.2106 -0.0041
30871W        W73809   6.227  22.803  23.043  0.1041 -0.0987  0.1106
30872W        W73810   3.687  24.992  23.293 -0.0645  0.3691  0.2091
30873W        W73811   5.295  21.999  25.939  0.0570  0.2332 -0.0677
30874W        W73812   6.862  22.789  24.263  0.0758 -0.1817  0.1104
30875W        W73813   4.396  22.897  26.732 -0.0620  0.1939 -0.0222
30876W        W73814   6.224  20.699  26.000 -0.0225  0.1220 -0.4428
30877W        W73815   2.699  24.315  26.752  0.2511  0.1710  0.2504
30878W        W73816   6.577  22.229  26.952  0.1223  0.0201  0.0222
30879W        W73817   6.349  22.274  23.495  0.0311 -0.3791  0.1871
30880W        W73818   5.598  24.244  25.303  0.1246  0.0173  0.0338
30881W        W73819   5.482  23.806  27.152  0.0674  0.1468  0.1736
30882W        W73820   4.821  23.160  23.926 -0.6253  0.0901  0.0509
30883W        W73821   7.218  23.414  26.121 -0.2589  0.0458  0.1791
30884W        W73822   4.621  22.653  25.333 -0.3332 -0.0774  0.0875
30885W        W73823   3.709  25.194  26.867 -0.0591  0.2884  0.2015
30886W        W73824   6.328  24.491  25.695  0.0438 -0.0015 -0.0090
30887W        W73825   4.927  22.927  23.504 -0.1121  0.0516 -0.5513
30888W        W73826   4.643  25.197  25.175 -0.1063 -0.0236 -0.1374
30889W        W73827   6.450  23.494  26.030 -0.0151 -0.2748 -0.1104
30890W        W73828   6.270  23.353  27.743 -0.2692  0.2167 -0.3369
30891W        W73829   4.875  22.066  25.683  0.0859 -0.0993  0.3592
30892W        W73830   4.960  21.154  25.733  0.0367 -0.1075 -0.0189
30893W        W73831   6.624  23.440  24.930  0.0480  0.0728 -0.1386
30894W        W73832   6.029  23.996  27.155  0.0485 -0.1265 -0.0085
30895W        W73833   4.675  22.702  25.802  0.1311  0.2434 -0.0076
30896W        W73834   5.179  23.920  27.538 -0.0614  0.0374  0.1078
30897W        W73835   5.141  20.803  26.617  0.0225 -0.3348  0.0896
30898W        W73836   6.419  26.270  24.994 -0.1748  0.0344 -0.5223
30899W        W73837   6.428  22.943  26.414 -0.1142  0.0734 -0.1921
30900W        W73838   5.344  25.629  25.162 -0.2920 -0.3677 -0.1870
30901W        W73839   4.382  23.815  25.535 -0.0010 -0.5415  0.1081
30902W        W73840   4.613  24.151  24.320  0.4197 -0.0002 -0.1746
30903W        W73841   5.926  21.999  26.012  0.1104 -0.2451  0.1661
30904W        W73842   4.719  23.063  24.754 -0.0065 -0.2085  0.1216
30905W        W73843   4.935  24.893  23.904 -0.3734 -0.0103  0.0434
30906W        W73844   3.022  24.412  24.396 -0.0164  0.2860  0.0638
30907W        W73845   6.552  21.180  24.357  0.0552  0.1861  0.0059
30908W        W73846   6.246  24.450  24.228 -0.1581  0.1917  0.0282
30909W        W73847   5.056  22.397  26.079 -0.4337  0.3114  0.0938
30910W        W73848   7.200  21.689  26.200 -0.0239 -0.0817 -0.1081
30911W        W73849   8.037  23.990  23.701 -0.1159 -0.0080 -0.1464
30912W        W73850   5.551  21.276  27.988 -0.0057 -0.0150  0.2614
30913W        W73851   4.301  22.408  26.766  0.1562 -0.1884 -0.1478
30914W        W73852   6.915  25.611  24.043  0.0894 -0.0673  0.2018
30915W        W73853   3.466  21.585  26.856  0.1394  0.0352 -0.2830
30916W        W73854   6.216  25.692  28.303 -0.2034  0.1148 -0.0639
30917W        W73855   5.882  23.356  25.783  0.3528 -0.2141  0.0234
30918W        W73856   6.216  22.236  24.005 -0.0983  0.1104  0.1794
30919W        W73857   4.215  22.879  22.949  0.0830  0.2873 -0.2446
30920W        W73858   5.105  23.969  26.206  0.1347  0.2217  0.1939
30921W        W73859   8.042  23.059  26.004  0.0664 -0.1456  0.0600
30922W        W73860   7.094  23.329  24.906  0.1916 -0.0871  0.3068
30923W        W73861   4.878  21.943  25.068  0.0818 -0.0166 -0.0690
30924W        W73862   4.749  24.006  26.589  0.0259 -0.0547  0.0440
30925W        W73863   7.804  23.299  24.376  0.1056 -0.0459  0.1500
30926W        W73864   6.922  24.096  25.513 -0.3764  0.0886 -0.3567
30927W        W73865   4.909  24.645  25.623  0.2938 -0.1198 -0.2082
30928W        W73866   5.110  22.109  26.501  0.0017 -0.1088 -0.4539
30929W        W73867   7.677  22.556  26.782  0.0120 -0.1530  0.0768
30930W        W73868   6.809  21.457  26.513 -0.0102  0.1560  0.3055
30931W        W73869   6.125  23.790  25.590 -0.1221 -0.0671  0.3910
30932W        W73870   5.946  23.495  27.186  0.0466 -0.0739  0.2041
30933W        W73871   5.148  23.283  26.358  0.0420 -0.1750 -0.0699
30934W        W73872   4.230  22.956  27.619 -0.0704  0.1086  0.2056
30935W        W73873   7.899  25.491  26.336 -0.0198 -0.3512 -0.0050
30936W        W73874   7.153  21.952  23.809 -0.0375  0.0233 -0.0524
30937W        W73875   6.606  21.639  26.020 -0.2245  0.2126  0.0495
30938W        W73876   7.420  22.664  26.341 -0.1845  0.1163  0.2369
30939W        W73877   5.085  21.568  26.484  0.1807 -0.0217  0.3591
30940W        W73878   5.106  22.825  24.980  0.0094  0.0391  0.2085
30941W        W73879   7.071  22.729  28.763  0.3255 -0.0348  0.2288
30942W        W73880   5.468  22.776  23.638  0.0811 -0.3152 -0.3326
30943W        W73881   6.891  22.603  26.142 -0.1445 -0.1099  0.0508
30944W        W73882   6.794  25.154  23.884 -0.1588 -0.1875  0.2690
30945W        W73883   6.964  23.617  25.290  0.0035  0.0846 -0.5344
30946W        W73884   6.274  21.733  24.227  0.2774 -0.0292 -0.1954
30947W        W73885   4.665  22.555  24.838 -0.1395 -0.2131 -0.0979
30948W        W73886   5.348  25.592  27.996 -0.1610 -0.0272  0.1517
30949W        W73887   3.428  22.842  22.772 -0.6417 -0.2393 -0.0995
30950W        W73888   6.911  24.400  23.440 -0.2049  0.2799  0.0516
30951W        W73889   5.588  24.265  26.984 -0.0897  0.0366  0.1333
30952W        W73890   6.859  23.431  28.587  0.0601 -0.0183 -0.0180
30953W        W73891   5.861  22.055  23.613  0.0137 -0.0906 -0.2264
30954W        W73892   6.040  21.181  26.946  0.0859  0.0978 -0.0496
30955W        W73893   4.352  24.766  25.425 -0.1457  0.0628 -0.3051
30956W        W73894   7.081  21.517  25.178  0.0258 -0.1414 -0.1592
30957W        W73895   5.713  24.321  26.495 -0.2832  0.1086 -0.2794
30958W        W73896   4.413  24.086  26.910  0.3448  0.0429  0.1312
30959W        W73897   5.059  25.105  25.591 -0.1721  0.1291  0.0845
30960W        W73898   6.468  22.608  25.744  0.1687  0.0611 -0.1253
30961W        W73899   7.455  23.376  26.897 -0.0993 -0.4965  0.1053
30962W        W73900   5.846  23.642  25.239 -0.2587  0.1631  0.0770
30963W        W73901   7.934  21.697  26.473  0.0931 -0.3172 -0.1384
30964W        W73902   7.173  24.339  28.296  0.1069  0.1678  0.0712
30965W        W73903   4.651  23.856  25.937 -0.0650 -0.0301  0.2074
30966W        W73904   7.774  25.154  28.014  0.0888 -0.1145 -0.1203
30967W        W73905   7.346  24.395  25.616  0.0783  0.3958 -0.0786
30968W        W73906   5.270  23.725  25.282 -0.0713 -0.1467  0.2455
30969W        W73907   4.452  22.250  25.830  0.0887 -0.2698 -0.1534
30970W        W73908   6.924  23.038  28.195  0.4364 -0.2110 -0.2103
30971W        W73909   6.613  25.525  25.612 -0.5615 -0.5734  0.0204
30972W        W73910   4.244  23.605  22.896 -0.0134  0.3239  0.1041
30973W        W73911   4.853  24.737  25.125  0.1543  0.2701  0.0500
30974W        W73912   4.247  25.311  26.847  0.1042 -0.1312  0.0307
30975W        W73913   3.851  23.059  26.873 -0.0500  0.0759 -0.1376
30976W        W73914   3.902  25.246  24.773 -0.1761 -0.0886  0.2974
30977W        W73915   5.576  26.552  23.329 -0.0154 -0.0425 -0.1169
30978W        W73916   7.434  24.638  25.152  0.3806  0.1598 -0.0324
30979W        W73917   6.118  25.986  25.618  0.0762  0.2183 -0.1074
30980W        W73918   5.917  22.403  24.399 -0.2512  0.2715 -0.0043
30981W        W73919   4.426  25.253  24.621  0.2325  0.1142 -0.2535
30982W        W73920   4.462  24.261  23.325 -0.0323  0.1220  0.1656
30983W        W73921   6.595  24.750  24.757  0.1965 -0.4937  0.0186
30984W        W73922   4.670  26.618  25.797  0.3087  0.1818 -0.1110
30985W        W73923   6.830  24.633  28.149 -0.1367 -0.1639 -0.0965
30986W        W73924   7.205  22.025  24.388 -0.0865  0.4049  0.1761
30987W        W73925   7.286  22.376  25.838  0.2621 -0.1369  0.0065
30988W        W73926   6.777  23.344  24.441  0.0280  0.1476  0.2725
30989W        W73927   5.026  23.413  27.705  0.1176 -0.0654 -0.0309
30990W        W73928   6.944  21.812  27.357 -0.1269  0.0861 -0.0467
30991W        W73929   6.417  22.644  24.463 -0.0813 -0.0461  0.0541
30992W        W73930   6.107  23.429  26.334 -0.1763  0.3391 -0.1521
30993W        W73931   6.655  21.363  25.573 -0.0016  0.2404 -0.1954
30994W        W73932   5.676  24.101  27.589 -0.1219 -0.2115  0.3007
30995W        W73933   6.059  26.006  23.771  0.2926  0.2703 -0.2095
30996W        W73934   5.889  22.560  23.465  0.1466 -0.2909  0.0095
30997W        W73935   4.920  23.129  26.882  0.0374 -0.3274 -0.0378
30998W        W73936   6.198  21.448  25.427 -0.1083  0.1336  0.2954
30999W        W73937   5.468  23.910  24.342 -0.0320  0.0539 -0.0253
31000W        W73938   5.489  22.493  25.762  0.0105 -0.1916 -0.1543
31001W        W73939   5.277  24.791  24.327  0.0943 -0.1002  0.1422
31002W        W73940   5.056  25.139  24.649 -0.1566 -0.0989  0.2399
31003W        W73941   6.232  24.275  26.256 -0.2459 -0.0035 -0.0075
31004W        W73942   4.286  22.390  24.187 -0.0492  0.2111 -0.0397
31005W        W73943   7.052  23.313  25.663  0.1741  0.2468  0.1505
31006W        W73944   5.103  23.588  25.906 -0.3702  0.0760 -0.0195
31007W        W73945   6.416  21.306  24.985 -0.0421 -0.2130  0.0415
31008W        W73946   5.150  24.127  25.702 -0.2981  0.2138 -0.0552
31009W        W73947   7.204  22.608  25.066  0.0742  0.0325 -0.1166
31010W        W73948   5.963  22.982  27.685 -0.1845 -0.0759  0.3192
31011W        W73949   4.180  21.991  26.498 -0.0280 -0.0109  0.0346
31012W        W73950   6.925  22.865  24.754  0.1764 -0.0131  0.3672
31013W        W73951   6.112  25.068  25.500  0.0615  0.2654 -0.0356
31014W        W73952   6.996  24.372  24.635  0.2588  0.0946  0.0615
31015W        W73953   7.091  24.337  26.759  0.0744 -0.1582 -0.1261
31016W        W73954   5.077  22.629  23.921  0.0418 -0.2259 -0.0425
31017W        W73955   7.199  22.423  23.978  0.2042  0.2501 -0.0730
31018W        W73956   3.716  23.554  26.162  0.0235  0.2470  0.2054
31019W        W73957   4.279  22.997  26.074  0.1294  0.0235  0.0207
31020W        W73958   6.670  25.594  28.111  0.0590 -0.2704 -0.2068
31021W        W73959   3.385  23.049  24.581  0.1743 -0.0793 -0.2550
31022W        W73960   7.952  23.666  24.083  0.1684  0.0815  0.2624
31023W        W73961   6.472  21.700  27.459  0.0368  0.4016 -0.0757
31024W        W73962   4.623  23.579  24.413 -0.1260 -0.0702 -0.1302
31025W        W73963   8.089  23.049  24.748  0.3674 -0.3832  0.0735
31026W        W73964   8.268  25.625  25.908  0.0550 -0.2155  0.0799
31027W        W73965   3.204  23.635  26.265 -0.2882  0.1465 -0.3364
31028W        W73966   7.428  23.490  25.229  0.1817  0.1959 -0.1426
31029W        W73967   7.445  23.831  25.700  0.4798  0.0679 -0.0945
31030W        W73968   6.476  22.947  24.985  0.0012  0.0357 -0.0751
31031W        W73969   4.726  21.934  26.212 -0.0012 -0.1115  0.2572
31032W        W73970   4.512  25.923  25.287  0.1051  0.2352  0.1882
31033W        W73971   7.609  23.123  26.243 -0.2060  0.1055 -0.3321
31034W        W73972   8.830  21.789  25.798  0.4131  0.1744 -0.0088
31035W        W73973   5.226  25.676  23.060  0.0478  0.0788 -0.0496
31036W        W73974   6.764  21.595  26.977  0.0205  0.0038  0.1194
31037W        W73975   5.811  24.730  26.937 -0.0024  0.0817 -0.1335
31038W        W73976   4.736  23.678  27.341 -0.0254  0.1658 -0.0554
31039W        W73977   3.209  23.609  24.413 -0.0287  0.0337  0.3318
31040W        W73978   5.871  23.741  26.785 -0.3158 -0.1697  0.0310
31041W        W73979   5.064  24.252  25.196 -0.1496  0.1302  0.1195
31042W        W73980   5.905  25.419  24.720  0.0733  0.0157  0.1787
31043W        W73981   7.259  24.267  26.230 -0.2230  0.0613 -0.0851
31044W        W73982   5.656  22.380  23.901  0.0999  0.1208 -0.0878
31045W        W73983   7.600  22.120  26.300  0.0586 -0.1435  0.2061
31046W        W73984   5.930  22.002  24.709  0.0496  0.1210  0.1489
31047W        W73985   7.426  20.791  24.567 -0.3345 -0.1620 -0.2139
31048W        W73986   7.081  21.108  25.498  0.1718 -0.0562 -0.1289
31049W        W73987   5.597  23.784  25.676 -0.0647  0.1396  0.2328
31050W        W73988   4.211  23.836  24.310  0.1530  0.0238 -0.0411
31051W        W73989   5.816  24.802  24.209 -0.2097 -0.0856  0.1575
31052W        W73990   5.532  24.114  26.053  0.2068 -0.0602 -0.0266
31053W        W73991   5.492  20.289  27.979  0.2219  0.1720 -0.0152
31054W        W73992   4.201  23.591  25.963  0.2222  0.1714 -0.1156
31055W        W73993   5.526  22.442  25.135 -0.0958  0.1030 -0.2204
31056W        W73994   5.718  23.155  24.976  0.1544 -0.1033  0.0696
31057W        W73995   6.975  24.822  22.989  0.2225 -0.0842  0.0599
31058W        W73996   5.007  21.575  26.006  0.1970  0.0656 -0.0868
31059W        W73997   3.712  22.907  24.187 -0.0806  0.1226  0.1474
31060W        W73998   7.331  24.102  24.338 -0.0223  0.0673  0.0138
31061W        W73999   7.703  25.090  25.438  0.0495  0.0918  0.1289
31062W        W74000   5.611  21.676  26.221  0.0287  0.2263  0.2540
31063W        W74001   7.650  24.970  26.501  0.0806 -0.3625 -0.1706
31064W        W74002   3.497  24.655  26.117  0.0642 -0.2154 -0.0677
31065W        W74003   4.046  20.492  27.587 -0.0366  0.0267  0.0792
31066W        W74004   5.014  20.578  27.098  0.1875  0.2273  0.1425
31067W        W74005   4.411  21.314  25.240 -0.2102  0.2121  0.1112
31068W        W74006   5.681  21.548  25.491 -0.0373  0.4367 -0.0024
31069W        W74007   5.629  24.433  24.440  0.3382 -0.1197  0.0653
31070W        W74008   5.875  26.386  22.797 -0.0330 -0.2723 -0.0687
31071W        W74009   6.379  25.322  24.883  0.0973  0.2803 -0.2283
31072W        W74010   6.903  25.727  27.644  0.0266  0.1615 -0.0256
31073W        W74011   4.183  21.892  27.004  0.0468 -0.2032 -0.1402
31074W        W74012   6.722  24.364  24.210  0.3539  0.0280  0.0688
31075W        W74013   6.700  24.283  28.532 -0.1062  0.2159 -0.1926
31076W        W74014   7.631  23.719  23.536 -0.2194 -0.1016  0.3535
31077W        W74015   7.523  24.517  26.582  0.0753  0.2304  0.2893
31078W        W74016   5.674  24.228  23.939 -0.1971  0.1876  0.1509
31079W        W74017   5.434  21.821  26.830 -0.1893  0.3456 -0.0634
31080W        W74018   4.815  22.947  27.815  0.0767  0.0864 -0.1796
31081W        W74019   6.350  23.197  27.304 -0.0617 -0.0214  0.0019
31082W        W74020   4.189  21.888  26.016 -0.1489 -0.0627  0.2161
31083W        W74021   6.296  22.338  24.844 -0.1477 -0.0959  0.1507
31084W        W74022   5.412  25.775  24.606 -0.0190  0.2187  0.1335
31085W        W74023   3.794  22.968  26.317  0.0113 -0.0014 -0.0162
31086W        W74024   6.501  21.979  24.620  0.0758  0.2795 -0.0468
31087W        W74025   5.802  23.015  27.075  0.1320  0.0002 -0.0131
31088W        W74026   6.823  24.482  25.844  0.0870  0.1061 -0.3114
31089W        W74027   6.523  22.634  27.797  0.0932 -0.0747  0.1836
31090W        W74028   5.345  23.254  23.544  0.1995 -0.3942  0.1287
31091W        W74029   7.627  25.687  22.921  0.3072 -0.1967 -0.1223
31092W        W74030   5.401  23.873  26.622 -0.0486  0.5546 -0.0548
31093W        W74031   6.300  24.644  28.595  0.1583 -0.0035 -0.0039
31094W        W74032   5.490  25.959  27.584 -0.0360 -0.1047  0.3931
31095W        W74033   7.969  22.690  26.330 -0.0890  0.0267 -0.2890
31096W        W74034   3.844  22.695  25.801  0.2338 -0.0075  0.2294
31097W        W74035   5.449  22.809  25.382 -0.0017  0.0306  0.2178
31098W        W74036   5.479  23.618  24.791  0.1334 -0.0778  0.0041
31099W        W74037   5.683  22.288  26.971 -0.2491  0.3543  0.2685
31100W        W74038   4.341  22.202  25.096 -0.0631 -0.1189 -0.0350
31101W        W74039   6.878  23.018  23.616 -0.0488  0.0931  0.0437
31102W        W74040   7.127  24.417  27.288 -0.1087 -0.0516  0.1680
31103W        W74041   6.607  24.944  25.580 -0.0373 -0.0176 -0.1516
31104W        W74042   5.587  22.753  29.569  0.1423  0.0304 -0.0296
31105W        W74043   4.443  23.985  27.749 -0.2636  0.0723  0.1125
31106W        W74044   6.835  22.248  27.547  0.1430  0.1078 -0.3699
31107W        W74045   7.290  21.906  27.747 -0.1132 -0.0904  0.0170
31108W        W74046   3.976  23.359  27.721  0.0158  0.4583  0.0722
31109W        W74047   6.864  24.903  30.569 -0.2720 -0.1087  0.0897
31110W        W74048   5.519  23.171  30.355  0.1594 -0.1257 -0.0450
31111W        W74049   5.818  23.022  29.961  0.0932  0.0451 -0.1860
31112W        W74050   8.615  22.463  29.872 -0.0708  0.0137 -0.1460
31113W        W74051   6.683  22.866  29.154 -0.1118  0.1596  0.1907
31114W        W74052   3.743  22.462  28.283 -0.0419  0.1297  0.1538
31115W        W74053   5.383  24.197  29.242  0.1553  0.1176 -0.0154
31116W        W74054   6.505  21.253  27.221  0.0356 -0.2084  0.2480
31117W        W74055   3.618  22.275  29.232 -0.0269 -0.0927  0.0339
31118W        W74056   7.510  22.760  29.746 -0.3484  0.1671  0.1108
31119W        W74057   4.247  23.635  28.218  0.2693  0.0341  0.0193
31120W        W74058   4.944  22.444  28.802 -0.0770 -0.0911 -0.0443
31121W        W74059   5.913  22.415  27.806  0.0128 -0.1376 -0.0846
31122W        W74060   5.901  24.564  29.616  0.0396  0.1174 -0.1710
31123W        W74061   5.791  22.139  28.883  0.1306  0.3446  0.1067
31124W        W74062   5.048  23.740  31.355  0.1088  0.1148  0.0178
31125W        W74063   5.732  23.483  28.504 -0.0714 -0.2251 -0.0308
31126W        W74064   4.705  23.347  28.078  0.0373  0.1104  0.2121
31127W        W74065   4.496  22.690  28.876  0.2438 -0.0848  0.1047
31128W        W74066   5.679  22.830  29.067 -0.0371 -0.2169 -0.0453
31129W        W74067   5.682  22.127  30.226 -0.0573  0.1763  0.2302
31130W        W74068   6.223  21.953  31.612  0.1559 -0.1076  0.3873
31131W        W74069   5.852  26.197  29.652  0.1713  0.0707  0.1751
31132W        W74070   6.221  23.326  30.496 -0.2640  0.0732  0.0058
31133W        W74071   6.881  23.347  31.231 -0.1950  0.0047  0.0259
31134W        W74072   3.937  22.377  28.793 -0.0922  0.2659  0.1187
31135W        W74073   3.866  24.126  30.130 -0.5434  0.0476  0.6508
31136W        W74074   5.019  24.502  29.023 -0.3013 -0.2469 -0.2131
31137W        W74075   6.447  25.190  30.513  0.1054  0.1062  0.0148
31138W        W74076   6.663  23.441  30.260  0.2637  0.3571  0.3948
31139W        W74077   5.430  24.695  29.426 -0.2959 -0.1510 -0.0077
31140W        W74078   3.932  23.911  28.592 -0.0423  0.0021 -0.0939
31141W        W74079   6.234  24.782  31.858 -0.0577 -0.0383 -0.4345
31142W        W74080   5.912  24.540   0.147 -0.2628 -0.1340  0.0631
31143W        W74081   6.156  22.490  28.863  0.1668 -0.0973  0.0829
31144W        W74082   5.944  23.715  29.719  0.4792 -0.2057  0.1560
31145W        W74083   4.854  24.738  26.562 -0.0504  0.1982  0.2049
31146W        W74084   5.837  23.314  29.017 -0.0176 -0.2127  0.0743
31147W        W74085   5.032  23.285  28.438  0.0976  0.3912  0.2171
31148W        W74086   4.751  23.012  29.738 -0.0475 -0.1365  0.1617
31149W        W74087   7.055  21.735  31.754  0.0381 -0.3211  0.0362
31150W        W74088   5.674  25.286  27.770  0.0433  0.4071  0.1787
31151W        W74089   8.375  22.423  28.087  0.0620 -0.1156  0.0196
31152W        W74090   4.707  21.567  26.965 -0.2470 -0.0167  0.0543
31153W        W74091   6.280  21.659  26.935 -0.0228 -0.1435 -0.1508
31154W        W74092   3.853  20.530  28.822  0.1286 -0.3598  0.0634
31155W        W74093   6.177  24.186  29.804  0.3546 -0.0047 -0.1377
31156W        W74094   6.102  21.971  29.294  0.1386  0.1128 -0.1774
31157W        W74095   6.740  24.197  31.205 -0.4093 -0.1988 -0.1740
31158W        W74096   5.769  21.679  27.225  0.0797  0.2029 -0.2458
31159W        W74097   5.426  22.505  28.844  0.0367  0.0078 -0.1173
31160W        W74098   5.852  25.878  30.052  0.0712 -0.0896  0.3946
31161W        W74099   4.874  23.406  28.890  0.0685 -0.1016  0.0574
31162W        W74100   5.068  25.988  27.824  0.3282  0.0595 -0.3361
31163W        W74101   7.308  25.873  30.073  0.0192 -0.1238 -0.0096
31164W        W74102   5.720  24.742  27.734 -0.3542 -0.0437 -0.1172
31165W        W74103   3.447  22.770  29.133 -0.5277 -0.1743  0.0164
31166W        W74104   4.613  24.081  29.633 -0.1612  0.4173  0.1372
31167W        W74105   4.566  23.493  29.787  0.0306 -0.2069 -0.1066
31168W        W74106   4.240  21.394  27.079 -0.2734  0.4320  0.2530
31169W        W74107   9.080  24.688   0.087 -0.3175 -0.1387 -0.1181
31170W        W74108   4.632  24.775  30.572 -0.0299 -0.0875 -0.4186
31171W        W74109   6.515  21.633  29.312 -0.0268  0.0123  0.0802
31172W        W74110   4.486  23.550  29.185  0.0806 -0.3792  0.3052
31173W        W74111   7.475  22.732  31.592  0.0663 -0.0901 -0.1242
31174W        W74112   6.243  24.233  28.897  0.1571  0.0603  0.3276
31175W        W74113   7.221  20.648  29.931 -0.1125 -0.0694  0.0683
31176W        W74114   6.582  22.504  30.680  0.0641 -0.0894 -0.0846
31177W        W74115   4.967  23.610  26.798 -0.0220 -0.4727 -0.0403
31178W        W74116   3.799  22.799  27.895 -0.0875  0.1649 -0.1003
31179W        W74117   7.721  24.087  31.014 -0.0527 -0.2508  0.4381
31180W        W74118   7.198  23.924  27.775 -0.0769  0.0229 -0.5088
31181W        W74119   5.041  24.149  28.270  0.2039 -0.0982 -0.0578
31182W        W74120   5.382  22.530  30.825 -0.0992 -0.0946  0.0446
31183W        W74121   4.914  24.594  29.564 -0.0182 -0.3174  0.0851
31184W        W74122   3.597  24.319  27.443  0.2995  0.0588 -0.2928
31185W        W74123   4.572  23.000  28.491 -0.0362  0.0784  0.3112
31186W        W74124   5.019  24.780  27.840  0.0260 -0.2527 -0.1184
31187W        W74125   3.773  22.701  29.661  0.2417 -0.1458 -0.2138
31188W        W74126   5.286  22.965  29.894  0.0176  0.0337  0.1734
31189W        W74127   6.260  20.849  28.599  0.3185 -0.0970  0.0634
31190W        W74128   3.472  22.939  31.105 -0.1040 -0.1304 -0.0201
31191W        W74129   6.708  21.947  28.449  0.0956 -0.0916 -0.2262
31192W        W74130   4.841  23.811  27.948 -0.1569  0.1450  0.1363
31193W        W74131   7.530  24.544  28.772  0.1107 -0.1562 -0.0214
31194W        W74132   7.325  22.619  28.243 -0.0375  0.2075 -0.5070
31195W        W74133   5.352  23.248  28.078  0.0265  0.2522  0.0463
31196W        W74134   4.265  24.460  30.373 -0.3669 -0.0171 -0.0498
31197W        W74135   3.903  22.231  29.621 -0.1043  0.0271  0.2633
31198W        W74136   3.637  22.870   0.105 -0.0248  0.1179 -0.2893
31199W        W74137   4.162  22.700  28.507  0.1641 -0.0399  0.0770
31200W        W74138   7.407  22.267  31.183  0.1324 -0.0092 -0.0276
31201W        W74139   4.203  23.784  27.249  0.0315  0.2410  0.0358
31202W        W74140   6.453  22.437  29.322  0.0910  0.3008 -0.1010
31203W        W74141   4.925  22.420  28.015 -0.2462 -0.0159  0.0945
31204W        W74142   3.440  23.584  27.730 -0.0433  0.0344 -0.0611
31205W        W74143   6.427  21.238  31.033 -0.1592 -0.2823 -0.0200
31206W        W74144   6.124  23.740  28.631  0.3189 -0.3753 -0.0910
31207W        W74145   7.869  23.174  29.945  0.0725 -0.2201 -0.1640
31208W        W74146   6.991  24.552  30.196 -0.1788  0.2287  0.2666
31209W        W74147   3.128  21.904  30.617 -0.1418  0.2876  0.0230
31210W        W74148   3.722  23.695  28.188 -0.0129  0.3637  0.2808
31211W        W74149   3.818  25.010  29.328  0.1192  0.0063 -0.0694
31212W        W74150   4.782  24.279  28.696 -0.2104  0.2275  0.3315
31213W        W74151   4.018  22.420  27.559  0.0443 -0.0988  0.0760
31214W        W74152   7.743  25.080  30.516  0.0686  0.1458  0.1017
31215W        W74153   5.706  22.517  28.465 -0.2023 -0.0688  0.1253
31216W        W74154   4.239  23.113  29.645  0.1250  0.1213 -0.2507
31217W        W74155   5.588  19.663  31.331  0.6146  0.0555  0.0503
31218W        W74156   8.505  23.827  29.896 -0.3095  0.2033 -0.2214
31219W        W74157   6.771  25.123  30.101  0.0911  0.2376  0.2626
31220W        W74158   4.149  22.648  27.165 -0.0265 -0.1044  0.1040
31221W        W74159   6.935  25.574  30.092  0.0828  0.1339  0.0270
31222W        W74160   3.604  24.595  29.215 -0.1580 -0.1558  0.0789
31223W        W74161   4.184  23.164  28.114  0.2447  0.2959 -0.0180
31224W        W74162   5.856  24.864  29.157  0.1725 -0.0178 -0.2458
31225W        W74163   5.066  22.124  29.225 -0.3127  0.0733  0.0961
31226W        W74164   2.984  22.387  31.189  0.1587 -0.0781 -0.0553
31227W        W74165   6.214  21.729  29.737 -0.0953  0.1612  0.0574
31228W        W74166   3.948  23.384  28.518 -0.1926  0.0732 -0.0875
31229W        W74167   4.921  25.031  29.263 -0.0497 -0.1712  0.3698
31230W        W74168   5.137  21.650  29.246  0.6247 -0.0509  0.0427
31231W        W74169   7.181  21.712  26.748 -0.1047  0.3388  0.2535
31232W        W74170   6.787  22.887  31.054 -0.2595 -0.2345 -0.0128
31233W        W74171   7.169  24.204  29.323 -0.0491  0.1838 -0.2623
31234W        W74172   5.225  22.414  26.908 -0.0412  0.1885 -0.1672
31235W        W74173   6.278  21.533  27.875  0.2957  0.1271  0.2155
31236W        W74174   5.421  23.777  30.065 -0.0819 -0.0875 -0.2659
31237W        W74175   6.775  23.003  30.025 -0.1670 -0.0873  0.1423
31238W        W74176   6.845  22.610  29.702  0.4088 -0.0256  0.2907
31239W        W74177   4.665  23.351  25.873 -0.0333 -0.0307 -0.2251
31240W        W74178   7.544  23.583  27.520  0.0722  0.0025 -0.1674
31241W        W74179   2.715  26.104  29.288  0.3030 -0.0136 -0.1305
31242W        W74180   5.916  23.072  31.165 -0.2452 -0.3010  0.0051
31243W        W74181   7.996  23.905  29.907  0.0800  0.1208 -0.0279
31244W        W74182   5.419  22.047  30.660 -0.2931  0.1383 -0.2436
31245W        W74183   4.591  22.598  27.558 -0.2536  0.1080 -0.0297
31246W        W74184   6.461  22.255  28.046 -0.0748 -0.0768 -0.0144
31247W        W74185   4.959  24.602  27.376 -0.2159  0.1322  0.2113
31248W        W74186   5.530  21.525  30.875  0.2953  0.1685  0.3310
31249W        W74187   6.086  21.113  29.369  0.1872 -0.2075 -0.3520
31250W        W74188   4.939  20.856  30.856  0.2434 -0.0476  0.2082
31251W        W74189   7.145  22.262  31.594  0.1574  0.0671  0.0930
31252W        W74190   7.347  23.534  29.454  0.0600  0.2992 -0.0428
31253W        W74191   5.546  22.303  29.324 -0.2012  0.0428 -0.3153
31254W        W74192   5.034  22.380  27.509 -0.0946 -0.2129  0.4349
31255W        W74193   7.108  21.285   0.015 -0.4162  0.2008 -0.3803
31256W        W74194   4.557  23.099  30.622  0.2135 -0.1797  0.2796
31257W        W74195   3.121  25.581  30.893 -0.3960  0.1187  0.2241
31258W        W74196   7.456  23.968  30.630  0.1935  0.0298 -0.1967
31259W        W74197   8.232  23.280  29.163 -0.1006  0.0055 -0.1937
31260W        W74198   6.222  21.897  30.250 -0.0354 -0.0542 -0.0158
31261W        W74199   6.102  20.380  28.498 -0.2591  0.0225 -0.1482
31262W        W74200   5.731  23.672  27.935  0.3343 -0.1914 -0.0334
31263W        W74201   4.287  22.233  28.201 -0.0174  0.2200 -0.0164
31264W        W74202   4.471  21.977  30.458  0.0080 -0.1445  0.2069
31265W        W74203   5.945  23.141  29.477 -0.4118 -0.0418  0.2501
31266W        W74204   5.064  22.888  27.355  0.0098  0.1276 -0.0969
31267W        W74205   6.932  23.522  29.859 -0.2831  0.0039 -0.0138
31268W        W74206   4.589  24.996  27.518 -0.2195  0.1853 -0.0802
31269W        W74207   6.581  22.539  30.151 -0.2168  0.1553  0.0299
31270W        W74208   4.969  25.125  30.615  0.0530 -0.0935  0.3453
31271W        W74209   5.662  22.110  26.461 -0.5514  0.6794 -0.3092
31272W        W74210   4.427  24.381  26.444  0.2503  0.1130  0.4355
31273W        W74211   4.865  21.971  29.713 -0.0013  0.0607 -0.0378
31274W        W74212   7.240  23.727  28.968 -0.0243  0.0585  0.2600
31275W        W74213   4.054  22.874  30.544  0.2464  0.0255  0.1157
31276W        W74214   4.464  22.199  28.685 -0.0745  0.0801  0.1035
31277W        W74215   5.177  26.115  29.281  0.1058 -0.2484 -0.2048
31278W        W74216   5.081  22.040  30.177  0.0951 -0.2433  0.2977
31279W        W74217   5.701  21.564  28.733  0.0345 -0.2542  0.2307
31280W        W74218   6.381  23.225  30.985  0.1170 -0.0611 -0.1565
31281W        W74219   4.746  24.279  30.114  0.1539 -0.3347  0.2942
31282W        W74220   4.576  21.576  27.920 -0.0306 -0.0745 -0.0744
31283W        W74221   5.838  22.618  31.135  0.0264 -0.1028 -0.1041
31284W        W74222   5.762  22.012  29.700 -0.0454 -0.1001 -0.3068
31285W        W74223   4.304  23.870  26.424  0.3545  0.0106  0.0162
31286W        W74224   6.321  25.741  30.276  0.1794 -0.0749  0.0863
31287W        W74225   5.284  22.194  28.364 -0.1057 -0.1387 -0.1769
31288W        W74226   5.154  25.659  28.670  0.1412  0.0021 -0.0193
31289W        W74227   5.415  23.398  31.308  0.0168  0.0025 -0.4953
31290W        W74228   6.651  22.992  30.527  0.1735 -0.0118  0.0760
31291W        W74229   5.977  22.486  29.450 -0.3170  0.2291 -0.1350
31292W        W74230   4.676  22.520  28.371 -0.1984 -0.2720  0.0365
31293W        W74231   2.991  22.955  28.986 -0.2086 -0.1905 -0.1777
31294W        W74232   6.452  24.677  30.364  0.1366 -0.0034  0.0325
31295W        W74233   6.344  22.469  31.074 -0.5731  0.2171 -0.0899
31296W        W74234   4.687  23.355  31.470 -0.0257  0.1174 -0.1904
31297W        W74235   4.629  21.779  29.315 -0.1228 -0.2239 -0.2374
31298W        W74236   7.005  25.263  28.878  0.2376  0.4664  0.1592
31299W        W74237   4.513  22.245  30.001 -0.0597 -0.1331 -0.2010
31300W        W74238   5.336  24.694  28.422  0.1780 -0.1754 -0.3632
31301W        W74239   4.302  21.951  29.694 -0.0988 -0.0302  0.3534
31302W        W74240   4.762  23.645  28.463  0.2384  0.0277  0.0362
31303W        W74241   4.501  20.090  29.319 -0.0599 -0.2166 -0.1036
31304W        W74242   5.671  23.927  28.847  0.0222  0.0473  0.1121
31305W        W74243   5.438  24.419  27.993  0.2009 -0.3101  0.0985
31306W        W74244   5.091  23.734  29.239  0.2020  0.2415  0.1409
31307W        W74245   6.814  20.836  29.451 -0.3158 -0.1809 -0.0999
31308W        W74246   6.432  23.058  28.179  0.1189 -0.0597 -0.1651
31309W        W74247   7.162  23.253  29.089  0.0491  0.0133 -0.3449
31310W        W74248   7.525  20.909  31.272 -0.0574 -0.3148 -0.0536
31311W        W74249   6.749  23.069  27.696 -0.1947  0.0521  0.0945
31312W        W74250   6.308  21.789   0.344  0.2295  0.0322 -0.2765
31313W        W74251   4.267  22.429  30.383 -0.1742  0.1593 -0.1079
31314W        W74252   6.660  23.769  28.952 -0.3053  0.1393 -0.0476
31315W        W74253   4.371  23.754  28.736 -0.0978 -0.1864 -0.1950
31316W        W74254   8.865  24.438  31.638  0.0223 -0.2983  0.1550
31317W        W74255   4.116  24.512  31.874  0.0906 -0.1484 -0.4494
31318W        W74256   5.266  20.909  28.762 -0.1258 -0.0353 -0.4017
31319W        W74257   4.306  21.667  28.306  0.2940  0.0265 -0.3083
31320W        W74258   4.559  24.451  29.253  0.1313  0.1338  0.0129
31321W        W74259   7.827  23.527  30.921 -0.3057 -0.0193  0.3415
31322W        W74260   5.475  23.037  28.597 -0.0996 -0.2683 -0.0771
31323W        W74261   6.780  21.672  29.767 -0.1452 -0.1027  0.1647
31324W        W74262   5.141  24.143  29.739  0.2297 -0.2562  0.1894
31325W        W74263   5.995  22.976  28.564  0.1795 -0.1690 -0.1650
31326W        W74264   5.609  22.623  27.333  0.4765 -0.4287 -0.0959
31327W        W74265   5.419  24.359  28.774 -0.0612  0.0396  0.0664
31328W        W74266   5.493  22.198  31.167  0.1681 -0.3488 -0.0297
31329W        W74267   5.868  22.525  29.896 -0.1136  0.1034 -0.1476
31330W        W74268   5.634  22.834  28.114  0.2569  0.0873 -0.1042
31331W        W74269   4.665  21.220  30.100  0.0707  0.1503  0.1633
31332W        W74270   5.346  21.740  29.724  0.2572 -0.0153 -0.4033
31333W        W74271   5.544  22.994  30.852  0.2822  0.0810  0.0760
31334W        W74272   4.313  23.843  30.948  0.3618 -0.0229  0.2741
31335W        W74273   6.658  25.920  30.688 -0.1401  0.0057 -0.0653
31336W        W74274   6.332  22.741  26.895 -0.0336 -0.0647  0.4127
31337W        W74275   7.915  21.475  29.920 -0.2840  0.0396  0.0446
31338W        W74276   6.264  23.672  28.114  0.0485  0.1657  0.2356
31339W        W74277   5.285  21.989  28.823  0.1160  0.0653  0.0256
31340W        W74278   5.110  21.348  28.842  0.1921  0.0164 -0.0139
31341W        W74279   7.218  24.514   0.242 -0.1036 -0.0022  0.2282
31342W        W74280   4.544  22.204  27.276  0.1709 -0.2495 -0.0916
31343W        W74281   4.753  23.580  31.002  0.1163  0.3099  0.1043
31344W        W74282   6.452  23.713  27.222  0.0453  0.1202  0.1772
31345W        W74283   6.186  22.938  29.065  0.0376  0.0731  0.2106
31346W        W74284   5.557  21.179  29.136  0.0057 -0.4593  0.1960
31347W        W74285   4.681  22.387  29.223  0.3399 -0.0061 -0.0612
31348W        W74286   5.387  24.144  31.431  0.0906  0.1437  0.2337
31349W        W74287   3.781  22.943  28.361 -0.0884  0.0443  0.1609
31350W        W74288   6.747  22.541  28.376  0.2916  0.4681 -0.0731
31351W        W74289   6.483  24.117  29.403  0.2144  0.2670  0.0274
31352W        W74290   9.673  24.275   0.777  0.0907 -0.1669  0.1498
31353W        W74291   6.378  21.206  26.614  0.2045  0.4335 -0.1432
31354W        W74292   7.834  22.960  30.921  0.0478 -0.0388 -0.0975
31355W        W74293   3.506  25.160  28.411 -0.1823  0.1259  0.0455
31356W        W74294   6.267  20.618  29.553  0.0035 -0.3330 -0.0574
31357W        W74295   4.024  25.664  29.555  0.1230  0.0976 -0.1395
31358W        W74296   3.012  24.607  30.409  0.1337  0.0390 -0.1765
31359W        W74297   5.369  26.233  30.061  0.2073  0.0319 -0.1287
31360W        W74298   6.593  21.667  31.920  0.0214 -0.4927  0.0603
31361W        W74299   6.224  22.888  30.236 -0.0876  0.2068  0.0324
31362W        W74300   5.865  22.288  30.742 -0.0360 -0.3266 -0.1399
31363W        W74301   9.445  22.467  30.229 -0.2785  0.0326  0.0311
31364W        W74302   6.420  24.258  31.938 -0.0132 -0.1022  0.0903
31365W        W74303   4.162  22.654  29.961 -0.0922  0.1991 -0.2404
31366W        W74304   6.154  23.823  30.671 -0.1595 -0.0697 -0.2518
31367W        W74305   6.855  24.042  29.789 -0.2330  0.1503  0.0019
31368W        W74306   4.138  24.025  29.196 -0.0398  0.0345 -0.1270
31369W        W74307   2.867  22.340  30.694 -0.1633 -0.2127 -0.2385
31370W        W74308   6.142  23.904   0.354  0.3549 -0.1728  0.1719
31371W        W74309   5.973  24.166  29.354 -0.0719 -0.0172  0.0959
31372W        W74310   7.202  21.428  27.727 -0.1752  0.1335 -0.0209
31373W        W74311   7.125  24.204  28.803 -0.0971  0.3044  0.1658
31374W        W74312   5.024  24.473  31.328  0.3954 -0.2033 -0.0260
31375W        W74313   3.068  24.222  30.787 -0.1279 -0.2275  0.0634
31376W        W74314   5.546  25.482  28.991  0.0929  0.4370 -0.2882
31377W        W74315   6.696  23.454  28.094  0.1539  0.0272  0.2334
31378W        W74316   6.491  22.838  28.665 -0.1427  0.3459  0.1185
31379W        W74317   5.980  24.650  30.863  0.0918 -0.1822 -0.3364
31380W        W74318   5.145  22.729  28.395 -0.1762  0.2063 -0.0517
31381W        W74319   5.903  24.537  28.823  0.2353 -0.1886  0.2371
31382W        W74320   2.909  23.262  29.388  0.2007  0.0248 -0.1579
31383W        W74321   7.139  24.765  28.530  0.1371  0.0395  0.0157
31384W        W74322   5.530  26.132  28.806  0.1627 -0.1765  0.0189
31385W        W74323   8.868  25.012   0.654  0.1656 -0.0527  0.0480
31386W        W74324   5.523  20.764  26.918  0.0820  0.0215 -0.1233
31387W        W74325   7.991  22.811  28.996  0.1773 -0.0332 -0.0212
31388W        W74326   7.901  20.798  26.985 -0.1428 -0.1188  0.1219
31389W        W74327   7.019  23.888  30.784  0.1221 -0.1318 -0.1164
31390W        W74328   5.072  22.693  29.437  0.0682  0.1590  0.1872
31391W        W74329   4.281  21.337  27.674 -0.2257  0.1140  0.3472
31392W        W74330   4.477  24.613  29.899 -0.2080 -0.0581 -0.3528
31393W        W74331   6.895  22.383  31.150 -0.0798  0.1066  0.2109
31394W        W74332   3.540  25.566  31.168  0.0706 -0.1304  0.4519
31395W        W74333   7.865  24.372  29.699 -0.2646 -0.1663  0.1002
31396W        W74334   5.093  21.995  27.939  0.1491 -0.0120 -0.2610
31397W        W74335   4.670  23.996  29.077 -0.0497  0.0371  0.1247
31398W        W74336   5.835  20.900  27.593  0.2277 -0.1289 -0.0360
31399W        W74337   6.180  24.169  28.293 -0.0751 -0.0888 -0.1334
31400W        W74338   3.922  21.988  28.509 -0.2192  0.0672 -0.0998
31401W        W74339   5.616  24.183  29.769  0.0498  0.1360  0.0757
31402W        W74340   5.395  24.918  28.950  0.0920  0.2385 -0.0505
31403W        W74341   5.845  25.388  30.255 -0.3360 -0.2430 -0.3186
31404W        W74342   3.107  21.987  27.966 -0.0381  0.0549 -0.3422
31405W        W74343   6.282  21.846  28.274  0.0846  0.4064  0.1704
31406W        W74344   5.072  22.963  30.717  0.1510  0.1140 -0.0447
31407W        W74345   6.723  21.177  31.685 -0.1828  0.4322 -0.0653
31408W        W74346   4.078  24.308  27.945 -0.0010 -0.1035 -0.2613
31409W        W74347   5.676  21.968  28.132  0.1199  0.1772 -0.3553
31410W        W74348   5.432  22.897  31.375  0.2746 -0.0743 -0.1983
31411W        W74349   4.966  22.535  29.930  0.1023  0.0990  0.1114
31412W        W74350   5.445  23.097  25.953  0.1054 -0.0753 -0.1704
31413W        W74351   6.786  23.451  30.745 -0.3439  0.0444 -0.0077
31414W        W74352   5.598  22.103  27.521 -0.1569 -0.2188  0.0644
31415W        W74353   6.065  24.300  31.440  0.2743 -0.1237  0.1204
31416W        W74354   3.743  22.922  27.392  0.2450 -0.2823 -0.0294
31417W        W74355   5.351  21.657  28.393  0.2214  0.0504 -0.1891
31418W        W74356   4.554  22.080  27.784 -0.2314  0.0531  0.1889
31419W        W74357   5.585  23.373  29.736  0.0494 -0.0431 -0.2268
31420W        W74358   6.517  23.750  31.060 -0.0688  0.2496 -0.1140
31421W        W74359   3.995  21.026  28.822 -0.0850  0.0180 -0.2264
31422W        W74360   8.030  23.234  28.668  0.0400 -0.0464 -0.2272
31423W        W74361   8.065  24.244  28.740  0.1415 -0.2170 -0.0732
31424W        W74362   5.985  25.970  27.544  0.0711 -0.0993  0.0519
31425W        W74363   8.735  23.258  27.382 -0.0097 -0.1672  0.1307
31426W        W74364   6.440  24.788  30.889  0.1241  0.0030  0.1178
31427W        W74365   4.514  22.792  30.236 -0.0222 -0.3051  0.0438
31428W        W74366   6.342  26.033  29.741  0.0111 -0.1551 -0.0812
31429W        W74367   9.333  25.504  30.448 -0.0046  0.0986  0.1288
31430W        W74368   4.823  21.409  28.423  0.2854  0.1771  0.0285
31431W        W74369   4.498  21.190  28.884  0.1451 -0.0522  0.0637
31432W        W74370   5.632  24.100  28.366 -0.0813  0.2526  0.2439
31433W        W74371   7.200  21.118  29.722 -0.2700  0.0437 -0.2118
31434W        W74372   7.081  22.084  30.815  0.5886 -0.1497  0.0648
31435W        W74373   6.707  25.574  26.734 -0.1994 -0.1764 -0.1077
31436W        W74374   7.813  23.219  31.831  0.0364 -0.1427  0.1720
31437W        W74375   5.938  23.494  30.138  0.2072 -0.0661 -0.0618
31438W        W74376   4.919  25.743  31.277  0.0513 -0.2522 -0.0635
31439W        W74377   5.326  22.844  27.738 -0.0523  0.1498 -0.1487
31440W        W74378   5.806  23.472  30.822  0.2670 -0.1440 -0.2402
31441W        W74379   7.120  24.090  30.267 -0.1598 -0.3429 -0.5453
31442W        W74380   6.055  26.135  28.926  0.0352  0.1245  0.1777
31443W        W74381   6.588  23.813  28.423  0.1839 -0.1785 -0.1061
31444W        W74382   7.716  23.948  28.941  0.2857 -0.0174  0.4278
31445W        W74383   8.089  24.812  29.816  0.0909 -0.0993  0.1822
31446W        W74384   5.822  21.764  30.586  0.0320  0.0953 -0.0883
31447W        W74385   6.665  21.390  28.897 -0.2476 -0.1899  0.4397
31448W        W74386   7.429  21.739  27.192 -0.2679  0.0685  0.2812
31449W        W74387   4.252  23.192  28.870  0.0872  0.3020  0.2196
31450W        W74388   3.609  22.082  27.913 -0.0710  0.1041 -0.1273
31451W        W74389   5.195  24.323  26.549  0.0502 -0.0776 -0.0319
31452W        W74390   4.123  24.413  28.507 -0.2056  0.1283  0.0231
31453W        W74391   4.597  22.504   0.002  0.3031  0.1007 -0.0683
31454W        W74392   3.203  23.315  31.040  0.4859  0.0171 -0.3204
31455W        W74393   3.473  23.306  28.623 -0.0134  0.1170 -0.1565
31456W        W74394   4.328  22.706  28.033  0.0864 -0.2292  0.1546
31457W        W74395   6.759  25.211  27.817  0.0202 -0.0238  0.0015
31458W        W74396   3.873  21.455  28.594  0.3541 -0.1606  0.2623
31459W        W74397   3.053  21.673  30.116  0.2932  0.0058 -0.0785
31460W        W74398   6.450  24.751  29.809  0.2491 -0.1112 -0.0841
31461W        W74399   6.860  25.166  28.331 -0.1204 -0.2455 -0.3714
31462W        W74400   6.181  22.624  28.245 -0.2280 -0.2604  0.2069
31463W        W74401   7.306  24.696  31.303 -0.0518 -0.2403  0.0224
31464W        W74402   2.548  24.238  28.356  0.3024 -0.1565 -0.1948
31465W        W74403   5.347  21.425  31.350 -0.0583 -0.0945  0.0924
31466W        W74404   4.490  21.022  31.572  0.0088 -0.0248 -0.1984
31467W        W74405   3.552  21.729  28.317 -0.1209  0.0616  0.1750
31468W        W74406   6.037  21.607  31.022 -0.1456 -0.1908 -0.1615
31469W        W74407   6.959  25.406  30.588 -0.1660  0.2381  0.1682
31470W        W74408   6.395  23.304  28.636 -0.0397 -0.1949  0.0241
31471W        W74409   6.371  22.765  29.748  0.0228  0.1024  0.0743
31472W        W74410   6.343  23.801  30.048 -0.2926 -0.0931  0.0082
31473W        W74411   3.229  20.477  30.360  0.1482  0.0023 -0.2810
31474W        W74412   7.542  23.051  28.769  0.0243 -0.0548  0.0324
31475W        W74413   4.921  23.833  30.090 -0.0232 -0.3173 -0.0280
31476W        W74414   7.145  23.890  28.401 -0.0610 -0.0502 -0.1003
31477W        W74415   6.800  20.972  29.994  0.1482  0.5089  0.1113
31478W        W74416   6.723  23.207  29.568 -0.0002  0.0795 -0.0161
31479W        W74417   4.301  23.382  31.089 -0.1959 -0.1793  0.2874
31480W        W74418   4.483  24.893  31.317 -0.0381 -0.1426 -0.2184
31481W        W74419   7.588  23.082  29.328  0.0288 -0.0879 -0.1286
31482W        W74420   5.402  20.541  27.472  0.2197  0.0024 -0.0613
31483W        W74421   6.009  22.593  26.557  0.0071 -0.4553  0.1095
31484W        W74422   6.290  23.243  29.925  0.3470  0.1169  0.0512
31485W        W74423   5.148  23.912  28.716 -0.0863  0.0176  0.0520
31486W        W74424   4.729  21.939  28.286  0.3175  0.0125  0.0436
31487W        W74425   5.394  22.310  29.839  0.4235 -0.0036 -0.1575
31488W        W74426   6.204  25.013  29.478  0.0445  0.2127  0.1705
31489W        W74427   6.560  23.027  31.797  0.0524  0.2605 -0.0975
31490W        W74428   5.231  23.328  27.219 -0.5376  0.0396  0.3077
31491W        W74429   6.444  23.354  29.199 -0.2945  0.1303 -0.0997
31492W        W74430   6.913  24.742  31.027  0.2191  0.0203 -0.1644
31493W        W74431   6.316  26.004  31.090  0.0408 -0.2013 -0.1687
31494W        W74432   6.632  23.919  30.444  0.1666 -0.1096  0.1155
31495W        W74433   8.311  22.893  30.036  0.0047  0.0577  0.0356
31496W        W74434   4.073  22.120  30.696  0.1413 -0.2353  0.0244
31497W        W74435   4.090  20.839  27.971 -0.2832  0.2279  0.0877
31498W        W74436   4.470  24.179  28.235 -0.1211 -0.3077 -0.0801
31499W        W74437   6.183  22.410  30.371  0.0378  0.4925  0.4277
31500W        W74438   4.210  22.126  29.185 -0.0269  0.1597  0.3851
31501W        W74439   6.129  21.978  27.771  0.4243  0.1357 -0.0749
31502W        W74440   4.007  25.761  31.047  0.0777  0.0777  0.1284
31503W        W74441   6.201  22.407  31.567 -0.4701  0.0075  0.2744
31504W        W74442   5.768  21.775  31.496  0.1514  0.0386 -0.0670
31505W        W74443   5.812  24.179  30.858 -0.0130  0.3729 -0.1110
31506W        W74444   4.287  23.242  30.189 -0.2942 -0.0774  0.2867
31507W        W74445   3.693  25.125  30.815  0.1892 -0.4040  0.5091
31508W        W74446   6.379  25.047   0.827 -0.3017  0.0395 -0.1463
31509W        W74447   5.048  25.733   0.782  0.1886 -0.1779 -0.0011
31510W        W74448   5.902  22.838  31.655 -0.0028  0.1604  0.0606
31511W        W74449   5.633  23.687  29.280 -0.2697 -0.1329  0.1640
31512W        W74450   7.970  23.453  31.442  0.0988 -0.0155  0.1678
31513W        W74451   7.237  25.042   1.253  0.3263 -0.0227 -0.2735
31514W        W74452   6.302  24.312  31.012 -0.1132 -0.1047 -0.1518
31515W        W74453   4.569  22.021  31.891 -0.0742 -0.1469 -0.1256
31516W        W74454   8.177  23.794  30.646 -0.0729 -0.1887 -0.2465
31517W        W74455   4.913  23.186   0.217  0.0278  0.0079 -0.0596
31518W        W74456   6.086  22.834   0.155  0.0518 -0.1707  0.1367
31519W        W74457   3.201  25.750   0.765 -0.2416  0.3578 -0.2344
31520W        W74458   5.303  23.138  29.291 -0.1261  0.2456 -0.0060
31521W        W74459   7.423  24.223  31.476 -0.2239 -0.0813 -0.1411
31522W        W74460   3.414  22.331  30.671  0.2867  0.0559 -0.2452
31523W        W74461   4.171  23.432  31.818  0.2761 -0.2630 -0.1066
31524W        W74462   3.703  22.377  31.830  0.1075  0.0225  0.1292
31525W        W74463   4.933  25.686   2.885 -0.2629  0.2332 -0.0029
31526W        W74464   7.048  22.453   0.961  0.0333  0.3576  0.1907
31527W        W74465   5.421  23.760  31.684 -0.1150 -0.2837  0.1994
31528W        W74466   5.729  22.712  30.352  0.3540 -0.1131  0.1315
31529W        W74467   5.061  23.419  29.655  0.2423 -0.0532  0.0900
31530W        W74468   4.081  24.200  29.658 -0.1631 -0.0732  0.0784
31531W        W74469   4.841  24.770  31.651  0.0246 -0.2298 -0.3420
31532W        W74470   5.493  24.599  29.998 -0.0241 -0.1872  0.1755
31533W        W74471   5.709  22.296  31.614  0.3927 -0.0310 -0.0630
31534W        W74472   6.363  24.655   0.376 -0.0840  0.0835  0.0267
31535W        W74473   4.830  22.830  31.613 -0.0950  0.1660 -0.2924
31536W        W74474   9.436  24.976   0.432 -0.1377 -0.0324  0.3343
31537W        W74475   6.799  23.528  31.753 -0.0105  0.2211  0.0576
31538W        W74476   3.838  22.518  30.887  0.3206 -0.0254 -0.2479
31539W        W74477   4.719  24.445   0.085 -0.1823  0.2506  0.1828
31540W        W74478   4.047  24.851  31.562 -0.0774  0.3085 -0.0485
31541W        W74479   7.468  23.811  29.854 -0.0789  0.0853  0.1904
31542W        W74480   7.043  25.223  31.243 -0.1999  0.0533  0.2416
31543W        W74481   6.462  24.488   0.860 -0.1181  0.0287 -0.2728
31544W        W74482   8.334  23.544  31.778  0.0832  0.0615  0.0482
31545W        W74483   6.438  23.858  31.555 -0.1003 -0.3947  0.0571
31546W        W74484   4.979  23.891  30.572  0.1867 -0.0319 -0.1325
31547W        W74485   5.607  24.575  31.267 -0.0239  0.1285  0.0017
31548W        W74486   4.324  22.497  30.948  0.0998  0.1842 -0.0385
31549W        W74487   4.961  24.023  31.735  0.1757  0.1654 -0.0915
31550W        W74488   5.728  22.431   0.192  0.1110 -0.0533  0.0846
31551W        W74489   6.044  23.843  31.823 -0.2961 -0.3750 -0.0315
31552W        W74490   7.881  25.343   0.474 -0.2873  0.0482  0.0014
31553W        W74491   4.010  24.287  31.145  0.3186 -0.1179  0.0958
31554W        W74492   4.982  25.084   1.012 -0.1282  0.0920  0.0802
31555W        W74493   4.984  23.485   0.592  0.0356  0.3151  0.1076
31556W        W74494   4.963  23.361  30.251  0.3082 -0.2249  0.0703
31557W        W74495   5.251  24.194  30.226  0.0829  0.1774  0.1527
31558W        W74496   5.244  24.243   0.150  0.0233  0.0565  0.2046
31559W        W74497   6.087  22.816  30.760 -0.2059 -0.0198  0.0344
31560W        W74498  11.112  24.542  31.718  0.2926 -0.2425  0.1813
31561W        W74499   6.121  24.781  31.362 -0.1983 -0.0709 -0.0786
31562W        W74500   7.465  24.626  30.560  0.2773  0.2851 -0.1613
31563W        W74501   4.769  24.077  31.021  0.3101 -0.0236 -0.0703
31564W        W74502   3.168  23.544   0.896  0.3224  0.0094 -0.0932
31565W        W74503   4.370  23.894  30.053  0.0170  0.0642 -0.0076
31566W        W74504   3.492  24.243  31.098  0.1896 -0.0084 -0.3423
31567W        W74505   4.888  22.584  31.094  0.1224  0.0662  0.4709
31568W        W74506   5.867  24.002  30.198  0.2238  0.0273 -0.2786
31569W        W74507   7.784  23.643  30.270 -0.0406  0.0659  0.0165
31570W        W74508   8.090  23.804   0.645 -0.1434  0.2561  0.0140
31571W        W74509   4.639  28.889  20.805 -0.2144  0.1103  0.2808
31572W        W74510   3.835  26.760  16.946 -0.0820 -0.0762  0.1881
31573W        W74511   5.960  25.212  16.573  0.3025 -0.1327  0.1033
31574W        W74512   7.077  26.861  17.115  0.3190  0.1753  0.3433
31575W        W74513   4.088  25.629  17.046  0.3045 -0.1163  0.0457
31576W        W74514   6.937  29.819  16.709 -0.1609 -0.1812 -0.1866
31577W        W74515   3.386  25.244  18.737 -0.2913 -0.0560 -0.0612
31578W        W74516   6.075  28.914  18.502  0.3905 -0.1329 -0.0842
31579W        W74517   5.942  28.430  19.767  0.0636 -0.1097 -0.1697
31580W        W74518   6.874  27.914  17.049  0.0552  0.1359  0.0115
31581W        W74519   4.235  26.369  18.851  0.0182  0.2731  0.0431
31582W        W74520   4.230  28.688  18.880  0.0089  0.2366 -0.3237
31583W        W74521   5.997  24.299  17.461  0.1648  0.1551 -0.3157
31584W        W74522   4.783  25.220  18.722  0.1315  0.0138  0.0914
31585W        W74523   6.094  26.692  18.065  0.1281 -0.3329  0.0344
31586W        W74524   3.395  27.229  17.735  0.1962 -0.1483  0.0463
31587W        W74525   4.843  26.707  19.425 -0.0242  0.4425 -0.1971
31588W        W74526   5.617  26.375  16.722  0.1473 -0.1641 -0.2391
31589W        W74527   5.624  28.276  17.587 -0.0667 -0.1097 -0.1472
31590W        W74528   5.208  26.952  20.667 -0.1763  0.0082 -0.2037
31591W        W74529   5.377  26.019  20.804 -0.4254  0.0121  0.1940
31592W        W74530   7.087  28.165  17.597 -0.3099  0.0046  0.2007
31593W        W74531   4.045  27.074  16.148 -0.2076 -0.1016 -0.0419
31594W        W74532   3.483  26.331  17.683 -0.0063 -0.1410  0.0094
31595W        W74533   4.297  26.039  17.837 -0.1148 -0.2377  0.1781
31596W        W74534   6.593  25.958  17.545 -0.0576 -0.1272  0.1377
31597W        W74535   7.575  27.830  16.179 -0.0949  0.1925 -0.1377
31598W        W74536   5.527  28.811  18.597 -0.3509  0.4383  0.1108
31599W        W74537   5.712  29.122  18.146  0.0550 -0.3461  0.3016
31600W        W74538   6.305  26.864  18.999  0.0630  0.2023 -0.0875
31601W        W74539   3.836  26.116  16.925  0.2352 -0.0423 -0.2974
31602W        W74540   2.304  29.366  18.496  0.1870 -0.0174  0.0770
31603W        W74541   4.684  27.820  18.065 -0.0278 -0.1923 -0.1258
31604W        W74542   8.269  28.626  18.180  0.0632  0.0177 -0.1301
31605W        W74543   5.140  28.043  19.434  0.2000 -0.1032 -0.1505
31606W        W74544   5.973  29.268  19.475  0.1040 -0.5785 -0.1917
31607W        W74545   4.115  28.154  16.528 -0.1964  0.2049  0.1594
31608W        W74546   6.294  28.609  18.822 -0.1246  0.0011  0.0701
31609W        W74547   4.193  28.566  19.473  0.0270  0.2165  0.2852
31610W        W74548   4.865  26.814  18.437  0.0789 -0.1133 -0.0636
31611W        W74549   3.975  28.032  17.063 -0.0402 -0.1048 -0.1230
31612W        W74550   4.772  28.318  16.782  0.0822  0.1313 -0.1656
31613W        W74551   5.717  27.591  17.515 -0.2756  0.2034 -0.3690
31614W        W74552   4.364  28.229  19.125 -0.3706  0.0264 -0.2984
31615W        W74553   2.906  28.381  17.987 -0.0382  0.2186  0.2186
31616W        W74554   8.098  25.803  19.629  0.3283  0.2047  0.2801
31617W        W74555   4.566  28.446  15.842  0.2568  0.1394 -0.0792
31618W        W74556   6.941  27.399  17.071 -0.1586 -0.0871 -0.1123
31619W        W74557   5.984  27.579  16.934  0.3586  0.0769  0.0050
31620W        W74558   7.720  26.584  18.005  0.0795  0.2183  0.1249
31621W        W74559   4.465  26.931  19.167 -0.0603  0.0463  0.1544
31622W        W74560   3.910  28.963  17.862  0.0161  0.1936  0.1540
31623W        W74561   5.113  26.557  17.601 -0.3158 -0.0299 -0.2541
31624W        W74562   6.805  28.421  17.006 -0.1224  0.2388 -0.0770
31625W        W74563   4.646  28.438  17.235 -0.0623 -0.2233 -0.4216
31626W        W74564   5.391  26.422  19.522  0.1612 -0.0359  0.2114
31627W        W74565   5.127  28.464  19.717 -0.3130  0.2732  0.3463
31628W        W74566   3.708  26.467  18.906  0.0638  0.0602 -0.1465
31629W        W74567   6.385  28.365  16.654 -0.2838 -0.4207 -0.1059
31630W        W74568   7.424  29.037  17.729  0.1229 -0.0347 -0.0336
31631W        W74569   6.049  29.155  16.461 -0.0673 -0.1671  0.1360
31632W        W74570   4.344  26.794  17.095 -0.1737  0.1178  0.2084
31633W        W74571   2.883  27.921  19.525 -0.2282 -0.1696  0.0517
31634W        W74572   3.008  26.955  18.865 -0.0065 -0.0568  0.0129
31635W        W74573   4.677  24.909  16.960  0.1251 -0.1728  0.1472
31636W        W74574   6.979  27.980  18.382 -0.2037  0.0744 -0.2552
31637W        W74575   3.995  29.563  19.534 -0.0338 -0.0248  0.1434
31638W        W74576   7.084  25.400  19.192 -0.2437  0.1014 -0.2452
31639W        W74577   5.784  27.884  17.910 -0.0867  0.2824  0.0518
31640W        W74578   5.614  27.542  18.238 -0.1360  0.0986  0.1069
31641W        W74579   6.970  27.741  16.142 -0.1422 -0.0534 -0.1866
31642W        W74580   5.193  26.056  16.745 -0.0011  0.1025  0.1346
31643W        W74581   6.844  26.347  18.580 -0.2993 -0.1104 -0.1591
31644W        W74582   4.598  27.866  16.492  0.0832 -0.3114 -0.0287
31645W        W74583   5.057  28.692  16.936  0.1704  0.0986  0.1162
31646W        W74584   6.328  29.909  18.068 -0.1904 -0.0949  0.2042
31647W        W74585   7.375  27.437  17.850  0.0784 -0.1566  0.0862
31648W        W74586   3.732  28.063  18.233  0.1313  0.0351  0.0521
31649W        W74587   5.352  27.087  19.632  0.0818 -0.2178 -0.1383
31650W        W74588   4.472  30.717  19.955  0.4637  0.2308 -0.0627
31651W        W74589   4.861  27.362  16.239 -0.1421 -0.2849 -0.0827
31652W        W74590   4.120  26.506  18.036  0.0877  0.1475 -0.2215
31653W        W74591   4.643  27.187  17.077  0.2256  0.2215 -0.0785
31654W        W74592   3.847  26.832  19.415 -0.0629  0.1076  0.0814
31655W        W74593   5.819  27.747  18.706  0.1385  0.0102 -0.1368
31656W        W74594   5.802  27.251  16.566 -0.0591  0.1125 -0.1807
31657W        W74595   3.849  25.197  18.611 -0.2036  0.0744  0.1646
31658W        W74596   7.195  25.980  17.307  0.0224 -0.2355  0.2121
31659W        W74597   4.175  27.425  17.618 -0.1231  0.3775  0.1047
31660W        W74598   8.013  29.666  18.029  0.0996 -0.1026  0.0168
31661W        W74599   7.807  27.274  16.126  0.1685  0.0698 -0.0242
31662W        W74600   6.772  28.019  16.570  0.2164  0.1902  0.1615
31663W        W74601   4.013  27.367  18.841 -0.0494  0.3232 -0.0331
31664W        W74602   4.903  26.073  17.861  0.2359  0.1391  0.0441
31665W        W74603   4.405  26.321  20.172  0.0822  0.0028  0.0948
31666W        W74604   5.770  26.482  17.659  0.0801 -0.1200  0.1935
31667W        W74605   5.169  25.691  18.009  0.1213  0.3258  0.0658
31668W        W74606   4.582  25.293  16.244  0.1321  0.1446  0.2972
31669W        W74607   6.967  25.187  18.004 -0.0829  0.2137  0.1625
31670W        W74608   6.133  26.478  17.064 -0.1525  0.1553 -0.3653
31671W        W74609   4.762  27.637  17.569 -0.0958 -0.1814  0.0935
31672W        W74610   6.383  25.890  19.302 -0.1949  0.2025 -0.1893
31673W        W74611   6.635  28.943  17.176 -0.1676 -0.0181 -0.0367
31674W        W74612   7.335  30.674  19.820  0.2406 -0.0572  0.0820
31675W        W74613   6.897  28.893  16.743 -0.1304  0.0738  0.2516
31676W        W74614   4.030  26.890  18.919  0.2630  0.3365 -0.1455
31677W        W74615   4.428  25.796  16.756 -0.1717 -0.2799  0.3647
31678W        W74616   4.154  29.406  17.816 -0.1534  0.0363  0.1834
31679W        W74617   5.213  28.500  18.300 -0.0446  0.1383  0.2170
31680W        W74618   4.426  25.455  17.845  0.3179  0.0041  0.0525
31681W        W74619   7.549  29.240  18.725 -0.1213 -0.1244 -0.0178
31682W        W74620   6.702  26.174  18.117 -0.1267  0.2102  0.0199
31683W        W74621   3.744  28.699  18.806 -0.0324  0.2265 -0.2567
31684W        W74622   5.887  26.231  19.877  0.0794  0.0373 -0.4081
31685W        W74623   7.705  26.131  19.726 -0.4060  0.1597  0.0510
31686W        W74624   6.805  25.393  16.963 -0.1910  0.1286 -0.1124
31687W        W74625   4.754  26.193  16.820  0.2562  0.1108 -0.0723
31688W        W74626   5.750  28.337  18.675 -0.1641 -0.0110 -0.2349
31689W        W74627   4.129  28.745  15.927  0.1300 -0.0977  0.1573
31690W        W74628   4.651  26.556  16.501 -0.2337 -0.0775  0.1751
31691W        W74629   5.575  26.832  17.991  0.1996 -0.0209  0.0210
31692W        W74630   7.045  25.502  17.493  0.3328  0.3969 -0.3377
31693W        W74631   3.488  27.379  20.281  0.1843  0.0113  0.2447
31694W        W74632   5.412  26.005  20.283  0.0089 -0.2218  0.0851
31695W        W74633   4.602  26.917  16.154 -0.2208 -0.3795  0.0415
31696W        W74634   4.927  29.274  19.806 -0.0193  0.3140 -0.1559
31697W        W74635   5.991  25.653  16.871 -0.1775 -0.2471  0.3490
31698W        W74636   6.869  26.990  16.415  0.0095 -0.3684 -0.0320
31699W        W74637   4.874  27.695  19.667 -0.1291  0.2474 -0.0190
31700W        W74638   6.761  28.146  15.974  0.0880  0.3772 -0.0639
31701W        W74639   6.775  25.063  16.514  0.1004  0.0540  0.2235
31702W        W74640   7.082  25.961  16.676  0.0392  0.0246 -0.1123
31703W        W74641   3.635  30.011  19.659  0.2454  0.3461  0.0889
31704W        W74642   6.595  26.992  16.986 -0.0623  0.1988  0.2200
31705W        W74643   5.254  28.163  18.798  0.1558 -0.0064  0.1150
31706W        W74644   4.669  26.276  15.611 -0.3259  0.0777 -0.1953
31707W        W74645   7.920  28.676  16.944  0.1112 -0.0915  0.0015
31708W        W74646   4.497  27.005  17.537  0.0510 -0.2729  0.0260
31709W        W74647   6.146  29.406  20.419 -0.1012 -0.3306  0.4712
31710W        W74648   5.978  26.696  18.630  0.2951 -0.1707 -0.2675
31711W        W74649   5.023  27.180  18.796 -0.3752 -0.3109 -0.1320
31712W        W74650   5.999  26.784  16.116  0.2169 -0.0263 -0.0357
31713W        W74651   6.123  23.884  18.424 -0.4219  0.2427  0.2255
31714W        W74652   2.615  28.619  17.416 -0.0663  0.1797  0.1716
31715W        W74653   5.838  25.820  18.070 -0.2587  0.0566 -0.1509
31716W        W74654   5.498  27.355  16.197 -0.1749  0.0436  0.1250
31717W        W74655   4.314  25.351  18.601 -0.3051  0.1598  0.0030
31718W        W74656   6.697  27.438  18.391 -0.1396 -0.0987 -0.0354
31719W        W74657   5.506  28.315  16.757  0.0472 -0.0476 -0.0196
31720W        W74658   6.348  27.041  18.494 -0.3332 -0.0962 -0.3321
31721W        W74659   3.953  26.996  17.478  0.2433 -0.0156  0.1932
31722W        W74660   4.522  25.227  19.177  0.1245  0.0805  0.2877
31723W        W74661   4.037  27.150  18.403 -0.0263  0.1759  0.1422
31724W        W74662   3.370  27.753  18.652 -0.1468  0.2136 -0.3649
31725W        W74663   6.307  29.160  20.006 -0.4696  0.0653 -0.4417
31726W        W74664   5.565  27.365  17.062  0.1039  0.3190 -0.0712
31727W        W74665   4.878  27.437  20.322  0.0350  0.0366 -0.0424
31728W        W74666   5.380  25.461  16.626  0.1445  0.0345 -0.3224
31729W        W74667   4.383  27.610  17.107  0.0698 -0.0835  0.0256
31730W        W74668   5.041  29.071  16.477 -0.0825  0.1919 -0.1365
31731W        W74669   4.898  26.242  19.599  0.1913 -0.0618  0.0328
31732W        W74670   5.071  28.760  18.862  0.3674 -0.2017 -0.1053
31733W        W74671   3.881  29.307  15.949 -0.0623  0.4201 -0.0806
31734W        W74672   6.050  27.600  20.112 -0.2558 -0.0152 -0.0450
31735W        W74673   3.627  27.651  16.965 -0.2788 -0.1342 -0.2945
31736W        W74674   7.261  24.809  18.222 -0.0521  0.1823 -0.0966
31737W        W74675   4.120  28.484  17.535  0.1098  0.0726  0.1635
31738W        W74676   4.854  27.533  16.790 -0.0940 -0.2110 -0.1206
31739W        W74677   2.986  27.452  17.030  0.1016  0.2276 -0.1925
31740W        W74678   6.673  26.418  17.094 -0.1280  0.3261  0.1002
31741W        W74679   6.594  27.438  16.181 -0.1409 -0.2616 -0.1185
31742W        W74680   3.641  26.717  17.967  0.4959 -0.2062 -0.1184
31743W        W74681   5.622  26.923  17.290 -0.1155  0.2173 -0.0450
31744W        W74682   2.474  28.883  18.354  0.0424 -0.0830 -0.0675
31745W        W74683   5.285  26.773  19.152  0.2140 -0.3516  0.1427
31746W        W74684   6.070  27.025  16.992 -0.1198 -0.0037  0.1135
31747W        W74685   6.355  26.356  18.499  0.2912  0.2528  0.2155
31748W        W74686   5.555  27.254  19.202  0.0028 -0.2660  0.3335
31749W        W74687   3.874  27.251  16.554 -0.1942 -0.0052  0.2433
31750W        W74688   7.086  26.238  19.709 -0.1063 -0.3580  0.3477
31751W        W74689   5.239  27.298  16.604  0.0553 -0.1891 -0.0736
31752W        W74690   4.935  28.098  18.397  0.1361  0.0303  0.1320
31753W        W74691   7.102  28.489  20.939 -0.2057 -0.1109  0.0921
31754W        W74692   4.828  26.624  17.069 -0.0405  0.3903 -0.2944
31755W        W74693   4.032  28.518  18.410 -0.0850 -0.2782  0.0049
31756W        W74694   4.284  25.789  19.268  0.0500  0.2368 -0.3477
31757W        W74695   6.483  27.762  19.247 -0.1089 -0.0676  0.0463
31758W        W74696   5.924  27.639  19.235 -0.0766  0.0092 -0.1831
31759W        W74697   3.128  25.464  18.048 -0.0237  0.1001  0.0148
31760W        W74698   5.456  26.690  18.514  0.0619 -0.2345 -0.2375
31761W        W74699   6.108  28.071  19.481  0.0235  0.0085 -0.0253
31762W        W74700   5.938  26.042  18.618  0.1302  0.0244 -0.0971
31763W        W74701   3.522  29.076  19.882  0.0397  0.2560 -0.3349
31764W        W74702   5.112  26.333  18.418  0.1227  0.0410  0.0535
31765W        W74703   7.240  29.123  15.872 -0.3365  0.1450  0.1446
31766W        W74704   5.126  25.833  18.898  0.1328 -0.0116  0.2426
31767W        W74705   4.368  27.407  16.412 -0.0038 -0.0530  0.2252
31768W        W74706   2.667  27.036  17.158 -0.4127 -0.1146  0.1481
31769W        W74707   5.125  26.561  16.681  0.0456 -0.1731 -0.0072
31770W        W74708   5.724  26.761  19.550 -0.1081  0.0057  0.1953
31771W        W74709   4.894  29.236  19.289  0.2049  0.4006 -0.3756
31772W        W74710   4.791  28.786  16.155  0.1578  0.0393 -0.2153
31773W        W74711   3.542  28.659  18.331  0.1735  0.1461 -0.0529
31774W        W74712   6.523  25.646  16.605 -0.3142  0.3456  0.1668
31775W        W74713   5.098  29.105  17.408 -0.0904  0.0035 -0.1336
31776W        W74714   5.982  24.942  17.275  0.1664 -0.0155 -0.0167
31777W        W74715   7.773  25.629  18.349 -0.2668 -0.1941  0.0965
31778W        W74716   7.613  27.082  15.634 -0.3812  0.0130 -0.1122
31779W        W74717   5.671  24.344  18.976  0.0027  0.3675  0.0109
31780W        W74718   4.646  26.209  18.679 -0.2712 -0.0002 -0.0387
31781W        W74719   6.782  29.361  16.739 -0.0193 -0.0344 -0.0956
31782W        W74720   3.242  27.379  19.045  0.4901 -0.0151 -0.0807
31783W        W74721   6.201  27.742  21.041 -0.1690  0.0682  0.1826
31784W        W74722   3.887  27.325  19.950  0.0859  0.0173  0.0889
31785W        W74723   6.229  27.670  17.856 -0.0664  0.1544  0.1469
31786W        W74724   4.217  24.416  16.462  0.1779 -0.2203  0.1170
31787W        W74725   4.626  28.296  19.578 -0.0621 -0.1682  0.0729
31788W        W74726   5.810  26.854  19.042  0.0784 -0.0793  0.2001
31789W        W74727   6.383  27.989  17.005 -0.0402 -0.2355  0.0753
31790W        W74728   6.221  26.265  19.004  0.0962 -0.1291 -0.3515
31791W        W74729   5.213  27.167  18.255 -0.0426  0.0579 -0.1140
31792W        W74730   7.310  26.430  18.294 -0.1270  0.2478 -0.1379
31793W        W74731   6.396  28.441  17.470  0.3778 -0.0941 -0.1468
31794W        W74732   4.336  29.203  19.254  0.3487 -0.1588  0.2668
31795W        W74733   6.392  27.018  19.780  0.1841 -0.2563 -0.0217
31796W        W74734   6.105  27.463  18.293  0.2812 -0.3554 -0.1220
31797W        W74735   4.938  26.752  17.987  0.0461  0.0384  0.0462
31798W        W74736   4.781  25.352  18.190  0.0982 -0.0464 -0.0002
31799W        W74737   5.184  25.513  18.530 -0.4406  0.1997 -0.0485
31800W        W74738   5.812  27.859  19.812 -0.0320  0.0161 -0.0528
31801W        W74739   3.388  25.591  19.717 -0.2216 -0.1168  0.0068
31802W        W74740   7.247  28.409  18.518 -0.2220  0.0705 -0.2433
31803W        W74741   7.410  26.578  15.500 -0.1434 -0.1632 -0.1639
31804W        W74742   7.591  25.980  17.988 -0.0892  0.1553 -0.0445
31805W        W74743   7.532  25.998  16.882 -0.1717  0.1969  0.1524
31806W        W74744   5.146  28.248  17.142  0.0130 -0.1028  0.2748
31807W        W74745   4.645  26.371  18.209  0.0120 -0.1942 -0.4247
31808W        W74746   6.044  27.301  18.806  0.1497 -0.2122  0.1817
31809W        W74747   5.657  25.883  16.556  0.1343  0.1536  0.2871
31810W        W74748   4.165  26.155  19.734  0.0820 -0.0223  0.3214
31811W        W74749   6.303  28.803  16.758 -0.2026 -0.0868 -0.1190
31812W        W74750   6.544  27.886  18.190  0.1715 -0.1193  0.1243
31813W        W74751   5.113  27.510  17.273 -0.0628 -0.1452  0.1456
31814W        W74752   3.813  26.152  18.057  0.0178 -0.1389 -0.1734
31815W        W74753   3.732  29.799  19.190  0.0819 -0.1620  0.0948
31816W        W74754   5.050  27.802  16.097  0.1717  0.2379  0.3936
31817W        W74755   4.291  27.594  18.304 -0.0926  0.1804 -0.0921
31818W        W74756   5.888  27.275  17.899  0.2868  0.2189 -0.3199
31819W        W74757   7.374  28.496  19.958  0.0379  0.0479  0.0172
31820W        W74758   6.085  25.634  16.366 -0.1406  0.0903  0.1420
31821W        W74759   7.288  27.024  20.127  0.1289  0.1923  0.1899
31822W        W74760   3.599  28.155  16.664  0.1205 -0.0406  0.2084
31823W        W74761   5.323  26.051  17.490 -0.1343 -0.0433 -0.0611
31824W        W74762   4.303  28.170  17.991 -0.1548  0.1417 -0.0501
31825W        W74763   3.678  27.473  18.373  0.3320 -0.3257  0.3719
31826W        W74764   4.801  27.487  18.427  0.1274 -0.2864 -0.2716
31827W        W74765   6.746  24.600  18.393  0.0738  0.1397 -0.2037
31828W        W74766   6.666  26.854  17.535 -0.0091  0.2530  0.0373
31829W        W74767   4.751  27.945  18.959  0.0140 -0.0227 -0.0171
31830W        W74768   6.640  27.309  18.853 -0.3332  0.1075  0.4605
31831W        W74769   6.029  29.361  19.001  0.0819 -0.3984 -0.2968
31832W        W74770   4.692  28.411  18.705  0.0261  0.0876  0.2137
31833W        W74771   6.450  29.085  20.980  0.0985 -0.1991 -0.2166
31834W        W74772   7.407  26.281  19.295 -0.2225  0.3026 -0.0219
31835W        W74773   4.708  28.423  18.088  0.0488  0.0606 -0.1628
31836W        W74774   4.575  26.451  21.105 -0.0692  0.1567  0.1407
31837W        W74775   5.805  28.161  20.251  0.0403 -0.0872  0.2409
31838W        W74776   6.561  27.896  17.533 -0.2389 -0.1346 -0.0611
31839W        W74777   5.104  25.195  17.020  0.2453 -0.0621  0.1062
31840W        W74778   6.341  27.183  16.556 -0.1939  0.3358  0.1567
31841W        W74779   4.928  28.393  19.187 -0.2187 -0.1088  0.0546
31842W        W74780   3.919  27.815  18.609 -0.0917 -0.0598 -0.1534
31843W        W74781   4.547  28.992  15.776 -0.0424 -0.2713  0.3323
31844W        W74782   7.371  28.755  16.850 -0.2680 -0.2143  0.1999
31845W        W74783   6.119  27.343  16.131  0.1990  0.1049  0.0779
31846W        W74784   5.230  28.209  17.910  0.1379  0.0038 -0.0249
31847W        W74785   5.129  27.963  16.575 -0.1131  0.0131  0.3359
31848W        W74786   3.447  29.167  17.686  0.1276 -0.0425  0.1344
31849W        W74787   2.857  26.865  18.414 -0.1106 -0.0018 -0.0294
31850W        W74788   6.277  30.228  16.445  0.0784  0.1896 -0.1300
31851W        W74789   4.202  28.607  16.961 -0.1534 -0.0040 -0.1799
31852W        W74790   6.652  29.748  19.936 -0.2106 -0.1689  0.1597
31853W        W74791   6.007  25.229  16.068  0.0349 -0.2204  0.1354
31854W        W74792   7.000  26.434  17.462 -0.1200 -0.2241  0.2556
31855W        W74793   7.739  26.346  17.128 -0.1882  0.0915  0.1432
31856W        W74794   7.168  29.369  19.133 -0.1756 -0.1863 -0.1077
31857W        W74795   6.051  27.132  19.366 -0.1158 -0.1037 -0.0975
31858W        W74796   4.906  26.153  16.212 -0.1330 -0.1812 -0.3342
31859W        W74797   4.009  27.414  20.406 -0.0642  0.0481  0.1026
31860W        W74798   6.506  24.044  19.208 -0.0174 -0.4060  0.0074
31861W        W74799   3.599  29.263  18.658  0.0950  0.1682 -0.1757
31862W        W74800   6.986  29.189  17.551  0.0374 -0.2336  0.3238
31863W        W74801   5.329  27.306  17.778 -0.0666 -0.0242  0.3741
31864W        W74802   4.771  27.916  17.128 -0.0817  0.2433  0.3211
31865W        W74803   5.945  25.207  17.754  0.1026 -0.3322 -0.1114
31866W        W74804   5.916  28.476  17.009  0.2871  0.1261  0.3076
31867W        W74805   6.750  25.920  17.061  0.2444 -0.1254  0.1748
31868W        W74806   4.190  31.217  16.502 -0.1107  0.0623  0.0742
31869W        W74807   4.522  29.056  18.822  0.3035 -0.2550 -0.0567
31870W        W74808   5.528  28.068  18.313  0.2788 -0.3346 -0.1699
31871W        W74809   4.958  25.720  16.393  0.2417 -0.3799  0.2207
31872W        W74810   7.851  25.875  17.360  0.1196 -0.2643  0.1887
31873W        W74811   4.227  27.570  19.586 -0.0558  0.0082 -0.0963
31874W        W74812   6.772  24.999  19.030 -0.3522 -0.0573  0.2673
31875W        W74813   3.886  26.142  19.248 -0.1782  0.2769  0.0801
31876W        W74814   6.626  27.377  17.512 -0.2201  0.0351 -0.2674
31877W        W74815   6.343  27.728  18.669  0.2085  0.0473  0.0076
31878W        W74816   4.007  27.733  19.133  0.0168  0.1023  0.0612
31879W        W74817   5.919  28.585  16.541  0.2999 -0.1878  0.0173
31880W        W74818   5.920  28.447  19.233  0.0496  0.2306  0.2237
31881W        W74819   6.439  27.176  15.777  0.0842 -0.3041  0.1940
31882W        W74820   5.470  28.568  19.095  0.1817  0.4057 -0.2543
31883W        W74821   3.442  26.499  19.571 -0.3484  0.3232 -0.3052
31884W        W74822   6.235  26.319  16.279  0.0594  0.3146 -0.1358
31885W        W74823   4.356  26.677  18.485 -0.1258 -0.3982  0.3703
31886W        W74824   4.733  27.271  17.984 -0.0820  0.0810 -0.0523
31887W        W74825   6.916  29.068  18.386 -0.2139 -0.0402 -0.2208
31888W        W74826   4.661  25.780  16.008  0.1869 -0.2881  0.0704
31889W        W74827   7.326  27.363  16.249  0.0070 -0.3036 -0.1971
31890W        W74828   6.182  28.105  18.916  0.0581 -0.3502 -0.2656
31891W        W74829   5.513  28.735  17.175 -0.0449 -0.1728  0.1642
31892W        W74830   7.506  27.923  17.638 -0.2161  0.0849 -0.1008
31893W        W74831   5.395  29.088  19.102 -0.0442 -0.3649 -0.1165
31894W        W74832   3.332  27.367  19.571 -0.2463 -0.0123 -0.1747
31895W        W74833   6.023  29.506  17.919  0.0541  0.2169  0.0026
31896W        W74834   7.734  28.523  18.349  0.1968  0.0124 -0.0439
31897W        W74835   5.995  26.640  16.607 -0.0807  0.1529  0.1305
31898W        W74836   4.544  26.207  19.236 -0.0280 -0.2384 -0.0597
31899W        W74837   3.846  28.085  17.558  0.0304  0.0312  0.1111
31900W        W74838   7.161  27.160  18.750  0.2878  0.0908  0.2762
31901W        W74839   5.224  26.461  20.540  0.2287  0.1174 -0.0962
31902W        W74840   6.324  29.290  16.965 -0.1348  0.2317  0.3809
31903W        W74841   6.668  24.025  19.682  0.3300 -0.2011  0.1176
31904W        W74842   4.934  27.171  19.265 -0.0179 -0.0227  0.4921
31905W        W74843   3.931  28.600  20.654  0.0200  0.2092 -0.1693
31906W        W74844   3.212  27.490  16.326  0.1261 -0.2366  0.1961
31907W        W74845   4.767  26.617  18.905 -0.0450  0.0289  0.2015
31908W        W74846   5.120  28.624  17.471 -0.1739  0.1105 -0.1085
31909W        W74847   5.291  27.879  17.517  0.0249 -0.0085  0.2927
31910W        W74848   6.898  27.208  17.955 -0.1062  0.1375 -0.0979
31911W        W74849   6.220  25.990  17.148  0.2417 -0.1062  0.0507
31912W        W74850   9.817  27.767  17.929  0.1630  0.2386  0.1097
31913W        W74851   3.853  27.184  17.923 -0.1948 -0.1361 -0.0978
31914W        W74852   6.839  27.497  16.606  0.4670  0.1289  0.0642
31915W        W74853   7.237  25.123  16.780  0.0054  0.0849 -0.1986
31916W        W74854   4.565  27.521  19.181 -0.3301  0.0025  0.2411
31917W        W74855   3.170  27.995  16.534  0.3605  0.0595 -0.0316
31918W        W74856   4.791  28.263  16.262  0.0609  0.0261 -0.0864
31919W        W74857   4.400  26.924  18.082  0.0167 -0.2263 -0.0145
31920W        W74858   4.766  26.627  20.604  0.1058 -0.2804  0.2998
31921W        W74859   3.914  25.667  19.896 -0.0190  0.0320  0.2533
31922W        W74860   4.584  26.495  17.597  0.0015  0.1775  0.3509
31923W        W74861   4.236  26.442  16.735  0.0134 -0.1894  0.0134
31924W        W74862   7.295  27.775  16.618  0.0838 -0.0934 -0.1787
31925W        W74863   3.387  24.581  19.124 -0.4271 -0.1508 -0.0858
31926W        W74864   2.941  26.437  16.939  0.1803  0.0755  0.0807
31927W        W74865   5.989  28.827  17.401 -0.2841 -0.1216  0.0089
31928W        W74866   7.100  29.412  18.048  0.2315  0.2873  0.1124
31929W        W74867   5.324  25.603  17.236 -0.0723 -0.2433  0.0787
31930W        W74868   6.879  29.277  21.187 -0.4097 -0.0534 -0.0428
31931W        W74869   3.923  26.200  16.164 -0.0312 -0.2814 -0.1743
31932W        W74870   4.875  27.148  19.764 -0.0173 -0.2563  0.2163
31933W        W74871   5.436  25.949  18.339  0.1946  0.2003  0.1101
31934W        W74872   3.937  25.671  17.821  0.0408 -0.2704  0.3138
31935W        W74873   5.632  26.355  19.038  0.0263  0.1262  0.0605
31936W        W74874   5.556  28.794  17.767  0.1439  0.1927 -0.0030
31937W        W74875   5.939  29.573  17.184  0.0093  0.1147 -0.0639
31938W        W74876   6.576  28.172  18.645 -0.1577 -0.2513  0.0157
31939W        W74877   5.681  28.825  19.460 -0.2421  0.2209  0.2895
31940W        W74878   2.457  26.078  18.682 -0.0333 -0.2116  0.1111
31941W        W74879   7.458  27.742  17.118  0.0394 -0.0901  0.2489
31942W        W74880   5.870  27.032  18.336  0.3352  0.3468  0.0399
31943W        W74881   8.170  28.186  16.790 -0.0142 -0.0090 -0.1902
31944W        W74882   7.493  24.940  17.802  0.0124 -0.0049  0.0507
31945W        W74883   5.967  28.056  16.684  0.2841 -0.1982  0.0953
31946W        W74884   3.011  25.122  19.030 -0.0699 -0.0919 -0.3695
31947W        W74885   2.932  29.960  19.787  0.0632 -0.1105  0.3435
31948W        W74886   7.035  28.118  18.938  0.2355  0.0429 -0.0147
31949W        W74887   4.190  26.508  19.388  0.5118 -0.0395  0.1485
31950W        W74888   6.385  26.465  17.702  0.0698 -0.2767  0.3452
31951W        W74889   7.145  28.283  16.711 -0.1408  0.2008  0.2381
31952W        W74890   4.522  27.167  18.693 -0.1314 -0.1692 -0.1248
31953W        W74891   5.393  26.436  17.175 -0.0510 -0.0827 -0.0181
31954W        W74892   5.095  26.728  19.841  0.0420  0.3642 -0.0710
31955W        W74893   7.046  27.691  17.448  0.0210 -0.1998 -0.1145
31956W        W74894   6.532  28.436  19.663 -0.1116  0.3211 -0.2748
31957W        W74895   5.496  27.884  17.057  0.1387  0.0731  0.0368
31958W        W74896   7.355  28.777  16.283 -0.2844  0.1539  0.0024
31959W        W74897   4.724  29.137  17.874  0.1803 -0.0192 -0.0609
31960W        W74898   7.612  29.692  18.899  0.0313  0.0935 -0.2980
31961W        W74899   6.232  28.433  18.357  0.0423  0.2010  0.1223
31962W        W74900   7.091  27.322  19.208  0.1313 -0.3314 -0.1039
31963W        W74901   4.711  24.428  19.001 -0.1655 -0.0513  0.0258
31964W        W74902   4.301  28.159  18.572  0.2302  0.1388  0.1582
31965W        W74903   6.655  28.823  17.689  0.2305 -0.2170  0.0586
31966W        W74904   6.372  25.790  18.253 -0.0125  0.1134 -0.2871
31967W        W74905   4.405  27.686  18.768  0.3569  0.0429  0.0259
31968W        W74906   6.045  26.141  16.724 -0.3445  0.0114 -0.0985
31969W        W74907   5.430  29.493  19.711  0.1307  0.0340  0.0592
31970W        W74908   7.000  27.646  18.826 -0.0710  0.1693 -0.1414
31971W        W74909   5.267  27.278  24.839 -0.1023  0.1102 -0.0508
31972W        W74910   3.780  27.290  21.283  0.0074  0.0589  0.2961
31973W        W74911   5.457  25.490  20.252 -0.0223  0.1501  0.0647
31974W        W74912   5.661  28.020  19.069 -0.1883  0.2742  0.0337
31975W        W74913   3.107  26.902  22.248 -0.0312  0.1325 -0.0485
31976W        W74914   6.005  28.766  21.912  0.0181  0.2253  0.0051
31977W        W74915   5.241  25.350  22.638 -0.1578 -0.1278 -0.0014
31978W        W74916   5.239  28.343  23.338 -0.1414 -0.2843  0.2369
31979W        W74917   6.257  29.811  24.037  0.0802 -0.0786  0.1575
31980W        W74918   5.926  26.238  19.399  0.2657 -0.2649 -0.0643
31981W        W74919   5.368  27.156  22.761 -0.0296  0.2426 -0.1998
31982W        W74920   5.693  27.496  24.406 -0.4017  0.0290  0.0625
31983W        W74921   4.880  25.731  22.657  0.0438 -0.0270  0.0055
31984W        W74922   3.991  25.050  22.482  0.0446 -0.4577  0.0906
31985W        W74923   5.772  27.906  23.511  0.0818  0.2180 -0.0424
31986W        W74924   4.903  27.889  22.220  0.0718 -0.0301 -0.2542
31987W        W74925   5.057  27.037  22.368 -0.1729 -0.0129  0.0557
31988W        W74926   4.482  26.663  19.779  0.3886 -0.2017 -0.1028
31989W        W74927   6.202  28.647  20.914 -0.2406  0.1050  0.1351
31990W        W74928   5.057  25.425  23.835 -0.1442 -0.0184  0.2849
31991W        W74929   7.094  27.195  22.436  0.0747 -0.1592  0.2599
31992W        W74930   5.838  28.293  22.760 -0.0325 -0.1034  0.2200
31993W        W74931   3.961  26.679  19.840  0.1124 -0.1517 -0.2936
31994W        W74932   3.707  27.435  21.794 -0.0750 -0.3047 -0.0662
31995W        W74933   4.251  27.490  23.341 -0.0431 -0.0017  0.2132
31996W        W74934   6.430  24.897  21.733 -0.1330 -0.2122 -0.2571
31997W        W74935   6.849  27.654  21.926 -0.1940 -0.2221 -0.1875
31998W        W74936   5.326  27.506  20.006  0.3221 -0.2777 -0.0341
31999W        W74937   5.126  28.337  22.849 -0.3827 -0.1753 -0.1471
32000W        W74938   8.427  25.995  22.687 -0.1772  0.2299  0.0071
32001W        W74939   4.613  27.495  21.221  0.0541  0.0830 -0.0865
32002W        W74940   2.698  28.862  20.444 -0.2188 -0.0058  0.1898
32003W        W74941   4.339  28.297  19.957  0.1786 -0.1062  0.1649
32004W        W74942   6.990  29.289  19.654 -0.1355  0.1527  0.2289
32005W        W74943   5.895  27.395  23.153 -0.1292  0.1639 -0.2001
32006W        W74944   4.776  27.964  24.462  0.0327 -0.0541 -0.1092
32007W        W74945   3.786  28.901  20.239  0.0852 -0.2998  0.0370
32008W        W74946   6.388  28.943  23.399  0.2927 -0.0367  0.0409
32009W        W74947   3.025  27.288  24.803 -0.2530 -0.1531  0.0740
32010W        W74948   4.678  28.515  22.740  0.1209 -0.0600 -0.1289
32011W        W74949   6.065  28.071  21.436 -0.3092  0.4396 -0.0062
32012W        W74950   4.109  28.062  19.543  0.3869  0.0391 -0.3505
32013W        W74951   6.281  28.177  22.666 -0.0656  0.1993  0.0850
32014W        W74952   5.871  25.724  23.314  0.1250 -0.0106 -0.0030
32015W        W74953   5.531  27.321  20.736 -0.2074  0.0727 -0.0271
32016W        W74954   8.642  25.850  24.452  0.0280  0.0784 -0.0962
32017W        W74955   4.984  27.960  21.095  0.3036  0.3675  0.0464
32018W        W74956   6.231  27.539  19.637 -0.0019  0.0063 -0.0582
32019W        W74957   4.447  27.361  20.035 -0.1590  0.1250  0.2219
32020W        W74958   5.303  27.044  20.178  0.0396  0.1405  0.1496
32021W        W74959   6.302  26.280  22.495  0.1297 -0.0737  0.1267
32022W        W74960   4.370  27.793  22.583 -0.3378  0.1961 -0.0265
32023W        W74961   5.948  24.913  22.909  0.2993  0.2178 -0.2604
32024W        W74962   5.590  27.028  23.201 -0.2100  0.1192 -0.0845
32025W        W74963   5.533  27.804  21.917  0.0768 -0.1985  0.2128
32026W        W74964   4.293  26.858  20.200  0.0207  0.0605  0.2565
32027W        W74965   2.767  26.056  24.463 -0.1009 -0.0640  0.2672
32028W        W74966   3.374  27.029  21.075 -0.1680  0.4166  0.2752
32029W        W74967   6.900  28.338  20.046 -0.1046 -0.4547 -0.0302
32030W        W74968   7.022  29.099  22.695 -0.3211  0.1577  0.1838
32031W        W74969   5.275  27.990  19.937 -0.0739 -0.1938 -0.1088
32032W        W74970   3.825  26.950  20.233  0.1248 -0.0243  0.1801
32033W        W74971   3.082  26.466  24.225 -0.1832  0.2261 -0.2498
32034W        W74972   3.937  27.656  23.709 -0.3940  0.0079 -0.0089
32035W        W74973   3.744  24.979  20.390 -0.1486  0.2678  0.3053
32036W        W74974   8.704  27.343  23.011  0.1281  0.0126 -0.0264
32037W        W74975   2.984  28.573  23.351 -0.1608  0.1847 -0.0199
32038W        W74976   7.187  26.032  21.174 -0.0719  0.2265 -0.0672
32039W        W74977   4.645  28.284  22.071 -0.1700 -0.4507  0.4256
32040W        W74978   6.426  28.194  20.894 -0.1314 -0.2996 -0.0846
32041W        W74979   6.146  26.616  20.481  0.1645  0.3075 -0.1621
32042W        W74980   5.886  24.764  21.580 -0.0750  0.2849  0.1916
32043W        W74981   5.479  25.916  21.954  0.1997 -0.0847  0.2243
32044W        W74982   3.298  26.563  20.607 -0.0015  0.0192  0.0051
32045W        W74983   5.818  27.261  19.768 -0.3892 -0.0475  0.1826
32046W        W74984   7.207  28.569  21.749  0.2709  0.3554 -0.1685
32047W        W74985   5.960  25.823  19.065 -0.1274 -0.2320  0.0508
32048W        W74986   3.766  27.550  20.796  0.3141  0.3438 -0.0150
32049W        W74987   5.087  27.227  23.178  0.4172  0.2096 -0.4208
32050W        W74988   6.842  27.610  25.788 -0.1171  0.0204 -0.0016
32051W        W74989   4.192  29.835  19.905 -0.1460  0.1124 -0.2910
32052W        W74990   3.631  25.867  21.155 -0.1066 -0.2223  0.1539
32053W        W74991   3.753  27.702  19.628  0.0077  0.0493  0.1366
32054W        W74992   3.140  25.666  23.599 -0.3542  0.2551  0.0800
32055W        W74993   4.025  27.032  21.692 -0.3319  0.2785 -0.0521
32056W        W74994   6.162  26.365  21.495  0.0516 -0.0615 -0.0105
32057W        W74995   5.286  26.264  22.328 -0.0924 -0.0439  0.0033
32058W        W74996   7.510  25.700  21.032  0.1159  0.0349  0.1424
32059W        W74997   3.489  28.511  20.976 -0.3930 -0.1948  0.1605
32060W        W74998   5.829  29.990  21.286  0.0620 -0.3264 -0.0139
32061W        W74999   6.384  25.903  22.191 -0.0138  0.1540 -0.1964
32062W        W75000   7.154  29.348  20.148 -0.0970  0.0919 -0.1910
32063W        W75001   4.550  27.062  23.231 -0.0771  0.1897  0.1904
32064W        W75002   3.356  27.726  21.600 -0.0348  0.2248 -0.0650
32065W        W75003   4.779  26.569  23.038  0.0632  0.2822 -0.1388
32066W        W75004   3.590  26.077  22.331 -0.0336 -0.3260 -0.3626
32067W        W75005   5.812  28.316  23.274 -0.0566 -0.0842  0.4478
32068W        W75006   2.398  25.570  20.889  0.1668 -0.0038 -0.0317
32069W        W75007   6.941  26.270  21.789 -0.3178 -0.0045 -0.1478
32070W        W75008   4.295  27.092  19.652 -0.0481  0.0811 -0.2184
32071W        W75009   2.435  26.734  21.852 -0.2476  0.1708  0.2996
32072W        W75010   5.953  26.194  21.980 -0.0931  0.4219 -0.0696
32073W        W75011   6.640  27.868  21.208 -0.4574  0.1452 -0.3169
32074W        W75012   7.831  28.105  23.925 -0.1046  0.1114  0.2766
32075W        W75013   7.371  29.003  20.945  0.1591  0.1046 -0.1271
32076W        W75014   5.637  24.930  22.538  0.1017  0.2479  0.1906
32077W        W75015   3.218  26.968  20.307  0.1264 -0.1460 -0.0387
32078W        W75016   3.700  29.125  21.585  0.0298 -0.1222 -0.0867
32079W        W75017   5.424  28.991  21.592  0.1951 -0.0157 -0.0973
32080W        W75018   3.376  26.264  21.444 -0.2634  0.0333  0.0665
32081W        W75019   7.798  29.924  22.994  0.2905  0.2800  0.0377
32082W        W75020   5.677  26.347  21.560 -0.1874  0.0628  0.1501
32083W        W75021   4.600  26.943  21.879  0.0372  0.0692 -0.0207
32084W        W75022   6.661  24.083  23.229  0.0998  0.0785  0.0618
32085W        W75023   6.844  26.289  22.303  0.0220  0.1197 -0.1658
32086W        W75024   5.936  27.277  21.667  0.1737 -0.0918  0.2478
32087W        W75025   3.083  26.247  20.277 -0.1247 -0.1383  0.1238
32088W        W75026   6.392  28.776  23.892 -0.0945  0.3806 -0.0066
32089W        W75027   2.931  28.506  20.756  0.1066  0.3537 -0.1250
32090W        W75028   2.715  27.695  22.042  0.0640 -0.2196 -0.0577
32091W        W75029   5.922  29.602  22.230 -0.0498 -0.0677 -0.0168
32092W        W75030   7.993  26.138  21.062 -0.0674 -0.4514 -0.0711
32093W        W75031   3.213  26.899  24.481  0.3307  0.1493 -0.1779
32094W        W75032   3.988  26.923  23.949 -0.0703 -0.1204 -0.0302
32095W        W75033   4.949  27.379  20.832  0.1193 -0.4139 -0.3209
32096W        W75034   4.463  27.686  23.924  0.0063 -0.1058  0.4495
32097W        W75035   5.525  26.632  22.000  0.0551 -0.1161 -0.3301
32098W        W75036   5.325  26.003  21.366  0.0885 -0.1399  0.1489
32099W        W75037   5.301  26.328  24.602  0.0203  0.0966  0.2403
32100W        W75038   6.254  28.081  20.059  0.0708  0.4046  0.2069
32101W        W75039   6.144  27.163  21.217 -0.0757  0.2324  0.2208
32102W        W75040   5.604  26.453  21.017  0.1377 -0.2699 -0.2364
32103W        W75041   3.705  27.332  24.842 -0.0675  0.0124 -0.1382
32104W        W75042   5.636  27.071  22.219 -0.3524 -0.1191  0.0428
32105W        W75043   4.339  27.910  23.065 -0.0359  0.0330  0.2255
32106W        W75044   6.065  27.378  20.692 -0.0002 -0.0533  0.0147
32107W        W75045   7.917  28.006  20.395 -0.1535 -0.0254  0.0179
32108W        W75046   4.224  28.406  22.982 -0.2407  0.3694 -0.0841
32109W        W75047   6.975  27.918  24.835  0.2193  0.1197 -0.3125
32110W        W75048   5.694  28.752  22.524 -0.1231 -0.1308  0.0371
32111W        W75049   6.249  25.870  21.633  0.0445 -0.1114  0.1946
32112W        W75050   5.207  27.734  18.572  0.0352 -0.2307  0.0434
32113W        W75051   4.801  26.637  21.508  0.1380  0.4687  0.2824
32114W        W75052   3.430  29.415  21.024  0.0900 -0.2163  0.3335
32115W        W75053   6.270  26.733  22.712 -0.0985  0.1653 -0.0542
32116W        W75054   6.061  24.370  23.081 -0.0664 -0.4391 -0.1908
32117W        W75055   4.882  27.267  23.616 -0.0949  0.0817  0.2423
32118W        W75056   6.849  26.382  22.993 -0.1578  0.1177  0.1977
32119W        W75057   5.549  27.258  18.713 -0.2496  0.2801  0.2027
32120W        W75058   5.718  27.104  24.132  0.1323 -0.0685 -0.2849
32121W        W75059   3.548  26.050  19.751 -0.1053 -0.0299  0.0198
32122W        W75060   4.561  25.120  23.638  0.4549 -0.2336  0.4859
32123W        W75061   4.379  26.252  23.064  0.0387  0.0053  0.0733
32124W        W75062   4.223  27.164  22.136 -0.1503  0.0056 -0.2738
32125W        W75063   7.312  28.371  24.872  0.0027 -0.0162  0.6262
32126W        W75064   5.510  28.008  23.040 -0.1874  0.1004  0.0346
32127W        W75065   5.958  26.596  22.335  0.3719 -0.1651  0.0349
32128W        W75066   4.813  26.923  20.218 -0.0990 -0.1877 -0.0408
32129W        W75067   5.304  28.350  21.023  0.2319  0.0768 -0.1090
32130W        W75068   4.286  27.509  20.810 -0.2127 -0.0398  0.1173
32131W        W75069   5.660  25.089  23.733  0.0195 -0.0624 -0.0563
32132W        W75070   4.931  28.678  21.855  0.0538  0.0726  0.0412
32133W        W75071   5.256  27.676  19.093  0.0860 -0.1447 -0.0118
32134W        W75072   6.096  26.931  23.193  0.0249  0.0198  0.2941
32135W        W75073   4.569  28.966  20.357 -0.0335 -0.0334  0.1543
32136W        W75074   5.651  25.602  22.799 -0.0753  0.2700  0.1791
32137W        W75075   4.184  27.692  21.987  0.2366 -0.2463 -0.3838
32138W        W75076   2.212  25.898  21.224 -0.2588 -0.0598 -0.1528
32139W        W75077   3.109  26.666  21.336 -0.0689 -0.1817  0.0880
32140W        W75078   5.967  26.711  21.814  0.1421 -0.1568  0.0435
32141W        W75079   5.752  28.524  21.187 -0.4103 -0.0436  0.3971
32142W        W75080   3.437  25.434  23.180 -0.0787 -0.2226 -0.0783
32143W        W75081   6.176  24.992  21.190  0.1789  0.0931 -0.0548
32144W        W75082   4.654  27.812  21.681  0.4172  0.1289 -0.0452
32145W        W75083   5.503  27.842  24.790  0.0066 -0.2360  0.0557
32146W        W75084   7.047  25.608  20.908 -0.0424 -0.2774 -0.2035
32147W        W75085   7.047  27.936  23.685 -0.0096 -0.0384 -0.0090
32148W        W75086   4.848  27.191  24.543 -0.2364 -0.3569  0.2860
32149W        W75087   4.002  26.470  20.400 -0.0293  0.2742 -0.1953
32150W        W75088   6.655  25.981  22.689  0.0961 -0.3316  0.2762
32151W        W75089   4.645  27.463  22.288 -0.2392 -0.1610  0.0644
32152W        W75090   3.144  27.951  22.119 -0.0723 -0.0583 -0.1723
32153W        W75091   5.942  28.715  23.545 -0.2116  0.1827  0.2057
32154W        W75092   4.037  27.831  19.992 -0.1855  0.1025  0.0517
32155W        W75093   5.413  28.645  21.960  0.2346  0.1889  0.0418
32156W        W75094   5.548  26.076  23.628 -0.2332 -0.0462 -0.2944
32157W        W75095   7.416  28.148  22.316 -0.1450 -0.0965  0.1758
32158W        W75096   4.848  27.152  21.483  0.1777 -0.0957  0.1344
32159W        W75097   3.201  26.225  20.973  0.0712  0.1465 -0.0039
32160W        W75098   5.623  26.800  20.463 -0.1168  0.0034 -0.1923
32161W        W75099   6.613  27.953  22.922  0.0154  0.0698 -0.1663
32162W        W75100   5.754  26.082  22.402  0.0968  0.0052 -0.0198
32163W        W75101   4.636  26.136  23.879 -0.1585  0.1246  0.1818
32164W        W75102   5.164  24.975  21.443 -0.1226  0.1891  0.0660
32165W        W75103   7.254  29.501  20.934 -0.0847  0.0981  0.2286
32166W        W75104   6.976  26.762  24.313 -0.1601 -0.0116 -0.5263
32167W        W75105   4.862  27.842  20.657 -0.0238 -0.0650  0.0600
32168W        W75106   2.712  26.792  22.909  0.1380 -0.2314 -0.2197
32169W        W75107   5.153  29.077  22.074  0.4117 -0.1352 -0.0994
32170W        W75108   5.265  27.679  23.596 -0.1427  0.1589  0.0804
32171W        W75109   5.183  28.058  21.695 -0.1099  0.1106  0.2147
32172W        W75110   5.430  28.585  20.147  0.0619 -0.0335 -0.0162
32173W        W75111   5.420  27.277  21.587 -0.0052  0.1648 -0.1411
32174W        W75112   6.604  25.952  20.945 -0.1587 -0.1826 -0.1182
32175W        W75113   6.160  28.431  20.462 -0.2332 -0.2439  0.2362
32176W        W75114   4.683  27.717  23.448 -0.3069 -0.3842 -0.0075
32177W        W75115   6.790  25.618  21.844  0.1166 -0.1046 -0.1102
32178W        W75116   6.531  27.577  20.614 -0.0045 -0.0323 -0.2375
32179W        W75117   6.110  25.102  22.465 -0.0144 -0.2347 -0.0765
32180W        W75118   4.458  25.705  21.843 -0.1799 -0.1494  0.1446
32181W        W75119   6.251  27.643  21.531 -0.2272  0.1802  0.1108
32182W        W75120   3.974  27.035  23.078 -0.3016 -0.2169 -0.0004
32183W        W75121   5.122  30.451  24.459 -0.2907  0.1342 -0.0397
32184W        W75122   4.561  25.812  24.597 -0.0742  0.0907 -0.0230
32185W        W75123   5.461  25.939  19.781  0.1232 -0.0859  0.0394
32186W        W75124   4.445  24.945  20.145 -0.0973 -0.0765  0.0122
32187W        W75125   5.837  28.071  20.888  0.2570  0.1737 -0.4296
32188W        W75126   6.962  28.698  22.952  0.1678  0.0126 -0.2006
32189W        W75127   5.341  28.960  19.856  0.0500  0.0494  0.6614
32190W        W75128   5.145  27.031  21.872 -0.0543 -0.1187 -0.1296
32191W        W75129   1.961  26.648  21.737 -0.2105 -0.3728 -0.2363
32192W        W75130   6.325  27.540  21.962 -0.1379 -0.0924  0.2619
32193W        W75131   5.767  27.232  20.312 -0.1810  0.1775 -0.2181
32194W        W75132   5.354  28.524  21.476  0.1574  0.0271 -0.0766
32195W        W75133   3.608  25.222  22.760  0.1274 -0.1676 -0.2081
32196W        W75134   5.444  27.544  23.110  0.1085 -0.0159 -0.0581
32197W        W75135   5.876  26.834  20.883 -0.3794 -0.1774 -0.2272
32198W        W75136   5.107  26.325  23.919 -0.0926 -0.1792 -0.2121
32199W        W75137   4.919  25.521  24.411  0.0020 -0.0223 -0.2958
32200W        W75138   6.300  26.700  25.292  0.0733  0.0298 -0.2707
32201W        W75139   4.355  26.707  22.853 -0.0090 -0.3122 -0.0310
32202W        W75140   6.495  27.985  24.366 -0.1409 -0.0240 -0.3553
32203W        W75141   7.038  27.796  19.884  0.0326 -0.2255 -0.0758
32204W        W75142   6.051  25.411  21.565 -0.0434  0.0565 -0.1182
32205W        W75143   8.219  26.153  21.503  0.1511 -0.0964 -0.4033
32206W        W75144   6.171  26.623  19.504  0.1048  0.0258  0.0568
32207W        W75145   5.034  27.512  22.704 -0.1489  0.0983  0.1218
32208W        W75146   6.598  28.023  23.860  0.0377  0.1894 -0.2208
32209W        W75147   4.879  26.435  20.146  0.1416 -0.0554  0.3425
32210W        W75148   5.710  27.445  23.625 -0.0631  0.3187 -0.2835
32211W        W75149   5.237  29.600  20.101 -0.1251 -0.0498 -0.1809
32212W        W75150   5.747  28.361  21.736  0.0815  0.0789 -0.0745
32213W        W75151   6.681  27.924  20.228  0.0649  0.0109 -0.1877
32214W        W75152   4.147  25.974  22.746 -0.0097  0.2297  0.1298
32215W        W75153   3.280  28.885  23.831  0.1849  0.1187  0.0997
32216W        W75154   4.267  26.717  20.850 -0.2411  0.1477 -0.0273
32217W        W75155   5.497  27.635  19.537 -0.0895 -0.2339  0.1017
32218W        W75156   5.044  27.885  23.147  0.2322  0.0992 -0.1804
32219W        W75157   6.407  25.607  23.849  0.0745  0.0360 -0.2596
32220W        W75158   5.743  27.438  21.204  0.1270  0.0462  0.5629
32221W        W75159   6.486  27.243  22.509 -0.0651  0.0422  0.5209
32222W        W75160   4.402  29.377  19.788 -0.0650 -0.2764  0.5266
32223W        W75161   5.011  27.532  21.850  0.0728  0.2766 -0.1359
32224W        W75162   4.961  28.833  23.156  0.1626  0.0991  0.2183
32225W        W75163   3.345  27.348  25.231 -0.2013 -0.2680 -0.0429
32226W        W75164   6.271  28.535  21.425 -0.2797  0.0420 -0.1182
32227W        W75165   5.527  26.710  22.593 -0.0467 -0.3047  0.1277
32228W        W75166   5.985  27.218  22.709 -0.1229  0.1889 -0.2860
32229W        W75167   5.122  26.436  21.134  0.1073 -0.0203  0.1155
32230W        W75168   7.855  26.276  24.068  0.1572 -0.1788 -0.2065
32231W        W75169   6.049  27.947  23.958  0.0036  0.0065 -0.0749
32232W        W75170   5.327  26.992  21.152  0.0612 -0.0199 -0.3769
32233W        W75171   5.831  28.410  23.893  0.1652 -0.0105 -0.3517
32234W        W75172   7.694  28.463  20.430 -0.3008 -0.0317  0.0224
32235W        W75173   6.206  29.456  21.263  0.0200 -0.5081  0.2029
32236W        W75174   3.827  26.972  24.460  0.2620  0.0835 -0.1069
32237W        W75175   5.767  26.414  24.799  0.0053 -0.0371  0.3187
32238W        W75176   6.525  28.015  21.680  0.0078  0.0393  0.1788
32239W        W75177   3.093  25.887  22.066  0.0682  0.3880 -0.0093
32240W        W75178   3.954  26.894  22.516  0.1977 -0.1174  0.1878
32241W        W75179   3.694  27.193  23.696  0.1879 -0.0647  0.3017
32242W        W75180   3.699  27.566  23.262 -0.4817  0.2125 -0.0714
32243W        W75181   4.177  29.026  20.713 -0.2685 -0.1669  0.0315
32244W        W75182   6.889  28.859  20.205  0.1435  0.0611  0.1861
32245W        W75183   6.040  27.910  21.910 -0.0203  0.2875  0.0825
32246W        W75184   6.912  27.342  21.493 -0.1803 -0.1389  0.2583
32247W        W75185   5.105  27.555  21.311  0.0345 -0.0568  0.3786
32248W        W75186   4.156  28.819  22.072  0.1625 -0.0966  0.0399
32249W        W75187   2.685  28.819  19.681  0.1809 -0.0972  0.1013
32250W        W75188   5.889  29.050  21.415 -0.0305 -0.1872  0.1578
32251W        W75189   4.786  28.403  20.866 -0.3560  0.1248 -0.2770
32252W        W75190   7.583  28.314  24.416 -0.0943  0.0288  0.0245
32253W        W75191   7.336  25.867  20.039  0.0993  0.2415  0.2184
32254W        W75192   7.880  26.665  20.861 -0.1101 -0.1570 -0.1103
32255W        W75193   8.003  26.782  20.365 -0.1734  0.1496 -0.2497
32256W        W75194   5.352  28.133  23.861  0.3344 -0.0253  0.2833
32257W        W75195   6.562  26.714  22.280 -0.1613 -0.1043  0.5028
32258W        W75196   4.757  26.058  22.048 -0.1608  0.2202  0.1166
32259W        W75197   3.676  28.195  23.654  0.2157  0.2783 -0.0786
32260W        W75198   6.926  23.843  24.504 -0.1512  0.0903  0.1829
32261W        W75199   2.754  29.511  23.703 -0.2465 -0.0541 -0.0350
32262W        W75200   7.928  28.089  22.123  0.1713 -0.0962  0.0328
32263W        W75201   4.935  28.609  20.175 -0.1524  0.1210 -0.3822
32264W        W75202   4.524  27.099  20.613  0.1292  0.1085  0.1059
32265W        W75203   5.958  25.053  21.949 -0.0592  0.4884  0.0679
32266W        W75204   5.380  27.791  20.892 -0.1632  0.0694 -0.3375
32267W        W75205   5.861  27.517  22.294 -0.0984 -0.0610  0.2124
32268W        W75206   4.207  28.297  20.978  0.1692 -0.2749  0.0207
32269W        W75207   5.620  28.268  22.258 -0.0718  0.0712  0.0050
32270W        W75208   3.772  27.962  21.615  0.0212  0.2577 -0.4021
32271W        W75209   2.060  25.743  20.568 -0.2657 -0.1570  0.3429
32272W        W75210   6.384  26.184  20.400  0.0439 -0.2178 -0.0081
32273W        W75211   5.261  26.708  23.033  0.1540  0.2910  0.2431
32274W        W75212   6.346  26.339  22.999 -0.2411 -0.1190  0.0110
32275W        W75213   5.574  28.035  21.309 -0.2113 -0.0409 -0.3282
32276W        W75214   7.529  27.241  20.567 -0.1923 -0.2086  0.1215
32277W        W75215   5.568  27.737  24.024 -0.3108 -0.0932  0.2468
32278W        W75216   4.032  26.677  22.007  0.0354  0.0822  0.1307
32279W        W75217   4.445  27.732  20.341  0.3113 -0.1670  0.2148
32280W        W75218   6.514  25.798  23.158  0.0623 -0.0053 -0.0590
32281W        W75219   5.536  26.565  20.004  0.0200  0.4706 -0.2563
32282W        W75220   6.441  28.741  24.444 -0.0056  0.0941  0.0201
32283W        W75221   3.716  25.759  22.824  0.1004 -0.2273  0.0012
32284W        W75222   4.807  25.702  19.444  0.2095 -0.0840  0.0179
32285W        W75223   3.358  27.176  21.554  0.0034 -0.3001  0.2794
32286W        W75224   4.857  26.922  20.996  0.5010  0.0782  0.5119
32287W        W75225   6.993  27.676  24.118 -0.0882 -0.0192 -0.0526
32288W        W75226   2.850  25.505  21.845  0.0495  0.1021  0.0546
32289W        W75227   7.306  28.883  20.384 -0.0265 -0.0143  0.1793
32290W        W75228   7.170  27.286  21.933  0.0809 -0.0139 -0.0082
32291W        W75229   6.071  29.612  19.932 -0.1536  0.0026 -0.1528
32292W        W75230   7.561  27.618  21.037  0.2159  0.2689 -0.0782
32293W        W75231   7.342  29.043  22.209  0.3314  0.1899  0.2343
32294W        W75232   3.130  27.534  23.090 -0.1021  0.3005  0.1787
32295W        W75233   5.967  29.003  24.579  0.1679 -0.0585  0.1124
32296W        W75234   5.840  27.698  22.778  0.1891 -0.0296  0.0339
32297W        W75235   6.751  24.557  22.563 -0.2096  0.1654  0.0739
32298W        W75236   3.600  26.561  22.328  0.1297 -0.0273  0.0953
32299W        W75237   5.095  29.220  20.791 -0.2176  0.0640  0.1528
32300W        W75238   8.220  26.305  20.668  0.0160  0.1070  0.0316
32301W        W75239   6.340  27.519  22.986 -0.0978 -0.0607  0.0425
32302W        W75240   5.669  28.502  20.672  0.2762  0.0551  0.1788
32303W        W75241   6.820  24.875  23.448  0.5046  0.1472  0.1005
32304W        W75242   3.806  27.435  22.308 -0.0845  0.0327 -0.1161
32305W        W75243   4.168  29.219  22.913 -0.1166 -0.2429  0.1317
32306W        W75244   2.407  27.204  20.659  0.0103 -0.0608 -0.0166
32307W        W75245   4.770  27.315  24.109 -0.1276 -0.2026  0.2017
32308W        W75246   5.434  28.900  21.013 -0.0355 -0.0490  0.4629
32309W        W75247   6.186  27.921  20.519 -0.3035 -0.1225  0.0860
32310W        W75248   5.990  29.413  21.764 -0.1761 -0.1513  0.1033
32311W        W75249   6.480  27.166  21.593  0.1324  0.3046 -0.1224
32312W        W75250   6.887  28.024  20.817  0.2724 -0.2020  0.1487
32313W        W75251   5.273  27.274  23.929  0.1244 -0.0297  0.2165
32314W        W75252   7.361  26.296  20.272 -0.3143 -0.1391  0.4226
32315W        W75253   6.551  27.383  21.102 -0.0395 -0.1408  0.2572
32316W        W75254   4.371  28.090  23.518 -0.1815  0.2495  0.3436
32317W        W75255   2.254  27.385  20.003 -0.0258  0.4334 -0.0241
32318W        W75256   3.643  28.084  19.901  0.0755 -0.0852 -0.1175
32319W        W75257   4.785  28.296  21.454  0.2501 -0.3119  0.2039
32320W        W75258   4.618  27.482  23.016  0.1537 -0.0191 -0.1236
32321W        W75259   5.107  26.358  23.398 -0.1981  0.3129 -0.0356
32322W        W75260   5.240  27.482  22.296 -0.1260 -0.3296  0.0865
32323W        W75261   4.219  26.543  21.452  0.2489  0.1604 -0.3961
32324W        W75262   6.712  28.497  22.478  0.1254 -0.2553  0.2937
32325W        W75263   3.724  24.557  20.881 -0.0581  0.0151 -0.0130
32326W        W75264   4.571  26.703  22.413  0.1471  0.1371  0.2621
32327W        W75265   5.425  27.916  22.539  0.0090  0.0882 -0.1213
32328W        W75266   6.017  29.109  22.455  0.1138  0.1209 -0.3789
32329W        W75267   3.340  25.590  22.504  0.1390  0.0678  0.1250
32330W        W75268   6.712  27.404  23.343  0.1485  0.0449 -0.2381
32331W        W75269   3.886  28.432  20.120  0.1196 -0.0776  0.1502
32332W        W75270   5.015  26.551  22.592  0.1486 -0.1221  0.1692
32333W        W75271   4.744  25.172  22.585 -0.1554  0.0788  0.0728
32334W        W75272   3.948  27.093  20.799  0.2108 -0.3471 -0.0371
32335W        W75273   5.320  26.678  21.532 -0.0535  0.0531 -0.2087
32336W        W75274   6.540  28.542  21.849 -0.1998 -0.2815  0.0254
32337W        W75275   5.706  29.248  19.983  0.0428  0.0286 -0.1648
32338W        W75276   4.309  28.077  21.453 -0.2940  0.3059  0.2633
32339W        W75277   6.922  29.472  23.569 -0.1877 -0.0175 -0.0701
32340W        W75278   4.259  26.174  24.914  0.0395  0.0561  0.3004
32341W        W75279   6.290  27.164  20.253  0.1186 -0.2884 -0.0973
32342W        W75280   3.863  28.036  23.221  0.0880 -0.1188  0.1230
32343W        W75281   6.651  27.363  19.470 -0.0589 -0.0011  0.2489
32344W        W75282   6.811  26.979  21.139  0.1384 -0.2186 -0.2671
32345W        W75283   5.074  26.169  22.898 -0.2382 -0.0751  0.0298
32346W        W75284   4.235  24.428  22.876 -0.1245  0.1482  0.0565
32347W        W75285   4.791  26.851  23.945  0.0582 -0.0703  0.0287
32348W        W75286   6.645  27.792  22.458  0.1940 -0.2716 -0.1009
32349W        W75287   3.878  26.298  21.229  0.0414  0.1764 -0.1441
32350W        W75288   5.750  26.839  21.393 -0.1008 -0.0132  0.1631
32351W        W75289   5.702  29.096  23.210  0.2278  0.4215 -0.0687
32352W        W75290   3.435  28.271  21.757 -0.0924 -0.3172  0.0550
32353W        W75291   4.436  26.244  20.669  0.1279  0.2236 -0.1694
32354W        W75292   6.260  25.557  25.278  0.1893 -0.0744  0.0601
32355W        W75293   6.709  27.185  22.005  0.0805  0.0367 -0.1081
32356W        W75294   6.405  27.160  24.889 -0.0386  0.1408  0.0459
32357W        W75295   2.735  26.736  20.350  0.1483 -0.1895  0.2140
32358W        W75296   6.876  26.703  19.785 -0.1795 -0.1916  0.1333
32359W        W75297   6.709  30.483  23.340 -0.0962  0.0195 -0.0825
32360W        W75298   7.518  27.939  23.505  0.0424  0.0562  0.0516
32361W        W75299   6.234  28.329  23.627 -0.2276  0.1700 -0.1554
32362W        W75300   6.992  28.287  21.395 -0.0668  0.1241  0.2546
32363W        W75301   3.755  26.330  21.751 -0.1115  0.2132  0.1706
32364W        W75302   5.605  27.710  20.365  0.0441 -0.1430  0.4803
32365W        W75303   4.429  28.532  20.544  0.0152 -0.0679  0.0277
32366W        W75304   5.754  26.927  25.274 -0.1698  0.1569 -0.0759
32367W        W75305   4.589  25.552  20.763 -0.1107 -0.0477  0.1019
32368W        W75306   6.628  26.535  20.674 -0.1174 -0.0109  0.0683
32369W        W75307   3.524  27.925  24.080 -0.0943  0.0435 -0.4240
32370W        W75308   4.817  27.982  22.707 -0.1538 -0.1092  0.3105
32371W        W75309   5.634  27.636  26.583 -0.0179  0.2572 -0.1368
32372W        W75310   4.080  24.576  25.038  0.0135 -0.0509  0.0806
32373W        W75311   7.235  25.392  22.605  0.1408 -0.3559 -0.3382
32374W        W75312   7.832  26.255  25.425 -0.1056 -0.0094  0.0172
32375W        W75313   4.262  25.596  24.985 -0.2873 -0.1100 -0.3187
32376W        W75314   6.898  28.827  24.880 -0.0565  0.0282 -0.2155
32377W        W75315   5.342  25.081  28.050  0.1678  0.0294  0.0088
32378W        W75316   6.149  27.474  26.456 -0.1422  0.3398  0.2265
32379W        W75317   6.818  27.177  25.342 -0.0258 -0.0769  0.2069
32380W        W75318   4.158  28.654  23.936  0.0882  0.0913 -0.1146
32381W        W75319   6.590  24.530  26.726  0.0111  0.7157  0.1928
32382W        W75320   5.401  27.520  25.274  0.1854  0.0071 -0.0634
32383W        W75321   5.351  26.080  25.015  0.1466 -0.0020 -0.2502
32384W        W75322   4.417  24.868  26.295  0.2348  0.2256  0.2923
32385W        W75323   6.867  26.196  24.789 -0.6062 -0.0740 -0.3167
32386W        W75324   4.560  28.057  24.911 -0.1014 -0.1487  0.0621
32387W        W75325   4.518  25.121  25.769  0.0491 -0.0719 -0.0599
32388W        W75326   4.693  27.072  24.991  0.1345  0.0167  0.0297
32389W        W75327   6.104  27.578  24.766 -0.1011  0.3255  0.2072
32390W        W75328   5.767  25.596  27.287  0.0105  0.5000  0.0059
32391W        W75329   5.786  25.865  27.999 -0.2399 -0.2683  0.0431
32392W        W75330   5.754  29.318  25.121 -0.3766 -0.1791  0.2253
32393W        W75331   3.831  27.384  22.786 -0.2858 -0.0601 -0.3413
32394W        W75332   4.662  25.850  26.677  0.1760 -0.0882  0.0427
32395W        W75333   4.443  27.123  26.039  0.1245  0.0452  0.2311
32396W        W75334   6.201  26.267  24.560 -0.0819 -0.0256  0.0761
32397W        W75335   5.579  28.456  25.567  0.0425  0.1422  0.3538
32398W        W75336   5.494  28.327  26.077  0.3021  0.0230 -0.0245
32399W        W75337   5.593  26.090  25.971  0.0419 -0.2253  0.1525
32400W        W75338   6.569  26.079  27.491  0.0481  0.1358  0.1152
32401W        W75339   4.385  26.647  24.835 -0.0166  0.0589  0.0946
32402W        W75340   3.559  28.642  23.442 -0.0600  0.1024 -0.1166
32403W        W75341   6.339  28.003  24.832  0.3269  0.0924 -0.3404
32404W        W75342   8.433  28.172  23.548  0.1322  0.1801 -0.2628
32405W        W75343   7.200  28.234  26.232 -0.0499 -0.0338  0.2457
32406W        W75344   4.534  29.683  26.654 -0.1289 -0.0579  0.2597
32407W        W75345   3.572  28.677  24.633  0.0121 -0.1213 -0.1355
32408W        W75346   5.928  29.341  28.685  0.3044  0.1648 -0.0311
32409W        W75347   5.007  27.979  25.359 -0.0137 -0.0672 -0.2868
32410W        W75348   5.382  27.463  25.974 -0.3437 -0.1722 -0.0591
32411W        W75349   4.620  27.011  25.486  0.0861 -0.0436  0.0402
32412W        W75350   4.804  29.386  23.682  0.3446  0.3370  0.0470
32413W        W75351   4.867  28.947  25.477 -0.5003  0.0714 -0.2650
32414W        W75352   4.212  26.664  27.710 -0.1233 -0.0092 -0.2472
32415W        W75353   4.293  27.548  24.361 -0.0829  0.1752  0.0769
32416W        W75354   7.479  26.455  27.699  0.1297 -0.0318  0.1852
32417W        W75355   4.375  27.217  23.726  0.0386 -0.2211  0.3262
32418W        W75356   5.968  26.245  23.283  0.0171  0.1246  0.0012
32419W        W75357   5.903  26.616  24.352 -0.1235 -0.1821  0.0498
32420W        W75358   7.265  26.643  23.063 -0.1825 -0.0960 -0.0454
32421W        W75359   6.468  24.041  25.880  0.0200  0.3557 -0.2578
32422W        W75360   4.671  28.904  25.948 -0.2439  0.0552 -0.0626
32423W        W75361   4.658  25.711  25.897 -0.1381 -0.2505  0.3674
32424W        W75362   6.970  28.151  27.494 -0.0384  0.1503  0.0748
32425W        W75363   4.268  27.137  24.721  0.1057  0.1108 -0.1851
32426W        W75364   7.097  26.709  25.865 -0.5247 -0.1004  0.3445
32427W        W75365   2.745  27.416  26.979  0.0106 -0.0806 -0.2624
32428W        W75366   4.356  26.526  23.966  0.0950  0.0659 -0.1140
32429W        W75367   6.148  26.947  25.691 -0.2291  0.1952  0.4261
32430W        W75368   6.630  28.363  25.765  0.0310  0.1187  0.2874
32431W        W75369   6.635  27.132  24.340  0.0715 -0.3723 -0.2924
32432W        W75370   3.932  26.384  25.928  0.4213  0.1772 -0.0865
32433W        W75371   3.905  28.307  27.959  0.2049  0.1730  0.0340
32434W        W75372   3.199  25.917  27.607  0.0553 -0.0362 -0.0090
32435W        W75373   3.943  26.424  23.151  0.0609  0.1726 -0.0709
32436W        W75374   5.803  27.349  26.180 -0.2242 -0.1618 -0.1752
32437W        W75375   3.804  27.470  28.705 -0.2704  0.0296 -0.0055
32438W        W75376   6.829  27.459  22.792 -0.1664 -0.3747  0.2460
32439W        W75377   5.340  27.004  26.104  0.0012  0.0029  0.0229
32440W        W75378   6.847  28.556  27.694 -0.0404 -0.2468  0.1010
32441W        W75379   6.665  26.853  25.956 -0.4879  0.1352 -0.0065
32442W        W75380   7.015  25.759  25.871  0.1700 -0.0836  0.1462
32443W        W75381   7.442  26.321  24.460  0.3967 -0.0708 -0.0185
32444W        W75382   5.033  26.851  23.487 -0.2593  0.3780  0.1309
32445W        W75383   5.284  27.327  26.487 -0.1753  0.3082 -0.0827
32446W        W75384   7.278  30.688  25.632  0.1371  0.0906  0.2351
32447W        W75385   7.623  26.015  22.361 -0.0975  0.2185  0.1025
32448W        W75386   3.767  28.106  26.318 -0.1982 -0.0345  0.2267
32449W        W75387   5.517  25.087  27.013 -0.1226 -0.2925  0.2171
32450W        W75388   4.941  27.164  27.083 -0.0206  0.0888  0.5171
32451W        W75389   3.991  30.103  24.572 -0.2184 -0.1756 -0.0635
32452W        W75390   4.120  27.471  27.326 -0.0085 -0.1288 -0.0141
32453W        W75391   2.811  28.078  25.050 -0.0197 -0.0421 -0.0163
32454W        W75392   2.957  24.810  27.748 -0.1957  0.0285  0.2686
32455W        W75393   4.462  27.502  25.693  0.2931 -0.0738  0.1187
32456W        W75394   6.344  24.274  23.499 -0.1794  0.1121 -0.0100
32457W        W75395   4.404  24.625  25.879  0.0463 -0.2499 -0.0779
32458W        W75396   7.235  24.875  25.683  0.1044  0.0519  0.0867
32459W        W75397   4.546  27.556  24.885 -0.1461 -0.1499 -0.2828
32460W        W75398   8.669  29.697  24.292  0.1436  0.2448 -0.0867
32461W        W75399   7.328  25.977  24.900 -0.0528  0.0130  0.1202
32462W        W75400   6.540  27.962  23.381  0.3595 -0.2692 -0.2363
32463W        W75401   3.031  26.886  26.591  0.2156 -0.1569  0.5839
32464W        W75402   4.874  25.554  25.468  0.3425 -0.2561  0.0418
32465W        W75403   4.314  25.368  26.131 -0.0417  0.0889 -0.0262
32466W        W75404   4.392  25.842  27.127 -0.3270 -0.1754  0.2603
32467W        W75405   6.535  27.176  26.770 -0.0185 -0.2657  0.3331
32468W        W75406   5.409  25.759  23.994 -0.1811 -0.1526 -0.2297
32469W        W75407   5.415  27.924  25.761 -0.3480 -0.0598  0.0369
32470W        W75408   4.305  26.583  26.233  0.2966  0.1261 -0.0858
32471W        W75409   3.783  27.522  25.407 -0.0226  0.1710  0.1866
32472W        W75410   6.833  24.784  27.094 -0.1940  0.0900  0.0294
32473W        W75411   7.085  28.863  23.847 -0.2086  0.0599 -0.1629
32474W        W75412   7.009  28.496  26.657 -0.3626  0.2258  0.0524
32475W        W75413   5.686  28.625  26.409 -0.0098  0.0113  0.1979
32476W        W75414   6.833  25.921  27.085 -0.0474  0.2982 -0.1653
32477W        W75415   3.044  25.809  24.925  0.2159 -0.1242  0.1130
32478W        W75416   4.356  29.201  26.495 -0.1122 -0.2109 -0.0003
32479W        W75417   4.425  28.499  24.726 -0.1398  0.0405  0.0050
32480W        W75418   5.798  25.483  25.238  0.0837  0.0605 -0.0333
32481W        W75419   7.513  28.192  25.739 -0.2382  0.2930  0.2386
32482W        W75420   3.700  26.784  25.852  0.0199 -0.0069  0.0750
32483W        W75421   4.394  26.284  26.667 -0.1012  0.1224 -0.3668
32484W        W75422   7.658  24.214  25.172  0.2826  0.3014 -0.0374
32485W        W75423   6.803  26.347  26.233 -0.2942 -0.0053  0.3253
32486W        W75424   4.917  27.384  26.175  0.2842 -0.4286  0.3081
32487W        W75425   3.938  25.892  23.282  0.0064 -0.0823 -0.1261
32488W        W75426   5.810  27.556  25.714 -0.1026  0.2561  0.1826
32489W        W75427   3.879  28.071  25.305 -0.1824  0.1340  0.2050
32490W        W75428   3.507  26.260  25.765  0.0688  0.0040 -0.0713
32491W        W75429   3.857  26.502  23.735 -0.2822  0.0096  0.0494
32492W        W75430   8.288  25.850  24.799  0.0051  0.2525 -0.1464
32493W        W75431   3.621  28.610  26.791  0.0793 -0.0288 -0.0311
32494W        W75432   6.410  24.457  27.180 -0.3729  0.1651 -0.0095
32495W        W75433   3.427  27.386  25.770 -0.0530  0.1723 -0.0539
32496W        W75434   4.054  27.452  26.776  0.0261 -0.3856 -0.1891
32497W        W75435   5.771  24.992  25.124 -0.0973  0.0230  0.0381
32498W        W75436   8.251  26.455  24.418 -0.3451  0.0605  0.1436
32499W        W75437   4.593  27.495  26.988 -0.0912 -0.0350  0.3194
32500W        W75438   7.111  26.357  25.198 -0.1074 -0.1796 -0.0649
32501W        W75439   5.821  26.985  23.645  0.0742 -0.1064 -0.1442
32502W        W75440   5.575  26.239  24.109  0.2600  0.0187  0.0054
32503W        W75441   2.975  26.401  27.307 -0.3695  0.0171  0.0656
32504W        W75442   4.717  28.511  25.250 -0.2220  0.0588 -0.0814
32505W        W75443   3.619  26.473  25.339  0.1467 -0.2736 -0.0352
32506W        W75444   6.253  26.604  23.551 -0.1322  0.1938 -0.0663
32507W        W75445   7.221  27.700  22.912  0.2423  0.4950 -0.2176
32508W        W75446   2.959  27.697  26.007 -0.0854  0.4140  0.3040
32509W        W75447   5.915  29.591  27.735 -0.0737 -0.1847 -0.0246
32510W        W75448   6.993  28.160  23.228 -0.1651 -0.0517  0.1464
32511W        W75449   6.356  25.045  27.476  0.0327 -0.0053  0.1423
32512W        W75450   4.898  28.134  23.590  0.1629  0.1936 -0.1094
32513W        W75451   5.657  25.995  25.424 -0.1385 -0.2248 -0.1582
32514W        W75452   4.030  29.581  24.253 -0.3219 -0.0794 -0.1346
32515W        W75453   6.686  24.908  28.690  0.0296 -0.0057  0.0560
32516W        W75454   6.800  25.605  25.119  0.1015  0.3344  0.3203
32517W        W75455   5.282  24.984  27.443  0.0253 -0.4067  0.4431
32518W        W75456   5.533  26.277  26.505  0.1219  0.0395  0.0426
32519W        W75457   6.920  26.219  25.758 -0.0903 -0.0876  0.0526
32520W        W75458   6.357  25.908  24.214 -0.0561 -0.0470  0.2961
32521W        W75459   4.662  26.518  23.537  0.2054 -0.0601  0.1855
32522W        W75460   4.574  26.251  27.317  0.1370 -0.0164 -0.0131
32523W        W75461   3.705  27.052  26.741 -0.2812  0.0659  0.0054
32524W        W75462   2.870  28.605  27.274 -0.0188  0.3875  0.0109
32525W        W75463   6.074  28.186  27.192  0.1722  0.2326  0.1490
32526W        W75464   5.004  27.605  25.707  0.3509 -0.0892 -0.0593
32527W        W75465   5.199  25.634  27.360  0.1992 -0.1309  0.3294
32528W        W75466   4.815  26.144  24.905 -0.0952  0.1399 -0.0168
32529W        W75467   4.773  29.186  24.162  0.0193  0.1458 -0.1755
32530W        W75468   5.041  27.740  24.845  0.0832 -0.2608  0.3985
32531W        W75469   6.035  24.751  26.495  0.2576 -0.2115  0.2034
32532W        W75470   6.186  28.565  25.492 -0.2257  0.1217 -0.1182
32533W        W75471   4.197  27.511  21.502 -0.2079 -0.0507 -0.1548
32534W        W75472   5.908  28.094  25.664  0.0883  0.1179  0.0076
32535W        W75473   4.058  28.722  24.462 -0.1250  0.0504  0.1376
32536W        W75474   7.159  24.770  26.130 -0.1945 -0.1198 -0.0629
32537W        W75475   2.984  27.315  25.620  0.0582  0.0665  0.0237
32538W        W75476   5.339  25.302  24.227  0.1636 -0.0374  0.0370
32539W        W75477   5.886  27.691  25.235  0.1100 -0.2616 -0.1231
32540W        W75478   7.090  25.346  25.607  0.0739  0.3573 -0.0148
32541W        W75479   7.835  27.273  23.703  0.0122  0.1434 -0.0163
32542W        W75480   5.862  25.120  27.354  0.1757 -0.1072  0.0361
32543W        W75481   5.294  26.801  26.532 -0.2626  0.0299  0.0306
32544W        W75482   3.933  27.580  26.286  0.0019 -0.1431  0.0122
32545W        W75483   6.040  25.780  26.111 -0.0532 -0.2051  0.3883
32546W        W75484   5.633  25.362  22.287 -0.1970 -0.3640 -0.0795
32547W        W75485   6.483  28.882  27.550 -0.0949  0.0707  0.1991
32548W        W75486   4.352  27.181  27.667 -0.1618  0.0387 -0.1413
32549W        W75487   3.501  26.805  23.995 -0.0631  0.1637  0.0537
32550W        W75488   5.909  27.355  26.897  0.0953 -0.1340 -0.2023
32551W        W75489   6.358  25.950  26.963 -0.1320  0.2762 -0.2412
32552W        W75490   4.829  27.466  25.300 -0.0166 -0.1328 -0.0824
32553W        W75491   4.809  28.404  26.222 -0.2513 -0.1571 -0.2912
32554W        W75492   5.221  27.032  25.306 -0.2485  0.1852  0.1759
32555W        W75493   3.573  27.480  26.712  0.0035 -0.1182 -0.2760
32556W        W75494   4.996  26.206  26.617 -0.0985 -0.0073 -0.2575
32557W        W75495   6.744  25.262  27.269 -0.1590 -0.0622 -0.0048
32558W        W75496   6.291  24.744  25.181  0.2221  0.1786 -0.0084
32559W        W75497   4.570  26.349  24.432  0.0260 -0.0818  0.0339
32560W        W75498   6.138  27.094  24.495 -0.0104 -0.1061 -0.2020
32561W        W75499   6.562  27.700  26.839  0.0855 -0.1274 -0.0304
32562W        W75500   5.896  25.919  24.880  0.1984 -0.1964  0.0501
32563W        W75501   5.170  27.007  28.339 -0.1080  0.1077  0.0835
32564W        W75502   6.244  24.973  26.972 -0.0766 -0.0865 -0.2557
32565W        W75503   7.169  28.998  25.303 -0.1098  0.2875 -0.1120
32566W        W75504   5.727  26.937  28.393 -0.0087  0.1459 -0.0683
32567W        W75505   5.829  26.493  23.774 -0.1830  0.2199 -0.0431
32568W        W75506   3.508  27.956  25.772  0.1665 -0.3163  0.0010
32569W        W75507   5.569  28.321  24.866 -0.2090 -0.0228 -0.1621
32570W        W75508   5.445  24.503  27.389  0.1642 -0.0984  0.0461
32571W        W75509   4.121  29.591  24.763 -0.2039  0.2261  0.0376
32572W        W75510   4.449  26.917  24.311  0.1729 -0.2009 -0.0630
32573W        W75511   4.185  27.284  25.247 -0.1724  0.0600  0.0548
32574W        W75512   7.097  26.039  23.463  0.0768 -0.1224  0.0450
32575W        W75513   6.122  27.300  25.322 -0.0659  0.1926  0.0399
32576W        W75514   6.875  25.170  26.023  0.1645  0.4295  0.0988
32577W        W75515   7.785  25.683  27.875  0.1579  0.1048  0.2491
32578W        W75516   5.872  26.459  25.695 -0.1272  0.2449 -0.1212
32579W        W75517   5.881  24.659  28.262  0.0198  0.2251 -0.1526
32580W        W75518   5.480  24.734  26.518  0.1103  0.1508  0.1373
32581W        W75519   7.183  26.860  25.245  0.1791 -0.2473 -0.0379
32582W        W75520   3.758  26.021  28.386  0.3821 -0.0394 -0.1340
32583W        W75521   7.076  27.637  27.058 -0.2746 -0.0791 -0.2533
32584W        W75522   3.571  27.471  28.262 -0.3568  0.0387  0.1617
32585W        W75523   4.958  26.054  24.352 -0.0647  0.2082 -0.0023
32586W        W75524   4.489  25.688  23.613  0.1982  0.0211  0.2122
32587W        W75525   4.126  26.724  26.670 -0.2395 -0.1342  0.6639
32588W        W75526   6.732  27.704  25.183 -0.1131 -0.2116  0.0015
32589W        W75527   4.945  28.375  24.051 -0.1142  0.0048  0.0759
32590W        W75528   7.889  25.884  24.381 -0.3724 -0.2857  0.1412
32591W        W75529   4.348  27.053  26.991 -0.1202 -0.0781  0.0466
32592W        W75530   7.506  26.016  23.863  0.0313 -0.1957 -0.1234
32593W        W75531   5.612  29.184  23.717  0.1887 -0.0209 -0.0079
32594W        W75532   5.107  28.218  24.939 -0.0765  0.2650  0.2126
32595W        W75533   5.167  25.634  26.791 -0.2148  0.0725 -0.0753
32596W        W75534   6.402  26.382  25.774  0.0116  0.2308 -0.1652
32597W        W75535   5.891  25.893  24.293 -0.0595  0.0986 -0.0084
32598W        W75536   5.998  26.289  25.207  0.0067  0.0547 -0.0016
32599W        W75537   5.818  25.178  26.593  0.2125  0.0822 -0.0596
32600W        W75538   4.791  26.963  27.537  0.0760  0.1029 -0.0845
32601W        W75539   5.207  24.671  26.913  0.3767 -0.0340 -0.4807
32602W        W75540   6.841  28.373  28.301 -0.2710  0.0406  0.1425
32603W        W75541   6.379  26.408  24.043  0.0231 -0.0638  0.0201
32604W        W75542   7.176  26.699  26.526 -0.2862  0.2370  0.2805
32605W        W75543   7.981  26.571  25.845 -0.0280 -0.0786  0.1087
32606W        W75544   5.550  26.810  24.773  0.0883  0.2123  0.0976
32607W        W75545   5.575  25.129  25.586  0.0971 -0.0208  0.1660
32608W        W75546   4.913  26.657  27.120  0.1638 -0.0691 -0.1567
32609W        W75547   4.539  25.692  24.109 -0.0765  0.0533 -0.0803
32610W        W75548   6.178  25.482  25.794 -0.1575 -0.0093  0.1699
32611W        W75549   6.713  28.448  24.099  0.1796 -0.0889 -0.1314
32612W        W75550   6.170  26.850  26.360 -0.0080 -0.3864 -0.0916
32613W        W75551   4.255  26.133  23.557  0.1667 -0.1568  0.2181
32614W        W75552   3.312  26.517  26.719  0.1639 -0.1283  0.3312
32615W        W75553   5.019  29.348  25.201 -0.0686  0.0764 -0.2601
32616W        W75554   3.565  25.953  23.697 -0.0683 -0.2261 -0.0488
32617W        W75555   5.737  27.288  24.939  0.1929 -0.0090 -0.0335
32618W        W75556   6.025  28.602  26.885  0.0273  0.1386 -0.0651
32619W        W75557   5.742  27.057  26.539  0.0789  0.0643  0.0687
32620W        W75558   6.056  25.929  22.900  0.0443 -0.0927  0.2784
32621W        W75559   7.907  25.134  27.418  0.3266  0.0014  0.0277
32622W        W75560   4.494  29.573  24.405 -0.0761  0.0063 -0.4301
32623W        W75561   7.459  25.748  26.273 -0.1569  0.2766 -0.2715
32624W        W75562   4.365  27.748  27.684 -0.0776  0.0984  0.1899
32625W        W75563   2.685  27.886  26.867  0.2329 -0.4193 -0.3638
32626W        W75564   4.465  29.149  24.643 -0.1762 -0.0849 -0.2788
32627W        W75565   7.095  25.255  26.861  0.1384 -0.1773  0.0165
32628W        W75566   7.636  26.644  26.675  0.0664 -0.0518  0.1082
32629W        W75567   5.431  27.122  26.959 -0.0362 -0.0233  0.1029
32630W        W75568   6.816  27.242  27.758 -0.1379  0.0805  0.0322
32631W        W75569   6.123  27.753  27.721  0.1154 -0.3233  0.0485
32632W        W75570   4.759  25.427  26.358  0.6345  0.0460  0.2265
32633W        W75571   5.603  28.311  27.116 -0.1627  0.1022  0.0846
32634W        W75572   6.228  26.928  24.041 -0.1867  0.1562  0.2265
32635W        W75573   2.914  26.985  25.215  0.0842 -0.1346 -0.2233
32636W        W75574   3.417  27.139  26.210 -0.4023 -0.0801 -0.1281
32637W        W75575   5.989  27.021  27.382 -0.0952  0.2820  0.2753
32638W        W75576   5.469  26.570  25.213 -0.1054  0.1549  0.1793
32639W        W75577   3.196  25.550  25.320 -0.2172  0.2019  0.0129
32640W        W75578   6.542  26.648  24.510  0.1106  0.1074  0.1985
32641W        W75579   5.428  28.918  27.861  0.1209 -0.1328  0.0599
32642W        W75580   4.191  26.716  25.722 -0.0136 -0.2581  0.1385
32643W        W75581   3.311  28.099  26.182  0.1312  0.1568 -0.0765
32644W        W75582   6.233  27.724  25.991  0.0653  0.1930 -0.0032
32645W        W75583   4.971  27.051  25.790 -0.0589 -0.0284  0.0545
32646W        W75584   5.294  29.080  24.806  0.3653  0.3984  0.2131
32647W        W75585   3.982  27.235  25.785 -0.2143  0.1468 -0.2050
32648W        W75586   2.993  27.803  26.498  0.1329  0.0537  0.0394
32649W        W75587   2.281  28.606  22.776  0.1062  0.0201 -0.5666
32650W        W75588   7.342  28.998  24.811 -0.0722  0.0054  0.2810
32651W        W75589   4.393  28.526  25.672  0.1229 -0.0850  0.0292
32652W        W75590   8.427  27.005  27.125 -0.1098 -0.1531  0.1519
32653W        W75591   7.153  27.133  23.013  0.6289  0.1736  0.1631
32654W        W75592   7.180  27.607  26.192 -0.1616  0.1173 -0.0008
32655W        W75593   7.306  25.405  23.802 -0.3861  0.3773  0.1832
32656W        W75594   5.545  28.942  28.425 -0.0256  0.1066  0.0470
32657W        W75595   5.191  25.465  26.024  0.1866  0.3236  0.0049
32658W        W75596   5.093  25.854  23.589  0.2936  0.4099 -0.0317
32659W        W75597   5.337  26.555  26.934  0.1780 -0.2791  0.0472
32660W        W75598   7.181  24.463  27.801 -0.1026 -0.2185  0.4013
32661W        W75599   4.867  27.556  27.409 -0.0401  0.3178 -0.2899
32662W        W75600   6.762  29.828  25.164  0.1395  0.1192 -0.0747
32663W        W75601   5.011  26.085  25.375 -0.2702  0.0292 -0.2952
32664W        W75602   5.567  25.635  26.300 -0.0191  0.0469 -0.0677
32665W        W75603   7.747  24.118  26.284 -0.0467  0.1724 -0.2652
32666W        W75604   3.460  29.436  24.251 -0.0012 -0.0697 -0.0862
32667W        W75605   6.224  25.454  26.853 -0.0094 -0.1779 -0.0566
32668W        W75606   5.377  28.577  24.104 -0.1875  0.1872 -0.1987
32669W        W75607   5.151  27.536  24.356  0.0460 -0.2942  0.0476
32670W        W75608   5.034  28.411  25.738 -0.0074  0.4557  0.0638
32671W        W75609   3.097  26.518  25.294 -0.0179  0.0770 -0.0200
32672W        W75610   8.835  26.296  25.520 -0.1393 -0.0783 -0.2323
32673W        W75611   2.275  27.427  26.771 -0.1344 -0.4171 -0.0389
32674W        W75612   6.688  24.920  29.362  0.0725  0.1915 -0.3552
32675W        W75613   4.984  26.597  25.376 -0.0874 -0.0466 -0.1287
32676W        W75614   7.627  26.407  24.960 -0.2023  0.0042 -0.0253
32677W        W75615   6.527  28.046  27.304  0.2591 -0.3662  0.0509
32678W        W75616   4.684  27.186  26.575 -0.2212  0.1698 -0.4101
32679W        W75617   5.591  27.143  25.697  0.0757 -0.0414 -0.2217
32680W        W75618   8.700  26.636  27.267 -0.0401  0.4432 -0.0510
32681W        W75619   6.056  27.426  24.008 -0.4503  0.1274  0.1002
32682W        W75620   6.558  29.389  27.682  0.0385 -0.0455 -0.0271
32683W        W75621   4.904  25.004  26.095 -0.0534 -0.3230  0.1640
32684W        W75622   6.699  26.686  24.994 -0.2924 -0.2057 -0.2529
32685W        W75623   4.528  26.484  25.279 -0.1427 -0.1540 -0.0860
32686W        W75624   5.557  26.104  26.950 -0.2233 -0.0120 -0.1316
32687W        W75625   5.365  28.696  26.866  0.2473  0.1545  0.0374
32688W        W75626   4.032  25.123  25.277 -0.0120  0.1487  0.1655
32689W        W75627   7.050  28.076  24.381  0.1014 -0.3588 -0.0745
32690W        W75628   7.403  26.187  25.917  0.2079 -0.1121 -0.2979
32691W        W75629   4.244  28.086  24.458  0.1699 -0.2496 -0.0494
32692W        W75630   6.376  27.222  26.093  0.3356  0.0299 -0.0370
32693W        W75631   6.535  29.019  26.998  0.0795 -0.2382  0.1665
32694W        W75632   3.734  25.643  27.033 -0.1948  0.6658  0.1105
32695W        W75633   6.043  28.198  25.210 -0.0991  0.1860  0.1904
32696W        W75634   8.173  27.503  26.706 -0.2467  0.0821  0.2145
32697W        W75635   6.324  24.948  26.040 -0.2576  0.0329  0.0970
32698W        W75636   4.935  26.033  27.119 -0.0742 -0.1781  0.1645
32699W        W75637   2.259  27.202  27.223  0.2460  0.1053  0.1225
32700W        W75638   7.505  26.581  25.587  0.0793  0.1555 -0.5184
32701W        W75639   7.216  25.930  25.469 -0.1972 -0.0320 -0.1463
32702W        W75640   2.706  28.120  23.456 -0.0477 -0.1464 -0.4608
32703W        W75641   6.325  25.842  27.860  0.1756  0.1231  0.0565
32704W        W75642   6.452  27.396  25.657 -0.4459  0.0441  0.2593
32705W        W75643   5.852  29.206  28.161  0.1633  0.0437  0.3167
32706W        W75644   4.125  26.548  24.396  0.3551 -0.1525  0.1189
32707W        W75645   5.281  27.323  27.362 -0.0062  0.1415  0.0172
32708W        W75646   5.037  26.749  24.807  0.0718 -0.2453  0.0467
32709W        W75647   3.829  29.132  23.972 -0.0399 -0.2424 -0.0788
32710W        W75648   7.368  27.985  25.233 -0.0099 -0.2440 -0.1234
32711W        W75649   5.333  26.703  25.716  0.1803 -0.1478  0.0825
32712W        W75650   6.069  26.292  26.158  0.1368  0.2630  0.0166
32713W        W75651   4.751  26.723  26.691 -0.0816 -0.1454  0.4852
32714W        W75652   6.857  25.744  24.563 -0.1185  0.0112 -0.1761
32715W        W75653   6.730  25.115  25.153  0.3397  0.2386  0.1415
32716W        W75654   6.949  25.720  26.371  0.2776  0.1727 -0.0146
32717W        W75655   3.003  26.469  24.717 -0.3055 -0.0806  0.0179
32718W        W75656   5.311  27.004  24.420 -0.1295 -0.0684 -0.0576
32719W        W75657   4.840  26.844  26.222 -0.2809  0.2782  0.5035
32720W        W75658   5.956  23.269  28.125  0.2673 -0.0953  0.3565
32721W        W75659   3.733  25.164  27.755 -0.0790 -0.0743 -0.2361
32722W        W75660   4.143  26.782  25.224  0.3252  0.2361 -0.1002
32723W        W75661   5.197  25.107  25.113 -0.0648 -0.1245  0.1401
32724W        W75662   7.422  28.653  25.636  0.4030 -0.2978  0.2824
32725W        W75663   6.493  25.016  26.528  0.1651  0.0626 -0.1158
32726W        W75664   3.792  26.131  24.594  0.0335 -0.2525  0.1588
32727W        W75665   6.758  26.569  25.471 -0.1866 -0.2725  0.2414
32728W        W75666   7.726  26.802  24.575 -0.2430 -0.0500 -0.1358
32729W        W75667   5.624  25.603  25.774  0.0423  0.2310 -0.2030
32730W        W75668   6.579  28.207  26.693 -0.1742  0.2927  0.0916
32731W        W75669   4.999  26.615  24.292 -0.0985  0.0954 -0.0535
32732W        W75670   6.366  25.574  27.373  0.2314  0.0548  0.1211
32733W        W75671   6.244  24.537  27.733  0.3343  0.0414  0.4555
32734W        W75672   3.874  24.838  24.445 -0.0976  0.2587 -0.1925
32735W        W75673   6.130  26.710  24.822 -0.2257  0.0536  0.1105
32736W        W75674   5.216  29.206  23.425 -0.0757 -0.0909 -0.0136
32737W        W75675   7.704  30.018  24.380  0.2455  0.0833  0.1774
32738W        W75676   5.595  27.691  27.146  0.0622 -0.0740 -0.0345
32739W        W75677   5.586  28.772  27.346 -0.0497  0.3062 -0.0559
32740W        W75678   5.253  24.509  26.115  0.0276  0.0021 -0.2984
32741W        W75679   6.594  25.974  25.398 -0.0935  0.1079  0.0402
32742W        W75680   5.031  27.935  26.144 -0.0903 -0.0170 -0.2424
32743W        W75681   6.702  26.089  23.819 -0.2026  0.3627  0.0497
32744W        W75682   7.359  24.751  26.968  0.0028  0.0423  0.1414
32745W        W75683   5.126  26.351  26.154 -0.1081  0.0335 -0.0430
32746W        W75684   5.442  22.399  27.942  0.1439 -0.0581  0.2505
32747W        W75685   4.093  27.570  28.081 -0.1388 -0.2650 -0.2367
32748W        W75686   6.237  28.247  26.180  0.1637  0.2403 -0.1817
32749W        W75687   5.263  25.171  26.533  0.3243  0.0768  0.2162
32750W        W75688   7.836  26.303  26.235 -0.1698 -0.0775  0.1162
32751W        W75689   4.794  27.042  22.790  0.0167 -0.1908  0.1124
32752W        W75690   3.439  26.266  24.883 -0.0272  0.3404  0.0933
32753W        W75691   5.192  25.895  25.785 -0.0466 -0.3127 -0.1037
32754W        W75692   6.916  26.828  26.884  0.1303 -0.1985 -0.1919
32755W        W75693   5.251  28.067  24.390 -0.2535  0.2391 -0.1735
32756W        W75694   7.049  27.295  26.673 -0.1425  0.0050  0.1449
32757W        W75695   5.061  25.882  26.280  0.0149  0.0607  0.1167
32758W        W75696   8.250  27.264  24.012 -0.0961 -0.0709  0.1974
32759W        W75697   6.296  29.669  25.370  0.0983  0.3160  0.0100
32760W        W75698   6.700  27.940  28.584  0.1911 -0.1360 -0.0836
32761W        W75699   4.644  28.093  25.740  0.1705  0.0654  0.0065
32762W        W75700   5.724  26.682  26.142 -0.3624  0.0024 -0.1264
32763W        W75701   4.803  24.398  26.076  0.3963  0.0685  0.1792
32764W        W75702   3.751  27.033  25.320 -0.2532  0.1917  0.1508
32765W        W75703   5.507  28.062  25.307  0.0464 -0.0624  0.1964
32766W        W75704   6.454  25.472  26.287  0.0830  0.1505  0.1441
32767W        W75705   4.282  25.833  26.349 -0.0390  0.0638 -0.0553
32768W        W75706   6.388  25.828  24.762 -0.1429  0.1576  0.1548
32769W        W75707   5.217  28.651  26.373 -0.0039  0.1574  0.1617
32770W        W75708   5.737  28.496  24.419  0.0021 -0.3112 -0.1644
32771W        W75709   5.042  27.979  29.882 -0.1566 -0.2068 -0.1036
32772W        W75710   4.436  25.995  28.478  0.1357 -0.1874  0.1957
32773W        W75711   6.175  26.826  26.887 -0.0692  0.1006 -0.0261
32774W        W75712   7.252  26.356  26.870 -0.0406 -0.0625  0.0399
32775W        W75713   4.205  25.930  27.689  0.2013 -0.2697 -0.2200
32776W        W75714   6.475  29.361  28.406  0.0184 -0.3469 -0.0357
32777W        W75715   4.168  25.229  29.676  0.2199  0.1167 -0.1257
32778W        W75716   5.495  26.926  29.402  0.2010 -0.1118  0.1828
32779W        W75717   7.955  26.623  31.649  0.0328  0.1756  0.0700
32780W        W75718   5.860  27.823  28.200 -0.0617  0.1555  0.0715
32781W        W75719   5.456  25.357  29.939 -0.0760 -0.1387  0.0502
32782W        W75720   5.410  27.419  29.662 -0.0247  0.1688 -0.1356
32783W        W75721   4.196  24.943  28.638  0.0583 -0.1039 -0.5058
32784W        W75722   3.062  25.932  29.785  0.0081  0.0779 -0.0732
32785W        W75723   6.281  26.517  29.231 -0.0003  0.0502  0.0346
32786W        W75724   4.745  26.835  28.050  0.1414  0.1599  0.2149
32787W        W75725   4.962  26.969  28.881  0.2599 -0.0606  0.0624
32788W        W75726   5.295  26.834  27.538 -0.1395 -0.0197 -0.0115
32789W        W75727   4.565  30.840  28.132  0.0620  0.0022 -0.1795
32790W        W75728   4.947  25.599  30.731  0.0911  0.0427 -0.3700
32791W        W75729   5.750  25.052  29.679  0.1224 -0.0537  0.0086
32792W        W75730   5.803  28.198  29.325  0.2711  0.2732  0.0897
32793W        W75731   3.733  26.136  27.850 -0.2335 -0.2398 -0.2761
32794W        W75732   3.393  26.375  29.842  0.1697  0.1278  0.1229
32795W        W75733   5.684  26.112  30.461 -0.1812  0.0072  0.1944
32796W        W75734   6.870  26.756  29.754 -0.0877  0.0906 -0.3401
32797W        W75735   6.959  25.412  29.408 -0.1237 -0.0751  0.0336
32798W        W75736   4.045  28.380  29.843  0.0034  0.0698  0.0509
32799W        W75737   5.336  28.460  29.172 -0.3703 -0.1447 -0.4200
32800W        W75738   6.802  26.887  30.702  0.1052  0.1784  0.1103
32801W        W75739   5.026  28.842  29.209 -0.2334  0.0372 -0.1869
32802W        W75740   3.111  28.633  28.825  0.0809 -0.2546 -0.1109
32803W        W75741   5.848  28.752  28.084 -0.0095 -0.2511  0.2330
32804W        W75742   7.562  27.834  27.134  0.2926 -0.0298  0.3108
32805W        W75743   6.704  27.391  30.787 -0.2195 -0.0138 -0.0002
32806W        W75744   5.337  27.988  30.516 -0.1423 -0.1259  0.3092
32807W        W75745   4.744  27.541  28.854  0.1542 -0.1217 -0.1292
32808W        W75746   5.851  29.054  31.237  0.0693 -0.3564  0.0105
32809W        W75747   5.977  26.985  31.403 -0.0951  0.0562  0.0027
32810W        W75748   6.547  24.272  30.107  0.2189  0.3334  0.0538
32811W        W75749   6.632  26.364  28.919  0.0386  0.0678 -0.3906
32812W        W75750   4.947  27.760  27.949  0.2383  0.0557  0.3874
32813W        W75751   6.452  28.693  29.287 -0.0303 -0.0161 -0.0614
32814W        W75752   6.469  27.802  31.381  0.1199  0.0892  0.3731
32815W        W75753   3.665  28.217  29.601 -0.1941 -0.0104 -0.0669
32816W        W75754   8.068  27.282   0.042 -0.3452 -0.2956 -0.2323
32817W        W75755   6.127  28.957  28.484  0.0980  0.5209  0.2009
32818W        W75756   5.688  25.606  26.797  0.2622  0.0372  0.1111
32819W        W75757   5.991  26.767  27.779  0.1088  0.0086 -0.0399
32820W        W75758   6.328  27.273  27.687 -0.1107 -0.1542 -0.2869
32821W        W75759   6.823  25.854  29.660  0.0314 -0.2018 -0.2157
32822W        W75760   5.792  30.059  28.673 -0.1605 -0.4726 -0.3070
32823W        W75761   4.967  26.331  29.670 -0.1244 -0.1751 -0.0003
32824W        W75762   5.923  27.984  31.301 -0.1489  0.4047  0.1830
32825W        W75763   4.701  27.202  28.519  0.1236 -0.1721 -0.1395
32826W        W75764   6.348  27.213  31.702 -0.1403  0.0819 -0.2317
32827W        W75765   5.930  27.149  29.641 -0.2007 -0.0228  0.3003
32828W        W75766   4.682  25.822  29.042 -0.0406  0.0182 -0.1944
32829W        W75767   7.625  27.720  29.344  0.0168 -0.1944 -0.2181
32830W        W75768   6.777  28.038  30.199  0.0414 -0.1307  0.0194
32831W        W75769   5.075  29.590  28.650  0.0428  0.2551  0.1489
32832W        W75770   3.488  26.556  28.340  0.1002 -0.1409 -0.0466
32833W        W75771   4.961  27.285  30.574  0.1230 -0.3401 -0.1810
32834W        W75772   4.049  26.178  30.686 -0.1517 -0.0044 -0.1600
32835W        W75773   5.399  26.085  28.228  0.0119 -0.0020  0.0050
32836W        W75774   7.162  27.193  29.904 -0.3266  0.0713 -0.2898
32837W        W75775   5.765  27.361  31.052 -0.0079 -0.3003 -0.3014
32838W        W75776   7.645  24.985  28.947 -0.2418  0.2457 -0.1906
32839W        W75777   4.809  26.628  28.525 -0.0242 -0.3483  0.1122
32840W        W75778   6.721  27.834  29.731  0.0884  0.1503  0.0738
32841W        W75779   5.968  27.236  28.073 -0.1769  0.0659  0.1793
32842W        W75780   7.206  26.432  28.137 -0.1318  0.1092 -0.2074
32843W        W75781   7.385  25.386  29.244  0.2422  0.1883  0.0764
32844W        W75782   4.729  25.642  27.584 -0.2195  0.1447  0.1446
32845W        W75783   5.242  27.842  27.512 -0.0267  0.1290  0.0297
32846W        W75784   7.004  27.134  31.169  0.2235  0.3782 -0.1592
32847W        W75785   6.472  25.966  26.480 -0.0574 -0.0866  0.1270
32848W        W75786   4.471  27.819  29.115  0.0158 -0.2212 -0.2181
32849W        W75787   6.164  24.311  30.524 -0.0255 -0.0508  0.0003
32850W        W75788   5.371  28.614  30.633 -0.1522 -0.2499  0.1965
32851W        W75789   4.483  27.631  26.238 -0.4193  0.2167 -0.0290
32852W        W75790   4.054  28.494  30.363  0.2013  0.0920 -0.0011
32853W        W75791   4.329  27.275  29.019 -0.0097 -0.3550  0.0544
32854W        W75792   4.559  25.531  29.889  0.1176 -0.1339  0.2689
32855W        W75793   4.473  28.288  29.298 -0.1823 -0.1460 -0.0337
32856W        W75794   8.173  25.972  28.110  0.1684 -0.0285 -0.2266
32857W        W75795   4.890  26.560  31.916 -0.2450 -0.0079 -0.1685
32858W        W75796   7.342  25.282  28.470 -0.1015 -0.1018  0.1198
32859W        W75797   4.579  25.775  30.355  0.0736  0.0680  0.1403
32860W        W75798   6.521  28.647  30.306 -0.0427  0.0033 -0.1768
32861W        W75799   6.342  26.412  26.563 -0.1965  0.0594 -0.1608
32862W        W75800   6.296  29.086  27.982  0.0709  0.0287 -0.0786
32863W        W75801   5.264  27.011  30.875 -0.2521 -0.0448  0.0379
32864W        W75802   4.553  26.273  28.832 -0.0124 -0.0406  0.1165
32865W        W75803   4.651  26.056   0.777  0.1644 -0.1312 -0.0101
32866W        W75804   5.351  25.168  29.350 -0.0025  0.0372  0.0040
32867W        W75805   7.712  26.103  31.743 -0.1572 -0.0189 -0.0498
32868W        W75806   5.910  25.292  28.230  0.0287  0.3989 -0.1091
32869W        W75807   6.386  26.543  29.830 -0.1806  0.0528 -0.1383
32870W        W75808   4.015  26.421  28.700  0.3084  0.1339 -0.1237
32871W        W75809   3.134  26.461  29.398 -0.2080 -0.1012  0.2283
32872W        W75810   5.364  25.029  30.348 -0.0203  0.0822 -0.1657
32873W        W75811   5.529  29.499  28.413  0.1514 -0.0673 -0.2797
32874W        W75812   7.622  27.723  31.421 -0.0297  0.3443 -0.0516
32875W        W75813   6.557  27.445  28.663  0.0143  0.3160 -0.1130
32876W        W75814   4.992  25.302  30.118 -0.0430  0.0948 -0.2883
32877W        W75815   3.769  25.564  28.615 -0.1350 -0.1224 -0.0115
32878W        W75816   3.743  28.745  29.659 -0.2886 -0.0201  0.1598
32879W        W75817   3.704  28.874  30.268 -0.0681 -0.3108  0.1050
32880W        W75818   4.187  26.517  29.188 -0.2301  0.0073  0.0919
32881W        W75819   6.805  29.540  29.968 -0.2637  0.1658 -0.0925
32882W        W75820   5.501  27.399  28.347 -0.1176 -0.2517 -0.2514
32883W        W75821   4.525  27.019  30.764 -0.3801  0.0500 -0.0036
32884W        W75822   6.738  24.357  30.695 -0.1013 -0.0102 -0.0510
32885W        W75823   7.903  25.767  30.848 -0.0098 -0.0913  0.1801
32886W        W75824   6.657  27.190  29.052  0.0456  0.3629 -0.0603
32887W        W75825   5.038  25.135  26.954 -0.0580 -0.1145  0.0205
32888W        W75826   5.668  27.381  29.244  0.1580  0.2072  0.0713
32889W        W75827   6.083  28.527  27.538  0.0082 -0.0023 -0.1477
32890W        W75828   4.668  27.676  29.790 -0.1129  0.2415  0.1393
32891W        W75829   6.972  30.144  29.174 -0.1136  0.2146  0.0082
32892W        W75830   6.992  25.663  28.500 -0.3714 -0.0045 -0.2648
32893W        W75831   3.749  27.570  30.351 -0.0290 -0.0129 -0.2920
32894W        W75832   5.559  27.424  30.573 -0.0891 -0.1743  0.0190
32895W        W75833   3.468  25.360  27.350 -0.1446 -0.1280 -0.2115
32896W        W75834   4.868  28.588  30.571  0.2706  0.0695  0.2111
32897W        W75835   6.291  24.962  28.989 -0.1064 -0.1467  0.2623
32898W        W75836   6.203  26.499  27.341  0.1378  0.0320  0.3850
32899W        W75837   7.254  26.233  31.461 -0.2267 -0.1292 -0.2000
32900W        W75838   6.335  27.589  28.157 -0.0277 -0.0277 -0.0472
32901W        W75839   6.530  25.371  28.651 -0.0159 -0.2424  0.3267
32902W        W75840   4.571  25.909  27.998  0.3422 -0.1337 -0.2984
32903W        W75841   4.870  26.352  31.484 -0.0460 -0.3087  0.0086
32904W        W75842   4.532  28.807  29.172  0.2123  0.0719  0.1153
32905W        W75843   5.984  26.382  30.085 -0.2295 -0.1132 -0.0689
32906W        W75844   5.029  25.289  27.719 -0.0675  0.3686 -0.0658
32907W        W75845   6.438  29.149  28.884  0.1464 -0.0219  0.1661
32908W        W75846   3.674  27.116  29.788  0.0850 -0.0387 -0.2587
32909W        W75847   6.760  29.197  30.896 -0.0898 -0.1920  0.0178
32910W        W75848   5.673  28.624  28.848  0.4183 -0.2552  0.0728
32911W        W75849   5.616  24.456  30.455  0.5355  0.1126  0.0160
32912W        W75850   4.982  27.719  26.601  0.1503 -0.1919 -0.0746
32913W        W75851   4.783  26.507  29.227 -0.2990  0.2539 -0.2946
32914W        W75852   3.695  28.798  27.248 -0.1213 -0.0585 -0.1811
32915W        W75853   5.607  26.605  30.330  0.0014 -0.0288  0.2999
32916W        W75854   5.913  26.669  29.623  0.3801  0.1231 -0.1593
32917W        W75855   7.427  24.771  30.061  0.1591 -0.0442  0.1191
32918W        W75856   7.087  26.628  31.215 -0.0090  0.0914 -0.0861
32919W        W75857   6.272  26.358  27.982  0.0920 -0.0870  0.1753
32920W        W75858   5.436  27.901  29.549  0.0650 -0.0164 -0.0823
32921W        W75859   5.312  27.957  28.471 -0.3780  0.1723 -0.1037
32922W        W75860   5.197  26.668  31.322  0.2718 -0.5195 -0.1650
32923W        W75861   4.984  26.242  31.017  0.0519 -0.1307 -0.0649
32924W        W75862   4.405  28.274  30.629 -0.0072  0.0008  0.0679
32925W        W75863   5.767  29.250  29.819 -0.1006 -0.3569 -0.1317
32926W        W75864   6.542  27.099  28.185 -0.2733 -0.1282  0.0931
32927W        W75865   6.877  26.483  31.792 -0.0010 -0.0335  0.2539
32928W        W75866   6.180  26.788  28.238  0.0499  0.3130 -0.0545
32929W        W75867   5.198  28.739  28.737  0.0550  0.1425  0.0336
32930W        W75868   5.928  26.048  28.464 -0.0109  0.0123 -0.1158
32931W        W75869   7.071  26.270  29.135  0.1942  0.4093  0.0662
32932W        W75870   5.727  26.396  29.220 -0.1341  0.3934  0.1649
32933W        W75871   5.252  28.868  25.875 -0.1867 -0.2482  0.0059
32934W        W75872   7.302  26.486  30.300 -0.1428 -0.2060  0.0197
32935W        W75873   4.279  28.029  28.198  0.0800 -0.3917  0.0030
32936W        W75874   6.861  26.374  30.552  0.0041  0.0708  0.1210
32937W        W75875   3.417  29.607  28.632 -0.0267 -0.0642 -0.1416
32938W        W75876   5.227  26.539  28.040 -0.1414  0.1404  0.0870
32939W        W75877   2.813  26.146  28.291 -0.0652 -0.2230  0.3605
32940W        W75878   6.032  27.210  30.547  0.1455 -0.0667  0.0644
32941W        W75879   6.358  28.067  28.244  0.2414 -0.1977  0.0861
32942W        W75880   6.552  25.406  29.149 -0.2008 -0.0966 -0.0501
32943W        W75881   6.153  23.754  29.161  0.1074 -0.1782 -0.0695
32944W        W75882   5.419  29.006  29.571 -0.1653 -0.0232  0.0726
32945W        W75883   4.975  26.882  29.515  0.1083 -0.2794 -0.1005
32946W        W75884   7.134  25.939  28.094  0.2982 -0.0758 -0.0072
32947W        W75885   5.383  26.497  29.591 -0.4090  0.2616 -0.0836
32948W        W75886   5.642  28.113   0.036  0.1018 -0.0035  0.0646
32949W        W75887   3.825  27.053  28.022  0.1792  0.0313  0.0103
32950W        W75888   7.288  28.066  31.356 -0.0017 -0.0782 -0.1119
32951W        W75889   5.581  27.002  27.896  0.0259 -0.0312 -0.0746
32952W        W75890   2.999  28.184  28.449  0.0488 -0.0067 -0.1659
32953W        W75891   6.429  26.485  30.335 -0.0347 -0.1520  0.0220
32954W        W75892   3.742  25.686  27.606 -0.2045  0.1115  0.2145
32955W        W75893   3.629  27.616  29.692 -0.0123 -0.3432 -0.1203
32956W        W75894   4.142  25.503  30.115 -0.0576 -0.1120 -0.1290
32957W        W75895   6.576  27.876  30.902  0.1192  0.0758 -0.1175
32958W        W75896   6.772  27.409  31.560 -0.4442  0.0293  0.6101
32959W        W75897   5.658  26.437  27.645 -0.0264  0.3401  0.0938
32960W        W75898   4.432  26.393  28.114  0.0447 -0.0388 -0.1001
32961W        W75899   6.484  27.158  30.417  0.4060  0.0426 -0.1573
32962W        W75900   7.195  24.257  30.999 -0.0892 -0.3414 -0.3553
32963W        W75901   5.120  28.045  31.803 -0.1554  0.0530 -0.1079
32964W        W75902   6.440  25.993  29.200 -0.1197 -0.0957  0.0444
32965W        W75903   7.129  27.608  29.094 -0.0480 -0.0030 -0.1183
32966W        W75904   7.761  26.504  30.446  0.1876 -0.1306 -0.1998
32967W        W75905   3.068  26.481  28.701 -0.0019  0.0619 -0.0412
32968W        W75906   5.013  26.588  30.595  0.0800 -0.2413  0.1034
32969W        W75907   5.447  27.761  28.942 -0.1173 -0.0617  0.1614
32970W        W75908   6.483  26.387  30.874 -0.1072 -0.0550 -0.0542
32971W        W75909   5.119  27.619  30.925  0.0797 -0.2066 -0.2779
32972W        W75910   5.125  27.329  29.233 -0.0789  0.0695 -0.0210
32973W        W75911   5.082  28.323  30.200 -0.1629 -0.0953 -0.3222
32974W        W75912   8.033  24.509  28.335 -0.0052 -0.0484  0.1310
32975W        W75913   5.530  28.405  28.251  0.0115  0.1388 -0.3661
32976W        W75914   5.725  27.394  30.090 -0.1643 -0.1942  0.0134
32977W        W75915   8.151  25.135  31.481  0.1907 -0.1362  0.1627
32978W        W75916   5.753  27.397  27.584 -0.2590  0.3464 -0.1416
32979W        W75917   6.127  26.470  31.189 -0.0061  0.0539  0.1743
32980W        W75918   4.567  25.863  30.918 -0.2042  0.1504  0.0365
32981W        W75919   6.148  27.172  28.550  0.4648  0.1597 -0.3083
32982W        W75920   3.584  26.884  30.915 -0.1174  0.1031  0.3178
32983W        W75921   6.762  29.033  31.908  0.0754  0.2332  0.0822
32984W        W75922   4.450  27.117   0.307 -0.1651 -0.2338 -0.2271
32985W        W75923   3.994  26.144  27.282 -0.0496 -0.0601 -0.2203
32986W        W75924   5.084  24.161  27.024 -0.5032  0.0297 -0.1502
32987W        W75925   5.301  27.034  30.350 -0.2305  0.1549  0.0723
32988W        W75926   7.039  28.708  30.046 -0.3284 -0.2012 -0.1841
32989W        W75927   6.468  28.425  28.658 -0.0767 -0.2346 -0.3912
32990W        W75928   6.398  26.943  29.432  0.0081  0.5081  0.1651
32991W        W75929   5.360  28.379  29.643 -0.0629  0.1068  0.2223
32992W        W75930   6.154  27.792  28.610  0.1036 -0.1037 -0.1894
32993W        W75931   5.028  26.122  28.720 -0.2202  0.0915 -0.3558
32994W        W75932   5.739  28.122  28.728 -0.1266 -0.1163  0.1966
32995W        W75933   5.321  26.301  31.794 -0.0863  0.1117  0.1043
32996W        W75934   6.346  26.397  28.541  0.1724  0.1382  0.0752
32997W        W75935   6.575  25.915  28.639  0.1014 -0.1049 -0.0404
32998W        W75936   9.092  25.833  30.719  0.0254  0.0491  0.1109
32999W        W75937   6.136  25.096  30.035 -0.3810 -0.2726 -0.2352
33000W        W75938   6.208  25.556  31.362  0.3367  0.0208  0.0451
33001W        W75939   3.569  25.744  31.835 -0.0639  0.3648 -0.0027
33002W        W75940   6.552  28.745  30.855 -0.0456  0.1396  0.0912
33003W        W75941   7.524  25.351  27.615  0.0909 -0.2773 -0.2403
33004W        W75942   6.841  24.546  29.614  0.3760  0.0421 -0.0818
33005W        W75943   6.463  27.009  27.241  0.2431  0.0497  0.0859
33006W        W75944   5.602  25.657  28.404 -0.1601  0.4458  0.1505
33007W        W75945   4.022  27.366  30.036 -0.1632  0.0628  0.2009
33008W        W75946   6.215  26.573  31.699  0.1527  0.1984  0.1163
33009W        W75947   4.865  25.588  28.279 -0.1130  0.0717 -0.1989
33010W        W75948   5.989  25.177  31.651  0.0965  0.0441  0.1416
33011W        W75949   7.177  28.591  28.069 -0.1437  0.0137  0.0458
33012W        W75950   7.483  26.814  28.136  0.2832  0.2254 -0.2157
33013W        W75951   7.379  26.475  30.776  0.0278 -0.4294  0.0078
33014W        W75952   4.704  25.311  28.869 -0.0650  0.2970 -0.0489
33015W        W75953   4.903  28.119  30.764 -0.4603 -0.2712  0.1130
33016W        W75954   4.621  27.440  28.049 -0.0094  0.3048  0.0786
33017W        W75955   3.602  27.411  27.218  0.2783 -0.1246 -0.1147
33018W        W75956   5.133  26.650  30.020 -0.0861  0.1887  0.0602
33019W        W75957   8.469  25.562  30.689 -0.1945 -0.1583  0.1126
33020W        W75958   4.864  24.617  28.334  0.0685  0.2647 -0.1452
33021W        W75959   8.302  26.387  31.292  0.1309  0.0287  0.0809
33022W        W75960   4.662  27.407  29.366  0.0315  0.0330 -0.4290
33023W        W75961   7.909  24.241  30.598 -0.1978 -0.1312 -0.3581
33024W        W75962   4.657  29.507  29.898 -0.0706  0.2152 -0.1823
33025W        W75963   2.359  28.774  30.602  0.0203 -0.1513 -0.1158
33026W        W75964   4.218  28.543  28.851 -0.0547  0.2571  0.0751
33027W        W75965   6.049  25.467  29.216 -0.4279  0.0909  0.2696
33028W        W75966   7.190  27.122  31.617 -0.1048 -0.1111 -0.1930
33029W        W75967   6.863  26.117  31.152 -0.0633 -0.0434  0.1570
33030W        W75968   7.589  26.921  31.283  0.0821 -0.1382 -0.1339
33031W        W75969   4.753  26.886  30.286 -0.1701 -0.3090  0.0761
33032W        W75970   4.723  27.916  30.363  0.1858 -0.3962 -0.0703
33033W        W75971   6.701  28.607  31.573  0.1459  0.0573 -0.0313
33034W        W75972   6.660  27.674  29.125  0.0756 -0.0343 -0.0032
33035W        W75973   4.966  28.208  28.982 -0.1721  0.1001 -0.2498
33036W        W75974   4.270  26.342  29.666  0.3470  0.0486 -0.0445
33037W        W75975   5.835  26.628   1.121 -0.0635  0.0343  0.3390
33038W        W75976   6.169  27.334  29.116 -0.0983 -0.1083  0.3896
33039W        W75977   5.400  25.219  28.541 -0.1687  0.1048 -0.0060
33040W        W75978   5.394  28.056  27.909  0.0726 -0.1384  0.0555
33041W        W75979   4.522  27.879  31.851 -0.0514 -0.1535 -0.0037
33042W        W75980   3.657  27.224  29.289  0.0256 -0.0241 -0.2213
33043W        W75981   4.125  27.857  28.704  0.2706  0.0663 -0.3164
33044W        W75982   4.897  28.394  29.457  0.2847  0.0535 -0.0865
33045W        W75983   4.891  27.865  29.390  0.0168  0.0493  0.3092
33046W        W75984   6.363  28.447  29.836  0.0950 -0.2025 -0.1270
33047W        W75985   4.729  25.528  27.067 -0.0051 -0.0856 -0.0331
33048W        W75986   3.349  29.040  29.043 -0.2007  0.1361 -0.0924
33049W        W75987   5.085  28.492  27.831 -0.0272  0.1685 -0.3898
33050W        W75988   6.005  28.949  29.024 -0.0736  0.0254 -0.1903
33051W        W75989   4.210  28.926  27.392 -0.0538  0.0595 -0.1037
33052W        W75990   7.527  28.105  31.778 -0.1009  0.1329 -0.2524
33053W        W75991   7.725  25.515  28.918 -0.2170  0.2238 -0.2565
33054W        W75992   7.886  25.559  30.421  0.2149 -0.2960 -0.0336
33055W        W75993   6.649  26.092  28.169 -0.0189  0.1249  0.3185
33056W        W75994   6.311  27.331  31.187 -0.1130 -0.1480  0.1015
33057W        W75995   4.485  27.131  29.775  0.0453  0.0430 -0.1776
33058W        W75996   5.840  25.186  28.744  0.0697 -0.2213  0.2758
33059W        W75997   4.524  26.268  30.597  0.6054  0.3671  0.0762
33060W        W75998   5.465  24.808  30.781 -0.0742 -0.3428  0.1898
33061W        W75999   4.485  28.834  31.887 -0.0306 -0.3171 -0.0515
33062W        W76000   6.665  29.760  28.586 -0.2236 -0.1300 -0.1829
33063W        W76001   4.522  25.288  27.974 -0.2016 -0.0889  0.1825
33064W        W76002   4.515  26.903  29.333  0.4809 -0.1714 -0.3587
33065W        W76003   7.819  25.315  29.500 -0.0583 -0.3489 -0.0666
33066W        W76004   5.516  28.146  26.517  0.1974  0.1260  0.2295
33067W        W76005   6.024  26.904  30.061  0.0609 -0.0468 -0.1403
33068W        W76006   5.897  29.750  28.309 -0.0511  0.0186  0.1349
33069W        W76007   3.816  28.929  29.163 -0.1328  0.1078 -0.0013
33070W        W76008   5.831  28.848  30.359 -0.4509 -0.1835 -0.2366
33071W        W76009   3.460  26.707  28.899  0.0777  0.0327  0.0604
33072W        W76010   6.877  25.787  29.046 -0.0935  0.4943  0.1300
33073W        W76011   5.828  26.089  31.503 -0.1134  0.0734 -0.0907
33074W        W76012   6.132  25.177  30.936 -0.2486 -0.0372  0.0985
33075W        W76013   5.534  26.997  28.867 -0.0937  0.1606 -0.0390
33076W        W76014   6.852  28.779  28.943  0.0968 -0.0739  0.2832
33077W        W76015   6.187  28.239  30.955 -0.0154 -0.1758 -0.1399
33078W        W76016   4.047  26.676  30.681 -0.0733 -0.0287 -0.1013
33079W        W76017   5.710  26.465  28.218  0.0156  0.1336  0.0078
33080W        W76018   7.735  26.772  30.860 -0.2134  0.1156 -0.2377
33081W        W76019   7.374  26.997  26.935 -0.1655 -0.0499 -0.2140
33082W        W76020   6.294  29.876  30.997 -0.2126 -0.0977  0.0493
33083W        W76021   5.187  26.329  27.436  0.2639 -0.0384 -0.0856
33084W        W76022   6.247  25.330  27.889 -0.0047  0.1345  0.0638
33085W        W76023   4.754  25.882  29.552  0.3710  0.0037 -0.1067
33086W        W76024   3.006  25.992  30.561 -0.2133  0.1865 -0.3241
33087W        W76025   6.778  29.133  30.349  0.1216 -0.2991  0.3252
33088W        W76026   3.390  24.624  27.960 -0.0859  0.2736 -0.3846
33089W        W76027   6.609  27.562  27.307 -0.1180 -0.0255 -0.0562
33090W        W76028   8.053  25.289  30.857  0.0872  0.4108  0.1566
33091W        W76029   5.039  29.648  28.141 -0.2151 -0.2507  0.1027
33092W        W76030   6.527  28.164  29.143  0.1364 -0.0121  0.1007
33093W        W76031   5.945  27.658  29.574 -0.1779 -0.1024  0.2361
33094W        W76032   4.287  24.968  29.202 -0.0281  0.2762 -0.0420
33095W        W76033   6.931  26.848  30.251 -0.0638 -0.2181  0.1293
33096W        W76034   7.220  29.840  29.943 -0.0787  0.1045  0.0567
33097W        W76035   6.412  25.423  29.663 -0.0288  0.3364  0.0119
33098W        W76036   5.042  25.817  30.011  0.0415  0.1279 -0.0114
33099W        W76037   4.750  28.188  28.078 -0.0307  0.3881  0.0433
33100W        W76038   9.162  25.004  28.956  0.2279  0.1676 -0.1754
33101W        W76039   6.156  26.110  30.605  0.1590  0.1531  0.0496
33102W        W76040   5.136  27.924  27.008  0.0246 -0.1036 -0.1339
33103W        W76041   6.905  24.879  31.567  0.1772 -0.0210  0.4191
33104W        W76042   5.441  29.150  28.898  0.2789 -0.0553  0.2950
33105W        W76043   5.295  28.174  30.996 -0.0907  0.1333  0.5025
33106W        W76044   3.290  27.108  26.982  0.2866 -0.0195 -0.0664
33107W        W76045   5.013  26.094  30.496  0.1355 -0.1033 -0.0317
33108W        W76046   4.966  28.320  28.519  0.0770  0.1863 -0.0448
33109W        W76047   5.581  28.460  27.686 -0.3450 -0.2677 -0.0980
33110W        W76048   6.091  27.850  29.111  0.0032 -0.1795  0.0053
33111W        W76049   5.829  27.501  28.816  0.2312 -0.0897  0.0706
33112W        W76050   7.890  27.098  27.583  0.0817 -0.2205  0.2162
33113W        W76051   5.978  24.593  30.119  0.1137  0.1288 -0.0863
33114W        W76052   6.979  27.103  27.332 -0.0169  0.3220  0.1942
33115W        W76053   7.182  24.802  29.042  0.0187 -0.1421 -0.0250
33116W        W76054   5.095  25.479  29.635  0.2583  0.1071  0.2557
33117W        W76055   2.887  27.275  28.081  0.0884  0.0006 -0.0553
33118W        W76056   4.247  26.780  28.389 -0.0734 -0.1536  0.0206
33119W        W76057   5.246  27.568  30.159 -0.3712  0.0871 -0.0224
33120W        W76058   4.522  24.507  31.014  0.2430 -0.3298  0.0651
33121W        W76059   2.562  25.962  30.854  0.0529  0.0655  0.2580
33122W        W76060   4.505  27.410  30.349 -0.1124 -0.0688  0.0985
33123W        W76061   4.899  26.192  28.261  0.1364  0.6158  0.0356
33124W        W76062   5.987  28.417  28.431  0.1111  0.0397  0.1227
33125W        W76063   5.935  25.542  29.696  0.2419  0.1950  0.0849
33126W        W76064   3.332  25.986  29.385 -0.1540 -0.2418 -0.0505
33127W        W76065   7.410  28.659  29.644  0.2743  0.2043  0.1838
33128W        W76066   5.895  28.691  29.425 -0.1103  0.4513  0.2635
33129W        W76067   6.001  25.640  28.775 -0.0244 -0.1076  0.3171
33130W        W76068   7.886  27.148  31.611  0.1274  0.1375  0.2408
33131W        W76069   3.351  27.537  28.916  0.0826 -0.1097  0.0261
33132W        W76070   5.967  24.919  30.486  0.1543 -0.2451  0.3102
33133W        W76071   5.000  24.716  30.081  0.0495 -0.0188  0.3543
33134W        W76072   4.168  24.900  27.721  0.0387 -0.3229 -0.2373
33135W        W76073   6.064  25.567  30.671  0.2589  0.0708  0.0805
33136W        W76074   4.503  28.661  29.658 -0.1707  0.0212  0.0775
33137W        W76075   6.682  27.827  27.806  0.3564 -0.4055  0.1945
33138W        W76076   5.541  26.971  29.848 -0.0129 -0.0376  0.0218
33139W        W76077   5.471  28.735  30.017 -0.2115 -0.1563 -0.0198
33140W        W76078   4.171  25.611  30.609 -0.2563 -0.0355  0.2411
33141W        W76079   5.099  27.193  27.902 -0.1162 -0.0193 -0.2234
33142W        W76080   5.913  26.893  29.190  0.1607 -0.0486  0.0551
33143W        W76081   6.337  28.639  28.113  0.0113  0.2058  0.0717
33144W        W76082   7.273  25.101  30.370 -0.1724  0.1094  0.3249
33145W        W76083   5.916  26.583  28.739  0.2333 -0.3074 -0.1414
33146W        W76084   3.666  26.265  29.104 -0.4680 -0.2876 -0.1518
33147W        W76085   5.700  26.589  31.300  0.3514 -0.0616  0.0909
33148W        W76086   6.177  27.515  30.005 -0.1252  0.1679 -0.0604
33149W        W76087   5.647  25.884  29.247  0.0188  0.3156 -0.5476
33150W        W76088   7.008  26.694  28.663 -0.0187 -0.1876 -0.1289
33151W        W76089   4.904  29.238  27.888 -0.1106 -0.2774  0.0514
33152W        W76090   4.456  26.755  28.825  0.2394 -0.2258 -0.0962
33153W        W76091   6.404  26.826  28.789  0.0591  0.2669 -0.1021
33154W        W76092   6.000  26.597  30.631 -0.1463 -0.0994 -0.2852
33155W        W76093   7.217  27.854  30.197 -0.1986  0.0404  0.0081
33156W        W76094   6.383  27.452  29.579 -0.0818  0.1652 -0.1839
33157W        W76095   5.447  27.542  27.909 -0.1043  0.0184  0.4834
33158W        W76096   7.162  26.196  27.374  0.3418  0.1943  0.0909
33159W        W76097   7.076  30.050  31.219 -0.0673 -0.1994 -0.1126
33160W        W76098   7.520  28.604   0.056  0.1083  0.1324 -0.0241
33161W        W76099   6.138  28.892  29.898  0.1031  0.1810 -0.0682
33162W        W76100   7.455  27.019  28.664  0.1747  0.1138 -0.1941
33163W        W76101   4.079  24.714  29.653 -0.1269 -0.0722 -0.1851
33164W        W76102   3.197  26.898  29.671 -0.4697 -0.2288  0.4738
33165W        W76103   6.508  26.784  27.760  0.3148 -0.1008 -0.2438
33166W        W76104   7.406  25.559  30.611 -0.1232  0.0995  0.0346
33167W        W76105   3.683  25.722  29.105 -0.3571 -0.2602  0.0212
33168W        W76106   6.755  24.460  29.034 -0.2408  0.0196 -0.1612
33169W        W76107   6.518  28.087   0.055  0.1354  0.0985 -0.2229
33170W        W76108   6.625  28.316  30.660 -0.0744  0.0558 -0.1288
33171W        W76109   6.843  27.105  31.982  0.2023  0.0788  0.0458
33172W        W76110   6.968  27.755  31.246  0.0201  0.1248  0.1668
33173W        W76111   4.026  27.519  31.567 -0.0006  0.0520 -0.1314
33174W        W76112   7.134  28.119   0.119 -0.0438 -0.0006  0.1386
33175W        W76113   4.727  28.368  31.980  0.0037 -0.0258 -0.0298
33176W        W76114   4.533  27.623  31.421  0.1304 -0.2202  0.0766
33177W        W76115   6.884  27.685   0.148 -0.3794  0.2639  0.0883
33178W        W76116   5.693  24.762  31.692  0.2439  0.0074 -0.0827
33179W        W76117   6.845  27.983  31.683  0.1482 -0.0999 -0.0348
33180W        W76118   7.653  28.177   0.287 -0.0087 -0.2981 -0.2918
33181W        W76119   6.111  28.402  28.995  0.0538 -0.0775 -0.0267
33182W        W76120   5.520  23.837  30.551  0.2644 -0.0554  0.1053
33183W        W76121   8.270  29.107  31.875  0.3508  0.0268 -0.1999
33184W        W76122   4.720  26.289  30.146 -0.0256  0.0285  0.1806
33185W        W76123   7.630  26.880   0.019  0.0849 -0.1934 -0.1687
33186W        W76124   4.972  27.522  31.622 -0.2894 -0.0794 -0.0020
33187W        W76125   3.992  28.276  30.981 -0.2366  0.0807  0.2651
33188W        W76126   6.895  28.622   0.767 -0.1886  0.2045  0.0625
33189W        W76127   5.253  25.266  31.041 -0.0745 -0.3362  0.1956
33190W        W76128   4.122  27.013  31.627 -0.1593  0.1915 -0.1240
33191W        W76129   5.365  25.629  30.409 -0.2474  0.0358  0.0676
33192W        W76130   3.575  30.008   1.281 -0.1902 -0.1419  0.0117
33193W        W76131   5.759  26.534  31.791  0.0214 -0.0700 -0.2611
33194W        W76132   6.837  26.351   0.465  0.2356  0.1231 -0.2284
33195W        W76133   6.697  25.694  31.285 -0.0050  0.3773  0.1029
33196W        W76134   6.350  25.718  31.793 -0.3178  0.0855 -0.2526
33197W        W76135   5.762  26.872  30.936  0.0012  0.6266 -0.0994
33198W        W76136   4.521  28.969  31.349  0.0128 -0.1130 -0.0644
33199W        W76137   4.085  26.886  31.119  0.0657 -0.0783  0.1857
33200W        W76138   4.879  27.983  31.303 -0.3480 -0.2393  0.1450
33201W        W76139   6.271  28.254  31.542 -0.1724 -0.2210  0.3642
33202W        W76140   4.230  26.331  30.195  0.0293 -0.1484  0.0818
33203W        W76141   8.190  26.723  30.626  0.1294  0.1859  0.0937
33204W        W76142   5.795  27.046  31.883  0.3301  0.1957  0.1409
33205W        W76143   5.464  25.805  29.678 -0.2429  0.0125 -0.3661
33206W        W76144   5.593  25.845  31.866 -0.4450  0.1897  0.3176
33207W        W76145   6.190  28.590   0.575  0.3424 -0.0042  0.1733
33208W        W76146   6.378  26.860  31.047  0.0056 -0.1204 -0.2110
33209W        W76147   5.952  27.749  30.434  0.1945 -0.0361  0.0607
33210W        W76148   5.639  27.605  31.863 -0.3391 -0.0686 -0.3227
33211W        W76149   5.196  26.082   0.244 -0.2063 -0.2938  0.2920
33212W        W76150   6.503  26.187  31.523 -0.4981 -0.1743 -0.1704
33213W        W76151   5.335  26.119  31.366  0.1074  0.0085 -0.1153
33214W        W76152   6.078  28.728  30.807  0.1598  0.1254  0.2840
33215W        W76153   3.487  25.586  30.456  0.0864  0.1383 -0.5410
33216W        W76154   6.076  28.261   0.202  0.0661  0.1881 -0.2675
33217W        W76155   5.676  25.250  30.732 -0.0556  0.1914 -0.1737
33218W        W76156   4.304  26.674  31.971 -0.0955  0.2206 -0.1733
33219W        W76157   8.251  28.400  30.981  0.3657  0.0179  0.3360
33220W        W76158   6.070  27.892  31.841 -0.3252 -0.1445  0.3473
33221W        W76159   6.494  29.583   0.958  0.0893 -0.0994  0.1258
33222W        W76160   8.629  25.134   1.112  0.1436  0.1231 -0.0149
33223W        W76161   6.406  23.577  29.600 -0.0289  0.1677  0.1364
33224W        W76162   4.949  27.252  31.184 -0.0389  0.1052 -0.2760
33225W        W76163   6.547  25.154  31.980 -0.0490  0.2632  0.0719
33226W        W76164   6.635  25.314  30.949 -0.2631  0.0089 -0.0990
33227W        W76165   7.753  26.268  30.018 -0.2312 -0.0855  0.3675
33228W        W76166   5.564  29.900   0.044  0.1598 -0.3103 -0.0045
33229W        W76167   7.670  26.419  31.273  0.1417 -0.5067 -0.1595
33230W        W76168   5.351  25.896  30.869  0.1744 -0.1397  0.2409
33231W        W76169   4.003  27.146   0.131 -0.0334  0.0992  0.2026
33232W        W76170   4.507  27.130  31.346  0.4612 -0.1335 -0.0225
33233W        W76171   3.880  25.893  30.310  0.2152 -0.1694  0.0482
33234W        W76172   5.041  24.511  30.548  0.0471 -0.2116 -0.3563
33235W        W76173   7.131  29.046  31.503 -0.2079 -0.1062 -0.1049
33236W        W76174   8.696  28.483   0.408 -0.0506 -0.0796  0.1576
33237W        W76175   7.106  28.340  30.422 -0.0311  0.0304  0.0813
33238W        W76176   4.763  32.647  17.710 -0.2502  0.0099  0.2119
33239W        W76177   3.867  31.546  16.262  0.0792 -0.1782 -0.1912
33240W        W76178   6.390  30.643  16.897 -0.1938 -0.2186  0.0009
33241W        W76179   7.339  31.046  16.173  0.2275  0.3224  0.0277
33242W        W76180   4.632  28.702  17.624  0.2050  0.2286 -0.2522
33243W        W76181   6.419  31.548  16.274 -0.3142  0.3642  0.2942
33244W        W76182   4.235  29.739  19.053 -0.1731  0.1115 -0.0904
33245W        W76183   5.605  31.377  17.601 -0.1748 -0.1945  0.0291
33246W        W76184   8.357  33.349  16.219 -0.4071  0.0141 -0.0183
33247W        W76185   4.641  30.991  16.559 -0.1102 -0.0197 -0.2485
33248W        W76186   5.330  30.787  19.744 -0.1829  0.0356  0.2255
33249W        W76187   3.940  32.237  18.036  0.1242  0.0630  0.5222
33250W        W76188   5.195  27.716  18.045 -0.3139 -0.2707 -0.1562
33251W        W76189   4.173  29.464  18.476 -0.1531 -0.1966  0.0589
33252W        W76190   5.906  30.732  18.586 -0.1065 -0.2879 -0.0277
33253W        W76191   3.597  30.578  16.952 -0.0196 -0.0317  0.3458
33254W        W76192   4.968  31.150  20.042 -0.0731 -0.0975  0.2752
33255W        W76193   6.290  30.932  18.064  0.3346  0.1935  0.2726
33256W        W76194   5.619  32.017  17.420 -0.3742 -0.0080 -0.1185
33257W        W76195   6.011  30.290  19.289  0.1252  0.0996 -0.1604
33258W        W76196   5.336  28.147  20.452 -0.2299 -0.1332  0.2643
33259W        W76197   5.434  31.245  17.098 -0.0769  0.4398  0.0253
33260W        W76198   4.810  29.548  16.528 -0.1615 -0.0264 -0.1332
33261W        W76199   4.549  29.433  17.458 -0.0816  0.0038 -0.2073
33262W        W76200   3.487  30.211  18.991  0.2055 -0.1796 -0.2097
33263W        W76201   6.597  29.810  18.630 -0.0664  0.0688  0.0602
33264W        W76202   5.920  31.037  17.225 -0.1137  0.0734  0.1403
33265W        W76203   5.601  32.139  17.915 -0.2038 -0.1920 -0.2702
33266W        W76204   6.963  33.724  17.325  0.2903 -0.2540  0.2231
33267W        W76205   6.088  30.433  19.793  0.4394 -0.3362 -0.1656
33268W        W76206   5.017  30.846  18.742 -0.2025  0.1593  0.2736
33269W        W76207   3.967  33.314  18.806 -0.0123 -0.0077  0.0100
33270W        W76208   3.921  32.772  17.276 -0.3384 -0.0252  0.1928
33271W        W76209   6.848  32.863  16.855  0.3274 -0.1180 -0.0812
33272W        W76210   6.717  33.260  17.653 -0.2069  0.0978 -0.2638
33273W        W76211   5.164  33.100  19.544  0.2457  0.1843  0.1100
33274W        W76212   4.948  31.264  17.113 -0.4470  0.1140  0.5657
33275W        W76213   5.938  32.456  19.242 -0.0735 -0.0915  0.1649
33276W        W76214   6.568  31.393  17.983  0.2276 -0.0240  0.2302
33277W        W76215   4.249  31.213  18.513 -0.4723  0.4495  0.3020
33278W        W76216   5.507  31.572  18.082 -0.1988  0.2601 -0.1508
33279W        W76217   5.015  31.891  16.179  0.1348  0.1337 -0.2476
33280W        W76218   6.769  33.450  16.757 -0.2490  0.0145 -0.1727
33281W        W76219   4.447  31.984  19.423 -0.2040 -0.0655 -0.2816
33282W        W76220   4.269  31.265  17.281 -0.2870  0.1293  0.1413
33283W        W76221   7.372  30.102  18.482  0.2450  0.0640 -0.1299
33284W        W76222   5.331  32.424  17.069 -0.2379 -0.2258 -0.3768
33285W        W76223   7.064  31.294  17.723 -0.0649  0.2042 -0.0830
33286W        W76224   5.895  29.077  16.969 -0.1099  0.1246 -0.1864
33287W        W76225   5.456  30.589  17.386 -0.0981  0.0369  0.0470
33288W        W76226   6.163  28.261  17.892  0.1465  0.3380  0.1307
33289W        W76227   4.836  33.484  17.465 -0.0936 -0.0785  0.3098
33290W        W76228   4.664  29.677  19.333  0.1867  0.1683  0.1337
33291W        W76229   7.092  30.907  19.211 -0.1195  0.0216 -0.4500
33292W        W76230   5.129  30.838  16.972  0.1675  0.1077  0.0825
33293W        W76231   6.000  30.149  18.415 -0.1906 -0.3799 -0.2879
33294W        W76232   4.506  31.535  18.238 -0.0244  0.0688 -0.0391
33295W        W76233   4.861  30.438  16.941  0.2694  0.1486  0.2310
33296W        W76234   6.942  32.865  15.557 -0.2203 -0.0629 -0.1672
33297W        W76235   6.376  32.010  17.079 -0.0876 -0.0101  0.1775
33298W        W76236   4.819  33.348  16.960 -0.1074  0.2971 -0.0213
33299W        W76237   3.113  32.834  16.044 -0.1507 -0.3109  0.0042
33300W        W76238   3.979  30.488  20.713  0.1920  0.0987 -0.0557
33301W        W76239   3.583  31.815  20.976 -0.0629  0.1469  0.1915
33302W        W76240   4.801  27.036  16.620  0.1503  0.2155  0.1353
33303W        W76241   6.124  29.812  19.495  0.0827  0.3334  0.0300
33304W        W76242   3.048  31.307  20.278  0.1088 -0.1598  0.1794
33305W        W76243   6.604  30.140  17.681 -0.1213  0.0251 -0.2719
33306W        W76244   4.409  33.102  17.016 -0.0999 -0.0618  0.0559
33307W        W76245   7.277  30.859  17.981 -0.0035 -0.1141 -0.2585
33308W        W76246   6.495  32.968  15.845 -0.2033  0.0257  0.0198
33309W        W76247   5.577  29.284  18.590 -0.1115  0.0349 -0.2036
33310W        W76248   6.197  29.847  17.579  0.3168 -0.0827 -0.2462
33311W        W76249   5.632  30.443  16.395 -0.0445  0.1723 -0.4314
33312W        W76250   4.765  30.449  16.296  0.0472 -0.1235  0.1326
33313W        W76251   6.715  30.818  18.898 -0.1979 -0.1163 -0.0769
33314W        W76252   6.426  31.096  16.562 -0.1030  0.4275 -0.2815
33315W        W76253   4.083  33.371  19.396  0.0115 -0.0130 -0.0016
33316W        W76254   4.855  29.625  21.032 -0.1530  0.1612  0.2141
33317W        W76255   5.109  32.692  19.308 -0.3057  0.0576 -0.1406
33318W        W76256   3.764  31.014  16.220  0.2446 -0.1151 -0.1218
33319W        W76257   4.496  30.184  19.149  0.0205 -0.0898 -0.1528
33320W        W76258   4.616  31.443  16.349  0.2269 -0.1674  0.1140
33321W        W76259   3.924  29.517  17.366  0.0830 -0.0263 -0.0742
33322W        W76260   5.153  32.313  17.554  0.0452  0.0802 -0.0809
33323W        W76261   6.954  29.126  16.321  0.1444  0.3081  0.0228
33324W        W76262   4.568  29.279  18.327 -0.0023 -0.1115  0.0480
33325W        W76263   6.533  28.796  18.254  0.0603  0.3395  0.2216
33326W        W76264   2.931  30.960  16.561 -0.0372  0.0127 -0.1096
33327W        W76265   6.895  32.782  17.602 -0.2823  0.1418 -0.0060
33328W        W76266   7.517  29.871  16.129  0.0036  0.0761  0.0520
33329W        W76267   6.036  33.485  16.195  0.1477 -0.1769 -0.5725
33330W        W76268   3.724  29.475  18.227  0.0329 -0.1647  0.0450
33331W        W76269   4.974  30.068  16.602 -0.1243 -0.0108 -0.1630
33332W        W76270   4.735  29.712  18.719  0.2611 -0.1190 -0.1189
33333W        W76271   5.181  29.978  19.692 -0.1000 -0.2526 -0.2823
33334W        W76272   6.288  31.375  19.952  0.0516 -0.0546 -0.2909
33335W        W76273   4.362  27.962  17.430  0.3156 -0.1321  0.0737
33336W        W76274   8.231  29.128  18.055  0.2895  0.1180  0.0814
33337W        W76275   5.213  31.650  17.433 -0.1433  0.2112  0.0010
33338W        W76276   3.550  31.790  16.842 -0.1379 -0.1775 -0.0444
33339W        W76277   7.010  30.490  19.429  0.0908 -0.1384  0.2922
33340W        W76278   4.628  33.269  16.531  0.0031  0.3014  0.0582
33341W        W76279   6.511  32.353  18.037  0.0751  0.0094 -0.1081
33342W        W76280   4.560  31.408  16.872  0.0806 -0.0274  0.3055
33343W        W76281   2.515  29.874  20.646 -0.0192  0.1366  0.0974
33344W        W76282   4.611  28.891  16.711 -0.2132  0.0873  0.2316
33345W        W76283   4.459  32.281  16.981  0.0928  0.0558  0.1820
33346W        W76284   5.035  32.896  16.850 -0.3039  0.0635  0.0372
33347W        W76285   6.015  27.998  18.326  0.0827  0.0020  0.0385
33348W        W76286   8.444  33.020  18.750 -0.0256  0.3806 -0.0942
33349W        W76287   4.928  31.975  17.084 -0.0759  0.1591  0.0227
33350W        W76288   5.132  30.670  19.217  0.1293 -0.0885 -0.0219
33351W        W76289   4.595  30.631  19.071  0.4792 -0.0074  0.1187
33352W        W76290   7.088  29.875  18.914 -0.2154  0.0859  0.2867
33353W        W76291   4.332  31.842  17.327 -0.0750  0.3705 -0.1752
33354W        W76292   4.795  29.312  16.105  0.0322 -0.2740  0.0513
33355W        W76293   6.486  32.524  16.985  0.2329  0.2944  0.0711
33356W        W76294   4.372  32.384  16.501  0.1282  0.4516  0.2922
33357W        W76295   2.418  30.927  17.436 -0.1628 -0.0209  0.0302
33358W        W76296   5.519  32.925  17.069  0.1984  0.0112 -0.0379
33359W        W76297   6.788  28.662  18.626  0.1239  0.0472  0.0702
33360W        W76298   2.577  29.765  21.192  0.2376  0.0880  0.1085
33361W        W76299   5.697  29.646  20.345  0.2301  0.1663 -0.2997
33362W        W76300   4.448  30.416  16.688  0.0629  0.2541 -0.1105
33363W        W76301   3.888  31.853  20.140  0.2061 -0.1135  0.1743
33364W        W76302   5.760  28.586  18.165 -0.1452  0.0942  0.2911
33365W        W76303   6.649  30.634  16.422  0.1060 -0.0510 -0.0988
33366W        W76304   5.477  32.469  18.876 -0.0784 -0.0272 -0.4025
33367W        W76305   6.559  31.231  15.871 -0.1073  0.3606  0.0371
33368W        W76306   6.456  30.439  18.085 -0.4450  0.1067  0.2049
33369W        W76307   6.103  31.173  16.057  0.2000  0.1435  0.1339
33370W        W76308   3.455  31.182  18.769 -0.3041  0.1001 -0.2376
33371W        W76309   5.227  31.038  16.486  0.0520 -0.0518  0.0558
33372W        W76310   4.936  29.999  18.340 -0.1622 -0.2058 -0.1556
33373W        W76311   4.804  28.116  17.639 -0.3472  0.0730  0.1377
33374W        W76312   6.232  31.351  16.973 -0.1216 -0.2417  0.1832
33375W        W76313   3.621  30.417  18.438 -0.2567 -0.0776  0.3898
33376W        W76314   5.458  32.153  19.367 -0.0107  0.3580  0.1993
33377W        W76315   6.923  31.442  17.263 -0.3275  0.0443  0.0027
33378W        W76316   5.144  28.812  19.374  0.0831  0.0353  0.1759
33379W        W76317   4.433  29.859  16.791  0.2118  0.2258 -0.0191
33380W        W76318   5.641  29.646  19.001 -0.2059  0.0795  0.0097
33381W        W76319   3.302  32.798  17.500  0.0645 -0.0488  0.0304
33382W        W76320   7.746  29.453  16.843 -0.3047  0.1566  0.0342
33383W        W76321   6.446  29.335  19.572  0.2267 -0.2640  0.1843
33384W        W76322   6.006  30.126  20.266 -0.1210 -0.1041 -0.1186
33385W        W76323   7.210  31.004  20.177  0.2578  0.2224  0.2567
33386W        W76324   7.903  30.523  16.185 -0.0838  0.1442  0.2002
33387W        W76325   5.536  31.009  18.841  0.0593 -0.1086 -0.3252
33388W        W76326   4.175  31.229  15.990  0.1091  0.1437 -0.4405
33389W        W76327   4.999  30.145  19.204 -0.0684  0.3337  0.1619
33390W        W76328   4.298  30.878  19.437  0.1319  0.0281 -0.2824
33391W        W76329   5.033  32.114  19.210  0.2604  0.2372 -0.0747
33392W        W76330   6.628  31.751  20.162  0.2912  0.0056  0.3614
33393W        W76331   7.167  31.360  18.208  0.5211  0.0131  0.2903
33394W        W76332   5.885  30.903  19.801 -0.0251 -0.0362  0.0392
33395W        W76333   4.077  29.011  17.326 -0.0925  0.1432 -0.2391
33396W        W76334   4.624  31.901  16.622 -0.1200 -0.1177 -0.1148
33397W        W76335   4.730  31.658  17.611 -0.1129  0.0937  0.0254
33398W        W76336   4.770  29.727  19.842 -0.1921 -0.1224 -0.1149
33399W        W76337   4.014  32.923  17.731 -0.1602 -0.0663 -0.0690
33400W        W76338   4.956  31.531  16.656 -0.2532 -0.0268  0.0804
33401W        W76339   6.927  30.525  18.367  0.0260  0.2958 -0.1133
33402W        W76340   4.242  31.927  16.308  0.0347 -0.1003 -0.0323
33403W        W76341   6.307  28.863  19.336 -0.0929  0.0698  0.0480
33404W        W76342   4.123  32.185  19.078  0.1232  0.3252 -0.2600
33405W        W76343   5.231  29.238  17.897  0.1159  0.1325 -0.0130
33406W        W76344   3.909  29.717  16.838  0.0022  0.1892  0.4555
33407W        W76345   7.522  28.410  17.621 -0.0384  0.0566  0.1508
33408W        W76346   6.267  32.010  16.138 -0.3670 -0.4091 -0.0567
33409W        W76347   5.045  29.774  16.990 -0.1099 -0.2153  0.2048
33410W        W76348   5.202  29.047  18.393  0.3820 -0.0830 -0.0395
33411W        W76349   6.597  32.229  20.280 -0.1750  0.0221 -0.0800
33412W        W76350   5.895  31.946  19.365 -0.0325  0.0149  0.2857
33413W        W76351   6.693  30.248  16.874  0.0750  0.0557  0.0820
33414W        W76352   6.277  31.058  18.947 -0.0706 -0.1689 -0.1317
33415W        W76353   5.478  31.523  18.707 -0.0266 -0.1782  0.0324
33416W        W76354   3.444  29.565  16.967  0.2368 -0.1622 -0.0724
33417W        W76355   5.284  29.922  17.962 -0.1748  0.0276  0.0801
33418W        W76356   3.541  30.060  16.886  0.2668  0.0338  0.0535
33419W        W76357   3.673  32.247  17.214  0.2299 -0.0710 -0.0063
33420W        W76358   4.034  31.167  18.064  0.1272 -0.1449  0.1529
33421W        W76359   4.133  30.445  17.072  0.0947 -0.1700 -0.4602
33422W        W76360   4.299  30.883  17.681  0.1139  0.2885 -0.0025
33423W        W76361   3.156  29.913  21.173 -0.0180 -0.0134  0.0904
33424W        W76362   6.030  31.808  18.673  0.2791 -0.0023  0.0317
33425W        W76363   5.146  30.307  20.055 -0.0130  0.3107 -0.1070
33426W        W76364   4.560  30.865  17.095  0.1214 -0.0847 -0.3028
33427W        W76365   6.417  31.508  18.614  0.0226  0.4248  0.1683
33428W        W76366   6.628  29.617  17.773  0.2007 -0.1748 -0.1547
33429W        W76367   5.574  30.043  19.378  0.0588  0.4323  0.1274
33430W        W76368   5.565  32.117  20.220  0.0687  0.0110  0.2809
33431W        W76369   4.686  29.626  17.988  0.2105 -0.2889  0.1798
33432W        W76370   6.857  32.464  16.460 -0.3348  0.0311  0.1723
33433W        W76371   5.675  30.609  19.096 -0.0445 -0.2669  0.3436
33434W        W76372   3.951  31.763  17.630  0.1326  0.0531 -0.1776
33435W        W76373   4.414  31.937  17.888 -0.0028  0.0802  0.2497
33436W        W76374   3.902  31.546  17.148  0.3260 -0.0766  0.1104
33437W        W76375   5.473  30.087  20.453  0.0737  0.2923 -0.0492
33438W        W76376   4.293  32.459  17.805 -0.0520  0.1514 -0.1006
33439W        W76377   5.580  32.058  16.265  0.1472  0.0305  0.1111
33440W        W76378   4.723  31.632  19.981  0.0396 -0.0515  0.0961
33441W        W76379   8.119  30.226  16.444  0.0074 -0.1912  0.1465
33442W        W76380   5.909  31.652  16.153  0.0210 -0.1404  0.0211
33443W        W76381   6.095  30.323  17.788  0.0692 -0.2439 -0.1355
33444W        W76382   5.871  28.863  19.013 -0.0016 -0.0166 -0.0099
33445W        W76383   4.466  30.474  17.565  0.0292 -0.0771  0.1571
33446W        W76384   6.840  29.414  18.770 -0.4983 -0.1752  0.0008
33447W        W76385   3.474  30.553  19.367 -0.0759 -0.0897  0.0065
33448W        W76386   6.859  31.698  18.460 -0.1530 -0.3131  0.0572
33449W        W76387   3.917  29.889  17.725 -0.0406  0.0563  0.0175
33450W        W76388   5.814  31.104  20.414 -0.1189  0.0470  0.1166
33451W        W76389   2.960  30.210  20.230 -0.0821 -0.3602  0.2163
33452W        W76390   6.525  29.684  16.322 -0.0127  0.1433  0.2050
33453W        W76391   3.633  29.119  17.177  0.1687 -0.2822 -0.2771
33454W        W76392   4.131  32.569  18.754  0.2419  0.3031 -0.2287
33455W        W76393   6.933  32.192  18.266  0.0390  0.0925 -0.2403
33456W        W76394   4.856  32.337  16.708 -0.0683 -0.0803 -0.0477
33457W        W76395   6.101  28.913  17.876 -0.1214 -0.5591 -0.1150
33458W        W76396   4.797  32.209  17.979  0.2674  0.1180  0.4770
33459W        W76397   4.845  30.110  17.799 -0.3598 -0.0975  0.2576
33460W        W76398   5.356  31.490  16.254 -0.3235  0.2807 -0.0029
33461W        W76399   3.650  32.523  17.678 -0.2519 -0.2461 -0.1571
33462W        W76400   3.249  30.345  19.747  0.2899 -0.0540  0.1224
33463W        W76401   5.996  30.532  17.186  0.0302 -0.1129 -0.0551
33464W        W76402   4.609  28.747  19.243  0.0411  0.1737  0.1836
33465W        W76403   5.196  30.349  18.748  0.2614 -0.0872 -0.0282
33466W        W76404   4.490  31.215  19.803 -0.1164  0.2084 -0.0998
33467W        W76405   4.523  30.133  19.626  0.0371 -0.1178  0.0156
33468W        W76406   2.888  29.732  20.199  0.2559  0.4734  0.1139
33469W        W76407   7.171  34.340  18.339 -0.1149 -0.2438  0.0090
33470W        W76408   6.118  30.726  16.468 -0.1889 -0.0540  0.0120
33471W        W76409   5.827  31.514  19.075 -0.0459  0.0558 -0.0504
33472W        W76410   7.901  30.648  17.873 -0.2514  0.2384 -0.1886
33473W        W76411   6.369  31.531  17.417 -0.1662  0.1870  0.3224
33474W        W76412   3.635  30.815  17.987 -0.1921  0.0787  0.0466
33475W        W76413   6.271  31.919  20.558 -0.1706 -0.1668  0.1095
33476W        W76414   4.238  29.551  16.460  0.3782 -0.1153  0.0116
33477W        W76415   5.654  29.882  19.899  0.1085  0.1790  0.3287
33478W        W76416   4.244  33.698  17.661  0.2100 -0.1040 -0.3064
33479W        W76417   5.842  30.737  17.657 -0.0902  0.1033  0.1701
33480W        W76418   5.031  29.503  18.295  0.1341  0.0249  0.0490
33481W        W76419   3.593  30.522  16.417 -0.1280 -0.2557  0.3598
33482W        W76420   4.112  31.700  19.185  0.1233  0.0391  0.2946
33483W        W76421   4.181  30.653  16.235  0.1088  0.1677 -0.1411
33484W        W76422   5.506  30.371  17.853  0.1771  0.0592  0.0201
33485W        W76423   5.119  32.030  18.727 -0.0150 -0.1693  0.1970
33486W        W76424   6.729  30.334  21.081 -0.0369  0.1771  0.1990
33487W        W76425   4.565  28.986  17.208  0.0106  0.0247 -0.2224
33488W        W76426   6.448  30.038  19.232 -0.2295  0.0645  0.0212
33489W        W76427   3.378  32.438  16.298  0.0351  0.0764 -0.0131
33490W        W76428   5.244  30.090  17.447  0.3025 -0.0541  0.0434
33491W        W76429   4.868  32.461  18.686  0.1985  0.1920  0.0474
33492W        W76430   4.534  31.052  18.070  0.0109 -0.0430  0.1784
33493W        W76431   3.770  32.876  18.648  0.3790 -0.0393  0.1578
33494W        W76432   6.689  28.916  19.722  0.3521  0.2799  0.4377
33495W        W76433   6.678  31.066  17.578  0.0365 -0.1095 -0.1453
33496W        W76434   5.299  29.867  18.702 -0.2755 -0.1621 -0.1764
33497W        W76435   7.528  29.832  18.044  0.1744  0.1060 -0.2527
33498W        W76436   5.926  32.969  19.172 -0.3791 -0.0436 -0.0721
33499W        W76437   4.041  30.879  20.046  0.1383 -0.0803  0.1848
33500W        W76438   5.584  31.835  19.813 -0.4128 -0.4579  0.1716
33501W        W76439   6.740  31.917  17.450 -0.0581  0.2447  0.1677
33502W        W76440   4.012  32.739  18.207 -0.0437 -0.2926 -0.1631
33503W        W76441   3.713  31.194  20.944  0.1229 -0.1804 -0.0811
33504W        W76442   4.184  31.652  19.777 -0.3576  0.0056  0.1771
33505W        W76443   5.910  31.273  18.584  0.0483  0.0604  0.4374
33506W        W76444   4.972  29.263  16.919 -0.1371  0.3599  0.1036
33507W        W76445   5.866  32.542  17.070  0.0250  0.0881  0.1261
33508W        W76446   3.579  31.604  21.448  0.0358 -0.0382  0.0944
33509W        W76447   3.696  30.988  19.208  0.0779  0.4057  0.0760
33510W        W76448   4.149  31.660  16.698 -0.1532  0.1192 -0.5297
33511W        W76449   6.693  32.012  16.399 -0.3065 -0.0292  0.1703
33512W        W76450   6.031  32.247  17.724  0.1691  0.0382  0.0842
33513W        W76451   5.718  33.051  16.563 -0.2674  0.0656  0.0838
33514W        W76452   5.458  29.418  17.138  0.1296  0.1328  0.0711
33515W        W76453   3.619  31.478  19.143  0.1471 -0.1976  0.0924
33516W        W76454   2.614  32.142  16.678 -0.1067  0.0406 -0.0237
33517W        W76455   5.602  33.050  16.024 -0.0115 -0.3099 -0.0843
33518W        W76456   4.540  33.034  17.958  0.3575  0.3596  0.2874
33519W        W76457   6.056  31.931  20.022 -0.0082 -0.0650  0.1519
33520W        W76458   5.487  28.928  16.642  0.1298 -0.2870 -0.1955
33521W        W76459   6.636  31.032  17.039  0.2209 -0.0221  0.0963
33522W        W76460   7.271  30.359  17.353  0.3229  0.1429  0.1542
33523W        W76461   5.221  33.403  20.125  0.8484  0.0418 -0.2096
33524W        W76462   4.159  30.429  18.560  0.1465  0.0349 -0.1324
33525W        W76463   4.979  29.678  17.497 -0.0490 -0.0791 -0.0466
33526W        W76464   3.951  30.491  19.658 -0.1427  0.0533 -0.1180
33527W        W76465   7.886  29.667  18.504 -0.0131 -0.0748 -0.0498
33528W        W76466   3.060  30.952  18.995  0.0061 -0.3046 -0.1670
33529W        W76467   6.330  32.269  16.567  0.0339 -0.1356  0.3043
33530W        W76468   3.765  31.287  16.738  0.1316  0.0024 -0.1034
33531W        W76469   5.510  30.226  18.358  0.1944 -0.1571  0.1773
33532W        W76470   7.135  28.912  18.855 -0.2502 -0.1462  0.1276
33533W        W76471   5.839  32.085  16.904 -0.0358 -0.1499 -0.3760
33534W        W76472   6.000  30.943  19.334  0.0081 -0.1332 -0.2182
33535W        W76473   3.720  33.630  16.871 -0.2966 -0.1793  0.0339
33536W        W76474   5.341  33.013  18.983 -0.0000 -0.1806  0.0082
33537W        W76475   6.438  31.982  18.864 -0.0983  0.0850  0.0487
33538W        W76476   4.114  29.106  16.759 -0.0000  0.1468  0.0239
33539W        W76477   8.426  29.789  16.388 -0.2351 -0.2027 -0.0622
33540W        W76478   5.428  30.714  18.494 -0.1790  0.0727  0.3252
33541W        W76479   6.197  30.563  18.969  0.3305  0.2462 -0.0666
33542W        W76480   3.987  30.242  16.604  0.1097  0.2940 -0.0830
33543W        W76481   7.012  29.585  17.163  0.2197 -0.0823 -0.0035
33544W        W76482   5.073  31.638  18.370 -0.0514 -0.1043 -0.1684
33545W        W76483   3.281  31.098  17.850 -0.0882  0.1503 -0.1304
33546W        W76484   5.782  29.560  16.706  0.1500  0.0813 -0.0323
33547W        W76485   5.502  31.188  19.298  0.2522 -0.5523  0.2031
33548W        W76486   5.884  30.271  16.791 -0.2618 -0.1071  0.3331
33549W        W76487   7.741  32.329  19.250  0.1906 -0.2247  0.2212
33550W        W76488   5.307  29.504  16.578 -0.0483 -0.0901 -0.4432
33551W        W76489   5.489  29.974  16.529  0.1948  0.1321  0.0963
33552W        W76490   3.662  30.255  17.935  0.0417  0.0242 -0.2818
33553W        W76491   3.973  30.353  19.022 -0.1865  0.2150 -0.0628
33554W        W76492   5.616  32.757  19.514 -0.2286 -0.0028  0.3663
33555W        W76493   3.784  28.447  17.963  0.3539  0.2008  0.0373
33556W        W76494   6.743  31.721  15.934  0.1294 -0.2100 -0.0161
33557W        W76495   5.795  29.957  17.978 -0.0053 -0.2147 -0.1797
33558W        W76496   4.380  33.258  17.544  0.1372  0.0201  0.0316
33559W        W76497   5.642  30.808  16.838 -0.1098  0.0941  0.2571
33560W        W76498   6.312  33.680  16.634 -0.1206 -0.1671 -0.1145
33561W        W76499   3.995  31.755  18.178  0.2973 -0.0291 -0.1798
33562W        W76500   6.425  31.957  18.309  0.0146 -0.1602 -0.0982
33563W        W76501   6.575  31.639  16.729 -0.0377  0.0567 -0.1831
33564W        W76502   5.165  29.678  19.225 -0.2121 -0.2361  0.3209
33565W        W76503   4.714  30.322  18.690  0.2696 -0.3260 -0.0780
33566W        W76504   4.863  33.137  18.395 -0.0763  0.0084 -0.1489
33567W        W76505   5.553  29.680  17.557  0.3739 -0.0180 -0.0673
33568W        W76506   6.476  30.126  19.705 -0.0751  0.1325 -0.0766
33569W        W76507   4.571  32.761  16.738  0.0626  0.0551  0.0152
33570W        W76508   5.984  29.582  18.532 -0.0145  0.0254 -0.0239
33571W        W76509   4.769  32.952  18.889 -0.1786 -0.3160  0.0818
33572W        W76510   5.474  32.978  19.987 -0.1693 -0.0156 -0.3421
33573W        W76511   6.133  31.775  16.606 -0.3450  0.2312  0.0765
33574W        W76512   5.385  31.689  19.232  0.2825  0.3399 -0.0172
33575W        W76513   4.802  30.699  17.864 -0.1970 -0.3217 -0.0663
33576W        W76514   5.075  33.117  17.896  0.0205  0.1848  0.2881
33577W        W76515   7.279  33.167  16.815  0.1504 -0.0591 -0.0868
33578W        W76516   5.012  30.557  18.272 -0.0363  0.1995  0.0302
33579W        W76517   7.081  33.172  17.275  0.1787  0.1744 -0.0250
33580W        W76518   5.813  30.614  18.133  0.1560  0.0982  0.1283
33581W        W76519   7.908  28.754  17.451  0.1788 -0.5471 -0.3564
33582W        W76520   6.531  29.643  17.261 -0.0296  0.0674 -0.2386
33583W        W76521   5.297  32.602  17.959 -0.2269  0.1296  0.3227
33584W        W76522   4.118  32.275  17.397 -0.0294 -0.1250 -0.0324
33585W        W76523   5.250  32.063  16.629  0.1372 -0.0469  0.0082
33586W        W76524   5.064  31.297  17.954  0.0360 -0.0275 -0.1046
33587W        W76525   5.140  29.068  20.307 -0.0276 -0.2009 -0.0307
33588W        W76526   2.221  29.597  19.980 -0.1403  0.0174  0.2278
33589W        W76527   4.673  30.036  17.255 -0.0261 -0.1198 -0.3811
33590W        W76528   4.438  29.416  16.952 -0.0279 -0.4297 -0.0164
33591W        W76529   6.066  32.696  16.649  0.0589 -0.0375  0.1484
33592W        W76530   5.594  30.367  19.850 -0.1312 -0.1640 -0.0344
33593W        W76531   3.273  28.725  17.922  0.2091  0.0073  0.1932
33594W        W76532   6.088  31.232  17.744 -0.0210 -0.1397  0.3790
33595W        W76533   5.326  30.849  17.975 -0.1075 -0.2654  0.0790
33596W        W76534   5.339  31.190  18.385 -0.1010 -0.3527  0.1457
33597W        W76535   7.252  32.015  19.119 -0.2135 -0.2854  0.1658
33598W        W76536   3.390  30.975  16.609 -0.2006  0.0302 -0.0804
33599W        W76537   4.455  30.672  20.747  0.0204 -0.2972  0.0607
33600W        W76538   4.207  28.895  19.836  0.1377  0.2151 -0.1933
33601W        W76539   4.381  28.530  16.369  0.0919 -0.2944 -0.4115
33602W        W76540   6.167  29.863  18.913 -0.0548 -0.2310 -0.0006
33603W        W76541   6.435  32.359  17.461  0.1156 -0.0784 -0.0406
33604W        W76542   6.069  32.961  16.167  0.1086 -0.1607  0.1815
33605W        W76543   4.574  33.571  17.995 -0.0063 -0.0755 -0.1645
33606W        W76544   5.038  34.270  19.440 -0.1761 -0.2146  0.0021
33607W        W76545   2.153  30.497  19.357 -0.1159  0.1722  0.2477
33608W        W76546   6.968  30.639  16.798  0.1303  0.0426  0.0055
33609W        W76547   5.002  31.128  19.524 -0.2174 -0.2026 -0.0318
33610W        W76548   6.898  30.880  16.111  0.0961  0.1316  0.0163
33611W        W76549   7.734  29.004  16.608  0.1681  0.0723  0.1275
33612W        W76550   5.203  31.044  17.490 -0.0887  0.0557 -0.0343
33613W        W76551   3.247  29.986  19.336 -0.0402 -0.0285 -0.0248
33614W        W76552   5.042  31.335  18.934  0.0208 -0.0776 -0.0677
33615W        W76553   4.952  30.508  17.417 -0.0525  0.0816  0.0749
33616W        W76554   5.075  28.751  17.913 -0.0566 -0.2163  0.1344
33617W        W76555   5.762  29.252  17.533  0.0288  0.2360 -0.1704
33618W        W76556   5.901  31.655  17.156 -0.2082 -0.0825 -0.2743
33619W        W76557   4.962  32.019  19.696 -0.1967 -0.3197  0.0653
33620W        W76558   4.620  32.207  17.495  0.0830  0.0013  0.0423
33621W        W76559   5.684  30.133  18.869 -0.0358  0.0521  0.1044
33622W        W76560   5.622  32.487  17.506 -0.2581  0.0464  0.2256
33623W        W76561   5.207  31.215  20.598  0.0401  0.0050 -0.2400
33624W        W76562   4.730  31.058  16.001 -0.1260 -0.2323  0.1690
33625W        W76563   7.038  29.672  16.221  0.1556 -0.0148 -0.2671
33626W        W76564   6.908  31.778  17.935  0.0008 -0.1464 -0.2189
33627W        W76565   5.250  32.384  20.920 -0.1848  0.0972  0.1347
33628W        W76566   5.138  31.856  17.863 -0.2012  0.4490 -0.1513
33629W        W76567   5.746  30.168  17.455 -0.1758 -0.1245  0.2886
33630W        W76568   3.048  28.768  18.350  0.3272  0.0432  0.0244
33631W        W76569   5.366  31.760  16.976  0.2313 -0.1036 -0.1378
33632W        W76570   4.434  29.817  18.365 -0.0819 -0.1881 -0.0167
33633W        W76571   6.070  31.557  18.158 -0.2147 -0.2182  0.1839
33634W        W76572   5.606  29.589  18.236  0.1221  0.1626  0.0728
33635W        W76573   6.377  29.787  16.811  0.0135 -0.2384 -0.0607
33636W        W76574   6.318  33.171  18.989  0.2622 -0.3086  0.1241
33637W        W76575   5.727  31.108  18.071  0.0446 -0.0974 -0.1090
33638W        W76576   4.967  30.791  23.889  0.1436 -0.0920  0.4304
33639W        W76577   4.490  29.885  21.274 -0.0789  0.1879 -0.1782
33640W        W76578   6.757  30.748  20.511  0.0042  0.0579  0.3545
33641W        W76579   7.793  31.701  21.412 -0.1714 -0.1560  0.3041
33642W        W76580   3.116  29.109  21.637  0.0881 -0.0115  0.2560
33643W        W76581   6.735  31.775  20.718  0.1877  0.3206 -0.3100
33644W        W76582   3.757  28.402  22.854  0.1224 -0.1153  0.2036
33645W        W76583   5.788  31.985  21.576 -0.1801  0.1357 -0.1381
33646W        W76584   7.762  33.046  19.915  0.1101 -0.0764 -0.6463
33647W        W76585   5.705  32.590  20.181  0.2150  0.0303  0.1705
33648W        W76586   4.457  30.933  24.180  0.2907  0.4545  0.2223
33649W        W76587   5.078  32.065  21.321 -0.2575  0.2629 -0.0087
33650W        W76588   4.532  29.205  21.171 -0.1264 -0.1666  0.0822
33651W        W76589   1.899  29.154  22.173  0.0168  0.1068  0.0491
33652W        W76590   7.905  30.402  21.960 -0.0856 -0.1229  0.3429
33653W        W76591   2.757  31.645  21.510  0.0105  0.1376  0.2563
33654W        W76592   4.069  28.760  22.612 -0.0373 -0.5606 -0.3377
33655W        W76593   5.370  29.874  21.170 -0.0867 -0.0588 -0.0901
33656W        W76594   5.138  31.702  22.342  0.0558 -0.1212  0.0036
33657W        W76595   4.957  27.866  23.991  0.1834 -0.0019  0.1176
33658W        W76596   6.765  29.929  23.464  0.0594  0.0979 -0.3345
33659W        W76597   5.033  30.371  20.549 -0.1640 -0.2638  0.0672
33660W        W76598   4.365  30.209  20.607  0.2065 -0.0397  0.2272
33661W        W76599   3.269  29.133  22.348 -0.1387 -0.2898 -0.0850
33662W        W76600   3.768  28.477  22.177  0.0970 -0.2135  0.0175
33663W        W76601   6.390  29.586  22.095  0.1199 -0.3069 -0.0304
33664W        W76602   6.419  30.146  22.716 -0.2815 -0.1396  0.1913
33665W        W76603   5.766  32.950  22.846  0.1808  0.1369  0.0910
33666W        W76604   6.857  31.731  21.962 -0.0807 -0.1212 -0.0621
33667W        W76605   7.200  29.902  23.199  0.2352 -0.1573  0.3499
33668W        W76606   4.166  31.110  22.939 -0.2803 -0.0444 -0.0387
33669W        W76607   3.151  32.095  22.188  0.1609 -0.0478  0.1541
33670W        W76608   4.765  31.169  20.768 -0.1840 -0.2537  0.1514
33671W        W76609   6.235  30.623  21.140  0.4373 -0.0320 -0.0585
33672W        W76610   6.001  33.334  23.177  0.0194  0.1215  0.0387
33673W        W76611   6.910  33.008  23.734 -0.3729 -0.4680  0.0792
33674W        W76612   3.962  30.736  21.138 -0.0714  0.0490  0.1057
33675W        W76613   6.217  32.422  22.351 -0.0276 -0.1649 -0.0799
33676W        W76614   5.276  32.209  22.253  0.0291  0.2107  0.2778
33677W        W76615   4.867  29.800  22.512  0.0933  0.0382  0.2476
33678W        W76616   5.651  29.508  21.377 -0.1046  0.0369 -0.0589
33679W        W76617   4.903  32.128  20.190  0.0202 -0.1098 -0.0183
33680W        W76618   4.563  31.286  22.551  0.1055 -0.0568 -0.2405
33681W        W76619   5.510  32.435  22.957 -0.0992 -0.1301 -0.5852
33682W        W76620   5.316  30.686  22.140 -0.1513 -0.0915 -0.1045
33683W        W76621   7.572  30.552  24.338  0.1606  0.0219 -0.2387
33684W        W76622   3.871  31.551  20.605 -0.1982  0.1396  0.0659
33685W        W76623   6.459  30.410  20.112  0.0035  0.1255 -0.0436
33686W        W76624   4.153  30.803  18.951 -0.2337  0.2824  0.3014
33687W        W76625   5.820  30.597  20.188 -0.1809  0.1423 -0.3135
33688W        W76626   5.512  29.147  22.735 -0.0298 -0.1089  0.0298
33689W        W76627   4.965  33.311  21.887 -0.1456 -0.0496  0.1134
33690W        W76628   3.882  27.942  22.631 -0.0791  0.2135  0.1403
33691W        W76629   5.438  29.542  23.039 -0.2239 -0.0043 -0.1683
33692W        W76630   5.277  31.576  20.216  0.1654 -0.1035 -0.1354
33693W        W76631   6.130  29.152  23.727 -0.1851 -0.4040  0.0145
33694W        W76632   6.011  33.165  21.821  0.2297  0.0170  0.0042
33695W        W76633   4.346  30.499  22.007  0.0931  0.1259  0.1079
33696W        W76634   5.841  31.584  20.251 -0.3211 -0.1967 -0.3246
33697W        W76635   7.189  32.576  22.422  0.1011  0.0728  0.1187
33698W        W76636   5.441  32.364  21.470 -0.0671 -0.2716 -0.1045
33699W        W76637   2.754  31.126  19.907  0.2570 -0.0816  0.0645
33700W        W76638   4.936  31.181  24.296  0.2003  0.0335  0.4714
33701W        W76639   3.083  30.486  23.074  0.0842  0.1276 -0.0287
33702W        W76640   3.412  29.554  19.493  0.1773  0.0314 -0.1195
33703W        W76641   6.016  30.284  23.983 -0.1732  0.1554 -0.3503
33704W        W76642   3.774  31.743  23.203 -0.2473 -0.1429 -0.1807
33705W        W76643   6.393  29.039  21.491  0.0835 -0.2384  0.1922
33706W        W76644   4.095  31.686  22.166  0.0634  0.0146  0.0194
33707W        W76645   6.197  31.480  22.502 -0.2312 -0.0643 -0.0705
33708W        W76646   6.319  32.176  19.364  0.0057 -0.0668  0.3317
33709W        W76647   6.889  30.212  22.933 -0.2083  0.2632  0.0562
33710W        W76648   7.786  30.415  23.397  0.0156 -0.1085  0.0166
33711W        W76649   5.064  31.613  20.987 -0.1326  0.0122  0.1757
33712W        W76650   4.499  31.528  21.247  0.1132  0.0342 -0.1518
33713W        W76651   6.168  31.721  24.432  0.2826  0.2503  0.2116
33714W        W76652   7.452  30.194  20.074 -0.0181  0.3051 -0.1686
33715W        W76653   4.955  30.779  23.323 -0.1473 -0.0492  0.0081
33716W        W76654   4.515  29.492  22.724 -0.0485  0.0953  0.0850
33717W        W76655   5.651  32.425  23.556  0.2559  0.3331  0.1658
33718W        W76656   5.423  32.307  19.812 -0.3971  0.2913  0.0271
33719W        W76657   3.104  31.939  21.191 -0.1205  0.2222 -0.0604
33720W        W76658   2.928  30.853  21.455  0.0358 -0.0914  0.0993
33721W        W76659   3.277  29.269  23.025 -0.3930 -0.0244 -0.0753
33722W        W76660   3.346  32.033  22.789 -0.2497  0.1157 -0.0826
33723W        W76661   6.668  28.597  21.099 -0.1072 -0.2726 -0.4668
33724W        W76662   3.344  28.280  23.254  0.0399 -0.2286  0.0678
33725W        W76663   6.453  29.628  20.831  0.1316 -0.1037  0.0710
33726W        W76664   3.671  30.634  20.276 -0.2460 -0.1262  0.2805
33727W        W76665   7.905  33.308  20.824  0.0194 -0.1233  0.0290
33728W        W76666   7.662  29.772  20.845 -0.3527  0.1879  0.0603
33729W        W76667   6.189  31.354  21.434  0.1367 -0.2789  0.2379
33730W        W76668   3.193  28.497  22.218 -0.0944  0.2664 -0.0815
33731W        W76669   3.825  29.448  20.614  0.2146  0.1501 -0.1809
33732W        W76670   4.626  29.866  23.537 -0.3344 -0.1225  0.2863
33733W        W76671   4.081  30.025  22.312  0.0482  0.0028  0.1628
33734W        W76672   5.440  30.854  21.435 -0.0563  0.0194  0.1155
33735W        W76673   2.665  29.440  18.872  0.0281 -0.2233 -0.0692
33736W        W76674   8.050  29.852  21.811 -0.1760 -0.0504  0.3294
33737W        W76675   4.908  29.768  21.487 -0.3666  0.1472  0.2607
33738W        W76676   2.113  31.035  21.104  0.0281 -0.0935 -0.1342
33739W        W76677   7.202  30.145  23.615  0.1320 -0.0527 -0.0465
33740W        W76678   5.496  31.948  21.042  0.0700  0.1616  0.2126
33741W        W76679   6.313  32.183  21.567  0.2302  0.1137  0.0359
33742W        W76680   7.642  33.279  21.303  0.0274  0.0001  0.0268
33743W        W76681   4.700  29.233  23.259 -0.2687  0.0281 -0.0053
33744W        W76682   4.089  30.075  19.410  0.1800  0.1200  0.1389
33745W        W76683   2.522  31.186  21.452  0.1256 -0.0917 -0.0595
33746W        W76684   4.944  31.085  22.947  0.3081 -0.2881  0.3282
33747W        W76685   5.265  29.659  20.684  0.3074  0.4222 -0.1128
33748W        W76686   7.776  33.155  22.428 -0.2356 -0.2253  0.0791
33749W        W76687   5.084  31.580  21.475  0.1261 -0.1962  0.3317
33750W        W76688   3.728  29.029  22.203 -0.1459  0.1882  0.0240
33751W        W76689   5.056  29.247  22.899  0.0997 -0.0545 -0.1487
33752W        W76690   5.454  31.561  23.103  0.0697 -0.1750 -0.5013
33753W        W76691   5.556  31.138  22.194  0.1638  0.1789  0.0797
33754W        W76692   2.064  30.783  18.899  0.4137 -0.2298  0.2082
33755W        W76693   6.998  33.834  22.264  0.0006  0.0878  0.0995
33756W        W76694   3.930  32.164  20.595 -0.1440  0.0356  0.0568
33757W        W76695   3.040  31.538  19.851 -0.1753 -0.1663 -0.0605
33758W        W76696   5.455  30.729  22.611  0.0452  0.0793  0.0248
33759W        W76697   7.618  28.987  21.743 -0.0026 -0.1691 -0.3447
33760W        W76698   3.846  30.462  23.222  0.0447 -0.0286 -0.2559
33761W        W76699   7.296  29.962  22.598  0.0413  0.0462 -0.1635
33762W        W76700   3.431  30.149  21.495 -0.2171  0.1887  0.2183
33763W        W76701   4.382  32.498  22.231 -0.3513  0.1768  0.0342
33764W        W76702   6.414  29.077  22.136 -0.3399 -0.1542  0.0270
33765W        W76703   6.924  30.368  19.956 -0.0696 -0.2141 -0.0409
33766W        W76704   6.779  30.945  24.706 -0.0506 -0.0501  0.1835
33767W        W76705   4.705  31.207  21.620  0.1360  0.2770  0.0963
33768W        W76706   5.825  30.678  20.767  0.1383 -0.3045  0.3163
33769W        W76707   5.518  31.185  20.028  0.1716  0.2579 -0.1997
33770W        W76708   3.866  30.907  24.142 -0.2759  0.2111 -0.0367
33771W        W76709   6.819  31.565  22.459  0.0337 -0.1701 -0.0641
33772W        W76710   5.223  29.418  21.749  0.0956  0.0369 -0.0281
33773W        W76711   4.021  30.240  20.153  0.3080  0.2045 -0.0195
33774W        W76712   6.518  32.506  21.246 -0.3705  0.0125  0.1052
33775W        W76713   2.893  30.667  21.940  0.3930 -0.0893  0.0592
33776W        W76714   6.830  32.674  23.286  0.2353 -0.4941 -0.4205
33777W        W76715   6.961  31.780  21.273 -0.0062 -0.0614  0.1095
33778W        W76716   6.862  28.513  23.577 -0.1492  0.0885  0.0022
33779W        W76717   4.058  31.012  20.527  0.4427 -0.2002  0.0417
33780W        W76718   3.513  29.592  21.529  0.2900  0.0375  0.1255
33781W        W76719   4.060  32.197  19.621  0.2455  0.0236 -0.0568
33782W        W76720   6.859  29.663  22.833  0.2907  0.1519 -0.1589
33783W        W76721   5.495  28.724  22.977  0.1302  0.0031 -0.1837
33784W        W76722   5.415  28.748  23.499  0.0326  0.0563  0.0289
33785W        W76723   7.352  29.664  23.670  0.0690  0.0241 -0.1378
33786W        W76724   6.709  29.771  21.258  0.4334 -0.3187  0.2967
33787W        W76725   4.405  28.829  23.125 -0.0549 -0.4014  0.0267
33788W        W76726   4.882  30.562  19.625 -0.0465  0.0516  0.0126
33789W        W76727   4.833  29.671  21.993 -0.1268  0.1799 -0.2230
33790W        W76728   4.613  30.570  23.651  0.6054 -0.2731  0.3031
33791W        W76729   4.215  32.919  22.317 -0.0597  0.2215  0.1947
33792W        W76730   5.755  30.666  23.587  0.2245  0.2886 -0.0050
33793W        W76731   5.587  31.490  21.248 -0.1058  0.0344 -0.0829
33794W        W76732   4.424  29.637  22.273  0.1674  0.0393 -0.1387
33795W        W76733   5.210  28.730  20.651 -0.0255 -0.1873  0.2752
33796W        W76734   4.910  32.511  21.280 -0.3026  0.2188 -0.0484
33797W        W76735   3.857  30.328  21.876  0.2735 -0.1705 -0.0659
33798W        W76736   4.196  28.307  22.413 -0.2660 -0.1512 -0.2057
33799W        W76737   4.608  31.530  22.087 -0.2242  0.3337 -0.2814
33800W        W76738   4.320  31.650  20.352  0.1890  0.0597  0.2930
33801W        W76739   5.694  30.179  22.206 -0.0728  0.0690 -0.0490
33802W        W76740   4.321  31.404  20.805 -0.2239  0.1098 -0.2100
33803W        W76741   7.375  28.923  23.071  0.2072  0.2457 -0.2471
33804W        W76742   4.086  31.411  23.340 -0.0545  0.0119 -0.1425
33805W        W76743   5.320  30.773  20.420 -0.0733 -0.2250 -0.1583
33806W        W76744   2.500  28.669  20.976  0.1491  0.1991  0.0813
33807W        W76745   6.366  29.603  22.595 -0.1147 -0.2012  0.0502
33808W        W76746   6.911  31.325  21.730 -0.4296 -0.0085 -0.2405
33809W        W76747   3.517  28.726  22.528  0.1462  0.3310  0.1067
33810W        W76748   5.146  28.830  22.532  0.1743  0.3584 -0.2237
33811W        W76749   4.285  31.925  23.318 -0.0934  0.2182 -0.1681
33812W        W76750   5.096  31.128  21.196 -0.0270  0.2938  0.3980
33813W        W76751   6.681  29.329  20.264 -0.0074  0.3115 -0.2861
33814W        W76752   5.848  30.537  23.064  0.0930 -0.0969 -0.0239
33815W        W76753   5.324  29.800  23.490  0.1157 -0.0208  0.1929
33816W        W76754   2.634  29.166  20.885 -0.2275 -0.2191  0.1428
33817W        W76755   6.852  30.463  23.841 -0.0782  0.0107 -0.1511
33818W        W76756   3.838  28.842  23.084 -0.0326 -0.1416 -0.1723
33819W        W76757   3.450  31.115  21.571 -0.1533  0.3101 -0.0556
33820W        W76758   6.107  31.643  23.378  0.1742  0.0318  0.0528
33821W        W76759   4.587  32.022  21.228  0.0905  0.0546 -0.0621
33822W        W76760   3.707  29.834  21.937 -0.1268  0.4775 -0.4006
33823W        W76761   4.239  29.069  24.199  0.0913 -0.0008  0.1418
33824W        W76762   5.909  29.595  23.275  0.2028  0.0711  0.1074
33825W        W76763   5.025  28.852  23.799  0.0368 -0.3903  0.0022
33826W        W76764   4.507  27.916  21.013  0.0723  0.0879 -0.1649
33827W        W76765   4.623  30.232  21.700  0.1935 -0.0202 -0.1410
33828W        W76766   5.516  31.251  22.698 -0.2429  0.0381 -0.2370
33829W        W76767   5.265  29.509  23.867 -0.1308 -0.0600  0.2293
33830W        W76768   2.823  30.950  23.601 -0.3534  0.2649  0.0291
33831W        W76769   6.190  29.176  23.017  0.0738 -0.1402  0.0044
33832W        W76770   7.416  32.985  19.494  0.0740 -0.3223 -0.1037
33833W        W76771   6.862  30.922  23.593 -0.1664  0.3657  0.2104
33834W        W76772   5.087  31.331  21.931 -0.0847 -0.0478 -0.2318
33835W        W76773   3.656  29.510  22.335 -0.3819  0.2360 -0.1982
33836W        W76774   4.494  30.476  21.216  0.0294 -0.1295 -0.1571
33837W        W76775   6.328  29.781  23.070 -0.3221  0.4390 -0.0057
33838W        W76776   3.690  30.691  22.799 -0.1099  0.0720  0.2842
33839W        W76777   5.047  31.523  22.846 -0.2877  0.1460  0.2519
33840W        W76778   3.532  31.510  23.571  0.1729 -0.0227  0.1201
33841W        W76779   5.399  29.897  21.715  0.1105  0.2685  0.1636
33842W        W76780   4.586  30.089  20.155 -0.0952  0.4774 -0.0482
33843W        W76781   5.828  29.611  20.882 -0.2908  0.4611 -0.0786
33844W        W76782   7.270  30.577  23.401  0.0518  0.0015  0.0844
33845W        W76783   5.070  30.368  21.827 -0.1824 -0.2446  0.1410
33846W        W76784   5.725  29.481  24.662 -0.0075 -0.3049  0.0574
33847W        W76785   4.663  28.998  22.703  0.0777  0.2342  0.0327
33848W        W76786   5.532  31.996  22.667 -0.3494 -0.0147 -0.0802
33849W        W76787   3.643  30.407  23.924 -0.0626  0.0686  0.2456
33850W        W76788   6.242  32.883  24.674 -0.2786  0.0658  0.0107
33851W        W76789   4.309  30.495  24.568  0.3643  0.0471 -0.0107
33852W        W76790   5.221  30.370  21.386 -0.2268  0.0836  0.1666
33853W        W76791   3.655  30.284  21.020 -0.0168  0.1033  0.0148
33854W        W76792   4.785  30.756  22.044 -0.0336  0.0520 -0.0329
33855W        W76793   6.036  30.547  22.539 -0.0400  0.1240  0.0402
33856W        W76794   3.498  31.390  19.999 -0.0223  0.2139 -0.0116
33857W        W76795   6.556  30.338  21.585 -0.2989  0.1792  0.0012
33858W        W76796   3.418  29.381  21.954  0.0013  0.0405 -0.1497
33859W        W76797   6.068  30.417  21.687 -0.2732  0.0585 -0.3593
33860W        W76798   5.046  32.672  19.798 -0.0975 -0.1116  0.1647
33861W        W76799   4.212  28.988  21.564 -0.2423 -0.0568 -0.0060
33862W        W76800   6.629  29.292  23.179  0.5270 -0.1153  0.0313
33863W        W76801   5.943  31.053  22.733 -0.2922 -0.0242  0.1118
33864W        W76802   5.154  29.286  21.274  0.1748 -0.0094 -0.0781
33865W        W76803   3.608  29.180  23.466 -0.0176  0.2760 -0.2269
33866W        W76804   6.018  30.903  21.512 -0.2036 -0.0614 -0.3722
33867W        W76805   4.408  29.964  22.770  0.0693 -0.1151  0.0701
33868W        W76806   3.785  30.530  24.489 -0.0669 -0.0689 -0.4485
33869W        W76807   7.296  31.838  22.214 -0.3337 -0.1436  0.1170
33870W        W76808   6.775  31.263  20.045  0.3085 -0.1928  0.1000
33871W        W76809   8.230  29.879  22.772  0.1144  0.2946  0.2456
33872W        W76810   5.906  29.963  21.814  0.0018  0.0261 -0.1411
33873W        W76811   5.382  30.314  20.928  0.0686 -0.0060 -0.0452
33874W        W76812   2.982  28.813  22.635  0.0236 -0.0854  0.1691
33875W        W76813   4.715  29.860  23.991 -0.1285  0.2173 -0.1310
33876W        W76814   3.487  30.168  20.210  0.3315  0.1595 -0.1271
33877W        W76815   5.890  29.482  22.760  0.1488  0.4579 -0.0150
33878W        W76816   3.979  31.372  20.126 -0.0793 -0.3796 -0.0972
33879W        W76817   5.612  31.256  21.731  0.1875  0.0420 -0.2340
33880W        W76818   6.297  30.437  20.602  0.0855  0.0974 -0.0196
33881W        W76819   3.396  28.848  21.916 -0.0265  0.0087 -0.0903
33882W        W76820   3.896  32.538  22.082  0.1568 -0.4762  0.2393
33883W        W76821   3.006  30.422  19.121  0.0488 -0.1530  0.1856
33884W        W76822   4.297  31.893  20.870  0.4360 -0.1411 -0.1837
33885W        W76823   5.903  32.610  23.171  0.2958 -0.1145 -0.3045
33886W        W76824   8.006  30.337  24.747  0.2324  0.0885  0.0499
33887W        W76825   5.914  28.781  20.246 -0.2215  0.1946 -0.1083
33888W        W76826   7.185  30.442  22.539 -0.4733 -0.1105 -0.2297
33889W        W76827   3.433  32.423  21.874  0.5074  0.2395  0.0644
33890W        W76828   4.585  29.216  22.051  0.0270 -0.0369  0.1468
33891W        W76829   4.488  31.788  22.472 -0.0340  0.1836  0.1863
33892W        W76830   4.641  30.804  22.524 -0.0090 -0.0905 -0.3780
33893W        W76831   4.321  31.068  22.135 -0.1441 -0.2220 -0.0601
33894W        W76832   4.673  28.315  23.178 -0.2917  0.2201 -0.0309
33895W        W76833   4.953  30.685  20.940 -0.3423  0.0159 -0.1856
33896W        W76834   4.582  28.560  23.670 -0.1198  0.2623 -0.1381
33897W        W76835   6.495  31.065  23.984 -0.1436  0.0021  0.1766
33898W        W76836   5.667  30.009  23.104  0.0963  0.0302  0.1894
33899W        W76837   4.313  29.516  23.740  0.1179 -0.2501 -0.0135
33900W        W76838   5.538  32.710  21.110 -0.1650  0.1689 -0.0819
33901W        W76839   7.245  30.641  21.358  0.0530 -0.1388  0.0241
33902W        W76840   4.985  31.353  23.375 -0.3547  0.0130 -0.3346
33903W        W76841   2.570  30.376  22.247 -0.6633 -0.0873  0.1522
33904W        W76842   5.666  31.482  23.614 -0.1480 -0.1372 -0.0365
33905W        W76843   5.594  30.408  21.730  0.3625 -0.1473  0.3268
33906W        W76844   4.259  29.769  20.402 -0.0704 -0.1852  0.2092
33907W        W76845   4.424  30.996  21.134  0.1354  0.4174  0.1704
33908W        W76846   3.725  30.014  25.770  0.3827  0.0846  0.2095
33909W        W76847   5.276  29.641  22.197 -0.0268 -0.1343  0.0731
33910W        W76848   3.134  31.908  20.697  0.0862 -0.2390  0.2057
33911W        W76849   5.980  31.793  21.085 -0.0265  0.0900  0.0679
33912W        W76850   6.465  30.613  19.343  0.0015 -0.1264 -0.0742
33913W        W76851   5.988  33.396  22.679  0.2124  0.3041  0.0123
33914W        W76852   4.610  30.204  22.272  0.0899  0.0240 -0.0731
33915W        W76853   4.165  31.592  21.699  0.3747  0.0354  0.1896
33916W        W76854   3.579  30.902  19.790  0.1002 -0.2607 -0.3949
33917W        W76855   6.891  32.543  20.046  0.2059 -0.2313 -0.0387
33918W        W76856   5.201  32.438  20.401  0.1791 -0.0758 -0.4692
33919W        W76857   6.326  31.515  23.879  0.0326 -0.3083 -0.2211
33920W        W76858   7.663  30.623  20.174 -0.2059  0.1844  0.0176
33921W        W76859   5.818  30.704  22.104  0.0577 -0.0968 -0.0242
33922W        W76860   8.726  31.555  19.978  0.0602 -0.0932  0.2363
33923W        W76861   6.445  32.035  23.848  0.0470 -0.1168  0.2647
33924W        W76862   4.910  29.314  22.422 -0.0900  0.0757  0.2302
33925W        W76863   4.997  28.823  21.257 -0.1098  0.1137  0.0051
33926W        W76864   4.947  30.491  22.685  0.2314  0.1897 -0.0703
33927W        W76865   6.635  30.394  24.723 -0.0082 -0.0432  0.2565
33928W        W76866   3.555  32.686  22.979  0.1691 -0.0965  0.1533
33929W        W76867   6.157  31.452  20.623 -0.1757  0.2588 -0.0324
33930W        W76868   3.381  29.711  20.477 -0.0808  0.1293  0.0441
33931W        W76869   4.259  30.708  21.564 -0.1949 -0.1620 -0.5072
33932W        W76870   7.178  29.399  23.146 -0.0022  0.2486 -0.0007
33933W        W76871   4.816  30.829  20.428 -0.0375  0.1132 -0.0888
33934W        W76872   6.334  30.997  20.744  0.2896  0.1843  0.0821
33935W        W76873   5.267  31.868  21.871 -0.1287 -0.2604  0.1628
33936W        W76874   4.162  32.991  21.823 -0.0589  0.1664  0.1604
33937W        W76875   4.807  33.015  22.485 -0.1552 -0.2472  0.0808
33938W        W76876   3.367  29.262  20.323  0.2528 -0.1116 -0.0651
33939W        W76877   7.400  29.259  21.372  0.0293  0.3513 -0.1355
33940W        W76878   4.719  30.334  24.144  0.0272  0.0565 -0.2465
33941W        W76879   7.809  30.825  23.760 -0.0224  0.1821 -0.1021
33942W        W76880   4.143  29.198  22.373  0.0445 -0.0276 -0.4116
33943W        W76881   7.505  30.224  20.740 -0.2027 -0.0769 -0.3165
33944W        W76882   5.514  31.627  24.071 -0.0999  0.2287 -0.1360
33945W        W76883   3.821  29.496  23.100 -0.2274  0.0585  0.0974
33946W        W76884   6.409  29.914  20.421  0.2347 -0.3209  0.1757
33947W        W76885   6.751  29.901  22.419  0.0789 -0.1367 -0.2749
33948W        W76886   6.467  30.861  19.791 -0.2532  0.0396 -0.1349
33949W        W76887   6.761  32.234  23.511  0.1658  0.2223 -0.2442
33950W        W76888   3.687  29.838  21.114 -0.1738 -0.3451 -0.0259
33951W        W76889   6.892  30.067  20.367  0.1728 -0.0983  0.3919
33952W        W76890   4.258  29.886  21.871  0.0940 -0.0074  0.3449
33953W        W76891   4.831  30.266  23.210 -0.2419  0.0201 -0.0630
33954W        W76892   5.243  31.761  23.523 -0.1573  0.1425 -0.0618
33955W        W76893   4.573  28.716  22.290 -0.1056 -0.1216  0.0113
33956W        W76894   4.788  31.729  20.514 -0.2923 -0.1413 -0.0762
33957W        W76895   6.650  29.445  21.673 -0.1285 -0.0047 -0.2824
33958W        W76896   4.460  31.406  19.325  0.0040  0.1297 -0.0698
33959W        W76897   5.003  30.817  21.602 -0.0568  0.1328 -0.2516
33960W        W76898   7.076  32.430  22.899 -0.0651 -0.0572  0.0680
33961W        W76899   3.345  28.773  22.997 -0.3067  0.3047 -0.2443
33962W        W76900   6.041  32.875  21.342  0.1239 -0.3078 -0.1728
33963W        W76901   5.402  30.943  23.616 -0.1272  0.1263 -0.0326
33964W        W76902   5.651  29.187  22.054 -0.0281 -0.3054  0.0696
33965W        W76903   3.763  30.179  22.801 -0.3523  0.1881 -0.1874
33966W        W76904   3.232  31.003  21.050  0.1459 -0.2812 -0.0172
33967W        W76905   7.155  29.963  21.002  0.2501  0.0707  0.2273
33968W        W76906   7.106  29.636  21.531 -0.0170  0.2172  0.0308
33969W        W76907   5.228  31.517  19.731 -0.2300  0.1301  0.3268
33970W        W76908   6.447  28.431  23.210  0.4073 -0.4477  0.0831
33971W        W76909   5.456  30.906  23.085  0.3559 -0.0975  0.0368
33972W        W76910   4.295  33.267  23.593 -0.0427 -0.1691  0.3201
33973W        W76911   4.438  31.152  20.300  0.2394 -0.2717  0.1484
33974W        W76912   5.254  32.952  22.765 -0.1648 -0.3038 -0.0483
33975W        W76913   5.637  31.607  22.350 -0.0202  0.1066  0.2461
33976W        W76914   4.835  32.162  20.759  0.0515 -0.0679  0.1183
33977W        W76915   7.005  30.434  21.930  0.0399 -0.0441 -0.2306
33978W        W76916   5.957  29.958  22.620  0.0505  0.4311  0.1072
33979W        W76917   7.202  31.363  22.183  0.1493  0.2056  0.1697
33980W        W76918   6.396  28.112  22.170 -0.1977  0.2119 -0.0169
33981W        W76919   7.778  29.276  20.973  0.0669  0.0958 -0.1956
33982W        W76920   7.488  28.462  21.305 -0.2066  0.2370 -0.3871
33983W        W76921   4.876  32.007  22.747  0.0142 -0.0174 -0.0529
33984W        W76922   4.118  31.185  21.471  0.0921  0.0401  0.0047
33985W        W76923   3.282  31.460  20.774 -0.1278  0.4231 -0.1876
33986W        W76924   4.065  30.881  22.478 -0.2078  0.0567 -0.2423
33987W        W76925   6.935  28.993  23.375 -0.1295  0.0115 -0.0561
33988W        W76926   3.926  29.948  23.230 -0.2302  0.0481 -0.0312
33989W        W76927   1.709  30.143  22.183  0.2436 -0.1749 -0.0092
33990W        W76928   4.380  29.462  21.594 -0.1760 -0.1227  0.1388
33991W        W76929   6.453  31.381  21.041 -0.1294 -0.2431 -0.0668
33992W        W76930   4.507  29.051  23.704  0.1244  0.1071  0.2307
33993W        W76931   3.948  28.817  21.128 -0.1474  0.1010 -0.0451
33994W        W76932   5.854  31.067  21.055  0.0487 -0.0266 -0.2982
33995W        W76933   5.620  32.385  21.953 -0.0957 -0.1728  0.1553
33996W        W76934   4.108  29.321  20.243 -0.0313 -0.1257  0.0837
33997W        W76935   7.019  30.983  22.551  0.0544  0.2472 -0.0478
33998W        W76936   2.379  29.073  20.059 -0.0431 -0.1521 -0.2130
33999W        W76937   6.599  30.124  24.155 -0.0495 -0.1306 -0.0168
34000W        W76938   4.133  29.174  23.432  0.0145  0.0215  0.2900
34001W        W76939   3.811  29.995  20.520 -0.0976  0.1521  0.1293
34002W        W76940   5.767  30.521  21.247  0.0403 -0.3014  0.2152
34003W        W76941   6.787  31.005  22.142  0.1372 -0.6520  0.2531
34004W        W76942   6.383  31.503  19.158 -0.1784 -0.0156  0.0337
34005W        W76943   5.407  30.441  23.351  0.0348 -0.1969  0.1037
34006W        W76944   4.945  33.455  22.347 -0.2531 -0.1656 -0.1207
34007W        W76945   3.002  27.532  22.421 -0.0669  0.0647  0.3840
34008W        W76946   5.442  30.846  20.935 -0.0354 -0.2494 -0.2515
34009W        W76947   5.226  32.040  23.080  0.0866  0.0153 -0.0545
34010W        W76948   5.587  31.448  20.781  0.1978 -0.1485  0.1527
34011W        W76949   8.360  30.217  21.940 -0.1578  0.4054  0.3566
34012W        W76950   4.834  29.826  20.554  0.0065 -0.1198  0.1077
34013W        W76951   4.133  28.547  23.478 -0.0301 -0.0146  0.2052
34014W        W76952   4.403  32.126  22.876 -0.0169 -0.2939 -0.1951
34015W        W76953   6.392  30.114  23.672 -0.1043  0.1271 -0.2692
34016W        W76954   4.000  29.395  21.884  0.1800 -0.1642  0.3284
34017W        W76955   5.828  30.183  20.850 -0.2651 -0.1279  0.0016
34018W        W76956   6.612  30.878  21.576  0.1512  0.0847 -0.2378
34019W        W76957   2.867  29.412  22.044 -0.3221  0.0421 -0.0916
34020W        W76958   4.739  29.102  21.604  0.0848  0.2729 -0.2929
34021W        W76959   3.813  28.631  21.701 -0.1044 -0.1840  0.0187
34022W        W76960   8.220  30.685  22.195 -0.0703 -0.1343  0.1583
34023W        W76961   6.441  29.391  24.277  0.0467  0.1231 -0.0449
34024W        W76962   6.762  30.831  21.003  0.1063  0.4979 -0.0609
34025W        W76963   6.776  31.581  19.680 -0.1012  0.2926 -0.1128
34026W        W76964   5.835  32.078  22.234  0.1312 -0.0729 -0.0687
34027W        W76965   5.467  32.050  23.858 -0.1891  0.3213 -0.0425
34028W        W76966   6.842  32.190  21.534  0.1698 -0.0998  0.2778
34029W        W76967   6.393  30.606  22.058 -0.2235 -0.0629  0.0467
34030W        W76968   5.130  28.331  22.333  0.0713  0.2645  0.0678
34031W        W76969   3.631  29.020  20.779 -0.2657  0.2850  0.2860
34032W        W76970   4.892  30.141  21.028  0.0570 -0.3071 -0.1887
34033W        W76971   6.038  31.138  21.985  0.1963 -0.5679  0.2682
34034W        W76972   4.419  28.536  21.693 -0.2371 -0.0523  0.0258
34035W        W76973   5.634  29.183  20.528  0.0382  0.1073 -0.1760
34036W        W76974   6.483  32.375  22.933 -0.2180 -0.2430 -0.3760
34037W        W76975   3.984  29.761  21.484 -0.0019  0.0234  0.3443
34038W        W76976   5.112  32.817  25.460 -0.0485  0.1612  0.1449
34039W        W76977   3.771  27.485  24.163  0.1865  0.2042 -0.1026
34040W        W76978   5.895  31.067  25.265  0.4154  0.2437  0.2549
34041W        W76979   5.590  30.923  24.121  0.0898 -0.0721 -0.2349
34042W        W76980   3.421  27.629  26.248  0.0754  0.0214 -0.1918
34043W        W76981   6.993  31.321  24.396  0.0492 -0.0933  0.1778
34044W        W76982   3.311  28.054  28.019 -0.1409  0.1024  0.1796
34045W        W76983   5.947  31.956  25.675  0.1017  0.0437  0.1617
34046W        W76984   5.494  32.462  26.323 -0.1428 -0.2922  0.1232
34047W        W76985   5.712  32.034  23.201  0.0278  0.1899 -0.2306
34048W        W76986   4.293  29.937  26.945 -0.0255  0.0725 -0.3090
34049W        W76987   4.604  32.151  26.195  0.1238  0.0982 -0.2122
34050W        W76988   5.065  28.736  24.489 -0.0287 -0.0519 -0.3811
34051W        W76989   4.590  28.003  26.575 -0.0551  0.2190  0.1147
34052W        W76990   6.631  30.244  27.396 -0.1192  0.2368 -0.2547
34053W        W76991   3.728  30.935  23.664 -0.0663 -0.2529 -0.0467
34054W        W76992   3.679  30.194  26.228 -0.1339 -0.1354  0.0150
34055W        W76993   5.395  29.099  24.193  0.1002 -0.0839 -0.0056
34056W        W76994   4.530  32.676  24.073 -0.1831 -0.1972  0.2176
34057W        W76995   4.468  28.490  26.701  0.1652  0.1662  0.2493
34058W        W76996   5.019  28.324  26.703 -0.0427  0.6855  0.0573
34059W        W76997   6.208  32.842  22.650 -0.1565 -0.2310  0.1375
34060W        W76998   4.287  30.292  23.256  0.0576 -0.0015 -0.0996
34061W        W76999   4.240  29.769  25.623  0.4196 -0.2720  0.4268
34062W        W77000   4.796  31.119  27.375  0.1679 -0.0250 -0.1331
34063W        W77001   5.875  30.341  26.620  0.0814 -0.1209  0.1879
34064W        W77002   5.131  31.522  26.366 -0.2203 -0.0940  0.5026
34065W        W77003   5.058  33.181  24.638  0.1152  0.0843  0.1094
34066W        W77004   5.866  32.978  24.051 -0.0731 -0.0464  0.2169
34067W        W77005   6.296  31.183  27.597  0.1440 -0.1923  0.1486
34068W        W77006   2.960  31.587  25.963  0.0975  0.1321  0.0748
34069W        W77007   4.984  32.271  24.729 -0.1674  0.4342  0.1085
34070W        W77008   4.944  32.105  23.837 -0.0672 -0.0688 -0.1333
34071W        W77009   7.703  30.753  24.799 -0.0613  0.3465  0.2838
34072W        W77010   6.355  31.921  26.664 -0.3359 -0.4081  0.0032
34073W        W77011   5.788  31.991  27.361 -0.1577  0.0651  0.2234
34074W        W77012   3.572  31.300  23.999  0.2875  0.0324 -0.1925
34075W        W77013   5.365  33.019  26.396  0.2044  0.2254 -0.2955
34076W        W77014   4.944  31.487  26.819  0.0334 -0.1522 -0.0992
34077W        W77015   5.742  30.587  26.161 -0.1651  0.1310  0.2621
34078W        W77016   5.491  31.386  24.462  0.1617 -0.1010  0.2041
34079W        W77017   4.718  33.074  23.742 -0.0032  0.1307  0.0533
34080W        W77018   5.589  31.970  25.357  0.1803  0.1635 -0.0765
34081W        W77019   5.549  32.107  25.951  0.1405 -0.0470  0.0407
34082W        W77020   4.563  31.804  26.670 -0.0174 -0.0869  0.3181
34083W        W77021   6.001  30.146  26.147 -0.1058  0.0045 -0.3663
34084W        W77022   4.502  31.953  23.854  0.3943 -0.0593  0.1912
34085W        W77023   6.127  29.725  24.494  0.0823  0.1644  0.0442
34086W        W77024   4.859  29.720  23.051 -0.1848 -0.2075 -0.0913
34087W        W77025   5.196  30.007  22.857  0.0261  0.0764 -0.1539
34088W        W77026   5.062  29.145  26.218  0.0450 -0.1763  0.0734
34089W        W77027   5.816  32.586  24.455 -0.2840  0.0670  0.3486
34090W        W77028   3.915  28.702  25.526 -0.0545  0.1228 -0.0175
34091W        W77029   6.298  31.626  27.423 -0.0382  0.1642  0.1752
34092W        W77030   5.733  30.588  25.276 -0.1702  0.0293 -0.1060
34093W        W77031   5.148  29.372  25.748 -0.0584 -0.2104 -0.1381
34094W        W77032   3.828  31.207  25.821  0.0084  0.0080 -0.0258
34095W        W77033   5.383  29.107  26.596 -0.1247 -0.0521  0.0156
34096W        W77034   5.904  31.613  22.903  0.0898  0.1518 -0.2533
34097W        W77035   8.079  30.894  25.199 -0.0569 -0.0396 -0.0841
34098W        W77036   4.773  32.072  22.182  0.0718 -0.2859 -0.1004
34099W        W77037   4.118  29.056  25.911  0.2083  0.1321  0.1471
34100W        W77038   5.062  32.102  25.259 -0.1910  0.2731  0.3863
34101W        W77039   2.995  29.717  25.479  0.2105 -0.4222 -0.0106
34102W        W77040   6.080  28.381  24.721 -0.0344  0.0665  0.0076
34103W        W77041   7.044  30.570  27.301 -0.0562  0.3089  0.2925
34104W        W77042   2.978  32.331  27.447  0.0715  0.1318  0.2011
34105W        W77043   6.928  30.832  25.311  0.3241 -0.0908 -0.0939
34106W        W77044   4.723  31.138  26.178 -0.0139  0.0836 -0.0913
34107W        W77045   6.804  31.757  26.448  0.1309 -0.0347 -0.3726
34108W        W77046   4.845  31.075  25.562 -0.3835  0.1816 -0.0453
34109W        W77047   6.719  29.353  25.160 -0.0604 -0.1772 -0.0738
34110W        W77048   6.799  29.737  26.312  0.0828 -0.2640 -0.1778
34111W        W77049   4.272  31.391  24.260 -0.4316  0.2052  0.0351
34112W        W77050   4.402  29.630  26.153  0.0612 -0.0350 -0.0346
34113W        W77051   7.524  30.399  27.236 -0.0679 -0.0304  0.2396
34114W        W77052   7.073  30.847  24.128  0.1021  0.2528 -0.3531
34115W        W77053   3.558  31.858  27.203  0.3368  0.0910 -0.0930
34116W        W77054   3.864  31.341  27.330  0.1748  0.2155 -0.0945
34117W        W77055   5.475  31.492  26.720 -0.0606  0.0659 -0.0878
34118W        W77056   4.772  31.856  23.213  0.0578  0.2669 -0.1900
34119W        W77057   2.871  32.424  26.286 -0.2906  0.0868 -0.0575
34120W        W77058   3.677  31.193  23.147  0.2354 -0.0186 -0.1582
34121W        W77059   3.931  29.552  25.966 -0.1027 -0.0684  0.1984
34122W        W77060   4.497  33.104  24.674  0.1073  0.3982  0.2117
34123W        W77061   5.872  30.218  24.787 -0.0922  0.0812 -0.0557
34124W        W77062   4.518  29.010  26.997 -0.0485  0.2545 -0.0201
34125W        W77063   6.369  28.757  26.571 -0.2740 -0.0489 -0.0717
34126W        W77064   3.272  31.904  23.387  0.1141  0.0294  0.1593
34127W        W77065   5.854  31.755  24.832  0.1531  0.2325 -0.0782
34128W        W77066   7.995  29.690  24.606  0.4639  0.1510  0.1230
34129W        W77067   5.668  32.488  22.496 -0.0354 -0.2961 -0.0330
34130W        W77068   3.309  30.375  25.821 -0.1140 -0.0027 -0.1310
34131W        W77069   3.902  28.286  24.826  0.0834  0.0343 -0.1213
34132W        W77070   4.470  28.519  27.244 -0.1747 -0.0752  0.1954
34133W        W77071   3.436  28.898  25.416 -0.1255  0.2988  0.0156
34134W        W77072   6.653  30.616  28.053 -0.2321  0.0107 -0.0754
34135W        W77073   3.371  28.974  24.323  0.1863  0.0241  0.1655
34136W        W77074   5.958  31.283  24.247 -0.1672 -0.0002 -0.2002
34137W        W77075   4.449  31.825  24.361 -0.1259  0.0377 -0.1298
34138W        W77076   3.646  30.190  24.977 -0.1908  0.1822 -0.1248
34139W        W77077   6.722  28.966  25.502 -0.1884  0.1988 -0.0974
34140W        W77078   4.987  32.592  23.632  0.2841  0.0936 -0.0953
34141W        W77079   7.073  31.505  27.089  0.0522 -0.2385 -0.0934
34142W        W77080   6.880  31.619  25.529 -0.2074  0.0143 -0.0996
34143W        W77081   2.977  30.002  26.751 -0.2099  0.0177  0.0833
34144W        W77082   3.831  29.621  23.660 -0.0761 -0.1569  0.1465
34145W        W77083   4.292  33.227  24.108  0.0925 -0.0661  0.3698
34146W        W77084   4.349  30.799  25.887 -0.1843 -0.1196  0.2044
34147W        W77085   4.708  30.330  24.997  0.0594  0.0950  0.2102
34148W        W77086   7.864  32.667  25.384  0.1929  0.4673 -0.1926
34149W        W77087   4.790  28.885  24.927  0.0805  0.2920  0.1119
34150W        W77088   5.637  31.053  26.841  0.0538 -0.0185 -0.1951
34151W        W77089   6.204  29.912  26.901  0.1622 -0.5583  0.2977
34152W        W77090   6.271  30.511  26.885  0.0517 -0.1333  0.1578
34153W        W77091   5.572  31.121  26.371 -0.1825 -0.1256  0.1546
34154W        W77092   4.884  29.843  25.070 -0.3034 -0.1012 -0.5054
34155W        W77093   5.900  32.653  24.977  0.0308 -0.0583 -0.0009
34156W        W77094   4.783  32.266  24.274 -0.0880 -0.0785 -0.2450
34157W        W77095   4.117  30.502  23.984 -0.1876  0.0368  0.2855
34158W        W77096   4.109  31.995  25.172  0.2387  0.1684  0.1418
34159W        W77097   6.383  28.825  25.053 -0.2324 -0.0161  0.2303
34160W        W77098   3.094  30.868  27.219  0.1493  0.0847 -0.0971
34161W        W77099   5.391  29.520  26.394 -0.0074  0.3508  0.0837
34162W        W77100   3.500  30.169  24.505 -0.1048  0.0715  0.2665
34163W        W77101   4.217  31.250  28.554  0.2189 -0.3587 -0.1579
34164W        W77102   6.542  28.309  25.200  0.3622 -0.1199  0.0885
34165W        W77103   6.881  29.623  24.381 -0.2598 -0.1485 -0.1000
34166W        W77104   6.293  29.510  26.398 -0.0649 -0.0842  0.0834
34167W        W77105   6.432  31.275  25.547 -0.1244 -0.0476  0.1856
34168W        W77106   4.362  29.617  23.171  0.3073  0.0929  0.2431
34169W        W77107   5.346  29.621  24.974 -0.2731 -0.0954  0.2317
34170W        W77108   3.852  32.242  27.477 -0.3537  0.3795 -0.1421
34171W        W77109   6.132  31.561  26.165 -0.2204  0.1570  0.2289
34172W        W77110   5.369  32.518  25.119  0.3048  0.1721 -0.2653
34173W        W77111   5.505  29.732  22.595 -0.2056 -0.4102 -0.1583
34174W        W77112   7.450  31.952  25.678 -0.1815 -0.1843 -0.0392
34175W        W77113   4.915  31.555  25.804 -0.2946  0.3551 -0.1643
34176W        W77114   4.886  31.688  27.502  0.3071  0.2192 -0.1643
34177W        W77115   5.619  32.920  25.547  0.1231  0.2393  0.2648
34178W        W77116   4.900  28.747  27.029  0.2259  0.1186 -0.0201
34179W        W77117   5.596  30.255  22.677  0.0985 -0.1415 -0.0405
34180W        W77118   5.905  28.648  25.116  0.0841 -0.0394 -0.2077
34181W        W77119   3.431  31.853  24.582 -0.1436  0.0303 -0.4189
34182W        W77120   6.194  29.127  25.509 -0.0638 -0.0205 -0.1866
34183W        W77121   4.884  29.604  26.300 -0.1229 -0.0029  0.0048
34184W        W77122   6.623  29.341  25.828 -0.0383  0.0640 -0.1242
34185W        W77123   5.874  30.694  27.104  0.0934 -0.0098 -0.1514
34186W        W77124   5.357  31.130  25.415 -0.1110  0.0614 -0.0084
34187W        W77125   5.834  31.380  25.746  0.0288 -0.0228 -0.3153
34188W        W77126   5.149  30.218  22.266 -0.0436 -0.0798  0.1112
34189W        W77127   5.176  29.947  27.149 -0.0142  0.1325  0.1929
34190W        W77128   5.673  30.473  27.571  0.4655 -0.0400 -0.0629
34191W        W77129   3.473  31.369  27.017 -0.1912 -0.4578  0.1220
34192W        W77130   6.541  32.610  27.276  0.1595 -0.0741  0.1751
34193W        W77131   5.476  30.773  25.762 -0.3788  0.0343  0.0107
34194W        W77132   5.577  29.505  26.957 -0.1955 -0.1057 -0.1004
34195W        W77133   5.157  30.662  25.430  0.4299 -0.1936  0.0799
34196W        W77134   4.112  33.862  24.062 -0.0725 -0.1380 -0.0320
34197W        W77135   4.503  29.996  25.301 -0.1045  0.0870  0.1886
34198W        W77136   4.328  29.995  24.219 -0.2208 -0.0103  0.2535
34199W        W77137   5.986  31.373  26.634  0.1330 -0.2993 -0.2512
34200W        W77138   3.875  32.585  24.116  0.2756  0.1379  0.1565
34201W        W77139   6.383  30.182  26.486  0.3100 -0.0393 -0.4037
34202W        W77140   4.982  31.328  24.760 -0.2018 -0.1942 -0.1319
34203W        W77141   7.007  28.559  25.299 -0.0986 -0.4285 -0.3739
34204W        W77142   3.552  32.715  26.903 -0.3169  0.1519 -0.0875
34205W        W77143   4.712  30.790  24.549  0.0789 -0.5248 -0.0281
34206W        W77144   3.859  29.164  24.518  0.2568  0.0465 -0.1098
34207W        W77145   5.880  28.022  24.448  0.0762 -0.0596  0.0429
34208W        W77146   7.358  30.889  25.153  0.0255  0.1984  0.0017
34209W        W77147   4.127  27.952  26.666 -0.2627  0.1666  0.0640
34210W        W77148   5.681  28.942  25.579  0.2124  0.0706  0.2056
34211W        W77149   3.868  32.008  24.526  0.1437 -0.0217  0.0294
34212W        W77150   5.597  30.092  25.424 -0.2444  0.2824  0.1817
34213W        W77151   6.667  28.348  24.724 -0.5154  0.0964  0.2849
34214W        W77152   6.152  30.732  27.494 -0.0707  0.0795 -0.4726
34215W        W77153   5.189  30.279  27.539  0.0512 -0.2522 -0.1656
34216W        W77154   4.200  31.188  23.845  0.0384  0.3551 -0.2979
34217W        W77155   6.140  29.167  27.298  0.3829 -0.1966 -0.0846
34218W        W77156   4.114  30.006  26.100 -0.0753  0.0877 -0.2220
34219W        W77157   4.463  32.205  24.721 -0.0862  0.0211  0.1299
34220W        W77158   5.341  31.742  27.213 -0.0974 -0.0245 -0.0408
34221W        W77159   4.168  30.339  25.074  0.0184  0.0796 -0.0165
34222W        W77160   4.228  31.265  26.169  0.0330  0.0081 -0.0462
34223W        W77161   4.406  31.479  27.547  0.0640 -0.1519 -0.1296
34224W        W77162   5.524  29.782  27.470  0.2937  0.1701  0.0302
34225W        W77163   5.729  29.723  26.115  0.1749  0.1005  0.2534
34226W        W77164   3.742  28.661  25.073 -0.0755  0.0251 -0.1178
34227W        W77165   5.042  29.796  25.529  0.1913  0.1284  0.1352
34228W        W77166   6.062  31.088  26.207 -0.1307 -0.2775  0.1626
34229W        W77167   6.465  28.870  25.928 -0.1200 -0.0381  0.0288
34230W        W77168   4.796  32.138  27.256 -0.0810  0.0627 -0.0410
34231W        W77169   4.086  28.999  24.904 -0.6192 -0.0039 -0.0124
34232W        W77170   8.396  31.565  24.693  0.2204 -0.0791 -0.1268
34233W        W77171   6.657  30.814  27.622 -0.0324  0.2433 -0.2801
34234W        W77172   5.158  31.329  23.852  0.2248 -0.1072 -0.1880
34235W        W77173   3.394  30.017  25.406  0.1803 -0.1376 -0.1297
34236W        W77174   5.806  32.441  25.472 -0.1220  0.0303  0.0989
34237W        W77175   5.213  29.175  27.131 -0.0930  0.2034 -0.0004
34238W        W77176   4.887  33.098  25.088  0.1723  0.1348 -0.1219
34239W        W77177   4.738  31.497  23.974 -0.0420 -0.1795  0.2243
34240W        W77178   3.817  32.227  26.960 -0.0367  0.2280 -0.2264
34241W        W77179   6.617  29.219  24.727  0.0855  0.1380  0.0100
34242W        W77180   5.948  32.330  23.986 -0.1534 -0.1840  0.3964
34243W        W77181   5.352  28.727  25.212 -0.0074 -0.2849  0.0666
34244W        W77182   6.387  31.829  25.625 -0.1761  0.1653 -0.1228
34245W        W77183   6.098  30.800  24.189 -0.1147 -0.1537  0.0741
34246W        W77184   5.775  27.871  26.133 -0.0323  0.0916 -0.0458
34247W        W77185   5.608  29.259  25.987  0.3788  0.2771 -0.2534
34248W        W77186   6.682  31.514  25.944 -0.0068  0.1543 -0.0844
34249W        W77187   3.556  29.690  26.303  0.0308 -0.1854  0.0988
34250W        W77188   6.136  32.406  27.517 -0.2294 -0.0084 -0.2684
34251W        W77189   3.216  31.907  27.573  0.1787  0.0239  0.0306
34252W        W77190   5.133  30.200  25.257  0.1031  0.2049  0.1116
34253W        W77191   5.936  29.399  24.166 -0.0905  0.2284  0.4083
34254W        W77192   4.813  30.094  27.937 -0.1738 -0.0154  0.1619
34255W        W77193   6.475  31.987  26.149 -0.0400  0.2219 -0.3366
34256W        W77194   4.998  30.236  23.682 -0.2850  0.0764 -0.1113
34257W        W77195   6.159  32.160  25.258 -0.0744 -0.0291  0.0381
34258W        W77196   4.852  30.584  26.652  0.1848  0.0799  0.3927
34259W        W77197   6.581  29.890  24.651  0.0601 -0.0098 -0.0179
34260W        W77198   5.975  31.091  23.760 -0.1112  0.0246 -0.1908
34261W        W77199   3.543  30.959  26.792 -0.0138  0.0553  0.0064
34262W        W77200   6.369  29.798  27.513 -0.2510  0.0306 -0.1391
34263W        W77201   5.440  30.269  25.858 -0.0552  0.2507  0.3300
34264W        W77202   5.258  30.007  24.094  0.0736 -0.0060  0.0396
34265W        W77203   4.620  29.389  25.701 -0.0938  0.0149 -0.0718
34266W        W77204   7.051  31.046  27.421  0.1283 -0.0096  0.1990
34267W        W77205   5.213  29.818  25.979  0.2421  0.0362  0.2483
34268W        W77206   4.138  29.624  27.352  0.1167  0.0219  0.1100
34269W        W77207   5.966  32.730  25.894 -0.0403  0.1846  0.3046
34270W        W77208   6.262  30.253  23.209 -0.3951 -0.1166  0.0940
34271W        W77209   7.045  28.705  27.222  0.2519  0.3644  0.1346
34272W        W77210   5.832  29.793  25.089  0.3928 -0.0286 -0.0300
34273W        W77211   5.309  30.571  24.925 -0.1917  0.0182 -0.1427
34274W        W77212   4.872  30.599  27.233 -0.1160 -0.0284  0.0882
34275W        W77213   7.271  31.035  27.887 -0.1037  0.0910 -0.0010
34276W        W77214   3.848  29.272  25.261 -0.4447  0.1724 -0.2654
34277W        W77215   4.812  30.119  26.857  0.0385 -0.0792  0.3413
34278W        W77216   5.401  32.791  23.285  0.2829 -0.0124 -0.0579
34279W        W77217   4.925  30.870  25.065  0.4507 -0.0324 -0.0995
34280W        W77218   5.527  29.568  25.432  0.2518  0.2559 -0.2157
34281W        W77219   2.642  30.591  25.514  0.0584  0.0585 -0.1625
34282W        W77220   4.514  31.608  27.110  0.0339 -0.0824  0.2055
34283W        W77221   4.583  30.639  23.021  0.0663  0.0182  0.0331
34284W        W77222   4.900  30.013  24.469  0.0213 -0.0368  0.2555
34285W        W77223   6.246  32.300  25.907  0.0904 -0.0239  0.0648
34286W        W77224   7.336  31.264  28.325  0.2167 -0.3098 -0.0788
34287W        W77225   4.895  29.425  24.693 -0.0627 -0.0855 -0.3109
34288W        W77226   5.487  29.434  27.873 -0.0688 -0.0194 -0.1161
34289W        W77227   4.048  31.214  25.133 -0.0879 -0.3966  0.1235
34290W        W77228   6.704  29.085  26.321  0.2623  0.2993  0.1534
34291W        W77229   4.781  32.705  24.565 -0.0243  0.1058  0.4828
34292W        W77230   3.390  30.476  26.739  0.0252  0.0534 -0.1386
34293W        W77231   4.579  32.823  25.496  0.1492  0.1664  0.1297
34294W        W77232   5.254  30.545  26.398  0.1066 -0.1514 -0.3264
34295W        W77233   5.901  30.389  25.706 -0.2640  0.0941  0.3005
34296W        W77234   5.200  30.884  27.470  0.0506  0.2097 -0.2521
34297W        W77235   8.401  30.624  27.662  0.0989  0.0087  0.1051
34298W        W77236   5.865  31.841  26.757  0.0228  0.0248 -0.2472
34299W        W77237   4.407  30.208  26.527 -0.0419 -0.2065  0.1969
34300W        W77238   5.446  31.940  26.523  0.0675  0.0008 -0.1069
34301W        W77239   8.456  30.367  26.195 -0.1070  0.1532 -0.0689
34302W        W77240   4.944  30.141  26.319 -0.2502  0.2364  0.2130
34303W        W77241   3.217  30.086  27.191 -0.0595  0.2365  0.0375
34304W        W77242   5.252  32.210  27.407  0.1197  0.0246 -0.0189
34305W        W77243   4.732  29.897  25.886 -0.3275 -0.3040 -0.0998
34306W        W77244   2.878  28.415  24.701 -0.1166 -0.1111  0.1107
34307W        W77245   5.221  32.736  22.254 -0.1391  0.0593 -0.3179
34308W        W77246   3.821  31.535  28.655 -0.5764 -0.2560  0.0322
34309W        W77247   4.769  31.008  26.917 -0.0009 -0.0466  0.1136
34310W        W77248   4.961  33.687  24.227 -0.0273 -0.1722  0.3290
34311W        W77249   4.539  31.489  22.981  0.0036 -0.1111 -0.0738
34312W        W77250   5.233  30.901  24.593 -0.4599  0.2101  0.1574
34313W        W77251   6.237  32.125  27.086 -0.1073  0.1314 -0.0514
34314W        W77252   3.923  29.841  25.265  0.0962  0.0414 -0.0168
34315W        W77253   4.427  32.722  24.997 -0.1054 -0.1362 -0.0358
34316W        W77254   3.218  31.401  24.458 -0.1653  0.2656 -0.4044
34317W        W77255   6.209  32.261  23.455  0.5385 -0.0644 -0.2883
34318W        W77256   4.510  31.716  25.323  0.2055  0.3382  0.1312
34319W        W77257   8.355  32.754  26.714 -0.1401 -0.0662  0.1424
34320W        W77258   7.600  27.526  25.058  0.1003 -0.0822 -0.4220
34321W        W77259   6.297  30.537  25.223 -0.1521 -0.0619  0.2045
34322W        W77260   7.240  30.322  25.266  0.2299 -0.1032  0.3921
34323W        W77261   5.077  32.490  26.951  0.0633 -0.0902  0.0280
34324W        W77262   3.820  29.356  26.579 -0.1375  0.2596 -0.0985
34325W        W77263   6.253  28.337  24.192  0.0455 -0.0421  0.1629
34326W        W77264   4.750  29.944  28.503 -0.1121  0.1686 -0.0899
34327W        W77265   5.868  29.815  26.569  0.0996  0.0273 -0.0387
34328W        W77266   2.658  32.943  27.589 -0.3336 -0.0111 -0.2262
34329W        W77267   6.459  32.147  24.303  0.3194  0.1624 -0.0809
34330W        W77268   4.115  30.085  23.700  0.2063 -0.1782 -0.1520
34331W        W77269   4.615  30.404  26.076  0.0585 -0.1418  0.1651
34332W        W77270   7.752  28.642  24.686 -0.1965  0.1615  0.1510
34333W        W77271   5.363  32.254  24.298 -0.0096 -0.2866 -0.0041
34334W        W77272   6.387  30.216  25.608 -0.0323  0.2299  0.0222
34335W        W77273   5.264  33.348  25.404  0.0266  0.0248  0.2067
34336W        W77274   4.539  31.250  25.213 -0.2226  0.0367 -0.0618
34337W        W77275   4.432  32.484  25.860 -0.0055  0.1023 -0.1780
34338W        W77276   3.829  31.657  24.189  0.0520 -0.0790 -0.0025
34339W        W77277   8.366  29.814  25.317  0.1016  0.1009 -0.0434
34340W        W77278   4.445  30.576  27.449 -0.1300  0.0689 -0.2192
34341W        W77279   5.855  28.593  25.949 -0.0300  0.2091 -0.0846
34342W        W77280   4.988  30.753  25.969  0.1140 -0.2708  0.0118
34343W        W77281   5.998  30.905  25.738 -0.2287 -0.0937 -0.0033
34344W        W77282   6.180  31.074  27.129  0.0938 -0.0265 -0.1240
34345W        W77283   3.817  29.259  27.313 -0.4048  0.0075 -0.2564
34346W        W77284   5.376  30.485  23.923 -0.1254 -0.0087  0.0762
34347W        W77285   6.666  29.392  26.726 -0.0821  0.0229 -0.1452
34348W        W77286   6.697  29.196  23.873 -0.0244 -0.0646 -0.0057
34349W        W77287   5.028  32.648  26.479 -0.1502  0.0435 -0.1716
34350W        W77288   4.398  29.013  25.469 -0.0797 -0.1203 -0.1933
34351W        W77289   5.829  29.708  23.782  0.0648 -0.2807 -0.1779
34352W        W77290   4.081  30.787  25.428  0.1072  0.2604  0.2965
34353W        W77291   5.163  31.075  26.613  0.0705  0.4479 -0.3215
34354W        W77292   5.505  32.189  26.985  0.1537 -0.0066 -0.0098
34355W        W77293   3.347  28.465  25.778  0.2881 -0.1674  0.1068
34356W        W77294   6.949  31.327  23.880  0.2085 -0.1168  0.0542
34357W        W77295   6.445  29.826  25.944 -0.0926  0.1163 -0.0691
34358W        W77296   4.091  32.495  23.165 -0.1220 -0.0905  0.0384
34359W        W77297   6.416  31.016  25.087  0.0644  0.0019 -0.4266
34360W        W77298   6.861  31.962  25.863  0.1131  0.1268  0.0159
34361W        W77299   2.604  30.182  26.270  0.0939  0.1888  0.0133
34362W        W77300   5.407  32.757  25.958 -0.3582  0.1294 -0.1405
34363W        W77301   7.750  31.922  26.651  0.2515  0.0807 -0.0198
34364W        W77302   5.866  28.903  24.085  0.1919  0.1075  0.0543
34365W        W77303   4.451  30.475  26.928  0.0523 -0.0201  0.0469
34366W        W77304   3.596  31.402  24.838 -0.0045 -0.2871 -0.1666
34367W        W77305   6.301  30.048  25.037  0.0073  0.2499  0.0321
34368W        W77306   5.501  30.077  26.340 -0.0049 -0.0021  0.0439
34369W        W77307   4.865  32.468  22.473 -0.1020  0.1053  0.1590
34370W        W77308   7.300  29.873  26.289 -0.1054  0.0500  0.1713
34371W        W77309   4.991  32.446  26.023  0.0758 -0.0782  0.0357
34372W        W77310   4.549  32.518  27.738 -0.0565  0.3456 -0.0178
34373W        W77311   4.451  31.243  24.686  0.0597 -0.0473 -0.0321
34374W        W77312   4.710  30.133  27.385  0.1678 -0.1765  0.2125
34375W        W77313   4.686  31.735  24.787 -0.1420  0.0272  0.0071
34376W        W77314   4.579  32.311  23.377 -0.0074 -0.1324  0.3456
34377W        W77315   7.228  30.675  26.830 -0.1123  0.2242 -0.2542
34378W        W77316   4.414  30.753  24.950  0.2139 -0.0605  0.3364
34379W        W77317   6.515  31.305  26.500 -0.0373  0.3305  0.3496
34380W        W77318   4.223  28.429  25.227 -0.0188  0.0596 -0.3549
34381W        W77319   7.082  29.984  24.671  0.1996 -0.3117 -0.0425
34382W        W77320   5.417  30.059  24.698  0.2734 -0.2783 -0.0123
34383W        W77321   6.544  30.778  25.627 -0.1489  0.0582 -0.0047
34384W        W77322   3.903  30.708  24.986  0.4834  0.0573 -0.0195
34385W        W77323   3.840  30.466  22.372  0.1375  0.2098  0.2188
34386W        W77324   3.090  31.005  24.886  0.0767 -0.2720  0.2399
34387W        W77325   6.469  28.258  27.807  0.0147 -0.1602  0.2750
34388W        W77326   3.185  31.703  26.733  0.1052 -0.0052 -0.0418
34389W        W77327   3.249  29.845  25.883  0.3593 -0.0760  0.3486
34390W        W77328   3.045  29.752  24.050  0.1283  0.1131 -0.0617
34391W        W77329   5.645  32.207  24.749  0.0144 -0.1760  0.2468
34392W        W77330   4.059  27.787  24.945  0.2505 -0.3618  0.1125
34393W        W77331   3.406  28.322  25.323 -0.0830  0.2151  0.0015
34394W        W77332   6.591  31.646  24.675  0.0489  0.0976  0.0077
34395W        W77333   7.459  32.844  25.153  0.0616 -0.0090  0.1628
34396W        W77334   4.408  29.508  25.178 -0.0034 -0.1972 -0.1725
34397W        W77335   6.663  32.569  27.852 -0.0751 -0.0276  0.3534
34398W        W77336   2.489  30.133  24.905  0.0942  0.5349 -0.0782
34399W        W77337   5.280  30.623  26.925  0.1404  0.0594 -0.0250
34400W        W77338   4.272  29.401  26.942  0.0030 -0.0092  0.0437
34401W        W77339   3.800  29.953  24.111  0.2673 -0.1949 -0.1519
34402W        W77340   5.282  31.198  25.941  0.4195 -0.1510 -0.0300
34403W        W77341   5.040  31.662  24.377 -0.1531  0.1009 -0.0792
34404W        W77342   7.710  32.219  24.634 -0.1884 -0.3186  0.0366
34405W        W77343   5.992  30.851  26.615 -0.4473  0.1642 -0.0169
34406W        W77344   5.420  33.072  25.020  0.1627 -0.0005  0.1252
34407W        W77345   3.957  29.431  27.817 -0.0144  0.3291  0.3328
34408W        W77346   5.403  31.582  25.605  0.1251 -0.3267 -0.0330
34409W        W77347   4.300  31.075  27.192 -0.0732 -0.1601  0.2051
34410W        W77348   8.007  30.604  26.386 -0.0775 -0.1288  0.1183
34411W        W77349   6.540  28.502  27.126  0.1555 -0.3271 -0.2589
34412W        W77350   4.887  30.316  25.694  0.0178 -0.1312  0.3321
34413W        W77351   3.764  28.917  26.417  0.4376 -0.0640  0.2607
34414W        W77352   4.819  31.166  27.898  0.1572 -0.0148  0.0899
34415W        W77353   5.612  30.534  24.417  0.1013  0.0588  0.2737
34416W        W77354   4.863  29.265  26.749 -0.0528 -0.1006  0.0438
34417W        W77355   5.718  29.950  24.298 -0.0730  0.1689  0.0950
34418W        W77356   5.339  31.768  24.877 -0.0571 -0.1529  0.0984
34419W        W77357   3.450  29.117  24.907 -0.1364  0.0600  0.1239
34420W        W77358   5.697  31.027  24.702 -0.1319  0.0903  0.0351
34421W        W77359   6.085  30.264  27.338 -0.1474  0.2456 -0.0238
34422W        W77360   6.171  32.196  24.716  0.1411  0.1275  0.1997
34423W        W77361   6.354  30.858  28.476 -0.3828  0.1638  0.0820
34424W        W77362   4.593  30.602  25.414 -0.0738  0.0148 -0.2198
34425W        W77363   8.644  29.424  25.143 -0.0066 -0.2862  0.0547
34426W        W77364   5.728  33.349  26.635  0.3044  0.0141 -0.1205
34427W        W77365   5.873  32.826  27.565  0.2697  0.1664 -0.2108
34428W        W77366   5.521  32.709  26.738  0.0549  0.0485 -0.1298
34429W        W77367   6.290  30.559  26.075 -0.0972  0.1677  0.2525
34430W        W77368   4.415  27.897  25.372 -0.0882 -0.4807 -0.2454
34431W        W77369   3.802  30.478  25.819 -0.0057  0.2743  0.2976
34432W        W77370   5.598  31.370  25.011 -0.0271  0.1550  0.0040
34433W        W77371   5.949  29.666  27.251  0.0157 -0.3273 -0.2267
34434W        W77372   3.964  29.861  26.594  0.1836 -0.1098 -0.1351
34435W        W77373   4.552  28.658  24.245  0.0706  0.0784  0.2969
34436W        W77374   5.027  31.968  26.863 -0.0612  0.3279 -0.1323
34437W        W77375   6.147  29.351  25.958 -0.2541 -0.0092 -0.0769
34438W        W77376   3.669  31.896  31.081 -0.0728 -0.1320 -0.2556
34439W        W77377   3.770  30.578  28.571 -0.0043 -0.3156 -0.1445
34440W        W77378   5.820  30.943  28.318  0.2363  0.3530  0.3270
34441W        W77379   7.772  30.294  29.649  0.0324  0.0843  0.0315
34442W        W77380   3.557  30.569  29.042 -0.1292  0.0579 -0.2651
34443W        W77381   6.095  31.034  30.031 -0.0148  0.0274  0.1108
34444W        W77382   5.269  28.668  31.101 -0.0807  0.0256 -0.0593
34445W        W77383   7.782  30.703  31.006  0.0613  0.1907 -0.1109
34446W        W77384   7.595  31.944  29.099  0.1064  0.1169  0.0174
34447W        W77385   7.123  30.547  28.258 -0.0068  0.0680  0.1656
34448W        W77386   4.809  29.117  29.517 -0.1334 -0.1266 -0.0966
34449W        W77387   5.112  32.250  30.262  0.1113 -0.0723 -0.0835
34450W        W77388   4.358  29.828  27.724  0.1073 -0.1023  0.4754
34451W        W77389   4.827  28.931  30.927  0.0363 -0.1368  0.0041
34452W        W77390   7.551  31.939   0.066 -0.0570  0.1129 -0.1775
34453W        W77391   3.977  31.807  28.254 -0.0959 -0.0143  0.1248
34454W        W77392   3.710  30.372  29.481 -0.0197 -0.0242 -0.0923
34455W        W77393   4.111  30.715  28.233  0.0434 -0.0521 -0.1649
34456W        W77394   6.080  30.831  31.095  0.0314  0.1126  0.0532
34457W        W77395   4.737  29.344  31.673 -0.1264  0.0566 -0.3702
34458W        W77396   6.113  27.663  30.887  0.0053  0.2910  0.0158
34459W        W77397   6.601  31.292  29.781 -0.0186 -0.0491 -0.0392
34460W        W77398   4.466  31.336  26.595  0.0848 -0.3032  0.0352
34461W        W77399   5.327  30.872  30.271  0.0253  0.1578  0.1339
34462W        W77400   4.553  30.371  30.380 -0.1650  0.2032 -0.5868
34463W        W77401   7.180  29.462  27.188 -0.0411 -0.0068  0.1986
34464W        W77402   8.462  30.804  29.239  0.0278  0.2276  0.1878
34465W        W77403   6.448  30.518  30.953 -0.0335  0.0714 -0.0429
34466W        W77404   6.367  30.630  30.457  0.2426  0.1524  0.0788
34467W        W77405   6.863  29.632   0.660  0.0982  0.3497  0.2652
34468W        W77406   3.285  32.159  30.187 -0.1010  0.1088  0.2571
34469W        W77407   3.889  31.592  29.661 -0.1081  0.1843 -0.2166
34470W        W77408   7.369  32.265  28.787 -0.0675  0.4697 -0.1824
34471W        W77409   6.380  30.812  29.048  0.1146  0.3536 -0.0958
34472W        W77410   5.663  32.529  31.156 -0.0975  0.2621 -0.0507
34473W        W77411   5.221  31.650  31.011  0.2714 -0.0969  0.0720
34474W        W77412   4.098  31.758  26.228 -0.0755  0.3007  0.2095
34475W        W77413   6.894  31.294  31.203 -0.1704 -0.1194  0.0745
34476W        W77414   4.695  32.316  30.556 -0.0537 -0.0299 -0.2115
34477W        W77415   4.699  31.596  31.096  0.0758  0.1653 -0.0085
34478W        W77416   5.043  30.545  28.887  0.2076  0.1153 -0.2155
34479W        W77417   4.255  31.695  28.926  0.2070 -0.0952  0.4940
34480W        W77418   7.449  30.442  30.680  0.1091  0.4893  0.2465
34481W        W77419   6.742  30.839  30.253 -0.0534  0.2475  0.1576
34482W        W77420   2.869  31.226  31.201 -0.0595  0.0132 -0.0976
34483W        W77421   7.535  29.873  29.571  0.0611  0.1908 -0.2333
34484W        W77422   4.409  31.763  28.481  0.1249  0.1585 -0.2612
34485W        W77423   5.273  31.397  27.600  0.2037  0.0924  0.1103
34486W        W77424   5.521  30.016  27.899  0.1467 -0.0240  0.0941
34487W        W77425   7.102  31.825  29.124 -0.0216  0.2054 -0.3076
34488W        W77426   3.788  28.077  29.050 -0.1801  0.0355  0.1001
34489W        W77427   3.867  32.865  29.959 -0.0668 -0.1012  0.1573
34490W        W77428   4.132  28.923  29.937 -0.0286 -0.2231 -0.0400
34491W        W77429   7.270  31.488  30.787  0.3785  0.0470 -0.1017
34492W        W77430   5.027  30.865  28.399 -0.0922 -0.2949  0.2265
34493W        W77431   6.373  29.875  30.063 -0.1679 -0.1794 -0.0798
34494W        W77432   4.161  32.761  30.359 -0.0903  0.1162 -0.2824
34495W        W77433   4.094  30.725  29.228 -0.1443 -0.1799  0.3345
34496W        W77434   6.542  31.123  28.071  0.0333  0.3811 -0.1490
34497W        W77435   5.653  32.441  28.710  0.0031 -0.3096  0.1870
34498W        W77436   4.897  32.140  27.815 -0.2471 -0.2848 -0.3565
34499W        W77437   5.223  30.058  28.817  0.1042 -0.1192  0.0470
34500W        W77438   3.749  32.394  30.380 -0.0026  0.1386  0.1919
34501W        W77439   4.612  30.378  30.922 -0.0244  0.4246 -0.1483
34502W        W77440   5.806  29.048  26.947 -0.0419 -0.0748 -0.1190
34503W        W77441   7.487  32.368  31.234  0.0195 -0.1240  0.1267
34504W        W77442   3.367  31.929  31.596 -0.1278 -0.2340 -0.1284
34505W        W77443   8.844  29.376  30.209 -0.0720 -0.2168  0.0451
34506W        W77444   4.949  31.064  28.859 -0.2529 -0.2288 -0.4496
34507W        W77445   6.405  30.359  31.768  0.3038  0.1299 -0.4069
34508W        W77446   5.823  30.764  29.675 -0.3045 -0.0935 -0.1285
34509W        W77447   6.090  30.469  30.012  0.0670  0.0341  0.3290
34510W        W77448   6.064  28.375  30.450  0.1873  0.2098  0.1351
34511W        W77449   3.937  30.372  26.703  0.3170 -0.1667  0.0382
34512W        W77450   5.433  30.506  28.492  0.3198 -0.1678  0.2581
34513W        W77451   7.749  32.745  30.606 -0.1087 -0.2182  0.0926
34514W        W77452   7.443  31.283  30.364  0.1917 -0.4243 -0.0056
34515W        W77453   5.124  32.557  31.019 -0.0278  0.2360  0.0924
34516W        W77454   4.847  29.511  31.110  0.1238 -0.2938  0.0006
34517W        W77455   5.480  30.639  30.658  0.2762 -0.3887  0.0277
34518W        W77456   4.561  31.762  27.983 -0.1632  0.3547  0.3267
34519W        W77457   3.756  31.361  28.189 -0.0617  0.2422 -0.0376
34520W        W77458   3.415  31.207  27.527  0.2449  0.4096  0.1246
34521W        W77459   3.973  29.151  31.085 -0.3766 -0.2504  0.1265
34522W        W77460   5.159  31.054  30.789 -0.0050 -0.2079 -0.1037
34523W        W77461   6.768  28.378  29.535  0.0087  0.0170  0.2825
34524W        W77462   4.555  29.522  30.469  0.0699  0.1403  0.3678
34525W        W77463   7.458  29.430  29.808  0.2272  0.1892 -0.0981
34526W        W77464   4.814  31.602  28.836  0.1281  0.0388 -0.1419
34527W        W77465   7.855  32.429  28.966 -0.1431 -0.3134  0.1949
34528W        W77466   7.229  30.350  29.727  0.2321  0.0708  0.0545
34529W        W77467   5.746  30.371  28.173 -0.1906 -0.1104  0.3932
34530W        W77468   3.790  28.775  30.824  0.1613  0.1681  0.1359
34531W        W77469   4.503  29.327  29.186  0.3287  0.2292 -0.1866
34532W        W77470   6.308  29.076  30.500 -0.0906  0.0400 -0.0577
34533W        W77471   3.922  29.728  28.776 -0.0011  0.0756 -0.2624
34534W        W77472   6.395  30.791  31.480 -0.0955  0.2825 -0.2150
34535W        W77473   4.484  28.973  28.120  0.1560  0.0800  0.3189
34536W        W77474   6.193  29.753  28.726  0.3927 -0.0428 -0.1616
34537W        W77475   6.922  29.613  29.042 -0.1095 -0.0098  0.1967
34538W        W77476   3.452  30.159  28.522 -0.2782 -0.0842  0.0212
34539W        W77477   7.641  29.555  30.335 -0.0061 -0.0101 -0.2361
34540W        W77478   6.396  32.178  28.148 -0.1407 -0.0627 -0.4082
34541W        W77479   7.478  33.233  30.741  0.1072 -0.1189 -0.0666
34542W        W77480   6.974  31.323  30.120  0.2675 -0.0342  0.1753
34543W        W77481   5.010  29.720  29.497  0.0296 -0.0185 -0.2187
34544W        W77482   3.900  30.146  28.348  0.3212  0.2726  0.1728
34545W        W77483   3.917  32.112  29.555 -0.0982 -0.4014  0.1044
34546W        W77484   6.047  32.633  29.952  0.0571  0.2643 -0.0080
34547W        W77485   4.703  29.660  27.154 -0.0773 -0.3497 -0.0785
34548W        W77486   7.430  33.143  29.656  0.1109 -0.1999 -0.0479
34549W        W77487   5.366  31.608  28.965  0.5003  0.0214  0.2793
34550W        W77488   4.325  31.268  30.896  0.3623  0.3038  0.0497
34551W        W77489   7.829  28.388  29.877 -0.2104 -0.0666 -0.2443
34552W        W77490   7.390  30.952  31.259  0.0791  0.0636  0.2378
34553W        W77491   5.900  29.729  29.589 -0.3073 -0.3628 -0.0307
34554W        W77492   4.790  29.226  27.364  0.1047  0.0178 -0.0929
34555W        W77493   7.215  32.765  28.377  0.1136 -0.3515 -0.0324
34556W        W77494   4.656  32.721  28.215  0.1159 -0.0922 -0.1893
34557W        W77495   3.635  30.909  29.382  0.2077 -0.2447 -0.0874
34558W        W77496   5.806  31.344  28.649 -0.2896  0.1155 -0.0392
34559W        W77497   5.874  29.972  30.040 -0.2021  0.0487  0.2006
34560W        W77498   2.789  31.425  30.759  0.0710  0.2120  0.0139
34561W        W77499   6.555  31.165   0.144  0.0665 -0.1922 -0.0688
34562W        W77500   5.143  29.830  26.702 -0.1298 -0.1388  0.2061
34563W        W77501   3.771  33.143  30.590  0.1428 -0.1293  0.0741
34564W        W77502   5.681  30.043  27.082 -0.0514 -0.0284 -0.2079
34565W        W77503   6.709  29.218  29.340  0.0682  0.1401 -0.1839
34566W        W77504   6.127  31.388  30.824  0.2683  0.3161  0.0238
34567W        W77505   7.578  31.155  29.815 -0.0798 -0.0019 -0.2674
34568W        W77506   6.394  29.698  28.067  0.1901  0.0022 -0.1927
34569W        W77507   5.924  28.991  27.659 -0.0586  0.3157  0.0421
34570W        W77508   4.005  30.997  31.294 -0.0390  0.0467  0.1039
34571W        W77509   6.896  30.605  28.961 -0.2965  0.0748  0.1794
34572W        W77510   4.743  31.238  30.578 -0.2531 -0.2026  0.2243
34573W        W77511   5.938  29.109  26.472  0.0964 -0.1961 -0.1586
34574W        W77512   6.849  30.402  30.528  0.0054 -0.0892  0.1223
34575W        W77513   3.552  32.399  29.846  0.1336  0.1552  0.2218
34576W        W77514   5.730  30.982   0.262 -0.2270  0.0434 -0.0538
34577W        W77515   8.500  30.497  30.675  0.2068  0.0083  0.0601
34578W        W77516   5.085  29.199  29.962  0.0858  0.1291 -0.1275
34579W        W77517   6.485  30.174  27.875 -0.3343 -0.2478  0.2809
34580W        W77518   4.757  29.050  28.791  0.1365 -0.2530 -0.1515
34581W        W77519   4.300  32.125  27.068 -0.5216  0.1142 -0.2481
34582W        W77520   6.392  29.358  30.125 -0.0967  0.2061 -0.0585
34583W        W77521   6.507  29.903  29.205  0.0298 -0.0862  0.0929
34584W        W77522   5.835  30.813  31.609  0.0371  0.2788  0.0325
34585W        W77523   7.705  29.027   0.728 -0.0760  0.0103 -0.2593
34586W        W77524   6.918  29.849  27.286  0.2438 -0.0989 -0.0117
34587W        W77525   7.052  31.267  31.688  0.2790  0.0584 -0.2426
34588W        W77526   5.344  30.964  27.985  0.3217  0.1799  0.0432
34589W        W77527   6.547  31.267  31.592  0.2596 -0.0740 -0.1947
34590W        W77528   4.332  31.234  29.915  0.0038  0.3485 -0.0453
34591W        W77529   6.486  32.645  29.621  0.2439  0.0791 -0.2570
34592W        W77530   7.253  31.907  31.622  0.5003  0.0617  0.0510
34593W        W77531   6.679  30.480  28.528  0.1049 -0.0457 -0.0537
34594W        W77532   5.958  28.877   0.204 -0.1246  0.0018 -0.0072
34595W        W77533   5.941  28.207  27.946  0.1704  0.0730 -0.0931
34596W        W77534   5.013  33.007  28.000  0.0293 -0.1759 -0.3787
34597W        W77535   5.654  31.076  27.355 -0.2439  0.0063 -0.1388
34598W        W77536   5.680  27.853  29.983 -0.0072 -0.2237 -0.3045
34599W        W77537   6.081  32.098  30.237 -0.2217  0.4030 -0.1303
34600W        W77538   5.014  31.418  29.250 -0.3717  0.0823  0.2865
34601W        W77539   6.252  31.481   0.427 -0.2830  0.1196  0.0572
34602W        W77540   6.157  31.412  29.028  0.2800 -0.0572 -0.0593
34603W        W77541   7.080  28.808  30.556  0.3722  0.0536 -0.2306
34604W        W77542   4.801  30.767  30.633 -0.1166 -0.2055 -0.0035
34605W        W77543   4.840  30.589  27.838  0.1727 -0.0429 -0.0843
34606W        W77544   3.460  29.921  26.713  0.1445 -0.5523  0.0478
34607W        W77545   6.751  30.088  28.283  0.1482 -0.1997  0.2373
34608W        W77546   6.559  31.354  28.494 -0.2260  0.2036  0.4180
34609W        W77547   4.510  30.853  30.239 -0.1973 -0.0646  0.2466
34610W        W77548   4.956  28.717  29.794  0.0068 -0.3127 -0.0841
34611W        W77549   4.877  31.920  29.243  0.4017 -0.2010  0.0640
34612W        W77550   7.632  31.896  31.088  0.1633  0.1535  0.3047
34613W        W77551   5.623  29.302  27.421 -0.1053  0.5425  0.0527
34614W        W77552   6.423  31.683  30.417  0.1884  0.0294  0.0701
34615W        W77553   5.861  29.214  30.741  0.1477  0.1274  0.2130
34616W        W77554   3.914  29.971  27.892  0.0925  0.5035  0.0367
34617W        W77555   6.953  28.715  31.136 -0.0222  0.2124  0.1205
34618W        W77556   5.777  29.284  29.321  0.0741 -0.3072  0.1215
34619W        W77557   4.125  32.292  29.176 -0.0818  0.1464  0.1753
34620W        W77558   6.687  32.062  29.345 -0.0967 -0.3142  0.0185
34621W        W77559   4.476  31.209  28.939  0.1404 -0.0938 -0.3138
34622W        W77560   4.872  31.947  28.375  0.1140  0.2463  0.1158
34623W        W77561   5.156  30.181  31.783 -0.3925  0.2360 -0.1356
34624W        W77562   6.801  29.944  31.690  0.0057  0.2567 -0.0102
34625W        W77563   5.876  29.489  30.255 -0.1507  0.0929  0.1187
34626W        W77564   3.612  30.023  29.004 -0.1211 -0.1501 -0.0057
34627W        W77565   6.025  30.526  29.292 -0.0184  0.0370 -0.1452
34628W        W77566   6.798  31.768  31.595  0.1697  0.1192  0.0096
34629W        W77567   5.091  30.368  30.391  0.0844  0.4639 -0.0103
34630W        W77568   4.975  31.677  30.530  0.0247  0.3313  0.1400
34631W        W77569   5.455  29.893  29.371 -0.1662 -0.1838  0.0583
34632W        W77570   6.718  30.967  29.420 -0.3558  0.0691 -0.2507
34633W        W77571   6.064  29.709   0.017  0.1250 -0.1671  0.2217
34634W        W77572   5.294  32.137  28.860  0.1352  0.1867  0.0202
34635W        W77573   4.546  31.180  29.483  0.3914  0.1720 -0.1429
34636W        W77574   6.049  32.251  28.515  0.2272 -0.1682  0.0628
34637W        W77575   6.434  31.161  30.402  0.1276  0.2089 -0.0546
34638W        W77576   5.035  32.717  30.497 -0.0626 -0.1493  0.0663
34639W        W77577   4.275  31.857  29.872  0.2689 -0.0264  0.0605
34640W        W77578   3.357  32.223   0.212 -0.0029  0.0626  0.1086
34641W        W77579   6.609  29.041  29.795  0.1180 -0.0346 -0.1937
34642W        W77580   5.289  30.444  28.008 -0.1201  0.1856 -0.2135
34643W        W77581   6.444  29.625  29.618 -0.0562 -0.3171 -0.1537
34644W        W77582   8.445  28.975  30.869  0.2586 -0.0094  0.3482
34645W        W77583   5.443  30.964  28.671 -0.2370 -0.2001  0.1183
34646W        W77584   6.979  29.098   0.349 -0.2297  0.0154 -0.1496
34647W        W77585   4.275  29.894  29.079 -0.0447 -0.0125 -0.2246
34648W        W77586   7.780  31.722  29.561 -0.0328  0.0041 -0.1816
34649W        W77587   3.722  29.798  30.048 -0.0791 -0.4073  0.0589
34650W        W77588   6.778  32.027   0.365 -0.2438  0.0487  0.3276
34651W        W77589   3.541  30.742  31.517 -0.1029 -0.1066  0.1589
34652W        W77590   5.013  30.905  29.356  0.4242  0.0011  0.2297
34653W        W77591   4.879  28.728  28.303  0.2481  0.0819 -0.0802
34654W        W77592   3.376  31.666  30.262  0.1678  0.0036 -0.0883
34655W        W77593   5.952  31.551  30.371  0.0558 -0.0885  0.0594
34656W        W77594   5.466  31.897  27.815 -0.0162 -0.0939  0.0322
34657W        W77595   6.837  29.907  30.287 -0.1511 -0.3135  0.0080
34658W        W77596   5.309  30.494  29.450  0.1211 -0.1424 -0.0633
34659W        W77597   7.631  30.875  30.547 -0.3232 -0.0565 -0.0432
34660W        W77598   5.772  31.490  27.645  0.3249  0.0444 -0.0081
34661W        W77599   4.292  31.743  29.396 -0.4142  0.1079  0.1724
34662W        W77600   5.494  29.510  30.621 -0.1834  0.2112  0.0205
34663W        W77601   6.061  31.217  31.383 -0.3088 -0.1386 -0.2414
34664W        W77602   5.070  29.355  29.135 -0.2670 -0.3927  0.2063
34665W        W77603   5.427  29.144  30.933  0.0583  0.0459 -0.1184
34666W        W77604   6.995  30.526  30.986  0.1453  0.3489 -0.0797
34667W        W77605   4.611  29.935  30.734  0.2503 -0.0290  0.2621
34668W        W77606   4.383  29.335  30.940  0.0347 -0.0682  0.0021
34669W        W77607   7.768  33.351  30.263  0.1853 -0.1035  0.0207
34670W        W77608   6.275  30.187  28.413 -0.0481  0.0530 -0.1941
34671W        W77609   8.554  28.569  31.458 -0.0912  0.0186 -0.2287
34672W        W77610   6.444  27.717  30.418 -0.2201 -0.0185  0.0995
34673W        W77611   5.050  31.665  28.001  0.0627 -0.3390  0.0640
34674W        W77612   5.128  29.179  28.325 -0.0154  0.3011  0.1005
34675W        W77613   6.230  30.867   0.514 -0.0057  0.1968 -0.0235
34676W        W77614   4.774  28.856  26.459  0.3574  0.0695 -0.0834
34677W        W77615   5.687  28.299  30.769  0.2779 -0.1110  0.1476
34678W        W77616   7.320  33.045  28.894 -0.0146  0.1498 -0.0368
34679W        W77617   6.859  30.943  28.429  0.0026 -0.0903 -0.0377
34680W        W77618   5.187  31.420  28.516 -0.0172 -0.0390 -0.0040
34681W        W77619   3.362  31.590  28.937 -0.2035 -0.2732 -0.6086
34682W        W77620   4.195  31.753  31.071  0.0556  0.1627  0.1453
34683W        W77621   3.067  30.956  28.131 -0.0380 -0.0997  0.2911
34684W        W77622   4.873  30.382  28.371  0.2768 -0.2726  0.0036
34685W        W77623   6.037  30.313  31.397 -0.2710  0.2696  0.0013
34686W        W77624   6.988  31.153   0.284  0.1046 -0.1395 -0.0408
34687W        W77625   4.675  29.376  28.396  0.3597  0.0311 -0.0221
34688W        W77626   7.811  30.970  31.497  0.0844  0.3400  0.0572
34689W        W77627   4.299  31.381  28.106 -0.1480 -0.1487 -0.5014
34690W        W77628   6.475  29.590  30.589 -0.0730 -0.0634 -0.1781
34691W        W77629   4.864  33.289  31.247 -0.1646 -0.0066  0.1371
34692W        W77630   4.341  32.903  29.195  0.1938  0.1092 -0.0988
34693W        W77631   3.542  32.408  29.359 -0.0959 -0.0850  0.1293
34694W        W77632   6.698  29.650  31.257  0.0595 -0.0537 -0.0615
34695W        W77633   5.709  29.655  28.991  0.0244  0.3793  0.1779
34696W        W77634   6.268  32.733  31.893  0.0090  0.1734  0.3161
34697W        W77635   7.515  30.517  31.401  0.1144  0.2465  0.3955
34698W        W77636   5.907  30.439  30.642  0.3485  0.0701 -0.3074
34699W        W77637   5.446  30.980  29.145  0.3148 -0.0479 -0.2310
34700W        W77638   5.749  31.579  31.222 -0.3548  0.1466 -0.1335
34701W        W77639   7.081  32.857  29.311  0.1006  0.2438 -0.2510
34702W        W77640   5.705  31.332  29.383  0.1347  0.0138 -0.2949
34703W        W77641   3.541  30.074  31.068  0.0816 -0.1462 -0.0548
34704W        W77642   6.782  31.790  29.825  0.2253 -0.0163 -0.1511
34705W        W77643   5.405  30.463  29.943 -0.0633 -0.2882  0.1273
34706W        W77644   3.129  30.235  28.911 -0.1097  0.2397 -0.0579
34707W        W77645   5.139  32.321  28.238 -0.1983 -0.0838  0.0766
34708W        W77646   4.726  32.478  30.084  0.2039  0.0729 -0.1566
34709W        W77647   3.419  31.444  29.387 -0.3433  0.0736 -0.1058
34710W        W77648   5.430  31.347  30.247 -0.0278 -0.1253  0.1353
34711W        W77649   5.245  32.564  27.803 -0.1567  0.2549 -0.1051
34712W        W77650   6.711  31.847  28.406 -0.1223  0.0158 -0.0889
34713W        W77651   6.811  32.216  28.826  0.2046 -0.1201 -0.0963
34714W        W77652   6.006  30.072  27.893  0.2238  0.1187 -0.0345
34715W        W77653   3.791  31.931  30.139 -0.0562 -0.1002 -0.1503
34716W        W77654   3.209  32.190  27.970 -0.1243 -0.1481  0.0412
34717W        W77655   5.455  32.797  27.270  0.0526 -0.1423 -0.1775
34718W        W77656   3.895  31.719  27.679  0.1221 -0.1128  0.0512
34719W        W77657   7.793  31.281  31.879 -0.2977  0.0783 -0.0761
34720W        W77658   6.120  29.406  26.865 -0.0465 -0.1409  0.1398
34721W        W77659   7.875  30.829  29.601 -0.1463  0.6106  0.1403
34722W        W77660   5.438  29.762  29.902  0.1424 -0.1567  0.0423
34723W        W77661   5.317  31.070  31.927 -0.2426 -0.0799 -0.5183
34724W        W77662   5.572  30.436  28.999  0.0976  0.1423  0.3744
34725W        W77663   5.717  27.951  27.588  0.2618 -0.2821  0.0326
34726W        W77664   4.295  29.949  30.248  0.3064  0.1436 -0.3192
34727W        W77665   8.206  28.258  30.290  0.0022 -0.2129 -0.1184
34728W        W77666   4.724  32.093  31.552 -0.1507 -0.2456  0.1366
34729W        W77667   5.654  32.263  28.184 -0.3038 -0.2334  0.1549
34730W        W77668   3.682  29.817  27.501  0.5465  0.3970  0.4390
34731W        W77669   5.072  31.650  30.011  0.0934  0.2896  0.0667
34732W        W77670   8.375  28.435  29.712 -0.0786 -0.2516 -0.2878
34733W        W77671   5.885  31.821  28.197  0.2049  0.1425 -0.0413
34734W        W77672   6.781  29.957  30.799 -0.1575  0.0917 -0.0371
34735W        W77673   5.882  31.996  29.687 -0.2882  0.0366  0.3411
34736W        W77674   5.485  32.717  30.191 -0.0200 -0.1042 -0.0171
34737W        W77675   5.342  31.172  29.777  0.4124 -0.1361 -0.0648
34738W        W77676   4.022  28.792  28.265 -0.0529  0.0698  0.0185
34739W        W77677   7.138  29.123  28.257 -0.2106 -0.1674 -0.1607
34740W        W77678   4.612  30.234  28.938 -0.0449 -0.0609  0.3279
34741W        W77679   7.444  27.966  30.887  0.2735 -0.1127 -0.1190
34742W        W77680   4.768  29.746  29.006 -0.0480 -0.0620 -0.0180
34743W        W77681   6.032  29.925  30.534 -0.0678 -0.0274 -0.0353
34744W        W77682   5.376  31.632  29.586  0.0924  0.0123  0.1070
34745W        W77683   3.116  31.086  29.448  0.1140  0.1543  0.0951
34746W        W77684   4.361  30.274  28.063 -0.1972 -0.1360 -0.1608
34747W        W77685   6.268  32.034  30.769  0.1268  0.4036 -0.1617
34748W        W77686   3.831  30.898  27.638 -0.4132 -0.1862  0.2102
34749W        W77687   6.812  32.677  31.875 -0.0641 -0.0405 -0.2452
34750W        W77688   5.275  30.049  28.314  0.1141 -0.1297  0.0817
34751W        W77689   7.455  29.459  29.247  0.1560 -0.1773 -0.0021
34752W        W77690   4.034  30.307  28.973  0.1403 -0.0915  0.0846
34753W        W77691   4.868  31.232  30.098  0.1743 -0.2538 -0.2368
34754W        W77692   7.063  31.849  31.116 -0.1721 -0.0394 -0.2560
34755W        W77693   3.307  28.902  28.412  0.4821  0.5080 -0.1751
34756W        W77694   7.214  31.792  28.308  0.0646 -0.3419 -0.1758
34757W        W77695   4.981  29.648  30.249 -0.2013  0.0959 -0.0611
34758W        W77696   6.032  33.303  27.344  0.2541 -0.3273  0.0051
34759W        W77697   7.627  30.674  29.959 -0.0405 -0.0016  0.1884
34760W        W77698   7.535  32.327  28.240  0.1636  0.1113 -0.0486
34761W        W77699   4.285  31.580  30.346  0.2030 -0.0035 -0.0100
34762W        W77700   5.642  30.582  31.161 -0.1830  0.0182 -0.2755
34763W        W77701   8.276  31.766  28.144 -0.2003 -0.1608  0.0307
34764W        W77702   5.013  29.644  27.545 -0.0051  0.0819  0.2076
34765W        W77703   3.619  31.977  28.724 -0.0140  0.1234  0.1671
34766W        W77704   3.094  32.027  27.097 -0.2791 -0.3805  0.0061
34767W        W77705   7.020  29.550  30.650  0.1386 -0.1036 -0.0491
34768W        W77706   7.094  29.485  31.919 -0.0236  0.1424 -0.2940
34769W        W77707   5.019  32.002  26.296 -0.0666  0.0691  0.2829
34770W        W77708   7.393  27.499  31.047  0.0070 -0.0487  0.0272
34771W        W77709   4.657  31.954  30.185 -0.2184  0.2835  0.4285
34772W        W77710   6.156  31.351  31.859 -0.0791  0.2381  0.0657
34773W        W77711   4.010  30.554  27.219 -0.2395  0.0566  0.1432
34774W        W77712   6.628  30.225  31.319 -0.1412  0.1269 -0.0160
34775W        W77713   6.686  31.507  29.360  0.0330 -0.0400 -0.2177
34776W        W77714   7.117  33.403  29.338 -0.0333 -0.0388  0.0776
34777W        W77715   7.232  30.617  30.281 -0.1130 -0.0598  0.0763
34778W        W77716   6.242  29.078  29.440  0.1693  0.1240  0.4482
34779W        W77717   7.530  32.824  27.996 -0.2013  0.0228 -0.1666
34780W        W77718   5.050  30.110  29.981 -0.1791 -0.3925  0.0804
34781W        W77719   7.128  30.257  28.675 -0.0673  0.4427  0.1561
34782W        W77720   6.928  28.314  28.835  0.2784  0.0870  0.1980
34783W        W77721   6.553  31.041  30.943  0.0137 -0.2542  0.1387
34784W        W77722   3.073  30.745  28.991  0.1366  0.0604 -0.2333
34785W        W77723   4.052  31.619  26.949  0.1197 -0.2265 -0.0245
34786W        W77724   4.735  31.604  29.646  0.0501 -0.3209  0.0559
34787W        W77725   8.267  28.720   0.280  0.3735  0.1464  0.1671
34788W        W77726   3.786  30.040  30.575 -0.2226 -0.2583 -0.1242
34789W        W77727   4.554  30.758  28.667  0.0230 -0.4321  0.1458
34790W        W77728   5.072  28.362  27.304  0.0706  0.2669  0.0518
34791W        W77729   6.669  31.183  28.978 -0.1565  0.1771 -0.1268
34792W        W77730   5.904  30.940  29.007  0.0648  0.1790  0.0709
34793W        W77731   4.620  29.016  30.006  0.3723  0.1214 -0.3080
34794W        W77732   5.966  30.017  29.137 -0.2001 -0.0924 -0.0869
34795W        W77733   7.294  30.891  29.445 -0.0438 -0.0964  0.0813
34796W        W77734   4.280  29.070  28.837  0.0338 -0.0874  0.1021
34797W        W77735   7.031  32.501  31.051 -0.2609  0.0795  0.1334
34798W        W77736   4.367  30.983  27.697  0.0026  0.0886  0.0960
34799W        W77737   5.637  30.387  31.713  0.0024  0.0991 -0.1256
34800W        W77738   6.020  28.987  31.717  0.1223  0.1182 -0.0673
34801W        W77739   2.152  30.008  27.690 -0.0844  0.0056  0.1048
34802W        W77740   4.931  30.187  29.325  0.3060  0.1513 -0.1477
34803W        W77741   7.344  32.449  30.682  0.0534 -0.0069 -0.1756
34804W        W77742   7.450  32.882  25.693  0.3130  0.1805 -0.1791
34805W        W77743   3.412  31.117  30.257 -0.0984 -0.1116 -0.3728
34806W        W77744   6.936  33.395  31.875  0.2567  0.1283  0.0200
34807W        W77745   4.100  28.974  31.614  0.2892  0.0182 -0.1892
34808W        W77746   6.249  30.139  29.551  0.1296  0.0330 -0.0931
34809W        W77747   5.746  30.227  29.594  0.2042  0.0290  0.0946
34810W        W77748   6.618  31.712  28.881  0.0432  0.1476  0.0495
34811W        W77749   8.048  29.230  30.694 -0.1786  0.2106  0.0217
34812W        W77750   6.053  30.561  28.681  0.0843 -0.1945 -0.1162
34813W        W77751   5.962  29.417  31.560  0.1869  0.1011  0.1805
34814W        W77752   4.140  30.144  30.921 -0.2533 -0.0274  0.1025
34815W        W77753   8.047  31.440  31.348  0.0953  0.2105 -0.0475
34816W        W77754   4.666  30.544  29.878  0.3601  0.0539  0.0070
34817W        W77755   6.906  29.229  28.711  0.0504 -0.1822 -0.0694
34818W        W77756   6.414  31.661  28.001  0.0204 -0.0111 -0.1721
34819W        W77757   2.863  31.420  30.254 -0.1387  0.4358 -0.1707
34820W        W77758   4.424  29.533  28.758  0.2483  0.0023  0.3082
34821W        W77759   6.476  29.964   0.175 -0.1637 -0.2391  0.1623
34822W        W77760   6.272  31.694  29.945  0.2490 -0.0220  0.0207
34823W        W77761   7.501  30.964   0.323  0.0930  0.1881  0.0002
34824W        W77762   5.846  30.996  27.850 -0.1058  0.2285 -0.1110
34825W        W77763   6.912  31.456  28.072 -0.1726  0.3546 -0.4562
34826W        W77764   5.923  30.978  30.518  0.1559  0.0452  0.0264
34827W        W77765   6.798  32.335   0.836  0.2644 -0.1476 -0.0304
34828W        W77766   6.698  33.460  31.192 -0.1225 -0.3216  0.3970
34829W        W77767   8.254  31.736  30.308 -0.1198 -0.0080 -0.2615
34830W        W77768   4.647  30.005  29.687  0.0807  0.0012  0.2395
34831W        W77769   6.424  30.307  28.946 -0.0325  0.3006 -0.2282
34832W        W77770   5.365  31.828  28.348 -0.0310 -0.1814  0.0458
34833W        W77771   6.298  29.329  31.096  0.3333  0.1046  0.2260
34834W        W77772   4.550  30.620  29.375 -0.0003  0.2938  0.0773
34835W        W77773   6.822  29.860  27.806  0.2042  0.2531 -0.0892
34836W        W77774   4.184  30.727  29.757 -0.0975  0.3409  0.0245
34837W        W77775   5.444  29.998  30.318 -0.0435  0.0967 -0.0316
34838W        W77776   6.636  29.498   0.250  0.3959 -0.1423  0.1498
34839W        W77777   5.922  30.561   1.709 -0.0023 -0.2391  0.1824
34840W        W77778   4.994  29.289  30.615  0.0349 -0.2005 -0.0798
34841W        W77779   3.853  32.386  30.900  0.0494  0.5115 -0.0302
34842W        W77780   5.522  31.802  30.221  0.0726  0.1143 -0.0093
34843W        W77781   5.512  32.606  30.681 -0.0254  0.3579  0.2258
34844W        W77782   6.696  30.519   0.825  0.1034 -0.0024 -0.0615
34845W        W77783   5.839  29.573  31.062 -0.1347 -0.0903 -0.1628
34846W        W77784   6.337  29.232   1.647 -0.1858  0.0572 -0.0526
34847W        W77785   9.540  31.672  31.467 -0.2422 -0.0674  0.0352
34848W        W77786   5.766  29.887  31.566 -0.1037 -0.2124  0.2353
34849W        W77787   6.485  29.426  31.672  0.0010 -0.0138 -0.0386
34850W        W77788   6.234  30.825   0.033 -0.1030  0.0923  0.1771
34851W        W77789   4.727  29.691   0.022 -0.0680 -0.1028 -0.2783
34852W        W77790   7.047  30.371  31.671  0.2183  0.1781 -0.0418
34853W        W77791   5.491  32.079  31.139 -0.4387  0.1985  0.1855
34854W        W77792   3.439  31.092  31.127 -0.1084 -0.2180 -0.1286
34855W        W77793   7.941  31.891   0.393 -0.0847 -0.0387  0.1112
34856W        W77794   4.772  29.194   0.278 -0.4538  0.0506  0.1072
34857W        W77795   6.277  29.856  31.528  0.0692  0.1514  0.1059
34858W        W77796   4.320  29.962   0.207  0.0439 -0.1639 -0.2094
34859W        W77797   5.747  31.902  31.563 -0.1593  0.2669  0.1011
34860W        W77798   7.379  29.900  31.622  0.0162 -0.0345 -0.2147
34861W        W77799   6.662  29.100  31.346  0.1753  0.2477 -0.0345
34862W        W77800   7.808  28.167  31.215 -0.2055 -0.2638 -0.0448
34863W        W77801   7.923  27.988   0.691  0.0087  0.1060 -0.0342
34864W        W77802   5.619  30.018  30.837 -0.0610 -0.0610  0.0363
34865W        W77803   4.315  32.278  30.928 -0.2102 -0.0170 -0.1780
34866W        W77804   3.907  29.661  31.164  0.1270 -0.1885  0.1410
34867W        W77805   5.244  30.634   0.065  0.2562 -0.1097 -0.0643
34868W        W77806   5.119  29.859  30.682  0.2750  0.0703 -0.1966
34869W        W77807   4.647  27.561  30.945 -0.0597 -0.0015  0.1444
34870W        W77808   7.549  29.724   0.077 -0.1937 -0.3021 -0.0090
34871W        W77809   7.616  27.403  31.940 -0.0518  0.1779 -0.0357
34872W        W77810   5.167  31.293  31.311  0.0857 -0.0994 -0.0559
34873W        W77811   4.866  30.988  31.719 -0.3602 -0.2102 -0.2386
34874W        W77812   5.789  31.924  30.674 -0.1347  0.1109  0.0224
34875W        W77813   5.984  30.466   1.218  0.1781 -0.0454 -0.0131
34876W        W77814   6.752  30.699   0.386  0.0164 -0.1733 -0.0574
34877W        W77815   4.922  30.070  31.195  0.2462  0.0421 -0.1745
34878W        W77816   8.838  28.996  30.579  0.1382 -0.2737  0.0417
34879W        W77817   5.778  29.433   0.343  0.5184 -0.1177 -0.2722
34880W        W77818   4.400  29.796  31.155 -0.5145  0.5097 -0.3208
34881W        W77819   7.393  31.504  31.296 -0.4120 -0.1613  0.1761
34882W        W77820   5.325  29.628  31.124  0.0092 -0.1698 -0.0308
34883W        W77821   4.753  29.773   0.535 -0.0480 -0.0427 -0.1341
34884W        W77822   7.341  28.800   0.537  0.2069  0.2148 -0.2163
34885W        W77823   4.236  29.706   0.631 -0.1431 -0.1137 -0.0413
34886W        W77824   5.842  30.499   0.431 -0.0108 -0.2032 -0.2458
34887W        W77825   3.689  30.841   0.365 -0.0902  0.1224  0.3599
34888W        W77826   7.074  31.749   0.064  0.1536  0.0871 -0.3803
34889W        W77827   7.180  29.159   0.913 -0.0783 -0.2606  0.1561
34890W        W77828   6.158  29.147   0.634 -0.3615  0.3167  0.2595
34891W        W77829   5.794  29.959   0.543 -0.0634  0.2238 -0.1699
34892W        W77830   5.439  30.158  31.288  0.3071 -0.1662 -0.1826
34893W        W77831   5.335  30.206   0.359 -0.1009 -0.2418 -0.2560
34894W        W77832   7.433  31.438   0.161  0.0637 -0.2269  0.0355
34895W        W77833   6.235  32.484  31.024  0.0982 -0.1930 -0.0518
34896W        W77834   5.567  31.088  31.088  0.1282  0.0246 -0.0040
34897W        W77835   5.618  27.788  30.877  0.1698 -0.0878 -0.0067
34898W        W77836   4.403  27.993  31.096 -0.1380 -0.1031  0.1673
34899W        W77837   3.280  31.377  30.692  0.2800  0.1680 -0.2343
34900W        W77838   3.310  30.226  30.685 -0.1112 -0.1807  0.0327
34901W        W77839   5.485  28.776  31.504 -0.2955 -0.2482 -0.1953
34902W        W77840   6.240  32.477   0.801  0.0367 -0.2857  0.1255
34903W        W77841   7.763  31.688  31.626 -0.1220 -0.0712 -0.1603
34904W        W77842   7.573  29.573  30.855  0.0713  0.2340 -0.0048
34905W        W77843   3.500  33.678  16.371 -0.2519 -0.0197  0.2719
34906W        W77844   6.796  33.851  15.866  0.1483 -0.0576 -0.1879
34907W        W77845   7.995   0.259  16.805 -0.0466  0.1374 -0.0868
34908W        W77846   3.166  32.517  17.925 -0.4431 -0.0175  0.1517
34909W        W77847   4.066  33.880  19.450  0.1246 -0.1233  0.0631
34910W        W77848   5.263  32.818  16.428  0.2595 -0.0596 -0.1434
34911W        W77849   4.687  34.571  18.159 -0.0882 -0.2581 -0.0373
34912W        W77850   3.880  33.317  16.381 -0.1193  0.0930 -0.1811
34913W        W77851   4.278  33.428  18.322  0.4848  0.0221 -0.3950
34914W        W77852   6.470   1.260  18.621 -0.0374 -0.0193  0.1132
34915W        W77853   2.799  34.058  17.673  0.2437  0.0416  0.1006
34916W        W77854   6.845  33.124  19.073  0.2107 -0.1919  0.0862
34917W        W77855   5.301   0.370  17.121  0.1434 -0.3216 -0.0515
34918W        W77856   5.638   0.151  18.602  0.2145  0.1635 -0.1778
34919W        W77857   6.577  33.020  18.571 -0.2823 -0.0471 -0.3372
34920W        W77858   4.164  33.516  17.197  0.0791  0.0247  0.2175
34921W        W77859   3.580  34.417  18.717 -0.2408 -0.0844  0.1855
34922W        W77860   4.760   0.382  18.775  0.1061 -0.0036  0.0117
34923W        W77861   7.395  32.762  16.357  0.0141 -0.0521  0.1204
34924W        W77862   7.836  33.533  18.374 -0.1845  0.1894  0.0573
34925W        W77863   5.960   0.951  19.506  0.1100  0.0419  0.1551
34926W        W77864   3.969   1.057  18.941 -0.0165  0.1694 -0.0064
34927W        W77865   5.454   0.190  16.654  0.2444 -0.0467 -0.2271
34928W        W77866   6.892  32.802  19.578 -0.3749  0.0783 -0.1231
34929W        W77867   7.547  34.347  16.528  0.0841  0.1539 -0.0622
34930W        W77868   4.290  34.205  16.202  0.0099  0.2231  0.2569
34931W        W77869   5.997  32.776  15.734  0.0039 -0.0707  0.1876
34932W        W77870   3.598  33.725  18.530 -0.3038  0.3805  0.0091
34933W        W77871   5.020  33.788  19.200  0.0522 -0.2214  0.0847
34934W        W77872   3.909  34.431  16.440  0.0745 -0.1091 -0.4562
34935W        W77873   5.721  32.852  18.699  0.3328  0.0589  0.2233
34936W        W77874   4.050  34.265  17.812 -0.0182 -0.2591 -0.0276
34937W        W77875   3.836   0.207  16.362 -0.1691  0.2504 -0.1634
34938W        W77876   3.507  33.423  19.503 -0.0304 -0.0012 -0.1322
34939W        W77877   3.947  33.498  19.844  0.0232 -0.1803  0.0142
34940W        W77878   4.203  32.985  16.465 -0.0980  0.2949 -0.1750
34941W        W77879   6.373  33.801  16.136  0.0921 -0.5009 -0.0432
34942W        W77880   6.034  32.220  18.248  0.1293  0.1400  0.4895
34943W        W77881   6.914  32.398  17.205 -0.0653 -0.3204 -0.2711
34944W        W77882   7.004   0.399  15.630  0.0249 -0.1929 -0.0253
34945W        W77883   5.880  34.595  18.253 -0.2613  0.0929 -0.1556
34946W        W77884   4.892  31.636  19.358 -0.1009 -0.0146  0.2953
34947W        W77885   7.456  33.025  17.654 -0.1701 -0.0259 -0.1467
34948W        W77886   4.248  34.333  19.228  0.1153  0.0908 -0.1988
34949W        W77887   6.071  32.704  17.519 -0.0259 -0.0180  0.2034
34950W        W77888   6.773  34.359  15.808  0.4532 -0.0696  0.1355
34951W        W77889   2.414   0.828  18.784 -0.0195 -0.1532 -0.1007
34952W        W77890   5.596  34.095  18.267 -0.3518 -0.4102 -0.1090
34953W        W77891   3.860  33.622  20.389  0.1216 -0.2658  0.2045
34954W        W77892   5.095  33.585  18.175  0.0468  0.1252  0.0580
34955W        W77893   5.541  34.151  17.741  0.2897  0.0697  0.3431
34956W        W77894   4.261  32.783  16.016  0.0432 -0.1189  0.1332
34957W        W77895   6.738  33.919  16.432  0.3007 -0.1326 -0.0995
34958W        W77896   3.619  34.370  17.320  0.0551  0.1706  0.0264
34959W        W77897   7.456  33.147  18.985  0.1389 -0.0738  0.0655
34960W        W77898   4.569  32.385  19.091  0.0392 -0.0260 -0.1315
34961W        W77899   3.657  34.123  16.200 -0.2822  0.1579 -0.0529
34962W        W77900   4.631  33.935  17.298 -0.1634  0.3316  0.0548
34963W        W77901   5.976  33.239  18.436  0.0302  0.0654  0.2321
34964W        W77902   6.848  33.475  18.644 -0.1923 -0.0989 -0.0180
34965W        W77903   2.835  32.311  16.226  0.1840  0.0142  0.2445
34966W        W77904   3.751   0.230  15.828 -0.0015 -0.1116 -0.0019
34967W        W77905   7.745  34.325  17.508  0.0986  0.1854 -0.0613
34968W        W77906   3.021  32.973  21.169  0.0621  0.0038 -0.3098
34969W        W77907   5.007  34.235  18.937 -0.0504 -0.1010 -0.1560
34970W        W77908   3.162  34.126  16.343  0.0430  0.3922 -0.3669
34971W        W77909   5.541  33.803  16.856 -0.1847 -0.3215  0.0710
34972W        W77910   7.745  34.594  17.022  0.1596 -0.2871  0.1954
34973W        W77911   5.464  33.531  16.150 -0.2632  0.0709  0.0869
34974W        W77912   5.169  32.800  15.945 -0.0089  0.5311 -0.0676
34975W        W77913   4.204  33.450  16.722 -0.3150  0.3592  0.1860
34976W        W77914   6.208  32.711  18.333  0.1643 -0.1869 -0.2363
34977W        W77915   5.503  34.411  16.054 -0.1169  0.2331 -0.3061
34978W        W77916   5.797  33.655  17.466  0.1709 -0.1518  0.0629
34979W        W77917   6.619  34.615  19.136 -0.0326  0.1496 -0.0961
34980W        W77918   4.872  32.560  17.198  0.0427  0.1537  0.0872
34981W        W77919   5.635  31.972  18.912  0.2056 -0.2078 -0.1102
34982W        W77920   6.503   0.397  20.509  0.3918  0.0885  0.2008
34983W        W77921   6.507  34.287  16.215 -0.0818 -0.0812  0.0603
34984W        W77922   5.298  34.453  18.580  0.0200  0.0030 -0.0233
34985W        W77923   5.292  33.999  16.369 -0.3354 -0.0503 -0.1087
34986W        W77924   6.377  34.183  19.320 -0.2600 -0.1286  0.2307
34987W        W77925   6.081  33.232  20.697 -0.0680  0.1481 -0.1096
34988W        W77926   5.484  34.358  16.782  0.2592  0.1884  0.1802
34989W        W77927   5.246  33.412  18.665 -0.1118  0.0864  0.0185
34990W        W77928   6.755  33.561  18.058 -0.0422  0.1710 -0.1160
34991W        W77929   5.003  34.257  15.941 -0.1670  0.0316 -0.2496
34992W        W77930   3.797  33.853  17.304  0.1488  0.0299  0.2710
34993W        W77931   6.519  33.310  16.174 -0.1643  0.0917 -0.2646
34994W        W77932   3.556  33.083  17.865 -0.1541 -0.0592 -0.0050
34995W        W77933   6.071  32.308  18.733 -0.0335  0.2738 -0.0256
34996W        W77934   4.631  34.581  18.640 -0.0227  0.2031  0.2488
34997W        W77935   6.562  32.867  16.445  0.0634 -0.3395 -0.0052
34998W        W77936   5.088   0.544  19.874  0.1621 -0.0243 -0.2823
34999W        W77937   5.037  33.616  16.555 -0.1281 -0.0423  0.1701
35000W        W77938   5.546  33.057  18.212  0.1749 -0.2565  0.1488
35001W        W77939   4.807   0.561  17.662 -0.0425  0.0386  0.1235
35002W        W77940   4.610   0.363  16.328 -0.1921 -0.1013 -0.0702
35003W        W77941   4.510  33.772  19.148  0.3142  0.1709  0.0803
35004W        W77942   6.401  34.218  18.814 -0.3050 -0.0897  0.0060
35005W        W77943   3.084  33.749  18.735  0.0733 -0.0756 -0.1211
35006W        W77944   5.560  33.408  17.884  0.0109  0.3110 -0.1087
35007W        W77945   5.670   0.053  17.243 -0.2229  0.1468  0.1513
35008W        W77946   6.034  33.177  17.941 -0.2420  0.0552  0.1062
35009W        W77947   5.948  34.307  17.051  0.0283 -0.0274 -0.2078
35010W        W77948   5.630  33.607  18.361 -0.2552 -0.1427 -0.0071
35011W        W77949   6.999  33.157  16.360 -0.0173  0.5386 -0.1218
35012W        W77950   4.393  32.695  17.328 -0.2608  0.0394 -0.0319
35013W        W77951   5.930  31.764  17.723 -0.1778 -0.0272  0.0905
35014W        W77952   5.891  34.453  16.496  0.0713 -0.1003 -0.3595
35015W        W77953   7.315  33.033  20.916 -0.0171 -0.2162  0.3420
35016W        W77954   6.311  32.722  19.435 -0.1386  0.0562 -0.2223
35017W        W77955   5.440  34.618  18.121 -0.0624 -0.1564  0.1372
35018W        W77956   3.863  34.143  20.507 -0.1028 -0.0543 -0.1071
35019W        W77957   4.661  34.408  17.194  0.0416  0.0248  0.1736
35020W        W77958   5.054  33.213  16.286 -0.0589 -0.1183  0.0799
35021W        W77959   4.486   0.710  18.398 -0.1557 -0.4126  0.1612
35022W        W77960   7.015   0.284  17.849  0.3045  0.2327  0.0482
35023W        W77961   3.577  33.805  19.848  0.2621 -0.4693 -0.0122
35024W        W77962   6.710  34.640  17.391 -0.0603  0.0257  0.1976
35025W        W77963   5.232  32.288  18.301 -0.0844  0.1122 -0.4905
35026W        W77964   4.667  33.856  16.806  0.2209  0.0322 -0.0098
35027W        W77965   5.481  34.007  19.492 -0.1571  0.0535  0.1156
35028W        W77966   5.640  33.915  18.964  0.1159  0.0876 -0.2830
35029W        W77967   4.520  34.154  18.789 -0.1241 -0.2256 -0.1207
35030W        W77968   5.093  32.935  20.253  0.1239 -0.0709 -0.1252
35031W        W77969   6.931  34.645  15.321  0.1647 -0.0052  0.0705
35032W        W77970   6.488  32.665  18.974  0.3176 -0.1286 -0.0249
35033W        W77971   7.240  33.636  16.899  0.1332  0.1800 -0.0163
35034W        W77972   6.446   0.217  16.473 -0.1192  0.0470  0.0922
35035W        W77973   4.112  33.845  18.792 -0.1675 -0.0236 -0.0916
35036W        W77974   4.932  34.595  19.893  0.1812  0.2420 -0.1526
35037W        W77975   3.587  32.922  16.433 -0.1110 -0.0164  0.2946
35038W        W77976   7.087  33.639  19.072 -0.2155  0.0156  0.1535
35039W        W77977   6.947  34.207  17.332  0.1318 -0.2045 -0.3309
35040W        W77978   3.302  32.697  18.721  0.0207  0.0701 -0.2030
35041W        W77979   4.738  33.971  16.380 -0.2099 -0.0247  0.0234
35042W        W77980   5.872  33.897  16.473  0.1469  0.0743  0.2181
35043W        W77981   6.753  34.414  16.607 -0.0396  0.3567 -0.0333
35044W        W77982   6.598  33.654  19.224  0.2116 -0.1881  0.0237
35045W        W77983   5.255  32.814  17.446 -0.2279 -0.0392 -0.0865
35046W        W77984   5.291  31.915  20.599 -0.1203  0.2425  0.1846
35047W        W77985   6.513  34.406  18.317  0.0308 -0.0707  0.2184
35048W        W77986   6.134   0.417  17.287 -0.0722 -0.5428  0.0040
35049W        W77987   6.371   0.188  17.824 -0.3924 -0.1074 -0.3442
35050W        W77988   3.318  34.154  18.397  0.3378  0.2691  0.2151
35051W        W77989   3.524  31.844  20.457 -0.1114 -0.0641 -0.0295
35052W        W77990   3.686  33.277  17.264  0.2573  0.2570  0.2084
35053W        W77991   5.115  33.793  17.097 -0.0702  0.0602  0.2271
35054W        W77992   7.192  33.891  16.115  0.1785  0.1031  0.1374
35055W        W77993   7.641  34.138  18.321  0.0307 -0.1223  0.0195
35056W        W77994   6.175   0.003  16.106  0.2186 -0.3663 -0.3007
35057W        W77995   5.788  32.639  17.986  0.2092 -0.0709  0.1626
35058W        W77996   5.018  33.681  16.059  0.0187 -0.0160  0.1226
35059W        W77997   3.462   0.121  19.015 -0.2712  0.0455  0.1712
35060W        W77998   6.692  33.070  19.952 -0.0642 -0.0120 -0.3162
35061W        W77999   2.650  34.028  18.656  0.1412 -0.1567 -0.0542
35062W        W78000   5.086  34.208  17.502  0.0485 -0.1917 -0.0793
35063W        W78001   6.464  33.202  19.545  0.2062 -0.1695 -0.0494
35064W        W78002   5.559  32.495  16.648  0.2900  0.0402 -0.0225
35065W        W78003   3.170  34.481  17.476 -0.2295  0.0145 -0.1144
35066W        W78004   7.275  32.717  17.307 -0.1663 -0.0834 -0.0524
35067W        W78005   4.848  34.155  18.344 -0.1695  0.0135 -0.1954
35068W        W78006   6.535  33.869  19.747  0.0960 -0.0121  0.1711
35069W        W78007   3.409   0.370  18.087  0.1300 -0.2748  0.0601
35070W        W78008   7.895  34.020  16.900  0.0567 -0.1650 -0.0235
35071W        W78009   3.420  33.208  18.668  0.1873  0.1366  0.0420
35072W        W78010   6.186  33.334  17.509 -0.0974  0.1647  0.3915
35073W        W78011   7.311   0.301  18.278 -0.0694  0.0057 -0.0171
35074W        W78012   6.090  33.303  15.764  0.1378  0.0650  0.0870
35075W        W78013   4.712  34.568  17.684  0.3613  0.1608 -0.1547
35076W        W78014   6.429  34.227  17.148  0.1584 -0.1786 -0.3202
35077W        W78015   3.748  34.537  19.273 -0.1671 -0.3266  0.3706
35078W        W78016   5.767  33.379  18.883  0.0104  0.1015  0.1201
35079W        W78017   4.166  33.964  16.929 -0.2139  0.1477 -0.0410
35080W        W78018   6.303  34.187  16.655  0.0051  0.1799 -0.2764
35081W        W78019   6.756  33.984  16.915 -0.1536  0.2552 -0.2338
35082W        W78020   4.092   0.855  18.003  0.0672  0.1008 -0.1135
35083W        W78021   4.395  33.653  16.345 -0.1820 -0.1584  0.0479
35084W        W78022   3.336   0.259  17.372  0.0744  0.1668  0.2243
35085W        W78023   6.092  33.790  18.957  0.2027 -0.3213 -0.0835
35086W        W78024   8.019  33.287  17.270 -0.2267  0.0657 -0.3443
35087W        W78025   6.419  33.322  20.360 -0.0392 -0.0061  0.0868
35088W        W78026   7.349  34.128  17.662 -0.4866 -0.2676  0.0321
35089W        W78027   4.584  34.077  17.869 -0.0228 -0.0241 -0.1847
35090W        W78028   5.880  33.451  16.767  0.0200  0.1355  0.1698
35091W        W78029   6.299  33.166  16.727  0.1070  0.0053  0.1624
35092W        W78030   6.469  33.780  17.578  0.3078 -0.0375  0.1360
35093W        W78031   3.449  34.562  16.302  0.1077  0.0887 -0.1307
35094W        W78032   5.714  34.337  20.059  0.1396 -0.0872  0.0531
35095W        W78033   4.299  33.078  19.777  0.4311 -0.1554 -0.2329
35096W        W78034   4.281   0.570  17.628  0.0921  0.1426 -0.0149
35097W        W78035   3.990  33.873  16.474 -0.1243 -0.0956  0.2425
35098W        W78036   4.252  34.682  17.761 -0.1219 -0.2119 -0.0536
35099W        W78037   3.397  33.296  16.720 -0.1455  0.4358 -0.0713
35100W        W78038   4.151   0.998  17.426 -0.1558  0.4218 -0.1920
35101W        W78039   6.106  33.428  19.372  0.1449 -0.2069 -0.2198
35102W        W78040   6.241  33.712  20.781  0.1546 -0.0780 -0.2872
35103W        W78041   2.724  33.941  16.768  0.4223  0.2067  0.1482
35104W        W78042   5.653  32.459  18.434 -0.3963 -0.0093 -0.0870
35105W        W78043   4.106  32.086  18.588 -0.2283 -0.0267  0.1465
35106W        W78044   5.615  31.920  18.395 -0.2560 -0.0234  0.1946
35107W        W78045   5.128  34.625  16.357 -0.1999 -0.2056 -0.4127
35108W        W78046   4.240  32.655  19.328 -0.1544 -0.0369  0.0797
35109W        W78047   5.289  33.317  17.317  0.1109  0.2343 -0.0579
35110W        W78048   4.815  32.993  17.377 -0.1762 -0.2004 -0.0561
35111W        W78049   3.351  33.842  20.622  0.1884  0.0444 -0.2402
35112W        W78050   5.494  34.113  17.256 -0.0185 -0.0991 -0.5518
35113W        W78051   5.399  34.576  19.707  0.3467 -0.0568  0.1079
35114W        W78052   4.951  34.252  16.733  0.2929  0.0898  0.0682
35115W        W78053   7.627   0.094  16.336 -0.1556 -0.1297 -0.0647
35116W        W78054   5.225  32.816  18.509 -0.1776 -0.0627 -0.0765
35117W        W78055   3.949   0.230  17.362 -0.2309  0.2375  0.0929
35118W        W78056   5.173  34.559  17.103 -0.1179 -0.1059 -0.0639
35119W        W78057   6.075  33.702  17.843  0.1791 -0.1147 -0.1135
35120W        W78058   8.000  33.995  18.622  0.0730  0.1113  0.2950
35121W        W78059   6.479  32.408  16.063  0.1994  0.0876  0.0721
35122W        W78060   5.986   0.393  20.488  0.0145  0.0754 -0.4620
35123W        W78061   5.787  34.390  18.789  0.3728 -0.0680 -0.0540
35124W        W78062   6.890  34.188  21.258  0.0754 -0.2946  0.0534
35125W        W78063   5.066  31.099  22.395  0.0807  0.0993  0.0064
35126W        W78064   4.031  32.599  22.683 -0.1675  0.1562  0.2744
35127W        W78065   5.852   0.652  20.008  0.0993  0.1072  0.0354
35128W        W78066   4.470  34.064  21.594  0.1643 -0.0499 -0.1691
35129W        W78067   4.692  33.243  20.462 -0.0521 -0.1165  0.0320
35130W        W78068   3.069  31.684  22.471  0.0825  0.1992 -0.0964
35131W        W78069   7.112  34.091  23.538  0.0623  0.0394  0.3712
35132W        W78070   3.993  34.203  22.006  0.1003 -0.0822  0.3280
35133W        W78071   4.998  33.470  21.368  0.2585  0.1570 -0.3696
35134W        W78072   4.533  32.396  21.576 -0.0627  0.0325 -0.2392
35135W        W78073   3.635  32.275  23.317  0.0442 -0.0516  0.1767
35136W        W78074   6.239  33.234  24.350  0.0679 -0.0054  0.0167
35137W        W78075   3.762  33.195  20.630 -0.1768 -0.1683  0.1914
35138W        W78076   3.367  32.279  20.958 -0.2567  0.0307  0.0990
35139W        W78077   4.420   0.606  23.533 -0.0694  0.0206 -0.1520
35140W        W78078   5.821  32.864  22.234 -0.1035 -0.3236 -0.1572
35141W        W78079   6.305  33.483  21.476 -0.2211 -0.1678  0.1646
35142W        W78080   6.218  33.990  22.709 -0.0978 -0.3265  0.1059
35143W        W78081   6.036  34.113  22.259  0.4553 -0.0866 -0.0001
35144W        W78082   5.638  33.157  20.910  0.4152  0.1637  0.1306
35145W        W78083   7.454  32.378  24.219 -0.1781 -0.2507 -0.2266
35146W        W78084   6.953  33.168  20.570  0.0706 -0.0520 -0.0962
35147W        W78085   6.045  34.476  19.649  0.0672  0.1477  0.0493
35148W        W78086   7.252  33.845  19.906  0.0249  0.0590  0.1079
35149W        W78087   4.075  31.645  22.801 -0.1432  0.1045  0.0979
35150W        W78088   5.563  33.821  20.203  0.0078  0.0300 -0.1780
35151W        W78089   5.755  34.002  21.030 -0.3188 -0.0492  0.1447
35152W        W78090   5.980  34.143  23.213 -0.1738  0.0154 -0.1986
35153W        W78091   5.161  34.144  21.922 -0.1660 -0.0970  0.4836
35154W        W78092   4.592  34.040  19.614  0.0241  0.1274  0.1184
35155W        W78093   3.823   1.245  23.056  0.1447  0.1116  0.1786
35156W        W78094   1.757  33.949  23.531 -0.1562 -0.0537  0.1492
35157W        W78095   4.374  32.054  19.979 -0.1888  0.1411 -0.0583
35158W        W78096   6.403  32.316  20.756 -0.0980 -0.1681 -0.0979
35159W        W78097   6.883  32.916  21.142 -0.1631 -0.0048 -0.0908
35160W        W78098   6.316  33.335  24.866  0.0373  0.0066  0.0474
35161W        W78099   5.481  34.341  21.500 -0.1841 -0.2153  0.0483
35162W        W78100   4.463  33.363  22.301 -0.2448 -0.1287  0.1235
35163W        W78101   3.375  32.536  22.525 -0.1046 -0.0791 -0.3036
35164W        W78102   7.737  31.998  21.817 -0.0988 -0.3046  0.1374
35165W        W78103   3.809  33.417  23.520 -0.1426 -0.1128 -0.1317
35166W        W78104   7.825  31.310  21.051  0.3590  0.3691 -0.1350
35167W        W78105   7.421  34.047  18.836  0.2634 -0.0776 -0.2830
35168W        W78106   4.044  33.774  21.613  0.1370  0.0316 -0.2734
35169W        W78107   5.449  32.778  20.609  0.0513  0.0838 -0.1566
35170W        W78108   3.026  32.703  22.955 -0.0004 -0.0004 -0.0282
35171W        W78109   4.597  33.227  22.891  0.0020  0.1965 -0.0821
35172W        W78110   6.713  32.411  22.443  0.1182 -0.0757  0.0543
35173W        W78111   2.850  31.215  19.433  0.2095  0.0543 -0.3516
35174W        W78112   6.654   0.183  23.329  0.0679 -0.2038 -0.2907
35175W        W78113   4.668  33.934  20.672 -0.3208  0.0280  0.1765
35176W        W78114   6.428  33.051  23.356 -0.2129  0.3094  0.0890
35177W        W78115   4.433  33.874  22.092  0.1869 -0.1343  0.0143
35178W        W78116   4.617  32.487  19.739 -0.2913 -0.1993  0.0731
35179W        W78117   5.698  33.439  19.868  0.1246  0.1272 -0.0956
35180W        W78118   6.865  31.433  22.946  0.0559 -0.0023  0.2357
35181W        W78119   5.748  34.270  22.623 -0.3076  0.1678 -0.3953
35182W        W78120   4.793  33.682  18.545  0.1180 -0.0587 -0.1367
35183W        W78121   4.717  34.394  22.123 -0.0920 -0.1424  0.0393
35184W        W78122   6.054  32.318  20.355 -0.4043 -0.2485  0.4602
35185W        W78123   5.524  33.328  21.916 -0.0378 -0.0388 -0.5344
35186W        W78124   5.491   0.861  24.645 -0.0909 -0.0681 -0.3673
35187W        W78125   2.666  34.127  20.865  0.0215  0.0770 -0.1236
35188W        W78126   6.979  31.134  21.282 -0.0279 -0.2091 -0.0665
35189W        W78127   6.595  34.141  20.784  0.2356  0.0539 -0.0146
35190W        W78128   5.604  33.217  20.381  0.0103  0.0447 -0.1505
35191W        W78129   6.013  33.921  19.950  0.2774  0.0855  0.0873
35192W        W78130   6.005  32.346  21.062  0.3632  0.1616  0.0591
35193W        W78131   4.633  31.826  21.695 -0.0722  0.2772  0.0546
35194W        W78132   5.440  34.434  19.177 -0.0696 -0.0078  0.0187
35195W        W78133   4.481  32.132  20.461 -0.1349 -0.1490 -0.0126
35196W        W78134   6.992  33.194  21.541  0.0379 -0.0638 -0.2149
35197W        W78135   6.556  32.952  22.169  0.0585  0.2475 -0.4149
35198W        W78136   7.565  32.155  22.735  0.0204 -0.0024 -0.0409
35199W        W78137   6.638  34.228  24.482  0.1205  0.1458  0.0996
35200W        W78138   6.404  33.864  20.288 -0.2829 -0.0066  0.1628
35201W        W78139   7.549   0.212  22.966  0.2435  0.2222  0.0317
35202W        W78140   3.856  32.908  19.529  0.0528  0.2645 -0.0033
35203W        W78141   6.121  34.335  23.673 -0.0838 -0.0481 -0.0066
35204W        W78142   6.684  32.623  24.487  0.2287  0.0894  0.2645
35205W        W78143   7.416  32.082  21.279 -0.2614 -0.0410 -0.0565
35206W        W78144   4.511  33.672  22.687 -0.0246 -0.0571  0.3406
35207W        W78145   6.123  33.328  23.680 -0.1823 -0.0540  0.1576
35208W        W78146   4.642  32.916  19.461 -0.0906 -0.1231 -0.0736
35209W        W78147   3.844  32.978  21.175 -0.0316  0.1460  0.0445
35210W        W78148   6.929  32.183  20.983 -0.2655 -0.1265 -0.0587
35211W        W78149   3.665  33.477  21.458  0.0020  0.2886 -0.1413
35212W        W78150   4.556  33.083  21.473  0.2046 -0.0718  0.1239
35213W        W78151   8.235   0.045  23.655  0.1859  0.2291 -0.0008
35214W        W78152   5.645  32.271  20.663  0.0846 -0.0096 -0.0368
35215W        W78153   4.657  32.864  23.319  0.0985  0.3998  0.1328
35216W        W78154   3.214  34.225  20.970  0.0300 -0.2032 -0.1033
35217W        W78155   7.815  33.592  22.082  0.0953 -0.0263 -0.1195
35218W        W78156   4.202  32.094  21.900  0.1237  0.0148  0.0308
35219W        W78157   5.059  34.607  20.658  0.0569  0.3101 -0.1646
35220W        W78158   4.037  34.190  22.825  0.2006 -0.1278  0.0446
35221W        W78159   5.827  33.584  21.631 -0.1572 -0.2544  0.2065
35222W        W78160   5.101  33.753  20.507  0.0717  0.1556 -0.0604
35223W        W78161   4.541  34.442  20.640 -0.0041 -0.4646  0.0443
35224W        W78162   7.144  33.599  23.653 -0.0933 -0.1117  0.0191
35225W        W78163   6.371  31.841  21.964  0.0701  0.0611  0.3218
35226W        W78164   6.578  33.921  23.666  0.3286 -0.0449 -0.2391
35227W        W78165   5.133  33.690  22.761  0.2439  0.0229 -0.1898
35228W        W78166   7.774  33.475  20.281 -0.0846 -0.0064 -0.3939
35229W        W78167   5.558  32.876  21.815  0.0282  0.3000  0.0393
35230W        W78168   5.894  31.222  23.265 -0.3552  0.1083  0.2388
35231W        W78169   6.035   0.170  20.914 -0.1352  0.0260  0.2701
35232W        W78170   7.366  31.058  23.690  0.1765  0.1056  0.3420
35233W        W78171   4.113  32.136  22.419 -0.4368 -0.0738  0.2676
35234W        W78172   3.578  33.536  22.537  0.0280 -0.3948  0.1345
35235W        W78173   2.987  33.998  24.266  0.0684  0.0437 -0.0505
35236W        W78174   6.489  33.706  22.356  0.0278 -0.1114 -0.1047
35237W        W78175   4.124  32.498  20.026  0.3518 -0.1895  0.1935
35238W        W78176   4.355   1.153  23.110 -0.1338  0.1236  0.2745
35239W        W78177   7.534  34.402  21.687  0.2793 -0.2371 -0.4871
35240W        W78178   4.307  34.524  21.778 -0.4261  0.0461 -0.5070
35241W        W78179   5.053  34.032  21.390  0.2531  0.2823 -0.4074
35242W        W78180   5.834  32.962  23.519  0.2096  0.2652  0.1627
35243W        W78181   6.457  32.917  21.636  0.3176  0.1980  0.0129
35244W        W78182   5.579  33.174  21.435  0.1896  0.0705 -0.0643
35245W        W78183   7.389  32.889  23.443  0.1175 -0.0902 -0.2637
35246W        W78184   3.868  32.937  23.358 -0.2911 -0.2069 -0.2014
35247W        W78185   3.306  33.569  23.413  0.1773  0.2354 -0.0671
35248W        W78186   6.497   0.639  18.618  0.1714  0.5456 -0.3183
35249W        W78187   6.481  31.805  22.861  0.0456  0.2780 -0.0120
35250W        W78188   6.597  33.269  20.940  0.2292  0.0545 -0.2212
35251W        W78189   6.426  31.945  21.056 -0.0706  0.4116 -0.1851
35252W        W78190   4.228  32.942  20.796 -0.2717  0.2060 -0.0873
35253W        W78191   6.948  34.637  24.599  0.3111 -0.1747  0.1609
35254W        W78192   5.999  33.053  19.689 -0.1001 -0.2223  0.1469
35255W        W78193   5.860  33.892  23.806  0.3795  0.3065 -0.0728
35256W        W78194   4.882  33.948  22.285  0.1509 -0.0885  0.1749
35257W        W78195   3.409  32.859  22.091 -0.0644  0.1272 -0.0089
35258W        W78196   4.300  33.489  20.144 -0.1412  0.0556 -0.3148
35259W        W78197   5.510   0.279  21.210  0.0601  0.4454  0.0646
35260W        W78198   6.327  32.654  19.964 -0.3753  0.2872 -0.1775
35261W        W78199   7.776  32.672  23.089 -0.1286 -0.0235 -0.1019
35262W        W78200   7.596  32.283  22.288 -0.1569  0.0679  0.0801
35263W        W78201   5.669  33.734  22.746 -0.0410  0.1840 -0.4117
35264W        W78202   6.975  33.231  23.257 -0.2147  0.2057  0.1124
35265W        W78203   4.677   0.153  22.008 -0.3822  0.1172  0.1403
35266W        W78204   7.289  33.109  22.437  0.0763 -0.0213 -0.0330
35267W        W78205   3.473  33.349  21.025 -0.1451 -0.0780 -0.0648
35268W        W78206   3.587  33.957  22.747 -0.2318  0.0687 -0.1172
35269W        W78207   4.017  31.557  21.163 -0.1364  0.0417 -0.0633
35270W        W78208   4.554  33.510  19.570  0.0561 -0.0312  0.1182
35271W        W78209   6.931  33.448  19.608 -0.1236  0.1014  0.0360
35272W        W78210   7.358  33.700  21.947 -0.1929 -0.0302  0.2513
35273W        W78211   8.123  33.019  20.316 -0.0733 -0.3850 -0.0255
35274W        W78212   4.535  34.073  23.104 -0.2424 -0.1339  0.0206
35275W        W78213   6.591  33.784  21.157 -0.2943 -0.1044 -0.0116
35276W        W78214   4.843  34.547  23.885  0.0596  0.0157  0.2385
35277W        W78215   8.757  32.177  25.188  0.1337 -0.2627  0.1990
35278W        W78216   4.658  33.120  20.986 -0.0064  0.1899 -0.0792
35279W        W78217   5.961  33.531  20.292  0.0888 -0.0545 -0.0378
35280W        W78218   7.879  30.485  22.880 -0.0489  0.1580  0.1276
35281W        W78219   5.110  32.843  21.726 -0.1148 -0.4740 -0.2042
35282W        W78220   3.394  30.704  21.882  0.3184 -0.1605  0.0185
35283W        W78221   7.104  34.497  20.944 -0.3335 -0.1305 -0.0897
35284W        W78222   5.043  33.185  23.266 -0.1514 -0.1233 -0.2730
35285W        W78223   6.599  31.714  23.444 -0.0227 -0.1179 -0.2422
35286W        W78224   3.941  33.361  22.017  0.1899  0.1910  0.1711
35287W        W78225   6.557  31.695  21.505 -0.0485 -0.1827 -0.2162
35288W        W78226   4.189  33.327  21.158  0.0202 -0.1657  0.0490
35289W        W78227   4.583  32.773  20.163 -0.2252  0.2851  0.0533
35290W        W78228   7.400   0.857  24.564  0.2652  0.1970  0.0985
35291W        W78229   6.114  34.335  20.900  0.0444 -0.1751 -0.1326
35292W        W78230   4.173  33.049  20.334 -0.1308 -0.0423  0.3076
35293W        W78231   7.668  32.211  19.957  0.1099 -0.3021 -0.2370
35294W        W78232   4.675  33.828  20.028 -0.0841  0.0454 -0.2168
35295W        W78233   5.638  33.758  23.289 -0.0047 -0.1593  0.2479
35296W        W78234   4.439  32.466  20.935 -0.1646  0.1209 -0.0815
35297W        W78235   6.922  33.312  22.175  0.0349 -0.0565 -0.1047
35298W        W78236   6.541  34.132  22.159  0.0656  0.1199  0.1278
35299W        W78237   3.730  33.062  22.503 -0.0926  0.0861 -0.1122
35300W        W78238   6.245  33.493  19.879 -0.1917  0.0876  0.0244
35301W        W78239   4.365  33.824  21.147  0.0017 -0.2883 -0.1392
35302W        W78240   7.932  31.319  22.791  0.1698 -0.2454 -0.0699
35303W        W78241   6.853  33.764  23.191  0.0408  0.0242  0.0162
35304W        W78242   6.350  31.335  23.047 -0.0410 -0.1662  0.0982
35305W        W78243   6.560  32.501  21.849 -0.2772  0.1274  0.0419
35306W        W78244   5.036  32.330  21.788 -0.0851 -0.4190 -0.0979
35307W        W78245   7.946  34.209  21.319 -0.2019  0.1044 -0.1018
35308W        W78246   7.388  31.524  21.191 -0.0369  0.2472  0.1814
35309W        W78247   4.117   0.374  22.473 -0.3438  0.0481 -0.1045
35310W        W78248   3.182  34.361  21.957 -0.0157 -0.1384 -0.1190
35311W        W78249   6.528  32.986  24.067  0.0503  0.0167 -0.0153
35312W        W78250   3.514  32.590  23.773  0.2353  0.4916  0.0732
35313W        W78251   3.158  34.109  22.579 -0.1071  0.0095  0.4245
35314W        W78252   5.116  32.991  21.153  0.2434 -0.0151 -0.0813
35315W        W78253   6.352  32.784  20.885  0.1366  0.0337  0.3992
35316W        W78254   3.793  32.156  22.815 -0.3189  0.1138 -0.0540
35317W        W78255   5.915  32.790  20.704 -0.2281 -0.2351 -0.1508
35318W        W78256   5.523  33.294  23.089 -0.1140 -0.3365 -0.2637
35319W        W78257   4.434  33.489  21.709  0.2706 -0.1711 -0.0072
35320W        W78258   4.243  32.557  20.487  0.1499 -0.0254 -0.0743
35321W        W78259   5.239  33.321  20.746 -0.0616  0.1380 -0.1491
35322W        W78260   4.165  33.494  23.110 -0.1542  0.1536 -0.0098
35323W        W78261   7.258  32.322  23.337  0.1948 -0.1185 -0.0157
35324W        W78262   6.535  32.726  20.422 -0.0692 -0.0338 -0.2013
35325W        W78263   4.994  32.548  23.092  0.0014  0.0555 -0.4573
35326W        W78264   6.060  32.650  21.795  0.1240  0.0631 -0.0972
35327W        W78265   7.809  33.797  21.091 -0.0266 -0.2129 -0.2533
35328W        W78266   3.568   0.285  22.342 -0.1113  0.0475 -0.2085
35329W        W78267   6.078  32.992  20.223 -0.2992 -0.0415 -0.1701
35330W        W78268   5.845  34.341  24.091  0.3819  0.0147 -0.2395
35331W        W78269   5.239  33.903  18.588 -0.0287  0.2388 -0.0854
35332W        W78270   6.093  34.652  19.150 -0.0712  0.0933  0.0521
35333W        W78271   4.118  31.992  21.411  0.0551  0.2012  0.1592
35334W        W78272   4.159   0.146  19.565  0.1266  0.0643  0.1715
35335W        W78273   4.845  33.571  20.924 -0.0687 -0.1934  0.1626
35336W        W78274   7.561  33.948  23.814 -0.1446  0.0131  0.0627
35337W        W78275   3.912  32.527  21.588  0.0894  0.2264  0.1234
35338W        W78276   5.663  33.673  20.656  0.1301  0.1503  0.2292
35339W        W78277   4.336  33.173  25.181 -0.1535  0.0759  0.0368
35340W        W78278   6.673  33.447  23.616  0.1237 -0.1341  0.3353
35341W        W78279   7.287   1.553  25.938  0.0597 -0.0938 -0.0654
35342W        W78280   4.032  34.023  26.254 -0.0193 -0.0469 -0.0844
35343W        W78281   4.589  32.917  26.725 -0.1505 -0.1393 -0.0262
35344W        W78282   5.171   0.153  24.683 -0.2976  0.0829  0.1656
35345W        W78283   5.349  33.298  25.954 -0.1057  0.3328 -0.0021
35346W        W78284   4.550  33.610  23.887  0.1740 -0.0409 -0.1438
35347W        W78285   4.379  33.034  25.957  0.2986  0.3346 -0.1104
35348W        W78286   6.466  34.264  26.547  0.0005 -0.3201  0.2761
35349W        W78287   3.581   0.489  24.651 -0.1787 -0.1466 -0.2264
35350W        W78288   5.087  34.291  25.596 -0.1924 -0.2175 -0.3575
35351W        W78289   3.671  32.827  25.325 -0.3042 -0.2427  0.0676
35352W        W78290   5.297  32.398  25.597  0.0325  0.2191 -0.2246
35353W        W78291   5.500  33.283  28.350  0.0396 -0.1173  0.2007
35354W        W78292   4.497  32.613  22.836 -0.1362 -0.0752 -0.0225
35355W        W78293   3.534  33.362  24.970 -0.2411 -0.2493 -0.1393
35356W        W78294   5.829  33.207  26.078  0.2829  0.0216  0.1235
35357W        W78295   6.599  33.789  26.724 -0.1237  0.0296 -0.1189
35358W        W78296   6.525  34.447  25.429 -0.1700  0.1661 -0.3009
35359W        W78297   6.803  32.990  27.499  0.1963  0.1712  0.2120
35360W        W78298   5.165   0.255  26.320  0.0807  0.0366 -0.1071
35361W        W78299   6.222   0.631  25.518  0.0527 -0.0378  0.0483
35362W        W78300   6.726  32.394  26.851  0.1073 -0.2741 -0.0412
35363W        W78301   6.885  33.790  24.533 -0.2874  0.0574 -0.0437
35364W        W78302   4.286  32.780  23.631  0.0680 -0.2602 -0.2245
35365W        W78303   8.453  32.768  23.992  0.0414  0.3368 -0.3065
35366W        W78304   4.492  31.329  25.727 -0.1237 -0.1990  0.3246
35367W        W78305   4.529  33.374  25.577 -0.1547  0.3956  0.0196
35368W        W78306   6.050  33.867  24.946  0.0550 -0.0565 -0.4808
35369W        W78307   5.819  33.929  25.389 -0.0188  0.2472 -0.0348
35370W        W78308   3.481  33.795  25.442 -0.1075  0.2170  0.0307
35371W        W78309   6.531  34.556  24.923  0.2925  0.2006 -0.6259
35372W        W78310   4.014   0.920  26.625  0.0014 -0.0451 -0.4733
35373W        W78311   2.789  34.399  26.745  0.2199 -0.0597  0.0290
35374W        W78312   3.805  32.991  23.844  0.0987 -0.3746 -0.0378
35375W        W78313   5.389  34.022  24.905 -0.0363  0.1672 -0.0889
35376W        W78314   6.497  32.562  25.031 -0.1237 -0.0015  0.1618
35377W        W78315   6.284  32.523  26.358 -0.1550  0.3153 -0.1534
35378W        W78316   7.852   0.030  25.104 -0.2168  0.1590 -0.1006
35379W        W78317   4.661  32.318  26.674 -0.0245  0.1419  0.4001
35380W        W78318   3.799  32.507  26.518 -0.1186  0.1764 -0.1749
35381W        W78319   7.061  32.084  25.400  0.3594  0.3787  0.1404
35382W        W78320   4.444  33.049  27.374  0.1344  0.0886  0.2810
35383W        W78321   7.403  32.447  25.438 -0.0876 -0.0334 -0.5174
35384W        W78322   6.997  34.127  25.003 -0.2620  0.0308 -0.1311
35385W        W78323   2.830  33.618  25.466  0.2044  0.1720  0.0932
35386W        W78324   4.838  32.450  25.566  0.1173 -0.0862 -0.2284
35387W        W78325   4.882  33.109  26.338  0.3841 -0.1640 -0.0938
35388W        W78326   3.328  32.566  25.673  0.1577 -0.2291  0.2983
35389W        W78327   6.959  34.490  27.216 -0.1669  0.3790 -0.2042
35390W        W78328   4.014  31.533  24.652 -0.2991 -0.0612 -0.0873
35391W        W78329   5.905  33.931  24.393 -0.4674 -0.3525  0.3786
35392W        W78330   3.337  34.310  23.808 -0.0487 -0.0296 -0.0150
35393W        W78331   7.487  33.443  25.891 -0.0315  0.1397  0.0708
35394W        W78332   5.284  33.540  26.430  0.2022 -0.3934 -0.0440
35395W        W78333   3.564  32.041  25.604 -0.1865 -0.0230 -0.1918
35396W        W78334   3.406  32.907  24.822  0.1049 -0.2417 -0.1191
35397W        W78335   5.846  32.488  27.128 -0.1025  0.0615  0.1695
35398W        W78336   5.384  33.525  24.557  0.0079 -0.4595 -0.0863
35399W        W78337   4.102  32.316  23.704  0.1130 -0.0196 -0.0746
35400W        W78338   2.635   0.083  25.487  0.1485 -0.0963 -0.2157
35401W        W78339   7.035  34.153  25.781 -0.0208  0.1898  0.2037
35402W        W78340   4.214  34.013  27.857 -0.2636  0.0719 -0.1910
35403W        W78341   6.562  33.756  27.229 -0.0030 -0.3207  0.1361
35404W        W78342   3.595  33.907  23.642 -0.1182  0.1477 -0.0084
35405W        W78343   5.802  32.020  24.271  0.1136  0.1083  0.1013
35406W        W78344   6.946  32.274  24.206 -0.0264 -0.5280 -0.1006
35407W        W78345   5.853  33.126  25.075 -0.1917 -0.0834  0.1249
35408W        W78346   6.142  33.738  23.440 -0.3024  0.0044  0.0294
35409W        W78347   4.987  34.170  22.761 -0.3351 -0.0821  0.0674
35410W        W78348   5.255  31.218  27.096 -0.0018 -0.0210  0.0036
35411W        W78349   4.575  34.024  23.610 -0.0297  0.1348  0.0742
35412W        W78350   5.899  33.516  24.683 -0.1612 -0.0727 -0.1057
35413W        W78351   6.188  33.188  25.692  0.0485  0.0484  0.1227
35414W        W78352   5.639  33.078  24.543  0.2602 -0.0301 -0.3361
35415W        W78353   6.903  31.962  27.918  0.1490  0.1730  0.2426
35416W        W78354   6.261  33.135  26.663 -0.1438 -0.1537  0.0213
35417W        W78355   6.439   0.088  24.521  0.0149  0.2441  0.0828
35418W        W78356   8.400  34.052  26.294 -0.1187  0.1740  0.1043
35419W        W78357   3.666  33.277  22.991  0.0189 -0.2589 -0.1992
35420W        W78358   5.939  34.374  26.537  0.0653 -0.0639  0.1005
35421W        W78359   6.174  33.532  26.308 -0.1953 -0.1727 -0.1302
35422W        W78360   5.459  33.376  22.452 -0.1200  0.1373 -0.2571
35423W        W78361   3.837  33.376  25.965  0.0781 -0.0087  0.3616
35424W        W78362   6.721  32.429  26.099  0.0946  0.0669  0.2416
35425W        W78363   4.420  34.550  24.206  0.3780  0.0816  0.1480
35426W        W78364   4.166   0.276  24.874  0.1054  0.0012  0.3461
35427W        W78365   5.830   0.271  25.486 -0.0296 -0.2982 -0.3294
35428W        W78366   4.403  32.353  25.342 -0.2106 -0.1280 -0.0347
35429W        W78367   5.037  33.463  23.650 -0.0002  0.0073 -0.0738
35430W        W78368   6.060  34.524  25.563  0.0983 -0.0270 -0.0746
35431W        W78369   7.043  32.455  25.765 -0.0788 -0.2513  0.1719
35432W        W78370   5.055  34.309  27.553 -0.1587 -0.1456  0.0049
35433W        W78371   4.038   0.160  23.992  0.3898 -0.2902 -0.1611
35434W        W78372   6.683  33.928  26.229 -0.4846 -0.0117 -0.0009
35435W        W78373   3.643  34.313  24.772  0.0330 -0.3004  0.2201
35436W        W78374   4.625  34.300  25.010  0.1951 -0.3072 -0.0633
35437W        W78375   5.484  34.276  27.918 -0.0291 -0.1204  0.2973
35438W        W78376   5.891  32.838  26.459 -0.1248  0.0039 -0.0650
35439W        W78377   4.968  34.336  24.463 -0.1492  0.1020  0.1880
35440W        W78378   6.172  33.690  25.770 -0.0376  0.1071  0.1849
35441W        W78379   6.114  34.443  26.030  0.0286 -0.3124  0.1128
35442W        W78380   5.645  31.619  26.202 -0.2162 -0.1068  0.0388
35443W        W78381   7.220  33.304  27.045 -0.0838 -0.6206 -0.0424
35444W        W78382   6.343  32.998  26.175  0.0903  0.0869  0.1420
35445W        W78383   7.256  31.667  25.069 -0.0458  0.3432 -0.2158
35446W        W78384   3.793  33.483  24.004  0.1836  0.1563  0.3794
35447W        W78385   7.456  32.334  26.672 -0.2378 -0.0663 -0.1295
35448W        W78386   6.366  34.327  24.081  0.2413 -0.1011 -0.2341
35449W        W78387   6.424  33.703  28.343  0.1344  0.1804 -0.1171
35450W        W78388   4.900  33.018  25.854 -0.0547  0.0274  0.2071
35451W        W78389   3.972  33.034  26.394 -0.1491 -0.1514  0.0883
35452W        W78390   4.814  33.503  26.648  0.1667  0.1926 -0.2869
35453W        W78391   6.539  33.212  25.342  0.0760 -0.1413  0.0548
35454W        W78392   4.182  32.615  24.562 -0.0316 -0.0807 -0.0537
35455W        W78393   4.226  34.681  25.503  0.0465  0.0736 -0.0567
35456W        W78394   7.398  33.297  25.374  0.0940  0.4288  0.1741
35457W        W78395   4.207   0.340  26.391 -0.0807 -0.1256  0.3284
35458W        W78396   6.153  33.505  25.288 -0.0759  0.1091 -0.0600
35459W        W78397   4.324  32.031  27.561 -0.1687 -0.0890 -0.3211
35460W        W78398   5.073  33.585  24.970 -0.0137  0.0484  0.0583
35461W        W78399   4.552  34.154  26.155 -0.0679  0.0418  0.1545
35462W        W78400   5.708  33.663  26.088 -0.0465 -0.3535  0.1114
35463W        W78401   6.620  34.220  27.056  0.1672  0.0124 -0.0522
35464W        W78402   3.863  33.390  27.219 -0.2571  0.1041 -0.1809
35465W        W78403   7.510  34.681  24.319  0.0177 -0.2371  0.1150
35466W        W78404   6.518  32.713  25.773 -0.0659 -0.3059  0.2293
35467W        W78405   6.752  33.365  26.908  0.3046 -0.3109 -0.1085
35468W        W78406   5.326  33.223  24.164 -0.3832 -0.1271 -0.1051
35469W        W78407   4.031  32.955  25.608  0.1350 -0.0029 -0.1805
35470W        W78408   6.353  34.208  28.114  0.1778  0.2885  0.0108
35471W        W78409   4.648  32.928  22.001 -0.1969  0.0173 -0.2282
35472W        W78410   5.547  34.183  26.301  0.0581 -0.1640 -0.1871
35473W        W78411   6.252  32.604  24.223 -0.1901  0.1369  0.2511
35474W        W78412   3.840  33.848  25.822  0.0873  0.1278 -0.1796
35475W        W78413   3.518  33.018  24.288 -0.1202  0.3395 -0.4261
35476W        W78414   6.254  33.762  24.017  0.0965  0.3471 -0.0259
35477W        W78415   6.067  32.076  22.709  0.2979  0.1364  0.0255
35478W        W78416   7.087  33.711  26.032  0.4532  0.3939  0.1845
35479W        W78417   6.181  32.749  25.407  0.0954  0.0929 -0.1480
35480W        W78418   5.336  32.663  24.659  0.0175  0.0018 -0.2886
35481W        W78419   4.872  33.934  25.215 -0.0788  0.0814  0.1891
35482W        W78420   5.983  34.547  24.610  0.2171 -0.0941  0.0661
35483W        W78421   7.539  33.990  25.839  0.0939  0.1536 -0.1428
35484W        W78422   3.562   0.140  25.578 -0.2368  0.2386  0.2771
35485W        W78423   3.455  34.050  26.724  0.2629  0.0104  0.1651
35486W        W78424   5.096  33.773  23.263 -0.0530 -0.0398  0.1630
35487W        W78425   3.477  32.388  24.643 -0.0317  0.0451 -0.1779
35488W        W78426   6.723  31.734  24.163  0.0991 -0.0597  0.2581
35489W        W78427   5.661   0.783  25.503 -0.0656 -0.0524 -0.0977
35490W        W78428   9.136  32.349  24.418  0.0533  0.0280 -0.0621
35491W        W78429   4.768  33.548  26.142 -0.0232 -0.1730  0.1583
35492W        W78430   6.205  33.286  22.269  0.1095 -0.0701  0.1206
35493W        W78431   6.109  34.325  27.281 -0.3539 -0.1397 -0.1644
35494W        W78432   8.460  33.780  27.139  0.0376  0.0027 -0.5089
35495W        W78433   3.353  33.926  24.632 -0.2744  0.0668 -0.0119
35496W        W78434   6.400   0.074  23.837 -0.0011 -0.1241  0.1907
35497W        W78435   7.619  32.414  27.667  0.2301  0.2577  0.2673
35498W        W78436   5.397  34.050  24.426  0.0024  0.0770 -0.0931
35499W        W78437   3.999  30.979  24.632  0.0230  0.0796 -0.2543
35500W        W78438   6.640  33.632  25.115  0.2389 -0.1036  0.0695
35501W        W78439   4.707  33.950  27.626  0.0429 -0.0132 -0.0413
35502W        W78440   6.962  33.647  25.525 -0.0565 -0.0183 -0.1682
35503W        W78441   3.908  33.884  24.594  0.1593  0.0153  0.0299
35504W        W78442   6.593  32.253  25.491 -0.0044 -0.3401 -0.0432
35505W        W78443   4.607  34.681  26.525  0.1118  0.1321 -0.1826
35506W        W78444   5.578  33.384  23.701  0.2344 -0.3001 -0.1597
35507W        W78445   8.172  34.660  26.954  0.2522 -0.1166 -0.0077
35508W        W78446   6.418  33.613  22.944 -0.3576  0.0274 -0.2485
35509W        W78447   3.091  32.018  25.388  0.0783 -0.1858  0.1708
35510W        W78448   6.712  33.182  24.540 -0.1284 -0.1675  0.4099
35511W        W78449   4.148  34.480  26.344  0.0660  0.3416 -0.0810
35512W        W78450   6.122  33.782  27.393  0.2656 -0.3560 -0.0639
35513W        W78451   4.568  33.500  24.941 -0.3176  0.3513 -0.0331
35514W        W78452   6.263  32.666  26.860 -0.2290 -0.2221 -0.1077
35515W        W78453   7.666  34.425  26.081 -0.1060 -0.1014 -0.0915
35516W        W78454   4.199  33.743  25.459  0.3708 -0.3610  0.0155
35517W        W78455   5.085  32.698  24.157  0.0694 -0.0534 -0.0267
35518W        W78456   5.753  33.434  25.561 -0.0111 -0.2405  0.0983
35519W        W78457   8.008  32.834  26.006  0.3837  0.3524  0.1079
35520W        W78458   6.492  33.369  27.594  0.0463 -0.0909 -0.0686
35521W        W78459   7.029  31.283  26.323  0.4397 -0.0137 -0.0136
35522W        W78460   4.169  33.763  23.567 -0.3547 -0.0981  0.2917
35523W        W78461   5.263  32.982  23.691  0.0231 -0.1764 -0.3863
35524W        W78462   5.906  31.908  23.778 -0.1911  0.5927 -0.0229
35525W        W78463   6.813  31.353  25.137 -0.2268  0.0231 -0.1358
35526W        W78464   6.002   0.377  28.098  0.1173 -0.2994 -0.1091
35527W        W78465   5.397  34.469  24.162 -0.3328 -0.1283  0.1757
35528W        W78466   5.799  32.745  29.086  0.0159 -0.0617  0.0987
35529W        W78467   5.597  34.255  27.351  0.1248 -0.1265  0.1757
35530W        W78468   3.161   0.658  24.187  0.0858 -0.2564  0.0725
35531W        W78469   3.852  34.372  24.123  0.0818 -0.1027 -0.0010
35532W        W78470   4.755  33.136  24.234 -0.0147  0.1322  0.0647
35533W        W78471   3.452  32.290  26.160 -0.1138  0.3721  0.2077
35534W        W78472   5.021  31.604  25.250 -0.1219  0.1905  0.2522
35535W        W78473   5.125  33.110  26.789 -0.1262  0.1368 -0.0418
35536W        W78474   5.711  33.765  27.089  0.2406  0.0657  0.0229
35537W        W78475   2.649  32.411  23.613 -0.0122 -0.2377  0.2309
35538W        W78476   6.990  33.843  27.010  0.0964  0.0453 -0.3743
35539W        W78477   4.118  32.093  26.596 -0.1682  0.4520  0.1172
35540W        W78478   8.323  32.195  25.458  0.3411 -0.1157 -0.1829
35541W        W78479   6.706  32.150  24.840  0.1175 -0.4838  0.0567
35542W        W78480   3.117  33.071  26.818  0.0046  0.0286 -0.0931
35543W        W78481   3.292  33.105  23.799 -0.2466 -0.2983  0.0109
35544W        W78482   5.780  33.454  24.183  0.2307  0.0490  0.1881
35545W        W78483   2.926  34.105  25.396  0.0348 -0.0257 -0.0617
35546W        W78484   5.524  32.629  23.999 -0.0428 -0.1292 -0.1737
35547W        W78485   5.788  33.860  26.573 -0.1878  0.4111 -0.0226
35548W        W78486   4.547  34.045  24.197  0.0857 -0.2547  0.3610
35549W        W78487   7.340  34.435  25.219  0.0006  0.0523  0.2164
35550W        W78488   4.389  32.638  26.351  0.1364 -0.1215 -0.1792
35551W        W78489   4.249  33.973  25.017 -0.2288  0.0436  0.2655
35552W        W78490   4.047  33.500  24.970  0.1152 -0.0361  0.0315
35553W        W78491   6.625  33.381  26.421 -0.1966 -0.0645  0.0553
35554W        W78492   5.567  33.523  25.106 -0.1901 -0.1878 -0.2173
35555W        W78493   6.600  32.545  23.879  0.4680  0.1692 -0.0952
35556W        W78494   4.689  33.903  28.437  0.0621  0.0669 -0.1037
35557W        W78495   6.531  32.122  27.628  0.0276  0.2104  0.0446
35558W        W78496   7.848  34.278  26.970 -0.1285  0.1793 -0.6116
35559W        W78497   5.683  32.494  29.653 -0.0262 -0.2450 -0.1720
35560W        W78498   3.737  31.714  30.618 -0.0263 -0.0618  0.0782
35561W        W78499   6.477  34.638  27.339  0.1760  0.0445 -0.1335
35562W        W78500   5.862  33.427  30.083  0.2655  0.2430 -0.0605
35563W        W78501   5.577  31.426  28.124  0.1335  0.4700 -0.2722
35564W        W78502   4.167  32.331  29.980 -0.0714 -0.2084 -0.1861
35565W        W78503   5.955  34.647  30.405  0.0464  0.0081 -0.1178
35566W        W78504   6.087  33.647  28.787 -0.3511  0.1934 -0.0676
35567W        W78505   6.496  33.669  29.588  0.2750 -0.0192 -0.1271
35568W        W78506   5.183  33.926  28.466 -0.1781 -0.0178 -0.0436
35569W        W78507   6.060  32.013  31.190  0.0842 -0.1571  0.0218
35570W        W78508   6.839  33.686  30.078  0.0580 -0.2287  0.2539
35571W        W78509   3.966   0.023  26.747  0.0480  0.0645  0.1152
35572W        W78510   3.726  33.989  29.459 -0.0638  0.0343  0.1308
35573W        W78511   5.799  33.351  30.693 -0.1370  0.2471 -0.0695
35574W        W78512   6.348  33.333  30.373  0.0906  0.0653  0.0957
35575W        W78513   8.158   0.504  28.631 -0.1111 -0.0688 -0.0214
35576W        W78514   6.389   0.353  31.640  0.0067  0.2305 -0.4057
35577W        W78515   6.714   1.335  29.735  0.0804  0.3832  0.0003
35578W        W78516   6.430  34.074  29.174  0.1167  0.2583 -0.1012
35579W        W78517   6.924  33.903  31.816 -0.1130  0.1162 -0.4235
35580W        W78518   7.574  33.447  26.730  0.0952  0.1396 -0.1423
35581W        W78519   5.517  33.847  28.087 -0.0531 -0.4344  0.1269
35582W        W78520   7.252  33.511  28.730  0.1840  0.0263  0.0864
35583W        W78521   5.640  32.263  30.323 -0.2019 -0.3516 -0.0190
35584W        W78522   5.159  33.590  30.525  0.1378  0.0903  0.1532
35585W        W78523   4.417  33.999  29.189  0.1101 -0.1238 -0.1493
35586W        W78524   6.747  33.851  30.923 -0.0826  0.2404 -0.0776
35587W        W78525   4.497  32.248  28.361  0.1833  0.2991  0.3149
35588W        W78526   3.917   0.749  27.764 -0.0453  0.0533  0.1019
35589W        W78527   5.779   0.791  31.606  0.0911  0.1574 -0.0168
35590W        W78528   4.063   0.663  30.615 -0.1976  0.2769  0.1122
35591W        W78529   5.312  33.790  27.532 -0.1606  0.1182  0.1831
35592W        W78530   7.872  33.468  29.639 -0.4337 -0.1284 -0.0390
35593W        W78531   5.783  31.543  29.857  0.3664 -0.1597 -0.1597
35594W        W78532   6.234  31.713  29.460 -0.0040 -0.0782 -0.5235
35595W        W78533   7.475   0.365  28.653 -0.0840  0.1366  0.0277
35596W        W78534   5.558  33.240  29.341  0.0029  0.0616  0.5344
35597W        W78535   5.946  32.917  31.498 -0.1051 -0.2307  0.0519
35598W        W78536   6.831  33.611  27.957  0.1512  0.3244  0.1905
35599W        W78537   5.742  33.354  31.295  0.1962 -0.1686 -0.3511
35600W        W78538   6.240  31.081  29.430  0.0158 -0.1888 -0.1515
35601W        W78539   7.020  33.176  27.942  0.1765 -0.0333  0.0782
35602W        W78540   4.713  34.467  29.755  0.2089  0.2082  0.3006
35603W        W78541   5.243  32.257  29.389 -0.3744  0.0006  0.0320
35604W        W78542   4.801  33.392  30.102 -0.1022  0.2695  0.3680
35605W        W78543   4.346  34.183  29.973  0.0921  0.2236 -0.1273
35606W        W78544   6.372  33.898  31.852  0.0405 -0.2008 -0.0832
35607W        W78545   4.905  32.395  28.642 -0.1708 -0.4197 -0.1437
35608W        W78546   7.678  34.604  28.765 -0.1299 -0.1823 -0.0652
35609W        W78547   6.141  34.056  29.665  0.0170 -0.1022 -0.2635
35610W        W78548   7.731  32.424   0.250  0.2084 -0.2986 -0.0375
35611W        W78549   6.290  33.549  30.838  0.2328 -0.0273 -0.1448
35612W        W78550   4.129  32.300  27.925  0.0517 -0.1668 -0.3329
35613W        W78551   4.972  32.991  27.468  0.0231 -0.0863  0.2611
35614W        W78552   6.979  32.311  31.525  0.0490 -0.3862  0.0895
35615W        W78553   5.897  33.148  28.610 -0.0424  0.1980  0.2134
35616W        W78554   5.536  33.290  27.175  0.0666  0.0014 -0.2165
35617W        W78555   3.825   0.059  28.074  0.0093 -0.1989 -0.0855
35618W        W78556   6.890  34.400  29.439  0.1447 -0.0725 -0.1615
35619W        W78557   2.976  34.414  31.341 -0.1720 -0.1658 -0.2165
35620W        W78558   5.811  34.053  30.049 -0.0446 -0.2860  0.0052
35621W        W78559   4.587  34.365  27.909 -0.1348 -0.1279 -0.2808
35622W        W78560   6.768  33.109  29.006 -0.2956 -0.1941  0.1030
35623W        W78561   7.494  33.209  28.287 -0.4257  0.3435 -0.0596
35624W        W78562   6.212  32.872  28.323 -0.0445 -0.0047  0.3355
35625W        W78563   5.555  32.962  27.897 -0.0005  0.1738 -0.3601
35626W        W78564   5.709  32.739  28.305 -0.2524  0.2943  0.2443
35627W        W78565   5.339  33.485  31.036 -0.0810 -0.1281 -0.1599
35628W        W78566   4.351  33.883  26.582  0.0731 -0.0561 -0.0351
35629W        W78567   6.276  33.772  30.061 -0.0352 -0.1450  0.2088
35630W        W78568   6.758  31.425  30.724  0.2236  0.1764 -0.0385
35631W        W78569   6.547  32.194  30.258  0.0228  0.2921 -0.0444
35632W        W78570   6.145  32.488  30.467 -0.3343  0.0525  0.0002
35633W        W78571   8.080  33.324  30.661 -0.1223  0.1777 -0.1636
35634W        W78572   6.840  34.080  27.988  0.2488  0.0952 -0.1672
35635W        W78573   7.033   0.480  28.245  0.1576 -0.0815 -0.0680
35636W        W78574   6.179  33.596  26.917 -0.2535 -0.0131  0.1953
35637W        W78575   6.820  33.106  30.267  0.1596 -0.1429 -0.2472
35638W        W78576   6.241  33.715  31.360  0.2246  0.4952 -0.0937
35639W        W78577   6.044  32.923  29.536 -0.0347  0.1433 -0.0001
35640W        W78578   6.463  33.160  29.403 -0.3599  0.3205  0.0101
35641W        W78579   6.936  32.243  29.820 -0.1771  0.1759 -0.0204
35642W        W78580   5.947  33.623  28.274  0.2661 -0.1493 -0.1323
35643W        W78581   5.431  33.103  28.855 -0.0996  0.4800  0.0506
35644W        W78582   7.952  32.878  29.431 -0.2401  0.1532 -0.0751
35645W        W78583   6.522  32.596  31.448  0.5499 -0.1875 -0.1235
35646W        W78584   6.697  34.345  30.677  0.2224  0.1251  0.2080
35647W        W78585   6.265  34.095  30.877  0.3740 -0.2622  0.3286
35648W        W78586   7.500  32.643  29.224  0.0444  0.0176 -0.1586
35649W        W78587   5.276   0.116  31.898  0.0367 -0.2118  0.2661
35650W        W78588   3.487  32.646  28.302 -0.0748  0.1811 -0.2758
35651W        W78589   6.729  33.292  30.725 -0.0141  0.0133 -0.0617
35652W        W78590   5.100  33.461  28.689  0.1601 -0.2804 -0.0425
35653W        W78591   5.263   0.866  28.671  0.2087 -0.3795  0.3787
35654W        W78592   6.648  33.641   0.214 -0.2057  0.1156 -0.0095
35655W        W78593   6.346  33.135  29.909 -0.1019  0.1841 -0.1127
35656W        W78594   5.602  33.062  29.854 -0.1813 -0.0418 -0.0742
35657W        W78595   5.865  34.597  29.332  0.1258 -0.0902 -0.2399
35658W        W78596   6.042  33.441  29.588 -0.0340 -0.6601 -0.1984
35659W        W78597   7.165  30.965  30.769  0.2854  0.0215  0.1167
35660W        W78598   6.715  33.070  31.512 -0.0914  0.2888  0.1216
35661W        W78599   5.107  33.036  30.053 -0.0863 -0.0377  0.2977
35662W        W78600   6.993  32.661  28.839  0.0604 -0.2679 -0.1543
35663W        W78601   6.825  33.348  29.756  0.2436 -0.1624 -0.0055
35664W        W78602   8.361  33.929   0.774  0.0009 -0.3322  0.1305
35665W        W78603   7.006  33.905  29.059  0.3031  0.0030  0.1401
35666W        W78604   6.776   0.065   0.063  0.2276 -0.2152 -0.1154
35667W        W78605   5.550  33.931  30.469  0.1132  0.0407 -0.0300
35668W        W78606   3.966  33.509  29.844 -0.0199  0.1454 -0.0825
35669W        W78607   4.020  33.409  31.265 -0.0616  0.0627  0.1346
35670W        W78608   7.883  34.418  28.348 -0.1143 -0.1499 -0.0787
35671W        W78609   5.228  33.738  26.861 -0.2928 -0.2577  0.0980
35672W        W78610   6.345  34.503  29.474 -0.0282 -0.1855 -0.3228
35673W        W78611   7.301  33.944  27.796 -0.2974 -0.1334  0.1018
35674W        W78612   4.892  34.462  31.698 -0.0339  0.2742 -0.0589
35675W        W78613   6.414  34.089  28.632 -0.0636  0.0088 -0.2110
35676W        W78614   6.659  32.424  30.725 -0.0483  0.2378  0.0093
35677W        W78615   6.553  32.689  30.124 -0.1418  0.2996  0.0880
35678W        W78616   7.237  32.805  31.546 -0.1385  0.0821  0.2244
35679W        W78617   7.771  34.285  29.697 -0.0553 -0.2568 -0.1297
35680W        W78618   4.173  33.345  30.835  0.2070 -0.1655  0.0709
35681W        W78619   4.359  33.060  31.173  0.0163  0.1301 -0.0271
35682W        W78620   7.034  32.483  27.373  0.0084 -0.0956 -0.1392
35683W        W78621   7.767  31.980  30.099  0.0207  0.0057 -0.3001
35684W        W78622   5.942  34.049  27.820 -0.1962 -0.1398  0.0649
35685W        W78623   5.396   0.017  28.209  0.0153  0.0746  0.0713
35686W        W78624   5.636  33.647  29.750  0.0736 -0.1098  0.0905
35687W        W78625   5.633   0.280  31.431 -0.0204 -0.1714 -0.0086
35688W        W78626   5.275  32.619  29.023  0.1619  0.2722 -0.0657
35689W        W78627   6.974  32.427  30.333 -0.1125 -0.0760  0.0000
35690W        W78628   6.487  33.571  29.102 -0.0063  0.0223 -0.1811
35691W        W78629   5.680  34.194  29.573  0.0205  0.3350 -0.0570
35692W        W78630   3.323  33.620  27.588 -0.0979 -0.1704 -0.1888
35693W        W78631   6.054  34.611  28.237  0.1430 -0.0718 -0.0029
35694W        W78632   6.613  32.559  29.170  0.0553  0.2280  0.1989
35695W        W78633   6.673  32.807  31.049 -0.0662  0.1770 -0.0566
35696W        W78634   6.344  32.186  29.767 -0.1024 -0.1169  0.3666
35697W        W78635   5.976  32.906  30.850 -0.1064 -0.0847  0.2679
35698W        W78636   6.987  34.341  31.618  0.2994  0.2867 -0.1975
35699W        W78637   6.569   0.420  30.610  0.0654 -0.2238  0.0025
35700W        W78638   8.149  34.193  30.011  0.3811  0.2880 -0.0100
35701W        W78639   7.046  34.367  30.285 -0.2768 -0.2744  0.0291
35702W        W78640   4.299  33.275  30.389 -0.2227  0.1979  0.1587
35703W        W78641   5.798  31.841  29.218 -0.0416 -0.1814 -0.2967
35704W        W78642   4.431  33.417  26.957  0.1675  0.0533  0.1287
35705W        W78643   6.025  33.190  28.006 -0.0707 -0.0863  0.1542
35706W        W78644   6.537  33.842  30.495 -0.1778 -0.5296 -0.0353
35707W        W78645   7.255  33.712  28.294 -0.1903 -0.3857  0.2335
35708W        W78646   6.764  33.579  28.702  0.4009  0.0748 -0.0904
35709W        W78647   5.129  32.850  28.480  0.1217  0.0842  0.3909
35710W        W78648   5.222  34.145  31.564 -0.0811  0.2132 -0.1580
35711W        W78649   6.727  31.937  30.739  0.1084 -0.1097 -0.0747
35712W        W78650   5.270  33.330  27.684  0.2068 -0.1393 -0.3388
35713W        W78651   6.789   0.722  28.679  0.0517  0.0399  0.3716
35714W        W78652   7.796  31.628  30.510  0.0432  0.2279 -0.2981
35715W        W78653   6.976  33.227  28.443  0.1657 -0.0221 -0.0727
35716W        W78654   5.011  33.156  29.179  0.0946  0.0536 -0.0350
35717W        W78655   8.056  33.922  28.972 -0.3561 -0.0253 -0.2846
35718W        W78656   4.373  33.736  31.137  0.0995 -0.1050 -0.0105
35719W        W78657   8.079  32.596  30.003  0.1176 -0.3332  0.4357
35720W        W78658   5.283  33.903  29.565  0.3757  0.1218 -0.1928
35721W        W78659   7.363  34.246  28.263 -0.0433 -0.3908  0.0121
35722W        W78660   5.789  33.760  29.215  0.0678  0.0059  0.0433
35723W        W78661   6.303  33.696  27.876 -0.0212 -0.2132  0.0936
35724W        W78662   7.633  34.181  30.405  0.1613 -0.0827 -0.2136
35725W        W78663   6.977  32.883  26.987 -0.0075 -0.0710  0.2393
35726W        W78664   5.420  32.141  29.894  0.3936  0.0449  0.1697
35727W        W78665   6.533  33.206  28.128  0.2123  0.0774 -0.2345
35728W        W78666   5.332  34.047  30.022 -0.1848 -0.0498  0.0999
35729W        W78667   5.841  33.752  31.010 -0.1759 -0.1223  0.0527
35730W        W78668   4.917  32.100  29.750  0.1978 -0.2960 -0.0264
35731W        W78669   7.032  32.868  30.693 -0.2885 -0.1420  0.1363
35732W        W78670   8.106   0.104  29.017 -0.0338 -0.3582 -0.1218
35733W        W78671   5.189  33.656  29.131 -0.2411 -0.0009  0.2767
35734W        W78672   7.641  33.276  29.232  0.0814 -0.1061  0.2962
35735W        W78673   4.207  33.878  29.629  0.0034 -0.0346  0.3737
35736W        W78674   7.333  33.512  29.989 -0.1505  0.2307  0.0155
35737W        W78675   7.653  33.834  30.825  0.4453 -0.1470 -0.0938
35738W        W78676   8.825  32.271  31.371 -0.2256 -0.1905 -0.0418
35739W        W78677   5.588  33.656  28.772 -0.0531  0.1933  0.1926
35740W        W78678   5.890  32.964  30.323 -0.1836  0.1357 -0.1501
35741W        W78679   7.988  33.049  28.376  0.1176 -0.0810 -0.1687
35742W        W78680   7.111  31.376  29.634  0.3477  0.1037 -0.0438
35743W        W78681   5.271   2.550  29.747 -0.1356  0.2394  0.1754
35744W        W78682   3.331  34.077  25.840 -0.0966  0.0460  0.1779
35745W        W78683   6.577  32.178  31.139  0.0911  0.0311 -0.0929
35746W        W78684   4.600  32.875  31.690 -0.3405  0.1979 -0.0611
35747W        W78685   4.258  34.403  29.515 -0.2339  0.2088  0.3063
35748W        W78686   4.848  32.909  29.617 -0.0035 -0.0664 -0.0953
35749W        W78687   5.392  33.153  30.431 -0.2527  0.2510  0.0034
35750W        W78688   4.280  32.669  29.637 -0.0996  0.0107  0.1862
35751W        W78689   4.792  33.430  27.684  0.1494 -0.0216 -0.0094
35752W        W78690   6.301  33.120  31.170  0.0157  0.1710  0.1289
35753W        W78691   6.252  34.229  30.358  0.0508  0.0688  0.1237
35754W        W78692   4.413  32.982  28.540 -0.1663  0.0957  0.1128
35755W        W78693   6.674  34.108  29.963  0.1690  0.2258 -0.0346
35756W        W78694   4.114  33.052  31.602 -0.1361 -0.3411  0.4718
35757W        W78695   7.492  32.813  31.043 -0.0151 -0.1498 -0.1809
35758W        W78696   6.769  34.384  28.958 -0.0550 -0.0351  0.1447
35759W        W78697   4.673  32.922  30.272  0.0276  0.1877  0.3668
35760W        W78698   5.140  32.544  29.864  0.0714 -0.3399 -0.3548
35761W        W78699   6.157  32.406  29.319  0.0205  0.1227  0.0209
35762W        W78700   4.816  33.823  29.870 -0.2646  0.1505 -0.1212
35763W        W78701   5.868  32.990  26.972 -0.2751  0.1058 -0.0045
35764W        W78702   4.767  33.852  30.415 -0.0187 -0.1766  0.0371
35765W        W78703   6.642  34.523  28.422  0.4388  0.2667  0.5165
35766W        W78704   7.324   0.203  27.306  0.0483 -0.0973  0.0276
35767W        W78705   3.403  32.792  30.197  0.2990  0.0838 -0.2732
35768W        W78706   3.241   0.426  26.761 -0.4302 -0.4221 -0.1313
35769W        W78707   5.930  34.149  28.370 -0.0827 -0.1445  0.2499
35770W        W78708   6.584  33.098   0.040  0.0619  0.1084 -0.0417
35771W        W78709   5.109  33.417  29.604 -0.0796  0.0942 -0.0967
35772W        W78710   6.293  32.868  29.052  0.2708  0.1381  0.2029
35773W        W78711   7.726  33.025  31.677  0.1920 -0.0428 -0.0601
35774W        W78712   6.610  33.480   1.328  0.1127  0.1406  0.0267
35775W        W78713   6.052  33.778  30.496  0.2526 -0.2064  0.0010
35776W        W78714   5.362  34.044  31.001  0.2640 -0.0553  0.1143
35777W        W78715   6.625  32.515   0.365 -0.0615  0.0280 -0.2037
35778W        W78716   5.839   0.401  31.868 -0.0943 -0.0452  0.1705
35779W        W78717   5.389  33.268   0.829  0.1094  0.0610  0.0277
35780W        W78718   6.273   0.878  31.708  0.0455  0.0908  0.3279
35781W        W78719   4.216  31.431   0.141  0.2076 -0.4345 -0.0736
35782W        W78720   4.407  34.596  31.786  0.3594  0.0045 -0.2695
35783W        W78721   5.678  32.124   0.232 -0.2767 -0.2359 -0.2569
35784W        W78722   7.239  32.522   0.512 -0.3797 -0.0286  0.1412
35785W        W78723   7.190  33.958  30.513  0.0824  0.2537 -0.0463
35786W        W78724   7.365  32.813   0.070  0.1549 -0.0474  0.0260
35787W        W78725   6.610  34.028  31.386 -0.0245 -0.0010  0.1014
35788W        W78726   4.984  34.339   0.633 -0.1690 -0.2587  0.0650
35789W        W78727   4.894  34.262  31.146 -0.1362 -0.0427 -0.0636
35790W        W78728   6.185  33.918   0.348 -0.0380 -0.2346  0.0571
35791W        W78729   6.922  32.888   0.319 -0.4674  0.0804  0.2297
35792W        W78730   5.545  33.833   0.085 -0.2694  0.2199  0.2915
35793W        W78731   6.446  34.141   0.723 -0.1317  0.1278 -0.6184
35794W        W78732   6.095  34.484   0.585 -0.0700  0.1137  0.1042
35795W        W78733   5.876   1.022  30.756  0.4321  0.0147 -0.1289
35796W        W78734   5.576  31.481  30.705 -0.0235 -0.1734 -0.0850
35797W        W78735   5.547  33.044  30.974 -0.0418 -0.0053  0.0410
35798W        W78736   5.776  34.666   0.202 -0.2634 -0.1005 -0.0238
35799W        W78737   5.521  33.278  31.854 -0.2170  0.1057 -0.0519
35800W        W78738   7.325  33.364   1.447 -0.1954  0.1530  0.0829
35801W        W78739   6.442  33.426  31.696 -0.2960  0.4785 -0.0505
35802W        W78740   6.409  33.226  28.641 -0.0869  0.2175 -0.0325
35803W        W78741   5.350   0.051   0.545 -0.0042  0.1024  0.2268
35804W        W78742   4.302  34.618   0.307  0.1565 -0.0080  0.1180
35805W        W78743   4.729  32.582   0.609  0.0751  0.1958 -0.0934
35806W        W78744   8.010  34.469  31.928  0.0319 -0.1990 -0.0985
35807W        W78745   9.039   2.139  19.094  0.0364  0.0133 -0.0388
35808W        W78746   7.504   2.481  18.065 -0.1436 -0.1109  0.0552
35809W        W78747  10.635   0.787  16.430  0.0486 -0.3294 -0.1794
35810W        W78748   9.517   3.416  16.440 -0.0320 -0.1252  0.0802
35811W        W78749   7.609  33.631  17.286  0.3299  0.0609  0.0686
35812W        W78750  10.581   2.876  18.166  0.1791  0.0414  0.0947
35813W        W78751   7.901   0.765  19.494  0.0435 -0.1123 -0.0791
35814W        W78752  10.664   2.100  18.421 -0.1167  0.1186  0.1494
35815W        W78753  10.213   3.227  17.586 -0.1081  0.3001 -0.1714
35816W        W78754   7.313   2.243  16.594  0.0899  0.0212 -0.2523
35817W        W78755   7.878   2.479  18.879 -0.2451  0.0981 -0.0096
35818W        W78756   9.322   3.319  19.932 -0.1138 -0.2879 -0.4918
35819W        W78757   7.686   0.559  15.974  0.1644  0.1124  0.1306
35820W        W78758   6.475   1.595  18.134  0.1777  0.0667  0.2340
35821W        W78759  10.143   1.762  18.173 -0.1343 -0.2469  0.0996
35822W        W78760   7.020   1.827  16.497 -0.0951  0.1874 -0.1010
35823W        W78761   6.816   1.649  18.623 -0.1420 -0.0983 -0.0615
35824W        W78762   7.743   1.111  15.939 -0.1213 -0.1010  0.0991
35825W        W78763   8.951   3.101  18.021 -0.2365 -0.0589 -0.0629
35826W        W78764   7.907   1.889  20.873  0.1993  0.1340  0.0552
35827W        W78765   9.131   1.940  18.642 -0.0350  0.1047  0.1661
35828W        W78766   9.731   2.651  18.116  0.0505 -0.0218 -0.0092
35829W        W78767   6.876   1.990  15.746  0.0397  0.0983  0.1737
35830W        W78768   6.436   2.078  18.270 -0.0711 -0.0681  0.1894
35831W        W78769   7.072   2.166  19.546 -0.1377  0.4198 -0.0874
35832W        W78770   9.481   1.866  17.841  0.2155 -0.1625 -0.0253
35833W        W78771   8.069   1.083  16.493 -0.0788 -0.2432 -0.1751
35834W        W78772   9.907   3.880  17.747  0.2585  0.0406 -0.4911
35835W        W78773  10.809   3.084  17.669  0.1958 -0.3753 -0.0489
35836W        W78774   9.771   1.262  19.979 -0.0021  0.1832 -0.0133
35837W        W78775   9.158   2.697  17.250  0.3394  0.0906  0.0585
35838W        W78776   8.275   3.435  17.468  0.0805  0.0016  0.2605
35839W        W78777   8.968   3.733  17.680  0.2881 -0.3623 -0.1186
35840W        W78778  10.342   2.841  17.283  0.1851 -0.1691  0.2966
35841W        W78779   9.735   2.876  20.075 -0.0123  0.2728  0.1112
35842W        W78780   9.066   4.128  19.925 -0.1037 -0.0873  0.0177
35843W        W78781   6.754   2.330  16.630  0.2894  0.2346  0.2234
35844W        W78782   8.514   3.314  21.592  0.0253  0.1239  0.2451
35845W        W78783   8.404   3.332  20.613 -0.1125 -0.0211  0.2435
35846W        W78784   9.127   1.410  17.685  0.4175 -0.1654 -0.1696
35847W        W78785   8.443   3.179  18.465 -0.1250 -0.0374 -0.0537
35848W        W78786   9.159   4.165  17.447  0.0707 -0.0113  0.5041
35849W        W78787   9.502   1.760  17.172 -0.0947  0.2124  0.1449
35850W        W78788   7.966   3.490  19.458 -0.6064  0.0844  0.1068
35851W        W78789   8.855   2.666  20.121  0.0437 -0.0837  0.2426
35852W        W78790  10.292   0.353  19.278  0.0311  0.2583  0.0624
35853W        W78791   8.406   2.874  16.254 -0.1430 -0.2679  0.0100
35854W        W78792  10.430   0.146  15.234  0.2188  0.1753 -0.0534
35855W        W78793   6.697   1.398  16.367 -0.1168 -0.1437 -0.1096
35856W        W78794  11.116   1.237  15.836  0.1205  0.1725  0.3691
35857W        W78795   8.491   1.242  18.806 -0.0727 -0.0263 -0.2458
35858W        W78796   8.541   3.250  17.836  0.1532  0.1252 -0.0166
35859W        W78797   7.918   2.071  19.140 -0.1080  0.3425  0.1151
35860W        W78798  10.755   2.582  18.609 -0.1710  0.2087  0.3308
35861W        W78799   8.852   1.843  17.783 -0.3739  0.2089 -0.0116
35862W        W78800  10.744   1.505  18.648 -0.0215 -0.0885  0.0485
35863W        W78801   8.929   3.962  18.630 -0.0800 -0.3656  0.1785
35864W        W78802   7.600   2.197  17.071  0.1487 -0.1722 -0.2012
35865W        W78803   9.296   2.826  15.993 -0.1789  0.0934  0.1690
35866W        W78804  10.851   4.794  19.498 -0.0595  0.0424  0.1100
35867W        W78805   8.450   1.766  16.287 -0.1991 -0.2899  0.1785
35868W        W78806   6.435   0.869  18.125 -0.0274 -0.0894  0.2240
35869W        W78807   8.951   2.096  20.409 -0.0344  0.1222 -0.3002
35870W        W78808   8.998   1.738  20.047 -0.0410 -0.0761 -0.2202
35871W        W78809   6.803  34.112  15.305 -0.1221 -0.0626 -0.2214
35872W        W78810  10.603   2.469  20.380  0.0657 -0.2992  0.0550
35873W        W78811   7.416   2.627  19.693  0.2560  0.0899  0.1885
35874W        W78812  10.499   0.807  17.473 -0.1145 -0.3771  0.0267
35875W        W78813   7.992   3.144  18.601  0.2520 -0.0564  0.1178
35876W        W78814  10.139   1.788  16.640 -0.0371 -0.1068 -0.1630
35877W        W78815   8.862   2.077  16.370 -0.0529 -0.2814  0.2325
35878W        W78816   9.761   0.436  16.987  0.2056 -0.1362  0.0587
35879W        W78817   9.524   0.836  17.289 -0.2478  0.0704  0.2543
35880W        W78818   7.278   0.783  15.748  0.0851  0.0831  0.0966
35881W        W78819   7.395   3.405  17.712  0.2375 -0.0412 -0.1688
35882W        W78820   9.807   2.662  17.608 -0.0291  0.1737 -0.1351
35883W        W78821  10.144   2.915  16.212 -0.1977  0.1719 -0.0523
35884W        W78822   7.555   4.341  18.423 -0.0518  0.1065 -0.1965
35885W        W78823   9.231   1.647  18.180 -0.0216  0.2366  0.2133
35886W        W78824   9.901   3.547  21.092  0.0421 -0.2104  0.0234
35887W        W78825   8.694   2.823  16.845 -0.0552 -0.3535  0.1197
35888W        W78826   5.645   2.320  17.533 -0.2116 -0.1687 -0.0744
35889W        W78827   7.093   1.043  16.690  0.1971 -0.1315  0.3081
35890W        W78828   5.923   0.863  20.732 -0.0872 -0.0181  0.1912
35891W        W78829  10.402   2.938  18.730  0.0534 -0.1365  0.0501
35892W        W78830   9.787   0.455  17.650  0.3420  0.1408  0.0368
35893W        W78831   8.024   1.587  19.031  0.0915  0.2449 -0.1796
35894W        W78832  10.920   1.576  17.629 -0.4358  0.0454 -0.0349
35895W        W78833   6.719   3.326  18.588  0.4240  0.0575  0.2024
35896W        W78834  10.269   3.109  16.707  0.0757  0.1792  0.3561
35897W        W78835  10.664   1.281  16.246  0.0780 -0.1841 -0.0403
35898W        W78836  10.762   2.199  16.089  0.0059  0.0735 -0.0201
35899W        W78837   6.512   2.328  17.725 -0.3385 -0.1566 -0.0992
35900W        W78838   8.479  34.299  16.626 -0.0154 -0.2973 -0.0730
35901W        W78839   7.387   0.887  19.558  0.0460  0.0406 -0.2374
35902W        W78840   6.372   2.164  16.931 -0.1023  0.0120 -0.2376
35903W        W78841   9.411   1.489  19.235  0.2435  0.3497 -0.0828
35904W        W78842   8.043   0.328  16.270  0.1709 -0.1317  0.0832
35905W        W78843   7.907   1.142  18.214  0.1309 -0.3400  0.1225
35906W        W78844   7.443   1.485  17.256 -0.0480  0.0242  0.2238
35907W        W78845   6.566   2.970  17.620  0.1611 -0.0543 -0.1170
35908W        W78846  10.581   1.192  17.832  0.1561 -0.0259 -0.2635
35909W        W78847   8.548   2.749  18.263  0.2179 -0.2282  0.2324
35910W        W78848  11.082   4.087  18.743  0.0441  0.0874 -0.4717
35911W        W78849   9.796   3.191  17.862  0.2293 -0.1520  0.1228
35912W        W78850   7.642   1.266  19.224  0.1704 -0.1756  0.1105
35913W        W78851   6.702   0.865  16.473 -0.3514 -0.0452  0.1932
35914W        W78852   9.439   4.034  17.891  0.1922  0.3196  0.1678
35915W        W78853   9.748   2.652  18.612 -0.1070  0.0013  0.3304
35916W        W78854   7.415   1.445  15.819 -0.0757  0.2281  0.0198
35917W        W78855  10.296   3.455  19.576  0.2671  0.0239  0.0367
35918W        W78856   9.885   3.061  17.010 -0.2460  0.1749 -0.1788
35919W        W78857   8.756   2.602  18.919 -0.0569  0.1360 -0.0192
35920W        W78858   9.932   0.625  18.727 -0.0547 -0.1407  0.1358
35921W        W78859   9.905   2.192  18.100  0.2108 -0.2031 -0.0555
35922W        W78860   9.529   2.531  16.684  0.1007  0.0622 -0.2417
35923W        W78861   7.340   0.859  16.238  0.2385 -0.0793 -0.2791
35924W        W78862   8.780   3.350  17.155  0.1730 -0.2545 -0.0947
35925W        W78863   8.662   3.198  16.496 -0.1796  0.0529  0.0569
35926W        W78864   7.056   1.507  16.858  0.1952 -0.0327  0.3683
35927W        W78865   9.255   3.288  17.300 -0.3731  0.2493  0.1231
35928W        W78866   9.528   0.815  16.719  0.1205 -0.0246  0.2416
35929W        W78867   7.949   1.684  19.480  0.1377 -0.4541 -0.0568
35930W        W78868   8.885   2.320  18.520  0.2717 -0.2094 -0.0709
35931W        W78869   8.071   1.860  16.023  0.4673  0.1393  0.0243
35932W        W78870   8.479   3.390  19.539 -0.3147 -0.3019  0.1493
35933W        W78871   7.809   0.209  18.186 -0.1183  0.0262 -0.4063
35934W        W78872  10.352   1.979  17.173  0.0799  0.4248 -0.0344
35935W        W78873   8.284   2.218  18.603  0.0265 -0.0082  0.0486
35936W        W78874   9.806   3.385  15.580  0.1652  0.0336  0.1593
35937W        W78875   8.919   0.889  16.495  0.2043  0.1868 -0.0232
35938W        W78876   8.920  34.420  16.432  0.0242  0.0872  0.0573
35939W        W78877   7.489   2.282  20.110  0.1361 -0.3834 -0.2612
35940W        W78878   8.654   2.218  17.525 -0.2352 -0.2849  0.0705
35941W        W78879  10.030   1.319  17.959 -0.1018  0.3074 -0.4328
35942W        W78880   8.828   2.609  16.131 -0.1801  0.1724  0.3231
35943W        W78881  11.523   2.638  18.181 -0.1683  0.2443 -0.0573
35944W        W78882   7.119   2.653  20.314 -0.1217  0.1756 -0.0260
35945W        W78883   9.829   1.664  19.076 -0.1559 -0.5550 -0.1846
35946W        W78884   9.276   2.378  16.251 -0.1466 -0.3998  0.1213
35947W        W78885   7.046   0.514  18.679  0.3843  0.0307 -0.1101
35948W        W78886   7.819   0.769  15.567  0.1658  0.0589  0.1178
35949W        W78887   8.143   1.537  16.645 -0.1508 -0.0608  0.0420
35950W        W78888   7.904   3.595  16.674  0.1382  0.0284  0.0206
35951W        W78889  10.696   0.802  18.171 -0.2476 -0.2192 -0.3114
35952W        W78890   8.741   0.963  18.199 -0.0834 -0.0317 -0.0134
35953W        W78891   9.376   0.180  19.448 -0.1327  0.2509 -0.1473
35954W        W78892  11.582   1.889  18.557  0.4751 -0.7123 -0.1445
35955W        W78893   9.852   1.799  15.385  0.1838 -0.6069  0.0121
35956W        W78894   9.076   2.113  18.109  0.3144 -0.1044  0.1892
35957W        W78895   8.521   2.424  16.506 -0.2025  0.1000  0.2045
35958W        W78896   8.934   0.817  19.238  0.1339 -0.2474 -0.1113
35959W        W78897   8.673   2.459  19.385 -0.1862  0.1738 -0.1448
35960W        W78898   7.859   4.563  18.849  0.1045 -0.1389 -0.1716
35961W        W78899   9.918   2.130  19.842  0.4148 -0.0204  0.0329
35962W        W78900   9.101   3.000  16.451  0.0635 -0.3972 -0.0078
35963W        W78901   8.806   1.873  19.498  0.0091 -0.1898  0.1644
35964W        W78902   9.092   0.975  17.046 -0.2748  0.3516 -0.0520
35965W        W78903   7.790   4.215  17.434 -0.1412  0.1394 -0.2775
35966W        W78904   9.649   4.464  16.654 -0.2072  0.0404 -0.0517
35967W        W78905   8.889   1.646  19.015 -0.0044  0.2825  0.0919
35968W        W78906  10.282   3.703  18.567 -0.0495 -0.1505  0.1653
35969W        W78907   7.348   2.817  16.604 -0.1451 -0.1086 -0.3654
35970W        W78908   9.715   1.820  18.413 -0.1409  0.0198 -0.2576
35971W        W78909   7.464   3.393  16.655 -0.0322  0.2562 -0.0016
35972W        W78910   9.260   0.512  17.640  0.0630 -0.1810  0.0290
35973W        W78911   6.666   2.353  19.294 -0.1811 -0.1340 -0.0424
35974W        W78912   7.384   1.642  17.752  0.2909  0.3945  0.1740
35975W        W78913   7.098   1.127  17.347 -0.0888 -0.1082  0.2903
35976W        W78914   8.705  33.903  16.830 -0.2034 -0.1012  0.0541
35977W        W78915  10.469   2.249  15.724  0.0582 -0.2330  0.2416
35978W        W78916   7.507   1.992  18.229 -0.0518 -0.3961  0.0017
35979W        W78917   8.097   1.533  17.573  0.1327  0.1655 -0.1504
35980W        W78918   8.317   2.608  19.722  0.1006 -0.1495  0.0075
35981W        W78919   9.157   2.133  17.535 -0.0529  0.2271  0.1031
35982W        W78920   9.700   0.931  15.713  0.0703 -0.0244  0.0055
35983W        W78921  10.132   2.488  18.959  0.0731  0.3722 -0.2450
35984W        W78922   9.367   2.079  19.473  0.1979  0.3008 -0.2093
35985W        W78923   7.279  34.366  16.088  0.1744  0.1164  0.0888
35986W        W78924  10.958   1.250  18.304 -0.0121  0.2575  0.3163
35987W        W78925   7.838   1.671  18.049  0.1538 -0.1846 -0.1154
35988W        W78926   7.661   2.060  17.763 -0.3054  0.2616 -0.1377
35989W        W78927   9.811   2.114  17.456  0.3104  0.1022  0.2043
35990W        W78928   7.857   2.870  16.363  0.0291  0.2372  0.0001
35991W        W78929   7.462   2.740  19.164  0.0856 -0.0492  0.2461
35992W        W78930   9.650   1.336  18.263  0.4732 -0.0862  0.0909
35993W        W78931   8.293   2.383  19.069 -0.0948 -0.0228 -0.0819
35994W        W78932   7.443   2.199  19.186 -0.0128  0.3323  0.0467
35995W        W78933   7.150  34.676  18.718 -0.1443  0.2915  0.2373
35996W        W78934  10.572   0.341  18.112 -0.0419 -0.2119  0.3797
35997W        W78935   9.864   2.094  16.920  0.0948 -0.0110  0.2505
35998W        W78936   9.734   1.180  18.958  0.0891  0.0397 -0.0923
35999W        W78937   9.121   4.602  20.554 -0.0381  0.2187  0.0564
36000W        W78938   7.973   0.516  19.001 -0.0772 -0.1641  0.2750
36001W        W78939  10.570   2.696  16.764  0.0214 -0.1552 -0.0895
36002W        W78940   9.251   2.508  18.808 -0.1240 -0.0762  0.2055
36003W        W78941   9.102   3.762  17.103  0.2923  0.1431  0.0760
36004W        W78942   6.207   1.446  19.063  0.0945  0.2043 -0.0959
36005W        W78943   9.043   2.446  16.691 -0.0068 -0.1415  0.1151
36006W        W78944   9.381   1.663  19.752 -0.0535 -0.0686 -0.0786
36007W        W78945   7.420   3.376  19.992  0.1023  0.1361  0.1078
36008W        W78946   8.084   2.458  16.193  0.2005  0.0200  0.0594
36009W        W78947   8.215   3.562  18.643  0.3878  0.1131  0.1173
36010W        W78948  11.183   0.709  15.456  0.2487  0.2438 -0.0192
36011W        W78949   9.044   3.506  16.241 -0.3711  0.3580 -0.2330
36012W        W78950   7.842   1.985  16.502  0.3299 -0.3009 -0.1160
36013W        W78951  10.385   0.491  18.574 -0.0947  0.0372  0.0566
36014W        W78952   9.235   0.448  17.104 -0.0549 -0.1094 -0.1058
36015W        W78953  10.767   1.685  19.189 -0.1188 -0.2170  0.2161
36016W        W78954   7.195   0.323  20.096  0.1550 -0.1392 -0.3860
36017W        W78955  11.212   2.214  17.262 -0.1839 -0.0226  0.1988
36018W        W78956   7.182   1.269  19.827 -0.2009 -0.0893 -0.0230
36019W        W78957  11.120   3.012  21.028  0.0772 -0.4430 -0.0242
36020W        W78958   8.469   4.501  20.969  0.0226 -0.0164  0.0589
36021W        W78959   8.617   0.991  17.283 -0.0537 -0.3804 -0.0723
36022W        W78960   7.448   0.850  17.049  0.3269 -0.0377  0.2792
36023W        W78961   8.061   2.347  17.210  0.1344  0.0026  0.0226
36024W        W78962   9.932   2.182  16.391  0.5096  0.1997  0.0674
36025W        W78963   8.375   1.926  17.183 -0.1506 -0.1009  0.2539
36026W        W78964   9.432   2.046  16.533  0.0268 -0.2010  0.0168
36027W        W78965   8.336   2.750  18.693  0.0624 -0.0339  0.0761
36028W        W78966  10.117   0.473  16.136  0.3509 -0.2512  0.0612
36029W        W78967   9.120   3.359  16.800 -0.2835 -0.2940 -0.2057
36030W        W78968   7.490   2.926  17.661  0.3872 -0.1445 -0.1672
36031W        W78969   8.612   2.240  19.876 -0.2261 -0.3106 -0.0318
36032W        W78970   9.715   2.547  17.133  0.0772  0.0455 -0.0852
36033W        W78971   8.939   0.057  16.786 -0.1427 -0.4923  0.2465
36034W        W78972   8.275  34.235  18.983 -0.1963  0.2334 -0.2323
36035W        W78973   9.942   2.154  18.662  0.1838  0.3307  0.0800
36036W        W78974   7.798   1.710  19.972 -0.0394 -0.0936  0.0197
36037W        W78975   8.078   0.607  19.948  0.0063 -0.1504 -0.2810
36038W        W78976   9.935   4.729  19.162 -0.0213  0.0344  0.1011
36039W        W78977  10.347   2.450  16.203 -0.2832 -0.1025 -0.1304
36040W        W78978  12.090   1.153  17.798 -0.0726  0.0197  0.1586
36041W        W78979  10.057   0.722  16.562 -0.2379  0.2287  0.2635
36042W        W78980   8.472   0.601  16.615 -0.2886 -0.0893  0.1050
36043W        W78981   8.018   0.887  17.560 -0.0727  0.0177  0.0577
36044W        W78982   8.273   2.121  19.502  0.1005  0.0826  0.1352
36045W        W78983   7.584   1.168  16.611 -0.0949 -0.2657  0.0772
36046W        W78984  10.250  34.252  18.670 -0.0976 -0.1878  0.1102
36047W        W78985   9.530   4.018  16.898 -0.1695  0.2704 -0.3776
36048W        W78986  10.860   3.151  15.859  0.0838 -0.1831  0.0652
36049W        W78987   8.836   1.405  16.441  0.3187 -0.1718  0.3751
36050W        W78988   6.490   1.237  17.786  0.2035 -0.3513  0.2164
36051W        W78989   7.645   5.015  19.530  0.6657 -0.0836  0.0332
36052W        W78990   7.002   1.631  16.030  0.0379  0.2834 -0.1437
36053W        W78991   9.402   1.877  15.565  0.3622 -0.1649 -0.1134
36054W        W78992   9.952   2.145  19.304  0.0435  0.1841 -0.0003
36055W        W78993  11.690   2.658  19.084 -0.1250  0.1561  0.1648
36056W        W78994   7.440   0.258  16.768  0.1957  0.1828  0.0862
36057W        W78995  10.256   1.351  18.853 -0.1127  0.0296  0.3628
36058W        W78996   8.574   2.410  17.085  0.4112 -0.1318 -0.0845
36059W        W78997   8.866   0.811  18.675  0.0587 -0.3468 -0.1672
36060W        W78998   9.308   3.383  17.821 -0.1619 -0.1814 -0.0007
36061W        W78999   7.119   3.002  19.948 -0.2377 -0.0461 -0.2675
36062W        W79000   8.413   2.914  17.279  0.0968  0.3323  0.5172
36063W        W79001   8.322   0.053  19.060 -0.0497  0.1091 -0.0908
36064W        W79002   9.367   1.314  17.247 -0.0580 -0.2701 -0.1332
36065W        W79003   7.898   1.802  17.001  0.1010  0.0546 -0.4434
36066W        W79004  11.760   1.735  19.888 -0.1015 -0.1881 -0.0190
36067W        W79005   9.996   2.578  19.607  0.2236  0.1289 -0.1914
36068W        W79006   6.780   2.403  18.157 -0.0449 -0.1141 -0.2313
36069W        W79007   9.892   3.140  20.873 -0.0192  0.0336  0.1849
36070W        W79008  11.461   2.518  17.598  0.1894 -0.1194 -0.0217
36071W        W79009   7.137   2.642  16.222 -0.1013  0.3106 -0.2193
36072W        W79010   8.886   1.531  21.224 -0.1451 -0.3434  0.1186
36073W        W79011   9.781   2.330  20.299 -0.1768 -0.0482 -0.4055
36074W        W79012   8.728   0.500  17.607  0.2068  0.2310 -0.0572
36075W        W79013   8.075   0.737  16.920 -0.2127  0.1702  0.0446
36076W        W79014   8.174   3.280  16.433 -0.2385 -0.0174 -0.1302
36077W        W79015   7.004   2.985  21.492  0.3935 -0.0870 -0.0614
36078W        W79016   7.361   1.700  19.533 -0.1978 -0.0499  0.1359
36079W        W79017   8.777   5.052  17.112 -0.1129  0.0705 -0.0260
36080W        W79018   8.613   1.018  16.161  0.2213 -0.1007  0.0704
36081W        W79019   9.971   3.536  16.618  0.4463 -0.0090  0.2341
36082W        W79020  10.428   2.194  18.008 -0.1739  0.1063  0.1487
36083W        W79021   9.836   0.185  16.464 -0.1510 -0.2027  0.1253
36084W        W79022   7.934   2.535  17.808 -0.2615  0.3683  0.3139
36085W        W79023   6.814   2.772  16.906  0.0347 -0.1751 -0.0819
36086W        W79024   9.480   4.020  15.877  0.1041  0.1493 -0.3617
36087W        W79025   8.192   2.732  16.829  0.0500 -0.3226  0.2006
36088W        W79026  11.085   1.888  21.072  0.0936  0.1447  0.0356
36089W        W79027  11.403  33.975  15.401  0.0647  0.0957  0.1354
36090W        W79028  10.897   2.190  16.726 -0.1665  0.0852 -0.1841
36091W        W79029  11.241   1.893  16.429 -0.1391 -0.0774 -0.1194
36092W        W79030   9.900   3.276  20.373  0.2528  0.4746 -0.0526
36093W        W79031  10.008   1.628  17.085 -0.1624 -0.0200  0.3104
36094W        W79032   7.225   0.374  16.082 -0.0390  0.1426 -0.0559
36095W        W79033   8.467   0.075  19.986  0.1696 -0.2903 -0.1912
36096W        W79034   9.184   1.230  20.187  0.1242 -0.1659 -0.0453
36097W        W79035   7.703   3.754  19.917 -0.0726 -0.2234 -0.0208
36098W        W79036  10.904   4.313  16.985 -0.1265  0.2103  0.1231
36099W        W79037   8.014  34.507  16.560 -0.1380  0.0297 -0.0515
36100W        W79038   8.902   1.407  18.473 -0.0056  0.1603  0.3271
36101W        W79039   8.856   1.384  16.988  0.1716 -0.3022  0.1665
36102W        W79040   8.563   0.487  16.094 -0.4164  0.0967  0.1265
36103W        W79041   9.621   1.111  17.724 -0.0597 -0.1830 -0.1407
36104W        W79042   8.214   4.215  17.219  0.0433  0.0675  0.2635
36105W        W79043   8.846   2.977  17.535 -0.3808  0.1580  0.1618
36106W        W79044   9.044   3.486  19.055 -0.0517  0.1413 -0.4259
36107W        W79045   6.823   0.744  17.012  0.1184  0.0132  0.0936
36108W        W79046  10.781   1.756  16.384 -0.2081  0.1544  0.3991
36109W        W79047   7.921   2.591  18.415 -0.1141  0.1078  0.0481
36110W        W79048  10.372   1.401  17.410 -0.1652 -0.4204  0.2073
36111W        W79049   6.744   2.126  18.702  0.0835 -0.0592  0.1682
36112W        W79050  10.602   0.474  16.074 -0.0611 -0.0239 -0.1849
36113W        W79051  10.261   2.326  17.511 -0.2277  0.0887 -0.1395
36114W        W79052   8.274   2.875  19.254 -0.0057  0.2276  0.0415
36115W        W79053   9.691   3.115  16.048 -0.1359 -0.0018 -0.0110
36116W        W79054   9.479   2.219  18.409  0.2076 -0.0085  0.1422
36117W        W79055   9.123   0.630  16.081 -0.3148  0.2376  0.0219
36118W        W79056   9.577   3.587  18.255  0.0114 -0.2874 -0.1474
36119W        W79057   7.618   0.297  17.744 -0.3994 -0.2061  0.1909
36120W        W79058  10.663  34.525  15.812  0.2468 -0.0366  0.3496
36121W        W79059   7.728   0.717  18.005  0.1256 -0.0467  0.3408
36122W        W79060   8.600   1.533  17.498  0.1428  0.0573 -0.0577
36123W        W79061   8.961   3.858  21.331  0.1861 -0.4518  0.1517
36124W        W79062   7.590  33.087  17.208  0.1506  0.0363  0.1091
36125W        W79063  10.618   1.676  15.935 -0.0447  0.0916  0.2476
36126W        W79064  10.853   1.128  17.286 -0.0579  0.1060  0.0094
36127W        W79065   8.942   4.194  16.079  0.1462 -0.0965  0.1153
36128W        W79066  10.209   0.984  18.378  0.0616 -0.2868 -0.0726
36129W        W79067   9.368   2.896  17.671 -0.0040  0.1009 -0.2665
36130W        W79068   7.222   1.972  18.706 -0.4761 -0.0892 -0.2569
36131W        W79069   8.685   4.225  19.431 -0.0980  0.3224 -0.1182
36132W        W79070  10.752   3.306  18.414 -0.0627  0.0684  0.0255
36133W        W79071   8.403   0.049  18.158  0.3669 -0.0914  0.4266
36134W        W79072   8.185   0.730  18.157  0.0111  0.1367 -0.1429
36135W        W79073   8.057   2.988  17.601 -0.0568  0.0423  0.3632
36136W        W79074  11.389   2.160  18.079 -0.1300  0.1051  0.0280
36137W        W79075  11.070   1.078  17.756 -0.2614  0.4820  0.0122
36138W        W79076   9.445   2.371  17.880  0.3614 -0.0176  0.1798
36139W        W79077   8.175   1.304  19.667  0.0408 -0.0463 -0.1126
36140W        W79078   8.693   2.919  19.560 -0.1741 -0.0583  0.2259
36141W        W79079   9.715   3.285  19.609 -0.2378 -0.0423  0.0158
36142W        W79080   6.083   2.933  15.817  0.1459 -0.0784  0.1828
36143W        W79081   8.680   3.564  18.288  0.2200 -0.2590 -0.1849
36144W        W79082   8.149   2.024  17.643  0.1529 -0.0480  0.1454
36145W        W79083   9.275   4.499  16.999  0.1058 -0.2788  0.1100
36146W        W79084   9.778   3.675  16.011 -0.3133  0.1929  0.1324
36147W        W79085   8.636   1.875  18.378 -0.0572 -0.0801  0.1287
36148W        W79086  11.828   2.211  16.384  0.0505 -0.4009 -0.2157
36149W        W79087   8.347   1.415  17.069  0.0991 -0.1607 -0.2883
36150W        W79088   9.665  33.775  16.091  0.0144 -0.1988 -0.0586
36151W        W79089   9.618   0.732  16.165  0.1581  0.2737 -0.1492
36152W        W79090   9.251   2.632  18.321 -0.0033  0.2683 -0.0842
36153W        W79091   6.673   2.285  16.156  0.1956  0.2913 -0.0414
36154W        W79092   9.989   3.831  17.113  0.0581  0.0421  0.0895
36155W        W79093   7.052   2.454  18.983 -0.1920 -0.2965  0.3924
36156W        W79094   8.584  33.714  19.075 -0.0437  0.2742 -0.1912
36157W        W79095   8.076   2.867  20.437  0.0359 -0.4947  0.0211
36158W        W79096   7.276   1.414  18.207 -0.1652  0.1844  0.0227
36159W        W79097   8.202   2.196  16.777 -0.0584  0.3626  0.0486
36160W        W79098   9.775   2.990  16.548  0.0770 -0.4466  0.1162
36161W        W79099   8.954   2.543  17.842 -0.2455 -0.1723 -0.3570
36162W        W79100   7.271   0.773  18.125  0.0690 -0.1239 -0.2066
36163W        W79101  10.350   2.228  16.730 -0.2362 -0.0934 -0.3395
36164W        W79102   9.496   2.020  16.063  0.0379  0.0806  0.1575
36165W        W79103   8.424   1.658  15.772  0.1780  0.0361 -0.2042
36166W        W79104  10.303   1.729  19.865  0.0177 -0.1181  0.2329
36167W        W79105   7.113   2.136  16.084 -0.0253 -0.0789 -0.2549
36168W        W79106   8.474   1.555  19.316  0.0350  0.0417 -0.0005
36169W        W79107   8.721   1.438  17.981  0.0007 -0.1594 -0.0360
36170W        W79108   5.663   1.492  16.499 -0.0443  0.0372 -0.1002
36171W        W79109   8.215   1.686  18.520 -0.0190  0.2258  0.0896
36172W        W79110  10.655   2.591  17.717  0.0751  0.0463 -0.1406
36173W        W79111  10.490   3.990  17.168  0.1309 -0.0929 -0.3043
36174W        W79112   9.069   3.353  18.558  0.2978  0.0113  0.1169
36175W        W79113   7.265   3.613  21.216 -0.1105 -0.0872 -0.2341
36176W        W79114   7.478   2.369  18.612  0.4037  0.0256  0.1187
36177W        W79115   8.500   0.992  17.772 -0.1436  0.1681 -0.0131
36178W        W79116   8.722   3.120  19.008  0.0305 -0.0983  0.2018
36179W        W79117  10.049   2.627  16.681 -0.3571 -0.1539 -0.0609
36180W        W79118   9.297   1.256  16.653 -0.1473  0.3086 -0.2547
36181W        W79119   9.234   1.636  16.267  0.1856  0.2990 -0.2387
36182W        W79120   8.176   0.340  19.489 -0.1760 -0.2153 -0.0222
36183W        W79121   8.874   3.150  20.163  0.3819  0.3374 -0.1037
36184W        W79122   9.863   1.529  17.534  0.1278 -0.1394 -0.2094
36185W        W79123   7.891   1.209  17.217 -0.2580 -0.1185  0.2771
36186W        W79124   9.782   1.221  16.387 -0.1980 -0.2417 -0.0950
36187W        W79125   8.412   2.621  17.697  0.1486  0.2098 -0.3016
36188W        W79126   8.355   1.235  18.362 -0.1206 -0.1967 -0.0862
36189W        W79127   8.517   1.122  16.742  0.0601  0.0989 -0.0912
36190W        W79128   8.496   1.963  18.958  0.0491  0.2319  0.1058
36191W        W79129   9.224   1.126  18.139 -0.1502  0.2581 -0.0434
36192W        W79130   9.377   2.572  20.186 -0.0810 -0.0709  0.0357
36193W        W79131   8.597   1.788  16.728  0.1022  0.1812 -0.3491
36194W        W79132  12.050   2.467  16.050 -0.0168 -0.4447 -0.1188
36195W        W79133   8.072   3.776  20.304 -0.1026 -0.3489  0.1000
36196W        W79134  10.766   6.105  21.318  0.1335  0.1392 -0.2574
36197W        W79135   8.619   4.171  20.166  0.2552  0.0011  0.4292
36198W        W79136  10.312   1.788  17.656 -0.0218 -0.3600 -0.0811
36199W        W79137   6.951   1.025  18.668  0.0739  0.2097  0.1103
36200W        W79138   7.780   0.704  16.551 -0.1411  0.2757  0.0792
36201W        W79139   7.477   2.456  17.500  0.2247  0.1460 -0.0316
36202W        W79140   9.962   0.337  18.171 -0.2274  0.1950 -0.0355
36203W        W79141   7.590   1.634  16.703 -0.0463  0.2286 -0.0794
36204W        W79142   9.443   0.469  15.678  0.2391  0.2598  0.0223
36205W        W79143   8.954   3.353  19.591  0.0227 -0.0871 -0.1296
36206W        W79144  11.474   2.725  17.084 -0.0345 -0.1860 -0.0461
36207W        W79145   7.890   2.789  21.022 -0.0113 -0.2795  0.1992
36208W        W79146   8.590   1.890  21.349  0.1168 -0.1440 -0.1524
36209W        W79147   8.812   0.315  19.189 -0.1011  0.3280 -0.1262
36210W        W79148  10.896   2.132  18.910  0.0487  0.1086  0.0575
36211W        W79149   6.534   0.224  22.414  0.2116 -0.2087  0.1509
36212W        W79150   9.785   2.637  21.094 -0.0909 -0.1999 -0.2542
36213W        W79151   7.612  33.398  23.376  0.0594 -0.3904  0.0037
36214W        W79152   9.404   2.181  21.707  0.0665 -0.2026  0.1290
36215W        W79153  11.375   1.774  21.625 -0.3766 -0.1893 -0.1888
36216W        W79154  10.590   1.787  20.334 -0.1688 -0.0308 -0.0588
36217W        W79155   9.197   0.952  22.392  0.1589  0.0417 -0.0012
36218W        W79156   8.266   0.891  22.874  0.0730  0.0139 -0.0907
36219W        W79157   9.116  34.376  20.543 -0.1127 -0.0108 -0.1654
36220W        W79158   7.341  34.165  22.676 -0.0812 -0.1186  0.0569
36221W        W79159   9.340   1.105  22.927  0.1873 -0.0161  0.1946
36222W        W79160   7.662   1.561  21.715  0.1654  0.1436 -0.2054
36223W        W79161   9.024  34.549  22.817 -0.4869 -0.0153 -0.1888
36224W        W79162   9.277   0.022  20.006  0.4617  0.0845 -0.0662
36225W        W79163   7.678   2.960  22.140 -0.0762  0.1542 -0.0356
36226W        W79164   9.493  34.005  21.997  0.1126 -0.1439  0.0680
36227W        W79165   9.032  33.779  21.770  0.1525  0.2264  0.2186
36228W        W79166   8.907   2.226  20.916 -0.0195  0.3734  0.0038
36229W        W79167   8.409   2.520  20.295 -0.4123 -0.1271  0.0342
36230W        W79168   7.450   1.198  22.778  0.0973  0.1173  0.4855
36231W        W79169   9.062   1.493  22.943 -0.0379  0.1214 -0.0999
36232W        W79170  10.905   2.308  22.119  0.2152  0.0099  0.1923
36233W        W79171   9.596   0.885  20.935 -0.1262 -0.1006  0.1495
36234W        W79172   8.389   2.657  21.681 -0.1112 -0.0289  0.2982
36235W        W79173   9.462   2.352  22.214  0.0487 -0.3057  0.0683
36236W        W79174  10.811   1.398  23.461 -0.3803  0.0091  0.0355
36237W        W79175   7.403   1.909  21.008  0.0411 -0.0888 -0.0657
36238W        W79176   7.661   3.254  21.713  0.1717  0.0158  0.0873
36239W        W79177   8.767   4.393  21.395  0.2789  0.1940 -0.3531
36240W        W79178  11.918   2.105  21.466 -0.0173  0.2468  0.0822
36241W        W79179  10.535   1.163  22.668 -0.2967  0.0813  0.0172
36242W        W79180   9.655   3.360  23.321  0.0993  0.2293  0.1394
36243W        W79181   9.284   1.776  20.930  0.1241  0.1303 -0.1694
36244W        W79182  10.091   2.209  22.941 -0.1241  0.0640  0.0172
36245W        W79183   8.528   2.118  21.782 -0.1660 -0.3356  0.0215
36246W        W79184   9.077   1.842  21.928  0.1068  0.1564  0.3015
36247W        W79185  10.000   1.361  20.799  0.0488  0.1325  0.1188
36248W        W79186   9.425   2.327  20.622 -0.0282 -0.2007 -0.4138
36249W        W79187   9.749   0.392  22.184  0.3626  0.0305 -0.2946
36250W        W79188   8.651   2.044  22.719 -0.2425 -0.1450 -0.1253
36251W        W79189   6.757   2.468  22.582 -0.1634 -0.0426  0.0121
36252W        W79190  11.009   0.219  23.114  0.0135 -0.0267  0.0154
36253W        W79191   7.487   2.634  21.381  0.2069  0.4684 -0.3342
36254W        W79192  10.443   0.771  19.531 -0.2563  0.0250 -0.0374
36255W        W79193   8.401   1.173  20.132 -0.1108 -0.1294 -0.3234
36256W        W79194  11.194  34.118  18.206 -0.1079 -0.2306  0.1106
36257W        W79195   9.378   0.037  20.726 -0.0177 -0.0865 -0.1198
36258W        W79196   9.319   1.710  20.388  0.2367  0.0813  0.1887
36259W        W79197   8.706  34.465  21.662  0.2569 -0.0859 -0.0018
36260W        W79198   9.015   2.581  23.698  0.1172  0.1103 -0.1055
36261W        W79199   9.752   1.940  20.625 -0.3220 -0.2210  0.0990
36262W        W79200   9.595   0.248  21.750 -0.0410 -0.0537  0.0320
36263W        W79201   8.711   2.376  23.136 -0.3391  0.1578 -0.1201
36264W        W79202   7.561   0.013  21.218 -0.1461 -0.0770 -0.1978
36265W        W79203  10.221   2.896  20.579  0.2169 -0.3233  0.0532
36266W        W79204  11.581   2.807  21.097 -0.0223  0.1851 -0.0354
36267W        W79205   9.346   2.624  21.396  0.2053  0.0563  0.0953
36268W        W79206   7.940  34.690  20.846 -0.0852  0.0574 -0.0316
36269W        W79207   7.636   0.475  24.326 -0.2398  0.0686  0.0709
36270W        W79208   7.857   1.097  23.074  0.1562  0.2072  0.4732
36271W        W79209   9.882   1.233  19.426 -0.0446  0.0638 -0.0092
36272W        W79210  10.701   1.942  23.591 -0.1799  0.2265  0.0502
36273W        W79211   7.803   2.347  23.804 -0.1707 -0.1513 -0.0697
36274W        W79212   8.799  33.619  20.435  0.0079  0.3076 -0.0583
36275W        W79213   8.962   3.694  20.854  0.0879  0.2181  0.0899
36276W        W79214  11.089   1.404  22.210  0.0045 -0.2425 -0.0640
36277W        W79215  10.817   1.845  19.754 -0.1225 -0.0435  0.0379
36278W        W79216   9.531  33.626  21.677 -0.0407 -0.2827  0.1287
36279W        W79217   9.082   0.949  21.069 -0.1579 -0.0640  0.0647
36280W        W79218   8.733   3.754  19.325 -0.1768 -0.1855  0.2045
36281W        W79219   9.165   2.593  19.341 -0.0831  0.2860 -0.1114
36282W        W79220  11.087   0.354  22.600 -0.0775  0.0254  0.1724
36283W        W79221  12.706   3.140  18.624  0.0554  0.3747  0.2739
36284W        W79222   8.363   3.748  22.720  0.0123  0.2143  0.2586
36285W        W79223   8.348   0.224  23.111  0.0857  0.0904  0.3382
36286W        W79224   9.490   0.897  23.378  0.0023 -0.0762  0.2934
36287W        W79225   7.473   4.143  21.249  0.1459 -0.2458  0.1399
36288W        W79226   7.117   2.503  22.129 -0.2629 -0.0836  0.2676
36289W        W79227   8.268   2.471  20.966  0.0971 -0.1451  0.2544
36290W        W79228   6.893  33.647  21.740 -0.0840  0.1542 -0.2055
36291W        W79229   8.424   1.122  21.829 -0.1219  0.2484 -0.0046
36292W        W79230   9.329   0.881  20.502  0.1865  0.0072  0.1078
36293W        W79231   8.038   0.629  23.298 -0.2537  0.1174 -0.1648
36294W        W79232   9.751   0.444  20.831  0.0624  0.0935  0.2132
36295W        W79233   8.965   3.189  20.761 -0.0965 -0.0499  0.4251
36296W        W79234  11.253   2.716  21.562  0.3274  0.0009  0.1643
36297W        W79235  10.710   1.318  19.705  0.1150 -0.3466 -0.0268
36298W        W79236  10.247   2.684  21.185  0.0770 -0.4902 -0.0468
36299W        W79237   7.990  34.387  22.311 -0.0131  0.2466 -0.2273
36300W        W79238   7.512  34.670  22.170  0.1543  0.0335 -0.4344
36301W        W79239   9.833  34.211  23.891 -0.1944 -0.0632  0.0408
36302W        W79240   8.137  33.952  22.103  0.1799  0.0991  0.2012
36303W        W79241  10.575   0.684  22.470  0.3746 -0.3494  0.2642
36304W        W79242   8.647   0.459  19.711 -0.0253 -0.2607  0.1437
36305W        W79243  10.876   0.052  20.991 -0.2134 -0.0911 -0.0650
36306W        W79244   9.440   0.312  21.231 -0.1541 -0.0900 -0.1174
36307W        W79245   7.192   1.796  21.526 -0.0421  0.2750 -0.0256
36308W        W79246   9.741  33.338  22.780 -0.1811  0.0223  0.2271
36309W        W79247   9.882   1.699  19.623 -0.0865 -0.3807 -0.1557
36310W        W79248  10.437   2.051  21.699  0.1566 -0.2068  0.2688
36311W        W79249  10.932   5.113  21.256 -0.1135  0.0179  0.1853
36312W        W79250   8.355   0.036  22.432  0.0530  0.1251 -0.2479
36313W        W79251   8.708   1.243  20.527  0.2220  0.0965 -0.0273
36314W        W79252   8.155   5.222  21.374  0.0457 -0.2757 -0.2256
36315W        W79253   8.593   2.835  22.262 -0.1132 -0.0071 -0.0799
36316W        W79254   7.130  34.356  19.942 -0.1862 -0.0320 -0.1269
36317W        W79255   9.940   2.956  23.520 -0.3516 -0.1710  0.3330
36318W        W79256   9.341   3.110  20.428  0.1016  0.3016 -0.2228
36319W        W79257   8.297   2.148  22.284 -0.2610  0.2065  0.0273
36320W        W79258   8.447   0.612  21.957 -0.0281  0.0622  0.2016
36321W        W79259  10.819   1.739  21.501  0.2534 -0.3376 -0.0461
36322W        W79260  10.154   2.150  21.111  0.1807  0.2733  0.1694
36323W        W79261   8.480   0.500  20.252  0.2639 -0.1000  0.1673
36324W        W79262  10.043   1.615  22.046 -0.1520  0.0508 -0.5303
36325W        W79263   7.527   3.135  21.231 -0.0332 -0.0244 -0.0131
36326W        W79264   7.788   0.590  22.746  0.3455 -0.1131 -0.1069
36327W        W79265  10.022   4.049  20.801  0.0583 -0.1282  0.1404
36328W        W79266   9.639  33.223  22.083  0.4441 -0.1895  0.0433
36329W        W79267   8.504   2.103  24.246  0.0805 -0.3239  0.1310
36330W        W79268   9.623   0.106  22.544 -0.0480  0.0578 -0.1805
36331W        W79269   8.078   0.432  20.663 -0.2782 -0.2882 -0.0946
36332W        W79270   8.272   2.625  23.128 -0.1171 -0.1507  0.0122
36333W        W79271   9.233   0.417  20.350  0.0404  0.1592 -0.0184
36334W        W79272  10.573  34.555  20.150  0.2858 -0.1317  0.0081
36335W        W79273   9.060   0.749  23.024  0.3377 -0.0738 -0.0578
36336W        W79274   9.556   1.338  21.056 -0.1574  0.0263  0.0529
36337W        W79275  11.374   0.410  20.156 -0.1522 -0.0165 -0.0998
36338W        W79276  11.049  34.192  19.902 -0.2164  0.2900  0.1152
36339W        W79277   8.282   1.618  21.801  0.1341  0.2228  0.3267
36340W        W79278   9.352   2.911  20.884  0.1387 -0.1111  0.0363
36341W        W79279  10.287   0.642  22.009 -0.2898 -0.0498 -0.1745
36342W        W79280  11.495   0.173  19.699 -0.1382 -0.0720 -0.2183
36343W        W79281  11.189   2.591  19.696  0.3942 -0.0542  0.1239
36344W        W79282   6.799   1.951  21.972 -0.0603  0.0781 -0.2672
36345W        W79283  10.702   1.635  24.044 -0.1276 -0.1978  0.0556
36346W        W79284  10.620   2.188  21.248  0.0221  0.1621 -0.1138
36347W        W79285   9.111  33.340  21.446 -0.3022 -0.1712 -0.0085
36348W        W79286   8.774  34.211  19.883 -0.0433  0.3228 -0.1460
36349W        W79287   9.772   1.705  20.143  0.0900 -0.2976 -0.2428
36350W        W79288   7.738   3.586  21.142 -0.2428 -0.6227 -0.0335
36351W        W79289  10.068  33.106  22.225 -0.0549 -0.3749  0.3249
36352W        W79290   9.794  34.125  20.703  0.1624  0.1850  0.0708
36353W        W79291   7.470  34.455  23.472 -0.1543  0.1072 -0.1133
36354W        W79292  10.391   1.357  23.154  0.2158  0.1111 -0.0174
36355W        W79293  10.501   0.252  19.763  0.1488 -0.2330  0.2169
36356W        W79294   9.855   1.766  21.126 -0.2320 -0.3377 -0.0158
36357W        W79295   9.439   2.079  20.006  0.3295  0.1723  0.1683
36358W        W79296  10.551   0.225  21.342  0.1668 -0.0793 -0.1615
36359W        W79297   7.800   0.926  23.637 -0.1798  0.0549  0.1929
36360W        W79298   8.281   4.208  22.361 -0.1005  0.0243  0.2730
36361W        W79299  10.101   1.340  22.537 -0.3513 -0.2983  0.2031
36362W        W79300  10.282   2.166  20.249  0.1037  0.1497 -0.5153
36363W        W79301   9.498   0.511  23.682 -0.0976  0.0988 -0.2563
36364W        W79302   7.694   1.285  20.756 -0.0526 -0.0918 -0.0177
36365W        W79303   6.747   2.605  21.326 -0.1421 -0.0351 -0.3778
36366W        W79304   9.070   2.035  21.317  0.0984  0.0546 -0.3658
36367W        W79305   7.595  34.188  20.770 -0.1984 -0.0429  0.0524
36368W        W79306   8.828   2.185  22.269  0.0277 -0.1625 -0.1334
36369W        W79307   8.660   3.587  18.796 -0.0913  0.0625 -0.0066
36370W        W79308  10.731   0.890  23.360 -0.1798 -0.0183  0.2852
36371W        W79309   9.115   4.733  21.617  0.4970  0.0069 -0.4245
36372W        W79310   9.771  34.553  22.021  0.1384  0.1945 -0.3075
36373W        W79311   7.299   2.828  21.800  0.0390 -0.0443 -0.0396
36374W        W79312   8.437  34.600  20.509  0.1817 -0.1202 -0.4673
36375W        W79313   8.007   0.489  21.246  0.0106  0.0063  0.2523
36376W        W79314   9.793  34.122  22.368  0.2304 -0.0504  0.0946
36377W        W79315  11.440   1.193  18.162  0.2587 -0.2898  0.0011
36378W        W79316   8.037   0.023  21.371  0.0028 -0.1474 -0.1080
36379W        W79317   8.932   0.771  20.081 -0.1907  0.1767 -0.2635
36380W        W79318   7.095   3.511  22.589  0.2722 -0.4768  0.0458
36381W        W79319   9.610   1.254  22.567  0.0096  0.1605 -0.2486
36382W        W79320  11.118  34.659  20.009  0.1387 -0.3498  0.0259
36383W        W79321  10.707   2.791  22.374  0.0313  0.2267  0.1058
36384W        W79322   9.426   2.411  23.991 -0.1223  0.3821 -0.1671
36385W        W79323   7.805   1.426  21.199  0.0600  0.0803 -0.1227
36386W        W79324  10.666  33.960  21.782  0.1845 -0.1965  0.1560
36387W        W79325   8.566   1.104  21.037 -0.0855 -0.1422 -0.1959
36388W        W79326   8.976   2.573  20.583  0.1158  0.0281 -0.2265
36389W        W79327   9.997   2.783  22.020 -0.0963  0.1138  0.1016
36390W        W79328   8.239   1.516  20.885 -0.2126 -0.0308 -0.1405
36391W        W79329   8.382   0.985  22.339 -0.0523  0.0543 -0.1603
36392W        W79330   8.788   1.320  22.403 -0.2471  0.0352 -0.1686
36393W        W79331  10.497   2.051  22.693  0.2985  0.0742 -0.0984
36394W        W79332  10.582   1.321  20.661 -0.0662  0.2014  0.1187
36395W        W79333   9.557  34.416  20.365 -0.2059 -0.2358 -0.3229
36396W        W79334   8.817   1.735  20.676  0.0295  0.0318 -0.3240
36397W        W79335  11.835   1.583  20.763 -0.0697 -0.3129 -0.3102
36398W        W79336   9.093   0.216  21.641  0.1811  0.0666 -0.0402
36399W        W79337   8.478   3.229  22.586  0.0644 -0.0201 -0.0019
36400W        W79338   7.641  34.146  24.264 -0.0301 -0.4365  0.1354
36401W        W79339  11.380   1.938  20.667 -0.0378  0.1392  0.0771
36402W        W79340  10.036   3.282  24.406 -0.0749  0.1622  0.0553
36403W        W79341   9.445   0.789  21.420  0.0406  0.1497 -0.1871
36404W        W79342   6.741   1.461  22.077 -0.0533  0.1637 -0.1502
36405W        W79343   9.081   2.335  19.789 -0.1979 -0.0509  0.4994
36406W        W79344  10.636   0.185  22.304  0.0679  0.0259 -0.1594
36407W        W79345   7.842   2.687  21.759  0.0465  0.0606  0.1141
36408W        W79346   9.427   3.995  20.912 -0.4120 -0.2812  0.0618
36409W        W79347   6.550   2.416  23.232  0.3275 -0.1266  0.1580
36410W        W79348  10.338  33.971  19.379  0.1055  0.0854  0.1726
36411W        W79349   8.764   2.402  21.443 -0.1416  0.1181 -0.0153
36412W        W79350  10.298   1.626  19.320 -0.0456  0.3444  0.0786
36413W        W79351  10.253   0.993  23.506 -0.0232  0.0892  0.5371
36414W        W79352   9.598   0.700  18.164 -0.0354 -0.0805  0.0733
36415W        W79353  10.050   0.369  22.616 -0.0260  0.1129 -0.0381
36416W        W79354   8.212  34.479  22.875  0.1558  0.0648 -0.1437
36417W        W79355  11.541   1.788  21.137  0.4538  0.0148  0.0683
36418W        W79356   8.660   0.186  22.011  0.0879  0.2724  0.1177
36419W        W79357   9.090   3.116  23.194  0.0230  0.1022  0.3189
36420W        W79358   7.893   2.791  24.038 -0.2887  0.1777 -0.3049
36421W        W79359  10.014   1.211  21.281  0.1396  0.3513 -0.0497
36422W        W79360   6.738  33.641  20.655  0.0737 -0.0476  0.1849
36423W        W79361   9.276   2.852  22.248 -0.3095  0.3070  0.0036
36424W        W79362  10.075   1.149  21.800  0.0718 -0.3367  0.0149
36425W        W79363   9.524   2.507  19.712  0.1139  0.0379 -0.2221
36426W        W79364  10.637   1.090  22.116 -0.1274 -0.5564 -0.1756
36427W        W79365   8.453   0.716  21.461  0.1168 -0.2555  0.1730
36428W        W79366   9.523   2.199  21.107  0.3062 -0.0591  0.2579
36429W        W79367  10.613   0.622  19.070  0.0541 -0.2297 -0.1581
36430W        W79368   8.426   2.523  22.622  0.0265  0.0192 -0.1963
36431W        W79369   8.110  33.912  24.042 -0.1323 -0.1452 -0.2233
36432W        W79370  11.395   1.370  21.327  0.1937 -0.1660 -0.0175
36433W        W79371  10.143   0.066  20.127 -0.2589  0.2797 -0.1655
36434W        W79372   9.721   1.465  21.650  0.0238 -0.0302 -0.1144
36435W        W79373  11.157   0.019  23.639  0.3869  0.0887  0.1088
36436W        W79374   9.144   1.205  24.699 -0.3348  0.1452 -0.0893
36437W        W79375   8.007  34.368  23.361  0.0907  0.0240  0.1058
36438W        W79376   9.051   4.103  23.499 -0.0303 -0.0892 -0.0452
36439W        W79377   9.815  34.445  19.173 -0.1871  0.2483 -0.1586
36440W        W79378  10.840  34.446  21.395  0.1959  0.1747  0.1930
36441W        W79379  10.732  34.257  20.941  0.0084 -0.0651  0.1799
36442W        W79380   9.277   0.212  22.170 -0.0022  0.0738  0.0002
36443W        W79381   7.876  33.833  22.646  0.1061 -0.0207 -0.0172
36444W        W79382  10.323   1.566  23.719 -0.1325  0.1745  0.2519
36445W        W79383   7.824   2.020  18.642  0.0319 -0.2034 -0.2226
36446W        W79384  11.109   0.586  23.451  0.0144 -0.0377  0.0706
36447W        W79385   9.810   4.107  21.270  0.0582  0.1792  0.2084
36448W        W79386   9.659   2.567  19.184  0.1220  0.0647 -0.4019
36449W        W79387  10.966   0.767  19.362  0.0351  0.0542  0.3995
36450W        W79388   8.733   0.361  22.873  0.1020 -0.0699  0.1575
36451W        W79389   8.444   4.453  22.787 -0.1705  0.0779 -0.2891
36452W        W79390   8.405   1.765  19.796  0.0372  0.0129 -0.0038
36453W        W79391   9.137   2.881  19.737  0.0106  0.2479  0.0384
36454W        W79392   9.081   1.814  22.479  0.3582  0.0523  0.4245
36455W        W79393  11.420   1.798  22.229  0.0185 -0.0713 -0.0223
36456W        W79394   8.924   1.336  19.427  0.0038 -0.2692  0.3615
36457W        W79395  10.880   0.726  22.914  0.3769  0.0710 -0.0453
36458W        W79396   8.101   2.691  22.171  0.2200 -0.0816  0.2597
36459W        W79397   9.774  34.082  19.552  0.0527  0.1653  0.1934
36460W        W79398  10.060   3.324  21.933  0.0592  0.4565 -0.3280
36461W        W79399   7.057   2.085  22.450 -0.2001 -0.4177  0.0107
36462W        W79400   8.909   2.927  21.551  0.1977 -0.3654  0.0097
36463W        W79401   8.910  33.217  23.280 -0.1262  0.0700 -0.3801
36464W        W79402  10.406   0.721  21.489 -0.1976 -0.1167 -0.2076
36465W        W79403   9.290   1.233  21.628 -0.2057  0.1168 -0.2451
36466W        W79404  11.523   1.116  22.458 -0.1983  0.1400 -0.0326
36467W        W79405   9.121   1.980  22.957  0.0252  0.3685 -0.2563
36468W        W79406   8.936   0.466  21.204  0.1093 -0.0760  0.0537
36469W        W79407   9.782   2.373  23.357 -0.0192 -0.1709  0.0620
36470W        W79408   9.903   0.683  21.275  0.2670  0.1108 -0.1769
36471W        W79409   9.121   2.400  22.617 -0.1337 -0.0095  0.0843
36472W        W79410   6.780  34.048  22.727  0.0025 -0.1248  0.2274
36473W        W79411   9.462   2.880  23.735 -0.2058  0.1614 -0.1185
36474W        W79412   8.821   2.739  22.843 -0.1035  0.1334  0.0570
36475W        W79413   7.407  33.500  20.702  0.0160  0.1988  0.3857
36476W        W79414   9.531   3.968  19.956 -0.2264  0.1374  0.0789
36477W        W79415   7.629   3.449  24.335  0.1545 -0.1401 -0.0801
36478W        W79416   7.296   1.816  22.060  0.0054 -0.1777  0.1853
36479W        W79417   7.966   4.168  19.869  0.1573 -0.1229  0.1145
36480W        W79418  10.867   4.354  20.689  0.3441  0.1101  0.0678
36481W        W79419   8.534   3.992  21.200  0.0243 -0.0994 -0.2283
36482W        W79420  11.149   2.832  22.666  0.1562 -0.2400 -0.2360
36483W        W79421   9.990   0.545  20.045  0.0009 -0.2045 -0.0828
36484W        W79422   7.553   3.550  22.060 -0.2878 -0.2527 -0.2632
36485W        W79423   7.265   1.425  20.923 -0.1981  0.1433 -0.2567
36486W        W79424  10.534   1.545  21.869  0.5325 -0.0910 -0.3257
36487W        W79425   9.474   4.455  20.884  0.1693  0.0540  0.1529
36488W        W79426   9.893   3.135  22.684  0.3146  0.0026  0.0884
36489W        W79427  10.686   0.002  18.884 -0.1438  0.0586  0.0615
36490W        W79428  12.178  34.368  20.477 -0.0014 -0.0088  0.2708
36491W        W79429  11.217  34.587  17.859  0.2865 -0.1167  0.1662
36492W        W79430   9.911   1.119  23.035 -0.1066 -0.2367 -0.1834
36493W        W79431   9.265   1.423  22.164 -0.1350 -0.2663 -0.2258
36494W        W79432   7.692  34.252  19.895  0.1326  0.0985  0.0407
36495W        W79433   8.909  34.568  22.331  0.1976  0.1826 -0.2995
36496W        W79434  10.671   0.254  23.767  0.0516 -0.2048  0.0651
36497W        W79435   7.524   3.814  24.697 -0.0696 -0.1286  0.1328
36498W        W79436  11.819   4.000  22.320 -0.0119  0.0592  0.1153
36499W        W79437   7.962   1.043  21.463 -0.1706  0.0058 -0.1510
36500W        W79438   8.927   0.813  21.580  0.2409  0.1155 -0.1216
36501W        W79439   8.507  34.155  22.659  0.2789 -0.2200 -0.0962
36502W        W79440   8.916   2.889  18.552 -0.1531  0.0303  0.0155
36503W        W79441   9.331  34.392  22.468  0.1981 -0.4435 -0.0616
36504W        W79442  10.790   3.429  20.831  0.0581  0.0642  0.1602
36505W        W79443   8.675   1.731  22.141 -0.0165 -0.2654 -0.0635
36506W        W79444   9.957   2.985  21.590  0.0802 -0.1637  0.0621
36507W        W79445   7.602   0.493  19.821 -0.0345  0.2944 -0.1039
36508W        W79446  11.024   0.092  20.515  0.1862 -0.0271 -0.4045
36509W        W79447   9.580   1.064  21.996 -0.1964 -0.1350  0.0229
36510W        W79448  10.201  34.583  22.320  0.0326  0.0184 -0.1129
36511W        W79449   8.078   1.022  20.991  0.4195  0.0785 -0.1733
36512W        W79450  11.371   1.302  20.830 -0.2897  0.4024  0.0343
36513W        W79451   8.257   1.489  22.347 -0.0652  0.0401  0.3292
36514W        W79452   8.327   0.506  22.600 -0.1755  0.1437 -0.2351
36515W        W79453   8.676   0.957  19.696  0.0146 -0.2938 -0.1431
36516W        W79454  10.253   1.859  23.260  0.0085 -0.1409  0.0568
36517W        W79455   9.490   2.088  18.963  0.0292 -0.2340  0.0865
36518W        W79456  10.721   2.911  23.308  0.0891 -0.2851 -0.2194
36519W        W79457   7.360   0.556  21.430  0.0890 -0.1717  0.6277
36520W        W79458  10.385   0.898  20.357  0.0428 -0.2586 -0.2841
36521W        W79459   8.853   0.917  22.025  0.0771  0.1434  0.3687
36522W        W79460   9.593   1.848  22.058 -0.0990  0.0170 -0.1259
36523W        W79461  10.963   1.888  22.463 -0.1052  0.0478  0.2215
36524W        W79462   7.616   0.485  20.916  0.1478  0.3987 -0.3313
36525W        W79463   9.106   3.316  21.273 -0.1541 -0.1472  0.1444
36526W        W79464   9.865   0.665  21.790  0.3460  0.2959 -0.2662
36527W        W79465   9.434   3.511  20.863  0.0272 -0.1910  0.1552
36528W        W79466  11.007   0.401  19.738 -0.4883 -0.0054 -0.0627
36529W        W79467   9.824   2.016  21.530 -0.1145 -0.3593 -0.1481
36530W        W79468   7.692  34.332  22.947 -0.3700 -0.0174 -0.0505
36531W        W79469  10.196   3.558  22.829 -0.0363 -0.2265 -0.0180
36532W        W79470  12.044   2.789  21.719 -0.0265 -0.0422  0.2328
36533W        W79471   9.232   0.530  19.788  0.3141  0.0127  0.0828
36534W        W79472   9.531   1.512  23.212 -0.1323 -0.1530 -0.0425
36535W        W79473   8.844   4.182  22.548  0.3139 -0.2460 -0.3806
36536W        W79474  10.283  34.493  21.035 -0.1600 -0.2498  0.1882
36537W        W79475   9.785  33.236  23.712 -0.1002  0.0628 -0.0722
36538W        W79476   7.856   3.675  18.990 -0.0634  0.1386 -0.0912
36539W        W79477   9.700  32.854  22.389 -0.1165 -0.1580 -0.3054
36540W        W79478   9.689   3.134  22.192  0.0887 -0.0942 -0.0178
36541W        W79479   8.580   3.807  22.247 -0.1797  0.0004 -0.4671
36542W        W79480   9.376   1.708  21.412 -0.1190 -0.1385 -0.1783
36543W        W79481   8.547   1.083  23.842 -0.3560 -0.3337 -0.0408
36544W        W79482   9.579   3.082  21.288  0.1017  0.2100  0.1305
36545W        W79483  11.549   3.878  21.950  0.4733 -0.1237 -0.0485
36546W        W79484  10.911   1.404  21.102  0.0658 -0.2028  0.3441
36547W        W79485   9.557   2.810  21.826  0.3738  0.0425  0.1883
36548W        W79486  10.975   2.526  21.201 -0.3288 -0.2240 -0.1111
36549W        W79487   9.824  33.640  22.374 -0.0256 -0.1235  0.1414
36550W        W79488  10.045  34.077  21.099  0.3713 -0.4809 -0.0019
36551W        W79489  10.564  34.099  19.814 -0.2417  0.1566 -0.2786
36552W        W79490   8.255   2.159  23.011 -0.2537  0.2489 -0.2603
36553W        W79491   8.061   1.860  21.348 -0.1689 -0.3130  0.2568
36554W        W79492   8.570   1.661  20.223  0.1891  0.1763 -0.3649
36555W        W79493   6.605   3.002  21.073  0.0171 -0.0918  0.0609
36556W        W79494   7.083  32.526  23.801 -0.0219  0.0563 -0.2116
36557W        W79495   8.036   0.632  21.734 -0.2253  0.2107 -0.0880
36558W        W79496   8.474   0.202  21.531 -0.0350  0.0790 -0.1792
36559W        W79497   8.515   0.401  20.908 -0.3552 -0.1082  0.1042
36560W        W79498  10.771   0.835  19.931  0.1145  0.1995  0.1525
36561W        W79499   7.772  33.892  21.635 -0.1107 -0.3484 -0.0138
36562W        W79500   6.695   1.325  21.591 -0.0260  0.2359 -0.1029
36563W        W79501  10.201   1.635  21.466  0.1468  0.1116  0.0817
36564W        W79502  10.755   2.957  21.359 -0.3066 -0.0872  0.3813
36565W        W79503   9.348   1.165  19.666  0.0577  0.0283 -0.2195
36566W        W79504   9.966   3.228  23.915  0.1723 -0.2267  0.0544
36567W        W79505   6.524   1.891  20.770 -0.1192 -0.0553  0.0416
36568W        W79506  10.051   1.899  22.478 -0.1603  0.0550 -0.1354
36569W        W79507   9.217   0.334  22.690  0.1840  0.0812  0.0487
36570W        W79508   7.734  33.754  19.730 -0.1798  0.1071 -0.1271
36571W        W79509   8.924   0.205  20.684  0.3560 -0.5053 -0.2665
36572W        W79510   9.887   3.670  21.617  0.3636  0.0008  0.1777
36573W        W79511  10.732   4.174  19.690  0.0697 -0.0932 -0.0953
36574W        W79512   9.604   2.373  22.831  0.0386  0.0682 -0.2806
36575W        W79513   9.592   1.975  23.141  0.2501 -0.0844 -0.0065
36576W        W79514   7.384  33.768  23.014 -0.2329 -0.2025 -0.0653
36577W        W79515  10.278   3.361  21.458 -0.2779  0.0151 -0.2239
36578W        W79516  10.199   2.556  23.869  0.3349 -0.2044  0.1667
36579W        W79517  10.233   1.405  20.287  0.0406  0.1028 -0.0258
36580W        W79518   9.918  33.880  21.819 -0.2120 -0.3121 -0.4723
36581W        W79519  10.223   0.474  20.627 -0.1227  0.0358  0.1188
36582W        W79520   7.532  34.142  22.152  0.2016 -0.0876 -0.2251
36583W        W79521   7.169   1.039  23.300 -0.2310  0.0477  0.1210
36584W        W79522  10.703   3.107  22.756  0.1088  0.0468 -0.1008
36585W        W79523   7.005  34.325  22.353 -0.8164  0.1730  0.1917
36586W        W79524  10.766  34.514  19.530 -0.1169 -0.0711 -0.1887
36587W        W79525  10.606   4.686  21.483  0.0382 -0.0691 -0.0978
36588W        W79526   7.983   1.122  21.999 -0.1817  0.2035 -0.4360
36589W        W79527   9.591   1.335  20.525  0.0348 -0.2036  0.1126
36590W        W79528  11.567   0.421  23.561 -0.0208 -0.3782 -0.1571
36591W        W79529   9.803   2.660  22.448 -0.1646  0.3089 -0.0674
36592W        W79530   9.093   1.743  23.364 -0.0340  0.0068 -0.0698
36593W        W79531   8.845   0.764  20.645 -0.0123 -0.1167 -0.0003
36594W        W79532  11.015   2.708  20.453 -0.1312  0.1536  0.3310
36595W        W79533  10.228   3.427  23.498 -0.2369 -0.3089 -0.2047
36596W        W79534  10.626   2.601  25.506 -0.1177  0.0839  0.2142
36597W        W79535   9.819   3.678  22.448 -0.1106  0.3445  0.0226
36598W        W79536  11.252   0.433  20.891  0.1028 -0.1717  0.1515
36599W        W79537   9.447  34.165  22.906  0.3967  0.3200 -0.0517
36600W        W79538   9.149   1.331  20.756 -0.1032 -0.1055  0.0497
36601W        W79539   9.145   3.621  20.346  0.0182 -0.3350 -0.2637
36602W        W79540  10.323   0.964  20.932 -0.0002 -0.2476  0.0792
36603W        W79541   9.617  33.727  21.067 -0.1468 -0.2291  0.0531
36604W        W79542   8.801  32.844  17.814 -0.1004  0.0911 -0.3462
36605W        W79543   9.984   2.221  22.067 -0.0430 -0.1779 -0.4478
36606W        W79544  10.469   2.087  22.200  0.1892 -0.2034  0.3647
36607W        W79545   7.726   3.879  26.633 -0.2491  0.0248  0.0140
36608W        W79546   7.559   1.341  24.566  0.2251  0.0132  0.3152
36609W        W79547  10.032  34.352  23.302  0.2554 -0.1428 -0.0974
36610W        W79548   9.990   1.548  25.135  0.2143  0.1147 -0.2840
36611W        W79549   6.745   0.704  25.299 -0.2670 -0.1060  0.0119
36612W        W79550  10.265   3.889  23.828 -0.0576  0.0564 -0.0197
36613W        W79551   8.723  34.567  26.572 -0.0702  0.0727 -0.2071
36614W        W79552   8.746   2.109  25.689 -0.0171 -0.1526 -0.0927
36615W        W79553  10.149   3.370  26.064  0.1598  0.0011 -0.1197
36616W        W79554   9.382   0.337  24.226  0.0734  0.1787 -0.2140
36617W        W79555   8.884   0.403  26.603  0.2564 -0.3280 -0.0816
36618W        W79556   8.867   1.710  24.335 -0.0515  0.0089  0.1068
36619W        W79557   7.021  33.361  24.985  0.3812 -0.3205  0.1993
36620W        W79558   6.883   0.262  25.801  0.3260 -0.2585  0.0128
36621W        W79559   8.358   0.307  25.778  0.1089  0.2209  0.1595
36622W        W79560   7.934  34.666  24.614 -0.0105 -0.0496  0.2173
36623W        W79561   6.812   1.944  25.799 -0.0702 -0.0282  0.2422
36624W        W79562   8.508   0.730  25.539 -0.1574  0.0344  0.1538
36625W        W79563   8.394   3.944  26.258 -0.4668  0.3897 -0.2194
36626W        W79564   9.663   0.479  26.835  0.1054 -0.0997 -0.1061
36627W        W79565   9.086   0.305  27.639  0.0238 -0.1639  0.3605
36628W        W79566   8.225   2.537  25.644  0.0414  0.2131  0.0561
36629W        W79567   7.907   0.627  22.233 -0.0692  0.0827  0.2642
36630W        W79568   6.327   0.769  24.981  0.1820 -0.0662  0.1915
36631W        W79569   8.146   1.751  26.759 -0.1717 -0.0257 -0.2295
36632W        W79570  10.864   0.893  26.363  0.1802  0.0296  0.1115
36633W        W79571   9.580   1.763  25.890 -0.0977  0.2466 -0.0552
36634W        W79572   7.423   3.743  26.147 -0.2828 -0.0007  0.1058
36635W        W79573   8.252   4.674  26.676  0.2332  0.2995 -0.0041
36636W        W79574  10.641  34.328  27.353 -0.0448 -0.3298  0.3526
36637W        W79575   7.315   1.849  24.764 -0.1690 -0.0067  0.0950
36638W        W79576   5.601   4.351  27.130 -0.3739 -0.1004 -0.1021
36639W        W79577   8.585   1.763  23.295  0.1676 -0.2090 -0.0749
36640W        W79578   9.829   2.480  24.338  0.1119 -0.0901 -0.0706
36641W        W79579   8.792   4.405  26.723  0.2813  0.0339  0.1741
36642W        W79580   8.690   3.705  27.346 -0.0267  0.1631  0.3883
36643W        W79581   7.638   2.967  25.522  0.2632  0.0643  0.2750
36644W        W79582  10.123   5.007  26.898 -0.3441 -0.0404 -0.1245
36645W        W79583   8.454   4.440  26.306 -0.0175 -0.4883 -0.1918
36646W        W79584   8.651   1.517  26.716  0.0632  0.0528  0.0563
36647W        W79585   8.445   0.436  24.180 -0.0057  0.1611 -0.1727
36648W        W79586   8.318   2.594  25.000  0.1403  0.2027 -0.1825
36649W        W79587  10.243   2.471  25.816 -0.3123  0.2768 -0.4703
36650W        W79588   8.341   2.768  27.057 -0.4303  0.3709  0.0616
36651W        W79589   7.528   2.799  26.513  0.1167  0.4668 -0.1449
36652W        W79590   9.964   1.415  27.978 -0.1842 -0.0972 -0.1624
36653W        W79591   7.867   3.643  23.247  0.0413 -0.0017 -0.1558
36654W        W79592   9.662  34.025  23.388  0.0929 -0.2905  0.4389
36655W        W79593   8.856   0.377  23.836 -0.1823  0.0573 -0.3556
36656W        W79594  10.650  34.481  23.954 -0.0005  0.0573 -0.1046
36657W        W79595   9.178  34.603  25.709 -0.0983 -0.2527  0.0431
36658W        W79596   8.253   5.730  25.244 -0.1997  0.2224  0.2195
36659W        W79597   7.763   1.345  26.667 -0.0742 -0.4100 -0.2030
36660W        W79598   9.066   3.037  26.024  0.1706 -0.1070  0.3146
36661W        W79599   8.814   0.692  24.667 -0.0599  0.0879  0.2258
36662W        W79600  10.011   0.905  25.753 -0.1242 -0.3234  0.2251
36663W        W79601   7.989   3.884  25.316 -0.1787  0.0543  0.2902
36664W        W79602   8.231   1.206  26.463  0.2748 -0.0004 -0.1897
36665W        W79603  10.396   2.868  24.980  0.1456  0.1054 -0.0981
36666W        W79604  10.345   2.251  24.551  0.1513  0.2854 -0.2469
36667W        W79605   8.840   3.111  23.777 -0.0290 -0.1995  0.2670
36668W        W79606   8.408   0.794  24.917  0.0484 -0.3711 -0.0533
36669W        W79607   7.036   1.830  27.395  0.1972  0.2641  0.2217
36670W        W79608   7.646   1.706  26.973 -0.0175 -0.2509  0.0091
36671W        W79609   7.872   0.166  23.298  0.0655  0.4099 -0.2796
36672W        W79610  10.583   2.988  27.282  0.1431 -0.3667 -0.2064
36673W        W79611   7.304   1.404  27.291  0.1153  0.0055 -0.0353
36674W        W79612  10.413   1.709  25.383  0.1010  0.0063 -0.3000
36675W        W79613   8.981   2.997  25.302 -0.1554  0.0992  0.1044
36676W        W79614   9.306   2.612  26.079  0.1610  0.0121  0.0130
36677W        W79615   9.099   2.730  24.235 -0.1573 -0.2769  0.2910
36678W        W79616  10.439  33.956  25.472 -0.4159  0.1366 -0.1258
36679W        W79617   9.683  34.287  27.205  0.4677 -0.3393 -0.2630
36680W        W79618   8.042   1.240  24.480 -0.0793  0.0985  0.0859
36681W        W79619   8.931   0.237  24.369 -0.1366  0.1234 -0.1595
36682W        W79620   9.216   2.572  25.415  0.3040  0.1159  0.1791
36683W        W79621  10.299   1.201  24.078  0.0775 -0.1234  0.2633
36684W        W79622   8.385   4.083  26.724 -0.0611  0.0289  0.0220
36685W        W79623   7.448   0.029  28.095 -0.1025 -0.0506 -0.2379
36686W        W79624   8.351   3.471  26.162  0.0866 -0.0889 -0.4023
36687W        W79625   8.672   2.901  23.295  0.6040  0.0728  0.0792
36688W        W79626   7.183   0.535  25.078 -0.3705 -0.0157 -0.2748
36689W        W79627   9.585   1.774  22.556 -0.0608 -0.1290  0.1904
36690W        W79628   9.288   0.914  25.118 -0.0628  0.0635  0.0869
36691W        W79629   8.333   2.068  25.219 -0.0721  0.2383 -0.0577
36692W        W79630  10.218   0.915  25.290 -0.1556  0.1795  0.0710
36693W        W79631   8.008   1.610  27.297 -0.0815  0.2003 -0.4173
36694W        W79632  10.769   0.170  25.411  0.3414  0.3054 -0.1931
36695W        W79633   9.186   1.711  23.886 -0.0555  0.4051 -0.2604
36696W        W79634  10.774   4.483  23.601 -0.1802 -0.0553  0.3703
36697W        W79635   9.808   2.078  24.631 -0.2778 -0.0208 -0.1270
36698W        W79636  11.612   2.945  22.918  0.1483 -0.1584  0.0455
36699W        W79637   6.381   1.684  26.181  0.1275  0.2837  0.4655
36700W        W79638   7.401  34.574  26.935  0.1728  0.3161  0.2412
36701W        W79639   8.243  34.062  26.808 -0.3959 -0.0410  0.3295
36702W        W79640   7.977  33.351  25.964 -0.1810 -0.0367  0.2222
36703W        W79641   9.263   1.603  26.274  0.0603  0.0262 -0.1536
36704W        W79642   7.391   0.090  24.822  0.0857 -0.5235  0.1464
36705W        W79643  10.204   0.788  24.375 -0.1905  0.1534  0.0027
36706W        W79644   8.172   2.148  24.693  0.2425  0.2513  0.1191
36707W        W79645   6.039   2.156  24.336  0.2786 -0.1793  0.1776
36708W        W79646  10.191  34.399  26.866  0.0649 -0.0809  0.0920
36709W        W79647   9.286   2.139  23.568 -0.1819 -0.1790  0.0000
36710W        W79648  10.790   2.524  28.098  0.1048  0.1677  0.0881
36711W        W79649  10.417   2.157  25.444 -0.0989 -0.2280  0.1696
36712W        W79650   8.209   1.585  25.669 -0.0314 -0.3299  0.2315
36713W        W79651   8.614   0.798  23.223  0.5648 -0.3346 -0.3521
36714W        W79652   6.670   5.041  25.173  0.1006 -0.2858  0.3735
36715W        W79653   8.608   2.983  24.826  0.0569 -0.3172 -0.0531
36716W        W79654   8.178  34.390  24.233 -0.0874 -0.0978 -0.0932
36717W        W79655  10.647   3.634  26.759 -0.1089 -0.1107 -0.0075
36718W        W79656   9.528   1.511  25.493 -0.1275  0.2306  0.2091
36719W        W79657   8.541   2.390  26.088 -0.0734  0.2059  0.0962
36720W        W79658  10.445  33.864  26.818 -0.0759  0.2005 -0.0887
36721W        W79659   9.126   2.062  26.090  0.0054 -0.1482 -0.4746
36722W        W79660   8.235  34.351  24.964  0.2471  0.1165  0.2203
36723W        W79661   7.201  34.226  24.473  0.2496 -0.2728  0.1909
36724W        W79662   9.928   3.081  26.453 -0.3028 -0.0853 -0.0300
36725W        W79663   8.681   3.421  23.007 -0.2303 -0.2144  0.1284
36726W        W79664   7.243   1.339  25.455 -0.3702 -0.0656 -0.2103
36727W        W79665   9.300   1.246  23.676 -0.0117  0.1300 -0.0438
36728W        W79666  10.171  34.522  24.089 -0.0418  0.1833  0.0370
36729W        W79667   7.558   0.861  26.388 -0.1339 -0.2191 -0.2172
36730W        W79668   9.334   0.543  26.454 -0.4305  0.0606  0.0169
36731W        W79669   8.018   0.668  24.583  0.1983  0.1098 -0.2594
36732W        W79670   8.177   2.570  27.523 -0.3187 -0.1814 -0.0985
36733W        W79671  10.053  33.443  24.858  0.3191 -0.1084 -0.2599
36734W        W79672  10.379   2.024  24.101  0.1214 -0.3538  0.2018
36735W        W79673   8.912   2.202  26.952  0.0739 -0.1145 -0.3160
36736W        W79674   9.622   2.969  24.199 -0.0816  0.1386 -0.0775
36737W        W79675  10.355  34.194  22.645 -0.1689  0.1818 -0.2065
36738W        W79676  10.004   0.564  23.473  0.2021  0.0045  0.0476
36739W        W79677   7.863   1.708  28.072  0.1330 -0.0819 -0.3134
36740W        W79678   8.748   2.437  24.508 -0.0675 -0.4013  0.3368
36741W        W79679   9.395   2.360  24.500  0.0767 -0.0416 -0.3826
36742W        W79680  10.100   0.256  21.764  0.1371  0.3009 -0.1100
36743W        W79681  10.653   3.141  25.371  0.3593 -0.0446  0.0196
36744W        W79682   7.077   1.190  23.787 -0.0684 -0.3092 -0.0993
36745W        W79683   9.040   2.934  27.429  0.1180 -0.0462 -0.1562
36746W        W79684  10.596   4.177  25.124  0.0151  0.1016  0.1157
36747W        W79685   9.092  34.309  24.605 -0.2085 -0.1432  0.1577
36748W        W79686   9.502   0.486  24.930  0.2227 -0.2235  0.0921
36749W        W79687   9.079  33.801  23.400 -0.2516  0.2396  0.1383
36750W        W79688   8.712   3.036  24.293  0.4024  0.0095 -0.1164
36751W        W79689   9.803   0.511  25.391  0.0704  0.0243  0.0659
36752W        W79690   8.621   1.226  25.723 -0.1370 -0.1934 -0.3143
36753W        W79691   9.221  34.354  27.013 -0.1100 -0.1341  0.2114
36754W        W79692   9.039   1.654  26.997  0.1480 -0.1233 -0.2942
36755W        W79693  10.072   1.679  24.284 -0.1209 -0.0126  0.1594
36756W        W79694   9.421   0.311  25.941 -0.3249  0.0781 -0.1522
36757W        W79695   8.803   0.542  22.343  0.1755 -0.3254 -0.1231
36758W        W79696   8.705  34.274  27.054  0.1219  0.2818 -0.2814
36759W        W79697   7.850   0.154  27.787 -0.1410 -0.2874 -0.2831
36760W        W79698   8.033   3.100  26.341 -0.3269 -0.1929 -0.0710
36761W        W79699   9.284   3.013  26.970  0.0111  0.1819 -0.1732
36762W        W79700   9.269   1.903  24.671 -0.1462 -0.2525  0.0229
36763W        W79701   9.678  34.696  25.457  0.3768 -0.1587 -0.3985
36764W        W79702   9.341  34.257  23.802  0.1438  0.1973  0.0886
36765W        W79703   7.589   3.367  25.824  0.1366  0.3047 -0.3551
36766W        W79704   7.796   2.052  22.947  0.0047 -0.0711 -0.1995
36767W        W79705   8.516   0.180  26.249  0.2401  0.1604 -0.1299
36768W        W79706   8.669   3.164  25.764 -0.4190 -0.1134  0.0397
36769W        W79707   9.429   3.353  22.865 -0.0808  0.0745  0.3583
36770W        W79708   8.538   1.997  26.636 -0.1993 -0.2981 -0.0195
36771W        W79709   8.099   1.752  23.256  0.1560  0.2505 -0.0967
36772W        W79710  10.071  34.094  24.515  0.0169 -0.0487 -0.1459
36773W        W79711   7.007   2.625  25.291  0.1808  0.0762  0.0536
36774W        W79712   7.974   0.597  25.843  0.1914 -0.1437  0.1175
36775W        W79713   7.387   2.045  23.890  0.3443 -0.1262 -0.1613
36776W        W79714   9.466  34.198  25.422 -0.0337  0.1350  0.3009
36777W        W79715   9.803   1.381  23.879  0.0783  0.0466 -0.1054
36778W        W79716   8.205  34.511  26.469  0.0931  0.0263  0.0588
36779W        W79717   9.148  33.664  26.572  0.1344 -0.2978  0.1513
36780W        W79718   7.902   3.741  26.183 -0.2488  0.0311  0.0051
36781W        W79719   9.003   0.796  26.044  0.0583  0.3644  0.0757
36782W        W79720   9.986   0.828  22.313 -0.2732  0.3844 -0.2186
36783W        W79721   9.166   3.739  25.196 -0.0999 -0.0719  0.1664
36784W        W79722   8.290   0.367  26.657 -0.1620 -0.0811  0.2386
36785W        W79723   7.338   0.691  23.724 -0.2622 -0.1421  0.0984
36786W        W79724   9.898   1.255  26.536  0.0550 -0.2263  0.0522
36787W        W79725   8.118   1.514  25.192 -0.2316 -0.1134 -0.2905
36788W        W79726   7.627   2.097  25.097  0.0966 -0.0219 -0.1537
36789W        W79727   9.534   3.954  26.315 -0.4032 -0.0934  0.0482
36790W        W79728   8.102   0.443  25.283  0.1245  0.0142 -0.0961
36791W        W79729   7.581   3.355  26.368 -0.1112  0.2830 -0.0451
36792W        W79730   8.199   1.315  28.858 -0.0038 -0.0161 -0.1232
36793W        W79731   8.490   2.914  26.192 -0.0679  0.0638 -0.1509
36794W        W79732   7.361   0.667  26.965  0.0826  0.0583  0.1557
36795W        W79733   9.568  34.639  26.199 -0.0589 -0.0329 -0.3072
36796W        W79734   8.885   0.374  25.764  0.1080 -0.1140 -0.0676
36797W        W79735   8.585   2.582  24.074  0.2350 -0.0473  0.0805
36798W        W79736   9.738   0.788  26.360 -0.0163 -0.2525 -0.1309
36799W        W79737   7.628   2.919  26.040  0.0836 -0.1925 -0.2424
36800W        W79738   8.025  33.975  25.993  0.2837  0.0661  0.0640
36801W        W79739  11.021   4.048  22.643 -0.1796 -0.2045  0.1002
36802W        W79740   8.830   2.759  26.998  0.1452  0.1054  0.0892
36803W        W79741   8.272   2.713  24.524  0.4277 -0.1832  0.1633
36804W        W79742   7.014   0.414  26.609  0.0075  0.2403  0.0034
36805W        W79743   7.904   2.435  25.294  0.0171 -0.2024 -0.1858
36806W        W79744  10.253   0.068  25.417  0.1260  0.0296 -0.2604
36807W        W79745   7.215   2.422  26.037 -0.1279 -0.1261 -0.2093
36808W        W79746   8.359   3.404  24.970  0.0220 -0.0203 -0.0218
36809W        W79747   7.443   5.163  26.328  0.1636  0.4108  0.2147
36810W        W79748  10.964   0.567  23.987  0.1756 -0.0387  0.0803
36811W        W79749   9.500   1.930  24.207 -0.1569 -0.2232 -0.1381
36812W        W79750   9.947   0.167  25.857 -0.0898 -0.2409  0.0757
36813W        W79751  10.385   0.014  26.367  0.0417 -0.0074 -0.0316
36814W        W79752   9.291  34.580  25.094 -0.1007 -0.0886  0.3005
36815W        W79753   9.943   1.563  27.423 -0.2296 -0.2673  0.1589
36816W        W79754   8.735   0.870  26.528  0.0096 -0.2259  0.2355
36817W        W79755   9.903   2.393  25.407  0.0395 -0.0283  0.0082
36818W        W79756   7.164   1.105  26.390 -0.0331 -0.1561  0.1810
36819W        W79757   9.471   5.211  28.795  0.0687 -0.1459  0.0790
36820W        W79758   8.093   2.203  26.473  0.1142 -0.0621 -0.1880
36821W        W79759   9.827   0.462  24.473 -0.4627 -0.0353 -0.0717
36822W        W79760   8.400   0.927  24.305 -0.2408 -0.1964  0.0402
36823W        W79761   9.345   1.495  24.376  0.1793  0.2279  0.0959
36824W        W79762  10.159   1.180  24.709 -0.1233  0.0381 -0.4189
36825W        W79763   8.975   1.218  24.116 -0.0861  0.2505 -0.0957
36826W        W79764  10.385   0.289  24.167 -0.0895  0.1207  0.0266
36827W        W79765   8.625   1.199  24.719 -0.2919  0.1134 -0.0497
36828W        W79766   9.087   1.343  25.383  0.0282 -0.3202  0.3186
36829W        W79767   9.877   0.330  23.930 -0.1290 -0.0752 -0.0115
36830W        W79768   8.755   2.153  23.577  0.2486 -0.2901 -0.3668
36831W        W79769   9.208   1.040  27.315  0.0165 -0.3455  0.2395
36832W        W79770   9.705   1.257  26.022 -0.0993 -0.1277 -0.3067
36833W        W79771  10.174   0.562  26.103 -0.0053 -0.0732  0.2635
36834W        W79772   9.912   0.278  26.397 -0.1725  0.0588  0.0395
36835W        W79773   8.915   1.655  25.836 -0.2888  0.0169 -0.0914
36836W        W79774   7.775   1.120  27.239 -0.0588  0.0402 -0.1193
36837W        W79775   7.750  34.119  27.490 -0.1870 -0.3421  0.1300
36838W        W79776   9.642   3.145  26.035 -0.1083  0.1107 -0.1292
36839W        W79777  10.863   1.096  24.890 -0.0982  0.0282  0.2770
36840W        W79778  10.099   0.722  26.722 -0.0906  0.0500  0.0971
36841W        W79779  11.292   1.956  24.300  0.0082  0.0533  0.3378
36842W        W79780   9.381   0.902  24.087 -0.1836  0.3076 -0.1520
36843W        W79781   8.570   1.736  26.258  0.0289  0.0980 -0.0603
36844W        W79782   9.346   1.090  26.316  0.2000  0.1392 -0.1890
36845W        W79783   6.772  33.491  24.146 -0.1390 -0.0618 -0.1910
36846W        W79784  10.341  33.408  27.216  0.0180 -0.1401  0.2895
36847W        W79785   8.419   2.634  23.615 -0.1397 -0.1225  0.3192
36848W        W79786   9.916   2.499  24.828 -0.4313 -0.0419 -0.0406
36849W        W79787   9.609   0.467  23.019 -0.0053 -0.0787 -0.2008
36850W        W79788   7.078   0.657  26.136  0.1464  0.2589  0.3458
36851W        W79789   7.732   3.532  27.106 -0.1326  0.0879  0.1061
36852W        W79790   7.986   0.695  24.050  0.3125  0.0937 -0.1716
36853W        W79791   7.435   1.618  22.539  0.1866 -0.1679 -0.1115
36854W        W79792   8.569   3.645  26.825  0.0788  0.0656 -0.0731
36855W        W79793   9.376   3.102  26.439  0.4542 -0.1736  0.1112
36856W        W79794   8.352  34.231  23.712  0.0262  0.0335 -0.3868
36857W        W79795   9.007   0.836  25.574 -0.1488  0.2964 -0.0658
36858W        W79796   8.241   2.067  23.801  0.0680  0.1993 -0.0597
36859W        W79797   8.338   0.224  24.821 -0.1242  0.0151 -0.0371
36860W        W79798   8.393   4.491  27.188  0.0263 -0.1852 -0.0795
36861W        W79799   7.632   0.501  25.443  0.2621 -0.1935 -0.1536
36862W        W79800   8.696   2.486  25.323  0.1425 -0.1163  0.0851
36863W        W79801   9.974  34.416  26.299 -0.2964 -0.1373  0.0905
36864W        W79802   9.498   2.368  25.029 -0.0403 -0.0089 -0.0745
36865W        W79803   9.438   1.556  26.707  0.3374  0.0425  0.0427
36866W        W79804  10.304   1.609  26.520  0.3265 -0.0085  0.0952
36867W        W79805   9.076   2.653  24.846 -0.0552 -0.0637 -0.1621
36868W        W79806   9.198   1.223  25.890 -0.1454  0.0882 -0.1565
36869W        W79807   8.828   3.371  26.439  0.1413 -0.1875  0.0890
36870W        W79808   9.520   2.807  24.676  0.0246 -0.1124  0.0443
36871W        W79809   8.086   2.674  26.174  0.0618  0.1082  0.3858
36872W        W79810   7.308   0.962  27.768  0.0836  0.2982  0.2950
36873W        W79811   9.167   0.809  27.756  0.1322  0.0187 -0.0170
36874W        W79812   9.645   0.043  23.466 -0.0372 -0.0763  0.0375
36875W        W79813   8.607  34.592  24.541  0.0465 -0.0478 -0.0887
36876W        W79814   7.949   2.845  23.468 -0.0890 -0.0525 -0.0169
36877W        W79815   7.889   2.147  26.949 -0.2367 -0.0633 -0.1610
36878W        W79816   7.622   2.355  28.063 -0.2830  0.2376  0.1356
36879W        W79817   7.356   5.600  25.443 -0.1726  0.3627 -0.0674
36880W        W79818   9.622   1.057  24.738 -0.2926  0.1011 -0.2498
36881W        W79819   9.572  34.173  24.287  0.0272  0.2684 -0.1268
36882W        W79820  10.177   2.863  25.435  0.1930  0.2369  0.0720
36883W        W79821   9.301   0.726  24.511 -0.0589  0.0475 -0.1704
36884W        W79822   7.566   4.304  25.333 -0.0943  0.0073  0.1291
36885W        W79823   7.575   1.290  23.365  0.0053 -0.0737  0.0617
36886W        W79824   9.208   2.490  23.145 -0.1432 -0.3321  0.1373
36887W        W79825   8.151   3.081  25.808 -0.0885 -0.0065  0.1614
36888W        W79826   9.380   3.887  27.334 -0.2738  0.2667 -0.1284
36889W        W79827   9.836   1.060  24.244 -0.2515 -0.0997  0.0848
36890W        W79828  10.817   1.566  25.749  0.2743 -0.1663 -0.1617
36891W        W79829  12.011   0.033  25.668 -0.2345 -0.1839  0.3642
36892W        W79830   9.284   2.551  26.739  0.0676 -0.1531 -0.2063
36893W        W79831   8.844   0.697  25.145 -0.2258  0.0161  0.1229
36894W        W79832   8.739   0.031  23.449  0.1097  0.1334 -0.1385
36895W        W79833   7.776   2.351  25.943  0.2403 -0.0954 -0.0362
36896W        W79834  10.062  34.101  28.169  0.2082  0.1177  0.3941
36897W        W79835   7.991   4.312  26.378 -0.0406 -0.2586 -0.1448
36898W        W79836   9.419   2.993  25.583  0.4365 -0.0580 -0.0655
36899W        W79837   7.678   1.564  23.905 -0.2050 -0.0577  0.1375
36900W        W79838   9.151   1.910  25.454 -0.1496 -0.0749 -0.2172
36901W        W79839  11.572  34.478  25.854 -0.1551  0.1786  0.1813
36902W        W79840   9.612   0.743  22.607  0.1413  0.0713  0.1445
36903W        W79841   8.974   0.244  24.887  0.1849  0.0088  0.4297
36904W        W79842   9.159   3.645  24.694 -0.0456  0.0793  0.2569
36905W        W79843   7.841   3.104  26.811 -0.1544  0.0640  0.0597
36906W        W79844   7.906   4.862  27.011 -0.1088  0.0579 -0.0230
36907W        W79845   6.911   0.059  25.144 -0.1997 -0.4419  0.0998
36908W        W79846  10.711   1.905  24.469 -0.2764 -0.0983  0.0783
36909W        W79847   7.712   1.330  26.053 -0.1404 -0.1935  0.3809
36910W        W79848   9.273  33.639  25.279  0.0586  0.0747  0.0516
36911W        W79849   8.619   1.140  25.251 -0.1039 -0.0323  0.0627
36912W        W79850   9.757  34.337  24.962 -0.1621  0.0790  0.0220
36913W        W79851   8.408   3.125  26.664 -0.1645  0.0453 -0.0340
36914W        W79852   6.730   0.892  26.411  0.2947  0.0120 -0.0990
36915W        W79853   8.899   0.715  24.143  0.0734 -0.2014 -0.1834
36916W        W79854   9.704   3.507  26.404  0.3392  0.0435  0.2693
36917W        W79855   8.708   1.199  22.917 -0.0566  0.2012  0.0894
36918W        W79856  10.405   4.681  28.426 -0.2224 -0.0647  0.4126
36919W        W79857   6.808   1.808  24.751  0.1615 -0.1467 -0.3102
36920W        W79858   9.568  34.632  23.999  0.0761  0.2407  0.0797
36921W        W79859   9.052   2.143  25.055 -0.1020 -0.1532  0.0782
36922W        W79860   8.096   1.790  26.133 -0.0532 -0.1248  0.2296
36923W        W79861   9.463   3.439  28.446 -0.3809 -0.0108 -0.0178
36924W        W79862   7.790  33.647  24.429  0.1165 -0.2153 -0.2876
36925W        W79863  10.900   2.130  23.986 -0.4348  0.4292 -0.1741
36926W        W79864  11.186   1.543  26.086  0.0214 -0.0335 -0.1242
36927W        W79865   9.307   2.846  22.727 -0.1748 -0.1367 -0.1997
36928W        W79866   8.652   2.032  24.739 -0.0996 -0.1117  0.1309
36929W        W79867   9.912   3.237  25.637  0.2208  0.0946  0.1515
36930W        W79868   6.573   0.742  27.400  0.3474  0.1170 -0.0349
36931W        W79869   9.640   2.828  25.202 -0.1127  0.0333 -0.0865
36932W        W79870  10.663   2.668  26.590 -0.0296 -0.0178  0.0168
36933W        W79871   9.212  34.254  26.101 -0.0949 -0.1926 -0.0335
36934W        W79872   8.464   2.525  26.612  0.0605 -0.3092 -0.3386
36935W        W79873   7.321   2.453  24.910 -0.0387 -0.0880 -0.1789
36936W        W79874  11.100   0.679  24.805 -0.2414 -0.0354 -0.2739
36937W        W79875  10.223   1.388  26.078  0.2067  0.1425 -0.1516
36938W        W79876   9.425   3.846  22.691 -0.1761 -0.4202 -0.0153
36939W        W79877  10.644   1.447  28.585 -0.1276  0.0102  0.0295
36940W        W79878   8.399   3.004  25.310 -0.2383  0.1961  0.0246
36941W        W79879  10.641   5.050  27.057  0.0783  0.0731  0.1496
36942W        W79880   7.168   2.802  24.562  0.2087 -0.1413 -0.0317
36943W        W79881   8.359   1.836  27.943  0.0044 -0.2114  0.1879
36944W        W79882   9.094   4.172  24.929  0.0764 -0.1305 -0.0670
36945W        W79883   8.358   3.214  23.521 -0.2307  0.2916 -0.0526
36946W        W79884  10.657   2.231  25.916 -0.3276  0.0978 -0.0729
36947W        W79885   9.720   1.100  25.366  0.2067 -0.1316 -0.0496
36948W        W79886  11.341   1.571  25.585  0.2183  0.1199 -0.0575
36949W        W79887   7.993   0.275  26.219  0.1472 -0.0913  0.0384
36950W        W79888   8.985  33.634  24.448 -0.2829 -0.1315 -0.0375
36951W        W79889  10.555  32.610  26.117  0.1469 -0.4128  0.0113
36952W        W79890   7.825   1.065  24.924  0.1112  0.0023 -0.1660
36953W        W79891   7.102   1.333  24.888 -0.0392 -0.0643 -0.0896
36954W        W79892   7.933   1.891  22.459 -0.1262 -0.0979 -0.2441
36955W        W79893   7.232   1.670  24.240  0.0775  0.3519  0.1960
36956W        W79894   9.995  33.749  27.031 -0.1605 -0.3024 -0.0484
36957W        W79895   8.518   0.663  26.107  0.0143 -0.2792  0.1406
36958W        W79896   6.924   0.847  24.843 -0.0224  0.0879  0.1097
36959W        W79897   8.952   1.657  24.966  0.0587 -0.2029 -0.1246
36960W        W79898   8.990   2.140  24.110  0.2054 -0.0595  0.1955
36961W        W79899   9.054   0.088  26.183 -0.2207 -0.2453 -0.0425
36962W        W79900   6.687   0.322  26.273 -0.2801 -0.2856  0.0890
36963W        W79901   9.888   4.302  23.149  0.0316  0.0142  0.1873
36964W        W79902  10.694   1.269  24.363 -0.2119 -0.1109 -0.1609
36965W        W79903   9.550  34.646  24.565  0.1443 -0.2457 -0.0740
36966W        W79904  10.138   4.547  26.434 -0.0865  0.3635  0.1548
36967W        W79905   9.024   0.773  23.593 -0.3118  0.1776 -0.0251
36968W        W79906   9.420   0.932  28.189 -0.0518 -0.0560  0.1871
36969W        W79907   8.412   0.809  26.853  0.2294 -0.0801  0.0151
36970W        W79908   8.662   1.644  23.767 -0.1123  0.0016 -0.3215
36971W        W79909   9.257   0.103  26.633  0.2119  0.1538 -0.3268
36972W        W79910   9.855   3.704  24.651 -0.0322  0.0785 -0.1814
36973W        W79911   9.823   3.679  23.703 -0.0345  0.1512 -0.1891
36974W        W79912   8.118   2.041  25.621 -0.0029  0.1656  0.0747
36975W        W79913   8.786   4.756  27.379  0.1687 -0.0982  0.1278
36976W        W79914   8.192   0.500  27.131  0.3983 -0.1815 -0.0308
36977W        W79915  10.260   1.684  24.732 -0.1259  0.1357 -0.3005
36978W        W79916   7.485   2.673  28.480 -0.2127 -0.1592  0.0231
36979W        W79917  10.566   2.646  22.889  0.1697  0.1482  0.0816
36980W        W79918  10.012  34.575  24.567  0.1924  0.1248  0.3868
36981W        W79919   9.600   1.884  25.065  0.0711 -0.0476  0.2710
36982W        W79920   8.931  34.126  26.528  0.3484  0.0062  0.2775
36983W        W79921   8.415   3.019  27.518 -0.0119  0.0825  0.0143
36984W        W79922   9.643   2.679  26.460  0.1918  0.5135  0.0767
36985W        W79923   8.135  34.334  25.481 -0.0274  0.1777  0.1052
36986W        W79924   9.808   0.864  23.789 -0.2066 -0.0432  0.1464
36987W        W79925   9.776   1.556  24.665 -0.0310 -0.0920 -0.2063
36988W        W79926   7.723   1.874  26.425  0.5249  0.1079 -0.2581
36989W        W79927  10.018  33.734  24.135 -0.0220  0.4444 -0.4491
36990W        W79928   8.621   1.647  25.426 -0.1959 -0.2674 -0.4104
36991W        W79929   8.844   3.946  25.545 -0.1779  0.2095 -0.1400
36992W        W79930   9.736   2.450  26.977  0.1183 -0.1447 -0.0797
36993W        W79931   9.440   1.387  25.023  0.0345  0.0679  0.0471
36994W        W79932   9.668   1.808  23.615  0.2568 -0.1557  0.0464
36995W        W79933   9.090   3.357  25.633  0.3826  0.0679  0.2605
36996W        W79934  10.747   3.870  27.367  0.0744  0.0563  0.2708
36997W        W79935   8.862   3.900  26.443  0.2215  0.0848 -0.0629
36998W        W79936   9.955   0.668  24.928 -0.0233 -0.5045 -0.0971
36999W        W79937   8.266  33.623  25.456 -0.0842 -0.1324 -0.1668
37000W        W79938   8.419   1.621  24.709 -0.1530 -0.2753  0.3976
37001W        W79939   8.822   1.290  23.446  0.0517  0.2608 -0.0093
37002W        W79940  10.305   1.887  25.873  0.4226 -0.2071 -0.1973
37003W        W79941   8.168   1.116  25.892 -0.0163 -0.1198  0.1377
37004W        W79942   8.912  33.703  24.930  0.0411  0.1589 -0.0973
37005W        W79943   8.560   5.132  26.017  0.0213  0.1452  0.2002
37006W        W79944   8.871   1.248  26.260  0.0530 -0.1974 -0.1370
37007W        W79945   6.838   2.208  30.981  0.0072 -0.3282  0.3786
37008W        W79946   8.687   0.500  30.199  0.1041 -0.4508  0.0969
37009W        W79947   9.545   1.026  26.823 -0.0924  0.0999  0.1341
37010W        W79948  10.108   0.085  27.807 -0.2129  0.1576 -0.1429
37011W        W79949   8.881  34.119  28.324  0.1379 -0.2050 -0.0408
37012W        W79950  10.363   3.799  28.403 -0.2416 -0.2730 -0.5399
37013W        W79951   8.357  34.118  31.160  0.0385 -0.0568 -0.1292
37014W        W79952   9.590   2.316  29.108  0.0189  0.2258  0.1096
37015W        W79953   9.865   3.181  28.687  0.0459  0.4032  0.1969
37016W        W79954   8.910   2.390  26.461  0.0702  0.3480 -0.2072
37017W        W79955   9.086   2.274  29.684 -0.1008 -0.1448  0.3339
37018W        W79956   7.926   4.260  30.503  0.0324 -0.0639  0.1746
37019W        W79957   8.495  34.339  29.608 -0.2031  0.2927 -0.0494
37020W        W79958   7.459  34.278  29.290 -0.0075 -0.0786  0.3885
37021W        W79959  10.318   3.404  30.456  0.0663  0.0135  0.1969
37022W        W79960   6.809   0.744  29.496  0.0501  0.0355 -0.0493
37023W        W79961   7.498   0.097  30.394 -0.0270 -0.4546 -0.3955
37024W        W79962   8.132   1.260  28.253 -0.2345 -0.0542  0.3594
37025W        W79963   8.267   3.839  28.865 -0.1693  0.0689 -0.0998
37026W        W79964   8.145  34.600  31.407  0.2931 -0.0800  0.2047
37027W        W79965  10.701   0.112  31.616  0.0292 -0.2771 -0.3860
37028W        W79966  10.158   3.571  26.612  0.2242  0.0908  0.3484
37029W        W79967   7.332   1.542  26.434 -0.1206  0.1672 -0.0557
37030W        W79968   7.121   1.299  30.732  0.0378  0.1921 -0.2261
37031W        W79969   8.111   2.112  30.799 -0.0982  0.1757 -0.0851
37032W        W79970   9.642   0.754  29.212  0.0802 -0.0343 -0.2521
37033W        W79971   8.879   2.383  28.768 -0.1135  0.0225  0.1044
37034W        W79972  10.576   4.235  28.093  0.2366 -0.2010  0.3414
37035W        W79973   8.966   3.613  28.361 -0.1852 -0.0587  0.1088
37036W        W79974  10.393   1.264  31.376 -0.2431  0.0913  0.1290
37037W        W79975   7.465   2.638  29.711 -0.0372 -0.1395  0.0775
37038W        W79976   7.802   3.834  29.026 -0.0864  0.7657 -0.0052
37039W        W79977   8.709   3.214  27.115 -0.2321 -0.3144 -0.0837
37040W        W79978   9.338   2.123  28.691  0.0574  0.2941  0.1481
37041W        W79979  11.296   2.983  31.468 -0.1802  0.3047 -0.0469
37042W        W79980   9.967   3.702  30.124  0.0035 -0.1015 -0.0478
37043W        W79981   7.844   0.871  27.887 -0.0058  0.0646  0.0162
37044W        W79982  10.322   3.244  31.557 -0.1716  0.1368 -0.0261
37045W        W79983   7.840   3.002  31.529  0.3239  0.2777 -0.0670
37046W        W79984  10.095   1.404  29.582  0.1853  0.1741  0.0167
37047W        W79985   8.272   1.788  28.941  0.0171  0.2250 -0.0600
37048W        W79986   8.219   2.850  28.042 -0.0046  0.1897  0.0985
37049W        W79987   9.084   1.698  28.403 -0.0831 -0.0821  0.1052
37050W        W79988   9.684   1.467  31.621 -0.1025  0.0562 -0.1818
37051W        W79989   7.163   2.210  29.722 -0.2720 -0.0374  0.0217
37052W        W79990  11.595   0.401  30.681  0.3512  0.1257  0.2058
37053W        W79991   7.080   3.307  28.245 -0.1623  0.0690  0.1832
37054W        W79992   9.721  34.687  26.784  0.0675  0.1624  0.0486
37055W        W79993   8.287   0.538  28.155 -0.2686  0.0942 -0.2634
37056W        W79994   9.103   1.307  27.933  0.1283 -0.2335  0.0301
37057W        W79995   8.822   0.472  30.674 -0.2459  0.0943 -0.2899
37058W        W79996   8.820   4.073  29.256 -0.1384  0.0556  0.0380
37059W        W79997   8.562  34.446  29.096  0.1029 -0.2190  0.2150
37060W        W79998   9.815   2.814  29.027  0.0311  0.1605  0.1222
37061W        W79999   9.018   1.915  26.582 -0.0344  0.2979 -0.2692
37062W        W80000  10.239   1.814  30.363 -0.0101  0.0645  0.0167
37063W        W80001   8.498   4.302  29.827  0.0814  0.1717 -0.3116
37064W        W80002   8.351   0.908  30.060  0.2079  0.1808 -0.2328
37065W        W80003   9.942   2.064  26.691  0.0861 -0.2465 -0.2933
37066W        W80004  10.397   1.860  27.511 -0.1592  0.0584  0.1953
37067W        W80005   8.890   3.977  26.999 -0.2906  0.1400  0.3717
37068W        W80006   8.508  33.880  29.266  0.4503  0.2891  0.1109
37069W        W80007   7.364   2.448  30.878 -0.1398 -0.1558 -0.0770
37070W        W80008   7.886   0.916  30.728  0.1526  0.1421 -0.1507
37071W        W80009   8.068   0.754  26.318 -0.0518 -0.0776 -0.0780
37072W        W80010  10.532   2.414  31.213  0.1118  0.1834  0.1357
37073W        W80011   8.263   2.379  31.360  0.0914 -0.1652  0.0088
37074W        W80012  10.417   1.006  29.560 -0.1302  0.0098 -0.2606
37075W        W80013   8.411   1.497  30.253 -0.2820  0.4132  0.2845
37076W        W80014  10.932   2.327  29.904  0.1913 -0.0000  0.2579
37077W        W80015   9.180   2.527  27.242  0.0830 -0.4328  0.0707
37078W        W80016  11.065   1.479  29.116  0.3792  0.2879 -0.0557
37079W        W80017  11.253  34.614  30.831 -0.3035  0.1259  0.1907
37080W        W80018   7.619   1.212  28.195  0.2142 -0.2300 -0.1468
37081W        W80019   8.554   2.662  28.449  0.1353 -0.2001  0.1137
37082W        W80020  11.067   3.230  31.002  0.1087 -0.0205  0.0381
37083W        W80021   9.382   2.314  27.727  0.0818 -0.2246  0.4439
37084W        W80022   8.859   4.780  30.075  0.3208  0.2055 -0.2749
37085W        W80023   9.221   0.545  30.196  0.1741  0.2266  0.0251
37086W        W80024   9.052   3.398  30.782 -0.2526 -0.2238  0.0017
37087W        W80025   6.879   2.545  27.866 -0.2119  0.0217 -0.0588
37088W        W80026   7.150   1.721  29.679 -0.0735  0.0787  0.1405
37089W        W80027   8.223   3.332  28.970 -0.2841 -0.2260 -0.1036
37090W        W80028   7.981  34.587  30.721  0.0397 -0.1455  0.0238
37091W        W80029   8.703   1.694  30.673  0.3047 -0.4060 -0.0006
37092W        W80030   9.133   0.432  28.121  0.1856  0.0663 -0.1010
37093W        W80031   8.785   0.428  31.185  0.0382  0.3119 -0.1871
37094W        W80032   9.891   1.459  30.463  0.1360  0.0865  0.3649
37095W        W80033   7.875   1.591  28.565 -0.1421  0.0574 -0.2478
37096W        W80034  11.641   2.278  29.084 -0.2980 -0.2861 -0.0222
37097W        W80035   9.391   1.733  27.700 -0.1018 -0.0305  0.0737
37098W        W80036  11.447   4.921  27.492 -0.4046  0.4324 -0.0888
37099W        W80037   7.070   1.859  30.135 -0.0156 -0.1151  0.0194
37100W        W80038   7.786  33.830  29.943  0.1802  0.0850 -0.2586
37101W        W80039   8.515   0.810   0.340  0.1521 -0.0458  0.0795
37102W        W80040   8.053  33.943  29.490 -0.0548  0.1593 -0.0110
37103W        W80041  10.763   2.376  31.625  0.0522  0.0078  0.2914
37104W        W80042   9.066  34.270  27.921 -0.2713  0.0493 -0.1706
37105W        W80043   9.867   1.886  27.803  0.4868 -0.2312 -0.2643
37106W        W80044   8.001   2.060  29.240  0.1075  0.0238 -0.2431
37107W        W80045   7.192   1.500  29.207  0.2399 -0.1706 -0.3488
37108W        W80046  11.085   1.512  31.948 -0.0464  0.2086  0.3065
37109W        W80047   9.315   3.557  27.706  0.2593 -0.2821  0.2199
37110W        W80048  11.095   3.146  30.370 -0.0478 -0.0427  0.0229
37111W        W80049   9.934   2.918  27.678  0.0048  0.1330  0.3100
37112W        W80050   7.751   0.188  31.101  0.1761  0.2098  0.1315
37113W        W80051   9.067   0.195  27.149 -0.0881 -0.2089  0.0591
37114W        W80052   9.124   4.295  29.800  0.1021  0.2283 -0.0556
37115W        W80053   8.757   3.925  28.775  0.0110  0.1464 -0.0771
37116W        W80054   9.854  34.025  29.644  0.3290  0.2430 -0.2591
37117W        W80055  10.711   3.072  28.680 -0.1435  0.1169 -0.0452
37118W        W80056   9.076   1.700  29.479 -0.1196 -0.0405  0.0069
37119W        W80057   7.978   1.984  30.335 -0.0956 -0.1208 -0.2362
37120W        W80058   9.373   0.541  30.752  0.3184 -0.1309 -0.4085
37121W        W80059  10.332   1.855  28.868  0.2332 -0.1975 -0.0952
37122W        W80060  10.823   2.297  30.771  0.1885  0.1657 -0.4075
37123W        W80061   7.820  34.158  26.447  0.2553  0.0093 -0.1591
37124W        W80062   9.300   3.849  28.660  0.1553 -0.1861 -0.0372
37125W        W80063   7.787   3.283  29.149 -0.0733 -0.3645  0.2247
37126W        W80064   8.399   0.532  29.226  0.3959  0.0303 -0.0255
37127W        W80065   9.934   3.747  28.552  0.0507  0.1325 -0.0286
37128W        W80066  10.979   1.097  29.503 -0.1608 -0.0334  0.0631
37129W        W80067   8.250   2.387   0.075 -0.0786  0.0928  0.2203
37130W        W80068   9.000   2.285  31.457 -0.0895 -0.1352  0.1834
37131W        W80069   8.352   0.059  28.509 -0.1089  0.1747  0.4093
37132W        W80070   7.793   3.564  30.568  0.2109 -0.0431 -0.2267
37133W        W80071   8.817   1.277  28.482  0.0160  0.0379 -0.1198
37134W        W80072  10.369   0.415  27.351  0.0950 -0.1463 -0.0752
37135W        W80073   8.925   4.145  30.300 -0.2264  0.0623  0.0345
37136W        W80074   9.675   1.983  27.320  0.2179 -0.2661  0.4855
37137W        W80075   9.434   1.545  27.208 -0.4517  0.1237  0.1516
37138W        W80076   9.487   0.869  25.741  0.1146  0.0148  0.0686
37139W        W80077   8.119   2.928   0.318 -0.2522  0.2906 -0.1084
37140W        W80078   8.769   3.824  27.911 -0.0872  0.1903  0.0692
37141W        W80079   8.876   3.111  29.326 -0.0862 -0.0405  0.0479
37142W        W80080   8.618   0.247  26.989  0.0065 -0.0497  0.3173
37143W        W80081  12.361   3.110  26.940  0.0130 -0.0959  0.0564
37144W        W80082   7.781   3.064  30.557 -0.1623 -0.1343 -0.1672
37145W        W80083  10.498   2.383   0.055 -0.0414 -0.1250  0.1759
37146W        W80084   9.830   2.655  28.082  0.4543  0.0400  0.1457
37147W        W80085   9.409   0.856  31.583 -0.1024  0.0300 -0.1833
37148W        W80086   8.593   1.828  27.093 -0.0700 -0.0616 -0.1117
37149W        W80087   9.705   0.181  28.607  0.2122 -0.1227 -0.1969
37150W        W80088   6.459   3.107  27.012  0.2466 -0.1240 -0.4045
37151W        W80089  10.095   0.397  29.670  0.1949  0.2096 -0.2271
37152W        W80090   8.886   0.572  29.229 -0.2081 -0.1225 -0.0320
37153W        W80091   9.584   0.894  31.112 -0.1032 -0.1978 -0.0830
37154W        W80092  10.223   0.565   0.333 -0.6913 -0.2273  0.0708
37155W        W80093   9.289   1.260  28.581 -0.1537 -0.1730 -0.1165
37156W        W80094   9.228   1.300  31.311  0.1169  0.1346  0.1864
37157W        W80095   8.281   1.040  27.432 -0.0598  0.2335 -0.0027
37158W        W80096   9.211   1.052  30.576  0.0805  0.1553 -0.2666
37159W        W80097   7.109   1.800  30.949 -0.0832  0.0011 -0.0133
37160W        W80098   7.578   3.428  31.556  0.2828 -0.0282  0.0706
37161W        W80099   9.262   3.197  30.411  0.3121  0.2461 -0.0888
37162W        W80100   8.463   2.033  30.390 -0.2677  0.1504  0.0016
37163W        W80101   8.986   1.427  31.728  0.0135  0.0999 -0.0581
37164W        W80102   8.859   0.928  28.128 -0.1381  0.1289  0.0845
37165W        W80103   7.962   4.111  28.509  0.0795  0.3290 -0.0381
37166W        W80104   7.522   1.880  27.421  0.0998  0.0644  0.0320
37167W        W80105  10.202  33.791  30.938  0.2156 -0.1053  0.2262
37168W        W80106   8.258   2.672  29.801  0.1648 -0.2149  0.2206
37169W        W80107   8.002   2.663  26.704  0.0419 -0.1056 -0.0885
37170W        W80108   9.124   3.643  30.398  0.2057  0.0105  0.1479
37171W        W80109   8.182   1.993  28.383 -0.5192 -0.0491 -0.1324
37172W        W80110  10.184  34.215  30.033 -0.0909 -0.1193  0.1012
37173W        W80111   8.280   2.573  30.327  0.2944  0.2168 -0.1703
37174W        W80112   8.179   0.081  27.434 -0.1523 -0.2610 -0.3934
37175W        W80113   6.796   0.780  26.888 -0.1967  0.0851 -0.1259
37176W        W80114   9.746   1.159  28.837  0.0317 -0.0262 -0.2893
37177W        W80115  11.198   1.198  28.704 -0.0715 -0.0378  0.1448
37178W        W80116   8.325   0.659  30.574  0.0935  0.3543  0.3640
37179W        W80117   8.872   1.936  31.804 -0.1252  0.0406  0.0885
37180W        W80118   7.335   3.572  29.116  0.1871  0.0315 -0.1370
37181W        W80119   9.893   3.311  29.689  0.0392  0.0140  0.0336
37182W        W80120   9.624   1.657  28.317 -0.2469 -0.0122  0.4939
37183W        W80121   9.616   2.805  30.572  0.1105  0.0367 -0.0807
37184W        W80122   9.202   1.236   0.371 -0.4057 -0.1193 -0.0494
37185W        W80123   7.425  33.414  27.857  0.1301  0.2172 -0.0947
37186W        W80124  10.010   2.369  30.403  0.0806  0.2990  0.0577
37187W        W80125   9.295   1.292  29.726  0.0363 -0.1249 -0.1395
37188W        W80126   6.989   3.410  28.792 -0.3580  0.1629  0.1609
37189W        W80127  10.024   3.090  30.870  0.2402 -0.0028 -0.2370
37190W        W80128   8.467   0.907  28.488  0.2819  0.1007 -0.0685
37191W        W80129   7.840   2.971  28.695  0.1048  0.1971 -0.4407
37192W        W80130   8.337   1.213  30.676 -0.1281 -0.2111 -0.1839
37193W        W80131  10.504   2.897  31.053 -0.1604  0.1361 -0.0673
37194W        W80132   9.475   1.023  30.090  0.0987 -0.2070  0.2832
37195W        W80133   8.222  33.871  27.621 -0.2919  0.2897  0.0461
37196W        W80134   8.366   3.244  29.830 -0.0500  0.1667  0.4455
37197W        W80135  10.007   2.548  29.368  0.1294 -0.5130 -0.4398
37198W        W80136   8.741   0.935  30.416 -0.4337 -0.0493 -0.3776
37199W        W80137   8.690   2.409  30.036  0.0014 -0.0242  0.1544
37200W        W80138   8.373   0.139  31.009 -0.3820 -0.2007  0.1264
37201W        W80139  10.667   3.347  29.226  0.1106 -0.1403 -0.1834
37202W        W80140  10.321   2.135  30.750  0.2346  0.1106 -0.0730
37203W        W80141   8.086   1.257  29.736 -0.1494  0.1397 -0.0409
37204W        W80142   7.862   2.435  30.112  0.1312 -0.0892  0.0178
37205W        W80143   8.276   2.817  28.940 -0.0496 -0.2159 -0.1128
37206W        W80144   8.952   1.106  29.425  0.3802 -0.1885  0.3696
37207W        W80145   9.200   3.163  29.651 -0.0968  0.2452 -0.2965
37208W        W80146   8.548   0.899  29.561 -0.0067  0.2934  0.2607
37209W        W80147   7.148   2.541  30.097  0.2275 -0.4769  0.2639
37210W        W80148  10.155   0.259  28.840  0.1366 -0.1654 -0.0836
37211W        W80149   8.170   1.289  26.975 -0.0265  0.1891  0.2962
37212W        W80150   9.546   1.824  29.397 -0.1149 -0.0220 -0.2686
37213W        W80151  10.887   2.592  30.355  0.1246  0.0185  0.0047
37214W        W80152   9.563   1.246  27.750  0.2688 -0.1851 -0.2720
37215W        W80153  10.756   1.199  30.835 -0.3507  0.1768  0.2571
37216W        W80154   9.628   0.307  30.326 -0.1743 -0.0120  0.3074
37217W        W80155   8.815   3.312  27.688 -0.0117 -0.0412 -0.0930
37218W        W80156   7.832   0.689  31.134 -0.2405 -0.0227 -0.1839
37219W        W80157   8.901   2.896  30.689  0.0027 -0.1204 -0.1742
37220W        W80158   8.590   2.203  31.000 -0.2212 -0.0565 -0.1699
37221W        W80159   8.453   1.546  27.540  0.3154  0.3222  0.0240
37222W        W80160   7.832  33.592  27.686  0.2308  0.1418  0.2961
37223W        W80161   9.013   2.078  30.708 -0.0028  0.3389 -0.2686
37224W        W80162  12.038   3.520  28.891  0.1317  0.1605  0.0714
37225W        W80163   8.887   2.367  27.842 -0.2711  0.3135  0.0816
37226W        W80164   9.839   1.982  28.685 -0.3143 -0.1366 -0.0409
37227W        W80165   7.568   1.885  30.047  0.2866  0.0878 -0.2097
37228W        W80166   9.926   1.564  29.120 -0.4029 -0.0103 -0.1169
37229W        W80167   9.396   0.554  27.370 -0.1402 -0.1072  0.0378
37230W        W80168   8.249   2.117  29.833  0.0981 -0.3970  0.0186
37231W        W80169  10.028  34.251  30.538 -0.2756  0.0007  0.4216
37232W        W80170   8.760   2.903  28.871  0.0016  0.0549  0.0571
37233W        W80171   9.264   0.955  29.042  0.1892  0.1908  0.4228
37234W        W80172   9.698   0.922  30.613  0.0188 -0.1049 -0.1362
37235W        W80173  10.283   2.215  31.616  0.0392 -0.0547 -0.3248
37236W        W80174   7.562   1.236  30.928  0.2283 -0.3864  0.0570
37237W        W80175   7.691   1.107  31.973  0.1026  0.3301  0.1669
37238W        W80176   9.620   4.017  31.174 -0.0891 -0.3342  0.0432
37239W        W80177  10.619   0.028  26.995  0.0278  0.0910 -0.3495
37240W        W80178  10.656   1.400  29.721  0.3577 -0.0973  0.0785
37241W        W80179  10.806   1.060  29.030  0.2943  0.0447 -0.3309
37242W        W80180   7.846   0.881  28.519 -0.0114  0.0262  0.1240
37243W        W80181   8.072  34.683  29.657 -0.2628 -0.2105  0.2690
37244W        W80182  10.152   1.649  31.553 -0.2485  0.1469  0.1958
37245W        W80183   8.889   1.834  27.857 -0.1186 -0.3526  0.2855
37246W        W80184   9.711   1.141   0.749 -0.0266  0.0748  0.0418
37247W        W80185  11.798   3.379  26.231  0.2774 -0.1180 -0.1021
37248W        W80186   9.074   2.561  28.282 -0.0206 -0.1598  0.1549
37249W        W80187   9.156   2.095  29.147  0.0881  0.0427 -0.0621
37250W        W80188   7.431   0.627  30.452  0.0162 -0.1533  0.0451
37251W        W80189   9.218   5.117  31.848  0.0104 -0.4032 -0.1788
37252W        W80190   7.716  34.613  27.355 -0.1282 -0.1932 -0.0867
37253W        W80191   8.416   2.260  27.076 -0.0369  0.0675 -0.3108
37254W        W80192   9.204   2.125  28.198 -0.2817  0.2298  0.3510
37255W        W80193  10.800   1.931   0.095  0.4179 -0.2611  0.2698
37256W        W80194  10.309   0.729  27.942  0.1827  0.1158  0.0732
37257W        W80195   9.548   1.366  30.810  0.3133 -0.0461  0.0688
37258W        W80196   8.586   3.465  28.660  0.3410  0.2429 -0.4825
37259W        W80197   9.932   0.866  29.650  0.1353 -0.0898 -0.0064
37260W        W80198   8.321   5.169  28.541 -0.0166  0.0592 -0.0616
37261W        W80199   8.340   3.851  29.363  0.1114  0.0088  0.2661
37262W        W80200   8.153   3.877  27.138 -0.1287 -0.0290  0.0319
37263W        W80201   9.000  34.605  29.822 -0.0159  0.2566 -0.0971
37264W        W80202  10.029   2.548  29.908  0.1062 -0.0466 -0.1942
37265W        W80203   8.294   2.462  29.301  0.2652 -0.5273  0.0132
37266W        W80204   9.374   1.786  30.999 -0.0833 -0.0358 -0.0782
37267W        W80205   8.900   3.314  30.029  0.2393  0.2301 -0.1987
37268W        W80206   9.051   1.455  29.018 -0.2645 -0.0919 -0.0976
37269W        W80207   9.739   3.927  31.670 -0.1998 -0.0575 -0.0265
37270W        W80208  10.121   1.856  28.301  0.1017 -0.0639 -0.0874
37271W        W80209   8.756   2.767  29.694  0.2306 -0.1756 -0.0588
37272W        W80210   7.652   1.617   0.288  0.4143 -0.0439  0.1646
37273W        W80211   8.609   2.897  30.185  0.1163  0.0194 -0.0592
37274W        W80212  10.412   2.655  27.731  0.2213  0.0134 -0.2251
37275W        W80213   8.972  33.422  30.083  0.0419  0.2131 -0.0812
37276W        W80214   7.435   2.346  27.587  0.0433 -0.0627 -0.0683
37277W        W80215   7.687   2.862   0.650 -0.0404  0.0592 -0.4786
37278W        W80216   7.285   2.808  30.533  0.0255 -0.0915 -0.1621
37279W        W80217   7.914   3.566  28.590  0.0561  0.1520  0.2547
37280W        W80218   8.768   2.856  27.874  0.2296  0.0054  0.0607
37281W        W80219   8.598   2.075  29.305 -0.2458 -0.1468 -0.1455
37282W        W80220   8.557   3.320  28.101 -0.0075  0.0622  0.0394
37283W        W80221   8.930   1.414  30.230  0.2057  0.1253 -0.3088
37284W        W80222   7.082   5.201  29.681  0.1166  0.1057 -0.0490
37285W        W80223   7.840   3.311  27.640  0.2230 -0.4466 -0.2802
37286W        W80224  10.481   3.359  28.230  0.0306 -0.1357  0.2968
37287W        W80225   8.814   2.519  29.241  0.3140 -0.2408 -0.0793
37288W        W80226   9.289   1.709  29.948 -0.1484  0.0952  0.2104
37289W        W80227   9.831  34.371  27.686  0.2113 -0.3610 -0.0507
37290W        W80228  10.297   2.879  28.182  0.2051 -0.2195  0.2319
37291W        W80229  10.547   0.920  27.300 -0.1217  0.1339 -0.6134
37292W        W80230   9.982   3.483  31.835  0.0881  0.3479 -0.1656
37293W        W80231   7.890   2.361  29.633 -0.1390 -0.0408  0.1830
37294W        W80232   9.473  33.801  26.906 -0.0819 -0.0687  0.0326
37295W        W80233   7.990   1.258  30.278  0.1063 -0.2951 -0.1771
37296W        W80234  10.352   0.333  31.346  0.2902  0.1967  0.0976
37297W        W80235   7.999   4.271  29.960 -0.2736 -0.3656 -0.0377
37298W        W80236  11.277   3.196  27.599 -0.0727 -0.0177 -0.3121
37299W        W80237   8.590   1.380  28.043 -0.0307 -0.0641  0.2175
37300W        W80238   8.684   1.359  29.758 -0.0943  0.0062  0.4195
37301W        W80239  10.527   0.173  29.226 -0.2484 -0.0976  0.1723
37302W        W80240   7.924   2.037  27.692 -0.1184 -0.0795  0.1931
37303W        W80241   8.800   1.854  29.933 -0.0013  0.0368 -0.0323
37304W        W80242   9.577   3.503  29.002 -0.0386  0.0021  0.0437
37305W        W80243   9.651   4.250  29.646  0.0602  0.1407  0.1681
37306W        W80244   8.660   3.526  29.129  0.0085 -0.2234  0.0353
37307W        W80245   8.149  34.382  28.789 -0.2517  0.2240  0.0997
37308W        W80246   9.708   2.202  28.266  0.3212  0.2251 -0.0055
37309W        W80247   8.137   0.937  31.570 -0.1078  0.0207 -0.1586
37310W        W80248   9.626  34.481  30.208  0.0062 -0.0130 -0.0352
37311W        W80249   8.243   0.410  29.825  0.3706 -0.1857 -0.3715
37312W        W80250  11.864   1.676  28.012 -0.1113  0.0426  0.1502
37313W        W80251   9.586   1.273  29.307  0.1314 -0.2401 -0.0356
37314W        W80252   8.413  34.295  30.701 -0.2391  0.0211 -0.1364
37315W        W80253   9.111   1.197  26.848  0.1638 -0.1406  0.1054
37316W        W80254  10.673   2.857  31.528 -0.0073  0.0243  0.0284
37317W        W80255   8.665   0.674  27.390  0.0601  0.1541 -0.0411
37318W        W80256   8.700   4.197  31.552 -0.0410 -0.4434 -0.0696
37319W        W80257   8.941   0.962  29.975 -0.1377  0.1191 -0.0101
37320W        W80258   8.950   0.774  28.662 -0.2200  0.0716 -0.2820
37321W        W80259   7.888   0.599  30.249  0.1555  0.1871 -0.0229
37322W        W80260   9.600   2.326  29.609  0.0209  0.1812 -0.0395
37323W        W80261   9.371   3.040  31.703  0.2143 -0.1225 -0.0877
37324W        W80262   8.600  34.002  28.752 -0.1433  0.4484  0.0168
37325W        W80263  10.030   3.223  27.288 -0.0341  0.2008 -0.2230
37326W        W80264  10.514   1.405  29.257  0.3480  0.3682  0.0508
37327W        W80265  10.128   4.086  27.791 -0.2662 -0.0978  0.1249
37328W        W80266   8.744   1.888  28.856  0.1960 -0.2719 -0.0811
37329W        W80267   9.712   3.142  28.085  0.0910  0.2520 -0.0686
37330W        W80268   9.122   0.024  30.358  0.0158 -0.1206  0.1374
37331W        W80269   9.357   2.837  27.832  0.1035  0.0448  0.2076
37332W        W80270  10.201   2.796  28.667  0.0377  0.2350  0.1722
37333W        W80271   8.378   0.118  27.941 -0.1223  0.0003  0.3283
37334W        W80272   8.719   0.467  29.728  0.1069  0.2881  0.0395
37335W        W80273   7.771   5.117  28.353 -0.1151 -0.1190 -0.3076
37336W        W80274  10.195   1.174  30.102 -0.1698  0.2515  0.1132
37337W        W80275   9.724   0.428  31.047 -0.1839  0.0721 -0.1426
37338W        W80276   9.504   3.137  27.438 -0.4372 -0.0095  0.1492
37339W        W80277  12.058   0.458  30.507 -0.1570 -0.0312 -0.2701
37340W        W80278   8.869   4.619  30.635  0.0006 -0.1678 -0.2952
37341W        W80279   8.512   3.371  31.564 -0.0608  0.1146  0.0200
37342W        W80280   7.290   1.009  29.158 -0.1120 -0.4805 -0.1103
37343W        W80281   8.185   2.572  30.891 -0.2728  0.2389  0.2182
37344W        W80282  10.305   3.019  29.134  0.0427 -0.0071 -0.0843
37345W        W80283   8.078   3.552  28.108  0.0097  0.2398  0.0439
37346W        W80284   8.969   1.543  27.479 -0.1423  0.0981  0.2453
37347W        W80285   8.311   1.723  29.558  0.2575  0.0461  0.2585
37348W        W80286   9.384   2.945  28.490  0.0939 -0.0038 -0.2707
37349W        W80287   8.535  34.555  30.044 -0.1149 -0.2363  0.2732
37350W        W80288  10.966   0.437  28.487 -0.1326 -0.1602 -0.0796
37351W        W80289   9.729  33.027  29.426  0.0137  0.2580 -0.0805
37352W        W80290   7.341   2.205  30.374  0.2676 -0.1814  0.0474
37353W        W80291   7.659   1.862  25.891  0.0024 -0.0476  0.0095
37354W        W80292   7.870   2.768  29.259  0.3584  0.1171  0.1611
37355W        W80293   8.024   2.597  28.430 -0.1533  0.2380  0.2262
37356W        W80294   9.991   0.026  31.227 -0.0211 -0.0292 -0.3476
37357W        W80295   7.957   0.560   0.632 -0.0438 -0.1207  0.0998
37358W        W80296   7.503   1.144  30.407  0.1879  0.1323 -0.1464
37359W        W80297   8.435  34.328  28.252  0.2763 -0.0118  0.0731
37360W        W80298  10.431   3.132  27.724  0.0087  0.1579  0.2131
37361W        W80299   9.225  33.720  30.913 -0.4288  0.1156 -0.0440
37362W        W80300   7.348  34.208  28.788 -0.2284  0.1417  0.3149
37363W        W80301   8.654   2.543  27.436  0.3215 -0.2335  0.0182
37364W        W80302   9.610   2.663  27.417  0.2054 -0.2677  0.1610
37365W        W80303   9.141   0.193  28.604  0.0298  0.0803 -0.1343
37366W        W80304  11.166   2.039  31.670  0.0153 -0.0917 -0.0148
37367W        W80305   8.403   2.319  28.021 -0.1987 -0.0350 -0.2302
37368W        W80306   8.405   0.850  31.029  0.0295  0.1006  0.0113
37369W        W80307   9.492  34.672  31.261  0.2083  0.1252 -0.1686
37370W        W80308   7.409  33.980  26.759  0.0215 -0.2129 -0.1299
37371W        W80309   9.756   1.422  29.989 -0.2585 -0.0970 -0.0271
37372W        W80310   9.111   3.486  27.131 -0.0947  0.0334  0.0714
37373W        W80311  10.966   4.031  26.955 -0.2405  0.1600 -0.0931
37374W        W80312   9.257   1.695  30.485  0.2325  0.0371  0.3235
37375W        W80313  10.407   3.983  29.994 -0.3035 -0.1418  0.1226
37376W        W80314   6.246   0.122   0.083  0.0841  0.0657  0.1494
37377W        W80315   8.531   2.092  27.581  0.0434  0.1848  0.1041
37378W        W80316   9.569   2.374  30.178 -0.0908  0.1493  0.1538
37379W        W80317   9.921   2.335  27.676  0.1084 -0.1654 -0.0517
37380W        W80318  10.474  34.478  30.369 -0.1678 -0.1875 -0.1276
37381W        W80319   8.772   1.098  27.666 -0.1314  0.0859  0.1396
37382W        W80320   8.554   1.347  31.132  0.3409 -0.2285  0.1211
37383W        W80321   7.428   3.474  31.012  0.1084 -0.1679  0.2544
37384W        W80322  10.489   2.527  29.239 -0.1001 -0.1017  0.1134
37385W        W80323   8.248  33.880  28.394  0.0947  0.2422 -0.0452
37386W        W80324   9.911   0.987  28.248  0.0159 -0.3620  0.3221
37387W        W80325   8.705   1.291  27.165 -0.1853 -0.1083  0.0197
37388W        W80326   7.880   1.591  30.896 -0.1923  0.0938  0.0550
37389W        W80327   8.454   1.608  28.507  0.1374  0.0393 -0.0407
37390W        W80328   9.144   2.137  30.201 -0.1912  0.0274  0.0264
37391W        W80329   9.184   3.252  28.073 -0.3665 -0.3427  0.2070
37392W        W80330  10.082   2.876  30.347 -0.1829 -0.2054 -0.0037
37393W        W80331   8.224   0.530  27.635 -0.1728 -0.1285 -0.3194
37394W        W80332  11.092   2.196  28.356  0.1935 -0.2083  0.0713
37395W        W80333   9.460   3.477  29.945 -0.1865 -0.1315 -0.0464
37396W        W80334  11.006   3.821  31.797  0.1122 -0.2005  0.0229
37397W        W80335   9.967   1.968  29.827  0.0728 -0.3044 -0.0966
37398W        W80336  11.234   2.829  27.981 -0.3238  0.2539  0.0735
37399W        W80337   8.346  32.913  30.264 -0.1532 -0.1914 -0.2627
37400W        W80338   9.035   0.025  29.068  0.3429 -0.0206 -0.0741
37401W        W80339   7.245   2.340  28.818  0.2469  0.1405 -0.2643
37402W        W80340   8.897   0.898  30.938 -0.0409 -0.0305  0.1029
37403W        W80341   8.215   0.206  30.377  0.6163  0.0194 -0.2970
37404W        W80342   9.487   1.626  28.883 -0.1275  0.0091  0.1626
37405W        W80343   9.376   3.076  29.123  0.0779 -0.2299  0.0869
37406W        W80344   9.267   2.661  28.824 -0.0451  0.4416  0.1981
37407W        W80345  10.743   1.846  31.582  0.2034  0.4976 -0.0097
37408W        W80346  10.745   1.781  30.614 -0.3319 -0.0796  0.0645
37409W        W80347   8.458   1.978  31.591  0.3326  0.1214 -0.3700
37410W        W80348   7.940   4.987  31.299  0.5325 -0.2072 -0.1165
37411W        W80349   9.956   2.515  30.850 -0.3621 -0.0764  0.0528
37412W        W80350   7.313   5.519  31.056 -0.0318 -0.1965 -0.1202
37413W        W80351  11.002   2.634  31.261  0.2767 -0.1359  0.7260
37414W        W80352   8.348   1.275   0.781  0.0137 -0.3876 -0.2387
37415W        W80353   9.461   2.254  31.222 -0.0837 -0.1215 -0.0645
37416W        W80354  10.153   2.742   0.443 -0.3175  0.0233  0.1978
37417W        W80355   9.669   1.843  30.252 -0.1933  0.0766  0.2597
37418W        W80356   8.778  34.482  31.102 -0.1784  0.0256  0.0785
37419W        W80357   9.629   2.848  29.586  0.1467  0.2978 -0.0127
37420W        W80358   7.639   3.171   0.247 -0.1331  0.0202  0.0223
37421W        W80359   8.713   1.496   1.024 -0.0839 -0.1746 -0.1456
37422W        W80360   8.247   3.390  30.319 -0.2035  0.1004 -0.1698
37423W        W80361   8.645   0.317   0.252  0.1024 -0.1707  0.2579
37424W        W80362   9.510   3.220  30.840  0.1236 -0.1333  0.0357
37425W        W80363   7.168   0.060   0.900 -0.1361  0.1342 -0.1831
37426W        W80364   8.098   0.739   0.042 -0.1126  0.0614 -0.0813
37427W        W80365   7.404   0.712  31.827 -0.0520 -0.0486 -0.2749
37428W        W80366   9.077   4.049   0.604  0.0319  0.3045 -0.3027
37429W        W80367  10.201   0.682  30.495  0.0688  0.0121 -0.1222
37430W        W80368   8.991   1.374  30.858 -0.1472 -0.1336 -0.0296
37431W        W80369   8.074   1.255  31.258  0.2181  0.0879  0.1662
37432W        W80370   9.940   1.002   0.275 -0.0115 -0.1380  0.0015
37433W        W80371  10.446   2.301  29.711  0.3106 -0.0004  0.1301
37434W        W80372   6.780   2.972  31.406  0.1393  0.0649  0.1468
37435W        W80373   8.341   1.757  31.049  0.4543  0.1991  0.3663
37436W        W80374   8.586   2.429  31.735 -0.1278  0.1048  0.0041
37437W        W80375   8.681   2.714  31.044  0.0808 -0.0794  0.0095
37438W        W80376   7.552   1.812  31.729 -0.3036  0.1660  0.2316
37439W        W80377  10.012   2.919  31.807 -0.0966  0.3498  0.2314
37440W        W80378  10.386   0.803  31.803 -0.1275  0.2681 -0.1111
37441W        W80379   7.352   2.133  31.314 -0.0164 -0.0479  0.0923
37442W        W80380   7.625   4.280  31.816 -0.1063 -0.1855 -0.1916
37443W        W80381   7.532   4.906  30.946 -0.1093 -0.2043  0.2156
37444W        W80382   9.683   2.943  30.061 -0.0606  0.0708  0.4538
37445W        W80383  10.888   1.313   1.309 -0.0350 -0.1480  0.1705
37446W        W80384  10.402   2.243   0.658 -0.1974  0.0156  0.0791
37447W        W80385  10.321   1.922   0.021  0.1209  0.3394  0.2185
37448W        W80386   9.185   1.756   0.085  0.1784  0.2472 -0.1411
37449W        W80387   8.973   0.582  31.627  0.0479  0.0450 -0.0651
37450W        W80388   9.227   4.071  31.457  0.1520  0.1669  0.2249
37451W        W80389   9.793   2.030  31.639 -0.1150 -0.0695  0.0394
37452W        W80390   7.774   2.492  30.604 -0.0049 -0.1803  0.1025
37453W        W80391   8.569   0.619  31.872 -0.0904 -0.0307  0.3269
37454W        W80392   8.817   4.827  31.402 -0.0533  0.3379  0.2624
37455W        W80393  10.426   2.610  30.629 -0.0946  0.1066  0.0294
37456W        W80394   7.544   1.609  31.271  0.0586  0.3814  0.2587
37457W        W80395  10.097   2.728  31.343  0.2067  0.2421  0.0784
37458W        W80396   9.478   1.107  31.970 -0.0434  0.0493 -0.2690
37459W        W80397   8.970   0.974  31.964 -0.0735 -0.4341 -0.1350
37460W        W80398   8.657   3.758  30.075  0.2172  0.3059 -0.2384
37461W        W80399   9.640   2.520  31.604 -0.0091  0.1301 -0.0875
37462W        W80400   9.099   2.618  30.357  0.0742  0.1377  0.1107
37463W        W80401   9.744   1.869   0.153  0.2676  0.0142 -0.2246
37464W        W80402  10.022   4.282  30.994 -0.0706 -0.2391  0.0142
37465W        W80403   9.899   4.981  31.419 -0.2152 -0.1461  0.1453
37466W        W80404   8.828   1.777  31.323 -0.0813 -0.2313 -0.2262
37467W        W80405   7.176   1.947   0.317 -0.0246  0.2128  0.1747
37468W        W80406   8.478   1.092  31.900  0.1024 -0.2393 -0.2657
37469W        W80407   8.487   3.170   0.050 -0.1889 -0.3856  0.1491
37470W        W80408   7.612  34.085  31.721  0.0026  0.6844 -0.1718
37471W        W80409   9.370   3.542  31.156 -0.0112  0.0385 -0.0791
37472W        W80410   9.641   2.732  31.116  0.2517 -0.1189 -0.1626
37473W        W80411  10.805   1.074  31.665 -0.2730 -0.2157  0.0621
37474W        W80412   6.617   5.941  17.500 -0.2024  0.1777  0.2439
37475W        W80413   9.440   4.986  17.896  0.0244 -0.4793  0.0350
37476W        W80414   9.353   3.415  15.861  0.0735  0.2263  0.3204
37477W        W80415  10.325   5.638  16.199  0.0551  0.3310 -0.1705
37478W        W80416   8.295   3.320  16.953 -0.1894 -0.4088  0.0386
37479W        W80417  10.222   7.901  18.588  0.0966  0.2285  0.0640
37480W        W80418   8.384   3.899  19.626 -0.1800  0.0516 -0.3047
37481W        W80419   9.824   5.735  18.909 -0.1230 -0.1345 -0.0865
37482W        W80420   9.778   7.187  19.125 -0.1169  0.1003 -0.2206
37483W        W80421   9.468   4.956  15.878 -0.0571 -0.0625  0.3180
37484W        W80422   8.642   4.661  18.068 -0.1997 -0.1057  0.1162
37485W        W80423   6.587   5.987  18.651 -0.1145 -0.1923  0.1081
37486W        W80424   9.476   3.824  17.404 -0.0680  0.0576 -0.3587
37487W        W80425   7.837   3.133  19.091  0.2089 -0.3125 -0.0159
37488W        W80426  12.363   5.934  18.571 -0.2933 -0.1476  0.3413
37489W        W80427   7.289   4.961  16.393 -0.2594 -0.1355  0.0409
37490W        W80428   7.272   4.155  17.978  0.0572 -0.2013 -0.0963
37491W        W80429   8.265   5.171  16.995  0.1770  0.1244 -0.3666
37492W        W80430   9.557   7.274  16.894 -0.1478 -0.1616  0.2122
37493W        W80431   9.809   4.248  20.332  0.0411  0.0226 -0.1480
37494W        W80432   7.691   4.479  19.396 -0.1406  0.0687  0.0679
37495W        W80433   9.791   6.782  17.248 -0.0426 -0.1705 -0.1082
37496W        W80434   6.882   5.356  16.314  0.2212 -0.3488 -0.0934
37497W        W80435   6.989   5.735  18.414 -0.0040 -0.1894 -0.1657
37498W        W80436   9.494   5.362  19.736  0.1888 -0.4687  0.0224
37499W        W80437  10.438   4.051  18.858 -0.1677  0.0374 -0.1332
37500W        W80438   9.083   4.760  18.403 -0.0925 -0.1698 -0.0434
37501W        W80439   8.517   8.597  18.755 -0.3088  0.2828 -0.0382
37502W        W80440   9.568   6.807  17.804  0.1742 -0.2828 -0.3441
37503W        W80441   9.543   5.666  19.318  0.1309  0.4937  0.1597
37504W        W80442   7.004   5.541  17.549 -0.2134  0.1033 -0.0475
37505W        W80443   7.719   6.857  18.271 -0.1368 -0.1063 -0.1459
37506W        W80444   9.718   7.836  16.856 -0.0955 -0.1614  0.2668
37507W        W80445  10.304   5.995  16.583 -0.0975 -0.2058 -0.0289
37508W        W80446   9.929   6.436  17.647  0.1841 -0.1427  0.2112
37509W        W80447   8.723   8.103  18.724 -0.2011  0.2890 -0.0204
37510W        W80448   7.457   7.090  15.867 -0.0748 -0.0334  0.1541
37511W        W80449   9.944   7.728  19.035 -0.0098 -0.1787  0.0064
37512W        W80450   7.756   6.189  19.918  0.2321 -0.0452 -0.1055
37513W        W80451   8.579   5.982  20.161 -0.1072 -0.0667 -0.2646
37514W        W80452   7.424   5.547  17.181 -0.0911 -0.1369  0.0374
37515W        W80453   8.109   7.930  16.765  0.2248 -0.2063 -0.3204
37516W        W80454  10.385   6.527  16.897 -0.0693  0.0732 -0.0876
37517W        W80455   8.237   5.384  19.362 -0.0470  0.2932  0.1847
37518W        W80456   5.937   5.117  19.267 -0.2141  0.0072 -0.0661
37519W        W80457   9.922   3.052  18.992 -0.0333 -0.0292 -0.3639
37520W        W80458   6.978   6.869  16.751  0.1139 -0.0386 -0.1713
37521W        W80459  10.272   3.448  16.122 -0.0714 -0.0917 -0.0088
37522W        W80460   8.876   4.638  16.736  0.2624  0.1685 -0.0039
37523W        W80461   9.955   4.050  16.692 -0.1153 -0.0011  0.2215
37524W        W80462  11.198   4.080  17.788  0.5516  0.0297  0.2705
37525W        W80463   7.668   5.687  18.265  0.0018  0.0732 -0.4476
37526W        W80464   8.067   4.484  18.305 -0.0782 -0.0639  0.0353
37527W        W80465  10.845   5.581  19.842  0.2868 -0.0847  0.0322
37528W        W80466   8.585   5.036  16.646 -0.1155  0.0286  0.0445
37529W        W80467   9.924   4.877  17.990  0.1971  0.3718 -0.2980
37530W        W80468   8.892   6.397  19.437  0.0943 -0.1195 -0.1938
37531W        W80469   7.014   4.475  18.341 -0.3946  0.2997  0.3009
37532W        W80470  10.158   6.590  15.849  0.1019 -0.3263 -0.0943
37533W        W80471  11.964   5.814  18.273 -0.0802 -0.2699  0.0641
37534W        W80472   9.724   7.035  16.528 -0.2527 -0.1234 -0.0373
37535W        W80473   6.683   4.928  17.090 -0.0314  0.2091  0.2689
37536W        W80474   6.099   5.272  18.340 -0.1955  0.3675 -0.1572
37537W        W80475   8.437   5.588  19.918  0.0801 -0.1627  0.1671
37538W        W80476   8.619   4.195  16.533 -0.0195 -0.3688  0.0239
37539W        W80477  11.081   6.807  18.020 -0.1996 -0.2843  0.1023
37540W        W80478   7.553   5.387  19.815  0.1201 -0.2452 -0.0767
37541W        W80479   9.620   5.181  18.364 -0.2917 -0.0285 -0.0573
37542W        W80480   7.482   5.297  17.595 -0.0924  0.0113  0.1083
37543W        W80481   8.414   6.573  19.397 -0.0307 -0.0507  0.1792
37544W        W80482  10.591   5.589  16.979 -0.0421 -0.1910  0.4085
37545W        W80483   9.485   4.497  19.120 -0.0778  0.0327  0.0162
37546W        W80484   9.380   3.025  18.807  0.0980 -0.1015  0.1263
37547W        W80485   8.580   6.429  16.289  0.0495 -0.0116  0.0026
37548W        W80486   7.929   6.054  17.562 -0.0145  0.0199  0.0292
37549W        W80487  10.616   6.187  18.922  0.0672  0.2229 -0.0093
37550W        W80488  10.123   5.339  17.248 -0.0049 -0.2166 -0.0598
37551W        W80489   7.969   6.724  18.700 -0.1669 -0.0773  0.2638
37552W        W80490   9.848   3.813  19.513  0.3075 -0.3427 -0.0710
37553W        W80491   8.164   5.981  20.515 -0.1693  0.1812 -0.1092
37554W        W80492   7.825   7.385  16.146  0.0602  0.1374  0.2035
37555W        W80493   6.862   4.930  17.609 -0.0346  0.2473 -0.5348
37556W        W80494   8.682   6.020  16.637 -0.2623  0.1756 -0.0042
37557W        W80495   7.681   4.098  18.867 -0.1464 -0.2081  0.0609
37558W        W80496   7.347   5.199  18.942  0.2420 -0.1464 -0.2034
37559W        W80497   9.426   3.879  16.389 -0.1027  0.0647 -0.1094
37560W        W80498   7.363   4.957  19.995 -0.0182 -0.1131 -0.1544
37561W        W80499  10.305   3.759  17.546 -0.1935  0.0247  0.1410
37562W        W80500   8.223   4.838  18.611 -0.0788 -0.0183  0.0192
37563W        W80501  11.050   5.423  17.085 -0.1283 -0.1074 -0.1770
37564W        W80502   9.742   4.765  17.056  0.0286 -0.1680 -0.2064
37565W        W80503   9.543   6.557  16.856 -0.1250 -0.0451 -0.2863
37566W        W80504   7.454   3.742  18.096 -0.1151 -0.2157  0.3958
37567W        W80505   8.183   3.841  18.144 -0.0748 -0.1714  0.1337
37568W        W80506   7.955   4.288  20.946  0.0651 -0.0095 -0.1686
37569W        W80507  10.722   3.833  18.242  0.5758 -0.0709  0.0080
37570W        W80508  10.706   6.279  18.389 -0.0617 -0.1356 -0.0764
37571W        W80509   8.445   3.766  16.719  0.1878 -0.1401  0.1601
37572W        W80510   9.955   4.667  17.531  0.0362 -0.0377  0.0029
37573W        W80511   9.190   5.622  16.343 -0.1613 -0.3023  0.2507
37574W        W80512   5.804   5.770  17.090 -0.1415  0.0658  0.1218
37575W        W80513   9.557   3.997  19.090 -0.1744 -0.0069  0.0860
37576W        W80514  10.291   5.869  17.649 -0.0227 -0.1807  0.0657
37577W        W80515  11.286   5.341  18.763 -0.2622  0.0053  0.1116
37578W        W80516  10.748   6.488  17.789 -0.0546 -0.1899  0.3163
37579W        W80517   8.407   4.413  19.790 -0.2746 -0.0975 -0.4247
37580W        W80518   7.694   5.165  16.540 -0.0762  0.3331  0.1029
37581W        W80519   7.475   7.493  18.683  0.0981  0.0227 -0.0920
37582W        W80520   8.481   5.818  17.556 -0.1654 -0.2437  0.1998
37583W        W80521  10.402   5.778  18.186 -0.0139  0.1784 -0.2839
37584W        W80522  10.395   6.775  17.941  0.0817  0.2188  0.1608
37585W        W80523   8.715   5.514  16.906 -0.0557  0.0802 -0.1050
37586W        W80524   6.724   6.269  19.068  0.1338  0.1387  0.0246
37587W        W80525  11.045   4.538  19.962  0.3823  0.3122 -0.1339
37588W        W80526  11.370   5.796  18.721 -0.0686  0.1785  0.2486
37589W        W80527   9.728   5.691  18.430 -0.3489 -0.0528 -0.0428
37590W        W80528   7.467   4.575  16.642  0.0208 -0.1505 -0.0163
37591W        W80529  11.055   6.298  18.722  0.2639 -0.0609  0.0682
37592W        W80530   7.665   6.988  16.522  0.4533  0.3194  0.1330
37593W        W80531   6.865   4.473  17.124  0.0018 -0.2467  0.0317
37594W        W80532   8.308   5.301  18.843 -0.1699  0.3029  0.2006
37595W        W80533   9.918   5.438  18.021 -0.2739  0.1230 -0.0340
37596W        W80534   8.633   5.063  18.452 -0.4535  0.0209 -0.0073
37597W        W80535   9.087   4.033  19.126  0.0221 -0.0618 -0.1611
37598W        W80536   6.685   5.024  16.587  0.0905  0.0595  0.0348
37599W        W80537   7.540   7.957  18.571  0.2133  0.1276 -0.4395
37600W        W80538   9.156   4.595  17.894 -0.0124 -0.0568 -0.3610
37601W        W80539  10.258   3.925  16.299 -0.0996  0.0373  0.2289
37602W        W80540   9.929   5.371  19.439 -0.0702 -0.0563  0.0020
37603W        W80541   9.481   6.313  17.682 -0.0511  0.0065 -0.2525
37604W        W80542   9.184   4.258  16.605  0.2714 -0.1159 -0.1847
37605W        W80543   9.000   3.782  16.640  0.0008 -0.0244  0.4279
37606W        W80544   8.214   4.862  20.581  0.2407 -0.1177  0.0947
37607W        W80545   9.112   6.257  16.329  0.0196  0.0817  0.2474
37608W        W80546   8.749   6.752  17.056 -0.2703 -0.2322 -0.2745
37609W        W80547   8.188   4.894  16.406  0.4199 -0.0284 -0.4530
37610W        W80548  11.030   7.550  16.670  0.1575  0.2946  0.1721
37611W        W80549   6.754   5.506  19.444  0.0392 -0.3504 -0.1597
37612W        W80550   9.150   5.822  19.676 -0.0878  0.0505 -0.3378
37613W        W80551   8.243   5.409  18.312 -0.0905  0.0654 -0.0719
37614W        W80552   8.661   5.122  19.212  0.0278 -0.0850  0.2003
37615W        W80553   8.133   5.378  16.568  0.0094 -0.2544  0.2911
37616W        W80554   8.972   5.014  17.652 -0.0243  0.1715 -0.1521
37617W        W80555   6.509   5.555  16.580  0.0769  0.1680 -0.0067
37618W        W80556   8.678   4.026  17.906  0.0404  0.0233 -0.2179
37619W        W80557   8.675   4.611  18.648  0.0749  0.0519 -0.0966
37620W        W80558   8.831   3.716  19.935  0.0340  0.1093 -0.1005
37621W        W80559  10.475   4.892  19.117  0.0818  0.1297 -0.1125
37622W        W80560   9.370   4.495  16.159  0.3237 -0.1138 -0.1489
37623W        W80561   9.425   5.481  18.797  0.2350  0.0540  0.2184
37624W        W80562   9.404   4.867  16.564 -0.1814 -0.0073  0.0787
37625W        W80563   8.119   4.836  19.594  0.0893 -0.0873  0.2237
37626W        W80564   7.256   4.597  19.620 -0.0190  0.2128 -0.3336
37627W        W80565   7.342   8.269  18.922 -0.4376 -0.2215  0.0273
37628W        W80566   9.513   6.155  19.431  0.0851 -0.0213  0.0237
37629W        W80567  10.274   5.140  17.712  0.1587  0.1741  0.1460
37630W        W80568   8.628   4.569  20.459  0.3558  0.0132 -0.1362
37631W        W80569   8.833   5.495  17.396  0.1300  0.0553  0.0349
37632W        W80570   8.756   7.209  17.208  0.1173 -0.0510 -0.1230
37633W        W80571   8.293   6.996  16.848 -0.1570  0.0791  0.4004
37634W        W80572   7.523   4.841  18.583  0.0601  0.0349  0.1414
37635W        W80573   7.867   5.749  19.572 -0.1809 -0.0248 -0.0366
37636W        W80574   7.909   5.504  17.291 -0.2053  0.1045 -0.0332
37637W        W80575   9.417   7.057  18.398  0.2306 -0.0675 -0.2488
37638W        W80576   8.126   5.888  18.005 -0.0629  0.0074 -0.0352
37639W        W80577  10.346   3.547  18.010 -0.2572  0.1057 -0.0748
37640W        W80578   7.513   6.091  17.101 -0.3275  0.0108 -0.3350
37641W        W80579   8.395   4.602  16.954 -0.4520  0.2607  0.1921
37642W        W80580   7.030   4.500  16.456 -0.2089 -0.0387 -0.0286
37643W        W80581   9.841   3.825  18.739  0.1666 -0.0801  0.0777
37644W        W80582   9.936   5.309  16.099  0.0782 -0.4296 -0.0932
37645W        W80583   7.455   4.756  19.112 -0.0933  0.0656  0.1914
37646W        W80584   8.612   4.190  18.930  0.0484 -0.0615 -0.0029
37647W        W80585   6.769   7.169  18.436 -0.0693  0.2086 -0.1813
37648W        W80586   9.402   5.979  18.733 -0.3346 -0.0367  0.0621
37649W        W80587   8.909   3.075  15.993  0.0093 -0.2337  0.2546
37650W        W80588  10.005   5.850  19.509 -0.1335  0.0540  0.0874
37651W        W80589   8.231   4.781  20.072  0.0088  0.1748  0.0442
37652W        W80590   6.565   3.607  17.131 -0.3487 -0.0499  0.1658
37653W        W80591  10.311   4.053  17.959 -0.1269 -0.2955 -0.1250
37654W        W80592   8.083   5.020  18.059  0.0156 -0.1584  0.2356
37655W        W80593   8.352   6.491  16.776  0.1689  0.0723 -0.2715
37656W        W80594  10.158   5.378  18.547  0.1391  0.1707  0.1191
37657W        W80595   8.679   5.491  16.397 -0.1956 -0.3470  0.0573
37658W        W80596   8.384   6.031  18.600  0.1231 -0.3396 -0.1300
37659W        W80597   8.930   5.460  19.991 -0.1687 -0.2481 -0.0570
37660W        W80598  10.651   5.297  18.371 -0.1888 -0.0616 -0.3587
37661W        W80599   9.356   3.747  18.692  0.0006 -0.0292 -0.1447
37662W        W80600   8.441   4.876  17.441  0.2305  0.2068  0.1373
37663W        W80601   9.012   4.263  18.230 -0.2944 -0.0135 -0.1267
37664W        W80602   9.186   6.408  19.066 -0.0440  0.0488 -0.4121
37665W        W80603  10.004   4.144  19.083 -0.1637  0.0510 -0.2778
37666W        W80604   9.128   6.827  20.250  0.1531 -0.0290 -0.0852
37667W        W80605  10.875   2.910  19.430  0.4446  0.2882  0.2636
37668W        W80606  10.625   7.257  16.153 -0.0515  0.0782 -0.3332
37669W        W80607   9.000   4.728  19.132  0.6066  0.2675 -0.1242
37670W        W80608   7.685   6.101  16.523 -0.1243  0.1045 -0.2467
37671W        W80609   6.984   6.416  16.977 -0.2201  0.0068 -0.2084
37672W        W80610   9.518   6.121  18.150 -0.0177 -0.0426  0.3492
37673W        W80611   9.529   4.616  18.321 -0.1630  0.2125 -0.0472
37674W        W80612   7.240   5.499  17.982 -0.1809  0.1842 -0.1002
37675W        W80613   7.179   5.885  16.643  0.0914 -0.3083  0.2211
37676W        W80614   7.420   6.564  18.779 -0.1514 -0.3784 -0.1924
37677W        W80615  10.488   4.098  16.702  0.0462  0.2497  0.0097
37678W        W80616  10.258   7.091  15.732  0.0190 -0.0845  0.1335
37679W        W80617   8.589   5.189  17.979 -0.0538 -0.3021 -0.1770
37680W        W80618  10.973   2.250  19.425  0.0899 -0.0267 -0.3130
37681W        W80619   7.790   5.691  16.247 -0.1963 -0.4192 -0.1864
37682W        W80620   9.227   4.367  19.536 -0.0027 -0.0330  0.1700
37683W        W80621   9.787   3.405  17.402  0.0137  0.0519 -0.2953
37684W        W80622   9.704   5.163  17.503 -0.0868 -0.0009 -0.1094
37685W        W80623   8.196   4.350  19.287 -0.1208 -0.0375  0.1348
37686W        W80624   9.626   8.009  21.744  0.1902 -0.2857 -0.1695
37687W        W80625   7.941   4.985  19.134  0.0018  0.0560  0.4523
37688W        W80626  11.025   2.912  18.343 -0.1543  0.1097 -0.0968
37689W        W80627   8.541   3.693  15.611 -0.0439 -0.0303 -0.0949
37690W        W80628   9.023   5.180  18.854 -0.5174  0.0844 -0.2285
37691W        W80629   8.731   6.610  18.972  0.0129 -0.1625 -0.0314
37692W        W80630   9.590   5.265  16.390  0.1237  0.1985  0.4029
37693W        W80631   9.725   3.368  18.631  0.0245  0.2585  0.0830
37694W        W80632   7.733   5.156  17.024  0.1103 -0.0509  0.1934
37695W        W80633  11.100   4.407  16.040  0.2004  0.0939 -0.1661
37696W        W80634   9.914   5.079  15.662  0.1966  0.1400 -0.0965
37697W        W80635   7.468   5.792  17.629  0.3261  0.0522 -0.0660
37698W        W80636   8.024   3.840  20.801  0.1503 -0.0171 -0.1295
37699W        W80637  11.689   5.406  17.303  0.0616 -0.2400  0.0039
37700W        W80638   9.932   3.551  19.980  0.2389  0.0057  0.1803
37701W        W80639   9.961   4.919  18.614  0.2401 -0.2415  0.1264
37702W        W80640   9.986   5.229  18.977  0.2391  0.0577 -0.1691
37703W        W80641   8.658   5.960  19.572  0.4516  0.0899  0.0012
37704W        W80642   7.140   4.448  18.888 -0.1767 -0.3625 -0.0177
37705W        W80643  10.990   5.834  19.068 -0.1064 -0.0208  0.2929
37706W        W80644  11.447   5.012  17.201  0.0706 -0.0742 -0.1322
37707W        W80645  10.167   4.262  17.507 -0.0346  0.2482  0.1313
37708W        W80646  10.328   4.917  15.930 -0.0422  0.3609  0.0307
37709W        W80647  10.248   5.367  16.644 -0.0313 -0.1302 -0.2739
37710W        W80648   9.428   4.689  17.455  0.0582  0.0716  0.0595
37711W        W80649  10.581   5.814  20.299  0.0053  0.0774  0.1462
37712W        W80650   8.131   3.659  15.821 -0.2108  0.0475  0.2732
37713W        W80651   9.753   4.425  18.754 -0.2686 -0.1646  0.0751
37714W        W80652   9.072   7.011  16.711  0.2397 -0.1835  0.1021
37715W        W80653  10.415   6.658  18.425 -0.0542 -0.4110  0.0538
37716W        W80654   9.693   4.272  17.333 -0.0338 -0.0045  0.2265
37717W        W80655   6.433   3.740  17.896 -0.0386 -0.1733  0.1352
37718W        W80656   7.292   6.290  20.151 -0.2857  0.1037 -0.2340
37719W        W80657   7.030   3.961  17.189 -0.1556  0.1899 -0.0223
37720W        W80658   9.132   5.269  16.725 -0.3655  0.2317 -0.0396
37721W        W80659   9.036   7.356  18.457  0.1206  0.3305 -0.0920
37722W        W80660  10.639   6.430  19.888 -0.1299  0.0647 -0.1890
37723W        W80661   9.273   5.487  17.157 -0.0067  0.1421  0.1615
37724W        W80662  11.610   5.621  19.139 -0.0754 -0.0625 -0.1502
37725W        W80663   7.485   6.301  17.540  0.0359 -0.0364 -0.3979
37726W        W80664   9.477   4.119  18.339 -0.0946  0.1014  0.0736
37727W        W80665   9.560   7.222  17.450  0.1887  0.2377 -0.3280
37728W        W80666   5.750   6.125  18.483  0.1248  0.0072  0.2674
37729W        W80667   7.771   5.268  18.592  0.0006  0.1506 -0.3343
37730W        W80668  10.049   3.148  18.336 -0.2382 -0.0016 -0.0407
37731W        W80669  11.751   6.213  17.247  0.0679 -0.1238 -0.0834
37732W        W80670   9.074   6.415  18.102 -0.0853 -0.2246  0.0651
37733W        W80671  11.565   4.354  18.708  0.3101 -0.0546  0.0333
37734W        W80672   8.607   5.485  20.542 -0.0111  0.3874 -0.0570
37735W        W80673   8.771   5.644  17.989  0.0810 -0.2065 -0.2510
37736W        W80674   8.909   6.240  18.585  0.1107 -0.1094  0.1740
37737W        W80675   9.715   5.664  17.056 -0.4450  0.3341  0.1614
37738W        W80676   7.337   6.573  18.050 -0.1226  0.4296 -0.0228
37739W        W80677   8.596   5.136  19.724 -0.0240  0.2174 -0.1674
37740W        W80678   9.968   4.502  19.950  0.0509  0.1317  0.3338
37741W        W80679   7.907   5.457  17.820 -0.0221 -0.0719 -0.0369
37742W        W80680   7.840   3.401  18.198  0.0187  0.0547 -0.1196
37743W        W80681   8.705   5.960  16.162 -0.0237  0.2744 -0.5174
37744W        W80682   7.221   5.372  19.404  0.3378 -0.2568 -0.0119
37745W        W80683   7.205   4.877  18.016  0.0080 -0.2431 -0.0192
37746W        W80684   8.352   7.412  16.370 -0.1301  0.0219  0.0014
37747W        W80685   9.922   6.253  17.054 -0.3635  0.1578  0.0164
37748W        W80686   9.711   6.138  16.550  0.0272  0.0563 -0.1462
37749W        W80687   8.482   6.297  17.236  0.1561  0.4177  0.3513
37750W        W80688   9.666   5.231  16.863  0.1573 -0.0097 -0.1431
37751W        W80689   7.054   6.047  17.353 -0.3696  0.0228  0.1917
37752W        W80690   6.608   6.801  17.053 -0.0460 -0.3241  0.0095
37753W        W80691  10.047   6.091  16.136  0.1466  0.3000  0.1085
37754W        W80692   6.589   7.655  17.644 -0.0945 -0.2377 -0.1983
37755W        W80693  10.613   5.516  18.914  0.0583 -0.0370  0.1630
37756W        W80694  10.650   2.993  16.279 -0.0493  0.3608 -0.0154
37757W        W80695  12.095   5.515  17.795  0.0175  0.1119  0.3967
37758W        W80696  10.452   4.735  17.372  0.0993  0.3521  0.1876
37759W        W80697  10.922   6.792  18.569 -0.0829  0.1668 -0.0319
37760W        W80698   8.867   4.619  17.309 -0.0872  0.0157 -0.2628
37761W        W80699  10.454   3.580  16.643  0.4599  0.0421  0.0950
37762W        W80700   6.962   4.956  19.442 -0.2398 -0.2495  0.3389
37763W        W80701  11.567   2.993  20.657 -0.2107 -0.1392  0.1483
37764W        W80702   8.323   7.005  20.802 -0.2043  0.0259 -0.0389
37765W        W80703  10.640   6.788  16.047  0.2398 -0.0171  0.1544
37766W        W80704   7.909   4.704  17.257 -0.1131 -0.4881  0.0527
37767W        W80705   6.749   5.297  17.972 -0.2880 -0.0099 -0.0912
37768W        W80706  11.088   4.818  18.408  0.1421 -0.2537 -0.1201
37769W        W80707   9.298   5.895  16.801  0.0154  0.2242 -0.2278
37770W        W80708   9.352   5.440  17.702  0.0809 -0.0318  0.1404
37771W        W80709   8.786   7.702  17.501  0.1007  0.3309 -0.0641
37772W        W80710   7.694   5.588  19.132 -0.2959  0.0428  0.1245
37773W        W80711   7.098   6.716  18.467  0.1609 -0.1798  0.1698
37774W        W80712   7.970   4.788  16.804 -0.0110 -0.0529  0.3164
37775W        W80713  10.815   5.599  15.997 -0.0243 -0.2167  0.3369
37776W        W80714   9.082   5.837  19.083  0.0553  0.0295  0.0123
37777W        W80715  10.680   4.379  19.207 -0.2295  0.3716  0.0135
37778W        W80716   7.120   4.799  16.859 -0.0610  0.2647 -0.1037
37779W        W80717   9.782   4.241  16.220 -0.2476  0.0223 -0.3221
37780W        W80718   8.220   6.055  19.790  0.1514 -0.0950  0.1093
37781W        W80719   7.191   4.317  20.037 -0.2243 -0.2736  0.2519
37782W        W80720   8.174   5.439  16.046 -0.0040 -0.1501  0.0393
37783W        W80721  10.382   3.899  19.340 -0.0371  0.0339  0.1515
37784W        W80722  10.982   5.555  16.630  0.1508 -0.1484 -0.0991
37785W        W80723  11.248   6.671  19.082  0.0378 -0.3135 -0.1019
37786W        W80724   7.108   4.401  17.578  0.0430  0.0652  0.0264
37787W        W80725  10.242   4.957  16.967 -0.1042 -0.4174  0.2213
37788W        W80726   8.314   5.691  16.986  0.1075 -0.0380 -0.0207
37789W        W80727   9.531   3.415  19.097 -0.0122  0.0680 -0.2278
37790W        W80728   9.733   6.774  18.649 -0.2705  0.2278  0.0999
37791W        W80729   8.178   3.988  17.657  0.2199 -0.0851 -0.0077
37792W        W80730  10.624   5.306  16.322  0.4603 -0.2086 -0.3719
37793W        W80731  10.473   4.899  18.611 -0.0462 -0.2165 -0.3600
37794W        W80732   8.103   6.346  16.291 -0.0991  0.0117  0.1337
37795W        W80733   9.905   6.209  18.472  0.5028 -0.4225 -0.1673
37796W        W80734  11.286   7.623  17.585  0.0327  0.0599 -0.1965
37797W        W80735   7.643   4.640  18.044 -0.0715  0.0153 -0.0650
37798W        W80736  10.712   8.053  18.724 -0.4767  0.1187  0.0557
37799W        W80737  10.912   5.821  18.408  0.1824  0.0259  0.3388
37800W        W80738   8.593   3.870  17.294  0.2083  0.1830 -0.0262
37801W        W80739   9.051   5.394  19.367 -0.0095  0.3352  0.1682
37802W        W80740   7.817   6.942  17.098 -0.1348 -0.0431 -0.0578
37803W        W80741   9.973   4.263  18.328 -0.4447  0.0177  0.4072
37804W        W80742   9.579   4.799  19.659 -0.2981  0.1389  0.1582
37805W        W80743   7.375   6.517  15.891  0.0478 -0.2233  0.0578
37806W        W80744  10.169   3.890  20.333 -0.0109 -0.1093 -0.2563
37807W        W80745   8.628   6.092  19.053 -0.3387  0.2114  0.4208
37808W        W80746   6.919   6.260  18.311  0.2138 -0.0896  0.1523
37809W        W80747   8.909   5.962  17.149 -0.1884 -0.2207  0.1216
37810W        W80748   7.391   5.699  18.715  0.0056 -0.0227  0.3215
37811W        W80749   7.607   5.191  18.089 -0.0118 -0.2767  0.2015
37812W        W80750   9.276   7.822  16.498 -0.1920  0.0904 -0.0950
37813W        W80751  10.812   7.677  18.176  0.0382  0.2181  0.1976
37814W        W80752   9.445   4.865  18.781  0.3688  0.0485 -0.1196
37815W        W80753   9.403   7.419  18.854 -0.1755 -0.0608  0.0177
37816W        W80754   9.206   5.713  18.304 -0.2216  0.1054 -0.2144
37817W        W80755  11.296   4.013  17.266  0.1239  0.0040 -0.0588
37818W        W80756  11.015   3.442  18.038 -0.2742 -0.4120 -0.1951
37819W        W80757   7.374   4.408  17.148  0.0190 -0.1426 -0.1141
37820W        W80758   8.057   3.920  16.368  0.3658 -0.1792  0.3169
37821W        W80759   6.859   5.876  16.236  0.0507 -0.3772  0.0382
37822W        W80760   6.883   5.561  17.057  0.1753 -0.0915 -0.0150
37823W        W80761   9.740   4.293  19.562  0.0997  0.1599 -0.0893
37824W        W80762   7.401   4.817  17.464  0.1107  0.0069 -0.3961
37825W        W80763   7.384   6.051  18.319 -0.2016 -0.3028 -0.0452
37826W        W80764   8.536   4.395  17.600  0.0518  0.0141 -0.1491
37827W        W80765   9.689   6.452  16.028  0.1949 -0.3328  0.0091
37828W        W80766   8.415   4.722  19.081 -0.3123  0.0907  0.4130
37829W        W80767   6.413   2.998  17.127 -0.0272 -0.0468 -0.0492
37830W        W80768   9.949   6.654  18.188  0.0402 -0.0580 -0.1540
37831W        W80769   9.103   7.133  17.593  0.1624 -0.0061  0.1470
37832W        W80770   8.791   4.208  17.010 -0.0375 -0.1130  0.0938
37833W        W80771  10.751   7.158  18.996 -0.0044  0.3316  0.1377
37834W        W80772   8.259   6.640  15.834 -0.0001 -0.0029  0.3889
37835W        W80773   9.268   3.714  19.515 -0.3592  0.1231  0.2489
37836W        W80774   8.976   4.324  20.967 -0.0285 -0.2809  0.0656
37837W        W80775   8.509   3.656  16.177  0.1699  0.2837 -0.1388
37838W        W80776   9.021   5.230  18.146  0.1488  0.0409 -0.5083
37839W        W80777   8.678   6.893  16.479  0.0463  0.1803 -0.2462
37840W        W80778   8.297   6.758  17.285 -0.2421  0.0743 -0.1575
37841W        W80779   8.200   5.896  19.262 -0.0409 -0.0928  0.1038
37842W        W80780   7.676   6.665  20.137 -0.0676  0.1653 -0.1335
37843W        W80781   6.180   3.317  17.666  0.2261  0.1549 -0.1697
37844W        W80782   9.135   5.922  17.738  0.1572  0.2748  0.2264
37845W        W80783   8.794   5.662  18.569  0.3050 -0.0908  0.1219
37846W        W80784   9.081   6.443  17.379 -0.3333 -0.2168  0.0444
37847W        W80785  10.271   4.504  18.858 -0.2065  0.2620 -0.0912
37848W        W80786   9.805   4.325  17.884  0.0719 -0.1039 -0.0789
37849W        W80787   8.283   3.872  19.153 -0.0692  0.0099  0.0500
37850W        W80788   7.209   5.311  18.406  0.0601  0.0003  0.0668
37851W        W80789   9.792   5.731  17.568 -0.1609 -0.1681  0.1540
37852W        W80790   9.136   3.778  18.193  0.0781 -0.1101  0.0773
37853W        W80791   9.625   3.493  16.940  0.0331 -0.0933 -0.2591
37854W        W80792  10.349   6.468  16.322  0.1736  0.2362  0.0524
37855W        W80793   8.683   4.698  19.513 -0.0242 -0.0534 -0.1617
37856W        W80794  10.418   4.819  16.376  0.0373 -0.0291 -0.1038
37857W        W80795   9.508   5.130  19.163  0.0810  0.0112 -0.1079
37858W        W80796   8.491   6.844  18.589  0.2474  0.1715  0.0970
37859W        W80797  11.393   4.372  18.218 -0.0777 -0.0667  0.1534
37860W        W80798   7.765   5.687  16.839 -0.1141  0.2278  0.3607
37861W        W80799  10.785   5.984  16.379  0.0459 -0.1640 -0.0896
37862W        W80800  11.662   6.705  17.434  0.0811 -0.2953 -0.3171
37863W        W80801  10.580   7.057  19.691 -0.1313  0.1017  0.3348
37864W        W80802   9.131   8.394  18.086  0.1510  0.0596  0.0907
37865W        W80803  11.177   6.715  17.452  0.2519 -0.2033 -0.0469
37866W        W80804   8.578   4.200  18.385 -0.0590 -0.0363 -0.3952
37867W        W80805   7.352   5.505  16.240 -0.0593  0.3711  0.0909
37868W        W80806   8.307   5.380  17.573 -0.1349  0.2122  0.3228
37869W        W80807  12.011   5.335  18.246 -0.0062 -0.5642 -0.0034
37870W        W80808   8.083   4.600  17.798  0.3303  0.2897  0.1273
37871W        W80809   9.381   2.984  16.828 -0.1150 -0.0280 -0.2596
37872W        W80810   8.605   7.714  17.041 -0.0573 -0.2522 -0.2759
37873W        W80811   8.630   5.592  19.102  0.1218  0.1565 -0.0726
37874W        W80812   8.192   5.929  22.354  0.2188  0.4091  0.2890
37875W        W80813   7.660   4.567  21.336  0.3451  0.2132  0.0338
37876W        W80814   9.233   4.364  18.699 -0.0339  0.0550  0.0384
37877W        W80815  11.556   6.136  20.010 -0.2358 -0.2464 -0.1457
37878W        W80816   5.779   4.509  21.608 -0.0034  0.0808  0.0372
37879W        W80817   9.988   7.083  20.100 -0.0972 -0.0771 -0.0775
37880W        W80818   8.045   4.016  21.368  0.2807  0.1556 -0.3897
37881W        W80819   9.681   7.710  20.695 -0.1425  0.1235 -0.2101
37882W        W80820  11.626   6.523  23.127  0.0004 -0.1716 -0.3240
37883W        W80821  10.112   6.339  19.413  0.0335 -0.1172  0.0896
37884W        W80822  10.142   4.076  22.694 -0.1230  0.1054 -0.4345
37885W        W80823   8.296   5.475  22.990 -0.0773 -0.2599 -0.0928
37886W        W80824  10.862   4.033  21.088 -0.0692 -0.1220  0.0989
37887W        W80825   8.576   3.387  21.084 -0.0519 -0.0290 -0.0165
37888W        W80826   9.459   6.567  22.523  0.4103 -0.4000  0.1430
37889W        W80827   7.789   4.942  20.226  0.0013 -0.0263 -0.0819
37890W        W80828   8.952   3.210  22.608 -0.1773  0.1837  0.0222
37891W        W80829   8.374   5.235  20.896  0.0520 -0.0631 -0.0797
37892W        W80830   9.085   6.359  21.814 -0.0489  0.1920  0.0311
37893W        W80831  10.047   4.767  24.022 -0.3227  0.1018  0.0457
37894W        W80832   9.589   2.850  23.152  0.2823  0.2613 -0.1511
37895W        W80833  10.194   5.631  21.733  0.1126 -0.1828  0.2017
37896W        W80834   6.843   4.295  19.291 -0.0598 -0.1513 -0.0056
37897W        W80835   5.808   5.030  23.313  0.1350  0.0807 -0.2355
37898W        W80836   7.643   4.669  22.075  0.0273  0.1283  0.0099
37899W        W80837   9.674   4.826  23.059 -0.1254 -0.1302  0.0012
37900W        W80838  10.098   6.375  20.898  0.0348  0.2401  0.2577
37901W        W80839   9.636   6.038  21.068 -0.0352 -0.0293  0.2075
37902W        W80840   9.721   6.959  22.482 -0.0177 -0.2944 -0.1959
37903W        W80841   9.449   6.941  24.022 -0.0631 -0.2582 -0.0003
37904W        W80842   7.684   6.648  20.759  0.2173  0.2654 -0.1381
37905W        W80843   8.187   7.646  21.507  0.2196  0.2499 -0.0875
37906W        W80844   9.286   6.748  22.079 -0.1099  0.3205  0.2284
37907W        W80845  11.251   6.565  20.062  0.2144  0.2387  0.0296
37908W        W80846  11.621   7.372  20.705 -0.2459  0.2836  0.3404
37909W        W80847   9.280   8.412  24.529  0.1035  0.1804 -0.0171
37910W        W80848   7.458   7.088  20.307 -0.0040  0.2570 -0.3474
37911W        W80849   8.994   7.578  22.667 -0.0454 -0.1797  0.0096
37912W        W80850   8.356   6.724  22.294  0.0241  0.1659 -0.1721
37913W        W80851   9.820   5.713  22.031  0.1700 -0.1934  0.0340
37914W        W80852   9.407   4.856  22.054 -0.2090 -0.1617  0.3482
37915W        W80853   8.727   7.160  18.942  0.1751 -0.1052  0.1986
37916W        W80854  10.417   6.307  20.426  0.2900 -0.1626 -0.2594
37917W        W80855   8.643   6.643  23.328 -0.0346  0.3815 -0.0151
37918W        W80856   8.437   5.670  21.958 -0.0391  0.0066  0.0165
37919W        W80857   9.619   6.140  24.493  0.0088  0.0483  0.0206
37920W        W80858   7.866   8.190  19.907 -0.1112  0.0428  0.0182
37921W        W80859   9.336   4.505  20.078  0.1365 -0.4202 -0.1678
37922W        W80860   9.999   4.580  20.904  0.0304 -0.3196  0.0459
37923W        W80861  10.275   4.499  19.499 -0.1200 -0.0068 -0.1990
37924W        W80862  10.289   4.289  21.439 -0.2206  0.1767  0.1815
37925W        W80863   9.028   6.674  21.248  0.0377 -0.0555 -0.0920
37926W        W80864   8.692   3.299  22.077  0.0979 -0.0246 -0.3552
37927W        W80865   9.897   6.917  22.988  0.0315  0.3018  0.1122
37928W        W80866   9.011   5.005  22.402 -0.2283  0.2440 -0.1910
37929W        W80867  10.443   5.995  22.198  0.0319  0.1334 -0.2104
37930W        W80868   9.370   7.174  21.684 -0.1683 -0.1391  0.1449
37931W        W80869   7.067   4.380  21.485 -0.0394 -0.0073  0.1019
37932W        W80870   9.659   6.391  18.959 -0.2761 -0.1128  0.2036
37933W        W80871   9.747   7.035  19.631 -0.1479 -0.2148  0.0756
37934W        W80872   9.399   6.624  19.496  0.2439  0.0695 -0.0454
37935W        W80873   6.720   3.474  21.395 -0.1843  0.0944  0.1647
37936W        W80874   7.071   5.761  23.258 -0.1172 -0.1201 -0.0923
37937W        W80875   7.349   4.808  21.645 -0.0085  0.1135 -0.2045
37938W        W80876   8.623   3.725  20.425  0.3090  0.0936  0.1272
37939W        W80877  11.535   4.928  22.678 -0.1167  0.1391 -0.1435
37940W        W80878   7.921   5.775  21.926  0.0283 -0.1259 -0.0519
37941W        W80879  11.100   4.962  21.757  0.1218  0.2872  0.4017
37942W        W80880   7.406   5.761  21.893 -0.0162  0.0745  0.2127
37943W        W80881  11.440   5.778  22.705 -0.1338  0.0851 -0.1436
37944W        W80882  10.913   5.407  19.343 -0.0733 -0.1042  0.1266
37945W        W80883  10.413   2.565  22.018 -0.1660 -0.0082  0.3633
37946W        W80884  10.254   3.034  23.038  0.0210  0.0072 -0.1199
37947W        W80885   7.821   8.009  19.087  0.1041  0.0294  0.1927
37948W        W80886   9.245   6.824  20.713  0.3183  0.1968  0.3214
37949W        W80887  11.156   6.370  23.275  0.1738 -0.2059  0.0927
37950W        W80888  10.457   5.054  21.076 -0.2066 -0.0985 -0.2691
37951W        W80889   9.220   6.423  23.229  0.1733  0.2509 -0.3635
37952W        W80890   9.938   4.602  22.693  0.1688 -0.0589 -0.0737
37953W        W80891   8.303   5.436  22.449  0.0721  0.0095 -0.2677
37954W        W80892   6.699   7.389  20.489 -0.1663 -0.0547  0.0081
37955W        W80893   7.095   7.069  20.802 -0.1259  0.2081 -0.1475
37956W        W80894   6.356   6.098  19.842 -0.2516 -0.1383 -0.0488
37957W        W80895   7.161   2.808  22.637 -0.1873  0.1199 -0.0235
37958W        W80896  10.074   6.861  21.307 -0.1458  0.0435  0.2923
37959W        W80897  10.651   4.090  20.226  0.0456 -0.0727 -0.1026
37960W        W80898   8.715   3.596  23.524 -0.3378  0.3010  0.2026
37961W        W80899  10.735   4.190  22.229 -0.0409 -0.1837 -0.0666
37962W        W80900   8.089   4.381  20.380  0.1091  0.2405 -0.0028
37963W        W80901   9.145   7.495  20.978 -0.2360  0.0165 -0.1791
37964W        W80902   9.870   5.747  19.942  0.1560 -0.2671 -0.0280
37965W        W80903  10.921   5.051  18.886  0.0982 -0.1044 -0.0804
37966W        W80904   6.615   4.172  21.499 -0.0933  0.0765 -0.0621
37967W        W80905   7.755   4.696  20.785  0.0115 -0.2979  0.1003
37968W        W80906   7.899   4.113  23.350 -0.0710 -0.2248  0.1142
37969W        W80907   8.024   3.212  21.406 -0.0505  0.0415 -0.0156
37970W        W80908   9.342   5.713  22.498 -0.1989 -0.1300  0.0483
37971W        W80909   7.462   2.782  20.826  0.3292 -0.1139  0.1444
37972W        W80910   9.517   3.267  21.776  0.1540 -0.2570 -0.0924
37973W        W80911   9.671   5.258  20.485 -0.0760  0.2949  0.1286
37974W        W80912   8.186   6.492  20.686 -0.2729  0.1255  0.0860
37975W        W80913  10.236   4.976  21.732 -0.1190  0.0653 -0.1761
37976W        W80914   9.470   6.086  20.040 -0.0991 -0.1725 -0.3773
37977W        W80915  10.255   7.688  23.420  0.0376  0.0261  0.1815
37978W        W80916  10.082   7.527  19.903  0.0065  0.1710  0.1362
37979W        W80917   7.929   4.547  22.470  0.1974 -0.1852  0.1496
37980W        W80918   8.786   4.973  20.738 -0.0814  0.2239 -0.0536
37981W        W80919   8.184   6.359  20.168 -0.0144  0.3754 -0.0715
37982W        W80920   8.512   5.184  22.137 -0.0978  0.3442  0.3239
37983W        W80921   9.289   4.289  21.333 -0.1595  0.0173  0.1051
37984W        W80922  12.738   6.424  20.261 -0.0229  0.1891  0.2105
37985W        W80923   9.426   6.650  21.582  0.0552 -0.0807  0.1253
37986W        W80924   7.902   6.116  21.413  0.0573 -0.3151 -0.0835
37987W        W80925   9.792   3.765  23.000 -0.1604 -0.4437  0.0525
37988W        W80926  10.760   6.068  23.495 -0.1277  0.1632  0.1575
37989W        W80927  10.676   5.161  21.816 -0.1828 -0.0376 -0.0247
37990W        W80928   7.565   4.016  20.774  0.1907 -0.1571  0.1535
37991W        W80929  10.627   6.988  21.189 -0.1846  0.1626 -0.1236
37992W        W80930   8.670   6.110  20.653 -0.2219 -0.2307  0.0015
37993W        W80931   6.672   5.461  20.578  0.1770  0.0315 -0.2058
37994W        W80932   9.266   6.255  21.307 -0.1755 -0.4923 -0.2725
37995W        W80933   9.593   3.784  22.016  0.3646 -0.0122  0.0860
37996W        W80934   7.103   4.603  23.912 -0.2171 -0.1331  0.1348
37997W        W80935  10.188   4.490  23.625 -0.1932 -0.1332  0.3016
37998W        W80936   7.720   4.573  19.884  0.0061  0.3532 -0.0099
37999W        W80937   8.290   5.956  22.863  0.2074 -0.2370 -0.0143
38000W        W80938  10.119   5.314  23.059 -0.2524  0.1424  0.0027
38001W        W80939  10.446   5.431  19.375 -0.1018  0.0566  0.2649
38002W        W80940   8.496   7.153  23.293  0.4389  0.0432  0.0812
38003W        W80941  11.351   6.349  20.488  0.3629 -0.5419 -0.1196
38004W        W80942   9.686   3.740  20.439  0.2740  0.1571 -0.3410
38005W        W80943   8.426   4.097  20.694  0.0146  0.0369  0.1159
38006W        W80944   6.847   5.963  22.265 -0.1467  0.5316  0.0252
38007W        W80945   9.796   5.762  21.441 -0.5054  0.2072  0.1900
38008W        W80946   8.653   5.148  22.806 -0.1578  0.2640  0.0034
38009W        W80947  10.056   4.736  21.350  0.0737 -0.3938  0.3020
38010W        W80948  11.831   6.266  20.629  0.3623  0.2143  0.0561
38011W        W80949   7.690   5.763  20.609 -0.0418 -0.1480 -0.5017
38012W        W80950   9.658   7.233  25.442  0.1150  0.0596  0.1155
38013W        W80951  10.821   7.034  22.614  0.1184 -0.1095  0.0441
38014W        W80952   8.206   4.518  21.464 -0.3110  0.2521 -0.1051
38015W        W80953   8.847   5.932  21.808  0.1296 -0.3203  0.3009
38016W        W80954  10.461   5.549  20.833  0.0212  0.2232  0.1336
38017W        W80955   7.464   6.012  19.521 -0.0997  0.0148  0.2219
38018W        W80956  10.365   3.872  21.702 -0.3038 -0.2156  0.2133
38019W        W80957  10.186   3.920  23.301  0.0648  0.0906  0.0205
38020W        W80958  11.062   5.911  23.126 -0.0619 -0.0617  0.0231
38021W        W80959  11.513   6.013  23.994 -0.0048 -0.0742 -0.0820
38022W        W80960   9.606   5.766  20.515  0.3689 -0.3476 -0.3103
38023W        W80961  10.269   6.637  22.080 -0.1062 -0.0357 -0.1699
38024W        W80962   7.432   4.145  19.623  0.1211 -0.0611  0.1110
38025W        W80963  10.416   4.435  21.917  0.1871  0.2085 -0.2665
38026W        W80964   7.395   4.545  22.527  0.2916  0.0697 -0.1295
38027W        W80965   8.313   6.553  22.926 -0.5388  0.2716  0.0063
38028W        W80966  10.600   7.227  23.486 -0.3102 -0.1152  0.0988
38029W        W80967   9.964   6.092  20.283  0.1666 -0.0626  0.3970
38030W        W80968  10.249   2.922  22.501 -0.4383 -0.1229  0.2870
38031W        W80969   9.720   5.169  21.784  0.0758  0.0748  0.0027
38032W        W80970   9.348   6.503  18.591 -0.2290  0.0610 -0.0422
38033W        W80971   9.503   5.398  20.964  0.2774  0.3616  0.0936
38034W        W80972   8.919   2.744  21.057 -0.2027 -0.0527  0.0119
38035W        W80973   9.860   6.404  21.360  0.0347  0.1892  0.0600
38036W        W80974   9.044   5.998  20.314 -0.1671 -0.0693  0.0333
38037W        W80975   9.930   6.004  22.471 -0.0025  0.3557  0.2886
38038W        W80976   7.946   6.984  20.483 -0.0390  0.1478  0.1852
38039W        W80977  10.493   3.262  22.236 -0.1788 -0.0750 -0.0125
38040W        W80978   7.068   6.970  21.963  0.3193  0.0590 -0.0260
38041W        W80979   7.870   3.997  19.387 -0.1269 -0.0254  0.2208
38042W        W80980   6.516   3.018  21.601 -0.0328 -0.0625 -0.4176
38043W        W80981  10.607   2.550  21.584  0.2240 -0.0069  0.1641
38044W        W80982   8.657   6.447  20.273 -0.0657  0.0375 -0.0679
38045W        W80983   7.118   4.054  20.523 -0.0720  0.1871  0.1177
38046W        W80984  10.215   3.975  22.164  0.1852  0.2155 -0.1165
38047W        W80985   7.476   8.316  21.278  0.1481 -0.2177 -0.1223
38048W        W80986   8.989   5.513  23.047  0.0184 -0.0312 -0.1648
38049W        W80987   9.779   4.627  21.737 -0.1975 -0.0223  0.1959
38050W        W80988   9.937   6.547  22.596  0.6434 -0.0754  0.1995
38051W        W80989   9.525   6.130  22.212  0.1938  0.0406  0.2677
38052W        W80990   6.267   4.933  21.066  0.2047 -0.1860 -0.1168
38053W        W80991   9.590   6.216  22.857  0.2921  0.0699 -0.1767
38054W        W80992   8.097   4.839  21.085 -0.0828 -0.0555  0.0323
38055W        W80993   6.755   6.376  20.455  0.3258  0.0497 -0.0365
38056W        W80994   9.601   6.598  20.992  0.0822  0.0828  0.1274
38057W        W80995   7.519   5.597  21.035 -0.3669 -0.4287 -0.1383
38058W        W80996   8.657   6.227  23.121  0.0894 -0.0939  0.4242
38059W        W80997   7.924   4.082  22.792  0.0747  0.1258 -0.1770
38060W        W80998  10.287   5.944  21.291  0.0311  0.0447 -0.0924
38061W        W80999   9.359   5.036  23.609 -0.2884  0.0382  0.0785
38062W        W81000   8.619   4.934  21.242  0.1381 -0.0377  0.0094
38063W        W81001   9.484   4.696  22.559  0.0347  0.0141 -0.1208
38064W        W81002  10.014   6.117  21.830 -0.1127  0.0597 -0.0881
38065W        W81003  10.125   5.299  22.221 -0.2035 -0.0278  0.3208
38066W        W81004   7.979   6.821  23.186  0.0183  0.4518  0.0796
38067W        W81005   9.984   2.460  21.599  0.1188 -0.3496 -0.1426
38068W        W81006  11.669   6.282  21.085 -0.1357 -0.1234 -0.0674
38069W        W81007   9.607   6.011  23.297 -0.2209 -0.1077  0.4865
38070W        W81008   7.305   6.052  20.661 -0.0721 -0.1301  0.0233
38071W        W81009   6.355   5.685  21.710 -0.0787  0.2855 -0.0556
38072W        W81010   9.204   5.878  20.822 -0.2195 -0.2986  0.1262
38073W        W81011   9.450   5.318  23.241  0.0654  0.6379 -0.0449
38074W        W81012   7.099   5.870  21.229 -0.2329 -0.4125 -0.1225
38075W        W81013   8.042   5.256  19.852 -0.3712  0.1978 -0.1952
38076W        W81014   7.035   5.237  23.126 -0.0865 -0.0047 -0.2668
38077W        W81015  10.763   3.443  19.401 -0.0408 -0.1019  0.0120
38078W        W81016   9.393   5.610  20.149  0.2071 -0.1971 -0.0040
38079W        W81017   8.296   5.755  21.472 -0.0092 -0.1498  0.5928
38080W        W81018  10.321   5.259  23.966  0.0365 -0.2140 -0.2830
38081W        W81019  10.675   5.058  19.965  0.2887 -0.2238  0.1037
38082W        W81020  10.420   3.449  24.004  0.0623 -0.0996  0.0071
38083W        W81021   7.620   2.421  22.119 -0.0873 -0.3210 -0.0096
38084W        W81022  10.992   6.274  22.016  0.0818  0.2112  0.0986
38085W        W81023   8.145   3.286  23.103 -0.1755  0.1903 -0.0782
38086W        W81024  10.733   6.460  24.042 -0.0809 -0.1577 -0.2579
38087W        W81025   7.853   5.199  20.753 -0.0356 -0.3536 -0.1381
38088W        W81026   9.930   4.128  21.770 -0.1355 -0.0560 -0.0427
38089W        W81027   7.905   3.308  20.273 -0.0452  0.1402 -0.0998
38090W        W81028   8.052   5.029  22.254 -0.0315 -0.1301 -0.0856
38091W        W81029  10.196   6.703  19.808 -0.2638  0.0490  0.3904
38092W        W81030  10.164   5.913  20.738  0.1457 -0.1983 -0.2110
38093W        W81031  11.687   4.777  20.904 -0.0922  0.0586  0.3752
38094W        W81032   7.417   6.168  21.605  0.0378 -0.1213  0.1825
38095W        W81033  10.022   5.255  21.338 -0.0436 -0.1042  0.2724
38096W        W81034   9.611   4.962  21.176  0.0299  0.0850  0.3819
38097W        W81035   9.342   5.034  20.200  0.0949 -0.0958  0.1735
38098W        W81036   8.118   3.119  21.855  0.0741  0.3201 -0.4000
38099W        W81037   8.661   5.208  23.359  0.2356 -0.1985 -0.2170
38100W        W81038   9.552   4.349  22.035  0.1634  0.2376 -0.2723
38101W        W81039   9.955   5.944  23.002 -0.0606  0.3470  0.0070
38102W        W81040  11.695   4.426  23.158 -0.3218  0.3268 -0.0573
38103W        W81041   7.728   5.236  25.393  0.3147 -0.0359  0.0209
38104W        W81042   7.485   3.881  22.575 -0.0760 -0.3171  0.1028
38105W        W81043  11.178   7.577  21.812  0.0242  0.0274  0.0502
38106W        W81044  10.843   3.883  19.207  0.0403  0.1060 -0.1073
38107W        W81045  10.855   4.085  21.646  0.3585  0.1178 -0.0398
38108W        W81046  11.937   5.091  21.244 -0.0221 -0.2164 -0.0006
38109W        W81047  10.569   4.592  20.109  0.0842 -0.1534 -0.0562
38110W        W81048   6.950   5.137  21.938 -0.0056  0.2884 -0.1414
38111W        W81049   9.065   6.032  22.875  0.1392  0.1792 -0.1151
38112W        W81050   7.213   3.591  20.716 -0.1723 -0.1875  0.0304
38113W        W81051   9.636   4.387  24.197  0.1188 -0.2320  0.0155
38114W        W81052   7.609   6.642  19.647 -0.0640  0.0392 -0.3310
38115W        W81053  10.532   4.751  20.693  0.0462  0.0582  0.1495
38116W        W81054  10.571   5.245  20.405 -0.0108 -0.1654  0.0006
38117W        W81055   8.603   4.736  22.319  0.1160 -0.0596  0.1704
38118W        W81056   8.478   7.319  21.648  0.3169  0.1285 -0.0045
38119W        W81057   7.298   4.722  20.452  0.0668  0.0487 -0.0795
38120W        W81058   8.576   5.733  20.959  0.0921  0.1823 -0.3869
38121W        W81059   8.527   6.279  22.558 -0.1991 -0.0183  0.0070
38122W        W81060   9.323   5.146  22.782  0.0757 -0.1118  0.0604
38123W        W81061  10.499   3.959  20.716  0.2290 -0.0624  0.1332
38124W        W81062  11.059   5.208  24.483 -0.0037  0.3721  0.3327
38125W        W81063   8.548   5.285  21.685 -0.0628  0.1772 -0.1434
38126W        W81064   9.244   3.470  22.264 -0.2377 -0.1545  0.1425
38127W        W81065   8.474   7.078  22.785  0.0025  0.0794  0.4321
38128W        W81066   7.893   4.566  23.102  0.1163  0.2044  0.1195
38129W        W81067   9.102   6.353  19.926  0.2280 -0.0945  0.1673
38130W        W81068   8.920   3.709  22.606 -0.0868  0.0645  0.1401
38131W        W81069  10.906   4.519  21.854  0.0710 -0.2033 -0.0537
38132W        W81070   9.364   4.278  23.007 -0.0076 -0.2728  0.1873
38133W        W81071  10.395   6.603  23.451 -0.3674  0.2779  0.1441
38134W        W81072   8.621   5.391  23.833 -0.0170 -0.1559  0.1063
38135W        W81073   7.492   5.311  20.437 -0.1890 -0.4338 -0.1212
38136W        W81074   9.676   7.677  23.002 -0.1206  0.1698  0.0166
38137W        W81075  12.120   5.646  21.228  0.0783  0.0197  0.0630
38138W        W81076   9.306   5.040  20.740  0.1999 -0.1156 -0.1975
38139W        W81077   7.884   3.557  22.739 -0.0035 -0.0800 -0.1990
38140W        W81078   7.546   5.514  23.167 -0.3602  0.1388  0.1768
38141W        W81079  10.638   6.672  20.785  0.1156 -0.0035  0.2314
38142W        W81080   8.932   2.542  21.941 -0.1189 -0.1135  0.0197
38143W        W81081  10.314   5.450  19.895  0.1870  0.0325  0.0075
38144W        W81082   8.694   5.776  22.615 -0.1433 -0.1568  0.0173
38145W        W81083   7.243   4.106  22.179 -0.0279  0.0344 -0.0208
38146W        W81084   8.794   6.952  19.387  0.1171  0.3031  0.2155
38147W        W81085   9.804   5.084  19.953 -0.4517 -0.1128  0.0838
38148W        W81086  10.661   6.088  20.825  0.1658 -0.1894  0.0114
38149W        W81087  10.580   7.474  20.807  0.2990 -0.0778  0.1160
38150W        W81088   8.849   4.631  19.990 -0.0405 -0.0060 -0.1067
38151W        W81089   8.521   6.368  21.516 -0.0433 -0.1759  0.1542
38152W        W81090   6.359   6.005  20.480 -0.0579  0.0753 -0.2608
38153W        W81091  10.349   6.042  19.873 -0.0736 -0.1138 -0.2740
38154W        W81092   9.748   7.554  19.531  0.0447  0.0130  0.1719
38155W        W81093  10.641   7.921  23.166  0.3428 -0.1445 -0.0546
38156W        W81094  10.032   3.576  19.136 -0.3572  0.4434 -0.0577
38157W        W81095  12.108   5.525  22.593 -0.2276 -0.2445 -0.2093
38158W        W81096  12.243   4.741  20.930  0.0365 -0.1872 -0.3422
38159W        W81097  10.726   8.112  24.149 -0.1819 -0.0390 -0.2833
38160W        W81098   9.046   6.116  22.357 -0.0420 -0.1523  0.2675
38161W        W81099  10.259   4.416  20.449 -0.0368 -0.1979 -0.1867
38162W        W81100   9.887   5.110  22.680 -0.0700  0.1258  0.1591
38163W        W81101  10.727   4.122  24.030  0.1009 -0.1411  0.1691
38164W        W81102   8.172   6.577  21.202  0.0001 -0.0866  0.1712
38165W        W81103  11.033   6.819  19.541  0.1998 -0.2044  0.1304
38166W        W81104   8.054   3.747  22.302  0.2139 -0.3102 -0.3163
38167W        W81105   8.072   5.313  21.844  0.0467  0.1615 -0.2528
38168W        W81106  10.482   1.648  21.079  0.0844 -0.2680  0.0603
38169W        W81107   9.175   7.081  19.762 -0.0991  0.1492  0.1916
38170W        W81108  10.364   7.018  21.752 -0.0146  0.0343  0.1141
38171W        W81109   9.956   5.575  20.965 -0.1637 -0.2951 -0.0586
38172W        W81110   8.981   5.370  21.063  0.1191  0.0004  0.1320
38173W        W81111   9.339   7.090  21.211  0.0962 -0.1064  0.0377
38174W        W81112   7.474   3.660  19.484 -0.0828  0.0091 -0.3576
38175W        W81113  12.229   6.106  21.062 -0.0442  0.3505 -0.0615
38176W        W81114   9.757   4.182  22.456 -0.1632  0.0049 -0.0611
38177W        W81115  10.297   4.431  22.423  0.1250 -0.0204  0.3218
38178W        W81116   8.892   5.545  22.194  0.3666 -0.2177  0.2370
38179W        W81117  10.113   5.076  20.688 -0.1004 -0.0778 -0.1317
38180W        W81118   9.451   6.027  21.693 -0.0929 -0.2964 -0.4461
38181W        W81119   7.531   4.272  21.734  0.1711 -0.0681 -0.0360
38182W        W81120   9.049   4.086  20.480  0.0546 -0.0719 -0.0996
38183W        W81121  11.344   5.042  23.157 -0.0431 -0.2503  0.0423
38184W        W81122   9.112   4.918  19.636 -0.1099  0.0793 -0.0787
38185W        W81123  10.151   8.894  23.518 -0.0713 -0.1147  0.3047
38186W        W81124   9.101   4.796  21.138  0.0581 -0.1039 -0.0283
38187W        W81125   9.058   4.213  21.756  0.0166 -0.3109 -0.1074
38188W        W81126   7.787   6.161  20.912  0.0095  0.0820 -0.2765
38189W        W81127  10.382   6.805  22.722  0.0210  0.0714 -0.2427
38190W        W81128  10.118   7.175  23.351  0.2442 -0.0874  0.0335
38191W        W81129   7.570   3.789  21.606 -0.3276  0.2007  0.2459
38192W        W81130  10.190   4.991  19.707  0.0205  0.0441 -0.1478
38193W        W81131  10.504   6.321  21.764 -0.1505 -0.0637  0.0595
38194W        W81132   7.937   7.025  19.458 -0.1551  0.0288  0.0772
38195W        W81133  11.632   5.828  21.409 -0.1179 -0.0999  0.1270
38196W        W81134  10.060   7.872  21.016 -0.2245  0.3171 -0.0201
38197W        W81135   7.760   5.422  22.253  0.0913  0.2283 -0.1286
38198W        W81136  11.247   7.080  22.142  0.1992 -0.0505  0.0793
38199W        W81137  10.624   5.804  21.743 -0.2229 -0.1666  0.0041
38200W        W81138   9.080   3.918  22.127  0.0065  0.0991  0.2381
38201W        W81139   7.133   5.564  20.713 -0.4937 -0.1064  0.0316
38202W        W81140   8.328   6.330  22.036 -0.1082 -0.2084 -0.0370
38203W        W81141  10.889   5.657  21.157  0.1865 -0.0802 -0.2901
38204W        W81142  10.306   4.922  22.587 -0.4499 -0.1055 -0.3057
38205W        W81143  10.212   7.093  18.355 -0.1321  0.2830  0.0108
38206W        W81144  10.885   2.407  22.587 -0.3305 -0.3033 -0.3234
38207W        W81145  10.682   7.407  22.006 -0.2899  0.1991 -0.2228
38208W        W81146   7.299   7.329  21.622 -0.5466  0.0344  0.2614
38209W        W81147   6.612   5.663  19.997 -0.0731  0.2940  0.0060
38210W        W81148   8.448   4.879  23.655  0.3738 -0.5665 -0.6636
38211W        W81149   9.278   5.660  21.318  0.0655 -0.2246 -0.1178
38212W        W81150   9.594   7.382  19.992  0.1755  0.3049 -0.0105
38213W        W81151  10.423   6.481  21.280 -0.1879  0.2352  0.0466
38214W        W81152  10.456   4.372  20.980 -0.0195  0.0561 -0.0125
38215W        W81153  11.526   6.281  22.279  0.0809  0.3790  0.3350
38216W        W81154   9.040   3.468  21.729 -0.0816 -0.0228 -0.0464
38217W        W81155   9.294   5.571  21.886  0.1069  0.1108 -0.1128
38218W        W81156  10.109   2.416  20.676 -0.0124  0.2361 -0.0384
38219W        W81157   9.336   4.605  23.395  0.2328  0.2461  0.0868
38220W        W81158   8.036   5.607  20.946  0.1378 -0.0601  0.1522
38221W        W81159   9.079   6.418  20.566 -0.1822 -0.0337 -0.3822
38222W        W81160   6.835   6.323  21.329  0.1184  0.2906  0.0658
38223W        W81161   9.198   3.479  23.614  0.1951  0.0762 -0.2108
38224W        W81162   8.031   3.275  22.326  0.0797 -0.3063  0.0176
38225W        W81163   6.647   5.486  22.240  0.0601  0.0461 -0.0059
38226W        W81164   8.611   4.739  21.782 -0.2753 -0.2646  0.3079
38227W        W81165  11.176   6.892  20.518 -0.0594 -0.0883  0.1213
38228W        W81166   9.414   3.702  21.493 -0.1155  0.0605  0.2667
38229W        W81167   8.704   5.109  20.231  0.0881  0.1001  0.3204
38230W        W81168  10.915   5.233  20.798  0.0281 -0.3112  0.1470
38231W        W81169   9.945   6.735  19.180 -0.2360 -0.1657 -0.0886
38232W        W81170   8.694   3.857  21.739 -0.1166  0.0389 -0.0446
38233W        W81171  10.583   8.041  23.689  0.1975  0.1200 -0.2551
38234W        W81172   7.908   6.253  19.366  0.0101  0.2935 -0.0520
38235W        W81173   9.727   5.571  22.784 -0.0322 -0.1057  0.1152
38236W        W81174   9.445   4.050  23.889  0.0380 -0.1239 -0.2274
38237W        W81175   8.191   4.104  18.703  0.1230 -0.0906 -0.0559
38238W        W81176   9.978   4.791  22.213 -0.0890 -0.1111 -0.0088
38239W        W81177  11.134   5.944  20.314  0.2989  0.2037 -0.4432
38240W        W81178  10.490   7.272  20.114  0.0065  0.1356  0.0191
38241W        W81179   8.984   5.832  23.880 -0.2557 -0.0937  0.0690
38242W        W81180   9.931   7.336  21.492  0.1214 -0.2709 -0.1326
38243W        W81181   8.014   3.635  21.808 -0.4059 -0.1258 -0.1689
38244W        W81182  11.803   5.833  20.936  0.1044  0.1331 -0.1964
38245W        W81183   8.967   7.468  24.098 -0.0337 -0.4575 -0.2033
38246W        W81184  12.407   5.202  21.099  0.2832 -0.1689  0.0524
38247W        W81185   9.600   5.318  22.297 -0.3075  0.2190 -0.0331
38248W        W81186   9.084   5.436  20.552  0.2282 -0.0697  0.1342
38249W        W81187   7.550   3.373  23.435  0.3033 -0.2576  0.2353
38250W        W81188   9.410   6.805  22.940 -0.0603  0.1459 -0.2383
38251W        W81189  10.607   5.217  22.907 -0.0332  0.0854 -0.0173
38252W        W81190   8.832   3.951  23.040  0.2263  0.2035 -0.0198
38253W        W81191  10.950   5.732  20.681  0.1524  0.0200  0.2671
38254W        W81192   9.609   6.327  20.559  0.1149 -0.3143 -0.2633
38255W        W81193   7.321   5.109  20.849 -0.3371 -0.0295 -0.2436
38256W        W81194   8.966   5.068  21.921 -0.4108 -0.0003  0.1876
38257W        W81195   9.847   5.588  23.448 -0.1494  0.4115  0.0487
38258W        W81196  10.646   6.913  23.137 -0.0823  0.3281 -0.0301
38259W        W81197   9.286   7.994  22.768  0.0710 -0.1385 -0.1261
38260W        W81198   9.703   4.761  20.416 -0.2296  0.0498  0.0410
38261W        W81199  11.961   5.364  20.797  0.1502 -0.0854 -0.4715
38262W        W81200   9.292   7.237  22.273 -0.0050  0.0589 -0.1309
38263W        W81201   8.629   7.238  22.282  0.3440  0.3431  0.0370
38264W        W81202   8.956   6.570  22.789 -0.0216  0.1172 -0.2863
38265W        W81203  10.926   4.899  22.621 -0.1403 -0.2333  0.2482
38266W        W81204   6.230   3.605  22.113  0.1005 -0.0196 -0.1409
38267W        W81205   7.519   5.239  21.855 -0.0469  0.3144 -0.0236
38268W        W81206  10.087   5.528  20.388  0.0008  0.0764  0.3039
38269W        W81207  10.602   3.876  22.968 -0.1321  0.1632  0.0558
38270W        W81208   7.728   4.142  22.198 -0.1035 -0.0837 -0.0386
38271W        W81209  10.382   3.798  21.176 -0.0342 -0.3065 -0.0315
38272W        W81210   9.900   7.062  21.930 -0.1501  0.2622 -0.0536
38273W        W81211  11.315   5.865  20.960 -0.0527 -0.0312  0.0025
38274W        W81212   8.989   6.438  25.662  0.0169  0.0397  0.3361
38275W        W81213   8.242   4.598  24.499 -0.0989  0.3165 -0.0906
38276W        W81214  10.271   4.198  24.662 -0.0815  0.0654  0.1051
38277W        W81215  10.402   6.898  23.839  0.0607 -0.3810 -0.1368
38278W        W81216   7.555   3.382  25.258 -0.0794 -0.0946  0.0512
38279W        W81217   9.420   7.889  24.464 -0.0116  0.0206 -0.0417
38280W        W81218   7.893   3.867  27.630 -0.1158 -0.0042  0.1143
38281W        W81219   9.660   6.269  25.083 -0.2136  0.2117  0.4201
38282W        W81220  10.485   6.914  26.239  0.3176 -0.0122  0.2431
38283W        W81221   9.038   7.030  23.186  0.0145 -0.1612  0.1795
38284W        W81222   8.937   4.046  24.485 -0.0019  0.1208  0.1908
38285W        W81223   8.853   6.247  26.161 -0.1148 -0.1291  0.1031
38286W        W81224   9.056   3.722  24.047  0.0983  0.0830 -0.0026
38287W        W81225   7.195   4.114  26.508 -0.0038 -0.0693 -0.0303
38288W        W81226   9.973   4.572  25.075 -0.0945 -0.0179 -0.3490
38289W        W81227   6.777   5.543  23.635  0.0739  0.2152  0.3133
38290W        W81228   8.591   5.547  26.822 -0.0170 -0.2658  0.0837
38291W        W81229   9.225   5.342  24.068 -0.0406 -0.1433  0.1220
38292W        W81230   8.934   7.848  24.464  0.1321  0.1777  0.0449
38293W        W81231   8.192   4.746  25.949  0.1274  0.0482 -0.0716
38294W        W81232  11.783   5.628  27.876  0.0243  0.3911 -0.3114
38295W        W81233   8.554   7.531  24.693  0.0735  0.1872  0.1205
38296W        W81234   7.978   4.057  23.911 -0.1551 -0.2349 -0.0652
38297W        W81235   7.785   4.596  24.675  0.0324  0.1937 -0.1536
38298W        W81236   7.879   5.192  25.952  0.4538  0.4856  0.2476
38299W        W81237   9.689   4.934  26.316  0.2887 -0.3228 -0.0138
38300W        W81238  10.247   5.734  25.630  0.1446 -0.1063  0.1723
38301W        W81239   8.275   6.308  24.150 -0.0408 -0.0328  0.1217
38302W        W81240   8.699   5.445  25.594 -0.3739  0.0771  0.0354
38303W        W81241   9.680   4.821  27.342  0.0015  0.1719 -0.0274
38304W        W81242   7.749   6.588  24.887  0.1010  0.0991 -0.0158
38305W        W81243   7.404   6.791  24.495 -0.3881  0.1689 -0.0804
38306W        W81244   9.526   7.283  23.301  0.0802 -0.1474  0.0927
38307W        W81245  10.527   6.498  25.935 -0.4348  0.2652 -0.3867
38308W        W81246   9.758   5.829  26.432  0.2103 -0.0492 -0.1648
38309W        W81247   8.810   6.655  26.979  0.1476 -0.2085  0.1512
38310W        W81248   8.590   5.753  23.310  0.0862  0.0245 -0.1236
38311W        W81249   9.602   7.713  26.117 -0.0265  0.0477  0.1383
38312W        W81250   9.351   6.682  26.850 -0.0072 -0.2398  0.0009
38313W        W81251  10.060   5.801  27.460  0.0504 -0.3081 -0.3359
38314W        W81252   8.593   5.427  25.039 -0.0070  0.4718 -0.0306
38315W        W81253   8.953   8.211  24.100  0.0223 -0.0134 -0.1077
38316W        W81254   9.065   7.330  25.388  0.0951 -0.1076 -0.1131
38317W        W81255   7.425   6.047  26.165 -0.1336 -0.1376  0.2538
38318W        W81256   9.371   7.412  23.764 -0.2932 -0.2589  0.2302
38319W        W81257  12.101   3.984  28.869  0.2236 -0.1484 -0.1844
38320W        W81258   7.883   6.762  22.161 -0.2713 -0.4728  0.0269
38321W        W81259   9.825   5.274  24.902 -0.1254  0.0943 -0.1472
38322W        W81260   9.573   6.982  24.506  0.1805  0.1009 -0.2403
38323W        W81261  10.370   4.423  24.251  0.1884 -0.3418 -0.2615
38324W        W81262  10.137   4.005  25.193  0.0029  0.1089  0.0004
38325W        W81263   7.829   7.740  25.450  0.3053 -0.1681 -0.3727
38326W        W81264   8.156   3.168  24.461  0.0599 -0.0591 -0.1672
38327W        W81265  10.796   5.354  26.357  0.1551 -0.1841 -0.1910
38328W        W81266   9.713   6.591  24.244 -0.0070  0.0494 -0.2730
38329W        W81267   9.860   4.231  25.982 -0.1733 -0.0792  0.1299
38330W        W81268   7.895   6.898  26.213  0.1583 -0.1446 -0.0175
38331W        W81269   7.268   5.411  23.603  0.0725  0.1347 -0.3508
38332W        W81270  10.904   7.985  22.180 -0.3260  0.1152 -0.0109
38333W        W81271  10.926   7.577  25.872 -0.3113 -0.0514 -0.1437
38334W        W81272   9.302   6.130  24.102 -0.1437 -0.0491 -0.1442
38335W        W81273   7.331   3.947  24.244  0.2409  0.0902  0.0060
38336W        W81274   6.399   6.238  26.505 -0.1456 -0.0212 -0.1614
38337W        W81275   8.949   5.663  27.609 -0.1239  0.1591 -0.1097
38338W        W81276   8.903   4.440  23.169 -0.1109 -0.2138  0.1353
38339W        W81277  10.476   6.635  27.336  0.0562 -0.2151 -0.0850
38340W        W81278   6.662   7.638  27.607  0.3993  0.2956  0.2255
38341W        W81279  10.839   4.898  26.072  0.0428 -0.0476  0.1732
38342W        W81280   8.029   5.009  23.873  0.0993 -0.0832 -0.2655
38343W        W81281  11.427   5.830  27.064  0.3260  0.3431  0.0792
38344W        W81282  10.359   7.181  22.369  0.0316  0.2819  0.1968
38345W        W81283  10.264   3.004  26.899 -0.2074 -0.0190  0.1469
38346W        W81284   8.791   3.614  26.010  0.0697 -0.1327  0.1937
38347W        W81285   7.942   4.868  21.665 -0.0976  0.0167  0.1662
38348W        W81286   7.005   4.673  24.842  0.0941  0.2295  0.0376
38349W        W81287  10.634   5.799  26.490  0.2716 -0.0501  0.0903
38350W        W81288  10.863   4.172  24.591  0.0426  0.4178  0.0249
38351W        W81289   8.388   6.463  26.163  0.2927  0.1550 -0.1405
38352W        W81290   7.898   5.160  26.579  0.3844 -0.2061 -0.1523
38353W        W81291   9.351   7.365  25.853 -0.2589 -0.2819  0.3975
38354W        W81292   7.771   7.581  22.703 -0.1708  0.0112 -0.0274
38355W        W81293   6.803   6.713  25.654  0.0597 -0.0083  0.0744
38356W        W81294   8.285   6.752  23.645  0.1459  0.2175 -0.1389
38357W        W81295   7.543   5.476  26.737 -0.0534 -0.0388  0.0678
38358W        W81296   8.418   4.100  25.288 -0.1066  0.1853  0.2952
38359W        W81297  10.495   4.343  23.189  0.1971 -0.1374 -0.2509
38360W        W81298   6.363   4.474  26.018 -0.0837 -0.1118 -0.0226
38361W        W81299  11.031   2.884  25.144 -0.0022 -0.0668  0.0591
38362W        W81300   8.555   7.923  24.009 -0.0968 -0.1111  0.2438
38363W        W81301  11.335   5.662  24.549 -0.0890  0.2400  0.0465
38364W        W81302  10.506   4.863  23.745  0.0688  0.3493  0.2879
38365W        W81303   9.966   7.502  24.633 -0.1220 -0.0859  0.0407
38366W        W81304   7.372   5.355  25.876 -0.4331  0.2058 -0.1587
38367W        W81305   8.573   4.415  24.826 -0.2391  0.1471  0.0693
38368W        W81306   7.072   3.763  27.949 -0.4234 -0.0423 -0.0319
38369W        W81307   7.118   5.296  24.993  0.0973  0.2397 -0.2089
38370W        W81308  10.289   5.476  26.722 -0.0597  0.4135 -0.1376
38371W        W81309   7.665   4.377  26.011 -0.0245  0.3200 -0.0414
38372W        W81310   9.718   4.675  25.800 -0.0272  0.1748  0.0133
38373W        W81311   8.587   4.891  24.195  0.2193  0.1550 -0.0526
38374W        W81312   8.638   6.150  23.616  0.0393  0.0868 -0.1417
38375W        W81313  11.949   4.049  27.896 -0.5089 -0.2059  0.2445
38376W        W81314   9.223   7.651  23.150 -0.0563  0.0387  0.2445
38377W        W81315  11.897   7.069  27.319  0.0207  0.0544  0.2387
38378W        W81316  10.998   7.494  25.086  0.0601  0.2396  0.2337
38379W        W81317   8.340   5.084  27.406  0.1049 -0.1698  0.0514
38380W        W81318   8.536   3.978  24.251  0.0573 -0.0816  0.2075
38381W        W81319   8.686   8.083  25.495 -0.3420  0.0756  0.2912
38382W        W81320   6.983   7.338  23.691  0.0855 -0.0938 -0.0873
38383W        W81321   9.485   5.712  23.789 -0.1717 -0.0851  0.0255
38384W        W81322   9.548   6.233  25.616  0.1457  0.2379  0.1626
38385W        W81323   9.048   5.303  25.220  0.1873 -0.2184 -0.0897
38386W        W81324   7.935   6.071  25.425 -0.4231  0.0603  0.1895
38387W        W81325   9.929   3.954  24.165 -0.0340 -0.0088  0.1413
38388W        W81326  11.448   6.552  26.230 -0.1789  0.0772 -0.0472
38389W        W81327   8.443   4.298  23.337  0.1170  0.0813 -0.3687
38390W        W81328   8.955   4.654  22.721 -0.0323 -0.1359  0.1171
38391W        W81329  10.753   6.857  24.313 -0.2111 -0.0420 -0.0039
38392W        W81330   7.123   6.921  23.137 -0.1671 -0.0022  0.2759
38393W        W81331   7.494   4.880  23.762 -0.2260 -0.1503 -0.0627
38394W        W81332   8.389   6.894  25.508 -0.0780 -0.0141 -0.1447
38395W        W81333  10.077   3.710  25.553  0.2222 -0.0366  0.1984
38396W        W81334   7.939   6.171  25.967  0.0176 -0.0896 -0.2321
38397W        W81335   9.012   5.249  26.871  0.1022 -0.0935  0.1371
38398W        W81336   7.439   4.482  23.400 -0.1122  0.1190  0.3319
38399W        W81337   8.697   6.733  25.880  0.3452  0.0541  0.2821
38400W        W81338   9.260   4.517  24.575  0.3292 -0.0580  0.0340
38401W        W81339  10.044   5.019  23.541  0.2376  0.1480 -0.1377
38402W        W81340  10.483   4.124  26.623  0.0231 -0.3112 -0.2550
38403W        W81341   9.487   5.636  24.852  0.0019  0.0232  0.2413
38404W        W81342  10.455   5.242  23.417 -0.4564 -0.0273 -0.1065
38405W        W81343   9.608   3.545  24.144 -0.1138  0.2177  0.0422
38406W        W81344   7.820   6.379  26.434  0.1703 -0.2611 -0.0432
38407W        W81345   8.507   7.521  25.344  0.0982  0.2769 -0.1352
38408W        W81346   9.566   5.367  26.598 -0.0315 -0.0012  0.4573
38409W        W81347   9.716   4.503  23.629 -0.3280 -0.0950 -0.4900
38410W        W81348  10.677   7.010  25.728 -0.0370  0.1661  0.1084
38411W        W81349   8.598   6.819  26.471  0.0192 -0.3301 -0.1398
38412W        W81350   8.608   6.114  27.595  0.0538  0.2707 -0.0411
38413W        W81351   9.740   6.863  25.800 -0.0300 -0.0072 -0.1726
38414W        W81352   8.844   4.230  27.370  0.0634 -0.0703 -0.0847
38415W        W81353   9.054   5.774  24.439 -0.1084 -0.0685 -0.0354
38416W        W81354  11.422   3.939  26.474 -0.0970 -0.2749 -0.0107
38417W        W81355   7.279   7.525  22.738 -0.1122  0.0076 -0.1672
38418W        W81356   9.705   3.426  26.999  0.1120 -0.0038  0.0352
38419W        W81357  10.902   3.989  26.364 -0.0752  0.0153  0.3251
38420W        W81358   9.044   4.374  26.283 -0.1003 -0.0223  0.1776
38421W        W81359  11.533   4.045  28.734  0.2129 -0.0611 -0.2993
38422W        W81360  10.252   5.349  27.278  0.2416 -0.2471  0.3071
38423W        W81361   9.637   4.867  24.782  0.0914  0.0759 -0.3383
38424W        W81362   9.189   5.194  21.501  0.0683 -0.2149  0.0245
38425W        W81363  10.307   7.092  26.961  0.2552 -0.1999  0.2418
38426W        W81364   8.887   5.736  26.015  0.0448 -0.1587 -0.1308
38427W        W81365   8.101   7.363  26.363 -0.2548  0.3348  0.0650
38428W        W81366  10.216   6.104  26.679  0.3008 -0.1168 -0.2080
38429W        W81367   9.158   7.052  24.977  0.3435  0.0536  0.1266
38430W        W81368   9.068   4.266  27.877 -0.0608 -0.0831 -0.0056
38431W        W81369   9.119   3.117  24.586 -0.2474 -0.0833  0.0120
38432W        W81370   7.541   7.086  22.912  0.0129 -0.1460  0.0461
38433W        W81371   7.887   6.445  21.743  0.0405 -0.0047  0.0152
38434W        W81372   7.986   4.272  25.647  0.1132  0.0826 -0.0406
38435W        W81373  10.136   8.025  26.990 -0.0469 -0.0297  0.0828
38436W        W81374   8.217   5.432  23.553 -0.0321 -0.1141  0.4746
38437W        W81375  10.002   5.228  25.840 -0.0644 -0.0037  0.0863
38438W        W81376   7.775   8.392  24.421  0.0636 -0.0151  0.0428
38439W        W81377   9.259   3.530  26.231  0.2146  0.1492 -0.2107
38440W        W81378   8.135   7.366  24.482 -0.1735  0.1313  0.1596
38441W        W81379   9.251   4.542  23.890 -0.2314  0.1115  0.0454
38442W        W81380   8.765   4.484  23.653 -0.0211 -0.1722  0.1845
38443W        W81381  10.499   3.253  24.669 -0.1524  0.3173  0.0917
38444W        W81382   9.772   6.539  23.317  0.0200 -0.3251  0.0254
38445W        W81383   7.688   3.826  25.708 -0.0935 -0.1372 -0.0770
38446W        W81384   9.352   3.169  25.068 -0.0581  0.0578 -0.0088
38447W        W81385   7.299   6.819  25.178 -0.1074 -0.0917 -0.0074
38448W        W81386   9.257   4.766  25.553 -0.2646 -0.0440 -0.0410
38449W        W81387   9.571   4.027  23.408 -0.1507  0.1675 -0.0375
38450W        W81388  10.484   5.585  25.978  0.0708 -0.1852 -0.1064
38451W        W81389   8.572   4.784  27.824  0.0525  0.1065  0.0663
38452W        W81390   7.748   4.203  24.408  0.1147  0.1181  0.0380
38453W        W81391  10.664   4.423  27.151  0.0675 -0.0025  0.1266
38454W        W81392   8.156   5.560  24.724  0.1309  0.1041  0.1343
38455W        W81393   7.765   6.267  23.407  0.0512 -0.0546 -0.1089
38456W        W81394   8.619   6.288  26.638 -0.1510 -0.0441 -0.1235
38457W        W81395   9.256   3.236  24.051  0.0767 -0.1150  0.2417
38458W        W81396   8.473   6.139  24.916 -0.0431  0.1893 -0.1785
38459W        W81397   7.805   4.961  27.544 -0.2813  0.0283  0.1828
38460W        W81398  10.666   6.223  26.855 -0.1013  0.0533  0.1176
38461W        W81399   8.217   4.799  25.357  0.0606 -0.2953 -0.0263
38462W        W81400   9.549   5.695  24.299  0.0536  0.2217  0.0480
38463W        W81401   9.324   5.870  25.333 -0.1431 -0.0021 -0.0800
38464W        W81402  11.511   6.726  26.804 -0.1837 -0.1935  0.1580
38465W        W81403   8.705   4.885  26.429 -0.1078  0.0145 -0.1611
38466W        W81404   8.200   6.556  26.667  0.0592 -0.0278 -0.0918
38467W        W81405   9.775   3.700  25.928  0.1742 -0.0929 -0.1888
38468W        W81406  11.237   8.087  25.064 -0.2178  0.2211 -0.0048
38469W        W81407  10.968   5.987  27.894  0.0205 -0.1203  0.2253
38470W        W81408   6.070   5.786  23.614  0.1167 -0.1919  0.3908
38471W        W81409   7.942   5.988  24.937  0.3062 -0.2567  0.1007
38472W        W81410   9.022   6.457  23.748 -0.1824  0.0649  0.1358
38473W        W81411   9.281   3.865  25.820  0.0505 -0.4867 -0.0648
38474W        W81412   7.335   6.692  25.668 -0.1226  0.2235 -0.4457
38475W        W81413   9.047   4.947  23.200 -0.0450  0.1926  0.0713
38476W        W81414   7.494   6.357  25.250 -0.1229 -0.2203  0.1393
38477W        W81415  10.623   3.397  23.134  0.3772 -0.4002  0.0448
38478W        W81416   8.664   6.720  24.175  0.0851 -0.1736 -0.3371
38479W        W81417   9.626   3.902  26.792 -0.3471  0.3890 -0.2649
38480W        W81418  11.890   4.667  26.773  0.1001 -0.1261  0.1186
38481W        W81419   9.576   6.685  25.312 -0.1444 -0.0637  0.1623
38482W        W81420  10.291   3.952  27.035 -0.4070 -0.1701  0.2271
38483W        W81421   7.623   3.779  28.016 -0.0315 -0.0915  0.0134
38484W        W81422   9.087   7.812  25.374 -0.0222  0.1611 -0.0517
38485W        W81423   9.452   5.811  26.859 -0.2006  0.2546 -0.0616
38486W        W81424  10.330   7.030  27.895 -0.0105  0.2459 -0.2375
38487W        W81425   8.418   6.086  25.841 -0.2186  0.3398 -0.0390
38488W        W81426   9.033   4.936  24.388 -0.2403  0.0733  0.1529
38489W        W81427   8.519   3.985  23.709 -0.0908 -0.0282 -0.0796
38490W        W81428   8.674   5.364  24.337 -0.3342  0.1670  0.2708
38491W        W81429   9.686   4.941  25.298  0.1110 -0.3064 -0.5153
38492W        W81430   9.863   7.360  23.742  0.0503 -0.0835  0.3098
38493W        W81431  11.476   5.608  25.486 -0.1224  0.3522 -0.2101
38494W        W81432   8.754   4.502  24.421 -0.1201  0.0721  0.0893
38495W        W81433   9.259   4.803  26.075 -0.1840  0.0708 -0.2266
38496W        W81434   7.827   4.668  24.161 -0.0978  0.0964  0.2945
38497W        W81435   7.931   6.848  24.365  0.0683 -0.2120  0.0088
38498W        W81436   8.049   5.672  26.650  0.2856 -0.0180 -0.0396
38499W        W81437   9.246   5.556  25.688 -0.1552 -0.0142 -0.0756
38500W        W81438  10.365   5.066  26.402  0.0650  0.0827  0.1470
38501W        W81439  10.214   3.352  25.152  0.0178  0.3110 -0.0553
38502W        W81440  11.318   5.726  27.662 -0.1161  0.0635 -0.0017
38503W        W81441   9.676   4.415  26.553 -0.1313 -0.0094  0.3751
38504W        W81442   8.553   5.005  26.945 -0.0688  0.1351  0.0099
38505W        W81443  11.242   7.149  26.104  0.0942  0.1285  0.0317
38506W        W81444   9.876   5.966  23.925 -0.5537 -0.0802 -0.1155
38507W        W81445  12.470   3.791  26.256 -0.0200 -0.0787 -0.0375
38508W        W81446  10.293   5.100  24.998  0.1381  0.0365  0.2756
38509W        W81447   7.949   5.840  23.183 -0.0174 -0.0227 -0.1732
38510W        W81448   8.766   4.906  25.414  0.0716  0.1600  0.0989
38511W        W81449  11.550   4.999  26.996 -0.0091  0.1910  0.0405
38512W        W81450   9.096   4.475  22.247  0.1533 -0.1157 -0.1302
38513W        W81451   9.583   3.567  25.460  0.3054 -0.3826  0.0538
38514W        W81452  10.380   7.790  24.437 -0.3330  0.0322 -0.3288
38515W        W81453   8.849   6.858  25.361 -0.0806  0.1512 -0.0007
38516W        W81454   8.859   3.351  24.967  0.0148 -0.4554 -0.0979
38517W        W81455   8.876   4.092  25.973 -0.0916  0.2783  0.2595
38518W        W81456   8.181   6.118  27.320 -0.3609 -0.0738  0.1562
38519W        W81457   9.293   3.747  23.161 -0.2511 -0.1294 -0.0724
38520W        W81458   7.701   5.034  22.641  0.2586  0.1169 -0.1299
38521W        W81459  10.958   4.358  26.051  0.0790 -0.1088  0.2352
38522W        W81460  10.756   6.195  27.411 -0.0636  0.2307  0.2367
38523W        W81461   8.299   1.560  22.866 -0.1006  0.1339 -0.3177
38524W        W81462  11.970   5.286  27.117 -0.2231 -0.2141  0.1499
38525W        W81463   9.369   7.271  22.777  0.1053  0.1490  0.1381
38526W        W81464   9.462   3.970  24.465 -0.0156 -0.2748  0.0550
38527W        W81465   7.913   6.577  27.207  0.0789  0.0983  0.0171
38528W        W81466   6.828   5.537  25.379 -0.0290 -0.1031  0.2978
38529W        W81467   8.442   7.555  22.651  0.1658  0.0593  0.0710
38530W        W81468   9.680   4.831  26.862  0.1594  0.0988 -0.1162
38531W        W81469   9.784   5.738  25.838 -0.1221  0.1424  0.0275
38532W        W81470  10.233   4.826  27.378  0.3121 -0.1000  0.3754
38533W        W81471  11.216   6.373  27.658  0.2848  0.0561  0.2329
38534W        W81472   8.177   6.034  26.394 -0.2121 -0.1523  0.1837
38535W        W81473   8.138   6.468  25.202  0.0604 -0.2051  0.1948
38536W        W81474   9.815   5.404  27.714 -0.2477 -0.4129  0.0400
38537W        W81475   9.405   5.260  24.533 -0.2389 -0.0715 -0.2498
38538W        W81476   8.342   7.034  26.022 -0.2028  0.3415  0.0227
38539W        W81477   7.438   5.602  24.121  0.0646  0.2011  0.1040
38540W        W81478   8.948   5.338  26.261 -0.1320 -0.2321 -0.0080
38541W        W81479   8.770   6.224  24.148  0.0768  0.0906  0.1005
38542W        W81480   8.083   3.655  24.203  0.1534  0.1525  0.0062
38543W        W81481   9.282   7.849  23.958  0.3161  0.0913  0.0653
38544W        W81482   8.444   5.383  27.788 -0.0911  0.3237 -0.0829
38545W        W81483   7.432   5.634  27.556  0.0348  0.0173 -0.0869
38546W        W81484   7.871   7.790  24.533 -0.2615  0.0720  0.0097
38547W        W81485   9.161   6.591  24.331 -0.0403 -0.1058  0.0215
38548W        W81486   8.117   5.990  23.668  0.6314 -0.1737  0.4659
38549W        W81487   9.070   5.152  25.842  0.1684  0.1503 -0.0009
38550W        W81488   8.305   4.462  23.979  0.3647  0.1794  0.2611
38551W        W81489   8.955   7.123  24.510  0.0004 -0.0371  0.1234
38552W        W81490   7.634   6.219  22.093 -0.0411  0.1054 -0.2576
38553W        W81491  10.462   7.238  24.298  0.2560 -0.0766 -0.0704
38554W        W81492   7.557   7.227  25.422 -0.3393 -0.0694  0.1495
38555W        W81493  12.733   5.539  28.432 -0.0617 -0.0425 -0.2291
38556W        W81494  10.836   5.048  24.095  0.1159  0.1778  0.2331
38557W        W81495  11.024   4.168  25.515 -0.0803 -0.2271  0.1259
38558W        W81496  11.695   3.468  24.638  0.0349  0.1998 -0.1347
38559W        W81497  10.113   7.517  27.115 -0.1746 -0.0499 -0.3902
38560W        W81498   8.471   4.276  25.833 -0.4121  0.0923 -0.1157
38561W        W81499  11.573   2.968  24.353  0.1280 -0.2387  0.1551
38562W        W81500  10.110   4.467  26.977 -0.0434  0.2583  0.2825
38563W        W81501  10.132   2.663  27.319  0.1948 -0.0396  0.1204
38564W        W81502   7.699   8.230  26.424  0.4641  0.2393 -0.1867
38565W        W81503  10.755   6.673  24.884 -0.0737  0.2310  0.1742
38566W        W81504   8.199   3.633  23.667  0.2807  0.2191 -0.2789
38567W        W81505   7.975   5.131  23.172  0.2445  0.2430 -0.1140
38568W        W81506  11.536   3.420  27.205 -0.0599  0.0159 -0.2989
38569W        W81507   8.923   6.969  23.888  0.2058  0.4350 -0.2118
38570W        W81508   9.959   5.798  26.947 -0.3861  0.0461  0.0760
38571W        W81509   8.193   6.924  25.036  0.2427 -0.0805  0.0964
38572W        W81510   7.875   7.823  26.193  0.5055  0.1417  0.0126
38573W        W81511   9.020   7.549  24.919  0.1113 -0.0021  0.1317
38574W        W81512   7.495   3.849  23.759  0.3847 -0.0672 -0.2361
38575W        W81513  11.078   5.373  25.270  0.2747 -0.0387  0.2400
38576W        W81514   8.386   5.194  26.531  0.3002  0.0891 -0.0741
38577W        W81515   8.783   4.413  25.274 -0.1953 -0.2653 -0.3511
38578W        W81516   8.587   3.570  23.983 -0.2680  0.0614 -0.1714
38579W        W81517  10.877   3.423  25.027  0.5077 -0.2845 -0.0083
38580W        W81518   8.993   4.870  24.906  0.0847 -0.3265  0.2678
38581W        W81519   7.495   5.271  27.255 -0.0044  0.1579 -0.0642
38582W        W81520   9.429   4.506  25.109 -0.1752 -0.2290  0.1840
38583W        W81521  11.741   6.279  26.909 -0.4596 -0.3043 -0.1811
38584W        W81522   8.486   5.853  23.964  0.0151 -0.1283 -0.1343
38585W        W81523   9.023   5.706  27.091 -0.0060 -0.0015  0.3127
38586W        W81524   8.156   3.987  24.753  0.0692  0.2455  0.1201
38587W        W81525   9.068   5.474  23.522  0.1077  0.1154 -0.2189
38588W        W81526   8.909   5.864  24.930 -0.1382 -0.0651  0.4039
38589W        W81527   8.698   3.853  24.911  0.1083  0.3122 -0.4290
38590W        W81528   9.142   5.734  26.470  0.1617 -0.3105  0.0908
38591W        W81529   6.724   4.122  26.127  0.1489  0.0381 -0.0401
38592W        W81530  11.172   6.743  22.886 -0.0573 -0.3757  0.1816
38593W        W81531  12.159   3.519  26.522  0.1010 -0.0856  0.2270
38594W        W81532   8.224   7.684  23.072  0.0392 -0.2162  0.0372
38595W        W81533   9.452   5.463  26.115 -0.1109 -0.2069  0.2847
38596W        W81534  11.189   6.880  25.018 -0.1280  0.0871 -0.1578
38597W        W81535   7.751   5.551  23.615  0.0195 -0.0960 -0.0941
38598W        W81536   9.560   6.806  26.293 -0.0973  0.3831  0.2686
38599W        W81537  11.002   6.554  25.387  0.0211  0.0635  0.3017
38600W        W81538  10.726   2.739  24.620 -0.2947 -0.0835  0.0879
38601W        W81539   9.376   4.342  25.952 -0.1019 -0.1455  0.1008
38602W        W81540   9.546   7.638  22.506  0.0615 -0.1348 -0.1572
38603W        W81541  10.058   5.303  25.365  0.2778  0.1643 -0.2181
38604W        W81542  11.100   5.260  25.730 -0.0910  0.1557 -0.0780
38605W        W81543   8.708   7.572  23.099 -0.1097  0.1393  0.1852
38606W        W81544  10.415   3.520  27.189  0.1076 -0.3733 -0.2608
38607W        W81545  10.105   6.531  26.342 -0.1866 -0.0283  0.2313
38608W        W81546   9.136   8.399  28.221 -0.5210  0.1592 -0.0609
38609W        W81547   8.242   6.311  23.334 -0.0748  0.0484 -0.0586
38610W        W81548   9.254   4.896  27.122 -0.2085  0.1653  0.1243
38611W        W81549   9.313   6.449  26.016  0.1685 -0.3015 -0.1885
38612W        W81550   8.477   7.544  23.610  0.3339  0.2976  0.0935
38613W        W81551   9.304   7.951  25.822 -0.1707  0.1405 -0.0961
38614W        W81552   8.825   5.955  25.561 -0.0503  0.0799 -0.1228
38615W        W81553  10.462   6.629  25.462  0.0604  0.2759  0.1058
38616W        W81554   8.533   5.003  24.688 -0.0424 -0.1464 -0.1635
38617W        W81555  10.579   5.176  25.460 -0.1020 -0.1462 -0.2596
38618W        W81556  11.506   3.094  24.930 -0.1828  0.0467 -0.1582
38619W        W81557   9.539   5.435  25.302  0.2206  0.0692  0.1985
38620W        W81558   8.662   4.276  22.010  0.0067  0.0502  0.1809
38621W        W81559   8.479   4.762  23.144  0.1376 -0.1091 -0.0208
38622W        W81560   8.569   6.343  25.435  0.1986 -0.1723  0.1385
38623W        W81561   7.420   3.632  27.503  0.1842 -0.3170  0.2247
38624W        W81562   7.413   4.642  27.646 -0.0802  0.0827  0.1628
38625W        W81563   7.290   5.993  24.371  0.1875 -0.1430 -0.2983
38626W        W81564   8.060   4.377  25.071  0.2415  0.1732 -0.0068
38627W        W81565  10.121   7.005  25.296  0.0101 -0.0622  0.1974
38628W        W81566   7.695   5.629  26.242 -0.2522  0.0847 -0.0295
38629W        W81567   6.641   4.259  25.659 -0.4130 -0.1525  0.1251
38630W        W81568   9.117   6.490  25.183 -0.1472  0.2982 -0.2359
38631W        W81569   9.267   6.830  25.609  0.0954  0.1162  0.0379
38632W        W81570   7.805   2.517  24.731  0.1591 -0.3871 -0.0702
38633W        W81571  12.163   7.495  28.178  0.2392 -0.1099  0.1605
38634W        W81572   7.862   5.460  22.716 -0.1581 -0.1924 -0.1934
38635W        W81573   9.584   5.028  27.878  0.2311 -0.3001  0.1395
38636W        W81574   9.874   3.859  27.344  0.2308 -0.0064  0.1630
38637W        W81575   7.009   2.553  24.145 -0.1868 -0.2284  0.1671
38638W        W81576   7.882   4.406  27.415 -0.0932 -0.1953 -0.2976
38639W        W81577  10.205   6.971  25.807  0.3173  0.0817  0.0128
38640W        W81578   9.563   7.621  27.029  0.0422  0.2071 -0.0785
38641W        W81579   9.253   4.751  26.556  0.2112  0.0361  0.1721
38642W        W81580   8.493   7.941  28.575  0.0832 -0.0015  0.1864
38643W        W81581   7.044   4.512  26.813 -0.2791 -0.0703 -0.1342
38644W        W81582   8.953   5.375  24.718  0.1977 -0.0515 -0.1943
38645W        W81583   9.463   6.249  26.562 -0.2300 -0.3055  0.2061
38646W        W81584  10.465   5.867  24.549 -0.2025  0.0927 -0.2759
38647W        W81585   9.910   3.058  24.873 -0.1451  0.0947 -0.1323
38648W        W81586   8.964   4.170  24.002 -0.0189  0.0791 -0.2177
38649W        W81587   7.559   2.635  27.019  0.1362 -0.1997  0.1162
38650W        W81588   8.854   6.807  27.528 -0.3035 -0.2503  0.0984
38651W        W81589  10.313   6.064  26.073  0.0664 -0.0644  0.1995
38652W        W81590   8.582   3.531  25.389  0.2385  0.0046 -0.1567
38653W        W81591   9.755   4.287  24.726 -0.4322  0.0350  0.2996
38654W        W81592   9.438   6.869  23.477  0.1700  0.0828  0.2471
38655W        W81593   8.208   5.316  25.543 -0.0089  0.1391 -0.0755
38656W        W81594   7.989   5.588  24.037  0.1338 -0.2041 -0.0034
38657W        W81595   9.702   5.283  27.110 -0.0361 -0.0302 -0.2570
38658W        W81596   9.561   5.135  25.739  0.0989  0.0725  0.2467
38659W        W81597  10.693   6.758  26.901 -0.0676  0.1109  0.2137
38660W        W81598   8.312   3.059  24.026 -0.2414 -0.1571  0.4143
38661W        W81599  10.766   5.719  22.663  0.0949  0.1454 -0.0098
38662W        W81600  10.022   5.491  26.265 -0.0855 -0.0487  0.0350
38663W        W81601   9.565   7.157  27.702  0.2512 -0.0909  0.0318
38664W        W81602   9.960   7.422  25.749 -0.1470  0.3210 -0.3186
38665W        W81603  11.029   5.698  25.972  0.0633  0.2288 -0.0992
38666W        W81604   7.769   4.883  25.095 -0.1156  0.1920  0.1569
38667W        W81605   7.442   5.929  23.624 -0.2115 -0.0572  0.0770
38668W        W81606   8.928   5.014  23.796  0.0278 -0.2517 -0.1260
38669W        W81607  11.424   4.326  26.854  0.2207 -0.4304  0.2228
38670W        W81608   8.586   3.545  24.492 -0.0977  0.0771  0.0149
38671W        W81609  10.648   3.982  23.481 -0.1702 -0.0892 -0.0104
38672W        W81610   8.689   7.256  26.293  0.2014  0.1493  0.1553
38673W        W81611  10.488   4.258  26.110 -0.1716  0.1688  0.0075
38674W        W81612   9.761   5.902  29.564 -0.1292 -0.1881 -0.0836
38675W        W81613   9.548   5.780  27.426 -0.0167  0.1446  0.0425
38676W        W81614  11.100   4.741  27.096 -0.0282  0.2290 -0.0402
38677W        W81615  10.560   6.045  28.160  0.3306  0.3803  0.2392
38678W        W81616   6.415   3.796  30.336  0.0172 -0.1337 -0.2645
38679W        W81617  10.207   5.809  29.835  0.2632  0.0802  0.1111
38680W        W81618   8.343   4.070  30.254 -0.0355  0.0448  0.2303
38681W        W81619  10.373   7.676  29.724 -0.1257  0.2303 -0.1685
38682W        W81620   9.588   6.834  29.970 -0.0334  0.0559 -0.0019
38683W        W81621  10.240   6.671  26.849 -0.0495  0.3094 -0.2023
38684W        W81622  10.016   5.053  29.160 -0.3555 -0.0909  0.0009
38685W        W81623   8.396   6.464  29.537 -0.0174  0.1559 -0.0181
38686W        W81624  10.212   3.850  26.124  0.1717 -0.0666  0.1148
38687W        W81625   7.409   4.221  28.769 -0.0249  0.3163 -0.1976
38688W        W81626  10.670   5.591  29.796 -0.0262  0.2951 -0.1633
38689W        W81627   7.073   4.983  27.172  0.0275 -0.1152  0.1147
38690W        W81628   8.683   6.041  29.441 -0.2268 -0.0361  0.0842
38691W        W81629   8.791   4.949  28.733 -0.1101  0.0977  0.0369
38692W        W81630   8.993   6.609  28.354 -0.0070 -0.3509  0.2127
38693W        W81631   8.663   3.537  29.600  0.2053 -0.0820 -0.1302
38694W        W81632   9.468   5.348   0.521 -0.1599  0.0332  0.4038
38695W        W81633  10.418   6.543  28.073  0.0165  0.0345  0.0564
38696W        W81634   8.790   4.606  25.958  0.0287  0.0426  0.4233
38697W        W81635   6.702   4.476  29.492 -0.0868  0.1344 -0.2765
38698W        W81636   9.906   5.419  29.807  0.0892 -0.3219  0.0016
38699W        W81637  10.475   3.851  28.991  0.0637 -0.2143 -0.0555
38700W        W81638  10.624   5.621  28.449 -0.2076 -0.0680 -0.0958
38701W        W81639   8.740   7.701  28.902 -0.2708  0.0462 -0.1842
38702W        W81640   8.396   6.949  30.065 -0.0625  0.0870 -0.1477
38703W        W81641  10.261   4.741  31.806 -0.2775  0.1320  0.2898
38704W        W81642   8.038   7.272  29.217  0.3020  0.0474  0.0199
38705W        W81643   8.453   7.157  28.925  0.1127 -0.0909  0.2096
38706W        W81644   9.149   7.163  27.330 -0.1844 -0.1772 -0.0291
38707W        W81645  10.795   6.772  27.793 -0.2589  0.3003  0.2082
38708W        W81646  11.057   7.417  30.545  0.2188  0.1033 -0.1547
38709W        W81647   8.521   7.455  29.333  0.1471  0.1629 -0.0414
38710W        W81648   7.569   6.478  27.708  0.0867 -0.0992 -0.1835
38711W        W81649  10.104   7.445  31.045 -0.0015  0.0583  0.0210
38712W        W81650   7.896   8.437  30.291 -0.0298  0.1938  0.1347
38713W        W81651  10.484   4.802  29.850 -0.0456 -0.1360  0.1239
38714W        W81652  10.224   5.611  29.086 -0.0395 -0.0535  0.2464
38715W        W81653   9.756   5.894  27.966 -0.2935 -0.0860 -0.0066
38716W        W81654   9.376   6.383  29.730  0.1004 -0.1286  0.1578
38717W        W81655   8.843   5.660  29.800  0.3124  0.0474 -0.1321
38718W        W81656   8.002   5.747  28.709 -0.0318 -0.0560 -0.1581
38719W        W81657  12.299   4.694  31.082  0.0536 -0.2221 -0.1465
38720W        W81658   7.937   5.152  28.916 -0.2339  0.0685  0.2961
38721W        W81659  10.651   5.066  27.608 -0.3299 -0.3456  0.0871
38722W        W81660   7.463   4.121  27.620 -0.4083  0.0369 -0.1120
38723W        W81661  10.004   4.044  26.541  0.1523  0.2508  0.1187
38724W        W81662   8.461   3.860  28.339  0.0716 -0.2003  0.2431
38725W        W81663   7.202   7.847  29.184  0.0558  0.4318 -0.1475
38726W        W81664   8.489   5.101  30.244  0.0333 -0.0775  0.2851
38727W        W81665  12.499   6.233  29.812  0.0446  0.0282 -0.1986
38728W        W81666   8.387   4.141  27.597 -0.1302 -0.3499 -0.3901
38729W        W81667   9.864   3.908  29.026 -0.2024  0.1086  0.2429
38730W        W81668   9.243   7.660  28.942 -0.1255  0.2241 -0.1898
38731W        W81669   8.855   4.628  28.282  0.2398  0.3179 -0.0416
38732W        W81670  10.088   5.176  28.184 -0.2691  0.0178  0.3321
38733W        W81671  10.673   7.171  27.290 -0.0553 -0.1251 -0.0917
38734W        W81672   7.688   6.054  27.470  0.1099 -0.0679 -0.2495
38735W        W81673   9.192   5.009  28.340 -0.0303 -0.1295  0.0091
38736W        W81674   6.395   5.692  31.944  0.1386  0.3477  0.1443
38737W        W81675   7.507   4.306  29.781  0.3516 -0.1787  0.1597
38738W        W81676   9.314   3.851  28.094  0.3417 -0.1625 -0.1753
38739W        W81677  11.696   7.468  31.809  0.2602  0.0492 -0.0273
38740W        W81678   7.860   6.772  30.830 -0.0622  0.0746 -0.2355
38741W        W81679  10.821   2.994  28.201  0.1083  0.3831 -0.1693
38742W        W81680   7.539   6.426  29.339  0.0602  0.0366 -0.1016
38743W        W81681  10.192   6.824  29.594  0.3252  0.1207 -0.1592
38744W        W81682  10.209   6.224  27.248 -0.3966 -0.1902  0.1221
38745W        W81683  10.197   3.250  30.034 -0.0966 -0.2950  0.1857
38746W        W81684   9.720   4.060  28.210  0.0291  0.0219 -0.1180
38747W        W81685   7.416   6.102  26.724 -0.2700 -0.0620 -0.2372
38748W        W81686   9.559   6.429  27.963  0.3119 -0.0949 -0.2511
38749W        W81687  13.235   6.537  29.075 -0.2382 -0.3896  0.0184
38750W        W81688  11.046   5.923  26.736 -0.2103 -0.0607 -0.1439
38751W        W81689   7.749   7.710  29.033  0.1710  0.0333 -0.0194
38752W        W81690   9.657   4.122  30.496 -0.0101  0.0524  0.2496
38753W        W81691   8.992   7.495  30.415 -0.0113  0.3402  0.1444
38754W        W81692   8.445   6.918  27.847  0.1672 -0.0901  0.2707
38755W        W81693   7.849   5.605  30.189  0.0529 -0.1697 -0.1100
38756W        W81694   9.266   6.037  27.781  0.3114 -0.0096 -0.1602
38757W        W81695   7.787   2.502  31.245 -0.0120  0.3539 -0.0852
38758W        W81696   9.066   6.986  29.839 -0.1125  0.0550  0.1247
38759W        W81697  10.756   3.775  28.020  0.1439 -0.0770  0.0892
38760W        W81698   8.067   3.920  30.860 -0.2588 -0.1852 -0.0526
38761W        W81699   9.729   4.365  28.674 -0.2112 -0.0267 -0.2781
38762W        W81700   7.696   6.460  28.799  0.2040  0.2218  0.1838
38763W        W81701   9.957   6.042  29.115 -0.2009  0.1375  0.0395
38764W        W81702  11.774   5.791  28.383 -0.1440  0.0817  0.4236
38765W        W81703  10.947   6.638  27.350  0.2794  0.2465 -0.0255
38766W        W81704   6.377   4.328  29.856 -0.3515  0.0800  0.0803
38767W        W81705   7.459   5.526  28.432  0.2186 -0.0334 -0.3043
38768W        W81706   9.507   3.706  30.668 -0.0131 -0.1238  0.4477
38769W        W81707   8.938   5.166  29.800  0.0248  0.2222  0.0193
38770W        W81708  11.196   5.651  29.660  0.1416  0.2593  0.2583
38771W        W81709   7.014   4.152  28.385  0.0778  0.1752  0.1561
38772W        W81710  11.151   3.687  27.592  0.0184  0.3183 -0.0554
38773W        W81711   8.998   6.022  29.084  0.0116  0.0589  0.1688
38774W        W81712   6.821   5.899  29.064  0.0129 -0.3422  0.2188
38775W        W81713  10.970   4.073  30.892  0.1903  0.0310  0.2098
38776W        W81714  10.094   8.490  29.949  0.2106  0.3030  0.1379
38777W        W81715  11.875   7.238  31.381  0.0727 -0.1732 -0.0910
38778W        W81716  10.907   8.370  29.944  0.1460  0.1496  0.0956
38779W        W81717   8.925   4.421  31.118 -0.1108  0.4074 -0.0410
38780W        W81718   7.919   4.046  29.449 -0.0437  0.0783  0.0856
38781W        W81719   7.214   7.651  29.699 -0.3046  0.1062 -0.0516
38782W        W81720   9.819   4.633  29.080  0.3506  0.1291 -0.1833
38783W        W81721   9.119   4.773  27.897  0.0038  0.0061 -0.0698
38784W        W81722  11.058   6.996  30.265  0.0195  0.1010  0.3921
38785W        W81723   9.250   6.153  28.269  0.0636  0.2304 -0.2477
38786W        W81724   8.244   6.014  30.420  0.0614 -0.0349  0.0039
38787W        W81725  10.700   4.368  30.259 -0.1027  0.0650  0.2702
38788W        W81726  11.306   5.402  28.572  0.0471  0.2748 -0.0443
38789W        W81727   9.316   4.317  30.787 -0.1369  0.1215  0.1631
38790W        W81728   8.096   3.546  26.638  0.0134  0.0969 -0.1982
38791W        W81729   9.760   6.989  28.707  0.1643 -0.0391 -0.0297
38792W        W81730   7.470   6.984  28.017 -0.0369 -0.0886  0.0076
38793W        W81731   8.506   5.639  28.517 -0.1276 -0.4486 -0.1193
38794W        W81732   9.678   6.167  28.698  0.1772 -0.0944  0.0199
38795W        W81733  10.626   3.472  26.190 -0.2432 -0.1073  0.1116
38796W        W81734   6.541   6.164   0.166 -0.1939 -0.1200 -0.1105
38797W        W81735   9.711   4.656  30.023 -0.1681 -0.2781 -0.1231
38798W        W81736   7.981   5.578  28.188 -0.1257  0.1608  0.2035
38799W        W81737   7.803   6.372  30.471  0.0391  0.0362 -0.1159
38800W        W81738  10.034   4.435  28.209  0.1826  0.2235  0.1652
38801W        W81739  11.207   4.344  27.362 -0.1972 -0.1937 -0.2727
38802W        W81740   9.757   7.542  29.021 -0.0806  0.2886  0.0556
38803W        W81741  10.469   5.840  27.107 -0.2241 -0.0410  0.3244
38804W        W81742   8.593   4.273  28.069  0.0503 -0.1074  0.1177
38805W        W81743  10.499   3.455  25.723 -0.0165 -0.1458 -0.0095
38806W        W81744   8.505   4.847  29.755  0.0347 -0.0608  0.3022
38807W        W81745   9.344   5.488  27.848  0.0036 -0.3517  0.2477
38808W        W81746   9.793   6.508  29.425  0.3295  0.0098 -0.1132
38809W        W81747   9.705   4.294  27.139  0.2547 -0.0527 -0.1969
38810W        W81748  11.237   7.635  28.882 -0.0927 -0.2888 -0.1665
38811W        W81749   7.393   6.758  30.561 -0.1056  0.0428 -0.3144
38812W        W81750   9.322   6.694  30.865  0.3039 -0.3288 -0.0102
38813W        W81751  11.031   4.959  27.948 -0.1623 -0.0368 -0.1159
38814W        W81752   9.604   3.760  29.437  0.0155  0.2140 -0.2637
38815W        W81753   7.723   4.737  26.401 -0.1842  0.0321 -0.1213
38816W        W81754   9.337   4.452  28.295  0.0501  0.1290 -0.0208
38817W        W81755   7.105   7.529  27.202 -0.0036 -0.2537 -0.1760
38818W        W81756  10.414   5.117  31.393 -0.3152 -0.2647  0.0699
38819W        W81757   8.888   3.043  28.401 -0.1440 -0.1807 -0.0568
38820W        W81758  10.052   3.870  29.640 -0.0954 -0.0741  0.0113
38821W        W81759  10.913   5.516  30.692  0.1136  0.1911 -0.2732
38822W        W81760  10.987   5.018  26.693  0.1596 -0.0221 -0.0061
38823W        W81761   9.663   6.583  28.431  0.0994  0.1769  0.1568
38824W        W81762   7.515   5.384  27.968  0.3023  0.2833  0.2086
38825W        W81763   9.411   3.563  31.700 -0.1977 -0.1001  0.0793
38826W        W81764   8.052   7.336  30.193  0.2160  0.5785  0.0309
38827W        W81765   7.319   7.250  30.495  0.1763 -0.1099  0.0411
38828W        W81766  11.489   7.254  30.426 -0.0971  0.1848 -0.1121
38829W        W81767   9.988   4.951  29.684 -0.0718  0.1168  0.0470
38830W        W81768   8.097   4.391  31.470  0.1315  0.0013  0.1952
38831W        W81769   9.269   4.448  27.384 -0.0548 -0.2211  0.1170
38832W        W81770   6.777   6.393  28.845  0.0500 -0.0884 -0.0065
38833W        W81771   8.017   6.868  28.838  0.0146  0.2722  0.0875
38834W        W81772   8.676   2.008  28.289 -0.3150 -0.1747  0.0081
38835W        W81773  10.142   6.644  30.261 -0.2247 -0.0223  0.0473
38836W        W81774   8.639   6.017  27.040  0.0664 -0.1832  0.1574
38837W        W81775  10.862   6.905  30.853 -0.1040  0.2108 -0.0287
38838W        W81776   6.438   7.236  30.047  0.1212  0.1820 -0.2381
38839W        W81777  10.297   4.730  28.885 -0.1281 -0.2865  0.0144
38840W        W81778   5.677   7.234  28.940 -0.3069 -0.1175  0.1378
38841W        W81779   8.000   4.204  27.997  0.0654 -0.0655 -0.2696
38842W        W81780   7.683   6.458  28.216 -0.0772 -0.1648 -0.1732
38843W        W81781  10.206   4.336  29.695  0.0040 -0.0744 -0.1585
38844W        W81782  12.813   6.496  29.486 -0.0653 -0.0432  0.1564
38845W        W81783   7.235   4.850  30.075 -0.2302 -0.0417 -0.0323
38846W        W81784   9.595   4.044  27.749  0.2231  0.1528 -0.0019
38847W        W81785   7.928   7.353  28.615  0.1132  0.0555  0.2245
38848W        W81786  10.308   5.314  29.498  0.0727 -0.0236  0.0542
38849W        W81787  11.438   3.537  28.640  0.0933 -0.1250 -0.0167
38850W        W81788  10.070   7.394  29.467  0.0380 -0.1068 -0.0283
38851W        W81789   9.699   7.072  29.483 -0.2162 -0.1553  0.0677
38852W        W81790   7.451   4.274  28.215  0.0720  0.1093 -0.1981
38853W        W81791  11.177   6.234  29.541 -0.0076  0.0413  0.0846
38854W        W81792   9.196   5.158  29.189 -0.0907 -0.2909 -0.1756
38855W        W81793   6.133   5.181  29.845 -0.1180 -0.0168 -0.0057
38856W        W81794  10.458   8.193  29.593 -0.0516 -0.0633 -0.1283
38857W        W81795   7.249   5.912  27.188 -0.0039  0.1857  0.1185
38858W        W81796   8.001   6.400  29.163  0.3299 -0.0390  0.2135
38859W        W81797   7.723   5.574  31.372 -0.0587 -0.0810  0.0886
38860W        W81798  11.706   5.016  29.102 -0.0025  0.1264  0.0421
38861W        W81799   9.542   4.925  30.670 -0.1126  0.1724  0.0997
38862W        W81800   7.566   5.513  28.948  0.0512 -0.1131 -0.0923
38863W        W81801  10.111   5.088  28.661 -0.0051  0.1969 -0.1451
38864W        W81802  10.157   6.122  30.526  0.0228  0.0143 -0.1342
38865W        W81803   9.844   4.591  30.558 -0.1787  0.1321  0.0925
38866W        W81804   8.738   5.993  30.528  0.2455  0.0069  0.2387
38867W        W81805   9.276   2.605  29.345  0.0530 -0.3827 -0.3085
38868W        W81806  11.705   6.744  28.284 -0.3148 -0.0891  0.0664
38869W        W81807  10.159   4.128  30.531  0.1421 -0.2642  0.0692
38870W        W81808   7.662   6.033  28.475 -0.3066 -0.1755  0.0841
38871W        W81809   7.109   5.503  29.209  0.2486 -0.0684 -0.2539
38872W        W81810   7.636   6.888  28.511  0.1744 -0.0284  0.0422
38873W        W81811   9.092   3.730  29.754  0.0034 -0.1368  0.2247
38874W        W81812   8.235   6.477  30.009 -0.0078 -0.2809 -0.1854
38875W        W81813   6.884   6.972  29.367 -0.0689 -0.2077  0.2113
38876W        W81814   6.161   6.571  30.385 -0.4333  0.2278  0.2431
38877W        W81815   9.796   3.451  27.685  0.0424  0.0054 -0.0929
38878W        W81816   7.863   5.657  25.784 -0.2722 -0.3909 -0.1283
38879W        W81817   8.940   4.144  28.399 -0.2658 -0.2952  0.3256
38880W        W81818  12.291   5.122  29.758 -0.0656 -0.2078  0.1394
38881W        W81819  11.132   7.093  27.528 -0.1325  0.1141 -0.3357
38882W        W81820   8.581   2.751   0.223 -0.0844  0.0425 -0.1016
38883W        W81821   8.859   4.552  29.515  0.0549 -0.0376  0.1402
38884W        W81822   9.373   5.748  28.532  0.0284  0.1649 -0.0257
38885W        W81823   6.856   5.101  31.013 -0.3920  0.2474 -0.0717
38886W        W81824  10.975   7.269  31.166 -0.0989  0.1118 -0.0340
38887W        W81825   7.894   5.811  30.738 -0.2654 -0.2218  0.3111
38888W        W81826  10.968   4.527  26.567  0.3092 -0.3195 -0.2835
38889W        W81827   7.795   4.638  28.539  0.3172  0.0073 -0.2790
38890W        W81828   9.437   6.232  29.207 -0.1734  0.0746 -0.3642
38891W        W81829  10.239   6.325  29.606  0.1042 -0.0809 -0.2090
38892W        W81830   7.430   6.399  27.216 -0.1533 -0.4097 -0.0898
38893W        W81831  11.869   4.473  28.825 -0.1498  0.4645  0.2934
38894W        W81832   5.491   5.410  28.632  0.2199  0.2140 -0.2634
38895W        W81833  10.593   5.047  29.168 -0.2118  0.2111  0.3579
38896W        W81834  10.170   5.720  28.141  0.0278  0.1533  0.3681
38897W        W81835   9.287   4.133  29.128 -0.2527  0.0458  0.0387
38898W        W81836   8.523   3.790  30.650  0.0319  0.0435 -0.3547
38899W        W81837   9.952   5.639  28.577 -0.0231  0.2865 -0.0819
38900W        W81838  10.133   3.530  29.201 -0.0955 -0.1729 -0.1147
38901W        W81839  10.380   3.633  27.724  0.0604 -0.1464  0.0567
38902W        W81840   9.905   4.204  30.067 -0.4564  0.0020  0.0618
38903W        W81841  10.432   6.175  30.070  0.2893  0.2850  0.0353
38904W        W81842   8.102   5.414  31.056  0.0078 -0.0636  0.0417
38905W        W81843  11.009   7.090  28.723 -0.1074 -0.0263 -0.0254
38906W        W81844  12.017   3.948  26.163 -0.1489  0.2261 -0.1243
38907W        W81845  11.482   3.220  30.736 -0.0842  0.0938  0.0445
38908W        W81846  10.962   4.142  27.769  0.4049 -0.1984  0.0331
38909W        W81847   9.971   4.468  27.551  0.4038  0.0194 -0.2736
38910W        W81848   8.286   5.439  30.542  0.1259  0.3420  0.1561
38911W        W81849  10.161   4.997  30.913 -0.1598 -0.2781  0.1012
38912W        W81850   9.295   4.322  26.836 -0.1621 -0.4796  0.1191
38913W        W81851  10.909   5.122  29.725 -0.3718  0.0875 -0.0512
38914W        W81852   9.142   7.856  27.999  0.2501  0.0340  0.0278
38915W        W81853   8.811   6.067  28.545  0.0251 -0.2910 -0.0268
38916W        W81854  10.518   4.702  26.773  0.0468  0.0993 -0.1909
38917W        W81855   7.858   4.548  29.504 -0.2294 -0.2484 -0.1437
38918W        W81856   9.332   7.441  30.058  0.1328  0.1664  0.1481
38919W        W81857   8.780   5.309  27.309  0.1171  0.0825 -0.1450
38920W        W81858   8.952   5.573  29.279  0.1684  0.1892  0.1298
38921W        W81859  10.275   7.514  30.239  0.1495  0.1154 -0.0667
38922W        W81860  10.826   5.840  31.316 -0.0313  0.0916  0.4190
38923W        W81861   8.954   5.165  27.723 -0.0736  0.1053 -0.2272
38924W        W81862  11.269   5.415  29.071  0.2404 -0.0487  0.3276
38925W        W81863   7.757   6.885  29.364  0.2429  0.1836 -0.0293
38926W        W81864  10.011   3.634  28.079 -0.1521  0.0256  0.4020
38927W        W81865   9.367   7.195  28.969 -0.0090 -0.1857 -0.3052
38928W        W81866   7.103   7.700  30.207  0.0864  0.1635  0.0421
38929W        W81867   8.431   7.448  28.499  0.0877  0.0425 -0.0442
38930W        W81868   9.038   3.893  30.955 -0.0654 -0.0649  0.1993
38931W        W81869   8.706   5.012  29.279 -0.0128  0.0548  0.1529
38932W        W81870   9.762   4.702  31.032 -0.0034 -0.1455 -0.0664
38933W        W81871  10.470   7.172  29.789 -0.2376  0.2000 -0.2041
38934W        W81872   9.736   7.586  30.308  0.2003  0.1493 -0.4158
38935W        W81873   7.881   6.115  30.020  0.0830  0.3358 -0.0787
38936W        W81874  10.552   8.571  30.230  0.3535 -0.0747 -0.2530
38937W        W81875  10.812   5.431  29.378 -0.1513 -0.3812 -0.0712
38938W        W81876   8.268   6.241  28.769 -0.0297  0.3163  0.0229
38939W        W81877   6.910   5.552  31.594 -0.1888  0.2650  0.1157
38940W        W81878  10.757   4.613  29.439  0.0771  0.1245 -0.2722
38941W        W81879   9.313   5.435  29.628 -0.1675  0.2639 -0.2014
38942W        W81880   8.044   4.308  28.988  0.1403 -0.1215  0.0482
38943W        W81881   9.425   6.275  27.117  0.0891 -0.2630  0.0218
38944W        W81882   7.502   7.014  31.699 -0.0183 -0.2027  0.3073
38945W        W81883   8.636   5.275  31.173  0.2278  0.1092 -0.3799
38946W        W81884   7.984   8.784  28.105  0.1175  0.0149  0.3488
38947W        W81885  10.077   6.484  28.742  0.0364 -0.3800 -0.0916
38948W        W81886  11.019   6.616  26.088  0.0174  0.3323  0.4147
38949W        W81887   9.137   7.434  29.565 -0.2291 -0.0627 -0.3960
38950W        W81888   8.653   5.952  28.085 -0.2759  0.3597  0.0844
38951W        W81889   9.236   6.835  29.390  0.1161  0.3159 -0.2372
38952W        W81890   7.738   8.322  27.437  0.4544  0.0985 -0.3749
38953W        W81891   9.604   4.534  27.881  0.0576 -0.0755  0.0698
38954W        W81892   7.574   7.246  29.089 -0.1238 -0.3764  0.0692
38955W        W81893  10.902   7.842  29.819  0.0381  0.1885  0.0119
38956W        W81894  12.355   4.005  27.140 -0.1954 -0.0246 -0.1641
38957W        W81895  12.243   7.155  29.272  0.2538 -0.2549  0.2598
38958W        W81896  11.508   4.807  28.199 -0.1306  0.0334 -0.1059
38959W        W81897   8.739   7.392  31.178 -0.0429 -0.1661  0.2316
38960W        W81898   7.725   3.913  30.140  0.1567 -0.0764 -0.0373
38961W        W81899   8.212   3.249  27.114  0.1696  0.2234 -0.0413
38962W        W81900   7.376   5.605  31.771  0.0336 -0.1345  0.1085
38963W        W81901  10.928   2.810  30.814  0.1612  0.0576 -0.2421
38964W        W81902   8.598   6.980  31.463  0.3614 -0.1942 -0.0744
38965W        W81903   9.795   6.974  26.695  0.0938  0.1761 -0.2253
38966W        W81904   7.924   5.485  27.592  0.1851 -0.1690 -0.0843
38967W        W81905   9.154   5.987  29.572 -0.0335 -0.1463 -0.0607
38968W        W81906  10.498   3.455  30.979  0.2249 -0.0358  0.1246
38969W        W81907   8.128   5.335  26.975  0.1890 -0.1939 -0.1400
38970W        W81908  11.073   3.762  28.946  0.0491  0.0347 -0.1815
38971W        W81909   8.442   6.705  29.076 -0.2957 -0.0145 -0.1100
38972W        W81910   8.716   7.372  29.868  0.0023 -0.0833  0.1740
38973W        W81911   8.266   9.207  30.011 -0.2659 -0.1744  0.1056
38974W        W81912   7.138   4.680  28.566  0.0428  0.2130 -0.1008
38975W        W81913  10.650   3.585  30.155 -0.3782 -0.1852  0.0870
38976W        W81914   9.140   5.559  30.278  0.1697  0.1851  0.0957
38977W        W81915  10.936   3.662  29.708  0.0843  0.2480 -0.0476
38978W        W81916   8.450   5.364  28.973  0.1193  0.1277  0.0145
38979W        W81917  10.324   4.759  27.923  0.1398  0.0334  0.0131
38980W        W81918  10.065   5.070  30.413 -0.0668  0.3092 -0.0166
38981W        W81919   8.461   5.794  30.878  0.2486  0.0495 -0.0807
38982W        W81920   9.276   5.299  27.389  0.4564 -0.2868  0.0955
38983W        W81921  10.447   5.347  30.619  0.2958  0.3413 -0.1258
38984W        W81922  10.524   5.827  27.651 -0.2466  0.0009 -0.2638
38985W        W81923   9.774   7.613  29.829  0.1306 -0.0042  0.0774
38986W        W81924  10.207   4.577  30.234 -0.0008  0.0669 -0.0972
38987W        W81925  10.371   5.398  27.818 -0.4045  0.3509  0.2726
38988W        W81926   7.943   5.619  29.323  0.1115  0.0041  0.0346
38989W        W81927   9.303   4.492  30.295 -0.1467  0.0040  0.1930
38990W        W81928   9.200   6.977  31.297  0.0542 -0.1030  0.2501
38991W        W81929   6.959   3.998  29.382  0.0112 -0.1414 -0.0962
38992W        W81930   9.743   6.182  27.510  0.0758  0.0528 -0.0820
38993W        W81931   9.282   4.590  29.237  0.3053 -0.1263  0.0101
38994W        W81932   8.214   7.117  27.439 -0.0345 -0.1008 -0.3225
38995W        W81933  10.897   5.519  27.880  0.1147 -0.0898 -0.1991
38996W        W81934  12.282   7.671  31.018  0.0742  0.1947 -0.0087
38997W        W81935   8.351   4.822  31.146 -0.4458 -0.3164  0.0667
38998W        W81936  10.174   5.718  30.883 -0.0602  0.0994 -0.0365
38999W        W81937  10.532   6.200  29.122 -0.0275  0.2193 -0.1215
39000W        W81938   9.204   3.517  26.702  0.0400  0.1257  0.1174
39001W        W81939   8.189   3.709  29.873 -0.2553 -0.0437  0.1356
39002W        W81940   6.024   8.390  27.059  0.0127 -0.0821  0.0515
39003W        W81941  11.083   4.858  29.094 -0.2457 -0.1517 -0.1018
39004W        W81942  10.002   3.657  30.814 -0.1598 -0.0736 -0.1629
39005W        W81943  10.185   6.868  28.443  0.4565  0.2359 -0.0079
39006W        W81944   9.277   2.694  29.938  0.5248  0.3229  0.1730
39007W        W81945   7.826   6.560  29.742  0.0472 -0.0553  0.0583
39008W        W81946   9.422   8.000  29.985 -0.1334 -0.5418 -0.0065
39009W        W81947   8.120   6.066  28.280  0.1337  0.0743 -0.1489
39010W        W81948   9.630   5.366  30.440 -0.0512  0.2337  0.0834
39011W        W81949   7.690   6.029  29.056  0.1946  0.0800 -0.0189
39012W        W81950   8.954   5.478  28.730  0.0454  0.0459 -0.1270
39013W        W81951  10.641   8.465  29.039  0.0942  0.1681 -0.3522
39014W        W81952  10.875   4.002  28.510 -0.0189  0.1801  0.0457
39015W        W81953  11.074   6.402  26.610  0.2821 -0.0017  0.2512
39016W        W81954  10.812   4.286  29.039 -0.1061  0.0571 -0.1158
39017W        W81955  11.305   3.189  26.719 -0.1480  0.0156 -0.0438
39018W        W81956  11.089   3.484  28.287  0.2727  0.1576 -0.0099
39019W        W81957   8.992   6.434  29.363  0.2048  0.2410 -0.0118
39020W        W81958   6.641   6.775  27.827 -0.0034  0.0670 -0.1119
39021W        W81959   8.200   7.324  27.987  0.0131  0.3204  0.3172
39022W        W81960   8.196   6.046  29.425 -0.1039  0.2119  0.0578
39023W        W81961   8.695   3.306  30.496 -0.0912  0.2147 -0.0242
39024W        W81962   7.365   3.820  30.620 -0.0381  0.0173 -0.2314
39025W        W81963   8.736   6.367  28.904 -0.0296 -0.0630 -0.2048
39026W        W81964   9.170   3.572  29.255  0.1226  0.2134  0.0957
39027W        W81965  10.778   6.859  28.347  0.5475  0.1138  0.1360
39028W        W81966   8.897   4.502  28.924  0.0972 -0.2788 -0.0660
39029W        W81967   7.245   3.872  29.967  0.1661  0.1161 -0.1076
39030W        W81968  10.124   7.063  29.096  0.0213  0.0592  0.2260
39031W        W81969  11.599   7.097  27.894  0.0284 -0.2477 -0.0121
39032W        W81970   9.405   3.955  30.043 -0.1453 -0.0998  0.0848
39033W        W81971  11.724   7.409  30.905  0.0748  0.0815 -0.1870
39034W        W81972   7.145   6.485  26.312 -0.2926 -0.0102 -0.2003
39035W        W81973   9.107   5.294  31.373 -0.3257 -0.0109 -0.1622
39036W        W81974   8.561   3.326  31.026  0.4250  0.0704  0.1257
39037W        W81975   7.270   3.532  26.745  0.0468  0.0776 -0.2112
39038W        W81976   7.900   5.100  30.309 -0.1183 -0.0933  0.0188
39039W        W81977  10.833   7.247  27.959 -0.1387  0.3211  0.2654
39040W        W81978   9.038   6.790  28.952  0.1124 -0.2755 -0.1802
39041W        W81979   9.567   6.375  30.392  0.0053  0.4151  0.1394
39042W        W81980   8.488   7.646  30.761 -0.1634  0.1031  0.0209
39043W        W81981   8.231   3.594  31.222  0.0840 -0.2958 -0.0093
39044W        W81982  12.082   5.982  27.987  0.0140 -0.0365 -0.0392
39045W        W81983   8.489   6.076  29.895  0.0981 -0.2146  0.1789
39046W        W81984   9.272   6.963  28.539  0.0811  0.1892 -0.1731
39047W        W81985  10.869   3.658  31.163  0.2291 -0.2635  0.1836
39048W        W81986   9.418   5.754  29.031 -0.1029  0.0613 -0.0348
39049W        W81987   8.352   2.942  31.299 -0.2070 -0.0523 -0.2287
39050W        W81988   7.613   6.369  30.979  0.0820  0.2081 -0.0634
39051W        W81989  10.578   6.450  28.585 -0.2123  0.0276 -0.3688
39052W        W81990   9.053   3.340  28.837 -0.1232 -0.1613 -0.2329
39053W        W81991  10.468   4.228  28.676  0.0154 -0.0304  0.2486
39054W        W81992   9.591   5.380  28.318 -0.1821 -0.1231 -0.1339
39055W        W81993   7.526   5.118  29.343 -0.1111 -0.1209 -0.0688
39056W        W81994   8.730   5.154  28.278 -0.0912 -0.0392 -0.1581
39057W        W81995   9.720   5.457  29.316  0.4728 -0.0730 -0.0892
39058W        W81996   9.227   6.413  28.745  0.0308 -0.1180  0.1939
39059W        W81997  11.241   7.728  30.924 -0.1850  0.1636 -0.1376
39060W        W81998   8.088   6.338  27.820  0.0828  0.1536  0.0798
39061W        W81999  11.753   4.288  28.318  0.0091 -0.0346  0.0144
39062W        W82000   9.203   8.682  30.642  0.3408 -0.1291 -0.2161
39063W        W82001  11.116   7.658  31.954  0.1516 -0.2476  0.0382
39064W        W82002   8.494   7.780  31.333 -0.1026  0.0864 -0.2023
39065W        W82003  10.107   5.652  30.335  0.1203  0.0797 -0.0121
39066W        W82004   7.538   3.729  29.585  0.1489  0.2711 -0.2065
39067W        W82005   8.460   5.474  29.522 -0.2260  0.0086  0.0447
39068W        W82006   8.163   5.249  29.884  0.1791 -0.1759  0.0835
39069W        W82007   9.561   4.946  29.433 -0.3699  0.0100 -0.0044
39070W        W82008   8.123   4.984  29.437 -0.0033 -0.1336 -0.0401
39071W        W82009  10.454   4.399  27.614  0.0387 -0.0247 -0.2830
39072W        W82010   6.958   6.736  30.327 -0.0463  0.1411 -0.1758
39073W        W82011   9.699   4.849  28.317  0.0163  0.0763 -0.0266
39074W        W82012   9.156   4.527  31.616  0.0372 -0.0695 -0.2955
39075W        W82013  10.351   5.245  30.008  0.0091 -0.0139 -0.0193
39076W        W82014   7.193   4.244   0.505 -0.1336 -0.0275  0.1187
39077W        W82015   7.241   6.270  30.438  0.2214 -0.0871  0.3168
39078W        W82016   8.265   4.627  30.154  0.3134  0.3093 -0.1066
39079W        W82017   8.121   6.269  30.849 -0.1135 -0.1290 -0.0471
39080W        W82018  10.553   4.371  30.740  0.1777 -0.0942 -0.2850
39081W        W82019   9.848   6.371  29.954 -0.0885  0.0514 -0.1317
39082W        W82020   9.904   4.658   0.489  0.1052 -0.1039 -0.0043
39083W        W82021  10.574   5.489  31.135 -0.0921 -0.2364  0.0314
39084W        W82022   9.116   6.568  30.141  0.2125  0.0439  0.1061
39085W        W82023   9.266   4.742  29.802 -0.0461  0.0073  0.1432
39086W        W82024   9.706   5.291  31.029  0.1825  0.0538  0.0292
39087W        W82025   9.220   5.400  30.754 -0.2155  0.2477 -0.0989
39088W        W82026   9.674   6.121  31.311  0.1261 -0.0181  0.0724
39089W        W82027   8.237   7.201  31.132 -0.1726 -0.1289 -0.2095
39090W        W82028   6.353   6.455   0.624 -0.0370  0.0872 -0.2035
39091W        W82029  10.599   5.959  30.795  0.0086  0.0509 -0.0149
39092W        W82030   6.862   3.028  31.894 -0.0805 -0.4915  0.1351
39093W        W82031   8.086   5.091   0.141 -0.2214 -0.2793  0.0343
39094W        W82032   7.916   4.508  31.006  0.1775  0.1888 -0.1269
39095W        W82033   6.927   7.231   0.682  0.5004 -0.0074  0.1262
39096W        W82034  10.002   4.209   0.000  0.1120  0.2780 -0.2205
39097W        W82035   9.063   6.287  31.924  0.1065 -0.1071  0.1744
39098W        W82036   8.374   4.367  30.761 -0.0049  0.1697 -0.0904
39099W        W82037   9.376   6.753   0.090 -0.2127  0.3233  0.3666
39100W        W82038   9.181   5.940  30.647 -0.1046 -0.1691  0.1040
39101W        W82039   7.203   7.267  31.362  0.1488 -0.0124  0.1644
39102W        W82040   6.637   5.126   0.059 -0.1390 -0.0002 -0.0989
39103W        W82041  10.179   6.932   0.485 -0.2298 -0.0080 -0.2181
39104W        W82042   9.017   6.408  30.605 -0.0142  0.1423 -0.4160
39105W        W82043   9.943   6.960   0.017 -0.4397 -0.4742 -0.0204
39106W        W82044  10.335   6.053  31.309 -0.0512 -0.0797 -0.1615
39107W        W82045   9.877   3.516   0.615  0.1409  0.0569  0.1843
39108W        W82046   7.746   5.348  30.718 -0.6801  0.3280  0.0690
39109W        W82047   8.084   4.883  30.709 -0.1044  0.1377  0.0019
39110W        W82048   6.871   5.681  31.114  0.0987 -0.2590 -0.2324
39111W        W82049  10.023   7.091  30.557 -0.1227  0.0814 -0.1810
39112W        W82050   9.466   5.893   1.194 -0.2037 -0.3480 -0.0251
39113W        W82051   9.610   5.299  31.642 -0.0424  0.2220  0.3070
39114W        W82052   9.633   4.214   0.457  0.0959 -0.0831 -0.1656
39115W        W82053   9.773   4.760  31.899  0.0960  0.0767  0.1295
39116W        W82054   8.584   5.033  30.749  0.0203  0.0952 -0.0412
39117W        W82055   9.524   7.600  31.657 -0.0673 -0.0518 -0.2230
39118W        W82056   7.615   6.069  31.696 -0.0104 -0.0484  0.2090
39119W        W82057   7.385   5.130   0.894 -0.1649  0.1857 -0.3514
39120W        W82058   9.952   6.518  31.532  0.0414 -0.0984 -0.0120
39121W        W82059   8.795   6.895  30.374 -0.1093  0.0923  0.4586
39122W        W82060  10.847   5.055   0.464  0.3054  0.0318  0.2446
39123W        W82061   7.451   6.672  30.063 -0.3135  0.0034 -0.2596
39124W        W82062   9.217   7.238   0.121  0.1313  0.1445  0.2872
39125W        W82063   9.736   3.762   0.180  0.0309  0.1541  0.0963
39126W        W82064   9.492   5.803  31.618  0.3486  0.1575  0.3089
39127W        W82065   8.218   6.937  29.588 -0.0667  0.3065  0.0333
39128W        W82066   8.744   6.816  30.910  0.1759 -0.1856  0.0502
39129W        W82067  10.664   5.029  30.996  0.1243  0.0335  0.2174
39130W        W82068  11.385   7.174  31.507 -0.0021  0.3115  0.0414
39131W        W82069   8.447   7.161  30.578 -0.0856  0.2185 -0.1111
39132W        W82070   9.953   5.560  31.391 -0.0971  0.0042 -0.0735
39133W        W82071   8.373   5.058   0.703  0.0263 -0.1488  0.1775
39134W        W82072   6.619   4.429  31.654  0.0030  0.2744  0.0627
39135W        W82073   7.220   6.475  31.390 -0.1237  0.0936  0.3540
39136W        W82074   7.024   5.503  30.284  0.1317  0.0142 -0.1333
39137W        W82075   8.486   5.662  30.154  0.0134 -0.1170 -0.1219
39138W        W82076  10.682   7.754  31.005  0.0475  0.1591 -0.2231
39139W        W82077  10.780   6.350  31.055  0.1725  0.4116  0.1364
39140W        W82078   8.988   6.075  30.061 -0.0179  0.1588  0.0945
39141W        W82079   7.771  10.117  18.075 -0.3472  0.0594  0.1290
39142W        W82080   7.946   7.381  16.739 -0.2534  0.0373 -0.0477
39143W        W82081  10.396   8.179  16.158 -0.1352  0.0508  0.3492
39144W        W82082  11.356   9.211  16.795 -0.1330 -0.2421  0.0080
39145W        W82083   7.218   8.333  16.633  0.1375  0.0156 -0.1225
39146W        W82084   9.479  10.392  16.275  0.1447 -0.1918  0.1286
39147W        W82085   7.803   7.154  18.995  0.0747 -0.0364 -0.0527
39148W        W82086   8.367   8.547  17.521  0.0373 -0.3033  0.0424
39149W        W82087   9.514   9.196  17.568  0.1775 -0.0847 -0.7403
39150W        W82088   9.760   9.491  15.645 -0.0351 -0.2121 -0.2687
39151W        W82089  10.065   8.269  17.700 -0.0306  0.1979  0.0268
39152W        W82090   7.571  10.461  18.452  0.3092  0.1941  0.2039
39153W        W82091   7.995   6.068  17.100 -0.3018 -0.0229  0.0146
39154W        W82092   7.552   8.215  18.044  0.2002 -0.4564 -0.0063
39155W        W82093  10.194   7.928  17.050  0.3980 -0.4941  0.1502
39156W        W82094   7.695   9.228  16.057  0.1530 -0.0656 -0.0493
39157W        W82095   8.008   8.014  18.278  0.1987  0.2010  0.3039
39158W        W82096   8.756   8.742  17.817 -0.2150 -0.1662 -0.0503
39159W        W82097   9.980   9.996  17.073 -0.1489 -0.3372 -0.2452
39160W        W82098  10.215   7.280  18.831 -0.1140 -0.1884 -0.2464
39161W        W82099  10.941   8.492  18.698  0.3934 -0.3433  0.3292
39162W        W82100   7.023   9.789  17.191 -0.0818 -0.0204 -0.0742
39163W        W82101   6.101   9.432  16.138  0.0227  0.0897  0.1968
39164W        W82102   6.997   7.673  19.643 -0.1787  0.0913 -0.0917
39165W        W82103   7.762   7.878  17.676 -0.0621 -0.4315  0.2137
39166W        W82104  10.917   8.314  17.234 -0.2586  0.0487 -0.1204
39167W        W82105  10.836   9.431  18.581 -0.0886 -0.2413  0.1706
39168W        W82106   6.347  10.610  17.644  0.2264 -0.0773 -0.0248
39169W        W82107   7.077   9.986  17.668  0.1850  0.0815  0.1011
39170W        W82108   9.695   7.793  18.583  0.1062 -0.1281 -0.2507
39171W        W82109   6.614   8.070  18.171  0.0403  0.0801  0.1172
39172W        W82110   5.897  11.583  18.622  0.1020 -0.1997 -0.0567
39173W        W82111   6.552   9.209  17.857  0.3044  0.1523  0.2867
39174W        W82112  11.072   9.921  17.354  0.2119  0.0225 -0.0881
39175W        W82113  10.308   8.659  18.938 -0.3373 -0.2189 -0.2486
39176W        W82114   8.971  10.354  18.758  0.0043  0.2292  0.0427
39177W        W82115   7.676  10.108  16.736 -0.1543  0.2945  0.0921
39178W        W82116   9.300  11.683  19.851  0.1925  0.4322  0.1775
39179W        W82117   8.100  10.141  18.854  0.0889 -0.0906 -0.0556
39180W        W82118  10.152   8.756  17.645  0.0511 -0.1020  0.0292
39181W        W82119   8.403   9.172  17.173 -0.1075  0.3816 -0.2945
39182W        W82120   7.530  10.602  16.677 -0.1410 -0.0381 -0.0770
39183W        W82121   8.591  10.311  17.453  0.0521 -0.3879 -0.4011
39184W        W82122   8.494   7.867  19.149 -0.1301 -0.0940  0.2633
39185W        W82123   5.902  11.125  19.540  0.1621 -0.1180 -0.3338
39186W        W82124   9.812   7.799  20.223 -0.0442  0.0020 -0.0711
39187W        W82125   6.605  10.117  16.370 -0.0194  0.0156 -0.1393
39188W        W82126  10.402   9.171  16.696 -0.2663  0.0392  0.0697
39189W        W82127   8.065   8.899  16.161 -0.3114 -0.0234 -0.1099
39190W        W82128  11.035   8.820  16.290  0.0389 -0.2119 -0.0687
39191W        W82129   9.459   8.088  18.312  0.5571 -0.4323  0.1383
39192W        W82130   8.180  11.525  18.630 -0.0345  0.1906  0.1680
39193W        W82131   7.938   8.910  17.723  0.1044  0.0050  0.1798
39194W        W82132   9.643   8.637  17.460  0.4925 -0.0527  0.3569
39195W        W82133   8.232  10.053  16.621 -0.3202 -0.0200  0.0607
39196W        W82134   8.801   8.157  17.769  0.0338 -0.0049 -0.0509
39197W        W82135   7.392   9.249  17.698  0.1276 -0.0747  0.0729
39198W        W82136   8.228   8.989  16.741  0.0445  0.1973 -0.0807
39199W        W82137   9.160  11.385  16.303 -0.2043 -0.1168  0.0607
39200W        W82138  10.945  10.287  18.146 -0.1782 -0.1376  0.0291
39201W        W82139   8.495  10.454  16.698 -0.0711  0.2358 -0.3266
39202W        W82140   8.441   8.556  16.998  0.1726  0.1495  0.1581
39203W        W82141   9.231   7.869  18.783  0.1149  0.0874  0.2557
39204W        W82142   8.620   7.192  18.252  0.3794 -0.1590 -0.2700
39205W        W82143   8.788   7.290  16.165  0.2480  0.3363  0.2917
39206W        W82144  10.382   9.235  19.004 -0.4382 -0.1345  0.2315
39207W        W82145   6.712  11.297  20.486  0.1342  0.1244  0.3285
39208W        W82146  10.329   6.263  18.007  0.1088  0.0327  0.2852
39209W        W82147   5.632   9.216  17.497  0.1242 -0.0591 -0.1061
39210W        W82148   8.009   9.642  17.917  0.1706 -0.1824  0.0254
39211W        W82149   9.524   9.093  16.247  0.0358 -0.1735 -0.1859
39212W        W82150   9.907   7.724  18.179  0.2640 -0.2220  0.4846
39213W        W82151  10.357   8.331  18.553 -0.1517  0.0162 -0.2998
39214W        W82152   8.116   8.372  16.156 -0.0771 -0.2546 -0.2287
39215W        W82153   9.403   9.665  16.350  0.0019 -0.2080  0.1975
39216W        W82154  10.894   8.611  17.780  0.2015 -0.0008  0.1179
39217W        W82155  10.212   9.112  15.716  0.4084  0.2413  0.0001
39218W        W82156   6.577  12.020  18.793  0.0494  0.2646 -0.0898
39219W        W82157   9.437   7.525  18.179 -0.0748 -0.1728  0.0591
39220W        W82158   9.159  10.426  17.551 -0.0348  0.2959  0.1089
39221W        W82159   6.142  10.349  16.290 -0.0834 -0.1936  0.2373
39222W        W82160   6.421   9.760  18.470  0.0059  0.3668  0.2876
39223W        W82161   8.514   9.030  15.901 -0.1362 -0.0780  0.1738
39224W        W82162   7.169   8.528  17.533  0.0822  0.0661  0.0808
39225W        W82163   8.502   9.050  18.611 -0.4783 -0.2581  0.4113
39226W        W82164  10.619   7.223  16.810  0.2293  0.1850  0.2547
39227W        W82165   7.676   8.148  16.714 -0.0242  0.2136 -0.3314
39228W        W82166  11.072   7.969  17.849  0.0703  0.1683 -0.1609
39229W        W82167   8.502   9.495  16.861  0.1464  0.0029  0.1022
39230W        W82168   9.564   9.611  16.810  0.1845 -0.1674  0.1430
39231W        W82169  10.001   8.487  16.193 -0.0457  0.0128 -0.1869
39232W        W82170  10.368  10.830  15.687 -0.0134  0.3942 -0.0514
39233W        W82171   7.634   8.457  18.527  0.0726  0.0371 -0.1140
39234W        W82172   7.109   7.995  17.903 -0.2880 -0.0908 -0.1926
39235W        W82173   9.395   8.537  20.243 -0.1957  0.1202  0.2642
39236W        W82174   8.025   8.169  17.250 -0.0171 -0.1317  0.0888
39237W        W82175   9.948   8.341  18.262  0.0880 -0.0506 -0.0148
39238W        W82176   7.566   7.657  16.566  0.3727  0.0294 -0.1001
39239W        W82177  11.825   7.511  17.106  0.0029 -0.0005 -0.1455
39240W        W82178   8.931   9.577  16.579 -0.1062  0.0155 -0.1277
39241W        W82179   7.467   9.601  17.096  0.0075  0.2918  0.1691
39242W        W82180  10.985   7.619  18.788 -0.0870  0.2463 -0.1291
39243W        W82181  10.203   8.764  17.033  0.1688  0.1177  0.0127
39244W        W82182  10.461   9.803  17.321 -0.3109 -0.1030  0.0224
39245W        W82183   9.267  10.802  17.106 -0.0718  0.2941  0.1193
39246W        W82184   9.472   7.854  19.209  0.1236  0.0043  0.0239
39247W        W82185   7.015   8.709  16.958  0.0043 -0.2301 -0.3867
39248W        W82186   7.513  11.546  19.097  0.1766  0.0413  0.2724
39249W        W82187   6.771  10.237  17.263 -0.1125 -0.0418 -0.3544
39250W        W82188   7.875   6.513  17.375 -0.0133 -0.0932 -0.1405
39251W        W82189  10.257  10.774  18.179 -0.2125 -0.0314 -0.1359
39252W        W82190   9.049   8.238  16.355  0.2616 -0.0957 -0.0346
39253W        W82191   7.186   9.857  18.596  0.2264 -0.2777 -0.0210
39254W        W82192  10.146   6.398  18.862 -0.2937  0.0999 -0.0492
39255W        W82193  11.540   8.800  19.441 -0.1065  0.3636 -0.1114
39256W        W82194   9.174   8.692  16.619  0.1955 -0.0669 -0.0177
39257W        W82195   6.955   7.685  15.884  0.0204 -0.0646  0.1490
39258W        W82196  10.266  11.184  17.307 -0.0352  0.0909  0.2398
39259W        W82197   6.824   9.364  18.731  0.1079 -0.0146 -0.1737
39260W        W82198   5.439   9.625  18.233 -0.0457  0.0089  0.1742
39261W        W82199  10.643  10.747  17.399 -0.1732  0.2418  0.1846
39262W        W82200  10.596   7.458  18.549  0.2758  0.1518 -0.0481
39263W        W82201   7.665   9.364  18.109  0.1717 -0.2877 -0.4743
39264W        W82202  10.900   7.915  19.157 -0.1932  0.1826 -0.0512
39265W        W82203   6.647   7.908  16.827  0.0129  0.0355  0.2837
39266W        W82204   6.980  10.243  20.990  0.2410  0.0664 -0.3424
39267W        W82205  10.055   7.144  17.642 -0.2207 -0.3221 -0.3841
39268W        W82206  10.475   9.383  16.114  0.2193  0.2351 -0.2067
39269W        W82207   8.102   9.062  18.985 -0.0600  0.0685 -0.2303
39270W        W82208  10.577   9.746  16.706  0.1251 -0.5009  0.0516
39271W        W82209   9.228   6.837  17.113 -0.1138 -0.1218  0.0868
39272W        W82210   9.128   7.141  15.840 -0.2435 -0.1070 -0.0167
39273W        W82211   8.845   9.256  18.224 -0.1851 -0.0679  0.0268
39274W        W82212  10.788   9.404  17.547 -0.1309 -0.0795  0.0070
39275W        W82213   9.253   7.638  17.445  0.3093 -0.0560  0.3177
39276W        W82214   8.779   7.762  16.519  0.0218 -0.0841  0.0119
39277W        W82215   9.805  10.508  16.978  0.0973  0.2846 -0.3565
39278W        W82216   7.241   9.513  19.019  0.2707 -0.0281  0.1649
39279W        W82217   8.770  10.658  17.951  0.1207  0.0213  0.1680
39280W        W82218   9.441  10.133  17.138  0.1322  0.1188  0.0389
39281W        W82219   7.179   6.406  19.665  0.0601 -0.3184 -0.0904
39282W        W82220   7.492   9.023  15.558  0.0272 -0.1403 -0.0127
39283W        W82221   9.082   6.902  18.012 -0.0610  0.4012  0.0521
39284W        W82222   6.703   9.766  15.999  0.1533  0.1069 -0.1497
39285W        W82223  10.484   6.754  18.962 -0.1959  0.1669  0.3747
39286W        W82224   9.087   7.481  16.988 -0.3640  0.1690  0.1220
39287W        W82225   7.519   6.801  17.628  0.0184  0.1632  0.2817
39288W        W82226  10.105   8.255  20.363 -0.0091 -0.3687 -0.0553
39289W        W82227   9.627   8.734  16.958 -0.1639  0.2662 -0.1562
39290W        W82228  10.240   9.245  18.471  0.0860 -0.0169  0.3797
39291W        W82229   8.040   9.998  16.130  0.1902 -0.1456 -0.1842
39292W        W82230  10.269   7.173  19.330  0.1606 -0.3870 -0.3571
39293W        W82231   7.798   8.915  18.273  0.2258  0.1540 -0.1830
39294W        W82232   6.872  10.248  19.369 -0.2089 -0.1508  0.1372
39295W        W82233   8.814   8.748  18.302  0.0520  0.0922  0.0554
39296W        W82234  10.014   8.213  16.595 -0.0365  0.2176  0.0726
39297W        W82235   9.805   8.215  19.317 -0.2683 -0.0438 -0.1013
39298W        W82236  10.323   7.390  17.976  0.0617 -0.1456 -0.1175
39299W        W82237   8.637  10.986  18.289 -0.1552  0.1012 -0.3284
39300W        W82238   8.723   9.986  16.672 -0.0343  0.0253  0.2956
39301W        W82239   9.041   7.886  18.296 -0.0478  0.0212  0.0030
39302W        W82240   8.211  11.015  17.848 -0.0969 -0.1880  0.0547
39303W        W82241   7.462  10.192  15.822 -0.0026  0.2637  0.1841
39304W        W82242   9.779   9.605  17.827 -0.0210  0.1232 -0.3087
39305W        W82243   7.669  11.010  17.669  0.2333  0.0082  0.3657
39306W        W82244  10.656   5.928  19.440  0.0499 -0.2187  0.3187
39307W        W82245   6.607  10.609  18.834  0.1405 -0.2270 -0.4563
39308W        W82246   8.616   8.162  16.747  0.0049  0.2759  0.0031
39309W        W82247   8.492   9.128  16.398 -0.0529 -0.1276 -0.0319
39310W        W82248  10.772   6.796  16.541 -0.1086  0.0612  0.4512
39311W        W82249  10.980   8.776  17.270 -0.1160 -0.2054 -0.1101
39312W        W82250   8.119   7.762  18.744 -0.0590  0.1476 -0.0947
39313W        W82251   9.193   9.051  17.216 -0.2715  0.3178  0.0950
39314W        W82252   5.213  11.035  19.115  0.2607  0.0462  0.1313
39315W        W82253  10.356   7.948  18.051  0.0213  0.2080 -0.0376
39316W        W82254  10.613   7.603  15.726  0.0753  0.1407 -0.3540
39317W        W82255   8.241  10.592  17.626 -0.2232 -0.0907  0.0945
39318W        W82256   7.935   8.577  19.254 -0.0313 -0.0415 -0.4365
39319W        W82257   7.259   8.812  16.497  0.1639 -0.0093 -0.2700
39320W        W82258   9.586   8.005  17.346  0.2455  0.3746 -0.0189
39321W        W82259   7.061   9.572  16.651  0.0130  0.1599 -0.0898
39322W        W82260   7.251   9.638  17.990  0.0989  0.0182 -0.1874
39323W        W82261   6.801  10.418  17.819 -0.2342  0.0796 -0.1286
39324W        W82262   8.479   9.661  16.377 -0.0683 -0.0027 -0.0727
39325W        W82263   6.487  10.399  15.898 -0.2843  0.0697 -0.5591
39326W        W82264   7.745   8.427  17.619  0.0068 -0.1058 -0.0283
39327W        W82265  10.166   9.549  16.985  0.0237 -0.0029 -0.1510
39328W        W82266   9.959   7.437  17.241 -0.1631 -0.0752  0.2655
39329W        W82267   8.983   9.089  16.301  0.1478  0.4051  0.2299
39330W        W82268   9.567   8.302  17.878 -0.0839 -0.0793  0.0968
39331W        W82269   8.589   9.655  17.990  0.0926 -0.0590 -0.1027
39332W        W82270  11.248   8.455  18.099 -0.3783  0.0006 -0.1180
39333W        W82271   8.009   9.257  18.565 -0.4760  0.0708 -0.1449
39334W        W82272   7.606   7.737  18.162  0.1563 -0.0075  0.4617
39335W        W82273  10.884   9.260  16.557 -0.1687 -0.2000 -0.0110
39336W        W82274  10.022   9.706  20.039 -0.0563  0.2869  0.2604
39337W        W82275   8.538  10.165  16.216  0.2254  0.1071  0.0938
39338W        W82276   6.898   8.909  17.855  0.2560 -0.2444 -0.1588
39339W        W82277   8.148   9.460  16.051 -0.0763 -0.3148  0.0399
39340W        W82278   8.319   7.692  19.555  0.1416 -0.1075 -0.1377
39341W        W82279   7.697   9.355  19.062 -0.1703 -0.1090  0.0536
39342W        W82280   8.375  10.399  15.793 -0.1497 -0.1324 -0.2043
39343W        W82281   6.892   9.492  17.640 -0.0436 -0.0962  0.0523
39344W        W82282  11.472   7.248  16.697 -0.0777 -0.0226 -0.0138
39345W        W82283   8.008   9.761  16.992 -0.2711  0.0896 -0.0277
39346W        W82284   8.300   7.263  18.693  0.1525  0.0606  0.0260
39347W        W82285  11.056   7.436  20.923  0.3706 -0.0110  0.1723
39348W        W82286   9.250  10.022  16.627 -0.2234 -0.0479  0.1319
39349W        W82287  10.631   9.106  19.440 -0.2289  0.0383 -0.2641
39350W        W82288   8.240   8.211  18.878 -0.1432  0.4405 -0.0587
39351W        W82289  10.100  10.802  17.567 -0.1905 -0.1032  0.2235
39352W        W82290   5.684   7.440  19.541  0.0053  0.2353  0.0332
39353W        W82291  11.270   9.589  18.339  0.0681  0.0885 -0.1682
39354W        W82292   8.105   9.389  19.371 -0.0818  0.2145 -0.0782
39355W        W82293  10.563   9.014  17.754  0.0907  0.3675 -0.1893
39356W        W82294   7.690   7.763  17.173 -0.2479  0.1976 -0.1462
39357W        W82295   8.134  11.010  18.369 -0.1084 -0.0941 -0.1423
39358W        W82296  10.154  10.937  16.139  0.2370 -0.1064  0.3531
39359W        W82297   8.311   9.589  17.439  0.1952  0.3483  0.0444
39360W        W82298  12.416   6.699  18.090 -0.1310  0.0503 -0.0324
39361W        W82299   6.340   8.852  18.183  0.1393 -0.0528 -0.0825
39362W        W82300  10.488   8.385  16.903  0.0689  0.0553  0.2559
39363W        W82301   8.713   9.479  16.008  0.2997  0.0348  0.3135
39364W        W82302   8.585   8.592  16.518 -0.2631 -0.0288 -0.1244
39365W        W82303   8.748   8.766  17.332  0.0832  0.0084 -0.0926
39366W        W82304  10.366  11.171  17.842  0.1064  0.0263  0.0759
39367W        W82305  10.655   7.095  17.717  0.3403 -0.0422  0.0980
39368W        W82306  11.418   7.143  17.765  0.0086  0.1344 -0.1049
39369W        W82307   9.759   8.755  17.993  0.0362  0.0520  0.1000
39370W        W82308   8.313   9.321  18.177  0.0155  0.1501 -0.1475
39371W        W82309   8.126   8.894  20.259 -0.1229  0.3417  0.1387
39372W        W82310   9.423   9.851  18.343 -0.0014  0.1914  0.2622
39373W        W82311  10.260   7.618  16.257 -0.1166  0.0639 -0.1616
39374W        W82312  11.721   8.916  17.439 -0.1396  0.0890  0.1383
39375W        W82313   9.266   7.894  17.856  0.1395  0.1568 -0.1257
39376W        W82314  10.532   8.600  17.363  0.1247 -0.1290 -0.0331
39377W        W82315   5.764   8.233  17.739  0.2390  0.0958 -0.1597
39378W        W82316  10.879   9.374  19.912 -0.1026  0.3102  0.0486
39379W        W82317   7.202   8.305  16.131  0.0869 -0.0042 -0.1489
39380W        W82318  11.182   9.078  17.748 -0.2019  0.0754 -0.0170
39381W        W82319   9.214   9.517  15.889 -0.0703  0.1053 -0.0827
39382W        W82320   8.833   9.362  17.337  0.1280  0.1925  0.0491
39383W        W82321   9.527   8.254  16.244  0.0125  0.2199  0.2792
39384W        W82322   7.472   8.256  17.185 -0.0068  0.0558 -0.3345
39385W        W82323   6.374  11.372  19.856 -0.0465 -0.1819  0.1127
39386W        W82324   7.180   7.312  16.393  0.0616  0.0177 -0.0086
39387W        W82325   9.528   8.346  15.513  0.2020  0.1067 -0.2335
39388W        W82326   6.417   9.122  17.309 -0.1409  0.0740 -0.2207
39389W        W82327  10.178   8.976  19.361 -0.1983 -0.1061 -0.0049
39390W        W82328   9.056   6.418  16.819 -0.0616 -0.2897 -0.0566
39391W        W82329  10.604   8.609  19.347  0.1406  0.1561 -0.0237
39392W        W82330   6.286  10.220  16.726 -0.3389 -0.2545 -0.0238
39393W        W82331  10.808   7.527  17.581 -0.2053  0.1914  0.2257
39394W        W82332   8.240   9.870  18.433  0.2581  0.2306  0.3469
39395W        W82333   7.160  10.286  18.898 -0.0789 -0.1450 -0.2807
39396W        W82334   8.024  11.098  17.128 -0.0651  0.0929  0.0454
39397W        W82335  11.378   8.474  17.461  0.1500  0.0435  0.0226
39398W        W82336  11.358   7.582  18.093  0.2972  0.1015 -0.3080
39399W        W82337   7.748   9.050  16.531 -0.3210  0.0737  0.1459
39400W        W82338  11.411   8.765  20.125 -0.2863 -0.2621  0.5899
39401W        W82339   9.102   8.392  18.638 -0.3610 -0.3099  0.0422
39402W        W82340   8.955   8.457  16.972 -0.2766 -0.1065 -0.0084
39403W        W82341   7.313  10.856  18.704  0.0473 -0.2229  0.0187
39404W        W82342  10.880   8.769  16.789 -0.1175  0.3218 -0.0578
39405W        W82343   7.659  10.308  16.306  0.0228  0.0358  0.2485
39406W        W82344   6.504   8.418  19.096  0.0594 -0.0506  0.2466
39407W        W82345   8.347   7.444  20.027 -0.0838 -0.1911 -0.3582
39408W        W82346   8.291  10.114  17.951 -0.0375 -0.0407  0.1129
39409W        W82347   8.527   7.347  17.745 -0.1820 -0.1432  0.1660
39410W        W82348   6.632   9.262  16.216 -0.3363 -0.0684  0.0211
39411W        W82349   9.011   8.885  18.712  0.4642 -0.0574  0.0671
39412W        W82350   5.490  10.805  19.511 -0.0615  0.2137 -0.1417
39413W        W82351   6.919  10.927  17.888 -0.4356  0.1441  0.2270
39414W        W82352   9.065   9.044  15.810  0.1266  0.0924  0.2606
39415W        W82353   9.673   8.699  16.504  0.1623 -0.1453  0.1801
39416W        W82354   8.095  10.336  18.369 -0.0814  0.0039 -0.1076
39417W        W82355   7.510   7.745  16.036 -0.0346 -0.1631  0.3890
39418W        W82356   6.747  10.737  17.293 -0.4303 -0.1815  0.2378
39419W        W82357   7.693   9.658  16.314  0.0073 -0.1085  0.2340
39420W        W82358   9.914   9.491  16.131 -0.1188 -0.1583  0.3081
39421W        W82359   7.283  10.610  17.816  0.0325 -0.1037 -0.0672
39422W        W82360   9.564   7.138  20.472  0.0948  0.0106  0.1668
39423W        W82361  11.233   7.898  14.933  0.0441  0.1134  0.1750
39424W        W82362  10.838   8.197  18.229  0.1651  0.1303  0.1904
39425W        W82363  11.048   7.917  15.803  0.2460 -0.1218  0.1679
39426W        W82364   9.988   9.956  17.609  0.1227 -0.0022 -0.4095
39427W        W82365   9.279   8.790  17.785  0.0186  0.0755 -0.0772
39428W        W82366   8.244   6.428  17.767 -0.3103  0.1462  0.0252
39429W        W82367   9.320   7.348  19.350 -0.1279  0.0418  0.0624
39430W        W82368  11.341   7.711  19.137 -0.0246  0.2245 -0.0320
39431W        W82369   7.458   9.944  19.806 -0.1048 -0.1191 -0.2659
39432W        W82370   8.455   9.986  17.096  0.1812 -0.5362 -0.1323
39433W        W82371   7.171   7.709  16.914  0.1849  0.3173  0.0904
39434W        W82372   9.080   7.953  17.024  0.0087  0.1990 -0.0894
39435W        W82373  10.460   7.676  19.026 -0.0083  0.0974  0.0752
39436W        W82374  10.249   8.622  15.799  0.1780 -0.1082  0.1894
39437W        W82375   8.697   6.122  18.161 -0.0586 -0.1452 -0.2886
39438W        W82376   7.581  10.061  17.221  0.0464 -0.1226 -0.2363
39439W        W82377   6.737  11.095  19.049 -0.0434  0.1229 -0.3692
39440W        W82378   7.992  11.753  18.160  0.2712 -0.2141  0.1227
39441W        W82379   6.865   9.034  16.561  0.0890  0.1365 -0.0316
39442W        W82380  11.305   7.623  17.076  0.2770 -0.4102  0.3591
39443W        W82381   7.484   8.725  17.905 -0.1324  0.0510 -0.1717
39444W        W82382  11.935   6.756  18.325  0.0570 -0.0940  0.4303
39445W        W82383   6.237   8.304  17.467 -0.0952  0.3999 -0.0935
39446W        W82384   9.282   9.623  17.404  0.2414  0.5724  0.2985
39447W        W82385   8.054   8.675  18.642 -0.0414 -0.1284  0.1354
39448W        W82386   6.962   8.569  18.857  0.3723  0.0796  0.2360
39449W        W82387   7.659   8.531  16.322  0.4066 -0.1103 -0.3142
39450W        W82388   9.913   9.079  17.260 -0.0073  0.0747  0.0849
39451W        W82389   8.427   8.202  15.759  0.1659 -0.0961  0.0077
39452W        W82390   9.795  10.101  18.145  0.1739 -0.0920 -0.1560
39453W        W82391   8.125   7.261  17.356  0.0376  0.1049  0.1338
39454W        W82392  10.700   5.748  17.430  0.0793  0.3303 -0.0092
39455W        W82393   7.055   8.501  18.054 -0.0640  0.0226 -0.2444
39456W        W82394   8.539   8.191  17.256  0.1115  0.0364 -0.0388
39457W        W82395   9.833  11.137  18.021  0.1617 -0.1273 -0.0033
39458W        W82396   6.430   8.369  17.032  0.3443 -0.0681 -0.1510
39459W        W82397  10.438  11.251  15.433 -0.0997  0.1632 -0.0673
39460W        W82398  10.654   8.130  17.700  0.2014 -0.5947 -0.4348
39461W        W82399   8.937  10.389  16.459 -0.1154 -0.1317  0.1342
39462W        W82400   9.896   9.217  16.682  0.0692  0.1739  0.2384
39463W        W82401  10.367  10.602  16.477 -0.0019 -0.0686  0.1583
39464W        W82402   6.373   7.045  16.668  0.0755 -0.2756  0.2704
39465W        W82403   8.879  10.900  18.809  0.1384 -0.0062 -0.1138
39466W        W82404  10.657  10.985  19.235  0.0832  0.1416 -0.2841
39467W        W82405   9.327   7.319  16.416 -0.2271 -0.2779  0.2879
39468W        W82406   7.113   9.186  18.218  0.2174 -0.2956  0.1913
39469W        W82407   7.318  10.150  18.124 -0.3105 -0.4029  0.0981
39470W        W82408  11.056   7.261  18.411 -0.1347 -0.2218 -0.5542
39471W        W82409   9.774   8.674  19.146  0.0389 -0.1366  0.2640
39472W        W82410   7.779   9.621  15.714  0.0240 -0.1003  0.0428
39473W        W82411  11.740   6.822  20.283  0.2259  0.0516  0.0602
39474W        W82412   8.565   9.547  18.554 -0.0238  0.4661  0.1050
39475W        W82413   8.721  10.074  19.678 -0.2248  0.2523  0.1641
39476W        W82414   6.988  10.249  16.041 -0.3448 -0.1277  0.0372
39477W        W82415   8.318   8.827  18.084 -0.0921  0.0220 -0.1440
39478W        W82416   7.859   9.263  17.327  0.2175  0.2736 -0.0920
39479W        W82417   7.669  10.375  17.597  0.1396 -0.2512 -0.0537
39480W        W82418   8.006   9.982  17.504  0.0621  0.0044  0.0413
39481W        W82419   9.136   8.357  17.427 -0.1318 -0.0676 -0.0303
39482W        W82420  11.747   9.486  17.475 -0.0845  0.1117 -0.5049
39483W        W82421   9.151   9.731  17.912  0.2583  0.2293 -0.1458
39484W        W82422  12.666   7.267  16.580 -0.0156 -0.1603  0.2927
39485W        W82423  10.465   7.868  16.637 -0.2161  0.0572 -0.0433
39486W        W82424   8.508   8.379  18.150  0.3147 -0.0902  0.0195
39487W        W82425   6.176  10.779  16.038  0.1957 -0.1187  0.4242
39488W        W82426   8.812  10.314  15.405  0.0415 -0.0933  0.0238
39489W        W82427   8.189   8.144  17.815  0.0172 -0.2492 -0.1955
39490W        W82428  10.116   7.329  20.547 -0.0421 -0.0806  0.0984
39491W        W82429   8.056   7.594  17.936  0.0958  0.2455  0.0228
39492W        W82430   6.701   8.136  17.590 -0.0903 -0.0682  0.1533
39493W        W82431   8.046   8.454  16.653 -0.1006  0.0554 -0.3794
39494W        W82432  10.039  10.214  16.258  0.0135  0.0968 -0.1573
39495W        W82433   7.946   8.461  18.115  0.2180 -0.4213 -0.1587
39496W        W82434   8.014   6.872  17.696 -0.0702 -0.1654  0.2047
39497W        W82435   8.820   9.066  16.851  0.1583  0.0379  0.2631
39498W        W82436  11.151  10.406  17.096 -0.0706  0.2426  0.3509
39499W        W82437   9.780   7.670  17.697 -0.1296 -0.1137  0.1254
39500W        W82438   9.901  10.585  18.456  0.0519  0.3117  0.0952
39501W        W82439   6.550   9.856  17.501  0.3656  0.0757 -0.0962
39502W        W82440   8.747   6.887  20.542  0.0732  0.0047  0.1590
39503W        W82441   8.764   6.752  19.891  0.2613  0.0842 -0.0200
39504W        W82442   7.438   7.274  16.892 -0.1405 -0.0628  0.3490
39505W        W82443   9.786   7.176  18.060  0.0272  0.2486  0.1190
39506W        W82444   9.055   9.195  17.743  0.1743 -0.1587 -0.5500
39507W        W82445   8.913   9.727  17.053  0.1312 -0.1145 -0.0548
39508W        W82446   7.991  10.856  19.528 -0.1868  0.1449 -0.0322
39509W        W82447   7.736  11.328  19.512  0.0835  0.1082 -0.0226
39510W        W82448   7.803   6.164  18.556  0.1238  0.0433  0.2765
39511W        W82449   9.763   7.657  16.370  0.1104 -0.0492 -0.1876
39512W        W82450   8.912   9.910  19.196 -0.0648 -0.0823  0.0878
39513W        W82451  10.207   8.717  16.547  0.2715 -0.0206 -0.1947
39514W        W82452  11.482   7.549  18.649 -0.2576 -0.1323 -0.0144
39515W        W82453   9.479   8.284  16.820 -0.0821 -0.0992  0.0633
39516W        W82454   7.723   6.659  19.126 -0.0380 -0.1165 -0.3291
39517W        W82455   8.634  10.200  18.343  0.0181 -0.0730  0.1813
39518W        W82456  10.250   9.370  17.573 -0.0588 -0.0071  0.0846
39519W        W82457   8.663   7.339  16.760  0.0975 -0.2119 -0.0955
39520W        W82458  11.279   7.997  18.325 -0.2094  0.0735  0.2783
39521W        W82459  10.018   9.010  16.194 -0.2413 -0.2926  0.3307
39522W        W82460   5.683   7.722  18.158  0.0442  0.1367 -0.1424
39523W        W82461   8.786   8.654  16.110  0.1893 -0.2329 -0.0093
39524W        W82462  10.149   8.509  19.612 -0.0823 -0.0741 -0.1194
39525W        W82463   7.571   9.700  17.623  0.0000  0.2213  0.3012
39526W        W82464   9.892   8.261  18.784  0.5451  0.1209 -0.0900
39527W        W82465   8.504   8.065  16.254  0.2589 -0.0061  0.0476
39528W        W82466  11.528   9.666  16.597 -0.0869 -0.1260  0.1264
39529W        W82467   9.021  10.688  18.381 -0.1370 -0.1008  0.2818
39530W        W82468  10.715  10.688  18.474  0.3280 -0.0057  0.0865
39531W        W82469   7.812  11.834  19.461  0.1492  0.0696 -0.0760
39532W        W82470  10.431   8.485  18.052  0.1321 -0.0446 -0.0910
39533W        W82471   8.629   6.641  18.078  0.2437 -0.1735 -0.2262
39534W        W82472   7.505   8.819  17.299  0.3302  0.0549  0.0577
39535W        W82473   7.994   8.751  17.224  0.0849 -0.2447  0.0185
39536W        W82474   9.995   8.367  17.250 -0.0082 -0.2032  0.3055
39537W        W82475   9.806   7.317  18.575 -0.0766  0.0648 -0.2594
39538W        W82476  10.182   7.007  16.947  0.3943  0.1625  0.2208
39539W        W82477   6.372  11.963  19.879  0.2076 -0.0466  0.0394
39540W        W82478   9.328   9.180  16.671  0.2817 -0.0554 -0.0856
39541W        W82479   8.801   9.721  23.913 -0.0003  0.0009 -0.0821
39542W        W82480   8.065   6.614  19.797  0.0212 -0.0067 -0.3545
39543W        W82481   9.643   7.821  21.253 -0.2347  0.2025  0.1494
39544W        W82482   9.058   8.203  21.800 -0.4580 -0.0898  0.1234
39545W        W82483   8.081   8.347  20.332 -0.3414  0.1675  0.1274
39546W        W82484   9.725  10.215  20.936  0.0481  0.1455 -0.2222
39547W        W82485   7.671   8.328  21.842 -0.1399 -0.0312  0.1247
39548W        W82486   9.823  10.953  21.681  0.1498  0.2817 -0.0690
39549W        W82487   9.579   9.589  21.609 -0.4725 -0.2548 -0.0152
39550W        W82488   9.426   9.150  18.880 -0.2016 -0.0003  0.1910
39551W        W82489   9.899   8.656  22.880 -0.1518  0.3092  0.1038
39552W        W82490   9.558  10.493  22.682  0.1835 -0.2828  0.1425
39553W        W82491   9.822   6.322  19.860 -0.0677 -0.0243 -0.1742
39554W        W82492   8.531   6.868  21.381 -0.3844 -0.0071 -0.1012
39555W        W82493  10.189   7.486  21.943 -0.3588 -0.0118  0.0477
39556W        W82494   6.860   8.785  19.969 -0.0562 -0.2379 -0.0332
39557W        W82495   8.499   8.071  23.283 -0.1094 -0.0200 -0.3373
39558W        W82496   9.957   6.870  20.724 -0.0185 -0.0676  0.0659
39559W        W82497   9.838  10.157  20.429 -0.1470 -0.0755 -0.3214
39560W        W82498   9.322   7.816  22.086 -0.1965  0.0310  0.1198
39561W        W82499  11.553   7.912  23.732 -0.1986  0.2707  0.3677
39562W        W82500   8.766   9.561  20.563 -0.1466 -0.0409  0.1227
39563W        W82501   6.350   6.687  18.769  0.4752 -0.0231 -0.0266
39564W        W82502   8.042   8.796  22.612  0.0280  0.0594  0.0129
39565W        W82503   8.418   8.413  22.442  0.2072 -0.0141  0.0604
39566W        W82504   8.764   6.940  21.820 -0.0785 -0.1023 -0.0432
39567W        W82505  10.394   8.066  21.975 -0.2684 -0.2566  0.0821
39568W        W82506   9.123  10.465  19.667  0.1699  0.1120  0.0708
39569W        W82507  10.417  11.140  21.275 -0.1967  0.0765  0.1686
39570W        W82508   9.845  10.114  21.401 -0.0305  0.1234 -0.0889
39571W        W82509   7.193   8.310  21.739  0.2984 -0.0331  0.1087
39572W        W82510   6.061  12.631  20.575 -0.1014  0.2060  0.3723
39573W        W82511   7.649  10.275  21.192  0.0962 -0.1575 -0.1161
39574W        W82512  10.852   9.963  21.205 -0.0599 -0.2849  0.3538
39575W        W82513  10.517  11.573  22.677  0.1691  0.1066  0.2639
39576W        W82514   7.899  10.016  20.783  0.0536 -0.1952 -0.0682
39577W        W82515   9.221   8.862  19.786  0.0288  0.0239 -0.0398
39578W        W82516   9.555  10.012  24.328  0.2194 -0.1909  0.1903
39579W        W82517   8.590  10.053  21.658 -0.2113  0.1268 -0.2876
39580W        W82518   9.147   8.670  21.889  0.0382 -0.0824 -0.1082
39581W        W82519   9.323   8.786  19.332  0.0633 -0.1061 -0.1889
39582W        W82520   8.492   8.519  19.248  0.0448  0.1220  0.0921
39583W        W82521   8.999   9.604  19.948  0.3282  0.1576  0.2532
39584W        W82522   7.123   8.875  23.470 -0.2207  0.2060  0.1344
39585W        W82523   7.244  10.039  21.338  0.1959  0.2789  0.0591
39586W        W82524  11.533   8.514  24.674  0.2756 -0.2278  0.4499
39587W        W82525   8.610   9.570  19.577  0.2159 -0.0509 -0.0739
39588W        W82526   9.065   8.198  20.465 -0.2515  0.1575  0.3454
39589W        W82527   8.749   7.439  19.621  0.0803 -0.3250  0.2966
39590W        W82528   9.907   8.731  21.075  0.3243 -0.0229  0.2855
39591W        W82529   7.758   8.454  20.694  0.1014  0.0594 -0.2162
39592W        W82530   7.668  11.298  21.565 -0.0597 -0.1886  0.2023
39593W        W82531   9.007   8.634  21.391  0.1225 -0.4130 -0.0765
39594W        W82532  10.890  10.376  20.844  0.3421  0.2015 -0.3158
39595W        W82533   7.581   9.470  19.650 -0.0543 -0.2991 -0.5416
39596W        W82534   9.486   8.971  23.032  0.0568 -0.0136  0.0895
39597W        W82535   9.091   9.836  23.033  0.1900  0.0035 -0.1605
39598W        W82536   8.254   7.884  20.578 -0.2834  0.2396  0.1247
39599W        W82537  10.781   9.883  20.006  0.1599  0.3552  0.2468
39600W        W82538  11.323  11.148  21.058 -0.1699  0.0867  0.1502
39601W        W82539   9.124   9.426  19.494 -0.0773 -0.1721 -0.2018
39602W        W82540   7.487   7.498  20.041  0.2153  0.3042  0.0668
39603W        W82541   7.814  10.752  24.718  0.0229  0.0808 -0.0658
39604W        W82542   8.259   9.401  22.277  0.4190  0.0386 -0.2653
39605W        W82543   8.931   7.642  19.082  0.0357  0.1270  0.1460
39606W        W82544  10.296  10.085  21.587 -0.2807  0.3240 -0.2349
39607W        W82545   8.969  11.110  24.205 -0.1765  0.0087  0.2302
39608W        W82546  10.218   7.756  19.487  0.2090  0.1910 -0.0054
39609W        W82547   9.511   9.002  20.702  0.1005 -0.2192 -0.0968
39610W        W82548   9.576  10.569  21.414 -0.0416 -0.0468 -0.0573
39611W        W82549   9.776   9.510  18.791 -0.1714 -0.0409 -0.1110
39612W        W82550   9.859   8.048  23.307  0.0726 -0.0843  0.0110
39613W        W82551  10.081   7.646  24.068  0.0864 -0.0932 -0.1136
39614W        W82552   6.179   8.745  20.140 -0.2527 -0.0942  0.0228
39615W        W82553   8.197   9.623  20.872 -0.0701 -0.2093  0.1738
39616W        W82554  11.543  10.751  22.078  0.0900 -0.2750  0.0505
39617W        W82555   9.964   9.217  19.798 -0.0731  0.0989  0.2081
39618W        W82556   7.635  10.448  21.688 -0.1118 -0.4679 -0.1087
39619W        W82557   8.992   8.113  23.161 -0.1544  0.0490 -0.0644
39620W        W82558   9.500   9.952  22.644 -0.0629 -0.2825  0.0416
39621W        W82559   7.634  11.015  19.107  0.2681  0.1461 -0.0048
39622W        W82560   7.397   9.743  20.908 -0.0336 -0.0523 -0.2728
39623W        W82561   6.542   8.463  19.617  0.2657 -0.2309 -0.2997
39624W        W82562   7.787   5.616  21.500  0.2540  0.0213  0.0799
39625W        W82563   8.772   9.436  22.919  0.0763 -0.1594 -0.0147
39626W        W82564  12.492   7.931  21.065  0.1027  0.0017 -0.2245
39627W        W82565   7.010   8.478  23.196 -0.0032  0.0197 -0.3410
39628W        W82566  10.506   7.763  22.386 -0.6253 -0.2069 -0.2378
39629W        W82567   7.291   9.952  19.234 -0.1944  0.0899  0.0459
39630W        W82568  11.252   9.913  20.853  0.2826 -0.0799  0.0274
39631W        W82569   9.488   9.585  19.163  0.1351  0.1336 -0.0017
39632W        W82570   9.266   8.897  18.258 -0.0238 -0.6302  0.1935
39633W        W82571   7.324   9.720  21.810 -0.0239  0.1370 -0.1084
39634W        W82572   6.102   8.209  19.916  0.1097 -0.0789  0.1086
39635W        W82573   9.972   6.604  20.217 -0.0592 -0.1604 -0.1487
39636W        W82574   8.531   8.527  23.256  0.1184 -0.0498  0.2987
39637W        W82575   9.381   8.434  23.039 -0.1260 -0.5651  0.4528
39638W        W82576   5.400   7.788  20.485 -0.0076  0.0717 -0.0313
39639W        W82577  11.294   7.196  22.636 -0.1322 -0.1185  0.2572
39640W        W82578   8.460   8.073  21.997  0.1246  0.0974  0.0655
39641W        W82579   6.291   9.596  21.050 -0.1115 -0.0515  0.3428
39642W        W82580  10.015   8.866  24.941  0.1864 -0.0666  0.1193
39643W        W82581  10.506  10.346  21.196 -0.0504  0.0374 -0.1974
39644W        W82582  11.120  10.715  22.577  0.1000 -0.1640 -0.3622
39645W        W82583  10.110  11.664  21.813 -0.3811 -0.1380 -0.0091
39646W        W82584   7.928   7.931  22.099 -0.1308 -0.2063 -0.0747
39647W        W82585   7.727   7.915  21.460  0.2441  0.2190 -0.0336
39648W        W82586   7.764   9.521  20.103 -0.0868 -0.0083 -0.1599
39649W        W82587   7.701   9.329  22.451 -0.0709  0.0900 -0.0089
39650W        W82588   8.821   6.531  22.216 -0.0621 -0.0480 -0.0253
39651W        W82589  10.716  10.298  21.727  0.2536  0.0913 -0.1826
39652W        W82590   8.457   7.947  21.087  0.0486 -0.5281  0.1264
39653W        W82591   7.096   9.969  22.367  0.2428  0.1727 -0.1393
39654W        W82592   9.552   7.507  24.189 -0.2124 -0.1762  0.0398
39655W        W82593  10.477   8.711  22.551  0.1748 -0.0101 -0.1542
39656W        W82594   9.236   9.052  22.226 -0.5773  0.0248 -0.0258
39657W        W82595   8.652   8.146  19.571 -0.2494 -0.1539  0.3210
39658W        W82596  10.674   8.883  21.470  0.0040  0.0510  0.1101
39659W        W82597   7.495  10.869  19.568 -0.1720 -0.1548 -0.0544
39660W        W82598   8.207   8.721  20.684 -0.0484 -0.2639 -0.0406
39661W        W82599   9.225   8.566  20.826  0.0290  0.5140 -0.0373
39662W        W82600  10.024   8.273  21.367 -0.0466  0.4225 -0.2659
39663W        W82601   7.476   8.804  24.355  0.3126  0.2644  0.2500
39664W        W82602   9.699   9.155  23.444  0.0919  0.1087  0.2245
39665W        W82603   7.935   8.694  19.720 -0.1750  0.1028  0.2454
39666W        W82604   6.872   9.703  21.958 -0.2816 -0.1715 -0.1917
39667W        W82605   9.664   7.351  20.983  0.1238 -0.0244 -0.2079
39668W        W82606   9.316   8.349  19.543 -0.0678  0.1361  0.1685
39669W        W82607  10.410   9.548  23.007  0.0379 -0.1592  0.3296
39670W        W82608   9.572   8.159  20.560 -0.1546 -0.2221 -0.0706
39671W        W82609   8.839   8.555  20.140 -0.1780  0.1077 -0.2870
39672W        W82610   9.218   6.951  19.043  0.2784 -0.0416  0.1697
39673W        W82611   8.022   9.197  23.960 -0.0280 -0.0058 -0.3276
39674W        W82612   7.838   9.778  19.346  0.1340  0.1522 -0.2139
39675W        W82613   8.997  10.032  23.534 -0.0391  0.0527  0.1200
39676W        W82614   9.076   8.172  19.919  0.0998  0.0536 -0.0613
39677W        W82615  10.390   9.525  19.733  0.3889 -0.0209  0.1073
39678W        W82616   7.322   9.233  22.862  0.1489 -0.1991  0.2041
39679W        W82617   8.750  10.598  23.300  0.1350  0.3237 -0.4887
39680W        W82618  11.696   9.577  21.031 -0.0656 -0.1240  0.0283
39681W        W82619   9.720   7.511  22.008 -0.0576 -0.1478 -0.2375
39682W        W82620   8.515   7.810  18.089 -0.1595  0.0617 -0.1838
39683W        W82621   8.467   7.442  21.087 -0.0729 -0.0621 -0.2528
39684W        W82622   6.839  11.484  20.994  0.0620 -0.4184 -0.0023
39685W        W82623  10.905   8.467  22.460 -0.0008 -0.0727  0.0010
39686W        W82624  10.211   8.182  22.423  0.1913  0.1350  0.1875
39687W        W82625   9.739   8.052  24.782  0.0897 -0.1134 -0.1330
39688W        W82626  10.800  11.108  22.811  0.1635  0.0045  0.3606
39689W        W82627  11.009   8.788  19.617 -0.1536 -0.2552  0.0707
39690W        W82628   8.691   8.692  20.877  0.0049  0.0456 -0.2486
39691W        W82629   5.603   8.533  19.691 -0.0032  0.1383  0.2043
39692W        W82630   9.696   8.522  23.433  0.1018  0.0939 -0.3229
39693W        W82631   8.727   8.270  21.420  0.1570  0.0335  0.0871
39694W        W82632   7.358  10.907  22.392 -0.4320  0.3235 -0.0277
39695W        W82633  10.118   9.660  24.648  0.1851 -0.0222  0.3192
39696W        W82634   9.078   9.292  20.278 -0.1403  0.1353  0.3298
39697W        W82635  12.154   6.871  25.522 -0.1276 -0.2769  0.0575
39698W        W82636   8.721   7.804  20.011 -0.0405  0.2603 -0.0747
39699W        W82637   8.614  10.747  20.327  0.1294 -0.4032 -0.0263
39700W        W82638   9.725   9.121  18.387  0.0124 -0.3749  0.2519
39701W        W82639   8.383   8.865  21.527  0.0919 -0.2263  0.2657
39702W        W82640   8.678   9.223  22.468 -0.2116 -0.0882 -0.1168
39703W        W82641   8.195  10.340  19.510 -0.1373 -0.1208  0.0138
39704W        W82642  10.049  10.658  21.008 -0.4025 -0.3586  0.0674
39705W        W82643   7.877   9.581  21.975  0.1109 -0.1002 -0.0700
39706W        W82644   9.291   8.786  23.476  0.0483 -0.0435 -0.2061
39707W        W82645   7.268  11.015  22.964  0.1454 -0.3580  0.1152
39708W        W82646   8.648   7.597  18.638 -0.0780  0.1922 -0.0452
39709W        W82647   6.577   8.208  21.834  0.3312 -0.0019 -0.3288
39710W        W82648  11.727   6.693  22.685 -0.0474 -0.1473 -0.2495
39711W        W82649  10.900   8.802  20.145  0.0615  0.0801 -0.1286
39712W        W82650   8.319   7.615  22.027  0.1789  0.0585 -0.2507
39713W        W82651  10.160   7.279  21.030 -0.0379 -0.0631 -0.0251
39714W        W82652   7.300  10.663  20.978  0.0656  0.1392  0.2444
39715W        W82653  10.022  10.122  22.439 -0.0116  0.1034 -0.1494
39716W        W82654  11.724   7.311  20.196 -0.2636 -0.1467 -0.2481
39717W        W82655  10.293  10.787  22.028  0.1304  0.0740 -0.2279
39718W        W82656   9.022   9.280  23.771 -0.1360 -0.1364  0.2878
39719W        W82657   7.815   7.515  19.390 -0.0706  0.1032 -0.1573
39720W        W82658  10.073   7.560  22.466  0.1372 -0.0257 -0.0656
39721W        W82659   8.927   7.860  21.201  0.0246  0.0771 -0.3063
39722W        W82660   5.703   9.114  21.387 -0.0737  0.1377  0.0331
39723W        W82661  10.826  10.234  20.365  0.0855 -0.3258 -0.1010
39724W        W82662   7.643   8.525  20.200  0.0274  0.0381 -0.0136
39725W        W82663   8.131  10.154  20.014 -0.2890  0.0327 -0.2095
39726W        W82664   9.299   8.777  23.970 -0.3720 -0.4208 -0.2079
39727W        W82665  10.093   8.886  21.605 -0.2519 -0.2518  0.1225
39728W        W82666   9.409   9.110  21.671  0.1585  0.0772  0.0215
39729W        W82667   7.475   7.799  20.992 -0.0005  0.0653  0.1352
39730W        W82668  10.456   8.699  23.030 -0.3274  0.1547 -0.2960
39731W        W82669  10.038   9.112  22.935 -0.1071  0.1070 -0.0772
39732W        W82670   9.792   8.689  23.902 -0.1951 -0.2970  0.2332
39733W        W82671   6.446  11.377  23.081 -0.1957  0.2701  0.0315
39734W        W82672   9.544   8.567  21.536  0.0814  0.1676  0.2039
39735W        W82673  10.470  10.600  20.050 -0.0335  0.0926 -0.0730
39736W        W82674   9.857  10.329  24.600 -0.1074 -0.0619 -0.1101
39737W        W82675   7.686   9.028  19.998 -0.0556 -0.2227  0.3213
39738W        W82676   7.244   9.407  20.635  0.1028  0.1508 -0.2988
39739W        W82677   8.883   8.569  19.583 -0.1243 -0.0190 -0.0333
39740W        W82678   9.071   8.329  23.580  0.3702 -0.0922 -0.2409
39741W        W82679   8.983   8.815  23.097  0.1250  0.0542 -0.1038
39742W        W82680   7.273   8.919  20.345  0.3720  0.0864  0.1308
39743W        W82681   8.719   9.501  21.050  0.0425 -0.0195  0.2063
39744W        W82682  11.017   7.094  21.521 -0.1144 -0.1643 -0.1611
39745W        W82683   9.258   9.386  18.485 -0.1591  0.0582  0.2007
39746W        W82684   9.808   8.619  20.574 -0.0892  0.0116 -0.0347
39747W        W82685  11.934   8.288  22.544  0.0780 -0.3992 -0.0265
39748W        W82686  10.752   9.198  20.405 -0.0809  0.1362  0.0538
39749W        W82687  10.492   7.500  23.872 -0.0237  0.1348 -0.2873
39750W        W82688   7.988   6.898  22.668 -0.0453 -0.0867  0.2267
39751W        W82689   9.000   8.123  19.179  0.2163 -0.2058  0.0857
39752W        W82690   6.716   8.016  23.433  0.2735  0.0809  0.1401
39753W        W82691   8.755  10.291  23.960 -0.2501 -0.0554  0.0548
39754W        W82692   6.988  10.705  23.526  0.1753  0.2471 -0.4180
39755W        W82693   8.604   8.943  20.448 -0.1261 -0.3790 -0.0827
39756W        W82694   8.813   7.215  20.100  0.0537  0.3428  0.1138
39757W        W82695   8.910   8.445  22.735  0.1386  0.3674 -0.0117
39758W        W82696   9.928   9.266  20.794  0.0358  0.0580  0.0198
39759W        W82697   8.285  10.605  19.104 -0.1545 -0.3104 -0.0161
39760W        W82698   9.596   8.389  22.125 -0.2649  0.1518  0.0595
39761W        W82699   9.886   9.344  21.867 -0.2980 -0.1982 -0.1911
39762W        W82700   9.712   8.958  20.196 -0.2516  0.0431  0.0538
39763W        W82701   7.712   8.946  20.562  0.2938 -0.1490 -0.1510
39764W        W82702   8.194   9.169  19.864  0.1862 -0.0138 -0.2438
39765W        W82703   8.610   8.376  23.758  0.1599  0.1641  0.1641
39766W        W82704   8.513   9.369  21.699  0.1239  0.3416 -0.1600
39767W        W82705  10.439   9.409  20.768  0.3924 -0.2736  0.1555
39768W        W82706  10.007   9.214  23.874 -0.1974  0.0998 -0.3745
39769W        W82707  10.502   9.226  23.794  0.1502  0.0654  0.0232
39770W        W82708   8.802   8.731  22.353 -0.0300  0.1587 -0.1597
39771W        W82709   7.671   8.040  23.996  0.0772  0.1726  0.0481
39772W        W82710   9.761  10.169  23.863 -0.1677 -0.0392  0.1282
39773W        W82711   9.588   7.971  19.789 -0.2504  0.3582  0.0374
39774W        W82712  10.719   8.374  23.371  0.1888  0.1729 -0.0141
39775W        W82713   9.269   8.212  21.296  0.1483 -0.2624 -0.0423
39776W        W82714  10.137   9.215  20.341  0.1937  0.1577  0.2684
39777W        W82715   7.280   6.635  20.502 -0.0756  0.4748  0.2902
39778W        W82716  11.026   9.553  22.612  0.0505  0.1039 -0.0967
39779W        W82717   8.303   8.015  20.060 -0.0247  0.0065  0.0743
39780W        W82718  11.545   8.553  22.695 -0.1112 -0.0789  0.1229
39781W        W82719   7.632   9.983  18.877  0.0714 -0.0212  0.1091
39782W        W82720   9.382   9.860  20.069  0.0804  0.1687 -0.0432
39783W        W82721   8.982   7.497  21.895  0.2115  0.1014  0.1437
39784W        W82722   6.551   7.711  22.733 -0.0733 -0.1736 -0.2739
39785W        W82723   8.209  10.058  22.065  0.0208  0.2131  0.0503
39786W        W82724   7.944   7.099  19.977 -0.3469  0.4253 -0.0960
39787W        W82725   7.321   8.730  19.269  0.4764  0.6600 -0.1058
39788W        W82726   8.595   9.993  20.306 -0.0924 -0.0016  0.0282
39789W        W82727  10.519   9.161  23.262 -0.0606  0.0818  0.3752
39790W        W82728  10.584   6.651  19.416  0.0842  0.0537 -0.2010
39791W        W82729  11.114   8.657  24.872 -0.1817 -0.1720  0.2567
39792W        W82730   7.748  10.400  19.302 -0.0903  0.1852  0.1335
39793W        W82731   8.817   7.056  21.021 -0.0644 -0.0934  0.0970
39794W        W82732   8.972  10.851  20.005  0.0752  0.0104 -0.1036
39795W        W82733   6.470  10.433  23.343 -0.0040  0.0217  0.0352
39796W        W82734   8.115   9.808  20.387  0.0607  0.0443 -0.2089
39797W        W82735   9.797   8.187  22.780 -0.1146  0.0095 -0.1560
39798W        W82736   9.902   7.926  22.188 -0.3278  0.0433 -0.0740
39799W        W82737   9.836   9.743  21.060 -0.0488 -0.3302  0.0457
39800W        W82738  11.061   7.891  22.758  0.0824  0.1854  0.3308
39801W        W82739   9.828  10.709  22.339  0.2587  0.2964 -0.1420
39802W        W82740   8.639   8.565  21.882  0.1543 -0.2047 -0.1318
39803W        W82741   9.156   9.987  22.012 -0.0459  0.0904 -0.0163
39804W        W82742  10.367   9.825  21.147  0.1416  0.0030 -0.0090
39805W        W82743   8.150   8.101  21.612 -0.0752 -0.2397 -0.1879
39806W        W82744   7.144   8.221  23.634  0.3065 -0.1083 -0.0709
39807W        W82745   8.477   9.260  23.742 -0.2130  0.1326 -0.1040
39808W        W82746   8.577   9.414  19.093  0.2153  0.2987  0.1838
39809W        W82747   8.995   6.829  18.526  0.0493  0.0684 -0.0186
39810W        W82748   9.229   9.963  19.589 -0.3161  0.0257  0.0773
39811W        W82749   7.454  10.116  22.800 -0.3117  0.1349 -0.0083
39812W        W82750   8.464   9.132  20.923 -0.2193 -0.4091  0.0262
39813W        W82751   8.141  11.305  21.822 -0.3195 -0.1237  0.1141
39814W        W82752   9.405   8.910  21.186  0.1559 -0.2100  0.2351
39815W        W82753   9.480   9.318  18.030  0.0271  0.3344 -0.0190
39816W        W82754   9.492  11.178  20.534 -0.1301 -0.0355  0.3739
39817W        W82755   9.104   7.269  20.550  0.1305  0.1182  0.3216
39818W        W82756   7.760  10.511  19.818 -0.0439  0.0182 -0.1263
39819W        W82757   6.998  10.131  19.865 -0.1791 -0.1055  0.1278
39820W        W82758  11.117   9.725  20.388 -0.1548  0.1355  0.1259
39821W        W82759   8.814   9.646  22.029 -0.1424  0.2110 -0.0096
39822W        W82760   8.857   9.585  23.443 -0.2220  0.0778  0.0229
39823W        W82761  10.761   7.442  19.367 -0.1091 -0.0031  0.0329
39824W        W82762   9.030   9.525  22.515 -0.0452 -0.1297 -0.0381
39825W        W82763   9.663   8.310  21.012 -0.0730 -0.1980  0.0260
39826W        W82764  10.237   9.917  23.359  0.2267  0.0157 -0.1696
39827W        W82765   9.097   8.268  22.295 -0.0024 -0.0540  0.2411
39828W        W82766   9.033   7.816  19.532 -0.0055  0.0626 -0.0282
39829W        W82767   8.388   9.611  23.304 -0.1607 -0.1047 -0.2796
39830W        W82768  10.215   7.775  22.894 -0.0631 -0.0102  0.1321
39831W        W82769   6.591  12.127  23.670  0.0918 -0.0896 -0.1527
39832W        W82770  10.680   9.863  20.674 -0.0404  0.0919  0.4025
39833W        W82771   6.654   8.269  20.122  0.3901 -0.2479  0.3577
39834W        W82772   8.388   8.556  19.959 -0.2857 -0.1196 -0.1543
39835W        W82773  11.661   7.162  21.222 -0.0525  0.2100  0.0950
39836W        W82774   8.980   8.581  19.059 -0.1870 -0.1895 -0.0766
39837W        W82775   9.974   8.669  22.361  0.1435  0.4432 -0.3690
39838W        W82776   9.279  10.341  20.578  0.0515 -0.1663 -0.0546
39839W        W82777   8.160   9.683  19.844  0.0014 -0.0834 -0.2203
39840W        W82778   9.033  10.375  22.926 -0.2696 -0.4256  0.3303
39841W        W82779   6.795   8.052  18.767  0.2411 -0.0011  0.0773
39842W        W82780  10.715   8.025  20.641 -0.1824 -0.0624  0.1144
39843W        W82781   8.759   7.727  22.277  0.2259 -0.2117  0.0072
39844W        W82782  11.400   7.310  24.961 -0.4844 -0.0628  0.1610
39845W        W82783   8.347   7.363  19.194  0.1415  0.1871 -0.0204
39846W        W82784  10.786   7.145  20.553 -0.0463  0.0369  0.1085
39847W        W82785   9.338   9.490  22.008  0.3506 -0.1485  0.0021
39848W        W82786   7.232   8.380  22.749 -0.2079  0.0519 -0.2572
39849W        W82787   8.537   7.418  20.546 -0.1336  0.1962 -0.0002
39850W        W82788   8.790   9.034  21.915 -0.2234 -0.1990  0.1067
39851W        W82789   9.448   8.274  18.973 -0.0183  0.1266 -0.0728
39852W        W82790   9.688   9.970  23.392 -0.0045  0.1998  0.2078
39853W        W82791   6.996   8.058  22.074  0.0683 -0.0391  0.2123
39854W        W82792   8.884   8.258  20.947 -0.2263  0.3344 -0.2432
39855W        W82793   7.128   9.348  20.111 -0.1202 -0.0752 -0.0436
39856W        W82794   9.152   9.296  23.189  0.0934 -0.1928 -0.0109
39857W        W82795  10.724  10.108  23.778  0.0724  0.2101  0.0097
39858W        W82796  10.735   6.847  22.102 -0.2549 -0.1549 -0.0340
39859W        W82797   9.641   9.183  19.373 -0.3048 -0.0581 -0.0320
39860W        W82798  11.535   9.084  21.447 -0.1358 -0.2344 -0.0492
39861W        W82799   8.614   9.953  18.808 -0.0605 -0.3400  0.0056
39862W        W82800   9.007   9.069  20.848 -0.0593 -0.0356  0.1445
39863W        W82801   9.205  10.343  21.115 -0.3727 -0.0836 -0.0484
39864W        W82802   8.211   6.833  21.753  0.1975 -0.2119 -0.4908
39865W        W82803   9.085   9.536  21.593  0.0358  0.0149  0.0910
39866W        W82804  11.528  10.325  21.682  0.1552  0.1241 -0.1022
39867W        W82805   8.820   7.782  20.690 -0.1606  0.1664 -0.1678
39868W        W82806   9.259   7.708  21.503  0.1878 -0.2520 -0.1898
39869W        W82807   7.670   9.797  18.402  0.0001 -0.0527 -0.2287
39870W        W82808  10.756   7.462  21.268  0.1895  0.2251 -0.0861
39871W        W82809  10.178   8.604  24.502 -0.2039 -0.0667  0.1931
39872W        W82810   8.399   9.901  19.270  0.1409  0.1395 -0.0897
39873W        W82811  10.300   7.270  22.883 -0.2324  0.0378 -0.2750
39874W        W82812   9.825  11.208  22.181  0.3487  0.2594  0.4422
39875W        W82813   8.397  10.592  23.693  0.1712 -0.0038 -0.1184
39876W        W82814   7.319   8.727  20.858  0.2715 -0.1584  0.3573
39877W        W82815   8.951   9.956  21.299  0.0879 -0.0832 -0.1276
39878W        W82816   9.003  10.246  20.102  0.2731 -0.0922 -0.1791
39879W        W82817  10.333  10.122  20.206  0.3569 -0.0850 -0.0164
39880W        W82818   9.930  10.426  21.892  0.0776  0.1366  0.0643
39881W        W82819   9.457   8.743  22.527  0.1539  0.0363  0.1494
39882W        W82820  12.849   9.234  21.371 -0.1401  0.1422 -0.1317
39883W        W82821   8.050   7.137  21.311  0.1350 -0.0394 -0.1691
39884W        W82822   9.157   7.561  19.944 -0.3305  0.0004 -0.3196
39885W        W82823   9.756   8.821  21.955 -0.0099 -0.1607 -0.4607
39886W        W82824   8.383   9.828  22.602  0.0884 -0.1162  0.3536
39887W        W82825   8.485   9.164  17.684  0.2272  0.4266 -0.1102
39888W        W82826   8.877   9.035  19.216 -0.2690 -0.1592 -0.0588
39889W        W82827   8.297   8.895  22.170  0.3041 -0.0839 -0.0011
39890W        W82828  10.203   6.985  24.748 -0.0779 -0.4691 -0.0546
39891W        W82829   8.033   8.810  23.147 -0.0020 -0.2371 -0.0541
39892W        W82830   8.117   9.629  21.545  0.1045 -0.2462  0.1504
39893W        W82831   8.403   6.867  20.182 -0.1524  0.0184 -0.0039
39894W        W82832  11.033   9.433  20.829  0.0244 -0.0936 -0.2804
39895W        W82833   7.460   7.836  22.345  0.3110 -0.2088  0.1663
39896W        W82834   9.750   6.541  21.914  0.1763 -0.1434  0.0305
39897W        W82835   9.388   9.899  21.067  0.1449 -0.0127 -0.1118
39898W        W82836  10.287   9.212  21.224  0.0112 -0.1475 -0.1763
39899W        W82837   8.046   6.393  22.534  0.1663  0.0095  0.1303
39900W        W82838  10.305  10.620  22.490 -0.2441  0.1996 -0.1512
39901W        W82839   6.651   8.865  20.413 -0.1355 -0.0659 -0.2013
39902W        W82840   9.940   8.103  24.324  0.1417 -0.1603  0.3416
39903W        W82841   8.646   7.975  22.777  0.1690 -0.2550  0.0695
39904W        W82842   7.244   7.041  18.835  0.0897 -0.0953 -0.1169
39905W        W82843   9.623   8.197  23.828 -0.4563 -0.0563  0.1004
39906W        W82844   9.751   9.682  22.364  0.0454  0.3908  0.1310
39907W        W82845   9.031   9.518  18.934 -0.2028  0.1581 -0.2781
39908W        W82846   7.865   9.641  23.237  0.3158 -0.1407  0.0255
39909W        W82847   8.107  11.086  22.839 -0.0974  0.3159 -0.0841
39910W        W82848   7.418   7.761  21.857 -0.1060  0.0330  0.4428
39911W        W82849  10.156   8.663  20.109 -0.1714  0.4135 -0.2456
39912W        W82850   9.457   9.374  22.726  0.1056  0.0414  0.0770
39913W        W82851  11.249   9.573  21.264 -0.2683 -0.0018  0.0795
39914W        W82852  10.847   9.039  22.350  0.0345  0.1663  0.2916
39915W        W82853   8.871   9.174  21.377  0.1349 -0.0515 -0.1872
39916W        W82854   8.120   7.723  24.018 -0.1620 -0.0659 -0.2003
39917W        W82855   7.654   8.692  23.539 -0.0951  0.0743 -0.2407
39918W        W82856  10.061   8.404  21.877  0.0964  0.1165 -0.1288
39919W        W82857   8.203   4.627  22.031  0.0469  0.2700 -0.3105
39920W        W82858   8.027   7.592  20.972 -0.0744 -0.0947 -0.0152
39921W        W82859   9.158  11.314  20.181 -0.2255 -0.3195 -0.0975
39922W        W82860   8.937   7.335  21.404 -0.0253 -0.3357 -0.3245
39923W        W82861   9.705   8.757  19.681  0.2368  0.0306  0.1346
39924W        W82862  10.289   8.248  23.152  0.1949 -0.0620  0.0795
39925W        W82863   8.861   9.961  22.445 -0.0090  0.3167 -0.0022
39926W        W82864   9.053   9.046  22.693  0.2514  0.0590  0.1044
39927W        W82865   7.953   7.686  19.859  0.1670  0.0228 -0.0249
39928W        W82866  10.430   9.037  19.937  0.2362  0.0453 -0.0566
39929W        W82867   9.274  10.892  22.377 -0.2427 -0.0152  0.2713
39930W        W82868  10.782  11.409  22.223 -0.0443 -0.1421 -0.1220
39931W        W82869  10.109  11.037  20.620  0.0865 -0.0613 -0.2120
39932W        W82870  11.327   8.348  20.848  0.1725 -0.1035 -0.0214
39933W        W82871   8.855   6.019  21.309 -0.0964 -0.2877 -0.0559
39934W        W82872   8.575   8.262  20.522  0.2883 -0.2406 -0.1591
39935W        W82873   8.313   8.422  21.151  0.0904  0.2108 -0.0441
39936W        W82874   9.733   9.180  22.339  0.1257 -0.2512  0.0473
39937W        W82875   8.704   7.792  21.603 -0.0369 -0.1046  0.3827
39938W        W82876   9.558   6.742  20.039  0.1385 -0.4555 -0.2285
39939W        W82877   8.927  10.735  22.005 -0.0987 -0.1363  0.2333
39940W        W82878   9.312   9.394  21.044  0.0226 -0.5107  0.1526
39941W        W82879   7.603  11.337  26.853 -0.1921 -0.0472  0.1798
39942W        W82880   7.707   9.230  24.308  0.2093  0.0414  0.2117
39943W        W82881  11.302   8.689  22.225 -0.0787 -0.1877  0.1306
39944W        W82882  12.298   9.466  24.561 -0.0569 -0.0655  0.2862
39945W        W82883   7.704   7.912  26.983 -0.1495 -0.3248  0.3411
39946W        W82884   9.679  12.603  25.781 -0.1718 -0.1389 -0.1247
39947W        W82885   6.972   5.798  25.780  0.1021 -0.0283  0.0171
39948W        W82886  10.315   8.573  25.690  0.1068  0.0455  0.2338
39949W        W82887  10.881  10.120  26.403  0.1880 -0.1946  0.0262
39950W        W82888  10.937   8.922  23.874 -0.5016 -0.0942  0.1767
39951W        W82889  10.084   9.599  27.124 -0.0447  0.0428  0.0981
39952W        W82890   9.706   8.833  26.648 -0.2234 -0.0749 -0.0006
39953W        W82891   8.720   8.839  24.787  0.1472  0.2029  0.1518
39954W        W82892   7.265   7.343  25.782  0.0225  0.3273 -0.0680
39955W        W82893  11.429   7.786  26.386 -0.2054  0.1549 -0.1525
39956W        W82894   7.614   8.953  25.223  0.1623 -0.3604  0.1822
39957W        W82895   8.544   7.453  26.739  0.2428 -0.0463  0.0555
39958W        W82896   9.126   8.120  26.380 -0.3337 -0.3375 -0.0586
39959W        W82897   9.215  10.634  27.152  0.0196 -0.0803  0.1153
39960W        W82898   8.937   8.466  27.785 -0.3265 -0.1793  0.1660
39961W        W82899   9.519   8.786  25.726  0.3380 -0.1042  0.2481
39962W        W82900   8.185  10.146  24.061  0.1261 -0.1302 -0.2136
39963W        W82901   7.287   7.750  23.656  0.0448 -0.2986 -0.0097
39964W        W82902   7.064   8.521  25.122 -0.0012  0.0778 -0.1476
39965W        W82903   8.003   9.592  26.279  0.5265  0.0243  0.2133
39966W        W82904  10.318   7.291  26.473 -0.1117 -0.1697  0.0670
39967W        W82905  11.074   9.139  26.386 -0.1110  0.0537  0.1446
39968W        W82906   7.925  11.090  25.240 -0.0915  0.1303  0.2387
39969W        W82907   9.989   9.986  25.665 -0.1452  0.3637 -0.0897
39970W        W82908   9.886   7.470  26.633  0.1633 -0.0492  0.1028
39971W        W82909   7.204   9.935  24.992  0.0006  0.2110  0.0969
39972W        W82910   7.529  11.320  25.405 -0.3589  0.0895 -0.3108
39973W        W82911   7.173  11.722  23.528 -0.1176 -0.1632 -0.2666
39974W        W82912  10.085  10.004  24.265  0.0703  0.1713  0.0058
39975W        W82913   9.582  10.811  26.202  0.0507  0.0912  0.2466
39976W        W82914   9.369  10.253  26.819  0.1276  0.1509 -0.0375
39977W        W82915   7.727  10.545  25.191  0.2444 -0.2483 -0.3274
39978W        W82916   8.474  11.014  25.835 -0.0934  0.0344 -0.0950
39979W        W82917   8.461  10.561  26.749  0.2089  0.3345  0.0763
39980W        W82918   9.066   7.499  26.883  0.3381  0.3142  0.2120
39981W        W82919   9.841   9.464  25.681  0.0851 -0.1416 -0.0587
39982W        W82920   8.580  10.322  22.589 -0.2807  0.0247  0.1752
39983W        W82921   8.837   8.735  24.230 -0.0894 -0.3672 -0.0238
39984W        W82922   9.229   9.446  27.871  0.0154 -0.1153 -0.1096
39985W        W82923   7.757   9.636  24.738  0.0153  0.3315 -0.0827
39986W        W82924  11.141   8.041  28.487  0.1719 -0.1016 -0.2125
39987W        W82925   8.120  10.599  24.350 -0.0868  0.0331  0.1568
39988W        W82926  10.361   7.867  24.965  0.0727 -0.2192  0.2156
39989W        W82927  10.550   8.640  23.725 -0.2313  0.0112  0.0220
39990W        W82928  10.379   7.405  25.453  0.0427 -0.1601 -0.2165
39991W        W82929   8.114   7.677  24.934  0.2218 -0.0810 -0.3646
39992W        W82930   7.371  11.875  25.682 -0.0239  0.0733  0.0006
39993W        W82931   9.058   7.027  26.057 -0.1675 -0.1206 -0.0435
39994W        W82932  10.079  10.483  27.649  0.0503  0.1711 -0.1244
39995W        W82933   9.507   8.702  25.080 -0.2183 -0.2781 -0.3205
39996W        W82934   9.717  10.547  26.679  0.0003  0.1987 -0.0312
39997W        W82935   8.181  11.238  26.862 -0.0774  0.2583 -0.0299
39998W        W82936   8.361   9.034  25.536  0.0533 -0.0050  0.1932
39999W        W82937   9.845   9.615  22.902  0.1837  0.1692 -0.0869
40000W        W82938  10.105  11.289  25.421 -0.0221  0.0029  0.0120
40001W        W82939   9.514   9.290  23.857 -0.1197  0.2915  0.0740
40002W        W82940   8.309   8.063  25.866  0.0507 -0.3209  0.4713
40003W        W82941   7.123   9.987  26.647  0.1215 -0.0125 -0.1756
40004W        W82942   6.809   8.652  25.519  0.1823 -0.0285  0.2728
40005W        W82943   8.194   7.926  22.519  0.0260 -0.3955 -0.2305
40006W        W82944  10.895  10.074  26.924  0.3119  0.0336 -0.0324
40007W        W82945   7.720  10.043  25.026  0.5507  0.0301  0.1128
40008W        W82946  10.275   8.148  26.161 -0.0126 -0.1802 -0.1528
40009W        W82947   8.937  11.231  25.621 -0.1694 -0.1069 -0.0561
40010W        W82948   9.961  11.219  26.211 -0.1644 -0.0070 -0.0239
40011W        W82949   9.522  10.262  22.245  0.0174 -0.1140  0.0488
40012W        W82950  10.549   8.488  26.390 -0.0301  0.2011 -0.1013
40013W        W82951  11.188   6.909  25.628  0.3161 -0.1204 -0.0403
40014W        W82952   8.154   9.266  24.545  0.2171 -0.1014  0.2404
40015W        W82953   9.134   9.437  24.227  0.2128  0.3331  0.0241
40016W        W82954   9.849  11.417  27.195 -0.0360  0.1894 -0.0219
40017W        W82955  10.958   7.665  23.674 -0.0445 -0.0330 -0.0731
40018W        W82956   7.138  11.339  24.919  0.2425 -0.2044  0.0533
40019W        W82957   9.539   8.380  26.593  0.1711  0.1573 -0.0655
40020W        W82958   9.050   9.733  27.449  0.0281  0.3587  0.2598
40021W        W82959   8.223  10.352  20.476 -0.0272 -0.1831 -0.0031
40022W        W82960   6.695   9.960  25.768 -0.0266  0.0732  0.1079
40023W        W82961   8.483  10.011  23.603  0.2897 -0.3592 -0.1381
40024W        W82962   7.679   8.734  26.517  0.1542  0.3803  0.1962
40025W        W82963   8.563  10.221  25.148  0.0382 -0.2668  0.0426
40026W        W82964  10.725   8.660  24.324  0.0276 -0.1650  0.0454
40027W        W82965   8.360   7.630  27.598 -0.0300  0.0919  0.1163
40028W        W82966  10.990   8.284  25.484 -0.0564 -0.0450 -0.0610
40029W        W82967   9.070  10.002  24.470 -0.1520  0.1851 -0.0367
40030W        W82968  10.132  10.162  25.122  0.5321 -0.1322 -0.2281
40031W        W82969  10.731   9.188  24.265  0.0784 -0.0431 -0.0962
40032W        W82970  10.696   9.620  23.469 -0.1194  0.2503  0.0317
40033W        W82971   8.148  10.006  25.259  0.2319 -0.0210 -0.0525
40034W        W82972   7.405   8.516  23.979  0.0034  0.0281  0.4344
40035W        W82973   7.618   7.451  27.178 -0.0010  0.1849  0.4266
40036W        W82974   7.560   7.401  26.163  0.1960  0.0651 -0.0827
40037W        W82975  10.316   8.038  28.033 -0.1364  0.2795 -0.2870
40038W        W82976   7.128   7.451  22.160 -0.0406 -0.0837  0.2811
40039W        W82977  11.963   9.203  25.310 -0.1664  0.1888 -0.0350
40040W        W82978   9.156   9.848  25.772  0.0883 -0.3113 -0.2414
40041W        W82979   9.270  10.398  24.652  0.0923  0.0930  0.0787
40042W        W82980   9.660   7.107  27.170  0.3395  0.0031  0.0963
40043W        W82981   9.094  11.401  24.642  0.1124  0.0253  0.1364
40044W        W82982  10.838  11.257  25.957  0.1326 -0.3378 -0.0015
40045W        W82983  10.082  11.220  24.195 -0.2919  0.0021  0.0599
40046W        W82984   9.064   7.576  26.179 -0.2772 -0.0259 -0.0037
40047W        W82985   7.182   8.033  24.168  0.2816 -0.3103 -0.1233
40048W        W82986   6.002  11.369  24.650 -0.0128  0.1003  0.3619
40049W        W82987   8.608   9.925  24.422  0.0949 -0.4563 -0.0121
40050W        W82988   8.364   7.955  24.519 -0.3003  0.1010 -0.0496
40051W        W82989   8.672  11.614  24.600 -0.1302 -0.2961  0.2397
40052W        W82990  10.355   9.326  24.950  0.0128  0.2170  0.0814
40053W        W82991   6.096  10.293  25.186  0.1418  0.1005  0.0486
40054W        W82992   9.058   6.152  26.841 -0.2157  0.1752 -0.0939
40055W        W82993   9.841   8.032  26.417 -0.3304  0.0595  0.1396
40056W        W82994  10.109   8.342  23.668  0.1148 -0.0288  0.0193
40057W        W82995   7.658   8.252  23.353 -0.1660 -0.0544  0.2466
40058W        W82996   9.716  10.933  25.195 -0.2239 -0.1706 -0.0619
40059W        W82997   7.740  11.943  24.571 -0.2146 -0.0817 -0.0060
40060W        W82998   7.583   8.590  24.874 -0.1484 -0.4967 -0.1612
40061W        W82999   7.687  12.188  25.479  0.0780  0.2586  0.0287
40062W        W83000  10.821   7.236  26.817 -0.2414  0.1133 -0.1012
40063W        W83001   8.072   9.310  27.328  0.0255  0.1339 -0.1886
40064W        W83002   9.375   7.207  26.491 -0.1888  0.1428 -0.0420
40065W        W83003   8.025  10.118  23.573 -0.1762 -0.1225 -0.0117
40066W        W83004   7.671  10.922  27.286 -0.1543 -0.0843 -0.1724
40067W        W83005  11.745   6.751  24.881 -0.0916  0.1511 -0.0665
40068W        W83006  11.994   8.030  25.450 -0.3392 -0.3520 -0.2828
40069W        W83007  10.271  10.834  25.458 -0.0254 -0.2044 -0.3037
40070W        W83008  10.494  10.295  24.166  0.2704  0.2510  0.0692
40071W        W83009  11.116   8.457  24.047  0.2244 -0.0167 -0.1374
40072W        W83010  11.376   7.439  23.965  0.3573 -0.0217  0.1290
40073W        W83011   8.163  10.684  27.194  0.1582  0.0741  0.0987
40074W        W83012   9.936  10.976  25.817  0.1447  0.1730 -0.2111
40075W        W83013   7.310  11.147  24.394 -0.0550 -0.1420  0.1659
40076W        W83014   9.195   8.903  24.641  0.1312 -0.0292  0.0836
40077W        W83015  10.082  10.823  23.753 -0.1096  0.0653 -0.1030
40078W        W83016   7.876  10.245  25.579 -0.2619 -0.2778 -0.1680
40079W        W83017  10.545  11.504  26.765 -0.1324  0.2348  0.3918
40080W        W83018  10.843   9.568  25.429  0.2397  0.0280 -0.1033
40081W        W83019   8.586   7.858  26.354 -0.3619 -0.1195  0.4989
40082W        W83020   9.048   8.546  25.040  0.0605  0.1744  0.0313
40083W        W83021   8.215   8.291  26.348  0.1385  0.1457  0.0197
40084W        W83022   6.076  10.769  23.872  0.0508 -0.3383 -0.3230
40085W        W83023  10.574   8.923  26.686  0.1391  0.2170 -0.3795
40086W        W83024   8.724   7.715  25.832 -0.1016  0.0003 -0.1098
40087W        W83025   8.724   7.226  25.726 -0.1361 -0.4601 -0.0711
40088W        W83026   9.864   9.244  27.366 -0.1237 -0.0981  0.0105
40089W        W83027  11.624   8.423  24.192  0.1514 -0.2754 -0.2866
40090W        W83028  10.394  10.210  26.105 -0.2117  0.0284  0.0102
40091W        W83029   8.774   8.850  23.605 -0.2248  0.0957 -0.0137
40092W        W83030  10.049   8.183  27.601  0.4451 -0.2503  0.1514
40093W        W83031   9.213   9.813  26.376  0.0124  0.0229  0.2076
40094W        W83032   5.057  10.253  25.302  0.1767  0.4900  0.1614
40095W        W83033   9.878  10.056  27.874  0.0910  0.1137 -0.0146
40096W        W83034  10.314   9.585  25.610 -0.2771  0.0927  0.3729
40097W        W83035   8.669   7.371  27.257 -0.0131  0.1092 -0.4248
40098W        W83036   8.028   7.314  25.321  0.3805 -0.1105 -0.1173
40099W        W83037   8.675  10.983  24.610 -0.0041 -0.0677  0.1165
40100W        W83038   8.462   9.602  25.220 -0.2821 -0.1751  0.0213
40101W        W83039   9.412   7.394  24.673  0.0011 -0.1353  0.0111
40102W        W83040   8.686  11.036  26.721  0.1209  0.1366  0.0441
40103W        W83041   8.392  10.514  21.855 -0.0224 -0.0997  0.3007
40104W        W83042   9.056  10.271  27.430 -0.2625 -0.2799  0.0849
40105W        W83043   9.050  10.269  25.482 -0.1092  0.3325  0.0152
40106W        W83044   9.690   7.742  27.514 -0.0063 -0.1015  0.1274
40107W        W83045   6.909  10.867  24.956  0.0551 -0.1312  0.0125
40108W        W83046   8.124   8.238  22.948 -0.1257  0.2260  0.0979
40109W        W83047   7.310   8.289  24.609  0.0277  0.2194  0.1895
40110W        W83048  11.595   7.735  25.760  0.1328  0.1117  0.2247
40111W        W83049  11.054   8.741  23.382  0.0489  0.0317  0.2347
40112W        W83050   7.655   8.436  25.982  0.1162 -0.0374  0.0628
40113W        W83051   9.283   8.906  26.247 -0.2411  0.2129  0.1264
40114W        W83052   6.734   9.912  26.314 -0.1546 -0.3115 -0.0600
40115W        W83053  10.285   7.830  25.778  0.1638  0.2108 -0.1783
40116W        W83054  10.647   7.104  25.188  0.0112 -0.2759 -0.2057
40117W        W83055   9.754  10.484  27.195  0.0166  0.2746  0.1476
40118W        W83056   9.544   8.955  27.088  0.1046  0.1890 -0.1243
40119W        W83057   7.046   9.116  24.316 -0.0025  0.0640 -0.1515
40120W        W83058  10.958   8.033  27.306  0.0178  0.0398 -0.2781
40121W        W83059   8.238   7.440  25.784 -0.1159  0.4031  0.0146
40122W        W83060   8.384  10.499  25.826  0.1936  0.0878  0.0228
40123W        W83061   9.457  11.240  25.982  0.0434  0.1551  0.1181
40124W        W83062   8.332   8.441  24.795  0.0658 -0.4330  0.0014
40125W        W83063   9.286   9.963  24.997 -0.1618 -0.3261 -0.0797
40126W        W83064   8.178   8.712  26.653 -0.1182 -0.4354 -0.1781
40127W        W83065  10.739   9.545  24.665 -0.1241 -0.0823 -0.1724
40128W        W83066   9.090   8.369  25.541 -0.1312  0.0565 -0.0123
40129W        W83067   8.800   8.292  24.659  0.2211 -0.2316  0.1276
40130W        W83068  10.587   8.672  25.201  0.0831  0.0959 -0.1175
40131W        W83069   9.426  10.301  25.877  0.0071 -0.0932  0.1115
40132W        W83070  10.632   8.140  26.739 -0.1380  0.2102  0.2792
40133W        W83071   8.713  10.548  27.187 -0.2925 -0.2031  0.0235
40134W        W83072   8.175   6.500  25.714  0.1006  0.0074  0.0177
40135W        W83073   9.764  11.850  23.781  0.0415  0.1119  0.1549
40136W        W83074  10.046   8.551  26.422  0.0191 -0.1167  0.2214
40137W        W83075   7.880   8.713  24.017 -0.0534 -0.1161 -0.0944
40138W        W83076   6.805  11.176  24.269 -0.0106 -0.3128 -0.1364
40139W        W83077   9.517   9.130  24.321  0.0486 -0.2157  0.1445
40140W        W83078   9.190   7.700  27.507 -0.2981  0.1427 -0.0027
40141W        W83079   9.181  10.405  26.355  0.1894 -0.3935 -0.2437
40142W        W83080   6.108   9.808  22.890  0.1414  0.0120 -0.0163
40143W        W83081   7.764   9.963  25.989  0.2751  0.0549  0.1040
40144W        W83082  11.831   7.251  25.205 -0.0674 -0.1135 -0.1425
40145W        W83083   8.621  10.053  23.092 -0.4336  0.0957  0.1765
40146W        W83084   9.360   8.408  26.056  0.1633  0.0434  0.1143
40147W        W83085  11.255   8.795  26.695 -0.0173 -0.0500 -0.4296
40148W        W83086  11.006   9.612  23.932  0.0189 -0.0931  0.0717
40149W        W83087   8.753   7.285  27.733  0.2391 -0.0905 -0.0363
40150W        W83088   7.759   7.459  26.685 -0.1393 -0.1483  0.1774
40151W        W83089  10.180   9.675  26.062  0.1753 -0.0803  0.0354
40152W        W83090   8.140   7.544  27.055  0.3446  0.1216  0.1589
40153W        W83091   8.951  11.603  26.097 -0.1548  0.0037 -0.3525
40154W        W83092   7.812   7.837  27.496 -0.2487 -0.1533 -0.3359
40155W        W83093  10.468   7.412  24.789 -0.1926  0.0486 -0.2650
40156W        W83094   8.009   8.325  23.740  0.2515  0.2313  0.2005
40157W        W83095   9.748   9.352  26.378 -0.1548  0.0635  0.0442
40158W        W83096  11.180   9.251  24.707 -0.0464  0.0363 -0.0674
40159W        W83097   8.735   9.159  25.193  0.0856 -0.0139  0.3242
40160W        W83098  10.892   9.092  25.077  0.2347 -0.2151  0.0562
40161W        W83099   8.246   9.547  25.678  0.2413  0.1669 -0.4668
40162W        W83100  10.006   9.732  25.248 -0.4101  0.1772  0.0066
40163W        W83101   8.290   9.327  22.851 -0.0743  0.2728  0.0441
40164W        W83102   8.242   9.755  24.791  0.2066 -0.1302 -0.1885
40165W        W83103   7.287   7.266  26.822 -0.2257  0.1707 -0.0013
40166W        W83104   9.869  10.558  25.478 -0.2409 -0.2346  0.3515
40167W        W83105   9.523   8.190  25.331  0.3113  0.0652 -0.1230
40168W        W83106   9.718   9.378  26.846 -0.1087 -0.2166 -0.1514
40169W        W83107  10.995   7.716  26.652 -0.2018  0.0054 -0.0802
40170W        W83108   7.870   9.178  25.999  0.0171 -0.1075 -0.1371
40171W        W83109   6.966   7.611  26.712 -0.1685 -0.0055 -0.0459
40172W        W83110  10.976  10.099  25.523 -0.0716 -0.1052 -0.0703
40173W        W83111  11.822   7.260  23.780  0.1070  0.0078 -0.2306
40174W        W83112  10.747  10.504  26.697  0.0794  0.3033  0.2015
40175W        W83113  13.266   9.902  25.640  0.2422  0.1174  0.1821
40176W        W83114  10.318   8.885  24.108 -0.1792 -0.0031  0.2850
40177W        W83115   7.895   8.792  25.665  0.0057  0.0684 -0.5172
40178W        W83116  11.202  10.663  26.695  0.0123 -0.2623  0.1224
40179W        W83117   8.046   9.263  23.490 -0.4075  0.0921 -0.2266
40180W        W83118  10.489   8.000  27.502 -0.0161  0.1150  0.3923
40181W        W83119   7.910  11.503  24.458 -0.1108  0.1055 -0.2177
40182W        W83120  10.710  10.463  25.198 -0.2570  0.1666  0.0615
40183W        W83121   8.415   6.899  24.554 -0.2117  0.0765 -0.0683
40184W        W83122   7.165   7.253  24.672  0.0916 -0.0317  0.2873
40185W        W83123   7.221  10.060  26.098  0.0374 -0.1835 -0.2176
40186W        W83124   8.371   8.845  24.110 -0.3602 -0.0738 -0.2814
40187W        W83125   7.425   8.375  22.290 -0.1826  0.3441  0.0754
40188W        W83126   9.618  10.419  25.065 -0.0563 -0.1106  0.0312
40189W        W83127  11.611  10.215  27.686 -0.4009 -0.0443 -0.2540
40190W        W83128   9.389   8.016  23.435 -0.0377  0.0672  0.2960
40191W        W83129  11.769   8.808  26.552  0.1305  0.0098  0.1807
40192W        W83130   8.124   9.679  23.748 -0.0931 -0.5004  0.0182
40193W        W83131   9.677   7.042  24.981  0.2347  0.0132  0.2115
40194W        W83132   8.342  10.304  26.278 -0.1888 -0.0055 -0.2089
40195W        W83133   8.219  10.001  25.889 -0.2175 -0.0190  0.1633
40196W        W83134   6.988  10.146  24.122  0.0202  0.1981 -0.3189
40197W        W83135   9.439   6.659  27.449 -0.2230  0.3636 -0.1139
40198W        W83136   9.877   8.567  25.415 -0.2114  0.0282  0.1167
40199W        W83137   8.934  10.603  26.741  0.0670  0.0655 -0.0814
40200W        W83138  10.248   9.202  26.347 -0.0906 -0.1837  0.0143
40201W        W83139  10.637   9.669  26.287  0.1891 -0.2299  0.0268
40202W        W83140   8.596   9.385  24.714 -0.1866 -0.0570  0.2605
40203W        W83141  10.441  11.159  26.354  0.2266 -0.0543  0.0870
40204W        W83142  10.538   9.896  25.221  0.2602 -0.0327  0.2297
40205W        W83143   8.931  10.603  24.938 -0.1677  0.3147  0.2271
40206W        W83144   6.964   9.082  25.780  0.1987 -0.1554 -0.1012
40207W        W83145  10.956   8.706  27.453 -0.3035  0.2194  0.1206
40208W        W83146   9.609   9.172  25.326  0.3531 -0.1323 -0.2752
40209W        W83147   9.508   7.621  25.105 -0.2044  0.3172  0.2389
40210W        W83148   8.455   9.059  23.227 -0.2330 -0.1410 -0.4632
40211W        W83149   8.256   9.325  26.636  0.1284 -0.0831  0.3329
40212W        W83150   8.550   9.731  26.292  0.0269 -0.1122 -0.2259
40213W        W83151   7.827  10.955  23.253 -0.1547  0.1157  0.2073
40214W        W83152   9.532  10.099  25.435  0.0160 -0.2067  0.3639
40215W        W83153  11.026   8.253  24.518 -0.2039  0.1014  0.5404
40216W        W83154  10.078  11.563  26.553 -0.0983  0.2071  0.1920
40217W        W83155   9.329   9.395  25.805  0.1797 -0.0445  0.0462
40218W        W83156   8.758  10.733  25.397 -0.2697 -0.2016  0.1934
40219W        W83157   7.407   9.673  22.607 -0.1494 -0.1826 -0.0679
40220W        W83158   9.347   9.859  23.906 -0.0714  0.3764  0.0950
40221W        W83159   7.643  11.216  24.783 -0.2332  0.0684 -0.0196
40222W        W83160  10.444  10.145  27.213 -0.0887  0.1380 -0.2707
40223W        W83161  10.859   7.765  24.700 -0.0196 -0.1678  0.1200
40224W        W83162  10.761   8.216  25.023 -0.2450 -0.3086 -0.0366
40225W        W83163  11.519   8.193  25.523  0.1327 -0.1838 -0.2489
40226W        W83164  10.640  11.363  25.414 -0.0018  0.1262 -0.0207
40227W        W83165   8.740   8.711  25.438  0.0806  0.0366  0.2095
40228W        W83166  11.105   8.383  22.926  0.2585  0.0228 -0.0379
40229W        W83167   8.495   9.266  26.114 -0.1579  0.0900  0.0198
40230W        W83168  11.099   7.479  27.183  0.1530 -0.3019 -0.2098
40231W        W83169   6.377  10.824  26.660  0.0525  0.0215  0.0184
40232W        W83170  10.392   9.766  23.890 -0.1245  0.0640 -0.2502
40233W        W83171   8.326   8.440  25.534  0.1923 -0.1451  0.2149
40234W        W83172  10.425   8.214  25.378  0.2401 -0.1166 -0.1279
40235W        W83173  11.951   7.910  26.429  0.1178 -0.1115 -0.4098
40236W        W83174   9.377   9.614  25.342  0.0055 -0.0682  0.0785
40237W        W83175  10.327   7.783  26.582 -0.0193  0.1359 -0.1269
40238W        W83176   8.542  10.514  24.621 -0.0314  0.0579 -0.1678
40239W        W83177   8.091  10.741  25.534  0.0925  0.0658  0.0161
40240W        W83178   8.191  12.102  25.514 -0.2534 -0.0695 -0.2709
40241W        W83179   7.381   7.744  24.589 -0.0437  0.1962 -0.1701
40242W        W83180  11.012   8.246  26.388 -0.2003 -0.0358 -0.0265
40243W        W83181   6.718   9.383  27.207 -0.1079 -0.3650 -0.1804
40244W        W83182   9.354   5.968  25.988 -0.0709  0.1507 -0.1778
40245W        W83183   8.827   8.741  26.018  0.0878 -0.0351  0.0871
40246W        W83184  11.230   8.048  25.883 -0.0194 -0.1360  0.1921
40247W        W83185   7.804   8.402  26.941  0.1927  0.0674 -0.0459
40248W        W83186   7.500   9.517  26.032 -0.0246  0.1552  0.0275
40249W        W83187   9.573   9.149  24.840  0.0134 -0.1114  0.1736
40250W        W83188  11.550   8.867  27.278 -0.2553 -0.3131  0.1150
40251W        W83189  10.392  10.239  22.914  0.0217 -0.1399 -0.1110
40252W        W83190   9.781  11.522  25.727 -0.2100  0.2792 -0.0725
40253W        W83191   9.085   6.614  26.413  0.0425 -0.1388 -0.1374
40254W        W83192  10.119   8.356  24.945 -0.1261 -0.0153 -0.1009
40255W        W83193   8.054   8.618  25.160 -0.0008 -0.0676  0.2757
40256W        W83194   9.144   8.664  26.646 -0.0661  0.0050  0.0281
40257W        W83195  10.154  10.678  26.388  0.2115 -0.1772  0.0898
40258W        W83196   8.912   7.350  23.571  0.0301  0.1508  0.1832
40259W        W83197  10.296   9.399  24.234  0.0517 -0.0666  0.2754
40260W        W83198  11.532   8.305  26.460 -0.0155  0.1240  0.0863
40261W        W83199   8.005  10.560  23.398  0.1176 -0.1495 -0.1604
40262W        W83200  10.632   9.114  25.531  0.1354  0.1347 -0.0825
40263W        W83201   9.242  12.566  24.931  0.1939 -0.1835  0.0311
40264W        W83202   7.018   7.464  26.240 -0.0442  0.2200  0.4519
40265W        W83203   9.281  11.668  25.727 -0.0115  0.0744  0.1406
40266W        W83204  11.326  10.952  26.220 -0.0854 -0.0007 -0.0360
40267W        W83205   8.856   7.817  23.529  0.1997 -0.1050  0.0122
40268W        W83206   7.291   9.404  24.597 -0.4332 -0.2749 -0.0885
40269W        W83207   6.605   9.823  23.910  0.0034 -0.0585  0.5695
40270W        W83208  10.652   8.214  25.842 -0.0581  0.2279 -0.0818
40271W        W83209  11.932   9.141  26.872 -0.0597  0.2308  0.0814
40272W        W83210   9.233  10.358  23.928 -0.0072 -0.0965 -0.0088
40273W        W83211  10.235   6.211  27.764 -0.3393 -0.1087 -0.2313
40274W        W83212   8.194  10.771  26.195 -0.4354  0.1133  0.0720
40275W        W83213   8.643  10.162  27.671 -0.1339  0.1826  0.0178
40276W        W83214   8.246   8.785  23.651 -0.0619  0.5280 -0.1662
40277W        W83215   9.637   9.706  26.055  0.3771  0.1846 -0.0031
40278W        W83216   9.737   9.918  24.876 -0.1600  0.1681 -0.1224
40279W        W83217   6.655  10.818  22.907  0.1201  0.1874  0.0490
40280W        W83218   9.599  10.913  26.988 -0.0320  0.1010  0.0170
40281W        W83219  10.002   7.983  25.261 -0.2988 -0.2934  0.1743
40282W        W83220  11.231   8.810  24.419  0.2265 -0.1481  0.1328
40283W        W83221   9.157   9.025  25.370  0.4582 -0.0523 -0.1474
40284W        W83222  11.373   7.266  26.677  0.1160 -0.1141  0.2124
40285W        W83223   9.972   7.141  24.148  0.2135  0.2581 -0.0210
40286W        W83224   8.439  11.201  25.379  0.1718  0.2303  0.0793
40287W        W83225   8.269   9.037  24.955  0.1679 -0.0469 -0.0651
40288W        W83226   6.329   7.843  24.070  0.2303  0.1140  0.2200
40289W        W83227   8.821  10.263  25.978 -0.2012  0.0835 -0.1200
40290W        W83228   9.824   6.417  26.885 -0.1117  0.2408 -0.1679
40291W        W83229   8.315   8.695  26.057 -0.1851  0.0261  0.0677
40292W        W83230   6.424   9.894  25.331  0.0764 -0.2783 -0.2572
40293W        W83231   8.223   8.001  25.315  0.1214 -0.0303  0.0518
40294W        W83232  10.717  10.287  23.318  0.0032 -0.3165  0.0166
40295W        W83233   8.470   8.206  26.811 -0.0759  0.1151  0.1138
40296W        W83234   8.646   7.926  25.030 -0.4567  0.2009  0.0774
40297W        W83235   8.746  11.165  26.228  0.2319  0.4258  0.0316
40298W        W83236  10.223  11.410  23.766 -0.0247  0.0002  0.0772
40299W        W83237   8.646   7.161  24.969 -0.1093 -0.1023 -0.1357
40300W        W83238  10.823  12.572  27.725  0.4878 -0.0052  0.1708
40301W        W83239   8.642   9.279  24.244  0.2813 -0.1831 -0.1221
40302W        W83240   8.791   7.898  27.636  0.2616 -0.1227  0.1481
40303W        W83241  10.416   7.388  25.989 -0.0520 -0.0448  0.2579
40304W        W83242   8.448   7.299  24.013 -0.2140 -0.1246 -0.0553
40305W        W83243   9.616   7.695  25.548  0.0892 -0.0711  0.1753
40306W        W83244   9.407  10.802  25.682  0.0536  0.1668 -0.0463
40307W        W83245  10.430  11.234  24.545 -0.3365 -0.0149 -0.2559
40308W        W83246   8.955  10.756  25.894  0.2842  0.0167  0.4137
40309W        W83247   9.063  11.099  27.159 -0.0281  0.1715  0.0676
40310W        W83248   7.839   6.748  25.472  0.1399  0.0602  0.1542
40311W        W83249  10.020   9.108  24.481 -0.2506 -0.1943 -0.3810
40312W        W83250   9.578  10.134  26.383  0.0216  0.2710  0.1775
40313W        W83251  11.282   9.316  23.642 -0.1984 -0.3706  0.0440
40314W        W83252  10.906   7.647  27.609  0.2337  0.1658 -0.0861
40315W        W83253   9.432   9.614  24.629  0.2572  0.2708 -0.3490
40316W        W83254   9.002   6.334  27.355  0.0845 -0.0675  0.2884
40317W        W83255   8.311   8.556  27.207  0.0064  0.2096  0.0287
40318W        W83256  10.039   7.609  26.206  0.0108 -0.0839 -0.2609
40319W        W83257   8.637   6.664  24.980  0.3657  0.1705  0.4443
40320W        W83258  10.736   7.818  25.367  0.1722  0.1091 -0.3073
40321W        W83259   9.782   9.539  24.232 -0.3196 -0.0020 -0.1979
40322W        W83260   7.894   8.171  24.920 -0.3116 -0.0616  0.3038
40323W        W83261   9.993   7.441  25.120 -0.0728  0.0976  0.1525
40324W        W83262   9.397   7.752  26.582 -0.0492 -0.4631 -0.1549
40325W        W83263   8.772   9.402  26.694  0.0127 -0.1789 -0.0771
40326W        W83264  10.311   9.336  27.548  0.1894 -0.0006 -0.1375
40327W        W83265   9.817   8.134  25.868  0.1053  0.0221  0.0070
40328W        W83266  10.373  10.688  24.529 -0.0341  0.0014 -0.1679
40329W        W83267   8.946  10.767  27.542  0.3073  0.0051  0.0359
40330W        W83268   9.200  10.107  28.295 -0.1085 -0.2439  0.1223
40331W        W83269   8.637  11.498  26.572 -0.0195 -0.1936  0.2160
40332W        W83270  10.156   9.168  25.386  0.0986 -0.1631  0.1210
40333W        W83271   7.240   7.733  25.408 -0.3081  0.1047 -0.1755
40334W        W83272   8.298   9.613  24.176  0.0711  0.1274  0.2490
40335W        W83273   9.085   9.338  24.887 -0.3280 -0.1134 -0.0031
40336W        W83274  11.110   6.017  25.430  0.0981  0.0448 -0.0444
40337W        W83275   7.200   8.198  25.655  0.2382 -0.1264  0.2103
40338W        W83276   9.232   8.086  24.915 -0.0034  0.3988  0.0388
40339W        W83277   8.700  10.608  26.294  0.0540  0.0166 -0.2609
40340W        W83278  11.251   9.721  24.487  0.1137 -0.2582  0.2107
40341W        W83279   7.356   9.848  29.134  0.2889  0.0380  0.1675
40342W        W83280   7.692   8.629  28.912 -0.0144 -0.0519 -0.1690
40343W        W83281  10.466   7.357  28.331  0.1328  0.0356  0.1553
40344W        W83282  10.916   8.187  27.778  0.1544  0.1756  0.1260
40345W        W83283   7.120   8.654  28.383  0.4753 -0.2058  0.0405
40346W        W83284  10.780  10.154  28.627 -0.1452  0.2150  0.3559
40347W        W83285   8.461   7.912  29.745  0.2395 -0.0466 -0.1741
40348W        W83286   9.446  10.048  27.264  0.3708 -0.0458 -0.2580
40349W        W83287  10.714   9.655  31.716 -0.0443  0.0674 -0.3795
40350W        W83288   8.874   9.852  27.005 -0.0380 -0.1735 -0.2961
40351W        W83289   8.234   7.681  28.914  0.1150  0.4181 -0.3057
40352W        W83290   8.998   9.494  30.151 -0.1420  0.1645 -0.2525
40353W        W83291   7.922   8.199  27.867 -0.1182  0.2617 -0.1306
40354W        W83292   5.706   6.852  29.682 -0.1186 -0.1371  0.0661
40355W        W83293  10.446   9.021  28.809  0.0690  0.1574  0.0113
40356W        W83294   7.223   8.903  27.809  0.2728  0.1129  0.0390
40357W        W83295   7.318   8.215  30.366  0.0158 -0.1769  0.2975
40358W        W83296   9.735   9.016  29.298  0.2329  0.2338 -0.4812
40359W        W83297   8.659  10.670  29.382 -0.3034  0.0806  0.4541
40360W        W83298   8.959   7.623  28.384 -0.0135 -0.2159 -0.0157
40361W        W83299  11.040   8.784  29.691  0.0365 -0.2742  0.1802
40362W        W83300   8.392  10.460  28.166  0.1338 -0.0418  0.0599
40363W        W83301   8.741   8.712  26.874 -0.0389  0.1300  0.0798
40364W        W83302   7.324   9.159  29.631  0.2956 -0.0196 -0.0225
40365W        W83303   8.049   9.182  28.992  0.1876 -0.2699 -0.0902
40366W        W83304  10.719   8.284  28.290 -0.0173  0.3103  0.1585
40367W        W83305  11.428   8.149  29.509 -0.4066  0.3558 -0.1371
40368W        W83306   8.475   9.799  29.363 -0.0379 -0.0763 -0.2613
40369W        W83307   9.760   9.843  29.462  0.0349  0.0692  0.0351
40370W        W83308  11.443   8.824  30.655  0.0365  0.1026  0.4041
40371W        W83309   8.695  10.805  27.974 -0.4792 -0.0153  0.1839
40372W        W83310   6.036  10.133  27.377 -0.0214  0.1516  0.1611
40373W        W83311   9.134   8.925  27.659 -0.2649 -0.0492 -0.1941
40374W        W83312  10.791  10.573  28.117  0.0785  0.0833  0.0451
40375W        W83313  10.686   9.329  31.135 -0.1089 -0.1561 -0.2903
40376W        W83314   8.888  10.435  30.457  0.1666  0.0195  0.0256
40377W        W83315   8.903  10.114  29.382 -0.0993  0.1265  0.0749
40378W        W83316   9.307  11.614  29.943  0.2080  0.2551  0.1199
40379W        W83317   8.638   9.931  30.281 -0.3390  0.1738 -0.0248
40380W        W83318  10.486   9.795  30.298  0.3125 -0.0276 -0.4751
40381W        W83319   9.606   8.204  27.809 -0.3183 -0.2533  0.1887
40382W        W83320   8.678   8.950  26.435  0.2946  0.1658 -0.2187
40383W        W83321   9.117   9.578  28.317  0.0888  0.0069 -0.0844
40384W        W83322   9.306   9.183  29.497  0.0695  0.1968 -0.1474
40385W        W83323   7.608   9.613  29.641 -0.1529  0.1878 -0.1738
40386W        W83324  11.728   8.193  31.497  0.0293  0.1495  0.2907
40387W        W83325   8.654   8.820  27.438 -0.0228 -0.0655 -0.0641
40388W        W83326  11.816   8.938  27.726  0.2233 -0.0428  0.1025
40389W        W83327   9.171   8.197  27.435  0.0313  0.1530 -0.0185
40390W        W83328   8.955   7.026  26.700 -0.1523  0.1127  0.2860
40391W        W83329   8.964   5.614  28.176 -0.2239  0.0077 -0.0864
40392W        W83330   7.710   9.929  28.471 -0.0555 -0.0065  0.0912
40393W        W83331   8.549   8.999  29.081  0.2700 -0.3103 -0.0598
40394W        W83332  11.010  10.866  30.693  0.0045  0.2803  0.1795
40395W        W83333  10.452  10.533  28.485 -0.0147 -0.0690  0.2695
40396W        W83334  10.797   9.070  28.319 -0.2207 -0.1485 -0.0765
40397W        W83335   7.347  10.910  30.202 -0.4795 -0.2449  0.7638
40398W        W83336   7.577   9.555  28.147  0.3798  0.2016 -0.1064
40399W        W83337   9.498  10.480  27.812 -0.1976 -0.1614 -0.4520
40400W        W83338  10.101   9.765  28.396 -0.3628  0.0773  0.1312
40401W        W83339   9.250  11.873  28.269  0.2153  0.1271 -0.1896
40402W        W83340   7.076   9.665  28.112  0.0475 -0.2344  0.0937
40403W        W83341   6.978   9.712  29.459  0.1236  0.0177 -0.0735
40404W        W83342   8.001   7.846  30.029 -0.0691 -0.2226  0.0801
40405W        W83343   7.104   7.627  28.200 -0.0711  0.2416 -0.0905
40406W        W83344  11.971   8.831   0.240  0.0282 -0.0119 -0.2303
40407W        W83345   5.808   9.156  30.840 -0.1424  0.2904 -0.1351
40408W        W83346  10.773   7.474  28.953 -0.0493  0.1717 -0.0424
40409W        W83347   8.480   8.785  27.967  0.1164 -0.1711  0.1496
40410W        W83348  11.161  10.156  29.895  0.0544 -0.0141 -0.3509
40411W        W83349  11.124   9.690  27.178 -0.2271  0.0260  0.2575
40412W        W83350   9.986   7.834  28.613  0.2951  0.0475 -0.2413
40413W        W83351  10.517   6.985  28.779  0.0009  0.0559 -0.2666
40414W        W83352   8.824  10.121  26.500 -0.1456 -0.1935  0.2371
40415W        W83353   8.293   9.265  27.883 -0.0430  0.0880 -0.0162
40416W        W83354  11.341  11.282  30.947 -0.3709 -0.2171 -0.1665
40417W        W83355  12.540  10.722  27.726  0.0739 -0.0430 -0.2133
40418W        W83356   7.307  10.493  29.872  0.0056  0.0521 -0.0039
40419W        W83357  10.359   9.450  29.996  0.0689 -0.0120 -0.1019
40420W        W83358   9.293   9.378  31.683 -0.2197  0.0456 -0.1508
40421W        W83359   7.992  10.669  27.783  0.0072 -0.3057  0.1087
40422W        W83360   6.951   9.388  29.000 -0.1523  0.3275  0.3293
40423W        W83361   8.351  10.207  27.150  0.1510  0.0495 -0.1889
40424W        W83362   7.808   7.061  29.813 -0.0466  0.0383 -0.0564
40425W        W83363   8.732  10.348  29.003  0.0729 -0.0866 -0.0074
40426W        W83364  10.958   8.304  29.357  0.2165 -0.1210 -0.0469
40427W        W83365   6.532   8.208  29.847 -0.1973  0.0304  0.2252
40428W        W83366  10.511   8.009  30.103 -0.0988  0.2972  0.1819
40429W        W83367   7.537   9.876  27.575 -0.1028 -0.1366  0.1199
40430W        W83368  10.580  10.054  29.247  0.3447  0.4783 -0.0716
40431W        W83369  11.454   8.595  27.769  0.1946  0.0916  0.2250
40432W        W83370   9.984  10.031  27.376  0.0258 -0.1409  0.0793
40433W        W83371   7.069   9.665  30.798 -0.1723 -0.1661 -0.2360
40434W        W83372   8.789   7.843  27.132 -0.1763 -0.1468  0.1907
40435W        W83373   8.426   8.152  30.308 -0.1877  0.0391 -0.1758
40436W        W83374   7.949   8.688  29.295  0.1235  0.3071 -0.4645
40437W        W83375  10.260   8.942  30.007 -0.2367 -0.1658 -0.0010
40438W        W83376   7.111   9.043  27.358  0.2048  0.0106  0.3178
40439W        W83377   9.944   8.328  28.230  0.1237 -0.0591  0.0903
40440W        W83378  10.099   8.138  29.036  0.1469  0.1563  0.1747
40441W        W83379   6.790  10.614  29.538 -0.2223 -0.2043  0.0444
40442W        W83380  12.857   7.868  30.985  0.0452  0.0372 -0.0640
40443W        W83381   9.589   9.129  27.827 -0.1059  0.0204  0.3338
40444W        W83382  10.296  10.106  28.738  0.1023  0.0565 -0.0701
40445W        W83383  10.495  11.483  29.159 -0.2814 -0.1210 -0.0661
40446W        W83384   8.488   9.330  30.411 -0.2876  0.0283 -0.0723
40447W        W83385   7.165   9.012  26.221 -0.0912  0.1023 -0.0769
40448W        W83386   8.057  10.334  28.506 -0.2750  0.0084 -0.0145
40449W        W83387   8.925   9.543  29.076 -0.0198  0.1714  0.0178
40450W        W83388   9.035   8.216  26.842  0.1848  0.3445  0.0616
40451W        W83389  11.713  10.643  31.886  0.0040  0.0942  0.2116
40452W        W83390  10.376   9.008  27.918  0.0238  0.2309 -0.2966
40453W        W83391   8.807   9.129  31.550  0.3503 -0.2021  0.1897
40454W        W83392  11.230   7.507  30.051 -0.2884  0.0439  0.0314
40455W        W83393  10.018   9.389  30.360 -0.0527  0.4372 -0.2539
40456W        W83394   9.055  10.647  28.324  0.1222 -0.2165  0.0244
40457W        W83395   8.473   8.333  27.762  0.1878  0.0883 -0.0219
40458W        W83396  10.308  12.008  29.236 -0.2275  0.3002  0.3137
40459W        W83397   8.210   9.906  28.299 -0.0327 -0.0691 -0.0089
40460W        W83398   7.790   8.973  28.634  0.0059 -0.0132  0.2168
40461W        W83399   7.593   8.451  28.350  0.4231 -0.1182  0.1301
40462W        W83400   9.402   8.035  28.379 -0.1903 -0.0125  0.0203
40463W        W83401   8.127   9.983  31.294  0.2352  0.0576 -0.0430
40464W        W83402   9.639   9.426  29.742  0.0943 -0.2802  0.0500
40465W        W83403   7.783  10.085  28.984  0.0906 -0.0451 -0.5996
40466W        W83404   7.449  11.587  30.686  0.0640  0.2753 -0.1434
40467W        W83405  11.158   6.629  28.551  0.0079 -0.1858  0.1437
40468W        W83406  10.299   7.488  28.822 -0.1434 -0.0707 -0.1994
40469W        W83407   9.341   9.797  29.932 -0.0673 -0.0059  0.0021
40470W        W83408   9.513   8.174  27.042 -0.1263  0.0862 -0.1754
40471W        W83409  10.372   7.547  27.772  0.0727  0.0474 -0.1664
40472W        W83410   9.216   6.875  27.934  0.0143  0.1687  0.3386
40473W        W83411   6.712   9.895  31.069  0.0886 -0.2813 -0.0690
40474W        W83412   9.540  10.688  28.874  0.3262 -0.2198  0.2982
40475W        W83413   9.358   9.346  27.348 -0.1699 -0.1779  0.1188
40476W        W83414   9.277   9.337  28.722  0.3357  0.0094 -0.3220
40477W        W83415  11.303  12.755  28.131  0.1311 -0.0439  0.1329
40478W        W83416   7.617  10.085  31.355  0.1397  0.0207 -0.3124
40479W        W83417   9.645   8.356  30.285  0.3713 -0.3000 -0.0609
40480W        W83418  10.218   9.620  29.334  0.0381 -0.2080 -0.0464
40481W        W83419   8.632   6.402  30.297 -0.0635  0.2877  0.1867
40482W        W83420   8.820   9.221  25.718 -0.1595  0.1094  0.2385
40483W        W83421   8.539   6.827  28.590  0.0475  0.1093  0.0696
40484W        W83422   7.372  10.792  26.398 -0.0404 -0.1717  0.0954
40485W        W83423  10.750   8.055  28.830 -0.1919 -0.4162  0.3649
40486W        W83424   9.469   7.421  28.491 -0.0131  0.0201 -0.1400
40487W        W83425   9.982   9.271  28.964  0.1366 -0.2442 -0.3217
40488W        W83426  10.049   6.307  31.000  0.0308 -0.0328  0.1455
40489W        W83427  11.727   7.590  26.807  0.0915 -0.1059 -0.0821
40490W        W83428   9.810  10.312  28.774 -0.1174 -0.0133 -0.0218
40491W        W83429   8.834   8.241  25.994  0.0038  0.0343  0.3652
40492W        W83430   9.144   8.410  30.180  0.0494 -0.3245 -0.0388
40493W        W83431   8.803   9.342  29.517 -0.1672 -0.0547  0.0313
40494W        W83432   6.399   9.869  30.667 -0.1325 -0.3359 -0.1307
40495W        W83433   9.628   9.944  30.728 -0.0535 -0.1426 -0.1143
40496W        W83434   7.938   9.294  28.287  0.2512 -0.0224  0.0608
40497W        W83435  11.008   7.747  31.424 -0.0392  0.1159  0.0589
40498W        W83436   8.706   9.315  27.547 -0.0999 -0.0959 -0.2247
40499W        W83437   8.600  11.204  27.694 -0.1021 -0.0465 -0.2243
40500W        W83438   8.656  10.092  28.338  0.2875 -0.1127  0.1892
40501W        W83439   9.576   8.033  28.862  0.0483  0.1401  0.2000
40502W        W83440  10.082   9.682  30.815 -0.1157  0.1688  0.2731
40503W        W83441   8.339   9.978  26.719  0.3703 -0.0351  0.4983
40504W        W83442   9.301   7.926  30.462  0.0622 -0.1702 -0.0869
40505W        W83443   7.557  10.004  29.962  0.2566 -0.1149 -0.1420
40506W        W83444  10.709   5.988  29.520 -0.0435  0.2918 -0.1552
40507W        W83445   7.119  10.510  30.467  0.1764 -0.4001 -0.0590
40508W        W83446   7.549   9.318  26.615 -0.1503  0.0500 -0.0670
40509W        W83447   7.909   9.019  26.962  0.1689 -0.0803 -0.1054
40510W        W83448   9.116   8.662  28.723 -0.0820  0.1148 -0.3737
40511W        W83449   9.988  10.330  28.273  0.1088  0.0188  0.3683
40512W        W83450   8.936   7.234  29.149 -0.0059 -0.0370 -0.0852
40513W        W83451   8.104   6.925  28.317  0.1340  0.5809 -0.1177
40514W        W83452   8.146   9.882  30.042 -0.0391  0.2835 -0.1485
40515W        W83453   9.771   8.826  29.709 -0.3987  0.2592 -0.1414
40516W        W83454  11.528   7.467  27.480 -0.1363 -0.0375  0.1919
40517W        W83455  10.925   9.780  28.972  0.1437  0.2013  0.0014
40518W        W83456   7.848   8.173  30.806 -0.2572  0.2536 -0.0851
40519W        W83457   8.206   8.033  27.203  0.2172 -0.0230 -0.1176
40520W        W83458  11.617   8.637  29.575  0.2289 -0.1113  0.1278
40521W        W83459   8.968   8.124  28.717  0.2468  0.3979  0.0332
40522W        W83460   6.536   9.663  29.226  0.1717 -0.0382  0.1032
40523W        W83461   9.692  11.366  30.304  0.0039  0.0137  0.0306
40524W        W83462   7.400  10.409  26.700  0.0437  0.2007  0.0677
40525W        W83463   7.662  10.427  27.388 -0.0630 -0.2135 -0.2216
40526W        W83464   8.727   6.995  29.505 -0.3348 -0.1640 -0.0441
40527W        W83465  11.018   9.956  29.491 -0.1123 -0.1176  0.4605
40528W        W83466   8.724   8.301  27.318  0.2888  0.0064  0.0392
40529W        W83467   9.599   8.508  27.385 -0.0720 -0.0001  0.0400
40530W        W83468  10.476   7.831  28.493  0.0121  0.0768  0.1262
40531W        W83469   9.754   9.655  27.591  0.1004  0.2636 -0.2630
40532W        W83470   8.707   8.397  29.944  0.0622 -0.0671  0.3492
40533W        W83471   7.214   9.581  29.942 -0.3264  0.2333 -0.0462
40534W        W83472   9.989   9.380  27.908  0.2603 -0.0020 -0.0106
40535W        W83473  12.297  11.835  27.459  0.1807  0.3473  0.1975
40536W        W83474   9.130   8.737  29.819  0.3795  0.2685  0.2354
40537W        W83475   9.338   9.955  27.794  0.1281  0.0576 -0.2321
40538W        W83476   6.979   9.247  28.509 -0.0313 -0.1790  0.1311
40539W        W83477   8.905   9.814  28.650  0.0830 -0.1702 -0.1478
40540W        W83478  10.036   7.965  29.509  0.5257 -0.1668  0.1076
40541W        W83479   8.155   9.685  30.463 -0.3553  0.1751  0.3382
40542W        W83480   9.295   9.219  26.660 -0.1954 -0.0616 -0.0098
40543W        W83481   7.298  10.726  29.369 -0.0065  0.1759  0.2772
40544W        W83482  13.111   6.959  28.655  0.0894 -0.1848  0.1373
40545W        W83483   8.594  11.021  28.998 -0.0503  0.0494 -0.0719
40546W        W83484   9.213   8.230  29.166  0.3474 -0.3923  0.2952
40547W        W83485  10.163   8.333  30.447  0.1036  0.0526 -0.0221
40548W        W83486  10.421   9.580  28.854 -0.0646  0.0704  0.1857
40549W        W83487   9.450   7.554  30.746 -0.0638 -0.1362 -0.0480
40550W        W83488   9.502   8.887  28.839  0.2482 -0.0118  0.0435
40551W        W83489  10.076   9.218  29.633 -0.5073  0.1183  0.1107
40552W        W83490   6.162   9.100   0.275  0.0841 -0.2020  0.0230
40553W        W83491   9.794   9.719  31.646 -0.0853  0.0688 -0.1651
40554W        W83492   7.901   9.624  29.169 -0.2129  0.0962 -0.3923
40555W        W83493  10.499   8.489  27.881 -0.3094  0.2433 -0.1549
40556W        W83494   8.434   6.577  27.305  0.1355  0.3929  0.1388
40557W        W83495   9.642   8.275  29.647 -0.3175  0.1087 -0.0306
40558W        W83496  11.341  12.199  30.772 -0.5602  0.0264 -0.0322
40559W        W83497   8.890   9.174  28.523 -0.3391 -0.2555  0.0405
40560W        W83498  10.513   8.653  29.670  0.1721  0.3051  0.1837
40561W        W83499   9.022  10.804  30.066  0.0370 -0.0221 -0.1544
40562W        W83500   9.970   8.672  27.749  0.3715 -0.0208  0.2993
40563W        W83501   9.288   9.683  26.880  0.1597 -0.0099 -0.3259
40564W        W83502   8.418   9.592  27.077  0.3446  0.3937 -0.2289
40565W        W83503   8.298   8.422  29.458 -0.1493  0.3230 -0.0591
40566W        W83504  12.213  10.419  29.967  0.0731 -0.3594  0.2043
40567W        W83505   9.933   7.333  27.982 -0.3526 -0.1795 -0.1161
40568W        W83506  10.455   7.768  29.205 -0.0122  0.1021  0.2713
40569W        W83507  10.532   8.891  30.639 -0.1416  0.0942 -0.0398
40570W        W83508   8.776   8.633  30.912  0.0244  0.3216  0.1020
40571W        W83509   8.104   7.988  29.313  0.0191  0.2109 -0.0116
40572W        W83510   9.152   9.971  30.449  0.5265 -0.0563  0.3438
40573W        W83511  11.793   9.906  27.303  0.1651  0.0065 -0.1602
40574W        W83512  10.511   9.148  29.284  0.0454 -0.1385  0.1736
40575W        W83513  11.761   8.423  28.241 -0.0083 -0.1725  0.0464
40576W        W83514  11.528   9.404  26.502  0.0443  0.1238  0.0863
40577W        W83515   7.142   8.355  29.407 -0.2125  0.1269 -0.2344
40578W        W83516  11.192   9.144  31.257 -0.2367  0.2085  0.1986
40579W        W83517   8.637   7.674  28.051 -0.1113 -0.3537 -0.3178
40580W        W83518   9.289   8.062  31.008 -0.0372 -0.0473 -0.1857
40581W        W83519   8.714   8.439  26.458  0.0770  0.1346 -0.1214
40582W        W83520   8.851   9.116  28.034  0.0161 -0.3633 -0.1285
40583W        W83521  11.037   9.434  28.049 -0.4681  0.2872 -0.0210
40584W        W83522   7.406   9.068  28.271  0.1330 -0.1078 -0.1230
40585W        W83523   8.573  11.065  30.173  0.1168  0.0464  0.2947
40586W        W83524   8.888   6.391  27.894  0.0207  0.2546  0.3393
40587W        W83525   8.629  10.619  28.565 -0.0197 -0.0587 -0.2148
40588W        W83526  10.343  10.341  30.065  0.0093  0.0278  0.3207
40589W        W83527  12.089   9.516   0.015  0.1914 -0.0085  0.3752
40590W        W83528   8.732   7.126  28.195  0.0316  0.3840 -0.1112
40591W        W83529  11.847   8.116  30.334 -0.2165  0.0203 -0.0079
40592W        W83530   7.451   9.787  26.963 -0.1265 -0.0210 -0.0641
40593W        W83531  10.202   7.902  31.044 -0.2958  0.0195  0.0314
40594W        W83532   7.712  11.122  29.445 -0.0625 -0.0173  0.1235
40595W        W83533   6.345   9.296  29.586  0.1339  0.1705  0.0745
40596W        W83534   8.252  11.399  29.100  0.0779 -0.1406  0.0868
40597W        W83535   8.766   6.552  29.781  0.1913 -0.1382 -0.1713
40598W        W83536   9.562   8.490  28.509 -0.2490 -0.0588 -0.1679
40599W        W83537   9.975   8.724  28.723 -0.2397 -0.3648 -0.1175
40600W        W83538  11.315   8.243  30.736 -0.1044 -0.0485 -0.1542
40601W        W83539   9.920   8.781  30.455 -0.3194 -0.2699 -0.1386
40602W        W83540   7.205   9.840  28.599 -0.2682  0.1769 -0.0311
40603W        W83541  10.180  11.414  31.079 -0.3804  0.0303 -0.0832
40604W        W83542  11.555   9.141  29.414 -0.0623  0.1284  0.0315
40605W        W83543   8.435   9.670  27.680 -0.1472 -0.0003  0.0717
40606W        W83544   7.662   7.306   0.572 -0.1654  0.0060  0.1380
40607W        W83545   9.283   9.398  30.832  0.0451  0.0386  0.1102
40608W        W83546   9.929   9.693  29.987  0.0206 -0.0985  0.0743
40609W        W83547   7.699   7.781  29.536 -0.2061  0.0704 -0.0281
40610W        W83548   9.010  10.358  27.914 -0.0398  0.1049 -0.0790
40611W        W83549   7.212   9.950  31.178  0.1588 -0.2588 -0.0980
40612W        W83550   6.752   9.726  30.321  0.1208  0.4355 -0.4046
40613W        W83551   8.325  10.062  28.843  0.0590 -0.1753  0.0270
40614W        W83552  11.067  10.127  28.074  0.3127 -0.0840 -0.0478
40615W        W83553  11.438   8.117  28.065 -0.1571  0.3625  0.0510
40616W        W83554   9.835  11.361  29.816  0.2868 -0.0201  0.0893
40617W        W83555   8.723   8.689  28.423 -0.0986  0.0191  0.2876
40618W        W83556   8.780   8.766  29.459 -0.2769  0.0502  0.0758
40619W        W83557   7.214  10.624  27.406  0.2767 -0.1113 -0.1911
40620W        W83558   9.739  10.814  28.077 -0.0110  0.1486 -0.0193
40621W        W83559   7.971   9.933  27.261 -0.1527 -0.0375  0.0967
40622W        W83560  11.017   9.570  30.348  0.1095 -0.0066 -0.0651
40623W        W83561   8.178   7.806  28.028  0.0241 -0.2512  0.0393
40624W        W83562  10.328   9.900  29.765 -0.3431 -0.0792 -0.0946
40625W        W83563  10.833   8.639  28.634  0.1390 -0.2198 -0.1912
40626W        W83564  10.742  10.331  29.786  0.0358 -0.1183  0.0982
40627W        W83565   8.316   8.952  29.581 -0.3886  0.1290  0.1421
40628W        W83566  10.440   9.572  28.067 -0.1369 -0.0841 -0.1117
40629W        W83567   8.354   8.753  30.124  0.0956  0.0483  0.2376
40630W        W83568  12.017   6.660  31.436  0.2073  0.1287  0.2935
40631W        W83569   6.991  11.123  31.039  0.2458  0.0146 -0.0202
40632W        W83570  10.579  10.304  27.744 -0.1807 -0.2190  0.0451
40633W        W83571   7.195   8.144  28.306  0.0808 -0.3305 -0.2595
40634W        W83572   9.227   9.667  29.454  0.1172 -0.2454 -0.1003
40635W        W83573  12.366   7.187  30.954 -0.0637 -0.1769 -0.0270
40636W        W83574  10.080   9.011  26.899 -0.1694  0.0632 -0.0370
40637W        W83575   9.258   7.348  28.036 -0.0960 -0.0584 -0.2913
40638W        W83576   8.950  11.723  29.586 -0.1258  0.1206 -0.2471
40639W        W83577   8.578   9.537  28.270  0.0438  0.3358 -0.2317
40640W        W83578   8.463  10.716  29.871  0.1003 -0.3856 -0.3705
40641W        W83579   6.704   8.008  28.210  0.0651  0.3611  0.1912
40642W        W83580  11.542   9.441  27.998  0.2081  0.1268  0.0607
40643W        W83581   8.195   8.716  28.764 -0.2345  0.0030 -0.1168
40644W        W83582  11.266   8.739  30.149  0.2502 -0.0602 -0.0087
40645W        W83583   8.405   9.067  27.071 -0.1331  0.0508  0.0685
40646W        W83584   8.886   7.223  28.657 -0.0791 -0.0857 -0.0324
40647W        W83585   8.742   9.032  29.909  0.1947 -0.0315 -0.1968
40648W        W83586   7.181   8.935  30.618 -0.0844 -0.2774 -0.3300
40649W        W83587   9.118   8.652  27.239 -0.4065  0.2261 -0.0681
40650W        W83588  11.007   9.076  30.774  0.1418 -0.0977  0.2056
40651W        W83589  10.442   8.538  27.295 -0.3849 -0.3291  0.1518
40652W        W83590  11.383  10.008  30.337 -0.0292 -0.4770  0.0331
40653W        W83591   7.736   9.193  27.787 -0.1440 -0.0060  0.1190
40654W        W83592   8.480   7.030  26.947 -0.1146  0.1653  0.1280
40655W        W83593   8.394   9.061  28.422  0.1235 -0.1531 -0.2421
40656W        W83594   9.972   7.347  28.459  0.0198 -0.1040 -0.3076
40657W        W83595  11.737  10.362  31.458 -0.1328 -0.1694 -0.3486
40658W        W83596   7.863   7.823  28.438 -0.2404 -0.2906  0.2568
40659W        W83597   9.478  12.094  27.834 -0.0321 -0.0968 -0.0954
40660W        W83598  10.838   9.315  29.865  0.0593 -0.2987  0.0244
40661W        W83599   8.464  10.636  27.620 -0.1548  0.2114 -0.0999
40662W        W83600  11.887   8.797  29.083  0.2139  0.1126  0.1663
40663W        W83601   9.143  10.317  28.736 -0.2046 -0.0928 -0.1272
40664W        W83602   7.460   8.566  29.799  0.4935  0.1920  0.0953
40665W        W83603  10.040   9.997  30.421 -0.1056 -0.1497 -0.1408
40666W        W83604  11.903   9.899  31.391 -0.1764  0.0500 -0.0957
40667W        W83605   9.097   8.099  29.648 -0.2239  0.0732  0.2900
40668W        W83606   9.459   9.827  28.626 -0.1408  0.3346 -0.1465
40669W        W83607   6.401  10.249  27.038 -0.1622 -0.1902 -0.0429
40670W        W83608  10.819   9.674  28.431 -0.1529  0.2678  0.0217
40671W        W83609   9.544   7.874  29.344  0.5172  0.2365  0.1632
40672W        W83610   9.514  10.503  28.375  0.1311  0.1215 -0.0551
40673W        W83611  11.062   8.665  31.036  0.0872  0.1150  0.1904
40674W        W83612   9.458   9.553  30.409  0.0350 -0.0603 -0.2311
40675W        W83613   8.432  10.197  29.772 -0.1485 -0.0113  0.1269
40676W        W83614   6.704   9.680  27.759  0.0520 -0.0164  0.2262
40677W        W83615   8.516   9.631  29.883 -0.1284 -0.0043  0.0507
40678W        W83616   8.950  10.523  29.693  0.0115  0.1055  0.3033
40679W        W83617   9.110  11.410  28.177  0.4231 -0.0691 -0.0896
40680W        W83618  11.542   9.666  29.441 -0.0862  0.0918  0.1167
40681W        W83619   9.472   8.636  27.952 -0.0446 -0.1093  0.1971
40682W        W83620  10.803   9.823  29.925 -0.1905  0.0450  0.2577
40683W        W83621   7.207   7.454  27.695  0.2537 -0.1378  0.1357
40684W        W83622  11.001   7.826  29.326  0.2808 -0.1150  0.0085
40685W        W83623  10.924   6.399  28.175  0.3407  0.0229 -0.1527
40686W        W83624  10.299   9.216  28.374 -0.0331  0.1405  0.1680
40687W        W83625   6.646   8.978  26.224 -0.1026 -0.0987 -0.0186
40688W        W83626   8.021   9.572  28.681  0.1478 -0.0798  0.0795
40689W        W83627   7.748  10.591  29.022 -0.0658  0.1102  0.0775
40690W        W83628   8.988   7.383  31.689  0.1798 -0.1915 -0.2663
40691W        W83629   7.488   8.036  29.948  0.3362 -0.2612 -0.0696
40692W        W83630   7.424   8.767  29.321 -0.0389 -0.2192 -0.1388
40693W        W83631   8.735   8.133  28.183 -0.1047 -0.4190 -0.0108
40694W        W83632  11.741  10.694  27.492 -0.1801  0.1516 -0.1071
40695W        W83633   8.511   6.428  28.271 -0.0603  0.0835  0.2767
40696W        W83634   7.527   8.092  28.751 -0.0908 -0.1618  0.6220
40697W        W83635  11.287   9.870  28.599 -0.0315 -0.0450 -0.0072
40698W        W83636  10.760  10.795  29.661  0.4344  0.0466  0.1138
40699W        W83637   7.948   6.810  27.799 -0.0902 -0.2412 -0.0869
40700W        W83638  12.777   9.357  30.495  0.2154  0.2325  0.0154
40701W        W83639   7.062  10.465  26.274 -0.0428  0.0911 -0.4360
40702W        W83640   8.809   8.180  31.165  0.0446 -0.1741 -0.2053
40703W        W83641  10.903   8.568  30.510 -0.1145  0.3320  0.0399
40704W        W83642   6.985   7.984  27.763 -0.2044 -0.0149 -0.2659
40705W        W83643  10.328   8.272  28.579  0.2458 -0.0054 -0.0009
40706W        W83644   9.934   9.792  28.905 -0.1587 -0.0514  0.1931
40707W        W83645  10.193  10.545  28.929 -0.3814 -0.0559  0.1720
40708W        W83646  10.845  10.263  30.311 -0.1046 -0.3019 -0.1637
40709W        W83647   9.233  10.292  30.103  0.0015 -0.2976 -0.1950
40710W        W83648   8.618   8.071  29.303  0.2552 -0.1751  0.1794
40711W        W83649   8.863   9.815  27.965 -0.2464  0.0901 -0.1188
40712W        W83650   9.645  10.775  30.815 -0.1095 -0.0606  0.0596
40713W        W83651  12.902   9.209  27.924  0.0577  0.3201 -0.0857
40714W        W83652  12.171   7.894  28.606  0.2350 -0.2053 -0.0033
40715W        W83653   9.633   7.689  28.078 -0.1805  0.0446  0.0350
40716W        W83654   7.483   8.671  30.347  0.1227  0.2092  0.0270
40717W        W83655   7.523   9.415  28.617 -0.0871 -0.1906 -0.0136
40718W        W83656  11.631  10.577  29.877  0.2325  0.4058  0.0023
40719W        W83657   8.319   8.378  28.269 -0.0602 -0.1001  0.2045
40720W        W83658   9.804   8.852  28.287 -0.0266 -0.0421  0.0202
40721W        W83659  11.939   9.793  27.888  0.1848 -0.2959  0.0413
40722W        W83660   8.479   9.398  28.814 -0.2226 -0.4217 -0.0522
40723W        W83661  10.823   7.390  26.351  0.3804  0.2873  0.0127
40724W        W83662   9.343  10.175  29.579  0.0110  0.1600  0.0285
40725W        W83663   8.892  11.252  29.808  0.1240 -0.0125  0.2445
40726W        W83664  10.102   8.660  29.232  0.4370 -0.1430  0.0765
40727W        W83665   9.072   9.054  29.077 -0.1684 -0.1825 -0.0751
40728W        W83666  11.046  10.261  27.551  0.0669 -0.2191 -0.1158
40729W        W83667   9.580  10.386  30.475  0.4086 -0.2486  0.0155
40730W        W83668  10.672  10.839  31.218 -0.0705 -0.0686  0.0299
40731W        W83669   9.812  10.929  29.484  0.2404 -0.0676 -0.1750
40732W        W83670  11.800   9.717  28.602  0.1427  0.0188  0.2264
40733W        W83671   6.912   7.141  29.834 -0.1303 -0.1950 -0.3283
40734W        W83672   6.773   9.503  26.052 -0.1827  0.2209 -0.5561
40735W        W83673   8.555   8.433  28.938  0.0815  0.2263 -0.0838
40736W        W83674  11.851  10.195  30.526  0.2595  0.0543  0.3108
40737W        W83675   8.720   8.544  30.417 -0.0833  0.2406  0.2193
40738W        W83676   9.601   7.044  28.200  0.1697  0.0704 -0.2203
40739W        W83677   9.763   9.325  28.501 -0.1970 -0.0362 -0.1792
40740W        W83678  10.527   8.767  31.128 -0.1720 -0.0403 -0.0299
40741W        W83679  10.451   8.576  31.638 -0.0109  0.1426  0.1168
40742W        W83680  10.586   9.415  30.629 -0.1420 -0.2829 -0.1053
40743W        W83681   8.822   8.067  30.598  0.0354  0.0821  0.0436
40744W        W83682  10.113   9.652   0.892 -0.0734  0.1568 -0.2833
40745W        W83683   8.905   9.077  31.043  0.2675  0.4668  0.0499
40746W        W83684   9.482   9.027  30.425 -0.0143 -0.1740 -0.1754
40747W        W83685  10.496   7.835  30.593  0.1531 -0.6080  0.3587
40748W        W83686   9.009   8.573  31.921  0.0001 -0.2872 -0.0997
40749W        W83687  10.943   8.032  30.373 -0.0742 -0.0296 -0.1112
40750W        W83688  11.509  11.105  30.487  0.0772  0.2900  0.2722
40751W        W83689   9.746  11.621  31.154  0.1559  0.0873 -0.1734
40752W        W83690   9.315   8.713  29.329  0.1462  0.0056 -0.2491
40753W        W83691  11.436   9.267  30.360 -0.3251 -0.1463  0.0193
40754W        W83692   8.504   8.983  30.784 -0.0739 -0.3309  0.3119
40755W        W83693  11.459   9.267   1.247  0.0336  0.0809 -0.1272
40756W        W83694  10.027  10.652  30.436  0.1362  0.0306  0.0159
40757W        W83695   7.779   8.706  30.793 -0.1408  0.1136 -0.3806
40758W        W83696  11.371   9.457  30.859 -0.0305 -0.1285  0.2317
40759W        W83697   8.968   7.823  31.485 -0.1723  0.2252  0.1322
40760W        W83698   7.717   8.556  31.354  0.1602  0.0011 -0.0934
40761W        W83699   7.610   7.581   0.110 -0.0135 -0.0137  0.0763
40762W        W83700   8.010  10.174  30.808  0.0680  0.2299  0.1505
40763W        W83701  10.308   9.382  31.539  0.0923 -0.0524  0.3185
40764W        W83702   8.717   8.573   0.339 -0.3103  0.1612 -0.1793
40765W        W83703   9.767   6.655  30.697 -0.3203 -0.0122  0.0568
40766W        W83704   8.997   7.696  30.857 -0.2982  0.2870 -0.0895
40767W        W83705   9.076   8.058  31.900 -0.1186  0.2494 -0.0085
40768W        W83706   7.171  10.915  31.623  0.1911 -0.0688 -0.1693
40769W        W83707   8.163   8.675  31.080 -0.0402  0.1918  0.1196
40770W        W83708   8.792   9.668  30.698  0.1430 -0.2325  0.0605
40771W        W83709   9.765   9.237  30.828 -0.0172  0.3395  0.1898
40772W        W83710   7.476   7.457  30.948  0.1045  0.0097 -0.1968
40773W        W83711  12.378   8.573  30.765 -0.2424 -0.3201  0.2735
40774W        W83712   9.956   8.016  30.092  0.2240 -0.0842  0.0957
40775W        W83713   8.039   9.504  31.322  0.4662  0.0871  0.0727
40776W        W83714  10.071   8.985   1.020 -0.2441  0.0433 -0.1208
40777W        W83715   7.313   8.026   0.168  0.0116 -0.2375  0.3621
40778W        W83716  11.209   9.261   0.268  0.0317 -0.1846  0.1123
40779W        W83717  10.799   9.019  31.522  0.0240  0.2452 -0.0142
40780W        W83718   9.667   8.492  30.779  0.3254  0.0668  0.1157
40781W        W83719  11.951   8.662  31.471 -0.1490  0.1195 -0.0877
40782W        W83720   9.695   7.926   0.068  0.1537 -0.1255 -0.1899
40783W        W83721   8.207   7.387  31.788  0.2031 -0.1674 -0.2593
40784W        W83722  10.092  10.503  31.459  0.1445  0.0994 -0.1968
40785W        W83723   9.325   8.899  31.080  0.1619 -0.1016  0.1911
40786W        W83724   8.905   9.984  29.845  0.1283 -0.1303 -0.1975
40787W        W83725  10.527   7.348   0.549  0.3634  0.2246 -0.0289
40788W        W83726   8.454  10.589  31.958  0.3429  0.0074 -0.1264
40789W        W83727  11.243  10.451  31.564 -0.1550 -0.2196  0.2052
40790W        W83728   8.441   9.224  31.250 -0.1162  0.3010  0.0634
40791W        W83729  10.535   9.761  31.192  0.1176 -0.1903  0.1894
40792W        W83730  10.899   7.681   0.876  0.2474  0.1100  0.1828
40793W        W83731  10.528   7.596  31.935 -0.0179 -0.1042 -0.1830
40794W        W83732   9.083  10.442  31.333  0.0385 -0.3783 -0.1325
40795W        W83733   9.074   7.185  30.824 -0.0395  0.2481 -0.2595
40796W        W83734   8.900   7.843  30.066  0.1301  0.1374 -0.0413
40797W        W83735  13.158   7.455  31.901 -0.2806 -0.3664  0.0842
40798W        W83736   9.637   9.644  31.131 -0.2329 -0.1136 -0.0187
40799W        W83737  10.051  10.024   0.033 -0.0491 -0.2546 -0.2597
40800W        W83738   8.145   8.319  31.809 -0.0754  0.1494 -0.0324
40801W        W83739   7.094   8.988  31.962  0.3730  0.0030  0.0579
40802W        W83740   7.556   9.552  31.369  0.4467 -0.0570 -0.2589
40803W        W83741   8.352   9.532  30.888 -0.2269  0.0732 -0.1662
40804W        W83742   7.615   7.548  30.008 -0.4194  0.0812  0.0072
40805W        W83743   9.861  10.703  31.870  0.2270 -0.1838  0.0001
40806W        W83744  10.835   9.051  30.262 -0.1012 -0.2452 -0.2830
40807W        W83745  12.089   8.287  31.128 -0.0023  0.0315 -0.0859
40808W        W83746   7.944  13.196  17.948  0.5215  0.1209 -0.0458
40809W        W83747   7.417  11.488  16.564  0.0336 -0.1747  0.3861
40810W        W83748   9.768   9.597  17.290 -0.0841  0.1585  0.1762
40811W        W83749  10.469  12.559  15.687 -0.0480 -0.1830  0.1247
40812W        W83750   7.344  11.526  18.366  0.2183  0.3045 -0.0256
40813W        W83751   9.885  15.054  15.623 -0.2747 -0.1955  0.1353
40814W        W83752   6.427  11.373  18.737  0.0653 -0.1204 -0.0549
40815W        W83753   8.705  12.159  17.343 -0.1270  0.0558 -0.2862
40816W        W83754  10.050  13.257  17.877  0.0126  0.1271  0.0041
40817W        W83755   8.712  14.061  16.153 -0.0713 -0.0876 -0.1015
40818W        W83756   6.852  12.029  19.767  0.0234  0.2717 -0.1180
40819W        W83757   7.918  14.689  17.961 -0.1597 -0.0011  0.1430
40820W        W83758   8.631  10.714  16.195  0.1055 -0.0727 -0.0267
40821W        W83759   7.114  11.959  19.291 -0.2134  0.2325 -0.1239
40822W        W83760   9.266  10.318  18.060 -0.0537  0.1829  0.1391
40823W        W83761   6.804  11.644  17.086  0.2074  0.1121 -0.0819
40824W        W83762   7.369  11.796  17.876  0.0849  0.2521 -0.0350
40825W        W83763   9.228  12.137  15.860 -0.1321 -0.2328 -0.0720
40826W        W83764   9.629  13.380  16.708  0.0990 -0.2388 -0.0358
40827W        W83765   8.190  11.071  18.846 -0.0561  0.1819 -0.0572
40828W        W83766   8.572  11.541  19.238  0.1601  0.3143 -0.1011
40829W        W83767   8.081  12.801  16.915 -0.0100 -0.2349  0.1774
40830W        W83768   7.106  13.504  16.646 -0.0949  0.1686  0.1400
40831W        W83769   5.878  12.420  18.304  0.0252 -0.2023  0.1926
40832W        W83770   7.064  12.616  18.089  0.1292  0.2459 -0.0179
40833W        W83771   8.842  10.863  17.480 -0.4470  0.0128 -0.1105
40834W        W83772   9.594  12.569  19.732  0.2297 -0.4020  0.1464
40835W        W83773   8.471  13.588  18.255 -0.2833 -0.0051  0.1382
40836W        W83774   7.822  14.074  17.129 -0.1736  0.3904 -0.1623
40837W        W83775   8.777  12.706  18.977  0.1861  0.1033  0.1049
40838W        W83776   6.519  13.555  17.901  0.0346 -0.2492 -0.0217
40839W        W83777   6.698  15.455  18.919 -0.0609  0.0396 -0.0626
40840W        W83778   7.707  14.527  16.964  0.2255  0.4506 -0.0116
40841W        W83779   9.571  13.937  17.341  0.0244 -0.1895 -0.1918
40842W        W83780  10.328  14.411  18.154 -0.1921 -0.0350 -0.1526
40843W        W83781   8.083  14.673  20.164  0.1960  0.0844  0.1251
40844W        W83782   7.591  12.249  16.740 -0.0753  0.4416 -0.1406
40845W        W83783   8.185  13.880  18.936 -0.1865  0.1049  0.5616
40846W        W83784   7.644  13.207  19.623 -0.3241  0.2956 -0.0556
40847W        W83785   8.186  11.967  17.357  0.0204 -0.0494 -0.0974
40848W        W83786   9.171  11.304  16.800 -0.2352 -0.0576 -0.4706
40849W        W83787   7.497  14.405  18.136 -0.0344 -0.0870 -0.1913
40850W        W83788   9.193  12.352  17.357 -0.2380  0.1274 -0.0394
40851W        W83789   7.751  12.865  19.180 -0.0420  0.2479  0.1166
40852W        W83790   7.098  14.083  18.346 -0.0520 -0.1777  0.2733
40853W        W83791   9.256  10.386  19.152  0.3710 -0.0634  0.0841
40854W        W83792   7.560  13.783  16.739  0.2739 -0.0961  0.0701
40855W        W83793  10.502  13.399  15.546  0.2572  0.1723  0.0242
40856W        W83794   7.856  11.882  15.806 -0.0677 -0.1874  0.0081
40857W        W83795  11.010  11.107  15.796  0.0930  0.5580  0.0105
40858W        W83796   8.325  10.952  16.664  0.3055  0.1665  0.0287
40859W        W83797   8.156  13.379  17.023 -0.1451 -0.1998  0.1703
40860W        W83798   8.450  12.367  18.754  0.3473  0.1942  0.0799
40861W        W83799   9.808  11.718  17.955  0.0004 -0.1099 -0.5031
40862W        W83800   9.465  11.883  16.213  0.0323 -0.1887  0.0517
40863W        W83801  10.116  11.277  16.777 -0.1878  0.1376 -0.2556
40864W        W83802   5.778  13.713  19.548 -0.0554 -0.0464 -0.1908
40865W        W83803   7.071  12.070  18.356  0.0929  0.0003  0.2771
40866W        W83804   9.553  15.011  15.214 -0.0447  0.1040 -0.1478
40867W        W83805  10.438  12.369  16.315  0.1865  0.1170  0.1231
40868W        W83806   9.582  15.449  15.515  0.0752  0.4911  0.3246
40869W        W83807   6.766  12.163  17.908 -0.0477 -0.0156  0.5144
40870W        W83808   5.330  12.522  19.379 -0.0115  0.0253  0.2731
40871W        W83809   7.302  12.910  18.870 -0.2953  0.1237 -0.0912
40872W        W83810   7.303   9.162  16.876  0.1369  0.2147  0.0058
40873W        W83811   9.683  12.778  18.879  0.0462  0.0781 -0.1190
40874W        W83812   6.200  14.357  20.553  0.1819 -0.1655 -0.3712
40875W        W83813  10.713  11.225  17.468  0.0471 -0.0811 -0.0551
40876W        W83814   8.858  13.732  16.677 -0.1559  0.0313  0.1475
40877W        W83815  10.706  12.517  16.974 -0.2144  0.1067 -0.0984
40878W        W83816  10.133  12.901  15.591  0.1991 -0.2195 -0.1325
40879W        W83817  10.222  11.308  18.362  0.1802 -0.2673  0.0973
40880W        W83818  11.561   9.605  18.813 -0.0115  0.2017 -0.0765
40881W        W83819   7.585  12.676  17.031 -0.0560  0.0153  0.0350
40882W        W83820   9.391  12.669  16.923  0.0357 -0.1629  0.4057
40883W        W83821  11.077  14.260  19.152 -0.5596 -0.2711  0.1959
40884W        W83822  10.704  13.718  15.202 -0.0029  0.1349  0.1082
40885W        W83823   7.152  14.383  17.737  0.1187 -0.1631 -0.2046
40886W        W83824   7.103  11.850  18.835 -0.1473 -0.4182 -0.1294
40887W        W83825   8.657  12.444  17.825  0.0606 -0.2552 -0.2683
40888W        W83826   8.352  14.887  16.736  0.1051  0.1134  0.0604
40889W        W83827   7.425  14.871  18.017 -0.4037  0.0502 -0.4134
40890W        W83828   7.248  11.831  16.908 -0.2492 -0.2639 -0.0156
40891W        W83829   7.279  10.503  20.154  0.2963 -0.1784 -0.0297
40892W        W83830   8.312  12.409  17.505  0.3927  0.3166 -0.0040
40893W        W83831  10.593  11.849  16.219  0.2467 -0.0223  0.0598
40894W        W83832   6.710  11.186  19.573 -0.3972 -0.0459  0.1752
40895W        W83833  11.127  10.780  18.205 -0.3017 -0.2204  0.0134
40896W        W83834   6.643  14.374  18.161 -0.1382  0.2473  0.0198
40897W        W83835  10.451  14.840  16.184 -0.0430 -0.2712  0.1971
40898W        W83836  10.939  12.395  16.524 -0.1125 -0.1958  0.1053
40899W        W83837   9.990  14.091  16.080 -0.1669 -0.2816 -0.0634
40900W        W83838   5.994  13.213  19.129  0.2038  0.0356  0.0368
40901W        W83839   6.829  12.602  17.657 -0.0735 -0.0977  0.0300
40902W        W83840   7.177  11.123  20.294  0.2128  0.0475  0.0461
40903W        W83841   7.939  12.291  17.118  0.2016  0.4404  0.2179
40904W        W83842   9.412  11.805  20.382 -0.2538  0.0001  0.0571
40905W        W83843   8.053   9.443  16.602  0.2356 -0.1606 -0.1174
40906W        W83844   9.766  11.114  18.527  0.2148  0.1968 -0.2067
40907W        W83845   8.501  13.294  16.648 -0.2845  0.0880 -0.0161
40908W        W83846   6.607  13.342  16.732  0.2954  0.0686 -0.1440
40909W        W83847  10.664  11.038  19.807  0.1975 -0.1690 -0.1944
40910W        W83848   9.462  14.641  15.586 -0.0320  0.4994  0.4112
40911W        W83849  10.464  12.930  19.662  0.0100 -0.4077 -0.2336
40912W        W83850   9.066  13.205  17.683 -0.2179 -0.3443 -0.2496
40913W        W83851   7.233  12.670  19.734  0.1144  0.2708  0.0560
40914W        W83852   7.777  10.813  16.276  0.1746  0.4420 -0.0006
40915W        W83853   7.094  14.629  18.393 -0.0396 -0.1517 -0.1118
40916W        W83854   8.611  13.148  17.433 -0.1871 -0.1896  0.0421
40917W        W83855   8.974  10.238  17.030  0.0202  0.0379 -0.2458
40918W        W83856   9.767  14.396  16.910 -0.3440  0.0367  0.0251
40919W        W83857   8.463  12.377  16.963  0.1278  0.1315 -0.1661
40920W        W83858   5.959  14.232  17.663 -0.1331 -0.3408  0.3958
40921W        W83859   9.676  10.444  17.458 -0.1172 -0.1058  0.0009
40922W        W83860   9.059  11.240  18.429  0.0920  0.1929 -0.1974
40923W        W83861  10.954  11.501  16.333  0.2324  0.0705 -0.0831
40924W        W83862   8.619  11.487  16.126 -0.0495 -0.1516 -0.1052
40925W        W83863   9.824  12.454  17.296 -0.1707 -0.2977  0.2854
40926W        W83864   7.978  14.923  17.051 -0.0734  0.0425  0.2014
40927W        W83865   6.444  11.896  16.905  0.0380  0.0433 -0.0675
40928W        W83866   8.443  14.117  16.586 -0.0442 -0.4125  0.0794
40929W        W83867   9.748  11.520  17.083  0.1032 -0.2081 -0.0025
40930W        W83868   7.216  13.227  19.298  0.1267 -0.3416 -0.0673
40931W        W83869   6.549  10.726  19.349  0.1764  0.1519  0.1085
40932W        W83870   7.346  11.750  17.393  0.1026 -0.0446  0.1425
40933W        W83871   8.011  13.153  20.688  0.0023  0.1182  0.4425
40934W        W83872   9.242  10.862  16.407  0.3585  0.1031 -0.0309
40935W        W83873  10.281  10.203  16.729  0.0083  0.1382  0.1007
40936W        W83874   8.651  11.919  18.748  0.2183  0.0848 -0.1841
40937W        W83875   9.857  13.056  15.215  0.3009 -0.0551  0.2311
40938W        W83876  10.620  12.414  15.167  0.0944 -0.0940  0.1845
40939W        W83877   9.335  10.488  16.745 -0.4658 -0.1064 -0.0826
40940W        W83878   7.035  13.483  18.046 -0.1805 -0.0850 -0.0291
40941W        W83879   9.099  14.741  16.320  0.3146  0.1827  0.1243
40942W        W83880   9.223  12.663  18.705 -0.1156 -0.0038  0.0587
40943W        W83881   9.242  11.250  17.403  0.0556 -0.1118 -0.0089
40944W        W83882   9.892  13.642  16.383  0.1492 -0.2032 -0.0431
40945W        W83883   6.956  13.223  17.570  0.1207 -0.1003 -0.1272
40946W        W83884   8.072  13.037  18.754  0.0899  0.3218  0.2392
40947W        W83885   9.195  13.624  17.466  0.1205  0.3548  0.2242
40948W        W83886   9.264  11.459  19.342 -0.0481  0.2655  0.0930
40949W        W83887   8.813  12.693  16.112  0.0431 -0.0276  0.0746
40950W        W83888   9.595  11.345  18.978 -0.0933 -0.0272 -0.0505
40951W        W83889   6.035  14.816  17.361  0.2405 -0.0987  0.1905
40952W        W83890  10.636  11.480  18.131  0.0504  0.1577 -0.0286
40953W        W83891   8.637  11.357  18.752 -0.1209  0.1899 -0.1846
40954W        W83892   8.416  12.014  18.316 -0.0905 -0.1233  0.0045
40955W        W83893   9.730  11.879  19.028  0.0546 -0.0632  0.2737
40956W        W83894  10.527  11.248  15.971  0.0324  0.2365  0.0734
40957W        W83895  10.445  11.605  17.193 -0.2079  0.1280  0.1893
40958W        W83896   8.353  12.522  16.145 -0.0722  0.2651 -0.0136
40959W        W83897   8.856  11.693  19.668  0.4491  0.2201 -0.0401
40960W        W83898   7.475  13.899  18.108 -0.1086 -0.1018 -0.0119
40961W        W83899   7.597  14.620  19.064  0.2091 -0.0600  0.0003
40962W        W83900   9.234  14.339  18.658  0.2036  0.2414 -0.1429
40963W        W83901   9.866  12.853  16.947 -0.1783 -0.0367 -0.1409
40964W        W83902   7.656  12.192  18.951  0.2899 -0.2792  0.2542
40965W        W83903   9.085  11.837  18.429 -0.0458  0.4515 -0.2694
40966W        W83904   7.321  14.459  16.682  0.0117  0.1496  0.1836
40967W        W83905   8.524  12.759  16.542  0.0235  0.3861  0.1380
40968W        W83906   7.821  10.610  18.033  0.1431  0.1997  0.0725
40969W        W83907   9.294  13.859  18.815  0.1233  0.0879  0.0420
40970W        W83908   8.916  14.703  16.800  0.2204 -0.2661  0.0901
40971W        W83909   9.831  12.095  18.407  0.1183  0.1767  0.1276
40972W        W83910   8.196  15.097  17.456  0.4715 -0.0707  0.1084
40973W        W83911  10.185  11.767  18.271 -0.0790  0.0430  0.0553
40974W        W83912   6.140  15.109  17.746  0.0945  0.0033 -0.3219
40975W        W83913   7.756  11.800  17.103  0.2854  0.0419 -0.0114
40976W        W83914   6.567  13.318  17.273  0.1172  0.0832 -0.1702
40977W        W83915  10.674  10.687  17.926 -0.0612 -0.2110 -0.0070
40978W        W83916   9.882  13.391  15.560 -0.0535 -0.0492  0.0328
40979W        W83917   6.315  12.523  19.109  0.3592  0.3767  0.1865
40980W        W83918   8.400  11.058  17.363  0.2984 -0.0662  0.0268
40981W        W83919   5.513  14.012  18.318 -0.1624 -0.1815 -0.1465
40982W        W83920   9.136  10.999  17.890 -0.3602  0.1410  0.3431
40983W        W83921   9.465  11.930  17.498 -0.1903 -0.0701 -0.1109
40984W        W83922   8.943  12.477  19.961  0.1214 -0.0284 -0.2428
40985W        W83923   8.149  12.645  20.056 -0.0364  0.1826 -0.3811
40986W        W83924   7.277  11.952  16.381 -0.0299 -0.2766  0.0066
40987W        W83925   9.487  10.840  18.241  0.1136  0.2623 -0.0289
40988W        W83926   8.583  12.152  16.565 -0.1984  0.3485  0.1434
40989W        W83927   5.140  14.859  17.634 -0.3124 -0.0826  0.1848
40990W        W83928   9.191  13.886  17.022 -0.1572 -0.0242 -0.1690
40991W        W83929   7.447  12.295  17.296 -0.0178 -0.1169 -0.2745
40992W        W83930   6.872  12.898  17.205  0.3728 -0.2446  0.3658
40993W        W83931   8.184  12.137  20.325 -0.1717  0.1833  0.2486
40994W        W83932  10.542  11.589  16.694  0.3533 -0.1084 -0.1392
40995W        W83933   8.081  12.235  18.031  0.2447  0.0505  0.0114
40996W        W83934   8.543  11.525  18.249 -0.0673 -0.3502  0.2276
40997W        W83935   8.045  12.420  16.586 -0.3126 -0.1781 -0.0938
40998W        W83936   9.390  13.472  19.213 -0.1642  0.3538 -0.2443
40999W        W83937   7.733  11.189  18.540  0.2748 -0.4236 -0.1246
41000W        W83938   5.678  15.673  20.207 -0.1267  0.3162 -0.1363
41001W        W83939   8.031  10.242  17.051 -0.1315 -0.1310 -0.0227
41002W        W83940  10.039  14.513  16.281  0.0445 -0.0742  0.0572
41003W        W83941   9.535  12.308  18.809 -0.1951 -0.2354 -0.0112
41004W        W83942   6.306  11.539  17.329  0.1641 -0.2212 -0.0210
41005W        W83943   6.830  13.023  18.044  0.2158 -0.2743 -0.1181
41006W        W83944   6.827  11.644  18.469  0.1746  0.1482 -0.0298
41007W        W83945   8.627  11.604  17.398 -0.2729  0.3023  0.1404
41008W        W83946   8.028  14.821  19.571 -0.1660 -0.0314 -0.0484
41009W        W83947   7.717  13.562  17.696  0.1529  0.0862  0.1107
41010W        W83948   6.842  12.860  18.500  0.0727  0.0066  0.1270
41011W        W83949  11.498  10.171  16.172  0.0317  0.3011 -0.3815
41012W        W83950   9.447  13.043  15.607  0.3903  0.2999 -0.5082
41013W        W83951   8.133  11.931  16.778  0.2260 -0.1146  0.0290
41014W        W83952  11.558  12.560  20.023  0.0174 -0.3037 -0.2167
41015W        W83953  10.306  12.080  15.430  0.1588  0.0208 -0.1028
41016W        W83954   9.706  11.291  19.587  0.0009  0.0963  0.0695
41017W        W83955   8.225  11.969  18.980  0.2019  0.1961  0.2250
41018W        W83956   9.545  11.686  18.642  0.3612  0.0849 -0.0421
41019W        W83957   6.371  13.074  18.802  0.1950 -0.1270  0.3953
41020W        W83958   9.883  15.017  20.688 -0.1476  0.0276  0.0664
41021W        W83959   8.223  12.645  18.398 -0.1383 -0.1009 -0.1827
41022W        W83960  10.041  12.007  16.401 -0.0679  0.0264 -0.1820
41023W        W83961   7.371  10.664  16.030 -0.1874 -0.0774 -0.0259
41024W        W83962   7.576  13.623  17.224 -0.2784 -0.1139  0.1310
41025W        W83963  10.798  12.854  16.324  0.1695  0.2629  0.1229
41026W        W83964   7.425  14.506  17.387  0.0816 -0.0104 -0.2159
41027W        W83965  10.552  12.091  16.738 -0.2593  0.3788 -0.0708
41028W        W83966   7.649  13.238  18.761  0.2900 -0.0197  0.0722
41029W        W83967   9.435  11.444  18.227 -0.2291  0.1650  0.2630
41030W        W83968  10.181  12.652  17.586  0.0236 -0.1387  0.1316
41031W        W83969   8.751  13.575  16.206 -0.1749  0.0406 -0.0897
41032W        W83970   8.565   9.449  20.078  0.0702 -0.1705 -0.1751
41033W        W83971  11.139  11.907  16.551  0.1480  0.1464 -0.0635
41034W        W83972   8.415  11.816  17.789  0.0130 -0.0717  0.2912
41035W        W83973   9.813  10.972  17.235  0.1198 -0.1956  0.0548
41036W        W83974   9.136  11.503  18.869 -0.0082 -0.0929  0.2139
41037W        W83975   8.479  11.036  19.288  0.0809 -0.0854 -0.0673
41038W        W83976   5.429  12.315  19.853  0.1241  0.0099  0.0889
41039W        W83977   9.984  13.985  17.212 -0.0466 -0.2467 -0.1443
41040W        W83978   9.523  12.276  16.571 -0.0889 -0.2195 -0.2939
41041W        W83979  10.011  12.381  19.006  0.0571 -0.2283 -0.0361
41042W        W83980   9.032  12.696  16.567  0.1806 -0.0371  0.1297
41043W        W83981   9.643  12.314  16.053 -0.2521 -0.0489 -0.0912
41044W        W83982   7.130  12.374  18.776 -0.1036 -0.1053 -0.1354
41045W        W83983  10.001  13.749  18.614  0.2423  0.2797  0.0345
41046W        W83984   8.258  11.105  16.144  0.2628  0.1305  0.1354
41047W        W83985   9.718   9.659  19.671  0.1430  0.0840 -0.2393
41048W        W83986   9.298  13.629  15.614  0.1340 -0.0542 -0.0954
41049W        W83987   9.103  12.190  16.821 -0.0634 -0.1363 -0.2955
41050W        W83988   9.655  11.071  16.729  0.1124 -0.1159 -0.0195
41051W        W83989   6.998  12.141  17.475 -0.2726  0.3043  0.2152
41052W        W83990   8.270  13.781  20.018  0.0784  0.0208  0.2425
41053W        W83991   7.528  11.076  16.870 -0.0517 -0.1344  0.0465
41054W        W83992   7.753  13.789  16.211 -0.2131 -0.2738  0.1745
41055W        W83993   9.354  11.875  18.014  0.1018  0.3213  0.1370
41056W        W83994   9.075  13.181  20.082  0.2310  0.2280  0.0071
41057W        W83995   8.965   9.913  16.166  0.0768  0.3216 -0.0649
41058W        W83996   8.804   9.863  17.527  0.0130 -0.2064  0.0516
41059W        W83997   7.387  13.169  17.830 -0.1571 -0.0514 -0.2435
41060W        W83998   9.056  11.849  17.189  0.1330  0.1189  0.2580
41061W        W83999   7.635  15.194  19.203  0.3008 -0.3134 -0.0628
41062W        W84000   6.289  13.597  18.770 -0.1064 -0.3231 -0.0362
41063W        W84001   7.186  13.952  19.010 -0.4008 -0.3201 -0.3025
41064W        W84002   9.064  11.638  17.702  0.1598 -0.1822 -0.1537
41065W        W84003   8.287  11.501  17.020 -0.1298  0.1055 -0.0388
41066W        W84004   8.712  11.101  16.428  0.0837 -0.0243  0.3235
41067W        W84005  10.350  12.692  18.697  0.2113 -0.0174  0.0963
41068W        W84006   8.103  13.056  17.447  0.1729  0.1637  0.0165
41069W        W84007   8.741  12.584  18.375  0.1110 -0.0069 -0.1530
41070W        W84008   9.461  12.696  17.621  0.0629 -0.0266  0.0307
41071W        W84009  10.587  13.288  17.079 -0.1852 -0.1631 -0.6708
41072W        W84010   8.013  13.515  18.493 -0.1849 -0.0609  0.1748
41073W        W84011   7.885  12.345  19.396 -0.3223  0.1972  0.0897
41074W        W84012   8.823  12.552  19.483 -0.1485  0.0162  0.5913
41075W        W84013   8.661  12.897  17.005 -0.2091 -0.0703 -0.3894
41076W        W84014   7.761  12.033  17.632  0.0747  0.2288 -0.0770
41077W        W84015   8.647  13.798  17.527  0.3912  0.3441  0.0264
41078W        W84016   6.606  14.744  20.559  0.1594  0.1008  0.3645
41079W        W84017   7.004  11.432  18.020  0.1239 -0.0552 -0.1581
41080W        W84018   7.451  15.964  17.873 -0.0277 -0.2185  0.0722
41081W        W84019   8.746  14.079  17.077  0.1344  0.3686  0.0340
41082W        W84020   8.704  13.465  17.083  0.0327 -0.2998 -0.0538
41083W        W84021   7.545  13.121  17.283 -0.3196 -0.3753  0.0759
41084W        W84022   8.718  11.358  16.935  0.1538  0.0648 -0.4396
41085W        W84023   7.254  13.709  16.171 -0.1585  0.1846 -0.2285
41086W        W84024   6.742  13.767  17.493 -0.1152 -0.0022  0.1240
41087W        W84025   9.052  15.803  16.313  0.0024  0.0504  0.0569
41088W        W84026   7.191  15.020  16.681 -0.1195 -0.1580  0.1493
41089W        W84027   9.681  13.379  18.713 -0.1291  0.3043 -0.2898
41090W        W84028   9.817  11.214  15.758 -0.1689 -0.3266 -0.1164
41091W        W84029   9.417  12.370  18.345  0.1021  0.0363 -0.4031
41092W        W84030  11.034  11.574  15.854 -0.1530  0.1696  0.0477
41093W        W84031   9.888  13.481  19.262 -0.0442  0.2949  0.0019
41094W        W84032   7.706  12.772  18.545  0.0252 -0.1350 -0.0168
41095W        W84033   8.671  10.744  15.601 -0.0909  0.1000 -0.2616
41096W        W84034   6.811  12.943  19.563 -0.0273  0.2117 -0.1051
41097W        W84035   9.487  10.348  18.522  0.0710  0.1873  0.2857
41098W        W84036   6.170  15.673  20.252 -0.0656  0.0363 -0.1712
41099W        W84037  10.256  14.297  15.503 -0.1014  0.0650  0.0374
41100W        W84038   6.893  12.120  16.721 -0.0699 -0.3368  0.2266
41101W        W84039   8.371  13.411  17.803 -0.0668 -0.0766  0.1025
41102W        W84040  10.779  11.643  19.089  0.1650  0.2720 -0.1477
41103W        W84041   9.055  12.282  16.321 -0.0148 -0.1104  0.0167
41104W        W84042   9.019  12.210  18.811  0.0759 -0.1210  0.1679
41105W        W84043   7.627  14.167  17.699 -0.2459  0.3121  0.0573
41106W        W84044   8.610  13.077  18.610  0.0577  0.1886 -0.4260
41107W        W84045   6.829  14.268  18.764  0.1894 -0.0707  0.0118
41108W        W84046   7.077  10.795  16.774  0.0447  0.0645  0.0502
41109W        W84047  11.136  12.399  17.432  0.1713  0.2230  0.0694
41110W        W84048   7.281  13.662  20.015 -0.3109  0.0626  0.1120
41111W        W84049   9.274  11.078  19.687 -0.0732 -0.0120  0.1476
41112W        W84050   7.649  12.758  18.052 -0.2702 -0.1012  0.1144
41113W        W84051   8.614  11.872  16.960  0.3381  0.2457 -0.1647
41114W        W84052   8.840  12.054  18.026  0.0740 -0.1731  0.2134
41115W        W84053   7.049  13.865  20.516  0.2621 -0.0944 -0.0475
41116W        W84054   9.786  12.846  16.003  0.2656 -0.0717 -0.1838
41117W        W84055   9.613  12.185  20.121 -0.1430  0.1845 -0.1263
41118W        W84056   9.168  13.237  16.013 -0.5036 -0.0120 -0.0730
41119W        W84057   9.186  14.094  19.229  0.1284  0.2711  0.0379
41120W        W84058   7.771  11.749  18.666 -0.0322 -0.0406  0.0817
41121W        W84059   9.624  11.696  16.634  0.0225 -0.2450  0.2116
41122W        W84060   7.945  14.057  16.616  0.3160  0.1955 -0.3734
41123W        W84061   8.446  13.456  18.857  0.2082  0.0355 -0.3782
41124W        W84062   9.105  12.645  17.945  0.0295 -0.0499 -0.0321
41125W        W84063   7.170  12.045  20.162 -0.1874  0.1463 -0.0760
41126W        W84064  11.349  11.266  16.111  0.0820 -0.0183  0.4154
41127W        W84065   9.866  11.392  17.579 -0.0494  0.2076 -0.2959
41128W        W84066   8.255  13.862  16.974  0.3486 -0.1939 -0.1230
41129W        W84067   9.071  14.068  18.299  0.1283  0.0482 -0.1900
41130W        W84068   9.033  13.172  18.209  0.0294 -0.0685 -0.0380
41131W        W84069   6.346  11.011  18.447  0.2068  0.0089 -0.0117
41132W        W84070   9.787  14.635  18.251  0.0216  0.1120 -0.2813
41133W        W84071  10.298  13.558  18.254  0.2566 -0.0223 -0.0720
41134W        W84072   8.348  10.609  17.163  0.1564  0.2613  0.1176
41135W        W84073   6.890  12.426  19.395 -0.2366 -0.1077  0.2678
41136W        W84074   6.013  15.597  17.608 -0.2713 -0.1223  0.0660
41137W        W84075   9.909  10.964  18.985 -0.1070 -0.0671  0.2425
41138W        W84076  10.309  11.899  19.088  0.4043 -0.0491  0.1765
41139W        W84077   7.604  14.071  15.832 -0.5602 -0.2986 -0.2600
41140W        W84078   9.486  10.007  17.660 -0.1868  0.1743 -0.2646
41141W        W84079   7.666  14.049  19.912  0.1236  0.1949  0.0221
41142W        W84080   8.105  14.285  19.854  0.1636  0.0474  0.0995
41143W        W84081   6.673  12.422  17.191 -0.0917 -0.1713 -0.0852
41144W        W84082   8.907  13.567  19.038 -0.1494  0.1119  0.2649
41145W        W84083   7.096  12.529  16.909  0.3691  0.3413  0.2174
41146W        W84084   9.927  13.028  16.458  0.0579 -0.0580 -0.2362
41147W        W84085   9.808  12.749  17.984 -0.3279  0.0574 -0.2536
41148W        W84086   8.757  10.821  16.926  0.1537 -0.0273 -0.0263
41149W        W84087  11.085  11.743  17.957 -0.0564 -0.0336 -0.0622
41150W        W84088   8.394  11.478  16.574  0.2608 -0.1389  0.2035
41151W        W84089  10.767  10.303  16.578 -0.1691 -0.0399 -0.0845
41152W        W84090  10.586  11.193  16.973 -0.1253 -0.1296 -0.1012
41153W        W84091   7.882  13.993  18.368  0.2198  0.3727 -0.1602
41154W        W84092   6.093  11.964  17.495 -0.1951  0.2353 -0.0172
41155W        W84093   7.752  11.947  16.400  0.1173 -0.0348  0.0415
41156W        W84094   8.094  12.843  19.498 -0.2463  0.1817 -0.0452
41157W        W84095   8.460  10.602  18.635  0.1083 -0.4625  0.0991
41158W        W84096   7.261  12.735  20.253  0.1234  0.0150 -0.2319
41159W        W84097   7.125  11.254  17.120 -0.0872 -0.0482 -0.4543
41160W        W84098   7.036  10.516  16.417  0.1484 -0.0063 -0.1866
41161W        W84099   9.638  13.323  16.085 -0.0306  0.0037  0.0805
41162W        W84100   8.213  12.741  17.851 -0.0327  0.2334 -0.3082
41163W        W84101   6.496  12.039  19.296 -0.1866 -0.1134 -0.2153
41164W        W84102  10.192  13.557  17.351 -0.3424 -0.0396  0.0388
41165W        W84103  10.369  13.391  16.452 -0.0394  0.2627 -0.0881
41166W        W84104   8.657  11.243  17.820  0.1291 -0.0451  0.0132
41167W        W84105  10.017  13.471  19.775  0.5375  0.2146  0.1118
41168W        W84106   7.630  14.279  16.296 -0.1207  0.2196 -0.1373
41169W        W84107   7.784  11.641  19.887 -0.0507 -0.0247  0.0998
41170W        W84108   8.188  11.519  20.151 -0.1116  0.2871  0.1863
41171W        W84109   7.740  10.624  17.104 -0.1583 -0.1376  0.2377
41172W        W84110   9.736  12.276  17.774  0.0084  0.3347 -0.0442
41173W        W84111   9.276  12.689  15.945  0.0724 -0.1805  0.2314
41174W        W84112   9.076  15.306  16.289  0.2632  0.1446  0.1178
41175W        W84113   8.118  13.686  17.434 -0.1272 -0.2738 -0.2016
41176W        W84114   9.082  15.229  18.178  0.1242  0.1667 -0.1896
41177W        W84115   7.721  10.227  20.292  0.3598 -0.0756 -0.0007
41178W        W84116   8.909  13.144  16.381  0.1878 -0.1138  0.0125
41179W        W84117   7.686  14.078  19.073  0.0765 -0.0919  0.0924
41180W        W84118  12.142  13.298  16.010 -0.4046  0.1608  0.1076
41181W        W84119  10.737  11.167  18.533  0.1795 -0.1675  0.3663
41182W        W84120   9.972  12.537  16.332  0.0265  0.3849  0.2075
41183W        W84121   6.804  11.620  20.097 -0.3670  0.0895  0.0836
41184W        W84122   7.693  12.779  19.912  0.4967  0.1348 -0.1945
41185W        W84123   9.845  12.999  17.446  0.0035  0.2175  0.1962
41186W        W84124   8.053  11.465  17.551 -0.1760  0.1061 -0.0929
41187W        W84125   8.931  11.788  16.378 -0.2003 -0.0927  0.0101
41188W        W84126  10.348  13.654  15.991  0.1949  0.1954 -0.0181
41189W        W84127   6.355  14.035  17.979  0.2442 -0.1026 -0.0040
41190W        W84128   8.448  13.092  16.118  0.0330  0.2620 -0.0258
41191W        W84129   8.382  12.451  19.266 -0.3768 -0.2652 -0.0286
41192W        W84130   8.796  12.681  17.406  0.1721  0.2535 -0.1649
41193W        W84131   9.157  13.217  18.728 -0.1322  0.2411 -0.0891
41194W        W84132   7.199  11.315  17.632 -0.1322 -0.0279 -0.1427
41195W        W84133  10.118  13.256  16.955  0.1008  0.1194  0.1441
41196W        W84134   9.132  13.322  16.776 -0.0127 -0.5042  0.3067
41197W        W84135   9.805  13.887  19.465 -0.0124 -0.0477 -0.0546
41198W        W84136   8.370  14.516  17.086 -0.0636 -0.2494  0.0794
41199W        W84137   9.589  12.008  17.025 -0.0995 -0.0500 -0.3520
41200W        W84138   8.039  11.504  19.106  0.0543 -0.0071 -0.2343
41201W        W84139   7.802  12.585  17.628 -0.2578  0.1208  0.1608
41202W        W84140   9.105  14.110  17.451 -0.2848  0.1159 -0.4747
41203W        W84141  10.293  11.633  17.808 -0.3552 -0.1092  0.2755
41204W        W84142   7.073  13.506  17.153  0.4310  0.1081  0.3086
41205W        W84143   9.685  11.174  16.273  0.0751  0.1899 -0.0049
41206W        W84144   7.892  15.385  20.599  0.1752 -0.0491  0.0384
41207W        W84145   8.836  12.079  19.290  0.2445  0.0643  0.0863
41208W        W84146   8.372  13.847  23.228 -0.2300  0.0983 -0.3059
41209W        W84147   7.227  11.536  21.321  0.0133  0.0048 -0.0077
41210W        W84148   8.775  10.183  17.882  0.0325 -0.0414 -0.1836
41211W        W84149  10.346  15.294  20.846 -0.2204 -0.0948 -0.1437
41212W        W84150   6.236  12.137  20.498  0.3653 -0.1883 -0.1881
41213W        W84151   9.607  13.032  19.408 -0.2395  0.1327 -0.0663
41214W        W84152   8.015  10.861  20.434  0.2536  0.1020 -0.1102
41215W        W84153   9.993  13.469  20.792  0.2217  0.2198 -0.1878
41216W        W84154   9.956  14.103  21.525  0.0742  0.2247 -0.1072
41217W        W84155   8.021  12.564  18.867 -0.1716 -0.3643  0.2251
41218W        W84156   9.087  12.259  21.910  0.0027  0.0711  0.2121
41219W        W84157   8.505  14.065  22.750 -0.0002  0.0937  0.4558
41220W        W84158   7.809  10.543  20.766  0.0750 -0.0114 -0.1107
41221W        W84159   7.246  11.205  21.853  0.3471 -0.0518  0.0111
41222W        W84160  10.003  13.152  21.845 -0.0241 -0.0948 -0.1393
41223W        W84161   9.088  12.499  20.961 -0.0017  0.2061 -0.1337
41224W        W84162   7.938  12.738  21.795 -0.1838  0.2499 -0.1728
41225W        W84163   9.589  11.442  21.704  0.1161  0.1609  0.4372
41226W        W84164   8.257  15.565  21.567 -0.1127 -0.1501 -0.3543
41227W        W84165   7.986  11.262  22.273  0.1179 -0.2484  0.1085
41228W        W84166   9.360   9.635  23.482 -0.1103  0.0386 -0.0150
41229W        W84167   7.561  13.161  20.197  0.1271 -0.1863 -0.2645
41230W        W84168   5.752  13.021  20.670 -0.0669 -0.1442 -0.0731
41231W        W84169   8.504  11.200  20.985  0.0576  0.2391 -0.1760
41232W        W84170   9.295  12.558  22.269  0.1929  0.1713 -0.0743
41233W        W84171  10.027  10.942  20.163  0.1754 -0.1457  0.0653
41234W        W84172   7.844  12.138  21.808 -0.1987 -0.2235  0.1275
41235W        W84173   8.110  14.507  22.052  0.1358 -0.2363 -0.1794
41236W        W84174   7.261  14.020  22.867  0.1892 -0.0497  0.0818
41237W        W84175   9.151  13.305  23.362  0.0387  0.0996  0.0724
41238W        W84176   6.558  12.823  21.359  0.0623  0.0754  0.2523
41239W        W84177   7.969  13.480  23.420  0.1088 -0.2552 -0.0560
41240W        W84178  10.103  13.065  20.454  0.3665  0.0412  0.1368
41241W        W84179   9.634  12.155  20.733 -0.0575 -0.0355  0.0798
41242W        W84180   9.177  14.437  22.746  0.0763 -0.0133  0.1662
41243W        W84181   8.715  14.318  25.059 -0.0914  0.2805 -0.1185
41244W        W84182   6.625  13.391  19.733  0.0217 -0.0415  0.1804
41245W        W84183   9.084  14.001  23.919 -0.2605 -0.2126  0.0253
41246W        W84184   7.759  14.261  22.965  0.0227  0.0115  0.1347
41247W        W84185   9.756  13.102  22.994 -0.1722  0.0170  0.0250
41248W        W84186   8.861  13.151  21.764  0.0153 -0.0664  0.1442
41249W        W84187   7.959  13.402  19.126 -0.1538 -0.1627 -0.0721
41250W        W84188   8.603  12.704  20.279  0.1354  0.0549 -0.2318
41251W        W84189   8.661  14.303  23.948  0.2416 -0.1933  0.0767
41252W        W84190   7.653  13.105  21.135 -0.2396  0.2916 -0.0160
41253W        W84191  12.004  12.346  22.380  0.1770 -0.2215  0.1947
41254W        W84192   6.915  13.745  21.279  0.1082 -0.2440  0.3200
41255W        W84193   9.367  10.850  18.753 -0.2886  0.3327 -0.1446
41256W        W84194   7.322  11.659  19.586  0.0585  0.0389 -0.0527
41257W        W84195   9.278  11.930  19.205  0.0621  0.0604 -0.0104
41258W        W84196  10.400  10.409  20.654 -0.0026  0.3454 -0.1949
41259W        W84197   8.009  15.202  23.082  0.0072  0.0608  0.2852
41260W        W84198   8.609  10.613  19.637  0.0304 -0.0799 -0.2490
41261W        W84199  11.498  15.087  22.329 -0.6165  0.1381 -0.0560
41262W        W84200   8.978  11.954  20.137  0.2444 -0.2150  0.0629
41263W        W84201  10.236  12.120  22.041 -0.5189  0.0583 -0.1463
41264W        W84202   8.167  13.086  22.138 -0.0366 -0.2476  0.1909
41265W        W84203   8.027  11.711  21.550 -0.3488 -0.0278 -0.1712
41266W        W84204  10.663  13.204  19.161 -0.3152 -0.3178  0.0484
41267W        W84205  10.062  13.680  21.293  0.0095 -0.3009  0.3239
41268W        W84206  10.617  13.420  20.578 -0.0575 -0.2334  0.1125
41269W        W84207   7.416  12.313  21.063  0.0750 -0.2394 -0.5212
41270W        W84208   7.597  13.060  23.194 -0.0746  0.0088  0.1322
41271W        W84209   7.358  11.053  23.484  0.0332 -0.2748  0.0785
41272W        W84210   8.075   9.680  18.858  0.3919 -0.0301 -0.0740
41273W        W84211  10.249  14.085  23.215 -0.1438  0.1766 -0.3399
41274W        W84212   7.331  12.815  23.874  0.0771  0.4856 -0.3200
41275W        W84213   8.782  12.893  21.314 -0.0693 -0.1322 -0.0399
41276W        W84214   9.060  13.308  21.342  0.2568 -0.1459 -0.0052
41277W        W84215   9.090  13.666  21.680 -0.0010 -0.1695 -0.1140
41278W        W84216  10.041  13.098  18.376  0.0168 -0.1259 -0.1332
41279W        W84217   9.933  11.840  21.175  0.0839 -0.4466 -0.3011
41280W        W84218  10.037  11.902  22.996 -0.0932 -0.0518  0.0562
41281W        W84219   7.487  11.851  20.858 -0.0959  0.0937  0.2495
41282W        W84220   8.820  12.125  21.125  0.1970  0.0136  0.2928
41283W        W84221  11.148  15.100  22.771 -0.0198 -0.2370  0.2804
41284W        W84222   9.038  12.766  20.555 -0.0083  0.0471  0.0453
41285W        W84223   7.757  16.780  22.425 -0.1540 -0.0135 -0.0553
41286W        W84224   8.556  10.829  21.458 -0.1857  0.0422 -0.0864
41287W        W84225   9.121  14.314  24.310  0.5344  0.1836 -0.2468
41288W        W84226   7.271  13.138  18.432  0.1340  0.3104  0.1679
41289W        W84227   7.446  13.648  21.354  0.0646  0.2274 -0.2014
41290W        W84228   7.873  12.689  20.923  0.0743  0.0941  0.2601
41291W        W84229   8.148  10.131  21.366  0.0900 -0.1707  0.3752
41292W        W84230   9.161  13.152  22.199 -0.1635  0.2194 -0.2184
41293W        W84231   9.882   9.999  18.674  0.2417  0.3344  0.1321
41294W        W84232   8.548  11.612  21.514  0.2788 -0.1088 -0.0957
41295W        W84233  11.155  10.301  21.352 -0.0207  0.0690  0.0080
41296W        W84234   7.522  13.927  20.378 -0.0372 -0.1357  0.0163
41297W        W84235   9.699  15.163  19.973 -0.0472  0.0414  0.4528
41298W        W84236   9.189  12.822  21.775 -0.0647 -0.0032  0.1835
41299W        W84237  10.448  13.253  20.026  0.1123 -0.0681  0.3780
41300W        W84238   7.682  13.228  22.507 -0.2908 -0.0361 -0.1694
41301W        W84239   7.242  12.149  20.624 -0.1145  0.0037  0.1570
41302W        W84240   7.531  10.898  20.560 -0.2158 -0.3501 -0.2097
41303W        W84241   8.597  10.389  21.272 -0.1550 -0.0282 -0.1694
41304W        W84242   9.675  12.705  21.549 -0.2751 -0.3241  0.0452
41305W        W84243   7.174  11.132  19.777  0.1591  0.0044  0.3017
41306W        W84244   9.235  12.289  20.492 -0.0278 -0.0062 -0.1640
41307W        W84245   8.079  11.186  21.338 -0.2503  0.0732 -0.0612
41308W        W84246   7.154  12.892  21.137  0.1314  0.1119 -0.0240
41309W        W84247   9.999  11.330  22.854 -0.0189 -0.2120 -0.1773
41310W        W84248   8.856  14.243  20.447 -0.2089 -0.3014  0.1455
41311W        W84249   9.440  14.550  21.898  0.1134 -0.0586 -0.0707
41312W        W84250  10.435  14.823  21.446  0.1400  0.0010  0.0962
41313W        W84251   8.577  11.314  23.001 -0.0329 -0.3420  0.2726
41314W        W84252   7.212  12.627  20.725  0.1440 -0.3701 -0.2151
41315W        W84253   7.757  15.457  21.842 -0.1359  0.1305 -0.1841
41316W        W84254   9.757  12.343  21.208  0.0860 -0.0396 -0.0428
41317W        W84255   7.633  12.348  20.182 -0.2590 -0.0037  0.1499
41318W        W84256   9.539  15.566  20.368  0.2986 -0.4738  0.0066
41319W        W84257   8.540  13.479  19.418 -0.1302  0.2807 -0.1144
41320W        W84258   6.372  13.429  24.048  0.1162 -0.0341 -0.1103
41321W        W84259   9.546  12.055  23.209  0.1090  0.0904  0.1397
41322W        W84260  10.953  12.909  23.102 -0.0553  0.2133 -0.0138
41323W        W84261   8.744  12.509  21.636 -0.2862 -0.0311 -0.2339
41324W        W84262   7.678  11.052  20.061  0.1021  0.0460 -0.0709
41325W        W84263   8.834  13.624  20.897  0.1252  0.2216 -0.1083
41326W        W84264   6.215  15.775  20.803  0.2246  0.0244 -0.2873
41327W        W84265   7.604  11.845  21.409  0.3121 -0.0782 -0.1200
41328W        W84266   8.556  14.172  20.010 -0.0583 -0.2040  0.1287
41329W        W84267  10.874  11.797  21.059  0.1779  0.1010  0.1035
41330W        W84268   6.674  12.936  23.274 -0.2486  0.0713  0.1148
41331W        W84269  10.553  12.543  22.964  0.1520 -0.0459 -0.2426
41332W        W84270   6.511  12.553  20.897 -0.2031  0.0099 -0.0756
41333W        W84271   8.863  13.653  23.075 -0.2543 -0.0322  0.0931
41334W        W84272  10.160  11.459  20.361  0.0668  0.1948  0.0573
41335W        W84273  10.001  12.449  20.005 -0.1414 -0.1453  0.4464
41336W        W84274   8.501  13.374  23.391 -0.1530 -0.1105 -0.1109
41337W        W84275  10.291  12.395  20.433  0.0395 -0.1211  0.1251
41338W        W84276   9.980  11.780  19.969  0.1092  0.0928  0.1460
41339W        W84277   9.518  10.795  19.333  0.0674  0.1102 -0.0074
41340W        W84278   6.944  13.913  23.567  0.4240 -0.3902  0.0765
41341W        W84279   8.179  12.545  20.558  0.2498  0.1856 -0.3601
41342W        W84280   8.388  12.753  24.012  0.0356  0.4112  0.0202
41343W        W84281   8.344  11.899  19.457 -0.1544  0.0332  0.1859
41344W        W84282  10.083  13.093  19.408 -0.2060 -0.0754 -0.1577
41345W        W84283   8.427  12.435  22.479  0.0766 -0.1090  0.1113
41346W        W84284   9.337  12.866  21.289 -0.0374  0.0924 -0.0878
41347W        W84285  10.271  13.927  20.465  0.1046 -0.0620 -0.2470
41348W        W84286  10.533  12.899  21.874 -0.2498  0.3990 -0.1771
41349W        W84287   8.493  12.849  20.870 -0.1305  0.3306  0.1506
41350W        W84288   9.743  11.655  20.701 -0.4256  0.1102  0.1895
41351W        W84289   7.020  14.650  20.330  0.1405  0.3420 -0.0583
41352W        W84290   8.988  10.753  21.160  0.0364 -0.2371 -0.0955
41353W        W84291  10.227  13.111  22.327 -0.2715  0.3327 -0.3546
41354W        W84292   7.759  10.538  22.961  0.1309  0.2220  0.1578
41355W        W84293   9.396  12.209  23.624  0.0090 -0.1622 -0.0354
41356W        W84294   9.269  12.425  21.474 -0.2367  0.0360  0.3139
41357W        W84295  10.194  13.674  22.320 -0.1208  0.1726 -0.0394
41358W        W84296   6.222  13.854  19.907 -0.2053  0.0476 -0.0945
41359W        W84297   9.539  13.714  22.546 -0.2889  0.1588 -0.5228
41360W        W84298   7.779  11.486  21.092  0.3074  0.1253 -0.2422
41361W        W84299   7.618  13.536  22.032  0.3687 -0.1945  0.0306
41362W        W84300   9.964  13.628  21.805  0.0789  0.3403  0.0436
41363W        W84301   9.603  11.921  21.530 -0.1360  0.1352 -0.1458
41364W        W84302   8.496  11.012  21.978  0.1234  0.0401 -0.0711
41365W        W84303   8.987  10.823  19.336 -0.0544  0.0753 -0.1330
41366W        W84304   8.189  13.296  19.662  0.1074 -0.0678 -0.2842
41367W        W84305   9.682  13.737  20.030 -0.0971 -0.4275 -0.0646
41368W        W84306  10.148  11.600  22.364 -0.1581  0.2178  0.0436
41369W        W84307   8.696  13.896  21.865  0.3276  0.0370 -0.1369
41370W        W84308   7.554  13.728  19.540  0.0483 -0.2774  0.0988
41371W        W84309   9.542  12.934  22.501  0.1673  0.0632 -0.0037
41372W        W84310   8.503  14.626  19.854  0.0403 -0.1744  0.2854
41373W        W84311  10.248  10.691  21.486  0.1574 -0.1023  0.1227
41374W        W84312   8.244  13.766  21.594  0.0943 -0.1365 -0.2189
41375W        W84313   8.477  11.894  19.944 -0.1278  0.0349  0.1656
41376W        W84314   7.206  11.741  21.794  0.0147 -0.0849  0.0188
41377W        W84315   9.498  12.846  20.211  0.1845 -0.0160  0.0329
41378W        W84316   8.933  13.091  19.227 -0.0130 -0.1836 -0.0705
41379W        W84317   8.403  10.892  22.447 -0.0827  0.0305 -0.2481
41380W        W84318   9.087  10.830  20.472  0.2385 -0.0614  0.1444
41381W        W84319   6.716  15.063  22.937 -0.0067 -0.1080 -0.0492
41382W        W84320  11.218  13.961  22.299  0.0676 -0.1936  0.1274
41383W        W84321  10.217  11.321  19.847  0.0207  0.1285 -0.0180
41384W        W84322   7.602  13.819  22.510  0.1316  0.4816 -0.4074
41385W        W84323   8.949  11.214  22.334  0.4035 -0.3364  0.0715
41386W        W84324   6.767  13.746  20.059  0.3136 -0.1361 -0.1089
41387W        W84325   9.612  11.559  22.920  0.0674 -0.1530  0.0412
41388W        W84326   8.782  11.372  21.874 -0.0055  0.1282  0.1493
41389W        W84327   8.971  14.241  20.951 -0.0877  0.3115 -0.1213
41390W        W84328   7.773  12.867  22.813  0.1538 -0.2316  0.0495
41391W        W84329   7.394  12.529  19.297 -0.0653  0.3604  0.1484
41392W        W84330   7.392  13.072  20.695 -0.1395  0.0220 -0.1961
41393W        W84331   8.567  11.656  23.603 -0.0763 -0.2494  0.0264
41394W        W84332   9.884  12.370  22.328  0.1860  0.3675  0.2647
41395W        W84333   9.437  10.773  20.898 -0.0002 -0.1080  0.1885
41396W        W84334   9.754  10.668  20.545  0.3200 -0.2804  0.0763
41397W        W84335   9.804  11.130  21.020  0.2562  0.2872 -0.0071
41398W        W84336  10.561  12.192  21.258 -0.3011  0.3043  0.1288
41399W        W84337   8.390  10.960  23.293  0.1904 -0.1096 -0.0145
41400W        W84338   7.554  14.515  23.972  0.0541  0.1199 -0.4918
41401W        W84339   8.687  10.270  22.093 -0.3195 -0.4244  0.0858
41402W        W84340  10.792  12.323  20.464  0.1189 -0.2251 -0.4955
41403W        W84341  10.303  12.953  22.818 -0.2428  0.0118  0.1920
41404W        W84342   7.188  14.154  20.083 -0.1543  0.2163 -0.0593
41405W        W84343   8.862  12.268  22.352 -0.1542  0.0932  0.2026
41406W        W84344   7.749  12.778  20.403  0.0753 -0.1618 -0.0813
41407W        W84345   9.458  11.552  21.132 -0.3222 -0.0647  0.2510
41408W        W84346   7.790  14.049  24.022 -0.0979 -0.0390  0.0445
41409W        W84347   8.502  14.612  20.471  0.2904  0.0846  0.2244
41410W        W84348   6.680  13.730  22.533 -0.0116 -0.0403  0.1669
41411W        W84349  10.259  10.034  19.679  0.0771 -0.0530  0.1572
41412W        W84350   8.795  13.909  19.653 -0.2929 -0.0472 -0.0410
41413W        W84351   8.047  10.629  21.203  0.0843  0.2248 -0.0533
41414W        W84352  10.276  12.098  22.597 -0.0184  0.0710  0.3746
41415W        W84353   9.367  13.761  19.595 -0.1403 -0.0276 -0.1101
41416W        W84354   8.930  11.019  23.224 -0.5091  0.0491  0.0650
41417W        W84355   9.112  11.729  21.587  0.0532  0.0683 -0.0910
41418W        W84356   8.399  12.941  21.690 -0.1681 -0.3375  0.2867
41419W        W84357   6.865  12.055  22.985 -0.0734  0.2408 -0.2089
41420W        W84358   9.673  14.558  25.018 -0.0522 -0.1633  0.0781
41421W        W84359   8.228  11.608  22.709 -0.2298 -0.1238  0.0034
41422W        W84360  10.026  11.945  20.456 -0.3878  0.0254 -0.2307
41423W        W84361   7.098  11.330  19.277 -0.0370  0.0480 -0.3191
41424W        W84362   8.738  13.949  23.562  0.1994  0.0048 -0.0545
41425W        W84363   8.613  14.636  21.851  0.0125 -0.3515  0.1579
41426W        W84364   7.967  12.135  19.879  0.1369 -0.2970 -0.4534
41427W        W84365   9.533  13.333  19.812  0.0701  0.1227 -0.1769
41428W        W84366   7.395  12.425  21.898  0.2323  0.2789  0.5764
41429W        W84367  10.663  11.459  20.172  0.0091 -0.0468  0.4138
41430W        W84368   8.697  11.193  19.725  0.1253 -0.0309  0.3659
41431W        W84369  10.682  12.848  21.374  0.1341 -0.0924  0.0091
41432W        W84370   6.904  11.233  23.354 -0.0306  0.0180  0.1287
41433W        W84371  10.216  12.643  21.387  0.1635  0.1054  0.0620
41434W        W84372   9.462  10.390  20.065 -0.1386  0.2652 -0.2607
41435W        W84373  10.109  12.638  21.890  0.0641  0.0511  0.0125
41436W        W84374  11.212  12.010  22.630  0.1292 -0.2431  0.3273
41437W        W84375   8.260  11.786  21.976 -0.0121 -0.2968  0.2065
41438W        W84376   7.574  11.439  23.703  0.2022  0.0184 -0.3063
41439W        W84377   9.497  14.452  23.809 -0.1184 -0.2505 -0.2599
41440W        W84378   9.707  11.815  19.564 -0.0008  0.0634 -0.0968
41441W        W84379   9.409  11.030  21.313 -0.0750 -0.0834  0.0199
41442W        W84380   9.007  13.411  19.605 -0.0511  0.2170  0.2140
41443W        W84381  10.976  11.631  19.837 -0.1947 -0.2715 -0.3168
41444W        W84382   7.082  12.800  22.207 -0.1970 -0.0265  0.1597
41445W        W84383  10.043  12.325  23.381 -0.0565 -0.2820  0.2677
41446W        W84384   8.225  10.704  20.002  0.0028 -0.0595 -0.3242
41447W        W84385   9.558  12.561  23.160  0.0753  0.1273 -0.0132
41448W        W84386   8.218  15.889  20.651 -0.0362 -0.1918 -0.3525
41449W        W84387   9.214  11.608  22.070 -0.0624  0.1694  0.2351
41450W        W84388   9.710  11.427  20.148  0.0525 -0.2625  0.2496
41451W        W84389   7.225  10.660  21.935 -0.1645  0.1128 -0.2699
41452W        W84390   6.657  14.221  22.276 -0.0337  0.0514 -0.0061
41453W        W84391   7.474  12.166  19.713  0.1311  0.2174 -0.0786
41454W        W84392   8.428  12.377  19.765 -0.1602 -0.3074 -0.1070
41455W        W84393   8.356  14.553  22.702 -0.2986 -0.2272 -0.2445
41456W        W84394  10.532  12.660  23.961  0.2129  0.2712  0.0041
41457W        W84395   9.812  10.225  19.620 -0.2003 -0.1422 -0.2520
41458W        W84396   9.554  11.888  24.494  0.3018 -0.0219  0.1894
41459W        W84397   8.127  13.030  21.243 -0.2116  0.1062  0.1667
41460W        W84398   9.309   9.935  18.791  0.2150  0.2557  0.2379
41461W        W84399   7.709  15.819  22.730 -0.0332  0.1408  0.4162
41462W        W84400   7.191  13.486  23.817 -0.3895 -0.1659  0.4270
41463W        W84401   8.275  13.499  20.958  0.1476  0.3010  0.2090
41464W        W84402   9.057  10.481  22.406 -0.0360  0.1092  0.2786
41465W        W84403   9.409  13.217  21.727  0.0899  0.3428  0.0841
41466W        W84404   8.231  14.179  20.359 -0.2417  0.1956  0.0473
41467W        W84405  10.043  12.520  22.883 -0.0488 -0.1452  0.3416
41468W        W84406  10.497  12.681  23.467 -0.2117 -0.1307 -0.1021
41469W        W84407   8.293  12.918  22.683  0.0232  0.0298 -0.1600
41470W        W84408   9.268  16.468  23.094 -0.1054 -0.0821  0.0231
41471W        W84409   9.768  12.288  21.860  0.2452 -0.0102 -0.0807
41472W        W84410   8.104  13.083  20.229  0.1977 -0.0408  0.0653
41473W        W84411   7.796  10.793  22.529  0.1292 -0.0902  0.3827
41474W        W84412   8.784  12.175  22.835  0.3856  0.3000 -0.2787
41475W        W84413   7.974  14.222  22.528  0.2258  0.1101  0.0890
41476W        W84414   8.440  10.736  20.843  0.1200 -0.0522 -0.1385
41477W        W84415   8.592  13.936  19.188 -0.0654 -0.1275  0.0761
41478W        W84416   7.206  14.489  23.622 -0.2122  0.2480  0.1465
41479W        W84417   6.744  13.831  22.013  0.0498  0.1737  0.0020
41480W        W84418   7.284  14.172  21.368  0.1323 -0.1315  0.2655
41481W        W84419   9.156  12.886  19.662  0.2172  0.1472 -0.0538
41482W        W84420   8.697  10.376  19.217 -0.1950 -0.0887  0.2058
41483W        W84421   9.268  13.827  23.404  0.4524  0.0124 -0.2312
41484W        W84422   8.046  11.207  20.801  0.0414  0.2519  0.0698
41485W        W84423   8.428  12.055  21.458 -0.2502 -0.1188  0.0029
41486W        W84424   6.421  13.769  19.350 -0.3537 -0.0102 -0.0048
41487W        W84425  10.998  14.777  19.284  0.0845  0.0958  0.2135
41488W        W84426   7.451  14.478  21.805 -0.0317  0.2224  0.2285
41489W        W84427   9.484  13.429  20.951 -0.0295  0.1080  0.0478
41490W        W84428  10.061   9.182  17.999 -0.2512  0.3814  0.0294
41491W        W84429   9.143  11.163  20.906  0.0703  0.0013  0.2376
41492W        W84430  10.374  11.338  18.915 -0.1268  0.2054 -0.0565
41493W        W84431   9.669  13.932  22.058 -0.0460 -0.3964  0.1360
41494W        W84432   7.921  13.544  21.253  0.0164 -0.0874  0.0807
41495W        W84433   8.777  10.374  20.606  0.2854 -0.2422 -0.2321
41496W        W84434   7.948  12.522  22.248 -0.2385  0.0098 -0.1313
41497W        W84435  10.774  10.613  22.226 -0.2318 -0.1899  0.0485
41498W        W84436   7.080  14.492  23.128  0.0135 -0.1378 -0.0785
41499W        W84437  10.669  13.769  19.204  0.0698  0.1421  0.0038
41500W        W84438   7.204  13.217  19.835 -0.1147 -0.0775  0.1740
41501W        W84439   8.614  13.676  22.349  0.1043 -0.1604 -0.1574
41502W        W84440  10.947  10.770  21.290 -0.0724 -0.0597 -0.0531
41503W        W84441   8.019  12.179  18.545  0.1674 -0.0583  0.3240
41504W        W84442   8.933  13.076  20.886 -0.0602  0.0721  0.1581
41505W        W84443   8.510  13.355  21.422  0.1151 -0.2062  0.0138
41506W        W84444   7.580  13.671  23.232 -0.3184 -0.2115  0.2397
41507W        W84445   7.220  13.851  21.784  0.0884  0.0120  0.0785
41508W        W84446   6.887  11.012  20.855  0.1217  0.1689 -0.0623
41509W        W84447  11.028  12.492  21.273  0.2337  0.0782 -0.2761
41510W        W84448  10.139  12.111  21.553  0.2312 -0.1860  0.2274
41511W        W84449   9.959  11.399  21.385  0.3093  0.0519 -0.1484
41512W        W84450   8.866  11.601  21.105  0.1932  0.5058  0.0147
41513W        W84451  10.182  11.484  20.926  0.3518 -0.1167 -0.1779
41514W        W84452   8.462  12.556  22.969 -0.0662 -0.0467 -0.3373
41515W        W84453   7.472  13.053  21.592  0.1682 -0.0229 -0.0590
41516W        W84454   8.244  11.437  19.638  0.3616 -0.0051  0.2469
41517W        W84455  10.432  13.801  21.694 -0.0207  0.3635 -0.3933
41518W        W84456   9.235  12.213  19.613 -0.0979 -0.2716 -0.1927
41519W        W84457   8.911  14.856  22.711  0.2945  0.1027 -0.0964
41520W        W84458   7.988  11.794  20.609  0.2337  0.2693  0.1282
41521W        W84459   7.605  11.384  20.536  0.1430  0.0419 -0.0614
41522W        W84460   8.494  14.057  20.798  0.2173 -0.0626 -0.1771
41523W        W84461   8.762  11.892  21.961  0.0758 -0.0715  0.1362
41524W        W84462   9.266  14.699  22.354 -0.0077 -0.2076 -0.1277
41525W        W84463   7.400  11.199  20.953 -0.2710 -0.0152  0.2558
41526W        W84464  10.081  13.081  18.881 -0.0358  0.1109 -0.0733
41527W        W84465   9.181  11.818  22.916 -0.1277  0.2395  0.1469
41528W        W84466   7.444  14.874  21.375  0.2392  0.0194 -0.0733
41529W        W84467   8.671  11.481  20.121 -0.1876 -0.1397 -0.0746
41530W        W84468   9.203  13.914  20.658  0.2559  0.0999 -0.2137
41531W        W84469   7.607  11.220  22.680 -0.3321 -0.2746 -0.2585
41532W        W84470   8.345  12.507  21.218 -0.2454 -0.0209 -0.0474
41533W        W84471   9.773  13.226  21.282  0.2537 -0.0989 -0.4856
41534W        W84472   9.213  11.918  20.844  0.0003  0.1537 -0.0979
41535W        W84473   8.991  13.443  22.610  0.3541  0.0216 -0.0616
41536W        W84474   6.726  14.224  21.242  0.0148  0.1714 -0.0041
41537W        W84475  10.987  13.078  21.952 -0.1273 -0.1651  0.1032
41538W        W84476  10.082  10.646  25.030  0.0200 -0.0352 -0.0296
41539W        W84477   8.368  13.117  18.198  0.2783  0.2129 -0.0980
41540W        W84478  10.239  10.262  23.728  0.0334  0.1849  0.2532
41541W        W84479   9.385  13.487  22.974 -0.0212 -0.3524 -0.0784
41542W        W84480   8.150  15.034  22.153  0.0312 -0.1707 -0.0804
41543W        W84481   7.750  12.249  20.666 -0.0190  0.0948  0.0250
41544W        W84482   8.136  13.054  23.694 -0.1330 -0.5257  0.1995
41545W        W84483   9.837  12.559  20.483 -0.0278 -0.3710 -0.0977
41546W        W84484   8.508  14.736  21.071  0.0505  0.0836  0.1227
41547W        W84485  11.335  12.804  22.205  0.2400  0.1458  0.0255
41548W        W84486   8.632  13.148  22.384  0.0356 -0.4750  0.0032
41549W        W84487  11.697  13.928  22.457  0.0827  0.1264  0.1268
41550W        W84488   7.091  10.972  21.358 -0.1198 -0.3142  0.0386
41551W        W84489   9.827  10.826  19.731  0.0928  0.1327 -0.2328
41552W        W84490  10.870  11.305  20.968 -0.2457  0.0072  0.1945
41553W        W84491   6.674  11.694  23.442  0.1190 -0.0462  0.2511
41554W        W84492   6.843  11.337  21.624 -0.0950  0.1327 -0.2607
41555W        W84493   8.716  12.398  20.661 -0.0194  0.0639 -0.0954
41556W        W84494   7.955  11.965  22.316 -0.0776 -0.0072 -0.1497
41557W        W84495   9.932  10.120  22.951 -0.2753 -0.0968 -0.0383
41558W        W84496   8.025  10.169  22.549 -0.0050 -0.1449 -0.0209
41559W        W84497   7.051  11.945  21.076  0.1104 -0.1396 -0.0845
41560W        W84498   8.571   9.974  20.953  0.1798 -0.1119  0.3675
41561W        W84499   9.680  13.317  20.287 -0.0854  0.1067 -0.0726
41562W        W84500   8.964  10.421  21.612  0.0661 -0.0263  0.2166
41563W        W84501   7.440  12.477  22.433  0.0428  0.3172 -0.2316
41564W        W84502  10.328  13.078  20.895  0.0827  0.0014 -0.2942
41565W        W84503   9.662  12.836  22.062 -0.1811 -0.0342  0.2358
41566W        W84504   9.713   9.423  20.395  0.0305 -0.4890 -0.0964
41567W        W84505   9.426  14.014  22.944 -0.0163  0.2659  0.1303
41568W        W84506   7.598  13.437  18.236 -0.1515 -0.1654 -0.2344
41569W        W84507   9.410  11.208  23.231  0.1886 -0.3519 -0.1561
41570W        W84508   8.919  11.208  21.428  0.2057  0.1249  0.4539
41571W        W84509   7.601  11.891  20.283  0.0882  0.1893  0.1083
41572W        W84510   8.603  12.200  23.402  0.3210 -0.1911  0.0546
41573W        W84511   9.182  13.707  20.053  0.0996 -0.1226  0.0282
41574W        W84512   9.814  13.678  18.160 -0.1843 -0.0075 -0.0282
41575W        W84513   7.422  14.158  23.377  0.0249 -0.0332 -0.0734
41576W        W84514   8.826  12.721  22.123 -0.1260 -0.1870 -0.2730
41577W        W84515   7.921   9.745  22.745 -0.1143  0.2260  0.0517
41578W        W84516   9.331  14.232  20.279 -0.1100  0.0697 -0.4277
41579W        W84517   7.862  13.394  22.944 -0.3369  0.0515  0.2922
41580W        W84518  10.044  12.586  19.509  0.0683  0.2007  0.1219
41581W        W84519  10.828  11.912  22.331  0.0597  0.2555  0.1372
41582W        W84520   8.559  11.831  20.458  0.1361  0.0352  0.5214
41583W        W84521   7.094  10.251  23.225 -0.1743  0.0904 -0.1359
41584W        W84522   6.560  13.925  23.932  0.1276  0.1336  0.1987
41585W        W84523   9.630  12.070  22.727 -0.0878  0.1312 -0.1158
41586W        W84524   9.279   9.631  20.637 -0.1289 -0.1541 -0.1344
41587W        W84525   8.961  11.623  20.534 -0.1121 -0.0257 -0.2602
41588W        W84526   8.659  13.003  19.780 -0.0034  0.1621  0.0910
41589W        W84527   8.640  11.196  20.512 -0.5086  0.4244  0.0980
41590W        W84528   8.337  12.139  20.902 -0.1046 -0.1654  0.0146
41591W        W84529   9.154  13.013  22.962  0.3275  0.0850 -0.0896
41592W        W84530   9.156  13.727  22.198 -0.1085  0.3529 -0.0100
41593W        W84531   8.803  12.719  22.669 -0.0988 -0.0664  0.0021
41594W        W84532   8.257  11.696  21.098 -0.1371 -0.0274  0.0343
41595W        W84533  10.020  11.523  19.280  0.1467 -0.1099  0.2897
41596W        W84534   8.857  15.683  23.553 -0.0865 -0.1395 -0.1379
41597W        W84535  10.688  14.717  22.952  0.4101 -0.1410 -0.2007
41598W        W84536   8.808  14.953  23.648 -0.0053 -0.0294 -0.3063
41599W        W84537  11.386  13.249  20.910 -0.1785 -0.3826 -0.0178
41600W        W84538   7.717   9.679  21.218 -0.0706  0.0287  0.1242
41601W        W84539   9.452  12.888  20.758 -0.2423 -0.2775  0.1125
41602W        W84540   8.349  12.296  21.938  0.1369  0.4301  0.1270
41603W        W84541   9.699  13.787  20.564  0.0469 -0.1847  0.1650
41604W        W84542   7.296  11.574  20.053  0.0232  0.0811 -0.2709
41605W        W84543   9.670  10.034  19.163  0.1882 -0.2730  0.1624
41606W        W84544   9.030  14.661  23.200 -0.1464  0.0353 -0.1884
41607W        W84545   8.362  13.470  22.899  0.1994  0.2345 -0.1949
41608W        W84546   7.662  13.571  26.921 -0.1166 -0.1209  0.0666
41609W        W84547   8.991  11.923  23.591  0.0922 -0.0773  0.0733
41610W        W84548  10.404  11.087  22.490  0.1984  0.0987  0.2902
41611W        W84549   9.310  12.341  24.452  0.1747  0.3930  0.2248
41612W        W84550   4.920  11.223  26.360 -0.2319  0.0002  0.1603
41613W        W84551  10.887  14.309  24.365  0.1137  0.2274 -0.0032
41614W        W84552   7.795  10.366  26.350 -0.4291 -0.0755  0.3184
41615W        W84553  10.700  14.215  26.143  0.1799 -0.1575  0.2834
41616W        W84554   9.921  14.230  26.794  0.0283 -0.1895 -0.2529
41617W        W84555   8.228  12.099  22.857 -0.2568 -0.1412  0.0122
41618W        W84556   8.790  11.297  25.068  0.0922  0.0784 -0.1587
41619W        W84557   7.194  13.696  26.275 -0.1876 -0.0444  0.0163
41620W        W84558   7.366   9.897  24.512 -0.1804  0.0934 -0.2747
41621W        W84559   6.164  10.832  25.475 -0.0991  0.4953  0.0978
41622W        W84560  11.064  12.932  25.344 -0.0740 -0.0912 -0.0962
41623W        W84561   6.915  12.397  24.770 -0.0602 -0.1520  0.4003
41624W        W84562   8.521  11.832  25.048  0.4525 -0.3051 -0.2778
41625W        W84563   8.837  12.634  24.668  0.0729  0.0537 -0.0353
41626W        W84564   9.480  14.364  25.546  0.1136 -0.1399  0.2479
41627W        W84565   8.864  12.928  26.473  0.0359  0.1314  0.2106
41628W        W84566   9.894   9.829  26.688 -0.2653  0.1549  0.0666
41629W        W84567   8.142  14.491  23.903 -0.2086  0.0207 -0.0878
41630W        W84568   7.513  12.516  23.123  0.0726  0.2186  0.4183
41631W        W84569   6.332  13.219  25.817  0.1615  0.2698 -0.0783
41632W        W84570   6.732  13.202  25.470 -0.1694  0.0950  0.1128
41633W        W84571   9.459  10.722  24.157  0.0316 -0.1904  0.1056
41634W        W84572   9.865  12.171  25.391 -0.0329 -0.0393  0.0948
41635W        W84573   7.812  13.981  25.188  0.2739  0.3958 -0.1874
41636W        W84574   9.210  13.791  26.618 -0.2252  0.0582 -0.0781
41637W        W84575   9.994  13.338  26.897  0.0607 -0.1848  0.0964
41638W        W84576   7.179  12.929  23.408 -0.0593  0.0203 -0.2271
41639W        W84577   7.611  14.893  25.412  0.1985  0.1592  0.2437
41640W        W84578   8.992  14.003  24.803 -0.0115 -0.3624 -0.1653
41641W        W84579   9.976  13.492  24.021 -0.0635 -0.0736  0.1004
41642W        W84580  10.346  14.048  26.920 -0.2710 -0.0899 -0.1257
41643W        W84581   8.917  14.038  26.972 -0.2245  0.1164 -0.1883
41644W        W84582   7.987  13.519  23.987 -0.1842 -0.1608  0.2601
41645W        W84583  11.168  13.679  26.945 -0.4204  0.3706  0.1588
41646W        W84584   8.778  13.140  25.921 -0.0007  0.0911 -0.0101
41647W        W84585   9.348  12.280  26.281  0.0980  0.4758 -0.0801
41648W        W84586   8.296  13.265  24.812 -0.2156 -0.2154  0.0676
41649W        W84587   8.695  14.592  24.652 -0.4371  0.0898 -0.3270
41650W        W84588   9.891  13.590  26.069  0.4268 -0.0886 -0.1456
41651W        W84589   7.805  11.901  26.465  0.0794 -0.0742 -0.0554
41652W        W84590   8.288  13.670  24.380  0.0948  0.2311 -0.0720
41653W        W84591  10.130  12.160  26.685 -0.3306 -0.0579 -0.0652
41654W        W84592   7.617  13.110  24.188 -0.1080 -0.1241 -0.2950
41655W        W84593   8.931  11.753  22.481  0.0155  0.0072 -0.2340
41656W        W84594   8.571  12.092  23.893  0.0534 -0.2062  0.2190
41657W        W84595   9.954  11.061  23.303 -0.0371  0.1471  0.0079
41658W        W84596   7.041  11.337  25.433  0.0251  0.0757  0.1836
41659W        W84597   8.305  15.246  26.688 -0.4114 -0.0255 -0.1176
41660W        W84598   8.524  11.685  27.443 -0.0170 -0.1257 -0.4129
41661W        W84599  10.774  14.326  25.197 -0.0821 -0.1746  0.0891
41662W        W84600   8.115  12.473  23.741  0.1057 -0.3220 -0.3515
41663W        W84601  10.080  12.327  25.795 -0.0385 -0.0929 -0.1333
41664W        W84602   7.839  13.403  24.709 -0.0666  0.1055 -0.1468
41665W        W84603   7.970  11.982  25.071  0.1266  0.2770  0.0638
41666W        W84604  10.948  13.385  22.387  0.0464 -0.0999  0.0610
41667W        W84605  10.203  13.939  24.061  0.0608 -0.1012 -0.0631
41668W        W84606  10.437  14.042  22.723  0.0516 -0.2683 -0.0189
41669W        W84607   8.261  12.639  24.521  0.0015  0.1435 -0.1021
41670W        W84608   6.099  14.449  27.275  0.0534 -0.0812  0.0758
41671W        W84609   7.459  12.148  26.124  0.0176  0.2030  0.0441
41672W        W84610   8.073  11.049  23.705 -0.2260  0.0021  0.1656
41673W        W84611  11.106  13.987  25.948  0.1006 -0.1085  0.0471
41674W        W84612   5.624  15.445  26.981 -0.1401 -0.0852 -0.4967
41675W        W84613  10.955  11.007  24.709 -0.1598  0.1575  0.0563
41676W        W84614   7.987  12.456  24.952 -0.2046 -0.0072 -0.0481
41677W        W84615  10.178  12.673  25.031 -0.0861  0.0848  0.3910
41678W        W84616   9.794  11.820  22.150 -0.2964  0.1690 -0.1190
41679W        W84617  10.785  10.875  25.665 -0.2855  0.0040  0.0771
41680W        W84618   9.051  11.334  27.622  0.3341 -0.2516  0.3225
41681W        W84619   9.334  10.936  24.733 -0.0712 -0.0096  0.1353
41682W        W84620   8.676  13.090  24.482 -0.0055  0.1094  0.2019
41683W        W84621  10.365  13.622  25.345 -0.0463 -0.1223 -0.1616
41684W        W84622   9.346  12.695  23.989  0.2849 -0.0531 -0.0546
41685W        W84623   8.699  14.782  25.796  0.1078 -0.0862  0.0900
41686W        W84624   9.407  13.434  25.770  0.0304 -0.1018  0.0217
41687W        W84625   8.501  13.743  26.976  0.0210 -0.0442 -0.0616
41688W        W84626   7.107  13.979  24.712 -0.0116 -0.2003 -0.2004
41689W        W84627   7.509  13.635  24.157 -0.3360 -0.0623  0.0045
41690W        W84628   6.289  13.075  23.616  0.0188  0.0640  0.1232
41691W        W84629   7.256  12.093  24.506  0.2517 -0.0377 -0.2078
41692W        W84630   8.407  14.128  25.388  0.1420  0.0662  0.1110
41693W        W84631   9.178  11.630  25.112 -0.0473  0.2300 -0.2360
41694W        W84632   7.806  10.807  26.677 -0.0705 -0.0441  0.0989
41695W        W84633  11.414  10.108  25.212 -0.1900 -0.0761 -0.1171
41696W        W84634   7.658  13.726  23.698  0.0614  0.2854 -0.5121
41697W        W84635  11.542  14.632  23.190  0.1244  0.4026  0.3122
41698W        W84636   9.809  12.667  24.275  0.1280 -0.2395 -0.0707
41699W        W84637  10.037  13.486  22.772  0.0921 -0.0253 -0.0926
41700W        W84638   7.296  12.602  26.300  0.0064 -0.1733 -0.1523
41701W        W84639   7.183  12.206  23.383  0.2155 -0.0287  0.1221
41702W        W84640   8.238  12.142  26.441  0.0011 -0.0359  0.2066
41703W        W84641   7.169  13.383  24.611 -0.3845  0.0967 -0.0451
41704W        W84642  11.198  12.048  25.861  0.1262 -0.0182  0.1606
41705W        W84643   6.594  10.457  24.157 -0.0757 -0.1833 -0.1183
41706W        W84644  11.536  11.981  26.234 -0.0582 -0.0299  0.0152
41707W        W84645   8.285  11.770  24.162 -0.2446  0.1267 -0.1482
41708W        W84646   6.925  13.204  25.004 -0.1880 -0.1259  0.0767
41709W        W84647  10.689  12.803  27.104  0.0802  0.2266  0.1718
41710W        W84648   9.468  14.154  24.708  0.0355 -0.0243  0.1212
41711W        W84649  10.657  13.902  25.654  0.1719  0.1931  0.2688
41712W        W84650  10.196  14.755  24.476 -0.1321  0.0054  0.4012
41713W        W84651   7.939  11.973  25.942 -0.0473 -0.2710 -0.0312
41714W        W84652   7.763  12.457  24.469  0.0615  0.1553  0.0924
41715W        W84653   7.055  15.462  24.095  0.0548  0.1525 -0.3149
41716W        W84654   9.471  13.271  24.454 -0.2024 -0.1815  0.2695
41717W        W84655   9.517  10.748  23.085 -0.1920 -0.1087  0.0065
41718W        W84656  11.256  13.012  26.014  0.1545  0.0488  0.0411
41719W        W84657   9.162  13.138  24.843  0.0870 -0.2049 -0.2458
41720W        W84658   7.613  13.121  28.130  0.0405 -0.0764 -0.2911
41721W        W84659  10.256  11.598  28.160  0.0717  0.1596 -0.1135
41722W        W84660  10.401  14.910  25.455  0.0650  0.0253  0.0097
41723W        W84661   9.049  13.080  24.144 -0.2987  0.0306 -0.0856
41724W        W84662   9.577  10.872  23.615 -0.0606 -0.1099  0.3151
41725W        W84663   8.854  13.406  25.553 -0.0537  0.0787 -0.2031
41726W        W84664   6.355  14.211  23.395  0.0077  0.3193  0.2258
41727W        W84665   6.822  13.034  23.759 -0.4533 -0.3655  0.1340
41728W        W84666   9.258  14.304  25.104  0.2108  0.1255 -0.1209
41729W        W84667  10.021  11.186  24.850 -0.1244  0.0185  0.1242
41730W        W84668   7.089  14.222  26.415 -0.1195 -0.0883  0.0325
41731W        W84669  10.925  11.643  27.390 -0.0813 -0.0060  0.1088
41732W        W84670   7.572  12.369  23.987  0.0725  0.3379 -0.0799
41733W        W84671   5.732  14.019  27.581  0.2353  0.1569 -0.2136
41734W        W84672   9.160  10.985  25.199 -0.1725 -0.3823  0.2121
41735W        W84673   7.448  13.424  25.938  0.3928 -0.1668 -0.0166
41736W        W84674   9.337  13.422  26.878 -0.0821 -0.2409 -0.0024
41737W        W84675  10.264  12.598  24.441 -0.0911 -0.2005  0.3222
41738W        W84676   9.600  12.209  24.073 -0.0158 -0.0661  0.1333
41739W        W84677   8.713  11.548  24.063 -0.1891  0.2247 -0.1602
41740W        W84678   7.716  13.589  28.031 -0.2229  0.1230  0.2690
41741W        W84679   8.478  12.727  23.485  0.3325 -0.0481 -0.0757
41742W        W84680   8.313  14.016  26.128 -0.1904 -0.1004 -0.1189
41743W        W84681   9.999  10.825  22.809 -0.0065  0.2845  0.3639
41744W        W84682  11.023  14.609  23.404  0.0776  0.0543 -0.2906
41745W        W84683   6.078  12.621  25.985  0.0612  0.0141  0.0761
41746W        W84684  11.182  12.138  26.615 -0.1651  0.0251 -0.0213
41747W        W84685   9.908  14.936  25.281 -0.0456 -0.0129 -0.0617
41748W        W84686   9.662  11.282  26.595  0.1352 -0.0917  0.1872
41749W        W84687   9.297  10.390  23.413  0.0807 -0.0378  0.3575
41750W        W84688   8.312  12.788  25.009 -0.1388 -0.1929  0.0062
41751W        W84689   7.258  15.036  23.833 -0.1849 -0.0798  0.2235
41752W        W84690  10.054  11.067  26.864  0.0518 -0.1086  0.0157
41753W        W84691   9.983  11.553  24.558 -0.2314 -0.1546 -0.1462
41754W        W84692   9.935  10.726  28.531  0.2836  0.0993  0.2038
41755W        W84693  10.990  12.426  27.206 -0.0505 -0.0321 -0.2399
41756W        W84694   8.384  11.220  24.238 -0.1374  0.1527  0.2536
41757W        W84695   7.981  13.484  25.642 -0.3380  0.1535 -0.0493
41758W        W84696   8.630  11.801  23.135  0.1920 -0.1338 -0.0104
41759W        W84697   9.201  10.999  26.619 -0.1914  0.0449 -0.1485
41760W        W84698   7.572  13.482  27.420  0.2003 -0.0829 -0.2302
41761W        W84699   7.328  12.925  25.954  0.1771  0.0886 -0.1501
41762W        W84700  10.574  12.934  25.768  0.1755 -0.1222 -0.1760
41763W        W84701   9.307  12.735  26.151 -0.0507 -0.0646 -0.1536
41764W        W84702   9.781  11.975  27.338  0.0955  0.2740 -0.1619
41765W        W84703   9.115  11.325  22.828 -0.3799  0.1827 -0.2399
41766W        W84704   7.549  14.325  24.796  0.3067  0.0729 -0.0030
41767W        W84705   9.781  14.098  25.162  0.0903 -0.1606  0.1163
41768W        W84706   7.741  12.510  25.923 -0.0318 -0.2432  0.2527
41769W        W84707   9.691  13.149  26.013  0.1364 -0.2063 -0.0864
41770W        W84708   7.653  12.677  23.559 -0.1604  0.0305 -0.0692
41771W        W84709   9.721  13.077  25.540  0.2106 -0.0259 -0.4989
41772W        W84710   7.733  14.452  25.670 -0.1897  0.0207  0.4559
41773W        W84711  11.034  11.045  25.235 -0.1437  0.2046  0.0686
41774W        W84712   7.445  13.163  24.932 -0.0576 -0.3125 -0.1249
41775W        W84713   8.167  11.985  23.390 -0.2328 -0.1416  0.1462
41776W        W84714   5.525  13.696  24.199  0.1696 -0.1369  0.0781
41777W        W84715   9.692  12.825  24.794  0.0383  0.1196 -0.1102
41778W        W84716   9.770  13.716  24.395  0.1547 -0.1218 -0.3558
41779W        W84717   7.656  11.600  26.070 -0.1720 -0.0109  0.1026
41780W        W84718  10.078  11.725  26.069 -0.0533 -0.0965 -0.3514
41781W        W84719   7.581  14.033  26.425 -0.2961  0.0727  0.4311
41782W        W84720   9.024  12.448  27.187 -0.2286 -0.1392 -0.2017
41783W        W84721   9.279  11.632  24.056 -0.1870  0.1882  0.2414
41784W        W84722   8.904  12.833  25.304  0.0880 -0.1723 -0.2046
41785W        W84723   8.737  12.547  25.985 -0.0908  0.2794 -0.0783
41786W        W84724   8.104  11.400  23.240 -0.2166  0.1083 -0.0795
41787W        W84725  10.093  11.974  24.817  0.0203  0.4303  0.0214
41788W        W84726   9.488  11.290  25.420  0.2578 -0.0833 -0.2781
41789W        W84727   5.845  12.470  24.618 -0.5066  0.2107 -0.1800
41790W        W84728   9.651  12.930  26.719  0.3577  0.1088  0.0972
41791W        W84729   7.889  12.898  24.675 -0.1342  0.1750 -0.2096
41792W        W84730   8.033  14.412  25.199  0.0109 -0.0061 -0.1491
41793W        W84731  10.238  11.758  27.151  0.2146  0.2120  0.1611
41794W        W84732  10.590  11.980  26.607  0.0913 -0.0336 -0.0763
41795W        W84733   8.457  11.523  26.006 -0.0716 -0.1774  0.1686
41796W        W84734   9.465  11.656  23.476  0.1884 -0.1040 -0.1248
41797W        W84735   8.263  12.455  26.855 -0.0016 -0.1583  0.2425
41798W        W84736   9.767  13.333  24.884 -0.1824  0.1301  0.0458
41799W        W84737   8.224  12.949  25.892  0.0143 -0.0076  0.0692
41800W        W84738   9.262  12.904  26.992  0.1444 -0.2239 -0.1306
41801W        W84739  10.133  10.307  26.809  0.0671  0.0615  0.3127
41802W        W84740  10.809  14.192  23.074  0.3194  0.2029  0.0650
41803W        W84741  10.554  12.266  25.796 -0.2243 -0.6825  0.1130
41804W        W84742   7.156  13.407  23.315  0.1394 -0.0403 -0.0597
41805W        W84743   7.535  13.798  24.639 -0.0959 -0.0643  0.1362
41806W        W84744   7.947  14.432  24.347 -0.3335  0.1609 -0.4375
41807W        W84745   7.383  12.566  25.573 -0.0059 -0.0852 -0.2558
41808W        W84746   8.823  13.832  25.290  0.0517  0.1314 -0.2553
41809W        W84747   8.164  13.193  24.310  0.0596  0.2928  0.2339
41810W        W84748   8.281  14.346  24.761 -0.0841  0.2589 -0.0109
41811W        W84749   9.846   9.662  23.741  0.2727 -0.0556 -0.0485
41812W        W84750   9.665  13.460  23.498 -0.2333 -0.1012  0.2025
41813W        W84751   8.924  12.176  25.131 -0.0968  0.1186  0.1316
41814W        W84752  11.451  11.137  26.763 -0.1387 -0.1098 -0.0138
41815W        W84753   9.720  12.615  23.708  0.2899  0.0102 -0.2631
41816W        W84754  11.078  11.602  25.676 -0.0313  0.2519  0.0844
41817W        W84755   6.893  12.677  25.640  0.1518  0.0735 -0.3110
41818W        W84756  10.241  11.768  25.518  0.0165  0.3360 -0.1829
41819W        W84757   6.974  10.822  25.423 -0.0472 -0.0952 -0.1993
41820W        W84758   8.080  14.273  26.535  0.0568 -0.0191 -0.1136
41821W        W84759   9.503  12.454  27.248 -0.0882  0.1442 -0.0382
41822W        W84760   9.878  10.480  23.448 -0.2064 -0.0217  0.1640
41823W        W84761   6.867  10.941  22.314  0.1090  0.0607  0.1617
41824W        W84762   8.514  12.517  27.301 -0.3322 -0.0351 -0.0901
41825W        W84763  10.049  12.937  23.920  0.1208  0.0516  0.0368
41826W        W84764   9.450  13.662  23.920  0.3016 -0.1371 -0.0585
41827W        W84765   9.940  10.444  25.990 -0.0458  0.0943 -0.1871
41828W        W84766   9.151  12.461  26.720 -0.1577  0.2180 -0.3984
41829W        W84767   9.854  12.301  26.294 -0.2350  0.2037 -0.0717
41830W        W84768  10.307  13.341  23.180 -0.1188  0.0470  0.0900
41831W        W84769   8.660  12.182  24.421 -0.0292  0.1476  0.1106
41832W        W84770   8.860  11.578  27.021  0.1313 -0.1256  0.1129
41833W        W84771   9.366  13.834  25.333 -0.2522 -0.0825 -0.0877
41834W        W84772   7.067  12.265  25.892  0.0843 -0.0796 -0.0430
41835W        W84773  10.500  10.802  27.615  0.1657 -0.0897  0.0196
41836W        W84774   9.711  12.885  27.963 -0.1053  0.3381  0.0750
41837W        W84775   7.847  12.445  26.393 -0.3684 -0.0324 -0.0152
41838W        W84776   7.026  12.048  26.917 -0.2258 -0.0359 -0.1736
41839W        W84777  10.306  14.552  27.960 -0.0253  0.2049  0.1192
41840W        W84778  10.450  11.076  23.518 -0.1993 -0.1099  0.3766
41841W        W84779  11.424  12.248  25.470  0.0344 -0.1262 -0.1116
41842W        W84780   8.266  12.398  25.929 -0.1025 -0.2295 -0.1144
41843W        W84781   8.980  12.447  23.629  0.0909  0.1661 -0.0936
41844W        W84782   8.344  11.624  25.567  0.2117 -0.1120  0.1131
41845W        W84783  10.971  11.812  26.937 -0.2579  0.1460 -0.0665
41846W        W84784   9.113  11.246  23.729  0.0085  0.5515  0.5374
41847W        W84785   9.601  11.648  26.270 -0.0920  0.1470  0.0270
41848W        W84786   9.675  14.004  25.813 -0.1790 -0.1372  0.2475
41849W        W84787   8.893  13.612  26.140  0.0988  0.4128  0.1220
41850W        W84788   8.749  12.997  23.757 -0.3585 -0.1361 -0.0490
41851W        W84789   7.595  11.432  23.168  0.0370 -0.0546  0.0354
41852W        W84790   7.483  13.868  25.691  0.1590  0.0508 -0.0106
41853W        W84791   8.014  12.501  23.221  0.0575 -0.0516 -0.0337
41854W        W84792   9.093  12.233  23.197  0.0735  0.1678  0.2484
41855W        W84793  10.191  12.711  26.786  0.0544  0.1616  0.2867
41856W        W84794  11.593  13.829  27.276 -0.0885  0.0112  0.2833
41857W        W84795   8.866  10.801  22.734 -0.1519  0.2071  0.0318
41858W        W84796  10.887  12.295  25.462  0.1257 -0.0256 -0.1907
41859W        W84797   8.931  14.670  26.195  0.0726 -0.0459  0.0472
41860W        W84798   9.888  10.871  24.468 -0.1367 -0.1164  0.2204
41861W        W84799   7.853  14.271  26.080  0.0468 -0.2688  0.0320
41862W        W84800   8.381  13.270  26.985  0.2515 -0.2513 -0.4959
41863W        W84801   7.932  13.139  26.738 -0.0288 -0.0379  0.1061
41864W        W84802  11.528  11.014  25.145  0.0564 -0.1549  0.1624
41865W        W84803  10.794  12.386  26.276  0.0510 -0.2657  0.1670
41866W        W84804   8.463  12.747  25.462  0.0928 -0.2765  0.0244
41867W        W84805  12.630  12.302  25.027  0.2937 -0.1088 -0.0839
41868W        W84806  10.389  13.698  26.060 -0.1445  0.0313  0.1030
41869W        W84807   8.869  11.725  25.471 -0.1194  0.2180  0.0171
41870W        W84808  10.198  12.691  25.553 -0.1280  0.1341 -0.0719
41871W        W84809  10.345  14.032  25.087 -0.0091 -0.0349  0.0241
41872W        W84810   7.666  13.181  23.690 -0.1031 -0.0591  0.0799
41873W        W84811   6.941  10.410  26.911 -0.1347 -0.0950 -0.0123
41874W        W84812   8.049  13.347  26.159 -0.2675 -0.0148  0.1152
41875W        W84813   8.380  13.227  25.352  0.0080  0.3894  0.2013
41876W        W84814   8.094  11.490  25.106  0.0998  0.0976 -0.1817
41877W        W84815   8.657  13.085  22.985 -0.0541 -0.1825  0.3254
41878W        W84816   8.633  14.301  28.667  0.1515  0.0207 -0.0742
41879W        W84817   7.718  12.989  25.650  0.0479 -0.0322  0.1303
41880W        W84818   8.149  13.651  25.138 -0.0864 -0.0530  0.2257
41881W        W84819   8.508  13.345  24.014  0.0557  0.0423 -0.1397
41882W        W84820   9.349  13.625  24.870 -0.2428  0.2714  0.2100
41883W        W84821   9.390  13.341  25.324 -0.1921  0.1884  0.0113
41884W        W84822   9.669  11.351  23.795 -0.2308 -0.2671  0.3035
41885W        W84823   6.929  15.330  26.219 -0.0215 -0.1098 -0.2379
41886W        W84824   6.444  14.630  23.124  0.1867  0.1986 -0.0981
41887W        W84825   8.917  12.679  23.195  0.0114  0.1396 -0.3610
41888W        W84826   8.000  15.157  25.173 -0.2910 -0.0782 -0.2473
41889W        W84827  10.320  13.166  27.215 -0.1086 -0.0999 -0.0930
41890W        W84828   9.095  12.108  24.076  0.0410  0.1460  0.1293
41891W        W84829  10.689  11.846  25.304 -0.1819  0.1076 -0.4405
41892W        W84830   9.071  12.064  25.899  0.0003 -0.3228  0.2632
41893W        W84831  10.466  13.573  26.862 -0.1471  0.2533  0.0014
41894W        W84832   6.969  13.358  25.905 -0.2350  0.3376  0.0208
41895W        W84833   9.000  11.505  23.308 -0.2783 -0.0546 -0.1033
41896W        W84834   6.823  12.670  26.169 -0.2167 -0.1595  0.2083
41897W        W84835   8.959   9.334  26.278 -0.0197  0.1286 -0.0987
41898W        W84836   7.983  13.978  25.665  0.2666 -0.0399  0.2851
41899W        W84837  11.311  14.604  23.810 -0.2363 -0.0725 -0.1437
41900W        W84838   8.120  12.297  24.193 -0.2791  0.0156  0.0226
41901W        W84839   8.460  12.317  25.053 -0.1391  0.2265 -0.2767
41902W        W84840  11.858  11.509  26.388  0.0454  0.1793  0.0745
41903W        W84841   7.824  12.300  22.683 -0.2622  0.0602 -0.0429
41904W        W84842   9.758  11.654  25.278  0.2367 -0.2296 -0.1745
41905W        W84843   8.384  15.595  26.071  0.0296  0.2653  0.0655
41906W        W84844   9.117  13.892  25.728  0.0457  0.0907 -0.0547
41907W        W84845   9.276  12.957  25.707  0.0392  0.1083  0.1019
41908W        W84846   7.249  11.584  24.096  0.0050  0.1064 -0.1619
41909W        W84847   9.551  12.055  24.931  0.0393  0.1932 -0.0392
41910W        W84848   7.464  12.209  26.687 -0.2747 -0.0356  0.3563
41911W        W84849  11.501  11.237  25.569 -0.0388  0.0754  0.0771
41912W        W84850   8.718  12.248  25.562 -0.3530 -0.0327  0.3333
41913W        W84851  10.999  12.235  24.533 -0.1608  0.1299  0.1328
41914W        W84852   9.894  12.918  27.145  0.2103 -0.0073 -0.1709
41915W        W84853   6.668  11.565  25.149  0.1875 -0.0080 -0.0245
41916W        W84854   7.741  11.909  23.112  0.1305 -0.0205 -0.0049
41917W        W84855  10.155  13.711  26.479  0.5051  0.1638 -0.0889
41918W        W84856   9.315  12.079  22.325  0.4834 -0.2925  0.0452
41919W        W84857  10.745  14.373  27.057  0.0770 -0.0739  0.0109
41920W        W84858   6.973  12.227  25.315  0.0272  0.2136 -0.0908
41921W        W84859   8.964  10.754  23.770 -0.0099 -0.3870  0.3108
41922W        W84860   7.362  12.681  24.737  0.0955  0.0618 -0.0746
41923W        W84861   9.169  12.509  25.706  0.2359 -0.0041 -0.2912
41924W        W84862  11.321  15.321  26.477  0.0103 -0.0870  0.0316
41925W        W84863   7.101  11.838  24.953  0.1054 -0.1390  0.1539
41926W        W84864   9.251  12.853  23.525  0.0416  0.1555 -0.0470
41927W        W84865   9.992  13.772  24.864 -0.0848 -0.0157 -0.0286
41928W        W84866   8.452  14.712  25.172 -0.1934 -0.0721 -0.0666
41929W        W84867  10.857  13.812  25.205 -0.1826  0.1130  0.0135
41930W        W84868  10.252  15.057  24.905 -0.1325  0.1812  0.0207
41931W        W84869   6.741  11.153  25.797  0.1005  0.1253  0.2158
41932W        W84870  10.796  13.377  25.902  0.0056 -0.1554  0.3210
41933W        W84871  12.137  14.535  25.649 -0.1048  0.0041 -0.0411
41934W        W84872   8.405  10.862  25.031  0.2178 -0.0985 -0.2541
41935W        W84873   9.051  11.999  24.700  0.0078  0.2958  0.2137
41936W        W84874   8.005  13.648  26.552 -0.2083  0.2568  0.0636
41937W        W84875  10.348  12.171  26.237 -0.2819  0.4611  0.0124
41938W        W84876   8.933  11.984  26.462  0.2717 -0.2685 -0.1906
41939W        W84877   8.783  13.562  24.461 -0.2764  0.3264  0.2437
41940W        W84878  10.514  11.640  26.277 -0.3455 -0.1793  0.1941
41941W        W84879   9.099  13.401  27.351  0.0028  0.2083 -0.0688
41942W        W84880   7.171  14.323  27.912  0.0835  0.1073 -0.3098
41943W        W84881   7.666  11.850  24.011 -0.4043 -0.0217  0.0903
41944W        W84882   8.208  12.846  26.352  0.0979  0.3032 -0.2948
41945W        W84883   8.878  12.581  24.129  0.0584  0.2471 -0.0784
41946W        W84884   7.317  14.408  26.043  0.0906 -0.1082 -0.0600
41947W        W84885  10.563  12.392  24.804 -0.2497  0.3201  0.0057
41948W        W84886   9.577  11.477  24.798 -0.1064  0.0756  0.0321
41949W        W84887  10.538  12.936  24.754 -0.2265 -0.0735 -0.0335
41950W        W84888   9.361  12.180  25.416  0.2613  0.0258 -0.0972
41951W        W84889  10.396  10.308  25.585  0.1459  0.3227  0.0991
41952W        W84890  11.329  11.340  24.702  0.0276 -0.0223  0.1003
41953W        W84891   7.621  12.781  25.194 -0.1589  0.2940 -0.0399
41954W        W84892   6.663  11.988  24.913 -0.2232 -0.1906 -0.2406
41955W        W84893   8.034  13.873  22.866 -0.1927 -0.1876 -0.2775
41956W        W84894   7.359  14.437  25.259 -0.1068 -0.2112  0.0676
41957W        W84895  11.371  12.522  27.668  0.0538 -0.2660  0.1187
41958W        W84896   6.891  11.745  25.653  0.0028  0.1037 -0.2510
41959W        W84897   6.512  12.558  24.309 -0.0059 -0.0728  0.2983
41960W        W84898   8.052  11.601  23.706  0.0484 -0.1947 -0.0381
41961W        W84899  11.823  12.804  23.418  0.1838  0.2259  0.3919
41962W        W84900   7.040  12.742  25.197 -0.2849 -0.0691  0.1523
41963W        W84901   6.824  10.237  23.639  0.3655 -0.1849 -0.1699
41964W        W84902  10.372  13.439  24.918  0.1073 -0.1115 -0.3992
41965W        W84903   9.738  15.389  24.414 -0.2785 -0.0767 -0.2772
41966W        W84904   7.901  11.057  24.255 -0.3337 -0.2127 -0.0330
41967W        W84905  11.147  15.312  25.928  0.1652  0.1891  0.2267
41968W        W84906   6.308  12.275  24.670  0.2106  0.2122  0.2290
41969W        W84907   7.387  12.499  27.138 -0.0182  0.0825  0.3783
41970W        W84908   7.693  11.479  27.423  0.2023  0.0345 -0.0964
41971W        W84909   7.058  11.196  23.824  0.1783  0.0401  0.2713
41972W        W84910   9.943  12.748  26.176  0.0680  0.1120  0.4090
41973W        W84911   9.768  13.975  26.355  0.1542  0.2924 -0.0652
41974W        W84912   9.836  13.954  23.704  0.0681  0.5757 -0.5247
41975W        W84913   9.805  14.145  27.303 -0.3813  0.0947 -0.0121
41976W        W84914   7.217  13.903  26.760 -0.3626 -0.3655 -0.1197
41977W        W84915   7.183  10.433  25.107  0.0971  0.1643 -0.1149
41978W        W84916  10.569  13.095  24.272  0.0118  0.2199  0.2384
41979W        W84917   7.713  12.330  27.554 -0.1990  0.0472 -0.0360
41980W        W84918  10.364  12.283  25.304 -0.3692  0.1489  0.2676
41981W        W84919  10.574  10.980  26.891  0.2417 -0.1142  0.1255
41982W        W84920   8.242  12.086  24.676 -0.1433 -0.0180  0.0240
41983W        W84921   9.404  11.506  27.060  0.0684 -0.1146  0.0484
41984W        W84922   7.156  12.915  27.912 -0.2004  0.0110 -0.1389
41985W        W84923  11.564  12.795  25.505  0.0809 -0.1810 -0.0382
41986W        W84924   7.835  11.695  25.495 -0.1389 -0.0885  0.1491
41987W        W84925   8.597  10.714  24.167 -0.1943  0.0841  0.1009
41988W        W84926   9.287  12.829  24.485  0.1148 -0.1166 -0.0880
41989W        W84927   7.207  11.411  27.231 -0.2968 -0.1541 -0.1117
41990W        W84928   8.535  11.101  23.828  0.1128 -0.0016  0.0574
41991W        W84929   9.670  12.481  26.721  0.1961  0.0595  0.1341
41992W        W84930   8.015  12.547  25.447 -0.0555 -0.1812  0.0748
41993W        W84931  11.210  12.555  25.755 -0.2412 -0.1535  0.1620
41994W        W84932   8.440  13.618  25.824  0.0023  0.1013  0.2798
41995W        W84933  10.263  14.274  23.685 -0.2964 -0.1442 -0.1556
41996W        W84934  10.739  13.546  26.465 -0.1070 -0.1535  0.1467
41997W        W84935  10.785  14.016  26.728  0.0775 -0.1252 -0.2868
41998W        W84936  10.123  14.121  25.515 -0.0266  0.0514 -0.2081
41999W        W84937  11.481  12.805  25.017 -0.1063 -0.1067 -0.0687
42000W        W84938   6.613  11.662  26.117 -0.0357  0.1527  0.1155
42001W        W84939   8.154  13.006  23.150  0.3932  0.0478  0.0688
42002W        W84940   8.751  13.358  25.031  0.1107  0.1133  0.1168
42003W        W84941   9.612  12.640  25.267  0.0755  0.0177 -0.2926
42004W        W84942   7.914  13.170  25.164  0.0345 -0.1146  0.0201
42005W        W84943   8.830   9.844  24.943  0.0988 -0.0736 -0.2105
42006W        W84944   8.081  13.950  26.973 -0.1632  0.0380 -0.1208
42007W        W84945   8.410  13.468  27.488  0.1964  0.3609 -0.0011
42008W        W84946   9.972  12.887  28.429  0.2548  0.2222 -0.0454
42009W        W84947   8.039  11.773  27.008  0.1238  0.3676  0.1670
42010W        W84948  10.962  13.082  28.188 -0.0619 -0.1087  0.1381
42011W        W84949  10.802  13.315  27.306 -0.1774 -0.1327  0.2274
42012W        W84950   7.744  11.620  28.957  0.1196 -0.1838 -0.2501
42013W        W84951  11.111  13.871  27.904  0.2677  0.1472 -0.2347
42014W        W84952   9.526   9.402  29.118 -0.0271 -0.2004 -0.0756
42015W        W84953   9.303  14.018  29.206  0.0698  0.2571 -0.2327
42016W        W84954  10.873  15.813  31.108  0.1163  0.2146 -0.2780
42017W        W84955  10.191  13.239  26.354 -0.1960 -0.2474 -0.2409
42018W        W84956   8.965  12.269  29.360  0.2611 -0.0024 -0.0255
42019W        W84957   9.871  13.824  29.048 -0.1321  0.2314  0.1272
42020W        W84958   8.778  11.063  28.455  0.1067 -0.1600  0.2729
42021W        W84959   7.523  10.587  27.843  0.1214 -0.1034 -0.0086
42022W        W84960  11.759  13.001  28.307  0.0695  0.2294 -0.1837
42023W        W84961   7.508  12.388  28.549  0.1692 -0.2797 -0.0093
42024W        W84962   8.944  10.912  30.662 -0.1870  0.2442 -0.3860
42025W        W84963   9.158  10.991  29.414  0.1791  0.0615 -0.0420
42026W        W84964  10.231  16.471  29.586  0.0062  0.1668  0.0505
42027W        W84965   8.737  11.367  30.618  0.1735  0.1224 -0.2138
42028W        W84966   9.181  12.145  30.544 -0.1163 -0.0023 -0.1199
42029W        W84967   9.541  14.522  27.675  0.0175 -0.1826 -0.0869
42030W        W84968   7.117  11.488  27.754 -0.0776  0.3577  0.0190
42031W        W84969   8.200  13.055  29.471  0.1916  0.0709 -0.1582
42032W        W84970   8.377  12.918  29.971  0.1198 -0.0336 -0.1281
42033W        W84971  11.443  12.731  29.895 -0.1032 -0.0607  0.1746
42034W        W84972  10.138  13.140  28.848  0.0823  0.0498 -0.4281
42035W        W84973  10.768  14.038  28.393 -0.1341 -0.0606  0.5129
42036W        W84974   9.498  14.301  28.089  0.0038  0.1431  0.0622
42037W        W84975  11.518  13.045  30.312 -0.2468  0.1412  0.1266
42038W        W84976   7.492  11.858  27.679 -0.3661  0.2133 -0.2302
42039W        W84977   7.811  14.615  28.930 -0.0741 -0.3506  0.0448
42040W        W84978   8.060  13.898  27.918 -0.3208  0.3005 -0.2941
42041W        W84979  12.626  13.291  27.117 -0.1056  0.1365  0.2779
42042W        W84980   9.502  14.968  30.535 -0.1544  0.2309 -0.0043
42043W        W84981   6.767  13.150   0.389  0.0921 -0.0860 -0.3836
42044W        W84982   8.336  12.973  27.428 -0.0417  0.0009  0.1863
42045W        W84983  10.478  12.601  29.829  0.0039  0.0140  0.1524
42046W        W84984   8.884  13.232  30.952 -0.2680 -0.1574 -0.0961
42047W        W84985  11.010  13.394  27.799  0.0222  0.4233  0.1372
42048W        W84986   8.682  12.613  27.809 -0.2811  0.0477  0.4068
42049W        W84987   9.244  13.728  28.138 -0.0752  0.0385 -0.2677
42050W        W84988   8.127  13.190  28.457 -0.1329 -0.0228 -0.0341
42051W        W84989   9.027  12.117  29.963 -0.1976  0.0412  0.0376
42052W        W84990   7.598  12.411  30.166 -0.0186 -0.2819  0.0416
42053W        W84991   9.957  11.765  30.067  0.1416 -0.2456 -0.2544
42054W        W84992   7.324  14.090  27.260 -0.1584 -0.1790  0.2560
42055W        W84993  11.401  12.037  27.097 -0.0630  0.0443  0.2001
42056W        W84994   9.370  11.978  26.749  0.1044 -0.1799 -0.0986
42057W        W84995   7.896  10.859  30.219  0.0729 -0.0620 -0.1186
42058W        W84996   9.648  11.540  28.570  0.0283  0.2231 -0.1603
42059W        W84997   9.859  14.953  28.587 -0.1076  0.0574 -0.1399
42060W        W84998   9.786  11.854  28.233 -0.1189  0.1711 -0.0674
42061W        W84999  10.568  13.529  28.769 -0.1577  0.1049 -0.4013
42062W        W85000   9.154  13.063  28.004 -0.0496  0.3251 -0.1593
42063W        W85001  10.728  12.019  29.938  0.3103  0.0235  0.2683
42064W        W85002   9.447  13.449  29.929  0.2645 -0.2654 -0.2875
42065W        W85003   6.924  12.517  29.450  0.0241 -0.0952  0.1816
42066W        W85004   9.744  13.806  28.213  0.0025  0.2368 -0.1354
42067W        W85005  11.519  14.459  28.070 -0.0466  0.1038  0.3012
42068W        W85006   8.368  14.614  27.381  0.0987  0.1826 -0.1387
42069W        W85007   8.679  12.799  26.907 -0.1537 -0.0794 -0.2247
42070W        W85008   7.327  13.783  30.444  0.1759  0.0502 -0.0597
42071W        W85009   7.559  12.091  30.654 -0.0237  0.1843 -0.1138
42072W        W85010   9.283  10.941  28.003  0.3102  0.0876  0.0047
42073W        W85011  12.097  13.324  28.715 -0.0148 -0.0351 -0.1152
42074W        W85012   8.536  12.075  30.147  0.0260  0.2177  0.0428
42075W        W85013  10.610  12.473  28.205 -0.0411  0.1063 -0.0385
42076W        W85014   8.972  12.204  28.043 -0.1820  0.1752  0.2746
42077W        W85015  10.825  13.726  29.247  0.0422 -0.0663 -0.1559
42078W        W85016  10.022  13.329  28.078 -0.0083 -0.0199 -0.0139
42079W        W85017   9.071  10.786  28.827  0.0021  0.0110 -0.0130
42080W        W85018  10.962  11.316  30.573  0.2789 -0.2280 -0.2405
42081W        W85019  10.986  11.802  26.250 -0.2998  0.1221 -0.0123
42082W        W85020   8.698  12.478  28.948 -0.2329  0.1469 -0.0369
42083W        W85021  11.177  14.213  29.366 -0.0713  0.0510 -0.0564
42084W        W85022  11.377  12.794  27.154 -0.2556 -0.1039 -0.0323
42085W        W85023   8.783  13.801  28.344  0.1840 -0.0805 -0.0623
42086W        W85024   8.976  11.413  29.142 -0.0315  0.1699 -0.0489
42087W        W85025  10.718  14.137  29.605 -0.1554 -0.0083 -0.2438
42088W        W85026   7.786  13.869  28.431 -0.2116  0.1136  0.1104
42089W        W85027   8.348  13.524  28.167  0.3857  0.0592  0.1380
42090W        W85028   8.408  12.047  27.909 -0.0111  0.1993 -0.2163
42091W        W85029   6.558  11.151  30.536  0.2693 -0.0505 -0.0006
42092W        W85030   9.949  13.706  29.571 -0.3879  0.4051 -0.2144
42093W        W85031   9.508  11.017  28.471 -0.0488 -0.0392 -0.0123
42094W        W85032   9.098  11.701  30.851  0.0248 -0.1811  0.0925
42095W        W85033   9.627   9.674  28.116 -0.2746 -0.1854 -0.1478
42096W        W85034   9.437  12.913  27.446  0.1083 -0.2402  0.2635
42097W        W85035  10.939  15.208  28.424 -0.0210 -0.3642  0.2479
42098W        W85036  11.553  13.071  27.700  0.0777  0.2885 -0.1848
42099W        W85037  10.422  13.562  27.646 -0.3843 -0.1211 -0.1167
42100W        W85038   7.305  12.377  31.577  0.2235 -0.0372 -0.2192
42101W        W85039   8.896  11.734  27.856 -0.5310 -0.1626  0.0609
42102W        W85040   8.850  11.189  31.480 -0.0641 -0.0610 -0.0568
42103W        W85041   7.162  12.115  29.608 -0.2406  0.0977 -0.1155
42104W        W85042  11.059  12.503  28.532  0.0390 -0.0585  0.0512
42105W        W85043   7.336  10.881  26.882  0.0162 -0.1600 -0.2451
42106W        W85044  10.451  12.173  28.712  0.0384  0.2091 -0.0970
42107W        W85045   9.376  13.838  27.205  0.0935  0.1801  0.0560
42108W        W85046   9.547  12.084  28.598  0.1134  0.0127  0.0804
42109W        W85047   9.264  11.343  31.230  0.0135  0.0529  0.0229
42110W        W85048  10.078  14.069  27.917 -0.2973  0.0592 -0.0661
42111W        W85049  10.201  14.684  29.485 -0.1525 -0.0133  0.0089
42112W        W85050   9.947  16.178  29.149 -0.0579 -0.1465  0.0378
42113W        W85051   9.226  12.725  29.019 -0.3314  0.2653 -0.2144
42114W        W85052   8.608  12.055  26.087 -0.1694  0.1797 -0.0875
42115W        W85053   7.621  14.835  30.084 -0.5050  0.0391  0.1624
42116W        W85054   7.371  14.583  30.555 -0.2101 -0.1549  0.0183
42117W        W85055   8.388  12.165  29.170  0.1154  0.0296  0.2373
42118W        W85056  10.682  14.906  29.845  0.0863 -0.1653 -0.0031
42119W        W85057   9.883  12.560  27.573  0.2943 -0.0572  0.2661
42120W        W85058   7.607  13.236  28.744  0.1721  0.4013  0.0726
42121W        W85059  10.812  11.870  28.917 -0.0465  0.0439 -0.0322
42122W        W85060  11.210  11.458  29.691  0.2640 -0.0348  0.3017
42123W        W85061  10.379  12.691  28.718  0.1946 -0.0186 -0.0018
42124W        W85062   7.429  11.248  26.366  0.2356 -0.4568 -0.2447
42125W        W85063   8.779  14.740  28.885 -0.0351  0.1661 -0.0918
42126W        W85064   8.005  14.130  28.956  0.1352  0.0037  0.1777
42127W        W85065   8.247  12.348  28.692 -0.0135 -0.0750 -0.0167
42128W        W85066   9.576  14.134  28.810 -0.0749  0.1532 -0.0645
42129W        W85067   9.445  10.844  30.340  0.2005  0.2239 -0.1040
42130W        W85068   7.119  12.594   0.405  0.1387  0.1756 -0.1330
42131W        W85069  10.327  13.529  29.227  0.0867  0.2117 -0.1009
42132W        W85070   9.182  12.483  27.670  0.1974 -0.1218 -0.1581
42133W        W85071   9.989  11.881  28.774  0.6345  0.1107 -0.1693
42134W        W85072   8.984  11.973  28.937  0.0446  0.2160 -0.1618
42135W        W85073  10.993  11.315  26.977  0.4194  0.1433  0.0076
42136W        W85074  11.466  12.964  31.040 -0.3214 -0.0752 -0.2405
42137W        W85075  10.544  14.332  30.010  0.3898  0.0180  0.2723
42138W        W85076  11.043  11.673  27.921 -0.2851 -0.1242 -0.1160
42139W        W85077  10.100  10.173  29.197 -0.0218 -0.1437  0.0916
42140W        W85078   8.545  10.161  30.726  0.0394 -0.1326  0.1742
42141W        W85079  10.073  14.638  27.447  0.0367  0.0432 -0.3142
42142W        W85080   9.911  13.525  28.634 -0.2082 -0.2767 -0.3955
42143W        W85081   7.969  11.162  26.398  0.0484  0.0650  0.1756
42144W        W85082  12.063  12.251  26.527 -0.0367 -0.1407 -0.0938
42145W        W85083   7.773  13.349  29.382 -0.0113  0.3624  0.2028
42146W        W85084  11.083  12.958  30.578  0.2767  0.0794  0.3987
42147W        W85085  10.364  14.171  27.416  0.0432 -0.0979 -0.1249
42148W        W85086   9.442  10.601  29.716  0.2882 -0.0601  0.0955
42149W        W85087   9.382  11.655  27.715  0.1006  0.0627  0.1577
42150W        W85088   7.154  10.251  29.408  0.3611  0.2095 -0.1255
42151W        W85089   7.312  13.890  28.204 -0.0781 -0.3364  0.1252
42152W        W85090   9.485  11.750  29.014 -0.2658  0.0175  0.0104
42153W        W85091   9.882  10.859  29.970  0.1898 -0.0332  0.0006
42154W        W85092  10.127  10.834  31.107  0.1940 -0.1467 -0.0481
42155W        W85093  10.767  12.046   0.062 -0.1241  0.1603 -0.0654
42156W        W85094   9.898  10.988  27.442 -0.1606  0.2262 -0.1470
42157W        W85095   9.879  12.820  29.183  0.1845 -0.2070 -0.1315
42158W        W85096   9.244  13.214  26.256  0.0262 -0.4774 -0.1847
42159W        W85097   9.212  10.858  31.080 -0.4472  0.2657 -0.1358
42160W        W85098   7.921  11.477  30.252 -0.0924 -0.1913 -0.1261
42161W        W85099   9.126  13.344  29.002  0.0657 -0.3515 -0.2383
42162W        W85100  10.198  15.794  30.093 -0.1920 -0.1373  0.2398
42163W        W85101  10.007  12.369  27.107  0.1172 -0.0099  0.0552
42164W        W85102   9.393  11.334  30.723 -0.0294 -0.1295 -0.0651
42165W        W85103   8.593  11.404  28.207  0.1664 -0.0753  0.1490
42166W        W85104   7.586  14.323  28.577  0.1099 -0.0157 -0.2659
42167W        W85105   8.704  12.113  26.893  0.4240  0.2489  0.1316
42168W        W85106   8.387  10.604  30.477  0.4034  0.1470 -0.5327
42169W        W85107  11.018  13.170  29.220  0.1551  0.2535 -0.0022
42170W        W85108   9.471  13.298  27.760 -0.3521 -0.0016 -0.4706
42171W        W85109  11.099  13.075  29.751  0.0909 -0.0594 -0.2227
42172W        W85110   8.064  14.508  30.950  0.4439  0.3695  0.2890
42173W        W85111  11.345  11.883  29.400 -0.0902 -0.1111  0.1452
42174W        W85112   7.932  14.493  30.503  0.2560  0.2489  0.1941
42175W        W85113   8.548  11.073  27.222  0.1423 -0.1266  0.1241
42176W        W85114   8.466  12.503  28.251 -0.0306  0.0757 -0.1558
42177W        W85115  11.200  10.779  29.053 -0.0673  0.0163 -0.0616
42178W        W85116  10.077  14.259  28.770  0.2496 -0.0285  0.1716
42179W        W85117   8.293  11.790  30.868  0.0869 -0.1814 -0.0924
42180W        W85118   9.671  12.937  29.765  0.2568 -0.1712 -0.1388
42181W        W85119   7.337  14.184  29.464 -0.1004 -0.0949  0.2060
42182W        W85120  10.641  11.976  28.288 -0.3135  0.0778 -0.0124
42183W        W85121  10.511  12.978  27.711  0.1717 -0.0352  0.1029
42184W        W85122   9.836  13.249  29.373  0.0039 -0.0860  0.2388
42185W        W85123   8.620  12.879  29.197 -0.1515  0.2188 -0.2268
42186W        W85124   7.515  11.860  27.200 -0.4132 -0.1438 -0.2182
42187W        W85125  11.220  12.141  28.932  0.2038 -0.4111 -0.2483
42188W        W85126   8.990  13.353  28.433  0.2436  0.1801 -0.2036
42189W        W85127   8.138  12.482  27.733 -0.1245  0.1656  0.0270
42190W        W85128   8.285  14.322  30.161  0.2403 -0.1046  0.1523
42191W        W85129   9.371  12.252  29.058 -0.3141  0.0879  0.2929
42192W        W85130   9.986  13.129  27.564 -0.1223 -0.1529 -0.0085
42193W        W85131   8.356  11.625  30.376  0.3805  0.1365  0.0445
42194W        W85132  11.096  13.599  28.873  0.0174 -0.1686 -0.0315
42195W        W85133   9.295  12.929  28.527 -0.2768 -0.1950 -0.2019
42196W        W85134   8.248  10.674  28.931 -0.1549 -0.1036  0.2765
42197W        W85135   9.179  14.092  28.486 -0.1486  0.2238  0.0096
42198W        W85136  11.548  12.847  29.383 -0.0119 -0.2172 -0.5603
42199W        W85137  10.227  12.161  29.869 -0.3909  0.0067  0.4324
42200W        W85138   8.935  12.478  30.278 -0.0305 -0.1369  0.0623
42201W        W85139   9.951  11.846  29.561  0.4992 -0.0633 -0.0394
42202W        W85140  11.748  14.356  27.256 -0.1235  0.0294  0.3867
42203W        W85141  10.853  11.804  29.476 -0.1630  0.0482  0.2197
42204W        W85142   7.941  11.889  27.984  0.0969  0.1256  0.3599
42205W        W85143   6.432  12.485  29.648 -0.0399 -0.1542  0.0104
42206W        W85144   8.653  12.405  26.498 -0.1906 -0.1400 -0.1198
42207W        W85145   9.987  11.409  29.289  0.1474 -0.1263 -0.0622
42208W        W85146   9.599  13.206  28.907 -0.2692  0.0604 -0.3842
42209W        W85147   7.454  12.233  28.070 -0.1587 -0.2029  0.0100
42210W        W85148   8.086  12.732  30.400  0.2710  0.0480 -0.1329
42211W        W85149   9.155  11.934  27.319 -0.0791 -0.0471 -0.1086
42212W        W85150  10.649  15.531  27.040 -0.2163 -0.1786  0.0170
42213W        W85151   8.826  12.994  28.782 -0.0334  0.1465 -0.1776
42214W        W85152  10.980  12.429  30.456  0.2927 -0.1225 -0.0252
42215W        W85153  10.014  12.403  28.483 -0.2648  0.1287 -0.3075
42216W        W85154  10.562  11.942  31.271  0.4750  0.1336 -0.3142
42217W        W85155   9.211  10.386  30.848 -0.2665  0.3910 -0.0864
42218W        W85156   9.694  14.614  29.795 -0.0507  0.0375 -0.1250
42219W        W85157   6.254  11.631  31.461  0.3624  0.0784 -0.0627
42220W        W85158   9.639  14.653  30.898  0.2206  0.0910  0.1979
42221W        W85159   9.180  13.018  29.886 -0.1563 -0.2037  0.2300
42222W        W85160   9.164  11.486  28.651  0.1863  0.2635 -0.2231
42223W        W85161   8.237  10.958  28.542  0.0104  0.2859  0.0392
42224W        W85162   9.096  13.458  29.493  0.1205 -0.0843 -0.1043
42225W        W85163  10.472  15.395  30.015  0.1429  0.3569  0.2131
42226W        W85164   8.860  13.868  27.430 -0.0941  0.2709 -0.0163
42227W        W85165  11.085  11.846  28.476  0.2187  0.1129  0.0825
42228W        W85166   7.445  13.143  29.778 -0.0580 -0.1834  0.2724
42229W        W85167   9.966  11.010  28.978  0.5578  0.0460 -0.0307
42230W        W85168  10.203  12.157  27.532  0.1016  0.0471  0.3274
42231W        W85169   8.429  11.848  28.364 -0.0167  0.0423 -0.0949
42232W        W85170   7.649  10.238  29.474 -0.1033 -0.2183 -0.1657
42233W        W85171  10.662  14.136  28.820 -0.1242 -0.3311 -0.1076
42234W        W85172  10.465  13.114  28.441  0.1696  0.1677  0.5507
42235W        W85173  11.420  13.348  28.095  0.1785  0.2828  0.3304
42236W        W85174   9.972  12.136  30.409 -0.1279  0.1464 -0.0927
42237W        W85175  10.116  13.121  30.753  0.3628  0.0573  0.1185
42238W        W85176   7.667   9.751  30.908  0.1279 -0.3148  0.5447
42239W        W85177   9.293  14.684  30.124 -0.2436 -0.2436  0.0808
42240W        W85178  12.025  11.917  26.049  0.0692  0.2575 -0.0663
42241W        W85179  10.272  11.120  29.762 -0.3646  0.0455  0.0170
42242W        W85180  12.118  12.703  28.375  0.2163  0.0028  0.1668
42243W        W85181  10.722  12.074  27.798 -0.2336 -0.0185  0.0278
42244W        W85182   8.275  11.049  30.589 -0.0285 -0.0290 -0.0798
42245W        W85183  11.115  13.366  30.141 -0.0969 -0.3576 -0.1442
42246W        W85184   7.509  10.802  25.564  0.0510  0.1817  0.1482
42247W        W85185  10.285  13.031  29.488  0.0285  0.1849 -0.2675
42248W        W85186   7.946  15.346  27.409  0.0125  0.0784  0.0138
42249W        W85187   9.817  14.663  28.987 -0.3255  0.3877 -0.2581
42250W        W85188  10.298  12.723  27.402 -0.2240 -0.1260 -0.1798
42251W        W85189   7.022  10.564  28.490 -0.3372 -0.2549  0.0080
42252W        W85190   7.874  12.742  28.626 -0.0839 -0.2070 -0.0126
42253W        W85191   7.904  10.370  26.852 -0.3343  0.0513 -0.0429
42254W        W85192   8.653  13.091  27.791  0.0381 -0.2267 -0.2568
42255W        W85193   8.887  14.209  30.902  0.3522 -0.0693 -0.2917
42256W        W85194  12.132  13.026  29.236 -0.2014 -0.0100 -0.1563
42257W        W85195  10.874   9.288  28.952  0.2037 -0.1089 -0.5093
42258W        W85196  10.897  11.861   0.603  0.1107  0.1862 -0.1411
42259W        W85197   8.735  14.375  29.232 -0.0084 -0.0638 -0.2914
42260W        W85198  10.387  10.963  29.314 -0.2318 -0.1543 -0.3466
42261W        W85199   7.744  13.466  30.385 -0.1739  0.0802 -0.2809
42262W        W85200   7.820  12.697  29.564 -0.3718  0.1008 -0.1435
42263W        W85201   7.720  14.847  30.849  0.2441  0.1432 -0.0676
42264W        W85202   9.423  11.080  29.859 -0.1018 -0.2871  0.1147
42265W        W85203   9.932  12.340  28.994 -0.0975  0.0602 -0.3655
42266W        W85204  10.057  12.599  29.624  0.1588 -0.0394  0.0820
42267W        W85205  11.800  11.754  29.738  0.1254  0.0701 -0.4584
42268W        W85206  10.894  13.101  28.716 -0.1871  0.0356 -0.1123
42269W        W85207   8.364  12.815  28.704 -0.2851  0.0954  0.1695
42270W        W85208   8.756  14.905  29.925  0.0344  0.1426 -0.0028
42271W        W85209  11.775  12.997  26.830 -0.1743  0.0869 -0.0899
42272W        W85210   8.384  14.060  27.438 -0.0480  0.2632  0.1491
42273W        W85211   7.784  11.773  31.018 -0.2322  0.2830 -0.1728
42274W        W85212   9.284  13.329  31.817 -0.2604 -0.0262 -0.0745
42275W        W85213   9.547  13.948  29.650 -0.2760 -0.2285  0.1732
42276W        W85214   7.380  11.777  29.335 -0.1975  0.2235 -0.1035
42277W        W85215   7.723  12.657  27.948 -0.0056 -0.1853  0.2162
42278W        W85216   7.897  13.968  30.372  0.3336 -0.2689 -0.0109
42279W        W85217   7.165  12.755  30.205 -0.2437  0.0256 -0.0049
42280W        W85218   8.212  14.757  27.960 -0.1296  0.0226 -0.0679
42281W        W85219   8.848  13.314  26.885  0.0109  0.0910 -0.1707
42282W        W85220  11.273  14.185  27.114  0.4426  0.0755  0.1782
42283W        W85221   8.266  13.959  31.686 -0.0169  0.1762 -0.1246
42284W        W85222   9.160  11.499  26.525 -0.2202  0.3542 -0.0073
42285W        W85223   7.972  13.616  28.832 -0.0987  0.1092  0.1342
42286W        W85224   7.259  13.048  29.389 -0.0657  0.2176 -0.1868
42287W        W85225   9.753  13.779  26.851  0.0547 -0.1325 -0.1594
42288W        W85226   8.673  15.634  28.563 -0.1508  0.0408  0.4007
42289W        W85227  10.276  13.956  30.287  0.2378  0.1157  0.1249
42290W        W85228   9.805  11.813  26.871 -0.0021  0.1725  0.1510
42291W        W85229  10.775  14.490  29.222  0.3536  0.0044  0.1054
42292W        W85230  10.200  10.680  27.168  0.1275  0.0123  0.0292
42293W        W85231  10.471  15.803  30.546  0.1762  0.2055  0.1757
42294W        W85232   8.838  12.911  27.337  0.1480  0.1330 -0.2138
42295W        W85233   8.789  12.185  27.556 -0.0534  0.2364  0.1779
42296W        W85234   7.162  12.462  30.693 -0.0686  0.1172  0.0303
42297W        W85235  10.443  11.871  30.342 -0.0621  0.1412  0.1248
42298W        W85236   8.292  14.136  29.376  0.1336  0.3626 -0.3679
42299W        W85237  11.751  15.132  26.643  0.4189  0.2812  0.3220
42300W        W85238   8.713  12.174  28.555 -0.1128  0.2063  0.0478
42301W        W85239   8.923  12.701  28.294 -0.2498 -0.3253 -0.2249
42302W        W85240  11.412  12.252  30.287 -0.3260 -0.4093  0.0494
42303W        W85241   8.193  12.897  28.038  0.2574 -0.0440  0.3231
42304W        W85242   8.612  13.076  28.341  0.2070 -0.0392  0.0233
42305W        W85243   9.038  14.089  27.896  0.0215  0.3657  0.2400
42306W        W85244   8.155  14.379  28.273 -0.2673 -0.1159 -0.0205
42307W        W85245   9.632  15.486  28.478  0.2702 -0.0395  0.0066
42308W        W85246   8.475  11.120  29.539  0.0041 -0.0590 -0.0326
42309W        W85247  12.687  11.539  27.541 -0.3294  0.0335  0.2056
42310W        W85248   7.897  13.004  29.990 -0.0882 -0.1212  0.1297
42311W        W85249  11.421  11.566  30.280 -0.0601  0.1402 -0.0305
42312W        W85250   8.269  11.530  27.827  0.0082 -0.2806 -0.1849
42313W        W85251  11.976  13.386  27.802  0.0746 -0.0230  0.0059
42314W        W85252  10.802  12.882  30.138 -0.1629 -0.2391 -0.2648
42315W        W85253   8.811  11.595  30.141  0.0464  0.2109 -0.2987
42316W        W85254  10.572  12.391  26.858  0.3511  0.1035  0.0609
42317W        W85255  10.531  13.053  29.076 -0.1828  0.1889  0.0254
42318W        W85256   8.433  13.308  26.472  0.2869 -0.1136 -0.1420
42319W        W85257   9.850  15.512  29.837 -0.0768  0.1723  0.0685
42320W        W85258   9.748  10.144  29.870  0.1020 -0.0344  0.0335
42321W        W85259  12.020  12.068  27.976  0.1392 -0.1255 -0.1439
42322W        W85260   9.151  12.412  28.653 -0.2943  0.0602  0.0013
42323W        W85261   9.831  12.956  30.287  0.1551 -0.2417  0.0665
42324W        W85262   9.999  15.221  30.680 -0.0267 -0.1122 -0.2984
42325W        W85263   7.902  11.098  28.958 -0.0688 -0.2127  0.1033
42326W        W85264  12.258  13.329  26.606  0.0061 -0.0768  0.0283
42327W        W85265  10.644  12.276  29.501  0.0740  0.1253  0.0129
42328W        W85266   7.761  15.110  27.940  0.2886 -0.2532  0.5602
42329W        W85267  11.610  12.450  28.702  0.4655  0.0457 -0.1939
42330W        W85268  10.285  13.990  28.358 -0.1165 -0.0730 -0.0720
42331W        W85269   7.168  11.251  29.146  0.2515  0.0180  0.0327
42332W        W85270  10.133  14.200  29.657 -0.1713  0.0543 -0.1019
42333W        W85271  10.645  14.008  27.936  0.3024  0.0979 -0.2138
42334W        W85272   9.714  10.490  29.313  0.0963  0.2010 -0.0317
42335W        W85273   8.249  10.274  29.260  0.2215  0.2216  0.0735
42336W        W85274   8.260  13.958  28.534 -0.0948 -0.0905  0.0778
42337W        W85275  11.736  12.430  28.191  0.1026  0.0530 -0.0613
42338W        W85276  10.412  11.663  29.670  0.1901  0.0820  0.0260
42339W        W85277  10.241  14.248  26.380  0.3536 -0.2055  0.3174
42340W        W85278  10.418  10.835  30.149 -0.1876  0.1814 -0.1246
42341W        W85279  10.014  13.270  29.896 -0.0970 -0.3832  0.0815
42342W        W85280   8.458  13.734  30.494  0.1730  0.1170 -0.1084
42343W        W85281   8.028  11.279  25.724 -0.1796 -0.1178  0.2498
42344W        W85282   9.343  13.400  31.015  0.2249 -0.0826 -0.1832
42345W        W85283   8.531  14.003  27.892 -0.2501 -0.0215  0.0883
42346W        W85284   9.124  14.387  28.913 -0.0695 -0.0108 -0.0135
42347W        W85285   9.902  14.421  28.294 -0.3296  0.0682  0.0294
42348W        W85286   9.750  11.374  28.069  0.1886  0.2263  0.0012
42349W        W85287  12.745  13.805  27.270 -0.2421 -0.1160  0.3592
42350W        W85288   9.407  11.498  29.469 -0.0932  0.0619 -0.0327
42351W        W85289  11.177  12.191  28.063  0.1881  0.1959 -0.0518
42352W        W85290   9.987  11.206  28.449  0.1863  0.1972  0.1874
42353W        W85291   9.546  13.297  28.327 -0.1627 -0.1619  0.0300
42354W        W85292   8.270  11.031  27.998 -0.0852  0.0642 -0.1595
42355W        W85293   9.528  13.963  27.680 -0.1559  0.1125  0.1097
42356W        W85294   7.951  12.327  28.286  0.0088 -0.0924  0.2802
42357W        W85295   7.465  10.251  30.831 -0.1538  0.1977  0.2485
42358W        W85296   9.050  12.128  31.175  0.0953  0.0889  0.0900
42359W        W85297   8.129  11.638  29.545 -0.1264 -0.2773 -0.0681
42360W        W85298   8.038  11.098  29.828 -0.2202 -0.1302  0.1609
42361W        W85299   9.634  13.434  27.306 -0.0194 -0.1108  0.1326
42362W        W85300   9.458  10.025  29.137 -0.0664 -0.0577 -0.2994
42363W        W85301   7.870  10.771  28.249 -0.0731  0.0058 -0.1001
42364W        W85302  10.988  13.595  28.350  0.1910 -0.2313  0.0481
42365W        W85303  11.534  13.613  27.698  0.4219  0.1229  0.1587
42366W        W85304   9.184  10.514  29.278  0.2654  0.1986 -0.1643
42367W        W85305   9.236  15.050  29.809 -0.1839 -0.0792 -0.1190
42368W        W85306   6.773  13.621  27.102  0.2738  0.0395 -0.0407
42369W        W85307  11.503  12.651  30.616  0.0836  0.1841 -0.2733
42370W        W85308   8.746  10.137  31.621  0.0759 -0.0039  0.2869
42371W        W85309   8.117  11.130  27.473  0.2282 -0.0681 -0.2378
42372W        W85310  10.341  12.562  29.181  0.3257 -0.0798 -0.0168
42373W        W85311   9.872  14.847  27.946  0.0064 -0.0573 -0.0942
42374W        W85312  12.020  15.037  27.516 -0.0238 -0.0141  0.0755
42375W        W85313   9.570  12.467  30.419  0.1977 -0.1183 -0.0450
42376W        W85314   8.574  14.465  29.654 -0.1656 -0.2820 -0.0443
42377W        W85315   8.091  10.239  30.347 -0.0353 -0.0653 -0.3698
42378W        W85316  10.897  14.400  28.077  0.0163  0.0874 -0.3064
42379W        W85317   9.786  13.762  30.075 -0.1007 -0.0602  0.2264
42380W        W85318  11.418  13.995  28.823 -0.2529 -0.1918  0.0292
42381W        W85319   9.686  12.149  29.912 -0.6309  0.1323  0.3359
42382W        W85320   8.617  13.379  29.160 -0.4466  0.1717 -0.0853
42383W        W85321   7.674  11.126  30.622  0.0834  0.2157 -0.0151
42384W        W85322   9.382  13.063  29.349  0.0937 -0.0419 -0.2350
42385W        W85323  11.476  13.594  28.555  0.2849  0.3870 -0.0919
42386W        W85324   8.592  11.727  29.233  0.0391  0.0965  0.0523
42387W        W85325   8.622  11.440  28.723  0.1306  0.1642 -0.0150
42388W        W85326  10.217  12.669  27.986  0.4487 -0.0410  0.1338
42389W        W85327   8.093  11.439  28.380  0.1011  0.2828 -0.1472
42390W        W85328  10.240  12.114  28.098 -0.0998 -0.1509 -0.1763
42391W        W85329   9.403  12.021  29.485  0.1849  0.1809 -0.4651
42392W        W85330  10.824  12.736  29.512 -0.2157 -0.0901  0.0616
42393W        W85331  11.852  11.393  30.194  0.2107 -0.2044  0.1998
42394W        W85332   9.486  12.476  28.248  0.0390 -0.0087  0.1281
42395W        W85333  11.811  13.299  26.443 -0.0811  0.2786 -0.0624
42396W        W85334   9.397  15.467  29.508  0.0761  0.4327  0.2197
42397W        W85335  10.907  15.259  30.170  0.1874 -0.2401  0.0788
42398W        W85336   9.155  14.228  29.683  0.1353 -0.2878 -0.0100
42399W        W85337  10.470  13.519  28.176 -0.1935  0.0425 -0.0919
42400W        W85338   7.401  11.425  30.206 -0.4190 -0.0839 -0.1411
42401W        W85339   8.325  12.525  29.579 -0.5918  0.0419  0.1583
42402W        W85340   9.939  11.845  27.776  0.1280 -0.2738  0.0600
42403W        W85341  11.574  12.386  29.242 -0.1395 -0.2222 -0.3091
42404W        W85342   9.608  12.075  30.811  0.0729 -0.1862  0.1045
42405W        W85343   8.159  10.248  27.624 -0.1127  0.1566 -0.0392
42406W        W85344   8.133  13.168  28.999  0.0011  0.2803 -0.1452
42407W        W85345  10.724  13.743  30.138 -0.1551 -0.4129 -0.0566
42408W        W85346   9.496  11.839  30.331 -0.3337 -0.1145  0.0327
42409W        W85347  10.214  13.822  31.237  0.2385 -0.1178 -0.0128
42410W        W85348   8.208  12.797  30.875  0.1974 -0.1175 -0.1867
42411W        W85349   8.712  12.728  31.314  0.0013  0.0169 -0.2010
42412W        W85350   6.975  13.593  31.459 -0.1819  0.3003 -0.0595
42413W        W85351   9.401  14.158  30.080 -0.0647 -0.1900  0.2473
42414W        W85352   9.736  12.266  31.713  0.2380 -0.1344 -0.1209
42415W        W85353   7.974  11.201  31.748  0.4475 -0.2851 -0.0403
42416W        W85354  10.587  12.889  30.800 -0.2305 -0.0885 -0.2033
42417W        W85355   9.827  13.269  31.919  0.0756  0.0173 -0.0458
42418W        W85356   8.732  13.448  30.188  0.0022  0.0045 -0.1989
42419W        W85357   7.476   9.440  30.481 -0.0175 -0.0651 -0.1376
42420W        W85358  11.902  12.244  30.794 -0.0696  0.3584 -0.2279
42421W        W85359   9.486  12.531  29.397 -0.0863  0.3296  0.0796
42422W        W85360  11.528  13.284  31.823 -0.1397 -0.1582  0.3118
42423W        W85361   7.771  13.076  31.940 -0.2263 -0.2928  0.1599
42424W        W85362   8.135  13.666  31.291 -0.0965 -0.1030  0.0756
42425W        W85363   9.236  14.136   0.556 -0.0190  0.0603  0.0334
42426W        W85364   6.772  10.381  31.420 -0.4491 -0.1557  0.1300
42427W        W85365   7.681  10.948  31.407  0.1171 -0.0431 -0.1225
42428W        W85366   7.238  10.517  31.284 -0.0522  0.2843 -0.0224
42429W        W85367   8.005  13.602   0.290  0.1541  0.0027 -0.0781
42430W        W85368  10.799  11.305  31.058 -0.0344 -0.2377 -0.2195
42431W        W85369  10.143  12.256  31.336  0.2899  0.0756 -0.0449
42432W        W85370   9.117  11.268  30.298 -0.3971 -0.0207  0.1305
42433W        W85371   8.221  11.546   0.079 -0.1274  0.1678  0.1507
42434W        W85372  10.007  12.517  30.113 -0.1919 -0.0469 -0.0995
42435W        W85373   8.582  13.642  30.996  0.3327  0.0291 -0.1759
42436W        W85374   9.239  12.587  31.064 -0.1751  0.2680 -0.0341
42437W        W85375   9.601  13.369  30.479  0.1269  0.1292 -0.0738
42438W        W85376  10.164  13.453  30.355  0.3410 -0.1103 -0.0723
42439W        W85377   8.524  11.064  31.086  0.0353 -0.0874 -0.3809
42440W        W85378  11.840  13.173  30.718  0.2943  0.0043  0.0644
42441W        W85379  10.299  12.256  31.913  0.0030  0.0928  0.1697
42442W        W85380   7.581  11.370  31.165 -0.0010 -0.1147  0.1677
42443W        W85381   9.299  12.113  31.896 -0.0086  0.0950 -0.1968
42444W        W85382   9.169  12.435  31.527 -0.1542 -0.2620  0.1624
42445W        W85383  10.357  14.201  30.927  0.2730 -0.2112 -0.0714
42446W        W85384   9.578  12.845  30.811  0.0055 -0.1590  0.2100
42447W        W85385  10.552  11.307  31.509  0.0519 -0.0946 -0.3252
42448W        W85386  10.631  12.119  30.696 -0.1439 -0.1235  0.0683
42449W        W85387   8.750  11.512   0.041 -0.0395 -0.2595 -0.2045
42450W        W85388   8.702  10.163   0.145 -0.1282  0.0332 -0.2752
42451W        W85389   9.022  13.436  31.426  0.0804 -0.5163  0.2025
42452W        W85390   8.775  12.478  29.816  0.1512  0.0090 -0.1110
42453W        W85391   9.447  13.134   0.262  0.1552 -0.0666 -0.2591
42454W        W85392   8.668  10.648  31.471  0.0323 -0.0595  0.1640
42455W        W85393   9.181  13.111  30.544  0.2153 -0.0502  0.1093
42456W        W85394  11.023  14.122  30.106  0.2787  0.1811 -0.0675
42457W        W85395   7.279  13.210  31.254  0.3476 -0.1972  0.0234
42458W        W85396   9.940  14.251  30.075  0.0352 -0.0020  0.1332
42459W        W85397  10.255  11.298  30.301  0.0946  0.1918 -0.0213
42460W        W85398   8.469  11.567  31.603 -0.2896 -0.1538 -0.1695
42461W        W85399  11.005  12.431  29.984 -0.0580  0.1758  0.1808
42462W        W85400   9.873  13.563  31.045 -0.2034 -0.0818 -0.1953
42463W        W85401   9.692  12.652  28.735  0.2436 -0.1182 -0.2537
42464W        W85402  10.318  12.944  30.309 -0.0357  0.2378  0.0698
42465W        W85403   8.314  13.165  31.176  0.2049  0.0780 -0.1796
42466W        W85404   9.098  13.759  29.922  0.0954  0.2020 -0.3830
42467W        W85405   9.204  12.521   0.134 -0.2113 -0.2198 -0.1634
42468W        W85406   8.478  11.116  31.828  0.0353  0.2129  0.1425
42469W        W85407   8.655  10.590  30.935  0.4282 -0.0503  0.0640
42470W        W85408   7.128  13.088  30.723  0.1269  0.2440  0.0672
42471W        W85409   8.709  11.875  30.580 -0.3466  0.1140 -0.1771
42472W        W85410  10.316  14.791  30.906  0.3608  0.1508 -0.1242
42473W        W85411  11.068  12.678  31.019  0.3380 -0.3713 -0.0859
42474W        W85412  11.885  12.998  29.959  0.0277  0.2775 -0.0008
42475W        W85413   7.313  16.506  17.571 -0.2404 -0.2146 -0.0218
42476W        W85414   7.802  15.404  17.310  0.0608  0.1705 -0.0441
42477W        W85415   8.845  16.884  15.572 -0.1241 -0.0134  0.1787
42478W        W85416  10.732  15.283  16.082  0.0863  0.0732  0.1766
42479W        W85417   5.765  16.406  17.422  0.0745 -0.1643  0.3878
42480W        W85418   9.242  18.517  17.689  0.0800 -0.1557 -0.0269
42481W        W85419   8.649  13.234  20.488  0.1159  0.3059  0.2724
42482W        W85420   8.854  17.054  17.305  0.0578 -0.0187  0.0733
42483W        W85421  10.574  18.711  18.102  0.1344 -0.3215  0.0833
42484W        W85422   8.724  16.610  16.491 -0.0445 -0.1926  0.1758
42485W        W85423   7.703  14.434  19.535  0.2210  0.0867 -0.2045
42486W        W85424   8.273  17.548  18.242 -0.2164 -0.1142 -0.1079
42487W        W85425   7.079  14.733  17.063 -0.1749 -0.1539 -0.0713
42488W        W85426   7.683  14.390  20.282  0.3228  0.0552  0.0619
42489W        W85427  11.095  16.251  17.706 -0.0261 -0.2614  0.0490
42490W        W85428   6.597  16.964  16.400  0.0431  0.2170  0.2509
42491W        W85429   7.441  15.705  19.243 -0.4007  0.0647  0.0599
42492W        W85430   8.325  15.416  16.476 -0.0704  0.2617  0.0596
42493W        W85431   8.444  18.301  16.359  0.1137  0.2051  0.2132
42494W        W85432   8.551  14.007  17.983 -0.0533  0.1547 -0.7348
42495W        W85433  10.309  15.049  19.951  0.0947  0.1107 -0.0113
42496W        W85434   8.821  17.565  16.679  0.4648  0.1161 -0.1380
42497W        W85435   7.515  15.042  17.096  0.1203  0.4718 -0.0821
42498W        W85436   7.108  14.525  19.132 -0.2301 -0.4889 -0.1486
42499W        W85437   7.060  16.066  17.441  0.2615 -0.0797  0.0820
42500W        W85438   9.196  15.724  16.818  0.2203 -0.0422  0.3130
42501W        W85439   9.398  17.776  17.094  0.3767 -0.0151  0.3236
42502W        W85440   7.299  19.004  17.477  0.1224 -0.0447  0.1328
42503W        W85441  10.086  17.042  16.379  0.3926  0.0835 -0.3016
42504W        W85442   9.287  16.912  17.193 -0.1196 -0.3485  0.0656
42505W        W85443   6.553  18.410  17.340 -0.4669  0.0111  0.1811
42506W        W85444   6.789  19.421  18.344  0.0722  0.1360 -0.0635
42507W        W85445   7.442  17.566  17.210  0.3197  0.3067  0.2165
42508W        W85446  10.575  16.922  15.669 -0.1234  0.1212 -0.2090
42509W        W85447   9.700  17.332  18.710 -0.0579 -0.1866  0.3118
42510W        W85448   7.743  19.178  19.307 -0.0417 -0.2097 -0.5493
42511W        W85449   7.877  17.161  16.630 -0.1670  0.1654 -0.3515
42512W        W85450   7.931  19.282  21.149 -0.3920 -0.2350 -0.2825
42513W        W85451   6.829  17.370  19.729 -0.2437 -0.0361  0.0924
42514W        W85452   7.601  15.209  18.414 -0.0354  0.2790  0.2481
42515W        W85453   8.522  15.243  18.769 -0.2235 -0.1012  0.0993
42516W        W85454   8.563  17.570  17.226  0.0184 -0.1263 -0.0286
42517W        W85455   6.955  15.032  19.640 -0.1857  0.2475  0.0255
42518W        W85456   7.806  16.640  21.144  0.0914 -0.1267  0.1088
42519W        W85457   7.339  19.317  18.516 -0.0930  0.1234 -0.1524
42520W        W85458  10.700  14.121  18.847 -0.0453 -0.1086  0.0659
42521W        W85459   8.360  17.312  16.467 -0.1545 -0.3002  0.0186
42522W        W85460   9.761  15.898  15.231  0.3245  0.1716  0.0784
42523W        W85461   7.348  15.409  17.560 -0.2522  0.4021 -0.1980
42524W        W85462   9.495  15.562  16.399  0.2961  0.3087  0.1318
42525W        W85463   7.932  14.564  17.452  0.4345  0.1848 -0.0489
42526W        W85464   6.991  18.181  17.403  0.1674 -0.3038 -0.1582
42527W        W85465   8.341  14.170  17.471  0.2695  0.0630 -0.0272
42528W        W85466   9.590  15.593  17.800  0.1477 -0.0780  0.0647
42529W        W85467   9.550  15.883  18.250 -0.0089 -0.0885  0.1257
42530W        W85468   9.886  15.050  18.580 -0.0378 -0.1224  0.1510
42531W        W85469   8.456  17.126  18.008 -0.0796  0.2221 -0.1228
42532W        W85470   6.781  14.849  17.934  0.2797  0.1684 -0.1163
42533W        W85471   7.858  18.412  18.067  0.2339 -0.1117 -0.0338
42534W        W85472   9.620  18.186  16.332  0.2157 -0.0105  0.1391
42535W        W85473   9.402  18.175  16.766 -0.1268 -0.0727  0.1461
42536W        W85474   6.553  16.261  17.569  0.0852  0.0661  0.0930
42537W        W85475   6.283  16.999  18.430  0.0619  0.0632 -0.0622
42538W        W85476   6.487  16.975  19.678  0.0063  0.0619  0.2930
42539W        W85477   8.639  15.552  16.108  0.0038  0.0387 -0.3265
42540W        W85478  10.100  16.192  18.174  0.2364 -0.0678  0.1949
42541W        W85479   6.660  18.610  19.941 -0.0769 -0.4907 -0.1983
42542W        W85480   9.202  15.536  15.872 -0.1688 -0.0601  0.2274
42543W        W85481   5.253  16.756  18.327 -0.0320  0.1199  0.1741
42544W        W85482   9.459  17.783  18.937 -0.1232 -0.2011 -0.0543
42545W        W85483  12.071  17.364  15.285 -0.0131 -0.4065  0.1349
42546W        W85484   9.031  14.405  17.854  0.2855  0.0088  0.3195
42547W        W85485   8.689  12.937  17.865  0.0364 -0.0984 -0.1516
42548W        W85486   8.566  15.691  15.640  0.0735 -0.1384 -0.1669
42549W        W85487   7.963  16.475  17.418 -0.5152  0.1623 -0.0300
42550W        W85488   9.167  15.268  17.599 -0.0484 -0.0896 -0.0052
42551W        W85489  10.487  16.807  16.246 -0.0414  0.0350  0.4495
42552W        W85490   7.548  17.955  18.899  0.0743 -0.0533  0.1560
42553W        W85491   8.748  15.406  17.846  0.0935 -0.0107  0.3019
42554W        W85492   8.618  15.474  19.927 -0.1716  0.0717 -0.1425
42555W        W85493   7.031  17.687  17.523  0.0024  0.2711  0.1859
42556W        W85494   7.016  17.176  19.305  0.1130  0.0964 -0.0952
42557W        W85495   6.635  16.783  17.485  0.0357 -0.2842 -0.0202
42558W        W85496   7.209  14.823  20.759 -0.2576 -0.0405  0.0113
42559W        W85497   8.319  17.543  17.667  0.1328 -0.1927 -0.0498
42560W        W85498  10.772  14.444  15.687 -0.0415 -0.0253 -0.3248
42561W        W85499   7.079  15.312  19.186 -0.2337 -0.1506  0.0972
42562W        W85500  11.099  14.813  18.741 -0.0162 -0.4106 -0.0826
42563W        W85501   7.909  15.996  18.690 -0.0426  0.1444  0.1898
42564W        W85502   9.861  17.925  16.886 -0.1145  0.1149 -0.1062
42565W        W85503   9.940  15.486  16.001  0.0011 -0.1211 -0.0551
42566W        W85504  10.991  15.678  16.072 -0.3232 -0.3629 -0.2742
42567W        W85505   6.663  17.054  20.186 -0.0338 -0.0959 -0.1055
42568W        W85506   9.099  16.229  17.615  0.2255  0.2589 -0.0535
42569W        W85507   8.819  15.958  19.832  0.1515 -0.0599  0.0338
42570W        W85508   6.914  15.754  17.789 -0.0143 -0.0298  0.0034
42571W        W85509  10.470  16.285  17.746 -0.0634  0.3697  0.2030
42572W        W85510   7.511  15.220  16.277 -0.0773 -0.0360  0.3939
42573W        W85511  10.483  13.955  17.417  0.0703 -0.0118  0.0501
42574W        W85512   9.013  16.138  18.583 -0.2245  0.0517 -0.0888
42575W        W85513   7.182  17.021  17.301  0.1981  0.1568 -0.0291
42576W        W85514   9.935  14.895  19.634 -0.0819 -0.1511 -0.0532
42577W        W85515   8.177  18.637  16.737 -0.0886 -0.1181 -0.1984
42578W        W85516  10.008  17.394  16.865 -0.5577 -0.0355  0.2714
42579W        W85517  10.810  18.827  16.803 -0.1624  0.2956  0.0237
42580W        W85518   7.906  15.049  18.856 -0.0192  0.3051  0.1622
42581W        W85519   8.655  15.531  18.325 -0.1518 -0.0297  0.0320
42582W        W85520   7.872  19.306  18.366  0.0430 -0.1713 -0.1567
42583W        W85521   9.526  17.888  17.638  0.2961 -0.3852  0.0121
42584W        W85522   7.165  15.973  16.480  0.0625  0.1201  0.0460
42585W        W85523  11.268  17.828  17.545  0.0290  0.1951 -0.3225
42586W        W85524   9.257  17.728  16.617  0.0084 -0.0626  0.1737
42587W        W85525   7.338  17.232  19.777  0.0294  0.1675  0.0917
42588W        W85526   8.779  13.980  18.706  0.0489 -0.1681  0.0847
42589W        W85527   9.245  15.621  19.031 -0.0213 -0.0644  0.4223
42590W        W85528   9.194  16.765  16.629  0.1714  0.0188 -0.0734
42591W        W85529   6.519  15.017  16.832  0.1813 -0.1467  0.1210
42592W        W85530   9.800  16.844  17.974 -0.2449 -0.0629  0.0917
42593W        W85531   6.711  17.161  18.239  0.0808 -0.4206  0.0398
42594W        W85532   7.559  15.729  18.343 -0.0267  0.0971 -0.0722
42595W        W85533   8.074  17.681  16.888 -0.0654 -0.0458 -0.2533
42596W        W85534  10.244  14.458  17.053 -0.2220 -0.2167 -0.0048
42597W        W85535   7.702  16.666  19.272 -0.6147  0.3244 -0.0782
42598W        W85536  10.206  14.003  19.034 -0.1198 -0.2976 -0.0915
42599W        W85537   7.526  16.637  16.491 -0.0750  0.1278  0.0478
42600W        W85538   7.207  16.826  18.924 -0.4708 -0.2885  0.2085
42601W        W85539  10.036  14.078  16.592 -0.2588 -0.0933  0.1568
42602W        W85540   9.506  15.219  16.762 -0.0060  0.1262  0.2254
42603W        W85541   8.488  16.008  20.221 -0.1615 -0.0087  0.0260
42604W        W85542   9.872  15.869  15.703 -0.0644 -0.1971  0.4234
42605W        W85543   8.798  15.272  15.715 -0.1202  0.1299  0.1193
42606W        W85544   9.596  14.236  16.408 -0.2092  0.0544  0.1236
42607W        W85545   7.162  17.045  20.190 -0.0334 -0.2071 -0.0323
42608W        W85546   7.033  15.902  18.321 -0.1318 -0.2402  0.0650
42609W        W85547   7.688  16.988  18.748  0.0485 -0.1203  0.0829
42610W        W85548   8.072  14.998  16.248  0.3743 -0.0815 -0.0539
42611W        W85549  10.270  17.708  16.550 -0.1835  0.0474  0.0464
42612W        W85550   7.149  16.991  18.410  0.3041 -0.2013 -0.1764
42613W        W85551   6.157  17.090  20.404  0.3401  0.0228 -0.2587
42614W        W85552   9.770  17.329  17.640  0.1431 -0.4674 -0.0814
42615W        W85553   8.057  14.951  18.355  0.2810  0.1182  0.1417
42616W        W85554   9.561  14.607  16.047  0.2002 -0.0403 -0.0053
42617W        W85555   8.285  15.807  17.007 -0.2627 -0.1987  0.4468
42618W        W85556   8.237  17.242  17.022 -0.0290  0.2786 -0.4416
42619W        W85557  10.115  14.607  19.021  0.2377  0.2745  0.1104
42620W        W85558   8.784  15.189  16.740  0.0560 -0.0419  0.0539
42621W        W85559   8.640  15.045  20.158 -0.2495 -0.2070 -0.1462
42622W        W85560   9.517  14.989  17.916 -0.0878  0.0639 -0.3096
42623W        W85561   9.442  16.030  16.505 -0.1408  0.0873  0.1033
42624W        W85562   9.948  15.572  17.316  0.0963  0.1340 -0.0810
42625W        W85563   7.091  16.412  16.728 -0.0838 -0.0464 -0.1703
42626W        W85564   9.426  13.939  17.857  0.1404  0.0173  0.1734
42627W        W85565   7.810  17.573  17.843 -0.0536  0.0456  0.1958
42628W        W85566   7.419  18.907  20.231  0.0260 -0.1467  0.0176
42629W        W85567   8.312  17.457  19.821 -0.0024  0.0143  0.1493
42630W        W85568   8.394  16.722  17.184  0.1202  0.0516  0.4594
42631W        W85569   7.552  13.757  18.708  0.0689 -0.0144  0.0821
42632W        W85570   8.122  14.134  16.082  0.0471 -0.0492  0.1477
42633W        W85571   8.937  17.061  16.298  0.0974 -0.0917 -0.1956
42634W        W85572   8.081  15.463  18.400 -0.0988  0.0254 -0.1936
42635W        W85573   7.287  14.036  17.202  0.0291 -0.0704  0.3174
42636W        W85574   9.386  16.977  17.697  0.1038  0.0325  0.0959
42637W        W85575   7.229  18.526  17.697  0.1779  0.2407  0.3423
42638W        W85576   9.414  17.749  20.074 -0.1222 -0.4727 -0.0642
42639W        W85577   8.426  17.794  16.428 -0.0002 -0.1644  0.0969
42640W        W85578   8.781  14.621  17.381 -0.3285 -0.3554  0.0282
42641W        W85579   4.466  17.791  19.640  0.1807  0.1221  0.2861
42642W        W85580   8.859  16.044  18.111  0.0780 -0.2436  0.1907
42643W        W85581   7.056  16.840  16.410  0.1257 -0.0737  0.0381
42644W        W85582   9.638  14.914  17.102  0.0136  0.0637 -0.2085
42645W        W85583  10.076  17.211  15.578 -0.0114 -0.2556 -0.0586
42646W        W85584   8.164  15.192  19.249  0.2694 -0.0858 -0.1400
42647W        W85585   9.797  14.555  17.390  0.0641  0.0012  0.0949
42648W        W85586   5.470  16.947  18.823 -0.2649 -0.0648 -0.0082
42649W        W85587   9.857  15.074  17.534  0.0198  0.1961  0.2070
42650W        W85588  10.843  16.072  15.727  0.1388 -0.1971  0.4213
42651W        W85589   8.982  17.713  19.096  0.0091  0.1387  0.4731
42652W        W85590   8.195  16.506  19.324 -0.1249 -0.1012  0.0797
42653W        W85591   6.667  15.711  17.340 -0.2105 -0.1222 -0.0213
42654W        W85592   9.114  15.389  19.686 -0.1709 -0.0194  0.1243
42655W        W85593   8.259  15.347  17.030  0.3445  0.1271  0.2223
42656W        W85594   5.389  17.273  18.432  0.1350  0.0139 -0.1488
42657W        W85595   7.803  17.396  19.863  0.1342  0.0338  0.0284
42658W        W85596   7.512  16.184  16.759  0.2071 -0.4616  0.0528
42659W        W85597   7.536  16.196  18.342 -0.3583  0.2344 -0.0929
42660W        W85598   8.066  17.089  17.573  0.0119 -0.0149 -0.2999
42661W        W85599   9.120  15.632  18.451  0.0954  0.0843  0.1857
42662W        W85600   8.354  14.723  17.684 -0.1101 -0.2418 -0.3331
42663W        W85601   8.430  15.585  17.429  0.0168 -0.1207 -0.1731
42664W        W85602   8.736  15.883  17.623  0.0372 -0.3533  0.0056
42665W        W85603  11.628  17.209  17.996 -0.2672 -0.0026  0.3825
42666W        W85604   9.487  15.400  17.225 -0.0185 -0.1592 -0.1551
42667W        W85605   6.903  17.397  20.597 -0.0096  0.1186  0.1332
42668W        W85606   7.590  14.759  18.521  0.1827  0.0208  0.0516
42669W        W85607  10.845  17.779  16.220 -0.0298  0.0576  0.3021
42670W        W85608  10.461  15.905  17.298  0.0411  0.0705  0.0472
42671W        W85609   8.217  15.843  16.053  0.4079  0.0035 -0.3349
42672W        W85610   7.196  15.445  18.022  0.3423 -0.0509 -0.2552
42673W        W85611   6.922  16.518  17.214  0.1118  0.0625  0.3036
42674W        W85612   8.696  15.104  17.408  0.5260  0.0561  0.2628
42675W        W85613   7.247  17.449  18.928 -0.0842 -0.0341 -0.0867
42676W        W85614   6.240  17.383  16.376 -0.0830  0.1777  0.2355
42677W        W85615   7.485  18.208  19.296 -0.4570 -0.1144  0.0567
42678W        W85616  10.431  14.310  15.982 -0.1709 -0.1613 -0.1626
42679W        W85617   9.037  17.338  15.772 -0.0626 -0.0055  0.2194
42680W        W85618   8.376  16.231  17.831 -0.3722 -0.2499 -0.3091
42681W        W85619  10.094  14.290  18.599  0.2930  0.0234  0.1920
42682W        W85620   9.629  16.510  15.954  0.2070  0.1678 -0.1116
42683W        W85621   8.839  13.533  18.565  0.1430 -0.2101  0.3583
42684W        W85622   6.727  14.895  19.220 -0.1670  0.0750  0.0565
42685W        W85623  10.923  17.132  16.586  0.2026  0.3231  0.4785
42686W        W85624   8.357  15.603  19.094 -0.1797  0.1633 -0.0043
42687W        W85625   7.903  18.318  21.547 -0.1541 -0.0976  0.2010
42688W        W85626   7.523  17.197  19.310  0.3066 -0.1818  0.0220
42689W        W85627   9.104  14.230  16.525 -0.2840  0.1443 -0.0543
42690W        W85628   8.343  14.539  15.957  0.3211 -0.0069  0.2611
42691W        W85629   8.362  16.140  17.321 -0.0139 -0.3615 -0.3334
42692W        W85630   8.468  18.010  17.413  0.1557  0.0314 -0.1103
42693W        W85631   9.871  17.664  17.296  0.1703 -0.2058  0.0056
42694W        W85632  10.672  14.708  16.757 -0.1355  0.1431  0.0819
42695W        W85633   6.420  16.108  18.277 -0.1595  0.0247 -0.1057
42696W        W85634   8.954  16.127  16.649  0.0089 -0.0248 -0.3290
42697W        W85635   9.894  16.160  16.801  0.2631  0.3250  0.1085
42698W        W85636   7.993  17.957  18.144 -0.3651 -0.0303 -0.1207
42699W        W85637   8.197  14.990  20.563  0.0213 -0.0454  0.3600
42700W        W85638   8.807  14.916  17.890 -0.4740 -0.0841  0.0154
42701W        W85639   9.936  14.537  15.751  0.2473 -0.1478 -0.3690
42702W        W85640  10.276  14.795  18.471  0.0981 -0.2401 -0.1953
42703W        W85641  10.538  15.106  19.065  0.2975 -0.1907 -0.1627
42704W        W85642   9.322  15.847  19.520 -0.2933  0.1744 -0.2046
42705W        W85643   7.464  15.732  21.058  0.0557 -0.0833 -0.1506
42706W        W85644   9.391  16.445  18.868  0.1724  0.1846 -0.0442
42707W        W85645   8.465  16.204  15.647 -0.1775  0.1055 -0.0726
42708W        W85646  11.173  14.539  16.737  0.3058  0.3609 -0.1486
42709W        W85647  10.687  15.062  18.533 -0.0215  0.2616  0.0962
42710W        W85648   9.589  16.081  17.739  0.3284 -0.0376 -0.0818
42711W        W85649   7.696  15.532  18.805  0.0230 -0.0319 -0.5007
42712W        W85650   9.621  15.286  19.484  0.1262  0.0518  0.3013
42713W        W85651   8.057  15.842  16.575 -0.2304 -0.3118 -0.0761
42714W        W85652   9.051  14.661  18.262 -0.2061 -0.1085  0.0733
42715W        W85653  10.819  18.485  15.491 -0.0219 -0.1592  0.0420
42716W        W85654   8.839  17.484  17.734 -0.1159  0.2981  0.1199
42717W        W85655   9.976  14.933  16.060  0.3088  0.4876 -0.1853
42718W        W85656   8.133  16.741  17.916 -0.2298  0.4792  0.0350
42719W        W85657   6.582  18.417  18.734 -0.1035 -0.3644  0.0614
42720W        W85658   7.824  15.298  16.760  0.0918  0.1861 -0.1389
42721W        W85659   9.518  15.879  16.041  0.2553  0.3270  0.0712
42722W        W85660   7.990  17.384  19.434 -0.1670 -0.2100 -0.0042
42723W        W85661   8.382  14.670  18.762 -0.1067  0.3573  0.0842
42724W        W85662   9.541  15.128  15.955 -0.2772 -0.1224 -0.1176
42725W        W85663  10.920  15.457  18.312 -0.1058 -0.5284 -0.1517
42726W        W85664   6.583  17.323  16.851  0.0481 -0.2390  0.1120
42727W        W85665   9.277  14.466  17.052  0.0991  0.0170  0.0917
42728W        W85666   7.514  18.761  19.754  0.2632 -0.1588 -0.2842
42729W        W85667   6.845  16.262  17.937  0.0005  0.0921  0.0287
42730W        W85668   7.514  18.552  16.152 -0.4085  0.1173  0.2264
42731W        W85669  10.293  14.935  17.183  0.1264  0.0794  0.5200
42732W        W85670   9.971  16.419  17.595  0.0790 -0.0186  0.0212
42733W        W85671   8.928  17.017  17.859  0.1698 -0.1712 -0.0302
42734W        W85672  10.871  15.070  17.050  0.1161  0.1990 -0.3023
42735W        W85673   6.856  16.423  20.829 -0.1613  0.1572 -0.0126
42736W        W85674   7.736  16.428  17.894  0.0293 -0.2524  0.0252
42737W        W85675   7.728  18.465  20.078  0.0141 -0.3185  0.0823
42738W        W85676   9.154  16.311  16.206 -0.0878  0.1113 -0.1557
42739W        W85677   8.711  16.888  18.538 -0.0562  0.2285  0.2076
42740W        W85678   8.528  16.195  18.946  0.1547  0.5589 -0.0148
42741W        W85679   9.423  16.517  17.915 -0.1923 -0.0301  0.0462
42742W        W85680   9.577  14.431  17.901  0.1183 -0.0380 -0.1909
42743W        W85681   7.255  14.624  16.150  0.0096 -0.0849  0.1298
42744W        W85682   7.474  17.954  17.482 -0.2929  0.2729  0.0600
42745W        W85683   7.369  17.732  20.636 -0.2387  0.0704  0.1209
42746W        W85684   7.432  15.866  19.733 -0.0568 -0.2442  0.0678
42747W        W85685   7.166  17.649  18.024  0.0876  0.1996  0.1477
42748W        W85686  10.427  16.393  15.758 -0.0483  0.2011 -0.1859
42749W        W85687   9.625  16.917  16.207 -0.2376 -0.3087 -0.2376
42750W        W85688   9.045  17.979  17.690 -0.0221 -0.1554 -0.1009
42751W        W85689   7.573  16.032  17.417  0.3099 -0.2033  0.1755
42752W        W85690   6.820  19.413  16.800  0.1756 -0.1235 -0.0121
42753W        W85691   7.129  17.631  15.508  0.3660  0.1082  0.1249
42754W        W85692   7.936  17.473  17.363  0.0937  0.0888 -0.1212
42755W        W85693   7.483  17.255  18.139  0.0689  0.2073  0.3476
42756W        W85694   9.456  15.938  18.734  0.2409 -0.1853 -0.1812
42757W        W85695   8.847  15.960  17.129 -0.0743 -0.0075 -0.0833
42758W        W85696  10.334  15.469  16.364  0.0583  0.2154 -0.0153
42759W        W85697  10.120  14.785  16.652 -0.1287 -0.2679 -0.1270
42760W        W85698   7.310  17.504  20.233 -0.0532  0.1265  0.0153
42761W        W85699   9.706  14.551  18.779 -0.1227  0.0386 -0.2944
42762W        W85700   8.353  16.341  16.759 -0.0248  0.0603  0.0510
42763W        W85701   7.648  17.079  20.192  0.3924 -0.0986  0.1666
42764W        W85702  11.372  15.154  19.180 -0.2985  0.0228 -0.1903
42765W        W85703   7.100  17.821  19.725  0.0638  0.1557 -0.0593
42766W        W85704   9.610  17.277  17.080  0.0245 -0.1064 -0.0276
42767W        W85705   8.012  15.820  17.496  0.1168  0.1361  0.0521
42768W        W85706   8.357  14.021  18.462 -0.0329  0.0092 -0.0992
42769W        W85707  10.673  14.665  18.870  0.0542  0.1398  0.2301
42770W        W85708   8.228  16.815  16.501  0.2140  0.3510 -0.1917
42771W        W85709   9.271  15.812  17.389  0.0374 -0.1084  0.1797
42772W        W85710   7.949  19.148  16.932 -0.1033 -0.2456  0.3257
42773W        W85711   8.404  18.440  18.224 -0.1625  0.0166 -0.0277
42774W        W85712   7.458  17.684  19.384  0.3063 -0.0777  0.0451
42775W        W85713   5.638  15.055  17.561  0.0757  0.1048 -0.0553
42776W        W85714  10.049  14.946  17.961 -0.1146 -0.1907  0.0307
42777W        W85715   8.654  16.634  18.053  0.0306 -0.1459  0.0292
42778W        W85716  10.437  14.003  18.448 -0.1193  0.1203  0.1383
42779W        W85717   7.682  15.398  17.942  0.1257  0.0270  0.0462
42780W        W85718   9.866  15.247  16.472 -0.0386  0.0329 -0.0033
42781W        W85719   9.436  16.477  17.407 -0.0105  0.1522 -0.3479
42782W        W85720   7.620  16.687  18.320 -0.1134 -0.0169  0.1247
42783W        W85721   7.922  16.685  16.885  0.2312  0.1959  0.1965
42784W        W85722   9.741  16.084  17.266 -0.0925  0.0005 -0.0590
42785W        W85723   8.695  16.559  17.530 -0.0476  0.2415 -0.1061
42786W        W85724   8.856  18.174  19.094 -0.6116  0.0633  0.0321
42787W        W85725   7.976  15.891  18.096  0.2905 -0.1163 -0.2432
42788W        W85726   9.111  15.647  15.404  0.0218 -0.2583 -0.0450
42789W        W85727   7.026  17.028  17.854  0.0539  0.1921  0.3161
42790W        W85728   9.531  16.375  19.359 -0.0290  0.2725  0.0739
42791W        W85729   9.012  16.493  19.444  0.1241  0.1818  0.1102
42792W        W85730   7.930  16.168  17.034  0.3781 -0.0918 -0.4478
42793W        W85731  10.064  16.820  15.915 -0.0347 -0.0667 -0.0789
42794W        W85732  10.864  15.779  17.575  0.1972 -0.3374 -0.1882
42795W        W85733   7.895  18.881  16.478  0.1986 -0.0661  0.2189
42796W        W85734   8.599  15.002  18.338  0.1033 -0.2019 -0.3954
42797W        W85735   9.783  16.885  17.426  0.1028  0.1180 -0.1285
42798W        W85736   7.643  14.767  19.888 -0.2066 -0.0644  0.0121
42799W        W85737   8.738  18.701  19.127 -0.2718  0.1637 -0.0898
42800W        W85738  10.325  17.724  17.071  0.1037  0.3767 -0.1767
42801W        W85739   8.526  16.043  16.448 -0.0391  0.0822  0.0353
42802W        W85740   7.419  16.231  19.301 -0.1285  0.0590 -0.1361
42803W        W85741   6.739  17.815  16.782  0.1856 -0.2059 -0.2063
42804W        W85742   8.422  15.772  17.957 -0.0680 -0.1030  0.1733
42805W        W85743   8.890  13.654  17.948 -0.0369  0.0157 -0.1328
42806W        W85744   8.015  17.026  16.128 -0.0897  0.0579  0.2165
42807W        W85745  10.031  14.094  17.849  0.1259  0.2511  0.1771
42808W        W85746   8.644  17.900  19.921 -0.0122 -0.0123 -0.1135
42809W        W85747   7.253  18.317  21.566 -0.1608  0.0766  0.0602
42810W        W85748   6.943  16.890  15.939  0.2022  0.0889 -0.1071
42811W        W85749   7.987  17.176  18.060  0.0495 -0.2109  0.0892
42812W        W85750   8.666  17.015  16.814 -0.1304 -0.0901 -0.2393
42813W        W85751   7.553  18.029  17.985 -0.2409  0.1801  0.1878
42814W        W85752   9.561  18.499  18.263  0.3599 -0.1284 -0.0094
42815W        W85753   8.874  15.470  17.136  0.1016  0.0371 -0.3720
42816W        W85754   9.343  16.186  16.967  0.0832  0.0616 -0.0892
42817W        W85755   8.007  16.341  16.367  0.0759  0.0113  0.0893
42818W        W85756  10.287  14.502  19.779 -0.0886  0.2831 -0.0102
42819W        W85757  11.078  14.498  15.313 -0.1561  0.2970  0.2261
42820W        W85758   8.092  16.428  18.824  0.0588 -0.0732  0.0264
42821W        W85759   7.551  17.514  16.729 -0.0577 -0.4045 -0.2255
42822W        W85760   7.538  16.189  16.243 -0.2273 -0.1391 -0.1915
42823W        W85761   6.669  16.644  18.197  0.2016  0.2062 -0.0107
42824W        W85762   8.440  13.009  19.150 -0.0160 -0.0727  0.0566
42825W        W85763   6.893  15.151  20.520 -0.1792 -0.1412 -0.0824
42826W        W85764   6.788  14.882  18.728 -0.2390 -0.0994 -0.1106
42827W        W85765   7.384  17.013  16.781  0.1644 -0.2335 -0.3844
42828W        W85766  10.230  16.290  17.156 -0.2680 -0.4328 -0.1259
42829W        W85767   8.390  14.509  18.179  0.0310 -0.0489  0.1267
42830W        W85768   6.630  15.290  17.756 -0.1085 -0.0754 -0.0846
42831W        W85769   7.596  16.889  17.821 -0.1274 -0.5796  0.1919
42832W        W85770   9.931  15.821  16.407 -0.1376  0.1134  0.4095
42833W        W85771   8.621  14.502  16.369  0.1824  0.5804  0.0417
42834W        W85772   9.328  16.296  19.803  0.1864  0.0547 -0.0424
42835W        W85773   6.547  16.520  15.880  0.2042 -0.0861 -0.2941
42836W        W85774   8.046  14.488  19.186  0.0620 -0.0952  0.4540
42837W        W85775   8.470  14.812  19.222  0.0490 -0.1967 -0.1752
42838W        W85776   6.365  14.900  16.371 -0.4726 -0.0749  0.0212
42839W        W85777   8.247  15.261  17.923 -0.0693 -0.1447 -0.1679
42840W        W85778   9.333  17.289  16.251  0.0578  0.1168 -0.0831
42841W        W85779   8.975  17.922  17.001 -0.1270  0.0772  0.0305
42842W        W85780   8.391  17.249  18.817  0.1195 -0.1202 -0.1080
42843W        W85781   7.764  17.471  18.909  0.1282  0.1645  0.3247
42844W        W85782   7.356  14.301  20.633  0.0628  0.2489  0.0886
42845W        W85783   9.146  15.718  17.948 -0.0672 -0.0857 -0.0832
42846W        W85784   7.856  16.101  19.659  0.1969 -0.1567 -0.3214
42847W        W85785  10.152  17.151  17.250  0.1630 -0.0019  0.2245
42848W        W85786  11.362  15.987  15.911  0.1424  0.2045 -0.1106
42849W        W85787   8.909  16.561  17.045  0.2037 -0.1959 -0.2576
42850W        W85788   7.029  13.614  19.587  0.5650  0.1634  0.0704
42851W        W85789   8.338  18.184  19.041 -0.0326  0.0640 -0.2373
42852W        W85790   9.631  16.940  18.400  0.2651 -0.4177  0.2690
42853W        W85791   6.735  13.755  18.929 -0.1089 -0.0258  0.0524
42854W        W85792   9.539  14.793  16.520 -0.0563 -0.1927  0.1548
42855W        W85793   8.538  16.935  16.126 -0.1844 -0.0891 -0.0635
42856W        W85794   6.405  17.515  18.597  0.1230 -0.0029  0.0256
42857W        W85795   8.710  15.664  16.682 -0.0866  0.2522  0.0161
42858W        W85796   9.142  15.048  17.163  0.0849  0.1938  0.4559
42859W        W85797   7.975  17.943  17.579 -0.3162  0.0484 -0.3959
42860W        W85798   8.861  16.604  19.897 -0.1101 -0.0103  0.1659
42861W        W85799   7.023  15.135  18.365  0.2038 -0.0701  0.0178
42862W        W85800  10.831  16.549  15.438  0.2152  0.2356 -0.0626
42863W        W85801   8.820  17.331  18.253  0.1330 -0.2468  0.0960
42864W        W85802  10.028  15.303  20.276 -0.0422 -0.0334  0.3917
42865W        W85803   8.914  17.816  18.191 -0.0058  0.0055  0.2148
42866W        W85804  10.608  17.327  17.329  0.1655 -0.2800 -0.0919
42867W        W85805   6.668  14.986  21.115 -0.1767  0.0681  0.0663
42868W        W85806   8.063  16.379  18.281  0.0657  0.0253 -0.1899
42869W        W85807   7.726  17.112  17.113  0.0288 -0.2342  0.2041
42870W        W85808  10.830  14.625  17.300  0.2389  0.1092  0.2214
42871W        W85809   7.287  14.987  18.825  0.2543  0.2353  0.4593
42872W        W85810   8.567  15.040  16.098  0.0816  0.1894 -0.0878
42873W        W85811   8.077  16.947  19.059  0.0364  0.0627  0.1111
42874W        W85812   9.298  17.304  19.090  0.0132 -0.1538 -0.0709
42875W        W85813   8.116  17.584  21.578  0.2975 -0.0409  0.1536
42876W        W85814   6.598  16.533  19.944 -0.0788  0.2523  0.2248
42877W        W85815  10.336  15.322  18.216  0.2144  0.1715 -0.1452
42878W        W85816   9.071  15.194  19.150 -0.0332 -0.0092  0.0512
42879W        W85817   7.448  15.360  21.446 -0.0329 -0.1517 -0.0356
42880W        W85818  10.519  17.604  19.001  0.0218 -0.3365  0.1568
42881W        W85819   7.757  14.031  21.188  0.0455  0.1866  0.4246
42882W        W85820  10.035  16.560  21.012 -0.2651  0.1397 -0.1186
42883W        W85821   9.306  17.775  23.731  0.3562  0.0962 -0.0405
42884W        W85822  10.118  15.849  18.874  0.1883  0.2897 -0.2995
42885W        W85823   8.282  15.013  22.714 -0.1748  0.0520  0.0212
42886W        W85824   9.507  17.081  21.764 -0.1412  0.1827 -0.0442
42887W        W85825   7.687  15.590  20.158  0.2692 -0.2587  0.1378
42888W        W85826   8.313  15.389  24.220  0.2469  0.0792  0.1442
42889W        W85827   9.100  15.719  22.280  0.0578 -0.0724  0.1410
42890W        W85828   7.577  16.750  19.807  0.0888 -0.0323 -0.0704
42891W        W85829   7.590  15.181  22.742  0.1020  0.0308 -0.2858
42892W        W85830   7.298  13.934  20.951  0.0116  0.1095  0.1072
42893W        W85831   8.498  17.365  21.325 -0.2276 -0.1106 -0.2092
42894W        W85832   8.721  16.217  23.576  0.1962  0.2637  0.3443
42895W        W85833   8.970  13.531  23.753 -0.3522  0.0155 -0.3099
42896W        W85834   8.676  17.564  20.901  0.4796 -0.4089 -0.2798
42897W        W85835   8.327  15.250  21.002  0.0618 -0.1859 -0.1175
42898W        W85836   7.188  16.195  21.171 -0.4407  0.0121  0.0785
42899W        W85837   8.212  15.899  22.458 -0.3819 -0.0000  0.2190
42900W        W85838   9.074  14.811  21.724  0.0545 -0.2939 -0.2686
42901W        W85839  10.569  17.067  21.629  0.0508  0.3630 -0.0945
42902W        W85840   6.924  18.301  20.321  0.2323 -0.2167 -0.0437
42903W        W85841   8.849  16.049  21.175 -0.1486 -0.0940 -0.0470
42904W        W85842   9.852  17.061  22.664  0.1995 -0.4189  0.2908
42905W        W85843   5.997  16.588  20.675  0.2520 -0.1060 -0.2202
42906W        W85844   6.623  19.063  22.766  0.0034  0.1962  0.0246
42907W        W85845   7.521  16.156  20.160 -0.1220  0.1992  0.0515
42908W        W85846   9.613  15.639  19.881  0.0630  0.4659  0.1406
42909W        W85847   9.943  18.407  22.381 -0.0329  0.0027  0.0310
42910W        W85848   7.258  18.248  22.995  0.1504  0.0215  0.1196
42911W        W85849   7.465  17.218  20.681  0.0938  0.0364  0.0899
42912W        W85850   9.893  18.871  24.295  0.1598  0.2733 -0.1124
42913W        W85851   8.802  16.677  22.156 -0.4467 -0.0297 -0.0096
42914W        W85852   8.839  14.320  21.521  0.0477 -0.3520  0.1284
42915W        W85853   9.028  16.287  20.246 -0.2195  0.0754 -0.0267
42916W        W85854   9.659  17.167  20.723 -0.3751  0.0495  0.0350
42917W        W85855   9.345  15.894  22.730  0.0402  0.0479 -0.0603
42918W        W85856   7.983  16.117  23.278  0.1044  0.1131 -0.2561
42919W        W85857   6.834  17.423  22.843 -0.2154  0.3007 -0.1490
42920W        W85858  10.091  15.985  23.122 -0.4213  0.0716 -0.0525
42921W        W85859   6.120  17.917  20.743 -0.3045 -0.1110 -0.1485
42922W        W85860   7.850  15.130  20.169  0.1790  0.0041 -0.1925
42923W        W85861   8.348  15.951  18.438 -0.1624  0.1676 -0.1569
42924W        W85862  10.131  13.501  20.289  0.0670 -0.0959  0.2213
42925W        W85863   8.533  14.490  23.517 -0.0771  0.2163 -0.0542
42926W        W85864   8.864  18.262  21.421  0.2886 -0.1090 -0.1849
42927W        W85865   8.971  13.945  22.653  0.0164 -0.1629  0.4095
42928W        W85866   8.827  16.631  23.327 -0.1208  0.1046 -0.1280
42929W        W85867   8.901  15.494  21.872  0.1694  0.1561  0.0704
42930W        W85868   8.589  13.883  21.264 -0.1056 -0.1503 -0.0546
42931W        W85869   7.316  17.533  22.691 -0.2008 -0.0300 -0.0653
42932W        W85870   8.903  16.221  22.535  0.1256 -0.1889  0.2090
42933W        W85871   9.944  17.921  19.883 -0.1394 -0.1706 -0.4162
42934W        W85872   9.396  17.827  20.636  0.2618  0.1068 -0.0022
42935W        W85873   8.609  15.476  20.505 -0.0833 -0.1790 -0.1417
42936W        W85874   7.081  16.437  23.243  0.0846  0.1600  0.0030
42937W        W85875   7.748  17.615  23.811  0.0194 -0.1224  0.1601
42938W        W85876   5.695  16.522  22.843  0.1157 -0.0057  0.0125
42939W        W85877   7.235  16.192  20.619  0.6948 -0.1851 -0.0250
42940W        W85878  10.523  17.953  22.316  0.0369  0.0074  0.0648
42941W        W85879   7.081  17.760  23.246 -0.2527 -0.0085 -0.1511
42942W        W85880  10.368  16.748  17.987  0.0799 -0.1131  0.0248
42943W        W85881   7.411  17.071  21.158 -0.1572  0.1471 -0.0945
42944W        W85882  10.165  17.965  21.930  0.0227  0.0408  0.3194
42945W        W85883   8.191  16.826  18.487  0.1677 -0.1759 -0.0769
42946W        W85884  11.026  14.442  22.007 -0.0253 -0.1432 -0.1721
42947W        W85885   9.689  14.462  22.802  0.0272  0.2855  0.1044
42948W        W85886   7.156  15.950  21.602 -0.1123  0.2202 -0.1041
42949W        W85887   7.298  16.328  21.947 -0.0314  0.0802  0.3477
42950W        W85888  10.914  18.007  23.188  0.2382  0.0746 -0.3427
42951W        W85889  10.589  15.652  19.053 -0.1273  0.0916  0.0234
42952W        W85890   6.068  17.512  21.591  0.1656 -0.0368  0.0101
42953W        W85891   8.217  14.818  24.486  0.3526 -0.2341  0.0146
42954W        W85892   9.195  16.974  23.153 -0.4339 -0.0881 -0.2693
42955W        W85893   6.947  18.515  21.038 -0.0877  0.4128 -0.0357
42956W        W85894   7.942  16.828  23.077  0.0394 -0.3037 -0.1501
42957W        W85895   6.060  16.985  20.984  0.0603  0.1434  0.0697
42958W        W85896   8.560  15.120  21.894  0.1419 -0.2832  0.0911
42959W        W85897   7.334  17.824  22.253  0.1054 -0.2891 -0.0278
42960W        W85898   8.881  14.387  19.554  0.2557  0.0416 -0.0670
42961W        W85899   6.891  15.911  24.156  0.0743 -0.4455  0.0197
42962W        W85900  10.467  15.789  20.899 -0.1071 -0.1389 -0.0699
42963W        W85901   7.895  17.213  21.058 -0.1749 -0.1610  0.1027
42964W        W85902  10.348  16.714  17.446 -0.0886 -0.0156  0.1324
42965W        W85903  10.425  13.800  20.923  0.1286  0.0661  0.1947
42966W        W85904   9.473  15.673  21.306 -0.0664  0.4995 -0.2254
42967W        W85905   7.640  15.893  23.519  0.3010  0.4077  0.1543
42968W        W85906   7.536  14.092  22.107  0.1268  0.2332  0.0313
42969W        W85907   6.229  13.984  22.183  0.1323 -0.1078 -0.1626
42970W        W85908   7.451  17.381  21.562 -0.2660 -0.1058  0.0869
42971W        W85909   8.714  15.823  22.693 -0.1103 -0.0486 -0.1688
42972W        W85910   7.592  14.841  20.436  0.0044  0.1551  0.0212
42973W        W85911   7.325  15.020  21.821 -0.1786  0.3006  0.4641
42974W        W85912   8.135  16.164  21.396  0.0523  0.2535  0.0592
42975W        W85913   6.365  17.702  19.687  0.0656 -0.3746  0.1280
42976W        W85914   9.652  15.978  22.289 -0.0774  0.3248  0.0754
42977W        W85915   8.087  17.912  19.799 -0.0463  0.0933 -0.0354
42978W        W85916   8.948  18.184  23.626  0.0002 -0.4805 -0.0153
42979W        W85917   9.637  18.423  20.885  0.2039  0.0306  0.0101
42980W        W85918   8.141  14.861  23.534  0.1594 -0.2597 -0.0894
42981W        W85919   8.748  14.424  19.046 -0.2613 -0.1949  0.3578
42982W        W85920   8.462  16.444  21.740 -0.1294  0.1179 -0.1717
42983W        W85921   9.052  15.406  21.242 -0.0761 -0.0855 -0.0162
42984W        W85922   7.959  15.178  21.433 -0.2395  0.2815 -0.1517
42985W        W85923   9.985  17.018  21.746  0.2215  0.2575 -0.1039
42986W        W85924   8.455  16.730  18.944 -0.1155  0.0758 -0.0034
42987W        W85925   8.433  17.353  24.820  0.1545 -0.3010  0.1245
42988W        W85926   9.543  15.154  21.070  0.1711  0.2805 -0.0065
42989W        W85927   9.336  15.552  23.604 -0.1846  0.0145 -0.0906
42990W        W85928   9.740  14.039  18.939 -0.2301 -0.3627  0.0585
42991W        W85929   6.638  14.790  20.035 -0.0994  0.0012 -0.1960
42992W        W85930   9.132  17.851  21.424 -0.0780 -0.1802 -0.1209
42993W        W85931   6.343  19.647  20.906 -0.0208 -0.1220 -0.1078
42994W        W85932   7.024  14.576  21.229 -0.1020 -0.3806  0.0390
42995W        W85933   9.052  15.646  20.766  0.2852  0.0144 -0.0891
42996W        W85934   9.865  14.852  22.541 -0.1422 -0.0607  0.4140
42997W        W85935   6.456  17.225  24.217 -0.1025 -0.0828  0.1093
42998W        W85936   9.519  15.470  22.355  0.2078  0.0765  0.1500
42999W        W85937   8.036  16.031  19.184 -0.0248 -0.1121  0.1907
43000W        W85938   5.990  16.682  21.890 -0.0663 -0.4065  0.3936
43001W        W85939   9.551  14.658  21.014  0.1123 -0.0526  0.0660
43002W        W85940  10.452  13.971  19.606 -0.0123  0.0402 -0.3819
43003W        W85941   9.169  16.061  23.376  0.2238 -0.2459 -0.1239
43004W        W85942   9.780  16.480  20.154  0.0257  0.1537  0.0362
43005W        W85943   9.644  15.337  18.234 -0.0845  0.0537 -0.0228
43006W        W85944   8.176  15.293  19.712 -0.1063  0.1431  0.0088
43007W        W85945   7.336  16.874  23.916 -0.0074 -0.1022  0.0068
43008W        W85946   7.416  15.274  20.509 -0.0780  0.0843 -0.1048
43009W        W85947   9.371  17.347  23.443 -0.2730  0.2277  0.0957
43010W        W85948   8.197  15.596  20.211 -0.0594  0.0134  0.1152
43011W        W85949   8.335  16.860  20.748 -0.1637  0.1413 -0.0692
43012W        W85950   6.329  17.824  21.335  0.2099 -0.0012 -0.0745
43013W        W85951   9.285  17.466  21.943  0.1835 -0.1002 -0.2265
43014W        W85952   8.974  17.969  20.962  0.2730  0.2562  0.0285
43015W        W85953   8.302  13.757  23.691  0.2021 -0.0693  0.0796
43016W        W85954   6.449  16.649  20.448 -0.2393  0.1352 -0.1169
43017W        W85955   7.943  14.818  21.114  0.2741 -0.0170  0.1675
43018W        W85956   6.787  20.158  21.745  0.0790 -0.0543  0.0491
43019W        W85957   9.618  14.809  21.464  0.4141 -0.0134  0.4270
43020W        W85958  10.393  15.402  21.376 -0.0233 -0.1815 -0.1577
43021W        W85959   9.167  15.200  24.476  0.1493 -0.0591 -0.1808
43022W        W85960   9.853  15.226  23.667  0.2652 -0.0138 -0.2011
43023W        W85961   9.802  15.690  19.283 -0.0772 -0.1265 -0.0973
43024W        W85962   8.175  17.627  21.054 -0.0490 -0.0511  0.0761
43025W        W85963   6.980  16.792  19.803 -0.0948 -0.0248  0.6254
43026W        W85964   9.103  15.404  22.731  0.1225 -0.0058  0.1064
43027W        W85965   7.708  17.108  23.678  0.0928 -0.2201 -0.0974
43028W        W85966   6.112  16.411  23.589 -0.3062 -0.1196  0.0669
43029W        W85967  10.110  18.730  23.260  0.0050 -0.0308  0.1573
43030W        W85968   9.005  15.647  20.273  0.2321 -0.0668  0.2047
43031W        W85969   9.538  15.380  25.448  0.2093 -0.0534 -0.2114
43032W        W85970   8.798  15.729  18.877  0.2511  0.2299  0.1973
43033W        W85971   8.907  16.172  21.873  0.0509 -0.1943  0.0015
43034W        W85972   7.969  16.575  20.112  0.0485 -0.1853 -0.0024
43035W        W85973   7.961  14.738  22.990  0.2713 -0.2018  0.0594
43036W        W85974   9.331  17.901  22.174 -0.1068 -0.3320  0.0543
43037W        W85975   6.962  16.444  20.312  0.2724  0.0351 -0.0140
43038W        W85976  10.271  17.124  22.162  0.3021  0.0787  0.1254
43039W        W85977   7.477  16.820  21.909  0.0689 -0.2621 -0.1808
43040W        W85978   9.281  14.139  21.737  0.2250  0.1970 -0.1036
43041W        W85979   7.832  18.650  22.478  0.2831 -0.1983 -0.2731
43042W        W85980   7.848  15.595  19.475 -0.0285 -0.2048 -0.0641
43043W        W85981   7.446  16.599  20.357  0.2024  0.0312  0.1323
43044W        W85982   9.938  14.747  20.129 -0.2379  0.0921  0.3948
43045W        W85983   8.826  15.654  19.367  0.3393 -0.1096  0.1249
43046W        W85984   8.194  14.366  23.179  0.0578 -0.2006 -0.0392
43047W        W85985   9.958  14.515  21.837  0.1087 -0.3509 -0.5462
43048W        W85986   6.675  18.004  21.842 -0.1006  0.0634 -0.0929
43049W        W85987   8.097  17.117  22.294 -0.2706  0.0343 -0.0677
43050W        W85988   9.274  14.201  19.775 -0.0289  0.4207 -0.0829
43051W        W85989  10.319  16.629  21.944  0.0095 -0.0088  0.0655
43052W        W85990   8.481  14.795  23.129 -0.2963  0.2242 -0.0900
43053W        W85991   7.145  15.660  20.688  0.0388  0.0218 -0.0088
43054W        W85992  10.094  15.360  22.389 -0.0185 -0.1921 -0.0760
43055W        W85993   8.970  14.807  21.186  0.0765 -0.0615 -0.0880
43056W        W85994   8.557  15.967  21.625 -0.1572  0.0805 -0.0093
43057W        W85995   8.478  16.284  22.245  0.1636  0.0277 -0.0462
43058W        W85996   7.981  17.376  20.621  0.2525 -0.1978 -0.0700
43059W        W85997   8.008  18.437  22.034  0.3749 -0.0365  0.1459
43060W        W85998   8.049  15.995  24.843 -0.0608  0.0826  0.1637
43061W        W85999  10.731  16.406  22.297  0.2816 -0.1060  0.0684
43062W        W86000   9.582  14.160  21.274  0.0625  0.0150  0.2475
43063W        W86001  10.650  16.208  21.752  0.0905 -0.0279 -0.1984
43064W        W86002   8.386  16.373  20.551 -0.0230  0.0006  0.2188
43065W        W86003   8.988  17.344  21.490 -0.0232 -0.0577  0.3465
43066W        W86004   9.345  16.628  22.617  0.1141 -0.2455 -0.0815
43067W        W86005   8.864  17.671  23.486  0.0492 -0.0315 -0.0524
43068W        W86006   8.517  14.215  22.245 -0.1213 -0.0134  0.0036
43069W        W86007  11.164  17.277  20.387 -0.0612 -0.0046  0.0654
43070W        W86008   8.524  15.356  23.452 -0.1265 -0.0974 -0.0685
43071W        W86009   7.876  16.852  20.631  0.0754 -0.2226  0.2779
43072W        W86010   4.963  16.697  22.828  0.0399  0.1091  0.0133
43073W        W86011   8.111  17.943  22.758 -0.1446 -0.1039  0.2180
43074W        W86012   7.442  14.595  22.763 -0.1105 -0.0163 -0.0023
43075W        W86013   7.473  16.265  22.518 -0.1848 -0.2340 -0.0663
43076W        W86014   7.738  16.141  21.068 -0.0256 -0.2834  0.1613
43077W        W86015   7.449  19.057  22.259 -0.0289  0.0358  0.0013
43078W        W86016   9.531  15.764  20.821  0.0286 -0.1680 -0.0916
43079W        W86017   7.890  16.363  20.600 -0.7094  0.2325  0.1696
43080W        W86018   8.349  14.254  21.655 -0.1199 -0.1222 -0.0931
43081W        W86019   9.080  15.144  22.235  0.3460  0.0100  0.1701
43082W        W86020   8.537  16.038  19.408  0.1915  0.4054  0.5020
43083W        W86021   9.843  13.827  23.213 -0.0590 -0.4728 -0.0573
43084W        W86022   8.609  14.719  22.330  0.2125 -0.0158  0.1969
43085W        W86023   8.808  16.847  21.530  0.1438 -0.1351 -0.3258
43086W        W86024   7.092  15.894  22.162  0.0147 -0.0777  0.1634
43087W        W86025   9.807  16.872  24.187 -0.1347  0.4314  0.2608
43088W        W86026   6.998  17.214  24.717 -0.1533 -0.0024  0.1148
43089W        W86027   8.004  15.662  21.061  0.1075  0.2440 -0.1316
43090W        W86028   6.402  16.060  21.986 -0.1199  0.1778 -0.0684
43091W        W86029   9.269  16.359  22.151  0.0933 -0.0439  0.1582
43092W        W86030   9.247  16.614  21.759  0.1726  0.0822 -0.4679
43093W        W86031   8.238  16.441  20.992  0.0101  0.0148 -0.0284
43094W        W86032   9.766  14.335  19.832 -0.0459  0.0405  0.0517
43095W        W86033   8.533  15.390  22.910 -0.3447 -0.0390 -0.0343
43096W        W86034   9.865  17.576  21.049  0.2125 -0.1207  0.1957
43097W        W86035   8.263  15.792  19.729  0.1913  0.1178  0.3032
43098W        W86036   6.859  16.306  21.702 -0.0688  0.0549 -0.0584
43099W        W86037   6.802  13.727  23.115 -0.1538  0.4152  0.0158
43100W        W86038   9.463  16.098  20.289 -0.2787  0.2985 -0.1781
43101W        W86039   7.500  14.555  21.026 -0.2121 -0.0549  0.1666
43102W        W86040   8.580  15.855  23.988 -0.0074 -0.0282  0.4270
43103W        W86041   9.103  14.762  24.056 -0.0785  0.2337 -0.0336
43104W        W86042   8.891  16.046  24.379 -0.0662  0.2570 -0.2233
43105W        W86043   8.125  15.757  23.856 -0.1191  0.1734 -0.2561
43106W        W86044   8.595  17.299  23.741  0.1507  0.0427  0.0932
43107W        W86045   9.099  14.824  19.565 -0.4306 -0.2282  0.0655
43108W        W86046   9.614  15.022  22.041 -0.1137  0.2347  0.1625
43109W        W86047   8.624  17.049  19.929 -0.1489 -0.1939 -0.1034
43110W        W86048   9.614  14.160  18.313 -0.0327  0.0242 -0.1899
43111W        W86049   8.034  14.534  20.681 -0.0528 -0.4948 -0.1629
43112W        W86050  10.167  16.468  23.384  0.1970 -0.1214 -0.2107
43113W        W86051   6.993  15.828  19.100  0.2466 -0.0203  0.0686
43114W        W86052   9.374  15.332  23.199 -0.0815  0.1909  0.2320
43115W        W86053   8.048  16.922  19.623  0.5850 -0.1769 -0.0280
43116W        W86054   8.794  17.024  20.935  0.1210 -0.2339  0.2239
43117W        W86055   9.465  14.729  19.892  0.4177  0.2779  0.1431
43118W        W86056   7.544  15.350  22.279 -0.1057 -0.0739 -0.1539
43119W        W86057   7.298  18.591  23.451  0.0274  0.1594  0.1035
43120W        W86058   7.614  15.161  20.960 -0.2056  0.0776  0.1456
43121W        W86059   7.701  15.927  20.570  0.4068  0.0533 -0.0183
43122W        W86060   9.713  16.389  21.939  0.2864  0.0990 -0.2454
43123W        W86061   9.091  17.422  23.993 -0.0854 -0.3279  0.1585
43124W        W86062   8.684  13.770  20.380  0.1609 -0.1339  0.0023
43125W        W86063   9.696  16.228  22.925  0.0137 -0.0113  0.0793
43126W        W86064   6.837  16.921  20.656  0.0832 -0.1005 -0.0224
43127W        W86065   8.012  16.073  20.221  0.3781  0.0638 -0.6919
43128W        W86066   8.200  18.123  21.228 -0.0061  0.1273 -0.1113
43129W        W86067   6.179  17.089  23.810  0.2325 -0.1183  0.0638
43130W        W86068   8.692  17.601  18.645 -0.0199  0.0733 -0.2216
43131W        W86069   9.166  13.870  21.180  0.2063  0.0156 -0.4838
43132W        W86070   8.739  15.043  20.691 -0.1271  0.0189 -0.2718
43133W        W86071   8.605  17.148  23.228  0.0860  0.3719 -0.2581
43134W        W86072  10.110  16.132  22.014  0.0621 -0.0777 -0.0612
43135W        W86073   8.873  16.731  22.845 -0.0956  0.0953 -0.0022
43136W        W86074   8.167  16.000  21.903 -0.0329 -0.2335 -0.0559
43137W        W86075   9.294  16.941  21.303  0.3060 -0.5786  0.0018
43138W        W86076   9.420  16.559  20.503  0.0434 -0.0192  0.0662
43139W        W86077   6.373  17.331  21.178 -0.0284  0.1122 -0.5193
43140W        W86078   6.859  16.753  23.967 -0.0456 -0.3535  0.4444
43141W        W86079   9.124  16.131  23.905  0.2282  0.0283  0.0621
43142W        W86080   7.939  16.310  22.227 -0.1386  0.3317  0.0899
43143W        W86081   8.421  14.344  19.435  0.1354 -0.0713  0.2606
43144W        W86082   8.604  16.812  19.468 -0.1475  0.3365  0.1462
43145W        W86083   7.271  17.367  23.683  0.0462 -0.3845 -0.0151
43146W        W86084   8.145  16.663  23.516  0.0993 -0.2917 -0.3115
43147W        W86085   8.024  18.476  20.946  0.3061  0.0645 -0.1685
43148W        W86086   9.180  15.100  20.093  0.1291  0.2793  0.0284
43149W        W86087   9.409  16.817  19.788  0.0688  0.0016  0.3077
43150W        W86088   9.135  18.222  21.883  0.0785  0.1143  0.3227
43151W        W86089   8.252  14.275  21.191  0.0647 -0.1172  0.3456
43152W        W86090   8.306  17.084  22.813  0.0543 -0.0962  0.2967
43153W        W86091   5.589  18.528  20.354 -0.1961  0.1858 -0.0721
43154W        W86092   8.186  17.084  20.192  0.0954  0.0644  0.1497
43155W        W86093   7.349  18.115  20.169  0.1625  0.1867  0.1683
43156W        W86094   9.577  17.496  22.478  0.0262 -0.0858 -0.0197
43157W        W86095  10.860  13.884  20.633  0.1543 -0.2240  0.0895
43158W        W86096   9.982  15.660  20.566  0.1068 -0.0673 -0.1254
43159W        W86097   9.559  14.687  20.416  0.0546  0.2934 -0.2521
43160W        W86098   9.994  18.808  22.716  0.0160  0.0125  0.0859
43161W        W86099   8.168  15.731  23.042  0.2776 -0.0522 -0.1658
43162W        W86100   7.571  15.278  19.760  0.0095 -0.1351  0.0605
43163W        W86101   8.436  16.819  23.890 -0.1037  0.1769 -0.1251
43164W        W86102  10.474  14.355  22.265 -0.0030 -0.2097  0.1270
43165W        W86103   6.823  18.220  23.244  0.0390  0.1340  0.0709
43166W        W86104   8.903  16.529  20.654 -0.1185 -0.1047 -0.1104
43167W        W86105   7.115  15.223  21.010  0.0183  0.1040  0.1010
43168W        W86106   7.865  16.997  21.557 -0.0953  0.1031  0.2556
43169W        W86107   9.947  14.007  22.664  0.1085  0.0337  0.1857
43170W        W86108   7.932  18.313  19.584  0.0735  0.1062 -0.0388
43171W        W86109   8.987  17.517  23.001 -0.1592 -0.0035  0.1197
43172W        W86110   7.180  17.800  21.770 -0.1883 -0.0521 -0.1942
43173W        W86111   7.480  17.182  22.290  0.1303 -0.1125  0.0198
43174W        W86112   7.892  17.868  21.990 -0.0380  0.2408 -0.2911
43175W        W86113   6.733  14.214  19.231  0.0921 -0.3282  0.0923
43176W        W86114   9.849  15.807  21.568 -0.1433  0.0255 -0.2851
43177W        W86115   8.800  16.134  23.081 -0.0555 -0.1023 -0.0759
43178W        W86116   9.951  14.488  21.235  0.2074  0.1605 -0.2131
43179W        W86117   7.004  16.719  21.895  0.0845  0.3581 -0.3987
43180W        W86118   8.204  13.648  20.466  0.2214 -0.1369  0.1435
43181W        W86119   8.342  17.535  22.038  0.3283  0.3461 -0.5136
43182W        W86120   7.528  17.291  24.156 -0.3138 -0.0855  0.0538
43183W        W86121   7.749  15.833  21.542 -0.0224 -0.1982 -0.2570
43184W        W86122   9.784  18.344  23.340  0.0025  0.0043 -0.2630
43185W        W86123   9.963  15.718  18.366 -0.0360 -0.1349  0.0854
43186W        W86124   8.838  19.166  21.564 -0.0637 -0.0876 -0.0756
43187W        W86125   7.856  14.470  21.542 -0.0596 -0.1388 -0.1032
43188W        W86126   9.798  14.196  20.362  0.1093  0.0507  0.3347
43189W        W86127   7.194  15.722  20.155 -0.4119 -0.0192 -0.4186
43190W        W86128   8.000  16.722  21.951 -0.0014 -0.0799 -0.4606
43191W        W86129   8.752  17.584  22.265 -0.0059  0.0605  0.0485
43192W        W86130   6.090  14.708  21.823  0.0087 -0.1505  0.0143
43193W        W86131   9.219  14.626  19.071 -0.0799 -0.1223  0.0864
43194W        W86132   9.838  15.737  22.655  0.0790 -0.1680 -0.3096
43195W        W86133   7.091  19.535  19.658  0.0961  0.1741  0.3141
43196W        W86134  10.090  17.171  20.270  0.1147 -0.2307  0.1378
43197W        W86135   9.124  16.857  20.242 -0.0139  0.2150 -0.0266
43198W        W86136   8.377  15.868  23.455  0.0259  0.0172 -0.0536
43199W        W86137   8.384  17.000  21.809 -0.0774 -0.1092 -0.2019
43200W        W86138  10.107  16.285  21.543  0.0268  0.2219 -0.1494
43201W        W86139   9.021  14.566  20.046 -0.0967  0.1076 -0.2050
43202W        W86140   6.533  16.880  21.945  0.1986  0.4525 -0.1150
43203W        W86141   7.471  18.525  21.116  0.1153 -0.0531 -0.3109
43204W        W86142   9.730  15.247  22.748 -0.0602 -0.1014 -0.0464
43205W        W86143   9.415  14.181  22.382  0.1748 -0.2073  0.0358
43206W        W86144   7.030  18.915  19.836  0.1697  0.1260  0.2073
43207W        W86145   9.240  13.711  24.401 -0.0422 -0.0768  0.1419
43208W        W86146   8.709  17.714  21.746 -0.0778  0.1416 -0.0143
43209W        W86147   6.404  17.570  23.866  0.1045 -0.0242  0.3045
43210W        W86148   6.547  16.966  21.438  0.0044 -0.0411  0.0399
43211W        W86149   7.951  16.362  22.838 -0.2416  0.2497 -0.0716
43212W        W86150   8.326  16.878  21.306  0.0797 -0.1255 -0.0173
43213W        W86151   7.664  17.871  21.522 -0.2159 -0.1782 -0.0611
43214W        W86152   9.588  16.974  20.238 -0.0903  0.1223 -0.0992
43215W        W86153   8.643  15.637  21.039  0.2782  0.1803 -0.0120
43216W        W86154   9.528  16.676  20.962 -0.0828 -0.0294  0.0986
43217W        W86155   8.606  15.132  21.378  0.0621  0.0172  0.1229
43218W        W86156   9.552  14.274  20.757 -0.1600  0.1126  0.0290
43219W        W86157   9.085  14.674  20.569  0.0470 -0.0499 -0.2658
43220W        W86158   6.402  16.207  23.277  0.0688 -0.1391 -0.0971
43221W        W86159   8.026  17.902  18.689 -0.1415 -0.2354  0.0003
43222W        W86160   7.624  17.618  18.421 -0.1785 -0.0270 -0.3652
43223W        W86161   6.457  18.310  21.091 -0.2148  0.1096  0.2162
43224W        W86162   8.715  14.968  24.347 -0.0038  0.1630  0.1742
43225W        W86163   8.404  16.340  23.929  0.1179  0.2169  0.1680
43226W        W86164   6.573  17.268  22.390 -0.0173 -0.1474  0.1118
43227W        W86165   8.639  15.109  19.609  0.1904  0.0291  0.0607
43228W        W86166   8.479  16.694  20.223  0.0187  0.1270 -0.1324
43229W        W86167   8.664  15.399  22.423 -0.1859  0.1939  0.0755
43230W        W86168   6.968  14.596  22.021 -0.1741  0.2869  0.1390
43231W        W86169   8.759  17.107  20.423 -0.0641  0.1384  0.0055
43232W        W86170  10.104  17.541  19.570 -0.1736 -0.1406  0.2765
43233W        W86171   9.758  15.325  21.506  0.1834  0.1261 -0.2869
43234W        W86172  10.133  17.994  23.274 -0.0857 -0.2048  0.0521
43235W        W86173   5.278  19.770  19.780  0.0678  0.1366 -0.0906
43236W        W86174   9.619  16.105  24.032  0.0281 -0.1936  0.1005
43237W        W86175   9.037  14.510  23.649  0.2945 -0.0169 -0.2721
43238W        W86176   6.093  14.830  20.511  0.0005 -0.4716 -0.1724
43239W        W86177   9.256  16.199  20.772  0.2986 -0.2469 -0.3021
43240W        W86178   8.908  18.748  20.525 -0.1326 -0.0026 -0.0430
43241W        W86179   8.809  17.099  19.002 -0.0147  0.3133 -0.1904
43242W        W86180   7.443  16.689  22.866  0.1100 -0.2922  0.2330
43243W        W86181   8.940  18.851  22.031  0.1796 -0.1513  0.1014
43244W        W86182   7.445  15.009  23.276  0.1111  0.1755 -0.0640
43245W        W86183   9.627  14.983  19.058  0.1809  0.2647  0.0061
43246W        W86184   9.798  16.880  22.184  0.0060  0.2208 -0.2589
43247W        W86185   9.668  17.178  19.429  0.0023 -0.3166 -0.0790
43248W        W86186   9.309  15.098  20.596 -0.0713  0.1203 -0.1080
43249W        W86187   9.337  16.150  21.598  0.3060 -0.1420  0.2188
43250W        W86188   7.883  14.013  23.346  0.0622 -0.0174 -0.0975
43251W        W86189   7.265  16.690  22.340  0.0537  0.0761 -0.0569
43252W        W86190   9.176  16.429  21.222 -0.0199 -0.0710  0.1923
43253W        W86191   6.401  13.867  21.530  0.0387 -0.1408 -0.1695
43254W        W86192   8.946  14.369  22.056  0.0061 -0.2920 -0.1454
43255W        W86193   9.430  18.276  21.519  0.1499 -0.0993  0.0425
43256W        W86194   8.257  14.804  21.537 -0.1304 -0.0178  0.0174
43257W        W86195   8.776  16.001  20.591  0.2005  0.1668 -0.1898
43258W        W86196   7.973  17.978  23.268  0.0231 -0.4257  0.1092
43259W        W86197   6.424  16.424  21.599 -0.1615  0.0073 -0.0372
43260W        W86198   9.249  16.360  24.533 -0.5585  0.1523 -0.2385
43261W        W86199   8.247  16.658  22.558  0.1457  0.0631 -0.1949
43262W        W86200   9.214  16.980  18.741 -0.0254  0.0828  0.1183
43263W        W86201   8.777  19.380  22.925  0.0839 -0.0601 -0.0197
43264W        W86202   9.452  17.039  23.835  0.0404  0.0113  0.1111
43265W        W86203   8.348  18.024  21.727  0.1053  0.6127  0.1537
43266W        W86204   9.785  17.420  22.048 -0.0444 -0.1429 -0.0947
43267W        W86205   7.339  14.815  22.310  0.0608  0.0231 -0.0113
43268W        W86206   8.650  15.841  22.069  0.3453  0.0579  0.0182
43269W        W86207   7.748  16.350  21.677  0.1638  0.4024  0.3311
43270W        W86208   8.935  14.162  23.161 -0.2244 -0.0433 -0.0925
43271W        W86209   7.832  14.895  21.809 -0.0572  0.0523  0.1410
43272W        W86210  10.483  14.371  21.746 -0.0707 -0.1138 -0.0662
43273W        W86211   7.744  18.480  22.986 -0.0327  0.0741 -0.1103
43274W        W86212   9.032  15.711  23.090 -0.0371 -0.1124  0.2354
43275W        W86213   9.871  15.589  26.776 -0.1466  0.1138  0.5412
43276W        W86214   8.321  15.395  24.783 -0.0742 -0.2750 -0.3150
43277W        W86215  11.113  16.199  22.995  0.1978 -0.2403  0.0358
43278W        W86216   9.527  15.935  24.648  0.0668  0.0471 -0.1879
43279W        W86217   7.992  15.567  26.894  0.0558 -0.0368  0.0348
43280W        W86218  10.458  18.220  24.408  0.1859 -0.0480 -0.2598
43281W        W86219   8.846  15.191  26.924 -0.0579  0.0096  0.0913
43282W        W86220   9.361  17.243  25.957 -0.0915 -0.2524 -0.1558
43283W        W86221   8.865  18.181  24.708  0.2531  0.0479  0.2201
43284W        W86222   8.453  17.588  23.075  0.0990 -0.1744  0.0292
43285W        W86223  10.132  16.616  26.852 -0.1684  0.3311 -0.0078
43286W        W86224  10.511  17.995  26.660 -0.2471  0.5744  0.0346
43287W        W86225   9.648  15.434  24.925  0.2483 -0.1710  0.0661
43288W        W86226   6.284  15.083  25.501  0.3609 -0.1445 -0.0001
43289W        W86227   9.535  15.858  25.803  0.3448 -0.2428 -0.1789
43290W        W86228   8.473  16.510  24.989 -0.1964  0.1080 -0.0565
43291W        W86229   8.530  16.005  24.852 -0.4534 -0.2388 -0.1575
43292W        W86230   8.186  16.399  24.481 -0.0694 -0.2919  0.0401
43293W        W86231   8.597  17.862  24.918 -0.0804  0.0910  0.1933
43294W        W86232   9.058  14.635  27.841 -0.0120 -0.4033  0.0531
43295W        W86233  10.380  15.033  27.723 -0.3571 -0.0848  0.2179
43296W        W86234   8.352  18.099  25.369  0.2700  0.1419 -0.1288
43297W        W86235   5.469  14.870  23.555 -0.1205 -0.1356 -0.0710
43298W        W86236   7.605  16.117  24.670  0.1220 -0.0212 -0.1374
43299W        W86237   8.338  15.008  27.078  0.1589  0.1671  0.0268
43300W        W86238  10.243  15.852  27.024 -0.0483  0.0521 -0.1161
43301W        W86239  11.244  16.731  24.721 -0.2415  0.1362 -0.0833
43302W        W86240   9.313  16.051  27.456  0.1489  0.4340  0.0244
43303W        W86241  10.120  16.808  25.536 -0.3552 -0.2755  0.2106
43304W        W86242  10.824  14.890  28.018 -0.0254  0.2107  0.0911
43305W        W86243   8.443  16.735  25.709  0.1115  0.1854  0.1279
43306W        W86244   6.206  16.580  27.939 -0.1624  0.0067  0.1788
43307W        W86245   8.582  16.898  25.252  0.0487 -0.0816  0.0514
43308W        W86246  11.783  15.926  25.301  0.2550  0.1051 -0.0400
43309W        W86247  10.167  16.791  26.360 -0.0634  0.0438  0.1061
43310W        W86248   7.272  19.142  27.466 -0.3306 -0.0023  0.0262
43311W        W86249   8.627  17.539  24.370  0.3588  0.1576  0.1525
43312W        W86250   9.026  16.793  25.721  0.0915 -0.1333 -0.0288
43313W        W86251   9.655  17.819  27.238  0.0981 -0.0285  0.0455
43314W        W86252  12.151  15.526  26.662  0.0462 -0.2859  0.0205
43315W        W86253   9.987  15.761  26.278 -0.0982  0.2412 -0.2722
43316W        W86254   7.625  17.524  23.299  0.2791 -0.0319  0.0332
43317W        W86255   9.740  16.498  26.446  0.6977  0.0783  0.2130
43318W        W86256   9.644  16.498  27.002 -0.2103 -0.2911  0.0758
43319W        W86257   8.304  16.670  26.711  0.0230 -0.4588 -0.0651
43320W        W86258  11.851  15.494  25.575  0.0555 -0.1222  0.0611
43321W        W86259   6.732  17.865  24.110 -0.0049  0.1579  0.0464
43322W        W86260  10.251  16.706  22.473  0.2219  0.0256  0.0438
43323W        W86261   9.390  14.801  25.345  0.2435 -0.2376  0.2154
43324W        W86262  11.726  14.852  25.598 -0.1417 -0.0107  0.3437
43325W        W86263   9.695  14.594  26.179 -0.2440  0.0212 -0.0978
43326W        W86264   9.748  16.223  25.982  0.2365  0.1754 -0.3441
43327W        W86265   8.301  16.313  25.402 -0.0130  0.0844 -0.1452
43328W        W86266  10.466  16.233  26.847 -0.0252 -0.1692 -0.1410
43329W        W86267   9.460  16.226  25.036 -0.0052  0.0987  0.0259
43330W        W86268  10.438  15.465  26.162  0.1031  0.3087 -0.1295
43331W        W86269   9.302  16.229  26.784  0.0470  0.2349  0.1051
43332W        W86270  10.099  16.488  23.867 -0.0958  0.2164  0.0699
43333W        W86271   8.885  17.108  21.969  0.0195 -0.4984  0.0067
43334W        W86272  11.399  17.142  24.497 -0.1391 -0.0319  0.2769
43335W        W86273   9.480  19.317  23.852 -0.1038  0.0354  0.0467
43336W        W86274   7.682  16.051  24.054  0.2761  0.2494 -0.1825
43337W        W86275   8.373  17.342  26.936  0.3126 -0.3429  0.0956
43338W        W86276   7.536  15.956  27.393 -0.0957  0.3977  0.0706
43339W        W86277   7.473  14.205  24.326  0.1984  0.0057 -0.2478
43340W        W86278  12.180  17.563  27.149 -0.3143 -0.0143 -0.1263
43341W        W86279   8.886  17.326  27.196 -0.4991  0.1558 -0.2151
43342W        W86280   9.407  15.168  23.994  0.0073  0.2938 -0.1857
43343W        W86281  10.873  17.046  26.422 -0.3502 -0.1396  0.2951
43344W        W86282   9.092  16.891  26.242 -0.2346 -0.0291 -0.1754
43345W        W86283  10.244  16.930  23.662 -0.0475 -0.0902  0.1905
43346W        W86284  12.134  15.138  25.149 -0.1461  0.2004 -0.0411
43347W        W86285   9.381  13.765  26.142  0.0026 -0.1660 -0.0313
43348W        W86286   7.967  16.692  24.072 -0.2337 -0.1470 -0.0791
43349W        W86287   8.120  17.252  23.399  0.1922 -0.1301 -0.0756
43350W        W86288  10.764  16.634  26.058 -0.2761  0.1315  0.0683
43351W        W86289   9.416  14.902  22.889 -0.0968  0.1550 -0.0212
43352W        W86290  10.242  16.228  26.359  0.0324  0.1242  0.1196
43353W        W86291   8.188  15.857  25.693  0.0503  0.3145  0.2584
43354W        W86292  10.590  16.816  25.527  0.3918 -0.0328  0.1900
43355W        W86293   7.988  18.908  23.169  0.0247  0.0702  0.1946
43356W        W86294   9.623  15.022  25.882 -0.1727 -0.2503 -0.0774
43357W        W86295   7.282  17.041  25.480  0.2550 -0.0521  0.0578
43358W        W86296   7.109  15.451  26.688  0.0757  0.0755 -0.0608
43359W        W86297   8.793  16.275  26.766 -0.0640  0.0507 -0.1177
43360W        W86298  10.063  15.392  25.278 -0.0162  0.0012  0.0525
43361W        W86299   8.427  15.222  27.581 -0.3212  0.0127  0.2419
43362W        W86300  11.811  14.716  23.656 -0.3548 -0.1615 -0.1227
43363W        W86301   8.743  17.548  25.226 -0.2655 -0.0715  0.0131
43364W        W86302   9.490  18.060  24.124  0.0613  0.0907 -0.0308
43365W        W86303   9.744  17.696  23.366 -0.2930  0.4242 -0.1364
43366W        W86304   9.863  17.223  23.530 -0.3813  0.1115  0.2405
43367W        W86305   5.253  15.744  25.717 -0.2278 -0.2854  0.2093
43368W        W86306   8.100  14.808  26.562  0.6120  0.2509  0.1335
43369W        W86307   8.429  14.767  28.486 -0.2138  0.1498  0.1987
43370W        W86308   7.895  16.502  26.387 -0.0101  0.1337 -0.1579
43371W        W86309  10.559  16.952  28.101  0.1736  0.2845 -0.1320
43372W        W86310   7.124  14.529  24.671 -0.0592 -0.3485  0.0979
43373W        W86311  10.507  17.084  25.941 -0.0440  0.0327  0.0345
43374W        W86312   9.013  15.678  26.980  0.1115 -0.1861 -0.2255
43375W        W86313   7.118  16.708  24.419  0.0342 -0.1479 -0.0987
43376W        W86314  12.134  14.147  26.255 -0.4346  0.2041 -0.1124
43377W        W86315   7.986  17.500  22.938 -0.2611  0.3623 -0.1768
43378W        W86316  10.930  17.872  28.744 -0.1446 -0.1515 -0.3450
43379W        W86317  11.701  16.670  23.759 -0.2111 -0.4385  0.0434
43380W        W86318   7.989  15.306  26.291  0.4530  0.0156 -0.0337
43381W        W86319   9.245  14.705  24.732 -0.0143 -0.3952 -0.2884
43382W        W86320   8.109  16.934  26.140 -0.1219  0.0098  0.2622
43383W        W86321   8.739  17.266  25.602 -0.1628  0.0488 -0.1149
43384W        W86322   8.277  14.385  25.808 -0.0668 -0.4699 -0.1060
43385W        W86323  10.022  17.073  25.985  0.2581 -0.0342  0.3428
43386W        W86324   8.699  16.215  25.752 -0.0122 -0.1701  0.2019
43387W        W86325   9.045  16.600  27.099  0.1912  0.0757  0.0309
43388W        W86326  11.201  14.735  27.193  0.0201  0.2082 -0.4272
43389W        W86327  10.445  17.306  26.463 -0.0381  0.0407 -0.0821
43390W        W86328   8.694  15.064  26.452 -0.0321  0.1278 -0.0190
43391W        W86329   8.746  15.488  24.493  0.0118 -0.0311 -0.1072
43392W        W86330   8.181  18.165  23.707  0.0468 -0.2213 -0.3589
43393W        W86331   8.798  19.316  24.265 -0.0611  0.0803  0.2471
43394W        W86332   8.172  15.750  26.485 -0.0628 -0.3444 -0.0180
43395W        W86333   8.325  16.920  24.343 -0.3131 -0.0338 -0.0722
43396W        W86334   9.965  14.289  24.715 -0.0767  0.0920 -0.1180
43397W        W86335   7.236  16.874  28.073  0.1196  0.0430 -0.3324
43398W        W86336  11.229  15.806  27.940  0.0500  0.3941  0.1323
43399W        W86337   7.858  15.550  24.861  0.3971  0.3395 -0.1224
43400W        W86338   8.730  18.390  27.310 -0.0506  0.0143  0.0734
43401W        W86339   9.971  14.577  25.690 -0.1179 -0.1599 -0.1852
43402W        W86340  11.204  16.476  23.812 -0.2333 -0.4039  0.2111
43403W        W86341  10.708  17.276  27.308 -0.0505 -0.0604  0.2160
43404W        W86342   9.811  16.379  24.396 -0.0875  0.1282 -0.7248
43405W        W86343   9.138  15.630  24.772 -0.2649 -0.0774  0.1513
43406W        W86344   9.761  15.808  25.283  0.0077 -0.2049  0.0276
43407W        W86345   9.138  18.038  27.173  0.2449  0.0430 -0.2039
43408W        W86346  10.253  16.522  25.916 -0.1801 -0.3000  0.1949
43409W        W86347  10.651  16.900  26.927  0.1413 -0.0651 -0.0982
43410W        W86348   9.823  14.956  24.711 -0.0007  0.2931 -0.1008
43411W        W86349   8.626  17.977  22.733  0.0907 -0.2843  0.2553
43412W        W86350   9.756  16.514  27.699  0.0069 -0.3513  0.1129
43413W        W86351  10.202  17.226  27.079  0.3581 -0.0669  0.1451
43414W        W86352   9.661  17.729  24.832  0.3118 -0.3751 -0.0820
43415W        W86353  10.155  13.662  27.222 -0.1233 -0.2183 -0.2463
43416W        W86354   9.041  16.109  24.867 -0.2664 -0.3277  0.2028
43417W        W86355   8.915  14.782  25.335 -0.1580  0.3101  0.1903
43418W        W86356   6.817  20.130  24.040  0.0094 -0.1910  0.3574
43419W        W86357  10.998  12.652  26.759 -0.2499 -0.2508  0.0856
43420W        W86358  11.123  15.734  26.327 -0.3573  0.2486 -0.0360
43421W        W86359   9.932  13.666  27.633  0.2317  0.0413  0.2471
43422W        W86360  11.536  16.211  27.995  0.1427  0.2385  0.0517
43423W        W86361   9.959  16.495  25.047  0.2118  0.0325  0.0100
43424W        W86362  11.277  16.043  27.513 -0.1709  0.1516  0.0192
43425W        W86363   7.272  15.684  24.502  0.2311  0.0708 -0.0377
43426W        W86364   9.659  13.390  26.470  0.1349 -0.0905  0.1725
43427W        W86365   8.425  16.451  27.198 -0.1370  0.0513 -0.0618
43428W        W86366   8.862  17.857  26.791  0.1542  0.1032 -0.1761
43429W        W86367  11.059  18.400  28.594  0.0512  0.0238 -0.3593
43430W        W86368   9.724  15.617  23.970 -0.0688  0.2602  0.0523
43431W        W86369   9.345  15.460  27.373 -0.2484  0.1747  0.0339
43432W        W86370   8.856  14.337  25.564  0.1863 -0.1079  0.0771
43433W        W86371   9.606  16.367  25.520 -0.1118 -0.0183 -0.2681
43434W        W86372   8.365  16.118  22.881 -0.1441  0.0350  0.2316
43435W        W86373   9.383  14.222  26.817  0.4606  0.1745 -0.0190
43436W        W86374   8.231  17.361  25.997  0.3809  0.0072 -0.2400
43437W        W86375   7.291  17.754  23.963 -0.1023 -0.0594 -0.0882
43438W        W86376   9.587  17.072  27.676  0.0938 -0.1018 -0.2874
43439W        W86377   8.061  17.326  24.498 -0.0612 -0.3246 -0.1810
43440W        W86378  11.765  14.476  24.063  0.2159 -0.2481  0.0571
43441W        W86379   7.448  16.411  26.649 -0.1210 -0.1090  0.1324
43442W        W86380   7.481  15.234  24.653  0.2608  0.2477 -0.0950
43443W        W86381   7.057  16.124  24.601 -0.2944  0.1198  0.1537
43444W        W86382  10.249  15.475  24.013 -0.0742 -0.0599  0.0084
43445W        W86383   8.964  17.002  23.744  0.2385 -0.0140 -0.0947
43446W        W86384   7.589  15.598  26.561 -0.0817  0.1003  0.4781
43447W        W86385   8.822  14.091  26.091 -0.0930  0.0693  0.0332
43448W        W86386   7.871  17.388  26.876  0.1396 -0.0438  0.1158
43449W        W86387  11.283  16.791  26.340  0.2554  0.3380 -0.3085
43450W        W86388  10.044  14.529  23.204 -0.3339 -0.2403 -0.2003
43451W        W86389   9.413  16.729  25.120  0.4460  0.1221 -0.2873
43452W        W86390   8.837  15.508  27.489  0.2332 -0.2463  0.0384
43453W        W86391   6.351  16.676  24.009 -0.4491 -0.4563 -0.1831
43454W        W86392  12.364  16.857  26.689 -0.1866 -0.0779 -0.2014
43455W        W86393   8.625  16.003  26.321 -0.0188  0.0241  0.0067
43456W        W86394   7.863  16.511  26.895 -0.0480 -0.3238  0.0266
43457W        W86395   9.426  17.953  25.887  0.0467  0.0327  0.1275
43458W        W86396   7.207  17.276  25.899 -0.1002  0.2304 -0.2215
43459W        W86397   8.649  15.626  26.661  0.1285 -0.1779  0.0149
43460W        W86398   8.795  14.937  27.402  0.0182 -0.0825  0.0582
43461W        W86399  11.112  16.408  27.746 -0.2032 -0.0676  0.1542
43462W        W86400   7.664  14.129  26.941  0.0611 -0.0628  0.1099
43463W        W86401   7.945  15.314  25.674 -0.1350  0.4111 -0.1766
43464W        W86402  10.273  15.662  25.695 -0.0127 -0.0803 -0.1022
43465W        W86403  10.623  16.110  27.381  0.4065  0.1266 -0.5301
43466W        W86404   9.731  15.310  27.142  0.0681 -0.4075 -0.2739
43467W        W86405   9.249  17.947  28.016  0.1662  0.0665 -0.2126
43468W        W86406   9.348  15.250  26.706  0.1104  0.0274 -0.1702
43469W        W86407  11.635  16.265  25.664 -0.0265 -0.0404  0.2434
43470W        W86408  10.997  15.976  26.936 -0.2750 -0.3487 -0.3113
43471W        W86409   9.533  17.367  23.020 -0.0956 -0.2522 -0.1980
43472W        W86410   8.777  16.724  26.608 -0.3722  0.2651 -0.1775
43473W        W86411   9.259  17.859  23.274 -0.2333 -0.3751  0.1207
43474W        W86412  10.117  15.051  25.922  0.0028  0.0736 -0.0964
43475W        W86413   7.708  17.038  25.190  0.2499  0.0763  0.4761
43476W        W86414   7.165  17.687  25.697 -0.0603  0.0719  0.1777
43477W        W86415   9.725  17.425  26.928  0.1397 -0.0679 -0.0678
43478W        W86416   9.395  14.841  23.520 -0.1822  0.2500 -0.3423
43479W        W86417   9.214  18.591  23.903 -0.0115  0.2739  0.0827
43480W        W86418   9.883  15.211  26.327  0.0424 -0.1203  0.0885
43481W        W86419  11.751  16.196  26.694 -0.1366 -0.0840  0.0129
43482W        W86420  10.468  15.151  23.613  0.2159 -0.0633  0.1075
43483W        W86421   9.086  15.924  26.050  0.1003 -0.2629  0.4319
43484W        W86422   9.104  14.806  26.680  0.0169 -0.2455  0.1341
43485W        W86423  10.962  15.776  25.839 -0.0611  0.2809 -0.2243
43486W        W86424   6.536  15.557  28.067  0.2104  0.0239  0.1069
43487W        W86425   8.779  18.893  28.697 -0.1107 -0.0378  0.1093
43488W        W86426   9.803  16.946  26.772  0.2182 -0.0007 -0.2660
43489W        W86427   9.260  15.137  24.965  0.1926  0.1239 -0.0561
43490W        W86428   8.659  13.823  24.055 -0.2127 -0.0014  0.0073
43491W        W86429   8.424  15.500  27.145 -0.2882  0.0886  0.2765
43492W        W86430  10.342  15.825  25.212 -0.1295  0.0029  0.3600
43493W        W86431   8.939  17.382  24.725  0.1512  0.0005 -0.5051
43494W        W86432  11.539  15.818  25.925  0.2004  0.0940 -0.1092
43495W        W86433   9.434  15.879  28.296  0.0924  0.1674  0.2049
43496W        W86434  10.603  15.489  24.963 -0.0931 -0.1173  0.1413
43497W        W86435   8.893  16.545  24.061 -0.1323 -0.0142 -0.1467
43498W        W86436   8.748  15.950  25.317 -0.2247 -0.0473 -0.0652
43499W        W86437   7.990  14.533  27.030  0.0196 -0.1083 -0.0742
43500W        W86438  10.220  15.660  24.670 -0.0203 -0.2937 -0.0346
43501W        W86439   9.266  14.237  26.248  0.1585 -0.2420  0.0856
43502W        W86440   9.599  14.653  26.680  0.1370  0.0283  0.2756
43503W        W86441  12.147  14.631  27.081  0.0506 -0.1697  0.2555
43504W        W86442   8.601  13.919  26.520 -0.0307  0.0398 -0.1801
43505W        W86443   9.037  15.279  25.387  0.0415 -0.0133 -0.2116
43506W        W86444   9.814  17.956  26.736  0.0890  0.4145  0.0950
43507W        W86445  10.957  15.919  23.411  0.0003  0.2282 -0.1116
43508W        W86446   9.954  14.997  26.802 -0.1797 -0.1929 -0.0375
43509W        W86447  11.861  14.548  24.565  0.0787  0.0604  0.0075
43510W        W86448  10.479  15.698  23.305 -0.2566 -0.0383  0.1570
43511W        W86449   8.890  16.078  27.235 -0.1604 -0.0994 -0.0452
43512W        W86450   9.888  16.874  27.315  0.0103  0.1690 -0.0243
43513W        W86451   8.519  13.775  24.816 -0.1261 -0.1617  0.1072
43514W        W86452  10.326  15.367  26.673  0.0114 -0.1794  0.1044
43515W        W86453   9.239  17.103  22.683  0.0286 -0.0981 -0.1186
43516W        W86454  10.596  17.508  24.925  0.0173 -0.0891 -0.1816
43517W        W86455  11.921  15.614  24.911 -0.1576  0.3465  0.0980
43518W        W86456   7.874  15.781  24.420  0.0397 -0.0424  0.2326
43519W        W86457   9.037  17.081  27.641 -0.1135 -0.2491  0.0157
43520W        W86458   8.633  14.077  24.508  0.1502  0.0693 -0.1054
43521W        W86459   7.949  16.540  25.837 -0.0065  0.3295 -0.0134
43522W        W86460   9.422  18.056  25.351 -0.1364 -0.3534  0.3178
43523W        W86461  11.984  16.200  27.291 -0.1982  0.2535 -0.1232
43524W        W86462  10.090  15.873  23.747  0.0463  0.2844  0.0314
43525W        W86463  11.058  15.367  25.082 -0.0544 -0.2538  0.3390
43526W        W86464   8.127  17.802  24.093  0.0446 -0.1166 -0.2256
43527W        W86465  10.154  14.552  25.205 -0.0291 -0.0980  0.1824
43528W        W86466   8.642  16.938  27.013 -0.1806 -0.0549 -0.1382
43529W        W86467  10.047  16.288  27.235  0.0792  0.2032  0.3046
43530W        W86468   8.963  16.519  25.321 -0.2459 -0.1151  0.3380
43531W        W86469   9.247  15.730  25.225  0.1982  0.1821 -0.4607
43532W        W86470  10.865  15.851  25.260 -0.1487  0.2509  0.0502
43533W        W86471  11.293  16.648  25.871 -0.0333 -0.1515 -0.0306
43534W        W86472  13.076  16.700  25.128 -0.0110 -0.0314 -0.0089
43535W        W86473   9.890  17.375  27.391  0.0193 -0.0957  0.1619
43536W        W86474   9.453  16.043  26.366 -0.0521 -0.2557  0.3349
43537W        W86475  10.468  17.593  25.906  0.1090 -0.0576  0.0936
43538W        W86476  10.610  15.660  24.322  0.3560  0.0558  0.1267
43539W        W86477   8.275  16.215  26.546 -0.1928 -0.1103  0.0194
43540W        W86478   5.771  17.054  26.662 -0.0972 -0.2261 -0.2031
43541W        W86479   9.179  17.698  27.572 -0.1491  0.0621 -0.2882
43542W        W86480  10.801  15.279  25.522  0.5187  0.0368 -0.3207
43543W        W86481   9.167  16.063  25.567  0.0932 -0.3243  0.0341
43544W        W86482   8.638  17.853  23.907 -0.0641  0.0059 -0.0531
43545W        W86483   8.154  18.640  28.031  0.3266 -0.0195  0.1952
43546W        W86484   7.870  16.968  26.543  0.1066  0.2928 -0.1714
43547W        W86485   6.675  17.507  25.765  0.3449 -0.0912  0.2106
43548W        W86486   9.853  16.973  25.097  0.1058 -0.4225 -0.1254
43549W        W86487   9.190  15.652  24.240 -0.2173  0.1232  0.0335
43550W        W86488   9.094  17.049  25.284 -0.2098 -0.2633  0.0739
43551W        W86489   8.702  15.042  24.862 -0.1951 -0.0534  0.0214
43552W        W86490   9.173  17.528  25.557  0.1226  0.0098  0.2675
43553W        W86491   5.433  17.480  24.566 -0.2248  0.2525  0.0065
43554W        W86492   8.512  18.000  23.333  0.2195  0.1331 -0.1187
43555W        W86493   8.622  16.831  26.137  0.2422  0.1393  0.3033
43556W        W86494  11.321  18.007  27.277 -0.2792 -0.2402 -0.2130
43557W        W86495  10.634  14.748  24.327 -0.1668 -0.1119 -0.1222
43558W        W86496  12.721  15.871  25.865  0.1584 -0.2039  0.0596
43559W        W86497   8.826  15.372  23.989  0.0155  0.0284 -0.3115
43560W        W86498  10.901  17.103  27.760  0.2115  0.1525 -0.0523
43561W        W86499   9.169  14.749  25.793 -0.0799  0.0396  0.1293
43562W        W86500   9.980  16.023  24.895 -0.0720 -0.1741 -0.2944
43563W        W86501   9.162  15.112  27.875  0.3614 -0.1227  0.1230
43564W        W86502  11.584  14.208  26.677 -0.2790  0.2525 -0.0520
43565W        W86503   9.312  16.714  26.668  0.0246  0.2328  0.1640
43566W        W86504  10.058  17.415  24.946 -0.2863  0.2657  0.0576
43567W        W86505   7.440  15.335  25.717  0.0379  0.1015  0.0447
43568W        W86506   7.284  15.874  24.974 -0.2000  0.2578 -0.1612
43569W        W86507   9.850  13.620  25.350  0.0870 -0.0084 -0.2976
43570W        W86508   9.028  15.796  21.528  0.2546 -0.0428  0.0415
43571W        W86509  11.304  16.057  25.371  0.1265  0.0834 -0.1390
43572W        W86510   8.274  19.011  24.927  0.2679  0.0280  0.0617
43573W        W86511   8.886  18.159  26.271  0.0879  0.3795 -0.2535
43574W        W86512   8.088  17.571  26.448  0.2492 -0.0273 -0.2234
43575W        W86513   8.402  16.592  23.041 -0.1175 -0.1706 -0.0170
43576W        W86514  12.510  16.337  25.831  0.3303  0.0208  0.1594
43577W        W86515   8.460  15.969  26.968  0.3097 -0.0739 -0.0527
43578W        W86516   9.554  14.583  27.178 -0.2896  0.1761  0.1362
43579W        W86517   8.138  16.955  24.878  0.1924 -0.0771  0.0441
43580W        W86518   9.952  14.424  24.092 -0.0636  0.0585  0.0020
43581W        W86519  11.373  15.614  26.876 -0.1628 -0.2516  0.0828
43582W        W86520   9.481  15.820  26.964 -0.0604  0.1020 -0.4374
43583W        W86521   8.348  14.957  23.973  0.1688  0.4379 -0.0210
43584W        W86522  11.407  17.888  26.429  0.0345  0.3164 -0.2183
43585W        W86523   9.907  15.851  24.347 -0.3032 -0.1342 -0.0273
43586W        W86524  10.356  17.633  27.504  0.1621 -0.1773  0.0196
43587W        W86525   9.187  15.441  25.852  0.1224  0.1386  0.4598
43588W        W86526  10.412  14.322  24.272 -0.0927 -0.1473  0.0682
43589W        W86527   9.026  15.488  26.360  0.0466 -0.0433  0.0606
43590W        W86528  10.235  15.050  27.177  0.2324  0.1433 -0.0281
43591W        W86529  10.524  17.486  27.962  0.1001  0.2408  0.2425
43592W        W86530   7.559  14.716  24.480 -0.2394  0.0543 -0.1148
43593W        W86531   9.624  18.468  22.755  0.0013 -0.3026  0.1903
43594W        W86532  12.050  15.521  26.077 -0.1510 -0.0934  0.1013
43595W        W86533   7.510  18.322  23.935 -0.1089  0.1217  0.0079
43596W        W86534  10.732  15.052  24.728 -0.0933 -0.1599  0.1882
43597W        W86535  10.625  17.587  25.421  0.2651 -0.0760  0.0278
43598W        W86536   7.673  16.146  25.768 -0.0035  0.1070 -0.2544
43599W        W86537  10.193  17.618  26.800  0.1476 -0.4101  0.2970
43600W        W86538  11.852  16.585  26.942  0.0053 -0.0495 -0.0036
43601W        W86539   9.585  14.607  24.384  0.4026 -0.0693  0.0392
43602W        W86540   9.825  17.601  25.914  0.1119  0.0717 -0.2240
43603W        W86541   8.153  17.230  25.365  0.1285 -0.1580 -0.0532
43604W        W86542  10.629  14.577  26.567  0.0037 -0.0259  0.3857
43605W        W86543  10.844  15.353  26.633  0.0544  0.1909 -0.0186
43606W        W86544   8.275  18.451  22.736 -0.3338  0.3879 -0.0297
43607W        W86545  10.748  14.787  27.417 -0.0134 -0.0046 -0.1933
43608W        W86546   9.238  17.596  26.964  0.1170  0.1754 -0.3124
43609W        W86547  10.218  18.373  26.305  0.0326 -0.1070 -0.2814
43610W        W86548   7.052  16.898  23.488  0.3157 -0.1015  0.2910
43611W        W86549   9.557  15.532  27.950 -0.1698  0.1605  0.1558
43612W        W86550   9.683  17.224  25.533 -0.0072 -0.2610 -0.1733
43613W        W86551   9.537  18.866  23.025 -0.0126 -0.0233 -0.1401
43614W        W86552   9.876  17.247  24.502  0.0671  0.0662 -0.0264
43615W        W86553  10.057  16.179  25.512 -0.0413 -0.1469 -0.0529
43616W        W86554  11.306  18.990  24.338 -0.3927 -0.0482 -0.0189
43617W        W86555   9.229  15.060  26.200  0.1355 -0.2922  0.1642
43618W        W86556  11.876  15.183  23.883  0.2384  0.2605  0.0271
43619W        W86557  10.269  13.538  24.369  0.0547  0.1100  0.0340
43620W        W86558  10.333  17.305  24.502  0.0457  0.0286  0.0093
43621W        W86559   6.262  16.641  24.820 -0.0202 -0.0049  0.3627
43622W        W86560   8.684  16.929  24.718 -0.1618  0.0813 -0.1374
43623W        W86561   9.984  17.253  26.471  0.0752  0.2004 -0.1073
43624W        W86562   8.421  14.332  26.927 -0.4163 -0.2627 -0.1299
43625W        W86563   8.888  16.155  27.752  0.1226 -0.1167  0.0429
43626W        W86564   8.827  17.256  26.707  0.2549 -0.1865 -0.1499
43627W        W86565   7.554  16.733  23.326  0.3687  0.0247 -0.0652
43628W        W86566  11.165  18.046  23.634  0.0887 -0.0941  0.1087
43629W        W86567   8.110  14.866  25.664 -0.1107 -0.0317  0.2374
43630W        W86568   6.882  15.612  25.703  0.1203 -0.1189 -0.0892
43631W        W86569   9.472  17.516  24.319  0.1498  0.3491  0.0355
43632W        W86570  10.126  17.278  24.021 -0.0799  0.1210 -0.1126
43633W        W86571  10.185  13.110  25.903 -0.1786 -0.0466 -0.0399
43634W        W86572  10.736  18.177  28.046  0.4477 -0.1847  0.1837
43635W        W86573   6.606  17.812  23.056 -0.0426 -0.2933 -0.1543
43636W        W86574   9.306  16.665  27.556 -0.1601  0.2047  0.1377
43637W        W86575   8.917  14.360  26.598 -0.2455  0.0341 -0.1763
43638W        W86576   8.036  13.902  24.731  0.1431 -0.1164  0.0032
43639W        W86577   9.543  15.576  26.255 -0.1478  0.0638  0.2075
43640W        W86578   9.379  17.071  24.293 -0.1016  0.0974  0.1039
43641W        W86579   9.093  17.819  24.418  0.0202  0.0884 -0.0496
43642W        W86580  11.578  16.452  27.497  0.1461  0.0212 -0.1007
43643W        W86581  10.866  18.061  26.250  0.0439  0.0026 -0.2068
43644W        W86582   7.089  13.668  27.513  0.1240 -0.0627  0.0480
43645W        W86583  10.889  17.293  24.496 -0.1128 -0.0472  0.0986
43646W        W86584   9.423  18.433  28.035 -0.3012 -0.1381 -0.2391
43647W        W86585   9.641  16.227  23.481  0.0621  0.1095 -0.6201
43648W        W86586  10.177  14.754  26.478 -0.2067 -0.0680 -0.1105
43649W        W86587   9.604  16.765  24.671  0.0708  0.0479 -0.0705
43650W        W86588   6.338  14.304  26.867 -0.1704  0.0429 -0.1857
43651W        W86589   8.283  17.497  27.449  0.0280  0.0443 -0.4212
43652W        W86590  10.870  17.059  25.126 -0.0008  0.0368  0.3308
43653W        W86591   8.343  15.951  24.423 -0.3653 -0.0375 -0.1590
43654W        W86592  11.254  15.069  25.493  0.0999  0.0590  0.0130
43655W        W86593   9.420  16.619  24.079  0.0361  0.0141  0.2911
43656W        W86594   6.945  16.350  26.719  0.1680  0.2203  0.2289
43657W        W86595   8.870  16.403  26.208 -0.1118 -0.1986 -0.0057
43658W        W86596   9.188  14.279  27.365  0.1536  0.1213  0.0497
43659W        W86597  11.199  16.650  25.341  0.1353 -0.2645  0.0703
43660W        W86598  10.846  16.343  25.600  0.1423  0.2285 -0.0578
43661W        W86599   8.785  15.688  25.741  0.0323 -0.2974  0.0838
43662W        W86600  10.893  16.593  24.240  0.2999  0.0609  0.0750
43663W        W86601   9.788  17.681  25.356 -0.1427  0.0832 -0.0464
43664W        W86602  11.356  17.969  28.479 -0.0536  0.2546  0.2252
43665W        W86603   9.730  18.464  25.433  0.2644 -0.0877  0.1238
43666W        W86604  10.518  15.992  24.764 -0.1177 -0.3044  0.0171
43667W        W86605   7.518  16.030  26.316 -0.2526 -0.4152 -0.1424
43668W        W86606   8.676  16.461  24.515  0.1316 -0.4026 -0.0766
43669W        W86607   9.679  16.792  25.788  0.3331  0.2682 -0.0432
43670W        W86608  11.348  15.592  25.512  0.1623  0.1993 -0.0980
43671W        W86609   8.329  15.018  26.111 -0.0868  0.1454 -0.0045
43672W        W86610  10.722  13.814  24.069 -0.2142  0.0807  0.0452
43673W        W86611   9.305  17.272  26.572  0.2678 -0.1696  0.1574
43674W        W86612  10.638  15.814  26.615 -0.3683 -0.0341  0.0509
43675W        W86613   8.033  15.707  29.758 -0.3532  0.1047  0.0258
43676W        W86614   7.664  14.247  27.968 -0.0097 -0.1166 -0.0555
43677W        W86615  11.232  15.119  27.588  0.0694  0.0098  0.1251
43678W        W86616  12.210  15.153  27.053 -0.3584 -0.0110  0.2167
43679W        W86617   8.205  16.059  29.507  0.0228  0.0588 -0.3390
43680W        W86618  10.410  16.833  27.445 -0.1983 -0.1673 -0.1801
43681W        W86619   6.744  13.458  30.601 -0.2571 -0.0468  0.0955
43682W        W86620  11.142  19.221  30.379 -0.2453  0.1268 -0.2253
43683W        W86621  11.108  17.529  30.236 -0.2315 -0.0455  0.0098
43684W        W86622  10.841  16.548  26.603  0.1158  0.4336 -0.0388
43685W        W86623   9.040  15.823  29.724  0.3076 -0.1176 -0.1328
43686W        W86624   9.431  17.789  30.384  0.0447 -0.0841  0.0224
43687W        W86625   8.166  14.345  27.764 -0.0189 -0.2879  0.1524
43688W        W86626   7.821  14.781  29.641  0.1840  0.0329  0.1072
43689W        W86627  10.493  16.122  29.278  0.0061 -0.1799 -0.0919
43690W        W86628   8.634  17.438  28.768 -0.2370 -0.0577  0.1149
43691W        W86629   7.901  15.252  30.018  0.4093 -0.0952  0.1472
43692W        W86630  10.153  16.723  28.480 -0.0841  0.0748 -0.0468
43693W        W86631   9.787  18.218  28.929  0.0437  0.3300  0.1190
43694W        W86632   8.935  15.055  30.444  0.0545 -0.2588 -0.0383
43695W        W86633   9.583  16.502  30.611  0.0753  0.3442 -0.1040
43696W        W86634  11.627  17.603  28.010 -0.0346 -0.2431  0.1086
43697W        W86635   7.594  15.021  26.565  0.0296  0.1077 -0.2583
43698W        W86636   7.949  16.045  28.776  0.4032 -0.0296 -0.3749
43699W        W86637   8.872  16.032  31.271  0.2117 -0.0094 -0.1387
43700W        W86638   9.956  16.690  29.094 -0.0159 -0.1243 -0.4368
43701W        W86639   9.765  15.990  30.142  0.2106 -0.2425 -0.0615
43702W        W86640   9.904  17.978  30.251 -0.2511 -0.1299  0.1319
43703W        W86641   9.292  19.646  28.839  0.0453 -0.0830  0.0598
43704W        W86642   8.760  15.535  31.427  0.2988  0.3165 -0.2028
43705W        W86643   8.213  16.934  29.466  0.0356 -0.1981  0.1510
43706W        W86644   6.993  17.690  28.250 -0.0563 -0.2237  0.0361
43707W        W86645   7.749  17.266  29.830 -0.3250 -0.3591  0.0228
43708W        W86646  12.612  16.952  28.437  0.0053  0.0794 -0.0964
43709W        W86647  11.770  18.033  29.683 -0.0085  0.2748  0.2393
43710W        W86648   7.722  18.631  29.817  0.0098 -0.0928  0.2821
43711W        W86649   8.216  17.805  26.904  0.1446 -0.1691  0.1068
43712W        W86650  10.237  17.954  30.986  0.2392 -0.1179  0.2057
43713W        W86651   9.266  17.970  29.363  0.0442  0.3083 -0.0652
43714W        W86652  10.587  16.644  29.977  0.0205  0.2198 -0.4245
43715W        W86653   9.138  16.841  28.079  0.0100  0.1487 -0.1330
43716W        W86654   9.619  18.391  27.093 -0.2415  0.0908  0.1182
43717W        W86655   8.639  16.590  29.553 -0.2331  0.0303 -0.2063
43718W        W86656   9.290  17.461  29.980  0.2673  0.0069  0.0222
43719W        W86657   8.117  17.454  29.147  0.2011  0.1004  0.0793
43720W        W86658   9.922  16.804  30.929  0.1560 -0.2724 -0.2362
43721W        W86659   8.426  18.146  26.656  0.1407 -0.2596 -0.4849
43722W        W86660  12.133  15.558  28.039  0.1377 -0.1392 -0.1269
43723W        W86661   8.637  14.453  28.065  0.1713 -0.1260 -0.0410
43724W        W86662  11.410  14.977  28.026  0.2167  0.2846 -0.1529
43725W        W86663   9.134  15.179  29.172  0.0392 -0.0348  0.0329
43726W        W86664   9.273  18.317  28.963  0.1567 -0.3953  0.1413
43727W        W86665   9.573  15.341  29.004  0.0671 -0.1048 -0.2999
43728W        W86666  10.996  16.299  30.829 -0.2127 -0.0492  0.2231
43729W        W86667   9.573  17.679  28.341 -0.3020 -0.2045  0.0758
43730W        W86668   7.803  15.030  31.659 -0.1737  0.3518  0.3754
43731W        W86669   8.071  16.937  30.007  0.2955  0.3072  0.1340
43732W        W86670   7.895  17.089  28.282  0.3464  0.0084 -0.0908
43733W        W86671  11.247  17.223  27.303  0.1034  0.2067  0.0590
43734W        W86672   9.199  17.475  28.058  0.0735  0.3910 -0.0044
43735W        W86673  10.161  16.707  27.946 -0.0687  0.1281  0.2070
43736W        W86674   7.540  16.847  29.161 -0.1471  0.0335 -0.3665
43737W        W86675   8.949  16.814  31.144  0.1360  0.0395  0.0812
43738W        W86676   7.193  15.583   0.608 -0.1544  0.0439  0.0033
43739W        W86677   6.416  14.718  27.705 -0.1882 -0.0216 -0.1248
43740W        W86678  11.582  16.628  30.037 -0.0450 -0.0635 -0.0141
43741W        W86679   7.460  18.250  31.025 -0.3368  0.1754  0.0058
43742W        W86680  10.734  16.803  30.450  0.1208  0.0387 -0.1987
43743W        W86681   8.206  18.340  29.295  0.0500  0.0325  0.0378
43744W        W86682  11.216  18.277  29.856  0.2852 -0.1974  0.0484
43745W        W86683  11.367  17.541  27.621  0.1226  0.1109  0.3295
43746W        W86684   8.806  15.360  29.555  0.1855 -0.2881 -0.0621
43747W        W86685   9.643  15.832  28.969  0.2406 -0.0561  0.3167
43748W        W86686   9.302  16.228  28.612  0.0226  0.1037  0.2874
43749W        W86687   8.732  16.517  28.134  0.2716  0.1097 -0.1657
43750W        W86688  11.621  17.107  30.987 -0.0791 -0.0523 -0.2887
43751W        W86689  11.721  15.662  26.431  0.1872  0.0625  0.0958
43752W        W86690   8.929  18.863  28.224  0.0743 -0.0617 -0.2687
43753W        W86691   8.873  14.025  30.436  0.1218  0.2948 -0.4021
43754W        W86692  10.503  17.610  30.752  0.1039  0.0255  0.0594
43755W        W86693   8.769  19.169  26.676 -0.0448  0.0363 -0.0968
43756W        W86694   6.375  17.862  29.844 -0.2557  0.1760  0.0866
43757W        W86695   8.267  17.990  27.441  0.2594  0.0352  0.1554
43758W        W86696   7.116  14.210  30.763 -0.3816 -0.2160 -0.3154
43759W        W86697   8.838  18.614  30.132  0.0400  0.2109 -0.0024
43760W        W86698  10.794  15.522  28.832 -0.0833 -0.2702  0.0773
43761W        W86699   7.472  14.298   0.063 -0.1271  0.0777  0.0902
43762W        W86700  11.057  16.281  28.390  0.4626 -0.0220  0.0774
43763W        W86701   8.721  17.932  29.452 -0.3884 -0.0764 -0.3052
43764W        W86702  11.259  17.993  29.419 -0.1151  0.2152 -0.1124
43765W        W86703  12.466  15.196  28.776  0.3973  0.1583  0.3309
43766W        W86704  11.289  16.863  27.681  0.2515 -0.1977  0.2598
43767W        W86705   7.230  15.057  30.727  0.2731  0.0442 -0.1592
43768W        W86706   8.003  16.506  28.571  0.1362  0.1726 -0.4079
43769W        W86707   8.331  14.507  31.954 -0.0952  0.0189 -0.0766
43770W        W86708   8.151  13.989  30.850  0.1246 -0.1998  0.0679
43771W        W86709  10.118  15.957  29.626 -0.2122  0.2488  0.3374
43772W        W86710   7.592  15.273  30.420  0.1378  0.0056  0.3510
43773W        W86711  10.618  16.487  28.531 -0.0425  0.1994 -0.2552
43774W        W86712   9.096  15.725  27.878 -0.2994  0.3185 -0.0306
43775W        W86713   8.379  17.277  28.297  0.2466 -0.3561 -0.2062
43776W        W86714  10.782  15.776  30.053 -0.1828  0.0277  0.0404
43777W        W86715   9.961  18.494  28.405  0.1198 -0.0182 -0.1242
43778W        W86716  11.300  17.189  29.859  0.0151  0.2573 -0.1292
43779W        W86717   8.948  19.889  28.530  0.0254  0.2331 -0.0982
43780W        W86718   7.451  14.204  31.547  0.2269  0.0916  0.0492
43781W        W86719   7.878  15.039  26.933  0.1256  0.0184 -0.0899
43782W        W86720   8.217  17.440  29.630 -0.0389 -0.3380  0.2835
43783W        W86721   9.154  16.285  30.876  0.0006  0.0495 -0.1069
43784W        W86722   8.929  16.011  28.286 -0.1026 -0.0102  0.3677
43785W        W86723  11.534  18.456  29.430 -0.1008  0.0589  0.2013
43786W        W86724   9.289  17.358  28.623  0.1106  0.0027 -0.0104
43787W        W86725   8.461  17.728  30.518  0.1510  0.2740 -0.1168
43788W        W86726   8.614  14.638  31.080  0.0472  0.0788  0.1387
43789W        W86727  11.737  16.221  30.287  0.1775  0.2951  0.1772
43790W        W86728   9.143  17.482  29.232  0.2562 -0.1126 -0.0724
43791W        W86729   7.137  14.520  26.865  0.4216 -0.0608 -0.1954
43792W        W86730   9.619  18.972  30.363 -0.2438 -0.2214  0.4386
43793W        W86731   7.709  17.776  27.187  0.1425  0.2297 -0.1097
43794W        W86732   7.820  15.103  28.647 -0.5029 -0.1714  0.1046
43795W        W86733  10.496  17.528  28.879 -0.0164 -0.0645  0.0109
43796W        W86734  10.016  15.455  28.831 -0.2720  0.1773  0.0037
43797W        W86735   7.492  16.753  31.169 -0.1542 -0.0350  0.0886
43798W        W86736   9.178  14.795  30.867  0.0882 -0.0354  0.2487
43799W        W86737   8.481  16.199  28.468  0.2569 -0.1185 -0.2843
43800W        W86738   7.787  16.322  30.134 -0.0996  0.0712  0.0336
43801W        W86739   8.823  13.504  27.946  0.0846  0.3281 -0.2099
43802W        W86740  11.412  14.894  25.981 -0.0985 -0.3158 -0.1054
43803W        W86741   8.397  15.370  31.173  0.4751  0.6743  0.3817
43804W        W86742  12.199  17.765  28.767 -0.1924 -0.1191 -0.0858
43805W        W86743  10.830  14.211  27.549 -0.0644  0.1929 -0.2778
43806W        W86744   9.990  15.278  27.603 -0.0424 -0.0382 -0.2331
43807W        W86745   7.712  16.138  29.687  0.0690  0.0468  0.0517
43808W        W86746  11.370  17.065  28.143 -0.2426  0.0468  0.0501
43809W        W86747  10.119  18.174  31.568  0.1248  0.1134  0.0640
43810W        W86748   8.690  14.947  27.993 -0.0029 -0.1346 -0.0795
43811W        W86749  10.912  18.426  29.325  0.1334  0.0199 -0.1532
43812W        W86750   8.008  16.816  28.992 -0.0476  0.0706 -0.2444
43813W        W86751   9.146  18.133  31.538 -0.0687 -0.1780 -0.1680
43814W        W86752  10.646  17.176  29.180  0.4919 -0.0392 -0.0359
43815W        W86753   8.482  15.280  30.168  0.0791  0.1312  0.0615
43816W        W86754   9.938  16.101  26.758 -0.2349  0.2336 -0.0714
43817W        W86755  10.410  14.693  28.865 -0.3014 -0.1792 -0.1628
43818W        W86756   7.684  18.321  29.327 -0.0433 -0.0177  0.2195
43819W        W86757  10.230  16.635  30.602  0.0050  0.3516 -0.2187
43820W        W86758   8.900  16.055  28.846  0.0863  0.0961 -0.1886
43821W        W86759   9.744  14.575  30.403  0.1523  0.0527  0.0677
43822W        W86760   9.665  15.496   0.035  0.0831  0.0302 -0.0187
43823W        W86761  11.348  15.551  27.454  0.0464 -0.0763 -0.2236
43824W        W86762   9.911  16.511  30.216 -0.2146  0.1779 -0.0751
43825W        W86763   9.231  16.289  28.049 -0.0143  0.2864 -0.1043
43826W        W86764   9.531  13.588  29.271 -0.1908 -0.1121  0.1316
43827W        W86765   7.959  15.310  30.766 -0.1920  0.2469  0.0218
43828W        W86766   8.621  18.386  29.715 -0.1824  0.3016 -0.1674
43829W        W86767   9.999  17.336  29.756 -0.2053 -0.3311  0.2128
43830W        W86768  10.368  17.001  29.567  0.1363 -0.0493 -0.2214
43831W        W86769   7.867  14.070  31.264 -0.2798 -0.0751 -0.3668
43832W        W86770   8.951  14.660  28.357  0.2612  0.1662 -0.0438
43833W        W86771   9.305  18.045  26.598 -0.0064  0.1608 -0.1059
43834W        W86772   9.140  17.881  28.518 -0.1208  0.1257  0.2700
43835W        W86773   8.957  14.510  30.527 -0.1428  0.1746 -0.1030
43836W        W86774   8.839  18.477  30.732  0.0848 -0.2209  0.2488
43837W        W86775  10.175  18.042  27.144  0.1703  0.1959  0.2668
43838W        W86776   9.329  16.343  30.100 -0.0788  0.1051  0.1996
43839W        W86777   8.173  17.433  30.124 -0.1826  0.2769  0.0842
43840W        W86778   9.673  14.364  29.390  0.1476 -0.0049  0.2471
43841W        W86779   8.193  16.600  30.468  0.2034 -0.1130  0.2833
43842W        W86780   8.174  16.889  27.178 -0.3238  0.0858 -0.1229
43843W        W86781   9.177  15.840  29.240  0.1465 -0.0474 -0.2130
43844W        W86782  10.116  14.987  29.118  0.2748  0.0314 -0.3230
43845W        W86783  11.814  18.022  28.687 -0.2495  0.1218  0.2992
43846W        W86784   7.470  14.188  30.274  0.4594  0.1724  0.0062
43847W        W86785   9.510  14.561  28.600  0.0401 -0.1048  0.1277
43848W        W86786   9.333  18.779  29.867  0.1352 -0.0087 -0.1854
43849W        W86787   8.600  17.090  29.860  0.0582  0.0225  0.2783
43850W        W86788   9.548  14.997  27.507  0.0487 -0.2149 -0.1011
43851W        W86789  11.963  16.367  30.720 -0.2331 -0.0102 -0.2682
43852W        W86790   8.823  15.840  30.788 -0.2805  0.1360  0.1044
43853W        W86791   8.494  15.884  28.061 -0.1753 -0.2433 -0.3254
43854W        W86792  10.352  14.952  28.289 -0.1408  0.2796 -0.0942
43855W        W86793   9.594  15.929  29.516 -0.3011 -0.1401  0.2618
43856W        W86794   7.806  18.414  28.840  0.2968 -0.2166  0.0413
43857W        W86795  10.897  17.633  29.178  0.5500  0.0549 -0.0122
43858W        W86796   8.945  17.034  28.849 -0.4429 -0.1203  0.2294
43859W        W86797   9.108  18.471  29.545 -0.2169  0.0912 -0.0577
43860W        W86798   8.111  14.606  29.346  0.1486 -0.1901  0.1626
43861W        W86799  10.632  17.150  31.068 -0.0839 -0.1153  0.1811
43862W        W86800   9.009  17.046  29.425  0.1888  0.1197  0.1220
43863W        W86801   9.169  15.695  28.696 -0.3094  0.1786 -0.1285
43864W        W86802   8.522  15.779  29.762 -0.1339 -0.0299  0.3544
43865W        W86803   9.808  17.041  29.456 -0.0580 -0.1600  0.4473
43866W        W86804   9.375  16.906  31.546 -0.1259  0.1770 -0.0025
43867W        W86805   8.387  18.317  30.447 -0.1323  0.1425  0.0904
43868W        W86806   8.236  14.737  29.883  0.0814  0.4432 -0.0505
43869W        W86807  12.535  18.852  26.612 -0.0672 -0.0711 -0.1921
43870W        W86808  10.764  17.134  30.041 -0.0985  0.0901 -0.1676
43871W        W86809   8.891  17.204  28.390 -0.1309 -0.1796 -0.0754
43872W        W86810   8.416  17.085  30.348  0.5245  0.2080  0.1390
43873W        W86811   8.518  17.068  27.478 -0.0063  0.0147  0.3330
43874W        W86812   8.010  14.943  30.417  0.2879 -0.3857 -0.2988
43875W        W86813   7.818  17.087  30.401 -0.3284 -0.0012  0.2627
43876W        W86814   9.043  18.689  27.532 -0.0887  0.1259  0.3840
43877W        W86815   9.791  17.935  29.361  0.2603  0.2418  0.1834
43878W        W86816  12.034  15.104  28.080 -0.2596  0.2251  0.0093
43879W        W86817  11.807  16.757  27.930  0.0216 -0.0058 -0.0386
43880W        W86818   8.677  16.702  30.582  0.2160  0.0003  0.3453
43881W        W86819  12.264  14.798  29.805  0.0206 -0.4686 -0.4684
43882W        W86820  11.114  16.497  27.005  0.3989 -0.0804 -0.1544
43883W        W86821   9.668  16.149  30.934  0.1511  0.1893  0.2131
43884W        W86822  10.010  15.537  29.346 -0.0967 -0.2284  0.0829
43885W        W86823  11.440  17.749  29.948  0.0255 -0.0712  0.1837
43886W        W86824   8.882  14.404  30.058  0.1515  0.0057  0.1654
43887W        W86825   9.093  17.781  31.182  0.0631 -0.1016 -0.0913
43888W        W86826   8.480  16.786  31.265 -0.3174  0.1541  0.1673
43889W        W86827  11.012  16.719  28.112 -0.2735  0.0140  0.1068
43890W        W86828   7.628  15.581  27.770 -0.2848  0.0077  0.0018
43891W        W86829   8.249  16.121  30.034 -0.1347 -0.1838  0.2647
43892W        W86830  11.653  17.543  29.532 -0.1079  0.2289  0.0748
43893W        W86831   9.550  18.194  28.499  0.3328  0.1622 -0.0345
43894W        W86832  12.410  17.415  28.319  0.1858  0.1647  0.0233
43895W        W86833   7.927  15.552  28.925  0.1618  0.1369  0.4266
43896W        W86834  11.771  17.064  30.022  0.0060  0.0314 -0.3016
43897W        W86835  10.919  16.806  27.334  0.1306  0.0456 -0.1271
43898W        W86836   8.269  16.399  29.095 -0.1787 -0.0956 -0.1184
43899W        W86837   8.127  13.476   0.756  0.0540 -0.1974 -0.3693
43900W        W86838   9.900  17.614  28.859  0.1825  0.0800  0.0447
43901W        W86839   8.745  16.080  29.371  0.0384  0.1428 -0.2004
43902W        W86840   9.255  15.705  31.000 -0.2073 -0.0642 -0.1522
43903W        W86841  10.475  16.678  29.160  0.1693 -0.0916 -0.1125
43904W        W86842   9.385  15.541  30.023 -0.1421 -0.3023  0.0731
43905W        W86843   6.791  14.957  31.260  0.0770 -0.1313 -0.1025
43906W        W86844  11.200  17.237  31.226  0.1201  0.2792  0.0488
43907W        W86845  11.680  14.717  26.898  0.0522  0.0255  0.2208
43908W        W86846  10.248  15.172  29.583  0.3394  0.0239  0.2081
43909W        W86847  12.261  18.375  28.959  0.2239  0.2150 -0.2782
43910W        W86848  10.723  15.993  27.873  0.1710  0.1830  0.0674
43911W        W86849   8.478  14.760  30.328 -0.0203  0.0530  0.0890
43912W        W86850  11.310  16.534  30.436  0.2441  0.1212  0.2279
43913W        W86851   8.673  15.422  28.041  0.0463  0.1451  0.1096
43914W        W86852   9.035  15.788  30.331  0.1856  0.1712 -0.2593
43915W        W86853   8.442  17.825  29.019  0.2606 -0.1711 -0.3129
43916W        W86854  10.214  17.469  29.270 -0.3031 -0.1192  0.2011
43917W        W86855  10.825  15.727  28.270 -0.2253  0.1594 -0.2196
43918W        W86856   6.930  14.448  30.306 -0.0597  0.0508  0.0969
43919W        W86857   8.297  17.143  30.963 -0.1380 -0.0588 -0.1305
43920W        W86858   9.259  14.973  27.111  0.0732 -0.0710 -0.1159
43921W        W86859   9.906  16.309  28.215 -0.2891  0.1397 -0.0081
43922W        W86860   9.341  17.324  30.482 -0.2656 -0.1545 -0.1058
43923W        W86861  10.681  16.020  28.678  0.1206  0.0710 -0.1585
43924W        W86862   9.421  15.017  28.303  0.1827 -0.0650 -0.1483
43925W        W86863  10.892  16.304  30.312 -0.0935 -0.1832 -0.2592
43926W        W86864   7.709  18.740  28.284  0.0413  0.3518  0.1587
43927W        W86865   9.480  16.367  29.089  0.1356 -0.3582  0.0292
43928W        W86866   9.604  18.116  29.818  0.2326  0.0616 -0.1248
43929W        W86867   6.590  16.038  30.875 -0.0147  0.2775 -0.1888
43930W        W86868   8.446  17.875  29.955 -0.1994  0.1141  0.0678
43931W        W86869   9.199  16.286  29.538  0.1399  0.1613  0.4438
43932W        W86870  10.587  15.753  29.617 -0.0179 -0.3457 -0.0025
43933W        W86871   9.747  16.424  28.665  0.0081  0.0373 -0.0523
43934W        W86872  13.043  15.931  27.947  0.1484 -0.0766 -0.3360
43935W        W86873  11.262  17.431  30.754 -0.0630  0.1752  0.2827
43936W        W86874   8.107  15.621  30.243  0.0313  0.2734  0.0471
43937W        W86875  10.765  18.133  30.823  0.1411 -0.0645 -0.0343
43938W        W86876  12.878  18.219  28.879  0.1730 -0.2029  0.1597
43939W        W86877   7.470  17.467  30.325  0.3481  0.2755 -0.2087
43940W        W86878   6.602  15.881  31.390 -0.0035 -0.2683 -0.2401
43941W        W86879   9.420  16.019  30.515 -0.3162  0.0963  0.2461
43942W        W86880   9.740  17.466  30.180  0.0283 -0.2379 -0.2389
43943W        W86881   8.860  15.181  28.728 -0.0553  0.0416  0.0508
43944W        W86882   9.399  17.102  27.215 -0.0551  0.0160  0.1706
43945W        W86883   8.650  16.388  31.015  0.0501 -0.1873 -0.0090
43946W        W86884   6.741  15.077  30.485  0.0964  0.0513 -0.3487
43947W        W86885   9.640  17.603  27.793  0.0534  0.1939  0.1955
43948W        W86886  10.995  17.312  28.810 -0.0900  0.0278  0.1524
43949W        W86887   9.630  16.691  28.181  0.0840  0.1614  0.1952
43950W        W86888  10.260  18.184  30.567 -0.0221  0.1134  0.2381
43951W        W86889   9.650  16.025  27.846  0.0368 -0.1502 -0.0527
43952W        W86890   8.952  17.654  30.623  0.1218  0.1106  0.0269
43953W        W86891   8.696  17.506  27.851 -0.0035  0.1082  0.3863
43954W        W86892   9.692  18.718  28.962 -0.0878 -0.0475 -0.0573
43955W        W86893   8.093  16.528  29.695  0.1142 -0.3152  0.1393
43956W        W86894  10.946  17.648  31.043 -0.1415 -0.0563  0.0469
43957W        W86895  11.109  14.586  27.679  0.1909 -0.1092  0.0121
43958W        W86896  11.505  15.917  29.222  0.3053  0.2806 -0.0883
43959W        W86897  10.879  17.258  28.277 -0.2409 -0.1169  0.2456
43960W        W86898  10.952  17.549  31.591  0.1049  0.0547  0.1184
43961W        W86899   8.879  17.147  30.690 -0.2088 -0.2527  0.0158
43962W        W86900   7.726  14.247  27.483  0.0900 -0.0112  0.1990
43963W        W86901   8.131  14.961  31.170 -0.0659  0.0906  0.2322
43964W        W86902  10.705  13.999  31.483 -0.1473 -0.3306  0.0841
43965W        W86903   8.109  16.478  30.979  0.0489  0.0529  0.0678
43966W        W86904  10.982  17.729  28.149 -0.3635 -0.4506 -0.0992
43967W        W86905   8.783  16.653  27.536  0.0696 -0.1580  0.0020
43968W        W86906   8.600  17.406  29.260  0.1478  0.3261 -0.2105
43969W        W86907  10.429  15.168  28.750 -0.0429  0.1298  0.2950
43970W        W86908   8.693  17.346  26.146 -0.0532 -0.1371 -0.0591
43971W        W86909   9.568  17.260  29.069 -0.1447  0.0598  0.0491
43972W        W86910   8.728  18.035  27.726 -0.0329 -0.2954  0.0058
43973W        W86911   8.064  17.925  30.315  0.0482  0.1668  0.2431
43974W        W86912   9.743  18.139  30.869 -0.2296 -0.1293 -0.2434
43975W        W86913   6.670  14.325  29.909 -0.1095 -0.1236 -0.2873
43976W        W86914  11.758  16.888  28.461 -0.1066  0.1596 -0.0426
43977W        W86915   8.371  15.572  30.744  0.1398  0.0912 -0.0582
43978W        W86916  10.350  16.268  30.203 -0.0175  0.1406  0.2012
43979W        W86917  10.261  17.302  28.428  0.0881 -0.3024 -0.0099
43980W        W86918  10.898  17.029  29.542 -0.0797  0.1372  0.2240
43981W        W86919   9.566  17.546  29.564 -0.2141  0.2107  0.0938
43982W        W86920   7.341  15.974  30.412  0.3929  0.3027 -0.1281
43983W        W86921   9.109  15.432  28.307 -0.0110 -0.3415 -0.0604
43984W        W86922  10.253  16.354  28.825  0.1179 -0.0086  0.0815
43985W        W86923  10.621  16.525  27.837  0.1497 -0.0300  0.0942
43986W        W86924  10.616  17.583  31.969 -0.5369  0.0544 -0.5105
43987W        W86925   8.832  14.873  29.453  0.0784 -0.0491  0.1647
43988W        W86926  10.756  15.324  27.460  0.1292  0.0821  0.2370
43989W        W86927   7.596  16.763  28.618  0.0641  0.3017  0.1511
43990W        W86928   9.812  15.509  30.329 -0.0864  0.2553  0.0826
43991W        W86929  10.586  18.003  31.728  0.4277 -0.1136  0.1053
43992W        W86930   8.391  15.897  28.874  0.0869  0.2152  0.2393
43993W        W86931   9.673  16.963  28.706  0.0111 -0.3193 -0.2379
43994W        W86932  12.441  17.430  27.514  0.0835 -0.3015  0.3557
43995W        W86933  10.491  18.138  27.602 -0.1438  0.1167 -0.0713
43996W        W86934  12.252  16.755  27.772 -0.2812  0.0821 -0.0506
43997W        W86935  12.042  19.316  29.984 -0.0735 -0.1780  0.3456
43998W        W86936   7.873  16.070  31.133  0.0562  0.1672  0.1051
43999W        W86937  10.570  17.454  29.625  0.2904  0.0320  0.0315
44000W        W86938  12.098  17.206  29.664  0.0699 -0.0283  0.1254
44001W        W86939   8.766  14.358  27.566  0.0822  0.0313  0.1290
44002W        W86940   8.880  17.536  29.683  0.2717 -0.2416  0.2196
44003W        W86941   7.649  16.819  29.671 -0.1922 -0.3003 -0.0471
44004W        W86942   9.329  14.692  29.384 -0.1126  0.1187  0.3085
44005W        W86943   9.763  16.401  29.616  0.3578 -0.1857 -0.0415
44006W        W86944  10.168  17.203  27.755  0.3717 -0.2453 -0.1544
44007W        W86945  11.996  14.205  30.852  0.0568  0.1385  0.0199
44008W        W86946   9.642  18.329  31.336  0.4597  0.4322  0.2345
44009W        W86947   8.210  17.734  30.925  0.2333 -0.1543  0.1041
44010W        W86948   8.663  16.963  27.934  0.0269  0.2735 -0.0144
44011W        W86949   7.636  15.699  30.074  0.0595  0.0043 -0.1280
44012W        W86950  10.174  16.164  27.677  0.2124  0.1084 -0.2796
44013W        W86951   8.654  18.088  28.618 -0.2110  0.0654 -0.0818
44014W        W86952  10.010  18.423  29.529 -0.0117  0.0660  0.2744
44015W        W86953   9.892  15.926  28.493 -0.0445 -0.2127  0.1191
44016W        W86954  12.192  18.264  29.495  0.1525 -0.2661 -0.2178
44017W        W86955   8.962  16.513  29.141  0.2236  0.1350  0.1000
44018W        W86956  12.211  17.068  28.673  0.0008  0.3913  0.1479
44019W        W86957  10.448  15.448  27.973 -0.0668 -0.1417 -0.1003
44020W        W86958   7.373  16.327  31.556 -0.0935 -0.0823  0.1601
44021W        W86959   7.475  15.457  29.130  0.0496  0.3503  0.2494
44022W        W86960   8.323  16.309  27.824  0.0852 -0.1706  0.2259
44023W        W86961   8.999  17.100  30.168 -0.0940 -0.0659  0.0692
44024W        W86962   8.501  13.160  30.614 -0.2545  0.0047 -0.4676
44025W        W86963   7.860  14.043   0.067 -0.1239  0.2456  0.2550
44026W        W86964   8.532  16.606  30.085  0.1209 -0.1240 -0.0071
44027W        W86965   8.662  15.582  29.131 -0.0385  0.2397 -0.0135
44028W        W86966   9.445  18.681  28.477  0.0565 -0.0072  0.1152
44029W        W86967   8.915  15.369  30.030  0.0137 -0.2098  0.2267
44030W        W86968   5.712  14.178  30.385  0.0820  0.0576  0.2607
44031W        W86969  11.057  17.558  29.619 -0.1771 -0.0240  0.1643
44032W        W86970  10.005  17.920  28.469 -0.1561  0.0311  0.0665
44033W        W86971   9.828  15.761  27.407  0.1286 -0.0751  0.3243
44034W        W86972   9.553  17.681  30.944 -0.2392  0.1431 -0.1060
44035W        W86973   8.115  15.164  28.237  0.1268 -0.0792 -0.0127
44036W        W86974   8.526  15.965  31.724  0.0000  0.1226  0.0910
44037W        W86975   9.416  14.275  30.610  0.0289  0.0274 -0.0905
44038W        W86976   7.526  14.686  27.803  0.0159  0.1696  0.2178
44039W        W86977   9.260  16.738  28.578 -0.1735  0.3540 -0.1972
44040W        W86978   8.925  17.835  28.946  0.1455 -0.1726  0.0717
44041W        W86979  10.114  18.254  27.991 -0.1945  0.1485  0.1235
44042W        W86980   8.754  17.556  30.137  0.0450 -0.0769  0.0276
44043W        W86981   9.412  18.617  31.745 -0.0316 -0.0243  0.0035
44044W        W86982   6.489  13.537  30.173  0.0738 -0.3120 -0.0680
44045W        W86983  10.098  17.149  28.928 -0.6215 -0.1018 -0.1293
44046W        W86984   9.214  18.067  30.748  0.1925 -0.0274  0.1417
44047W        W86985  11.259  15.887  28.526  0.2363 -0.0701  0.2150
44048W        W86986   9.365  16.833  29.082 -0.0349  0.1556 -0.1111
44049W        W86987  11.463  17.123  28.796 -0.0183  0.0686  0.0778
44050W        W86988   7.046  14.075  31.219 -0.1061 -0.2128 -0.1920
44051W        W86989   9.566  17.836  31.431  0.1885 -0.2776 -0.0539
44052W        W86990  11.554  16.816  29.566 -0.1900 -0.1021 -0.2569
44053W        W86991   8.327  15.234  29.642  0.0858 -0.0383  0.2760
44054W        W86992  10.365  15.627  28.476 -0.0690  0.4546  0.2849
44055W        W86993  11.283  17.251  29.283  0.0074 -0.4595  0.0995
44056W        W86994   8.224  15.607  29.304  0.0781  0.1780 -0.2804
44057W        W86995  11.089  16.774  28.628  0.3372  0.0462  0.0708
44058W        W86996   9.015  16.666  29.867 -0.0405  0.1661 -0.1334
44059W        W86997  10.269  17.021  30.100 -0.2269  0.0895 -0.1387
44060W        W86998  12.223  16.515  30.128  0.0312 -0.1661  0.1801
44061W        W86999   8.544  16.850  29.053 -0.1631  0.3469  0.2698
44062W        W87000  11.800  17.052  29.184 -0.0251 -0.0303 -0.3240
44063W        W87001  11.635  18.932  29.861  0.0092  0.2761  0.1707
44064W        W87002  11.243  18.392  30.676 -0.2277  0.0503 -0.2904
44065W        W87003  10.722  17.855  30.348 -0.0024 -0.2289 -0.0055
44066W        W87004  11.715  16.786  30.537 -0.2374  0.1019  0.1170
44067W        W87005   9.323  14.886  28.858  0.0314  0.0480  0.0598
44068W        W87006   9.435  17.821  28.903  0.2307 -0.2873 -0.1190
44069W        W87007   8.751  16.579  28.712 -0.0503  0.1695  0.1876
44070W        W87008  10.048  15.367  28.260 -0.0303 -0.2326  0.2848
44071W        W87009   8.124  15.501  27.863  0.3426  0.0979 -0.2148
44072W        W87010  10.539  17.013  28.708  0.0800 -0.2021 -0.2181
44073W        W87011   9.328  18.416  30.379  0.1769  0.2130  0.2987
44074W        W87012   9.381  16.787  29.628  0.1787 -0.2068  0.1180
44075W        W87013  11.294  16.253  30.002  0.3134  0.0865  0.1451
44076W        W87014  11.055  16.685  29.989 -0.1398  0.1213  0.0025
44077W        W87015   7.579  16.938  31.621  0.1608 -0.0497  0.0948
44078W        W87016   9.184  17.270  31.218  0.0902  0.1523 -0.1251
44079W        W87017  10.611  18.631   0.459 -0.3792  0.1310  0.0212
44080W        W87018   7.821  16.477  31.447 -0.0798 -0.1039  0.0857
44081W        W87019   9.498  16.552  31.879 -0.0318  0.2182  0.3730
44082W        W87020   7.577  14.719   0.777 -0.3068 -0.1544  0.0745
44083W        W87021   9.618  16.313  31.404  0.1822  0.2642 -0.1273
44084W        W87022  11.363  17.692  31.388 -0.0852  0.0775 -0.1150
44085W        W87023  10.477  17.232  31.641 -0.1154 -0.1289 -0.0567
44086W        W87024   7.143  13.590  30.926  0.1846  0.0952  0.1152
44087W        W87025  11.729  15.782  28.382  0.2546  0.2251 -0.0722
44088W        W87026   6.840  16.108  31.805 -0.3642  0.0791  0.1230
44089W        W87027   9.457  16.695  31.101 -0.0556  0.2324  0.1130
44090W        W87028   8.416  17.846   0.333 -0.0187  0.0193 -0.0268
44091W        W87029   7.455  15.876  31.288  0.1853  0.0641  0.2974
44092W        W87030  10.550  17.682  31.310  0.2666 -0.0988 -0.0717
44093W        W87031   6.703  12.759  30.667  0.0202 -0.1341 -0.3057
44094W        W87032   9.431  14.781  31.396 -0.0599  0.0506  0.0396
44095W        W87033   8.832  14.009  31.801  0.0313  0.2262 -0.1838
44096W        W87034   6.995  17.737   0.382  0.0493 -0.1159  0.1723
44097W        W87035  10.170  15.038  31.617 -0.1567  0.0573  0.0225
44098W        W87036   9.862  16.847  31.455 -0.0081  0.2229 -0.2290
44099W        W87037   8.360  14.998  30.741  0.1191 -0.1203  0.1500
44100W        W87038   9.650  14.093  31.473 -0.0443  0.1231  0.1941
44101W        W87039   8.557  15.832  30.319 -0.0022  0.0080 -0.0297
44102W        W87040   8.630  18.696  29.272 -0.1282 -0.0213 -0.0165
44103W        W87041   8.232  14.502  31.389 -0.0456  0.0965  0.1268
44104W        W87042  10.048  17.293  31.259  0.1160  0.1338 -0.2614
44105W        W87043   9.641  18.767   0.217  0.1372 -0.0202 -0.0383
44106W        W87044   8.518  14.103  31.280  0.0063 -0.0788 -0.1081
44107W        W87045   9.819  17.069  30.488  0.0285  0.2218 -0.1053
44108W        W87046  10.956  15.141  30.778  0.1317  0.0472 -0.4158
44109W        W87047   6.752  13.048  31.499 -0.2202  0.2736 -0.1777
44110W        W87048   9.113  16.182  31.885 -0.1654 -0.1446  0.3085
44111W        W87049   9.137  16.455  31.478  0.4360  0.1386 -0.2370
44112W        W87050  11.298  17.015  30.333  0.1365  0.1307  0.1446
44113W        W87051   9.300  15.896  31.510 -0.0360 -0.2531 -0.0472
44114W        W87052   8.768  16.168  29.951  0.0302 -0.0627  0.2199
44115W        W87053  11.201  16.765  29.158  0.0440  0.2454  0.2335
44116W        W87054   8.920  15.365  30.897 -0.0516 -0.0192  0.1378
44117W        W87055   8.134  13.483  30.781  0.0583 -0.1972 -0.2499
44118W        W87056  10.117  17.649  31.650 -0.2481 -0.1056  0.2313
44119W        W87057   8.552  14.955  31.664 -0.0213 -0.0565 -0.0288
44120W        W87058   8.908  16.283  30.420 -0.1660  0.2581 -0.3145
44121W        W87059   8.387  13.998   0.133 -0.2030 -0.2378  0.1795
44122W        W87060  10.492  16.133  31.496  0.3614  0.1036  0.1058
44123W        W87061  12.218  16.988  30.163 -0.2294  0.1835 -0.1107
44124W        W87062   7.784  18.344  31.607 -0.0315  0.2532  0.4713
44125W        W87063   9.111  19.959  31.641 -0.3601  0.1260 -0.1386
44126W        W87064  10.087  15.262  31.189 -0.0427  0.0834 -0.1427
44127W        W87065   9.762  14.583  31.719  0.1453  0.3761 -0.0108
44128W        W87066   9.416  16.885  30.205  0.3227  0.0680 -0.1206
44129W        W87067   8.429  14.556   0.468  0.2162  0.1377 -0.1619
44130W        W87068   8.743  15.356  31.900 -0.0202  0.3196  0.2751
44131W        W87069  12.370  17.210  30.671  0.3831 -0.1790 -0.0316
44132W        W87070   9.279  18.917  31.353 -0.1332 -0.1912  0.0141
44133W        W87071   8.250  19.191  30.908 -0.0295  0.4218 -0.5094
44134W        W87072   7.400  14.754  31.654  0.2684  0.1604 -0.0592
44135W        W87073   7.271  15.244  31.980 -0.0137 -0.3753 -0.0566
44136W        W87074   9.594  17.337  31.502 -0.0127 -0.0260 -0.0050
44137W        W87075   8.368  16.079  30.707  0.2197 -0.1284 -0.0425
44138W        W87076   7.441  15.039  31.221  0.3478  0.0750  0.3420
44139W        W87077   9.148  18.942   0.150  0.1079 -0.1826  0.0687
44140W        W87078  10.291  17.157  30.549 -0.0811  0.2062 -0.2984
44141W        W87079  12.334  16.717  30.584 -0.2120 -0.0436 -0.0446
44142W        W87080   8.516  21.114  19.190  0.0469 -0.1432  0.1084
44143W        W87081   8.713  19.467  16.452  0.3935 -0.0174 -0.2156
44144W        W87082  10.778  17.994  15.284  0.2028  0.2248  0.1990
44145W        W87083   9.902  18.817  16.655  0.2053 -0.1104  0.2327
44146W        W87084   6.532  19.797  17.467 -0.5311 -0.1735 -0.0334
44147W        W87085   9.629  20.127  17.006 -0.2813  0.0523 -0.0355
44148W        W87086   5.862  18.300  20.895  0.0639 -0.2273  0.2296
44149W        W87087   9.119  23.063  17.956  0.2429 -0.1394 -0.1333
44150W        W87088   9.482  22.156  18.782 -0.0130  0.0075 -0.0508
44151W        W87089   8.203  20.174  15.469 -0.0580 -0.0219  0.3215
44152W        W87090   9.624  19.658  18.065 -0.1302  0.0083  0.0903
44153W        W87091   8.691  22.632  18.557 -0.3786 -0.0119 -0.1240
44154W        W87092   7.016  18.610  17.115  0.0083 -0.2182  0.2464
44155W        W87093   6.654  17.921  18.437  0.1523 -0.1549 -0.0411
44156W        W87094   9.565  21.680  18.612 -0.0823 -0.2397 -0.0720
44157W        W87095   7.511  20.826  16.506  0.0408 -0.0302 -0.0178
44158W        W87096   8.275  20.532  19.231 -0.2088 -0.0264 -0.0607
44159W        W87097   8.863  19.909  17.423 -0.1018 -0.1166 -0.0740
44160W        W87098  11.018  22.340  18.965  0.1034  0.5239 -0.0357
44161W        W87099   8.389  19.379  18.525 -0.0173 -0.1663  0.2293
44162W        W87100   9.674  17.374  18.147 -0.1394 -0.2972 -0.1280
44163W        W87101   9.331  22.259  16.773 -0.0503  0.0972  0.1105
44164W        W87102   7.260  18.331  16.580 -0.1224  0.0754 -0.2311
44165W        W87103   7.841  20.853  18.518  0.3107  0.0226 -0.3530
44166W        W87104   8.929  20.451  18.560 -0.0616 -0.0017  0.0910
44167W        W87105   7.882  19.757  17.600  0.0135  0.0539 -0.1935
44168W        W87106  11.197  18.853  18.290  0.0968  0.0791  0.0053
44169W        W87107   8.347  22.983  18.463  0.2849  0.0789  0.0251
44170W        W87108   9.213  22.870  18.409  0.2338 -0.2556 -0.0801
44171W        W87109   9.860  20.153  19.398 -0.1307 -0.1488  0.0863
44172W        W87110   7.453  20.332  16.437  0.2019 -0.3911 -0.1862
44173W        W87111   8.139  22.050  17.161  0.0209  0.1220  0.0398
44174W        W87112   7.861  20.581  16.698 -0.1177  0.1045 -0.1110
44175W        W87113   9.371  20.540  16.321  0.0281 -0.3770 -0.0642
44176W        W87114   8.925  21.279  19.483 -0.0237 -0.4047 -0.1093
44177W        W87115   8.045  21.319  18.322  0.1348  0.0804  0.2445
44178W        W87116   5.729  20.956  17.330 -0.0888 -0.4204  0.0320
44179W        W87117   7.578  20.216  20.380  0.0556 -0.1103 -0.0747
44180W        W87118   7.759  20.061  19.697  0.1531  0.3673  0.1329
44181W        W87119   9.832  20.115  17.995 -0.0979 -0.1907  0.0187
44182W        W87120   9.345  22.387  17.258 -0.1052  0.0430 -0.2333
44183W        W87121   8.890  21.496  16.770  0.2634  0.0977  0.2463
44184W        W87122   9.123  21.135  17.448 -0.1740  0.1010 -0.0704
44185W        W87123   7.689  21.411  20.444 -0.0121  0.2276 -0.0963
44186W        W87124   7.028  21.321  18.965  0.1490  0.3062  0.0921
44187W        W87125   9.058  19.473  19.712  0.0160 -0.1363  0.3800
44188W        W87126   8.808  23.175  15.958 -0.2987 -0.1166  0.3651
44189W        W87127   9.508  19.733  16.708  0.1218 -0.0616  0.0606
44190W        W87128   8.248  19.350  17.353  0.2066  0.1165 -0.0127
44191W        W87129   9.165  19.325  16.618  0.0809 -0.1452 -0.0472
44192W        W87130   9.159  18.731  17.172 -0.1336  0.0019  0.0502
44193W        W87131   6.670  21.082  17.564 -0.4335  0.2128  0.1176
44194W        W87132   8.302  18.455  17.705  0.0500 -0.0220  0.2208
44195W        W87133   9.584  20.889  19.916  0.0918 -0.0608 -0.2936
44196W        W87134   9.110  19.365  18.538 -0.0492 -0.1589  0.0339
44197W        W87135   8.619  21.289  19.842  0.1084 -0.0732  0.1641
44198W        W87136   8.749  21.569  17.387  0.0834  0.0844 -0.1907
44199W        W87137   6.849  19.981  19.536  0.1708 -0.0697  0.0294
44200W        W87138   9.578  20.284  15.894  0.2025  0.1644 -0.2710
44201W        W87139   9.026  21.066  16.445 -0.4480  0.0836 -0.4842
44202W        W87140   9.582  20.592  15.459 -0.0763  0.0153 -0.2638
44203W        W87141   8.602  19.966  16.521 -0.1658 -0.1116 -0.1195
44204W        W87142   7.989  20.450  18.859 -0.0000  0.0223 -0.2821
44205W        W87143   6.825  19.884  19.082 -0.3119  0.2780  0.0672
44206W        W87144   8.196  19.225  15.691 -0.0774  0.0787 -0.2085
44207W        W87145   8.533  18.768  19.680 -0.1083  0.0722  0.0862
44208W        W87146   6.036  21.393  18.793 -0.1566 -0.2053 -0.0304
44209W        W87147   9.814  20.356  16.541 -0.3826 -0.1667 -0.0284
44210W        W87148   8.289  20.540  16.949  0.0561 -0.2199  0.0591
44211W        W87149   9.990  20.795  19.496  0.0932 -0.3054 -0.1104
44212W        W87150   9.524  20.065  16.298  0.0460  0.3443  0.0700
44213W        W87151  10.081  18.571  18.071  0.3859 -0.1433  0.0486
44214W        W87152  10.077  18.114  18.354  0.2660 -0.1635 -0.0156
44215W        W87153   7.892  20.701  16.198 -0.0506 -0.3197  0.0358
44216W        W87154   9.070  19.923  18.782  0.0513 -0.1147 -0.1542
44217W        W87155   9.913  21.377  18.890  0.0935  0.0550  0.1143
44218W        W87156  10.299  20.977  16.880 -0.0003 -0.3240  0.3793
44219W        W87157   7.596  21.053  17.977  0.0998  0.0522  0.1122
44220W        W87158   8.543  17.782  19.320  0.0734  0.0289  0.0966
44221W        W87159   8.349  22.181  20.320  0.0927 -0.3117 -0.2525
44222W        W87160   7.156  21.844  16.281 -0.1508 -0.1461 -0.0158
44223W        W87161   8.349  21.024  17.079 -0.1093  0.0495  0.0162
44224W        W87162   7.038  20.249  17.324 -0.1108 -0.2765 -0.3784
44225W        W87163   6.868  19.433  18.835  0.1990 -0.1236  0.2132
44226W        W87164   8.212  21.520  19.165  0.3055  0.0990 -0.2399
44227W        W87165   9.668  18.877  16.233  0.1530 -0.0095  0.0574
44228W        W87166   7.698  19.763  20.142 -0.3391 -0.3898  0.0367
44229W        W87167  10.002  19.267  16.402 -0.3364  0.2841  0.3068
44230W        W87168   6.725  21.091  18.536 -0.0451 -0.0576 -0.1054
44231W        W87169   9.686  21.134  17.180 -0.0996  0.1630 -0.4235
44232W        W87170  10.747  18.577  15.000 -0.0052  0.1308 -0.1008
44233W        W87171   9.237  20.606  15.812  0.0601  0.4398  0.1448
44234W        W87172   8.603  18.485  18.679 -0.1837 -0.2141 -0.2260
44235W        W87173   7.668  20.028  18.041 -0.0198 -0.2620 -0.4502
44236W        W87174   6.979  17.832  20.331  0.0180 -0.0231  0.2334
44237W        W87175   6.963  19.418  17.522  0.0744  0.2408 -0.1275
44238W        W87176   9.965  20.038  18.537  0.0621 -0.1586 -0.2137
44239W        W87177   8.629  17.948  16.014  0.1358 -0.2472 -0.0094
44240W        W87178   9.366  18.900  16.604  0.1912  0.0626  0.2868
44241W        W87179   8.596  18.888  17.771 -0.0287 -0.0188  0.3145
44242W        W87180   7.112  20.595  16.816 -0.1488 -0.0584 -0.0571
44243W        W87181   9.045  18.512  18.337 -0.0365 -0.0812  0.3196
44244W        W87182   9.432  21.039  17.874  0.0962 -0.1577  0.1113
44245W        W87183   9.368  21.266  20.774 -0.0412  0.1841  0.1118
44246W        W87184  10.075  21.487  18.387 -0.3619 -0.2189 -0.2330
44247W        W87185   7.875  18.273  20.492 -0.0134 -0.0724 -0.1319
44248W        W87186   7.343  18.988  16.334 -0.1026 -0.0164 -0.0425
44249W        W87187   7.759  21.734  18.208 -0.0069 -0.0842 -0.1787
44250W        W87188   8.369  20.594  18.586  0.0661 -0.0983 -0.0118
44251W        W87189   8.052  18.136  16.566  0.1584 -0.0789  0.0934
44252W        W87190   9.377  22.431  18.301 -0.0928  0.0555 -0.1778
44253W        W87191   7.973  19.309  17.814 -0.1660 -0.3072 -0.1110
44254W        W87192   7.803  21.349  18.800  0.0223 -0.2580  0.0818
44255W        W87193  11.053  17.797  19.314 -0.2656 -0.1534  0.1406
44256W        W87194   9.652  18.750  19.001  0.2457  0.1052  0.0422
44257W        W87195  10.046  19.125  17.049 -0.1284 -0.2402 -0.0557
44258W        W87196   7.586  18.037  16.307 -0.0372  0.1298  0.2644
44259W        W87197   8.494  21.929  17.668 -0.0320  0.1339  0.0689
44260W        W87198   7.157  21.941  17.325 -0.0271 -0.3116 -0.0116
44261W        W87199   6.947  21.189  18.004  0.1114  0.1823 -0.0666
44262W        W87200   9.698  22.146  17.080  0.2152  0.2500 -0.2421
44263W        W87201   8.676  18.995  17.303  0.2450 -0.0420  0.1097
44264W        W87202   6.646  20.334  19.823 -0.0587 -0.0769 -0.0839
44265W        W87203   8.770  18.392  17.412 -0.1850 -0.0696  0.1085
44266W        W87204   8.334  19.583  16.716  0.0096 -0.0803 -0.0511
44267W        W87205   7.787  21.353  19.887 -0.0179 -0.2374  0.0232
44268W        W87206   8.603  18.755  16.444 -0.1285  0.2162  0.1074
44269W        W87207  10.525  18.515  16.473 -0.0692  0.0818  0.4112
44270W        W87208   9.564  21.677  20.436  0.0194 -0.0428  0.0799
44271W        W87209   9.256  19.227  17.083 -0.2141 -0.1016  0.1984
44272W        W87210   8.548  19.144  16.034  0.2581 -0.1273  0.0464
44273W        W87211   9.934  18.497  15.373  0.0793 -0.1244 -0.0397
44274W        W87212   6.891  21.555  18.513  0.2286 -0.0088  0.0189
44275W        W87213   9.611  22.097  17.561  0.1879  0.1415  0.0849
44276W        W87214   8.254  21.671  19.803 -0.1847 -0.1351  0.0854
44277W        W87215   8.936  19.469  15.941 -0.0870 -0.1931  0.1025
44278W        W87216   9.887  20.604  17.123 -0.0183 -0.0199 -0.1856
44279W        W87217   7.010  19.965  17.708 -0.3530  0.0961  0.0688
44280W        W87218   8.944  19.187  20.200  0.0930 -0.0575  0.1979
44281W        W87219   9.406  21.102  19.504 -0.4617 -0.1196 -0.3013
44282W        W87220   8.754  19.000  18.361  0.1869 -0.1925  0.2129
44283W        W87221   8.093  19.889  16.303 -0.1916  0.2226 -0.0397
44284W        W87222   7.782  18.739  17.224  0.1621  0.0100  0.1233
44285W        W87223   8.151  21.485  16.804 -0.0717 -0.0520  0.3159
44286W        W87224   9.607  18.908  17.274  0.1946 -0.2013 -0.1589
44287W        W87225   7.714  19.276  17.383 -0.1751 -0.1867  0.1316
44288W        W87226   9.284  17.406  17.425  0.0678  0.0622  0.1755
44289W        W87227  10.930  19.502  18.633  0.1923 -0.2522 -0.0059
44290W        W87228  10.829  18.709  17.351  0.0368 -0.1734  0.6851
44291W        W87229   8.539  20.285  18.189  0.0551  0.0083 -0.1447
44292W        W87230   7.922  19.656  17.009  0.1697 -0.1830  0.1141
44293W        W87231   7.968  17.867  19.233 -0.3859  0.0916  0.3124
44294W        W87232   6.861  20.243  18.160 -0.1747 -0.4342 -0.2778
44295W        W87233   8.549  21.045  17.568  0.2091  0.1792  0.0222
44296W        W87234  10.455  21.045  19.482 -0.1097  0.1723  0.1026
44297W        W87235   8.149  20.940  16.608 -0.1060 -0.2030 -0.1022
44298W        W87236   9.287  17.548  17.938 -0.1533  0.2043  0.0679
44299W        W87237   8.086  18.884  17.590 -0.0713  0.0183  0.1591
44300W        W87238   7.709  22.324  16.775  0.2534 -0.1588 -0.0694
44301W        W87239   7.748  21.192  16.203  0.6260  0.0848 -0.0573
44302W        W87240   8.187  18.858  18.146  0.2244  0.2536  0.3314
44303W        W87241   8.428  21.482  17.895 -0.1575  0.0773  0.0346
44304W        W87242   8.511  21.735  16.517  0.0553 -0.2260  0.3331
44305W        W87243   9.120  19.554  19.238  0.0213  0.3905  0.1076
44306W        W87244   7.991  21.635  16.320  0.1674 -0.0094  0.0084
44307W        W87245   9.446  19.246  18.218 -0.0367  0.3336  0.1535
44308W        W87246   6.600  22.192  18.093  0.0669 -0.1551  0.2562
44309W        W87247   8.230  18.785  16.016 -0.0044 -0.0121 -0.0928
44310W        W87248   7.250  20.372  15.732 -0.1465  0.1350 -0.1025
44311W        W87249   9.307  18.246  17.315 -0.3366  0.1769  0.0453
44312W        W87250  10.680  21.279  16.825 -0.0436 -0.0808 -0.0662
44313W        W87251   7.750  19.413  18.859 -0.2383  0.2771  0.0679
44314W        W87252   9.151  17.258  16.821 -0.0471 -0.2508 -0.0777
44315W        W87253   7.560  20.317  17.043  0.2015  0.0449 -0.2668
44316W        W87254   9.618  19.283  18.865 -0.4152 -0.2013  0.1158
44317W        W87255  10.332  17.691  15.808 -0.1692  0.2723 -0.0778
44318W        W87256   8.084  20.868  18.009 -0.0740 -0.0994  0.2434
44319W        W87257   8.049  19.839  20.489  0.0838  0.1803 -0.1554
44320W        W87258   7.613  19.393  16.500  0.0576  0.1399  0.1970
44321W        W87259   8.900  18.459  19.579 -0.0212 -0.0777 -0.0150
44322W        W87260   8.705  19.440  17.495 -0.0340 -0.1321 -0.1217
44323W        W87261   6.646  21.214  16.533  0.1210  0.1567  0.1299
44324W        W87262   8.672  21.488  18.889 -0.0976 -0.0299  0.1380
44325W        W87263   8.681  19.701  18.369 -0.0491 -0.0215  0.0469
44326W        W87264   6.634  20.651  18.084 -0.2207  0.2602  0.1117
44327W        W87265   5.834  20.130  20.288 -0.0066  0.1936  0.0307
44328W        W87266   8.690  21.878  18.565  0.1814 -0.1159  0.0777
44329W        W87267   9.487  20.264  18.520  0.0137  0.2864  0.0368
44330W        W87268   8.737  19.449  16.982  0.1413  0.3823 -0.1796
44331W        W87269   9.912  20.522  18.511  0.0465 -0.1448  0.2023
44332W        W87270   8.948  22.208  17.620 -0.1454 -0.1246  0.0889
44333W        W87271   7.665  19.853  19.005 -0.0065  0.1761  0.0279
44334W        W87272   6.992  20.093  20.418 -0.0969 -0.1345  0.0456
44335W        W87273   8.512  17.965  17.922 -0.0770 -0.1649  0.0498
44336W        W87274   9.488  21.106  16.306 -0.0262  0.1701  0.0490
44337W        W87275  10.148  19.708  18.203  0.2559 -0.1293  0.2739
44338W        W87276   7.500  20.254  18.656 -0.1457 -0.1993 -0.2893
44339W        W87277   8.162  19.712  18.805 -0.2950 -0.2897 -0.2322
44340W        W87278   8.536  21.233  16.576  0.1711  0.2086  0.3335
44341W        W87279   9.923  19.250  18.033  0.1829 -0.0017 -0.0761
44342W        W87280   6.608  20.280  17.719  0.1876 -0.0146 -0.0106
44343W        W87281   9.077  20.623  15.306 -0.0025  0.1690  0.0547
44344W        W87282   7.968  20.647  19.677  0.2901 -0.0731  0.2775
44345W        W87283  10.359  18.269  15.251  0.1291 -0.0163  0.0125
44346W        W87284  10.203  21.421  17.015  0.1815 -0.1049  0.0078
44347W        W87285   9.325  19.772  17.278  0.1475 -0.1273 -0.0541
44348W        W87286   9.339  18.065  18.173  0.1384 -0.4428 -0.0091
44349W        W87287   9.166  20.706  16.778  0.0580 -0.2800 -0.1392
44350W        W87288  11.168  18.343  19.456  0.0271  0.0819 -0.0625
44351W        W87289   7.302  19.465  19.105 -0.0733  0.3365 -0.0091
44352W        W87290   9.318  20.536  17.670 -0.2910  0.0079 -0.2378
44353W        W87291   6.188  18.730  19.801 -0.0960  0.0887 -0.0378
44354W        W87292   9.472  22.684  20.769  0.3309 -0.0052  0.2361
44355W        W87293   7.779  20.100  20.901  0.1728  0.0164  0.1132
44356W        W87294   8.923  18.930  16.778  0.1583 -0.1401 -0.3348
44357W        W87295   8.000  18.238  17.105 -0.2033  0.2477  0.0882
44358W        W87296   7.305  19.979  19.281  0.0738  0.1998 -0.0148
44359W        W87297   9.972  19.825  17.631  0.0393 -0.1777 -0.1328
44360W        W87298   8.826  20.376  17.600  0.1945  0.0364 -0.0095
44361W        W87299   8.776  19.896  17.906 -0.0365 -0.0191 -0.2159
44362W        W87300   6.548  20.828  18.973 -0.2955 -0.1085  0.1307
44363W        W87301   9.158  19.049  17.553 -0.0553  0.2609 -0.0417
44364W        W87302   8.779  20.438  15.717 -0.4017 -0.2392 -0.0874
44365W        W87303   6.440  21.540  18.400  0.1846 -0.3799  0.0501
44366W        W87304   6.968  19.637  20.935 -0.2352  0.0059  0.3639
44367W        W87305   9.311  21.190  18.931  0.2155  0.0739  0.1169
44368W        W87306  10.321  18.191  17.293 -0.1390 -0.3103  0.0428
44369W        W87307   9.273  19.110  19.097 -0.1422 -0.0221  0.2267
44370W        W87308   8.786  18.398  17.920 -0.1853 -0.4694 -0.0768
44371W        W87309   7.745  20.363  19.293  0.1458 -0.0686 -0.2177
44372W        W87310   6.417  20.067  20.250  0.2400  0.2090  0.0753
44373W        W87311   8.975  22.422  20.678 -0.0214 -0.1077  0.1088
44374W        W87312  10.668  18.996  15.782  0.1400  0.1093 -0.0384
44375W        W87313   9.068  18.892  17.989  0.1160  0.1263  0.3253
44376W        W87314  10.955  18.683  18.800  0.1183 -0.0547  0.4411
44377W        W87315   8.029  18.402  18.715 -0.2074  0.2456 -0.0765
44378W        W87316   8.531  19.337  18.032 -0.0335  0.0881  0.1237
44379W        W87317   8.021  18.881  19.741  0.1457  0.1896  0.1881
44380W        W87318   7.124  18.229  16.079 -0.0623  0.0531 -0.1284
44381W        W87319   9.209  17.515  18.509 -0.1071  0.1975 -0.0390
44382W        W87320   8.246  22.044  16.092  0.2337 -0.2687 -0.0955
44383W        W87321   9.023  20.846  19.237 -0.0161 -0.1772 -0.1488
44384W        W87322   9.105  18.512  16.554  0.6703 -0.1333 -0.0893
44385W        W87323   7.441  19.417  17.831  0.1148  0.0147 -0.1340
44386W        W87324   8.010  21.000  20.243 -0.0812  0.4520 -0.1020
44387W        W87325   7.677  19.975  16.681  0.0421 -0.1871 -0.0302
44388W        W87326   8.394  20.786  16.084 -0.1415  0.1251 -0.1677
44389W        W87327   8.442  20.366  20.485  0.0444  0.2808 -0.1204
44390W        W87328   9.457  19.686  19.932  0.0218 -0.0227  0.1856
44391W        W87329   7.925  20.104  17.270  0.1111  0.0647  0.5276
44392W        W87330   8.947  17.238  19.503 -0.2307  0.3745  0.2681
44393W        W87331   8.336  20.387  16.472  0.2600 -0.0157  0.0849
44394W        W87332   7.797  18.415  17.570 -0.0920  0.1782  0.3014
44395W        W87333   7.940  20.871  19.067  0.0356 -0.0915 -0.5358
44396W        W87334   8.490  20.831  19.639 -0.2884  0.2369 -0.0144
44397W        W87335   8.497  21.784  17.042 -0.0779 -0.0474  0.2847
44398W        W87336   8.616  18.462  16.880 -0.1685 -0.1164  0.0397
44399W        W87337   8.780  19.164  19.373  0.1477  0.4055  0.0911
44400W        W87338   9.349  20.023  17.776 -0.0834 -0.3021 -0.0490
44401W        W87339   9.344  20.087  19.559 -0.2610  0.1580  0.0251
44402W        W87340   9.742  22.640  21.181  0.0393 -0.3849  0.3005
44403W        W87341   9.019  19.492  17.888 -0.1080  0.3694  0.1578
44404W        W87342   9.579  23.126  18.667  0.3046  0.0955  0.2579
44405W        W87343  11.181  20.980  16.495  0.1594  0.2668  0.1773
44406W        W87344   8.838  21.087  17.051  0.2740  0.2797 -0.0448
44407W        W87345   6.730  19.373  19.380  0.3849  0.0742  0.0402
44408W        W87346   9.708  20.728  18.975  0.0845  0.3873 -0.2458
44409W        W87347  10.347  20.208  17.797  0.1511 -0.1119  0.0141
44410W        W87348   6.754  18.567  17.796 -0.1688  0.1102 -0.0972
44411W        W87349   8.752  20.473  16.214 -0.0227  0.1553 -0.1007
44412W        W87350   7.132  20.314  18.971  0.5074 -0.1745  0.0505
44413W        W87351   7.252  20.072  19.861  0.1590  0.0828 -0.1554
44414W        W87352   7.309  21.515  17.079 -0.0787 -0.1397  0.2702
44415W        W87353  10.316  19.617  17.247  0.0170  0.0044  0.2739
44416W        W87354   8.682  20.717  16.638 -0.0845 -0.2594  0.2255
44417W        W87355  10.829  21.630  18.996  0.1602  0.3150 -0.3103
44418W        W87356   7.747  18.967  15.995  0.2059  0.0560 -0.0809
44419W        W87357   7.980  23.051  18.851  0.1644 -0.0859  0.1841
44420W        W87358   8.895  21.992  16.692  0.0210 -0.1410  0.0546
44421W        W87359   9.224  21.832  17.076 -0.2594 -0.2218 -0.4350
44422W        W87360   7.752  20.582  17.757 -0.0901  0.0375 -0.0174
44423W        W87361   9.851  21.437  19.470  0.0859  0.1940  0.1711
44424W        W87362  10.403  18.742  15.355  0.1599  0.2140  0.0078
44425W        W87363  10.327  19.114  17.783  0.2612  0.1379  0.0619
44426W        W87364  10.712  18.934  16.258 -0.0386 -0.6845  0.3627
44427W        W87365   9.558  21.535  18.084  0.3269 -0.0307  0.1198
44428W        W87366   8.436  20.590  17.794 -0.4410  0.2847  0.0350
44429W        W87367   7.180  17.824  16.499 -0.2287  0.0868  0.1083
44430W        W87368   8.402  21.374  20.487  0.2238 -0.1839  0.0641
44431W        W87369  11.639  19.187  18.214  0.2137  0.4117 -0.3123
44432W        W87370   7.512  20.699  18.945 -0.1013 -0.0846  0.2249
44433W        W87371   9.289  21.239  16.863 -0.0270 -0.2096  0.0421
44434W        W87372   8.385  19.826  17.189  0.1232  0.0182  0.1532
44435W        W87373   7.747  21.015  16.940 -0.4320  0.0089  0.2208
44436W        W87374   9.841  16.570  17.069 -0.0093 -0.1680  0.1033
44437W        W87375   6.694  20.744  16.396 -0.0451 -0.5952 -0.1747
44438W        W87376   9.501  19.702  18.541  0.0280 -0.2828  0.1446
44439W        W87377   7.794  21.536  17.218 -0.1575 -0.2640  0.3010
44440W        W87378   7.864  21.812  18.998  0.0315  0.1436  0.0290
44441W        W87379   8.812  21.902  18.026  0.1708 -0.2993  0.1257
44442W        W87380   7.198  17.670  16.012 -0.0835  0.1033  0.3107
44443W        W87381  10.480  19.073  17.333  0.0293  0.0001  0.1621
44444W        W87382   8.046  20.233  20.129 -0.0008  0.0755  0.3140
44445W        W87383   9.931  19.250  17.552  0.0497  0.3988  0.3082
44446W        W87384   8.176  20.081  16.768  0.0012 -0.2539  0.2422
44447W        W87385  10.068  18.441  16.287 -0.0154 -0.4377 -0.2149
44448W        W87386   9.189  19.852  18.240  0.3339  0.4273  0.1010
44449W        W87387   6.643  20.065  20.763 -0.0199  0.0188 -0.0659
44450W        W87388   8.220  20.289  15.956  0.0572  0.2614  0.0098
44451W        W87389   9.173  20.371  19.164  0.2166 -0.0379  0.0864
44452W        W87390   9.342  18.531  15.989  0.1943 -0.0149  0.2333
44453W        W87391  10.120  20.647  17.999  0.1439  0.2630 -0.2594
44454W        W87392   6.984  16.459  18.531 -0.2595  0.0249  0.1984
44455W        W87393   9.773  19.540  17.217  0.1178  0.1386  0.0098
44456W        W87394   8.679  20.184  16.976 -0.1062 -0.2001  0.0520
44457W        W87395   8.694  19.585  19.001 -0.1820 -0.0607  0.2849
44458W        W87396   9.798  22.275  20.843 -0.0672 -0.1454 -0.2947
44459W        W87397   6.565  17.671  17.268 -0.1428 -0.2003 -0.1329
44460W        W87398   9.622  20.809  16.736  0.0320  0.3027 -0.3058
44461W        W87399  10.336  20.257  18.295  0.1538  0.0985 -0.1652
44462W        W87400   9.797  22.148  16.303  0.1148 -0.0425 -0.2981
44463W        W87401   9.679  19.285  16.774  0.2887 -0.1074 -0.0893
44464W        W87402   9.133  21.978  18.473  0.1506  0.0522  0.3461
44465W        W87403   7.197  19.806  18.743 -0.0896  0.0965 -0.1180
44466W        W87404   8.892  20.839  17.840  0.0765 -0.0072  0.1111
44467W        W87405  10.710  20.698  18.175  0.1907  0.3458  0.1152
44468W        W87406   8.432  19.066  16.803  0.0745 -0.3904 -0.1701
44469W        W87407   7.044  19.034  17.897  0.1733  0.1555  0.1626
44470W        W87408   7.389  20.735  17.200 -0.0345  0.2406 -0.1026
44471W        W87409   9.722  18.526  17.011 -0.1163 -0.0278 -0.0255
44472W        W87410  10.028  19.354  18.533 -0.0672 -0.1260  0.1988
44473W        W87411   8.272  21.223  16.139  0.1427 -0.1577  0.3840
44474W        W87412   9.219  17.077  18.267 -0.0584  0.1303  0.0082
44475W        W87413   8.855  20.735  20.312 -0.4264  0.0663 -0.2315
44476W        W87414   8.595  21.137  21.476  0.4942 -0.0652  0.0671
44477W        W87415   7.105  20.041  16.039  0.0325  0.1747  0.3231
44478W        W87416   8.691  20.366  20.045  0.0068  0.0858  0.2008
44479W        W87417   7.327  21.918  16.833 -0.0132 -0.2771 -0.4241
44480W        W87418   8.328  22.146  16.690 -0.0888  0.0589 -0.1337
44481W        W87419  10.401  21.313  18.748 -0.2055  0.0299  0.0208
44482W        W87420   9.620  18.876  17.788  0.0834  0.0813 -0.1408
44483W        W87421  10.327  20.462  16.783  0.1789 -0.4614 -0.0328
44484W        W87422   8.594  19.603  19.494  0.0794  0.2090  0.3123
44485W        W87423  11.409  18.558  15.616  0.1367 -0.3362  0.3960
44486W        W87424  10.210  18.247  16.800 -0.3358  0.2565 -0.1047
44487W        W87425   8.754  19.099  18.853 -0.2251  0.2047 -0.0684
44488W        W87426   6.790  18.928  17.442 -0.1810  0.6276  0.0199
44489W        W87427   7.096  20.679  16.074  0.0021 -0.1640 -0.0439
44490W        W87428   7.405  19.674  17.404 -0.0792 -0.0651  0.0251
44491W        W87429   8.441  17.528  20.431  0.2151 -0.1241  0.1724
44492W        W87430   6.453  19.173  18.734 -0.0867 -0.2007 -0.1565
44493W        W87431   6.639  21.603  17.535 -0.1721  0.0500 -0.0540
44494W        W87432   7.472  19.033  16.931 -0.2937 -0.1628  0.0865
44495W        W87433   9.351  20.764  17.200 -0.3098 -0.2316 -0.0795
44496W        W87434   7.586  18.928  17.929  0.1432 -0.0715  0.0084
44497W        W87435   5.939  19.157  18.977  0.0404  0.2079  0.0308
44498W        W87436   9.585  20.614  18.130 -0.0968 -0.2772 -0.3254
44499W        W87437   9.359  22.096  17.990  0.2371 -0.0341  0.3163
44500W        W87438   7.319  19.496  16.923 -0.1132 -0.1673 -0.1534
44501W        W87439   8.980  20.037  20.505  0.0261 -0.4660 -0.1842
44502W        W87440   8.122  19.721  18.259 -0.1670 -0.0962  0.1698
44503W        W87441   9.000  20.929  19.824 -0.2289  0.1889 -0.1182
44504W        W87442   7.256  20.493  19.450  0.1472  0.0341 -0.0836
44505W        W87443   6.066  18.835  17.978 -0.1445  0.2642 -0.3024
44506W        W87444   7.687  18.162  18.468  0.0904 -0.3150  0.1542
44507W        W87445   9.088  22.714  16.884  0.0687  0.2451  0.0675
44508W        W87446   8.812  21.861  16.133 -0.0723  0.2619  0.1756
44509W        W87447   8.168  19.702  19.807 -0.0027  0.3307  0.2264
44510W        W87448   8.244  20.199  19.684  0.5033 -0.0243  0.0471
44511W        W87449   8.258  19.227  19.508  0.0282 -0.2434  0.2770
44512W        W87450   9.248  18.926  18.558 -0.0502 -0.0164 -0.0560
44513W        W87451   8.256  20.143  20.889 -0.1272  0.1920  0.1101
44514W        W87452  10.448  19.513  16.458  0.1053  0.1755  0.4459
44515W        W87453  11.236  18.052  18.081 -0.0124 -0.1322 -0.1627
44516W        W87454   9.052  19.830  16.860 -0.0529  0.3412 -0.0053
44517W        W87455   8.267  18.653  19.236 -0.1445  0.2651 -0.0336
44518W        W87456   8.889  18.846  21.093  0.1543 -0.1683 -0.1197
44519W        W87457  11.121  20.740  17.187  0.0107  0.1508 -0.0273
44520W        W87458   7.038  17.443  16.924  0.1243 -0.0382 -0.1660
44521W        W87459   9.624  18.214  15.736  0.1993  0.0683 -0.1048
44522W        W87460  10.709  23.152  16.123  0.2502 -0.1944 -0.3480
44523W        W87461   7.639  19.765  18.472  0.1660  0.3081 -0.1819
44524W        W87462   8.473  17.996  16.878 -0.1140  0.0654  0.2541
44525W        W87463   8.114  19.240  20.285  0.2960 -0.1032  0.0756
44526W        W87464   8.839  22.207  17.117  0.1947 -0.0111 -0.1602
44527W        W87465   8.782  20.997  18.741  0.1229  0.2267 -0.2395
44528W        W87466   9.046  20.263  16.600 -0.0211  0.0829 -0.0457
44529W        W87467  10.085  20.301  16.043  0.0324  0.1251 -0.1085
44530W        W87468   9.488  22.511  20.154  0.2247 -0.3339  0.0562
44531W        W87469   9.016  21.625  19.964  0.0129 -0.1238  0.0649
44532W        W87470  10.338  21.521  19.287  0.2149 -0.3215 -0.0687
44533W        W87471   9.453  19.456  17.623 -0.1009 -0.2056  0.2437
44534W        W87472   7.429  18.565  18.239  0.0059  0.0483  0.2297
44535W        W87473   8.375  19.711  17.714  0.2458  0.2800  0.1378
44536W        W87474   8.778  20.672  17.228  0.1846  0.1192 -0.2436
44537W        W87475  10.028  18.665  17.418 -0.0973 -0.3245 -0.0056
44538W        W87476   8.565  20.086  18.650 -0.0098 -0.0547 -0.0754
44539W        W87477  10.120  19.076  15.632 -0.0522  0.2652 -0.1101
44540W        W87478   8.925  23.109  19.448  0.0624 -0.3797  0.1213
44541W        W87479   8.361  20.320  17.348 -0.2121 -0.1611 -0.0505
44542W        W87480   8.643  20.683  23.279 -0.1100  0.1107  0.1152
44543W        W87481   9.144  20.634  21.087  0.0835 -0.3920 -0.4968
44544W        W87482   9.750  18.881  18.530 -0.1046 -0.1666  0.1128
44545W        W87483  11.361  19.689  20.451  0.0791  0.2922  0.0891
44546W        W87484   6.360  19.908  21.820  0.1183 -0.1224  0.1228
44547W        W87485  11.284  22.663  21.951 -0.1424 -0.2802 -0.1009
44548W        W87486   7.271  18.446  22.477 -0.1922  0.2382  0.1460
44549W        W87487   9.493  20.614  22.677 -0.0799  0.0964 -0.4477
44550W        W87488  10.008  19.694  21.559 -0.2888  0.0450 -0.0056
44551W        W87489   9.269  20.192  20.884  0.2295  0.2292 -0.0339
44552W        W87490   8.853  19.021  22.510 -0.3270 -0.3563 -0.0466
44553W        W87491  10.549  22.990  21.310 -0.1293  0.1946  0.0436
44554W        W87492   8.457  18.243  19.530 -0.2310 -0.0110  0.2168
44555W        W87493   6.345  18.695  22.377 -0.0400  0.0566 -0.0841
44556W        W87494  10.684  19.126  21.572  0.0727  0.1755  0.0527
44557W        W87495   8.356  19.063  21.154 -0.3421  0.1425 -0.0958
44558W        W87496  10.139  19.678  22.688  0.1635 -0.2236 -0.0195
44559W        W87497   7.363  19.831  21.112  0.0021  0.0749 -0.1417
44560W        W87498   9.064  21.436  22.058  0.2615 -0.2631  0.0394
44561W        W87499   8.211  19.207  22.527 -0.0314 -0.2208  0.0508
44562W        W87500   8.762  18.423  23.041  0.0920 -0.2849 -0.0210
44563W        W87501   7.711  20.916  21.684 -0.1836  0.1280  0.2600
44564W        W87502   6.970  19.120  21.075 -0.0794 -0.1255  0.0924
44565W        W87503   6.537  19.287  22.300 -0.0030  0.0258  0.0477
44566W        W87504   8.771  19.916  22.715 -0.1035 -0.1325  0.1056
44567W        W87505   9.498  19.257  22.135 -0.1264 -0.2173  0.1788
44568W        W87506  10.343  19.399  21.298 -0.1767  0.2145  0.2167
44569W        W87507   7.055  22.298  23.066 -0.2716  0.0411 -0.1613
44570W        W87508   8.971  22.362  21.773 -0.0256  0.0674  0.0413
44571W        W87509   9.134  19.574  22.518 -0.0291 -0.0480  0.2534
44572W        W87510   7.289  20.283  21.423 -0.2180  0.0308  0.2618
44573W        W87511   8.146  21.136  21.867  0.1946 -0.1858  0.0804
44574W        W87512   9.827  20.859  22.217  0.2276 -0.0437 -0.2521
44575W        W87513   8.866  21.450  20.945  0.2118  0.2507  0.1278
44576W        W87514  10.548  19.734  23.016  0.1419 -0.1386  0.0302
44577W        W87515   8.174  21.785  24.055  0.0119  0.0524  0.1019
44578W        W87516   8.892  21.353  20.475  0.2542 -0.0234  0.1472
44579W        W87517   8.157  21.548  23.308  0.0897 -0.1217 -0.0213
44580W        W87518   6.825  22.181  23.523 -0.1755  0.2039  0.1988
44581W        W87519   8.897  20.724  21.577 -0.3516  0.2661  0.0026
44582W        W87520   9.253  19.173  21.122  0.1502  0.0272 -0.0343
44583W        W87521   9.258  22.099  21.515 -0.1100  0.4412 -0.1698
44584W        W87522   9.604  19.912  21.294  0.0643  0.1481 -0.0208
44585W        W87523   8.920  20.793  24.139 -0.0364  0.0343  0.1052
44586W        W87524   7.519  20.732  23.173  0.0549 -0.0767  0.0334
44587W        W87525  11.435  19.941  23.924  0.3826 -0.3023  0.1748
44588W        W87526   8.045  21.579  20.837 -0.1076 -0.1046  0.0872
44589W        W87527   8.013  18.927  20.757 -0.0711 -0.1133  0.0407
44590W        W87528   6.597  19.271  19.909 -0.0846  0.1735  0.0624
44591W        W87529  10.555  17.353  18.592  0.0393 -0.2276  0.3054
44592W        W87530   9.135  18.706  21.485  0.0633 -0.0608  0.0013
44593W        W87531   7.314  22.270  20.979 -0.3581  0.0208 -0.1577
44594W        W87532   9.287  18.467  22.319  0.1427  0.3048  0.1481
44595W        W87533  10.158  20.487  22.690 -0.3197 -0.1150  0.2731
44596W        W87534   8.225  18.457  20.007  0.2021 -0.0686  0.2406
44597W        W87535   9.532  19.603  21.793 -0.1027  0.1867  0.1300
44598W        W87536   9.298  21.024  23.396  0.4254  0.1710  0.0709
44599W        W87537   6.854  20.405  21.216 -0.2256  0.2971  0.2641
44600W        W87538  10.888  22.805  22.292  0.1573  0.1432 -0.2114
44601W        W87539  10.035  21.015  21.062 -0.0067 -0.4452 -0.1275
44602W        W87540   8.720  20.405  19.539  0.3281 -0.1338  0.0218
44603W        W87541   7.966  19.004  22.093  0.0225 -0.2151 -0.2165
44604W        W87542   7.708  20.387  24.869  0.3500 -0.1846  0.2467
44605W        W87543   8.946  21.075  23.027  0.0217 -0.3080  0.0452
44606W        W87544   7.117  18.417  19.795 -0.0738 -0.0726  0.2345
44607W        W87545  10.796  21.057  23.575 -0.0131 -0.3992 -0.2494
44608W        W87546   6.295  21.157  22.573 -0.1655  0.1310  0.1301
44609W        W87547   8.755  18.563  20.048  0.0771 -0.2745 -0.0394
44610W        W87548   8.667  21.771  22.711 -0.0298  0.0264  0.0978
44611W        W87549  10.125  20.585  21.945 -0.1604  0.1672  0.2377
44612W        W87550   9.052  18.132  19.966  0.0076  0.2342  0.1906
44613W        W87551   9.249  18.574  19.955 -0.1268  0.1011 -0.0216
44614W        W87552  10.798  19.695  23.444 -0.1891 -0.1538  0.0508
44615W        W87553   8.783  19.915  20.897 -0.0203 -0.0631  0.1593
44616W        W87554   7.984  20.495  20.538  0.1174 -0.1715 -0.0439
44617W        W87555  10.667  21.670  23.641  0.2084 -0.1907 -0.0220
44618W        W87556   8.677  20.567  18.986  0.3411 -0.1461 -0.3408
44619W        W87557   9.182  20.191  22.672  0.0735 -0.1559  0.3043
44620W        W87558   9.921  19.715  22.209  0.0760  0.0458 -0.3166
44621W        W87559   9.208  21.557  22.997 -0.2731 -0.0840 -0.1142
44622W        W87560   7.420  22.088  18.960  0.0961  0.2345 -0.2385
44623W        W87561   7.593  19.851  21.565 -0.0199  0.3333  0.0349
44624W        W87562   8.071  21.289  21.409  0.0582  0.0872 -0.0617
44625W        W87563   7.326  18.906  21.413 -0.3098  0.1044 -0.2668
44626W        W87564   8.720  19.412  21.090  0.0066  0.1665 -0.2655
44627W        W87565  10.443  19.471  19.016  0.0252 -0.2251  0.0376
44628W        W87566   7.187  19.632  23.918 -0.1361  0.1125  0.0681
44629W        W87567   9.327  17.367  20.366 -0.2592 -0.2460 -0.1404
44630W        W87568   7.863  20.820  22.733  0.1240  0.2425  0.0322
44631W        W87569  10.285  21.707  21.481  0.0188  0.1610 -0.1005
44632W        W87570   8.444  17.268  19.322  0.0531 -0.0005  0.0672
44633W        W87571  10.136  21.231  20.626 -0.1341 -0.0758  0.2466
44634W        W87572   6.597  19.794  23.623  0.1777  0.3797 -0.0078
44635W        W87573   7.459  19.024  20.922 -0.2189 -0.1542  0.3155
44636W        W87574   9.166  18.672  22.767 -0.1125  0.0843 -0.1684
44637W        W87575   6.853  18.854  22.296  0.0565 -0.0664  0.1294
44638W        W87576   9.152  19.745  23.026  0.1406  0.1865 -0.2007
44639W        W87577   6.483  17.542  20.131 -0.1781 -0.3981 -0.2494
44640W        W87578  10.341  19.416  21.895  0.0939  0.0111  0.2595
44641W        W87579   9.271  20.504  20.497  0.3954 -0.0054 -0.1196
44642W        W87580   5.993  20.531  21.071 -0.0546  0.0645 -0.0420
44643W        W87581  11.598  19.212  22.983  0.0768  0.2129  0.1038
44644W        W87582   7.715  21.462  19.318 -0.3376 -0.1745  0.1713
44645W        W87583  10.526  20.994  22.594  0.0637  0.0364 -0.2072
44646W        W87584  10.722  21.433  21.713  0.2166  0.0925 -0.0975
44647W        W87585   7.898  18.755  21.322 -0.1257 -0.1895 -0.2432
44648W        W87586   7.238  20.230  20.834  0.0449 -0.0805  0.0218
44649W        W87587   7.072  21.109  22.300 -0.2227  0.0383  0.0551
44650W        W87588   9.868  21.037  22.695 -0.0036  0.1670  0.0238
44651W        W87589   5.651  19.648  20.281  0.1739  0.1935 -0.0541
44652W        W87590  11.726  21.172  21.933  0.0988  0.0353  0.0729
44653W        W87591   8.394  20.767  20.117  0.0336 -0.1758  0.0051
44654W        W87592   6.904  20.529  22.120  0.1977 -0.0157  0.0219
44655W        W87593  10.440  19.527  22.374  0.0173 -0.0840  0.0220
44656W        W87594  10.959  20.437  22.091  0.2410  0.2161  0.4933
44657W        W87595   9.506  19.621  20.448  0.2203  0.0737 -0.0984
44658W        W87596   7.262  19.109  19.480 -0.0764 -0.0153  0.2779
44659W        W87597   8.646  21.065  21.954 -0.0169  0.1356  0.2651
44660W        W87598   8.548  19.777  21.338  0.1847 -0.1329  0.0351
44661W        W87599   6.995  19.201  21.600  0.0312  0.2165 -0.0315
44662W        W87600   9.881  21.317  21.418  0.0884 -0.1269 -0.1078
44663W        W87601   8.332  18.543  20.492  0.0945 -0.2283  0.1326
44664W        W87602   9.631  19.828  23.345  0.1573 -0.2362  0.2801
44665W        W87603   8.979  19.474  22.020 -0.1306  0.3956  0.1470
44666W        W87604   6.981  20.860  20.891 -0.0354  0.2818 -0.1331
44667W        W87605   8.014  20.860  24.648  0.0941  0.0676  0.1589
44668W        W87606  10.459  18.941  21.101  0.1478 -0.0127 -0.1478
44669W        W87607  10.528  18.249  18.979  0.1157 -0.0700 -0.0462
44670W        W87608   8.614  19.790  21.808  0.0066  0.1823 -0.4715
44671W        W87609  10.100  19.692  20.487  0.5021 -0.1522  0.2227
44672W        W87610   9.723  18.283  19.181 -0.1082  0.0643  0.0084
44673W        W87611   7.752  17.733  20.318 -0.1296  0.0658  0.0729
44674W        W87612   7.598  21.316  23.308 -0.2473 -0.0100 -0.3213
44675W        W87613   7.967  21.252  22.405 -0.1682 -0.0637 -0.0823
44676W        W87614  10.360  21.006  22.079  0.0429 -0.1237 -0.4097
44677W        W87615   8.476  18.035  18.502  0.1449 -0.1606  0.0093
44678W        W87616   8.958  21.919  21.116  0.1396 -0.1139 -0.2994
44679W        W87617   8.604  20.538  22.191  0.0304  0.0387 -0.0006
44680W        W87618   8.730  21.690  23.900 -0.0160 -0.2010  0.2799
44681W        W87619   9.582  21.257  21.828  0.1172  0.1388 -0.2170
44682W        W87620   9.890  18.791  22.102 -0.1528  0.0396 -0.2107
44683W        W87621   7.740  19.608  20.822  0.1742  0.3273 -0.2422
44684W        W87622   7.187  19.503  20.192  0.3119  0.3017  0.1598
44685W        W87623   6.554  22.168  18.593  0.1888  0.2161  0.1294
44686W        W87624  10.368  18.271  21.578  0.1288 -0.1365 -0.0254
44687W        W87625   9.042  19.295  20.684 -0.0844 -0.3101  0.3146
44688W        W87626   7.820  17.321  21.954  0.0448 -0.2068  0.2916
44689W        W87627   9.386  19.940  22.305  0.0772 -0.3069  0.0978
44690W        W87628   9.754  18.629  20.343  0.0612 -0.0794  0.0071
44691W        W87629   9.674  19.960  20.733  0.0743 -0.0798  0.0588
44692W        W87630   7.981  20.955  20.820  0.0312 -0.0545  0.1291
44693W        W87631   9.019  19.077  23.750 -0.0258  0.1697 -0.0293
44694W        W87632   7.473  19.971  23.123  0.2096  0.1076  0.2487
44695W        W87633   7.683  20.776  23.670 -0.4630 -0.1664  0.1609
44696W        W87634   9.864  20.707  23.083 -0.0456  0.3014  0.2081
44697W        W87635   8.891  20.988  20.829  0.0478 -0.1708  0.0007
44698W        W87636   8.253  19.593  23.644 -0.1348  0.0165  0.3514
44699W        W87637   7.660  19.191  19.854  0.0680 -0.4073  0.6489
44700W        W87638   8.135  20.480  22.044  0.0035  0.1465  0.2945
44701W        W87639   8.108  21.120  19.542  0.0710  0.2366 -0.3091
44702W        W87640   8.237  18.932  21.660 -0.0362  0.0699  0.3657
44703W        W87641   8.499  19.802  23.173  0.0165 -0.1234 -0.3746
44704W        W87642   9.360  21.791  20.877 -0.0451  0.2580  0.3458
44705W        W87643   8.649  20.265  21.777 -0.0584 -0.1666 -0.0208
44706W        W87644   8.273  20.795  22.451  0.0266  0.0740 -0.1612
44707W        W87645   9.299  16.938  22.196  0.1355  0.1006 -0.2818
44708W        W87646   8.061  20.289  22.579  0.1919 -0.1653 -0.1969
44709W        W87647   8.267  19.434  21.576  0.1056 -0.0770 -0.0762
44710W        W87648   5.804  20.268  19.502 -0.0975 -0.1960  0.1394
44711W        W87649   9.208  18.293  20.594  0.0799  0.1568  0.2733
44712W        W87650   9.580  20.152  20.248  0.2225 -0.0832 -0.1313
44713W        W87651   7.354  19.391  21.242 -0.0549 -0.0108 -0.2476
44714W        W87652   8.940  17.823  20.401 -0.0212 -0.0081 -0.2559
44715W        W87653   6.585  22.437  22.764 -0.2144  0.1393  0.0500
44716W        W87654  10.003  20.242  21.468  0.1379 -0.1401  0.0997
44717W        W87655   8.376  16.318  19.829 -0.0408  0.0720 -0.1113
44718W        W87656   9.546  20.436  22.212 -0.0928  0.0567 -0.1101
44719W        W87657   7.351  19.417  23.067  0.0574  0.1467  0.0414
44720W        W87658   6.432  20.469  20.836  0.0147 -0.0022 -0.1373
44721W        W87659   9.732  20.018  21.862 -0.1083 -0.1996  0.0080
44722W        W87660   7.415  19.446  21.835  0.0243 -0.2301 -0.1535
44723W        W87661   8.458  20.954  22.912 -0.1549  0.0888  0.0030
44724W        W87662   9.136  20.653  23.037 -0.1684 -0.0755  0.0169
44725W        W87663   8.997  19.677  20.175 -0.0138 -0.1168 -0.0851
44726W        W87664   8.078  21.035  23.417  0.1595 -0.4274  0.3127
44727W        W87665   9.248  19.242  22.811 -0.0333 -0.0380  0.0307
44728W        W87666   9.125  19.627  21.429 -0.3046  0.1371 -0.0779
44729W        W87667   8.330  18.767  22.309 -0.1414 -0.1726 -0.2445
44730W        W87668   6.406  18.912  20.312  0.3026 -0.1567  0.0145
44731W        W87669   7.035  20.186  22.444 -0.1363 -0.2798 -0.3155
44732W        W87670   9.732  19.322  21.289  0.0151 -0.1651 -0.1511
44733W        W87671   8.838  19.491  23.437 -0.0552  0.0958  0.0226
44734W        W87672   7.784  21.225  23.840  0.0892 -0.3893 -0.2526
44735W        W87673   8.662  18.396  20.972  0.5681  0.1588 -0.2051
44736W        W87674  10.838  21.219  20.421  0.2177  0.1719  0.1778
44737W        W87675   8.922  20.882  23.642 -0.2754  0.1082 -0.4725
44738W        W87676   9.144  20.255  21.371 -0.0081  0.0672 -0.0484
44739W        W87677   6.270  20.518  22.464 -0.0767 -0.1773 -0.0672
44740W        W87678   8.530  21.413  23.012 -0.3192 -0.0343  0.3932
44741W        W87679   7.707  18.157  22.412  0.1653  0.2884 -0.1167
44742W        W87680   7.983  19.942  23.907  0.0873 -0.0096 -0.2654
44743W        W87681   9.231  20.487  19.842  0.0197 -0.2833 -0.0499
44744W        W87682   7.945  21.357  22.859  0.0272  0.0899 -0.1651
44745W        W87683  10.955  16.545  19.626  0.2636  0.3785 -0.1609
44746W        W87684  10.552  20.537  18.766 -0.6431  0.0485  0.1128
44747W        W87685   7.326  19.762  20.622 -0.1350 -0.2341 -0.2065
44748W        W87686  11.858  19.565  22.677  0.1163  0.0142 -0.2666
44749W        W87687   7.145  19.233  20.595  0.1493  0.1659  0.0538
44750W        W87688  10.166  17.603  23.669 -0.1972  0.1073  0.2375
44751W        W87689   7.743  20.261  23.486  0.0686  0.3156  0.0547
44752W        W87690   8.572  20.757  21.127 -0.2178  0.1929 -0.1256
44753W        W87691   6.485  18.934  21.881 -0.2216  0.0172 -0.0407
44754W        W87692  10.760  22.141  23.383  0.1777  0.2144 -0.0061
44755W        W87693   8.440  20.271  24.059  0.3317  0.0455  0.0630
44756W        W87694   8.373  17.961  20.770  0.0557  0.1060 -0.0357
44757W        W87695   7.296  18.034  21.151 -0.2319  0.1447  0.1593
44758W        W87696   8.161  19.919  21.709 -0.3563 -0.0146 -0.1397
44759W        W87697   9.578  21.019  21.215  0.3360 -0.0992 -0.1498
44760W        W87698   8.417  20.652  21.644  0.1236 -0.1867 -0.3100
44761W        W87699  10.827  18.853  22.081 -0.0610  0.0393  0.4014
44762W        W87700   6.990  19.419  23.462  0.0927  0.0985 -0.3682
44763W        W87701   9.259  20.851  21.855 -0.0925 -0.1641 -0.0115
44764W        W87702   8.750  20.060  19.169  0.2245 -0.0017  0.0276
44765W        W87703   9.530  20.423  21.673  0.1559 -0.3387  0.1944
44766W        W87704   7.643  17.937  22.878 -0.2590 -0.0868  0.2399
44767W        W87705  10.754  19.851  22.138  0.1165 -0.1928 -0.1577
44768W        W87706   8.482  18.965  20.118  0.2012  0.0701  0.0045
44769W        W87707   9.853  19.298  22.969  0.1397  0.2159  0.0928
44770W        W87708  10.061  19.990  24.121  0.1152  0.0517 -0.2091
44771W        W87709   9.331  19.348  23.322 -0.2538 -0.0666  0.2157
44772W        W87710   6.478  18.691  23.160  0.0034  0.2411 -0.0864
44773W        W87711  10.149  22.194  22.446  0.0253  0.0732 -0.0535
44774W        W87712   9.176  18.486  18.807 -0.2016  0.4022 -0.1354
44775W        W87713  11.135  18.780  22.539 -0.3140  0.0605 -0.0754
44776W        W87714   8.585  19.393  19.918  0.2498  0.5974 -0.1348
44777W        W87715   8.043  19.614  19.310 -0.0669  0.2474 -0.2540
44778W        W87716   7.236  18.773  21.905 -0.2303  0.1027  0.1921
44779W        W87717  10.015  20.063  22.984 -0.0676 -0.0032 -0.1048
44780W        W87718   6.517  18.068  20.511  0.0890 -0.4126 -0.0586
44781W        W87719   9.967  19.588  23.705 -0.0852  0.2789  0.1324
44782W        W87720   8.836  21.617  21.601 -0.1657  0.2407 -0.1856
44783W        W87721  10.065  21.404  21.879  0.0769 -0.1186  0.0805
44784W        W87722   9.630  17.699  19.464  0.1361 -0.1952  0.0125
44785W        W87723   6.024  20.222  21.608 -0.1396  0.0049  0.3699
44786W        W87724   7.535  22.204  23.371 -0.1838  0.1563  0.1058
44787W        W87725   6.553  20.517  20.255  0.0947 -0.0388 -0.2714
44788W        W87726   7.818  19.201  21.654 -0.0031 -0.0924 -0.2542
44789W        W87727   9.101  21.266  22.598 -0.1479 -0.2662  0.1535
44790W        W87728  10.131  21.416  24.324 -0.2541  0.0021 -0.1610
44791W        W87729   8.612  17.878  21.293 -0.1594  0.2635  0.1101
44792W        W87730  11.140  19.556  23.079 -0.0132 -0.0118 -0.1836
44793W        W87731   7.602  20.453  19.946  0.0246 -0.1263  0.0706
44794W        W87732   8.663  16.478  21.261  0.1999  0.1047  0.1469
44795W        W87733   8.306  23.037  22.399  0.0868  0.2125  0.0508
44796W        W87734   8.108  20.562  23.233 -0.1416 -0.0988 -0.3665
44797W        W87735   8.455  23.108  21.766  0.1850  0.0543 -0.1008
44798W        W87736   8.728  18.509  22.545  0.1401 -0.0819 -0.2229
44799W        W87737  11.187  18.589  21.893  0.1697  0.1335 -0.0053
44800W        W87738   8.771  20.581  22.743 -0.0427 -0.1930 -0.0264
44801W        W87739  10.960  18.262  22.380  0.1556  0.1948  0.2416
44802W        W87740   8.898  20.194  23.113 -0.0507 -0.4097 -0.1139
44803W        W87741   7.644  20.599  22.274 -0.1790  0.1626 -0.4061
44804W        W87742   9.187  19.993  21.770 -0.2202 -0.1555 -0.3346
44805W        W87743   9.698  20.874  20.718  0.1578  0.0472  0.0227
44806W        W87744   7.279  19.762  22.642 -0.2880 -0.0208  0.0168
44807W        W87745   5.932  18.687  23.154 -0.1728  0.2826 -0.2686
44808W        W87746   9.533  19.806  23.891 -0.0516  0.0352 -0.0818
44809W        W87747   8.435  20.036  22.219 -0.0005 -0.3989  0.4871
44810W        W87748   7.770  17.902  20.872  0.1932  0.1653  0.1250
44811W        W87749   9.390  22.013  20.046  0.2003 -0.2302  0.1930
44812W        W87750   8.268  21.302  23.835 -0.1038 -0.0504  0.2613
44813W        W87751   6.647  20.101  22.799  0.0811 -0.1535  0.0330
44814W        W87752   7.179  21.150  21.804  0.1261  0.0573 -0.0108
44815W        W87753   8.555  18.980  20.726 -0.1504  0.3907  0.0495
44816W        W87754  10.240  20.242  20.184  0.2809 -0.1511  0.1423
44817W        W87755   9.357  22.597  22.651  0.3198  0.0878  0.0491
44818W        W87756   8.275  19.470  20.805 -0.0257  0.1277 -0.3155
44819W        W87757   8.457  21.305  22.543  0.2495 -0.2211 -0.0669
44820W        W87758   7.151  20.981  19.684 -0.0391  0.2936  0.1176
44821W        W87759   9.776  22.262  21.464 -0.0456 -0.0495 -0.1209
44822W        W87760   7.435  22.071  22.074  0.0005 -0.0343 -0.1149
44823W        W87761  10.767  20.616  23.815 -0.0787 -0.0944  0.3357
44824W        W87762  10.987  17.702  18.784  0.0951  0.0232 -0.1732
44825W        W87763   9.727  19.223  20.756 -0.1031  0.0604 -0.0656
44826W        W87764   9.878  19.205  21.771 -0.2673 -0.1552  0.3003
44827W        W87765   9.656  22.600  23.771 -0.2607 -0.2959  0.0956
44828W        W87766   8.532  18.856  22.892  0.1029 -0.2272 -0.3303
44829W        W87767   8.228  19.213  19.016 -0.0421  0.1825 -0.0447
44830W        W87768   8.550  19.532  22.407 -0.2377  0.1236  0.0504
44831W        W87769  11.610  20.260  24.460 -0.2411 -0.2714 -0.4412
44832W        W87770   6.634  21.504  22.390 -0.3208 -0.1930  0.3006
44833W        W87771   9.824  22.081  20.333  0.0886 -0.2421  0.3092
44834W        W87772   5.079  20.035  21.542 -0.2669 -0.2194 -0.1329
44835W        W87773   7.900  20.048  22.085 -0.5101  0.0684 -0.0422
44836W        W87774   9.520  18.916  22.528 -0.0934  0.0460 -0.2582
44837W        W87775   9.116  21.123  21.347  0.2056  0.3536  0.1299
44838W        W87776   7.263  18.272  20.726  0.2568 -0.1411  0.1351
44839W        W87777   7.374  21.160  20.074 -0.2197 -0.2054  0.1213
44840W        W87778   8.512  22.613  21.549 -0.0257  0.1666  0.0819
44841W        W87779   8.025  22.758  22.036 -0.3552 -0.2962 -0.3011
44842W        W87780   5.512  20.519  20.886 -0.2567  0.0414  0.1685
44843W        W87781  10.456  18.267  20.739  0.0611  0.2531 -0.2711
44844W        W87782   8.487  19.660  24.193  0.0907  0.0856  0.1061
44845W        W87783   9.591  17.787  21.639  0.0410  0.1564  0.1609
44846W        W87784   8.875  18.111  22.308  0.0010 -0.0615 -0.1560
44847W        W87785   7.535  18.646  20.624  0.2838 -0.1145 -0.3394
44848W        W87786   9.075  20.397  22.002 -0.1718  0.0000  0.0068
44849W        W87787   6.338  19.740  23.035  0.0184  0.1763 -0.0156
44850W        W87788   8.256  18.914  18.634  0.1915 -0.0366  0.1242
44851W        W87789  10.587  20.908  24.222 -0.1475 -0.0778  0.0619
44852W        W87790   8.233  20.075  19.172 -0.2266 -0.0965 -0.2400
44853W        W87791   9.913  21.874  23.348 -0.1065 -0.0369  0.0004
44854W        W87792   6.169  19.267  21.812  0.2029 -0.4047 -0.3290
44855W        W87793   8.528  16.424  18.502 -0.1367  0.0238 -0.1860
44856W        W87794   8.370  18.600  21.304  0.0148 -0.2015 -0.0977
44857W        W87795   6.636  19.837  21.354  0.1435  0.1957  0.1224
44858W        W87796  10.314  20.994  23.089 -0.1529  0.1954  0.1369
44859W        W87797   5.485  19.189  20.467 -0.1618 -0.1847 -0.3740
44860W        W87798   9.999  20.337  18.944  0.0697  0.0452 -0.1995
44861W        W87799  11.447  20.127  21.428 -0.0908  0.2445 -0.1579
44862W        W87800   8.159  22.168  21.565 -0.0814  0.0429 -0.2557
44863W        W87801   9.090  18.973  19.767  0.0952  0.0461  0.0773
44864W        W87802   9.295  21.726  22.533 -0.0273 -0.0837 -0.2653
44865W        W87803   6.004  19.107  22.346  0.0475 -0.0353  0.1716
44866W        W87804  10.753  19.663  21.641  0.0401  0.0165  0.1740
44867W        W87805  11.473  21.161  22.416 -0.0610  0.2279  0.0257
44868W        W87806   9.793  16.876  18.878 -0.2008  0.0318 -0.4756
44869W        W87807   7.982  20.073  23.091 -0.1209  0.1882  0.1206
44870W        W87808   7.398  21.583  22.095 -0.2237 -0.4443 -0.0860
44871W        W87809   9.537  18.708  21.779  0.4242  0.1243 -0.1392
44872W        W87810   9.316  19.171  21.617  0.0901  0.0340  0.2371
44873W        W87811   8.963  22.314  20.127  0.0596 -0.1069 -0.1120
44874W        W87812   9.694  20.248  23.667 -0.0869  0.0828  0.0823
44875W        W87813   9.535  20.275  23.098 -0.0131 -0.0342  0.1609
44876W        W87814  10.167  20.642  24.360 -0.3272 -0.0100  0.0938
44877W        W87815   8.080  20.758  21.313  0.1686 -0.1748  0.1632
44878W        W87816   8.961  21.246  24.451 -0.0157  0.1860  0.3889
44879W        W87817   8.625  19.576  20.479 -0.2890 -0.1828 -0.0161
44880W        W87818   8.441  20.845  20.639 -0.1754 -0.0169 -0.1563
44881W        W87819   9.322  21.566  21.347  0.0320 -0.0598  0.2095
44882W        W87820   8.541  18.462  21.962  0.0224 -0.4746 -0.1337
44883W        W87821  11.583  21.471  21.195 -0.1308 -0.2077 -0.1038
44884W        W87822   7.623  19.377  20.436  0.0415  0.1164 -0.2136
44885W        W87823   9.582  18.149  20.311 -0.0510  0.2172  0.2852
44886W        W87824   8.869  16.527  18.898 -0.0569 -0.0072 -0.1614
44887W        W87825   7.607  20.079  22.436 -0.1389 -0.1083 -0.1938
44888W        W87826   6.558  18.825  21.047  0.0553  0.3161 -0.2529
44889W        W87827   9.415  22.218  20.544 -0.1402  0.1759 -0.0995
44890W        W87828   7.219  20.685  22.591  0.0732 -0.3555  0.0432
44891W        W87829   9.325  18.776  23.453  0.0394  0.3258 -0.0965
44892W        W87830   7.654  19.546  22.340  0.1624  0.1448 -0.1578
44893W        W87831   8.170  19.580  22.056  0.3606 -0.3005 -0.0483
44894W        W87832   6.763  19.677  20.437  0.0064  0.4418 -0.1047
44895W        W87833   9.699  21.238  20.370 -0.1416 -0.0206 -0.1380
44896W        W87834   6.932  19.730  23.019 -0.0849 -0.2271 -0.1048
44897W        W87835   6.165  18.214  21.657 -0.0254  0.0906 -0.1388
44898W        W87836   8.225  21.771  22.386 -0.2078 -0.4461  0.3217
44899W        W87837  10.807  22.286  20.277  0.1562  0.0673  0.0453
44900W        W87838   8.226  17.958  20.295 -0.0411 -0.0078 -0.1132
44901W        W87839  11.260  21.270  24.886 -0.0409 -0.1668  0.2991
44902W        W87840   6.120  20.450  19.864  0.2412  0.4028  0.0158
44903W        W87841   8.939  20.104  24.144  0.1545  0.0973  0.0626
44904W        W87842   9.145  19.992  23.501 -0.2113  0.0889 -0.2364
44905W        W87843   6.775  18.840  19.455 -0.0032  0.2055  0.2807
44906W        W87844   8.721  18.232  20.509 -0.0605 -0.0914  0.1030
44907W        W87845   8.971  21.913  21.969  0.1407  0.0672 -0.0127
44908W        W87846  10.921  22.054  21.233 -0.0551  0.2803  0.3115
44909W        W87847   9.738  20.165  22.602 -0.0408 -0.0143 -0.0057
44910W        W87848   7.719  21.763  23.152  0.2876  0.0351 -0.2698
44911W        W87849   6.182  18.447  23.562  0.1537  0.2125 -0.0860
44912W        W87850   9.387  18.956  20.230  0.0811  0.1307 -0.0885
44913W        W87851   9.775  20.841  23.650  0.0324 -0.1599 -0.0130
44914W        W87852  10.449  19.871  19.985 -0.3099 -0.1491 -0.2025
44915W        W87853  11.503  18.972  22.064 -0.0288  0.0012  0.1567
44916W        W87854   8.796  20.441  20.831  0.0233 -0.1552  0.4535
44917W        W87855   8.320  18.545  23.299 -0.0394 -0.1505  0.0869
44918W        W87856   8.577  21.139  23.437  0.1198  0.2647 -0.1266
44919W        W87857  10.676  19.654  20.955  0.3147 -0.0724  0.0759
44920W        W87858   6.639  18.128  19.980 -0.3010  0.3316 -0.2555
44921W        W87859  10.168  17.132  18.761 -0.1109 -0.0370  0.0414
44922W        W87860   9.452  21.843  22.083  0.0112  0.0377 -0.1497
44923W        W87861   7.081  19.289  22.584 -0.4271  0.0419  0.0086
44924W        W87862   7.764  18.659  19.206  0.1341  0.2525 -0.0148
44925W        W87863   9.199  18.141  22.760 -0.1608  0.3499 -0.0169
44926W        W87864   9.606  19.713  22.771  0.0619  0.0919 -0.1155
44927W        W87865   8.784  20.399  23.656 -0.0629 -0.2624 -0.1090
44928W        W87866   9.443  19.582  20.957  0.1640 -0.1962  0.0188
44929W        W87867  10.067  19.703  21.008 -0.1429 -0.0913  0.0136
44930W        W87868   9.673  21.308  23.390 -0.0141  0.1133  0.1265
44931W        W87869   9.715  22.852  24.212 -0.0226  0.2916  0.1058
44932W        W87870   9.591  21.318  22.353  0.1101  0.0308 -0.0710
44933W        W87871  10.253  18.846  21.569  0.2480 -0.1342 -0.0789
44934W        W87872   7.349  18.751  22.901 -0.2122  0.1710  0.2996
44935W        W87873   8.364  18.045  22.251  0.2605 -0.3353  0.1000
44936W        W87874   7.562  21.098  22.239 -0.0170  0.0872 -0.0686
44937W        W87875   9.850  19.269  22.454  0.3567 -0.1051 -0.0810
44938W        W87876   7.735  19.195  22.813  0.1983 -0.0532  0.1088
44939W        W87877   9.507  17.998  21.091 -0.1287 -0.0158  0.0965
44940W        W87878   8.433  20.303  22.954  0.1221  0.0709  0.0135
44941W        W87879  10.676  20.109  22.638  0.2782  0.0781 -0.3235
44942W        W87880   9.205  19.066  25.913 -0.1674  0.0386 -0.3476
44943W        W87881   9.803  19.471  24.269 -0.2674 -0.2491 -0.0142
44944W        W87882  11.283  19.852  23.466  0.1385  0.1307  0.0380
44945W        W87883  10.608  17.356  23.811  0.2768 -0.0214 -0.1029
44946W        W87884   7.978  18.509  25.053 -0.1443 -0.0372  0.0848
44947W        W87885   9.428  22.008  24.427 -0.0908  0.4243  0.1599
44948W        W87886   8.314  19.356  26.854  0.1360  0.2680 -0.0253
44949W        W87887  11.026  19.705  25.653 -0.1190 -0.1012  0.2739
44950W        W87888  10.575  22.552  26.641  0.3839 -0.1461  0.0925
44951W        W87889  10.178  19.660  24.544 -0.1618 -0.0376  0.1218
44952W        W87890  10.037  18.529  27.405  0.2096  0.3892 -0.0506
44953W        W87891  10.950  20.854  27.327 -0.1832 -0.2214  0.0915
44954W        W87892   8.124  18.036  24.779  0.0426  0.0990 -0.3279
44955W        W87893   9.115  17.733  26.253  0.0561  0.0410  0.1479
44956W        W87894   9.524  19.844  25.957  0.1314  0.1564 -0.1779
44957W        W87895   7.638  19.814  25.722  0.1624 -0.0264  0.1688
44958W        W87896   8.479  18.574  26.428 -0.6454 -0.1479 -0.1052
44959W        W87897   8.630  20.036  25.609  0.0916 -0.3428 -0.1647
44960W        W87898  10.259  21.938  26.082  0.2022 -0.0403  0.1461
44961W        W87899   9.608  17.691  26.393 -0.0013  0.0900 -0.1611
44962W        W87900  10.183  17.728  26.268 -0.0638 -0.0133 -0.0923
44963W        W87901  10.662  19.043  26.237  0.0686 -0.0818 -0.0167
44964W        W87902   7.652  19.608  24.026  0.0929 -0.0751 -0.1864
44965W        W87903   6.672  20.191  27.112  0.0213  0.2242  0.2260
44966W        W87904   9.474  18.978  25.248 -0.1318 -0.1646  0.4426
44967W        W87905  11.189  18.253  25.420 -0.3587  0.1931 -0.0550
44968W        W87906  12.252  20.456  26.191  0.1705  0.0057 -0.1158
44969W        W87907   9.945  21.570  26.211  0.2056 -0.1017  0.1777
44970W        W87908  12.708  23.088  26.300  0.0674  0.1028 -0.1836
44971W        W87909  11.022  19.461  26.231  0.1235 -0.0858  0.0106
44972W        W87910   6.967  20.268  25.757  0.3490 -0.1525  0.0437
44973W        W87911   8.351  20.193  25.192 -0.2152 -0.3834 -0.1776
44974W        W87912   8.641  21.641  24.905  0.0568 -0.1400 -0.0309
44975W        W87913  10.902  21.330  27.166  0.0212 -0.0700 -0.0293
44976W        W87914  11.074  21.022  26.458  0.2230 -0.3461  0.1996
44977W        W87915   9.975  20.073  25.921  0.0785  0.2701 -0.1220
44978W        W87916   8.407  20.746  23.721 -0.2631  0.1874 -0.0657
44979W        W87917   9.003  20.628  26.942 -0.4356  0.0945 -0.0498
44980W        W87918   9.055  20.200  25.783  0.1498  0.1425  0.3091
44981W        W87919   9.718  18.517  26.589  0.1148  0.0956 -0.2533
44982W        W87920   9.021  19.233  25.209 -0.1678  0.3452  0.1138
44983W        W87921   6.907  21.190  23.942  0.1583 -0.0719  0.3352
44984W        W87922  10.026  18.890  26.467 -0.1833  0.1516 -0.0821
44985W        W87923   8.729  20.513  26.550 -0.0312 -0.2405 -0.2060
44986W        W87924   7.897  20.452  25.908  0.3018 -0.3152  0.0057
44987W        W87925  10.713  18.231  25.437 -0.2501  0.0972  0.1653
44988W        W87926   7.321  21.475  24.098 -0.2070  0.0401  0.1614
44989W        W87927  10.635  20.593  22.857 -0.5076 -0.0753 -0.1105
44990W        W87928   9.034  19.647  23.905 -0.4257 -0.0210 -0.2325
44991W        W87929  10.095  19.650  23.230 -0.2830  0.1673 -0.3222
44992W        W87930   9.189  17.702  25.025 -0.1829  0.2607 -0.1904
44993W        W87931   7.915  21.337  24.794 -0.5250  0.1722  0.0071
44994W        W87932   9.137  19.080  27.213 -0.0058 -0.1916 -0.2603
44995W        W87933  10.303  20.028  26.459  0.1344  0.2048 -0.0235
44996W        W87934   9.782  20.815  24.592  0.2508 -0.1094 -0.3188
44997W        W87935  10.792  17.999  27.182 -0.1393 -0.0605  0.1013
44998W        W87936   9.986  21.801  25.647 -0.0516 -0.1200 -0.3255
44999W        W87937   7.287  18.908  25.554 -0.0426 -0.1447  0.0419
45000W        W87938   9.684  21.544  22.794  0.0470  0.0069 -0.1751
45001W        W87939  11.436  22.563  26.920 -0.0292  0.1266 -0.1363
45002W        W87940   9.658  20.921  25.142 -0.0029  0.2133 -0.1953
45003W        W87941   6.938  18.568  24.056 -0.1848  0.0153  0.1519
45004W        W87942   8.012  21.761  26.979  0.3204  0.1887  0.1399
45005W        W87943   7.566  20.614  26.611  0.2056  0.0696  0.0284
45006W        W87944   7.274  17.221  23.106 -0.3225  0.1482 -0.1558
45007W        W87945  10.504  20.665  27.538 -0.1327  0.1732  0.0913
45008W        W87946   7.054  21.209  26.069  0.1634  0.0805  0.3644
45009W        W87947  10.339  18.739  24.682  0.0014  0.0657  0.1239
45010W        W87948   9.353  21.063  24.774 -0.7267  0.0146 -0.0028
45011W        W87949  12.227  20.033  25.524 -0.2118  0.0112 -0.0029
45012W        W87950   9.914  21.172  25.575 -0.0367 -0.0779 -0.1482
45013W        W87951   9.739  18.192  24.565 -0.1317 -0.2047 -0.0735
45014W        W87952  10.592  18.684  25.157  0.1047 -0.1271  0.4449
45015W        W87953   7.626  20.405  22.835 -0.0379 -0.3735 -0.0182
45016W        W87954   8.521  19.711  24.994  0.3429 -0.3213  0.2560
45017W        W87955  13.158  20.322  27.877 -0.1397 -0.0531 -0.0218
45018W        W87956  10.979  20.962  24.606  0.0629  0.1368 -0.1070
45019W        W87957   8.224  21.974  25.717  0.1515 -0.1485 -0.1098
45020W        W87958   7.824  18.904  25.814 -0.1393 -0.1834 -0.0136
45021W        W87959  10.008  19.777  26.855  0.1481  0.1584  0.2838
45022W        W87960   8.250  21.409  25.149 -0.2630  0.1708 -0.1508
45023W        W87961   8.009  19.930  24.891  0.0947 -0.2481  0.0692
45024W        W87962   8.162  19.260  24.069 -0.0723 -0.1551  0.5334
45025W        W87963   7.960  17.977  26.164 -0.1251  0.0141 -0.3406
45026W        W87964  10.415  21.218  25.692  0.1015 -0.1017  0.0705
45027W        W87965   9.957  17.766  24.263 -0.2028 -0.3062 -0.0350
45028W        W87966   6.955  19.927  26.330  0.1135  0.2093 -0.2093
45029W        W87967   9.214  18.361  23.186  0.2350  0.1177 -0.0026
45030W        W87968   7.641  20.910  25.506  0.0574 -0.0528 -0.1856
45031W        W87969  10.660  20.824  25.636  0.1911 -0.0401  0.2962
45032W        W87970  12.303  19.381  24.373 -0.1091  0.6122 -0.1954
45033W        W87971   8.832  21.223  23.956 -0.2159  0.2259  0.0670
45034W        W87972   8.878  19.611  27.116  0.0259 -0.2344 -0.0580
45035W        W87973   9.084  18.715  24.713 -0.0971  0.0382  0.0423
45036W        W87974   8.321  18.333  28.831 -0.0401  0.0152 -0.1166
45037W        W87975   6.920  19.167  25.780  0.2010  0.2311  0.1182
45038W        W87976  11.056  18.839  26.544 -0.1019  0.0171 -0.3119
45039W        W87977   7.489  17.304  24.691  0.1511  0.1276  0.0193
45040W        W87978   9.449  18.244  23.659 -0.0037 -0.0731  0.1033
45041W        W87979   9.524  18.561  24.281  0.0031 -0.1360  0.3028
45042W        W87980   6.778  20.254  25.070  0.3051 -0.3263 -0.1659
45043W        W87981  11.865  20.357  25.851  0.3777  0.1973  0.3256
45044W        W87982   9.311  20.749  24.369 -0.1382 -0.1881  0.0822
45045W        W87983  10.908  22.620  26.962 -0.1945  0.1802 -0.0889
45046W        W87984  10.544  22.300  25.991  0.0940 -0.0928  0.1163
45047W        W87985   7.295  19.528  27.814  0.0417 -0.0555  0.1228
45048W        W87986   7.109  18.222  24.277 -0.0286 -0.0405 -0.0057
45049W        W87987   7.994  21.257  25.717 -0.0480  0.0782 -0.1543
45050W        W87988   8.945  21.320  26.085 -0.0508  0.1536  0.1177
45051W        W87989   8.657  19.908  23.718  0.0616 -0.1138 -0.1209
45052W        W87990  10.387  22.045  25.584 -0.1899  0.0660 -0.2847
45053W        W87991   8.168  20.036  25.832  0.0885 -0.0484  0.1018
45054W        W87992   7.555  19.675  26.356 -0.1758 -0.2129  0.1248
45055W        W87993   9.946  18.056  25.670 -0.0494 -0.2716  0.0961
45056W        W87994  11.196  21.804  26.607  0.0946 -0.2494 -0.1051
45057W        W87995   9.224  20.413  25.321 -0.0964  0.2078  0.1713
45058W        W87996   8.551  19.223  23.776  0.0825  0.3815 -0.1506
45059W        W87997  11.367  20.241  25.832 -0.1311  0.2140  0.0129
45060W        W87998   6.290  19.867  24.019 -0.2808  0.0797 -0.2657
45061W        W87999   8.819  19.729  26.627 -0.2435  0.0714  0.1877
45062W        W88000   8.624  21.995  25.356  0.2909  0.0624 -0.0769
45063W        W88001  10.291  17.873  25.226  0.1314  0.1676 -0.1608
45064W        W88002   8.191  20.301  27.107 -0.0496  0.2583  0.1320
45065W        W88003   8.811  19.009  25.598  0.1143 -0.0159 -0.2876
45066W        W88004   6.526  20.787  24.073  0.0536 -0.0938  0.0196
45067W        W88005   7.044  19.845  27.576 -0.0282 -0.1521 -0.1276
45068W        W88006   8.805  17.029  24.204 -0.0216 -0.4471  0.0245
45069W        W88007  11.948  18.175  23.936  0.1301  0.1077  0.1599
45070W        W88008  10.724  18.877  27.557  0.0861 -0.0482  0.0417
45071W        W88009   9.950  19.854  24.957  0.2693 -0.1640  0.1397
45072W        W88010  10.430  19.685  24.967 -0.4373 -0.0968 -0.1849
45073W        W88011   7.705  18.728  21.767 -0.1167 -0.0281 -0.0779
45074W        W88012   8.191  20.519  26.401 -0.1391  0.0815  0.0072
45075W        W88013   9.416  20.548  24.917 -0.2051  0.2768 -0.0526
45076W        W88014   9.251  19.129  26.696 -0.1924 -0.2652  0.2206
45077W        W88015   9.309  19.165  24.755  0.0334 -0.0268  0.1831
45078W        W88016  11.090  22.711  24.300 -0.2077  0.0308  0.1396
45079W        W88017   6.805  19.402  26.217 -0.0904 -0.0535  0.0687
45080W        W88018  10.470  19.548  26.401 -0.0674 -0.0385 -0.3069
45081W        W88019  10.803  21.027  26.041  0.2274 -0.2102  0.0324
45082W        W88020   9.923  18.233  25.047 -0.1205  0.0696  0.3096
45083W        W88021  10.448  20.133  23.259  0.2054  0.2382 -0.1567
45084W        W88022   7.718  18.728  24.043  0.1245  0.0540 -0.5025
45085W        W88023   8.038  22.293  24.838 -0.2077  0.1549 -0.2194
45086W        W88024  10.751  18.526  26.232 -0.2079  0.1637  0.0645
45087W        W88025   8.903  18.042  25.745  0.0502 -0.2180 -0.1132
45088W        W88026   9.516  18.159  27.612  0.1096 -0.0970  0.0157
45089W        W88027   9.925  19.611  26.357 -0.3027 -0.2451  0.2464
45090W        W88028  10.643  20.560  24.618 -0.1961 -0.1555  0.1583
45091W        W88029   9.715  19.381  26.868 -0.2498 -0.0083 -0.2978
45092W        W88030   7.270  19.937  24.319  0.2246  0.0145  0.2632
45093W        W88031   8.843  18.333  26.729 -0.2370  0.0023  0.0532
45094W        W88032   7.996  19.423  26.068  0.0017 -0.3491  0.1148
45095W        W88033   8.579  22.205  25.963 -0.1505  0.0111  0.1873
45096W        W88034   9.960  21.455  27.109 -0.1530  0.3174 -0.1722
45097W        W88035   9.387  18.384  24.973 -0.3849 -0.0383 -0.0908
45098W        W88036  10.040  19.379  28.377 -0.2264 -0.3594  0.3702
45099W        W88037   8.600  20.406  25.959  0.3240  0.1795  0.0237
45100W        W88038   7.595  22.162  24.024  0.1213  0.0541  0.2370
45101W        W88039   8.966  20.720  24.882  0.0808  0.0843  0.1268
45102W        W88040   8.019  18.813  26.807 -0.2115  0.3297 -0.0223
45103W        W88041   9.590  20.669  26.473 -0.0064  0.0956 -0.2559
45104W        W88042  10.101  20.983  24.010  0.1507  0.2262  0.2133
45105W        W88043  10.235  19.344  26.777  0.0417 -0.1074 -0.1344
45106W        W88044   7.830  20.147  25.401 -0.0466  0.1864 -0.0657
45107W        W88045  10.180  17.828  24.719 -0.1511 -0.0357 -0.0905
45108W        W88046   5.301  19.621  25.636  0.1672  0.1294 -0.3025
45109W        W88047   9.144  19.867  26.301  0.2575  0.1096 -0.0489
45110W        W88048   8.743  19.203  24.751 -0.3094  0.3911  0.1782
45111W        W88049  10.437  19.158  25.033 -0.0174  0.0791 -0.0318
45112W        W88050  10.274  19.173  23.268 -0.1607  0.2102  0.0828
45113W        W88051   8.015  17.780  25.654 -0.1637  0.1018  0.0870
45114W        W88052   9.866  18.554  25.953  0.0572  0.2586  0.0005
45115W        W88053   6.507  21.804  25.467  0.0841  0.2067 -0.2627
45116W        W88054  11.275  20.559  26.428  0.3093 -0.1773  0.0667
45117W        W88055  11.613  18.386  23.692 -0.0544  0.0135 -0.3989
45118W        W88056  10.372  20.758  26.037  0.2756 -0.1526  0.3552
45119W        W88057   9.960  20.255  26.824  0.0870 -0.0831  0.2583
45120W        W88058   7.362  19.343  24.909  0.2494 -0.0800 -0.0911
45121W        W88059  10.838  18.732  25.626 -0.0058 -0.0711  0.1966
45122W        W88060   8.514  17.993  24.441  0.2290 -0.0254 -0.0424
45123W        W88061   8.719  20.519  25.462 -0.1497 -0.0974 -0.0198
45124W        W88062  10.493  20.826  27.005  0.3650 -0.1762  0.0397
45125W        W88063   7.926  19.384  25.058 -0.0375 -0.1969  0.0834
45126W        W88064   7.234  20.744  25.757 -0.0815  0.1243 -0.0272
45127W        W88065   8.747  19.267  27.980 -0.2247 -0.0923 -0.1061
45128W        W88066  11.521  22.501  25.788  0.1491 -0.0210 -0.1391
45129W        W88067   8.710  18.899  26.086 -0.0325 -0.0942  0.2217
45130W        W88068  10.228  19.090  25.620 -0.3032 -0.1240  0.1889
45131W        W88069   9.096  18.766  26.396 -0.0505  0.0793 -0.1734
45132W        W88070  11.055  20.452  27.039 -0.1376  0.2454  0.4394
45133W        W88071   9.286  20.704  27.489  0.1958  0.4238  0.2961
45134W        W88072  10.806  20.290  27.459  0.0547  0.1525 -0.3791
45135W        W88073   8.697  18.575  24.432  0.1149 -0.0958  0.2922
45136W        W88074  10.705  22.414  24.229 -0.1490  0.0348 -0.1594
45137W        W88075   9.683  20.896  27.380 -0.2024  0.1224  0.2984
45138W        W88076   7.804  19.096  24.579 -0.0607 -0.3322 -0.0380
45139W        W88077   6.568  20.949  25.246 -0.0705  0.0288  0.1859
45140W        W88078   9.565  20.709  25.599 -0.1190 -0.0334 -0.0930
45141W        W88079   8.631  18.490  25.583 -0.0322 -0.2041 -0.0315
45142W        W88080  10.114  19.431  27.272  0.0936 -0.0309 -0.2363
45143W        W88081   8.189  20.376  24.518  0.1907  0.0409 -0.0348
45144W        W88082   7.635  20.959  26.035 -0.0299  0.2523 -0.2825
45145W        W88083  10.430  18.265  24.891  0.0406 -0.0303 -0.2315
45146W        W88084   9.363  19.436  25.632 -0.0319  0.3067  0.1229
45147W        W88085   9.418  17.242  24.891  0.1699  0.0340 -0.0086
45148W        W88086  11.023  20.503  25.500  0.2275  0.1541  0.2027
45149W        W88087   9.077  19.842  25.362  0.1260 -0.0801  0.0805
45150W        W88088  10.533  18.454  28.408  0.2808 -0.0721  0.0944
45151W        W88089   9.403  18.333  26.220  0.0562  0.1667 -0.0446
45152W        W88090  10.215  19.876  25.570 -0.0233  0.1349 -0.0413
45153W        W88091   6.605  19.659  26.780 -0.0975 -0.0736 -0.1782
45154W        W88092  10.032  22.216  28.133 -0.1666 -0.4026  0.0657
45155W        W88093   7.994  21.255  27.119 -0.1246 -0.2475 -0.2012
45156W        W88094  10.582  18.811  22.857 -0.1208  0.1049 -0.0069
45157W        W88095   7.860  19.176  23.636  0.0793  0.1196  0.3694
45158W        W88096   8.919  19.610  25.844 -0.1670 -0.2134  0.1223
45159W        W88097  10.700  20.070  25.472 -0.0915 -0.1410 -0.2560
45160W        W88098   9.521  21.268  24.349  0.0242  0.0243 -0.0819
45161W        W88099  11.107  20.625  25.007  0.0740  0.0023 -0.0258
45162W        W88100   6.953  20.617  25.400 -0.1653  0.0198  0.2000
45163W        W88101   9.704  18.746  23.854 -0.0365 -0.1675 -0.1595
45164W        W88102  10.353  20.739  23.536  0.1547  0.2772 -0.5449
45165W        W88103   8.417  19.558  25.808  0.1939  0.0396  0.2207
45166W        W88104   8.537  17.727  26.444 -0.1034 -0.0489  0.0437
45167W        W88105  11.361  20.802  25.838 -0.0177  0.0187  0.0381
45168W        W88106   8.850  18.231  25.188 -0.0174  0.0768 -0.0564
45169W        W88107   9.813  18.094  26.198 -0.1793 -0.0033  0.5337
45170W        W88108  10.429  18.699  25.894  0.2836 -0.2248 -0.1115
45171W        W88109   9.555  20.096  27.105  0.3285 -0.1361 -0.0627
45172W        W88110   8.414  19.236  26.380  0.1303 -0.1679 -0.0094
45173W        W88111  10.571  21.534  28.389  0.2828  0.1989 -0.1536
45174W        W88112  10.933  20.021  23.094  0.1339  0.0981 -0.1047
45175W        W88113  10.932  18.392  24.876 -0.4391  0.1203 -0.1943
45176W        W88114   9.760  19.252  24.705  0.3155  0.0707  0.1571
45177W        W88115  10.663  19.892  24.504  0.0618  0.1048  0.0624
45178W        W88116   6.832  18.907  26.254 -0.1631 -0.0122 -0.2024
45179W        W88117   9.343  19.613  27.146  0.2287  0.0425 -0.2086
45180W        W88118   9.571  20.236  24.241 -0.2517 -0.2865  0.1948
45181W        W88119  10.486  19.512  25.426 -0.0663 -0.1933 -0.0474
45182W        W88120   9.810  20.371  25.288 -0.0340 -0.1081  0.0961
45183W        W88121  11.105  21.487  26.200  0.1496  0.2148  0.3689
45184W        W88122   8.098  19.901  24.378 -0.0656 -0.2181 -0.0559
45185W        W88123   7.280  17.990  25.348  0.1111 -0.0275  0.0187
45186W        W88124   8.199  21.396  26.690 -0.0015  0.2348  0.0911
45187W        W88125   8.003  19.589  23.164  0.0584 -0.0024 -0.1313
45188W        W88126   9.691  20.692  24.103 -0.1494 -0.1992 -0.1504
45189W        W88127   9.474  19.390  26.210 -0.0867 -0.3391  0.0776
45190W        W88128  10.622  19.822  26.828  0.2425 -0.2048 -0.4392
45191W        W88129   8.364  17.554  22.607  0.2362  0.1727  0.0706
45192W        W88130  10.721  18.933  27.061 -0.2290  0.0688 -0.1059
45193W        W88131   7.680  19.626  24.545  0.2369  0.2020 -0.0200
45194W        W88132   8.584  18.366  23.940  0.0075 -0.1668 -0.0501
45195W        W88133   8.848  20.214  25.005  0.0887 -0.1214  0.2061
45196W        W88134   7.666  21.436  26.810 -0.2211  0.2889  0.0121
45197W        W88135   8.418  20.119  26.639 -0.0943 -0.0470 -0.3357
45198W        W88136   9.225  18.560  25.425 -0.2310  0.0854  0.1090
45199W        W88137  10.958  18.579  24.385 -0.2519  0.2567 -0.3304
45200W        W88138   9.141  20.092  26.760  0.1862  0.1975 -0.1457
45201W        W88139   9.969  18.721  27.972  0.1410  0.0243  0.0413
45202W        W88140  10.131  19.924  28.157 -0.0382 -0.0603  0.3476
45203W        W88141   7.814  19.589  26.855 -0.1097  0.1887 -0.0625
45204W        W88142   9.360  21.109  28.741  0.1790 -0.2661 -0.2566
45205W        W88143  11.749  19.195  25.406 -0.0640 -0.0564 -0.0971
45206W        W88144   9.512  20.620  27.003 -0.1607  0.2601  0.2390
45207W        W88145   7.929  19.546  27.346 -0.0761  0.0688 -0.1499
45208W        W88146   8.191  19.703  26.440  0.3765  0.3500 -0.2532
45209W        W88147   9.759  19.034  25.769  0.0019  0.1070 -0.1787
45210W        W88148   8.692  17.791  27.280 -0.1286 -0.1438 -0.1069
45211W        W88149  10.105  21.422  23.105 -0.1619  0.3509 -0.1913
45212W        W88150   7.654  20.528  28.301 -0.0683 -0.2528 -0.3816
45213W        W88151   9.328  21.257  25.701  0.2484 -0.0401  0.3073
45214W        W88152   8.421  20.657  24.927 -0.2736 -0.0885  0.2525
45215W        W88153  11.659  21.615  24.161  0.2643  0.0092 -0.0190
45216W        W88154  10.610  20.581  25.188  0.0863 -0.1883 -0.0352
45217W        W88155  10.673  21.941  26.532 -0.2261 -0.3115 -0.2934
45218W        W88156   8.456  18.378  24.911  0.0198 -0.1054 -0.2293
45219W        W88157   8.713  20.907  26.186 -0.1150  0.2502  0.1199
45220W        W88158   8.432  20.933  24.209 -0.1339 -0.1461 -0.0233
45221W        W88159   9.800  21.763  24.229 -0.0775  0.1253 -0.0113
45222W        W88160   7.368  21.865  25.255  0.0276  0.2333  0.0384
45223W        W88161  10.769  20.617  28.163 -0.1960 -0.0630 -0.2291
45224W        W88162   9.862  17.988  23.762  0.1067 -0.0098  0.2469
45225W        W88163  11.490  20.870  24.742  0.0369  0.0720  0.0350
45226W        W88164  10.884  19.649  22.593  0.2505  0.1054 -0.0093
45227W        W88165  10.540  21.726  27.918 -0.1793 -0.1754  0.1741
45228W        W88166   8.512  19.280  25.343 -0.2398 -0.0115 -0.0892
45229W        W88167   7.505  18.114  23.435  0.0967  0.0058  0.3244
45230W        W88168   7.142  19.925  25.434  0.1942  0.1461 -0.4792
45231W        W88169  10.862  17.890  25.104 -0.2097  0.3723  0.0741
45232W        W88170   8.844  21.882  26.338  0.0135  0.2826  0.0140
45233W        W88171   9.673  19.900  25.476  0.1896 -0.0828  0.1063
45234W        W88172   7.538  18.170  24.788 -0.0852 -0.0716  0.3019
45235W        W88173   8.104  20.564  25.477 -0.0112  0.2379  0.1236
45236W        W88174  11.103  18.356  25.902 -0.1527 -0.0892  0.0192
45237W        W88175   9.453  22.346  25.044 -0.0667  0.3957 -0.0682
45238W        W88176   9.927  18.360  24.089  0.1615 -0.0075  0.2526
45239W        W88177   8.120  21.305  24.308 -0.0803  0.1956 -0.1281
45240W        W88178   8.793  21.162  25.000 -0.0945  0.2851  0.0135
45241W        W88179   9.426  21.278  26.226 -0.0735  0.2185 -0.0836
45242W        W88180   7.673  17.705  24.879  0.0393 -0.0210  0.0476
45243W        W88181  10.806  21.107  25.112 -0.0791 -0.0849 -0.1125
45244W        W88182   8.333  19.073  25.834 -0.2258  0.4837 -0.2052
45245W        W88183   9.552  18.858  26.260 -0.2453  0.3309  0.1382
45246W        W88184   9.026  19.649  24.829 -0.0493 -0.1042 -0.2195
45247W        W88185   9.605  19.850  24.574 -0.0560 -0.0630  0.3888
45248W        W88186  10.526  18.728  26.625  0.0323  0.2000 -0.0691
45249W        W88187   7.170  19.553  26.708 -0.1903  0.1238  0.0765
45250W        W88188   9.146  20.104  24.553  0.1756  0.2835 -0.2554
45251W        W88189  10.787  20.150  26.523  0.0384  0.0965  0.0799
45252W        W88190   9.517  19.585  25.071 -0.3291  0.0788 -0.1452
45253W        W88191   9.898  20.245  28.611 -0.0570 -0.2564  0.2591
45254W        W88192   6.986  19.056  24.788 -0.1953  0.0441 -0.1634
45255W        W88193   8.687  18.830  24.024  0.2448  0.1573 -0.1090
45256W        W88194   7.434  20.313  25.909  0.2330 -0.0519  0.2899
45257W        W88195   8.285  18.745  25.382  0.0087 -0.2008 -0.0227
45258W        W88196  10.118  20.769  27.801  0.3757 -0.0528  0.2123
45259W        W88197   7.698  17.571  25.973 -0.0679 -0.3827  0.1756
45260W        W88198  10.768  21.239  22.177 -0.1797  0.0838 -0.0256
45261W        W88199  11.856  19.224  26.815 -0.2126  0.0051  0.2468
45262W        W88200   9.200  22.814  24.946  0.1312 -0.3478 -0.2605
45263W        W88201  11.114  19.697  24.931  0.4286 -0.0442  0.1375
45264W        W88202  11.157  22.157  27.092  0.1045  0.0492 -0.2890
45265W        W88203   7.541  19.345  25.973  0.2881 -0.2085 -0.0988
45266W        W88204   9.565  21.302  27.577  0.2431 -0.1269  0.0308
45267W        W88205  13.079  22.327  26.496  0.0255  0.0692  0.0342
45268W        W88206   8.255  17.695  23.622 -0.1756 -0.2309  0.3676
45269W        W88207   8.175  18.731  23.792  0.1727 -0.2517 -0.0557
45270W        W88208   7.585  21.374  25.272 -0.0422  0.1628  0.0945
45271W        W88209  11.853  18.432  24.711  0.0500 -0.1878  0.0381
45272W        W88210   9.932  19.584  25.842  0.3127  0.0750 -0.2141
45273W        W88211   9.472  21.018  22.933 -0.0609  0.2388  0.2519
45274W        W88212  11.657  18.028  27.598 -0.2266 -0.0934  0.1097
45275W        W88213  11.356  20.196  27.315 -0.0269  0.4166  0.1240
45276W        W88214   8.573  21.134  28.247 -0.0834 -0.1905 -0.0324
45277W        W88215   7.027  19.968  23.455 -0.2134 -0.0786 -0.1342
45278W        W88216   7.769  21.149  28.884 -0.0997 -0.0035  0.0200
45279W        W88217   9.673  20.124  26.406 -0.2273  0.2062  0.1642
45280W        W88218   8.069  20.943  25.141  0.0483 -0.0919 -0.0050
45281W        W88219   9.986  21.069  26.466  0.0950 -0.0954 -0.1751
45282W        W88220   9.250  19.497  24.391 -0.2242 -0.0594 -0.1709
45283W        W88221  11.351  22.138  25.411  0.1653  0.0878  0.2715
45284W        W88222   8.431  18.230  25.976  0.3340  0.2021  0.1994
45285W        W88223  10.503  18.680  24.195 -0.0717  0.0922  0.1410
45286W        W88224  10.485  17.708  24.302 -0.0958 -0.1162 -0.4586
45287W        W88225  10.010  20.466  26.277 -0.1282 -0.0844  0.1442
45288W        W88226   7.627  19.751  25.192 -0.0126 -0.1070 -0.2834
45289W        W88227   8.706  20.427  24.564  0.0425 -0.1089  0.2151
45290W        W88228   8.645  20.186  27.033  0.1081  0.0932 -0.0588
45291W        W88229   8.242  19.020  27.749  0.0266  0.0986 -0.0556
45292W        W88230   8.728  19.205  27.443  0.0104  0.1647 -0.1048
45293W        W88231   7.693  17.875  24.299  0.2017 -0.0879 -0.0849
45294W        W88232   7.674  17.584  25.414 -0.2750  0.2485 -0.1240
45295W        W88233  10.482  21.055  24.706 -0.0409  0.1705 -0.1499
45296W        W88234   8.784  18.752  25.147  0.2033 -0.1492 -0.0830
45297W        W88235   6.308  18.692  24.887  0.0695  0.0981 -0.2791
45298W        W88236  11.807  20.716  26.174 -0.0162 -0.0910  0.1169
45299W        W88237  10.493  20.493  26.424 -0.2057 -0.1251  0.1918
45300W        W88238   9.271  16.404  25.902  0.0372  0.1266 -0.0808
45301W        W88239  11.053  20.818  27.803  0.2471  0.1992 -0.1489
45302W        W88240   8.460  20.944  25.453  0.0446 -0.0718  0.1383
45303W        W88241   9.633  20.340  27.557 -0.1971  0.0169 -0.2912
45304W        W88242   9.649  18.936  27.125 -0.0528 -0.3488 -0.0574
45305W        W88243   7.488  19.592  23.504  0.2312  0.1545  0.2340
45306W        W88244   9.218  19.430  27.750 -0.3567  0.0598  0.1354
45307W        W88245   9.368  21.028  23.916 -0.2543 -0.2278 -0.1236
45308W        W88246   9.270  21.570  23.646  0.5010  0.0805 -0.2547
45309W        W88247  11.170  19.406  27.277 -0.0126  0.1855 -0.0562
45310W        W88248  10.119  20.439  27.331 -0.0166  0.1450  0.0249
45311W        W88249   7.790  19.231  26.493  0.0083 -0.0678  0.2245
45312W        W88250   9.590  20.377  25.981 -0.2284 -0.0157  0.0334
45313W        W88251  10.149  21.060  27.357  0.1738  0.2258  0.0444
45314W        W88252  11.645  21.457  24.641 -0.1084  0.2603 -0.1195
45315W        W88253  11.624  19.396  24.496  0.1974 -0.1315  0.2632
45316W        W88254  10.021  19.413  25.222  0.0434 -0.0438 -0.2670
45317W        W88255   9.514  18.705  27.566 -0.2352  0.1158  0.0803
45318W        W88256   9.107  21.048  26.571  0.0476 -0.0892 -0.0241
45319W        W88257  11.425  20.171  26.856 -0.0601 -0.1198  0.0398
45320W        W88258   8.025  18.373  25.660 -0.0187 -0.1395 -0.1551
45321W        W88259   8.995  18.912  23.137 -0.0922 -0.1812  0.0149
45322W        W88260  10.981  20.836  22.503 -0.1390 -0.2426 -0.3567
45323W        W88261   7.192  19.729  25.953 -0.1339 -0.1291 -0.1419
45324W        W88262   8.088  18.317  24.185 -0.1045 -0.1658  0.2234
45325W        W88263   7.949  20.169  26.686 -0.0465 -0.0602 -0.1207
45326W        W88264  10.974  22.033  26.138  0.1208  0.0573 -0.0064
45327W        W88265  10.835  19.376  26.795 -0.1634 -0.1053  0.1438
45328W        W88266   9.413  20.041  24.982  0.2860  0.1151  0.0379
45329W        W88267  11.168  22.269  24.491  0.1579 -0.0059 -0.0357
45330W        W88268   9.312  21.104  28.031  0.2028  0.0833 -0.2016
45331W        W88269  10.289  20.423  28.178 -0.1273  0.2015  0.0660
45332W        W88270  10.576  20.136  26.042  0.2683 -0.2775  0.1374
45333W        W88271  11.886  19.355  24.915 -0.0859  0.4212 -0.1541
45334W        W88272   7.599  16.812  27.289 -0.0783  0.1046  0.1550
45335W        W88273   8.978  19.360  26.274 -0.0911  0.0189 -0.0362
45336W        W88274   8.602  19.867  26.169  0.0929 -0.1926  0.1609
45337W        W88275   9.731  18.695  24.738 -0.1701  0.0080  0.0565
45338W        W88276   7.822  19.105  27.203  0.1298 -0.1006  0.1484
45339W        W88277   8.969  18.204  24.165  0.0506 -0.2859 -0.0531
45340W        W88278   9.933  20.837  26.915 -0.2200  0.0244  0.2365
45341W        W88279  11.100  20.207  24.666 -0.3022 -0.0464  0.0782
45342W        W88280   7.157  20.532  31.278 -0.1293 -0.0134  0.1938
45343W        W88281   9.229  19.587  29.325 -0.0238  0.2959 -0.1514
45344W        W88282   9.797  19.843  27.498 -0.1769  0.2297  0.1467
45345W        W88283  10.366  20.225  27.708  0.0963  0.0700  0.0076
45346W        W88284   7.551  18.136  27.961 -0.1966 -0.2412 -0.0725
45347W        W88285  11.363  20.835  28.371  0.2504  0.3360  0.1135
45348W        W88286   8.005  17.557  31.366  0.2548 -0.2748 -0.1730
45349W        W88287  10.462  21.041  29.018 -0.0638 -0.0199  0.0905
45350W        W88288  10.699  21.928  28.855  0.0397 -0.0065 -0.0032
45351W        W88289   8.846  20.839  27.867  0.0898  0.0531 -0.0575
45352W        W88290   8.108  18.262  29.892  0.1313  0.0436  0.2974
45353W        W88291   8.451  21.925  30.237 -0.0158 -0.2243 -0.2324
45354W        W88292  10.277  18.843  28.656  0.2262  0.1840 -0.1919
45355W        W88293   7.314  18.342  29.708 -0.1112 -0.0751 -0.1110
45356W        W88294  11.229  20.118  28.803 -0.1613 -0.0327 -0.2630
45357W        W88295   8.422  19.541  27.615  0.0123 -0.1651 -0.0274
45358W        W88296   9.209  19.756  30.048  0.0074  0.0979 -0.2472
45359W        W88297   9.132  19.093  29.419  0.1130 -0.2217 -0.2335
45360W        W88298  10.747  21.185  28.669  0.4244 -0.2635  0.1422
45361W        W88299   9.053  19.223  31.729 -0.2110 -0.3159  0.0031
45362W        W88300  10.506  18.768  30.796  0.0271  0.2899  0.0387
45363W        W88301   8.270  21.155  29.245  0.2876  0.0595  0.0276
45364W        W88302   7.270  20.944  27.626 -0.3270 -0.0015  0.0731
45365W        W88303   7.233  18.929  30.394 -0.2013 -0.1626  0.0891
45366W        W88304   8.664  19.339  31.290 -0.2572 -0.4183 -0.1785
45367W        W88305  10.641  18.834  29.147 -0.2235  0.0115  0.3801
45368W        W88306  12.564  20.006  25.940 -0.3122 -0.0724  0.0646
45369W        W88307   9.467  21.045  30.544  0.2539 -0.1273 -0.0132
45370W        W88308   9.238  20.543  30.376 -0.1440 -0.1808  0.1197
45371W        W88309  12.106  18.882  30.248 -0.1536 -0.0043  0.0946
45372W        W88310   7.844  20.797  29.303 -0.1927  0.0668  0.3140
45373W        W88311   7.225  20.168  29.116 -0.3348  0.0253  0.0316
45374W        W88312  10.435  21.014  28.282  0.0868  0.1545 -0.2005
45375W        W88313  12.405  20.164  28.803  0.7831 -0.0354 -0.3532
45376W        W88314  10.256  22.129  28.945  0.1851 -0.0910  0.3755
45377W        W88315   7.235  21.880  30.399  0.0757 -0.0473  0.0458
45378W        W88316   7.591  21.404  26.310 -0.0663  0.0081  0.0486
45379W        W88317   9.844  21.762  30.224  0.0741  0.0712 -0.1686
45380W        W88318   6.382  20.967  30.484 -0.1258 -0.0408 -0.0899
45381W        W88319   8.769  18.921  29.745  0.0702  0.1043  0.1616
45382W        W88320   9.121  20.818  29.850 -0.0267 -0.5320  0.3169
45383W        W88321  10.307  20.293  28.945  0.1057  0.0749  0.1124
45384W        W88322  10.449  19.756  27.687 -0.1558  0.3855 -0.0396
45385W        W88323   5.808  21.459  29.595  0.0979 -0.0122  0.1758
45386W        W88324   6.519  19.937  29.749  0.3367  0.1223  0.5045
45387W        W88325  11.187  19.859  31.271  0.1457 -0.3572  0.2456
45388W        W88326   9.819  21.286  28.550  0.1216  0.0646 -0.0007
45389W        W88327  10.980  19.720  28.189 -0.1814 -0.2154  0.1802
45390W        W88328   8.958  18.327  28.235 -0.1353 -0.1569 -0.2323
45391W        W88329  10.823  17.642  27.589  0.4837  0.2817 -0.0708
45392W        W88330   9.332  19.093  28.698 -0.0276  0.0044  0.1870
45393W        W88331   8.174  22.620  28.565  0.0288 -0.1686 -0.0232
45394W        W88332   8.501  20.283  28.906 -0.0965  0.1660 -0.0567
45395W        W88333   9.962  21.399  30.587  0.0355  0.0205  0.2052
45396W        W88334  10.787  20.140  27.973 -0.1751 -0.0275 -0.0022
45397W        W88335  10.065  19.453  28.930 -0.0967  0.0924 -0.1349
45398W        W88336   7.636  21.539  30.387 -0.1885  0.1056  0.1580
45399W        W88337   7.859  20.296  28.954  0.3842 -0.1537 -0.1687
45400W        W88338  11.475  19.926  28.402  0.2531  0.0185 -0.0164
45401W        W88339  12.811  19.379  30.384  0.1629  0.1682  0.2710
45402W        W88340  10.355  19.926  27.215 -0.0511  0.0931  0.0194
45403W        W88341   8.761  18.267  29.108 -0.1257  0.0772  0.2832
45404W        W88342   8.144  19.816  30.434  0.1148  0.1239  0.1177
45405W        W88343   9.040  19.982  30.547 -0.2822 -0.1480  0.0673
45406W        W88344   7.585  19.839  27.570 -0.0636 -0.3280 -0.0991
45407W        W88345  10.858  21.301  30.345  0.1259  0.0965  0.0680
45408W        W88346   6.711  20.643  31.383  0.2047  0.0078  0.2255
45409W        W88347  10.519  19.577  28.229  0.0478 -0.0712  0.3463
45410W        W88348  10.013  20.796  29.827  0.0438 -0.0109 -0.1846
45411W        W88349  12.724  20.874  30.161  0.2828 -0.2364  0.1644
45412W        W88350  11.019  19.890  27.111  0.1135 -0.2162  0.0219
45413W        W88351  11.832  19.142  29.463 -0.0254 -0.0961  0.2537
45414W        W88352   9.961  18.842  31.356 -0.0538  0.0929 -0.0891
45415W        W88353   9.072  20.172  27.262  0.1593 -0.1730  0.0072
45416W        W88354   8.450  20.100  27.971 -0.4024  0.0911  0.2566
45417W        W88355  10.745  21.409  29.316  0.0068 -0.0975  0.1478
45418W        W88356  12.472  19.700  26.324  0.1906 -0.1679  0.3759
45419W        W88357   7.216  21.513  30.029  0.0665  0.0309 -0.0234
45420W        W88358   8.103  20.094  29.365  0.1534 -0.1072  0.3602
45421W        W88359  10.025  20.625  31.115 -0.0319 -0.1978 -0.0578
45422W        W88360   8.696  20.534  28.250  0.0328  0.1690  0.0826
45423W        W88361   6.615  20.591  30.871 -0.0154 -0.2087 -0.4543
45424W        W88362   7.503  21.667  28.516  0.0778  0.0322  0.2471
45425W        W88363   7.602  19.367  29.414 -0.0657 -0.1401  0.0864
45426W        W88364   7.555  20.304  29.906 -0.0767 -0.0743  0.2919
45427W        W88365   9.528  19.805  29.689  0.2385 -0.1484 -0.3470
45428W        W88366   8.836  19.023  30.939 -0.0866 -0.1949  0.0795
45429W        W88367  12.346  19.472  29.559  0.1481 -0.1693  0.0881
45430W        W88368   6.556  19.396  29.499 -0.0482 -0.4095 -0.2389
45431W        W88369  11.390  20.669  27.417  0.4755  0.3445 -0.0172
45432W        W88370  11.680  19.117  26.021 -0.1894  0.0825  0.6101
45433W        W88371   8.816  20.736  27.376  0.2821  0.1437 -0.0771
45434W        W88372   8.614  19.003  30.429 -0.3182 -0.1169  0.0143
45435W        W88373   7.994  19.708  27.924 -0.1881  0.2531  0.1128
45436W        W88374   9.405  18.544  30.879  0.1331  0.0206  0.5932
45437W        W88375   7.155  17.857  30.193 -0.2098 -0.0126  0.2813
45438W        W88376   9.410  19.408   0.275  0.3103 -0.0464  0.0618
45439W        W88377   7.326  18.175  28.883  0.0417  0.2744 -0.0589
45440W        W88378   9.587  19.221  29.169 -0.0811  0.0709 -0.3844
45441W        W88379   8.295  20.643  29.155  0.3144 -0.1679  0.1434
45442W        W88380   7.550  20.485  27.752 -0.2361  0.0298 -0.2624
45443W        W88381  11.690  19.064  31.524 -0.0899 -0.2598 -0.2482
45444W        W88382  10.405  20.631  28.626  0.0928 -0.0180  0.0334
45445W        W88383  11.165  21.265  29.918 -0.2909  0.1542 -0.3239
45446W        W88384   9.506  21.453  29.119  0.1472  0.1058 -0.0522
45447W        W88385   8.516  19.829  29.824  0.2530 -0.0911 -0.2100
45448W        W88386   7.933  19.950  28.548 -0.0266 -0.1005 -0.3703
45449W        W88387   9.017  20.412  29.466  0.0625  0.0602 -0.1060
45450W        W88388   8.374  20.909  30.327 -0.0855 -0.0309  0.4423
45451W        W88389   7.410  17.673  29.802  0.0932 -0.2524  0.1418
45452W        W88390  11.853  20.981  29.307  0.1319 -0.0801 -0.1399
45453W        W88391   8.569  20.834  28.690  0.1099 -0.1182 -0.0933
45454W        W88392   8.612  20.944  30.779  0.0356  0.1121 -0.0326
45455W        W88393  10.960  17.999  31.371 -0.0983 -0.0754  0.0324
45456W        W88394  10.700  20.180  29.571 -0.0152 -0.0630  0.2916
45457W        W88395  10.458  18.552  27.867  0.3217  0.1765  0.2638
45458W        W88396   7.366  19.180  28.226  0.2050 -0.0345 -0.5419
45459W        W88397   9.804  22.323  28.593 -0.2566 -0.3239  0.3222
45460W        W88398   7.925  21.623  28.758 -0.1009  0.1578 -0.0603
45461W        W88399   7.424  20.036  28.681  0.1382 -0.0244  0.2277
45462W        W88400   9.239  20.941  29.320 -0.2239  0.1205 -0.4549
45463W        W88401  11.235  19.629  29.681  0.4033  0.0551 -0.0041
45464W        W88402   7.047  19.789  30.983 -0.0344  0.0627  0.0101
45465W        W88403   9.112  20.142  31.091  0.0359 -0.0525 -0.0179
45466W        W88404   8.489  20.375  29.574  0.2648 -0.0984  0.0854
45467W        W88405   6.818  21.112  30.614 -0.2613  0.0433  0.2742
45468W        W88406  10.207  18.475  29.026  0.1353  0.2004 -0.0458
45469W        W88407  10.369  18.094  25.931 -0.0976  0.0246  0.1269
45470W        W88408   8.730  20.512  31.030 -0.1028  0.0508  0.0988
45471W        W88409  12.601  19.759  29.185  0.0399 -0.2268 -0.1856
45472W        W88410   9.302  20.550  28.992 -0.1568 -0.1013  0.0481
45473W        W88411   9.434  19.725  26.660 -0.0236  0.2584 -0.1462
45474W        W88412   7.045  20.437   0.349  0.1310 -0.0049 -0.0036
45475W        W88413  10.028  20.857  28.838  0.1567  0.1563  0.0297
45476W        W88414   8.997  20.385  28.596  0.0793  0.1505 -0.1417
45477W        W88415  10.231  18.910  27.573  0.1066 -0.1570  0.1344
45478W        W88416  12.197  19.108  27.906  0.0749 -0.1648  0.1497
45479W        W88417   7.756  20.493  31.132  0.0800 -0.1529 -0.0149
45480W        W88418  10.829  19.630  30.544  0.4251  0.2617  0.0867
45481W        W88419  11.563  20.377  28.603  0.2400 -0.0609 -0.0643
45482W        W88420  10.215  19.123  30.993  0.1781  0.0313 -0.1239
45483W        W88421   7.499  19.494  28.794  0.2628  0.0845 -0.2879
45484W        W88422  10.146  17.822  29.734 -0.1430 -0.1862  0.2067
45485W        W88423   8.493  22.172  27.294 -0.2202  0.2408 -0.2900
45486W        W88424  11.287  19.208  29.368  0.1531 -0.3649  0.1057
45487W        W88425  10.439  19.624  30.212  0.0454 -0.0541 -0.2201
45488W        W88426  10.709  18.571  29.763  0.0489 -0.0763 -0.3013
45489W        W88427  10.244  20.869  30.757 -0.2402  0.3926 -0.1228
45490W        W88428  11.377  19.102  26.912  0.0515  0.3253 -0.0661
45491W        W88429  10.089  19.447  29.475 -0.1766  0.1313 -0.1562
45492W        W88430   7.718  19.226  27.734 -0.2973 -0.0524 -0.0098
45493W        W88431  10.348  20.677  30.313 -0.0040  0.0627  0.5391
45494W        W88432   8.617  21.436  30.681 -0.1144 -0.1845  0.0351
45495W        W88433   8.785  21.998  30.655 -0.2603  0.0880 -0.2779
45496W        W88434  10.103  19.174  30.368 -0.0801 -0.3092 -0.2516
45497W        W88435  10.643  19.479  27.319  0.1057  0.0096  0.2138
45498W        W88436  10.417  19.856  30.740  0.0448 -0.0325  0.1935
45499W        W88437   9.308  19.494  28.336  0.0894  0.3424 -0.1215
45500W        W88438   8.839  22.511  29.429  0.0943  0.0084  0.1843
45501W        W88439   8.453  20.419  27.508 -0.1724  0.1733 -0.0672
45502W        W88440  10.029  17.645  30.625  0.3364  0.1287  0.1447
45503W        W88441   9.568  21.924  31.735 -0.0012  0.0949  0.1545
45504W        W88442   8.329  19.826  27.053  0.1324 -0.3823 -0.0712
45505W        W88443  10.811  20.826  30.170  0.0256  0.0097  0.2008
45506W        W88444   7.281  21.654  29.544 -0.1596 -0.0412 -0.1303
45507W        W88445  11.948  17.937  29.157  0.1117 -0.1669 -0.0131
45508W        W88446   5.780  21.109  29.925  0.0945  0.1455 -0.1925
45509W        W88447   8.843  19.348  28.494 -0.0268  0.2932  0.1209
45510W        W88448   8.183  19.534  29.526 -0.0796 -0.2046  0.0485
45511W        W88449  10.737  17.973  29.731  0.0452  0.0635  0.0557
45512W        W88450  10.940  20.719  28.651  0.1711 -0.0558 -0.0491
45513W        W88451   7.947  19.315  29.108 -0.0356 -0.1436  0.2364
45514W        W88452   8.865  19.351  29.031  0.0757  0.0653  0.2310
45515W        W88453   6.913  21.096  31.205  0.3448 -0.1394  0.1582
45516W        W88454  10.782  21.015  29.691  0.0629 -0.0221  0.3376
45517W        W88455  10.065  17.647  28.033  0.2282  0.3228 -0.0786
45518W        W88456  11.613  21.299  28.951  0.1408 -0.0861 -0.1918
45519W        W88457   9.600  20.082  30.523 -0.1718  0.0431 -0.2045
45520W        W88458   7.657  19.968  27.112  0.2581  0.0305  0.0063
45521W        W88459  11.059  20.087  30.805 -0.4607 -0.2922  0.0052
45522W        W88460   8.901  19.374  30.522  0.0069  0.0167 -0.2060
45523W        W88461   7.699  19.817  29.056  0.0960 -0.1379  0.0600
45524W        W88462  10.126  21.395  29.895 -0.0715  0.2762  0.0805
45525W        W88463   8.383  19.586  28.173  0.2809  0.1899 -0.2151
45526W        W88464   7.635  21.273  29.489 -0.2596  0.2589  0.3201
45527W        W88465   8.265  20.299  31.169 -0.0906 -0.0395 -0.0381
45528W        W88466  11.221  21.021  28.936  0.3520 -0.1137 -0.0241
45529W        W88467  10.332  18.826  29.537 -0.5091 -0.1042  0.2897
45530W        W88468   6.608  18.966  28.726  0.2874  0.0986 -0.2828
45531W        W88469  10.036  19.738  29.924  0.1090 -0.1475 -0.0785
45532W        W88470  12.070  20.217  30.062  0.0394 -0.0253 -0.0957
45533W        W88471   9.499  19.267  29.750  0.5377  0.0289  0.0414
45534W        W88472   8.664  19.598  31.698 -0.3802 -0.0601 -0.0031
45535W        W88473   9.986  18.636  30.500  0.0223  0.0284  0.0462
45536W        W88474  10.916  23.002  27.776  0.2595 -0.1421  0.0613
45537W        W88475   9.997  19.782  30.484 -0.1959 -0.2435  0.4489
45538W        W88476   8.030  20.653  28.665  0.1174  0.1800 -0.2777
45539W        W88477   8.643  19.861  30.320 -0.2418 -0.1609 -0.1459
45540W        W88478  11.710  20.849  28.782  0.0833 -0.1603  0.2456
45541W        W88479  10.461  18.225  29.416 -0.1542 -0.1038 -0.3174
45542W        W88480   5.751  20.576  29.879  0.2500 -0.1480 -0.3586
45543W        W88481   7.433  21.095  28.380  0.2164 -0.0865 -0.0608
45544W        W88482   7.165  20.223  29.639 -0.0851  0.0547 -0.3087
45545W        W88483  11.190  18.787  29.637  0.0216  0.0423 -0.0725
45546W        W88484  10.954  18.408  27.588  0.0508 -0.0184  0.0830
45547W        W88485   9.747  19.194  27.590 -0.2061  0.2102 -0.0326
45548W        W88486  11.737  19.549  29.709 -0.2747  0.0396  0.2104
45549W        W88487   9.820  18.941  28.382 -0.1664  0.0056 -0.0394
45550W        W88488  11.204  18.034  30.357 -0.1072 -0.2273 -0.2075
45551W        W88489   9.037  18.038  29.835 -0.0428 -0.1691  0.6115
45552W        W88490  10.774  19.744  28.655  0.0165 -0.4173  0.0627
45553W        W88491   7.653  18.142  30.055  0.0800  0.0107  0.3107
45554W        W88492   8.954  21.341  31.707  0.0658  0.0407  0.1116
45555W        W88493   6.767  20.089  30.198 -0.3005 -0.1953 -0.2272
45556W        W88494  11.244  19.586  28.672  0.1229  0.4700  0.1675
45557W        W88495   8.509  18.533  28.439  0.2339 -0.0016  0.1853
45558W        W88496   8.125  21.621  30.537  0.1510  0.1552  0.3585
45559W        W88497  12.132  20.029  29.177 -0.0677  0.0445 -0.0652
45560W        W88498  10.648  21.626  27.467  0.3285 -0.3930 -0.0742
45561W        W88499  10.221  19.807  28.600 -0.1256  0.0948 -0.3907
45562W        W88500   7.834  20.579  30.266 -0.0271  0.1885 -0.3812
45563W        W88501  10.947  19.237  28.430 -0.2529 -0.1658 -0.1257
45564W        W88502   9.690  19.650  27.992  0.2093 -0.0810  0.0324
45565W        W88503   7.649  20.855  29.754  0.1972 -0.1868  0.2382
45566W        W88504   9.893  18.558  31.804 -0.0588 -0.1628  0.0017
45567W        W88505  11.919  19.589  28.156  0.0528 -0.0377  0.0867
45568W        W88506   9.435  20.162  28.742 -0.2781  0.1956 -0.0848
45569W        W88507  10.458  19.173  29.903 -0.0725 -0.0928 -0.2245
45570W        W88508   9.797  20.323  28.105 -0.3441 -0.1434 -0.1480
45571W        W88509   8.930  19.691  30.955 -0.1043  0.1520  0.3691
45572W        W88510   7.891  19.103  29.756  0.1318 -0.0524  0.0285
45573W        W88511  10.924  21.662  30.782 -0.0532  0.1779  0.2079
45574W        W88512  10.174  18.441  26.872  0.3320 -0.3776  0.0044
45575W        W88513  11.662  18.258  30.092 -0.0451  0.2048 -0.3086
45576W        W88514  10.458  17.801  28.369 -0.4418 -0.1159 -0.2414
45577W        W88515  10.201  18.910  27.067 -0.2336  0.1120  0.0943
45578W        W88516   8.336  20.452  30.689 -0.1299  0.0639 -0.1030
45579W        W88517  10.653  21.118  30.819 -0.0236 -0.1214 -0.1014
45580W        W88518   8.632  18.722  27.881  0.0654  0.3330  0.3518
45581W        W88519  10.548  19.574  31.165 -0.1862 -0.0051  0.4657
45582W        W88520   8.402  21.638  29.672  0.2951  0.0795  0.3532
45583W        W88521   9.840  21.121  30.190  0.0539 -0.1206  0.2414
45584W        W88522   9.508  20.697  28.488  0.1131 -0.0166 -0.0182
45585W        W88523   9.720  18.830  29.472 -0.3976 -0.1607  0.1336
45586W        W88524   7.517  21.775  31.442 -0.0559 -0.2158  0.1718
45587W        W88525   8.898  19.763  27.960  0.1855  0.1550 -0.1436
45588W        W88526   8.688  19.927  27.452 -0.1029  0.1134  0.1986
45589W        W88527  10.298  20.594  29.355  0.1091  0.0389 -0.0875
45590W        W88528  11.156  21.226  30.907 -0.0803 -0.0129  0.0846
45591W        W88529   8.403  18.216  28.042  0.1879 -0.3760  0.0747
45592W        W88530   9.921  20.145  31.086 -0.0728  0.1809  0.0180
45593W        W88531   7.834  20.988  27.775  0.1100  0.0348  0.0080
45594W        W88532  10.336  17.937  29.003 -0.2499 -0.0910  0.0991
45595W        W88533   7.528  21.533  29.096  0.1082 -0.1730 -0.1063
45596W        W88534   6.328  20.821  30.013  0.1103  0.0748 -0.0090
45597W        W88535   5.837  20.789  28.910 -0.2961 -0.2887  0.3860
45598W        W88536  11.611  20.003  29.503 -0.0373  0.0696 -0.0333
45599W        W88537  10.909  18.914  30.093  0.1227 -0.1790 -0.1329
45600W        W88538   8.754  20.468  30.397  0.0102  0.1007  0.0445
45601W        W88539  11.810  20.548  30.541  0.3348  0.1604  0.0079
45602W        W88540   9.561  20.647  30.018 -0.2194  0.0059 -0.2782
45603W        W88541   8.832  20.233  29.982 -0.1130  0.2739  0.2021
45604W        W88542   8.424  22.258  31.031  0.3393  0.0154 -0.2059
45605W        W88543  11.132  19.305  27.927 -0.1612 -0.2952 -0.3994
45606W        W88544   8.003  20.484  29.653 -0.4918 -0.1167 -0.1762
45607W        W88545   7.540  20.399  31.589  0.0772 -0.2915 -0.1370
45608W        W88546   9.775  18.628  30.014  0.0828 -0.0247 -0.0834
45609W        W88547   9.727  19.427  30.177 -0.1016 -0.1922  0.0054
45610W        W88548   8.816  19.408  29.677  0.1571  0.4102 -0.1274
45611W        W88549   9.239  20.547  28.024 -0.0361 -0.1856  0.0020
45612W        W88550   7.591  21.082  30.155 -0.3248  0.0702  0.2956
45613W        W88551   7.223  21.414  30.566  0.0908 -0.0351 -0.0158
45614W        W88552   7.892  22.198  28.980 -0.1257  0.0742 -0.0736
45615W        W88553  10.643  20.236  30.268  0.0025  0.1360 -0.0959
45616W        W88554   8.860  20.308  27.845  0.0465  0.1148  0.1023
45617W        W88555  10.138  21.924  29.805  0.1889  0.2281 -0.2419
45618W        W88556   8.435  19.053  28.350 -0.4040 -0.1163  0.3451
45619W        W88557   6.774  19.309  29.074  0.0731 -0.0571 -0.2176
45620W        W88558   6.639  21.924  26.528  0.1088  0.2169  0.0409
45621W        W88559   9.898  21.195  28.041 -0.3831 -0.0289 -0.0575
45622W        W88560   9.023  20.920  28.404 -0.1066 -0.1942 -0.1735
45623W        W88561  10.043  20.293  30.195  0.1369  0.0208  0.0190
45624W        W88562  11.697  18.121  28.090 -0.0936 -0.0034 -0.1533
45625W        W88563  10.376  19.073  28.213 -0.1456  0.0376  0.2707
45626W        W88564  10.579  19.272  29.347  0.0205 -0.1374 -0.3443
45627W        W88565   9.318  19.613  30.560  0.1910  0.1373 -0.0139
45628W        W88566   9.782  19.853  29.136  0.0305  0.3375 -0.2627
45629W        W88567   9.423  19.049  28.073 -0.1407  0.2658  0.1274
45630W        W88568   7.243  20.922  30.403 -0.2233  0.0321 -0.2032
45631W        W88569  11.744  17.369  31.382 -0.1957  0.1602 -0.1559
45632W        W88570   5.472  20.975  30.886 -0.0452  0.2727  0.0455
45633W        W88571  11.053  21.732  28.465 -0.3965 -0.0211  0.0774
45634W        W88572   6.790  19.881  29.322 -0.0168  0.2708  0.0075
45635W        W88573   9.356  20.096  29.301  0.1057 -0.0185 -0.3271
45636W        W88574  12.751  18.328  30.198  0.0335 -0.0574  0.0686
45637W        W88575   9.545  21.131  26.860  0.4994 -0.0766  0.2577
45638W        W88576   9.739  19.708  28.608 -0.0974  0.0900 -0.0971
45639W        W88577   9.318  20.058  28.203 -0.0395 -0.2052 -0.1894
45640W        W88578   9.331  20.231  29.833 -0.0060  0.1003  0.1268
45641W        W88579   8.781  23.068  31.122 -0.0083  0.1974  0.2348
45642W        W88580   7.938  17.915  29.241 -0.1084  0.4312  0.2468
45643W        W88581  11.600  18.839  27.345 -0.0399  0.1140 -0.1115
45644W        W88582   8.457  19.581  30.766 -0.1190 -0.0197  0.1336
45645W        W88583   9.979  19.112  29.865 -0.2048 -0.1494  0.1843
45646W        W88584   8.519  19.691  28.650 -0.0012  0.2782  0.1328
45647W        W88585  11.599  18.592  27.828 -0.0917  0.2455 -0.2844
45648W        W88586  10.900  19.407  29.949  0.1325 -0.0210 -0.0380
45649W        W88587   7.777  19.804  29.568 -0.0054  0.0064  0.2110
45650W        W88588   8.991  20.124  28.994 -0.1320 -0.0580 -0.3984
45651W        W88589  11.098  19.481  30.920  0.0637  0.0460 -0.0416
45652W        W88590   9.263  19.925  27.626  0.0173  0.2010  0.2587
45653W        W88591   8.666  21.565  29.212  0.0209  0.1102  0.3147
45654W        W88592   6.718  18.896  29.610  0.1273 -0.0007  0.3004
45655W        W88593   8.067  19.518  28.523  0.2039  0.2570  0.2188
45656W        W88594   7.329  19.753  29.419  0.0285  0.0198 -0.2899
45657W        W88595   8.003  20.056  29.931  0.0621 -0.2874  0.0978
45658W        W88596  10.825  20.752  29.183  0.0855  0.1904 -0.0853
45659W        W88597   7.248  17.186  29.989  0.1493 -0.2948  0.0212
45660W        W88598  10.934  21.259  28.187  0.2885 -0.0401 -0.0443
45661W        W88599  10.107  18.951  29.120  0.3413 -0.1160 -0.1047
45662W        W88600   8.367  21.907  28.870  0.2738 -0.2293 -0.0655
45663W        W88601  11.806  18.873  28.199 -0.0805  0.4075 -0.2197
45664W        W88602  10.218  21.918  28.504  0.0837 -0.0369 -0.4629
45665W        W88603   7.441  20.118  31.159 -0.0311  0.2952 -0.2632
45666W        W88604  12.052  20.484  29.066 -0.5489 -0.0432 -0.1136
45667W        W88605  13.341  19.643  27.220  0.4481 -0.0711  0.1087
45668W        W88606   8.666  17.786  28.249 -0.1675 -0.0829 -0.1661
45669W        W88607   8.259  18.704  30.203 -0.1924  0.0387  0.1936
45670W        W88608   6.621  20.515  28.566  0.1350 -0.0900 -0.2479
45671W        W88609  11.414  19.656  29.161 -0.1745 -0.0087  0.0511
45672W        W88610   9.752  18.898  30.910  0.1949 -0.0456  0.0895
45673W        W88611   9.532  20.589  29.542 -0.2244  0.2396  0.2018
45674W        W88612  11.897  17.725  31.740  0.1085 -0.1842  0.2411
45675W        W88613   8.523  21.111  31.815  0.1389 -0.2357 -0.0509
45676W        W88614   9.721  21.875  30.799 -0.5558  0.2171  0.0429
45677W        W88615   7.285  21.071  29.028 -0.0781  0.0530  0.2104
45678W        W88616  10.166  20.283  30.679 -0.1851 -0.3002 -0.0432
45679W        W88617   9.041  21.318  29.100  0.0405 -0.0371  0.0969
45680W        W88618   8.941  19.901  29.602 -0.1998  0.0261 -0.1606
45681W        W88619  11.883  21.288  28.021  0.1617  0.1115 -0.3220
45682W        W88620   9.164  18.853  30.534 -0.1116  0.0436  0.1594
45683W        W88621  12.095  20.510  28.571 -0.0561  0.1696  0.1223
45684W        W88622   8.598  19.832  29.253  0.0790  0.3080 -0.2733
45685W        W88623  10.678  18.380  28.866 -0.0863  0.0095  0.0986
45686W        W88624  12.600  18.509  27.193 -0.0741  0.0743  0.0022
45687W        W88625   7.819  19.596  31.442 -0.2257  0.1535  0.1125
45688W        W88626   8.287  20.310  28.382 -0.0547 -0.1578  0.1184
45689W        W88627   8.310  18.973  27.176 -0.0297 -0.1060  0.1802
45690W        W88628   7.963  20.116  30.846  0.3626 -0.0511 -0.0456
45691W        W88629  10.350  18.735  30.180 -0.3819 -0.1294  0.0577
45692W        W88630   9.122  19.194  30.072  0.0446  0.0101 -0.0722
45693W        W88631   6.586  20.060  28.872 -0.1016 -0.1105 -0.4534
45694W        W88632   7.851  17.898  28.787 -0.0598  0.0348 -0.0855
45695W        W88633   9.810  21.738  28.853 -0.0114 -0.0999 -0.0404
45696W        W88634   9.549  18.376  29.378 -0.0743 -0.0936 -0.1071
45697W        W88635   8.266  18.814  28.948 -0.1660  0.0176  0.1899
45698W        W88636  10.802  20.291  28.849  0.0418 -0.0473  0.1666
45699W        W88637  11.125  20.310  28.343  0.0005 -0.1125 -0.1914
45700W        W88638   7.695  18.984  28.871 -0.0663  0.1349 -0.1599
45701W        W88639  12.592  21.736  29.685 -0.1027 -0.2986  0.0775
45702W        W88640   6.970  21.079  28.165  0.1827  0.1024 -0.1422
45703W        W88641  10.101  19.941  31.947 -0.0348 -0.0004 -0.1032
45704W        W88642   8.714  18.003  30.857 -0.0543  0.6146 -0.3524
45705W        W88643   7.297  19.159  29.064  0.0204 -0.1635  0.0062
45706W        W88644   9.849  20.881  29.331  0.2564  0.0934 -0.0477
45707W        W88645   9.131  21.508  29.606  0.3524  0.2305  0.1066
45708W        W88646  11.809  21.046  27.585  0.0292 -0.2688  0.0868
45709W        W88647   8.101  22.007  29.825  0.3823  0.0975 -0.3179
45710W        W88648   7.128  20.874  31.681  0.0225  0.1837 -0.0471
45711W        W88649   7.159  18.709  29.941 -0.1381 -0.1224  0.1591
45712W        W88650  10.128  19.437  27.866  0.2128 -0.1679  0.1435
45713W        W88651   8.916  20.995  30.340 -0.3597 -0.0504  0.2345
45714W        W88652  11.578  19.485  26.420 -0.3786  0.3553  0.0214
45715W        W88653  11.565  19.184  28.932  0.3728 -0.1294 -0.2809
45716W        W88654  10.642  19.299  27.764 -0.3753 -0.2542 -0.2134
45717W        W88655   7.040  18.618  30.763 -0.0194  0.1852 -0.1829
45718W        W88656   6.820  20.165  31.219 -0.0779 -0.0534  0.5502
45719W        W88657  11.388  20.578  29.147 -0.0060  0.2139  0.1270
45720W        W88658   6.992  18.387  29.330  0.3073  0.3483  0.0948
45721W        W88659   9.981  17.956  27.604  0.1017  0.0987  0.0458
45722W        W88660  11.227  21.849  27.523 -0.1619 -0.3635 -0.0926
45723W        W88661   7.598  20.260  29.402 -0.0811 -0.1400 -0.1025
45724W        W88662  10.832  18.864  28.110 -0.0620  0.0479  0.3910
45725W        W88663  10.073  19.717  31.014 -0.1208  0.0311  0.1200
45726W        W88664   8.754  22.005  29.725 -0.2787 -0.1399  0.3206
45727W        W88665  10.469  20.607  29.831 -0.1501  0.0826  0.1411
45728W        W88666   8.661  20.674  29.964 -0.0072  0.0512 -0.0799
45729W        W88667  11.815  18.049  26.064 -0.3476  0.1081  0.1242
45730W        W88668  10.567  21.445  31.263 -0.1381 -0.1923  0.3187
45731W        W88669  11.929  22.451  30.340 -0.1415  0.1126  0.5612
45732W        W88670   7.557  21.133  30.733 -0.2921 -0.1371 -0.2158
45733W        W88671  12.055  19.976  28.478  0.2864  0.0572  0.0965
45734W        W88672   7.933  17.796  29.795  0.1713 -0.2867 -0.1869
45735W        W88673   9.868  20.196  29.540 -0.0452 -0.2776  0.0689
45736W        W88674   9.785  20.441  29.100  0.0325 -0.1198  0.1401
45737W        W88675  11.031  20.519  29.646  0.0557  0.2508  0.0252
45738W        W88676   6.952  19.764  29.862  0.1837 -0.0271  0.0030
45739W        W88677  10.557  19.340  28.772  0.3296 -0.1101 -0.3182
45740W        W88678   7.057  22.591  30.676  0.0643  0.1548  0.0386
45741W        W88679   9.819  20.656  30.534 -0.0014  0.2051  0.2148
45742W        W88680  11.625  19.733  31.396  0.1134 -0.4656 -0.0571
45743W        W88681   8.089  21.271  30.898  0.0094 -0.1045 -0.1752
45744W        W88682   7.741  18.534   0.070 -0.0610  0.0134  0.0972
45745W        W88683   8.764  22.611  31.235  0.0553  0.0199  0.1023
45746W        W88684   7.654  19.940   0.555 -0.0119 -0.3884  0.1603
45747W        W88685   7.551  23.716  31.380 -0.0009  0.1263  0.0280
45748W        W88686   9.708  19.291  31.252 -0.0585  0.1070 -0.0646
45749W        W88687   9.761  19.779   0.311  0.1996 -0.1298  0.4565
45750W        W88688  10.852  18.362   0.074  0.2839  0.4800 -0.0106
45751W        W88689  11.019  21.725  31.306 -0.1971 -0.0531  0.1618
45752W        W88690   9.205  19.505  31.358  0.1521  0.0430  0.1606
45753W        W88691   9.165  18.810  29.042  0.2392  0.1618  0.0430
45754W        W88692  10.254  21.959  30.589  0.0347 -0.0087  0.2690
45755W        W88693   7.967  21.591  31.402 -0.0144  0.1803 -0.0510
45756W        W88694  10.470  19.672  31.846  0.1712  0.0977 -0.0889
45757W        W88695   7.256  21.535  31.035 -0.0570 -0.2604 -0.1471
45758W        W88696   7.315  20.871   0.160  0.0752 -0.1612 -0.7965
45759W        W88697   9.492  20.238  31.424 -0.0788 -0.2468 -0.2709
45760W        W88698   8.746  18.385  31.786 -0.0226  0.1248  0.1947
45761W        W88699   7.802  19.612  31.956  0.0268  0.1970  0.1716
45762W        W88700   6.793  18.267  31.072  0.0265 -0.3525  0.0516
45763W        W88701   7.401  22.552   0.075  0.1167 -0.2924  0.1268
45764W        W88702  13.993  18.943  30.394  0.1183  0.1400  0.0505
45765W        W88703  11.467  18.668  31.956 -0.0235 -0.2138  0.1266
45766W        W88704  10.494  18.250  31.273  0.0296 -0.3223 -0.7517
45767W        W88705   8.014  19.102  31.339 -0.3296 -0.0667 -0.0398
45768W        W88706   8.173  20.517  31.658 -0.1626  0.3759  0.0731
45769W        W88707   6.514  22.678   0.436 -0.2080 -0.1028  0.0484
45770W        W88708   8.167  18.859  31.835  0.0340 -0.2104  0.2589
45771W        W88709   8.276  19.809  31.227 -0.5168 -0.0162  0.0794
45772W        W88710   9.074  22.222  31.041  0.1336 -0.0375 -0.0195
45773W        W88711   7.465  19.570  31.103  0.0004  0.0523  0.1218
45774W        W88712   9.295  19.192  30.869  0.0828  0.2910 -0.0137
45775W        W88713   9.504  19.818  31.024  0.1903 -0.2368 -0.2241
45776W        W88714   7.888  19.138   0.120  0.0886  0.0504  0.3643
45777W        W88715   7.346  19.600   0.360  0.1116 -0.2931 -0.1493
45778W        W88716   7.558  22.123  30.678  0.3022 -0.1138 -0.0310
45779W        W88717   9.101  20.750  30.781 -0.2053  0.1418 -0.1456
45780W        W88718  10.594  19.183  30.492 -0.1120  0.0368  0.1265
45781W        W88719  10.453  20.518  31.545 -0.1064 -0.1917 -0.3165
45782W        W88720  12.083  18.830  31.325 -0.0435 -0.2558  0.1087
45783W        W88721  10.469  18.937  31.502 -0.0966 -0.3659 -0.0173
45784W        W88722   7.969  17.876   0.655 -0.4700 -0.0909 -0.0127
45785W        W88723   8.839  21.635  31.182 -0.2267  0.0585 -0.2101
45786W        W88724   7.525  18.726  30.764  0.0223 -0.0323  0.2393
45787W        W88725   9.670  19.761  31.526  0.1872  0.0696 -0.1759
45788W        W88726   8.612  18.951  31.698  0.1382  0.0930  0.0654
45789W        W88727   9.391  20.465   0.285  0.2305 -0.1191 -0.3952
45790W        W88728  11.304  22.074  31.696  0.1722 -0.5264 -0.0169
45791W        W88729   8.332  23.098   0.000 -0.0313 -0.0761 -0.1254
45792W        W88730   9.961  20.316  31.601  0.1625  0.1662  0.0984
45793W        W88731  10.082  18.438  31.018  0.4520  0.3989 -0.0994
45794W        W88732   8.689  18.785   0.168  0.0323 -0.1195 -0.0826
45795W        W88733   8.675  20.025  31.399  0.0623  0.4519 -0.2721
45796W        W88734  10.191  19.395  31.510  0.1071 -0.2852  0.1775
45797W        W88735  10.497  19.677  29.703 -0.1656  0.0748  0.0266
45798W        W88736  10.761  21.538   0.210 -0.2505  0.1928  0.0167
45799W        W88737   8.016  21.067  31.428  0.1569  0.0258 -0.0580
45800W        W88738  10.503  20.245  31.107  0.0383 -0.1424 -0.1098
45801W        W88739   6.961  19.752  31.487 -0.2768 -0.0137 -0.0179
45802W        W88740   7.829  19.405   0.507  0.2093 -0.3475  0.4431
45803W        W88741   7.887  20.071  31.397  0.1795  0.0845 -0.0382
45804W        W88742   8.314  20.791  31.107 -0.1166 -0.2489  0.0190
45805W        W88743   8.903  18.525  31.294  0.3585 -0.1546  0.1472
45806W        W88744  10.493  20.991  31.752 -0.1839 -0.1414 -0.2639
45807W        W88745   9.426  20.969  31.704  0.1275  0.0421  0.1330
45808W        W88746  10.987  20.694  31.622 -0.0909 -0.0995  0.0776
45809W        W88747   7.820  24.727  18.176 -0.1594 -0.0071  0.2505
45810W        W88748   8.556  23.794  16.520  0.1586 -0.0660  0.0477
45811W        W88749  10.403  22.523  15.626  0.0975 -0.1730  0.0835
45812W        W88750  11.708  23.548  16.202 -0.3416  0.0128  0.0890
45813W        W88751   7.643  22.108  17.214 -0.0823  0.0638  0.1663
45814W        W88752   8.897  25.500  16.985  0.1203 -0.1293 -0.2441
45815W        W88753   8.306  22.251  18.589 -0.2425  0.0923  0.1801
45816W        W88754   9.085  24.166  19.010  0.4585 -0.3089 -0.0651
45817W        W88755   8.803  24.010  19.386  0.0774  0.0322  0.1503
45818W        W88756  10.872  24.093  15.356 -0.1669 -0.3974  0.4649
45819W        W88757   9.738  24.762  18.643  0.0898 -0.0181  0.1518
45820W        W88758   6.467  24.386  17.833  0.0592  0.1492  0.3347
45821W        W88759   9.597  21.789  16.639  0.1570 -0.1826  0.4076
45822W        W88760   7.225  21.649  18.139  0.1085 -0.0608  0.0859
45823W        W88761   8.973  23.703  19.737 -0.1543 -0.2072 -0.0731
45824W        W88762   7.682  24.578  17.364  0.0420  0.0802  0.1214
45825W        W88763   7.401  24.126  19.376  0.1149 -0.0033  0.1691
45826W        W88764  10.004  24.137  17.381 -0.0226  0.2273 -0.0041
45827W        W88765   9.945  26.276  17.083 -0.2510  0.1175  0.0895
45828W        W88766   7.373  21.604  18.651 -0.4791 -0.1520 -0.0269
45829W        W88767   9.234  22.518  19.230  0.0126  0.2032 -0.0958
45830W        W88768   8.640  24.599  17.049 -0.0057  0.0891 -0.3173
45831W        W88769   8.130  23.504  16.495 -0.1036 -0.0150  0.2661
45832W        W88770   7.225  23.347  18.713 -0.0460  0.0897 -0.0677
45833W        W88771   8.006  24.342  17.629  0.1297  0.1326  0.0882
45834W        W88772   9.866  22.539  18.513  0.0190  0.2304 -0.0062
45835W        W88773  10.580  22.556  17.560  0.1541  0.2811  0.0518
45836W        W88774   8.817  25.422  19.259 -0.0056 -0.1409 -0.2304
45837W        W88775   8.408  26.437  18.355 -0.2826  0.0055 -0.1342
45838W        W88776   9.078  22.893  18.881  0.1279 -0.0694 -0.2859
45839W        W88777   7.331  23.944  17.773 -0.1133  0.0167 -0.2356
45840W        W88778   6.419  25.565  17.237 -0.2732  0.2790 -0.1357
45841W        W88779   8.130  24.466  16.933  0.1966 -0.0940  0.1718
45842W        W88780  10.470  24.138  16.211  0.1229  0.1681  0.1081
45843W        W88781   9.671  24.763  19.476  0.4408 -0.3677  0.3646
45844W        W88782   7.937  27.162  18.744  0.0753 -0.0108 -0.1436
45845W        W88783   7.556  25.651  16.443  0.2579 -0.0943  0.4540
45846W        W88784   9.811  23.980  19.410 -0.0426 -0.0033  0.0221
45847W        W88785   7.867  25.203  18.120 -0.1744  0.1785 -0.1237
45848W        W88786   9.482  25.003  18.110 -0.2754  0.1978  0.2070
45849W        W88787   8.018  25.458  18.787 -0.3131 -0.1448 -0.1361
45850W        W88788   8.489  24.738  15.895 -0.0994 -0.0951 -0.1832
45851W        W88789   8.835  25.700  18.612 -0.1524  0.0089 -0.2991
45852W        W88790   8.375  24.032  20.310 -0.1055  0.1690 -0.4028
45853W        W88791   7.438  24.992  19.929  0.0074 -0.0967  0.2825
45854W        W88792   9.408  22.400  19.684  0.2507 -0.0288  0.0455
45855W        W88793   7.722  26.484  16.572  0.1046 -0.1759  0.1243
45856W        W88794  10.053  22.268  15.854 -0.1333  0.1638 -0.0674
45857W        W88795  10.026  22.936  15.661  0.0187 -0.0483  0.2527
45858W        W88796  10.760  22.638  16.481  0.2605  0.1545 -0.2929
45859W        W88797   9.276  22.555  17.742  0.0293  0.1238  0.0556
45860W        W88798   9.258  26.472  17.975  0.1257  0.0118  0.0145
45861W        W88799   9.107  21.843  19.000  0.1925  0.2746  0.0541
45862W        W88800  11.062  24.460  16.990  0.1221 -0.1514  0.0051
45863W        W88801   9.456  23.683  16.932 -0.0992 -0.3532  0.2483
45864W        W88802  10.280  22.378  18.220  0.3765  0.1925 -0.2688
45865W        W88803   7.366  25.018  19.045 -0.3389 -0.2716 -0.0210
45866W        W88804   7.455  23.498  18.219  0.1139  0.0077  0.2207
45867W        W88805  11.367  25.493  16.300  0.2965 -0.0710 -0.0968
45868W        W88806  10.019  24.968  17.476  0.0964  0.0659 -0.0312
45869W        W88807  10.442  25.462  16.093 -0.2929 -0.1360 -0.1001
45870W        W88808   8.310  22.958  16.930 -0.0786 -0.0335 -0.1442
45871W        W88809   7.750  23.271  19.726  0.1765  0.5027  0.0011
45872W        W88810   7.876  23.131  17.263 -0.1417 -0.0932 -0.2098
45873W        W88811   9.082  22.904  16.270  0.2057 -0.2272  0.1075
45874W        W88812  10.563  23.781  18.841  0.5311  0.1822 -0.1269
45875W        W88813   7.484  22.754  19.066  0.0197 -0.0393  0.1921
45876W        W88814  10.420  21.453  17.497 -0.2044  0.0324 -0.0153
45877W        W88815   7.532  25.120  18.485 -0.1955 -0.0564 -0.0895
45878W        W88816  10.519  24.947  18.166 -0.2566 -0.0967  0.1574
45879W        W88817   9.638  25.386  15.821 -0.0317  0.3555 -0.3861
45880W        W88818   9.261  20.744  18.781 -0.0970  0.0372 -0.0756
45881W        W88819   9.661  22.961  18.240  0.1465 -0.0169  0.3244
45882W        W88820   8.427  22.380  17.426  0.1817  0.0998 -0.1307
45883W        W88821   8.721  24.839  16.426  0.1186  0.2157 -0.0892
45884W        W88822   9.984  25.024  17.970 -0.0146 -0.0483 -0.0156
45885W        W88823   9.805  23.022  17.732  0.0163 -0.1558  0.1244
45886W        W88824   8.214  24.713  17.364 -0.1347  0.1182  0.0765
45887W        W88825   8.377  21.229  20.993 -0.0615  0.3472  0.4471
45888W        W88826   9.327  23.421  19.951 -0.1613  0.0684  0.0005
45889W        W88827   8.117  26.239  15.812 -0.2519 -0.1563  0.1733
45890W        W88828   7.635  23.359  16.502  0.2389 -0.1031 -0.1166
45891W        W88829   7.582  25.447  17.683  0.0393 -0.0091 -0.1697
45892W        W88830   7.913  22.329  18.925 -0.1419  0.3650  0.0021
45893W        W88831   9.756  24.260  18.545  0.0058  0.0895 -0.4851
45894W        W88832   8.858  23.228  18.470 -0.1674  0.1054  0.2313
45895W        W88833   8.253  21.644  18.683  0.1187  0.1822  0.0026
45896W        W88834   9.320  23.447  18.340  0.0922 -0.0941  0.0661
45897W        W88835   6.881  23.356  17.202  0.0293  0.2469 -0.0384
45898W        W88836  10.354  25.092  17.114  0.0975  0.0215  0.3071
45899W        W88837  10.848  23.601  16.114 -0.1163 -0.6373 -0.1380
45900W        W88838  10.221  24.577  15.828  0.0303  0.1374  0.1199
45901W        W88839   8.621  24.170  17.407  0.0447 -0.2232 -0.0999
45902W        W88840   9.124  24.216  17.341  0.0772  0.2177  0.1659
45903W        W88841   6.815  21.654  19.548 -0.1206 -0.2436 -0.3212
45904W        W88842   6.500  22.137  17.510  0.2605 -0.3721  0.1058
45905W        W88843   9.447  23.352  17.746 -0.1417  0.1934  0.1007
45906W        W88844   6.626  22.645  16.271  0.0807  0.2922 -0.2853
45907W        W88845   9.624  23.239  16.287 -0.2117  0.4059  0.0312
45908W        W88846   9.032  23.535  16.771  0.1930 -0.2934  0.2257
45909W        W88847   7.411  23.748  16.921 -0.0373 -0.1159 -0.1688
45910W        W88848  10.430  21.621  20.500  0.1015 -0.0675  0.0252
45911W        W88849   9.448  25.658  16.815  0.0749 -0.2488 -0.1851
45912W        W88850   9.541  24.916  19.063  0.0370  0.1274  0.1714
45913W        W88851   8.835  26.950  17.227 -0.1604  0.0470  0.1605
45914W        W88852   8.378  24.563  18.437 -0.0626  0.0967 -0.2169
45915W        W88853   8.939  23.701  15.780  0.0299 -0.1122  0.2835
45916W        W88854   8.668  25.175  17.287  0.1353  0.0129 -0.0722
45917W        W88855   9.406  25.450  17.856  0.1467  0.3197  0.0850
45918W        W88856   8.336  23.079  16.239 -0.1392 -0.0630 -0.0510
45919W        W88857  10.148  26.597  18.985  0.0568 -0.1811 -0.1323
45920W        W88858   8.553  23.741  17.706 -0.0739 -0.1627 -0.1840
45921W        W88859   8.153  24.773  19.448 -0.1205 -0.1574 -0.2547
45922W        W88860   9.028  22.300  18.819 -0.1193 -0.1362 -0.0319
45923W        W88861  10.607  22.837  17.180 -0.1531  0.1855 -0.0721
45924W        W88862   9.537  24.224  17.680  0.0781 -0.0122 -0.0758
45925W        W88863   8.520  23.418  16.819  0.0510 -0.0050  0.1170
45926W        W88864  10.216  24.266  16.766  0.1169  0.0442  0.3703
45927W        W88865   7.701  25.167  16.540  0.0036  0.1089 -0.0744
45928W        W88866   7.989  23.387  18.330  0.0725 -0.6886 -0.0245
45929W        W88867   7.874  24.993  19.135  0.2728 -0.0996 -0.0297
45930W        W88868   9.980  21.637  17.746  0.2428 -0.1883 -0.2758
45931W        W88869   8.192  23.450  19.833  0.3048  0.2131 -0.2366
45932W        W88870   9.914  22.366  18.969  0.1207 -0.2601  0.1870
45933W        W88871   7.936  23.417  16.004 -0.0264 -0.0478  0.0905
45934W        W88872   7.487  24.652  18.684  0.0467  0.1649 -0.3570
45935W        W88873   9.132  21.539  16.330 -0.1109 -0.0528  0.1252
45936W        W88874  10.858  23.537  15.549  0.0498  0.1347  0.0752
45937W        W88875   8.841  24.197  20.511 -0.2659 -0.0564 -0.1471
45938W        W88876   9.081  25.392  17.488  0.1292  0.1438  0.1202
45939W        W88877   9.839  23.940  16.562 -0.1120 -0.0796  0.0307
45940W        W88878  10.035  22.549  16.264  0.0960 -0.0429 -0.1254
45941W        W88879   8.231  23.490  20.370  0.0128  0.1223 -0.3777
45942W        W88880   7.809  24.014  18.538  0.0650  0.3229  0.4560
45943W        W88881   8.842  25.031  18.776  0.0427  0.0777  0.2798
45944W        W88882  10.762  21.322  15.908 -0.3849  0.0630  0.1443
45945W        W88883   9.883  23.463  16.694 -0.1106  0.0363  0.0515
45946W        W88884   7.023  23.650  19.586 -0.1481  0.1146 -0.3003
45947W        W88885  10.309  23.238  20.064  0.0555 -0.2894 -0.1892
45948W        W88886  10.278  26.258  18.451 -0.0995  0.1119 -0.2243
45949W        W88887   8.587  21.340  18.339  0.1246 -0.1793  0.1804
45950W        W88888   9.643  24.150  17.002 -0.0467 -0.2140 -0.2392
45951W        W88889   8.869  22.508  18.089 -0.1403 -0.1021 -0.0571
45952W        W88890   7.055  25.536  16.434 -0.2171  0.0742 -0.2687
45953W        W88891   9.712  22.538  17.965 -0.0105 -0.2345 -0.1203
45954W        W88892   8.524  24.416  19.306 -0.1430  0.2610 -0.0056
45955W        W88893   8.579  23.553  19.364 -0.1512  0.2506  0.4154
45956W        W88894   9.731  24.186  20.260 -0.2773  0.1909 -0.2602
45957W        W88895  10.319  23.276  16.907  0.3409 -0.1061  0.2394
45958W        W88896   8.392  23.913  19.703 -0.3115  0.2061  0.1763
45959W        W88897   8.157  24.081  16.575  0.2356  0.0323  0.2850
45960W        W88898   9.685  20.982  18.431 -0.1402 -0.0617 -0.4078
45961W        W88899   9.794  24.822  19.969 -0.3611 -0.1993 -0.1214
45962W        W88900   6.602  25.003  19.525 -0.0181  0.0212  0.3191
45963W        W88901   9.574  23.559  19.499  0.3370  0.0678 -0.1519
45964W        W88902   9.148  25.325  16.513 -0.1129 -0.0777 -0.1194
45965W        W88903   8.373  24.895  19.021  0.1962 -0.1656 -0.0324
45966W        W88904   8.776  23.152  17.145  0.3328  0.0159  0.1260
45967W        W88905   8.237  25.551  17.185 -0.2804  0.1004  0.0002
45968W        W88906   9.517  24.168  16.114  0.0512  0.0442 -0.2234
45969W        W88907   8.908  21.314  17.918  0.3456  0.1312  0.0354
45970W        W88908   7.921  24.164  19.473  0.2629 -0.1732 -0.0603
45971W        W88909   7.628  24.259  16.863  0.0094 -0.0898 -0.1471
45972W        W88910  10.594  24.720  19.107 -0.1468  0.3070  0.1071
45973W        W88911   5.576  25.654  16.122 -0.1028 -0.3467  0.0912
45974W        W88912  10.058  21.139  17.476 -0.2871  0.1539  0.0430
45975W        W88913   7.156  24.110  19.813  0.2766 -0.1539  0.1894
45976W        W88914   8.735  22.987  16.672 -0.1911  0.2610 -0.0730
45977W        W88915   7.063  22.855  16.512  0.0645  0.1173 -0.0104
45978W        W88916  11.067  22.159  16.561 -0.0602 -0.2465  0.0341
45979W        W88917  10.766  24.190  16.710 -0.5244  0.0817 -0.0128
45980W        W88918   9.173  21.695  17.665 -0.2706  0.1476  0.2290
45981W        W88919   7.877  21.862  16.790  0.0143  0.0835  0.0602
45982W        W88920   8.533  24.254  17.913 -0.1175 -0.2344  0.1186
45983W        W88921   9.925  24.582  18.208 -0.0171 -0.2027  0.2278
45984W        W88922  10.075  22.918  17.221  0.0913 -0.2430 -0.1584
45985W        W88923  10.260  24.198  18.621  0.2151 -0.1867 -0.1107
45986W        W88924   8.923  22.465  21.252  0.1552  0.0990 -0.1693
45987W        W88925   7.626  22.008  16.358 -0.1612 -0.3523  0.1096
45988W        W88926   9.895  22.997  18.984 -0.3050  0.2490 -0.0355
45989W        W88927   9.067  24.144  17.880 -0.1447  0.0158 -0.0022
45990W        W88928   7.471  24.711  16.575  0.2799 -0.0747 -0.0561
45991W        W88929   9.361  24.452  20.541 -0.1499  0.3238 -0.2272
45992W        W88930   8.394  23.792  17.112  0.1728  0.1232  0.0745
45993W        W88931   6.305  24.390  18.378 -0.3067  0.1265 -0.3880
45994W        W88932   7.106  22.434  20.242 -0.3092 -0.0277 -0.1369
45995W        W88933  10.763  23.220  17.912  0.0600  0.1698 -0.1424
45996W        W88934   8.628  22.943  18.047  0.0513  0.2674  0.0629
45997W        W88935   7.941  22.590  17.185 -0.0706  0.1848  0.3594
45998W        W88936   9.332  24.536  18.739  0.2297 -0.0822 -0.0099
45999W        W88937  10.150  25.655  17.194 -0.1685 -0.0635 -0.0258
46000W        W88938   8.817  23.790  18.845  0.1109 -0.4715  0.1481
46001W        W88939   8.539  25.741  20.645  0.2618 -0.1171  0.0863
46002W        W88940   9.984  21.857  19.079 -0.0895 -0.1714  0.1728
46003W        W88941  10.293  26.411  16.279 -0.0124 -0.4551 -0.2318
46004W        W88942   8.738  23.682  20.595 -0.2029  0.0847  0.3367
46005W        W88943   7.811  24.852  16.913  0.1529 -0.3836  0.0370
46006W        W88944   6.409  22.682  18.042  0.0212  0.0719 -0.1964
46007W        W88945   7.899  24.492  16.464  0.0988  0.0762  0.1031
46008W        W88946  10.087  21.846  17.320  0.0358 -0.4332  0.0430
46009W        W88947   7.577  23.757  19.663 -0.0494 -0.0463  0.0964
46010W        W88948   7.482  25.107  17.294  0.2070 -0.2257 -0.2397
46011W        W88949   8.662  25.666  17.513 -0.0725 -0.0520 -0.0097
46012W        W88950  10.060  21.470  15.451 -0.1205  0.1173  0.3601
46013W        W88951  10.270  24.060  15.664 -0.0287 -0.0858 -0.1238
46014W        W88952   8.357  23.058  19.313  0.0580  0.2978 -0.1322
46015W        W88953  11.310  22.397  19.567 -0.0736 -0.0470  0.0797
46016W        W88954  11.590  24.116  16.116  0.2908 -0.1631 -0.1658
46017W        W88955   9.956  22.414  19.936 -0.0480 -0.2047  0.3709
46018W        W88956   8.283  21.448  17.376 -0.0946  0.0832  0.1999
46019W        W88957  11.504  23.819  16.524  0.0298  0.0953 -0.4760
46020W        W88958   8.756  22.634  19.150  0.4319  0.1104 -0.2053
46021W        W88959   9.679  26.388  19.730 -0.2972  0.0657  0.1234
46022W        W88960   7.923  23.695  21.157 -0.3193 -0.1290  0.0521
46023W        W88961   9.302  23.134  16.661  0.0791  0.2014 -0.2283
46024W        W88962   7.532  22.400  16.036 -0.1217 -0.0465  0.1241
46025W        W88963   7.507  24.211  18.855 -0.0323 -0.3308  0.1112
46026W        W88964   9.518  25.052  17.548  0.0258 -0.0444  0.0326
46027W        W88965   9.188  24.778  16.479 -0.0500 -0.0551 -0.0129
46028W        W88966  11.053  23.482  16.567 -0.2527  0.3095  0.1730
46029W        W88967   7.407  23.680  19.117 -0.0176 -0.0444  0.0594
46030W        W88968  10.360  23.736  17.886 -0.0879  0.1917  0.1453
46031W        W88969   9.722  23.693  16.047 -0.2184  0.0911 -0.3169
46032W        W88970   7.743  27.059  17.797 -0.0367  0.0230 -0.0842
46033W        W88971   8.607  21.966  19.099 -0.2304  0.0331  0.2865
46034W        W88972   9.098  23.607  19.259 -0.0610 -0.1964  0.0842
46035W        W88973  10.220  22.734  17.842  0.2654  0.0571  0.0354
46036W        W88974   9.259  23.787  17.556 -0.1058  0.1446  0.1798
46037W        W88975   9.470  23.834  19.046 -0.1296  0.0311 -0.0292
46038W        W88976   8.386  23.001  20.257 -0.0116  0.0590 -0.1827
46039W        W88977   7.867  23.945  19.049  0.4009  0.1641 -0.2691
46040W        W88978   9.492  25.813  18.956  0.2197  0.2033  0.0127
46041W        W88979  12.634  23.716  15.373  0.2279 -0.0784  0.2411
46042W        W88980   9.448  23.136  19.230 -0.1503 -0.0661  0.0259
46043W        W88981  11.271  22.665  16.202  0.2638 -0.3096  0.0708
46044W        W88982  10.025  24.129  16.063 -0.1649  0.0355 -0.0469
46045W        W88983   8.513  22.870  17.468  0.2774 -0.1745 -0.0984
46046W        W88984   9.622  22.872  19.752  0.3534 -0.0315 -0.2445
46047W        W88985   9.455  22.572  16.418 -0.0672 -0.1772 -0.1125
46048W        W88986  10.724  22.111  17.853 -0.0104  0.1150 -0.2130
46049W        W88987   9.389  25.621  16.215  0.2416  0.2238  0.1324
46050W        W88988  10.572  24.206  17.179  0.2143 -0.2132  0.2526
46051W        W88989   8.846  23.663  17.311  0.2696 -0.3183 -0.3113
46052W        W88990   7.686  23.518  18.690  0.2263  0.1544  0.1366
46053W        W88991   7.341  25.756  19.559 -0.1087  0.2218  0.0570
46054W        W88992   8.621  22.553  16.934 -0.1752  0.1408 -0.0523
46055W        W88993   6.951  24.559  16.587 -0.3506  0.0449  0.0355
46056W        W88994   9.893  25.332  20.130  0.0748  0.0847 -0.1186
46057W        W88995   9.649  24.627  21.691  0.1636 -0.2990  0.0887
46058W        W88996   9.230  21.201  15.899 -0.0006 -0.1386 -0.1817
46059W        W88997   9.546  22.081  19.300  0.2584 -0.2191  0.1816
46060W        W88998   7.419  24.161  16.348 -0.2217 -0.4272  0.1553
46061W        W88999   9.167  20.954  18.284  0.0010 -0.1547 -0.0745
46062W        W89000   8.332  26.047  20.215  0.1550 -0.0637 -0.1074
46063W        W89001   8.051  22.749  20.521  0.0888 -0.0891  0.0529
46064W        W89002   8.918  25.615  17.951 -0.0619  0.0194 -0.2973
46065W        W89003   8.693  20.790  18.252  0.0379  0.0742  0.0994
46066W        W89004  10.106  23.842  16.996  0.2828  0.1434  0.1301
46067W        W89005   8.473  25.049  18.267 -0.1519 -0.1053 -0.0568
46068W        W89006   9.271  24.024  19.508 -0.2467  0.1933 -0.0842
46069W        W89007   9.767  23.456  18.138 -0.0866  0.2233 -0.2864
46070W        W89008   8.813  25.043  17.792  0.1621 -0.4638 -0.1462
46071W        W89009   9.554  24.356  19.203 -0.0000  0.1352 -0.0469
46072W        W89010   9.974  23.486  17.661 -0.0094 -0.0769 -0.1226
46073W        W89011   8.868  25.289  18.306  0.3453 -0.1497 -0.0925
46074W        W89012   7.133  21.455  20.386 -0.0698 -0.0970 -0.1391
46075W        W89013  10.776  22.578  19.358 -0.0044  0.0685  0.0161
46076W        W89014   8.905  24.189  18.391 -0.1674 -0.0954  0.1938
46077W        W89015  10.515  22.119  16.516 -0.0465 -0.2226  0.3583
46078W        W89016   8.879  25.674  16.231 -0.1630  0.0597 -0.1501
46079W        W89017   7.161  26.691  19.415 -0.1185 -0.1788 -0.0158
46080W        W89018   8.285  22.663  18.942 -0.4293 -0.1035  0.0288
46081W        W89019   8.027  25.822  16.784 -0.2613 -0.4257 -0.0337
46082W        W89020   9.360  26.328  17.457 -0.1341 -0.1237  0.0144
46083W        W89021   9.568  24.616  17.269  0.4381  0.0629 -0.1287
46084W        W89022   8.474  25.462  19.727  0.1721  0.2432  0.2598
46085W        W89023   9.614  22.831  16.016  0.0998 -0.0972 -0.1751
46086W        W89024   7.627  24.109  17.437  0.0416  0.0594 -0.2514
46087W        W89025   6.757  24.774  17.711 -0.0404  0.1423 -0.1511
46088W        W89026   9.161  24.591  16.971 -0.1724  0.0646 -0.0214
46089W        W89027   8.702  26.239  16.485  0.2805 -0.0213 -0.3381
46090W        W89028  10.755  23.115  19.365  0.0592 -0.1133 -0.1296
46091W        W89029  10.200  21.871  16.212 -0.0599 -0.0062 -0.3339
46092W        W89030   9.582  23.925  18.156 -0.2274 -0.0277  0.1053
46093W        W89031  11.978  22.587  15.300 -0.0277  0.1465  0.0037
46094W        W89032   8.565  24.708  19.872  0.3299 -0.1353  0.4127
46095W        W89033   9.955  23.962  18.937 -0.0783  0.0327  0.0990
46096W        W89034   9.686  21.599  16.164  0.1300  0.0087  0.1601
46097W        W89035   9.163  22.882  19.891 -0.0570 -0.2483  0.0433
46098W        W89036  10.941  22.180  19.837  0.0345 -0.0358  0.1095
46099W        W89037   7.304  25.604  18.153  0.5031  0.2401  0.1068
46100W        W89038   9.599  25.067  16.225 -0.1130 -0.2001 -0.1272
46101W        W89039   8.457  23.465  18.618  0.1240  0.1334  0.1689
46102W        W89040   8.490  23.436  18.124  0.0365  0.1545  0.1030
46103W        W89041  10.561  22.027  17.372 -0.0893 -0.2581  0.1483
46104W        W89042   8.920  25.017  16.879 -0.0448 -0.0697 -0.1428
46105W        W89043   8.212  23.817  18.183 -0.0185  0.0341  0.1388
46106W        W89044   9.671  25.962  16.379  0.0943 -0.1358 -0.1933
46107W        W89045   8.321  24.816  17.875  0.0475  0.0752  0.1232
46108W        W89046   8.383  26.227  19.650 -0.0416 -0.1162  0.0588
46109W        W89047   8.320  22.609  15.943 -0.3484  0.1530  0.1452
46110W        W89048  10.730  23.097  16.729 -0.0599  0.1391  0.1062
46111W        W89049   8.720  24.495  18.809 -0.0719 -0.1849  0.0455
46112W        W89050  10.307  20.893  18.462 -0.1366  0.1468 -0.1148
46113W        W89051   8.331  23.335  17.298  0.1969 -0.4387  0.2466
46114W        W89052   9.651  21.597  17.138  0.0508  0.0126 -0.3618
46115W        W89053  10.273  22.719  18.730  0.0106 -0.1889 -0.0836
46116W        W89054   8.574  23.113  19.811  0.0825  0.0603 -0.1006
46117W        W89055   8.907  24.104  16.746 -0.0636  0.0381  0.0579
46118W        W89056   9.431  24.401  18.244 -0.2100  0.1463 -0.0353
46119W        W89057   9.383  24.323  16.585  0.1236 -0.3778  0.0826
46120W        W89058   9.553  26.574  21.195  0.2622  0.1435 -0.0454
46121W        W89059   7.256  22.355  17.018 -0.0268 -0.0445  0.0024
46122W        W89060   9.296  25.046  18.591  0.0284 -0.0907 -0.1671
46123W        W89061   7.346  23.881  18.570  0.1984  0.3412  0.2465
46124W        W89062   8.889  24.709  18.176  0.0696  0.1289  0.0391
46125W        W89063  10.594  24.858  20.426  0.2398  0.2511 -0.1031
46126W        W89064   6.054  22.021  17.175  0.1535 -0.2119  0.2194
46127W        W89065  10.154  26.136  15.938  0.0568 -0.0535  0.0338
46128W        W89066  10.856  23.486  17.470 -0.2679  0.1848 -0.0159
46129W        W89067   8.804  27.004  15.921 -0.1775 -0.1638  0.0052
46130W        W89068   9.705  23.774  17.369 -0.1489 -0.0750 -0.1686
46131W        W89069   7.527  26.038  18.504 -0.1144 -0.0352  0.0592
46132W        W89070   6.936  21.650  16.674  0.2199 -0.0816  0.2800
46133W        W89071   9.206  24.659  17.798  0.1642 -0.0230  0.1197
46134W        W89072  10.245  25.721  19.933  0.1008 -0.0407  0.0870
46135W        W89073   8.013  22.908  18.125  0.1309  0.0906  0.2877
46136W        W89074   7.532  24.339  18.291  0.2360  0.1498 -0.1022
46137W        W89075   8.331  25.329  17.831  0.1904 -0.0033  0.0110
46138W        W89076  10.236  22.220  17.727  0.1902 -0.2570 -0.0450
46139W        W89077   9.623  23.507  20.433 -0.0406 -0.1678  0.0097
46140W        W89078   8.120  25.120  15.935 -0.1571  0.1649  0.3921
46141W        W89079   9.294  21.619  19.512 -0.1937  0.2699  0.1841
46142W        W89080   8.854  26.157  17.674 -0.0212  0.0455  0.0217
46143W        W89081   9.537  23.849  19.907 -0.1316  0.0437  0.1232
46144W        W89082   8.274  25.056  16.920  0.1207  0.0463 -0.1817
46145W        W89083   8.073  23.636  19.406 -0.0288 -0.1857  0.0435
46146W        W89084   6.993  24.298  17.535  0.1718 -0.0315  0.3611
46147W        W89085   9.358  24.658  16.009  0.3589  0.0921  0.2281
46148W        W89086   8.857  25.130  19.833  0.0595  0.2062 -0.2273
46149W        W89087   9.349  23.825  16.436  0.1522  0.3594 -0.1970
46150W        W89088   9.982  24.653  16.906  0.0900 -0.0986  0.4159
46151W        W89089   9.237  23.348  17.244  0.0774 -0.2184 -0.2790
46152W        W89090  10.916  21.879  15.748  0.0751 -0.0484 -0.2691
46153W        W89091   9.891  22.931  16.543 -0.2682 -0.2591 -0.0430
46154W        W89092   7.811  22.310  19.387  0.0266  0.0151 -0.0714
46155W        W89093   6.450  23.463  16.317  0.1316 -0.3674  0.1666
46156W        W89094   7.746  23.871  16.495 -0.2463  0.1835 -0.0290
46157W        W89095   8.073  23.712  17.528 -0.0391 -0.2753  0.2000
46158W        W89096   9.510  21.508  19.976 -0.1231  0.1514  0.0755
46159W        W89097   7.817  22.061  18.531 -0.0638 -0.2474 -0.1159
46160W        W89098   7.571  23.574  17.493 -0.0119 -0.1856 -0.2967
46161W        W89099   7.986  21.095  17.495  0.2093  0.0040 -0.1892
46162W        W89100  11.577  25.052  16.371 -0.1530 -0.1029  0.0099
46163W        W89101   7.146  21.065  17.483  0.0514  0.2731 -0.2002
46164W        W89102   8.328  24.010  19.170  0.3310  0.1617  0.0563
46165W        W89103   9.083  24.890  17.321  0.1195  0.0560  0.0855
46166W        W89104  10.726  24.739  17.254 -0.0026  0.0219 -0.3238
46167W        W89105   7.568  21.463  16.570  0.2290 -0.3560 -0.3000
46168W        W89106   9.232  25.580  19.433  0.3408 -0.0590  0.2554
46169W        W89107   6.904  24.153  16.203  0.1189 -0.1861 -0.1303
46170W        W89108   9.490  22.362  21.954  0.1210 -0.0673  0.0868
46171W        W89109   7.648  21.412  21.655  0.4618 -0.0566  0.1009
46172W        W89110   8.945  22.666  17.445 -0.2361 -0.1481 -0.2571
46173W        W89111   9.399  22.925  17.467 -0.2742  0.0464 -0.2738
46174W        W89112   9.887  25.457  17.588 -0.3818 -0.0235 -0.0257
46175W        W89113  10.375  24.610  16.315  0.0244 -0.2024  0.0270
46176W        W89114   9.246  24.303  20.050 -0.0091 -0.0053  0.0225
46177W        W89115  10.698  26.782  20.121 -0.2389  0.1213 -0.2435
46178W        W89116   8.696  21.717  19.522 -0.0535  0.1504 -0.1117
46179W        W89117  10.336  23.734  16.495  0.1878  0.1235  0.0324
46180W        W89118   8.715  24.918  19.345  0.0734  0.0798 -0.0065
46181W        W89119  11.508  24.288  17.160  0.2289  0.1268  0.4052
46182W        W89120  10.697  21.838  16.175  0.0847  0.1264  0.0383
46183W        W89121  11.068  25.015  16.249  0.0533 -0.2822 -0.1932
46184W        W89122   7.028  22.057  17.791  0.1011 -0.1414 -0.0483
46185W        W89123   7.236  24.454  20.173  0.1258 -0.1935  0.0255
46186W        W89124  11.354  25.930  18.581  0.0103 -0.2117  0.1107
46187W        W89125   5.788  22.430  17.479  0.0196 -0.1080 -0.1795
46188W        W89126   9.809  21.343  16.701 -0.0958  0.2551  0.0029
46189W        W89127   9.919  25.549  16.341 -0.3327 -0.0659  0.2082
46190W        W89128   8.143  23.542  18.923 -0.0421  0.2066  0.0680
46191W        W89129   9.573  22.300  15.873  0.0468  0.1160  0.0051
46192W        W89130   9.355  24.004  18.624 -0.4473  0.1523  0.1818
46193W        W89131   9.301  25.295  17.082 -0.5137  0.1253 -0.0775
46194W        W89132   9.616  25.297  19.292  0.0465  0.1080  0.2181
46195W        W89133   8.835  23.718  18.377 -0.2955  0.0550  0.0666
46196W        W89134   8.982  23.440  16.274  0.0108  0.1834  0.2204
46197W        W89135  10.498  25.084  19.397 -0.2252 -0.2303  0.0602
46198W        W89136  10.775  25.901  20.587  0.1770  0.2210 -0.0083
46199W        W89137   6.401  25.377  19.163 -0.1367  0.0128 -0.0510
46200W        W89138   9.818  25.399  18.255 -0.0173 -0.0402 -0.0788
46201W        W89139   6.769  22.047  16.993  0.1876  0.1087  0.1401
46202W        W89140   7.792  23.812  17.933 -0.1434  0.3405  0.0583
46203W        W89141   9.017  23.594  17.929 -0.0732  0.1630 -0.2534
46204W        W89142   9.828  22.548  17.427  0.0177 -0.1301 -0.0782
46205W        W89143   8.729  24.640  17.559  0.0338 -0.0158  0.0473
46206W        W89144  10.553  23.103  15.599 -0.2223 -0.1302 -0.1760
46207W        W89145   7.440  25.242  19.513  0.1971  0.1107  0.2119
46208W        W89146   7.959  23.828  20.068  0.3986 -0.0831  0.3152
46209W        W89147   8.397  25.542  21.908 -0.1479 -0.0273  0.5466
46210W        W89148   7.155  22.037  20.521  0.0760  0.0662  0.2372
46211W        W89149  10.145  24.110  19.920  0.1954 -0.0593  0.0312
46212W        W89150   9.097  24.341  21.975  0.1645  0.2625 -0.1351
46213W        W89151   8.053  22.174  22.091  0.2417  0.0944 -0.1554
46214W        W89152   9.783  25.279  22.345  0.0558  0.1894  0.3250
46215W        W89153   7.691  23.076  23.018  0.0172 -0.1248 -0.1767
46216W        W89154   9.419  24.935  23.683 -0.1908  0.1334 -0.2475
46217W        W89155   9.068  23.480  22.616  0.1562 -0.1353 -0.1723
46218W        W89156   8.792  22.578  19.664  0.0529 -0.2650  0.2931
46219W        W89157   8.235  23.704  22.722 -0.1361  0.0531 -0.2164
46220W        W89158   8.970  25.054  23.805  0.0140 -0.1802  0.0939
46221W        W89159   7.498  22.179  19.900 -0.2132  0.1978  0.1085
46222W        W89160   6.747  22.320  22.141 -0.0965  0.1821  0.5009
46223W        W89161  10.185  22.295  23.246  0.0825  0.0970  0.1768
46224W        W89162   6.123  25.729  21.060 -0.1123  0.4003 -0.2544
46225W        W89163   8.036  22.733  21.510  0.1734 -0.1014  0.0217
46226W        W89164   8.267  23.577  22.011  0.1292  0.3978 -0.6637
46227W        W89165   9.666  25.326  20.635  0.1835  0.0429 -0.0862
46228W        W89166   7.662  22.500  22.256  0.1599 -0.0740 -0.2904
46229W        W89167   8.628  22.476  24.459  0.2902  0.2564  0.1506
46230W        W89168   8.684  25.013  20.265  0.0491 -0.3187 -0.0137
46231W        W89169   7.903  22.798  19.399 -0.1471 -0.0867 -0.0107
46232W        W89170   8.297  21.669  21.726 -0.0192  0.2821 -0.4581
46233W        W89171   7.683  23.570  22.867  0.1762  0.0371  0.3938
46234W        W89172  10.213  22.524  23.799 -0.0160 -0.0112 -0.3194
46235W        W89173   9.978  22.455  21.991 -0.2874 -0.0288  0.0012
46236W        W89174   9.054  25.503  21.988  0.1163  0.0208  0.0761
46237W        W89175  11.079  25.484  20.088  0.1720 -0.1299 -0.2806
46238W        W89176   8.551  21.888  23.225  0.1382  0.1236  0.2326
46239W        W89177   7.041  24.499  21.533  0.2676 -0.2386  0.1055
46240W        W89178   8.261  25.232  20.549 -0.0680  0.1542 -0.0432
46241W        W89179   9.684  24.354  19.778 -0.0974  0.2491  0.2084
46242W        W89180   9.764  25.067  21.430 -0.0742  0.2316 -0.1600
46243W        W89181   9.247  27.012  23.688 -0.0076  0.0679 -0.1353
46244W        W89182   7.631  26.981  23.201 -0.0168  0.1858 -0.0957
46245W        W89183   5.803  25.321  19.775  0.0993  0.1478 -0.2478
46246W        W89184   8.073  25.425  23.491 -0.2508  0.2716 -0.0098
46247W        W89185   8.569  25.973  23.182 -0.0082 -0.0708 -0.0985
46248W        W89186   9.159  23.510  23.563 -0.0226 -0.0949 -0.1085
46249W        W89187   8.623  24.372  22.124 -0.0351  0.2002  0.2921
46250W        W89188   8.203  26.330  18.816 -0.1131  0.0371  0.0884
46251W        W89189   9.882  24.303  20.828  0.0918 -0.3013  0.0824
46252W        W89190   8.640  23.611  23.669 -0.0331  0.2221 -0.2593
46253W        W89191   7.426  25.415  21.806 -0.2974  0.0873  0.2153
46254W        W89192   9.847  23.426  23.895  0.5036  0.0092  0.2686
46255W        W89193   7.228  25.412  20.180  0.2392 -0.0808 -0.1282
46256W        W89194  10.109  23.870  21.398 -0.0877 -0.4108  0.0405
46257W        W89195   9.497  22.664  18.859 -0.0790 -0.0828 -0.1613
46258W        W89196  10.240  23.736  19.271  0.3293  0.2088 -0.0616
46259W        W89197   8.201  21.827  22.857 -0.0037 -0.1746  0.1022
46260W        W89198   8.715  25.941  21.953 -0.0364  0.4363  0.1927
46261W        W89199   7.941  23.231  21.697  0.0964 -0.1273 -0.0581
46262W        W89200  10.108  23.346  22.258 -0.0288  0.0241  0.2815
46263W        W89201   9.831  22.874  20.249  0.1142 -0.2468 -0.0428
46264W        W89202  10.255  22.859  22.137 -0.0366  0.1029  0.1753
46265W        W89203   7.653  25.358  22.311  0.0794  0.0983  0.1062
46266W        W89204   7.731  22.774  20.908 -0.0661 -0.2041  0.2176
46267W        W89205  10.853  26.446  20.887 -0.3131  0.1639  0.2121
46268W        W89206   8.460  24.423  21.661  0.1165 -0.0905 -0.0167
46269W        W89207   9.165  23.857  20.297 -0.1632  0.0463 -0.0427
46270W        W89208   7.042  22.975  20.047 -0.2515 -0.2241  0.2440
46271W        W89209   7.536  23.342  23.883  0.2061  0.1612  0.1865
46272W        W89210   8.451  21.143  24.674 -0.0162  0.3225 -0.2965
46273W        W89211   9.063  21.841  20.423 -0.1154 -0.1365 -0.6844
46274W        W89212  10.015  24.612  24.700  0.1038  0.2298  0.1937
46275W        W89213   8.439  24.246  22.927  0.5795  0.0783 -0.0365
46276W        W89214  10.629  22.000  22.393 -0.0893 -0.2726 -0.0512
46277W        W89215   8.968  23.509  21.195 -0.1322 -0.3778  0.4825
46278W        W89216  10.346  24.784  21.659 -0.2250 -0.0627 -0.3283
46279W        W89217   8.674  23.236  18.981  0.1039  0.1638 -0.0500
46280W        W89218  10.399  21.520  21.040 -0.5740  0.1493 -0.1665
46281W        W89219   8.959  21.949  23.483  0.0556  0.1538 -0.1098
46282W        W89220   8.846  24.805  21.704  0.1145  0.0054 -0.3698
46283W        W89221   9.329  22.278  21.071 -0.0352  0.0094 -0.2671
46284W        W89222  10.717  24.333  22.612 -0.0578  0.2497 -0.0872
46285W        W89223   9.946  23.192  19.451  0.0993 -0.1216  0.0199
46286W        W89224   6.860  25.148  21.676  0.2383  0.1380  0.1595
46287W        W89225   7.634  22.707  23.698  0.2421 -0.0637  0.1695
46288W        W89226   8.747  23.986  24.354  0.0681 -0.1545 -0.1033
46289W        W89227   7.690  25.564  19.878 -0.4462  0.1105  0.0799
46290W        W89228   8.332  25.639  21.318  0.0106  0.2146  0.0727
46291W        W89229   8.142  25.017  20.116 -0.0278  0.1629 -0.1527
46292W        W89230   7.725  22.058  22.545 -0.0286  0.2844  0.0866
46293W        W89231   8.162  24.649  22.152 -0.0785 -0.1787  0.0652
46294W        W89232  10.294  22.352  20.492 -0.1371  0.1563  0.0095
46295W        W89233   8.069  22.026  23.549 -0.0795  0.2873  0.2441
46296W        W89234  10.402  20.706  19.946  0.0834  0.2684  0.0544
46297W        W89235   7.678  24.863  20.745  0.0151 -0.2474 -0.0195
46298W        W89236  10.390  25.668  21.275 -0.2379 -0.1977  0.2127
46299W        W89237  10.423  22.612  22.531  0.1694 -0.3733  0.1501
46300W        W89238  10.400  26.034  19.356  0.1006  0.0577 -0.3688
46301W        W89239   7.257  22.932  23.915  0.2046 -0.1467  0.2782
46302W        W89240   6.545  23.419  21.041  0.1180 -0.0184 -0.0448
46303W        W89241   9.539  22.230  23.391  0.2476  0.0542  0.2978
46304W        W89242   7.745  24.332  22.214  0.0883  0.3466  0.3328
46305W        W89243  10.356  23.618  22.667  0.0680  0.2593 -0.0379
46306W        W89244   7.605  21.538  21.110  0.1148  0.4045  0.2299
46307W        W89245   8.819  24.474  22.608  0.1329 -0.3245 -0.2395
46308W        W89246   7.624  23.583  21.823 -0.0942 -0.1872  0.1253
46309W        W89247   8.036  24.549  20.744  0.2454 -0.1363  0.1871
46310W        W89248   8.385  22.389  23.428  0.0349  0.1812 -0.0277
46311W        W89249   8.902  24.619  20.224  0.0182 -0.3487 -0.1952
46312W        W89250  10.239  24.597  23.115  0.3194 -0.2581  0.1428
46313W        W89251   9.275  24.098  22.472  0.3739 -0.0198 -0.0878
46314W        W89252   8.145  22.396  22.492  0.1278 -0.3613  0.0638
46315W        W89253   6.673  21.134  21.279  0.1877  0.1665 -0.1132
46316W        W89254   7.852  26.252  21.992 -0.1181 -0.0281 -0.0732
46317W        W89255   8.321  24.964  21.748 -0.0409  0.0326  0.1380
46318W        W89256   9.070  22.972  21.043 -0.1441  0.2386 -0.1797
46319W        W89257   9.490  25.693  22.330 -0.0976 -0.3976 -0.1393
46320W        W89258   7.120  23.983  21.582  0.2381  0.0890 -0.2266
46321W        W89259   7.495  24.686  21.640 -0.2618 -0.1071  0.2116
46322W        W89260  10.767  21.241  23.082  0.1183 -0.1747 -0.0294
46323W        W89261   9.899  22.726  23.359 -0.1983  0.0961 -0.0454
46324W        W89262   8.211  24.087  21.362  0.0742  0.2390 -0.3116
46325W        W89263   7.270  21.656  19.247  0.1267 -0.1459  0.0828
46326W        W89264  10.355  26.538  21.047  0.1904 -0.1205 -0.2223
46327W        W89265   7.363  25.145  21.380  0.1115  0.0662 -0.2219
46328W        W89266   7.200  24.800  20.505  0.0354  0.0793  0.2940
46329W        W89267   9.571  24.980  22.676 -0.1302  0.2451 -0.0254
46330W        W89268  11.484  21.521  20.656 -0.0591 -0.1482 -0.0424
46331W        W89269   5.889  24.058  23.493  0.0932 -0.0982 -0.1349
46332W        W89270   8.321  22.777  23.040  0.1572 -0.2217 -0.3587
46333W        W89271   6.747  21.739  20.472 -0.2409  0.1224  0.2671
46334W        W89272   7.974  26.685  23.415  0.0417 -0.0087  0.1428
46335W        W89273   8.591  22.153  22.421  0.2320 -0.0526 -0.3111
46336W        W89274   9.721  22.652  19.315  0.0974  0.2560  0.2821
46337W        W89275   8.139  23.225  22.866  0.0111  0.0646  0.3453
46338W        W89276  10.757  25.282  21.307  0.0894  0.0635  0.3079
46339W        W89277   9.992  22.285  19.470 -0.3125 -0.1949  0.0611
46340W        W89278   9.784  21.811  21.666  0.0612  0.0311 -0.0196
46341W        W89279   7.353  24.305  23.838 -0.0560 -0.0670  0.1066
46342W        W89280   9.816  24.266  21.439 -0.0949 -0.0446  0.1260
46343W        W89281   9.403  23.651  22.263 -0.4713  0.2417 -0.1668
46344W        W89282   8.473  22.522  20.022 -0.1900  0.0082 -0.1202
46345W        W89283  10.079  24.682  21.283 -0.0909 -0.0627  0.1386
46346W        W89284   7.873  23.735  22.307 -0.1682 -0.0682  0.2461
46347W        W89285   9.139  23.889  24.601 -0.3583 -0.1894  0.1613
46348W        W89286   9.560  24.580  21.150 -0.1454  0.0021 -0.2009
46349W        W89287   9.334  20.542  23.517  0.0996  0.2945 -0.1558
46350W        W89288   7.728  21.858  19.627 -0.0734  0.1772  0.2699
46351W        W89289   7.028  22.787  22.853 -0.0361 -0.2989 -0.0991
46352W        W89290   7.820  24.714  19.821 -0.1632  0.2101  0.0605
46353W        W89291  10.876  21.760  22.044 -0.2454 -0.0030  0.4131
46354W        W89292  10.469  22.179  22.883  0.0409  0.1682  0.3085
46355W        W89293   8.971  22.201  23.036  0.0571  0.2013  0.0534
46356W        W89294   9.617  22.535  24.598 -0.3261  0.3137 -0.0723
46357W        W89295  10.318  24.119  20.943  0.1685  0.1229  0.1927
46358W        W89296   9.759  23.000  22.014 -0.0174  0.0224  0.0558
46359W        W89297   7.646  24.175  21.537  0.3073  0.1890  0.0936
46360W        W89298   7.893  22.727  25.125  0.1861 -0.0136  0.2738
46361W        W89299   7.370  23.228  21.486 -0.1084  0.0342  0.1075
46362W        W89300   7.542  26.119  23.235 -0.3257  0.1098  0.0035
46363W        W89301  10.308  24.815  23.567  0.1477  0.0231 -0.0707
46364W        W89302   8.693  25.171  22.049 -0.2441  0.0719 -0.0765
46365W        W89303   7.954  23.004  23.970  0.1168  0.2259 -0.0961
46366W        W89304  10.457  22.005  21.105  0.1211  0.0311  0.1479
46367W        W89305   8.950  24.446  19.633  0.0944 -0.3595 -0.0288
46368W        W89306   8.900  24.993  20.717  0.2468 -0.2109  0.2139
46369W        W89307   9.118  22.174  22.400  0.0445 -0.1962  0.0054
46370W        W89308   9.218  25.423  24.122  0.1986  0.0477 -0.1514
46371W        W89309   7.401  22.747  20.442 -0.2645  0.0362 -0.4362
46372W        W89310  10.327  24.136  23.358  0.2769  0.0088  0.1970
46373W        W89311   8.718  26.270  20.617  0.2074  0.2814  0.2506
46374W        W89312   8.891  21.503  23.334 -0.3295  0.0748 -0.0087
46375W        W89313   7.318  26.349  22.163 -0.2481  0.1499 -0.1302
46376W        W89314   7.043  21.995  19.998  0.1872 -0.2398 -0.2804
46377W        W89315   7.512  23.842  20.752  0.3225 -0.1394  0.0854
46378W        W89316   8.607  21.525  22.094 -0.0799 -0.1350 -0.1717
46379W        W89317  11.043  24.754  20.734  0.0709 -0.0042 -0.0347
46380W        W89318   7.521  23.152  22.564  0.0709  0.1302 -0.2842
46381W        W89319   8.540  23.941  21.750  0.1966 -0.0565  0.0950
46382W        W89320   7.115  25.578  21.389  0.0279 -0.3847 -0.3226
46383W        W89321   9.938  24.254  24.363  0.2904  0.0835 -0.0181
46384W        W89322   9.369  22.608  21.487 -0.1277 -0.0409  0.1085
46385W        W89323   9.024  24.015  23.420 -0.0590  0.0075  0.0916
46386W        W89324   8.706  24.482  24.183  0.2471 -0.0316 -0.2878
46387W        W89325   8.679  22.005  20.735  0.0555 -0.0389 -0.1989
46388W        W89326  10.969  23.711  25.304 -0.1133 -0.3344  0.0046
46389W        W89327   9.000  23.216  22.123  0.3234 -0.0750  0.1779
46390W        W89328   6.827  24.664  20.788 -0.0265  0.5008 -0.0512
46391W        W89329   9.782  24.761  23.336 -0.1264  0.0862  0.0820
46392W        W89330   6.934  23.473  21.604 -0.1888 -0.0052  0.1288
46393W        W89331   8.268  25.145  21.244 -0.1871  0.0050  0.1121
46394W        W89332   7.717  21.708  23.758 -0.1840 -0.2740 -0.0259
46395W        W89333  10.843  23.424  21.067 -0.0200  0.0382 -0.2709
46396W        W89334   8.966  23.110  23.285  0.0231  0.0370 -0.0638
46397W        W89335   8.732  23.516  21.693  0.0718 -0.3740 -0.5014
46398W        W89336   9.556  23.788  23.335 -0.1657 -0.4499 -0.2513
46399W        W89337   8.600  23.485  22.407 -0.1115 -0.2340 -0.1657
46400W        W89338   9.559  23.105  23.436 -0.1394 -0.3813 -0.1183
46401W        W89339   7.370  24.703  24.285  0.4127 -0.2283  0.0603
46402W        W89340  11.635  22.050  21.441  0.1324  0.1086 -0.1827
46403W        W89341  11.651  25.970  18.980  0.4186 -0.1471  0.1567
46404W        W89342   9.235  24.251  24.306 -0.1326  0.1545  0.0504
46405W        W89343   8.820  24.364  23.191  0.0091  0.2281  0.0426
46406W        W89344   7.284  24.129  21.104 -0.0090  0.5419 -0.1899
46407W        W89345   8.650  23.105  21.233 -0.1380 -0.1002  0.0715
46408W        W89346   8.718  22.768  23.533  0.2662  0.0099 -0.0452
46409W        W89347   8.860  24.792  22.256 -0.0900 -0.3336  0.1148
46410W        W89348   9.111  24.629  19.173  0.0569 -0.0559 -0.0071
46411W        W89349   7.169  24.948  22.383 -0.1206 -0.3993 -0.0568
46412W        W89350   9.629  22.203  22.456  0.1243  0.0825  0.0793
46413W        W89351  10.019  25.152  19.515 -0.3275  0.2100 -0.2429
46414W        W89352  10.731  22.122  21.696  0.1541  0.1551  0.2674
46415W        W89353  10.169  21.370  22.449  0.3434 -0.1355  0.2224
46416W        W89354  10.286  22.551  21.056 -0.1480 -0.0144 -0.0193
46417W        W89355   9.426  22.055  23.901 -0.0268  0.3105  0.3559
46418W        W89356   7.911  23.230  22.191 -0.1865  0.0462  0.4086
46419W        W89357   8.973  24.561  20.925 -0.2909  0.1649 -0.0740
46420W        W89358   6.762  21.106  23.455 -0.1375 -0.0221  0.3885
46421W        W89359  10.463  25.199  24.611  0.0218  0.1327  0.0294
46422W        W89360   7.523  24.461  24.723 -0.1261  0.0491  0.0342
46423W        W89361   8.676  22.078  21.516 -0.3900  0.1133  0.0167
46424W        W89362   7.991  21.846  20.269  0.0484 -0.0089  0.0620
46425W        W89363   8.422  23.852  23.278  0.2080  0.2953 -0.1557
46426W        W89364   9.209  23.003  22.839  0.1571 -0.1268  0.2046
46427W        W89365   7.811  23.137  21.192 -0.1684  0.0601  0.0544
46428W        W89366  10.472  22.381  22.048 -0.0207  0.3614  0.0442
46429W        W89367   8.063  24.616  21.259  0.1813  0.0565  0.0286
46430W        W89368   9.513  23.959  20.728  0.1908  0.0464  0.2481
46431W        W89369   9.175  23.758  21.588  0.4142  0.1657  0.3396
46432W        W89370   9.097  24.330  21.400 -0.0814 -0.2325  0.3561
46433W        W89371   9.731  21.424  23.901 -0.1017  0.0348 -0.2062
46434W        W89372   9.313  24.634  22.439 -0.1263  0.1067  0.2065
46435W        W89373  10.031  21.888  22.824  0.4990  0.1305  0.1004
46436W        W89374   9.468  23.415  22.936 -0.0728 -0.2270 -0.0094
46437W        W89375  10.011  23.867  23.636  0.1913  0.0586  0.1965
46438W        W89376   8.439  22.994  24.343  0.3055  0.2472  0.0471
46439W        W89377   8.021  22.441  23.877 -0.0825  0.0335 -0.1337
46440W        W89378  10.571  24.030  22.243 -0.0175  0.0847 -0.0279
46441W        W89379   8.936  22.965  21.683  0.0314 -0.0219  0.1166
46442W        W89380  10.801  21.309  21.258  0.1273 -0.1837 -0.2444
46443W        W89381   9.320  23.349  21.812 -0.2302 -0.0016 -0.0383
46444W        W89382   8.503  22.109  19.793 -0.2531 -0.0083  0.0826
46445W        W89383   7.473  24.390  20.705  0.0936  0.0596  0.4269
46446W        W89384   9.833  23.577  22.626  0.0141  0.0366  0.0131
46447W        W89385   8.006  22.268  19.946  0.1915 -0.2618  0.1597
46448W        W89386   8.873  23.626  23.094 -0.0328 -0.1320 -0.0319
46449W        W89387   8.058  23.963  20.745 -0.5033 -0.0251  0.0196
46450W        W89388   8.629  24.819  23.110  0.0073  0.2109 -0.0910
46451W        W89389  10.102  22.741  21.505  0.4065  0.0071  0.1846
46452W        W89390   6.372  21.026  21.671 -0.2477  0.0370  0.0235
46453W        W89391   7.367  25.751  24.343 -0.0783  0.0282 -0.0789
46454W        W89392   7.168  22.812  20.929 -0.3251  0.2603 -0.0582
46455W        W89393   8.535  22.580  20.607  0.4765 -0.1182 -0.2900
46456W        W89394   8.026  23.616  23.268 -0.2397  0.2534 -0.0207
46457W        W89395  10.926  24.762  22.905 -0.3051  0.1548 -0.2673
46458W        W89396   8.598  21.775  20.239  0.2378 -0.0923 -0.1456
46459W        W89397  10.033  22.823  24.661 -0.3119 -0.4160 -0.1052
46460W        W89398   6.328  24.974  20.047 -0.2205 -0.3293  0.3590
46461W        W89399   9.119  20.750  22.395 -0.0135 -0.1351  0.0715
46462W        W89400   8.074  25.852  23.129 -0.0323  0.0421 -0.0933
46463W        W89401   7.619  24.048  22.661 -0.0285  0.5280 -0.1352
46464W        W89402   9.301  25.089  21.713 -0.1015 -0.1588  0.0238
46465W        W89403   9.872  21.785  22.281 -0.0937  0.0299 -0.0908
46466W        W89404   9.183  22.717  22.070  0.3452 -0.0692 -0.2728
46467W        W89405   8.660  25.235  22.576 -0.0415 -0.2061 -0.2473
46468W        W89406   9.439  23.136  22.408  0.0079 -0.1103  0.1716
46469W        W89407   7.825  23.939  24.530 -0.0833 -0.2491 -0.3760
46470W        W89408   7.381  23.370  21.017 -0.0852 -0.3533 -0.0448
46471W        W89409   8.404  22.686  23.943 -0.1097  0.0142 -0.1473
46472W        W89410   9.542  24.121  21.970  0.1111  0.3680  0.1530
46473W        W89411   7.595  22.930  21.852  0.1300  0.0622 -0.1439
46474W        W89412   7.272  21.139  23.596 -0.0214  0.0043 -0.0364
46475W        W89413   8.603  24.729  23.697  0.0126 -0.2095 -0.0229
46476W        W89414   8.553  24.762  21.318 -0.0421 -0.3711 -0.0041
46477W        W89415   8.591  22.738  22.081  0.3150  0.1278  0.3011
46478W        W89416   8.892  23.282  20.182 -0.0590  0.0424 -0.1877
46479W        W89417   7.887  25.710  22.016 -0.1563  0.2272 -0.0659
46480W        W89418   7.498  22.508  22.840  0.3088  0.0944 -0.1860
46481W        W89419   6.653  25.362  20.161  0.1851  0.1853 -0.2369
46482W        W89420   9.816  24.968  20.918  0.1383 -0.0471 -0.0732
46483W        W89421   9.010  23.964  20.938 -0.0888 -0.0235  0.1743
46484W        W89422   8.200  25.143  22.837 -0.0191  0.0586 -0.3163
46485W        W89423   9.040  22.082  19.440 -0.0714 -0.0355 -0.0968
46486W        W89424   8.682  25.316  21.527 -0.0759  0.2184  0.1005
46487W        W89425   7.780  24.707  20.289 -0.2336 -0.0757  0.2026
46488W        W89426   9.296  24.744  19.879  0.0976 -0.0833 -0.0248
46489W        W89427   7.321  25.883  21.749 -0.2349 -0.3067  0.1136
46490W        W89428  10.531  23.587  23.535  0.1620  0.1689  0.0490
46491W        W89429   9.817  23.721  21.823  0.2170  0.1552 -0.0195
46492W        W89430   9.213  23.495  20.744 -0.0818 -0.2517 -0.2340
46493W        W89431  10.082  23.098  21.093  0.0060  0.0280  0.1413
46494W        W89432  11.799  25.095  25.165  0.0910 -0.2221  0.0067
46495W        W89433   8.407  23.981  22.317 -0.1217  0.0736 -0.2534
46496W        W89434   9.131  21.458  18.419 -0.1802 -0.0119 -0.0170
46497W        W89435   8.139  23.466  23.692  0.0414 -0.3141 -0.2011
46498W        W89436  10.733  21.788  24.131  0.0383  0.1310  0.1440
46499W        W89437   7.283  23.810  23.061 -0.1238  0.1299  0.1179
46500W        W89438  10.987  24.900  19.342  0.0603 -0.1817 -0.2561
46501W        W89439   8.102  22.921  19.817  0.0638  0.0180  0.1164
46502W        W89440   8.437  23.739  21.016 -0.1548 -0.1179 -0.1961
46503W        W89441  10.313  20.027  22.369  0.0443  0.2501  0.1241
46504W        W89442  10.005  24.601  19.142 -0.2178 -0.1888  0.1772
46505W        W89443   8.706  23.177  22.831  0.0489  0.1493 -0.0528
46506W        W89444   9.009  25.035  21.235  0.1940 -0.1142 -0.3412
46507W        W89445   7.415  24.625  21.136 -0.1614  0.0025 -0.2110
46508W        W89446   8.074  25.640  22.574  0.1517 -0.0499  0.2239
46509W        W89447   5.956  22.144  20.687 -0.3754 -0.0946  0.1317
46510W        W89448  11.018  22.938  22.739  0.3658 -0.1320  0.2405
46511W        W89449   7.317  23.869  22.101 -0.2140  0.1396  0.2080
46512W        W89450   9.076  22.483  23.647 -0.0546  0.0835 -0.3333
46513W        W89451   7.788  23.305  20.696 -0.2702  0.1056 -0.0028
46514W        W89452   9.461  22.168  22.926 -0.0202 -0.0219  0.0732
46515W        W89453   7.776  24.577  23.451  0.2885  0.0394 -0.0807
46516W        W89454   6.979  23.208  21.190 -0.0646  0.1166  0.1662
46517W        W89455   9.348  22.986  20.365 -0.3821 -0.2832  0.1267
46518W        W89456  10.360  23.374  24.041  0.1396  0.3480  0.0599
46519W        W89457  10.871  24.826  18.504  0.2455 -0.0587 -0.3536
46520W        W89458   7.804  25.134  23.121 -0.3320  0.1363  0.4054
46521W        W89459   7.706  21.905  21.686 -0.2103 -0.1581 -0.0751
46522W        W89460   8.322  22.578  19.524  0.0688 -0.1276  0.0273
46523W        W89461   6.880  22.313  20.798  0.3775 -0.0517  0.1033
46524W        W89462   9.326  22.635  23.242  0.0244  0.2886  0.2230
46525W        W89463  10.081  24.391  23.837  0.3002  0.0632  0.2898
46526W        W89464   7.928  21.590  22.024 -0.1328 -0.3859 -0.0325
46527W        W89465   9.645  23.605  18.630  0.0670  0.2454  0.0244
46528W        W89466  10.058  23.718  23.167 -0.0822  0.1749  0.1116
46529W        W89467   8.392  26.835  20.710 -0.0473 -0.1182 -0.1320
46530W        W89468  10.375  23.576  21.017 -0.0185  0.0619 -0.2188
46531W        W89469   9.018  24.892  22.785 -0.1181  0.0060  0.2316
46532W        W89470   6.833  21.063  22.727 -0.0241  0.2496  0.0965
46533W        W89471   9.975  23.805  20.795 -0.1382 -0.0294 -0.1838
46534W        W89472  11.052  24.519  22.022 -0.0771 -0.2413  0.0697
46535W        W89473   8.288  22.768  21.011 -0.2295  0.1382 -0.3000
46536W        W89474   7.774  24.180  20.364 -0.0066 -0.3474  0.0674
46537W        W89475   7.402  25.879  20.548  0.0216 -0.1527 -0.1343
46538W        W89476  10.495  21.680  22.840 -0.0163  0.0290  0.1621
46539W        W89477   8.481  23.201  23.330 -0.0379  0.0007  0.2382
46540W        W89478   8.208  24.358  19.916  0.1041  0.0460 -0.4531
46541W        W89479   8.474  22.262  22.873  0.2591  0.1999 -0.1183
46542W        W89480   9.072  24.328  23.827 -0.1872  0.0744  0.0776
46543W        W89481   9.198  25.600  24.662  0.1887  0.1634  0.0802
46544W        W89482   7.894  25.324  20.900  0.0152 -0.0376  0.1813
46545W        W89483   8.237  25.136  22.305 -0.1919 -0.1875 -0.1478
46546W        W89484   7.625  24.223  19.883 -0.0820  0.1163 -0.0795
46547W        W89485   9.362  24.947  20.865  0.1808 -0.1947 -0.2017
46548W        W89486   9.092  25.596  22.606  0.0750 -0.1060 -0.0846
46549W        W89487   8.867  23.844  22.201  0.2778 -0.1433  0.2200
46550W        W89488   9.741  23.499  21.195 -0.0833  0.3895 -0.3565
46551W        W89489   7.674  22.433  21.741 -0.1215 -0.3318 -0.1632
46552W        W89490  11.130  21.960  22.485  0.0760  0.3176  0.1339
46553W        W89491  11.375  22.985  20.569 -0.1243  0.4587  0.0799
46554W        W89492   7.131  22.589  23.524  0.2917 -0.2221 -0.0289
46555W        W89493   6.713  23.795  20.677 -0.0609 -0.1723 -0.1835
46556W        W89494   8.720  23.194  20.648 -0.0365 -0.3946  0.3128
46557W        W89495   7.779  24.969  21.211 -0.1232  0.0930 -0.1557
46558W        W89496   9.879  21.266  24.781 -0.2332  0.2606 -0.3740
46559W        W89497   7.526  22.423  25.408  0.0286  0.5274  0.0566
46560W        W89498   6.720  23.305  20.602  0.1559 -0.3175  0.0545
46561W        W89499   8.020  19.774  21.236 -0.0967 -0.1577  0.2118
46562W        W89500   9.585  23.155  20.812  0.1483  0.3661  0.3528
46563W        W89501   8.519  22.287  21.947 -0.0423  0.0223  0.3858
46564W        W89502   7.590  21.562  22.572  0.0731  0.1314  0.1870
46565W        W89503   9.797  24.702  20.449 -0.0269 -0.0669 -0.3132
46566W        W89504   8.433  24.280  20.857 -0.1504 -0.2770  0.3562
46567W        W89505   8.424  22.314  21.082  0.0993  0.4191  0.0504
46568W        W89506   9.950  25.372  23.329 -0.2439  0.0343 -0.1029
46569W        W89507   7.298  23.930  20.252  0.0263 -0.4566  0.0527
46570W        W89508   9.722  22.189  26.083  0.1495  0.3317  0.3200
46571W        W89509   7.879  22.806  22.593 -0.0306  0.1639  0.1240
46572W        W89510   7.371  21.180  20.760 -0.1483  0.2217  0.0780
46573W        W89511   8.794  23.913  22.684  0.1382  0.0710 -0.4232
46574W        W89512   9.433  25.621  20.325 -0.0731  0.0922 -0.1041
46575W        W89513  10.181  25.085  20.508 -0.0298 -0.0583 -0.0229
46576W        W89514   7.493  24.178  23.350  0.1650  0.2365 -0.2708
46577W        W89515   9.017  26.071  23.431 -0.1271  0.1860  0.1028
46578W        W89516   7.925  22.200  23.020  0.0505 -0.1055  0.0092
46579W        W89517  10.382  24.281  19.172  0.1531  0.0129 -0.4068
46580W        W89518   8.257  26.395  23.095  0.1306 -0.0762  0.4887
46581W        W89519  10.303  23.643  21.896  0.4367  0.2400 -0.1528
46582W        W89520  10.139  23.103  22.731 -0.1192 -0.0797 -0.0018
46583W        W89521   9.464  23.933  21.237  0.0583 -0.0201 -0.0036
46584W        W89522   9.201  21.636  24.175  0.1029  0.2521  0.3536
46585W        W89523   8.316  24.371  23.412  0.4053  0.1194 -0.3085
46586W        W89524  10.086  23.252  21.646  0.3035 -0.0076  0.1338
46587W        W89525   7.573  22.282  20.424 -0.0247 -0.1657 -0.0755
46588W        W89526   8.439  21.781  21.152  0.3691 -0.1887  0.0687
46589W        W89527  10.292  25.173  21.296 -0.0203  0.0524  0.0864
46590W        W89528   7.757  23.212  23.466 -0.0021 -0.3467 -0.1657
46591W        W89529   8.865  22.783  20.274  0.1354 -0.0532 -0.0583
46592W        W89530   9.255  23.896  22.942 -0.0088  0.4265  0.1276
46593W        W89531   7.702  26.015  21.456 -0.2848  0.1186  0.1517
46594W        W89532   8.984  22.152  24.183  0.1750 -0.1768  0.2809
46595W        W89533  10.278  22.182  21.506  0.2065 -0.2214  0.1360
46596W        W89534  11.607  24.211  19.651 -0.0923  0.2177 -0.1712
46597W        W89535   7.781  24.759  23.962  0.3040 -0.0067  0.1354
46598W        W89536   9.896  25.073  23.784  0.0696  0.0636  0.3122
46599W        W89537   7.958  26.982  22.813 -0.1814  0.0561 -0.1345
46600W        W89538  10.004  22.977  23.768 -0.1748 -0.2512 -0.1059
46601W        W89539   7.135  22.510  21.965  0.0393  0.0454 -0.3125
46602W        W89540   8.361  24.576  20.358 -0.0160 -0.1304 -0.2067
46603W        W89541   8.253  23.577  21.484 -0.2484  0.0097 -0.2370
46604W        W89542  10.250  21.981  24.207  0.3290  0.2219 -0.0326
46605W        W89543   7.488  22.788  21.338  0.4890 -0.0047 -0.0984
46606W        W89544   8.680  22.631  22.545  0.0741  0.1700  0.4512
46607W        W89545   8.598  26.386  23.433  0.4181  0.3429 -0.1685
46608W        W89546  10.019  23.726  20.265 -0.2988  0.4329 -0.1455
46609W        W89547   8.676  23.774  27.547 -0.0658  0.0051 -0.2801
46610W        W89548   9.132  20.404  26.278  0.2642 -0.1672 -0.2056
46611W        W89549   9.973  22.172  25.246  0.3679 -0.4618  0.0092
46612W        W89550   8.974  23.556  25.260  0.5036 -0.1766  0.1172
46613W        W89551   6.300  21.865  25.030 -0.0934 -0.1228 -0.0056
46614W        W89552   8.750  24.935  25.047  0.4240  0.2718 -0.3902
46615W        W89553   8.372  20.741  27.069 -0.1223 -0.1984  0.0026
46616W        W89554   9.611  25.189  26.561  0.0130  0.4141  0.1431
46617W        W89555  11.439  24.734  25.397 -0.2328  0.0861  0.0552
46618W        W89556   9.435  23.458  24.195 -0.3382  0.1062  0.0432
46619W        W89557   8.551  22.983  25.814  0.0885  0.1046  0.1157
46620W        W89558   9.810  26.204  26.795  0.1859 -0.0438 -0.0297
46621W        W89559   9.128  21.472  24.938  0.0685  0.1043 -0.0941
46622W        W89560   8.426  21.677  26.134  0.1615 -0.1761 -0.0745
46623W        W89561   9.347  23.056  26.440  0.1130  0.0391  0.1815
46624W        W89562   7.006  22.134  25.452 -0.1546 -0.1662  0.0258
46625W        W89563   7.454  21.919  25.754 -0.1177 -0.1006 -0.2928
46626W        W89564   8.787  23.379  25.674  0.0931 -0.0491 -0.0279
46627W        W89565   9.842  25.563  26.890  0.1469 -0.0976  0.0701
46628W        W89566   9.018  22.132  28.099 -0.3064 -0.0311 -0.1237
46629W        W89567  10.476  22.334  27.119  0.2273 -0.0399  0.0387
46630W        W89568   7.484  25.547  25.196 -0.0051  0.0002 -0.1089
46631W        W89569   8.183  22.853  23.503  0.2884  0.2064 -0.0405
46632W        W89570   6.829  23.534  26.943  0.1398  0.1702 -0.1462
46633W        W89571   9.300  22.889  26.891 -0.2227 -0.0661 -0.2342
46634W        W89572   9.810  20.882  26.016 -0.2160 -0.3265  0.0764
46635W        W89573  10.582  24.758  25.311 -0.0203  0.2618  0.0738
46636W        W89574   8.474  24.252  24.641 -0.2316 -0.1392 -0.3923
46637W        W89575  10.909  25.293  25.645  0.1277  0.0684  0.2114
46638W        W89576   9.664  22.865  28.672 -0.0120 -0.2045 -0.0249
46639W        W89577   7.877  22.671  27.215 -0.1935  0.0466 -0.2402
46640W        W89578   7.243  25.117  25.226 -0.0038  0.0727  0.2242
46641W        W89579   8.431  24.921  24.155 -0.3264  0.1112 -0.1790
46642W        W89580   9.697  24.881  25.045 -0.0166 -0.0846  0.1068
46643W        W89581  10.230  24.530  26.362  0.2203 -0.0380  0.0646
46644W        W89582   9.522  26.354  26.386 -0.1142 -0.0648 -0.0817
46645W        W89583   7.217  25.171  23.359  0.0073  0.0563  0.2341
46646W        W89584   9.675  26.181  28.109 -0.1765  0.1968  0.1755
46647W        W89585   6.795  23.427  26.450 -0.1481 -0.1967  0.0879
46648W        W89586   9.986  22.392  27.283  0.1265 -0.2507  0.0158
46649W        W89587   8.458  23.624  24.136 -0.0401  0.2689  0.0519
46650W        W89588   7.834  23.512  24.789  0.0132 -0.0916  0.1034
46651W        W89589   9.318  23.266  25.908  0.1236 -0.1846 -0.0810
46652W        W89590   9.026  24.465  27.454  0.2880 -0.0972  0.0394
46653W        W89591   7.175  24.237  25.058 -0.2942  0.3491  0.1631
46654W        W89592  12.639  22.606  26.518 -0.3100  0.0206  0.0471
46655W        W89593   9.582  26.624  23.616 -0.1766 -0.1716  0.0286
46656W        W89594   9.917  24.107  24.887 -0.3584 -0.3814  0.2435
46657W        W89595   8.846  22.396  25.135  0.2740 -0.0980  0.1348
46658W        W89596   9.803  23.295  26.303  0.0484  0.1281  0.2970
46659W        W89597   8.817  21.399  25.468  0.0972 -0.1506  0.2102
46660W        W89598   7.856  23.724  25.372  0.3315  0.1079 -0.0492
46661W        W89599  10.186  21.738  26.625  0.0038 -0.0480 -0.1547
46662W        W89600  10.734  23.855  27.715 -0.0072  0.2539  0.2470
46663W        W89601   9.919  23.621  25.937 -0.1285 -0.0516 -0.0315
46664W        W89602  10.525  20.346  26.970  0.1825 -0.0245  0.2162
46665W        W89603   7.841  24.751  27.052  0.0104 -0.2931  0.2843
46666W        W89604   7.832  21.771  25.446 -0.0059  0.1358 -0.0400
46667W        W89605  10.208  25.294  24.139  0.0740  0.2092 -0.3804
46668W        W89606  11.507  24.379  24.914  0.0296  0.0535 -0.3040
46669W        W89607   9.909  25.065  24.599 -0.2132 -0.0337  0.1504
46670W        W89608   8.273  23.405  25.614  0.1342 -0.5517  0.3535
46671W        W89609   7.893  23.149  26.910  0.3197 -0.1054  0.0021
46672W        W89610   8.249  23.629  28.013 -0.3813 -0.0995  0.4008
46673W        W89611   8.562  21.459  24.323 -0.0874  0.0606  0.2025
46674W        W89612  12.522  22.421  26.061 -0.1792  0.0221 -0.0041
46675W        W89613   7.664  24.172  28.446  0.0763 -0.3843 -0.0270
46676W        W89614   9.598  23.021  24.690 -0.1427  0.0102  0.0269
46677W        W89615   9.540  23.306  26.835  0.3027  0.0627  0.4014
46678W        W89616  10.517  25.130  27.655 -0.0651  0.1784  0.0591
46679W        W89617   9.881  24.198  23.233 -0.1308 -0.0949 -0.2850
46680W        W89618  10.516  21.072  26.536  0.2926  0.2992  0.0880
46681W        W89619  10.484  22.247  27.944 -0.0006  0.0588  0.0803
46682W        W89620   7.909  24.503  21.769  0.1017 -0.3121  0.2650
46683W        W89621   8.056  22.651  24.375  0.2942 -0.0298  0.1009
46684W        W89622  10.815  25.254  26.642  0.0032  0.0716  0.0519
46685W        W89623  11.307  24.139  24.496  0.0048 -0.0931  0.3643
46686W        W89624   8.746  24.231  27.072  0.2316 -0.1998  0.0982
46687W        W89625   8.678  21.409  26.540 -0.1292  0.1632 -0.1768
46688W        W89626   8.515  24.319  27.505  0.2284 -0.1188  0.3497
46689W        W89627   8.404  24.753  22.648  0.0573  0.1576  0.1478
46690W        W89628   6.928  22.728  25.659 -0.0050  0.1048 -0.0839
46691W        W89629   7.168  24.872  24.775  0.2614  0.1545 -0.0854
46692W        W89630   7.596  22.020  26.792  0.1099  0.1185  0.2285
46693W        W89631   9.450  23.867  26.070 -0.2684  0.2500  0.2515
46694W        W89632  11.070  24.603  25.034  0.0169  0.1211 -0.2007
46695W        W89633   7.024  21.540  28.611  0.0101 -0.1178 -0.0022
46696W        W89634   9.545  21.430  25.285 -0.3288  0.2674  0.2689
46697W        W89635   7.177  25.224  24.282  0.2903 -0.0048 -0.1271
46698W        W89636  10.220  26.453  24.313  0.2221 -0.1979 -0.0567
46699W        W89637   8.715  23.856  24.909 -0.1614 -0.1634 -0.2607
46700W        W89638   9.655  24.001  23.966 -0.0845 -0.3104 -0.1157
46701W        W89639   7.117  22.201  26.968 -0.0387 -0.0101 -0.0273
46702W        W89640   9.782  22.773  25.195  0.1067  0.2193 -0.1273
46703W        W89641   8.619  21.138  27.060 -0.4097  0.4180  0.0040
46704W        W89642   8.092  21.296  26.242 -0.0943 -0.0493 -0.4568
46705W        W89643  10.636  24.232  25.953 -0.0709  0.1014 -0.0973
46706W        W89644   7.250  21.733  23.400 -0.0278  0.0125 -0.1112
46707W        W89645  10.422  22.003  25.103 -0.0334  0.0500  0.1853
46708W        W89646   8.430  23.441  26.151  0.1860 -0.1826 -0.1448
46709W        W89647   7.345  23.571  24.446  0.0849  0.1586  0.0217
46710W        W89648   9.634  20.836  27.867  0.1869 -0.1074 -0.1655
46711W        W89649   9.153  24.731  24.776 -0.1781  0.0940 -0.1692
46712W        W89650  11.850  25.593  26.519  0.0473 -0.3251  0.2313
46713W        W89651  10.907  24.907  24.595  0.0534  0.1075  0.0420
46714W        W89652   9.332  21.989  27.368 -0.0839 -0.3371  0.1477
46715W        W89653   6.769  21.646  23.469 -0.2172 -0.0983 -0.2973
46716W        W89654   9.015  23.727  26.284  0.2172  0.2728  0.1474
46717W        W89655   8.762  24.200  26.202  0.2359 -0.1357  0.0921
46718W        W89656   9.613  22.160  25.576 -0.1033 -0.2995  0.2331
46719W        W89657  11.489  25.879  26.190 -0.1809 -0.0534  0.0496
46720W        W89658  10.641  22.910  25.155  0.1485 -0.1113  0.2366
46721W        W89659   8.260  24.023  27.225  0.1017 -0.1054  0.0995
46722W        W89660  10.559  21.166  27.784  0.1203  0.3895  0.0893
46723W        W89661  10.496  23.742  26.703  0.1138 -0.2414 -0.3336
46724W        W89662  10.705  21.988  24.617  0.0618 -0.0477  0.3388
46725W        W89663   8.545  22.089  24.771  0.2974  0.0545  0.1159
46726W        W89664   9.207  25.935  25.539 -0.2243  0.3132  0.1862
46727W        W89665   8.735  25.585  24.042 -0.0442  0.2627  0.6055
46728W        W89666   7.298  22.853  26.908  0.1302  0.0486 -0.3464
46729W        W89667   8.559  24.447  25.111 -0.1951  0.0592 -0.0728
46730W        W89668   9.530  21.763  24.928 -0.1929  0.0779 -0.2329
46731W        W89669   6.869  22.678  27.255 -0.1862  0.2645 -0.2256
46732W        W89670  10.664  22.100  27.507  0.1385 -0.2967  0.0861
46733W        W89671   7.676  22.652  24.673 -0.4695  0.1470 -0.0724
46734W        W89672   6.769  23.023  26.899  0.0156  0.1150  0.4694
46735W        W89673  10.065  21.640  25.174  0.1508  0.0191  0.4139
46736W        W89674   9.974  22.096  23.765  0.2248 -0.2314  0.0589
46737W        W89675  10.050  23.377  26.760  0.0716 -0.1562 -0.3845
46738W        W89676   8.879  22.694  24.094 -0.1445 -0.0988 -0.0233
46739W        W89677   9.075  22.361  24.658  0.0246 -0.0283  0.1604
46740W        W89678   8.560  21.943  24.271 -0.0113 -0.0013  0.1132
46741W        W89679   8.523  24.719  26.292 -0.1165  0.1029  0.0668
46742W        W89680   9.421  24.230  24.845  0.1746  0.1650  0.3188
46743W        W89681   9.779  24.243  26.062  0.0420  0.0559 -0.1595
46744W        W89682  10.010  21.881  24.684  0.2529 -0.2125 -0.0222
46745W        W89683   9.277  25.021  25.203 -0.1237  0.1038 -0.0200
46746W        W89684   8.323  23.444  24.993  0.0190 -0.3658  0.1652
46747W        W89685  10.906  24.329  27.602 -0.0432 -0.3139 -0.1786
46748W        W89686   8.909  23.246  26.163  0.1799 -0.2441  0.0294
46749W        W89687   9.358  22.767  25.994 -0.4583 -0.1596 -0.1762
46750W        W89688   8.012  24.337  22.656  0.2642  0.0030  0.1437
46751W        W89689   9.160  20.940  25.272  0.0296  0.0892 -0.0905
46752W        W89690   7.636  25.340  24.169  0.2410  0.0849 -0.0448
46753W        W89691   9.699  23.108  25.637  0.4723  0.0326  0.5300
46754W        W89692  11.032  22.298  26.617 -0.1785 -0.1716  0.0310
46755W        W89693  11.268  23.182  26.288  0.1979 -0.0211  0.1985
46756W        W89694  10.538  25.346  26.234  0.0451 -0.2136 -0.2499
46757W        W89695  10.275  23.237  25.070  0.2311 -0.4165  0.0817
46758W        W89696  11.177  23.029  26.862 -0.2036  0.2455 -0.0897
46759W        W89697   7.842  22.646  23.217 -0.3159  0.4011  0.0562
46760W        W89698  10.778  21.808  27.018 -0.0558 -0.4175  0.2264
46761W        W89699   8.705  23.970  26.651  0.1943  0.0909 -0.1217
46762W        W89700   7.521  24.068  26.791 -0.4442  0.0286 -0.1099
46763W        W89701  11.229  25.348  27.358 -0.3321  0.4680  0.0721
46764W        W89702   8.395  23.187  26.993  0.0753  0.2770  0.2807
46765W        W89703   8.737  22.929  27.727  0.0855  0.2021 -0.0660
46766W        W89704   9.340  23.127  25.266  0.0480 -0.0692 -0.0154
46767W        W89705   8.617  24.760  24.628 -0.0600  0.1305 -0.2394
46768W        W89706   8.229  23.597  24.559  0.0570  0.1328  0.0155
46769W        W89707  10.856  20.663  26.656  0.3245  0.1561 -0.1720
46770W        W89708  10.698  25.127  27.150 -0.0241 -0.1516  0.2594
46771W        W89709   8.241  24.067  24.235  0.0493  0.0614 -0.1805
46772W        W89710   9.398  24.488  25.254 -0.1362 -0.0540 -0.0737
46773W        W89711   8.186  24.849  23.492  0.4485 -0.3443 -0.4152
46774W        W89712  10.051  25.190  26.333 -0.3020  0.2609  0.1879
46775W        W89713   6.577  24.603  26.251 -0.0206  0.0090  0.6067
46776W        W89714   8.155  23.310  26.501  0.0786 -0.3410  0.0005
46777W        W89715   6.353  24.960  24.246  0.1290 -0.1462 -0.1195
46778W        W89716   9.528  21.753  25.852 -0.1320  0.1262 -0.1202
46779W        W89717   9.625  23.704  24.616 -0.0778  0.0802  0.0625
46780W        W89718   9.006  22.367  26.641  0.0519  0.2180  0.0972
46781W        W89719  10.031  22.454  25.659  0.0096 -0.3120 -0.0895
46782W        W89720   8.485  25.176  27.189  0.0705  0.2943 -0.0135
46783W        W89721  10.496  22.797  26.114  0.0673  0.2236 -0.0374
46784W        W89722   9.227  22.943  23.849 -0.0062  0.0947  0.2223
46785W        W89723  10.241  24.210  26.725 -0.2968  0.1619  0.0747
46786W        W89724   9.033  22.306  27.140  0.0544 -0.1328 -0.1940
46787W        W89725   6.387  21.058  23.040 -0.0613  0.0934  0.2386
46788W        W89726  10.234  23.994  26.130 -0.2311 -0.0688  0.3235
46789W        W89727   9.706  21.529  26.632 -0.1180 -0.1821 -0.0704
46790W        W89728   9.227  24.096  26.493 -0.0592 -0.3810 -0.0354
46791W        W89729   8.784  24.755  25.558  0.0259  0.3122  0.2589
46792W        W89730   7.361  22.909  25.433 -0.4466 -0.1881 -0.2417
46793W        W89731   8.193  22.551  25.904  0.2166  0.1906  0.1584
46794W        W89732  10.106  22.344  26.801  0.2517 -0.1816 -0.3638
46795W        W89733  11.447  23.429  27.097  0.1866 -0.1513 -0.0605
46796W        W89734   8.495  21.273  25.847 -0.0144 -0.0443 -0.2865
46797W        W89735   9.358  22.581  25.492 -0.2492  0.0312  0.2245
46798W        W89736   8.677  22.546  25.602 -0.0163  0.1336 -0.2053
46799W        W89737  10.333  25.328  26.814  0.0027 -0.0578 -0.0972
46800W        W89738   9.739  22.108  26.556 -0.0066  0.1338  0.2153
46801W        W89739   7.253  23.848  27.161 -0.1365  0.2532 -0.0392
46802W        W89740  10.263  20.207  25.169 -0.0806  0.5510  0.1616
46803W        W89741  10.878  26.395  25.813  0.1607 -0.0053 -0.0160
46804W        W89742   9.589  24.687  26.245  0.1675  0.0866 -0.1444
46805W        W89743   8.428  22.898  26.346 -0.0954  0.2746 -0.0794
46806W        W89744   5.857  23.919  24.752 -0.1126 -0.2041  0.1657
46807W        W89745   8.620  23.513  26.618  0.4031  0.2400 -0.0294
46808W        W89746   9.035  21.226  27.596  0.0488 -0.1018  0.1026
46809W        W89747   7.811  24.642  25.522 -0.0118  0.1649 -0.1070
46810W        W89748   8.165  24.568  24.377 -0.2514  0.0722  0.0350
46811W        W89749   9.202  23.492  27.270  0.1306 -0.1125  0.2033
46812W        W89750  10.185  20.615  24.868 -0.2326  0.2581  0.0703
46813W        W89751   8.776  25.253  24.426 -0.0557  0.1815  0.2045
46814W        W89752  10.599  21.500  26.227 -0.3330  0.1221 -0.1111
46815W        W89753  13.468  20.700  27.734 -0.1193  0.2270 -0.1251
46816W        W89754   8.928  24.323  24.820 -0.0164 -0.1050  0.2706
46817W        W89755  10.845  22.582  28.846  0.1407 -0.2276 -0.3659
46818W        W89756   9.103  21.523  26.747  0.1818 -0.0919  0.1143
46819W        W89757  11.964  23.681  26.131  0.1231  0.0392 -0.3681
46820W        W89758   5.876  21.603  26.652 -0.1292 -0.2892  0.0682
46821W        W89759  10.319  24.698  27.928  0.1723  0.2926 -0.0449
46822W        W89760   6.360  23.400  26.773 -0.3109 -0.5596 -0.2587
46823W        W89761   9.244  23.419  24.829 -0.1126 -0.2380 -0.0198
46824W        W89762   8.455  22.787  24.968 -0.3323 -0.1768  0.0063
46825W        W89763   9.588  23.777  27.042  0.5675 -0.2472 -0.1494
46826W        W89764  10.701  24.739  26.150  0.0322 -0.3210  0.1434
46827W        W89765   9.034  25.218  26.369 -0.0488 -0.1027 -0.1499
46828W        W89766   9.943  23.678  25.404 -0.0070 -0.0717 -0.0136
46829W        W89767   8.415  22.713  27.349 -0.0380 -0.0717  0.0361
46830W        W89768  10.974  23.428  25.796 -0.1445  0.1789  0.0644
46831W        W89769   8.715  23.142  25.236  0.0539 -0.1765 -0.0597
46832W        W89770   8.211  21.918  25.120  0.3475  0.2569  0.1648
46833W        W89771   8.937  21.594  27.262  0.0616  0.0419 -0.0304
46834W        W89772   9.676  24.325  26.643 -0.3907  0.0702 -0.0384
46835W        W89773  10.980  23.552  26.803 -0.0748  0.0975 -0.0087
46836W        W89774   8.861  22.837  26.562 -0.1700 -0.1585  0.2131
46837W        W89775  10.367  23.344  27.170  0.1274  0.0172 -0.0295
46838W        W89776   8.189  22.770  26.763  0.0926  0.0856  0.1309
46839W        W89777   9.195  21.683  27.776  0.2528  0.1500  0.2213
46840W        W89778   9.688  25.407  24.956 -0.2369 -0.0199 -0.0123
46841W        W89779  11.151  23.126  25.367  0.1961  0.2701 -0.0136
46842W        W89780  10.780  23.017  25.688 -0.0927 -0.1640  0.2750
46843W        W89781  10.047  24.839  25.999 -0.0577  0.1290  0.0072
46844W        W89782   8.913  23.236  24.115 -0.5493 -0.4137 -0.1777
46845W        W89783   7.386  21.555  24.797 -0.1851 -0.2594  0.0879
46846W        W89784  10.450  21.418  26.995  0.1218  0.2376 -0.2297
46847W        W89785   8.010  22.116  24.358  0.0352 -0.4226  0.3567
46848W        W89786   9.100  22.581  27.943  0.0613  0.3472  0.2544
46849W        W89787   8.148  24.263  25.277 -0.0896 -0.2866 -0.1338
46850W        W89788   8.516  24.311  25.679 -0.3619  0.1456  0.0658
46851W        W89789  10.116  25.358  25.823  0.0928  0.2047  0.1666
46852W        W89790   6.891  22.081  25.995 -0.2150 -0.0176 -0.1815
46853W        W89791   7.632  24.333  27.904 -0.0252 -0.1045 -0.1227
46854W        W89792   7.542  23.095  24.924  0.3409 -0.0754  0.1957
46855W        W89793   8.714  23.329  24.656 -0.0363 -0.1813 -0.0285
46856W        W89794   9.491  24.311  27.617  0.1648  0.0671  0.2617
46857W        W89795  10.204  21.811  27.295  0.2165 -0.3921 -0.2330
46858W        W89796  10.190  20.419  23.832 -0.0618  0.3248  0.1553
46859W        W89797  11.449  23.639  26.090  0.0384 -0.0289 -0.0112
46860W        W89798   7.903  23.238  25.206 -0.1599 -0.2951  0.2403
46861W        W89799  10.130  22.409  26.318  0.0204  0.3048  0.0879
46862W        W89800   8.561  25.161  26.026  0.0474  0.0896  0.2501
46863W        W89801   7.272  22.946  25.949 -0.0754  0.0133 -0.0245
46864W        W89802   8.905  24.466  26.689  0.0400 -0.0310  0.1562
46865W        W89803   9.282  20.842  25.987 -0.2383  0.2030  0.2708
46866W        W89804  10.136  20.755  25.425  0.0071  0.1873 -0.0527
46867W        W89805   9.532  22.614  27.266 -0.0804  0.1003 -0.0684
46868W        W89806  11.698  24.276  26.624  0.0130  0.2007 -0.0053
46869W        W89807  10.223  24.992  27.186 -0.2021  0.3745 -0.0604
46870W        W89808   9.261  22.272  26.149 -0.0047  0.0552 -0.4609
46871W        W89809   9.359  24.259  27.016 -0.0093  0.2563 -0.1404
46872W        W89810  10.134  24.909  25.475 -0.0073  0.1295  0.0367
46873W        W89811  10.554  24.668  27.415 -0.3662  0.0618  0.1104
46874W        W89812   7.103  22.166  26.470  0.3953  0.1885  0.0020
46875W        W89813   9.544  23.111  27.347  0.3093  0.1276 -0.1671
46876W        W89814   9.649  22.607  26.344 -0.0655  0.1513  0.1974
46877W        W89815   6.787  20.987  24.786  0.1118 -0.3972  0.0768
46878W        W89816   7.395  23.826  23.952 -0.0144  0.0018  0.3072
46879W        W89817   7.234  25.435  28.000 -0.1772  0.0389 -0.0315
46880W        W89818   7.301  22.257  27.395 -0.0495 -0.2251  0.0548
46881W        W89819   8.663  25.374  24.899  0.2673 -0.0584 -0.1261
46882W        W89820   9.024  25.482  25.317  0.2232  0.0368 -0.2428
46883W        W89821   9.370  24.738  25.755 -0.0726  0.0130 -0.0148
46884W        W89822  10.803  24.635  28.297  0.1729 -0.1364  0.2476
46885W        W89823   7.844  23.567  26.077 -0.0838  0.3064  0.0540
46886W        W89824   9.499  23.651  26.523 -0.2054  0.2846 -0.1361
46887W        W89825   7.551  26.495  23.600  0.1190 -0.0439 -0.3071
46888W        W89826   9.360  25.870  23.715 -0.1211 -0.0720 -0.0069
46889W        W89827   7.959  24.125  25.732  0.1456  0.1927 -0.4039
46890W        W89828  11.376  24.856  27.392 -0.0580  0.3792  0.0292
46891W        W89829   8.569  24.123  23.734  0.5905 -0.1753 -0.2104
46892W        W89830  11.142  24.962  26.921 -0.1382  0.1662 -0.0209
46893W        W89831  10.873  21.603  24.910 -0.0197  0.2527 -0.4107
46894W        W89832  10.631  24.332  28.027 -0.0637 -0.1297 -0.1913
46895W        W89833  10.204  22.999  26.485  0.0252 -0.1725 -0.0464
46896W        W89834   7.780  21.817  24.952 -0.1444  0.0584 -0.0060
46897W        W89835   8.022  22.240  26.704 -0.1203 -0.0823 -0.0589
46898W        W89836  11.551  21.747  26.230 -0.1079 -0.2496  0.0662
46899W        W89837   8.689  23.684  27.078  0.1088 -0.3856 -0.2380
46900W        W89838  10.320  26.071  24.619  0.3198  0.0554 -0.1657
46901W        W89839   8.136  22.367  25.404 -0.2227 -0.1666  0.3295
46902W        W89840  10.240  23.239  25.936  0.2438 -0.1114  0.1854
46903W        W89841  10.984  21.459  27.777  0.2834 -0.1579 -0.2087
46904W        W89842   8.510  23.174  23.844 -0.0286  0.0344  0.1932
46905W        W89843  10.401  22.838  26.977 -0.3842  0.1240 -0.0613
46906W        W89844   8.260  24.867  25.309 -0.0031 -0.1293 -0.2537
46907W        W89845   7.692  24.599  26.103  0.4184 -0.0767  0.3385
46908W        W89846   8.161  24.146  26.719  0.0833 -0.3657 -0.0370
46909W        W89847   6.342  23.071  25.696  0.0140 -0.0428  0.0522
46910W        W89848  10.128  24.118  25.588 -0.1358 -0.3359  0.0428
46911W        W89849   9.908  23.931  26.555  0.1756  0.2200  0.0005
46912W        W89850  12.302  21.489  28.269  0.1479 -0.0836 -0.0897
46913W        W89851   9.056  23.878  25.782  0.1573 -0.3836 -0.1430
46914W        W89852  10.539  21.619  25.356  0.0178  0.0130  0.1925
46915W        W89853  10.109  24.534  27.078 -0.0017 -0.0977  0.0242
46916W        W89854   8.043  21.764  27.483  0.2244 -0.0196  0.2236
46917W        W89855   8.193  23.927  24.937  0.1019 -0.2906  0.1122
46918W        W89856  11.837  23.219  25.842  0.2679 -0.4072  0.0777
46919W        W89857   9.047  23.795  24.008 -0.1366  0.0158  0.0437
46920W        W89858  10.366  24.671  28.459  0.1439  0.0760  0.0105
46921W        W89859   7.432  20.482  25.273  0.5119  0.0761 -0.0589
46922W        W89860  10.281  22.783  24.192  0.0482 -0.0534  0.2664
46923W        W89861   8.106  22.865  25.516 -0.1330 -0.0818  0.3273
46924W        W89862   9.524  22.466  26.784 -0.1943 -0.2331  0.0197
46925W        W89863  11.156  24.327  28.188  0.2832 -0.1120 -0.1609
46926W        W89864   9.274  21.801  25.454  0.0798 -0.0266  0.0965
46927W        W89865   9.155  24.791  24.250 -0.2766 -0.0300 -0.1350
46928W        W89866  10.977  24.559  25.629  0.0060  0.1715 -0.1629
46929W        W89867   8.600  25.171  23.478 -0.1235 -0.3255  0.1931
46930W        W89868  10.389  24.553  25.719  0.1486 -0.3299  0.3103
46931W        W89869  10.884  25.148  25.063  0.2320 -0.3854  0.1751
46932W        W89870   9.458  21.566  27.131 -0.0569  0.3125 -0.2366
46933W        W89871  11.297  24.924  25.831  0.2012 -0.1216  0.2190
46934W        W89872  11.832  22.990  27.220  0.1823  0.2313 -0.4025
46935W        W89873   8.901  20.967  25.726 -0.0801 -0.0943 -0.0564
46936W        W89874   9.379  21.751  26.323 -0.0366  0.0548 -0.1798
46937W        W89875   7.856  25.482  24.727  0.1598  0.3132  0.0217
46938W        W89876  11.863  23.200  26.325  0.2423 -0.1948 -0.0362
46939W        W89877   9.497  22.039  28.052 -0.2161  0.0269  0.2426
46940W        W89878   7.935  26.135  23.542 -0.1579  0.0060 -0.1110
46941W        W89879  11.649  21.999  27.243 -0.1940 -0.0102  0.0717
46942W        W89880  10.294  23.808  27.465  0.0850 -0.1288  0.0053
46943W        W89881   8.218  23.595  27.468 -0.2688 -0.0548 -0.0063
46944W        W89882   7.384  24.472  22.500 -0.0427 -0.1585  0.2278
46945W        W89883  10.162  24.310  27.618 -0.1849  0.1856 -0.0228
46946W        W89884   8.356  23.903  25.843  0.2140  0.2536  0.0203
46947W        W89885   8.304  24.734  25.822  0.0494  0.3512 -0.0896
46948W        W89886  10.901  25.654  26.026 -0.2883  0.2939  0.0027
46949W        W89887   8.573  23.822  25.422 -0.5251 -0.1474 -0.1294
46950W        W89888  10.489  25.040  25.820  0.0106 -0.0128  0.3254
46951W        W89889   8.190  20.873  25.973 -0.0469 -0.1601  0.0225
46952W        W89890  11.885  21.438  25.062  0.5693 -0.2117  0.2143
46953W        W89891  10.303  22.339  24.603  0.1420  0.0714  0.0722
46954W        W89892   8.994  23.279  26.863 -0.0857  0.0072  0.1329
46955W        W89893   7.597  22.622  24.175 -0.0155  0.0019 -0.0016
46956W        W89894   7.652  25.128  23.586 -0.0375 -0.0745 -0.1423
46957W        W89895   8.193  24.348  26.106 -0.0050 -0.1190 -0.0497
46958W        W89896   8.865  21.973  27.568 -0.2481 -0.0300  0.0853
46959W        W89897   8.814  22.858  27.052 -0.2255 -0.0248  0.3826
46960W        W89898   8.466  22.400  26.414 -0.0954 -0.2573 -0.0745
46961W        W89899   7.878  21.720  25.949 -0.0833  0.1763  0.0296
46962W        W89900  10.427  23.963  23.937 -0.3136  0.0264 -0.0006
46963W        W89901   9.061  22.233  25.690 -0.2463  0.0168 -0.1062
46964W        W89902   6.538  21.897  23.830 -0.0412  0.0620  0.1845
46965W        W89903  10.157  24.475  25.192  0.3156  0.0178 -0.2146
46966W        W89904  11.815  24.102  25.274  0.0537 -0.1910  0.3034
46967W        W89905   8.843  22.643  26.067 -0.0781 -0.1357 -0.0245
46968W        W89906  10.913  24.067  26.929  0.1475 -0.3074  0.1776
46969W        W89907   7.922  24.119  23.180  0.0657 -0.0534  0.1495
46970W        W89908   9.497  22.835  27.780 -0.0227  0.0417 -0.0822
46971W        W89909   8.605  21.489  27.590  0.0915  0.0550  0.1720
46972W        W89910   6.448  21.513  21.527  0.0171  0.1001 -0.2397
46973W        W89911  10.263  22.908  25.535  0.1571 -0.0648  0.0220
46974W        W89912   9.598  24.080  25.592 -0.3352  0.0387  0.0604
46975W        W89913  10.104  26.336  23.437  0.2980 -0.1448 -0.0446
46976W        W89914   8.201  23.883  26.312 -0.0170  0.2142 -0.0979
46977W        W89915   9.088  25.593  26.040 -0.1456  0.3420 -0.0752
46978W        W89916   7.825  22.124  27.258  0.1395 -0.2539  0.1002
46979W        W89917   8.491  25.676  25.267  0.1318 -0.0774 -0.1521
46980W        W89918   8.100  23.103  27.383 -0.0164 -0.3401  0.1224
46981W        W89919  10.709  24.200  25.398 -0.2551  0.2882 -0.0566
46982W        W89920  12.821  20.099  26.385 -0.2225 -0.3504  0.0227
46983W        W89921   9.004  22.888  25.631  0.2433  0.0180 -0.1389
46984W        W89922   6.677  21.291  27.695  0.4471  0.1946  0.0162
46985W        W89923   9.051  24.155  27.868  0.0430  0.0573  0.2476
46986W        W89924  10.999  25.627  25.213  0.0216 -0.1967 -0.1600
46987W        W89925   7.830  22.230  25.777 -0.2837 -0.1677  0.1871
46988W        W89926   8.977  21.807  24.558 -0.1909  0.0225 -0.0114
46989W        W89927   9.566  24.623  24.495 -0.2433 -0.0829 -0.0101
46990W        W89928   7.707  22.754  25.897  0.2446 -0.1801 -0.0521
46991W        W89929   9.063  24.071  25.361  0.1401 -0.0017 -0.2522
46992W        W89930   9.603  23.649  27.585  0.3204  0.3423 -0.0269
46993W        W89931   8.885  26.583  26.345  0.2150  0.0113 -0.0338
46994W        W89932  10.486  24.207  27.166 -0.0726  0.1635  0.0115
46995W        W89933   7.432  23.843  24.839 -0.3554  0.0519 -0.1823
46996W        W89934  12.799  22.998  24.300 -0.0802  0.1256  0.0926
46997W        W89935  10.875  24.816  27.786  0.1187 -0.0045  0.0794
46998W        W89936  11.820  25.811  27.977  0.3580 -0.0097 -0.0177
46999W        W89937   9.620  24.603  27.259  0.0286 -0.0373 -0.1697
47000W        W89938   9.713  25.076  27.040  0.0961  0.3150 -0.1082
47001W        W89939   6.003  21.908  25.553  0.0436 -0.0564  0.1327
47002W        W89940   8.236  23.671  26.807  0.1447 -0.0510  0.0410
47003W        W89941   9.969  22.842  25.983  0.1688  0.0213 -0.1523
47004W        W89942  10.947  22.578  25.924  0.3512 -0.0749  0.1974
47005W        W89943   8.403  20.967  26.596  0.0476 -0.0816  0.0115
47006W        W89944   8.200  21.755  24.637  0.2344 -0.0741  0.1940
47007W        W89945   8.344  24.653  27.022 -0.0765  0.1280 -0.0688
47008W        W89946   9.956  24.814  26.691  0.2365  0.0339 -0.3739
47009W        W89947   8.335  22.562  29.415  0.0849  0.1405 -0.1401
47010W        W89948   7.672  22.531  28.623 -0.0621 -0.1555  0.1044
47011W        W89949   9.052  21.410  28.456 -0.0852 -0.1162 -0.0032
47012W        W89950  11.694  22.528  28.196  0.0649 -0.0349 -0.0611
47013W        W89951   7.461  22.638  29.052  0.1292  0.0534  0.0624
47014W        W89952  10.958  25.338  27.794 -0.0731  0.2503  0.2032
47015W        W89953   7.014  21.345  29.323  0.0858  0.2374 -0.3372
47016W        W89954  10.384  25.261  29.576 -0.0982 -0.1971  0.2556
47017W        W89955  10.316  23.603  30.041  0.0228 -0.1583  0.0364
47018W        W89956   9.915  23.225  27.716 -0.0067  0.0348 -0.1995
47019W        W89957   8.873  23.553  29.683 -0.2819 -0.0049  0.2057
47020W        W89958   9.881  25.408  30.581 -0.0010  0.0958  0.2444
47021W        W89959   8.013  21.548  29.332 -0.1226 -0.0173  0.1462
47022W        W89960   7.312  20.674  29.432  0.3057  0.0305 -0.0377
47023W        W89961  11.072  22.390  29.601  0.0301 -0.0521 -0.3981
47024W        W89962   8.562  22.945  28.845 -0.1220 -0.0339  0.2256
47025W        W89963   8.890  23.030  29.844 -0.0603 -0.2804  0.3696
47026W        W89964   8.336  22.420  28.957 -0.0664  0.0984  0.0388
47027W        W89965   9.548  24.915  28.594  0.0686 -0.2429  0.1612
47028W        W89966   7.289  23.484  30.869 -0.0583 -0.0004  0.2947
47029W        W89967  10.622  21.891  31.057 -0.1037 -0.2959 -0.0744
47030W        W89968   7.550  24.719  28.257  0.5274  0.1427 -0.1391
47031W        W89969   7.429  23.031  28.003  0.4283  0.0605  0.1480
47032W        W89970   6.327  22.217  29.809  0.2391  0.1259 -0.3433
47033W        W89971   7.954  22.576  29.830 -0.1172  0.0333 -0.0029
47034W        W89972  11.755  21.923  29.607 -0.0535  0.1411 -0.4050
47035W        W89973  10.229  23.337  29.555  0.3235  0.0207  0.0523
47036W        W89974   9.649  24.570  29.713 -0.3060  0.0744 -0.2617
47037W        W89975   9.999  23.932  28.926 -0.1607 -0.1180  0.0793
47038W        W89976   9.277  21.872  29.305 -0.1424  0.0504 -0.2848
47039W        W89977   7.591  24.127  30.194  0.0862  0.0352 -0.2964
47040W        W89978   8.105  25.212  29.049  0.3272 -0.1459  0.0917
47041W        W89979   9.979  23.459  28.201  0.1766 -0.2991 -0.2055
47042W        W89980  11.308  24.807  28.260  0.0582  0.1916 -0.1681
47043W        W89981  10.653  23.241  30.872  0.0402  0.0762  0.2784
47044W        W89982   9.055  25.201  31.291 -0.2161  0.1334 -0.0747
47045W        W89983   8.652  23.559  28.945 -0.3904  0.0904  0.1918
47046W        W89984   9.465  25.372  31.482  0.2890  0.3409  0.1327
47047W        W89985   8.654  24.982  30.623 -0.0677  0.4078  0.0705
47048W        W89986   9.483  25.205  30.031  0.2145  0.3017  0.1051
47049W        W89987   9.645  22.568  28.210  0.0039  0.0430  0.1913
47050W        W89988   9.841  24.155  27.297  0.1397  0.0866 -0.0386
47051W        W89989   9.645  23.761  29.348 -0.0151 -0.0637 -0.0021
47052W        W89990   8.914  23.444  30.214 -0.0389  0.0316  0.0228
47053W        W89991   8.273  23.758  29.437 -0.1386 -0.0938  0.4905
47054W        W89992  10.046  22.028  31.885  0.0238 -0.1522  0.1632
47055W        W89993   9.351  24.459  28.716  0.0159  0.1489  0.1167
47056W        W89994  10.946  22.487  27.481  0.0137  0.0331 -0.0771
47057W        W89995   9.334  21.994  26.865  0.0961  0.1886  0.2437
47058W        W89996  11.105  22.567  28.403  0.0501 -0.4454 -0.0275
47059W        W89997   8.058  22.937  29.516 -0.0412  0.2846 -0.2253
47060W        W89998   8.353  24.359  29.774 -0.4672  0.0004 -0.0552
47061W        W89999   7.834  22.469  29.376  0.1175  0.2214  0.0152
47062W        W90000   9.491  22.772  30.634  0.0119  0.1506 -0.0765
47063W        W90001  10.382  23.765  28.198  0.2587  0.1211 -0.1458
47064W        W90002   9.225  21.818  30.033  0.1414 -0.0093 -0.0728
47065W        W90003   8.783  24.408  30.014 -0.0988 -0.1196  0.2511
47066W        W90004   7.973  22.101  30.404 -0.1920  0.1366 -0.0974
47067W        W90005  11.157  23.428  27.781  0.1428 -0.0785  0.1374
47068W        W90006  11.059  24.862  29.671 -0.2279  0.1104 -0.1210
47069W        W90007  10.056  24.314  28.168  0.0175  0.1686  0.4044
47070W        W90008   7.830  22.919  28.265  0.1546  0.3206 -0.0225
47071W        W90009   8.694  23.602  31.190  0.0331 -0.1967  0.1597
47072W        W90010   6.684  21.952  30.237 -0.1473 -0.0960  0.3200
47073W        W90011   9.753  21.858  27.562  0.0345 -0.2955  0.3454
47074W        W90012  10.899  24.107  31.794  0.2732  0.1066 -0.1793
47075W        W90013   8.685  25.369  31.613 -0.4338  0.1326 -0.2422
47076W        W90014  11.337  23.244  30.593  0.4222 -0.4405 -0.1074
47077W        W90015   9.378  24.601  29.216  0.3858 -0.1040 -0.1003
47078W        W90016  10.681  23.798  28.822 -0.2834 -0.1618  0.0085
47079W        W90017   9.831  23.849  28.415  0.0503 -0.0769 -0.0478
47080W        W90018  10.304  21.536  28.912 -0.0122  0.3151 -0.1884
47081W        W90019   9.079  21.347  30.795  0.2432 -0.2130  0.0625
47082W        W90020   8.331  23.120  28.219  0.0954  0.0537  0.2052
47083W        W90021   7.877  23.341  27.799 -0.0492 -0.0059  0.1200
47084W        W90022  11.099  23.265  29.582  0.1505 -0.2938 -0.1044
47085W        W90023   9.991  22.926  27.328 -0.1920  0.1123  0.1117
47086W        W90024   7.613  24.760  29.584 -0.1227 -0.1483  0.0647
47087W        W90025   9.643  22.156  29.883  0.1957 -0.1155 -0.0916
47088W        W90026   9.776  23.780  30.312 -0.0281  0.1504  0.0419
47089W        W90027   6.790  24.728  27.612  0.0283  0.0939  0.1159
47090W        W90028   9.008  23.994  29.876 -0.1007  0.1826 -0.1418
47091W        W90029   8.511  23.546  28.471  0.0667  0.0068  0.1264
47092W        W90030   8.008  22.578  30.334  0.0991  0.1439  0.2763
47093W        W90031  10.132  24.740  29.706 -0.0694 -0.2711 -0.2404
47094W        W90032  11.678  22.021  27.775  0.2200 -0.1969 -0.0441
47095W        W90033   9.055  23.228  30.752  0.0797  0.0599  0.1557
47096W        W90034  11.674  22.310  29.229 -0.0895 -0.1761 -0.2527
47097W        W90035   8.147  22.856  27.884 -0.1273 -0.2740  0.6292
47098W        W90036  10.069  25.216  27.890  0.0902 -0.2654  0.1107
47099W        W90037  11.198  23.747  27.374 -0.1725  0.1383 -0.2560
47100W        W90038  10.997  24.500  27.108  0.3254  0.0616 -0.0472
47101W        W90039   6.771  21.578  30.913  0.1710 -0.1107 -0.0965
47102W        W90040   7.655  21.857  29.989 -0.1606  0.1497 -0.2780
47103W        W90041   8.580  23.135  30.661 -0.0207 -0.0191 -0.0660
47104W        W90042   8.255  21.618  28.412 -0.1522 -0.5672  0.4134
47105W        W90043  10.123  22.208  31.027 -0.2151  0.0980 -0.0547
47106W        W90044   6.478  20.994  28.094  0.1488 -0.1873 -0.0631
47107W        W90045   8.878  22.569  28.908  0.2409  0.2564  0.2810
47108W        W90046   8.666  22.290  28.557  0.1334  0.1031 -0.1946
47109W        W90047   8.186  23.785  28.881  0.0314 -0.0327 -0.1504
47110W        W90048  10.142  22.809  31.621 -0.0532 -0.2279  0.3141
47111W        W90049  10.011  24.912  28.772 -0.0719 -0.0526 -0.1314
47112W        W90050  12.976  23.980  30.042 -0.0445 -0.3473  0.3271
47113W        W90051  10.756  25.559  29.186 -0.2515  0.1613 -0.1384
47114W        W90052   8.321  22.321  31.922  0.2919  0.1464 -0.0998
47115W        W90053   8.185  21.355  27.980  0.0005 -0.1929 -0.0138
47116W        W90054   8.814  25.231  26.810 -0.2148  0.3946  0.0328
47117W        W90055   9.273  24.655  30.051 -0.0232 -0.0902 -0.0332
47118W        W90056   8.386  21.898  26.565 -0.2145  0.6134 -0.2318
47119W        W90057   9.946  26.042  30.917 -0.0452 -0.0846 -0.2018
47120W        W90058   8.726  22.404  27.636 -0.0095  0.1573  0.1639
47121W        W90059   7.148  23.041  30.383  0.1635 -0.0647 -0.0775
47122W        W90060   9.434  21.911  31.211 -0.1289 -0.3932  0.2356
47123W        W90061  11.155  21.672  29.676 -0.0487 -0.2896 -0.1223
47124W        W90062   9.082  23.308  29.103 -0.0172 -0.0479 -0.3699
47125W        W90063   6.852  23.675  29.371 -0.1933  0.0100  0.1345
47126W        W90064   9.888  25.655  29.112 -0.2290  0.2147  0.0248
47127W        W90065   7.255  24.945  27.927  0.1962 -0.3325  0.0539
47128W        W90066   7.131  23.439  27.891  0.1599  0.0344  0.1672
47129W        W90067   9.304  25.331  28.388 -0.1427  0.0723 -0.0736
47130W        W90068  10.511  22.634  30.247  0.1212  0.2639 -0.0420
47131W        W90069   8.205  23.837  31.141  0.0355  0.0753 -0.1762
47132W        W90070   9.631  24.125  31.303  0.2486 -0.3206 -0.1722
47133W        W90071   7.628  21.354  28.039  0.1024 -0.1538  0.3026
47134W        W90072   8.517  25.140  31.062 -0.2026  0.1344  0.1725
47135W        W90073   8.394  21.983  27.853 -0.0639  0.2705  0.2190
47136W        W90074  10.664  22.122  28.434 -0.3206 -0.2334 -0.1595
47137W        W90075   9.759  23.439  30.764 -0.0499  0.1875  0.0742
47138W        W90076  10.832  23.974  28.328  0.2829 -0.4767  0.0774
47139W        W90077  10.608  22.939  28.482  0.1567 -0.0683 -0.1532
47140W        W90078   8.978  21.784  28.783  0.0497 -0.0953  0.1707
47141W        W90079   7.991  24.112  31.495 -0.2951 -0.3729 -0.2598
47142W        W90080  11.620  24.069  29.359 -0.1368 -0.1484  0.6163
47143W        W90081   9.890  24.228  29.403 -0.3333 -0.0046  0.1692
47144W        W90082   8.618  21.429  28.726 -0.0166 -0.1868  0.0289
47145W        W90083  11.817  23.660  27.907  0.4072  0.1696 -0.0628
47146W        W90084   7.317  25.110  30.859 -0.1078  0.0705  0.3374
47147W        W90085  11.062  24.513  30.775 -0.1832 -0.1685 -0.0500
47148W        W90086  10.607  24.877  29.897 -0.0598  0.0095  0.1485
47149W        W90087   8.751  21.228  29.912 -0.0956  0.0427 -0.0776
47150W        W90088   9.904  23.445  27.276  0.0936 -0.4460 -0.0426
47151W        W90089   9.183  22.281  29.814  0.3568  0.2693 -0.2490
47152W        W90090   8.072  24.224  29.231  0.0853  0.5799  0.0699
47153W        W90091  10.465  22.391  29.766 -0.1446  0.0097 -0.1123
47154W        W90092   9.709  22.854  30.135  0.0913 -0.0498 -0.0471
47155W        W90093   7.963  22.386  30.833 -0.0962  0.1213  0.0585
47156W        W90094  12.011  23.799  30.317  0.0548 -0.1735 -0.2134
47157W        W90095   9.672  23.061  28.196 -0.0813 -0.2351  0.0528
47158W        W90096   9.951  20.731  28.300  0.1100 -0.2398  0.1568
47159W        W90097   7.700  22.799  27.671 -0.1699  0.1342 -0.0709
47160W        W90098  10.009  22.729  31.034  0.0348  0.2416  0.2975
47161W        W90099   7.293  22.811  31.134  0.1364 -0.1897  0.0692
47162W        W90100   7.895  24.563  30.194  0.1848 -0.0455 -0.0938
47163W        W90101   9.883  24.522  30.992 -0.1145 -0.0000  0.0547
47164W        W90102  10.327  22.508  28.404 -0.2006  0.0066  0.0024
47165W        W90103   9.872  21.800  31.378  0.0125  0.0276 -0.2529
47166W        W90104   8.694  22.129  29.184 -0.0051 -0.1976 -0.0703
47167W        W90105   9.106  23.809  26.912  0.0576  0.0142  0.1578
47168W        W90106   9.012  23.718  28.155  0.0802  0.1873 -0.2563
47169W        W90107   7.984  21.153  30.390 -0.0726  0.0153 -0.0472
47170W        W90108   9.964  24.303  29.992 -0.0469 -0.1656 -0.0648
47171W        W90109   9.491  23.873  28.001  0.2696  0.3909 -0.1713
47172W        W90110  10.654  23.277  29.834 -0.3127 -0.3806 -0.0788
47173W        W90111   8.368  24.006  28.482  0.0702  0.1188  0.2075
47174W        W90112  10.621  22.380  29.233  0.0954  0.1014 -0.1203
47175W        W90113   8.063  24.758  29.332 -0.0739  0.1007  0.3594
47176W        W90114   8.228  20.684  27.913  0.1061  0.1445 -0.0997
47177W        W90115   6.222  21.835  28.788 -0.1348 -0.0758 -0.0240
47178W        W90116  10.625  22.733  28.014 -0.0644  0.1786 -0.2592
47179W        W90117  12.134  22.475  27.948  0.0754 -0.0400  0.2564
47180W        W90118   7.388  22.083  29.035 -0.0229 -0.0283  0.1259
47181W        W90119  10.635  22.324  30.656  0.0964 -0.0568  0.0097
47182W        W90120   8.149  25.338  29.906 -0.0556  0.0076 -0.0990
47183W        W90121   9.335  23.613  29.816 -0.2626  0.2515  0.0356
47184W        W90122   9.432  21.934  28.550 -0.0580 -0.1241 -0.3797
47185W        W90123  11.794  24.524  29.532 -0.0585  0.2754  0.0559
47186W        W90124  10.017  24.691  31.463  0.1815  0.3131  0.2741
47187W        W90125   7.444  22.139  28.273 -0.2659 -0.0128 -0.2496
47188W        W90126  10.452  22.885  31.185 -0.2030  0.2122  0.0268
47189W        W90127   9.427  23.634  28.897  0.3800 -0.0485  0.0392
47190W        W90128   8.544  24.612  29.283  0.1486 -0.1445  0.0768
47191W        W90129  10.463  23.178  30.365 -0.3540 -0.0374 -0.0413
47192W        W90130   8.594  22.457  26.908  0.3686 -0.0034  0.1562
47193W        W90131   9.421  24.996  29.540  0.3514  0.1934  0.1485
47194W        W90132   9.607  22.790  31.428  0.2539 -0.0164  0.1066
47195W        W90133  10.220  23.401  31.777 -0.0284  0.1429 -0.1355
47196W        W90134   9.643  21.725  29.598  0.3209  0.0795 -0.1305
47197W        W90135   6.738  21.850  27.852 -0.0736  0.0055  0.0009
47198W        W90136   9.845  24.854  30.106 -0.1156  0.2647 -0.0965
47199W        W90137  10.304  24.603  30.169  0.1240  0.2337  0.0771
47200W        W90138   8.781  22.812  30.291  0.0096 -0.0179  0.0252
47201W        W90139   9.303  24.343  30.960  0.0761  0.0574 -0.1407
47202W        W90140   9.924  21.393  29.349 -0.1470 -0.2618 -0.1913
47203W        W90141  11.390  25.650  27.740  0.3113 -0.0011 -0.1297
47204W        W90142   9.975  23.270  31.293 -0.0528 -0.0620 -0.1908
47205W        W90143   7.879  22.426  28.148  0.1019  0.2481  0.2021
47206W        W90144   7.102  22.236  28.595  0.1859  0.2291 -0.1208
47207W        W90145   9.803  25.610  28.142  0.0626 -0.1321 -0.0595
47208W        W90146   9.346  22.113  30.617  0.0344  0.1388  0.0221
47209W        W90147   8.707  24.034  29.483  0.4277 -0.0936 -0.0599
47210W        W90148   7.850  23.719  28.488  0.0107 -0.0067 -0.0473
47211W        W90149   7.535  22.799  30.258 -0.0882  0.2987  0.2228
47212W        W90150   8.740  21.836  28.351 -0.2087  0.0834 -0.0990
47213W        W90151   9.473  23.497  28.385 -0.4294  0.0682  0.1308
47214W        W90152   9.842  22.985  29.652  0.0966  0.1463 -0.3269
47215W        W90153  10.384  22.165  30.192 -0.1718  0.1981  0.0363
47216W        W90154  10.415  22.579  27.560  0.0505 -0.0676 -0.2272
47217W        W90155  10.566  23.384  31.435 -0.1918 -0.3228 -0.1998
47218W        W90156   8.914  22.218  30.207  0.0461 -0.1046  0.2136
47219W        W90157  10.049  25.190  29.190 -0.0545 -0.0908  0.0232
47220W        W90158   7.807  22.516  31.291  0.2090  0.0545  0.0292
47221W        W90159  10.415  24.958  31.356  0.0262  0.0091 -0.0093
47222W        W90160   7.110  22.575  30.106 -0.0570  0.0073 -0.1510
47223W        W90161  10.106  22.994  28.531  0.1591  0.2857 -0.1609
47224W        W90162   7.133  21.684  28.173  0.1713 -0.2470 -0.0247
47225W        W90163   9.011  24.422  29.453  0.1046 -0.1729  0.3406
47226W        W90164  10.730  24.815  30.409  0.0100 -0.1636  0.0847
47227W        W90165   9.794  25.416  28.635  0.4413 -0.0850  0.1148
47228W        W90166  10.395  22.838  29.430 -0.1692  0.0749  0.2205
47229W        W90167   9.217  23.033  30.266  0.0522 -0.0418  0.2738
47230W        W90168  10.421  24.370  29.673 -0.2411 -0.2692  0.3711
47231W        W90169  10.338  24.176  29.188 -0.0634  0.0351  0.2093
47232W        W90170   9.335  24.001  28.524  0.0621  0.1285  0.1408
47233W        W90171   7.595  23.237  30.495  0.0481  0.1770  0.2621
47234W        W90172  10.398  23.373  28.527 -0.2592 -0.2719 -0.0573
47235W        W90173  10.027  22.514  29.480 -0.1552  0.1945 -0.0074
47236W        W90174   9.820  22.201  30.440  0.3924  0.0758 -0.0589
47237W        W90175  10.775  21.991  29.802 -0.0503 -0.1881 -0.2191
47238W        W90176   9.342  22.837  29.805 -0.1729  0.0104 -0.1821
47239W        W90177   8.539  23.081  31.531 -0.0653 -0.0683  0.2978
47240W        W90178  11.027  26.071  30.506  0.4737 -0.0701  0.1725
47241W        W90179  11.001  22.141  27.880  0.1183 -0.0769  0.1302
47242W        W90180  12.040  23.342  29.212  0.2720  0.2464  0.1946
47243W        W90181  10.720  24.243  26.520  0.2946  0.1683 -0.2622
47244W        W90182   9.542  21.583  28.130  0.2457 -0.0796  0.2765
47245W        W90183   7.740  23.467  29.017  0.1681  0.1362  0.5242
47246W        W90184  11.006  22.987  30.240  0.0596 -0.1386 -0.1099
47247W        W90185   8.221  21.068  27.473  0.0896  0.1957 -0.3335
47248W        W90186   9.560  20.548  30.950  0.2652  0.2056  0.2723
47249W        W90187   9.831  24.748  28.171 -0.1114 -0.2463 -0.3220
47250W        W90188  10.629  25.539  30.056  0.0254 -0.0481 -0.0300
47251W        W90189  10.172  22.612  28.938 -0.1183  0.3541 -0.1362
47252W        W90190   7.025  22.424  29.153 -0.0004  0.0387  0.0280
47253W        W90191   9.434  25.466  30.960 -0.2529  0.0439  0.0153
47254W        W90192   9.132  21.148  27.118  0.0373  0.1018 -0.0160
47255W        W90193   8.848  23.995  28.681 -0.0299 -0.0036 -0.0953
47256W        W90194   9.148  24.116  31.385  0.1224  0.1502 -0.2634
47257W        W90195  11.440  22.502  30.833 -0.0894 -0.1992  0.1507
47258W        W90196   9.152  23.040  28.208 -0.0933 -0.0236  0.2203
47259W        W90197   9.598  21.082  29.719  0.1844 -0.2353 -0.1285
47260W        W90198   9.066  24.398  28.281  0.0184  0.1197 -0.1343
47261W        W90199  10.016  23.070  29.138  0.0408 -0.1794  0.0609
47262W        W90200   9.474  26.294  30.875 -0.0635  0.0827 -0.0757
47263W        W90201   7.471  26.053  31.004 -0.2650 -0.1316  0.3151
47264W        W90202   9.563  25.237  29.093 -0.1064 -0.0619 -0.2900
47265W        W90203   8.357  21.401  30.162 -0.0852 -0.3011  0.0160
47266W        W90204  10.798  21.888  30.322  0.2194 -0.3437 -0.1986
47267W        W90205   9.416  24.112  29.027  0.1399 -0.0217 -0.0419
47268W        W90206  12.039  22.864  31.224 -0.3647 -0.1619 -0.2153
47269W        W90207   9.336  24.022  30.404 -0.0020  0.0446  0.0709
47270W        W90208   9.042  23.423  28.590  0.2351 -0.1204  0.2751
47271W        W90209  10.380  25.153  30.258 -0.0264 -0.0261 -0.3776
47272W        W90210  10.684  24.279  28.731  0.1603  0.2002  0.1790
47273W        W90211   8.757  23.383  27.932 -0.2667  0.0378 -0.2901
47274W        W90212   6.162  23.343  31.944  0.1478  0.0767 -0.0776
47275W        W90213   9.125  23.377  31.415  0.0356  0.0929 -0.1086
47276W        W90214   9.861  24.699  29.258 -0.1773 -0.0621 -0.0841
47277W        W90215   8.216  22.080  29.365  0.0944  0.0206 -0.2341
47278W        W90216   9.977  24.777  27.588  0.2377  0.1588 -0.0254
47279W        W90217   7.703  23.898  29.395  0.0029 -0.1102 -0.2009
47280W        W90218   9.161  23.748  29.301 -0.0025  0.3142  0.2300
47281W        W90219   7.987  24.014  28.130 -0.1978 -0.2129 -0.2183
47282W        W90220  10.881  23.175  27.206  0.1016 -0.2092 -0.0298
47283W        W90221   9.116  22.864  27.420 -0.2557  0.0458  0.1724
47284W        W90222  10.063  25.574  31.170  0.0479  0.1932  0.0806
47285W        W90223   7.857  21.799  27.956  0.1363  0.1403 -0.2002
47286W        W90224   8.372  24.690  30.261  0.2417 -0.1719 -0.1509
47287W        W90225   7.525  23.734  28.032 -0.3902 -0.0995  0.2053
47288W        W90226  10.753  24.963  29.292 -0.0390 -0.1803  0.3733
47289W        W90227   8.763  25.297  28.157  0.0643 -0.0329  0.2704
47290W        W90228  11.571  24.605  30.780  0.0041  0.1479 -0.3396
47291W        W90229   9.815  21.973  27.024  0.1161 -0.0679 -0.0391
47292W        W90230  10.809  24.483  29.354  0.0930  0.1158  0.0363
47293W        W90231  10.293  23.584  29.126 -0.2883  0.1678 -0.1687
47294W        W90232   9.811  23.968  30.849  0.2485 -0.1610  0.0500
47295W        W90233   8.279  24.152  30.284 -0.0640 -0.3904  0.1729
47296W        W90234  10.065  21.638  28.109  0.5448  0.0231  0.0146
47297W        W90235   8.345  23.354  29.829 -0.0922  0.1131 -0.0981
47298W        W90236  11.804  21.453  30.398  0.0779  0.0810 -0.1311
47299W        W90237   8.254  25.557  31.213 -0.0030  0.0741 -0.0001
47300W        W90238  11.224  23.995  26.467  0.0845 -0.0719  0.2565
47301W        W90239   7.036  21.760  29.061 -0.1489 -0.1463 -0.2764
47302W        W90240   8.741  22.769  28.344  0.0853 -0.2385 -0.2783
47303W        W90241  11.217  21.221  29.365 -0.0967  0.4052 -0.0177
47304W        W90242  10.072  23.793  26.988 -0.1143 -0.2613  0.0174
47305W        W90243   9.579  23.607  31.234  0.2309 -0.1049 -0.0752
47306W        W90244   8.605  24.822  29.731  0.0328 -0.0462  0.2345
47307W        W90245   8.248  25.202  30.367 -0.1550 -0.0534 -0.2200
47308W        W90246   8.429  25.595  29.131 -0.1255  0.1941  0.0369
47309W        W90247   7.496  22.383  27.819 -0.0613 -0.2177  0.0440
47310W        W90248  10.822  22.829  29.704  0.0124  0.0304  0.3888
47311W        W90249   9.184  22.951  28.731 -0.0048 -0.0139 -0.2374
47312W        W90250  12.163  23.258  29.662 -0.4700 -0.2466 -0.0825
47313W        W90251   7.360  23.255  29.879 -0.1224 -0.1616 -0.0925
47314W        W90252  11.864  23.681  29.629 -0.4910 -0.1694  0.0133
47315W        W90253   9.790  23.335  30.095  0.1801  0.0297 -0.3019
47316W        W90254   8.106  24.791  30.670  0.4022 -0.1525  0.1965
47317W        W90255   9.186  23.289  27.769  0.1800  0.2372 -0.0450
47318W        W90256  11.442  24.096  30.841  0.0332  0.0931  0.0794
47319W        W90257   9.820  22.885  26.860 -0.0730  0.2752  0.3388
47320W        W90258  10.884  25.390  29.675  0.1280 -0.1596  0.1070
47321W        W90259   7.132  22.958  29.432  0.0651 -0.1030 -0.0129
47322W        W90260  10.006  22.756  27.849  0.2277 -0.0317 -0.0308
47323W        W90261   7.044  22.280  27.988 -0.1369 -0.1333  0.0232
47324W        W90262   9.410  24.130  29.579  0.1276 -0.1783  0.2581
47325W        W90263  12.052  24.883  30.284 -0.1669  0.2371 -0.1516
47326W        W90264   8.103  21.127  28.456 -0.2000 -0.2730  0.2259
47327W        W90265  10.248  23.528  26.330 -0.1164 -0.2074 -0.0577
47328W        W90266  10.733  23.516  29.395 -0.0775 -0.3207  0.1566
47329W        W90267   9.504  25.867  27.760  0.1389  0.1741 -0.1447
47330W        W90268  10.931  24.483  30.035  0.1639 -0.2562 -0.1370
47331W        W90269   9.838  24.395  28.641 -0.3012  0.3320 -0.3039
47332W        W90270   6.821  22.023  29.434 -0.0223  0.1158 -0.0917
47333W        W90271  11.069  24.287  31.248 -0.0574  0.1404 -0.3538
47334W        W90272  12.063  24.190  28.625 -0.1767 -0.0087 -0.2528
47335W        W90273   9.256  21.254  30.036  0.0055 -0.0625 -0.2127
47336W        W90274   7.511  22.325  30.127  0.2632 -0.1708 -0.0753
47337W        W90275   9.523  24.322  28.172  0.0412 -0.0738  0.0122
47338W        W90276  12.359  23.461  28.853  0.1348  0.0547 -0.0547
47339W        W90277  10.473  20.865  31.217 -0.0195 -0.1572  0.1307
47340W        W90278   8.042  24.401  27.438  0.3175 -0.1952 -0.1773
47341W        W90279  10.302  21.057  29.499 -0.0653 -0.0077  0.1142
47342W        W90280  10.193  23.607  30.551 -0.0364 -0.0385  0.1285
47343W        W90281   8.345  24.423  31.845  0.0463  0.0090  0.0683
47344W        W90282   7.439  23.389  28.376 -0.0950  0.0536  0.0314
47345W        W90283   9.441  23.244  29.495 -0.0590 -0.0190 -0.3072
47346W        W90284   9.942  23.921  27.841 -0.1244  0.0531 -0.0834
47347W        W90285   9.904  25.960  28.578 -0.2271 -0.4345 -0.1105
47348W        W90286  12.057  24.693  30.815  0.0609 -0.1707 -0.1269
47349W        W90287   9.196  22.485  28.436 -0.0436  0.0262  0.2513
47350W        W90288  10.756  25.522  28.523  0.1226 -0.3190  0.0162
47351W        W90289   9.339  22.388  28.934  0.0589 -0.1963 -0.0004
47352W        W90290  10.695  21.520  29.891  0.1290 -0.4300  0.0931
47353W        W90291  11.337  22.577  28.873 -0.0791 -0.0287  0.3125
47354W        W90292   7.312  23.707  31.795 -0.2009  0.0653 -0.0414
47355W        W90293   7.089  22.740  27.769 -0.1423  0.2899 -0.0037
47356W        W90294   9.145  23.964  27.384 -0.0459  0.1022 -0.1242
47357W        W90295   7.880  23.458  29.486 -0.0565 -0.2660  0.1796
47358W        W90296   8.965  21.256   0.752  0.0573  0.0146  0.1963
47359W        W90297   9.405  22.475   0.080 -0.1656 -0.1044  0.1318
47360W        W90298   7.127  22.106  29.887 -0.3057  0.0378  0.1439
47361W        W90299   7.916  22.067  28.513 -0.1325  0.2465  0.0763
47362W        W90300  11.337  23.712  28.238  0.0543 -0.0428 -0.2318
47363W        W90301   8.820  20.650  29.036  0.2956 -0.1350 -0.3938
47364W        W90302   6.459  21.231  29.643  0.1614  0.1356  0.1423
47365W        W90303  10.202  22.976  29.967 -0.0490 -0.0346 -0.1975
47366W        W90304   9.322  24.826  27.611  0.0153  0.1168 -0.1491
47367W        W90305   8.108  22.364  27.627  0.0233 -0.4787 -0.0958
47368W        W90306  11.742  24.085  29.929  0.2452  0.1508 -0.1385
47369W        W90307   6.732  24.123  27.471 -0.0409 -0.0696  0.1851
47370W        W90308   9.998  22.494  29.966 -0.2261  0.0191  0.3055
47371W        W90309   9.455  21.532  30.480 -0.0738 -0.0004 -0.0624
47372W        W90310   7.488  21.083  27.084  0.1811 -0.0594 -0.0388
47373W        W90311   9.471  22.379  29.444  0.1031  0.0815  0.1348
47374W        W90312   8.864  24.700  27.877 -0.0086 -0.0817  0.1292
47375W        W90313   9.428  25.827  28.374 -0.0267  0.1150  0.0843
47376W        W90314   8.693  23.152  29.405 -0.0344 -0.2835 -0.0440
47377W        W90315  11.094  24.811  31.320  0.1000 -0.0278  0.1114
47378W        W90316   6.254  22.046  30.728 -0.0926 -0.1386  0.0622
47379W        W90317   9.917  22.047  29.278 -0.2563 -0.3338 -0.1410
47380W        W90318   9.067  24.803  30.922  0.3106 -0.0924  0.1028
47381W        W90319  11.305  23.002  27.391 -0.0385 -0.4521 -0.3532
47382W        W90320  11.037  22.870  29.238  0.2078 -0.0116  0.0605
47383W        W90321  10.171  21.417  27.673  0.6097  0.1602  0.0643
47384W        W90322   8.323  22.560  31.476 -0.2237  0.4361  0.2524
47385W        W90323   8.399  23.516  30.268 -0.1476 -0.0269  0.1939
47386W        W90324  11.672  22.898  30.301  0.0824  0.2526 -0.0354
47387W        W90325   7.396  22.318  29.500  0.0156 -0.0377 -0.1580
47388W        W90326  11.158  22.114  28.726  0.0091  0.1182  0.0594
47389W        W90327  10.123  25.129  28.372 -0.2375  0.0440 -0.2594
47390W        W90328   7.524  22.611  30.761  0.1841 -0.1611 -0.0899
47391W        W90329   9.616  22.831  29.257 -0.3173 -0.0556 -0.0069
47392W        W90330   9.069  24.982  30.374 -0.0989 -0.0159  0.0789
47393W        W90331   9.826  23.859  29.830 -0.1151 -0.1696  0.0879
47394W        W90332  10.662  24.272  30.496 -0.1842  0.0229  0.1088
47395W        W90333   8.783  21.921  26.873  0.1552 -0.0299  0.1030
47396W        W90334  12.654  25.231  26.480  0.2856  0.0090 -0.0255
47397W        W90335  10.393  25.755   0.018 -0.1225 -0.3212  0.4004
47398W        W90336  10.287  26.511  29.955  0.1594  0.0391 -0.1505
47399W        W90337   9.179  26.113  30.327 -0.1501 -0.2074 -0.0757
47400W        W90338  11.368  23.283  30.076 -0.1392 -0.1958  0.0925
47401W        W90339   8.667  20.846  29.494  0.2098 -0.2937 -0.0079
47402W        W90340   7.595  23.082  27.272  0.0875 -0.0198  0.2614
47403W        W90341   8.867  24.871  28.470  0.2243  0.1979  0.3045
47404W        W90342  10.796  22.792  30.639  0.0163 -0.1888  0.2010
47405W        W90343   8.512  24.148  28.973 -0.1347 -0.1078  0.0429
47406W        W90344  10.153  22.106  27.648 -0.2910  0.1707  0.0735
47407W        W90345   8.965  25.315  30.736  0.1266  0.2330 -0.0643
47408W        W90346  10.290  23.904  29.635  0.0220 -0.0269 -0.3803
47409W        W90347  11.676  22.959  30.858 -0.0193  0.0745  0.2358
47410W        W90348  11.175  24.242   0.217  0.0471 -0.2309 -0.1387
47411W        W90349   9.357  21.515  31.924 -0.2671 -0.2454  0.0476
47412W        W90350   9.305  24.732  31.489 -0.1757  0.2360 -0.3516
47413W        W90351  10.302  24.351  31.808  0.0132 -0.0294  0.1974
47414W        W90352   8.252  24.318  30.963  0.2166 -0.0069  0.1086
47415W        W90353  11.724  22.834  31.777 -0.1909  0.0129 -0.1477
47416W        W90354   9.006  22.540  30.616 -0.3363 -0.1437  0.0500
47417W        W90355  10.906  22.484  31.083 -0.1908  0.2455 -0.2697
47418W        W90356  11.608  24.593  30.039  0.3005  0.2637 -0.0875
47419W        W90357  10.422  25.860  31.020 -0.3567  0.2532  0.1312
47420W        W90358   8.723  22.622  31.894 -0.0251 -0.0543  0.4259
47421W        W90359  11.063  23.642  30.706  0.0580 -0.0750 -0.2449
47422W        W90360   9.238  22.715  31.138  0.3468 -0.1194  0.1021
47423W        W90361  10.954  23.828   0.419  0.0985 -0.0878 -0.1081
47424W        W90362   7.042  25.675  30.948 -0.0864  0.1152  0.0029
47425W        W90363   9.182  24.138   0.397  0.0917 -0.2982  0.0430
47426W        W90364  10.929  23.777  31.184 -0.3204 -0.0638  0.2831
47427W        W90365   8.337  22.608   0.304 -0.0449 -0.1527  0.1957
47428W        W90366   8.102  22.999   0.440  0.0322 -0.0851 -0.1426
47429W        W90367   9.078  22.728   0.973  0.0528 -0.1745  0.0062
47430W        W90368   8.203  25.427   0.935  0.0592  0.3172 -0.0162
47431W        W90369  11.412  22.512   0.057 -0.1540 -0.1853  0.0744
47432W        W90370  10.111  24.197  31.336  0.0531 -0.0967 -0.4260
47433W        W90371   8.651  22.052  31.435  0.0528 -0.2090  0.1057
47434W        W90372  10.699  24.497   0.063  0.1009  0.0841  0.1438
47435W        W90373   8.328  23.290  31.039  0.0517  0.0561  0.3764
47436W        W90374   6.853  25.385  31.683 -0.3941 -0.0136  0.0287
47437W        W90375   9.095  24.431  30.488 -0.0185 -0.2119  0.2652
47438W        W90376   9.360  23.528  30.463 -0.1922 -0.0452  0.2536
47439W        W90377   9.686  24.356  30.476 -0.3393  0.2821 -0.0107
47440W        W90378   8.687  23.805   1.019 -0.1713  0.0947 -0.2071
47441W        W90379  10.248  25.769  30.415 -0.1181 -0.0842 -0.1038
47442W        W90380   9.368  23.729  31.732 -0.1470 -0.1008 -0.4703
47443W        W90381   6.882  22.682  31.544  0.2762  0.2516 -0.0456
47444W        W90382   9.098  22.856   0.213 -0.0091 -0.1086 -0.2378
47445W        W90383  10.720  24.666   0.840 -0.2130  0.1583  0.3597
47446W        W90384   9.661  24.756  31.849  0.2083 -0.1340  0.0145
47447W        W90385  10.475  23.991  31.561  0.0500 -0.0597 -0.4105
47448W        W90386   9.266  24.235  31.911 -0.0240  0.2002 -0.0476
47449W        W90387  11.169  22.865  31.019  0.0375 -0.3871  0.4634
47450W        W90388  10.191  23.538   1.526 -0.0238  0.0572 -0.2476
47451W        W90389   8.914  21.111  31.203  0.3418 -0.0146 -0.1067
47452W        W90390   8.926  25.630  30.268  0.2282  0.2085 -0.1552
47453W        W90391   9.337  21.439  31.368  0.2613 -0.1223  0.1728
47454W        W90392   9.160  22.885  31.613 -0.0386  0.1572  0.1011
47455W        W90393   8.915  21.511  30.315  0.2506  0.0602 -0.0895
47456W        W90394  10.164  24.249  30.667  0.1266 -0.3094 -0.2561
47457W        W90395  11.474  23.517  31.574  0.1799  0.1657  0.1411
47458W        W90396   7.817  24.947  31.151 -0.2369 -0.0605  0.0811
47459W        W90397  11.298  24.310  30.336 -0.2045 -0.2023 -0.2475
47460W        W90398  11.329  21.668  30.443  0.1567 -0.0060  0.0091
47461W        W90399  11.001  23.982  30.196  0.1305  0.0308  0.0035
47462W        W90400   8.614  24.456  30.619  0.3203  0.1464 -0.1866
47463W        W90401  10.114  22.587  30.544 -0.2184 -0.1004  0.2231
47464W        W90402  10.157  23.534   0.443  0.2167  0.1709  0.1338
47465W        W90403  11.857  23.790  30.826 -0.0697 -0.0705 -0.3709
47466W        W90404   8.759  23.986  30.321  0.2719  0.2590 -0.1496
47467W        W90405   9.577  25.873  30.625  0.2808  0.1016  0.0549
47468W        W90406   8.528  22.370  30.505 -0.2632  0.1826 -0.0114
47469W        W90407   7.622  22.156  31.753 -0.1893  0.0740  0.5702
47470W        W90408   9.509  23.130  31.066 -0.3021  0.1437 -0.2638
47471W        W90409   8.070  23.080  30.493  0.3093  0.1564 -0.2454
47472W        W90410   7.964  22.053  31.235 -0.3883  0.0174 -0.1025
47473W        W90411  10.675  24.514  31.446 -0.0144  0.3728  0.0149
47474W        W90412  11.306  23.661   0.037 -0.1412 -0.0428 -0.1811
47475W        W90413  11.590  24.108  31.930  0.1611 -0.0711  0.5066
47476W        W90414   7.934  27.647  18.000  0.0112 -0.2595  0.0660
47477W        W90415   8.399  27.568  17.615 -0.2111 -0.1744  0.1795
47478W        W90416   9.348  27.166  15.835 -0.1209  0.2441 -0.0807
47479W        W90417  11.633  28.523  16.247 -0.0724  0.0539  0.1991
47480W        W90418   8.527  26.587  17.476 -0.0216  0.1039 -0.0772
47481W        W90419  10.282  28.581  17.679  0.3489  0.2381  0.0835
47482W        W90420   8.288  26.872  19.678 -0.1213 -0.1583  0.3921
47483W        W90421   9.259  27.719  17.831 -0.1899  0.1707  0.0455
47484W        W90422  11.177  28.972  17.588 -0.1206 -0.3372  0.0065
47485W        W90423   9.166  26.992  16.402 -0.1189 -0.0696 -0.0874
47486W        W90424   8.429  26.818  18.705  0.1153 -0.1853 -0.0506
47487W        W90425   9.084  28.406  20.449  0.2371 -0.2470  0.0363
47488W        W90426   9.306  25.615  18.452 -0.2949 -0.0769  0.2064
47489W        W90427   7.013  24.412  18.016 -0.0536  0.1933 -0.3031
47490W        W90428  10.095  27.883  18.805  0.2654  0.1311 -0.1490
47491W        W90429   8.439  27.561  16.949  0.5801 -0.2121 -0.1728
47492W        W90430   8.666  26.006  17.047  0.2721  0.1029 -0.0272
47493W        W90431   7.575  26.271  17.574  0.1137 -0.0599  0.3878
47494W        W90432   7.972  28.462  19.182 -0.0718  0.2031 -0.3400
47495W        W90433  10.318  27.795  18.196 -0.0025  0.0478 -0.0251
47496W        W90434   8.581  23.659  20.077 -0.1527 -0.3427  0.3885
47497W        W90435   9.444  27.813  18.258  0.1301  0.0720 -0.0088
47498W        W90436   7.961  26.908  16.504 -0.0508 -0.2072  0.0633
47499W        W90437   8.045  26.407  19.987 -0.2292  0.1312 -0.2511
47500W        W90438   7.593  27.469  18.928 -0.1489  0.1289  0.2939
47501W        W90439   8.934  27.432  17.395 -0.2622  0.0499 -0.0300
47502W        W90440   9.692  27.390  19.099 -0.0204 -0.1254  0.1204
47503W        W90441   8.694  28.562  17.831 -0.1863 -0.1882 -0.1412
47504W        W90442  10.460  28.722  19.466 -0.1127  0.0537 -0.1262
47505W        W90443   9.446  26.706  18.722 -0.0480 -0.3796  0.4154
47506W        W90444   7.182  28.706  17.368  0.1352 -0.0967 -0.1900
47507W        W90445   8.098  29.146  17.102  0.1257 -0.0229  0.0544
47508W        W90446   8.349  28.596  17.117  0.1357  0.1502 -0.0526
47509W        W90447  12.162  27.242  15.482 -0.2249  0.0916 -0.0917
47510W        W90448  10.379  29.236  19.359 -0.1820  0.0044 -0.1261
47511W        W90449   7.916  29.496  19.428 -0.0957  0.1766  0.1340
47512W        W90450   6.545  29.287  18.140 -0.0345  0.0970  0.0957
47513W        W90451   9.486  28.715  18.945 -0.2859 -0.2676  0.0365
47514W        W90452   8.919  29.197  18.542 -0.0541 -0.2587  0.0306
47515W        W90453   8.379  27.558  18.949  0.0880 -0.0740 -0.2327
47516W        W90454   9.695  26.667  17.149  0.0998 -0.2247 -0.0730
47517W        W90455   9.126  28.642  18.236  0.0739  0.1992 -0.2666
47518W        W90456   9.565  28.893  17.393 -0.1626 -0.0381  0.0592
47519W        W90457   8.304  28.350  19.560 -0.0250  0.1387 -0.0767
47520W        W90458   6.061  26.911  17.567 -0.1786  0.0201  0.0020
47521W        W90459  10.622  26.357  20.404 -0.1140 -0.1337 -0.1651
47522W        W90460   8.667  28.274  16.852 -0.0571  0.1046  0.2692
47523W        W90461  12.207  27.171  14.843 -0.0832  0.1935 -0.0967
47524W        W90462   9.334  26.467  16.467  0.2697  0.1196 -0.2682
47525W        W90463   9.214  26.667  15.727  0.2276  0.1537 -0.1872
47526W        W90464   7.725  27.302  18.308 -0.4088  0.0629  0.0998
47527W        W90465   7.149  29.925  17.689  0.1140  0.2099  0.1815
47528W        W90466   8.701  27.029  17.689  0.0275 -0.3646 -0.0015
47529W        W90467  10.635  28.039  19.114 -0.2196 -0.0024 -0.1940
47530W        W90468   9.150  27.212  17.811 -0.0543 -0.2031  0.0375
47531W        W90469   9.734  27.345  17.695 -0.0073  0.6263  0.0237
47532W        W90470   9.140  29.466  18.127  0.4616 -0.2395 -0.0705
47533W        W90471   7.739  26.438  18.643  0.2580 -0.0605  0.3089
47534W        W90472  10.164  28.453  15.502  0.1485  0.1074 -0.2613
47535W        W90473  11.358  28.030  17.164  0.0784  0.2588 -0.0777
47536W        W90474   8.541  26.590  15.837 -0.0163  0.4057 -0.0577
47537W        W90475   7.983  27.247  17.022  0.0538  0.2069 -0.0270
47538W        W90476   6.216  27.626  17.378  0.2067 -0.1256 -0.0389
47539W        W90477   7.483  27.582  19.472  0.1213 -0.0144  0.2758
47540W        W90478   8.582  25.349  16.604  0.1580 -0.0316 -0.3778
47541W        W90479  10.093  27.072  19.328  0.0482  0.0774  0.0338
47542W        W90480   7.216  28.892  19.360  0.2459 -0.1158  0.0379
47543W        W90481  10.140  27.632  17.355 -0.2533 -0.0474  0.2686
47544W        W90482   9.936  28.444  18.759  0.2855 -0.4171 -0.0008
47545W        W90483  10.757  28.415  18.713 -0.2986  0.1730  0.2557
47546W        W90484   9.124  27.759  16.408  0.0015  0.1528  0.1001
47547W        W90485   8.980  26.489  18.380  0.3002 -0.0393  0.0452
47548W        W90486  10.120  26.617  19.527 -0.0448 -0.0589 -0.2266
47549W        W90487   7.670  28.211  16.724  0.1835  0.3071 -0.0536
47550W        W90488   8.463  28.005  17.208 -0.2707 -0.1543 -0.2794
47551W        W90489  10.195  28.921  18.621 -0.0051 -0.0871  0.2649
47552W        W90490   9.854  27.627  16.923 -0.3806  0.0452  0.1287
47553W        W90491   6.825  28.620  19.124  0.0718  0.0160  0.1719
47554W        W90492   7.939  27.617  19.185  0.0772 -0.3126 -0.2797
47555W        W90493   9.921  29.271  19.644 -0.2101  0.0085  0.0186
47556W        W90494   8.040  28.101  16.320  0.0359  0.2611  0.0122
47557W        W90495   7.299  26.582  18.848 -0.0541 -0.0239  0.2993
47558W        W90496   7.983  28.552  16.423  0.2420  0.0017 -0.1093
47559W        W90497   7.161  25.919  18.929  0.0970 -0.0117 -0.1274
47560W        W90498   7.603  29.063  17.216  0.0147  0.1705  0.0637
47561W        W90499  10.174  28.024  16.994 -0.0528  0.1760  0.0899
47562W        W90500   9.147  25.994  18.148 -0.0237  0.0985 -0.0992
47563W        W90501   9.636  26.716  17.639  0.3502  0.2251  0.4779
47564W        W90502   7.857  27.771  16.654 -0.3326  0.0853 -0.1241
47565W        W90503   9.812  28.799  16.343 -0.2195  0.0652 -0.0043
47566W        W90504  10.469  27.262  16.406  0.3124  0.0160 -0.1386
47567W        W90505   9.513  27.449  16.205 -0.1803 -0.3551 -0.2379
47568W        W90506   6.638  26.809  19.335  0.0196  0.0886 -0.0407
47569W        W90507   7.439  26.851  16.374  0.1335 -0.4355  0.0478
47570W        W90508   8.292  27.180  20.106  0.0967  0.1616  0.2799
47571W        W90509   8.006  25.133  17.465 -0.0311  0.2063 -0.0267
47572W        W90510   9.334  27.473  19.479  0.1658 -0.4661  0.1608
47573W        W90511   6.591  26.149  16.586 -0.1260  0.0687  0.0042
47574W        W90512  10.640  26.749  16.302 -0.1456 -0.0732 -0.2004
47575W        W90513   8.691  27.386  18.105 -0.1381 -0.0022  0.0240
47576W        W90514   7.718  27.115  19.214 -0.1266  0.1227 -0.0430
47577W        W90515  10.839  27.170  16.792  0.3267  0.1055 -0.0686
47578W        W90516  10.268  28.066  15.845 -0.0839  0.1790 -0.1740
47579W        W90517  10.488  29.741  19.162 -0.1014  0.0647  0.0416
47580W        W90518  10.218  28.839  16.822 -0.0004 -0.2228  0.2223
47581W        W90519   6.375  27.088  17.902  0.5461 -0.0681 -0.4111
47582W        W90520   8.220  26.981  17.437 -0.0704 -0.1793 -0.0474
47583W        W90521   7.791  29.883  17.645  0.1025  0.0462  0.1437
47584W        W90522   8.251  27.380  18.385  0.0081  0.0068  0.2695
47585W        W90523   9.695  26.349  16.083  0.0480  0.1690  0.0029
47586W        W90524  12.357  28.288  18.691 -0.2753 -0.2557  0.1169
47587W        W90525   9.629  28.118  17.020  0.1121  0.2853  0.2026
47588W        W90526   7.119  28.632  17.989  0.0006  0.3688 -0.0811
47589W        W90527   8.989  25.874  19.006  0.2426  0.1311 -0.0189
47590W        W90528  11.351  27.573  16.165 -0.1831 -0.0271  0.1344
47591W        W90529  10.835  27.997  16.903 -0.1345 -0.5231  0.1386
47592W        W90530   7.188  25.008  16.224  0.2226 -0.0897 -0.0745
47593W        W90531   9.955  29.612  16.958  0.1630 -0.1684 -0.2160
47594W        W90532   7.554  29.362  16.318  0.3436 -0.3586 -0.1978
47595W        W90533   7.319  26.971  18.070 -0.0085 -0.0452  0.2080
47596W        W90534   8.888  27.926  18.113  0.1675 -0.0704 -0.0082
47597W        W90535   9.963  27.441  18.311  0.0042 -0.0297  0.0935
47598W        W90536   6.377  28.673  20.074 -0.1277 -0.1832 -0.2430
47599W        W90537   9.266  26.780  19.262 -0.1518  0.1088 -0.1882
47600W        W90538   7.137  26.099  17.800  0.2906  0.1698 -0.0881
47601W        W90539   8.348  29.402  18.523  0.0019  0.0311  0.3051
47602W        W90540   8.239  26.229  17.240  0.1096  0.0127 -0.3975
47603W        W90541  10.110  26.913  16.421 -0.1645 -0.2271 -0.1237
47604W        W90542   7.934  28.032  19.440  0.0279 -0.3992 -0.0928
47605W        W90543  10.436  29.276  16.779  0.3183 -0.0044 -0.3034
47606W        W90544  10.141  26.724  16.959 -0.0454  0.0142  0.1468
47607W        W90545  10.215  27.619  15.590  0.0013 -0.0274  0.3735
47608W        W90546   7.500  27.909  19.133 -0.2760 -0.2191  0.0618
47609W        W90547   9.264  27.720  17.201 -0.0376 -0.0803  0.2725
47610W        W90548   9.579  28.425  18.371  0.1159 -0.0972  0.0200
47611W        W90549   9.859  26.413  16.609  0.2340 -0.0096  0.0379
47612W        W90550  10.009  29.164  17.276 -0.0242  0.1802 -0.1799
47613W        W90551   7.228  27.502  18.359  0.0286  0.0105  0.1626
47614W        W90552   8.866  27.424  19.259  0.0584 -0.0234 -0.1942
47615W        W90553  10.839  30.919  17.898 -0.1807  0.2099 -0.1107
47616W        W90554   8.068  26.854  18.342 -0.0203  0.0180 -0.2072
47617W        W90555   9.083  27.288  16.960 -0.0217 -0.3558 -0.0408
47618W        W90556  10.258  25.871  16.424  0.1909 -0.1789 -0.3486
47619W        W90557   7.087  28.598  15.936  0.0903  0.2852  0.0359
47620W        W90558   8.521  25.406  18.870 -0.0771 -0.0673  0.0770
47621W        W90559   9.660  25.395  18.738 -0.0106 -0.0037  0.0056
47622W        W90560   8.653  25.565  20.197 -0.1590  0.0828 -0.1214
47623W        W90561   9.648  26.878  19.621  0.0054 -0.2448  0.0817
47624W        W90562  10.317  27.103  15.937 -0.1084 -0.0726 -0.2373
47625W        W90563   8.997  28.179  17.303 -0.2114  0.0172  0.2932
47626W        W90564   8.856  27.807  16.917  0.0458  0.1613  0.1323
47627W        W90565   7.881  26.738  18.961  0.0864  0.1272 -0.1830
47628W        W90566   7.389  28.914  18.341  0.1478 -0.1157 -0.1628
47629W        W90567   8.801  29.717  18.546 -0.0845  0.0777 -0.2192
47630W        W90568   9.539  28.470  19.352 -0.5318 -0.1897 -0.3471
47631W        W90569   9.461  28.304  17.495 -0.4517 -0.2633 -0.0727
47632W        W90570   8.548  26.058  18.092  0.1709 -0.1086  0.1809
47633W        W90571   9.352  26.853  16.833  0.3950 -0.0734 -0.3627
47634W        W90572   9.148  29.075  17.217  0.0669 -0.2033  0.0078
47635W        W90573   9.419  28.423  16.352 -0.2204 -0.0106  0.0199
47636W        W90574   8.129  26.244  17.831 -0.0630 -0.1139  0.1324
47637W        W90575   9.833  28.993  18.255  0.0275 -0.2108  0.1106
47638W        W90576   8.154  27.390  16.565 -0.1917  0.0646 -0.1123
47639W        W90577   9.870  28.050  18.399 -0.1016  0.2590  0.1840
47640W        W90578   8.856  29.085  19.172 -0.0819 -0.0378 -0.0489
47641W        W90579  11.156  26.363  18.039  0.1260 -0.0393  0.2606
47642W        W90580   6.456  27.465  16.952  0.0290  0.0400  0.1324
47643W        W90581   8.650  26.946  16.431 -0.1643  0.7117 -0.0812
47644W        W90582   7.209  27.144  16.741 -0.1370 -0.1250  0.0161
47645W        W90583   8.952  26.748  18.854  0.0569  0.2425  0.2733
47646W        W90584  11.413  27.792  17.620 -0.0513  0.1784 -0.1122
47647W        W90585   6.772  26.783  18.823 -0.0530  0.4086 -0.1382
47648W        W90586   9.786  25.889  18.415 -0.0434  0.1076 -0.1634
47649W        W90587   6.913  29.737  19.430 -0.1607 -0.0617  0.0529
47650W        W90588   9.217  26.129  18.633 -0.0737 -0.4243  0.0636
47651W        W90589  10.069  25.033  16.539 -0.1346  0.1808  0.0721
47652W        W90590  11.072  30.041  17.794  0.2714 -0.3073  0.1398
47653W        W90591   8.859  27.753  19.655  0.2825  0.0857 -0.1857
47654W        W90592   7.912  26.101  16.291 -0.1133  0.1852 -0.1388
47655W        W90593   9.945  26.382  17.915  0.1214 -0.1213  0.0294
47656W        W90594   8.232  27.166  17.909 -0.0972  0.0308 -0.0419
47657W        W90595   9.118  28.173  18.502 -0.2369 -0.0899 -0.1216
47658W        W90596   9.325  28.235  18.959  0.0091  0.0180  0.2095
47659W        W90597   7.663  27.309  16.618 -0.2483  0.3303  0.2208
47660W        W90598   7.981  27.752  17.171  0.1038 -0.3929 -0.1110
47661W        W90599   8.250  25.355  19.290  0.1633 -0.0828  0.1492
47662W        W90600  10.008  25.990  18.944 -0.2358 -0.1064  0.1612
47663W        W90601   9.501  27.319  18.132 -0.2355  0.3840  0.0590
47664W        W90602   7.898  26.648  17.546 -0.2007  0.0029  0.3471
47665W        W90603  10.941  27.574  16.447 -0.1896  0.0979  0.1184
47666W        W90604  11.313  28.401  19.397  0.0960  0.0864 -0.0054
47667W        W90605   8.671  27.280  18.652 -0.0312  0.1504  0.0939
47668W        W90606   7.634  29.105  19.220  0.0850 -0.0480 -0.1924
47669W        W90607   9.632  27.183  18.622  0.0337  0.0165  0.0981
47670W        W90608  10.881  29.116  16.243 -0.0380  0.1897 -0.3248
47671W        W90609   8.754  26.943  19.294 -0.2016  0.1947  0.0380
47672W        W90610   8.210  26.556  16.218 -0.2874 -0.0480 -0.0069
47673W        W90611   5.708  25.543  18.571  0.0282 -0.0763 -0.0063
47674W        W90612   7.118  27.188  17.531 -0.0256  0.2872 -0.0657
47675W        W90613   9.561  26.815  18.141 -0.1096  0.2377  0.1280
47676W        W90614   8.669  28.320  18.415  0.3810 -0.3253 -0.2164
47677W        W90615   7.840  28.032  15.811  0.2082  0.5113  0.0758
47678W        W90616   7.666  28.674  19.544 -0.0346 -0.0568  0.0252
47679W        W90617  11.069  24.893  16.714 -0.1225  0.0720  0.0942
47680W        W90618   9.440  27.102  17.260  0.0963  0.2545  0.2231
47681W        W90619   9.190  26.803  17.545  0.1373 -0.5508 -0.0545
47682W        W90620  11.047  25.505  18.613  0.0646 -0.2891 -0.2608
47683W        W90621   9.836  27.774  16.000 -0.5076  0.0440 -0.0662
47684W        W90622   8.379  25.624  18.336 -0.1024 -0.0049 -0.3073
47685W        W90623   6.948  25.804  18.457  0.1213 -0.0362  0.1387
47686W        W90624   9.685  30.187  16.984  0.0417 -0.2365 -0.0844
47687W        W90625   6.539  28.258  19.197  0.0229 -0.0793  0.2230
47688W        W90626  10.007  29.419  20.321  0.4160 -0.0061  0.3426
47689W        W90627   7.549  26.889  18.549 -0.1579  0.0881  0.1519
47690W        W90628   9.957  27.025  17.340 -0.0415  0.1329 -0.0355
47691W        W90629   8.950  26.583  16.160 -0.1383  0.0091  0.2041
47692W        W90630   7.374  28.214  18.070 -0.2907  0.2010  0.1202
47693W        W90631  10.837  27.995  18.424 -0.1312 -0.3150 -0.0134
47694W        W90632   9.648  27.938  16.453 -0.1449 -0.2803  0.0560
47695W        W90633  11.260  27.561  16.818 -0.1193 -0.0601  0.1919
47696W        W90634   5.954  28.063  17.283  0.1660  0.0288 -0.0105
47697W        W90635   9.856  26.773  15.746 -0.1122 -0.0576  0.1166
47698W        W90636   9.610  26.830  16.245  0.0124 -0.0468  0.0403
47699W        W90637   8.569  27.779  18.470 -0.0682  0.0304 -0.0498
47700W        W90638   8.002  26.230  19.328 -0.1571 -0.1227 -0.1393
47701W        W90639   9.701  27.802  17.406  0.2106  0.0363 -0.0598
47702W        W90640  10.040  27.570  16.433 -0.3962 -0.0955 -0.0993
47703W        W90641   9.551  25.965  17.836  0.3777 -0.0719 -0.1057
47704W        W90642  11.250  27.034  18.645  0.0042  0.2181 -0.1445
47705W        W90643   7.283  27.956  21.107  0.0064  0.3265 -0.0131
47706W        W90644   8.013  27.429  20.448  0.1584  0.0306  0.0051
47707W        W90645   8.665  28.868  18.301 -0.0943 -0.0883  0.1420
47708W        W90646  11.327  26.899  15.994 -0.3193 -0.0537  0.0548
47709W        W90647  11.303  26.824  18.002  0.0127  0.2456  0.2278
47710W        W90648  10.580  27.568  16.006  0.0879 -0.0361 -0.1223
47711W        W90649  10.937  27.194  16.116  0.3046  0.0268 -0.0949
47712W        W90650   6.992  25.077  18.557 -0.0526 -0.2291  0.3304
47713W        W90651   9.261  27.676  18.984  0.2089 -0.1090 -0.1323
47714W        W90652   7.857  27.456  17.551  0.2987 -0.0931 -0.0297
47715W        W90653   9.205  25.345  18.974 -0.0374 -0.2915  0.4542
47716W        W90654   8.999  28.652  16.630  0.2451 -0.3489 -0.2658
47717W        W90655  11.019  30.495  17.563  0.0889  0.2956 -0.1035
47718W        W90656   8.786  27.852  17.628 -0.0254  0.1906  0.1356
47719W        W90657   7.528  25.485  18.838 -0.1116  0.2034 -0.0278
47720W        W90658   8.368  29.885  18.301 -0.2092 -0.0957 -0.0867
47721W        W90659   8.077  26.724  16.986 -0.1434  0.1001  0.2890
47722W        W90660   8.644  27.452  16.514 -0.4063 -0.0245  0.0203
47723W        W90661  10.127  28.630  18.183 -0.0237 -0.2793  0.3732
47724W        W90662   9.870  27.461  19.588  0.0424 -0.2716  0.1841
47725W        W90663   9.685  25.859  17.341  0.0493  0.3571 -0.0168
47726W        W90664  10.408  26.742  17.964  0.0401  0.1504 -0.1308
47727W        W90665   7.875  28.284  17.263 -0.0008  0.2438  0.1756
47728W        W90666   9.753  25.912  19.399  0.0150  0.1180  0.5128
47729W        W90667   8.465  30.197  16.801 -0.1338 -0.1366 -0.1158
47730W        W90668   7.248  29.572  18.465 -0.1315  0.1581  0.1836
47731W        W90669   8.609  29.399  18.085  0.3333  0.2484  0.3352
47732W        W90670   7.081  24.349  18.608 -0.0752 -0.1434 -0.1277
47733W        W90671   8.742  26.542  17.933 -0.1272 -0.0366 -0.4423
47734W        W90672   8.156  27.969  17.600 -0.1561  0.0712  0.3133
47735W        W90673  10.759  27.585  17.864  0.4479  0.3188 -0.2133
47736W        W90674   8.908  29.145  19.987  0.1950  0.3267 -0.1074
47737W        W90675   7.767  27.977  18.295  0.0849 -0.2027  0.0539
47738W        W90676   9.766  28.043  19.150 -0.2093  0.4073  0.2732
47739W        W90677  11.254  28.916  17.111  0.0045 -0.0220 -0.0057
47740W        W90678   7.919  28.996  18.405  0.0681  0.5369  0.0079
47741W        W90679   7.003  27.274  19.787  0.0403 -0.4166 -0.1358
47742W        W90680   7.826  28.325  19.883  0.0048  0.2252  0.1721
47743W        W90681  10.591  28.713  18.355  0.1183  0.1055 -0.0627
47744W        W90682   8.431  25.834  16.431 -0.3178 -0.0600  0.1102
47745W        W90683   8.442  28.382  16.285  0.0319 -0.3225 -0.3474
47746W        W90684   6.711  29.090  19.213 -0.1844 -0.0993  0.1967
47747W        W90685   7.835  26.701  19.462 -0.1271  0.0076  0.1837
47748W        W90686   8.238  30.733  16.502  0.2825  0.0346  0.1698
47749W        W90687   9.443  27.506  16.713  0.1018 -0.0292  0.0980
47750W        W90688  10.697  27.394  15.570  0.0322  0.2279 -0.1140
47751W        W90689  10.175  29.543  17.906 -0.0805  0.0221  0.0297
47752W        W90690   8.443  27.060  16.870 -0.1693 -0.4133  0.0745
47753W        W90691   7.801  28.810  17.924  0.0498 -0.3649 -0.2969
47754W        W90692   6.477  29.227  16.252  0.1973  0.2822 -0.0566
47755W        W90693   9.231  28.606  17.077 -0.1140  0.0123 -0.0407
47756W        W90694   7.964  29.645  17.256 -0.3150 -0.2327 -0.0767
47757W        W90695  10.368  28.422  19.026  0.0675  0.0139  0.2102
47758W        W90696  10.269  26.125  15.478 -0.2327  0.0923  0.1426
47759W        W90697  12.189  27.628  17.205  0.1356  0.1003 -0.2159
47760W        W90698  10.816  26.011  16.978 -0.0076 -0.1078  0.0715
47761W        W90699   9.701  28.616  19.800 -0.1655 -0.1755 -0.1438
47762W        W90700   8.202  27.114  19.184  0.0686 -0.1435  0.2188
47763W        W90701   8.020  25.486  16.376  0.1683  0.0209 -0.1884
47764W        W90702   6.605  27.503  20.020 -0.1386 -0.2368 -0.0526
47765W        W90703  11.242  25.014  19.889 -0.2780  0.0800 -0.0733
47766W        W90704   7.463  30.116  19.073 -0.0765  0.2858 -0.0072
47767W        W90705  10.111  30.387  16.740 -0.1255  0.3146 -0.3082
47768W        W90706   9.120  25.919  16.582 -0.1310 -0.0453  0.1465
47769W        W90707   8.269  28.014  19.036  0.2463  0.3989  0.5232
47770W        W90708   9.566  25.331  19.795  0.3438 -0.0172  0.2118
47771W        W90709   9.591  27.531  15.492 -0.0507 -0.1296 -0.0683
47772W        W90710  10.074  28.230  17.987  0.2177  0.0131  0.0908
47773W        W90711   7.934  28.275  17.977 -0.0786  0.0402  0.0071
47774W        W90712  10.945  29.316  17.247 -0.1785  0.1275  0.0081
47775W        W90713   9.707  28.608  17.835 -0.2066 -0.0068 -0.2042
47776W        W90714   6.792  24.811  17.127 -0.3434  0.0096 -0.0746
47777W        W90715  12.037  26.384  17.856  0.3038 -0.1693 -0.2478
47778W        W90716   7.772  28.218  18.799 -0.0760 -0.0384 -0.2259
47779W        W90717   9.772  26.641  20.132  0.4093  0.0736 -0.0426
47780W        W90718   8.452  28.146  17.949  0.0539 -0.1527  0.3663
47781W        W90719  10.597  26.691  16.788  0.0563 -0.0331 -0.0912
47782W        W90720   9.054  27.062  19.683  0.0726 -0.1314  0.0386
47783W        W90721   8.335  26.637  19.241 -0.1944  0.0633  0.1275
47784W        W90722   8.595  26.545  16.907 -0.1282 -0.1381  0.1283
47785W        W90723  10.050  28.205  20.077 -0.0560  0.1696  0.0185
47786W        W90724  10.788  28.061  16.391  0.2743 -0.0646  0.0461
47787W        W90725  10.789  28.972  20.082 -0.2065 -0.0283  0.1082
47788W        W90726   8.210  26.267  16.743  0.0176  0.1488  0.1451
47789W        W90727   9.854  27.245  15.919 -0.0994 -0.1855  0.0367
47790W        W90728   7.412  26.739  17.605  0.1575 -0.2927 -0.0505
47791W        W90729   6.590  27.925  19.705 -0.1330 -0.1158 -0.1558
47792W        W90730  10.255  29.378  18.855 -0.2397 -0.0646  0.6615
47793W        W90731   8.144  24.946  16.407  0.0423 -0.0798 -0.0752
47794W        W90732  10.637  28.352  15.957  0.0832 -0.3893  0.2141
47795W        W90733  10.482  27.622  18.621  0.1863 -0.0752 -0.0497
47796W        W90734   9.165  28.172  16.793  0.1362 -0.0924 -0.1534
47797W        W90735  11.002  27.814  15.920  0.1946 -0.1317 -0.0159
47798W        W90736  10.876  29.594  16.236  0.0315  0.1678 -0.0363
47799W        W90737   8.734  26.617  19.689 -0.1360  0.0977 -0.1130
47800W        W90738   9.862  29.143  17.742 -0.1127 -0.2397 -0.0425
47801W        W90739  10.871  28.961  17.994  0.1193  0.3789 -0.0765
47802W        W90740   9.242  26.145  15.996  0.0382 -0.2578  0.2239
47803W        W90741   6.878  26.966  18.386 -0.3025 -0.2529  0.2608
47804W        W90742   7.282  29.278  16.702  0.0530 -0.0811  0.1389
47805W        W90743   9.546  26.345  18.341 -0.2292 -0.0988 -0.0455
47806W        W90744  10.964  26.708  18.343  0.2179  0.1538 -0.4185
47807W        W90745   8.920  28.214  16.312  0.1237 -0.0548  0.1094
47808W        W90746   8.796  25.852  19.602  0.0157 -0.0538 -0.2480
47809W        W90747   8.810  28.235  19.599  0.0427 -0.0601  0.3187
47810W        W90748   7.389  28.443  19.141 -0.2593 -0.0321 -0.0530
47811W        W90749   7.999  26.962  15.281 -0.0363 -0.0157  0.1839
47812W        W90750   7.871  27.789  19.848  0.0363 -0.0855  0.1301
47813W        W90751   8.786  28.640  17.291 -0.1066 -0.0967  0.0179
47814W        W90752   9.371  29.875  17.213  0.0484  0.2792  0.3168
47815W        W90753  10.685  29.991  17.428 -0.3829 -0.0393 -0.0272
47816W        W90754   8.826  26.400  19.266  0.0110 -0.2830 -0.4572
47817W        W90755   9.960  28.590  17.160  0.0157  0.2153 -0.2485
47818W        W90756  10.449  27.237  17.485  0.1076  0.0728 -0.0731
47819W        W90757  10.030  25.910  17.993 -0.0166  0.0756 -0.0012
47820W        W90758   9.851  25.301  17.030  0.0227  0.0118  0.0386
47821W        W90759   8.793  27.871  19.048 -0.1560 -0.1649 -0.0655
47822W        W90760   7.562  26.762  17.012 -0.0374  0.2604 -0.2211
47823W        W90761   8.247  28.436  17.601 -0.0477 -0.0572  0.3821
47824W        W90762   7.950  27.727  18.662  0.0570 -0.0681 -0.2305
47825W        W90763   9.404  25.071  20.254  0.5238  0.1602  0.0194
47826W        W90764   6.608  26.222  19.662  0.0306 -0.2992  0.2297
47827W        W90765   7.410  27.915  18.634  0.0806  0.0359  0.0040
47828W        W90766   7.146  26.417  16.904  0.1662 -0.3764  0.0825
47829W        W90767  10.260  24.583  17.294  0.1495 -0.0725  0.2337
47830W        W90768   7.975  26.063  18.356  0.0277 -0.2000 -0.4461
47831W        W90769   9.487  26.161  16.795 -0.4059 -0.0175  0.3375
47832W        W90770   9.878  28.339  16.625  0.2264 -0.0783  0.0393
47833W        W90771   9.370  28.930  16.114 -0.1911 -0.0817  0.0614
47834W        W90772   8.033  25.736  17.937 -0.0356 -0.1244 -0.4350
47835W        W90773   9.849  28.930  20.173  0.1737 -0.0404 -0.0282
47836W        W90774   6.867  28.542  16.399 -0.0825  0.1107  0.0044
47837W        W90775   8.120  28.336  20.701 -0.3940 -0.0258  0.2323
47838W        W90776   8.468  25.810  19.277  0.3494 -0.2834  0.1589
47839W        W90777   7.418  26.136  16.373  0.0894  0.1642 -0.1300
47840W        W90778  10.607  29.154  18.550 -0.0189  0.0888 -0.2705
47841W        W90779  10.218  27.472  17.871  0.1679  0.0985 -0.1434
47842W        W90780  10.035  29.969  16.523 -0.0855 -0.0099 -0.2710
47843W        W90781   7.014  27.852  19.414 -0.1222 -0.1882  0.2958
47844W        W90782   8.406  29.303  19.549 -0.0137 -0.1552 -0.1854
47845W        W90783   6.857  25.776  19.443  0.0589  0.2448 -0.1783
47846W        W90784  10.701  27.912  15.379 -0.2162  0.0863  0.4840
47847W        W90785   9.202  29.658  19.929 -0.0641 -0.2204 -0.0212
47848W        W90786  11.466  27.890  15.731 -0.0735 -0.1805 -0.3152
47849W        W90787  11.549  25.489  18.767 -0.1001 -0.1016  0.0279
47850W        W90788   9.016  27.493  16.023 -0.1235  0.2989  0.0012
47851W        W90789   7.490  26.579  19.878  0.2944  0.0725  0.0804
47852W        W90790   7.000  27.739  17.907  0.2393  0.2157 -0.0948
47853W        W90791  12.044  27.908  18.673  0.3028 -0.1474  0.2932
47854W        W90792   8.557  26.073  16.002 -0.1114 -0.0674 -0.3465
47855W        W90793   9.768  27.168  16.612  0.3351 -0.1038  0.1610
47856W        W90794  10.498  28.411  16.782 -0.4161 -0.1557  0.1361
47857W        W90795   7.722  25.984  18.970  0.0289 -0.0743 -0.1025
47858W        W90796   9.044  26.434  16.894 -0.0933 -0.1087 -0.1237
47859W        W90797   8.553  26.915  18.247 -0.4933  0.2259  0.0461
47860W        W90798   9.398  29.061  17.924  0.0729  0.1245 -0.0422
47861W        W90799   9.235  28.042  19.444  0.1100  0.1530  0.0040
47862W        W90800   8.006  26.678  15.669  0.4716  0.5000  0.5072
47863W        W90801  10.363  25.574  17.725  0.0615 -0.0379 -0.2232
47864W        W90802   9.645  27.675  18.684  0.0297 -0.0369 -0.2827
47865W        W90803  10.879  29.712  20.508  0.0454  0.1616  0.1420
47866W        W90804   9.764  29.617  17.622  0.1323 -0.1302  0.0546
47867W        W90805  11.711  27.394  17.658 -0.1660 -0.5587  0.0697
47868W        W90806   8.400  27.939  20.577 -0.1099  0.0583  0.3321
47869W        W90807   7.524  27.216  17.237 -0.0663 -0.1262  0.0385
47870W        W90808   8.168  28.188  18.471  0.0035  0.1031  0.2282
47871W        W90809   9.134  27.011  18.452  0.3048 -0.2858 -0.0163
47872W        W90810   9.162  25.884  17.337 -0.0549  0.2066 -0.0983
47873W        W90811  10.886  24.564  16.422 -0.0522 -0.0564 -0.2947
47874W        W90812   8.941  28.698  18.686 -0.2802 -0.0626  0.1245
47875W        W90813   9.058  27.541  18.401 -0.0186 -0.0658 -0.2442
47876W        W90814   9.161  28.005  21.828  0.1646 -0.1913  0.0247
47877W        W90815   9.566  26.573  20.589 -0.0149 -0.1671 -0.0662
47878W        W90816  10.150  26.508  20.570  0.0930 -0.3125 -0.2496
47879W        W90817  10.835  28.330  22.151  0.0908 -0.3995  0.0729
47880W        W90818   9.012  27.291  21.036 -0.1410 -0.0263  0.2340
47881W        W90819   9.541  28.520  21.847  0.3163 -0.0386  0.0904
47882W        W90820   7.180  24.831  23.795  0.0084 -0.1981  0.1256
47883W        W90821   9.449  28.966  21.535 -0.0440 -0.1030 -0.0007
47884W        W90822   8.752  29.148  20.830  0.1917  0.1085 -0.3906
47885W        W90823   9.196  26.127  19.655 -0.0408 -0.1845  0.4168
47886W        W90824  10.170  26.773  21.831  0.0978  0.3666 -0.4666
47887W        W90825   8.247  29.155  22.432  0.2699 -0.0759 -0.0648
47888W        W90826   9.000  25.898  20.476  0.0183  0.0156  0.2151
47889W        W90827   6.940  24.976  19.949  0.1503 -0.3730  0.1812
47890W        W90828   9.534  27.587  23.015  0.4519 -0.0664  0.0260
47891W        W90829   7.243  26.897  20.875  0.1626 -0.3980  0.2329
47892W        W90830   8.283  27.404  22.768 -0.0876 -0.1150 -0.2308
47893W        W90831   9.876  27.217  21.638 -0.0326  0.1722  0.4284
47894W        W90832   9.045  28.798  21.784 -0.4729 -0.2610  0.3172
47895W        W90833   9.584  25.523  22.785  0.0955  0.2059  0.2348
47896W        W90834   9.138  24.788  23.314  0.0634  0.1290 -0.0663
47897W        W90835   8.447  28.279  21.049 -0.1387  0.1299 -0.1564
47898W        W90836   6.707  28.303  18.088  0.1618 -0.0609  0.0888
47899W        W90837   6.114  27.927  23.072 -0.3144  0.0676  0.0385
47900W        W90838   8.947  27.648  21.427  0.1805 -0.1244  0.0375
47901W        W90839  11.346  26.214  22.574 -0.1740  0.5413 -0.2756
47902W        W90840  11.835  26.338  23.674 -0.0765  0.0740  0.3086
47903W        W90841   8.823  28.663  20.848 -0.2087 -0.3422  0.1212
47904W        W90842  10.015  29.139  21.380 -0.3861  0.1027  0.2503
47905W        W90843  11.173  27.826  23.329 -0.1502 -0.1753 -0.0741
47906W        W90844   6.411  26.997  20.733  0.1745 -0.0236 -0.1375
47907W        W90845   7.699  28.922  22.629 -0.1869  0.3546  0.0385
47908W        W90846   7.493  29.375  19.701  0.3365 -0.0588 -0.1549
47909W        W90847  11.617  27.395  20.900 -0.0059 -0.1112  0.0371
47910W        W90848   9.824  27.839  22.513 -0.0558  0.2615  0.4236
47911W        W90849   9.666  28.503  23.347 -0.0652 -0.3984 -0.0815
47912W        W90850   8.012  29.355  19.924  0.3337  0.1440  0.1370
47913W        W90851  10.100  28.811  22.633  0.1392  0.0502  0.1116
47914W        W90852   8.621  28.954  21.984 -0.5863 -0.2672 -0.0959
47915W        W90853   9.524  26.195  22.198 -0.5965 -0.2370 -0.1482
47916W        W90854   8.373  27.670  20.128  0.0599 -0.1534 -0.0755
47917W        W90855   8.152  29.797  18.968 -0.0038  0.1801  0.1899
47918W        W90856   9.473  27.626  21.690  0.0762  0.4456 -0.4725
47919W        W90857   8.503  27.411  23.420 -0.0109  0.0649 -0.1215
47920W        W90858   6.108  28.720  22.913 -0.1779  0.0096 -0.1699
47921W        W90859  11.041  26.702  23.470 -0.3048  0.5408  0.0111
47922W        W90860   7.088  28.428  19.573 -0.0503 -0.1951 -0.1094
47923W        W90861  10.478  25.385  21.803 -0.3250 -0.1039  0.2432
47924W        W90862   9.199  25.028  19.505 -0.0880  0.0200  0.0861
47925W        W90863   9.241  26.597  19.819  0.0618  0.2354 -0.0270
47926W        W90864   8.728  26.487  22.834 -0.1013  0.0785  0.0398
47927W        W90865   8.981  29.093  21.266  0.3006 -0.0899  0.2186
47928W        W90866   7.003  26.773  22.049  0.0018  0.0592  0.2520
47929W        W90867  11.169  29.135  21.897 -0.3963 -0.3832 -0.1001
47930W        W90868   8.537  27.407  20.574 -0.0910 -0.4268  0.0874
47931W        W90869   9.367  25.430  23.519 -0.1269 -0.0847 -0.4464
47932W        W90870   7.213  28.607  22.481  0.5391  0.0064  0.0856
47933W        W90871   6.388  26.518  20.010  0.0211  0.0913  0.2709
47934W        W90872  10.796  29.095  19.589  0.3424 -0.1543  0.1561
47935W        W90873  11.619  28.524  21.703 -0.1653  0.0497  0.2355
47936W        W90874   8.393  29.016  20.042 -0.2529  0.1314  0.2055
47937W        W90875   7.036  26.700  20.402  0.0472 -0.0909 -0.2192
47938W        W90876   8.338  27.774  23.106 -0.1382 -0.0573 -0.2330
47939W        W90877   8.256  26.427  23.828 -0.0356  0.1428  0.2551
47940W        W90878   7.973  25.229  19.717  0.3397  0.2531 -0.0672
47941W        W90879  11.768  30.231  22.889  0.5285  0.0271 -0.2226
47942W        W90880   8.445  28.324  22.860  0.0510  0.1902  0.2367
47943W        W90881  10.625  25.345  19.838  0.2114  0.0704  0.2034
47944W        W90882   8.850  28.104  21.391  0.1214 -0.3532 -0.2218
47945W        W90883   9.944  28.833  21.758 -0.1765 -0.0489  0.1088
47946W        W90884   9.418  28.245  20.948 -0.2555  0.3828  0.0147
47947W        W90885   9.241  25.151  22.352 -0.1893  0.0131  0.1752
47948W        W90886   9.296  25.762  23.137  0.2574  0.0082  0.3139
47949W        W90887   7.547  26.705  20.482 -0.1719  0.0663  0.3400
47950W        W90888   8.790  27.149  21.670  0.1082  0.0613 -0.0662
47951W        W90889  10.049  28.548  22.178 -0.1216 -0.1311  0.1250
47952W        W90890   9.732  27.776  20.214 -0.1300  0.2472 -0.0961
47953W        W90891   6.771  29.875  21.872  0.1532 -0.2418 -0.0784
47954W        W90892   7.875  26.694  21.827  0.0693 -0.0849 -0.3992
47955W        W90893   8.998  28.292  23.289  0.1504 -0.0627  0.1324
47956W        W90894   7.572  29.315  20.468  0.2254  0.0786 -0.1241
47957W        W90895   6.694  26.833  23.887 -0.1606  0.1252  0.0348
47958W        W90896   8.140  28.775  19.739 -0.0262 -0.2407 -0.0392
47959W        W90897   6.423  26.410  21.926 -0.1721  0.3288 -0.0678
47960W        W90898   8.324  27.849  21.350 -0.0705  0.1940  0.4254
47961W        W90899   9.873  26.191  20.896  0.2002 -0.0827  0.2185
47962W        W90900   6.781  25.291  23.010 -0.1296 -0.3114 -0.0015
47963W        W90901   9.611  26.760  22.502 -0.4540  0.1171 -0.1033
47964W        W90902   7.726  28.858  20.027 -0.0178 -0.1525 -0.0061
47965W        W90903  10.933  28.100  21.267 -0.0805  0.1525  0.1239
47966W        W90904  11.012  27.521  19.637 -0.0678  0.3410 -0.3196
47967W        W90905   9.313  27.817  20.011  0.0110  0.2236  0.1211
47968W        W90906   6.188  27.065  22.113 -0.2639  0.2066  0.2846
47969W        W90907   8.280  27.291  20.986 -0.1060  0.1947 -0.0184
47970W        W90908   8.864  26.950  23.323 -0.1744  0.0926  0.1126
47971W        W90909   7.678  27.173  21.718 -0.2788  0.1261 -0.1438
47972W        W90910  11.598  29.057  22.361 -0.2832  0.2523  0.1218
47973W        W90911   8.172  25.561  20.169  0.0930 -0.4106 -0.0959
47974W        W90912   9.780  27.522  22.156 -0.3783 -0.0947  0.0610
47975W        W90913   8.850  26.446  21.066 -0.1245  0.0425 -0.1260
47976W        W90914   7.222  28.356  20.459  0.0339 -0.0436 -0.0804
47977W        W90915  10.121  25.830  24.292 -0.1837  0.1728  0.1928
47978W        W90916   7.765  29.808  20.005 -0.2129 -0.0157 -0.0956
47979W        W90917  11.372  28.363  23.539 -0.1601 -0.0443 -0.0972
47980W        W90918  10.566  27.739  21.242  0.0910 -0.0915 -0.3147
47981W        W90919   6.996  26.671  22.595 -0.2341  0.2644  0.0421
47982W        W90920   7.435  26.386  20.887 -0.0763  0.2218  0.0558
47983W        W90921   6.943  28.825  22.060 -0.2173  0.0165  0.1175
47984W        W90922   8.164  28.590  22.051  0.3186  0.0371 -0.1041
47985W        W90923   9.053  26.781  20.740 -0.0458 -0.0886 -0.0215
47986W        W90924  10.427  28.569  21.898  0.2469 -0.1030 -0.1651
47987W        W90925   9.281  26.219  20.960  0.0836 -0.3851  0.1284
47988W        W90926   8.211  27.698  22.341  0.2666 -0.0056  0.2194
47989W        W90927   9.517  25.142  23.167  0.1801  0.5532  0.0352
47990W        W90928  11.112  27.120  23.725  0.1397  0.0992 -0.0269
47991W        W90929   9.578  27.037  21.245  0.1232 -0.6778 -0.3598
47992W        W90930   7.812  25.544  19.346 -0.4065 -0.0202  0.2560
47993W        W90931   8.879  28.312  22.614 -0.0661 -0.3841 -0.0580
47994W        W90932   7.373  29.746  20.415 -0.0733  0.3445  0.1653
47995W        W90933   6.859  27.097  20.636  0.0644 -0.0655 -0.2290
47996W        W90934   8.589  29.422  20.366  0.1565  0.3430 -0.0000
47997W        W90935  11.136  26.965  21.964  0.0957 -0.5177 -0.2179
47998W        W90936   7.786  27.130  21.027 -0.3588  0.0097 -0.2333
47999W        W90937  11.056  26.467  21.918 -0.5884 -0.1764 -0.2516
48000W        W90938   8.398  24.843  20.831 -0.0124 -0.0796 -0.1517
48001W        W90939   7.862  28.592  22.976 -0.0935 -0.2338  0.0099
48002W        W90940   9.312  26.095  20.137 -0.0500  0.0247 -0.2211
48003W        W90941  10.720  27.435  22.168 -0.0475 -0.0737  0.1773
48004W        W90942   9.032  27.816  24.157 -0.0457  0.2429  0.0827
48005W        W90943  10.410  28.011  20.532 -0.1041  0.1545 -0.2493
48006W        W90944   9.341  26.993  20.268  0.1499 -0.0381 -0.3079
48007W        W90945   9.117  25.664  19.990  0.0645  0.0355 -0.3564
48008W        W90946   6.642  26.907  23.049  0.2739 -0.3521 -0.4667
48009W        W90947   9.701  28.932  22.922 -0.1055 -0.1709 -0.0816
48010W        W90948   8.139  26.947  21.474  0.4037 -0.0018  0.1549
48011W        W90949   8.430  25.910  18.772  0.3535 -0.0921  0.2203
48012W        W90950  12.060  27.363  19.385 -0.2863  0.2311  0.1003
48013W        W90951   7.560  28.627  22.064  0.0637  0.1961  0.2160
48014W        W90952  10.790  27.887  23.054 -0.0921  0.0832 -0.0310
48015W        W90953   9.727  27.910  19.700  0.1503 -0.0177  0.4506
48016W        W90954   9.191  25.547  21.447 -0.1295 -0.1402 -0.4663
48017W        W90955   9.252  27.169  19.008  0.0650 -0.0082 -0.2057
48018W        W90956   9.495  25.359  21.104  0.1582  0.1348 -0.0270
48019W        W90957   7.794  30.693  18.854  0.0960 -0.0608 -0.5347
48020W        W90958   9.532  26.218  23.328 -0.1190  0.2284 -0.1238
48021W        W90959   8.490  26.030  21.046  0.2238 -0.1988  0.0340
48022W        W90960   8.312  27.039  22.478 -0.2692 -0.0086  0.0733
48023W        W90961  11.258  29.305  23.563  0.3069  0.1668  0.2427
48024W        W90962  10.125  28.853  19.137 -0.2455  0.0001 -0.2208
48025W        W90963   8.960  27.458  23.420 -0.3133 -0.4708 -0.2910
48026W        W90964   7.822  25.922  20.203 -0.1157  0.0975  0.1572
48027W        W90965   8.255  26.007  22.182 -0.1937 -0.0394  0.1549
48028W        W90966   7.987  27.742  21.731  0.2853  0.2480  0.1123
48029W        W90967   7.982  28.522  22.492  0.1758  0.3621 -0.3766
48030W        W90968   9.315  29.043  22.571 -0.1107  0.0735  0.2466
48031W        W90969   9.214  28.803  20.223 -0.0999 -0.2181 -0.1035
48032W        W90970   9.582  25.029  24.184  0.2591 -0.2455 -0.1486
48033W        W90971   7.496  27.435  20.035 -0.1502 -0.0769 -0.3278
48034W        W90972   8.797  28.065  20.096  0.1646  0.2896  0.2636
48035W        W90973   9.673  29.000  19.348  0.0959 -0.0963 -0.0134
48036W        W90974   9.257  24.442  22.881  0.1324  0.0289 -0.2642
48037W        W90975   8.776  27.397  22.378 -0.0617  0.2138  0.0633
48038W        W90976   8.577  28.394  20.518 -0.2623 -0.0716 -0.1653
48039W        W90977  10.355  28.077  22.063 -0.0258  0.0624 -0.0008
48040W        W90978   8.000  30.888  19.285 -0.1150  0.3258 -0.1995
48041W        W90979   9.576  25.476  21.847 -0.1174  0.1079  0.0120
48042W        W90980   6.197  28.596  22.382  0.2216 -0.0786  0.1853
48043W        W90981   8.371  27.754  19.518 -0.2566 -0.0663  0.1663
48044W        W90982   7.070  27.474  20.362  0.1387  0.0251  0.0243
48045W        W90983   9.592  24.869  22.135  0.1893 -0.3028  0.1684
48046W        W90984  11.515  26.760  21.512  0.0344  0.1244 -0.4002
48047W        W90985   7.207  26.919  21.618 -0.0764  0.2063  0.0977
48048W        W90986   7.702  26.681  21.279  0.0232  0.1702 -0.1778
48049W        W90987   7.410  28.423  23.434  0.4172 -0.0053  0.3031
48050W        W90988  11.753  26.787  22.005  0.0022  0.2802  0.0338
48051W        W90989   8.754  26.276  18.794  0.1549 -0.3605 -0.0255
48052W        W90990   9.119  27.882  23.697  0.1384 -0.2970 -0.2551
48053W        W90991   8.849  28.333  23.798  0.2250  0.0447  0.1745
48054W        W90992   6.824  26.253  20.119 -0.0011 -0.1035  0.0623
48055W        W90993  10.720  27.568  22.636  0.0590  0.2224 -0.0154
48056W        W90994   7.586  27.373  22.845  0.2158  0.1845 -0.1904
48057W        W90995   7.955  27.392  21.347 -0.2352 -0.1611 -0.0877
48058W        W90996   9.378  27.787  22.347 -0.1296 -0.1738  0.2690
48059W        W90997   9.133  27.347  20.527 -0.0512 -0.2939 -0.1435
48060W        W90998   7.209  29.790  19.907  0.3093 -0.0385  0.1158
48061W        W90999   9.436  26.068  22.734 -0.5354 -0.1462  0.1911
48062W        W91000  10.605  26.677  22.632 -0.3422  0.0601 -0.0806
48063W        W91001   8.609  26.618  21.655  0.0861 -0.0383 -0.1194
48064W        W91002   9.979  25.535  21.529  0.1212 -0.0741 -0.2243
48065W        W91003   8.468  27.384  21.435  0.1932  0.0037 -0.0694
48066W        W91004   9.952  27.840  21.680 -0.1939  0.3524 -0.2165
48067W        W91005   8.060  27.289  23.219 -0.2199 -0.3230 -0.0185
48068W        W91006   9.572  28.932  23.712 -0.1055 -0.3299  0.3359
48069W        W91007   8.602  25.671  22.357 -0.1242 -0.0655  0.2813
48070W        W91008  10.282  30.417  20.694  0.1793  0.2240  0.1328
48071W        W91009   9.980  27.414  23.202  0.1171  0.1204 -0.4302
48072W        W91010   7.531  28.010  20.143  0.0880  0.0137 -0.0829
48073W        W91011   6.754  26.753  21.616 -0.0562 -0.0141 -0.0360
48074W        W91012   7.817  28.555  21.668 -0.0571  0.1021  0.1184
48075W        W91013   8.458  25.485  23.111  0.1519  0.2633  0.0173
48076W        W91014   7.452  27.719  21.549 -0.0292  0.0063  0.1208
48077W        W91015   8.294  28.118  19.974  0.3770 -0.0618 -0.1952
48078W        W91016   7.837  28.009  21.317 -0.0020 -0.1967  0.0525
48079W        W91017  10.143  26.111  22.189  0.3645 -0.3975  0.1014
48080W        W91018   8.305  28.773  20.774  0.3210 -0.1540 -0.3097
48081W        W91019   8.674  26.263  22.359 -0.2315 -0.1457 -0.1012
48082W        W91020  11.081  25.848  23.094  0.0713 -0.1511  0.0691
48083W        W91021  11.632  27.529  19.685 -0.3117 -0.1924  0.2384
48084W        W91022   9.670  25.569  23.942 -0.0606  0.0814 -0.3132
48085W        W91023   7.496  26.879  22.651  0.0654  0.1221  0.2252
48086W        W91024   9.811  28.073  20.618 -0.2210 -0.0795 -0.0420
48087W        W91025   7.556  27.037  22.152 -0.0069  0.0284  0.1068
48088W        W91026   9.125  28.937  24.463 -0.0417 -0.2285  0.2193
48089W        W91027   8.313  26.502  22.091  0.2658  0.0645 -0.2537
48090W        W91028   9.485  25.801  20.817  0.0709  0.2119 -0.1020
48091W        W91029   7.823  26.933  19.898  0.0062  0.2003 -0.0304
48092W        W91030   8.929  26.055  21.456  0.0909 -0.0741  0.3693
48093W        W91031  10.781  27.809  21.682 -0.1058  0.0405 -0.0243
48094W        W91032   9.370  27.332  19.979 -0.1274 -0.2020 -0.0410
48095W        W91033   9.316  27.948  20.519  0.2280  0.1348  0.2064
48096W        W91034   6.495  29.014  22.613  0.1911 -0.0465  0.2822
48097W        W91035  10.872  27.030  21.115 -0.2500 -0.1630  0.3266
48098W        W91036   8.544  27.334  19.726  0.3309  0.0247  0.2628
48099W        W91037   7.664  28.250  20.901 -0.1323  0.2778  0.2885
48100W        W91038   9.145  26.613  23.063  0.3152  0.0508 -0.1036
48101W        W91039  10.261  27.784  22.824  0.4533  0.3587  0.0546
48102W        W91040   9.652  26.790  21.935 -0.0392  0.1823  0.1996
48103W        W91041   9.619  27.007  23.190  0.1954 -0.0508 -0.1699
48104W        W91042  10.977  27.404  23.047 -0.3299  0.0902  0.0605
48105W        W91043   9.563  27.902  24.036 -0.0306 -0.1445  0.0017
48106W        W91044  10.112  26.796  22.763  0.0737 -0.1901  0.2300
48107W        W91045  10.534  28.557  22.455 -0.0299 -0.0646 -0.0222
48108W        W91046  10.252  26.925  20.267 -0.1535  0.2725 -0.0838
48109W        W91047  11.172  25.244  22.997 -0.1489  0.0414 -0.2002
48110W        W91048  11.312  27.866  20.842 -0.1563  0.0914 -0.0605
48111W        W91049   8.910  27.476  20.076  0.1060 -0.2169  0.0640
48112W        W91050   7.404  27.909  20.653  0.0327 -0.2176  0.0639
48113W        W91051  11.145  28.066  24.172 -0.0244  0.0615  0.1834
48114W        W91052   8.022  25.007  18.610  0.0191  0.0317  0.1026
48115W        W91053  10.327  26.159  22.678 -0.1694  0.0205 -0.0933
48116W        W91054   8.721  28.840  19.573 -0.2114  0.2279  0.1087
48117W        W91055  10.270  27.389  21.875 -0.1737 -0.0279 -0.2645
48118W        W91056   9.011  26.535  20.288 -0.3592  0.0817 -0.0439
48119W        W91057   7.199  26.546  21.262  0.4848  0.2302  0.0279
48120W        W91058   8.421  28.519  23.963  0.0578  0.2023 -0.1698
48121W        W91059   7.422  27.066  19.599 -0.1047  0.2326 -0.0973
48122W        W91060   7.448  28.096  19.612  0.0553 -0.1787 -0.1786
48123W        W91061   9.101  27.527  22.767  0.0704 -0.2311 -0.0509
48124W        W91062  11.187  28.574  24.360  0.1873 -0.1648 -0.1080
48125W        W91063   9.381  26.379  21.704 -0.5013 -0.2763  0.4031
48126W        W91064  10.725  25.517  23.240  0.0617  0.1397 -0.0960
48127W        W91065   6.720  28.451  20.528 -0.1203  0.1932  0.3702
48128W        W91066   9.811  27.302  22.641 -0.0510 -0.0380  0.2824
48129W        W91067   9.310  29.937  22.152  0.0567  0.2339  0.0706
48130W        W91068   6.269  27.612  23.577  0.3191 -0.1502  0.1165
48131W        W91069   8.194  28.234  21.655 -0.5422  0.0093  0.2633
48132W        W91070   9.020  26.405  22.014  0.0949 -0.1341  0.1584
48133W        W91071  10.079  26.583  22.321  0.0634 -0.0292  0.1123
48134W        W91072   8.674  27.662  21.002 -0.0625 -0.3649 -0.0805
48135W        W91073  11.590  27.502  23.010 -0.2713  0.1313 -0.3523
48136W        W91074   9.265  27.070  22.776 -0.3876  0.0174  0.2529
48137W        W91075   8.885  27.920  22.240 -0.5320  0.1088 -0.3260
48138W        W91076   8.402  26.963  22.991 -0.4456 -0.2401  0.0437
48139W        W91077  10.660  27.316  21.570 -0.1042  0.1908  0.0702
48140W        W91078   7.033  27.537  20.849  0.2217 -0.0216  0.2927
48141W        W91079   6.859  25.550  23.529 -0.2162  0.1119 -0.1724
48142W        W91080   8.660  26.912  22.103  0.2576 -0.1535  0.1944
48143W        W91081  10.139  27.529  21.340  0.1572 -0.3109  0.1537
48144W        W91082   8.981  25.831  21.009  0.1246  0.0940  0.0593
48145W        W91083   9.773  29.916  20.303  0.0037 -0.1627 -0.1699
48146W        W91084   7.579  28.129  23.013  0.0021 -0.0617 -0.1942
48147W        W91085   7.640  28.114  21.757  0.2105  0.0626 -0.3448
48148W        W91086   7.993  28.481  21.192 -0.3352  0.1284 -0.2385
48149W        W91087   9.672  27.632  21.179  0.1936 -0.0341 -0.4723
48150W        W91088   8.707  28.854  20.397 -0.1372 -0.2557 -0.2173
48151W        W91089   9.040  29.668  22.523 -0.1282  0.2206 -0.5088
48152W        W91090   8.584  28.822  21.235  0.0061  0.2554 -0.1575
48153W        W91091   7.421  29.461  22.677  0.1112  0.1403 -0.1059
48154W        W91092   6.983  29.126  20.650  0.1887  0.2207  0.1939
48155W        W91093   8.622  28.526  20.026  0.0057  0.1877 -0.4364
48156W        W91094   7.830  28.926  21.303 -0.1660  0.3254 -0.1322
48157W        W91095  11.120  29.704  22.774 -0.0817  0.0821 -0.2219
48158W        W91096  10.664  27.232  20.429  0.1651  0.1013  0.1596
48159W        W91097  12.005  27.309  22.238  0.0895  0.4265  0.1416
48160W        W91098  10.544  26.939  22.133  0.0054 -0.3532 -0.1057
48161W        W91099  10.513  29.541  22.922 -0.2357  0.1233  0.0848
48162W        W91100   9.154  26.839  22.168  0.0790  0.1579  0.1207
48163W        W91101  10.284  26.026  20.333  0.1155  0.2983 -0.1010
48164W        W91102   8.961  26.393  24.321  0.0513 -0.2746  0.0305
48165W        W91103   9.805  25.852  23.097 -0.1534 -0.1944  0.0438
48166W        W91104   6.932  26.969  23.451  0.1300  0.2501  0.1756
48167W        W91105  10.476  28.179  19.805 -0.0839  0.0526  0.0051
48168W        W91106   7.235  27.219  21.208 -0.3717  0.3971  0.0514
48169W        W91107   8.658  26.915  21.149  0.1640 -0.1726  0.1720
48170W        W91108  10.235  25.318  22.536 -0.1210 -0.1919  0.0422
48171W        W91109   8.860  27.781  20.528 -0.1652 -0.3571 -0.0806
48172W        W91110   9.856  26.378  21.639 -0.1070 -0.1282 -0.0928
48173W        W91111   8.171  28.905  21.692  0.0659 -0.0795 -0.1111
48174W        W91112   8.577  28.042  21.852  0.0930  0.0529  0.1890
48175W        W91113   7.907  29.032  22.131 -0.3137 -0.3232 -0.1863
48176W        W91114   8.016  25.786  20.676  0.0155  0.2802 -0.1732
48177W        W91115   9.171  26.492  22.550  0.0807 -0.0717 -0.2795
48178W        W91116   9.021  25.259  23.153 -0.0055 -0.1889 -0.0775
48179W        W91117  10.029  25.034  22.914  0.0430  0.1099  0.1704
48180W        W91118   8.064  27.107  22.026  0.1943  0.1638  0.2876
48181W        W91119   9.946  25.790  22.560 -0.1416 -0.2468 -0.1495
48182W        W91120  10.160  26.895  23.307  0.1355 -0.2296 -0.2491
48183W        W91121   7.885  27.312  22.447 -0.1669 -0.0268  0.0860
48184W        W91122   9.999  28.391  19.444  0.2169 -0.0572  0.0595
48185W        W91123  11.588  27.362  23.975 -0.1510  0.0049 -0.2032
48186W        W91124   8.813  26.140  20.027  0.3515 -0.0435  0.0300
48187W        W91125   9.714  28.199  22.875  0.0666  0.3202  0.1288
48188W        W91126   7.447  26.437  21.704  0.1048  0.0262 -0.2043
48189W        W91127   9.633  27.604  20.725  0.0929  0.1078 -0.1184
48190W        W91128   8.056  27.843  20.941 -0.0349 -0.0163 -0.2390
48191W        W91129   9.303  27.290  22.328  0.0632  0.1638  0.0868
48192W        W91130  10.708  29.277  24.781  0.2933  0.0033  0.1034
48193W        W91131   9.140  25.438  20.718 -0.1106  0.0379 -0.0472
48194W        W91132  10.360  29.109  19.833  0.1900 -0.0090  0.0409
48195W        W91133  11.555  26.299  21.721 -0.0507 -0.2825 -0.0221
48196W        W91134   9.000  31.286  19.654 -0.0265  0.1506  0.3647
48197W        W91135  11.091  27.785  22.086 -0.1987 -0.0081  0.1361
48198W        W91136  10.043  28.319  21.704  0.0356  0.2954  0.0173
48199W        W91137   6.756  26.348  21.219 -0.4865 -0.0023  0.1090
48200W        W91138   9.639  29.162  21.099 -0.0870 -0.2502 -0.0213
48201W        W91139  11.143  30.100  21.266 -0.0749  0.0789  0.0027
48202W        W91140   9.293  25.948  21.842 -0.1807  0.3483  0.2457
48203W        W91141   8.485  27.543  21.916  0.3138 -0.0857 -0.0279
48204W        W91142   7.302  28.975  19.872  0.1998  0.2261 -0.0106
48205W        W91143  10.515  26.421  21.987 -0.1710 -0.0597 -0.1480
48206W        W91144  10.357  26.352  21.532 -0.0682  0.0280 -0.0339
48207W        W91145   9.214  28.979  19.457 -0.1048  0.2962  0.0274
48208W        W91146  10.489  25.661  23.871  0.2652  0.0204  0.0963
48209W        W91147   8.832  29.204  23.333 -0.4069 -0.2767 -0.2153
48210W        W91148   9.291  28.734  25.542  0.1811  0.3329 -0.0846
48211W        W91149   6.455  28.899  20.523  0.1717 -0.1977  0.2790
48212W        W91150   8.997  27.545  21.916  0.0577 -0.0052 -0.0679
48213W        W91151   8.581  28.534  21.661 -0.0493  0.1667  0.2238
48214W        W91152   9.092  30.480  21.360 -0.1143  0.1617  0.3219
48215W        W91153  10.941  28.664  21.717  0.1593 -0.0379 -0.0026
48216W        W91154   9.980  26.758  21.309  0.1656 -0.1385  0.0852
48217W        W91155  11.366  28.668  22.102 -0.1903  0.0786  0.0626
48218W        W91156   9.275  27.184  21.672  0.1354 -0.1777  0.0375
48219W        W91157  10.182  24.164  21.830  0.1788 -0.0318 -0.0212
48220W        W91158  10.759  24.844  19.769  0.0513 -0.2584 -0.1161
48221W        W91159   7.576  27.658  22.031  0.2129 -0.4197 -0.0522
48222W        W91160   6.756  27.005  20.144 -0.1799 -0.1209 -0.1718
48223W        W91161   7.977  27.318  19.622 -0.0013 -0.0727  0.0063
48224W        W91162   8.403  28.179  22.356  0.1510  0.1531  0.1455
48225W        W91163   9.427  25.163  24.665 -0.1786 -0.1260  0.1684
48226W        W91164   7.385  26.325  22.699  0.1033  0.2054  0.3817
48227W        W91165   8.306  26.492  21.159 -0.1631  0.1458 -0.2995
48228W        W91166   8.510  26.651  20.202 -0.3777  0.1900  0.1036
48229W        W91167  11.214  28.951  19.680 -0.2188 -0.5182 -0.1411
48230W        W91168   7.818  25.527  21.378  0.0606 -0.2609  0.0390
48231W        W91169   7.002  23.689  21.133  0.3452 -0.1864  0.1325
48232W        W91170  10.124  27.741  20.814 -0.0437 -0.2399  0.0461
48233W        W91171  10.559  29.220  21.172  0.3004 -0.1249 -0.1702
48234W        W91172   9.801  26.181  20.301  0.2747 -0.0048 -0.0649
48235W        W91173  11.096  27.913  24.764 -0.0134 -0.0755  0.2386
48236W        W91174   5.940  29.104  20.915 -0.0674  0.2395  0.3026
48237W        W91175   9.827  26.345  22.655  0.1075 -0.1539 -0.2194
48238W        W91176   8.263  26.508  22.628  0.1309 -0.1585 -0.1113
48239W        W91177   6.850  25.798  20.419 -0.2368 -0.2784 -0.0235
48240W        W91178   8.787  26.951  22.618 -0.0202 -0.0974  0.0458
48241W        W91179   8.964  28.837  22.362 -0.2134 -0.2222  0.0734
48242W        W91180   9.802  29.364  18.666  0.1733  0.0141  0.0060
48243W        W91181   9.510  28.069  21.479  0.0746  0.1057 -0.1400
48244W        W91182  10.258  27.142  23.908 -0.2552 -0.1843 -0.1777
48245W        W91183   7.429  24.878  22.811 -0.1775  0.0411 -0.1155
48246W        W91184  10.238  28.634  19.897  0.0842 -0.0993 -0.0647
48247W        W91185   9.178  29.395  22.893 -0.0797  0.0202  0.0368
48248W        W91186   9.003  28.605  19.202  0.0567 -0.1009 -0.0209
48249W        W91187   9.757  24.372  22.374 -0.0918  0.2720 -0.3563
48250W        W91188  10.014  28.098  21.274 -0.0470  0.0043 -0.2711
48251W        W91189   8.165  24.503  23.870 -0.2544 -0.0059 -0.2347
48252W        W91190   7.587  27.777  22.571 -0.3596  0.2335 -0.1692
48253W        W91191  11.585  28.600  22.643 -0.2747  0.2451 -0.2469
48254W        W91192   7.015  26.196  20.711 -0.0272 -0.1346 -0.0274
48255W        W91193   9.906  25.655  21.033 -0.1400  0.1312  0.0112
48256W        W91194   8.938  28.169  20.897  0.2140 -0.0503 -0.3956
48257W        W91195   8.033  27.973  22.742  0.4981  0.1900 -0.2057
48258W        W91196   9.237  27.772  20.991 -0.3193  0.0571  0.3433
48259W        W91197  10.404  26.483  23.012  0.0290  0.3995 -0.1474
48260W        W91198   9.734  28.038  22.058  0.3404 -0.0199  0.1580
48261W        W91199   8.779  28.738  23.042 -0.1323 -0.1561  0.1123
48262W        W91200   8.856  27.002  20.268 -0.0712  0.2540  0.0679
48263W        W91201  11.385  27.595  20.364 -0.1284 -0.1135  0.1576
48264W        W91202   8.828  29.936  22.050 -0.1439  0.2194  0.0901
48265W        W91203  11.207  29.395  24.085  0.2104  0.1585 -0.0086
48266W        W91204   9.350  28.553  22.942  0.0155  0.0511 -0.2969
48267W        W91205  10.490  28.166  21.561 -0.2217 -0.0779 -0.0013
48268W        W91206   7.045  25.737  22.994  0.0907 -0.1324 -0.0232
48269W        W91207   9.147  26.765  21.403 -0.0922 -0.0727  0.0307
48270W        W91208   9.229  28.502  19.781 -0.0448 -0.3543 -0.1804
48271W        W91209   9.805  26.541  23.125 -0.0284 -0.3238 -0.1121
48272W        W91210   7.774  26.246  20.563 -0.1689 -0.0255 -0.1213
48273W        W91211  10.203  26.225  19.901  0.0744  0.1374  0.0522
48274W        W91212   8.794  29.146  22.679 -0.0361  0.0378 -0.0758
48275W        W91213  10.267  27.682  22.323  0.2181 -0.0699  0.2735
48276W        W91214   6.736  28.019  26.111 -0.1352  0.0379  0.0851
48277W        W91215   8.951  26.041  22.793  0.1597 -0.3530 -0.0630
48278W        W91216  10.647  27.056  23.098  0.0423 -0.0704 -0.2659
48279W        W91217  10.768  27.643  25.075 -0.2301 -0.3296  0.3032
48280W        W91218   8.071  24.610  26.593 -0.0402 -0.2190 -0.3016
48281W        W91219  10.570  28.823  24.722 -0.1284  0.0511  0.1826
48282W        W91220   8.402  25.584  26.871 -0.0641 -0.2667  0.0165
48283W        W91221  11.026  28.948  24.954 -0.0534  0.2615 -0.0866
48284W        W91222   9.551  28.467  25.204 -0.0174 -0.1918 -0.0335
48285W        W91223  10.829  27.553  24.486  0.0216  0.1324 -0.0389
48286W        W91224   8.859  25.782  26.907 -0.0571 -0.0841 -0.0153
48287W        W91225   8.989  28.271  25.822  0.1903  0.0412 -0.1206
48288W        W91226   9.967  26.906  24.331  0.0065  0.1892 -0.0759
48289W        W91227   7.270  25.274  26.384  0.0507  0.0220  0.0543
48290W        W91228   9.242  26.869  26.494 -0.4422 -0.1674  0.1842
48291W        W91229   7.209  26.634  24.749 -0.1643 -0.2713  0.1882
48292W        W91230   9.383  24.724  26.810 -0.0808  0.2279  0.2094
48293W        W91231   9.296  26.332  23.948 -0.0017  0.0466 -0.4795
48294W        W91232  10.066  28.301  25.454  0.1061 -0.0047 -0.0995
48295W        W91233   8.030  24.954  26.174 -0.2459  0.1660 -0.2641
48296W        W91234  12.191  25.178  27.485 -0.2290 -0.1953  0.2599
48297W        W91235  10.173  28.385  23.269 -0.0547 -0.2673  0.1594
48298W        W91236   8.306  26.030  24.140 -0.0069 -0.3140  0.0009
48299W        W91237   7.364  25.870  27.651  0.0248 -0.1801  0.2813
48300W        W91238   8.536  27.894  25.875 -0.1963  0.1404 -0.2826
48301W        W91239   9.449  26.051  25.951 -0.3149 -0.1860  0.1538
48302W        W91240   9.101  25.946  26.417 -0.0386 -0.0456  0.1401
48303W        W91241  10.335  29.176  24.424 -0.1033  0.4128 -0.0524
48304W        W91242  10.950  27.800  26.210 -0.0443 -0.0392  0.3089
48305W        W91243   9.253  25.522  26.726  0.1386 -0.1056 -0.1861
48306W        W91244   8.839  27.097  25.063  0.1606  0.0025  0.0196
48307W        W91245   7.120  29.508  25.453 -0.1313 -0.1659  0.2768
48308W        W91246   9.213  27.794  24.628  0.1357 -0.0810 -0.1482
48309W        W91247  11.771  28.218  24.906 -0.0599  0.0310  0.3457
48310W        W91248  10.289  28.881  25.529  0.3859  0.2766 -0.0203
48311W        W91249   8.717  26.981  26.614  0.0613 -0.1741  0.1081
48312W        W91250   8.059  28.197  23.184  0.1667 -0.1659  0.0563
48313W        W91251   8.480  28.286  27.416 -0.0085  0.0726 -0.0549
48314W        W91252   7.975  26.617  27.788  0.2731 -0.0722  0.0907
48315W        W91253   7.723  27.603  26.248  0.0117  0.0010  0.2630
48316W        W91254   9.844  27.446  24.028  0.2080  0.0630 -0.0022
48317W        W91255   8.317  28.043  24.027 -0.4709 -0.2042  0.1003
48318W        W91256  10.535  27.462  26.002 -0.0367 -0.0372 -0.0902
48319W        W91257   8.162  26.517  27.365 -0.0219 -0.0336  0.0072
48320W        W91258   7.572  27.183  25.446  0.0708  0.2410  0.2019
48321W        W91259  11.963  27.815  28.638 -0.2317 -0.2053 -0.1711
48322W        W91260   6.569  27.402  23.958 -0.2180 -0.4210  0.0789
48323W        W91261  10.229  26.646  23.785  0.2253  0.2209 -0.1684
48324W        W91262   9.169  27.357  24.011 -0.1515  0.1997  0.1521
48325W        W91263   9.462  26.516  24.360  0.1655 -0.0842  0.0894
48326W        W91264   8.255  25.440  24.318  0.0772  0.0721 -0.1336
48327W        W91265   8.375  27.985  25.403  0.0591  0.0173  0.0962
48328W        W91266   9.414  25.971  26.917 -0.1617  0.0367 -0.0132
48329W        W91267  11.449  27.728  27.436  0.1486  0.0285  0.2684
48330W        W91268   9.910  27.574  24.565 -0.2397 -0.2591 -0.1150
48331W        W91269   9.583  26.373  24.866  0.1401  0.0640  0.2076
48332W        W91270   9.269  28.618  26.940 -0.0638  0.0639 -0.3686
48333W        W91271   8.210  26.994  25.802 -0.0469 -0.0608  0.0326
48334W        W91272  10.220  28.697  25.018  0.1870 -0.2821 -0.2775
48335W        W91273   9.560  28.804  24.242 -0.0334 -0.0071 -0.1970
48336W        W91274  10.905  29.676  23.385 -0.1330 -0.2024  0.3612
48337W        W91275   9.087  26.744  25.502  0.3073  0.1280 -0.0346
48338W        W91276   7.008  27.104  26.203 -0.0509  0.1243 -0.1268
48339W        W91277   8.243  26.989  26.663  0.2557  0.1485 -0.2733
48340W        W91278   8.458  25.754  23.640 -0.3267 -0.2591  0.0983
48341W        W91279  10.224  28.387  26.407 -0.0231 -0.3262  0.0468
48342W        W91280   7.450  27.705  26.639  0.0604 -0.0656 -0.2784
48343W        W91281  10.508  25.628  25.694 -0.2637 -0.0961 -0.1470
48344W        W91282   8.199  26.684  24.886  0.0963 -0.0199  0.2615
48345W        W91283  10.095  27.814  25.161 -0.0046  0.1179  0.0798
48346W        W91284  10.455  27.497  23.171  0.0307  0.0312 -0.0411
48347W        W91285  10.236  25.884  27.025  0.0939 -0.1261 -0.0315
48348W        W91286   9.690  26.057  25.445  0.1934  0.0461  0.2526
48349W        W91287   7.769  27.721  23.131 -0.1530 -0.2840  0.1132
48350W        W91288   9.526  26.986  24.096  0.0199 -0.0868 -0.2079
48351W        W91289  10.369  27.917  26.219 -0.0124 -0.1113  0.1663
48352W        W91290  11.115  26.672  22.470  0.0748  0.0361  0.0140
48353W        W91291   8.556  28.393  25.660  0.5030 -0.1064 -0.2103
48354W        W91292   9.720  27.133  26.608 -0.0102  0.1570 -0.1705
48355W        W91293   7.262  29.072  27.501 -0.1067 -0.1596 -0.1358
48356W        W91294   7.571  27.954  24.741  0.2227 -0.1646  0.1675
48357W        W91295   6.635  27.596  26.328 -0.0426  0.2189 -0.5452
48358W        W91296   7.112  28.210  22.754  0.1204  0.0688  0.0353
48359W        W91297   6.013  26.343  26.902 -0.2112 -0.1461  0.1261
48360W        W91298   7.862  27.876  25.286  0.2448 -0.0659 -0.0090
48361W        W91299  10.313  26.500  25.951  0.3896 -0.2015  0.2248
48362W        W91300   8.128  25.712  27.443  0.1179  0.1320  0.1599
48363W        W91301  11.545  25.695  27.008 -0.0500  0.0373  0.1032
48364W        W91302   6.993  27.284  23.801  0.2710 -0.0180 -0.6104
48365W        W91303  11.736  29.491  24.329  0.1431  0.1780  0.2002
48366W        W91304   9.470  27.413  24.376  0.2747  0.1652  0.0638
48367W        W91305  10.578  28.303  22.917 -0.0227  0.0019 -0.1604
48368W        W91306   7.598  26.282  27.225  0.1461 -0.0952  0.0871
48369W        W91307   6.370  25.470  24.387 -0.0528  0.2504  0.0760
48370W        W91308   7.634  25.763  27.252  0.0951  0.2528  0.1230
48371W        W91309   6.916  26.240  24.269 -0.2087 -0.1022 -0.0418
48372W        W91310  10.530  26.352  27.674 -0.0060 -0.3358 -0.3025
48373W        W91311   8.854  25.856  24.994  0.1198 -0.2402 -0.1828
48374W        W91312  10.091  26.593  24.797  0.1387 -0.0888 -0.1959
48375W        W91313   8.886  27.771  25.570  0.0325 -0.0636  0.2468
48376W        W91314   7.695  27.214  25.883  0.2644  0.1305 -0.0625
48377W        W91315  11.388  26.102  27.941  0.0304 -0.1784 -0.0065
48378W        W91316   9.939  29.324  23.717  0.2309  0.2451  0.2628
48379W        W91317  11.146  27.381  26.407  0.0214 -0.2127 -0.3232
48380W        W91318  11.181  28.756  25.352  0.0081 -0.2965 -0.2473
48381W        W91319   7.791  27.216  26.760  0.4145  0.1877  0.0512
48382W        W91320   9.210  26.181  24.663 -0.0110 -0.1006  0.0776
48383W        W91321   7.641  28.427  25.252  0.1145  0.1076 -0.0871
48384W        W91322   8.140  27.760  23.592 -0.3932 -0.1895  0.0149
48385W        W91323   8.673  26.239  24.731 -0.2176  0.0919 -0.3259
48386W        W91324  10.535  27.664  26.968 -0.0146 -0.0174 -0.2625
48387W        W91325   9.471  27.564  23.659  0.3703 -0.2742  0.1686
48388W        W91326   8.016  28.310  25.713  0.3014 -0.1623  0.1444
48389W        W91327  10.693  25.744  26.554  0.3507 -0.1520  0.1122
48390W        W91328  11.618  26.152  28.401  0.0267  0.1079  0.2861
48391W        W91329  10.054  26.537  25.434 -0.4896  0.1175  0.0639
48392W        W91330   6.738  26.515  23.541 -0.1533  0.0731 -0.2515
48393W        W91331  11.854  29.329  25.828 -0.3102  0.1205 -0.0051
48394W        W91332   8.029  29.298  22.903  0.2320 -0.6019 -0.0900
48395W        W91333   7.640  27.150  24.162 -0.0846 -0.0134 -0.2141
48396W        W91334   9.319  28.288  26.434 -0.1302  0.0696 -0.1791
48397W        W91335  11.189  26.474  25.366 -0.0171  0.2088  0.2031
48398W        W91336   8.438  26.194  27.617 -0.0107 -0.3028  0.0434
48399W        W91337   8.895  26.350  27.695 -0.1248 -0.1014 -0.2158
48400W        W91338   8.420  27.010  25.331 -0.1306  0.1724 -0.0361
48401W        W91339   6.113  28.003  26.723 -0.0036 -0.0763  0.0960
48402W        W91340  10.060  26.920  25.818  0.0988 -0.0194  0.0006
48403W        W91341   9.526  26.568  25.305 -0.0505  0.4509  0.4230
48404W        W91342  10.210  27.984  26.713 -0.0624 -0.1069  0.0546
48405W        W91343  12.637  27.909  24.628 -0.0745 -0.0537 -0.3581
48406W        W91344  10.697  25.787  24.415 -0.0142  0.3795 -0.1836
48407W        W91345   9.846  25.907  23.635 -0.1385  0.0016  0.2215
48408W        W91346   7.442  27.413  27.296  0.3641 -0.1803 -0.2007
48409W        W91347  10.525  28.821  23.489 -0.0546  0.0452  0.1480
48410W        W91348   8.170  25.896  26.460  0.0976 -0.1006  0.1854
48411W        W91349  10.810  25.946  23.528 -0.1552  0.1204 -0.1597
48412W        W91350  11.673  28.898  24.431  0.1599  0.0198 -0.1796
48413W        W91351   7.706  28.562  26.020  0.1089  0.4085  0.0989
48414W        W91352   8.978  26.955  26.993 -0.0829 -0.2314 -0.2771
48415W        W91353  11.453  28.672  24.832  0.0966  0.2680  0.0830
48416W        W91354   9.051  24.367  25.820 -0.2217 -0.1168 -0.0498
48417W        W91355   8.847  27.860  23.110 -0.0493 -0.1198  0.0473
48418W        W91356   9.567  25.570  25.690 -0.1158  0.0108 -0.1817
48419W        W91357   7.439  29.187  23.514  0.1888  0.2200 -0.0712
48420W        W91358  12.216  26.662  27.972  0.0213 -0.0139  0.0844
48421W        W91359   9.518  25.150  26.072  0.0587  0.1140  0.2569
48422W        W91360   8.577  24.781  27.502  0.1855  0.0306  0.2168
48423W        W91361  10.194  26.420  27.184  0.2717  0.0458 -0.0036
48424W        W91362   9.616  27.839  24.943 -0.1349 -0.0297  0.0916
48425W        W91363   9.080  27.247  24.647 -0.0933  0.1744  0.1332
48426W        W91364   7.903  26.671  22.341  0.0299 -0.1448 -0.3604
48427W        W91365   8.063  26.412  26.672  0.2339  0.4865 -0.2779
48428W        W91366   6.658  26.842  26.457  0.2456  0.2067 -0.0120
48429W        W91367   7.670  29.331  27.141  0.4035 -0.0992 -0.0896
48430W        W91368   7.449  28.631  27.609 -0.5438  0.1011  0.0009
48431W        W91369   8.422  27.436  25.730 -0.0267  0.0982  0.3964
48432W        W91370  10.420  25.749  27.749 -0.1992  0.0021  0.1005
48433W        W91371   9.426  25.821  25.061 -0.0799 -0.1755  0.1922
48434W        W91372   9.131  28.807  23.950  0.0032  0.0136 -0.2852
48435W        W91373   9.978  27.915  23.168  0.1219 -0.0056  0.1914
48436W        W91374   8.430  26.155  25.161  0.0131  0.1284 -0.1998
48437W        W91375   9.248  27.869  25.881 -0.0949  0.0981 -0.2412
48438W        W91376   7.905  27.584  24.106 -0.3666 -0.1868  0.0219
48439W        W91377   9.759  27.701  26.764  0.1396  0.1377  0.3148
48440W        W91378   7.010  27.083  24.854 -0.2400  0.0603  0.0150
48441W        W91379  10.163  25.732  26.462  0.0116  0.3059 -0.1844
48442W        W91380   7.071  28.559  24.475 -0.1511 -0.3360 -0.4090
48443W        W91381   9.031  26.868  24.134 -0.0156 -0.3302  0.0139
48444W        W91382   8.354  26.456  26.151 -0.0985  0.1238  0.0450
48445W        W91383  10.700  26.404  26.269  0.0624 -0.0490  0.0166
48446W        W91384  10.949  28.468  24.782 -0.1708 -0.2966 -0.2734
48447W        W91385   5.902  25.975  26.575  0.1616  0.0804  0.1737
48448W        W91386   8.991  26.582  23.689 -0.2818 -0.1828 -0.4593
48449W        W91387   6.656  28.505  26.275  0.1156 -0.0817  0.0423
48450W        W91388   8.556  25.956  26.098  0.1328 -0.0015  0.0411
48451W        W91389   8.879  25.551  23.563 -0.0186  0.0604 -0.0506
48452W        W91390   8.920  27.249  25.570  0.0545 -0.1350 -0.1219
48453W        W91391   8.519  25.683  27.835 -0.2226  0.2880 -0.1168
48454W        W91392   7.132  26.397  23.861  0.1033 -0.0220  0.1481
48455W        W91393  11.793  27.237  27.203  0.0636 -0.2145  0.1487
48456W        W91394  10.365  26.182  23.888  0.0440 -0.1656  0.2341
48457W        W91395   6.447  27.942  25.556  0.2338 -0.1332  0.3926
48458W        W91396   9.220  30.122  25.709 -0.3111  0.0516  0.3448
48459W        W91397   8.744  27.151  23.792 -0.3015 -0.1035 -0.0840
48460W        W91398   7.212  29.338  24.024 -0.0725  0.0556 -0.0677
48461W        W91399   6.756  26.324  26.784 -0.2382 -0.2428  0.0425
48462W        W91400   9.737  26.804  26.205  0.0530  0.0758 -0.1872
48463W        W91401   8.164  27.326  26.197 -0.0462  0.3124  0.1646
48464W        W91402   8.055  25.152  23.915  0.0110 -0.2551  0.0592
48465W        W91403   7.520  26.678  24.129  0.1522  0.1176 -0.2193
48466W        W91404  10.767  27.043  26.400  0.0171  0.1709 -0.1028
48467W        W91405   9.533  25.617  27.341  0.0064 -0.1563  0.0256
48468W        W91406   7.810  29.006  27.531 -0.0121 -0.1030  0.0758
48469W        W91407  10.684  25.682  27.049  0.1948  0.0914  0.0550
48470W        W91408  11.740  29.769  24.717  0.0307  0.0298 -0.0361
48471W        W91409  10.903  26.141  26.749  0.0885  0.3384  0.0978
48472W        W91410   7.156  27.254  24.315 -0.1694 -0.2719  0.0572
48473W        W91411   7.491  26.693  26.129 -0.1398  0.1197 -0.1507
48474W        W91412   6.413  27.089  23.566 -0.2407 -0.1832  0.1307
48475W        W91413   9.316  26.651  26.054 -0.0370  0.0581  0.2889
48476W        W91414   8.004  27.357  25.465 -0.0797  0.2310  0.1151
48477W        W91415   7.479  27.081  24.934  0.1455 -0.0080 -0.3534
48478W        W91416   7.171  27.188  25.710 -0.0337  0.0530  0.1767
48479W        W91417  11.017  25.410  24.633  0.0075  0.1588  0.1135
48480W        W91418  10.760  27.575  23.548 -0.1035  0.0511  0.1537
48481W        W91419   7.910  25.749  25.449 -0.0272  0.1857 -0.0651
48482W        W91420  11.806  26.893  27.757 -0.1685  0.1415  0.0198
48483W        W91421  11.191  27.711  25.257  0.1451 -0.0365  0.0332
48484W        W91422   9.539  26.688  26.820  0.2202  0.0311 -0.0881
48485W        W91423   8.760  26.563  25.127 -0.0658  0.1425  0.0321
48486W        W91424  10.027  28.039  25.906  0.1655 -0.0886  0.2646
48487W        W91425   8.884  27.501  27.317 -0.0578 -0.0458 -0.1347
48488W        W91426   9.185  27.924  28.739 -0.1272 -0.3023 -0.1474
48489W        W91427   9.335  27.619  27.374 -0.3970 -0.0196  0.0008
48490W        W91428   9.103  25.192  25.707 -0.1386 -0.1708 -0.1237
48491W        W91429   7.741  26.503  22.965  0.3045 -0.1956 -0.0710
48492W        W91430   9.674  27.586  25.935  0.1276 -0.0262  0.3048
48493W        W91431  10.252  26.968  26.326 -0.3400 -0.1554  0.3020
48494W        W91432  10.387  27.735  24.750  0.1111 -0.1014  0.1207
48495W        W91433   9.982  26.154  25.072  0.0185 -0.0312  0.1835
48496W        W91434   8.919  27.980  27.423  0.1340  0.0952 -0.0010
48497W        W91435  10.289  27.363  25.163  0.5971 -0.2761 -0.1118
48498W        W91436   8.593  26.682  24.059  0.0003  0.2367 -0.0445
48499W        W91437   9.006  27.504  26.098  0.1977  0.1138 -0.0866
48500W        W91438   7.544  24.732  27.519  0.2783 -0.1586 -0.2248
48501W        W91439  11.335  29.245  24.534 -0.2770 -0.1774 -0.0443
48502W        W91440   9.720  26.464  25.769 -0.2690  0.0346 -0.1001
48503W        W91441   8.979  24.861  27.114  0.1379 -0.0581 -0.1151
48504W        W91442  10.050  26.209  26.322 -0.2513  0.1897  0.0224
48505W        W91443   8.704  26.145  27.181  0.0959  0.1831 -0.3631
48506W        W91444   7.361  24.332  29.806 -0.4045 -0.0029 -0.1772
48507W        W91445  11.181  28.266  26.278 -0.1297  0.1159 -0.4214
48508W        W91446  10.917  28.064  23.664  0.1556 -0.2978 -0.0021
48509W        W91447  11.348  24.580  27.791 -0.1364 -0.2800 -0.1095
48510W        W91448  10.498  27.200  25.605 -0.0457 -0.0711  0.1656
48511W        W91449  10.762  26.692  23.984 -0.1090 -0.1101  0.1183
48512W        W91450   8.696  26.774  24.619 -0.1843  0.0241  0.0370
48513W        W91451  10.685  26.709  27.346 -0.2038 -0.2262  0.1469
48514W        W91452   7.997  26.818  23.929  0.1789 -0.3066 -0.0492
48515W        W91453  11.663  26.524  26.187  0.0323 -0.1522  0.1275
48516W        W91454  10.237  27.573  23.713 -0.0430 -0.1528  0.0643
48517W        W91455   9.696  27.378  25.079  0.1716 -0.2530  0.0102
48518W        W91456   9.781  27.148  23.651  0.0714 -0.1973 -0.0030
48519W        W91457   7.887  26.027  25.835  0.0020 -0.0513 -0.2627
48520W        W91458   7.021  30.325  27.831 -0.1633 -0.0826  0.0538
48521W        W91459   8.328  26.961  23.584  0.0865  0.2343  0.2797
48522W        W91460   8.729  27.738  24.668 -0.2563  0.0037  0.2651
48523W        W91461   9.409  27.478  25.530 -0.1484 -0.1933 -0.0858
48524W        W91462  11.058  26.568  26.535 -0.0477 -0.2009 -0.1285
48525W        W91463   9.829  26.272  24.044  0.0311  0.1621 -0.3226
48526W        W91464  12.509  25.899  27.333  0.2211  0.0238  0.1651
48527W        W91465   8.142  27.770  24.884 -0.0688 -0.0418 -0.3259
48528W        W91466   8.737  25.759  25.677  0.0135 -0.0737 -0.3488
48529W        W91467   7.488  28.333  26.630  0.3034  0.0818 -0.0396
48530W        W91468   7.272  28.837  26.408 -0.1279  0.0584  0.1870
48531W        W91469   8.311  27.633  24.367  0.1806 -0.0004  0.0092
48532W        W91470  10.890  25.772  27.560 -0.2771  0.0315  0.0284
48533W        W91471  11.389  26.238  25.828 -0.0092  0.2330  0.0802
48534W        W91472   9.013  27.559  25.067 -0.2386  0.1623  0.2256
48535W        W91473  11.175  26.466  27.074  0.2991  0.1260  0.0477
48536W        W91474   7.988  26.794  26.249 -0.2628 -0.3180 -0.0599
48537W        W91475   8.454  27.223  24.688  0.1458 -0.0979  0.1062
48538W        W91476   7.916  27.966  26.660  0.0762  0.1110 -0.0901
48539W        W91477  11.053  27.242  25.922  0.1815 -0.0199  0.2176
48540W        W91478   7.985  27.950  24.430 -0.2957 -0.0674  0.3452
48541W        W91479   7.166  25.568  27.238 -0.2030 -0.0238  0.2132
48542W        W91480   9.926  27.728  27.243  0.1741 -0.1324  0.2278
48543W        W91481   9.554  26.993  24.721  0.2581 -0.0549 -0.0788
48544W        W91482   8.171  25.099  24.728  0.2851  0.1722 -0.3126
48545W        W91483   9.238  28.044  22.820 -0.3442 -0.1497  0.3226
48546W        W91484   6.817  27.560  28.271  0.2189 -0.2558  0.1739
48547W        W91485   7.771  26.821  27.152 -0.0233 -0.1230 -0.0656
48548W        W91486   7.925  28.587  24.081  0.0663 -0.0842 -0.1146
48549W        W91487  10.711  28.633  25.180  0.0099  0.0126 -0.0006
48550W        W91488  10.669  27.831  24.049 -0.1251 -0.1031 -0.1054
48551W        W91489   9.258  28.610  26.070 -0.3046 -0.0158 -0.0460
48552W        W91490   9.080  25.980  22.283 -0.0827  0.0986  0.0956
48553W        W91491   7.184  27.493  25.290 -0.0464  0.2361  0.1122
48554W        W91492   6.952  28.230  22.032 -0.5272  0.1610  0.2268
48555W        W91493   9.189  26.637  24.816 -0.0247 -0.2526  0.1804
48556W        W91494   7.415  29.531  24.452  0.1682  0.1899  0.0290
48557W        W91495   9.244  27.766  26.837  0.2924  0.1289 -0.0784
48558W        W91496   9.493  25.954  24.271  0.1897 -0.0610  0.0351
48559W        W91497  11.485  27.537  26.085 -0.4079 -0.1159 -0.1540
48560W        W91498  11.624  27.031  26.048  0.3731  0.2373  0.1522
48561W        W91499   8.635  27.431  26.378  0.1076  0.2717 -0.4240
48562W        W91500   9.539  26.972  25.671  0.2648 -0.3332 -0.0937
48563W        W91501   9.724  25.520  24.434 -0.0387  0.2225  0.2654
48564W        W91502   9.172  27.368  26.503  0.2799  0.0788 -0.2845
48565W        W91503  11.772  25.476  27.452  0.2156  0.0727  0.0316
48566W        W91504   7.038  28.074  25.683 -0.1124 -0.1168 -0.1332
48567W        W91505  10.821  29.512  23.787  0.1116 -0.2409  0.2974
48568W        W91506   8.965  26.232  26.039 -0.2258 -0.0633  0.0248
48569W        W91507   9.325  27.098  25.220 -0.2704 -0.2430 -0.0554
48570W        W91508  12.315  26.210  27.765  0.3658 -0.1550 -0.0648
48571W        W91509   8.162  26.925  24.396  0.2136  0.1058 -0.3054
48572W        W91510   9.121  25.385  27.218  0.1502 -0.0716 -0.2807
48573W        W91511   7.995  28.254  24.861  0.0817  0.0758  0.0376
48574W        W91512   8.785  28.552  24.335  0.1976 -0.1547  0.0476
48575W        W91513   8.815  27.934  26.321 -0.0134  0.0997 -0.1207
48576W        W91514   7.798  27.408  24.601 -0.3732 -0.1963  0.2480
48577W        W91515  12.024  26.804  27.000 -0.1016 -0.1148  0.1742
48578W        W91516   8.928  28.555  25.267  0.0412  0.2371 -0.0210
48579W        W91517  11.436  23.951  27.002  0.1029 -0.2393 -0.0432
48580W        W91518   8.295  26.556  25.483 -0.2940  0.1364  0.0423
48581W        W91519  10.855  26.685  25.109 -0.1124  0.0139 -0.0718
48582W        W91520   8.650  26.736  25.790  0.1146 -0.1288 -0.2007
48583W        W91521   8.413  27.275  27.537 -0.0925 -0.0591  0.3847
48584W        W91522  10.714  27.318  23.954 -0.1678  0.2509 -0.0017
48585W        W91523  11.037  26.883  25.556  0.2246 -0.1063  0.0532
48586W        W91524  10.048  27.118  24.755 -0.1964  0.3089 -0.1087
48587W        W91525   8.165  27.849  26.301 -0.0292 -0.0669  0.1684
48588W        W91526   7.751  23.755  27.050  0.0923 -0.1387 -0.1432
48589W        W91527  10.625  26.446  23.531  0.1787  0.0077 -0.1067
48590W        W91528   8.356  26.046  25.659 -0.2282 -0.0586  0.0295
48591W        W91529   8.665  26.115  26.596 -0.1507  0.0396 -0.0034
48592W        W91530  10.599  27.527  26.516  0.0690  0.1387  0.2971
48593W        W91531   7.694  24.990  24.936 -0.2498 -0.1400  0.1235
48594W        W91532   9.992  27.057  22.204  0.0885 -0.1316 -0.1762
48595W        W91533  10.676  26.678  26.777  0.0618  0.1028  0.3006
48596W        W91534   9.835  28.161  23.625  0.0198  0.1708 -0.1434
48597W        W91535  10.744  28.501  25.736 -0.2495  0.1301  0.1140
48598W        W91536  10.417  28.673  27.296 -0.0751  0.2585 -0.0887
48599W        W91537   8.197  26.025  27.030  0.1940 -0.2856  0.0289
48600W        W91538   9.382  27.779  26.366 -0.0331  0.2258 -0.1131
48601W        W91539   9.907  27.313  25.538  0.2025 -0.1016 -0.1185
48602W        W91540   9.031  24.760  26.190  0.1308 -0.1954  0.0667
48603W        W91541   7.500  27.132  26.356 -0.5008 -0.1506  0.0416
48604W        W91542   6.613  27.586  24.603 -0.1671  0.0376 -0.0198
48605W        W91543  11.830  25.996  27.539  0.0353  0.1602  0.0647
48606W        W91544  11.290  25.588  26.598 -0.1103 -0.2350  0.1760
48607W        W91545   9.746  28.035  24.474  0.2899  0.0704  0.3316
48608W        W91546  10.244  24.116  28.536  0.1327 -0.0833  0.3258
48609W        W91547   9.769  28.492  26.642 -0.2980  0.1476 -0.1345
48610W        W91548   8.532  29.157  26.049 -0.1119  0.3231 -0.0462
48611W        W91549   7.439  27.419  23.379  0.0221 -0.2026 -0.1353
48612W        W91550  10.600  28.052  25.776  0.1057 -0.1314  0.1257
48613W        W91551  10.494  28.204  25.011  0.0744 -0.0845 -0.2207
48614W        W91552   9.558  28.273  25.798 -0.1572  0.1261  0.0624
48615W        W91553  10.041  29.009  25.986  0.2216  0.0082 -0.1148
48616W        W91554   9.142  26.225  25.163 -0.2580 -0.0000 -0.1819
48617W        W91555  11.794  28.411  25.837 -0.0138 -0.0015 -0.0618
48618W        W91556   8.615  25.243  25.446 -0.3551 -0.2400  0.0400
48619W        W91557  10.378  26.175  25.585 -0.0321  0.0765 -0.1162
48620W        W91558   9.993  25.598  25.420 -0.4666 -0.2778 -0.0270
48621W        W91559   8.512  26.524  26.812 -0.0679  0.2536 -0.0644
48622W        W91560   7.432  26.984  23.745 -0.4460 -0.1578 -0.0391
48623W        W91561   7.133  27.700  22.369 -0.2314 -0.1848 -0.0748
48624W        W91562   9.062  28.291  24.713 -0.2262 -0.0453  0.0409
48625W        W91563   9.251  24.820  28.129  0.1072 -0.2931  0.0540
48626W        W91564   6.547  25.894  25.949 -0.0273  0.1815  0.0207
48627W        W91565   7.216  26.159  26.376 -0.0151 -0.3925 -0.0821
48628W        W91566   8.026  24.658  24.873  0.1272 -0.1758 -0.0921
48629W        W91567  11.535  28.156  24.515 -0.1238 -0.0896  0.1618
48630W        W91568   7.525  25.150  25.990  0.0142 -0.1151 -0.1103
48631W        W91569   7.784  24.919  24.435 -0.0033  0.0286  0.0570
48632W        W91570   9.579  28.484  24.651 -0.2317  0.0942 -0.1804
48633W        W91571  11.626  28.568  25.322  0.0790 -0.0450  0.0055
48634W        W91572   8.737  26.129  23.896 -0.0375 -0.1464  0.1132
48635W        W91573   9.391  27.307  27.004  0.1938 -0.0371 -0.0002
48636W        W91574   7.918  25.720  23.912  0.0789 -0.1968  0.2886
48637W        W91575  10.427  27.140  26.840 -0.1265 -0.2004 -0.0105
48638W        W91576   8.610  25.765  28.638 -0.0595 -0.0694 -0.0035
48639W        W91577   6.675  24.015  23.792  0.2775  0.2803  0.2750
48640W        W91578   7.260  25.744  26.759 -0.2754  0.3125 -0.1176
48641W        W91579   9.743  27.865  25.536  0.0724 -0.0972  0.1037
48642W        W91580   9.248  28.047  25.381  0.1465  0.2528  0.0777
48643W        W91581   8.740  28.657  26.053  0.0721 -0.0680  0.3417
48644W        W91582   8.743  28.963  25.043 -0.1726 -0.2362  0.2482
48645W        W91583   7.519  24.171  27.452 -0.1174 -0.0353  0.4213
48646W        W91584  10.668  28.325  26.214  0.2476 -0.2241  0.0697
48647W        W91585   7.972  27.417  27.225 -0.1054  0.1224 -0.0776
48648W        W91586  10.570  27.122  24.741 -0.1071 -0.0101  0.1234
48649W        W91587  11.429  26.058  26.632 -0.2412 -0.2691 -0.1017
48650W        W91588  10.523  27.003  24.274  0.0261 -0.0825  0.0262
48651W        W91589   7.863  25.524  26.837 -0.5759 -0.1531 -0.0936
48652W        W91590   7.875  26.799  25.354 -0.0360  0.0183  0.4058
48653W        W91591  11.372  26.612  27.883 -0.0468 -0.1392 -0.0889
48654W        W91592   7.552  25.189  27.098  0.0302 -0.5809 -0.0053
48655W        W91593  10.469  25.994  26.106  0.1698 -0.0686  0.0204
48656W        W91594  10.705  28.086  24.443  0.0002 -0.1316 -0.0687
48657W        W91595   7.794  25.934  24.896 -0.1106 -0.3572 -0.0637
48658W        W91596   7.987  27.169  25.019 -0.0403 -0.2095 -0.4542
48659W        W91597   9.148  26.437  27.260  0.3980 -0.2463 -0.0228
48660W        W91598   8.771  27.352  24.278 -0.2517  0.0809 -0.2374
48661W        W91599  10.673  26.199  27.214  0.4277  0.0336  0.3903
48662W        W91600   8.684  27.688  23.861 -0.2960 -0.2514 -0.1296
48663W        W91601   9.931  28.288  24.943 -0.3278 -0.1056  0.0732
48664W        W91602   8.755  28.387  27.025  0.1213  0.1340  0.1705
48665W        W91603   9.932  28.786  27.394  0.0792  0.4234 -0.0820
48666W        W91604   9.134  29.474  24.438  0.1071  0.1069  0.0865
48667W        W91605  10.664  26.828  25.947 -0.0108 -0.2989 -0.0195
48668W        W91606   8.127  25.202  25.709  0.2457 -0.0866  0.3046
48669W        W91607   8.250  25.163  26.613 -0.1678 -0.1888 -0.2670
48670W        W91608   7.532  27.836  24.244  0.2558 -0.2055  0.1160
48671W        W91609   9.864  26.898  25.146  0.1079 -0.0614 -0.0224
48672W        W91610   7.891  25.058  28.479 -0.0735 -0.3624 -0.1341
48673W        W91611  10.392  25.293  25.309 -0.2630  0.2385 -0.1054
48674W        W91612   8.305  28.754  27.320 -0.0912  0.0583  0.0808
48675W        W91613   9.457  27.173  26.082 -0.1753 -0.2277  0.2663
48676W        W91614  10.183  28.246  30.553  0.2557 -0.1227 -0.0662
48677W        W91615   7.321  27.436  28.165  0.1868  0.1522 -0.0956
48678W        W91616   9.661  25.181  27.521 -0.2071  0.0341 -0.1793
48679W        W91617  10.320  26.888  27.834 -0.1161  0.2185 -0.1831
48680W        W91618   8.369  26.100  29.027 -0.1314 -0.0258  0.0338
48681W        W91619  10.270  28.375  27.763  0.0315 -0.2675 -0.1100
48682W        W91620   9.559  25.905  31.279 -0.0199 -0.0902 -0.1272
48683W        W91621  10.302  27.917  27.492 -0.2238  0.0198 -0.0210
48684W        W91622  10.104  29.575  29.291  0.0991 -0.0058 -0.0376
48685W        W91623  10.238  26.917  27.222 -0.0310 -0.0539  0.0424
48686W        W91624   7.806  25.716  29.938 -0.0861  0.1031 -0.1885
48687W        W91625   8.201  27.301  29.389 -0.1381 -0.0704  0.0357
48688W        W91626   8.356  26.228  28.519 -0.0143 -0.0316 -0.0111
48689W        W91627   7.934  25.817  29.417 -0.0538  0.2387  0.3506
48690W        W91628  10.236  27.787  29.152  0.0177  0.2485  0.0392
48691W        W91629   7.182  27.789  28.540 -0.0610  0.3266  0.3186
48692W        W91630   8.747  25.566  31.114  0.3207  0.1466  0.2828
48693W        W91631   9.335  26.906  27.420  0.1293  0.1115  0.0337
48694W        W91632   8.904  28.890  29.451 -0.0179  0.0672  0.0234
48695W        W91633   8.649  26.143  28.099  0.3534  0.2108 -0.0979
48696W        W91634   9.401  25.563  29.511 -0.1519  0.1051  0.0061
48697W        W91635   7.363  27.149  27.744 -0.1073 -0.2188 -0.1997
48698W        W91636   6.686  26.532  27.394 -0.0362  0.2991  0.1447
48699W        W91637   8.060  26.506  28.839  0.0264 -0.1252  0.1281
48700W        W91638   9.045  26.234  28.992  0.1060 -0.1205 -0.2928
48701W        W91639  10.382  26.775  29.556 -0.0899  0.1662 -0.3961
48702W        W91640  10.172  27.302  28.882 -0.3332  0.0894  0.3847
48703W        W91641   9.301  28.149  27.174  0.2141  0.0445 -0.0424
48704W        W91642   9.906  28.636  27.899  0.0603 -0.0084 -0.1217
48705W        W91643   9.912  26.754  29.718  0.6087 -0.2872 -0.0218
48706W        W91644   7.718  27.704  28.631 -0.0327  0.1449  0.1442
48707W        W91645   7.146  29.092  29.664 -0.0405  0.0678 -0.0617
48708W        W91646   8.484  27.842  27.731  0.0302  0.2623 -0.0034
48709W        W91647  11.331  28.745  27.045 -0.0584 -0.0705  0.1359
48710W        W91648   9.804  30.414  30.213 -0.3719  0.0489 -0.0446
48711W        W91649   9.661  27.239  31.259  0.2016 -0.1392 -0.3831
48712W        W91650   7.237  29.043  29.079 -0.3910  0.1622 -0.0905
48713W        W91651   9.169  28.069  30.144  0.2000  0.1224  0.2458
48714W        W91652   9.269  28.341  30.964 -0.0114 -0.0892 -0.0015
48715W        W91653  10.144  25.731  29.491  0.2206 -0.2622  0.0492
48716W        W91654  10.140  26.485  28.393  0.0269 -0.0878 -0.1892
48717W        W91655   7.847  28.625  26.549  0.0004 -0.1081  0.0815
48718W        W91656   8.646  26.591  29.118 -0.1022 -0.0521 -0.1019
48719W        W91657   7.032  28.223  30.900 -0.0969 -0.0176  0.2160
48720W        W91658   8.501  28.645  30.467  0.0989 -0.0144  0.2876
48721W        W91659  12.148  27.246  30.055 -0.0329 -0.1165 -0.1102
48722W        W91660   8.044  27.981  27.417 -0.1169 -0.2565 -0.0439
48723W        W91661  10.848  26.382  28.645  0.0843  0.0414 -0.2077
48724W        W91662   8.634  25.583  27.315 -0.0741  0.0052 -0.0324
48725W        W91663  10.763  24.847  28.808  0.0057 -0.1584 -0.1231
48726W        W91664   9.076  25.696  28.050  0.1294  0.0398  0.2072
48727W        W91665   8.134  28.900  28.914  0.0573  0.0955 -0.1936
48728W        W91666   8.907  25.166  29.397 -0.0186 -0.1210  0.0183
48729W        W91667  12.308  27.485  30.420  0.0138  0.0441 -0.0705
48730W        W91668   9.794  26.535  28.812 -0.2567  0.0914  0.1736
48731W        W91669  11.198  27.307  30.577  0.0418 -0.1899 -0.0752
48732W        W91670   7.543  28.801  30.100 -0.3034  0.1031  0.0923
48733W        W91671   6.700  26.292  29.473  0.1410  0.1674  0.1077
48734W        W91672  10.595  29.138  27.125 -0.0200  0.1960 -0.0490
48735W        W91673  10.767  27.724  27.482  0.4227 -0.0076 -0.0283
48736W        W91674   8.796  27.939  26.868 -0.3654  0.1143 -0.2650
48737W        W91675   7.096  26.184  28.553 -0.0009  0.0075 -0.1143
48738W        W91676   7.106  26.297  29.761 -0.0566 -0.1276 -0.3739
48739W        W91677   8.214  26.071  30.437  0.1511  0.0125  0.1308
48740W        W91678   7.957  24.735  27.845 -0.1202  0.1433  0.2988
48741W        W91679  11.002  29.475  31.317 -0.0031  0.0777  0.0656
48742W        W91680   7.585  28.220  29.366  0.1516 -0.1215  0.3613
48743W        W91681  11.217  26.488  28.322 -0.2231 -0.4924  0.1327
48744W        W91682   8.013  27.708  29.643 -0.0920  0.0443 -0.0741
48745W        W91683  10.238  28.203  28.749  0.0741 -0.0082 -0.1902
48746W        W91684  10.928  27.305  26.853 -0.1556  0.0207 -0.4070
48747W        W91685  11.147  25.299  28.745 -0.0224 -0.0007 -0.1340
48748W        W91686  10.445  26.113  29.284 -0.1854  0.1595  0.3376
48749W        W91687   8.025  28.045  27.905  0.1931 -0.2785  0.1199
48750W        W91688   7.607  26.332  29.527 -0.1796 -0.0002  0.0493
48751W        W91689  11.833  27.708  30.119  0.3973  0.0140  0.1024
48752W        W91690  11.237  26.809  28.687  0.1920  0.3015  0.3525
48753W        W91691   7.949  28.688  30.382  0.2913 -0.3534 -0.0592
48754W        W91692   9.499  25.920  29.122  0.1447  0.0157 -0.3297
48755W        W91693   8.571  27.880  30.353 -0.3258  0.0742  0.8101
48756W        W91694   6.865  29.044  27.882  0.1982 -0.0222 -0.1579
48757W        W91695   6.243  28.056  29.541  0.0374  0.1935  0.3612
48758W        W91696   7.498  28.777  26.888 -0.0655 -0.1267 -0.2348
48759W        W91697   7.032  25.070   0.082  0.0471  0.0209 -0.0519
48760W        W91698   8.237  27.256  28.820 -0.1842  0.0340 -0.1461
48761W        W91699  11.131  24.522  28.728  0.1739  0.0643 -0.2094
48762W        W91700   8.475  25.275   0.477 -0.0745  0.0122  0.0209
48763W        W91701  10.441  25.226  28.761  0.1299  0.1199  0.1490
48764W        W91702   6.899  27.362  29.466  0.0347  0.1010  0.0211
48765W        W91703   9.850  29.508  26.159 -0.2909  0.0398 -0.0821
48766W        W91704   9.769  26.737  27.296  0.0858  0.1707 -0.2760
48767W        W91705   9.217  28.926  27.408 -0.0553 -0.0652 -0.1395
48768W        W91706   8.101  26.843  29.153  0.0239  0.0041 -0.1613
48769W        W91707   8.377  28.062  28.693  0.0275 -0.1878 -0.2585
48770W        W91708   9.421  27.870   0.200 -0.0033  0.0814 -0.3104
48771W        W91709   7.368  25.858  28.855  0.0029  0.4788  0.2211
48772W        W91710  11.248  27.586  31.067 -0.0489 -0.1056  0.4496
48773W        W91711   6.282  24.535  29.256 -0.1628 -0.0787 -0.2763
48774W        W91712  10.678  27.023  29.227  0.0841 -0.2627  0.0010
48775W        W91713  10.686  26.542  29.159  0.3749  0.2457 -0.1734
48776W        W91714   7.030  26.759  27.734 -0.1970  0.1415  0.0396
48777W        W91715  10.226  24.925   0.689  0.0786 -0.0653  0.0358
48778W        W91716   9.240  28.217  29.148 -0.2016  0.0589  0.1619
48779W        W91717   9.853  30.096  29.802 -0.4400  0.0253 -0.0614
48780W        W91718   9.611  27.779  29.075 -0.1913 -0.3690  0.1703
48781W        W91719   8.062  27.767  30.132 -0.3817 -0.0948 -0.1486
48782W        W91720   7.766  26.157  28.547 -0.5022  0.0342  0.0368
48783W        W91721   7.513  30.273  28.064 -0.0639 -0.0068 -0.1439
48784W        W91722  10.075  29.034  29.178 -0.0277  0.0215  0.0312
48785W        W91723   8.599  23.992  27.995 -0.1946 -0.0601  0.0625
48786W        W91724   9.739  27.510  28.668 -0.0483 -0.0430 -0.6348
48787W        W91725   9.148  26.394  28.196 -0.0578  0.2001 -0.2409
48788W        W91726   7.904  26.741  29.636  0.3479  0.0245  0.0656
48789W        W91727  11.622  26.262  30.020  0.0329 -0.0066  0.0050
48790W        W91728  10.033  27.031  28.486 -0.0907  0.1279  0.1167
48791W        W91729  10.302  26.286  28.842  0.2491  0.0460  0.1240
48792W        W91730   8.348  25.152  27.772 -0.0062 -0.3257 -0.2598
48793W        W91731  10.655  29.753  28.864  0.0773 -0.1117 -0.1173
48794W        W91732   7.131  27.568  27.657  0.2613 -0.0598  0.1698
48795W        W91733   7.492  26.547  28.541 -0.0098 -0.3886 -0.0135
48796W        W91734   7.449  28.265  28.467  0.1531 -0.0677  0.1888
48797W        W91735  11.168  26.842  29.188  0.0139  0.1323  0.2315
48798W        W91736   7.159  26.647   0.167  0.1153  0.3673  0.3031
48799W        W91737   8.893  26.065  31.096 -0.0713  0.0716  0.1580
48800W        W91738   7.233  27.081  29.139 -0.2105 -0.1942 -0.0479
48801W        W91739   9.864  26.998  30.670  0.0473 -0.1363  0.2838
48802W        W91740   9.607  26.171  27.340  0.1468  0.0960  0.1182
48803W        W91741  11.408  25.659  28.274  0.0180 -0.4214  0.1079
48804W        W91742  10.496  28.268  30.952 -0.0069 -0.1042  0.0094
48805W        W91743   9.836  28.136  27.557 -0.2466 -0.1963 -0.0423
48806W        W91744   9.631  25.829  26.440 -0.0044  0.1445 -0.0559
48807W        W91745  11.144  26.319  27.575  0.1858  0.0436 -0.0103
48808W        W91746   8.828  27.267  30.495 -0.0055 -0.2162 -0.1056
48809W        W91747   8.820  27.692  28.283  0.0151 -0.0305 -0.1746
48810W        W91748   7.742  27.319  28.982  0.0297  0.1194  0.1077
48811W        W91749   8.798  25.206  27.602  0.2011 -0.0930 -0.1515
48812W        W91750  10.920  29.550  27.386 -0.0627 -0.1162  0.4369
48813W        W91751   8.205  28.029  29.382  0.0933 -0.0061 -0.1287
48814W        W91752   9.309  26.867  29.639  0.2034  0.0323  0.3067
48815W        W91753   9.525  28.264  29.565  0.1470  0.1904  0.2662
48816W        W91754   8.709  26.023  30.508 -0.0640 -0.3061 -0.0551
48817W        W91755   8.675  27.395  27.908 -0.0989  0.0307  0.2539
48818W        W91756  10.480  25.966  28.410  0.0829  0.2132 -0.2412
48819W        W91757   7.058  29.561  29.557 -0.0041 -0.1689  0.0023
48820W        W91758  10.376  26.769  30.586  0.1084  0.4343  0.1513
48821W        W91759  10.643  25.075  28.168 -0.2141  0.1950 -0.1633
48822W        W91760   9.899  25.247  29.682 -0.0896 -0.1233  0.0573
48823W        W91761  10.517  27.489  31.354  0.0369 -0.0242  0.1026
48824W        W91762  10.072  27.499  26.422 -0.1144  0.1354 -0.1223
48825W        W91763   8.577  26.497  30.414  0.1073 -0.1511 -0.1072
48826W        W91764   8.124  26.359  29.361  0.0179 -0.1116  0.0372
48827W        W91765   8.961  27.547  30.909 -0.0471  0.2746 -0.1446
48828W        W91766   7.702  27.610  30.546 -0.4308 -0.2658 -0.1133
48829W        W91767   7.892  27.261  30.902  0.1370 -0.1101  0.2061
48830W        W91768   9.764  28.090  31.062  0.3406  0.2501  0.1992
48831W        W91769   8.581  27.564  28.718 -0.1085  0.1128 -0.0480
48832W        W91770  10.749  27.237  29.639  0.0912 -0.0918  0.3255
48833W        W91771   9.023  26.359  26.787 -0.3902  0.0616 -0.1271
48834W        W91772   8.198  28.508  28.129 -0.0813  0.2667  0.2427
48835W        W91773   9.984  27.289  27.001 -0.0455 -0.2818 -0.0490
48836W        W91774   8.990  26.028  28.448 -0.3857 -0.0017 -0.2774
48837W        W91775   9.447  27.694  28.201  0.1037 -0.1796  0.4026
48838W        W91776   8.064  30.474  29.278  0.0490  0.1014 -0.1747
48839W        W91777   9.345  27.591  30.441  0.1333  0.0345 -0.0271
48840W        W91778   7.192  28.073  28.009  0.0462  0.0540  0.2160
48841W        W91779  10.400  24.099  30.101  0.0437  0.4257 -0.0010
48842W        W91780   6.822  27.444  30.210 -0.3631  0.1748 -0.1554
48843W        W91781   8.353  25.313  28.659 -0.4069  0.1708 -0.1165
48844W        W91782   6.991  27.217  28.670  0.3222 -0.0014 -0.0940
48845W        W91783  10.551  26.517  28.145 -0.0217 -0.1050  0.1533
48846W        W91784   9.015  28.477  27.469 -0.0346  0.0797  0.1513
48847W        W91785   8.702  25.181  30.143  0.1869  0.3135 -0.1140
48848W        W91786   9.862  26.338  31.302 -0.1369 -0.1054  0.3447
48849W        W91787   7.564  28.317  30.284  0.1127 -0.0356  0.4716
48850W        W91788   9.788  27.768  30.035 -0.1425 -0.1102 -0.0534
48851W        W91789  12.055  25.769  27.139  0.0067  0.2068  0.1529
48852W        W91790   9.996  26.373  29.314  0.0231  0.1667 -0.1055
48853W        W91791  10.088  27.727  30.410 -0.0504 -0.0328  0.1700
48854W        W91792   6.131  27.654  27.184 -0.1258 -0.1572  0.2634
48855W        W91793  11.604  28.265  29.411 -0.1447  0.2890 -0.1367
48856W        W91794   7.874  26.160  27.610  0.1488 -0.0516 -0.1330
48857W        W91795   7.180  28.196  29.796 -0.0277 -0.1510  0.2723
48858W        W91796  10.118  28.931  28.460 -0.0007  0.1794  0.0730
48859W        W91797   8.510  26.578  27.990 -0.0877 -0.2110  0.1007
48860W        W91798   8.411  28.848  29.428  0.0318 -0.0004  0.0100
48861W        W91799   9.560  26.778  31.024  0.0859  0.2845 -0.0062
48862W        W91800  11.255  28.948  29.920  0.2521  0.1016  0.0913
48863W        W91801   8.241  26.138  29.858  0.0606 -0.0076  0.0909
48864W        W91802   9.701  26.816  27.814  0.5262  0.0809 -0.3755
48865W        W91803  10.432  26.735  28.636 -0.0411  0.2012  0.0474
48866W        W91804   9.109  27.664  29.112 -0.1816 -0.2931  0.1995
48867W        W91805   9.787  27.360  29.261  0.1778  0.4344  0.0025
48868W        W91806   7.981  27.107  29.911 -0.1072  0.1300  0.1011
48869W        W91807   8.983  26.558  29.460  0.1257  0.0990  0.0960
48870W        W91808  11.702  30.371  28.271 -0.0403  0.0569  0.0903
48871W        W91809  10.655  27.521  29.217  0.1170 -0.3460 -0.2513
48872W        W91810   6.890  26.288  27.813 -0.2185  0.1468 -0.2744
48873W        W91811   7.013  27.043  28.220  0.0709  0.0812 -0.2747
48874W        W91812   7.895  26.533  28.280 -0.2020 -0.1054  0.1984
48875W        W91813   8.689  26.136  29.412  0.0971 -0.1526  0.0799
48876W        W91814   8.693  27.954  29.046 -0.1690 -0.0115  0.0707
48877W        W91815   7.448  28.371  27.159 -0.1346  0.2141  0.2547
48878W        W91816   7.458  28.485  30.894 -0.4900 -0.0757  0.0017
48879W        W91817  11.645  25.182  28.337  0.1352 -0.2670 -0.0578
48880W        W91818   9.584  29.042  26.085 -0.0195 -0.1991  0.3022
48881W        W91819   9.444  26.264  28.595 -0.1504  0.1672 -0.0110
48882W        W91820  10.722  26.304  29.718  0.1250 -0.2514 -0.0267
48883W        W91821  10.512  27.720  28.725 -0.1775 -0.1491  0.4219
48884W        W91822  10.222  27.084  30.010 -0.0786 -0.1743 -0.0807
48885W        W91823   7.351  25.487  29.784 -0.1540 -0.0919 -0.0115
48886W        W91824   9.638  26.656  28.326 -0.3203 -0.0758 -0.0229
48887W        W91825   7.546  26.629  29.169 -0.0360  0.1203  0.3379
48888W        W91826   9.013  28.267  31.382  0.0691  0.2727 -0.1575
48889W        W91827   8.961  26.987  31.749 -0.0634  0.0796  0.0949
48890W        W91828  10.150  26.144  28.017 -0.1366  0.0323 -0.1138
48891W        W91829   7.865  23.940  27.660  0.0558 -0.0486  0.2666
48892W        W91830   7.113  24.967  29.647  0.1492  0.3794  0.1612
48893W        W91831  11.605  27.463  27.829  0.1030  0.0786 -0.0430
48894W        W91832   8.739  26.959  27.711  0.0334 -0.1675  0.1683
48895W        W91833  11.266  27.137  30.014 -0.0083 -0.2047 -0.2038
48896W        W91834   7.604  27.924  29.878 -0.0709 -0.0909 -0.1620
48897W        W91835  10.342  25.538  28.189 -0.0555 -0.0741  0.1041
48898W        W91836   9.754  27.679  27.759  0.1424 -0.2012  0.1693
48899W        W91837   7.594  26.096  28.104 -0.1431 -0.1268 -0.1159
48900W        W91838   8.942  25.684  29.227  0.2453  0.1085  0.2047
48901W        W91839   9.497  26.482  30.389  0.2662 -0.1114  0.1706
48902W        W91840  10.044  25.442  27.369  0.3320  0.0669  0.0577
48903W        W91841  11.117  26.276  29.292  0.1281  0.0066 -0.0726
48904W        W91842  10.758  27.302  30.887 -0.0172  0.2752 -0.2551
48905W        W91843   9.350  27.195  30.824 -0.0748  0.0323 -0.0966
48906W        W91844   8.294  25.247  31.949 -0.2006  0.1931 -0.0914
48907W        W91845  10.375  28.590  28.211  0.1638 -0.1861  0.2026
48908W        W91846  10.816  27.078  28.761 -0.3089 -0.2339 -0.0566
48909W        W91847  11.347  26.010  30.965  0.2105  0.1890 -0.2513
48910W        W91848   9.132  27.288  28.206  0.0574  0.1191  0.1234
48911W        W91849  10.164  27.540  28.415  0.0612 -0.3026  0.2679
48912W        W91850   7.356  26.776  29.629  0.4714  0.2460 -0.0195
48913W        W91851  11.415  26.875  30.463 -0.0503  0.1416  0.0556
48914W        W91852   7.745  26.053  26.722  0.0725 -0.1029 -0.3226
48915W        W91853   8.118  26.643  30.092  0.0974 -0.1888  0.0780
48916W        W91854   9.053  28.274  28.355 -0.0444  0.2143 -0.1917
48917W        W91855   8.121  27.483  27.843  0.3766 -0.0227 -0.2451
48918W        W91856  10.851  26.203  27.957  0.0013 -0.1019 -0.0227
48919W        W91857   7.954  27.031  28.432 -0.0669  0.0484  0.2135
48920W        W91858   8.496  27.068  30.823 -0.0180  0.1734  0.0725
48921W        W91859   8.153  25.463  28.075 -0.2478  0.0673 -0.0664
48922W        W91860   9.824  27.209  27.486  0.0321  0.0581  0.0614
48923W        W91861  10.315  29.125  29.966 -0.1121 -0.0159  0.0165
48924W        W91862  11.611  27.421   0.229  0.0247 -0.1070  0.0106
48925W        W91863   9.170  26.833  27.942  0.0481  0.1079  0.0064
48926W        W91864  11.139  26.967  30.960 -0.0595 -0.0459  0.1105
48927W        W91865   7.521  28.136  27.579  0.0974  0.0705  0.0278
48928W        W91866  11.173  26.166  29.903 -0.1576  0.0510 -0.1355
48929W        W91867   8.391  28.460  29.140 -0.0434 -0.0489 -0.0976
48930W        W91868   7.674  26.021  30.431 -0.0316 -0.1468 -0.0679
48931W        W91869   9.655  28.872  30.172  0.0416  0.0284  0.2789
48932W        W91870   9.189  25.721  28.809  0.1435 -0.1753 -0.2100
48933W        W91871  10.682  26.954  30.033 -0.1817 -0.3240  0.1440
48934W        W91872   9.129  26.721  28.992 -0.1482 -0.0602 -0.1716
48935W        W91873  12.034  26.903  30.383  0.1158  0.1387 -0.3636
48936W        W91874   8.777  27.016  29.838  0.1809  0.0317  0.1371
48937W        W91875   8.033  28.851  29.860 -0.1322 -0.0129  0.1299
48938W        W91876   9.843  29.741   0.373  0.1764  0.2243  0.0268
48939W        W91877  11.742  26.634  28.271  0.2487  0.0066 -0.2479
48940W        W91878   8.472  26.838  29.510 -0.0447 -0.0443 -0.2308
48941W        W91879   6.682  26.879  31.466  0.4418 -0.0164 -0.0745
48942W        W91880  10.959  27.256  31.346  0.2145  0.0516  0.0887
48943W        W91881   9.651  27.006  28.800  0.0051  0.0801 -0.0929
48944W        W91882   8.390  24.937  28.218 -0.2107  0.0040 -0.2183
48945W        W91883   8.633  27.422  26.872 -0.2276  0.2153 -0.1429
48946W        W91884   8.206  27.482  30.577 -0.1150  0.0104 -0.2044
48947W        W91885   8.126  27.712  29.014  0.1658  0.1924 -0.2622
48948W        W91886   6.975  27.897  26.558  0.1854  0.0470  0.0414
48949W        W91887  10.455  29.446  27.538 -0.1433  0.2075 -0.1429
48950W        W91888   7.904  28.198  28.960 -0.0583 -0.2281 -0.1591
48951W        W91889  10.309  31.006  29.587 -0.0238 -0.0130  0.0223
48952W        W91890   8.384  26.750  28.491  0.0339  0.1865 -0.1440
48953W        W91891   7.638  27.429  30.035 -0.1411  0.2577  0.0040
48954W        W91892   7.183  27.703  29.684  0.2422 -0.2578  0.0229
48955W        W91893  10.555  28.464  26.770  0.3403 -0.2558 -0.2099
48956W        W91894   7.786  29.118  28.423 -0.1641  0.1725  0.2166
48957W        W91895   9.743  27.588  30.785 -0.2593 -0.2030 -0.2112
48958W        W91896  11.845  26.327  27.885 -0.1762 -0.1785 -0.2003
48959W        W91897  10.871  26.800  27.801  0.0355 -0.1412 -0.0249
48960W        W91898  10.832  27.597  28.301 -0.0718  0.0206  0.0277
48961W        W91899  10.213  27.958  31.315  0.1973  0.1446 -0.0388
48962W        W91900   9.708  26.849  29.267  0.2291 -0.0240  0.0666
48963W        W91901   9.089  25.895  27.425  0.1140 -0.2182 -0.0095
48964W        W91902   9.426  26.403  29.278 -0.1412  0.0098 -0.0770
48965W        W91903  11.336  26.419  30.693 -0.1959  0.0794  0.1691
48966W        W91904   7.255  27.337  30.434 -0.1647  0.0401  0.1943
48967W        W91905   9.137  28.761  28.424 -0.1973  0.0658  0.1061
48968W        W91906   8.164  25.782  28.698 -0.0217 -0.1351 -0.0788
48969W        W91907   8.401  27.286  28.342 -0.0974 -0.0838 -0.0147
48970W        W91908  10.186  25.997  29.916 -0.0145  0.0275  0.3169
48971W        W91909   8.730  28.960  27.562  0.1042  0.0958 -0.0250
48972W        W91910   8.810  26.486  28.566 -0.0453 -0.1650 -0.0235
48973W        W91911   7.401  28.015  28.911  0.2007 -0.3595 -0.1768
48974W        W91912   8.506  29.395  29.852  0.0644  0.1268 -0.4993
48975W        W91913   9.414  28.673  29.314  0.2191  0.0546  0.3268
48976W        W91914   8.223  24.790  28.739  0.1636 -0.0926  0.0984
48977W        W91915  12.199  25.985  28.686 -0.0805 -0.0896  0.0586
48978W        W91916   8.835  24.553   1.648 -0.0361  0.0068  0.3162
48979W        W91917  10.669  26.007  30.114 -0.1544  0.0604 -0.3959
48980W        W91918   8.786  27.080  28.791 -0.0965  0.0967  0.0386
48981W        W91919   9.471  28.343  28.064  0.0325 -0.0994  0.0513
48982W        W91920   9.113  26.632  30.032 -0.0206 -0.3708  0.1933
48983W        W91921   6.524  27.103  29.919  0.0938  0.3008  0.0907
48984W        W91922   8.219  26.970  27.968 -0.2269 -0.0875 -0.2089
48985W        W91923  10.231  27.739  30.852  0.2784 -0.1127  0.0688
48986W        W91924   8.986  27.010  26.021 -0.1485  0.1531  0.0336
48987W        W91925  10.160  28.670  30.217 -0.0548  0.1586 -0.1267
48988W        W91926   7.700  25.170  30.007 -0.1599 -0.1314  0.0799
48989W        W91927  10.023  26.490  27.682  0.0122  0.0934 -0.2150
48990W        W91928   7.778  26.125  29.037  0.0725  0.1722  0.2060
48991W        W91929  10.389  27.581  30.040  0.0452 -0.2539  0.1726
48992W        W91930  11.434  29.070  31.135 -0.0222  0.0564  0.1271
48993W        W91931   8.546  24.505  28.401  0.0056 -0.1310 -0.2427
48994W        W91932   9.674  28.021  28.506  0.1529  0.1201 -0.2487
48995W        W91933  10.983  27.807  28.749 -0.2706 -0.1920  0.0278
48996W        W91934   9.019  29.104  25.986 -0.0491  0.0691  0.3513
48997W        W91935   9.602  27.202  28.300  0.0950 -0.0918  0.0862
48998W        W91936   9.337  27.182  29.234  0.0154 -0.0495 -0.1627
48999W        W91937   7.943  26.274  30.896  0.0626  0.0177 -0.0795
49000W        W91938  10.668  28.302  30.475  0.4055 -0.2165 -0.3364
49001W        W91939   9.838  30.670  29.019 -0.3905 -0.0535 -0.0800
49002W        W91940   9.251  25.256  27.874 -0.0402  0.0553  0.4279
49003W        W91941   7.632  27.204  29.553 -0.2684 -0.3727 -0.2296
49004W        W91942   7.746  27.222  28.054  0.3147 -0.2223  0.3223
49005W        W91943  10.864  27.379  30.226  0.0172 -0.0897  0.2403
49006W        W91944  10.951  25.165  30.183  0.3006 -0.1063 -0.0913
49007W        W91945   8.876  28.183  27.890 -0.0801 -0.1350  0.2595
49008W        W91946  10.082  25.080  31.054  0.0111  0.0219 -0.1335
49009W        W91947  10.845  26.931  30.495  0.1280  0.1279 -0.0727
49010W        W91948   9.121  29.199  31.231  0.1409  0.2503  0.0069
49011W        W91949   6.742  26.603  28.187  0.0147  0.0747  0.0153
49012W        W91950   9.802  26.878  30.190  0.0283 -0.2255 -0.1473
49013W        W91951   8.614  27.506  29.218 -0.0367 -0.0254 -0.0628
49014W        W91952   9.631  29.263  27.322 -0.0909 -0.1905 -0.3270
49015W        W91953   9.913  28.434  28.434  0.2182 -0.0368  0.1160
49016W        W91954  11.556  26.732  29.884  0.0706  0.0347  0.0786
49017W        W91955  10.059  28.261  29.838 -0.1503  0.1877  0.1738
49018W        W91956   8.754  26.087  30.031 -0.1042  0.2243  0.3459
49019W        W91957  10.698  25.982  28.892  0.2062 -0.0956  0.0457
49020W        W91958  11.089  25.970  28.498  0.0002  0.0818 -0.2972
49021W        W91959   7.341  25.825  29.390 -0.2844 -0.0417 -0.0820
49022W        W91960   7.768  25.541  28.404 -0.1858 -0.1812  0.3009
49023W        W91961   7.261  26.669  27.268 -0.6237 -0.0375 -0.2673
49024W        W91962   7.722  29.010  29.489  0.0361 -0.3028  0.2554
49025W        W91963   8.750  24.385  31.100 -0.2390 -0.0472  0.1183
49026W        W91964   9.919  26.275  30.388  0.3196  0.0045  0.0022
49027W        W91965   6.782  26.764  29.185  0.2926  0.0908  0.0284
49028W        W91966   8.862  25.344  28.687  0.2704 -0.2039 -0.0934
49029W        W91967  10.318  27.394  27.395  0.0074  0.0951  0.0861
49030W        W91968   7.270  27.004  30.793 -0.0555 -0.1246  0.0643
49031W        W91969   8.623  25.026  28.964 -0.2290  0.2597  0.0064
49032W        W91970   9.102  27.612  27.783  0.1148 -0.0389 -0.4465
49033W        W91971   9.749  28.908  26.940  0.0312  0.2197  0.2697
49034W        W91972   8.378  25.170  29.449  0.4938  0.0837 -0.1406
49035W        W91973   9.880  28.811  31.541 -0.0419  0.0273 -0.1035
49036W        W91974   8.524  27.518  25.243  0.0842  0.0273 -0.2086
49037W        W91975   9.573  26.470  29.899 -0.1085 -0.0093  0.0031
49038W        W91976   8.961  25.446  29.789 -0.3474  0.1705  0.0155
49039W        W91977   8.324  24.397  27.962  0.0983 -0.0220  0.0806
49040W        W91978   9.358  25.791  30.001 -0.2138 -0.0324 -0.0419
49041W        W91979  10.068  27.289  27.938  0.2363  0.0809 -0.0271
49042W        W91980  10.099  30.203  26.100  0.1066 -0.0274 -0.0728
49043W        W91981   8.602  26.566  30.931 -0.2002 -0.0098  0.2734
49044W        W91982  10.609  28.565  30.038 -0.0340  0.0969  0.0342
49045W        W91983   8.675  25.616   0.849 -0.0663 -0.2050  0.2690
49046W        W91984   9.787  28.056  26.390  0.1057  0.1251  0.0276
49047W        W91985   9.139  26.039  29.563  0.0406  0.1298 -0.2914
49048W        W91986  10.628  28.157  27.167 -0.1794 -0.0415 -0.0340
49049W        W91987  11.601  25.581  29.383 -0.2184  0.1254 -0.0590
49050W        W91988   9.391  26.426  27.741  0.0261 -0.1467 -0.0196
49051W        W91989   8.788  24.786  31.314  0.1367  0.2083 -0.0042
49052W        W91990   8.200  27.507  31.602 -0.0944 -0.0008 -0.0775
49053W        W91991  10.710  27.767  30.999 -0.1842 -0.1728  0.1748
49054W        W91992   8.513  25.683  29.615  0.0449 -0.0591 -0.1582
49055W        W91993  10.896  25.714  28.047 -0.0111 -0.3626 -0.0303
49056W        W91994   9.963  29.199  27.688 -0.0733  0.3180  0.0080
49057W        W91995   5.828  28.304  29.783 -0.1013  0.1755 -0.0339
49058W        W91996  10.086  26.641  26.640 -0.4199 -0.1278  0.1766
49059W        W91997   8.391  27.093  30.235 -0.2543  0.2182  0.2380
49060W        W91998  10.215  26.795  29.057 -0.0156  0.0944  0.3324
49061W        W91999   8.870  27.611  30.067  0.0921 -0.1938 -0.1163
49062W        W92000   8.765  26.938  28.242 -0.3431  0.0660  0.0023
49063W        W92001  11.539  28.315  26.684 -0.1671 -0.1733  0.2831
49064W        W92002  10.520  29.083  30.906  0.2273  0.0118 -0.0355
49065W        W92003  10.030  30.476   0.348 -0.0096 -0.0403  0.0577
49066W        W92004  10.426  29.493  30.432  0.0309  0.3903 -0.2374
49067W        W92005  10.250  27.271  29.405 -0.1311  0.0336  0.0369
49068W        W92006   8.308  25.792   0.295 -0.1345 -0.1559  0.2500
49069W        W92007   8.911  24.488  28.880  0.2196 -0.4032 -0.2028
49070W        W92008   9.174  26.858  28.461 -0.0119  0.0276  0.1942
49071W        W92009  10.740  27.809  30.493  0.0489 -0.3934  0.3192
49072W        W92010   8.836  27.052  29.312 -0.1527  0.1847  0.1355
49073W        W92011  10.293  25.708  28.778  0.2516  0.2209 -0.3570
49074W        W92012   8.976  26.943  30.911  0.1027  0.1595 -0.1531
49075W        W92013   8.579  26.542  29.932 -0.3406 -0.1378  0.0215
49076W        W92014  12.048  25.747  31.713 -0.2901 -0.1264  0.0636
49077W        W92015  11.629  27.055  31.805  0.1171 -0.0564 -0.1834
49078W        W92016  10.005  25.425   0.093  0.2466  0.2765  0.1666
49079W        W92017   8.171  26.994  31.242  0.6903 -0.0638  0.2166
49080W        W92018   7.524  28.166   1.011  0.1414 -0.1127  0.1944
49081W        W92019   8.280  28.058  31.370 -0.0123 -0.1925 -0.2639
49082W        W92020  10.659  26.495  30.255 -0.0643  0.1743  0.1656
49083W        W92021   8.547  24.852  31.745 -0.1464  0.0545 -0.1946
49084W        W92022  11.237  27.363  29.577  0.0179 -0.0329  0.0876
49085W        W92023  11.238  29.865  31.803 -0.2017 -0.1098 -0.0829
49086W        W92024   9.068  27.557   0.035  0.0269 -0.1789  0.1685
49087W        W92025   9.334  23.982   1.723  0.0577 -0.1289  0.0050
49088W        W92026  11.755  27.715  31.125  0.0024 -0.0336 -0.1049
49089W        W92027   9.011  27.995  30.648 -0.1186 -0.1765  0.3497
49090W        W92028  11.554  27.697  30.654 -0.0899 -0.0990  0.3458
49091W        W92029   6.273  27.978  30.042 -0.1146 -0.1258 -0.3475
49092W        W92030   9.789  27.336  30.314  0.0865  0.1536 -0.3327
49093W        W92031   9.531  28.085  30.597  0.0942 -0.0912 -0.0523
49094W        W92032  10.156  24.532   1.122 -0.0020  0.1168 -0.1450
49095W        W92033   9.260  26.488  31.315 -0.1506 -0.0775  0.0943
49096W        W92034   8.878  24.049   1.556 -0.0051 -0.2350  0.0093
49097W        W92035   8.535  27.964   0.617  0.1691  0.0826 -0.0922
49098W        W92036  11.717  26.787  28.748 -0.0547  0.0631 -0.2695
49099W        W92037   9.907  25.189  31.623 -0.2022 -0.0569  0.2281
49100W        W92038   9.792  27.241  29.744 -0.1249 -0.0906  0.0985
49101W        W92039  10.106  27.310  31.035 -0.2039 -0.0091  0.1810
49102W        W92040   9.487  27.562  31.629  0.2034  0.1713 -0.1383
49103W        W92041   8.216  27.381   0.565  0.3458  0.0549  0.0450
49104W        W92042   7.613  26.759  30.025  0.0633 -0.2784  0.1285
49105W        W92043   9.310  27.193  30.060 -0.1880  0.2871 -0.0353
49106W        W92044   8.259  29.207   0.593 -0.0576 -0.0606  0.4317
49107W        W92045  10.294  24.867  31.829  0.1203 -0.4606 -0.0549
49108W        W92046  11.812  28.124   0.081  0.1078 -0.3231  0.0337
49109W        W92047  10.464  26.225  30.659  0.0710  0.0373  0.0568
49110W        W92048   8.075  25.737  31.739  0.2859  0.2511 -0.0614
49111W        W92049   9.018  26.489  30.590 -0.0282 -0.0271 -0.0314
49112W        W92050   8.038  28.543  31.853  0.2960  0.0583  0.0608
49113W        W92051   9.710  28.346  30.194  0.1748  0.1930  0.3279
49114W        W92052  10.460  27.007  31.155  0.2494 -0.0248  0.2774
49115W        W92053  10.844  26.509  30.716 -0.0528  0.1089 -0.1140
49116W        W92054  11.628  25.905  31.329  0.0230 -0.0655 -0.0622
49117W        W92055   9.322  27.834  31.175 -0.0880 -0.0448  0.1047
49118W        W92056   8.257  24.699  31.271  0.0491  0.3744  0.0402
49119W        W92057   8.544  28.244  31.883 -0.2354 -0.2145  0.0258
49120W        W92058   8.646  23.960  30.869  0.2428 -0.3208 -0.0251
49121W        W92059  10.417  27.349  30.489 -0.0310  0.2832 -0.0193
49122W        W92060  10.373  25.389  30.831 -0.4267  0.0113 -0.0042
49123W        W92061   9.719  27.633   0.941 -0.2277  0.5682  0.0955
49124W        W92062  12.492  28.336  30.308 -0.0686 -0.0578  0.1191
49125W        W92063   7.842  27.089  30.396  0.0268  0.1000 -0.0764
49126W        W92064   8.734  27.846  31.691 -0.0411  0.1655 -0.1641
49127W        W92065  10.842  26.135  31.077  0.0620  0.0859  0.3434
49128W        W92066  10.009  26.841  31.212 -0.0154 -0.1776 -0.2707
49129W        W92067  10.123  29.801  31.939  0.0463  0.0940  0.1785
49130W        W92068   8.683  26.986  31.289 -0.1107  0.1218  0.2999
49131W        W92069  10.879  27.712  29.820  0.1715  0.1238 -0.3425
49132W        W92070  10.209  27.361   0.085 -0.1134  0.3737  0.3096
49133W        W92071   9.563  28.297   0.027  0.0901 -0.2816 -0.0100
49134W        W92072  10.133  29.069  31.189  0.0890  0.2401 -0.1190
49135W        W92073   9.823  27.886  31.671 -0.1061 -0.1146 -0.0420
49136W        W92074   8.979  27.455  31.442  0.0847 -0.0378 -0.1960
49137W        W92075   7.848  28.799  30.930 -0.2068  0.1698 -0.1194
49138W        W92076   8.364  26.000  30.910 -0.1148 -0.0996  0.3487
49139W        W92077   6.548  25.146  31.369  0.0585 -0.1620 -0.0870
49140W        W92078   9.504  27.031   0.748  0.1268  0.1579 -0.3875
49141W        W92079  10.907  27.971   0.049  0.0214  0.0769 -0.1759
49142W        W92080  11.383  26.817  31.400 -0.2103 -0.3718  0.1175
49143W        W92081   7.594  32.140  18.766  0.0050 -0.0696  0.0629
49144W        W92082   7.521  29.826  17.132  0.0182 -0.2155 -0.1398
49145W        W92083   8.807  29.092  15.747 -0.1952  0.2059  0.0293
49146W        W92084  10.802  30.235  15.420 -0.2424 -0.0460  0.0266
49147W        W92085   8.369  29.694  16.873  0.0490  0.0026  0.2388
49148W        W92086  10.085  32.491  15.846  0.0496 -0.1381  0.0540
49149W        W92087   8.536  28.913  18.842 -0.1599  0.3089  0.0550
49150W        W92088  10.071  31.277  18.964  0.1585  0.0540 -0.1077
49151W        W92089  11.176  31.844  17.875  0.0149  0.0819 -0.1314
49152W        W92090   9.251  31.533  15.717 -0.1516  0.0009  0.1972
49153W        W92091  10.170  29.627  18.385 -0.1580 -0.0298 -0.0769
49154W        W92092   6.939  32.081  18.733 -0.0225  0.0317 -0.1795
49155W        W92093   8.302  28.870  16.696  0.1315 -0.1260 -0.0357
49156W        W92094   7.818  30.147  18.703  0.1880  0.0352 -0.1776
49157W        W92095   9.954  31.576  19.905  0.1335 -0.2089  0.1169
49158W        W92096   8.488  31.156  16.264  0.0998 -0.1866  0.4154
49159W        W92097   8.728  31.947  18.365  0.1685 -0.0490 -0.0324
49160W        W92098   8.591  30.965  18.077 -0.3904 -0.2315 -0.1255
49161W        W92099   9.414  31.933  16.078  0.0595 -0.0124  0.0812
49162W        W92100   9.166  30.063  17.715  0.1186  0.0556 -0.2491
49163W        W92101   8.532  29.443  19.050  0.0230  0.1356 -0.0128
49164W        W92102   8.517  32.111  16.408  0.3369 -0.0477  0.1428
49165W        W92103   5.968  30.317  16.004 -0.1660 -0.0503  0.0056
49166W        W92104   6.872  30.020  17.270  0.1348  0.0358  0.0818
49167W        W92105   7.649  31.134  18.168  0.0008 -0.3697  0.2151
49168W        W92106  11.199  31.501  18.175 -0.1890  0.1098 -0.2622
49169W        W92107  10.088  31.148  19.448 -0.2493  0.1184  0.0294
49170W        W92108   7.676  31.748  17.199 -0.3674 -0.2295  0.0667
49171W        W92109   7.613  32.437  18.307 -0.2298 -0.1295 -0.0070
49172W        W92110   9.159  30.914  19.946  0.1361 -0.2972  0.1917
49173W        W92111   7.326  30.877  17.490  0.1754  0.1119 -0.0374
49174W        W92112   6.496  33.091  17.203 -0.1135  0.1390  0.0625
49175W        W92113   7.170  31.658  16.791 -0.1313 -0.1474 -0.1952
49176W        W92114  10.937  33.676  17.660  0.0854  0.2875  0.0997
49177W        W92115   9.207  31.821  18.267  0.2525 -0.0342  0.4033
49178W        W92116   6.424   0.150  19.563  0.3340  0.0220  0.0237
49179W        W92117   7.499  32.378  16.022  0.1236 -0.1016 -0.0145
49180W        W92118   9.403  32.417  18.890 -0.1096 -0.0263 -0.0252
49181W        W92119   7.189  32.941  20.241 -0.2626 -0.0172 -0.1094
49182W        W92120   9.037  31.035  18.979  0.4886  0.0123  0.0622
49183W        W92121  10.177  30.151  18.371 -0.0193 -0.0036 -0.4065
49184W        W92122   8.058  31.851  16.580  0.2837 -0.0200 -0.2783
49185W        W92123   8.782  30.421  18.075  0.4170  0.0720  0.1080
49186W        W92124   8.791  31.631  19.309  0.0089 -0.1514  0.1082
49187W        W92125   8.171  31.705  17.055  0.1768  0.0840  0.0054
49188W        W92126  10.684  29.060  17.541  0.3071 -0.2611 -0.2112
49189W        W92127   7.205  32.034  16.414  0.1787  0.1500  0.2664
49190W        W92128   9.646  30.288  16.490  0.2064 -0.1557  0.1144
49191W        W92129   9.217  29.366  15.892 -0.1850  0.0811  0.1452
49192W        W92130  11.294  31.060  17.734  0.0264 -0.0498  0.2143
49193W        W92131   8.916  29.062  17.839  0.0709  0.2110 -0.1982
49194W        W92132   6.956  33.963  19.478  0.1263 -0.0096 -0.0240
49195W        W92133   8.424  29.672  17.727  0.2369 -0.0446  0.2182
49196W        W92134   9.955  32.140  20.058 -0.0540 -0.1777 -0.1756
49197W        W92135   9.137  31.443  17.287 -0.3102  0.0877 -0.1406
49198W        W92136   8.936  29.573  17.635  0.0655  0.0514  0.0925
49199W        W92137   6.783  32.396  19.335  0.0390 -0.1755  0.0187
49200W        W92138   5.625  29.908  17.061  0.1285  0.0770 -0.2930
49201W        W92139  10.628  33.075  15.439 -0.4064  0.1867 -0.0755
49202W        W92140  10.607  32.720  16.762  0.1784  0.0395 -0.0172
49203W        W92141  10.506  33.280  14.929  0.1263  0.0684 -0.2234
49204W        W92142   6.868  32.042  16.884  0.3094 -0.3858 -0.2411
49205W        W92143   8.000  31.983  19.570  0.0304 -0.0380 -0.0344
49206W        W92144   7.781  30.935  19.840 -0.3271  0.0335  0.2040
49207W        W92145   8.803  29.911  16.621 -0.2047  0.2153 -0.0580
49208W        W92146  10.853  32.436  19.094  0.2788  0.0968  0.0649
49209W        W92147   7.264  31.599  18.828  0.0595 -0.2624 -0.3415
49210W        W92148  10.738  30.300  16.847  0.0264 -0.3372 -0.2991
49211W        W92149  10.001  32.733  17.877 -0.0438  0.0307  0.1439
49212W        W92150   9.495  32.294  18.371  0.6230 -0.2638 -0.0694
49213W        W92151   9.838  31.071  15.484 -0.1004  0.2310  0.0150
49214W        W92152  11.023  30.437  18.144  0.0843  0.3149 -0.1083
49215W        W92153   9.681  29.479  18.112 -0.0444 -0.1627 -0.1038
49216W        W92154   7.752  32.009  16.241  0.0674  0.0380  0.0338
49217W        W92155   9.163  30.886  16.978  0.1578 -0.3375  0.0062
49218W        W92156  10.722  31.261  18.392  0.0785 -0.3236  0.2357
49219W        W92157  10.715  31.264  16.084  0.1054  0.2970 -0.0594
49220W        W92158   9.003  32.343  18.527  0.2712  0.3271 -0.1387
49221W        W92159   8.601  31.255  18.671 -0.1723 -0.1947  0.0870
49222W        W92160   9.025  32.244  17.986  0.1739 -0.0181  0.0270
49223W        W92161   7.651  33.828  15.505  0.2596 -0.5025  0.0695
49224W        W92162   7.484  31.668  17.989  0.2903 -0.3889 -0.2522
49225W        W92163   8.704  31.604  17.408  0.1121  0.0492  0.0094
49226W        W92164   7.492  29.520  17.531 -0.0494 -0.1668  0.0809
49227W        W92165   7.230  32.635  17.994 -0.0965  0.1021 -0.0673
49228W        W92166  11.415  30.692  17.301 -0.0983 -0.0106 -0.0227
49229W        W92167   6.820  30.301  18.965 -0.0838  0.0542  0.2006
49230W        W92168  11.193  29.592  17.575  0.0370  0.3474  0.1721
49231W        W92169   8.323  30.513  17.521 -0.0893  0.1903  0.0561
49232W        W92170   8.602  32.603  17.172 -0.0382 -0.1017 -0.1495
49233W        W92171  10.592  31.407  15.492  0.0077 -0.1563  0.0004
49234W        W92172   8.313  32.730  15.786 -0.0090  0.0187  0.1062
49235W        W92173   7.148  30.997  18.563  0.1991  0.1193  0.1833
49236W        W92174   9.722  30.379  18.474 -0.0240 -0.2716  0.0594
49237W        W92175   7.591  30.535  19.272 -0.1904  0.3722  0.1325
49238W        W92176   6.898  30.052  18.172 -0.0542 -0.1150 -0.0716
49239W        W92177   9.349  30.043  20.156 -0.0908 -0.4359  0.0389
49240W        W92178   7.950  29.025  16.117  0.1629 -0.1521 -0.2184
49241W        W92179  10.352  29.984  16.962  0.1767 -0.1641  0.0950
49242W        W92180   9.000  31.606  18.759  0.3017  0.0691 -0.0425
49243W        W92181   6.874  33.994  17.739 -0.1674  0.0124  0.0577
49244W        W92182   9.384  28.982  18.542  0.0284 -0.0492 -0.1534
49245W        W92183   9.247  32.914  15.747 -0.3339  0.0515 -0.2432
49246W        W92184  10.577  32.820  19.466 -0.2495 -0.0775  0.2471
49247W        W92185   8.427  31.479  17.854  0.0489 -0.0429  0.0412
49248W        W92186   8.370  30.222  19.498  0.0995 -0.1896  0.3958
49249W        W92187   9.115  30.596  16.100 -0.3653  0.4084  0.1114
49250W        W92188   7.392  34.145  19.459  0.2219 -0.2169  0.0414
49251W        W92189   8.170  32.438  17.486 -0.0081  0.1266 -0.2250
49252W        W92190   8.695  30.548  17.163  0.0227  0.0355 -0.1277
49253W        W92191  10.088  31.920  19.531  0.1671  0.1674  0.0830
49254W        W92192   9.370  31.220  16.180 -0.1687  0.1113  0.1908
49255W        W92193   7.144  31.469  19.322  0.2415 -0.2778 -0.0886
49256W        W92194   9.279  28.223  17.968  0.0606  0.1594  0.3383
49257W        W92195   9.296  31.492  19.137  0.3986  0.0746  0.0331
49258W        W92196   9.342  31.229  18.366 -0.1949  0.4685  0.0641
49259W        W92197   6.474  29.182  15.733 -0.0495 -0.0905  0.1069
49260W        W92198   8.580  32.763  16.231 -0.0009 -0.2468  0.0184
49261W        W92199   6.934  32.722  16.039  0.0251 -0.0799  0.0318
49262W        W92200   6.365  30.686  17.614 -0.3250  0.0846  0.0829
49263W        W92201   8.770  32.118  17.380 -0.2008 -0.3401 -0.2587
49264W        W92202  10.908  29.955  18.386  0.2026 -0.0463 -0.1808
49265W        W92203   8.224  31.136  19.654 -0.0561  0.1485 -0.0078
49266W        W92204   9.709  29.736  19.860  0.0528 -0.2725 -0.3891
49267W        W92205   7.772  30.965  16.422 -0.0519 -0.0452  0.1586
49268W        W92206   7.011  31.437  20.892 -0.0591 -0.3340 -0.1852
49269W        W92207  10.995  29.439  18.490 -0.0309  0.0536  0.1412
49270W        W92208  10.299  30.807  16.106 -0.1221 -0.2573 -0.1690
49271W        W92209   8.927  30.838  18.468  0.0925 -0.1479 -0.1152
49272W        W92210   9.617  31.072  17.198 -0.0125  0.1077 -0.3252
49273W        W92211  10.721  30.079  16.388 -0.1625 -0.0762  0.0150
49274W        W92212   9.613  28.657  16.760 -0.2900 -0.0880 -0.0879
49275W        W92213   6.945  30.926  19.674  0.0932  0.0126  0.0959
49276W        W92214   7.908  31.016  16.943  0.5041  0.0321 -0.2321
49277W        W92215   9.565  32.509  17.844  0.0157  0.2018  0.0779
49278W        W92216   8.608  29.342  16.557  0.0040  0.1463  0.3157
49279W        W92217   9.901  31.129  16.175  0.1430  0.1487  0.0806
49280W        W92218   7.340  31.884  18.391 -0.1491  0.1141 -0.1965
49281W        W92219   8.122  32.034  19.093  0.1216  0.0842 -0.1786
49282W        W92220   9.500  32.571  16.528  0.4183  0.0674 -0.0532
49283W        W92221   9.144  30.042  18.836  0.5911 -0.0849  0.2870
49284W        W92222   8.593  30.343  15.630  0.0432 -0.0861 -0.0346
49285W        W92223  10.103  29.938  18.845  0.0321  0.0488 -0.2245
49286W        W92224   7.707  33.526  16.796  0.1788  0.0390  0.2273
49287W        W92225  10.696  29.569  17.707  0.1402  0.1760  0.1312
49288W        W92226   9.362  29.386  17.480 -0.0717  0.3758  0.1615
49289W        W92227   9.009  29.595  19.035  0.1326  0.4661  0.1684
49290W        W92228  10.707  30.117  20.946  0.3877 -0.0499 -0.0898
49291W        W92229  11.206  29.632  16.615 -0.1450  0.1106  0.2112
49292W        W92230   9.118  30.933  17.987 -0.1060  0.0803  0.1732
49293W        W92231   8.131  29.369  16.534 -0.0280 -0.2146 -0.1196
49294W        W92232   8.875  31.459  18.320 -0.2322 -0.0946 -0.0275
49295W        W92233   7.990  31.397  19.222  0.0208  0.0231 -0.3885
49296W        W92234   7.478  31.824  19.540  0.2050 -0.2848 -0.3400
49297W        W92235   9.087  32.226  20.012  0.1656 -0.0884  0.1349
49298W        W92236  10.410  31.254  18.014 -0.0340 -0.2451 -0.1274
49299W        W92237   9.022  31.406  17.864  0.1541 -0.0483  0.1253
49300W        W92238   8.035  31.376  17.448  0.2128  0.0150  0.0089
49301W        W92239   8.145  32.412  16.205  0.0459 -0.0739  0.1970
49302W        W92240   8.387  31.639  16.235  0.0952 -0.1733 -0.0727
49303W        W92241   8.500  28.495  19.130  0.1881  0.1620 -0.0933
49304W        W92242   7.371  32.155  17.959 -0.1366 -0.3674  0.1634
49305W        W92243   8.302  31.303  16.756  0.2813 -0.2341 -0.0827
49306W        W92244   9.554  31.470  19.654  0.1270 -0.0221 -0.1776
49307W        W92245   7.398  31.540  16.356 -0.1307  0.1515 -0.1092
49308W        W92246  12.239  29.193  17.250  0.0151  0.1380  0.0664
49309W        W92247   7.048  32.995  18.651  0.1397  0.2198  0.3496
49310W        W92248   8.984  31.012  16.468  0.2201  0.0385 -0.1778
49311W        W92249   7.307  30.602  16.402  0.2411 -0.0882 -0.1175
49312W        W92250  10.407  29.508  17.282 -0.1646  0.0575 -0.2236
49313W        W92251  11.577  30.003  16.433  0.1027  0.0904  0.1655
49314W        W92252   7.931  30.060  16.812  0.1328  0.0846 -0.0847
49315W        W92253   9.612  29.344  16.331  0.1033  0.0741 -0.2763
49316W        W92254   6.963  34.276  19.010 -0.2527 -0.4064  0.1945
49317W        W92255   9.413  30.707  18.828  0.2064  0.3064 -0.1933
49318W        W92256   9.924  30.734  15.789 -0.2697 -0.0663  0.0765
49319W        W92257   9.613  31.057  19.182  0.3147 -0.0399  0.1695
49320W        W92258   8.174  32.872  19.655 -0.2430 -0.2650 -0.0438
49321W        W92259   6.854  30.643  17.281  0.0812  0.3660  0.1196
49322W        W92260   9.782  31.553  19.237  0.0493  0.0413  0.0196
49323W        W92261   9.666  30.137  17.603  0.1536  0.1582  0.0801
49324W        W92262   6.900  32.259  17.717  0.0853 -0.0498  0.0109
49325W        W92263   6.408  31.830  17.813 -0.0583  0.1421 -0.0716
49326W        W92264   8.095  30.520  15.733 -0.0821 -0.0940  0.0954
49327W        W92265   7.273  30.273  16.878  0.0393 -0.1242 -0.2322
49328W        W92266   8.326  31.621  18.434  0.1271  0.0395 -0.2265
49329W        W92267   9.732  31.043  19.757 -0.0639  0.1133 -0.1186
49330W        W92268   9.116  29.925  19.364 -0.2085 -0.1872  0.1073
49331W        W92269   8.788  29.007  16.892  0.2863 -0.1317 -0.0171
49332W        W92270  10.121  30.862  17.685 -0.0806  0.2864 -0.4397
49333W        W92271   8.016  32.433  18.032 -0.1908  0.1468 -0.1410
49334W        W92272   8.523  31.182  19.210  0.0793  0.1310  0.0929
49335W        W92273   8.405  30.809  18.581 -0.0540  0.0682 -0.1527
49336W        W92274   9.297  29.586  18.598 -0.0546  0.0269  0.0466
49337W        W92275  11.425  32.649  16.263 -0.1314  0.0199  0.1215
49338W        W92276   9.506  31.856  20.011  0.2338  0.2362  0.1576
49339W        W92277   9.199  30.087  16.331 -0.0280 -0.0047  0.1878
49340W        W92278   6.364  29.257  17.531 -0.0065  0.1528 -0.2133
49341W        W92279   8.908  30.638  17.655 -0.3275 -0.0866 -0.2803
49342W        W92280   9.533  29.367  16.967  0.2917 -0.0111  0.0083
49343W        W92281   6.607  32.430  18.550  0.0444 -0.1076 -0.2621
49344W        W92282   8.535  31.738  16.719 -0.0813 -0.0158  0.0173
49345W        W92283   7.434  31.081  19.548  0.0902 -0.0999 -0.0922
49346W        W92284  10.262  29.562  16.389 -0.3051 -0.0740  0.2219
49347W        W92285   8.575  32.351  15.964  0.0919  0.0139  0.1570
49348W        W92286   7.931  30.725  18.412 -0.0875  0.0109 -0.1040
49349W        W92287  11.044  29.704  18.919  0.0034 -0.1966 -0.0084
49350W        W92288  10.104  30.840  16.574 -0.0339 -0.0038  0.1768
49351W        W92289   9.326  30.393  19.231  0.0753  0.0417  0.3367
49352W        W92290   7.610  29.294  18.134  0.2304  0.1002  0.2761
49353W        W92291  10.036  32.950  17.361 -0.1187 -0.2051  0.1200
49354W        W92292   7.969  29.227  17.636 -0.0681  0.2375 -0.0256
49355W        W92293   8.418  32.587  20.546 -0.2112 -0.0117 -0.2287
49356W        W92294   6.613  31.108  19.347 -0.1358 -0.2044 -0.2312
49357W        W92295  10.025  29.414  15.989 -0.2345  0.0365  0.0416
49358W        W92296   7.408  29.813  16.643 -0.0141 -0.0213  0.3019
49359W        W92297   9.054  31.808  19.704  0.3060  0.2605 -0.1061
49360W        W92298   9.250  32.365  16.906  0.1481 -0.1200 -0.0798
49361W        W92299   7.601  31.966  16.800  0.0489  0.0160  0.2745
49362W        W92300  10.085  30.862  18.167 -0.3634 -0.1424 -0.2515
49363W        W92301   6.472  30.434  18.553  0.0693  0.3343  0.1669
49364W        W92302  11.127  31.371  16.417 -0.2140  0.0003  0.1451
49365W        W92303   9.757  31.507  15.852  0.1410  0.0482  0.2111
49366W        W92304   8.209  30.991  17.715 -0.2569  0.1631 -0.0455
49367W        W92305   8.753  30.228  18.535 -0.0635 -0.2946  0.0756
49368W        W92306   9.851  32.003  19.081 -0.1699 -0.0446  0.0430
49369W        W92307  10.505  31.095  17.485 -0.0163 -0.1691 -0.1358
49370W        W92308  11.376  30.831  16.358 -0.1700 -0.1492  0.3258
49371W        W92309   9.870  29.403  19.140  0.0770  0.1822  0.2943
49372W        W92310   9.396  30.453  17.901 -0.1903  0.2598  0.1697
49373W        W92311   6.465  29.515  19.104 -0.1266  0.0260  0.0252
49374W        W92312   9.036  33.667  18.861 -0.1513  0.0390 -0.3544
49375W        W92313  10.030  30.386  16.200 -0.3414  0.1803  0.4552
49376W        W92314  11.334  30.065  19.130  0.4849 -0.3707 -0.1928
49377W        W92315  10.921  31.678  16.840  0.0475 -0.1648 -0.2258
49378W        W92316   9.756  30.614  17.370 -0.3621 -0.4959 -0.0424
49379W        W92317   7.797  31.625  18.601  0.1518  0.0085  0.0611
49380W        W92318   9.572  30.711  20.137  0.0161 -0.0539  0.0523
49381W        W92319  10.809  29.702  16.931  0.0278 -0.0887  0.2123
49382W        W92320   9.675  30.085  19.394  0.1921 -0.1324  0.0921
49383W        W92321   9.263  30.576  16.602 -0.4190 -0.2398  0.2067
49384W        W92322   9.610  31.604  17.021 -0.0387  0.1829  0.0664
49385W        W92323   9.687  30.678  16.842 -0.2093 -0.0070 -0.0314
49386W        W92324   8.143  28.573  18.720  0.2213 -0.0368  0.0697
49387W        W92325   8.213  32.089  18.589  0.0420  0.1051  0.2061
49388W        W92326   6.402  30.759  15.991 -0.1108 -0.0408  0.1653
49389W        W92327  10.295  32.643  15.342  0.1911 -0.0046 -0.2008
49390W        W92328   8.976  30.249  20.570 -0.0940 -0.3019 -0.2300
49391W        W92329  11.042  32.483  20.705 -0.0808  0.0011  0.1446
49392W        W92330   9.280  29.126  16.609 -0.0668  0.1998 -0.0899
49393W        W92331   9.702  30.601  19.417 -0.0255 -0.1326 -0.1534
49394W        W92332   6.897  31.343  16.372  0.1277 -0.0509 -0.1955
49395W        W92333   9.894  29.939  18.050  0.2827 -0.2134 -0.0230
49396W        W92334   8.291  32.516  18.854  0.0030  0.1904 -0.1558
49397W        W92335   7.500  32.971  18.420 -0.0554 -0.3247  0.1081
49398W        W92336   8.519  32.491  18.345 -0.0221  0.1531  0.3387
49399W        W92337  10.356  29.013  18.021 -0.0274  0.4437  0.0641
49400W        W92338   9.730  29.843  18.521  0.0521 -0.0846 -0.3989
49401W        W92339   9.211  30.449  18.397  0.3389 -0.0127 -0.0246
49402W        W92340  10.224  31.108  20.002  0.0071 -0.1009 -0.1759
49403W        W92341   9.070  32.879  18.742 -0.3794 -0.1035 -0.1309
49404W        W92342   8.215  30.104  17.819  0.0899  0.0870  0.0484
49405W        W92343   9.068  32.066  19.080 -0.0790  0.1021 -0.0437
49406W        W92344   9.656  31.012  17.762 -0.2204 -0.1979 -0.1070
49407W        W92345   7.563  31.167  18.830  0.0905 -0.1368  0.0241
49408W        W92346   7.483  30.328  17.867  0.2650 -0.0999 -0.2395
49409W        W92347   8.297  32.860  20.955 -0.0419 -0.2720  0.1006
49410W        W92348   8.399  31.067  17.273  0.0514 -0.1137  0.1138
49411W        W92349   7.967  30.086  15.973  0.2285  0.4020  0.2213
49412W        W92350   8.353  31.907  15.828  0.2461 -0.0156 -0.2208
49413W        W92351   6.796  31.833  19.246  0.3823 -0.1027 -0.1964
49414W        W92352   6.992  30.464  17.780  0.2520 -0.0231 -0.1364
49415W        W92353   5.993  33.037  17.073 -0.3890 -0.1554 -0.0059
49416W        W92354  10.000  32.439  16.643 -0.2140 -0.0624  0.2226
49417W        W92355   8.741  32.194  16.868  0.0727 -0.3044 -0.1567
49418W        W92356   9.032  32.509  17.531  0.4423 -0.0180  0.1113
49419W        W92357   9.093  29.588  16.364 -0.4304  0.1830  0.3132
49420W        W92358   7.430  30.798  17.013  0.0686  0.2076 -0.0451
49421W        W92359   7.602  33.549  15.947 -0.1367  0.3146 -0.2116
49422W        W92360   9.658  30.738  16.296 -0.0330  0.0181 -0.2946
49423W        W92361   7.431  34.563  19.146 -0.1625  0.0318 -0.0798
49424W        W92362   8.828  31.306  16.883  0.1482 -0.2787 -0.3401
49425W        W92363   9.457  29.765  16.680 -0.0590  0.0161  0.0665
49426W        W92364  11.594  30.915  16.867 -0.0743 -0.1477 -0.0071
49427W        W92365  10.810  31.404  17.250 -0.0580 -0.0810  0.1260
49428W        W92366   9.209  32.673  18.166  0.0127  0.1801 -0.0201
49429W        W92367   9.317  29.963  18.238 -0.0038  0.1255  0.1223
49430W        W92368   8.446  28.942  17.509  0.3163  0.0230 -0.0419
49431W        W92369   7.462  30.615  18.343 -0.2224  0.2950  0.0179
49432W        W92370  10.271  30.294  19.175  0.1083 -0.1913  0.0596
49433W        W92371   6.821  32.741  18.264 -0.2259  0.2866 -0.1015
49434W        W92372   9.706  32.573  15.488 -0.0256  0.1024 -0.1453
49435W        W92373   6.336  30.193  17.242 -0.1897  0.0217  0.1204
49436W        W92374   8.294  31.977  18.090  0.3868  0.0516  0.0592
49437W        W92375  12.224  28.810  18.786  0.1574 -0.2083 -0.0247
49438W        W92376   7.916  31.685  15.892  0.0498  0.0948  0.1118
49439W        W92377   9.810  30.914  18.650  0.1100 -0.3401  0.0162
49440W        W92378   9.162  32.978  16.615  0.0634 -0.3320 -0.1277
49441W        W92379   7.795  32.001  18.268  0.1839 -0.2196 -0.2964
49442W        W92380   5.748  33.161  17.508  0.1031 -0.1635 -0.2176
49443W        W92381   9.162  30.176  16.885  0.3211  0.0250  0.1788
49444W        W92382  10.738  31.005  16.479 -0.4496  0.2591 -0.0453
49445W        W92383   8.746  31.097  17.617 -0.3335 -0.1451  0.0909
49446W        W92384  10.544  29.792  18.680 -0.0454  0.2071 -0.0759
49447W        W92385   8.116  32.204  17.054  0.4091  0.3542  0.1786
49448W        W92386  11.248  31.006  18.223  0.3393  0.0923 -0.0298
49449W        W92387   9.552  31.415  18.747 -0.0654 -0.0051  0.2982
49450W        W92388   7.952  31.588  18.034 -0.2070 -0.2526 -0.0971
49451W        W92389   8.259  31.849  17.555  0.0111  0.3306  0.0356
49452W        W92390  10.149  30.235  20.105  0.1131  0.1038 -0.0768
49453W        W92391   8.944  31.059  15.947 -0.5000 -0.0727  0.2252
49454W        W92392   8.943  33.140  19.659 -0.2038 -0.1758 -0.0352
49455W        W92393   8.168  30.568  17.028  0.1946  0.0601 -0.2787
49456W        W92394  10.574  30.832  16.915 -0.2926  0.0309 -0.0084
49457W        W92395   7.446  32.211  17.241  0.0172 -0.3164  0.1026
49458W        W92396   7.292  30.513  18.808  0.1978 -0.0776  0.2850
49459W        W92397   8.666  33.402  17.961  0.2409  0.0585 -0.0370
49460W        W92398   7.396  28.273  17.120  0.0327 -0.1096  0.4033
49461W        W92399   8.933  31.869  15.891  0.0082 -0.0131 -0.0651
49462W        W92400   9.479  31.991  17.906 -0.2423  0.0819 -0.3082
49463W        W92401   7.785  32.781  16.019  0.1285  0.0171  0.1751
49464W        W92402  10.615  32.926  17.336  0.0354  0.2331  0.3680
49465W        W92403   9.507  31.998  16.629  0.1964 -0.0772  0.2652
49466W        W92404   6.850  31.370  18.896  0.1393  0.2112  0.0168
49467W        W92405   9.577  31.579  17.501  0.1669  0.1483  0.2262
49468W        W92406  10.751  31.693  18.169  0.2790  0.2272 -0.0286
49469W        W92407   9.179  28.638  17.718 -0.0182  0.1787 -0.1916
49470W        W92408   8.790  29.941  18.074 -0.2635 -0.1762 -0.1925
49471W        W92409   7.402  32.646  16.843  0.1954  0.2765 -0.2355
49472W        W92410   9.800  30.385  18.968  0.1281 -0.0789 -0.0228
49473W        W92411  11.521  29.223  17.830 -0.2377  0.0432 -0.1498
49474W        W92412   8.960  30.687  15.624 -0.0580  0.2976  0.1396
49475W        W92413  10.406  28.250  21.008  0.0285 -0.0214 -0.0122
49476W        W92414   8.076  32.783  18.404  0.0330  0.2088  0.0837
49477W        W92415   8.139  33.391  19.868 -0.1064  0.0100  0.1186
49478W        W92416   8.599  31.860  15.397  0.1243 -0.1262 -0.0274
49479W        W92417   9.352  29.192  18.982 -0.2094 -0.3976 -0.1461
49480W        W92418   7.253  31.865  17.539  0.1695 -0.1430  0.1089
49481W        W92419   7.914  31.420  16.287  0.3139  0.1499 -0.0237
49482W        W92420   9.242  30.985  17.489 -0.3644  0.1296 -0.1576
49483W        W92421  10.513  30.485  17.670 -0.1277  0.0676  0.0041
49484W        W92422  11.086  31.599  15.959 -0.0022 -0.0978  0.0494
49485W        W92423   8.286  30.093  17.241 -0.0542  0.0425  0.0301
49486W        W92424  10.503  30.523  16.482  0.1286  0.0977 -0.1176
49487W        W92425   9.888  29.171  16.692 -0.4666  0.0759 -0.1770
49488W        W92426   7.820  30.231  18.212  0.2825 -0.2395  0.1008
49489W        W92427   8.751  30.463  16.486  0.1715 -0.3839  0.0257
49490W        W92428   7.375  31.285  17.174  0.0633 -0.2276 -0.0669
49491W        W92429   8.326  31.593  18.975 -0.0361 -0.1093  0.0738
49492W        W92430   7.785  28.764  20.829 -0.0727 -0.1798 -0.1876
49493W        W92431   8.889  30.535  18.891  0.0816 -0.0969  0.1070
49494W        W92432   8.034  31.140  18.692 -0.0748 -0.1981  0.1502
49495W        W92433   7.600  30.212  16.444 -0.0516  0.2114  0.0935
49496W        W92434  10.798  30.766  16.044 -0.1398 -0.1332  0.1219
49497W        W92435   7.553  31.303  17.689  0.1649  0.1120  0.0926
49498W        W92436   8.025  29.175  18.867  0.1847 -0.0183  0.0996
49499W        W92437   7.721  31.453  16.799  0.1419  0.2277 -0.1511
49500W        W92438   9.356  31.261  16.705  0.3329 -0.1021  0.1493
49501W        W92439   8.995  29.502  16.953 -0.2149  0.2237  0.1447
49502W        W92440  11.663  32.040  19.341  0.2441 -0.1917 -0.0479
49503W        W92441   8.633  30.830  16.797  0.1795  0.1675 -0.1902
49504W        W92442   9.333  31.336  20.663  0.1972 -0.2702  0.0682
49505W        W92443   8.218  28.915  19.261  0.1879 -0.3599 -0.1247
49506W        W92444   7.734  30.756  15.475  0.0730 -0.1135 -0.0116
49507W        W92445   7.629  31.207  20.227 -0.1553 -0.1387  0.0850
49508W        W92446   7.759  32.634  17.170 -0.0054 -0.2109  0.1065
49509W        W92447  10.084  31.604  16.162  0.2136  0.0636  0.0883
49510W        W92448   8.630  31.990  18.829 -0.2240 -0.1933 -0.2968
49511W        W92449   9.181  32.784  19.315  0.3717  0.0193 -0.0052
49512W        W92450   7.634  28.764  18.823 -0.2042 -0.1817 -0.1701
49513W        W92451   9.943  32.135  16.264  0.1555  0.1052 -0.2738
49514W        W92452   7.514  31.445  20.679 -0.1162 -0.0205  0.1438
49515W        W92453  10.644  32.640  15.669 -0.2217 -0.0583  0.3625
49516W        W92454  10.507  30.450  18.180 -0.0766 -0.0492  0.3544
49517W        W92455   9.949  31.271  16.782 -0.3802  0.3535 -0.1956
49518W        W92456   8.482  30.624  19.089  0.2127  0.1771  0.0411
49519W        W92457   8.666  30.207  17.609  0.2564  0.1589  0.2055
49520W        W92458   9.931  31.318  18.367  0.0500 -0.2109 -0.0909
49521W        W92459  10.019  30.385  17.876  0.1933 -0.0339 -0.0297
49522W        W92460  10.199  29.965  17.543 -0.1050  0.2391 -0.1566
49523W        W92461  10.733  32.454  17.509  0.2521  0.0962 -0.0679
49524W        W92462   7.051  31.172  16.779 -0.0434 -0.2233 -0.0871
49525W        W92463   7.799  30.406  17.401  0.0418  0.3086 -0.0432
49526W        W92464   8.884  31.103  20.368 -0.3153 -0.0879 -0.0389
49527W        W92465   8.694  31.885  17.875 -0.2208 -0.2883  0.1467
49528W        W92466  11.055  32.038  19.361 -0.2009 -0.0498  0.3866
49529W        W92467   9.233  30.492  17.296  0.0073  0.0172  0.0267
49530W        W92468  11.014  31.193  15.719 -0.2092  0.2338  0.1933
49531W        W92469   8.331  33.655  18.640  0.0688 -0.1647  0.0745
49532W        W92470   8.907  33.184  17.472  0.3108 -0.2247  0.2960
49533W        W92471   7.973  32.847  17.543  0.0076  0.1004 -0.0009
49534W        W92472   9.267  30.809  19.448 -0.1287  0.1161 -0.0594
49535W        W92473   8.300  30.447  18.160  0.2287 -0.0801  0.1172
49536W        W92474   7.792  30.536  16.723  0.1649 -0.0522 -0.1325
49537W        W92475   7.801  30.927  17.421 -0.3074  0.2741 -0.1578
49538W        W92476   9.547  30.805  18.234  0.1043  0.0458  0.0209
49539W        W92477   8.577  29.433  17.231 -0.1689 -0.5106  0.2118
49540W        W92478   8.797  29.972  17.142 -0.1251 -0.1944  0.0989
49541W        W92479   8.141  33.282  16.765 -0.1162 -0.0748  0.1594
49542W        W92480   9.254  30.322  19.723 -0.0953 -0.1876 -0.0433
49543W        W92481   9.338  31.121  22.625 -0.1268 -0.4584 -0.0289
49544W        W92482   8.683  31.404  21.435  0.5561 -0.2166 -0.1359
49545W        W92483  10.049  29.721  19.452  0.0341  0.1844 -0.1255
49546W        W92484  10.343  30.671  21.128 -0.1259 -0.0465 -0.0390
49547W        W92485   6.288  30.148  21.109 -0.0339  0.0462 -0.0541
49548W        W92486   8.337  31.871  22.479 -0.1268 -0.2578  0.4731
49549W        W92487   8.597  27.823  22.654  0.2654 -0.1575  0.0672
49550W        W92488  10.346  30.537  22.453  0.0314  0.1265  0.1252
49551W        W92489  10.889  33.019  22.041 -0.0722  0.2521  0.1415
49552W        W92490   8.293  31.449  21.070  0.1227  0.1031  0.1181
49553W        W92491   9.156  29.617  23.426 -0.1160 -0.1817  0.2024
49554W        W92492   8.660  31.490  23.355 -0.0466  0.0897  0.0829
49555W        W92493   7.953  30.335  19.914 -0.0626  0.2104 -0.0539
49556W        W92494   8.200  30.217  23.645  0.0700  0.0103  0.0551
49557W        W92495  10.790  30.919  24.342  0.1833 -0.2232  0.0986
49558W        W92496   7.420  31.023  21.105  0.0122  0.1324  0.0543
49559W        W92497   7.433  30.317  23.028  0.1431  0.1335  0.2319
49560W        W92498   8.818  30.498  20.089 -0.0402 -0.3819  0.0760
49561W        W92499   9.149  32.876  21.168  0.2030 -0.0498 -0.0818
49562W        W92500   9.997  28.863  23.276 -0.0228 -0.0611  0.2497
49563W        W92501   9.929  30.414  22.744 -0.0650  0.0835  0.2597
49564W        W92502   9.535  32.948  19.965 -0.2260 -0.5303 -0.1979
49565W        W92503   8.555  30.068  19.021  0.2407 -0.2210  0.1219
49566W        W92504   7.752  30.620  21.031 -0.3104 -0.1560 -0.0707
49567W        W92505   8.441  29.763  23.631 -0.4110 -0.0251  0.0031
49568W        W92506  10.195  29.409  21.972  0.0149 -0.0916  0.0511
49569W        W92507  10.229  30.232  21.204 -0.0197  0.2510 -0.1761
49570W        W92508   7.616  32.708  22.567 -0.0133  0.1123  0.0888
49571W        W92509   8.048  32.477  22.655  0.0184  0.1501  0.0252
49572W        W92510  10.386  31.454  22.934 -0.2626  0.0253  0.0535
49573W        W92511   7.150  30.495  20.389 -0.1230  0.2405 -0.1416
49574W        W92512   7.033  30.905  23.081 -0.4041  0.2837 -0.1113
49575W        W92513   7.501  30.822  22.760  0.2303 -0.1100  0.3053
49576W        W92514  10.318  31.413  20.522 -0.1806  0.3461 -0.2204
49577W        W92515   9.757  32.668  23.774  0.1119 -0.0551 -0.1124
49578W        W92516   9.814  32.194  23.537 -0.2450  0.0496 -0.2644
49579W        W92517   6.814  31.000  18.145 -0.0500 -0.0696  0.1814
49580W        W92518  11.179  31.786  24.533  0.2168 -0.2110 -0.3056
49581W        W92519   8.214  30.677  23.433  0.3517 -0.0705  0.1310
49582W        W92520   9.233  28.347  22.223  0.1292  0.3435 -0.0557
49583W        W92521   9.500  30.630  22.791 -0.1562 -0.1307  0.0119
49584W        W92522   8.074  32.037  20.346  0.2140  0.1752 -0.0465
49585W        W92523  11.317  31.233  21.580  0.1148  0.0108  0.1286
49586W        W92524   8.454  31.285  21.917  0.0494  0.2329  0.0201
49587W        W92525   7.521  30.194  21.238  0.2180  0.1789 -0.4107
49588W        W92526  10.358  29.306  23.443  0.3416  0.1148  0.2841
49589W        W92527   7.269  31.432  19.870  0.0320 -0.0847 -0.1672
49590W        W92528   9.155  30.725  20.463  0.1246  0.1432  0.1942
49591W        W92529   8.609  32.026  19.835 -0.2008  0.0861 -0.0041
49592W        W92530  10.185  29.773  19.995  0.2677  0.1623  0.0704
49593W        W92531   8.638  29.944  22.527  0.3603  0.2545  0.1395
49594W        W92532   7.430  31.539  22.687  0.2327 -0.1302 -0.1917
49595W        W92533   8.145  29.910  24.103 -0.3800  0.0982 -0.0048
49596W        W92534  11.970  31.217  21.386 -0.1340 -0.2065 -0.2207
49597W        W92535   8.421  31.235  20.502 -0.0772 -0.0921 -0.1231
49598W        W92536  10.431  30.376  23.080  0.1501  0.0891 -0.2634
49599W        W92537   8.903  30.776  22.703  0.1329  0.1002  0.1970
49600W        W92538   7.036  30.180  21.503 -0.0400 -0.5044  0.1198
49601W        W92539   8.499  32.771  20.077  0.0043  0.2158  0.0282
49602W        W92540   8.921  32.580  22.067 -0.1689  0.2674 -0.0392
49603W        W92541   7.872  32.301  21.392 -0.2675  0.0094  0.1317
49604W        W92542   8.082  30.295  21.472  0.0474  0.1297 -0.3070
49605W        W92543   7.402  31.572  23.962  0.3891  0.0527 -0.1487
49606W        W92544   7.762  29.964  22.452 -0.0831 -0.1892  0.2722
49607W        W92545   8.457  30.128  20.498 -0.1270 -0.1165 -0.0693
49608W        W92546  10.199  31.357  24.123 -0.0542 -0.0259  0.2222
49609W        W92547   6.986  32.059  22.610  0.2297  0.1537  0.1670
49610W        W92548  10.655  31.385  21.254 -0.2396 -0.0571 -0.0906
49611W        W92549   9.980  30.965  21.256  0.0798 -0.1512  0.2159
49612W        W92550  10.232  30.985  20.781  0.0327 -0.2236  0.3847
49613W        W92551  10.190  32.672  20.815  0.1949 -0.0006 -0.2477
49614W        W92552   9.091  29.290  22.197  0.1063 -0.1096 -0.1867
49615W        W92553  10.153  28.223  22.588 -0.1593 -0.1406 -0.2402
49616W        W92554   7.162  31.027  20.704 -0.1469  0.0388  0.1932
49617W        W92555   8.258  31.066  21.429  0.1996 -0.1235 -0.2521
49618W        W92556  12.444  31.770  22.818  0.0137  0.0880  0.0571
49619W        W92557  11.620  30.405  21.256  0.0242  0.0102  0.1391
49620W        W92558   8.541  31.951  23.464  0.1015 -0.3083  0.2270
49621W        W92559  11.095  28.801  23.474  0.4312 -0.0910  0.2672
49622W        W92560   9.556  29.747  23.132  0.0091 -0.4291  0.3165
49623W        W92561   7.260  31.858  20.785 -0.0991 -0.0153 -0.1741
49624W        W92562   6.645  30.559  22.540  0.0700  0.0179  0.0253
49625W        W92563   5.855  31.418  19.646 -0.0545  0.2260 -0.1503
49626W        W92564   7.766  30.847  23.200  0.0116  0.2014 -0.1802
49627W        W92565  10.376  31.001  22.317  0.3772  0.1305 -0.4231
49628W        W92566  10.995  30.636  18.977  0.1568 -0.0944 -0.0626
49629W        W92567   7.305  28.300  23.953  0.1402 -0.2593 -0.2578
49630W        W92568  10.813  28.585  21.197 -0.0873 -0.0375  0.1005
49631W        W92569   7.861  31.829  20.906 -0.2524 -0.0289  0.0828
49632W        W92570   9.833  32.336  20.675  0.1348 -0.0878  0.2171
49633W        W92571   8.493  29.226  21.483 -0.2030 -0.2825  0.2122
49634W        W92572   9.789  31.820  20.921  0.1307  0.0274  0.2525
49635W        W92573   6.500  31.364  21.980  0.1562 -0.0384 -0.0364
49636W        W92574   9.892  31.926  22.231 -0.1658 -0.1555  0.0537
49637W        W92575   8.629  29.488  22.273  0.0999  0.2392 -0.0438
49638W        W92576   8.276  28.888  22.881 -0.0778 -0.1704 -0.0729
49639W        W92577   9.189  31.141  24.239 -0.1714  0.0905 -0.2908
49640W        W92578   7.558  29.697  21.311 -0.2272 -0.0374 -0.2313
49641W        W92579   9.552  29.070  20.578  0.1721 -0.2697 -0.0244
49642W        W92580   9.576  32.326  21.122 -0.1692  0.3013  0.2609
49643W        W92581   7.336  31.018  21.641  0.1624 -0.0883 -0.2123
49644W        W92582   9.876  29.109  22.306  0.0710 -0.0553  0.1711
49645W        W92583   8.435  32.536  21.900  0.0556 -0.1076 -0.0601
49646W        W92584  10.650  32.385  22.576 -0.0768 -0.0206  0.0411
49647W        W92585  10.707  33.025  21.427 -0.0424  0.1029  0.0888
49648W        W92586   7.891  28.546  23.534 -0.1895 -0.0485  0.1614
49649W        W92587   7.961  30.210  20.872 -0.1250  0.1363 -0.1369
49650W        W92588   7.276  32.979  22.932  0.0892  0.5077 -0.2270
49651W        W92589   8.530  31.010  21.036  0.1404 -0.1074 -0.2367
49652W        W92590   8.100  29.143  20.411  0.0267 -0.2622 -0.1969
49653W        W92591   9.401  33.295  21.028  0.0209  0.2539 -0.0604
49654W        W92592   8.075  30.999  20.786 -0.2006 -0.2641  0.2810
49655W        W92593   6.255  30.592  23.564 -0.0410 -0.0911 -0.0091
49656W        W92594   9.209  29.400  20.922  0.0686  0.0773  0.0252
49657W        W92595   9.781  30.922  22.383 -0.1501  0.0366  0.0778
49658W        W92596   9.380  30.412  20.881 -0.3393  0.0798  0.0853
49659W        W92597   7.420  29.722  19.395 -0.0366  0.0130  0.0058
49660W        W92598   8.963  31.339  21.842 -0.1947 -0.1403 -0.2700
49661W        W92599   7.577  32.759  22.052  0.3098 -0.1338 -0.3582
49662W        W92600   7.348  30.113  22.172 -0.2949 -0.3281  0.0828
49663W        W92601   7.371  33.201  21.897  0.2379  0.2579 -0.1540
49664W        W92602   8.840  29.515  21.747  0.1060 -0.1964  0.0062
49665W        W92603   6.933  31.099  25.738 -0.3535  0.1462  0.5273
49666W        W92604   8.375  29.235  23.328 -0.0803 -0.1559  0.2200
49667W        W92605   6.430  29.080  18.782 -0.1353  0.0029  0.3670
49668W        W92606   8.234  30.265  22.469 -0.0582  0.1756 -0.0702
49669W        W92607   9.696  28.566  20.567 -0.0938 -0.0451  0.0856
49670W        W92608  10.980  30.259  20.515 -0.0660 -0.3461  0.1985
49671W        W92609  10.058  30.272  23.441  0.2614 -0.0179  0.3573
49672W        W92610  11.247  30.916  21.980 -0.0217  0.0052 -0.0842
49673W        W92611   9.440  29.493  19.429  0.0032 -0.0697 -0.2445
49674W        W92612   8.741  30.862  19.558 -0.3826  0.0042  0.0710
49675W        W92613   6.399  31.168  23.511 -0.1983 -0.1713 -0.0313
49676W        W92614   9.107  33.189  20.650 -0.1485 -0.0870  0.0155
49677W        W92615  10.815  31.963  21.207  0.1728  0.2691 -0.1333
49678W        W92616   8.588  30.759  20.520  0.0374 -0.0403  0.0607
49679W        W92617  12.189  31.730  20.154 -0.2955 -0.0192  0.1536
49680W        W92618   7.690  30.454  22.417  0.3125  0.1999  0.1226
49681W        W92619  10.328  31.106  23.317  0.3437 -0.0785  0.0219
49682W        W92620   9.509  31.820  21.897 -0.0105  0.0132  0.0415
49683W        W92621   9.446  30.103  21.255 -0.1388  0.1965 -0.2435
49684W        W92622   8.153  31.740  22.007 -0.2012 -0.0031  0.1403
49685W        W92623   8.832  29.576  21.260 -0.0526  0.0271  0.1640
49686W        W92624   6.286  31.700  19.614  0.2506 -0.0035 -0.1409
49687W        W92625  10.429  30.212  21.796  0.1781 -0.1894  0.2275
49688W        W92626   9.724  28.584  21.342  0.1236 -0.2418  0.0988
49689W        W92627   9.480  28.030  23.261  0.0458  0.0618  0.2312
49690W        W92628  10.360  30.914  23.799 -0.3717 -0.1051 -0.2557
49691W        W92629   9.569  30.881  20.701 -0.1618  0.1165  0.0908
49692W        W92630   9.863  30.888  24.051  0.0433 -0.0673 -0.0120
49693W        W92631   8.859  30.347  19.394  0.0835 -0.1686 -0.0116
49694W        W92632   9.924  29.775  23.477  0.0934 -0.2376 -0.0342
49695W        W92633   6.695  29.706  23.972  0.0284 -0.2811  0.1120
49696W        W92634   7.998  31.257  24.485 -0.0795  0.2100 -0.2734
49697W        W92635  10.363  31.811  24.098 -0.2528 -0.3207  0.1197
49698W        W92636  10.058  31.513  21.319 -0.1020 -0.0378 -0.2356
49699W        W92637  10.035  29.849  22.895 -0.3068 -0.0293  0.3630
49700W        W92638   8.138  30.532  20.381  0.1147 -0.1552  0.1671
49701W        W92639   7.149  30.538  20.910 -0.2766  0.3625 -0.0024
49702W        W92640   8.320  31.617  19.521 -0.0203 -0.0626  0.1729
49703W        W92641   9.651  28.695  22.450  0.1100  0.2337 -0.2041
49704W        W92642   8.965  31.099  22.324 -0.0520 -0.0568 -0.2735
49705W        W92643   8.530  32.051  19.281 -0.2722 -0.2446 -0.0282
49706W        W92644   9.527  30.088  23.500  0.3038 -0.0185 -0.0674
49707W        W92645   7.774  32.853  20.954  0.0615  0.2913  0.1394
49708W        W92646   9.736  30.902  21.681  0.1854 -0.3572  0.0221
49709W        W92647   5.887  31.653  21.946  0.0659  0.1614  0.3011
49710W        W92648   8.274  30.344  18.683  0.1240  0.1809 -0.2728
49711W        W92649   7.870  30.020  19.490 -0.3217 -0.3524 -0.1323
49712W        W92650   9.089  29.235  20.436  0.2052  0.0885  0.1925
49713W        W92651  10.443  31.414  21.742  0.2552  0.0485 -0.0964
49714W        W92652   7.468  30.451  21.753 -0.1600 -0.1056 -0.1588
49715W        W92653   9.522  30.459  21.803 -0.1505  0.0382 -0.2127
49716W        W92654   8.045  31.948  23.695 -0.0259  0.0536  0.1491
49717W        W92655   9.545  31.826  23.259  0.1350  0.1120  0.0086
49718W        W92656   8.994  29.738  20.475  0.0971  0.1664  0.4166
49719W        W92657  10.996  32.166  22.965  0.2985 -0.0959  0.1883
49720W        W92658   8.950  30.811  24.533 -0.3474 -0.0996 -0.2310
49721W        W92659   8.330  30.635  19.822  0.3568 -0.0384 -0.2377
49722W        W92660  11.696  31.289  21.909  0.2826  0.4748  0.0087
49723W        W92661   8.221  29.824  22.292 -0.0569 -0.2412  0.2158
49724W        W92662   6.987  32.241  22.098 -0.2586 -0.0419  0.1122
49725W        W92663   9.372  31.956  22.524 -0.0688 -0.4048 -0.0898
49726W        W92664   9.400  31.154  22.115  0.0283  0.1230 -0.0022
49727W        W92665   7.658  31.504  21.992  0.0027 -0.1182  0.0484
49728W        W92666   9.502  29.281  23.347  0.1210  0.1780  0.0515
49729W        W92667  10.705  31.891  22.466  0.2568 -0.1279  0.0005
49730W        W92668   9.039  30.003  21.508  0.2858  0.1054  0.2568
49731W        W92669   8.454  31.045  22.494  0.0208 -0.3411  0.0785
49732W        W92670   9.725  30.404  20.491 -0.2319 -0.1701 -0.1141
49733W        W92671   9.655  31.348  24.150  0.0683 -0.2420 -0.0916
49734W        W92672   9.970  29.377  23.113 -0.1664 -0.0366  0.1164
49735W        W92673   6.191  32.678  23.651  0.1269  0.3168 -0.2831
49736W        W92674   8.790  28.409  22.108  0.1462 -0.0397  0.0180
49737W        W92675  11.190  31.998  20.773  0.2396  0.3033  0.3089
49738W        W92676   9.554  30.709  24.379 -0.2569 -0.3024 -0.0682
49739W        W92677   8.577  31.037  20.019  0.0530  0.0028 -0.1796
49740W        W92678   7.430  29.949  21.736  0.1563 -0.0819  0.1299
49741W        W92679   9.116  31.257  21.314 -0.0472  0.2876  0.0958
49742W        W92680  10.339  29.048  22.957  0.1529 -0.0088  0.0139
49743W        W92681   8.643  30.619  23.212  0.0667 -0.1536 -0.1058
49744W        W92682   6.709  31.265  20.577 -0.1941 -0.1259  0.2044
49745W        W92683   7.313  30.757  22.086  0.2086 -0.1861  0.0878
49746W        W92684   9.822  29.552  20.789 -0.1484  0.3607 -0.2937
49747W        W92685   9.234  31.673  21.052 -0.2977  0.0241  0.0442
49748W        W92686   8.248  29.265  21.071 -0.1188 -0.1489 -0.0496
49749W        W92687  10.779  30.292  22.319  0.1851  0.1043  0.0149
49750W        W92688  10.630  32.260  20.833 -0.3928  0.1683 -0.0044
49751W        W92689  10.863  29.062  24.369  0.0332 -0.0853 -0.0506
49752W        W92690   7.863  28.995  23.244 -0.1538 -0.0143 -0.0284
49753W        W92691  10.034  31.729  21.774  0.1083 -0.2641  0.0848
49754W        W92692   7.375  30.541  23.869  0.2563 -0.2950  0.0824
49755W        W92693   8.885  32.883  23.737 -0.1724 -0.2558 -0.0741
49756W        W92694   7.120  30.560  24.867 -0.2749  0.0861  0.0824
49757W        W92695   9.000  30.999  20.873  0.0751  0.2163 -0.1438
49758W        W92696   7.791  30.726  21.497 -0.2175 -0.1189  0.2614
49759W        W92697   8.393  30.640  22.772  0.0286  0.0019  0.0648
49760W        W92698   8.934  32.621  20.384  0.1102  0.3335 -0.0672
49761W        W92699   8.677  31.813  21.126  0.2965  0.2308  0.1954
49762W        W92700   9.471  29.006  22.041 -0.2407 -0.0931 -0.1008
49763W        W92701   8.673  30.079  23.294 -0.0167 -0.1391  0.0395
49764W        W92702  10.329  31.762  21.006 -0.4056 -0.1804  0.1966
49765W        W92703   8.537  31.727  20.451 -0.0210  0.0109  0.2333
49766W        W92704   6.498  31.962  22.399  0.1644 -0.1674 -0.3276
49767W        W92705   8.531  28.662  22.442 -0.0469  0.3353  0.0277
49768W        W92706  11.567  31.825  21.931 -0.0148  0.1021 -0.1548
49769W        W92707   9.598  30.341  22.326  0.1607  0.1905 -0.1384
49770W        W92708   9.176  30.827  21.799  0.0444 -0.0912  0.0103
49771W        W92709   9.804  30.717  23.241 -0.0022  0.3892  0.0034
49772W        W92710   8.432  30.568  23.907 -0.0744 -0.0178 -0.1254
49773W        W92711   8.339  28.610  23.326  0.1551  0.1121 -0.0817
49774W        W92712  10.328  32.356  21.695 -0.0987  0.2127 -0.3174
49775W        W92713  10.387  29.059  20.344  0.3009  0.0115 -0.0022
49776W        W92714  11.278  30.569  21.618 -0.0845 -0.3008  0.1583
49777W        W92715   9.926  31.338  20.802  0.2143  0.0063 -0.1579
49778W        W92716   8.141  31.191  18.228 -0.1144  0.2916 -0.2201
49779W        W92717   6.766  29.356  22.338 -0.0226  0.0951 -0.1405
49780W        W92718  12.092  31.341  24.195 -0.0029 -0.1904  0.1404
49781W        W92719   8.221  29.761  19.684  0.0084 -0.3128  0.4778
49782W        W92720  10.799  29.220  23.252  0.1038  0.0851  0.1627
49783W        W92721   8.718  32.574  19.589 -0.2385 -0.2294 -0.0672
49784W        W92722   9.512  31.358  21.687  0.0019  0.1208  0.1674
49785W        W92723   9.973  30.040  20.751  0.2225 -0.2816 -0.0750
49786W        W92724   7.621  29.483  21.840  0.3069  0.0513  0.0651
49787W        W92725   8.649  32.451  23.443 -0.1092 -0.1424  0.1016
49788W        W92726   7.409  30.195  19.600  0.1148 -0.0771  0.2709
49789W        W92727   8.236  31.706  20.041 -0.3150  0.0303 -0.1285
49790W        W92728   9.679  31.208  23.190 -0.1700 -0.0691  0.2214
49791W        W92729  11.416  30.604  24.154  0.2057 -0.2072  0.0309
49792W        W92730   9.477  29.551  20.342 -0.1166  0.3449 -0.0332
49793W        W92731  10.421  30.285  23.774  0.0740  0.0365  0.1087
49794W        W92732   7.287  31.778  21.701  0.3829  0.1466 -0.1396
49795W        W92733   8.194  28.562  20.244 -0.0612 -0.1169 -0.1055
49796W        W92734   9.257  30.944  23.116 -0.0381 -0.0611 -0.1938
49797W        W92735   5.690  30.176  23.620  0.0926 -0.1076  0.0297
49798W        W92736   6.994  32.656  20.609  0.0761 -0.1329 -0.0678
49799W        W92737   9.725  29.623  22.244 -0.1856  0.1312 -0.0811
49800W        W92738   9.722  30.303  19.878  0.1410 -0.1757 -0.0015
49801W        W92739   9.506  30.754  21.268  0.0524 -0.1800 -0.0038
49802W        W92740  11.261  30.483  22.247  0.3291  0.0944 -0.2419
49803W        W92741   8.226  32.103  21.660  0.2098  0.0683  0.1674
49804W        W92742   8.689  31.546  22.289  0.0873  0.1400 -0.1265
49805W        W92743   9.301  33.277  24.260  0.1496  0.1651 -0.0413
49806W        W92744   9.522  31.967  19.465  0.4072  0.0129  0.3038
49807W        W92745   8.332  30.655  21.700 -0.0165  0.1254 -0.2188
49808W        W92746   7.006  30.397  24.374 -0.0760 -0.1657 -0.0703
49809W        W92747   8.402  30.673  24.854 -0.0173 -0.0935 -0.0706
49810W        W92748   8.673  29.571  19.906  0.0608  0.1309  0.0324
49811W        W92749   8.137  29.553  20.703  0.0166  0.2136 -0.1861
49812W        W92750   7.579  32.071  20.456  0.0078  0.0763 -0.1333
49813W        W92751   8.478  31.066  23.579 -0.1010 -0.1090 -0.2048
49814W        W92752   7.779  30.963  21.945  0.3133  0.0898  0.1096
49815W        W92753   7.737  31.258  21.545 -0.0888  0.2234 -0.1937
49816W        W92754   9.295  31.412  20.083  0.0126 -0.0594  0.0756
49817W        W92755   7.800  31.825  22.412  0.3026 -0.2542  0.3814
49818W        W92756   7.538  32.858  21.574 -0.0980 -0.1483  0.0276
49819W        W92757   8.812  30.546  20.946  0.4999  0.1209  0.1386
49820W        W92758   8.272  31.010  23.093  0.1737 -0.0266  0.0154
49821W        W92759   5.913  32.371  19.782  0.0076 -0.0185  0.0548
49822W        W92760  10.156  32.908  20.280  0.0152 -0.0078 -0.0034
49823W        W92761   8.098  32.740  22.256  0.0213 -0.0816 -0.1340
49824W        W92762   9.998  30.465  22.036  0.0048 -0.1593  0.3451
49825W        W92763   9.596  29.773  18.969  0.1994 -0.1414 -0.3072
49826W        W92764  10.964  30.948  21.221 -0.0809 -0.1200 -0.0636
49827W        W92765   9.742  29.377  21.758  0.1717 -0.0322  0.0436
49828W        W92766   9.492  31.519  22.875  0.1386 -0.4480  0.0129
49829W        W92767   7.711  29.917  23.488  0.1290 -0.1478 -0.0070
49830W        W92768   8.654  29.782  19.400  0.1559  0.0081 -0.0158
49831W        W92769   8.512  30.493  24.389 -0.1723  0.1894  0.2441
49832W        W92770  10.877  29.031  23.875 -0.0893 -0.1434  0.3546
49833W        W92771   8.124  32.560  23.590 -0.1255  0.1210  0.1613
49834W        W92772   9.612  32.742  19.500 -0.0709  0.1432 -0.0176
49835W        W92773   9.035  30.368  21.956 -0.2472  0.2046 -0.3474
49836W        W92774   9.244  30.722  22.275 -0.1927 -0.2388 -0.0580
49837W        W92775  11.045  30.132  21.802 -0.1685  0.0456  0.1600
49838W        W92776   7.961  32.912  19.169 -0.0674 -0.0633  0.0640
49839W        W92777   9.511  29.995  22.656  0.0832  0.1737 -0.3041
49840W        W92778   7.424  32.378  21.706  0.1587 -0.2262  0.1922
49841W        W92779   8.213  31.935  21.234  0.2718  0.0696  0.0899
49842W        W92780   8.273  31.598  21.573  0.2290 -0.1785  0.3990
49843W        W92781   6.294  29.906  21.564 -0.2508 -0.1678 -0.0665
49844W        W92782  11.054  30.502  21.022  0.2193  0.0542  0.0819
49845W        W92783   6.244  30.828  23.097 -0.1619 -0.0824 -0.0782
49846W        W92784  10.904  28.823  22.211  0.1952 -0.0571  0.2223
49847W        W92785   8.320  30.609  21.210 -0.1484  0.1108 -0.0347
49848W        W92786  10.476  29.800  22.064  0.1154  0.0084  0.1624
49849W        W92787   9.573  30.229  24.462  0.1872 -0.0958 -0.2810
49850W        W92788   9.030  29.981  23.712  0.2534 -0.0829 -0.1280
49851W        W92789   7.631  30.863  20.619 -0.1855 -0.1773 -0.0030
49852W        W92790  11.221  31.656  22.493 -0.2542  0.1176 -0.1542
49853W        W92791   9.439  31.905  18.754  0.1611 -0.1172  0.0491
49854W        W92792  10.535  32.271  24.186  0.0565  0.2914  0.0654
49855W        W92793   7.105  29.182  21.797  0.2244 -0.1056  0.2623
49856W        W92794   9.284  29.508  21.517 -0.0000 -0.1744  0.1660
49857W        W92795   7.986  31.510  20.497 -0.2156 -0.0707  0.2013
49858W        W92796   8.833  30.220  25.237 -0.2522  0.4976  0.0751
49859W        W92797  11.070  32.715  23.496 -0.3187 -0.0963  0.2916
49860W        W92798   7.036  28.854  21.375  0.0495 -0.0515 -0.3208
49861W        W92799  10.582  30.976  20.357 -0.1623 -0.4063 -0.3319
49862W        W92800  11.145  31.209  20.255 -0.3702  0.0513 -0.0523
49863W        W92801   8.196  32.359  19.861 -0.0307  0.1544  0.4060
49864W        W92802  11.675  30.900  20.735 -0.0843 -0.1135 -0.0501
49865W        W92803  11.214  31.387  22.087 -0.2258 -0.3039  0.3853
49866W        W92804   8.263  30.209  23.124  0.0408  0.1112 -0.1005
49867W        W92805  10.440  31.532  23.659 -0.2089  0.1031 -0.2039
49868W        W92806  11.501  32.328  21.774  0.0837  0.0601 -0.2720
49869W        W92807   8.956  30.047  21.010 -0.0145 -0.2776  0.1180
49870W        W92808   8.007  30.873  22.584  0.1854  0.1454 -0.0772
49871W        W92809   7.599  31.163  22.404 -0.1871  0.0390  0.2966
49872W        W92810  10.338  29.601  21.523 -0.0290  0.0255 -0.2146
49873W        W92811  10.749  30.471  21.428  0.1945 -0.1243  0.2839
49874W        W92812   8.445  32.896  19.248 -0.1218 -0.1321  0.1393
49875W        W92813  12.618  29.805  23.792 -0.0324  0.1073  0.0553
49876W        W92814   8.911  31.956  22.599  0.1461 -0.0018  0.0221
49877W        W92815   8.363  31.549  23.801 -0.0950  0.1439 -0.1445
49878W        W92816   7.841  31.496  19.695 -0.3892 -0.0134  0.1368
49879W        W92817   8.681  30.847  22.031 -0.0247  0.1463  0.1975
49880W        W92818   9.129  31.778  21.586  0.2226  0.0453 -0.0613
49881W        W92819   8.579  32.443  22.406 -0.1829  0.4664 -0.0749
49882W        W92820  10.941  31.589  21.667 -0.0079  0.2428  0.0417
49883W        W92821   9.423  29.877  20.762  0.0952 -0.1873  0.1186
49884W        W92822  10.060  31.085  21.986 -0.1651  0.1468  0.0857
49885W        W92823   7.963  29.361  21.522  0.3625  0.0875  0.0721
49886W        W92824   9.542  28.264  20.145 -0.1340 -0.0222 -0.2381
49887W        W92825  10.297  28.645  21.389 -0.0438  0.0554  0.0627
49888W        W92826   8.582  30.096  23.987  0.6878  0.1078 -0.2065
49889W        W92827   7.885  30.096  20.407  0.2457 -0.0651 -0.0871
49890W        W92828   7.115  31.918  19.943 -0.1092 -0.0338 -0.2259
49891W        W92829   8.652  30.257  21.491  0.3890 -0.0296 -0.0838
49892W        W92830   8.042  29.395  23.650  0.2314  0.0242 -0.2414
49893W        W92831   8.271  29.428  24.159 -0.1232  0.3283  0.0479
49894W        W92832   8.743  30.815  21.499 -0.0001  0.2452 -0.0942
49895W        W92833   8.233  29.810  20.218 -0.1767  0.0003 -0.0415
49896W        W92834   9.672  32.855  21.190 -0.0159 -0.0898 -0.0788
49897W        W92835   8.318  29.340  21.887  0.2370 -0.2013  0.1387
49898W        W92836   8.440  29.785  21.478  0.1942 -0.4293 -0.0208
49899W        W92837   8.927  32.169  20.643 -0.2460  0.3524  0.2703
49900W        W92838  11.481  30.825  20.259  0.2107  0.1338 -0.0234
49901W        W92839   9.604  31.276  21.150 -0.1388 -0.0921 -0.0113
49902W        W92840  11.604  33.482  24.106  0.0442  0.2915  0.2766
49903W        W92841   6.245  30.920  20.230  0.3376 -0.0778  0.0862
49904W        W92842   8.713  30.285  22.859 -0.4640  0.1532 -0.0927
49905W        W92843   7.681  29.056  23.939 -0.0847  0.0066  0.0935
49906W        W92844   6.907  29.660  20.614  0.1099  0.0548 -0.1580
49907W        W92845   9.627  31.744  21.408 -0.1847 -0.0308  0.1205
49908W        W92846  10.158  32.844  21.339 -0.5247  0.1256 -0.1827
49909W        W92847   9.527  32.959  18.974  0.0196  0.2287  0.1071
49910W        W92848   8.692  29.641  23.061  0.2754  0.1129  0.1636
49911W        W92849   8.687  30.489  22.377 -0.1483  0.1318  0.1179
49912W        W92850   6.369  29.578  23.566 -0.0511  0.0509  0.0993
49913W        W92851   9.812  31.699  20.418 -0.1910  0.2381 -0.0740
49914W        W92852   9.650  30.231  23.079  0.1209 -0.0185  0.2446
49915W        W92853   9.810  32.739  18.519  0.4291 -0.2884 -0.4208
49916W        W92854   9.939  30.432  21.496  0.1587  0.2510 -0.1506
49917W        W92855   9.399  32.094  20.486  0.0216 -0.0587  0.0513
49918W        W92856   7.616  30.140  23.906  0.0330  0.2312  0.1550
49919W        W92857   6.576  30.657  24.273 -0.0384 -0.1822 -0.1496
49920W        W92858   9.965  31.754  22.764 -0.4321  0.0218  0.0033
49921W        W92859   8.046  29.777  21.151 -0.1299  0.0539  0.0838
49922W        W92860   8.500  30.157  19.978  0.3727  0.2650  0.1808
49923W        W92861   9.129  32.299  19.512  0.2406  0.0835  0.0198
49924W        W92862   8.627  29.683  20.808 -0.2358 -0.6387 -0.0105
49925W        W92863   8.800  31.425  20.788 -0.3434 -0.2308  0.2369
49926W        W92864   9.756  29.411  22.680  0.1271  0.1341 -0.2622
49927W        W92865   9.162  31.606  22.270 -0.1412  0.3281 -0.1395
49928W        W92866   9.828  30.531  23.731 -0.0433 -0.2759  0.0456
49929W        W92867   8.084  31.047  20.211 -0.2212  0.0237 -0.1630
49930W        W92868  11.357  32.131  19.786 -0.0006  0.1733  0.2072
49931W        W92869   9.496  32.188  23.936  0.0082  0.0299  0.2124
49932W        W92870  10.735  31.474  24.173 -0.0956 -0.0077  0.1773
49933W        W92871   9.025  31.855  23.113 -0.0778  0.1166 -0.1604
49934W        W92872  10.430  30.893  21.553 -0.0683  0.5195 -0.3240
49935W        W92873   7.225  29.598  22.131  0.0761 -0.0161 -0.1407
49936W        W92874   8.055  30.299  19.124 -0.0883 -0.0733  0.1189
49937W        W92875   9.135  32.131  21.168  0.0397 -0.0344  0.0674
49938W        W92876  10.731  30.786  23.344 -0.1866  0.1951  0.1196
49939W        W92877   8.399  30.154  21.035  0.1830  0.3657  0.0268
49940W        W92878  10.326  29.832  20.468  0.0477  0.4091 -0.2257
49941W        W92879  10.004  30.047  22.369  0.5963 -0.1557 -0.2501
49942W        W92880   9.143  30.395  23.221 -0.2799  0.1176  0.1752
49943W        W92881   7.476  31.452  27.565  0.2617  0.0499 -0.1807
49944W        W92882   7.903  29.251  25.905 -0.0693 -0.0787 -0.2112
49945W        W92883  10.449  29.898  23.330 -0.0331  0.0338  0.0130
49946W        W92884  12.004  30.785  24.605 -0.1717 -0.0678 -0.2611
49947W        W92885   8.149  29.409  24.978  0.2094 -0.2103 -0.0005
49948W        W92886  11.978  32.706  24.432  0.0011  0.2902  0.1127
49949W        W92887   6.704  28.877  28.465 -0.0720 -0.2743 -0.2189
49950W        W92888   9.665  32.338  26.351  0.3936  0.1265  0.2025
49951W        W92889  11.360  31.173  25.911 -0.3813 -0.0995 -0.0693
49952W        W92890   9.184  31.721  24.418 -0.3301 -0.2263  0.2814
49953W        W92891   7.062  29.107  25.797  0.1820 -0.3773 -0.0965
49954W        W92892   7.193  31.581  25.964  0.2018  0.0011 -0.1323
49955W        W92893   8.648  28.103  24.366  0.0408 -0.3063 -0.0161
49956W        W92894   7.298  27.548  24.662  0.0342  0.0010 -0.4087
49957W        W92895   9.587  31.586  24.666 -0.2430  0.2575  0.0711
49958W        W92896   6.886  30.430  25.657 -0.1856 -0.1964  0.0585
49959W        W92897   8.594  28.874  25.593 -0.1736  0.2259  0.0706
49960W        W92898   8.207  28.409  24.461  0.1548  0.0262  0.2562
49961W        W92899  10.946  32.194  24.430 -0.2557 -0.1704  0.1328
49962W        W92900   8.261  28.875  24.906  0.0034  0.0709 -0.0251
49963W        W92901   8.880  29.432  26.677  0.0729 -0.0334  0.2389
49964W        W92902   8.964  31.926  23.651  0.1881 -0.2663 -0.0087
49965W        W92903   7.652  29.484  23.190  0.0612 -0.0049 -0.0985
49966W        W92904   6.021  31.595  25.310 -0.2643  0.0938  0.1561
49967W        W92905   7.860  30.314  26.841 -0.1754 -0.1815 -0.1692
49968W        W92906   9.752  28.977  25.177 -0.1698 -0.3316  0.1265
49969W        W92907   9.248  31.477  26.102  0.1226 -0.2278 -0.0400
49970W        W92908   9.360  33.433  26.131 -0.0304  0.2799 -0.5586
49971W        W92909  10.619  31.807  24.484 -0.0426  0.0145  0.3120
49972W        W92910   8.100  32.004  27.087  0.0139  0.4337 -0.0796
49973W        W92911   7.810  31.593  25.382 -0.0399  0.2150 -0.3720
49974W        W92912   5.992  32.041  26.290  0.2255  0.1281  0.1928
49975W        W92913   9.672  32.480  24.315 -0.0265  0.1056 -0.1584
49976W        W92914  10.801  31.154  23.817  0.1929  0.0634  0.0143
49977W        W92915   9.856  32.951  27.195  0.1224 -0.3468  0.0207
49978W        W92916   8.506  32.570  27.265  0.0501  0.0462  0.0036
49979W        W92917   8.932  30.677  25.011 -0.2320 -0.0514  0.0966
49980W        W92918   9.376  32.975  27.099 -0.3630  0.1783  0.3762
49981W        W92919   8.357  32.339  28.028 -0.0048  0.0208  0.0120
49982W        W92920   9.274  31.049  25.717 -0.0464 -0.2506  0.0960
49983W        W92921  10.182  29.984  25.362 -0.1720  0.0852 -0.0749
49984W        W92922   8.935  31.363  24.720 -0.0667  0.1928 -0.0726
49985W        W92923   8.230  31.337  25.306 -0.0075  0.0948  0.1535
49986W        W92924   8.372  31.163  27.670 -0.0436  0.2504 -0.1398
49987W        W92925   8.762  31.427  25.982  0.0745 -0.0407 -0.3955
49988W        W92926  10.270  28.853  26.636  0.0496 -0.0298  0.1374
49989W        W92927   9.078  30.598  25.538 -0.0614 -0.2806  0.0185
49990W        W92928  11.428  30.082  24.181 -0.2745  0.0306 -0.1675
49991W        W92929   8.684  28.866  23.617 -0.0811 -0.1654  0.1505
49992W        W92930  10.090  30.437  25.220 -0.1888 -0.0738  0.1713
49993W        W92931   9.968  28.895  24.609  0.1494  0.2032  0.2760
49994W        W92932   7.680  31.327  26.365 -0.1659 -0.2457 -0.0084
49995W        W92933   8.233  29.235  25.422 -0.6980 -0.0114  0.1703
49996W        W92934   9.162  31.731  27.810 -0.3774 -0.0243 -0.0145
49997W        W92935   9.474  29.809  24.262 -0.0705 -0.1251 -0.0105
49998W        W92936   9.335  29.623  25.741  0.2049 -0.2546  0.0106
49999W        W92937   7.096  32.061  26.849 -0.1007 -0.0361  0.1487
50000W        W92938   6.609  30.637  26.487 -0.2684  0.0290  0.0263
50001W        W92939   9.481  31.601  23.776  0.3059 -0.1411  0.0935
50002W        W92940  10.223  31.725  26.991 -0.1419  0.2847  0.2813
50003W        W92941   9.507  31.099  23.718  0.0291  0.2952 -0.1337
50004W        W92942   7.538  29.403  25.093  0.1870 -0.0061  0.2032
50005W        W92943   5.873  31.459  27.141  0.0462  0.0053  0.0908
50006W        W92944   6.159  30.541  28.076 -0.3634 -0.1541 -0.2714
50007W        W92945   9.146  28.785  23.416 -0.0584 -0.0943  0.0081
50008W        W92946  10.501  29.944  25.832 -0.0469 -0.0086 -0.0438
50009W        W92947   6.104  31.320  28.180 -0.2618 -0.1825 -0.3264
50010W        W92948   9.781  28.600  26.156  0.1680 -0.0545  0.0864
50011W        W92949   8.812  31.227  25.400 -0.1002 -0.1318  0.0431
50012W        W92950   9.726  32.200  26.995 -0.0783  0.0477 -0.0262
50013W        W92951  11.251  30.107  23.205 -0.1277  0.3054 -0.1223
50014W        W92952  10.229  28.521  25.903  0.1304 -0.3081  0.1285
50015W        W92953  10.873  28.686  27.104 -0.2650 -0.0443 -0.2042
50016W        W92954   8.480  31.012  24.464  0.2272  0.0113  0.0605
50017W        W92955   9.337  33.007  25.188  0.1567 -0.1128 -0.1940
50018W        W92956   9.683  31.687  26.899  0.0538 -0.1375  0.0336
50019W        W92957  10.284  30.858  24.384 -0.0508  0.1522 -0.0297
50020W        W92958   7.870  31.235  26.962  0.1855  0.3058 -0.0878
50021W        W92959   6.697  30.264  26.044  0.0665 -0.2307  0.0642
50022W        W92960   7.973  31.466  27.630 -0.3174 -0.3128  0.0526
50023W        W92961   8.401  33.039  23.537  0.1693  0.2731 -0.1646
50024W        W92962   8.202  30.926  26.672 -0.0214  0.2278 -0.0878
50025W        W92963   9.088  29.949  22.999  0.3106 -0.1725  0.0626
50026W        W92964   6.188  30.720  24.747  0.1650  0.2866 -0.0734
50027W        W92965   9.345  31.949  26.456 -0.1410  0.0726 -0.0551
50028W        W92966  12.161  28.717  25.389 -0.1304  0.1815 -0.2131
50029W        W92967   7.866  29.621  25.424 -0.1740 -0.3045  0.0589
50030W        W92968  10.995  29.911  25.264 -0.1304 -0.2430 -0.1037
50031W        W92969   7.888  31.423  23.985 -0.0733 -0.0943 -0.1485
50032W        W92970  11.054  31.691  25.906 -0.0002 -0.2739  0.0573
50033W        W92971  10.353  29.756  23.811 -0.2369  0.1017  0.3846
50034W        W92972   9.316  32.848  24.581 -0.2614 -0.0294 -0.0055
50035W        W92973   6.532  31.038  26.097  0.0676 -0.0368 -0.3138
50036W        W92974   8.493  30.015  24.788 -0.1027  0.1151 -0.3067
50037W        W92975   7.194  29.879  28.118  0.0112  0.2304 -0.0031
50038W        W92976   8.036  29.079  26.373 -0.1256  0.0416  0.1862
50039W        W92977   8.603  30.993  27.276  0.1445 -0.3416 -0.0062
50040W        W92978   7.454  28.738  24.239  0.4130 -0.3943 -0.1798
50041W        W92979   9.472  30.981  26.227  0.0957 -0.1210  0.0889
50042W        W92980   9.321  30.259  25.233 -0.0221  0.0859  0.3489
50043W        W92981   7.311  29.846  25.065 -0.2394 -0.4089  0.0659
50044W        W92982   9.359  29.351  26.426  0.1105 -0.0427 -0.1903
50045W        W92983   9.304  32.301  23.492 -0.1118  0.3377 -0.4836
50046W        W92984  11.094  31.816  26.597  0.0060  0.1761  0.2436
50047W        W92985  12.705  31.965  26.009  0.0502  0.0812  0.1129
50048W        W92986   6.510  29.526  27.149  0.1364  0.0244  0.0837
50049W        W92987   9.030  30.013  24.256 -0.1533  0.1922 -0.1717
50050W        W92988   9.204  32.443  25.075 -0.1000 -0.1406 -0.3264
50051W        W92989  11.129  31.526  25.423 -0.0568 -0.0793 -0.0822
50052W        W92990   9.754  28.372  24.069  0.0996 -0.0140 -0.1773
50053W        W92991   9.203  32.403  26.644  0.1305 -0.2798 -0.0880
50054W        W92992   8.834  30.443  23.626  0.3157 -0.3310 -0.1885
50055W        W92993   7.983  31.002  25.992  0.0651  0.2308 -0.2767
50056W        W92994   8.710  29.335  25.627 -0.0211  0.1097  0.0630
50057W        W92995  12.014  30.158  26.690  0.1282 -0.0275  0.1998
50058W        W92996  10.571  30.516  24.673 -0.0618  0.0253  0.2897
50059W        W92997   7.836  29.271  24.425 -0.2496  0.4666 -0.0070
50060W        W92998   9.933  31.557  25.458  0.0256 -0.0989  0.0343
50061W        W92999   6.430  31.202  24.444 -0.1569  0.0894  0.0046
50062W        W93000   7.524  30.840  26.419  0.0566 -0.2746 -0.0249
50063W        W93001   8.742  32.519  24.769  0.0130 -0.0728 -0.2019
50064W        W93002   8.759  29.191  24.208 -0.1916  0.0850 -0.0363
50065W        W93003   6.660  30.435  29.471 -0.1619 -0.1499  0.0958
50066W        W93004   9.279  29.894  26.408 -0.1221 -0.0352  0.0482
50067W        W93005   6.494  31.791  25.123  0.0182 -0.2082 -0.0327
50068W        W93006   8.210  30.205  28.001  0.0074 -0.2545 -0.3145
50069W        W93007  10.009  29.557  24.171 -0.3111  0.0534  0.1482
50070W        W93008  10.419  27.985  23.466  0.1815 -0.4418  0.1208
50071W        W93009   8.607  31.486  28.337 -0.1934  0.2828  0.1991
50072W        W93010  10.244  30.105  24.832  0.0991 -0.2047  0.1417
50073W        W93011  10.541  29.620  24.240 -0.1090 -0.1834 -0.1116
50074W        W93012   9.519  29.636  23.716 -0.1823  0.1512 -0.0801
50075W        W93013   7.717  30.781  28.987  0.1071  0.1207 -0.0390
50076W        W93014   9.618  32.498  24.811  0.1549  0.0079 -0.0346
50077W        W93015   8.696  30.699  26.515  0.1524  0.0857 -0.1685
50078W        W93016   9.067  30.172  22.500  0.0599 -0.0835  0.3554
50079W        W93017  10.517  30.266  24.285 -0.0123 -0.3049  0.0494
50080W        W93018   6.589  31.330  27.160  0.0898  0.0094  0.1397
50081W        W93019   8.186  30.685  27.153  0.0647 -0.2869  0.3060
50082W        W93020   9.971  31.112  26.243  0.2496  0.1190 -0.1043
50083W        W93021   9.089  29.312  24.866  0.0105 -0.1680 -0.0108
50084W        W93022   9.085  30.624  24.082 -0.4599  0.0444  0.2495
50085W        W93023  10.192  29.226  24.981  0.1259 -0.0246  0.2263
50086W        W93024   7.173  32.391  24.627  0.0181 -0.1691  0.0406
50087W        W93025  10.878  29.671  26.060 -0.2246  0.0014  0.1412
50088W        W93026   9.788  28.762  25.645 -0.1011 -0.1798 -0.1296
50089W        W93027   8.409  28.143  26.672  0.2431  0.2195 -0.2589
50090W        W93028   9.623  31.254  26.681 -0.1383 -0.1642 -0.0145
50091W        W93029  10.770  30.011  24.750 -0.0342  0.0123  0.1224
50092W        W93030   9.621  29.231  25.604  0.3344 -0.1207 -0.0765
50093W        W93031   8.194  29.720  23.219 -0.1137 -0.2954 -0.2576
50094W        W93032   9.119  29.760  27.056  0.1056 -0.0266 -0.0513
50095W        W93033   7.848  29.847  27.994  0.2723 -0.0432  0.0111
50096W        W93034   8.134  33.365  27.362 -0.1382  0.1531  0.0076
50097W        W93035   9.181  32.284  27.791  0.0039  0.0393 -0.0016
50098W        W93036   8.759  31.448  24.256 -0.0203 -0.0338  0.1260
50099W        W93037   8.239  29.284  27.359  0.0897  0.1034 -0.2110
50100W        W93038  10.126  27.929  24.045  0.0788  0.3584 -0.4631
50101W        W93039   8.177  33.962  23.040  0.1940 -0.3670 -0.0924
50102W        W93040   8.584  31.098  24.967  0.2584  0.1489  0.1962
50103W        W93041   8.337  28.283  26.142 -0.0568  0.2174  0.1031
50104W        W93042   8.784  31.552  27.164  0.2889  0.2302 -0.1329
50105W        W93043   8.966  30.936  23.563  0.2036 -0.0115 -0.2169
50106W        W93044  10.025  32.337  27.431 -0.1142 -0.0213 -0.2075
50107W        W93045   8.888  32.767  24.252  0.2162  0.3353 -0.1801
50108W        W93046   9.985  29.833  25.794 -0.2137 -0.0438  0.0307
50109W        W93047   7.803  31.417  25.854 -0.0476 -0.0290 -0.0511
50110W        W93048   8.548  29.302  23.789  0.1604 -0.3160 -0.2382
50111W        W93049   6.097  31.339  24.779  0.1040  0.1225  0.0512
50112W        W93050   9.699  29.443  24.618 -0.1158 -0.0057  0.0881
50113W        W93051  10.002  30.407  24.242 -0.0503  0.1332 -0.1947
50114W        W93052   8.209  28.757  25.944 -0.0433 -0.1400  0.1366
50115W        W93053   8.947  29.539  26.150 -0.3216 -0.1032 -0.2275
50116W        W93054   6.979  30.683  26.161 -0.2705 -0.1786  0.1584
50117W        W93055   8.319  29.610  26.370  0.1994  0.4863  0.0738
50118W        W93056   9.444  30.649  24.908 -0.0091  0.0286 -0.3097
50119W        W93057  10.493  33.433  26.474  0.3539  0.0065 -0.2163
50120W        W93058   7.447  30.628  27.723  0.1614  0.0243 -0.0249
50121W        W93059   7.212  29.999  24.130 -0.2017 -0.0180 -0.0834
50122W        W93060  10.607  30.220  25.274  0.1036  0.2146 -0.2051
50123W        W93061   7.806  29.560  26.280  0.1114  0.3775  0.0568
50124W        W93062   7.393  32.187  25.034  0.1936  0.0741  0.4610
50125W        W93063  10.238  33.152  25.995  0.1864 -0.1742  0.0814
50126W        W93064   9.647  30.696  25.444  0.0553 -0.1158 -0.2105
50127W        W93065   8.505  32.184  23.908  0.0363  0.0496  0.2699
50128W        W93066   6.992  30.268  26.445 -0.0473  0.0522  0.1010
50129W        W93067   9.163  32.021  25.417 -0.4290 -0.3070  0.1516
50130W        W93068   9.122  30.358  24.665  0.1914  0.0099  0.0883
50131W        W93069   6.248  30.290  24.413  0.1398 -0.1549  0.2385
50132W        W93070   8.777  30.823  25.962  0.2327 -0.1106  0.3374
50133W        W93071   8.977  31.120  26.344  0.2374  0.1837  0.0526
50134W        W93072   8.383  28.704  26.374 -0.3894 -0.2304 -0.2295
50135W        W93073   8.718  31.520  27.696 -0.1070 -0.0251  0.2891
50136W        W93074   8.818  28.446  26.552 -0.0873 -0.3490 -0.0386
50137W        W93075  11.122  32.363  24.881  0.2938 -0.0465 -0.0366
50138W        W93076   9.770  31.612  26.285  0.1394 -0.0613 -0.1099
50139W        W93077   7.134  31.522  23.475  0.2876  0.1673 -0.1068
50140W        W93078   7.520  30.228  26.451  0.0234 -0.0146  0.2092
50141W        W93079   7.556  31.104  24.172 -0.2023 -0.0727  0.0379
50142W        W93080   9.975  29.948  26.544 -0.1691 -0.1522  0.1437
50143W        W93081   8.736  31.669  26.394 -0.0220  0.0526  0.6716
50144W        W93082   7.692  31.545  23.534  0.0953 -0.0810 -0.0962
50145W        W93083   7.738  31.000  25.516 -0.0704  0.3734  0.1798
50146W        W93084  10.424  29.265  23.922 -0.0905 -0.2527 -0.0655
50147W        W93085   9.326  30.599  23.654 -0.2478  0.1966  0.2358
50148W        W93086   8.317  28.594  26.848  0.2006 -0.0289 -0.0610
50149W        W93087  10.407  29.832  26.324 -0.0586 -0.0061  0.0543
50150W        W93088   9.864  30.032  23.896  0.1228  0.1914 -0.1636
50151W        W93089   9.368  28.077  27.648 -0.0100 -0.0153  0.0758
50152W        W93090   7.919  28.352  27.044 -0.1325 -0.1662  0.1588
50153W        W93091  10.904  31.069  25.473 -0.2911  0.1170 -0.2292
50154W        W93092   7.711  30.797  26.926  0.1199 -0.0698 -0.1182
50155W        W93093   9.548  32.580  27.363 -0.0537 -0.1293 -0.2039
50156W        W93094   6.849  31.598  27.579  0.1025  0.1005  0.3389
50157W        W93095  10.272  29.636  24.639 -0.1333  0.2808  0.1601
50158W        W93096   7.010  29.131  24.417 -0.1312  0.2892  0.1505
50159W        W93097   8.834  30.018  26.060  0.4911 -0.1268 -0.0762
50160W        W93098   9.916  32.061  26.042 -0.0948  0.2025  0.3388
50161W        W93099   8.648  30.373  25.665  0.4772 -0.0442 -0.0392
50162W        W93100  11.374  30.120  24.766 -0.1550  0.0069 -0.1399
50163W        W93101   8.425  31.047  26.272  0.3363 -0.1969 -0.2905
50164W        W93102   9.469  29.414  25.125 -0.2035 -0.3192  0.1549
50165W        W93103   9.467  30.265  23.977  0.1540  0.0350 -0.1041
50166W        W93104   7.940  29.901  25.034  0.0627 -0.1608  0.1314
50167W        W93105   6.800  29.173  27.332  0.1314  0.1790 -0.1167
50168W        W93106   9.406  30.619  25.892 -0.1499 -0.2220 -0.1613
50169W        W93107   9.226  28.765  24.949 -0.0618 -0.1609 -0.0238
50170W        W93108   9.441  31.009  27.909 -0.0315 -0.1846 -0.0398
50171W        W93109   9.036  29.766  25.338  0.3019 -0.0046 -0.0099
50172W        W93110   8.731  29.836  27.357 -0.0017  0.0693  0.2382
50173W        W93111   6.990  29.082  26.860 -0.3491  0.0170  0.0595
50174W        W93112  10.161  32.566  27.007 -0.0146 -0.0711  0.1272
50175W        W93113   9.955  31.177  24.546 -0.1239 -0.1379  0.1028
50176W        W93114  12.534  28.155  26.305  0.0707 -0.0724  0.1339
50177W        W93115   9.167  31.446  26.681 -0.2789  0.1362 -0.1887
50178W        W93116   9.745  30.268  25.694  0.0763  0.2298 -0.0722
50179W        W93117   7.948  28.948  27.045 -0.3487 -0.1460  0.0017
50180W        W93118   9.573  30.709  28.332 -0.3211  0.3752  0.0959
50181W        W93119   7.419  27.535  23.843 -0.3560 -0.1596 -0.1002
50182W        W93120   8.729  30.013  26.574 -0.1179 -0.2888 -0.0882
50183W        W93121   8.860  33.027  24.811 -0.0644  0.2362  0.1533
50184W        W93122   9.016  31.935  25.987 -0.0902  0.0199  0.0637
50185W        W93123   9.741  30.198  24.930 -0.0736 -0.1047  0.2521
50186W        W93124   7.019  28.637  25.958 -0.0418  0.2300 -0.1442
50187W        W93125   6.442  32.547  28.703  0.2941 -0.3272  0.1490
50188W        W93126   7.727  29.619  24.003 -0.1993 -0.0796  0.1113
50189W        W93127   8.883  31.424  22.729  0.3484  0.1363 -0.0365
50190W        W93128   8.990  33.113  27.444 -0.2927 -0.1767 -0.1310
50191W        W93129  10.603  30.958  28.124 -0.1199 -0.1584 -0.1301
50192W        W93130   9.553  29.324  24.156 -0.0765  0.0931 -0.2167
50193W        W93131   9.820  30.840  26.720 -0.0541 -0.1403  0.0547
50194W        W93132   7.311  29.930  25.549  0.1641 -0.0501  0.0299
50195W        W93133  10.926  29.211  26.211  0.0564  0.0406 -0.1706
50196W        W93134   7.930  32.871  27.404 -0.0306  0.2852  0.0180
50197W        W93135   6.817  31.068  26.821 -0.2181 -0.0186  0.1675
50198W        W93136  10.067  32.181  24.457  0.1314 -0.3679  0.0461
50199W        W93137  10.120  29.287  27.164  0.3619 -0.1997 -0.1601
50200W        W93138  10.576  30.336  26.203  0.1339  0.0136 -0.3469
50201W        W93139   8.207  32.101  24.616 -0.1260 -0.2553 -0.1401
50202W        W93140   9.624  30.394  26.471 -0.0351  0.1362  0.0836
50203W        W93141   8.508  32.004  26.016  0.2873 -0.0271 -0.4174
50204W        W93142   7.145  32.088  26.271 -0.0999 -0.1046 -0.1407
50205W        W93143   8.419  33.601  26.026  0.0563 -0.1973 -0.3323
50206W        W93144  11.350  30.744  24.604  0.1330  0.2052  0.1514
50207W        W93145   9.237  32.003  24.813  0.1055  0.2166 -0.1377
50208W        W93146   8.012  30.851  28.560 -0.0639  0.0952  0.1073
50209W        W93147   8.270  29.849  27.649 -0.1331  0.2594 -0.1448
50210W        W93148   9.686  31.362  25.860 -0.2101 -0.0188 -0.0903
50211W        W93149   8.252  28.524  25.248 -0.0353  0.1050  0.1443
50212W        W93150  10.336  31.417  25.265 -0.0007  0.4731  0.0375
50213W        W93151   6.182  32.112  28.966  0.1693 -0.0946  0.2177
50214W        W93152   6.696  31.840  27.094  0.1976  0.0752 -0.1393
50215W        W93153   7.283  30.966  24.617 -0.0851 -0.3382 -0.0919
50216W        W93154  10.073  31.659  24.542  0.0110 -0.1062  0.0695
50217W        W93155   9.473  29.807  24.805  0.0614  0.1399  0.2423
50218W        W93156   9.884  32.923  24.711  0.0386 -0.5373 -0.1262
50219W        W93157   7.516  29.023  26.003  0.1995  0.1147 -0.2032
50220W        W93158   8.200  30.101  25.737 -0.1112  0.3837  0.3695
50221W        W93159   8.330  30.360  25.223 -0.2506 -0.0290 -0.0407
50222W        W93160   8.991  32.372  23.907  0.2665  0.1366  0.0583
50223W        W93161   8.082  30.613  25.681  0.2371  0.0378 -0.1729
50224W        W93162   9.345  31.607  27.270 -0.0250 -0.1180  0.2205
50225W        W93163  10.110  28.434  24.458 -0.0147  0.2108  0.2759
50226W        W93164  10.239  30.445  25.691 -0.2294 -0.0495 -0.1611
50227W        W93165  11.267  29.600  24.887 -0.4590  0.1372  0.1218
50228W        W93166   9.020  31.915  26.842 -0.5006 -0.1208  0.2025
50229W        W93167   8.374  30.381  26.719  0.1332 -0.1262 -0.0135
50230W        W93168   8.559  29.363  24.663 -0.1199 -0.2316  0.1671
50231W        W93169   7.874  30.217  27.501  0.2657 -0.2225 -0.0877
50232W        W93170   9.524  28.547  27.557  0.0451  0.1583 -0.2455
50233W        W93171   6.055  32.035  27.789 -0.2252 -0.0003  0.0093
50234W        W93172  10.854  31.382  24.978 -0.0758 -0.4287 -0.1606
50235W        W93173   8.939  29.807  24.756  0.1957  0.0770  0.1972
50236W        W93174   8.418  31.110  25.716 -0.2906  0.0060  0.4829
50237W        W93175  11.608  29.267  26.872 -0.3214  0.0148  0.1986
50238W        W93176   8.787  31.082  23.053 -0.2105  0.1828 -0.2310
50239W        W93177   9.122  29.199  25.366  0.0299 -0.0407 -0.1541
50240W        W93178   8.897  33.266  25.257 -0.3048 -0.0201  0.0475
50241W        W93179   8.524  31.863  26.833  0.0601 -0.2664  0.0187
50242W        W93180   8.795  32.816  26.434  0.0716 -0.0430 -0.1648
50243W        W93181   6.736  30.353  25.170 -0.0185  0.1150  0.1266
50244W        W93182  11.008  30.408  24.882  0.0297  0.2017  0.0824
50245W        W93183   6.808  30.415  26.902 -0.0099 -0.3715  0.2535
50246W        W93184  11.103  28.621  26.629  0.0515 -0.2361  0.1166
50247W        W93185   7.580  29.196  25.515  0.0480  0.1368 -0.1308
50248W        W93186  10.109  29.366  25.495  0.4889 -0.1420  0.1154
50249W        W93187   9.194  31.509  25.595  0.0611  0.0612  0.2950
50250W        W93188   7.635  30.568  25.979  0.0287 -0.0618  0.1355
50251W        W93189   9.227  31.066  25.130  0.0294  0.2972 -0.2158
50252W        W93190   9.644  31.454  27.851 -0.1993 -0.0226 -0.1812
50253W        W93191   9.945  29.924  24.454  0.1264 -0.2195 -0.2289
50254W        W93192  11.173  32.754  26.992 -0.2227 -0.0265 -0.0634
50255W        W93193   7.800  28.936  25.051 -0.0485  0.2313  0.3355
50256W        W93194   9.929  29.695  24.999 -0.2010 -0.1547  0.0002
50257W        W93195   7.222  30.259  25.973  0.1645 -0.2021 -0.0141
50258W        W93196   7.930  28.832  25.547  0.1835 -0.2560  0.1549
50259W        W93197   9.546  31.976  27.574 -0.1261 -0.0098 -0.1764
50260W        W93198   9.317  28.362  23.708  0.1236  0.0963 -0.4679
50261W        W93199   9.672  31.873  24.304  0.0583 -0.3950 -0.2030
50262W        W93200   9.237  31.605  25.092  0.0220 -0.3483  0.2751
50263W        W93201   8.313  31.839  24.223 -0.3408  0.2552 -0.0606
50264W        W93202  10.965  31.850  25.032  0.3799  0.1579  0.0762
50265W        W93203   9.271  32.146  27.219  0.0115  0.5010 -0.0766
50266W        W93204   5.987  29.911  25.693  0.2430 -0.1029  0.1533
50267W        W93205  10.563  32.167  25.345  0.1118  0.1030  0.2175
50268W        W93206   9.793  32.029  24.816  0.1503 -0.0735  0.1492
50269W        W93207   8.163  28.910  23.743 -0.1127 -0.0662  0.0668
50270W        W93208   8.267  29.583  25.784 -0.5526  0.2755  0.1351
50271W        W93209   7.453  31.456  24.592  0.1017  0.2250  0.0192
50272W        W93210   9.442  28.853  26.515 -0.2480 -0.1602 -0.0762
50273W        W93211   9.889  29.086  26.474 -0.1343 -0.3265  0.0706
50274W        W93212   9.003  31.409  23.825 -0.1497 -0.0770  0.1360
50275W        W93213   8.383  27.808  27.132  0.1207  0.0586  0.3417
50276W        W93214  10.676  32.660  26.597 -0.0978  0.0614  0.0660
50277W        W93215   9.035  31.340  29.231  0.2008  0.1581  0.1701
50278W        W93216   8.052  30.533  24.284 -0.1164 -0.3690 -0.1879
50279W        W93217  10.467  33.450  27.776  0.1161  0.1086 -0.0574
50280W        W93218   9.654  32.081  25.302  0.0651 -0.2558 -0.3122
50281W        W93219  10.059  32.263  25.522  0.0687 -0.1538  0.2809
50282W        W93220  10.259  31.694  25.994  0.1258  0.1251  0.3553
50283W        W93221  10.732  29.580  25.515  0.0612  0.1525  0.0488
50284W        W93222  11.467  30.851  25.455  0.1286 -0.3116 -0.0704
50285W        W93223   7.526  30.228  24.856 -0.0581 -0.4654  0.0570
50286W        W93224  11.873  29.337  24.888  0.1654 -0.1826 -0.1358
50287W        W93225   9.278  28.370  24.172  0.3552  0.1404 -0.2841
50288W        W93226   8.832  32.160  26.392  0.1132 -0.1816 -0.2780
50289W        W93227   6.916  31.944  23.115  0.2091  0.1878  0.0861
50290W        W93228   6.222  30.116  22.152  0.0237 -0.0304 -0.1973
50291W        W93229   8.617  30.770  25.403  0.1049 -0.2018  0.3151
50292W        W93230   8.619  28.574  27.819 -0.0385  0.1977 -0.1443
50293W        W93231   6.591  30.825  27.170  0.0683  0.1993  0.2789
50294W        W93232   7.398  31.082  25.947 -0.2694  0.1277  0.2860
50295W        W93233   7.426  27.656  25.718  0.0099 -0.1454  0.1566
50296W        W93234  10.203  31.226  25.756 -0.0024 -0.4310  0.0527
50297W        W93235   7.104  29.439  24.867  0.1355  0.2604  0.4026
50298W        W93236   6.217  29.435  24.915  0.0251  0.2255  0.0854
50299W        W93237  11.660  31.953  25.233  0.0771  0.0709  0.0012
50300W        W93238  11.218  31.117  24.077  0.0940 -0.1145 -0.1392
50301W        W93239   8.570  28.483  24.844 -0.0789  0.1455  0.0456
50302W        W93240  11.085  30.848  26.954  0.0538 -0.1176 -0.0954
50303W        W93241   8.262  31.881  25.049 -0.1512  0.2481 -0.1121
50304W        W93242   8.723  28.868  26.979 -0.0530 -0.2650 -0.1294
50305W        W93243   7.219  29.525  27.747  0.2678  0.0072 -0.0663
50306W        W93244   8.353  28.951  24.344  0.1853  0.1440  0.0549
50307W        W93245   7.463  29.539  25.846  0.0021 -0.0962  0.0130
50308W        W93246   9.692  32.610  25.335 -0.2423 -0.1172  0.2210
50309W        W93247   9.219  33.265  25.643  0.0719  0.0546  0.1428
50310W        W93248   8.656  31.277  26.775  0.5021  0.1193  0.1900
50311W        W93249  10.026  33.306  26.809 -0.2561  0.1621 -0.1287
50312W        W93250   6.197  29.484  29.145  0.2376 -0.1032 -0.2915
50313W        W93251  10.070  31.032  25.325  0.0894  0.2931 -0.1617
50314W        W93252   9.025  31.046  26.932  0.0404  0.1685  0.5805
50315W        W93253   9.956  30.562  24.701 -0.0137  0.0223 -0.1279
50316W        W93254  11.685  28.067  25.352  0.2263 -0.0364 -0.0735
50317W        W93255   8.657  29.816  25.708  0.0844  0.0579 -0.1266
50318W        W93256   7.990  28.101  28.390 -0.0674 -0.2954 -0.1106
50319W        W93257   7.380  31.191  26.795  0.0945 -0.1779  0.2671
50320W        W93258   9.888  30.773  27.196  0.0024  0.0677 -0.0705
50321W        W93259   8.838  28.086  25.076  0.1117  0.0072  0.0478
50322W        W93260  10.306  31.052  24.901  0.0426 -0.1006 -0.1520
50323W        W93261   9.405  31.108  24.672 -0.0966  0.0804  0.1236
50324W        W93262   6.845  29.895  25.712 -0.0937  0.3014  0.0437
50325W        W93263   9.602  30.025  26.803 -0.1125  0.0029 -0.2460
50326W        W93264   7.705  30.009  26.030 -0.0784  0.3460  0.2066
50327W        W93265   9.614  32.379  25.798 -0.2682 -0.0705 -0.1146
50328W        W93266   9.581  31.125  27.174 -0.1539  0.3274  0.2562
50329W        W93267   7.381  31.399  25.517  0.0882 -0.0649 -0.1705
50330W        W93268  11.211  31.243  23.492  0.1627 -0.2269 -0.1925
50331W        W93269  10.879  33.094  25.427  0.2871 -0.2114  0.1023
50332W        W93270  11.035  31.646  27.731 -0.0071  0.2572 -0.2459
50333W        W93271  10.091  32.508  26.547  0.0387 -0.2023  0.1504
50334W        W93272   9.474  31.849  25.836 -0.2653 -0.1715 -0.0072
50335W        W93273   7.169  29.389  26.216 -0.0950  0.3999 -0.0564
50336W        W93274   7.726  30.558  25.255  0.0733 -0.0801  0.2316
50337W        W93275   7.822  31.202  24.983  0.2110 -0.0245  0.3042
50338W        W93276   9.602  31.202  25.400  0.0141  0.1903  0.3720
50339W        W93277   8.027  27.782  25.831 -0.1512  0.0131  0.1975
50340W        W93278  10.007  28.975  24.087  0.3607 -0.0949 -0.2639
50341W        W93279   8.239  31.482  26.043 -0.1219 -0.1841  0.1634
50342W        W93280   7.760  30.123  25.477 -0.0531  0.4315  0.0469
50343W        W93281   8.974  29.396  29.196  0.2390  0.1570  0.0023
50344W        W93282   7.316  30.715  28.750 -0.0681  0.0148  0.0860
50345W        W93283   9.878  31.087  27.563 -0.1873 -0.1993  0.1938
50346W        W93284   9.134  29.763  27.628 -0.0471  0.0147 -0.1891
50347W        W93285   8.658  28.838  28.925 -0.1255  0.1785  0.0423
50348W        W93286  10.659  32.957  27.916 -0.2003  0.0944 -0.2099
50349W        W93287   8.104  28.877  31.447  0.0755 -0.4861 -0.2740
50350W        W93288  10.838  31.935  30.269  0.2180  0.2813 -0.3596
50351W        W93289   9.075  31.992  29.480 -0.0987  0.0313 -0.2695
50352W        W93290   9.263  30.427  27.813  0.2793  0.2379  0.0306
50353W        W93291   9.436  30.799  30.429 -0.1884 -0.1802 -0.0587
50354W        W93292   8.137  31.768  30.813 -0.1226 -0.0858  0.1691
50355W        W93293   7.725  29.836  26.736 -0.0958 -0.0540  0.1180
50356W        W93294   7.244  29.250  30.257  0.0405  0.1091 -0.0444
50357W        W93295  10.907  30.620  31.206 -0.1165  0.2082 -0.0860
50358W        W93296   7.610  30.817  28.255 -0.0249 -0.0920 -0.1193
50359W        W93297   8.233  28.489  28.688  0.3404 -0.2576  0.2608
50360W        W93298   9.637  28.875  28.278 -0.0666 -0.2513 -0.4405
50361W        W93299   8.909  32.306  28.276 -0.1906  0.0282 -0.2676
50362W        W93300   8.061  29.875  29.536  0.0567 -0.0665  0.2230
50363W        W93301  11.282  29.196  31.652 -0.0814  0.2259  0.1256
50364W        W93302   9.686  31.697  28.535 -0.2922 -0.0605 -0.3459
50365W        W93303   7.525  29.493  28.215  0.1999  0.1971 -0.0111
50366W        W93304   8.273  28.979  28.322  0.0867 -0.0959 -0.3264
50367W        W93305   8.416  29.402  28.595 -0.6196 -0.0156  0.0357
50368W        W93306   9.137  30.330  28.370  0.1611  0.0339 -0.2449
50369W        W93307  10.122  32.113  29.632  0.4198 -0.1695 -0.0881
50370W        W93308   9.349  31.739  29.881  0.2556 -0.3552 -0.0448
50371W        W93309   9.511  31.285  30.196  0.0426  0.0123 -0.1761
50372W        W93310  10.194  31.483  30.892 -0.4022  0.0242 -0.1614
50373W        W93311   7.830  29.982  30.503 -0.0510  0.0079  0.1623
50374W        W93312   7.091  32.376  29.305  0.2060  0.0530  0.1101
50375W        W93313  10.415  31.651  28.802  0.0351 -0.1208 -0.0364
50376W        W93314  10.726  31.427  28.196 -0.0706  0.0053  0.0216
50377W        W93315  10.745  32.258  31.319 -0.2708 -0.1042  0.3310
50378W        W93316   9.438  32.152  31.592 -0.2305  0.0656 -0.0894
50379W        W93317   8.280  32.226  29.712  0.1886 -0.0299 -0.1728
50380W        W93318  10.497  32.915  30.364  0.1052 -0.2474  0.5012
50381W        W93319   7.921  31.372   0.396  0.1867  0.1924  0.2994
50382W        W93320   8.988  31.353  30.307 -0.4419 -0.1318 -0.2930
50383W        W93321   9.279  30.713  28.722  0.0532 -0.3068  0.2024
50384W        W93322   8.139  32.337  27.500 -0.0092 -0.1382 -0.2688
50385W        W93323   9.731  30.500  27.859  0.2095  0.0155 -0.2115
50386W        W93324   8.730  30.219  30.195 -0.0927  0.5211  0.0606
50387W        W93325   7.420  31.584  29.978  0.0319 -0.0528 -0.0666
50388W        W93326  10.348  30.329  29.656 -0.1065 -0.0989  0.3335
50389W        W93327   8.493  31.000  28.659 -0.1010  0.2643  0.0793
50390W        W93328   8.539  29.549  27.050 -0.2503 -0.0738  0.0839
50391W        W93329   8.903  28.969  26.509 -0.1219  0.2659 -0.2545
50392W        W93330   9.090  30.430  26.318  0.0323 -0.0725 -0.0953
50393W        W93331   7.619  28.749  29.051 -0.4097  0.1949 -0.1924
50394W        W93332   8.018  31.616  29.136  0.1994  0.3557  0.1797
50395W        W93333   8.612  28.551  28.364 -0.0439  0.0538  0.2012
50396W        W93334  10.650  30.827  30.825  0.2774 -0.0850 -0.1066
50397W        W93335   8.792  30.483  28.013  0.2105 -0.1450  0.0565
50398W        W93336   9.587  29.762  28.507 -0.1174 -0.0956  0.1522
50399W        W93337   8.318  32.549  29.312  0.1455 -0.0440 -0.4609
50400W        W93338   8.709  28.853  29.913 -0.2001 -0.0404  0.2633
50401W        W93339  10.583  31.823  27.840 -0.0119 -0.0395  0.1072
50402W        W93340   8.683  31.478  28.855  0.1777  0.3143 -0.1440
50403W        W93341   9.155  31.197  27.486  0.3299  0.0602  0.1910
50404W        W93342   7.206  31.124  28.988 -0.2637  0.0352 -0.0991
50405W        W93343   7.442  30.896  31.781 -0.1059 -0.2537 -0.1404
50406W        W93344   7.901  29.837  29.986 -0.2213 -0.0810  0.0776
50407W        W93345   7.691  27.659  27.656 -0.0695  0.0270 -0.2394
50408W        W93346  10.859  29.835  30.502  0.1003 -0.1212 -0.4438
50409W        W93347   7.684  32.872  29.967 -0.0961 -0.0389 -0.0129
50410W        W93348  10.488  29.799  27.916 -0.0188  0.0031 -0.0995
50411W        W93349   8.527  30.402  29.637  0.4401  0.0937  0.1966
50412W        W93350   9.486  30.453  29.764 -0.1187 -0.2193 -0.2237
50413W        W93351  10.700  31.821  26.258  0.0421 -0.0269  0.0243
50414W        W93352  10.523  28.114  28.363 -0.2609  0.1177 -0.4371
50415W        W93353   9.877  29.424  28.799 -0.0909 -0.0141  0.0705
50416W        W93354   7.942  30.792  27.598 -0.2068 -0.1275 -0.0444
50417W        W93355   8.639  31.003  28.182 -0.1281  0.2395  0.0161
50418W        W93356  11.433  31.717  28.874 -0.1109 -0.2173 -0.0365
50419W        W93357  10.687  31.166  26.818 -0.1219  0.0075  0.1492
50420W        W93358   7.568  32.400  30.255 -0.1306 -0.2323 -0.1983
50421W        W93359   8.509  27.800  30.859 -0.0753 -0.1234 -0.0481
50422W        W93360   8.630  31.412  31.629  0.2345  0.2218 -0.0358
50423W        W93361   7.201  31.951  27.326 -0.3221  0.1626 -0.1109
50424W        W93362   7.276  32.057  30.106  0.1276 -0.0968  0.1181
50425W        W93363   8.371  30.596  28.334 -0.0189 -0.0595  0.3186
50426W        W93364   7.152  28.440  31.688  0.2105  0.0624 -0.1397
50427W        W93365   8.647  30.619  31.464  0.1081 -0.0446 -0.1119
50428W        W93366  10.142  30.139  27.798 -0.0338  0.2584  0.0172
50429W        W93367   8.114  29.420  31.206 -0.0258 -0.0544 -0.0474
50430W        W93368  10.281  28.653  28.858  0.1791  0.1453  0.2929
50431W        W93369   8.135  32.071  29.176  0.2664 -0.3199 -0.2262
50432W        W93370  10.303  32.321  28.024  0.0277  0.1083  0.1085
50433W        W93371  10.499  31.052  27.266  0.2547  0.0369  0.0647
50434W        W93372   8.679  30.587  27.011 -0.1294 -0.1123 -0.2154
50435W        W93373   7.948  30.961  30.177 -0.0559 -0.1933  0.0231
50436W        W93374   7.915  30.491  30.326 -0.2855 -0.3931 -0.0890
50437W        W93375   9.254  29.869  30.995  0.0617 -0.2759 -0.0032
50438W        W93376   8.712  28.279  30.032  0.1421 -0.0920 -0.1554
50439W        W93377  10.097  29.172  30.519  0.0867 -0.2500  0.1229
50440W        W93378   6.934  28.095  27.011  0.2897 -0.1969  0.1919
50441W        W93379   9.562  29.491  27.792  0.0892 -0.1592 -0.0915
50442W        W93380   6.483  30.786  29.803  0.0152 -0.0552  0.0183
50443W        W93381   7.433  29.277  28.694 -0.2865 -0.0947 -0.3346
50444W        W93382   9.943  29.916  30.957 -0.1410 -0.4012  0.2640
50445W        W93383  10.466  34.651  29.801  0.2148  0.0189 -0.0495
50446W        W93384  10.867  32.474  30.456  0.2862  0.1854  0.1013
50447W        W93385   9.994  31.937  27.804  0.0893 -0.2096 -0.0352
50448W        W93386   9.086  27.984  29.690 -0.0301 -0.3081  0.0152
50449W        W93387   7.142  29.616  26.735  0.0877  0.1431  0.1529
50450W        W93388   7.450  31.968  30.569  0.2469 -0.0364 -0.0376
50451W        W93389   8.717  29.734  28.916  0.1418  0.1094 -0.2626
50452W        W93390   7.600  31.243  28.756  0.0545  0.1260 -0.2090
50453W        W93391  11.138  30.981  28.667 -0.1202  0.0437 -0.0459
50454W        W93392   9.100  29.997  28.753 -0.0401  0.1451 -0.2438
50455W        W93393   9.350  29.478  30.348 -0.2503 -0.1740  0.0989
50456W        W93394   9.775  28.668  29.738 -0.3680  0.1741 -0.3745
50457W        W93395  10.628  30.351  27.766  0.1163  0.3088 -0.1040
50458W        W93396   9.913  29.755  28.039  0.0682 -0.0246  0.0941
50459W        W93397   7.201  28.523  29.238 -0.1647 -0.1287 -0.2901
50460W        W93398   9.523  31.927  28.098  0.1146 -0.0824  0.0902
50461W        W93399   8.680  32.224  29.255 -0.1013  0.0308  0.1234
50462W        W93400   8.450  30.718  30.164 -0.2047  0.1722 -0.2842
50463W        W93401   8.046  31.312  29.521  0.3468 -0.3185  0.0664
50464W        W93402  10.161  29.971  27.038  0.0417 -0.0976 -0.1607
50465W        W93403   7.703  29.597  31.406 -0.1191 -0.1395  0.0812
50466W        W93404  10.707  30.733  30.359 -0.1018  0.1174 -0.2757
50467W        W93405   6.704  29.887  26.818  0.1011  0.0420 -0.3532
50468W        W93406   9.068  29.830  30.512 -0.0969  0.1847  0.6475
50469W        W93407   8.591  27.834  29.582  0.2624 -0.0203  0.1270
50470W        W93408  10.709  28.046  27.870  0.1074 -0.3009 -0.1120
50471W        W93409   8.149  29.759  30.798  0.2865 -0.1240  0.1702
50472W        W93410  10.700  31.299  28.658  0.1342  0.0654  0.2852
50473W        W93411   8.282  29.888  26.809 -0.1041  0.2028 -0.1730
50474W        W93412   9.449  27.256  27.822 -0.2046  0.2270 -0.1303
50475W        W93413   7.274  28.992  31.950  0.1316  0.0159 -0.1655
50476W        W93414   9.132  31.829  28.990  0.3829 -0.2030  0.2025
50477W        W93415   9.126  31.714  30.711 -0.0918 -0.0970 -0.1019
50478W        W93416   7.730  28.120  26.223  0.0416  0.1588 -0.4020
50479W        W93417   9.614  33.018  28.087 -0.1123 -0.0140 -0.1869
50480W        W93418   7.613  31.285  29.264 -0.2109 -0.1386  0.3374
50481W        W93419   9.766  31.700  31.027  0.0116 -0.2143  0.1590
50482W        W93420   9.409  32.387  30.466 -0.0782  0.1531  0.3439
50483W        W93421   9.172  27.373  28.747  0.0431 -0.2791 -0.0291
50484W        W93422   7.881  29.639  28.496  0.2683  0.0639 -0.2645
50485W        W93423   8.329  29.625  28.099 -0.1267 -0.2022  0.2842
50486W        W93424   5.647  32.410  27.626 -0.1084  0.2677  0.0182
50487W        W93425   9.747  29.537  30.594  0.0667  0.2308  0.0948
50488W        W93426  10.054  29.800  27.475  0.0056 -0.0828  0.1924
50489W        W93427   9.008  27.476  29.628 -0.0681  0.0887 -0.2848
50490W        W93428   9.340  31.076   0.740  0.0977  0.2042  0.0262
50491W        W93429  10.285  30.672  27.510 -0.0685  0.0059 -0.1730
50492W        W93430   9.640  30.246  28.711  0.0857  0.1977  0.1439
50493W        W93431   6.871  29.516  28.161 -0.0209 -0.2747 -0.1603
50494W        W93432   8.105  30.100  28.484 -0.1095  0.0467  0.4441
50495W        W93433   9.140  28.954  30.158 -0.1740  0.0417 -0.1135
50496W        W93434   8.522  32.975  29.071 -0.1999  0.1431 -0.3667
50497W        W93435  10.439  32.392  30.617  0.1375 -0.0754  0.0525
50498W        W93436   9.653  32.099  29.542 -0.1088  0.1400  0.4339
50499W        W93437   9.423  28.810  31.822  0.1009  0.0365 -0.2306
50500W        W93438   8.442  29.161  26.642  0.0517  0.1757 -0.2500
50501W        W93439   7.678  31.231  27.949  0.1953 -0.0218 -0.4261
50502W        W93440   8.911  30.840  29.037 -0.0881 -0.2617 -0.0141
50503W        W93441   7.453  30.373  29.178  0.1223  0.1108  0.0234
50504W        W93442   8.541  31.271  30.076  0.0874  0.4094  0.2193
50505W        W93443   8.987  32.763  26.917  0.1990  0.0365  0.1158
50506W        W93444  10.371  31.092  30.510  0.2537 -0.0157 -0.4082
50507W        W93445   7.365  31.986  29.574  0.1262 -0.0136 -0.2856
50508W        W93446  10.341  28.882  27.748 -0.0502 -0.0406  0.0205
50509W        W93447   6.918  31.829  30.325 -0.0009 -0.0418 -0.0134
50510W        W93448   9.245  30.188  27.344 -0.3888 -0.0555 -0.2234
50511W        W93449   7.199  30.105  26.912  0.0703 -0.0508  0.2473
50512W        W93450   9.308  30.734  26.681 -0.0605  0.1005  0.2654
50513W        W93451  11.023  31.740  27.198  0.0102  0.0519 -0.4623
50514W        W93452   9.448  29.049  30.638 -0.1862 -0.1952 -0.0874
50515W        W93453   8.277  28.937  27.813 -0.1134  0.0005  0.0935
50516W        W93454   7.756  31.245  30.883  0.1031  0.1490 -0.2201
50517W        W93455  10.750  31.433  30.419 -0.2538  0.1962  0.0140
50518W        W93456   9.786  29.480  26.734 -0.2281  0.2373  0.0714
50519W        W93457  10.917  31.650  29.623 -0.1257  0.1420 -0.0907
50520W        W93458   8.118  30.267  30.887 -0.0696 -0.1140  0.1355
50521W        W93459   7.176  29.681  28.558  0.2215  0.1810  0.2441
50522W        W93460   9.949  30.615  29.553  0.0619 -0.0702  0.1021
50523W        W93461   7.728  28.479  28.022 -0.2252  0.0663  0.2394
50524W        W93462   8.003  32.645  27.924  0.1454  0.0244  0.0341
50525W        W93463  10.084  32.837  30.750  0.1094 -0.0010  0.4633
50526W        W93464   8.619  30.133  29.166  0.3941 -0.0648 -0.2600
50527W        W93465   7.502  31.714  28.715  0.1023  0.3079  0.0559
50528W        W93466   9.008  28.782  31.438  0.1691 -0.3760 -0.1473
50529W        W93467  11.174  31.153  29.792 -0.0134 -0.0642  0.1332
50530W        W93468   7.943  29.411  28.919 -0.0927 -0.1196 -0.0947
50531W        W93469   8.430  29.260  29.126 -0.0994 -0.0153  0.1235
50532W        W93470  10.520  29.916  29.401 -0.0608 -0.2585  0.2040
50533W        W93471  10.037  30.576  28.535  0.0411 -0.2105  0.2513
50534W        W93472   8.590  29.730  29.414  0.2175 -0.0466  0.0537
50535W        W93473   9.314  30.467  31.748 -0.0938  0.1253 -0.3582
50536W        W93474   9.552  29.280  29.184  0.1059 -0.1000  0.2535
50537W        W93475  10.478  32.505  27.594 -0.0342 -0.0146  0.1161
50538W        W93476  10.323  31.910  31.132 -0.4622  0.0690 -0.0687
50539W        W93477   9.068  30.728  27.325  0.4695 -0.0643  0.1009
50540W        W93478   6.996  30.851  29.812 -0.0782  0.4876 -0.0589
50541W        W93479   9.070  30.808  28.199  0.0308 -0.0420 -0.0581
50542W        W93480   9.852  29.350  30.112  0.1607  0.0649  0.0455
50543W        W93481   8.534  31.264  29.311 -0.1782 -0.0844  0.1868
50544W        W93482   8.124  31.153  28.156  0.0537 -0.1360  0.0481
50545W        W93483   8.415  32.261  30.226 -0.1110  0.0478  0.0053
50546W        W93484  10.108  31.236  26.911  0.0457  0.0068 -0.0081
50547W        W93485  10.208  30.608  28.015 -0.0331  0.0878  0.2677
50548W        W93486   8.818  30.646  28.568  0.0299  0.1346 -0.2054
50549W        W93487  10.378  29.917  30.718  0.1223  0.1654  0.0692
50550W        W93488   9.508  30.744  27.520  0.0894  0.0970  0.3694
50551W        W93489  10.830  29.520  31.820 -0.1273  0.1363  0.1806
50552W        W93490   7.881  28.149  30.708  0.1861  0.1803  0.1348
50553W        W93491  10.738  31.224  29.469  0.1280  0.4635  0.0975
50554W        W93492   7.548  30.234  30.116 -0.0213 -0.1467 -0.1336
50555W        W93493  10.642  32.914   0.714 -0.0185 -0.1682 -0.0259
50556W        W93494   8.707  29.156   0.234 -0.0664 -0.2026  0.1417
50557W        W93495   7.933  28.428  27.576 -0.0501  0.3246  0.0693
50558W        W93496   8.058  29.426  29.388  0.0467 -0.0139  0.2938
50559W        W93497   9.682  30.926  29.908  0.0160  0.1555 -0.3718
50560W        W93498   9.860  31.767  30.085 -0.0475  0.3227 -0.1747
50561W        W93499   9.468  31.408  28.875 -0.1302  0.0287  0.1182
50562W        W93500  11.786  30.775  28.569 -0.0088 -0.1852 -0.1582
50563W        W93501   8.379  31.708  29.739 -0.0676  0.3268 -0.1426
50564W        W93502   9.459  31.257  28.336  0.0755  0.3633 -0.0127
50565W        W93503   8.762  30.338  27.449 -0.0278 -0.0129 -0.2453
50566W        W93504   9.337  29.311  28.344 -0.2637 -0.0496  0.3630
50567W        W93505   8.760  29.625  31.286  0.0523  0.0305 -0.2306
50568W        W93506   8.630  31.537  30.675 -0.2149 -0.1925  0.3632
50569W        W93507   9.533  28.982  27.800  0.2984  0.3709 -0.0847
50570W        W93508  10.348  31.601  29.464  0.0801  0.0527  0.4314
50571W        W93509   9.475  29.919  30.157  0.1494  0.4689  0.1873
50572W        W93510   9.536  29.392  31.026 -0.2324 -0.2273  0.0158
50573W        W93511   7.931  29.344  29.925 -0.0259  0.1583 -0.3068
50574W        W93512  10.272  32.477  30.007  0.1591 -0.3279  0.3191
50575W        W93513  10.669  29.106  25.272  0.0657  0.0758  0.0014
50576W        W93514  11.069  29.174  29.283  0.3211  0.1323 -0.3854
50577W        W93515  11.218  30.995  29.260  0.0761 -0.1407  0.1429
50578W        W93516   8.908  29.312  27.247  0.2334 -0.1536 -0.3117
50579W        W93517   9.363  29.029  29.644 -0.3730 -0.2614  0.0857
50580W        W93518   9.769  31.415   1.316  0.0020 -0.0354  0.0689
50581W        W93519   8.023  29.426  26.751  0.1918 -0.3341 -0.2537
50582W        W93520   8.482  27.407  29.819  0.0539 -0.1250 -0.2838
50583W        W93521   9.773  32.283  30.022 -0.2305 -0.0816 -0.2760
50584W        W93522  10.318  31.243  29.080 -0.0865  0.0933 -0.1412
50585W        W93523  10.321  29.313  28.096 -0.0172 -0.2864  0.0451
50586W        W93524   7.606  29.092  30.547 -0.0953 -0.4138 -0.0252
50587W        W93525   6.950  30.832  31.401  0.1869 -0.1816 -0.0981
50588W        W93526   7.377  29.876  28.986 -0.1557  0.3671  0.1736
50589W        W93527   8.848  30.892  27.739 -0.1423  0.2774 -0.1359
50590W        W93528  10.322  32.062  30.257 -0.4954 -0.1674  0.3894
50591W        W93529  11.395  32.353  31.114 -0.0040 -0.2592  0.1999
50592W        W93530   9.275  29.103  26.941  0.0653 -0.1146  0.1411
50593W        W93531  10.788  30.402   0.182  0.0828  0.0413 -0.1665
50594W        W93532   8.084  31.078  29.018  0.2640  0.0826 -0.2250
50595W        W93533   8.826  28.389  28.820  0.0756  0.3008  0.2977
50596W        W93534   9.965  32.485  30.412  0.1481  0.2121 -0.1749
50597W        W93535   6.680  30.354  29.992 -0.1534 -0.0461  0.0358
50598W        W93536  10.261  31.120  28.498 -0.1687 -0.0294  0.3582
50599W        W93537   8.822  28.390  29.381  0.1850  0.1562  0.0926
50600W        W93538   9.176  28.888  28.964  0.0671  0.2414 -0.0681
50601W        W93539   9.478  30.266  29.275 -0.0059 -0.0537 -0.1905
50602W        W93540  10.382  30.123  30.233 -0.0602  0.1058 -0.1132
50603W        W93541  10.251  30.565  30.473  0.2170 -0.0730 -0.0367
50604W        W93542   9.075  30.374  31.243 -0.1037  0.5636 -0.2578
50605W        W93543  10.305  32.364  28.632 -0.2700  0.1926 -0.2361
50606W        W93544  10.898  30.550  28.144 -0.1552  0.2331  0.1793
50607W        W93545   7.397  32.447  29.744  0.0226 -0.1758 -0.2313
50608W        W93546   8.270  29.678  30.236  0.1113 -0.1365 -0.0011
50609W        W93547   9.958  31.023   0.149 -0.1617  0.0085  0.0058
50610W        W93548   8.893  29.610  28.442 -0.1478  0.0602 -0.1888
50611W        W93549   8.044  29.753  27.211 -0.3266  0.0036  0.1051
50612W        W93550   7.410  32.006  27.895 -0.0082 -0.1261  0.1433
50613W        W93551   7.950  32.126  30.488 -0.1386 -0.0761  0.1048
50614W        W93552   8.119  30.843  30.680  0.3172 -0.0725 -0.0598
50615W        W93553   8.713  32.638  27.750  0.0237  0.0173 -0.0662
50616W        W93554   9.908  31.082  28.093  0.1672 -0.0939  0.0271
50617W        W93555   9.120  30.230  26.802 -0.0975 -0.2161 -0.0891
50618W        W93556   9.374  32.578  31.856  0.4626  0.0671  0.0474
50619W        W93557   7.500  29.067  27.913 -0.0419 -0.1875 -0.1031
50620W        W93558   9.072  31.211  28.686 -0.2027  0.1513 -0.0135
50621W        W93559   7.719  31.698  28.196 -0.1806 -0.0405 -0.0530
50622W        W93560   9.036  31.258  28.029 -0.1927 -0.2367 -0.0752
50623W        W93561   9.526  32.967  28.566 -0.0503  0.0548  0.1607
50624W        W93562  11.315  32.012  30.261 -0.1775  0.1058  0.1445
50625W        W93563   9.487  30.484  27.027  0.0631  0.2617  0.0915
50626W        W93564  11.778  30.832  27.615  0.0191  0.3455  0.0432
50627W        W93565  12.482  29.233  28.380 -0.3017 -0.0957 -0.1727
50628W        W93566   9.395  31.925  30.353  0.2849 -0.2491 -0.0373
50629W        W93567   9.546  29.821  29.108  0.2554  0.2045 -0.4488
50630W        W93568   7.523  29.211  26.593 -0.0087 -0.0818  0.0347
50631W        W93569   8.711  28.367  30.995  0.3803  0.0319 -0.0057
50632W        W93570  10.817  29.409  30.123 -0.1445  0.1232  0.2226
50633W        W93571   7.871  32.431  30.959 -0.1757 -0.0844 -0.0648
50634W        W93572   9.516  32.512  28.381  0.2497 -0.1608  0.1641
50635W        W93573   7.828  28.640  28.504  0.0187  0.0699 -0.0697
50636W        W93574   9.233  31.212  29.725 -0.1101 -0.0608  0.3650
50637W        W93575  10.322  28.625  29.603  0.2267  0.1987  0.0406
50638W        W93576   7.964  30.602  28.042 -0.0651 -0.0170  0.2011
50639W        W93577   9.881  31.055  29.337  0.0444  0.0777 -0.0668
50640W        W93578   9.901  32.183  28.340 -0.0191 -0.1379  0.1047
50641W        W93579   8.175  31.291  30.512 -0.1906 -0.2387  0.0436
50642W        W93580   9.597  31.953  29.015 -0.2643 -0.1340 -0.4209
50643W        W93581   7.019  28.016  29.304  0.0041  0.1466 -0.0125
50644W        W93582  11.514  31.905  27.389 -0.2808  0.0087 -0.0804
50645W        W93583   9.481  27.595  29.661  0.0166 -0.0904 -0.3082
50646W        W93584   9.176  28.512  29.863 -0.2946 -0.0469 -0.3238
50647W        W93585   8.628  29.899  29.873  0.2346 -0.0693  0.3083
50648W        W93586  10.234  29.664  28.454  0.1596  0.0096 -0.2132
50649W        W93587   9.046  31.177  30.750 -0.1413  0.1097 -0.0000
50650W        W93588   8.083  29.667  31.783  0.2012  0.1207 -0.0818
50651W        W93589   8.011  30.029  26.387  0.0712  0.0939 -0.1113
50652W        W93590  10.338  30.254  31.735 -0.0550 -0.3194  0.0039
50653W        W93591  10.691  31.224  27.725  0.1498 -0.1235 -0.0054
50654W        W93592   9.963  32.144   0.248 -0.0385  0.1442 -0.3017
50655W        W93593   7.290  28.728  28.695  0.1582  0.0073  0.0884
50656W        W93594   8.576  29.469  27.729 -0.0342 -0.1216  0.2275
50657W        W93595   9.029  30.463  29.424  0.1264  0.4014  0.0670
50658W        W93596  10.214  31.563  30.355 -0.1439  0.0001 -0.0134
50659W        W93597  11.171  32.234  31.559 -0.1144  0.0899 -0.1160
50660W        W93598   7.763  29.519  27.626  0.2944 -0.0230 -0.3125
50661W        W93599  11.393  30.458  27.136  0.1330  0.2789 -0.0727
50662W        W93600  10.356  29.289  28.781 -0.0624  0.1113  0.0810
50663W        W93601   9.087  31.757  28.348  0.1137  0.0358  0.1667
50664W        W93602  10.349  30.755  29.162 -0.1795  0.0796 -0.0123
50665W        W93603   9.940  31.589  29.163  0.1937  0.1498  0.0065
50666W        W93604   7.311  29.967  30.492 -0.1189 -0.1490  0.2405
50667W        W93605  10.452  31.694  29.943  0.2788 -0.0073  0.3831
50668W        W93606   8.856  31.513  29.689 -0.2711  0.1028  0.0709
50669W        W93607   8.489  28.105  28.181 -0.0540 -0.0062  0.0933
50670W        W93608   8.832  30.942  29.563  0.1034 -0.1454  0.0605
50671W        W93609   6.231  31.677  28.623 -0.1334  0.0058 -0.2420
50672W        W93610  10.342  30.326  28.948 -0.0512 -0.0593 -0.0969
50673W        W93611   9.365  30.856  29.280  0.2519 -0.0824 -0.1716
50674W        W93612   8.803  32.116  27.426  0.1535 -0.1669  0.1091
50675W        W93613  10.024  30.104  29.325  0.0792  0.0112 -0.0541
50676W        W93614   9.264  31.903  31.174 -0.0182  0.1235  0.3973
50677W        W93615   9.299  30.357  30.253  0.0515 -0.1477  0.1823
50678W        W93616   7.508  31.026  27.356  0.1977  0.1001  0.3574
50679W        W93617   8.837  30.723  30.981  0.0575  0.0458  0.1239
50680W        W93618   8.350  30.937  29.705 -0.2366  0.0062 -0.1488
50681W        W93619   9.620  32.777  26.752 -0.0975  0.0852 -0.0320
50682W        W93620  10.532  31.951  29.157 -0.0657 -0.2027  0.0536
50683W        W93621   9.088  29.276  27.728 -0.3206  0.2041  0.1729
50684W        W93622  12.929  32.707  29.620  0.0800 -0.1321 -0.2307
50685W        W93623   7.980  29.316  27.997 -0.2438  0.0429  0.0305
50686W        W93624  11.585  29.350  28.231  0.2085 -0.2103 -0.0036
50687W        W93625   9.434  28.407  28.705  0.0545  0.0799 -0.1175
50688W        W93626   9.278  29.386  28.793  0.1543  0.0309 -0.0921
50689W        W93627   7.526  30.013  28.447 -0.0021 -0.1531 -0.0058
50690W        W93628   7.574  31.650  27.050 -0.1586  0.3007  0.2850
50691W        W93629   8.110  31.448  28.621 -0.1175 -0.1470  0.0815
50692W        W93630   9.633  28.599  30.665  0.0572  0.0216 -0.2597
50693W        W93631   8.017  29.905  28.958  0.1890  0.3722 -0.2010
50694W        W93632   8.564  29.978  30.657  0.1023 -0.4057 -0.1859
50695W        W93633   7.816  30.394  28.698 -0.0241  0.0263  0.0764
50696W        W93634  10.352  32.953  27.407  0.0989  0.1617 -0.0539
50697W        W93635   7.639  27.845  28.147  0.1981 -0.3368 -0.1425
50698W        W93636   6.843  29.999  29.650  0.0180  0.0090  0.0404
50699W        W93637  10.347  32.986  26.499  0.0705  0.1145 -0.0077
50700W        W93638  10.547  31.936  28.398  0.3612 -0.2879 -0.0194
50701W        W93639   7.359  30.018  27.652 -0.1297  0.3196  0.2792
50702W        W93640  10.984  32.057  30.726 -0.2130  0.2121  0.0152
50703W        W93641   7.566  29.907  27.195  0.3145 -0.1607  0.1072
50704W        W93642   9.525  29.997  30.651  0.2671 -0.2652  0.0792
50705W        W93643  10.484  29.419  31.349  0.0250  0.1221 -0.0646
50706W        W93644   7.032  31.426  28.660 -0.3126 -0.1072  0.0647
50707W        W93645   9.478  29.669  29.610  0.1427  0.0681  0.1637
50708W        W93646   9.072  32.604  27.396 -0.2611  0.2586  0.0843
50709W        W93647  11.333  33.686  27.363  0.0956  0.0996 -0.2435
50710W        W93648   8.967  30.644  30.487 -0.0166 -0.0318 -0.0243
50711W        W93649   9.732  32.628  31.401  0.0912  0.1401 -0.2446
50712W        W93650   6.684  28.236  31.233  0.1106 -0.0443 -0.0023
50713W        W93651   9.567  33.080  27.623  0.1221  0.0399 -0.1015
50714W        W93652   8.139  32.266   1.276  0.1422  0.1846 -0.1718
50715W        W93653  11.588  31.574  27.846  0.1936 -0.2323  0.0447
50716W        W93654  10.982  29.351  28.858  0.1924 -0.0047  0.3228
50717W        W93655  10.186  31.413  27.815  0.0051 -0.3506 -0.3571
50718W        W93656   7.234  29.118  30.943 -0.5337  0.0758  0.0780
50719W        W93657   8.236  31.000  31.129  0.0887  0.2175 -0.2654
50720W        W93658   8.718  31.745  30.165  0.2916 -0.1102 -0.1236
50721W        W93659   7.989  28.550  29.400  0.0870  0.0960 -0.1249
50722W        W93660   9.563  29.783  27.245 -0.0592  0.2401  0.0220
50723W        W93661   8.753  32.002  27.897  0.2543  0.0922 -0.1034
50724W        W93662   9.413  31.639  29.370  0.4842 -0.1798 -0.2653
50725W        W93663   8.345  30.412  28.830 -0.1032 -0.1201 -0.0653
50726W        W93664   9.090  30.121  29.819 -0.0123 -0.3438 -0.0030
50727W        W93665   8.928  30.666  29.958  0.0981 -0.1693  0.0641
50728W        W93666  10.575  30.662  28.592 -0.1338  0.0657 -0.3043
50729W        W93667   8.310  30.182  27.250 -0.0184 -0.0309 -0.0157
50730W        W93668   9.670  30.158  28.203  0.1493 -0.1108 -0.3793
50731W        W93669   9.859  32.830  29.893  0.1266 -0.2204 -0.0377
50732W        W93670  10.497  31.825  30.647 -0.0703 -0.0255  0.0684
50733W        W93671  10.684  32.687  29.905  0.2829  0.2726 -0.2109
50734W        W93672  10.601  29.404  29.536  0.2318  0.4261 -0.2437
50735W        W93673   9.336  26.902  30.439  0.1207 -0.0277 -0.0306
50736W        W93674   8.676  30.090  28.318  0.4057  0.0967  0.1453
50737W        W93675   9.060  29.914  29.309 -0.2750 -0.0304  0.1010
50738W        W93676   9.946  30.389  26.864  0.1282  0.0740 -0.2112
50739W        W93677   8.276  30.203  29.984 -0.1213  0.0124 -0.1129
50740W        W93678   9.143  28.708  27.918 -0.0416 -0.0923  0.3714
50741W        W93679   8.175  33.096  29.837  0.0796  0.0851  0.2019
50742W        W93680   8.819  29.149  28.587  0.0649  0.0636 -0.1323
50743W        W93681  10.163  30.518  31.326 -0.1219  0.1340  0.2880
50744W        W93682  10.150  31.534  31.388  0.0672 -0.0450 -0.0678
50745W        W93683   9.330  30.032  31.544  0.1441  0.2784  0.0606
50746W        W93684   7.203  32.242   0.019  0.0382 -0.2135 -0.2923
50747W        W93685   9.190  32.697  30.812 -0.1379  0.0096 -0.1584
50748W        W93686   8.751  31.339  31.142  0.0332 -0.2461  0.1004
50749W        W93687  10.478  31.150  31.230 -0.0551  0.0071 -0.0840
50750W        W93688  10.174  29.489  30.937 -0.0621  0.1389 -0.1694
50751W        W93689  11.253  30.299   1.409  0.3921  0.1571  0.0152
50752W        W93690   9.223  32.251  29.875  0.0017 -0.3352  0.2845
50753W        W93691   9.934  31.626   0.331 -0.2407  0.1147 -0.0861
50754W        W93692   8.829  27.871  31.199 -0.2291 -0.1821  0.0111
50755W        W93693  10.754  30.980  29.012 -0.0297  0.0878 -0.0834
50756W        W93694   9.630  31.165  30.746  0.2278 -0.0687 -0.0668
50757W        W93695  10.824  31.022  31.842 -0.4035 -0.1442  0.2349
50758W        W93696   7.598  32.402  31.719 -0.0326 -0.0594  0.0422
50759W        W93697   7.914  32.170  31.378 -0.1282  0.3310 -0.1083
50760W        W93698  11.074  32.723  31.407  0.3778 -0.2175 -0.0050
50761W        W93699   7.510  29.002   1.344  0.1661 -0.0083  0.1115
50762W        W93700   8.611  29.573  31.815 -0.0788  0.0184 -0.3161
50763W        W93701   7.191  29.518  31.290  0.3114 -0.2374 -0.0131
50764W        W93702   7.395  33.037   0.524 -0.0931 -0.2016  0.4401
50765W        W93703  11.843  30.048  31.742 -0.0972 -0.2026 -0.0863
50766W        W93704   9.572  30.106   0.067 -0.1898 -0.1945  0.2373
50767W        W93705  10.621  30.216  31.147 -0.0343  0.0590 -0.0115
50768W        W93706  10.696  29.865  31.485 -0.3156 -0.0728  0.3978
50769W        W93707   9.139  30.307  30.774 -0.2228  0.0339  0.1648
50770W        W93708   8.298  32.232  31.033 -0.1571 -0.1407 -0.0408
50771W        W93709   9.104  28.483  30.451  0.2523  0.0054  0.0893
50772W        W93710  10.185  30.334  30.877  0.1290  0.0911  0.0876
50773W        W93711   9.428  32.220   0.170 -0.1748 -0.2883  0.0095
50774W        W93712  10.727  31.047   0.391 -0.1757 -0.3089  0.1866
50775W        W93713  10.048  31.258  29.912 -0.1991 -0.0745  0.0293
50776W        W93714   9.283  27.856   0.727 -0.3343 -0.4015 -0.0054
50777W        W93715   8.404  29.079  30.267  0.0662 -0.3139  0.0707
50778W        W93716   7.516  30.279  31.899  0.2319  0.0986  0.4224
50779W        W93717   8.580  30.988   0.187  0.1171  0.2894 -0.0309
50780W        W93718  11.665  31.775  31.206  0.3960  0.0525  0.3191
50781W        W93719  11.320  31.196  31.883 -0.0073  0.0905 -0.5188
50782W        W93720   9.107  29.305   0.534  0.0687 -0.0956 -0.3855
50783W        W93721  11.851  30.012  31.215  0.2472  0.3354  0.1770
50784W        W93722   8.682  29.486   0.715 -0.0176  0.3946 -0.2916
50785W        W93723   9.483  29.275  31.549  0.5025 -0.2943  0.0390
50786W        W93724  11.131  32.193   0.237  0.2461 -0.1924  0.1306
50787W        W93725   9.849  30.085  31.573  0.0153 -0.0231 -0.1140
50788W        W93726  10.067  30.929  30.851  0.2100  0.1340  0.0431
50789W        W93727   8.250  29.745   0.911 -0.0981  0.0322 -0.1087
50790W        W93728   9.596  30.264  31.144  0.1794 -0.3203 -0.1347
50791W        W93729  10.613  31.626  31.529 -0.1687 -0.0811  0.3054
50792W        W93730   8.730  31.873  31.069  0.0252 -0.2567 -0.3963
50793W        W93731  10.738  31.622  31.029  0.0724  0.2796 -0.1972
50794W        W93732  10.745  30.357  30.003 -0.1274  0.1929  0.0375
50795W        W93733   8.551  29.186  31.426 -0.0922 -0.0206  0.5058
50796W        W93734   9.567  32.302   0.705  0.2993  0.1250 -0.1809
50797W        W93735   9.721  30.460  30.711 -0.0313  0.1568 -0.1422
50798W        W93736  11.199  31.821  31.128  0.1769  0.1197 -0.0981
50799W        W93737  12.136  31.429  31.328 -0.3502  0.1056  0.3256
50800W        W93738   9.621  32.181  30.966  0.0464 -0.2996  0.0797
50801W        W93739   9.925  31.820  31.821 -0.1142 -0.1834 -0.1773
50802W        W93740   7.223  30.537   0.267  0.1638  0.1494  0.0859
50803W        W93741   7.818  28.891   0.295  0.2643 -0.0118 -0.1383
50804W        W93742   8.581  32.071  30.654  0.1799 -0.0062  0.0925
50805W        W93743   7.593  30.049  31.120  0.2860  0.1839 -0.2890
50806W        W93744   8.393  29.135   1.060 -0.3824 -0.2105  0.1728
50807W        W93745   9.731  31.600  30.564 -0.3892 -0.1985 -0.2084
50808W        W93746   9.596  30.715  31.432  0.1099 -0.1020 -0.2326
50809W        W93747  11.839  29.937  30.722  0.0749 -0.2266  0.4004
50810W        W93748   8.056  33.956  17.446  0.2056 -0.3375 -0.0850
50811W        W93749   9.920  33.393  16.109  0.2202 -0.0258  0.2084
50812W        W93750  10.561  33.737  16.540  0.2180  0.1898 -0.1721
50813W        W93751   8.759  33.862  16.267 -0.0566  0.1016 -0.1229
50814W        W93752   7.700  31.765  19.085 -0.0017  0.0701 -0.3259
50815W        W93753  10.185  33.803  16.903  0.3914 -0.1925  0.0149
50816W        W93754   8.223  33.716  17.992  0.0304  0.0645 -0.3361
50817W        W93755   9.012  31.803  16.617  0.0349  0.1490 -0.0115
50818W        W93756   8.220  34.415  17.114 -0.1148  0.2648  0.1490
50819W        W93757   9.498   0.929  18.597  0.2379 -0.1779  0.4036
50820W        W93758   7.781  33.866  16.370 -0.1038 -0.0217 -0.1106
50821W        W93759   6.936  34.482  17.826  0.1502 -0.1327 -0.1776
50822W        W93760   9.763  33.880  16.573 -0.0222  0.0435 -0.1313
50823W        W93761   7.175  33.501  17.711 -0.2053 -0.0276 -0.2120
50824W        W93762   8.068  34.448  18.306 -0.1721  0.4080  0.0517
50825W        W93763   8.008   0.306  15.690 -0.1516  0.1183 -0.1682
50826W        W93764   6.436  33.919  18.088 -0.2389 -0.0833  0.0286
50827W        W93765   8.472  34.669  17.545  0.2542 -0.1083 -0.0960
50828W        W93766   8.718  33.894  17.899 -0.1342 -0.1038  0.1151
50829W        W93767  10.051  33.868  17.440 -0.0482 -0.0231  0.2151
50830W        W93768   8.805   0.119  17.256 -0.1891  0.4255 -0.5527
50831W        W93769   7.838   0.652  18.590 -0.3248 -0.0911  0.1626
50832W        W93770   7.655   1.570  18.493 -0.2348 -0.1756 -0.3387
50833W        W93771  11.787  32.407  19.006 -0.3567 -0.1677  0.1557
50834W        W93772  10.120  33.754  15.740  0.0131  0.2170  0.0102
50835W        W93773   9.163  32.701  16.182 -0.0366  0.2325  0.1144
50836W        W93774  10.041  32.166  15.386 -0.1960  0.2099 -0.1387
50837W        W93775   7.625  32.522  17.643  0.4519 -0.0255  0.2807
50838W        W93776   8.547  33.276  17.143  0.0620 -0.0268  0.4462
50839W        W93777   8.463   0.132  16.913 -0.0365 -0.0584  0.1382
50840W        W93778   9.450  33.843  19.180  0.1701 -0.0670  0.0311
50841W        W93779   7.234  34.562  17.007  0.0642  0.0286  0.1860
50842W        W93780   8.372  34.309  16.128 -0.3520  0.0025 -0.3367
50843W        W93781   5.996  34.153  18.001  0.0100 -0.3791 -0.1978
50844W        W93782   7.783  34.118  19.204 -0.1982  0.0315 -0.4619
50845W        W93783   8.910  31.431  16.264 -0.1488 -0.1588 -0.1315
50846W        W93784   9.187  34.099  17.959  0.2010 -0.2780  0.0426
50847W        W93785   9.410  32.202  17.424 -0.0410  0.0425 -0.0343
50848W        W93786   9.046  32.792  17.095 -0.1143 -0.0040 -0.0371
50849W        W93787  11.504  33.597  15.755  0.1210 -0.0329 -0.1111
50850W        W93788   8.541   0.376  18.643 -0.1058  0.0326  0.1635
50851W        W93789   7.211  32.478  18.617 -0.3485 -0.0446 -0.2491
50852W        W93790   9.668  34.376  17.825 -0.4038  0.3357  0.0002
50853W        W93791   7.005  34.610  19.431  0.2808 -0.3354 -0.0620
50854W        W93792   9.189  33.646  16.667 -0.0358 -0.0602 -0.0068
50855W        W93793  10.775  34.227  16.191  0.0939  0.0021  0.0857
50856W        W93794   7.880  33.143  18.739 -0.2702 -0.0858 -0.0200
50857W        W93795   8.627  32.980  16.745 -0.0114  0.2635 -0.0636
50858W        W93796   8.804  32.464  19.005 -0.0313 -0.0395 -0.3187
50859W        W93797   7.472  34.673  19.648  0.0490 -0.1755  0.0108
50860W        W93798  10.135   0.917  19.180  0.1925 -0.0078  0.1853
50861W        W93799   8.572  32.766  15.380 -0.2850  0.3503 -0.1154
50862W        W93800   9.201  33.487  16.241  0.2500 -0.0561 -0.2103
50863W        W93801   8.893   0.412  16.495 -0.3542  0.4000 -0.0029
50864W        W93802   9.614  32.956  18.108  0.1342  0.2512  0.0166
50865W        W93803   7.456  32.565  20.612 -0.2840  0.1332 -0.0675
50866W        W93804   8.362   0.497  17.274 -0.2223 -0.1033  0.2529
50867W        W93805   8.425  33.245  15.753  0.0879 -0.4259 -0.1061
50868W        W93806   8.542  32.323  17.816 -0.0423 -0.1287 -0.0827
50869W        W93807   9.140  34.185  18.477  0.0428  0.2652 -0.0126
50870W        W93808   8.065  33.579  15.609 -0.2377 -0.1265 -0.0804
50871W        W93809   7.599   0.353  17.233  0.2454 -0.2080 -0.0371
50872W        W93810   9.119  31.843  17.670  0.2351 -0.4484 -0.2062
50873W        W93811   5.583   0.195  19.167 -0.1307 -0.1443 -0.0882
50874W        W93812   8.462  33.951  20.459  0.1838  0.1283 -0.1161
50875W        W93813   7.164  34.111  16.721 -0.0427 -0.1505 -0.1106
50876W        W93814   9.300  34.569  17.526 -0.0115  0.2141 -0.0086
50877W        W93815  10.135  32.986  16.882 -0.0291  0.3216 -0.2008
50878W        W93816  10.453  33.559  15.411  0.2013 -0.0685  0.0679
50879W        W93817   9.480  33.328  15.823 -0.0189  0.0692  0.0396
50880W        W93818   9.134  33.843  15.801  0.0500  0.1245  0.1532
50881W        W93819   8.757  32.933  18.379 -0.2800  0.1577  0.0884
50882W        W93820   9.256  34.023  16.321  0.0850 -0.0518  0.1772
50883W        W93821   9.543  32.409  15.973  0.0548  0.2025 -0.1286
50884W        W93822   9.726  31.790  18.307 -0.1623  0.3492 -0.0452
50885W        W93823   9.663  32.991  16.717 -0.1419  0.2037  0.1041
50886W        W93824   8.321  32.861  18.006  0.0595  0.0891 -0.2481
50887W        W93825   9.214   0.510  18.840 -0.1620  0.2412 -0.0394
50888W        W93826   9.846  33.370  17.029  0.0794  0.1390  0.1271
50889W        W93827   9.009   0.923  17.710 -0.2414 -0.1716  0.0708
50890W        W93828   8.709  34.513  15.403 -0.2008  0.0451  0.1292
50891W        W93829   8.575  34.107  19.390 -0.1707 -0.2612 -0.2460
50892W        W93830   8.412  34.571  19.537 -0.1938 -0.2441 -0.0261
50893W        W93831   8.169  33.857  16.022  0.0514 -0.0130  0.3789
50894W        W93832   7.753  32.006  17.640  0.0174 -0.3192  0.2123
50895W        W93833   9.971  31.713  18.690 -0.0708  0.0094 -0.4245
50896W        W93834   8.524   0.071  16.450  0.1857  0.0500  0.2958
50897W        W93835   8.247  33.846  16.546 -0.1838 -0.4410  0.2467
50898W        W93836   9.151  31.899  17.085  0.0946  0.3223  0.1121
50899W        W93837   7.744  32.618  18.806  0.1564 -0.2153  0.2103
50900W        W93838   9.634  33.426  16.532 -0.1264 -0.0823  0.2013
50901W        W93839   8.846   0.119  17.855 -0.1016  0.0160  0.1448
50902W        W93840   9.869  32.011  15.801  0.2258 -0.1555 -0.2934
50903W        W93841   9.294  34.339  19.335 -0.2325  0.0302 -0.0387
50904W        W93842   8.494   0.015  15.857  0.0673  0.2560  0.0475
50905W        W93843   9.508  33.822  18.676  0.0485  0.2262 -0.0911
50906W        W93844   7.851  34.079  17.900  0.0651  0.0171 -0.3238
50907W        W93845   8.349  34.245  17.874 -0.2508  0.1241  0.3502
50908W        W93846   7.861  32.547  20.237  0.2908  0.0267  0.0481
50909W        W93847   9.398  33.082  17.637  0.2701  0.3569 -0.2624
50910W        W93848   7.761  32.943  16.767  0.4693 -0.1077  0.1866
50911W        W93849   8.057  34.639  17.841 -0.0580 -0.3123  0.0511
50912W        W93850   9.435   1.513  18.732  0.2235 -0.0651 -0.0584
50913W        W93851   8.862  32.594  16.585 -0.1429  0.2041 -0.1624
50914W        W93852   8.841  34.447  18.198  0.2463  0.0173  0.1664
50915W        W93853   7.732  33.617  18.953 -0.2505  0.1913  0.0908
50916W        W93854   9.667  31.549  16.415  0.0984 -0.2323 -0.0184
50917W        W93855   8.711  34.326  17.050  0.0261 -0.1433 -0.0552
50918W        W93856  10.291  32.074  18.897  0.1421  0.0094  0.1740
50919W        W93857  10.839   0.452  15.217 -0.0130  0.0421  0.4016
50920W        W93858   9.279  32.663  20.696  0.0108 -0.2268  0.1445
50921W        W93859   8.290  33.240  18.300 -0.3881  0.0300  0.0367
50922W        W93860   6.377  32.802  17.840  0.1658 -0.0031 -0.0559
50923W        W93861   8.012  33.888  20.144  0.1472 -0.0200 -0.3181
50924W        W93862  10.017  32.956  16.276  0.1265 -0.0084  0.0320
50925W        W93863   8.100  32.917  16.362 -0.2738 -0.0058  0.1052
50926W        W93864   8.136   1.134  19.199 -0.0413 -0.1768  0.2399
50927W        W93865   9.138  34.166  16.806 -0.1348 -0.0119  0.0736
50928W        W93866   7.123   0.346  17.300  0.1782  0.0700  0.1493
50929W        W93867   8.146   0.791  16.039  0.1151  0.0493  0.0040
50930W        W93868   6.493  33.180  18.138 -0.1385  0.1483  0.1551
50931W        W93869  10.114  34.242  16.690 -0.0588 -0.0152  0.2130
50932W        W93870   8.629   0.479  18.194 -0.1400  0.1444  0.0623
50933W        W93871  10.894   0.346  17.355 -0.1729 -0.1555 -0.1917
50934W        W93872   8.963  33.703  19.398  0.0613  0.0515 -0.1956
50935W        W93873   7.106  31.607  20.330  0.3867 -0.1178 -0.0577
50936W        W93874  10.847  34.601  15.348  0.0595 -0.1184 -0.3553
50937W        W93875   9.478  33.501  18.171  0.0063  0.0935 -0.0200
50938W        W93876   9.860   1.128  16.912  0.1117 -0.0605  0.1517
50939W        W93877   9.293   1.166  16.125  0.1517  0.1013  0.2644
50940W        W93878   7.641  33.578  17.884  0.0811  0.1438  0.2361
50941W        W93879  11.436  33.834  19.975  0.2687  0.1499 -0.2323
50942W        W93880   8.850  34.313  15.881 -0.2144 -0.1627 -0.1613
50943W        W93881   8.525  33.378  19.494  0.2241  0.3122 -0.0094
50944W        W93882  10.286   1.005  16.116  0.3244  0.1698 -0.1003
50945W        W93883   7.752  32.639  19.645  0.2394  0.2791  0.0147
50946W        W93884   8.579  33.448  16.666 -0.1473  0.2912  0.0177
50947W        W93885   8.773   0.610  17.009  0.0292 -0.0766 -0.0236
50948W        W93886   7.969  33.212  15.879  0.0760  0.0169 -0.0746
50949W        W93887  10.336  32.129  17.632  0.1431 -0.4010 -0.0367
50950W        W93888   8.759  33.439  18.536 -0.0333 -0.0289  0.1389
50951W        W93889   8.421  33.559  17.590 -0.2339  0.1794  0.1377
50952W        W93890  10.203   0.572  17.126 -0.0220 -0.1243 -0.2108
50953W        W93891   9.165  34.687  18.846  0.1304 -0.3251 -0.1880
50954W        W93892   8.305   0.795  18.686 -0.0713 -0.0789 -0.0399
50955W        W93893   8.504  34.574  18.621 -0.1064  0.2764 -0.1124
50956W        W93894   7.344  33.439  18.501  0.2974  0.0561 -0.0909
50957W        W93895   7.833  32.384  16.625  0.3258 -0.1805  0.0229
50958W        W93896   9.148  32.231  16.363 -0.3462  0.2004  0.4069
50959W        W93897  10.434  32.164  16.718 -0.2153  0.1367 -0.1878
50960W        W93898  10.576  32.346  18.553 -0.3011 -0.0199 -0.1306
50961W        W93899  11.221  33.959  16.075 -0.0487 -0.4514  0.1426
50962W        W93900   9.347  34.506  18.243 -0.0973  0.2663  0.2173
50963W        W93901   8.290  32.344  15.454 -0.1200  0.2652 -0.1470
50964W        W93902   9.143   1.158  18.932 -0.1423  0.0865  0.0881
50965W        W93903   9.509  32.311  19.808  0.1113 -0.1877 -0.1585
50966W        W93904   7.794  33.324  16.339 -0.0237 -0.1679 -0.2185
50967W        W93905   7.919   1.134  18.705 -0.1987 -0.0949 -0.1241
50968W        W93906  11.696  31.671  17.240 -0.1288 -0.1668  0.1040
50969W        W93907   9.013  33.735  18.258 -0.4081  0.1103 -0.4830
50970W        W93908   8.314  32.559  16.670 -0.2294  0.0668  0.3071
50971W        W93909  11.802  33.029  16.406  0.3753 -0.1255 -0.0491
50972W        W93910   9.571   0.770  20.059  0.1197 -0.0559 -0.1068
50973W        W93911   9.918  32.163  17.985  0.0756  0.2422  0.0394
50974W        W93912   7.659   1.221  17.795  0.2270  0.0835  0.1407
50975W        W93913   9.366   0.360  16.633  0.2357  0.0051 -0.0399
50976W        W93914   7.538  34.522  17.933  0.0227  0.1338  0.1551
50977W        W93915  11.149   0.887  16.224  0.0924  0.1623  0.0612
50978W        W93916  11.377  33.797  17.832  0.0141  0.0551 -0.2893
50979W        W93917   9.505   0.192  16.119  0.3365  0.1529 -0.0601
50980W        W93918   8.426  33.053  17.539  0.4711 -0.0661 -0.4102
50981W        W93919  11.384  34.607  15.905 -0.0131  0.1729  0.3186
50982W        W93920   7.467   0.962  18.545 -0.0421 -0.0412  0.3006
50983W        W93921   8.037   0.174  18.648 -0.0134  0.1459  0.0890
50984W        W93922   8.918  33.628  17.204  0.3200  0.0939 -0.0375
50985W        W93923   9.841  34.682  17.440  0.3581  0.0682 -0.0996
50986W        W93924  11.283   1.066  16.793 -0.0427  0.0826 -0.2621
50987W        W93925   6.396  33.574  18.498 -0.0864 -0.0534 -0.1444
50988W        W93926   8.775  32.865  15.786 -0.1458 -0.1159  0.0507
50989W        W93927   7.489   0.317  18.826  0.2188 -0.2240  0.0439
50990W        W93928  10.174  33.002  18.779  0.0192  0.0875  0.0945
50991W        W93929   9.800  33.277  18.424 -0.1497 -0.2119  0.0931
50992W        W93930   9.980  33.925  18.441 -0.0515  0.0379  0.1046
50993W        W93931   9.502  33.066  16.245  0.0567 -0.1161 -0.4123
50994W        W93932   8.526  34.064  17.403 -0.0007  0.1803 -0.3007
50995W        W93933   9.760  32.185  17.002  0.0607  0.3630 -0.1321
50996W        W93934  10.320  32.982  15.845  0.1313 -0.0040  0.1092
50997W        W93935   7.641   0.362  19.326 -0.2489 -0.1076 -0.3253
50998W        W93936   7.343  33.503  16.434  0.4864 -0.2121  0.1988
50999W        W93937  10.348  33.019  18.325  0.1324 -0.0756  0.0841
51000W        W93938   7.414  33.621  19.388 -0.0090  0.0996 -0.3055
51001W        W93939   8.407   0.692  19.237  0.3035  0.2141 -0.1104
51002W        W93940   7.409  33.098  15.949  0.1480 -0.0848  0.0614
51003W        W93941   8.012  33.279  17.755  0.0513  0.2265  0.4539
51004W        W93942   7.040  33.163  18.058  0.0861  0.2204 -0.1611
51005W        W93943   9.135  33.173  18.078  0.1115 -0.2945 -0.1176
51006W        W93944   9.477  33.703  19.680 -0.1549 -0.2607  0.2859
51007W        W93945   8.479  33.847  19.953 -0.3356  0.1938 -0.0187
51008W        W93946   7.694  34.179  16.037 -0.3767  0.0146  0.1503
51009W        W93947   8.860  34.356  17.626 -0.1361  0.0508 -0.0765
51010W        W93948   7.265  32.298  19.528 -0.0636 -0.0979 -0.0909
51011W        W93949  11.897  32.938  17.992 -0.1042  0.1465 -0.1790
51012W        W93950  10.211  34.267  15.893  0.0118  0.1454 -0.0204
51013W        W93951   6.530  32.150  19.803  0.1797 -0.0958  0.1328
51014W        W93952   8.777  34.141  18.771 -0.0900 -0.0038  0.0546
51015W        W93953   9.795  32.899  15.835 -0.2415 -0.1432 -0.2012
51016W        W93954   6.755   1.392  19.033 -0.0342  0.4898  0.2834
51017W        W93955   8.878  33.391  15.845 -0.3165 -0.1551 -0.0819
51018W        W93956   9.323  33.297  18.645  0.0481 -0.1836 -0.5672
51019W        W93957   9.608  33.814  17.700  0.2003  0.0549 -0.1042
51020W        W93958  11.517   0.986  15.893  0.0494 -0.4225 -0.0368
51021W        W93959   8.505  34.077  18.356 -0.0297 -0.0875  0.1024
51022W        W93960   7.439  34.082  17.128  0.1601 -0.2025  0.0595
51023W        W93961   8.148   0.429  17.698 -0.3499 -0.1265 -0.1469
51024W        W93962   9.552  33.792  16.989  0.2261  0.1245  0.1824
51025W        W93963   8.303  33.692  17.047 -0.0395 -0.0543 -0.2348
51026W        W93964   8.818  33.173  16.301 -0.1130 -0.2358  0.2224
51027W        W93965   8.313  34.320  20.114  0.2369  0.0126 -0.1771
51028W        W93966   9.571  33.249  19.563 -0.0022  0.2948 -0.2385
51029W        W93967   9.692  34.586  19.863  0.0028 -0.0048  0.1894
51030W        W93968   8.229  33.531  21.738  0.3253  0.0884  0.1800
51031W        W93969   7.645  32.530  23.707 -0.1797 -0.1005 -0.1889
51032W        W93970   9.588   0.810  19.278  0.2794  0.0202  0.0775
51033W        W93971   7.791  31.805  24.368  0.2088 -0.4569  0.3350
51034W        W93972   9.449  33.456  20.053 -0.0059 -0.1351  0.0286
51035W        W93973   7.839  33.210  21.810 -0.1681 -0.1143  0.1206
51036W        W93974  10.483  34.529  22.992 -0.0707 -0.0997 -0.0644
51037W        W93975   7.395   0.915  20.177 -0.0703 -0.0274  0.0634
51038W        W93976   7.721  32.204  23.309 -0.2362 -0.2374  0.0493
51039W        W93977   9.118  32.689  19.894  0.0157 -0.1807  0.0227
51040W        W93978   8.749  32.355  22.988  0.1768 -0.0011  0.0594
51041W        W93979  10.314  32.009  23.547 -0.0690  0.0860 -0.0387
51042W        W93980   6.975   0.323  19.128  0.2148 -0.0392 -0.3322
51043W        W93981   7.347  33.765  21.360  0.1081 -0.0428 -0.3591
51044W        W93982   8.677  33.035  21.234  0.1352  0.1002  0.0511
51045W        W93983   9.186  32.404  22.524  0.1366 -0.0372  0.0241
51046W        W93984   8.870   0.014  20.228  0.4379  0.0387 -0.1652
51047W        W93985  10.387  34.173  21.456  0.0208  0.2182 -0.2982
51048W        W93986   9.341  32.765  21.925  0.3578  0.0061 -0.2338
51049W        W93987   9.904   0.908  20.529 -0.0073  0.1559 -0.2251
51050W        W93988   8.891  32.793  22.718  0.2120 -0.0333 -0.2177
51051W        W93989   8.948   0.201  18.433 -0.3269  0.2764 -0.1506
51052W        W93990   7.990  32.380  20.927 -0.1635  0.0741  0.1301
51053W        W93991   8.181  33.369  19.096 -0.2467  0.0834 -0.0988
51054W        W93992   8.223  32.420  19.333 -0.1813 -0.0022  0.2111
51055W        W93993   9.972  32.117  23.042 -0.1204  0.3146 -0.0035
51056W        W93994   8.298  33.503  20.328 -0.3275  0.1808 -0.0522
51057W        W93995   9.399  33.805  22.543  0.1070 -0.0121  0.5397
51058W        W93996   8.952  34.569  21.078 -0.1375  0.0806 -0.1697
51059W        W93997   5.759  34.020  21.850  0.1165  0.1865  0.1476
51060W        W93998   8.859  34.278  23.674  0.1082  0.0636  0.0631
51061W        W93999   7.269  33.320  24.367 -0.0677 -0.3700  0.1980
51062W        W94000   7.256  32.693  19.071  0.1834 -0.1846  0.0109
51063W        W94001  11.006  34.152  17.741 -0.0613  0.0859 -0.1450
51064W        W94002  10.651  32.484  21.368  0.2825  0.0862  0.1096
51065W        W94003  10.159  32.645  22.611 -0.1882 -0.3997 -0.1125
51066W        W94004  10.790  33.526  18.128  0.1735  0.0188 -0.1453
51067W        W94005  10.196  32.546  23.354 -0.1028 -0.2261 -0.2460
51068W        W94006   6.849  32.898  22.582  0.0150  0.1092  0.0647
51069W        W94007  10.049  33.034  19.755  0.0861 -0.0371  0.1660
51070W        W94008   7.767  31.828  24.895  0.0012  0.0022 -0.0614
51071W        W94009   9.866  33.134  20.847 -0.0478 -0.3313  0.0822
51072W        W94010  11.637  33.390  19.715 -0.0437  0.2372 -0.1801
51073W        W94011   7.616  33.365  22.864 -0.2924 -0.8233  0.1823
51074W        W94012   8.417  34.621  21.045  0.2858 -0.0343  0.1874
51075W        W94013   8.605  32.992  22.293  0.0934 -0.1516 -0.0395
51076W        W94014   7.557  32.069  23.827  0.0533 -0.2986 -0.0886
51077W        W94015  10.987  34.298  23.194 -0.1339 -0.1186  0.0017
51078W        W94016   7.382  33.325  19.903  0.0142  0.1718 -0.0029
51079W        W94017   9.696  33.903  20.105 -0.0011  0.0593 -0.1844
51080W        W94018   9.287  34.193  19.825  0.0318 -0.2503 -0.3284
51081W        W94019  11.021  33.319  23.461  0.3536 -0.0902  0.0058
51082W        W94020   8.226  31.002  24.032 -0.2907  0.3014  0.0919
51083W        W94021   8.945   0.003  19.665 -0.0056 -0.1604  0.2276
51084W        W94022   8.099  34.191  19.641 -0.3768  0.1690  0.1641
51085W        W94023   9.281  33.343  24.821 -0.0704 -0.4113  0.1935
51086W        W94024   9.468  32.658  22.896 -0.0490 -0.0876 -0.4267
51087W        W94025   7.687  31.718  20.120  0.1578 -0.0704 -0.2658
51088W        W94026   8.372  33.695  22.475 -0.0596  0.0490  0.0031
51089W        W94027   8.590  32.064  22.041  0.0271 -0.2695 -0.1333
51090W        W94028   7.035   0.471  24.490 -0.0651  0.0391  0.0536
51091W        W94029   8.957  34.041  22.903 -0.1483 -0.2186  0.0020
51092W        W94030   7.031  32.650  21.536  0.0933  0.0670  0.0203
51093W        W94031   9.525  32.299  22.101 -0.0041 -0.3462  0.2010
51094W        W94032   9.906  33.559  19.366  0.0942 -0.1662 -0.1117
51095W        W94033   8.828  33.253  19.053 -0.2627  0.0027  0.0200
51096W        W94034   9.146  33.968  20.271  0.2246  0.1364 -0.0393
51097W        W94035  10.353  33.350  19.508  0.0668  0.1944 -0.1452
51098W        W94036  10.224  32.524  22.135 -0.3134  0.1784 -0.1176
51099W        W94037   7.755  34.459  18.775  0.0636 -0.2939 -0.1716
51100W        W94038   8.949  33.690  19.941  0.1580 -0.0316  0.1866
51101W        W94039   9.066  32.110  22.079  0.1529  0.1241  0.0378
51102W        W94040   8.708  33.669  23.094 -0.1045  0.1948  0.1097
51103W        W94041   9.222  33.240  23.775  0.1203  0.1677  0.1316
51104W        W94042  10.067  33.473  23.150 -0.1999 -0.2513  0.0049
51105W        W94043  10.349  34.457  19.135 -0.0846 -0.1258 -0.1035
51106W        W94044   9.991   1.439  23.427  0.0418  0.0659 -0.0498
51107W        W94045   8.147  33.743  19.485  0.2339  0.0644  0.1952
51108W        W94046   9.342  32.190  23.015  0.0819  0.1363 -0.0603
51109W        W94047  10.458  32.647  23.781 -0.0006  0.1647 -0.0081
51110W        W94048   9.354  32.257  21.612 -0.1696  0.2159  0.2519
51111W        W94049   9.005  34.039  22.298  0.1227 -0.1004  0.4477
51112W        W94050  10.582  33.218  22.375 -0.1775  0.1120 -0.2603
51113W        W94051   7.910  34.600  19.338 -0.1239 -0.0593 -0.2553
51114W        W94052   8.204  34.206  20.817 -0.2194  0.1194  0.1519
51115W        W94053   9.532  33.076  21.603 -0.0046 -0.1360 -0.3344
51116W        W94054   8.662  33.539  21.494  0.2117  0.0463 -0.1484
51117W        W94055   8.960  32.714  23.213 -0.1103 -0.1988 -0.0673
51118W        W94056   8.171  33.501  22.933  0.0806 -0.3497  0.0579
51119W        W94057  10.210  31.946  20.555  0.0070  0.1316 -0.1169
51120W        W94058   9.090  34.140  25.128 -0.1227  0.1531  0.4019
51121W        W94059   7.579   0.024  20.138  0.2888  0.0855 -0.3950
51122W        W94060   9.853  33.324  21.268  0.0391  0.1575 -0.0499
51123W        W94061   8.635  34.125  21.285  0.0409 -0.2036  0.1625
51124W        W94062   7.214   0.782  19.087  0.1142  0.2716 -0.2525
51125W        W94063   8.077  31.366  22.315 -0.0195 -0.1917  0.0485
51126W        W94064   8.831  32.581  20.861 -0.0251 -0.0670 -0.2442
51127W        W94065   8.273  33.780  21.210  0.0805  0.4660 -0.0218
51128W        W94066   9.736   0.284  20.336 -0.0854  0.0235 -0.0118
51129W        W94067   7.772  33.879  23.338 -0.0215  0.0132 -0.1549
51130W        W94068   8.592  33.115  21.733 -0.0275 -0.1073  0.2229
51131W        W94069   9.856  33.822  22.887 -0.2229 -0.2309 -0.0710
51132W        W94070   8.217  33.031  22.636 -0.0535 -0.2451  0.1064
51133W        W94071  10.639  32.854  20.961  0.2861 -0.0969 -0.1407
51134W        W94072   8.895  32.648  21.541 -0.0214 -0.0152 -0.3434
51135W        W94073  12.110  32.206  24.511 -0.0158  0.1241 -0.2189
51136W        W94074   9.281  33.305  19.195 -0.0792  0.1296  0.1994
51137W        W94075   9.337  33.110  23.065  0.0209  0.0496  0.2815
51138W        W94076   8.077  32.202  22.219 -0.0677 -0.1160  0.0444
51139W        W94077   7.665  33.467  23.985  0.0040 -0.2163 -0.3995
51140W        W94078   8.391   0.565  23.641 -0.1599  0.0784 -0.0126
51141W        W94079   9.304  34.218  20.946  0.2478  0.0154 -0.1174
51142W        W94080   8.678  34.238  20.770 -0.2498  0.0324  0.0174
51143W        W94081   9.625  34.091  21.469  0.3182 -0.0025 -0.1262
51144W        W94082  10.285  34.229  20.642  0.0176 -0.1400 -0.1322
51145W        W94083   7.077  34.687  23.057  0.0897  0.2403  0.0308
51146W        W94084  10.123  33.721  20.348 -0.3680  0.0782  0.1510
51147W        W94085   8.537  31.873  22.976  0.3373  0.3123 -0.0249
51148W        W94086  11.449  33.182  20.231  0.1690  0.3147  0.3930
51149W        W94087   8.873  31.940  24.125  0.0612  0.2131 -0.0013
51150W        W94088   9.012  33.268  22.124 -0.1198 -0.2576  0.1283
51151W        W94089   9.141  34.348  23.281 -0.1145 -0.4223  0.1556
51152W        W94090   8.625  34.114  25.276 -0.2715  0.1871 -0.0177
51153W        W94091  10.121  34.125  17.965 -0.1546 -0.1512  0.0382
51154W        W94092   9.169  33.250  22.582  0.1187  0.0113  0.2751
51155W        W94093  10.865  33.739  19.646 -0.1619  0.3723  0.2195
51156W        W94094   7.806  33.341  19.415 -0.0735 -0.2873  0.0548
51157W        W94095   8.434  32.789  23.067  0.0874  0.2784 -0.2221
51158W        W94096  10.528  33.960  24.214 -0.0742 -0.0596 -0.1624
51159W        W94097   7.974  33.795  20.635 -0.2273 -0.0356  0.0549
51160W        W94098  11.079  33.235  22.531 -0.0257  0.0237  0.0180
51161W        W94099   8.437  32.155  20.833  0.1570  0.0075 -0.1904
51162W        W94100   7.109  33.956  20.867  0.0950 -0.3027 -0.0468
51163W        W94101   6.693   0.884  19.064  0.0517  0.0576 -0.3715
51164W        W94102   8.864   1.838  17.217 -0.1202 -0.0989 -0.3188
51165W        W94103   7.756  32.881  17.992  0.2112 -0.0350 -0.0043
51166W        W94104  11.541  31.917  22.926  0.1860 -0.2523  0.0544
51167W        W94105  10.518  32.020  23.042 -0.3076  0.0838  0.2341
51168W        W94106   9.954  31.752  23.747  0.1091  0.1548  0.1028
51169W        W94107   7.841  33.085  23.717 -0.3473  0.0816  0.0236
51170W        W94108   9.676  32.911  20.456 -0.1993 -0.2221  0.0974
51171W        W94109  11.439  34.618  23.123  0.0257 -0.1797  0.3463
51172W        W94110   7.195   0.430  19.556  0.0012  0.0652 -0.3106
51173W        W94111   7.040  31.892  23.775 -0.1777 -0.1527 -0.0227
51174W        W94112   7.262  34.301  20.461 -0.0953  0.2127 -0.0761
51175W        W94113   8.607  33.234  20.048  0.3634 -0.3717 -0.1146
51176W        W94114  10.848  33.002  18.298  0.0932  0.1660 -0.1209
51177W        W94115  10.114  33.738  21.414 -0.3408 -0.1263  0.3925
51178W        W94116  11.940  33.088  19.443 -0.0492  0.1250 -0.2156
51179W        W94117   9.078  33.898  21.267 -0.0478  0.2907 -0.0159
51180W        W94118   8.634  33.039  20.565  0.0458  0.0841  0.0186
51181W        W94119   8.644  33.186  22.842  0.0514 -0.0184  0.1235
51182W        W94120  12.018  32.499  24.934  0.0842  0.2408  0.0191
51183W        W94121   7.452   0.088  20.583  0.0457  0.0687  0.0031
51184W        W94122   9.236   0.544  20.843 -0.2229  0.0101 -0.0725
51185W        W94123   9.711  31.448  22.305  0.1854 -0.2418 -0.0454
51186W        W94124   8.774  32.133  21.550  0.1393  0.1313 -0.1313
51187W        W94125   7.487  34.205  21.205 -0.3650  0.2038  0.4269
51188W        W94126  10.596  33.323  18.622 -0.2108  0.2138 -0.1360
51189W        W94127   9.224  33.594  22.951 -0.0917 -0.1177 -0.2222
51190W        W94128  11.611  32.836  24.121  0.2403 -0.1745 -0.1818
51191W        W94129   8.484  33.992  21.724  0.3382 -0.3566  0.1449
51192W        W94130  11.196  33.469  19.281 -0.1672 -0.2833  0.2204
51193W        W94131   8.029  31.930  22.857  0.4515 -0.3453  0.0832
51194W        W94132  10.181   1.008  19.897 -0.1357 -0.3599 -0.4310
51195W        W94133  10.022   0.179  23.073 -0.0576 -0.0865 -0.0895
51196W        W94134   8.764  34.531  19.130  0.0833 -0.1528  0.0407
51197W        W94135   8.141  33.141  21.363  0.3613  0.1459  0.1208
51198W        W94136  10.589  33.144  19.096  0.3375  0.2727  0.1200
51199W        W94137   8.024   0.171  20.280 -0.2410 -0.1924  0.3022
51200W        W94138   9.333  34.526  21.428 -0.1792  0.0911  0.2301
51201W        W94139   7.636  33.042  20.423 -0.1795  0.0540 -0.0605
51202W        W94140  11.061  32.009  22.080 -0.1807 -0.2311  0.1804
51203W        W94141  10.103  33.660  20.857 -0.2478 -0.2268 -0.1333
51204W        W94142   8.141  31.693  23.294 -0.2007 -0.1448 -0.2062
51205W        W94143   8.413  33.375  20.896 -0.0380  0.2143  0.3542
51206W        W94144   7.850  34.321  20.358 -0.1892 -0.3226  0.5076
51207W        W94145   9.089  33.101  20.152 -0.1337 -0.2682  0.0782
51208W        W94146  10.671  32.599  23.154 -0.2151  0.0629  0.3764
51209W        W94147  10.003  31.555  23.267  0.1046  0.1397  0.3887
51210W        W94148  10.090  33.687  19.848  0.1128  0.0563  0.2055
51211W        W94149   9.744  32.360  22.603 -0.2435 -0.1680 -0.0501
51212W        W94150  10.067  30.729  20.334 -0.0494 -0.1413  0.1096
51213W        W94151   8.423  32.423  21.343 -0.5912 -0.1115 -0.1858
51214W        W94152   9.200   0.092  23.701 -0.2425 -0.2061 -0.0609
51215W        W94153   6.865   1.124  18.219 -0.4300 -0.0248  0.2356
51216W        W94154   8.761  33.419  23.696 -0.1353  0.3677 -0.0838
51217W        W94155   7.567  32.702  24.609 -0.2266  0.0578  0.1305
51218W        W94156   7.788  34.687  22.601 -0.0378  0.0101  0.0864
51219W        W94157   9.702  33.496  20.616  0.1020  0.1011  0.2729
51220W        W94158   7.432  32.569  21.138  0.1044 -0.2555 -0.1184
51221W        W94159   7.089  32.182  20.469 -0.0527 -0.0226 -0.1953
51222W        W94160   7.903  32.494  21.857  0.0250 -0.1969  0.1559
51223W        W94161  10.613  33.052  23.420  0.0950 -0.1033  0.0740
51224W        W94162   8.129  33.495  23.606  0.1736  0.0133  0.2184
51225W        W94163   7.983  34.661  19.825  0.1079 -0.0458 -0.2679
51226W        W94164   6.928  33.431  22.689  0.1921 -0.3113 -0.0059
51227W        W94165   8.027  31.245  23.522 -0.1539 -0.0515  0.3418
51228W        W94166  11.649  31.968  22.425  0.2398 -0.2356 -0.0105
51229W        W94167  11.027   0.275  19.199  0.3530  0.1166 -0.1499
51230W        W94168   8.515  32.354  24.356 -0.0813 -0.0745 -0.0243
51231W        W94169   8.203  33.297  22.186 -0.2575  0.2150 -0.2348
51232W        W94170   8.563  32.189  20.313 -0.0130 -0.0032  0.1053
51233W        W94171   7.427  33.598  22.452 -0.2656 -0.0871 -0.1561
51234W        W94172  10.724  33.617  19.139  0.0658 -0.1068 -0.0500
51235W        W94173   8.587  33.628  22.061 -0.2059  0.2422 -0.2274
51236W        W94174   7.400  32.633  19.961  0.0413  0.2797  0.4101
51237W        W94175   9.236  33.747  20.688 -0.0979  0.2436 -0.1481
51238W        W94176   8.383  31.473  22.790 -0.1701 -0.2493 -0.1110
51239W        W94177   7.160   0.630  20.556 -0.0923 -0.1444  0.2045
51240W        W94178   9.291   0.650  21.897 -0.1220 -0.0888 -0.1059
51241W        W94179   9.836  32.696  21.867  0.0755  0.3196  0.0217
51242W        W94180   8.925  33.501  21.040  0.1330  0.0541 -0.0108
51243W        W94181   9.838  32.228  21.636 -0.0836 -0.1294  0.1832
51244W        W94182   8.588  34.282  23.190  0.0047 -0.4022  0.0295
51245W        W94183   9.218  34.414  21.851  0.1823  0.0868 -0.0196
51246W        W94184   8.624  34.193  24.199 -0.0025  0.1951  0.2189
51247W        W94185   7.789  32.134  25.384 -0.1102  0.0646 -0.1790
51248W        W94186   7.927  32.030  28.630 -0.1318  0.1054  0.1709
51249W        W94187   9.115   0.226  23.196  0.0217  0.4812  0.0827
51250W        W94188   9.409  33.787  25.805  0.0213 -0.1228 -0.0943
51251W        W94189   8.775  32.747  25.264 -0.3867  0.0050  0.2595
51252W        W94190   8.016  33.654  26.498  0.0721 -0.1052  0.1421
51253W        W94191   9.635  33.386  27.123  0.1017  0.0958  0.1195
51254W        W94192   7.080  32.894  24.774 -0.0621 -0.0554  0.1154
51255W        W94193   8.563  33.497  27.525 -0.1651 -0.0750 -0.0999
51256W        W94194   9.781  33.450  25.883 -0.0050 -0.2765 -0.0330
51257W        W94195   8.311  31.524  27.308  0.0381 -0.0574 -0.0330
51258W        W94196  10.983  33.520  26.791  0.0273  0.1742 -0.0339
51259W        W94197   7.826  33.115  24.402  0.0040  0.0504 -0.3439
51260W        W94198   7.483  33.265  24.826  0.0890 -0.4150 -0.0999
51261W        W94199   8.414  33.044  26.240  0.0203  0.0393 -0.1826
51262W        W94200  10.962  32.286  26.358  0.0961 -0.0283 -0.0911
51263W        W94201   9.838  34.088  26.711 -0.2747  0.1715  0.2203
51264W        W94202   9.330   0.349  25.424  0.2785 -0.2578  0.0208
51265W        W94203   9.698  33.825  27.432  0.1240 -0.1663  0.0970
51266W        W94204   9.330  33.913  24.766  0.1585 -0.0229 -0.0589
51267W        W94205  10.603   0.116  28.679 -0.0160  0.1431 -0.4752
51268W        W94206  11.464  34.074  23.095  0.1325 -0.0016 -0.0761
51269W        W94207   8.863  33.662  22.618  0.3666 -0.2145 -0.1301
51270W        W94208  10.705  32.599  25.083 -0.0676 -0.0907 -0.0948
51271W        W94209   8.007  31.893  25.789 -0.0953  0.2220 -0.1157
51272W        W94210   8.471  33.153  25.602  0.0764 -0.0276 -0.1317
51273W        W94211   8.829  33.627  25.631  0.0848  0.0370  0.0834
51274W        W94212   8.163  34.501  25.980  0.1605 -0.0805  0.3630
51275W        W94213   6.635  33.411  25.857  0.1583  0.0450  0.0678
51276W        W94214   7.908  33.524  25.061  0.2356 -0.2458  0.2258
51277W        W94215   6.658   0.714  25.817  0.2507 -0.1573  0.3092
51278W        W94216   8.042  33.104  26.939 -0.0924  0.0405  0.0881
51279W        W94217   9.404  32.851  23.471  0.2741  0.3489  0.2130
51280W        W94218  10.832  32.661  24.635  0.0501 -0.0373  0.1060
51281W        W94219  10.025  32.600  26.006 -0.0667 -0.2495  0.0220
51282W        W94220  10.706  34.298  26.772  0.0897  0.0946 -0.2154
51283W        W94221  10.474   0.808  24.840 -0.1610  0.0773 -0.1072
51284W        W94222  10.585  33.502  28.661 -0.1363  0.0286 -0.0133
51285W        W94223   7.613  32.159  27.137  0.0304  0.1067  0.0251
51286W        W94224  10.203  32.660  24.273  0.2514  0.2600 -0.0044
51287W        W94225   8.626   0.268  25.315  0.2430  0.1811  0.0207
51288W        W94226   9.767  30.959  24.975 -0.0788 -0.2368  0.0602
51289W        W94227   8.941  33.843  23.960  0.2794 -0.0596  0.1113
51290W        W94228   7.570  33.723  26.297 -0.0838  0.0233  0.2125
51291W        W94229   8.767  34.522  25.036  0.0175  0.0392 -0.1899
51292W        W94230   8.560  34.412  27.768  0.0315  0.0218 -0.1734
51293W        W94231   8.874  33.313  26.235  0.0656  0.5787 -0.0379
51294W        W94232  11.111  34.416  27.026 -0.0391  0.1537  0.0499
51295W        W94233   8.326  32.717  25.033  0.1369 -0.1711 -0.0636
51296W        W94234  11.224   0.303  25.739 -0.0221  0.1030  0.2387
51297W        W94235   8.002  34.001  24.704 -0.1951  0.0537 -0.2118
51298W        W94236  10.761  33.087  26.923 -0.1309 -0.2410  0.0212
51299W        W94237   7.808  31.913  27.539  0.1263  0.2370  0.0045
51300W        W94238   7.635  34.315  24.831  0.3346  0.4042 -0.4255
51301W        W94239   8.212  31.911  26.420 -0.2126 -0.0418  0.0799
51302W        W94240  10.323  34.016  26.342  0.2202  0.1116  0.1537
51303W        W94241  10.666  33.539  25.586  0.0748  0.1294 -0.0037
51304W        W94242   8.010  33.089  23.185 -0.2707  0.1122 -0.0424
51305W        W94243   7.796  33.610  25.570  0.0809 -0.1511  0.0369
51306W        W94244  11.231  34.030  26.220  0.0151  0.0834  0.1105
51307W        W94245   7.178  32.670  26.457 -0.2456  0.0194 -0.0406
51308W        W94246   9.764  34.317  28.479  0.0572 -0.4103  0.0404
51309W        W94247   8.465  33.747  24.475  0.0650 -0.2035  0.3120
51310W        W94248  10.736  32.153  25.818 -0.1137 -0.2990 -0.0090
51311W        W94249  11.186  33.527  24.505 -0.2481 -0.0034  0.0925
51312W        W94250   9.654  33.620  24.485  0.1758  0.0472 -0.1987
51313W        W94251  10.287  33.921  23.132 -0.0129 -0.1655  0.0507
51314W        W94252  10.204  33.043  23.945 -0.3244 -0.4593  0.0194
51315W        W94253   8.639  33.709  26.598  0.3736  0.1218  0.2838
51316W        W94254   9.610  33.575  23.350 -0.0595 -0.1662 -0.0618
51317W        W94255  10.326  32.755  24.784  0.3229  0.1418 -0.1817
51318W        W94256  11.182  32.776  25.267  0.2072 -0.2358 -0.2076
51319W        W94257  10.907  33.100  26.458  0.1445  0.1072 -0.2106
51320W        W94258   9.254  33.564  27.537 -0.1156 -0.0764 -0.2897
51321W        W94259  10.533  33.985  28.648  0.1755 -0.1784  0.2473
51322W        W94260  10.313  32.853  25.611  0.2260  0.1191  0.3298
51323W        W94261  10.170  33.442  25.460 -0.2061 -0.0840  0.0815
51324W        W94262   8.754  33.237  24.155 -0.0407  0.1507 -0.3772
51325W        W94263   9.607  33.441  26.615  0.1496 -0.1473 -0.1355
51326W        W94264   9.094  33.749  28.020  0.2484  0.0860 -0.0925
51327W        W94265  10.612  33.418  23.996  0.4531 -0.0070  0.0179
51328W        W94266   8.671  32.351  26.872 -0.0502 -0.1763  0.0659
51329W        W94267  11.220  33.168  26.046 -0.0997  0.0087  0.4147
51330W        W94268   8.217  33.409  24.707  0.1758 -0.0962  0.0218
51331W        W94269   7.653  34.435  25.598  0.0741 -0.1984 -0.0754
51332W        W94270  10.838  32.665  25.707 -0.0511 -0.1188  0.0312
51333W        W94271   7.616  31.958  26.125  0.1792  0.0447  0.0078
51334W        W94272   8.552  34.072  25.783 -0.2499 -0.1076 -0.1122
51335W        W94273  10.723  33.055  25.983 -0.0060  0.1023 -0.0630
51336W        W94274  10.785  32.306  23.570  0.3469  0.3164  0.2426
51337W        W94275   7.865   0.815  26.785 -0.2459 -0.0675 -0.1131
51338W        W94276   7.406  33.796  24.713 -0.4419 -0.1753  0.1591
51339W        W94277  10.597   0.009  25.921  0.1052 -0.0755  0.0266
51340W        W94278   9.490  32.814  26.090  0.1396 -0.1155 -0.0637
51341W        W94279   6.955  32.499  25.170 -0.2625  0.0699  0.1098
51342W        W94280   9.144  33.385  27.054 -0.2617 -0.1080 -0.2061
51343W        W94281   9.910  33.881  25.481  0.0269 -0.0471 -0.1395
51344W        W94282   7.766  32.717  24.116 -0.1804  0.0928  0.0520
51345W        W94283   9.210  32.643  25.535  0.1041 -0.2180 -0.2302
51346W        W94284   8.657  33.609  28.359 -0.0880 -0.1284  0.1302
51347W        W94285   8.566  33.927  27.951  0.1842 -0.1835 -0.1047
51348W        W94286  11.028  34.554  25.687  0.0085 -0.2054  0.2682
51349W        W94287   7.455  32.668  27.154  0.1128  0.0673 -0.1575
51350W        W94288  11.265  31.687  23.307 -0.3220  0.1230 -0.1259
51351W        W94289  10.292  33.642  25.892  0.2609 -0.0648 -0.1014
51352W        W94290  12.305  32.294  27.956 -0.0899 -0.1617  0.0833
51353W        W94291  11.223  32.961  24.805  0.0234  0.1075 -0.2456
51354W        W94292  10.657  34.654  27.701 -0.0167  0.1201 -0.2494
51355W        W94293   8.467  32.455  26.292  0.3489 -0.1178  0.2689
51356W        W94294   8.002  33.159  25.495 -0.3058  0.3921 -0.0899
51357W        W94295   8.289  34.253  27.327  0.0438  0.1483 -0.1386
51358W        W94296   9.727  32.999  25.642  0.3088  0.1578  0.1793
51359W        W94297   8.765  31.698  25.119  0.3732  0.0869 -0.1246
51360W        W94298   9.449  34.322  26.541  0.1104 -0.1840 -0.0716
51361W        W94299  10.341  34.195  25.881  0.0217 -0.0773  0.0380
51362W        W94300   7.538   0.852  25.870  0.3272  0.0075 -0.0818
51363W        W94301  10.657  33.746  25.093 -0.0533 -0.0146 -0.0821
51364W        W94302   7.973  32.496  27.028  0.1668  0.0421  0.0217
51365W        W94303   9.404  33.734  24.079  0.0829 -0.1929  0.0976
51366W        W94304  10.878  33.534  26.083  0.0368 -0.1030 -0.0326
51367W        W94305   9.256  34.004  27.357  0.1920  0.1031  0.2123
51368W        W94306   9.231  34.452  28.364  0.0124  0.1566 -0.1042
51369W        W94307   7.923  32.385  25.796  0.3922  0.3318  0.0504
51370W        W94308   9.923  32.918  23.351 -0.1543 -0.2226  0.0159
51371W        W94309  11.555  33.431  25.774 -0.0715 -0.2004  0.2848
51372W        W94310   9.712  34.369  25.805 -0.0304 -0.0011 -0.2789
51373W        W94311   9.841  33.059  26.396  0.1899  0.3914  0.1834
51374W        W94312   7.008  32.952  25.489  0.2696 -0.1086  0.0919
51375W        W94313   9.466  33.959  29.350 -0.0978 -0.2288  0.1239
51376W        W94314   7.315  33.790  24.175  0.4383  0.2917  0.2229
51377W        W94315  10.162  34.115  27.320  0.2322  0.1033 -0.0776
51378W        W94316  10.150  33.307  24.401 -0.1383 -0.1408  0.3872
51379W        W94317   8.847  32.844  25.911  0.1576 -0.2193  0.1642
51380W        W94318   7.959  32.237  24.125 -0.0955 -0.1570 -0.3268
51381W        W94319   8.737  34.441  26.085  0.1032 -0.0775 -0.4539
51382W        W94320   9.343  32.758  24.002 -0.4415  0.0361  0.0290
51383W        W94321  10.565  33.817  27.492  0.1788 -0.1673 -0.3121
51384W        W94322   9.251  33.106  26.501 -0.3580 -0.2640 -0.1278
51385W        W94323   9.944  33.988  26.015  0.0385  0.3002  0.0001
51386W        W94324  10.574  34.429  25.504  0.2003 -0.0991 -0.1202
51387W        W94325   9.999  33.555  26.321  0.2801 -0.1198  0.0405
51388W        W94326  11.289  33.971  26.707 -0.0136 -0.1694 -0.1527
51389W        W94327   7.143  33.153  26.584 -0.1926  0.0547  0.2129
51390W        W94328   6.933  34.041  27.485  0.0669 -0.1751  0.0468
51391W        W94329   8.082  32.589  24.470 -0.2588  0.1601 -0.1236
51392W        W94330   8.483  33.832  23.473 -0.5795  0.1191  0.1661
51393W        W94331  11.714  31.325  23.890 -0.0608 -0.0150 -0.0998
51394W        W94332  12.930   0.236  24.795 -0.0172  0.1232 -0.1000
51395W        W94333  11.789  32.918  23.369 -0.1231 -0.0425 -0.0614
51396W        W94334   7.853  33.991  25.252 -0.0151  0.0247  0.1122
51397W        W94335   8.446  32.952  24.575 -0.4019  0.0503  0.1156
51398W        W94336   7.903  33.755  27.098  0.4319 -0.4304 -0.0812
51399W        W94337  11.475  32.878  27.520  0.4662  0.0029  0.2190
51400W        W94338   7.898  32.953  24.909  0.1792  0.3467 -0.0818
51401W        W94339   8.920  33.825  26.074 -0.3235  0.0859  0.0082
51402W        W94340  11.734  32.322  27.153  0.0642  0.0742 -0.1404
51403W        W94341  10.410  32.199  26.234 -0.1868  0.0946  0.2366
51404W        W94342   7.391  33.048  23.922 -0.1301 -0.1865  0.4046
51405W        W94343  10.064  32.393  25.024  0.0423 -0.0512  0.1400
51406W        W94344   9.393  34.690  27.731 -0.0417  0.1565 -0.1779
51407W        W94345  12.559  32.563  27.020 -0.2105 -0.1666  0.0669
51408W        W94346   7.519   0.360  25.950  0.1347 -0.1486  0.0382
51409W        W94347   9.448  34.641  23.035 -0.2242 -0.0246  0.1926
51410W        W94348   8.565  33.056  27.228  0.1527  0.0006 -0.3474
51411W        W94349   9.092  34.499  24.174 -0.2547  0.2651  0.1609
51412W        W94350  10.189  34.642  27.304 -0.0957 -0.3674 -0.0287
51413W        W94351  11.423  33.101  23.629  0.2284  0.1045 -0.1610
51414W        W94352   7.520  32.474  26.071  0.5011  0.0604 -0.3131
51415W        W94353  11.080  32.430  23.963  0.1545 -0.2403  0.3256
51416W        W94354   8.391  33.804  25.013 -0.0783  0.0112  0.0143
51417W        W94355   9.011  34.106  25.644  0.2733 -0.2447 -0.3436
51418W        W94356   7.238  31.892  24.463 -0.0974 -0.1344  0.1641
51419W        W94357  10.933  34.053  25.458 -0.0346  0.3077 -0.4613
51420W        W94358   9.868   0.172  24.989  0.0251 -0.0145  0.0436
51421W        W94359   7.519  33.052  26.224  0.4076 -0.0373  0.0432
51422W        W94360   8.725  31.952  24.652  0.2045  0.1888 -0.0119
51423W        W94361   8.738  32.359  25.746  0.0436 -0.1826 -0.0320
51424W        W94362  11.119  33.590  25.638 -0.2063  0.0898 -0.1660
51425W        W94363  10.814  33.924  26.446 -0.0279 -0.3267 -0.0821
51426W        W94364  11.026  33.716  27.807  0.2730  0.3304 -0.0183
51427W        W94365  11.066  32.725  26.164 -0.3501  0.0309  0.1821
51428W        W94366   8.538  31.714  25.616 -0.0730 -0.0662  0.2443
51429W        W94367  10.815  32.935  23.849 -0.0279  0.2076 -0.1283
51430W        W94368  11.258  32.256  23.371 -0.2468 -0.1182 -0.0261
51431W        W94369   7.213  34.616  25.957 -0.0287  0.0967 -0.1804
51432W        W94370   6.349  33.765  24.552  0.0907 -0.0362 -0.1815
51433W        W94371   9.075  32.830  28.421 -0.0763 -0.0220  0.1826
51434W        W94372   7.938  32.336  26.298  0.0582  0.0494 -0.2007
51435W        W94373   8.512  33.278  26.782  0.3595 -0.1278  0.1056
51436W        W94374   8.216  33.293  24.126  0.0010 -0.3999  0.3293
51437W        W94375   7.272  31.625  26.596  0.1073  0.1789  0.0240
51438W        W94376   8.735  30.995  24.035  0.2739  0.2302 -0.1876
51439W        W94377   9.147  32.465  26.111 -0.1764 -0.0444  0.2908
51440W        W94378   9.138  34.133  28.932  0.3237  0.3043 -0.0647
51441W        W94379   8.757  34.035  27.506 -0.3360  0.1563 -0.1659
51442W        W94380   7.979  32.346  25.010  0.0267 -0.2624  0.2164
51443W        W94381   9.565  33.862  26.312 -0.0718 -0.2674 -0.2297
51444W        W94382   5.916  32.383  26.687 -0.0009 -0.1926 -0.0226
51445W        W94383  11.865  31.385  26.058  0.1306  0.1524  0.1432
51446W        W94384   9.716  33.418  25.343  0.2207  0.0759  0.3969
51447W        W94385   7.559  32.923  26.724 -0.0663  0.4028  0.2322
51448W        W94386   8.185  31.416  26.554  0.0444  0.0117  0.3171
51449W        W94387  11.486  32.601  24.552  0.2445  0.0656  0.4096
51450W        W94388   8.711  34.541  25.600 -0.0171  0.1984  0.0139
51451W        W94389   8.668  34.133  24.725  0.1389  0.1323 -0.1111
51452W        W94390   8.947  33.801  27.067  0.3152 -0.1067  0.1848
51453W        W94391   7.844  34.399  23.841  0.0306 -0.0617  0.0118
51454W        W94392   9.730  33.850  25.061 -0.1784  0.3131  0.1338
51455W        W94393   8.325  31.896  27.644  0.1106 -0.3812 -0.0550
51456W        W94394   7.122  32.774  24.258  0.0858 -0.0931  0.1530
51457W        W94395   8.379  33.180  25.113  0.2672 -0.1110  0.0648
51458W        W94396  11.871  33.281  26.665 -0.2986  0.0122  0.1049
51459W        W94397   8.352  32.672  25.552  0.1683  0.0424  0.1738
51460W        W94398   9.743  33.013  24.191 -0.3319  0.2076  0.0774
51461W        W94399   8.258  33.463  28.057 -0.1397 -0.0514 -0.0659
51462W        W94400  10.086  33.831  27.751 -0.3190  0.2630 -0.3550
51463W        W94401  10.349  33.983  29.079 -0.6853  0.2409  0.1087
51464W        W94402   8.734  33.894  29.785 -0.0479 -0.1102  0.0107
51465W        W94403   8.128  33.305  31.599  0.0252  0.3860  0.0756
51466W        W94404   9.001  34.505  27.484  0.0864 -0.1441 -0.0228
51467W        W94405   9.146  33.091  29.371 -0.0649 -0.0012  0.2167
51468W        W94406   8.676  33.535  28.962  0.0561  0.0871 -0.0251
51469W        W94407   6.983  32.877  29.811 -0.1075 -0.0719  0.0560
51470W        W94408  10.724  34.189  30.033  0.0998  0.0482 -0.4816
51471W        W94409   7.377  34.189  27.183 -0.0941  0.0494  0.0413
51472W        W94410   8.499  32.406  28.797 -0.0302 -0.3072 -0.1324
51473W        W94411   8.649   0.187  27.495 -0.1504 -0.1429  0.5312
51474W        W94412   9.307  33.206  29.840 -0.1166  0.4115 -0.2832
51475W        W94413  10.621  33.221  30.943  0.0850 -0.4182  0.1410
51476W        W94414   7.025  33.462  27.502  0.4637  0.2808 -0.0754
51477W        W94415   9.107  33.693  28.705 -0.0891  0.1821  0.2964
51478W        W94416   8.623  33.382  29.477 -0.0371  0.2232  0.1010
51479W        W94417  10.531  32.654  31.029 -0.1501  0.0320 -0.0986
51480W        W94418  10.351   1.048  28.793  0.2063  0.0133  0.0554
51481W        W94419  11.307   0.946  30.535 -0.0830  0.2325  0.1222
51482W        W94420   9.575  34.436  29.130  0.0652 -0.0543  0.2373
51483W        W94421   8.651   0.037  30.486  0.3969  0.1011 -0.1856
51484W        W94422  11.861  32.599  30.535  0.0597 -0.3876  0.2831
51485W        W94423  10.833  33.387  27.431  0.2567  0.0042 -0.3151
51486W        W94424   8.430  31.932  28.647 -0.4042 -0.0598  0.3106
51487W        W94425  10.041  33.550  29.171 -0.1407  0.0875  0.4193
51488W        W94426   8.897  32.628  28.967  0.0406  0.0155 -0.2094
51489W        W94427   9.921  33.252  30.161 -0.1317  0.1240 -0.0382
51490W        W94428   8.647   0.126  29.386  0.1308 -0.0227 -0.0001
51491W        W94429  10.243  34.468  29.355  0.0691  0.1148  0.3626
51492W        W94430   8.148  33.449  29.180  0.1274  0.0369  0.1475
51493W        W94431   7.706  33.343  28.718  0.4078 -0.0013  0.0362
51494W        W94432   7.929  33.685  31.216 -0.0460 -0.0539  0.1422
51495W        W94433   9.518  34.404   0.021  0.0285  0.0329 -0.1863
51496W        W94434   6.440  33.077  27.144 -0.3384 -0.0790 -0.2069
51497W        W94435  10.429  33.720  30.011  0.3418 -0.1289 -0.1231
51498W        W94436  10.076  32.111  29.000  0.0709  0.2805 -0.0446
51499W        W94437   9.910  34.146  31.824  0.1391  0.2377 -0.1945
51500W        W94438  10.343   0.578  28.443 -0.2203 -0.1167 -0.0361
51501W        W94439   9.809   0.294   0.237 -0.1925 -0.0551 -0.1268
51502W        W94440   8.197  33.669   0.416 -0.3074  0.1430  0.0148
51503W        W94441  10.652  32.957  29.380  0.2716 -0.0655 -0.2835
51504W        W94442   8.741  32.617  31.045 -0.0170 -0.0672 -0.3029
51505W        W94443  10.900  32.448  28.855  0.3360 -0.0438  0.1224
51506W        W94444  10.448  34.215  27.850 -0.0613  0.1434 -0.0904
51507W        W94445   8.061  33.873  30.442  0.5521  0.2291  0.1073
51508W        W94446   8.090  32.554  28.516  0.1322  0.1224 -0.1354
51509W        W94447   9.288  32.948  31.484  0.0731  0.1059  0.1307
51510W        W94448   7.115  33.114  31.100  0.1390  0.0990  0.0053
51511W        W94449  10.242   1.167  30.704 -0.1231  0.2944 -0.1127
51512W        W94450   6.846  32.328  28.337 -0.0568 -0.0446 -0.1799
51513W        W94451  10.026   0.182  30.768 -0.0305  0.1877 -0.0909
51514W        W94452   9.840   0.111  29.276  0.0264  0.0924  0.0489
51515W        W94453  11.066  33.406  30.707  0.2173  0.1512 -0.0597
51516W        W94454   9.572   0.016  30.792  0.1889 -0.0164 -0.1060
51517W        W94455   9.190  33.296  28.251 -0.2136  0.0740 -0.2756
51518W        W94456   9.472  32.797  29.022 -0.3103 -0.1071  0.2001
51519W        W94457  10.726  34.225  31.792  0.1101  0.2175  0.0627
51520W        W94458  10.043   0.182  30.174 -0.3160 -0.3954  0.0308
51521W        W94459   6.373  32.900  27.725 -0.2884 -0.2418 -0.0730
51522W        W94460   7.526  33.775  29.048 -0.2902  0.0860 -0.0670
51523W        W94461   8.727  32.090  29.838  0.0557  0.0262 -0.0321
51524W        W94462   7.426  34.459  30.779 -0.0466  0.3345 -0.0982
51525W        W94463  10.150  32.879  31.257  0.0132  0.1696 -0.0135
51526W        W94464   6.679  32.831  28.408  0.1526  0.2425 -0.1449
51527W        W94465  10.358  33.142  28.275 -0.1581 -0.1901 -0.1215
51528W        W94466  10.824  33.391  28.132 -0.0231 -0.1856 -0.0120
51529W        W94467   9.606  33.971  27.965 -0.1648 -0.2244  0.0069
51530W        W94468  11.162  34.124  27.477  0.2752 -0.0792 -0.3195
51531W        W94469   8.810  34.471  28.678 -0.1681  0.0376  0.0596
51532W        W94470   8.680  33.069  30.692 -0.1119  0.2611 -0.0142
51533W        W94471   9.543  33.487  27.902 -0.1162 -0.1641  0.2192
51534W        W94472   9.837  33.505  29.735  0.0706  0.3058 -0.2367
51535W        W94473  10.214  33.134  29.434  0.0368  0.1044 -0.1459
51536W        W94474   8.853  32.965  30.264 -0.0402 -0.0853 -0.0096
51537W        W94475  10.308  34.498  30.955  0.0303 -0.2239  0.0809
51538W        W94476  11.212  33.585   0.172 -0.1264  0.4682 -0.3114
51539W        W94477  10.867   0.117  26.608 -0.2985  0.0694 -0.2672
51540W        W94478   9.600   0.348  29.825  0.0258  0.1987  0.3402
51541W        W94479   9.173  32.853  27.886  0.0073  0.3177  0.1499
51542W        W94480   8.642  32.605  30.556 -0.1742 -0.1023 -0.3753
51543W        W94481  10.778  34.492  31.147  0.1257 -0.1321  0.0354
51544W        W94482   9.662  34.672  28.140  0.0343  0.1921 -0.0096
51545W        W94483   9.467  33.498  30.250 -0.2789 -0.0472  0.2499
51546W        W94484  10.953  31.897  28.700 -0.4495 -0.2615  0.0385
51547W        W94485   8.736   0.373  28.400  0.0324 -0.1465  0.2404
51548W        W94486   9.528  33.729  28.926 -0.0159  0.0964  0.0183
51549W        W94487   9.698  33.257  28.969  0.0978  0.2641  0.3157
51550W        W94488   8.014  33.030  28.964 -0.0088 -0.0168  0.1537
51551W        W94489  10.003  32.814  28.906  0.1912  0.0143  0.1734
51552W        W94490  11.243   0.402  31.115 -0.1323  0.0641 -0.0534
51553W        W94491   9.634  32.377  28.829 -0.0068 -0.3217 -0.0551
51554W        W94492  10.254  33.508  31.341  0.1633  0.0448 -0.1759
51555W        W94493   7.158  32.474  27.875 -0.0416  0.2984  0.1838
51556W        W94494  10.552  34.086  29.567  0.1921 -0.0700  0.0598
51557W        W94495   8.245  33.717  29.945  0.0825  0.0167  0.0274
51558W        W94496   7.654  33.280  27.320  0.0002  0.0061 -0.1180
51559W        W94497   9.709  33.853  30.696  0.0619 -0.1107  0.1828
51560W        W94498   9.454  33.446  29.379 -0.2441  0.0886  0.4784
51561W        W94499   8.242  32.816  30.841  0.3265  0.0568  0.1817
51562W        W94500   9.242   0.717  29.601 -0.0663  0.2310  0.3391
51563W        W94501  10.252  32.693  29.562 -0.0839  0.0467  0.3532
51564W        W94502   9.380  32.718  29.652  0.0083  0.0662  0.2904
51565W        W94503   9.278   0.154  29.472  0.0252 -0.2624  0.0971
51566W        W94504   9.240  32.483  31.256  0.0027  0.1652 -0.1710
51567W        W94505   9.248  32.389  29.263  0.0537 -0.0842  0.0914
51568W        W94506   9.886  34.034  29.154  0.0195 -0.0317 -0.0455
51569W        W94507  10.536  33.433  29.163  0.2240 -0.2207  0.2476
51570W        W94508   9.764   0.163  27.463 -0.0163 -0.1018 -0.0516
51571W        W94509  11.827  33.835  31.469 -0.2010  0.2966 -0.3903
51572W        W94510   7.882  33.090  31.134  0.0078 -0.1106 -0.1338
51573W        W94511   7.574  34.448   0.134 -0.0847  0.0750  0.1643
51574W        W94512   8.140  34.037  31.565  0.0458  0.0852  0.1486
51575W        W94513   7.790  33.584  28.268 -0.2183 -0.1709  0.0160
51576W        W94514   8.436  33.006  27.746 -0.1690  0.2675 -0.1050
51577W        W94515   9.068  34.255  30.133  0.3069  0.0427 -0.2352
51578W        W94516  10.971   0.235  28.990  0.2401  0.2455 -0.2222
51579W        W94517   8.814  33.964  30.986 -0.0080  0.3331  0.0611
51580W        W94518   9.454   0.337  29.020 -0.1756  0.3980 -0.0224
51581W        W94519   9.976  32.008  30.602 -0.1301  0.3347  0.0932
51582W        W94520   7.817  32.331  29.479 -0.0464  0.2582 -0.0441
51583W        W94521   9.277  33.276  30.668  0.0441 -0.0766 -0.0165
51584W        W94522  11.430  33.463  30.432  0.0198 -0.0238  0.1413
51585W        W94523   9.866  34.493  29.751  0.0565  0.0026  0.0077
51586W        W94524   9.903  33.662  31.698  0.0674  0.0294 -0.1070
51587W        W94525  11.407  34.462  28.018  0.0503  0.0782  0.3499
51588W        W94526  10.085  32.889  31.874  0.2565  0.0848  0.0379
51589W        W94527  10.735  33.345  30.153 -0.0635  0.2601 -0.0076
51590W        W94528   9.951  33.373  27.546 -0.0901  0.0125 -0.1461
51591W        W94529   7.302  33.053  30.205 -0.1642 -0.2243 -0.1387
51592W        W94530   8.516  34.595   0.053 -0.0723  0.3845 -0.1047
51593W        W94531   9.684   0.639  27.784  0.2917 -0.0869 -0.0638
51594W        W94532  10.592  33.301   1.291 -0.1690  0.1629 -0.5183
51595W        W94533  10.006  33.416  28.050  0.1581 -0.1380 -0.0578
51596W        W94534   7.470  33.742  29.544  0.0579 -0.1330 -0.1687
51597W        W94535   7.300  32.930  27.544 -0.1929 -0.0550 -0.4065
51598W        W94536   9.110   0.676  26.952 -0.3453  0.0939 -0.0843
51599W        W94537  10.035  33.814  28.676 -0.1208 -0.0235  0.0157
51600W        W94538   9.935  33.386  30.964 -0.1251  0.1697  0.0525
51601W        W94539   9.293  32.097  28.601 -0.0409 -0.2116  0.2002
51602W        W94540   9.645  32.915  30.984  0.0732  0.0478 -0.0610
51603W        W94541  10.142   0.606  29.202  0.2793 -0.1553  0.0020
51604W        W94542   9.407  34.304  29.729 -0.2123  0.0400  0.1711
51605W        W94543  11.145  33.431  29.872 -0.0450  0.1317 -0.0747
51606W        W94544   8.868  34.295  30.553 -0.1660 -0.3551  0.3958
51607W        W94545   8.978  33.628  31.389  0.0031 -0.0463  0.0469
51608W        W94546   8.665  33.104  28.605 -0.1485 -0.0932 -0.2871
51609W        W94547   9.153  33.204  28.789  0.1698  0.2752  0.1179
51610W        W94548   9.777  32.424  27.905 -0.1447  0.1767  0.2978
51611W        W94549  10.912   0.654  29.327  0.5467 -0.0092 -0.0409
51612W        W94550  10.908  33.820  28.422  0.2518  0.0608 -0.0948
51613W        W94551   8.641  33.056  29.823 -0.0739  0.1927 -0.1669
51614W        W94552   9.682  33.567  28.445  0.2276  0.0955  0.1663
51615W        W94553   9.647  32.856  30.432  0.2752  0.0201  0.0228
51616W        W94554  12.288  32.829  30.994  0.0010  0.0795 -0.0893
51617W        W94555   9.414  33.978  28.469  0.1875  0.0183 -0.1994
51618W        W94556  10.103  33.323  28.693 -0.1092  0.0329 -0.1636
51619W        W94557  11.274  31.461  29.308  0.1399  0.1076 -0.0096
51620W        W94558  10.791   0.331  31.167 -0.0899 -0.0804 -0.0811
51621W        W94559   6.694  32.827  26.598  0.0351 -0.1239 -0.0571
51622W        W94560   9.999   2.025  29.187 -0.0114 -0.0333  0.0379
51623W        W94561   9.836  33.191  31.513 -0.0057  0.1744 -0.0895
51624W        W94562  10.938  31.213  30.842  0.0809 -0.2835 -0.0810
51625W        W94563   8.246  33.404  28.625 -0.2799  0.2208  0.0985
51626W        W94564  10.116  32.802  27.860 -0.1172  0.1904  0.3255
51627W        W94565   9.110  33.782  30.425 -0.0955  0.2289  0.2070
51628W        W94566   8.697   0.499  27.898 -0.1004  0.0142 -0.2515
51629W        W94567  10.725  33.934  31.336  0.2628 -0.1153 -0.1361
51630W        W94568   8.626   0.979  29.000  0.2336 -0.2872 -0.2818
51631W        W94569   7.642  32.781  28.656 -0.3103 -0.0242 -0.0959
51632W        W94570  11.158  32.516  28.411  0.0600 -0.2272  0.0719
51633W        W94571   8.985  33.757  29.312 -0.1423  0.0882 -0.0434
51634W        W94572   8.702   0.982  31.413  0.0447  0.2413  0.1967
51635W        W94573   7.863  33.152  27.860  0.3090 -0.0086 -0.2557
51636W        W94574  10.439  33.995  30.432 -0.1179 -0.1596 -0.2920
51637W        W94575  10.852   0.754  28.128 -0.3347 -0.2532 -0.0121
51638W        W94576   8.437  33.432  30.308  0.0912  0.3142  0.4762
51639W        W94577   9.842  32.522  29.269 -0.1117  0.2651  0.0776
51640W        W94578   8.587  32.713  28.257 -0.0044  0.1824 -0.0929
51641W        W94579  10.771  34.237  30.730 -0.1968 -0.0565 -0.3374
51642W        W94580  11.155  31.547  30.170  0.2775 -0.0976  0.1448
51643W        W94581  11.375  32.575  30.410  0.0682 -0.1927  0.3020
51644W        W94582  10.052  34.366  28.865  0.0961  0.0689  0.1163
51645W        W94583  10.652  32.194  29.649  0.2322 -0.1573 -0.0956
51646W        W94584  10.640  32.671  28.365 -0.0322 -0.0737 -0.1819
51647W        W94585   8.602  31.738  29.282 -0.2913 -0.0698  0.1882
51648W        W94586   9.385  34.275  30.570 -0.1668  0.1325  0.1884
51649W        W94587   7.956  33.160  26.479  0.3448 -0.1876  0.1525
51650W        W94588  10.596  33.492   0.225  0.0653 -0.0566  0.1235
51651W        W94589  10.546   0.285  30.296  0.1393 -0.2605  0.1171
51652W        W94590   7.956  34.362  29.279  0.0661 -0.0291 -0.1238
51653W        W94591   8.855  33.321  27.847 -0.0792 -0.0635  0.4059
51654W        W94592   8.730  32.605  29.972  0.0460  0.1899  0.5484
51655W        W94593   5.790  31.896  28.756 -0.0453  0.0291  0.0244
51656W        W94594   8.964  34.260  29.387  0.0963 -0.0690 -0.3077
51657W        W94595  10.813  33.712  31.818  0.4845 -0.0893 -0.2389
51658W        W94596  10.580  33.993   0.218 -0.3063 -0.2764 -0.2613
51659W        W94597   6.026  32.559  27.971  0.0958 -0.0718 -0.2766
51660W        W94598   9.960  33.732  30.264  0.1867  0.2339  0.1291
51661W        W94599   8.512  33.024  31.911  0.2104  0.2021 -0.0855
51662W        W94600  11.400  32.177  29.613 -0.0903  0.2087  0.3227
51663W        W94601   8.383   0.917  27.943  0.3182 -0.2368  0.1102
51664W        W94602  10.337  33.892  31.712  0.1457 -0.3011 -0.0599
51665W        W94603   9.277  33.804  29.770  0.1833  0.1454 -0.1469
51666W        W94604  10.004  32.750  28.364  0.0130  0.0192  0.0929
51667W        W94605   8.627  33.956  30.267 -0.1823 -0.1557  0.0811
51668W        W94606   9.892   0.432  28.203 -0.1097 -0.2319  0.3553
51669W        W94607   9.719  33.787  31.197  0.0570 -0.0387 -0.0318
51670W        W94608   8.888   0.024  28.050 -0.1038 -0.0102 -0.0000
51671W        W94609  10.920   1.129  27.735 -0.1133 -0.0461 -0.3327
51672W        W94610   8.914  32.213  30.296  0.2297 -0.0562 -0.1782
51673W        W94611   8.646   0.266  28.846  0.1542  0.1932 -0.0612
51674W        W94612   9.566  34.001  30.143 -0.2256  0.3505  0.2008
51675W        W94613  10.415  32.474  29.133  0.1956  0.1499 -0.0101
51676W        W94614   7.894  32.128  28.018  0.0917  0.3011 -0.3599
51677W        W94615  10.289  33.682  29.574  0.2172 -0.0201 -0.0373
51678W        W94616  12.174  33.474  30.230  0.1918 -0.3230 -0.0539
51679W        W94617   9.596  34.204  31.455 -0.1437 -0.1315  0.1515
51680W        W94618   8.324  33.680  30.874 -0.0204 -0.0726 -0.0131
51681W        W94619  10.119  34.184  31.316 -0.1520 -0.0410 -0.1876
51682W        W94620  10.956  33.082   0.336 -0.1970  0.0968  0.0781
51683W        W94621  11.001  32.962  30.323 -0.0105 -0.0398  0.1205
51684W        W94622   8.995  32.260  30.860  0.3891 -0.5090 -0.1123
51685W        W94623  11.359  33.439  31.627  0.2501 -0.3656  0.3729
51686W        W94624   9.720   0.679  31.974 -0.0102  0.2331  0.0340
51687W        W94625   8.778  33.556  30.714  0.0860  0.1504 -0.1329
51688W        W94626   9.734  34.272  31.016 -0.4368  0.0910  0.5565
51689W        W94627  10.286  33.217   0.637  0.1968  0.0568 -0.3380
51690W        W94628  10.083  32.365  30.938  0.0317  0.0470 -0.0770
51691W        W94629  10.391  32.553  31.548 -0.0119  0.0332 -0.2793
51692W        W94630  10.780  32.434  31.834 -0.6436  0.2039 -0.2602
51693W        W94631   9.240  34.271  31.057 -0.3601  0.1643  0.1739
51694W        W94632   7.252   0.006  31.279 -0.2648  0.2214  0.1909
51695W        W94633   9.833  32.600   0.254 -0.0910  0.1556  0.0357
51696W        W94634  11.098  34.425  31.615 -0.4824 -0.0745 -0.2084
51697W        W94635   8.023  32.134  31.883 -0.4242  0.1811 -0.1198
51698W        W94636  10.778   0.182   0.556 -0.3759  0.3319 -0.1639
51699W        W94637  10.470  33.484  30.564  0.1862  0.1383 -0.0336
51700W        W94638  11.088  34.170   0.137 -0.3184  0.1454  0.1621
51701W        W94639   9.583  33.560   0.061 -0.2398 -0.3786  0.2250
51702W        W94640   7.999  33.215   0.151 -0.1440 -0.0559 -0.1141
51703W        W94641  10.468   0.538  30.863 -0.2958  0.3760 -0.0976
51704W        W94642   9.206  31.331  31.623  0.2797  0.2322  0.2214
51705W        W94643  11.019  33.093   0.920 -0.3035 -0.0932 -0.0404
51706W        W94644   8.999  32.259  31.882  0.1648  0.1513 -0.0488
51707W        W94645   9.268   0.512  31.234  0.4459 -0.0558  0.2581
51708W        W94646  10.533  34.541   0.198 -0.1661  0.3938  0.2358
51709W        W94647   7.651  34.652  31.561  0.3533  0.0613 -0.1729
51710W        W94648   9.263  32.703  30.116  0.0554 -0.1393 -0.1768
51711W        W94649  12.101  34.281   0.885  0.2140 -0.0112  0.1287
51712W        W94650  11.219   3.190  19.590 -0.1942 -0.0950 -0.0288
51713W        W94651  12.340   2.911  16.757 -0.0597  0.1756  0.2328
51714W        W94652  14.027   1.415  15.259 -0.2039  0.1372  0.0567
51715W        W94653  14.568  34.219  18.528  0.1757  0.0544  0.0968
51716W        W94654  10.416   1.040  17.041 -0.1132  0.1442 -0.2064
51717W        W94655  15.300   2.659  16.613 -0.0248 -0.0619  0.2209
51718W        W94656  12.144  34.615  17.031  0.2285  0.2612  0.4346
51719W        W94657  13.088   1.230  18.948  0.1554 -0.1192  0.1544
51720W        W94658  13.252   2.385  19.408 -0.1612 -0.0430 -0.0142
51721W        W94659  13.295   1.084  15.773  0.1149 -0.1616  0.0165
51722W        W94660  11.786   1.640  18.882  0.1229  0.0064  0.0271
51723W        W94661  12.303   2.214  19.567 -0.0495 -0.1720  0.0014
51724W        W94662  12.513   0.649  16.622 -0.1360 -0.0779 -0.3077
51725W        W94663   9.602  34.024  18.197  0.2444 -0.0200  0.0221
51726W        W94664  13.541   1.285  17.216 -0.0786 -0.0417  0.3306
51727W        W94665  12.737   1.882  16.007  0.1115 -0.1034 -0.0251
51728W        W94666  13.391   1.714  16.912  0.2121  0.3064  0.1858
51729W        W94667  11.900   1.998  16.856 -0.2068  0.0660  0.0893
51730W        W94668  13.955   3.188  16.741 -0.0023  0.0854 -0.2484
51731W        W94669  12.659   0.672  18.346 -0.2700 -0.1084 -0.2395
51732W        W94670  15.175  33.264  17.438  0.3537  0.2364  0.1434
51733W        W94671  12.685   2.369  16.875  0.0403  0.1817 -0.0037
51734W        W94672  10.160   0.796  17.865  0.2482 -0.1584  0.2652
51735W        W94673  10.731   2.320  17.158 -0.0730  0.3341  0.0683
51736W        W94674  11.348   3.044  17.430  0.0623  0.3124  0.2426
51737W        W94675  11.977   0.891  19.445 -0.0061 -0.1824  0.0571
51738W        W94676  14.590   1.558  17.089 -0.1514  0.2663  0.1025
51739W        W94677  13.171   3.129  17.184 -0.2671  0.0241 -0.2063
51740W        W94678  12.787   1.497  18.316 -0.3387 -0.1657 -0.2729
51741W        W94679  12.714  32.882  19.965  0.1634  0.0172  0.2090
51742W        W94680  11.649   3.656  17.091 -0.0165 -0.5485 -0.0758
51743W        W94681  11.869   2.700  16.637  0.0121 -0.1846 -0.2842
51744W        W94682  12.245   2.921  16.236  0.1085  0.0766  0.2993
51745W        W94683  13.493   2.671  17.860  0.1647 -0.0013 -0.3680
51746W        W94684  12.540   2.957  19.172 -0.2147 -0.2705  0.0645
51747W        W94685   9.738   2.776  20.586  0.0567 -0.3109 -0.1727
51748W        W94686  10.948   4.757  17.192  0.0782 -0.0730 -0.0560
51749W        W94687  12.024   2.034  18.689 -0.1436 -0.2062  0.1229
51750W        W94688  10.171   2.739  17.896  0.0389  0.1890  0.1249
51751W        W94689  13.540   0.284  18.208 -0.0409 -0.2527  0.1322
51752W        W94690  12.927   2.905  18.072 -0.1668 -0.0130  0.1526
51753W        W94691  13.126   2.572  16.403  0.1023  0.0506  0.0089
51754W        W94692  12.327   2.056  17.858 -0.0151 -0.2346 -0.1400
51755W        W94693  13.199   1.137  18.334 -0.2093 -0.0814  0.0537
51756W        W94694  10.302   2.543  18.380  0.0778  0.2492  0.0509
51757W        W94695  14.624   0.880  19.657  0.0142  0.2348  0.0036
51758W        W94696  11.665   2.684  15.881 -0.2203 -0.0885 -0.0662
51759W        W94697  14.015   1.181  15.734  0.0742 -0.3230  0.2138
51760W        W94698  11.854   1.293  16.739 -0.0520  0.2573 -0.3584
51761W        W94699  12.952   0.602  15.358 -0.6081  0.2335 -0.0264
51762W        W94700  10.880   0.557  18.660  0.0675 -0.3994  0.2702
51763W        W94701  11.740   3.541  19.236  0.1240  0.1821  0.2780
51764W        W94702  11.710   1.153  18.612 -0.2149 -0.3513 -0.1687
51765W        W94703  14.793   1.594  19.884  0.2297 -0.0673  0.0584
51766W        W94704  13.789   1.850  16.619 -0.1119 -0.0025 -0.1345
51767W        W94705  12.375  34.635  18.592 -0.1653  0.3512 -0.1038
51768W        W94706  11.266   3.676  18.980  0.1135 -0.2159 -0.0771
51769W        W94707  11.431   2.632  16.390 -0.0917 -0.4360 -0.1892
51770W        W94708  15.779   2.496  16.596  0.0611 -0.0371  0.2017
51771W        W94709  14.319   1.076  17.708 -0.3675  0.1518 -0.3082
51772W        W94710  13.042   3.016  15.771 -0.0248  0.0513 -0.3116
51773W        W94711   9.900   2.221  15.787  0.1214  0.1757 -0.1634
51774W        W94712  10.780   1.783  18.098 -0.0610  0.1735 -0.1541
51775W        W94713  12.346   1.429  18.227  0.0843  0.3936  0.0899
51776W        W94714  12.809   0.460  16.239  0.1202  0.2147  0.2711
51777W        W94715  14.221   3.121  20.655 -0.1824  0.0012  0.2843
51778W        W94716  11.442   2.853  18.633  0.0039 -0.2212 -0.2741
51779W        W94717  14.426   1.259  16.128  0.0337  0.0337  0.2750
51780W        W94718  12.244   0.922  18.395  0.1264  0.0863  0.2355
51781W        W94719  14.400   2.622  18.754  0.0249 -0.1052 -0.2400
51782W        W94720  14.270   2.982  16.433 -0.1214 -0.0549 -0.2880
51783W        W94721  13.350  33.996  18.321  0.0872 -0.1156  0.0376
51784W        W94722  13.054   0.357  17.301  0.3766 -0.0815 -0.0730
51785W        W94723  12.345   1.997  15.617  0.0416  0.0939 -0.0896
51786W        W94724  12.734   1.485  16.647 -0.3280 -0.0344 -0.1574
51787W        W94725  13.915   1.828  18.117  0.1243 -0.3481 -0.0245
51788W        W94726  14.725   2.680  16.529  0.0068  0.0928  0.0092
51789W        W94727  10.935   2.994  18.808 -0.2998  0.4963 -0.1185
51790W        W94728  12.541  34.400  19.226 -0.0959 -0.1509  0.0482
51791W        W94729  13.704   2.309  19.757  0.1045  0.0579  0.0960
51792W        W94730  10.284   3.136  15.683  0.1172  0.1841 -0.1833
51793W        W94731  10.594   1.152  19.207  0.3186  0.1060 -0.0780
51794W        W94732  11.731   3.685  15.760  0.1147 -0.1376  0.0573
51795W        W94733  10.922   1.818  17.167 -0.0965  0.0082  0.4484
51796W        W94734  12.468   1.773  19.799 -0.2192  0.0599  0.2871
51797W        W94735  15.107   1.337  15.519 -0.1160  0.1132 -0.1549
51798W        W94736  10.573  33.871  18.581  0.0617  0.0170 -0.0168
51799W        W94737  13.204   0.411  15.901 -0.2109 -0.1030  0.3337
51800W        W94738  11.042   2.631  16.882 -0.5794  0.0944  0.1314
51801W        W94739  13.068   3.678  17.637 -0.0349 -0.2615  0.1841
51802W        W94740  14.149   1.379  17.012 -0.1823 -0.0222  0.2214
51803W        W94741  13.434   2.679  15.959  0.1198 -0.5948 -0.3014
51804W        W94742  11.342   1.870  17.556 -0.0932  0.1560  0.0669
51805W        W94743  12.485   1.948  16.744 -0.0991  0.0334 -0.1842
51806W        W94744  10.608   1.013  18.678  0.0642  0.3670 -0.2281
51807W        W94745  11.199   0.791  17.299 -0.0478 -0.0898  0.0018
51808W        W94746  14.226   0.943  18.623 -0.2655 -0.2182  0.1632
51809W        W94747  11.926  34.434  16.244 -0.1773 -0.3034 -0.2781
51810W        W94748  13.017  34.328  16.616  0.0362 -0.0114 -0.1817
51811W        W94749  12.059   1.009  18.922 -0.3021 -0.1218  0.2014
51812W        W94750   9.735   2.593  16.211 -0.1731 -0.0509  0.0999
51813W        W94751  14.233   1.317  18.952  0.0861 -0.0308  0.1211
51814W        W94752  14.321   4.122  16.728  0.3504 -0.2483  0.4901
51815W        W94753  15.030   2.310  20.636  0.4271  0.2960 -0.2681
51816W        W94754  14.203   2.028  17.671  0.0958  0.0640 -0.1523
51817W        W94755  12.178   0.710  20.357 -0.0806 -0.0899  0.0456
51818W        W94756  11.997   1.283  16.064  0.2868  0.0979  0.0847
51819W        W94757  10.718   4.320  17.511 -0.0596 -0.0071  0.0957
51820W        W94758  13.684   2.639  18.370 -0.1934 -0.0822  0.1188
51821W        W94759  12.177   0.883  17.398 -0.1142 -0.1990  0.0936
51822W        W94760  11.787   3.416  17.580 -0.1422 -0.2714 -0.2268
51823W        W94761  13.972   3.437  17.765 -0.2659 -0.0902 -0.1582
51824W        W94762  11.244   3.349  18.557  0.1987  0.0666 -0.0790
51825W        W94763  12.291  34.271  18.180  0.2768 -0.0993  0.0895
51826W        W94764  12.728   0.181  18.949  0.0605 -0.1543  0.1664
51827W        W94765  11.657   1.149  16.337  0.0594  0.1963  0.0167
51828W        W94766   9.857  34.256  17.171  0.0841 -0.0389  0.0183
51829W        W94767  13.679   1.374  18.130 -0.2402  0.1714  0.2993
51830W        W94768   9.464   3.101  18.286  0.1798  0.2354  0.1355
51831W        W94769  11.244   3.305  17.030  0.1212 -0.0692  0.0051
51832W        W94770  14.108   2.360  17.301 -0.3538  0.1253  0.2575
51833W        W94771  14.253   0.451  16.788 -0.2362 -0.1397  0.0585
51834W        W94772  10.593   3.529  20.323 -0.0778 -0.0895 -0.3435
51835W        W94773  13.294   0.167  21.197 -0.1908  0.1041 -0.1030
51836W        W94774  10.122   1.775  15.904  0.1476 -0.0823 -0.1029
51837W        W94775  11.970   3.071  18.991  0.1023 -0.1458 -0.1464
51838W        W94776  13.425   0.082  17.707  0.0227 -0.2966  0.1041
51839W        W94777  13.621   1.267  16.084 -0.0758  0.0655 -0.1371
51840W        W94778  14.113   2.419  20.068 -0.0543  0.1553  0.0742
51841W        W94779  14.309   2.458  15.257 -0.1273 -0.0574 -0.2311
51842W        W94780  12.924   0.904  16.820 -0.0815  0.1755  0.1458
51843W        W94781  13.761   0.856  16.348  0.1634 -0.0965  0.0293
51844W        W94782  10.783   2.643  19.986  0.0885 -0.2011 -0.0524
51845W        W94783  14.368   3.339  17.398 -0.0384  0.0200  0.0118
51846W        W94784  13.504   0.998  17.859 -0.3866  0.1508  0.2210
51847W        W94785  12.845   0.794  15.840 -0.0952 -0.0593 -0.0460
51848W        W94786  14.873   1.787  15.631  0.1189  0.4656 -0.1413
51849W        W94787  10.405   1.912  18.756 -0.3816  0.1268 -0.1468
51850W        W94788  12.836   2.010  18.961 -0.0880  0.0557  0.1478
51851W        W94789  13.975   2.767  17.575  0.4832  0.0796 -0.4096
51852W        W94790  12.014  34.616  17.698  0.0623 -0.0860  0.1700
51853W        W94791  13.404   0.417  15.453 -0.0576  0.1621  0.1066
51854W        W94792  12.544   0.028  17.378  0.2032 -0.1529 -0.0843
51855W        W94793  10.744   3.980  15.839  0.1413  0.2349  0.1206
51856W        W94794  14.988  34.224  18.150  0.0193 -0.0157 -0.0339
51857W        W94795  14.687  33.755  18.179 -0.1841 -0.2114  0.5286
51858W        W94796  12.047  34.693  18.146  0.0623 -0.2074 -0.0498
51859W        W94797  13.837   1.006  20.200  0.0415 -0.1245 -0.1854
51860W        W94798  14.904   1.739  17.433  0.2354  0.3574  0.4005
51861W        W94799  14.196   0.422  19.004  0.0819 -0.2205 -0.2969
51862W        W94800  11.125   1.856  15.926 -0.1141 -0.0041 -0.3156
51863W        W94801  13.308   1.435  19.400  0.1015 -0.2538 -0.0014
51864W        W94802  12.884   0.275  20.285  0.1618 -0.0731  0.2510
51865W        W94803  10.491   2.230  19.806  0.2055  0.0899 -0.1964
51866W        W94804  12.501   3.090  20.423  0.1284  0.0448  0.3180
51867W        W94805  14.326   0.053  17.545  0.0689 -0.0668 -0.1374
51868W        W94806  13.417  33.663  17.911 -0.2291 -0.0572  0.4643
51869W        W94807  14.250   0.015  17.011 -0.0282  0.0099 -0.3233
51870W        W94808  13.079   3.316  16.145  0.2094  0.0914 -0.1494
51871W        W94809  12.727   2.753  16.203  0.0156  0.2452  0.0165
51872W        W94810  12.617  34.392  17.814 -0.2146  0.3340  0.2865
51873W        W94811  12.970   2.718  19.041 -0.1418 -0.1335  0.2752
51874W        W94812  13.394   3.608  16.434 -0.4287 -0.0011  0.0583
51875W        W94813  14.728   1.733  20.478  0.0704 -0.0562  0.0017
51876W        W94814  10.853   3.695  16.922  0.1132 -0.0935 -0.0892
51877W        W94815  13.905  33.791  19.463  0.0369 -0.0578  0.1779
51878W        W94816  12.141   3.122  17.879  0.1833  0.0872  0.0531
51879W        W94817  12.878   1.435  15.973 -0.0767  0.3160  0.0128
51880W        W94818  11.506   3.164  16.619 -0.1982  0.0170 -0.2311
51881W        W94819  14.172  33.917  18.203  0.0511  0.1087  0.1518
51882W        W94820  14.124   2.503  16.178 -0.0987 -0.2083 -0.1349
51883W        W94821  10.511   1.405  18.246  0.2231  0.0863  0.0597
51884W        W94822  12.571   1.242  17.515  0.0645 -0.0379  0.0107
51885W        W94823  11.023   2.635  17.414  0.3278  0.0693  0.0945
51886W        W94824  12.998   0.996  17.698 -0.0698  0.0133  0.0634
51887W        W94825  14.289   0.433  15.848 -0.0325 -0.1186 -0.0577
51888W        W94826  12.057   2.796  19.447 -0.2803  0.1229 -0.2094
51889W        W94827  12.402   1.150  21.048  0.3217  0.3932  0.2902
51890W        W94828   9.663   1.557  16.744  0.2480 -0.2121 -0.2145
51891W        W94829  13.184   2.410  20.289  0.0284 -0.3679  0.0672
51892W        W94830  12.926   1.908  16.944 -0.2661 -0.0558 -0.0288
51893W        W94831  11.714   2.896  17.766  0.3219  0.4267 -0.1635
51894W        W94832  13.665   2.262  17.471  0.0440  0.1716  0.0040
51895W        W94833  10.939   0.083  16.173 -0.2309 -0.0481  0.1415
51896W        W94834  12.484   2.515  17.335  0.0548 -0.1440  0.0576
51897W        W94835  11.125   1.285  19.427  0.1406  0.0148  0.0800
51898W        W94836  14.199   1.715  18.659  0.2527  0.2638  0.2721
51899W        W94837  13.163   0.316  18.632  0.2870  0.3898  0.2908
51900W        W94838  11.019   0.475  16.506  0.0950  0.2001 -0.1212
51901W        W94839  12.015   2.723  17.280  0.0792 -0.1241 -0.0070
51902W        W94840  13.058   1.705  18.672  0.0079 -0.3956 -0.3343
51903W        W94841  12.439   0.575  19.434  0.2231  0.0219  0.0194
51904W        W94842  10.391   3.058  19.259 -0.0675 -0.0780 -0.0276
51905W        W94843  11.910  34.178  17.880  0.1036 -0.1911 -0.2454
51906W        W94844  14.600   2.077  19.843  0.2746 -0.1879 -0.2745
51907W        W94845  11.774   2.103  17.743  0.0909 -0.0861  0.1658
51908W        W94846  11.509   3.201  15.766  0.3944 -0.3882  0.4208
51909W        W94847  12.898   2.777  17.464  0.1853  0.1856  0.1186
51910W        W94848  12.358   2.495  16.460 -0.1661  0.0508 -0.3203
51911W        W94849  13.398   0.434  19.065 -0.1678 -0.2753  0.1073
51912W        W94850  12.206   3.169  17.392  0.0322 -0.0447 -0.0577
51913W        W94851  12.992   2.509  15.843  0.1012 -0.0417 -0.1203
51914W        W94852   9.334   2.183  17.071  0.2972  0.0926  0.3412
51915W        W94853  13.243  34.656  15.831  0.2465  0.2265  0.2248
51916W        W94854  13.402   2.148  15.629 -0.1353 -0.1650 -0.1070
51917W        W94855  11.336   0.018  17.414 -0.0583 -0.2017 -0.3193
51918W        W94856  14.302  34.424  21.066 -0.1074  0.0796  0.0619
51919W        W94857  12.387   1.120  16.936  0.0539  0.0609  0.0326
51920W        W94858  11.848  34.101  20.144 -0.0773 -0.3223 -0.1597
51921W        W94859  11.903  33.935  18.898 -0.1140 -0.1090 -0.1790
51922W        W94860  13.322   0.854  18.721 -0.1343  0.0714  0.2488
51923W        W94861  11.787   0.860  18.219 -0.3078 -0.3271  0.0423
51924W        W94862  12.929   2.004  20.118 -0.0777 -0.1274 -0.5057
51925W        W94863  11.221   2.403  18.562  0.0559 -0.0476  0.0946
51926W        W94864  14.088  34.237  17.755  0.0850  0.1104  0.0013
51927W        W94865  12.703   0.769  17.327 -0.1664 -0.1133 -0.0717
51928W        W94866  12.336   1.897  18.342  0.2551  0.2463 -0.0415
51929W        W94867  13.547   1.699  17.732  0.0924  0.0192  0.0756
51930W        W94868  13.997   2.755  16.989 -0.0736  0.0688  0.0066
51931W        W94869  13.885   0.925  17.425 -0.1298 -0.0385  0.1966
51932W        W94870  12.088   2.528  17.727 -0.0070  0.1922  0.2278
51933W        W94871  14.993   1.426  16.733 -0.2647 -0.0666 -0.2097
51934W        W94872  13.856   1.321  16.605  0.0039 -0.5850  0.0694
51935W        W94873  13.203   2.336  16.862 -0.1159  0.0758  0.1778
51936W        W94874  11.280   0.796  18.962  0.0676  0.0959  0.1193
51937W        W94875  13.220   0.651  18.176  0.0757  0.2173 -0.1084
51938W        W94876  13.678  34.352  18.384  0.2438  0.2044  0.0242
51939W        W94877  14.281  34.488  19.015  0.1742  0.0753  0.0030
51940W        W94878  13.404   0.746  20.176  0.0713  0.0383  0.2710
51941W        W94879  12.181  33.383  19.751 -0.2674 -0.4346 -0.1774
51942W        W94880   9.618   0.168  18.540  0.1398  0.1729 -0.2076
51943W        W94881  14.109   2.249  18.432 -0.1787 -0.0205  0.0257
51944W        W94882  13.975   1.693  14.850 -0.1766  0.1375  0.0264
51945W        W94883  15.069  34.174  18.837  0.3509 -0.2687 -0.0711
51946W        W94884  12.724   1.711  17.381  0.0562  0.0248  0.0857
51947W        W94885  14.275   2.453  16.690  0.1841 -0.0792 -0.0683
51948W        W94886  11.376   2.262  16.071  0.1026  0.1625 -0.0705
51949W        W94887  13.456   0.648  20.976  0.0577 -0.3633  0.0057
51950W        W94888  11.874   0.664  16.138  0.3009  0.1220  0.0027
51951W        W94889  13.076  34.193  19.396  0.0093  0.1486  0.1207
51952W        W94890  14.979   2.426  17.011  0.0825  0.0239  0.5971
51953W        W94891  14.402   1.611  16.644 -0.4024 -0.0111 -0.0064
51954W        W94892  12.936   0.367  16.760 -0.1417 -0.1569 -0.0949
51955W        W94893  11.497   2.279  16.756  0.0129  0.2499  0.1868
51956W        W94894  10.734   3.181  19.849 -0.0255 -0.4512  0.4079
51957W        W94895   9.152   1.706  16.762  0.2974 -0.1631 -0.0806
51958W        W94896  13.326   1.753  16.014 -0.0774  0.1955  0.0133
51959W        W94897  12.454   2.245  18.754  0.0322 -0.2758  0.2039
51960W        W94898  14.486   2.537  19.771  0.0448 -0.2474 -0.2784
51961W        W94899  13.033  33.322  16.804  0.1387 -0.1904 -0.0444
51962W        W94900  13.775   0.746  22.206 -0.0648  0.1307 -0.0640
51963W        W94901  11.171   3.036  16.265 -0.2587 -0.1827  0.1971
51964W        W94902  13.300  34.473  17.262 -0.2346 -0.2837  0.0232
51965W        W94903  12.494   4.496  18.649 -0.1214 -0.0928 -0.0428
51966W        W94904  11.097   1.892  18.515  0.1926 -0.2309  0.0060
51967W        W94905  11.418   3.216  19.062  0.3237 -0.1603 -0.2328
51968W        W94906  12.947   0.499  19.282 -0.1654  0.1297  0.0170
51969W        W94907  14.395  33.523  17.747  0.1848  0.0048  0.2454
51970W        W94908  13.046   1.976  17.808  0.2159  0.2509 -0.3505
51971W        W94909  13.444   0.105  19.471  0.0945 -0.1222 -0.1890
51972W        W94910  13.233   2.756  18.524 -0.1745 -0.0400 -0.0615
51973W        W94911  10.275   1.242  16.551 -0.1356  0.4432 -0.1407
51974W        W94912  12.012   2.758  18.298 -0.1667  0.3179 -0.2085
51975W        W94913  13.961   0.807  17.927 -0.2383 -0.0516  0.2016
51976W        W94914  12.223   2.047  17.260 -0.1301 -0.0208 -0.0400
51977W        W94915  12.035   0.516  17.927 -0.1376 -0.2591  0.1222
51978W        W94916  12.108   2.355  19.092 -0.2698 -0.0424  0.2402
51979W        W94917  14.662   2.116  17.233  0.2468  0.1380 -0.2573
51980W        W94918  11.547   0.665  16.486  0.1727 -0.0635 -0.1712
51981W        W94919  12.924   2.210  15.487 -0.1898 -0.0217  0.4088
51982W        W94920  10.470   3.434  18.970  0.1299  0.0137 -0.1000
51983W        W94921  10.480   2.127  19.287 -0.1070  0.2942  0.3061
51984W        W94922  10.763   2.042  17.642  0.1135  0.1691 -0.1934
51985W        W94923  13.925   1.719  17.346 -0.0435 -0.1460  0.1262
51986W        W94924  13.893   3.434  16.291  0.2648 -0.2221 -0.0210
51987W        W94925  12.621   2.534  17.850 -0.1489  0.2380  0.0201
51988W        W94926  10.929   2.571  16.352  0.0841  0.0404 -0.0701
51989W        W94927  10.141   4.366  17.025  0.5405  0.4467  0.0416
51990W        W94928  10.883   3.229  16.648 -0.0988  0.3507  0.1842
51991W        W94929  13.665   1.550  15.665  0.2257  0.3059  0.0179
51992W        W94930  11.732   3.042  16.164 -0.0350 -0.1904  0.0894
51993W        W94931  13.739   1.011  19.655  0.1133 -0.1290  0.3368
51994W        W94932  13.990   0.878  15.151 -0.0286 -0.1609 -0.1748
51995W        W94933  15.145   0.928  18.154 -0.0929  0.0920 -0.1539
51996W        W94934  13.233   0.805  17.209 -0.0170 -0.0123  0.0196
51997W        W94935  11.968   2.941  20.360  0.1735  0.4647  0.1128
51998W        W94936  11.672   1.564  17.713 -0.0184 -0.1757  0.2473
51999W        W94937  13.704   0.767  16.879 -0.2322 -0.2205  0.1564
52000W        W94938  11.233   2.903  17.907  0.1127 -0.1958 -0.2408
52001W        W94939  12.099   0.148  20.765  0.0822  0.0287  0.0533
52002W        W94940  10.445   2.786  19.666  0.1374  0.0657 -0.1246
52003W        W94941  15.181   1.399  17.173 -0.2605  0.0375 -0.0985
52004W        W94942  11.938   1.728  16.429 -0.0975  0.3261  0.0288
52005W        W94943  12.193   1.589  16.994 -0.0299  0.2708 -0.1885
52006W        W94944  15.138  33.514  18.298 -0.1112 -0.0030  0.0140
52007W        W94945  14.181   1.680  15.699 -0.0792  0.2146 -0.0362
52008W        W94946  13.817  34.612  17.998 -0.2030 -0.2202  0.1951
52009W        W94947  12.759   2.212  16.391 -0.1340  0.1201 -0.1300
52010W        W94948  12.210   3.248  18.464 -0.1524 -0.0790  0.0197
52011W        W94949  13.056   4.880  19.424 -0.0085 -0.0070  0.2633
52012W        W94950  10.010   0.997  17.447 -0.3670  0.1326 -0.1588
52013W        W94951  15.319   0.420  17.546 -0.2743 -0.0880 -0.0806
52014W        W94952  12.867  34.223  18.236 -0.1817  0.0052  0.4129
52015W        W94953  14.207  32.541  19.511 -0.1228  0.1640 -0.1597
52016W        W94954  11.799   1.806  17.289  0.1515  0.1711  0.1238
52017W        W94955  13.381   1.130  16.783 -0.4306  0.0547 -0.1724
52018W        W94956  13.774   1.314  19.197 -0.0037 -0.2228 -0.1733
52019W        W94957  10.631   2.571  19.136 -0.2047 -0.1686  0.4116
52020W        W94958  12.370   0.605  16.022 -0.0332 -0.2085 -0.0338
52021W        W94959  14.848   1.916  18.282 -0.0544  0.1003  0.2653
52022W        W94960  13.735   2.260  16.944  0.0223 -0.3922  0.0317
52023W        W94961  12.541   3.524  18.135  0.2070 -0.1857  0.0162
52024W        W94962  11.215   1.341  16.351 -0.0084  0.1079 -0.0615
52025W        W94963  13.152   1.354  16.354 -0.0159 -0.1240 -0.4351
52026W        W94964   9.792   1.727  16.291 -0.0630 -0.2965 -0.1782
52027W        W94965  12.658   1.113  18.589 -0.2370 -0.3381  0.2129
52028W        W94966  12.492   3.487  20.009 -0.0756 -0.0509 -0.1457
52029W        W94967  10.965   1.452  16.802 -0.0829 -0.3054 -0.0065
52030W        W94968  14.356   3.388  16.153  0.0373 -0.1585  0.0097
52031W        W94969  14.224   1.292  19.554  0.0356  0.2675 -0.0187
52032W        W94970  13.789   2.776  16.461 -0.1582 -0.2472  0.1235
52033W        W94971  12.788   0.012  18.364  0.2101 -0.0636  0.1810
52034W        W94972  14.544   2.157  18.778 -0.0217  0.1694  0.1675
52035W        W94973  11.310   1.401  17.286 -0.0775  0.0153 -0.1118
52036W        W94974  14.630   3.850  17.022  0.0184  0.3784 -0.1997
52037W        W94975  15.672   2.028  17.809 -0.0161  0.0008 -0.2675
52038W        W94976  13.322   0.507  16.529 -0.0630 -0.1916  0.1908
52039W        W94977  11.555   1.033  17.618 -0.0990 -0.0955  0.0805
52040W        W94978  11.694   3.575  16.291  0.1714  0.0134 -0.0967
52041W        W94979  14.338  33.663  18.648 -0.0559  0.0773 -0.1372
52042W        W94980  13.217  33.965  18.834  0.0004  0.1909 -0.0684
52043W        W94981  14.004   3.525  15.747  0.5303  0.0283 -0.1388
52044W        W94982  12.902  33.590  18.025  0.5437 -0.1180 -0.0303
52045W        W94983  12.640   1.104  18.005  0.1824 -0.0518  0.1859
52046W        W94984  11.755   1.955  19.318  0.0243  0.0103 -0.2380
52047W        W94985  11.962   3.338  15.463 -0.1088 -0.2713  0.2004
52048W        W94986  11.451   0.624  19.444  0.0087  0.0817  0.2113
52049W        W94987  12.563   3.308  16.229 -0.2345  0.3673 -0.1869
52050W        W94988  12.663   3.174  17.040  0.1216  0.1270 -0.1373
52051W        W94989  13.330   1.779  18.251  0.4308 -0.0666 -0.2084
52052W        W94990  12.453   0.734  17.747  0.1483  0.1212 -0.0277
52053W        W94991  14.248   1.968  16.964  0.2667  0.1881  0.0327
52054W        W94992  11.388   1.805  16.928  0.0121 -0.2771  0.0311
52055W        W94993  15.529  34.365  16.470  0.1163 -0.0663  0.0996
52056W        W94994  12.389   0.019  15.590 -0.0098 -0.0608  0.1325
52057W        W94995  11.386   0.664  17.918 -0.3213 -0.3053 -0.2402
52058W        W94996   9.713   1.421  15.839  0.1657 -0.0726 -0.0176
52059W        W94997  10.493   1.557  16.955  0.0280 -0.1903  0.1321
52060W        W94998  11.847   1.280  17.304 -0.0734  0.2833 -0.3705
52061W        W94999  12.343  33.930  17.851  0.0854 -0.2685  0.1740
52062W        W95000  11.911   2.125  18.197  0.0234 -0.0468  0.0087
52063W        W95001  12.274   2.005  16.202  0.0768 -0.0698  0.0986
52064W        W95002  11.604   1.674  16.088  0.1714 -0.1648 -0.0368
52065W        W95003  14.678   1.051  16.901 -0.1970 -0.1051  0.2133
52066W        W95004  12.133   0.389  17.481 -0.0327 -0.0959  0.3535
52067W        W95005  10.543   0.151  17.098 -0.1948  0.0567 -0.0498
52068W        W95006  13.543  34.225  17.744 -0.0014 -0.0827 -0.1225
52069W        W95007  13.862   1.662  16.163  0.0154 -0.0412  0.3437
52070W        W95008  11.837   0.299  17.065  0.0343  0.0318  0.1141
52071W        W95009  14.716   1.359  19.410  0.3951  0.0825  0.2568
52072W        W95010  12.506   2.358  15.937 -0.1087  0.3197  0.3874
52073W        W95011  12.306  33.441  19.285  0.0428 -0.0552  0.1334
52074W        W95012  11.380   0.257  18.725 -0.1390 -0.0680 -0.1868
52075W        W95013  12.486   1.122  15.880 -0.0185 -0.1131  0.1659
52076W        W95014  12.527   1.140  19.038  0.2257  0.1811  0.1245
52077W        W95015  12.770   2.583  18.517  0.2294 -0.0287 -0.0058
52078W        W95016  13.929   1.393  17.724 -0.0924 -0.1062 -0.2378
52079W        W95017  11.744   2.458  18.626 -0.0653  0.2510  0.1821
52080W        W95018  13.701   1.775  19.557  0.2383  0.0343  0.0410
52081W        W95019  10.727   0.653  16.994 -0.1347  0.2855  0.4607
52082W        W95020  14.789   0.280  17.642  0.1146 -0.2434  0.0426
52083W        W95021  12.773   1.998  18.277 -0.0765 -0.3638 -0.0712
52084W        W95022  14.924   2.460  17.538  0.0260  0.1009  0.1860
52085W        W95023  14.357  33.796  17.330  0.4321 -0.0233 -0.2159
52086W        W95024  13.903   0.392  17.656 -0.1148 -0.4996 -0.0387
52087W        W95025  11.853   0.074  18.730  0.1874  0.0662  0.0229
52088W        W95026  10.945   2.390  18.101  0.2343  0.0694 -0.2022
52089W        W95027  13.584   2.192  18.637 -0.2388  0.0512 -0.2454
52090W        W95028  10.931   0.518  17.797  0.3633  0.4194  0.0363
52091W        W95029  13.859  34.619  17.506  0.1037 -0.0593  0.0876
52092W        W95030  14.773   3.189  16.363  0.1699 -0.1560  0.1821
52093W        W95031  11.716   2.301  17.254 -0.2389 -0.0075 -0.0459
52094W        W95032  13.434   0.555  17.611 -0.4242  0.0572  0.2896
52095W        W95033  12.285   0.570  19.888  0.0656 -0.2021 -0.0414
52096W        W95034  12.588   1.622  17.875  0.2312 -0.0322 -0.0209
52097W        W95035  14.164   1.375  20.101 -0.0877  0.1857  0.3460
52098W        W95036  10.659   2.698  15.851  0.0076  0.1388 -0.1155
52099W        W95037  13.605   0.190  17.218  0.0313  0.1476 -0.0515
52100W        W95038  12.324   2.770  18.705  0.2846  0.2341  0.2174
52101W        W95039  13.811   3.310  19.492  0.0666  0.0697  0.1591
52102W        W95040  12.822   3.640  18.526 -0.1580  0.1612  0.2867
52103W        W95041  13.645   0.885  18.328  0.0900 -0.0548 -0.0395
52104W        W95042  10.439   0.281  16.642  0.0229  0.1207  0.1656
52105W        W95043  13.131   1.827  16.464  0.1933  0.1959 -0.0826
52106W        W95044  14.182   2.042  16.329 -0.0701 -0.3086 -0.2040
52107W        W95045  13.105   1.450  17.835  0.1557 -0.3346  0.3418
52108W        W95046  12.151   2.387  16.918 -0.2267 -0.2156 -0.0590
52109W        W95047  13.298   0.086  16.782 -0.0538 -0.5672  0.0429
52110W        W95048  12.169   2.669  19.893 -0.0431  0.4195  0.1433
52111W        W95049  13.675   3.067  17.324 -0.1610 -0.2103  0.2207
52112W        W95050  10.964   2.513  23.142  0.0367  0.1124 -0.2237
52113W        W95051  11.266   1.827  19.511 -0.0424  0.2715 -0.0211
52114W        W95052  13.055   0.292  20.758 -0.5355  0.5000 -0.2619
52115W        W95053  14.009   2.432  21.012 -0.2863  0.1179  0.3085
52116W        W95054  12.054  33.892  20.597 -0.0036 -0.3949  0.1303
52117W        W95055  13.958   3.529  20.276 -0.1738  0.1869 -0.2282
52118W        W95056  10.338  33.671  22.657 -0.0661  0.1137  0.0233
52119W        W95057  12.752   4.392  23.109 -0.2627 -0.1145 -0.0817
52120W        W95058  12.695   2.344  23.106 -0.1036  0.0028  0.2982
52121W        W95059  12.810   1.645  19.286  0.2175  0.1464 -0.2206
52122W        W95060  11.969   0.715  22.830  0.3031  0.2759 -0.0771
52123W        W95061  12.266   3.102  22.110  0.1238 -0.0392 -0.0254
52124W        W95062  12.560  34.209  20.288 -0.0982  0.1674  0.0350
52125W        W95063  10.559  33.812  21.080  0.0258 -0.1792  0.2237
52126W        W95064  12.798   1.111  21.474 -0.2044 -0.1144  0.0260
52127W        W95065  10.752   0.383  20.263 -0.0451 -0.2251  0.4071
52128W        W95066  11.929  34.403  21.041 -0.0476  0.3319 -0.2825
52129W        W95067  11.774  33.514  19.188 -0.3626  0.0979 -0.0189
52130W        W95068  12.657   3.975  22.718 -0.2051 -0.1451 -0.1181
52131W        W95069  12.834  34.402  21.463 -0.2353  0.2945  0.2412
52132W        W95070  14.027  33.797  23.548  0.2739 -0.0612 -0.2361
52133W        W95071  13.536   3.550  21.227  0.1485 -0.3429  0.3785
52134W        W95072  11.296   1.450  18.607 -0.0341  0.0321 -0.2181
52135W        W95073  11.923  34.687  21.462  0.1180 -0.1094  0.0555
52136W        W95074  12.041   0.478  22.240 -0.0390 -0.1022  0.1427
52137W        W95075  12.449   0.669  22.085  0.1267  0.0305  0.1057
52138W        W95076  12.883  34.450  22.069 -0.1700  0.2753  0.0141
52139W        W95077  11.899   1.270  21.091  0.1112 -0.3002 -0.1098
52140W        W95078  12.775   4.067  21.284 -0.2358  0.1870  0.2258
52141W        W95079  12.515   1.232  22.001  0.0731 -0.0107  0.0505
52142W        W95080  12.506   0.699  21.522 -0.1099 -0.0893  0.0024
52143W        W95081  10.611   5.448  22.258 -0.2712 -0.1269  0.2990
52144W        W95082  12.683   2.344  20.858  0.1648 -0.2193 -0.2184
52145W        W95083  13.225   1.884  21.835  0.0240  0.2397  0.0650
52146W        W95084  13.244   3.366  23.150  0.2712 -0.2062 -0.1504
52147W        W95085  12.035   2.380  24.565 -0.2014  0.2545 -0.1523
52148W        W95086  10.208   2.611  20.095 -0.2195 -0.2364 -0.0657
52149W        W95087  11.070   4.144  23.161 -0.0131 -0.1036  0.0906
52150W        W95088  11.374   3.779  22.392  0.0698  0.1181  0.2227
52151W        W95089  13.284   1.433  21.720 -0.0325 -0.2171  0.1879
52152W        W95090  12.829   3.132  20.834  0.4979 -0.0398 -0.0142
52153W        W95091  12.747   2.623  19.657  0.1920 -0.3046  0.0561
52154W        W95092  12.490   3.511  20.738 -0.0541 -0.1093  0.0019
52155W        W95093  11.295   1.598  22.709  0.0421  0.1856  0.1745
52156W        W95094  11.440   0.862  21.281 -0.1444 -0.1438 -0.1793
52157W        W95095  12.864   1.573  22.155  0.1834 -0.0303  0.3227
52158W        W95096  11.691   2.798  19.959 -0.0181 -0.0351 -0.0245
52159W        W95097  12.802   0.799  21.034  0.2110  0.0185  0.1263
52160W        W95098  12.792   0.422  19.761  0.0788 -0.3005 -0.2148
52161W        W95099  15.160   1.508  21.471 -0.0110  0.2998  0.2205
52162W        W95100  13.541  33.471  21.203  0.0443 -0.0410  0.1846
52163W        W95101  12.510   3.121  22.930 -0.1413  0.3509  0.1708
52164W        W95102  11.993   1.278  22.011  0.0439 -0.1024  0.3421
52165W        W95103  14.247   1.749  19.749 -0.0425  0.0139 -0.1614
52166W        W95104  13.057   0.796  20.582 -0.4434 -0.1223 -0.2921
52167W        W95105  12.138   0.324  21.775  0.0581  0.0499 -0.0738
52168W        W95106  11.560   2.480  22.802 -0.0357 -0.1459  0.0480
52169W        W95107  10.556   2.140  20.752 -0.0402  0.2968 -0.0075
52170W        W95108  13.991   3.050  20.162 -0.0355  0.0473 -0.0280
52171W        W95109  14.568   3.288  22.911 -0.0730 -0.0011 -0.0061
52172W        W95110  12.937   1.395  19.696 -0.3006 -0.1572  0.0520
52173W        W95111  11.689   1.130  19.749 -0.0898  0.0014  0.1102
52174W        W95112  11.249   1.650  23.273  0.2058  0.0827 -0.2744
52175W        W95113  10.014   2.668  22.873  0.1484  0.0493  0.1142
52176W        W95114  10.149   0.109  18.695 -0.0210  0.1631  0.2121
52177W        W95115  15.342   2.823  24.114  0.0373 -0.1393 -0.4551
52178W        W95116  10.286   2.448  22.494 -0.0060 -0.3594 -0.2783
52179W        W95117  14.326   0.911  21.865 -0.0026  0.0929  0.3227
52180W        W95118  12.428   2.153  22.304 -0.4343  0.0212  0.0876
52181W        W95119  12.595   2.459  22.652  0.2391  0.2356  0.1395
52182W        W95120  12.603   2.417  19.250  0.1174  0.1938 -0.1437
52183W        W95121  15.118   0.601  21.078  0.1013  0.0345  0.1877
52184W        W95122  12.799   0.234  22.762  0.0113  0.0326  0.0298
52185W        W95123  11.693   2.312  19.713 -0.2053  0.1897  0.1708
52186W        W95124  13.473   1.459  20.939  0.1706  0.1338  0.0466
52187W        W95125  12.904   3.535  22.308  0.2925 -0.1047 -0.1375
52188W        W95126  14.597   1.642  18.978  0.1416  0.1124 -0.0635
52189W        W95127  12.133   1.665  20.324 -0.0842  0.6121  0.3450
52190W        W95128  13.824   1.237  23.225 -0.1499  0.0277 -0.2532
52191W        W95129  12.810   3.498  23.314  0.0223  0.1433  0.2260
52192W        W95130  10.224   3.529  20.672 -0.1014  0.1629  0.2542
52193W        W95131  10.288   0.722  22.966 -0.3250  0.0297  0.0821
52194W        W95132  11.429   2.333  19.298 -0.0137  0.3311  0.1282
52195W        W95133  10.304  33.636  22.127 -0.1390 -0.1105 -0.2156
52196W        W95134  12.042   1.744  21.172  0.0757  0.2147  0.2590
52197W        W95135  13.558   2.209  22.137  0.2605 -0.0803  0.2130
52198W        W95136  11.243   0.138  21.474 -0.4763 -0.2706  0.1182
52199W        W95137  15.119   0.135  21.363  0.1552  0.1791  0.1433
52200W        W95138  12.153   1.107  20.054  0.0212  0.0159  0.4394
52201W        W95139  13.161   2.760  19.862  0.4034 -0.2162 -0.1244
52202W        W95140  13.726   1.984  21.642  0.1198  0.2540 -0.2521
52203W        W95141  12.507   2.302  20.065  0.0017 -0.1441  0.1539
52204W        W95142   9.990  34.455  21.506  0.0527  0.0268  0.1722
52205W        W95143  11.360  34.394  21.005  0.2344 -0.1009 -0.3942
52206W        W95144  12.601  34.505  22.964 -0.2859 -0.1002 -0.1793
52207W        W95145  10.484  33.206  20.570 -0.0867 -0.2712 -0.3338
52208W        W95146  12.572   2.916  21.538  0.0123  0.2719  0.1250
52209W        W95147  10.108   0.264  21.162 -0.2061 -0.3762  0.1091
52210W        W95148  13.143   1.364  20.462 -0.2331 -0.0749  0.0634
52211W        W95149  12.569   1.634  21.223 -0.0019  0.1553 -0.1350
52212W        W95150  10.226   1.789  20.673 -0.0527 -0.0277 -0.1747
52213W        W95151  13.810   1.131  24.221  0.0282 -0.2597 -0.1849
52214W        W95152  13.054   4.105  21.716 -0.0255  0.2181 -0.4182
52215W        W95153  12.964   2.920  22.864 -0.3520  0.0550 -0.1726
52216W        W95154  13.991   2.901  23.698  0.0521  0.0859 -0.1707
52217W        W95155  10.576   0.317  22.818  0.2750 -0.1389 -0.0076
52218W        W95156  10.678  34.165  18.172  0.1624 -0.3241 -0.0568
52219W        W95157  11.312   3.440  21.894  0.1283  0.1114 -0.0893
52220W        W95158  12.882   3.586  21.001  0.0358 -0.0313 -0.2413
52221W        W95159  12.598  33.697  19.585  0.1052 -0.4422  0.2614
52222W        W95160  13.848   4.753  22.783  0.1689 -0.0198  0.0409
52223W        W95161  13.325   1.947  19.855 -0.0657  0.1810  0.0789
52224W        W95162  11.525   0.585  22.517 -0.0868  0.0823 -0.1287
52225W        W95163  14.403  34.331  22.250 -0.0228  0.3628 -0.3795
52226W        W95164  13.691   3.086  24.690 -0.0505 -0.3549 -0.1505
52227W        W95165  12.423   1.637  20.720 -0.0794 -0.2379  0.2938
52228W        W95166  11.027   0.253  18.217  0.1295 -0.0499 -0.1133
52229W        W95167  13.666   3.986  20.978 -0.0692 -0.1970  0.2134
52230W        W95168  11.160   3.010  20.087 -0.1757  0.0136 -0.2172
52231W        W95169  11.882  34.550  19.506 -0.0261  0.0910 -0.1544
52232W        W95170  12.643   3.811  21.937 -0.0906  0.0354 -0.0045
52233W        W95171  13.711   1.531  21.489 -0.1274  0.0346  0.0640
52234W        W95172  11.130   1.439  24.184  0.0825  0.1830 -0.0179
52235W        W95173  13.483   1.546  24.025 -0.0169  0.0861 -0.0425
52236W        W95174  11.607  34.584  20.254  0.0779 -0.2186  0.1129
52237W        W95175  12.572   3.974  23.319 -0.2070 -0.1084 -0.1627
52238W        W95176  12.691   0.263  21.036  0.0498  0.1428 -0.1854
52239W        W95177  14.176   0.696  20.912  0.0087  0.1326  0.1011
52240W        W95178  12.638   1.333  22.854 -0.0135  0.1026  0.1188
52241W        W95179  13.485   2.410  20.733  0.0424 -0.1486  0.0737
52242W        W95180  13.773   0.267  20.900 -0.0316  0.1180 -0.0976
52243W        W95181  12.139   1.505  19.196 -0.4484 -0.2121  0.3712
52244W        W95182   9.872   2.184  23.884 -0.4089  0.0350 -0.2560
52245W        W95183  13.082   2.701  20.779  0.1886 -0.3413  0.0352
52246W        W95184  12.393   1.668  22.178 -0.1902  0.2167 -0.1549
52247W        W95185  13.017  34.006  20.538  0.0850  0.0643 -0.2603
52248W        W95186  14.322   3.399  22.391 -0.0236 -0.0278 -0.1796
52249W        W95187  12.325   1.853  21.584  0.2663  0.0981  0.1075
52250W        W95188  12.709   2.030  21.939 -0.1192 -0.1209 -0.0508
52251W        W95189  14.169   3.612  21.937  0.1033  0.0185 -0.3404
52252W        W95190  11.670  34.371  22.686  0.2291  0.2641 -0.1674
52253W        W95191  11.767   0.662  19.872 -0.0240  0.2766 -0.1424
52254W        W95192  13.064  34.256  19.899 -0.1131  0.2310  0.2612
52255W        W95193  10.211   3.080  20.009  0.0269 -0.2101  0.0943
52256W        W95194  13.405  34.428  21.381  0.0423 -0.2119  0.0860
52257W        W95195  12.194  33.820  21.077 -0.1327  0.1425  0.1066
52258W        W95196  12.541   0.863  23.011  0.0005  0.2269  0.1608
52259W        W95197  13.489   2.115  23.493  0.1061 -0.3283  0.0475
52260W        W95198  13.855   0.994  21.248  0.1186  0.1248  0.3370
52261W        W95199  12.121   0.870  21.802 -0.1650  0.2190 -0.0254
52262W        W95200  11.257   1.617  17.997 -0.0726  0.2192 -0.1119
52263W        W95201  12.364  34.539  21.761  0.0542  0.3110 -0.0798
52264W        W95202  11.017   0.939  20.940 -0.0093 -0.1240  0.3095
52265W        W95203  10.958   2.978  21.894  0.0272  0.2433 -0.4138
52266W        W95204  13.271   2.739  21.230 -0.1082  0.2995  0.2679
52267W        W95205  12.527  34.214  20.818 -0.3147 -0.1186  0.0599
52268W        W95206  13.254  34.319  23.649 -0.0213  0.2678 -0.0364
52269W        W95207  11.061  34.543  18.482 -0.0269 -0.0200  0.0071
52270W        W95208  12.049   2.109  19.954  0.2104 -0.0978 -0.2171
52271W        W95209  11.405   2.308  20.167 -0.0215  0.1583  0.1850
52272W        W95210  11.036  33.057  22.972 -0.0008 -0.1500  0.1359
52273W        W95211  12.123   2.300  21.875  0.2069 -0.1634  0.1644
52274W        W95212  11.583   2.878  19.488  0.2859  0.1245  0.1081
52275W        W95213  12.781   1.560  21.677  0.0577  0.2457 -0.1209
52276W        W95214  12.079   3.177  20.775 -0.3277  0.3878 -0.1409
52277W        W95215  15.295  34.422  21.037 -0.1516  0.0525 -0.3543
52278W        W95216  11.491   2.240  21.870  0.1786 -0.0583  0.1592
52279W        W95217  11.009   1.181  18.946 -0.1851 -0.0737  0.0155
52280W        W95218  10.765  34.155  20.390 -0.1228 -0.1127  0.3250
52281W        W95219  12.839   0.277  21.994  0.1465 -0.1315  0.3499
52282W        W95220  14.347   3.134  19.586 -0.1955 -0.3105  0.2693
52283W        W95221  10.842  34.190  22.294  0.2271 -0.0930 -0.3202
52284W        W95222  12.539   1.045  22.468  0.1379 -0.1522  0.2316
52285W        W95223  11.820   3.395  22.221 -0.2414  0.0923  0.0425
52286W        W95224  12.145   0.034  22.603  0.1352 -0.0943  0.0899
52287W        W95225  13.033  33.587  19.308 -0.2740 -0.2795 -0.0349
52288W        W95226  13.316   3.289  20.886  0.1182 -0.0329 -0.0822
52289W        W95227  11.557   1.040  22.932 -0.0994  0.0501  0.0044
52290W        W95228  11.297   0.751  18.403  0.0940  0.0377 -0.1947
52291W        W95229  13.269   0.380  22.832 -0.0227  0.4975  0.0434
52292W        W95230  12.605   0.483  20.603 -0.1891 -0.0099 -0.1235
52293W        W95231  11.021   3.236  22.330 -0.2424  0.0249  0.4210
52294W        W95232  13.947   4.303  22.363  0.1048 -0.1804  0.1133
52295W        W95233  11.314   1.816  20.190  0.1710 -0.0441 -0.0466
52296W        W95234  11.308   2.694  22.180  0.0282  0.0446  0.1692
52297W        W95235  11.694   1.755  23.429  0.3448  0.0547  0.1217
52298W        W95236  11.695   1.056  21.632 -0.0788 -0.0564 -0.3217
52299W        W95237  12.283  33.828  20.061  0.0340  0.0832 -0.0582
52300W        W95238  11.248   0.879  19.834  0.3075  0.0664  0.0909
52301W        W95239  13.662   0.534  21.503  0.1362  0.0205 -0.2755
52302W        W95240  13.606   2.358  21.333 -0.2218 -0.2178 -0.2470
52303W        W95241  12.776  34.035  22.809 -0.2572  0.0536 -0.0707
52304W        W95242  11.437   2.708  23.380 -0.0783 -0.1506  0.0155
52305W        W95243  12.250  34.154  21.478  0.3746 -0.1726 -0.2990
52306W        W95244  14.982   3.288  20.250  0.0569  0.0730  0.1344
52307W        W95245  13.354   0.827  22.473  0.0929  0.4269 -0.0175
52308W        W95246  12.548   1.068  19.662  0.0225  0.1453  0.0146
52309W        W95247  11.534   0.899  20.242  0.2193  0.1871  0.1626
52310W        W95248  11.018   0.785  20.425 -0.0475 -0.1350 -0.0746
52311W        W95249  12.883   0.642  22.474  0.0840 -0.1633 -0.2162
52312W        W95250  10.990   1.355  21.748 -0.0118  0.0008  0.0343
52313W        W95251  10.415   3.131  20.977 -0.1125  0.2375  0.1672
52314W        W95252  12.241   1.856  22.684  0.0250 -0.2216  0.1568
52315W        W95253  13.694   0.142  21.803  0.4325  0.1640  0.1138
52316W        W95254  12.777   2.723  20.235 -0.0639  0.2960 -0.1329
52317W        W95255  10.963   1.669  20.582  0.1123  0.1719 -0.2231
52318W        W95256  14.905   0.370  22.448 -0.0981  0.0278  0.3672
52319W        W95257  13.492   1.362  20.015 -0.1021  0.1988 -0.0361
52320W        W95258  12.080   1.412  23.722 -0.1433  0.2959 -0.1063
52321W        W95259  11.350   0.224  22.042 -0.2511  0.2939 -0.1385
52322W        W95260  13.472   4.257  21.958  0.0251 -0.1133 -0.3047
52323W        W95261  12.180  34.337  22.148  0.2966  0.2552 -0.0526
52324W        W95262  12.573   4.126  24.198 -0.0323  0.0150  0.3124
52325W        W95263  10.597   2.229  23.188  0.0223 -0.0922 -0.1747
52326W        W95264  12.912  33.359  20.549  0.0866  0.1556  0.0749
52327W        W95265  12.210   0.151  19.109 -0.2278  0.3349 -0.4022
52328W        W95266  13.057   3.219  21.287 -0.0287  0.0235 -0.2605
52329W        W95267  14.648   0.027  20.317  0.0918 -0.0445  0.0293
52330W        W95268  11.599   1.078  19.179  0.0073  0.0710  0.0652
52331W        W95269  14.186   1.757  21.577 -0.4056 -0.0846 -0.1081
52332W        W95270  10.699   1.724  23.007  0.0695 -0.1175 -0.2211
52333W        W95271  13.947   2.772  21.516  0.0103  0.3203  0.0667
52334W        W95272  13.780   0.591  20.470  0.3270 -0.0353  0.2362
52335W        W95273  11.165   3.503  20.065  0.0009  0.0879  0.1789
52336W        W95274  12.348   2.085  21.120 -0.1892  0.0006  0.2265
52337W        W95275  13.542   1.076  20.669 -0.3155  0.0810 -0.2549
52338W        W95276  11.659   0.470  21.590  0.0989  0.1295  0.0969
52339W        W95277  13.986   0.096  22.239  0.1465  0.1439  0.0667
52340W        W95278  11.668   1.059  24.250 -0.2953 -0.0615 -0.0830
52341W        W95279  12.733   1.833  26.397 -0.0933 -0.0870 -0.0040
52342W        W95280  10.542   1.209  21.389  0.0054 -0.0353 -0.0778
52343W        W95281  14.203   2.706  23.215 -0.1592 -0.0481 -0.1605
52344W        W95282  13.699   0.121  18.860 -0.0507  0.0370 -0.0861
52345W        W95283  13.655   0.356  22.475  0.1485  0.2039 -0.1365
52346W        W95284  14.606   2.378  21.158 -0.1971 -0.1919 -0.0096
52347W        W95285  13.192   0.846  21.764  0.1527 -0.0261 -0.4515
52348W        W95286  10.765  33.938  22.839  0.2306  0.1029 -0.1641
52349W        W95287  14.037   1.200  22.827 -0.0003 -0.0694 -0.0852
52350W        W95288  11.560  34.306  19.798 -0.2867  0.3998  0.0977
52351W        W95289  14.174  34.292  23.663 -0.0650  0.0810  0.0029
52352W        W95290  13.290   3.733  22.072  0.1419  0.1722  0.0794
52353W        W95291  14.214   4.216  23.322  0.2080  0.1358 -0.1088
52354W        W95292  12.597   0.195  21.586 -0.0569 -0.1717  0.2944
52355W        W95293   9.934  34.650  20.687  0.3494  0.0977  0.2422
52356W        W95294  13.140   4.521  22.536 -0.0888  0.2422 -0.2446
52357W        W95295  12.448   1.618  18.713  0.2245 -0.2681 -0.0275
52358W        W95296  11.822   1.498  18.209 -0.2773 -0.0384 -0.3413
52359W        W95297  12.815   2.032  21.433  0.0823  0.0199  0.2039
52360W        W95298  14.655   3.012  23.371  0.1055  0.3613 -0.3899
52361W        W95299  12.214  33.948  19.314  0.1504  0.1643 -0.1722
52362W        W95300  13.684   2.561  23.351  0.0955 -0.1241 -0.1925
52363W        W95301  11.249   1.361  19.925  0.5225 -0.0485 -0.1730
52364W        W95302  13.100  33.663  21.394 -0.0665 -0.0542  0.0638
52365W        W95303  11.858   1.574  21.638 -0.1817  0.0113  0.0235
52366W        W95304  11.778   2.861  22.379  0.2114 -0.0501 -0.3872
52367W        W95305  11.725   4.428  21.265 -0.1285  0.0625  0.0407
52368W        W95306  14.790   0.977  21.568  0.2442 -0.0544  0.3139
52369W        W95307  13.186   1.609  21.298 -0.1177  0.0386 -0.1338
52370W        W95308  12.110   1.182  20.604 -0.1062 -0.1145 -0.1417
52371W        W95309  13.056   0.998  22.881  0.2624 -0.0723  0.3438
52372W        W95310  12.110   2.359  22.667 -0.3191  0.0677 -0.1011
52373W        W95311  11.951   2.570  20.786 -0.0727  0.1105  0.1936
52374W        W95312  11.845   3.395  23.132 -0.1147 -0.0280 -0.0067
52375W        W95313  13.938   2.597  22.708  0.4241 -0.1421 -0.3040
52376W        W95314  11.035   2.262  21.621  0.1019 -0.1221 -0.0703
52377W        W95315  11.523   1.380  21.971  0.0735 -0.1596 -0.0807
52378W        W95316  12.326   1.714  24.026 -0.0409 -0.0619  0.1654
52379W        W95317  13.011   1.069  22.201  0.0595  0.1624  0.1824
52380W        W95318  12.147  34.470  19.963 -0.1410  0.0311 -0.1248
52381W        W95319  12.313   2.102  20.515  0.0617  0.0891 -0.0473
52382W        W95320  12.255   3.650  22.934  0.2389 -0.0855  0.0821
52383W        W95321  10.484   1.617  22.398 -0.0724 -0.0073 -0.0148
52384W        W95322  12.822   4.210  20.201  0.1815  0.2291  0.0711
52385W        W95323  14.422   2.864  21.627  0.0679 -0.1522 -0.1193
52386W        W95324  13.776   3.889  22.090 -0.0176  0.1369 -0.2608
52387W        W95325  12.717   2.959  22.317  0.2500 -0.0180  0.0340
52388W        W95326  10.787   1.356  20.203  0.1682 -0.3026  0.3635
52389W        W95327  11.989   3.128  21.301  0.1701 -0.1107 -0.0688
52390W        W95328  10.701   3.067  20.412  0.0616 -0.2172  0.0538
52391W        W95329  12.838   5.367  21.187 -0.1062 -0.3036 -0.1499
52392W        W95330  10.948   3.654  21.389 -0.1282 -0.5799 -0.0143
52393W        W95331  12.960   0.563  23.152  0.0732  0.4378  0.1790
52394W        W95332  15.120  34.408  19.382 -0.1384  0.2352  0.1039
52395W        W95333  13.145   2.238  21.134  0.1401 -0.0439 -0.0242
52396W        W95334  15.001   1.156  21.987  0.3209  0.0421  0.1811
52397W        W95335  14.038   4.182  22.899  0.2777  0.0189  0.3044
52398W        W95336  11.968   0.818  21.295  0.1528 -0.0008 -0.1277
52399W        W95337  11.713   0.640  18.776 -0.1196  0.1854  0.2556
52400W        W95338  11.798   2.335  22.291  0.0966 -0.0899 -0.0005
52401W        W95339  14.757   1.538  23.179 -0.0760  0.0906 -0.1971
52402W        W95340  11.123   3.117  23.081  0.2189  0.2171 -0.0600
52403W        W95341  13.248   3.178  20.397  0.3117 -0.0530 -0.3225
52404W        W95342  11.733  34.282  20.606  0.2001  0.2309 -0.2883
52405W        W95343  12.456   2.817  20.941  0.0275 -0.3890  0.2522
52406W        W95344  15.348   1.512  22.142 -0.0787  0.1772  0.2238
52407W        W95345  13.615   2.190  20.277 -0.2421 -0.1499 -0.0832
52408W        W95346  12.238   0.380  21.311 -0.0990  0.0784  0.0619
52409W        W95347  11.915   2.089  20.824 -0.0541  0.0968  0.1819
52410W        W95348  12.300   2.640  22.275  0.1168  0.2003  0.2417
52411W        W95349  11.891   3.920  23.179 -0.2219 -0.1787  0.2439
52412W        W95350  10.826  34.121  19.231 -0.1889 -0.0004  0.2302
52413W        W95351  14.313   1.156  21.129  0.0204  0.3145  0.0058
52414W        W95352  11.026   0.938  22.501 -0.3423  0.2117 -0.0011
52415W        W95353  13.305   0.421  22.055 -0.0224 -0.1667  0.2205
52416W        W95354  11.571   0.075  20.687 -0.3044  0.0940 -0.0611
52417W        W95355  13.776   2.840  21.000 -0.2711 -0.0344  0.0501
52418W        W95356  10.933   0.615  22.135 -0.2353 -0.0575 -0.1370
52419W        W95357  11.925   1.921  22.078 -0.1358  0.2509 -0.4306
52420W        W95358  12.634   0.766  20.181  0.0616 -0.0221  0.0305
52421W        W95359  13.938   1.396  23.838  0.0828 -0.1130  0.4401
52422W        W95360  12.759  34.650  19.923 -0.1163 -0.0483  0.1028
52423W        W95361  13.758   5.692  23.195  0.0825  0.0490 -0.1158
52424W        W95362  10.755   0.511  20.790 -0.0107 -0.2789 -0.3003
52425W        W95363  11.896   0.212  20.036 -0.2402 -0.0346  0.0277
52426W        W95364  12.179   0.653  20.893 -0.0891 -0.2015 -0.1901
52427W        W95365  11.668   0.716  22.012  0.1560 -0.0791 -0.0545
52428W        W95366  13.710   3.054  23.285  0.3634  0.0972  0.1709
52429W        W95367   9.723  34.505  21.069  0.1731  0.0866 -0.2930
52430W        W95368  14.055   1.130  20.689 -0.2785  0.0842 -0.0539
52431W        W95369  13.532   1.187  22.103 -0.0031 -0.0124 -0.1914
52432W        W95370  12.180   3.779  19.144 -0.2840 -0.0332 -0.0136
52433W        W95371  13.600   3.048  22.817 -0.1766 -0.0779  0.0256
52434W        W95372  13.409   4.937  20.314  0.1504  0.4180  0.1300
52435W        W95373  11.414  34.224  23.715  0.1362  0.0716  0.3290
52436W        W95374  12.981   4.508  24.100 -0.0357 -0.0474  0.2260
52437W        W95375  13.356   1.587  22.312  0.1742 -0.0531  0.3342
52438W        W95376  11.805   0.442  20.518  0.2863  0.0291  0.2463
52439W        W95377  11.649   1.412  20.278  0.0216  0.3020 -0.1468
52440W        W95378  11.463   2.266  21.192  0.1889 -0.1569 -0.1085
52441W        W95379  13.673   1.628  21.969 -0.2112 -0.2252 -0.3050
52442W        W95380  13.107   1.551  22.749  0.0610  0.1290  0.0620
52443W        W95381  12.135   4.290  19.010 -0.0190 -0.0014  0.0198
52444W        W95382  14.479  34.206  21.675 -0.2013  0.0448 -0.2992
52445W        W95383  11.872   3.644  22.686  0.3547  0.1504 -0.0555
52446W        W95384  10.285   2.168  23.627  0.2792  0.0927 -0.1770
52447W        W95385  11.595   1.494  19.440 -0.2085 -0.0589  0.3559
52448W        W95386  11.241   2.043  22.957 -0.0218  0.0571  0.0437
52449W        W95387  11.482   3.360  22.690  0.2257 -0.3783  0.0264
52450W        W95388  11.873   2.461  20.320  0.0466 -0.0612  0.0235
52451W        W95389  13.470   3.569  22.591  0.2263 -0.0140  0.2484
52452W        W95390  12.390   0.242  20.201 -0.1466  0.2171 -0.0694
52453W        W95391  13.759   3.372  22.249  0.0553 -0.0462 -0.2221
52454W        W95392  12.592  33.751  20.572  0.0539  0.1000  0.2184
52455W        W95393  15.027   0.565  19.678 -0.0830  0.0179 -0.2933
52456W        W95394  13.360  33.978  21.138  0.2996 -0.2394 -0.2964
52457W        W95395  12.046   0.979  22.391 -0.1229 -0.0391  0.3667
52458W        W95396  10.880   2.137  20.130  0.0964 -0.1639 -0.1395
52459W        W95397  11.002   2.250  20.718 -0.2968  0.1473  0.0046
52460W        W95398  10.975   0.504  21.256  0.0131  0.0097  0.0388
52461W        W95399  13.160   0.009  21.752 -0.2112 -0.5217  0.1927
52462W        W95400  11.258   0.956  22.049  0.0789 -0.1726 -0.0285
52463W        W95401  10.942   1.809  21.958 -0.2396 -0.1026 -0.0171
52464W        W95402  11.755   0.350  21.103  0.1787 -0.1180 -0.1818
52465W        W95403  13.707   3.038  20.550  0.0011  0.3199  0.2314
52466W        W95404  11.398  34.398  22.191  0.1009  0.0517 -0.1911
52467W        W95405  11.632   0.163  19.186  0.1516 -0.1063  0.0493
52468W        W95406  13.053   3.568  21.602  0.0463  0.1439 -0.0308
52469W        W95407  13.957   3.283  21.069  0.0034 -0.2652 -0.1011
52470W        W95408  12.218  33.466  20.718  0.1756  0.3588 -0.0605
52471W        W95409  12.099   3.266  24.427 -0.2528 -0.1093  0.2113
52472W        W95410  11.250   1.779  19.006  0.0112  0.0109  0.1767
52473W        W95411  12.354   1.412  25.544  0.3273  0.0035 -0.0958
52474W        W95412  12.025   1.166  23.286  0.0775 -0.0475 -0.0400
52475W        W95413   9.134   0.585  18.166 -0.0820 -0.2808  0.0339
52476W        W95414  12.383  34.556  21.128  0.1226  0.1729  0.2118
52477W        W95415  13.780   1.800  20.099  0.3453  0.0958  0.1665
52478W        W95416  12.816   3.502  20.363  0.0655  0.3275 -0.0456
52479W        W95417  12.296   1.327  21.522 -0.0589 -0.0708 -0.0761
52480W        W95418  12.567   3.419  24.449  0.2097  0.1272 -0.0634
52481W        W95419  10.278  34.132  22.144 -0.2337  0.0706  0.2211
52482W        W95420  13.387   1.865  20.645  0.1776  0.0804  0.2349
52483W        W95421  12.266   3.244  23.962 -0.1617  0.2756 -0.1534
52484W        W95422  14.135   3.050  22.764  0.1185  0.5609 -0.2675
52485W        W95423  14.329   1.659  22.729 -0.0050 -0.0193  0.0046
52486W        W95424  12.890   1.341  20.962  0.1005 -0.0513 -0.1985
52487W        W95425  11.877  33.769  22.974 -0.0599 -0.1718  0.0347
52488W        W95426  11.530   0.067  22.452  0.0100  0.0954  0.2147
52489W        W95427  13.895   2.166  22.541  0.2652 -0.0452 -0.3304
52490W        W95428  11.255  34.098  22.608  0.0632  0.1107  0.1522
52491W        W95429  12.379   0.114  22.184 -0.0136 -0.1182  0.0339
52492W        W95430  14.181   3.407  19.129  0.3975  0.1412  0.2969
52493W        W95431  10.501   0.025  20.626 -0.0368 -0.2307 -0.2945
52494W        W95432  12.446  33.390  20.208  0.2155 -0.2627  0.0160
52495W        W95433  13.468   1.915  22.631 -0.1911 -0.2660  0.3138
52496W        W95434  12.505   4.388  23.639 -0.2245  0.0773 -0.1865
52497W        W95435  12.942   1.980  22.446  0.1178  0.0993 -0.3293
52498W        W95436  11.728   0.826  20.841 -0.2647 -0.1199 -0.1241
52499W        W95437  14.032   2.730  19.692  0.1483 -0.1656 -0.0729
52500W        W95438  13.176   3.914  21.045  0.3552 -0.1266  0.2037
52501W        W95439  14.594   4.219  23.026  0.1718  0.2385 -0.2448
52502W        W95440  11.972   2.623  23.079 -0.0320  0.0051 -0.1724
52503W        W95441  13.028   2.906  21.687 -0.0004 -0.0311 -0.2286
52504W        W95442  11.156  33.232  21.688  0.1208 -0.1810 -0.0770
52505W        W95443  11.742   1.998  20.356 -0.0580 -0.0740 -0.0584
52506W        W95444  12.647   1.360  20.114 -0.0137 -0.2766 -0.0360
52507W        W95445  12.154   1.668  23.205  0.1017  0.0919 -0.0441
52508W        W95446  10.665   0.386  21.809 -0.3094 -0.0762  0.0623
52509W        W95447  13.815   0.046  19.771 -0.1491  0.0052 -0.3783
52510W        W95448  10.579   3.742  22.434 -0.2493 -0.0222 -0.1235
52511W        W95449  12.803   2.611  21.278  0.1850  0.0382 -0.2239
52512W        W95450  13.473   2.578  26.285 -0.3027 -0.0255 -0.1976
52513W        W95451  11.389   0.805  23.873 -0.2764 -0.1204 -0.1252
52514W        W95452  13.075   1.069  23.959 -0.0644  0.3476 -0.2037
52515W        W95453  12.364   2.770  23.311  0.1502 -0.1030  0.1322
52516W        W95454  11.669  34.441  24.400 -0.1062  0.1137 -0.0017
52517W        W95455  13.101   2.183  22.892 -0.0594 -0.0512 -0.0254
52518W        W95456  11.401   1.015  26.259  0.0985  0.0305  0.1907
52519W        W95457  13.432   4.064  24.288 -0.1963  0.0728 -0.1123
52520W        W95458  12.730   4.189  27.465 -0.1101  0.2520  0.2003
52521W        W95459  11.403   3.033  23.846  0.2395 -0.2077 -0.0257
52522W        W95460  11.724   1.915  26.233  0.0201 -0.2688  0.0567
52523W        W95461  12.049   3.042  25.618  0.0286  0.1380 -0.0440
52524W        W95462  12.001   0.894  23.834 -0.0044  0.0267 -0.3411
52525W        W95463  13.224   0.775  24.710 -0.1907 -0.0283 -0.1521
52526W        W95464  12.423   1.307  26.701  0.0493  0.0166 -0.1581
52527W        W95465  11.042   2.273  24.734  0.1387 -0.1363 -0.0078
52528W        W95466  11.025   1.116  25.930  0.0247 -0.1235  0.2214
52529W        W95467  11.584   1.169  25.839 -0.2457 -0.3194  0.0609
52530W        W95468  12.950   2.922  24.000  0.3248  0.2393  0.1860
52531W        W95469  11.069   0.933  27.252 -0.1236  0.1037 -0.3229
52532W        W95470  12.319  34.658  26.289 -0.1860  0.1097  0.1572
52533W        W95471  14.040   4.273  25.192  0.1677  0.1010  0.0325
52534W        W95472  11.148   1.712  23.753 -0.0809  0.2429 -0.2302
52535W        W95473  10.756   0.749  25.280  0.1941 -0.0491  0.0778
52536W        W95474  12.072   0.532  25.178  0.0067 -0.1862 -0.1815
52537W        W95475  13.654   0.797  26.535 -0.0001  0.0359  0.0070
52538W        W95476  13.882   1.615  24.330 -0.3992 -0.0583 -0.2702
52539W        W95477  12.138   3.682  24.733 -0.0392 -0.2407 -0.0834
52540W        W95478  14.072   3.364  26.411 -0.1044 -0.4993 -0.0955
52541W        W95479  12.439   1.649  28.791  0.3019 -0.0372 -0.3545
52542W        W95480  11.561   2.438  24.358 -0.3669  0.1142  0.3349
52543W        W95481  10.273   3.713  24.829 -0.1315  0.0099  0.0721
52544W        W95482  11.080   1.929  25.067 -0.2634  0.1177  0.1162
52545W        W95483  13.730   2.951  25.169 -0.0654 -0.1701 -0.0913
52546W        W95484  15.026   3.202  26.748  0.1836 -0.1428 -0.1333
52547W        W95485  12.012   3.251  28.430 -0.0571  0.0413  0.0436
52548W        W95486   9.490   2.278  25.700  0.1805 -0.0069 -0.0002
52549W        W95487  13.301   3.474  26.834  0.0079 -0.2379 -0.0865
52550W        W95488  13.025   1.976  27.202  0.1231  0.0726  0.0404
52551W        W95489  13.656   1.515  25.213 -0.0704  0.1415 -0.1142
52552W        W95490  11.532   1.968  25.307  0.0302 -0.2164  0.2022
52553W        W95491  11.339   3.670  23.030 -0.2165 -0.0457  0.3677
52554W        W95492  11.727   2.422  24.956 -0.4082 -0.0724 -0.1380
52555W        W95493  12.092   2.659  26.898 -0.2674  0.2912 -0.1961
52556W        W95494  10.937   3.073  26.353 -0.1210 -0.1264 -0.0536
52557W        W95495  14.002   1.218  27.285  0.1469 -0.2747 -0.2210
52558W        W95496  11.343   2.673  24.749 -0.1985  0.0043  0.1625
52559W        W95497  13.540   1.264  22.697  0.0631  0.0530  0.1309
52560W        W95498  11.794  34.672  23.638 -0.0539  0.0831  0.2465
52561W        W95499  14.200   0.987  24.593  0.3425  0.0993  0.0657
52562W        W95500  13.081   0.231  25.307  0.3919 -0.0699 -0.1961
52563W        W95501  11.725   2.930  25.982 -0.2919 -0.1325  0.1809
52564W        W95502  13.143   0.538  23.868  0.0134 -0.0264 -0.0473
52565W        W95503  14.571   2.104  27.679 -0.2197 -0.1047 -0.6260
52566W        W95504  10.896   1.992  25.516  0.0021  0.3336  0.1302
52567W        W95505  11.720   0.916  25.296  0.0390 -0.0553 -0.1067
52568W        W95506  12.082   2.479  26.391  0.2617  0.0499  0.2858
52569W        W95507  10.981   1.598  24.758  0.2325 -0.0560 -0.0481
52570W        W95508  13.614   3.844  23.883 -0.0548 -0.0369  0.1823
52571W        W95509  13.468   2.603  25.407  0.0434 -0.1453  0.1013
52572W        W95510  13.213   3.103  23.562 -0.0197  0.2686  0.2937
52573W        W95511  10.863  34.465  25.065 -0.2466  0.0000  0.2094
52574W        W95512   8.945   2.892  26.533 -0.1292  0.1820  0.3503
52575W        W95513  11.246   1.867  26.923 -0.3385 -0.0467 -0.0681
52576W        W95514  11.158  34.426  24.107 -0.0391  0.3299 -0.1511
52577W        W95515  14.989   2.707  26.715  0.2009  0.0111  0.3011
52578W        W95516   9.781   2.935  26.895 -0.0293  0.0657 -0.1054
52579W        W95517  14.266  34.509  25.583  0.3170  0.1508  0.1584
52580W        W95518  10.724   2.473  25.029  0.0586 -0.5061 -0.1195
52581W        W95519  13.608   3.146  26.666 -0.3453  0.0155 -0.0728
52582W        W95520  14.070   3.803  24.151 -0.0129 -0.0984  0.4408
52583W        W95521  13.023   0.829  26.067  0.1432 -0.1707  0.0769
52584W        W95522  13.873  34.314  25.338 -0.1294  0.0439 -0.2757
52585W        W95523  12.208   2.171  23.184  0.1457  0.3625  0.2299
52586W        W95524  12.665   0.766  23.930 -0.1830 -0.0022  0.1200
52587W        W95525  14.172   3.241  26.915  0.0634  0.0048  0.1862
52588W        W95526  14.405   1.450  23.620 -0.0517  0.6529  0.0473
52589W        W95527  11.657   2.781  26.453 -0.0779 -0.2020  0.5079
52590W        W95528  12.214   0.863  27.529  0.1424  0.1358 -0.0758
52591W        W95529  12.187   3.433  27.956  0.1160  0.3041 -0.1032
52592W        W95530  10.510   5.702  23.143 -0.1381  0.1448 -0.1694
52593W        W95531   8.858   2.677  25.763  0.1614 -0.0164 -0.0411
52594W        W95532  10.212   2.618  23.315  0.2661  0.0907 -0.2031
52595W        W95533  10.897   0.649  25.738  0.1687  0.1531 -0.0177
52596W        W95534  11.582   2.439  26.075 -0.0010  0.3607  0.1144
52597W        W95535  13.129  34.448  24.839  0.0612  0.0727  0.0883
52598W        W95536  10.762   0.423  26.171  0.0379  0.1549  0.0113
52599W        W95537  14.948  34.223  24.521 -0.2687 -0.2764  0.2992
52600W        W95538  12.090   2.466  25.811  0.1308 -0.1839  0.0134
52601W        W95539  13.118   4.325  24.589 -0.1789 -0.0175  0.0835
52602W        W95540  13.599   2.228  22.964  0.0544 -0.1694  0.0195
52603W        W95541  11.869   2.930  23.619 -0.0467 -0.0995  0.3717
52604W        W95542  10.760   1.409  26.284 -0.1447 -0.2435  0.0715
52605W        W95543   9.881   1.894  25.504  0.0634  0.1549 -0.0500
52606W        W95544  10.913   1.377  27.140 -0.2258  0.2698 -0.1536
52607W        W95545  11.191   0.930  24.366  0.0363  0.0245 -0.2459
52608W        W95546  14.337   1.724  28.530 -0.0541  0.0637 -0.0774
52609W        W95547  10.962   1.055  23.884  0.2323  0.1047  0.1601
52610W        W95548  12.788   0.992  24.406  0.4697 -0.3563  0.1755
52611W        W95549  10.855   1.533  25.220  0.0412  0.1982 -0.0920
52612W        W95550  10.081   2.031  25.020 -0.2080 -0.0806  0.1231
52613W        W95551  12.208   1.454  28.274  0.1987  0.0868  0.0167
52614W        W95552  14.981   5.384  25.107 -0.2914 -0.0035  0.0428
52615W        W95553  14.643   3.368  27.066  0.0969 -0.0221 -0.1756
52616W        W95554  13.259   1.974  24.231 -0.0816  0.1245 -0.1564
52617W        W95555  11.209   1.106  25.424  0.3343  0.0256 -0.3011
52618W        W95556  11.275  34.355  24.709 -0.0100  0.0340  0.1771
52619W        W95557  10.535   3.683  25.268  0.2545  0.1406 -0.2273
52620W        W95558  11.841   3.333  25.177 -0.1010 -0.1057  0.1020
52621W        W95559  12.003   0.967  24.667 -0.1642 -0.2912 -0.3919
52622W        W95560  14.112   3.421  25.889 -0.0556 -0.1166 -0.1480
52623W        W95561  13.252   2.590  23.126  0.1888  0.0569  0.1336
52624W        W95562   9.809   2.745  25.811  0.1129  0.0973 -0.2297
52625W        W95563  13.713   1.337  24.732  0.0724 -0.2562  0.1487
52626W        W95564  13.946   1.619  25.999  0.3275  0.0763  0.2144
52627W        W95565  10.589   1.953  24.934  0.1019  0.1085  0.2316
52628W        W95566  12.174   1.283  22.796  0.1347  0.5430  0.1331
52629W        W95567  12.777   4.344  25.039  0.4169  0.0097  0.1119
52630W        W95568  11.125   4.101  23.719  0.2474 -0.0002 -0.1908
52631W        W95569   9.551   3.314  24.666 -0.0725  0.1055 -0.0330
52632W        W95570  12.953   2.698  23.530 -0.3201  0.3854 -0.0516
52633W        W95571  12.494   1.599  26.010  0.1786 -0.0174  0.1642
52634W        W95572  10.446   1.555  27.110 -0.1525 -0.1868 -0.0749
52635W        W95573  11.871   0.744  26.118 -0.1115  0.1059  0.1724
52636W        W95574  10.504   0.755  23.866  0.0846 -0.1375  0.1019
52637W        W95575  10.180   2.528  26.809 -0.0313 -0.0203  0.0021
52638W        W95576  12.839   1.185  25.249 -0.0004 -0.0057  0.1863
52639W        W95577  13.856   1.707  22.971  0.1702  0.1379 -0.2086
52640W        W95578  13.774   1.605  27.116  0.0866  0.2908  0.1020
52641W        W95579  13.863   1.940  23.946  0.1382 -0.3023 -0.0776
52642W        W95580  13.466   0.884  23.559  0.0310 -0.1315  0.1600
52643W        W95581  13.536   0.642  25.143 -0.0382 -0.1901 -0.1026
52644W        W95582  10.154   1.136  26.930 -0.1941 -0.0127 -0.2320
52645W        W95583  12.663   4.527  24.502 -0.1543  0.0600  0.0606
52646W        W95584  11.957   1.507  24.285 -0.2109  0.0073  0.1073
52647W        W95585  12.597   1.242  23.977  0.2159 -0.0281  0.3218
52648W        W95586  12.337   2.770  23.831  0.0101 -0.0226 -0.0105
52649W        W95587  10.767   1.889  26.316  0.1227 -0.2480  0.1580
52650W        W95588  15.076   2.969  26.328 -0.2009  0.0196  0.3658
52651W        W95589  13.474   2.475  24.158 -0.1561 -0.3247  0.1488
52652W        W95590  11.215   0.138  25.058 -0.1118 -0.1424  0.1094
52653W        W95591  11.737   0.067  24.794 -0.1246 -0.0526 -0.1402
52654W        W95592  12.483   0.874  25.486  0.0592 -0.3536 -0.1184
52655W        W95593  11.323   4.335  24.697 -0.5404  0.0221 -0.0937
52656W        W95594  13.672   1.152  25.566 -0.0298  0.5529  0.3151
52657W        W95595  14.714   0.045  24.574  0.3869  0.0843 -0.1656
52658W        W95596  12.651  33.278  26.257 -0.2243 -0.2123 -0.1739
52659W        W95597  14.298   1.583  26.961  0.0107  0.0009  0.1114
52660W        W95598  12.305   1.059  25.070  0.0815  0.0828 -0.1129
52661W        W95599  11.929   2.866  24.677 -0.1658  0.2232 -0.2537
52662W        W95600  11.715   2.222  23.280 -0.2318 -0.2015  0.1950
52663W        W95601  11.857   0.162  26.803  0.0302 -0.1973  0.0942
52664W        W95602  10.753   1.955  27.165  0.0135  0.1204 -0.0322
52665W        W95603  11.664   3.663  26.770 -0.1831  0.2466 -0.1944
52666W        W95604  12.998   2.614  26.039  0.1650  0.1334 -0.2443
52667W        W95605  11.710   1.402  26.293 -0.0945  0.2322 -0.1307
52668W        W95606  12.377   0.354  26.621  0.0240 -0.0501 -0.1434
52669W        W95607  13.188   0.222  23.462 -0.0550  0.0906  0.1371
52670W        W95608  11.392   3.355  23.450 -0.0185  0.0016  0.0824
52671W        W95609  11.776   2.006  22.752  0.0355  0.1488  0.2815
52672W        W95610  12.955   1.376  24.774 -0.1078 -0.1298  0.2849
52673W        W95611  11.049   3.195  24.628 -0.1290 -0.0199  0.0385
52674W        W95612  11.528   2.028  23.747 -0.1154 -0.0168 -0.0606
52675W        W95613  13.512   2.086  26.651  0.0944  0.0035 -0.0545
52676W        W95614  11.223   2.426  25.241 -0.1374 -0.0908 -0.0540
52677W        W95615  12.320  34.366  26.669 -0.2446 -0.0955  0.3313
52678W        W95616  11.404   3.360  25.776 -0.2030  0.1952  0.0873
52679W        W95617  11.590   1.369  23.843  0.0080 -0.3245  0.0136
52680W        W95618  10.724   0.721  24.373 -0.2387 -0.2737  0.0062
52681W        W95619  12.839   1.247  25.752  0.2363  0.0632  0.1726
52682W        W95620  14.107   3.319  23.898  0.3714  0.2143 -0.2916
52683W        W95621  12.292   0.473  25.720  0.2892 -0.0486  0.1626
52684W        W95622  11.771   0.462  25.608  0.1576 -0.1291 -0.1058
52685W        W95623  10.873   3.147  25.809  0.0324 -0.0548 -0.1613
52686W        W95624  12.821   3.588  25.984  0.3347 -0.1008  0.0434
52687W        W95625  14.667   0.654  24.225 -0.2394 -0.1011 -0.2891
52688W        W95626  13.081   2.168  26.286  0.1729  0.1314 -0.0511
52689W        W95627  12.933   2.078  27.695  0.2872 -0.0783 -0.0030
52690W        W95628  11.513   1.558  24.481 -0.1405 -0.1930 -0.1967
52691W        W95629  12.758   0.838  26.485 -0.2278  0.3315 -0.2419
52692W        W95630  12.474   0.169  24.651  0.1098 -0.0156 -0.2549
52693W        W95631  10.611   2.499  24.151  0.1331  0.0544 -0.2226
52694W        W95632  12.908   3.108  26.764 -0.0783  0.2631  0.0903
52695W        W95633   9.949   1.648  22.902  0.0398  0.0037 -0.1460
52696W        W95634  10.741   2.711  26.097 -0.0726  0.1893 -0.2186
52697W        W95635  11.451   1.433  27.133 -0.0317  0.0822 -0.1351
52698W        W95636  13.174   1.141  26.464  0.5000  0.0516 -0.2417
52699W        W95637  13.385   1.388  23.571  0.2058  0.1882  0.0116
52700W        W95638  11.587  34.003  24.144 -0.0184  0.0376  0.2295
52701W        W95639  11.242   0.619  25.282  0.0798  0.1177 -0.0213
52702W        W95640  13.505   1.719  25.775  0.0132  0.1368 -0.1198
52703W        W95641  12.851   0.322  26.236  0.2333 -0.0413 -0.1851
52704W        W95642  11.483   3.913  27.167 -0.3337  0.0208 -0.0680
52705W        W95643  11.395   0.723  25.842  0.0294 -0.3788  0.2453
52706W        W95644  13.572   4.175  25.413  0.1487 -0.0090 -0.1159
52707W        W95645  12.981   2.767  25.470  0.2949  0.1498 -0.1429
52708W        W95646  11.237   1.125  23.331  0.1253 -0.2893  0.0191
52709W        W95647  10.519   0.924  25.986 -0.1745  0.1213  0.3087
52710W        W95648  11.779   2.100  25.720 -0.0043 -0.0165 -0.0465
52711W        W95649  12.381   0.171  27.101 -0.2172 -0.0211 -0.0373
52712W        W95650  10.267   2.252  26.371 -0.1199  0.0289  0.4415
52713W        W95651  11.312   3.676  23.883 -0.2159 -0.0753  0.0179
52714W        W95652  11.260   1.998  25.866 -0.0596  0.1091  0.0013
52715W        W95653  14.427   0.552  24.678  0.2793  0.0836 -0.2921
52716W        W95654  11.358   3.519  25.163  0.0239  0.1355 -0.1964
52717W        W95655  13.211  33.823  23.397  0.1401 -0.0091 -0.0842
52718W        W95656  14.700   1.751  26.629 -0.0599  0.0110  0.1487
52719W        W95657  13.100   2.323  23.830 -0.0699 -0.3681  0.1606
52720W        W95658  14.884  34.665  27.399 -0.1793 -0.0776  0.4505
52721W        W95659  12.820  34.652  26.729 -0.0794 -0.3943  0.1522
52722W        W95660  12.232   1.928  24.647 -0.1346  0.1625  0.0212
52723W        W95661  10.693   0.972  26.850  0.0087 -0.2362 -0.0690
52724W        W95662  12.541   2.533  27.757  0.1086  0.1168  0.2588
52725W        W95663  10.159   2.139  27.167  0.4172 -0.0460 -0.0712
52726W        W95664  12.588   0.117  25.816  0.1090  0.1594 -0.0552
52727W        W95665  11.853   0.412  23.961  0.0469 -0.1682 -0.1027
52728W        W95666  11.180   2.674  26.587  0.0212  0.1567  0.1210
52729W        W95667  13.465   2.364  25.833 -0.2390  0.1211 -0.0532
52730W        W95668  11.610   2.036  24.696 -0.1009 -0.0607  0.0271
52731W        W95669  13.154   3.083  26.329  0.0666 -0.0186 -0.4684
52732W        W95670  11.126   2.333  26.221 -0.0408 -0.0638  0.2638
52733W        W95671  12.523   2.305  23.632  0.1771 -0.1749  0.2578
52734W        W95672  11.118   2.214  23.488  0.6564  0.1074  0.3156
52735W        W95673  12.571   2.283  26.297  0.1311  0.0778  0.0766
52736W        W95674  10.073   1.098  27.653 -0.0352  0.0212  0.0402
52737W        W95675  12.355   2.638  24.987 -0.0595  0.1161 -0.2237
52738W        W95676  12.078   0.040  25.208  0.1915 -0.1604  0.0332
52739W        W95677  14.051   0.474  26.641  0.5231 -0.0073  0.2152
52740W        W95678  12.374  33.581  25.927 -0.1944  0.1222  0.2973
52741W        W95679  13.225   0.898  25.609 -0.1431 -0.3414  0.1375
52742W        W95680   9.886   1.711  26.285  0.1138  0.1835  0.1620
52743W        W95681  14.419   2.530  25.650 -0.0918  0.1006  0.0381
52744W        W95682  13.529   0.683  24.263  0.1255  0.0797 -0.2861
52745W        W95683  13.547   1.105  27.098  0.0295  0.1522  0.0545
52746W        W95684  13.778   1.725  23.468 -0.0189 -0.2705  0.0689
52747W        W95685  12.079   1.972  23.637 -0.2104  0.2253  0.1740
52748W        W95686  10.477   1.319  25.059  0.2132  0.2717 -0.0315
52749W        W95687  12.448   0.836  26.060 -0.1173 -0.2451 -0.1860
52750W        W95688  11.755   1.960  24.182 -0.3219  0.2242  0.0084
52751W        W95689  12.175  33.903  26.369  0.1165  0.0907 -0.5345
52752W        W95690  12.670   2.526  24.080 -0.0337 -0.1699  0.0495
52753W        W95691  12.644   1.834  23.035 -0.0910  0.2054  0.3630
52754W        W95692  12.956   1.645  23.804  0.0018  0.1134  0.1379
52755W        W95693  10.721  34.127  24.745  0.2029  0.1787  0.0103
52756W        W95694  13.055   2.653  26.586  0.3387  0.1220  0.0246
52757W        W95695  10.477   0.491  23.353  0.0396  0.1287 -0.2310
52758W        W95696  12.967   2.501  22.308  0.2512 -0.3190 -0.3080
52759W        W95697  13.759   3.045  26.194  0.1997 -0.0278 -0.1666
52760W        W95698  14.113   2.345  27.565  0.0595 -0.2078 -0.1206
52761W        W95699  13.547   0.054  24.083 -0.0094  0.2375 -0.0010
52762W        W95700  13.340   1.696  26.302 -0.1311  0.0234 -0.0381
52763W        W95701  11.056   2.478  25.719 -0.2066  0.3189  0.0423
52764W        W95702  13.908   0.726  25.492 -0.0964 -0.1342  0.2261
52765W        W95703  13.020   3.909  26.917  0.1599  0.2193 -0.1621
52766W        W95704   9.507   2.093  26.412 -0.2627 -0.1375  0.0224
52767W        W95705  12.127   2.387  25.327  0.0566  0.1720 -0.0387
52768W        W95706  12.788   0.481  26.869 -0.2002  0.3778 -0.0261
52769W        W95707  13.207   1.703  25.060  0.1620  0.2850 -0.0602
52770W        W95708  12.790   2.078  24.104  0.3169  0.3020  0.0585
52771W        W95709  14.635   1.278  26.816  0.0278 -0.1233  0.0762
52772W        W95710  13.677   2.035  26.157 -0.3054  0.3021 -0.4504
52773W        W95711  10.396   2.991  25.823 -0.2825 -0.0493 -0.4064
52774W        W95712  12.489   2.818  25.860 -0.4272 -0.2214 -0.0263
52775W        W95713  12.894   1.492  24.259 -0.4263  0.0449 -0.0253
52776W        W95714  12.822   2.893  24.894  0.2192 -0.0384 -0.0275
52777W        W95715  10.280   0.319  24.621 -0.4769 -0.2038  0.0117
52778W        W95716  12.926   1.501  26.782  0.3675 -0.0294  0.0906
52779W        W95717  11.090   2.577  24.321 -0.1782  0.0365  0.2685
52780W        W95718  10.742   0.309  24.882 -0.1466 -0.1699  0.0544
52781W        W95719  10.975   2.884  23.798 -0.1012  0.1037 -0.3168
52782W        W95720  12.435   1.956  25.622 -0.2159  0.0996 -0.0843
52783W        W95721   9.373   2.106  26.956  0.1097 -0.1223 -0.1959
52784W        W95722  10.639   3.025  24.209 -0.0161 -0.1743  0.0294
52785W        W95723  11.338   2.487  23.826 -0.2072  0.0501 -0.5492
52786W        W95724  10.203   2.773  24.498  0.0219 -0.1113  0.1711
52787W        W95725  13.311   4.611  26.192 -0.2209 -0.0592  0.0640
52788W        W95726  12.380   0.373  24.156  0.1929 -0.1904 -0.3621
52789W        W95727  12.537   3.000  25.373 -0.2333 -0.0661  0.1306
52790W        W95728  10.481   3.022  23.716  0.0349 -0.1053 -0.0137
52791W        W95729  13.574   3.355  23.797  0.1341 -0.2627  0.0282
52792W        W95730  10.552   4.619  25.326 -0.1232  0.3079  0.1414
52793W        W95731  13.647   2.661  26.878  0.1822 -0.1672  0.1534
52794W        W95732  14.029   0.884  23.697 -0.0222  0.2058  0.2093
52795W        W95733  12.485   1.556  24.945  0.2625  0.0597  0.2370
52796W        W95734  14.398  34.222  25.171  0.1033  0.1049  0.0121
52797W        W95735  13.461   1.928  27.986 -0.1303  0.3651  0.3488
52798W        W95736  12.174   1.658  26.429 -0.1435  0.0476  0.3398
52799W        W95737  10.914  34.623  22.727 -0.4496  0.2944 -0.3217
52800W        W95738  10.474   2.071  26.761 -0.0307 -0.0272  0.2326
52801W        W95739  14.744   1.320  26.265 -0.0394  0.1189  0.0390
52802W        W95740  10.413   3.072  26.422  0.2908 -0.0871 -0.3869
52803W        W95741  15.236   4.851  23.645 -0.2574  0.2287  0.2115
52804W        W95742  11.969   0.125  24.352 -0.1612 -0.1953 -0.0341
52805W        W95743  12.062   0.956  25.712 -0.0290 -0.1359  0.0891
52806W        W95744  14.654   0.792  26.526 -0.2895 -0.2220 -0.1710
52807W        W95745  13.150   3.388  24.077 -0.0172 -0.2702 -0.0035
52808W        W95746  12.899   0.507  25.677  0.3210 -0.1489  0.1225
52809W        W95747  11.505   4.206  25.294 -0.1755  0.2187 -0.3223
52810W        W95748  12.374   3.396  25.894  0.1633  0.1665  0.2101
52811W        W95749  12.913   3.163  25.764 -0.1131  0.1696  0.3281
52812W        W95750  10.349   0.448  25.167  0.0920 -0.3208  0.0379
52813W        W95751  14.554   0.914  25.953 -0.2092 -0.1083  0.1363
52814W        W95752  12.005   2.054  26.632 -0.1561  0.0858  0.1784
52815W        W95753  14.109   1.168  25.846 -0.0293 -0.0301  0.0052
52816W        W95754  12.214   2.019  26.095 -0.1934  0.2383 -0.0416
52817W        W95755  13.898   2.386  23.780  0.0712  0.0351 -0.0561
52818W        W95756  12.920   2.452  25.089 -0.0123 -0.2421 -0.0770
52819W        W95757  12.987   1.815  25.968 -0.0559 -0.1463  0.1667
52820W        W95758  11.871   1.514  22.447 -0.1834  0.1829  0.0403
52821W        W95759  13.928   1.731  26.634  0.0182  0.0734 -0.0052
52822W        W95760  12.541   1.718  23.553 -0.0227  0.1329  0.1021
52823W        W95761  12.701   3.466  27.852 -0.2775 -0.3174 -0.1862
52824W        W95762  10.443   0.505  25.693 -0.0860 -0.0421 -0.0908
52825W        W95763  11.900   1.466  24.850 -0.1419 -0.1232  0.0274
52826W        W95764  11.635   2.531  25.551  0.0030  0.1202 -0.1472
52827W        W95765  12.749   1.335  26.315  0.0625 -0.0727  0.2144
52828W        W95766  15.702   2.483  26.427  0.3947 -0.0397  0.1004
52829W        W95767  10.592  34.555  23.490  0.0830 -0.0309 -0.3341
52830W        W95768  13.001   3.205  24.557 -0.1916 -0.0578  0.1416
52831W        W95769  12.986   2.236  25.621  0.0154  0.1791  0.3487
52832W        W95770  11.330   4.534  25.720  0.0676 -0.0233  0.1907
52833W        W95771  13.342   2.770  24.927  0.0851 -0.1345 -0.0784
52834W        W95772  12.723   3.487  25.491  0.0541 -0.1434  0.0030
52835W        W95773  10.892   0.485  26.928 -0.0085 -0.0361  0.2298
52836W        W95774  14.782   4.712  26.888  0.2174 -0.1694  0.0117
52837W        W95775  14.677   1.573  24.929 -0.0788 -0.0849  0.1398
52838W        W95776  13.073   0.006  23.943  0.0922  0.1758  0.0067
52839W        W95777   9.958   1.641  26.942 -0.0877  0.0204 -0.1337
52840W        W95778  11.494   3.001  25.464 -0.1414  0.1734 -0.1706
52841W        W95779  14.084   1.662  25.526 -0.1875  0.2626  0.1094
52842W        W95780  14.101   0.916  26.331  0.0489 -0.2692 -0.4078
52843W        W95781  13.469   2.748  23.756 -0.2112 -0.1905 -0.0256
52844W        W95782  15.714   1.007  26.598  0.2092  0.0624  0.0345
52845W        W95783  12.380   2.267  26.821 -0.3694  0.0189  0.2774
52846W        W95784  11.908   3.197  26.773  0.3647 -0.1061  0.2990
52847W        W95785  11.164  34.230  21.741 -0.0758 -0.1034 -0.3799
52848W        W95786  12.879   2.181  26.720  0.0445  0.2094  0.1918
52849W        W95787  11.829   2.410  23.749 -0.0006 -0.1399  0.2604
52850W        W95788  13.080   4.097  25.429  0.1926 -0.2247  0.1044
52851W        W95789  12.557   2.281  24.558 -0.2096  0.2069 -0.2365
52852W        W95790  12.581   0.383  25.244  0.1001  0.3418 -0.1375
52853W        W95791  13.551   3.560  24.342  0.0912  0.2231  0.0940
52854W        W95792  13.288  34.692  26.466 -0.0074 -0.0286  0.1834
52855W        W95793  14.466   1.136  25.067 -0.2200  0.1127 -0.1866
52856W        W95794  13.300   1.156  24.432 -0.0694  0.1702 -0.0973
52857W        W95795  10.892   1.648  27.560 -0.1398 -0.2659 -0.0914
52858W        W95796  10.976   1.239  22.967  0.0544  0.0757  0.2289
52859W        W95797  11.756   1.450  22.954  0.1264  0.1914  0.1758
52860W        W95798  10.968   3.543  25.510  0.0185 -0.1761 -0.1512
52861W        W95799  13.658   0.358  26.104  0.0902 -0.0439 -0.3359
52862W        W95800  12.130   0.864  26.540  0.1137 -0.2725 -0.1835
52863W        W95801  10.213   1.312  25.593 -0.1966 -0.0507  0.1234
52864W        W95802  11.591   0.010  25.352  0.3317 -0.1434 -0.0303
52865W        W95803  13.991   2.141  23.270  0.2159  0.2776 -0.0340
52866W        W95804  10.710   1.168  25.482 -0.2034 -0.1574  0.1761
52867W        W95805  11.135  32.864  24.241  0.2065 -0.1736 -0.0729
52868W        W95806  11.919   1.650  25.906 -0.1846  0.2072 -0.1447
52869W        W95807  13.347   2.964  24.340 -0.0377 -0.0207 -0.0893
52870W        W95808  12.288   0.824  24.279 -0.0534  0.1658 -0.0915
52871W        W95809  15.399   2.656  28.045 -0.2042 -0.0885  0.0739
52872W        W95810   9.609   3.991  25.074 -0.2121  0.0692  0.1051
52873W        W95811  11.310   2.317  27.875 -0.4550 -0.1415  0.0714
52874W        W95812  11.757   0.597  26.638 -0.0017 -0.1359  0.0777
52875W        W95813  10.127   0.078  23.574 -0.2394 -0.1712 -0.1248
52876W        W95814  12.431   1.364  24.424 -0.0852 -0.0894 -0.0390
52877W        W95815  14.889   3.017  25.522  0.5156  0.2200  0.0537
52878W        W95816  12.896   3.724  24.272  0.0497 -0.1741  0.0632
52879W        W95817  12.553   2.485  25.507  0.2174  0.1983 -0.1736
52880W        W95818  12.526   2.723  26.616 -0.1032  0.3259  0.0538
52881W        W95819  10.569   0.281  28.103 -0.4286  0.0643  0.0731
52882W        W95820  12.988   2.024  23.400  0.0434  0.0095  0.0133
52883W        W95821  12.500   1.797  26.806 -0.0414 -0.0248 -0.1828
52884W        W95822  14.020   4.106  24.539 -0.2214 -0.0330 -0.1003
52885W        W95823  15.421   0.568  25.902 -0.0891  0.1914  0.2138
52886W        W95824  12.894   0.481  24.308  0.4255 -0.1254  0.1649
52887W        W95825  10.387   1.045  26.457  0.0215 -0.0595 -0.2212
52888W        W95826   9.904   2.170  26.030  0.0126  0.1052 -0.0101
52889W        W95827  14.358   2.318  24.958  0.0661  0.3495 -0.1543
52890W        W95828  13.466  34.166  24.229 -0.0818 -0.0186 -0.2824
52891W        W95829  12.988   0.692  25.165  0.1401  0.0778  0.0023
52892W        W95830  11.412   1.475  25.067 -0.2566  0.1329  0.3675
52893W        W95831  11.279   1.906  26.401 -0.0893 -0.1561  0.2034
52894W        W95832  11.595   0.583  24.360 -0.1141 -0.1212 -0.1601
52895W        W95833  13.255   1.280  25.970 -0.2453 -0.2110  0.0918
52896W        W95834  12.364   3.169  24.890  0.0645 -0.2109 -0.2071
52897W        W95835  13.218   2.377  26.996  0.0679  0.2049 -0.1004
52898W        W95836  12.049   0.494  24.644 -0.1109  0.0089  0.0158
52899W        W95837  13.355   3.417  24.895  0.2362  0.4554 -0.0082
52900W        W95838  13.387   3.575  27.368 -0.2441 -0.0991 -0.0799
52901W        W95839  13.423   2.953  27.505  0.1001  0.1133  0.3729
52902W        W95840  12.350   3.848  25.605 -0.1322 -0.2832  0.2260
52903W        W95841  13.177   3.947  24.973  0.0926  0.0913 -0.3467
52904W        W95842  12.020  34.471  27.093 -0.3138  0.0487 -0.0628
52905W        W95843  11.431   1.086  24.811 -0.2003 -0.0925  0.2280
52906W        W95844  11.852   1.346  25.397  0.5787 -0.2734  0.0406
52907W        W95845  14.255   1.859  24.667  0.0883 -0.2472  0.0856
52908W        W95846  12.341  34.242  26.023 -0.0247 -0.1584 -0.0587
52909W        W95847  12.920   0.961  23.461  0.0655 -0.0050 -0.0699
52910W        W95848  11.472   3.807  25.570 -0.1970 -0.0334  0.1648
52911W        W95849  12.064   1.793  25.292  0.0503 -0.2834 -0.1905
52912W        W95850  11.765   1.703  30.824 -0.2622 -0.0978  0.0970
52913W        W95851  11.633   0.503  28.679  0.3345  0.0346 -0.1226
52914W        W95852  11.847   0.825  27.126 -0.0384 -0.1362  0.0405
52915W        W95853  15.386   1.745  28.449 -0.0916  0.1251  0.1494
52916W        W95854  11.613   0.995  28.739  0.1588  0.1178 -0.4029
52917W        W95855  13.017   3.018  27.749  0.0736  0.0072 -0.1622
52918W        W95856  11.061   0.399  30.651 -0.0211 -0.1320 -0.0489
52919W        W95857  13.084   3.568  30.354 -0.1427 -0.1195  0.0461
52920W        W95858  14.576   2.830  28.279 -0.3352  0.2986  0.0402
52921W        W95859  13.665   1.305  26.325  0.0667 -0.3489 -0.1425
52922W        W95860  12.000   2.429  28.701  0.1206 -0.3563 -0.1163
52923W        W95861  13.234   2.665  30.470 -0.2114  0.0086  0.1225
52924W        W95862  11.567   0.007  27.234 -0.0158  0.0750  0.2552
52925W        W95863  10.377   0.645  30.004  0.1537  0.4488 -0.3592
52926W        W95864  14.293   2.465  29.664  0.0970 -0.1502  0.1759
52927W        W95865   9.442   0.665  28.614 -0.2681  0.1491  0.1690
52928W        W95866  11.987   1.221  30.640  0.0201  0.0275  0.1888
52929W        W95867  12.466   1.165  28.609 -0.0393  0.0799  0.2311
52930W        W95868  13.582   4.861  29.926  0.1095  0.2761 -0.0242
52931W        W95869  11.652   1.724  29.405  0.0169  0.1130 -0.1290
52932W        W95870  13.945   0.903  30.683  0.1851  0.0776  0.4426
52933W        W95871  12.046   2.926  28.901  0.2165  0.0204  0.4054
52934W        W95872   9.757   1.147  27.244  0.0057  0.2045 -0.1141
52935W        W95873  11.235   1.679  30.123 -0.0118  0.1424 -0.0188
52936W        W95874  11.554   1.409  30.447 -0.0774 -0.0102  0.1541
52937W        W95875  13.540   1.978  28.572 -0.0422 -0.1270 -0.0526
52938W        W95876  12.897   1.904  28.788 -0.3395 -0.1518  0.1209
52939W        W95877  14.330   3.065  29.471 -0.0108  0.0582 -0.1078
52940W        W95878  13.278   3.475  27.843 -0.2701  0.0557  0.1505
52941W        W95879  13.615   1.903  30.104  0.1421 -0.0560  0.1550
52942W        W95880  11.604   1.923  28.762 -0.0108  0.0273  0.0076
52943W        W95881  11.172   3.387  29.313  0.1987 -0.0246  0.1617
52944W        W95882  12.042   2.481  27.389 -0.0302 -0.0300  0.2380
52945W        W95883  13.909   3.471  28.723  0.2730  0.0320  0.5520
52946W        W95884  12.730   4.485  30.099 -0.1336 -0.0392  0.1894
52947W        W95885  12.150   5.129  30.696 -0.0874  0.2240 -0.2044
52948W        W95886  10.774   3.147  26.821  0.0280  0.1387  0.1640
52949W        W95887  11.652   3.120  30.229  0.0337  0.0595 -0.0535
52950W        W95888  12.578   2.809  31.887 -0.1701 -0.2104 -0.0056
52951W        W95889  12.284   1.473  31.007  0.2320  0.3249  0.2637
52952W        W95890  12.961   2.937  29.242  0.0677 -0.0935 -0.0715
52953W        W95891  12.520   3.079  29.002 -0.0520  0.0136 -0.1866
52954W        W95892  12.659   1.930  30.129 -0.2816  0.3133  0.0940
52955W        W95893  11.962   2.145  30.011 -0.0992  0.4488 -0.0068
52956W        W95894  11.132   2.627  28.548  0.1158  0.0996  0.0095
52957W        W95895  13.175   0.882  30.063  0.2149  0.0234 -0.2066
52958W        W95896  11.478   2.738  28.884 -0.2536 -0.2189 -0.3718
52959W        W95897  13.953   1.738  28.852  0.0018  0.0915  0.1393
52960W        W95898  11.735   0.738  27.666 -0.0957 -0.1396  0.0256
52961W        W95899  13.158   0.287  27.474  0.0402  0.1260  0.0992
52962W        W95900  12.284   0.720  28.817 -0.0597  0.0491 -0.0244
52963W        W95901  11.648   4.266  30.504 -0.0909 -0.1734  0.0695
52964W        W95902  12.234   0.576  29.962  0.0778 -0.1460  0.0225
52965W        W95903  13.363   4.084  30.577 -0.1791  0.0042 -0.1149
52966W        W95904  11.783   2.779  28.404  0.2637  0.0157  0.2601
52967W        W95905  13.249   1.252  30.368 -0.1139  0.2631  0.1013
52968W        W95906  11.610   2.027  30.436 -0.0359  0.1428 -0.1288
52969W        W95907  10.147   1.470  28.611 -0.2457 -0.0729  0.0862
52970W        W95908  13.879   2.793  27.730  0.0531  0.1022 -0.1815
52971W        W95909  14.279   2.597  28.003  0.1563  0.3939 -0.2616
52972W        W95910  12.973   2.648  27.457 -0.0828  0.1916 -0.0382
52973W        W95911  10.790   0.965  28.535  0.2749 -0.0921  0.1946
52974W        W95912  10.701   1.778  30.022  0.2108 -0.2583 -0.0844
52975W        W95913   9.911   1.310  31.153  0.0151  0.2766  0.0147
52976W        W95914  11.426   0.519  27.187 -0.1709  0.2629 -0.1277
52977W        W95915  14.007   2.344  30.973  0.1894  0.1029 -0.1945
52978W        W95916  13.017   4.821   0.073 -0.0734  0.1967 -0.0075
52979W        W95917  14.940   0.624  28.109 -0.0460 -0.0764  0.1044
52980W        W95918  12.007   3.071  29.874 -0.1691  0.0289  0.0515
52981W        W95919  14.548   3.226  29.974  0.3360  0.3184 -0.0129
52982W        W95920  12.907   0.978  26.940 -0.2291 -0.3919  0.1977
52983W        W95921  13.050   1.876  29.310  0.0099 -0.0952 -0.0557
52984W        W95922  14.382   0.683  30.659 -0.1461 -0.2782 -0.1364
52985W        W95923  12.152   2.007  27.175  0.1040  0.1233 -0.0728
52986W        W95924  11.498   2.679  27.516 -0.1822  0.2933 -0.0946
52987W        W95925  16.473   3.544  30.958 -0.0514 -0.2202 -0.2546
52988W        W95926  14.268   1.908  27.287  0.0499 -0.2161 -0.2826
52989W        W95927  12.744   2.292  30.469  0.2140  0.1711  0.0978
52990W        W95928  12.662   0.961  29.177 -0.0828  0.0899  0.0483
52991W        W95929  12.875   3.705  31.227  0.2222 -0.0572  0.1443
52992W        W95930  12.516   3.259  28.489  0.0682 -0.0359  0.0960
52993W        W95931  10.959   2.723  29.077 -0.1565  0.0316  0.0677
52994W        W95932  11.584   2.289  26.595 -0.1175 -0.2894 -0.1556
52995W        W95933  10.669   0.075  30.749 -0.3218 -0.2105  0.3261
52996W        W95934  12.126   4.404  29.804  0.1523  0.1223 -0.1211
52997W        W95935  12.766   0.688  28.790 -0.0143 -0.1160 -0.1234
52998W        W95936  11.063   2.082  30.353 -0.2353 -0.0387  0.2557
52999W        W95937  14.597   0.898  28.529 -0.0561 -0.0122 -0.2368
53000W        W95938  11.353   0.824  28.323  0.1512 -0.2351 -0.1965
53001W        W95939  15.135   3.089  28.106 -0.0143 -0.0945 -0.0534
53002W        W95940  15.013   1.787  28.098 -0.2944  0.1436  0.1628
53003W        W95941  14.595   2.588  27.465 -0.1123  0.0447 -0.0402
53004W        W95942  10.200   2.341  28.381  0.1621  0.1173  0.1425
53005W        W95943  11.835   1.258  29.443  0.0167 -0.3709  0.1274
53006W        W95944  11.075   0.871  31.009  0.0682 -0.1783 -0.4695
53007W        W95945   9.872   0.662  30.088  0.0341  0.2141  0.2077
53008W        W95946  14.415   1.417  29.719  0.1742  0.3855 -0.2266
53009W        W95947  10.848   0.603  27.599  0.3857 -0.2007  0.0159
53010W        W95948  12.928   2.426  28.554 -0.3069 -0.1131 -0.1192
53011W        W95949  12.642   1.675  27.869  0.1860  0.1265  0.0825
53012W        W95950   9.054   2.070  27.396 -0.2703  0.4185  0.0913
53013W        W95951  13.783   1.444  30.342  0.2396  0.2821 -0.0135
53014W        W95952  13.572   2.517  27.356 -0.3110 -0.1308  0.1740
53015W        W95953  16.578   3.424  29.339  0.0036 -0.2886 -0.1780
53016W        W95954  14.298   3.222  27.900  0.2218 -0.1661 -0.0627
53017W        W95955  11.204   1.198  30.005  0.1457  0.1378  0.0142
53018W        W95956  11.273   2.029  27.414  0.0822 -0.1032 -0.0952
53019W        W95957  11.047   2.821  29.962 -0.1393  0.1322 -0.0510
53020W        W95958  13.348   2.745  28.413 -0.0485  0.2080  0.1385
53021W        W95959  12.872   0.754  28.301 -0.0651 -0.1629  0.1193
53022W        W95960  15.553   4.555  31.154 -0.0352  0.0230  0.0499
53023W        W95961  13.091   2.021  28.285  0.1738 -0.0424  0.0315
53024W        W95962  13.720   2.447  31.401 -0.0371  0.2464 -0.0949
53025W        W95963  14.280   1.632  31.547  0.0369  0.0941 -0.0916
53026W        W95964  15.890   2.563  28.213 -0.0080  0.0621  0.1548
53027W        W95965  12.165   2.511  29.159 -0.0418  0.1019 -0.0720
53028W        W95966  11.450   1.556  27.739 -0.1399  0.1596 -0.2683
53029W        W95967  13.871   4.601  29.298  0.2612  0.2999  0.2015
53030W        W95968  11.988   3.009  27.260 -0.0695  0.0548 -0.0230
53031W        W95969  10.058   1.080  29.194 -0.2579 -0.3893 -0.1514
53032W        W95970  11.587   3.281  29.593 -0.0580 -0.1060 -0.1543
53033W        W95971  13.858   0.702  28.871  0.0999 -0.0697  0.0268
53034W        W95972  10.458   1.869  31.185  0.0469  0.2962  0.0300
53035W        W95973  12.289   0.842  30.648 -0.0291  0.1691  0.2278
53036W        W95974  11.023   1.891  27.977  0.3171 -0.0748  0.2414
53037W        W95975  11.889   2.869  30.735 -0.0542  0.0273 -0.1023
53038W        W95976  12.616   1.209  27.294  0.1818 -0.0739 -0.1712
53039W        W95977  13.576   1.185  28.135  0.2354 -0.1567  0.0790
53040W        W95978  14.125   3.404  30.334  0.2112  0.0257 -0.1376
53041W        W95979  14.862   1.817  28.646  0.0521 -0.1787 -0.0458
53042W        W95980  11.834   1.192  27.436 -0.0733  0.1203  0.3182
53043W        W95981  11.701   1.150  26.757 -0.4437 -0.1304 -0.2529
53044W        W95982  12.055   3.420  30.366 -0.1915  0.1876  0.0383
53045W        W95983  13.309   3.094  28.824  0.2587  0.0915  0.1393
53046W        W95984  12.000   1.607  30.302  0.0769  0.2301 -0.1083
53047W        W95985  12.598   2.588  28.910 -0.2577  0.1688  0.1012
53048W        W95986  11.991   2.058  28.334 -0.0063 -0.1200  0.0903
53049W        W95987  11.676   3.803  31.482  0.0603  0.0562  0.0262
53050W        W95988  13.925   2.870  31.142  0.0960  0.0960 -0.1582
53051W        W95989  13.217   2.427  27.953  0.0684  0.0331 -0.1469
53052W        W95990  12.552   1.394  29.962  0.0619 -0.1372 -0.0333
53053W        W95991  11.235   0.933  26.787  0.1277  0.1227  0.1760
53054W        W95992  12.868   1.247  28.091  0.2420 -0.0935 -0.4252
53055W        W95993  12.246   2.048  27.693 -0.1644 -0.3126 -0.0587
53056W        W95994  13.491   1.723  30.578 -0.0417 -0.0975  0.1167
53057W        W95995  13.678   0.911  30.130  0.1570 -0.2096 -0.1034
53058W        W95996  12.509   0.736  31.590 -0.0303 -0.1694 -0.0990
53059W        W95997  13.991   1.967  30.550  0.3612  0.0115  0.1598
53060W        W95998  12.372   2.784  28.468  0.2076  0.3861 -0.0593
53061W        W95999  14.112   2.610  30.399 -0.1497  0.0236 -0.0855
53062W        W96000  10.592   2.497  27.148 -0.0801  0.0411 -0.0867
53063W        W96001  12.920   1.263  31.713 -0.1867 -0.4724  0.2437
53064W        W96002  11.255   1.784  30.769 -0.0529 -0.1700  0.0179
53065W        W96003   9.821   3.333  30.438 -0.0505 -0.1609  0.1423
53066W        W96004  14.012   4.631  31.765  0.3135 -0.0478  0.2862
53067W        W96005  14.188   2.697  28.564  0.0736  0.3450  0.0071
53068W        W96006  12.021   0.938   0.519  0.1410  0.2415 -0.0578
53069W        W96007  12.360   0.672  27.027 -0.1396 -0.2180 -0.2257
53070W        W96008  12.848   4.002  30.221  0.2358  0.1543  0.1679
53071W        W96009  13.056   2.460  29.379  0.0886 -0.2602 -0.2831
53072W        W96010  12.101   1.585  29.781 -0.2399  0.1324 -0.0622
53073W        W96011  13.319   4.362  30.144 -0.1771 -0.2011 -0.3833
53074W        W96012  11.681   2.146  27.132  0.0310 -0.0493 -0.0979
53075W        W96013  13.480   2.418  30.009 -0.0007 -0.0949 -0.2577
53076W        W96014  12.490   2.206  28.586  0.0914 -0.0643 -0.1582
53077W        W96015  14.543   1.366  30.204  0.1463 -0.0190 -0.0384
53078W        W96016  10.106   3.714  31.292  0.0361 -0.1377 -0.0411
53079W        W96017  12.439   0.855  28.002 -0.0142  0.0015 -0.0517
53080W        W96018  10.823   2.002  28.962  0.1013  0.3106  0.1767
53081W        W96019  13.344   1.491  29.496 -0.2164 -0.3250 -0.0452
53082W        W96020  15.180   1.310  28.027  0.2381  0.2045 -0.4850
53083W        W96021  10.627   0.385  29.683 -0.0231 -0.0909  0.1389
53084W        W96022  12.651   2.135  28.093 -0.0036  0.0408  0.4610
53085W        W96023  10.719   2.738  29.616  0.0140 -0.0661  0.1184
53086W        W96024  13.131   2.095  30.152 -0.1306 -0.0346 -0.2359
53087W        W96025  13.070   1.063  27.636  0.1236  0.1752  0.3653
53088W        W96026  13.063   4.862  30.214  0.0559  0.1443  0.0756
53089W        W96027  13.249   1.566  31.147 -0.2357 -0.3455 -0.0557
53090W        W96028  10.546   1.168  28.086 -0.2700  0.0482  0.0675
53091W        W96029  14.827   0.967  29.943 -0.4214 -0.0461  0.2128
53092W        W96030  11.924   1.572  28.725  0.0033 -0.4860  0.1679
53093W        W96031  10.305   3.423  28.708  0.2720  0.0204  0.1449
53094W        W96032  12.593   2.913  29.844  0.0192 -0.1761 -0.0321
53095W        W96033  11.277   1.916  29.180 -0.2537 -0.0807  0.1715
53096W        W96034  12.095   2.001  28.866  0.0531  0.5070 -0.2118
53097W        W96035  12.479   1.515  31.788  0.0397 -0.6368  0.1216
53098W        W96036  14.762   3.466  31.620  0.1588 -0.2451 -0.2359
53099W        W96037  12.393   2.101  29.713  0.1854 -0.0071 -0.0752
53100W        W96038  11.333   0.472  27.681  0.0429 -0.0445 -0.1669
53101W        W96039  12.993   0.710  29.581  0.3587 -0.1349 -0.0763
53102W        W96040  14.420   3.751  30.633  0.1254  0.2602 -0.0214
53103W        W96041  12.646   0.906  29.962  0.2869  0.1350 -0.1426
53104W        W96042  12.117   2.584  31.137 -0.2081 -0.0686 -0.1926
53105W        W96043  12.433   0.571  29.452 -0.0327  0.1336 -0.2328
53106W        W96044  14.831   2.457  28.016 -0.2298 -0.0624  0.2197
53107W        W96045  15.317   3.432  30.773 -0.1640 -0.0796 -0.0843
53108W        W96046  11.391   3.072  28.482 -0.0126 -0.1556 -0.1806
53109W        W96047  10.206   2.364  28.891 -0.0357 -0.0373 -0.2364
53110W        W96048  13.548   4.314  29.100  0.0424 -0.2526  0.0638
53111W        W96049  13.576   2.261  30.496  0.0381 -0.0935  0.0302
53112W        W96050  11.610   2.802  29.802  0.1145  0.0080 -0.0441
53113W        W96051  11.122   1.738  28.634  0.2517 -0.3971  0.1161
53114W        W96052  11.364   2.464  29.482 -0.0692 -0.2243 -0.2384
53115W        W96053  14.401   0.700  28.123  0.2013  0.0043 -0.2427
53116W        W96054  13.810   2.144  27.160  0.1669  0.2258  0.0794
53117W        W96055  12.342   1.178  29.523  0.2395  0.0085 -0.2031
53118W        W96056  15.280   0.767  30.292  0.0176  0.0304 -0.4747
53119W        W96057  13.235   0.765  27.977 -0.1165 -0.2309 -0.1134
53120W        W96058  12.838   0.522  30.214 -0.1224 -0.0633 -0.1720
53121W        W96059  11.987   0.838  29.670 -0.0420  0.1368  0.0865
53122W        W96060  15.083   2.005  27.636 -0.0258 -0.1180 -0.5356
53123W        W96061  11.002   2.063  31.181 -0.1683  0.1019 -0.0104
53124W        W96062  11.931   4.379   0.326 -0.0477  0.2934 -0.2113
53125W        W96063  10.614   3.034  30.454 -0.1329 -0.1693  0.0592
53126W        W96064  12.913   1.386  28.752 -0.0219  0.1561 -0.2063
53127W        W96065  11.030   0.208  27.289  0.1487  0.0888 -0.1382
53128W        W96066  13.685   2.826  29.707 -0.1715 -0.1679  0.1165
53129W        W96067  13.306   3.235  29.440  0.1887 -0.0473  0.2840
53130W        W96068  11.158   2.442  27.147 -0.1966 -0.1165 -0.2485
53131W        W96069  13.427   3.110  28.054 -0.1660  0.2319  0.0139
53132W        W96070  11.806   2.191  29.528 -0.1704  0.1502  0.0458
53133W        W96071  13.202   1.434  27.255 -0.0684 -0.2889  0.1757
53134W        W96072  12.637   2.312  27.349 -0.1266 -0.0003 -0.0924
53135W        W96073  12.585   2.138  29.098  0.1289  0.1237  0.1605
53136W        W96074  12.279   0.105  30.200 -0.0649 -0.1284  0.1504
53137W        W96075  14.904   2.870  29.798  0.2228 -0.0644 -0.1257
53138W        W96076  13.872   1.716  29.724  0.0864  0.1611 -0.0530
53139W        W96077  13.318   1.446  31.873  0.0399 -0.1746  0.2339
53140W        W96078  12.989   0.844  30.564 -0.0544  0.0010 -0.2163
53141W        W96079  12.520   2.314  31.170  0.3107 -0.0235 -0.0535
53142W        W96080  12.539   0.403  30.630 -0.0691 -0.1465  0.3367
53143W        W96081  13.274   2.735  31.315  0.2277  0.0352 -0.2154
53144W        W96082  14.892   2.219  26.571  0.1026  0.1119  0.0332
53145W        W96083  14.681   0.446  31.068  0.0705 -0.1763 -0.2636
53146W        W96084  13.174   2.586  28.910  0.1370  0.0964  0.0602
53147W        W96085  13.180   1.526  27.801 -0.0074  0.0213  0.2329
53148W        W96086  11.249   1.517  29.611 -0.0279 -0.0148 -0.1496
53149W        W96087  14.617   2.510  31.223  0.0180  0.0313 -0.1460
53150W        W96088  11.303   0.203  26.851  0.1098 -0.2086  0.0713
53151W        W96089  13.324   0.610  31.481 -0.0405 -0.0403 -0.0264
53152W        W96090  12.444   2.792  27.363 -0.0455 -0.1668 -0.0962
53153W        W96091  13.684   1.824  29.294  0.1601  0.4611  0.0089
53154W        W96092  14.403   1.412  27.435 -0.2626 -0.0878  0.1474
53155W        W96093  10.879   1.793  29.427 -0.1937 -0.0747 -0.0901
53156W        W96094  11.416   2.382  30.061  0.0775 -0.0978  0.1720
53157W        W96095  10.778   1.671  26.723  0.3087 -0.0416 -0.2090
53158W        W96096  12.148   2.501  28.022  0.0985  0.2221  0.2400
53159W        W96097  12.721   2.799  30.411 -0.0759 -0.3022  0.3336
53160W        W96098  14.166   1.690  30.118 -0.2880  0.0255  0.1664
53161W        W96099  14.314   0.412  27.673 -0.0164  0.0330  0.1123
53162W        W96100  14.275  34.466  30.739 -0.2061 -0.1982 -0.3548
53163W        W96101  11.724   2.588  27.928  0.0107  0.1215 -0.0147
53164W        W96102  13.322   0.662  29.120 -0.2157  0.0329 -0.2092
53165W        W96103  11.334   3.474  31.346  0.2055  0.0667 -0.0112
53166W        W96104  10.505   2.769  30.077  0.4954  0.2599 -0.1618
53167W        W96105  11.620   3.747  29.213  0.1156 -0.2225 -0.1587
53168W        W96106  13.231   0.739  30.996  0.1509 -0.2602 -0.1592
53169W        W96107  14.190   1.335  30.615  0.0189  0.0834 -0.0191
53170W        W96108  12.575   2.526  29.454 -0.0168  0.2101  0.1832
53171W        W96109  15.258   1.643  29.643  0.0903 -0.2040 -0.0195
53172W        W96110  12.873   2.123  29.699  0.1837 -0.0620  0.1076
53173W        W96111  10.897   2.292  29.409  0.2941  0.0768 -0.2261
53174W        W96112  13.235   4.380   0.024 -0.2114  0.3750  0.0120
53175W        W96113  14.182   2.796  29.044 -0.0391 -0.2184  0.1315
53176W        W96114  12.670   1.892  30.882  0.0682 -0.1609  0.0709
53177W        W96115  11.263  34.420  29.813 -0.2023 -0.0453 -0.2863
53178W        W96116  13.393   2.130  31.184 -0.1369 -0.0217  0.0856
53179W        W96117  13.772   2.532  28.791 -0.1795 -0.1543  0.0579
53180W        W96118  11.828  33.752  28.687  0.0682  0.0646 -0.3850
53181W        W96119  13.192   2.770  29.728 -0.0790 -0.2537  0.1674
53182W        W96120  11.573   2.788   0.025  0.0872  0.0598 -0.1917
53183W        W96121  11.683   1.723  29.949  0.0083 -0.0292  0.2496
53184W        W96122  11.918   4.058  26.856  0.1192  0.2845  0.1011
53185W        W96123  13.757   1.717  27.647  0.1540 -0.0289 -0.3232
53186W        W96124  12.769   2.670  28.152 -0.2239  0.1267 -0.0965
53187W        W96125  14.516   4.189  30.470 -0.0701  0.0970 -0.2968
53188W        W96126  12.122   0.432  28.340  0.1440  0.5124 -0.1077
53189W        W96127  11.755   2.746  29.342 -0.0798 -0.1754  0.3089
53190W        W96128  11.004   2.718  27.595 -0.1835  0.1407  0.1606
53191W        W96129  11.860   3.382  27.537  0.1127  0.0082 -0.1954
53192W        W96130  11.212   2.282  28.847  0.0151  0.0939 -0.0635
53193W        W96131  13.864   3.956  29.943 -0.1537  0.1621  0.2032
53194W        W96132  14.708   1.010  27.891 -0.1788 -0.2103 -0.0181
53195W        W96133  14.148   3.508  29.233 -0.0006  0.0431  0.2307
53196W        W96134  13.967   0.712  27.492 -0.1960  0.0148  0.4386
53197W        W96135  13.757   3.961   0.065  0.3282 -0.1460  0.2586
53198W        W96136  10.379   1.886  29.472 -0.0531  0.0429 -0.0885
53199W        W96137  12.152   1.471  27.647 -0.1615 -0.1648 -0.1277
53200W        W96138  12.234   2.047  30.408 -0.2292 -0.5148 -0.3119
53201W        W96139  14.773   1.075  31.068  0.3959  0.0540 -0.1332
53202W        W96140  10.634   3.365  31.970 -0.1873  0.4535  0.1297
53203W        W96141  13.491   3.992  28.557 -0.4539  0.2008 -0.2844
53204W        W96142  11.672   0.475  28.174 -0.3849 -0.0932 -0.0328
53205W        W96143  12.137   2.565  29.751  0.1229 -0.0739 -0.0817
53206W        W96144  14.691   1.379  28.991 -0.2096  0.1331  0.0952
53207W        W96145  13.669   2.338  27.784  0.2533 -0.2283  0.2065
53208W        W96146  12.984   1.662  30.492  0.2083 -0.0927  0.0390
53209W        W96147  11.534   3.561  27.998 -0.1579 -0.0109 -0.0494
53210W        W96148  12.643   3.259  30.636  0.1738 -0.3004  0.1533
53211W        W96149  10.711   3.188  29.829 -0.2146 -0.0103  0.0704
53212W        W96150  11.914   1.091  27.965  0.0578 -0.0706 -0.3356
53213W        W96151  15.605   1.313  27.156  0.0855  0.0013 -0.1833
53214W        W96152  11.012   1.322  30.439  0.1196 -0.0648  0.1543
53215W        W96153  13.654   0.027  30.663  0.0593 -0.0190  0.1789
53216W        W96154  10.670   2.468  28.716  0.0796 -0.1117 -0.4754
53217W        W96155  15.570   1.281  28.361  0.0436 -0.0623 -0.0332
53218W        W96156  12.480   1.587  30.527 -0.0491 -0.0090  0.2342
53219W        W96157   9.819   1.922  30.766  0.2233 -0.2027 -0.0582
53220W        W96158  11.714   1.672  26.758  0.1035 -0.0032  0.5370
53221W        W96159  14.219   0.935  30.267 -0.0066  0.1063  0.0139
53222W        W96160  11.791   1.696  27.357  0.1787  0.4014 -0.0922
53223W        W96161  13.510   4.041  31.567  0.1838 -0.1658 -0.2343
53224W        W96162  12.022   0.937  28.431  0.0770  0.1249  0.0357
53225W        W96163  12.540   1.794  27.367  0.0887 -0.3703  0.1725
53226W        W96164  11.192   0.699  28.858  0.0488 -0.0688 -0.0157
53227W        W96165  13.504   3.275  29.996 -0.1399 -0.1647 -0.0809
53228W        W96166  13.990   3.697  30.895  0.1534  0.2114 -0.0396
53229W        W96167  11.851  34.696  28.281 -0.1539 -0.2899 -0.0011
53230W        W96168  14.201   2.193  28.596  0.1028  0.1019  0.0982
53231W        W96169  15.300   2.196  29.252 -0.1792 -0.0193  0.4098
53232W        W96170  12.582   3.280  26.343  0.1134  0.1476  0.2694
53233W        W96171  13.475   2.712  29.255 -0.0419 -0.1383 -0.2574
53234W        W96172  15.507   3.871  30.448 -0.0545  0.0089  0.2562
53235W        W96173  10.738   0.786  30.396 -0.4280  0.1273 -0.0992
53236W        W96174  12.442   4.723  30.618 -0.1066 -0.0679 -0.1896
53237W        W96175  13.996   3.409  29.869  0.3509  0.2802 -0.0013
53238W        W96176  13.063   0.233  28.563  0.1464 -0.0668 -0.0349
53239W        W96177  11.341   1.057  29.209 -0.1226  0.0062 -0.1271
53240W        W96178  10.872   3.332  27.814  0.0113 -0.1715  0.0679
53241W        W96179  13.927   1.151  29.747  0.0521 -0.3033 -0.1101
53242W        W96180  14.063   0.370  31.888 -0.0992 -0.0205  0.0433
53243W        W96181  12.802   3.101  27.254  0.2199  0.1521 -0.1601
53244W        W96182  14.947  34.378  31.078  0.1103 -0.0101  0.2684
53245W        W96183  12.897   2.537  30.053 -0.0190  0.5642  0.0570
53246W        W96184  12.321   2.988  31.494  0.2311 -0.0076  0.1720
53247W        W96185  10.928   2.254  26.729 -0.0552  0.0242  0.0710
53248W        W96186  14.282   2.856  31.513  0.0400 -0.2074 -0.1048
53249W        W96187  11.596   2.308  28.430  0.1404 -0.2662 -0.1550
53250W        W96188  12.488   3.718  29.241 -0.0539  0.1896 -0.3417
53251W        W96189  13.142   3.998  28.932  0.0677  0.0539 -0.0098
53252W        W96190  13.050   1.705  29.860 -0.0724 -0.0435 -0.0895
53253W        W96191  14.280   3.218  28.497 -0.0726 -0.0135  0.0733
53254W        W96192  12.170   1.218  29.012  0.2754 -0.2160 -0.4367
53255W        W96193  12.843   0.718  27.363 -0.1208 -0.2974 -0.1338
53256W        W96194  13.679  34.151  27.864  0.0725  0.0272  0.0643
53257W        W96195  11.365   2.023  29.711 -0.3295  0.3086 -0.3449
53258W        W96196  11.102   1.300  28.192  0.0813  0.0502 -0.0971
53259W        W96197  10.826   2.198  27.622 -0.1052  0.1162 -0.3428
53260W        W96198  10.548   2.188  30.284 -0.0625 -0.2066 -0.1581
53261W        W96199  13.094   0.086  30.186  0.1914 -0.4262 -0.3450
53262W        W96200  11.240   1.336  30.956 -0.0660  0.4095 -0.3252
53263W        W96201  10.650   1.999  28.366  0.1591  0.2021  0.0350
53264W        W96202  11.346   0.093  28.546 -0.0270 -0.2610  0.0075
53265W        W96203  15.473   2.851  26.679 -0.0187 -0.2630 -0.1775
53266W        W96204  11.856   0.753  29.164  0.3622  0.0252  0.1244
53267W        W96205  12.129   0.033  28.793 -0.4164  0.1522  0.1932
53268W        W96206  13.399   2.036  27.472 -0.2663  0.3550  0.0391
53269W        W96207  12.869   2.939  28.654  0.1332  0.1804  0.2766
53270W        W96208  12.350  34.650  28.122  0.1663  0.1466  0.0817
53271W        W96209  14.757   4.039  31.191 -0.4061 -0.0357  0.2996
53272W        W96210  11.453   1.866  28.220  0.1960  0.1825 -0.2935
53273W        W96211  12.724   1.646   0.611 -0.0527  0.0940  0.2241
53274W        W96212  13.390   1.332   0.396 -0.3285  0.3306  0.4197
53275W        W96213  10.476   1.368  27.558  0.1892 -0.0887 -0.1969
53276W        W96214  12.191   1.812  29.340 -0.0226  0.2816  0.1583
53277W        W96215  12.637   3.287  29.540 -0.4302 -0.2118 -0.2106
53278W        W96216  14.515   3.476  26.394  0.0743  0.1978  0.2081
53279W        W96217  14.468   2.341  30.706 -0.1098  0.0190 -0.0737
53280W        W96218  12.590   3.734   0.028 -0.3032 -0.3388  0.2511
53281W        W96219  10.789   1.474  31.256 -0.0669  0.1269  0.2835
53282W        W96220  12.778   2.611  26.994 -0.2061 -0.0540 -0.1467
53283W        W96221  13.814   2.366  29.520  0.2069 -0.0664  0.2318
53284W        W96222  14.764   2.881  29.314 -0.1111  0.0268 -0.0716
53285W        W96223  14.825   1.497  27.739 -0.1661 -0.1385 -0.0103
53286W        W96224  11.723   2.149  27.657  0.1998  0.0006 -0.3559
53287W        W96225  12.218   0.140  29.717 -0.0099 -0.1311 -0.1475
53288W        W96226  12.838   0.904  31.188 -0.1359  0.1350  0.2306
53289W        W96227  15.574   2.064  30.239 -0.0778 -0.3300  0.2330
53290W        W96228  11.775   0.195  29.089  0.0189 -0.0311  0.0830
53291W        W96229  14.093   2.088  28.100  0.0473 -0.0408 -0.1941
53292W        W96230  14.410   2.356  27.024 -0.0263 -0.0719 -0.1440
53293W        W96231  11.710   1.214  29.934  0.1534 -0.1825 -0.0756
53294W        W96232  11.573   1.463  29.005  0.0556 -0.2026 -0.3641
53295W        W96233  13.742   1.219  31.759  0.1543 -0.2429  0.0797
53296W        W96234  12.868   3.867  30.713 -0.1254 -0.2835  0.0973
53297W        W96235  13.521   3.686  30.770 -0.0720 -0.0478  0.0045
53298W        W96236  12.161   1.447  27.107  0.0461 -0.0646 -0.1907
53299W        W96237  14.624   2.199  25.965 -0.2376 -0.0428  0.0780
53300W        W96238  12.408   3.732  30.791 -0.1603  0.0150 -0.1107
53301W        W96239  15.414   4.410  31.579 -0.2509  0.5156 -0.0602
53302W        W96240  12.272   2.933  30.368 -0.3042 -0.2195  0.2002
53303W        W96241  14.666   2.421  28.546 -0.1006  0.2131 -0.0374
53304W        W96242  12.378   0.296  31.100 -0.1765 -0.1998 -0.0827
53305W        W96243  11.590   1.339  28.340 -0.1504  0.1513  0.2457
53306W        W96244  12.255   2.935  29.396  0.1175  0.3002  0.2011
53307W        W96245  13.497   1.355  29.949  0.3140 -0.1772  0.0914
53308W        W96246  12.174   1.073  30.115 -0.2179 -0.0426 -0.0681
53309W        W96247  12.502   0.397  27.553 -0.0067 -0.3371 -0.2695
53310W        W96248  12.825   3.072  31.276  0.0625  0.0442 -0.0343
53311W        W96249  13.795   2.447  28.249  0.0542 -0.1868 -0.1282
53312W        W96250  14.563   2.167  29.999  0.0156  0.7069 -0.1804
53313W        W96251  13.437   3.180  30.528  0.2451  0.0688  0.0472
53314W        W96252  11.787   2.361  31.782  0.0407  0.2015 -0.0425
53315W        W96253  11.743   2.756  31.492  0.0055 -0.0645 -0.1348
53316W        W96254  13.957   2.695  31.906  0.0452 -0.0746 -0.0713
53317W        W96255  11.284   2.367  30.778 -0.1990  0.0561  0.0935
53318W        W96256  13.665   2.870  30.195 -0.2029  0.1620 -0.2078
53319W        W96257  12.938   0.529  31.812 -0.2117 -0.0213  0.2165
53320W        W96258  13.752   1.013   0.250 -0.1248 -0.0616  0.0420
53321W        W96259  13.530   3.152  31.052 -0.1068 -0.0364 -0.1286
53322W        W96260  13.164   3.365  31.434 -0.0423 -0.0307 -0.1094
53323W        W96261  11.762   0.414  31.386  0.1339 -0.2192  0.0318
53324W        W96262  13.355   1.813  31.562  0.3393  0.1508 -0.0261
53325W        W96263  11.836   2.606  30.277  0.1857  0.1759 -0.1156
53326W        W96264  15.524   2.978   0.242 -0.0354  0.0315  0.1685
53327W        W96265  11.464   2.791  31.019  0.0475 -0.0230  0.0185
53328W        W96266  11.040   2.944   0.027  0.1554  0.0459 -0.1175
53329W        W96267  14.558   3.122  31.174  0.1476 -0.0698  0.0564
53330W        W96268  12.007  34.634  31.390 -0.0401 -0.0090 -0.2397
53331W        W96269  11.604   0.848  30.969 -0.0849 -0.3003 -0.1327
53332W        W96270  11.266  33.947  31.569 -0.2742  0.0716  0.2248
53333W        W96271  11.154   3.217   0.408  0.0671 -0.1268 -0.1231
53334W        W96272  12.770   1.467  31.241  0.1885 -0.1431 -0.4939
53335W        W96273  12.427   1.081   0.140 -0.0466  0.1610 -0.0140
53336W        W96274  13.246   1.123  31.403  0.0176 -0.0176 -0.2386
53337W        W96275  12.523   1.917   0.243  0.0058 -0.2503 -0.2190
53338W        W96276  12.394   0.113   0.349  0.0017 -0.1469  0.0252
53339W        W96277  11.384   2.753  30.475  0.3036  0.0514  0.0406
53340W        W96278  11.437   1.761  31.210 -0.0036  0.1801 -0.1962
53341W        W96279  13.153   2.293  31.670 -0.2751  0.0772 -0.1749
53342W        W96280  12.721   4.191  31.856 -0.1120  0.2179  0.2702
53343W        W96281  11.797   2.246  30.905 -0.1287 -0.1590 -0.1480
53344W        W96282  15.101   3.102  31.173 -0.1205  0.3738  0.0155
53345W        W96283  14.733   0.131   0.320  0.1408  0.1298  0.1038
53346W        W96284  12.024   1.436   0.254 -0.1622  0.1115 -0.2255
53347W        W96285  11.826   1.907   0.197 -0.0147  0.0314 -0.0730
53348W        W96286  11.599   3.182   0.868 -0.1872 -0.0347 -0.1038
53349W        W96287  14.589   2.034  31.414  0.1643 -0.1699 -0.0544
53350W        W96288  15.164   2.455  31.031  0.1143  0.0665  0.0382
53351W        W96289  14.498   1.900  30.444 -0.4470  0.0002 -0.2010
53352W        W96290  15.540   1.220  30.422 -0.3060  0.1517  0.2725
53353W        W96291  16.161   1.379  31.021 -0.2521  0.0094  0.0287
53354W        W96292  11.719   1.305  31.109  0.0265 -0.0221  0.1011
53355W        W96293  11.532   4.259  31.551 -0.1302 -0.1058 -0.1995
53356W        W96294  13.055   3.399  30.857 -0.0375  0.2623  0.0436
53357W        W96295  13.161   2.061  30.723  0.0563 -0.3475  0.1309
53358W        W96296  14.362   0.438  31.502  0.1144  0.1008 -0.0799
53359W        W96297  15.146   2.601  31.499  0.1802 -0.1105 -0.0724
53360W        W96298  13.981   2.006  31.380  0.2374  0.0223  0.0912
53361W        W96299  12.712   2.639  31.443  0.1973  0.0748  0.3469
53362W        W96300  12.210   2.625   0.761 -0.0321 -0.0028  0.1578
53363W        W96301  14.480   1.357   0.610 -0.0322  0.0793 -0.0915
53364W        W96302  11.766   0.026  30.892 -0.0753  0.3933  0.1346
53365W        W96303  13.913   3.024  30.600  0.1142  0.0925  0.1236
53366W        W96304  15.241   1.662  30.646 -0.1429 -0.0376  0.1764
53367W        W96305  13.768   0.746  31.768 -0.2351  0.0699  0.2931
53368W        W96306  15.013   3.425   0.571  0.3374  0.0565 -0.0566
53369W        W96307  12.064   3.784  31.171 -0.1397 -0.0749 -0.2091
53370W        W96308  12.072   3.495  31.609  0.0158 -0.1797  0.0748
53371W        W96309  11.447   2.258  31.337 -0.1719 -0.0918 -0.1549
53372W        W96310  11.957   0.504   0.298 -0.1406  0.1634  0.2065
53373W        W96311  11.750   3.185  31.268  0.1178  0.2403 -0.2609
53374W        W96312  11.221   2.565  31.729 -0.2858  0.2104  0.3136
53375W        W96313  12.080   0.484  31.797  0.0041  0.0568  0.4113
53376W        W96314  14.119   2.995  30.073 -0.2001  0.3648 -0.1916
53377W        W96315  15.151   3.612  31.204  0.0287 -0.0875 -0.0561
53378W        W96316  14.313   2.743  30.914 -0.2015  0.2692 -0.0778
53379W        W96317  12.178   5.825  19.369  0.2701 -0.2663  0.2022
53380W        W96318  12.205   4.176  16.743  0.0212 -0.1758  0.1781
53381W        W96319  13.604   4.362  17.378  0.5064 -0.0108  0.2472
53382W        W96320  13.994   4.972  17.721  0.5021  0.2597 -0.1129
53383W        W96321  11.305   3.510  17.521  0.0808 -0.0850 -0.0824
53384W        W96322  14.366   5.062  16.426 -0.1507  0.2825  0.0132
53385W        W96323  11.661   4.525  19.189 -0.1674  0.2299  0.0486
53386W        W96324  13.177   6.167  18.480 -0.2888 -0.2041 -0.1462
53387W        W96325  14.422   6.520  17.145  0.2574  0.2799 -0.0845
53388W        W96326  11.826   4.606  16.025  0.1699 -0.3128 -0.1162
53389W        W96327  12.273   3.592  17.765 -0.1869  0.0316 -0.0358
53390W        W96328  12.251   7.578  19.897  0.0029 -0.0947 -0.0670
53391W        W96329  13.578   2.281  16.409 -0.2022  0.1802 -0.1165
53392W        W96330  10.469   4.267  18.400 -0.0900  0.3379 -0.0778
53393W        W96331  13.289   5.734  18.725  0.0084 -0.1024  0.1485
53394W        W96332  11.034   6.040  15.889 -0.2515  0.0219 -0.0793
53395W        W96333  12.508   3.977  17.069  0.1949  0.0862  0.0218
53396W        W96334  13.891   3.779  16.768  0.2156  0.0014  0.1566
53397W        W96335  11.766   7.473  16.361 -0.4961  0.1310  0.0116
53398W        W96336  13.260   3.940  18.722 -0.2046  0.1019  0.0746
53399W        W96337  11.985   3.595  18.191 -0.1932 -0.1330 -0.2809
53400W        W96338  11.440   5.783  17.081  0.3086  0.0784 -0.2514
53401W        W96339  12.247   3.728  15.639 -0.1623  0.3175  0.0485
53402W        W96340  11.123   5.217  18.031 -0.1306 -0.1123  0.0620
53403W        W96341  11.642   4.360  17.791  0.4192 -0.0977 -0.0762
53404W        W96342  13.231   4.191  17.720  0.1687 -0.2534  0.0829
53405W        W96343  14.276   3.853  17.322  0.3665 -0.0104  0.0904
53406W        W96344  12.056   6.027  16.912 -0.0363  0.2815  0.2197
53407W        W96345  14.124   6.729  16.757 -0.0429  0.1181 -0.0850
53408W        W96346  13.566   4.848  19.805 -0.0018  0.0486  0.2871
53409W        W96347   8.698   6.836  17.605  0.0763  0.4277 -0.0730
53410W        W96348  10.745   6.747  17.131  0.0678  0.1229  0.1847
53411W        W96349  12.161   6.629  16.136 -0.0491 -0.2059 -0.1111
53412W        W96350  14.563   6.051  17.318 -0.2067  0.1912 -0.1965
53413W        W96351  13.559   6.634  19.102  0.2112  0.0200 -0.0398
53414W        W96352  12.712   6.775  19.206 -0.0742  0.1526 -0.0255
53415W        W96353  11.306   6.365  17.062 -0.0851 -0.2173 -0.1952
53416W        W96354  12.613   5.894  19.655 -0.1559 -0.1004  0.0893
53417W        W96355  12.604   5.680  19.130  0.0435 -0.1555 -0.2807
53418W        W96356  13.417   5.382  17.799 -0.3867  0.1915  0.1988
53419W        W96357  12.949   6.114  19.318  0.2843  0.0263  0.1796
53420W        W96358  11.358   7.024  15.757  0.1552  0.1959  0.0160
53421W        W96359  12.722   5.584  20.060  0.2140 -0.1631  0.0939
53422W        W96360  13.093   5.778  20.869 -0.1808  0.0976  0.3757
53423W        W96361  11.403   6.103  19.094 -0.0249  0.1056 -0.3444
53424W        W96362  13.944   4.702  20.288  0.0053  0.2769 -0.2742
53425W        W96363  13.007   6.204  15.765  0.1561 -0.0068 -0.0212
53426W        W96364  13.562   4.176  15.744  0.3260 -0.2558 -0.4034
53427W        W96365  12.036   4.066  15.901  0.3810  0.0129 -0.1052
53428W        W96366  13.653   3.736  15.988 -0.1684  0.2256  0.1671
53429W        W96367  12.989   2.248  17.332 -0.0992 -0.1749 -0.1156
53430W        W96368  12.526   6.723  17.324  0.0882 -0.0369 -0.1605
53431W        W96369  12.824   4.482  16.930 -0.1369  0.0032 -0.3415
53432W        W96370  14.760   6.529  17.535 -0.0673  0.1224 -0.0606
53433W        W96371  10.959   5.940  17.025  0.3288 -0.1043 -0.1270
53434W        W96372  13.006   4.351  18.587 -0.1035 -0.3280  0.1190
53435W        W96373  11.196   5.727  17.975  0.0258  0.3877  0.0445
53436W        W96374  11.888   4.126  17.109 -0.0741 -0.0544 -0.2029
53437W        W96375  13.018   7.303  17.009  0.4681  0.3390  0.0536
53438W        W96376  14.228   6.039  16.950  0.0416 -0.2071 -0.0634
53439W        W96377  13.463   4.680  16.062 -0.0739 -0.1518 -0.1532
53440W        W96378  11.293   4.892  15.964  0.0189 -0.2711 -0.2919
53441W        W96379  11.964   5.661  19.865 -0.2605 -0.0734 -0.0303
53442W        W96380  11.622   5.325  19.542 -0.0379  0.0443  0.0139
53443W        W96381  12.944   3.715  16.410  0.0347 -0.4458  0.1669
53444W        W96382  15.062   3.769  20.336 -0.2521 -0.0604  0.0654
53445W        W96383  11.941   4.576  18.117  0.2498 -0.0746 -0.1135
53446W        W96384  14.117   4.817  18.335  0.2173  0.0459  0.3334
53447W        W96385  12.617   5.260  18.740  0.1198  0.1840 -0.1070
53448W        W96386  15.215   6.482  17.763  0.2738 -0.0122  0.2864
53449W        W96387  14.264   4.581  16.361 -0.0169 -0.3307  0.1004
53450W        W96388  14.380   3.646  17.810 -0.2728 -0.0404  0.0383
53451W        W96389  13.443   3.542  17.374  0.1335  0.1116 -0.2369
53452W        W96390  12.563   4.947  15.749 -0.0963  0.2921  0.0574
53453W        W96391  11.135   5.243  16.295 -0.3322  0.2151 -0.0499
53454W        W96392  14.942   5.406  18.679  0.2281 -0.2168 -0.2496
53455W        W96393  14.520   3.822  15.811 -0.1085 -0.0219  0.1101
53456W        W96394  11.202   5.776  19.482 -0.4440  0.1846 -0.2028
53457W        W96395  13.187   3.279  18.649 -0.1779 -0.0267 -0.1044
53458W        W96396  12.980   6.922  19.636  0.0374 -0.0642  0.0132
53459W        W96397  11.631   6.566  15.893 -0.0339  0.0295  0.1092
53460W        W96398  10.824   4.920  17.664 -0.0754 -0.0946  0.4041
53461W        W96399  11.911   6.125  16.265  0.0406  0.0893  0.0841
53462W        W96400   9.248   5.004  17.100  0.0913  0.0183  0.1594
53463W        W96401  12.387   5.926  17.816  0.0921 -0.2535 -0.0963
53464W        W96402  12.657   4.194  16.547 -0.0908 -0.0830 -0.1010
53465W        W96403  12.156   3.782  18.613  0.0673  0.0887  0.0384
53466W        W96404  12.020   3.238  16.587  0.2615 -0.4027  0.1138
53467W        W96405  11.289   5.718  16.233  0.1541 -0.3612  0.1672
53468W        W96406  14.400   6.013  16.464 -0.2099 -0.0322 -0.1538
53469W        W96407  14.782   5.882  16.775  0.0145  0.1111  0.0850
53470W        W96408  14.242   6.516  16.260  0.2271 -0.1229 -0.1949
53471W        W96409  13.364   6.169  18.974 -0.0574  0.0979  0.2059
53472W        W96410  11.789   4.631  17.195  0.2446 -0.0496 -0.1067
53473W        W96411  11.813   4.582  19.642  0.1151  0.2090  0.4570
53474W        W96412  11.850   3.891  17.693 -0.1862  0.0004  0.0127
53475W        W96413  11.988   5.090  19.743  0.0984 -0.0692 -0.0499
53476W        W96414  12.353   3.556  15.136  0.0067  0.2269 -0.2360
53477W        W96415  12.528   4.683  16.594 -0.1884  0.0415  0.2528
53478W        W96416  11.926   5.397  16.303 -0.0653 -0.3183 -0.1828
53479W        W96417  10.092   6.121  15.547 -0.2405  0.0294  0.0099
53480W        W96418  12.862   4.748  18.971  0.0088  0.0956  0.0944
53481W        W96419  12.029   5.498  16.857  0.4150 -0.0590 -0.1850
53482W        W96420  13.435   5.243  19.476  0.2243 -0.0954  0.0089
53483W        W96421  13.353   7.573  15.954  0.2250  0.1580 -0.1524
53484W        W96422  11.186   4.733  17.940 -0.0135 -0.2000  0.3821
53485W        W96423  11.213   3.802  15.633 -0.0037  0.1511  0.2620
53486W        W96424  12.938   6.371  17.308 -0.0260 -0.0748  0.2187
53487W        W96425  13.164   6.561  19.430  0.1065 -0.0347 -0.0837
53488W        W96426  12.080   3.398  16.012 -0.0672  0.0158 -0.1543
53489W        W96427  14.785   6.766  18.906 -0.2577 -0.0426 -0.1521
53490W        W96428  11.667   5.833  16.587  0.0379  0.1272  0.1065
53491W        W96429  13.619   5.847  17.786  0.2874 -0.1039 -0.0331
53492W        W96430  13.018   3.989  18.221 -0.3166  0.0961 -0.0935
53493W        W96431  12.846   2.060  19.552 -0.0491 -0.1521  0.0679
53494W        W96432  12.829   4.817  18.433 -0.0260  0.2220  0.1975
53495W        W96433  12.746   3.602  15.877  0.0739 -0.1621  0.3004
53496W        W96434  12.360   7.810  17.278  0.2089  0.1600 -0.0942
53497W        W96435   9.967   6.605  16.616  0.2599  0.0097  0.2226
53498W        W96436  10.769   6.327  16.733  0.0543 -0.0407  0.1733
53499W        W96437  14.404   5.183  17.496 -0.7096  0.0039  0.0305
53500W        W96438  15.070   3.118  18.944 -0.0879  0.1027 -0.0163
53501W        W96439  11.193   5.179  19.812  0.0271  0.1055 -0.0317
53502W        W96440  12.212   3.289  19.385 -0.3268  0.0066  0.0066
53503W        W96441  11.170   3.586  16.491  0.0904  0.1322 -0.1653
53504W        W96442  12.386   5.977  20.103 -0.1935 -0.0787  0.0940
53505W        W96443  14.873   3.547  16.654  0.4214  0.3577 -0.0724
53506W        W96444  13.837   4.222  16.637  0.1948  0.3932 -0.2317
53507W        W96445  14.930   6.066  20.491  0.1372 -0.3586  0.2589
53508W        W96446  14.676   4.346  16.384  0.3094  0.0289 -0.0170
53509W        W96447  13.465   4.103  16.322  0.3030  0.2174  0.0143
53510W        W96448  13.055   4.336  16.168 -0.1219 -0.1074 -0.0938
53511W        W96449  11.537   6.105  18.370  0.1909 -0.0013 -0.2719
53512W        W96450  13.043   5.825  16.704 -0.2151 -0.2182 -0.1595
53513W        W96451  12.782   5.925  17.477  0.0525 -0.0536 -0.0387
53514W        W96452  12.750   4.399  15.663 -0.1482  0.0351 -0.0823
53515W        W96453  12.229   5.748  17.377 -0.1109 -0.0128  0.0110
53516W        W96454  10.196   5.866  17.145  0.3589  0.0403  0.1833
53517W        W96455  13.632   7.002  19.546 -0.1989  0.1481  0.0990
53518W        W96456  13.960   6.207  16.534 -0.1426  0.1898 -0.2078
53519W        W96457  12.555   4.121  18.338 -0.2968 -0.2788  0.2739
53520W        W96458  10.733   3.575  16.172 -0.2756 -0.0621 -0.0484
53521W        W96459  13.034   3.253  16.706 -0.0295 -0.0866 -0.0915
53522W        W96460  10.052   7.497  16.715 -0.0260  0.0225 -0.0641
53523W        W96461  13.751   4.542  17.914 -0.0456 -0.0003  0.0691
53524W        W96462  13.349   2.617  17.249  0.2056 -0.2824  0.1401
53525W        W96463  11.617   3.420  19.744  0.0430 -0.0892 -0.2168
53526W        W96464  14.518   5.271  20.829  0.2033 -0.0200 -0.1358
53527W        W96465  13.260   5.627  16.224  0.4502  0.3134  0.0524
53528W        W96466  13.200   5.694  17.434  0.0511  0.3162  0.2766
53529W        W96467  11.139   5.043  16.791  0.1545 -0.1873 -0.0429
53530W        W96468  11.897   4.739  18.572  0.1807 -0.0849  0.2146
53531W        W96469  12.709   3.992  18.916  0.3786  0.1061  0.2590
53532W        W96470  11.759   6.715  19.313 -0.2533 -0.0502  0.0475
53533W        W96471  14.329   6.425  19.565 -0.2390 -0.0393 -0.1908
53534W        W96472  12.445   6.249  15.405 -0.4318 -0.1847 -0.2638
53535W        W96473  13.076   3.084  19.388 -0.1577  0.1078 -0.1078
53536W        W96474  12.812   5.932  18.197 -0.3949  0.0037 -0.0884
53537W        W96475  10.915   6.443  16.253 -0.0848 -0.1249 -0.1511
53538W        W96476  12.427   5.314  17.075 -0.2194  0.1751  0.0569
53539W        W96477  12.374   2.413  18.269 -0.0943 -0.2220 -0.1182
53540W        W96478  13.400   5.555  16.831 -0.1703 -0.1763 -0.1831
53541W        W96479  12.589   6.398  16.021  0.0770  0.2013  0.1391
53542W        W96480  12.443   6.193  19.204  0.3548  0.0065  0.2467
53543W        W96481  12.223   5.797  16.485  0.0076  0.0100 -0.1469
53544W        W96482  13.892   3.004  18.039 -0.0087  0.2155 -0.2807
53545W        W96483  12.071   6.646  17.695 -0.0686  0.1533  0.2461
53546W        W96484  10.163   4.441  16.501  0.0891  0.2883  0.0346
53547W        W96485  10.625   4.281  16.244  0.3491  0.4074 -0.2053
53548W        W96486  13.757   5.825  19.043  0.4752 -0.0808  0.0012
53549W        W96487  14.352   5.114  16.955 -0.0362  0.2902 -0.0122
53550W        W96488  12.267   4.043  17.512  0.2228 -0.1811 -0.1929
53551W        W96489  12.324   4.505  17.106  0.1148 -0.0246  0.3190
53552W        W96490  10.873   6.478  20.383 -0.1405  0.3696 -0.0037
53553W        W96491  12.977   5.377  19.035 -0.0914  0.2906  0.4221
53554W        W96492  13.262   4.538  15.636  0.0129 -0.4734  0.1394
53555W        W96493  13.270   6.675  18.170  0.0599  0.0315 -0.0565
53556W        W96494  11.674   3.986  19.538 -0.0022  0.0840 -0.4490
53557W        W96495  11.422   3.983  16.645  0.0233 -0.2346  0.0208
53558W        W96496  14.400   4.442  20.249 -0.3133  0.0710  0.3521
53559W        W96497  12.556   5.439  17.579 -0.1492  0.3964  0.2549
53560W        W96498  10.335   4.594  17.848 -0.0071  0.3724 -0.0067
53561W        W96499  13.494   7.158  18.129 -0.3539 -0.1237 -0.0337
53562W        W96500  12.560   4.091  16.008  0.2449 -0.0559 -0.0020
53563W        W96501  10.284   5.812  19.118 -0.2222 -0.0000 -0.1614
53564W        W96502  13.009   4.190  19.657  0.2328  0.0994  0.3469
53565W        W96503  13.418   4.734  18.979  0.1694 -0.1578 -0.0158
53566W        W96504  13.095   4.159  17.240 -0.2042  0.1483  0.0375
53567W        W96505  10.755   3.047  17.121  0.0619  0.0111  0.1884
53568W        W96506  12.811   6.013  18.787  0.0483 -0.3350 -0.0011
53569W        W96507  13.843   6.622  19.809 -0.3275  0.0861 -0.3710
53570W        W96508  12.083   4.622  20.055 -0.1370 -0.1739 -0.2122
53571W        W96509  11.374   5.641  19.945  0.0690 -0.0033  0.3129
53572W        W96510  12.461   2.918  18.206  0.0001  0.0307  0.0720
53573W        W96511  14.329   8.277  17.510 -0.1695  0.0919 -0.6071
53574W        W96512  13.090   4.607  19.991  0.0993 -0.3292 -0.3021
53575W        W96513  11.365   6.275  16.212  0.3291 -0.3568 -0.0370
53576W        W96514  11.907   5.894  18.826 -0.2087  0.0468  0.1035
53577W        W96515  11.166   5.813  17.493 -0.0464 -0.0001 -0.0351
53578W        W96516  13.709   3.751  19.822  0.2164 -0.0638 -0.0999
53579W        W96517  10.653   4.847  18.123 -0.1745 -0.1819  0.0736
53580W        W96518  11.253   6.085  16.620  0.3911 -0.2528 -0.3682
53581W        W96519  11.629   6.496  18.827 -0.1118 -0.0911 -0.0328
53582W        W96520  13.525   3.949  17.071  0.1458 -0.2482 -0.0372
53583W        W96521  14.009   5.154  15.610 -0.0403 -0.1275  0.1618
53584W        W96522  12.272   3.767  16.301 -0.0609  0.0859  0.0712
53585W        W96523  14.883   4.221  20.243  0.3824 -0.0163 -0.2286
53586W        W96524  13.699   5.510  15.967 -0.0619  0.0219  0.0477
53587W        W96525  12.368   3.405  18.914  0.0100  0.3796  0.2136
53588W        W96526  11.479   4.844  18.861  0.1627  0.3344 -0.0675
53589W        W96527  14.669   5.682  18.266  0.1272  0.0893 -0.1706
53590W        W96528  11.988   5.032  17.417  0.3021  0.0972 -0.0858
53591W        W96529  14.373   6.802  18.595 -0.1265 -0.2139  0.1359
53592W        W96530  11.038   4.958  20.323 -0.2220  0.3404 -0.1089
53593W        W96531  13.499   4.292  15.215 -0.2329 -0.0395 -0.1992
53594W        W96532  11.616   2.993  15.251 -0.1319  0.1413  0.0913
53595W        W96533  11.823   5.240  18.877  0.1023  0.0594  0.4845
53596W        W96534  13.046   6.328  16.726 -0.0338 -0.0752  0.1466
53597W        W96535  12.055   6.254  15.808 -0.3776  0.0989  0.1684
53598W        W96536  12.418   4.443  17.966  0.0249  0.0082  0.0142
53599W        W96537  11.658   4.846  17.724  0.5162  0.0815 -0.2493
53600W        W96538  13.877   4.596  15.712 -0.1774 -0.0100  0.0112
53601W        W96539  13.531   4.577  16.539 -0.0095 -0.0753  0.1057
53602W        W96540  10.896   6.250  17.369  0.0244  0.1416  0.1411
53603W        W96541  11.612   3.857  18.657  0.0691  0.1033  0.2827
53604W        W96542  13.178   5.023  17.986  0.2192 -0.1223  0.3434
53605W        W96543  13.079   2.395  18.178 -0.0089 -0.2715 -0.1830
53606W        W96544  13.694   3.532  20.738 -0.0148 -0.0782  0.0544
53607W        W96545  12.560   4.437  19.235  0.1336 -0.4136 -0.0943
53608W        W96546  12.622   5.067  19.324 -0.0104  0.0104 -0.0079
53609W        W96547   9.337   3.031  19.341 -0.1708  0.2663  0.3294
53610W        W96548  13.435   7.093  17.667  0.0786  0.4281 -0.3653
53611W        W96549  14.167   3.937  16.284 -0.1001 -0.0408  0.0263
53612W        W96550  13.608   3.506  18.430 -0.1037 -0.1051  0.1196
53613W        W96551  14.236   4.619  16.936  0.1664  0.1309 -0.4774
53614W        W96552  13.016   4.823  16.528 -0.4233 -0.1697 -0.0785
53615W        W96553  10.645   5.184  17.256 -0.1527 -0.2885  0.4089
53616W        W96554  11.346   4.710  19.605  0.0942 -0.0012 -0.0491
53617W        W96555  12.217   4.441  16.296 -0.0068 -0.1409 -0.3146
53618W        W96556  13.460   4.434  20.257 -0.0026  0.1533 -0.2292
53619W        W96557  12.576   6.943  16.158  0.0065  0.0164 -0.2741
53620W        W96558  13.467   6.114  16.549 -0.1590 -0.1651 -0.0941
53621W        W96559  13.834   5.292  16.834 -0.1880 -0.1394  0.1024
53622W        W96560  10.873   4.305  18.085  0.2934 -0.1381 -0.1427
53623W        W96561  11.237   7.168  19.206  0.2260  0.1938 -0.1242
53624W        W96562  13.241   5.037  16.971 -0.2446 -0.3939  0.3431
53625W        W96563  11.570   4.965  16.412  0.1272  0.0480 -0.1296
53626W        W96564  12.555   6.375  16.984  0.0070 -0.2470  0.0610
53627W        W96565  13.983   4.067  19.489  0.0359 -0.2940 -0.0149
53628W        W96566  13.873   4.324  16.096  0.1457  0.2789 -0.1460
53629W        W96567  14.412   4.822  19.422 -0.0544 -0.1179 -0.1597
53630W        W96568   8.742   6.221  17.653  0.1920  0.1032 -0.0622
53631W        W96569  13.511   3.338  16.827 -0.2365 -0.1715  0.0308
53632W        W96570  10.733   5.535  17.860 -0.0343  0.1124  0.0995
53633W        W96571  10.313   6.798  17.404  0.1219 -0.0779  0.3649
53634W        W96572  10.785   6.005  17.849  0.0460  0.2653  0.1695
53635W        W96573  12.647   3.636  17.384 -0.0869 -0.2326  0.0266
53636W        W96574  13.705   4.536  18.617 -0.2155 -0.0030  0.2671
53637W        W96575  12.942   5.429  19.541 -0.2343  0.0435  0.0047
53638W        W96576  13.993   6.173  20.136 -0.2457 -0.0057  0.0803
53639W        W96577  13.659   6.416  18.632 -0.1366 -0.0072 -0.0775
53640W        W96578  12.677   4.266  17.482  0.3272 -0.1477 -0.2323
53641W        W96579  13.228   7.011  19.176  0.0484 -0.1245  0.0363
53642W        W96580  13.951   5.036  18.760 -0.0979 -0.1973 -0.0009
53643W        W96581   9.437   6.039  17.258 -0.0326 -0.1874  0.0178
53644W        W96582  10.775   4.480  18.743 -0.2021  0.1101 -0.0493
53645W        W96583  11.197   4.221  19.514  0.0856 -0.2415 -0.0813
53646W        W96584  13.075   4.630  17.442 -0.0873  0.1017 -0.0460
53647W        W96585  13.201   2.196  16.135  0.1934  0.0232  0.2627
53648W        W96586  12.057   5.008  16.810  0.0426 -0.0889 -0.2369
53649W        W96587  12.177   6.541  20.077  0.0877 -0.0269 -0.0185
53650W        W96588  11.516   5.359  16.761  0.2476  0.2778 -0.1871
53651W        W96589  10.728   7.841  17.192  0.0876 -0.0240 -0.0880
53652W        W96590  13.844   4.939  16.064 -0.2726 -0.3095 -0.0590
53653W        W96591  13.396   5.145  15.992 -0.1671 -0.1060  0.1453
53654W        W96592  12.934   7.034  18.532  0.1211 -0.1116  0.2596
53655W        W96593  13.165   4.013  16.700  0.2136  0.3082  0.2363
53656W        W96594  11.142   6.928  16.843 -0.0503 -0.3491  0.1096
53657W        W96595   9.971   5.708  15.807 -0.1862  0.0277  0.3893
53658W        W96596  13.496   5.050  15.446 -0.0017  0.0169 -0.0976
53659W        W96597  12.571   5.800  16.888  0.1438 -0.1555  0.1449
53660W        W96598  14.078   5.426  18.270  0.1043  0.0392  0.3375
53661W        W96599  12.620   4.574  16.072  0.2876  0.1713  0.0573
53662W        W96600  14.064   4.576  17.407 -0.0251  0.0558 -0.1270
53663W        W96601  14.482   2.798  17.305  0.4097  0.0795  0.1223
53664W        W96602  12.297   5.747  20.655  0.3341 -0.0196  0.2954
53665W        W96603  12.372   5.027  18.408  0.1531  0.3882  0.0360
53666W        W96604  12.541   3.533  16.696 -0.3244  0.2025 -0.1408
53667W        W96605  12.193   6.386  18.846  0.2590  0.0033  0.0187
53668W        W96606  12.616   3.907  19.429 -0.2052 -0.2434  0.0065
53669W        W96607  10.366   6.862  20.378  0.1708 -0.1130  0.1970
53670W        W96608  12.725   6.588  16.470  0.2901 -0.2010 -0.4606
53671W        W96609  10.661   5.093  16.749  0.0541 -0.2050  0.0570
53672W        W96610  11.606   6.763  16.943 -0.0427 -0.0907  0.0223
53673W        W96611  14.232   3.288  18.260 -0.1091 -0.2160  0.3930
53674W        W96612  10.984   4.046  16.509 -0.0688 -0.0569 -0.1782
53675W        W96613  13.514   3.607  17.895 -0.0140 -0.5021  0.1575
53676W        W96614  12.814   6.411  17.848  0.2210 -0.0983  0.1685
53677W        W96615  13.444   5.564  18.261 -0.0037  0.3461 -0.1410
53678W        W96616  12.474   6.797  18.560 -0.0790  0.1975  0.1243
53679W        W96617  11.210   3.499  16.006 -0.0393  0.1236 -0.1076
53680W        W96618  14.938   5.093  17.168  0.3474  0.0849  0.2057
53681W        W96619  12.884   4.481  17.943 -0.2018 -0.0397 -0.3902
53682W        W96620  13.751   3.957  17.628  0.0277  0.2076 -0.0145
53683W        W96621  11.421   3.979  16.156  0.3734 -0.0400 -0.0430
53684W        W96622  15.521   4.414  16.116  0.2375 -0.0240 -0.1855
53685W        W96623  13.647   7.073  20.043 -0.0911  0.1474 -0.0577
53686W        W96624  11.706   5.844  17.545 -0.1539  0.1456 -0.0768
53687W        W96625  11.033   4.559  16.531 -0.0284 -0.2898 -0.1319
53688W        W96626  14.180   5.633  18.758 -0.2070 -0.0907 -0.1182
53689W        W96627  12.164   4.977  16.295  0.0067  0.1828 -0.0091
53690W        W96628  14.363   8.011  19.962  0.0284 -0.1006  0.0748
53691W        W96629  11.683   4.003  18.162 -0.1296 -0.3017 -0.1673
53692W        W96630  13.789   2.099  15.964 -0.0159 -0.0814 -0.0359
53693W        W96631  11.545   4.412  16.408  0.2035  0.1601  0.2412
53694W        W96632  12.076   4.485  17.609  0.0366 -0.0014 -0.2371
53695W        W96633  13.814   6.827  18.275 -0.1588  0.0249  0.1966
53696W        W96634  11.428   4.090  19.084 -0.1412  0.3837 -0.2061
53697W        W96635  13.750   5.693  16.477  0.0771 -0.3278 -0.0787
53698W        W96636  15.731   3.765  18.870  0.0312 -0.4761  0.1229
53699W        W96637  11.585   7.997  15.623 -0.0099 -0.2164 -0.0613
53700W        W96638  13.437   5.180  16.507 -0.3249  0.4382  0.1451
53701W        W96639  13.854   5.834  18.397 -0.2090 -0.0162  0.1075
53702W        W96640  11.242   3.864  18.330 -0.2103  0.2272  0.0214
53703W        W96641  13.683   6.695  17.837  0.0112 -0.0325  0.0171
53704W        W96642  14.011   5.810  17.367 -0.2748 -0.2489  0.1415
53705W        W96643  13.378   2.842  16.755  0.1311  0.1167 -0.0870
53706W        W96644  12.431   4.871  17.453 -0.1010 -0.0467  0.2361
53707W        W96645  11.448   6.685  16.461 -0.0383  0.2345 -0.0441
53708W        W96646  13.669   5.088  18.158  0.3880  0.0008  0.1132
53709W        W96647  12.990   3.198  19.977  0.1232  0.1440  0.3441
53710W        W96648  12.136   5.199  15.553  0.0575  0.0962 -0.1689
53711W        W96649  13.369   3.102  18.212 -0.2200  0.0808 -0.1613
53712W        W96650  13.804   6.143  20.584  0.0985  0.4456  0.1276
53713W        W96651  13.219   6.771  20.956 -0.3553 -0.0862 -0.0383
53714W        W96652  11.167   5.285  17.545  0.2292  0.0039 -0.0357
53715W        W96653  13.393   6.138  19.542 -0.5244 -0.1935 -0.0464
53716W        W96654  12.344   5.959  16.017 -0.0771 -0.0532 -0.0172
53717W        W96655  12.203   6.444  16.589  0.0285  0.0861  0.0356
53718W        W96656  14.316   7.248  17.221  0.0605 -0.0559 -0.3175
53719W        W96657  12.974   5.287  16.635 -0.0203 -0.0756 -0.0934
53720W        W96658  14.413   7.586  17.912  0.0307 -0.0946  0.1436
53721W        W96659  11.553   3.573  17.981  0.1031 -0.1221 -0.0194
53722W        W96660  14.413   2.521  17.713 -0.0872  0.1493  0.0255
53723W        W96661  14.094   4.042  15.685  0.1585 -0.1682 -0.0430
53724W        W96662  12.953   5.527  17.910 -0.1572 -0.0596  0.0038
53725W        W96663  10.786   3.808  17.747 -0.0288 -0.1418 -0.1347
53726W        W96664  12.394   5.463  16.053 -0.2252  0.0460 -0.0937
53727W        W96665  11.370   4.626  16.902  0.0604  0.0408  0.0940
53728W        W96666  13.291   1.901  19.265 -0.0618 -0.1472  0.1774
53729W        W96667  11.788   4.961  19.263  0.1588  0.2783 -0.2264
53730W        W96668  12.165   5.007  17.903  0.2240 -0.0405  0.0152
53731W        W96669  11.866   4.087  16.386 -0.1049 -0.3360  0.0072
53732W        W96670  13.770   5.842  16.970 -0.0155  0.1219 -0.2618
53733W        W96671  11.662   3.165  18.251  0.1937 -0.4129  0.2412
53734W        W96672  10.738   3.489  17.396 -0.1096  0.1948 -0.1081
53735W        W96673  13.040   5.391  18.455 -0.3866  0.1260  0.0379
53736W        W96674  13.330   6.062  17.071  0.0194 -0.1088 -0.0021
53737W        W96675  11.765   3.170  17.057  0.1397 -0.1626 -0.1463
53738W        W96676  14.157   5.274  20.348 -0.3760 -0.2622 -0.0597
53739W        W96677  10.557   4.603  16.810 -0.2747 -0.1492 -0.1460
53740W        W96678  13.621   2.630  18.875 -0.0449  0.0512  0.0920
53741W        W96679  12.315   2.615  20.414  0.0042  0.1753  0.1442
53742W        W96680  10.490   4.067  15.421 -0.5194 -0.1220 -0.2088
53743W        W96681  13.294   4.492  16.983 -0.0038  0.4933  0.2609
53744W        W96682  12.927   5.411  17.131  0.0986  0.1231 -0.0467
53745W        W96683  14.558   7.789  16.526  0.0544  0.1449 -0.1967
53746W        W96684  13.284   5.717  19.244  0.3401  0.1252 -0.3850
53747W        W96685  12.014   6.853  18.842  0.4349 -0.2598 -0.4436
53748W        W96686  10.334   3.396  17.110 -0.2515 -0.0412 -0.3019
53749W        W96687  12.434   5.303  16.545  0.1831 -0.2923  0.4338
53750W        W96688  12.171   6.221  19.692  0.1732  0.1942 -0.1389
53751W        W96689  15.919   5.536  17.259  0.4462 -0.2417 -0.0710
53752W        W96690  14.341   3.065  17.786  0.0777 -0.3238 -0.2994
53753W        W96691  12.891   5.449  15.975 -0.0355 -0.0704  0.1604
53754W        W96692  10.730   3.692  19.851 -0.0213  0.2132 -0.0504
53755W        W96693  12.044   4.299  18.496  0.0326  0.0904 -0.0215
53756W        W96694  13.471   4.926  17.577  0.3544 -0.0544  0.0047
53757W        W96695  12.887   2.792  16.878 -0.2608  0.1285  0.1750
53758W        W96696  14.914   4.029  16.664 -0.0358 -0.3121 -0.1433
53759W        W96697  13.633   6.553  16.768  0.2573  0.1124  0.2849
53760W        W96698  11.636   5.383  17.902 -0.0436 -0.0931 -0.1741
53761W        W96699  11.998   3.730  16.751 -0.1472  0.0170 -0.2013
53762W        W96700  12.254   4.888  19.042  0.0093  0.0785 -0.0686
53763W        W96701  14.248   5.986  19.179 -0.2199  0.1176 -0.3370
53764W        W96702  13.313   5.692  19.814  0.2470 -0.1318  0.0193
53765W        W96703  12.709   3.237  17.749 -0.1903  0.2577  0.2140
53766W        W96704  13.960   4.179  17.099  0.0829  0.0010  0.3812
53767W        W96705  13.080   8.413  17.975 -0.2038  0.4359 -0.0487
53768W        W96706  13.439   7.403  18.824 -0.2654 -0.2736 -0.2670
53769W        W96707  13.431   6.927  18.609  0.1335  0.3608  0.1255
53770W        W96708  13.313   4.919  18.540 -0.1208  0.1097 -0.0244
53771W        W96709  11.797   3.428  18.688 -0.0427  0.0557  0.2097
53772W        W96710   9.944   5.953  18.008  0.1354 -0.2532  0.1206
53773W        W96711  11.888   4.568  16.699 -0.2245  0.2690 -0.2232
53774W        W96712  12.622   3.961  17.888  0.1433  0.0995 -0.1049
53775W        W96713  11.302   4.564  17.431  0.0235 -0.0832 -0.0092
53776W        W96714  13.926   3.473  17.224 -0.0173 -0.0041  0.1190
53777W        W96715  11.945   7.064  17.241  0.0228  0.0121  0.0169
53778W        W96716  14.147   6.465  18.930 -0.1265  0.0624 -0.3103
53779W        W96717  11.753   5.768  23.597  0.3176  0.0405 -0.1433
53780W        W96718  11.313   4.253  20.858 -0.0887  0.3283 -0.1803
53781W        W96719  14.549   3.075  19.113 -0.0594 -0.1210  0.0264
53782W        W96720  15.155   4.018  20.746  0.0425  0.3079 -0.1670
53783W        W96721  11.534   5.631  20.557 -0.0275  0.0898 -0.2363
53784W        W96722  13.682   7.637  21.204  0.3016  0.0218  0.0268
53785W        W96723  10.772   3.573  21.855 -0.2094  0.1227 -0.0829
53786W        W96724  12.838   7.247  22.511 -0.2022 -0.0712  0.1336
53787W        W96725  13.689   7.690  22.701  0.0286 -0.3414  0.1604
53788W        W96726  13.707   5.355  20.461 -0.0505 -0.1968  0.3243
53789W        W96727  11.616   5.100  24.374  0.2917 -0.1409  0.0074
53790W        W96728  12.265   5.967  22.756  0.1284  0.0004 -0.0946
53791W        W96729  12.841   3.960  20.651 -0.0111  0.0991  0.0419
53792W        W96730  11.706   3.664  21.533 -0.1808 -0.1561 -0.1730
53793W        W96731  14.184   6.326  22.196  0.3264 -0.0892 -0.3709
53794W        W96732  11.146   4.042  20.048 -0.2103 -0.2414 -0.2278
53795W        W96733  11.263   4.544  23.390 -0.0521  0.0992 -0.0389
53796W        W96734  12.295   3.514  22.337 -0.0383 -0.3144 -0.2022
53797W        W96735  12.614   5.747  22.997  0.0577 -0.3003 -0.0039
53798W        W96736  12.272   3.708  24.168  0.0008  0.1443  0.1997
53799W        W96737  12.240   3.998  23.773  0.1383  0.0352  0.1312
53800W        W96738  11.907   4.911  20.502 -0.1719  0.1427 -0.1786
53801W        W96739  11.108   4.793  20.878  0.4571 -0.1576  0.1823
53802W        W96740  10.900   6.575  21.498 -0.2709 -0.0321 -0.1086
53803W        W96741  12.749   5.125  23.782  0.4065  0.1474 -0.0847
53804W        W96742  12.245   3.599  23.434  0.0591 -0.3528 -0.1425
53805W        W96743  14.469   3.317  21.087 -0.1823 -0.2027  0.0206
53806W        W96744  13.640   5.608  22.720 -0.0689  0.0297  0.0170
53807W        W96745  13.274   5.622  23.020 -0.0002 -0.1124  0.0165
53808W        W96746  14.049   5.289  24.228 -0.0206  0.4826 -0.3567
53809W        W96747  10.772   4.841  23.185 -0.0877 -0.0348 -0.1748
53810W        W96748  11.250   6.646  21.878  0.1196 -0.2200 -0.3080
53811W        W96749  13.036   6.361  21.318 -0.1645 -0.0444 -0.3101
53812W        W96750  15.230   7.559  21.858  0.0376  0.1790  0.2073
53813W        W96751  13.761   7.856  23.219  0.0551  0.4977 -0.0164
53814W        W96752  12.655   7.053  23.369 -0.3461 -0.0450  0.4913
53815W        W96753  11.884   6.198  19.203  0.0675 -0.2440  0.1212
53816W        W96754  12.076   5.684  23.105  0.0442  0.2056  0.1724
53817W        W96755  11.609   7.063  23.030  0.0186  0.1418 -0.0146
53818W        W96756  11.651   3.939  24.486  0.2400 -0.1269 -0.0060
53819W        W96757  12.269   3.862  21.443  0.1643  0.2523  0.3660
53820W        W96758  13.611   5.757  20.859  0.0571  0.2936  0.0341
53821W        W96759  13.640   5.072  20.877 -0.2731 -0.0775 -0.0829
53822W        W96760  10.081   6.101  23.458  0.1137 -0.1451 -0.2311
53823W        W96761  11.050   4.503  21.364 -0.0021 -0.2697 -0.2541
53824W        W96762  14.325   3.235  24.354 -0.4332  0.1433  0.1652
53825W        W96763  11.367   6.330  19.537  0.2486  0.3643  0.1210
53826W        W96764  13.904   5.347  19.134  0.1961  0.2283  0.0464
53827W        W96765  11.597   4.920  19.987 -0.2409 -0.0715 -0.0549
53828W        W96766  13.456   4.161  19.750  0.0970 -0.0473 -0.1692
53829W        W96767  12.892   3.436  22.783  0.0115  0.0454 -0.0237
53830W        W96768  12.532   5.521  21.616  0.1520 -0.2765  0.2253
53831W        W96769  10.221   4.775  23.118 -0.1970  0.1856 -0.0356
53832W        W96770  14.423   6.097  24.310 -0.0625  0.0274  0.1238
53833W        W96771  11.769   4.306  20.390 -0.2187 -0.0458 -0.0821
53834W        W96772  13.211   4.988  22.295 -0.0600 -0.0699 -0.3052
53835W        W96773  11.466   5.356  23.569 -0.0625 -0.1784 -0.0549
53836W        W96774  11.539   4.039  23.525 -0.0943 -0.2103 -0.0116
53837W        W96775  14.237   6.801  20.351  0.1411  0.1664 -0.1297
53838W        W96776  15.378   7.095  22.079 -0.1650 -0.0534 -0.3645
53839W        W96777  13.707   5.261  19.975 -0.2918  0.2369 -0.0467
53840W        W96778  10.974   3.820  20.539  0.2539  0.0549  0.0926
53841W        W96779  11.593   6.029  23.177  0.2190 -0.0545 -0.1350
53842W        W96780  11.611   5.137  21.881 -0.1418 -0.1063  0.0257
53843W        W96781  12.161   4.012  18.063 -0.2043  0.2800  0.0402
53844W        W96782  14.035   6.142  23.302 -0.0346 -0.1416 -0.0895
53845W        W96783  10.144   6.415  23.030  0.1466 -0.0267  0.1341
53846W        W96784  12.897   4.558  20.527  0.1708 -0.0193 -0.0212
53847W        W96785  13.860   5.112  22.035 -0.1488  0.0350 -0.0386
53848W        W96786  13.469   5.337  22.028 -0.0398 -0.1740 -0.2181
53849W        W96787  14.020   5.146  19.602 -0.1626 -0.2469  0.2154
53850W        W96788  13.106   4.173  23.367 -0.2618 -0.1849  0.2714
53851W        W96789  13.597   3.838  23.352 -0.2667 -0.1908  0.3298
53852W        W96790  12.318   5.348  20.206  0.1611  0.0145 -0.0600
53853W        W96791  12.293   4.399  21.300  0.1883  0.2385 -0.0057
53854W        W96792  15.039   5.418  23.830 -0.1025  0.0170  0.0673
53855W        W96793  12.612   5.064  19.878  0.0939 -0.2391  0.0269
53856W        W96794  11.228   6.267  22.695 -0.1711  0.0429 -0.2519
53857W        W96795  12.098   4.433  24.061  0.0170 -0.0665 -0.2373
53858W        W96796  11.902   6.281  23.549  0.0201  0.1250 -0.0285
53859W        W96797  10.900   6.919  20.080  0.1981 -0.2018 -0.1280
53860W        W96798  12.005   6.474  22.305  0.3140  0.1318  0.2895
53861W        W96799  12.976   6.093  19.990  0.1771  0.4565  0.0108
53862W        W96800  10.434   3.026  21.791 -0.0321 -0.0788 -0.1243
53863W        W96801  11.246   5.464  24.107 -0.0249 -0.3419 -0.1411
53864W        W96802  12.380   3.988  20.943  0.1018  0.0824 -0.2844
53865W        W96803  11.726   4.410  24.386  0.1711  0.3909  0.1771
53866W        W96804  14.348   4.440  21.421  0.1698 -0.1982  0.0840
53867W        W96805  12.042   4.979  22.069  0.1340  0.0969  0.0648
53868W        W96806  14.459   6.759  20.868  0.1457 -0.1931 -0.0146
53869W        W96807  14.134   3.771  20.895 -0.1423  0.2393 -0.1461
53870W        W96808  13.853   4.684  21.727  0.0146  0.2199  0.0512
53871W        W96809  11.260   4.978  23.790  0.3556  0.2248 -0.0061
53872W        W96810  12.194   4.133  22.704 -0.1619  0.3918 -0.1744
53873W        W96811  10.792   3.432  23.613 -0.1620 -0.0655 -0.2515
53874W        W96812  10.274   5.639  22.629 -0.2132 -0.2721  0.0896
53875W        W96813  13.245   4.926  23.980 -0.0770 -0.0807  0.1751
53876W        W96814  11.174   3.297  20.533  0.1056  0.0581  0.3036
53877W        W96815  13.779   4.434  20.773  0.3586 -0.0020  0.0060
53878W        W96816  11.250   3.205  21.457  0.0991  0.2231 -0.1375
53879W        W96817  11.460   5.136  20.608 -0.1941 -0.1013  0.1153
53880W        W96818  15.290   5.378  24.262 -0.0500 -0.2886  0.2837
53881W        W96819  13.559   6.544  21.676 -0.0910 -0.0642  0.2469
53882W        W96820  14.578   7.924  24.081 -0.0317 -0.3508 -0.0172
53883W        W96821  15.541   6.446  21.541 -0.0872  0.0481 -0.0731
53884W        W96822  11.499   5.347  24.996  0.0404 -0.1623  0.4655
53885W        W96823  10.130   4.019  19.848  0.3436  0.1320 -0.0251
53886W        W96824  11.914   7.456  22.123  0.0456 -0.0341 -0.1748
53887W        W96825  12.538   7.043  22.853  0.0252  0.0434  0.1168
53888W        W96826  11.548   3.326  21.099 -0.3165 -0.2730  0.5153
53889W        W96827  13.399   8.085  23.012  0.0815 -0.3448  0.0622
53890W        W96828  13.196   4.963  21.213 -0.2298  0.0533  0.0027
53891W        W96829  11.098   5.735  21.622  0.3181  0.1604  0.0827
53892W        W96830  12.374   4.083  22.249 -0.1644 -0.2971 -0.2242
53893W        W96831  14.867   4.882  21.798 -0.0987  0.0877 -0.1371
53894W        W96832  13.642   5.231  21.529 -0.0238  0.2039 -0.1283
53895W        W96833  11.161   2.702  19.105 -0.0792 -0.0096  0.2068
53896W        W96834  14.505   7.174  22.337  0.0167  0.0618  0.1771
53897W        W96835  12.410   6.555  21.871 -0.2140  0.0782 -0.1269
53898W        W96836  11.309   4.074  21.413 -0.1949 -0.0505 -0.2155
53899W        W96837  12.720   6.633  20.757  0.0247 -0.0637  0.2504
53900W        W96838  14.528   4.435  21.952  0.1456 -0.2716 -0.1376
53901W        W96839   9.078   5.922  23.368 -0.0247  0.0892  0.0299
53902W        W96840  14.809   5.088  22.807 -0.2869  0.1345 -0.1093
53903W        W96841  12.621   6.426  19.714  0.1113 -0.2220 -0.0954
53904W        W96842  10.981   5.330  23.270  0.0300  0.0045  0.1343
53905W        W96843  11.859   4.191  21.705 -0.1509 -0.1702 -0.0305
53906W        W96844  13.217   3.639  20.571 -0.1436  0.0236 -0.2875
53907W        W96845  11.503   6.505  23.664 -0.1967 -0.2673 -0.3195
53908W        W96846  13.957   6.673  20.794 -0.0211 -0.0866  0.0084
53909W        W96847  12.928   5.078  20.377  0.0683  0.1666 -0.1178
53910W        W96848  12.944   1.839  20.930  0.3598 -0.1698 -0.0690
53911W        W96849  11.376   7.240  23.504  0.0438 -0.0243 -0.0392
53912W        W96850  12.931   7.053  21.408 -0.1255  0.1625  0.2866
53913W        W96851  13.133   5.135  23.480 -0.0793 -0.1416  0.1007
53914W        W96852  12.076   3.218  19.903  0.1513  0.1729 -0.3036
53915W        W96853  14.461   5.903  19.641  0.0485  0.1456 -0.2055
53916W        W96854  11.052   6.383  20.943 -0.1583 -0.0598 -0.1113
53917W        W96855  11.814   5.579  24.598 -0.0882 -0.0274  0.0301
53918W        W96856  13.336   5.523  21.214  0.0807 -0.5252  0.1352
53919W        W96857  13.697   3.838  24.910  0.1286 -0.0425 -0.2775
53920W        W96858  12.356   4.507  20.530  0.0348 -0.2133  0.0982
53921W        W96859  12.632   4.408  20.922 -0.1060 -0.3036 -0.1400
53922W        W96860  11.242   7.340  20.302  0.5193  0.1385  0.0496
53923W        W96861  13.779   4.276  23.508  0.2762 -0.0539 -0.2053
53924W        W96862  14.228   5.334  23.046  0.1513  0.1173  0.0620
53925W        W96863  13.516   4.823  23.560 -0.1479 -0.2252 -0.0837
53926W        W96864  13.992   4.682  23.350 -0.1168  0.2165  0.1445
53927W        W96865  13.310   4.696  20.777 -0.0122 -0.1099  0.0155
53928W        W96866  13.517   6.820  22.456 -0.2040  0.2928 -0.0911
53929W        W96867  11.297   5.102  19.246  0.4589 -0.0442 -0.0789
53930W        W96868  13.491   4.564  24.318  0.0380  0.2138 -0.1088
53931W        W96869  12.037   4.908  23.145 -0.1457  0.0286 -0.0310
53932W        W96870  10.309   7.684  21.454 -0.1424  0.1795 -0.0814
53933W        W96871  13.207   5.749  22.326 -0.0139  0.3637 -0.2039
53934W        W96872  13.406   6.041  21.330 -0.1609  0.1605 -0.0155
53935W        W96873  11.828   4.863  24.009 -0.2327  0.0763 -0.0587
53936W        W96874  11.598   3.265  20.213  0.3380 -0.1800  0.2035
53937W        W96875  13.352   5.919  20.487  0.2746  0.3405 -0.4540
53938W        W96876  13.240   6.363  20.308  0.0672  0.2083  0.0465
53939W        W96877  12.434   2.782  24.515  0.1210 -0.0565  0.0568
53940W        W96878  13.033   6.957  22.986  0.0105 -0.0136 -0.0639
53941W        W96879  12.821   6.877  20.054  0.4318 -0.1858  0.2417
53942W        W96880  11.969   4.362  23.591  0.2558  0.1607  0.3295
53943W        W96881  11.876   6.026  21.936 -0.3344 -0.1890 -0.0730
53944W        W96882  14.445   3.819  22.750 -0.2238 -0.1445  0.2171
53945W        W96883  12.243   5.956  22.254 -0.0121 -0.0363  0.1211
53946W        W96884  11.559   4.327  19.953 -0.0986 -0.1965 -0.1307
53947W        W96885  10.201   4.963  20.249  0.2138  0.1393 -0.0518
53948W        W96886  12.069   3.576  21.070  0.1264 -0.0173 -0.0907
53949W        W96887  13.899   6.773  22.104  0.1556 -0.0725 -0.3028
53950W        W96888  10.684   4.526  22.796 -0.0837 -0.1967 -0.0619
53951W        W96889  12.947   4.037  23.813  0.0797  0.0306  0.4353
53952W        W96890  11.312   6.231  21.505  0.0351  0.0454 -0.1394
53953W        W96891  13.623   5.071  24.354  0.1808 -0.1226  0.0504
53954W        W96892  13.456   3.086  19.072  0.1862  0.2062 -0.2029
53955W        W96893  12.546   6.824  22.345  0.0274  0.2421  0.1262
53956W        W96894  10.877   4.693  24.518  0.0875 -0.0317  0.0712
53957W        W96895  11.135   4.525  19.097  0.4333 -0.0424 -0.0508
53958W        W96896  15.291   4.291  21.206 -0.0848 -0.1065  0.0456
53959W        W96897  12.559   5.624  22.529  0.0578  0.0856 -0.0450
53960W        W96898  12.522   4.447  19.847 -0.1656 -0.2160 -0.1616
53961W        W96899  13.087   7.705  22.477  0.1323  0.4506 -0.0907
53962W        W96900  11.814   5.295  20.221 -0.4605  0.1641 -0.1382
53963W        W96901  13.101   4.727  23.036  0.0021  0.0330 -0.0165
53964W        W96902  10.444   5.029  24.407  0.1896  0.1750  0.0410
53965W        W96903  13.343   6.392  23.848 -0.2939  0.0402  0.2122
53966W        W96904  13.022   4.540  21.965  0.5101  0.2421  0.2173
53967W        W96905  13.257   3.895  22.914 -0.2123 -0.1076 -0.1024
53968W        W96906  14.335   4.877  21.697 -0.1586 -0.3091  0.0027
53969W        W96907  14.386   6.659  23.956 -0.2470  0.1803 -0.0862
53970W        W96908  12.041   4.492  22.168  0.1184 -0.1266 -0.1931
53971W        W96909  12.102   6.582  24.547 -0.2534  0.1621 -0.2564
53972W        W96910  12.549   2.586  21.864 -0.2245 -0.0866 -0.1652
53973W        W96911  13.965   6.853  21.254  0.0427 -0.4931  0.1552
53974W        W96912  12.472   5.355  23.428 -0.1099  0.1273 -0.3013
53975W        W96913  12.857   4.594  21.369 -0.0539 -0.1734  0.2009
53976W        W96914  11.125   6.658  22.408  0.1820  0.0043  0.0242
53977W        W96915  12.957   5.788  21.447 -0.0042 -0.0483 -0.1519
53978W        W96916  12.768   3.272  21.930 -0.2561 -0.2098 -0.2691
53979W        W96917  10.697   6.369  22.981  0.1457 -0.2474  0.1562
53980W        W96918  12.597   5.745  21.042  0.1244 -0.1275 -0.0861
53981W        W96919  10.951   6.788  23.619 -0.0935 -0.2007 -0.1398
53982W        W96920  12.524   3.967  19.916  0.3232 -0.1117  0.0419
53983W        W96921  14.676   6.573  20.416 -0.0281  0.0469  0.2823
53984W        W96922  12.109   3.778  21.936 -0.0118 -0.1171 -0.1994
53985W        W96923  15.225   4.725  23.083  0.0883 -0.0273 -0.2861
53986W        W96924  14.089   4.874  20.723 -0.0407 -0.1077  0.2379
53987W        W96925  13.236   5.347  24.546 -0.0081  0.1566 -0.1339
53988W        W96926  11.487   4.432  23.902  0.1637 -0.0507 -0.0508
53989W        W96927  14.627   6.063  21.352  0.0161  0.1701 -0.1240
53990W        W96928  11.743   5.335  22.997 -0.1353 -0.0700 -0.3277
53991W        W96929  13.656   7.045  23.968 -0.0126  0.0882  0.0709
53992W        W96930  11.160   5.746  23.642  0.3268 -0.2416 -0.0713
53993W        W96931  11.843   4.714  21.736 -0.1119 -0.0305 -0.1251
53994W        W96932  12.152   3.707  19.658  0.2069 -0.1779 -0.1908
53995W        W96933  12.949   6.094  23.073 -0.1898  0.0602 -0.0356
53996W        W96934  12.787   4.949  21.797  0.0713 -0.2018 -0.0073
53997W        W96935  11.939   4.382  20.830 -0.2900 -0.0090 -0.0229
53998W        W96936  14.838   5.589  21.139  0.1527  0.0290  0.2337
53999W        W96937  12.270   5.417  23.896  0.2275  0.2262  0.0338
54000W        W96938  12.436   4.979  20.488  0.3293  0.0895 -0.2643
54001W        W96939  12.794   4.914  20.877  0.0010 -0.1978  0.0649
54002W        W96940  11.973   5.354  23.483 -0.0266 -0.1617 -0.1411
54003W        W96941  12.076   4.866  22.610 -0.1918 -0.3716  0.0465
54004W        W96942  14.026   5.400  20.870 -0.1250 -0.0092 -0.1126
54005W        W96943  13.853   4.759  23.892 -0.2447  0.1817  0.2723
54006W        W96944  12.371   4.870  21.497  0.4385 -0.2129  0.1573
54007W        W96945  13.144   5.314  21.693 -0.3938  0.0940 -0.1057
54008W        W96946  10.841   5.591  24.745  0.0744 -0.0770  0.1201
54009W        W96947  10.936   3.540  22.717 -0.0379  0.2806 -0.2269
54010W        W96948  13.284   7.409  22.862 -0.0986 -0.2021 -0.0769
54011W        W96949  12.040   3.425  20.360  0.2545  0.0439  0.0305
54012W        W96950  14.175   6.305  22.818 -0.1365 -0.0734  0.1562
54013W        W96951  14.140   5.574  19.928  0.3170 -0.1852 -0.0925
54014W        W96952  12.191   4.180  19.512 -0.4554  0.2248 -0.1002
54015W        W96953  11.771   4.463  22.622 -0.1505  0.1707 -0.1008
54016W        W96954  13.373   4.349  23.817 -0.1651  0.3705  0.0161
54017W        W96955  11.297   4.523  20.367 -0.0034  0.2271  0.2937
54018W        W96956  14.645   4.295  25.060 -0.1928  0.1689  0.3043
54019W        W96957  14.285   6.296  20.613 -0.0659 -0.1225 -0.1038
54020W        W96958  14.111   6.054  21.159  0.0240  0.3047 -0.0298
54021W        W96959  11.399   5.405  21.529  0.1542 -0.0585  0.1362
54022W        W96960  11.227   4.450  22.321  0.1673 -0.0721  0.0096
54023W        W96961  11.456   7.572  22.952  0.0597 -0.0243  0.0558
54024W        W96962  11.262   3.730  19.485  0.1841  0.4275 -0.2141
54025W        W96963  12.782   5.918  20.472  0.0964  0.1834 -0.0996
54026W        W96964  14.677   5.066  21.290 -0.0736  0.2251  0.1347
54027W        W96965  12.723   6.150  23.559  0.0680 -0.0198  0.0369
54028W        W96966  11.474   2.450  20.711 -0.2636 -0.2321  0.0456
54029W        W96967  15.570   5.180  23.392  0.3705 -0.0418 -0.1995
54030W        W96968  11.444   6.998  19.772 -0.0963 -0.0430  0.0697
54031W        W96969  13.704   3.543  21.722 -0.7426  0.0633  0.1566
54032W        W96970  12.097   6.975  22.552  0.1048 -0.3329 -0.1968
54033W        W96971  11.511   5.683  21.932  0.0332  0.2236  0.2876
54034W        W96972  11.154   5.345  22.666  0.1745  0.0716 -0.1761
54035W        W96973  12.193   2.551  21.307 -0.0642  0.2855  0.1828
54036W        W96974  12.518   4.413  21.754  0.1572  0.0842 -0.2239
54037W        W96975  13.302   4.492  21.558 -0.0783 -0.0834  0.0909
54038W        W96976  15.202   4.339  23.675 -0.0999  0.3024 -0.2689
54039W        W96977  12.275   5.832  23.581 -0.0731  0.3878 -0.0876
54040W        W96978  11.128   5.386  22.001  0.0423 -0.1611 -0.0630
54041W        W96979  12.687   6.556  23.006 -0.1087  0.2746 -0.0713
54042W        W96980  13.991   3.794  21.387 -0.2555 -0.0431 -0.1467
54043W        W96981  12.372   5.466  22.075  0.4760  0.0580  0.2910
54044W        W96982  10.096   5.608  24.230 -0.4178  0.2211 -0.2881
54045W        W96983  11.324   4.717  24.322 -0.2545 -0.0719 -0.3709
54046W        W96984  14.130   4.103  21.777 -0.2279 -0.0620 -0.1228
54047W        W96985  11.663   3.750  20.077 -0.0585  0.0005 -0.3119
54048W        W96986  12.405   5.441  19.704 -0.1485  0.0433  0.4809
54049W        W96987  10.580   6.444  22.410 -0.0701 -0.0652  0.2087
54050W        W96988  11.760   5.837  22.387 -0.1143 -0.2153  0.0226
54051W        W96989  12.126   7.011  20.771 -0.2019 -0.2670  0.3292
54052W        W96990  13.998   4.613  19.747 -0.6031 -0.0654  0.2495
54053W        W96991  13.243   5.444  20.272  0.2981 -0.3198  0.0910
54054W        W96992  13.346   7.033  21.911  0.1948 -0.1816 -0.0596
54055W        W96993  11.685   5.942  19.592  0.1003 -0.1424 -0.0379
54056W        W96994  11.359   5.550  23.139 -0.1256  0.1236 -0.2768
54057W        W96995  10.795   8.208  19.527 -0.0600  0.1733 -0.3236
54058W        W96996  13.721   5.761  20.147 -0.0876  0.2763  0.0227
54059W        W96997  11.932   5.466  21.688 -0.2398 -0.1656  0.0624
54060W        W96998  13.314   6.563  22.948  0.1297 -0.0161  0.0086
54061W        W96999  14.154   3.576  18.655 -0.0503 -0.0501 -0.0738
54062W        W97000  13.372   5.799  21.817 -0.1482 -0.2827  0.0891
54063W        W97001  14.089   3.819  18.186  0.0323 -0.0322  0.1707
54064W        W97002  12.120   6.746  23.031 -0.0681 -0.0304  0.1260
54065W        W97003  11.826   5.576  24.121  0.0015  0.2043  0.1515
54066W        W97004  12.622   1.123  20.558 -0.4583 -0.0775 -0.3105
54067W        W97005  11.367   5.877  25.031  0.2020 -0.1196  0.3288
54068W        W97006  14.338   4.572  23.673 -0.0822  0.0146 -0.4877
54069W        W97007  11.443   7.540  22.249 -0.0388 -0.0435  0.1603
54070W        W97008  13.745   6.422  21.187 -0.3558  0.1329  0.0417
54071W        W97009  11.357   5.391  21.019 -0.0624 -0.0020  0.1313
54072W        W97010  12.884   5.343  22.106  0.1131  0.0618 -0.1193
54073W        W97011  13.930   5.525  22.309 -0.2756  0.2567 -0.2151
54074W        W97012  12.190   5.318  19.234  0.2270  0.1598 -0.0192
54075W        W97013  13.646   4.639  22.210  0.3695  0.1509 -0.0929
54076W        W97014  12.475   6.830  20.384  0.3132 -0.1296  0.0145
54077W        W97015  12.105   7.293  21.687  0.2224  0.1240  0.1013
54078W        W97016  13.413   7.327  22.373 -0.0520 -0.0193 -0.3231
54079W        W97017  11.296   3.713  20.904  0.1690 -0.0311 -0.0420
54080W        W97018  16.081   4.752  19.741 -0.0338  0.1368  0.3962
54081W        W97019  12.200   4.863  23.632  0.2502  0.1421  0.1431
54082W        W97020  13.180   5.347  22.610  0.1733 -0.0087  0.0833
54083W        W97021  13.649   5.130  22.521  0.0789 -0.2817  0.0583
54084W        W97022  11.637   3.518  20.658 -0.2756 -0.0277 -0.1188
54085W        W97023  13.008   4.674  23.603  0.1692  0.1214  0.1261
54086W        W97024  10.166   4.875  25.461  0.1190  0.1964  0.0224
54087W        W97025  11.939   3.864  20.663 -0.0479  0.3673  0.1597
54088W        W97026  11.984   4.766  24.493  0.1603  0.0399  0.0358
54089W        W97027  13.747   5.629  19.532  0.1352 -0.1460  0.2087
54090W        W97028  11.558   8.141  23.060 -0.1354 -0.1624  0.1702
54091W        W97029  11.594   3.035  21.890  0.1439 -0.1144  0.0111
54092W        W97030  12.524   4.995  22.196  0.0774  0.3420 -0.2250
54093W        W97031  11.410   4.415  21.801  0.0384 -0.0336  0.1690
54094W        W97032  10.884   5.369  23.747 -0.2423  0.0848  0.0580
54095W        W97033  14.199   7.476  23.248  0.1679 -0.3706  0.0609
54096W        W97034  12.755   4.912  22.682 -0.2569 -0.3132 -0.3098
54097W        W97035  14.957   7.514  19.623  0.2423 -0.0903 -0.0028
54098W        W97036  13.655   4.789  21.274 -0.0726 -0.1314  0.0376
54099W        W97037  13.019   6.570  18.872  0.2624  0.1052  0.0250
54100W        W97038  13.861   5.609  21.822 -0.2311  0.1111 -0.2039
54101W        W97039  12.927   7.341  21.947  0.1718 -0.0610 -0.0266
54102W        W97040  11.180   5.837  22.286 -0.1198  0.0118 -0.1476
54103W        W97041  13.816   7.245  21.478  0.4439  0.2640  0.0730
54104W        W97042  13.777   6.098  21.712 -0.1746  0.2739  0.0349
54105W        W97043  11.427   3.963  20.457  0.0909 -0.0580 -0.1359
54106W        W97044  11.728   3.972  23.980  0.1648  0.0242  0.1709
54107W        W97045  12.030   6.890  21.995  0.1403  0.0500 -0.1769
54108W        W97046  14.229   5.919  21.678  0.1394 -0.2511 -0.1061
54109W        W97047  14.151   4.754  22.202  0.0110 -0.0266  0.1316
54110W        W97048  11.251   8.367  19.343 -0.0639 -0.0942  0.1356
54111W        W97049  14.337   4.631  22.990  0.0991 -0.0691  0.4393
54112W        W97050  12.281   5.740  24.404 -0.1403  0.3463 -0.1254
54113W        W97051  12.245   6.238  23.942 -0.1430  0.0636 -0.2483
54114W        W97052  11.924   5.922  20.295 -0.0390  0.0003  0.1015
54115W        W97053  10.122   6.437  23.915 -0.1174  0.0689  0.2597
54116W        W97054  13.027   6.690  21.726 -0.3935 -0.3136 -0.1346
54117W        W97055  12.050   6.320  21.468  0.1106 -0.2874  0.0809
54118W        W97056  14.153   7.151  21.826  0.0675  0.0005 -0.3972
54119W        W97057  12.408   3.892  20.382 -0.0449  0.0664 -0.3712
54120W        W97058  13.149   6.214  21.748 -0.0541 -0.3112  0.1387
54121W        W97059  12.506   4.489  22.690  0.2578  0.2590  0.1750
54122W        W97060  12.490   3.030  19.726  0.0032 -0.2839  0.0669
54123W        W97061  13.096   3.779  20.030 -0.5293  0.1928 -0.1253
54124W        W97062  14.432   5.039  24.529  0.0763 -0.2872  0.3054
54125W        W97063  11.618   4.996  18.234 -0.0065 -0.0286 -0.0660
54126W        W97064  11.540   5.541  18.369  0.1213 -0.2445  0.2279
54127W        W97065  12.585   4.860  23.280  0.2025  0.0910  0.0630
54128W        W97066  11.527   4.039  22.769  0.1092  0.2119  0.0617
54129W        W97067  11.216   4.504  22.814 -0.4041  0.0092  0.1206
54130W        W97068  10.627   4.899  22.209  0.0667  0.1705  0.0382
54131W        W97069  10.836   3.673  18.734  0.1934  0.1259 -0.1920
54132W        W97070  14.312   4.901  19.975 -0.0213 -0.0086 -0.2393
54133W        W97071  12.011   3.331  21.732 -0.1978 -0.1425 -0.1576
54134W        W97072  11.200   4.957  22.245 -0.2088  0.0324 -0.2455
54135W        W97073  12.738   6.141  22.559 -0.0413  0.0136 -0.0943
54136W        W97074  14.572   7.392  20.683 -0.3850 -0.2866  0.0236
54137W        W97075  12.659   3.597  23.824 -0.1342 -0.0822 -0.1883
54138W        W97076  15.616   7.135  22.638  0.1074  0.0991 -0.4108
54139W        W97077  11.104   5.405  20.311  0.1602 -0.3936  0.1784
54140W        W97078  13.571   4.544  23.115  0.1630 -0.2434  0.0959
54141W        W97079  11.801   3.532  23.666 -0.2662 -0.1702  0.0536
54142W        W97080  11.676   3.947  21.125  0.2141 -0.1318  0.2629
54143W        W97081  11.666   5.355  22.358  0.2499  0.1640  0.0856
54144W        W97082  12.984   6.670  22.572  0.1519 -0.1322  0.1129
54145W        W97083  13.893   6.287  19.364 -0.0668 -0.0389  0.0452
54146W        W97084  12.539   6.743  24.226  0.2723  0.1273  0.1868
54147W        W97085  12.356   6.501  22.656  0.0938  0.0630  0.1762
54148W        W97086  12.137   3.158  22.600  0.2528 -0.0544 -0.3186
54149W        W97087  15.569   6.759  20.150  0.1940  0.0196  0.0543
54150W        W97088  12.221   6.990  23.777 -0.1171  0.1441 -0.2100
54151W        W97089  14.352   5.634  21.265  0.3766 -0.0690 -0.1852
54152W        W97090  13.626   5.150  23.001 -0.1674  0.0389  0.0465
54153W        W97091  13.490   3.990  21.519 -0.1866  0.1708  0.2638
54154W        W97092  11.931   6.146  24.334  0.0983 -0.0823 -0.2967
54155W        W97093  11.943   6.623  23.977  0.0909  0.0856  0.2538
54156W        W97094  12.845   5.606  23.472  0.0447  0.1666 -0.0369
54157W        W97095  11.453   4.839  21.422 -0.1133  0.3339  0.1444
54158W        W97096  13.333   4.104  20.645 -0.0611 -0.1287 -0.1525
54159W        W97097  13.841   5.629  21.295 -0.0628 -0.2671  0.1047
54160W        W97098  11.633   4.718  22.203  0.0213  0.1927  0.3244
54161W        W97099  12.055   4.145  19.977  0.2720  0.0331 -0.3968
54162W        W97100  13.065   5.420  24.017  0.0266 -0.0701  0.0207
54163W        W97101  13.551   7.011  22.923 -0.1434 -0.4139  0.2204
54164W        W97102  13.233   6.207  22.593 -0.2536  0.3092 -0.1336
54165W        W97103  12.305   6.783  19.563 -0.0830  0.1051 -0.3434
54166W        W97104  15.669   5.987  21.178 -0.2290 -0.2958  0.1064
54167W        W97105  12.933   7.902  21.650  0.0729  0.0564 -0.0616
54168W        W97106  13.862   7.218  22.315  0.0654 -0.1861 -0.1809
54169W        W97107  12.595   7.479  23.077  0.0246 -0.3757  0.2263
54170W        W97108  14.962   7.419  22.329  0.1116 -0.1116 -0.2175
54171W        W97109  10.651   2.594  20.845  0.1497  0.2011  0.0752
54172W        W97110  12.701   5.400  20.688  0.0189 -0.2651  0.1900
54173W        W97111  13.375   4.907  21.823 -0.0387 -0.0133 -0.2040
54174W        W97112  15.313   5.530  21.830 -0.0733  0.1836 -0.2660
54175W        W97113  10.496   5.417  21.414 -0.3896 -0.1351  0.0340
54176W        W97114  12.501   3.434  21.464 -0.1473 -0.2076  0.3069
54177W        W97115  12.190   7.837  22.386 -0.1884 -0.0231  0.2778
54178W        W97116  14.204   6.595  21.722  0.1945  0.0374 -0.1755
54179W        W97117  13.064   8.050  25.702  0.0145 -0.0148  0.1656
54180W        W97118  11.484   4.744  25.296 -0.1436  0.3887  0.4358
54181W        W97119  12.628   5.323  24.283  0.2586 -0.1567 -0.0789
54182W        W97120  13.802   6.574  23.013  0.1093  0.0424 -0.2263
54183W        W97121   9.986   5.746  24.730 -0.4699 -0.0077 -0.1523
54184W        W97122  13.333   6.494  25.944  0.1909  0.3363  0.0343
54185W        W97123  10.084   2.685  26.226  0.2352 -0.0739 -0.0564
54186W        W97124  15.165   6.293  26.123  0.2498  0.2727 -0.1881
54187W        W97125  14.381   5.569  26.613 -0.2902  0.0473 -0.0875
54188W        W97126  12.153   4.225  24.535 -0.1618  0.0757 -0.0337
54189W        W97127  11.780   4.326  26.384 -0.0571  0.0650  0.0890
54190W        W97128  12.300   7.973  27.252 -0.1678  0.0529  0.3296
54191W        W97129  10.889   3.664  24.178 -0.2443 -0.3874  0.1166
54192W        W97130   9.730   4.179  25.478  0.1131  0.1331  0.0114
54193W        W97131  12.806   4.608  26.123  0.0746  0.0842 -0.1019
54194W        W97132  10.066   6.261  25.601 -0.0983 -0.1018 -0.1300
54195W        W97133  11.302   5.625  26.391 -0.1809  0.1357 -0.2327
54196W        W97134  12.743   3.878  25.181 -0.2805  0.0584  0.1355
54197W        W97135  13.136   6.608  24.793 -0.2390 -0.1829  0.1670
54198W        W97136  12.709   5.213  25.654 -0.0280 -0.0522  0.0004
54199W        W97137  13.761   3.100  27.165 -0.3518 -0.5331  0.0152
54200W        W97138  11.113   3.243  24.140 -0.0861  0.0587  0.2516
54201W        W97139  10.527   6.022  24.098 -0.4479  0.1742  0.2019
54202W        W97140  10.839   3.836  25.876  0.1737  0.1693  0.1569
54203W        W97141  12.355   5.675  27.035  0.0523 -0.0162  0.3281
54204W        W97142  15.099   5.315  27.110  0.1371 -0.0600 -0.3149
54205W        W97143  14.194   5.673  24.523  0.2833 -0.2370 -0.1612
54206W        W97144  13.881   6.547  26.656 -0.0790  0.3506 -0.2588
54207W        W97145  12.754   7.258  26.114 -0.3453 -0.1747 -0.1678
54208W        W97146  13.554   5.388  25.847 -0.0021  0.1242  0.0740
54209W        W97147   9.832   6.186  26.040  0.0315  0.2105 -0.1305
54210W        W97148  10.735   7.869  26.227  0.0291  0.0740  0.1162
54211W        W97149  12.638   7.223  25.552  0.1527  0.1217  0.1252
54212W        W97150  13.671   5.286  23.926 -0.1807  0.0524 -0.1656
54213W        W97151  13.256   4.460  25.698 -0.2353 -0.0517 -0.1573
54214W        W97152  11.445   7.778  27.123  0.4328 -0.2033  0.0434
54215W        W97153  12.031   7.790  25.032 -0.1375 -0.0797  0.3079
54216W        W97154  13.934   6.972  28.104  0.0589 -0.0136  0.0585
54217W        W97155  12.426   8.431  27.604 -0.0887  0.1615 -0.1101
54218W        W97156  13.475   6.269  26.892  0.1494 -0.0200  0.2246
54219W        W97157  13.560   6.128  26.368 -0.1293  0.0368  0.0540
54220W        W97158  12.261   7.233  24.214 -0.1458 -0.0117  0.1621
54221W        W97159  14.039   6.876  24.302  0.2924 -0.1766  0.0561
54222W        W97160  13.615   7.590  27.615  0.1625  0.1868 -0.0116
54223W        W97161  11.223   7.155  28.288 -0.0390  0.1463 -0.0142
54224W        W97162  14.607   4.754  27.735  0.2131 -0.1057 -0.1156
54225W        W97163  12.304   6.356  24.980  0.0421  0.0010 -0.0120
54226W        W97164  13.585   6.393  23.440  0.2968  0.5342  0.0903
54227W        W97165  12.404   4.901  24.121 -0.1820 -0.1951 -0.1042
54228W        W97166  11.724   3.887  24.962 -0.0879 -0.3646  0.1435
54229W        W97167  13.328   3.652  25.378  0.1913 -0.1339  0.0055
54230W        W97168  12.574   6.291  26.357 -0.1205 -0.0256 -0.1426
54231W        W97169  13.282   4.487  25.125 -0.2166  0.3069  0.5853
54232W        W97170  14.784   5.447  26.165 -0.2540  0.0164 -0.1423
54233W        W97171  12.369   4.754  25.769  0.1799 -0.0277 -0.2600
54234W        W97172  12.294   5.233  26.680  0.1221  0.1904  0.0033
54235W        W97173  12.618   7.199  27.818  0.2743  0.0353  0.3081
54236W        W97174  11.546   6.356  24.605 -0.1311  0.0836 -0.0704
54237W        W97175  13.403   6.874  23.374  0.0847  0.2215 -0.0724
54238W        W97176  13.364   7.062  25.167 -0.2566 -0.0257  0.3803
54239W        W97177  11.866   6.920  23.435  0.0593 -0.2500  0.0026
54240W        W97178  10.729   5.547  24.199 -0.4131  0.0021 -0.2253
54241W        W97179  11.474   4.718  26.518  0.2872 -0.2187 -0.3539
54242W        W97180  12.745   4.308  26.961 -0.2111 -0.3456  0.1302
54243W        W97181  11.338   4.900  24.786  0.0829 -0.0567  0.1150
54244W        W97182  14.982   7.170  27.135  0.1331  0.0536  0.0659
54245W        W97183  10.624   6.272  26.394 -0.1661  0.0147 -0.0484
54246W        W97184  14.162   5.596  23.522 -0.0303  0.2089  0.1382
54247W        W97185  13.743   6.822  27.057 -0.2109  0.0194 -0.2586
54248W        W97186  14.179   6.038  25.543  0.0378  0.2829  0.0905
54249W        W97187  12.382   6.190  23.167  0.1714 -0.2971  0.1387
54250W        W97188  12.825   3.377  25.022 -0.3195  0.0375  0.0026
54251W        W97189  13.965   2.275  26.660 -0.2010 -0.0417 -0.1155
54252W        W97190   9.869   6.875  23.675 -0.0979  0.1799 -0.2234
54253W        W97191  11.947   6.450  25.273  0.1980 -0.0494 -0.0628
54254W        W97192  13.500   5.519  27.140 -0.0049  0.1530  0.1998
54255W        W97193  12.476   4.957  24.646  0.0233  0.0545  0.0671
54256W        W97194  10.161   6.194  24.995 -0.0243 -0.2201  0.0102
54257W        W97195  13.504   4.058  26.902  0.0114 -0.2392  0.1328
54258W        W97196  13.816   6.906  28.700  0.2924 -0.0755 -0.0225
54259W        W97197  12.637   7.314  23.861 -0.4735 -0.0384 -0.3236
54260W        W97198  11.873   6.288  25.818  0.0500 -0.2452  0.0787
54261W        W97199   9.357   6.643  24.783  0.0173  0.0992  0.0667
54262W        W97200  11.009   5.655  27.299  0.3127 -0.0405 -0.0567
54263W        W97201  12.691   7.806  26.181  0.1499 -0.1396  0.3942
54264W        W97202  14.375   3.601  25.441 -0.1322  0.1870  0.2231
54265W        W97203  11.343   4.471  27.834  0.0871  0.1732 -0.0555
54266W        W97204  13.744   3.176  25.642  0.0119  0.1192  0.0478
54267W        W97205  10.877   7.194  24.684 -0.0854 -0.1354  0.1411
54268W        W97206  14.227   7.762  24.891  0.0419  0.1227  0.0912
54269W        W97207  12.889   5.781  24.366 -0.2059  0.1009  0.1744
54270W        W97208  12.350   5.865  24.861  0.5277 -0.0372  0.1724
54271W        W97209  12.629   6.658  27.164  0.2214 -0.1365 -0.2060
54272W        W97210  11.677   5.244  26.489 -0.0704 -0.1456  0.0042
54273W        W97211  12.993   3.466  28.721 -0.0448 -0.2497  0.2496
54274W        W97212   9.240   4.237  25.476 -0.1286  0.4660 -0.0164
54275W        W97213  13.233   6.849  26.975  0.1458  0.1335  0.0862
54276W        W97214  11.253   4.116  24.263 -0.0626 -0.3112 -0.0974
54277W        W97215  14.017   5.680  23.991 -0.0041  0.1779  0.3398
54278W        W97216  13.207   6.110  25.626  0.0755  0.3642  0.3207
54279W        W97217   9.258   6.180  24.852 -0.0921 -0.4056 -0.1699
54280W        W97218  13.988   4.096  26.990 -0.0153 -0.2124  0.3090
54281W        W97219  13.978   6.355  26.103 -0.0983  0.1458  0.0972
54282W        W97220  15.416   7.429  27.068 -0.0703  0.0014  0.2080
54283W        W97221  13.794   7.782  24.484 -0.0367 -0.0028 -0.0523
54284W        W97222  11.237   2.811  26.023 -0.0028 -0.0735  0.0768
54285W        W97223  10.405   3.855  24.346  0.0520 -0.1270  0.2378
54286W        W97224  12.471   6.787  25.148  0.4672  0.0093  0.1710
54287W        W97225  13.621   7.344  26.058 -0.1396  0.1320  0.1378
54288W        W97226  10.995   4.543  24.015  0.1989  0.0682  0.1044
54289W        W97227  14.349   6.626  24.782  0.1298 -0.1431 -0.0546
54290W        W97228  12.746   4.105  25.887  0.1980 -0.2186  0.0057
54291W        W97229  11.219   5.114  26.291 -0.0466  0.1656  0.1551
54292W        W97230  15.028   3.496  26.271  0.3592  0.1006 -0.0783
54293W        W97231  14.520   5.179  27.415  0.0825  0.0081 -0.1052
54294W        W97232  13.245   3.958  25.906 -0.4764 -0.2426 -0.0484
54295W        W97233   9.970   5.113  24.391  0.0933 -0.0850 -0.0593
54296W        W97234  14.828   6.294  25.719 -0.2231 -0.2378 -0.0088
54297W        W97235  11.471   7.292  24.423  0.1043 -0.1327 -0.0738
54298W        W97236   9.884   5.807  25.342 -0.0977  0.3343 -0.1530
54299W        W97237  11.789   6.884  26.392 -0.2022  0.0470 -0.2264
54300W        W97238  14.272   4.618  24.875  0.0142  0.0307 -0.1000
54301W        W97239  10.804   5.499  26.864 -0.0363  0.3395  0.1169
54302W        W97240  13.302   6.023  27.256  0.0330  0.0137 -0.2255
54303W        W97241  10.305   5.730  23.730  0.2715  0.0131  0.0003
54304W        W97242  13.781   7.513  26.506 -0.0260  0.0301 -0.2036
54305W        W97243  14.327   3.873  24.950  0.0577 -0.0353  0.0454
54306W        W97244  14.778   4.218  26.772 -0.1701 -0.1336  0.0007
54307W        W97245  14.145   4.748  27.566  0.3968 -0.0479 -0.2765
54308W        W97246  13.345   5.668  25.424  0.1558 -0.0468 -0.1537
54309W        W97247  12.273   4.585  24.842  0.0323  0.2555  0.0467
54310W        W97248  12.283   2.245  24.141 -0.0289  0.1690  0.0330
54311W        W97249  11.044   5.153  27.308  0.0206  0.0627 -0.1555
54312W        W97250  13.089   6.233  26.258  0.1697 -0.1499 -0.1115
54313W        W97251  13.813   5.538  26.351 -0.1028  0.0823  0.3664
54314W        W97252  11.655   3.438  24.146  0.0825  0.0624 -0.0617
54315W        W97253  13.721   8.214  23.893  0.0876  0.1766  0.1486
54316W        W97254  11.515   6.037  26.564 -0.4466 -0.3544  0.0214
54317W        W97255  13.230   6.432  27.753  0.1821 -0.2184 -0.1262
54318W        W97256  12.788   6.195  24.855  0.1211 -0.1439 -0.2465
54319W        W97257  13.074   5.029  26.360  0.1088 -0.0453 -0.1116
54320W        W97258  11.608   5.146  25.547  0.1098  0.1082 -0.1034
54321W        W97259  13.021   3.934  27.761 -0.1644  0.2624  0.1220
54322W        W97260  11.761   8.187  25.018  0.2345 -0.2345 -0.1609
54323W        W97261  14.332   3.708  26.787  0.0908 -0.1727 -0.0364
54324W        W97262  14.200   2.929  26.119 -0.1978  0.0368  0.1374
54325W        W97263  12.075   3.559  27.029 -0.0957  0.1615  0.0149
54326W        W97264  14.978   6.443  28.519  0.2311 -0.3243  0.1470
54327W        W97265  13.422   5.883  25.993  0.0480  0.1743  0.0558
54328W        W97266  13.703   4.294  26.438  0.2044 -0.0637 -0.1632
54329W        W97267  11.066   5.975  24.235  0.1218 -0.1685  0.0539
54330W        W97268  14.321   3.135  27.433  0.1005  0.2743 -0.1897
54331W        W97269  12.082   4.817  26.347 -0.1271 -0.1100  0.4913
54332W        W97270  12.289   6.787  27.569  0.1943 -0.2595 -0.1479
54333W        W97271  13.983   5.128  25.838  0.0019 -0.2635 -0.0673
54334W        W97272  14.135   5.964  26.366 -0.2786 -0.1268  0.0704
54335W        W97273  15.290   4.513  27.311 -0.0566  0.0176 -0.3043
54336W        W97274  12.650   3.903  24.691  0.1026 -0.0775 -0.2289
54337W        W97275  12.582   5.826  23.993 -0.0911  0.0708 -0.1551
54338W        W97276   9.617   6.449  23.811  0.0604  0.0246 -0.2012
54339W        W97277  12.350   4.383  26.127 -0.2120  0.2000 -0.1104
54340W        W97278  13.232   7.578  25.133 -0.0211 -0.2704  0.2404
54341W        W97279  12.645   6.663  24.678 -0.4570 -0.0032 -0.1121
54342W        W97280  14.074   7.196  26.761  0.0270  0.1283  0.0467
54343W        W97281  13.735   7.274  24.503 -0.1112  0.1352  0.1000
54344W        W97282  14.640   3.201  26.006  0.0092  0.2178 -0.3079
54345W        W97283  11.583   6.807  25.393  0.2726  0.1918 -0.2412
54346W        W97284  10.790   5.122  24.915  0.3050  0.0242  0.1055
54347W        W97285  10.454   4.649  24.823  0.1458 -0.0544  0.1178
54348W        W97286  14.111   3.831  26.233  0.1620  0.1917  0.0484
54349W        W97287  13.108   6.231  24.434 -0.2657 -0.1877 -0.3209
54350W        W97288  11.625   4.892  26.005 -0.2327  0.2890 -0.0542
54351W        W97289  12.767   4.894  26.791 -0.1671 -0.3462 -0.4744
54352W        W97290  11.573   6.641  27.318 -0.0018 -0.2986  0.2121
54353W        W97291  12.921   5.684  27.139  0.0277 -0.0494 -0.0265
54354W        W97292  14.718   4.897  23.708 -0.3505  0.1043 -0.1695
54355W        W97293  13.218   5.851  26.772 -0.2511  0.1718 -0.1094
54356W        W97294  12.197   5.972  30.179 -0.1960 -0.1210  0.0998
54357W        W97295  10.344   4.730  26.022  0.2738 -0.3882  0.0506
54358W        W97296  13.761   4.508  27.231 -0.0429  0.1819  0.0174
54359W        W97297  11.636   6.090  25.436  0.2247  0.2753  0.2102
54360W        W97298   9.854   6.544  24.718 -0.3234  0.2237 -0.1938
54361W        W97299  13.707   8.435  26.462 -0.0615 -0.0820 -0.0846
54362W        W97300  13.036   5.630  25.821  0.0119 -0.0951  0.0194
54363W        W97301  12.655   6.227  25.329 -0.0887 -0.2139  0.1615
54364W        W97302  12.601   6.029  28.129  0.0691 -0.1319 -0.1322
54365W        W97303  12.773   5.419  26.610 -0.2378 -0.1106 -0.1163
54366W        W97304  13.111   5.339  25.148 -0.2663 -0.0628 -0.2213
54367W        W97305  12.030   4.445  25.297  0.0446  0.2949  0.2020
54368W        W97306  12.846   5.788  26.287  0.1648  0.4969 -0.0881
54369W        W97307  13.972   5.090  24.849 -0.1822  0.2635  0.0316
54370W        W97308  12.348   4.841  27.836  0.0246  0.2062 -0.0492
54371W        W97309  13.334   7.233  27.282  0.0469  0.1713  0.0913
54372W        W97310  13.419   3.366  25.993  0.0939 -0.0941  0.0366
54373W        W97311  13.879   8.170  24.881 -0.0096 -0.2264  0.1871
54374W        W97312  13.652   4.784  27.916 -0.0148  0.1824  0.0552
54375W        W97313  12.716   5.995  25.763  0.0369 -0.1205  0.1956
54376W        W97314  11.935   3.559  25.765  0.6051  0.0599  0.0741
54377W        W97315  10.558   6.152  25.559  0.1209  0.3660  0.4627
54378W        W97316  12.970   4.625  27.221  0.1201  0.0090 -0.2893
54379W        W97317  11.747   6.786  25.876 -0.0700 -0.1308 -0.0792
54380W        W97318  10.783   5.685  25.492  0.2161  0.1172 -0.2010
54381W        W97319  11.904   5.799  26.186  0.0168 -0.0199  0.1286
54382W        W97320  14.482   3.783  24.476  0.0565 -0.2262 -0.0882
54383W        W97321  12.753   5.472  24.770  0.0957  0.0176  0.0121
54384W        W97322  13.548   5.081  26.254 -0.4630 -0.0378  0.2865
54385W        W97323  14.168   3.622  27.294  0.0044  0.2923 -0.1115
54386W        W97324  11.740   4.498  24.860 -0.1166  0.0281  0.1364
54387W        W97325  13.306   4.295  27.973 -0.2181  0.4581 -0.1609
54388W        W97326  11.127   3.615  26.703  0.1177 -0.1263  0.0602
54389W        W97327  13.204   6.228  25.120  0.1499 -0.3318  0.2179
54390W        W97328  12.379   4.080  26.635  0.1083 -0.1718 -0.3920
54391W        W97329  12.722   8.139  27.099 -0.0161 -0.0295  0.0421
54392W        W97330  12.465   5.951  27.635 -0.0046 -0.2075 -0.0245
54393W        W97331  14.300   4.624  27.042 -0.0527 -0.0565 -0.2718
54394W        W97332  11.514   5.461  25.964 -0.1316 -0.3581  0.1145
54395W        W97333  13.641   7.024  26.596 -0.1857 -0.4464 -0.0139
54396W        W97334  14.523   5.859  25.916  0.0812 -0.0769  0.1606
54397W        W97335  12.483   6.231  24.428 -0.3023  0.0232 -0.2272
54398W        W97336  15.034   5.935  25.076 -0.1662  0.0625  0.0726
54399W        W97337  10.705   6.179  25.001 -0.3341  0.1999  0.3158
54400W        W97338  12.603   5.083  25.123 -0.0646 -0.0082  0.0265
54401W        W97339  13.558   5.160  25.407  0.2659  0.0521 -0.1672
54402W        W97340  12.890   6.486  25.705  0.1807  0.2773  0.2342
54403W        W97341  13.284   4.004  26.427  0.1131  0.0598 -0.3190
54404W        W97342  12.071   5.231  24.326 -0.1181  0.0046  0.0667
54405W        W97343  11.834   4.987  24.974 -0.3818  0.0772 -0.1400
54406W        W97344  13.751   3.608  26.932  0.3591  0.1417  0.1840
54407W        W97345  14.198   6.050  24.785 -0.0523 -0.0639  0.1020
54408W        W97346  12.476   4.582  26.556  0.2106 -0.1355 -0.1670
54409W        W97347  12.366   3.822  27.641 -0.2779 -0.0537 -0.1213
54410W        W97348  13.663   6.834  25.809 -0.3995  0.3800  0.3467
54411W        W97349  13.062   4.870  24.418  0.0164  0.1275  0.2705
54412W        W97350  13.640   3.615  26.403  0.2266  0.2002 -0.1375
54413W        W97351  13.602   4.291  24.751 -0.2172 -0.0987 -0.0023
54414W        W97352  14.312   5.600  25.058  0.0419  0.1555  0.3119
54415W        W97353  10.195   4.385  25.622 -0.2503  0.0366 -0.0760
54416W        W97354  14.206   4.181  27.425 -0.0347 -0.1791  0.1134
54417W        W97355  11.715   4.830  23.523  0.2850 -0.0024 -0.3069
54418W        W97356  14.968   4.941  27.424 -0.4045  0.2008 -0.0116
54419W        W97357  11.100   6.227  23.812  0.2146  0.4416  0.1150
54420W        W97358  14.163   6.505  25.581  0.0198  0.1382  0.2601
54421W        W97359  13.844   4.306  24.008  0.2773  0.0395  0.1152
54422W        W97360  10.671   6.303  24.512  0.0643  0.0223 -0.1010
54423W        W97361  11.953   7.170  26.799  0.0900 -0.0027 -0.2050
54424W        W97362   9.750   5.327  23.847  0.1871 -0.0475 -0.2106
54425W        W97363  11.957   4.813  25.586  0.2925  0.0487  0.4127
54426W        W97364  13.695   5.190  26.790  0.1869 -0.2904 -0.0978
54427W        W97365  14.697   6.803  27.492  0.1959 -0.0218 -0.3468
54428W        W97366  11.068   3.920  25.100 -0.2068  0.3181  0.0450
54429W        W97367  14.108   6.229  27.599  0.1448 -0.0427  0.3308
54430W        W97368  12.381   6.483  25.702 -0.1708 -0.1142  0.0135
54431W        W97369  12.743   3.612  27.368  0.0458  0.2276  0.2458
54432W        W97370  10.663   7.699  27.054  0.2947 -0.1624 -0.0568
54433W        W97371  11.926   5.836  27.134 -0.2524  0.2237 -0.0134
54434W        W97372  12.501   5.551  25.989 -0.3856 -0.2145 -0.0276
54435W        W97373  13.265   2.906  27.058 -0.1529 -0.0697 -0.0707
54436W        W97374  14.192   4.268  26.122  0.0675 -0.1153 -0.0365
54437W        W97375  13.778   4.667  26.719  0.3404  0.0800 -0.0242
54438W        W97376  13.575   4.848  25.838  0.1513 -0.3575  0.1251
54439W        W97377  12.889   8.010  26.605  0.1978 -0.3041 -0.0210
54440W        W97378  11.327   6.892  23.991  0.1890 -0.3207  0.0393
54441W        W97379  13.377   7.922  26.617 -0.1636  0.0248  0.1634
54442W        W97380  13.763   6.023  25.206  0.0196  0.3229  0.1552
54443W        W97381  12.192   6.610  26.115 -0.2146 -0.0697 -0.1965
54444W        W97382  12.391   5.552  28.020 -0.0036  0.2508  0.0341
54445W        W97383  12.682   6.470  27.672  0.0336  0.1933 -0.2415
54446W        W97384  13.926   5.478  25.369 -0.6219 -0.1085 -0.0802
54447W        W97385  10.647   2.515  23.590 -0.0722 -0.1519 -0.1474
54448W        W97386  11.850   6.090  24.902  0.0957 -0.1235  0.0040
54449W        W97387  12.893   6.733  28.052 -0.1301 -0.3582  0.2572
54450W        W97388  11.262   5.363  26.859 -0.0782 -0.2137  0.1760
54451W        W97389  12.634   6.805  25.933  0.0790  0.0943 -0.1194
54452W        W97390  13.443   4.978  24.919  0.0065 -0.0311  0.0784
54453W        W97391  12.452   5.580  25.260  0.1344 -0.2088 -0.0159
54454W        W97392  14.497   6.344  26.071  0.3305 -0.1059 -0.1855
54455W        W97393  11.237   3.726  24.691  0.0493  0.3315 -0.0893
54456W        W97394  12.220   6.102  26.762 -0.0699 -0.4094 -0.1834
54457W        W97395  11.587   7.693  24.728  0.0253  0.4522  0.3621
54458W        W97396  13.767   6.348  22.565 -0.3157  0.0155  0.1680
54459W        W97397  12.362   7.972  26.693 -0.0470 -0.1684 -0.1836
54460W        W97398  14.508   5.241  27.954 -0.1771  0.1798  0.2148
54461W        W97399  14.810   4.580  22.790  0.1186  0.1669 -0.1833
54462W        W97400  14.396   5.435  25.641  0.0435 -0.1164  0.3472
54463W        W97401  14.440   4.507  25.485  0.2169  0.0539 -0.1488
54464W        W97402  13.477   7.873  25.881  0.2611 -0.0211 -0.1394
54465W        W97403  12.183   6.038  25.381 -0.0292 -0.3597 -0.0332
54466W        W97404  12.238   4.015  25.106 -0.1912 -0.2210  0.1524
54467W        W97405  10.076   6.218  28.326  0.4597 -0.0327 -0.1326
54468W        W97406  14.645   3.918  27.200 -0.3772 -0.2146 -0.3681
54469W        W97407   9.918   6.667  27.350  0.0214  0.2923  0.2518
54470W        W97408  13.778   7.394  25.005  0.2995  0.0291  0.2796
54471W        W97409  10.451   4.007  25.669  0.2881  0.3154 -0.0992
54472W        W97410  12.984   6.415  26.775  0.0400 -0.0270  0.2497
54473W        W97411  15.770   2.947  27.305  0.0019  0.0676 -0.0073
54474W        W97412  11.970   5.697  25.707 -0.1134  0.1394 -0.1311
54475W        W97413  13.921   3.736  25.388 -0.1687  0.2737  0.2793
54476W        W97414  10.073   6.145  24.329 -0.1532 -0.1425 -0.1064
54477W        W97415  12.343   7.003  26.391  0.0144  0.1276 -0.1639
54478W        W97416  12.165   7.745  25.946 -0.1106 -0.0277  0.3222
54479W        W97417  12.249   4.350  23.149 -0.2438 -0.1832  0.1113
54480W        W97418  16.358   5.391  25.354  0.2446 -0.0181 -0.0034
54481W        W97419  11.751   5.262  28.318  0.3317  0.1482  0.2385
54482W        W97420  13.873   2.708  25.662 -0.1724  0.2375  0.1162
54483W        W97421  12.105   5.222  25.838 -0.1499  0.0604 -0.1510
54484W        W97422  13.755   4.693  25.227 -0.0164 -0.0835  0.1285
54485W        W97423  12.490   5.052  26.164 -0.0734  0.0397  0.0044
54486W        W97424  11.469   4.114  25.995 -0.2694  0.0235  0.0282
54487W        W97425  12.019   2.802  24.212  0.2170  0.0214 -0.2433
54488W        W97426  15.016   6.164  27.743  0.5017 -0.2524 -0.0129
54489W        W97427  13.762   6.043  23.741 -0.1674 -0.1210  0.0975
54490W        W97428  13.935   8.606  27.599  0.2554  0.1832 -0.0756
54491W        W97429  10.507   5.700  25.109  0.2569  0.1474  0.0643
54492W        W97430  15.003   5.155  24.699 -0.1370 -0.2712  0.0861
54493W        W97431  13.530   6.520  25.332 -0.1960  0.0816  0.1854
54494W        W97432  13.070   5.231  27.321 -0.3107 -0.0314  0.0172
54495W        W97433  13.734   8.176  26.964  0.1838  0.2609 -0.1631
54496W        W97434  10.750   3.680  24.637  0.1485 -0.4001  0.1603
54497W        W97435  15.021   6.411  23.500  0.1115  0.1932 -0.1683
54498W        W97436  14.188   4.073  25.673  0.0795  0.2218 -0.1296
54499W        W97437  11.355   6.380  25.130 -0.0880 -0.1155 -0.1559
54500W        W97438  14.882   5.080  24.224 -0.3968  0.0149  0.1104
54501W        W97439  13.734   6.832  24.825 -0.0761 -0.0311  0.0409
54502W        W97440  10.044   4.648  24.589  0.3379 -0.0042  0.0193
54503W        W97441  13.080   4.946  25.864 -0.1632  0.2373  0.1236
54504W        W97442  14.054   5.239  27.565  0.3358  0.2091  0.0012
54505W        W97443  11.088   4.459  25.109 -0.1847 -0.1040  0.0505
54506W        W97444  11.902   5.649  26.653 -0.0055  0.0794  0.2832
54507W        W97445  11.758   7.483  26.175  0.0271 -0.0974  0.2489
54508W        W97446  13.150   4.499  26.652 -0.0775  0.1049 -0.4634
54509W        W97447  14.551   4.061  26.348 -0.0283 -0.3266 -0.0744
54510W        W97448  11.795   7.641  23.420 -0.0909 -0.3124 -0.4290
54511W        W97449  14.565   2.893  27.026  0.1422  0.1084  0.1952
54512W        W97450  14.303   6.363  26.685 -0.3412  0.1194  0.0812
54513W        W97451  13.105   7.441  27.725  0.1837 -0.0323  0.1097
54514W        W97452  11.236   6.419  24.225  0.1459  0.2380  0.1752
54515W        W97453  13.003   7.663  27.017 -0.3398 -0.1511 -0.1476
54516W        W97454  10.890   7.185  23.897 -0.0056  0.2429 -0.2054
54517W        W97455  12.875   6.866  26.423  0.2257  0.1554  0.0955
54518W        W97456  15.463   7.898  25.774  0.1276  0.0839 -0.1423
54519W        W97457  13.312   5.534  26.333  0.0400  0.0405  0.1818
54520W        W97458  15.331   6.811  24.748 -0.0370  0.1090  0.0288
54521W        W97459  13.036   3.543  26.432 -0.1581 -0.2011 -0.4997
54522W        W97460  14.923   4.007  26.061 -0.3387  0.0782  0.0960
54523W        W97461  13.172   3.648  23.600  0.0708  0.0265 -0.0725
54524W        W97462  12.195   6.250  27.314  0.2896 -0.0839 -0.0951
54525W        W97463  10.307   6.658  24.345 -0.1881 -0.2211  0.0392
54526W        W97464  11.809   6.936  24.357  0.0649 -0.2474 -0.4333
54527W        W97465  12.280   6.027  25.993 -0.2347 -0.0838  0.1980
54528W        W97466  13.016   3.245  28.246  0.0403 -0.0937 -0.0674
54529W        W97467  12.215   4.381  27.557 -0.0991 -0.1140 -0.1153
54530W        W97468  11.114   6.165  24.714  0.0050 -0.0121  0.0249
54531W        W97469  10.391   5.417  24.684 -0.2344 -0.1505  0.1827
54532W        W97470  15.096   7.041  22.636 -0.1483 -0.1082  0.1308
54533W        W97471  11.033   4.862  25.403  0.0970 -0.2237 -0.0005
54534W        W97472   9.513   4.944  24.155  0.3488  0.0220  0.2114
54535W        W97473  13.343   6.647  26.453 -0.0170  0.0934  0.1551
54536W        W97474  14.167   8.534  23.453  0.1474 -0.0909  0.0674
54537W        W97475  11.917   2.783  25.206  0.1389  0.1904  0.0794
54538W        W97476  13.531   6.418  27.370 -0.1345 -0.3077 -0.2956
54539W        W97477  11.043   7.204  23.112 -0.1061  0.0288 -0.2451
54540W        W97478  13.589   5.062  27.414 -0.0822 -0.1114  0.0110
54541W        W97479  12.633   3.565  26.772  0.4164  0.0754 -0.5005
54542W        W97480  11.332   2.265  22.417 -0.1727 -0.3074 -0.0218
54543W        W97481  13.956   4.982  27.133  0.2889  0.3522  0.1421
54544W        W97482  14.053   6.393  24.412 -0.0238  0.1225  0.1336
54545W        W97483  13.174   5.999  23.590 -0.0292 -0.1767 -0.0300
54546W        W97484  12.106   6.606  26.759 -0.0978  0.1524 -0.3972
54547W        W97485  12.447   8.018  28.218 -0.1784  0.1981  0.3120
54548W        W97486  11.924   3.887  27.384 -0.0956 -0.0245 -0.3053
54549W        W97487  12.471   4.317  25.464  0.2051  0.1904 -0.0206
54550W        W97488  12.800   7.099  26.901  0.2925  0.0053 -0.0143
54551W        W97489  14.234   7.921  22.976  0.1968 -0.1409 -0.2216
54552W        W97490  14.561   3.093  25.167 -0.1816  0.0097 -0.2922
54553W        W97491  12.378   5.741  26.462 -0.1243 -0.2964 -0.0311
54554W        W97492  11.759   4.360  27.222  0.0065 -0.2912  0.0514
54555W        W97493  12.630   7.412  28.948 -0.0212  0.4284  0.1411
54556W        W97494  13.836   4.688  26.238  0.0059  0.0853 -0.0241
54557W        W97495  11.867   4.093  25.636  0.1309  0.1723 -0.0555
54558W        W97496  14.325   4.230  24.031  0.1353 -0.1389 -0.0402
54559W        W97497  12.255   7.558  25.461  0.0983 -0.0442  0.1211
54560W        W97498  10.931   6.168  25.947 -0.1078 -0.2383  0.1499
54561W        W97499  12.092   5.272  25.335  0.1216 -0.1338  0.0172
54562W        W97500  14.442   7.141  27.193  0.2607  0.2306 -0.1746
54563W        W97501  13.975   6.296  27.065  0.1765  0.1162 -0.0410
54564W        W97502  14.183   6.752  27.444 -0.1798 -0.1168 -0.0756
54565W        W97503  11.468   5.963  25.939  0.1728 -0.0198  0.0456
54566W        W97504  14.679   6.717  23.558  0.0285  0.2392 -0.2620
54567W        W97505  14.027   7.118  26.239 -0.1179  0.0648 -0.1174
54568W        W97506  14.887   7.672  27.160 -0.0096  0.1976  0.0650
54569W        W97507  13.058   7.472  25.752  0.0144  0.2189  0.1615
54570W        W97508  13.919   5.719  25.866  0.0200 -0.2611  0.3635
54571W        W97509  12.101   2.967  26.336 -0.1726  0.0645 -0.1464
54572W        W97510  13.232   5.297  26.752 -0.0139  0.0105 -0.5610
54573W        W97511  13.058   6.472  27.283 -0.0035  0.1264  0.2904
54574W        W97512  12.789   4.138  26.405  0.3782 -0.0262 -0.1110
54575W        W97513  11.168   3.519  26.183 -0.1963 -0.2509 -0.1422
54576W        W97514  12.331   3.519  25.213 -0.3070 -0.0261 -0.0021
54577W        W97515  12.091   8.899  27.286 -0.1215 -0.0805 -0.0436
54578W        W97516  14.283   5.469  26.096 -0.3022  0.1213  0.4518
54579W        W97517  11.497   6.722  30.426 -0.0032 -0.0802 -0.1687
54580W        W97518  12.055   3.408  29.386 -0.0256  0.2848  0.0521
54581W        W97519  13.243   4.134  27.365 -0.0030  0.0493 -0.1107
54582W        W97520  14.013   3.996  28.503 -0.3043  0.3664 -0.1872
54583W        W97521  10.618   4.027  29.480 -0.1331  0.2512 -0.0719
54584W        W97522  14.836   8.099  28.835  0.0717  0.0122 -0.0307
54585W        W97523  12.391   2.458  30.163 -0.2102 -0.1641  0.0615
54586W        W97524  13.891   5.887  29.047  0.1629  0.0817  0.0566
54587W        W97525  13.903   6.455  29.863  0.1686  0.3041  0.0698
54588W        W97526  14.689   6.182  28.137 -0.1581  0.1170 -0.3064
54589W        W97527  11.353   6.157  30.482  0.2208  0.0646  0.0003
54590W        W97528  12.877   6.180  31.661 -0.3502 -0.0219  0.2053
54591W        W97529  13.448   3.400  28.443  0.1415  0.4095  0.1475
54592W        W97530  10.239   2.918  29.636  0.0024  0.5115 -0.3722
54593W        W97531  12.610   4.619  29.150 -0.2743  0.0210 -0.2071
54594W        W97532  10.928   4.603  28.270  0.1092  0.0225 -0.2502
54595W        W97533  12.276   5.621  29.766 -0.0476  0.0174 -0.2546
54596W        W97534  11.675   4.169  29.421  0.1093  0.0301  0.1251
54597W        W97535  13.260   8.180  27.028  0.0428 -0.2520  0.0392
54598W        W97536  11.134   6.146  29.029 -0.1521  0.0435 -0.2083
54599W        W97537  14.001   4.058  31.514  0.1432 -0.0007  0.3326
54600W        W97538  11.768   7.621  28.733  0.3442  0.0425  0.0519
54601W        W97539  11.307   3.954  28.266  0.0485 -0.0107 -0.1580
54602W        W97540  11.766   5.514  28.824 -0.0495 -0.1279  0.0256
54603W        W97541  11.954   5.407  31.839 -0.1224  0.1705 -0.0889
54604W        W97542  13.805   4.403  28.735 -0.5530  0.2402  0.0744
54605W        W97543  13.731   5.385  28.798  0.1281 -0.0677 -0.0099
54606W        W97544  12.799   7.474  30.105  0.1182  0.2895  0.0834
54607W        W97545  14.157   6.263  29.444 -0.2307 -0.0819  0.1363
54608W        W97546  14.538   5.301  31.508 -0.1479 -0.0427  0.0465
54609W        W97547   9.564   6.690  29.030  0.4067 -0.2112  0.0051
54610W        W97548  12.261   7.064  29.808  0.0932 -0.1823  0.0954
54611W        W97549  12.477   6.698  30.049 -0.1334  0.1076  0.1361
54612W        W97550  13.992   6.444  28.962  0.0914 -0.1387  0.1577
54613W        W97551  13.705   6.763  30.828 -0.1618  0.1512  0.1005
54614W        W97552  13.726   6.935   0.830  0.2290 -0.0107 -0.1213
54615W        W97553  11.513   6.044  28.016 -0.0644  0.1351 -0.2582
54616W        W97554  11.920   6.252  31.118  0.0216 -0.3032  0.2852
54617W        W97555  11.347   6.669  31.757  0.1248  0.1540  0.1908
54618W        W97556  12.096   5.488  29.249 -0.2858 -0.3511 -0.1235
54619W        W97557  12.529   7.062  28.415  0.3787 -0.0550 -0.0102
54620W        W97558  13.738   8.339  29.092 -0.4782 -0.0033 -0.3496
54621W        W97559  12.852   4.596  27.782 -0.3821 -0.2609 -0.1995
54622W        W97560  11.531   5.908  30.999  0.0339  0.1378 -0.3032
54623W        W97561  11.695   6.337  30.187 -0.2071  0.0169 -0.0698
54624W        W97562  13.245   5.251  28.951 -0.0701 -0.1484 -0.2139
54625W        W97563  12.281   6.414  28.006  0.1297 -0.0996 -0.1234
54626W        W97564  13.714   5.530  27.662  0.3113 -0.1536 -0.1642
54627W        W97565  12.510   5.125  27.164 -0.3352  0.1770  0.2526
54628W        W97566  12.730   5.132  28.007 -0.0295 -0.1610 -0.1028
54629W        W97567  12.346   3.557  29.855  0.1782 -0.1269 -0.0843
54630W        W97568  13.016   7.701  29.119 -0.1518  0.0470 -0.0726
54631W        W97569  11.088   3.281  28.858 -0.0562  0.2059 -0.0362
54632W        W97570  13.608   6.151   0.193 -0.2366  0.0482  0.2205
54633W        W97571  12.570   4.739  28.310 -0.0561  0.1160 -0.1043
54634W        W97572  12.103   4.380  30.334  0.1785 -0.0916 -0.2222
54635W        W97573  13.208   6.807  29.535 -0.1367  0.2041  0.1541
54636W        W97574  11.542   6.565  29.661 -0.0520  0.0233  0.1313
54637W        W97575  14.432   6.817  26.728 -0.4029  0.0265  0.1380
54638W        W97576  15.371   8.069  28.741 -0.1403  0.0559  0.0463
54639W        W97577  13.567   7.287  28.341 -0.0936  0.3069  0.0009
54640W        W97578  11.842   6.022  28.851 -0.0528 -0.2599  0.4082
54641W        W97579  12.446   6.369  30.382  0.0727 -0.1058  0.2440
54642W        W97580  12.897   6.409  30.145  0.0517  0.0543  0.2483
54643W        W97581  12.230   4.282  29.314  0.0106 -0.1271  0.3041
54644W        W97582  14.384   5.979  31.891  0.4858 -0.0801  0.4132
54645W        W97583  11.614   7.713  31.352 -0.0238  0.2263 -0.1110
54646W        W97584  15.726   3.800  29.899  0.0688 -0.3132  0.1081
54647W        W97585  11.141   6.865  29.664 -0.0608  0.1179 -0.0607
54648W        W97586  14.440   5.732  31.294  0.1164 -0.1932  0.1313
54649W        W97587  15.140   5.920  26.435 -0.0536  0.0807 -0.0752
54650W        W97588  14.739   3.568  30.942  0.0620  0.0262 -0.2269
54651W        W97589  14.935   4.387  30.871  0.1612  0.0570  0.0080
54652W        W97590  12.304   6.127  28.556  0.2135 -0.2245  0.0094
54653W        W97591  12.157   5.579  28.550 -0.0894 -0.4693  0.2471
54654W        W97592  14.542   6.698  30.183 -0.2244 -0.0913  0.2619
54655W        W97593  14.553   3.945  27.836  0.0770 -0.0087  0.3271
54656W        W97594  12.403   6.890  30.572  0.5111  0.0816  0.3276
54657W        W97595  12.540   2.797  30.960  0.1762 -0.4580  0.0758
54658W        W97596  11.206   6.256  31.329  0.0556  0.3907  0.1036
54659W        W97597  12.917   6.968  29.176 -0.0065 -0.0910 -0.0450
54660W        W97598  10.492   6.664  30.640  0.2767 -0.0656  0.2800
54661W        W97599  10.575   6.657  29.919  0.0839 -0.2399  0.0481
54662W        W97600  12.155   4.208  30.925 -0.1418  0.0211 -0.1819
54663W        W97601  13.324   6.504  31.004 -0.1097 -0.2209  0.0093
54664W        W97602  14.957   4.025  30.220  0.0281  0.1182 -0.3102
54665W        W97603  12.492   4.659  29.663 -0.0698 -0.1648 -0.0075
54666W        W97604  14.109   3.947  29.494 -0.1539  0.0547  0.1164
54667W        W97605  11.944   6.917  28.867  0.1314  0.0771 -0.1747
54668W        W97606  15.856   7.950  28.690  0.0237 -0.0832 -0.0221
54669W        W97607  13.822   5.220  28.125  0.0001  0.1426  0.2285
54670W        W97608  13.230   7.556  26.228 -0.1232 -0.4535  0.1043
54671W        W97609  10.206   4.256  29.136  0.1323  0.2077  0.3377
54672W        W97610  11.745   3.118  28.047 -0.0507  0.2009 -0.0574
54673W        W97611  12.202   5.338  30.237 -0.2488 -0.5186 -0.1864
54674W        W97612  10.465   3.580  29.631 -0.5264 -0.3866  0.0789
54675W        W97613  13.768   5.980  31.657 -0.0772 -0.1700  0.2437
54676W        W97614  10.572   1.663  27.946  0.0034 -0.1872 -0.0262
54677W        W97615  13.588   4.833  28.946  0.0897 -0.0073  0.3763
54678W        W97616  11.634   6.161  27.429 -0.1070  0.0494  0.2979
54679W        W97617  10.551   5.139  28.190 -0.1157  0.0791  0.0191
54680W        W97618  14.612   5.665   1.363  0.1050 -0.1247  0.0039
54681W        W97619  12.633   6.450  28.391  0.0097  0.0308  0.0275
54682W        W97620  15.081   5.240  31.404 -0.0596  0.1206  0.0815
54683W        W97621  14.604   8.401  28.368  0.1177 -0.1634 -0.0638
54684W        W97622  11.635   5.033  30.886  0.4407 -0.0776  0.0103
54685W        W97623  12.021   4.866  27.438 -0.1230 -0.0806 -0.2340
54686W        W97624  11.239   8.158  28.989  0.3570 -0.3271 -0.1874
54687W        W97625  11.665   6.227  29.284  0.1556  0.0354 -0.2893
54688W        W97626  11.130   2.963  27.164 -0.1633  0.2406 -0.1014
54689W        W97627  14.854   6.963  29.308 -0.1080  0.0834 -0.0705
54690W        W97628  11.600   5.394  27.414  0.1968  0.0870 -0.0619
54691W        W97629  10.468   3.971  31.039 -0.0284  0.0038 -0.0484
54692W        W97630  14.817   2.594  30.485 -0.3303  0.3120 -0.1559
54693W        W97631  14.328   5.438  28.875 -0.1526  0.0795  0.1749
54694W        W97632  12.737   6.439  28.901  0.0337  0.3905 -0.0429
54695W        W97633  10.949   3.434  27.191 -0.0133 -0.0168  0.3232
54696W        W97634  14.736   7.360  27.560  0.2899 -0.5050 -0.0918
54697W        W97635  12.813   7.074  27.414 -0.1289  0.0431  0.1859
54698W        W97636  10.878   4.613  27.665 -0.0128  0.2769  0.2320
54699W        W97637  13.075   6.426  28.529  0.1863  0.0586 -0.0168
54700W        W97638  13.931   2.988  28.230 -0.1850  0.2274 -0.1183
54701W        W97639  11.162   4.366  30.383  0.1035 -0.3123 -0.0903
54702W        W97640  12.494   4.219  30.597 -0.1978  0.0288  0.1795
54703W        W97641  12.488   3.009  27.821 -0.5368  0.2001  0.1923
54704W        W97642  12.599   6.158  30.800 -0.2680  0.0349  0.1999
54705W        W97643  12.993   4.733  28.825 -0.0377 -0.0948 -0.3208
54706W        W97644  15.476   3.364  26.479  0.2074 -0.0520 -0.0226
54707W        W97645  13.416   4.591  31.432 -0.4047 -0.0464  0.1225
54708W        W97646  13.293   7.361  28.940 -0.0484  0.1012  0.0130
54709W        W97647  12.499   3.830  28.213  0.1716  0.0180  0.2516
54710W        W97648  12.370   3.302  27.458  0.1516 -0.2021 -0.2296
54711W        W97649  12.782   5.886  31.260 -0.0569  0.0694 -0.0918
54712W        W97650  14.038   5.108  30.119  0.1019 -0.2511  0.3553
54713W        W97651  13.386   6.038  28.911  0.2267 -0.1146  0.0868
54714W        W97652  12.376   5.202  28.345 -0.3051  0.1261  0.2704
54715W        W97653  14.027   7.738  26.874  0.1946  0.1521 -0.1686
54716W        W97654  10.321   6.632  29.151 -0.1234 -0.0363  0.2599
54717W        W97655  12.191   6.008   0.341 -0.2982 -0.0944  0.2429
54718W        W97656  14.065   7.277  29.713 -0.1072  0.0671 -0.1186
54719W        W97657  12.483   4.098  29.884 -0.1794 -0.1363 -0.1277
54720W        W97658  11.214   6.291  27.063  0.0042 -0.1795 -0.1656
54721W        W97659  12.298   4.989  29.244  0.0655 -0.2420  0.0201
54722W        W97660  11.451   7.660  28.378  0.2086  0.2410 -0.0379
54723W        W97661  13.935   4.433  30.713  0.1097 -0.0969  0.4943
54724W        W97662  12.853   4.197  28.417 -0.3936  0.0698 -0.1636
54725W        W97663  12.419   3.751  30.302  0.0671 -0.2065 -0.1125
54726W        W97664  14.437   4.342  31.481  0.1847 -0.0865 -0.0448
54727W        W97665  13.688   5.719  28.162  0.2003 -0.0222  0.1827
54728W        W97666  11.767   5.211  30.254 -0.1088 -0.0608 -0.1923
54729W        W97667  11.387   5.290  27.923  0.0578 -0.2590 -0.0529
54730W        W97668  13.487   4.663  30.557  0.0012  0.0997 -0.0204
54731W        W97669  11.779   5.760  30.176  0.0523 -0.2742 -0.1009
54732W        W97670  10.825   5.304  30.257  0.2108  0.0399 -0.1324
54733W        W97671  12.458   5.192   0.424  0.0713  0.1823 -0.0762
54734W        W97672  11.825   6.646  29.280  0.0846  0.0806 -0.2073
54735W        W97673  13.045   5.421  30.363 -0.3727 -0.3838  0.2183
54736W        W97674  12.057   3.870  29.543 -0.0261  0.0218 -0.1147
54737W        W97675  11.725   7.258  28.403  0.0835  0.0293 -0.0411
54738W        W97676  13.214   6.949  27.730 -0.0014 -0.0941 -0.0989
54739W        W97677  11.394   3.793  29.695 -0.3176 -0.0547 -0.1874
54740W        W97678  12.648   5.131  30.262 -0.0671  0.1100  0.2071
54741W        W97679  13.891   7.951  26.287 -0.0190 -0.3146 -0.0518
54742W        W97680  15.160   5.176  28.617  0.1756  0.1651 -0.2391
54743W        W97681  11.374   8.647  29.108  0.2465 -0.0148 -0.1565
54744W        W97682  15.585   3.819  30.957  0.3910  0.0872 -0.1120
54745W        W97683  13.576   7.788  29.059  0.0510  0.0626  0.0032
54746W        W97684  10.741   3.571  28.622  0.0541  0.1608  0.0324
54747W        W97685  10.756   5.683  28.931  0.1400 -0.0768  0.1324
54748W        W97686  13.698   3.627  29.424 -0.1269 -0.0736  0.0062
54749W        W97687  14.321   6.621  28.005  0.0639 -0.0429 -0.1483
54750W        W97688  11.421   4.463  29.147  0.0997  0.1493 -0.0741
54751W        W97689  12.876   4.989  29.304  0.3048  0.0147 -0.1004
54752W        W97690   9.668   5.857  30.529 -0.2607 -0.5410 -0.1451
54753W        W97691  12.800   5.927  30.351  0.2658  0.0080 -0.0605
54754W        W97692  13.341   4.529  28.557 -0.1426 -0.0030 -0.2417
54755W        W97693  13.775   6.012  30.042 -0.0433 -0.1635 -0.0548
54756W        W97694  11.142   5.238   0.041 -0.0784 -0.0570  0.0643
54757W        W97695  11.198   4.373  28.745  0.0481  0.1536  0.1620
54758W        W97696  13.846   4.857  28.488  0.1880  0.0150 -0.0971
54759W        W97697  10.281   4.704  29.367  0.0267 -0.2615 -0.1361
54760W        W97698  11.850   6.303  28.323  0.0890 -0.1800 -0.2834
54761W        W97699  11.836   7.377  30.104  0.1846  0.1690 -0.1067
54762W        W97700  11.636   5.686  29.282  0.1980 -0.0131  0.2389
54763W        W97701  10.832   6.644  28.972  0.0131 -0.2817  0.1250
54764W        W97702  14.393   5.091  30.987 -0.1800 -0.1003 -0.0437
54765W        W97703  13.364   4.872  29.411 -0.1280 -0.0473 -0.1321
54766W        W97704  11.189   4.614  29.676 -0.0625  0.1504  0.0096
54767W        W97705  11.978   3.995  30.039 -0.0786 -0.2814  0.0116
54768W        W97706  12.071   4.842  30.191  0.0132  0.1358 -0.2903
54769W        W97707  13.031   4.150  29.791  0.1398  0.2434 -0.2374
54770W        W97708  12.949   6.101  29.756  0.0363  0.3245 -0.1429
54771W        W97709  11.530   6.944  30.016  0.1511 -0.2948 -0.0035
54772W        W97710  11.825   4.617  27.867 -0.0876  0.3120 -0.0345
54773W        W97711  13.983   9.526  29.778 -0.1326 -0.1065 -0.1329
54774W        W97712  14.288   4.230  30.016 -0.1108  0.1880 -0.1982
54775W        W97713  11.157   7.207  29.201 -0.2114 -0.2523  0.0358
54776W        W97714  10.807   4.632  28.708 -0.2639  0.0379  0.0907
54777W        W97715  12.701   8.456  28.635  0.1068  0.3248 -0.2351
54778W        W97716  11.172   4.101  29.367 -0.0687 -0.1194  0.1083
54779W        W97717  13.358   6.383  29.824  0.0460 -0.0402 -0.4394
54780W        W97718  12.037   6.477  29.846  0.0432  0.0720 -0.3067
54781W        W97719  10.608   5.789  30.332 -0.0330 -0.2354  0.0551
54782W        W97720  15.488   3.097  27.659 -0.1669 -0.2560  0.4351
54783W        W97721  13.421   6.753  28.248  0.0695 -0.4714 -0.0377
54784W        W97722  12.823   4.065  29.345 -0.2312  0.1222  0.0275
54785W        W97723  15.775   4.122  31.303  0.2577 -0.0926 -0.0673
54786W        W97724  14.283   7.190  27.761 -0.1605  0.1345  0.2363
54787W        W97725  12.965   2.431  31.048 -0.0144  0.0174 -0.0001
54788W        W97726  12.248   2.481  30.667 -0.3286 -0.0862 -0.0327
54789W        W97727  12.967   5.592  30.870  0.0066 -0.1755 -0.0390
54790W        W97728  11.044   3.594  30.648 -0.1181 -0.3242 -0.3733
54791W        W97729  12.224   7.593  31.564 -0.0693  0.1529  0.2964
54792W        W97730  13.442   5.174  30.552  0.2116 -0.1478 -0.2308
54793W        W97731  13.321   4.008  29.383 -0.0478 -0.1481 -0.0007
54794W        W97732  11.583   3.214  29.083 -0.2178  0.4652 -0.1742
54795W        W97733  13.527   5.614  29.212 -0.1002  0.3702 -0.0748
54796W        W97734  14.101   8.319  28.125 -0.3416  0.3032 -0.1668
54797W        W97735  12.154   5.512  27.530  0.0461 -0.1842 -0.0712
54798W        W97736  13.521   4.320  29.703  0.1243 -0.1001  0.0847
54799W        W97737  11.267   5.479  31.022 -0.0469 -0.0128 -0.1405
54800W        W97738  12.586   5.411  29.388 -0.1565 -0.1315 -0.1462
54801W        W97739  13.113   3.796  28.259  0.0837  0.0354 -0.2183
54802W        W97740  11.453   4.809  28.724 -0.1474 -0.2035  0.2328
54803W        W97741  11.821   5.380  29.635 -0.0974  0.1130  0.1143
54804W        W97742  14.322   6.157  28.406  0.0765  0.1241  0.1117
54805W        W97743  12.638   5.151  28.887 -0.3255 -0.0021  0.2060
54806W        W97744  13.285   3.729  29.835  0.2657 -0.0638  0.2119
54807W        W97745  14.893   3.748  28.692  0.3309  0.2001 -0.0831
54808W        W97746  12.703   5.150  30.892  0.2007  0.5498 -0.1827
54809W        W97747  10.488   2.892   0.055  0.2600 -0.0045  0.1349
54810W        W97748  15.266   7.345  29.295 -0.2385  0.2208 -0.2928
54811W        W97749  13.886   3.525  28.199  0.0132 -0.1216  0.1263
54812W        W97750  12.821   5.052  29.809  0.0673 -0.0770 -0.0444
54813W        W97751  14.843   5.540  28.893 -0.0414 -0.1173  0.2829
54814W        W97752  14.652   5.670  28.390  0.0231 -0.0601 -0.0266
54815W        W97753  10.859   5.242  28.732 -0.0932  0.0949  0.0063
54816W        W97754  13.126   5.043   0.668 -0.0608  0.0108 -0.0898
54817W        W97755  13.398   4.618  27.508 -0.4027 -0.0241 -0.1046
54818W        W97756  11.968   3.870  30.572  0.0302 -0.2437  0.1378
54819W        W97757  14.391   7.446  28.182 -0.0463 -0.0396 -0.0753
54820W        W97758  12.113   6.037  29.501  0.1324  0.0215  0.2621
54821W        W97759  13.405   5.093  28.362 -0.1327  0.0670  0.1039
54822W        W97760  11.542   3.683  30.942  0.0565 -0.0577  0.0592
54823W        W97761  12.876   6.555  30.619  0.0695 -0.3521  0.2908
54824W        W97762  12.466   4.339  27.989 -0.0208  0.1164  0.1809
54825W        W97763  12.193   6.645  28.460 -0.1851 -0.4171  0.0488
54826W        W97764  14.244   6.185  30.051 -0.1711 -0.1301  0.3002
54827W        W97765  14.104   5.472  30.596 -0.2195 -0.0409  0.0436
54828W        W97766  12.061   2.917  27.705 -0.2344 -0.0976  0.3320
54829W        W97767  14.689   4.502  30.089  0.0872 -0.1942 -0.0621
54830W        W97768  11.452   7.558  29.458 -0.2672 -0.1097  0.1348
54831W        W97769  13.110   2.899  30.878  0.2116 -0.1786 -0.1012
54832W        W97770  12.841   6.380  31.144  0.0310  0.1441  0.2546
54833W        W97771  10.997   6.028  30.000  0.1407 -0.3270  0.2873
54834W        W97772  10.745   7.579  30.228  0.1078 -0.2326  0.4205
54835W        W97773  13.298   4.463  31.014 -0.0778 -0.1566 -0.2296
54836W        W97774  13.455   3.592  28.935  0.0233 -0.1379 -0.0044
54837W        W97775  12.733   6.150  27.213  0.1784 -0.1839  0.1561
54838W        W97776  14.710   6.708  30.676  0.0689 -0.0425 -0.3638
54839W        W97777  13.679   4.880  30.972  0.3959 -0.1680 -0.2112
54840W        W97778  11.673   4.868  29.782  0.2016 -0.3156  0.1891
54841W        W97779  13.450   6.450  30.526 -0.2242  0.3451  0.3366
54842W        W97780  14.788   5.750  27.859 -0.2115 -0.1415  0.2477
54843W        W97781  12.299   6.665  29.423 -0.0450  0.0744 -0.0777
54844W        W97782  10.644   3.942  30.561 -0.1070 -0.0912  0.0777
54845W        W97783  14.086   5.579  31.595 -0.3744  0.0017  0.2051
54846W        W97784  14.152   4.708  29.897  0.1525 -0.0704  0.1449
54847W        W97785  12.662   3.309  30.121  0.0065 -0.0272  0.1339
54848W        W97786  13.973   6.960  29.271 -0.1187 -0.0508  0.0811
54849W        W97787  11.988   6.545  30.575 -0.0694  0.0360  0.1942
54850W        W97788  10.520   4.911  30.442  0.0471  0.2785 -0.3127
54851W        W97789  11.645   8.073  28.631  0.1851 -0.1891 -0.0730
54852W        W97790  13.266   5.645  27.549 -0.1441 -0.3050  0.0687
54853W        W97791  12.753   5.992  28.644  0.0740  0.0067  0.1414
54854W        W97792  14.730   7.560  30.063  0.0192 -0.0083  0.0664
54855W        W97793  12.920   5.099  28.517  0.0402 -0.2218 -0.0995
54856W        W97794  12.077   7.522  29.643 -0.2814 -0.0477  0.2281
54857W        W97795   9.898   6.810  27.831  0.1295  0.0386  0.0012
54858W        W97796  14.626   7.868  27.543 -0.0605  0.1244  0.2842
54859W        W97797  11.471   7.009  28.766  0.0689  0.0058 -0.0454
54860W        W97798  14.229   4.554  30.382  0.5412 -0.1320  0.1822
54861W        W97799  14.018   5.439  27.080 -0.2508  0.2260 -0.0631
54862W        W97800  14.359   3.688  28.695 -0.2149 -0.0543  0.0534
54863W        W97801  12.305   4.264  28.515 -0.1652 -0.0000 -0.2908
54864W        W97802  13.992   6.364  31.791 -0.0776 -0.1636 -0.0118
54865W        W97803  12.194   6.420  28.976  0.2578  0.1816 -0.0697
54866W        W97804  13.775   3.343  27.642  0.1476  0.1361 -0.1893
54867W        W97805  11.024   4.792  30.150  0.0199 -0.0828  0.0689
54868W        W97806  15.277   4.123  31.218  0.1466 -0.0058 -0.1539
54869W        W97807  11.970   6.862  30.168  0.1948  0.1705 -0.2007
54870W        W97808  14.518   8.172  29.696 -0.1427  0.1383 -0.3888
54871W        W97809  12.003   5.147  27.887 -0.2992 -0.0002  0.2263
54872W        W97810  12.449   6.882  28.852  0.1000 -0.0842 -0.2505
54873W        W97811  14.633   4.081  29.667 -0.0571  0.0356  0.0639
54874W        W97812  13.810   5.886  27.322 -0.2302 -0.1469  0.3076
54875W        W97813  12.820   3.682  29.755 -0.1080  0.4235 -0.3162
54876W        W97814  11.756   7.311  29.091  0.0824 -0.1526 -0.0127
54877W        W97815  13.292   6.057  30.291 -0.0620  0.0036 -0.3737
54878W        W97816  13.584   7.417  29.468 -0.1067 -0.3081 -0.0975
54879W        W97817  11.560   2.797  26.941 -0.2194 -0.4584 -0.0205
54880W        W97818  14.334   3.689  28.200 -0.2632 -0.2902 -0.0372
54881W        W97819  10.121   4.196  31.489 -0.1216  0.1444 -0.1645
54882W        W97820  16.317   3.282  29.802  0.0391 -0.4766  0.0071
54883W        W97821  12.092   5.159  28.775  0.2088  0.3119 -0.2009
54884W        W97822  14.766   3.471  27.687  0.1805 -0.1802  0.0791
54885W        W97823  12.449   6.240  31.890 -0.1365 -0.5031 -0.0798
54886W        W97824  11.243   5.646  30.236  0.0777 -0.1732  0.2647
54887W        W97825  12.699   6.020  26.742 -0.1312  0.2838  0.1199
54888W        W97826  14.243   5.139  31.856 -0.1532 -0.0896 -0.0246
54889W        W97827  13.402   4.874  26.995  0.0389 -0.1013 -0.1167
54890W        W97828  13.405   6.771   0.466 -0.1088 -0.1435 -0.2924
54891W        W97829  11.188   5.795  28.290 -0.1583  0.1486  0.1257
54892W        W97830  13.173   5.099  27.796  0.3167  0.0227 -0.2295
54893W        W97831  10.851   6.085  28.568  0.2009  0.1855  0.0588
54894W        W97832  11.578   5.948  29.741 -0.0775 -0.1697 -0.2306
54895W        W97833  13.994   5.015  30.621 -0.0521  0.0290  0.2933
54896W        W97834   9.712   2.586  28.600 -0.0073 -0.0184 -0.1913
54897W        W97835  15.033   6.585  27.027  0.1855 -0.0447  0.0786
54898W        W97836  13.753   4.347  28.231 -0.3223 -0.0109  0.0955
54899W        W97837  13.091   7.291  28.203 -0.1478 -0.0402 -0.4219
54900W        W97838  12.963   6.014  27.674  0.1207  0.0109 -0.2468
54901W        W97839  14.014   7.684  29.455  0.3366 -0.1584  0.1107
54902W        W97840  10.327   5.995  28.647 -0.3096 -0.0022  0.2115
54903W        W97841  13.861   5.919  29.557  0.2653  0.1524 -0.2563
54904W        W97842  13.236   5.577  28.539 -0.1232 -0.2108 -0.0242
54905W        W97843  13.819   3.160  29.290 -0.0252  0.2455  0.2145
54906W        W97844  12.998   3.587  29.279  0.3225  0.1434  0.1232
54907W        W97845  10.763   6.548  29.466  0.1511  0.1494 -0.0335
54908W        W97846  14.566   3.266  29.057 -0.2372 -0.1096  0.4391
54909W        W97847  14.439   4.554  30.956  0.4441 -0.1558 -0.0031
54910W        W97848  13.195   7.858  27.500  0.0925  0.2078  0.1953
54911W        W97849  14.083   3.338  31.236  0.0764  0.2815  0.0983
54912W        W97850  14.093   6.162  31.243 -0.0402  0.2262  0.1860
54913W        W97851  10.736   6.257  30.465  0.0551  0.1206 -0.0827
54914W        W97852  11.413   5.864  28.711  0.2417 -0.0144 -0.5821
54915W        W97853  12.342   5.835  28.999  0.1391  0.1987  0.2873
54916W        W97854  13.159   5.947  28.215  0.3910 -0.3335  0.0722
54917W        W97855  13.675   6.572  27.825  0.0869 -0.0034 -0.2838
54918W        W97856  14.383   6.708  29.144 -0.0199 -0.1297 -0.1034
54919W        W97857  11.651   6.470  28.862 -0.1534 -0.0827 -0.0972
54920W        W97858  14.853   7.370  28.484 -0.1334  0.2203 -0.0859
54921W        W97859  12.343   4.756  28.765 -0.1423 -0.1413 -0.1499
54922W        W97860  14.043   3.748  27.747  0.0356  0.0691 -0.1513
54923W        W97861  14.812   3.337  29.519 -0.1096  0.2093  0.0178
54924W        W97862  12.392   5.748  31.675 -0.1035  0.0440  0.1627
54925W        W97863  11.545   4.051  27.658 -0.0767  0.2667 -0.0054
54926W        W97864  12.045   4.710  28.340  0.0082 -0.0047 -0.0986
54927W        W97865  12.631   5.942  29.370 -0.1645  0.1564 -0.1887
54928W        W97866  12.653   4.133  31.075 -0.2793  0.2791  0.4034
54929W        W97867  11.966   3.420  30.869  0.1145  0.0767  0.0008
54930W        W97868  13.694   6.499  29.387  0.0857 -0.5266  0.1796
54931W        W97869  12.457   4.625  27.186  0.0566 -0.0384 -0.3042
54932W        W97870  14.566   6.861  28.403 -0.1577 -0.0356 -0.0205
54933W        W97871  11.216   3.977  31.338  0.2006 -0.2136 -0.1059
54934W        W97872  11.302   5.099  29.459 -0.0010  0.3503 -0.1638
54935W        W97873  13.532   7.695  27.112  0.1349  0.0871 -0.0789
54936W        W97874  14.854   8.221  27.926  0.0855  0.1985 -0.1367
54937W        W97875  11.871   4.648  29.333 -0.1479  0.4069 -0.0260
54938W        W97876  14.112   6.857  30.551 -0.1615  0.0953 -0.0310
54939W        W97877  11.255   6.740  28.051  0.0004 -0.2441 -0.1562
54940W        W97878  14.161   3.676   0.192 -0.1352 -0.2663 -0.2566
54941W        W97879  13.494   5.585  31.426  0.0657 -0.1102 -0.2037
54942W        W97880  12.016   3.751  28.343  0.2460 -0.0065 -0.3562
54943W        W97881  13.084   5.490  28.045 -0.0501 -0.2702  0.1019
54944W        W97882  12.798   7.030  29.776 -0.0032 -0.3387 -0.1461
54945W        W97883  13.516   6.963  29.159  0.1124 -0.0626  0.4388
54946W        W97884  11.880   5.466  31.016  0.1554 -0.0290 -0.0088
54947W        W97885  13.892   6.266  30.804 -0.1396  0.0257 -0.1488
54948W        W97886  11.198   2.932  29.494 -0.1037  0.1777  0.0741
54949W        W97887  14.277   8.195  28.662 -0.2627  0.2056 -0.0624
54950W        W97888  13.195   6.957   0.052 -0.1973 -0.3178 -0.0541
54951W        W97889  14.114   6.613  28.461  0.2727 -0.0780  0.2654
54952W        W97890  15.110   3.927  30.781 -0.1753 -0.2306  0.2640
54953W        W97891  13.570   6.024  27.750 -0.0078  0.1754  0.0881
54954W        W97892  13.048   3.833  31.689  0.5288  0.4065  0.1231
54955W        W97893  11.602   5.511  30.633 -0.0408  0.2115  0.1753
54956W        W97894  13.067   4.730  28.233  0.1955  0.0434 -0.0210
54957W        W97895  10.394   2.180  27.958  0.2890 -0.0299 -0.2603
54958W        W97896  12.515   3.702  28.740  0.0066 -0.1438  0.3613
54959W        W97897  15.293   6.368  28.150  0.0863 -0.1256 -0.1534
54960W        W97898  11.516   4.291  29.926  0.1280  0.0281 -0.1174
54961W        W97899  12.727   5.538  27.634  0.2145 -0.1080  0.0406
54962W        W97900  13.273   6.088  29.397 -0.2304 -0.2160  0.0774
54963W        W97901  14.088   6.887  30.029 -0.0355 -0.0098 -0.0309
54964W        W97902  13.060   5.387  31.297  0.2072 -0.1113 -0.1291
54965W        W97903  14.051   5.747  28.571  0.1482  0.0193  0.0539
54966W        W97904  15.915   3.943  29.351  0.0829  0.0075  0.0386
54967W        W97905  13.338   5.782  29.791 -0.1735 -0.0461 -0.0573
54968W        W97906  14.870   5.889  31.095  0.2203 -0.0794  0.0713
54969W        W97907  12.670   7.442  31.841  0.1152  0.1251  0.0048
54970W        W97908  14.298   5.732  28.065  0.0108  0.1486  0.1450
54971W        W97909  11.094   3.870  30.176 -0.0217 -0.1780  0.0539
54972W        W97910  11.793   6.538  27.813  0.2403 -0.4453  0.1434
54973W        W97911  14.461   6.746  29.664 -0.0071  0.2418 -0.0457
54974W        W97912  13.781   4.484  30.192  0.1708  0.5157 -0.2655
54975W        W97913  11.707   3.556  30.010  0.0589  0.0222 -0.0117
54976W        W97914  14.915   3.089  27.336 -0.0071 -0.2177  0.0439
54977W        W97915  12.017   7.683  30.515  0.1529  0.0665 -0.0616
54978W        W97916  12.563   4.193  28.928 -0.0970 -0.2304  0.2219
54979W        W97917  15.106   3.929   0.530  0.0217  0.2929  0.2811
54980W        W97918  12.567   3.995   1.275  0.0904  0.1953  0.2120
54981W        W97919  11.318   5.221  29.950  0.1172  0.1696  0.2947
54982W        W97920  11.358   6.524  30.881  0.0088  0.0123  0.0541
54983W        W97921  11.541   6.678  31.279 -0.0304  0.1354 -0.0010
54984W        W97922  11.926   6.241   1.275 -0.2392  0.1508 -0.1972
54985W        W97923  14.247   3.782   0.993 -0.0377 -0.0689 -0.0167
54986W        W97924  12.571   5.536  30.559  0.2095  0.0581 -0.2210
54987W        W97925  14.944   4.233  31.618  0.2185 -0.4595 -0.3087
54988W        W97926  14.377   6.343  30.578  0.0484  0.1140 -0.0270
54989W        W97927  13.538   4.754  31.911  0.0112  0.1543  0.0724
54990W        W97928  12.409   5.538  31.096  0.1737  0.4877 -0.1445
54991W        W97929  15.016   7.029  31.652  0.1302  0.1548  0.0239
54992W        W97930  10.559   3.690  31.541  0.0380 -0.0905  0.1619
54993W        W97931  14.268   3.347   1.237 -0.0112  0.2376  0.0436
54994W        W97932  12.941   6.653   0.471  0.0465  0.2292 -0.0172
54995W        W97933  11.924   6.382   0.460  0.1412 -0.0465 -0.0589
54996W        W97934  14.718   5.097  31.911  0.1051 -0.0360 -0.2531
54997W        W97935  12.176   1.953  30.872  0.0283  0.5838 -0.0004
54998W        W97936  11.315   5.093  30.486 -0.0454  0.3168 -0.2452
54999W        W97937  11.678   4.101  31.041  0.1920  0.1470 -0.2732
55000W        W97938  11.373   5.800  31.466 -0.1187 -0.0521 -0.1346
55001W        W97939  13.925   4.617  31.274  0.0224 -0.1358  0.1128
55002W        W97940  14.946   3.772   0.086 -0.1996 -0.0285  0.2017
55003W        W97941  12.665   3.459  31.593 -0.2300 -0.3459 -0.2402
55004W        W97942  14.580   3.924  31.769 -0.1021  0.2808  0.0119
55005W        W97943  12.978   4.289  31.447 -0.1467 -0.2562  0.0621
55006W        W97944  11.567   6.617   0.235  0.1654 -0.3679 -0.2712
55007W        W97945  11.406   4.030   0.971  0.1570 -0.1045 -0.1508
55008W        W97946  12.617   5.169  31.381 -0.3259 -0.1571 -0.2286
55009W        W97947  11.028   5.865  31.855  0.0946  0.2451  0.4192
55010W        W97948  10.969   5.385  31.417 -0.1117 -0.1370 -0.0599
55011W        W97949  13.090   5.403  29.464  0.0542  0.1815  0.0388
55012W        W97950  15.660   3.195  30.521  0.1612 -0.2684 -0.0616
55013W        W97951  11.242   3.352  29.916  0.3118  0.1668  0.1863
55014W        W97952  11.380   4.588  30.810 -0.3127 -0.2299 -0.2873
55015W        W97953  11.368   5.897   0.862  0.3747  0.3618  0.1594
55016W        W97954  11.931   5.829  31.410  0.0268  0.0828 -0.0743
55017W        W97955  14.877   5.844   0.895  0.2144 -0.0763 -0.0199
55018W        W97956  12.960   3.380   0.019 -0.2189 -0.0964  0.0614
55019W        W97957  14.000   5.161  31.332  0.1244  0.0937  0.0620
55020W        W97958  11.473   5.631  31.957  0.0756  0.0740  0.0385
55021W        W97959  11.903   4.607  30.753  0.2749  0.2321 -0.2777
55022W        W97960  13.573   3.987   1.307  0.2911  0.0862 -0.1540
55023W        W97961  10.929   4.265  29.833  0.1578 -0.1341 -0.3617
55024W        W97962  13.565   6.091  31.188  0.0744  0.1342 -0.2259
55025W        W97963  14.333   3.319  31.770  0.1603 -0.2061  0.0337
55026W        W97964  12.843   5.574  29.947  0.0265 -0.2558  0.1368
55027W        W97965  13.397   6.276  31.677  0.0571  0.0400 -0.0976
55028W        W97966  11.182   6.484  30.072  0.0828  0.0548 -0.2839
55029W        W97967  15.619   6.003   0.206  0.2352 -0.2242  0.0959
55030W        W97968  13.566   3.591  31.252 -0.1551 -0.1744 -0.1300
55031W        W97969  10.988   4.239   0.299 -0.3709 -0.1105  0.1008
55032W        W97970  13.344   5.101  31.548  0.2317 -0.2375  0.0299
55033W        W97971  13.266   3.749   0.896 -0.0083  0.1315 -0.0077
55034W        W97972  15.169   4.711  31.926  0.3689  0.2118 -0.0238
55035W        W97973  14.260   5.398   1.155 -0.2219  0.0362 -0.0178
55036W        W97974  12.780   6.636  31.967 -0.1172 -0.1129  0.0714
55037W        W97975  11.858   6.072  30.579 -0.1882 -0.0389  0.2629
55038W        W97976  10.912   4.693  30.746  0.4610 -0.4375 -0.2997
55039W        W97977   9.635   6.678  31.239  0.1140 -0.1642 -0.3585
55040W        W97978  12.328   6.172  31.367 -0.4176  0.1551  0.1393
55041W        W97979   9.940   6.020  31.760 -0.0696 -0.0571 -0.1101
55042W        W97980  11.465   3.604  30.455  0.2644 -0.2794 -0.2607
55043W        W97981  14.304   7.273  31.051  0.3293  0.1045 -0.0115
55044W        W97982  14.026   5.732   1.508 -0.1112 -0.2200 -0.0871
55045W        W97983  15.102   4.523  30.426 -0.5291 -0.0243  0.1296
55046W        W97984  10.739   8.973  18.689  0.3067 -0.1164 -0.1232
55047W        W97985  12.276   7.801  18.292  0.0422 -0.0786 -0.2120
55048W        W97986  13.289   6.433  16.137  0.0120  0.0885  0.2374
55049W        W97987  13.109   7.994  18.443  0.0446  0.1303  0.1414
55050W        W97988  12.922   9.100  17.109 -0.2565  0.0144  0.0286
55051W        W97989  13.144   9.966  18.575 -0.4085 -0.2673  0.0432
55052W        W97990  11.773   6.583  19.790  0.2275 -0.4136 -0.3052
55053W        W97991  13.525   9.797  17.775  0.1597 -0.1259  0.1021
55054W        W97992  14.092   9.640  17.722 -0.2320 -0.0751 -0.0291
55055W        W97993  13.909   9.807  16.195 -0.1752  0.0842  0.0418
55056W        W97994  12.059   7.213  19.492 -0.0088  0.2205  0.1652
55057W        W97995  11.495  10.088  18.842 -0.1031  0.0937  0.0658
55058W        W97996  12.175   7.214  16.314  0.0678  0.0401 -0.3342
55059W        W97997  11.358   6.216  17.661 -0.1632 -0.1986 -0.2950
55060W        W97998  13.954   7.600  17.107  0.3106  0.0941  0.1624
55061W        W97999  10.263  10.296  17.348  0.0803  0.2966 -0.0588
55062W        W98000  12.211   7.582  18.837  0.0081  0.0101 -0.0496
55063W        W98001  12.922   7.896  17.665  0.2487 -0.2676 -0.1348
55064W        W98002  12.963  10.769  18.075  0.1930  0.1052  0.0993
55065W        W98003  12.467   7.196  19.147 -0.0188  0.0113 -0.1250
55066W        W98004  11.900   7.116  17.855  0.2210 -0.3290 -0.0358
55067W        W98005  13.241   9.305  16.393 -0.0065 -0.1845 -0.1734
55068W        W98006  11.846   8.357  16.185 -0.1559  0.2232 -0.0343
55069W        W98007  11.983   7.671  19.414 -0.0835 -0.1072 -0.3142
55070W        W98008  11.630   7.835  19.933 -0.0300  0.4628  0.0427
55071W        W98009  12.732   9.134  17.690  0.3346 -0.0377 -0.0645
55072W        W98010  13.499   7.645  18.359  0.3055 -0.3417  0.1280
55073W        W98011  12.442  10.741  17.859  0.1647 -0.1228 -0.0840
55074W        W98012  12.387   8.793  17.846  0.1317 -0.1554 -0.0266
55075W        W98013  13.502   8.817  18.126  0.2015  0.0961 -0.2737
55076W        W98014  11.242  10.279  17.709 -0.1501 -0.1594 -0.0793
55077W        W98015  11.928  10.297  16.576 -0.0948  0.0589 -0.0510
55078W        W98016  10.400  10.442  15.998  0.1012  0.1646  0.1899
55079W        W98017  14.994   9.014  17.874 -0.2059 -0.1463 -0.0176
55080W        W98018  13.618   9.054  18.971 -0.3703 -0.4642  0.0250
55081W        W98019  11.778  10.656  19.562 -0.0759 -0.0496  0.2741
55082W        W98020   9.750  10.144  16.679 -0.2652 -0.0522 -0.1116
55083W        W98021  11.887  10.188  19.718 -0.0666  0.0395  0.2708
55084W        W98022  10.910   9.324  19.073 -0.1745 -0.0691 -0.0038
55085W        W98023  11.168   9.034  18.248  0.0619 -0.1326 -0.0972
55086W        W98024  12.835   9.282  16.114 -0.2671  0.0891  0.0334
55087W        W98025  12.444   9.583  16.257  0.1138  0.3071  0.1255
55088W        W98026  13.263   9.794  17.259 -0.2000 -0.2478 -0.0382
55089W        W98027  11.307   9.222  20.377 -0.0916  0.1188  0.4114
55090W        W98028  11.383  10.131  18.304  0.1522  0.1192 -0.0072
55091W        W98029  14.552   6.221  20.072  0.0916  0.1526 -0.1434
55092W        W98030  11.889  10.748  16.267 -0.1273 -0.1346  0.2090
55093W        W98031  13.092   8.566  15.861 -0.0161  0.3374 -0.2879
55094W        W98032  12.335   6.674  15.660  0.3374 -0.0903  0.0197
55095W        W98033  14.155   7.267  16.757 -0.0041  0.0663 -0.1614
55096W        W98034  10.946   7.237  17.168  0.3485  0.1837  0.3156
55097W        W98035  12.638   9.957  18.314  0.1742  0.4807  0.2302
55098W        W98036  12.319   7.268  18.081  0.0417 -0.0298 -0.2515
55099W        W98037  13.613   9.476  19.881  0.0312  0.0238  0.0995
55100W        W98038  13.254   8.111  16.873  0.1272 -0.2598 -0.1108
55101W        W98039  13.498   7.601  16.842  0.2053  0.0679 -0.2550
55102W        W98040  10.579   9.610  19.277  0.3919 -0.4846  0.0302
55103W        W98041  11.415   8.220  17.028 -0.2453 -0.0988  0.2118
55104W        W98042  12.663   9.611  17.904  0.1340  0.1690 -0.0081
55105W        W98043  14.183  10.353  17.682 -0.1920 -0.0826 -0.2082
55106W        W98044  15.024  10.206  16.368  0.0304  0.0269  0.0226
55107W        W98045  11.878   8.457  17.313  0.0330  0.2069 -0.1275
55108W        W98046   9.928   9.602  18.318 -0.1105  0.0386 -0.0389
55109W        W98047   9.755   8.367  20.025 -0.1380  0.2006 -0.2089
55110W        W98048  11.565   7.543  15.764 -0.1824  0.4618  0.0706
55111W        W98049  14.145   9.873  19.090 -0.2315  0.0980  0.1780
55112W        W98050  10.728   9.326  18.089  0.1396  0.0352  0.1910
55113W        W98051  13.569   8.307  16.562 -0.2333  0.1865 -0.0091
55114W        W98052  12.000   9.981  19.053  0.0872  0.0795 -0.0646
55115W        W98053  13.913   9.046  17.934 -0.1113  0.0265  0.0638
55116W        W98054  14.391  10.871  16.160 -0.0446  0.1179  0.3280
55117W        W98055  13.905   6.900  17.396 -0.1882 -0.3744  0.2155
55118W        W98056  13.865   7.845  18.059  0.1890  0.3428 -0.1246
55119W        W98057  11.453   9.624  17.076  0.3549  0.3934  0.1018
55120W        W98058  12.260   8.954  17.337  0.2599 -0.1697 -0.1754
55121W        W98059  14.445   9.173  19.499  0.0759 -0.0229 -0.1401
55122W        W98060  14.973   8.177  15.804  0.1512  0.2410  0.0174
55123W        W98061  12.309  11.398  17.017  0.0925 -0.0615  0.2931
55124W        W98062  12.557   8.093  19.649 -0.4051 -0.0630  0.1834
55125W        W98063  13.158   9.746  19.188 -0.1212 -0.1759 -0.0347
55126W        W98064  11.859   9.267  16.982 -0.2551  0.0268  0.0776
55127W        W98065   9.542  10.925  17.613  0.2326 -0.0275 -0.1136
55128W        W98066  10.837   9.496  17.051  0.0397  0.2520 -0.0810
55129W        W98067  11.159   6.907  21.022 -0.1516 -0.1205 -0.0025
55130W        W98068  12.467   8.395  17.120 -0.1035  0.2501  0.1763
55131W        W98069  13.523   5.352  17.293 -0.0074 -0.1610 -0.0104
55132W        W98070  10.389   8.177  19.239  0.2812 -0.2109 -0.0189
55133W        W98071  12.747   7.410  17.598 -0.1232  0.1980  0.1624
55134W        W98072  12.068   9.666  17.851 -0.2959 -0.4103 -0.1520
55135W        W98073  13.335  10.299  15.788  0.0992 -0.2444 -0.3562
55136W        W98074  14.152   8.888  17.014 -0.0737 -0.1118 -0.0353
55137W        W98075  15.072   9.763  16.619  0.0130  0.3814  0.1277
55138W        W98076   9.567   8.620  18.570  0.2900 -0.4533 -0.1372
55139W        W98077  11.950   8.527  17.835  0.2564  0.0207  0.0541
55140W        W98078  12.517   8.360  20.765  0.2625  0.0446 -0.2262
55141W        W98079  11.419   6.663  18.393 -0.2249 -0.0575 -0.3626
55142W        W98080  14.905   9.421  18.779  0.1175  0.1817 -0.2324
55143W        W98081  11.363   8.266  15.978  0.0743  0.1498  0.0546
55144W        W98082  12.553   6.145  16.530 -0.2369  0.2510 -0.0145
55145W        W98083  12.308   8.309  16.661 -0.2855  0.2674 -0.3055
55146W        W98084  10.869   9.837  17.851  0.1602  0.1415 -0.0703
55147W        W98085  15.142   7.373  20.062 -0.2328  0.5754  0.0460
55148W        W98086  13.100   9.536  17.676 -0.0012 -0.0979 -0.1264
55149W        W98087  13.287  10.295  17.535 -0.2202 -0.4332  0.0035
55150W        W98088  14.839   9.044  19.164 -0.2715 -0.0669  0.3408
55151W        W98089  11.079   8.786  19.097  0.0521  0.0597 -0.0193
55152W        W98090  11.921   8.012  17.092 -0.1066 -0.0439  0.2169
55153W        W98091  11.025   9.792  16.404  0.1496 -0.0725 -0.1588
55154W        W98092  11.979  11.355  18.281 -0.0089  0.0446  0.2129
55155W        W98093  12.559   8.897  15.956  0.0603 -0.6805  0.2403
55156W        W98094  13.673  10.660  19.313  0.1702  0.4942  0.1705
55157W        W98095  12.943   8.959  18.182 -0.2300 -0.1587 -0.1903
55158W        W98096  11.122   9.732  18.877  0.1288  0.2484 -0.1504
55159W        W98097  12.513   7.584  19.474 -0.1060 -0.2397  0.0668
55160W        W98098  13.493   8.251  18.773  0.2405 -0.1271 -0.8100
55161W        W98099  13.014   7.438  19.092 -0.0888 -0.0184 -0.0545
55162W        W98100   9.330   8.638  16.033  0.0244 -0.4440 -0.0710
55163W        W98101  14.026  10.527  16.711  0.2733 -0.3699  0.0840
55164W        W98102  11.654   9.959  17.914  0.0959  0.1124  0.0569
55165W        W98103  11.232   9.197  18.737 -0.0672  0.3380  0.1864
55166W        W98104  12.105  11.183  16.556  0.1108 -0.1835  0.1414
55167W        W98105  14.722   6.988  17.273  0.0564  0.1406  0.0115
55168W        W98106  11.080   9.606  19.462  0.0151 -0.0394  0.1600
55169W        W98107  12.796   7.068  17.983 -0.0290  0.1373  0.0392
55170W        W98108  10.846   7.920  16.259  0.1232 -0.2266  0.1694
55171W        W98109  12.070   9.284  18.694 -0.0456  0.1200  0.0174
55172W        W98110  12.296   6.293  17.421 -0.4961 -0.2046 -0.0512
55173W        W98111  14.658   7.437  16.869  0.2429 -0.2195  0.0611
55174W        W98112  12.440   8.464  19.042  0.2478  0.2176  0.3476
55175W        W98113  15.470   6.866  16.905 -0.2051  0.0121  0.4530
55176W        W98114  13.094   8.461  16.378 -0.3587 -0.0491  0.0055
55177W        W98115  11.844   5.707  15.967  0.0283 -0.4425 -0.0645
55178W        W98116  11.743   8.448  18.333 -0.0461 -0.1334  0.1102
55179W        W98117  14.118   9.187  17.460  0.0275 -0.1774  0.0322
55180W        W98118  12.931   8.586  19.558 -0.0413  0.1411 -0.0966
55181W        W98119  11.322   7.839  16.229 -0.0206 -0.1491 -0.1784
55182W        W98120  12.642  10.449  16.408 -0.1736  0.1021 -0.0254
55183W        W98121  12.070   8.902  18.173  0.1541 -0.2396 -0.2531
55184W        W98122  14.012   8.203  18.561  0.0836  0.2877 -0.0835
55185W        W98123  14.169   9.382  16.950 -0.1640  0.1207  0.0238
55186W        W98124  11.417   7.137  17.229 -0.3292  0.0105  0.1950
55187W        W98125  12.696   8.068  18.114 -0.2280 -0.0875  0.2462
55188W        W98126  12.675   4.929  17.881  0.2745  0.0279  0.0934
55189W        W98127  10.105   9.779  16.506  0.2759  0.2439  0.0982
55190W        W98128  13.003   7.788  19.560 -0.0913 -0.1443  0.3111
55191W        W98129  12.238   8.305  18.247 -0.1412  0.2635  0.0615
55192W        W98130  11.064   7.288  19.761 -0.0153  0.1935  0.0798
55193W        W98131  14.276   8.215  18.022 -0.2157  0.4734  0.1534
55194W        W98132  12.888   8.918  16.478  0.1238  0.2046  0.1818
55195W        W98133  15.203   8.020  18.001 -0.0680  0.3486 -0.0416
55196W        W98134  10.439   9.646  18.344 -0.2524 -0.1016  0.1659
55197W        W98135  13.164   6.841  20.388  0.0389 -0.1648  0.1474
55198W        W98136  11.561   8.019  17.474 -0.1383  0.1233  0.1145
55199W        W98137  11.047  10.137  19.107 -0.0101  0.4030  0.1324
55200W        W98138  13.428   9.934  19.517 -0.0638  0.3009  0.0989
55201W        W98139  11.499  10.656  17.902  0.3674 -0.0805  0.1718
55202W        W98140  13.024   7.746  20.107 -0.4938  0.1488  0.0345
55203W        W98141  13.235   8.984  15.999 -0.0348  0.1476 -0.3291
55204W        W98142  12.352   9.508  17.461 -0.0846 -0.2104 -0.3629
55205W        W98143  11.912   9.203  16.495 -0.2658 -0.0597  0.2886
55206W        W98144  12.986   5.090  17.522  0.1010  0.0238  0.1155
55207W        W98145  13.343   9.387  17.033  0.2429 -0.2347  0.1906
55208W        W98146  12.098   9.107  15.990 -0.1304  0.0235  0.0782
55209W        W98147  12.201   8.950  19.141 -0.2239 -0.0817  0.3366
55210W        W98148  11.520  10.171  16.885 -0.1008  0.0317  0.1434
55211W        W98149  13.925   7.214  17.752 -0.1217  0.1625 -0.0737
55212W        W98150  10.278  10.730  17.015 -0.0155 -0.0818  0.0671
55213W        W98151  11.071   7.474  15.994 -0.1479  0.0988 -0.0540
55214W        W98152  11.531   7.835  16.683  0.1477  0.1157  0.2143
55215W        W98153  13.932   5.478  17.771  0.2069  0.0282  0.1770
55216W        W98154  14.751   9.104  15.820 -0.1736 -0.1044  0.0805
55217W        W98155  10.938   6.300  19.308 -0.2452  0.1414  0.3407
55218W        W98156  12.293   7.202  17.521 -0.0619 -0.0725 -0.0096
55219W        W98157  10.746  10.254  17.552 -0.3740 -0.3946  0.0073
55220W        W98158  13.777   8.585  19.148 -0.0089 -0.0899  0.0909
55221W        W98159  13.330   5.586  15.726 -0.0702 -0.0057  0.0579
55222W        W98160  12.472   9.110  18.479 -0.3047  0.2583  0.0800
55223W        W98161  11.551   8.317  20.324  0.2164  0.1405 -0.4031
55224W        W98162  10.746   7.873  15.285 -0.0663 -0.1388  0.2172
55225W        W98163  15.535   8.387  18.827 -0.0165  0.1782 -0.2191
55226W        W98164  12.199   5.503  18.683  0.0814  0.1503  0.1620
55227W        W98165  11.824   9.489  16.102 -0.0769 -0.3703 -0.0570
55228W        W98166  14.064  10.014  18.133 -0.2028  0.0927 -0.0340
55229W        W98167  12.457   9.915  16.704  0.0101 -0.2504 -0.0828
55230W        W98168  11.404   9.256  16.149  0.2503  0.3331  0.2015
55231W        W98169  12.600   7.574  20.753 -0.0288 -0.1954 -0.0594
55232W        W98170  13.168   8.641  18.530 -0.0241 -0.0751  0.0966
55233W        W98171  12.018   8.005  17.632  0.5645  0.2159 -0.0781
55234W        W98172  11.933   6.944  16.650 -0.2413 -0.1962  0.0214
55235W        W98173  12.390   8.234  17.777 -0.2356 -0.0254 -0.1195
55236W        W98174  14.584   9.138  17.666 -0.0152  0.0939  0.2447
55237W        W98175  12.765   7.571  18.143 -0.1459 -0.1316  0.1359
55238W        W98176  11.750   8.987  18.983 -0.2257  0.0780  0.1429
55239W        W98177  12.478   5.564  18.169 -0.0094  0.0768 -0.2438
55240W        W98178  14.662  10.089  16.774 -0.0695  0.0238 -0.3067
55241W        W98179  12.376   7.711  17.801  0.1688 -0.2681  0.0099
55242W        W98180  10.471   9.108  17.222  0.0024  0.2260  0.0426
55243W        W98181  10.106   8.750  18.504  0.0895  0.1203  0.2464
55244W        W98182  12.533   8.809  16.855  0.1246  0.1189 -0.1034
55245W        W98183  11.822   6.176  17.950  0.2367  0.2181  0.1022
55246W        W98184  11.336  11.124  17.845  0.0510  0.1361 -0.1389
55247W        W98185  12.445   9.326  16.958  0.1071  0.0632 -0.3653
55248W        W98186  11.520  10.670  16.965 -0.0894  0.2030 -0.1779
55249W        W98187  13.808   6.398  17.179  0.1314 -0.1321  0.1019
55250W        W98188  13.338   9.830  16.086 -0.0171 -0.0949  0.0312
55251W        W98189  13.056   7.131  16.077  0.0992  0.1006 -0.2724
55252W        W98190  13.554   8.430  20.719 -0.1267  0.2292 -0.5760
55253W        W98191  13.679   8.998  17.190 -0.0165 -0.0908  0.0532
55254W        W98192  12.787   8.264  21.271  0.2899 -0.1217  0.0880
55255W        W98193  10.656   7.084  18.228 -0.2172  0.0597  0.0309
55256W        W98194  13.915   8.577  17.330  0.3902 -0.0118  0.2300
55257W        W98195  11.962   7.221  18.545  0.0936 -0.0578  0.3415
55258W        W98196  11.634  11.125  19.955 -0.2407 -0.0397 -0.1150
55259W        W98197  10.365  10.242  18.701 -0.0745  0.0358  0.0728
55260W        W98198  14.394   7.902  16.997  0.0106 -0.0586 -0.3645
55261W        W98199  11.111   6.909  16.176  0.1400  0.2014  0.1619
55262W        W98200  11.645   9.201  18.443 -0.1632 -0.2779 -0.5946
55263W        W98201  15.511   9.270  18.096  0.0538 -0.1244 -0.1241
55264W        W98202  12.432   9.132  16.485 -0.1888  0.1632  0.0793
55265W        W98203  14.532   8.792  17.279  0.0785  0.0081 -0.0771
55266W        W98204  12.640   8.571  18.230  0.1139 -0.2665  0.1401
55267W        W98205  13.474   7.224  17.204 -0.0948  0.0786 -0.1893
55268W        W98206  12.813   8.269  16.755 -0.0278  0.2388 -0.2571
55269W        W98207  10.717  10.731  16.832 -0.0463  0.0507 -0.1977
55270W        W98208  12.174   6.324  18.296  0.2456  0.0760  0.5642
55271W        W98209  13.560   9.643  18.600  0.2147  0.0095 -0.1852
55272W        W98210  13.124   6.760  17.603  0.1402 -0.0717 -0.3540
55273W        W98211  12.420   6.924  16.839  0.2497 -0.4877 -0.0544
55274W        W98212  14.115   7.699  17.570 -0.1801  0.0385  0.2035
55275W        W98213  12.023   8.806  20.193  0.3716  0.1313  0.2151
55276W        W98214  11.022   8.007  21.093 -0.2080  0.1987 -0.2384
55277W        W98215  14.780  10.708  18.831  0.0348 -0.1009 -0.2230
55278W        W98216  13.222   7.151  15.615  0.1191 -0.0387 -0.1439
55279W        W98217  15.083   7.625  17.097  0.2106 -0.0262  0.2782
55280W        W98218  14.954   8.084  16.789 -0.0118 -0.2089  0.1237
55281W        W98219  12.158   7.467  16.703 -0.2282 -0.2249  0.1182
55282W        W98220  10.285   5.900  18.641 -0.1795 -0.3048  0.5390
55283W        W98221  13.870   7.305  20.419 -0.0476 -0.1810 -0.0354
55284W        W98222  12.091   8.673  16.466 -0.0711 -0.1799 -0.0737
55285W        W98223  12.542   7.185  19.718 -0.0034 -0.0580  0.1052
55286W        W98224  13.042   9.936  18.013 -0.0686 -0.3081  0.2607
55287W        W98225  13.827   8.132  17.583 -0.0564 -0.0377 -0.0640
55288W        W98226  13.429   8.814  16.587 -0.0607 -0.0987  0.2033
55289W        W98227  11.234   8.405  16.501  0.0769 -0.4101 -0.0538
55290W        W98228  10.357  10.276  18.151  0.0644  0.3359 -0.3659
55291W        W98229  12.032   7.899  16.559 -0.1068 -0.0383  0.3469
55292W        W98230  11.970   9.845  16.990 -0.0580  0.1086  0.1729
55293W        W98231  13.661  10.387  17.921  0.2480  0.2528  0.2200
55294W        W98232  13.257   8.504  20.326  0.3060  0.0695 -0.1774
55295W        W98233  11.582   6.085  15.802 -0.2010  0.2319 -0.1370
55296W        W98234  13.826   7.921  19.680 -0.0242 -0.0031 -0.0175
55297W        W98235  11.292   9.677  17.676  0.0189 -0.1434  0.1659
55298W        W98236  14.000   7.347  19.457  0.1500  0.0665  0.2610
55299W        W98237  11.951  10.402  17.098  0.1697 -0.1297 -0.0388
55300W        W98238  11.914   9.414  19.154  0.1252 -0.1759  0.1650
55301W        W98239  12.036   9.825  16.436  0.0878 -0.0197  0.1059
55302W        W98240  14.019   7.221  18.522  0.0780 -0.1679  0.2747
55303W        W98241  15.004   9.241  16.669 -0.2041 -0.1374  0.3365
55304W        W98242  13.279   8.779  17.443 -0.1266  0.2139 -0.2172
55305W        W98243  14.090   8.817  19.520  0.2435  0.0692  0.0031
55306W        W98244  12.919   9.391  19.358  0.3601  0.1090  0.1259
55307W        W98245  12.279   8.067  19.270  0.3682 -0.1160  0.0909
55308W        W98246  12.518   8.806  20.475  0.2964  0.2775 -0.1594
55309W        W98247  13.580   8.571  16.963 -0.1084  0.2268 -0.0824
55310W        W98248  13.480   9.377  18.102  0.2558  0.4465  0.2283
55311W        W98249   9.283   7.735  20.419 -0.1081  0.2818 -0.1907
55312W        W98250  12.549   7.906  20.179 -0.1865  0.1353 -0.1839
55313W        W98251  11.830   9.753  18.404  0.0846  0.0146 -0.0749
55314W        W98252  12.160   7.138  15.804 -0.1608 -0.2468 -0.1255
55315W        W98253  12.724   9.799  15.889  0.3138  0.0055  0.1700
55316W        W98254  10.525   9.182  21.841 -0.2606 -0.2203  0.1774
55317W        W98255  10.036   9.553  19.275  0.3023 -0.2420  0.0959
55318W        W98256  11.368  11.440  16.570 -0.1888 -0.1940  0.0966
55319W        W98257  13.028   8.603  17.010  0.1127  0.3693  0.1627
55320W        W98258  13.500   9.210  17.588 -0.3908  0.1836  0.3314
55321W        W98259  13.577   8.509  17.720 -0.2027 -0.0446 -0.2959
55322W        W98260  12.474   7.631  16.261 -0.2887 -0.2081  0.0187
55323W        W98261  12.892   9.703  16.344 -0.0063 -0.1605 -0.1922
55324W        W98262   9.645   9.866  15.962 -0.0757 -0.2220 -0.1661
55325W        W98263  13.824   9.116  16.585  0.0791  0.1607  0.1747
55326W        W98264  12.349  10.037  17.216  0.1175  0.1591 -0.0301
55327W        W98265  14.020   9.431  18.798  0.1289  0.1499 -0.0818
55328W        W98266  14.037   7.023  16.353 -0.0865 -0.2512  0.3760
55329W        W98267  15.040   7.564  16.540  0.1270 -0.0208 -0.3064
55330W        W98268  13.949   7.736  16.609 -0.2314  0.1089  0.1849
55331W        W98269  13.151   9.338  18.926  0.0326 -0.0460  0.0135
55332W        W98270  12.714   8.330  18.626 -0.1673 -0.0394  0.0390
55333W        W98271  12.531   7.817  16.726  0.1294  0.0200 -0.2102
55334W        W98272  10.804   7.640  20.343 -0.0233 -0.0481  0.0252
55335W        W98273  15.374   6.133  19.325 -0.2195 -0.0397 -0.1371
55336W        W98274  10.703   8.837  18.234 -0.3953 -0.2021 -0.0652
55337W        W98275  14.046  10.486  16.119  0.1262  0.3451  0.3221
55338W        W98276  11.731   7.009  16.131  0.0807 -0.1909 -0.0029
55339W        W98277  11.734   8.371  16.660 -0.1716 -0.1581 -0.4511
55340W        W98278  14.768   6.714  17.991 -0.4063  0.0630 -0.1006
55341W        W98279  13.647   9.391  16.096  0.0505  0.3585 -0.3659
55342W        W98280  13.258   7.745  17.284  0.1313  0.0040  0.0934
55343W        W98281  11.854  11.539  16.891  0.0765 -0.0492  0.1890
55344W        W98282  12.683  10.294  17.919 -0.2287  0.1790 -0.0565
55345W        W98283  11.530  10.570  18.443 -0.0874  0.1226  0.1465
55346W        W98284  11.690   6.312  16.743 -0.1638  0.3500 -0.1679
55347W        W98285  14.661   9.256  17.159  0.2384  0.1610  0.0793
55348W        W98286  11.624   8.110  17.954 -0.0470  0.0642  0.3556
55349W        W98287  13.313   8.821  19.325  0.0189 -0.3874 -0.3436
55350W        W98288  12.644   7.808  18.583  0.0492  0.1203  0.1064
55351W        W98289  14.079   8.364  16.754  0.3650  0.4174  0.0619
55352W        W98290  13.753   8.697  18.597 -0.0648 -0.2474 -0.2794
55353W        W98291  11.549   8.826  17.963 -0.0632 -0.1634 -0.1513
55354W        W98292  12.624   9.364  15.659 -0.1241  0.1001  0.2983
55355W        W98293  13.784   9.154  18.442 -0.3097  0.0584 -0.0637
55356W        W98294  13.176   9.464  15.747  0.1429  0.1574 -0.0509
55357W        W98295  13.659   9.645  19.128  0.0105  0.3246  0.3403
55358W        W98296  11.237   8.105  18.833  0.0869 -0.1866 -0.1292
55359W        W98297  14.199   8.633  16.378  0.2779  0.0420 -0.1370
55360W        W98298  11.629   9.363  17.964  0.0218 -0.0361 -0.0124
55361W        W98299  13.200   7.541  17.810 -0.2580 -0.0137  0.0249
55362W        W98300  13.269  10.379  19.202 -0.2112  0.5559 -0.0392
55363W        W98301  10.412   6.294  17.400  0.4227 -0.0374 -0.1275
55364W        W98302  14.099   9.542  15.786  0.0217 -0.1027  0.2813
55365W        W98303  14.247   7.750  18.385  0.1705 -0.3192 -0.0751
55366W        W98304  11.925  10.057  16.031 -0.1219  0.1371 -0.1254
55367W        W98305  13.727   8.057  17.008 -0.0952  0.0533 -0.0849
55368W        W98306  13.732   7.847  18.770 -0.1515 -0.1478  0.4900
55369W        W98307  11.345   9.199  17.326  0.1221  0.1938  0.2383
55370W        W98308  12.747  10.352  19.166  0.0726 -0.3885 -0.2310
55371W        W98309  14.386   9.787  17.286 -0.1292 -0.1396 -0.0027
55372W        W98310  12.560   7.352  17.113 -0.2443  0.0177  0.0840
55373W        W98311  11.805   7.518  17.598  0.0512  0.2329 -0.3587
55374W        W98312  11.800  11.450  16.230  0.2685  0.1980  0.3827
55375W        W98313  14.689   8.036  17.780  0.3091 -0.1046  0.0468
55376W        W98314  13.100   7.271  19.983  0.0512  0.1776  0.0189
55377W        W98315  11.988   8.767  16.911  0.2003 -0.1387  0.1319
55378W        W98316  13.195   6.760  16.518 -0.2515  0.1131 -0.1081
55379W        W98317  12.681   9.703  19.674 -0.1545  0.1165  0.4152
55380W        W98318  10.626   9.704  21.603 -0.1083  0.1831 -0.0532
55381W        W98319  10.964   8.044  16.790  0.0123  0.1811  0.0925
55382W        W98320  13.237   7.871  18.910 -0.1662  0.0742  0.4663
55383W        W98321  12.706  10.922  16.851 -0.1537  0.2271  0.0105
55384W        W98322  12.493  10.419  17.460  0.1023  0.1507 -0.2568
55385W        W98323  15.115   9.796  19.011 -0.1564  0.1532  0.0276
55386W        W98324  12.828   7.993  17.170  0.1363 -0.2578 -0.0263
55387W        W98325  14.438   9.022  16.614 -0.1052  0.1314 -0.1316
55388W        W98326  13.342   6.672  17.142 -0.1347 -0.4989  0.1282
55389W        W98327  13.381   7.875  16.408 -0.2735 -0.0559 -0.2847
55390W        W98328  13.676   7.080  16.743 -0.0376  0.0046  0.2199
55391W        W98329  13.075   7.324  20.518 -0.0393 -0.3131 -0.1862
55392W        W98330  10.741   8.361  16.479  0.2617 -0.0753 -0.1928
55393W        W98331  11.491   8.701  17.008  0.0765 -0.3321 -0.1334
55394W        W98332  12.916   9.990  16.967 -0.1100 -0.2371 -0.0769
55395W        W98333  11.528   7.477  19.596  0.3091 -0.0288 -0.3107
55396W        W98334  11.659   8.031  19.411 -0.0122 -0.3284 -0.4052
55397W        W98335  11.442   8.727  18.613  0.0997  0.0656 -0.1474
55398W        W98336  12.985   7.668  16.735  0.5053 -0.2053  0.2377
55399W        W98337  14.032  11.007  16.497  0.0762 -0.0196  0.1494
55400W        W98338  11.133   6.271  18.100 -0.1295  0.0507 -0.0217
55401W        W98339  10.418   7.274  17.284  0.2797  0.1049  0.1129
55402W        W98340  15.610   9.559  16.785 -0.0576 -0.0081 -0.2993
55403W        W98341  14.706  10.658  17.884  0.0821  0.0220  0.1489
55404W        W98342  13.192   6.083  17.862  0.1120  0.1665  0.0680
55405W        W98343  14.229   8.935  19.052  0.0810 -0.0548 -0.0871
55406W        W98344  10.942   9.361  15.981  0.0679 -0.2924 -0.5917
55407W        W98345  12.682   6.331  18.459 -0.0210 -0.1956 -0.1804
55408W        W98346  11.512   6.976  18.765 -0.1613  0.0358  0.3214
55409W        W98347  10.272   7.749  17.548  0.0545  0.1968  0.1160
55410W        W98348  13.651   7.587  19.218  0.0486  0.0239  0.1668
55411W        W98349  14.373  10.301  17.090 -0.1387 -0.1281 -0.1801
55412W        W98350  13.652   9.781  16.666 -0.1007 -0.2445 -0.1722
55413W        W98351  12.282   9.706  18.648 -0.0750  0.0461  0.0588
55414W        W98352  12.416   9.281  19.527 -0.2322 -0.0795 -0.1751
55415W        W98353  11.053   6.145  19.832  0.0472  0.0454  0.0764
55416W        W98354  14.119  10.046  16.546 -0.1562 -0.1086  0.1314
55417W        W98355  12.239   8.653  18.597  0.1671  0.1198  0.0372
55418W        W98356  14.962  10.577  15.510 -0.2297 -0.2051  0.1959
55419W        W98357  14.249   8.340  18.964 -0.1016 -0.2502 -0.1202
55420W        W98358  12.888   6.778  16.893 -0.0506  0.1041 -0.2233
55421W        W98359  10.191   8.087  19.888 -0.0380 -0.0054  0.1615
55422W        W98360  11.401   9.301  19.251  0.0725 -0.1262 -0.2554
55423W        W98361  14.694   8.440  19.744  0.2627  0.2323 -0.1028
55424W        W98362  11.820   7.648  18.277 -0.1118  0.4909 -0.1327
55425W        W98363  13.426   8.020  17.815  0.3192 -0.0006  0.3398
55426W        W98364  14.623   8.806  16.231  0.1282 -0.3525  0.1196
55427W        W98365  12.260   8.102  18.744  0.2979  0.1063  0.1636
55428W        W98366  13.282   7.307  16.533  0.2004  0.1552  0.4253
55429W        W98367  13.495   8.234  18.275  0.1470  0.2664 -0.0484
55430W        W98368  12.808   9.540  17.189 -0.1952 -0.0154 -0.0428
55431W        W98369  14.185   9.549  18.290  0.2201  0.0616  0.0256
55432W        W98370  11.616   9.968  17.445 -0.2221  0.0042  0.0318
55433W        W98371  14.577   8.445  16.644 -0.0459 -0.4485 -0.1583
55434W        W98372  13.305   9.105  18.506  0.0439 -0.1999 -0.1337
55435W        W98373  15.141  10.023  19.531  0.3621  0.0699  0.1964
55436W        W98374  12.858   8.933  18.794  0.1321 -0.0893 -0.0072
55437W        W98375  14.305   7.912  19.279  0.3145 -0.0534 -0.1924
55438W        W98376  11.141   7.904  20.110 -0.2733 -0.0276 -0.0433
55439W        W98377  11.615  10.521  17.431 -0.0836  0.1453  0.0357
55440W        W98378  12.854   9.348  16.702  0.1223  0.0372 -0.2039
55441W        W98379  15.966   8.688  17.484 -0.0052  0.2397  0.1172
55442W        W98380  12.089   6.624  17.141  0.0045 -0.2973  0.3573
55443W        W98381  13.066   6.698  15.798  0.0867  0.1581 -0.0781
55444W        W98382  11.518  10.487  19.177  0.1215  0.3661  0.0619
55445W        W98383  12.749   8.646  17.435 -0.0927 -0.1053  0.2543
55446W        W98384  15.182   9.703  23.026 -0.0319  0.1144 -0.2551
55447W        W98385  12.805   8.106  19.204  0.3632 -0.1025  0.1981
55448W        W98386  13.318   6.666  19.899 -0.2186 -0.0910 -0.1206
55449W        W98387  15.014   8.830  20.038 -0.2833 -0.1549 -0.1219
55450W        W98388  10.770   7.956  21.664 -0.1774 -0.2784 -0.3031
55451W        W98389  14.014   9.149  20.809 -0.2292 -0.2781  0.1474
55452W        W98390  12.183   7.796  22.890 -0.0105  0.0908  0.0096
55453W        W98391  12.625  11.416  21.847  0.4337 -0.0172 -0.2043
55454W        W98392  13.461  10.523  20.264 -0.3173  0.0871  0.3823
55455W        W98393  12.822   8.806  20.053  0.2183 -0.0611  0.0665
55456W        W98394  12.758   5.852  22.048 -0.2764 -0.2519  0.0662
55457W        W98395  12.788  11.065  22.725  0.1083  0.0763  0.3017
55458W        W98396  13.378   6.313  20.883  0.0788 -0.1843  0.1409
55459W        W98397  12.401   5.256  22.954 -0.0796 -0.4287  0.1918
55460W        W98398  12.998   8.478  23.266 -0.3606  0.2479 -0.1343
55461W        W98399  11.987   8.203  20.959 -0.1069  0.1183 -0.1318
55462W        W98400  12.066   7.862  21.375  0.1771 -0.0279 -0.0125
55463W        W98401  13.384   8.034  19.918  0.0323 -0.0403 -0.0345
55464W        W98402  12.521  10.412  21.296 -0.0624  0.1099  0.0865
55465W        W98403  12.330   7.276  22.168  0.2358 -0.1911 -0.2239
55466W        W98404  12.405   6.625  23.457 -0.0522 -0.1846 -0.0025
55467W        W98405  11.892  10.627  20.274 -0.1709 -0.0989 -0.0199
55468W        W98406  11.166   8.403  19.904  0.0240  0.0430 -0.3349
55469W        W98407  11.288   7.605  21.305  0.3216 -0.3096 -0.0483
55470W        W98408  10.361   8.614  21.216 -0.1273 -0.2711  0.0314
55471W        W98409  14.198   7.446  21.260  0.1701  0.2073 -0.0690
55472W        W98410  14.089   7.430  22.705  0.2204  0.0733 -0.2005
55473W        W98411  12.624  10.620  22.527  0.1075 -0.1002 -0.2239
55474W        W98412  13.121  10.761  20.590  0.2295  0.0347 -0.0563
55475W        W98413  14.239   8.741  22.671 -0.2588  0.1021 -0.1105
55476W        W98414  10.204   8.386  20.832  0.2647  0.2506  0.1001
55477W        W98415   9.967  10.471  20.047 -0.1378 -0.1646  0.0624
55478W        W98416  12.016   9.394  21.936 -0.1726  0.0632  0.0890
55479W        W98417  14.866   9.736  20.888  0.2396  0.2920  0.1264
55480W        W98418  12.048  10.789  23.384 -0.3371  0.0535 -0.2600
55481W        W98419  12.692  11.063  23.237  0.2138  0.1627  0.0381
55482W        W98420  10.344  10.182  19.176 -0.0811  0.4521  0.1386
55483W        W98421  13.326  10.672  23.887  0.1573  0.2732 -0.0123
55484W        W98422  11.357  11.007  23.439 -0.0898  0.1117  0.0385
55485W        W98423  13.218   9.086  22.279  0.1805  0.2346 -0.0736
55486W        W98424  12.808   8.792  21.928 -0.2652  0.2664  0.0557
55487W        W98425  11.054   8.336  20.438  0.3776 -0.0595  0.1242
55488W        W98426  12.220   8.859  20.845  0.2382  0.1047  0.1577
55489W        W98427  11.691   9.057  24.724  0.0278  0.1089  0.1584
55490W        W98428  12.399   9.101  21.270  0.2530  0.1056  0.3188
55491W        W98429  15.391   7.280  24.972  0.0836 -0.1366  0.2325
55492W        W98430  10.754   9.980  19.511  0.2206  0.1447  0.2141
55493W        W98431  14.117   7.689  20.701  0.3154 -0.1661  0.1666
55494W        W98432  11.806   7.884  18.958 -0.1122  0.0996  0.1900
55495W        W98433  13.443   9.054  20.158 -0.1643  0.0532 -0.3284
55496W        W98434  12.503   6.086  21.450  0.1131 -0.0568  0.0061
55497W        W98435  12.295  10.383  21.723 -0.0952  0.2237  0.1598
55498W        W98436  12.970   6.907  22.161  0.0817 -0.0695 -0.0717
55499W        W98437  14.488   9.013  22.996  0.2039 -0.1099 -0.0272
55500W        W98438  12.419   8.653  19.563 -0.1414 -0.1121 -0.1837
55501W        W98439  13.469   8.564  22.783 -0.2032 -0.3672 -0.0996
55502W        W98440  11.679  12.150  22.711 -0.3511  0.0267  0.0780
55503W        W98441  12.323   8.422  21.208 -0.4777 -0.0703 -0.1775
55504W        W98442  14.814   8.870  21.981 -0.0139 -0.2062  0.1043
55505W        W98443  14.930   9.482  20.362 -0.0298  0.2944  0.2178
55506W        W98444  12.396   9.101  19.963  0.3549 -0.0663 -0.1180
55507W        W98445  12.068   9.631  21.367  0.0555  0.0096  0.1578
55508W        W98446  10.963   8.894  22.856  0.2411  0.1833  0.0349
55509W        W98447  12.143   7.801  21.874 -0.3286  0.2418 -0.0746
55510W        W98448  12.695   6.190  20.953 -0.1623  0.2364  0.1664
55511W        W98449  15.426  10.142  23.204 -0.0118 -0.2614 -0.1338
55512W        W98450  11.494   9.949  22.012  0.1191  0.0526  0.0155
55513W        W98451  15.105   9.541  21.488 -0.0152  0.4999 -0.1622
55514W        W98452  12.511   9.666  21.540 -0.0378  0.3296 -0.4065
55515W        W98453  14.008   9.169  23.096 -0.0017 -0.2234 -0.1632
55516W        W98454  12.711   8.922  19.279  0.0427 -0.0365 -0.0007
55517W        W98455  13.783   7.962  22.053  0.1940 -0.1604  0.1200
55518W        W98456  13.029   8.446  21.695  0.0380  0.0916  0.1381
55519W        W98457  10.725   7.737  19.815  0.1793 -0.0308 -0.0813
55520W        W98458  12.429   8.430  20.133  0.3040 -0.1083 -0.1972
55521W        W98459  13.997   9.673  23.124  0.0693 -0.1622 -0.0603
55522W        W98460  13.804   7.830  20.278 -0.0506  0.2078  0.1262
55523W        W98461  10.920   9.906  22.181 -0.0835  0.0177 -0.0980
55524W        W98462  10.641   9.482  22.229  0.0347  0.2768 -0.1290
55525W        W98463  13.221  11.777  22.755  0.2782  0.2790 -0.0035
55526W        W98464   9.698  10.571  17.903 -0.0860 -0.4326  0.0173
55527W        W98465  10.594   8.496  19.850 -0.2391  0.0049  0.2412
55528W        W98466  11.530  10.409  21.004  0.0249 -0.0179  0.1448
55529W        W98467  10.980   7.517  22.417  0.3089 -0.3734  0.2036
55530W        W98468  11.756  10.064  23.253 -0.0512 -0.3506 -0.1241
55531W        W98469  15.761   7.442  21.859 -0.1302 -0.1116 -0.1737
55532W        W98470  11.681   7.889  22.599 -0.0476  0.0618  0.0491
55533W        W98471  14.578   6.059  22.498  0.2505  0.1163 -0.1168
55534W        W98472  13.082   9.422  20.772 -0.4440 -0.0024 -0.1087
55535W        W98473  13.326  10.474  18.708  0.1157  0.0379  0.1342
55536W        W98474  12.836   8.257  20.381 -0.3179  0.0234 -0.1349
55537W        W98475  13.340   9.516  20.315  0.0003 -0.2414  0.0236
55538W        W98476  10.190   9.680  22.052  0.0384  0.2836  0.0411
55539W        W98477  12.040   6.799  21.456 -0.0947  0.1678 -0.0610
55540W        W98478  13.000   6.676  24.288  0.1494 -0.1333  0.3671
55541W        W98479  11.228   7.859  20.665 -0.0625 -0.1598  0.0903
55542W        W98480  12.348   8.113  23.801  0.2895  0.0753 -0.2296
55543W        W98481  10.276   7.801  20.449  0.2863 -0.0159  0.1220
55544W        W98482  15.037   8.126  20.717 -0.3589 -0.2038 -0.1928
55545W        W98483  12.348   6.253  20.541  0.1807  0.1627 -0.0728
55546W        W98484  11.409   9.119  20.902  0.0995 -0.3034  0.1005
55547W        W98485  13.749   8.881  23.506  0.0024  0.0080  0.1629
55548W        W98486  12.330  10.201  19.520 -0.0544 -0.3586  0.2473
55549W        W98487  13.219   9.330  22.710 -0.0488 -0.2277  0.1885
55550W        W98488  13.433  10.867  18.381  0.2725 -0.1983 -0.1287
55551W        W98489  10.981   8.594  21.855 -0.0520  0.0704  0.2348
55552W        W98490  11.099   8.757  21.234 -0.0244 -0.0133  0.0729
55553W        W98491  12.360  11.059  22.479  0.1291 -0.0083  0.1631
55554W        W98492  11.800   9.957  22.735  0.0371 -0.0165 -0.2551
55555W        W98493  13.410   6.930  21.424  0.1298  0.1001 -0.0015
55556W        W98494  13.908  11.182  21.232  0.1846  0.4007  0.0241
55557W        W98495  12.312   9.256  20.509  0.1075 -0.0507 -0.1090
55558W        W98496  10.877   9.853  23.056  0.0851  0.2128  0.2501
55559W        W98497  13.013   6.579  23.371  0.1978  0.0939 -0.0172
55560W        W98498  13.833   8.435  22.307 -0.0119 -0.0990  0.0005
55561W        W98499  14.531   8.623  21.543  0.2495  0.0490 -0.1211
55562W        W98500  11.680   8.517  19.829  0.0341  0.1488 -0.0738
55563W        W98501  14.275   9.704  20.264 -0.1738 -0.1095  0.3537
55564W        W98502  11.913   9.138  21.138  0.2957  0.0056  0.1857
55565W        W98503  10.731   8.963  20.910 -0.1710  0.0967  0.1842
55566W        W98504  12.959  10.705  21.108 -0.0372 -0.1773 -0.1044
55567W        W98505  15.040   7.650  20.687  0.1918  0.1741 -0.3533
55568W        W98506  11.809   9.209  22.727  0.0959  0.1409 -0.1461
55569W        W98507  12.988   8.195  22.692 -0.2769  0.0823  0.0541
55570W        W98508  12.596   7.530  21.611  0.2227  0.2302 -0.0388
55571W        W98509  10.765   9.918  24.297 -0.1875 -0.1490 -0.0084
55572W        W98510  12.748   6.364  22.150  0.3380 -0.0785 -0.1940
55573W        W98511  15.234   6.633  19.217 -0.1163 -0.0415  0.0569
55574W        W98512  13.407   7.848  23.567  0.0248  0.1812 -0.0563
55575W        W98513  14.000   9.569  21.146 -0.1980 -0.0227 -0.2593
55576W        W98514  12.529   7.319  18.542 -0.0447 -0.0442 -0.2211
55577W        W98515  13.454   7.484  20.240  0.4630 -0.0643  0.0642
55578W        W98516  11.205  10.189  22.974  0.2255  0.2622  0.0097
55579W        W98517  12.781   9.058  20.921 -0.0627 -0.1787 -0.1142
55580W        W98518  10.414   9.888  22.572  0.1571  0.0777 -0.1858
55581W        W98519  12.770   7.100  20.885 -0.0593 -0.2689 -0.1124
55582W        W98520  14.019  10.723  21.455  0.4701 -0.0172  0.0374
55583W        W98521  11.424   9.758  23.020 -0.0561 -0.1405  0.0966
55584W        W98522  12.074   9.467  23.062  0.1012  0.1135  0.0112
55585W        W98523  12.887   9.822  21.895 -0.0218  0.0525 -0.0103
55586W        W98524  11.743   6.480  21.777 -0.2045  0.4294 -0.3589
55587W        W98525  12.216   7.882  20.622  0.0321  0.4781  0.1291
55588W        W98526  12.557   6.669  21.284 -0.0268  0.1935  0.1084
55589W        W98527  10.211  11.095  19.406  0.1104  0.2807 -0.1532
55590W        W98528  15.371   8.344  21.207  0.2018 -0.1740 -0.1107
55591W        W98529  13.523   7.529  24.126 -0.1452 -0.1089  0.2117
55592W        W98530  11.929   8.298  21.675 -0.1380 -0.1096 -0.0824
55593W        W98531  14.878   8.017  24.508 -0.1981  0.0545 -0.0213
55594W        W98532  13.739   9.488  20.705 -0.0993 -0.0781 -0.0871
55595W        W98533  13.154   9.665  21.319  0.2716 -0.1094  0.0005
55596W        W98534  11.545   7.129  18.258 -0.2051 -0.0366  0.4771
55597W        W98535  12.412   8.463  23.432  0.1028 -0.0136 -0.1410
55598W        W98536  12.383   8.590  21.654  0.2313 -0.2027 -0.1892
55599W        W98537  10.910  10.248  22.602 -0.0768 -0.3871  0.3262
55600W        W98538  14.277  10.111  23.182  0.0833 -0.0342  0.0934
55601W        W98539  11.847   9.680  23.511  0.0066  0.1477 -0.3376
55602W        W98540  13.075   7.721  23.970  0.1149 -0.1755  0.1499
55603W        W98541  13.805   8.300  20.047  0.2089 -0.2021 -0.2327
55604W        W98542  10.256   9.038  22.246 -0.1250  0.0298  0.0537
55605W        W98543  11.971   8.497  19.286 -0.0025 -0.2717 -0.4305
55606W        W98544  13.369   7.989  21.002  0.1339 -0.0045  0.1370
55607W        W98545  12.972  10.178  21.356 -0.1501  0.0703 -0.0623
55608W        W98546  12.097  10.177  20.207  0.0308 -0.1309  0.0681
55609W        W98547  13.823   9.370  23.535  0.3401  0.0560  0.1767
55610W        W98548  11.573   9.972  21.344  0.2260  0.1420  0.0671
55611W        W98549  13.430   7.984  24.259 -0.0137  0.3369 -0.2150
55612W        W98550  11.352   9.126  22.569 -0.0250  0.0803  0.3023
55613W        W98551  12.054   8.180  19.718 -0.1440  0.2084  0.1547
55614W        W98552  10.270   8.873  20.720  0.2030 -0.0708  0.2208
55615W        W98553  14.786   7.786  20.055  0.0493 -0.1531  0.1714
55616W        W98554  12.985   9.041  20.451 -0.2184 -0.1739 -0.0351
55617W        W98555  12.846   7.571  21.200  0.1881  0.3335 -0.0662
55618W        W98556  12.194   7.026  19.996 -0.0958 -0.0228  0.4384
55619W        W98557  11.481  11.206  22.452  0.0070  0.1258 -0.1646
55620W        W98558  12.659   8.947  22.446  0.2277 -0.0329  0.0762
55621W        W98559  13.417   7.490  19.692  0.0458  0.1449 -0.3491
55622W        W98560  14.616   9.344  21.333 -0.1311  0.2682 -0.0653
55623W        W98561  13.485   8.176  22.475  0.0057 -0.0268  0.1848
55624W        W98562  10.517   8.520  20.463 -0.0358 -0.3780  0.1746
55625W        W98563  14.164   7.561  22.146 -0.0502  0.1928  0.1206
55626W        W98564  13.306   8.877  21.860  0.2910  0.1030  0.0013
55627W        W98565  11.822   9.191  20.567 -0.3269  0.3011  0.2132
55628W        W98566  12.647  11.321  21.363  0.1640 -0.3226  0.1678
55629W        W98567  10.674   8.142  20.151  0.0955  0.2794 -0.1990
55630W        W98568  12.410   9.773  22.024 -0.1060  0.1073 -0.0727
55631W        W98569  11.062   9.381  23.189  0.3579  0.0425  0.0334
55632W        W98570  12.321   9.052  24.290  0.4172 -0.0792  0.2601
55633W        W98571  12.960   8.274  19.893 -0.1234 -0.0261  0.2436
55634W        W98572  12.888   7.957  20.791 -0.1098  0.1050 -0.1766
55635W        W98573  12.976   9.273  21.843  0.3212 -0.0375 -0.1674
55636W        W98574  13.092   9.892  20.862 -0.3534  0.0049 -0.0126
55637W        W98575  11.456   8.588  21.711 -0.0707  0.1415  0.0079
55638W        W98576  12.566   9.699  23.020  0.0397 -0.2640  0.1511
55639W        W98577  14.075   6.802  22.570  0.3012 -0.1805 -0.2153
55640W        W98578  14.850  10.397  20.273  0.1256  0.1446 -0.2468
55641W        W98579  13.811  10.588  23.863  0.1074 -0.3552 -0.1286
55642W        W98580  11.734   8.727  20.694 -0.0229 -0.2436  0.0670
55643W        W98581  10.940   8.356  21.427 -0.1019  0.0229 -0.4081
55644W        W98582  12.180   9.983  21.000 -0.0594  0.0113 -0.1203
55645W        W98583  12.831   8.160  22.063 -0.0690 -0.3297 -0.0176
55646W        W98584  11.223  10.355  22.187 -0.2019 -0.0911  0.0893
55647W        W98585  11.862   8.629  21.247  0.1643  0.0000  0.0967
55648W        W98586  10.319  11.292  22.036  0.2295 -0.2022  0.0926
55649W        W98587  15.197   6.492  20.615 -0.3113  0.1192 -0.1937
55650W        W98588  11.990   8.945  19.667  0.0060 -0.0957 -0.0577
55651W        W98589  15.109   7.092  21.467 -0.3961  0.0753  0.0078
55652W        W98590  14.546   8.927  23.598 -0.1751  0.2059  0.2943
55653W        W98591  13.642   8.985  19.680  0.3974 -0.3651 -0.1923
55654W        W98592  13.060   8.833  22.663 -0.4609 -0.0562 -0.4060
55655W        W98593  11.846   7.416  22.602 -0.0494 -0.3132  0.1518
55656W        W98594  15.404   9.895  21.666  0.2476  0.1539  0.3300
55657W        W98595  11.620   7.679  21.719 -0.1320 -0.0644  0.0595
55658W        W98596  13.565   9.957  22.564  0.0739  0.0102  0.1346
55659W        W98597  12.171   9.424  23.968 -0.3289 -0.0824 -0.0690
55660W        W98598  14.147   7.139  20.826 -0.0108  0.3141  0.2117
55661W        W98599  12.132   7.534  20.937 -0.0745 -0.0497  0.0954
55662W        W98600  12.977   8.962  23.336 -0.2968  0.0369  0.2024
55663W        W98601  14.088   9.130  21.363  0.1019  0.1683  0.1494
55664W        W98602  11.782   8.413  18.844 -0.0265 -0.1659 -0.0144
55665W        W98603  12.666   9.613  20.613 -0.0290 -0.1557  0.2844
55666W        W98604  11.923   9.779  22.278 -0.1937 -0.0455  0.0392
55667W        W98605  14.425   8.597  22.173 -0.0816 -0.0563 -0.0352
55668W        W98606  12.066   8.391  20.491  0.0052 -0.3111 -0.0185
55669W        W98607  12.270   8.791  22.053 -0.0803 -0.2563 -0.4224
55670W        W98608  12.456   8.423  22.539 -0.1961 -0.1406 -0.1088
55671W        W98609  13.429   9.865  21.836  0.1647 -0.2926 -0.3812
55672W        W98610  14.276   7.553  20.239 -0.2295  0.2595  0.0728
55673W        W98611  12.344   7.412  22.614  0.1812 -0.1497  0.0601
55674W        W98612  12.355   7.816  23.379 -0.2339 -0.0185 -0.0031
55675W        W98613  10.726   7.531  22.839  0.0172  0.1400  0.0828
55676W        W98614  12.250   7.698  24.510  0.1045  0.2666 -0.1081
55677W        W98615  13.360  10.570  21.487 -0.2497 -0.2196 -0.1106
55678W        W98616  13.496   7.568  20.735  0.1022  0.0821 -0.0164
55679W        W98617  14.409   8.430  23.046  0.1651 -0.0964  0.2351
55680W        W98618  13.421   8.264  21.927 -0.1769  0.1408 -0.1055
55681W        W98619  13.679   8.842  21.581  0.2106  0.1392  0.1383
55682W        W98620  12.436   7.226  21.232  0.2464  0.3406 -0.1153
55683W        W98621  13.290   8.686  23.712 -0.0005 -0.3290  0.0015
55684W        W98622  11.603   6.647  17.909  0.1435 -0.0012  0.1112
55685W        W98623  13.019   7.788  23.046  0.1988 -0.0597 -0.2097
55686W        W98624  11.288  10.387  20.513 -0.0532  0.0555  0.3082
55687W        W98625  12.646   9.852  21.103  0.0348 -0.0621 -0.0248
55688W        W98626  13.988   8.418  21.822  0.0421  0.2699 -0.1150
55689W        W98627   9.806   9.201  21.341 -0.2408  0.1095  0.0651
55690W        W98628   9.260  12.558  22.793  0.3596 -0.0261  0.2891
55691W        W98629  12.040   8.016  20.193 -0.1277  0.0889  0.3354
55692W        W98630  13.268   8.043  20.473  0.3160  0.0345 -0.2207
55693W        W98631  12.835  10.468  23.252 -0.1789 -0.1124  0.2271
55694W        W98632  13.652   9.140  23.971  0.1626  0.0545  0.1658
55695W        W98633  13.527   6.160  19.989 -0.2332 -0.0994  0.0619
55696W        W98634  13.257   9.644  22.271 -0.0248  0.1826  0.1908
55697W        W98635  10.172   9.862  20.677  0.1117  0.3350  0.3962
55698W        W98636  14.594   7.317  21.595 -0.0856  0.1448  0.0106
55699W        W98637  11.536  10.422  22.629 -0.2274  0.1918 -0.0881
55700W        W98638  10.479   8.663  22.017  0.2229  0.0404 -0.1661
55701W        W98639  12.286  10.203  22.371  0.2206 -0.1741 -0.1412
55702W        W98640  13.756   7.485  21.868  0.2111 -0.0844  0.2111
55703W        W98641  13.855   9.649  21.702 -0.1919 -0.0140  0.2061
55704W        W98642  12.764   8.721  21.397  0.1580 -0.2976  0.1275
55705W        W98643  14.620   8.440  23.633 -0.0207 -0.2051  0.0994
55706W        W98644  12.738   9.174  23.717  0.2627 -0.0252  0.0416
55707W        W98645  12.714   9.399  22.715 -0.2220  0.0973 -0.0209
55708W        W98646  12.382  10.729  22.098  0.0246 -0.2603  0.1556
55709W        W98647  13.879  10.095  20.229  0.1545  0.0946  0.1643
55710W        W98648  13.536  10.353  22.189 -0.1231 -0.0522  0.4763
55711W        W98649  10.567   8.223  22.759 -0.2026  0.0783 -0.0727
55712W        W98650  12.581   8.158  23.059  0.2384 -0.1841 -0.0182
55713W        W98651  14.379   9.683  21.614  0.2219  0.3173 -0.2850
55714W        W98652  13.289   7.273  21.073  0.2105 -0.2166 -0.0129
55715W        W98653  11.691   9.544  19.605  0.4661  0.0132  0.0277
55716W        W98654  10.590   9.190  22.702  0.0835  0.2394  0.1066
55717W        W98655  10.091   9.616  21.512 -0.0093  0.1972  0.1771
55718W        W98656  10.925  10.305  19.829 -0.1935 -0.0663  0.2009
55719W        W98657  14.832   9.348  21.851 -0.0880  0.0090  0.4350
55720W        W98658  13.885   9.296  20.317  0.1234  0.1482 -0.0289
55721W        W98659  14.051  10.071  21.337  0.1753 -0.2550  0.4143
55722W        W98660  11.744   7.388  19.089  0.2486  0.0989 -0.0717
55723W        W98661  10.460   8.325  21.605 -0.0805  0.1831 -0.0741
55724W        W98662  10.465   9.573  20.247 -0.1405  0.1744  0.2032
55725W        W98663  13.367  10.040  20.009 -0.2228 -0.2250 -0.3477
55726W        W98664  12.021  10.617  21.097 -0.1529  0.0702  0.0646
55727W        W98665  14.925   8.492  22.289 -0.2538 -0.2141 -0.1184
55728W        W98666  14.119   6.814  19.323 -0.0706 -0.0261  0.0895
55729W        W98667  13.467  10.136  21.377 -0.2025  0.2605 -0.0262
55730W        W98668  14.972   7.115  20.578  0.2851 -0.1315 -0.1174
55731W        W98669  13.473   9.520  23.108  0.0204  0.4538  0.0508
55732W        W98670  11.781   8.571  22.068 -0.0334 -0.3076  0.0079
55733W        W98671  12.078   6.550  20.931 -0.0931  0.0945  0.0081
55734W        W98672  12.086   8.450  22.994  0.0572 -0.1419 -0.0837
55735W        W98673  13.170   8.236  23.813 -0.0221  0.0462 -0.1144
55736W        W98674  10.894  11.383  23.168 -0.3215 -0.0724  0.0072
55737W        W98675  14.568  10.802  20.922 -0.0637 -0.1120  0.2779
55738W        W98676  11.754   7.765  20.497  0.2445 -0.1274  0.1835
55739W        W98677  12.199   9.250  22.333 -0.2562  0.0394 -0.3590
55740W        W98678  13.355   7.743  22.057 -0.0274  0.1285  0.0115
55741W        W98679  13.425   9.296  19.353 -0.2856  0.0062 -0.0890
55742W        W98680  12.625   7.687  22.193  0.0610  0.1567  0.0211
55743W        W98681  12.122   9.693  19.586 -0.2412 -0.3332 -0.1530
55744W        W98682  12.953   9.482  23.247 -0.1262  0.1168 -0.2502
55745W        W98683  11.586  12.354  21.639 -0.3042  0.0331  0.1426
55746W        W98684  10.533   7.999  21.103 -0.1644 -0.4339  0.0361
55747W        W98685  14.338   8.055  22.021  0.4189  0.0903 -0.1203
55748W        W98686  11.498   8.211  21.358 -0.0494 -0.0372 -0.1322
55749W        W98687  13.117   8.580  24.264 -0.2699 -0.0563  0.0471
55750W        W98688  13.402   9.422  21.653 -0.0516 -0.1095 -0.3703
55751W        W98689  14.625   7.840  21.070 -0.0535  0.2886  0.1227
55752W        W98690  13.419   8.985  23.054 -0.0442 -0.4109 -0.3990
55753W        W98691  11.138   9.053  21.699 -0.4080 -0.1439  0.1920
55754W        W98692  13.415   9.106  20.741  0.3457  0.0327  0.1423
55755W        W98693  14.474   8.878  24.196  0.2458  0.2568  0.3917
55756W        W98694  13.317   8.656  19.860  0.3147 -0.0415  0.1364
55757W        W98695  13.057  11.063  21.387 -0.2687  0.1659  0.0344
55758W        W98696  11.711   7.784  21.070  0.0924  0.5353 -0.0261
55759W        W98697  12.651   7.349  20.268 -0.2649 -0.1015 -0.0714
55760W        W98698  11.954   8.843  21.670  0.3943 -0.1360 -0.3037
55761W        W98699  12.823   6.272  24.034  0.0077  0.2273  0.0085
55762W        W98700  14.541   9.530  22.941  0.1693 -0.0023  0.2292
55763W        W98701  11.146   7.854  19.579 -0.0764 -0.1166  0.0154
55764W        W98702  13.856  10.118  19.384  0.2398 -0.3381  0.2234
55765W        W98703  14.751   7.183  21.082  0.1644 -0.0527 -0.3045
55766W        W98704  11.563   9.583  21.701 -0.3784 -0.1414  0.1219
55767W        W98705  13.459   7.945  21.540 -0.1441  0.0087 -0.2972
55768W        W98706  12.567  10.186  20.014  0.0675 -0.0434  0.2049
55769W        W98707  10.837   8.466  20.947  0.1325 -0.3331  0.1061
55770W        W98708  13.277  11.272  22.895  0.1727  0.3204 -0.0158
55771W        W98709  14.104   9.949  20.653 -0.1734 -0.3140 -0.0138
55772W        W98710  12.553   6.995  21.730 -0.2741 -0.0555 -0.2532
55773W        W98711  13.217   8.872  21.282 -0.1831  0.2265  0.3169
55774W        W98712  11.893  10.654  21.783 -0.5168 -0.0673 -0.2301
55775W        W98713  14.236   8.888  21.817  0.3789 -0.1466 -0.1861
55776W        W98714  15.181   8.360  22.968 -0.0202 -0.2260 -0.0074
55777W        W98715  12.329   9.629  20.072 -0.0751 -0.3309 -0.4726
55778W        W98716  13.124   7.149  23.685 -0.0792 -0.4510  0.1281
55779W        W98717  12.869  10.786  24.040  0.0895  0.2986  0.1074
55780W        W98718  11.876  10.394  24.515 -0.2508  0.0139  0.1196
55781W        W98719   9.477   9.374  19.947  0.1398  0.1399  0.1279
55782W        W98720  13.911   8.681  23.035  0.1207 -0.0257  0.0449
55783W        W98721  12.739  10.324  20.826 -0.1275 -0.0445 -0.0840
55784W        W98722  11.049  10.842  20.776 -0.0302  0.1069  0.0511
55785W        W98723  12.792  11.140  20.822 -0.0371  0.1376 -0.2525
55786W        W98724  13.013   8.555  20.908 -0.0970  0.2762 -0.2469
55787W        W98725  13.192  10.468  19.702 -0.1533  0.1169  0.3033
55788W        W98726  13.752   6.549  20.317  0.2748  0.0897  0.0131
55789W        W98727  14.587   8.411  20.715 -0.0872  0.1445 -0.2302
55790W        W98728  14.118   7.034  19.812  0.0705 -0.1104 -0.2660
55791W        W98729  11.592   9.151  21.917 -0.0903  0.0940  0.0776
55792W        W98730   8.931   9.862  18.428  0.3491  0.0964  0.0225
55793W        W98731  11.294   9.174  19.775  0.2190 -0.0371 -0.2654
55794W        W98732   9.765   9.977  21.917 -0.0226  0.2183  0.0415
55795W        W98733  14.431   6.702  23.059  0.3614 -0.1374 -0.0962
55796W        W98734  11.802   8.068  24.543  0.0333  0.2521  0.1092
55797W        W98735  11.070   9.493  21.956  0.1299  0.0431 -0.1467
55798W        W98736  12.188   7.449  20.415  0.1358  0.1074  0.1258
55799W        W98737  14.657   9.961  19.227  0.0851  0.1488  0.0396
55800W        W98738  11.694   7.044  22.307  0.1958  0.2115 -0.1931
55801W        W98739  11.595   7.061  21.738 -0.3415 -0.0685  0.1009
55802W        W98740  11.384   8.216  22.343 -0.0222  0.0922 -0.3909
55803W        W98741  12.327   9.465  20.952  0.3390  0.0081  0.2093
55804W        W98742  13.549   7.017  20.649  0.1159 -0.0945  0.0595
55805W        W98743  15.564   9.708  23.391 -0.1747  0.0707  0.1644
55806W        W98744   9.925   9.029  18.869  0.0493  0.2040 -0.0184
55807W        W98745  11.912   8.229  23.515  0.1433 -0.2180  0.3490
55808W        W98746  12.861   7.584  23.515 -0.1734  0.0267 -0.1730
55809W        W98747   9.277   7.956  20.878  0.0288 -0.0516 -0.0885
55810W        W98748  13.507   9.354  21.158 -0.0747 -0.0029  0.4143
55811W        W98749  12.503  10.084  20.500  0.3445  0.1596 -0.0927
55812W        W98750  12.885  10.839  19.140 -0.0323 -0.0004  0.1611
55813W        W98751  11.520   9.485  22.294  0.1366  0.0497  0.0788
55814W        W98752  11.467  10.181  23.760  0.0755 -0.0630  0.1986
55815W        W98753  11.847   6.241  22.698 -0.1548 -0.1032 -0.2557
55816W        W98754  12.759   9.381  20.207  0.1773 -0.1605  0.0406
55817W        W98755  11.660  12.495  23.059 -0.1915  0.1356  0.1455
55818W        W98756  14.322   8.547  20.259 -0.0202  0.2654 -0.1345
55819W        W98757  14.495   7.991  21.528 -0.0233  0.1553  0.1762
55820W        W98758  13.432   8.420  21.379 -0.0049 -0.0144 -0.2031
55821W        W98759  10.400   6.070  22.807 -0.0197  0.1871  0.0074
55822W        W98760  11.979  10.378  22.919 -0.2512  0.0479 -0.2467
55823W        W98761  13.723   9.143  21.942 -0.0528  0.0066 -0.1768
55824W        W98762  11.494   6.692  21.389  0.1286 -0.1214 -0.0684
55825W        W98763  13.247   7.452  21.566 -0.2072  0.1135  0.0146
55826W        W98764  13.143   9.626  19.793 -0.0629  0.2604  0.1445
55827W        W98765  12.452   8.109  21.650  0.1558  0.0327 -0.0575
55828W        W98766  13.843   7.135  19.022 -0.1735 -0.0366 -0.1209
55829W        W98767  11.315   8.078  21.805  0.0311  0.0367 -0.0188
55830W        W98768  13.673   9.978  20.953  0.2642 -0.4998  0.0474
55831W        W98769  14.164   9.854  23.613 -0.0909  0.1779  0.0844
55832W        W98770  12.153   9.743  20.548 -0.1215 -0.1296  0.1085
55833W        W98771  13.275   8.227  19.409  0.1925 -0.0729  0.1665
55834W        W98772  12.182  10.249  23.462 -0.0521  0.0261  0.0072
55835W        W98773  15.158  10.555  23.359  0.0321  0.1552  0.0961
55836W        W98774  11.218  10.675  23.092 -0.0104 -0.2303  0.1796
55837W        W98775  13.885   8.226  22.848  0.2826  0.0607  0.0539
55838W        W98776  12.894   5.257  23.058  0.2053  0.0585  0.0338
55839W        W98777  14.015   8.438  21.351  0.0917  0.2455  0.2318
55840W        W98778  11.082   8.829  20.597  0.1281  0.1046  0.0299
55841W        W98779  12.229   8.285  22.098 -0.0678  0.2341  0.2738
55842W        W98780  11.623   6.757  20.837 -0.0418  0.0993  0.0254
55843W        W98781  13.885   7.481  19.927 -0.2358  0.0025  0.0360
55844W        W98782  10.845  11.835  23.452  0.0104  0.0357  0.0457
55845W        W98783  11.955  10.672  22.456 -0.1034 -0.2564 -0.1425
55846W        W98784  11.575  10.260  26.738  0.0871 -0.3337  0.1941
55847W        W98785  12.046   8.641  24.633  0.2471 -0.0655  0.4170
55848W        W98786  14.332   8.955  24.673 -0.2077  0.3227 -0.0771
55849W        W98787  13.079   9.812  23.634  0.1285  0.1259  0.0115
55850W        W98788  10.532   8.258  24.593  0.0015 -0.2678 -0.0650
55851W        W98789  14.273  11.076  24.218  0.3308 -0.0750 -0.1003
55852W        W98790  12.051   7.534  27.221 -0.1999  0.0501  0.2883
55853W        W98791  14.163  10.693  26.348  0.0278 -0.1083 -0.1986
55854W        W98792  13.565  10.028  27.251 -0.0460 -0.0521  0.0492
55855W        W98793  12.783   9.438  22.210  0.2575  0.0423  0.0436
55856W        W98794  12.649   8.441  26.689  0.0922  0.1303  0.1337
55857W        W98795  12.419  11.216  25.458  0.0593  0.0749  0.0017
55858W        W98796  12.244   5.391  24.880 -0.0383  0.1080 -0.0489
55859W        W98797  11.880   7.298  24.724 -0.2135  0.0624 -0.0004
55860W        W98798  14.624   8.260  25.791  0.0119  0.2295 -0.2794
55861W        W98799  11.310  10.191  24.670 -0.2118  0.0161 -0.1688
55862W        W98800  12.289   7.536  26.437 -0.2312 -0.0525  0.1094
55863W        W98801  12.721   9.548  24.817 -0.0746 -0.1061  0.0111
55864W        W98802  14.049  10.812  23.457 -0.3079  0.1016 -0.1906
55865W        W98803  12.493   7.591  26.988  0.1382 -0.0745 -0.0784
55866W        W98804  13.473   8.105  25.356  0.5158 -0.0677 -0.2707
55867W        W98805  13.250  10.330  24.209 -0.0373  0.2365 -0.3030
55868W        W98806  11.773   8.920  24.250  0.1030 -0.0262  0.1415
55869W        W98807  11.887   8.496  25.580  0.1046  0.2222 -0.2347
55870W        W98808  12.997   9.734  26.050  0.1059  0.2382  0.2435
55871W        W98809  13.694   7.456  25.556  0.0674  0.2410 -0.2998
55872W        W98810  14.624   9.058  25.111 -0.2713 -0.0082 -0.0934
55873W        W98811  13.549  11.861  24.523 -0.0598 -0.2049 -0.1646
55874W        W98812  13.097   9.331  24.653 -0.0495 -0.1904 -0.0812
55875W        W98813  13.300   8.497  25.741 -0.2432 -0.0052  0.0116
55876W        W98814  11.535   9.653  23.941  0.0432 -0.0401 -0.0092
55877W        W98815  11.713  10.537  24.053  0.2748 -0.0259  0.1365
55878W        W98816  13.104  10.889  24.870 -0.1913  0.2732  0.3763
55879W        W98817  15.015  10.346  24.958 -0.3220 -0.1581  0.0042
55880W        W98818  14.105  11.164  26.117  0.4298 -0.3249 -0.1138
55881W        W98819  12.175  10.563  27.276  0.0041 -0.1571 -0.0758
55882W        W98820  10.384  10.161  22.067  0.1326 -0.1842  0.0154
55883W        W98821  13.581  10.589  27.027 -0.0403  0.1819  0.3350
55884W        W98822  11.325   9.885  26.477  0.0734  0.0326  0.0312
55885W        W98823  13.940  11.597  24.191  0.1263  0.3469 -0.0731
55886W        W98824  12.665  10.239  24.859  0.2521  0.1180 -0.0708
55887W        W98825  12.397  10.906  24.212  0.4280  0.1177  0.1589
55888W        W98826  13.039   8.754  24.775 -0.3254 -0.2633  0.0215
55889W        W98827  11.521   9.077  26.115  0.1442  0.2946 -0.2084
55890W        W98828  11.585  10.513  25.401 -0.1650 -0.1402  0.0458
55891W        W98829  13.841   9.074  27.211 -0.1764  0.2805  0.0392
55892W        W98830  11.132  10.507  23.573  0.0785 -0.2594 -0.1363
55893W        W98831  14.839   9.267  23.274 -0.1302  0.1164  0.0081
55894W        W98832  11.712   7.999  22.077 -0.0416  0.0912  0.2019
55895W        W98833  12.462   8.126  25.261 -0.1150  0.0147  0.1280
55896W        W98834  12.787   8.356  26.019 -0.0145 -0.1088  0.3504
55897W        W98835  11.203   9.061  25.675 -0.0293 -0.0694  0.0099
55898W        W98836  13.144   8.880  25.482 -0.0918 -0.1812 -0.1523
55899W        W98837  14.454  10.098  25.627 -0.0488  0.2299  0.0257
55900W        W98838  11.636   9.377  23.235  0.0882 -0.1178  0.5229
55901W        W98839  13.376   9.342  25.475 -0.0605  0.1067  0.1090
55902W        W98840  11.933  10.904  25.603  0.4459  0.0201  0.0241
55903W        W98841  12.282   8.211  24.772 -0.1312  0.0265 -0.0648
55904W        W98842  12.737   9.870  22.421 -0.0512 -0.1550 -0.2475
55905W        W98843  15.124   9.367  24.169  0.0442 -0.0933  0.2077
55906W        W98844  14.309   9.923  22.388  0.1055 -0.2472  0.1895
55907W        W98845  11.431   8.807  23.780 -0.0390 -0.0223  0.3828
55908W        W98846  10.906  10.032  24.896 -0.3225 -0.0739  0.1701
55909W        W98847  10.921   8.566  26.959 -0.3117 -0.0651  0.2518
55910W        W98848  12.383   8.157  24.292  0.0072  0.1474 -0.1625
55911W        W98849  14.935   9.037  29.142  0.0358 -0.0522  0.1287
55912W        W98850  11.163  10.639  27.161  0.1193 -0.0004 -0.0679
55913W        W98851  15.088   8.097  25.456  0.3945 -0.0621 -0.1344
55914W        W98852  12.431   9.230  25.924 -0.1166 -0.3564 -0.3066
55915W        W98853  14.802  11.014  26.675 -0.5007 -0.3172 -0.1016
55916W        W98854  12.906  10.525  24.556  0.1358  0.0858 -0.2588
55917W        W98855  14.658   8.048  24.995  0.1044 -0.0514  0.2407
55918W        W98856  13.030   8.216  24.994 -0.2228  0.3177 -0.0651
55919W        W98857  12.668  10.267  24.138 -0.0863  0.1846  0.1675
55920W        W98858  11.925  10.080  25.254  0.0138  0.4486 -0.0966
55921W        W98859  14.545  11.667  25.547 -0.0399  0.5872  0.1050
55922W        W98860  14.181  10.180  24.479  0.1067  0.1068 -0.1047
55923W        W98861  11.197  10.584  25.016 -0.0004 -0.3172 -0.0609
55924W        W98862  12.184   8.471  27.005  0.1424 -0.1433 -0.0629
55925W        W98863  11.954   9.261  26.377  0.1469  0.1973 -0.1655
55926W        W98864  10.316  10.696  23.263 -0.0061 -0.0306 -0.0777
55927W        W98865  10.649   9.867  25.841  0.1012  0.3680  0.4162
55928W        W98866  12.683  10.365  25.368  0.0639 -0.1125  0.0812
55929W        W98867  11.033   6.873  26.524  0.0826  0.3109  0.2066
55930W        W98868  12.497   9.443  25.434  0.5894  0.0102 -0.2709
55931W        W98869  15.008   7.685  25.952  0.2018  0.2885 -0.0898
55932W        W98870  11.328   7.919  27.632 -0.0556  0.0568  0.6542
55933W        W98871  13.105   7.574  24.516 -0.0672  0.2175  0.0078
55934W        W98872  11.261   9.751  25.556 -0.1561 -0.0061  0.0173
55935W        W98873  13.854  12.562  21.967  0.0253 -0.0359 -0.1505
55936W        W98874  12.759   8.642  23.855 -0.0420  0.1399 -0.0468
55937W        W98875  13.795   9.686  22.223 -0.1228 -0.0931 -0.1591
55938W        W98876  11.925   8.798  26.070  0.0330  0.1510  0.0061
55939W        W98877  12.235   9.042  24.859  0.0711  0.1410 -0.1158
55940W        W98878  12.696   7.599  27.452 -0.1846 -0.4333 -0.0496
55941W        W98879  11.717   8.696  25.127  0.3572 -0.1272  0.1878
55942W        W98880  12.476   9.800  26.741  0.1533  0.2545  0.1260
55943W        W98881  12.246   7.576  23.866  0.0595  0.3932  0.1354
55944W        W98882  13.464   9.486  24.321  0.3275  0.0302  0.1599
55945W        W98883  12.101   8.536  24.089  0.1204 -0.1160  0.2726
55946W        W98884  12.195  10.442  24.014  0.1067 -0.0484 -0.0224
55947W        W98885  14.277   7.708  26.433 -0.0099 -0.1659  0.1023
55948W        W98886  13.739  11.121  23.795 -0.1658 -0.0756 -0.1572
55949W        W98887  14.621  12.181  26.648 -0.0244  0.0651 -0.2631
55950W        W98888  14.533  10.827  24.717  0.1863  0.0964  0.0871
55951W        W98889  12.405   9.324  26.684 -0.2097 -0.2357 -0.1769
55952W        W98890  13.493   6.729  24.352 -0.1730  0.1282 -0.4470
55953W        W98891  10.347  11.365  25.875  0.0272 -0.2202 -0.0514
55954W        W98892  12.058  10.955  25.088  0.0880  0.2029 -0.0417
55955W        W98893  12.280   8.935  23.736  0.2748 -0.0611 -0.3143
55956W        W98894  15.505  11.481  24.720 -0.0820 -0.1013  0.1266
55957W        W98895  11.761   9.664  25.512  0.1271  0.3744 -0.1188
55958W        W98896  12.096  10.243  27.673  0.2572  0.2153  0.0706
55959W        W98897  13.975   8.859  27.998 -0.0306  0.1163  0.1238
55960W        W98898  13.756   9.936  25.805 -0.0434 -0.1311 -0.0954
55961W        W98899  13.860   9.617  26.247  0.1786  0.0457  0.1728
55962W        W98900  12.358   7.218  25.006  0.0141  0.1718  0.1712
55963W        W98901  13.994  10.897  25.684  0.2104 -0.0501 -0.3554
55964W        W98902  11.630  10.497  23.329 -0.2645 -0.2502  0.3072
55965W        W98903   9.684   8.723  24.555 -0.3085  0.1347  0.0237
55966W        W98904  13.320  10.819  24.392 -0.1603  0.2602 -0.0268
55967W        W98905  14.846   9.699  25.428  0.1888  0.0324  0.1882
55968W        W98906  10.258  10.686  28.026  0.0135 -0.3152 -0.2803
55969W        W98907  13.205  11.173  25.313  0.2337  0.1274 -0.0560
55970W        W98908  11.130   7.930  23.296 -0.3627  0.0059  0.0577
55971W        W98909  10.423  11.038  28.821 -0.3411 -0.0957 -0.1223
55972W        W98910  13.868   7.553  23.685  0.0450 -0.1072  0.2614
55973W        W98911  15.630   7.553  22.998  0.1054  0.4839 -0.2729
55974W        W98912  13.679  10.831  26.135 -0.0107  0.2232  0.1789
55975W        W98913  14.617   9.431  23.860  0.1658 -0.2799  0.1122
55976W        W98914  13.956   9.094  24.349  0.1521  0.2312 -0.0597
55977W        W98915  12.737   6.775  23.791  0.1232  0.2300 -0.0482
55978W        W98916  12.069  10.083  26.947 -0.0145 -0.0759 -0.0006
55979W        W98917  13.660   9.842  23.447 -0.1764 -0.0834 -0.0333
55980W        W98918  11.926  11.365  25.327 -0.2567 -0.2116 -0.0248
55981W        W98919  13.039   7.167  24.238 -0.0958  0.1666  0.2931
55982W        W98920  13.070   9.421  23.993  0.1200 -0.5223 -0.3210
55983W        W98921  10.370  11.198  27.316  0.1190  0.1387  0.0006
55984W        W98922  12.870  10.935  25.565  0.1951 -0.1551 -0.0408
55985W        W98923  13.708  10.434  24.337  0.1279  0.0405 -0.2533
55986W        W98924  12.724   7.642  25.242  0.1429 -0.0600 -0.2977
55987W        W98925  11.930   8.800  22.491  0.1145  0.2272 -0.3344
55988W        W98926  12.905   5.814  25.238  0.0269 -0.0143 -0.0044
55989W        W98927  10.106   9.402  23.413 -0.2218  0.3016  0.0394
55990W        W98928  14.052   8.525  27.130  0.0029  0.3017  0.0566
55991W        W98929  12.929   9.245  25.737  0.0505 -0.2005  0.2606
55992W        W98930  13.872   6.891  25.310  0.2096 -0.3128  0.0065
55993W        W98931  13.602   8.876  26.746 -0.1800  0.0934  0.0376
55994W        W98932  13.181  10.066  23.246 -0.0043 -0.1924  0.3913
55995W        W98933  13.858  10.276  26.141 -0.1419  0.3465  0.0983
55996W        W98934  11.570   7.755  25.246  0.0452  0.2208  0.2870
55997W        W98935  13.230   9.195  26.593 -0.0023 -0.1961  0.1821
55998W        W98936  10.908   8.721  26.121 -0.1263 -0.1624  0.1062
55999W        W98937  13.162  10.635  25.335  0.2747  0.0685 -0.3081
56000W        W98938  12.508  10.634  26.481 -0.0737  0.3077 -0.2972
56001W        W98939  13.475  10.233  23.715 -0.0256 -0.0438  0.1338
56002W        W98940  12.218   7.375  28.667  0.2440  0.0263 -0.0170
56003W        W98941  11.213   6.838  24.525  0.2739  0.2383 -0.1235
56004W        W98942  13.086  10.824  23.049 -0.2270  0.0577  0.2371
56005W        W98943  11.343   9.932  22.505  0.1289 -0.2109 -0.1624
56006W        W98944  11.391   6.436  25.706 -0.0856 -0.0310  0.1051
56007W        W98945  12.702  10.306  26.877  0.2693  0.0409  0.1702
56008W        W98946  12.552  10.558  23.675 -0.3824  0.0982 -0.3513
56009W        W98947  12.651  11.468  24.536 -0.1879  0.0797 -0.2432
56010W        W98948  11.642  10.083  24.259  0.1661 -0.2604 -0.5488
56011W        W98949  13.695   8.389  25.983  0.1953 -0.2191  0.0148
56012W        W98950  11.648   9.695  26.047  0.4880 -0.2291 -0.1964
56013W        W98951  11.821   9.172  23.689  0.1337 -0.2010  0.1761
56014W        W98952  11.656   8.624  23.327 -0.2433 -0.3008  0.2518
56015W        W98953  12.950   6.673  25.226  0.2544 -0.3445  0.1970
56016W        W98954  13.325   9.359  23.559 -0.0080 -0.0656  0.0847
56017W        W98955  12.331   7.100  27.143 -0.4547 -0.0873  0.0600
56018W        W98956  13.323   7.068  24.685  0.0531 -0.0124  0.2484
56019W        W98957  11.154   9.994  25.965  0.0570  0.0296  0.0741
56020W        W98958  13.101   8.892  26.148  0.2551 -0.1096 -0.2421
56021W        W98959  12.546   8.595  24.335  0.2376 -0.0831 -0.1207
56022W        W98960  13.629  10.783  24.797  0.3180 -0.3480  0.0662
56023W        W98961  13.514   9.628  26.631 -0.2212  0.2544  0.2641
56024W        W98962  12.163   8.515  25.180 -0.0955  0.0359 -0.2048
56025W        W98963  14.813   7.719  26.406  0.1379  0.0514 -0.0782
56026W        W98964  12.403  10.682  25.603  0.0545  0.1769  0.3734
56027W        W98965  11.222  10.440  24.183 -0.0744  0.2873  0.2994
56028W        W98966  12.560  12.030  24.419 -0.0299 -0.0640 -0.0686
56029W        W98967  12.699   9.058  24.673  0.2295  0.2810 -0.0240
56030W        W98968  11.675  10.575  25.925  0.1793  0.1211  0.1140
56031W        W98969  11.259   9.381  28.485 -0.2500  0.1234  0.1416
56032W        W98970  13.669  10.608  25.253 -0.0162  0.0772 -0.1836
56033W        W98971  13.765   9.001  25.362 -0.0490  0.1254 -0.4495
56034W        W98972  12.231   7.203  25.883  0.1024 -0.1525  0.1461
56035W        W98973  13.043   9.867  24.140  0.0762 -0.0156  0.0480
56036W        W98974  14.592   9.641  25.850 -0.0365  0.2408  0.3272
56037W        W98975  14.210   8.154  26.646  0.0677  0.1913 -0.2092
56038W        W98976  11.303  10.379  26.254 -0.1231  0.0447 -0.1883
56039W        W98977  13.206   7.039  26.080  0.3426  0.1465  0.1685
56040W        W98978  14.209   9.636  24.130 -0.2952 -0.0475 -0.1329
56041W        W98979  14.761   8.284  26.363 -0.4020  0.1641 -0.0884
56042W        W98980  11.463   8.971  23.022 -0.1208  0.1490  0.1758
56043W        W98981  12.075  10.338  25.656 -0.1516  0.1000 -0.1820
56044W        W98982  12.240  10.478  25.045  0.2628  0.4106  0.3868
56045W        W98983  14.499   8.716  26.275 -0.2502  0.1679  0.1004
56046W        W98984  11.967   9.992  23.850 -0.0453  0.5476 -0.1462
56047W        W98985  12.369  10.502  24.540 -0.0285 -0.1402 -0.1649
56048W        W98986  11.254  10.725  25.706  0.2737  0.1733 -0.1340
56049W        W98987  15.909   7.854  22.700  0.1539  0.4754  0.1681
56050W        W98988  13.184  10.314  24.986 -0.1274 -0.2411  0.3376
56051W        W98989  12.905   9.005  24.199 -0.1677 -0.2955  0.2086
56052W        W98990  15.803   9.395  28.054 -0.0193  0.0238  0.0897
56053W        W98991  14.149   9.204  23.943  0.0661  0.2498  0.2378
56054W        W98992  14.331   8.152  27.128  0.0167  0.2401  0.0569
56055W        W98993  11.620   8.500  26.950 -0.2724  0.3388 -0.1365
56056W        W98994  14.878   9.000  24.454 -0.0773 -0.2201  0.3866
56057W        W98995  11.250   7.517  27.974 -0.0404 -0.1001  0.0316
56058W        W98996  13.905  11.413  26.887  0.1317  0.1734 -0.1540
56059W        W98997  10.711  10.593  27.218  0.0124 -0.3178  0.0979
56060W        W98998  13.395   9.065  24.986  0.2968 -0.1469 -0.3410
56061W        W98999  11.930   5.679  25.149  0.1349 -0.2212  0.0470
56062W        W99000  10.742   9.187  26.032 -0.1858 -0.1309  0.0055
56063W        W99001  13.478   9.639  25.097 -0.0949  0.0304  0.0397
56064W        W99002  12.452   9.569  23.472 -0.3039 -0.0966 -0.0777
56065W        W99003  14.867  10.081  24.512 -0.0884  0.0583  0.0854
56066W        W99004  11.159   9.469  25.969  0.0789  0.1442 -0.2568
56067W        W99005  14.723   8.851  25.668  0.3116 -0.0665  0.5349
56068W        W99006  11.981   8.977  23.231  0.1486 -0.1161 -0.1837
56069W        W99007  11.460   9.145  25.184 -0.1887  0.2310 -0.1807
56070W        W99008  12.499   9.206  27.213  0.0336 -0.3768 -0.1695
56071W        W99009  14.110   9.667  25.525  0.0432  0.1898  0.1844
56072W        W99010  13.384   8.976  24.459  0.1686  0.0949 -0.3065
56073W        W99011  13.321   9.412  26.162  0.0020 -0.1662 -0.0032
56074W        W99012  12.407   9.711  26.233 -0.0952  0.2524 -0.0274
56075W        W99013  11.698  10.689  26.467 -0.3776  0.0498  0.0482
56076W        W99014  11.376   8.318  27.348  0.1127  0.4152 -0.0173
56077W        W99015  14.061  10.561  24.771 -0.1271 -0.0056  0.0360
56078W        W99016  14.483   9.561  25.105  0.3086  0.1673 -0.0358
56079W        W99017  15.437  10.747  25.545 -0.2892 -0.2393 -0.0410
56080W        W99018  15.406   8.965  24.293  0.1445 -0.2751 -0.1632
56081W        W99019  12.602   8.687  22.935  0.0677  0.0805  0.2138
56082W        W99020  11.141   6.974  27.072  0.1203  0.1591  0.1225
56083W        W99021  14.303   9.496  27.171 -0.3274 -0.3370 -0.0861
56084W        W99022  12.484   9.073  23.243 -0.0338 -0.2059 -0.1091
56085W        W99023  14.346   8.710  25.347  0.1090 -0.1257  0.0753
56086W        W99024  12.865  10.185  22.863 -0.1282  0.3179 -0.2469
56087W        W99025  15.528  10.610  23.809  0.1869 -0.0466  0.2855
56088W        W99026  13.497   9.771  23.935  0.0931  0.0391  0.0938
56089W        W99027  10.171   9.098  25.871 -0.3795  0.1627 -0.2877
56090W        W99028  12.914  11.659  26.158  0.2166  0.2793 -0.1241
56091W        W99029  12.122   7.271  23.283 -0.2182 -0.0335 -0.0851
56092W        W99030  13.152   9.846  24.730 -0.0076  0.3135 -0.3701
56093W        W99031  13.854  12.319  25.347 -0.1927  0.1256  0.1571
56094W        W99032  13.702  10.059  28.587 -0.0577  0.2066 -0.0660
56095W        W99033  13.588   7.339  23.311 -0.1833  0.0646  0.0439
56096W        W99034  15.883   9.800  27.253 -0.1610  0.0934 -0.1075
56097W        W99035  12.267   9.982  24.220 -0.0568  0.0091 -0.0699
56098W        W99036  13.082   6.938  25.611 -0.2163 -0.2084  0.0618
56099W        W99037  12.363  11.045  24.707  0.2718 -0.2586  0.1835
56100W        W99038  10.463  11.091  28.268  0.1299  0.0312 -0.0730
56101W        W99039  12.802  10.143  26.388 -0.3213  0.0403  0.0217
56102W        W99040  12.432   9.867  25.170 -0.4505 -0.1383 -0.1527
56103W        W99041  13.477  10.869  25.633 -0.3201  0.3302  0.1524
56104W        W99042  11.908   9.287  25.864  0.0591 -0.0096 -0.0030
56105W        W99043  14.524   8.712  27.296  0.0262  0.1696 -0.2518
56106W        W99044  11.885   9.836  26.568 -0.2627 -0.0651  0.1091
56107W        W99045  12.576   8.989  25.261 -0.3526 -0.3259  0.0310
56108W        W99046  15.608  10.682  26.171  0.3620  0.2621  0.0077
56109W        W99047  14.715  10.391  25.345  0.0697 -0.2618 -0.0411
56110W        W99048  12.302  11.029  25.916  0.0118 -0.0160  0.4458
56111W        W99049  10.811   9.723  27.618  0.0766 -0.1739 -0.1627
56112W        W99050  13.450   8.599  27.153  0.0290 -0.0777 -0.1616
56113W        W99051  13.019   9.769  26.614  0.0046 -0.1896  0.0191
56114W        W99052  12.561   7.896  25.661 -0.2420  0.1337 -0.1342
56115W        W99053  12.233   9.037  22.783  0.3124  0.2364 -0.3353
56116W        W99054  10.820  11.097  27.352 -0.2319  0.1234 -0.0263
56117W        W99055  10.868   8.698  25.646 -0.0048 -0.0182  0.3105
56118W        W99056  11.432  10.826  24.707  0.1016 -0.0626  0.1403
56119W        W99057  12.911   9.913  25.166 -0.3090 -0.0560 -0.0996
56120W        W99058  12.656   9.482  24.233  0.1250 -0.3127  0.2490
56121W        W99059  14.540  11.866  24.902  0.2078  0.1416  0.2418
56122W        W99060  11.823   7.575  24.228 -0.0790 -0.1415  0.0854
56123W        W99061  12.828  11.342  25.026  0.0110 -0.1230 -0.0846
56124W        W99062   9.374  10.057  21.536 -0.0613 -0.2554  0.1400
56125W        W99063  14.419  10.859  23.818  0.1447 -0.1357 -0.0333
56126W        W99064  11.538  10.153  25.773  0.1271 -0.0158  0.0118
56127W        W99065  14.550  10.192  26.923  0.2065  0.2760  0.0755
56128W        W99066  13.416   7.939  24.777  0.2536  0.2261 -0.1914
56129W        W99067  14.619  10.194  26.101  0.1795  0.2789 -0.5021
56130W        W99068  13.912   7.798  25.289 -0.2822  0.1443  0.3790
56131W        W99069  13.689  11.255  27.550 -0.0096  0.1939 -0.0869
56132W        W99070  11.826  10.184  26.268  0.1288  0.1884  0.2519
56133W        W99071  12.633   7.849  22.680 -0.0366  0.2947  0.1291
56134W        W99072  12.426   8.790  26.223  0.0951 -0.0964  0.0101
56135W        W99073  14.827   7.623  28.036 -0.0142 -0.0519 -0.0317
56136W        W99074  10.791  10.408  25.904 -0.0612 -0.0332  0.2170
56137W        W99075  14.264  11.569  23.224 -0.1276  0.1779 -0.0474
56138W        W99076  11.922   8.010  24.039  0.1923  0.1798  0.1264
56139W        W99077  11.354   7.967  24.211  0.1247  0.1939  0.0398
56140W        W99078  15.202   7.195  25.807  0.1153 -0.1802  0.0399
56141W        W99079  12.603   9.863  23.838  0.0835 -0.1230  0.1549
56142W        W99080  13.371   8.567  25.154 -0.0940  0.0799 -0.2623
56143W        W99081  12.016  10.884  23.870  0.2015  0.2014 -0.0964
56144W        W99082  12.330  11.506  25.020  0.0714  0.2996  0.0481
56145W        W99083  13.896  11.035  25.147  0.0976  0.2491  0.0900
56146W        W99084  12.206   8.925  25.617 -0.2032  0.0042  0.0312
56147W        W99085  14.120  10.194  25.144  0.3742 -0.1792  0.1572
56148W        W99086  11.674   8.956  25.587 -0.0932  0.3517 -0.0628
56149W        W99087  13.867   9.024  26.292  0.2596 -0.0762  0.2007
56150W        W99088  13.673  10.061  25.347 -0.1282  0.3761  0.3426
56151W        W99089  14.265   8.194  25.289 -0.3686 -0.1788  0.1549
56152W        W99090  11.423  10.254  27.247  0.1904 -0.3200 -0.0734
56153W        W99091  11.744   8.139  25.987 -0.1778  0.0081  0.1613
56154W        W99092  12.967   9.312  25.230  0.2026  0.0807 -0.3112
56155W        W99093  14.237   9.377  26.032  0.0080  0.0885  0.0798
56156W        W99094  12.794   8.126  23.530  0.3279 -0.3369  0.0648
56157W        W99095  14.759  12.617  26.510 -0.0723  0.2196 -0.0043
56158W        W99096  11.910   6.342  26.417 -0.0156  0.2923 -0.2937
56159W        W99097  13.283   5.903  24.059  0.0488 -0.0349 -0.0622
56160W        W99098  12.685   9.914  24.485 -0.0830 -0.0233  0.4121
56161W        W99099  13.203  10.440  26.327  0.0814  0.0302 -0.0134
56162W        W99100  15.705   9.513  26.825  0.0887 -0.0090  0.3499
56163W        W99101  11.249   8.141  26.832  0.1294 -0.0623  0.0399
56164W        W99102  15.226   8.890  24.782  0.0835 -0.0046  0.3479
56165W        W99103  14.815   9.452  26.881  0.0756  0.1350  0.0152
56166W        W99104  11.328  11.177  22.926 -0.1910  0.0113 -0.0111
56167W        W99105  13.951   9.725  25.032 -0.1340  0.4843 -0.1171
56168W        W99106  13.796  10.865  26.684  0.0318 -0.0432  0.3203
56169W        W99107  12.021   8.424  26.535 -0.1116  0.0728 -0.1234
56170W        W99108  14.499  11.140  25.630  0.2083  0.0980  0.0682
56171W        W99109  14.898  10.720  25.675  0.0496  0.0787  0.1677
56172W        W99110  12.668   7.844  24.703  0.2285 -0.1206  0.1002
56173W        W99111  13.121   8.588  26.557  0.2192  0.1881  0.1248
56174W        W99112   9.587  11.077  22.695  0.1185 -0.3131 -0.1716
56175W        W99113  15.055   9.936  26.157  0.1617 -0.0674 -0.2163
56176W        W99114  15.140   8.572  25.602 -0.1330  0.1938 -0.0652
56177W        W99115  11.943  12.152  24.439  0.1325  0.1260  0.3227
56178W        W99116  16.464   7.624  26.990 -0.1099  0.2382 -0.0114
56179W        W99117  12.387  11.180  27.515  0.0414  0.1357  0.0642
56180W        W99118  10.378  10.775  25.940  0.0245 -0.0363  0.1491
56181W        W99119  11.281   9.195  24.098  0.2664 -0.2346 -0.0769
56182W        W99120  12.270  10.170  26.454 -0.0317  0.1139  0.1618
56183W        W99121  13.520  11.323  24.877  0.0440  0.1488  0.2379
56184W        W99122  14.859  10.333  23.815  0.0680 -0.2328 -0.2351
56185W        W99123  14.495  10.053  24.077  0.1618  0.0397  0.0921
56186W        W99124  13.699   9.363  24.724  0.0847 -0.0912 -0.2717
56187W        W99125  15.306  10.334  25.335 -0.1107  0.0009 -0.1159
56188W        W99126  12.797   8.571  25.354 -0.1045  0.0627 -0.0039
56189W        W99127  12.930   8.121  24.291 -0.2579 -0.1366 -0.2949
56190W        W99128  12.564   8.619  24.849  0.2647 -0.1106  0.1077
56191W        W99129  12.581  10.165  25.872 -0.2620  0.3459  0.1610
56192W        W99130  10.931   7.565  24.207 -0.0166  0.2185 -0.0452
56193W        W99131  11.884  11.216  22.707  0.0627  0.4489 -0.0490
56194W        W99132  11.290   9.633  25.029 -0.1549 -0.1691  0.4321
56195W        W99133  13.739   7.018  27.606 -0.3511  0.1645 -0.2319
56196W        W99134  11.874   8.082  27.023  0.5217  0.0236 -0.1415
56197W        W99135  10.437  10.065  24.702 -0.0815 -0.0374  0.0604
56198W        W99136  12.698   7.176  24.546  0.1436  0.0715  0.0416
56199W        W99137  14.642   9.893  23.628 -0.0259  0.0363 -0.0426
56200W        W99138  13.892   8.499  25.497  0.3055 -0.3010  0.2749
56201W        W99139  11.326   7.317  25.426 -0.1207  0.0349 -0.2895
56202W        W99140  14.401  10.642  25.866 -0.2681 -0.2473 -0.2120
56203W        W99141  14.004  10.393  25.665  0.0995  0.4678  0.1021
56204W        W99142  11.798   9.483  24.335 -0.1191 -0.0497 -0.0011
56205W        W99143  14.307   9.514  27.759  0.0257  0.0928  0.0945
56206W        W99144  10.601  10.622  23.731 -0.0386  0.0293  0.3404
56207W        W99145  12.292   8.833  26.711  0.0202  0.0025  0.0117
56208W        W99146  12.373   8.189  26.217  0.1829  0.1453 -0.0442
56209W        W99147  11.774   7.260  25.692 -0.2103  0.2875  0.3745
56210W        W99148  12.386   8.380  25.674 -0.1609  0.3198  0.0540
56211W        W99149  14.142  10.599  24.252 -0.2134 -0.2334 -0.0414
56212W        W99150  13.142   9.800  22.762 -0.0512  0.3023 -0.0842
56213W        W99151  10.948   9.657  26.680  0.2338 -0.0583  0.0219
56214W        W99152  14.774  10.918  25.158  0.0333 -0.0910  0.0846
56215W        W99153   9.956   7.113  26.231 -0.3281  0.1685  0.1947
56216W        W99154  13.325  10.619  23.398 -0.1069  0.0176 -0.0046
56217W        W99155  12.130   9.548  27.062  0.0298 -0.1937  0.1064
56218W        W99156  15.550   8.506  24.624 -0.2172  0.0810 -0.0469
56219W        W99157  15.273   7.467  27.556  0.1768 -0.1120 -0.2479
56220W        W99158  13.857   9.793  24.491 -0.1934 -0.1238  0.0375
56221W        W99159  12.138   6.926  28.044 -0.6828 -0.0851 -0.3235
56222W        W99160  12.273   9.431  27.562 -0.5304 -0.1203 -0.0448
56223W        W99161  14.217   9.895  26.009 -0.3136 -0.5962 -0.0395
56224W        W99162  12.907   7.125  25.075  0.3388  0.1128 -0.1237
56225W        W99163  13.497   8.955  25.921  0.0041  0.0328 -0.1763
56226W        W99164  14.268  10.705  25.312  0.1641 -0.0915 -0.0658
56227W        W99165  11.298   8.644  25.374 -0.1715 -0.1989 -0.0912
56228W        W99166  12.608   7.651  24.202 -0.0665  0.0708  0.0593
56229W        W99167  13.479  10.385  25.776 -0.2807 -0.1063 -0.0196
56230W        W99168  14.338  11.237  25.147  0.1087  0.2517  0.3336
56231W        W99169  13.821   9.976  26.769  0.0020  0.2247  0.1606
56232W        W99170  11.810   9.636  24.995  0.0197 -0.2272  0.0330
56233W        W99171  14.956   9.875  24.063 -0.1751 -0.1791  0.0829
56234W        W99172  11.669  10.670  26.960  0.0478 -0.3450 -0.2763
56235W        W99173  15.288  10.773  28.314 -0.0805  0.0194 -0.1118
56236W        W99174  13.800  11.613  23.632 -0.4183 -0.2846  0.0326
56237W        W99175  14.590   9.695  26.329 -0.1916  0.0509  0.0677
56238W        W99176  11.473   8.567  25.920 -0.0900 -0.1126 -0.1425
56239W        W99177  11.305   8.329  23.568 -0.0622 -0.1417 -0.1048
56240W        W99178  11.166   9.873  23.470  0.2369  0.0981  0.0482
56241W        W99179  14.107   9.088  25.664 -0.0138  0.2329 -0.1235
56242W        W99180  10.585   8.948  24.708 -0.0815  0.2785  0.1483
56243W        W99181  13.685   5.519  24.896  0.0845  0.1131 -0.0557
56244W        W99182  13.026  10.496  25.804 -0.0681 -0.0870 -0.3742
56245W        W99183  14.386   9.733  26.745  0.1045  0.2657 -0.0575
56246W        W99184  12.838   8.325  30.646  0.1355 -0.1232  0.0388
56247W        W99185  11.491   8.935  28.257  0.1466  0.1491 -0.0344
56248W        W99186  14.246   9.051  27.528  0.0538  0.4477  0.2549
56249W        W99187  14.038  10.477  29.131  0.0013  0.0410 -0.2485
56250W        W99188  10.937   7.524  28.502  0.0741  0.1006 -0.1260
56251W        W99189  13.280   9.716  29.315  0.0454  0.1196 -0.3199
56252W        W99190   9.661   8.472  29.104  0.4351  0.0699 -0.3006
56253W        W99191  12.593  11.369  29.594 -0.1117 -0.1388  0.2568
56254W        W99192  15.079  10.968  29.624  0.0545 -0.3747 -0.1667
56255W        W99193  13.272  10.207  26.825  0.2957  0.2089  0.1948
56256W        W99194  12.143   9.005  30.424 -0.1802 -0.5577 -0.2112
56257W        W99195  13.528  10.682  29.928  0.3528 -0.0385 -0.2947
56258W        W99196  14.711   7.086  27.982  0.0527  0.0698 -0.2175
56259W        W99197  11.356   8.241  30.136  0.0701 -0.0642 -0.0337
56260W        W99198  13.113   9.272  29.710 -0.1126  0.3085 -0.3709
56261W        W99199  12.492  10.072  28.734 -0.2611 -0.0383  0.0483
56262W        W99200  13.211   7.756  30.116  0.2001 -0.2672 -0.1454
56263W        W99201  12.831   8.449  29.145 -0.0881  0.1015  0.1357
56264W        W99202  13.062  11.180  29.236  0.0268 -0.2302  0.0123
56265W        W99203  13.544   7.437  30.840 -0.1107  0.0288  0.1190
56266W        W99204  12.856   9.497  29.223  0.2947  0.0208  0.1164
56267W        W99205  12.320  10.612  28.774 -0.1600  0.3265  0.1438
56268W        W99206  10.577   9.012  27.209  0.1652  0.0044 -0.1466
56269W        W99207  11.816   7.844  29.231  0.0739 -0.1062  0.1543
56270W        W99208  12.273   7.727  29.132  0.0070 -0.1943  0.1225
56271W        W99209  13.678   6.999  30.366 -0.0321 -0.0932 -0.3401
56272W        W99210  14.160   9.115  28.705 -0.1157  0.0668  0.0703
56273W        W99211  12.968  11.747  27.902 -0.0354 -0.1205  0.0179
56274W        W99212  13.905  10.013  27.638 -0.1381  0.0840  0.0565
56275W        W99213  13.260   8.600  30.716 -0.6442 -0.2007 -0.2017
56276W        W99214  12.586  10.555  30.247  0.0809  0.0013 -0.1893
56277W        W99215  11.585   9.934  28.996 -0.2761  0.0452 -0.1986
56278W        W99216  12.237  11.015  28.001  0.0319  0.0383 -0.1301
56279W        W99217  15.499  10.343  28.292 -0.2211  0.1327 -0.3606
56280W        W99218  13.923   9.959  29.022 -0.0135  0.0824  0.4084
56281W        W99219  12.860   9.588  30.893 -0.0750  0.3910  0.0745
56282W        W99220  10.202  11.167  27.802  0.2237 -0.0061  0.1214
56283W        W99221  14.956  10.895   0.064 -0.1033  0.0201  0.4546
56284W        W99222  12.468   8.770  31.327  0.1385 -0.1168 -0.2314
56285W        W99223  13.153  11.105  30.605 -0.0893  0.1664 -0.1500
56286W        W99224  13.156   9.090  29.260 -0.2435  0.3084  0.4299
56287W        W99225  12.745  11.281  27.964  0.2547 -0.0529 -0.1035
56288W        W99226  13.279   8.099  28.850 -0.0632 -0.1027  0.1286
56289W        W99227  13.639   8.081  30.028  0.1300  0.0356  0.0345
56290W        W99228  10.503  10.476  30.596 -0.3090  0.0332  0.0995
56291W        W99229  14.497   7.127  31.595  0.4386 -0.2564  0.0441
56292W        W99230  13.026  10.673  27.786 -0.1027 -0.3427 -0.3088
56293W        W99231  13.486   9.727  27.631  0.1571  0.0928  0.0902
56294W        W99232  12.697   8.807  25.764 -0.0311 -0.2187 -0.1759
56295W        W99233  12.886   9.409  26.895 -0.2074 -0.0024 -0.2838
56296W        W99234  12.348   7.254  30.266 -0.2804 -0.2970 -0.0274
56297W        W99235  12.928   8.514  30.127 -0.0331 -0.0467 -0.0944
56298W        W99236  12.762   7.986  29.418 -0.0826 -0.0893  0.0409
56299W        W99237  14.238  11.500  30.560 -0.3968 -0.2442  0.1432
56300W        W99238  11.860  10.356  28.097 -0.2182 -0.0898 -0.1326
56301W        W99239  13.434   7.863  31.096  0.1971 -0.0774  0.0414
56302W        W99240  11.390   9.644  29.916 -0.0100  0.2092 -0.0207
56303W        W99241  12.425   9.406  29.544  0.2011 -0.1021 -0.2592
56304W        W99242  14.058  10.482  26.916  0.1056  0.0785 -0.1687
56305W        W99243  16.510   9.879  28.685 -0.0807 -0.2048  0.2840
56306W        W99244  14.301   9.841  28.162  0.2553 -0.0137 -0.0569
56307W        W99245  11.387   9.456  28.976 -0.4208  0.3406 -0.0933
56308W        W99246  11.853   8.302  29.858 -0.3612 -0.4022 -0.2305
56309W        W99247  14.755  10.459  31.524 -0.0754 -0.1635 -0.1516
56310W        W99248  12.338   8.185  28.995 -0.0402  0.3194  0.0830
56311W        W99249  15.335  10.365  31.332 -0.0287  0.0278  0.1204
56312W        W99250  11.884   9.345  30.699  0.1324  0.1248 -0.1692
56313W        W99251  14.082   8.717  29.010  0.0271 -0.0256 -0.3886
56314W        W99252  12.265   9.209  28.988  0.0178 -0.0686 -0.0977
56315W        W99253  15.490   9.254  30.103 -0.0052 -0.0829 -0.1910
56316W        W99254  13.108   9.816  27.128  0.0078  0.0037 -0.3540
56317W        W99255  14.118   8.187  30.206 -0.0456  0.1278 -0.1054
56318W        W99256  13.309   7.054  31.189  0.1233  0.1775 -0.3275
56319W        W99257  11.496   9.924  28.147 -0.2219  0.1095  0.1074
56320W        W99258  10.924   8.846  29.209 -0.0893 -0.0578  0.2831
56321W        W99259  15.917   9.357  29.973 -0.0471  0.1359 -0.2571
56322W        W99260  13.943   7.378  27.236  0.3696 -0.1381 -0.4833
56323W        W99261  10.918  11.089  30.068  0.0854  0.2274  0.3341
56324W        W99262  11.851   6.869  30.960 -0.0235 -0.0715  0.1622
56325W        W99263  13.202  11.349  31.152 -0.0858 -0.0763  0.0957
56326W        W99264  11.754   9.369  27.555 -0.1342 -0.0618  0.0508
56327W        W99265  11.990   9.841  29.543  0.1102  0.0625  0.0953
56328W        W99266  10.299   9.842  27.643 -0.1694 -0.0230 -0.1097
56329W        W99267  12.334   8.301  30.320 -0.2103  0.0688 -0.4668
56330W        W99268  12.891  10.014  28.426 -0.0182  0.1699 -0.2500
56331W        W99269  14.111   8.736  26.653  0.2326 -0.0170  0.1005
56332W        W99270  13.105   7.511  31.366  0.0167 -0.0464 -0.0375
56333W        W99271  13.719   7.630  29.910 -0.1101  0.1155  0.3243
56334W        W99272  13.280  10.245  27.651 -0.1686 -0.0253  0.1465
56335W        W99273  14.080  11.067  29.871  0.2250  0.2904 -0.0545
56336W        W99274  12.962   8.774  28.365 -0.1690 -0.3467 -0.0065
56337W        W99275  14.541  11.344  27.002 -0.2830 -0.1686 -0.1275
56338W        W99276  11.834   8.934  29.927  0.0427 -0.0548 -0.0448
56339W        W99277  10.821   9.164  27.641 -0.4906  0.2019 -0.1547
56340W        W99278  12.589   6.659  31.489  0.0005 -0.1729 -0.2442
56341W        W99279   9.300   9.003  28.306 -0.0052  0.5012  0.1135
56342W        W99280  13.462   8.603  29.863  0.0049  0.0890 -0.0439
56343W        W99281  10.775   7.798  28.076 -0.1353 -0.2146  0.0484
56344W        W99282  14.038   8.266  29.590  0.0638 -0.0911 -0.1289
56345W        W99283  13.773   7.352  28.961  0.3761 -0.4550  0.0854
56346W        W99284  10.469  10.091  28.199  0.2954  0.1180 -0.2382
56347W        W99285  14.366   7.782  31.922  0.0236  0.0094 -0.2174
56348W        W99286  14.223  10.175  28.584  0.0793 -0.0511  0.1888
56349W        W99287  15.523  10.847  29.852  0.1064  0.0555 -0.2865
56350W        W99288  16.020  10.490  29.775  0.1775 -0.3050  0.0809
56351W        W99289  12.696   9.134  29.880  0.0506 -0.1552  0.1287
56352W        W99290  13.611   8.233  27.517 -0.0564 -0.0745 -0.0796
56353W        W99291  10.754  11.450  28.306  0.2520  0.0585 -0.2905
56354W        W99292  13.034   8.724  29.612 -0.0213  0.1136  0.0835
56355W        W99293  12.395   8.682  29.034 -0.0418  0.0836 -0.0233
56356W        W99294  13.550  11.915  29.385  0.2502  0.1866  0.1653
56357W        W99295  13.527   8.916  28.370 -0.0550 -0.0694 -0.1696
56358W        W99296  12.712  10.959  30.537  0.0731  0.0499 -0.2501
56359W        W99297  13.467   7.018  31.648  0.0259 -0.1031 -0.2581
56360W        W99298  15.201   9.917  29.295 -0.1606  0.3719  0.1694
56361W        W99299  13.313   9.946  28.886  0.2089  0.1992 -0.0417
56362W        W99300  10.107   7.118  27.436  0.2464 -0.0583  0.5092
56363W        W99301  13.948  11.299  28.851 -0.1436 -0.1028 -0.0450
56364W        W99302  11.974  10.755  28.381 -0.0594 -0.2609 -0.1222
56365W        W99303  12.205   9.833  29.989 -0.2086  0.1097  0.0420
56366W        W99304  12.939  10.995  27.363  0.2178 -0.1603  0.1427
56367W        W99305  14.758  10.013  28.640  0.1432  0.2349  0.0458
56368W        W99306  11.761   9.820  30.841  0.1523  0.0699  0.1888
56369W        W99307  13.962   7.752  31.112 -0.1670  0.1115  0.0096
56370W        W99308  10.305   8.671  28.319  0.0727  0.2843  0.3853
56371W        W99309  11.610  10.415  30.946  0.2013  0.0078  0.0067
56372W        W99310  13.909   7.449  28.011 -0.0327 -0.3434  0.0438
56373W        W99311  14.900   8.975  27.661 -0.0314  0.0866 -0.0016
56374W        W99312  13.952  10.192  30.823  0.3305  0.1348 -0.2077
56375W        W99313  13.709   9.973  29.487  0.1045 -0.1836  0.1393
56376W        W99314  12.772   8.934  26.716 -0.0782  0.1993  0.1006
56377W        W99315  13.459   9.263  26.988  0.0853  0.0562  0.0281
56378W        W99316  11.400  10.021  31.153 -0.2050  0.0827 -0.0337
56379W        W99317  14.110   9.739  28.597  0.0384 -0.2467 -0.3197
56380W        W99318  11.608  11.789  30.811 -0.0507  0.3631 -0.1513
56381W        W99319  12.691   7.922  28.775  0.1541  0.0868 -0.0138
56382W        W99320  15.458  11.074  27.013  0.0237 -0.0064  0.0755
56383W        W99321  11.699  10.047  29.900 -0.2026  0.1051 -0.0813
56384W        W99322  13.560  11.427  30.630  0.3584 -0.1111  0.0156
56385W        W99323  14.668  10.600  29.412  0.2880 -0.2043 -0.3448
56386W        W99324  12.099   8.585  29.478  0.0577 -0.0845  0.0104
56387W        W99325  12.963   8.683  27.839 -0.1341  0.0311  0.4065
56388W        W99326  12.735   7.659  27.951 -0.1971 -0.4607 -0.0086
56389W        W99327  10.408   9.947  26.567 -0.0031  0.0400  0.0475
56390W        W99328  14.597   7.175  29.755 -0.2573 -0.0306  0.0581
56391W        W99329  14.032   7.389  30.690  0.2478 -0.2336  0.1834
56392W        W99330  13.097   7.666  29.609  0.0123 -0.3538 -0.1986
56393W        W99331  13.868   8.102  30.673 -0.0486  0.3748  0.1362
56394W        W99332  13.017   8.988  27.163 -0.1284 -0.0508  0.1027
56395W        W99333  12.907   9.679  28.781 -0.1254  0.1025  0.2200
56396W        W99334  11.368  10.398  28.562 -0.0006 -0.1910 -0.0351
56397W        W99335  13.362   7.316   0.545  0.1209 -0.0701 -0.2032
56398W        W99336  11.826   9.434  29.860 -0.2320  0.2619 -0.3266
56399W        W99337  11.149  10.664  30.077 -0.1259 -0.0210 -0.0724
56400W        W99338  14.054  10.282   0.269 -0.0574 -0.3387 -0.0987
56401W        W99339  13.314   9.750  28.373  0.3347  0.1378 -0.1520
56402W        W99340  13.983   9.415  31.229 -0.1586 -0.1988  0.0359
56403W        W99341  12.763   8.079  27.646 -0.0342 -0.0485  0.1982
56404W        W99342  11.625  10.946  27.873 -0.1430 -0.1260  0.0932
56405W        W99343  13.966   9.329  26.724  0.2365  0.0226 -0.5346
56406W        W99344  12.802   7.001  30.312  0.2018 -0.0358  0.1700
56407W        W99345  13.761  10.531  29.518  0.2755 -0.1079  0.2825
56408W        W99346  12.847   9.537  27.513  0.0232 -0.0858 -0.0354
56409W        W99347  13.186   9.187  30.744  0.0123  0.1688 -0.3418
56410W        W99348  12.004  11.028  28.808 -0.0232 -0.1138 -0.0396
56411W        W99349  15.171   9.148  30.477  0.1904 -0.0066 -0.0621
56412W        W99350  11.082   9.268  29.420  0.3104  0.1169 -0.0412
56413W        W99351  12.180   8.370  28.520 -0.3845  0.1294  0.2430
56414W        W99352  10.998   8.664  28.073  0.2998 -0.3242 -0.0800
56415W        W99353  13.742   7.931  28.048  0.3546  0.1402 -0.2504
56416W        W99354  14.208  10.213  26.462  0.1912 -0.0403 -0.1635
56417W        W99355  11.832   7.073  29.595  0.2691  0.1721  0.0405
56418W        W99356  13.296   7.220  29.844 -0.2427 -0.1404 -0.2064
56419W        W99357  11.756  11.297  29.520 -0.1401  0.2036 -0.2830
56420W        W99358  12.579   8.431  29.693 -0.0595 -0.0837  0.0897
56421W        W99359  11.784   8.315  29.155  0.0291  0.1624  0.3225
56422W        W99360  15.640   9.842  30.023  0.2192 -0.1574  0.2303
56423W        W99361  13.500   8.476  31.574 -0.0846  0.2711 -0.0395
56424W        W99362  11.847   7.913  27.514  0.2101 -0.1615  0.1189
56425W        W99363  13.720   7.685  30.395  0.0368 -0.1016  0.1839
56426W        W99364  14.062   7.803  28.426  0.1084  0.1430  0.1337
56427W        W99365  11.559  10.204  29.447  0.1588  0.0863  0.3165
56428W        W99366  14.395   9.459  30.921 -0.1372 -0.2311  0.0319
56429W        W99367  11.885   7.933  28.213  0.4638  0.0781 -0.0101
56430W        W99368  12.949  10.775  29.612 -0.3213 -0.1653 -0.1189
56431W        W99369  11.776   9.302   0.531  0.0105 -0.3469 -0.1069
56432W        W99370  13.741   9.520  30.276 -0.0627  0.0538 -0.2635
56433W        W99371  12.821   9.407  28.377  0.1245 -0.2820 -0.0629
56434W        W99372  14.049   7.898  28.961 -0.0303  0.0100  0.1918
56435W        W99373  13.952   9.008  29.493  0.2018 -0.2812  0.1326
56436W        W99374  14.497  10.323  29.818  0.1229  0.1775 -0.1053
56437W        W99375  13.161   8.257  31.074  0.0327  0.1217 -0.1025
56438W        W99376  12.325  11.068  30.872  0.2035  0.2162 -0.1348
56439W        W99377  13.614   7.955  28.571  0.0377  0.1380 -0.2353
56440W        W99378  15.878  10.702  30.272 -0.1762 -0.0761 -0.0121
56441W        W99379  13.237   7.780  30.644  0.1154 -0.1409 -0.2074
56442W        W99380  12.562   9.534  27.998  0.0612  0.3316  0.0342
56443W        W99381  11.338   9.156  29.874 -0.0205 -0.0230  0.1350
56444W        W99382  12.014   9.281  28.176 -0.0465 -0.0645 -0.0062
56445W        W99383  12.756   8.006  30.257 -0.3480  0.1625  0.2320
56446W        W99384  12.010  10.203  28.558 -0.1340  0.1374  0.1080
56447W        W99385  13.169   9.216  28.648 -0.6732 -0.2074 -0.0992
56448W        W99386  11.224  10.531  29.532 -0.1394 -0.1822  0.2216
56449W        W99387  14.947   8.961  27.122 -0.0028  0.1863  0.3010
56450W        W99388  12.550   9.923  27.222  0.0698 -0.1027 -0.2661
56451W        W99389  14.668   7.064  28.843  0.2247  0.2772  0.2679
56452W        W99390  15.182   8.587  30.250 -0.1029 -0.2081 -0.4223
56453W        W99391  12.790   9.358  26.359  0.5059  0.1762  0.0956
56454W        W99392  14.463   8.344  30.655 -0.0920 -0.0074 -0.0691
56455W        W99393  11.300   6.627  29.191 -0.2408  0.2353 -0.2160
56456W        W99394  13.386  11.685  29.822  0.0357  0.2425  0.2509
56457W        W99395  11.760   8.649  30.280  0.2982  0.1182  0.1006
56458W        W99396  13.978  11.228  30.918 -0.0573  0.1226  0.0438
56459W        W99397  13.591   9.024  31.592  0.0484  0.0094 -0.1060
56460W        W99398  13.133   7.674  28.548 -0.0443 -0.0310 -0.2055
56461W        W99399  12.787   7.498  26.559 -0.3146 -0.1018 -0.1800
56462W        W99400  13.693  10.262  30.393  0.2570  0.0467  0.1067
56463W        W99401  15.534  10.540  27.825 -0.0613  0.1627  0.1326
56464W        W99402  11.923   9.545  29.111  0.2226 -0.0653 -0.1520
56465W        W99403  15.308   8.346  29.521 -0.1783 -0.3074 -0.0344
56466W        W99404  12.964  10.036  30.702  0.3418  0.1913  0.2475
56467W        W99405  14.867   9.617  29.064  0.1119 -0.0726  0.0071
56468W        W99406  12.650   8.700  27.159 -0.1556  0.1251 -0.4512
56469W        W99407  12.176   8.730  28.101  0.0723 -0.0175 -0.3985
56470W        W99408  11.997   7.155  30.592 -0.1114 -0.0970  0.0397
56471W        W99409  15.060   9.563  29.955 -0.3882  0.0661  0.3611
56472W        W99410  14.336   7.587  27.256 -0.3183 -0.2052 -0.3356
56473W        W99411  14.191   7.804  29.901  0.1009  0.1557  0.2404
56474W        W99412  12.212   7.864  29.985  0.0279  0.1375 -0.0082
56475W        W99413  12.473   9.165  30.892 -0.0687  0.1089 -0.1387
56476W        W99414  12.675   8.321  31.941 -0.0876  0.1041  0.0159
56477W        W99415  13.367  10.513  28.499 -0.1704 -0.0176  0.3739
56478W        W99416  15.171   8.468  29.044  0.2651 -0.1967  0.1743
56479W        W99417  15.601   7.701  30.182  0.4252 -0.1674  0.0153
56480W        W99418  14.687   8.595  28.885 -0.0160  0.0007 -0.2763
56481W        W99419  13.449   8.967  27.753 -0.2078  0.0316 -0.0289
56482W        W99420  12.555   7.564  30.557 -0.0458  0.0931  0.0809
56483W        W99421  14.207   9.124  31.712  0.2174 -0.0116 -0.2166
56484W        W99422  12.465   8.982  27.745 -0.0177  0.2678 -0.0621
56485W        W99423  12.774   6.898  31.088 -0.0134 -0.2286  0.0593
56486W        W99424  13.633  11.746  26.638 -0.3489 -0.0677  0.0017
56487W        W99425  15.192   9.340  27.417  0.1411 -0.0370 -0.0602
56488W        W99426  13.584   8.485  27.997 -0.0122  0.0314 -0.1628
56489W        W99427  11.678   7.805  29.848 -0.1319  0.0117  0.2627
56490W        W99428  12.675  10.088  30.204  0.0055  0.0268 -0.1893
56491W        W99429  10.427   9.441  26.730 -0.0615 -0.2039 -0.1172
56492W        W99430  11.164  10.824  27.645 -0.0866 -0.0057 -0.3560
56493W        W99431  12.861   9.983  29.201 -0.3175 -0.1469 -0.1556
56494W        W99432  13.944   9.819   0.248 -0.2673 -0.0722  0.2108
56495W        W99433  13.262   8.204  26.197  0.0731  0.3271 -0.3825
56496W        W99434  14.774   8.770  30.499 -0.0106  0.1147  0.1559
56497W        W99435  12.375  10.433  28.257  0.0469  0.1721  0.0571
56498W        W99436  13.252   6.829  30.108  0.0529  0.0810 -0.1614
56499W        W99437  12.022  10.420  29.500  0.2438 -0.2201  0.2471
56500W        W99438  11.629  10.733  29.393  0.0722  0.0161 -0.0718
56501W        W99439  12.802   9.672  30.039  0.3094  0.0455  0.2237
56502W        W99440  13.295   7.302  30.395 -0.1665 -0.0329 -0.0960
56503W        W99441  13.338   8.647  28.962 -0.0460  0.1553  0.0866
56504W        W99442  13.109   8.146  29.819 -0.1197 -0.0738  0.0100
56505W        W99443  13.691   8.497  30.423 -0.1345  0.4544  0.0568
56506W        W99444  14.607  11.240  29.632  0.0845 -0.0676  0.1619
56507W        W99445  13.158   8.948  30.106  0.0748 -0.0629 -0.2089
56508W        W99446  13.497  10.890  30.933  0.0317 -0.2969  0.0502
56509W        W99447  14.438   9.171  29.939 -0.3007 -0.0248 -0.2172
56510W        W99448  12.402   8.714  30.053  0.2429  0.1497 -0.1214
56511W        W99449  11.762   8.458  30.754 -0.3522 -0.1882 -0.2232
56512W        W99450  12.819   9.211  31.213 -0.1380 -0.1734 -0.0697
56513W        W99451  12.847  10.486  28.621 -0.0404 -0.3717  0.0552
56514W        W99452  11.781   9.230  28.688  0.2645 -0.0051  0.0259
56515W        W99453  13.259  10.821  28.155 -0.2019  0.1663  0.2001
56516W        W99454  11.876   9.091  31.758  0.0542 -0.0748  0.1144
56517W        W99455  12.306   9.328  30.056  0.1135  0.1575  0.0508
56518W        W99456  11.800  11.396  27.427  0.1851 -0.0214 -0.2036
56519W        W99457  13.698   9.458  28.504 -0.2585  0.4056  0.0759
56520W        W99458  13.835   9.395  27.778 -0.2914  0.0451  0.1472
56521W        W99459  13.845  11.322  27.996  0.2225 -0.3512 -0.2595
56522W        W99460  11.889   8.416  27.399  0.1796  0.1897  0.0722
56523W        W99461  13.049  10.339  28.135  0.1350 -0.2811 -0.2825
56524W        W99462  10.926  10.875  28.558 -0.0465  0.0495  0.1389
56525W        W99463  14.648   9.299  27.396 -0.1218 -0.0826  0.0958
56526W        W99464  12.496   9.914  29.607  0.1828 -0.1282  0.1889
56527W        W99465  13.471   9.644   0.175 -0.0109  0.2168 -0.2190
56528W        W99466  12.938   8.029  28.235  0.1066 -0.1976 -0.2244
56529W        W99467  14.180  10.131  29.430  0.0055  0.0160 -0.2846
56530W        W99468  14.935   8.797  28.169  0.1885 -0.0125 -0.1055
56531W        W99469  15.263  10.299  31.849 -0.2685  0.2446  0.1353
56532W        W99470  11.894   9.649  30.306  0.0928  0.0997  0.2454
56533W        W99471  12.312   7.887  27.751  0.2478 -0.0148 -0.1999
56534W        W99472  12.181   8.881  28.617  0.0142  0.1464 -0.2453
56535W        W99473  15.489   7.235  31.057  0.1161 -0.0858  0.2296
56536W        W99474  10.705   9.561  29.442 -0.1794  0.1890  0.0320
56537W        W99475  15.862  10.997  26.503  0.0452 -0.0311 -0.1179
56538W        W99476  12.017   9.167  29.495 -0.2900 -0.0661 -0.2791
56539W        W99477  12.408   8.020  30.715 -0.0633  0.3887 -0.2428
56540W        W99478  15.370   7.943  30.642 -0.1297 -0.2168 -0.1065
56541W        W99479  13.278   9.319  27.477  0.2928 -0.0914  0.1146
56542W        W99480  14.483   7.727  29.215  0.3695 -0.2445  0.3928
56543W        W99481  11.126  10.273  29.066  0.1112 -0.1246 -0.0129
56544W        W99482  13.341  10.289  29.442  0.2595  0.1402  0.1189
56545W        W99483  12.453   9.718  29.099 -0.2161  0.4166 -0.0628
56546W        W99484  12.133   7.332  27.687 -0.0873 -0.3266  0.2781
56547W        W99485  15.373   9.289  28.960  0.0308  0.0386 -0.3093
56548W        W99486  13.012   7.365  30.827  0.3442  0.0212 -0.2423
56549W        W99487  14.621   8.658  29.933  0.4198 -0.0058  0.0728
56550W        W99488  13.486  10.218  29.909  0.1763 -0.1799 -0.1285
56551W        W99489  13.958   7.894  27.405 -0.2746  0.2053 -0.2744
56552W        W99490  13.259   9.401  30.283  0.1279 -0.5148  0.1094
56553W        W99491  12.303  10.142  30.722  0.1879 -0.4208 -0.2779
56554W        W99492  12.085   8.304  27.896  0.1704  0.0087  0.1289
56555W        W99493  14.175   9.450  30.487  0.1938 -0.1403 -0.2442
56556W        W99494  13.381   9.370  28.090  0.0493  0.1227  0.1651
56557W        W99495  14.901  10.813  30.653  0.0825  0.1495  0.4034
56558W        W99496  11.707   7.616  27.915  0.3199 -0.1223  0.1238
56559W        W99497  12.681   9.028  28.785  0.0423 -0.1243 -0.4414
56560W        W99498  11.271   8.506  28.471 -0.3407  0.4966  0.1572
56561W        W99499  12.934   7.073  31.611  0.0852  0.1917 -0.1066
56562W        W99500  16.269  10.520   0.614  0.1281  0.1887 -0.4997
56563W        W99501  10.602   7.096  29.274 -0.3391 -0.0553 -0.1156
56564W        W99502  13.893  11.670  26.087 -0.0171  0.0602 -0.0585
56565W        W99503  13.948   8.682  29.907  0.2158 -0.1910 -0.1464
56566W        W99504  13.041   9.797  27.915 -0.1867  0.0938 -0.2343
56567W        W99505  14.640   8.952  28.546 -0.0307 -0.0237  0.0960
56568W        W99506  14.664  12.631  29.347  0.0727 -0.0746 -0.1998
56569W        W99507  12.218   8.011  29.538 -0.3360  0.0164 -0.0225
56570W        W99508  14.594  10.293  28.193  0.0109 -0.0142  0.1454
56571W        W99509  15.229  10.425  29.616 -0.0177 -0.2970  0.1918
56572W        W99510  14.039   7.309  28.485  0.0435  0.2604 -0.2097
56573W        W99511  12.651   9.017  29.321  0.2616 -0.0681  0.0355
56574W        W99512  10.384  11.633  28.654  0.3464 -0.2648  0.1631
56575W        W99513  14.942   8.280  29.936  0.4872  0.0026  0.0245
56576W        W99514  16.030   9.812  31.341  0.1324 -0.0629 -0.0419
56577W        W99515  11.565   9.470  27.098  0.0996 -0.1929 -0.0918
56578W        W99516  13.665   6.866  29.704 -0.1062  0.2386 -0.4097
56579W        W99517  14.545  11.191  30.213  0.0930  0.1456  0.2284
56580W        W99518  13.200  10.482  30.998 -0.0188 -0.5873 -0.0622
56581W        W99519  11.138   9.156  26.961  0.1549 -0.3125 -0.1659
56582W        W99520  12.844   8.773  30.950  0.1014 -0.2143  0.4626
56583W        W99521  13.697   9.017  28.988 -0.1819 -0.2952  0.1372
56584W        W99522  14.127  11.325  28.399  0.0978 -0.0182 -0.0135
56585W        W99523  15.039  10.511  28.010  0.0477 -0.1426 -0.0349
56586W        W99524  13.473   9.499  28.936  0.0832  0.1691  0.0018
56587W        W99525  15.468   9.352  29.616  0.1206 -0.1665  0.1100
56588W        W99526  13.602   6.434  28.600  0.2839 -0.2797 -0.0665
56589W        W99527  14.321   8.269  27.608 -0.2590  0.0310  0.1252
56590W        W99528  14.515   7.916  28.259  0.0719  0.1814  0.0519
56591W        W99529  13.355   9.703  30.700 -0.4477 -0.0291 -0.0769
56592W        W99530   9.990   8.515  27.047 -0.1473 -0.1139 -0.0491
56593W        W99531  12.242   9.871  25.624  0.0518  0.3306  0.1051
56594W        W99532  13.328   8.390  28.438  0.2074  0.2768 -0.1646
56595W        W99533  14.274   7.853  30.585  0.2142 -0.1021  0.0649
56596W        W99534  12.973   8.327  31.509 -0.0643  0.2031 -0.1778
56597W        W99535  12.245   9.547  28.661  0.0234 -0.0194 -0.1063
56598W        W99536  13.341   7.707  28.050  0.1817  0.3222 -0.2121
56599W        W99537  13.873  10.930  27.220 -0.1056 -0.1056  0.0889
56600W        W99538  10.864   7.402  29.612  0.1429 -0.4457  0.0064
56601W        W99539   9.903   7.188  30.089 -0.0513  0.0774  0.0641
56602W        W99540  13.770   9.736  28.119 -0.3427  0.4090 -0.3215
56603W        W99541  13.561  10.482  29.003  0.0854  0.0372 -0.1859
56604W        W99542  12.589   7.580  29.667 -0.2593 -0.2764  0.0088
56605W        W99543  14.473  11.609  30.953 -0.0868  0.3390 -0.1141
56606W        W99544  11.401   9.788  27.662  0.0562  0.0521  0.4273
56607W        W99545  13.623   7.575  31.486  0.1289  0.3185  0.0581
56608W        W99546  12.649   7.384  31.302  0.3931 -0.3134  0.1305
56609W        W99547  11.236   8.972  28.758 -0.2402  0.0431 -0.0045
56610W        W99548  13.542   8.647  29.392 -0.0886 -0.1082  0.1319
56611W        W99549  13.858  10.507  28.477  0.1170 -0.0757 -0.2306
56612W        W99550  14.655  10.413  28.951 -0.0558 -0.0252 -0.0600
56613W        W99551  12.598   8.253  31.121  0.0336  0.0619 -0.0929
56614W        W99552  12.706   8.781  30.468 -0.4238  0.2627  0.0576
56615W        W99553  11.472   7.745  30.469  0.2463  0.1395  0.2655
56616W        W99554  14.357   9.064  26.958  0.0290  0.3419 -0.0095
56617W        W99555  12.188   9.649  31.006  0.4519  0.0221 -0.2948
56618W        W99556  14.130   9.247  28.211 -0.0307 -0.1500  0.0371
56619W        W99557  14.376   8.228  29.173  0.3743  0.1510  0.2008
56620W        W99558  12.591   8.488  28.120  0.0954 -0.2312 -0.1515
56621W        W99559  12.363   7.135  31.582  0.1381 -0.1278  0.0577
56622W        W99560  12.325   9.717  31.611  0.3413  0.1546 -0.2654
56623W        W99561  14.336   9.686  29.422  0.1587 -0.1981  0.0405
56624W        W99562  11.710   8.594  28.673  0.2133  0.1112 -0.0839
56625W        W99563  13.212   8.242  29.316 -0.2592  0.0553 -0.0228
56626W        W99564  12.590  10.208  27.853 -0.0795 -0.3432  0.0559
56627W        W99565  13.223   8.195  30.360  0.0377 -0.4862 -0.1049
56628W        W99566  12.651   7.553  28.448  0.2030 -0.0400 -0.0357
56629W        W99567  12.808   8.805   0.036 -0.0185 -0.0236 -0.2614
56630W        W99568  14.861  11.071  29.203  0.1998 -0.2256 -0.1549
56631W        W99569  13.295   9.383  31.211  0.1768  0.0527  0.0352
56632W        W99570  13.231   8.195  27.858  0.0400 -0.1036 -0.1046
56633W        W99571  14.204   8.762  28.387 -0.0786 -0.1454  0.1851
56634W        W99572  13.894  11.060  29.292 -0.2313 -0.1541  0.2253
56635W        W99573  15.667  10.502  31.698 -0.1261  0.1673 -0.2593
56636W        W99574  13.256  10.501  30.421  0.1354  0.0506  0.2298
56637W        W99575  13.583   9.327  29.392 -0.1225  0.2817  0.1856
56638W        W99576  10.620   7.098  30.242 -0.0427 -0.1782  0.0186
56639W        W99577  12.519   9.015  28.270  0.3002 -0.0482  0.1429
56640W        W99578  13.773   8.512  28.637 -0.1057 -0.1131 -0.0220
56641W        W99579  14.887   7.616  29.538 -0.2001  0.0838 -0.2080
56642W        W99580  13.566   8.002  29.544  0.3609  0.5582 -0.2261
56643W        W99581  13.019   8.434  27.411  0.1812 -0.1824 -0.0606
56644W        W99582  11.473  11.044  29.942  0.3989  0.0789 -0.0418
56645W        W99583  13.635   9.113  29.904 -0.0846 -0.2869 -0.0536
56646W        W99584  14.314   8.686  30.330  0.3623 -0.4235  0.0521
56647W        W99585  13.544   8.986  30.404 -0.1945 -0.1090 -0.0597
56648W        W99586  10.845   8.367  31.406 -0.0376  0.0038 -0.3758
56649W        W99587  12.389  10.614   0.174  0.3188 -0.0178  0.1022
56650W        W99588  12.883  10.665   0.119  0.0288  0.1790  0.0478
56651W        W99589  11.604   9.530  31.830 -0.2335  0.1633  0.0180
56652W        W99590  14.821   8.205  31.798 -0.0683 -0.0401 -0.0455
56653W        W99591  14.438   8.091  31.515  0.1852  0.3895 -0.2330
56654W        W99592  14.848   7.281  30.969 -0.0656  0.2844  0.0687
56655W        W99593  13.809  10.538  31.146  0.3120  0.2088 -0.2423
56656W        W99594  16.295  10.531  31.955 -0.1352 -0.3063 -0.1911
56657W        W99595  13.700   8.419  30.958 -0.3569  0.0005 -0.0708
56658W        W99596  14.298   9.021  31.252  0.0630 -0.2237  0.1149
56659W        W99597  12.539   9.207  31.700 -0.0914  0.0645 -0.1489
56660W        W99598  14.841   9.153  30.915  0.0609  0.1712  0.0346
56661W        W99599  12.371   9.659  30.482  0.0820 -0.1380  0.1910
56662W        W99600  11.124   9.656  31.354  0.0683  0.1070 -0.0652
56663W        W99601  14.641   9.785  31.760 -0.0783 -0.1093 -0.1582
56664W        W99602  11.655   6.243  31.566 -0.1758 -0.3376  0.0596
56665W        W99603  12.850   7.350   0.298 -0.1122  0.0767 -0.2870
56666W        W99604  12.731   7.878  31.496  0.0353 -0.1836 -0.1151
56667W        W99605  12.775  10.421  31.262 -0.2899 -0.2916  0.4080
56668W        W99606  15.134   7.420  31.379 -0.2700 -0.0880  0.0681
56669W        W99607  15.351   8.299  31.027  0.0715  0.0992  0.1949
56670W        W99608  12.721   6.196   0.344  0.1905  0.0832  0.0251
56671W        W99609  13.827   7.181  31.197  0.3520 -0.2031 -0.1965
56672W        W99610  13.000   9.305   0.172 -0.0194  0.1246 -0.0751
56673W        W99611  11.425  10.587  30.507  0.1455  0.2745  0.0466
56674W        W99612  12.007   8.874  30.922  0.2048  0.0169  0.0792
56675W        W99613  14.126   8.652  30.946  0.1494  0.2022  0.0352
56676W        W99614  12.310  11.440   0.531 -0.0593  0.0478 -0.0324
56677W        W99615  13.859   7.827  31.819 -0.0604 -0.1480  0.1679
56678W        W99616  15.408   9.579  31.440  0.1695 -0.1105 -0.1330
56679W        W99617  14.489   7.771  31.084  0.1392  0.5046 -0.1756
56680W        W99618  11.710   7.912  30.883 -0.0017  0.1581  0.2249
56681W        W99619  12.376   9.465   0.603  0.0295 -0.0294 -0.4808
56682W        W99620  13.204   9.900  31.174  0.1147  0.1023 -0.2435
56683W        W99621  13.957  10.093  31.358  0.0948  0.2333  0.0333
56684W        W99622  13.579   8.315   0.133 -0.0491 -0.1596 -0.2530
56685W        W99623  13.470   9.597  31.590  0.1570  0.1733  0.1698
56686W        W99624  14.044   9.668  31.742 -0.3262  0.0688 -0.0593
56687W        W99625  14.459   8.692  31.827  0.1536 -0.1816 -0.0213
56688W        W99626  11.656   7.460   0.316 -0.0510 -0.0771  0.3495
56689W        W99627  13.818  11.891  30.703 -0.1428 -0.2909  0.0932
56690W        W99628  10.721   7.776   0.368  0.1049 -0.0518 -0.0475
56691W        W99629  12.890   9.662  31.445  0.4746 -0.0180 -0.3072
56692W        W99630  13.251   6.939  30.728 -0.2230  0.2613  0.2514
56693W        W99631  13.816   9.727   1.121 -0.1708  0.4733 -0.2644
56694W        W99632  14.515   8.607   0.469  0.2395  0.0935  0.0435
56695W        W99633  11.950  11.273  31.181 -0.0359 -0.0893  0.1293
56696W        W99634  13.654   9.315  30.849  0.0104 -0.0955 -0.0897
56697W        W99635  14.501   7.375  30.596  0.0506  0.1732  0.0249
56698W        W99636  11.724   6.960  31.817 -0.1278  0.0108 -0.1983
56699W        W99637  14.235  10.744  29.572 -0.3835 -0.1162 -0.2855
56700W        W99638  13.781   8.113  31.413 -0.0730 -0.1409 -0.1844
56701W        W99639  14.200   9.012   0.207 -0.1817 -0.1182  0.0885
56702W        W99640  14.418   9.519  31.432 -0.2432  0.0656  0.0049
56703W        W99641  14.441  10.589  31.960  0.0716  0.0292  0.2772
56704W        W99642  12.543  10.946  29.874 -0.0770 -0.1235  0.2228
56705W        W99643  12.108   7.377   0.072 -0.2814  0.1291 -0.4242
56706W        W99644   9.700   9.147  31.355 -0.0192 -0.1712 -0.2952
56707W        W99645  12.610   8.095   0.398  0.0427  0.1985 -0.2192
56708W        W99646  11.659   8.603  31.902  0.1265  0.0592 -0.0013
56709W        W99647  12.978   6.384   0.891  0.1087  0.0598  0.2112
56710W        W99648  14.383  11.999  30.619 -0.0266  0.1218  0.0035
56711W        W99649  14.890  10.157  31.033 -0.0264 -0.2631  0.0926
56712W        W99650  14.673   9.024   0.138  0.2242 -0.2470 -0.1110
56713W        W99651  11.368  13.636  17.920  0.1369  0.1013  0.0543
56714W        W99652  12.222  11.234  15.996 -0.0285  0.1975  0.1603
56715W        W99653  13.501  11.938  14.860 -0.2151  0.0350 -0.0114
56716W        W99654  13.249  12.295  15.077  0.0395  0.0858  0.0916
56717W        W99655  11.260  10.581  16.548  0.1562 -0.0037 -0.1300
56718W        W99656  12.814  12.535  15.904  0.0340  0.3393  0.1884
56719W        W99657  12.225  10.833  19.450 -0.1927 -0.0755  0.4967
56720W        W99658  11.918  13.303  17.203 -0.1232 -0.1688  0.1627
56721W        W99659  13.986  13.929  17.071  0.0757 -0.1722  0.2043
56722W        W99660  13.767  12.734  14.390 -0.1488  0.1047 -0.0273
56723W        W99661  11.494  12.098  17.902  0.0088  0.4806 -0.0196
56724W        W99662  10.937  13.402  17.562  0.1349 -0.1864 -0.1343
56725W        W99663  12.464  10.034  16.234 -0.1509  0.0037  0.2862
56726W        W99664  11.601  11.603  17.881  0.1180 -0.0596  0.2991
56727W        W99665  11.271  12.711  18.192 -0.0350 -0.0402 -0.0263
56728W        W99666  11.426  13.930  15.819  0.1402 -0.1178  0.2784
56729W        W99667  12.747  11.114  15.994 -0.1781 -0.1928 -0.2878
56730W        W99668  13.013  11.076  17.274  0.1657  0.0646  0.4016
56731W        W99669  12.163  13.772  15.776  0.0598 -0.0081  0.1154
56732W        W99670   9.964  10.542  19.219 -0.1458 -0.0222  0.0176
56733W        W99671  12.456  10.710  18.853  0.2295 -0.1395 -0.2546
56734W        W99672  12.219  13.573  15.263  0.1871  0.0071 -0.0510
56735W        W99673  10.940  10.224  16.113 -0.0727 -0.0032 -0.1380
56736W        W99674  10.578  11.089  16.516 -0.2065 -0.0626  0.3279
56737W        W99675  12.568  12.083  18.421 -0.0907  0.2561  0.1249
56738W        W99676  12.891  11.095  17.749  0.3186  0.0388  0.0429
56739W        W99677  14.086  12.824  16.931  0.0706 -0.2106  0.0329
56740W        W99678  11.793  13.630  16.370 -0.1014  0.2377 -0.1118
56741W        W99679  10.679  13.832  16.321  0.1265  0.0481 -0.2195
56742W        W99680  13.783  10.464  18.386  0.0974 -0.0889  0.3852
56743W        W99681  12.820  13.394  17.127  0.0500 -0.1294 -0.0021
56744W        W99682  10.400  12.885  16.635  0.0201  0.2842  0.0141
56745W        W99683  11.456  13.056  16.827  0.0556 -0.1606  0.1066
56746W        W99684  13.915  13.334  14.303 -0.1124  0.0270  0.0035
56747W        W99685  12.851  14.860  16.141  0.1755 -0.1071 -0.2295
56748W        W99686  10.458  15.865  18.527 -0.0953 -0.0841 -0.0833
56749W        W99687  10.905  12.545  15.937 -0.1151 -0.4124  0.0654
56750W        W99688  11.693  13.353  18.219 -0.1006 -0.0433 -0.1642
56751W        W99689  10.787  13.665  18.631  0.2262 -0.1889  0.0192
56752W        W99690  13.041  12.112  18.138  0.0115 -0.2360  0.3127
56753W        W99691  12.802  11.477  17.017  0.3013 -0.1327  0.2395
56754W        W99692  11.811  13.207  15.674  0.3042 -0.1885  0.0249
56755W        W99693  13.095  13.351  16.678 -0.0844  0.1025  0.0547
56756W        W99694   9.249  13.074  17.177  0.0618 -0.2849  0.1875
56757W        W99695   9.920  12.588  18.470 -0.1801 -0.0603 -0.1705
56758W        W99696  13.871  11.081  19.187  0.0140  0.0281 -0.0777
56759W        W99697  12.194  14.223  14.539  0.0696 -0.3192  0.0689
56760W        W99698  13.583  11.138  16.313  0.0218  0.0938  0.1011
56761W        W99699  11.207  11.848  15.435 -0.1597 -0.0741 -0.0368
56762W        W99700  13.889  10.503  17.226 -0.3450  0.1477  0.1330
56763W        W99701  11.065  10.941  17.170  0.2110 -0.0400  0.0133
56764W        W99702  12.450  14.126  16.629  0.2803  0.0155  0.3504
56765W        W99703  10.579  11.423  19.533 -0.4109 -0.3565 -0.1298
56766W        W99704  13.021  13.820  17.022 -0.3620  0.1627 -0.0182
56767W        W99705  11.381  12.240  15.751 -0.1416  0.3642 -0.2544
56768W        W99706  12.510  11.860  18.906 -0.0961 -0.0472 -0.0760
56769W        W99707  11.093  15.008  17.590 -0.3210 -0.0391  0.2139
56770W        W99708  11.078  10.736  17.659  0.1430  0.0786 -0.0630
56771W        W99709  14.372  13.166  15.384 -0.0155 -0.2781 -0.1492
56772W        W99710  14.323  13.973  16.695 -0.0879  0.0021  0.0611
56773W        W99711  14.027  15.401  13.631  0.0984  0.0531 -0.2055
56774W        W99712  10.878  13.011  15.702 -0.1986 -0.1661 -0.2414
56775W        W99713  10.607  12.416  17.725  0.1316  0.1543  0.1487
56776W        W99714  11.227  11.855  18.847  0.1766 -0.2539 -0.0257
56777W        W99715  12.415  10.904  16.323 -0.3094  0.1664  0.0214
56778W        W99716  13.587  13.130  18.066  0.2744  0.2322 -0.0127
56779W        W99717  10.901  12.125  19.976 -0.0431 -0.3947 -0.0626
56780W        W99718  13.851  11.729  15.869 -0.2901  0.1540  0.0922
56781W        W99719  12.659  11.981  16.935 -0.0550  0.3079 -0.1406
56782W        W99720  11.896  14.142  16.602  0.2439 -0.0555 -0.1307
56783W        W99721  14.520  13.801  14.239 -0.1042  0.4531 -0.4718
56784W        W99722  12.122   9.365  18.240 -0.2516  0.1542  0.0481
56785W        W99723  11.528   9.825  19.229  0.1251 -0.2865  0.0143
56786W        W99724  11.353  12.884  15.893 -0.1770 -0.2863  0.1070
56787W        W99725  11.632  12.694  15.559 -0.1659  0.0335 -0.3286
56788W        W99726  12.025  12.597  17.273  0.0776 -0.0451 -0.1857
56789W        W99727  13.350  12.537  15.992 -0.0055  0.1258 -0.1431
56790W        W99728   9.315  12.637  19.298 -0.1399  0.2186  0.1035
56791W        W99729  10.716  10.495  19.031 -0.3721  0.0104  0.0373
56792W        W99730  11.966  13.469  19.706 -0.2825  0.2461  0.2790
56793W        W99731  12.982  14.501  14.601 -0.0768  0.1004  0.2328
56794W        W99732   9.493  13.233  17.914  0.0553 -0.1094  0.2759
56795W        W99733  10.657  14.197  15.266  0.1109 -0.1278  0.1588
56796W        W99734  11.080  11.239  19.507  0.1016  0.3235  0.0511
56797W        W99735  10.566  13.194  18.584  0.0536  0.2547 -0.0016
56798W        W99736  12.919  11.918  16.533  0.0898  0.1928  0.1665
56799W        W99737  10.678  10.199  17.045 -0.0692  0.1979  0.0030
56800W        W99738  14.819  10.574  16.985 -0.0301 -0.0591  0.0173
56801W        W99739  11.632  13.190  16.268 -0.0881  0.0762  0.0245
56802W        W99740  13.041  13.740  15.792 -0.0780  0.2050 -0.3756
56803W        W99741  16.008  12.229  14.873 -0.1154 -0.0687  0.0661
56804W        W99742  13.651  13.791  15.250 -0.0028  0.0662  0.4065
56805W        W99743  11.147  11.314  18.266  0.1110  0.1692  0.0994
56806W        W99744  10.074  11.818  16.844 -0.2515 -0.5913  0.0828
56807W        W99745  11.408  10.621  19.976  0.0869  0.2111 -0.0053
56808W        W99746  12.251  10.455  16.053  0.1852  0.4107  0.0216
56809W        W99747  13.693  11.628  17.435 -0.0252 -0.0461  0.1874
56810W        W99748  11.758  11.047  15.877  0.0781 -0.1991  0.0921
56811W        W99749  13.097  10.544  16.865 -0.0708  0.0006  0.2911
56812W        W99750  11.438  11.794  16.990  0.0313  0.0679 -0.0050
56813W        W99751  10.130  13.248  15.986 -0.0930  0.2040 -0.0661
56814W        W99752  13.381  10.854  17.726 -0.1868 -0.1431  0.2973
56815W        W99753  13.964  12.482  15.570  0.1896 -0.0742  0.0098
56816W        W99754  14.018  14.993  17.792 -0.3425 -0.0503  0.0862
56817W        W99755  12.847  13.812  16.507  0.1018  0.1559 -0.2007
56818W        W99756  11.242  10.749  19.506  0.1987 -0.0929 -0.2435
56819W        W99757  11.612  11.001  16.566  0.2869 -0.0288 -0.0774
56820W        W99758  10.537  14.865  18.069  0.1704 -0.2848 -0.0165
56821W        W99759  12.382  12.650  16.719  0.2145 -0.0054 -0.1849
56822W        W99760  11.781  11.912  15.769  0.0394 -0.1319  0.3497
56823W        W99761  13.907  13.481  17.928  0.0586 -0.2168  0.3563
56824W        W99762  12.509  12.211  16.324 -0.0745 -0.1436 -0.2062
56825W        W99763  11.640  11.560  18.884  0.1829  0.1600  0.0271
56826W        W99764  12.426   9.742  19.188  0.3008 -0.1483  0.0977
56827W        W99765  12.865  12.490  17.599 -0.0585  0.0526 -0.0674
56828W        W99766  12.950  11.891  15.713 -0.0742 -0.1225 -0.0882
56829W        W99767  11.082  12.015  16.066  0.1294 -0.0050 -0.0798
56830W        W99768  12.332  13.414  16.473  0.0937 -0.0116  0.2953
56831W        W99769  11.080  14.012  16.680  0.0044 -0.0061  0.0081
56832W        W99770  10.389  12.793  16.089  0.0129 -0.0012 -0.2637
56833W        W99771  10.734  14.223  16.954 -0.1248  0.0158  0.0346
56834W        W99772  14.621  12.230  17.317 -0.0269  0.1255 -0.2307
56835W        W99773   9.636  12.238  19.355  0.1644  0.1409 -0.3252
56836W        W99774  12.207  12.440  18.157 -0.0638  0.0583  0.2824
56837W        W99775  11.310  12.740  16.448 -0.0770 -0.0466  0.2427
56838W        W99776  10.447  13.100  17.581 -0.1518  0.1742  0.1833
56839W        W99777  14.675  10.154  17.618  0.0149 -0.1414 -0.1496
56840W        W99778  14.477  11.245  16.542  0.1394  0.1338  0.0983
56841W        W99779  11.920  10.979  17.852 -0.0627  0.2519  0.3145
56842W        W99780  13.583  13.224  16.631  0.0502 -0.1276  0.0031
56843W        W99781  13.999  13.054  14.749  0.0824  0.0217  0.3201
56844W        W99782  13.389  11.696  15.694  0.0596  0.3622  0.2536
56845W        W99783   8.659  13.491  19.946  0.0781 -0.2536  0.1126
56846W        W99784  12.563  11.713  16.122 -0.0128  0.2322  0.1998
56847W        W99785  13.510  13.509  18.437  0.2361 -0.2286  0.0361
56848W        W99786  12.111  12.150  15.442 -0.1740  0.2713 -0.0861
56849W        W99787  13.716  13.473  14.804  0.4468 -0.2140  0.2859
56850W        W99788  10.468  12.733  20.107 -0.0463  0.1900 -0.0733
56851W        W99789  11.095  12.069  18.381 -0.2379 -0.0519  0.2015
56852W        W99790  11.408  15.381  16.293  0.2179  0.1085  0.0770
56853W        W99791  12.003  10.506  17.717  0.1644 -0.1990  0.0883
56854W        W99792  12.393  12.533  15.553  0.3441  0.2364  0.0290
56855W        W99793  12.943   9.473  18.410  0.0641 -0.0375 -0.1075
56856W        W99794   9.682  15.720  16.867  0.0173  0.0169  0.1623
56857W        W99795  12.350  10.225  18.809  0.1453  0.0343  0.2398
56858W        W99796  13.934  10.875  17.598 -0.4327  0.0294 -0.0635
56859W        W99797  13.246  10.368  18.207 -0.0551  0.1082 -0.1385
56860W        W99798  14.285  11.433  20.403 -0.2634 -0.1183 -0.0130
56861W        W99799  14.684  11.429  15.455 -0.1781  0.2276  0.0424
56862W        W99800  14.238  12.781  16.447  0.0688 -0.3455  0.2424
56863W        W99801  11.471  11.785  16.145  0.2808 -0.0381  0.0009
56864W        W99802  12.816  11.595  17.928 -0.1637  0.0808 -0.1145
56865W        W99803  10.181  12.249  18.041 -0.2604  0.0250 -0.2130
56866W        W99804   9.319  13.601  18.336  0.2878  0.0285  0.3781
56867W        W99805  11.970  13.865  19.345  0.0397 -0.2286  0.1214
56868W        W99806  12.656  13.357  15.564 -0.3196 -0.1236  0.1892
56869W        W99807  10.372  10.833  18.797 -0.0131  0.1612  0.1270
56870W        W99808  12.829   9.949  17.529 -0.1308 -0.2910  0.0740
56871W        W99809  11.100  14.419  14.644 -0.2241  0.2806 -0.2394
56872W        W99810  11.953  12.405  16.387  0.1451 -0.1903  0.0649
56873W        W99811  12.216  10.668  16.752  0.0905 -0.2759 -0.1483
56874W        W99812  10.840  12.883  17.317 -0.2607 -0.1075  0.1639
56875W        W99813  11.036  14.026  14.989 -0.2170  0.2324  0.1941
56876W        W99814  11.220  11.881  17.446 -0.2905 -0.3442 -0.0333
56877W        W99815  10.287  14.498  17.579 -0.1077 -0.2450 -0.0046
56878W        W99816  12.981  10.061  19.514  0.1152 -0.0635  0.0245
56879W        W99817  11.992  13.658  16.809 -0.3057 -0.0303 -0.0325
56880W        W99818  11.723  11.908  16.598 -0.0321  0.1515  0.0778
56881W        W99819  11.063  11.051  16.508 -0.0125  0.1117  0.0235
56882W        W99820  13.745   9.592  17.303 -0.2452 -0.1686  0.2712
56883W        W99821  13.474  12.934  15.625 -0.1874 -0.3503 -0.0305
56884W        W99822  10.389  12.281  17.293  0.1145  0.2302 -0.0487
56885W        W99823  12.339  10.934  18.359 -0.0068  0.0482 -0.0156
56886W        W99824  12.655  12.521  17.079  0.0500  0.0004 -0.0992
56887W        W99825  11.423  12.959  17.328  0.3392 -0.0168 -0.1851
56888W        W99826  13.597  10.217  16.378  0.2452  0.3726  0.2569
56889W        W99827  14.065  13.017  18.924 -0.2388 -0.0193 -0.0282
56890W        W99828  10.608  13.467  19.606 -0.2410 -0.1053  0.0301
56891W        W99829  10.302  11.685  15.862  0.2342 -0.0156 -0.2269
56892W        W99830  12.859  11.660  18.519  0.1416 -0.4157  0.0538
56893W        W99831  12.263  12.195  16.715  0.1909  0.3198  0.1509
56894W        W99832  12.707  13.044  16.785 -0.1673  0.0944 -0.0674
56895W        W99833  12.865  14.374  16.408  0.1356 -0.1630 -0.0098
56896W        W99834  12.089  11.859  16.165  0.0409 -0.2053 -0.0266
56897W        W99835   9.444  12.942  16.430  0.1488 -0.2436  0.0493
56898W        W99836  11.721  11.882  17.387 -0.0476  0.4855  0.0377
56899W        W99837  11.326  12.873  19.211  0.0066  0.0907  0.0147
56900W        W99838  13.732  11.322  17.820 -0.0616 -0.0864  0.0205
56901W        W99839  11.891  12.383  15.821  0.0628  0.1105 -0.0560
56902W        W99840  13.227  11.463  17.613 -0.1296 -0.1523  0.1436
56903W        W99841  11.628  12.382  17.477  0.1538 -0.1536  0.1180
56904W        W99842  10.749  11.989  17.508  0.1416  0.2103  0.1157
56905W        W99843  11.053  12.656  19.997  0.2423 -0.1227  0.1244
56906W        W99844  12.614   9.311  18.990 -0.3855  0.2011 -0.1509
56907W        W99845  15.725  14.177  15.920 -0.1402 -0.3047  0.1954
56908W        W99846  13.191  11.735  19.035  0.0260  0.0646  0.1145
56909W        W99847  10.888  14.949  15.551 -0.1260 -0.1180  0.0978
56910W        W99848  10.606  11.726  18.609 -0.0887 -0.1240 -0.1150
56911W        W99849  11.110  13.282  16.259  0.0492  0.0573  0.0429
56912W        W99850  12.103  11.779  17.720  0.1368  0.0200  0.0102
56913W        W99851   9.997  11.899  17.342  0.0428  0.0915  0.0902
56914W        W99852  11.581  14.296  14.576  0.1766 -0.0768 -0.1011
56915W        W99853  10.473  12.350  19.796 -0.2893  0.1757 -0.0196
56916W        W99854  13.093  10.145  16.500 -0.0206 -0.1654 -0.1379
56917W        W99855  12.298  14.133  15.211  0.1559  0.1398 -0.1152
56918W        W99856  13.979  11.521  16.292  0.0695  0.1947 -0.0316
56919W        W99857  14.883   9.930  17.254  0.1743 -0.0502 -0.0795
56920W        W99858  13.134  13.774  15.339  0.0341 -0.3562  0.0810
56921W        W99859  14.605   9.410  20.003  0.4662 -0.0920  0.2724
56922W        W99860  10.311   9.763  18.842  0.1255 -0.2774 -0.3651
56923W        W99861  11.422  12.263  16.349 -0.0480 -0.1944 -0.3978
56924W        W99862  12.788  10.360  18.603  0.0392  0.1292  0.2391
56925W        W99863  11.458  14.615  19.158  0.0905  0.0151  0.0652
56926W        W99864  11.710  12.582  17.908 -0.0945  0.0755  0.0417
56927W        W99865  13.258  11.270  18.128  0.1131  0.0684 -0.0962
56928W        W99866  11.251   9.809  15.857  0.2712 -0.1327  0.1523
56929W        W99867  11.681  12.028  18.668 -0.2809 -0.0003  0.0326
56930W        W99868  14.307  12.261  16.400  0.1280  0.0198  0.2457
56931W        W99869  14.601  12.850  15.687  0.1797  0.1410  0.1826
56932W        W99870  12.605  10.433  16.932 -0.3562 -0.2061  0.0368
56933W        W99871  10.329  12.804  18.096  0.2600  0.4435  0.2654
56934W        W99872  13.339  12.333  16.489 -0.2431 -0.0063 -0.1151
56935W        W99873  11.693  11.697  15.270 -0.0156  0.1269 -0.0216
56936W        W99874  10.351  12.798  17.145 -0.2656 -0.0667  0.1756
56937W        W99875  12.889  11.310  18.903 -0.0403 -0.0396  0.1806
56938W        W99876  13.505  10.235  16.927 -0.1005  0.0813 -0.0982
56939W        W99877  12.930  10.621  17.602 -0.2427  0.1981 -0.0231
56940W        W99878  14.865  11.191  19.651  0.1352  0.0842 -0.1129
56941W        W99879  13.500  11.658  18.263 -0.0819 -0.1934  0.2916
56942W        W99880  12.605  12.438  18.758 -0.2174  0.1853 -0.0696
56943W        W99881  10.442  10.608  19.560  0.3110  0.0744 -0.0689
56944W        W99882  13.937  14.374  17.433  0.3330  0.0468  0.1114
56945W        W99883  13.356  11.628  16.570  0.0772 -0.3815  0.3067
56946W        W99884  13.609   9.976  18.233  0.2609  0.1292  0.0171
56947W        W99885  13.753  12.392  16.897  0.1358  0.1627  0.2871
56948W        W99886  13.037  11.380  15.534  0.0223 -0.3847  0.3986
56949W        W99887  11.481  11.244  17.020  0.1019 -0.1148  0.0002
56950W        W99888  12.381  11.706  18.188  0.3424  0.5110 -0.1513
56951W        W99889   9.979  10.195  15.724  0.0695  0.1809 -0.1130
56952W        W99890  13.765  11.293  19.582 -0.3934 -0.1236 -0.2270
56953W        W99891  12.347  13.776  14.814 -0.1446  0.1908 -0.1293
56954W        W99892  13.483  12.194  18.258  0.0041 -0.3010 -0.0721
56955W        W99893  13.463  10.670  16.152 -0.2450 -0.0025  0.2047
56956W        W99894  10.736  12.199  18.812  0.3019 -0.1976 -0.3397
56957W        W99895  10.117  13.995  19.982  0.1097  0.1128  0.1044
56958W        W99896  11.346  10.776  16.095 -0.0788 -0.1019  0.2449
56959W        W99897  11.828  12.846  15.981  0.1824  0.0510  0.0540
56960W        W99898  11.871  12.776  18.404  0.1764 -0.0763 -0.1032
56961W        W99899  12.489  11.191  19.163  0.4451  0.2106  0.1763
56962W        W99900  13.344  11.016  15.248 -0.3392 -0.0862  0.0100
56963W        W99901  14.175  12.108  18.316 -0.0847 -0.1802 -0.0048
56964W        W99902  10.588  13.914  15.686  0.1253  0.3302  0.1722
56965W        W99903  11.918  10.261  18.538 -0.0256 -0.1456  0.2642
56966W        W99904   9.803  13.597  17.675 -0.2000  0.2629 -0.2527
56967W        W99905   9.561  12.993  18.392 -0.0517  0.0107  0.2231
56968W        W99906  12.904  13.588  14.431  0.0660 -0.2389 -0.0488
56969W        W99907  12.725  11.233  18.275  0.0795 -0.2004 -0.0712
56970W        W99908  13.071  12.187  18.716 -0.0157 -0.1978  0.0717
56971W        W99909  13.150  12.364  15.572  0.1244  0.0215 -0.1678
56972W        W99910  15.039  11.534  18.357 -0.0875  0.1242  0.2851
56973W        W99911  11.422  13.090  17.888 -0.1224  0.0900  0.0187
56974W        W99912  13.032  12.152  16.133  0.1401 -0.0649 -0.1284
56975W        W99913  11.794  13.427  17.741 -0.1424  0.1287 -0.1408
56976W        W99914  14.694  12.747  16.295  0.0727 -0.0254  0.0022
56977W        W99915  10.260  12.161  18.644  0.1020 -0.1239  0.1909
56978W        W99916  11.076  10.375  18.650 -0.3096  0.2249  0.1989
56979W        W99917  11.474  13.493  17.361  0.0984 -0.0666 -0.0862
56980W        W99918  11.758  14.249  15.964 -0.0977 -0.0961 -0.0573
56981W        W99919  12.183  10.888  17.449  0.1139 -0.0233 -0.0530
56982W        W99920  11.825  13.266  15.216  0.2585  0.1427 -0.1945
56983W        W99921  10.465  12.318  19.280 -0.0351 -0.1816 -0.4560
56984W        W99922  11.943  11.051  17.050  0.1495  0.2144 -0.0752
56985W        W99923  10.478  14.285  16.507 -0.0879  0.1427  0.4186
56986W        W99924  13.806  14.885  14.416  0.3244 -0.0561 -0.2989
56987W        W99925  12.955  12.891  16.332  0.0982  0.2945  0.1800
56988W        W99926  14.572  15.682  15.705  0.1969  0.1491  0.0113
56989W        W99927  12.487  12.126  15.777 -0.3120 -0.0508  0.2997
56990W        W99928  10.939  12.894  16.779  0.0757 -0.0591  0.0932
56991W        W99929  11.448  14.132  15.239  0.1729 -0.0850 -0.1425
56992W        W99930  13.473  13.481  15.717 -0.0146  0.1540  0.2838
56993W        W99931  12.405  14.520  16.218  0.2108 -0.5557 -0.3750
56994W        W99932  12.495  13.027  17.344 -0.2220 -0.0893  0.3484
56995W        W99933  14.059  11.993  15.482 -0.3030 -0.1309  0.1428
56996W        W99934  13.672  13.873  16.076 -0.1815 -0.2331 -0.1401
56997W        W99935  14.353  11.687  15.163 -0.0191  0.2494  0.2205
56998W        W99936  11.882  14.814  18.376  0.0158  0.1877  0.0653
56999W        W99937  11.321  11.409  17.433 -0.0315  0.0421 -0.0060
57000W        W99938  12.468  11.301  15.565  0.0503 -0.0254  0.3273
57001W        W99939  10.976  12.084  17.017 -0.0263 -0.1641  0.2459
57002W        W99940  14.289  10.572  18.101  0.0447  0.0380 -0.0704
57003W        W99941  11.637  15.040  19.989  0.2345  0.2887 -0.0063
57004W        W99942  13.252  14.141  15.013 -0.0135  0.0087  0.0154
57005W        W99943  12.088  12.998  16.384  0.1038 -0.0066  0.0969
57006W        W99944  11.050  11.315  18.842 -0.0919  0.0276 -0.1196
57007W        W99945  15.173  10.714  17.765 -0.0331  0.0375  0.1348
57008W        W99946  12.298  12.281  14.963 -0.1554 -0.0459  0.2393
57009W        W99947  11.966  10.724  18.673 -0.1488  0.1823 -0.0508
57010W        W99948  10.885  14.572  16.256 -0.0199  0.1042 -0.0551
57011W        W99949  10.207  12.412  16.806 -0.0195 -0.0249  0.0976
57012W        W99950  11.646  13.896  16.983  0.1256  0.0869 -0.0813
57013W        W99951  10.823  10.677  16.043 -0.1334 -0.0613 -0.1085
57014W        W99952  12.072  12.295  17.718 -0.4046 -0.0364 -0.0153
57015W        W99953  10.686  12.445  18.264  0.0196 -0.2430  0.0416
57016W        W99954  12.358  11.231  17.892  0.2356 -0.0297  0.0906
57017W        W99955  11.531  13.618  15.364  0.1464  0.1335 -0.1600
57018W        W99956  13.245  12.042  16.929  0.0235 -0.0555 -0.0047
57019W        W99957  11.935  12.956  17.716  0.0067  0.1714  0.0640
57020W        W99958  11.622  10.974  18.252 -0.1510 -0.3411  0.1652
57021W        W99959  13.570  12.122  15.454 -0.1084 -0.0394  0.3457
57022W        W99960  12.556  11.747  17.462  0.3407 -0.1448  0.0655
57023W        W99961  11.513  11.505  15.741 -0.3303 -0.0077  0.0230
57024W        W99962  13.025  13.880  18.028 -0.0088  0.0292  0.0676
57025W        W99963  11.598  10.983  17.410 -0.1693  0.1528 -0.1374
57026W        W99964  12.788  12.859  15.545  0.1662  0.1268  0.1236
57027W        W99965  12.329  12.601  16.082 -0.4357 -0.1590 -0.1803
57028W        W99966  10.934  12.908  18.511 -0.2664 -0.3173 -0.0820
57029W        W99967  13.273  12.725  16.771  0.0788  0.1995  0.2475
57030W        W99968  11.041   9.951  16.857 -0.1634  0.0235  0.1424
57031W        W99969  13.794  12.468  15.024  0.0431  0.3168  0.0910
57032W        W99970  12.570  12.059  17.900  0.2115  0.2597  0.1100
57033W        W99971  13.218  14.096  14.503  0.4489  0.3311  0.2671
57034W        W99972  11.371  13.562  16.799 -0.1727  0.2942  0.0449
57035W        W99973  13.208  13.208  17.598 -0.2192  0.2731 -0.1142
57036W        W99974  11.835  11.385  17.497  0.2416  0.0884 -0.1181
57037W        W99975  11.939  13.756  17.404  0.4349  0.1774 -0.0881
57038W        W99976  13.038  13.149  15.855  0.0266  0.4180 -0.2346
57039W        W99977  13.596  10.746  16.667  0.0759 -0.1922  0.1948
57040W        W99978  13.009  12.029  17.467  0.1160  0.0336  0.0803
57041W        W99979  12.556  13.800  17.363 -0.4187  0.3282 -0.0490
57042W        W99980  14.677  11.336  19.201  0.0417  0.1547 -0.1663
57043W        W99981  12.533  10.961  19.864 -0.2105  0.0644  0.0013
57044W        W99982  12.421  12.861  14.695 -0.4930  0.1172 -0.0821
57045W        W99983  12.780   9.868  18.864  0.0470  0.0929 -0.0619
57046W        W99984  11.073  13.258  17.092  0.2052  0.1026 -0.0120
57047W        W99985  10.563  13.712  20.030 -0.0921 -0.0238  0.1713
57048W        W99986  12.306  11.650  16.569  0.1264 -0.1945 -0.0341
57049W        W99987  10.873  12.697  18.968 -0.0386  0.3246 -0.0176
57050W        W99988  11.427  13.443  15.859  0.0898 -0.1000  0.2269
57051W        W99989  12.830  13.947  14.951 -0.0452 -0.0917  0.1981
57052W        W99990  14.470  14.225  15.755 -0.0515 -0.0036 -0.0756
57053W        W99991  13.806  12.155  16.490  0.2880 -0.2455 -0.0487
57054W        W99992  12.728  13.457  16.119  0.3343  0.1658 -0.2778
57055W        W99993  12.742  11.316  16.477  0.0410  0.0421 -0.0565
57056W        W99994  13.315  11.588  17.110 -0.0573  0.0944 -0.1237
57057W        W99995  13.042  10.836  16.366 -0.1285 -0.1721 -0.0630
57058W        W99996  11.259  12.385  18.803  0.3276 -0.1609  0.1990
57059W        W99997  10.616  13.252  16.047  0.1185  0.0842 -0.0047
57060W        W99998  12.860  12.449  16.649  0.1390 -0.2190  0.0135
57061W        W99999  11.271  12.488  16.951  0.2990 -0.3671 -0.2887
57062W        W    0  11.763  10.118  20.623 -0.0684 -0.1318 -0.1123
57063W        W    1  12.457  11.389  18.651 -0.0583  0.2171  0.0538
57064W        W    2  10.598  12.014  18.069  0.0973  0.1009 -0.1068
57065W        W    3  11.212  10.404  15.713 -0.0985  0.0549  0.0964
57066W        W    4  13.741  12.748  16.556 -0.0722  0.1590 -0.1163
57067W        W    5  11.979  10.619  18.172 -0.1708 -0.0361  0.0790
57068W        W    6   9.851  10.690  16.504 -0.2559 -0.1200 -0.1686
57069W        W    7  13.111  13.122  14.054 -0.2291 -0.2611 -0.1853
57070W        W    8  13.210  14.066  16.179  0.3203  0.0975 -0.3066
57071W        W    9  12.278  10.948  15.245  0.1236 -0.1840  0.0844
57072W        W   10  13.360  13.465  17.094 -0.0635 -0.0722 -0.1806
57073W        W   11  10.149  12.669  15.141  0.2999 -0.0393 -0.2147
57074W        W   12  11.164  11.691  19.352 -0.3653 -0.0169 -0.3292
57075W        W   13  12.385  10.441  18.372  0.0377 -0.0415 -0.0915
57076W        W   14  11.335  10.803  15.481 -0.0926 -0.1340 -0.1743
57077W        W   15  12.551  11.262  17.415  0.1136  0.0824  0.4640
57078W        W   16  13.230  12.756  15.244 -0.0449  0.2663  0.1508
57079W        W   17  13.335  14.782  15.578 -0.1206 -0.1934  0.1573
57080W        W   18  11.172  13.320  18.291 -0.0624  0.1885  0.0991
57081W        W   19  11.362  15.206  18.458 -0.0149  0.3477  0.3812
57082W        W   20  10.879   9.906  18.478 -0.3097  0.0268 -0.0349
57083W        W   21  14.255  13.522  14.991 -0.2270  0.0150 -0.4095
57084W        W   22  11.104  13.790  20.071 -0.2403  0.3034 -0.2192
57085W        W   23  14.296  12.601  15.966  0.2790  0.0631  0.0813
57086W        W   24  14.181  11.346  17.570  0.0926 -0.2106  0.0605
57087W        W   25  12.491  13.077  15.155  0.2270 -0.0847 -0.0969
57088W        W   26  12.348  11.443  19.625  0.3652  0.1580 -0.0637
57089W        W   27  11.168  10.856  19.044 -0.1032  0.0866 -0.0117
57090W        W   28  14.082  13.113  17.438  0.1981  0.0193 -0.1506
57091W        W   29  11.008  11.465  16.967  0.0348  0.2141 -0.2664
57092W        W   30  13.920  10.041  17.065  0.4477 -0.2687 -0.3117
57093W        W   31  13.453  13.161  14.425 -0.2096 -0.1062  0.0821
57094W        W   32  12.233  10.134  18.014 -0.1848 -0.2485 -0.0508
57095W        W   33  13.549  11.131  17.347 -0.0671 -0.1194 -0.1319
57096W        W   34  11.726  12.435  18.945  0.0685 -0.0576 -0.3044
57097W        W   35  12.264  12.995  15.554 -0.1213 -0.2064  0.2194
57098W        W   36  12.132  12.270  18.620 -0.0814  0.0853  0.6357
57099W        W   37  13.170  11.187  16.716  0.0309 -0.2217 -0.2682
57100W        W   38  14.551  12.877  14.474  0.2635  0.2855  0.1772
57101W        W   39  11.825  14.572  16.316 -0.2386 -0.1564 -0.1488
57102W        W   40  12.106  13.622  18.031  0.3186 -0.1149  0.1075
57103W        W   41  11.755  13.974  17.848 -0.0992 -0.0809 -0.3129
57104W        W   42  13.451  10.648  17.212  0.0783  0.1366 -0.1823
57105W        W   43  10.049  11.670  18.715  0.0638  0.3422  0.3481
57106W        W   44  13.369  13.316  15.205 -0.0268 -0.1601  0.0430
57107W        W   45  12.175  11.882  17.124 -0.2523 -0.3458 -0.2441
57108W        W   46  14.338  11.056  17.994 -0.0622 -0.2985 -0.0708
57109W        W   47  13.064  11.566  16.147  0.0928  0.2448 -0.2134
57110W        W   48  13.377  11.122  15.783 -0.1958  0.0677  0.0387
57111W        W   49   9.962  15.225  16.953  0.1707 -0.1848 -0.1186
57112W        W   50  13.461  12.419  17.754  0.5328 -0.0423  0.2402
57113W        W   51  11.506  13.349  21.708  0.0128  0.1233  0.1254
57114W        W   52  11.061  12.028  21.444  0.3208 -0.1191  0.3935
57115W        W   53  14.248  11.394  18.928 -0.2811 -0.3386 -0.3290
57116W        W   54  11.276  13.081  20.170 -0.0238 -0.2240  0.1515
57117W        W   55  10.593  11.751  21.841 -0.1987 -0.2291  0.2523
57118W        W   56  10.839  13.849  21.189  0.2479 -0.2421 -0.0141
57119W        W   57  11.755  11.599  22.314 -0.0231 -0.2981 -0.0426
57120W        W   58  11.083  13.334  20.513 -0.1045  0.1391  0.2539
57121W        W   59  12.870  12.714  20.347  0.3195 -0.1756  0.1118
57122W        W   60  11.350  12.477  19.470  0.1744 -0.2424  0.0953
57123W        W   61  10.339  12.610  22.449  0.0555  0.1361  0.2849
57124W        W   62  12.836  13.390  23.314 -0.0120 -0.1510 -0.0766
57125W        W   63  11.329   9.722  19.960  0.1981 -0.2096 -0.0973
57126W        W   64   9.428  10.558  21.868 -0.2473 -0.0568  0.2089
57127W        W   65  13.463  12.304  21.006 -0.0269  0.1236 -0.1926
57128W        W   66  11.325  12.003  19.686  0.0242  0.4005  0.0492
57129W        W   67  10.460  12.004  20.765  0.0565  0.0287 -0.3347
57130W        W   68  11.583  11.365  21.929  0.2725 -0.1294 -0.0459
57131W        W   69  13.208  16.247  18.977 -0.1665 -0.0967 -0.0155
57132W        W   70  12.377  10.154  22.956  0.0136  0.0825  0.1870
57133W        W   71  14.269  10.365  23.716  0.1412  0.0926 -0.1839
57134W        W   72  11.592  14.249  19.488 -0.0100 -0.0136  0.0980
57135W        W   73  12.890  10.813  18.597  0.2613 -0.0740  0.1396
57136W        W   74  11.407  11.553  21.392 -0.0103 -0.1462 -0.1959
57137W        W   75  11.956  12.014  20.909 -0.2703 -0.1720 -0.1252
57138W        W   76  12.504  11.615  20.165  0.0457 -0.0153 -0.0998
57139W        W   77  11.789  12.726  19.313 -0.0046  0.0406  0.1417
57140W        W   78  11.255  15.153  20.798  0.0641 -0.1078 -0.1375
57141W        W   79  11.270  15.300  20.270  0.0228 -0.2426  0.2881
57142W        W   80  14.954  12.854  22.494 -0.1976 -0.0284  0.0755
57143W        W   81  10.392  14.802  20.918 -0.1331  0.2498  0.1722
57144W        W   82  10.735  13.306  21.609 -0.1860  0.0245  0.0673
57145W        W   83  11.461  13.490  19.867 -0.0374  0.0586 -0.2942
57146W        W   84  13.142  13.305  18.731  0.2064 -0.3138 -0.1859
57147W        W   85  13.792  13.936  22.158  0.0853  0.2007 -0.4105
57148W        W   86  12.713  14.042  21.900  0.1225 -0.1672  0.2304
57149W        W   87  11.030  12.253  17.946  0.0787 -0.4155 -0.0628
57150W        W   88  12.756  13.501  22.737 -0.2156 -0.1003  0.3104
57151W        W   89  11.403  14.088  22.983  0.0941  0.0293 -0.0933
57152W        W   90  12.078  12.217  21.682 -0.0584 -0.0316  0.1768
57153W        W   91  11.977  11.063  22.144 -0.0850 -0.1010 -0.2436
57154W        W   92  10.979  13.918  19.568  0.1158 -0.1982 -0.0708
57155W        W   93  11.367  14.042  21.801  0.0673  0.0892  0.4335
57156W        W   94  10.964  13.339  22.878  0.1287 -0.3956 -0.2433
57157W        W   95   9.554  13.619  21.434 -0.2036 -0.4515  0.0369
57158W        W   96  14.231  12.090  22.244  0.0703  0.1781 -0.2040
57159W        W   97  11.593  13.229  19.373  0.0521  0.0962  0.0192
57160W        W   98  13.786  11.703  19.911  0.1438  0.0915 -0.3903
57161W        W   99  11.542  10.194  20.119  0.3315 -0.0198  0.0619
57162W        W  100  12.201  12.020  20.449 -0.2985  0.0599  0.0362
57163W        W  101  12.190  11.171  21.116 -0.0338 -0.1382  0.1835
57164W        W  102  10.498  14.309  20.739  0.2726 -0.1649  0.3513
57165W        W  103  11.590  13.043  23.067 -0.0553 -0.0834 -0.1620
57166W        W  104  13.132  13.113  22.620 -0.4625 -0.1499  0.3350
57167W        W  105  12.018  12.582  19.776  0.0295 -0.0838 -0.2725
57168W        W  106  11.652  12.003  22.036 -0.1554  0.0861  0.0260
57169W        W  107  12.098  14.897  21.379  0.1881 -0.1176  0.1776
57170W        W  108  11.174  12.254  20.838  0.1108 -0.1627  0.2783
57171W        W  109  12.246  12.636  19.029 -0.1519  0.4182  0.2216
57172W        W  110  12.672  12.839  19.867 -0.0009 -0.0832  0.2851
57173W        W  111  11.081  13.383  19.389  0.1031 -0.0665  0.1281
57174W        W  112  10.611  11.583  20.672 -0.0836 -0.0376 -0.0631
57175W        W  113  11.440  13.520  22.181  0.3165 -0.0767 -0.1035
57176W        W  114  10.816  12.889  22.592 -0.0854 -0.1386  0.0564
57177W        W  115  11.681  10.855  20.795  0.0452 -0.2104  0.0634
57178W        W  116  13.073  14.046  20.960  0.3302 -0.0782 -0.1237
57179W        W  117  11.665  13.549  23.507 -0.2122  0.0583 -0.0542
57180W        W  118  13.526  10.997  20.328  0.0927  0.1025  0.5657
57181W        W  119  12.749  11.554  20.598  0.3099  0.4890 -0.0084
57182W        W  120  12.567  13.210  21.407  0.1536 -0.1189  0.0687
57183W        W  121  14.455  12.084  17.779 -0.0690 -0.1215  0.0139
57184W        W  122  12.931  12.111  21.220 -0.4078  0.3236  0.0409
57185W        W  123  14.299  11.773  21.781 -0.0968 -0.0845  0.1167
57186W        W  124  11.789  12.094  20.004 -0.1345 -0.0793 -0.1389
57187W        W  125  12.085  13.259  18.545  0.0626 -0.1319  0.0505
57188W        W  126  12.820  14.700  19.921 -0.1059  0.0246 -0.2262
57189W        W  127  13.639  11.922  19.464 -0.0963  0.0038  0.1420
57190W        W  128  11.641  14.925  21.591 -0.2185 -0.2351 -0.1376
57191W        W  129  11.998  11.728  21.779 -0.0366 -0.1499 -0.0695
57192W        W  130  11.817  13.315  22.541  0.0020  0.0333  0.1513
57193W        W  131  11.396  13.881  18.470  0.1731 -0.0065 -0.2033
57194W        W  132  10.569  12.422  21.687  0.0589 -0.0986 -0.0312
57195W        W  133  10.786  12.910  20.421  0.2166 -0.0843 -0.0673
57196W        W  134  12.153  11.948  23.543  0.2177  0.2481  0.3308
57197W        W  135  11.174  12.668  21.765 -0.1080  0.0322  0.2346
57198W        W  136  14.381  11.977  20.580  0.0817 -0.1559  0.0763
57199W        W  137  12.553  12.094  20.797  0.1558 -0.1400 -0.1777
57200W        W  138  13.427  10.042  20.516  0.0718  0.2732 -0.1994
57201W        W  139  10.756  13.290  21.093  0.1987 -0.3168  0.1827
57202W        W  140  12.718  13.721  19.872  0.0980 -0.2075  0.0410
57203W        W  141  13.103  11.198  20.280 -0.0755 -0.3138 -0.0851
57204W        W  142  13.320  13.637  19.379  0.0825 -0.0719 -0.3247
57205W        W  143  10.133  12.348  20.883  0.0368  0.1883  0.0689
57206W        W  144  10.806  11.415  21.463 -0.0436 -0.3720  0.2802
57207W        W  145  10.014  12.018  24.287 -0.2006 -0.0434  0.1095
57208W        W  146  10.685  10.827  21.694 -0.1300  0.3750  0.0518
57209W        W  147  13.123  12.070  23.249 -0.1185 -0.0722 -0.0369
57210W        W  148  11.719  11.184  21.375  0.0036  0.3608 -0.3318
57211W        W  149  11.274  12.646  20.419 -0.0298 -0.2264  0.4102
57212W        W  150  11.322  12.163  20.230 -0.2918  0.3999 -0.0480
57213W        W  151  10.285  14.398  20.274 -0.0274 -0.1921  0.2229
57214W        W  152  12.789  12.043  22.848 -0.0099  0.0325  0.2064
57215W        W  153  11.956  13.380  20.172 -0.0289 -0.1370 -0.3049
57216W        W  154  13.074  13.080  21.738 -0.0268 -0.0750 -0.3183
57217W        W  155  11.826  13.362  20.676  0.1229  0.0875  0.0570
57218W        W  156  10.776  11.906  22.923  0.1347  0.2714  0.1822
57219W        W  157  11.517  10.746  21.344 -0.0150 -0.1794  0.0832
57220W        W  158  10.645  14.828  21.919 -0.0534  0.1619 -0.0873
57221W        W  159  11.708  12.947  21.440  0.0274  0.0718 -0.0487
57222W        W  160  11.428  10.895  20.389  0.2645  0.1752 -0.1175
57223W        W  161  12.581  14.341  19.668 -0.1071  0.3885  0.3129
57224W        W  162  12.113  11.524  19.211  0.0978 -0.4432  0.1614
57225W        W  163  10.954  12.369  23.174  0.1973 -0.2524 -0.1174
57226W        W  164  13.272  10.752  22.002  0.4351 -0.2105  0.1192
57227W        W  165  14.138  13.013  20.675 -0.2125  0.3118 -0.2491
57228W        W  166  13.428  11.948  21.440  0.0101  0.2336  0.0096
57229W        W  167  11.911   9.305  20.094 -0.2442 -0.2534 -0.0711
57230W        W  168  12.227  14.731  19.882 -0.0708  0.0496 -0.3212
57231W        W  169  11.791  13.360  21.187 -0.0462  0.2596 -0.2834
57232W        W  170  11.050  13.596  21.854  0.0246  0.1420 -0.1976
57233W        W  171  12.313  13.764  18.907 -0.3399  0.0451 -0.1060
57234W        W  172  13.042  11.680  21.656 -0.2811 -0.2908 -0.1567
57235W        W  173  10.560  11.148  24.059  0.0448 -0.0360  0.0449
57236W        W  174  12.842  10.920  22.206  0.2513  0.1151 -0.1604
57237W        W  175  11.365  10.187  19.646  0.2076 -0.3171 -0.2723
57238W        W  176  11.424  14.339  22.499  0.0954 -0.0764 -0.1195
57239W        W  177  12.441  11.863  21.453  0.1969  0.4760 -0.0395
57240W        W  178  13.074  11.633  21.147  0.2009  0.1475 -0.1480
57241W        W  179  12.716  12.210  21.706  0.0327 -0.0821  0.1519
57242W        W  180  12.419  13.327  19.946  0.2038 -0.0670 -0.1128
57243W        W  181  13.636  11.563  19.104 -0.1974 -0.2347  0.0355
57244W        W  182  12.694  10.574  19.630  0.1677 -0.2413 -0.1509
57245W        W  183  11.377  13.570  22.780 -0.0790 -0.1397  0.0559
57246W        W  184  12.567  11.947  19.551  0.1968  0.1062  0.2108
57247W        W  185  11.897  13.623  22.071 -0.1262  0.2353  0.2524
57248W        W  186  12.123  11.094  20.122  0.1586  0.0415  0.0491
57249W        W  187  13.085  13.803  18.506 -0.1829  0.2161 -0.6615
57250W        W  188  10.292  13.186  21.427  0.1357  0.2740 -0.1029
57251W        W  189  12.877  12.655  21.958 -0.2208  0.3539  0.0762
57252W        W  190  12.298  12.827  20.589  0.0431  0.1128 -0.0173
57253W        W  191  12.759  10.779  21.731 -0.0374  0.3229 -0.0074
57254W        W  192  11.257  13.015  19.656  0.2148 -0.0269 -0.0340
57255W        W  193  12.251  10.553  19.912 -0.1186 -0.1023 -0.0896
57256W        W  194  10.904  14.549  21.481 -0.2734 -0.2061 -0.0685
57257W        W  195  13.848  11.692  21.422  0.2476  0.6009  0.2307
57258W        W  196  12.167  12.428  20.798  0.3492 -0.3907 -0.2111
57259W        W  197  12.651  10.035  23.402  0.3290 -0.0141 -0.0366
57260W        W  198  13.785  12.072  21.883  0.0136  0.2599 -0.1309
57261W        W  199  13.767  11.246  18.716 -0.0419 -0.2065 -0.0934
57262W        W  200  13.278  11.377  20.761 -0.3805 -0.1782  0.0482
57263W        W  201  11.432  11.690  18.381 -0.1847 -0.2361 -0.1180
57264W        W  202  13.851  12.401  23.021  0.0208  0.1651 -0.0237
57265W        W  203  12.069  11.661  22.720  0.0247 -0.0362  0.2977
57266W        W  204  10.903  14.336  22.536  0.0662  0.3718 -0.0604
57267W        W  205  11.479  13.051  23.770  0.0598  0.0135  0.0781
57268W        W  206  12.457  12.332  21.220 -0.0040 -0.2163 -0.0666
57269W        W  207  11.821  11.660  23.239  0.0730  0.2570  0.0566
57270W        W  208  12.137  10.396  20.654  0.1361  0.2100 -0.1724
57271W        W  209  12.213  13.838  19.911  0.2350  0.1392  0.0084
57272W        W  210  11.210  13.807  18.893  0.0711  0.1654 -0.0858
57273W        W  211  12.091  11.187  21.681 -0.1066  0.0085 -0.0403
57274W        W  212  13.367  12.638  21.877 -0.3793  0.0821 -0.1045
57275W        W  213  11.229  14.231  19.923  0.0760  0.3063  0.0809
57276W        W  214  13.104  12.627  22.444  0.0436  0.2163 -0.1751
57277W        W  215  10.057  15.014  21.212  0.0315 -0.1214 -0.2635
57278W        W  216  13.724  10.474  21.130  0.0528 -0.1675  0.0486
57279W        W  217  11.446  14.059  23.503  0.2073 -0.0194  0.2288
57280W        W  218  10.467  11.986  20.228  0.0776  0.2173  0.1226
57281W        W  219  10.604  12.562  20.897  0.4221 -0.0522 -0.1370
57282W        W  220  13.268  10.887  19.448  0.0208  0.3343 -0.1403
57283W        W  221  13.288  11.441  18.638 -0.0563 -0.0273 -0.3420
57284W        W  222  12.412  11.587  20.983 -0.1860  0.0762 -0.1936
57285W        W  223  12.966  10.298  20.381  0.1259  0.2401  0.1726
57286W        W  224  10.485  15.316  22.061  0.1382 -0.4490  0.0061
57287W        W  225  13.466  11.403  21.340 -0.1031  0.1427 -0.1720
57288W        W  226  13.119  11.950  19.478 -0.0613 -0.1717  0.3607
57289W        W  227  12.674  12.699  21.490  0.4874  0.2039 -0.1925
57290W        W  228  10.931  11.866  24.172 -0.0821 -0.1335  0.2224
57291W        W  229  10.935  10.660  20.153 -0.1237  0.1896  0.4038
57292W        W  230  13.488  12.890  21.453  0.0240 -0.3206  0.1839
57293W        W  231  12.703  13.160  20.913 -0.1881  0.0575 -0.0629
57294W        W  232  11.897  14.701  20.331  0.3586  0.3500  0.0054
57295W        W  233  12.156  13.654  22.674  0.0525  0.0793 -0.1089
57296W        W  234  10.678  11.933  19.513 -0.0146  0.0128  0.1804
57297W        W  235  11.155  14.584  22.886  0.1620  0.1103  0.1911
57298W        W  236  11.767  12.803  22.520 -0.0089  0.0249 -0.1643
57299W        W  237  13.010  12.544  22.926 -0.2824 -0.2790  0.2995
57300W        W  238  11.681  10.815  22.922  0.2487  0.3127 -0.0277
57301W        W  239  11.135   9.910  21.665  0.2154  0.0941  0.1870
57302W        W  240  10.537  10.840  20.917  0.1002  0.0473  0.0629
57303W        W  241  12.314  13.299  20.519 -0.3367 -0.2493 -0.1994
57304W        W  242  12.407  11.974  22.036  0.3240  0.0231  0.1810
57305W        W  243  12.117  14.549  23.265 -0.1602  0.2134  0.1607
57306W        W  244  12.339  10.729  22.883 -0.1452 -0.0232  0.5601
57307W        W  245  12.135  15.114  17.885 -0.2756 -0.0889  0.0017
57308W        W  246  12.177  13.186  22.852  0.0748  0.0876 -0.1391
57309W        W  247  10.968  13.294  19.878  0.0615 -0.2469  0.5044
57310W        W  248   9.895  12.792  20.980  0.0507 -0.2310 -0.1880
57311W        W  249  11.957  11.619  21.260  0.2076 -0.2795 -0.2767
57312W        W  250  12.903  11.737  22.205  0.0162  0.1034 -0.0332
57313W        W  251  11.429  15.330  23.118  0.0378  0.1878  0.2315
57314W        W  252  11.712  12.977  20.401 -0.0072  0.0504  0.0595
57315W        W  253  11.307  15.231  21.369 -0.1020 -0.1587 -0.0513
57316W        W  254  14.294  11.182  19.446 -0.0436 -0.0981  0.2241
57317W        W  255  11.363  11.566  20.123 -0.1216  0.1764  0.0819
57318W        W  256  11.763  11.360  20.888  0.2386  0.0983 -0.1762
57319W        W  257  12.509  11.067  23.730  0.0742  0.0582  0.3976
57320W        W  258  12.745  12.203  19.204  0.3581 -0.3140  0.1663
57321W        W  259  13.883  11.235  23.290 -0.0628 -0.2657 -0.0354
57322W        W  260  11.147  10.652  21.782 -0.0813 -0.3275 -0.0882
57323W        W  261  12.201  15.083  20.228  0.0556 -0.4210  0.1951
57324W        W  262  10.143  12.359  23.887 -0.0070 -0.1769 -0.0734
57325W        W  263  13.218  15.139  21.217  0.2339  0.3767 -0.0904
57326W        W  264  10.838  13.556  23.527  0.1431 -0.3186 -0.1140
57327W        W  265  12.498  10.777  20.933 -0.2378 -0.2084 -0.0814
57328W        W  266  12.378  10.875  21.479 -0.2805  0.0927  0.0176
57329W        W  267  12.165  14.946  20.711 -0.0729 -0.3477 -0.2521
57330W        W  268  11.896  13.814  20.417 -0.0438  0.0894  0.1386
57331W        W  269  11.612  13.496  18.938  0.1241 -0.0083  0.0055
57332W        W  270  12.565  12.338  20.339  0.0783 -0.2359 -0.0036
57333W        W  271  12.018  13.277  21.660 -0.3436  0.1591  0.4066
57334W        W  272  12.011  12.448  20.255  0.1877  0.3419  0.1437
57335W        W  273  11.451  12.837  18.727 -0.1435  0.0198 -0.0652
57336W        W  274  11.504  12.551  21.093  0.3109  0.0456  0.0778
57337W        W  275  11.770  10.323  22.199 -0.1245  0.0407  0.1433
57338W        W  276  12.228  13.640  21.325  0.1528  0.0591 -0.2767
57339W        W  277  12.882  11.184  19.627 -0.2905 -0.1355  0.0095
57340W        W  278  13.563  11.631  21.796 -0.2241  0.1744 -0.1235
57341W        W  279  14.080   9.994  21.936 -0.0773 -0.2690 -0.0342
57342W        W  280  12.606  12.540  22.566  0.2163 -0.1651  0.0816
57343W        W  281   9.257  11.034  21.784 -0.2493 -0.0418 -0.0634
57344W        W  282  13.444  13.429  21.658  0.2678 -0.2179 -0.2474
57345W        W  283  13.347  11.476  19.445  0.1763 -0.2968 -0.4322
57346W        W  284  13.106  11.216  21.885  0.2199  0.1335  0.1302
57347W        W  285  12.715  12.287  19.873  0.0075 -0.1310 -0.1312
57348W        W  286  11.559  11.947  19.216 -0.2066  0.3935  0.1444
57349W        W  287  11.477  12.018  21.198  0.2131  0.0845  0.1630
57350W        W  288  12.863  12.344  24.149 -0.2264  0.3610  0.0154
57351W        W  289  11.472  11.267  19.240  0.0754 -0.3799  0.0598
57352W        W  290  12.378  11.789  23.107  0.0651  0.3411  0.4192
57353W        W  291  11.766  14.070  18.906  0.0851 -0.4327 -0.0454
57354W        W  292  12.291  12.971  19.497 -0.2177 -0.1960 -0.1346
57355W        W  293  12.925  11.880  20.274 -0.0333 -0.3732  0.1375
57356W        W  294  11.344  12.694  23.353 -0.0019  0.2540  0.1816
57357W        W  295   9.471  14.327  23.330 -0.1568 -0.0124  0.0282
57358W        W  296  10.587  11.030  20.386 -0.2841 -0.1139  0.1121
57359W        W  297  11.946  11.221  18.751 -0.4808  0.1626  0.0912
57360W        W  298  12.162  12.712  21.613 -0.3389  0.3664  0.2761
57361W        W  299  13.890  13.831  22.632 -0.1642  0.2842  0.1554
57362W        W  300  11.452  11.037  18.693 -0.0707 -0.0474  0.0312
57363W        W  301  12.537  12.537  23.782  0.0387 -0.1308 -0.0032
57364W        W  302  10.826  14.536  20.983  0.2247 -0.0444  0.4016
57365W        W  303  12.531  10.596  20.420  0.1055  0.3242 -0.3286
57366W        W  304  11.390  15.786  22.178 -0.1252  0.2060  0.1974
57367W        W  305  10.730  13.908  22.192  0.0079  0.3567 -0.2363
57368W        W  306  11.255  13.538  21.334 -0.1182  0.3275  0.0659
57369W        W  307  13.056  12.201  20.710 -0.0083  0.4569 -0.1759
57370W        W  308  13.108  12.842  21.098 -0.1493  0.2762  0.3469
57371W        W  309  12.202  11.449  20.543  0.1323  0.0638  0.2163
57372W        W  310  14.122  12.823  22.960  0.1493 -0.2160 -0.3383
57373W        W  311  11.763  13.113  22.073 -0.4673  0.1219 -0.0680
57374W        W  312  11.192  12.522  22.811 -0.0606  0.3384 -0.2562
57375W        W  313  13.312  13.251  22.130 -0.0300  0.0649 -0.1370
57376W        W  314  14.144  12.444  20.224  0.3908 -0.0065 -0.3099
57377W        W  315  11.549  14.680  22.079  0.2349  0.3879 -0.0135
57378W        W  316  10.437  11.484  23.254  0.3461 -0.2696 -0.1355
57379W        W  317  13.365  12.272  22.743 -0.0830 -0.3362 -0.0109
57380W        W  318  12.333  12.841  21.149  0.0852 -0.0124 -0.0596
57381W        W  319  12.152  10.939  20.594 -0.1060 -0.0549  0.0181
57382W        W  320  10.952  12.826  17.799  0.0994 -0.2436 -0.0036
57383W        W  321  10.967  13.848  22.686  0.1096  0.1222 -0.2601
57384W        W  322  10.825  12.575  22.099  0.1738 -0.1564  0.1213
57385W        W  323  11.292  14.826  21.123  0.1815 -0.0047  0.0078
57386W        W  324  11.357  13.786  20.787 -0.3399 -0.0403  0.3873
57387W        W  325  11.683  13.036  19.878 -0.2749 -0.0085  0.2724
57388W        W  326  13.000  14.689  20.412  0.0884 -0.1760  0.3964
57389W        W  327  11.904  11.190  19.550  0.4753 -0.0725 -0.1400
57390W        W  328  10.009  14.035  20.974 -0.1630  0.0971 -0.1561
57391W        W  329  11.012  12.794  20.843 -0.2200  0.2335  0.1007
57392W        W  330  12.227  14.272  19.197 -0.0155  0.0251  0.2617
57393W        W  331  10.888  14.058  21.690 -0.0061  0.1275 -0.1246
57394W        W  332  13.981  14.395  22.675  0.3779 -0.2406 -0.0711
57395W        W  333  13.512  10.034  18.922  0.2463 -0.0147 -0.2697
57396W        W  334  12.231  13.279  20.979  0.2566 -0.0099 -0.1998
57397W        W  335  13.460  10.902  21.006  0.2015 -0.3023 -0.0322
57398W        W  336  13.927  13.609  21.781  0.1102  0.1703 -0.1457
57399W        W  337  11.139  13.035  21.389 -0.0210  0.0646  0.0820
57400W        W  338  11.852   9.792  20.013 -0.0800 -0.1924 -0.1236
57401W        W  339  12.512  12.868  23.232 -0.0436  0.1031  0.0195
57402W        W  340  13.214  10.860  22.551 -0.0868  0.4568 -0.1241
57403W        W  341  10.804  14.603  23.867 -0.0649 -0.3916 -0.0099
57404W        W  342  12.259  14.191  18.631 -0.0319  0.2941 -0.1751
57405W        W  343  11.778  11.775  20.515 -0.0676 -0.2285  0.1210
57406W        W  344  12.401  12.478  22.052  0.2336 -0.7122 -0.0246
57407W        W  345  14.417   9.467  20.736  0.0580 -0.0068 -0.3231
57408W        W  346  11.939  12.035  18.219  0.0746  0.3184 -0.0104
57409W        W  347  13.765  11.298  20.682  0.0873  0.1676  0.1522
57410W        W  348  12.054  14.231  20.190  0.1259 -0.2181  0.1366
57411W        W  349  11.373  14.102  20.383 -0.4524  0.1810 -0.0806
57412W        W  350  11.894  15.723  22.331  0.0185  0.2288  0.1108
57413W        W  351  11.619   9.589  20.433  0.1433  0.0331  0.0754
57414W        W  352  12.992  10.744  20.048  0.0578  0.0154  0.2496
57415W        W  353  11.254  13.305  23.337  0.0695  0.0715  0.0912
57416W        W  354  14.448  10.879  22.200  0.0129  0.1146  0.0183
57417W        W  355  10.743  12.327  22.557  0.2431  0.2313  0.4661
57418W        W  356  13.852  12.604  20.620 -0.0796  0.3451  0.0213
57419W        W  357  12.075  12.141  23.013 -0.1224  0.0150  0.0861
57420W        W  358  11.058  11.545  21.856 -0.0553  0.6212 -0.2716
57421W        W  359  12.106  12.099  19.143 -0.1101 -0.0280 -0.0399
57422W        W  360  13.469  11.635  23.221  0.0342 -0.3834  0.2333
57423W        W  361  13.502  12.088  20.485  0.0051 -0.1408 -0.0896
57424W        W  362  12.497  14.334  21.574 -0.0089 -0.0241  0.2132
57425W        W  363  10.745  10.593  22.904  0.0271  0.1557 -0.0850
57426W        W  364  11.521  11.516  19.675 -0.0943 -0.0789 -0.0228
57427W        W  365  10.982  11.815  20.369  0.1938 -0.1274 -0.2000
57428W        W  366  12.276  11.520  22.202 -0.2873  0.1976 -0.1921
57429W        W  367  12.930  13.550  21.620 -0.0616 -0.1270  0.0690
57430W        W  368  10.798   9.366  21.264 -0.0662 -0.1717  0.0981
57431W        W  369  13.621  13.237  18.925  0.0419  0.2988  0.2934
57432W        W  370  13.179  13.101  20.655  0.0925 -0.0128 -0.0123
57433W        W  371  10.972  15.115  19.657 -0.4122 -0.0114  0.2474
57434W        W  372  12.141  12.941  20.094 -0.1250  0.3781  0.1455
57435W        W  373  11.480  13.536  20.354 -0.3094  0.2213  0.1244
57436W        W  374   9.507  11.565  22.476  0.0084  0.1285  0.1050
57437W        W  375  12.246  13.951  21.740 -0.1800 -0.0578 -0.1172
57438W        W  376  13.024  13.587  20.726  0.2568  0.2723 -0.1032
57439W        W  377  12.006  10.497  19.104  0.2440 -0.0300  0.1321
57440W        W  378  11.667  12.319  20.634 -0.0735 -0.2743  0.2334
57441W        W  379   9.120  13.445  20.570 -0.0099 -0.2763  0.1828
57442W        W  380  13.283  12.622  20.643 -0.2546  0.1772  0.5393
57443W        W  381  12.842  12.252  22.219  0.1720 -0.1192 -0.0819
57444W        W  382  11.153  13.284  18.843 -0.0428 -0.0052 -0.5507
57445W        W  383  14.045  10.357  22.271 -0.1153 -0.0455  0.3418
57446W        W  384  12.385  12.018  22.541 -0.0599 -0.2012  0.0902
57447W        W  385  12.752  13.022  22.347  0.0067 -0.1208 -0.0638
57448W        W  386  12.002  11.826  19.557  0.4519  0.0441  0.0754
57449W        W  387  11.285  13.048  22.632 -0.0043 -0.2439  0.0462
57450W        W  388  11.453  13.754  19.469 -0.1349  0.0950  0.1036
57451W        W  389  12.046  15.193  19.739 -0.0013  0.1834 -0.3169
57452W        W  390  13.172  13.302  21.242 -0.0135  0.0727  0.2601
57453W        W  391  11.989  11.635  20.070  0.0643  0.3188  0.2015
57454W        W  392  12.959  13.952  20.392  0.0097  0.0761 -0.1055
57455W        W  393  11.275  11.122  21.605  0.0975 -0.1354  0.1710
57456W        W  394  13.239  10.363  20.933 -0.2676 -0.4421 -0.0691
57457W        W  395  13.614  10.834  19.856 -0.1009  0.1467  0.1106
57458W        W  396   9.632  13.405  22.155 -0.5471  0.2585 -0.3986
57459W        W  397  10.993  12.129  19.216  0.0532 -0.2776 -0.3982
57460W        W  398  10.396  12.780  19.230 -0.4901 -0.4937 -0.1479
57461W        W  399  10.892  14.427  20.463 -0.0740  0.0158  0.2259
57462W        W  400  13.037  10.287  22.411 -0.3341 -0.3345  0.0318
57463W        W  401  10.923  12.169  21.860 -0.2344 -0.2322 -0.2346
57464W        W  402   9.907  12.967  19.867  0.0392 -0.0763  0.0153
57465W        W  403  11.935   9.997  21.685  0.2636  0.0721 -0.0889
57466W        W  404  13.137  13.696  17.530 -0.0656 -0.2347 -0.6736
57467W        W  405  13.201  12.094  21.830 -0.0470 -0.2174 -0.0104
57468W        W  406   9.503  10.962  20.081 -0.1031  0.2778 -0.2871
57469W        W  407  12.430  12.812  18.467 -0.2459 -0.3081  0.0438
57470W        W  408  11.569  14.844  18.746  0.0697 -0.0058 -0.0514
57471W        W  409  11.736  11.278  20.403 -0.1337  0.2983  0.0599
57472W        W  410  11.788  14.149  21.953 -0.0287  0.0451 -0.2010
57473W        W  411  10.871  12.598  19.492 -0.2395  0.0063  0.1082
57474W        W  412  12.659  12.034  23.416  0.0575  0.0110  0.1841
57475W        W  413  11.283  11.732  22.215 -0.0549  0.2161 -0.1309
57476W        W  414  11.137  11.099  20.035 -0.0404  0.0103  0.1378
57477W        W  415  11.995  12.461  21.259 -0.0950  0.4272 -0.0427
57478W        W  416  12.514  13.913  19.360  0.0525 -0.1541  0.1923
57479W        W  417  12.778  14.899  18.087 -0.0589  0.1378 -0.1631
57480W        W  418  12.447  13.515  21.850 -0.3295 -0.0439 -0.2656
57481W        W  419  12.661  14.819  20.812  0.0433  0.1994 -0.1772
57482W        W  420  11.162  11.063  22.116  0.0075 -0.4905  0.1447
57483W        W  421  12.586  14.116  21.116  0.0841 -0.3354 -0.2729
57484W        W  422  11.854  12.640  22.011 -0.1111 -0.1072 -0.3538
57485W        W  423  13.738  12.424  18.654  0.0412 -0.0763  0.0790
57486W        W  424  14.653  12.099  21.594 -0.0450  0.2715 -0.3325
57487W        W  425  12.276  12.081  19.921  0.1884 -0.2490 -0.1973
57488W        W  426  10.256  11.924  23.727 -0.0496  0.0263 -0.0991
57489W        W  427  10.979  15.169  22.211 -0.2037  0.2283 -0.0147
57490W        W  428  12.442  12.994  21.934  0.1545  0.1430  0.0500
57491W        W  429  11.763  11.172  23.251  0.1195 -0.0485  0.1715
57492W        W  430  12.598  11.131  20.351  0.0607  0.1721 -0.3455
57493W        W  431  12.129  13.075  18.115 -0.1066 -0.1796  0.0995
57494W        W  432  13.138  10.304  21.857 -0.2943 -0.0765 -0.1556
57495W        W  433  12.091  11.714  18.647  0.2310  0.2373 -0.0114
57496W        W  434  11.332  12.021  23.099 -0.2778  0.4579 -0.0539
57497W        W  435  11.850  12.870  20.992 -0.1611  0.1125  0.0195
57498W        W  436  12.235  12.912  23.728  0.2406 -0.1159  0.1185
57499W        W  437  10.158  12.041  19.576 -0.0930  0.1922  0.0486
57500W        W  438  13.829  12.176  19.851  0.2742  0.0414  0.2811
57501W        W  439  12.294  14.531  21.046  0.0868  0.3588 -0.1844
57502W        W  440  13.361  13.724  22.007 -0.1448  0.0252  0.0147
57503W        W  441  12.338  13.886  22.260 -0.0759 -0.2209 -0.1113
57504W        W  442  12.668  12.608  20.753 -0.0611 -0.0091 -0.0023
57505W        W  443  10.421  11.720  21.332 -0.2377 -0.0379 -0.1090
57506W        W  444  12.810  11.540  19.324 -0.1709 -0.0226  0.1225
57507W        W  445  11.335  11.736  20.773 -0.0220  0.0626 -0.1824
57508W        W  446  13.900  12.125  20.858  0.0785 -0.4600  0.0456
57509W        W  447  11.082  11.331  20.527 -0.0723  0.0170  0.1860
57510W        W  448  11.767  10.908  19.095 -0.2578 -0.0781 -0.0635
57511W        W  449  11.929  16.006  23.398 -0.2146  0.0240 -0.1787
57512W        W  450  12.845  13.601  22.255 -0.2025 -0.0514  0.1603
57513W        W  451  12.954  14.043  25.750 -0.0444 -0.1292 -0.0806
57514W        W  452  10.827  12.662  24.383  0.1213 -0.0020 -0.1680
57515W        W  453  13.648  10.970  22.885  0.2576  0.3129 -0.1336
57516W        W  454  13.943  13.426  24.402 -0.2392 -0.1023  0.0211
57517W        W  455  11.178  11.811  24.625  0.2820  0.2687 -0.4335
57518W        W  456  14.011  14.425  22.148  0.1210  0.2673  0.0878
57519W        W  457  13.232  11.432  25.821 -0.0830  0.2486 -0.2234
57520W        W  458  14.718  14.538  24.254 -0.1044  0.2087  0.0602
57521W        W  459  14.202  13.958  25.525  0.1840  0.2235 -0.0088
57522W        W  460  12.079  12.355  23.927  0.0107  0.2524  0.0714
57523W        W  461  12.515  11.934  25.839  0.0995 -0.0058  0.2538
57524W        W  462  13.286  14.442  24.223 -0.0667 -0.1187  0.2426
57525W        W  463  11.948  10.896  24.405  0.3693 -0.1816 -0.0201
57526W        W  464   9.644  12.003  25.838 -0.2627 -0.1525 -0.4674
57527W        W  465  13.325  14.768  22.620  0.0086 -0.2510 -0.1712
57528W        W  466  10.529  13.432  22.655  0.2016 -0.3659 -0.1013
57529W        W  467  13.491  12.382  25.940  0.1780 -0.0571  0.0611
57530W        W  468  11.613  11.301  23.775  0.0602  0.0637 -0.2004
57531W        W  469  11.484  14.918  24.138  0.3096  0.1547 -0.2479
57532W        W  470  12.387  11.849  25.380  0.0330 -0.0264  0.0059
57533W        W  471  14.099  11.712  25.196 -0.1185 -0.2917 -0.1143
57534W        W  472  12.520  14.971  23.840  0.0413  0.2085 -0.1904
57535W        W  473   9.901  11.570  23.361  0.1775  0.1195  0.1637
57536W        W  474  10.149  13.144  25.372 -0.1556  0.2708 -0.3292
57537W        W  475  12.350  12.921  25.359  0.1206 -0.0659  0.2079
57538W        W  476  15.314  12.007  24.781  0.1711 -0.2993  0.1547
57539W        W  477  13.266  13.514  24.690 -0.3349  0.0858 -0.1274
57540W        W  478  12.057  14.517  26.548 -0.0781 -0.0914  0.1094
57541W        W  479  12.365  14.237  25.320  0.3076  0.2468  0.0341
57542W        W  480  13.298  11.278  28.010  0.2902  0.1172  0.0206
57543W        W  481  12.769  13.741  25.264 -0.2942 -0.0343  0.0877
57544W        W  482  11.372  15.009  24.733 -0.3361  0.0249 -0.2018
57545W        W  483  11.809  13.460  23.033 -0.0709 -0.0867 -0.1633
57546W        W  484  13.596  13.347  23.967  0.1392  0.1227  0.1601
57547W        W  485  14.838  13.876  25.861 -0.4489  0.1592  0.0879
57548W        W  486  12.790  16.742  25.722  0.0782  0.1125  0.0076
57549W        W  487  10.479  14.593  23.390  0.2867  0.2278  0.3715
57550W        W  488  13.357  14.528  24.880  0.1180 -0.3043  0.1069
57551W        W  489  11.854  14.741  25.176 -0.2155 -0.1334 -0.0141
57552W        W  490  13.574  12.256  24.796 -0.0752 -0.0626 -0.2701
57553W        W  491  12.516  12.494  26.529  0.0881 -0.2642  0.1482
57554W        W  492  12.415  13.268  24.023 -0.2681  0.0065 -0.1102
57555W        W  493  13.896  14.163  23.666 -0.3872  0.1790 -0.3864
57556W        W  494  12.182  12.867  26.391 -0.0401  0.0721 -0.0258
57557W        W  495  11.095  14.167  23.906  0.1937  0.3897  0.2348
57558W        W  496  14.309  10.475  27.493 -0.3297 -0.2971  0.1205
57559W        W  497  11.100  13.772  23.180 -0.2107 -0.0790  0.2841
57560W        W  498  13.441  12.571  23.339 -0.0875 -0.0549 -0.0719
57561W        W  499  12.007  11.329  24.064 -0.1280  0.2475  0.0568
57562W        W  500  14.106  12.700  24.164 -0.2592 -0.0533  0.0666
57563W        W  501  12.779  12.583  24.596 -0.0472 -0.1177 -0.3863
57564W        W  502  11.856  15.076  24.709 -0.2458  0.5136  0.0074
57565W        W  503  11.006  12.056  25.019  0.1353  0.2853  0.0818
57566W        W  504  13.904  14.696  24.842 -0.0317 -0.4230 -0.3487
57567W        W  505  11.862  13.531  24.975  0.1745  0.0483  0.0425
57568W        W  506  15.036  11.160  25.666 -0.2870 -0.0797 -0.1407
57569W        W  507  11.407  14.393  25.818  0.2824  0.2433  0.0269
57570W        W  508  11.658  11.598  24.364  0.0755 -0.2392 -0.1544
57571W        W  509  13.066  14.631  20.949 -0.1253  0.0434 -0.1806
57572W        W  510  13.141  15.671  23.042  0.0848 -0.0148  0.1975
57573W        W  511  12.804  13.882  23.211 -0.2326  0.0064 -0.1193
57574W        W  512  10.371  11.540  25.023  0.0787  0.0956 -0.0188
57575W        W  513  11.925  13.023  25.074 -0.1019 -0.1545  0.4162
57576W        W  514  12.056  12.821  25.757  0.1996 -0.1879 -0.0132
57577W        W  515  11.537  11.640  22.805  0.2769 -0.2647 -0.1944
57578W        W  516  13.040  12.618  26.463 -0.3900 -0.1609 -0.0236
57579W        W  517   9.921  15.008  24.141 -0.2700  0.3156 -0.2259
57580W        W  518  14.534  11.379  24.712 -0.3173  0.0817  0.2901
57581W        W  519  12.142  14.181  24.178  0.3289 -0.0393 -0.0392
57582W        W  520  13.995  12.990  25.326 -0.2261 -0.0635 -0.2334
57583W        W  521  12.703  12.843  24.150 -0.0379 -0.1119 -0.1294
57584W        W  522  14.926  11.684  24.645  0.0974  0.0660  0.2434
57585W        W  523  13.620  11.450  25.420  0.0450 -0.0763 -0.1277
57586W        W  524  11.096  15.449  23.491  0.0985  0.2333  0.0125
57587W        W  525  12.063  13.978  23.140  0.0227 -0.1002 -0.3058
57588W        W  526  14.220  14.524  24.490  0.0944  0.2827  0.1711
57589W        W  527  14.478  12.498  23.301 -0.1199 -0.1929  0.0345
57590W        W  528  11.880  14.143  25.374  0.0326  0.0096 -0.0196
57591W        W  529  10.747  11.203  27.847 -0.2558  0.1845  0.3272
57592W        W  530  12.333  13.359  25.093  0.1172  0.1818  0.0939
57593W        W  531  12.578  13.862  24.009 -0.0433  0.0823  0.1121
57594W        W  532  10.605  11.783  25.807  0.1414 -0.1628  0.0231
57595W        W  533  11.201  13.648  23.828 -0.1991 -0.0671  0.1068
57596W        W  534  12.774  11.220  25.946 -0.0843 -0.1213  0.1408
57597W        W  535  12.248  12.412  26.056 -0.1700 -0.1772 -0.1873
57598W        W  536  14.192  11.310  23.749  0.1916  0.3486  0.0437
57599W        W  537  10.843  10.862  26.205  0.2507  0.0963 -0.2884
57600W        W  538  14.940   9.877  24.954 -0.0795 -0.2586  0.1275
57601W        W  539  10.866  11.478  24.861  0.2110  0.0016  0.3523
57602W        W  540  14.321  14.755  22.820  0.1026  0.1476 -0.1572
57603W        W  541  12.605  11.554  23.533  0.0261 -0.1462  0.1014
57604W        W  542  12.280  14.261  22.623  0.0909 -0.1345  0.3487
57605W        W  543  11.370  11.606  25.220 -0.0916 -0.0497 -0.2304
57606W        W  544  10.990  12.323  24.014  0.0371 -0.0479 -0.2461
57607W        W  545  12.391  11.378  27.002  0.0404  0.0929  0.1683
57608W        W  546  12.354  12.482  24.391 -0.3981  0.0447  0.2073
57609W        W  547  13.700  13.294  25.683 -0.0573  0.1407 -0.1815
57610W        W  548  10.891  11.397  24.366 -0.0559  0.0043  0.2489
57611W        W  549  14.439  11.946  24.385  0.1884 -0.0412  0.0990
57612W        W  550  13.482  12.318  24.324  0.3840  0.1738 -0.0048
57613W        W  551   9.848  12.356  24.652  0.0160  0.0047 -0.1581
57614W        W  552  14.266  11.794  27.052 -0.0121 -0.0820  0.0214
57615W        W  553  13.153  16.332  22.362 -0.0345  0.3449 -0.0947
57616W        W  554  15.175  15.377  25.114 -0.0023  0.2831  0.0234
57617W        W  555  13.581  15.370  23.058 -0.0771 -0.2380  0.3586
57618W        W  556  11.830  11.217  28.320 -0.0616 -0.2709 -0.3603
57619W        W  557  11.379  11.509  23.325  0.2468 -0.2173  0.2472
57620W        W  558  10.547  14.378  25.668  0.1520  0.0394 -0.0697
57621W        W  559  13.093  15.343  24.961 -0.3129  0.1340 -0.2483
57622W        W  560  11.421  12.505  23.849 -0.0042  0.0092 -0.2391
57623W        W  561  13.972  14.839  22.427  0.0794 -0.4335 -0.1928
57624W        W  562  12.417  15.052  24.651  0.0719 -0.0199  0.0972
57625W        W  563  11.816  11.274  24.795  0.0359  0.3160 -0.3194
57626W        W  564  15.358  12.072  26.979 -0.3001  0.1318  0.1731
57627W        W  565  13.916  13.106  24.872  0.2581  0.0200 -0.0882
57628W        W  566  12.864  12.874  25.471 -0.0791 -0.0776  0.3173
57629W        W  567  11.044  11.009  23.830 -0.0121  0.0419  0.2494
57630W        W  568  13.498  14.368  22.947 -0.0751 -0.2135  0.1655
57631W        W  569  10.342  14.795  23.933  0.2072  0.1307  0.2529
57632W        W  570   9.587  13.139  23.953 -0.2163 -0.0353 -0.3155
57633W        W  571  10.948  14.686  25.553 -0.2966 -0.0116  0.1022
57634W        W  572  15.036  11.177  24.781 -0.0422  0.0848  0.2346
57635W        W  573  12.902  12.824  27.202 -0.0014 -0.2232 -0.4154
57636W        W  574  13.606  10.223  28.103  0.0770 -0.4034 -0.2336
57637W        W  575  10.062  10.501  24.137 -0.0510 -0.0329  0.0392
57638W        W  576  13.543  13.913  24.469  0.0790  0.2219 -0.1919
57639W        W  577  12.595  10.873  25.137 -0.0327 -0.2493  0.2454
57640W        W  578  14.528  11.058  23.350  0.1132 -0.0973 -0.0382
57641W        W  579  13.182  13.107  25.148 -0.3479 -0.3737 -0.0328
57642W        W  580  14.404  14.118  23.564 -0.2366  0.1248  0.2390
57643W        W  581  11.781  12.673  24.617 -0.5688  0.0131 -0.2848
57644W        W  582  13.236  11.123  23.976 -0.0217 -0.0910  0.1484
57645W        W  583  11.405  13.291  27.226  0.0110 -0.4869  0.2854
57646W        W  584  13.698  13.969  23.176 -0.0800  0.1041 -0.1385
57647W        W  585  12.938  13.551  23.770  0.2062 -0.3717 -0.1789
57648W        W  586  13.706  13.022  23.256  0.0939 -0.0084  0.1392
57649W        W  587  15.111  14.152  24.040 -0.0440  0.0230 -0.2403
57650W        W  588  11.487  13.395  24.178 -0.0334 -0.2172 -0.2238
57651W        W  589  12.763  13.348  25.633 -0.1444 -0.1199  0.0868
57652W        W  590  14.510  13.498  25.638  0.1077 -0.0942 -0.0438
57653W        W  591  13.158  11.693  25.266 -0.1752  0.1442  0.3610
57654W        W  592  11.272  12.020  23.734 -0.1733 -0.1475  0.0299
57655W        W  593  11.885  11.892  25.314  0.1524 -0.0897 -0.0529
57656W        W  594  10.254  14.532  22.746  0.3063  0.3326  0.2298
57657W        W  595  15.374  11.819  26.116  0.1972  0.0067  0.0052
57658W        W  596  14.114  11.079  24.706 -0.0769  0.2004 -0.0600
57659W        W  597  13.198  11.032  26.179 -0.0023 -0.1217  0.1701
57660W        W  598  13.192  12.178  25.098 -0.0387 -0.0574 -0.0456
57661W        W  599  13.283  13.896  22.897 -0.2866  0.0160  0.2878
57662W        W  600  13.755  11.880  25.653  0.0460  0.2358 -0.1466
57663W        W  601   9.937  12.951  23.429 -0.0213 -0.2354  0.0937
57664W        W  602  10.506  11.675  27.716  0.0654 -0.0085  0.1572
57665W        W  603  12.001  13.685  25.449 -0.0644 -0.0967  0.3805
57666W        W  604  11.450  14.535  25.344 -0.1689 -0.1585  0.2583
57667W        W  605  15.070  14.308  25.714 -0.1623  0.0535 -0.2448
57668W        W  606  14.305  13.067  24.386 -0.0054 -0.1832  0.3022
57669W        W  607  13.784  10.511  27.499  0.2846 -0.2240 -0.1059
57670W        W  608  13.730  11.061  24.273  0.4043  0.0498  0.2822
57671W        W  609  12.238  12.615  24.955 -0.2321  0.0291  0.2401
57672W        W  610  12.129  13.682  24.160  0.0683 -0.0087  0.1559
57673W        W  611  12.210  12.064  24.966 -0.2350 -0.2150 -0.0891
57674W        W  612  12.487  13.065  24.601  0.1862 -0.1940  0.2136
57675W        W  613  13.106  14.118  22.264  0.0531  0.0171  0.0381
57676W        W  614  13.393  12.958  26.181  0.1212 -0.0869 -0.2714
57677W        W  615  10.920  13.399  24.393  0.2049  0.1194  0.1535
57678W        W  616  15.667  11.471  25.194 -0.2246  0.2606  0.3098
57679W        W  617   9.561  14.113  24.151  0.1455  0.3077 -0.0128
57680W        W  618  11.468  12.350  22.342 -0.1640  0.1557 -0.2225
57681W        W  619  10.466  13.253  23.734  0.0852  0.1201  0.2062
57682W        W  620  14.644  12.134  23.787  0.1085 -0.0134  0.2204
57683W        W  621  12.672  13.034  22.814 -0.4710 -0.2954 -0.2856
57684W        W  622  11.480  12.230  24.755 -0.2744  0.4183 -0.1723
57685W        W  623  13.312  11.315  24.439 -0.4396  0.3933  0.1185
57686W        W  624  10.659  13.215  25.372 -0.0654 -0.2215 -0.0672
57687W        W  625  13.447  13.489  26.154 -0.1002  0.0637  0.1179
57688W        W  626  12.986  10.306  23.745  0.0480  0.0027 -0.1562
57689W        W  627  13.596  13.328  25.211  0.2700 -0.1698  0.0692
57690W        W  628  13.182  13.306  27.024  0.0695  0.0949  0.0527
57691W        W  629  10.630  11.911  24.619  0.1195 -0.0137 -0.3202
57692W        W  630  14.273  12.619  25.623 -0.2826  0.2129  0.0362
57693W        W  631  12.698  11.821  24.939 -0.0489 -0.0226 -0.0649
57694W        W  632  10.465  12.029  23.248  0.3091 -0.1033 -0.3099
57695W        W  633  14.104  14.303  25.852  0.2949  0.0504 -0.1844
57696W        W  634  11.098  12.539  24.976 -0.0837 -0.1175  0.2104
57697W        W  635  12.455  13.749  24.502 -0.2143  0.1067 -0.0567
57698W        W  636  12.804  12.076  25.463 -0.0255 -0.0535  0.1464
57699W        W  637  13.769  12.122  26.247  0.2105 -0.2504  0.1580
57700W        W  638  12.720  12.903  25.013 -0.0573 -0.0757  0.2404
57701W        W  639  12.849  11.783  24.123  0.1146  0.1218  0.0302
57702W        W  640  12.128  10.619  26.137  0.2796  0.2913  0.4306
57703W        W  641  13.891  12.609  27.033  0.1490  0.1694 -0.0696
57704W        W  642  12.153  11.574  25.696  0.2734  0.2907  0.0356
57705W        W  643  11.515  13.279  25.199 -0.0668 -0.0728  0.1418
57706W        W  644  14.981  11.755  25.820 -0.1314 -0.0361  0.0598
57707W        W  645  14.068  13.500  20.776  0.4329  0.3319 -0.0882
57708W        W  646  13.742  13.148  27.094 -0.0242  0.5570 -0.1792
57709W        W  647  11.179  13.860  24.340 -0.1900 -0.4424 -0.2678
57710W        W  648  11.371  12.436  26.202  0.0853 -0.2433  0.0524
57711W        W  649  12.805  13.546  24.830 -0.0930 -0.4348 -0.0085
57712W        W  650  12.700  11.635  26.594 -0.2124 -0.4041  0.0211
57713W        W  651  11.232  13.403  25.590 -0.3634  0.0696  0.1381
57714W        W  652  12.515  12.390  23.048 -0.0887 -0.0710  0.1585
57715W        W  653  10.652  15.050  26.315 -0.2220 -0.1109  0.0120
57716W        W  654  13.816  10.337  23.335 -0.0857  0.0852 -0.2802
57717W        W  655  13.174  15.174  22.832 -0.0750 -0.1365  0.1751
57718W        W  656  12.570  12.513  25.657  0.1397  0.0373  0.1590
57719W        W  657  14.603  11.630  26.605  0.1919 -0.0068 -0.2843
57720W        W  658  13.918  13.523  23.561  0.4567  0.2864  0.0520
57721W        W  659  13.637  10.412  26.580 -0.0332  0.1151 -0.2189
57722W        W  660  11.728  10.461  24.958  0.2303  0.0250 -0.0282
57723W        W  661  13.855  13.452  23.064  0.1202 -0.0904  0.0255
57724W        W  662  11.332  11.436  26.100 -0.1323  0.0387  0.1065
57725W        W  663  14.575  14.244  25.718  0.0240  0.0703  0.0957
57726W        W  664  12.252  11.806  26.801 -0.0353 -0.1476 -0.3645
57727W        W  665  13.142  11.619  23.605 -0.4626  0.2268  0.0533
57728W        W  666  11.275  11.130  24.233 -0.2459  0.0948  0.1387
57729W        W  667  13.607  11.816  25.039 -0.0099 -0.2603 -0.1209
57730W        W  668  15.091  13.782  24.364 -0.1948  0.3161 -0.1460
57731W        W  669  12.678  14.495  22.297  0.0716 -0.0455 -0.2204
57732W        W  670  14.891  12.864  25.112  0.1082  0.0099 -0.1835
57733W        W  671  12.053  12.928  24.200 -0.3664  0.5241  0.1526
57734W        W  672  13.157  12.648  24.962 -0.1238 -0.0448  0.3240
57735W        W  673  12.139  13.227  23.406  0.2187 -0.2041 -0.1938
57736W        W  674  11.433  12.827  24.260  0.4187 -0.0574  0.2638
57737W        W  675  12.862  12.272  26.069 -0.2173 -0.2023  0.0924
57738W        W  676  13.772  13.648  24.880 -0.0585  0.0701 -0.2624
57739W        W  677  13.402  11.620  24.091 -0.1948 -0.1984  0.0509
57740W        W  678  13.611  12.706  25.100  0.0146 -0.2370  0.2205
57741W        W  679  14.334  12.684  25.118  0.0968 -0.3108  0.2106
57742W        W  680  11.759  12.295  25.876 -0.2571 -0.1093  0.3618
57743W        W  681   9.427  11.032  27.492  0.2679  0.1022  0.0378
57744W        W  682  14.108  15.196  23.900 -0.0450 -0.1140 -0.0223
57745W        W  683  14.383  10.658  21.751  0.0365 -0.1959  0.0221
57746W        W  684  15.308  11.714  23.847 -0.0253  0.0362 -0.0449
57747W        W  685  12.525  14.308  23.042 -0.0709  0.1599  0.1237
57748W        W  686  13.160  13.132  24.081 -0.1157  0.0756  0.2135
57749W        W  687  11.816  12.416  25.184  0.3369  0.0401  0.0386
57750W        W  688  13.871  12.898  26.598  0.0958 -0.4131  0.0869
57751W        W  689  11.047  11.519  22.611 -0.2280  0.0849 -0.2872
57752W        W  690  13.176  12.508  25.594 -0.0964 -0.1451  0.1204
57753W        W  691  12.147  12.663  22.847 -0.0316 -0.0733  0.3028
57754W        W  692  14.257  13.198  23.915  0.1477  0.1237 -0.1126
57755W        W  693  14.687  10.657  24.192  0.3072  0.0224  0.1011
57756W        W  694  12.163  12.266  25.533 -0.3681  0.0645 -0.0906
57757W        W  695  11.935  16.097  26.100  0.0910  0.1122  0.2226
57758W        W  696  11.766  11.823  23.857  0.0855  0.0212 -0.1944
57759W        W  697  10.955  12.611  23.610  0.1470  0.2065  0.2802
57760W        W  698  14.223  13.191  23.332  0.0408 -0.1821 -0.1838
57761W        W  699  14.318  12.289  27.077  0.1732  0.2032  0.1151
57762W        W  700  12.937  10.898  23.599  0.0841  0.0205  0.0451
57763W        W  701  16.277  11.678  26.513  0.0744 -0.0203  0.0689
57764W        W  702  11.150  13.019  24.686  0.1091  0.0541  0.3567
57765W        W  703  14.818  12.517  25.410 -0.2553  0.3924  0.3264
57766W        W  704  10.393  14.632  26.070 -0.0671  0.2040  0.0500
57767W        W  705  12.059  11.037  27.101 -0.0115 -0.2600 -0.1109
57768W        W  706  11.148  14.131  25.454  0.0576 -0.2311  0.2191
57769W        W  707  13.406  11.781  26.151  0.0710  0.0496  0.0030
57770W        W  708  14.386  12.509  24.685 -0.1145 -0.1283 -0.1178
57771W        W  709  13.225  11.994  26.955  0.2747  0.0618  0.1871
57772W        W  710  13.889  13.661  26.499  0.0993  0.1730  0.1487
57773W        W  711  12.858  13.590  26.710 -0.3128  0.1382  0.1616
57774W        W  712  12.230  13.318  25.750  0.0559  0.0896 -0.0593
57775W        W  713  12.090  14.057  25.767  0.1769 -0.2672 -0.3793
57776W        W  714  13.860  12.972  23.772  0.0787  0.0869 -0.0294
57777W        W  715  11.313  13.552  24.765 -0.2292 -0.2048  0.0268
57778W        W  716  11.705  12.820  26.076  0.3161 -0.0386 -0.1395
57779W        W  717  12.110  10.615  26.750 -0.0334  0.2189 -0.0154
57780W        W  718  13.630  12.845  24.155 -0.1180  0.0320  0.1966
57781W        W  719  11.287  11.553  24.017 -0.1065  0.0407  0.1960
57782W        W  720  13.287  13.413  23.018  0.0166 -0.2655  0.0216
57783W        W  721  11.641  14.041  26.194  0.1357  0.0244 -0.1452
57784W        W  722  11.037  13.346  25.094  0.0861  0.0378  0.1830
57785W        W  723  10.277  13.698  23.564 -0.0239 -0.0055  0.1822
57786W        W  724  14.671  13.400  23.153 -0.3733 -0.0528 -0.0502
57787W        W  725  13.947  13.830  24.044 -0.2716  0.1818 -0.3212
57788W        W  726  13.832  13.742  25.970  0.0928  0.0370 -0.1657
57789W        W  727  11.710  12.202  23.522  0.0409  0.1624 -0.0589
57790W        W  728  11.631  13.952  23.987 -0.2968 -0.2701  0.2783
57791W        W  729  11.054  15.060  23.229  0.1067  0.3772 -0.2107
57792W        W  730  13.320  13.578  22.493  0.1171  0.2878 -0.1132
57793W        W  731  12.264  13.815  25.049 -0.1055  0.0589 -0.1985
57794W        W  732  13.354  13.760  26.559  0.0280 -0.1392 -0.2344
57795W        W  733  13.948  11.674  22.176 -0.2280 -0.3324 -0.1868
57796W        W  734  15.459  11.035  24.530  0.0871  0.2228 -0.4247
57797W        W  735  13.597  11.162  22.170  0.1508 -0.2903 -0.0558
57798W        W  736  12.961  13.508  26.082 -0.3077  0.3631  0.0201
57799W        W  737  13.088  12.093  24.529 -0.4030 -0.0229  0.3878
57800W        W  738  13.105  11.325  22.384 -0.0709 -0.0893 -0.1209
57801W        W  739  11.612  12.449  26.867 -0.1832 -0.1338 -0.1814
57802W        W  740  15.419  11.423  26.535  0.3737 -0.3090  0.0321
57803W        W  741  10.984  14.689  26.105 -0.2541  0.1032  0.0347
57804W        W  742  13.295  14.829  21.777  0.0336 -0.1282  0.3822
57805W        W  743  10.869  10.909  23.337  0.0324 -0.0432  0.1291
57806W        W  744  12.983  13.034  24.616 -0.3321 -0.2815  0.1281
57807W        W  745  16.261  10.645  26.749 -0.1373 -0.1986 -0.3497
57808W        W  746  10.829  11.405  23.714  0.1781  0.1665 -0.1610
57809W        W  747  13.266  12.004  25.702 -0.1671  0.1538 -0.1359
57810W        W  748  12.180  12.443  23.436  0.2098  0.3253  0.1856
57811W        W  749  13.283  14.236  25.304 -0.1559 -0.1919  0.2777
57812W        W  750  12.109  14.894  24.268  0.0922  0.1112 -0.1309
57813W        W  751  10.749  10.768  24.221  0.1000  0.1270  0.0272
57814W        W  752  14.161  12.034  23.471  0.3084  0.0366 -0.2364
57815W        W  753  12.191  11.101  26.552  0.1548  0.3204 -0.2510
57816W        W  754  14.215  13.111  25.759 -0.1864 -0.0453  0.1520
57817W        W  755  12.176  11.683  24.491  0.0114  0.2255  0.1510
57818W        W  756  15.514  10.708  23.035  0.3625  0.2150 -0.2334
57819W        W  757  12.882  12.777  25.973  0.0483  0.1520  0.2553
57820W        W  758  11.794  11.079  26.034  0.2486 -0.2192  0.0128
57821W        W  759  13.211  12.755  23.747 -0.0500 -0.2229 -0.1839
57822W        W  760  14.567  12.455  24.184  0.1862  0.1539  0.1610
57823W        W  761  12.862  12.519  23.391 -0.1145 -0.3502  0.3075
57824W        W  762  14.633  14.652  24.813 -0.0371 -0.0030  0.0045
57825W        W  763  12.844  11.035  24.470 -0.1620 -0.0763 -0.0612
57826W        W  764  12.152  11.440  23.583 -0.0493 -0.1747 -0.0540
57827W        W  765  10.618  12.693  25.262  0.1164  0.1580  0.0274
57828W        W  766  12.419  11.918  26.338  0.3487  0.0413 -0.3254
57829W        W  767  14.311  13.653  24.711  0.2735 -0.1083 -0.0488
57830W        W  768  13.238  12.043  23.881  0.1668  0.1012  0.1429
57831W        W  769  13.694  13.199  22.674  0.1632 -0.0716  0.0275
57832W        W  770  14.710  12.964  24.092  0.1822  0.0661  0.0849
57833W        W  771  12.251  15.589  23.249  0.1944 -0.0310  0.2897
57834W        W  772  13.711  12.005  24.008 -0.2904  0.2778  0.0189
57835W        W  773  13.256  13.736  25.203 -0.0468 -0.3444 -0.0038
57836W        W  774  10.547  11.048  25.038  0.1520 -0.0296  0.2357
57837W        W  775  14.456  13.733  24.046  0.0219 -0.0439 -0.2019
57838W        W  776  13.772  14.441  24.297 -0.2898  0.0895  0.0237
57839W        W  777  13.408  11.179  23.416  0.0937  0.2269 -0.1109
57840W        W  778  11.891  13.321  23.862  0.2017 -0.1192  0.2593
57841W        W  779  11.019  13.085  23.954 -0.2421 -0.1235  0.0084
57842W        W  780  13.621  12.497  23.843 -0.2058  0.1176  0.0657
57843W        W  781  14.399  12.153  25.266 -0.1440  0.1664 -0.3010
57844W        W  782  11.847  14.347  22.832 -0.2229  0.2597 -0.3484
57845W        W  783  13.643  11.242  26.452  0.1342  0.0990  0.0392
57846W        W  784  12.842  14.389  26.193  0.0965 -0.1760 -0.1041
57847W        W  785  11.514  14.696  26.436  0.1179  0.0952  0.3539
57848W        W  786  10.712  14.072  23.556  0.1487 -0.0916  0.2244
57849W        W  787  13.850  13.217  26.215 -0.4115 -0.2237  0.0804
57850W        W  788  12.653  14.157  24.871 -0.1220 -0.0673  0.1753
57851W        W  789  11.018  15.026  23.729  0.1489  0.2000 -0.0034
57852W        W  790  13.990  14.020  24.515  0.0393 -0.0476 -0.1522
57853W        W  791  13.190  12.683  24.304  0.1798 -0.0448 -0.0071
57854W        W  792  13.314  15.485  23.493 -0.2323  0.2954  0.3705
57855W        W  793  13.171  11.672  24.788  0.0063  0.1589 -0.2165
57856W        W  794  13.974  10.085  22.810  0.0595 -0.1081  0.0014
57857W        W  795  15.166  11.450  24.278 -0.2384  0.2496  0.0540
57858W        W  796  11.438  13.561  26.134 -0.0719  0.1715  0.2550
57859W        W  797  10.625  12.254  23.642  0.0974 -0.1244 -0.4634
57860W        W  798  10.053  13.076  24.497  0.3054 -0.0914 -0.0547
57861W        W  799  11.099  14.084  24.904 -0.3999 -0.0385  0.2174
57862W        W  800  13.216  11.490  26.534 -0.0969 -0.1638 -0.0671
57863W        W  801  11.596  11.762  25.746 -0.1424 -0.2239 -0.0611
57864W        W  802  10.443  11.644  24.146  0.0955  0.0183  0.0583
57865W        W  803  12.474  12.008  23.923 -0.2867 -0.0864 -0.1887
57866W        W  804  14.247  13.549  22.310  0.0978 -0.2726 -0.1824
57867W        W  805  13.398  10.831  27.417 -0.3876 -0.2101  0.0784
57868W        W  806  10.872  10.447  24.611  0.2603  0.0840  0.2158
57869W        W  807  13.953  14.884  24.311  0.0700 -0.0504  0.2307
57870W        W  808  13.672  14.514  25.249  0.0459  0.3719  0.1011
57871W        W  809  11.399  12.141  24.257 -0.1282 -0.0432  0.4254
57872W        W  810  15.348  13.928  23.617 -0.1161  0.0365 -0.0968
57873W        W  811  10.625  13.688  23.054 -0.2244 -0.0781  0.2819
57874W        W  812  12.892  11.111  26.593 -0.2798  0.0835  0.2551
57875W        W  813  13.325  12.130  26.490  0.0976  0.1504 -0.0923
57876W        W  814   9.440  11.237  24.348 -0.2032  0.0747 -0.0063
57877W        W  815  14.111  11.823  26.535  0.0414  0.3770 -0.0750
57878W        W  816  13.203  14.048  24.824  0.0182 -0.1997 -0.0720
57879W        W  817  12.134  13.719  23.633  0.1826 -0.1716  0.1958
57880W        W  818  13.716  13.952  25.355  0.1650  0.0846 -0.0520
57881W        W  819  12.816  14.504  25.254 -0.2131  0.1832  0.0389
57882W        W  820  11.701  12.013  27.537 -0.0171 -0.0672  0.1233
57883W        W  821  13.888  12.612  24.655 -0.2003 -0.0956 -0.1064
57884W        W  822  14.698  13.118  25.978 -0.0560 -0.3349  0.1294
57885W        W  823  13.770  13.462  22.246 -0.0719 -0.0566 -0.0175
57886W        W  824  14.038  11.634  24.672  0.1175 -0.0147  0.2955
57887W        W  825  12.787  13.079  23.703  0.2037 -0.0503  0.3014
57888W        W  826  10.648   9.510  27.193  0.1987  0.0621  0.1313
57889W        W  827  11.684  13.255  25.760 -0.0469 -0.1451  0.1469
57890W        W  828  13.475  14.211  25.792 -0.2438 -0.2860  0.0422
57891W        W  829  12.132  10.051  24.805  0.1996 -0.1734  0.0208
57892W        W  830  14.272  11.809  23.910 -0.0309 -0.0491 -0.0502
57893W        W  831  14.662  12.897  23.019  0.1009 -0.2371 -0.1383
57894W        W  832  11.625  13.187  24.674 -0.1533 -0.4795 -0.2545
57895W        W  833  12.764  11.317  24.038  0.0644  0.2451 -0.2110
57896W        W  834  13.195  13.123  25.748  0.0918  0.1797  0.0403
57897W        W  835  11.736  13.803  24.519  0.1420  0.2012  0.2317
57898W        W  836  13.838  12.037  27.220 -0.2594 -0.2118 -0.1355
57899W        W  837  12.071  13.335  24.540  0.2165  0.0575  0.2841
57900W        W  838  14.683  12.245  22.120  0.1233 -0.0054  0.0775
57901W        W  839  13.398  14.731  25.636  0.1245  0.0442 -0.0544
57902W        W  840  15.592  15.450  27.658  0.0946 -0.0190  0.0254
57903W        W  841  11.454  13.831  25.202 -0.1500  0.0254 -0.1968
57904W        W  842  14.772  11.114  24.358 -0.1089 -0.1985 -0.0824
57905W        W  843  12.803  11.609  25.602  0.0672  0.2610 -0.1546
57906W        W  844  10.561  12.214  24.238 -0.2497  0.2968 -0.1927
57907W        W  845  12.352  11.466  26.172  0.0637 -0.2596 -0.2837
57908W        W  846  14.879  11.964  25.381 -0.3514  0.1520  0.1253
57909W        W  847  11.788  11.806  24.858 -0.1290  0.1201 -0.2374
57910W        W  848  12.224  11.196  23.091 -0.4105  0.1465  0.4215
57911W        W  849  13.340  13.850  23.931 -0.2029 -0.4445 -0.3206
57912W        W  850  13.496  13.090  24.565  0.1762 -0.2387 -0.1885
57913W        W  851  11.792  14.958  29.638 -0.0017  0.0531  0.3810
57914W        W  852  12.366  12.883  27.849 -0.1195  0.2420  0.2265
57915W        W  853  14.937  13.198  26.504  0.0483  0.1396  0.0974
57916W        W  854  15.314  13.866  25.628  0.0964 -0.0217 -0.2440
57917W        W  855  10.657  12.091  27.229  0.2548  0.0068 -0.2195
57918W        W  856  13.590  14.083  27.295 -0.1057  0.0499  0.0254
57919W        W  857  11.870  11.409  30.693  0.1000  0.1718 -0.3048
57920W        W  858  14.656  13.837  29.164 -0.0943  0.1232  0.2435
57921W        W  859  12.958  14.820  29.287 -0.4503 -0.0542 -0.1106
57922W        W  860  13.614  13.638  26.986 -0.3324 -0.0920  0.1594
57923W        W  861  12.235  12.166  29.953 -0.2822  0.0553 -0.1722
57924W        W  862  12.675  14.351  30.012  0.0092  0.0224 -0.1626
57925W        W  863  13.031  11.461  28.384 -0.1848  0.0477 -0.0057
57926W        W  864   9.479  11.225  28.968 -0.2627 -0.0396  0.2684
57927W        W  865  14.564  12.760  29.855 -0.0136  0.1232 -0.0401
57928W        W  866  11.900  11.507  28.768  0.0204 -0.1324 -0.1286
57929W        W  867  12.528  11.871  29.574  0.0197 -0.3104 -0.1800
57930W        W  868  13.207  12.408  27.900 -0.2959  0.0064 -0.1656
57931W        W  869  12.801  14.544  28.412 -0.0752 -0.3063 -0.2138
57932W        W  870  10.700  10.620  29.112  0.0091  0.0965 -0.0727
57933W        W  871  12.566  11.909  30.181 -0.0053  0.0501 -0.0202
57934W        W  872  12.589  13.919  26.276  0.2005  0.1461  0.0714
57935W        W  873  10.541  13.073  26.676  0.2404  0.1235  0.1226
57936W        W  874  11.056  12.974  27.546  0.1408  0.1261 -0.2545
57937W        W  875  13.167  13.596  30.020 -0.1301  0.3221 -0.1595
57938W        W  876  13.917  12.674  28.597  0.1044  0.3359 -0.3158
57939W        W  877  14.200  13.690  27.155 -0.0601  0.5058 -0.2077
57940W        W  878  14.360  12.781  26.886  0.0757  0.1825  0.2103
57941W        W  879  14.017  15.188  30.098 -0.1980  0.0685  0.1223
57942W        W  880  13.556  11.918  30.237  0.1124 -0.0430 -0.2922
57943W        W  881  13.229  13.273  29.036 -0.0385 -0.2550  0.0279
57944W        W  882  10.599  14.486  28.469  0.0350  0.1765  0.1352
57945W        W  883  11.610  14.683  27.595  0.0715  0.0116 -0.0961
57946W        W  884  14.667  14.706  25.600  0.1934 -0.3058  0.0070
57947W        W  885  14.121  14.207  29.038 -0.2467  0.1930  0.2340
57948W        W  886  13.879  16.253  30.151  0.2317 -0.1399  0.4425
57949W        W  887  11.560  13.875  25.722  0.1359 -0.0149  0.0642
57950W        W  888  12.749  14.191  30.542 -0.0898 -0.0270  0.2513
57951W        W  889  12.774  15.372  30.293 -0.0949  0.3652 -0.0183
57952W        W  890  13.734  12.395  30.270 -0.2872  0.6531  0.0167
57953W        W  891  14.517  13.867  28.677  0.1233  0.1224  0.0352
57954W        W  892  14.009  15.385  26.995 -0.0978  0.0443 -0.2153
57955W        W  893  14.359  14.178  27.313  0.1551  0.1199  0.1069
57956W        W  894  13.507  14.121  30.445  0.0115  0.2853  0.0739
57957W        W  895  12.345  13.192  28.280 -0.1012 -0.0957  0.2603
57958W        W  896  14.555  10.691  30.329  0.2924 -0.1005  0.0137
57959W        W  897  12.024  15.077  26.251  0.0900 -0.0699 -0.2804
57960W        W  898  13.679  11.746  27.644  0.0279  0.1231  0.3150
57961W        W  899  11.461  11.033  27.299 -0.1983 -0.2917  0.1706
57962W        W  900  13.914  12.843  27.896  0.0342 -0.0479  0.0591
57963W        W  901  12.452  11.820  28.078 -0.1763  0.0336  0.1117
57964W        W  902  12.217  14.068  28.153  0.0332 -0.3468  0.0038
57965W        W  903  11.537  10.852  28.638 -0.3983 -0.0369  0.0946
57966W        W  904  14.916  12.399  28.363  0.0036 -0.2869 -0.0724
57967W        W  905  12.763  11.909  27.043 -0.2466 -0.0638  0.1069
57968W        W  906  12.674  11.568  29.101  0.4632  0.1212 -0.1278
57969W        W  907  10.885  14.656  30.247 -0.4350 -0.0776 -0.1388
57970W        W  908  11.846  12.609  27.389  0.2318 -0.1395 -0.1088
57971W        W  909  14.976  14.187  26.239 -0.0158 -0.1032  0.0456
57972W        W  910  13.273  13.679  27.438  0.0791 -0.4199  0.1280
57973W        W  911  15.015  14.603  26.609  0.2500 -0.1768 -0.2766
57974W        W  912  11.515  11.594  28.070  0.0784  0.0434  0.1749
57975W        W  913  11.844  13.279  29.600 -0.1125 -0.1502 -0.0519
57976W        W  914  10.859  11.080  29.163 -0.0280 -0.1806  0.1895
57977W        W  915  11.151  12.102  27.580  0.0117  0.0895  0.3363
57978W        W  916  16.141  13.074  29.497 -0.0428  0.0057  0.0278
57979W        W  917  11.322  14.563  30.653  0.1815  0.2153  0.0870
57980W        W  918  15.004  10.999  27.859  0.0292  0.0603 -0.2167
57981W        W  919  13.914  12.299  29.349  0.1523 -0.1679  0.1457
57982W        W  920  13.583  13.805  28.611 -0.3010  0.2847 -0.1357
57983W        W  921  13.223  13.112  27.471 -0.4770 -0.0903 -0.0250
57984W        W  922  13.073  11.961  30.282  0.0045  0.0931 -0.2934
57985W        W  923  13.398  11.071  28.934  0.0246  0.4275  0.4737
57986W        W  924  11.778  11.904  26.720  0.3020  0.0196 -0.0874
57987W        W  925  13.521  13.255  26.606 -0.0882  0.0450  0.1968
57988W        W  926  14.919  12.795  30.645 -0.1320  0.1519  0.0484
57989W        W  927  13.191  11.393  27.547  0.2996 -0.2721  0.0030
57990W        W  928  11.909  13.827  28.719 -0.0890  0.1615  0.2321
57991W        W  929  13.162  11.775  31.382 -0.2215 -0.0318 -0.0230
57992W        W  930  13.757  15.856  29.284 -0.0690  0.1048  0.2858
57993W        W  931  12.379  13.831  26.767  0.1352  0.0871  0.0830
57994W        W  932  11.917  13.561  28.268 -0.0222 -0.0279  0.1477
57995W        W  933  10.397  12.686  26.177  0.1494  0.0104 -0.4501
57996W        W  934  11.858  12.046  28.787  0.2354 -0.2318  0.0162
57997W        W  935  11.419  13.677  29.210 -0.0880 -0.2888  0.0782
57998W        W  936  14.191  11.929  27.661  0.0538  0.2296  0.0035
57999W        W  937  10.198  10.607  29.716 -0.1218 -0.0208  0.2518
58000W        W  938  13.441  10.975  29.469  0.0894  0.1507  0.3299
58001W        W  939  12.075  13.496  27.101  0.1827 -0.1374  0.0927
58002W        W  940  15.305  14.360  28.914 -0.0991  0.0584 -0.1400
58003W        W  941  14.605  11.073  27.509  0.2938 -0.2771 -0.1832
58004W        W  942  14.303  13.938  26.657  0.0692  0.0099  0.0516
58005W        W  943  12.732  13.451  28.733  0.3104 -0.0282 -0.0632
58006W        W  944  12.930  12.071  28.266  0.1279  0.1799  0.2438
58007W        W  945  12.067  12.456  29.010 -0.2416 -0.2664  0.0139
58008W        W  946  11.575  11.178  28.991 -0.1138  0.1708  0.0242
58009W        W  947  13.198  11.717  30.787  0.1456 -0.0827  0.3078
58010W        W  948  11.975  11.713  28.330  0.3189 -0.1206  0.1303
58011W        W  949  12.842  12.778  27.820  0.1296  0.1006  0.0124
58012W        W  950  13.296  13.373  27.898  0.0609  0.0157  0.1592
58013W        W  951  12.807  13.227  28.103  0.3410 -0.2245 -0.0489
58014W        W  952  15.678  11.466  30.963 -0.2278  0.0158 -0.0199
58015W        W  953  13.794  13.670  27.486  0.3541 -0.0936 -0.1122
58016W        W  954  13.409  14.323  29.331 -0.1219 -0.0720  0.0090
58017W        W  955  14.262  15.043  27.956  0.1337 -0.0110  0.0035
58018W        W  956  12.230  11.996  31.667  0.0177  0.1254  0.1844
58019W        W  957  11.895  11.433  26.908  0.4402 -0.2714 -0.0031
58020W        W  958  11.706  13.989  28.249  0.1685  0.0700  0.2262
58021W        W  959  13.589  15.701  26.998 -0.1105 -0.0586  0.2100
58022W        W  960  13.026  11.382  27.005  0.1757 -0.1783  0.1185
58023W        W  961  15.353  13.908  28.685 -0.3234 -0.1574 -0.1407
58024W        W  962  14.831  12.946  26.938 -0.0046  0.0733 -0.3665
58025W        W  963  12.333  13.032  29.726 -0.2479 -0.2310 -0.0456
58026W        W  964  14.305  11.535  29.958  0.2024 -0.2361 -0.0653
58027W        W  965  13.993  13.649  28.970  0.0172  0.2005  0.2213
58028W        W  966  13.128  12.501  28.472 -0.1656 -0.0330 -0.0658
58029W        W  967  13.508  11.933  28.047 -0.0771  0.5141 -0.2150
58030W        W  968  13.194  14.724  28.114  0.2162  0.4254  0.1812
58031W        W  969  11.066  14.825  26.616  0.1875  0.0165 -0.0006
58032W        W  970  11.147  13.749  27.417  0.0285  0.0569  0.0593
58033W        W  971  13.329  14.255  26.520  0.1634  0.2222 -0.3920
58034W        W  972  12.905  12.343  29.463  0.0909 -0.0253  0.0712
58035W        W  973  12.186  11.421  29.879 -0.3686 -0.1342  0.1017
58036W        W  974  14.618  12.325  28.943  0.1807 -0.1243 -0.0341
58037W        W  975  11.917  12.752  27.865 -0.1147 -0.1625  0.0149
58038W        W  976  12.437  12.471  29.541  0.0533  0.3454 -0.1429
58039W        W  977  12.652  10.416  27.360  0.2091 -0.1024  0.2345
58040W        W  978  15.237  12.458  26.610  0.1295 -0.1882 -0.0011
58041W        W  979  13.380  12.142  30.643 -0.2557 -0.0031 -0.2939
58042W        W  980  15.869  14.707  26.211  0.1935 -0.0528 -0.1319
58043W        W  981  13.677  11.278  25.866  0.2888  0.2882  0.0816
58044W        W  982  15.360  10.812  26.561  0.0889  0.0050  0.1569
58045W        W  983  12.296  13.900  30.220  0.0910  0.3553 -0.0444
58046W        W  984  14.347  15.616  27.401 -0.2182  0.1355  0.0561
58047W        W  985  13.710  15.089  29.414  0.0431  0.0563  0.0570
58048W        W  986  13.180  10.692  26.765  0.0587  0.4426  0.0576
58049W        W  987  14.946  15.156  25.977 -0.3994  0.0320 -0.2508
58050W        W  988  12.376  12.926  28.777 -0.2002  0.3479  0.2765
58051W        W  989  14.070  12.891  29.966  0.0530  0.2681 -0.2502
58052W        W  990  14.160  13.075  27.495 -0.0419  0.0781  0.0345
58053W        W  991  12.652  11.418  30.070  0.1320  0.0255 -0.1683
58054W        W  992  11.311  11.348  27.665 -0.1438 -0.0667  0.0334
58055W        W  993  13.720  11.548  28.417 -0.0422 -0.2503  0.2552
58056W        W  994  11.199  14.344  26.440 -0.1501 -0.1261 -0.0691
58057W        W  995  12.835  11.844  28.706 -0.1468  0.1519  0.4208
58058W        W  996  13.099  10.577  29.081  0.0347  0.0243 -0.0160
58059W        W  997  14.024  11.093  30.344 -0.1191 -0.0971 -0.1708
58060W        W  998  14.784  12.815  31.130 -0.0479 -0.0158 -0.2121
58061W        W  999  14.152  11.754  28.712 -0.2097  0.1541  0.0401
58062W        W 1000  13.636  13.179  29.731 -0.1373  0.0536  0.0478
58063W        W 1001  14.262  14.692  27.586 -0.0161 -0.3858 -0.0127
58064W        W 1002  11.925  10.648  30.332 -0.1570 -0.0635  0.2590
58065W        W 1003  12.369  11.356  28.596  0.1507  0.2182  0.2652
58066W        W 1004  12.407  13.819  28.939  0.0258  0.1669  0.0542
58067W        W 1005  14.110  14.111  29.776  0.0782  0.0612  0.1002
58068W        W 1006  14.482  13.267  27.143 -0.1172  0.1716 -0.0872
58069W        W 1007  13.532  10.908  30.433 -0.0003  0.0174  0.1313
58070W        W 1008  13.857  10.849  28.843  0.1165 -0.1930 -0.1082
58071W        W 1009  13.029  14.433  26.997 -0.2134 -0.0532 -0.1827
58072W        W 1010  14.737  14.342  26.945 -0.1025 -0.2179  0.0524
58073W        W 1011  12.709  12.658  30.456 -0.2167 -0.0418 -0.0542
58074W        W 1012  13.044  14.393  29.611 -0.1702  0.1662 -0.1577
58075W        W 1013  12.408  12.842  27.332 -0.1028 -0.1042  0.0470
58076W        W 1014  13.654  13.483  29.306 -0.2892 -0.3176  0.0981
58077W        W 1015  12.136  14.046  27.244 -0.0515  0.0167 -0.0163
58078W        W 1016  14.049  10.577  30.050  0.2589  0.0008 -0.0830
58079W        W 1017  12.478  14.106  27.687 -0.0880  0.0020  0.0643
58080W        W 1018  12.022  12.143  27.153 -0.1932 -0.1012 -0.2421
58081W        W 1019  10.693  13.796  27.226 -0.0044 -0.0580  0.0263
58082W        W 1020  13.486  11.442  29.329  0.1273  0.2791  0.0567
58083W        W 1021  15.350  12.785  26.943  0.0471 -0.1579 -0.1658
58084W        W 1022  11.787  11.691  29.228  0.4075  0.1936 -0.0098
58085W        W 1023  12.167  10.942  29.346  0.1952 -0.1683 -0.0868
58086W        W 1024  11.323  14.088  30.534 -0.0567  0.1698 -0.3517
58087W        W 1025  13.555  12.377  28.840 -0.4331 -0.2412  0.0614
58088W        W 1026  14.203  11.425  27.466  0.2499 -0.2349  0.1812
58089W        W 1027  14.739  12.275  29.733  0.1928 -0.0793  0.0323
58090W        W 1028  11.906  11.809  31.230  0.1163 -0.0875 -0.0412
58091W        W 1029  12.221  12.352  27.591  0.0964  0.0014 -0.0148
58092W        W 1030  14.325  11.368  29.184  0.4212  0.1503 -0.0046
58093W        W 1031  12.708  12.775  28.327  0.0894  0.0246  0.4015
58094W        W 1032  11.249  12.704  29.011 -0.3742  0.0240 -0.3486
58095W        W 1033  14.675  13.850  27.083  0.3046  0.0218 -0.1212
58096W        W 1034  12.893  12.399  26.953 -0.1066 -0.0140 -0.1328
58097W        W 1035  11.163  13.264  26.401  0.2068 -0.0109  0.1403
58098W        W 1036  14.390  11.047  30.699  0.0907  0.0936  0.3399
58099W        W 1037  13.633  13.328  28.814 -0.0442 -0.2087 -0.2037
58100W        W 1038  12.620  12.082  29.119  0.1787 -0.2161  0.0792
58101W        W 1039  13.116  12.068  29.030  0.2135  0.0735 -0.0617
58102W        W 1040  13.782  12.791  29.110 -0.0659 -0.0190  0.1535
58103W        W 1041  13.436  12.860  27.846 -0.2902 -0.2455  0.2592
58104W        W 1042  13.096  12.524  28.993 -0.0729  0.2747  0.0314
58105W        W 1043  12.134  12.913  30.465 -0.1813 -0.1252  0.0066
58106W        W 1044  11.246  11.036  29.470  0.1698 -0.0795 -0.1471
58107W        W 1045  14.321  16.466  27.546 -0.0571 -0.2036 -0.1158
58108W        W 1046  13.634  12.915  30.198  0.1920 -0.0603 -0.1075
58109W        W 1047  14.125  14.433  26.932 -0.0148  0.0618  0.2126
58110W        W 1048  12.378  13.584  27.464  0.3429  0.1076 -0.1893
58111W        W 1049  13.303  13.895  28.159  0.1829 -0.0581  0.0232
58112W        W 1050  12.725  13.583  30.225 -0.1508  0.2067  0.1272
58113W        W 1051  11.438  13.518  29.789  0.0609  0.0098  0.3382
58114W        W 1052  12.692  12.928  26.721  0.0599  0.2217 -0.1995
58115W        W 1053  11.113  14.329  28.845  0.3856  0.2588 -0.1520
58116W        W 1054  14.705  12.003  28.021  0.0628 -0.1410  0.0110
58117W        W 1055  13.182  13.957  26.162 -0.0216  0.2817 -0.3339
58118W        W 1056  13.228   9.951  30.302  0.0456  0.2420  0.3633
58119W        W 1057  15.060  12.697  29.691  0.0519  0.0906 -0.0441
58120W        W 1058  13.471  11.061  26.973  0.1206  0.1754  0.0425
58121W        W 1059  14.023  11.535   0.406  0.0350 -0.0119  0.0409
58122W        W 1060  12.447  10.301  29.164  0.0573  0.0560  0.0050
58123W        W 1061  14.443  12.383  27.926 -0.0150 -0.1586  0.0326
58124W        W 1062  10.819  12.503  28.979  0.0617 -0.0873  0.1261
58125W        W 1063  13.896  14.521  29.313 -0.1710 -0.0739  0.2312
58126W        W 1064  13.096  11.747  29.430 -0.0685 -0.1092  0.0745
58127W        W 1065  12.585  10.821  27.036 -0.1774 -0.0982 -0.1029
58128W        W 1066  12.717  10.813  28.314 -0.0971 -0.1210 -0.2374
58129W        W 1067  12.600  12.402  28.614 -0.2208  0.2524 -0.1368
58130W        W 1068  13.550  12.397  28.250  0.0874 -0.1031  0.1195
58131W        W 1069  13.284  12.812  26.885 -0.1320  0.0728 -0.0538
58132W        W 1070  13.965  12.268  28.051  0.2291 -0.0196 -0.0684
58133W        W 1071  11.857  12.888  28.842 -0.3565 -0.2999  0.3396
58134W        W 1072  14.847  12.807  27.884 -0.0956  0.0020 -0.1566
58135W        W 1073  13.952  12.690  26.043 -0.0245  0.0208  0.2526
58136W        W 1074  12.497  13.783  25.708 -0.1859  0.0743 -0.1583
58137W        W 1075  12.292  11.787  28.842 -0.1271 -0.0351 -0.2234
58138W        W 1076  13.637  13.219  28.326 -0.3120 -0.0003  0.2129
58139W        W 1077  13.741  13.641  28.048 -0.3844 -0.1195 -0.0111
58140W        W 1078  15.038  11.264  28.347  0.0006 -0.0935  0.3061
58141W        W 1079  13.497  12.985  30.800 -0.3034 -0.0813  0.1553
58142W        W 1080  13.998  12.383  30.716 -0.0521  0.0201 -0.1966
58143W        W 1081  12.050  12.145  29.489 -0.0036 -0.1349  0.0959
58144W        W 1082  12.370  14.878  28.355  0.1211 -0.0690  0.0438
58145W        W 1083  15.053  11.893  26.548  0.0450  0.0736  0.1347
58146W        W 1084  11.928  10.958  29.839 -0.2565  0.1129  0.4964
58147W        W 1085  14.873  13.134  28.400 -0.3832 -0.0780  0.1002
58148W        W 1086  12.865  12.115  26.544  0.0315  0.2770  0.4590
58149W        W 1087  12.726  12.101  27.642 -0.4079  0.2015  0.3638
58150W        W 1088  13.859  10.497  31.839 -0.1857  0.1583 -0.0612
58151W        W 1089  11.382  11.534  27.218 -0.0975  0.0679 -0.1042
58152W        W 1090  13.046  10.905  30.095 -0.0381  0.0790 -0.1364
58153W        W 1091  12.626  15.041  27.927 -0.2365 -0.0455 -0.2782
58154W        W 1092  13.187  12.946  28.238  0.2869  0.2016  0.1935
58155W        W 1093  12.915  11.888  29.856  0.3168 -0.0563  0.2081
58156W        W 1094  10.856  11.371  28.764  0.1399 -0.2539 -0.2020
58157W        W 1095  13.442  14.728  29.571 -0.0861 -0.4133 -0.0104
58158W        W 1096  11.345  11.604  26.676  0.0670 -0.1225  0.3654
58159W        W 1097  12.137  12.591  26.892  0.5065 -0.3520  0.1054
58160W        W 1098  12.014  14.521  29.472 -0.2441  0.0002 -0.2717
58161W        W 1099  13.324  12.223  29.789  0.1620 -0.0722 -0.2455
58162W        W 1100  13.890  12.041  28.452  0.2949  0.0642 -0.0989
58163W        W 1101  15.197  11.248  30.632 -0.0339  0.0133 -0.0491
58164W        W 1102  10.360  14.053  29.239  0.1706  0.1022 -0.0130
58165W        W 1103  13.682  11.046  28.425 -0.0645 -0.1035  0.2408
58166W        W 1104  12.780  13.368  29.690  0.0191  0.3045  0.0041
58167W        W 1105  12.236  12.147  28.420  0.1813  0.2977  0.2876
58168W        W 1106  12.319  13.685  28.484  0.0350 -0.2125  0.1366
58169W        W 1107  12.952  10.357  29.926  0.0451 -0.4132  0.0648
58170W        W 1108  14.067  11.807  29.269 -0.1303 -0.1882 -0.1833
58171W        W 1109  13.615  12.314  27.638  0.3324 -0.2318 -0.2032
58172W        W 1110  14.138  12.706  29.472  0.3272 -0.1706 -0.1324
58173W        W 1111  13.308  15.256  29.161  0.0875  0.0124  0.1007
58174W        W 1112  13.117  13.059  30.001  0.0010 -0.3327  0.1726
58175W        W 1113  13.799  14.047  29.349 -0.0036  0.0665  0.0626
58176W        W 1114  15.213  13.146  27.481  0.1758 -0.0828 -0.1403
58177W        W 1115  14.654  14.616  27.938 -0.2091 -0.2845 -0.4183
58178W        W 1116  10.773  12.881  31.374 -0.0008 -0.0102  0.1528
58179W        W 1117  13.551  11.177  29.945  0.0015  0.0552 -0.1500
58180W        W 1118  15.321  14.084  26.575  0.1539  0.2077  0.0914
58181W        W 1119  12.861  11.029  28.803 -0.0779  0.0031 -0.2022
58182W        W 1120  14.086  14.619  26.472  0.0312 -0.1638  0.1025
58183W        W 1121  10.981  15.363  29.626 -0.0427  0.2997  0.2269
58184W        W 1122  12.272  13.540  29.464  0.2453 -0.2304  0.1413
58185W        W 1123  11.503  15.576  28.838 -0.0177  0.0922 -0.0403
58186W        W 1124  14.061  13.505  25.315 -0.1141  0.0342 -0.0304
58187W        W 1125  13.507  14.091  27.810  0.0664 -0.0098 -0.0432
58188W        W 1126  15.450  16.560  27.593  0.2135 -0.0654 -0.2267
58189W        W 1127  12.494  12.278  27.185 -0.0339 -0.1599 -0.5305
58190W        W 1128  12.365  12.635  30.020  0.2865  0.2719  0.3042
58191W        W 1129  10.835  12.959  26.259  0.0671  0.0356  0.0569
58192W        W 1130  14.471  14.306  28.431 -0.1125 -0.0550  0.5497
58193W        W 1131  11.241  14.159  28.373 -0.0256 -0.1104  0.2056
58194W        W 1132  13.706  14.250  28.261 -0.2530 -0.3375 -0.2980
58195W        W 1133  15.899  10.412  26.504 -0.0856 -0.2688 -0.0052
58196W        W 1134  14.421  13.427  29.087  0.0670 -0.0950  0.1756
58197W        W 1135  15.523  11.359  27.949  0.3751  0.0571 -0.3751
58198W        W 1136  12.874  13.605  29.191 -0.0748  0.4675 -0.0062
58199W        W 1137  13.236  13.887  29.557  0.0284 -0.5707  0.2616
58200W        W 1138  13.329  11.918  28.498 -0.0886 -0.3959 -0.0395
58201W        W 1139  13.336  12.718  29.690 -0.0324  0.0206 -0.1552
58202W        W 1140  14.668  10.799  29.870 -0.0284 -0.1089  0.2368
58203W        W 1141  11.473  13.228  28.958  0.3595  0.1531  0.1376
58204W        W 1142  14.806  14.501  27.395 -0.2001  0.0634 -0.0133
58205W        W 1143  11.525  12.081  28.425 -0.1656  0.2347  0.4824
58206W        W 1144  13.180  13.401  28.451  0.0960  0.0528 -0.0731
58207W        W 1145  15.312  10.397  30.810  0.0710 -0.1169 -0.1088
58208W        W 1146  13.873  14.940  26.719  0.1854  0.3256  0.4534
58209W        W 1147  12.573  10.435  29.603  0.0944  0.1506  0.2809
58210W        W 1148  11.795  14.828  28.389 -0.1035  0.0188 -0.2155
58211W        W 1149  12.615  13.163  29.218  0.2162  0.2318 -0.1267
58212W        W 1150  11.466  14.585  29.569 -0.0569 -0.1461 -0.2976
58213W        W 1151  10.932  11.330  26.466 -0.1232  0.0729 -0.0913
58214W        W 1152  14.470  12.742  28.529  0.0971 -0.0899 -0.1746
58215W        W 1153  11.100  11.029  28.141  0.3718  0.0479  0.1700
58216W        W 1154  14.072  12.011  30.232 -0.1256  0.0483 -0.2363
58217W        W 1155  14.090  13.207  29.433 -0.0898 -0.1576  0.2003
58218W        W 1156  15.008  12.377  27.840 -0.1808  0.2062 -0.1129
58219W        W 1157  14.216  12.269  29.808 -0.0466  0.0514 -0.0906
58220W        W 1158  12.458  12.347  28.057  0.0785  0.1119 -0.0815
58221W        W 1159  13.448  12.394  27.167 -0.0018  0.0011 -0.2817
58222W        W 1160  14.936  11.877  31.544 -0.0690 -0.2474  0.1528
58223W        W 1161  13.646  12.801  27.424 -0.0917  0.2662 -0.1542
58224W        W 1162  13.220  13.372  29.502  0.1098  0.0022  0.1333
58225W        W 1163  12.060  11.497  27.873  0.1598  0.1930  0.2140
58226W        W 1164  14.071  10.334  27.969 -0.0223  0.0955  0.0921
58227W        W 1165  11.586  13.545  26.835  0.0009 -0.0726 -0.3115
58228W        W 1166  12.752  12.357  29.987 -0.1081 -0.0827  0.2387
58229W        W 1167  13.454  14.785  29.061 -0.3506  0.0736 -0.0498
58230W        W 1168  12.044  10.018  29.022  0.2009  0.0635  0.1696
58231W        W 1169  15.752  15.197  25.783  0.2394 -0.2221 -0.1481
58232W        W 1170  14.582  13.111  29.438  0.0937 -0.0110 -0.1826
58233W        W 1171  11.868  14.500  26.057  0.0042 -0.3344  0.0353
58234W        W 1172  13.919  12.217  26.771  0.0893 -0.1750 -0.0701
58235W        W 1173  15.051  15.135  28.001 -0.1254  0.0708  0.2700
58236W        W 1174  11.435  11.691  28.857 -0.0159  0.1216 -0.0930
58237W        W 1175  13.048  13.933  28.737 -0.0996  0.0261 -0.2570
58238W        W 1176  14.005  14.034  28.618 -0.1764  0.0336  0.0905
58239W        W 1177  13.763   9.599  27.136  0.1174 -0.0535  0.0581
58240W        W 1178  12.004  13.099  27.378 -0.0160 -0.2661  0.1871
58241W        W 1179  12.013  14.587  27.977 -0.0009  0.3681 -0.0143
58242W        W 1180  14.988  13.769  28.335  0.1961 -0.1175 -0.0308
58243W        W 1181  16.063  11.042  29.893  0.0797 -0.0566 -0.0086
58244W        W 1182  13.280  14.589  26.114  0.2229  0.0885  0.0187
58245W        W 1183  13.748  11.661   0.008 -0.0166 -0.1644 -0.0098
58246W        W 1184  12.271  13.438  29.974 -0.0426  0.0137 -0.3143
58247W        W 1185  11.976  14.324  29.912 -0.1647 -0.1459 -0.0717
58248W        W 1186  12.584  14.309  27.166  0.3385  0.0555  0.1315
58249W        W 1187  13.062  13.845  30.451  0.0176 -0.0379  0.1543
58250W        W 1188  12.870  14.612  27.693  0.2424 -0.1193  0.1933
58251W        W 1189  12.655  15.321  25.847  0.0844  0.0149  0.2489
58252W        W 1190  14.597  14.307  26.460  0.0716 -0.0743  0.2473
58253W        W 1191  13.230  11.935  27.478 -0.4736  0.0320 -0.0576
58254W        W 1192  13.703  13.204  27.636  0.0469 -0.2945 -0.1366
58255W        W 1193  13.771  12.504  29.773 -0.2388  0.1073  0.2080
58256W        W 1194  14.085  13.084  28.275  0.0553 -0.1208 -0.4573
58257W        W 1195  14.225  11.789  28.165 -0.3158  0.2506 -0.1740
58258W        W 1196  12.789  12.821  29.653  0.1918  0.2995  0.1604
58259W        W 1197  11.405  12.813  26.529  0.0939 -0.4014  0.3262
58260W        W 1198  12.537  13.235  26.158  0.3547  0.3459 -0.2349
58261W        W 1199  13.447  12.864  28.737  0.0915 -0.1081 -0.0209
58262W        W 1200  11.204  10.716   0.066 -0.2601  0.1289 -0.2409
58263W        W 1201  11.936  12.745  30.911  0.2944 -0.0170 -0.1742
58264W        W 1202  12.611  12.631  29.102  0.0330 -0.1371  0.0370
58265W        W 1203  11.360  10.580  28.142 -0.1403 -0.0007 -0.0929
58266W        W 1204  14.565  13.469  26.680 -0.2270 -0.2340  0.3332
58267W        W 1205  12.265   9.880  28.306  0.0176  0.2357  0.0620
58268W        W 1206  10.752  11.550  30.076  0.1822 -0.0769 -0.0032
58269W        W 1207  14.664  14.996  27.483  0.2138  0.3584  0.0570
58270W        W 1208  13.759  14.098  26.772 -0.1646 -0.3451 -0.1620
58271W        W 1209  13.037  12.436  27.420 -0.3541  0.2680  0.0416
58272W        W 1210  15.239  12.320  30.064 -0.1521 -0.3069  0.1489
58273W        W 1211  11.964  14.015  27.739 -0.0249  0.2962 -0.3243
58274W        W 1212  15.049  10.939  30.166 -0.3781  0.0318  0.5371
58275W        W 1213  13.239  11.482  30.244 -0.0607 -0.0861 -0.1739
58276W        W 1214  12.236  11.528  29.270  0.0456 -0.0570  0.3968
58277W        W 1215  11.319  11.270  28.508 -0.2401  0.0302 -0.2480
58278W        W 1216  13.827  14.799  27.266 -0.0057  0.2276 -0.2405
58279W        W 1217  13.855  14.405  27.620 -0.2089 -0.0417  0.0207
58280W        W 1218  13.075  12.909  29.280 -0.1098  0.0213  0.0774
58281W        W 1219  12.921  14.218  28.033 -0.5526  0.1422 -0.0448
58282W        W 1220  12.134  10.759  31.273  0.0127  0.1132  0.3107
58283W        W 1221  14.237  12.389  26.453  0.2228 -0.2477  0.1732
58284W        W 1222  12.885  12.950  28.796 -0.1014  0.3462  0.1783
58285W        W 1223  14.777  13.581  26.241 -0.0835 -0.1271  0.0950
58286W        W 1224  14.823  11.544  30.020  0.2919  0.2300  0.0896
58287W        W 1225  14.122  13.295  26.810  0.1461 -0.0819  0.0294
58288W        W 1226  12.914  10.879  31.013 -0.1853 -0.0197  0.0495
58289W        W 1227  11.839  13.471  29.157 -0.2065 -0.2115  0.1827
58290W        W 1228  14.720  13.190  27.561  0.4208  0.1481 -0.1379
58291W        W 1229  11.736  10.458  28.938  0.1194  0.1810 -0.2047
58292W        W 1230  14.507  11.138  28.102  0.0074 -0.1148 -0.0047
58293W        W 1231  13.746  14.263  26.220  0.1025 -0.4127 -0.0412
58294W        W 1232  13.114  14.202  27.470 -0.0832 -0.2587  0.0642
58295W        W 1233  13.706  10.813  27.899 -0.0412  0.1613 -0.1619
58296W        W 1234  12.745  11.687  31.083 -0.0753 -0.2211  0.0598
58297W        W 1235  14.257  15.848  27.835  0.3175  0.2317 -0.0829
58298W        W 1236  14.579  12.901  30.335 -0.0277  0.1873 -0.2036
58299W        W 1237  12.622  10.943  29.267 -0.0358 -0.0746  0.1053
58300W        W 1238  15.026  13.454  25.754 -0.2678 -0.1314 -0.2602
58301W        W 1239  15.202  14.650  27.960 -0.0886 -0.0956 -0.0064
58302W        W 1240  14.348  14.505  31.342 -0.1485  0.1320 -0.2568
58303W        W 1241  13.592  14.777  28.410  0.1626  0.3899  0.0201
58304W        W 1242  14.400  12.202  28.484  0.0939 -0.4433 -0.2070
58305W        W 1243  11.087  11.528  29.158  0.1974  0.1564 -0.3940
58306W        W 1244  13.019  13.190  26.429 -0.0579  0.1810 -0.2518
58307W        W 1245  12.810  13.747  28.290 -0.0562 -0.1683 -0.0996
58308W        W 1246  14.638  11.592  28.439  0.2288 -0.0424  0.1290
58309W        W 1247  10.738  11.297  29.577 -0.1904  0.1829 -0.1964
58310W        W 1248  13.162  10.424  27.221 -0.0395  0.1574 -0.0890
58311W        W 1249  13.180  14.854  28.697  0.3180 -0.0001 -0.0987
58312W        W 1250  13.404  13.855  29.077 -0.0313 -0.2289  0.0358
58313W        W 1251  14.594  11.993  30.120  0.0704  0.1206 -0.0326
58314W        W 1252  13.233  11.760  31.902 -0.0446 -0.0670 -0.0126
58315W        W 1253  12.447  11.954  30.730  0.0879  0.4489  0.3242
58316W        W 1254  11.182  12.545  31.492  0.0038 -0.0791 -0.2894
58317W        W 1255  13.578  14.227  29.879  0.3450  0.0312  0.0741
58318W        W 1256  13.014  14.447  30.889  0.1121 -0.0465 -0.0937
58319W        W 1257  13.496  11.392  31.608 -0.3020  0.1825 -0.0342
58320W        W 1258  11.836  12.492  30.224 -0.1383 -0.4161 -0.1608
58321W        W 1259  12.453  11.152  31.374  0.4658  0.1137  0.2020
58322W        W 1260  14.853  13.426  31.377 -0.4380  0.1040  0.1104
58323W        W 1261  12.258  13.074  31.106  0.3817 -0.3014 -0.0599
58324W        W 1262  12.268  11.587  30.431  0.0822 -0.0310 -0.0244
58325W        W 1263  12.281  12.353  30.413  0.1384  0.0590 -0.3465
58326W        W 1264  11.771  13.445  30.146 -0.0734  0.1247  0.2793
58327W        W 1265  15.597  12.629  29.884 -0.0865 -0.1286 -0.0175
58328W        W 1266  11.007  14.513  29.764 -0.3801  0.3870  0.1676
58329W        W 1267  11.502  12.065  31.343 -0.3257 -0.1680  0.3689
58330W        W 1268  13.755  13.587  30.971  0.1520  0.0131  0.0722
58331W        W 1269  11.540  11.488  31.346 -0.1231  0.0911  0.3162
58332W        W 1270   9.607  10.319  31.068  0.1068  0.0789 -0.1604
58333W        W 1271  11.473  11.127  31.885  0.0198 -0.1023  0.0470
58334W        W 1272  10.533  14.996  30.404 -0.3169 -0.2108  0.1208
58335W        W 1273  14.962  11.728  30.980 -0.2131  0.2394 -0.3164
58336W        W 1274  12.774  11.523  30.544 -0.0378  0.5197 -0.1602
58337W        W 1275  14.782  11.139  31.034  0.3579  0.3409 -0.2449
58338W        W 1276  12.597  11.615  31.649  0.4549  0.0287  0.3022
58339W        W 1277  11.641  11.739  31.776  0.3419 -0.0980  0.2815
58340W        W 1278  10.930  14.937  28.871 -0.0228  0.1264  0.0098
58341W        W 1279  11.826  11.927  30.285  0.0232  0.0687 -0.3820
58342W        W 1280  12.457  13.507  31.126  0.0737 -0.0410 -0.0252
58343W        W 1281  13.090  15.227  29.672 -0.2404 -0.2096 -0.0169
58344W        W 1282  12.458  12.061  31.238 -0.6277  0.0279 -0.0198
58345W        W 1283  13.817  11.963  29.785 -0.1041  0.0959  0.1163
58346W        W 1284  15.415  10.755  30.411 -0.0773  0.1761  0.1000
58347W        W 1285  11.065  11.725  30.861 -0.0274 -0.1166  0.1190
58348W        W 1286  10.984  11.853  30.391 -0.1714 -0.2699  0.0745
58349W        W 1287  11.521  13.445  31.061 -0.1588 -0.4121  0.0494
58350W        W 1288  13.045  13.020  30.513 -0.0413 -0.2414  0.0287
58351W        W 1289  13.840  11.522  30.171  0.0440  0.0436 -0.1310
58352W        W 1290  13.377  12.142  31.159  0.1350  0.1408  0.1629
58353W        W 1291  14.954  10.670  31.173 -0.5964  0.0918  0.2946
58354W        W 1292  13.300  12.220  31.653  0.1844 -0.0581 -0.2674
58355W        W 1293  12.983  11.224  31.608 -0.1928  0.1059 -0.3146
58356W        W 1294  13.975  13.929  30.627  0.1055 -0.0504  0.0726
58357W        W 1295  11.562  12.524  31.161 -0.3169  0.5019 -0.1685
58358W        W 1296  13.218  12.603  30.150  0.0700  0.2243 -0.0187
58359W        W 1297  12.186  10.615  30.738 -0.4373  0.1196 -0.1011
58360W        W 1298  13.944  14.297  30.192 -0.1535 -0.0188 -0.1371
58361W        W 1299  15.617  14.621  29.192  0.3277 -0.0260  0.0413
58362W        W 1300  12.287  14.449  30.335 -0.1460  0.0189 -0.2749
58363W        W 1301  15.431  13.134  29.866 -0.2596 -0.1858 -0.3484
58364W        W 1302  15.041   9.944  31.464  0.1704 -0.2790  0.1963
58365W        W 1303  12.977   9.917  29.686 -0.4632  0.3259  0.0753
58366W        W 1304  13.570  15.276  29.917 -0.0486 -0.1019  0.2465
58367W        W 1305  12.600  13.010  30.783  0.1006 -0.1280 -0.1201
58368W        W 1306  12.296  11.068  30.311  0.0554  0.1395  0.2243
58369W        W 1307  13.978  13.130  30.976  0.1179  0.3214 -0.1163
58370W        W 1308  12.242  14.935  29.271 -0.0785  0.2156  0.2407
58371W        W 1309  14.049  13.372  29.951 -0.1103 -0.1075  0.2679
58372W        W 1310  11.362  12.888  28.579 -0.0822 -0.1614  0.0819
58373W        W 1311  10.679  11.591   0.259 -0.0452  0.0064 -0.0476
58374W        W 1312  12.796  15.277  29.122  0.1326 -0.2276 -0.2074
58375W        W 1313  11.438  13.806  30.166  0.0697  0.0551 -0.0885
58376W        W 1314  10.970   9.871  30.837 -0.1729  0.1225 -0.1044
58377W        W 1315  14.385  15.475  29.287  0.0400 -0.2180  0.3053
58378W        W 1316  14.575  12.095  31.120 -0.0843  0.2154 -0.0808
58379W        W 1317  13.201  12.645  31.336  0.0786  0.0192 -0.0503
58380W        W 1318  11.433  15.645  18.864  0.1036 -0.3936 -0.0296
58381W        W 1319  11.097  14.995  15.992 -0.2218 -0.3140 -0.0589
58382W        W 1320  13.350  15.191  14.301 -0.0962 -0.0885  0.1030
58383W        W 1321  13.601  15.723  15.873 -0.0486 -0.1725  0.0622
58384W        W 1322   9.648  13.417  17.212 -0.3556  0.4535  0.0561
58385W        W 1323  13.376  16.571  16.384  0.2632  0.1894  0.2637
58386W        W 1324  10.620  13.197  18.062 -0.1848  0.1079 -0.0512
58387W        W 1325  13.198  17.262  16.175 -0.1565  0.1834  0.2990
58388W        W 1326  11.586  18.733  16.593 -0.0459  0.0865  0.2234
58389W        W 1327  13.031  17.467  15.176  0.1642  0.0169  0.0853
58390W        W 1328  11.898  15.987  17.627  0.2910 -0.0766  0.3207
58391W        W 1329  10.841  16.943  17.156 -0.0660  0.2391  0.0190
58392W        W 1330  11.310  13.737  16.302  0.2267  0.3882  0.0508
58393W        W 1331  11.349  14.551  17.647 -0.3423 -0.2438  0.3136
58394W        W 1332  13.981  14.842  15.501 -0.2018  0.1283  0.2483
58395W        W 1333  11.024  13.965  15.509  0.0750 -0.3453  0.2875
58396W        W 1334  11.732  15.081  16.541  0.0892 -0.0268  0.3500
58397W        W 1335  13.219  15.543  15.436 -0.0582  0.0571  0.1842
58398W        W 1336  12.235  19.370  16.155  0.0390 -0.1343 -0.1198
58399W        W 1337  11.370  13.967  17.496 -0.1354  0.1358 -0.0593
58400W        W 1338  11.785  14.500  17.953  0.1650 -0.0204 -0.0551
58401W        W 1339  11.958  16.162  17.117 -0.1513 -0.2311 -0.0318
58402W        W 1340  10.958  15.323  15.246  0.1522 -0.0788  0.1405
58403W        W 1341  10.454  15.239  16.798 -0.1160 -0.2824 -0.1062
58404W        W 1342  12.708  15.490  17.259 -0.0159 -0.0042 -0.0896
58405W        W 1343  14.618  15.837  16.503  0.1212  0.2143 -0.0906
58406W        W 1344  12.608  17.626  15.916 -0.1414  0.1554 -0.1419
58407W        W 1345  11.815  17.009  16.745  0.1497  0.0742 -0.0448
58408W        W 1346  12.221  17.224  16.092 -0.1570  0.0840 -0.2927
58409W        W 1347  11.784  15.389  18.266 -0.2995  0.1507  0.3572
58410W        W 1348   8.358  18.657  17.255  0.0316  0.1301 -0.0501
58411W        W 1349   9.750  17.569  16.492  0.0308  0.0029 -0.2374
58412W        W 1350  11.442  18.340  16.219 -0.1943  0.0979  0.1996
58413W        W 1351  13.996  17.825  15.421 -0.2407  0.3610  0.3697
58414W        W 1352  12.981  17.096  17.097  0.1618  0.0763  0.1127
58415W        W 1353  11.920  20.314  19.005  0.1232  0.1099 -0.2308
58416W        W 1354  11.916  15.698  14.574  0.2724  0.1979 -0.1242
58417W        W 1355  11.652  17.503  17.574 -0.1005 -0.1562 -0.4562
58418W        W 1356  11.734  18.154  19.130 -0.3706  0.0597  0.1782
58419W        W 1357  11.607  16.411  17.863 -0.0272  0.1716 -0.0588
58420W        W 1358  11.771  14.509  15.441  0.3302 -0.1439  0.0934
58421W        W 1359  12.605  17.231  15.106 -0.1597  0.1623  0.4305
58422W        W 1360  11.723  16.599  15.736  0.3013  0.0399  0.3456
58423W        W 1361  10.983  17.173  19.638  0.2517 -0.2007  0.1883
58424W        W 1362  11.058  16.178  16.665 -0.1553  0.1411 -0.2714
58425W        W 1363  12.526  17.233  17.314 -0.1045  0.0128 -0.0515
58426W        W 1364  11.611  18.001  14.914 -0.1152 -0.0268 -0.1109
58427W        W 1365  14.964  14.635  14.105  0.0778  0.2178  0.2796
58428W        W 1366  11.878  13.976  14.931 -0.1873 -0.1405  0.3400
58429W        W 1367  13.105  15.611  14.481  0.2835  0.0043  0.1685
58430W        W 1368  10.405  13.825  16.813 -0.3936 -0.4114  0.2080
58431W        W 1369  11.451  17.184  16.279 -0.0696 -0.0975 -0.3765
58432W        W 1370  10.440  13.620  17.779  0.1324 -0.2009  0.1046
58433W        W 1371  11.196  17.189  17.604 -0.2830  0.1329 -0.0449
58434W        W 1372  11.942  16.484  15.231 -0.0835 -0.2188  0.1609
58435W        W 1373  12.009  14.790  15.848 -0.1135 -0.1264 -0.1492
58436W        W 1374  10.982  17.630  18.261  0.2167  0.1569 -0.4348
58437W        W 1375  10.472  15.396  17.365  0.1555  0.0095  0.0961
58438W        W 1376  12.708  17.131  16.013  0.1356 -0.2900  0.0890
58439W        W 1377  13.613  17.624  15.843  0.0625  0.2796  0.1571
58440W        W 1378  12.408  17.567  16.394  0.2437 -0.1789 -0.0401
58441W        W 1379   9.654  16.507  16.488  0.2997  0.1903  0.0575
58442W        W 1380  10.443  16.385  18.439 -0.3095 -0.1364 -0.0440
58443W        W 1381  10.696  16.426  17.307  0.1187  0.0247  0.0978
58444W        W 1382  13.311  13.716  14.807 -0.0462  0.2390 -0.3264
58445W        W 1383  13.152  16.191  18.110 -0.0154 -0.1159 -0.1057
58446W        W 1384  10.031  17.613  18.496 -0.1762  0.0838  0.5339
58447W        W 1385  13.032  14.481  15.887 -0.0964 -0.1858 -0.4319
58448W        W 1386  11.057  17.415  17.114  0.4059  0.0591  0.1551
58449W        W 1387  12.038  18.520  17.509  0.1575  0.2124 -0.1957
58450W        W 1388  13.358  17.459  14.777  0.1992  0.3030 -0.1120
58451W        W 1389  12.626  14.086  15.943  0.1097 -0.0326  0.1079
58452W        W 1390  12.669  14.506  16.991 -0.0950 -0.1090  0.0882
58453W        W 1391  12.142  15.272  14.483  0.0738  0.0374 -0.3550
58454W        W 1392  12.425  16.244  15.084 -0.1075 -0.0793  0.2482
58455W        W 1393  12.344  17.743  17.220  0.0379  0.1892  0.0649
58456W        W 1394  13.340  16.619  15.414 -0.2398 -0.0354  0.1918
58457W        W 1395  11.829  18.239  18.057  0.1200  0.3328 -0.1691
58458W        W 1396  11.403  15.926  17.948 -0.3585 -0.1243  0.1307
58459W        W 1397  10.652  16.845  18.581  0.1452  0.1102 -0.2403
58460W        W 1398   8.757  18.597  15.980  0.0355  0.0349 -0.0499
58461W        W 1399  10.419  18.081  16.251  0.0722 -0.2845  0.2523
58462W        W 1400   9.900  17.719  15.558  0.3316  0.3220  0.0224
58463W        W 1401  10.498  15.744  17.994  0.3328  0.1514 -0.0553
58464W        W 1402  11.016  16.063  17.158 -0.0492  0.2582 -0.0425
58465W        W 1403  14.037  17.426  16.205  0.2657 -0.0619 -0.0191
58466W        W 1404  11.360  14.801  19.600  0.1487  0.4072  0.0144
58467W        W 1405  12.008  14.998  17.007  0.1490 -0.1554  0.3305
58468W        W 1406  12.418  16.818  15.335 -0.0442  0.0013  0.0639
58469W        W 1407  13.296  18.900  15.294 -0.1487 -0.0444  0.1266
58470W        W 1408  13.495  14.499  14.714 -0.0441  0.0726 -0.3105
58471W        W 1409  12.721  18.554  15.921 -0.3159 -0.0763 -0.0185
58472W        W 1410  11.710  14.336  17.249  0.0193 -0.0761 -0.1786
58473W        W 1411  10.729  15.550  15.662 -0.0433 -0.0143  0.1509
58474W        W 1412   9.616  13.864  16.714  0.0077 -0.2273 -0.1028
58475W        W 1413  12.527  13.694  16.867 -0.1666  0.2669  0.1000
58476W        W 1414  12.752  15.432  16.268  0.2383 -0.0627 -0.2796
58477W        W 1415  10.617  14.713  15.140 -0.0750 -0.1907  0.0556
58478W        W 1416  12.460  15.253  15.947  0.2561  0.0193 -0.1699
58479W        W 1417  10.550  17.370  16.253  0.0528 -0.1879 -0.4164
58480W        W 1418  10.120  16.584  16.658  0.0415 -0.2055  0.1397
58481W        W 1419  14.194  15.390  17.536  0.0494  0.0746 -0.1613
58482W        W 1420  10.204  18.202  15.753  0.2002  0.2933  0.2347
58483W        W 1421  12.849  17.208  16.566 -0.2027 -0.2192 -0.0476
58484W        W 1422  13.242  17.880  15.493 -0.2319  0.2038  0.0843
58485W        W 1423   9.614  16.351  18.383  0.0938  0.1524 -0.2717
58486W        W 1424  12.999  14.241  15.479  0.0708  0.1808  0.0758
58487W        W 1425  11.064  17.672  16.688  0.0761 -0.1520  0.1603
58488W        W 1426  11.197  18.151  16.695  0.0833 -0.1873  0.0236
58489W        W 1427  10.964  13.636  15.956 -0.0006  0.1916  0.1409
58490W        W 1428  12.636  18.950  17.059  0.1566 -0.1325 -0.1725
58491W        W 1429  12.194  15.702  15.744  0.1587  0.3240 -0.1977
58492W        W 1430  10.930  15.947  18.115  0.1973 -0.1539  0.2118
58493W        W 1431  14.118  15.701  16.713 -0.2490  0.0187  0.0393
58494W        W 1432  12.642  16.453  16.394  0.2398 -0.0262  0.1366
58495W        W 1433  13.383  17.002  15.044  0.0946  0.0744  0.0751
58496W        W 1434  10.770  15.112  14.825 -0.0942 -0.1278  0.0441
58497W        W 1435  11.485  18.814  16.053 -0.1318  0.1702  0.2282
58498W        W 1436  11.595  17.551  15.048 -0.2963  0.2131 -0.6231
58499W        W 1437  11.858  16.811  16.204  0.0603 -0.1644  0.1536
58500W        W 1438  12.097  15.098  16.192 -0.0797  0.2080 -0.0686
58501W        W 1439  13.303  15.812  14.956  0.0249  0.1111  0.1055
58502W        W 1440   9.139  16.579  18.344  0.0146 -0.0462  0.2475
58503W        W 1441  11.545  15.284  17.419 -0.2067  0.0621 -0.1899
58504W        W 1442  11.780  15.280  14.796 -0.2110 -0.1243  0.0827
58505W        W 1443  10.076  16.743  18.465 -0.1294 -0.2324  0.1242
58506W        W 1444  14.066  14.579  14.935 -0.0674  0.2414  0.3667
58507W        W 1445  14.751  15.154  14.739  0.0320  0.1523 -0.1460
58508W        W 1446  11.182  16.783  17.887  0.2874 -0.0030 -0.1462
58509W        W 1447  12.850  16.201  16.034  0.0145  0.0657 -0.1171
58510W        W 1448  13.086  13.897  14.065 -0.1524 -0.0982 -0.2467
58511W        W 1449  12.836  13.457  15.060 -0.2141  0.1370  0.0140
58512W        W 1450   9.974  17.470  19.113  0.1282 -0.0636  0.0008
58513W        W 1451  12.405  16.273  16.863  0.1580  0.0468  0.0558
58514W        W 1452  12.149  17.422  17.714 -0.0961  0.2406 -0.2353
58515W        W 1453  13.875  15.962  13.923 -0.3851  0.0861 -0.2020
58516W        W 1454  13.823  19.660  15.269 -0.2004 -0.1591  0.1016
58517W        W 1455  11.105  16.636  16.869  0.6176 -0.1657  0.2583
58518W        W 1456  13.280  19.990  17.793 -0.1684 -0.3880 -0.0554
58519W        W 1457  12.262  18.259  15.720  0.0812  0.0536 -0.0327
58520W        W 1458  11.404  16.282  18.299  0.3318  0.0908  0.0059
58521W        W 1459  13.548  15.867  14.329 -0.0794  0.0647  0.0188
58522W        W 1460  11.569  14.816  16.002 -0.2477  0.1215 -0.0944
58523W        W 1461  10.517  18.520  15.934  0.0502 -0.0610 -0.3519
58524W        W 1462  13.833  15.429  14.162 -0.2254 -0.0679  0.0509
58525W        W 1463  13.171  15.610  16.116 -0.0149  0.4936 -0.1543
58526W        W 1464  11.306  14.155  17.994 -0.2127 -0.0626  0.1839
58527W        W 1465  13.499  15.667  16.579 -0.0126 -0.1987 -0.1577
58528W        W 1466  14.079  15.824  14.412 -0.0229 -0.1199  0.1174
58529W        W 1467  11.797  17.759  17.116 -0.3567 -0.0267 -0.2073
58530W        W 1468  13.015  15.386  14.959 -0.2964 -0.1803 -0.0003
58531W        W 1469  11.338  16.302  19.300  0.0189 -0.0394 -0.4567
58532W        W 1470  11.054  14.986  18.150  0.0731 -0.0856  0.1637
58533W        W 1471  10.607  18.188  18.120  0.2203 -0.0668 -0.1575
58534W        W 1472  12.941  17.025  17.591 -0.2615  0.1723 -0.2148
58535W        W 1473  12.848  17.751  16.443 -0.1922  0.0881 -0.0869
58536W        W 1474  11.752  14.604  16.795  0.0226 -0.1263 -0.2682
58537W        W 1475  11.000  16.152  16.214  0.0761  0.0903 -0.0602
58538W        W 1476  12.363  17.874  14.438 -0.3217 -0.2008  0.1587
58539W        W 1477  12.004  17.851  15.242  0.0377  0.1736  0.0783
58540W        W 1478  12.199  14.659  16.628 -0.2778  0.0746 -0.0404
58541W        W 1479  12.442  18.355  17.729  0.2579  0.1487 -0.2007
58542W        W 1480  11.595  17.620  15.613  0.1902  0.2462 -0.3503
58543W        W 1481  12.130  16.924  17.879  0.0372  0.3011  0.2119
58544W        W 1482  11.756  16.996  15.306  0.0049 -0.2141 -0.2895
58545W        W 1483  12.990  14.886  16.664 -0.2516 -0.0752 -0.0358
58546W        W 1484   9.663  16.937  16.743  0.2093  0.3033  0.0699
58547W        W 1485  10.529  16.185  16.185 -0.1626 -0.0396  0.0829
58548W        W 1486  10.035  16.367  16.196  0.2734  0.0360 -0.1997
58549W        W 1487  13.167  14.681  17.132 -0.0947 -0.2386 -0.0402
58550W        W 1488  14.330  16.210  16.453 -0.1608  0.0742 -0.1137
58551W        W 1489  11.812  14.777  17.525 -0.0364  0.3463  0.2950
58552W        W 1490  10.925  14.103  17.511 -0.2749 -0.1090 -0.2011
58553W        W 1491  10.754  16.885  17.642 -0.0583 -0.2047 -0.0478
58554W        W 1492  12.241  15.657  17.990  0.0622 -0.3099 -0.3083
58555W        W 1493  13.661  14.006  14.770  0.0790 -0.0196  0.3687
58556W        W 1494  11.650  19.295  17.230  0.2498 -0.0847 -0.1435
58557W        W 1495  10.797  16.475  18.031  0.3512  0.1895  0.1601
58558W        W 1496   9.383  14.744  17.472 -0.0359  0.1408  0.2093
58559W        W 1497  13.890  15.452  16.241  0.2101  0.2038 -0.0411
58560W        W 1498  11.357  15.805  17.498 -0.0261  0.2048 -0.1544
58561W        W 1499   9.876  18.656  15.840 -0.2474 -0.0782 -0.1208
58562W        W 1500  12.541  17.117  18.077  0.0252  0.1198 -0.0651
58563W        W 1501  11.651  16.145  15.380 -0.1455 -0.0922  0.1292
58564W        W 1502  11.387  16.767  16.031 -0.0295  0.0815 -0.1321
58565W        W 1503   8.877  14.884  18.750  0.2715  0.0718  0.1249
58566W        W 1504  12.048  18.243  16.555 -0.1432  0.0479  0.0254
58567W        W 1505  11.764  15.618  16.071  0.4704  0.0602  0.1399
58568W        W 1506  11.384  14.831  15.524 -0.0010 -0.4057  0.0469
58569W        W 1507  11.286  15.411  17.960 -0.5373 -0.2791 -0.3206
58570W        W 1508  12.046  16.582  16.659 -0.1578  0.0055 -0.4020
58571W        W 1509  12.075  16.493  17.663 -0.1374  0.0364  0.2535
58572W        W 1510  11.547  16.190  19.829  0.1586  0.0025  0.2018
58573W        W 1511  10.836  13.421  16.653 -0.1198  0.1401  0.3329
58574W        W 1512  15.257  20.078  15.122  0.1236 -0.1022  0.3841
58575W        W 1513  12.360  17.819  18.121  0.1540 -0.0754 -0.1419
58576W        W 1514  12.100  16.394  14.268  0.1182 -0.2252 -0.0347
58577W        W 1515  10.640  15.826  16.533 -0.1590 -0.1220 -0.1259
58578W        W 1516  12.132  15.908  15.314 -0.1590  0.0438 -0.4545
58579W        W 1517  10.957  14.069  18.375 -0.2471 -0.1449 -0.0888
58580W        W 1518  10.139  18.529  18.737  0.1256 -0.1618 -0.1170
58581W        W 1519  11.265  16.434  15.665 -0.4761 -0.0117 -0.0352
58582W        W 1520  10.319  17.718  17.565 -0.0548  0.0668  0.0146
58583W        W 1521  13.104  15.170  15.879  0.2556  0.1302 -0.1784
58584W        W 1522  12.583  16.448  14.468  0.1678 -0.0433  0.1100
58585W        W 1523  12.575  15.567  15.316 -0.1890 -0.2525 -0.0622
58586W        W 1524  12.803  14.646  17.555  0.2680 -0.2271  0.0691
58587W        W 1525  13.270  17.017  14.578 -0.1251  0.0201 -0.2162
58588W        W 1526  12.329  15.718  17.512 -0.0646  0.2219  0.0809
58589W        W 1527  10.512  14.350  19.259 -0.0232  0.2299  0.0651
58590W        W 1528  12.912  15.936  15.249  0.0427  0.0195  0.1517
58591W        W 1529  10.970  15.264  18.853 -0.1500 -0.0495  0.0842
58592W        W 1530  11.919  18.629  19.774 -0.0422 -0.0238 -0.0204
58593W        W 1531  11.447  15.938  16.419  0.1981 -0.0972 -0.1103
58594W        W 1532  12.519  15.041  16.457 -0.0710 -0.1800  0.0286
58595W        W 1533  12.339  14.702  15.212  0.3102 -0.0252  0.1143
58596W        W 1534  11.464  14.846  17.137 -0.1925  0.0621  0.1495
58597W        W 1535  12.975  18.783  17.552 -0.0408 -0.2256 -0.1546
58598W        W 1536  13.080  16.821  15.859  0.1184 -0.1206 -0.0418
58599W        W 1537  13.589  13.940  17.380  0.0530  0.1961 -0.0075
58600W        W 1538  11.539  16.269  17.339  0.0963  0.0572  0.0373
58601W        W 1539  11.296  15.380  15.733  0.2485 -0.0593  0.0213
58602W        W 1540  10.900  15.164  16.584 -0.0070  0.0035 -0.1098
58603W        W 1541  12.529  15.846  16.097  0.1657 -0.0753  0.2907
58604W        W 1542  11.844  15.869  18.155 -0.1603 -0.0387 -0.0096
58605W        W 1543  13.774  15.202  16.728  0.0902 -0.1182  0.3801
58606W        W 1544  12.225  14.014  16.194  0.0747 -0.1373 -0.4055
58607W        W 1545  12.143  14.231  17.044  0.2138 -0.3673 -0.0662
58608W        W 1546  12.548  14.281  17.426 -0.3305  0.2621 -0.0278
58609W        W 1547  11.109  16.701  18.441  0.1864 -0.0362  0.2021
58610W        W 1548  10.187  15.641  16.900 -0.0313  0.2516 -0.2330
58611W        W 1549  12.915  18.406  17.892  0.1287  0.1412  0.0490
58612W        W 1550  14.669  15.075  14.216 -0.1866 -0.0588  0.1321
58613W        W 1551  12.631  15.845  16.623 -0.0147  0.0196  0.0719
58614W        W 1552  13.674  15.684  15.309 -0.3756  0.1527 -0.3163
58615W        W 1553  14.370  15.601  14.031 -0.0449 -0.0685  0.1520
58616W        W 1554  11.018  14.107  16.042  0.0135  0.0942  0.1912
58617W        W 1555  11.614  16.741  18.245  0.3525 -0.2284  0.2699
58618W        W 1556  10.919  13.720  17.167  0.0372  0.3958  0.1381
58619W        W 1557  13.050  14.178  17.540  0.0452 -0.3615  0.1605
58620W        W 1558  12.074  16.914  15.702 -0.2538  0.0604  0.2435
58621W        W 1559  13.421  16.110  15.314  0.0130 -0.2091 -0.2489
58622W        W 1560  12.398  15.290  16.806 -0.0606  0.1697  0.5443
58623W        W 1561  10.614  14.075  17.942  0.3454  0.0255 -0.0021
58624W        W 1562   9.088  17.954  18.640  0.1477  0.2249  0.2639
58625W        W 1563  12.577  14.385  14.869 -0.0380  0.1508  0.0694
58626W        W 1564  12.401  15.134  14.978 -0.2502 -0.1198  0.1988
58627W        W 1565  10.564  16.274  16.737 -0.0285 -0.1054  0.5031
58628W        W 1566  13.689  16.875  16.972  0.0306 -0.1084 -0.2895
58629W        W 1567  11.873  13.998  15.464  0.1618 -0.0903 -0.0971
58630W        W 1568  13.218  15.661  17.573 -0.0176  0.0419 -0.1920
58631W        W 1569  11.659  16.323  16.229 -0.0799 -0.3910 -0.1569
58632W        W 1570  13.843  13.137  15.226 -0.2628  0.0056  0.2988
58633W        W 1571  11.242  18.565  16.949  0.0186  0.3477  0.0047
58634W        W 1572  10.173  18.150  17.770  0.0861  0.0647 -0.1833
58635W        W 1573  11.847  17.652  18.024  0.1166  0.0778  0.0894
58636W        W 1574  12.632  15.188  17.708  0.0595 -0.1713 -0.0198
58637W        W 1575  12.266  15.757  16.980  0.0385 -0.2822  0.0624
58638W        W 1576  12.053  16.042  16.475 -0.3840 -0.0324 -0.2231
58639W        W 1577  11.682  18.297  16.908 -0.0521 -0.1145 -0.3158
58640W        W 1578  12.729  18.056  17.454  0.0783  0.0734 -0.0497
58641W        W 1579  11.376  17.029  17.102 -0.2077 -0.1313  0.0433
58642W        W 1580  10.967  17.360  19.154  0.1722 -0.0228  0.1817
58643W        W 1581  12.681  17.557  16.929  0.1528 -0.0547 -0.2110
58644W        W 1582  10.931  18.311  16.257  0.0550 -0.1304  0.1368
58645W        W 1583  10.986  16.497  18.970 -0.1189  0.1767 -0.0620
58646W        W 1584  12.700  17.492  17.777 -0.0045  0.0689 -0.1994
58647W        W 1585  12.428  16.850  16.371  0.0542 -0.2225 -0.1208
58648W        W 1586  11.005  13.440  15.468  0.1018 -0.1296  0.1889
58649W        W 1587  12.317  16.026  14.593  0.3327 -0.0232  0.5334
58650W        W 1588  10.586  15.893  19.747  0.1288  0.1095  0.0946
58651W        W 1589  10.124  15.938  17.671  0.1611 -0.0716  0.0252
58652W        W 1590  10.734  18.118  17.607  0.1867 -0.0107 -0.2556
58653W        W 1591  12.459  17.735  14.929 -0.0248  0.1313 -0.1472
58654W        W 1592  11.449  16.746  16.567 -0.0755  0.0526  0.1451
58655W        W 1593  12.103  17.953  17.590 -0.0209  0.3389 -0.0503
58656W        W 1594  12.263  15.080  15.527 -0.1772  0.0681 -0.2097
58657W        W 1595  10.475  16.940  16.725 -0.0745  0.0620 -0.3373
58658W        W 1596   9.842  17.350  16.062  0.0144 -0.1696 -0.1402
58659W        W 1597  14.088  18.485  14.481 -0.2830 -0.0845  0.1200
58660W        W 1598  10.680  17.972  16.671 -0.3363 -0.3069  0.2903
58661W        W 1599  11.413  15.295  16.837 -0.0888  0.1767 -0.1917
58662W        W 1600  14.490  14.220  14.862  0.2608 -0.0914  0.2551
58663W        W 1601  12.595  16.029  15.578 -0.0860 -0.0233 -0.1397
58664W        W 1602  13.575  15.278  15.638 -0.0769  0.0349  0.1051
58665W        W 1603  11.693  19.698  18.128  0.1757 -0.1417  0.2481
58666W        W 1604  12.236  15.571  16.374 -0.3908  0.1143 -0.0301
58667W        W 1605  13.640  14.374  15.279  0.0785  0.1488 -0.0652
58668W        W 1606   9.849  16.303  18.867 -0.0630  0.0635  0.2182
58669W        W 1607  11.265  14.348  18.653  0.1010  0.0209  0.2296
58670W        W 1608   9.974  17.694  17.904 -0.0121  0.0169 -0.1025
58671W        W 1609  13.132  18.404  15.240 -0.0792  0.2671 -0.1109
58672W        W 1610  10.336  15.833  15.909 -0.0302 -0.1568 -0.1523
58673W        W 1611  10.779  15.316  17.804  0.0254 -0.3236 -0.0226
58674W        W 1612  10.846  13.655  18.080 -0.0583 -0.1386 -0.1838
58675W        W 1613  12.799  15.943  14.689 -0.1244  0.2615  0.3640
58676W        W 1614  10.738  15.629  16.999 -0.0033 -0.0140 -0.1956
58677W        W 1615  10.225  18.909  16.119 -0.2738 -0.0732 -0.1827
58678W        W 1616  11.679  16.884  17.510  0.1562  0.3804  0.1624
58679W        W 1617  11.861  18.258  18.684  0.0559 -0.1559 -0.0899
58680W        W 1618  11.160  15.745  15.459 -0.1727  0.0482  0.1730
58681W        W 1619  13.857  14.624  16.346  0.2020  0.1551  0.1869
58682W        W 1620  10.976  15.486  19.323 -0.2606  0.0168 -0.1644
58683W        W 1621  12.817  15.610  15.717  0.1044  0.1298  0.4190
58684W        W 1622  11.017  16.697  16.377 -0.1041 -0.0482  0.0475
58685W        W 1623  13.267  14.667  15.097 -0.4699  0.1758 -0.0246
58686W        W 1624  10.812  17.844  17.208 -0.2011  0.0738 -0.3070
58687W        W 1625  11.103  15.438  17.244 -0.2312  0.2205 -0.1194
58688W        W 1626  12.473  17.248  15.589  0.1337  0.0312  0.0981
58689W        W 1627  13.077  16.214  17.590 -0.4085  0.2388  0.4229
58690W        W 1628  12.899  17.785  14.639  0.1130 -0.0197  0.1393
58691W        W 1629  12.361  18.926  17.645 -0.1287  0.1584 -0.2870
58692W        W 1630  11.399  14.357  16.311  0.1808  0.2134 -0.1978
58693W        W 1631  11.752  15.187  15.670 -0.1883  0.0781 -0.0347
58694W        W 1632  11.667  17.152  15.841  0.3189 -0.1361  0.1985
58695W        W 1633  12.148  16.445  16.149 -0.0807 -0.0156 -0.1809
58696W        W 1634  14.037  17.242  18.009  0.0164 -0.2551  0.1214
58697W        W 1635  11.213  14.362  17.194 -0.2631  0.0464 -0.1002
58698W        W 1636  13.806  17.690  14.352  0.1539 -0.0373 -0.1084
58699W        W 1637  12.343  14.452  15.716 -0.0513 -0.0513  0.3682
58700W        W 1638  12.430  18.155  15.237  0.0874  0.0538  0.0021
58701W        W 1639  13.704  16.665  14.685  0.0197  0.1986  0.1920
58702W        W 1640  11.888  20.604  17.078  0.0793 -0.1191 -0.4577
58703W        W 1641  11.329  14.858  16.432  0.1389  0.0230  0.3746
58704W        W 1642  11.132  19.196  16.010 -0.1365 -0.0590  0.3038
58705W        W 1643  11.750  18.119  15.639 -0.3068  0.0988  0.1410
58706W        W 1644  11.292  14.429  15.767 -0.0180  0.1778  0.4868
58707W        W 1645  10.151  15.436  17.779  0.2445  0.3004 -0.2434
58708W        W 1646  11.168  17.472  16.028 -0.4358  0.2976 -0.0143
58709W        W 1647  13.264  14.985  14.706  0.0974  0.1443 -0.1587
58710W        W 1648  13.337  15.168  15.173 -0.0118 -0.0342  0.1388
58711W        W 1649  12.849  17.331  14.670 -0.4642  0.3103 -0.0448
58712W        W 1650  13.218  14.806  17.845  0.1900 -0.1596 -0.0937
58713W        W 1651  11.833  17.530  19.782  0.2540  0.0227 -0.0730
58714W        W 1652  11.531  17.884  19.542 -0.2708 -0.0332  0.1900
58715W        W 1653  10.571  15.963  15.276 -0.3601 -0.2193 -0.3083
58716W        W 1654  10.935  16.255  18.511  0.0679 -0.0263 -0.2193
58717W        W 1655  11.862  16.077  15.824 -0.0241 -0.1354 -0.0188
58718W        W 1656  12.096  17.502  15.725  0.1394 -0.1990  0.0601
58719W        W 1657  11.722  18.729  17.131 -0.2215  0.2502  0.1318
58720W        W 1658  12.811  14.864  14.863 -0.2448 -0.3319  0.1906
58721W        W 1659  12.639  16.794  16.847  0.0419  0.0054  0.1298
58722W        W 1660  11.817  15.500  17.779 -0.0233  0.0664 -0.1002
58723W        W 1661  14.349  15.167  15.667 -0.1448  0.1442 -0.0907
58724W        W 1662  13.935  14.232  15.657 -0.3165  0.2707  0.2051
58725W        W 1663  10.666  17.163  18.136  0.1109  0.0188 -0.2470
58726W        W 1664  10.857  16.570  15.956  0.0002 -0.0872  0.0916
58727W        W 1665  12.181  17.019  14.931 -0.0862  0.2477  0.4331
58728W        W 1666  11.200  17.181  18.192  0.2407 -0.0114 -0.1675
58729W        W 1667  10.597  14.945  17.551 -0.1168  0.4678 -0.2870
58730W        W 1668  10.514  16.394  19.397  0.3736  0.0348 -0.1523
58731W        W 1669  11.995  15.452  15.256  0.2177  0.0600  0.1930
58732W        W 1670  10.931  14.554  17.851 -0.0960 -0.0363 -0.1447
58733W        W 1671  13.513  18.805  15.780  0.0148 -0.4395 -0.2062
58734W        W 1672  12.361  13.434  17.628 -0.3575  0.0997  0.1355
58735W        W 1673   9.752  15.457  18.822  0.1492  0.1098  0.2354
58736W        W 1674  13.787  16.554  15.163  0.1195  0.1138 -0.0531
58737W        W 1675  14.679  16.514  15.411  0.0047  0.0111 -0.0968
58738W        W 1676  11.682  15.707  15.592 -0.1644  0.0951  0.2215
58739W        W 1677  14.537  19.507  15.809  0.1458 -0.2196  0.2575
58740W        W 1678  10.263  16.650  15.331 -0.1899  0.0777  0.0298
58741W        W 1679  12.746  14.960  18.593  0.1429  0.2577  0.0569
58742W        W 1680  10.782  15.829  20.278  0.1193 -0.5755 -0.1667
58743W        W 1681  11.482  15.371  15.244  0.0369 -0.1827  0.0602
58744W        W 1682  11.841  15.628  16.670 -0.0244  0.0064  0.0385
58745W        W 1683  12.182  16.373  15.610  0.0750 -0.2696 -0.2345
58746W        W 1684  13.684  17.416  15.240  0.0568  0.2103  0.0036
58747W        W 1685  11.334  17.883  17.064 -0.1363  0.1592 -0.1067
58748W        W 1686  11.466  17.929  18.568 -0.1104  0.0093  0.2365
58749W        W 1687  10.306  15.375  18.704 -0.0506 -0.1474 -0.0017
58750W        W 1688  12.899  16.956  15.397  0.0002 -0.2671 -0.3227
58751W        W 1689  11.268  16.653  17.399  0.0189  0.2085 -0.0291
58752W        W 1690  11.352  19.094  16.877 -0.1114  0.2337  0.1123
58753W        W 1691  12.658  13.807  15.416  0.2692  0.0527  0.0288
58754W        W 1692  14.058  16.106  15.226  0.1946  0.0226  0.1103
58755W        W 1693  10.580  16.094  18.895 -0.2457 -0.2287  0.0373
58756W        W 1694  11.479  15.825  16.908  0.2140  0.4576 -0.0768
58757W        W 1695  12.561  16.698  15.867  0.1480 -0.0096 -0.1974
58758W        W 1696  11.094  15.647  16.602  0.1226 -0.0545  0.0146
58759W        W 1697  14.139  15.066  14.099 -0.2425  0.0222  0.0974
58760W        W 1698  11.606  16.647  17.024 -0.0369 -0.3536  0.2703
58761W        W 1699  12.037  17.278  17.222  0.0500 -0.2227  0.0434
58762W        W 1700  12.885  15.115  15.369  0.1155 -0.0346 -0.1126
58763W        W 1701  12.151  17.773  16.733  0.0867  0.0637 -0.1350
58764W        W 1702  12.628  17.706  15.422  0.0625 -0.2845  0.0550
58765W        W 1703  12.244  16.804  17.277  0.1818 -0.3813 -0.2044
58766W        W 1704  12.665  14.828  15.685  0.1275 -0.0930 -0.1511
58767W        W 1705  14.322  15.424  14.554  0.0105  0.0299 -0.1824
58768W        W 1706  12.247  19.367  17.426 -0.0548 -0.1701 -0.3247
58769W        W 1707  13.837  20.185  18.566  0.0436 -0.2606 -0.0570
58770W        W 1708  11.661  16.217  16.734  0.5190  0.3078  0.2848
58771W        W 1709  13.472  16.141  16.141 -0.0541  0.1075  0.1278
58772W        W 1710  10.318  13.496  18.947 -0.1218 -0.2048 -0.0246
58773W        W 1711  13.037  17.446  15.757  0.0346  0.2492  0.3362
58774W        W 1712  11.906  17.388  16.403  0.1800 -0.0429 -0.0583
58775W        W 1713  13.149  15.970  15.708  0.0790  0.1637  0.0396
58776W        W 1714  11.808  14.955  15.209 -0.2296 -0.0147 -0.2241
58777W        W 1715  13.536  15.357  14.775 -0.0145  0.0537 -0.0059
58778W        W 1716  10.114  17.170  18.201  0.1554 -0.0202 -0.0560
58779W        W 1717  11.838  15.687  17.243  0.1445  0.1236  0.0063
58780W        W 1718  11.285  17.924  22.033  0.0101 -0.3006 -0.0017
58781W        W 1719  11.023  15.577  19.872  0.3531  0.0435 -0.0761
58782W        W 1720  13.203  14.550  18.291 -0.0055 -0.1876  0.0019
58783W        W 1721  13.482  16.169  17.281  0.2955  0.0940 -0.1424
58784W        W 1722   9.155  17.535  20.992 -0.1180 -0.0927  0.0122
58785W        W 1723  13.011  19.391  18.323 -0.0121 -0.6255  0.0721
58786W        W 1724  12.347  13.384  22.335  0.0608 -0.2511 -0.1732
58787W        W 1725  13.414  17.050  19.107  0.1054  0.0536 -0.1714
58788W        W 1726  13.011  18.006  19.451  0.4608  0.0916  0.0265
58789W        W 1727  12.018  17.870  18.451 -0.0947 -0.0359 -0.0908
58790W        W 1728  10.094  16.937  23.150  0.2957  0.1409 -0.2044
58791W        W 1729  10.816  17.483  22.986 -0.1161 -0.0688  0.0795
58792W        W 1730  11.373  15.769  18.389  0.1064  0.0786 -0.0223
58793W        W 1731  10.246  14.875  22.237  0.2887  0.1643  0.0142
58794W        W 1732  13.062  16.003  19.410  0.2121  0.2199 -0.4203
58795W        W 1733  10.208  15.996  19.409 -0.3835  0.0626  0.0888
58796W        W 1734  11.901  15.235  22.621  0.1422  0.0264  0.0035
58797W        W 1735  12.476  14.668  20.357 -0.1722 -0.2185 -0.0508
58798W        W 1736  12.656  18.180  19.113  0.1811 -0.2012 -0.0441
58799W        W 1737  10.620  15.187  23.090  0.1614 -0.1563 -0.0738
58800W        W 1738  12.393  13.590  23.149  0.2544  0.0276  0.0342
58801W        W 1739  11.476  17.623  19.049  0.0712  0.1224  0.1589
58802W        W 1740  10.037  14.284  19.401  0.1062  0.0934  0.0484
58803W        W 1741   9.981  15.635  21.087 -0.1224  0.1332  0.2482
58804W        W 1742  10.671  14.802  22.450 -0.2661  0.1407 -0.0210
58805W        W 1743  12.253  14.370  22.063  0.0960  0.0205  0.1585
58806W        W 1744  13.011  16.538  18.578 -0.0486 -0.0049  0.2226
58807W        W 1745  12.188  16.554  19.123  0.2073  0.0281 -0.2304
58808W        W 1746  13.012  16.813  18.987 -0.0578  0.4034  0.1180
58809W        W 1747  13.381  14.743  20.059  0.1660  0.2581 -0.1199
58810W        W 1748   9.930  18.017  21.331 -0.1577 -0.0564 -0.0014
58811W        W 1749   8.826  17.478  20.071 -0.3330  0.0540 -0.0049
58812W        W 1750  10.261  16.696  20.172  0.1665 -0.0893  0.3347
58813W        W 1751  12.489  17.626  19.047  0.3179  0.0696  0.1003
58814W        W 1752  12.782  17.719  19.916  0.0237 -0.2637 -0.0983
58815W        W 1753  11.572  16.351  21.472  0.2421  0.1830 -0.2661
58816W        W 1754   9.629  17.784  18.454  0.0441 -0.2407 -0.2441
58817W        W 1755  11.754  19.847  21.783  0.2213  0.1551 -0.0488
58818W        W 1756  10.667  16.023  22.626 -0.1321 -0.2118 -0.0434
58819W        W 1757  11.016  17.044  20.879 -0.1278  0.1711 -0.0515
58820W        W 1758  12.401  15.312  19.444 -0.0184 -0.2555 -0.1777
58821W        W 1759   9.767  17.368  19.924  0.2495 -0.1136  0.0712
58822W        W 1760  10.909  15.999  20.889 -0.0357 -0.0184 -0.2273
58823W        W 1761  11.176  17.131  22.590  0.1628 -0.0069 -0.0724
58824W        W 1762   9.196  16.971  20.713 -0.2592  0.0038  0.2885
58825W        W 1763  11.194  17.170  18.711  0.2061 -0.1064  0.0713
58826W        W 1764  12.342  14.741  17.289  0.0163 -0.0099  0.0040
58827W        W 1765  11.504  14.988  17.910  0.1822  0.0974  0.3496
58828W        W 1766  13.623  14.537  18.601  0.0692 -0.0104  0.2498
58829W        W 1767  11.160  14.906  21.809 -0.0011  0.1684 -0.2693
58830W        W 1768  10.401  17.313  21.226 -0.2528  0.1278  0.0116
58831W        W 1769  11.734  14.278  20.710 -0.3340 -0.1966  0.1162
58832W        W 1770  12.568  16.948  20.553  0.3334  0.0372 -0.0201
58833W        W 1771  11.857  15.395  21.578  0.0290  0.0747  0.0778
58834W        W 1772  11.863  15.815  20.681 -0.1011  0.4754  0.1152
58835W        W 1773  10.566  17.827  21.506  0.0317 -0.0996  0.2307
58836W        W 1774  10.323  16.729  21.428 -0.0345 -0.1271 -0.0807
58837W        W 1775  12.251  19.055  18.591 -0.3452 -0.0686  0.0160
58838W        W 1776  13.560  17.400  18.298 -0.1077  0.0007  0.2069
58839W        W 1777  10.647  17.616  19.619  0.0558  0.3771  0.0660
58840W        W 1778  10.912  17.626  22.190  0.0482  0.2019  0.0309
58841W        W 1779  10.863  17.079  23.467 -0.1077  0.2568 -0.0072
58842W        W 1780  11.213  16.090  21.762 -0.2779  0.0735 -0.5987
58843W        W 1781  12.030  16.514  18.651  0.2150 -0.1535  0.2993
58844W        W 1782  10.338  18.991  22.317 -0.1436  0.1786 -0.1125
58845W        W 1783  13.920  13.135  18.421 -0.1891  0.3965 -0.1264
58846W        W 1784  11.423  16.076  20.995  0.0219  0.2752 -0.0855
58847W        W 1785  13.923  18.448  18.024 -0.0312  0.0493 -0.3233
58848W        W 1786  12.292  17.199  16.743  0.1273  0.1386 -0.0087
58849W        W 1787  12.312  15.922  20.466  0.4308  0.2548  0.3101
58850W        W 1788  12.699  15.610  20.315  0.0196  0.0384  0.1340
58851W        W 1789  10.853  16.651  21.802 -0.0644 -0.1502  0.0287
58852W        W 1790  10.897  16.003  19.344 -0.1364 -0.0812  0.0131
58853W        W 1791  12.684  16.298  19.125 -0.2874  0.2687 -0.0736
58854W        W 1792  13.430  16.686  18.284  0.1065  0.1657  0.0419
58855W        W 1793   9.909  17.068  21.240  0.1273  0.1477  0.0041
58856W        W 1794  11.805  16.783  21.407 -0.0735  0.0750  0.1537
58857W        W 1795  11.783  17.551  22.416  0.1825  0.1840  0.1970
58858W        W 1796  10.440  17.258  19.913  0.1894  0.1433  0.0365
58859W        W 1797  10.535  17.504  21.900  0.0631  0.1120  0.2383
58860W        W 1798  10.397  15.585  20.081 -0.0808  0.2204 -0.0109
58861W        W 1799   9.950  14.702  23.681 -0.0142  0.5203  0.0682
58862W        W 1800   9.669  16.749  23.010 -0.3336  0.3255 -0.1071
58863W        W 1801  13.475  13.728  17.918  0.3043 -0.2550  0.1192
58864W        W 1802  10.568  13.387  22.064 -0.1461  0.0366  0.1359
58865W        W 1803  12.701  14.136  18.917 -0.1060 -0.0482  0.1171
58866W        W 1804  11.636  16.939  20.329 -0.2282 -0.0015 -0.1499
58867W        W 1805  13.660  19.309  18.956 -0.4688 -0.1726 -0.1913
58868W        W 1806  13.876  15.548  17.954 -0.1066  0.2713 -0.0090
58869W        W 1807  14.478  19.018  17.733  0.2397  0.1205  0.1622
58870W        W 1808  11.451  16.395  22.031  0.0081  0.1394 -0.1098
58871W        W 1809  10.871  15.689  21.832 -0.1546  0.2753 -0.0299
58872W        W 1810  11.750  15.488  23.477 -0.0461 -0.0549 -0.2754
58873W        W 1811  11.687  16.211  22.391  0.1764  0.1139 -0.1455
58874W        W 1812  11.623  14.495  19.950 -0.2574  0.1232  0.2237
58875W        W 1813  12.157  15.384  21.152  0.2370  0.1182  0.3918
58876W        W 1814  11.314  16.792  21.215  0.2577  0.0524 -0.3249
58877W        W 1815   9.884  16.927  19.805 -0.0544 -0.1280  0.2060
58878W        W 1816  12.757  14.298  20.687  0.2529 -0.1231 -0.0559
58879W        W 1817  12.705  16.955  18.537 -0.2693  0.2414 -0.0858
58880W        W 1818  11.663  17.421  20.205 -0.2492  0.1067  0.4301
58881W        W 1819  13.280  17.601  18.687  0.4054 -0.0629 -0.0703
58882W        W 1820   9.619  15.783  23.213 -0.1339  0.3434 -0.2062
58883W        W 1821   9.420  14.897  18.622 -0.2000 -0.0602  0.0200
58884W        W 1822  10.409  18.108  19.958 -0.1846  0.1626  0.2366
58885W        W 1823  10.560  17.060  20.382  0.1251 -0.2031  0.0259
58886W        W 1824  10.801  15.455  20.628 -0.0586  0.0380 -0.0242
58887W        W 1825  13.226  17.786  18.207 -0.1128 -0.0178  0.2387
58888W        W 1826  12.273  15.743  18.500  0.0334 -0.1590 -0.0109
58889W        W 1827  10.600  16.169  23.146 -0.2325  0.0928  0.0628
58890W        W 1828  13.574  14.345  20.840 -0.2169  0.1274  0.4183
58891W        W 1829  11.956  15.765  19.714 -0.2704 -0.0324 -0.2123
58892W        W 1830  11.081  16.074  19.807 -0.1488 -0.0659  0.0464
58893W        W 1831  11.889  15.033  19.166  0.1068  0.1805  0.0401
58894W        W 1832  13.110  18.279  18.880 -0.2767 -0.0074  0.2388
58895W        W 1833  10.592  18.750  19.262 -0.1240  0.2207  0.0842
58896W        W 1834   9.631  14.586  19.377  0.3130  0.0634  0.1391
58897W        W 1835  12.808  17.975  18.054 -0.0014 -0.2134  0.0249
58898W        W 1836  13.347  15.845  19.764 -0.0984  0.0458 -0.1142
58899W        W 1837  11.072  17.541  23.971 -0.3259 -0.0640 -0.1420
58900W        W 1838  12.728  15.877  20.792 -0.0484  0.0087 -0.0344
58901W        W 1839  10.911  14.537  18.374  0.0828 -0.0275 -0.0325
58902W        W 1840   9.502  17.369  21.342 -0.2702  0.0831 -0.3022
58903W        W 1841  11.764  15.207  20.639 -0.0717  0.1019  0.0505
58904W        W 1842  13.901  14.006  17.791  0.0176  0.0041 -0.1802
58905W        W 1843  11.816  17.757  21.103 -0.0715 -0.2110  0.3542
58906W        W 1844  14.200  15.617  18.457 -0.0038  0.1147 -0.1323
58907W        W 1845  13.686  14.738  18.043  0.1578  0.1407  0.2605
58908W        W 1846  12.330  15.070  18.925  0.1922 -0.1134  0.1835
58909W        W 1847  10.186  18.356  23.648 -0.2167  0.1591 -0.0018
58910W        W 1848  13.169  15.712  19.014 -0.3828  0.3067 -0.0382
58911W        W 1849  11.940  16.534  21.922 -0.0132  0.1298  0.5721
58912W        W 1850  11.802  15.569  19.231  0.0268  0.2282 -0.0977
58913W        W 1851  13.720  18.124  17.635  0.0017  0.0931  0.0079
58914W        W 1852   9.856  15.537  22.012  0.0106  0.2769 -0.2838
58915W        W 1853  12.461  17.937  21.616 -0.1485 -0.0833 -0.2995
58916W        W 1854  12.480  18.544  18.752 -0.3251  0.1203 -0.0492
58917W        W 1855  12.985  14.061  19.354 -0.0974  0.2499  0.1345
58918W        W 1856  10.626  14.710  20.089 -0.0386 -0.1146 -0.1206
58919W        W 1857  10.757  15.230  20.157  0.0560 -0.1467  0.0794
58920W        W 1858  11.320  17.490  19.819  0.0098 -0.1664 -0.1891
58921W        W 1859  12.921  15.489  19.439 -0.0629  0.3661  0.3091
58922W        W 1860  12.841  13.661  21.168  0.2935  0.2769  0.1827
58923W        W 1861  13.537  14.169  22.473  0.2164 -0.2308  0.2276
58924W        W 1862  12.140  15.240  17.405 -0.1628 -0.0561  0.2188
58925W        W 1863  12.033  17.054  22.357  0.0242  0.0180 -0.0661
58926W        W 1864  10.329  16.600  18.918 -0.1001  0.0123 -0.0505
58927W        W 1865  12.503  14.840  21.758 -0.0909 -0.0435 -0.1239
58928W        W 1866  10.839  16.997  22.950 -0.1203 -0.0001  0.0960
58929W        W 1867   9.824  19.083  23.482  0.0390 -0.0085 -0.0480
58930W        W 1868  11.398  17.383  22.178 -0.0447 -0.1896  0.0925
58931W        W 1869  12.744  19.354  18.803 -0.0439  0.1865 -0.1916
58932W        W 1870  13.377  14.312  20.368 -0.0562 -0.1104  0.0444
58933W        W 1871  10.809  15.062  21.135 -0.0017 -0.0374  0.2610
58934W        W 1872   9.227  17.257  19.900 -0.0126 -0.0912  0.1069
58935W        W 1873  10.125  16.972  19.269 -0.0056 -0.2321 -0.3498
58936W        W 1874  12.851  13.221  20.248  0.2194 -0.1551  0.3069
58937W        W 1875  11.002  17.184  21.408 -0.1197 -0.0421  0.1869
58938W        W 1876  11.492  18.364  19.845 -0.1942 -0.3986 -0.1667
58939W        W 1877  13.011  17.293  20.306  0.0793 -0.2327 -0.0120
58940W        W 1878  11.337  17.968  21.097 -0.3141 -0.0500 -0.0167
58941W        W 1879  12.562  14.185  20.149  0.1825 -0.0107  0.0764
58942W        W 1880   9.955  15.936  20.156  0.0282  0.1476  0.1338
58943W        W 1881  11.458  15.350  19.686 -0.2847 -0.0878 -0.0779
58944W        W 1882   9.818  16.242  20.600 -0.2098 -0.1651 -0.0096
58945W        W 1883  12.441  15.779  19.480  0.1534  0.2450  0.0868
58946W        W 1884  12.561  16.265  18.512  0.2008 -0.0771  0.3483
58947W        W 1885  12.612  15.825  23.995 -0.0992 -0.0024 -0.4285
58948W        W 1886  11.730  15.150  21.161  0.0858  0.1200 -0.3532
58949W        W 1887  11.458  18.384  22.318  0.0475 -0.0097 -0.0520
58950W        W 1888  12.404  16.687  20.077 -0.0366 -0.0972  0.1341
58951W        W 1889  12.049  14.216  19.686  0.0327  0.1218  0.1688
58952W        W 1890  11.897  17.032  21.861  0.0275 -0.0677 -0.2340
58953W        W 1891  12.140  16.374  22.390 -0.0440 -0.1343 -0.1216
58954W        W 1892  10.488  14.222  21.232  0.2879  0.1969  0.2832
58955W        W 1893  13.297  15.217  18.927  0.1786  0.1798 -0.1663
58956W        W 1894  10.328  15.755  21.772  0.1318  0.3045 -0.2217
58957W        W 1895  11.252  16.543  20.072  0.0322 -0.0804  0.0384
58958W        W 1896  12.538  16.664  18.866 -0.1937 -0.1465  0.1070
58959W        W 1897  10.857  14.520  19.708 -0.1788 -0.1836  0.1247
58960W        W 1898  10.628  17.342  22.504  0.2932 -0.0346 -0.3009
58961W        W 1899  12.170  16.081  23.920 -0.3156 -0.2696  0.1397
58962W        W 1900  12.340  16.051  19.976  0.0632 -0.1865 -0.0365
58963W        W 1901  11.259  15.741  20.590  0.0966  0.1842 -0.0680
58964W        W 1902  10.485  14.864  19.522 -0.0035  0.0022  0.2743
58965W        W 1903  12.174  15.804  21.592  0.0511  0.2594  0.0824
58966W        W 1904  11.434  16.721  20.752 -0.1994 -0.0204 -0.0297
58967W        W 1905  11.953  14.623  21.776 -0.1852  0.0731 -0.0262
58968W        W 1906  12.035  18.487  22.567 -0.1275 -0.0273  0.0877
58969W        W 1907  11.869  13.816  20.942 -0.1222 -0.2060  0.3069
58970W        W 1908  15.374  16.594  18.377  0.0848 -0.1655 -0.2443
58971W        W 1909  12.444  17.931  19.530 -0.1887  0.1266  0.1873
58972W        W 1910  10.517  16.355  21.099 -0.2419 -0.0264  0.4341
58973W        W 1911   9.256  16.607  23.573  0.2844  0.0036 -0.0754
58974W        W 1912  10.431  16.788  19.705  0.1013 -0.0197  0.1284
58975W        W 1913  12.413  13.761  20.833  0.3634  0.1866  0.1450
58976W        W 1914  10.422  18.479  22.186 -0.1363  0.0221 -0.2479
58977W        W 1915  10.736  16.923  19.097 -0.2560  0.0593 -0.6487
58978W        W 1916   9.937  16.783  20.602  0.0896  0.0477  0.2917
58979W        W 1917  14.022  13.571  18.729 -0.1401 -0.1063  0.0212
58980W        W 1918  10.337  17.217  17.740 -0.3318 -0.2318  0.2582
58981W        W 1919  11.040  16.287  21.349  0.0247 -0.0664 -0.0381
58982W        W 1920  13.690  15.382  20.569 -0.1403  0.1874  0.4696
58983W        W 1921  13.374  15.017  18.320  0.0456 -0.2359  0.1630
58984W        W 1922  11.912  15.097  22.053  0.2652  0.0010  0.0615
58985W        W 1923  11.759  13.756  21.565 -0.1007  0.2714  0.4231
58986W        W 1924  12.560  16.756  17.670  0.0836  0.0018 -0.2008
58987W        W 1925   8.939  15.145  23.129 -0.3281 -0.1807 -0.0581
58988W        W 1926  11.966  17.901  21.581 -0.0086  0.1606 -0.0133
58989W        W 1927   9.765  16.696  23.558 -0.2328  0.1026 -0.1961
58990W        W 1928  11.387  15.740  21.388  0.5008 -0.1634 -0.1460
58991W        W 1929  10.830  14.915  20.596 -0.3370  0.0695  0.1499
58992W        W 1930  10.077  17.499  22.438 -0.2539  0.1222 -0.1781
58993W        W 1931  12.219  15.594  18.958  0.1130 -0.1275  0.2049
58994W        W 1932  11.998  17.042  19.798  0.1394  0.0941  0.3231
58995W        W 1933  13.641  16.311  18.026  0.1536  0.2228  0.2203
58996W        W 1934   9.643  16.132  21.183 -0.1592  0.2187 -0.2750
58997W        W 1935  12.659  16.279  19.626 -0.1592  0.1458  0.1280
58998W        W 1936  11.417  16.704  18.957  0.0863  0.1821  0.0801
58999W        W 1937  10.827  16.760  21.234 -0.0082 -0.1170  0.2830
59000W        W 1938  10.224  16.080  22.564 -0.2877  0.3732 -0.0420
59001W        W 1939  12.251  16.045  18.913 -0.3234 -0.0684  0.0609
59002W        W 1940  11.414  14.476  21.591 -0.2905  0.0050 -0.0074
59003W        W 1941  13.250  14.969  19.600  0.1519  0.0815 -0.0096
59004W        W 1942  12.963  15.341  19.882  0.3714 -0.0993  0.3649
59005W        W 1943  12.284  15.545  22.143 -0.1579 -0.0755 -0.1738
59006W        W 1944  10.728  15.579  23.791  0.1594  0.0534  0.4517
59007W        W 1945  11.207  18.809  19.785 -0.0147 -0.0004  0.1197
59008W        W 1946  13.210  15.707  17.049 -0.1459  0.1680 -0.0085
59009W        W 1947  12.378  14.784  19.432 -0.2011  0.1057 -0.4051
59010W        W 1948  12.709  15.853  18.906 -0.1445  0.1827  0.2014
59011W        W 1949  12.692  15.552  18.438  0.0028 -0.1412 -0.0265
59012W        W 1950   9.316  15.274  21.668  0.0731  0.1621  0.1358
59013W        W 1951  12.749  18.540  20.368 -0.3399 -0.1782 -0.1741
59014W        W 1952  11.332  16.136  18.810  0.2360 -0.3342  0.0858
59015W        W 1953  13.626  14.780  20.578  0.1296  0.1455 -0.0703
59016W        W 1954  12.490  18.956  19.122 -0.3403 -0.2820  0.3857
59017W        W 1955  11.842  16.621  19.955 -0.1227  0.0095 -0.2374
59018W        W 1956  10.606  16.485  20.630 -0.1915 -0.0091 -0.1467
59019W        W 1957  10.983  15.650  22.362  0.3460 -0.2858  0.0425
59020W        W 1958  10.993  19.570  23.908  0.1313 -0.2474 -0.0854
59021W        W 1959  10.731  14.194  20.040  0.2803  0.1695 -0.0205
59022W        W 1960  11.162  16.879  19.313 -0.1074 -0.0743 -0.1251
59023W        W 1961  11.443  17.884  21.590  0.0301  0.1019  0.0426
59024W        W 1962  12.557  16.419  20.645  0.0575  0.2804  0.1293
59025W        W 1963  11.488  15.782  20.115  0.0383  0.2665  0.0848
59026W        W 1964   9.293  16.789  19.221 -0.1343  0.1237 -0.1661
59027W        W 1965  12.296  14.205  20.658  0.0994  0.0608 -0.1358
59028W        W 1966  10.931  17.635  21.151  0.0237  0.0647  0.2014
59029W        W 1967   8.784  17.149  22.509  0.0848  0.1110 -0.1831
59030W        W 1968  10.383  16.892  20.831 -0.3961  0.0327 -0.0269
59031W        W 1969  13.473  14.188  19.182 -0.0031  0.1850 -0.2780
59032W        W 1970  12.363  15.440  20.624 -0.2906  0.3231  0.0718
59033W        W 1971  12.777  15.143  20.342 -0.1300 -0.1225  0.0171
59034W        W 1972  12.832  15.858  19.879 -0.0253 -0.2522  0.1016
59035W        W 1973  10.062  17.534  21.601  0.0469 -0.1353 -0.2232
59036W        W 1974  12.048  16.267  20.640  0.0127  0.1423  0.0592
59037W        W 1975  11.113  17.784  20.328  0.1847  0.2103 -0.1302
59038W        W 1976  13.243  17.448  17.733  0.0529  0.1819 -0.2449
59039W        W 1977  11.544  16.262  20.526 -0.0878  0.1212 -0.0193
59040W        W 1978  10.104  15.384  23.185  0.0388  0.0652  0.1715
59041W        W 1979  12.284  15.873  21.026 -0.0509  0.0431  0.1772
59042W        W 1980  10.694  16.454  20.119  0.0020 -0.0848  0.1074
59043W        W 1981  10.966  15.766  18.737 -0.1442  0.0807  0.2189
59044W        W 1982  11.065  16.791  20.443  0.0615 -0.5472 -0.1314
59045W        W 1983  10.948  18.858  23.859 -0.1950 -0.0410 -0.4259
59046W        W 1984   9.801  16.457  22.457  0.2671 -0.5050 -0.0400
59047W        W 1985  10.238  17.617  20.151 -0.1028 -0.1743 -0.1609
59048W        W 1986  12.347  16.675  18.317  0.0877  0.0101  0.2429
59049W        W 1987  12.078  16.285  18.199  0.2853 -0.0999  0.0846
59050W        W 1988  12.921  16.749  20.337 -0.0905 -0.0591 -0.1834
59051W        W 1989  12.279  17.085  18.866 -0.0416 -0.3553  0.1572
59052W        W 1990   9.904  17.995  20.777  0.0984  0.2892 -0.1498
59053W        W 1991  10.541  17.912  18.569  0.0557 -0.0445 -0.0420
59054W        W 1992  12.616  18.740  18.074  0.0778  0.2591  0.0577
59055W        W 1993   8.714  19.961  19.768  0.2476  0.0424 -0.0793
59056W        W 1994  13.868  17.114  19.778 -0.0436 -0.1852  0.1821
59057W        W 1995  13.207  14.242  18.739 -0.2906  0.1502 -0.0400
59058W        W 1996  14.211  14.437  17.820  0.1790  0.1176  0.2797
59059W        W 1997  13.391  14.748  19.183 -0.0089 -0.3979  0.0193
59060W        W 1998  11.611  17.889  20.015  0.4326  0.1561  0.0656
59061W        W 1999  11.146  16.611  22.415  0.1058  0.1516  0.2944
59062W        W 2000  11.428  14.661  18.290  0.0720 -0.2453 -0.0228
59063W        W 2001  10.132  16.483  22.871 -0.0458  0.0569 -0.0373
59064W        W 2002  14.291  14.161  19.484  0.0767 -0.2681 -0.0780
59065W        W 2003  10.529  19.589  24.145  0.0121  0.2560  0.1343
59066W        W 2004  13.906  17.825  17.215  0.1030 -0.1539 -0.5564
59067W        W 2005  10.056  15.443  19.689 -0.0109  0.2294  0.2990
59068W        W 2006  10.250  16.257  19.858  0.0628  0.2045  0.1615
59069W        W 2007  11.876  14.669  19.477 -0.0038 -0.1031  0.0336
59070W        W 2008  10.496  17.229  19.417  0.0874  0.1929  0.0106
59071W        W 2009  11.401  15.344  21.860 -0.3016  0.1102 -0.0406
59072W        W 2010  11.888  17.507  18.772 -0.1107  0.0347  0.1011
59073W        W 2011  11.913  16.125  20.159 -0.3230 -0.0851 -0.3909
59074W        W 2012   9.184  18.374  21.078  0.1174 -0.2508  0.0813
59075W        W 2013  10.493  15.376  19.475 -0.0290 -0.5204 -0.3195
59076W        W 2014  13.422  13.745  18.907 -0.1935  0.2510 -0.1941
59077W        W 2015  10.502  15.796  22.220  0.0777  0.0280 -0.2011
59078W        W 2016  12.417  13.741  20.356  0.1061 -0.0423 -0.1569
59079W        W 2017  10.687  15.822  21.394 -0.0378 -0.1428  0.5090
59080W        W 2018  13.217  15.540  18.515  0.2592  0.3417  0.4058
59081W        W 2019  10.352  17.757  21.044  0.3067 -0.1682 -0.1091
59082W        W 2020  11.807  15.734  24.091 -0.1653 -0.0180  0.1060
59083W        W 2021  11.529  17.457  18.426 -0.2238 -0.1952  0.3211
59084W        W 2022  12.802  16.659  18.150  0.0428 -0.3738  0.0391
59085W        W 2023  12.119  18.728  21.121 -0.0417 -0.2997  0.0949
59086W        W 2024  11.165  14.754  22.433 -0.0437 -0.2836  0.0563
59087W        W 2025  11.390  15.803  19.424 -0.4840  0.0418  0.1982
59088W        W 2026  10.349  16.082  20.470  0.0568 -0.0826  0.1541
59089W        W 2027  11.853  15.839  21.227 -0.4963  0.3641 -0.0288
59090W        W 2028  11.980  18.429  20.685 -0.2512 -0.3852  0.2789
59091W        W 2029  11.689  13.968  19.945  0.0688  0.2293 -0.0599
59092W        W 2030  13.273  16.986  16.679 -0.1692 -0.1457  0.1834
59093W        W 2031  12.777  15.344  18.890  0.4252  0.0106  0.1812
59094W        W 2032  11.231  19.412  18.166  0.1896 -0.1400 -0.0512
59095W        W 2033  13.064  15.327  18.080 -0.1630  0.1550 -0.1681
59096W        W 2034  12.613  17.127  19.970  0.2130  0.0021 -0.1028
59097W        W 2035   9.404  15.720  21.890 -0.1394 -0.1559  0.0935
59098W        W 2036  12.782  17.533  19.422 -0.2217 -0.1300  0.4261
59099W        W 2037  12.995  17.310  18.952  0.3412  0.2152  0.1728
59100W        W 2038  10.078  15.272  19.171  0.0033 -0.2143  0.0757
59101W        W 2039  11.680  15.938  21.799  0.2520 -0.1196 -0.1027
59102W        W 2040  11.437  17.018  19.850  0.2057  0.0319 -0.2104
59103W        W 2041  11.280  14.671  20.642  0.1401 -0.0401  0.2117
59104W        W 2042  12.914  14.543  19.145  0.1130  0.0074  0.3016
59105W        W 2043  10.920  17.067  16.061 -0.1543  0.0235 -0.3061
59106W        W 2044  13.663  13.375  21.055  0.0769  0.0172 -0.1392
59107W        W 2045   9.686  18.160  21.964 -0.4008 -0.0201  0.2387
59108W        W 2046  11.075  18.548  23.490 -0.2563  0.1404 -0.0286
59109W        W 2047   9.748  16.139  19.738  0.1294  0.2304 -0.3809
59110W        W 2048  12.042  16.321  19.592 -0.3845 -0.1889  0.0955
59111W        W 2049  11.650  16.711  19.460 -0.0004 -0.0819 -0.3310
59112W        W 2050  11.733  17.166  20.838 -0.0235  0.1062  0.2888
59113W        W 2051  12.311  17.264  19.356 -0.0644  0.4224  0.1157
59114W        W 2052  12.347  15.214  18.352 -0.0201 -0.1933 -0.1943
59115W        W 2053  13.442  16.205  16.770 -0.0724 -0.1977  0.0269
59116W        W 2054  11.042  15.533  21.068 -0.0808  0.2932  0.2774
59117W        W 2055  12.512  14.623  18.916  0.1759  0.2036 -0.0430
59118W        W 2056  11.869  15.302  18.717  0.0021 -0.0775  0.3224
59119W        W 2057  11.766  16.812  23.264  0.2110  0.1542  0.0029
59120W        W 2058  10.007  16.537  19.509  0.1305  0.1635  0.4336
59121W        W 2059  11.050  16.480  20.878 -0.0353  0.0260 -0.1803
59122W        W 2060  11.415  17.361  21.149 -0.0468  0.1386  0.2345
59123W        W 2061  13.246  13.784  23.424  0.2096 -0.0764  0.0558
59124W        W 2062  10.280  15.015  22.779  0.0718 -0.2316 -0.2120
59125W        W 2063   9.666  16.571  21.462  0.1021  0.0997  0.2858
59126W        W 2064  11.416  14.208  21.091  0.0635 -0.1041 -0.2946
59127W        W 2065  13.412  17.195  17.314 -0.2906 -0.3017 -0.4881
59128W        W 2066  11.818  15.999  18.659  0.2668  0.0633  0.3807
59129W        W 2067  10.020  14.538  20.719 -0.0388 -0.0518  0.0321
59130W        W 2068  12.483  16.156  17.951  0.1378  0.0215 -0.1233
59131W        W 2069  13.283  16.654  17.793 -0.1745  0.0559  0.0367
59132W        W 2070  10.767  15.181  21.626 -0.1861 -0.2054  0.0595
59133W        W 2071  13.214  19.120  18.796 -0.3597  0.2139  0.1863
59134W        W 2072   9.067  16.101  19.120 -0.5996 -0.2031  0.4788
59135W        W 2073  11.755  14.646  21.076  0.1042  0.0531 -0.0006
59136W        W 2074  13.002  14.433  21.859  0.0942 -0.1394  0.0565
59137W        W 2075  11.212  14.794  20.144 -0.1774  0.0806 -0.0755
59138W        W 2076  11.758  16.453  21.007 -0.0340 -0.2654 -0.1573
59139W        W 2077  12.109  17.178  20.245 -0.2380  0.1714 -0.1210
59140W        W 2078  12.020  19.543  18.484 -0.0236 -0.0051  0.3092
59141W        W 2079  12.492  18.475  20.821 -0.3161 -0.1689  0.2205
59142W        W 2080  10.982  17.098  21.973  0.1905 -0.2997 -0.3288
59143W        W 2081  11.588  14.783  22.699 -0.1071 -0.1325  0.2852
59144W        W 2082  13.798  15.182  17.248  0.2717 -0.0946  0.3220
59145W        W 2083  11.807  16.625  22.715 -0.3291 -0.2405  0.2267
59146W        W 2084  12.398  16.190  17.377 -0.2299  0.0146  0.0924
59147W        W 2085  12.021  14.614  18.858  0.1578 -0.1808 -0.1647
59148W        W 2086  11.055  16.235  20.413  0.0364 -0.0695 -0.3414
59149W        W 2087   9.798  15.009  23.231  0.0162  0.1516  0.4394
59150W        W 2088   9.704  17.977  22.946  0.0449  0.0813  0.1757
59151W        W 2089  10.068  15.087  21.789 -0.0231  0.0538  0.0522
59152W        W 2090  11.721  14.262  18.407 -0.1233 -0.3096  0.0728
59153W        W 2091  12.851  17.415  18.440 -0.1252  0.2393  0.0396
59154W        W 2092  11.145  16.123  22.472 -0.0998 -0.0191  0.2298
59155W        W 2093  10.301  14.917  20.470 -0.1705 -0.2439 -0.1311
59156W        W 2094  12.771  16.292  20.201 -0.0990 -0.0584 -0.0447
59157W        W 2095  11.559  15.564  20.947  0.1376 -0.3463  0.2714
59158W        W 2096  11.885  15.438  20.165  0.0992 -0.0370  0.0784
59159W        W 2097  13.867  15.957  18.265  0.1991  0.1588  0.1539
59160W        W 2098  13.181  18.467  19.465 -0.0476 -0.0412  0.1042
59161W        W 2099  12.607  16.611  21.485 -0.1508 -0.2454 -0.0726
59162W        W 2100  12.238  16.611  21.011 -0.0789  0.0688  0.0994
59163W        W 2101  13.100  16.529  19.404  0.3867 -0.0580 -0.0994
59164W        W 2102  11.357  15.606  22.718 -0.0075 -0.1348  0.3075
59165W        W 2103  10.813  17.496  20.097  0.0519  0.2766  0.0018
59166W        W 2104  11.782  17.228  19.207 -0.0231 -0.0429 -0.1814
59167W        W 2105  12.634  15.600  21.311  0.1305 -0.0472 -0.2886
59168W        W 2106  10.619  15.326  22.553 -0.0121  0.2357 -0.1439
59169W        W 2107  12.399  14.660  18.303 -0.2033 -0.2000 -0.2485
59170W        W 2108  12.323  19.933  21.598  0.1556 -0.0322 -0.1192
59171W        W 2109   9.804  17.691  20.377  0.2075 -0.2904  0.0093
59172W        W 2110  12.649  17.640  25.440 -0.3251 -0.0317 -0.0593
59173W        W 2111  12.533  15.354  24.188 -0.0172 -0.2289 -0.0846
59174W        W 2112  13.474  14.117  21.802 -0.0748 -0.0370 -0.0982
59175W        W 2113  13.138  15.706  21.407  0.0751  0.0852  0.1104
59176W        W 2114  10.661  15.161  24.063 -0.0990  0.0394  0.0210
59177W        W 2115  12.930  17.666  21.597 -0.3423  0.1116  0.1088
59178W        W 2116   9.839  15.457  25.808  0.0434  0.4057  0.1400
59179W        W 2117  12.608  17.031  22.414  0.0417 -0.1396 -0.2526
59180W        W 2118  12.311  17.014  21.388 -0.1252 -0.2217  0.2711
59181W        W 2119  13.507  16.686  24.964  0.2285 -0.0224  0.0175
59182W        W 2120  13.381  18.209  25.448  0.0913  0.1139  0.0246
59183W        W 2121  10.376  15.659  22.839 -0.2936  0.0948 -0.0728
59184W        W 2122  10.482  13.934  24.553 -0.1703 -0.2362 -0.1250
59185W        W 2123  12.331  15.781  24.446 -0.0461 -0.0525  0.0269
59186W        W 2124  11.614  16.822  22.255 -0.1014  0.0791 -0.3210
59187W        W 2125  12.980  16.244  25.670 -0.0726  0.0501  0.0507
59188W        W 2126  12.116  16.230  24.428  0.0124 -0.1559  0.0410
59189W        W 2127  11.468  17.894  24.077  0.2842  0.0781 -0.1545
59190W        W 2128  12.372  14.643  25.013 -0.0828 -0.0006  0.0004
59191W        W 2129  13.926  15.739  24.781  0.0440 -0.1941  0.2181
59192W        W 2130  11.412  18.223  23.230 -0.1268  0.1015 -0.3232
59193W        W 2131  11.624  17.087  22.724  0.0781  0.3546 -0.0377
59194W        W 2132  10.788  16.195  26.285 -0.2039  0.0998  0.0467
59195W        W 2133  11.688  17.043  26.050  0.0977  0.2863 -0.0588
59196W        W 2134  13.609  14.973  22.079 -0.0389  0.0452  0.0687
59197W        W 2135  13.272  16.654  20.995 -0.0052 -0.1307  0.1816
59198W        W 2136  11.860  17.371  23.372  0.4696  0.0932  0.0667
59199W        W 2137  12.250  18.138  23.040  0.0575 -0.3210  0.1219
59200W        W 2138  14.451  15.305  25.748 -0.3041 -0.3575 -0.0194
59201W        W 2139  11.427  16.641  24.201  0.2694 -0.0658 -0.2430
59202W        W 2140  10.862  17.902  24.585 -0.1635  0.1325 -0.0531
59203W        W 2141  11.963  18.814  23.993  0.1216 -0.1376 -0.2192
59204W        W 2142  11.597  17.547  26.061  0.1369 -0.0649  0.0965
59205W        W 2143  10.009  17.520  22.977 -0.0407 -0.0794 -0.2185
59206W        W 2144  12.780  17.206  26.315  0.1742 -0.0254 -0.2729
59207W        W 2145  12.898  17.147  24.877 -0.1659  0.1257  0.3622
59208W        W 2146  13.337  16.220  24.119  0.1016  0.1970 -0.2154
59209W        W 2147  12.089  16.363  23.054  0.0172 -0.1470  0.1838
59210W        W 2148   9.855  17.932  22.410  0.2015  0.1961 -0.0796
59211W        W 2149  12.427  17.053  24.853 -0.0226 -0.1725  0.3141
59212W        W 2150  13.040  16.653  24.260  0.0001  0.1544 -0.0275
59213W        W 2151  11.249  16.145  24.868  0.0366 -0.0541  0.2081
59214W        W 2152  13.315  13.633  25.664 -0.1274 -0.1347 -0.1436
59215W        W 2153  10.990  20.026  24.107 -0.0001 -0.1665 -0.2297
59216W        W 2154  13.210  15.064  20.648  0.0271 -0.1276 -0.0952
59217W        W 2155  12.786  13.978  22.689  0.0662 -0.1142 -0.1617
59218W        W 2156  13.181  15.244  22.187  0.1302 -0.0264 -0.6433
59219W        W 2157  13.608  15.213  22.558  0.0005 -0.1034  0.0788
59220W        W 2158  12.483  16.568  25.370 -0.1890 -0.1073  0.0790
59221W        W 2159  12.951  16.230  25.087  0.0425  0.1510 -0.1173
59222W        W 2160  13.404  16.924  24.522  0.2395  0.0665 -0.0846
59223W        W 2161  12.518  16.380  22.769 -0.0262  0.1552 -0.1582
59224W        W 2162  13.562  15.263  25.664  0.2780  0.1515  0.2139
59225W        W 2163  11.127  17.036  23.991 -0.1396  0.3028  0.0588
59226W        W 2164  11.489  16.375  23.370 -0.1384 -0.1033 -0.2186
59227W        W 2165  12.777  17.316  22.029  0.2260 -0.0858 -0.2271
59228W        W 2166  10.990  17.642  21.687 -0.1205 -0.0462 -0.1159
59229W        W 2167  12.518  16.307  24.865  0.0388  0.1194  0.0896
59230W        W 2168   9.813  17.213  28.227 -0.1513  0.3453 -0.3086
59231W        W 2169  12.723  16.731  27.407 -0.1009 -0.1835  0.1284
59232W        W 2170  11.989  14.224  21.364 -0.2644  0.1028 -0.2041
59233W        W 2171  11.834  17.255  27.560 -0.0056 -0.0532  0.3394
59234W        W 2172  14.227  14.954  23.413 -0.0265 -0.1278  0.1946
59235W        W 2173  12.341  16.468  27.016 -0.2433  0.2381 -0.0395
59236W        W 2174  13.442  16.887  23.216  0.0448  0.0999  0.0747
59237W        W 2175  13.203  17.080  20.714  0.0175  0.1703 -0.1922
59238W        W 2176  13.054  14.402  22.669 -0.1171 -0.0176 -0.1610
59239W        W 2177  13.890  15.439  24.388 -0.0399  0.1419  0.0037
59240W        W 2178  12.578  15.886  22.984  0.0354  0.0104 -0.2982
59241W        W 2179  11.296  16.710  22.999 -0.2303 -0.0435  0.1172
59242W        W 2180  11.766  17.291  25.605  0.0250  0.1534  0.1282
59243W        W 2181  13.560  16.590  26.108  0.3061 -0.1304 -0.0760
59244W        W 2182  13.046  15.766  26.234 -0.0422 -0.0484 -0.3098
59245W        W 2183  11.138  19.190  23.588  0.1538  0.0708  0.0839
59246W        W 2184  10.369  16.923  25.048  0.1856 -0.0103 -0.0677
59247W        W 2185  11.323  16.845  23.459  0.0064  0.3477  0.1680
59248W        W 2186  12.578  14.910  27.434 -0.2215  0.0861  0.3219
59249W        W 2187  11.702  16.786  25.598 -0.0485  0.5269  0.3495
59250W        W 2188  12.936  14.691  21.454 -0.0022 -0.0367 -0.4259
59251W        W 2189  10.688  14.925  26.937 -0.0195 -0.0975  0.1166
59252W        W 2190  13.440  15.247  24.130  0.0689 -0.3243 -0.1351
59253W        W 2191  11.691  16.449  24.665  0.1208  0.0011 -0.2170
59254W        W 2192  13.994  15.017  21.396  0.2250 -0.0445  0.5450
59255W        W 2193  11.801  16.253  19.129  0.0048 -0.0796 -0.4039
59256W        W 2194  12.158  15.065  25.790  0.1745  0.0196  0.0721
59257W        W 2195  11.444  15.697  24.996  0.1642 -0.0394 -0.0079
59258W        W 2196  11.617  15.285  27.184  0.1942 -0.1079 -0.1208
59259W        W 2197  11.601  16.370  25.168  0.2078 -0.0820 -0.0865
59260W        W 2198  13.923  15.776  22.498 -0.1063 -0.1303 -0.0017
59261W        W 2199  11.661  16.203  22.948  0.0673 -0.0035  0.1847
59262W        W 2200  11.674  15.941  24.559  0.1755 -0.0956 -0.0319
59263W        W 2201  11.316  16.166  24.341  0.0236  0.2571  0.1080
59264W        W 2202  13.433  15.456  24.587  0.0857  0.0737  0.1496
59265W        W 2203  12.864  16.126  22.050  0.0108  0.0184  0.1714
59266W        W 2204  14.580  18.889  24.391  0.0259  0.1540 -0.1009
59267W        W 2205  11.228  16.218  26.058 -0.3644 -0.1492  0.1556
59268W        W 2206  12.939  14.866  24.976  0.0293 -0.2114 -0.2733
59269W        W 2207  12.795  18.851  23.326  0.0532 -0.1633 -0.0726
59270W        W 2208  13.088  17.187  24.207 -0.0578 -0.1329  0.1650
59271W        W 2209  13.130  15.755  22.262  0.2822  0.1907 -0.1284
59272W        W 2210  11.310  17.216  23.117 -0.3012  0.1407  0.1421
59273W        W 2211  12.038  17.689  27.679 -0.0827  0.2706 -0.0476
59274W        W 2212  13.370  15.953  25.797 -0.0727 -0.1066 -0.2602
59275W        W 2213  12.568  14.943  25.463 -0.1501 -0.0969 -0.0696
59276W        W 2214  13.126  16.575  23.693  0.1251 -0.0349  0.1371
59277W        W 2215  12.136  16.446  23.543 -0.2226 -0.0658 -0.1421
59278W        W 2216  12.304  18.049  23.577  0.0195  0.0187  0.3982
59279W        W 2217  11.544  17.588  23.680 -0.1357  0.1191  0.1952
59280W        W 2218  11.095  15.271  24.395  0.0068 -0.2174 -0.0763
59281W        W 2219  11.849  17.963  23.453  0.1529  0.0473 -0.0206
59282W        W 2220  12.990  15.991  22.674 -0.4415 -0.3464 -0.0824
59283W        W 2221  11.920  17.322  26.648  0.0450  0.0361 -0.3685
59284W        W 2222  14.659  15.263  24.842 -0.2181 -0.1245 -0.1543
59285W        W 2223  10.396  17.362  23.227 -0.1105 -0.1032 -0.0511
59286W        W 2224  11.759  18.426  26.374 -0.1915 -0.3713  0.0202
59287W        W 2225  12.253  14.856  22.815 -0.1253  0.3107 -0.0017
59288W        W 2226  13.427  14.372  21.351  0.0245  0.0144 -0.1390
59289W        W 2227  13.148  16.230  23.164 -0.2668 -0.0880 -0.1396
59290W        W 2228  12.967  14.583  23.727 -0.0095 -0.0435 -0.0637
59291W        W 2229  13.104  12.954  23.226 -0.0621  0.0192 -0.1738
59292W        W 2230  12.733  17.053  27.785  0.0284  0.1397  0.0206
59293W        W 2231  11.669  16.930  25.018  0.2984 -0.4631  0.1835
59294W        W 2232  12.220  15.549  23.806  0.0801  0.2204 -0.1331
59295W        W 2233  11.096  17.128  25.885  0.1292 -0.2158  0.0978
59296W        W 2234  14.014  16.337  26.127 -0.2109  0.1773 -0.0367
59297W        W 2235  12.279  17.619  21.230 -0.0012  0.0772  0.1355
59298W        W 2236  12.572  14.546  26.611  0.1337 -0.1989  0.1469
59299W        W 2237  11.963  14.675  22.390  0.1458  0.2693  0.0033
59300W        W 2238  11.551  15.432  24.532  0.2835 -0.1714  0.1171
59301W        W 2239  10.449  17.767  22.785 -0.1817  0.1949  0.4448
59302W        W 2240  13.024  15.149  23.817  0.0192 -0.3955 -0.1695
59303W        W 2241  12.880  15.512  22.650 -0.0687  0.1936 -0.2429
59304W        W 2242  11.897  13.615  26.007 -0.1813  0.2182 -0.1196
59305W        W 2243  14.344  16.341  25.531  0.4732  0.2534  0.0345
59306W        W 2244  13.574  15.517  25.174 -0.1912  0.0962 -0.0102
59307W        W 2245  10.938  15.671  22.968 -0.3106  0.0550 -0.0754
59308W        W 2246  12.348  14.555  24.533  0.1030 -0.1308 -0.4079
59309W        W 2247  13.038  15.150  25.431  0.0462 -0.4809 -0.0594
59310W        W 2248  11.201  17.996  27.787 -0.0738 -0.0432 -0.3249
59311W        W 2249  14.110  18.320  23.527  0.1727  0.0727 -0.1436
59312W        W 2250  12.339  15.368  22.631 -0.1509  0.0450  0.0417
59313W        W 2251  13.510  14.893  24.544 -0.0735 -0.0880 -0.3421
59314W        W 2252  12.409  17.240  23.313  0.0947  0.0883  0.0225
59315W        W 2253  11.221  20.433  23.901 -0.3174  0.2636 -0.1123
59316W        W 2254  11.390  17.343  21.705 -0.1025 -0.0438  0.1819
59317W        W 2255  12.921  14.562  24.591 -0.2561 -0.1305 -0.4916
59318W        W 2256  13.267  17.797  24.256 -0.1354 -0.1233 -0.1227
59319W        W 2257  11.793  18.278  21.305  0.1966  0.2242  0.0334
59320W        W 2258  14.580  16.885  24.417  0.0222  0.1559  0.2889
59321W        W 2259  11.608  17.153  23.965  0.4191  0.0206 -0.0955
59322W        W 2260  13.338  14.738  23.241 -0.1955  0.2619  0.1493
59323W        W 2261  10.566  16.990  24.211 -0.0430 -0.1699  0.3650
59324W        W 2262  11.351  17.704  24.525 -0.0349  0.3141  0.1213
59325W        W 2263  11.376  17.752  23.065  0.0107 -0.0594 -0.2981
59326W        W 2264  12.650  14.445  24.142 -0.1903 -0.0098  0.0384
59327W        W 2265  13.122  15.282  25.988  0.0593  0.0115 -0.2200
59328W        W 2266  12.044  15.386  24.328 -0.0007  0.1235 -0.2758
59329W        W 2267   9.163  18.656  26.908  0.1352 -0.0350 -0.0367
59330W        W 2268  12.663  16.262  23.272 -0.0878 -0.0887 -0.1219
59331W        W 2269  13.879  13.883  20.428 -0.3787  0.1582  0.0154
59332W        W 2270  13.015  17.012  23.433 -0.1426 -0.1927 -0.0238
59333W        W 2271  13.892  15.627  25.641 -0.0651  0.4722  0.0197
59334W        W 2272  10.695  16.921  22.329  0.2129  0.2005 -0.0209
59335W        W 2273  13.583  16.020  23.374 -0.1270  0.1973 -0.1446
59336W        W 2274  13.435  15.009  25.175  0.0454 -0.1026  0.0702
59337W        W 2275  10.103  16.804  24.564 -0.2909  0.4404 -0.2483
59338W        W 2276  13.574  16.659  24.182  0.1841  0.3340 -0.4311
59339W        W 2277  12.098  16.011  22.728 -0.1185 -0.0064 -0.0264
59340W        W 2278  12.449  16.645  23.972 -0.0021  0.0623 -0.0463
59341W        W 2279  12.394  15.993  26.242  0.0648 -0.0019  0.3894
59342W        W 2280  13.443  17.081  23.828  0.2328 -0.3109 -0.0260
59343W        W 2281  13.839  15.195  24.849 -0.1215 -0.1680 -0.1774
59344W        W 2282  10.252  15.248  24.418  0.3615  0.2996  0.2826
59345W        W 2283  13.295  16.614  25.600  0.0343 -0.1500  0.0358
59346W        W 2284  12.924  15.405  24.491 -0.1825 -0.0944 -0.1310
59347W        W 2285  13.878  16.281  24.062 -0.1211  0.2624 -0.0235
59348W        W 2286  13.301  17.519  27.298  0.0590  0.2665 -0.1536
59349W        W 2287  14.125  14.009  24.987  0.2324 -0.3315  0.2069
59350W        W 2288  12.495  19.545  21.254 -0.2895 -0.0501 -0.2502
59351W        W 2289  13.022  15.864  24.362 -0.0014 -0.1671 -0.0307
59352W        W 2290  10.899  16.138  24.032  0.3335 -0.1159 -0.4667
59353W        W 2291  11.626  15.247  25.173  0.2047  0.3418 -0.1007
59354W        W 2292  11.033  17.527  23.416  0.1162  0.1418 -0.1127
59355W        W 2293  12.865  14.669  25.810 -0.0912 -0.0507  0.4171
59356W        W 2294  11.408  17.296  26.478  0.1253 -0.1642  0.0329
59357W        W 2295  10.372  17.048  22.792 -0.0635 -0.1354  0.0113
59358W        W 2296  11.570  16.892  26.710  0.0810 -0.3347 -0.0308
59359W        W 2297  12.951  14.065  21.435 -0.0683 -0.1410 -0.0561
59360W        W 2298  12.814  15.837  24.829  0.3075  0.0929  0.1096
59361W        W 2299  15.258  14.491  25.019 -0.3787  0.1038 -0.3026
59362W        W 2300  12.431  16.343  21.911 -0.0532  0.3324 -0.0960
59363W        W 2301  14.716  15.775  25.745 -0.1947 -0.2482  0.2586
59364W        W 2302  11.501  14.214  24.404  0.4386 -0.1217 -0.0608
59365W        W 2303  10.520  16.055  25.826 -0.0598 -0.0427 -0.2852
59366W        W 2304  14.137  17.188  25.606 -0.0391  0.2139  0.2517
59367W        W 2305  12.491  17.951  27.432 -0.3148  0.1171 -0.0257
59368W        W 2306  12.421  15.922  23.526 -0.2623 -0.1199 -0.0904
59369W        W 2307  11.838  15.638  22.918 -0.0270 -0.0466  0.1529
59370W        W 2308  12.974  15.898  23.506  0.1007 -0.3123 -0.2861
59371W        W 2309  12.161  17.869  22.073  0.0519  0.0623 -0.3401
59372W        W 2310  12.755  16.695  24.731  0.1221 -0.3295 -0.1520
59373W        W 2311  12.952  15.617  21.842  0.1415 -0.0069  0.0591
59374W        W 2312  12.157  17.797  22.674 -0.0482  0.0218  0.0517
59375W        W 2313  12.772  16.267  23.875  0.1750 -0.0749  0.1093
59376W        W 2314  12.193  15.525  27.471  0.0252 -0.1616  0.2528
59377W        W 2315  12.357  17.436  21.746 -0.0671 -0.0221 -0.2197
59378W        W 2316  12.390  15.324  21.727  0.0162 -0.0275 -0.1209
59379W        W 2317  13.372  15.913  24.831  0.1041 -0.1206 -0.1725
59380W        W 2318  15.057  15.757  25.413 -0.0941  0.0981 -0.2041
59381W        W 2319  12.519  17.388  26.821 -0.1690 -0.1368  0.3186
59382W        W 2320  10.314  15.592  27.513  0.2251  0.1175  0.0968
59383W        W 2321  12.620  17.710  22.549 -0.0249  0.1399  0.1212
59384W        W 2322  13.878  14.637  23.856  0.2299  0.1025  0.0248
59385W        W 2323  14.114  15.256  22.831  0.0468 -0.0922  0.2565
59386W        W 2324  10.870  16.205  24.550  0.0746 -0.0153 -0.1887
59387W        W 2325  14.395  15.981  24.819 -0.0196  0.0944 -0.0727
59388W        W 2326  12.293  14.535  23.868 -0.0749 -0.2554  0.1799
59389W        W 2327  13.076  15.818  25.299 -0.0365  0.0301  0.1732
59390W        W 2328  12.464  18.626  22.925 -0.1262 -0.2981  0.1118
59391W        W 2329  12.556  17.483  24.398  0.2661  0.0754 -0.1006
59392W        W 2330  12.694  15.288  22.164 -0.1831  0.1300 -0.1287
59393W        W 2331  10.886  16.434  25.031 -0.2651 -0.0898 -0.0970
59394W        W 2332  10.742  17.517  26.752  0.1001  0.3605  0.0515
59395W        W 2333  11.450  15.811  23.257  0.1251  0.0868 -0.1086
59396W        W 2334  12.099  16.356  21.396 -0.0504 -0.0253 -0.0992
59397W        W 2335  14.197  18.510  24.596  0.1331 -0.1185 -0.4104
59398W        W 2336  13.867  17.035  24.778  0.1302  0.0624 -0.1280
59399W        W 2337  13.063  14.298  23.269 -0.2101  0.0767 -0.1631
59400W        W 2338  12.366  18.201  22.348  0.3764 -0.0092 -0.2780
59401W        W 2339  12.810  13.401  24.316  0.1414 -0.3025  0.1443
59402W        W 2340  12.375  18.417  23.949  0.0389  0.0983 -0.0914
59403W        W 2341  11.719  17.204  27.105 -0.2145 -0.0776  0.2563
59404W        W 2342  10.516  16.072  23.650 -0.0064  0.1192 -0.0350
59405W        W 2343  12.810  14.942  24.265 -0.2067 -0.0144  0.1457
59406W        W 2344  12.868  15.136  21.675 -0.0186  0.1348 -0.0251
59407W        W 2345  12.673  17.060  23.835  0.4801  0.1220  0.0992
59408W        W 2346  14.409  15.487  24.392 -0.0970  0.3106 -0.0302
59409W        W 2347  12.931  18.109  25.664 -0.0355 -0.1336  0.0542
59410W        W 2348  12.133  16.426  26.398 -0.2791 -0.0240 -0.1861
59411W        W 2349  14.059  17.998  25.200 -0.0095 -0.5968  0.1652
59412W        W 2350  12.102  16.553  24.948 -0.0652 -0.4465  0.2687
59413W        W 2351  11.287  17.567  26.870 -0.0438  0.2817 -0.1782
59414W        W 2352  13.988  16.262  24.842  0.2591  0.2252  0.0245
59415W        W 2353  12.210  16.861  22.996 -0.0415 -0.0972  0.0021
59416W        W 2354  12.541  14.333  25.797 -0.0324 -0.1477 -0.0030
59417W        W 2355  12.558  14.964  21.280  0.0050  0.1740 -0.2164
59418W        W 2356  12.020  17.436  24.586  0.3823 -0.0209 -0.1303
59419W        W 2357  11.137  17.096  26.875  0.2238 -0.0593 -0.4657
59420W        W 2358  12.809  17.571  23.984 -0.2274 -0.1404  0.2712
59421W        W 2359  12.688  16.522  22.318  0.4370 -0.2449 -0.1075
59422W        W 2360  12.584  14.721  23.388  0.3961  0.2622 -0.0445
59423W        W 2361  11.930  16.645  24.197 -0.0299 -0.1908  0.1132
59424W        W 2362   9.694  17.511  23.877  0.0846 -0.0543 -0.2706
59425W        W 2363  11.848  18.106  22.295  0.0039 -0.1172  0.0731
59426W        W 2364  10.571  18.389  23.264  0.1887  0.1573 -0.1523
59427W        W 2365  15.031  18.721  24.667 -0.0196  0.2757 -0.3911
59428W        W 2366  12.409  14.132  23.503 -0.0134  0.3660  0.1289
59429W        W 2367  12.843  16.823  21.959  0.0564 -0.1660 -0.0028
59430W        W 2368  12.857  14.739  22.963  0.1514 -0.2864  0.1544
59431W        W 2369  14.592  18.926  25.818 -0.1658  0.0972  0.0400
59432W        W 2370  11.711  16.280  24.012 -0.3394 -0.0880 -0.1057
59433W        W 2371  11.394  15.329  23.935 -0.1140 -0.2027  0.1055
59434W        W 2372  13.420  16.190  25.254 -0.1830  0.1218  0.0458
59435W        W 2373  16.024  16.218  26.889  0.1347 -0.0693 -0.1585
59436W        W 2374  12.034  17.842  26.622  0.2007  0.2016 -0.0122
59437W        W 2375  12.536  15.523  25.382  0.0888 -0.3141 -0.3587
59438W        W 2376  12.144  16.958  23.728  0.1993  0.2956 -0.1587
59439W        W 2377  11.435  16.833  21.739 -0.0091  0.0337  0.0115
59440W        W 2378  12.681  15.469  23.611 -0.1171 -0.2017 -0.0140
59441W        W 2379  13.746  17.790  24.226 -0.1832 -0.0869  0.0947
59442W        W 2380  12.674  17.005  24.364  0.1925 -0.5803 -0.3386
59443W        W 2381  12.348  18.539  25.675  0.2561  0.1951 -0.3871
59444W        W 2382  11.387  15.965  23.797  0.0352  0.0356 -0.1534
59445W        W 2383  11.513  16.073  27.091 -0.1309  0.1334  0.1293
59446W        W 2384  14.404  13.596  23.561  0.1033  0.0837 -0.2557
59447W        W 2385  10.426  16.398  25.216 -0.2315  0.1674  0.0719
59448W        W 2386  12.602  16.237  24.389 -0.2240  0.1026 -0.1618
59449W        W 2387  12.209  15.836  25.688  0.2241  0.0521  0.2419
59450W        W 2388  13.570  15.595  22.167 -0.0654  0.1759  0.2345
59451W        W 2389  13.675  17.285  23.363 -0.0911 -0.0638 -0.0547
59452W        W 2390  12.067  16.772  20.543  0.3332 -0.0470 -0.2016
59453W        W 2391  13.995  17.945  25.823 -0.3592  0.0034  0.0180
59454W        W 2392  10.464  14.458  24.814  0.0744  0.2466 -0.2020
59455W        W 2393  11.949  14.201  23.673  0.0613  0.1561 -0.0853
59456W        W 2394  10.346  16.343  24.457  0.2281  0.3006  0.0137
59457W        W 2395  12.104  16.300  25.509  0.1205 -0.3934  0.2144
59458W        W 2396  13.818  18.115  24.783  0.0335 -0.2097  0.0568
59459W        W 2397  12.943  14.099  23.728  0.2952 -0.0225  0.0112
59460W        W 2398  12.620  15.978  21.622  0.3162  0.1376 -0.1185
59461W        W 2399  13.024  16.267  21.570  0.2487 -0.0023 -0.0150
59462W        W 2400  13.486  17.335  22.164  0.0958 -0.2678  0.2071
59463W        W 2401  12.319  16.683  24.464  0.0571  0.1651  0.1865
59464W        W 2402  12.563  15.425  24.878 -0.1914 -0.0524 -0.1207
59465W        W 2403  12.693  16.864  23.054 -0.4222  0.1347  0.2124
59466W        W 2404  11.473  15.055  23.583 -0.2505 -0.1469  0.2868
59467W        W 2405  12.579  15.510  26.325  0.1010  0.1687  0.0280
59468W        W 2406  12.213  17.180  24.173 -0.3041  0.1445 -0.1605
59469W        W 2407  14.491  15.017  24.224 -0.4975  0.1105 -0.0275
59470W        W 2408  12.353  17.447  22.265  0.1805  0.0593 -0.0320
59471W        W 2409  14.804  14.364  25.244  0.0019  0.0409 -0.3031
59472W        W 2410  12.613  17.087  25.306  0.4624  0.2533  0.1258
59473W        W 2411  12.274  17.437  25.591  0.4191  0.0180  0.0204
59474W        W 2412  10.691  16.580  22.750  0.1657  0.1925  0.2126
59475W        W 2413  12.494  17.916  24.116 -0.1033  0.1231  0.0245
59476W        W 2414  10.987  17.803  22.650  0.3433 -0.2650 -0.0368
59477W        W 2415  11.435  17.889  22.522 -0.0021 -0.0566 -0.1593
59478W        W 2416  12.370  16.810  21.875  0.3221  0.3303  0.1110
59479W        W 2417  12.575  15.194  23.040 -0.2914 -0.0573 -0.2480
59480W        W 2418  13.102  15.614  23.971 -0.0955  0.1601  0.1882
59481W        W 2419  12.958  15.071  23.321 -0.2637 -0.0949 -0.2775
59482W        W 2420  13.450  15.678  22.647  0.0910  0.2014 -0.3080
59483W        W 2421  12.046  16.540  25.909  0.3796  0.0862  0.0708
59484W        W 2422  10.643  16.585  23.767 -0.1350  0.0271 -0.0091
59485W        W 2423  10.188  18.360  22.937 -0.1126 -0.3598  0.1031
59486W        W 2424  10.729  16.775  24.672  0.1273  0.0018 -0.1879
59487W        W 2425  13.444  14.584  27.465 -0.1971 -0.0842 -0.0827
59488W        W 2426  11.059  15.266  27.045 -0.3006  0.1454  0.2187
59489W        W 2427  10.546  16.768  23.255  0.1733  0.1403 -0.0018
59490W        W 2428  11.048  15.763  24.716 -0.0173  0.1014 -0.0192
59491W        W 2429  12.084  14.086  24.705  0.0007  0.1269  0.0805
59492W        W 2430  11.099  14.607  24.918 -0.0426 -0.1115 -0.0703
59493W        W 2431  13.418  16.807  22.669  0.0549  0.2985 -0.4667
59494W        W 2432  12.955  16.597  22.764  0.3315 -0.1758 -0.2724
59495W        W 2433  11.116  15.701  24.159  0.1385  0.5233 -0.0078
59496W        W 2434  14.947  15.915  24.341  0.0301 -0.1113 -0.2393
59497W        W 2435  10.603  17.910  23.548 -0.0714 -0.2871 -0.2860
59498W        W 2436  13.840  15.530  23.509 -0.0664  0.1881 -0.3012
59499W        W 2437  14.150  15.120  26.297 -0.0012  0.0185  0.0122
59500W        W 2438  11.095  14.764  24.428 -0.0627 -0.2405  0.1364
59501W        W 2439  12.797  17.446  23.517 -0.1537  0.0691  0.0740
59502W        W 2440  11.685  17.646  21.921  0.0121  0.3357  0.0501
59503W        W 2441  12.338  19.608  24.836  0.1051 -0.3776  0.0623
59504W        W 2442  13.247  18.575  24.985 -0.4456  0.0202  0.3438
59505W        W 2443  12.029  18.065  27.135 -0.1093 -0.2629  0.1495
59506W        W 2444  11.039  13.138  26.895 -0.1875  0.3255 -0.1026
59507W        W 2445  13.375  16.713  22.083  0.0522  0.4422 -0.0302
59508W        W 2446  13.265  17.827  22.832 -0.1140  0.0702  0.1865
59509W        W 2447  14.455  14.408  22.432  0.1414  0.0193 -0.0300
59510W        W 2448  13.123  17.181  21.217  0.2156  0.0918  0.0013
59511W        W 2449  11.227  13.878  26.435 -0.2379  0.2787 -0.0707
59512W        W 2450  12.249  17.666  26.176 -0.1014  0.2007 -0.1836
59513W        W 2451  11.604  14.199  24.899  0.0290 -0.3475  0.1771
59514W        W 2452  12.494  15.978  22.454  0.0286  0.2482 -0.0346
59515W        W 2453  12.006  16.087  24.890  0.0059  0.2098 -0.1956
59516W        W 2454  11.879  15.076  23.111  0.0911  0.2963 -0.1819
59517W        W 2455  13.616  15.834  24.329 -0.1950  0.1809 -0.2523
59518W        W 2456  12.184  17.547  23.785  0.0155  0.1513  0.1599
59519W        W 2457  15.073  16.400  24.303 -0.1475  0.0874 -0.1012
59520W        W 2458  12.330  14.966  22.247 -0.1038  0.0305 -0.1186
59521W        W 2459  12.400  15.487  19.934  0.2973  0.1739 -0.0059
59522W        W 2460  12.736  18.151  22.764 -0.0852  0.0425 -0.1578
59523W        W 2461  14.354  18.364  25.900 -0.0747 -0.1522 -0.0795
59524W        W 2462  14.029  19.325  25.127 -0.0306 -0.1918  0.1465
59525W        W 2463  13.131  17.047  22.361 -0.0876 -0.1160 -0.1620
59526W        W 2464  10.229  14.569  27.002 -0.0986  0.0673  0.2232
59527W        W 2465  12.550  16.736  23.519  0.2160 -0.1583 -0.1514
59528W        W 2466  10.938  16.486  23.371 -0.0841 -0.1941  0.2456
59529W        W 2467  11.921  13.806  26.537  0.1121 -0.0512  0.1876
59530W        W 2468  12.198  15.135  23.464  0.0231  0.3219  0.1441
59531W        W 2469  11.885  18.641  25.836  0.1613 -0.0659 -0.0137
59532W        W 2470  13.979  17.033  23.773  0.0701 -0.2300  0.2151
59533W        W 2471  11.981  16.615  29.721 -0.1705 -0.0648 -0.0115
59534W        W 2472  11.667  16.299  28.519  0.3698  0.0464  0.3449
59535W        W 2473  14.257  15.929  25.812  0.0676  0.0105 -0.1777
59536W        W 2474  14.605  15.812  26.840  0.4078 -0.2696 -0.0224
59537W        W 2475  10.405  16.143  28.237  0.1156  0.2838 -0.0348
59538W        W 2476  13.228  17.154  27.768  0.2229  0.3206  0.1157
59539W        W 2477  11.171  14.682  28.419  0.2090 -0.3689 -0.0462
59540W        W 2478  14.054  16.734  27.933  0.1768  0.0475  0.1437
59541W        W 2479  14.703  17.043  28.614  0.1758  0.2787  0.3141
59542W        W 2480  13.499  16.119  22.844  0.0792  0.3263 -0.1464
59543W        W 2481  12.287  14.066  29.497  0.0447  0.0277  0.4273
59544W        W 2482  13.430  17.511  28.953 -0.1979 -0.3105  0.0564
59545W        W 2483  12.832  15.040  28.394 -0.1684  0.2027 -0.1853
59546W        W 2484  12.816  13.347  27.630 -0.2554  0.1388 -0.3120
59547W        W 2485  12.868  16.221  29.481 -0.2809 -0.2364 -0.2898
59548W        W 2486  12.839  15.896  26.712 -0.1924 -0.2146 -0.2696
59549W        W 2487  12.716  15.791  29.178 -0.1510  0.0511 -0.0833
59550W        W 2488  13.002  15.702  27.486 -0.1220  0.4090  0.1336
59551W        W 2489  14.787  18.120  25.726 -0.0237 -0.0845 -0.0328
59552W        W 2490  11.842  15.486  29.207  0.0231 -0.2873 -0.2249
59553W        W 2491  13.577  14.317  28.791 -0.1067 -0.0604  0.3962
59554W        W 2492  13.838  17.565  28.307  0.1043  0.4565 -0.3160
59555W        W 2493  12.794  17.016  26.983  0.1678  0.1325  0.1480
59556W        W 2494  11.331  16.210  28.888  0.0113  0.0374  0.0540
59557W        W 2495  12.552  16.239  28.995 -0.7285  0.0337 -0.2050
59558W        W 2496  15.902  15.206  27.982  0.2352  0.1742  0.2992
59559W        W 2497  14.532  15.193  28.677  0.1341  0.1336 -0.0227
59560W        W 2498  11.493  18.291  28.988 -0.3024 -0.2271  0.1897
59561W        W 2499  13.879  15.927  26.628 -0.1141 -0.2761  0.2917
59562W        W 2500  13.975  15.491  29.587  0.0277  0.1866  0.1305
59563W        W 2501  12.593  17.394  28.839  0.1219  0.2427  0.1613
59564W        W 2502  11.952  18.563  29.840  0.1256  0.2179 -0.3317
59565W        W 2503  13.633  17.540  25.649  0.4303  0.0399 -0.1623
59566W        W 2504  14.308  17.689  26.567  0.0994  0.0958  0.1449
59567W        W 2505  14.453  17.180  29.040 -0.0857 -0.2647 -0.3022
59568W        W 2506  13.201  18.642  28.835 -0.0639  0.1427  0.1758
59569W        W 2507  13.322  18.279  26.842  0.1485  0.1307  0.3684
59570W        W 2508  13.689  18.877  29.038 -0.0074 -0.5342  0.2924
59571W        W 2509  12.895  17.371  30.990  0.1877  0.1994  0.1325
59572W        W 2510  12.616  15.302  30.748  0.0750 -0.0416  0.0439
59573W        W 2511  13.932  16.250  27.872  0.3290  0.5821  0.1936
59574W        W 2512  13.201  16.304  26.613  0.0537  0.0457  0.3080
59575W        W 2513  13.811  15.760  27.542 -0.0776 -0.0213  0.1285
59576W        W 2514  12.756  15.736  31.050  0.0957  0.3072  0.1969
59577W        W 2515  12.763  19.262  30.987  0.1351 -0.1542  0.1614
59578W        W 2516  14.096  14.953  31.514 -0.0800 -0.2378  0.1526
59579W        W 2517  12.425  16.335  27.551 -0.2302  0.1516  0.1575
59580W        W 2518  14.255  16.459  24.305  0.2499  0.1528  0.1419
59581W        W 2519  13.415  17.175  25.042  0.0778 -0.2673  0.0842
59582W        W 2520  13.645  15.426  26.562  0.0375  0.1456  0.1027
59583W        W 2521  12.888  16.610  28.611 -0.0756 -0.0809  0.1316
59584W        W 2522  11.631  17.733  30.383 -0.2561 -0.0452 -0.0808
59585W        W 2523  13.398  14.997  27.654 -0.0526 -0.1013  0.2240
59586W        W 2524  14.169  17.945  28.240  0.1121 -0.0086 -0.2038
59587W        W 2525  14.933  16.385  27.793 -0.0392  0.1302  0.0322
59588W        W 2526  12.996  15.408  28.695  0.1019  0.1726 -0.1104
59589W        W 2527  12.634  18.171  29.702  0.0357 -0.1644  0.2004
59590W        W 2528  12.123  17.856  28.193 -0.2764  0.4032  0.0257
59591W        W 2529  12.270  16.938  25.713  0.1358 -0.2329  0.2711
59592W        W 2530  14.492  17.712  25.586  0.0686 -0.0960  0.2682
59593W        W 2531  12.893  16.777  26.546 -0.0179  0.1094 -0.0373
59594W        W 2532  12.356  15.993  26.806  0.0718  0.0147  0.2158
59595W        W 2533  11.549  16.342  29.419 -0.0545  0.1206  0.3207
59596W        W 2534  12.493  15.739  29.596 -0.0518 -0.0021 -0.2396
59597W        W 2535  12.386  15.054  26.529  0.2164 -0.0977 -0.2099
59598W        W 2536  15.197  16.090  29.686  0.1814 -0.1819 -0.4215
59599W        W 2537  11.305  18.028  31.025  0.0196 -0.0179 -0.0665
59600W        W 2538  15.432  16.282  26.893  0.3175 -0.2098  0.0412
59601W        W 2539  14.782  15.239  29.709  0.1094  0.1010  0.0209
59602W        W 2540  14.939  16.361  26.848 -0.3596 -0.1033  0.2320
59603W        W 2541  13.354  17.430  24.577  0.4457  0.0044  0.0398
59604W        W 2542  16.241  16.646  26.628  0.3298 -0.1295  0.1840
59605W        W 2543  13.189  13.929  27.000 -0.2529 -0.1361  0.0929
59606W        W 2544  13.348  18.171  23.802  0.1059  0.2161 -0.1173
59607W        W 2545  13.556  16.088  26.245 -0.1617 -0.2198 -0.0200
59608W        W 2546  15.426  17.910  27.129 -0.2484 -0.0234  0.0987
59609W        W 2547  13.516  15.803  23.878  0.3070 -0.2308  0.1817
59610W        W 2548  11.652  18.166  30.603  0.1066  0.0809 -0.1318
59611W        W 2549  12.214  14.312  29.020 -0.1604 -0.1561  0.0831
59612W        W 2550  12.353  15.449  29.148  0.2606  0.1717  0.1530
59613W        W 2551  12.984  17.660  25.934 -0.3492 -0.1184  0.1515
59614W        W 2552  12.994  17.739  29.051  0.2132  0.1647  0.2120
59615W        W 2553  12.534  17.750  27.944  0.1887 -0.0006 -0.0282
59616W        W 2554  10.268  15.833  28.958  0.1741 -0.0279  0.1647
59617W        W 2555  11.642  16.577  28.973  0.0755 -0.0877  0.1403
59618W        W 2556  13.055  14.388  29.027  0.1418 -0.0367 -0.1985
59619W        W 2557  11.947  16.269  29.106 -0.2758  0.0197  0.2855
59620W        W 2558  14.251  15.496  28.222  0.0381  0.0511  0.1365
59621W        W 2559  12.935  17.445  28.139  0.0042  0.0172  0.5533
59622W        W 2560  14.682  18.640  24.996  0.1228  0.3848  0.0266
59623W        W 2561  15.479  15.877  24.465 -0.1462 -0.0919  0.4891
59624W        W 2562  13.062  17.934  23.401  0.0876  0.2992  0.1104
59625W        W 2563  11.109  15.968  29.639 -0.1684 -0.3737 -0.1650
59626W        W 2564  12.495  15.879  27.273  0.5302 -0.1947 -0.0881
59627W        W 2565  12.709  14.074  29.262 -0.3194  0.0992 -0.0018
59628W        W 2566  11.917  14.822  30.205 -0.0435 -0.2117  0.0638
59629W        W 2567  13.437  16.474  29.432  0.2187  0.1799  0.3538
59630W        W 2568  11.554  14.423  28.618 -0.1749  0.2442  0.0361
59631W        W 2569  14.535  14.844  26.587 -0.1938 -0.1182 -0.1784
59632W        W 2570  13.375  16.223  27.768  0.1321  0.1616 -0.0241
59633W        W 2571  11.399  17.725  28.937  0.0747  0.2371 -0.2512
59634W        W 2572  12.804  14.097  26.721 -0.3110  0.2480  0.4535
59635W        W 2573  13.144  16.912  26.010  0.1944  0.0426 -0.1844
59636W        W 2574  14.632  18.005  28.091 -0.0770  0.0596  0.0130
59637W        W 2575  14.569  18.168  25.214  0.0154 -0.0858  0.1520
59638W        W 2576  12.929  14.807  29.822 -0.2295 -0.3680  0.1963
59639W        W 2577  11.842  15.272  28.652 -0.0737  0.0544  0.0609
59640W        W 2578  11.480  19.416  28.266 -0.0443  0.0117 -0.0652
59641W        W 2579  13.763  14.766  27.944 -0.1996  0.0987  0.1078
59642W        W 2580  12.560  15.506  26.857  0.2849  0.3047 -0.0065
59643W        W 2581  14.454  16.953  27.701 -0.3295  0.0517 -0.1109
59644W        W 2582  13.654  16.331  24.521 -0.1102 -0.0681  0.1006
59645W        W 2583  11.797  17.461  28.954  0.0895 -0.0804 -0.0186
59646W        W 2584  13.411  15.187  28.092 -0.0763  0.1650 -0.2177
59647W        W 2585  15.377  16.381  28.339 -0.1141 -0.1497  0.3641
59648W        W 2586  12.352  14.704  26.066 -0.1063  0.0506 -0.2795
59649W        W 2587  11.403  14.206  27.623  0.2622 -0.1279 -0.0933
59650W        W 2588  15.669  17.585  27.538  0.3121  0.1622  0.0139
59651W        W 2589  11.047  19.222  28.962 -0.3266  0.0683 -0.1529
59652W        W 2590  13.439  17.252  28.188 -0.0027  0.2243 -0.5236
59653W        W 2591  12.565  17.942  25.909  0.0211 -0.0135 -0.0300
59654W        W 2592  14.114  15.481  28.662 -0.0385  0.0533 -0.0284
59655W        W 2593  11.834  15.716  30.293  0.0737  0.2549 -0.0348
59656W        W 2594  13.052  16.378  29.005 -0.2485  0.1610 -0.2755
59657W        W 2595  11.880  15.725  27.047  0.0724 -0.1212  0.1302
59658W        W 2596  12.246  17.645  30.403 -0.0579  0.2527  0.0084
59659W        W 2597  12.060  14.371  28.540 -0.0656  0.0763  0.0793
59660W        W 2598  14.245  15.467  25.057 -0.0482  0.0799 -0.0735
59661W        W 2599  12.603  15.242  29.784  0.2083  0.1477  0.1891
59662W        W 2600  15.756  16.232  25.803 -0.0258 -0.1823  0.5754
59663W        W 2601  13.659  14.158  24.908  0.1618 -0.1057 -0.2358
59664W        W 2602  13.822  14.763  26.033 -0.2360 -0.1431  0.0919
59665W        W 2603  12.498  17.395  30.020 -0.3691 -0.1193 -0.0859
59666W        W 2604  13.995  16.699  25.268  0.0556 -0.0096  0.0880
59667W        W 2605  12.710  16.530  27.885  0.1208 -0.0178  0.2059
59668W        W 2606  12.794  15.028  26.865  0.2510 -0.0822  0.1427
59669W        W 2607  16.188  17.503  26.423  0.0514  0.1302  0.2531
59670W        W 2608  12.247  17.489  29.237  0.0574  0.0513 -0.2786
59671W        W 2609  13.259  16.830  29.056 -0.1393  0.2324  0.0674
59672W        W 2610  14.033  17.861  27.115 -0.0173 -0.2069  0.1285
59673W        W 2611  13.221  14.317  28.460  0.4690 -0.4296 -0.1670
59674W        W 2612  14.159  16.413  27.070 -0.1214  0.0168  0.2361
59675W        W 2613  12.973  13.756  27.810 -0.0973  0.5444 -0.0347
59676W        W 2614  12.190  18.708  27.027 -0.1132 -0.0523 -0.1683
59677W        W 2615  14.303  16.186  26.525 -0.1262 -0.0990  0.0462
59678W        W 2616  13.813  15.393  27.891 -0.2266 -0.0069  0.0516
59679W        W 2617  13.247  14.021  30.924  0.4801  0.2973 -0.1758
59680W        W 2618  12.717  14.563  31.304  0.0387 -0.1797  0.0791
59681W        W 2619  13.614  16.946  25.451  0.1310 -0.2095  0.1442
59682W        W 2620  13.309  15.824  26.623  0.3427 -0.0495  0.0036
59683W        W 2621  12.909  16.236  26.151  0.0287  0.2687  0.0293
59684W        W 2622  13.602  15.166  28.701  0.0918 -0.0585  0.0870
59685W        W 2623  13.131  14.080  30.014  0.0312 -0.1737  0.1354
59686W        W 2624  12.331  18.248  31.701  0.1745 -0.0569  0.1964
59687W        W 2625  13.886  17.827  30.320 -0.0338 -0.0973  0.0624
59688W        W 2626  13.193  16.973  27.247  0.0330  0.2308 -0.1699
59689W        W 2627  13.883  15.632  30.940 -0.0245  0.0835 -0.2286
59690W        W 2628  14.265  15.016  24.682  0.0059  0.0920 -0.5095
59691W        W 2629  12.289  17.072  27.146 -0.1571 -0.0116 -0.0876
59692W        W 2630  12.459  17.924  26.860 -0.1183  0.4248 -0.1069
59693W        W 2631  13.649  15.310  27.343 -0.2384 -0.1602 -0.3157
59694W        W 2632  13.397  18.220  28.399 -0.0264  0.0763 -0.0457
59695W        W 2633  12.972  18.922  24.655  0.0138  0.0117  0.2266
59696W        W 2634  13.608  15.234  31.038 -0.2053 -0.0353 -0.1891
59697W        W 2635  12.007  16.288  27.810 -0.1837  0.0093 -0.0487
59698W        W 2636  15.356  14.874  28.751  0.1938 -0.2063 -0.2343
59699W        W 2637  12.556  18.033  29.166 -0.1232 -0.1458  0.1197
59700W        W 2638  11.676  15.400  27.803  0.3345  0.0184 -0.1084
59701W        W 2639  11.759  15.871  27.549 -0.1757 -0.0033  0.3635
59702W        W 2640  15.110  13.894  29.174  0.0176  0.3595  0.0093
59703W        W 2641  14.269  17.128  25.144 -0.0704 -0.1860  0.0552
59704W        W 2642  12.090  15.454  29.755  0.0577 -0.0087 -0.0391
59705W        W 2643  13.186  15.601  30.099  0.0331  0.0516  0.1363
59706W        W 2644  12.082  18.397  30.448  0.3522 -0.0749  0.2092
59707W        W 2645  13.118  16.417  28.188 -0.1368  0.1372 -0.0651
59708W        W 2646  13.376  15.064  26.856  0.0212  0.2091 -0.0987
59709W        W 2647  13.923  18.183  28.739 -0.1568 -0.1215  0.0553
59710W        W 2648  13.391  15.771  30.908 -0.1678  0.0101 -0.2097
59711W        W 2649  11.646  16.471  26.207  0.1349 -0.1471  0.1049
59712W        W 2650  15.277  15.367  29.150 -0.1356 -0.0282  0.0085
59713W        W 2651  12.204  14.541  27.531 -0.0750  0.2859 -0.1174
59714W        W 2652  11.577  18.446  28.458 -0.0727  0.1528  0.2667
59715W        W 2653  14.196  17.336  28.045  0.0274  0.1223  0.0028
59716W        W 2654  12.662  16.350  26.580 -0.0869 -0.0076  0.0246
59717W        W 2655  13.318  17.704  28.480  0.0429  0.0939 -0.1275
59718W        W 2656  11.410  15.985  31.098  0.0890 -0.2230 -0.0939
59719W        W 2657  15.066  15.115  30.081 -0.3912 -0.0109  0.0816
59720W        W 2658  12.584  14.509  29.499  0.2954  0.0554  0.1884
59721W        W 2659  12.958  15.389  27.990  0.1626 -0.0056 -0.1080
59722W        W 2660  13.404  15.698  28.797 -0.2570 -0.4477  0.3075
59723W        W 2661  14.368  15.839  28.950  0.1226  0.1331  0.2589
59724W        W 2662  12.245  15.389  30.258  0.0385  0.0140  0.2256
59725W        W 2663  12.281  14.955  30.608 -0.2258  0.0172  0.0910
59726W        W 2664  12.416  13.616  27.950  0.1120  0.0917  0.1694
59727W        W 2665  12.805  16.528  30.342  0.0573 -0.0173 -0.0090
59728W        W 2666  12.548  16.708  26.160  0.2354 -0.2852  0.0794
59729W        W 2667  12.362  16.241  29.548 -0.2646  0.1119 -0.0709
59730W        W 2668  13.734  17.825  29.240 -0.0156 -0.2407  0.1538
59731W        W 2669  12.559  14.160  28.619  0.1494  0.4461  0.3787
59732W        W 2670  12.206  16.690  29.269 -0.2306  0.1156  0.1392
59733W        W 2671  12.564  16.773  28.927  0.0282  0.1773 -0.0960
59734W        W 2672  11.886  17.519  30.023  0.1843  0.0799  0.2447
59735W        W 2673  14.800  16.126  26.436  0.3476  0.1932 -0.0272
59736W        W 2674  13.700  16.642  23.701 -0.1450  0.2213  0.1170
59737W        W 2675  13.848  15.919  28.715  0.0085  0.0592  0.0911
59738W        W 2676  13.699  14.205  31.078  0.1253  0.1704 -0.0835
59739W        W 2677  15.015  17.573  25.594  0.1284  0.0541  0.3510
59740W        W 2678  13.092  15.386  30.701  0.2047  0.0067  0.0955
59741W        W 2679  12.491  14.492  28.018  0.1335 -0.1379  0.2153
59742W        W 2680  14.997  17.752  25.136  0.0471  0.0453 -0.1566
59743W        W 2681  12.321  16.130  30.420  0.1165  0.2786  0.0671
59744W        W 2682  14.175  16.878  28.740  0.1003  0.3106 -0.2439
59745W        W 2683  12.604  16.320  30.791  0.2632  0.1437 -0.2349
59746W        W 2684  14.553  16.928  25.744 -0.0019  0.3802 -0.1340
59747W        W 2685  12.830  16.321  27.082  0.1665  0.1744  0.1304
59748W        W 2686  12.174  16.546  28.785 -0.2967  0.1313 -0.0454
59749W        W 2687  13.768  16.838  29.065 -0.0249  0.0032 -0.0201
59750W        W 2688  13.676  17.216  24.233  0.0656  0.1996  0.2545
59751W        W 2689  13.657  16.626  27.011 -0.3099 -0.0562  0.1004
59752W        W 2690  12.642  16.269  29.951 -0.3258 -0.4068  0.0076
59753W        W 2691  14.975  16.956  27.591  0.0947 -0.2646  0.1463
59754W        W 2692  13.156  14.719  26.607  0.0098  0.3093 -0.0879
59755W        W 2693  12.566  17.174  29.446  0.1777  0.1810  0.5236
59756W        W 2694  13.357  14.885  30.653  0.1220  0.1067  0.1349
59757W        W 2695  13.134  17.366  26.810 -0.1202 -0.0116 -0.1060
59758W        W 2696  13.733  15.519  28.366 -0.2489 -0.1823 -0.0072
59759W        W 2697  12.970  15.687  29.677  0.1273  0.0598 -0.2286
59760W        W 2698  14.651  16.212  29.101 -0.0889 -0.2844 -0.1060
59761W        W 2699  11.849  13.737  30.616 -0.2198  0.0588 -0.1342
59762W        W 2700  11.665  15.018  29.156 -0.0913 -0.1545  0.2852
59763W        W 2701  14.145  18.599  29.076 -0.1264 -0.1018  0.4388
59764W        W 2702  14.438  14.956  25.234  0.1964  0.0193 -0.0543
59765W        W 2703  14.513  14.963  29.192 -0.1619 -0.1060 -0.0504
59766W        W 2704  14.502  16.534  26.266 -0.0908 -0.1350  0.0151
59767W        W 2705  13.328  16.906  26.710 -0.0697  0.0716 -0.2339
59768W        W 2706  12.507  15.740  28.746  0.1965  0.2900  0.0612
59769W        W 2707  13.566  16.250  28.953  0.0723 -0.0533 -0.1740
59770W        W 2708  12.778  14.980  26.300 -0.0682 -0.0608 -0.1298
59771W        W 2709  13.798  16.200  29.635 -0.0319  0.4225  0.0216
59772W        W 2710  13.272  17.553  23.772 -0.2004 -0.2779 -0.1342
59773W        W 2711  14.558  16.116  27.230 -0.1134 -0.1469 -0.0332
59774W        W 2712  14.664  16.641  27.226  0.1444 -0.0718 -0.1857
59775W        W 2713  12.045  17.245  28.053 -0.0844  0.0354 -0.1441
59776W        W 2714  13.476  17.243  31.843  0.2217  0.2974  0.0579
59777W        W 2715  13.508  14.552  26.921  0.2471 -0.0721 -0.1012
59778W        W 2716  13.778  16.265  25.634 -0.1643  0.3134 -0.0776
59779W        W 2717  13.405  16.117  28.499  0.0013  0.0747  0.1400
59780W        W 2718  14.238  16.017  28.326  0.1491  0.3677 -0.1007
59781W        W 2719  14.222  14.826  25.742  0.0710  0.1325 -0.0695
59782W        W 2720  13.997  15.035  28.361 -0.0280  0.2245  0.2125
59783W        W 2721  12.989  17.856  26.862 -0.1329  0.0761  0.2044
59784W        W 2722  13.915  14.949  25.293  0.1148 -0.1470 -0.0718
59785W        W 2723  12.168  17.857  31.296  0.2070  0.2569 -0.3729
59786W        W 2724  11.855  15.906  30.723  0.3279  0.2704 -0.0862
59787W        W 2725  12.903  17.744  27.618 -0.0946  0.0906  0.4377
59788W        W 2726  14.487  14.558  28.857 -0.0983  0.2395 -0.0507
59789W        W 2727  14.345  14.838  27.102  0.2198  0.1517 -0.0625
59790W        W 2728  14.520  16.304  28.048  0.0380 -0.3030  0.3931
59791W        W 2729  14.837  15.888  29.413 -0.0662  0.1215  0.1030
59792W        W 2730  13.044  17.294  29.277  0.0971 -0.1698  0.3167
59793W        W 2731  12.037  15.870  29.445 -0.0857 -0.3044 -0.1960
59794W        W 2732  14.583  19.031  28.775 -0.1419  0.3123 -0.2038
59795W        W 2733  14.222  16.744  26.680  0.1841  0.2727 -0.2137
59796W        W 2734  13.105  17.150  28.686 -0.3163  0.2432  0.0044
59797W        W 2735  11.844  14.716  30.722  0.0688 -0.0464  0.5051
59798W        W 2736  13.482  15.575  31.648 -0.2585 -0.1591 -0.0580
59799W        W 2737  14.078  15.939  27.130  0.1838 -0.1027  0.1616
59800W        W 2738  12.620  15.405  27.599  0.1300 -0.0965  0.2467
59801W        W 2739  14.259  17.699  24.314  0.0738  0.0565  0.0262
59802W        W 2740  12.480  17.132  31.169 -0.0963  0.3250 -0.1609
59803W        W 2741  10.664  16.230  29.761 -0.1801  0.1756 -0.2525
59804W        W 2742  13.338  17.643  27.876 -0.0399  0.0463 -0.1207
59805W        W 2743  13.154  16.392  24.671  0.0561 -0.2588  0.2754
59806W        W 2744  14.113  16.843  26.212 -0.0541  0.0300  0.2348
59807W        W 2745  13.852  18.181  27.419 -0.0485 -0.2268 -0.4112
59808W        W 2746  12.492  15.364  28.289  0.0986  0.0456  0.1331
59809W        W 2747  12.494  18.155  28.420 -0.1000 -0.1331 -0.3146
59810W        W 2748  11.717  17.666  27.207 -0.3831  0.0369  0.0647
59811W        W 2749  13.322  17.245  26.346  0.1483  0.0164 -0.1804
59812W        W 2750  12.555  19.178  28.550 -0.1725 -0.1110 -0.1997
59813W        W 2751  14.771  16.950  29.435  0.1276  0.0370  0.5181
59814W        W 2752  14.419  15.885  25.374 -0.0463 -0.2331  0.0173
59815W        W 2753  15.241  15.861  26.733  0.0398  0.1209  0.1183
59816W        W 2754  14.462  17.241  26.662 -0.1351 -0.0563 -0.0431
59817W        W 2755  14.395  17.735  30.739 -0.3886  0.0345  0.2097
59818W        W 2756  11.796  14.039  29.177 -0.0533  0.0377  0.1528
59819W        W 2757  13.082  14.904  27.275  0.3056 -0.0180  0.3238
59820W        W 2758  13.267  17.462  29.931  0.2484  0.1662  0.1511
59821W        W 2759  15.642  15.654  29.379 -0.0769 -0.1687 -0.1349
59822W        W 2760  10.926  17.044  31.549 -0.1491  0.3157  0.0322
59823W        W 2761  15.498  17.596  25.532  0.3140 -0.1859 -0.1633
59824W        W 2762  11.953  16.796  27.395 -0.0355  0.0651  0.1043
59825W        W 2763  13.397  15.566  27.717 -0.0461  0.2908  0.0545
59826W        W 2764  15.514  15.046  28.273  0.0385 -0.0448 -0.3105
59827W        W 2765  12.578  15.997  25.382  0.0489  0.2193  0.1793
59828W        W 2766  14.053  14.565  28.611 -0.1122 -0.2373 -0.3497
59829W        W 2767  13.314  18.056  27.587 -0.0188 -0.2768  0.4050
59830W        W 2768  12.690  17.848  30.130  0.1101  0.3817 -0.1303
59831W        W 2769  12.768  17.613  29.640 -0.0027  0.1163  0.0057
59832W        W 2770  11.421  15.027  28.679  0.1446 -0.0528  0.0211
59833W        W 2771  15.769  16.539  26.564  0.0418 -0.2357 -0.1281
59834W        W 2772  13.489  15.324  30.414 -0.0452 -0.1485 -0.1603
59835W        W 2773  14.264  14.268  30.878 -0.0786 -0.3397  0.0045
59836W        W 2774  12.425  16.008  27.962 -0.0637  0.0331  0.1059
59837W        W 2775  13.233  16.496  27.269 -0.0706 -0.0397  0.0491
59838W        W 2776  13.126  16.551  29.880 -0.2488  0.0237 -0.0875
59839W        W 2777  12.302  15.652  30.727  0.3806  0.0758 -0.0528
59840W        W 2778  13.469  15.014  26.306  0.0871 -0.0782  0.4784
59841W        W 2779  14.853  15.529  27.311  0.1605  0.2397 -0.0215
59842W        W 2780  13.721  17.707  27.501 -0.1814  0.0468  0.0675
59843W        W 2781  14.008  17.532  29.579 -0.2603 -0.1684  0.0262
59844W        W 2782  10.939  15.362  27.952  0.0409 -0.0389 -0.1675
59845W        W 2783  14.238  15.527  26.579 -0.0644  0.1956 -0.3348
59846W        W 2784  13.760  16.307  27.437 -0.4653  0.0952 -0.0971
59847W        W 2785  13.752  15.751  29.921  0.0674  0.0704 -0.1946
59848W        W 2786  15.090  16.081  28.125  0.0019  0.0339 -0.3273
59849W        W 2787  12.032  15.719  28.837  0.0658 -0.3337 -0.2694
59850W        W 2788  12.964  15.972  28.752 -0.2073  0.1655  0.1337
59851W        W 2789  13.477  18.734  25.429  0.0996 -0.0350  0.2325
59852W        W 2790  14.846  15.765  24.970 -0.0053 -0.0418  0.1501
59853W        W 2791  13.287  18.436  27.954 -0.1377  0.3478  0.0244
59854W        W 2792  11.023  16.469  29.493  0.0485 -0.1851 -0.0877
59855W        W 2793  12.509  18.604  30.510 -0.1229  0.1759  0.0328
59856W        W 2794  14.317  18.137  26.864  0.0009  0.0168 -0.1131
59857W        W 2795  13.064  15.286  26.529 -0.1557 -0.2355  0.1500
59858W        W 2796  12.060  14.781  28.805 -0.0638  0.0651  0.1990
59859W        W 2797  10.860  19.671  29.158 -0.1813  0.0881  0.0211
59860W        W 2798  15.433  17.032  27.403  0.2658  0.2898  0.4067
59861W        W 2799  14.428  15.489  29.947  0.2402 -0.0372 -0.0763
59862W        W 2800  13.635  18.503  23.573 -0.1822  0.0701 -0.0920
59863W        W 2801  13.098  16.084  30.178  0.1395 -0.2435 -0.0576
59864W        W 2802  12.504  17.631  30.912  0.0075 -0.0950  0.1596
59865W        W 2803  12.514  19.078  30.624 -0.2081 -0.0195  0.0077
59866W        W 2804  12.896  16.195  27.584  0.1139 -0.0735 -0.1426
59867W        W 2805  11.448  15.446  29.596  0.0178 -0.0627  0.0448
59868W        W 2806  13.853  17.018  28.310 -0.1059 -0.2595  0.2165
59869W        W 2807  13.623  17.210  27.194 -0.3324 -0.2068 -0.2110
59870W        W 2808  13.238  16.980  30.171  0.1553  0.0981  0.1209
59871W        W 2809  13.545  16.180  26.907 -0.0582  0.0200  0.0606
59872W        W 2810  15.089  17.218  26.943 -0.1504 -0.1931 -0.1154
59873W        W 2811  14.148  15.163  27.446 -0.1233 -0.1074  0.1927
59874W        W 2812  16.018  16.288  25.385  0.1762  0.0100  0.3023
59875W        W 2813  14.139  13.435  27.879 -0.4520 -0.3181 -0.0280
59876W        W 2814  12.221  16.692  28.276 -0.2636 -0.2584 -0.0125
59877W        W 2815  11.275  16.255  26.580  0.1621 -0.1410  0.1108
59878W        W 2816  13.378  15.979  27.372 -0.1601  0.1882  0.0726
59879W        W 2817  12.550  16.761  29.754  0.0661 -0.0169 -0.0466
59880W        W 2818  12.116  14.681  31.296 -0.1627  0.1293  0.1188
59881W        W 2819  11.828  15.309  30.620 -0.3130 -0.2590 -0.1096
59882W        W 2820  11.917  17.489  28.482  0.0202  0.0216 -0.1106
59883W        W 2821  11.230  15.340  29.175 -0.1242  0.2304  0.2733
59884W        W 2822  14.819  18.510  26.085  0.3337 -0.0455  0.1417
59885W        W 2823  12.628  14.679  28.861  0.2341  0.1415  0.2070
59886W        W 2824  10.031  15.840  28.033 -0.3920  0.0104  0.1148
59887W        W 2825  14.032  16.876  24.337 -0.1141  0.3288 -0.1863
59888W        W 2826  14.689  17.247  25.404 -0.0655  0.2941 -0.0440
59889W        W 2827  14.722  16.216  25.877 -0.1135 -0.0022  0.1187
59890W        W 2828  14.369  18.205  27.371  0.1549  0.4085 -0.0364
59891W        W 2829  12.834  17.526  27.182  0.2546 -0.3007  0.1885
59892W        W 2830  12.914  16.716  29.351  0.1206 -0.3550 -0.0330
59893W        W 2831  13.748  14.544  30.687  0.1418 -0.2299  0.0710
59894W        W 2832  12.123  16.139  28.354 -0.3802 -0.1731  0.0706
59895W        W 2833  13.203  16.660  27.751 -0.0918  0.0359 -0.3191
59896W        W 2834  13.827  17.081  26.594 -0.2420  0.2547  0.1227
59897W        W 2835  13.994  18.896  25.605  0.0311  0.2444 -0.1090
59898W        W 2836  12.226  17.775  29.670 -0.2176  0.4039  0.1203
59899W        W 2837  13.070  18.008  30.413 -0.2857  0.3327  0.0530
59900W        W 2838  10.506  15.451  29.246 -0.0164 -0.2009 -0.3557
59901W        W 2839  13.734  16.489  26.558  0.1190  0.0169 -0.0433
59902W        W 2840  11.438  16.540  30.938 -0.0659  0.0365  0.2447
59903W        W 2841  14.317  17.274  24.609  0.0135  0.1185 -0.2887
59904W        W 2842  15.379  15.639  28.692  0.0378  0.0578  0.2084
59905W        W 2843  14.044  16.695  25.737 -0.2538  0.2391  0.0709
59906W        W 2844   9.745  15.049  29.516  0.4310  0.0336 -0.1921
59907W        W 2845  10.863  16.317  28.996  0.0710  0.0435 -0.0017
59908W        W 2846  14.959  17.934  28.416 -0.1605 -0.1314  0.1396
59909W        W 2847  11.761  15.241  30.074 -0.0644 -0.0846 -0.0186
59910W        W 2848  13.072  15.406  27.035 -0.0738 -0.2157 -0.0918
59911W        W 2849  13.947  18.398  25.543  0.0167  0.0907  0.0535
59912W        W 2850  13.241  15.646  28.338 -0.0768  0.0918  0.1137
59913W        W 2851  14.519  15.767  26.243 -0.1072 -0.0572  0.1352
59914W        W 2852  13.423  15.583  29.524 -0.3330  0.1516  0.2148
59915W        W 2853  13.802  17.685  26.219 -0.0749 -0.1045 -0.2496
59916W        W 2854  14.188  16.054  29.435 -0.0115  0.1947 -0.1088
59917W        W 2855  12.578  16.335  28.357  0.1925  0.1456  0.3567
59918W        W 2856  14.240  17.301  26.187  0.0971  0.1073  0.1361
59919W        W 2857  15.095  19.305  28.815  0.0430 -0.3226  0.0829
59920W        W 2858  15.752  17.881  29.053  0.1086  0.1886 -0.0680
59921W        W 2859  13.434  17.664  30.339  0.2122  0.0660 -0.1094
59922W        W 2860  14.140  14.464  28.133  0.0307  0.0091 -0.0085
59923W        W 2861  11.349  15.476  28.288 -0.0174  0.3131 -0.0776
59924W        W 2862  13.781  17.148  27.831  0.2327 -0.1219 -0.2154
59925W        W 2863  13.673  17.183  28.719 -0.0765  0.1506  0.1652
59926W        W 2864  13.507  15.897  30.404 -0.2024  0.0322  0.1164
59927W        W 2865  11.659  15.925  29.836 -0.2659  0.1842 -0.0782
59928W        W 2866  13.501  15.603  26.086  0.0161 -0.0595  0.1716
59929W        W 2867  13.435  16.447  30.445 -0.3806  0.0068  0.0476
59930W        W 2868  14.748  15.944  27.637 -0.2709  0.0205  0.0824
59931W        W 2869  13.087  16.214  30.771 -0.4388 -0.2002 -0.0132
59932W        W 2870  13.547  17.337  29.420 -0.1700 -0.2284 -0.3256
59933W        W 2871  12.887  17.128  29.890  0.2080 -0.1334  0.2954
59934W        W 2872  13.158  16.893  30.657  0.0044 -0.0097 -0.3408
59935W        W 2873  11.138  17.941  31.839  0.0158  0.1684  0.2767
59936W        W 2874  11.759  17.299  30.493  0.0905  0.1465 -0.2249
59937W        W 2875  15.059  15.908  30.802 -0.1666  0.2946 -0.0824
59938W        W 2876  13.794  15.417  29.065 -0.2882 -0.1307 -0.2987
59939W        W 2877  13.509  14.744  31.139 -0.2729  0.0091  0.0184
59940W        W 2878  14.322  16.959  29.600 -0.2118  0.0612 -0.0322
59941W        W 2879  13.668  17.803  29.865 -0.0244  0.0028  0.3601
59942W        W 2880  11.897  13.798  29.784  0.1409  0.0412 -0.1703
59943W        W 2881  13.727  15.930  31.316 -0.2367 -0.0222 -0.1774
59944W        W 2882  11.238  15.600  30.068 -0.1341 -0.1486  0.2871
59945W        W 2883  14.738  15.509  30.362  0.0548  0.1386 -0.3220
59946W        W 2884  10.442  18.181   0.374 -0.0487  0.2157  0.2003
59947W        W 2885  12.645  15.823  31.840  0.3148  0.1502 -0.0395
59948W        W 2886  14.740  18.124  29.450 -0.2781  0.0581 -0.3132
59949W        W 2887  11.131  14.751  31.963 -0.0426 -0.3156  0.0792
59950W        W 2888  13.061  14.944  31.108  0.0480  0.1109 -0.2687
59951W        W 2889  11.347  15.069  30.427  0.2990 -0.0296  0.0649
59952W        W 2890  11.674  18.055  31.432 -0.0647 -0.1582  0.0681
59953W        W 2891  14.186  14.710  30.478 -0.2683  0.0860 -0.1624
59954W        W 2892  11.941  15.065  31.030  0.0233  0.0494 -0.4611
59955W        W 2893  14.578  15.288  26.962 -0.0666 -0.1145 -0.0808
59956W        W 2894  13.451  16.101  31.725  0.1598  0.0911 -0.3531
59957W        W 2895  12.635  15.782  30.082  0.3212 -0.3761 -0.0364
59958W        W 2896  10.818  19.050  31.049 -0.1134 -0.0457 -0.2820
59959W        W 2897  12.393  15.371  31.704  0.0127  0.1084  0.2829
59960W        W 2898  13.413  17.303  30.742 -0.0190 -0.0183 -0.3709
59961W        W 2899  12.707  16.856  30.828 -0.1430  0.1003 -0.0583
59962W        W 2900  13.870  15.041  30.646  0.1505 -0.1616 -0.1831
59963W        W 2901  14.562  15.863  30.933  0.2169  0.0438  0.0414
59964W        W 2902  14.208  13.823  30.136 -0.2579  0.0872  0.1611
59965W        W 2903  11.256  14.993  29.863 -0.1413  0.2015  0.0304
59966W        W 2904  13.591  16.632  28.115 -0.1558  0.2107 -0.0933
59967W        W 2905  13.298  16.925  29.588 -0.0661 -0.1628  0.0933
59968W        W 2906  13.566  15.680   0.136  0.1401 -0.3048  0.1247
59969W        W 2907  15.067  15.606  31.195  0.1236 -0.1396  0.1743
59970W        W 2908  13.051  14.749  31.669  0.0892 -0.0777 -0.1033
59971W        W 2909  13.145  15.399   0.917  0.1009 -0.0720  0.0032
59972W        W 2910  14.501  15.453  31.877  0.1575 -0.1284  0.1494
59973W        W 2911  12.582  14.907  30.166  0.2109 -0.3388 -0.0483
59974W        W 2912  13.215  17.742  30.900  0.0873  0.1836 -0.1063
59975W        W 2913  11.995  13.687  31.085  0.1291  0.0402 -0.0529
59976W        W 2914  14.375  16.470  30.802 -0.2334  0.1590  0.0047
59977W        W 2915  13.401  15.032  31.482 -0.1841 -0.1017  0.2454
59978W        W 2916  14.056  16.255  29.025  0.2291 -0.2061  0.2359
59979W        W 2917  14.565  17.374  29.717 -0.2059  0.0035  0.4795
59980W        W 2918  11.691  17.758  30.903 -0.2691 -0.0959 -0.1462
59981W        W 2919  12.167  15.989  29.923 -0.1525 -0.0071 -0.0994
59982W        W 2920  15.202  15.350  30.799 -0.2282 -0.0120  0.3181
59983W        W 2921  12.831  15.150  31.538  0.1924  0.3687 -0.1331
59984W        W 2922  13.305  16.195  31.175 -0.1218 -0.1560 -0.0254
59985W        W 2923  13.171  15.040  30.162  0.1249  0.0452  0.3349
59986W        W 2924  11.073  15.359  31.240  0.1290 -0.0030 -0.2872
59987W        W 2925  14.391  16.412  28.664  0.1029  0.3299  0.2237
59988W        W 2926  14.364  16.901  30.595 -0.1127 -0.2948 -0.0090
59989W        W 2927  13.440  16.663  28.623  0.2138  0.1860  0.0021
59990W        W 2928  11.645  14.503  29.079 -0.0987  0.0644  0.0019
59991W        W 2929  12.013  15.683  31.802  0.1556 -0.1224  0.0356
59992W        W 2930  12.733  16.996  30.328  0.0050  0.1816 -0.1778
59993W        W 2931  10.848  17.267  30.591 -0.2755  0.1877  0.0340
59994W        W 2932  11.453  15.031  30.986  0.0669 -0.2504 -0.0580
59995W        W 2933  14.420  17.934  28.667 -0.1164  0.2649 -0.1126
59996W        W 2934  13.958  16.392  28.366  0.0998  0.0593  0.2636
59997W        W 2935  14.628  14.539  30.708 -0.0046  0.2095  0.2493
59998W        W 2936   9.919  19.947  19.860 -0.1952  0.0730  0.3817
59999W        W 2937  11.908  18.664  15.674  0.1920  0.1767 -0.1396
60000W        W 2938  12.272  19.083  14.688 -0.0666 -0.0421 -0.0613
60001W        W 2939  13.508  20.731  16.877 -0.4030 -0.3715 -0.1698
60002W        W 2940   9.716  20.257  17.534 -0.1324 -0.2182  0.1532
60003W        W 2941  13.614  22.400  16.716 -0.0533 -0.1524 -0.1717
60004W        W 2942  11.227  18.130  18.946 -0.0480  0.1669  0.2105
60005W        W 2943  12.330  21.997  18.415  0.0099  0.0699  0.3010
60006W        W 2944  12.844  21.770  17.586 -0.2787  0.1628  0.2409
60007W        W 2945  12.410  19.860  15.501 -0.3237  0.0389 -0.3564
60008W        W 2946  11.267  19.075  17.801 -0.3624  0.2032 -0.0919
60009W        W 2947  10.807  21.505  19.486  0.0598  0.0149 -0.1462
60010W        W 2948  13.392  17.126  15.521 -0.4161 -0.0467  0.2503
60011W        W 2949  10.628  17.412  16.862 -0.0543 -0.3023  0.2863
60012W        W 2950  11.515  20.721  17.563  0.0447  0.0670  0.1299
60013W        W 2951  10.047  19.676  16.763 -0.0122  0.0045  0.0249
60014W        W 2952  12.389  18.357  18.334 -0.0946 -0.4737  0.0177
60015W        W 2953  12.229  18.867  15.986 -0.1454 -0.4216 -0.1330
60016W        W 2954  12.433  22.943  17.843 -0.1373  0.0980 -0.2867
60017W        W 2955  10.922  19.150  17.200  0.4118  0.0389  0.3662
60018W        W 2956  11.827  19.004  17.604 -0.0731  0.1454  0.0418
60019W        W 2957  13.393  22.021  16.464  0.3116 -0.1664 -0.2412
60020W        W 2958  11.014  19.936  15.541 -0.0682 -0.1438 -0.0048
60021W        W 2959  10.996  18.166  18.486 -0.1101  0.1667  0.0535
60022W        W 2960  10.147  20.904  18.957 -0.2757 -0.0730 -0.0304
60023W        W 2961  12.870  20.232  17.400  0.1903 -0.0809  0.1058
60024W        W 2962  13.387  19.663  16.875  0.1242  0.0071 -0.2762
60025W        W 2963  10.978  21.097  17.775  0.0991  0.0870  0.1817
60026W        W 2964  12.125  21.479  16.935 -0.0038 -0.3497 -0.0530
60027W        W 2965  12.947  19.335  16.946 -0.0259 -0.0366  0.1075
60028W        W 2966  11.394  21.707  17.308  0.0034 -0.1271 -0.1131
60029W        W 2967   9.034  20.346  18.057 -0.1270 -0.1282  0.3269
60030W        W 2968  12.392  22.250  15.380  0.0320  0.2346  0.3794
60031W        W 2969  13.867  21.513  15.764 -0.1608 -0.0785  0.2274
60032W        W 2970  13.484  21.623  18.102 -0.4504 -0.0356  0.0785
60033W        W 2971  12.157  22.098  19.423  0.2856 -0.3714 -0.0296
60034W        W 2972  10.241  20.074  16.594 -0.0948  0.0949  0.0839
60035W        W 2973  11.430  22.664  17.689  0.1669 -0.2632  0.1752
60036W        W 2974  10.662  21.572  17.917  0.0328 -0.1839 -0.1680
60037W        W 2975  12.587  21.321  17.845  0.3433 -0.2297 -0.2361
60038W        W 2976  14.004  21.206  16.248 -0.0948 -0.1887 -0.3230
60039W        W 2977  12.597  22.295  16.207  0.1513  0.0314  0.0339
60040W        W 2978  11.315  20.558  16.210 -0.2688 -0.0552 -0.1213
60041W        W 2979  11.430  20.812  19.023  0.2848 -0.0645 -0.2494
60042W        W 2980  11.142  21.747  16.832 -0.0442  0.1095 -0.1440
60043W        W 2981  13.982  18.961  16.432 -0.0226 -0.3925 -0.0439
60044W        W 2982  10.905  20.786  16.129 -0.2242 -0.3744  0.4250
60045W        W 2983  12.419  19.093  15.168  0.1185 -0.1412  0.0045
60046W        W 2984  11.989  19.577  15.743  0.1760 -0.2086  0.2509
60047W        W 2985  13.589  19.082  14.970  0.2786 -0.0823  0.0768
60048W        W 2986  12.118  17.913  16.163  0.1045 -0.0387 -0.1043
60049W        W 2987  11.140  21.856  17.712  0.1239  0.0384  0.2705
60050W        W 2988  11.443  21.210  17.433 -0.0118  0.0090  0.0276
60051W        W 2989  12.025  21.988  17.649 -0.2507  0.5287 -0.1546
60052W        W 2990  12.592  20.275  15.233  0.2743  0.3077  0.0370
60053W        W 2991  11.768  20.156  16.923  0.0288 -0.0502 -0.0141
60054W        W 2992  11.376  21.425  19.183  0.0014 -0.0843 -0.0299
60055W        W 2993  10.157  20.142  17.252 -0.0705  0.1539  0.0851
60056W        W 2994  12.912  21.266  15.374  0.1436  0.0505 -0.1985
60057W        W 2995  13.942  22.423  16.349 -0.0073 -0.0549  0.1670
60058W        W 2996  11.835  21.081  17.701 -0.1880 -0.1620 -0.1751
60059W        W 2997  10.596  19.858  16.923  0.1750  0.2697  0.0018
60060W        W 2998  10.401  20.264  19.696  0.0649 -0.1481  0.3106
60061W        W 2999  10.796  19.290  17.702 -0.1317 -0.1970  0.3234
60062W        W 3000   9.997  19.790  16.262  0.1248 -0.1513  0.0091
60063W        W 3001  14.018  20.610  16.757  0.2276 -0.2724  0.1048
60064W        W 3002  10.036  21.131  19.843  0.1393  0.1387  0.0999
60065W        W 3003  12.487  18.590  16.456  0.0183  0.0312 -0.1920
60066W        W 3004  11.671  20.922  16.297  0.0116  0.2999  0.1550
60067W        W 3005  12.601  21.561  18.342 -0.0276 -0.1006  0.1386
60068W        W 3006  14.159  21.091  14.931  0.1658 -0.0801 -0.0463
60069W        W 3007  11.899  19.146  16.779 -0.4598  0.0152 -0.3227
60070W        W 3008  11.504  19.797  17.191 -0.1032 -0.1653  0.2763
60071W        W 3009  11.725  20.459  15.688 -0.1626  0.1350 -0.1261
60072W        W 3010  10.741  21.416  15.445 -0.3280 -0.1418  0.2302
60073W        W 3011  13.688  22.333  18.066  0.1587 -0.0476 -0.0180
60074W        W 3012  12.755  19.400  15.393  0.0596 -0.2140  0.0065
60075W        W 3013  10.331  22.727  16.774 -0.0910 -0.0067 -0.1066
60076W        W 3014  11.988  19.677  17.099  0.1643  0.4174  0.0264
60077W        W 3015  12.163  21.025  19.554  0.2513  0.2699  0.1665
60078W        W 3016   9.142  20.238  17.239  0.0787 -0.3323 -0.0274
60079W        W 3017  11.138  20.273  17.625  0.0561  0.0163 -0.1729
60080W        W 3018  10.271  20.754  15.925 -0.3379 -0.2579 -0.1881
60081W        W 3019  10.761  17.551  17.757  0.3529 -0.2274 -0.0442
60082W        W 3020  11.210  20.638  17.982 -0.1638 -0.0020  0.1876
60083W        W 3021  12.933  20.035  16.466 -0.2035  0.2768 -0.1187
60084W        W 3022  11.770  17.024  18.724  0.0490  0.1248  0.1568
60085W        W 3023  12.713  18.589  15.166 -0.0309 -0.0500 -0.1046
60086W        W 3024  11.159  20.434  15.700  0.0913 -0.0145 -0.4610
60087W        W 3025  13.369  20.675  15.978  0.1104  0.1217 -0.1255
60088W        W 3026  14.811  19.881  15.204  0.0063 -0.1275  0.1267
60089W        W 3027  13.659  20.924  14.950  0.0661 -0.1305  0.3095
60090W        W 3028   9.730  19.677  19.457 -0.0677 -0.0099  0.3146
60091W        W 3029  12.004  20.028  16.480  0.1707  0.1923  0.2249
60092W        W 3030  12.032  17.170  18.287 -0.0789 -0.1152  0.3155
60093W        W 3031  10.661  20.483  17.144  0.2699  0.1418  0.0921
60094W        W 3032  14.634  20.490  18.174 -0.2622 -0.1046  0.2356
60095W        W 3033   9.979  17.923  16.079 -0.2866 -0.1795  0.1824
60096W        W 3034  12.762  21.136  16.204 -0.1808 -0.0937  0.1400
60097W        W 3035  10.998  18.561  17.831 -0.1189 -0.2190 -0.1476
60098W        W 3036  10.026  20.941  16.395  0.1284 -0.0859  0.0811
60099W        W 3037  13.118  19.296  17.808  0.0245 -0.3640 -0.4903
60100W        W 3038  12.990  22.298  15.219 -0.1521  0.2191 -0.0953
60101W        W 3039  15.029  22.349  18.052  0.0393 -0.2266  0.2510
60102W        W 3040  13.206  21.953  17.106 -0.0167  0.1117 -0.0958
60103W        W 3041   9.996  19.683  18.994 -0.2102  0.0726 -0.2654
60104W        W 3042  11.030  19.141  14.757  0.1836 -0.1353 -0.1134
60105W        W 3043  11.489  19.907  17.692  0.1230  0.1096 -0.0369
60106W        W 3044  12.950  21.827  16.655  0.0311 -0.2234  0.1184
60107W        W 3045  12.747  18.193  15.624  0.1074  0.0339 -0.2773
60108W        W 3046  13.254  21.474  18.528  0.0167  0.2143 -0.0186
60109W        W 3047  12.583  21.742  16.206 -0.2483 -0.3473 -0.1347
60110W        W 3048   9.555  20.574  19.441 -0.1542 -0.2303 -0.0242
60111W        W 3049  11.453  18.401  18.373 -0.2174 -0.1819  0.0794
60112W        W 3050  13.239  20.480  17.719 -0.0097 -0.1532  0.0794
60113W        W 3051  12.962  21.271  16.678 -0.0577  0.1523 -0.1268
60114W        W 3052   9.473  17.687  15.888 -0.1723  0.1259  0.0262
60115W        W 3053  12.884  21.535  17.079  0.2271 -0.4041 -0.0711
60116W        W 3054   9.147  19.742  16.353  0.0947  0.0204 -0.0818
60117W        W 3055  10.225  20.614  17.456 -0.3952  0.0775 -0.1074
60118W        W 3056  12.110  21.503  17.972  0.1069 -0.0480 -0.1380
60119W        W 3057  13.293  21.178  17.014  0.2914  0.0539  0.4782
60120W        W 3058   9.818  19.126  19.335 -0.4335 -0.4124 -0.1373
60121W        W 3059  12.291  20.566  19.357  0.1144 -0.1056 -0.0945
60122W        W 3060  10.868  19.738  16.524 -0.1386 -0.2932 -0.0103
60123W        W 3061  10.864  20.243  18.052  0.2099  0.1524  0.1766
60124W        W 3062  12.886  17.991  15.118 -0.3361  0.1404 -0.1002
60125W        W 3063  12.734  20.082  15.898  0.1036 -0.2151 -0.1187
60126W        W 3064  12.167  20.126  17.271 -0.2156 -0.2159 -0.1228
60127W        W 3065  14.032  20.938  15.759 -0.0510  0.2030 -0.0238
60128W        W 3066  12.135  21.014  16.214 -0.0127 -0.1741  0.0861
60129W        W 3067  12.819  19.472  16.459  0.3358  0.2079  0.1558
60130W        W 3068  11.280  21.287  19.672 -0.3747 -0.0219 -0.0326
60131W        W 3069  13.810  22.148  17.483  0.0641 -0.2321  0.2222
60132W        W 3070  12.439  20.382  16.254  0.1471 -0.4017  0.0302
60133W        W 3071  13.202  18.543  14.361  0.0275  0.0719  0.0046
60134W        W 3072  14.619  22.280  15.898 -0.1171  0.1018 -0.2814
60135W        W 3073  10.721  19.204  18.195 -0.0600 -0.4030  0.1804
60136W        W 3074  12.286  21.513  19.352 -0.1126 -0.2219 -0.2569
60137W        W 3075  11.995  20.542  16.128  0.3658 -0.1591  0.0161
60138W        W 3076  11.134  18.841  16.423  0.1814 -0.1585 -0.4086
60139W        W 3077  11.693  18.940  14.660  0.1909 -0.1052  0.0100
60140W        W 3078  11.513  17.451  16.821  0.0529 -0.1798  0.1860
60141W        W 3079  10.469  22.316  16.078  0.1238 -0.0897  0.0402
60142W        W 3080  13.687  20.271  16.960  0.2771 -0.2642  0.4147
60143W        W 3081  12.867  19.860  16.990 -0.5693 -0.2891  0.0353
60144W        W 3082  12.155  18.989  17.160  0.2966 -0.0591 -0.4788
60145W        W 3083  12.739  19.862  18.926 -0.1768  0.0824  0.0406
60146W        W 3084  13.713  18.800  14.543 -0.4720 -0.1145 -0.0255
60147W        W 3085  12.422  19.950  16.783 -0.0759  0.1134  0.3011
60148W        W 3086  11.062  20.061  16.113  0.1365 -0.5535  0.4553
60149W        W 3087  11.633  18.628  19.356 -0.2387  0.2410 -0.1318
60150W        W 3088  10.436  20.069  19.060  0.1554  0.2176  0.3625
60151W        W 3089  10.538  22.028  19.434  0.1950  0.1653  0.1356
60152W        W 3090  13.098  21.678  19.048  0.2679 -0.0067  0.1167
60153W        W 3091  14.079  21.952  16.155 -0.1408 -0.2436  0.1897
60154W        W 3092  12.276  20.076  18.791 -0.0387  0.3465 -0.0188
60155W        W 3093  11.413  19.664  15.793 -0.1362  0.1491 -0.3285
60156W        W 3094  10.737  21.072  17.262 -0.2020  0.1458 -0.1089
60157W        W 3095  11.479  21.747  15.807  0.5541  0.1431  0.3224
60158W        W 3096  12.616  17.973  18.641  0.1804 -0.3655 -0.0052
60159W        W 3097  10.919  21.995  18.434 -0.0056  0.0033 -0.0041
60160W        W 3098  12.531  20.752  15.941 -0.0006  0.0420 -0.1319
60161W        W 3099  11.996  21.093  17.243 -0.0087  0.1493  0.0498
60162W        W 3100  12.074  21.712  16.227 -0.1163 -0.1361 -0.1236
60163W        W 3101  12.176  18.164  17.077  0.3419 -0.1151 -0.1131
60164W        W 3102  10.111  21.969  16.790  0.1382  0.0483  0.1930
60165W        W 3103  12.592  18.069  16.237  0.0273 -0.2925 -0.0862
60166W        W 3104  11.374  20.075  16.562  0.2893 -0.1082  0.0114
60167W        W 3105  13.619  19.252  16.032 -0.0596  0.0583  0.2095
60168W        W 3106  14.065  20.301  14.582  0.1069  0.4123 -0.0740
60169W        W 3107  11.517  18.607  17.948 -0.0039 -0.2433  0.2446
60170W        W 3108  12.101  18.692  18.026 -0.2820  0.0647  0.0834
60171W        W 3109  10.748  20.999  18.578 -0.0721  0.0911 -0.0026
60172W        W 3110  12.233  20.978  18.025 -0.1439 -0.2514  0.0607
60173W        W 3111  12.382  18.724  15.507 -0.0806  0.1936 -0.0019
60174W        W 3112  13.550  21.153  17.496 -0.2138 -0.0572  0.1199
60175W        W 3113  11.886  20.356  20.392 -0.1027  0.0284 -0.2838
60176W        W 3114   9.710  19.233  15.845 -0.0396 -0.1788 -0.3233
60177W        W 3115  12.592  19.833  17.476  0.2490  0.1695 -0.0835
60178W        W 3116  11.282  19.482  17.511  0.2801 -0.1079 -0.0841
60179W        W 3117  11.768  21.286  15.970  0.0604 -0.0339  0.1100
60180W        W 3118  11.280  23.134  17.882  0.1771 -0.1686 -0.0378
60181W        W 3119  11.810  19.616  16.196  0.2314 -0.0788  0.2111
60182W        W 3120  11.622  21.374  16.938 -0.1081  0.0941 -0.0952
60183W        W 3121  11.193  19.350  19.569 -0.3384 -0.1885  0.0642
60184W        W 3122  11.199  20.967  18.387 -0.0771  0.1898 -0.1089
60185W        W 3123  12.405  19.120  16.546  0.0594 -0.1336  0.0804
60186W        W 3124  10.199  19.455  15.959  0.0358  0.0240 -0.0234
60187W        W 3125  12.989  20.739  16.806 -0.0653 -0.2527 -0.0362
60188W        W 3126  12.313  20.916  17.539 -0.2077 -0.0736 -0.0344
60189W        W 3127  11.573  21.259  18.720  0.2341  0.2620 -0.0221
60190W        W 3128  12.565  22.263  20.308  0.3682  0.0984 -0.3433
60191W        W 3129  10.976  19.261  16.516  0.1002 -0.1059 -0.2045
60192W        W 3130  15.026  22.612  17.041 -0.3290  0.3189  0.4734
60193W        W 3131  12.345  21.128  19.018  0.1314  0.0797  0.0897
60194W        W 3132  11.059  19.796  17.906 -0.0072 -0.0997  0.0599
60195W        W 3133  10.750  19.758  18.275  0.2054  0.1722 -0.0722
60196W        W 3134  12.552  20.824  16.541 -0.0698 -0.0273  0.1105
60197W        W 3135  11.285  18.888  17.336 -0.2071  0.1667 -0.0911
60198W        W 3136  10.852  20.098  18.744 -0.2867  0.0969  0.1934
60199W        W 3137   9.771  20.770  17.661 -0.1263 -0.0285 -0.0709
60200W        W 3138   9.924  21.160  18.009 -0.1083 -0.0059  0.0050
60201W        W 3139  14.664  18.604  14.861  0.2718  0.1110  0.0741
60202W        W 3140  12.290  20.883  15.124 -0.0259  0.0636 -0.2513
60203W        W 3141  11.803  19.533  17.644  0.1481 -0.1414 -0.2206
60204W        W 3142  13.538  19.642  17.583 -0.0461  0.1058 -0.0153
60205W        W 3143  12.733  19.500  14.924  0.1417  0.0946  0.0312
60206W        W 3144  11.302  19.061  18.775  0.1536  0.0839  0.1974
60207W        W 3145  11.671  18.151  17.393  0.0773  0.1076 -0.1209
60208W        W 3146  14.201  21.897  17.275  0.0792  0.0457  0.1181
60209W        W 3147  10.410  18.544  17.680  0.1208 -0.0460 -0.0443
60210W        W 3148  11.509  21.646  19.994  0.1803 -0.1845  0.1730
60211W        W 3149  11.220  19.869  19.449  0.0710 -0.1587  0.1613
60212W        W 3150  10.823  19.606  17.313 -0.2293  0.0468 -0.0454
60213W        W 3151  11.912  19.172  15.479  0.1347  0.2291  0.2805
60214W        W 3152  10.652  20.989  19.046  0.0472 -0.1148  0.4020
60215W        W 3153  13.350  21.625  16.796  0.1238 -0.0990 -0.2165
60216W        W 3154  13.470  20.287  15.526  0.2013 -0.1894 -0.0401
60217W        W 3155  13.015  21.005  15.799 -0.1890 -0.3648  0.0161
60218W        W 3156  10.574  19.377  16.901 -0.3348  0.6926  0.3457
60219W        W 3157  12.654  20.349  16.812 -0.1126 -0.0291  0.5017
60220W        W 3158  13.239  20.839  15.372 -0.0209 -0.1947  0.1551
60221W        W 3159  11.407  21.433  16.464  0.2723  0.0898 -0.0246
60222W        W 3160  10.576  18.507  18.505 -0.1675  0.0226  0.2149
60223W        W 3161  12.904  20.272  18.019 -0.0718 -0.2793 -0.0026
60224W        W 3162  11.788  19.209  15.935  0.1501  0.3271 -0.1926
60225W        W 3163  11.481  19.498  18.580 -0.1095  0.0822 -0.0757
60226W        W 3164  11.069  20.480  18.450 -0.1097 -0.1500  0.1075
60227W        W 3165  12.728  19.820  19.978 -0.0832 -0.0710  0.0365
60228W        W 3166  11.301  18.286  20.346 -0.0961 -0.0677 -0.2080
60229W        W 3167  11.933  22.488  18.401  0.1758  0.0420  0.0125
60230W        W 3168  12.889  18.847  15.555  0.2191 -0.1624  0.3274
60231W        W 3169  12.915  18.919  16.550 -0.2264 -0.0447 -0.0695
60232W        W 3170  13.918  20.179  15.265 -0.0457  0.1006  0.0147
60233W        W 3171  12.375  19.228  15.692 -0.3474  0.2583  0.0786
60234W        W 3172  10.291  18.977  18.409  0.0394  0.0502  0.1658
60235W        W 3173  12.666  21.885  19.280 -0.2831  0.2138 -0.4137
60236W        W 3174  12.695  18.806  14.577  0.2395  0.3316 -0.0363
60237W        W 3175  12.323  19.651  17.889 -0.0991  0.2622 -0.1320
60238W        W 3176  11.971  21.739  15.779 -0.0033 -0.1373 -0.2088
60239W        W 3177  13.418  21.989  17.764 -0.0503 -0.1077  0.3151
60240W        W 3178  14.075  19.912  16.224  0.0596 -0.0857  0.0552
60241W        W 3179  10.447  19.897  16.139  0.1724  0.0939  0.1448
60242W        W 3180   9.793  21.415  20.939 -0.0766  0.2932  0.1083
60243W        W 3181  12.310  20.480  15.621  0.1242 -0.2860 -0.0149
60244W        W 3182  11.235  21.500  15.454 -0.0264 -0.1185  0.1721
60245W        W 3183  11.823  21.953  17.135 -0.0587  0.1768  0.2127
60246W        W 3184  11.744  21.952  18.561 -0.2146 -0.2364 -0.0345
60247W        W 3185  13.405  17.958  14.978 -0.1408  0.4562  0.1751
60248W        W 3186  11.448  20.347  17.254  0.0825  0.0211  0.0256
60249W        W 3187  11.731  20.507  16.563  0.3384  0.0819  0.0048
60250W        W 3188  12.745  19.047  16.078  0.0331 -0.2069  0.0338
60251W        W 3189  11.518  20.887  16.852 -0.1789 -0.0473 -0.3672
60252W        W 3190  10.795  20.665  17.623  0.2495 -0.0765  0.2407
60253W        W 3191  11.442  22.161  16.934  0.0543  0.0345 -0.2114
60254W        W 3192  10.815  19.233  19.171 -0.1706 -0.1647  0.2123
60255W        W 3193  12.592  21.084  16.960 -0.1390 -0.0255  0.2025
60256W        W 3194  11.649  19.555  16.700 -0.0010 -0.2141 -0.0716
60257W        W 3195  13.994  20.861  17.635 -0.0568  0.1421 -0.0347
60258W        W 3196  11.118  21.519  18.579  0.2053 -0.0425 -0.0182
60259W        W 3197  10.487  19.631  17.803  0.2852  0.0955  0.1574
60260W        W 3198  12.184  21.979  18.873  0.0848  0.0059 -0.2261
60261W        W 3199  14.199  20.442  15.831  0.2636 -0.1219 -0.1807
60262W        W 3200  10.827  20.194  16.651 -0.0300  0.1876  0.0826
60263W        W 3201  11.711  20.135  19.463  0.6812 -0.1942  0.1310
60264W        W 3202  11.282  20.099  18.998  0.0911  0.1208 -0.0262
60265W        W 3203  13.345  21.566  17.472 -0.1301 -0.1975  0.2700
60266W        W 3204  11.182  18.785  15.236 -0.3236 -0.3133 -0.0779
60267W        W 3205  12.409  19.868  14.988  0.1172 -0.0167  0.0706
60268W        W 3206  10.095  21.624  20.122  0.1148  0.2549 -0.3246
60269W        W 3207   9.654  18.305  18.681 -0.0736  0.1117  0.0869
60270W        W 3208  11.165  21.776  16.221 -0.1727 -0.0619  0.3112
60271W        W 3209  13.696  20.792  16.404  0.1794  0.3538  0.1792
60272W        W 3210  11.994  20.866  15.678 -0.0194  0.1847 -0.1078
60273W        W 3211  11.068  20.026  17.079 -0.0222 -0.0805 -0.4110
60274W        W 3212  11.579  19.086  15.112 -0.0262  0.2561  0.0560
60275W        W 3213  10.453  21.017  17.848 -0.0533  0.0134  0.3042
60276W        W 3214   9.616  21.467  15.572  0.1443 -0.3052 -0.3620
60277W        W 3215  12.110  20.974  16.790  0.1956 -0.0658  0.1092
60278W        W 3216  10.914  21.391  16.391  0.1833  0.2791 -0.3076
60279W        W 3217  13.845  21.711  18.402 -0.3289  0.0011 -0.2239
60280W        W 3218  12.078  18.127  14.794 -0.2210  0.2116 -0.2603
60281W        W 3219  14.519  19.986  15.615  0.1120 -0.0360 -0.2249
60282W        W 3220  13.287  19.316  16.416  0.1603 -0.1603  0.0827
60283W        W 3221  12.893  21.880  18.572  0.2237 -0.0539  0.3162
60284W        W 3222  12.517  18.469  17.242 -0.0481 -0.1427  0.0635
60285W        W 3223  11.637  19.575  15.366 -0.1822  0.1346 -0.0955
60286W        W 3224  10.701  19.084  18.686 -0.1387 -0.0596  0.4046
60287W        W 3225  13.004  19.920  18.368  0.0110  0.1096 -0.0632
60288W        W 3226  10.403  21.843  18.822 -0.0159  0.1163  0.2109
60289W        W 3227  13.684  21.640  16.243 -0.0354 -0.1963  0.2533
60290W        W 3228  10.909  19.398  15.588 -0.2335 -0.2266 -0.2207
60291W        W 3229  12.946  20.576  16.230 -0.0995 -0.2208  0.1620
60292W        W 3230  14.516  18.633  15.768  0.0309  0.1570 -0.1887
60293W        W 3231  11.222  21.292  16.028  0.2009  0.1038 -0.0624
60294W        W 3232  12.698  19.544  15.935  0.1778 -0.0624 -0.0935
60295W        W 3233  12.032  21.317  15.530  0.1831 -0.0001  0.1427
60296W        W 3234  11.671  21.518  18.339 -0.2101  0.1010 -0.1493
60297W        W 3235  11.795  21.647  19.026  0.2489  0.0941  0.1512
60298W        W 3236  10.754  18.008  15.787 -0.2047 -0.0665 -0.3473
60299W        W 3237  13.554  19.938  16.242  0.2038  0.2557 -0.2574
60300W        W 3238  11.971  20.141  17.844 -0.0848  0.1024 -0.2518
60301W        W 3239  12.773  19.285  17.479 -0.1611 -0.1271 -0.1790
60302W        W 3240  11.516  19.181  16.389 -0.0015 -0.0241 -0.0045
60303W        W 3241  13.898  18.715  15.269  0.0976  0.0188  0.2135
60304W        W 3242  10.839  20.260  19.251 -0.1265  0.2310  0.2279
60305W        W 3243   9.237  18.575  19.281  0.0849 -0.1453 -0.1932
60306W        W 3244  12.170  20.051  15.919 -0.1088  0.1716  0.3260
60307W        W 3245  11.921  20.898  18.888 -0.4587  0.0576 -0.0592
60308W        W 3246  12.757  20.764  15.215  0.1965  0.0186 -0.0306
60309W        W 3247  12.600  22.363  17.697  0.1850  0.0664 -0.0096
60310W        W 3248  10.308  18.682  17.026 -0.3573 -0.3353  0.0591
60311W        W 3249  12.441  19.805  16.279 -0.0635  0.2209  0.0973
60312W        W 3250  11.228  19.852  18.382 -0.0397 -0.2044  0.1754
60313W        W 3251  10.292  19.771  19.444 -0.1370  0.1005 -0.1895
60314W        W 3252  12.180  22.481  18.842 -0.1631 -0.0992 -0.0723
60315W        W 3253  11.038  18.665  15.918 -0.0040 -0.1580 -0.0989
60316W        W 3254  14.869  20.803  15.471 -0.3151 -0.2351  0.1368
60317W        W 3255  14.109  19.197  16.889  0.2411 -0.0275 -0.1221
60318W        W 3256  12.856  21.854  15.445 -0.2358  0.0337 -0.1900
60319W        W 3257  13.037  20.716  17.316 -0.2173  0.4665 -0.2106
60320W        W 3258  11.890  20.954  18.376 -0.1409  0.2187 -0.3670
60321W        W 3259  11.177  19.510  16.871 -0.0269  0.0530  0.0623
60322W        W 3260  13.836  22.835  18.121  0.2191  0.0860  0.2698
60323W        W 3261  13.700  21.982  17.025  0.0261  0.1888  0.1392
60324W        W 3262  12.096  18.649  16.781 -0.1180 -0.3891  0.1073
60325W        W 3263  10.662  20.029  17.442 -0.0079  0.0544  0.0397
60326W        W 3264  10.698  21.972  15.270  0.3444 -0.3599 -0.1783
60327W        W 3265  14.611  20.516  17.153 -0.3496  0.2558 -0.2436
60328W        W 3266  12.168  19.551  16.604 -0.0804 -0.3462 -0.1313
60329W        W 3267  11.831  22.162  15.611  0.1379  0.2265  0.1534
60330W        W 3268  11.295  19.504  19.047  0.3475  0.2441 -0.3453
60331W        W 3269  10.666  22.764  18.187 -0.0375 -0.1613  0.0447
60332W        W 3270  10.738  22.833  18.955  0.1330 -0.0998 -0.0742
60333W        W 3271  11.042  20.321  15.217 -0.0214 -0.1227  0.0045
60334W        W 3272  11.105  21.505  18.070  0.0212 -0.3035 -0.1146
60335W        W 3273  13.629  21.266  16.643  0.1902  0.1246  0.2496
60336W        W 3274  12.112  22.166  16.371 -0.0901 -0.1194 -0.1714
60337W        W 3275  11.811  20.607  18.020 -0.2799 -0.1413 -0.0174
60338W        W 3276  12.001  18.915  16.381 -0.0913 -0.1127 -0.0720
60339W        W 3277  14.713  22.958  16.915  0.0885 -0.2028 -0.0027
60340W        W 3278  10.727  18.383  16.997 -0.2673 -0.0966 -0.2298
60341W        W 3279  11.900  18.428  16.124 -0.1136 -0.2112  0.1124
60342W        W 3280  14.195  17.473  15.042  0.0905  0.5396  0.0555
60343W        W 3281  10.868  19.351  20.609  0.0939  0.0116  0.2247
60344W        W 3282  10.495  21.069  16.255  0.3765 -0.1683 -0.4161
60345W        W 3283  11.465  20.087  15.504 -0.2986  0.2213 -0.2931
60346W        W 3284  11.786  21.857  16.661  0.2428  0.1565  0.0863
60347W        W 3285  11.143  18.858  19.234 -0.0803 -0.0536 -0.4641
60348W        W 3286  10.807  19.756  19.104 -0.1198 -0.0647 -0.3869
60349W        W 3287  10.581  20.406  16.209  0.2616  0.1855 -0.0298
60350W        W 3288  10.730  19.069  15.233 -0.1034 -0.0556 -0.1054
60351W        W 3289  14.200  20.818  14.503  0.0444  0.0034 -0.1755
60352W        W 3290  11.753  18.777  18.448  0.2117 -0.0162 -0.1749
60353W        W 3291   9.861  18.169  17.318  0.1711 -0.0489 -0.2267
60354W        W 3292  11.969  20.439  18.482 -0.0992 -0.1353  0.1835
60355W        W 3293  13.224  21.466  16.266  0.2487  0.1436 -0.1374
60356W        W 3294  11.621  17.821  16.089 -0.0745  0.0416 -0.1616
60357W        W 3295  11.906  21.947  18.111  0.4294  0.1741  0.0152
60358W        W 3296  11.446  20.914  15.826 -0.1522  0.0500 -0.0926
60359W        W 3297  11.556  19.112  19.227 -0.1143 -0.2532  0.0744
60360W        W 3298  10.400  20.572  19.246 -0.5569 -0.0199  0.2239
60361W        W 3299  10.343  18.984  16.588 -0.0636 -0.0589  0.4209
60362W        W 3300  12.130  21.491  18.641  0.4342  0.0297 -0.2785
60363W        W 3301  11.857  22.997  17.584 -0.0232 -0.1346  0.2141
60364W        W 3302  13.244  22.126  15.705 -0.0547  0.3380  0.2016
60365W        W 3303  11.179  20.526  16.755 -0.2067  0.3226 -0.1875
60366W        W 3304  10.390  21.160  20.207  0.0940  0.1273 -0.0398
60367W        W 3305   9.705  18.350  17.755  0.3146 -0.1054 -0.0664
60368W        W 3306  13.355  20.411  16.416 -0.4330  0.0473  0.0524
60369W        W 3307  11.416  20.788  19.653  0.1759  0.3818 -0.0201
60370W        W 3308  14.183  21.589  14.867  0.1497  0.1594 -0.1575
60371W        W 3309  12.832  19.740  17.909 -0.2393  0.1434  0.2172
60372W        W 3310  12.974  20.498  15.744 -0.2096  0.1887 -0.0372
60373W        W 3311  10.403  18.641  19.741  0.1123 -0.1447  0.3246
60374W        W 3312  10.454  19.437  20.236 -0.1909 -0.2381 -0.0087
60375W        W 3313  15.134  21.033  16.607  0.2507  0.0278 -0.0012
60376W        W 3314  11.123  18.307  17.337  0.2575  0.3285 -0.0920
60377W        W 3315  13.511  19.622  15.662  0.0949 -0.0424 -0.2529
60378W        W 3316  12.197  20.461  16.761  0.2106 -0.1088 -0.1756
60379W        W 3317  12.508  21.031  15.578 -0.3383 -0.3384  0.0948
60380W        W 3318  11.946  20.068  15.500 -0.1830 -0.2168  0.1152
60381W        W 3319  11.479  20.242  18.141 -0.3015  0.2340  0.2327
60382W        W 3320  12.064  19.223  17.981 -0.1713  0.1426 -0.2336
60383W        W 3321  14.232  22.282  18.866 -0.1716 -0.2141 -0.1437
60384W        W 3322  11.380  19.162  15.589  0.0548  0.0740 -0.1088
60385W        W 3323  13.204  20.128  16.030 -0.3364 -0.4636  0.0804
60386W        W 3324  11.525  21.930  19.514  0.1880  0.0507 -0.1438
60387W        W 3325  12.173  23.250  18.235 -0.1452 -0.1765 -0.0192
60388W        W 3326  11.039  22.415  17.533  0.0066  0.0573 -0.0089
60389W        W 3327  14.117  20.485  17.320  0.1435  0.3056  0.0602
60390W        W 3328  11.233  18.014  15.862 -0.0602  0.0979  0.0183
60391W        W 3329  11.311  19.623  16.352  0.1157 -0.2174 -0.0490
60392W        W 3330  11.598  20.075  16.066  0.1067 -0.1591  0.0612
60393W        W 3331  13.976  21.671  16.752  0.2234 -0.0250  0.0528
60394W        W 3332  10.673  19.449  16.014  0.0162  0.0973 -0.0904
60395W        W 3333  12.554  18.150  16.713  0.1305 -0.1854 -0.0503
60396W        W 3334  11.531  22.297  16.452 -0.0701  0.0526 -0.3793
60397W        W 3335  12.501  20.520  17.277 -0.1179  0.0280 -0.0645
60398W        W 3336  12.018  21.179  21.431  0.1278 -0.1658 -0.0797
60399W        W 3337   9.937  18.434  19.849  0.1458  0.1969  0.0246
60400W        W 3338  12.224  20.064  18.282 -0.2275 -0.1213 -0.2705
60401W        W 3339  13.029  21.152  19.860 -0.5244 -0.0037 -0.1320
60402W        W 3340  10.820  18.565  21.486 -0.1045  0.1182 -0.0986
60403W        W 3341  12.871  22.150  19.657  0.1187 -0.1646  0.0169
60404W        W 3342  11.671  17.998  20.600  0.3119 -0.0254  0.0318
60405W        W 3343  12.473  21.817  22.109 -0.0143 -0.3323  0.2688
60406W        W 3344  13.185  22.823  20.477 -0.1304  0.2815  0.1207
60407W        W 3345  11.078  20.964  19.340  0.1175 -0.1880 -0.2647
60408W        W 3346  13.374  18.821  19.877 -0.2166 -0.0220 -0.2178
60409W        W 3347  12.125  23.167  22.126 -0.0449 -0.1590  0.0850
60410W        W 3348  11.790  18.298  20.239 -0.1863  0.0196 -0.0088
60411W        W 3349   9.612  18.826  21.225 -0.2080 -0.1192 -0.0292
60412W        W 3350  12.078  22.275  21.214 -0.1951 -0.0550  0.0735
60413W        W 3351  10.321  20.583  21.163  0.1223  0.0112 -0.1540
60414W        W 3352  11.912  20.406  19.829  0.0071 -0.1668 -0.1781
60415W        W 3353  11.322  18.595  21.364 -0.0708  0.1154  0.1271
60416W        W 3354  13.972  23.367  20.817  0.0974 -0.0658 -0.0749
60417W        W 3355  11.645  18.275  21.813 -0.1262 -0.3158 -0.0747
60418W        W 3356  12.651  17.797  22.064 -0.0315 -0.0034  0.1049
60419W        W 3357  11.752  21.206  19.825  0.2485 -0.0286  0.1835
60420W        W 3358  10.097  19.458  19.797 -0.3347 -0.0076  0.1150
60421W        W 3359  11.854  19.067  22.503 -0.0218 -0.1304  0.0450
60422W        W 3360  11.128  20.152  20.658 -0.2610  0.0179 -0.0830
60423W        W 3361  13.199  20.151  18.981  0.5021 -0.2259  0.1215
60424W        W 3362  11.635  18.797  20.126  0.0069 -0.1245  0.0845
60425W        W 3363  11.137  22.616  20.045 -0.0155  0.1738  0.1247
60426W        W 3364  12.531  21.443  20.625  0.0528  0.0945  0.0396
60427W        W 3365  11.637  19.354  20.177  0.3499 -0.2168 -0.1828
60428W        W 3366  10.157  20.609  20.620 -0.2301 -0.2843  0.0046
60429W        W 3367  10.906  21.532  22.591  0.0324  0.2401 -0.1956
60430W        W 3368  10.763  22.056  20.730  0.3105  0.1198  0.1075
60431W        W 3369  13.789  22.290  20.020  0.1652 -0.1603  0.0740
60432W        W 3370  14.280  22.104  22.170  0.0713  0.1347 -0.1774
60433W        W 3371  11.903  23.075  23.158 -0.0654  0.1332  0.1715
60434W        W 3372  10.508  20.409  21.567 -0.2124  0.1617 -0.3276
60435W        W 3373  12.672  19.767  21.888 -0.4026 -0.1121 -0.1025
60436W        W 3374  11.298  20.967  23.457 -0.1431  0.2482  0.0432
60437W        W 3375  11.782  18.793  21.618 -0.0951 -0.0727  0.0387
60438W        W 3376  12.117  21.882  22.633  0.0020  0.0957  0.3240
60439W        W 3377  12.136  22.523  20.093 -0.5073 -0.0997 -0.2771
60440W        W 3378  10.813  21.086  19.905 -0.1226 -0.0354 -0.1036
60441W        W 3379  11.164  21.487  23.348  0.2953 -0.2016  0.2542
60442W        W 3380  12.220  23.768  21.390 -0.0522  0.3771  0.2683
60443W        W 3381  11.136  19.843  21.040  0.4022  0.4161  0.0087
60444W        W 3382  10.335  22.751  20.205 -0.3003 -0.1125  0.0714
60445W        W 3383  12.261  20.704  20.064  0.2434  0.1039  0.0525
60446W        W 3384  10.240  19.009  18.996 -0.0705  0.0839 -0.2026
60447W        W 3385  11.867  19.189  18.822 -0.2152 -0.0011 -0.0420
60448W        W 3386  10.669  18.805  20.212 -0.3629 -0.3483 -0.3142
60449W        W 3387  11.774  23.511  22.315 -0.2465  0.1484 -0.2563
60450W        W 3388  12.270  20.099  20.167 -0.0978  0.0807 -0.0247
60451W        W 3389  14.275  21.862  19.900  0.4821  0.1163  0.0671
60452W        W 3390  12.250  21.263  20.038  0.2920  0.4397  0.1032
60453W        W 3391  11.933  21.334  20.894 -0.1008  0.0890 -0.0974
60454W        W 3392  12.581  23.530  23.240  0.1266 -0.0989  0.2819
60455W        W 3393  10.963  19.322  22.086 -0.0449  0.0304  0.4744
60456W        W 3394  12.722  21.303  19.389  0.3864 -0.1747  0.0176
60457W        W 3395  14.506  22.201  21.036  0.3074  0.0376  0.0323
60458W        W 3396  12.428  22.112  19.819  0.4355 -0.1278  0.0533
60459W        W 3397   9.587  18.730  19.626 -0.0750  0.2539 -0.2497
60460W        W 3398  11.480  20.496  22.406  0.0394 -0.0049  0.1136
60461W        W 3399  11.799  19.770  23.607  0.2258 -0.0231  0.3366
60462W        W 3400  10.717  18.972  19.745 -0.0717  0.0161  0.1529
60463W        W 3401  12.578  21.643  21.201 -0.0379 -0.1149  0.3165
60464W        W 3402  11.491  20.747  22.991 -0.3394 -0.0556  0.0319
60465W        W 3403  13.792  19.978  19.971 -0.0598 -0.1843  0.1529
60466W        W 3404  11.944  19.746  21.295 -0.1555  0.1548 -0.2345
60467W        W 3405  12.789  21.838  21.697  0.1077 -0.1040  0.4514
60468W        W 3406  12.930  21.142  18.282  0.0323  0.2199 -0.1498
60469W        W 3407  13.065  17.207  19.761  0.1049  0.1340  0.1408
60470W        W 3408  12.552  19.630  18.391  0.0035  0.1529  0.1512
60471W        W 3409  11.043  20.771  20.168  0.2862 -0.1997 -0.1199
60472W        W 3410   9.879  19.189  20.260 -0.0363  0.0426  0.4030
60473W        W 3411  14.415  21.491  21.237  0.0590 -0.1375 -0.0942
60474W        W 3412  13.377  20.425  18.597 -0.0080  0.1427  0.0780
60475W        W 3413  10.886  23.932  21.302 -0.3192 -0.0234  0.0992
60476W        W 3414  11.154  18.933  21.006  0.2049 -0.0761 -0.1405
60477W        W 3415  11.919  22.161  23.026 -0.1583  0.0268 -0.0964
60478W        W 3416   9.883  20.448  19.873  0.0364 -0.0590  0.2947
60479W        W 3417  11.419  21.736  21.987  0.0580  0.2366  0.1316
60480W        W 3418  10.858  20.259  20.234 -0.0509 -0.0666  0.1636
60481W        W 3419  10.622  18.232  22.706  0.2746  0.3331  0.2086
60482W        W 3420  11.181  21.601  21.538  0.1129 -0.0523 -0.4411
60483W        W 3421  14.044  20.936  19.471 -0.1375 -0.2347 -0.0881
60484W        W 3422  11.521  18.628  22.821 -0.0769 -0.0122  0.0837
60485W        W 3423  13.782  19.899  18.070  0.2703 -0.1035 -0.0481
60486W        W 3424  11.043  18.758  20.531  0.1643  0.1960 -0.0011
60487W        W 3425  13.092  23.541  18.574 -0.0704  0.1777  0.0062
60488W        W 3426  12.376  20.604  18.814 -0.2394 -0.1307  0.2820
60489W        W 3427  11.557  21.631  17.815  0.1785 -0.0540  0.3950
60490W        W 3428  10.757  19.128  22.523 -0.1251  0.0429  0.2953
60491W        W 3429  10.529  17.800  20.447  0.0124  0.0434 -0.0816
60492W        W 3430  10.784  19.140  24.201 -0.0901  0.1505  0.1197
60493W        W 3431  11.371  19.215  20.559  0.1210  0.0500  0.1592
60494W        W 3432  12.770  20.593  20.150  0.2176  0.1254 -0.1918
60495W        W 3433  10.411  17.678  18.143 -0.2508  0.3608 -0.0490
60496W        W 3434  12.469  20.235  19.741 -0.0085  0.0551 -0.0531
60497W        W 3435  11.276  20.458  19.352 -0.0358 -0.1233 -0.3773
60498W        W 3436  11.287  20.575  21.526  0.0943  0.0910  0.0423
60499W        W 3437  12.360  16.755  19.544  0.0248  0.1414  0.1571
60500W        W 3438  12.151  23.357  19.306  0.0216 -0.4027  0.2251
60501W        W 3439  12.097  22.107  21.687 -0.2468 -0.2688  0.3773
60502W        W 3440  13.156  22.617  19.583 -0.2498  0.2064 -0.2074
60503W        W 3441  11.701  19.480  22.238  0.0604 -0.0735  0.1331
60504W        W 3442  10.010  18.945  19.835 -0.3731 -0.2762 -0.2088
60505W        W 3443  10.929  21.940  22.985  0.2856 -0.3008  0.2768
60506W        W 3444  10.967  21.528  20.808 -0.0870 -0.0490 -0.1243
60507W        W 3445  10.706  18.214  19.421  0.0686 -0.2444  0.0593
60508W        W 3446  14.808  22.876  19.324  0.0553 -0.2356  0.2325
60509W        W 3447  11.546  21.065  20.546 -0.0521  0.1821  0.0213
60510W        W 3448  11.919  20.626  22.125 -0.0395 -0.4235 -0.0528
60511W        W 3449  12.105  17.834  20.073 -0.0710  0.1427 -0.1451
60512W        W 3450  12.590  22.230  21.382  0.0645  0.1360 -0.2301
60513W        W 3451  12.745  22.887  20.691  0.1814 -0.3074  0.3356
60514W        W 3452   9.086  17.720  19.681 -0.2781  0.1542  0.1238
60515W        W 3453  14.114  24.068  20.318 -0.0377 -0.1548 -0.1060
60516W        W 3454   9.915  21.872  21.208 -0.1749 -0.0189  0.1762
60517W        W 3455  11.758  19.295  21.707  0.1999  0.1821  0.1962
60518W        W 3456  11.521  22.183  22.223  0.0616 -0.2601 -0.1410
60519W        W 3457  13.408  19.610  18.084 -0.2628  0.1775  0.1780
60520W        W 3458  11.772  18.872  25.006 -0.0846 -0.0013  0.0744
60521W        W 3459  12.979  19.591  20.979 -0.0580  0.1397  0.1778
60522W        W 3460   9.511  18.157  19.739 -0.0211  0.1765 -0.1300
60523W        W 3461  12.268  20.635  21.541 -0.0839  0.1545 -0.1729
60524W        W 3462  12.665  18.485  19.507 -0.0022  0.3284  0.3732
60525W        W 3463  14.796  21.386  17.621 -0.1664  0.4269  0.1085
60526W        W 3464  11.871  20.375  21.360  0.0525 -0.3714 -0.0573
60527W        W 3465  13.188  23.348  19.729 -0.2100 -0.2028  0.3079
60528W        W 3466  11.624  20.059  18.575  0.0554  0.2262 -0.3396
60529W        W 3467  12.785  18.941  18.472  0.1442 -0.1320 -0.0181
60530W        W 3468  11.075  20.316  22.604 -0.1860  0.0038  0.1612
60531W        W 3469  13.124  21.667  19.593  0.1299  0.0426  0.1373
60532W        W 3470  11.413  21.071  21.489 -0.1011 -0.0403 -0.0397
60533W        W 3471  11.108  21.122  18.883 -0.1452 -0.1400  0.1792
60534W        W 3472  14.887  23.017  18.708 -0.1265  0.0743 -0.4027
60535W        W 3473  11.239  21.108  20.918  0.2223  0.2835 -0.2721
60536W        W 3474  14.086  20.513  21.262  0.4408  0.2201  0.0944
60537W        W 3475  12.475  22.511  20.897 -0.1374 -0.3568 -0.3714
60538W        W 3476  10.631  18.157  21.159 -0.1192  0.3286 -0.1020
60539W        W 3477  10.319  19.164  19.498 -0.2049 -0.1940 -0.2122
60540W        W 3478  12.161  17.938  18.905  0.2234 -0.0624 -0.2187
60541W        W 3479  10.008  21.837  20.690  0.0949  0.0734  0.4462
60542W        W 3480  12.352  19.556  18.995 -0.0635  0.0039  0.1458
60543W        W 3481  10.712  17.450  20.743  0.0713  0.0963  0.1959
60544W        W 3482  11.030  18.106  21.484 -0.1640  0.0823 -0.0649
60545W        W 3483  12.859  20.473  20.724 -0.0039  0.4721  0.0922
60546W        W 3484  14.031  21.045  18.862  0.0837  0.2114 -0.4167
60547W        W 3485  12.091  21.759  21.275  0.0679 -0.0339  0.2469
60548W        W 3486   9.563  20.050  18.978 -0.1297  0.3967 -0.0446
60549W        W 3487  11.726  19.956  20.162  0.0746  0.0292 -0.2060
60550W        W 3488  12.230  19.856  22.170  0.0662  0.5003  0.1606
60551W        W 3489  11.812  20.168  22.741  0.2227 -0.4105  0.1038
60552W        W 3490  12.995  21.772  23.892  0.0921  0.1979  0.2052
60553W        W 3491  13.495  21.082  20.428  0.1401  0.0345  0.1996
60554W        W 3492  13.338  19.042  19.291 -0.1882  0.1416  0.0247
60555W        W 3493  11.999  18.684  18.903  0.0802  0.0486 -0.1048
60556W        W 3494  10.863  20.634  19.654 -0.1831  0.1633 -0.0457
60557W        W 3495  11.521  19.684  19.808 -0.0638  0.1716 -0.0744
60558W        W 3496  12.325  17.466  19.793 -0.1880 -0.0210 -0.0916
60559W        W 3497  11.754  21.575  21.676 -0.1483 -0.0165  0.1025
60560W        W 3498  11.534  20.606  18.585 -0.1573 -0.3178  0.0092
60561W        W 3499  13.938  20.819  21.716  0.0350 -0.0691 -0.2408
60562W        W 3500  10.949  20.245  21.228  0.0623  0.0641  0.2327
60563W        W 3501  12.781  16.997  19.399  0.3468 -0.2459  0.0282
60564W        W 3502  11.241  22.092  21.695  0.1218 -0.0887  0.0709
60565W        W 3503  11.048  18.027  19.859 -0.2897  0.0117 -0.0447
60566W        W 3504  10.757  19.678  19.646  0.1721 -0.1277 -0.0777
60567W        W 3505  14.039  21.432  19.752  0.2050 -0.1894  0.1637
60568W        W 3506  13.053  19.704  17.430  0.1874 -0.0843  0.2042
60569W        W 3507  10.855  18.544  20.956 -0.2045  0.2107  0.0923
60570W        W 3508  12.041  20.892  20.595 -0.2479 -0.1758 -0.0413
60571W        W 3509  11.008  20.083  21.707  0.0664 -0.2152  0.3128
60572W        W 3510  11.904  19.458  20.767 -0.1939 -0.0743 -0.1052
60573W        W 3511  13.374  19.621  18.632  0.0873  0.1223 -0.2083
60574W        W 3512  13.454  22.496  21.042  0.2897 -0.1507  0.0425
60575W        W 3513  13.055  21.428  21.800  0.0105  0.0806  0.0695
60576W        W 3514   8.460  19.930  20.189 -0.1204 -0.2461  0.2372
60577W        W 3515  13.552  20.095  20.487  0.0929  0.1857  0.0380
60578W        W 3516  11.808  20.479  20.857  0.0176  0.1175 -0.1832
60579W        W 3517  11.691  22.482  20.328  0.0501  0.3090  0.2470
60580W        W 3518  13.813  22.852  20.999  0.0551  0.0998  0.0188
60581W        W 3519  10.362  19.277  20.727  0.2937  0.0819  0.1037
60582W        W 3520  12.154  21.734  20.699  0.0809  0.0318 -0.1115
60583W        W 3521  11.942  18.786  22.140  0.2300 -0.1859 -0.2073
60584W        W 3522  12.065  22.427  22.030 -0.0827 -0.0954 -0.0759
60585W        W 3523  11.999  18.966  19.331  0.0130  0.0939  0.0107
60586W        W 3524  11.955  17.597  20.547  0.1084  0.1154 -0.0048
60587W        W 3525  12.634  20.054  20.467 -0.0480 -0.1687  0.0709
60588W        W 3526  13.161  21.964  20.894 -0.1383 -0.0245  0.3107
60589W        W 3527  12.037  19.171  19.942 -0.1393  0.1531 -0.2181
60590W        W 3528  12.130  22.775  23.739  0.2945 -0.1961 -0.1079
60591W        W 3529  12.156  18.631  20.269  0.2184 -0.0834  0.1157
60592W        W 3530  13.132  22.333  17.975 -0.0911  0.0279  0.0710
60593W        W 3531  13.241  20.149  20.861  0.0343 -0.0972 -0.2511
60594W        W 3532  10.620  20.727  20.384 -0.3899  0.2483  0.1121
60595W        W 3533  10.337  19.944  21.869 -0.3078 -0.0281  0.2427
60596W        W 3534  11.259  21.907  20.950 -0.1308  0.1172  0.2197
60597W        W 3535  12.570  18.213  19.977  0.0956 -0.1900 -0.2475
60598W        W 3536  10.173  20.171  20.853 -0.0197  0.1686 -0.0056
60599W        W 3537  10.036  23.247  20.475  0.1198  0.2945  0.0680
60600W        W 3538   9.884  20.890  21.698 -0.3930  0.0674  0.1815
60601W        W 3539  13.517  18.079  18.516  0.1135 -0.3159 -0.2062
60602W        W 3540  13.456  20.365  19.990 -0.2332 -0.0980  0.1176
60603W        W 3541  12.895  18.605  19.904 -0.2262 -0.2293  0.2237
60604W        W 3542  14.030  19.061  18.644  0.1400 -0.1378  0.3607
60605W        W 3543  12.907  21.189  18.864 -0.1818  0.2534  0.1310
60606W        W 3544  12.357  17.832  20.773  0.1763 -0.1806  0.1224
60607W        W 3545  11.661  20.000  20.970  0.1331  0.0578 -0.0860
60608W        W 3546  13.485  22.940  21.366  0.0386  0.0267  0.1010
60609W        W 3547  11.324  19.267  22.554  0.1297  0.1354 -0.1882
60610W        W 3548  13.203  20.227  22.718  0.1401  0.2500 -0.0592
60611W        W 3549  11.638  21.303  22.995  0.0655  0.0721  0.1443
60612W        W 3550  11.290  21.211  20.183  0.1470 -0.0153  0.4371
60613W        W 3551  12.006  17.765  19.345 -0.3084  0.1009  0.0840
60614W        W 3552  11.883  21.445  20.366 -0.4148  0.0023  0.0055
60615W        W 3553  14.203  22.252  20.242  0.1070 -0.0363  0.1132
60616W        W 3554  10.981  20.171  19.739 -0.0392  0.1141  0.1340
60617W        W 3555  13.657  21.011  19.181 -0.1268 -0.3341 -0.1550
60618W        W 3556  10.986  19.336  21.220 -0.1261 -0.1844 -0.0885
60619W        W 3557  13.999  21.349  20.629 -0.4490 -0.2500  0.2671
60620W        W 3558  11.809  21.185  19.224 -0.0231  0.2840 -0.1978
60621W        W 3559   9.998  20.822  20.230  0.3696 -0.0729  0.0520
60622W        W 3560  12.293  19.324  22.705 -0.0698  0.3061  0.1992
60623W        W 3561  13.803  20.917  20.762  0.1125  0.0098  0.2091
60624W        W 3562  12.754  19.447  20.532 -0.0003 -0.0350  0.0056
60625W        W 3563  11.765  21.933  20.421  0.0900 -0.1888 -0.2757
60626W        W 3564  11.455  20.590  20.485  0.1207  0.1935  0.0397
60627W        W 3565  12.242  19.561  20.380  0.0763 -0.1988  0.1115
60628W        W 3566  12.116  19.617  23.177  0.0641  0.1976  0.1683
60629W        W 3567  14.006  23.299  19.601 -0.2772  0.0706  0.0379
60630W        W 3568  13.275  19.299  17.355  0.0326 -0.2047  0.2044
60631W        W 3569  13.692  19.637  20.399  0.0001  0.2680 -0.1030
60632W        W 3570  15.179  19.854  18.303  0.1559  0.0648 -0.3954
60633W        W 3571  12.591  19.800  19.396  0.4342 -0.0989  0.0279
60634W        W 3572  11.201  19.087  21.656  0.1903  0.0532 -0.5191
60635W        W 3573  11.330  20.561  21.050  0.0544 -0.0817 -0.2722
60636W        W 3574  12.291  17.190  20.881  0.2058 -0.0598 -0.1272
60637W        W 3575  12.876  19.036  20.089  0.4382  0.2748  0.1551
60638W        W 3576  11.972  21.657  19.763  0.0438 -0.2645  0.1204
60639W        W 3577  13.425  22.356  20.502 -0.0152 -0.0575 -0.1580
60640W        W 3578  13.599  19.680  19.592  0.1902  0.1814  0.1527
60641W        W 3579   9.947  18.467  21.674 -0.1752 -0.1181  0.0945
60642W        W 3580  11.272  21.270  24.360  0.0176 -0.0510  0.1115
60643W        W 3581  10.384  19.787  18.635  0.1167  0.1183  0.0647
60644W        W 3582  11.787  19.560  19.404  0.0112 -0.0912 -0.4394
60645W        W 3583  10.440  21.617  22.175 -0.1297 -0.1932  0.0607
60646W        W 3584  14.218  21.113  21.465 -0.1598  0.0216  0.1705
60647W        W 3585  12.120  18.452  19.360 -0.1987  0.3071  0.2692
60648W        W 3586  12.224  20.100  21.096  0.0670  0.1184 -0.0639
60649W        W 3587  11.141  22.643  21.452 -0.1210  0.1463 -0.1807
60650W        W 3588  11.930  17.384  21.469  0.0234  0.0474 -0.0883
60651W        W 3589  10.841  22.378  22.654  0.1686  0.0244 -0.2655
60652W        W 3590  11.262  19.766  22.096 -0.1992 -0.0396  0.0442
60653W        W 3591  12.966  22.378  20.614  0.0987  0.2809  0.0540
60654W        W 3592  10.886  17.994  20.789  0.1238 -0.0267 -0.1675
60655W        W 3593  12.971  21.865  22.725 -0.0095  0.0969 -0.0633
60656W        W 3594  11.738  21.893  20.944  0.2409 -0.1806  0.2554
60657W        W 3595  14.048  19.533  19.217  0.0010 -0.0833  0.1731
60658W        W 3596  13.323  21.456  20.084  0.1090 -0.3706  0.1042
60659W        W 3597  11.725  20.931  21.124 -0.0475 -0.0183 -0.0205
60660W        W 3598  11.706  22.667  22.263 -0.1969  0.0632 -0.1070
60661W        W 3599  14.024  20.513  19.858 -0.3447 -0.0953 -0.0080
60662W        W 3600  11.193  22.320  20.639  0.0226 -0.1519  0.1735
60663W        W 3601  10.554  20.310  24.178  0.0772 -0.2358  0.1970
60664W        W 3602  11.579  18.720  20.581 -0.2012  0.1374 -0.2159
60665W        W 3603  11.542  22.905  21.205 -0.1825  0.3531  0.1265
60666W        W 3604   9.998  17.991  18.870 -0.1819  0.2531  0.3000
60667W        W 3605  11.628  19.066  19.724 -0.1492  0.0270 -0.0302
60668W        W 3606  10.528  21.311  23.941  0.0143  0.0200  0.2899
60669W        W 3607  10.330  19.215  22.767 -0.0194  0.4931  0.2216
60670W        W 3608  11.561  23.088  21.917  0.0616  0.1007 -0.0615
60671W        W 3609  10.947  21.522  17.385  0.1547  0.2808  0.3324
60672W        W 3610  12.914  21.891  20.145  0.0263 -0.2142  0.1710
60673W        W 3611  13.016  23.571  21.094 -0.1447 -0.3206 -0.0054
60674W        W 3612  10.650  19.878  20.504 -0.3415 -0.0741 -0.0227
60675W        W 3613  10.532  21.018  20.907 -0.0778  0.0661  0.0039
60676W        W 3614   9.244  21.100  20.230  0.0051  0.1784 -0.0402
60677W        W 3615  13.360  20.979  18.714 -0.2917  0.2896 -0.1108
60678W        W 3616  12.945  23.009  20.000 -0.1068  0.3073 -0.2197
60679W        W 3617  13.201  20.287  21.384  0.0299  0.0384 -0.3101
60680W        W 3618  12.540  20.526  18.270  0.0213 -0.0042  0.1055
60681W        W 3619  13.048  23.353  20.563  0.0286  0.0838 -0.2190
60682W        W 3620  13.708  20.244  17.729 -0.0799 -0.0786  0.1858
60683W        W 3621  12.296  21.693  23.101 -0.1078  0.0561  0.2578
60684W        W 3622  12.069  19.725  19.840 -0.1732  0.4348 -0.1142
60685W        W 3623  11.468  18.576  18.882  0.0754  0.0739 -0.1572
60686W        W 3624  10.726  21.360  24.373 -0.0588 -0.0857 -0.2867
60687W        W 3625  13.203  18.200  19.894  0.0232 -0.0863 -0.2023
60688W        W 3626  11.514  21.379  23.732  0.1742 -0.0120  0.2323
60689W        W 3627  13.518  21.867  18.788 -0.4979 -0.1696  0.1758
60690W        W 3628  10.642  20.348  20.765 -0.0619  0.0915 -0.2301
60691W        W 3629  11.707  20.801  20.113 -0.3587 -0.2555 -0.0314
60692W        W 3630  13.846  18.372  18.652 -0.3644 -0.4479  0.1444
60693W        W 3631  10.981  20.597  18.949 -0.0700  0.1459 -0.2125
60694W        W 3632  13.061  19.734  19.555 -0.4089 -0.0656  0.0332
60695W        W 3633  13.173  22.050  21.363 -0.1034 -0.1271  0.2094
60696W        W 3634  11.471  23.356  21.498  0.0678  0.0118  0.1071
60697W        W 3635  10.741  23.553  22.130 -0.0829  0.2313 -0.1241
60698W        W 3636   9.563  19.236  19.757 -0.1378  0.1225 -0.1703
60699W        W 3637  14.211  20.527  19.143  0.0623 -0.1132 -0.0381
60700W        W 3638  11.307  19.876  22.653  0.1733  0.2051  0.0540
60701W        W 3639  13.537  18.124  19.081 -0.1533 -0.1425 -0.3455
60702W        W 3640  10.182  18.447  21.120 -0.3096  0.1666 -0.1715
60703W        W 3641  13.036  20.217  19.848 -0.0346 -0.0724  0.2852
60704W        W 3642  12.441  19.704  20.778  0.0995 -0.1087  0.1755
60705W        W 3643  10.503  20.530  22.305 -0.0249  0.0284  0.0363
60706W        W 3644  12.560  19.337  19.884  0.0646  0.1550 -0.1192
60707W        W 3645  13.408  21.928  20.271  0.2950  0.1312  0.4050
60708W        W 3646  11.016  21.638  19.888  0.0844 -0.2412  0.0040
60709W        W 3647  11.916  21.921  22.129  0.0532 -0.0952  0.2519
60710W        W 3648  10.701  18.124  21.905 -0.1148 -0.0751 -0.4433
60711W        W 3649  11.747  19.742  18.952 -0.0226  0.2867  0.3922
60712W        W 3650  12.235  20.928  21.040 -0.1847 -0.2506  0.1021
60713W        W 3651  12.059  19.957  20.578  0.0194 -0.0551  0.0774
60714W        W 3652  13.004  21.459  21.269 -0.0606  0.3084 -0.0696
60715W        W 3653  10.160  18.056  19.422  0.0692 -0.0171 -0.0049
60716W        W 3654  12.559  21.608  18.879  0.1013 -0.0249  0.3343
60717W        W 3655  13.222  20.717  20.962  0.2329  0.0787 -0.0296
60718W        W 3656  10.884  22.877  20.400 -0.0022 -0.2227  0.2498
60719W        W 3657  13.928  21.899  20.462  0.1114  0.0643 -0.1148
60720W        W 3658  12.975  22.710  22.104 -0.2090  0.3797  0.0061
60721W        W 3659  10.702  19.322  23.118 -0.0500  0.0487  0.0056
60722W        W 3660  12.712  21.363  22.121  0.0437  0.3362 -0.3920
60723W        W 3661  14.626  21.437  19.828  0.1640  0.0246 -0.1624
60724W        W 3662  11.305  17.622  20.720 -0.2878  0.3130  0.0279
60725W        W 3663  11.020  19.834  20.096 -0.0696  0.0234  0.0345
60726W        W 3664  10.950  21.747  20.377  0.2628  0.3231 -0.0824
60727W        W 3665  12.732  20.292  19.211 -0.1229 -0.1075  0.1683
60728W        W 3666  11.006  20.716  20.677 -0.1929 -0.1291 -0.2239
60729W        W 3667  12.454  22.971  19.265  0.0209  0.2432 -0.1375
60730W        W 3668  12.238  18.135  21.177 -0.2110 -0.1100  0.3654
60731W        W 3669  11.386  20.807  21.970  0.0410 -0.0680  0.1351
60732W        W 3670  11.548  20.688  24.239  0.2256 -0.0069  0.1202
60733W        W 3671   9.689  20.474  21.054  0.0004  0.0794 -0.0070
60734W        W 3672  12.551  20.512  22.017  0.0710  0.0570  0.2860
60735W        W 3673  10.860  20.756  21.242  0.0417 -0.3578  0.0306
60736W        W 3674  13.732  24.020  19.958  0.0117 -0.0743  0.3625
60737W        W 3675  13.512  23.193  20.696  0.1862  0.2080 -0.1420
60738W        W 3676  13.130  19.548  19.042  0.4124 -0.1042 -0.0928
60739W        W 3677  13.637  21.819  19.803 -0.0287  0.1085  0.1611
60740W        W 3678  11.932  18.136  19.705  0.2511 -0.4291 -0.0104
60741W        W 3679  13.971  20.398  18.166  0.1336 -0.1208  0.1256
60742W        W 3680  12.887  20.746  18.630 -0.0929 -0.1765  0.0345
60743W        W 3681  11.894  20.619  23.282  0.2019 -0.0294  0.1329
60744W        W 3682   9.270  18.045  19.296  0.4023  0.0579  0.2676
60745W        W 3683  11.301  22.078  20.175  0.0013 -0.0653 -0.1256
60746W        W 3684  10.427  19.954  21.350  0.2130 -0.0832 -0.1671
60747W        W 3685  11.898  19.083  23.379 -0.0321  0.0301  0.0943
60748W        W 3686  11.960  19.243  21.278 -0.1657 -0.1484 -0.0778
60749W        W 3687  10.853  18.497  19.876  0.0773  0.0293 -0.1950
60750W        W 3688  11.459  18.374  20.911  0.0916 -0.2283 -0.4367
60751W        W 3689  14.441  21.490  18.935  0.0826 -0.1825  0.1888
60752W        W 3690  10.862  16.890  19.987 -0.2254 -0.1932 -0.2017
60753W        W 3691   9.297  18.851  20.783  0.0265  0.1661  0.0555
60754W        W 3692  13.342  22.200  19.877  0.1369 -0.1908 -0.0305
60755W        W 3693  13.310  22.076  19.384 -0.0977 -0.3679 -0.0401
60756W        W 3694  10.952  19.321  20.087  0.3856 -0.1280  0.2376
60757W        W 3695  13.844  21.842  22.616  0.3076 -0.0330 -0.0232
60758W        W 3696  10.339  21.905  18.260 -0.1334  0.3009  0.0110
60759W        W 3697  12.972  18.748  22.057 -0.0645 -0.1571 -0.0963
60760W        W 3698  12.297  19.151  20.861 -0.0521 -0.1504 -0.0047
60761W        W 3699  10.089  18.628  19.378  0.1402  0.1352  0.1315
60762W        W 3700  11.402  20.283  19.967 -0.3051  0.0987 -0.0338
60763W        W 3701  12.951  22.481  21.090  0.1223  0.0025 -0.3044
60764W        W 3702  12.677  22.567  19.434  0.0621 -0.0350  0.1003
60765W        W 3703  12.334  20.866  22.778 -0.1970  0.1854  0.3994
60766W        W 3704  11.908  23.136  22.559  0.0375  0.0460 -0.1185
60767W        W 3705  11.223  19.671  24.434  0.1235 -0.0748  0.1406
60768W        W 3706  12.520  20.958  20.462  0.2026  0.1500 -0.1396
60769W        W 3707  13.183  21.015  22.218  0.4668 -0.2008  0.0631
60770W        W 3708  13.544  21.675  19.314  0.2933 -0.0004 -0.1369
60771W        W 3709  13.443  20.089  19.490 -0.0421 -0.0746  0.1883
60772W        W 3710  12.581  21.647  19.774  0.2472 -0.0588 -0.2583
60773W        W 3711  10.658  18.849  23.407  0.0053  0.4910 -0.1655
60774W        W 3712  11.369  20.251  23.139  0.1731  0.1510 -0.1449
60775W        W 3713  14.985  22.236  21.194  0.0347 -0.2635  0.1262
60776W        W 3714  10.154  17.347  20.716 -0.1552  0.1527  0.1185
60777W        W 3715  12.086  19.933  19.279 -0.2925  0.3398  0.2920
60778W        W 3716  12.337  23.106  20.821  0.1070  0.1171  0.2036
60779W        W 3717  11.757  20.762  21.619 -0.0162 -0.1587 -0.2482
60780W        W 3718  12.920  18.708  19.113  0.1300 -0.0521 -0.1972
60781W        W 3719  12.491  19.005  20.383 -0.3509 -0.0439 -0.0739
60782W        W 3720  11.889  22.935  21.591  0.1623  0.0532 -0.0486
60783W        W 3721  12.774  21.046  20.898 -0.1271  0.0234 -0.0219
60784W        W 3722  12.413  18.839  19.828 -0.0688 -0.1362  0.1290
60785W        W 3723  12.593  20.894  19.677 -0.0909  0.1382 -0.1704
60786W        W 3724  13.152  22.220  21.907 -0.0643 -0.0482 -0.1014
60787W        W 3725  13.697  21.482  23.244 -0.0223  0.0314  0.2981
60788W        W 3726  11.394  23.036  22.400  0.1910  0.0338 -0.1931
60789W        W 3727  13.125  20.225  20.357 -0.2520 -0.2687 -0.0185
60790W        W 3728  10.026  18.820  20.799 -0.0942  0.1561 -0.1670
60791W        W 3729  10.826  18.259  20.301  0.0404  0.0615 -0.1726
60792W        W 3730  11.696  22.481  21.648 -0.1096 -0.1534  0.0674
60793W        W 3731  12.280  19.405  19.441  0.0397  0.2168  0.1091
60794W        W 3732  12.333  18.886  22.477  0.2429  0.1598  0.5075
60795W        W 3733  12.651  19.216  17.949  0.1779 -0.0030  0.1287
60796W        W 3734  11.679  22.096  24.517 -0.1576 -0.1042  0.2414
60797W        W 3735  13.269  21.257  20.878 -0.1666  0.4130  0.0871
60798W        W 3736  11.510  20.033  26.268  0.0647 -0.0433 -0.0768
60799W        W 3737  10.812  19.462  24.605  0.1317  0.1105  0.1390
60800W        W 3738  11.710  18.977  20.959  0.0336 -0.1475  0.0896
60801W        W 3739   9.953  18.858  25.249 -0.2398 -0.1406  0.1432
60802W        W 3740  12.128  21.679  24.354 -0.1554 -0.1345  0.0996
60803W        W 3741  11.482  16.817  27.208 -0.1214 -0.0905  0.3012
60804W        W 3742  12.981  21.218  26.029 -0.1339 -0.2410  0.0890
60805W        W 3743  14.736  22.543  24.228  0.0345  0.0524  0.0409
60806W        W 3744  12.007  19.085  20.463  0.2206 -0.0353 -0.1743
60807W        W 3745  12.775  19.683  25.626  0.2488  0.0479 -0.2042
60808W        W 3746  12.683  20.254  24.846  0.0086 -0.1137 -0.0084
60809W        W 3747  11.022  18.531  22.946  0.1944  0.3933 -0.0465
60810W        W 3748  11.120  17.496  24.928  0.2884 -0.0541 -0.1944
60811W        W 3749  13.691  20.091  24.124  0.3641  0.3209  0.2281
60812W        W 3750  11.382  21.868  24.932 -0.1022  0.0278  0.0124
60813W        W 3751  12.132  19.136  25.792  0.2437 -0.1474  0.0793
60814W        W 3752  12.729  17.918  24.614  0.1932 -0.2360  0.1099
60815W        W 3753  12.761  21.890  24.936 -0.0596 -0.0014  0.0716
60816W        W 3754  12.294  18.694  24.804  0.0710  0.0667 -0.0344
60817W        W 3755  12.039  18.904  26.454 -0.0466  0.0655  0.1373
60818W        W 3756  12.788  20.782  23.517  0.1292  0.2647  0.1370
60819W        W 3757  11.733  18.042  22.869 -0.0566  0.1688  0.4177
60820W        W 3758  11.384  19.604  25.945  0.3434 -0.0883 -0.1060
60821W        W 3759  12.607  20.681  26.518 -0.2353 -0.5980  0.2459
60822W        W 3760  12.365  18.760  23.512 -0.0845 -0.0089  0.3991
60823W        W 3761  12.086  20.135  23.135  0.5117 -0.3071 -0.1155
60824W        W 3762  12.245  21.067  23.799  0.1229 -0.3958 -0.0792
60825W        W 3763  13.232  20.497  24.912  0.1750 -0.3253  0.1787
60826W        W 3764  14.693  20.295  27.338  0.0489 -0.3829  0.4572
60827W        W 3765  10.685  23.295  26.203  0.1121  0.2597  0.1200
60828W        W 3766  11.311  21.607  27.039  0.4477 -0.1794  0.1556
60829W        W 3767  12.278  20.996  21.924  0.1714  0.0025 -0.0768
60830W        W 3768  12.502  21.447  23.545  0.1457  0.1799 -0.1838
60831W        W 3769  13.514  21.195  27.412 -0.0708  0.0717  0.2690
60832W        W 3770  13.143  21.594  28.107  0.1270 -0.4218 -0.1092
60833W        W 3771  10.142  21.194  23.522  0.4046  0.1624  0.4199
60834W        W 3772  13.572  22.081  27.383  0.0035  0.1088  0.4565
60835W        W 3773  11.893  21.386  28.528  0.3741 -0.0331  0.0498
60836W        W 3774  12.975  19.164  23.838 -0.1371  0.0349 -0.1157
60837W        W 3775  12.502  20.448  23.216  0.2957 -0.0212  0.0621
60838W        W 3776  11.296  19.673  21.561  0.1618  0.0258  0.0663
60839W        W 3777  12.700  20.736  25.031  0.2980 -0.0050  0.2346
60840W        W 3778  13.549  20.010  26.461 -0.1547  0.2996  0.2004
60841W        W 3779  13.017  20.758  26.287 -0.0411  0.5641 -0.4363
60842W        W 3780  14.143  18.190  24.201  0.1453 -0.0809  0.0900
60843W        W 3781  12.574  20.972  24.170  0.0564 -0.0469 -0.0693
60844W        W 3782  13.007  21.510  20.569  0.2012 -0.2280  0.4327
60845W        W 3783  11.927  18.479  23.261 -0.0743  0.3901 -0.1191
60846W        W 3784  12.742  20.091  24.078  0.2421  0.2217 -0.1909
60847W        W 3785  11.982  18.866  22.935 -0.2082 -0.1951  0.0513
60848W        W 3786  12.454  19.978  27.095 -0.2791 -0.2182  0.1174
60849W        W 3787  12.194  19.052  25.256  0.4171 -0.0713  0.2275
60850W        W 3788  14.539  22.238  23.805  0.0227  0.2708 -0.1781
60851W        W 3789  12.352  19.128  23.177 -0.1333 -0.2526 -0.0848
60852W        W 3790  13.584  19.141  22.989  0.3585 -0.0174  0.1100
60853W        W 3791  12.961  18.545  25.443 -0.1611  0.0065 -0.1599
60854W        W 3792  10.716  20.120  24.988  0.1421  0.0794  0.2433
60855W        W 3793  12.968  22.299  22.353  0.1239  0.0925 -0.1143
60856W        W 3794  12.722  22.656  25.628 -0.1611  0.2926 -0.2268
60857W        W 3795  12.504  21.589  22.634 -0.2582 -0.0523  0.0813
60858W        W 3796  11.522  20.315  25.018  0.0289  0.1608  0.2058
60859W        W 3797  11.285  19.180  25.608  0.0110  0.1007 -0.1535
60860W        W 3798  12.106  21.097  26.003  0.3208  0.0865 -0.2197
60861W        W 3799  12.224  20.099  23.666 -0.3215 -0.0016 -0.2333
60862W        W 3800  15.396  20.988  24.666  0.0077 -0.1425  0.1331
60863W        W 3801  10.858  21.448  26.667  0.2334 -0.3200 -0.0566
60864W        W 3802  14.574  18.875  20.995 -0.1285 -0.3133 -0.2843
60865W        W 3803  11.182  19.806  26.573 -0.1679 -0.0921 -0.0781
60866W        W 3804  13.531  21.902  24.333  0.0410 -0.0585  0.0173
60867W        W 3805  12.331  20.567  23.895  0.0974 -0.0446 -0.0327
60868W        W 3806  12.951  18.304  24.280 -0.1959 -0.0355 -0.0191
60869W        W 3807  13.341  18.844  23.316 -0.0640  0.0571  0.0098
60870W        W 3808  11.007  20.636  23.276 -0.5364 -0.0116  0.0921
60871W        W 3809  11.855  19.733  24.178 -0.1434  0.1930 -0.0135
60872W        W 3810  14.611  20.492  23.405  0.1166  0.2552 -0.2432
60873W        W 3811  13.522  20.877  19.952 -0.0595 -0.1440  0.0687
60874W        W 3812  11.866  21.554  25.830  0.0986 -0.2638  0.0180
60875W        W 3813  12.534  18.258  25.285 -0.1109 -0.0300 -0.1398
60876W        W 3814  13.522  20.642  27.253 -0.0348 -0.0132 -0.3986
60877W        W 3815  11.200  21.625  25.335 -0.1295 -0.2690 -0.1387
60878W        W 3816  11.031  19.984  26.098  0.2454  0.4023  0.2204
60879W        W 3817   8.840  22.702  23.038 -0.1146  0.0183 -0.0553
60880W        W 3818  10.199  19.203  26.167  0.1314  0.3305 -0.0748
60881W        W 3819  12.546  20.844  25.990 -0.1495  0.0706  0.0245
60882W        W 3820  12.122  18.149  27.718  0.0721 -0.0691  0.0105
60883W        W 3821  13.147  17.663  22.026 -0.1623 -0.0300 -0.2472
60884W        W 3822  10.898  22.159  25.659  0.0830  0.0562  0.0866
60885W        W 3823  12.948  21.412  22.555  0.0738  0.0542 -0.1912
60886W        W 3824  12.759  20.031  22.833 -0.0091  0.0697 -0.0059
60887W        W 3825  12.287  21.535  21.746 -0.3052 -0.1712  0.1612
60888W        W 3826  11.923  20.610  24.664 -0.0518  0.1835  0.2548
60889W        W 3827  11.339  19.207  24.851  0.1118  0.0447  0.0521
60890W        W 3828  11.547  18.915  26.466  0.0289 -0.1370  0.0717
60891W        W 3829  11.355  18.017  24.993  0.2325  0.0202 -0.0089
60892W        W 3830  13.505  20.283  23.199 -0.3825  0.0270  0.0961
60893W        W 3831  10.686  18.399  23.769  0.2301 -0.0092  0.1315
60894W        W 3832  12.614  19.619  22.406  0.3342  0.0762 -0.0627
60895W        W 3833  11.488  18.801  23.285  0.2164 -0.0518  0.0285
60896W        W 3834  11.070  21.969  23.712  0.0801  0.0828  0.2084
60897W        W 3835  13.996  19.465  24.058  0.1646  0.1226  0.1251
60898W        W 3836  12.131  22.559  23.195  0.1810 -0.1050 -0.1243
60899W        W 3837  14.721  21.042  23.910  0.0746 -0.0377  0.0166
60900W        W 3838  13.244  21.965  24.823 -0.1881 -0.1838  0.2132
60901W        W 3839  11.282  17.219  25.327  0.1095 -0.1424 -0.5476
60902W        W 3840  11.991  17.808  24.232 -0.0294 -0.2100  0.0383
60903W        W 3841  10.983  23.139  24.595 -0.5710 -0.2136 -0.0337
60904W        W 3842  11.873  20.394  25.365 -0.2101 -0.1817 -0.0736
60905W        W 3843  13.177  19.027  25.159 -0.0385 -0.0862 -0.0078
60906W        W 3844  13.395  22.378  23.185 -0.2253  0.4391 -0.1646
60907W        W 3845  11.901  20.245  23.997  0.0466 -0.1673 -0.0107
60908W        W 3846  12.420  20.840  25.387 -0.2642 -0.1028 -0.0440
60909W        W 3847  13.563  18.277  24.267  0.1798 -0.1296 -0.0992
60910W        W 3848  12.983  19.842  23.645 -0.0691 -0.0508  0.1319
60911W        W 3849  12.272  20.474  25.046 -0.4184 -0.2461  0.2518
60912W        W 3850  11.812  17.532  22.938 -0.3537 -0.1805 -0.0370
60913W        W 3851  13.238  21.018  24.343 -0.1191 -0.0238 -0.0297
60914W        W 3852  12.001  20.915  25.126 -0.0230  0.1262  0.0345
60915W        W 3853  10.328  20.378  25.644  0.1805  0.0066  0.1459
60916W        W 3854  13.715  20.746  24.734  0.2437 -0.0443  0.0050
60917W        W 3855  11.395  18.692  24.717  0.0374  0.1363 -0.0086
60918W        W 3856  13.948  19.296  22.565 -0.1927 -0.0126 -0.1444
60919W        W 3857  12.227  19.859  22.649  0.0485  0.2597 -0.0965
60920W        W 3858  11.594  20.929  26.533 -0.2306 -0.4049 -0.1041
60921W        W 3859  12.737  17.149  21.566 -0.1775 -0.2696 -0.1998
60922W        W 3860  13.242  19.332  20.217 -0.2740 -0.0852 -0.1963
60923W        W 3861  14.034  19.391  26.568 -0.0361 -0.1702 -0.2220
60924W        W 3862  12.922  21.226  23.945  0.1439  0.0284 -0.2397
60925W        W 3863  13.339  19.763  21.838 -0.0176 -0.1123  0.0432
60926W        W 3864  12.277  18.477  21.561 -0.0600 -0.1470  0.2042
60927W        W 3865  12.581  20.461  27.084  0.1512 -0.3161 -0.0825
60928W        W 3866  12.937  20.598  24.028  0.1444 -0.1507 -0.1422
60929W        W 3867  12.372  20.901  24.724  0.1547  0.0220  0.1731
60930W        W 3868  12.241  18.970  21.703  0.0440 -0.1180 -0.2545
60931W        W 3869  14.096  22.546  22.039 -0.3801  0.1441  0.0612
60932W        W 3870  11.111  21.288  25.668 -0.0853  0.2784 -0.2296
60933W        W 3871  13.391  19.517  25.903  0.0391  0.2664 -0.4425
60934W        W 3872  13.370  22.088  23.875 -0.0181 -0.2502  0.1833
60935W        W 3873  13.490  18.917  23.904  0.2730  0.0893  0.1407
60936W        W 3874  12.319  21.035  23.221  0.0230 -0.0956 -0.4769
60937W        W 3875  13.013  19.142  23.032  0.1315  0.1232  0.0841
60938W        W 3876  11.236  21.248  21.928  0.0456 -0.4726  0.0342
60939W        W 3877  13.540  19.593  25.047 -0.0841 -0.0835 -0.1907
60940W        W 3878  12.472  19.026  26.118  0.2001  0.1400 -0.2974
60941W        W 3879  13.068  19.229  25.590 -0.0450 -0.4947 -0.1566
60942W        W 3880  12.812  20.437  25.990  0.0384  0.2699 -0.0706
60943W        W 3881  12.252  19.484  21.765 -0.1896  0.2951  0.2482
60944W        W 3882  12.817  19.590  24.028  0.0693  0.1547  0.0354
60945W        W 3883  10.437  19.902  23.750  0.1010  0.1140  0.3631
60946W        W 3884  15.006  19.123  26.182  0.1697  0.0754  0.0389
60947W        W 3885  11.571  21.180  26.077 -0.3547 -0.0344 -0.0689
60948W        W 3886  11.485  21.385  26.522 -0.0614  0.0378 -0.2337
60949W        W 3887  13.418  21.196  26.366 -0.2049 -0.0941  0.0908
60950W        W 3888  13.195  19.663  25.412  0.0777 -0.0664 -0.0588
60951W        W 3889  12.498  18.088  26.373 -0.1790  0.1205 -0.1143
60952W        W 3890  12.716  18.819  21.601 -0.2177  0.1863 -0.0814
60953W        W 3891  12.187  21.391  25.436 -0.0720 -0.0923  0.3547
60954W        W 3892  12.115  21.355  22.216  0.0408  0.1675  0.3671
60955W        W 3893  12.830  18.100  23.813  0.3813 -0.0109  0.0204
60956W        W 3894  13.648  21.149  25.863  0.0066 -0.0555  0.1036
60957W        W 3895  10.199  21.644  23.811 -0.2305 -0.0065 -0.0171
60958W        W 3896  12.732  20.320  25.344 -0.1357 -0.1711 -0.3406
60959W        W 3897  11.821  21.150  23.431  0.4305  0.1129 -0.0168
60960W        W 3898  13.094  18.497  23.534 -0.3001  0.0498  0.0049
60961W        W 3899  11.981  21.210  26.666 -0.0451  0.0637  0.0520
60962W        W 3900  11.527  19.462  21.129 -0.1466 -0.1777 -0.1446
60963W        W 3901  10.323  20.199  24.672 -0.2560  0.2021 -0.0759
60964W        W 3902  13.514  21.590  20.596  0.0329  0.1836  0.2423
60965W        W 3903  11.868  16.958  24.532  0.1098 -0.2308 -0.0241
60966W        W 3904  12.346  18.274  24.474 -0.1465 -0.1265 -0.0464
60967W        W 3905  11.649  21.587  27.490 -0.2906  0.0933  0.1150
60968W        W 3906  14.246  20.830  24.661 -0.0900 -0.3607  0.1283
60969W        W 3907  13.946  21.727  23.610 -0.0034 -0.1142  0.0423
60970W        W 3908  13.366  19.113  27.409 -0.1631  0.2331  0.0931
60971W        W 3909  11.978  18.903  24.516 -0.2269  0.1721  0.1297
60972W        W 3910  12.453  19.176  23.895 -0.3083  0.2406 -0.1373
60973W        W 3911  11.545  22.635  24.560 -0.1026  0.0828 -0.0350
60974W        W 3912  14.831  20.982  24.630  0.3944  0.2997 -0.2839
60975W        W 3913  12.629  18.764  24.298  0.0426 -0.0784  0.2131
60976W        W 3914  11.663  19.954  25.472  0.0900  0.0614  0.3439
60977W        W 3915  12.353  19.299  26.651 -0.0745  0.0416  0.0784
60978W        W 3916  13.314  19.322  23.521  0.0893  0.1515 -0.0850
60979W        W 3917  12.795  19.243  24.363 -0.1499 -0.1836  0.0206
60980W        W 3918  10.319  18.009  23.977  0.0546  0.0472  0.4793
60981W        W 3919  13.189  19.815  24.459  0.3067 -0.2894 -0.0909
60982W        W 3920  14.187  20.978  23.978 -0.0767  0.0912  0.1746
60983W        W 3921  12.579  17.534  24.896 -0.1559 -0.3204 -0.3751
60984W        W 3922  11.626  20.602  27.004  0.1335 -0.0869  0.0429
60985W        W 3923  12.813  20.308  23.662  0.1196 -0.1021  0.2558
60986W        W 3924  12.865  22.739  24.730  0.0008  0.0510  0.2168
60987W        W 3925  12.658  19.873  24.519 -0.1037  0.2348 -0.1425
60988W        W 3926  10.395  21.560  24.715  0.0062 -0.2488 -0.0276
60989W        W 3927  13.237  19.540  26.422  0.0170  0.3732 -0.2745
60990W        W 3928  12.178  19.337  22.213  0.0286 -0.0914 -0.0573
60991W        W 3929  12.040  20.003  25.044 -0.0837 -0.0810  0.0216
60992W        W 3930  13.163  20.300  27.306 -0.0897  0.2268 -0.2678
60993W        W 3931  11.091  20.929  24.030 -0.1342 -0.2502  0.1734
60994W        W 3932  13.451  20.901  26.816 -0.2310  0.3015 -0.1425
60995W        W 3933  12.503  17.476  20.406 -0.1663 -0.3216  0.2814
60996W        W 3934  13.443  20.267  22.299 -0.1827 -0.1442 -0.1720
60997W        W 3935  13.729  18.640  24.613 -0.0455  0.0383 -0.0113
60998W        W 3936  13.604  19.329  25.468 -0.2373 -0.2219 -0.3076
60999W        W 3937  13.632  20.747  22.162 -0.3685  0.2706 -0.2506
61000W        W 3938  13.057  17.561  25.065  0.2352  0.1438  0.2629
61001W        W 3939  12.196  17.665  23.199  0.5209 -0.3310  0.0709
61002W        W 3940  14.090  19.958  23.803 -0.0681 -0.0702  0.1534
61003W        W 3941  12.836  18.473  24.709  0.0578  0.2569  0.2327
61004W        W 3942  13.913  20.288  26.204 -0.0565 -0.0286  0.1898
61005W        W 3943  12.937  19.314  27.111 -0.0239 -0.3027  0.2002
61006W        W 3944  12.675  19.556  22.950  0.2451 -0.0151  0.0765
61007W        W 3945  12.001  19.392  23.819  0.1102  0.0226  0.0340
61008W        W 3946  12.729  19.315  25.224 -0.0160  0.0558  0.2360
61009W        W 3947  13.614  20.203  23.658  0.0423 -0.1822 -0.3971
61010W        W 3948  12.416  20.458  24.407  0.3115  0.1531  0.1502
61011W        W 3949  13.172  19.767  22.909 -0.1932 -0.1095  0.0778
61012W        W 3950  12.476  19.120  24.802  0.1630  0.1098  0.3499
61013W        W 3951  11.633  20.222  23.527  0.0915  0.0447 -0.3144
61014W        W 3952  12.633  20.623  21.168 -0.0230  0.3153 -0.0671
61015W        W 3953  11.845  19.564  25.799 -0.0839 -0.1333  0.2940
61016W        W 3954  13.044  18.851  26.914  0.0238 -0.0894  0.2284
61017W        W 3955  14.144  20.405  23.254 -0.3313  0.0567  0.2192
61018W        W 3956  12.706  18.277  23.288  0.1217  0.1193  0.2236
61019W        W 3957  13.268  18.687  24.335  0.0255 -0.1031 -0.1405
61020W        W 3958  13.867  19.733  24.576 -0.0273  0.2239  0.0286
61021W        W 3959  12.224  17.983  24.865 -0.0136 -0.1651 -0.0875
61022W        W 3960  11.113  18.966  25.999  0.0564 -0.0301 -0.0015
61023W        W 3961  13.131  21.477  24.940 -0.3992 -0.1688  0.2072
61024W        W 3962  13.419  18.393  17.941 -0.1057 -0.2400  0.2196
61025W        W 3963  13.652  19.646  22.875 -0.0628 -0.2608 -0.0717
61026W        W 3964  12.691  20.243  21.542  0.1290 -0.0478  0.2334
61027W        W 3965  12.775  20.945  21.788 -0.0736  0.2525  0.1335
61028W        W 3966  11.446  18.866  23.780  0.1304  0.1481  0.0870
61029W        W 3967  13.498  21.398  24.591 -0.0640  0.2122  0.2307
61030W        W 3968  11.666  19.840  23.091  0.2135  0.0810 -0.2675
61031W        W 3969  13.915  18.559  23.982  0.4692 -0.2448  0.0087
61032W        W 3970  12.608  21.887  24.398 -0.1326  0.0940  0.3315
61033W        W 3971  12.817  19.401  23.448  0.0914  0.4899 -0.2007
61034W        W 3972  13.011  18.647  22.945  0.0391  0.0992  0.0158
61035W        W 3973  10.494  19.319  23.726 -0.3097 -0.2825  0.4176
61036W        W 3974  12.232  21.911  27.893 -0.0426 -0.0233 -0.0981
61037W        W 3975  10.846  20.188  23.537 -0.2533  0.0327 -0.3222
61038W        W 3976  12.637  20.889  22.336  0.2818  0.1469  0.1146
61039W        W 3977  13.185  20.260  25.633 -0.1203 -0.0780  0.1139
61040W        W 3978  13.104  20.684  23.111  0.1675 -0.2033  0.1085
61041W        W 3979  11.485  19.390  23.980 -0.2483  0.0354 -0.2719
61042W        W 3980  13.296  19.455  24.089  0.2281 -0.2150  0.1932
61043W        W 3981  11.683  22.514  23.480 -0.2294  0.1067  0.3618
61044W        W 3982  13.087  21.209  27.027 -0.0666 -0.1826 -0.6795
61045W        W 3983  12.106  20.772  26.706  0.2590 -0.1878 -0.2689
61046W        W 3984  12.354  19.544  25.813 -0.1348 -0.3109 -0.0216
61047W        W 3985  13.651  18.952  25.006 -0.0326 -0.3410  0.0910
61048W        W 3986  12.804  18.537  22.466 -0.1034 -0.2036  0.3562
61049W        W 3987  12.088  20.090  24.544 -0.1876  0.0215  0.2520
61050W        W 3988  12.378  19.583  23.623  0.4526 -0.0412  0.0119
61051W        W 3989  13.704  20.331  25.066  0.2933 -0.0066 -0.0493
61052W        W 3990  11.779  17.867  24.735 -0.0445  0.0209  0.0327
61053W        W 3991  14.135  21.379  25.992  0.3069 -0.3691 -0.0519
61054W        W 3992  12.634  19.122  22.058 -0.1543  0.1885  0.0371
61055W        W 3993  12.642  21.183  25.645  0.0035 -0.2425  0.0314
61056W        W 3994  10.478  19.625  25.921  0.2752  0.0364  0.0772
61057W        W 3995  13.101  19.982  24.990  0.0166 -0.0823  0.1617
61058W        W 3996  14.144  20.624  25.094  0.4284  0.3942  0.0908
61059W        W 3997  11.066  19.042  23.003 -0.1329 -0.0857  0.1925
61060W        W 3998  12.759  21.027  22.989 -0.1982 -0.2189 -0.2012
61061W        W 3999  11.982  19.761  27.146  0.0916  0.0419 -0.1466
61062W        W 4000  10.754  19.243  25.722 -0.1122  0.0741 -0.1609
61063W        W 4001  12.334  21.594  24.848  0.2393 -0.0401 -0.1348
61064W        W 4002  13.390  20.544  20.569  0.1600 -0.1846 -0.1553
61065W        W 4003  12.604  19.825  25.156 -0.0813  0.1548 -0.0133
61066W        W 4004  13.007  20.709  26.878 -0.0102  0.0335 -0.2484
61067W        W 4005  12.413  18.629  22.062 -0.1760  0.1298  0.0213
61068W        W 4006  11.588  21.245  25.511 -0.0520  0.4714  0.0227
61069W        W 4007  10.385  21.807  23.305  0.3560  0.0680 -0.0801
61070W        W 4008  12.776  22.251  24.016  0.0606 -0.1047  0.0276
61071W        W 4009  11.736  21.044  23.955  0.0409  0.0744  0.0831
61072W        W 4010  14.272  21.054  27.445  0.3397 -0.0071  0.1093
61073W        W 4011  12.362  18.196  20.434  0.0376 -0.0792 -0.0354
61074W        W 4012  12.863  19.333  21.648 -0.0798  0.1382 -0.1421
61075W        W 4013  14.682  20.159  24.087 -0.0030 -0.2368 -0.0148
61076W        W 4014  12.091  19.978  26.089 -0.3165 -0.1673 -0.1967
61077W        W 4015  12.755  20.081  21.087 -0.1096  0.1400  0.2233
61078W        W 4016  13.312  17.817  26.442  0.1080 -0.1797  0.0123
61079W        W 4017  12.748  18.664  23.796 -0.1580 -0.1410 -0.0979
61080W        W 4018  11.561  22.088  26.737 -0.0162 -0.1107 -0.0066
61081W        W 4019  12.411  22.825  24.586  0.0021 -0.0813  0.0172
61082W        W 4020  13.741  18.487  25.059  0.0329 -0.1414  0.0026
61083W        W 4021  12.613  18.763  25.163 -0.1709  0.2717 -0.0278
61084W        W 4022  12.985  19.820  21.500  0.0047  0.1702 -0.2309
61085W        W 4023  13.132  19.340  22.184 -0.0484 -0.1035 -0.1614
61086W        W 4024  11.866  22.343  23.962  0.0388  0.0538 -0.1128
61087W        W 4025  12.966  20.846  27.846  0.0751 -0.2360 -0.0087
61088W        W 4026  11.330  20.078  27.861  0.0134  0.2502  0.0922
61089W        W 4027  11.322  18.225  24.533 -0.0610  0.2608 -0.0792
61090W        W 4028  12.737  18.305  21.858  0.6522 -0.0609  0.0498
61091W        W 4029  11.793  17.940  25.190 -0.3377  0.0589  0.3388
61092W        W 4030  13.866  18.765  23.137  0.1981 -0.0349  0.2094
61093W        W 4031  12.833  20.765  24.532  0.0037  0.0962  0.3112
61094W        W 4032  13.222  18.854  22.576  0.1339 -0.0110 -0.0113
61095W        W 4033  12.954  18.141  25.075 -0.0759  0.2017  0.0613
61096W        W 4034  12.188  18.368  26.679 -0.2819  0.1122 -0.0058
61097W        W 4035  11.664  20.653  23.691 -0.1063 -0.2406 -0.0688
61098W        W 4036  13.449  19.343  24.600  0.2486 -0.0137 -0.0539
61099W        W 4037  12.653  20.119  22.325  0.2795  0.1964  0.0518
61100W        W 4038  15.794  21.086  24.994 -0.0886  0.0991 -0.1377
61101W        W 4039  11.278  17.731  25.407 -0.1154 -0.3824  0.1576
61102W        W 4040  12.556  19.938  23.323  0.0086  0.1796  0.0747
61103W        W 4041  11.150  21.770  24.514  0.0041  0.3326 -0.0045
61104W        W 4042  14.547  19.675  25.353  0.3678  0.2116 -0.0075
61105W        W 4043  13.943  19.207  24.629 -0.2114 -0.0652 -0.1203
61106W        W 4044  11.219  18.400  23.965 -0.0658 -0.2421 -0.0636
61107W        W 4045  13.386  21.440  24.065 -0.1823  0.1870  0.4008
61108W        W 4046  11.757  21.711  23.312 -0.1628 -0.0216  0.0503
61109W        W 4047  12.777  20.549  22.754  0.2470  0.4555  0.0017
61110W        W 4048  13.369  20.973  23.860 -0.1127  0.2694 -0.1895
61111W        W 4049  10.241  18.425  25.415  0.0848 -0.2451 -0.3686
61112W        W 4050  13.011  22.374  27.436 -0.0806 -0.0995 -0.2211
61113W        W 4051  14.124  20.723  22.820 -0.1273  0.0100 -0.1278
61114W        W 4052  12.781  17.334  22.904  0.1248 -0.2017 -0.1533
61115W        W 4053  10.282  18.841  23.710 -0.1843 -0.1179 -0.3263
61116W        W 4054  10.812  21.655  25.785  0.0666 -0.0602 -0.2735
61117W        W 4055  13.621  19.742  22.426 -0.1079 -0.0032  0.0310
61118W        W 4056  13.217  20.108  24.054 -0.1377 -0.2672  0.0138
61119W        W 4057  11.592  21.969  23.692 -0.0699  0.0468  0.0824
61120W        W 4058  14.396  18.621  23.889  0.2387 -0.0316 -0.0733
61121W        W 4059  14.003  19.913  25.146  0.1973  0.1878  0.1357
61122W        W 4060  13.958  19.847  28.377 -0.2282  0.0662  0.4230
61123W        W 4061  11.141  18.842  25.203 -0.1279 -0.1391  0.3972
61124W        W 4062  13.044  21.890  27.434  0.1480 -0.2185  0.0456
61125W        W 4063  12.001  21.128  24.425 -0.2699 -0.0284  0.1166
61126W        W 4064  13.625  20.233  24.578  0.1084 -0.2234 -0.0144
61127W        W 4065  12.212  22.200  24.459  0.0192 -0.1382  0.1134
61128W        W 4066  12.149  19.546  25.359 -0.0194  0.0048  0.0072
61129W        W 4067  13.869  21.545  24.160 -0.1169 -0.1895 -0.3887
61130W        W 4068  12.123  17.992  25.546  0.1616  0.1790  0.4751
61131W        W 4069  11.711  18.241  25.618 -0.0040  0.2240 -0.2410
61132W        W 4070  11.052  20.549  24.333 -0.0346 -0.0353 -0.0549
61133W        W 4071  10.259  21.170  25.175 -0.3474  0.0226  0.0518
61134W        W 4072  11.871  20.856  25.636 -0.0983  0.0065  0.5035
61135W        W 4073  12.915  18.622  26.402  0.1388  0.3002 -0.0087
61136W        W 4074  11.735  18.618  26.823  0.2947 -0.2137  0.1511
61137W        W 4075  10.878  19.234  25.233  0.3067  0.1462 -0.0719
61138W        W 4076  12.258  17.322  22.768  0.0803 -0.1047  0.0740
61139W        W 4077  13.041  20.538  22.319  0.0899 -0.3262 -0.0418
61140W        W 4078  11.621  17.511  25.082 -0.1177 -0.0812 -0.0925
61141W        W 4079  10.899  18.059  24.085 -0.1222 -0.1649 -0.2948
61142W        W 4080  13.036  21.197  23.394  0.1741  0.2381 -0.1419
61143W        W 4081  12.852  23.117  23.429 -0.0307  0.0949  0.1707
61144W        W 4082  12.109  17.559  25.098  0.0662  0.0901 -0.0521
61145W        W 4083  14.880  22.221  26.011  0.1817  0.1715  0.0173
61146W        W 4084  11.172  20.046  25.297  0.0195 -0.1568  0.1399
61147W        W 4085  14.052  19.025  24.154  0.2247  0.4293 -0.0847
61148W        W 4086  12.281  18.530  26.159 -0.1569 -0.1571 -0.3376
61149W        W 4087  11.531  19.437  23.412  0.0968  0.0314 -0.1503
61150W        W 4088  12.355  19.790  24.115 -0.2350 -0.2937 -0.1645
61151W        W 4089  11.340  22.258  24.006 -0.2663 -0.0718 -0.2741
61152W        W 4090  13.044  22.701  23.372  0.0066  0.0613 -0.2874
61153W        W 4091  12.093  19.823  26.700 -0.1000 -0.0854 -0.0111
61154W        W 4092  14.141  20.335  28.457  0.1695  0.0561  0.0888
61155W        W 4093  10.864  17.871  25.755  0.1395  0.5868  0.0241
61156W        W 4094  13.003  20.163  23.221  0.0289  0.0267  0.1885
61157W        W 4095  13.144  19.883  26.122  0.2902 -0.0065 -0.0933
61158W        W 4096  12.797  21.540  23.078  0.2389  0.0152 -0.0238
61159W        W 4097  12.582  21.164  21.352  0.1344  0.1073  0.1601
61160W        W 4098  11.037  17.643  26.142  0.1948 -0.1256  0.1238
61161W        W 4099  11.691  19.139  27.828 -0.1715 -0.1652 -0.0248
61162W        W 4100  13.478  20.529  24.155 -0.3188 -0.0675 -0.1574
61163W        W 4101  10.854  18.967  24.652  0.1924 -0.0717 -0.0233
61164W        W 4102  12.753  19.095  22.606 -0.2388 -0.0287  0.1382
61165W        W 4103  12.655  21.312  24.597 -0.0943 -0.0899 -0.0669
61166W        W 4104  11.622  19.816  24.759  0.0824  0.0328 -0.3614
61167W        W 4105  12.710  18.317  21.261 -0.2754  0.0057  0.2267
61168W        W 4106  13.298  17.974  24.744  0.2972  0.1531  0.1503
61169W        W 4107  13.723  20.981  24.180  0.2866  0.2581  0.1508
61170W        W 4108  14.300  21.768  24.055  0.2434  0.1834  0.0305
61171W        W 4109  11.457  19.567  25.215  0.1304  0.2392  0.1009
61172W        W 4110  12.227  20.342  22.409 -0.1117 -0.0915  0.1326
61173W        W 4111  13.154  22.325  24.298 -0.1470 -0.0332  0.0162
61174W        W 4112  14.302  21.471  27.015  0.4001  0.4937 -0.2726
61175W        W 4113  12.902  21.238  26.482  0.2091  0.2970  0.1714
61176W        W 4114   9.627  16.970  26.276 -0.1279 -0.2781  0.0630
61177W        W 4115  10.319  19.085  24.267  0.0304  0.0651  0.1993
61178W        W 4116  12.021  20.724  24.184  0.2253  0.0537  0.2830
61179W        W 4117  13.780  19.404  23.347  0.1456 -0.0159 -0.0823
61180W        W 4118  11.616  18.538  24.267  0.3975 -0.2156 -0.0350
61181W        W 4119  12.864  18.119  20.736 -0.2785 -0.0190 -0.3505
61182W        W 4120  13.761  20.768  26.242 -0.4065 -0.0133  0.0678
61183W        W 4121  13.083  20.349  24.479  0.1570  0.3280  0.2191
61184W        W 4122  14.241  21.389  29.206  0.2846  0.1414 -0.2289
61185W        W 4123  10.997  17.967  26.729 -0.3341 -0.1738  0.1153
61186W        W 4124  13.891  18.557  26.019  0.1481  0.2461  0.0961
61187W        W 4125  14.368  21.328  26.465 -0.2488  0.2806 -0.0080
61188W        W 4126  10.383  19.932  29.253 -0.3319  0.0986  0.2908
61189W        W 4127  13.883  21.542  27.273 -0.0261 -0.0446  0.1767
61190W        W 4128  10.769  18.433  30.250  0.2268 -0.0848 -0.1384
61191W        W 4129  14.912  20.371  27.887  0.1654 -0.1398  0.3581
61192W        W 4130  14.947  20.271  28.451 -0.0005 -0.2333 -0.1597
61193W        W 4131  14.360  20.153  25.401  0.3083  0.1601 -0.1290
61194W        W 4132  12.298  19.659  30.207 -0.4049  0.0513 -0.1245
61195W        W 4133  13.086  21.141  30.387  0.2590 -0.0619  0.0079
61196W        W 4134  13.560  19.231  28.582  0.1458 -0.1393 -0.1208
61197W        W 4135  10.316  18.194  29.947 -0.1649 -0.1264  0.1236
61198W        W 4136  14.428  19.105  26.750  0.1467 -0.0841  0.1159
61199W        W 4137  11.161  18.461  28.044  0.3272 -0.0929  0.3397
61200W        W 4138  13.071  19.403  27.710  0.2021 -0.1448  0.0348
61201W        W 4139  13.056  19.983  26.836 -0.0506 -0.0873  0.1899
61202W        W 4140  12.210  21.466  27.607 -0.3579 -0.1039 -0.2243
61203W        W 4141  12.777  19.345  28.103  0.0863  0.0497 -0.0495
61204W        W 4142  14.368  17.668  29.139  0.0570 -0.4037  0.0062
61205W        W 4143  14.206  20.241  24.743  0.1799  0.0773  0.3804
61206W        W 4144  10.593  18.495  27.249 -0.0867  0.1088  0.0189
61207W        W 4145  11.433  18.928  30.942  0.4603  0.2602  0.1114
61208W        W 4146  11.511  20.846  29.591  0.0261  0.1159 -0.2871
61209W        W 4147  14.361  18.466  28.475 -0.0588 -0.1283 -0.0536
61210W        W 4148  14.801  19.721  27.024 -0.0651 -0.0778  0.0307
61211W        W 4149  14.745  19.352  27.819  0.0877 -0.3425 -0.1065
61212W        W 4150  13.501  21.896  28.675  0.1449 -0.2210  0.0279
61213W        W 4151  15.364  18.749  28.091 -0.0564 -0.2790  0.3612
61214W        W 4152  13.150  19.559  30.852 -0.0457 -0.0235  0.2192
61215W        W 4153  11.777  20.816  28.078 -0.3298  0.0392  0.0408
61216W        W 4154  12.848  19.782  27.364 -0.2594  0.1960  0.2186
61217W        W 4155  15.337  22.067  26.306 -0.0101 -0.0115  0.1469
61218W        W 4156  16.789  20.696  28.719 -0.1034  0.3270  0.1161
61219W        W 4157  14.730  21.549  30.112  0.3074  0.0201  0.1331
61220W        W 4158  12.325  20.201  27.554 -0.1023 -0.2858 -0.0175
61221W        W 4159  14.764  21.839  30.631 -0.0091  0.3907 -0.0490
61222W        W 4160  12.990  21.893  29.915 -0.2897 -0.0388  0.2715
61223W        W 4161  13.956  20.005  30.385 -0.5708 -0.0369 -0.0367
61224W        W 4162  14.561  20.505  26.046  0.0585  0.2731 -0.0636
61225W        W 4163  12.626  19.747  27.791  0.1952  0.1124 -0.3883
61226W        W 4164  13.670  20.536  28.722 -0.1403 -0.1602 -0.1719
61227W        W 4165  11.579  20.399  29.829  0.2534 -0.2463  0.1163
61228W        W 4166  11.113  21.575  28.953  0.1185 -0.0547 -0.3448
61229W        W 4167  15.426  19.104  28.416 -0.3531 -0.2311  0.4976
61230W        W 4168  12.562  20.683  27.573 -0.1282 -0.1087 -0.0669
61231W        W 4169  14.360  18.775  26.253 -0.1788 -0.2629  0.1106
61232W        W 4170  12.069  17.069  25.251  0.0247 -0.2190 -0.0682
61233W        W 4171  14.280  18.900  24.849  0.1794  0.1410  0.1108
61234W        W 4172  13.152  18.553  30.544 -0.0588 -0.2017  0.2056
61235W        W 4173  13.905  21.175  27.840  0.1515  0.0462  0.1688
61236W        W 4174  12.861  18.882  30.178 -0.0248  0.2140 -0.2389
61237W        W 4175  16.057  20.785  29.288 -0.1818 -0.2016 -0.1885
61238W        W 4176  14.074  20.019  26.644 -0.1514 -0.0625  0.0516
61239W        W 4177  13.823  19.270  27.313 -0.0184  0.0956 -0.2254
61240W        W 4178  12.669  21.613  28.969  0.2446  0.0301 -0.0720
61241W        W 4179  12.182  19.982  27.974 -0.3082 -0.2934 -0.0408
61242W        W 4180  14.167  20.901  25.978  0.1951  0.2383  0.2097
61243W        W 4181  14.630  21.374  27.478  0.3962  0.1110 -0.0722
61244W        W 4182  14.389  19.952  27.032  0.3375 -0.1891 -0.0024
61245W        W 4183  12.549  18.989  27.128 -0.1178  0.1108  0.0051
61246W        W 4184  10.205  19.898  31.456 -0.0150  0.0739 -0.0627
61247W        W 4185  11.785  19.659  30.230 -0.1686  0.0958  0.0807
61248W        W 4186  10.159  17.342  25.555  0.1556  0.1832  0.1623
61249W        W 4187  15.884  19.234  28.599  0.1135 -0.4024  0.0194
61250W        W 4188  11.569  20.131  30.277  0.1492  0.0338  0.4918
61251W        W 4189  14.077  19.204  25.975 -0.0913 -0.1565 -0.1011
61252W        W 4190  12.779  19.595  26.718  0.0553 -0.0484 -0.0770
61253W        W 4191  16.009  20.759  26.325  0.1916 -0.1473  0.1382
61254W        W 4192  13.589  19.976  25.902 -0.2315 -0.2604 -0.1055
61255W        W 4193  14.279  17.359  28.590 -0.1152  0.3217 -0.2265
61256W        W 4194  14.780  18.512  28.139 -0.0661  0.0934 -0.2676
61257W        W 4195  12.986  18.207  27.228 -0.2231 -0.3316  0.0914
61258W        W 4196  12.944  19.461  24.776 -0.0122 -0.2169  0.1195
61259W        W 4197  16.558  20.520  29.224 -0.1060  0.0161 -0.1013
61260W        W 4198  14.002  20.523  24.233  0.0473  0.1167 -0.0402
61261W        W 4199  12.022  21.523  30.982 -0.0808 -0.1001 -0.0525
61262W        W 4200  14.157  19.232  28.516  0.1223 -0.1526 -0.1789
61263W        W 4201  14.255  21.777  30.193 -0.0268  0.1208  0.2083
61264W        W 4202  11.444  20.548  27.910  0.0884 -0.2575 -0.1215
61265W        W 4203  13.116  20.180  28.399  0.0043 -0.1072  0.0970
61266W        W 4204  12.969  19.802  28.142  0.1359 -0.2305 -0.1262
61267W        W 4205  12.077  19.969  29.658 -0.0494  0.2120 -0.1080
61268W        W 4206  12.833  19.620  29.883 -0.0410  0.0960 -0.1200
61269W        W 4207  13.875  17.581  24.792 -0.0182  0.2991  0.4028
61270W        W 4208  11.595  19.113  30.339  0.1280  0.3770 -0.0860
61271W        W 4209  14.593  16.320  25.143 -0.0932 -0.1463  0.0800
61272W        W 4210  11.744  20.235  28.154 -0.0463 -0.0529  0.0271
61273W        W 4211  14.956  22.085  26.963  0.0216 -0.0429  0.0964
61274W        W 4212  13.883  21.074  25.073 -0.1789  0.0660  0.0289
61275W        W 4213  13.286  20.837  25.867  0.0526  0.0426 -0.0804
61276W        W 4214  10.400  21.100  30.118  0.2677 -0.2749  0.0812
61277W        W 4215  10.569  20.121  28.421  0.1137 -0.1229 -0.0108
61278W        W 4216  12.298  18.966  29.609  0.2391  0.3656 -0.1343
61279W        W 4217  12.072  19.955  30.569 -0.1473  0.0375  0.1953
61280W        W 4218  13.063  19.435  28.750  0.0110  0.0329 -0.0746
61281W        W 4219  11.185  18.845  27.639 -0.2347 -0.2884  0.0197
61282W        W 4220  14.012  19.085  27.716  0.0275 -0.0552  0.1030
61283W        W 4221  15.069  20.846  25.967  0.1460  0.0447  0.0659
61284W        W 4222  11.410  21.168  27.928 -0.0902 -0.2230  0.2372
61285W        W 4223  14.444  19.393  29.558  0.0419  0.0914 -0.2772
61286W        W 4224  13.289  19.913  29.062  0.1561 -0.1127 -0.1378
61287W        W 4225  15.409  20.426  28.601 -0.1288 -0.0783 -0.0498
61288W        W 4226  13.646  21.541  28.237  0.1817  0.0420  0.3264
61289W        W 4227  13.963  18.560  29.929  0.2111  0.2097  0.1056
61290W        W 4228  12.071  18.367  25.167  0.0841 -0.1013 -0.3893
61291W        W 4229  13.444  20.706  30.333  0.4157  0.0515  0.0810
61292W        W 4230  13.541  19.454  29.030  0.0917 -0.0578 -0.0032
61293W        W 4231  12.639  18.942  25.616 -0.1179 -0.2152 -0.0623
61294W        W 4232  13.849  22.870  27.709 -0.2404 -0.1270 -0.1224
61295W        W 4233  13.816  19.852  27.351 -0.0745  0.2007 -0.0963
61296W        W 4234  12.205  21.946  29.976  0.1685  0.3194 -0.0709
61297W        W 4235  15.079  19.714  29.774 -0.2232 -0.3193 -0.0368
61298W        W 4236  14.784  20.918  27.896 -0.3038  0.0432 -0.1422
61299W        W 4237  13.529  18.258  26.296 -0.0454 -0.1652  0.1433
61300W        W 4238  11.304  18.548  27.044 -0.1316 -0.0058 -0.1838
61301W        W 4239  13.548  21.656  27.656  0.1140  0.1605 -0.0264
61302W        W 4240  11.855  21.631  26.894 -0.0646 -0.0544 -0.0976
61303W        W 4241  12.824  19.853  28.705 -0.0443  0.1870  0.1919
61304W        W 4242  14.681  21.639  28.343 -0.1840  0.2838  0.2972
61305W        W 4243  15.364  17.980  25.860  0.5130  0.0148  0.2381
61306W        W 4244  11.810  19.251  31.125 -0.1482  0.2198  0.1479
61307W        W 4245  12.996  18.002  28.090  0.2956  0.2475 -0.3263
61308W        W 4246  11.255  18.356  26.416  0.1747  0.2075 -0.1056
61309W        W 4247  13.554  19.603  31.568  0.0029  0.0520 -0.0543
61310W        W 4248  14.114  17.380  26.987 -0.2512  0.0704  0.2377
61311W        W 4249  14.335  19.618  24.792 -0.0933  0.0786 -0.0197
61312W        W 4250  13.820  19.939  28.931 -0.1381 -0.1200 -0.0572
61313W        W 4251  15.137  20.064  24.006  0.4744  0.4878 -0.2932
61314W        W 4252  13.464  19.232  26.887 -0.1311  0.1655  0.0690
61315W        W 4253  14.574  19.030  25.297 -0.0062 -0.3607 -0.3558
61316W        W 4254  11.371  20.808  31.286  0.1375  0.2834 -0.1019
61317W        W 4255  13.865  19.658  25.678 -0.1003 -0.0896  0.3735
61318W        W 4256  12.339  19.611  28.803  0.1463 -0.0301  0.2423
61319W        W 4257  13.555  19.974  25.412 -0.2033 -0.1039  0.1113
61320W        W 4258  15.463  21.172  26.076 -0.1537 -0.2242  0.0332
61321W        W 4259  12.029  21.494  29.743 -0.2275  0.0352  0.2182
61322W        W 4260  13.367  19.390   0.068 -0.0145  0.3996 -0.1473
61323W        W 4261  13.022  20.788  28.692  0.1114  0.2120  0.0864
61324W        W 4262  12.711  18.824  28.879  0.0829  0.1375  0.1619
61325W        W 4263  13.557  18.980  25.930 -0.2709  0.0646  0.1252
61326W        W 4264  12.018  19.312  30.611  0.0483  0.3587 -0.2965
61327W        W 4265  11.050  19.759  27.649 -0.2276 -0.0925  0.1702
61328W        W 4266  14.360  19.459  27.075  0.2737 -0.1637  0.1174
61329W        W 4267  14.122  17.296  27.527  0.2917 -0.0605  0.2443
61330W        W 4268  13.297  17.754  29.498 -0.1697  0.0553 -0.3789
61331W        W 4269  14.665  19.618  29.126 -0.4184 -0.0319 -0.0076
61332W        W 4270  15.569  21.004  25.548 -0.2669  0.0700 -0.2341
61333W        W 4271  14.608  19.755  27.482 -0.2993 -0.0538 -0.2415
61334W        W 4272  11.337  17.968  25.846 -0.2446  0.0780 -0.1294
61335W        W 4273  13.682  18.015  27.937 -0.1473 -0.0362  0.0332
61336W        W 4274  12.818  19.041  29.630 -0.2137 -0.0031 -0.0408
61337W        W 4275  11.651  22.042  30.408 -0.1581  0.2326 -0.0423
61338W        W 4276  15.417  19.977  28.945  0.1970  0.1798 -0.1242
61339W        W 4277  15.194  19.362  27.979 -0.2160  0.1429 -0.1456
61340W        W 4278  13.790  18.549  27.754  0.0462  0.1161  0.1823
61341W        W 4279  12.800  18.268  27.713 -0.0533 -0.0856  0.1399
61342W        W 4280  13.313  21.710  29.102  0.0028 -0.0444 -0.5519
61343W        W 4281  13.706  19.647  26.900 -0.1852  0.0711  0.1914
61344W        W 4282  13.870  19.013  26.362 -0.1893  0.0870 -0.4232
61345W        W 4283  13.652  19.964  29.390 -0.2956  0.0356 -0.0583
61346W        W 4284  11.380  18.692  25.636  0.1097 -0.0233 -0.1709
61347W        W 4285  15.410  20.206  27.643 -0.0292 -0.2010 -0.2033
61348W        W 4286  12.215  21.021  29.693  0.0859  0.2779  0.4401
61349W        W 4287  13.111  16.893  28.208 -0.0164  0.1577  0.0383
61350W        W 4288  12.114  21.436  29.198 -0.1703 -0.2119  0.0254
61351W        W 4289  11.331  18.962  28.522  0.0402  0.2861 -0.1546
61352W        W 4290  12.627  19.199  27.584 -0.0289 -0.1313 -0.1401
61353W        W 4291  14.542  17.891  26.085  0.3274 -0.0026  0.3933
61354W        W 4292  14.647  20.058  25.037  0.0658 -0.0578 -0.1174
61355W        W 4293  11.948  18.530  27.431  0.0740  0.0774  0.1051
61356W        W 4294  12.276  18.184  30.053  0.1565 -0.1033 -0.0349
61357W        W 4295  11.668  21.442  29.467 -0.1313 -0.3601 -0.0794
61358W        W 4296  13.996  19.589  29.411 -0.0440  0.2480 -0.1548
61359W        W 4297  13.727  18.036  26.640  0.1264  0.2128 -0.0055
61360W        W 4298  14.297  20.559  27.161 -0.0332 -0.0438  0.3004
61361W        W 4299  12.641  21.010  30.670 -0.3562  0.2184 -0.0452
61362W        W 4300  11.636  18.065  26.847 -0.0709 -0.1261  0.2342
61363W        W 4301  14.219  19.610  28.874  0.0243 -0.0210  0.1011
61364W        W 4302  12.906  18.805  27.450 -0.4412 -0.1387 -0.1305
61365W        W 4303  12.981  20.441  29.821 -0.0061 -0.3794  0.2858
61366W        W 4304  14.235  20.889  27.965 -0.2319 -0.0984 -0.2914
61367W        W 4305  11.710  19.359  27.361 -0.0025  0.3235  0.0969
61368W        W 4306  12.744  22.295  28.287 -0.0136  0.1838  0.0793
61369W        W 4307  14.199  19.205  29.134  0.2376 -0.1157  0.1291
61370W        W 4308  14.069  20.835  28.608 -0.0771  0.0863 -0.0891
61371W        W 4309  12.004  18.697  29.257 -0.1097  0.0233 -0.1078
61372W        W 4310  13.028  18.955  25.997 -0.2332  0.2113  0.2156
61373W        W 4311  13.303  19.317  28.129  0.4791  0.0905 -0.2871
61374W        W 4312  14.983  19.914  26.571 -0.1230  0.1719 -0.0756
61375W        W 4313  14.793  19.244  27.356  0.1148  0.0594  0.0539
61376W        W 4314  12.034  18.346  31.212  0.1653 -0.2795 -0.0105
61377W        W 4315  14.670  17.432  25.969 -0.0119 -0.1494 -0.0616
61378W        W 4316  15.766  21.127  28.765  0.1152  0.6388  0.0319
61379W        W 4317  14.265  19.967  29.268 -0.0491 -0.0299 -0.1841
61380W        W 4318  13.281  19.902  27.631 -0.1531 -0.0836 -0.0436
61381W        W 4319  12.087  19.208  28.420  0.2227  0.2230  0.3878
61382W        W 4320  13.936  19.859  27.856 -0.3283 -0.2734  0.0150
61383W        W 4321  12.984  18.946  27.920 -0.2138 -0.1259 -0.2061
61384W        W 4322  12.932  20.056  29.482  0.0284 -0.0312 -0.1128
61385W        W 4323  12.543  21.276  28.623 -0.1385  0.1419  0.0734
61386W        W 4324  12.509  20.156  30.800 -0.0497  0.0335 -0.0786
61387W        W 4325  12.685  17.258  25.810  0.0092 -0.2704 -0.2577
61388W        W 4326  11.793  20.011  27.635 -0.0016 -0.2043  0.0628
61389W        W 4327  13.840  18.692  27.290  0.0736  0.1242 -0.1097
61390W        W 4328  15.201  18.430  28.470  0.0452  0.0304  0.1744
61391W        W 4329  14.375  20.079  26.245  0.1177 -0.1625  0.1170
61392W        W 4330  14.732  18.493  28.804  0.2473 -0.1347 -0.2113
61393W        W 4331  13.709  17.316  30.025  0.0332 -0.0280 -0.4069
61394W        W 4332  13.755  22.662  28.247  0.0750  0.1259 -0.1773
61395W        W 4333  10.975  18.807  30.602  0.0596 -0.1498  0.0975
61396W        W 4334  13.293  20.845  31.305 -0.0672 -0.0977 -0.0745
61397W        W 4335  11.143  20.171  29.291 -0.3544 -0.2776 -0.0629
61398W        W 4336  13.406  18.802  26.377  0.3252 -0.0197 -0.2177
61399W        W 4337  12.215  18.514  28.072 -0.0242  0.3557 -0.0942
61400W        W 4338  13.633  20.307  28.258 -0.0120 -0.0834  0.3042
61401W        W 4339  15.285  19.521  26.438 -0.3602  0.0984  0.1416
61402W        W 4340  13.675  20.231  26.972  0.2180  0.0110 -0.1229
61403W        W 4341  14.696  16.999  26.219  0.0758 -0.2157 -0.0356
61404W        W 4342  12.583  19.173  29.172  0.1613  0.0258  0.0049
61405W        W 4343  14.273  20.622  25.599  0.0195  0.1479 -0.2602
61406W        W 4344  13.310  18.473  25.921 -0.3020 -0.1630 -0.0178
61407W        W 4345  13.513  19.733  28.606  0.0240 -0.2218  0.0244
61408W        W 4346  12.761  17.732  28.463 -0.0844 -0.2062 -0.2221
61409W        W 4347  14.728  20.435  26.823  0.0788 -0.1388  0.0668
61410W        W 4348  13.949  18.710  28.632 -0.1131  0.1005 -0.3100
61411W        W 4349  14.400  19.635  28.051  0.0647  0.4014 -0.3479
61412W        W 4350  14.995  19.011  26.966 -0.0857  0.0557  0.0454
61413W        W 4351  13.147  19.538  29.423  0.0459  0.3339 -0.0485
61414W        W 4352  12.904  17.767  31.296 -0.2937  0.3813  0.1744
61415W        W 4353  15.440  21.069  27.937  0.0100  0.3066  0.1009
61416W        W 4354  13.998  19.040  23.655  0.1696  0.1961  0.3399
61417W        W 4355  15.740  18.324  27.367  0.1800  0.1448 -0.0599
61418W        W 4356  15.612  20.094  26.761  0.5248  0.2106  0.1288
61419W        W 4357  13.776  20.839  28.145  0.0193  0.1051 -0.4226
61420W        W 4358  13.845  19.427  28.096  0.0076 -0.0591 -0.2461
61421W        W 4359  13.452  20.490  29.827  0.3626  0.1865  0.0170
61422W        W 4360  12.042  19.414  26.253  0.0539  0.2295 -0.0861
61423W        W 4361  13.434  18.260  30.157  0.1689 -0.0709 -0.1335
61424W        W 4362  12.003  20.580  29.590 -0.1078  0.2187 -0.0187
61425W        W 4363  14.472  21.336  27.966 -0.1160 -0.1501 -0.0551
61426W        W 4364  13.936  19.713  26.221 -0.1712  0.4573  0.1641
61427W        W 4365  13.678  20.258  27.593  0.0921 -0.3302 -0.0908
61428W        W 4366  12.081  22.442  29.875 -0.0459  0.0281 -0.1905
61429W        W 4367  11.569  18.404  25.135 -0.3965  0.1626 -0.0456
61430W        W 4368  13.540  18.695  26.901 -0.1266 -0.1180 -0.0300
61431W        W 4369  15.218  21.743  28.721 -0.0941  0.2596 -0.1805
61432W        W 4370  16.332  20.254  28.912  0.1630  0.1970  0.1366
61433W        W 4371  13.134  17.175  25.553 -0.0540  0.0624  0.1021
61434W        W 4372  14.071  20.329  29.650  0.0480  0.2487 -0.0036
61435W        W 4373  12.649  20.350  27.896 -0.2351 -0.2087 -0.1492
61436W        W 4374  14.144  17.769  27.764  0.0444 -0.0624 -0.0552
61437W        W 4375  12.927  21.205  29.044 -0.2752 -0.0037  0.1861
61438W        W 4376  11.762  22.054  30.932  0.2232 -0.2790  0.0019
61439W        W 4377  12.566  20.163  28.323 -0.0440  0.1020 -0.4280
61440W        W 4378  14.056  18.243  29.491  0.0737  0.1987  0.0231
61441W        W 4379  15.927  19.920  27.279  0.0664 -0.1426  0.1065
61442W        W 4380  14.465  20.128  27.889  0.0565  0.1101  0.2068
61443W        W 4381  14.038  18.881  28.178 -0.3902  0.3276  0.0392
61444W        W 4382  14.260  21.926  28.169  0.0044  0.3367 -0.0215
61445W        W 4383  12.410  18.754  27.612  0.5101 -0.0345 -0.0088
61446W        W 4384  12.928  21.130  28.361 -0.0249 -0.1455 -0.3046
61447W        W 4385  15.011  20.921  26.859 -0.2193  0.2368 -0.0366
61448W        W 4386  11.024  21.947  29.253 -0.4592  0.1332 -0.1066
61449W        W 4387  12.452  18.642  29.941 -0.2136  0.0812  0.1287
61450W        W 4388  14.083  18.728  31.616  0.0201 -0.3518  0.1952
61451W        W 4389  15.757  19.608  26.890 -0.2430 -0.1021  0.2917
61452W        W 4390  12.743  18.334  26.766 -0.0320 -0.2109  0.0326
61453W        W 4391  11.902  20.236  27.141  0.0350  0.1303 -0.0740
61454W        W 4392  11.849  20.765  30.051 -0.1997 -0.2492 -0.1226
61455W        W 4393  12.443  19.678  28.356 -0.0521  0.0270 -0.0366
61456W        W 4394  12.168  20.717  27.207  0.2973 -0.2970  0.1661
61457W        W 4395  15.122  22.058  25.029 -0.0357 -0.0004 -0.2434
61458W        W 4396  14.750  21.356  26.900  0.1317 -0.0264 -0.0819
61459W        W 4397  14.267  21.720  29.644 -0.1970 -0.1388 -0.0355
61460W        W 4398  12.730  18.501  25.962  0.1080 -0.0872  0.1314
61461W        W 4399  12.576  20.844  29.224 -0.0391 -0.2759 -0.1179
61462W        W 4400  11.233  21.038  26.937 -0.0436  0.1464  0.1920
61463W        W 4401  13.207  21.486  28.601 -0.0891  0.2288  0.0626
61464W        W 4402  12.632  22.067  28.831  0.0416 -0.3595 -0.0012
61465W        W 4403  14.942  20.819  30.640  0.1947  0.1439 -0.3450
61466W        W 4404  13.614  19.700  23.746  0.0672 -0.0596  0.1717
61467W        W 4405  15.909  19.742  24.791 -0.0408 -0.0606 -0.2424
61468W        W 4406  13.737  17.058  25.990  0.3305 -0.0417  0.3473
61469W        W 4407  15.649  20.805  28.394  0.1594  0.0111 -0.0947
61470W        W 4408  12.139  19.072  28.917 -0.2927 -0.0305  0.0301
61471W        W 4409  14.062  20.058  25.783  0.0302 -0.0950 -0.0237
61472W        W 4410  12.988  20.292  29.022 -0.0989  0.2252  0.2348
61473W        W 4411  15.721  19.231  30.091  0.0838 -0.0457  0.1394
61474W        W 4412  10.408  21.833  29.364 -0.1209 -0.3061  0.2106
61475W        W 4413  15.522  22.507  27.663 -0.1011 -0.2173 -0.0454
61476W        W 4414  10.802  18.809  28.605 -0.0938  0.2702 -0.0267
61477W        W 4415  13.348  18.577  27.371  0.2284  0.0687  0.0587
61478W        W 4416  15.264  18.104  29.475 -0.0707  0.0796 -0.3971
61479W        W 4417  13.223  17.744  25.473 -0.0051  0.0536 -0.2095
61480W        W 4418  14.053  18.098  26.304  0.2429 -0.0885 -0.0610
61481W        W 4419  12.961  22.048  29.375 -0.0614  0.0449 -0.0262
61482W        W 4420  12.723  21.395  30.090 -0.0263  0.3390 -0.0111
61483W        W 4421  14.540  20.562  28.214  0.1131  0.1158 -0.2177
61484W        W 4422  11.295  17.480  28.418 -0.0449 -0.1125  0.0660
61485W        W 4423  16.541  20.862  25.332 -0.0630  0.2246  0.0869
61486W        W 4424  12.500  19.159  30.025 -0.0236 -0.0184 -0.0542
61487W        W 4425  13.660  17.545  26.724  0.0591  0.3444  0.1537
61488W        W 4426  12.114  19.074  27.384 -0.2088  0.0170 -0.1487
61489W        W 4427  14.771  20.489  25.634 -0.0027 -0.0207  0.2023
61490W        W 4428  12.833  21.063  29.625 -0.2001 -0.1375  0.2843
61491W        W 4429  11.173  18.736  28.973  0.3659  0.2193 -0.0828
61492W        W 4430  13.922  19.048  26.933 -0.4272  0.2318 -0.1193
61493W        W 4431  16.825  19.884  28.500  0.0118 -0.1530 -0.0446
61494W        W 4432  14.283  20.698  26.383  0.0041  0.3919 -0.0870
61495W        W 4433  14.927  19.804  28.724 -0.0256 -0.4086  0.2120
61496W        W 4434  12.326  18.705  28.526 -0.1483  0.2895  0.2809
61497W        W 4435  13.430  17.893  25.878  0.1353 -0.1180  0.1315
61498W        W 4436  12.504  20.359  29.309  0.1277  0.2165  0.0793
61499W        W 4437  13.551  18.765  30.015 -0.2120 -0.1992 -0.0774
61500W        W 4438  16.097  20.290  29.319 -0.2673 -0.0266  0.2875
61501W        W 4439  13.580  19.495  27.678 -0.1903  0.1455 -0.1757
61502W        W 4440  14.314  21.116  25.551  0.1009 -0.3843 -0.2017
61503W        W 4441  14.511  19.275  26.221  0.3440  0.1446  0.1102
61504W        W 4442  12.387  21.622  26.727 -0.1486 -0.1227  0.0203
61505W        W 4443  16.753  20.767  27.409  0.0023 -0.3345  0.1387
61506W        W 4444  15.628  20.146  28.292 -0.0058 -0.0159 -0.0181
61507W        W 4445  11.379  18.630  30.221  0.1932  0.0440 -0.0731
61508W        W 4446  14.895  19.847  27.946  0.0005 -0.1100  0.0044
61509W        W 4447  15.076  21.237  27.582  0.4450 -0.1093 -0.2258
61510W        W 4448  14.855  18.464  27.162 -0.1544 -0.1347  0.1689
61511W        W 4449  14.482  18.759  27.821 -0.1424 -0.0730  0.1776
61512W        W 4450  12.190  20.559  28.057  0.1829  0.3001 -0.0044
61513W        W 4451  14.436  19.672  26.512  0.1743 -0.0654 -0.1785
61514W        W 4452  14.719  18.360  27.657 -0.1434 -0.2174 -0.0300
61515W        W 4453  13.389  20.501  26.540  0.1020  0.0144  0.1460
61516W        W 4454  15.063  17.807  27.837 -0.3107  0.0105  0.0352
61517W        W 4455  15.052  20.359  28.977 -0.2455 -0.1507 -0.1823
61518W        W 4456  11.751  21.767  31.342 -0.1797  0.2789  0.6745
61519W        W 4457  11.500  19.648  26.952  0.1742 -0.0297  0.3805
61520W        W 4458  12.267  20.719  30.370  0.3419 -0.1944  0.2761
61521W        W 4459  13.037  18.967  28.469 -0.1402 -0.3326 -0.2073
61522W        W 4460  12.627  20.751  28.165  0.0036 -0.2427 -0.3809
61523W        W 4461  17.114  21.925  28.428  0.1305 -0.2607  0.1631
61524W        W 4462  13.472  18.953  27.863 -0.0699  0.0379 -0.0172
61525W        W 4463  15.883  20.302  27.667 -0.0566 -0.1823  0.1635
61526W        W 4464  12.932  18.445  28.370 -0.2214 -0.0186 -0.3263
61527W        W 4465  14.305  18.994  27.348 -0.0245 -0.1607 -0.1077
61528W        W 4466  13.689  16.761  27.564 -0.0254 -0.2540 -0.1208
61529W        W 4467  12.479  19.611  30.666 -0.0230 -0.1703  0.1084
61530W        W 4468  12.447  19.483  27.152  0.2286  0.3442 -0.1636
61531W        W 4469  11.840  20.361  26.522 -0.2636  0.0949  0.2740
61532W        W 4470  13.223  19.095  29.117 -0.0920  0.0620  0.1196
61533W        W 4471  14.368  17.872  29.616  0.0089 -0.2624 -0.1761
61534W        W 4472  11.671  20.122  29.037  0.1474 -0.1366  0.2991
61535W        W 4473  11.530  19.621  27.796 -0.5254  0.3600  0.1071
61536W        W 4474  12.094  19.542  27.687 -0.0523 -0.0591  0.0531
61537W        W 4475  14.688  20.550  24.932 -0.0747 -0.0071 -0.1907
61538W        W 4476  12.624  18.519  29.335 -0.3563  0.2560 -0.0690
61539W        W 4477  11.792  18.716  28.773  0.0854 -0.4700  0.0435
61540W        W 4478  15.072  20.495  27.252  0.0451  0.0917 -0.0698
61541W        W 4479  13.751  20.501  25.746 -0.0247  0.0269 -0.2073
61542W        W 4480  14.365  18.647  26.966 -0.0631  0.0269 -0.1883
61543W        W 4481  15.536  19.584  28.684  0.2121 -0.0006  0.0167
61544W        W 4482  12.540  20.684  28.703 -0.1750 -0.3774  0.0941
61545W        W 4483  13.463  19.571  29.782  0.1475 -0.4096 -0.1722
61546W        W 4484  14.203  18.916  29.585  0.0370  0.0173 -0.2270
61547W        W 4485  10.868  18.401  26.795  0.0888 -0.0985 -0.0666
61548W        W 4486  16.096  19.535  27.566  0.1286 -0.2082 -0.1123
61549W        W 4487  13.872  20.637  26.753 -0.0989 -0.1420  0.1131
61550W        W 4488  13.952  20.702  27.527 -0.2265 -0.1390 -0.1387
61551W        W 4489  14.991  18.859  27.758 -0.0607  0.0279  0.1245
61552W        W 4490  13.493  21.045  28.548  0.0252  0.2487  0.2384
61553W        W 4491  13.421  17.537  31.348  0.0312  0.0515 -0.1574
61554W        W 4492  12.279  21.015  27.826 -0.0691  0.2070 -0.0345
61555W        W 4493  12.986  20.133  30.721  0.0168  0.1356 -0.1858
61556W        W 4494  14.244  19.586  23.539  0.0379 -0.1508  0.0304
61557W        W 4495  15.463  17.735  28.163 -0.1632  0.0284 -0.0522
61558W        W 4496  14.261  19.491  27.601 -0.0782  0.1206  0.0375
61559W        W 4497  10.918  19.162   0.503  0.0116  0.0231 -0.3921
61560W        W 4498  13.149  22.581  29.532  0.1876  0.0826  0.2108
61561W        W 4499  15.225  19.433  27.010 -0.2302 -0.2333 -0.1765
61562W        W 4500  11.816  19.580  28.674 -0.1002 -0.0190 -0.0940
61563W        W 4501  15.240  18.473  26.444 -0.0596  0.0293  0.1678
61564W        W 4502  12.920  19.151  26.508  0.2414 -0.0510 -0.0023
61565W        W 4503  11.911  19.573  29.195 -0.0224 -0.2904  0.0629
61566W        W 4504  14.981  17.933  26.289  0.0327 -0.0806  0.1553
61567W        W 4505  13.092  17.998  29.877 -0.0881 -0.0206 -0.0184
61568W        W 4506  13.277  20.695  28.272 -0.0945 -0.2173 -0.5553
61569W        W 4507  16.353  18.443  28.259  0.4450 -0.0315 -0.2689
61570W        W 4508  12.862  19.470  26.028 -0.0318  0.0340 -0.1465
61571W        W 4509  15.037  21.260  26.379  0.2639  0.2899  0.0163
61572W        W 4510  15.341  19.984  26.258  0.1218 -0.0123 -0.1070
61573W        W 4511  14.558  20.892  30.301  0.0723 -0.1256 -0.0261
61574W        W 4512  14.612  21.817  29.254 -0.0283 -0.0873 -0.3716
61575W        W 4513  14.018  20.407  27.921 -0.1205  0.0532 -0.3168
61576W        W 4514  12.639  18.821  28.185  0.5892 -0.1406 -0.2131
61577W        W 4515  12.393  20.226  26.654 -0.0180 -0.0355 -0.0639
61578W        W 4516  14.428  20.581  27.674 -0.0730 -0.1020  0.0798
61579W        W 4517  15.596  19.662  27.636  0.0780  0.1522 -0.0998
61580W        W 4518  12.809  17.690  26.407 -0.1172 -0.1841 -0.1452
61581W        W 4519  12.967  18.153  26.222 -0.2251 -0.1414 -0.1935
61582W        W 4520  13.769  21.636  29.166 -0.3952 -0.0705  0.0637
61583W        W 4521  14.171  20.175  27.425  0.2329  0.0534 -0.1359
61584W        W 4522  16.940  19.633  28.951 -0.2144  0.0916 -0.2816
61585W        W 4523  14.316  20.717  29.900 -0.1150 -0.1263 -0.0941
61586W        W 4524  11.696  18.706  30.603  0.2910  0.2223  0.0218
61587W        W 4525  10.965  20.420  31.197 -0.1922 -0.0500  0.3397
61588W        W 4526  12.651  22.140  30.795  0.2074  0.2448  0.0858
61589W        W 4527  13.871  21.911  29.925 -0.0074 -0.0112 -0.2273
61590W        W 4528  14.520  18.646  29.368 -0.6536 -0.0980  0.2344
61591W        W 4529  13.470  19.798  28.112  0.1244  0.1101 -0.1308
61592W        W 4530  13.872  19.159  29.946  0.0493  0.1052  0.0808
61593W        W 4531  14.275  20.119  30.038 -0.2814 -0.0048 -0.2977
61594W        W 4532  13.742  22.169  30.729 -0.2432 -0.1532 -0.1904
61595W        W 4533  11.669  17.636   0.186 -0.1277 -0.1970  0.0120
61596W        W 4534  14.721  19.427  28.435 -0.0184  0.4735  0.0758
61597W        W 4535  12.159  18.690  30.858  0.1100 -0.0423 -0.0042
61598W        W 4536  13.852  20.511  30.108 -0.3607 -0.0756 -0.5237
61599W        W 4537  12.950  21.537  29.411  0.1051  0.0183  0.2841
61600W        W 4538  11.454  21.650  30.927 -0.5678 -0.2544  0.3452
61601W        W 4539  15.266  20.877  28.810  0.1957 -0.3457  0.1334
61602W        W 4540  10.992  16.599  31.685  0.1240  0.1607  0.0048
61603W        W 4541  12.297  17.340  31.607 -0.1138 -0.0917  0.0254
61604W        W 4542  12.169  18.009  30.803  0.1345 -0.1840  0.0549
61605W        W 4543  11.901  20.154  31.475  0.1937  0.0439  0.2638
61606W        W 4544  15.653  18.741  30.282 -0.2925 -0.1891 -0.0767
61607W        W 4545  13.677  19.235  29.454 -0.0256 -0.0760  0.2346
61608W        W 4546  13.033  18.576  29.851 -0.0482 -0.0073  0.0018
61609W        W 4547  14.452  18.676  30.037  0.1430 -0.1151 -0.0041
61610W        W 4548  13.144  18.641  29.350  0.1514  0.1742 -0.0605
61611W        W 4549  10.472  21.532  30.457  0.1621  0.2614 -0.0593
61612W        W 4550  13.549  18.825  30.640 -0.1307  0.0702  0.2283
61613W        W 4551  13.232  18.997  31.086 -0.3182 -0.0935  0.1038
61614W        W 4552  12.454  20.589  29.788  0.3115 -0.2902 -0.2886
61615W        W 4553  13.528  20.457  31.876 -0.1463  0.2406  0.1455
61616W        W 4554  13.858  21.032   1.384 -0.1193 -0.0540  0.2160
61617W        W 4555  13.027  18.138  29.383  0.0534  0.0981  0.0067
61618W        W 4556  12.538  17.809  31.620  0.0971 -0.0241  0.0464
61619W        W 4557  12.979  20.579  30.498 -0.0403 -0.0045  0.1583
61620W        W 4558  13.749  21.444  29.692 -0.1871 -0.0054 -0.0325
61621W        W 4559  12.574  20.183  31.885  0.0194  0.3305  0.1460
61622W        W 4560  14.761  20.712  28.702 -0.1303 -0.0824 -0.1141
61623W        W 4561  13.472  19.289  30.312 -0.3767 -0.0888  0.2144
61624W        W 4562  15.171  19.659  30.489  0.3104 -0.1201 -0.1498
61625W        W 4563  13.752  18.177  31.856 -0.2695 -0.0315  0.1482
61626W        W 4564  13.457  18.728  28.358 -0.0455 -0.1639  0.1380
61627W        W 4565  12.972  21.688  30.432  0.1709  0.0912 -0.3019
61628W        W 4566  11.515  18.443  31.116  0.0989  0.0662 -0.2177
61629W        W 4567  12.064  19.773  31.058  0.1151 -0.0760  0.0787
61630W        W 4568  13.726  18.958  31.160  0.3027  0.0314  0.1061
61631W        W 4569  12.391  20.108  31.300 -0.0767  0.1738  0.0422
61632W        W 4570  14.133  20.449  29.056 -0.1359  0.0986 -0.2078
61633W        W 4571  10.202  20.608  31.964  0.2180  0.3095  0.0754
61634W        W 4572  14.211  22.470  31.137  0.0975 -0.2989 -0.1025
61635W        W 4573  15.144  17.294  28.502 -0.2330  0.2435  0.0119
61636W        W 4574  13.930  18.553  30.933 -0.3504 -0.1892 -0.1132
61637W        W 4575  13.293  21.323  31.427 -0.0027 -0.1755 -0.0838
61638W        W 4576  15.531  19.544  29.682 -0.0681 -0.0691 -0.1012
61639W        W 4577  14.216  20.662  30.709 -0.2964  0.2822  0.2112
61640W        W 4578  13.720  20.993  30.651 -0.0584  0.2560  0.2172
61641W        W 4579  12.553  20.107  29.844  0.0754  0.0524  0.1913
61642W        W 4580  14.553  20.369  29.367 -0.0991  0.1126  0.0920
61643W        W 4581  11.110  19.939  30.103  0.1151 -0.1864 -0.1751
61644W        W 4582  13.218  19.992  29.915 -0.0351 -0.2240  0.3248
61645W        W 4583  13.201  19.705  30.371  0.0352  0.0344  0.5283
61646W        W 4584  10.183  21.653  30.970 -0.3058  0.0031  0.1322
61647W        W 4585  10.972  18.569  31.075  0.2135  0.3746  0.0926
61648W        W 4586  13.206  20.748  29.453 -0.2871 -0.1452  0.1403
61649W        W 4587  15.132  21.699  29.431 -0.0023  0.0934 -0.1370
61650W        W 4588  15.263  19.741  28.300 -0.0868 -0.1892  0.1321
61651W        W 4589  12.099  24.956  17.549 -0.1187 -0.0608  0.1087
61652W        W 4590  12.647  22.677  15.389 -0.0607  0.2128  0.1422
61653W        W 4591  13.910  23.017  16.005 -0.1148 -0.2959 -0.0249
61654W        W 4592  14.768  23.575  15.730 -0.2569  0.1925  0.2555
61655W        W 4593  10.361  22.852  15.990 -0.0997  0.1208 -0.0123
61656W        W 4594  13.113  26.086  15.941 -0.0955 -0.2059  0.2174
61657W        W 4595  10.419  22.304  19.019 -0.1458  0.0135  0.2048
61658W        W 4596  12.081  23.770  17.291 -0.0687  0.1819 -0.4848
61659W        W 4597  12.006  24.631  19.046 -0.0522  0.1718  0.1501
61660W        W 4598  12.991  24.590  14.888  0.1362 -0.1609  0.4036
61661W        W 4599  10.323  23.267  18.994 -0.0998 -0.2669 -0.4776
61662W        W 4600  11.059  23.869  18.656  0.0547  0.0926 -0.0246
61663W        W 4601  12.510  22.334  16.745  0.1423  0.0947  0.2065
61664W        W 4602  10.704  20.760  16.710  0.2462  0.0386 -0.0507
61665W        W 4603  12.638  24.675  18.899  0.1637 -0.0091 -0.2696
61666W        W 4604  12.007  24.396  16.778  0.0429  0.1209 -0.1535
61667W        W 4605   9.978  24.102  17.985  0.1769  0.2531 -0.1720
61668W        W 4606  12.334  24.650  16.487 -0.0757  0.0349  0.0782
61669W        W 4607  11.684  27.188  15.753 -0.1307 -0.0133 -0.1801
61670W        W 4608  10.668  21.527  18.395 -0.1952  0.2350  0.1413
61671W        W 4609  12.673  22.248  18.943 -0.0262  0.0186  0.1068
61672W        W 4610  12.729  25.708  15.991 -0.1445  0.2015  0.3008
61673W        W 4611   9.827  22.441  15.502 -0.1034  0.0890 -0.1180
61674W        W 4612  10.220  22.339  17.133  0.1468  0.2738 -0.0976
61675W        W 4613  10.595  23.534  18.348 -0.1252  0.2126  0.0480
61676W        W 4614  13.278  23.147  17.201  0.1396  0.1023  0.1035
61677W        W 4615  14.340  23.279  16.833  0.0705  0.1895 -0.0558
61678W        W 4616  12.237  25.879  15.916  0.1051 -0.0094  0.0863
61679W        W 4617  13.076  25.602  17.829  0.1697 -0.1430  0.1959
61680W        W 4618  12.215  22.351  18.031 -0.0474  0.0761  0.0829
61681W        W 4619  10.591  25.156  17.594 -0.0726 -0.0341 -0.0153
61682W        W 4620  11.348  27.093  16.992 -0.2189 -0.0282 -0.1400
61683W        W 4621  10.885  26.523  17.591  0.2313 -0.1156 -0.1380
61684W        W 4622  14.025  24.923  18.470 -0.0414  0.0487  0.1475
61685W        W 4623  12.863  25.089  19.467  0.0419 -0.2177  0.0076
61686W        W 4624  11.455  26.022  20.069 -0.2490 -0.0848 -0.1376
61687W        W 4625  12.087  25.011  16.260 -0.1139  0.1801  0.0383
61688W        W 4626  11.594  25.121  17.941  0.0871 -0.1318  0.1896
61689W        W 4627  11.135  25.249  18.989 -0.0554 -0.0135 -0.1854
61690W        W 4628  11.080  23.318  18.310 -0.0296 -0.1451  0.0927
61691W        W 4629  12.333  25.454  16.777  0.1636  0.2469  0.3346
61692W        W 4630  11.649  24.630  15.288 -0.0707  0.0774 -0.0520
61693W        W 4631  11.663  25.820  16.148  0.0718  0.3328  0.2560
61694W        W 4632  11.583  24.631  18.749  0.2383  0.0653  0.1706
61695W        W 4633  10.937  25.185  17.149 -0.1344 -0.1169 -0.2756
61696W        W 4634  11.812  22.994  18.534  0.0693 -0.0835 -0.1819
61697W        W 4635  11.390  25.375  15.833  0.1116 -0.3640 -0.0314
61698W        W 4636  13.074  24.373  15.747  0.4268 -0.0949 -0.0188
61699W        W 4637  10.384  21.130  15.613 -0.0412 -0.3642 -0.3378
61700W        W 4638  12.735  22.256  17.193 -0.1785  0.1019 -0.0876
61701W        W 4639  12.442  21.343  16.525  0.0127  0.0430 -0.0871
61702W        W 4640  10.617  25.604  17.166 -0.0462 -0.0466  0.0820
61703W        W 4641  11.091  25.063  17.709 -0.0184  0.0221  0.3313
61704W        W 4642  12.600  24.257  18.583  0.0582  0.0123  0.1030
61705W        W 4643  12.685  24.548  16.116 -0.2511  0.0519 -0.2141
61706W        W 4644  11.377  23.153  18.753 -0.1174 -0.1033  0.1250
61707W        W 4645  11.775  25.978  17.650  0.0064  0.1372  0.1410
61708W        W 4646  11.222  23.892  16.907  0.0039 -0.1023 -0.1268
61709W        W 4647  14.191  25.580  15.555  0.1408 -0.0472 -0.2251
61710W        W 4648  14.312  25.855  17.226 -0.0852  0.0917 -0.2145
61711W        W 4649  13.650  24.344  15.146  0.1279  0.0025  0.3118
61712W        W 4650  11.998  25.024  16.736 -0.0929 -0.0516 -0.4582
61713W        W 4651  10.128  25.070  18.455 -0.1008  0.3574 -0.1094
61714W        W 4652  10.612  24.615  17.700  0.0602  0.2857  0.0122
61715W        W 4653  12.042  21.375  15.033  0.4953 -0.0198 -0.0074
61716W        W 4654  12.399  23.960  17.637 -0.0378 -0.1049  0.1817
61717W        W 4655   9.792  24.645  17.741  0.0159 -0.1747 -0.1645
61718W        W 4656  13.546  23.233  16.335 -0.1351 -0.3552 -0.1928
61719W        W 4657  11.403  26.497  18.506 -0.1878 -0.1601 -0.0900
61720W        W 4658  13.759  24.503  17.178  0.0701 -0.2022 -0.0826
61721W        W 4659  12.353  25.041  15.353 -0.1094  0.2476 -0.2655
61722W        W 4660  13.759  21.970  15.596 -0.0782  0.1871  0.1677
61723W        W 4661  12.478  21.820  17.910  0.1137  0.1314 -0.0731
61724W        W 4662  12.928  25.206  15.822  0.0287 -0.3091  0.2313
61725W        W 4663  12.208  24.948  18.056  0.2808 -0.0834 -0.0453
61726W        W 4664  12.612  23.726  18.464 -0.0586  0.0556 -0.2299
61727W        W 4665  12.017  23.391  15.459 -0.2309 -0.1213  0.1544
61728W        W 4666  10.879  27.044  17.757 -0.1792 -0.0826  0.0796
61729W        W 4667  11.227  22.904  19.617  0.0029 -0.0723  0.1294
61730W        W 4668  12.382  24.648  19.360 -0.1897  0.0179  0.0994
61731W        W 4669  11.211  26.011  16.023 -0.0797  0.2746  0.0885
61732W        W 4670  11.944  24.026  16.447 -0.0620  0.2410  0.1042
61733W        W 4671  11.024  24.067  16.258  0.2452  0.2101  0.0972
61734W        W 4672  10.673  22.434  18.602 -0.1319 -0.1336 -0.0117
61735W        W 4673  11.416  26.377  16.587  0.1602 -0.1724  0.4199
61736W        W 4674  13.605  22.112  16.069  0.2491 -0.1517  0.2015
61737W        W 4675  11.248  22.943  16.624  0.2998 -0.1653 -0.0852
61738W        W 4676  14.555  23.082  16.434 -0.1077 -0.1745 -0.0652
61739W        W 4677  11.566  26.161  15.653  0.0349  0.1029 -0.0448
61740W        W 4678  14.247  24.904  17.485  0.3090  0.3262 -0.1891
61741W        W 4679  13.775  23.013  17.202 -0.3672 -0.1584  0.0005
61742W        W 4680  13.730  25.800  15.399 -0.0064  0.0022  0.1822
61743W        W 4681  11.048  24.447  17.519 -0.2998 -0.4617  0.0297
61744W        W 4682  11.032  23.967  17.362 -0.0643 -0.0797  0.0256
61745W        W 4683  11.772  22.486  20.841 -0.1124  0.1107 -0.1730
61746W        W 4684  10.650  21.819  16.892  0.0355  0.2393  0.2909
61747W        W 4685  12.118  23.966  19.798 -0.0323  0.2908 -0.0580
61748W        W 4686  11.389  22.705  15.744  0.0110 -0.1253 -0.1948
61749W        W 4687  12.960  22.754  17.031  0.0097 -0.1548  0.3520
61750W        W 4688   9.818  23.517  19.068  0.2312 -0.2715 -0.0174
61751W        W 4689  11.532  24.739  16.749  0.0969  0.0113 -0.1779
61752W        W 4690  13.497  23.128  17.648  0.0657 -0.0901 -0.3345
61753W        W 4691  12.714  25.025  14.811 -0.0103  0.1119 -0.1284
61754W        W 4692  14.134  24.361  18.200 -0.0969  0.0762 -0.2965
61755W        W 4693  13.400  25.803  18.197  0.0277  0.2656  0.1490
61756W        W 4694  11.743  22.194  19.131 -0.1029 -0.0897  0.0290
61757W        W 4695  11.274  22.200  15.959  0.4037  0.0522  0.1513
61758W        W 4696  12.235  26.702  15.868 -0.1218 -0.2050  0.0926
61759W        W 4697  13.950  24.964  17.105  0.4050 -0.2108  0.1126
61760W        W 4698  12.616  22.805  15.902 -0.0406 -0.0852 -0.0630
61761W        W 4699  13.516  25.397  17.594 -0.1001  0.1032 -0.0897
61762W        W 4700  13.556  24.581  16.107  0.2223  0.1536 -0.1118
61763W        W 4701  11.795  25.165  19.939 -0.2842 -0.1090 -0.3047
61764W        W 4702  11.024  22.020  17.247 -0.2201 -0.0413  0.2182
61765W        W 4703  12.802  23.860  18.893 -0.1744 -0.2723  0.0390
61766W        W 4704  11.621  25.674  17.317  0.1349 -0.1439 -0.2791
61767W        W 4705  11.277  22.093  15.444  0.4151  0.1468 -0.0389
61768W        W 4706  13.101  25.083  17.351  0.0744 -0.3484 -0.0970
61769W        W 4707  10.307  25.436  16.712  0.0144 -0.0430  0.3774
61770W        W 4708  11.363  24.565  16.246  0.1248  0.0259  0.0199
61771W        W 4709  11.822  27.153  16.778 -0.0866 -0.0784  0.0129
61772W        W 4710  13.314  22.783  18.099 -0.0702 -0.1135 -0.0231
61773W        W 4711  10.922  23.980  20.283 -0.0854  0.0799  0.0579
61774W        W 4712  10.962  23.910  19.703 -0.3394  0.2061 -0.0354
61775W        W 4713  11.741  22.921  16.105 -0.2464 -0.0288  0.0104
61776W        W 4714  10.407  24.183  17.724  0.2695 -0.0401  0.0618
61777W        W 4715  14.092  22.291  15.319  0.0639  0.0056 -0.2986
61778W        W 4716  13.204  22.308  17.446 -0.1160  0.5901 -0.0523
61779W        W 4717  11.372  24.193  18.983  0.0360  0.0286  0.0825
61780W        W 4718  14.053  24.562  16.388  0.1882  0.0817 -0.1123
61781W        W 4719  13.394  21.682  15.833  0.1775  0.0451 -0.1918
61782W        W 4720  13.192  23.547  16.125 -0.2172  0.1055 -0.2248
61783W        W 4721  10.348  24.050  20.422  0.0061 -0.1249 -0.1734
61784W        W 4722  12.406  26.169  17.515 -0.0101  0.1653  0.0452
61785W        W 4723  12.998  24.119  16.365  0.2860  0.3093 -0.0253
61786W        W 4724  13.076  23.291  16.669  0.0438  0.0032  0.1086
61787W        W 4725  14.191  25.091  16.607  0.0536  0.0893 -0.2266
61788W        W 4726  11.382  24.712  18.216  0.2297  0.0541 -0.1485
61789W        W 4727  11.237  23.763  19.324 -0.1211  0.0320 -0.0773
61790W        W 4728  11.587  25.832  16.685  0.4156  0.1522  0.0461
61791W        W 4729  11.978  21.543  17.481  0.0747 -0.1693 -0.2207
61792W        W 4730  12.984  23.190  15.166  0.3700 -0.4240  0.1889
61793W        W 4731  10.293  23.274  18.050  0.0207 -0.1084  0.1251
61794W        W 4732  10.112  25.010  16.062 -0.1223 -0.3279  0.0993
61795W        W 4733  12.316  23.353  17.575 -0.3619 -0.0451  0.1526
61796W        W 4734  12.760  23.049  17.499  0.2609 -0.0501 -0.2620
61797W        W 4735   9.830  21.916  18.109 -0.1037 -0.2431 -0.2031
61798W        W 4736  12.997  23.578  19.308  0.2850  0.0783  0.0396
61799W        W 4737  13.058  22.472  16.129  0.0599  0.2492  0.0752
61800W        W 4738  11.985  22.485  17.483 -0.0150  0.0791 -0.0152
61801W        W 4739  11.848  24.549  16.321 -0.0807  0.2410  0.0346
61802W        W 4740  11.212  22.797  19.103 -0.3885 -0.0283 -0.2303
61803W        W 4741  10.807  23.391  20.131 -0.0820  0.2293 -0.0409
61804W        W 4742  12.036  25.452  17.790  0.0451 -0.2207  0.3863
61805W        W 4743  13.472  24.270  18.369  0.0275 -0.0722  0.0813
61806W        W 4744  12.496  25.149  17.222  0.0254 -0.1309 -0.2266
61807W        W 4745  11.359  23.582  22.026 -0.0897  0.1806  0.1447
61808W        W 4746  12.772  23.288  17.029  0.2059  0.1958  0.2076
61809W        W 4747  12.698  24.809  15.646 -0.0865  0.2609  0.1269
61810W        W 4748  11.878  23.295  17.187  0.1942 -0.0375 -0.3302
61811W        W 4749  11.366  21.887  18.201  0.1102  0.0931  0.0877
61812W        W 4750  11.834  24.789  17.150 -0.0301  0.3756 -0.1264
61813W        W 4751  11.215  24.363  15.785  0.0666  0.4811 -0.1545
61814W        W 4752  13.365  24.580  17.453 -0.0152 -0.1576 -0.2031
61815W        W 4753  10.599  24.707  16.789  0.2361 -0.2491  0.0040
61816W        W 4754  12.839  22.809  18.145 -0.2206  0.0430  0.2755
61817W        W 4755  10.297  27.011  19.800 -0.0607  0.2701 -0.3130
61818W        W 4756  12.887  23.947  16.904  0.1245  0.0640  0.0504
61819W        W 4757   9.275  22.148  16.313  0.2157  0.1535  0.2380
61820W        W 4758  14.320  22.725  16.192 -0.1426 -0.0184  0.0199
61821W        W 4759  13.566  24.349  15.670  0.1250 -0.0474 -0.3435
61822W        W 4760  10.636  22.317  16.948 -0.0022  0.0474  0.5192
61823W        W 4761  12.348  22.765  18.359  0.2132  0.0193 -0.1784
61824W        W 4762  10.507  25.797  18.575  0.0573 -0.2186  0.0757
61825W        W 4763  12.358  24.222  19.038 -0.0928  0.2239  0.1299
61826W        W 4764  15.046  22.333  16.131 -0.2439  0.1286  0.0321
61827W        W 4765  12.507  25.290  17.679 -0.1391  0.0605  0.0144
61828W        W 4766  10.733  23.670  19.307 -0.1612  0.0567  0.0442
61829W        W 4767  11.152  21.250  16.989  0.0303  0.2684 -0.2966
61830W        W 4768  12.634  24.625  18.251  0.2092 -0.1682 -0.0945
61831W        W 4769  12.284  23.652  16.341 -0.1144 -0.0747 -0.1261
61832W        W 4770  11.078  26.662  17.014  0.2933 -0.0266  0.0046
61833W        W 4771  11.976  25.314  17.222 -0.2201  0.1083 -0.0175
61834W        W 4772  11.479  24.156  17.704  0.1576 -0.4035 -0.1986
61835W        W 4773  11.150  25.638  17.046 -0.0669  0.1471  0.0284
61836W        W 4774  10.719  22.904  19.903 -0.2125 -0.0466 -0.1411
61837W        W 4775  11.763  23.919  16.951  0.2370 -0.2210  0.3530
61838W        W 4776  11.352  22.259  18.539 -0.0435 -0.1453  0.3045
61839W        W 4777  12.463  21.385  17.383  0.0770  0.1338  0.2024
61840W        W 4778  12.850  23.920  15.909 -0.2416  0.2368 -0.0073
61841W        W 4779  13.213  23.681  17.106 -0.2379  0.4696 -0.1034
61842W        W 4780  11.182  23.764  20.878 -0.0189 -0.1237  0.0018
61843W        W 4781  11.431  26.741  19.015 -0.4289  0.2788  0.3709
61844W        W 4782  11.429  22.752  18.256  0.1072  0.2309  0.0244
61845W        W 4783  14.503  25.535  15.976 -0.1105  0.1266  0.1435
61846W        W 4784  12.180  23.962  18.396 -0.1454 -0.1359  0.0773
61847W        W 4785  13.195  24.966  16.198 -0.1312  0.0076 -0.3161
61848W        W 4786  10.281  23.222  16.442 -0.5315  0.3126 -0.2740
61849W        W 4787  10.749  24.315  18.769 -0.1008  0.0927  0.0691
61850W        W 4788  11.734  23.113  19.655  0.0126  0.2634  0.0353
61851W        W 4789  11.115  24.308  18.451  0.1513  0.0333 -0.2674
61852W        W 4790  12.561  24.319  15.663 -0.1853  0.0475  0.1700
61853W        W 4791  11.679  25.095  19.025 -0.0869 -0.0143  0.2037
61854W        W 4792  13.968  22.503  17.141  0.0420 -0.1445 -0.0607
61855W        W 4793  13.257  24.624  16.529 -0.0715  0.2779 -0.1065
61856W        W 4794  11.010  23.081  17.094 -0.4967  0.0093  0.1261
61857W        W 4795  12.616  23.727  17.277  0.0502 -0.0270  0.1080
61858W        W 4796  12.613  25.499  15.431 -0.1993 -0.2425  0.1219
61859W        W 4797  11.763  23.109  19.065  0.1039  0.1690 -0.1108
61860W        W 4798  11.518  22.851  17.168 -0.0891 -0.2479 -0.1454
61861W        W 4799  13.289  24.321  16.926 -0.0934  0.2285  0.1853
61862W        W 4800   9.200  23.411  18.799 -0.0037  0.1868 -0.0441
61863W        W 4801  11.743  24.365  21.221 -0.2427 -0.0825  0.5866
61864W        W 4802  12.357  23.236  21.659  0.1564  0.0335 -0.0844
61865W        W 4803  13.013  23.052  16.171 -0.0802  0.0661  0.1090
61866W        W 4804  12.062  22.525  16.952  0.2346 -0.0075 -0.1736
61867W        W 4805  12.527  24.141  18.094  0.2698  0.0924 -0.1907
61868W        W 4806  13.155  25.123  16.662 -0.1830  0.3194  0.0586
61869W        W 4807  13.104  24.682  15.358  0.2309 -0.3759  0.0984
61870W        W 4808  12.840  23.306  18.000 -0.2343 -0.1212  0.1546
61871W        W 4809  10.589  24.015  18.346 -0.2034  0.0530  0.1070
61872W        W 4810  13.360  24.013  15.967 -0.3333 -0.0084  0.2664
61873W        W 4811  13.684  23.657  16.335 -0.0812 -0.1298  0.2201
61874W        W 4812  12.333  23.441  16.953 -0.0761 -0.2175 -0.2553
61875W        W 4813  11.849  22.132  19.906 -0.2202  0.2712  0.0594
61876W        W 4814  13.769  25.046  16.248 -0.1828 -0.1812  0.2523
61877W        W 4815  13.047  22.529  18.519 -0.3081 -0.1559 -0.1444
61878W        W 4816  13.098  22.716  17.627 -0.1614 -0.1209  0.0760
61879W        W 4817  11.474  23.768  18.297  0.0364  0.1277  0.0951
61880W        W 4818  10.425  23.387  19.624 -0.0694  0.0145  0.0198
61881W        W 4819  10.370  23.177  17.495 -0.2817 -0.1275 -0.0744
61882W        W 4820  12.437  26.464  17.111 -0.0151  0.4062 -0.1740
61883W        W 4821  13.566  23.529  15.827 -0.0713 -0.4842  0.4595
61884W        W 4822  11.882  22.879  18.043  0.2281  0.1108 -0.2794
61885W        W 4823  14.370  23.852  15.558  0.0787  0.2379  0.4391
61886W        W 4824  13.137  22.616  15.582  0.2666 -0.0443  0.3034
61887W        W 4825  10.916  22.610  15.824  0.3969  0.1821 -0.0140
61888W        W 4826  12.248  23.733  18.878 -0.2217  0.2423  0.2703
61889W        W 4827  11.620  23.187  16.523  0.1627 -0.0645 -0.2851
61890W        W 4828  11.433  21.149  18.013 -0.0740  0.1107 -0.0165
61891W        W 4829  13.021  26.191  16.983  0.3375 -0.0928 -0.0236
61892W        W 4830  11.549  26.454  17.678 -0.0467  0.2513 -0.0328
61893W        W 4831  12.804  22.707  16.547  0.1872  0.0480  0.1179
61894W        W 4832  11.108  22.706  18.596 -0.0257  0.0177  0.1116
61895W        W 4833  10.274  27.610  19.187 -0.0814  0.0461  0.2313
61896W        W 4834  10.365  21.524  16.495 -0.0498  0.0787  0.3166
61897W        W 4835  13.579  24.198  16.385 -0.4425 -0.1218  0.1364
61898W        W 4836  11.528  23.767  17.393 -0.2554  0.0792 -0.0938
61899W        W 4837  14.138  23.721  19.809  0.4391 -0.1330 -0.0496
61900W        W 4838  12.850  21.595  15.843 -0.2454 -0.0973 -0.2616
61901W        W 4839  13.297  23.965  18.758  0.1645  0.1912 -0.2792
61902W        W 4840   9.573  24.928  16.750 -0.2558  0.2434 -0.0132
61903W        W 4841  13.327  22.843  16.675  0.1098  0.3790  0.1089
61904W        W 4842  11.707  26.943  18.634  0.3168 -0.1006 -0.1899
61905W        W 4843  10.753  23.649  16.995  0.4373  0.1710 -0.0019
61906W        W 4844  11.962  25.709  16.951 -0.2732 -0.0590  0.0966
61907W        W 4845  11.481  23.666  18.868 -0.1544 -0.0403  0.1779
61908W        W 4846  11.495  22.166  17.533 -0.0481  0.2084 -0.0536
61909W        W 4847  11.858  23.559  17.745  0.2121  0.0377 -0.1102
61910W        W 4848  15.654  23.377  18.575  0.0434  0.0553  0.0459
61911W        W 4849  11.521  24.650  19.331  0.2323 -0.1286  0.0844
61912W        W 4850  10.402  24.461  18.148  0.0609 -0.1443  0.1013
61913W        W 4851  12.889  25.436  18.375  0.1206  0.2682 -0.1200
61914W        W 4852  13.995  23.021  17.631  0.0305 -0.0827  0.1746
61915W        W 4853  12.680  24.810  17.532  0.2742  0.0779  0.2334
61916W        W 4854  10.479  21.492  19.839 -0.1800  0.2168 -0.0829
61917W        W 4855  11.094  23.385  19.687  0.0768  0.0727 -0.1304
61918W        W 4856  13.454  23.041  15.852  0.0027  0.1403 -0.2099
61919W        W 4857  12.355  21.863  16.635 -0.3342  0.1245  0.0602
61920W        W 4858  12.286  23.974  16.860  0.1722  0.2320  0.5605
61921W        W 4859  10.492  24.040  19.596 -0.1417 -0.2358  0.1493
61922W        W 4860   9.802  23.331  17.239  0.1017 -0.0386 -0.0586
61923W        W 4861  11.124  25.944  16.582 -0.0408  0.0781 -0.3255
61924W        W 4862  13.353  24.848  15.698  0.1581  0.2434  0.0939
61925W        W 4863  12.075  26.319  16.127 -0.0065  0.0688  0.2741
61926W        W 4864  12.826  25.486  16.967  0.0736 -0.1080  0.0933
61927W        W 4865  12.244  22.432  15.792  0.0239 -0.0792 -0.1564
61928W        W 4866  11.995  26.205  19.972 -0.0465  0.0760  0.1109
61929W        W 4867  11.096  24.840  15.786  0.0045 -0.1045  0.2620
61930W        W 4868  12.357  25.480  16.295 -0.4508 -0.2951  0.1598
61931W        W 4869  11.407  26.093  17.088 -0.1327 -0.3286  0.0097
61932W        W 4870  12.533  25.749  17.896 -0.2652 -0.1676  0.2676
61933W        W 4871  13.835  22.836  16.686  0.0808 -0.0038  0.0404
61934W        W 4872  14.456  23.149  15.921 -0.5093 -0.0119 -0.2327
61935W        W 4873  15.677  23.424  16.974 -0.1532 -0.5099 -0.2645
61936W        W 4874  10.816  25.340  18.187  0.2028 -0.1692 -0.1005
61937W        W 4875  11.259  23.597  17.747  0.3676 -0.1930  0.0524
61938W        W 4876  12.948  23.034  15.621  0.1511  0.0124  0.1043
61939W        W 4877  10.992  23.600  21.686  0.2758 -0.3747 -0.2296
61940W        W 4878  14.007  22.942  18.758  0.0510  0.1221  0.2526
61941W        W 4879  10.576  26.854  19.183  0.1940 -0.1303 -0.0286
61942W        W 4880  14.887  24.972  15.896  0.2588  0.1750  0.0053
61943W        W 4881  10.748  23.957  15.804  0.0986 -0.0437 -0.0538
61944W        W 4882  10.919  23.419  18.854  0.0073  0.1187 -0.0536
61945W        W 4883  15.542  22.428  16.982 -0.1044 -0.2406  0.1875
61946W        W 4884  12.941  25.454  14.924  0.1847 -0.1065 -0.0101
61947W        W 4885  11.924  24.025  17.865  0.2213 -0.0550 -0.2744
61948W        W 4886  12.233  25.938  16.432  0.0108 -0.0220  0.1349
61949W        W 4887  11.008  25.791  18.044 -0.2071 -0.2908  0.0717
61950W        W 4888  12.645  25.045  16.237  0.2277 -0.0330  0.2484
61951W        W 4889   9.900  22.418  16.724  0.1934 -0.0197  0.2431
61952W        W 4890  15.181  23.873  16.020 -0.1491  0.1524 -0.3013
61953W        W 4891  10.563  23.122  18.589  0.1937  0.0869  0.0017
61954W        W 4892  14.963  22.523  17.572 -0.1645  0.0282  0.2188
61955W        W 4893  11.502  24.276  16.650 -0.0442 -0.1479 -0.1786
61956W        W 4894  12.998  21.995  16.164  0.1267  0.2823 -0.1455
61957W        W 4895  12.150  24.484  18.457 -0.1097  0.2312 -0.1428
61958W        W 4896  11.556  23.578  19.751 -0.1910  0.3654  0.0768
61959W        W 4897  12.726  24.854  16.727  0.0361 -0.0678  0.1696
61960W        W 4898  13.489  23.012  19.723 -0.1247  0.2092 -0.1823
61961W        W 4899  12.516  24.097  16.201 -0.2123  0.0241  0.1829
61962W        W 4900  12.703  25.588  19.447 -0.2041  0.0522 -0.2812
61963W        W 4901  12.046  23.070  16.763  0.0274 -0.0342 -0.0471
61964W        W 4902  12.388  21.900  17.307  0.0725  0.1892  0.1209
61965W        W 4903  12.107  23.328  15.983  0.3054 -0.0506 -0.2014
61966W        W 4904  11.863  24.066  18.823  0.2722  0.3188  0.0226
61967W        W 4905  15.024  26.212  19.095  0.0263  0.3231 -0.0002
61968W        W 4906   9.604  22.683  16.995  0.2604  0.3973 -0.2103
61969W        W 4907  13.688  24.042  16.816  0.2598  0.1452  0.0982
61970W        W 4908  12.874  23.847  17.825 -0.0242  0.0540  0.2113
61971W        W 4909  13.159  25.654  15.512  0.2073  0.1452  0.0531
61972W        W 4910  13.639  23.819  15.339 -0.1147  0.2999 -0.2338
61973W        W 4911  12.353  24.733  17.047 -0.1673  0.3869 -0.3214
61974W        W 4912  10.082  23.367  18.516  0.1271 -0.0478  0.3150
61975W        W 4913  13.051  24.106  17.382 -0.2617 -0.1746  0.2296
61976W        W 4914  13.763  24.709  16.724  0.1909  0.1815 -0.3457
61977W        W 4915  12.285  22.718  16.302 -0.0230  0.1342  0.1391
61978W        W 4916  12.344  23.675  18.020  0.2038  0.1142  0.1177
61979W        W 4917  11.424  25.248  17.359 -0.0788  0.0200 -0.1407
61980W        W 4918  14.113  22.352  15.858  0.0785 -0.1747 -0.0618
61981W        W 4919  12.549  22.649  19.912  0.0297 -0.1364  0.2971
61982W        W 4920  10.917  25.491  16.116 -0.0544 -0.2192 -0.0989
61983W        W 4921  14.178  22.614  18.457  0.0785  0.0124  0.0642
61984W        W 4922  12.553  25.046  18.583 -0.0424  0.3274  0.0327
61985W        W 4923  12.401  25.203  19.213 -0.0987  0.2056  0.4066
61986W        W 4924  11.425  25.576  17.778  0.1401  0.0483  0.0091
61987W        W 4925  10.047  23.793  18.367  0.0509  0.4552 -0.2476
61988W        W 4926  11.822  24.854  18.372 -0.1764  0.0624  0.2021
61989W        W 4927  11.900  25.931  15.279  0.0227 -0.3655 -0.0244
61990W        W 4928  11.487  24.701  17.655  0.3278  0.0132  0.2032
61991W        W 4929  13.294  23.729  16.628 -0.1961 -0.2237 -0.1105
61992W        W 4930  14.261  25.511  16.403  0.2063 -0.3185  0.0029
61993W        W 4931  11.119  22.544  16.964  0.2069  0.2000  0.0983
61994W        W 4932  15.299  23.258  15.760 -0.4048 -0.0377  0.0091
61995W        W 4933  13.137  22.343  16.779 -0.1205  0.0342  0.1235
61996W        W 4934  10.413  23.724  17.405  0.1278 -0.2062  0.2339
61997W        W 4935  12.720  23.379  15.976  0.0254 -0.0386 -0.0368
61998W        W 4936  12.356  23.739  15.804 -0.1313 -0.2102  0.1656
61999W        W 4937  11.366  25.074  18.562 -0.2840  0.1381  0.1060
62000W        W 4938  13.148  22.178  18.894  0.1224  0.5000  0.2927
62001W        W 4939  11.240  23.302  19.221  0.3043  0.3015  0.1096
62002W        W 4940  10.983  22.935  17.562 -0.1816 -0.2034 -0.1237
62003W        W 4941  11.942  23.554  16.667  0.3867  0.1244  0.0918
62004W        W 4942  13.986  23.639  16.833  0.1067 -0.1483 -0.0590
62005W        W 4943  11.350  21.860  18.918 -0.2524  0.4373  0.3958
62006W        W 4944  11.878  22.636  16.512 -0.0185 -0.2428  0.1082
62007W        W 4945  13.322  25.478  16.003 -0.2344 -0.1746 -0.0054
62008W        W 4946  14.150  24.428  15.912 -0.2169 -0.3152  0.0311
62009W        W 4947  12.352  21.404  15.880 -0.1414 -0.1169  0.2966
62010W        W 4948  13.968  24.974  19.988 -0.1552 -0.2941  0.0700
62011W        W 4949  12.086  24.169  15.908 -0.1948 -0.0767  0.1563
62012W        W 4950  11.651  23.328  18.196  0.0193  0.0618 -0.0940
62013W        W 4951  11.322  23.130  20.037  0.1843 -0.0405  0.0859
62014W        W 4952  10.060  21.280  16.012 -0.1252 -0.0695  0.1588
62015W        W 4953  12.560  23.124  16.412  0.0499  0.1101  0.1041
62016W        W 4954  13.162  24.242  15.237  0.1077 -0.2331  0.0716
62017W        W 4955  13.922  26.134  15.711  0.4271 -0.1210 -0.1479
62018W        W 4956  11.300  24.838  17.166  0.0099  0.0156  0.1319
62019W        W 4957  10.847  26.870  19.667  0.0335  0.3255 -0.1208
62020W        W 4958   9.978  22.012  18.576 -0.3376 -0.1019  0.1503
62021W        W 4959  14.458  23.856  16.952 -0.4908 -0.2613  0.0002
62022W        W 4960  10.941  24.202  19.251  0.1886  0.0002  0.1564
62023W        W 4961  13.892  24.863  15.744  0.0852 -0.0228 -0.1851
62024W        W 4962  13.545  22.718  16.237 -0.0072  0.3472  0.0004
62025W        W 4963  13.849  24.021  15.976  0.1967  0.1602  0.1411
62026W        W 4964  10.478  21.939  20.106  0.1329 -0.0281  0.2472
62027W        W 4965  10.018  25.140  18.966  0.0135 -0.0293  0.1900
62028W        W 4966  14.251  23.139  18.031 -0.1814 -0.1922  0.3156
62029W        W 4967  11.914  21.348  16.497  0.1231  0.3774  0.2487
62030W        W 4968  13.477  22.640  17.142 -0.0577  0.0236  0.3262
62031W        W 4969  13.551  25.893  15.884  0.0373  0.1656 -0.1438
62032W        W 4970  10.119  25.561  18.708 -0.2628  0.0947  0.0650
62033W        W 4971  12.250  22.940  17.320 -0.2636 -0.0247  0.3234
62034W        W 4972  11.646  22.610  18.806  0.0361  0.0355  0.2150
62035W        W 4973  14.099  23.339  16.362 -0.2136  0.0282  0.0090
62036W        W 4974  13.101  24.534  18.129  0.1208 -0.0693  0.3717
62037W        W 4975  11.482  23.425  16.938 -0.2897 -0.2521 -0.0848
62038W        W 4976  14.489  24.722  16.580  0.2958  0.2034 -0.2365
62039W        W 4977  12.495  26.389  20.031 -0.0729 -0.1608  0.0599
62040W        W 4978  12.814  25.326  18.958 -0.1496  0.1231 -0.0804
62041W        W 4979  11.907  24.953  19.489  0.1141 -0.3594  0.0353
62042W        W 4980  14.698  23.637  18.806  0.1664 -0.0474  0.0292
62043W        W 4981   9.577  21.394  17.587  0.2151 -0.1041 -0.0072
62044W        W 4982  11.858  25.092  15.519  0.1562  0.2140  0.1673
62045W        W 4983  11.695  24.298  18.391  0.4300  0.0716 -0.1599
62046W        W 4984  11.888  23.506  18.587 -0.1679  0.1612  0.1407
62047W        W 4985  11.398  23.278  17.418  0.0282 -0.1588  0.3505
62048W        W 4986  13.430  22.854  15.238 -0.1525 -0.1704 -0.1229
62049W        W 4987  11.092  26.200  20.294  0.0682 -0.0807 -0.0551
62050W        W 4988  11.826  24.535  17.959 -0.0276  0.3840 -0.0677
62051W        W 4989  12.232  25.107  22.988  0.0044  0.1545  0.1127
62052W        W 4990  10.542  23.565  21.483 -0.0554  0.0059 -0.1472
62053W        W 4991  13.007  21.762  18.117  0.1103 -0.0782 -0.2025
62054W        W 4992  13.934  23.900  20.839  0.0153 -0.0170  0.2456
62055W        W 4993  10.960  22.317  22.169  0.1131 -0.0091  0.1923
62056W        W 4994  14.240  24.838  20.637 -0.4168 -0.1388 -0.2920
62057W        W 4995  11.315  22.122  23.295 -0.1691 -0.0323 -0.0982
62058W        W 4996  12.708  25.703  21.081 -0.1509  0.0459 -0.2481
62059W        W 4997  13.967  25.719  21.774  0.0715  0.0972  0.1233
62060W        W 4998  10.348  24.655  18.607  0.0884 -0.0142  0.1370
62061W        W 4999  11.866  23.177  23.685 -0.0129  0.0236 -0.1259
62062W        W 5000  13.122  26.125  20.746 -0.0727 -0.3566  0.0933
62063W        W 5001  11.065  23.390  20.568  0.2278 -0.3757 -0.2427
62064W        W 5002  10.904  20.875  21.800  0.2960  0.0043 -0.1780
62065W        W 5003  13.758  24.754  21.391  0.2354 -0.0560  0.0133
62066W        W 5004  11.405  24.456  21.675 -0.1356  0.1021 -0.0570
62067W        W 5005  11.473  23.554  23.263 -0.1864  0.0716  0.0832
62068W        W 5006  12.286  23.849  21.864  0.3062  0.0624 -0.0232
62069W        W 5007  12.258  25.236  21.036  0.2303 -0.2566 -0.0484
62070W        W 5008  11.974  23.611  23.382  0.3016 -0.2080 -0.1473
62071W        W 5009  12.108  21.301  22.761  0.1471  0.1052 -0.2711
62072W        W 5010  12.204  26.441  22.755 -0.3790 -0.1073 -0.0978
62073W        W 5011  11.224  24.314  22.497  0.2185 -0.2199 -0.0666
62074W        W 5012  10.458  22.990  23.552 -0.0950 -0.0270 -0.2218
62075W        W 5013  12.766  23.117  22.948 -0.2817  0.1337  0.0321
62076W        W 5014  15.038  23.205  22.959  0.2920  0.2226 -0.2864
62077W        W 5015  13.043  24.333  22.899  0.1842  0.0272  0.2368
62078W        W 5016  12.293  25.728  22.251  0.0777 -0.2299  0.2009
62079W        W 5017  12.778  25.863  21.556 -0.2321  0.0771  0.0404
62080W        W 5018  13.212  22.425  25.068  0.2368  0.1569 -0.2386
62081W        W 5019  10.966  24.625  20.149 -0.0901  0.1859  0.2260
62082W        W 5020  10.008  25.141  21.885  0.2232 -0.0580  0.2794
62083W        W 5021  12.116  24.802  20.248  0.1788 -0.4042  0.1075
62084W        W 5022  14.128  25.284  21.010 -0.2156 -0.3335 -0.3320
62085W        W 5023  14.928  26.164  22.474 -0.0196  0.2065 -0.1212
62086W        W 5024  12.372  26.406  23.234  0.1174  0.2670  0.0535
62087W        W 5025  10.110  24.580  19.627 -0.0155 -0.0428 -0.2607
62088W        W 5026  11.170  26.036  21.745 -0.1731  0.2631 -0.0715
62089W        W 5027  13.495  26.408  22.538  0.1583  0.0166  0.0861
62090W        W 5028  12.796  24.972  22.083  0.2443  0.0715 -0.1610
62091W        W 5029  13.460  24.383  21.614  0.1476 -0.0205  0.0754
62092W        W 5030  12.348  24.892  21.543  0.2692  0.0846  0.1265
62093W        W 5031  13.353  24.507  21.175 -0.3032  0.2877  0.0221
62094W        W 5032  11.433  24.807  22.695 -0.0550 -0.0527  0.0681
62095W        W 5033  10.273  24.642  20.771 -0.2744 -0.1493  0.0835
62096W        W 5034  13.988  23.741  23.228 -0.0670  0.0068 -0.1584
62097W        W 5035  10.496  25.467  19.087 -0.0523  0.0077 -0.1518
62098W        W 5036  13.008  24.762  20.822 -0.2765  0.2854 -0.0910
62099W        W 5037  12.393  23.824  20.204 -0.1395  0.1481  0.1320
62100W        W 5038  12.683  23.272  19.585  0.1770 -0.2324  0.1869
62101W        W 5039  13.560  23.478  21.104  0.0892  0.2199  0.6560
62102W        W 5040  10.430  24.970  22.165  0.1907  0.2495 -0.3516
62103W        W 5041  11.515  22.156  22.747  0.0511  0.0555 -0.1530
62104W        W 5042  14.066  25.791  21.102 -0.1396 -0.0199  0.1192
62105W        W 5043  13.106  24.211  20.871 -0.1804  0.2230 -0.0057
62106W        W 5044  12.458  25.550  23.612  0.3704  0.0687  0.1894
62107W        W 5045  11.735  25.159  22.909 -0.1987  0.3630 -0.1512
62108W        W 5046  11.040  23.926  22.091 -0.3842  0.1288  0.0023
62109W        W 5047  13.150  25.511  19.690  0.1151  0.1772 -0.0227
62110W        W 5048  13.859  24.529  20.416 -0.0544 -0.0614  0.0327
62111W        W 5049  13.528  24.645  20.011 -0.0401  0.1683  0.2868
62112W        W 5050  11.674  24.613  22.185  0.1829  0.0611  0.2944
62113W        W 5051  10.978  23.873  23.567  0.1225  0.0306 -0.0875
62114W        W 5052  11.384  23.450  23.768  0.0026 -0.0306  0.1897
62115W        W 5053   9.790  23.319  19.989 -0.0990  0.1006 -0.1596
62116W        W 5054  14.778  26.045  21.890  0.1970 -0.0993 -0.3726
62117W        W 5055  10.677  25.263  22.718 -0.1184  0.0718  0.2491
62118W        W 5056  14.164  22.962  20.630  0.0079 -0.0653  0.1181
62119W        W 5057  10.582  25.451  20.354  0.3550  0.0005  0.1045
62120W        W 5058  14.475  26.180  23.444  0.2796 -0.0691 -0.0411
62121W        W 5059  14.010  24.471  21.000  0.2672  0.1743  0.2446
62122W        W 5060  13.354  23.065  22.142  0.1941  0.1834  0.1415
62123W        W 5061  12.754  22.459  21.756 -0.2226 -0.2133 -0.0983
62124W        W 5062  10.280  24.975  20.027 -0.0351  0.0128  0.0805
62125W        W 5063  12.138  23.394  20.376 -0.4321  0.2257 -0.1402
62126W        W 5064  12.014  25.344  23.728  0.2680 -0.0699 -0.0816
62127W        W 5065  12.686  22.809  18.790 -0.3055 -0.1055  0.2023
62128W        W 5066   9.388  24.374  23.449 -0.1445 -0.3244  0.1569
62129W        W 5067  11.373  25.002  24.857 -0.0369  0.0674 -0.1971
62130W        W 5068  12.113  24.258  22.723 -0.0039  0.1785 -0.3819
62131W        W 5069  10.776  25.915  20.008 -0.3284  0.1293  0.2056
62132W        W 5070   9.894  22.677  22.408  0.3180 -0.1404  0.1625
62133W        W 5071  12.346  22.921  20.322 -0.1348  0.0416  0.3360
62134W        W 5072  11.202  22.913  23.817  0.5238 -0.3488  0.2604
62135W        W 5073  10.675  23.794  23.117 -0.0809  0.0994 -0.1681
62136W        W 5074  13.724  23.634  20.425 -0.1081  0.1110  0.0171
62137W        W 5075  11.298  22.569  22.508  0.1056  0.2749  0.1179
62138W        W 5076  13.657  22.332  19.012  0.1033  0.0982  0.1539
62139W        W 5077  10.335  22.809  19.287 -0.0609 -0.1753  0.4433
62140W        W 5078  14.379  25.791  23.085  0.1710 -0.2316  0.1531
62141W        W 5079  13.496  24.306  19.608  0.1028  0.0107  0.0684
62142W        W 5080  14.712  23.732  19.837 -0.3096 -0.0491  0.0139
62143W        W 5081  11.452  23.249  22.836  0.2771 -0.0837 -0.2231
62144W        W 5082  10.557  23.140  22.484  0.3687  0.0711 -0.0871
62145W        W 5083  12.717  22.696  22.552  0.0707  0.2820  0.0105
62146W        W 5084  11.700  23.799  21.137 -0.0987  0.0845 -0.1059
62147W        W 5085  13.695  24.739  23.239 -0.1801 -0.0854 -0.1356
62148W        W 5086  11.050  21.951  19.346 -0.1869 -0.0491  0.1511
62149W        W 5087  13.079  23.353  21.582  0.0014 -0.2795 -0.1848
62150W        W 5088  12.073  24.762  21.154 -0.3001  0.2890  0.1808
62151W        W 5089  10.495  23.537  20.500 -0.0068  0.1274 -0.2232
62152W        W 5090  13.083  23.444  23.098 -0.1560 -0.0926  0.2353
62153W        W 5091  13.471  25.885  20.410  0.1899  0.0889 -0.1714
62154W        W 5092  14.502  25.744  23.995  0.0937  0.0657 -0.0974
62155W        W 5093  15.158  25.589  21.678  0.0529 -0.3671  0.4358
62156W        W 5094  10.302  24.105  22.850 -0.0938  0.0508 -0.1542
62157W        W 5095  11.071  22.867  21.009  0.0580  0.1312  0.1623
62158W        W 5096   9.573  25.898  21.361  0.2164 -0.0047  0.3648
62159W        W 5097  11.591  24.836  21.289 -0.0771 -0.2417 -0.2811
62160W        W 5098  12.847  24.102  20.336  0.0358  0.2083  0.1391
62161W        W 5099  14.405  25.884  21.504 -0.3206 -0.2808 -0.2135
62162W        W 5100  12.224  25.612  19.773  0.0927  0.1363 -0.1457
62163W        W 5101  10.043  25.589  22.078 -0.1142  0.1641 -0.0543
62164W        W 5102  12.965  21.796  22.172 -0.3491  0.0398  0.1277
62165W        W 5103  12.930  23.993  23.347  0.3522 -0.3729 -0.1406
62166W        W 5104  12.987  24.616  20.344  0.1922 -0.2174  0.1687
62167W        W 5105  11.676  22.647  19.334  0.0562  0.0643 -0.0342
62168W        W 5106  14.499  27.133  21.890 -0.0184 -0.2368 -0.0023
62169W        W 5107  10.146  24.478  20.187 -0.0205 -0.2749 -0.0015
62170W        W 5108  11.296  24.184  21.208 -0.0505 -0.2485  0.1645
62171W        W 5109  10.761  25.242  20.822 -0.0125  0.2328 -0.1032
62172W        W 5110  13.366  23.763  20.771 -0.0222  0.0145  0.0433
62173W        W 5111  10.240  24.958  24.990  0.2856  0.2853  0.0212
62174W        W 5112  11.912  25.065  23.386  0.1732  0.0015  0.0675
62175W        W 5113  10.507  23.046  20.752  0.3385 -0.0226  0.1782
62176W        W 5114  10.904  24.872  23.453 -0.0980 -0.1242 -0.0694
62177W        W 5115  12.974  22.493  20.110  0.0622  0.1373 -0.1638
62178W        W 5116  13.466  22.663  20.067 -0.0095 -0.0618 -0.0072
62179W        W 5117  12.295  25.951  22.965  0.1107  0.0632  0.1224
62180W        W 5118  12.766  23.275  18.965 -0.0278 -0.0510 -0.2087
62181W        W 5119  13.547  23.373  19.334 -0.4487  0.1390 -0.0709
62182W        W 5120  12.239  23.007  19.835 -0.0125 -0.1729  0.2912
62183W        W 5121  11.329  24.628  23.292  0.1404  0.2873 -0.0018
62184W        W 5122  12.623  25.948  19.794 -0.0364 -0.2608  0.1095
62185W        W 5123  11.210  25.210  22.509  0.1563 -0.2831  0.2554
62186W        W 5124  12.642  24.956  20.174 -0.1739 -0.1482  0.1246
62187W        W 5125  15.840  25.008  21.550  0.0761  0.2683  0.0285
62188W        W 5126  10.047  23.287  23.410  0.1013  0.0840  0.3783
62189W        W 5127  12.916  25.476  22.358  0.3106 -0.2520 -0.3038
62190W        W 5128  13.660  24.868  20.931  0.1774  0.0591  0.2515
62191W        W 5129  12.043  20.248  21.895 -0.2759  0.3663  0.1043
62192W        W 5130  11.814  23.083  20.203 -0.0837  0.1778 -0.0922
62193W        W 5131  12.556  24.628  21.143  0.1059  0.0698 -0.3566
62194W        W 5132  11.122  24.614  18.905 -0.2535 -0.2668  0.2760
62195W        W 5133  14.587  23.841  20.297  0.1072 -0.0914 -0.2174
62196W        W 5134  13.967  22.077  21.755  0.0834  0.2698  0.1941
62197W        W 5135  12.460  22.322  22.289  0.0204  0.1238 -0.0281
62198W        W 5136  14.342  24.644  23.487  0.1623  0.1489 -0.2555
62199W        W 5137  14.006  24.227  22.385  0.0070 -0.0679  0.3353
62200W        W 5138  13.372  26.672  21.935 -0.1096 -0.1863 -0.0449
62201W        W 5139  10.593  24.324  20.006 -0.1975 -0.0519 -0.1337
62202W        W 5140  12.636  22.632  23.068  0.0885 -0.0146 -0.1063
62203W        W 5141  11.914  24.851  24.657 -0.2960 -0.3020 -0.1303
62204W        W 5142  10.014  24.855  22.441 -0.0913 -0.2001  0.1406
62205W        W 5143  13.178  25.939  21.221 -0.2555 -0.2480  0.2444
62206W        W 5144  11.938  23.861  20.536  0.1255 -0.2182 -0.1182
62207W        W 5145  12.958  22.208  23.576 -0.3666 -0.0066  0.1941
62208W        W 5146  12.704  23.946  21.060  0.2344  0.0384  0.3552
62209W        W 5147  11.425  25.141  19.455 -0.1737  0.3672 -0.0928
62210W        W 5148  12.089  24.284  20.285  0.1240 -0.2040  0.1977
62211W        W 5149  11.920  22.302  22.519 -0.4195 -0.3609 -0.0650
62212W        W 5150  12.600  26.046  20.691 -0.0078 -0.0521 -0.0617
62213W        W 5151  10.968  23.797  18.113 -0.1749  0.0889 -0.3706
62214W        W 5152  12.367  24.236  21.526  0.0953  0.1957 -0.0707
62215W        W 5153  10.847  24.371  20.996  0.2821 -0.2338  0.1050
62216W        W 5154  13.593  23.344  22.469  0.2623  0.3858  0.2327
62217W        W 5155  10.536  24.472  22.027 -0.0352 -0.1304 -0.2153
62218W        W 5156  10.453  22.459  19.779  0.0246  0.0408  0.0880
62219W        W 5157  11.054  24.768  21.315  0.0272 -0.0074 -0.0802
62220W        W 5158  13.356  24.223  20.269 -0.3065  0.1227  0.1160
62221W        W 5159  12.496  24.336  20.045  0.4629 -0.0847 -0.2903
62222W        W 5160  10.967  23.387  23.447  0.1278 -0.0772  0.1769
62223W        W 5161  12.264  23.479  22.718 -0.3470  0.1231 -0.3051
62224W        W 5162  10.049  23.829  22.250  0.1862  0.0274  0.0510
62225W        W 5163  11.603  24.477  20.356 -0.0090  0.2344  0.1510
62226W        W 5164  11.764  23.840  19.312 -0.1214  0.0085  0.1867
62227W        W 5165  12.433  25.274  21.954 -0.1809 -0.0060  0.3626
62228W        W 5166  12.442  24.801  24.714 -0.1841 -0.1651  0.2546
62229W        W 5167  10.792  22.526  20.859  0.0846  0.1103  0.2246
62230W        W 5168  13.292  24.962  22.326 -0.2029 -0.0806  0.1818
62231W        W 5169  13.491  22.594  21.884 -0.1147 -0.0126  0.0619
62232W        W 5170  11.614  24.139  20.787  0.0843 -0.0378  0.0964
62233W        W 5171  12.938  27.610  21.909 -0.1335  0.1233 -0.1412
62234W        W 5172  11.241  24.240  20.007  0.3018  0.1949 -0.3080
62235W        W 5173  11.027  25.418  19.525  0.0263  0.1580 -0.0083
62236W        W 5174  12.635  22.053  23.135 -0.2521 -0.1579 -0.0108
62237W        W 5175  13.006  24.878  21.450 -0.2088  0.1853 -0.1990
62238W        W 5176  11.035  23.160  21.450  0.0642  0.0652  0.0689
62239W        W 5177  11.457  24.131  22.042 -0.2481  0.2395  0.2627
62240W        W 5178  12.281  24.596  23.389 -0.1868  0.0473 -0.1798
62241W        W 5179  14.313  25.903  22.058  0.2132  0.0833 -0.2031
62242W        W 5180  12.609  23.133  22.443  0.0099  0.1593 -0.2824
62243W        W 5181  10.022  23.764  24.268  0.0733  0.1475  0.1254
62244W        W 5182  11.393  22.401  21.112  0.3596 -0.1608  0.2531
62245W        W 5183  14.208  26.524  19.674  0.1141 -0.0511  0.1195
62246W        W 5184  13.449  25.177  23.289  0.1829 -0.0278  0.0838
62247W        W 5185  12.724  24.683  19.742  0.0439  0.2034  0.3230
62248W        W 5186   9.702  22.884  22.871  0.0072  0.0562  0.5511
62249W        W 5187  10.655  24.406  20.554  0.1326 -0.1562  0.1278
62250W        W 5188  12.596  22.896  21.253 -0.1602  0.1130  0.3247
62251W        W 5189  10.237  24.368  22.415  0.0774  0.0680  0.1436
62252W        W 5190  11.424  25.682  19.277 -0.1007  0.0199 -0.2104
62253W        W 5191  10.985  25.656  22.493  0.3177 -0.2227  0.2409
62254W        W 5192  14.029  24.418  19.869  0.0288 -0.1560 -0.1896
62255W        W 5193  11.673  24.639  19.892  0.1640 -0.0963 -0.0044
62256W        W 5194  14.052  22.312  21.212 -0.0581 -0.2991  0.2103
62257W        W 5195  14.520  22.731  19.708 -0.2071 -0.1533 -0.0755
62258W        W 5196  13.071  24.929  19.045  0.1252  0.1567 -0.1291
62259W        W 5197  13.636  21.983  23.366  0.0224  0.1776  0.0975
62260W        W 5198  11.779  20.033  22.286 -0.2964  0.0102 -0.4020
62261W        W 5199  13.083  24.362  19.883 -0.1990  0.0363  0.2161
62262W        W 5200   9.932  22.391  24.255 -0.4015 -0.1799 -0.1088
62263W        W 5201  14.057  25.667  24.171  0.0966 -0.2641  0.3381
62264W        W 5202  10.827  24.140  24.153  0.0614  0.2303  0.0670
62265W        W 5203  13.039  23.024  19.336 -0.1715 -0.2440 -0.0835
62266W        W 5204   9.837  21.884  19.792  0.2584 -0.1067  0.1761
62267W        W 5205  12.098  23.594  20.900  0.0155  0.6169  0.0912
62268W        W 5206  13.255  25.268  21.932  0.0921  0.1790  0.0340
62269W        W 5207  11.239  23.615  20.156 -0.0243  0.0847  0.1298
62270W        W 5208  13.242  23.879  21.598 -0.0403 -0.1776 -0.3021
62271W        W 5209  11.429  25.550  19.791 -0.0954  0.2808  0.2161
62272W        W 5210  12.378  24.000  20.646  0.1447 -0.1182 -0.0490
62273W        W 5211  13.140  24.684  19.493 -0.2517 -0.0014 -0.0731
62274W        W 5212  11.858  26.059  20.487  0.2033 -0.0308 -0.1217
62275W        W 5213  11.818  20.852  22.649 -0.0715 -0.3819  0.3227
62276W        W 5214  13.822  23.650  21.524 -0.0227 -0.1612 -0.4422
62277W        W 5215  13.051  23.419  22.523  0.0532 -0.2070 -0.0584
62278W        W 5216  12.586  24.164  22.650  0.1844 -0.2270  0.1116
62279W        W 5217  12.745  25.122  22.765  0.1079 -0.2463  0.1584
62280W        W 5218  10.451  24.425  24.321 -0.2946  0.0926 -0.2102
62281W        W 5219  11.339  23.071  23.374  0.0380  0.1505  0.1982
62282W        W 5220  13.730  25.256  21.883  0.2388 -0.1431  0.0986
62283W        W 5221  12.216  23.160  18.777 -0.0082 -0.0566 -0.1927
62284W        W 5222  13.108  22.558  22.831 -0.0633  0.0191 -0.0010
62285W        W 5223  14.575  24.821  20.960 -0.3287  0.0174  0.2808
62286W        W 5224  12.839  23.940  19.808 -0.3417  0.1305 -0.1831
62287W        W 5225  11.724  24.118  22.496 -0.0279  0.2595  0.0924
62288W        W 5226  13.260  23.910  24.317  0.2431  0.0323 -0.1734
62289W        W 5227  10.152  22.873  19.769  0.0478 -0.1968 -0.0423
62290W        W 5228  12.765  23.798  22.898  0.1113  0.1260 -0.1710
62291W        W 5229  13.424  24.878  20.432 -0.3078 -0.0701  0.0250
62292W        W 5230  10.966  25.119  20.376 -0.2044  0.4381  0.0278
62293W        W 5231  11.877  23.299  21.223  0.0756 -0.1435  0.1971
62294W        W 5232   9.874  22.410  22.861 -0.0816 -0.0057  0.1089
62295W        W 5233  10.606  26.055  23.125  0.2193  0.2051  0.1332
62296W        W 5234  12.184  22.219  20.595  0.2442  0.1889  0.3774
62297W        W 5235  11.359  23.348  20.962  0.2795  0.2539  0.2082
62298W        W 5236  12.673  24.584  21.722 -0.0157 -0.4789 -0.0327
62299W        W 5237  13.395  23.800  24.875 -0.3791 -0.2097  0.1832
62300W        W 5238  11.086  22.403  18.123  0.1688 -0.1995  0.0745
62301W        W 5239  12.731  23.742  21.550 -0.3893  0.3024  0.0281
62302W        W 5240  10.486  23.749  20.020  0.0242 -0.0308  0.0969
62303W        W 5241  13.426  21.790  21.840  0.1499 -0.3894  0.0487
62304W        W 5242  12.529  25.577  22.734  0.1334  0.0403 -0.3496
62305W        W 5243  10.906  24.812  22.416 -0.1357  0.0298  0.0053
62306W        W 5244  11.534  24.655  20.843  0.2826 -0.2237 -0.0126
62307W        W 5245  12.038  22.159  23.521  0.1530  0.2445 -0.0871
62308W        W 5246  13.581  24.234  20.799 -0.1136  0.1912 -0.1483
62309W        W 5247  11.957  24.989  20.705 -0.0306 -0.0140  0.2357
62310W        W 5248  14.035  23.212  23.274 -0.0417  0.1417 -0.0672
62311W        W 5249  11.463  25.907  22.197 -0.2814 -0.0301  0.0539
62312W        W 5250  10.841  23.825  22.648  0.0216 -0.0933 -0.0880
62313W        W 5251  11.453  25.455  23.885  0.0093 -0.0702 -0.1542
62314W        W 5252  12.917  24.250  21.398 -0.0319  0.2473 -0.1508
62315W        W 5253  11.075  26.003  19.590 -0.3799 -0.0125  0.1301
62316W        W 5254  12.174  24.246  23.736 -0.0751  0.0521 -0.1419
62317W        W 5255  11.532  24.325  24.009  0.0801  0.0673  0.1668
62318W        W 5256  12.652  24.030  22.168 -0.3328  0.2636 -0.5723
62319W        W 5257  11.653  22.655  19.890  0.1764 -0.1480 -0.0271
62320W        W 5258  11.450  24.963  20.351  0.0630 -0.2608  0.2962
62321W        W 5259  11.664  24.956  23.934 -0.2302 -0.0868  0.1961
62322W        W 5260  11.408  24.048  23.435  0.0681  0.1854 -0.1301
62323W        W 5261  11.686  25.370  20.455  0.0721  0.1867 -0.1586
62324W        W 5262  11.679  23.979  20.121  0.0745  0.4170  0.1765
62325W        W 5263  12.545  24.203  19.534 -0.2153  0.0308  0.0008
62326W        W 5264  13.786  27.081  22.455 -0.1496  0.0420 -0.1202
62327W        W 5265  13.486  24.010  21.203  0.0252  0.0497 -0.4528
62328W        W 5266  10.604  24.810  21.056  0.0381 -0.0093  0.2895
62329W        W 5267  10.065  23.666  19.736 -0.1833  0.0881 -0.2847
62330W        W 5268  11.282  24.949  22.056  0.0658 -0.2168  0.2404
62331W        W 5269  11.234  25.218  20.988  0.2095  0.0301 -0.2343
62332W        W 5270  12.535  25.001  23.434 -0.1358 -0.0674 -0.0183
62333W        W 5271  11.739  22.363  17.914 -0.2272 -0.3057  0.3290
62334W        W 5272  14.801  25.308  22.401  0.2794  0.2291  0.0796
62335W        W 5273  14.255  24.165  18.603 -0.0882  0.2369  0.1954
62336W        W 5274  13.062  25.441  21.315  0.1390  0.0773 -0.2570
62337W        W 5275  11.360  23.869  21.573 -0.0880  0.0428 -0.1399
62338W        W 5276  12.751  23.468  20.118  0.0491  0.3468  0.1826
62339W        W 5277  12.080  24.739  22.516  0.0332  0.1229  0.2508
62340W        W 5278  13.727  22.807  20.470  0.2926 -0.3228 -0.3316
62341W        W 5279  11.732  26.726  24.841 -0.0796  0.1952 -0.0639
62342W        W 5280  14.420  24.995  19.764  0.0293  0.1372  0.0721
62343W        W 5281  11.171  24.301  20.561 -0.1665 -0.0229 -0.3391
62344W        W 5282  11.818  24.096  21.602 -0.2003 -0.1210 -0.2088
62345W        W 5283  14.373  21.412  20.281 -0.1535 -0.0414 -0.1527
62346W        W 5284  10.318  25.440  18.237 -0.4141  0.1876  0.0267
62347W        W 5285  13.273  24.765  21.872  0.1454  0.1224  0.0201
62348W        W 5286  10.793  24.909  21.748 -0.1183 -0.1435 -0.1055
62349W        W 5287  12.028  24.293  22.073  0.1975  0.0015 -0.0417
62350W        W 5288  10.813  25.277  22.178  0.0855  0.1352  0.1233
62351W        W 5289  10.416  24.297  21.391  0.0143 -0.0064  0.0029
62352W        W 5290  15.655  23.265  19.453  0.1033 -0.1066  0.1247
62353W        W 5291  12.438  24.515  22.298  0.1047  0.1136  0.2020
62354W        W 5292  11.713  22.722  22.840  0.2506 -0.0411  0.1525
62355W        W 5293  11.065  23.185  21.969 -0.0028 -0.0103 -0.2301
62356W        W 5294  14.423  23.036  21.397 -0.3388  0.2092  0.1133
62357W        W 5295  11.790  24.701  23.075  0.1603  0.1409  0.0332
62358W        W 5296  10.321  22.681  23.019  0.1087  0.2500  0.1104
62359W        W 5297  13.203  23.681  20.142  0.0779  0.0026 -0.4233
62360W        W 5298  13.006  25.658  22.829  0.1720  0.0590  0.3164
62361W        W 5299  13.313  23.886  19.712 -0.0869  0.1569  0.0862
62362W        W 5300  13.148  26.003  23.163 -0.2552  0.2102 -0.2970
62363W        W 5301  10.920  24.350  21.522 -0.2857  0.1695  0.3420
62364W        W 5302  12.135  22.634  19.412 -0.0007 -0.2510  0.0933
62365W        W 5303  11.082  23.549  22.989 -0.4813  0.0634 -0.0826
62366W        W 5304  12.990  23.626  21.987  0.1667  0.2623 -0.1006
62367W        W 5305  14.395  26.620  23.233 -0.1897 -0.0888  0.2175
62368W        W 5306  12.525  23.419  21.142 -0.2033 -0.0737 -0.1849
62369W        W 5307  12.420  23.746  19.453 -0.0179 -0.3868  0.0470
62370W        W 5308  12.713  24.452  23.601  0.1228  0.2331  0.2447
62371W        W 5309  13.079  24.957  18.542  0.1499  0.0665  0.2470
62372W        W 5310  12.048  23.460  19.864  0.0953 -0.0206  0.0731
62373W        W 5311  15.289  25.741  20.952  0.0128  0.1069 -0.0609
62374W        W 5312  11.326  21.700  22.846  0.1161 -0.2239 -0.0311
62375W        W 5313  13.998  25.204  22.980  0.0550  0.0672  0.2704
62376W        W 5314  13.172  25.665  20.765 -0.3972 -0.1095 -0.0489
62377W        W 5315  12.023  24.274  19.379 -0.0336  0.0013 -0.1694
62378W        W 5316  12.818  23.190  21.985 -0.0104  0.0796 -0.0357
62379W        W 5317   9.759  24.584  22.872 -0.2954  0.2323 -0.2049
62380W        W 5318  14.533  24.138  22.118 -0.0500  0.1956  0.0540
62381W        W 5319  13.308  24.274  23.938 -0.0605  0.2685 -0.0313
62382W        W 5320  11.903  25.323  18.264 -0.0553  0.0760  0.2121
62383W        W 5321  14.049  21.818  21.078  0.0807 -0.1212  0.0217
62384W        W 5322  12.638  26.544  22.208  0.0188  0.1574  0.0755
62385W        W 5323  11.918  25.978  24.298 -0.0777  0.0139  0.1784
62386W        W 5324  11.119  24.519  19.630 -0.0386 -0.0787  0.0292
62387W        W 5325  10.291  25.817  23.446 -0.0021  0.3691  0.2139
62388W        W 5326  12.148  24.489  20.764 -0.0515  0.0242  0.3157
62389W        W 5327  12.667  25.474  20.023 -0.0704  0.2176  0.0910
62390W        W 5328  13.938  25.339  21.464 -0.0173  0.0506 -0.0800
62391W        W 5329  12.490  24.621  22.817  0.1140 -0.2292  0.1596
62392W        W 5330  13.992  25.475  22.277 -0.1286  0.1454  0.1088
62393W        W 5331  13.526  23.620  22.059  0.2143  0.0600 -0.0974
62394W        W 5332  13.984  22.808  19.739 -0.1538  0.2704 -0.3327
62395W        W 5333  12.272  21.847  20.263 -0.1635 -0.1554  0.1610
62396W        W 5334  12.308  25.220  22.456 -0.2960  0.1532 -0.0871
62397W        W 5335  10.809  22.698  21.836  0.0552 -0.4525 -0.0056
62398W        W 5336  10.523  25.127  18.699  0.0649 -0.0321  0.2245
62399W        W 5337  10.767  23.924  20.748  0.1644 -0.0626 -0.2855
62400W        W 5338  11.625  21.701  22.486 -0.2009 -0.2486 -0.0351
62401W        W 5339  11.266  22.577  23.003  0.1569  0.0477  0.3286
62402W        W 5340  10.239  21.960  21.925  0.0809 -0.1512 -0.1195
62403W        W 5341  12.066  22.819  21.081 -0.2424  0.0358  0.1340
62404W        W 5342  14.512  24.096  21.028  0.1011  0.0800 -0.1315
62405W        W 5343  12.498  23.545  22.198 -0.2456  0.0984 -0.0058
62406W        W 5344  10.357  21.042  21.509  0.1287  0.3788  0.2701
62407W        W 5345  15.019  25.363  21.213 -0.1202 -0.3972 -0.1458
62408W        W 5346  15.609  25.824  21.850  0.2711  0.3708  0.0536
62409W        W 5347  13.056  23.051  21.031 -0.0413  0.2842 -0.2076
62410W        W 5348  15.032  24.922  24.011 -0.3980 -0.0885  0.0661
62411W        W 5349   9.576  23.039  21.414 -0.1329 -0.1336  0.2010
62412W        W 5350  12.430  23.900  23.496  0.0031  0.1725 -0.0136
62413W        W 5351  11.336  23.791  22.544 -0.0463  0.1921  0.5756
62414W        W 5352  10.044  22.781  20.691 -0.1748 -0.0352 -0.0296
62415W        W 5353  12.279  22.915  22.820  0.2170 -0.0269  0.1876
62416W        W 5354  13.089  25.970  19.362 -0.0136  0.2107  0.0581
62417W        W 5355  12.137  24.628  19.804  0.0085  0.0007 -0.2803
62418W        W 5356  12.109  24.912  21.997 -0.1062  0.0667  0.0559
62419W        W 5357  10.454  24.768  22.670  0.0688  0.0319 -0.2331
62420W        W 5358  10.464  22.065  23.769 -0.0232 -0.0946  0.0319
62421W        W 5359  14.360  25.203  20.310 -0.3084 -0.0645  0.3763
62422W        W 5360  11.077  25.506  23.605 -0.0287 -0.0531  0.0492
62423W        W 5361  13.082  24.442  18.703 -0.1509 -0.0757  0.0142
62424W        W 5362  14.377  21.954  21.495  0.0506  0.3285  0.0533
62425W        W 5363  11.818  23.100  20.738 -0.0028  0.1046 -0.0561
62426W        W 5364  11.192  21.181  22.849 -0.2661  0.0178  0.0356
62427W        W 5365  10.586  23.178  23.064  0.0859  0.1783  0.0369
62428W        W 5366  13.925  25.698  22.801 -0.3948 -0.0235 -0.0972
62429W        W 5367  11.863  23.595  21.740  0.0338  0.4729 -0.2225
62430W        W 5368  12.700  22.292  18.282 -0.2099 -0.0418 -0.0563
62431W        W 5369  14.238  24.577  22.094 -0.0110  0.0267  0.2746
62432W        W 5370  10.533  23.163  21.801  0.2289 -0.0206 -0.1428
62433W        W 5371  12.597  23.507  20.635  0.1545 -0.1410 -0.0146
62434W        W 5372  10.576  24.420  23.756  0.0491  0.1855  0.0883
62435W        W 5373  13.566  26.004  20.908 -0.0353  0.0416 -0.2541
62436W        W 5374  13.122  24.759  23.661  0.2704  0.0687 -0.4549
62437W        W 5375  12.082  24.090  21.026  0.0063  0.1604  0.0481
62438W        W 5376  14.906  23.880  19.324  0.0775 -0.4059  0.0846
62439W        W 5377  13.478  25.662  22.509  0.2238 -0.2434  0.3262
62440W        W 5378  14.773  25.734  22.689 -0.0275 -0.0474 -0.3838
62441W        W 5379  10.772  25.955  21.975  0.0842 -0.0324 -0.0867
62442W        W 5380  13.309  24.357  23.304 -0.0026 -0.0187  0.1209
62443W        W 5381  11.462  20.270  21.882 -0.1568 -0.0745  0.1486
62444W        W 5382  12.442  24.927  20.675 -0.0087 -0.3339  0.0152
62445W        W 5383  11.696  25.088  21.662 -0.1992  0.3956  0.0287
62446W        W 5384  13.009  24.223  21.895  0.2434 -0.2402 -0.0561
62447W        W 5385  12.489  22.795  21.976 -0.2619  0.4056 -0.0458
62448W        W 5386  13.349  22.056  18.399  0.0955  0.5017 -0.2560
62449W        W 5387  13.276  25.215  20.938  0.2647 -0.0645 -0.1581
62450W        W 5388  13.699  26.447  20.671  0.1875  0.0028 -0.1529
62451W        W 5389  12.018  24.620  26.472  0.2440 -0.0378  0.3048
62452W        W 5390  10.106  23.633  24.769 -0.0862  0.0001  0.0633
62453W        W 5391  13.360  21.544  23.594 -0.1909 -0.1695  0.0915
62454W        W 5392  13.094  23.363  24.181  0.0730 -0.2225  0.2116
62455W        W 5393  10.465  23.184  24.518 -0.1155 -0.1997  0.0838
62456W        W 5394  12.347  26.664  24.852  0.1146 -0.1493 -0.4836
62457W        W 5395  12.607  22.029  26.523  0.1950  0.2393  0.1615
62458W        W 5396  14.353  25.362  25.274  0.2137 -0.2571 -0.1879
62459W        W 5397  13.879  24.239  25.464  0.2722  0.3315  0.0614
62460W        W 5398  12.593  24.290  23.154 -0.0085 -0.0668  0.1895
62461W        W 5399  14.051  23.565  26.144 -0.0131  0.2035 -0.0672
62462W        W 5400  14.091  25.252  26.715  0.1721  0.0764  0.1506
62463W        W 5401  12.298  22.146  23.934  0.3325 -0.1919  0.1695
62464W        W 5402  10.878  22.101  25.093  0.0707 -0.3283  0.1772
62465W        W 5403  13.684  24.303  24.952  0.2981  0.0548  0.3545
62466W        W 5404  11.876  24.255  24.581 -0.1435  0.0064 -0.1544
62467W        W 5405  12.421  21.228  26.327 -0.1021  0.1017 -0.0882
62468W        W 5406  12.866  22.769  23.852 -0.0172 -0.3151  0.0943
62469W        W 5407  12.749  26.643  24.616 -0.1615 -0.0818 -0.0078
62470W        W 5408  13.341  21.627  27.117  0.0752 -0.3168 -0.0910
62471W        W 5409  14.934  19.922  25.478  0.2051  0.0145  0.1341
62472W        W 5410  11.994  26.293  24.938 -0.0039  0.0561  0.0209
62473W        W 5411   9.338  22.494  24.109  0.1217  0.2961  0.0979
62474W        W 5412   9.507  23.820  25.077  0.0293  0.0121  0.0939
62475W        W 5413  12.866  23.437  26.621 -0.1354 -0.0023 -0.2075
62476W        W 5414  11.729  23.797  24.248  0.1392 -0.0327  0.0512
62477W        W 5415  14.154  23.944  25.006  0.1175  0.1233  0.0745
62478W        W 5416  11.747  26.542  27.406  0.2845  0.1408  0.2066
62479W        W 5417  12.603  26.084  25.971 -0.1251 -0.0149  0.1876
62480W        W 5418  15.418  23.295  26.844  0.1784 -0.1393 -0.1084
62481W        W 5419  11.122  24.475  23.699 -0.1754 -0.0795 -0.0476
62482W        W 5420  11.433  25.104  27.783  0.1035 -0.1353  0.1847
62483W        W 5421  12.860  26.141  24.573  0.1558 -0.2349  0.0726
62484W        W 5422  15.822  25.317  24.386  0.2702 -0.1298  0.0057
62485W        W 5423  13.819  25.629  25.336 -0.1518 -0.1183  0.1020
62486W        W 5424  12.058  25.503  29.110  0.3038  0.0705 -0.4348
62487W        W 5425  12.593  25.304  21.474  0.3313 -0.3438  0.0661
62488W        W 5426  11.983  24.695  27.005  0.0659  0.2550  0.3504
62489W        W 5427  12.490  25.041  26.998 -0.1449 -0.0772 -0.0678
62490W        W 5428  13.227  23.090  23.720 -0.2942 -0.2066 -0.1826
62491W        W 5429  10.530  23.429  25.459  0.0016  0.1121 -0.0996
62492W        W 5430  13.707  26.912  24.512 -0.1912  0.1296  0.0175
62493W        W 5431  12.808  24.994  24.390  0.2416  0.2261 -0.3540
62494W        W 5432  13.136  25.247  26.414  0.0379  0.1150  0.1300
62495W        W 5433  10.550  23.731  25.864  0.3882 -0.1853 -0.2843
62496W        W 5434  13.509  22.565  26.637 -0.1052  0.0767  0.2836
62497W        W 5435  12.020  25.672  21.198 -0.0285  0.2069 -0.1131
62498W        W 5436  12.723  24.835  23.918 -0.2647  0.1374  0.0020
62499W        W 5437  11.948  24.607  24.162  0.0039 -0.0594 -0.1035
62500W        W 5438  12.508  22.558  25.055  0.1689 -0.1193 -0.1859
62501W        W 5439  12.826  22.015  25.875  0.2702  0.0945  0.1184
62502W        W 5440  11.322  25.219  25.327 -0.0479  0.1226 -0.2020
62503W        W 5441  13.382  21.170  28.025 -0.1783 -0.0255 -0.0359
62504W        W 5442  15.318  23.340  25.035 -0.2246  0.0520 -0.1306
62505W        W 5443  11.551  23.178  24.358  0.0031 -0.3127 -0.1845
62506W        W 5444  11.324  23.490  25.077  0.0627 -0.1342  0.1664
62507W        W 5445  11.959  24.097  25.750  0.0308 -0.0424  0.2408
62508W        W 5446  10.638  22.736  24.681 -0.2270  0.0218  0.0603
62509W        W 5447  13.248  25.598  23.406 -0.1320  0.0633 -0.2044
62510W        W 5448  13.121  25.368  24.605  0.0341 -0.1814  0.1210
62511W        W 5449  13.853  24.234  23.246  0.1266  0.2016 -0.0178
62512W        W 5450  10.367  23.959  25.097  0.1469 -0.1609 -0.0449
62513W        W 5451  11.692  22.934  26.736 -0.1283  0.0160 -0.2232
62514W        W 5452  12.748  23.188  25.736  0.0078 -0.2331  0.0626
62515W        W 5453  10.782  22.560  23.098  0.0380 -0.2794  0.3732
62516W        W 5454  13.925  24.864  24.666  0.3521  0.0765 -0.0134
62517W        W 5455  11.135  24.440  26.610 -0.1120 -0.1726 -0.3232
62518W        W 5456  13.853  23.512  24.687  0.0047 -0.0996  0.1343
62519W        W 5457  12.826  25.703  26.622 -0.0928 -0.0277 -0.2566
62520W        W 5458  14.006  24.495  24.213 -0.0913  0.1503  0.3797
62521W        W 5459  12.703  25.717  23.230  0.1152 -0.1376  0.1896
62522W        W 5460  14.750  22.298  26.514 -0.1738 -0.0268 -0.2822
62523W        W 5461  14.592  21.521  25.773 -0.1594  0.2747 -0.1800
62524W        W 5462  11.249  26.006  24.514 -0.2838  0.2774  0.0223
62525W        W 5463  10.619  25.232  23.654 -0.2577 -0.1431  0.0624
62526W        W 5464  14.232  24.101  26.111 -0.0661 -0.0767 -0.0348
62527W        W 5465  13.366  23.719  23.847  0.1151  0.2318 -0.1222
62528W        W 5466  11.119  24.911  26.376  0.1796 -0.1807 -0.1735
62529W        W 5467  14.123  22.511  27.968  0.0005  0.3375  0.3554
62530W        W 5468  11.634  23.304  27.636  0.0833  0.0617 -0.1955
62531W        W 5469  11.285  25.660  25.694 -0.0940  0.0091  0.1091
62532W        W 5470  10.815  23.782  26.278  0.0668 -0.3484  0.2882
62533W        W 5471  10.073  24.742  24.187  0.0457 -0.0587 -0.0194
62534W        W 5472  11.473  23.084  24.853  0.0811 -0.0890  0.2531
62535W        W 5473  13.289  24.707  26.866 -0.3040  0.0515  0.1967
62536W        W 5474  13.220  23.048  22.745 -0.0581 -0.1043 -0.1914
62537W        W 5475  12.110  22.808  25.816 -0.0689  0.1877  0.0065
62538W        W 5476  13.059  21.620  24.436  0.1384 -0.0670  0.1621
62539W        W 5477  10.584  24.902  24.179 -0.1394 -0.2028 -0.4092
62540W        W 5478  12.897  25.210  23.657  0.2072  0.0238 -0.0338
62541W        W 5479  12.510  22.514  23.562  0.2105  0.2173  0.2089
62542W        W 5480  12.234  24.855  23.809 -0.0575  0.0382 -0.0067
62543W        W 5481  13.001  22.561  26.102 -0.1077  0.0710  0.0487
62544W        W 5482  10.720  22.776  23.874  0.0965  0.0202 -0.0566
62545W        W 5483  13.272  23.592  26.851 -0.3541  0.3388  0.0671
62546W        W 5484  11.133  22.630  24.941  0.1175  0.3206  0.0292
62547W        W 5485  13.521  23.397  26.048  0.0216  0.1808 -0.0477
62548W        W 5486  10.547  22.491  25.489 -0.1538  0.2125  0.1834
62549W        W 5487  12.581  23.015  25.257 -0.1000  0.0863 -0.2930
62550W        W 5488  11.073  21.484  23.939  0.1312  0.2440  0.0945
62551W        W 5489  12.095  23.892  24.922  0.1288 -0.1186 -0.1685
62552W        W 5490  14.546  22.416  25.197  0.0596 -0.2706  0.0117
62553W        W 5491  12.789  26.152  23.500 -0.1394  0.0585 -0.0079
62554W        W 5492  13.902  25.234  25.118 -0.0271 -0.1244  0.0102
62555W        W 5493  14.240  26.188  23.910  0.0776 -0.0098  0.0526
62556W        W 5494  12.395  21.547  25.944  0.0492 -0.1215 -0.0613
62557W        W 5495  10.423  24.051  24.574 -0.1802  0.1329 -0.3862
62558W        W 5496  12.206  24.935  25.747 -0.0994  0.2583 -0.1369
62559W        W 5497  13.165  24.830  25.365  0.0485  0.1756 -0.0383
62560W        W 5498  11.789  22.044  25.936  0.1813 -0.0546 -0.3399
62561W        W 5499  14.463  26.046  25.960  0.0103  0.1109  0.1846
62562W        W 5500  11.203  23.891  24.026 -0.0291 -0.0943  0.0869
62563W        W 5501  11.734  25.123  25.670  0.1596  0.1052 -0.4135
62564W        W 5502  14.815  21.641  23.783 -0.2134 -0.0809 -0.0825
62565W        W 5503  15.595  23.759  24.722  0.0871  0.1146 -0.0232
62566W        W 5504  12.903  25.780  25.658  0.1538  0.1109 -0.1062
62567W        W 5505  10.329  22.543  25.092  0.1022  0.0884 -0.1066
62568W        W 5506  13.573  25.599  24.886  0.1448  0.1827  0.2155
62569W        W 5507  10.774  24.414  23.326  0.2401 -0.2647  0.1001
62570W        W 5508  11.336  22.973  25.803  0.3147 -0.1439 -0.0920
62571W        W 5509  13.263  26.517  23.961 -0.2061  0.2309  0.0354
62572W        W 5510  13.972  22.952  25.346 -0.0336  0.2488 -0.0680
62573W        W 5511  12.791  22.172  26.968 -0.3136 -0.0541 -0.2336
62574W        W 5512  13.241  23.009  26.043 -0.4367 -0.1671  0.1087
62575W        W 5513  10.708  23.642  24.227  0.2397  0.0412 -0.3233
62576W        W 5514  11.495  24.576  26.981  0.0302 -0.0391 -0.0856
62577W        W 5515  13.129  22.846  25.416  0.1367 -0.4744  0.1701
62578W        W 5516  13.625  23.355  23.648  0.2467  0.0376 -0.1265
62579W        W 5517  13.806  24.761  26.752 -0.0642  0.0299 -0.1610
62580W        W 5518  13.779  23.029  24.848  0.1655  0.2266  0.0628
62581W        W 5519  12.452  22.638  24.092  0.2345 -0.3779  0.4302
62582W        W 5520  12.370  22.388  22.760 -0.1519 -0.1299  0.1721
62583W        W 5521  11.144  24.356  26.143 -0.0322  0.0450  0.0375
62584W        W 5522  13.353  24.308  25.548 -0.2075  0.1645  0.3005
62585W        W 5523  13.186  24.817  24.618 -0.0330  0.1360  0.2518
62586W        W 5524  11.971  22.960  24.802  0.2804 -0.1471 -0.0393
62587W        W 5525  14.177  25.279  23.884  0.0272  0.0842  0.4108
62588W        W 5526  10.568  24.646  26.825  0.2297 -0.0719 -0.0429
62589W        W 5527  13.095  23.562  25.227 -0.1571 -0.2786 -0.0435
62590W        W 5528  12.451  24.457  24.084  0.0065 -0.2844  0.0225
62591W        W 5529  13.528  23.345  25.159  0.0610 -0.2114  0.0951
62592W        W 5530  12.829  23.534  23.716 -0.1825  0.1509 -0.2498
62593W        W 5531  13.235  22.065  26.103  0.0032 -0.0735  0.0954
62594W        W 5532   9.779  25.942  24.715  0.1646  0.2846 -0.1047
62595W        W 5533  12.923  23.930  25.658 -0.0138 -0.0050 -0.1337
62596W        W 5534  13.358  20.348  26.095 -0.0617 -0.3573  0.2127
62597W        W 5535  14.393  22.679  26.534  0.1956  0.0859  0.1550
62598W        W 5536  16.024  22.556  26.169  0.2614 -0.2939  0.1186
62599W        W 5537  12.138  24.075  24.216 -0.2304  0.3000 -0.1645
62600W        W 5538  13.462  21.512  25.412  0.0291  0.0045  0.0868
62601W        W 5539  11.817  23.722  22.868  0.3182  0.1407  0.2593
62602W        W 5540  14.717  20.834  27.310  0.0355  0.0089 -0.0792
62603W        W 5541  12.417  24.174  25.383  0.1308 -0.2042  0.1461
62604W        W 5542  11.598  25.075  26.674 -0.0260 -0.1898 -0.2843
62605W        W 5543  12.755  24.353  26.977 -0.3269 -0.1172  0.1876
62606W        W 5544  11.921  25.410  24.214 -0.0669 -0.2517  0.0827
62607W        W 5545  12.962  23.464  27.636  0.0831 -0.3333  0.0145
62608W        W 5546  12.356  24.308  24.609  0.0787  0.0635  0.1122
62609W        W 5547  10.948  26.116  24.897 -0.0720 -0.1075  0.2696
62610W        W 5548  11.077  24.114  23.004  0.0672 -0.3643  0.0934
62611W        W 5549  11.459  20.785  25.325  0.3040  0.0527 -0.1416
62612W        W 5550  14.169  23.783  25.571 -0.0978 -0.0068  0.0437
62613W        W 5551  13.761  26.466  23.337  0.1620 -0.1454  0.0238
62614W        W 5552  13.146  23.490  25.708  0.0348  0.1079 -0.2687
62615W        W 5553  11.391  25.143  24.392 -0.1164 -0.1504  0.0098
62616W        W 5554  13.767  21.572  24.964  0.0160 -0.4427  0.1898
62617W        W 5555  12.203  25.390  26.074 -0.0589 -0.1851  0.2014
62618W        W 5556  13.067  22.885  21.651 -0.3775 -0.1785  0.2191
62619W        W 5557   9.798  24.531  25.555 -0.0795  0.1438 -0.3893
62620W        W 5558  11.813  22.240  25.431 -0.0057 -0.3514 -0.1348
62621W        W 5559  14.359  25.382  23.335  0.1816 -0.0565  0.3241
62622W        W 5560  12.146  23.195  24.262  0.0046  0.3933 -0.0643
62623W        W 5561  13.618  21.642  25.980  0.2588  0.1725  0.0166
62624W        W 5562  11.920  25.181  27.064 -0.2281 -0.0309  0.1411
62625W        W 5563  12.154  24.219  26.246  0.2939  0.2578 -0.0562
62626W        W 5564  13.347  23.071  23.211  0.0395 -0.0057 -0.0344
62627W        W 5565  13.403  23.280  24.569 -0.4507  0.0596 -0.1411
62628W        W 5566  11.553  24.379  25.665  0.1447 -0.2978  0.2693
62629W        W 5567   9.206  22.939  24.425  0.0903  0.1006  0.2825
62630W        W 5568  13.072  23.164  24.943  0.3674 -0.1002 -0.2426
62631W        W 5569  10.891  24.123  24.914  0.3211 -0.0769 -0.0744
62632W        W 5570  11.605  23.884  24.882 -0.0557 -0.0405 -0.3146
62633W        W 5571  13.418  25.484  27.099 -0.0409 -0.1792  0.1588
62634W        W 5572  11.083  23.348  24.143  0.0881 -0.1591 -0.1475
62635W        W 5573  12.647  24.907  25.522 -0.1712 -0.1063 -0.2847
62636W        W 5574  13.527  23.744  27.297  0.0311 -0.2997  0.0753
62637W        W 5575  13.097  22.842  26.527 -0.0093  0.1982 -0.1231
62638W        W 5576  12.054  22.420  26.147 -0.1969  0.2519 -0.2537
62639W        W 5577  11.501  23.745  25.506  0.2923 -0.1812 -0.0037
62640W        W 5578  13.539  22.001  25.662  0.0516 -0.0503  0.0654
62641W        W 5579  12.970  23.734  24.630  0.0046 -0.1247 -0.3262
62642W        W 5580  12.564  23.604  25.548 -0.0946  0.0949 -0.2732
62643W        W 5581  11.716  22.803  27.695 -0.2429 -0.0033  0.0833
62644W        W 5582  14.009  20.983  27.039 -0.2777 -0.1755 -0.0164
62645W        W 5583  14.931  25.960  23.789  0.1196  0.1467 -0.0771
62646W        W 5584  12.579  21.008  26.825 -0.2985  0.1167 -0.1251
62647W        W 5585  11.101  24.627  24.167  0.0480  0.0930  0.1156
62648W        W 5586  12.006  25.346  24.759 -0.1929  0.0082  0.3371
62649W        W 5587  11.534  25.665  24.380 -0.1944  0.1313  0.0446
62650W        W 5588  13.736  23.851  25.844 -0.0771  0.1063  0.1695
62651W        W 5589  11.924  24.669  25.400  0.0107  0.0430 -0.3729
62652W        W 5590  10.758  26.259  24.339 -0.0177 -0.0738  0.0377
62653W        W 5591  12.270  23.246  25.602  0.1621 -0.1973 -0.1639
62654W        W 5592  13.319  22.591  23.827  0.3720  0.1035 -0.1229
62655W        W 5593  11.818  25.810  23.842 -0.0980 -0.0025 -0.1221
62656W        W 5594  11.526  22.352  25.016  0.3828  0.0346 -0.1741
62657W        W 5595  14.786  22.879  26.210  0.2667  0.1692  0.3437
62658W        W 5596  12.600  25.346  24.044 -0.1121  0.0679  0.0294
62659W        W 5597  14.230  21.753  27.649  0.0792 -0.1002  0.3476
62660W        W 5598  12.109  22.737  25.306  0.0891 -0.2196 -0.1773
62661W        W 5599  13.723  25.947  23.361  0.2766  0.0257  0.3078
62662W        W 5600  12.036  21.959  26.573 -0.1528  0.0027  0.1602
62663W        W 5601  13.241  26.314  27.304  0.0368 -0.0633  0.0294
62664W        W 5602  11.532  22.763  25.339 -0.0744  0.0283 -0.1653
62665W        W 5603  11.810  23.421  24.809 -0.1744  0.0804 -0.1412
62666W        W 5604  10.675  23.488  24.953  0.1680  0.3588 -0.1214
62667W        W 5605  11.942  24.561  25.953  0.3951  0.1902  0.0678
62668W        W 5606  15.057  25.467  24.783  0.2107  0.3588  0.3337
62669W        W 5607  12.828  26.623  24.140 -0.0638  0.1075 -0.0607
62670W        W 5608  13.065  24.105  25.164  0.0506 -0.2489  0.0688
62671W        W 5609  12.148  25.343  25.522 -0.2313  0.0217  0.1160
62672W        W 5610  13.565  22.713  25.214  0.1420  0.0965 -0.3423
62673W        W 5611  12.300  24.995  24.273  0.1946  0.3295 -0.0635
62674W        W 5612  11.489  24.658  24.416 -0.0107 -0.2980  0.5186
62675W        W 5613  12.838  21.666  26.261  0.0421 -0.2852  0.1491
62676W        W 5614  13.855  22.893  24.364 -0.1743  0.0681 -0.0027
62677W        W 5615  12.698  23.659  24.217 -0.2001  0.0155 -0.1070
62678W        W 5616  13.122  21.625  25.796  0.1245 -0.0775 -0.0867
62679W        W 5617  12.324  22.062  25.148 -0.4476 -0.1481 -0.2046
62680W        W 5618  12.234  22.857  26.734 -0.2564 -0.3865 -0.1407
62681W        W 5619  12.007  22.278  27.485  0.0885 -0.0128 -0.1922
62682W        W 5620  14.109  24.577  26.087 -0.1077  0.0519 -0.1518
62683W        W 5621  13.620  23.483  22.998 -0.0994 -0.0997  0.0446
62684W        W 5622  14.686  21.146  25.069  0.1668  0.2772 -0.3702
62685W        W 5623  13.752  26.242  23.828  0.0381  0.3114 -0.0889
62686W        W 5624  12.676  23.322  24.756  0.1513  0.1115 -0.0364
62687W        W 5625  11.631  22.777  26.171  0.1374 -0.0011 -0.0720
62688W        W 5626  14.267  23.028  26.209  0.0037  0.2289 -0.0307
62689W        W 5627  12.027  21.752  23.854 -0.0540 -0.2391  0.2229
62690W        W 5628  14.150  22.246  26.525  0.2937  0.1795  0.0284
62691W        W 5629  13.081  26.172  22.657  0.0902  0.1879  0.1314
62692W        W 5630  13.651  24.720  25.251  0.2854  0.4926 -0.1015
62693W        W 5631  12.190  23.563  23.918  0.1823  0.2220  0.5005
62694W        W 5632  11.075  22.640  25.428 -0.2664  0.1302 -0.0698
62695W        W 5633  12.675  25.859  28.475  0.0879 -0.1186  0.0268
62696W        W 5634  11.064  22.535  23.541  0.1690 -0.1537  0.0391
62697W        W 5635  11.556  24.278  22.936  0.1446  0.1179 -0.4094
62698W        W 5636  13.520  23.148  25.601 -0.0168  0.0890  0.1678
62699W        W 5637  14.753  24.194  26.851  0.0336 -0.3634  0.1844
62700W        W 5638  12.507  23.066  23.854 -0.0757  0.2647  0.0927
62701W        W 5639  14.863  23.055  24.391  0.1205  0.2556  0.0341
62702W        W 5640  11.720  25.554  25.325 -0.3154 -0.0998 -0.0230
62703W        W 5641  13.635  21.336  26.829 -0.1911 -0.2077 -0.1109
62704W        W 5642  11.563  26.801  25.626  0.0438  0.1317 -0.2004
62705W        W 5643  11.941  23.781  26.618  0.2645  0.1329  0.0337
62706W        W 5644  12.212  25.801  25.810  0.1005  0.0606 -0.4443
62707W        W 5645  14.030  22.105  25.379 -0.0919  0.0626  0.0138
62708W        W 5646  13.590  24.298  26.045 -0.1328  0.2848  0.0138
62709W        W 5647  11.595  24.136  26.110 -0.1945  0.2554  0.1839
62710W        W 5648  15.215  21.945  24.453 -0.1765 -0.2072 -0.2542
62711W        W 5649  12.204  24.202  26.801  0.0013 -0.0106  0.2599
62712W        W 5650  12.853  23.603  26.110  0.0003 -0.0538 -0.0756
62713W        W 5651  13.583  25.205  26.720  0.0030  0.3666  0.0400
62714W        W 5652  14.455  23.442  24.588  0.1054 -0.1905 -0.1101
62715W        W 5653  12.007  26.173  26.604 -0.0942  0.4847 -0.0506
62716W        W 5654  11.996  21.530  26.302  0.1507 -0.5074  0.1330
62717W        W 5655  13.273  23.870  26.058 -0.0414 -0.0865  0.0150
62718W        W 5656  13.427  23.823  25.439  0.0670  0.0810 -0.0430
62719W        W 5657  11.935  21.880  24.844 -0.3532  0.0616  0.0948
62720W        W 5658  11.153  25.057  23.927  0.1035 -0.1802 -0.1226
62721W        W 5659  11.640  24.571  28.490  0.0448  0.4573 -0.0396
62722W        W 5660  12.072  22.992  28.132  0.0214 -0.0218 -0.2217
62723W        W 5661  10.858  25.972  25.588 -0.1874 -0.0796  0.0234
62724W        W 5662  13.404  25.063  24.965 -0.1883 -0.1461  0.1059
62725W        W 5663  12.840  25.026  24.891  0.0494  0.2096  0.0842
62726W        W 5664  13.597  24.968  27.188 -0.2092 -0.1733  0.1716
62727W        W 5665  11.999  22.731  24.354  0.0880  0.2766  0.3206
62728W        W 5666  12.872  26.563  26.075 -0.2798 -0.1432  0.2278
62729W        W 5667  12.035  25.526  22.687  0.0495 -0.3999 -0.0306
62730W        W 5668  13.404  27.185  24.220 -0.0369  0.2335 -0.0586
62731W        W 5669  11.766  25.532  25.896 -0.0927  0.0359  0.1052
62732W        W 5670  13.266  24.310  27.172 -0.1110 -0.0039 -0.0479
62733W        W 5671  13.644  22.477  24.153 -0.1110 -0.1125  0.2299
62734W        W 5672  15.159  23.780  24.041  0.1739 -0.0429  0.0905
62735W        W 5673  14.171  23.717  24.271 -0.0139  0.0967  0.0660
62736W        W 5674  13.510  25.208  25.461 -0.4454  0.1826 -0.0446
62737W        W 5675  13.021  24.321  26.013 -0.0776  0.0203  0.1090
62738W        W 5676  12.164  22.721  22.409 -0.2502  0.1842 -0.0359
62739W        W 5677  11.816  22.484  26.589 -0.1737 -0.0803  0.0860
62740W        W 5678  14.146  22.407  27.447 -0.1890  0.2080 -0.3300
62741W        W 5679  12.871  25.597  27.077 -0.2184 -0.0278 -0.6635
62742W        W 5680  13.210  26.479  23.493 -0.0778 -0.0880 -0.1241
62743W        W 5681   9.426  23.594  25.501 -0.1472 -0.0311 -0.0967
62744W        W 5682  12.371  24.820  26.220  0.1102 -0.1223 -0.0368
62745W        W 5683  14.581  21.868  25.112 -0.2191  0.1102  0.2261
62746W        W 5684  11.801  23.938  23.654  0.0507 -0.1766 -0.1156
62747W        W 5685  12.422  23.882  25.923  0.1581 -0.0334  0.2826
62748W        W 5686  11.839  25.818  24.806  0.0121  0.2457  0.1310
62749W        W 5687  11.320  25.379  26.131  0.0289  0.0295  0.1402
62750W        W 5688  12.854  24.418  25.508 -0.0884 -0.3042 -0.0024
62751W        W 5689  11.777  23.160  25.316  0.4601  0.1028 -0.0448
62752W        W 5690  13.716  22.802  23.352 -0.2012  0.2492  0.1635
62753W        W 5691  13.046  22.603  26.960  0.1810 -0.1219 -0.0328
62754W        W 5692  13.434  20.745  25.307  0.3172 -0.1821  0.0495
62755W        W 5693  11.930  24.181  23.255 -0.3216 -0.0020 -0.1146
62756W        W 5694  13.297  22.841  24.253 -0.4021 -0.1578  0.3176
62757W        W 5695  12.751  23.032  26.837  0.2192 -0.1496  0.3842
62758W        W 5696  13.320  23.248  26.447 -0.2028 -0.1936  0.1373
62759W        W 5697  13.968  23.432  22.035  0.0157 -0.6100 -0.0851
62760W        W 5698  14.083  23.908  26.644  0.0055  0.1955 -0.0102
62761W        W 5699  13.033  24.758  23.187 -0.0667  0.3717  0.4791
62762W        W 5700  14.226  26.453  27.209  0.0766 -0.2092  0.2550
62763W        W 5701  11.179  22.715  26.371 -0.1562  0.1396  0.1404
62764W        W 5702  13.308  26.003  23.710  0.1353 -0.0880 -0.0479
62765W        W 5703  12.743  25.066  25.984 -0.1837 -0.1756  0.1104
62766W        W 5704  13.651  23.733  26.432  0.1307  0.0009  0.1466
62767W        W 5705  12.763  26.209  26.492  0.1489  0.1011  0.2064
62768W        W 5706  11.403  22.241  26.237  0.1158 -0.2853  0.0734
62769W        W 5707  14.801  24.975  24.479 -0.4450  0.0589 -0.2853
62770W        W 5708  14.724  22.943  23.889  0.1538  0.1744 -0.1226
62771W        W 5709  12.064  25.556  23.239 -0.1141 -0.2141 -0.0011
62772W        W 5710  14.800  25.256  25.268 -0.0524  0.3483  0.0063
62773W        W 5711  14.791  26.209  25.161  0.1219 -0.1052 -0.1807
62774W        W 5712  12.372  23.359  26.038 -0.2273 -0.2863 -0.0198
62775W        W 5713  14.118  24.555  25.022 -0.3171 -0.2745 -0.1181
62776W        W 5714  14.982  24.172  26.325 -0.0819  0.1131 -0.2866
62777W        W 5715  12.817  22.253  25.324  0.1237 -0.2948  0.1003
62778W        W 5716  12.275  23.616  24.498  0.1423 -0.0606 -0.0759
62779W        W 5717  10.446  26.361  25.104  0.0149  0.1473  0.0762
62780W        W 5718  15.074  22.434  24.591  0.2413 -0.3097  0.0717
62781W        W 5719  13.949  21.431  25.461 -0.2679 -0.1162  0.1623
62782W        W 5720  11.827  25.473  22.022 -0.1750  0.1172 -0.0925
62783W        W 5721  15.963  21.114  25.860  0.2872  0.0128  0.2100
62784W        W 5722  12.898  24.817  26.557 -0.0394 -0.0956 -0.2934
62785W        W 5723  13.187  26.032  26.840 -0.1089 -0.1499 -0.1965
62786W        W 5724  12.181  23.895  22.376 -0.1213 -0.0802  0.3394
62787W        W 5725  12.426  24.431  25.798 -0.1701 -0.0656  0.0305
62788W        W 5726  12.439  25.443  25.080 -0.1583  0.0462  0.2181
62789W        W 5727  10.801  25.375  24.158 -0.0765  0.0208 -0.4797
62790W        W 5728  13.249  26.074  24.201  0.2657  0.2666  0.1557
62791W        W 5729  11.244  23.555  24.587 -0.1225  0.0069 -0.3065
62792W        W 5730  12.939  24.523  24.222  0.1487 -0.1712  0.2167
62793W        W 5731  12.275  22.308  25.650 -0.0464  0.0396  0.2757
62794W        W 5732  14.950  22.496  23.799  0.2834 -0.1660 -0.1642
62795W        W 5733  13.247  22.387  25.666  0.0266 -0.2000  0.0818
62796W        W 5734  11.979  23.366  26.901  0.0095  0.0727 -0.5110
62797W        W 5735   9.620  24.576  23.994  0.2194 -0.1127  0.4291
62798W        W 5736  11.752  24.574  23.615 -0.2456  0.2362  0.0785
62799W        W 5737  11.081  23.964  25.765 -0.1394  0.2409 -0.0781
62800W        W 5738  14.812  21.002  25.548  0.1771  0.2943  0.0343
62801W        W 5739  12.378  23.367  26.554  0.4091 -0.3810 -0.0253
62802W        W 5740  10.574  24.621  24.763 -0.0447  0.3262 -0.2367
62803W        W 5741  11.688  21.739  25.389  0.0538  0.0233 -0.0407
62804W        W 5742  13.869  24.972  24.069 -0.1935  0.1904 -0.0173
62805W        W 5743  12.148  21.866  25.571  0.3135  0.2066  0.0089
62806W        W 5744  10.905  20.504  25.987 -0.0438 -0.2555  0.0627
62807W        W 5745  12.802  24.155  24.483 -0.2919  0.1973 -0.0921
62808W        W 5746  12.393  23.041  23.334 -0.1519  0.1641  0.3226
62809W        W 5747  12.909  20.730  25.571 -0.1265  0.1099  0.2101
62810W        W 5748  13.237  24.895  28.062  0.5680 -0.0514  0.0121
62811W        W 5749  10.996  23.372  22.521  0.0130 -0.2256  0.0194
62812W        W 5750  12.902  23.428  27.136 -0.1164  0.0174  0.0015
62813W        W 5751  14.147  21.965  27.233 -0.2037  0.0532  0.1347
62814W        W 5752   9.973  23.283  24.462  0.0590  0.1807 -0.2734
62815W        W 5753  12.252  23.281  25.074 -0.0422  0.1010 -0.0231
62816W        W 5754  11.410  25.525  24.906  0.2563  0.1687  0.5541
62817W        W 5755  13.666  27.220  22.921  0.1896 -0.0675  0.2324
62818W        W 5756  14.007  23.784  27.109 -0.1028 -0.0416  0.0895
62819W        W 5757  13.088  25.232  27.402 -0.4173 -0.1420 -0.1617
62820W        W 5758  10.748  23.119  26.704 -0.0295 -0.1078  0.0029
62821W        W 5759  11.999  22.462  24.851 -0.2541 -0.0943  0.0267
62822W        W 5760  13.779  23.000  27.236 -0.2122 -0.3379  0.0580
62823W        W 5761  15.044  25.498  23.801  0.0832  0.2230  0.3757
62824W        W 5762  14.232  21.453  25.056 -0.0145 -0.0844 -0.0576
62825W        W 5763  12.779  24.047  23.865 -0.0988 -0.0104  0.1582
62826W        W 5764  11.377  21.781  25.792 -0.0301  0.0908  0.2880
62827W        W 5765  12.619  24.351  26.291 -0.0675 -0.1286  0.2303
62828W        W 5766  14.273  23.184  25.677 -0.1243 -0.1303  0.2153
62829W        W 5767  12.614  21.237  25.102 -0.1159  0.0949 -0.4523
62830W        W 5768  13.046  21.167  25.351  0.0449 -0.0146  0.0934
62831W        W 5769  13.129  25.440  24.045  0.0012  0.2191 -0.0018
62832W        W 5770  11.254  24.163  25.292  0.0795  0.2503 -0.3540
62833W        W 5771  12.074  24.504  24.969 -0.0857 -0.1375  0.1884
62834W        W 5772  12.551  23.650  27.434 -0.0701  0.0084  0.0776
62835W        W 5773  13.115  24.789  25.846 -0.0160  0.1347  0.1509
62836W        W 5774  14.531  23.899  26.431  0.2012 -0.1569 -0.1015
62837W        W 5775   9.766  23.347  25.054  0.1254  0.2285  0.0108
62838W        W 5776  14.738  23.843  24.427 -0.0545 -0.4182  0.0857
62839W        W 5777  12.330  26.419  26.142 -0.0201  0.0123 -0.0089
62840W        W 5778  13.848  24.345  26.447 -0.3807 -0.0114  0.3216
62841W        W 5779  13.086  25.819  27.487  0.1290  0.0672 -0.2184
62842W        W 5780  13.387  22.767  24.745 -0.0292 -0.2644 -0.0811
62843W        W 5781  12.331  20.457  25.702 -0.1990 -0.1704 -0.1758
62844W        W 5782  11.995  23.638  25.350  0.3431  0.0588 -0.2653
62845W        W 5783  12.725  24.452  24.962 -0.2807 -0.2143 -0.2621
62846W        W 5784  12.909  25.338  25.276 -0.0123 -0.4654 -0.0659
62847W        W 5785  12.513  21.515  24.061 -0.0858 -0.1434  0.1726
62848W        W 5786  12.772  22.265  24.633 -0.0333 -0.1004 -0.3362
62849W        W 5787  12.153  23.875  27.633  0.4383  0.0662 -0.0358
62850W        W 5788  13.113  25.301  25.770  0.2788  0.2080 -0.0283
62851W        W 5789  13.058  23.389  31.118 -0.1048 -0.1017 -0.2652
62852W        W 5790  11.511  22.910  28.484 -0.0376 -0.0550 -0.3976
62853W        W 5791  12.623  22.554  27.746 -0.0292 -0.0511 -0.0011
62854W        W 5792  14.266  24.293  27.102  0.2329  0.1258 -0.1381
62855W        W 5793  11.085  23.041  28.691  0.2033 -0.5354  0.0311
62856W        W 5794  13.914  23.451  27.522 -0.0822  0.1906  0.2229
62857W        W 5795  12.608  22.390  29.220 -0.0687 -0.3091  0.1824
62858W        W 5796  14.254  23.859  31.107  0.3037 -0.2428  0.2102
62859W        W 5797  15.644  25.242  29.275 -0.1355  0.0455  0.2052
62860W        W 5798  13.774  23.144  26.402  0.1536  0.3046 -0.3197
62861W        W 5799  13.997  22.054  29.465  0.0285 -0.4820 -0.0436
62862W        W 5800  11.695  24.898  31.181 -0.0109  0.1561 -0.0304
62863W        W 5801  12.756  22.052  27.799 -0.0098 -0.1733 -0.0271
62864W        W 5802  11.682  23.247  29.587 -0.0189  0.1789  0.1522
62865W        W 5803  16.337  22.845  27.199 -0.3898 -0.2376 -0.2343
62866W        W 5804  10.734  23.432  28.054  0.0250 -0.4063  0.0720
62867W        W 5805  11.418  23.622  29.318 -0.0821 -0.0280  0.0274
62868W        W 5806  12.214  21.684  28.769  0.0244 -0.0914  0.2593
62869W        W 5807  14.139  23.827  27.938 -0.1449 -0.0726 -0.0330
62870W        W 5808  12.868  23.461  29.018 -0.1866 -0.3711  0.1616
62871W        W 5809  14.798  22.915  29.835  0.2382 -0.1018  0.0985
62872W        W 5810  12.919  24.382  27.480 -0.0743 -0.3266 -0.3145
62873W        W 5811  10.740  23.672  27.199 -0.1412  0.3322  0.0229
62874W        W 5812  10.559  23.125  29.009 -0.0767  0.0371 -0.1398
62875W        W 5813  12.057  22.594  29.392 -0.2201 -0.1016 -0.0533
62876W        W 5814  14.917  23.760  28.469  0.4074  0.1668 -0.0139
62877W        W 5815  14.473  23.227  28.721  0.0720 -0.1034 -0.0980
62878W        W 5816  12.315  25.283  30.051  0.2101  0.2511 -0.4831
62879W        W 5817  13.988  24.577  29.309 -0.0656 -0.1463  0.2265
62880W        W 5818  15.547  20.958  29.304 -0.1651 -0.1476  0.1704
62881W        W 5819   9.868  23.439  28.767  0.1470  0.0461 -0.0823
62882W        W 5820  11.922  24.710  29.047  0.1288 -0.3186 -0.1906
62883W        W 5821  13.675  24.386  29.754 -0.2153 -0.2895 -0.2481
62884W        W 5822  14.679  25.728  27.255 -0.2019 -0.0358  0.0490
62885W        W 5823  14.067  23.962  30.102  0.1645 -0.2958  0.2126
62886W        W 5824  13.099  25.798  30.239  0.0065 -0.1287 -0.1168
62887W        W 5825  12.236  22.134  28.371  0.2473 -0.1987 -0.0307
62888W        W 5826  12.067  26.063  30.280 -0.1895 -0.0856 -0.0098
62889W        W 5827  12.962  24.430  30.264 -0.2431 -0.0945  0.1200
62890W        W 5828  12.895  23.444  30.217  0.2335  0.1899  0.4153
62891W        W 5829  14.147  24.656  28.141 -0.2429  0.2087  0.2357
62892W        W 5830  12.665  24.371  28.071  0.3902  0.1793  0.1604
62893W        W 5831  14.646  24.136  28.177 -0.0112 -0.3567 -0.1576
62894W        W 5832  12.556  23.755  30.977 -0.2434  0.0749 -0.0805
62895W        W 5833  11.595  24.276  28.925  0.0278  0.2498  0.2721
62896W        W 5834  14.395  22.190  29.755  0.3241  0.0541  0.2533
62897W        W 5835  13.040  24.714  28.460  0.0964 -0.2120  0.0209
62898W        W 5836  14.282  23.380  26.555 -0.0254 -0.2403 -0.1325
62899W        W 5837  13.356  22.053  26.872  0.1109  0.3883  0.1679
62900W        W 5838  13.952  21.869  28.544  0.1182 -0.0314 -0.0624
62901W        W 5839  14.377  20.900  29.046 -0.0341 -0.3263 -0.2292
62902W        W 5840  13.378  25.542  29.703 -0.0683  0.0946 -0.0496
62903W        W 5841  12.681  21.424  27.988 -0.2068 -0.0784  0.0765
62904W        W 5842  15.389  23.396  31.396  0.2418  0.2886 -0.3009
62905W        W 5843  13.809  21.867  26.841 -0.0305 -0.1332 -0.1477
62906W        W 5844  16.005  23.011  28.796  0.2047 -0.2133  0.1268
62907W        W 5845  12.383  24.141  30.257  0.2813 -0.0251 -0.2693
62908W        W 5846  12.169  22.323  28.981  0.0435  0.2203 -0.0267
62909W        W 5847  13.690  23.148  28.265 -0.5750  0.0988  0.0398
62910W        W 5848  15.034  24.118  27.831  0.0979 -0.2025 -0.2774
62911W        W 5849  12.584  25.012  29.680 -0.1213 -0.0319 -0.1718
62912W        W 5850  12.133  21.270  27.112 -0.2455  0.1378 -0.1292
62913W        W 5851  12.089  24.457  29.920 -0.0797 -0.0335 -0.0841
62914W        W 5852  12.877  22.682  29.995  0.2379  0.1237 -0.0738
62915W        W 5853  11.311  21.253  27.456  0.1907 -0.0529  0.0130
62916W        W 5854  15.156  22.846  30.733  0.0465 -0.2262 -0.0348
62917W        W 5855  11.807  25.157  29.980  0.1154 -0.0852  0.0657
62918W        W 5856  14.657  23.179  28.092 -0.2145 -0.0337  0.2050
62919W        W 5857  13.649  24.608  27.826  0.1411  0.1160  0.3402
62920W        W 5858  15.075  23.647  29.329 -0.1647 -0.1691 -0.2363
62921W        W 5859  14.378  24.360  26.539 -0.0630  0.2410 -0.0667
62922W        W 5860  15.027  23.478  27.983  0.0973  0.2478  0.2953
62923W        W 5861  13.990  22.595  30.589  0.0969 -0.0586  0.1782
62924W        W 5862  12.901  24.805  27.194 -0.1115 -0.3473  0.1015
62925W        W 5863  13.761  25.065  28.171  0.0454 -0.0527 -0.1605
62926W        W 5864  15.308  24.689  31.176  0.1718  0.4234  0.2945
62927W        W 5865  13.831  22.961  25.921  0.1447  0.0009 -0.2824
62928W        W 5866  12.271  24.090  29.664  0.1508 -0.1042 -0.0580
62929W        W 5867  14.909  23.403  28.904  0.0275 -0.0174 -0.0906
62930W        W 5868  12.769  25.482  29.999 -0.0051 -0.0220 -0.3003
62931W        W 5869  12.609  25.761  29.019  0.0868  0.1144 -0.2285
62932W        W 5870  11.193  25.266  29.299 -0.2622  0.0979  0.3717
62933W        W 5871  11.302  23.978  27.793 -0.0970 -0.2581 -0.1281
62934W        W 5872  11.835  22.867  29.840 -0.0427 -0.1571 -0.1337
62935W        W 5873  12.178  25.974  29.261  0.2008  0.3764 -0.2169
62936W        W 5874  13.291  22.649  28.138  0.1109 -0.0146 -0.1022
62937W        W 5875  12.730  23.075  28.746  0.0553  0.1091 -0.1218
62938W        W 5876  15.078  23.206  28.403 -0.1669 -0.1759 -0.0439
62939W        W 5877  11.643  24.132  28.256  0.1358 -0.5082  0.0238
62940W        W 5878  14.318  25.100  28.900 -0.1705 -0.2725 -0.2554
62941W        W 5879  13.602  22.447  27.769  0.1508  0.2260 -0.1892
62942W        W 5880  13.670  24.601  28.383  0.0806  0.0960 -0.0519
62943W        W 5881  11.466  23.091  29.044  0.1982  0.3058  0.1106
62944W        W 5882  12.603  22.771  28.277 -0.0464 -0.1089 -0.2191
62945W        W 5883  13.625  22.195  28.247  0.0412  0.0156  0.0430
62946W        W 5884  11.341  21.320  28.533 -0.0350 -0.2898  0.0210
62947W        W 5885  14.842  23.206  31.367  0.1072 -0.1070 -0.0526
62948W        W 5886  12.590  21.556  27.197  0.2546  0.4437  0.1193
62949W        W 5887  13.366  23.646  28.252  0.2095  0.0760  0.1523
62950W        W 5888  12.527  22.669  27.036 -0.1381  0.0372 -0.1284
62951W        W 5889   9.988  25.890  27.472  0.1119 -0.0114 -0.0634
62952W        W 5890  15.541  23.749  31.937 -0.1176  0.1598 -0.0810
62953W        W 5891  12.371  24.437  27.700 -0.2309  0.4032 -0.0883
62954W        W 5892  14.954  26.178  29.602 -0.1109  0.0425  0.1015
62955W        W 5893  14.901  25.902  27.805 -0.0221 -0.1613 -0.0925
62956W        W 5894  12.187  22.759  27.475 -0.2087  0.1955  0.0435
62957W        W 5895  11.480  21.637  28.136  0.0180 -0.0989  0.1029
62958W        W 5896  11.089  27.385  29.049  0.1468  0.1182  0.3413
62959W        W 5897  13.427  24.114  28.524  0.3351  0.1672 -0.1521
62960W        W 5898  12.208  20.996  28.348 -0.0492  0.0468  0.0411
62961W        W 5899  14.405  25.616  28.099 -0.2520 -0.3694 -0.0274
62962W        W 5900  13.197  24.381  28.140 -0.0888 -0.2972 -0.0938
62963W        W 5901  12.307  22.851  30.061  0.1084  0.1632  0.1473
62964W        W 5902  13.766  20.896  29.793  0.1301 -0.0183  0.3044
62965W        W 5903  14.370  23.488  29.265 -0.2859  0.4166 -0.0634
62966W        W 5904  13.315  23.322  27.304 -0.1883  0.0994 -0.2803
62967W        W 5905  12.289  21.982  26.124  0.1162  0.0385 -0.2429
62968W        W 5906  14.107  24.741  27.560 -0.0384  0.0498 -0.1647
62969W        W 5907  12.887  23.952  28.298  0.3110 -0.2081 -0.1764
62970W        W 5908  10.341  24.700  29.059  0.0324  0.2224  0.1820
62971W        W 5909  13.236  25.728  28.437  0.0753 -0.1085  0.0536
62972W        W 5910  16.144  22.642  28.463  0.3792  0.0766  0.4788
62973W        W 5911  11.590  23.077  31.374 -0.0378  0.2816 -0.0278
62974W        W 5912  13.345  23.331  30.398 -0.4547 -0.0931 -0.0273
62975W        W 5913  11.260  22.634  27.911  0.0638 -0.0750 -0.0090
62976W        W 5914  11.973  23.345  31.054  0.0420  0.0192  0.1110
62977W        W 5915  14.252  22.818  28.312 -0.1224  0.0649 -0.2024
62978W        W 5916  13.991  22.472  26.946 -0.1064 -0.0653 -0.0623
62979W        W 5917  13.051  23.742  31.915  0.2419  0.0862 -0.4480
62980W        W 5918  14.444  24.699  28.548  0.0352 -0.0984  0.0344
62981W        W 5919  13.920  22.240  26.017  0.2997 -0.1818  0.1063
62982W        W 5920  14.513  21.827  26.707 -0.1425  0.0938  0.1891
62983W        W 5921  11.684  22.543  31.328 -0.4837  0.0033 -0.2651
62984W        W 5922  14.389  23.870  27.424 -0.0859 -0.2385  0.0537
62985W        W 5923  11.893  23.191  28.669  0.2172 -0.1367 -0.0624
62986W        W 5924  13.299  24.740  27.584 -0.1043  0.1342  0.2427
62987W        W 5925  13.662  25.368  28.783 -0.1281 -0.1672  0.1337
62988W        W 5926  12.543  23.129  27.651  0.0202  0.1401 -0.2265
62989W        W 5927  13.364  25.169  31.543  0.1999 -0.3708 -0.0894
62990W        W 5928  13.476  24.938  29.680  0.0370 -0.2214  0.0402
62991W        W 5929  14.928  21.496  29.024 -0.2102  0.1771  0.1326
62992W        W 5930  12.933  21.671  26.820  0.0992  0.0365 -0.0661
62993W        W 5931  12.545  21.127  27.390 -0.0095  0.1965  0.0246
62994W        W 5932  12.351  25.516  26.884 -0.1193 -0.2411  0.1316
62995W        W 5933  15.677  22.053  27.850 -0.1528  0.1068 -0.1234
62996W        W 5934  14.255  22.714  28.821 -0.0785 -0.1565  0.0550
62997W        W 5935  14.590  22.133  30.259  0.2566 -0.1696  0.2324
62998W        W 5936  13.910  23.549  31.537 -0.0446 -0.2229  0.0249
62999W        W 5937  14.676  23.636  27.117 -0.0149  0.1176 -0.1817
63000W        W 5938  14.527  23.680  30.225  0.1473 -0.0592  0.0835
63001W        W 5939  12.210  22.850  26.288  0.0349  0.2140  0.1397
63002W        W 5940  13.246  22.287  29.921  0.4177 -0.3142 -0.1815
63003W        W 5941  11.373  24.284  27.376  0.0306 -0.0486  0.1366
63004W        W 5942  11.631  23.276  28.204 -0.0847  0.1273 -0.1214
63005W        W 5943  14.115  25.644  28.869 -0.1692  0.2009  0.1570
63006W        W 5944  14.689  24.381  27.448  0.0072 -0.0814  0.1951
63007W        W 5945  14.544  21.055  28.404 -0.0491  0.2222  0.0722
63008W        W 5946  12.523  22.216  27.395  0.1622 -0.0114  0.0363
63009W        W 5947  14.190  24.383  30.424 -0.0880 -0.3515 -0.2096
63010W        W 5948  10.305  23.134  28.074 -0.1155 -0.0385  0.2207
63011W        W 5949  14.123  21.384  28.325  0.0488 -0.0124  0.0107
63012W        W 5950  13.294  22.946  29.917 -0.1702 -0.3235  0.0633
63013W        W 5951  11.795  24.294  27.813  0.1777  0.1345  0.2565
63014W        W 5952  14.065  23.601  29.663  0.1661 -0.1036  0.1714
63015W        W 5953  12.839  25.385  28.381  0.0349  0.0855 -0.2959
63016W        W 5954  15.244  22.265  28.082 -0.0319 -0.0500  0.1826
63017W        W 5955  12.091  24.938  29.577  0.1084 -0.1265 -0.1755
63018W        W 5956  12.132  23.394  27.558 -0.1186  0.0689  0.0120
63019W        W 5957  11.215  23.926  28.790  0.0922  0.1325 -0.0576
63020W        W 5958  13.401  22.829  27.570  0.0743 -0.0973 -0.0860
63021W        W 5959  15.053  24.642  27.055 -0.2030 -0.1951  0.3437
63022W        W 5960  12.988  24.257  28.852 -0.0906 -0.0946  0.0720
63023W        W 5961  11.877  20.535  27.578 -0.4584 -0.3369  0.0892
63024W        W 5962  11.278  24.349  29.695  0.2482 -0.1700 -0.1812
63025W        W 5963  14.201  23.881  30.569 -0.3192 -0.2067 -0.1427
63026W        W 5964  14.388  22.818  27.136 -0.1375 -0.5346  0.0638
63027W        W 5965  14.357  26.059  28.994 -0.1072  0.0209  0.3493
63028W        W 5966  13.253  23.658  31.514  0.1822  0.2401  0.3204
63029W        W 5967  11.141  23.071  28.210 -0.3141  0.2147  0.1591
63030W        W 5968  14.680  23.440  29.773 -0.1116  0.1829 -0.0537
63031W        W 5969  13.881  23.607  29.189  0.1702 -0.0792  0.1249
63032W        W 5970  11.586  25.463  28.877  0.0099 -0.1636  0.0473
63033W        W 5971  12.764  23.867  30.532  0.3170  0.2287  0.0422
63034W        W 5972  13.560  23.163  29.110 -0.2053 -0.1938 -0.0420
63035W        W 5973  11.988  23.671  28.437 -0.0261  0.0824 -0.3236
63036W        W 5974  15.310  23.277  29.161  0.1530  0.2115 -0.2741
63037W        W 5975  13.856  23.416  30.861 -0.1621 -0.0548  0.0982
63038W        W 5976  12.936  22.907  27.375 -0.0432  0.4498 -0.3599
63039W        W 5977  11.751  22.315  28.680 -0.2604 -0.0705 -0.1192
63040W        W 5978  13.956  23.938  28.767  0.1331 -0.1084  0.0320
63041W        W 5979  15.053  23.288  30.062  0.0133  0.0644 -0.2450
63042W        W 5980  13.400  23.072  30.935  0.1972  0.0464 -0.0758
63043W        W 5981  13.052  24.738  31.106  0.3619 -0.3961  0.0888
63044W        W 5982  13.348  20.952  28.991  0.1494 -0.2088 -0.0875
63045W        W 5983  14.694  26.556  27.299 -0.1211  0.1983 -0.1556
63046W        W 5984  13.671  23.787  31.114 -0.2332 -0.0709 -0.0418
63047W        W 5985  11.875  24.231  27.276 -0.3777  0.1642 -0.2557
63048W        W 5986  11.559  22.352  29.874  0.0772 -0.1344  0.2037
63049W        W 5987  13.040  24.786  29.480 -0.1930 -0.0759 -0.0705
63050W        W 5988  14.245  21.802  28.931  0.1551  0.0874  0.0077
63051W        W 5989  11.254  23.751  29.748 -0.2165 -0.1480 -0.5602
63052W        W 5990  12.535  23.768  26.961  0.0987  0.0112 -0.2263
63053W        W 5991  10.021  23.049  30.573  0.1129  0.2356 -0.2213
63054W        W 5992  15.168  21.794  27.682 -0.0760  0.0671 -0.3743
63055W        W 5993  12.643  23.974  27.784  0.2170 -0.0878 -0.0753
63056W        W 5994  13.799  22.859  28.701  0.0812 -0.0059  0.0256
63057W        W 5995  14.640  22.305  27.616  0.0361 -0.1096  0.2342
63058W        W 5996  14.182  23.314  28.044  0.1187 -0.0856 -0.1247
63059W        W 5997  14.406  22.343  31.585  0.1348  0.2278 -0.0273
63060W        W 5998  11.331  21.010  30.402  0.0257  0.0159  0.0570
63061W        W 5999  13.853  25.507  27.443  0.0478  0.1553  0.2408
63062W        W 6000  10.913  22.389  30.062  0.2872 -0.0578  0.0977
63063W        W 6001  13.066  25.185  29.712 -0.0682  0.1274  0.1715
63064W        W 6002  12.498  22.780  29.603 -0.0672 -0.2093  0.1170
63065W        W 6003  13.009  22.941  27.862  0.0944  0.0214  0.0156
63066W        W 6004  12.764  21.757  28.492  0.1615 -0.0196 -0.2364
63067W        W 6005  13.520  24.209  30.262  0.3541 -0.4548 -0.0010
63068W        W 6006  15.021  22.710  27.957  0.4525 -0.1607 -0.1833
63069W        W 6007  14.130  22.359  28.501  0.0668  0.1292 -0.1375
63070W        W 6008  14.584  22.041  28.714 -0.2173 -0.0187  0.0654
63071W        W 6009  13.151  23.211  29.357 -0.1537 -0.2164 -0.2906
63072W        W 6010  13.818  23.402  26.838  0.0140  0.2716 -0.3812
63073W        W 6011  12.896  23.489  28.191 -0.1160  0.2663 -0.0117
63074W        W 6012  14.095  23.063  29.165  0.0980 -0.1030 -0.0766
63075W        W 6013  11.809  21.821  29.114  0.1938  0.0975  0.3580
63076W        W 6014  13.607  22.801  29.545 -0.1875 -0.2435  0.1790
63077W        W 6015  12.993  23.648  29.505 -0.2201 -0.2640  0.1023
63078W        W 6016  14.731  22.519  28.961  0.1481 -0.3812 -0.1434
63079W        W 6017  15.131  22.850  28.850  0.0874  0.0512 -0.4340
63080W        W 6018  13.566  22.380  28.730  0.1470  0.1610  0.2222
63081W        W 6019  12.636  22.271  29.798 -0.4919 -0.1728  0.0168
63082W        W 6020  13.956  25.152  29.722 -0.1138  0.4154 -0.0601
63083W        W 6021  15.296  22.962  25.721  0.1754  0.4147  0.2095
63084W        W 6022  16.377  23.690  28.167 -0.1565  0.0409 -0.0077
63085W        W 6023  13.704  24.157  28.107  0.0836  0.1794  0.0324
63086W        W 6024  13.440  24.150  26.676  0.0174  0.3299 -0.1447
63087W        W 6025  11.832  22.775  28.915  0.2004  0.3531 -0.0132
63088W        W 6026  13.976  24.752   0.749 -0.0349  0.0292 -0.0166
63089W        W 6027  13.499  22.529  27.155  0.1114  0.1343 -0.0431
63090W        W 6028  14.763  20.967  29.842  0.1080  0.1891  0.0461
63091W        W 6029  13.543  26.111  28.248  0.0194 -0.0647 -0.1850
63092W        W 6030  15.498  23.519  28.203 -0.1663 -0.0069 -0.0589
63093W        W 6031  14.307  24.312  27.802 -0.0716  0.0029  0.0049
63094W        W 6032  12.279  22.291  26.830  0.0301  0.1706  0.0254
63095W        W 6033  11.958  25.482  30.419 -0.1067 -0.0499  0.0384
63096W        W 6034  11.478  22.452  27.446 -0.1917  0.1858  0.0609
63097W        W 6035  13.125  23.838  27.892 -0.3842  0.2464  0.3076
63098W        W 6036  13.296  24.044  29.588  0.2798 -0.0624 -0.3183
63099W        W 6037  13.427  25.239   0.050 -0.0816  0.1304  0.0469
63100W        W 6038  13.813  22.112  28.991  0.0833 -0.1119  0.0397
63101W        W 6039  15.122  22.666  29.330  0.0085 -0.0997  0.1800
63102W        W 6040  12.382  23.270  27.159  0.0633 -0.3326  0.2235
63103W        W 6041  14.091  22.288  30.229 -0.2023  0.0781 -0.0653
63104W        W 6042  12.031  25.595  29.622  0.1618 -0.3302 -0.0748
63105W        W 6043  10.885  23.475  30.271 -0.1071 -0.0811  0.2624
63106W        W 6044  13.947  24.703  30.090  0.2204 -0.2216 -0.0902
63107W        W 6045  14.655  22.383  28.114  0.2489 -0.0244  0.0765
63108W        W 6046  13.829  24.089  27.515  0.2272  0.0248 -0.1532
63109W        W 6047  13.887  23.716  28.311 -0.1183  0.1762  0.0482
63110W        W 6048  16.439  23.309  30.167 -0.1836  0.1041  0.3343
63111W        W 6049  12.910  24.345  30.760 -0.1141  0.2182  0.1863
63112W        W 6050  11.449  23.441  28.642 -0.0183  0.3245  0.3929
63113W        W 6051  12.970  25.374  30.466  0.0815  0.2070  0.1630
63114W        W 6052  15.106  24.137  27.301 -0.0745 -0.3816  0.1344
63115W        W 6053  13.099  23.764  28.695 -0.0171  0.0963  0.3120
63116W        W 6054  11.594  21.702  29.986 -0.1413  0.1479  0.1722
63117W        W 6055  12.621  22.902  30.458 -0.0573 -0.1520  0.3649
63118W        W 6056  15.457  23.669  28.687  0.0083  0.0996  0.1373
63119W        W 6057  12.143  21.874  27.271  0.0059 -0.0080 -0.0597
63120W        W 6058  11.785  24.779  28.050 -0.0527 -0.0515  0.3190
63121W        W 6059  11.795  23.798  31.338 -0.1270 -0.0031 -0.0761
63122W        W 6060  12.574  24.058  29.049 -0.0034 -0.0192 -0.0272
63123W        W 6061  12.183  24.524  28.291  0.4558 -0.1344  0.2673
63124W        W 6062  13.801  24.516  27.182 -0.0086 -0.3917 -0.0593
63125W        W 6063  12.899  23.907  27.273 -0.0234  0.3252 -0.2706
63126W        W 6064  14.178  25.163  27.810  0.3067 -0.3017 -0.1671
63127W        W 6065  13.097  21.859  25.348 -0.1739  0.2580  0.0061
63128W        W 6066  12.352  24.678  28.755  0.0232  0.0083 -0.0867
63129W        W 6067  11.721  23.761  27.438  0.0558 -0.0878  0.0112
63130W        W 6068  14.309  25.754  26.721  0.1101 -0.1229  0.0815
63131W        W 6069  12.641  26.420  28.667 -0.4772 -0.1793 -0.0692
63132W        W 6070  12.509  23.718  29.894  0.1611  0.1862  0.0139
63133W        W 6071  14.419  21.959  26.174 -0.0727  0.0657  0.1669
63134W        W 6072  14.940  23.663  27.558 -0.1899 -0.3622  0.0245
63135W        W 6073  15.983  23.753  27.656 -0.0835  0.2660 -0.1521
63136W        W 6074  14.251  25.099  30.157 -0.2689 -0.2656  0.1422
63137W        W 6075  12.903  22.828  29.118  0.1628  0.0094  0.0125
63138W        W 6076  13.075  21.392  27.607 -0.1254  0.1330 -0.1437
63139W        W 6077  12.756  23.229  29.699  0.0151 -0.1023 -0.0580
63140W        W 6078  15.624  21.942  29.781  0.1614 -0.2455 -0.0256
63141W        W 6079  10.997  25.645  31.088  0.0627  0.1697 -0.1212
63142W        W 6080  13.347  25.198  28.457  0.0435 -0.0391 -0.1267
63143W        W 6081  11.065  23.508  29.012  0.2597  0.0100  0.1248
63144W        W 6082  14.065  24.454  28.772 -0.1368 -0.4147 -0.1657
63145W        W 6083  16.219  22.022  28.485 -0.0903  0.3985 -0.2555
63146W        W 6084  13.046  25.224  26.860 -0.1774  0.5846 -0.4774
63147W        W 6085  14.280  23.063  29.846 -0.0646 -0.2602  0.2850
63148W        W 6086  13.775  24.020  29.437  0.1141 -0.3799 -0.0078
63149W        W 6087  14.246  24.311  29.628 -0.0401 -0.2087 -0.0794
63150W        W 6088  11.565  25.907  30.432  0.0338  0.0636 -0.0291
63151W        W 6089  11.660  21.181  27.131  0.2254 -0.0318 -0.1240
63152W        W 6090  15.783  22.976  28.356 -0.0413 -0.0922  0.0587
63153W        W 6091  13.350  22.661  29.085 -0.2434 -0.0134 -0.2501
63154W        W 6092  14.492  22.811  27.707 -0.2675 -0.0895  0.1695
63155W        W 6093  10.949  23.504  28.525 -0.1527 -0.1407  0.0465
63156W        W 6094  15.590  23.098  27.427  0.2185  0.0750 -0.1606
63157W        W 6095  13.347  23.634  29.131 -0.0527  0.1548  0.1940
63158W        W 6096  12.465  23.888  28.580 -0.0434  0.0209  0.0463
63159W        W 6097  13.388  24.211  27.634  0.2442 -0.3445  0.0132
63160W        W 6098  14.108  23.463  30.210 -0.2339 -0.5324 -0.0061
63161W        W 6099  13.489  22.581  26.102  0.0978  0.2059 -0.0603
63162W        W 6100  13.795  25.770  30.656 -0.1456 -0.0063 -0.0892
63163W        W 6101  11.556  21.803  28.688  0.0305  0.0159  0.1139
63164W        W 6102  13.088  20.810  27.371 -0.0176 -0.0102  0.1469
63165W        W 6103  12.476  23.248  28.391  0.2666 -0.2625 -0.1270
63166W        W 6104  14.004  23.348  28.725 -0.1510  0.0029  0.2905
63167W        W 6105  14.537  23.748  28.888  0.0336  0.3172 -0.1675
63168W        W 6106  11.388  22.118  28.281 -0.1554  0.0117 -0.0504
63169W        W 6107  13.646  24.775  25.758 -0.1374 -0.3680  0.1907
63170W        W 6108  16.356  23.455  27.169  0.0506  0.1928  0.0751
63171W        W 6109  12.719  24.630  29.121 -0.2102  0.3680  0.0720
63172W        W 6110  15.845  23.339  27.930 -0.0788  0.1288 -0.0653
63173W        W 6111  14.793  24.071  29.276  0.0936 -0.2436 -0.1507
63174W        W 6112  11.282  22.848  29.861 -0.2882 -0.1427  0.1243
63175W        W 6113  13.860  22.565  29.127 -0.0354 -0.3013  0.0871
63176W        W 6114  14.987  24.427  30.174 -0.1797 -0.0409  0.1964
63177W        W 6115  13.876  22.073  27.758 -0.2254  0.0199 -0.3789
63178W        W 6116  13.601  23.624  28.688  0.3401 -0.1273  0.0870
63179W        W 6117  12.440  23.547  27.935  0.0973 -0.0924 -0.1670
63180W        W 6118  15.344  22.798  28.423 -0.0609 -0.0602 -0.1060
63181W        W 6119  13.446  23.656  30.042 -0.1583  0.0831  0.1465
63182W        W 6120  12.425  24.673  27.286 -0.2345  0.0202  0.1213
63183W        W 6121  13.562  22.535  30.397  0.0869 -0.1048  0.0073
63184W        W 6122  13.973  26.977  30.111 -0.1034  0.1038 -0.3938
63185W        W 6123  12.516  25.608  31.394 -0.1385  0.0501 -0.0979
63186W        W 6124  11.884  22.500  27.091 -0.2622 -0.0869 -0.0392
63187W        W 6125  13.578  23.456  29.608 -0.1737  0.2120 -0.2262
63188W        W 6126  13.685  25.084  27.658 -0.1848 -0.0148  0.1766
63189W        W 6127  12.745  24.966  28.162  0.1086  0.1714  0.2378
63190W        W 6128  15.340  25.193  28.315 -0.0089  0.2377  0.1018
63191W        W 6129  14.051  22.957  26.743 -0.1777  0.0881 -0.3151
63192W        W 6130  15.886  24.381  28.076 -0.1490 -0.5227 -0.1012
63193W        W 6131  13.128  22.040  28.367  0.0196  0.1926  0.1382
63194W        W 6132  15.931  22.149  27.411 -0.0608 -0.3106  0.0580
63195W        W 6133  14.758  22.837  28.506 -0.1498 -0.0578  0.4468
63196W        W 6134  14.493  22.721  29.448  0.2892  0.2281  0.1763
63197W        W 6135   9.718  22.335  27.696 -0.2073 -0.1108  0.1898
63198W        W 6136  12.999  23.931  26.636  0.0629 -0.1686  0.1411
63199W        W 6137  11.312  24.568  29.245 -0.1900 -0.2027 -0.0790
63200W        W 6138  13.412  21.616  30.613  0.2269 -0.0331  0.0242
63201W        W 6139  11.482  23.590  31.060  0.1442  0.1102 -0.1240
63202W        W 6140  11.738  23.766  28.906 -0.1624  0.0546  0.0616
63203W        W 6141  12.186  20.984  28.925 -0.0089  0.1304  0.0448
63204W        W 6142  14.445  22.518  26.087  0.2431  0.1541 -0.0475
63205W        W 6143  13.401  21.823  29.635  0.0404 -0.1746  0.0688
63206W        W 6144  13.077  22.287  28.822 -0.0179  0.0680 -0.0666
63207W        W 6145  12.309  24.909  27.914  0.4475  0.0072  0.1685
63208W        W 6146  13.471  25.576  27.749 -0.1915 -0.1938 -0.0323
63209W        W 6147  13.496  23.295  27.824 -0.0766  0.0403 -0.0918
63210W        W 6148  16.039  25.428  29.581 -0.0492 -0.0713  0.4659
63211W        W 6149  11.433  23.581  26.624  0.3515 -0.0634  0.1443
63212W        W 6150  14.064  22.537  29.588  0.0905 -0.1103 -0.3312
63213W        W 6151  14.507  21.331  28.789  0.2605 -0.0707 -0.0108
63214W        W 6152  10.496  23.393  27.632  0.1724  0.2850  0.0886
63215W        W 6153  14.459  23.862  29.695 -0.0036 -0.4406 -0.0030
63216W        W 6154  13.016  25.335  27.919 -0.0477  0.0675  0.1968
63217W        W 6155  15.299  25.863  26.449  0.4392 -0.1178  0.1308
63218W        W 6156  12.269  23.538  30.687 -0.0930 -0.0829  0.0349
63219W        W 6157  12.615  24.556  29.915  0.2392 -0.0329 -0.0565
63220W        W 6158  11.676  21.172  30.969 -0.0316 -0.0145  0.1610
63221W        W 6159  11.530  24.608  26.242 -0.1200  0.0407 -0.0312
63222W        W 6160  13.197  24.469  29.846 -0.1220 -0.3565 -0.3117
63223W        W 6161  15.227  23.641  27.144  0.0337  0.1274 -0.1039
63224W        W 6162  16.072  23.162  27.519 -0.1002  0.2488  0.0159
63225W        W 6163  12.661  22.580  28.734  0.0419 -0.2485 -0.4335
63226W        W 6164  12.432  22.384  30.244  0.0404 -0.1167 -0.2167
63227W        W 6165  13.149  24.146   0.261  0.2511  0.2986  0.2524
63228W        W 6166  14.875  25.934  29.157 -0.0926  0.2422 -0.1626
63229W        W 6167  11.840  21.930  28.264  0.3540  0.0945  0.0978
63230W        W 6168  13.265  22.031  27.877  0.1119 -0.1376 -0.4302
63231W        W 6169  14.429  23.418  27.603 -0.0961  0.0921 -0.0331
63232W        W 6170  12.089  23.805  27.122 -0.0430  0.1794 -0.0251
63233W        W 6171  13.391  23.005  26.877 -0.0524  0.0887 -0.0655
63234W        W 6172  13.168  22.878  30.530  0.0258  0.4322  0.1194
63235W        W 6173  12.274  24.154  30.739 -0.0817  0.0300  0.1208
63236W        W 6174  14.756  24.087  31.102 -0.1400  0.2030 -0.1685
63237W        W 6175  12.514  23.898  26.479 -0.0603 -0.0699 -0.0877
63238W        W 6176  14.718  23.377  26.273 -0.1576  0.0338  0.0887
63239W        W 6177  12.840  24.274  29.571 -0.3525 -0.0762  0.1246
63240W        W 6178  14.894  25.099  30.784 -0.1625 -0.2623 -0.4583
63241W        W 6179  14.523  24.203  28.768 -0.0539  0.1863 -0.1492
63242W        W 6180  14.986  24.390  28.589  0.4186  0.1916  0.0339
63243W        W 6181  12.336  22.879  28.944  0.0900  0.2488 -0.0564
63244W        W 6182  12.145  24.046  28.105 -0.0079  0.0581  0.1129
63245W        W 6183  14.189  24.191  28.320  0.0060 -0.1573  0.0156
63246W        W 6184  14.934  22.739  27.382  0.5104  0.0822  0.3616
63247W        W 6185  13.231  23.266  28.718 -0.0156 -0.3131  0.0624
63248W        W 6186  14.682  21.859  27.393  0.0786  0.2037  0.1823
63249W        W 6187  12.156  26.925  29.716 -0.0566 -0.0168  0.0973
63250W        W 6188  14.259  24.012  29.221 -0.2275 -0.0683 -0.1318
63251W        W 6189  13.775  21.538  30.203 -0.1897  0.0680 -0.0457
63252W        W 6190  14.705  23.581  30.960 -0.2711  0.1474  0.2069
63253W        W 6191  10.432  22.444  31.478  0.1757  0.0603  0.3047
63254W        W 6192  11.308  24.900  30.481  0.1109 -0.2693  0.1948
63255W        W 6193  13.461  25.119  30.610  0.3191 -0.1872  0.2189
63256W        W 6194  11.363  25.358  29.767 -0.0197  0.0776  0.2247
63257W        W 6195  14.771  23.089  29.232 -0.3055  0.1577 -0.0192
63258W        W 6196  13.619  22.625  30.991 -0.0990  0.1624  0.1522
63259W        W 6197  14.019  21.996  31.079  0.4865  0.0122  0.0997
63260W        W 6198  15.484  26.488  30.838 -0.3248  0.0462 -0.2100
63261W        W 6199  13.735  23.688  30.450 -0.1747 -0.0716 -0.1085
63262W        W 6200  13.721  23.199  30.029 -0.2453 -0.0151  0.0842
63263W        W 6201  14.742  22.980  30.393  0.0753 -0.1708 -0.0983
63264W        W 6202  12.309  24.098  31.260 -0.0872  0.0166  0.1703
63265W        W 6203  13.523  24.930  31.115 -0.0427 -0.2377  0.2343
63266W        W 6204  11.150  25.802  31.559  0.0985 -0.0074 -0.2017
63267W        W 6205  11.894  23.338  30.068 -0.0318  0.0549  0.2303
63268W        W 6206  12.967  26.696  29.141  0.2058 -0.1852 -0.2486
63269W        W 6207  10.362  21.898  31.490  0.0243 -0.1060  0.3455
63270W        W 6208  10.141  21.193  31.147 -0.0832 -0.1632  0.1375
63271W        W 6209  13.062  22.248  31.336  0.0284 -0.1267  0.3359
63272W        W 6210  11.094  23.307  31.258  0.0202  0.1287 -0.1997
63273W        W 6211  15.459  23.931  31.462  0.0536  0.0283 -0.0608
63274W        W 6212  15.219  23.092  29.620 -0.2074  0.1859 -0.0408
63275W        W 6213  13.698  22.383  29.892 -0.1756  0.2036 -0.2292
63276W        W 6214  13.792  20.435  30.634  0.1231 -0.3231 -0.2783
63277W        W 6215  12.115  22.648  28.483 -0.1245  0.1769 -0.1173
63278W        W 6216  11.299  24.003  31.530 -0.1739  0.0781  0.0265
63279W        W 6217  13.270  22.756  28.612 -0.0483 -0.3323 -0.1575
63280W        W 6218  14.520  23.743  31.525 -0.1065  0.0179 -0.0009
63281W        W 6219  12.667  25.159  30.941 -0.3146  0.1107  0.1670
63282W        W 6220  13.345  21.229  29.418  0.2912 -0.0784  0.1195
63283W        W 6221  13.054  23.916  30.986  0.2508 -0.0705  0.2435
63284W        W 6222  15.073  22.349  30.864  0.0376  0.0880  0.2485
63285W        W 6223  11.194  22.550  31.530  0.0804  0.1222 -0.0289
63286W        W 6224  12.072  22.976   0.222  0.1297 -0.0611  0.1828
63287W        W 6225  12.887  26.595  31.293 -0.1083  0.0414 -0.1230
63288W        W 6226  13.782  24.151  30.661  0.0913 -0.0042 -0.3088
63289W        W 6227  12.870  25.184  31.897 -0.0091 -0.0046  0.2674
63290W        W 6228  14.084  24.708  31.289 -0.1912  0.0875 -0.1135
63291W        W 6229  15.388  22.617  29.778  0.0272  0.0021  0.0511
63292W        W 6230  13.491  23.368  31.883 -0.2423 -0.1036  0.1574
63293W        W 6231  14.147  21.661  30.671  0.3341 -0.1387  0.1281
63294W        W 6232  13.273  23.822  30.525  0.0368  0.0577 -0.2300
63295W        W 6233  12.539  23.206  29.263 -0.0191 -0.0575  0.2284
63296W        W 6234  12.475  22.896  31.559 -0.0581  0.0413  0.1387
63297W        W 6235  13.448  21.986  31.108  0.0895  0.1509  0.5116
63298W        W 6236  12.198  23.045  30.671 -0.2363  0.2212  0.0556
63299W        W 6237  13.866  24.233  31.402  0.2544  0.0608  0.1446
63300W        W 6238  11.989  24.529   0.004  0.1480  0.1874  0.4033
63301W        W 6239  13.843  25.436  31.489  0.0314 -0.0298  0.3104
63302W        W 6240  14.503  22.606  30.624 -0.1433 -0.1597  0.0406
63303W        W 6241  14.265  22.279  29.098 -0.0247 -0.0268 -0.0299
63304W        W 6242  12.883  24.956  30.131  0.1364 -0.0288 -0.3485
63305W        W 6243  13.713  22.973  30.533  0.1155  0.0179  0.1313
63306W        W 6244  12.944  24.339  31.312 -0.1589  0.0659  0.1413
63307W        W 6245  14.395  23.397  30.659 -0.0500 -0.2821  0.1842
63308W        W 6246  13.152  25.736  31.231  0.1902 -0.0613  0.1680
63309W        W 6247  11.788  25.094  30.675  0.0015  0.0522  0.0413
63310W        W 6248  11.488  22.749  29.397  0.0032  0.1645 -0.2083
63311W        W 6249  12.412  23.662  29.353  0.1938  0.1157 -0.1622
63312W        W 6250  12.420  23.313  30.248 -0.2878 -0.3661  0.0298
63313W        W 6251  11.462  24.586   0.047 -0.1655 -0.1847 -0.0814
63314W        W 6252  12.222  22.028  29.450  0.5286  0.0431  0.2718
63315W        W 6253  14.018  25.850  31.826  0.1493 -0.1196  0.2126
63316W        W 6254  15.086  23.801  30.243 -0.1554 -0.1127 -0.1401
63317W        W 6255  14.432  24.373  31.356  0.3597 -0.0892 -0.2224
63318W        W 6256  11.004  27.512  19.096 -0.1857  0.0127 -0.3630
63319W        W 6257  11.597  25.688  15.580 -0.1694 -0.2573  0.2102
63320W        W 6258  14.911  25.718  15.344 -0.1204  0.3149  0.1721
63321W        W 6259  14.985  29.281  19.087  0.3664  0.1175 -0.0817
63322W        W 6260  11.178  28.084  18.042 -0.1519 -0.0206  0.1768
63323W        W 6261  11.947  29.797  17.198  0.0792  0.1674 -0.2799
63324W        W 6262  11.343  26.404  19.543 -0.0711 -0.0670  0.1746
63325W        W 6263  12.277  28.247  17.084  0.1027  0.2050  0.2219
63326W        W 6264  13.115  27.275  18.333  0.3048 -0.0257 -0.0239
63327W        W 6265  13.303  28.211  15.106 -0.2137  0.4512 -0.0586
63328W        W 6266  14.048  27.174  18.337  0.1431 -0.0104 -0.0140
63329W        W 6267  12.649  28.589  19.043  0.1200  0.0509  0.1461
63330W        W 6268  13.075  26.439  16.281 -0.0301  0.0034  0.0952
63331W        W 6269   9.272  26.272  19.138  0.0705 -0.1517 -0.2645
63332W        W 6270  13.931  26.167  19.914 -0.0965 -0.2276  0.2646
63333W        W 6271  12.918  27.166  16.017  0.1053 -0.2489  0.1118
63334W        W 6272  11.580  26.658  17.055 -0.0871  0.0018 -0.2749
63335W        W 6273  12.634  27.055  16.573 -0.3840 -0.2645 -0.2815
63336W        W 6274  11.331  28.455  17.626  0.2370  0.0740 -0.2564
63337W        W 6275  14.034  27.059  17.158 -0.1113  0.1126  0.1539
63338W        W 6276  13.458  25.848  19.018  0.0088 -0.0824  0.0678
63339W        W 6277  13.732  28.505  17.575  0.0326  0.0570  0.0786
63340W        W 6278  11.238  26.520  15.650 -0.1040  0.1768 -0.0956
63341W        W 6279  11.200  27.410  17.390  0.0212 -0.5319  0.2615
63342W        W 6280  11.555  25.942  18.102  0.0482  0.2122 -0.1248
63343W        W 6281  14.253  27.263  17.873 -0.3313  0.0238 -0.1583
63344W        W 6282  14.484  27.982  17.203  0.2523 -0.0090 -0.1283
63345W        W 6283  12.051  28.502  19.202 -0.1516 -0.1628 -0.0926
63346W        W 6284  13.621  28.059  18.637 -0.1885  0.1502  0.1537
63347W        W 6285  14.676  25.633  18.091 -0.2290  0.2034 -0.1508
63348W        W 6286  12.298  27.529  18.438 -0.1069 -0.2490 -0.1494
63349W        W 6287  11.514  29.834  16.996 -0.1139 -0.0965 -0.1672
63350W        W 6288  13.538  27.309  15.151  0.2047  0.3350 -0.0434
63351W        W 6289  13.870  29.400  17.315 -0.1188 -0.0025 -0.1822
63352W        W 6290  12.858  26.546  17.933  0.0897 -0.3405 -0.0116
63353W        W 6291  10.650  30.913  19.244  0.1471 -0.2030  0.1945
63354W        W 6292  11.407  29.416  16.204  0.0175 -0.0843 -0.1173
63355W        W 6293  13.112  27.875  19.367  0.3245  0.1097  0.1200
63356W        W 6294  11.029  28.764  20.794  0.2220 -0.3861 -0.1808
63357W        W 6295  12.780  26.336  18.537 -0.1017  0.0007  0.0950
63358W        W 6296  12.088  26.761  16.377  0.1016  0.0910 -0.1214
63359W        W 6297  13.607  27.717  16.417  0.2831  0.0370  0.0800
63360W        W 6298  12.244  26.406  18.507 -0.0066  0.2464 -0.1995
63361W        W 6299  13.231  27.124  18.835  0.1304  0.0069 -0.1454
63362W        W 6300  10.979  30.945  17.384 -0.1156 -0.0507 -0.1521
63363W        W 6301  14.532  26.790  19.959  0.2129 -0.1528 -0.3799
63364W        W 6302  12.656  28.142  16.695 -0.0947 -0.0110  0.1984
63365W        W 6303  14.042  26.991  15.719 -0.1903 -0.2212 -0.0378
63366W        W 6304  13.200  26.882  16.379 -0.2751  0.1168  0.1972
63367W        W 6305  14.462  26.919  16.003  0.2666  0.0135 -0.2429
63368W        W 6306  13.728  25.340  18.967 -0.2976 -0.1297  0.0611
63369W        W 6307  11.657  28.874  17.516  0.2334  0.0644  0.6851
63370W        W 6308  12.429  25.880  18.427  0.2024 -0.1725 -0.0441
63371W        W 6309  14.107  27.538  21.141  0.0230  0.1462 -0.1043
63372W        W 6310  13.094  27.332  17.317 -0.0277 -0.3380  0.1168
63373W        W 6311  13.600  25.879  17.769  0.0909 -0.0527  0.0629
63374W        W 6312  11.244  28.478  18.851 -0.2459 -0.0195 -0.2208
63375W        W 6313  11.034  27.517  18.573 -0.3654  0.2133 -0.0489
63376W        W 6314  12.073  29.993  16.174 -0.2425  0.1143 -0.0322
63377W        W 6315  14.118  29.430  16.582 -0.3175  0.0691 -0.1076
63378W        W 6316  12.125  28.747  17.418  0.0602 -0.0658  0.0427
63379W        W 6317  11.647  26.763  16.539 -0.1246 -0.1995 -0.0462
63380W        W 6318  10.480  28.233  17.303  0.2186  0.0792 -0.0027
63381W        W 6319  10.152  27.354  20.529  0.1289  0.2382 -0.0499
63382W        W 6320  11.806  26.419  15.245 -0.1181 -0.1739  0.4453
63383W        W 6321  14.517  27.900  18.487 -0.0777  0.1425 -0.0472
63384W        W 6322   9.458  29.198  19.914  0.1623  0.0208 -0.1063
63385W        W 6323  15.485  27.033  17.198 -0.1828  0.1597 -0.0646
63386W        W 6324  11.818  27.068  17.282  0.3002  0.2851  0.5461
63387W        W 6325  14.488  26.956  17.481 -0.0766  0.1125  0.0483
63388W        W 6326  13.262  28.156  15.700  0.1215  0.0442  0.1222
63389W        W 6327  14.600  26.772  15.561  0.1346  0.1685 -0.1464
63390W        W 6328  12.415  25.984  16.978 -0.1949 -0.0493 -0.1761
63391W        W 6329  11.830  26.970  15.246  0.2831  0.0098 -0.0152
63392W        W 6330  12.368  27.149  16.141  0.0880  0.3091 -0.0235
63393W        W 6331  13.538  28.723  19.954 -0.0126 -0.3237 -0.0435
63394W        W 6332  14.117  27.660  15.152 -0.2273 -0.2964 -0.0087
63395W        W 6333  11.087  30.163  17.172  0.2114  0.0390 -0.0442
63396W        W 6334  13.318  27.497  19.976  0.3131 -0.2381  0.0267
63397W        W 6335  11.913  26.936  17.763 -0.3581  0.1749 -0.0903
63398W        W 6336  10.295  30.410  17.194  0.0146 -0.1689  0.0659
63399W        W 6337  10.275  28.095  16.362 -0.1109 -0.1813  0.1044
63400W        W 6338  10.752  26.229  16.411  0.0919 -0.3320 -0.2452
63401W        W 6339  10.871  26.115  18.461  0.0262  0.1255 -0.0312
63402W        W 6340  12.064  28.427  19.664 -0.0305  0.1013  0.3337
63403W        W 6341  14.116  25.245  16.020  0.1455 -0.1090  0.2544
63404W        W 6342  10.961  26.561  18.837  0.3205  0.1034  0.0233
63405W        W 6343  14.605  24.316  16.898  0.2509 -0.1467  0.1006
63406W        W 6344  12.175  29.737  18.787  0.0394 -0.0880  0.0337
63407W        W 6345  14.300  28.502  17.742 -0.3539 -0.0294  0.0263
63408W        W 6346  13.773  27.289  16.116 -0.0681 -0.2609  0.0274
63409W        W 6347  13.874  28.092  15.275  0.3252 -0.0003 -0.2207
63410W        W 6348  10.511  26.689  18.648  0.2537 -0.1037 -0.1334
63411W        W 6349  10.750  26.944  17.251 -0.1940 -0.1792 -0.2823
63412W        W 6350  10.003  27.136  20.983 -0.0560  0.3327 -0.3367
63413W        W 6351  10.193  26.579  17.517  0.0941  0.1605  0.2806
63414W        W 6352  14.150  28.119  19.913 -0.1141 -0.1072  0.2528
63415W        W 6353  11.494  25.319  16.802 -0.1055 -0.4662  0.1778
63416W        W 6354  14.972  26.307  16.454  0.0129 -0.0407  0.2853
63417W        W 6355  13.855  28.067  17.183  0.1349  0.3402 -0.1435
63418W        W 6356  11.192  28.500  16.672 -0.3125 -0.1082 -0.0914
63419W        W 6357  13.753  25.300  18.490  0.1345  0.2024  0.1889
63420W        W 6358  13.439  27.695  15.897 -0.0596 -0.0121  0.1786
63421W        W 6359  13.261  29.857  18.880  0.0319  0.1023  0.2397
63422W        W 6360  13.041  29.219  17.669 -0.1723 -0.1161 -0.1603
63423W        W 6361  10.901  26.389  19.868 -0.1594  0.0158 -0.0216
63424W        W 6362   9.882  25.879  16.810 -0.0208  0.0669 -0.2769
63425W        W 6363  11.588  30.623  19.163  0.0742  0.1094  0.3385
63426W        W 6364  12.668  27.574  18.102  0.1507 -0.1425 -0.2807
63427W        W 6365  12.105  25.573  15.565 -0.3264  0.2906  0.3336
63428W        W 6366  13.291  28.422  18.883 -0.2230 -0.0058 -0.1987
63429W        W 6367  13.124  28.562  16.643  0.1057  0.5854 -0.1426
63430W        W 6368  11.387  28.113  18.543  0.2228 -0.2277 -0.0635
63431W        W 6369  12.497  25.691  18.892 -0.0902 -0.1184  0.0899
63432W        W 6370  13.733  26.552  17.939  0.1264  0.0384 -0.1539
63433W        W 6371  14.215  28.117  16.807  0.1009  0.0824  0.0650
63434W        W 6372  10.564  25.114  16.420  0.0927  0.0327  0.1961
63435W        W 6373  13.218  28.657  18.419 -0.1055 -0.0598  0.0096
63436W        W 6374  11.423  28.830  15.899  0.2158  0.0892 -0.0442
63437W        W 6375  10.286  27.368  16.960  0.0230  0.0471  0.1465
63438W        W 6376  12.559  27.659  16.326  0.0233 -0.0896  0.0946
63439W        W 6377  14.734  26.102  17.132 -0.4185 -0.0049 -0.1061
63440W        W 6378   9.841  27.145  20.050 -0.1184 -0.0034 -0.0652
63441W        W 6379  12.928  27.012  19.214 -0.3036  0.2532  0.1610
63442W        W 6380  10.324  26.253  16.778  0.1281 -0.1357  0.2216
63443W        W 6381  10.868  28.560  19.762  0.1767  0.2301 -0.1559
63444W        W 6382  14.145  26.557  16.526  0.1466 -0.1242  0.1468
63445W        W 6383  13.081  27.147  16.807 -0.2390  0.2747 -0.3195
63446W        W 6384  13.125  28.065  18.298  0.0309  0.2267  0.2745
63447W        W 6385  13.132  28.393  17.868 -0.1928  0.3078  0.1555
63448W        W 6386  13.964  25.733  16.078 -0.2895  0.1288  0.1606
63449W        W 6387  13.548  26.255  15.222 -0.2545  0.1561  0.2571
63450W        W 6388  11.902  26.954  19.123 -0.3523  0.2627 -0.3514
63451W        W 6389  11.917  27.928  17.499 -0.3040 -0.0357  0.3092
63452W        W 6390  10.883  27.900  17.436  0.0128  0.1141 -0.0749
63453W        W 6391  12.631  26.490  15.704 -0.3136  0.1599  0.0673
63454W        W 6392  14.973  27.081  16.711  0.1269 -0.2737 -0.0263
63455W        W 6393  10.583  28.258  18.046 -0.1796 -0.1526 -0.0802
63456W        W 6394  13.294  26.181  18.674  0.1573 -0.1498 -0.2134
63457W        W 6395  12.854  28.360  18.560 -0.1071  0.0075 -0.3577
63458W        W 6396  12.423  25.430  18.258 -0.0277 -0.2518  0.1377
63459W        W 6397  10.873  26.829  15.795  0.0681  0.0895  0.0987
63460W        W 6398  11.537  26.476  16.139 -0.2018  0.1060  0.1406
63461W        W 6399   9.290  28.956  15.628 -0.0735  0.4095 -0.0787
63462W        W 6400  12.259  25.937  19.351  0.0086 -0.0533  0.0267
63463W        W 6401  13.226  25.782  16.805  0.0285  0.0254  0.0360
63464W        W 6402  13.243  25.418  19.178 -0.2137  0.0796 -0.0201
63465W        W 6403  14.934  26.057  18.505 -0.0795  0.2187 -0.1828
63466W        W 6404  13.393  25.994  16.365  0.2346 -0.2791  0.1261
63467W        W 6405  13.813  25.862  17.244 -0.0582 -0.0638  0.3560
63468W        W 6406  11.197  27.361  15.740  0.0697 -0.1377 -0.0565
63469W        W 6407  11.789  25.434  19.516  0.0701  0.1555 -0.0100
63470W        W 6408  10.735  27.518  17.125  0.0197 -0.1105 -0.1438
63471W        W 6409  11.160  28.880  19.197 -0.3888  0.0575 -0.2836
63472W        W 6410  13.477  27.588  18.337 -0.1628  0.2442 -0.0219
63473W        W 6411  13.738  28.912  15.560  0.3267 -0.2243  0.0762
63474W        W 6412  12.627  26.196  19.170  0.2758 -0.2773  0.1683
63475W        W 6413  13.301  26.622  17.092 -0.2856 -0.1692  0.1243
63476W        W 6414  12.590  27.942  15.574  0.2599 -0.1167 -0.0317
63477W        W 6415  11.893  27.940  16.996 -0.3612 -0.1177  0.3092
63478W        W 6416  12.786  25.779  17.410  0.0160 -0.3256 -0.0961
63479W        W 6417  12.354  26.700  18.120  0.2574 -0.1457 -0.0188
63480W        W 6418  11.841  28.504  15.271 -0.1981 -0.4398 -0.1498
63481W        W 6419  11.845  26.489  18.865  0.3422  0.1787  0.2458
63482W        W 6420  12.174  27.956  16.491 -0.0217  0.1792 -0.1304
63483W        W 6421  13.526  27.262  16.583  0.1619 -0.1274 -0.2766
63484W        W 6422  11.428  30.221  18.258 -0.1623 -0.0074 -0.0940
63485W        W 6423  12.164  25.787  14.763  0.0748 -0.0804 -0.1110
63486W        W 6424  10.386  26.641  15.600 -0.0378  0.0792  0.0081
63487W        W 6425  15.309  26.751  16.848 -0.0468 -0.3597  0.3921
63488W        W 6426  14.420  30.221  18.260 -0.1595  0.1525 -0.1884
63489W        W 6427  10.109  27.312  18.814 -0.1611 -0.2370  0.0115
63490W        W 6428  13.281  25.791  17.394  0.0950  0.2400  0.3129
63491W        W 6429  10.728  29.356  18.975 -0.3113 -0.0907 -0.2912
63492W        W 6430  12.981  26.622  18.876 -0.0028 -0.1797  0.0806
63493W        W 6431  14.385  26.005  15.797 -0.1283  0.2334 -0.1001
63494W        W 6432  13.175  27.406  17.776 -0.1884 -0.3043 -0.1134
63495W        W 6433  11.049  27.995  18.896  0.0706  0.1847 -0.0155
63496W        W 6434  11.631  27.563  17.154  0.0882  0.3960  0.0222
63497W        W 6435  14.404  26.910  20.477 -0.3335  0.2119 -0.0203
63498W        W 6436  13.471  26.156  17.108  0.1602  0.3294  0.5070
63499W        W 6437  12.324  28.591  15.155 -0.2788 -0.0516  0.4118
63500W        W 6438  13.416  28.118  17.430  0.0550  0.1080  0.0434
63501W        W 6439  12.361  27.204  17.608 -0.0814 -0.1216 -0.0093
63502W        W 6440  11.690  27.992  16.214 -0.0243 -0.0369  0.0050
63503W        W 6441  11.900  26.534  20.915  0.1732  0.1734 -0.1339
63504W        W 6442  14.214  26.450  20.657  0.2269  0.0448 -0.1390
63505W        W 6443  11.969  26.124  17.209  0.1911  0.2480  0.1242
63506W        W 6444  11.798  26.225  18.436  0.2353 -0.0558  0.1134
63507W        W 6445  11.846  28.401  17.754  0.0410 -0.3260 -0.1157
63508W        W 6446  14.513  27.451  17.306 -0.0765  0.0326 -0.0533
63509W        W 6447  11.943  25.755  18.585 -0.0257  0.3557 -0.0284
63510W        W 6448  10.485  27.694  19.683 -0.0067  0.3870  0.0820
63511W        W 6449  12.463  24.351  17.340 -0.0777  0.1542  0.1485
63512W        W 6450  14.665  29.512  16.802  0.1869 -0.2182  0.0839
63513W        W 6451  13.690  27.720  20.223 -0.0643  0.1550  0.0496
63514W        W 6452  12.795  26.872  17.132 -0.1032 -0.0391  0.2254
63515W        W 6453  10.307  28.218  18.507 -0.2355  0.3755  0.2643
63516W        W 6454  13.084  27.543  16.427 -0.2990  0.1044 -0.0909
63517W        W 6455  13.191  26.693  18.439  0.1285 -0.0080  0.1878
63518W        W 6456  11.091  28.521  18.269 -0.0634  0.3524 -0.0630
63519W        W 6457  11.326  27.198  16.479 -0.0655  0.0586  0.2392
63520W        W 6458  11.518  28.763  18.510  0.0847 -0.0202 -0.2206
63521W        W 6459  14.574  25.765  16.813  0.1082  0.0190 -0.2541
63522W        W 6460  13.060  29.269  15.871  0.0444 -0.0724 -0.2736
63523W        W 6461  13.338  27.591  16.930  0.0492  0.3352  0.2348
63524W        W 6462  13.738  25.824  18.620  0.0628 -0.2384 -0.0679
63525W        W 6463  13.437  27.135  15.769 -0.0234  0.0392 -0.0703
63526W        W 6464  14.836  26.377  19.879 -0.0340  0.1870 -0.0063
63527W        W 6465  12.811  27.101  19.882  0.1280  0.0514  0.3308
63528W        W 6466  12.743  27.497  17.581  0.0058  0.3399 -0.2550
63529W        W 6467   9.715  26.693  19.180 -0.3896 -0.0717  0.0653
63530W        W 6468  12.364  30.503  20.148  0.0048 -0.0641 -0.2496
63531W        W 6469  10.598  27.211  18.896 -0.0462  0.4008  0.1532
63532W        W 6470  12.065  26.712  16.848 -0.3157  0.1679 -0.1886
63533W        W 6471  11.893  25.463  16.485  0.2603  0.0282  0.1117
63534W        W 6472  11.978  27.386  18.813 -0.2545  0.3354  0.1537
63535W        W 6473  13.666  28.226  20.114 -0.1974  0.1944  0.0555
63536W        W 6474  13.120  28.521  16.154  0.2130  0.1442 -0.1671
63537W        W 6475  14.647  26.773  16.454  0.2776 -0.0133  0.0295
63538W        W 6476  11.316  27.862  19.316 -0.2725 -0.2249 -0.4307
63539W        W 6477  13.165  27.903  18.816 -0.0362 -0.0483 -0.4898
63540W        W 6478  12.405  27.520  15.822 -0.1737 -0.0159 -0.1071
63541W        W 6479  11.711  27.616  16.574 -0.0404 -0.1768 -0.0056
63542W        W 6480  10.416  27.941  17.685 -0.1770 -0.0393 -0.2646
63543W        W 6481  12.885  26.115  17.777 -0.0527  0.2815 -0.4545
63544W        W 6482  12.924  24.577  17.132  0.1785 -0.0810  0.0931
63545W        W 6483  12.344  26.579  18.936  0.0244  0.0637  0.3843
63546W        W 6484  12.903  27.538  19.066 -0.2661 -0.3970 -0.2966
63547W        W 6485  12.667  26.822  18.560  0.0019 -0.3163 -0.3715
63548W        W 6486  10.242  27.497  20.048 -0.0164  0.3171  0.0064
63549W        W 6487  12.667  28.259  18.072 -0.1941 -0.1686  0.1599
63550W        W 6488  13.570  28.559  16.416 -0.0797 -0.1655 -0.2004
63551W        W 6489  12.403  26.387  16.592 -0.4280  0.2506 -0.1464
63552W        W 6490  12.934  28.052  16.306 -0.1484  0.1481 -0.2113
63553W        W 6491  13.814  26.341  17.450 -0.2043  0.2813 -0.0702
63554W        W 6492  10.734  25.985  17.498 -0.0494 -0.0396 -0.0784
63555W        W 6493  13.281  26.415  19.288 -0.0450  0.0672  0.0410
63556W        W 6494  12.385  25.236  15.812  0.1311 -0.0089 -0.2523
63557W        W 6495  13.902  26.326  19.021  0.0411 -0.4666 -0.0501
63558W        W 6496  12.712  29.732  16.143 -0.2478 -0.0209  0.1795
63559W        W 6497  14.749  28.672  18.519 -0.2090  0.3130  0.0365
63560W        W 6498  14.465  26.415  16.099 -0.3026  0.0408 -0.2127
63561W        W 6499   9.969  27.035  17.984 -0.0100 -0.0033  0.2047
63562W        W 6500  11.641  28.756  19.050  0.3696  0.0158 -0.1801
63563W        W 6501  10.692  26.366  15.891 -0.4108  0.1493 -0.0277
63564W        W 6502  12.633  26.986  15.676  0.1022  0.0973  0.2002
63565W        W 6503  12.306  28.232  17.669 -0.1449 -0.0412 -0.1585
63566W        W 6504  13.300  25.396  18.678 -0.0493 -0.1584  0.0843
63567W        W 6505  12.152  26.263  15.592 -0.4918 -0.3088  0.1095
63568W        W 6506  12.882  26.483  17.398  0.2799  0.1372  0.0809
63569W        W 6507  10.642  28.846  16.594  0.0913  0.1504 -0.3492
63570W        W 6508  12.738  26.044  16.573 -0.3799 -0.0924  0.0296
63571W        W 6509  11.828  30.099  18.836 -0.0229  0.3670  0.2148
63572W        W 6510  11.211  27.436  17.912 -0.3617 -0.0720 -0.3169
63573W        W 6511  11.273  28.210  16.097 -0.3601 -0.0212 -0.0678
63574W        W 6512  12.185  25.320  18.717 -0.1529  0.2382 -0.0201
63575W        W 6513  12.671  27.643  16.799  0.0367 -0.2760 -0.0060
63576W        W 6514  10.907  25.738  19.073 -0.2855  0.2601  0.0120
63577W        W 6515  12.635  24.335  16.730  0.1019  0.5034 -0.1606
63578W        W 6516  11.600  27.223  18.181 -0.0582  0.2264  0.1548
63579W        W 6517  12.616  26.715  16.226  0.0067 -0.0114  0.0198
63580W        W 6518  12.718  27.307  18.639  0.1973 -0.3086 -0.1337
63581W        W 6519  13.915  28.116  17.782 -0.0664 -0.1910  0.1516
63582W        W 6520  11.792  28.391  17.224  0.1606 -0.2130  0.1418
63583W        W 6521  10.810  27.810  20.801  0.1073  0.0936 -0.0067
63584W        W 6522  11.957  26.870  20.175  0.3412  0.0101 -0.0938
63585W        W 6523  13.502  26.797  17.513  0.1482  0.0426 -0.0871
63586W        W 6524  12.831  26.631  16.692  0.0485 -0.1319  0.3581
63587W        W 6525  12.937  27.785  15.869 -0.0644 -0.3643  0.1502
63588W        W 6526  10.846  28.455  19.188 -0.2951 -0.1244 -0.0121
63589W        W 6527   9.968  28.212  17.478 -0.5866 -0.0870  0.0495
63590W        W 6528  12.304  28.361  15.589 -0.0830  0.0933  0.0060
63591W        W 6529  12.182  28.495  18.282  0.2267 -0.0217 -0.1862
63592W        W 6530  12.547  27.669  14.779  0.0075  0.3035  0.1346
63593W        W 6531  11.866  29.193  18.630  0.1854  0.2201  0.0617
63594W        W 6532  13.699  26.697  16.392 -0.1689  0.0343  0.0984
63595W        W 6533  10.833  28.501  17.627  0.1156 -0.0749 -0.0381
63596W        W 6534  11.070  28.216  15.659 -0.2831  0.1445 -0.1141
63597W        W 6535  13.597  28.530  15.268 -0.1264  0.1318  0.0721
63598W        W 6536  10.716  28.820  17.101  0.1190 -0.1605  0.1634
63599W        W 6537  14.878  27.544  19.733  0.1887 -0.0201  0.2092
63600W        W 6538  13.673  25.212  16.748  0.1805  0.1772  0.1610
63601W        W 6539  14.175  27.108  19.751 -0.3566 -0.1939 -0.6286
63602W        W 6540  15.327  26.463  17.434  0.0251  0.0134 -0.2137
63603W        W 6541  12.244  29.511  19.228 -0.1721  0.4323  0.1387
63604W        W 6542  12.489  26.214  17.987 -0.1676  0.2143 -0.4999
63605W        W 6543  13.057  26.314  15.434 -0.0651  0.0763  0.0972
63606W        W 6544  12.062  25.541  19.115 -0.1168 -0.0735 -0.0633
63607W        W 6545  12.912  25.933  18.249 -0.1618 -0.0794  0.1675
63608W        W 6546  11.071  29.386  19.916 -0.1582  0.0606  0.2377
63609W        W 6547  13.392  28.936  16.782 -0.1996 -0.1922 -0.0861
63610W        W 6548  10.567  26.392  17.229 -0.0930 -0.1699  0.0000
63611W        W 6549  11.794  28.058  18.235  0.1290  0.0764 -0.0924
63612W        W 6550  13.827  26.179  16.249 -0.0803  0.0405 -0.0959
63613W        W 6551  13.205  28.759  15.620 -0.2319 -0.1724  0.1917
63614W        W 6552  12.310  27.671  17.708  0.3949 -0.2210 -0.1706
63615W        W 6553  13.465  28.109  16.201  0.0523 -0.1202 -0.1958
63616W        W 6554  12.997  29.629  18.499  0.0080  0.2027 -0.0978
63617W        W 6555  11.868  28.869  18.043  0.0310  0.1266 -0.0779
63618W        W 6556  10.683  25.700  16.624 -0.1685  0.0387  0.1784
63619W        W 6557  13.891  27.649  18.103 -0.1510 -0.0867  0.0988
63620W        W 6558  10.560  26.178  18.932  0.0152 -0.0733  0.2207
63621W        W 6559  13.993  25.171  19.387  0.2797 -0.2345 -0.1234
63622W        W 6560  11.737  27.161  16.267  0.0248  0.1089  0.0643
63623W        W 6561  14.249  28.378  18.295 -0.1022  0.1690 -0.0612
63624W        W 6562  13.402  26.847  20.791  0.0054 -0.2990  0.2590
63625W        W 6563  11.306  26.886  17.461 -0.1097 -0.1421 -0.0260
63626W        W 6564  12.629  26.218  16.109  0.0760 -0.1967  0.2626
63627W        W 6565  14.833  27.103  20.947 -0.0569 -0.1483 -0.0496
63628W        W 6566  14.701  27.776  15.956 -0.0533  0.1280  0.2430
63629W        W 6567  12.478  28.736  19.567 -0.4582 -0.1116  0.1213
63630W        W 6568  10.965  25.533  17.532 -0.1805  0.0225 -0.3165
63631W        W 6569  13.074  26.728  15.787 -0.2001 -0.0486  0.1664
63632W        W 6570  11.100  26.761  16.504 -0.1894  0.2594 -0.0665
63633W        W 6571  13.553  27.591  18.941  0.6573 -0.0790  0.3516
63634W        W 6572  14.397  28.867  18.185  0.2160 -0.1026 -0.2608
63635W        W 6573  11.021  25.401  16.656  0.0988  0.0629  0.1738
63636W        W 6574  13.642  28.156  16.703  0.0408  0.0076  0.0692
63637W        W 6575  13.694  27.210  17.827  0.0299 -0.0491 -0.0889
63638W        W 6576  11.891  28.709  15.832  0.0527  0.2567 -0.0808
63639W        W 6577  12.895  26.987  17.601 -0.0845  0.1627 -0.0665
63640W        W 6578  13.705  28.594  18.536  0.0506 -0.1803  0.0692
63641W        W 6579  11.525  27.220  19.045 -0.0961 -0.0367  0.1633
63642W        W 6580  12.757  27.039  18.075 -0.0848  0.1547 -0.2497
63643W        W 6581  14.437  29.178  19.005  0.2249  0.1484  0.1789
63644W        W 6582  12.637  26.000  15.602 -0.2785  0.1857  0.1117
63645W        W 6583  14.149  26.319  17.774  0.3394 -0.0705 -0.0014
63646W        W 6584  11.007  29.199  16.721 -0.2455 -0.0753  0.0423
63647W        W 6585  15.218  26.185  16.985  0.1766  0.1837  0.0025
63648W        W 6586  13.755  27.131  18.721 -0.0785 -0.1850 -0.3650
63649W        W 6587  12.791  29.117  15.463 -0.1801 -0.0331 -0.1554
63650W        W 6588  13.677  26.485  18.497 -0.3213 -0.0688 -0.0369
63651W        W 6589  12.314  27.999  18.260  0.2421  0.0462 -0.1648
63652W        W 6590  12.461  28.237  19.396 -0.0338  0.1857 -0.1837
63653W        W 6591  11.768  26.669  15.676 -0.1368 -0.4587  0.0221
63654W        W 6592  12.144  27.898  19.187 -0.0806 -0.2002 -0.2114
63655W        W 6593  12.317  27.096  17.099 -0.0180  0.0141 -0.1238
63656W        W 6594  12.281  27.981  15.998  0.0994 -0.0291  0.0851
63657W        W 6595  13.328  27.390  19.319 -0.1986 -0.3232 -0.2290
63658W        W 6596  15.172  27.228  16.195 -0.1460  0.2088  0.1314
63659W        W 6597  13.943  29.897  16.766 -0.0345 -0.4533 -0.3192
63660W        W 6598  11.995  26.630  17.372  0.2075  0.1277  0.2685
63661W        W 6599  14.506  27.193  16.846 -0.0213 -0.2848 -0.0394
63662W        W 6600  13.596  26.761  15.505 -0.1877  0.1709 -0.2303
63663W        W 6601   9.943  26.735  18.485 -0.0287 -0.0619 -0.1224
63664W        W 6602  10.787  26.038  15.524 -0.1671  0.3860 -0.0659
63665W        W 6603  11.559  28.060  15.293 -0.1573 -0.1229  0.1835
63666W        W 6604  11.499  28.140  16.696  0.1463  0.0794  0.1762
63667W        W 6605  12.781  27.662  20.049 -0.1324  0.2333 -0.0221
63668W        W 6606  12.541  26.715  19.374 -0.2983 -0.3915  0.0439
63669W        W 6607  11.787  26.706  18.171  0.0897  0.2037  0.1866
63670W        W 6608  11.061  26.450  16.132 -0.0658  0.2372  0.2227
63671W        W 6609  13.602  29.287  15.893  0.1989  0.0179 -0.1668
63672W        W 6610  11.282  26.028  17.611 -0.1605  0.0539 -0.0158
63673W        W 6611  10.228  26.001  17.511 -0.0567 -0.1575  0.2168
63674W        W 6612  13.177  28.044  16.757  0.0459 -0.1036 -0.2329
63675W        W 6613  12.582  28.701  16.894 -0.2116  0.2156  0.5667
63676W        W 6614  13.965  26.575  15.980 -0.0778 -0.3673  0.0058
63677W        W 6615  13.519  28.171  19.221  0.0540  0.1176 -0.0164
63678W        W 6616  10.280  28.588  16.243  0.0210  0.0053  0.0325
63679W        W 6617  12.371  27.078  18.970  0.3499 -0.0990  0.0288
63680W        W 6618  11.049  27.034  19.103  0.2950 -0.2308 -0.0904
63681W        W 6619  10.625  25.906  16.059  0.0965 -0.2233  0.0449
63682W        W 6620  11.909  26.238  16.694 -0.0178  0.1349  0.1864
63683W        W 6621  13.546  28.489  17.086  0.1089 -0.1322 -0.5223
63684W        W 6622  13.319  29.868  16.727  0.0133  0.2976 -0.2362
63685W        W 6623  10.720  28.578  20.433 -0.3005  0.2655 -0.0822
63686W        W 6624  12.724  28.058  19.033 -0.2859  0.1519  0.1046
63687W        W 6625  10.881  24.296  17.968 -0.0727 -0.0658 -0.1057
63688W        W 6626  12.979  28.295  17.129  0.1904 -0.0075  0.1306
63689W        W 6627  12.973  28.637  19.714 -0.0121 -0.0900  0.1699
63690W        W 6628  14.754  27.651  16.846 -0.1279 -0.2972 -0.0528
63691W        W 6629  13.330  26.348  17.649 -0.1447  0.2094 -0.5336
63692W        W 6630  13.932  27.548  17.146  0.0047 -0.1999  0.1683
63693W        W 6631  11.253  25.555  21.345  0.5096 -0.1538 -0.1360
63694W        W 6632  10.887  27.621  20.284 -0.5061  0.3766  0.3877
63695W        W 6633  14.289  27.929  17.975 -0.0248  0.3872 -0.5267
63696W        W 6634  11.897  25.359  16.000  0.1319 -0.1261  0.2640
63697W        W 6635  12.861  25.485  16.409 -0.2946  0.1284  0.1583
63698W        W 6636  13.010  28.971  19.236 -0.0215  0.3384 -0.0215
63699W        W 6637  11.464  27.694  18.261 -0.2829 -0.4505 -0.1228
63700W        W 6638  14.449  27.220  15.457 -0.1800 -0.3386  0.3387
63701W        W 6639  12.174  26.906  18.518  0.2826  0.0557 -0.1154
63702W        W 6640  14.350  28.122  19.415 -0.1882 -0.0731  0.1533
63703W        W 6641  13.260  26.834  17.984 -0.2634  0.0076 -0.2945
63704W        W 6642  12.212  27.414  16.555  0.1997  0.2453  0.1069
63705W        W 6643  14.249  25.979  16.501  0.1138 -0.2313  0.0408
63706W        W 6644  14.027  30.473  18.452 -0.0936 -0.0313 -0.2046
63707W        W 6645  13.241  29.494  20.693 -0.2135  0.0916 -0.0721
63708W        W 6646  12.917  27.459  19.601 -0.0563  0.2568  0.3200
63709W        W 6647  14.639  27.415  18.301 -0.0355 -0.0368  0.1787
63710W        W 6648  10.045  25.567  19.233  0.1194 -0.0822 -0.2648
63711W        W 6649  13.315  26.350  18.123 -0.4099  0.0280 -0.0995
63712W        W 6650  11.904  27.573  16.016  0.2862  0.0096 -0.0855
63713W        W 6651  14.482  25.917  18.880 -0.0146 -0.1247  0.1303
63714W        W 6652  10.564  27.128  18.311  0.2237 -0.1587 -0.1052
63715W        W 6653  13.766  25.304  15.564  0.1694 -0.3296  0.0459
63716W        W 6654  11.620  29.311  19.971 -0.1652  0.1013  0.1496
63717W        W 6655  10.989  28.416  17.115  0.0591  0.2031 -0.2185
63718W        W 6656  10.968  28.509  23.901  0.3287 -0.0863  0.2064
63719W        W 6657  11.974  27.732  23.777  0.0428 -0.2429  0.1330
63720W        W 6658  14.028  25.756  19.639  0.3763 -0.0661  0.0124
63721W        W 6659  13.078  27.238  20.327 -0.0757 -0.1118  0.2252
63722W        W 6660  11.179  25.582  20.591  0.2076  0.0565  0.3313
63723W        W 6661  12.324  29.643  20.393 -0.3411 -0.0568 -0.0259
63724W        W 6662  11.031  26.260  23.854 -0.0723 -0.2831 -0.2504
63725W        W 6663  13.487  28.524  22.826 -0.2426  0.2256 -0.0027
63726W        W 6664  14.830  26.931  23.835  0.2161  0.1351  0.2085
63727W        W 6665  12.757  27.873  18.529 -0.3323 -0.1330 -0.0124
63728W        W 6666  12.485  26.921  21.550  0.2130  0.2744  0.0209
63729W        W 6667  12.026  28.804  22.287  0.1303 -0.2360  0.3079
63730W        W 6668  11.798  26.304  19.337  0.2520  0.2031 -0.0879
63731W        W 6669  10.659  24.002  21.777 -0.1938 -0.1823 -0.0366
63732W        W 6670  13.596  27.702  21.988  0.0434 -0.2050  0.1366
63733W        W 6671  12.332  26.543  21.205  0.2474  0.2690  0.2530
63734W        W 6672  12.158  26.457  20.511 -0.0599  0.5699 -0.1121
63735W        W 6673  10.626  26.829  20.697  0.2593  0.0129 -0.0352
63736W        W 6674  11.275  29.398  20.797 -0.0306 -0.0989  0.0291
63737W        W 6675  11.548  25.627  22.753  0.2408 -0.0748 -0.0759
63738W        W 6676  13.722  28.181  23.240  0.0092 -0.0515  0.0707
63739W        W 6677  13.389  28.306  19.689  0.0572 -0.0366 -0.2979
63740W        W 6678  11.540  27.006  20.544  0.1783 -0.2155  0.1262
63741W        W 6679  10.669  26.801  21.696  0.0043  0.2075 -0.2242
63742W        W 6680  12.803  27.629  20.567  0.0228 -0.0407 -0.1197
63743W        W 6681  12.323  27.657  20.723 -0.0325  0.3862 -0.0119
63744W        W 6682  14.819  26.770  21.449 -0.0054  0.1255 -0.3041
63745W        W 6683  11.111  29.386  19.292  0.1224 -0.0118  0.1393
63746W        W 6684  11.820  27.723  20.088 -0.0493 -0.0525  0.3879
63747W        W 6685  14.179  27.376  22.993 -0.0813  0.0937 -0.1475
63748W        W 6686  11.252  28.218  22.402  0.2931 -0.0627  0.0147
63749W        W 6687  11.142  28.202  21.714  0.2867 -0.0268  0.0825
63750W        W 6688  12.157  27.670  21.536  0.1367 -0.0192 -0.1088
63751W        W 6689  14.435  28.591  20.924 -0.0155  0.0932  0.1493
63752W        W 6690  13.960  28.640  23.120 -0.2827 -0.2287  0.0176
63753W        W 6691  10.424  28.323  23.811  0.0439  0.2139 -0.0930
63754W        W 6692  10.952  28.286  20.757 -0.2854  0.1559 -0.1444
63755W        W 6693  13.882  30.228  22.512 -0.3068  0.0129 -0.1066
63756W        W 6694  12.041  28.806  20.930  0.1903 -0.0498  0.0604
63757W        W 6695  13.362  26.353  20.284 -0.1082  0.0136 -0.1756
63758W        W 6696  13.697  29.271  20.717 -0.1727  0.2400 -0.0001
63759W        W 6697  10.767  29.166  20.618  0.0156  0.0785  0.1964
63760W        W 6698  11.644  27.342  21.406 -0.0732  0.2706 -0.1503
63761W        W 6699  12.889  27.924  24.205  0.3016 -0.1800  0.0277
63762W        W 6700  11.994  26.475  21.523 -0.4655  0.2690 -0.4053
63763W        W 6701  14.258  28.043  21.167  0.0072 -0.2829 -0.1406
63764W        W 6702  12.159  30.071  20.192  0.0526  0.1354 -0.5997
63765W        W 6703  13.521  26.756  18.969  0.1328 -0.0962 -0.2514
63766W        W 6704  11.747  26.577  19.784  0.0999  0.1952 -0.1620
63767W        W 6705  13.115  26.025  19.879 -0.1551  0.0278  0.1467
63768W        W 6706  10.307  25.641  20.724 -0.4690  0.1803 -0.1585
63769W        W 6707  11.814  27.917  21.148 -0.0897 -0.2529  0.0512
63770W        W 6708  12.117  25.327  21.556 -0.1763 -0.0404  0.2330
63771W        W 6709  14.407  27.923  23.594  0.3086  0.1658  0.0136
63772W        W 6710  12.963  25.193  20.508  0.0183 -0.0388  0.1241
63773W        W 6711  13.775  27.513  21.521  0.5137  0.1155  0.1193
63774W        W 6712  12.063  29.039  23.697  0.2775  0.2696  0.0491
63775W        W 6713  12.253  26.780  21.969 -0.0109  0.3426 -0.0566
63776W        W 6714  13.185  28.495  20.202 -0.1529  0.4598 -0.2496
63777W        W 6715  13.773  29.783  21.526 -0.1356 -0.3592  0.0500
63778W        W 6716  13.195  29.353  18.904  0.0502 -0.0289 -0.1279
63779W        W 6717  11.086  26.768  20.495  0.1683  0.3734 -0.0953
63780W        W 6718  11.949  28.611  23.337 -0.2245 -0.1905 -0.3252
63781W        W 6719  11.088  27.099  24.220 -0.1147  0.2410 -0.1105
63782W        W 6720  11.424  25.488  18.290  0.0235 -0.3598 -0.0173
63783W        W 6721  14.107  28.833  23.626  0.0111 -0.1604  0.2266
63784W        W 6722  11.078  28.597  22.653  0.1230  0.1481 -0.5063
63785W        W 6723  14.461  26.083  20.880  0.0750 -0.2721  0.1473
63786W        W 6724  12.077  28.149  21.520 -0.1640 -0.1285  0.0584
63787W        W 6725  13.891  28.123  22.152 -0.1184  0.0478 -0.1108
63788W        W 6726  14.797  29.519  20.433 -0.0630  0.0929  0.3009
63789W        W 6727  14.906  25.886  21.326  0.2983  0.0281  0.1897
63790W        W 6728  12.323  25.711  21.715 -0.0944 -0.1971 -0.1699
63791W        W 6729  11.917  28.285  20.225 -0.3489 -0.0648 -0.1510
63792W        W 6730  11.439  28.373  19.873 -0.1420  0.0904  0.0001
63793W        W 6731  15.586  29.848  22.969  0.1547  0.1595 -0.0272
63794W        W 6732  13.544  26.799  20.298  0.3946  0.4523  0.0602
63795W        W 6733  11.489  28.062  20.334  0.0838 -0.1993 -0.1450
63796W        W 6734  11.649  26.379  24.544  0.0725  0.3193 -0.0636
63797W        W 6735  12.803  27.854  23.402 -0.1181  0.4150 -0.1450
63798W        W 6736  11.717  28.729  19.522  0.1797 -0.2362  0.0757
63799W        W 6737  10.633  28.060  22.523 -0.3956  0.0800 -0.2775
63800W        W 6738  12.360  26.828  19.838  0.1361 -0.3942 -0.0435
63801W        W 6739  11.562  25.508  23.309  0.0164  0.0588  0.1290
63802W        W 6740  12.505  29.578  22.429 -0.0731  0.1776 -0.0483
63803W        W 6741  13.814  25.480  20.183  0.1985 -0.0021  0.1238
63804W        W 6742  11.715  26.522  22.662 -0.1220 -0.1671  0.4672
63805W        W 6743  14.748  26.897  23.022 -0.0018 -0.2739  0.0601
63806W        W 6744  13.654  28.090  20.648 -0.1625  0.0097 -0.2390
63807W        W 6745  13.266  29.661  21.429 -0.2828 -0.0322  0.0821
63808W        W 6746  14.526  25.620  19.729  0.3611  0.1221  0.1697
63809W        W 6747  13.749  29.370  19.809  0.1139  0.2097  0.0065
63810W        W 6748  12.178  26.387  22.260  0.4461 -0.0701  0.0191
63811W        W 6749  11.206  26.204  21.115  0.0292  0.0605 -0.0369
63812W        W 6750  11.440  25.059  23.531 -0.0588  0.1397  0.3072
63813W        W 6751  10.288  25.711  22.941  0.2039 -0.0741  0.2515
63814W        W 6752  14.729  27.613  22.268  0.1369 -0.0409 -0.0406
63815W        W 6753  11.722  25.334  21.004  0.0807  0.2399 -0.0881
63816W        W 6754  12.709  26.214  21.179  0.0382 -0.1027  0.0159
63817W        W 6755  12.588  27.445  21.512  0.0146  0.1261 -0.0894
63818W        W 6756  11.324  26.782  20.992  0.1668  0.2136  0.0839
63819W        W 6757  13.119  26.719  22.346  0.2272 -0.0693  0.0410
63820W        W 6758  12.786  28.109  20.724  0.1638 -0.3588  0.0461
63821W        W 6759  14.334  29.610  22.994  0.2268 -0.2394 -0.0432
63822W        W 6760  13.804  28.543  22.400 -0.0799  0.3130  0.3813
63823W        W 6761  12.133  27.282  23.754  0.0992 -0.2339 -0.2516
63824W        W 6762  10.364  26.065  20.922 -0.0813 -0.2179  0.2498
63825W        W 6763  11.042  29.056  21.279 -0.0912  0.1839 -0.3001
63826W        W 6764  12.796  27.091  20.745  0.1047 -0.2260  0.2150
63827W        W 6765  11.123  27.171  20.203 -0.0285 -0.0467  0.2687
63828W        W 6766  12.808  29.121  21.578 -0.1184  0.3101 -0.0739
63829W        W 6767  10.671  27.257  19.957 -0.1202 -0.1231 -0.0449
63830W        W 6768  11.302  28.463  21.293  0.0874 -0.0726 -0.0033
63831W        W 6769  13.109  26.251  21.641  0.0785 -0.2048  0.2914
63832W        W 6770  14.646  28.146  23.117  0.1695  0.4282 -0.1890
63833W        W 6771  14.213  25.749  20.125 -0.1008  0.1661  0.1434
63834W        W 6772  11.720  25.932  19.643 -0.1889  0.1127  0.3066
63835W        W 6773  12.477  30.367  21.708 -0.1193 -0.0030  0.1796
63836W        W 6774  10.621  29.978  20.065  0.1304  0.0630  0.0815
63837W        W 6775  11.458  25.805  20.971 -0.0513 -0.5663  0.1155
63838W        W 6776  12.249  26.954  20.647 -0.1576  0.2845  0.2148
63839W        W 6777  14.242  27.333  22.397 -0.2006  0.4704 -0.3213
63840W        W 6778  11.963  28.239  23.634  0.2399 -0.1042  0.1609
63841W        W 6779  13.182  27.483  23.006 -0.2859 -0.2155 -0.0194
63842W        W 6780  11.261  26.663  20.007 -0.2290  0.0335 -0.2597
63843W        W 6781  12.112  29.135  24.232  0.3258 -0.2028  0.2869
63844W        W 6782  15.055  26.335  21.561  0.3014  0.2069 -0.3388
63845W        W 6783  14.782  25.750  20.717  0.0139 -0.0559  0.1277
63846W        W 6784  11.487  27.076  22.354  0.0101 -0.2063 -0.2583
63847W        W 6785  12.427  28.008  21.052  0.3132 -0.0883 -0.0758
63848W        W 6786  13.588  25.629  19.499  0.1958 -0.0146  0.0900
63849W        W 6787  13.005  26.642  19.991 -0.0920 -0.1431  0.0268
63850W        W 6788  11.908  29.776  23.019  0.0357 -0.0325  0.0741
63851W        W 6789  11.807  28.040  19.609  0.1313  0.4751 -0.0299
63852W        W 6790  11.937  27.870  23.232 -0.0660 -0.3240 -0.0115
63853W        W 6791  12.407  27.731  19.648 -0.5426  0.2419  0.3388
63854W        W 6792  13.195  29.069  19.711  0.0887  0.3898  0.3621
63855W        W 6793  11.516  28.041  21.975  0.3831 -0.0740  0.1540
63856W        W 6794  13.024  28.899  23.329 -0.0077 -0.3132  0.1003
63857W        W 6795  13.452  28.016  22.390  0.1000 -0.1005 -0.2142
63858W        W 6796  13.252  27.595  22.453 -0.1964  0.2263  0.1802
63859W        W 6797  11.402  26.389  20.659  0.1204  0.0389  0.2057
63860W        W 6798  13.049  26.657  20.559  0.2362  0.1352  0.3298
63861W        W 6799  12.018  31.246  18.650 -0.1961 -0.2239 -0.2029
63862W        W 6800  13.688  26.463  21.569  0.1939 -0.1629  0.1931
63863W        W 6801  12.844  25.543  21.894  0.1372 -0.1590  0.0400
63864W        W 6802  12.816  26.335  23.021 -0.0082 -0.0046 -0.5279
63865W        W 6803  12.611  28.174  22.596  0.0093 -0.2553  0.1351
63866W        W 6804  13.907  28.480  20.867  0.1732  0.4846  0.4450
63867W        W 6805  14.714  27.059  22.307  0.4193  0.0416 -0.2215
63868W        W 6806  10.613  27.309  19.417 -0.2705 -0.2309 -0.0044
63869W        W 6807  12.667  26.035  22.045  0.1700  0.1379 -0.0857
63870W        W 6808  11.042  27.093  22.648  0.0771 -0.1307 -0.3681
63871W        W 6809  11.361  29.768  21.770 -0.3955 -0.0491  0.4144
63872W        W 6810  12.707  28.308  23.176  0.0907 -0.0194  0.2913
63873W        W 6811  13.898  26.690  21.113  0.0110 -0.3472  0.0590
63874W        W 6812  12.984  27.184  22.244  0.2349  0.0331 -0.0387
63875W        W 6813  12.969  25.801  18.848 -0.1379 -0.0545  0.1002
63876W        W 6814  12.008  29.317  20.245  0.0055 -0.0419  0.1239
63877W        W 6815  11.264  28.529  20.306 -0.1165 -0.0221 -0.1375
63878W        W 6816  10.865  25.662  21.605 -0.0047  0.2703 -0.1710
63879W        W 6817  11.625  28.988  23.425  0.4526  0.2347  0.1777
63880W        W 6818  14.081  27.125  20.231  0.0944 -0.0152  0.2620
63881W        W 6819  12.741  26.760  22.652 -0.1835  0.0597  0.3576
63882W        W 6820  12.310  29.111  20.617 -0.1235  0.0286 -0.2920
63883W        W 6821  13.874  25.430  23.434  0.0192 -0.0973 -0.0695
63884W        W 6822  10.192  28.608  20.419 -0.0055  0.0658  0.2993
63885W        W 6823  10.498  27.293  20.876  0.3262 -0.0398 -0.1788
63886W        W 6824  11.031  26.541  21.405 -0.1375 -0.0528  0.2298
63887W        W 6825  14.066  26.216  21.779  0.1687 -0.0212 -0.4051
63888W        W 6826  14.145  27.564  20.044 -0.2343 -0.0126 -0.0935
63889W        W 6827  12.573  26.115  22.596 -0.2284  0.1486 -0.1545
63890W        W 6828  11.972  27.360  20.442  0.1012 -0.1304 -0.0756
63891W        W 6829   9.871  29.641  21.284 -0.0193  0.0870 -0.2285
63892W        W 6830  12.463  28.805  22.084  0.0244  0.0944 -0.2138
63893W        W 6831  13.629  25.189  19.783 -0.1367  0.2691  0.1560
63894W        W 6832  14.382  28.553  22.720  0.1557  0.0180 -0.2978
63895W        W 6833  11.904  28.905  21.412 -0.2762 -0.0165  0.0793
63896W        W 6834   9.909  25.739  20.408 -0.1509 -0.0403 -0.1148
63897W        W 6835  14.450  28.862  24.023  0.1266 -0.0994 -0.1016
63898W        W 6836  13.917  26.908  20.611 -0.1006  0.0879  0.5237
63899W        W 6837  11.142  27.282  21.535 -0.0332  0.1994 -0.2296
63900W        W 6838  12.837  28.525  24.127 -0.1610  0.2313 -0.0887
63901W        W 6839  11.383  27.074  19.636  0.3218 -0.2254  0.0983
63902W        W 6840  11.756  29.278  20.726 -0.0224 -0.2973 -0.2067
63903W        W 6841  11.488  27.443  23.484 -0.1381 -0.0520 -0.2194
63904W        W 6842  14.378  28.439  23.381 -0.0618 -0.2987  0.2434
63905W        W 6843  12.159  26.101  20.897 -0.0305 -0.0459 -0.3593
63906W        W 6844  13.012  26.921  21.776  0.1106 -0.0507  0.0845
63907W        W 6845  12.408  25.849  20.243 -0.1093 -0.2424  0.0391
63908W        W 6846  12.507  27.296  21.999  0.1772  0.2836  0.2913
63909W        W 6847  13.191  27.054  22.792 -0.2390  0.6808  0.1292
63910W        W 6848  13.150  27.474  24.650 -0.0720 -0.2841  0.1124
63911W        W 6849  12.939  25.762  20.351 -0.3403 -0.0536  0.1886
63912W        W 6850  13.141  29.597  19.420  0.0751 -0.2122 -0.2007
63913W        W 6851  14.583  27.654  23.131 -0.0708 -0.1504  0.0174
63914W        W 6852  12.841  26.275  20.325  0.0246  0.2757  0.0076
63915W        W 6853  11.724  27.681  22.376 -0.1243 -0.2488  0.1777
63916W        W 6854  12.491  29.205  20.155 -0.0030  0.0078  0.1865
63917W        W 6855  10.439  26.997  21.296 -0.1794 -0.1073 -0.1099
63918W        W 6856  12.342  27.861  22.888  0.0044  0.0581 -0.4393
63919W        W 6857  10.796  30.163  19.140  0.1027 -0.1744  0.1962
63920W        W 6858  12.089  28.572  21.775  0.1694 -0.0466  0.0299
63921W        W 6859  14.884  24.701  20.525  0.2735  0.0522  0.3931
63922W        W 6860  14.112  28.237  18.775  0.1534  0.0698 -0.0494
63923W        W 6861  13.382  26.410  21.156  0.1532  0.1433  0.2048
63924W        W 6862  14.609  26.258  22.971  0.1235  0.1959  0.1140
63925W        W 6863  12.456  27.618  18.925  0.2516 -0.0955 -0.0530
63926W        W 6864  13.577  25.193  23.773  0.0513 -0.2522  0.1115
63927W        W 6865  13.349  25.720  21.674  0.2601  0.0774  0.2063
63928W        W 6866  12.800  28.364  21.230 -0.0720 -0.1985 -0.1311
63929W        W 6867  12.448  27.090  23.361 -0.3193 -0.0483  0.2527
63930W        W 6868  12.996  28.819  22.745  0.0389 -0.0276 -0.1839
63931W        W 6869  12.227  27.811  22.426 -0.1272 -0.2662 -0.1463
63932W        W 6870  13.706  27.205  20.971  0.1060  0.1205 -0.0710
63933W        W 6871  12.313  25.095  19.807  0.1600 -0.1707 -0.2723
63934W        W 6872  12.482  27.195  22.492 -0.2124 -0.0868 -0.2100
63935W        W 6873  15.115  28.201  23.178 -0.0299 -0.1543  0.0156
63936W        W 6874  11.583  27.227  20.060  0.0779  0.0923 -0.5105
63937W        W 6875  12.746  27.635  22.441 -0.0612 -0.0816 -0.2803
63938W        W 6876  11.607  28.297  23.076  0.0391  0.4424 -0.1123
63939W        W 6877  14.543  26.660  21.084 -0.2105 -0.0385  0.1387
63940W        W 6878  12.576  25.490  20.556 -0.0573 -0.2397 -0.0621
63941W        W 6879  12.296  27.241  21.041 -0.5961 -0.4541 -0.1651
63942W        W 6880  10.470  25.771  22.308 -0.0100 -0.0809  0.1540
63943W        W 6881  13.779  28.602  21.354  0.3847 -0.0974 -0.0799
63944W        W 6882  15.038  26.191  20.356 -0.1289  0.4366  0.0896
63945W        W 6883  12.869  26.644  21.428 -0.0443  0.1931 -0.1145
63946W        W 6884  13.474  27.161  22.006  0.0738 -0.1055  0.1099
63947W        W 6885  12.041  26.814  22.447  0.0594  0.2793 -0.2336
63948W        W 6886  11.935  26.015  22.543  0.0235  0.1612 -0.0866
63949W        W 6887  14.241  29.859  22.455  0.2570 -0.0070 -0.0582
63950W        W 6888  14.202  26.817  19.241  0.0758  0.2413 -0.1399
63951W        W 6889  13.836  26.047  22.380  0.1479 -0.4896  0.0703
63952W        W 6890  14.809  27.875  22.733 -0.0617  0.1099  0.0879
63953W        W 6891  11.257  26.209  19.079 -0.1441 -0.0625 -0.1756
63954W        W 6892  11.208  25.141  21.591  0.0416 -0.2429  0.1803
63955W        W 6893  14.217  26.684  23.679 -0.1474 -0.1721 -0.0078
63956W        W 6894  11.851  25.668  20.130 -0.1304  0.0315  0.0024
63957W        W 6895  14.137  27.509  23.493 -0.3492  0.0399  0.0263
63958W        W 6896  11.590  27.755  18.940  0.3718 -0.0896  0.1676
63959W        W 6897  13.571  28.803  20.953 -0.2759  0.0947 -0.0931
63960W        W 6898  13.361  27.603  20.683 -0.0452 -0.1157  0.2750
63961W        W 6899  10.954  26.452  22.917  0.0930 -0.0077  0.0547
63962W        W 6900  12.201  29.809  25.045  0.2708 -0.1461  0.1559
63963W        W 6901  11.074  27.278  20.725 -0.1107  0.1286 -0.1188
63964W        W 6902  11.696  28.202  19.139 -0.0212  0.0948  0.1244
63965W        W 6903  11.503  27.377  21.958  0.1053  0.0751 -0.0588
63966W        W 6904  14.795  28.300  23.605 -0.3246  0.3134 -0.3296
63967W        W 6905  13.425  26.415  19.768 -0.2148 -0.3563  0.0361
63968W        W 6906  15.600  27.570  23.365  0.1198  0.0312  0.2960
63969W        W 6907  11.975  28.321  20.796  0.3614  0.0282 -0.0949
63970W        W 6908  13.415  25.152  21.483 -0.1758 -0.2123 -0.0295
63971W        W 6909  11.467  28.349  20.762  0.0583 -0.0159  0.1516
63972W        W 6910  10.952  28.382  23.299  0.1164  0.0008 -0.1126
63973W        W 6911  12.699  26.872  20.301 -0.1233  0.0850 -0.1621
63974W        W 6912  13.534  25.590  23.008  0.0131 -0.3149 -0.2033
63975W        W 6913  13.717  25.980  21.441  0.0888 -0.3056 -0.1475
63976W        W 6914  12.880  28.582  22.307  0.2158  0.2628  0.1223
63977W        W 6915  14.987  27.791  23.455  0.1035 -0.3122  0.0029
63978W        W 6916  13.358  27.980  23.002  0.0577 -0.0262  0.3050
63979W        W 6917  11.994  27.860  21.948 -0.0979  0.3159 -0.0514
63980W        W 6918  12.070  28.843  22.851  0.2607  0.0694  0.1938
63981W        W 6919  14.244  26.995  21.356  0.1080 -0.0259 -0.1254
63982W        W 6920  11.439  28.896  21.545  0.1844 -0.1435 -0.1798
63983W        W 6921  12.672  26.705  23.638 -0.2669  0.0862 -0.1290
63984W        W 6922  13.389  28.627  24.251  0.0639  0.1218  0.3474
63985W        W 6923  13.519  28.273  21.133 -0.2037  0.1636 -0.1529
63986W        W 6924  12.303  26.085  21.419  0.0999  0.1646  0.0487
63987W        W 6925  13.751  27.101  19.247 -0.0186  0.0247  0.4391
63988W        W 6926  11.918  28.787  24.939 -0.0398 -0.1719  0.2146
63989W        W 6927  11.249  27.540  22.621 -0.3006 -0.2749 -0.0633
63990W        W 6928  10.313  29.803  21.028  0.1527  0.0945  0.0651
63991W        W 6929  14.367  29.385  19.923  0.1736  0.0492  0.0220
63992W        W 6930  13.992  27.799  19.102  0.0878  0.0963  0.1297
63993W        W 6931  13.251  29.994  23.273  0.1683 -0.0065 -0.1390
63994W        W 6932  12.081  25.621  20.652  0.1266 -0.3825 -0.1055
63995W        W 6933  10.847  29.652  21.034 -0.1806 -0.0389 -0.0518
63996W        W 6934  10.631  29.609  19.673  0.0236 -0.1266  0.2505
63997W        W 6935  12.333  28.108  20.517 -0.0075 -0.2337 -0.1688
63998W        W 6936  12.309  29.999  21.151 -0.0567 -0.1619  0.1221
63999W        W 6937  14.742  29.160  24.373 -0.0754 -0.1642  0.0159
64000W        W 6938  13.665  26.111  19.417 -0.2267  0.1240 -0.0161
64001W        W 6939  16.503  27.464  22.768  0.0120  0.1425 -0.2022
64002W        W 6940  14.669  28.129  17.660 -0.1683 -0.0913 -0.0392
64003W        W 6941  13.193  29.030  25.175  0.1590  0.1250 -0.2123
64004W        W 6942  12.437  27.336  20.299 -0.4499  0.0408  0.2081
64005W        W 6943  12.259  25.252  20.301  0.1155 -0.2287 -0.0999
64006W        W 6944  13.066  27.513  23.978  0.2425  0.0460 -0.0399
64007W        W 6945  15.816  26.813  23.807 -0.3978 -0.1593  0.2425
64008W        W 6946  11.794  28.409  22.154 -0.3422 -0.0992 -0.2675
64009W        W 6947  13.861  28.926  19.546  0.0273 -0.3499 -0.0907
64010W        W 6948  11.050  27.620  21.172 -0.0408  0.3836  0.2749
64011W        W 6949  11.425  27.823  21.437  0.0997  0.1704 -0.2802
64012W        W 6950  13.659  25.466  20.644 -0.0701  0.0953 -0.2042
64013W        W 6951  11.307  27.869  19.906  0.3778  0.1510  0.2127
64014W        W 6952  13.322  27.398  21.610  0.1680 -0.0789  0.1483
64015W        W 6953  11.943  30.221  20.951  0.0287 -0.2476  0.0565
64016W        W 6954  12.869  28.620  21.746 -0.2735 -0.0337 -0.2334
64017W        W 6955  11.862  28.049  22.710  0.1902 -0.2915  0.0002
64018W        W 6956  10.849  26.407  19.332 -0.0648  0.0385 -0.1013
64019W        W 6957  14.633  27.339  21.396  0.1898 -0.2640  0.0877
64020W        W 6958  12.933  27.386  23.460 -0.0260 -0.2499  0.0481
64021W        W 6959  15.466  26.632  24.096 -0.4059  0.0962  0.2362
64022W        W 6960  10.800  26.256  22.428 -0.0961  0.0537  0.2160
64023W        W 6961  15.015  26.625  22.266 -0.1872 -0.0617  0.1184
64024W        W 6962  12.547  28.624  22.792  0.0490  0.1353  0.0933
64025W        W 6963  11.993  26.078  21.867  0.0220 -0.1998  0.2635
64026W        W 6964  12.858  26.363  19.614  0.2547 -0.3010 -0.0333
64027W        W 6965  14.659  28.784  23.591 -0.1809 -0.2257 -0.0624
64028W        W 6966  12.177  26.061  18.873  0.1093 -0.1194  0.1105
64029W        W 6967  14.871  29.802  23.662 -0.0478  0.2138 -0.2025
64030W        W 6968  10.048  26.028  21.342 -0.0084  0.0624  0.0892
64031W        W 6969  12.316  26.341  19.606  0.1265 -0.1201  0.6139
64032W        W 6970  11.765  28.458  21.199 -0.1763 -0.2738  0.2774
64033W        W 6971  12.301  27.558  23.361  0.0193  0.1840  0.2692
64034W        W 6972  13.259  29.369  24.413  0.2258 -0.0902 -0.1292
64035W        W 6973  10.870  25.704  21.023 -0.0224 -0.2789  0.0830
64036W        W 6974  14.552  27.807  20.227 -0.0592 -0.0955 -0.0742
64037W        W 6975  14.936  29.263  22.722  0.0142  0.0167 -0.1460
64038W        W 6976  12.299  28.617  21.358  0.1589 -0.1319 -0.3032
64039W        W 6977  12.972  29.498  19.963  0.1651  0.3074  0.0121
64040W        W 6978  13.966  29.242  23.178 -0.2715 -0.2647 -0.3015
64041W        W 6979  10.717  26.134  21.283 -0.4739  0.0640 -0.0661
64042W        W 6980  13.901  28.192  22.783  0.0359 -0.4069  0.1157
64043W        W 6981  14.459  29.317  22.478 -0.0762  0.2023 -0.0664
64044W        W 6982  13.980  25.973  20.599 -0.0840  0.1242 -0.0790
64045W        W 6983  11.991  27.159  21.733 -0.1828  0.1492  0.1572
64046W        W 6984  11.160  29.816  20.110  0.1647  0.1317  0.1775
64047W        W 6985  15.681  26.924  23.344  0.1082 -0.1204  0.2601
64048W        W 6986  14.196  25.089  21.852 -0.2516  0.4436  0.3377
64049W        W 6987  13.760  26.615  19.409 -0.2251 -0.2296  0.0424
64050W        W 6988  12.900  25.284  23.167  0.1951 -0.0438 -0.0322
64051W        W 6989  12.424  29.053  22.571 -0.0237  0.0392  0.0103
64052W        W 6990  11.335  28.699  23.088  0.0710 -0.1182  0.0272
64053W        W 6991  11.929  26.928  21.207 -0.1701 -0.1798 -0.0877
64054W        W 6992  12.677  27.378  22.947  0.4829 -0.0359 -0.3315
64055W        W 6993  13.596  27.267  20.345 -0.0613 -0.2231  0.0031
64056W        W 6994  11.551  28.821  20.539  0.3019 -0.1642 -0.2150
64057W        W 6995  12.630  29.469  21.910 -0.2756  0.0505 -0.0814
64058W        W 6996  12.544  27.216  19.462 -0.1600 -0.0024  0.0818
64059W        W 6997  12.888  28.087  22.094 -0.1389  0.3315 -0.0347
64060W        W 6998  11.654  25.765  21.691  0.1908 -0.2846 -0.1578
64061W        W 6999  14.739  26.515  20.584 -0.1971  0.0870  0.0201
64062W        W 7000  14.238  25.562  20.602  0.1728  0.0876 -0.0239
64063W        W 7001  11.693  27.038  22.837  0.0829  0.1250 -0.1040
64064W        W 7002   9.492  27.103  20.758  0.0312  0.3602 -0.1654
64065W        W 7003  11.391  29.751  19.502 -0.1550  0.0726  0.1467
64066W        W 7004  12.133  28.447  22.616  0.1302 -0.1370 -0.1225
64067W        W 7005  12.644  27.134  23.918 -0.1595  0.2183 -0.0990
64068W        W 7006  11.390  26.412  23.224 -0.2491 -0.1010 -0.2644
64069W        W 7007   9.164  28.485  21.303  0.2690  0.0807  0.2499
64070W        W 7008  12.133  27.399  19.919  0.0072 -0.0377  0.2214
64071W        W 7009  14.177  29.468  20.769 -0.0021 -0.0986  0.0667
64072W        W 7010   9.803  25.942  21.798  0.1284  0.1978 -0.1189
64073W        W 7011  10.045  24.608  22.001 -0.0575  0.0389 -0.1777
64074W        W 7012  12.363  28.201  19.962 -0.0440  0.1119  0.2410
64075W        W 7013  13.752  29.734  20.926  0.2536 -0.1002 -0.1128
64076W        W 7014  11.707  26.170  21.191 -0.0310 -0.1208 -0.3013
64077W        W 7015  13.462  28.961  24.739 -0.1538  0.0431 -0.2108
64078W        W 7016  11.816  28.442  18.692 -0.3160 -0.1628 -0.0975
64079W        W 7017  13.580  26.057  21.966  0.0297 -0.0477  0.1982
64080W        W 7018  13.480  26.889  23.271 -0.1117  0.2979  0.1151
64081W        W 7019   9.767  25.764  19.931  0.0158 -0.0450  0.2276
64082W        W 7020  12.821  27.919  21.476 -0.0594  0.1201  0.1487
64083W        W 7021  13.032  28.379  19.321 -0.1956 -0.1003 -0.2283
64084W        W 7022  12.329  28.749  20.035  0.0153  0.4392  0.1120
64085W        W 7023  13.193  28.731  23.787 -0.3400  0.3282 -0.0470
64086W        W 7024  12.522  28.278  21.762 -0.1027 -0.1982 -0.2062
64087W        W 7025  10.467  25.010  23.147 -0.1102  0.2214  0.3399
64088W        W 7026  14.103  27.968  20.436  0.0490  0.3964 -0.1990
64089W        W 7027  11.443  28.971  23.953 -0.2031 -0.3088  0.2152
64090W        W 7028  13.360  29.206  21.179  0.1281  0.0353  0.3214
64091W        W 7029  15.348  26.519  23.633 -0.0799 -0.1367  0.2676
64092W        W 7030  13.292  26.911  21.283 -0.1380  0.0499 -0.2292
64093W        W 7031  12.715  26.140  24.084 -0.1022  0.0862 -0.0438
64094W        W 7032  11.901  26.681  23.151 -0.3086 -0.1616  0.1927
64095W        W 7033  14.057  28.923  21.806  0.1024  0.0792 -0.1208
64096W        W 7034   9.768  24.053  22.768  0.0215 -0.2413  0.1305
64097W        W 7035  13.562  25.787  19.938  0.0052 -0.1021  0.0500
64098W        W 7036  11.858  27.833  20.591 -0.2598  0.2031 -0.4659
64099W        W 7037  12.127  26.780  23.608  0.3505 -0.0082  0.2417
64100W        W 7038  13.397  26.874  19.611 -0.1246 -0.5116  0.0246
64101W        W 7039  12.040  27.431  22.756 -0.4642  0.2488 -0.4599
64102W        W 7040  13.339  28.262  21.926  0.1848 -0.3173  0.0054
64103W        W 7041  13.803  27.702  23.003  0.1552  0.0971 -0.2102
64104W        W 7042  12.631  26.558  20.772  0.1526  0.2812 -0.0431
64105W        W 7043  14.601  28.248  20.153 -0.0741  0.1694  0.0903
64106W        W 7044  13.878  29.770  23.310  0.1345 -0.0490  0.0345
64107W        W 7045  14.824  29.996  25.047 -0.0708  0.0168 -0.2269
64108W        W 7046  13.232  29.239  23.642 -0.0758 -0.1076 -0.1566
64109W        W 7047  14.721  27.385  22.749  0.1529 -0.1631 -0.1075
64110W        W 7048  10.413  27.191  22.570 -0.0634  0.5064 -0.0447
64111W        W 7049  12.491  26.381  21.732  0.0270  0.0137 -0.0508
64112W        W 7050  11.690  26.468  20.269 -0.1928  0.1499 -0.1120
64113W        W 7051  13.924  28.012  21.636 -0.1120  0.1300 -0.2861
64114W        W 7052  10.308  25.934  21.757  0.2497  0.0722  0.2170
64115W        W 7053  12.740  25.175  21.008 -0.0773 -0.0922 -0.1855
64116W        W 7054  12.874  29.011  24.146 -0.1144  0.2283  0.0998
64117W        W 7055  12.465  27.820  21.992 -0.0034  0.1466 -0.1356
64118W        W 7056  12.002  28.849  26.037 -0.0189 -0.1781  0.4178
64119W        W 7057  12.862  27.858  22.893  0.2827 -0.0560  0.0896
64120W        W 7058  15.004  26.582  24.274  0.1327  0.2560  0.2626
64121W        W 7059  14.475  26.591  24.184  0.0877 -0.1255 -0.1987
64122W        W 7060  11.781  26.172  27.074  0.1373  0.1002 -0.0491
64123W        W 7061  14.644  28.361  24.076 -0.1135  0.0529 -0.0917
64124W        W 7062  11.842  24.857  27.450  0.0806  0.0604 -0.1663
64125W        W 7063  13.412  27.652  25.462  0.0535 -0.2069 -0.1199
64126W        W 7064  14.111  29.883  26.177  0.0249 -0.3094  0.1278
64127W        W 7065  13.244  28.355  23.286 -0.0934 -0.0546  0.0568
64128W        W 7066  12.844  26.250  27.657  0.1695 -0.2237 -0.2236
64129W        W 7067  12.734  28.563  26.530 -0.1464 -0.0349  0.0070
64130W        W 7068  12.583  27.059  25.087 -0.0630  0.2309 -0.0493
64131W        W 7069  11.148  25.965  27.143  0.1898  0.1508 -0.1028
64132W        W 7070  14.144  26.438  26.741  0.0301  0.2561 -0.1107
64133W        W 7071  12.358  26.746  24.039  0.2032 -0.3444  0.1973
64134W        W 7072  12.630  27.228  26.322  0.4460  0.0066 -0.1874
64135W        W 7073  14.764  27.008  24.482 -0.2503  0.0508 -0.3563
64136W        W 7074  14.663  27.822  24.966 -0.2295 -0.0471  0.0051
64137W        W 7075  12.489  27.117  27.927 -0.2720  0.1560  0.0369
64138W        W 7076  12.619  25.431  27.586  0.2148  0.3284 -0.0519
64139W        W 7077  14.109  29.464  25.853 -0.1599  0.0831  0.1769
64140W        W 7078  10.631  26.971  23.602  0.3415  0.1215 -0.1484
64141W        W 7079  12.732  27.532  27.948  0.2717  0.4708  0.2268
64142W        W 7080  11.931  27.220  25.651  0.0497  0.3889 -0.1077
64143W        W 7081  13.994  26.463  25.052  0.3989 -0.0378 -0.0010
64144W        W 7082  15.542  26.824  25.137  0.1683 -0.0176  0.0146
64145W        W 7083  13.393  29.678  26.008 -0.3014 -0.1814 -0.1869
64146W        W 7084  12.829  27.665  25.637 -0.1729 -0.0797 -0.0754
64147W        W 7085  13.731  26.455  27.304 -0.0977  0.0755 -0.0009
64148W        W 7086  10.285  27.708  25.643  0.1012  0.1572  0.2317
64149W        W 7087  13.237  29.426  26.447 -0.3596  0.1257  0.2433
64150W        W 7088  11.753  27.651  24.688 -0.0727 -0.1052  0.0727
64151W        W 7089  15.195  29.297  24.492 -0.2064 -0.2250 -0.1288
64152W        W 7090  15.125  28.836  25.548 -0.2504  0.0018 -0.0715
64153W        W 7091  11.298  29.138  27.390  0.1734 -0.1144 -0.2445
64154W        W 7092  12.240  27.533  24.636 -0.3858 -0.0957 -0.0429
64155W        W 7093  14.169  30.496  25.370  0.2711  0.2160 -0.1187
64156W        W 7094  12.014  28.234  26.924  0.1922  0.0474 -0.0018
64157W        W 7095  12.989  26.559  26.802  0.1345 -0.1954 -0.0572
64158W        W 7096  12.423  26.627  25.729 -0.0220  0.0518 -0.0685
64159W        W 7097  12.680  27.497  24.397 -0.0709 -0.3359  0.3048
64160W        W 7098  12.872  26.955  25.806 -0.1753  0.1078 -0.2062
64161W        W 7099  11.090  28.143  27.568 -0.2278  0.0237  0.2307
64162W        W 7100  10.946  27.186  25.209  0.0952  0.1219  0.2341
64163W        W 7101  13.316  27.357  26.718 -0.1944 -0.0445  0.1655
64164W        W 7102  12.532  29.386  24.228 -0.0121  0.2037  0.1862
64165W        W 7103  13.859  25.909  24.712  0.2786  0.0007  0.2085
64166W        W 7104  13.472  27.347  23.503 -0.0860  0.0021 -0.0262
64167W        W 7105  15.198  26.811  23.236  0.5007  0.4399  0.1746
64168W        W 7106  11.495  26.233  24.072  0.2346  0.1852  0.1305
64169W        W 7107  12.996  28.308  25.034  0.3704  0.1376 -0.0331
64170W        W 7108  11.886  25.067  26.192 -0.0637  0.1004 -0.1153
64171W        W 7109  15.649  28.769  25.545  0.2136  0.1439  0.1999
64172W        W 7110  13.495  27.288  25.106  0.1679 -0.1656  0.1286
64173W        W 7111  14.029  26.951  26.552  0.2220 -0.5187 -0.1940
64174W        W 7112  10.966  30.245  27.351  0.0739 -0.2661  0.1663
64175W        W 7113  11.567  26.584  26.716 -0.0392 -0.0615  0.0641
64176W        W 7114  14.586  28.819  24.835 -0.1524  0.0309 -0.1121
64177W        W 7115  14.550  28.326  24.975 -0.3419 -0.0911  0.0032
64178W        W 7116  14.052  27.870  24.582 -0.0255  0.3076 -0.2592
64179W        W 7117  10.298  27.498  24.275  0.0153 -0.3661 -0.5245
64180W        W 7118  11.633  27.956  27.876 -0.0105 -0.0249  0.0861
64181W        W 7119  12.376  27.141  27.060 -0.3780 -0.0161 -0.1108
64182W        W 7120  12.196  25.990  23.479  0.1108 -0.0633  0.1737
64183W        W 7121  13.988  28.109  26.627 -0.0675 -0.1578  0.0517
64184W        W 7122  11.343  27.895  26.524 -0.2284  0.0907 -0.1493
64185W        W 7123  14.718  26.390  25.651  0.3018  0.2149 -0.1949
64186W        W 7124  13.635  28.388  23.674  0.1012 -0.0314 -0.0051
64187W        W 7125  15.374  28.439  26.399 -0.0797  0.0160  0.0393
64188W        W 7126  14.885  28.401  22.661 -0.0365 -0.2174  0.0113
64189W        W 7127  14.101  24.711  25.510  0.0461  0.1169  0.4527
64190W        W 7128  14.854  24.866  23.281  0.0350  0.1243  0.0608
64191W        W 7129  11.953  28.600  23.928 -0.0169  0.0525 -0.0852
64192W        W 7130  14.056  28.789  24.942  0.2429 -0.4361  0.0216
64193W        W 7131  15.930  28.411  26.275 -0.3148 -0.3703 -0.2053
64194W        W 7132  13.989  26.909  23.285  0.3783  0.2641 -0.0398
64195W        W 7133  12.319  28.845  26.409 -0.0047 -0.2145  0.3122
64196W        W 7134  12.674  27.199  27.487 -0.2126  0.2524  0.2556
64197W        W 7135  13.496  29.561  27.245 -0.1489  0.1333 -0.1296
64198W        W 7136  11.839  30.487  23.821  0.2441 -0.0984  0.2799
64199W        W 7137   8.489  26.955  26.207  0.0644 -0.4127 -0.1210
64200W        W 7138  11.777  27.986  24.120  0.0764  0.1267 -0.0493
64201W        W 7139  12.430  27.231  28.461 -0.1573 -0.0801  0.0896
64202W        W 7140  13.218  28.596  26.223 -0.0736 -0.0230 -0.1488
64203W        W 7141  13.382  26.036  24.686 -0.0055  0.3172 -0.3001
64204W        W 7142  12.453  26.034  26.864  0.0797  0.0891 -0.2610
64205W        W 7143  14.684  25.686  25.024  0.2023  0.1447 -0.3198
64206W        W 7144  13.139  28.240  24.543  0.2821  0.3380 -0.0281
64207W        W 7145  14.905  29.019  25.173 -0.0175 -0.1140  0.0230
64208W        W 7146  14.711  26.149  24.299  0.2848  0.2123 -0.0552
64209W        W 7147  13.519  29.565  24.030 -0.0630  0.2387  0.1308
64210W        W 7148  12.389  24.151  27.317  0.4416 -0.1694  0.2252
64211W        W 7149  12.219  25.881  25.290  0.3554 -0.1955  0.1023
64212W        W 7150  12.605  25.869  27.829  0.2750 -0.0312 -0.1398
64213W        W 7151  12.331  25.795  26.352  0.0287  0.0082 -0.2048
64214W        W 7152  13.929  27.450  26.646  0.1121  0.1119 -0.3035
64215W        W 7153  11.041  25.800  24.046  0.0120  0.1662  0.0605
64216W        W 7154  13.562  25.721  24.313  0.1699 -0.5646  0.0507
64217W        W 7155  13.313  28.147  23.977  0.1745 -0.2379  0.0387
64218W        W 7156   9.996  25.872  25.829  0.1179  0.1191 -0.2564
64219W        W 7157  14.771  26.648  26.665 -0.1651  0.1307  0.1240
64220W        W 7158  14.390  29.069  25.188 -0.2964 -0.0311 -0.1653
64221W        W 7159  15.849  29.839  26.218  0.0022 -0.1624 -0.2273
64222W        W 7160  14.623  29.371  24.845  0.1547 -0.0978  0.0340
64223W        W 7161  12.187  25.657  27.687 -0.1128 -0.2444  0.0522
64224W        W 7162  10.644  25.575  24.882  0.0627  0.0527 -0.0114
64225W        W 7163  12.482  28.872  24.348  0.1930  0.1640  0.3032
64226W        W 7164  12.816  28.558  25.977 -0.0558 -0.0473 -0.1917
64227W        W 7165  11.679  26.418  25.295 -0.2757 -0.1048  0.1629
64228W        W 7166  14.005  29.028  25.542 -0.0153  0.2242 -0.3558
64229W        W 7167  13.519  28.782  23.342 -0.0580  0.0160  0.0038
64230W        W 7168  11.456  27.012  25.158 -0.1557  0.0448  0.1053
64231W        W 7169  13.784  27.264  28.112  0.4254 -0.3074 -0.1584
64232W        W 7170  13.525  26.590  24.888  0.0696  0.0033  0.0871
64233W        W 7171  13.575  25.951  26.187  0.3425 -0.0214  0.6320
64234W        W 7172  11.370  25.913  23.660 -0.0047  0.2058  0.2807
64235W        W 7173  12.617  29.453  25.735  0.0733 -0.1267  0.0829
64236W        W 7174  11.416  29.157  25.066  0.1285  0.1065  0.0822
64237W        W 7175  10.825  27.551  25.571 -0.2549 -0.2559  0.2147
64238W        W 7176  13.838  27.250  25.447 -0.1879  0.1005 -0.2067
64239W        W 7177  13.749  25.462  26.321  0.1359 -0.1208 -0.3337
64240W        W 7178  10.931  26.941  28.300 -0.1472  0.0805 -0.3023
64241W        W 7179  12.121  27.982  26.060  0.1378  0.2251 -0.0512
64242W        W 7180  13.145  25.842  22.171 -0.1991 -0.0139  0.4077
64243W        W 7181  11.998  29.640  26.960  0.0066  0.2072 -0.2330
64244W        W 7182  13.987  26.667  24.155 -0.0898 -0.2864  0.4890
64245W        W 7183  13.722  27.432  24.595  0.1450  0.2034 -0.0536
64246W        W 7184  13.446  29.065  27.123  0.0777  0.1732 -0.0864
64247W        W 7185  14.748  28.707  23.077 -0.1698  0.1374  0.1906
64248W        W 7186  13.758  26.696  22.816 -0.0649  0.1084 -0.1603
64249W        W 7187  13.830  27.709  24.170  0.3276 -0.1339  0.1419
64250W        W 7188  11.966  28.570  27.299 -0.0748  0.1676  0.2314
64251W        W 7189  12.287  27.666  25.603  0.0997 -0.2035  0.3062
64252W        W 7190  12.028  26.839  25.217 -0.0885  0.2304 -0.2653
64253W        W 7191  13.276  26.547  22.995 -0.3628  0.2749  0.0225
64254W        W 7192  12.773  28.757  25.036 -0.1263 -0.2430  0.0672
64255W        W 7193  12.599  28.120  25.825  0.0677  0.1056  0.2262
64256W        W 7194  13.285  29.957  26.411 -0.2566 -0.1855  0.0224
64257W        W 7195  13.112  27.495  26.076 -0.0587 -0.1856 -0.1655
64258W        W 7196  12.584  25.441  25.653 -0.0865 -0.1206  0.0554
64259W        W 7197  12.256  28.245  24.055 -0.1764  0.0506 -0.3005
64260W        W 7198  12.672  26.166  24.994 -0.0903  0.2592 -0.1214
64261W        W 7199  11.963  27.253  23.237  0.0008  0.1607  0.2629
64262W        W 7200  15.552  26.708  24.576  0.2088  0.2192  0.3108
64263W        W 7201  13.491  25.125  26.025  0.1533 -0.0430  0.0315
64264W        W 7202  13.072  27.047  29.498  0.0979  0.0816  0.1243
64265W        W 7203  13.344  27.563  28.133  0.0060 -0.1268  0.0220
64266W        W 7204  14.627  27.449  23.649  0.1397 -0.1029  0.3647
64267W        W 7205  13.931  28.906  27.139  0.1585  0.1328 -0.2371
64268W        W 7206  12.809  26.857  23.122 -0.2007  0.1044 -0.0177
64269W        W 7207  14.404  26.864  26.889  0.0470  0.1043 -0.2940
64270W        W 7208  12.097  26.668  26.537  0.3393  0.0843 -0.1222
64271W        W 7209  11.540  28.887  25.815  0.4187  0.0023 -0.1434
64272W        W 7210  14.888  28.742  26.001 -0.2798 -0.1137 -0.1250
64273W        W 7211  13.153  26.975  24.839 -0.1713 -0.0373  0.1436
64274W        W 7212  14.427  26.799  26.303 -0.0755 -0.1947  0.1537
64275W        W 7213  13.822  26.195  22.897 -0.4149  0.1420  0.1874
64276W        W 7214  11.181  29.177  22.961 -0.0314 -0.0324 -0.1901
64277W        W 7215  12.462  28.133  23.612 -0.2575  0.1326 -0.0011
64278W        W 7216  12.364  25.760  24.077  0.0541  0.0919 -0.1096
64279W        W 7217  13.133  28.062  25.447  0.3821  0.0422 -0.0702
64280W        W 7218  11.511  27.937  23.695  0.2330 -0.0883 -0.3322
64281W        W 7219  15.670  28.274  26.719 -0.1455 -0.1011 -0.1103
64282W        W 7220  13.694  29.150  25.190  0.0800  0.1943 -0.1290
64283W        W 7221  12.953  26.316  25.460 -0.4154  0.1670  0.0368
64284W        W 7222  11.861  29.080  25.369  0.0682  0.1294  0.3589
64285W        W 7223  12.247  26.347  24.436 -0.0615  0.0141  0.4219
64286W        W 7224  11.108  26.975  24.723 -0.3318  0.0558 -0.0440
64287W        W 7225  14.162  26.166  24.393  0.0259  0.3218  0.0558
64288W        W 7226  16.459  27.466  24.782  0.3583  0.0077  0.0922
64289W        W 7227  11.227  27.822  25.748 -0.1132 -0.1850 -0.0139
64290W        W 7228  13.983  25.910  25.855  0.2587 -0.0449 -0.3877
64291W        W 7229  11.271  27.188  27.481 -0.3523 -0.0499 -0.2546
64292W        W 7230  15.162  27.569  26.281 -0.0269  0.1142  0.3157
64293W        W 7231  13.261  24.255  24.676  0.0553 -0.2268  0.0543
64294W        W 7232  13.629  27.441  25.883 -0.0687  0.0764  0.0853
64295W        W 7233  12.377  27.681  26.528 -0.1976  0.1441  0.2663
64296W        W 7234  11.280  27.049  23.183  0.2292 -0.0822 -0.3102
64297W        W 7235  15.937  26.725  27.228  0.0043  0.1195 -0.0391
64298W        W 7236  13.243  27.848  23.483 -0.0540  0.2215 -0.1079
64299W        W 7237  11.671  27.529  25.173  0.0049  0.2857  0.0719
64300W        W 7238  13.275  27.180  25.604 -0.0555  0.3409 -0.0095
64301W        W 7239  11.373  26.720  23.930 -0.3600 -0.2726  0.1869
64302W        W 7240  12.395  28.343  25.015 -0.0641  0.0468 -0.2646
64303W        W 7241  12.887  26.870  27.839 -0.2663  0.0787 -0.0930
64304W        W 7242  14.824  27.845  25.899  0.1090  0.3077 -0.0500
64305W        W 7243  11.438  26.039  25.101  0.0654 -0.0468 -0.0605
64306W        W 7244  12.345  25.853  24.710  0.0483 -0.0798  0.1550
64307W        W 7245  14.175  25.799  23.583 -0.0026 -0.4858  0.0014
64308W        W 7246  14.109  26.405  25.544  0.0971  0.1049 -0.0123
64309W        W 7247  12.585  27.653  27.347  0.1808  0.1047 -0.0962
64310W        W 7248  12.803  28.594  27.449  0.0172  0.0669 -0.0877
64311W        W 7249  13.710  26.540  26.350 -0.1302  0.3894 -0.2139
64312W        W 7250  14.126  30.767  24.230  0.4207 -0.0971  0.3091
64313W        W 7251  13.901  29.071  26.159 -0.2577 -0.3157 -0.0962
64314W        W 7252  13.907  27.980  23.635  0.1765  0.2117  0.0217
64315W        W 7253  10.435  26.216  26.698 -0.4209  0.1390 -0.0712
64316W        W 7254  14.244  28.050  24.141  0.1523  0.1464 -0.0084
64317W        W 7255  13.213  25.984  25.157  0.0937  0.0841  0.4329
64318W        W 7256  13.083  28.203  26.587 -0.0477  0.1427  0.0961
64319W        W 7257  11.477  28.424  23.981 -0.0829  0.0807  0.0576
64320W        W 7258  11.610  28.043  26.102 -0.0626 -0.0403 -0.0228
64321W        W 7259  12.818  25.668  24.341  0.0186  0.0927 -0.2222
64322W        W 7260  14.272  28.383  24.558  0.2025  0.1422 -0.2912
64323W        W 7261  13.108  27.013  26.355 -0.1813 -0.0456  0.0811
64324W        W 7262  14.554  27.481  26.182 -0.1019 -0.0246 -0.1096
64325W        W 7263  13.437  28.522  24.975  0.0706  0.0804  0.0345
64326W        W 7264  13.766  25.787  26.739 -0.1546  0.0707  0.1574
64327W        W 7265  12.091  28.031  24.580 -0.0459  0.0089 -0.0230
64328W        W 7266  15.391  27.876  25.324 -0.0480  0.4528 -0.0161
64329W        W 7267  12.093  27.323  27.623  0.1465  0.0688  0.2639
64330W        W 7268  14.370  31.148  26.830  0.2248 -0.1356 -0.0608
64331W        W 7269  11.103  27.702  27.838 -0.1597  0.1847  0.2580
64332W        W 7270  13.259  26.557  24.477  0.1192 -0.0595  0.2525
64333W        W 7271  11.802  26.158  23.089 -0.0916 -0.0483 -0.1496
64334W        W 7272  13.890  28.590  26.088 -0.1885  0.0114 -0.1642
64335W        W 7273  13.597  26.804  25.326  0.0185 -0.1117  0.0162
64336W        W 7274  13.699  27.710  25.051  0.2427  0.0745 -0.0992
64337W        W 7275  14.218  26.486  26.019  0.2982 -0.0987 -0.1199
64338W        W 7276  12.099  27.805  25.031  0.0444 -0.1088 -0.0133
64339W        W 7277  15.251  26.433  24.855  0.1205 -0.1910  0.1149
64340W        W 7278  13.773  28.277  24.202 -0.0172  0.1752 -0.2424
64341W        W 7279  12.476  27.069  24.592  0.2245 -0.0958 -0.0085
64342W        W 7280  12.504  26.625  26.928  0.1245  0.1894  0.0548
64343W        W 7281  14.471  27.512  24.632  0.1361  0.3697  0.4240
64344W        W 7282  12.807  25.708  24.848 -0.1382 -0.0876  0.0510
64345W        W 7283  12.973  26.831  25.303  0.0365  0.1032 -0.0242
64346W        W 7284  14.129  26.869  25.294 -0.0993 -0.0391  0.3927
64347W        W 7285  12.534  27.627  26.060 -0.0665 -0.1837  0.0048
64348W        W 7286  13.070  25.986  28.049  0.0120  0.0813  0.0036
64349W        W 7287  14.142  29.862  26.804  0.3005  0.0552 -0.1472
64350W        W 7288  14.936  27.316  23.296 -0.1859  0.0542 -0.1517
64351W        W 7289  14.814  26.508  26.142 -0.1838 -0.2000  0.3344
64352W        W 7290  13.722  26.346  24.481  0.0295  0.0632 -0.0060
64353W        W 7291  14.200  26.483  22.656 -0.0664 -0.1305 -0.1080
64354W        W 7292  12.280  26.364  25.316  0.0801 -0.1950 -0.0275
64355W        W 7293  14.282  28.162  27.054  0.0289  0.0612 -0.2968
64356W        W 7294  12.321  26.934  22.896  0.0993  0.1605  0.2357
64357W        W 7295  14.103  27.184  26.133  0.1411 -0.0525  0.0184
64358W        W 7296  13.485  28.867  25.584  0.2060  0.1999 -0.1880
64359W        W 7297  13.998  27.213  24.925 -0.0671 -0.2852 -0.1042
64360W        W 7298  13.370  27.787  24.339  0.0179  0.0188  0.3322
64361W        W 7299   9.659  25.124  25.503  0.3230 -0.1594 -0.0701
64362W        W 7300  11.178  29.602  28.311  0.0520  0.0273 -0.0492
64363W        W 7301  11.586  27.085  24.460  0.2625 -0.3205  0.2850
64364W        W 7302  12.301  27.764  24.215 -0.1553  0.1272 -0.3841
64365W        W 7303  12.279  28.482  25.956 -0.0980  0.4196 -0.0622
64366W        W 7304  13.440  27.916  25.947 -0.0830  0.1280  0.1236
64367W        W 7305  11.173  26.628  24.395  0.4232  0.2591  0.1516
64368W        W 7306  14.037  26.325  27.673  0.1411 -0.1549  0.3078
64369W        W 7307  10.920  28.085  25.402 -0.0790  0.0891  0.0594
64370W        W 7308  13.267  26.384  26.467 -0.1876 -0.1372  0.0746
64371W        W 7309  13.077  29.845  25.592  0.1010 -0.1367 -0.0455
64372W        W 7310  10.777  28.025  26.642  0.1338 -0.0851 -0.0126
64373W        W 7311  11.660  29.566  25.241 -0.5226  0.2469  0.1339
64374W        W 7312  12.436  24.608  26.707  0.0871  0.2068  0.2296
64375W        W 7313  13.618  28.305  26.411 -0.1553  0.1295 -0.0193
64376W        W 7314  12.395  27.218  25.817 -0.2262  0.2777  0.0385
64377W        W 7315  14.848  27.077  26.326  0.1402 -0.1202 -0.0590
64378W        W 7316  14.439  28.074  25.468  0.1080  0.2332 -0.0723
64379W        W 7317  12.554  27.669  23.798 -0.0490  0.1660 -0.0048
64380W        W 7318  14.626  29.144  25.648 -0.2015 -0.3388 -0.0498
64381W        W 7319  15.081  26.908  24.837 -0.1886  0.0082  0.0168
64382W        W 7320  11.684  27.106  26.564  0.1351  0.0930 -0.0025
64383W        W 7321  12.342  28.155  27.309  0.0546 -0.1964  0.0220
64384W        W 7322  12.917  27.020  27.015  0.1809  0.0858  0.2579
64385W        W 7323  12.116  26.861  26.074  0.1908  0.1388  0.0471
64386W        W 7324  10.169  25.641  24.784 -0.1252  0.2793  0.2766
64387W        W 7325  12.435  28.739  23.821 -0.0935 -0.2629 -0.2227
64388W        W 7326  11.681  28.674  27.691  0.0612  0.0726  0.1082
64389W        W 7327  11.292  28.345  25.724 -0.3095  0.0537  0.1142
64390W        W 7328  11.700  30.057  25.138  0.0857 -0.2120 -0.1324
64391W        W 7329  15.210  28.008  24.399  0.2055  0.0266  0.0752
64392W        W 7330  14.206  27.614  25.267  0.0808  0.0597  0.1718
64393W        W 7331  13.921  28.419  25.423 -0.1177  0.0442 -0.3655
64394W        W 7332  12.247  26.244  23.949  0.0617  0.0311 -0.2639
64395W        W 7333  12.187  28.193  25.504  0.1553  0.1714  0.0400
64396W        W 7334  11.832  28.752  26.786  0.0209  0.0255  0.0598
64397W        W 7335  13.889  28.803  24.064 -0.0845 -0.1071  0.2953
64398W        W 7336  12.589  28.558  25.545  0.4570  0.1787  0.1570
64399W        W 7337  14.272  28.883  24.470 -0.3282 -0.0775  0.4475
64400W        W 7338  14.309  25.169  24.439 -0.3301  0.1964  0.1604
64401W        W 7339  14.385  27.060  23.987 -0.1066  0.0880 -0.1598
64402W        W 7340  14.820  27.352  24.087  0.1517  0.0224 -0.3122
64403W        W 7341  14.351  29.566  25.393  0.0217 -0.0765  0.0497
64404W        W 7342  13.519  26.874  26.674  0.0191 -0.2669 -0.2635
64405W        W 7343  13.135  26.967  23.671 -0.0503 -0.1359  0.1747
64406W        W 7344  12.913  27.599  26.550  0.0510 -0.3134 -0.4016
64407W        W 7345  13.335  25.674  26.531 -0.1335 -0.0269 -0.0354
64408W        W 7346  10.887  29.413  27.981  0.0783  0.0322 -0.0383
64409W        W 7347  14.771  28.616  24.465 -0.1533 -0.1222 -0.0830
64410W        W 7348  10.357  26.874  25.141  0.1700  0.1143  0.0764
64411W        W 7349  13.008  27.326  25.249  0.2007  0.1440  0.1780
64412W        W 7350  14.494  26.278  26.404 -0.1532  0.0179 -0.0344
64413W        W 7351  14.159  28.394  23.816  0.0407  0.0542  0.0486
64414W        W 7352  14.160  27.152  24.472 -0.0069 -0.1670 -0.1484
64415W        W 7353  11.775  29.486  23.467  0.2957 -0.1979  0.0327
64416W        W 7354  12.808  29.002  25.527  0.3521 -0.0213  0.0493
64417W        W 7355  12.610  29.938  25.385  0.3460  0.1745 -0.1010
64418W        W 7356  10.601  26.635  24.708 -0.1624 -0.2337 -0.2128
64419W        W 7357  15.467  25.126  24.660 -0.0563  0.0480 -0.2682
64420W        W 7358  12.025  27.425  26.223 -0.1700  0.0182 -0.2130
64421W        W 7359  13.567  27.011  26.130  0.0250 -0.0655  0.1808
64422W        W 7360  12.295  24.885  25.158  0.1271 -0.0021  0.0251
64423W        W 7361  14.166  25.578  24.795  0.0333  0.2542 -0.2153
64424W        W 7362  12.164  27.353  25.208  0.1212 -0.4034 -0.2907
64425W        W 7363  12.639  26.749  26.471 -0.0883  0.0343 -0.3675
64426W        W 7364  13.091  28.292  22.700  0.1414 -0.1347  0.0821
64427W        W 7365  15.180  26.563  27.150 -0.0772 -0.2518  0.0341
64428W        W 7366  14.415  27.112  23.344  0.0786 -0.2612  0.2107
64429W        W 7367  13.879  29.597  27.577 -0.0628  0.0237  0.3725
64430W        W 7368  11.993  27.405  24.269  0.1557  0.1616  0.0255
64431W        W 7369  13.937  27.247  23.976 -0.3437 -0.1089 -0.0716
64432W        W 7370  11.282  27.423  24.778  0.1071  0.0636 -0.0158
64433W        W 7371  14.273  28.154  26.005  0.1400  0.2042 -0.0073
64434W        W 7372  14.092  27.902  27.503 -0.0626  0.0272 -0.1544
64435W        W 7373  11.730  25.960  25.611 -0.0218 -0.0506  0.1737
64436W        W 7374  14.740  27.858  23.944  0.1732 -0.1385 -0.2397
64437W        W 7375  14.159  26.695  24.639 -0.1991 -0.1406 -0.0020
64438W        W 7376  12.857  29.184  24.753  0.0074  0.1525  0.0065
64439W        W 7377  13.261  26.604  25.733 -0.0544 -0.3322  0.1005
64440W        W 7378  13.642  29.382  25.685 -0.1980  0.0098 -0.1540
64441W        W 7379  11.181  26.768  26.021  0.3138 -0.0677 -0.0437
64442W        W 7380  14.312  28.699  25.825  0.3667  0.1210  0.0466
64443W        W 7381  14.025  28.066  25.055 -0.1018 -0.0424  0.2442
64444W        W 7382  11.698  25.187  22.407  0.0670  0.0937  0.0264
64445W        W 7383  13.084  26.459  24.929  0.1141  0.1767 -0.1163
64446W        W 7384  13.068  27.794  25.030  0.1758  0.0990  0.0660
64447W        W 7385  15.537  26.257  26.321  0.2336 -0.2383 -0.0049
64448W        W 7386  13.398  26.006  25.689  0.0396 -0.2435  0.1128
64449W        W 7387  12.473  28.725  23.312 -0.2907 -0.1280 -0.2450
64450W        W 7388  13.546  25.568  25.809  0.0752  0.0290  0.1452
64451W        W 7389  13.151  29.002  26.691 -0.0102  0.3398  0.0147
64452W        W 7390  11.962  29.947  26.196  0.0744 -0.0855  0.1738
64453W        W 7391  11.328  27.635  24.321  0.0003 -0.0196 -0.1403
64454W        W 7392  13.636  29.672  26.768  0.0771 -0.1196 -0.0521
64455W        W 7393  12.233  28.317  23.067  0.1536  0.0086 -0.2154
64456W        W 7394  13.306  29.495  25.311 -0.0834 -0.0688 -0.0721
64457W        W 7395  12.960  29.008  26.136  0.3499  0.2530 -0.0482
64458W        W 7396  11.857  26.860  24.033 -0.0944 -0.0764 -0.0306
64459W        W 7397  14.648  26.562  24.692  0.0348  0.0626 -0.0552
64460W        W 7398  11.039  26.080  26.228 -0.1835 -0.2671 -0.0076
64461W        W 7399  14.895  26.412  23.359 -0.0824  0.0800  0.0970
64462W        W 7400  13.647  26.749  23.761  0.0086  0.2876  0.3525
64463W        W 7401  13.408  27.806  26.460 -0.0374 -0.0695 -0.0767
64464W        W 7402  11.662  26.954  23.514 -0.3168 -0.0661 -0.2283
64465W        W 7403  11.194  28.091  22.887 -0.0220 -0.0512 -0.0933
64466W        W 7404  12.030  27.547  26.881  0.0449  0.2275  0.2365
64467W        W 7405  14.025  26.392  28.168 -0.0257 -0.1162 -0.0106
64468W        W 7406  12.994  27.966  26.146  0.2713 -0.1013 -0.2876
64469W        W 7407  11.767  27.727  25.736 -0.0446 -0.0315  0.0932
64470W        W 7408  11.394  27.305  25.526 -0.5436  0.1223  0.0593
64471W        W 7409  13.877  27.696  22.459  0.0438 -0.0381  0.1164
64472W        W 7410  11.900  26.096  26.141  0.1875 -0.0260 -0.0772
64473W        W 7411  10.550  26.655  25.502 -0.1851 -0.0265  0.1195
64474W        W 7412  12.515  28.362  24.497 -0.1764 -0.3260  0.1263
64475W        W 7413  14.713  27.606  25.436 -0.2121  0.1108 -0.3480
64476W        W 7414  13.781  25.327  24.542 -0.2630  0.1337  0.0580
64477W        W 7415  14.710  29.239  27.375 -0.1349 -0.0773 -0.0621
64478W        W 7416  11.132  27.614  23.899 -0.0208  0.3748  0.0651
64479W        W 7417  13.941  26.840  27.027 -0.0655 -0.1264 -0.0021
64480W        W 7418  13.780  26.961  27.459 -0.0484  0.1077  0.1045
64481W        W 7419  11.296  26.446  24.886 -0.1022  0.0074 -0.0258
64482W        W 7420  12.236  27.135  26.568  0.3898 -0.1586  0.1890
64483W        W 7421  13.595  28.123  24.704  0.0318 -0.2995 -0.1167
64484W        W 7422  14.655  29.830  24.433  0.0604 -0.3554 -0.1075
64485W        W 7423  12.581  29.204  26.612  0.0302  0.0343  0.1725
64486W        W 7424  12.357  29.714  26.622 -0.2294 -0.0332  0.0855
64487W        W 7425  12.729  25.583  26.128 -0.0230  0.2973 -0.1228
64488W        W 7426  15.494  27.178  24.781  0.1277 -0.1778  0.0885
64489W        W 7427  11.983  28.365  26.412 -0.1410  0.1266 -0.2419
64490W        W 7428  16.267  29.044  24.501 -0.1232 -0.0293  0.0272
64491W        W 7429  15.454  25.690  24.543  0.0946 -0.0451 -0.1593
64492W        W 7430  12.686  27.481  24.897  0.1659 -0.3612 -0.1911
64493W        W 7431  13.349  26.681  27.671  0.4167  0.0352 -0.0567
64494W        W 7432  13.053  28.035  27.096  0.0095  0.1724 -0.1617
64495W        W 7433  15.252  27.569  25.765 -0.0156  0.1689 -0.1019
64496W        W 7434  12.512  25.350  24.585  0.1314 -0.3485 -0.2187
64497W        W 7435  11.946  27.198  24.834  0.3113  0.1492  0.0143
64498W        W 7436  13.540  28.136  25.269 -0.2572 -0.0060  0.1129
64499W        W 7437  11.434  27.458  26.807  0.1861  0.0041  0.0478
64500W        W 7438  12.054  26.785  24.462 -0.0850 -0.1048  0.0667
64501W        W 7439  13.707  28.179  27.380  0.1250  0.3866 -0.0419
64502W        W 7440  12.672  27.965  25.216 -0.1676  0.0215 -0.1616
64503W        W 7441  13.899  26.894  25.748 -0.0569 -0.1670 -0.0234
64504W        W 7442  14.300  26.968  22.768  0.1485 -0.0412  0.2162
64505W        W 7443  16.452  28.612  24.376  0.1485  0.2165 -0.3257
64506W        W 7444  14.175  29.328  26.575  0.1836  0.3112 -0.1181
64507W        W 7445  15.004  29.271  25.911 -0.0586  0.0643  0.0007
64508W        W 7446  13.098  28.598  25.399  0.0568  0.1751  0.1260
64509W        W 7447  14.306  27.549  24.128  0.3605  0.2200  0.1857
64510W        W 7448  12.213  26.329  27.239  0.4405  0.2234  0.0893
64511W        W 7449  11.270  28.296  25.119  0.1675  0.2666  0.0103
64512W        W 7450  13.001  27.056  24.378  0.0702  0.2491  0.1254
64513W        W 7451  13.606  27.229  27.105  0.3628 -0.1125  0.0203
64514W        W 7452  11.995  26.468  25.747 -0.4915  0.0667  0.0255
64515W        W 7453  11.232  25.501  21.940  0.3447  0.0805 -0.1221
64516W        W 7454  11.591  28.647  26.283 -0.1037 -0.2047  0.0299
64517W        W 7455  13.678  26.155  25.273  0.1222  0.0161 -0.0995
64518W        W 7456  11.922  28.141  31.190 -0.1383  0.0739 -0.2535
64519W        W 7457  11.846  27.624  29.196 -0.1600 -0.1925  0.2086
64520W        W 7458  13.690  26.350  25.834  0.1170 -0.2918 -0.1974
64521W        W 7459  15.190  27.851  28.074 -0.1164 -0.1393  0.0019
64522W        W 7460  11.470  24.945  28.909  0.3596  0.1259 -0.0192
64523W        W 7461  13.448  28.048  27.870 -0.0015 -0.0039  0.1407
64524W        W 7462  11.633  26.074  29.498 -0.0409  0.1103  0.1872
64525W        W 7463  12.676  29.449  29.167 -0.1294 -0.1096  0.0186
64526W        W 7464  14.674  29.085  29.865  0.0264  0.0616 -0.1024
64527W        W 7465  15.166  29.026  26.424 -0.3013  0.1001 -0.0296
64528W        W 7466  12.055  26.480  30.925 -0.4955  0.1298 -0.1873
64529W        W 7467  11.275  28.498  28.524  0.3612  0.2263 -0.2858
64530W        W 7468  12.208  28.044  29.195 -0.1252 -0.0152  0.3054
64531W        W 7469  10.728  23.804  29.811  0.2207 -0.2277  0.0854
64532W        W 7470  13.432  27.628  29.286  0.1290  0.1607  0.1189
64533W        W 7471  11.532  27.653  28.286  0.0875 -0.0028 -0.0890
64534W        W 7472  12.023  26.811  29.206 -0.4654  0.0107 -0.0452
64535W        W 7473  12.871  27.719  28.398 -0.0584  0.1430  0.0422
64536W        W 7474  13.543  27.827  29.853  0.0992 -0.1836 -0.0416
64537W        W 7475  12.688  27.341  30.106 -0.1497  0.3392 -0.2182
64538W        W 7476  13.162  25.289  30.989 -0.0242  0.0912  0.0127
64539W        W 7477  12.784  28.147  29.366 -0.1791  0.1543  0.1910
64540W        W 7478  12.696  26.793  28.326  0.0848  0.1607 -0.1690
64541W        W 7479  11.161  27.316  28.482  0.2047  0.0713 -0.2806
64542W        W 7480  12.576  28.458  31.709 -0.0359 -0.0165  0.1227
64543W        W 7481  13.556  26.699  28.351 -0.0611 -0.0445  0.2123
64544W        W 7482  15.767  27.394  30.523  0.2257  0.1212 -0.0484
64545W        W 7483  12.886  29.283  27.417  0.1853 -0.3742  0.0294
64546W        W 7484  14.155  28.824  29.050  0.2018  0.0612  0.0453
64547W        W 7485  15.496  25.988  30.466  0.0380  0.3640 -0.1568
64548W        W 7486   9.868  28.277  29.090 -0.3756 -0.0724 -0.3167
64549W        W 7487  10.049  28.115  28.114 -0.2903  0.0915 -0.0143
64550W        W 7488  13.012  28.515  26.982 -0.1628 -0.1327 -0.1465
64551W        W 7489  15.067  29.043  27.693  0.1533  0.1086 -0.0318
64552W        W 7490  14.044  29.133  31.173 -0.1449 -0.2572 -0.2451
64553W        W 7491  11.033  28.164  30.943 -0.0474  0.2778 -0.0259
64554W        W 7492  11.048  27.821  27.055 -0.1399 -0.1848 -0.3491
64555W        W 7493  12.219  29.101  30.042 -0.0257 -0.1997  0.1207
64556W        W 7494  11.259  28.940  30.480 -0.1056  0.0656  0.1286
64557W        W 7495  13.911  27.236  30.676 -0.1406  0.4238  0.1892
64558W        W 7496  13.159  28.040  29.015 -0.2418 -0.0361  0.0827
64559W        W 7497  10.133  28.296  27.143 -0.1511 -0.1365 -0.2115
64560W        W 7498  12.783  29.080  29.655  0.1767  0.1696  0.0336
64561W        W 7499  13.654  29.124  31.437  0.0327 -0.3722 -0.4345
64562W        W 7500  10.845  28.633  30.811  0.3422  0.5173 -0.1844
64563W        W 7501  15.826  25.836  29.428 -0.0471 -0.1405  0.0240
64564W        W 7502  10.800  29.079  27.579 -0.2761 -0.0026  0.0937
64565W        W 7503  14.608  26.584  27.820  0.1170  0.1097  0.1294
64566W        W 7504  12.966  28.092  28.072  0.0747  0.0514 -0.0131
64567W        W 7505  14.660  27.120  28.014  0.3593 -0.5567  0.1054
64568W        W 7506  13.539  24.035  28.995  0.0841 -0.1624  0.0772
64569W        W 7507  11.178  29.630  29.208  0.2624  0.1686 -0.2418
64570W        W 7508  13.351  25.358  29.251 -0.0695 -0.1977 -0.2188
64571W        W 7509  16.414  27.873  30.822 -0.2305 -0.0003  0.4114
64572W        W 7510  13.296  28.039  28.378 -0.3339 -0.4809  0.3060
64573W        W 7511  13.388  26.767  27.132 -0.1304  0.1992 -0.0507
64574W        W 7512  10.922  28.570  29.360  0.0896  0.0576  0.0057
64575W        W 7513  11.629  26.511  29.176 -0.0557 -0.0217 -0.1817
64576W        W 7514  14.160  28.318  28.770 -0.0833 -0.0716  0.0315
64577W        W 7515  14.817  28.272  28.434  0.0125 -0.1007 -0.0460
64578W        W 7516  13.878  27.825  25.524  0.2857  0.1781  0.1802
64579W        W 7517  11.112  25.242  28.240  0.0452  0.3516  0.1584
64580W        W 7518  12.609  27.451  29.606 -0.4569  0.2636  0.0218
64581W        W 7519  11.924  26.783  31.407  0.2350  0.2669 -0.0004
64582W        W 7520  13.184  24.862  28.997 -0.1147 -0.0694  0.1391
64583W        W 7521  14.995  27.273  29.965 -0.0852 -0.2650 -0.2650
64584W        W 7522   9.943  29.899  30.268  0.1309  0.0474 -0.1375
64585W        W 7523  14.203  26.942  28.047  0.0781 -0.1127  0.0533
64586W        W 7524  12.993  28.339  29.767  0.0601  0.1416 -0.1365
64587W        W 7525  13.906  29.300  29.701  0.1389 -0.0837 -0.0931
64588W        W 7526  13.463  28.165  26.866  0.0243 -0.0034 -0.1111
64589W        W 7527  13.537  26.704  29.730 -0.2087  0.0551 -0.0102
64590W        W 7528  14.194  24.314  30.914 -0.1352 -0.1835  0.1015
64591W        W 7529  11.792  28.989  27.249  0.0414 -0.0921 -0.0679
64592W        W 7530  11.181  28.663  27.547 -0.2327 -0.0676 -0.0539
64593W        W 7531  14.952  27.748  29.232 -0.2868 -0.0332 -0.0649
64594W        W 7532  14.355  25.741  27.606 -0.1617 -0.2529  0.1610
64595W        W 7533  11.686  28.599  29.871 -0.0961 -0.1252  0.1844
64596W        W 7534  12.911  26.532  30.570 -0.2221 -0.1380 -0.1030
64597W        W 7535  13.306  29.298  30.988  0.1332  0.0493 -0.0722
64598W        W 7536  12.770  31.059  27.207  0.3399 -0.1481  0.2458
64599W        W 7537  10.711  28.960  28.106 -0.0761 -0.0527  0.0597
64600W        W 7538  12.000  27.444  28.172 -0.1355  0.0114 -0.2394
64601W        W 7539  12.723  26.111  29.338  0.1981  0.3597 -0.2493
64602W        W 7540  12.922  27.343  30.625  0.4305 -0.1317 -0.1385
64603W        W 7541  13.720  25.646  28.275  0.0215 -0.0393  0.1405
64604W        W 7542  11.171  25.793  29.556  0.1586  0.0941  0.0373
64605W        W 7543  15.080  26.795  28.159  0.0885  0.0490  0.3041
64606W        W 7544  11.848  27.898  26.501  0.1194 -0.4050 -0.0200
64607W        W 7545  15.062  28.280  28.883  0.4087  0.2145 -0.1013
64608W        W 7546  12.536  26.369  29.791  0.1722 -0.2200 -0.3588
64609W        W 7547  14.639  29.558  26.842 -0.2225  0.1480 -0.4826
64610W        W 7548  11.382  26.299  28.822 -0.0637 -0.0862  0.0110
64611W        W 7549  11.761  25.926  29.021 -0.0269  0.0642  0.0760
64612W        W 7550  12.174  25.985  31.277 -0.0561  0.0675 -0.2333
64613W        W 7551  12.093  26.414  29.532 -0.0535 -0.0322 -0.2409
64614W        W 7552  15.514  26.644  31.385  0.1831 -0.0112  0.1591
64615W        W 7553  11.940  25.301  27.995 -0.0334 -0.2443  0.0774
64616W        W 7554  14.149  25.929  28.447 -0.0177 -0.1129  0.1476
64617W        W 7555  12.065  26.973  28.415  0.4583 -0.1771 -0.1889
64618W        W 7556  10.454  28.031  30.146 -0.2243 -0.0192  0.1921
64619W        W 7557  12.458  25.441  29.453  0.2093 -0.0382  0.2659
64620W        W 7558  13.423  28.610  28.340  0.1982 -0.1224  0.2308
64621W        W 7559  14.862  28.855  29.336  0.1229 -0.3953 -0.1186
64622W        W 7560  14.674  29.108  27.915  0.2835  0.0750 -0.1464
64623W        W 7561  13.721  26.410  30.123 -0.1604 -0.1652  0.0942
64624W        W 7562  11.950  25.073  28.736  0.0291 -0.1614  0.2734
64625W        W 7563  10.817  28.401  28.836  0.0743 -0.3341 -0.0578
64626W        W 7564  12.365  27.536  29.199  0.0421 -0.0638 -0.1994
64627W        W 7565  13.064  25.436  28.848 -0.2819  0.0165 -0.1699
64628W        W 7566  15.180  28.859  30.527 -0.0268 -0.4169 -0.1958
64629W        W 7567  13.797  28.034  29.420 -0.0526 -0.1385  0.3063
64630W        W 7568  12.165  28.364  30.805  0.0526  0.1217  0.2332
64631W        W 7569  13.874  26.145  29.573 -0.0772 -0.2088 -0.1041
64632W        W 7570  14.222  27.549  28.773 -0.1054 -0.3743  0.1153
64633W        W 7571  14.100  28.442  29.423  0.1534 -0.2177 -0.0877
64634W        W 7572  12.373  25.408  28.712  0.0462  0.1805  0.0356
64635W        W 7573  13.960  29.286  29.052 -0.3547  0.1032 -0.0729
64636W        W 7574  11.357  29.025  26.556 -0.0960  0.2869  0.1662
64637W        W 7575  10.477  27.201  28.262  0.2082  0.2249 -0.0264
64638W        W 7576  11.979  29.344  28.501 -0.0880  0.2865 -0.0245
64639W        W 7577  13.826  26.185  29.014  0.2218  0.2317  0.1347
64640W        W 7578  11.975  28.166  30.304  0.0849  0.1108 -0.0006
64641W        W 7579  13.070  27.861  30.681 -0.2823  0.0508  0.0863
64642W        W 7580  12.371  27.745  28.224  0.0238 -0.1108  0.2730
64643W        W 7581  11.304  27.022   0.225 -0.1157 -0.2917 -0.0689
64644W        W 7582  13.921  25.883  27.916  0.0242 -0.1690 -0.1383
64645W        W 7583  14.861  27.015  27.022 -0.0463  0.1582 -0.3208
64646W        W 7584  13.096  27.527  29.691 -0.0982 -0.2152 -0.0164
64647W        W 7585  15.469  26.973  27.178  0.4736 -0.1177  0.0503
64648W        W 7586  13.413  26.154  27.736  0.1344  0.1287 -0.0756
64649W        W 7587  14.253  25.676  26.245  0.0455 -0.2674  0.1166
64650W        W 7588  11.718  26.239   0.261  0.1154 -0.3581 -0.1191
64651W        W 7589  13.663  28.362  28.747 -0.2361 -0.0469  0.0804
64652W        W 7590  14.064  27.107  29.154 -0.3164  0.1394  0.2699
64653W        W 7591  13.789  28.184  28.318 -0.0074  0.0396  0.2230
64654W        W 7592  14.818  28.748  28.243 -0.2917 -0.5071  0.0509
64655W        W 7593  10.365  28.296  29.245  0.3321 -0.0157 -0.0497
64656W        W 7594  13.978  27.886  30.135 -0.1742 -0.1418 -0.0721
64657W        W 7595  12.904  29.007  29.031 -0.2629  0.0345  0.0060
64658W        W 7596  13.204  26.314  30.092 -0.3938  0.2251  0.0196
64659W        W 7597  12.803  28.055  27.552 -0.1252 -0.0523  0.0065
64660W        W 7598  13.143  26.738  28.643 -0.1308 -0.1354  0.1663
64661W        W 7599  10.882  28.468  28.266  0.1166 -0.0500 -0.4165
64662W        W 7600  14.242  25.524  29.900 -0.1738 -0.1179 -0.0301
64663W        W 7601  12.367  24.560  29.466 -0.0841  0.1422  0.0414
64664W        W 7602  11.446  25.383  30.261  0.1858 -0.3533  0.2229
64665W        W 7603  14.551  25.511  28.588  0.1127 -0.1491 -0.0637
64666W        W 7604  13.867  27.742  27.076  0.2334 -0.0717 -0.2201
64667W        W 7605  12.477  26.521  29.136 -0.3242  0.0373  0.0701
64668W        W 7606  12.222  26.786  27.468  0.0029 -0.0392  0.1782
64669W        W 7607  12.230  28.687  29.788 -0.1704 -0.0057  0.0364
64670W        W 7608  11.896  28.109  29.821  0.3232 -0.0333  0.1331
64671W        W 7609  11.475  28.103  30.091  0.2112  0.0926 -0.5563
64672W        W 7610  14.573  28.455  30.513  0.1075  0.0593  0.0583
64673W        W 7611  13.254  27.636  28.682 -0.3124  0.0637  0.0986
64674W        W 7612  13.338  25.614  30.659  0.2106  0.3081 -0.0335
64675W        W 7613  12.723  27.358  28.820  0.0215 -0.2122 -0.0656
64676W        W 7614  11.723  29.227  27.743 -0.0451  0.1995  0.0429
64677W        W 7615  10.788  27.235  27.346 -0.1855  0.0032  0.2216
64678W        W 7616  13.840  25.267  30.283 -0.0509  0.0367  0.1050
64679W        W 7617  11.982  29.315  29.272  0.0910 -0.1634  0.1120
64680W        W 7618  12.487  29.500  27.134 -0.0199  0.0699  0.1492
64681W        W 7619  12.897  27.651  29.246 -0.0313 -0.1074  0.1598
64682W        W 7620  12.389  28.922  27.409 -0.0564 -0.1374  0.4475
64683W        W 7621  13.349  26.029  29.721  0.1587  0.1886  0.3435
64684W        W 7622  10.728  28.557  27.696  0.0597  0.0039  0.0766
64685W        W 7623  12.066  26.371  28.970 -0.2181  0.0575  0.2769
64686W        W 7624  11.185  28.032  28.321  0.0440  0.0313  0.0475
64687W        W 7625  15.496  24.677  28.630 -0.0777  0.1360  0.1498
64688W        W 7626  14.182  29.180  27.564 -0.0757 -0.1704 -0.1836
64689W        W 7627  10.776  25.132  31.007 -0.0626 -0.0574  0.2943
64690W        W 7628  13.395  24.780  30.182 -0.1622  0.0460 -0.1326
64691W        W 7629  11.590  28.496  30.403 -0.0391  0.1367  0.0709
64692W        W 7630  14.167  26.008  30.054  0.3647  0.2099  0.0669
64693W        W 7631  13.847  24.908  26.318  0.0538  0.1596 -0.2255
64694W        W 7632  12.487  29.848  29.422 -0.0209 -0.2183 -0.0100
64695W        W 7633  12.622  27.159  31.276 -0.1699  0.1895 -0.1428
64696W        W 7634  12.402  25.500  28.133  0.0008  0.1428 -0.0927
64697W        W 7635  14.414  26.834  29.426  0.0272 -0.0235 -0.0641
64698W        W 7636  12.073  27.129  28.871 -0.2328 -0.2124 -0.2618
64699W        W 7637  11.275  28.985  27.936  0.0939 -0.0110 -0.2383
64700W        W 7638  12.307  28.657  28.336  0.0913 -0.0581  0.3378
64701W        W 7639  11.934  27.740  27.360 -0.0118  0.0170  0.1269
64702W        W 7640  11.151  28.021  29.572  0.1484  0.1827 -0.4854
64703W        W 7641  12.970  26.949  31.626  0.0066  0.1541 -0.1553
64704W        W 7642  13.901  27.463  29.918 -0.0270  0.2630  0.0796
64705W        W 7643  11.452  27.729  28.770  0.0563 -0.2358 -0.0161
64706W        W 7644  13.038  26.558  29.661 -0.1420 -0.1246  0.2524
64707W        W 7645  12.593  28.601  29.433 -0.1094  0.0742 -0.0085
64708W        W 7646  14.596  27.905  28.727 -0.1502  0.0899 -0.0966
64709W        W 7647  12.768  27.870  29.894 -0.0863 -0.0752 -0.0271
64710W        W 7648  12.202  28.150  31.702 -0.1794  0.1091  0.0002
64711W        W 7649  14.079  24.778  30.794 -0.0818  0.0861 -0.0138
64712W        W 7650  14.918  29.218  28.372  0.3037  0.0875 -0.1991
64713W        W 7651  13.489  27.226  29.776 -0.2330  0.0647  0.1922
64714W        W 7652  11.241  26.972  27.004  0.0871  0.1111 -0.1754
64715W        W 7653  10.417  27.838  29.606 -0.2001 -0.1249 -0.0593
64716W        W 7654  12.784  28.984  27.025 -0.0452 -0.0960 -0.0221
64717W        W 7655  13.028  25.932  28.912 -0.0754 -0.1239  0.0127
64718W        W 7656  11.267  28.192  28.938 -0.2717  0.2355  0.4957
64719W        W 7657  11.735  30.027  27.145  0.0725 -0.0655 -0.2569
64720W        W 7658  11.292  27.605  30.099 -0.2061  0.2161 -0.0639
64721W        W 7659  14.009  25.251  25.604  0.0416 -0.2294  0.0347
64722W        W 7660  14.130  27.272  27.110 -0.0249  0.2302  0.1829
64723W        W 7661  13.545  27.065  29.242  0.0061  0.2566  0.3688
64724W        W 7662  14.507  25.146  28.196 -0.2794  0.0780 -0.1316
64725W        W 7663  14.948  26.188  26.583 -0.0169 -0.0819  0.0481
64726W        W 7664  13.726  25.733  30.036  0.2467  0.0847 -0.3694
64727W        W 7665  13.368  25.286  30.155  0.0118  0.0740 -0.1428
64728W        W 7666  14.638  28.077  29.474  0.0682 -0.2644 -0.0898
64729W        W 7667  11.615  24.986  29.481 -0.0803 -0.4256 -0.1680
64730W        W 7668  13.440  29.056  30.340 -0.1858  0.2731  0.0050
64731W        W 7669  13.319  27.707   0.218  0.0864 -0.1646  0.2375
64732W        W 7670  13.520  28.753  28.941  0.0029 -0.2673 -0.0606
64733W        W 7671  12.312  25.082  28.360  0.1347 -0.2557 -0.0434
64734W        W 7672  12.076  27.487  29.600 -0.0096  0.3394  0.1783
64735W        W 7673  12.781  29.196  30.158 -0.1161  0.1621  0.0833
64736W        W 7674  11.647  28.493  28.858 -0.0113  0.0527  0.1439
64737W        W 7675  13.750  27.367  28.951 -0.1908 -0.1814  0.0058
64738W        W 7676  13.139  27.632  30.221  0.2370  0.2307  0.1442
64739W        W 7677  13.515  28.360  29.814 -0.1442  0.1656 -0.2247
64740W        W 7678  13.045  28.555  27.945  0.0217 -0.0124 -0.0629
64741W        W 7679  10.604  28.878  28.576 -0.0200  0.0107 -0.2153
64742W        W 7680  11.654  25.772  29.975  0.2250 -0.0773  0.1712
64743W        W 7681  13.088  29.937  28.023  0.2534 -0.0038  0.0187
64744W        W 7682  13.843  25.113  29.227  0.0121 -0.1122  0.1623
64745W        W 7683  12.360  26.511  30.470  0.2202  0.0459  0.3248
64746W        W 7684  14.749  25.239  30.290  0.0700 -0.0258 -0.0323
64747W        W 7685  12.973  26.020  30.686  0.0484  0.0697  0.2885
64748W        W 7686  11.111  26.600  30.169 -0.1325 -0.0909 -0.1663
64749W        W 7687  13.615  30.920  31.528  0.1905 -0.0593 -0.0144
64750W        W 7688  14.561  27.303  27.396  0.4416  0.2112  0.1612
64751W        W 7689  14.469  26.595  28.342  0.0103  0.0034  0.4017
64752W        W 7690  14.264  28.804  27.886 -0.2271 -0.3081 -0.0649
64753W        W 7691  12.739  26.687  27.343 -0.0490 -0.0640 -0.1930
64754W        W 7692  12.605  26.946  30.494 -0.2269  0.3803 -0.0070
64755W        W 7693  15.143  25.266  29.923 -0.1293  0.1617  0.2173
64756W        W 7694  13.130  26.489  28.079 -0.0978 -0.1007 -0.0517
64757W        W 7695  12.843  25.944  29.833 -0.0779  0.3867 -0.1206
64758W        W 7696  13.131  27.663  27.592  0.3778 -0.0074  0.0729
64759W        W 7697  14.323  27.317  29.620 -0.1032  0.0272  0.2374
64760W        W 7698  12.951  28.552  28.554 -0.1346 -0.1955  0.1424
64761W        W 7699   9.822  27.855  29.508  0.1204  0.3064 -0.1703
64762W        W 7700  11.348  28.746  31.964  0.3025 -0.1652  0.1171
64763W        W 7701  13.066  26.200  28.465  0.0020 -0.1278  0.2229
64764W        W 7702  13.583  28.660  26.755  0.1240 -0.1320  0.0267
64765W        W 7703  13.018  28.146  30.233  0.1209 -0.3165 -0.2084
64766W        W 7704  14.343  27.029  30.537  0.0557 -0.2321 -0.2418
64767W        W 7705  12.718  25.001  28.733  0.1314  0.0720  0.0262
64768W        W 7706  13.617  26.834  28.831 -0.0374 -0.2559 -0.3338
64769W        W 7707   9.764  28.132  26.960  0.0222 -0.0548  0.0498
64770W        W 7708  14.298  24.798  29.632  0.0346  0.0050  0.0475
64771W        W 7709  13.642  29.016  29.381  0.1397 -0.1743 -0.2807
64772W        W 7710  11.291  28.209  31.777 -0.1165  0.0531  0.0381
64773W        W 7711  10.837  27.992  29.214 -0.0278 -0.1248  0.2389
64774W        W 7712  12.733  26.096  31.252  0.2127  0.0746 -0.0755
64775W        W 7713  13.044  27.210  28.383 -0.4414 -0.0992  0.2370
64776W        W 7714  14.326  27.832  29.769 -0.0597  0.1382 -0.2337
64777W        W 7715  13.615  27.545  30.320  0.0940 -0.2117  0.3097
64778W        W 7716  13.234  28.365  30.687  0.1003 -0.0023  0.2550
64779W        W 7717  12.227  26.485  28.472 -0.1628 -0.1653 -0.1364
64780W        W 7718  11.711  28.578   0.277 -0.0503  0.0502  0.1412
64781W        W 7719  15.388  26.635  28.622  0.0016 -0.0329  0.0343
64782W        W 7720  13.238  27.995  29.541 -0.1581  0.0724 -0.0888
64783W        W 7721  11.535  27.775  29.709 -0.0184 -0.1528 -0.0514
64784W        W 7722  12.283  27.824  30.035 -0.1243  0.1660 -0.1420
64785W        W 7723  13.159  27.900  31.742 -0.0918  0.0094 -0.2444
64786W        W 7724  11.960  25.596  28.458  0.2163 -0.4008  0.2905
64787W        W 7725  13.170  28.791  29.463  0.0124 -0.1106 -0.1808
64788W        W 7726  10.599  28.982  30.349 -0.0324  0.2889  0.1848
64789W        W 7727  12.095  27.835  30.742 -0.0730  0.0858  0.1479
64790W        W 7728  11.506  28.941  28.552 -0.1346 -0.4055  0.1757
64791W        W 7729  12.900  27.557  27.012 -0.0242 -0.0318 -0.1283
64792W        W 7730  14.797  27.188  29.482  0.1491 -0.2966 -0.5540
64793W        W 7731  13.734  29.391  28.406 -0.0447 -0.1373  0.0288
64794W        W 7732  12.500  27.830  28.744  0.3270 -0.2152 -0.1680
64795W        W 7733  12.018  28.515  29.229  0.2478  0.1218 -0.0793
64796W        W 7734  12.527  28.331  27.867 -0.1741 -0.0734 -0.0872
64797W        W 7735  14.286  27.985  28.222  0.3223  0.0625  0.1281
64798W        W 7736  13.010  29.239  28.149  0.0917 -0.1507 -0.3444
64799W        W 7737  14.766  27.432  30.511  0.0844 -0.0079 -0.3703
64800W        W 7738  14.737  25.437  27.791 -0.1168  0.0947  0.1285
64801W        W 7739  14.315  26.576  28.944 -0.2298  0.1147  0.1916
64802W        W 7740  14.449  26.075  28.020  0.1455  0.0513 -0.3004
64803W        W 7741  14.253  28.292  29.935  0.0945 -0.2804 -0.0111
64804W        W 7742  11.963  27.312  30.743 -0.1906 -0.5815  0.2817
64805W        W 7743  13.170  27.184  28.930  0.2333 -0.0687  0.0229
64806W        W 7744  10.596  28.230  31.614  0.1681  0.2054  0.2206
64807W        W 7745  13.630  25.850  28.699 -0.2808 -0.0642 -0.0103
64808W        W 7746  10.658  29.671  31.008 -0.0831 -0.1850 -0.1948
64809W        W 7747  13.720  29.053  27.579  0.4853  0.4864 -0.2396
64810W        W 7748  12.252  25.990  28.212  0.0424  0.0097  0.4159
64811W        W 7749  11.376  27.723  29.217  0.2607  0.0939 -0.2185
64812W        W 7750  14.626  24.968  27.697 -0.1111  0.1129 -0.0730
64813W        W 7751  13.394  27.661  27.158 -0.0395  0.1835 -0.0871
64814W        W 7752  12.654  26.886  29.875  0.0524 -0.2527  0.1899
64815W        W 7753  11.662  28.141  28.401 -0.2241  0.0299  0.0355
64816W        W 7754  12.034  28.842  28.752 -0.1466  0.1681  0.0664
64817W        W 7755  11.116  29.425  29.710  0.0396  0.0066  0.0231
64818W        W 7756  11.537  27.257  28.810 -0.1321 -0.2317 -0.1414
64819W        W 7757  13.529  27.256  28.531  0.0480  0.0255  0.1431
64820W        W 7758  11.596  27.222  31.181 -0.1747 -0.2160 -0.0341
64821W        W 7759  14.621  25.264  29.710 -0.0760  0.1659 -0.2134
64822W        W 7760  10.371  27.683  27.961  0.1013 -0.0699 -0.4002
64823W        W 7761  12.025  26.041  29.826 -0.2544  0.0825 -0.2282
64824W        W 7762  14.565  27.713  30.855  0.0401 -0.2787 -0.3076
64825W        W 7763  11.586  27.020  29.269  0.0564 -0.0140  0.1508
64826W        W 7764  12.132  28.237  28.165  0.0510 -0.0882 -0.1219
64827W        W 7765  13.922  27.026  29.610  0.0006  0.1516  0.0918
64828W        W 7766  14.445  27.269  26.580  0.1326 -0.1310 -0.0250
64829W        W 7767  14.742  29.591  29.960 -0.1710  0.0346 -0.3652
64830W        W 7768  11.208  25.773  28.947 -0.2302 -0.1730 -0.1436
64831W        W 7769  13.436  26.328  28.738 -0.5173  0.1084  0.0120
64832W        W 7770  10.673  27.298  27.844  0.0122  0.3884 -0.0185
64833W        W 7771  12.688  28.071  31.289  0.1399  0.0547  0.0393
64834W        W 7772  14.778  28.158  29.943  0.0742  0.0409 -0.2560
64835W        W 7773  13.301  24.433  29.261  0.3248  0.2835 -0.3101
64836W        W 7774  15.665  30.905  27.319 -0.0680 -0.0211  0.0561
64837W        W 7775  13.932  26.519  28.640  0.1545  0.1899  0.1607
64838W        W 7776  11.398  30.025  27.517  0.1260  0.0058  0.0012
64839W        W 7777  15.287  27.292  30.483 -0.0779 -0.4985 -0.0827
64840W        W 7778  14.571  28.561  29.638  0.0360 -0.0432  0.3785
64841W        W 7779  11.706  27.211  29.819 -0.0578 -0.2089  0.0416
64842W        W 7780  14.120  28.900  29.564  0.1234 -0.2262  0.1133
64843W        W 7781  15.465  27.664  30.863  0.0772 -0.0200  0.4196
64844W        W 7782  13.487  25.858  29.248 -0.2459  0.0087 -0.0655
64845W        W 7783  12.531  26.882  28.835  0.2609 -0.0741 -0.2477
64846W        W 7784  10.917  30.298  28.693  0.2207  0.1805 -0.0304
64847W        W 7785  14.786  26.478  29.181 -0.1259 -0.2969 -0.1831
64848W        W 7786  13.963  26.211  30.485 -0.0935 -0.1217  0.0924
64849W        W 7787  12.182  28.663  27.769  0.2129 -0.2629  0.1324
64850W        W 7788  13.491  26.033   0.003 -0.0216  0.1273 -0.2465
64851W        W 7789  12.182  29.171  30.543 -0.3059 -0.1458 -0.0419
64852W        W 7790  11.801  28.999  31.833  0.3301 -0.3098 -0.0664
64853W        W 7791  11.991  28.221  27.665 -0.0215 -0.3452  0.0681
64854W        W 7792  13.472  26.562  30.592  0.0512  0.1896  0.2197
64855W        W 7793  13.322  27.054  27.999 -0.0151 -0.1048 -0.2242
64856W        W 7794  11.346  28.421  27.956  0.0836 -0.0496 -0.0133
64857W        W 7795  15.365  27.411  27.419  0.0653  0.0828  0.0403
64858W        W 7796  13.146  27.139  27.521 -0.0219 -0.0711 -0.3718
64859W        W 7797  16.023  28.088  29.053 -0.2962  0.1759  0.3960
64860W        W 7798  12.826  25.132  29.233 -0.0320  0.3669 -0.0228
64861W        W 7799  13.742  24.868  28.805 -0.0356  0.1660 -0.2285
64862W        W 7800  14.528  24.474  29.212 -0.0353 -0.3550 -0.3237
64863W        W 7801  12.261  27.803  31.239  0.1567  0.1243 -0.1314
64864W        W 7802  11.583  27.134  28.233  0.0605 -0.0234 -0.0576
64865W        W 7803  12.562  27.957  26.877 -0.2755  0.2294  0.2789
64866W        W 7804  10.924  28.127  30.114  0.1941 -0.3613  0.3876
64867W        W 7805  13.867  26.475  31.825  0.0037 -0.1015 -0.2131
64868W        W 7806  11.625  27.297  30.370 -0.3215  0.0591  0.2722
64869W        W 7807  11.385  28.766  29.457 -0.1001 -0.0537  0.2766
64870W        W 7808  12.668  26.241  28.134 -0.1919  0.0919  0.0574
64871W        W 7809  14.714  28.010  27.877 -0.0401  0.0670 -0.0563
64872W        W 7810  13.675  24.619  30.582  0.0360 -0.4420 -0.1321
64873W        W 7811  11.032  26.760  29.663  0.0854 -0.0973  0.0852
64874W        W 7812  13.460  28.390  29.315  0.1627  0.2992 -0.1535
64875W        W 7813  13.926  30.289  27.517  0.1209  0.2576 -0.1977
64876W        W 7814  13.447  26.072  30.464  0.1927 -0.0369  0.1246
64877W        W 7815  14.510  27.912  30.308  0.0976 -0.1776 -0.1432
64878W        W 7816  11.607  27.881  27.002  0.0469  0.3328 -0.0981
64879W        W 7817  13.047  26.938  30.910 -0.0217  0.1007  0.4750
64880W        W 7818  12.428  27.451  30.903  0.0626  0.0926 -0.0451
64881W        W 7819  12.156  25.103  26.607  0.2501 -0.5629 -0.3083
64882W        W 7820  12.444  26.055  30.794  0.2904  0.0271 -0.0624
64883W        W 7821  13.061  28.506  29.068 -0.1793  0.0895 -0.2591
64884W        W 7822  13.916  28.702  28.207 -0.0675  0.3339 -0.2859
64885W        W 7823  12.562  28.836  30.455  0.1817 -0.0641  0.0317
64886W        W 7824  11.676  28.143  30.797 -0.2853  0.2594  0.2253
64887W        W 7825  10.792  23.979  29.281  0.1006 -0.2253 -0.0181
64888W        W 7826  12.563  28.225  28.422 -0.1345 -0.1650 -0.1634
64889W        W 7827  13.534  28.569  31.620  0.3337 -0.0003 -0.0277
64890W        W 7828  14.353  28.268  27.711  0.1585  0.0356 -0.5119
64891W        W 7829  15.278  25.111  28.878 -0.0364 -0.0272  0.0235
64892W        W 7830  13.786  26.737  27.891 -0.0116  0.1216  0.2986
64893W        W 7831  11.635  26.419  31.263 -0.1184  0.0920 -0.1130
64894W        W 7832  10.898  28.578  31.828 -0.1505  0.1645 -0.1905
64895W        W 7833  14.514  27.389  29.151 -0.1427 -0.1008 -0.0674
64896W        W 7834  12.330  24.990  29.170  0.1364  0.1199 -0.0471
64897W        W 7835  12.793  26.239  27.113 -0.4412  0.0679 -0.2907
64898W        W 7836  12.528  28.314  28.936 -0.1522 -0.1322 -0.0197
64899W        W 7837  12.682  27.816  30.420 -0.3244 -0.1932 -0.0246
64900W        W 7838  14.268  26.863  27.515 -0.1968 -0.1895 -0.1962
64901W        W 7839  12.966  27.527  31.133 -0.0985 -0.4925 -0.1221
64902W        W 7840  14.805  28.643  30.107  0.1240 -0.0658 -0.2043
64903W        W 7841  13.272  28.054  31.159 -0.1294  0.3092 -0.2008
64904W        W 7842  12.100  28.329  28.693 -0.0212  0.1767 -0.3179
64905W        W 7843  15.201  27.214  26.720  0.1388  0.3109  0.2674
64906W        W 7844  10.716  28.959  29.734 -0.1909 -0.0310 -0.3185
64907W        W 7845  14.432  28.687  28.635 -0.0914 -0.1525 -0.0339
64908W        W 7846  12.887  29.437  28.681  0.3776 -0.0370 -0.2459
64909W        W 7847  13.881  27.700  28.463 -0.1222  0.1173 -0.1009
64910W        W 7848  12.134  24.236  29.141 -0.0278 -0.0486 -0.3649
64911W        W 7849  12.352  27.854  27.747  0.0039 -0.2774 -0.1396
64912W        W 7850  12.412  28.142  29.662  0.0076  0.4712  0.0453
64913W        W 7851  12.944  25.642  29.443 -0.1187  0.2482 -0.0234
64914W        W 7852  11.815  26.419  30.526  0.0220 -0.0138 -0.1976
64915W        W 7853  12.773  24.815  27.685 -0.0815  0.2619 -0.2680
64916W        W 7854  12.089  28.697  30.331  0.0529  0.1231  0.0460
64917W        W 7855  13.942  27.526  29.384  0.0981  0.0534 -0.0406
64918W        W 7856  14.113  26.567  29.782 -0.0646 -0.0995 -0.1731
64919W        W 7857  13.372  27.441  30.820  0.0795 -0.4113  0.2827
64920W        W 7858  12.035  26.523  30.039 -0.0590  0.0591  0.0127
64921W        W 7859  10.779  29.071  31.538 -0.0418 -0.0217 -0.4713
64922W        W 7860  13.415  29.934  31.023 -0.1445 -0.0331  0.0639
64923W        W 7861  10.843  28.610   1.342  0.1664 -0.1617 -0.0570
64924W        W 7862  13.641  25.826  31.191 -0.1251 -0.2219 -0.1292
64925W        W 7863  12.770  26.714   0.817  0.3208 -0.0800 -0.3417
64926W        W 7864  13.829  27.273  31.160 -0.1316 -0.1978  0.3238
64927W        W 7865  14.199  27.562  30.489 -0.3936 -0.1874 -0.1831
64928W        W 7866  13.906  28.598  31.276  0.1971  0.1190  0.2954
64929W        W 7867  12.504  25.685  30.421  0.2292 -0.0993 -0.1339
64930W        W 7868  13.770  28.156  31.332 -0.1584 -0.0483 -0.0877
64931W        W 7869  11.693  27.963  31.626 -0.0317  0.1658  0.1022
64932W        W 7870  14.252  26.541  30.271  0.1222  0.3313  0.0215
64933W        W 7871  11.654  30.262   0.686  0.0085  0.2721  0.0845
64934W        W 7872  12.297  26.914   0.751 -0.0088  0.5665  0.2664
64935W        W 7873  14.262  28.060  31.439 -0.0723  0.1107 -0.2112
64936W        W 7874  11.077  25.677  30.126 -0.0538  0.0220 -0.1144
64937W        W 7875  12.116  28.734  31.551 -0.0091 -0.1541  0.0751
64938W        W 7876  12.662  26.205  30.229 -0.0200  0.0902 -0.0586
64939W        W 7877  11.380  29.568   0.663 -0.0491  0.2365  0.2433
64940W        W 7878  15.329  25.966  30.913 -0.0294  0.3807  0.0377
64941W        W 7879  13.598  27.025  30.406 -0.0288  0.1648 -0.1772
64942W        W 7880  14.002  26.143  31.411 -0.1651 -0.0274  0.0433
64943W        W 7881  13.344  27.197  31.365 -0.0264  0.1075  0.0740
64944W        W 7882  12.169  27.644   0.039 -0.0414 -0.2860  0.0929
64945W        W 7883  11.027  28.606  30.272 -0.1965  0.0480 -0.1230
64946W        W 7884  11.414  27.889   0.268  0.1503  0.0807 -0.2153
64947W        W 7885  12.778  29.063  30.949 -0.0018  0.2919 -0.0077
64948W        W 7886  12.522  30.609  31.740  0.2557  0.2044 -0.3434
64949W        W 7887  14.405  27.320  30.106 -0.1516 -0.0194  0.3352
64950W        W 7888  14.470  26.865  29.910  0.1334 -0.1913 -0.2832
64951W        W 7889  14.227  25.619  30.440  0.1453 -0.0359  0.1128
64952W        W 7890  12.608  26.989  29.378  0.0798 -0.2878 -0.2355
64953W        W 7891  10.942  29.016  31.087 -0.0965 -0.1125  0.0509
64954W        W 7892  10.540  28.367   1.721 -0.3721  0.0524 -0.1201
64955W        W 7893  14.202  28.339  30.990  0.0867 -0.2249  0.0820
64956W        W 7894  13.085  27.175   0.107  0.2463 -0.2466 -0.0752
64957W        W 7895  12.897  27.648   1.474  0.0607  0.1079  0.2345
64958W        W 7896  14.601  25.481  31.083  0.0622  0.1141 -0.0912
64959W        W 7897  13.593  27.693  31.207  0.2168 -0.0333  0.1174
64960W        W 7898  13.360  26.708  31.396  0.0236  0.2682 -0.0752
64961W        W 7899  12.676  28.319  30.831 -0.0790  0.0641 -0.2144
64962W        W 7900  13.389  25.669  31.687  0.2189  0.0099  0.1271
64963W        W 7901  14.700  25.715  30.033 -0.0807  0.3723 -0.0576
64964W        W 7902  14.673  24.711  30.499  0.1201  0.1539  0.0135
64965W        W 7903  12.788  30.515  31.365 -0.2039  0.1994 -0.2608
64966W        W 7904  14.761  27.801  31.330 -0.1323 -0.1083  0.0064
64967W        W 7905  10.924  29.329  30.641 -0.2421 -0.2198 -0.0490
64968W        W 7906  14.370  29.174  30.760  0.2342  0.0844  0.1575
64969W        W 7907  15.119  25.155  29.349 -0.1166  0.0195  0.0752
64970W        W 7908  12.406  27.473  31.625  0.1094 -0.2933 -0.1571
64971W        W 7909  13.406  29.650  30.608  0.0120  0.0768  0.1535
64972W        W 7910  12.729  26.583  31.797  0.1019 -0.1641  0.1494
64973W        W 7911  14.672  26.044  28.509  0.1948 -0.1939 -0.0093
64974W        W 7912  14.676  28.163  31.676 -0.4217 -0.1241  0.3831
64975W        W 7913  12.217  28.807  30.916 -0.2465 -0.2634  0.2744
64976W        W 7914  11.346  29.767  30.970 -0.0718  0.0451 -0.0049
64977W        W 7915  11.600  26.813  30.933  0.2115 -0.1408 -0.0671
64978W        W 7916  11.004  25.295  31.591 -0.2218 -0.1812  0.4046
64979W        W 7917  12.392  28.147   0.173  0.0507  0.0267 -0.2259
64980W        W 7918  11.133  28.734  31.406 -0.0959  0.1277 -0.1923
64981W        W 7919   9.754  26.008  29.638  0.0108 -0.0824 -0.2056
64982W        W 7920  14.513  30.445   0.155  0.0303 -0.1691 -0.1501
64983W        W 7921  14.780  27.652  29.707 -0.1818 -0.0999  0.0807
64984W        W 7922  15.742  26.526   0.038 -0.1510  0.0076 -0.4381
64985W        W 7923  12.230  31.902  16.324  0.1930  0.1197  0.0771
64986W        W 7924  12.909  30.512  18.269  0.0414  0.2134 -0.1367
64987W        W 7925  14.820  30.279  16.409 -0.0214  0.0400  0.1132
64988W        W 7926  13.381  31.016  17.513  0.0104  0.2336  0.1264
64989W        W 7927  11.444  30.508  17.861  0.3445 -0.1632  0.0303
64990W        W 7928  13.199  31.989  16.740 -0.0337  0.0561  0.0408
64991W        W 7929  11.473  30.059  20.424 -0.0246 -0.1529  0.0947
64992W        W 7930  12.890  30.220  17.406 -0.1166  0.0889 -0.0750
64993W        W 7931  16.433  32.634  17.459  0.0036 -0.5258 -0.4644
64994W        W 7932  12.746  30.780  17.194 -0.0518  0.2453  0.1896
64995W        W 7933  12.864  29.920  18.113 -0.1663 -0.0479 -0.0477
64996W        W 7934  11.898  33.478  16.717 -0.2010 -0.1219 -0.0444
64997W        W 7935  11.293  28.936  16.427 -0.4747 -0.0106  0.4055
64998W        W 7936  12.346  30.311  18.724  0.0373 -0.0306 -0.1309
64999W        W 7937  14.465  32.222  19.772 -0.1491 -0.0108 -0.0996
65000W        W 7938  11.692  30.464  16.439 -0.2254  0.0433 -0.0482
65001W        W 7939  11.828  31.049  17.658  0.0342  0.1394 -0.0632
65002W        W 7940  11.636  29.307  17.234  0.1427  0.3978 -0.0392
65003W        W 7941  11.414  31.180  16.010  0.0506  0.1322  0.0684
65004W        W 7942  12.353  30.018  19.185 -0.0786  0.1219 -0.2137
65005W        W 7943  12.775  30.553  18.817 -0.0488 -0.1645 -0.1011
65006W        W 7944  11.588  31.683  16.280  0.1377  0.2438  0.0685
65007W        W 7945  10.401  32.075  16.227  0.0621 -0.1717 -0.0178
65008W        W 7946  10.138  30.771  19.079  0.0213 -0.1608  0.0323
65009W        W 7947  12.159  31.180  17.301 -0.0897 -0.0587  0.2490
65010W        W 7948  12.755  29.298  18.092 -0.2056 -0.2113 -0.0593
65011W        W 7949  12.834  32.080  17.109  0.2316  0.1233  0.0601
65012W        W 7950  12.607  31.813  19.382  0.0596 -0.2471  0.0352
65013W        W 7951  12.558  32.329  16.304  0.0310 -0.1783 -0.2035
65014W        W 7952  14.558  30.497  18.673 -0.1869 -0.0101 -0.1559
65015W        W 7953  10.346  32.387  18.122 -0.1163  0.2842  0.0207
65016W        W 7954  10.324  31.242  16.406 -0.0334  0.0123  0.0972
65017W        W 7955  12.717  32.532  17.418 -0.2233 -0.2217  0.1050
65018W        W 7956  14.732  31.962  16.291 -0.1891  0.0365 -0.1755
65019W        W 7957  11.835  32.152  17.252 -0.0489  0.1738 -0.0174
65020W        W 7958  12.764  31.909  18.782  0.0298  0.2802 -0.2375
65021W        W 7959  12.109  31.441  16.505  0.1024 -0.4130  0.1247
65022W        W 7960  14.108  31.628  20.623  0.0620 -0.2702  0.2034
65023W        W 7961  12.238  31.637  19.635 -0.2414 -0.0599  0.2842
65024W        W 7962  11.283  32.337  18.017  0.0271  0.0392  0.0081
65025W        W 7963  12.365  28.698  17.861 -0.1305 -0.0921  0.2287
65026W        W 7964  11.871  31.924  15.907 -0.3155 -0.1324  0.3542
65027W        W 7965  13.604  32.658  17.360 -0.4490  0.1165  0.0925
65028W        W 7966  11.530  31.515  17.751 -0.1531  0.1015  0.4718
65029W        W 7967  10.251  31.838  18.260 -0.3304 -0.3857  0.0940
65030W        W 7968  15.462  29.917  17.648  0.1650 -0.0137 -0.1301
65031W        W 7969  11.439  33.126  16.085 -0.1807  0.1440 -0.0765
65032W        W 7970  13.866  29.699  15.778  0.2940  0.0911  0.5089
65033W        W 7971  11.949  29.978  18.348 -0.0912  0.3571 -0.0140
65034W        W 7972  13.001  30.134  16.401 -0.0067  0.0703  0.1119
65035W        W 7973  12.467  26.692  17.606  0.0692  0.2193  0.0612
65036W        W 7974  11.018  33.120  16.967 -0.0069  0.1949  0.0772
65037W        W 7975  11.382  29.182  18.311  0.2632 -0.0769  0.1287
65038W        W 7976  14.976  33.517  17.800  0.0745 -0.3915 -0.1914
65039W        W 7977  13.014  31.167  16.990 -0.1110 -0.0522 -0.1501
65040W        W 7978  12.945  30.649  17.653  0.2828 -0.1175 -0.1803
65041W        W 7979  11.689  32.573  17.075  0.0307 -0.0715  0.1087
65042W        W 7980  12.140  30.663  17.888 -0.0784  0.0110  0.0459
65043W        W 7981  15.024  32.149  15.722 -0.0052  0.3125 -0.1203
65044W        W 7982  12.580  33.488  16.968 -0.1389  0.2945  0.0400
65045W        W 7983  12.393  32.938  17.291  0.3840  0.0957 -0.0413
65046W        W 7984  11.514  30.328  16.895  0.3169 -0.2720 -0.2038
65047W        W 7985  10.211  32.414  20.321 -0.2301 -0.3409 -0.0502
65048W        W 7986  12.072  31.514  17.690  0.0402 -0.2626 -0.3852
65049W        W 7987  10.562  29.364  15.829 -0.3315 -0.0791 -0.2594
65050W        W 7988  13.730  30.845  18.981  0.0412 -0.1411 -0.0689
65051W        W 7989  10.815  31.828  19.791 -0.3826  0.4442 -0.0513
65052W        W 7990  14.547  31.266  16.985 -0.0177  0.2538 -0.1988
65053W        W 7991  12.801  31.596  16.917 -0.5133  0.2507 -0.1674
65054W        W 7992  13.576  32.111  17.652  0.2363  0.1230  0.1037
65055W        W 7993  14.756  30.061  15.923  0.0449  0.0257 -0.2026
65056W        W 7994  11.956  30.179  17.873 -0.2179 -0.1543  0.1488
65057W        W 7995  14.120  28.651  19.952  0.3179  0.5498 -0.1703
65058W        W 7996  10.218  31.247  15.809  0.0750 -0.1055 -0.1104
65059W        W 7997  12.587  30.304  17.757  0.0302  0.0739 -0.1984
65060W        W 7998  13.692  32.483  18.548  0.1159 -0.0866 -0.2312
65061W        W 7999  14.864  31.069  16.071 -0.2388  0.4479 -0.0264
65062W        W 8000  11.648  33.307  17.603 -0.0284  0.0120  0.1971
65063W        W 8001  12.949  32.162  17.570 -0.3489  0.1622  0.0343
65064W        W 8002  11.479  32.406  20.882  0.1218  0.3401 -0.2927
65065W        W 8003  10.829  32.283  16.483  0.0168 -0.3131 -0.0202
65066W        W 8004  10.538  32.158  19.352  0.0434  0.4157 -0.2097
65067W        W 8005  11.507  31.587  15.687 -0.0867  0.1890 -0.0929
65068W        W 8006  11.494  29.188  18.906  0.1711  0.0779  0.1574
65069W        W 8007  13.859  31.390  16.645  0.0883 -0.2615  0.0579
65070W        W 8008  14.310  29.276  17.205 -0.0631 -0.5282 -0.1916
65071W        W 8009  11.593  29.202  19.419 -0.1768 -0.2983  0.0740
65072W        W 8010  13.762  28.540  19.035 -0.2136 -0.1649  0.0877
65073W        W 8011  12.346  31.104  16.255 -0.1034  0.0106  0.2369
65074W        W 8012  13.727  32.441  15.933 -0.0754  0.1803 -0.1714
65075W        W 8013  13.429  30.485  16.388  0.3495  0.3009 -0.0392
65076W        W 8014  13.617  31.931  15.875 -0.2401 -0.0297 -0.0840
65077W        W 8015  10.333  29.412  20.767 -0.1068  0.0820  0.3469
65078W        W 8016  12.556  31.486  17.332 -0.0917  0.2458 -0.2941
65079W        W 8017  11.953  29.110  19.103 -0.1866 -0.1203 -0.1424
65080W        W 8018  11.094  30.232  18.706 -0.0433 -0.3636  0.1415
65081W        W 8019  14.370  31.749  19.239 -0.0796  0.1532  0.0114
65082W        W 8020  11.569  29.269  16.675 -0.2012  0.2839  0.0058
65083W        W 8021  13.149  31.199  17.999  0.1098  0.1196  0.0333
65084W        W 8022  12.203  29.571  15.974  0.0871  0.0160  0.2302
65085W        W 8023  10.007  31.404  17.344 -0.0872  0.0403 -0.1825
65086W        W 8024  13.681  29.794  19.404 -0.1886 -0.0938  0.1670
65087W        W 8025  13.022  32.396  16.433 -0.0974 -0.1920  0.1588
65088W        W 8026  13.549  32.869  18.844 -0.1371  0.0420 -0.1026
65089W        W 8027  15.045  32.202  16.608  0.1851 -0.0855  0.0076
65090W        W 8028  10.752  31.920  18.961 -0.3124 -0.0258 -0.1031
65091W        W 8029  10.982  29.183  15.326 -0.3738  0.0554 -0.2252
65092W        W 8030   9.929  33.644  18.038 -0.2087 -0.0760  0.1537
65093W        W 8031  11.505  31.877  18.244  0.0761  0.0094  0.1225
65094W        W 8032  11.561  30.141  17.436 -0.3241  0.1354 -0.0167
65095W        W 8033  15.237  31.277  17.878 -0.1293  0.0547  0.1595
65096W        W 8034  13.034  31.647  15.832 -0.2955  0.1940 -0.1739
65097W        W 8035  10.421  31.330  16.915  0.1404 -0.0330 -0.0477
65098W        W 8036  13.425  28.952  18.838  0.0457  0.0575  0.3290
65099W        W 8037  13.983  29.176  17.860  0.2275 -0.0039  0.1533
65100W        W 8038  12.582  27.983  17.358  0.1768  0.1284 -0.2616
65101W        W 8039  10.224  29.083  16.364 -0.0913 -0.3301 -0.3718
65102W        W 8040  15.273  32.532  16.944  0.3871 -0.0385 -0.0685
65103W        W 8041  11.616  32.182  16.370 -0.3206 -0.2772 -0.1233
65104W        W 8042  11.435  31.227  17.226 -0.0553  0.1177  0.0825
65105W        W 8043  11.213  31.700  17.321 -0.0623 -0.0595 -0.0211
65106W        W 8044  14.537  28.605  17.272 -0.3351  0.1377 -0.1249
65107W        W 8045  10.569  29.479  20.168  0.0484  0.2368 -0.2918
65108W        W 8046  13.195  30.857  18.789  0.3766 -0.0359  0.1693
65109W        W 8047  11.836  29.882  15.223 -0.0270 -0.0934  0.0432
65110W        W 8048  11.566  32.323  18.568  0.3209 -0.1952  0.0505
65111W        W 8049  12.593  28.706  17.388  0.3273  0.4562  0.1739
65112W        W 8050  14.269  28.931  16.396  0.1435 -0.0455 -0.1381
65113W        W 8051  13.854  31.566  19.387 -0.2058 -0.2058 -0.0631
65114W        W 8052  13.656  31.777  17.223  0.1861 -0.2695 -0.2520
65115W        W 8053  13.785  29.051  16.496 -0.0540 -0.3545 -0.1706
65116W        W 8054  12.010  30.280  17.004  0.2187 -0.2953  0.1591
65117W        W 8055  10.456  32.706  19.939  0.1009  0.0168 -0.0526
65118W        W 8056  13.213  31.237  15.687  0.0728 -0.0458 -0.0526
65119W        W 8057  13.314  32.215  17.241  0.2953 -0.2248 -0.3780
65120W        W 8058  13.114  29.362  16.853 -0.2743  0.0738 -0.4004
65121W        W 8059  14.775  32.753  16.883  0.1051 -0.0775  0.2655
65122W        W 8060  11.254  32.166  17.449  0.0135  0.0846 -0.0874
65123W        W 8061  13.843  33.199  19.255 -0.0371  0.1649  0.1345
65124W        W 8062  13.725  32.040  16.772 -0.1997 -0.1777 -0.4828
65125W        W 8063  11.415  28.789  17.977 -0.1170  0.1695  0.2827
65126W        W 8064  12.611  28.501  16.384 -0.1766 -0.0752 -0.2932
65127W        W 8065  12.935  28.942  18.775 -0.1150  0.0722  0.2201
65128W        W 8066  10.524  32.177  15.648 -0.1537  0.0962  0.0520
65129W        W 8067  12.014  30.739  18.908 -0.1325  0.1806  0.0765
65130W        W 8068  13.391  29.560  17.300 -0.2495  0.1880 -0.1031
65131W        W 8069  11.713  29.855  19.990 -0.0127 -0.1567  0.0603
65132W        W 8070  13.324  30.976  19.241  0.1480 -0.3946 -0.0154
65133W        W 8071  13.008  28.920  17.107 -0.2508 -0.3398  0.1967
65134W        W 8072  13.891  30.315  16.462 -0.0684  0.0002 -0.2865
65135W        W 8073  12.407  29.749  17.014 -0.0059  0.0675  0.0233
65136W        W 8074  13.301  31.688  18.619  0.1063  0.1722 -0.0262
65137W        W 8075  10.770  32.140  17.955  0.1176  0.2987 -0.1922
65138W        W 8076   9.518  31.511  17.993  0.0331  0.0100  0.1636
65139W        W 8077  14.231  33.322  17.119 -0.0667  0.1315 -0.0559
65140W        W 8078  13.348  31.512  16.806  0.0082 -0.1542 -0.0384
65141W        W 8079  12.884  30.061  19.147 -0.2591 -0.1221  0.2207
65142W        W 8080  12.695  28.768  15.939 -0.0252 -0.2287 -0.1633
65143W        W 8081  12.660  31.964  16.624 -0.0805  0.0688  0.0054
65144W        W 8082  12.629  29.259  16.200 -0.1826  0.2846 -0.0748
65145W        W 8083  11.707  29.624  17.677 -0.2396 -0.1218 -0.0804
65146W        W 8084  10.878  32.732  17.874  0.2833 -0.1304  0.1097
65147W        W 8085  12.045  32.887  15.506  0.1352  0.2670 -0.1310
65148W        W 8086  13.133  30.931  20.557  0.2963 -0.2875 -0.0387
65149W        W 8087  10.679  31.682  16.358 -0.2119 -0.0802  0.1652
65150W        W 8088  13.447  27.838  17.851 -0.1918  0.1401  0.1278
65151W        W 8089   9.891  32.418  17.488  0.0501 -0.0849 -0.0661
65152W        W 8090  12.605  30.112  15.524 -0.0983 -0.0455 -0.1104
65153W        W 8091  11.080  33.221  18.759 -0.0093  0.0824  0.3464
65154W        W 8092  13.756  28.096  15.781  0.2259  0.3889 -0.1253
65155W        W 8093  14.239  30.582  16.656  0.0774 -0.0781 -0.0006
65156W        W 8094  10.963  31.441  17.666  0.0452 -0.0074  0.0158
65157W        W 8095  12.566  28.745  18.413 -0.2230  0.0072 -0.2123
65158W        W 8096  10.799  32.817  18.786  0.0085  0.0864  0.2313
65159W        W 8097  14.027  31.781  18.124 -0.0012  0.1824 -0.1827
65160W        W 8098  13.020  30.289  16.920 -0.2031 -0.1506  0.0870
65161W        W 8099  13.233  32.392  19.468 -0.1724 -0.1492  0.0486
65162W        W 8100  12.649  29.728  19.439 -0.1362 -0.0924 -0.3147
65163W        W 8101  11.173  30.373  16.254  0.2531  0.1872 -0.2159
65164W        W 8102  14.411  31.597  16.596 -0.1682  0.0437  0.1551
65165W        W 8103  14.074  31.130  18.741 -0.0567  0.1755 -0.1338
65166W        W 8104  11.797  30.879  16.095 -0.1801  0.3170  0.0373
65167W        W 8105  13.572  30.315  16.880  0.0535 -0.0407  0.5465
65168W        W 8106  12.079  29.341  15.525  0.0960 -0.3698  0.3914
65169W        W 8107   9.974  31.898  17.392 -0.1831 -0.3716  0.1381
65170W        W 8108  10.441  31.494  19.654 -0.2332 -0.1200 -0.3020
65171W        W 8109  13.906  32.018  18.571 -0.0253 -0.2669 -0.2373
65172W        W 8110  13.099  29.776  17.670  0.0114 -0.1181 -0.0954
65173W        W 8111  11.243  30.252  15.723  0.1235  0.1760 -0.2342
65174W        W 8112  13.557  30.606  18.559 -0.0005 -0.0697  0.2541
65175W        W 8113  13.601  29.602  16.404 -0.3749  0.2639  0.4734
65176W        W 8114  12.795  30.093  18.652  0.2234 -0.0526 -0.1774
65177W        W 8115  10.317  31.043  18.587  0.0970  0.0362 -0.1694
65178W        W 8116  12.216  27.223  18.104  0.0046 -0.0455 -0.0397
65179W        W 8117  14.280  32.722  16.047  0.0377  0.1587  0.1101
65180W        W 8118  13.718  31.320  21.032  0.1961  0.0532 -0.0214
65181W        W 8119  10.086  31.735  16.672 -0.1442 -0.3167 -0.3655
65182W        W 8120  10.621  30.410  18.719  0.0954 -0.0157  0.3325
65183W        W 8121  12.056  30.843  16.583  0.2047 -0.0336 -0.3301
65184W        W 8122  12.516  29.108  19.106 -0.1608  0.0046 -0.2556
65185W        W 8123  10.770  31.939  17.453  0.2232 -0.0274  0.1314
65186W        W 8124  12.161  31.024  15.798  0.1464 -0.2055 -0.0214
65187W        W 8125   9.888  32.593  19.055  0.1776  0.0814 -0.0673
65188W        W 8126  14.131  30.533  19.000 -0.2523 -0.0240  0.3056
65189W        W 8127  14.036  32.759  15.655  0.0858 -0.1109 -0.2187
65190W        W 8128  12.084  29.075  19.665  0.2234 -0.3136  0.2157
65191W        W 8129  14.802  29.998  20.385  0.0661  0.0325 -0.0884
65192W        W 8130  11.966  29.846  16.695  0.2088 -0.0675  0.2190
65193W        W 8131  12.798  29.425  20.467 -0.1057 -0.0729 -0.4832
65194W        W 8132  12.258  31.085  18.205 -0.1504 -0.2891  0.2738
65195W        W 8133  14.318  32.861  16.927  0.2117  0.2971 -0.0147
65196W        W 8134  11.859  31.323  16.920 -0.1026  0.0954  0.0736
65197W        W 8135  12.303  32.500  19.944  0.0306 -0.0665  0.0563
65198W        W 8136  10.448  32.198  19.904  0.0556 -0.0108 -0.1457
65199W        W 8137  12.092  28.854  16.864  0.2005 -0.0762  0.0702
65200W        W 8138  12.776  28.263  15.890 -0.2270  0.0754  0.2639
65201W        W 8139  12.144  32.751  19.126 -0.1744 -0.2610  0.0218
65202W        W 8140  13.728  31.300  17.315 -0.0092  0.3448 -0.0796
65203W        W 8141  11.899  31.427  16.005 -0.1688 -0.0302 -0.0159
65204W        W 8142  13.134  29.190  18.328  0.0012  0.0397  0.2933
65205W        W 8143  12.352  32.268  18.565  0.1661  0.0799 -0.1081
65206W        W 8144  12.401  30.265  18.252  0.1768 -0.1644 -0.1900
65207W        W 8145  11.843  29.523  16.346  0.2528  0.1876  0.1347
65208W        W 8146  12.944  31.254  17.501 -0.2418  0.3051  0.2620
65209W        W 8147  12.547  29.151  17.685  0.0969 -0.0941  0.0771
65210W        W 8148  11.049  32.012  18.358 -0.1702 -0.0000  0.3934
65211W        W 8149  13.504  29.331  17.738 -0.1236 -0.1838  0.2264
65212W        W 8150  14.507  31.175  17.947 -0.0973 -0.1779 -0.0315
65213W        W 8151  13.785  31.548  18.530  0.0542 -0.0166 -0.0826
65214W        W 8152  12.935  31.558  18.324 -0.2946 -0.1939 -0.0505
65215W        W 8153  10.659  31.250  18.884  0.3149  0.1861  0.0745
65216W        W 8154  13.954  32.737  19.163  0.0803 -0.0865  0.0206
65217W        W 8155  15.695  30.121  17.037 -0.2083 -0.0536 -0.2232
65218W        W 8156  13.360  31.255  20.013  0.0090 -0.1135 -0.0320
65219W        W 8157  13.818  29.966  17.234 -0.1041 -0.0703 -0.0719
65220W        W 8158  12.426  30.026  16.535  0.2621 -0.0515 -0.0437
65221W        W 8159  12.476  30.748  18.444 -0.0688  0.1927 -0.4292
65222W        W 8160  13.489  30.856  19.741 -0.0735 -0.3339 -0.0104
65223W        W 8161  12.157  29.690  17.985  0.1679  0.2353  0.0230
65224W        W 8162  13.825  30.971  18.333 -0.0282 -0.4254  0.1856
65225W        W 8163  13.053  32.416  15.805 -0.0904 -0.0791  0.2742
65226W        W 8164  13.913  31.198  16.141  0.2532 -0.0766 -0.0307
65227W        W 8165  11.967  30.513  18.333  0.1390  0.0682 -0.1244
65228W        W 8166  11.828  28.964  16.320  0.0809 -0.0692  0.0430
65229W        W 8167  11.696  32.526  17.562 -0.1174  0.4409  0.1438
65230W        W 8168  11.666  30.269  15.960 -0.1993  0.0942  0.0986
65231W        W 8169  12.316  29.760  15.301  0.1370 -0.2170  0.1086
65232W        W 8170  12.166  31.690  18.631  0.2510 -0.0550 -0.0938
65233W        W 8171  13.827  31.788  20.307  0.0913 -0.2029 -0.2279
65234W        W 8172  12.563  30.266  16.090  0.0506  0.2490  0.2603
65235W        W 8173  13.128  32.138  18.033 -0.0857 -0.3036  0.4598
65236W        W 8174  11.855  31.803  16.678 -0.2039  0.3597  0.0169
65237W        W 8175  11.061  29.014  18.693  0.0292  0.0009 -0.3951
65238W        W 8176  10.735   0.008  17.793 -0.0465 -0.2969  0.0507
65239W        W 8177   9.767  31.213  20.300 -0.1148  0.1936  0.0067
65240W        W 8178  10.445  31.577  17.618 -0.1129 -0.0765 -0.3008
65241W        W 8179  14.029  29.370  19.356 -0.1567 -0.0186 -0.1005
65242W        W 8180  13.226  31.663  17.744  0.0445  0.0679 -0.0904
65243W        W 8181  14.352  31.079  16.508  0.1735 -0.2314  0.1942
65244W        W 8182  13.763  31.830  18.969 -0.1383 -0.0607  0.2052
65245W        W 8183  12.555  32.770  18.326  0.0102 -0.1944 -0.0697
65246W        W 8184  12.978  29.850  17.120  0.1734 -0.1627 -0.0167
65247W        W 8185  13.522  32.803  19.384  0.2401 -0.3327  0.0140
65248W        W 8186  13.944  31.599  17.648 -0.4935  0.0664  0.0244
65249W        W 8187  11.062  32.584  17.107  0.2980 -0.0274  0.1458
65250W        W 8188  10.107  30.694  19.793  0.2098  0.0427  0.2115
65251W        W 8189  12.860  30.444  19.912  0.0457 -0.1513 -0.2271
65252W        W 8190  12.537  29.693  18.388 -0.2629  0.2158 -0.0830
65253W        W 8191  11.617  28.725  16.835  0.1886 -0.2381  0.0107
65254W        W 8192  12.848  32.874  16.584  0.2094  0.0263  0.0924
65255W        W 8193   9.953  32.614  19.940 -0.0774  0.2990 -0.3069
65256W        W 8194  10.859  31.538  19.277 -0.2060 -0.1021  0.0207
65257W        W 8195  10.021  31.641  17.827 -0.0468  0.1186  0.0602
65258W        W 8196  13.453  31.070  16.437 -0.1309 -0.1192  0.1855
65259W        W 8197  12.303  30.695  15.420  0.2718  0.0149 -0.0465
65260W        W 8198  11.427  32.872  16.736 -0.1128 -0.2526 -0.0190
65261W        W 8199  11.121  29.402  15.741 -0.2534 -0.0755 -0.1525
65262W        W 8200  10.429  31.593  18.626  0.1342  0.2568 -0.3138
65263W        W 8201  10.420  33.210  16.307 -0.4048  0.0145  0.0047
65264W        W 8202  13.387  32.087  16.274 -0.0293  0.1516  0.2469
65265W        W 8203  10.427  31.809  17.128  0.1388 -0.4112  0.1777
65266W        W 8204  14.128  32.303  18.976  0.0530  0.2138  0.2490
65267W        W 8205  12.878  28.840  18.011 -0.3258 -0.2333  0.3709
65268W        W 8206  14.169  31.637  18.815 -0.0643 -0.2326  0.1841
65269W        W 8207  15.704  30.621  15.774 -0.2399 -0.1594  0.0927
65270W        W 8208  13.619  32.376  19.103 -0.2655 -0.1075  0.1234
65271W        W 8209  10.795  30.793  18.451  0.0275 -0.2564 -0.0247
65272W        W 8210  12.202  28.478  16.124 -0.2867  0.4336  0.1100
65273W        W 8211  11.741  30.991  18.342  0.3437 -0.0911  0.2580
65274W        W 8212  14.096  31.345  20.162  0.3935  0.1010  0.3408
65275W        W 8213  11.001  32.911  19.903 -0.0706  0.0507 -0.2927
65276W        W 8214  14.941  31.745  16.730  0.0361  0.0785 -0.0207
65277W        W 8215  11.043  31.166  16.892  0.0351  0.1339  0.1386
65278W        W 8216  13.452  31.507  16.148 -0.0902  0.1289 -0.2394
65279W        W 8217  14.247  28.739  19.290 -0.1536  0.0127 -0.0676
65280W        W 8218  12.282  31.662  16.896 -0.1294 -0.0388 -0.1032
65281W        W 8219  12.943  27.942  17.832  0.3093  0.1248  0.2286
65282W        W 8220  11.010  33.083  16.429  0.0119  0.0949  0.0970
65283W        W 8221  12.585  31.518  16.397 -0.0247  0.2322 -0.0230
65284W        W 8222  11.350  32.262  20.389 -0.0325  0.0642 -0.1633
65285W        W 8223  12.347  28.923  16.362  0.0108  0.1302 -0.3180
65286W        W 8224  14.244  28.779  18.667 -0.2298  0.1007  0.3107
65287W        W 8225  13.035  31.640  16.430  0.0486 -0.1228 -0.0702
65288W        W 8226  13.642  29.499  18.755  0.0574 -0.0630 -0.0775
65289W        W 8227  12.615  30.763  17.975  0.1866  0.0414  0.1701
65290W        W 8228  12.896  31.017  18.488 -0.0978  0.1482  0.2590
65291W        W 8229  12.019  33.209  18.906 -0.0480  0.0578 -0.1054
65292W        W 8230  10.351  31.631  19.176  0.0131 -0.5204 -0.0624
65293W        W 8231  12.832  29.680  16.649  0.1948  0.4576 -0.2473
65294W        W 8232  13.642  31.732  19.823 -0.2146  0.1746  0.0313
65295W        W 8233  12.337  29.544  16.447  0.3729 -0.1896  0.2763
65296W        W 8234  14.097  32.064  17.605 -0.2652 -0.0235  0.1517
65297W        W 8235  10.979  28.595  16.228 -0.0045 -0.0281 -0.0039
65298W        W 8236  12.500  29.752  17.606 -0.0228  0.1283 -0.0693
65299W        W 8237  11.896  30.530  17.418  0.0134  0.1239  0.0620
65300W        W 8238  11.632  30.704  19.703  0.2646 -0.0418  0.0870
65301W        W 8239  13.280  31.705  20.187 -0.2049 -0.0298  0.0751
65302W        W 8240  10.496  27.749  16.659 -0.1479 -0.1466  0.0727
65303W        W 8241  15.202  31.861  16.205 -0.2285  0.0273 -0.3560
65304W        W 8242  12.377  31.499  19.016  0.0180 -0.2031  0.0641
65305W        W 8243  11.634  34.144  15.965  0.3636 -0.0469  0.1030
65306W        W 8244  14.154  31.595  17.062 -0.0308 -0.1333  0.1172
65307W        W 8245  13.319  32.885  16.981  0.0266 -0.1959 -0.0922
65308W        W 8246  10.366  30.081  19.621  0.0633  0.2552  0.0323
65309W        W 8247  12.884  31.047  16.434 -0.1305 -0.1204  0.0522
65310W        W 8248  14.455  32.336  18.587  0.0167  0.3363  0.1586
65311W        W 8249  12.016  29.351  16.862 -0.1758  0.1665  0.2185
65312W        W 8250  12.234  30.161  17.435 -0.2588  0.0642  0.0621
65313W        W 8251   8.188  32.844  17.074 -0.0185 -0.2447  0.3592
65314W        W 8252  13.302  30.749  18.158 -0.1144 -0.2076 -0.0682
65315W        W 8253  13.538  29.204  19.240  0.2017 -0.1384  0.0411
65316W        W 8254  12.468  33.599  15.984 -0.1625 -0.1158  0.3762
65317W        W 8255  14.112  30.125  19.297 -0.0847 -0.1697 -0.0871
65318W        W 8256  12.476  31.049  18.838  0.0274  0.0076  0.0588
65319W        W 8257  12.336  32.164  20.324 -0.4591  0.1510  0.1383
65320W        W 8258  12.557  30.778  16.001 -0.0182  0.2916 -0.0765
65321W        W 8259  12.369  32.439  19.430  0.3863 -0.1768  0.0725
65322W        W 8260  12.574  30.605  16.530 -0.1760  0.1074  0.0346
65323W        W 8261  12.861  31.997  16.117  0.2658  0.0590 -0.6235
65324W        W 8262  14.125  32.800  16.476 -0.1038  0.1677 -0.3225
65325W        W 8263  12.014  29.241  17.691  0.0087 -0.0826  0.0231
65326W        W 8264  14.860  31.276  17.585  0.0752 -0.1205  0.2884
65327W        W 8265  11.045  29.414  18.011  0.0033  0.0782  0.3383
65328W        W 8266  14.334  28.925  16.864 -0.0997  0.2055  0.0673
65329W        W 8267  14.359  30.228  16.211 -0.0161  0.0349 -0.4625
65330W        W 8268  10.172  30.572  18.579 -0.2547 -0.2230  0.0492
65331W        W 8269  11.682  31.256  16.456  0.0874 -0.1088 -0.1295
65332W        W 8270  12.044  32.302  16.131  0.1584  0.1917  0.1829
65333W        W 8271  13.212  30.606  17.226  0.1046 -0.0507 -0.1930
65334W        W 8272  12.307  27.793  20.159  0.0668  0.2408  0.0849
65335W        W 8273  11.172  30.803  19.836 -0.1779 -0.0183  0.3291
65336W        W 8274  12.743  31.769  17.829  0.0109  0.3917  0.2328
65337W        W 8275  11.251  29.927  16.063  0.0308  0.2699  0.3105
65338W        W 8276  13.947  31.764  16.301 -0.0215 -0.0587  0.0832
65339W        W 8277  11.796  29.217  15.890 -0.1189  0.1109 -0.2812
65340W        W 8278  11.104  30.664  16.879 -0.0848 -0.1923  0.0393
65341W        W 8279  14.495  30.115  16.745 -0.3518 -0.2062  0.1988
65342W        W 8280  13.573  32.933  16.554 -0.1297  0.1141  0.5083
65343W        W 8281  11.824  29.378  18.187 -0.0880  0.1475 -0.2257
65344W        W 8282  13.286  32.318  20.938  0.0847  0.1601  0.2521
65345W        W 8283  11.328  32.039  15.956 -0.0032  0.1421  0.3447
65346W        W 8284  13.410  31.415  19.510 -0.1265 -0.1926 -0.1161
65347W        W 8285  12.749  30.457  20.480  0.1636 -0.6023  0.1556
65348W        W 8286  10.141  30.894  17.182 -0.0706  0.0756 -0.0092
65349W        W 8287  12.892  31.381  18.852  0.3523 -0.1950  0.3264
65350W        W 8288  12.395  31.496  15.945  0.0504 -0.2859  0.0264
65351W        W 8289  12.950  32.851  15.627 -0.0866 -0.0718  0.3634
65352W        W 8290  12.214  30.721  17.084 -0.1370  0.0210 -0.1408
65353W        W 8291  11.736  31.858  20.913  0.1102 -0.0270 -0.0637
65354W        W 8292  10.960  28.122  20.116 -0.0286  0.1951  0.1829
65355W        W 8293  12.528  30.293  17.001 -0.3669  0.1534  0.1890
65356W        W 8294  11.930  30.020  19.514  0.1369 -0.0869  0.0610
65357W        W 8295  13.724  30.724  17.259  0.3494  0.2831 -0.3023
65358W        W 8296  13.503  28.958  17.357  0.1592  0.1703 -0.0342
65359W        W 8297  12.793  29.325  17.197  0.2104  0.0609  0.1901
65360W        W 8298  10.608  28.876  18.995  0.3629 -0.2832  0.0292
65361W        W 8299  12.510  31.379  18.484 -0.2161 -0.1124 -0.1227
65362W        W 8300  14.801  32.788  18.512  0.1395  0.1911  0.1327
65363W        W 8301  11.968  28.389  16.706  0.0500  0.3198  0.2549
65364W        W 8302  12.014  30.483  19.427 -0.3007  0.1410  0.2545
65365W        W 8303  13.785  30.766  16.572 -0.0266  0.0980 -0.1143
65366W        W 8304  11.428  32.028  16.905 -0.1402 -0.1871 -0.0573
65367W        W 8305  11.387  31.534  16.788  0.2282 -0.0397 -0.1015
65368W        W 8306  13.615  31.341  20.434 -0.0816 -0.2019  0.3245
65369W        W 8307  14.627  32.506  16.432 -0.2132 -0.2629  0.1214
65370W        W 8308  14.052  32.729  20.469 -0.3026 -0.0040  0.0371
65371W        W 8309  12.606  29.440  15.744 -0.1636 -0.0031 -0.0216
65372W        W 8310  14.122  30.318  17.049 -0.1765  0.0604  0.2873
65373W        W 8311  14.249  32.044  17.123 -0.0513  0.0192  0.0310
65374W        W 8312  13.929  32.884  19.661 -0.0754 -0.0756  0.1696
65375W        W 8313  10.602  32.673  20.466 -0.1814 -0.1183 -0.0593
65376W        W 8314  14.323  31.206  19.203 -0.2162  0.1071 -0.1810
65377W        W 8315  12.613  29.277  18.586  0.0813  0.0491 -0.0719
65378W        W 8316  12.166  30.537  16.204 -0.0383 -0.1388 -0.1858
65379W        W 8317  12.507  31.180  16.775 -0.0666 -0.0120  0.1340
65380W        W 8318  13.203  30.740  16.732 -0.0485 -0.0870  0.2837
65381W        W 8319  10.522  29.985  17.960 -0.1202 -0.1442  0.1485
65382W        W 8320  12.519  29.197  16.788 -0.5513 -0.2170 -0.1813
65383W        W 8321  11.400  32.851  17.866  0.2723 -0.0005  0.0781
65384W        W 8322  12.328  31.905  17.407  0.1638 -0.1570 -0.0476
65385W        W 8323  11.723  31.493  22.410 -0.0168 -0.2466  0.0886
65386W        W 8324  11.909  29.539  19.599 -0.1019  0.0756 -0.1531
65387W        W 8325  13.503  29.188  20.210 -0.0140  0.1195 -0.0037
65388W        W 8326  14.574  31.148  20.355  0.2282 -0.2180 -0.3161
65389W        W 8327  10.507  28.761  20.873 -0.1832  0.0021 -0.1769
65390W        W 8328  14.759  32.435  20.605  0.0309 -0.2106 -0.1571
65391W        W 8329  11.785  29.074  21.867 -0.1146 -0.0986  0.0254
65392W        W 8330  12.790  33.283  21.791  0.4377 -0.3625 -0.2891
65393W        W 8331  13.242  32.719  23.309  0.0118 -0.2908 -0.1551
65394W        W 8332  13.381  31.896  21.183 -0.5072  0.0849 -0.0909
65395W        W 8333  13.433  30.170  22.723  0.5627 -0.0219  0.0701
65396W        W 8334  10.930  32.254  21.697  0.0126 -0.3913 -0.1456
65397W        W 8335  12.796  30.021  20.688 -0.4756 -0.2433 -0.0964
65398W        W 8336  10.844  29.502  21.514 -0.1449  0.2424  0.2871
65399W        W 8337  12.736  31.363  20.783  0.1692  0.2404  0.0414
65400W        W 8338  12.513  30.596  19.216  0.0659  0.2018 -0.0980
65401W        W 8339  11.410  29.889  20.899  0.0276  0.1988 -0.1131
65402W        W 8340  13.461  30.245  21.328  0.0577  0.0831  0.1853
65403W        W 8341  13.891  33.415  21.682  0.1969  0.0972  0.0376
65404W        W 8342  12.336  29.076  21.660  0.1394 -0.0157  0.2821
65405W        W 8343  14.027  29.828  23.883 -0.0272  0.2746 -0.1210
65406W        W 8344  13.741  32.231  21.076  0.0833  0.0418 -0.3009
65407W        W 8345  11.178  30.509  19.422  0.3967 -0.2881 -0.0126
65408W        W 8346  12.616  30.792  21.002  0.1638 -0.2592  0.2840
65409W        W 8347  11.268  30.621  23.326 -0.0288  0.2918  0.1274
65410W        W 8348  13.544  29.831  22.345  0.1543 -0.2078 -0.0473
65411W        W 8349  13.108  30.442  21.607 -0.0901 -0.1143  0.2019
65412W        W 8350  12.816  32.931  21.425  0.0544  0.3904 -0.0840
65413W        W 8351  12.431  32.352  20.783  0.0812  0.4052 -0.2190
65414W        W 8352  13.331  30.389  23.676 -0.2811 -0.0108  0.1654
65415W        W 8353  10.447  31.894  21.616  0.2718  0.1596 -0.3213
65416W        W 8354  10.096  32.224  21.179 -0.0076 -0.1722  0.2327
65417W        W 8355  11.979  31.325  19.968  0.2198  0.0305 -0.2822
65418W        W 8356  14.438  30.610  21.648  0.1521  0.2477 -0.2919
65419W        W 8357  13.575  33.676  23.852  0.1772 -0.2741 -0.1795
65420W        W 8358  12.442  33.028  22.818  0.0094 -0.1429  0.0233
65421W        W 8359  11.769  32.481  18.155 -0.1610  0.0561 -0.0532
65422W        W 8360  12.382  34.035  23.145  0.1332 -0.4089 -0.0964
65423W        W 8361  12.242  32.599  22.929  0.0608  0.1069  0.1711
65424W        W 8362  12.245  30.852  21.602 -0.2224 -0.1791  0.1997
65425W        W 8363  14.296  32.979  21.430  0.0681 -0.0503  0.1567
65426W        W 8364  13.315  32.124  20.482  0.0816 -0.2837 -0.0352
65427W        W 8365  13.248  32.314  21.485 -0.1802 -0.1346  0.3223
65428W        W 8366  11.234  31.609  23.894 -0.2562 -0.0516 -0.0366
65429W        W 8367  11.983  32.454  21.664 -0.0890  0.0008  0.2729
65430W        W 8368  15.383  30.366  22.982  0.1306  0.0888  0.0506
65431W        W 8369  12.695  32.397  17.928 -0.0878 -0.0448 -0.1787
65432W        W 8370  12.091  30.880  19.714 -0.3152 -0.0639 -0.0569
65433W        W 8371  11.704  29.669  19.096  0.0388  0.2129  0.2321
65434W        W 8372  13.082  30.558  19.440  0.1166  0.0017 -0.1983
65435W        W 8373  11.516  29.575  20.410 -0.0364 -0.2081 -0.1381
65436W        W 8374  12.052  30.957  20.293  0.0228  0.2366 -0.3845
65437W        W 8375  12.865  30.365  22.057  0.0116 -0.1728 -0.0340
65438W        W 8376  13.662  31.796  22.279 -0.2819  0.2932 -0.0875
65439W        W 8377  13.276  31.307  20.852  0.0621 -0.0571 -0.3948
65440W        W 8378  12.954  30.956  23.004 -0.0190  0.2434 -0.2800
65441W        W 8379  13.517  33.084  21.983 -0.0937 -0.2405  0.0034
65442W        W 8380  10.861  30.744  22.452  0.0221 -0.1271  0.1779
65443W        W 8381  12.930  32.847  18.685  0.0384  0.1268  0.1135
65444W        W 8382  14.495  31.949  20.637 -0.2045  0.0614 -0.1505
65445W        W 8383  12.199  32.088  19.045  0.0887 -0.1737 -0.0277
65446W        W 8384  12.107  28.679  20.477  0.1631 -0.0289  0.0812
65447W        W 8385  10.945  30.517  22.907  0.1423 -0.3025  0.2854
65448W        W 8386  11.715  30.678  22.100 -0.2284 -0.3258  0.2025
65449W        W 8387  11.419  29.734  18.604 -0.0572 -0.2460  0.1124
65450W        W 8388  13.001  32.426  21.893 -0.3347  0.0990 -0.0401
65451W        W 8389  11.822  32.321  24.094 -0.1417  0.1754 -0.3608
65452W        W 8390  13.944  30.217  21.091  0.1368  0.2452  0.1557
65453W        W 8391  13.072  31.748  20.732 -0.1177  0.0003 -0.1045
65454W        W 8392  12.964  31.929  21.625  0.0559  0.0045  0.1016
65455W        W 8393  14.805  31.475  19.141  0.0696 -0.0632 -0.1087
65456W        W 8394  13.159  28.479  20.794  0.3491 -0.1108 -0.1182
65457W        W 8395  13.735  29.442  21.870  0.0514 -0.0160 -0.1531
65458W        W 8396  13.192  31.999  18.991  0.2441  0.1787  0.2277
65459W        W 8397  11.282  31.691  19.600 -0.1419  0.2760 -0.0297
65460W        W 8398  13.007  32.980  22.155 -0.2680  0.1110  0.2223
65461W        W 8399  14.368  30.883  18.416 -0.0981 -0.4512 -0.1541
65462W        W 8400  12.020  30.719  21.032  0.0528  0.0845  0.0285
65463W        W 8401  13.182  31.464  22.896  0.1921  0.0044  0.2096
65464W        W 8402  13.115  32.909  22.642  0.1523  0.1871 -0.3055
65465W        W 8403  11.344  32.461  19.300  0.2024 -0.1606 -0.0826
65466W        W 8404   9.833  30.548  20.979 -0.0571  0.2790  0.0620
65467W        W 8405  12.789  32.251  19.156  0.0872  0.2118 -0.0226
65468W        W 8406  11.561  29.537  22.155 -0.1034 -0.1341 -0.0361
65469W        W 8407  13.878  31.736  21.374 -0.0637  0.1528  0.0509
65470W        W 8408  12.995  31.097  21.282 -0.1412 -0.0119  0.1000
65471W        W 8409  11.707  29.110  22.857 -0.0241 -0.2279  0.0037
65472W        W 8410  15.434  29.614  21.962  0.0464  0.0117  0.0425
65473W        W 8411  11.993  30.438  21.532  0.0912 -0.0336  0.0423
65474W        W 8412  14.813  33.184  19.530  0.1519 -0.0728 -0.3703
65475W        W 8413  13.546  30.501  19.368 -0.0453 -0.2426  0.0404
65476W        W 8414  12.581  32.005  18.219  0.0638  0.4183 -0.0295
65477W        W 8415  12.662  29.970  20.186  0.0104  0.0174  0.3363
65478W        W 8416  12.209  29.926  21.608 -0.1073 -0.0152  0.1836
65479W        W 8417  12.608  29.121  23.032  0.1701  0.0771  0.2036
65480W        W 8418  10.353  28.939  22.211  0.2914  0.2105 -0.0578
65481W        W 8419  13.426  30.872  23.532 -0.1203 -0.2365 -0.0031
65482W        W 8420  10.730  30.740  20.763  0.1837  0.2180  0.3763
65483W        W 8421  11.909  29.791  20.681 -0.0167  0.0363  0.3247
65484W        W 8422  13.608  30.193  20.720 -0.0653 -0.2520  0.1838
65485W        W 8423  10.712  31.253  20.790  0.1985 -0.0524 -0.0515
65486W        W 8424  13.304  31.852  23.177  0.2207  0.0541  0.0785
65487W        W 8425  12.371  33.407  21.957  0.0696  0.0616  0.3068
65488W        W 8426  14.244  32.587  22.295  0.1604 -0.1949 -0.3489
65489W        W 8427  13.556  33.897  22.211 -0.1186 -0.1077 -0.0921
65490W        W 8428  12.506  29.943  22.024  0.2046  0.2114  0.2180
65491W        W 8429  11.419  29.748  18.069 -0.2237 -0.0422  0.1633
65492W        W 8430  11.962  33.732  21.592  0.1577  0.1129  0.2446
65493W        W 8431  13.374  32.661  22.302 -0.3096  0.1229  0.1385
65494W        W 8432  11.744  29.823  21.307  0.0452  0.1443 -0.1325
65495W        W 8433  14.230  33.028  22.005  0.0928  0.2103 -0.1883
65496W        W 8434  14.129  33.330  21.116 -0.3142  0.2143  0.3635
65497W        W 8435  10.185  32.186  22.507 -0.2058  0.0055 -0.3743
65498W        W 8436  15.087  29.593  22.342 -0.1777 -0.0795  0.0093
65499W        W 8437  14.743  31.761  22.606 -0.1115 -0.0859  0.3821
65500W        W 8438  13.303  30.878  22.061 -0.0684  0.0136  0.2875
65501W        W 8439  10.991  30.172  19.756  0.1013 -0.2209  0.1949
65502W        W 8440  13.808  33.432  22.158 -0.0248 -0.0271 -0.0073
65503W        W 8441  11.266  32.050  18.850  0.1002 -0.3379 -0.0271
65504W        W 8442  10.663  32.098  20.349  0.0649 -0.1565 -0.0798
65505W        W 8443  12.912  32.250  20.670 -0.3403 -0.0054 -0.3373
65506W        W 8444  13.278  30.238  22.267 -0.1841  0.0140 -0.0253
65507W        W 8445  12.188  32.294  23.681 -0.0627  0.0037 -0.0685
65508W        W 8446  12.098  30.852  23.037  0.0684  0.2426  0.1324
65509W        W 8447  11.492  30.441  20.771 -0.1130  0.0976 -0.0751
65510W        W 8448  11.995  32.977  21.739  0.0914  0.0561 -0.0377
65511W        W 8449  13.743  29.108  22.191 -0.1528 -0.1440  0.0020
65512W        W 8450  12.962  28.982  20.155  0.0029 -0.2321 -0.2427
65513W        W 8451  11.847  31.771  24.274 -0.1142 -0.1234 -0.0678
65514W        W 8452  14.075  33.120  22.508  0.1693 -0.1129 -0.2090
65515W        W 8453  13.163  30.217  17.882 -0.2644 -0.0677 -0.1685
65516W        W 8454  13.487  29.796  19.868  0.0082 -0.0759 -0.0143
65517W        W 8455  12.327  30.417  22.939  0.0589  0.3508  0.2732
65518W        W 8456  12.557  31.406  19.977 -0.2206 -0.4385  0.1429
65519W        W 8457  12.908  32.060  21.094  0.1255 -0.1045 -0.0130
65520W        W 8458  12.957  29.966  19.780 -0.0830 -0.0311  0.0955
65521W        W 8459  12.618  34.069  21.854 -0.0032 -0.5787  0.0551
65522W        W 8460  11.650  31.604  21.473  0.2978  0.0332 -0.0946
65523W        W 8461  12.094  31.678  22.098 -0.0480 -0.2005 -0.3891
65524W        W 8462  14.251  32.887  20.948  0.0366 -0.1705  0.0612
65525W        W 8463  12.275  28.274  22.176 -0.1339  0.3525  0.1321
65526W        W 8464  13.242  30.219  18.437  0.0965  0.2628 -0.1151
65527W        W 8465  12.601  30.811  19.662  0.3672  0.0978  0.1504
65528W        W 8466   9.573  32.485  20.256  0.0645  0.2111 -0.0292
65529W        W 8467  13.980  30.852  21.872  0.4300 -0.0110  0.0213
65530W        W 8468  13.328  30.736  22.697  0.0002 -0.1456  0.1339
65531W        W 8469  12.977  28.751  24.546  0.1340  0.0431  0.0479
65532W        W 8470  15.098  30.856  23.494 -0.0853 -0.0782  0.0205
65533W        W 8471  12.622  31.304  19.508  0.1982  0.0127 -0.0298
65534W        W 8472  12.302  30.481  23.525 -0.2317 -0.1468  0.1450
65535W        W 8473  10.659  30.943  19.815 -0.1708 -0.0081  0.0242
65536W        W 8474  12.805  29.877  23.137 -0.2400  0.1085 -0.2113
65537W        W 8475   9.996  31.121  22.808 -0.0739  0.1607 -0.4434
65538W        W 8476  11.740  31.559  23.347  0.0854  0.1106  0.0916
65539W        W 8477  12.539  31.790  23.624 -0.1213  0.2495 -0.1932
65540W        W 8478  12.515  31.864  20.907  0.0735  0.0296  0.3448
65541W        W 8479  12.945  29.393  23.251  0.3207  0.1319 -0.0068
65542W        W 8480  12.537  29.314  19.674 -0.0802 -0.3669 -0.0768
65543W        W 8481  11.899  32.285  20.646  0.1458 -0.1902  0.2699
65544W        W 8482  13.475  31.931  19.402  0.2042 -0.1553  0.0069
65545W        W 8483  11.499  28.925  21.084 -0.0607  0.0268  0.2073
65546W        W 8484  11.811  31.130  22.726  0.1305 -0.0998  0.0775
65547W        W 8485  12.552  32.575  18.882 -0.2292 -0.0303 -0.1837
65548W        W 8486  13.795  32.711  22.557 -0.3612 -0.0764 -0.2203
65549W        W 8487  13.428  32.232  19.978  0.0027  0.3758  0.5066
65550W        W 8488  13.325  29.149  22.938 -0.4502  0.0234  0.1528
65551W        W 8489  10.024  33.360  21.780 -0.1850  0.2465  0.2336
65552W        W 8490  10.581  30.519  19.514 -0.0576 -0.1516  0.1553
65553W        W 8491  11.540  29.384  21.394  0.1923  0.0010  0.3592
65554W        W 8492  12.483  31.269  21.277 -0.0283  0.0743  0.0897
65555W        W 8493  13.793  31.255  19.774  0.3595  0.0601 -0.1241
65556W        W 8494  10.181  29.513  22.490  0.0463 -0.0242 -0.1567
65557W        W 8495  12.815  28.852  21.044  0.3892 -0.1277 -0.0724
65558W        W 8496  12.041  32.119  22.890 -0.2435 -0.0525  0.2113
65559W        W 8497  14.164  30.066  22.897  0.0381  0.1022  0.0680
65560W        W 8498  12.705  28.466  20.119 -0.3963 -0.1161 -0.4791
65561W        W 8499  13.150  30.787  20.095 -0.0078  0.4240  0.0800
65562W        W 8500  12.331  31.709  24.454  0.5431 -0.0365  0.2106
65563W        W 8501  11.244  29.128  20.287 -0.2570  0.1089 -0.1104
65564W        W 8502  13.679  31.776  22.763  0.3066  0.0426 -0.1187
65565W        W 8503  11.207  30.399  20.111  0.1131  0.0178 -0.0991
65566W        W 8504  12.576  32.748  21.871  0.3517 -0.2310 -0.2039
65567W        W 8505  13.256  33.466  22.217  0.1927  0.2467  0.2152
65568W        W 8506  12.770  29.990  21.526  0.2339  0.0678 -0.2035
65569W        W 8507  11.218  31.704  20.143  0.3643 -0.1496 -0.0855
65570W        W 8508  10.924  30.650  23.896  0.0550 -0.0548 -0.0766
65571W        W 8509  14.183  31.411  22.306  0.1148 -0.1335  0.0765
65572W        W 8510  12.467  30.690  22.100  0.1803 -0.0487  0.1062
65573W        W 8511  11.164  29.836  22.291 -0.2267  0.2358  0.1154
65574W        W 8512  12.872  30.788  22.424  0.1145  0.2882  0.0349
65575W        W 8513  14.139  32.350  23.016 -0.0299 -0.1142  0.0338
65576W        W 8514  12.844  30.183  23.478 -0.2348  0.0702  0.1235
65577W        W 8515  14.488  32.846  24.028  0.1488  0.0529  0.1779
65578W        W 8516  13.242  29.714  22.808  0.1682 -0.0390 -0.0585
65579W        W 8517  14.747  32.682  19.467  0.1405  0.0233  0.2928
65580W        W 8518  12.257  31.410  22.491 -0.1347 -0.0972  0.1429
65581W        W 8519  11.631  31.031  18.865  0.0267 -0.0826  0.2108
65582W        W 8520  10.899  31.614  22.969 -0.0211  0.4252  0.0673
65583W        W 8521  11.726  30.869  21.644 -0.1909  0.0803 -0.0759
65584W        W 8522  12.907  29.062  22.242 -0.1618 -0.0822 -0.3667
65585W        W 8523  12.422  32.306  21.987 -0.1215  0.3305  0.2604
65586W        W 8524  11.688  31.857  18.685 -0.0804 -0.3940 -0.2601
65587W        W 8525  11.188  30.963  20.765 -0.0650  0.2784  0.0377
65588W        W 8526  13.957  30.811  21.206 -0.0412  0.4705  0.2359
65589W        W 8527  13.640  31.839  20.783 -0.0788 -0.1017 -0.2032
65590W        W 8528  10.708  30.641  21.940  0.1429 -0.1446  0.2249
65591W        W 8529  14.487  31.364  22.815 -0.2097 -0.1140  0.1715
65592W        W 8530  13.516  30.846  20.897 -0.1918  0.5077  0.1758
65593W        W 8531  13.261  30.336  24.521 -0.0678  0.1148  0.1390
65594W        W 8532  10.681  29.979  21.429 -0.1463  0.1719 -0.0861
65595W        W 8533  14.910  31.795  21.299  0.1092 -0.0930 -0.1094
65596W        W 8534  10.526  29.029  21.617  0.1740 -0.1539 -0.0867
65597W        W 8535  13.203  31.983  26.135  0.0937  0.0089 -0.3530
65598W        W 8536  12.520  30.866  23.253 -0.3504 -0.2735  0.1028
65599W        W 8537  13.017  31.591  21.234 -0.0242  0.1596 -0.0225
65600W        W 8538  12.359  30.250  20.651  0.0456 -0.1888  0.0782
65601W        W 8539  12.252  32.160  21.204 -0.1796  0.0448  0.0092
65602W        W 8540  13.974  32.179  22.095  0.0394 -0.2170 -0.0793
65603W        W 8541  11.902  31.564  19.067 -0.0553  0.0908 -0.1192
65604W        W 8542  14.423  31.554  21.478 -0.2316 -0.2668  0.1803
65605W        W 8543  11.696  30.133  21.823  0.1159 -0.2700  0.0353
65606W        W 8544  13.968  32.088  19.418 -0.4162 -0.0335  0.0705
65607W        W 8545  13.031  31.820  19.687 -0.0039  0.3555  0.0722
65608W        W 8546  11.719  31.762  19.827 -0.2369 -0.1620 -0.0497
65609W        W 8547  10.716  29.282  22.016  0.3609  0.1508  0.2245
65610W        W 8548  12.521  31.818  21.399  0.3296  0.2809  0.1224
65611W        W 8549  11.969  29.381  21.157 -0.1775 -0.3180 -0.0047
65612W        W 8550  15.058  29.999  22.855  0.0119 -0.1968  0.1543
65613W        W 8551  13.224  30.588  23.151 -0.1293 -0.1038  0.1123
65614W        W 8552  12.855  30.399  22.769 -0.2753 -0.0285 -0.0664
65615W        W 8553  10.440  30.003  22.665 -0.1427  0.1084 -0.1922
65616W        W 8554  12.310  32.028  24.075 -0.1191 -0.2822 -0.3941
65617W        W 8555  13.242  30.020  20.946  0.2523  0.1579 -0.0551
65618W        W 8556  14.414  30.369  22.582 -0.0642 -0.1475  0.0368
65619W        W 8557  12.407  31.290  20.393 -0.1833 -0.1171 -0.1221
65620W        W 8558  12.719  29.568  18.968 -0.0945 -0.2763 -0.1060
65621W        W 8559  10.777  29.548  22.426 -0.0025 -0.3408  0.0131
65622W        W 8560  12.978  32.078  23.436  0.1784  0.1166 -0.2438
65623W        W 8561  10.611  29.544  18.187  0.1350 -0.2955 -0.0696
65624W        W 8562  12.415  29.604  22.916  0.0352 -0.1640  0.0001
65625W        W 8563  12.137  31.590  21.095  0.2413 -0.0002 -0.0517
65626W        W 8564  14.718  33.886  20.869 -0.2729 -0.0251  0.3933
65627W        W 8565  12.039  31.636  20.625  0.1576 -0.1456  0.0859
65628W        W 8566  11.269  30.158  22.626 -0.1051 -0.0676  0.1343
65629W        W 8567  12.239  31.737  23.267 -0.0887 -0.1882 -0.0986
65630W        W 8568  10.708  31.498  20.229 -0.0166 -0.0236  0.1240
65631W        W 8569  11.906  30.515  20.485  0.0522 -0.0783  0.3635
65632W        W 8570  13.095  31.219  22.353 -0.0079  0.2417  0.3250
65633W        W 8571  13.079  31.664  23.741  0.1001  0.0938  0.0647
65634W        W 8572  12.767  27.595  21.056  0.1235  0.0360 -0.2619
65635W        W 8573  14.870  30.353  23.170 -0.3410  0.1764  0.2560
65636W        W 8574  12.084  31.792  21.657  0.1046 -0.3542  0.0359
65637W        W 8575  12.228  29.267  22.115  0.2899 -0.1646  0.3024
65638W        W 8576  12.009  33.076  22.262  0.0844  0.0592  0.2123
65639W        W 8577  11.944  31.597  22.851  0.2069 -0.1540  0.0243
65640W        W 8578  11.683  31.385  20.992 -0.1033 -0.1729 -0.3382
65641W        W 8579  11.965  29.385  22.511  0.1391 -0.0509 -0.3047
65642W        W 8580  13.175  31.675  22.042  0.1484  0.0927  0.0950
65643W        W 8581  11.110  31.039  23.013 -0.1832 -0.2425  0.0628
65644W        W 8582  14.890  30.034  22.349 -0.1959 -0.1385  0.1546
65645W        W 8583  12.914  32.110  22.220 -0.0951 -0.1590  0.0069
65646W        W 8584  10.807  31.253  22.665 -0.0159  0.1996 -0.0149
65647W        W 8585  13.889  32.440  23.436  0.3517  0.0380 -0.0817
65648W        W 8586  14.626  33.745  23.014  0.1878 -0.0990 -0.1327
65649W        W 8587  12.779  32.596  21.012 -0.1485 -0.1300  0.1661
65650W        W 8588  10.787  30.073  23.050 -0.1861 -0.0990 -0.0495
65651W        W 8589  12.070  31.869  25.692  0.1678 -0.0819 -0.3746
65652W        W 8590  13.561  31.139  22.448  0.1640 -0.2189 -0.2002
65653W        W 8591  13.108  27.941  21.063 -0.2611 -0.0366 -0.0268
65654W        W 8592  12.652  30.890  20.190 -0.0834  0.0543  0.3219
65655W        W 8593   9.933  31.416  24.978  0.2713  0.2170  0.2489
65656W        W 8594  10.239  31.538  22.234  0.1776  0.1157 -0.1248
65657W        W 8595  10.899  32.464  20.138 -0.0176 -0.3358 -0.1220
65658W        W 8596  14.036  34.276  21.454  0.0503  0.0602 -0.0973
65659W        W 8597  12.647  31.726  20.422  0.1307 -0.2003  0.2327
65660W        W 8598  12.734  32.356  21.440 -0.1088  0.1557  0.0906
65661W        W 8599  12.377  29.103  21.107 -0.2486  0.2665 -0.0556
65662W        W 8600  11.248  31.950  21.548 -0.2533 -0.0260 -0.2235
65663W        W 8601  11.671  32.155  21.321  0.0156 -0.0741 -0.1350
65664W        W 8602  13.920  33.211  18.798 -0.1519  0.0481 -0.0122
65665W        W 8603  11.252  31.457  20.703  0.3084 -0.0899  0.2067
65666W        W 8604  14.259  31.714  24.365  0.1675  0.2012  0.0318
65667W        W 8605  14.918  30.437  19.480  0.2125  0.1994  0.0908
65668W        W 8606  14.623  30.602  22.178 -0.1812  0.1529  0.1537
65669W        W 8607  13.891  31.242  21.468 -0.3063  0.3437  0.0739
65670W        W 8608  12.709  33.314  23.467 -0.0179 -0.2350  0.2585
65671W        W 8609  11.467  30.885  21.222  0.0019  0.1922  0.1539
65672W        W 8610  11.707  28.758  20.068 -0.0077 -0.0898 -0.0755
65673W        W 8611  12.361  31.321  23.470 -0.3142  0.2049  0.1658
65674W        W 8612  14.947  30.997  22.663  0.1001 -0.0886  0.1252
65675W        W 8613  11.725  32.671  22.079 -0.1207  0.0916 -0.1525
65676W        W 8614  13.613  32.719  20.601 -0.1227  0.2159  0.4420
65677W        W 8615  11.909  30.346  19.897 -0.0285 -0.0906  0.2437
65678W        W 8616  12.113  31.044  22.177  0.0312 -0.1027 -0.1472
65679W        W 8617  15.312  29.608  23.498  0.1383 -0.0266  0.0910
65680W        W 8618  11.402  30.628  18.559 -0.0857  0.1188  0.0840
65681W        W 8619  13.716  31.362  21.924  0.2967  0.1652 -0.0754
65682W        W 8620  10.539  32.113  22.068  0.2030 -0.0146 -0.2809
65683W        W 8621  12.354  32.697  21.338  0.3661  0.2637 -0.0237
65684W        W 8622  12.766  32.577  22.336 -0.0119  0.0012 -0.3913
65685W        W 8623   9.295  28.784  20.953 -0.3269  0.2020  0.0846
65686W        W 8624  14.888  32.997  20.057  0.1689  0.3454 -0.1736
65687W        W 8625  11.233  29.337  22.477  0.1132  0.1605  0.1063
65688W        W 8626  14.359  29.872  21.682  0.1356  0.2618  0.1405
65689W        W 8627  13.165  29.923  21.910  0.0046  0.2151  0.0826
65690W        W 8628  12.839  30.950  19.177  0.0763  0.2148 -0.2699
65691W        W 8629  12.784  30.894  21.749  0.0073 -0.0134 -0.1137
65692W        W 8630  10.737  28.741  23.037  0.0381  0.1676  0.1841
65693W        W 8631  12.361  29.747  19.858 -0.1323 -0.0364 -0.1843
65694W        W 8632  13.669  32.234  22.491  0.0319 -0.1026  0.2611
65695W        W 8633  14.228  31.292  21.088  0.1524 -0.1954  0.3988
65696W        W 8634  13.656  32.386  24.032  0.0241  0.2603  0.2447
65697W        W 8635  10.870  28.008  19.567 -0.1131 -0.0123 -0.1031
65698W        W 8636  13.233  29.257  21.878 -0.0955 -0.1355  0.1304
65699W        W 8637  11.466  31.282  19.915 -0.1252 -0.2064 -0.4671
65700W        W 8638  11.421  29.633  23.133  0.1306  0.2866  0.0262
65701W        W 8639  12.824  32.847  23.614  0.0245 -0.1831  0.0030
65702W        W 8640  10.041  28.546  20.979 -0.0627 -0.2753 -0.1101
65703W        W 8641  14.193  31.860  21.016  0.1117 -0.1096  0.0718
65704W        W 8642  13.396  31.347  21.533 -0.0998  0.2084 -0.1360
65705W        W 8643  12.050  32.269  17.756 -0.2368  0.0113 -0.0320
65706W        W 8644  14.103  31.718  21.906  0.0264 -0.1441 -0.0340
65707W        W 8645  13.977  32.046  23.772  0.0734  0.2249  0.2638
65708W        W 8646  10.455  30.963  22.811 -0.0989 -0.0941  0.4835
65709W        W 8647  15.012  32.936  23.211 -0.2122  0.1789  0.3796
65710W        W 8648  14.785  31.681  23.189  0.0517  0.1642  0.2074
65711W        W 8649  12.859  29.464  21.077  0.1175  0.1223  0.2980
65712W        W 8650  11.502  30.202  19.666  0.0163 -0.1265 -0.1383
65713W        W 8651   9.188  31.419  23.348  0.3072  0.0563 -0.1342
65714W        W 8652  14.958  32.054  20.330 -0.1463 -0.0357  0.2278
65715W        W 8653  14.539  29.953  23.265 -0.0408  0.0885 -0.2290
65716W        W 8654  14.737  32.954  20.634  0.4814  0.3235  0.2410
65717W        W 8655  13.765  29.792  22.801  0.2784  0.0875 -0.2304
65718W        W 8656  12.894  33.030  23.103 -0.0525 -0.4268 -0.3758
65719W        W 8657  10.866  31.917  23.926  0.4406 -0.1085  0.1201
65720W        W 8658  10.562  30.505  20.177  0.1043 -0.1797 -0.0593
65721W        W 8659  10.787  31.284  23.296  0.1624  0.1817  0.1018
65722W        W 8660  11.646  31.359  20.440  0.0726  0.1510 -0.4564
65723W        W 8661  11.743  32.914  20.921 -0.2485  0.1004  0.1419
65724W        W 8662  13.746  32.612  21.989 -0.1221 -0.0177 -0.0918
65725W        W 8663  12.678  30.311  21.097 -0.0476  0.0280  0.4514
65726W        W 8664  15.327  31.712  23.196 -0.1459  0.0045 -0.1216
65727W        W 8665  12.057  29.146  23.220  0.2387  0.0621 -0.1387
65728W        W 8666  12.355  30.740  20.610 -0.1661 -0.1430 -0.2879
65729W        W 8667  12.879  29.377  22.687 -0.2208  0.0121 -0.1276
65730W        W 8668  12.035  29.779  22.104  0.3142 -0.3745 -0.1112
65731W        W 8669  11.168  31.044  19.359 -0.2614  0.3037  0.3111
65732W        W 8670  11.145  31.105  18.771 -0.0599 -0.1934  0.4347
65733W        W 8671  11.823  32.449  23.212  0.2110 -0.1966 -0.1116
65734W        W 8672  12.612  29.696  24.792  0.1705 -0.1020  0.2103
65735W        W 8673  11.373  29.783  23.737  0.4951  0.0191  0.0356
65736W        W 8674  11.185  31.554  21.193 -0.0766 -0.2030  0.0724
65737W        W 8675   9.923  29.852  21.847  0.2032 -0.0609 -0.0356
65738W        W 8676  14.220  32.600  21.798  0.1211  0.0751  0.0086
65739W        W 8677  12.460  29.561  21.375 -0.0650  0.0179 -0.0020
65740W        W 8678  10.074  28.994  20.834 -0.0740  0.0940 -0.2375
65741W        W 8679  14.456  31.715  20.165  0.2584 -0.0010 -0.1565
65742W        W 8680  12.529  33.676  21.569  0.0665  0.0422  0.0619
65743W        W 8681  12.388  29.578  20.872  0.0424  0.3628  0.0618
65744W        W 8682  13.272  32.753  24.603  0.0836  0.0389 -0.0518
65745W        W 8683  10.738  31.798  20.716  0.0589 -0.1518 -0.2622
65746W        W 8684  13.465  29.545  23.248 -0.0241  0.0155  0.1174
65747W        W 8685  13.454  29.071  24.042  0.0031 -0.1670 -0.0482
65748W        W 8686  11.377  31.475  19.068  0.0668 -0.0951 -0.2911
65749W        W 8687  12.777  29.978  22.497  0.3915  0.1804 -0.1157
65750W        W 8688  13.230  32.780  21.130  0.0407  0.1143 -0.0594
65751W        W 8689  12.959  32.087  20.161  0.0073 -0.0948  0.1063
65752W        W 8690  12.299  31.390  21.776 -0.1040  0.3370  0.0011
65753W        W 8691  12.867  31.889  25.116  0.0454  0.2024 -0.0968
65754W        W 8692  10.694  29.113  22.599 -0.0645  0.0623  0.0057
65755W        W 8693  13.821  30.943  20.170  0.4245  0.3586 -0.2142
65756W        W 8694  11.382  31.058  22.468  0.0193  0.1920 -0.0191
65757W        W 8695  13.791  32.916  21.073 -0.3455  0.1696 -0.3871
65758W        W 8696  13.620  30.338  20.232 -0.1997  0.0966 -0.0267
65759W        W 8697  14.594  31.443  20.718  0.2324 -0.1359 -0.0445
65760W        W 8698  13.017  29.500  24.018  0.0923 -0.1440 -0.0223
65761W        W 8699  11.416  31.434  22.923 -0.0425  0.0529 -0.2196
65762W        W 8700  13.097  32.356  22.637  0.1534 -0.1696  0.1321
65763W        W 8701  12.018  29.431  21.649 -0.0988 -0.3478  0.0508
65764W        W 8702  13.923  29.852  22.045  0.0594 -0.0065  0.0883
65765W        W 8703  14.455  33.915  20.289  0.0101 -0.0048  0.1080
65766W        W 8704  10.713  31.491  22.205  0.0322  0.2866  0.0236
65767W        W 8705  11.663  31.181  19.432  0.1860 -0.1317  0.0366
65768W        W 8706  12.600  31.816  21.881 -0.3282 -0.0719 -0.1508
65769W        W 8707  13.321  33.175  20.820 -0.1664  0.2373 -0.0873
65770W        W 8708  13.316  31.334  24.768 -0.0817 -0.1476  0.1555
65771W        W 8709  10.962  31.348  19.716 -0.1734 -0.0391 -0.2115
65772W        W 8710  14.625  31.338  18.666 -0.1239 -0.2670  0.1538
65773W        W 8711  12.227  32.628  22.411 -0.1173 -0.1246  0.1645
65774W        W 8712  14.385  32.440  24.698  0.1065  0.2118  0.1253
65775W        W 8713  12.781  32.549  23.165  0.2248 -0.1690 -0.0242
65776W        W 8714  11.030  31.599  18.706 -0.1215  0.1652  0.0925
65777W        W 8715  10.824  31.109  21.777  0.0890  0.2172 -0.1458
65778W        W 8716  12.940  31.307  20.288  0.0928 -0.1469  0.1141
65779W        W 8717  13.179  32.636  20.103  0.3903 -0.0893  0.1086
65780W        W 8718  12.233  31.176  20.859 -0.2464 -0.0190  0.1347
65781W        W 8719  12.073  30.307  22.056 -0.1544  0.1152 -0.0689
65782W        W 8720  12.453  28.486  20.864 -0.0452 -0.1765  0.1174
65783W        W 8721  11.696  33.553  22.026 -0.1850 -0.0518 -0.1376
65784W        W 8722  13.824  30.716  22.860  0.1604  0.2496 -0.2570
65785W        W 8723  13.217  32.376  28.477  0.1115  0.2758  0.2475
65786W        W 8724  13.287  31.212  23.890  0.1233  0.1067 -0.0624
65787W        W 8725  14.179  30.829  22.517 -0.0660  0.0696 -0.2223
65788W        W 8726  14.968  32.557  24.730  0.0374 -0.1494 -0.2126
65789W        W 8727  12.506  29.528  23.419 -0.2532 -0.1589  0.0426
65790W        W 8728  14.355  32.075  25.302  0.0442 -0.2835 -0.3564
65791W        W 8729  11.819  29.101  26.412  0.0322 -0.1420 -0.2050
65792W        W 8730  14.190  31.266  27.438  0.0230 -0.2307  0.0271
65793W        W 8731  14.506  32.406  26.433 -0.1175  0.2893  0.0903
65794W        W 8732  12.830  31.904  24.485 -0.1317 -0.2511  0.0180
65795W        W 8733  12.361  29.846  27.659  0.4953 -0.0306 -0.1021
65796W        W 8734  11.110  32.166  26.981 -0.0266  0.1860  0.1848
65797W        W 8735  13.543  29.926  23.666  0.2488 -0.1221 -0.0393
65798W        W 8736  12.361  29.036  25.760  0.0207 -0.1509  0.1412
65799W        W 8737  15.279  31.130  26.303 -0.0420 -0.3377  0.1201
65800W        W 8738  12.330  30.147  24.715  0.0728 -0.0455 -0.2823
65801W        W 8739  12.479  30.183  26.317 -0.1512  0.2511  0.0449
65802W        W 8740  12.668  31.125  26.376  0.1564 -0.1681  0.0119
65803W        W 8741  12.915  32.808  24.159 -0.3733 -0.1733  0.0452
65804W        W 8742  13.770  29.509  26.332  0.0988  0.2371 -0.0230
65805W        W 8743  13.741  30.073  26.510 -0.1235 -0.1541  0.1455
65806W        W 8744  13.220  32.525  23.770  0.2087  0.0053 -0.0354
65807W        W 8745  12.067  31.305  24.702  0.1224 -0.0689  0.0881
65808W        W 8746  11.290  29.708  25.725 -0.0032  0.0645  0.0169
65809W        W 8747  13.092  30.934  26.144 -0.0779 -0.0541  0.0824
65810W        W 8748  14.599  29.576  25.934  0.1744  0.3140  0.1391
65811W        W 8749  13.478  32.878  26.494  0.1977  0.1742  0.0100
65812W        W 8750  12.686  33.072  25.789  0.2089 -0.1354  0.1179
65813W        W 8751  13.922  30.480  25.815  0.1151 -0.0678 -0.2612
65814W        W 8752  13.454  30.454  26.732 -0.1928 -0.2035  0.3008
65815W        W 8753  10.598  31.732  25.594 -0.2428  0.1886  0.2092
65816W        W 8754  11.477  33.508  24.941  0.0087  0.0533  0.1610
65817W        W 8755  12.281  31.948  25.123  0.1839  0.1254 -0.2437
65818W        W 8756  14.791  32.569  23.612  0.3300  0.1130  0.0167
65819W        W 8757  14.510  31.557  27.703 -0.2682  0.1236 -0.0240
65820W        W 8758  11.917  33.993  25.987  0.1316 -0.3032  0.3272
65821W        W 8759  10.504  31.310  24.550 -0.1486  0.0489 -0.1385
65822W        W 8760  13.606  33.315  27.299  0.0156  0.1226 -0.2590
65823W        W 8761  12.524  33.183  27.462  0.3535 -0.2340 -0.0280
65824W        W 8762  14.136  31.882  27.458  0.2068  0.0713 -0.0288
65825W        W 8763  13.551  30.551  25.465 -0.1983 -0.1633  0.2595
65826W        W 8764  12.640  32.365  24.368  0.1651 -0.0916 -0.1423
65827W        W 8765  12.446  30.609  24.769  0.0138 -0.2765  0.0128
65828W        W 8766  12.890  31.781  27.343  0.2409  0.0147  0.0555
65829W        W 8767  11.746  32.437  27.688 -0.2008 -0.0591 -0.2358
65830W        W 8768  13.608  27.471  27.659  0.0313 -0.2154  0.0563
65831W        W 8769  11.381  32.073  24.185  0.3301 -0.1870  0.0760
65832W        W 8770  12.121  29.992  23.700 -0.1188  0.1540 -0.2121
65833W        W 8771  13.653  30.656  22.282  0.2457  0.1342  0.1423
65834W        W 8772  14.320  29.450  24.395 -0.0517 -0.1439 -0.2007
65835W        W 8773  13.451  28.371  25.743 -0.0853 -0.2301 -0.1306
65836W        W 8774  12.878  32.349  26.350 -0.0778 -0.1577 -0.1907
65837W        W 8775  11.841  30.443  25.522  0.1377  0.0184 -0.2781
65838W        W 8776  13.602  30.884  24.831 -0.1568 -0.1199 -0.1991
65839W        W 8777  12.198  29.541  24.588 -0.2404  0.1563 -0.0523
65840W        W 8778  12.732  30.324  24.441 -0.1447  0.3991  0.0046
65841W        W 8779  10.444  31.096  26.376  0.2923  0.0169 -0.0248
65842W        W 8780  10.467  29.665  25.101  0.0940 -0.3350 -0.3086
65843W        W 8781  14.809  33.298  24.217  0.1885  0.1662  0.1261
65844W        W 8782  13.907  31.865  26.104 -0.1622  0.0238 -0.0467
65845W        W 8783  12.112  33.211  24.222 -0.0096 -0.3559 -0.0673
65846W        W 8784  11.705  30.343  26.022 -0.2089 -0.0697 -0.0802
65847W        W 8785  10.439  32.028  27.345 -0.0350  0.0402  0.2300
65848W        W 8786  10.622  31.313  25.919 -0.0088 -0.1998  0.3588
65849W        W 8787  10.452  28.785  24.095 -0.0031 -0.3175 -0.3360
65850W        W 8788  13.878  33.307  27.720 -0.1189  0.1932  0.1290
65851W        W 8789  11.867  33.458  26.192  0.1882  0.1211  0.1197
65852W        W 8790  15.447  28.906  25.086  0.0275 -0.0108  0.0226
65853W        W 8791  11.841  30.878  25.744  0.0653 -0.1695  0.1357
65854W        W 8792  13.338  31.552  25.235 -0.2354  0.0474  0.3871
65855W        W 8793  13.227  31.856  22.541 -0.0091 -0.3710 -0.2248
65856W        W 8794  13.435  29.067  26.023  0.1521 -0.1000  0.0199
65857W        W 8795  14.682  30.632  25.523  0.1682 -0.1432  0.3609
65858W        W 8796  11.835  30.905  24.094 -0.0730  0.2162  0.3641
65859W        W 8797  12.279  31.342  22.973 -0.1696  0.1711 -0.0405
65860W        W 8798  14.030  31.566  27.797  0.1031 -0.0083 -0.1031
65861W        W 8799  14.316  32.563  23.645 -0.3679  0.0551  0.2829
65862W        W 8800  11.644  32.045  26.132 -0.1363  0.1239 -0.0399
65863W        W 8801  11.280  30.670  26.487  0.1656  0.2741 -0.0085
65864W        W 8802  13.772  32.746  27.884  0.1231  0.1946  0.0839
65865W        W 8803  12.692  32.418  25.148 -0.0396 -0.2645  0.0421
65866W        W 8804  10.295  31.627  26.514  0.0854 -0.0917 -0.3832
65867W        W 8805  11.550  31.068  23.199 -0.0205 -0.1920  0.1633
65868W        W 8806  10.532  28.877  26.181  0.1052  0.0731 -0.1634
65869W        W 8807  14.450  32.286  27.383  0.2634 -0.0402 -0.1560
65870W        W 8808  14.368  29.605  23.506 -0.1786 -0.1553 -0.1275
65871W        W 8809  12.196  30.110  25.434  0.1531  0.0235  0.0442
65872W        W 8810  14.478  30.392  25.032  0.0535 -0.0795 -0.1078
65873W        W 8811  10.968  30.892  26.088 -0.1354 -0.2043 -0.1564
65874W        W 8812  15.213  32.559  25.212 -0.1432  0.1323 -0.0902
65875W        W 8813  14.405  30.246  23.627  0.2562  0.2892 -0.3156
65876W        W 8814  12.570  32.253  22.617 -0.1894 -0.2798 -0.3348
65877W        W 8815  11.092  30.266  26.226 -0.0230 -0.1220  0.3089
65878W        W 8816  12.325  29.238  25.282  0.1212 -0.3212  0.0134
65879W        W 8817  12.279  30.984  26.002  0.3732 -0.1843 -0.0728
65880W        W 8818  12.377  28.968  24.846  0.0160  0.2119 -0.1153
65881W        W 8819  13.422  30.970  26.920  0.2629  0.0749 -0.3299
65882W        W 8820  11.965  28.505  24.487 -0.0095 -0.0512 -0.0619
65883W        W 8821  13.027  30.753  24.628  0.0541 -0.0835 -0.2390
65884W        W 8822  11.346  31.570  25.008  0.1907  0.2762  0.2373
65885W        W 8823  10.457  30.705  25.363  0.2892 -0.1135 -0.1281
65886W        W 8824  13.961  31.001  26.565 -0.7625  0.2841  0.2124
65887W        W 8825  13.199  32.295  24.303  0.0510  0.0691 -0.1179
65888W        W 8826  14.533  31.734  25.989 -0.3000  0.1036 -0.1678
65889W        W 8827  14.799  33.715  25.849  0.0036 -0.0223  0.1192
65890W        W 8828  11.892  29.851  27.562  0.1960 -0.2627  0.1257
65891W        W 8829  12.847  31.195  23.628  0.2345  0.1127 -0.0599
65892W        W 8830  11.307  31.047  25.031 -0.1749 -0.0832 -0.0304
65893W        W 8831  12.336  32.738  25.542 -0.3319  0.1082  0.1047
65894W        W 8832  12.285  30.018  23.211  0.1999  0.2870 -0.1778
65895W        W 8833  15.541  34.089  25.898  0.2923 -0.0428  0.0151
65896W        W 8834  12.526  30.405  25.216  0.0178 -0.1597 -0.0392
65897W        W 8835  11.844  31.281  26.890 -0.1532 -0.1664  0.1346
65898W        W 8836  14.399  30.670  26.899  0.3094  0.1574 -0.2562
65899W        W 8837  13.193  31.339  27.131 -0.5182 -0.1745  0.3341
65900W        W 8838  13.797  30.473  24.447 -0.3395  0.2418  0.3123
65901W        W 8839  12.449  30.280  22.406 -0.2907  0.1017 -0.2832
65902W        W 8840  13.358  32.938  27.072 -0.0263 -0.0703  0.1192
65903W        W 8841  11.920  31.777  24.802  0.0960 -0.0528 -0.0727
65904W        W 8842   9.634  29.823  25.380  0.1468 -0.0309 -0.1689
65905W        W 8843  12.049  31.505  25.215  0.0206  0.2135 -0.1251
65906W        W 8844  15.326  30.068  24.945  0.0332  0.3974  0.2077
65907W        W 8845  10.512  30.191  26.684 -0.1408 -0.1811  0.1014
65908W        W 8846  15.579  30.325  28.618  0.1220 -0.0028  0.0797
65909W        W 8847  11.992  30.434  24.960 -0.2466  0.1264  0.0092
65910W        W 8848  12.444  31.947  27.035 -0.4368  0.1429  0.1005
65911W        W 8849  13.401  30.006  24.945  0.0755 -0.1925 -0.1336
65912W        W 8850  13.425  30.986  24.376  0.1950  0.0558  0.2595
65913W        W 8851  13.419  31.607  28.586 -0.1633 -0.3588 -0.3064
65914W        W 8852  13.748  31.284  25.064 -0.1097 -0.2724 -0.1653
65915W        W 8853  13.657  30.262  23.168  0.0925  0.1210 -0.0198
65916W        W 8854  14.258  29.354  23.903  0.0446 -0.0690 -0.4669
65917W        W 8855  10.713  32.615  27.116 -0.0710  0.0112 -0.0599
65918W        W 8856  12.527  31.597  25.445 -0.0779 -0.3413  0.2758
65919W        W 8857  13.009  31.651  25.639 -0.3775 -0.3274 -0.0896
65920W        W 8858  13.763  29.322  23.625 -0.3468  0.1139  0.1340
65921W        W 8859  14.853  31.916  25.164  0.1079  0.2031  0.0678
65922W        W 8860  11.654  30.845  26.198  0.1708 -0.2885  0.0404
65923W        W 8861  13.853  31.210  28.384  0.2724 -0.0219  0.4224
65924W        W 8862  13.355  33.299  25.402 -0.2708 -0.2667 -0.0016
65925W        W 8863  13.836  29.959  27.179  0.2466 -0.0877 -0.1694
65926W        W 8864  12.339  30.936  22.595 -0.2706 -0.1152  0.4015
65927W        W 8865  13.706  30.074  25.955  0.1493 -0.0370  0.0352
65928W        W 8866  11.675  32.002  23.606  0.0369 -0.2746  0.1913
65929W        W 8867  15.078  28.645  24.924 -0.3346  0.0449  0.0125
65930W        W 8868  13.043  30.266  25.312 -0.2025  0.0722  0.0123
65931W        W 8869  12.355  28.572  26.850  0.0146 -0.1754  0.2519
65932W        W 8870  15.225  29.844  25.437 -0.0052  0.0566 -0.4287
65933W        W 8871  13.559  31.110  23.004  0.1449  0.1371  0.1171
65934W        W 8872  13.078  31.600  27.903  0.0224 -0.0382  0.0958
65935W        W 8873  11.569  29.761  22.613 -0.1367  0.1968  0.0715
65936W        W 8874  12.358  30.805  26.653  0.0770 -0.1698  0.0767
65937W        W 8875  11.444  29.921  26.175 -0.0390  0.2327  0.2548
65938W        W 8876  11.453  32.124  26.610  0.0892 -0.0142 -0.0295
65939W        W 8877  13.438  33.331  28.378  0.1698 -0.2488 -0.0487
65940W        W 8878  13.886  32.664  24.927  0.0304  0.2716 -0.0972
65941W        W 8879  13.256  29.945  26.994 -0.0105 -0.1663  0.1232
65942W        W 8880  13.642  30.196  24.097  0.1099  0.1296 -0.3455
65943W        W 8881  11.812  32.785  25.434 -0.0323 -0.1952  0.0039
65944W        W 8882  12.050  31.711  23.787 -0.1209 -0.1355  0.5414
65945W        W 8883  12.416  29.851  25.961 -0.0869 -0.1756  0.1590
65946W        W 8884  12.467  32.569  26.150 -0.1725 -0.1662 -0.0641
65947W        W 8885  12.415  32.193  23.167  0.2361  0.2527  0.1071
65948W        W 8886  14.713  32.014  27.683 -0.2084 -0.1007 -0.0522
65949W        W 8887  12.219  32.030  26.112 -0.1319  0.1678  0.0120
65950W        W 8888  14.994  29.874  26.148 -0.0336  0.3566 -0.3410
65951W        W 8889  11.490  32.693  26.559 -0.0210  0.3635  0.2314
65952W        W 8890  13.805  29.323  24.341  0.0358 -0.3082 -0.1569
65953W        W 8891  11.489  30.538  25.012 -0.1494  0.4546 -0.1566
65954W        W 8892  12.785  31.003  24.129 -0.1238 -0.0028  0.2397
65955W        W 8893  12.853  31.645  23.238 -0.0751  0.1348 -0.1291
65956W        W 8894  11.423  29.374  26.043 -0.1897 -0.3745  0.1122
65957W        W 8895  12.155  29.625  25.554  0.1379 -0.1768  0.1988
65958W        W 8896  11.573  31.754  25.744  0.0569  0.0301 -0.1751
65959W        W 8897  15.325  31.758  27.110 -0.1406 -0.2560  0.0511
65960W        W 8898  14.081  29.279  24.848 -0.0507  0.1959  0.1867
65961W        W 8899  13.923  32.856  27.108  0.0768  0.2908 -0.1492
65962W        W 8900  12.262  29.971  27.224 -0.0430 -0.0232  0.3586
65963W        W 8901   9.097  29.379  23.849 -0.1026 -0.0297  0.1849
65964W        W 8902  16.163  30.389  28.479 -0.2595 -0.2983  0.1654
65965W        W 8903  12.222  29.462  26.239  0.0325  0.0186  0.0024
65966W        W 8904  11.848  30.926  25.120  0.0617  0.1330 -0.0693
65967W        W 8905  14.916  32.330  26.719 -0.0482  0.2315 -0.1531
65968W        W 8906  12.040  29.960  22.594  0.4362 -0.0213 -0.3699
65969W        W 8907  12.467  31.107  25.187  0.0411  0.0623  0.0323
65970W        W 8908  13.011  29.851  27.393 -0.1676  0.2915  0.0141
65971W        W 8909  13.072  30.748  25.657  0.2603  0.0838  0.2071
65972W        W 8910  12.860  30.031  25.975  0.2075  0.4830  0.0611
65973W        W 8911  11.764  30.531  23.343 -0.4019 -0.0999 -0.0231
65974W        W 8912  13.297  32.352  27.194 -0.3132  0.1189  0.1637
65975W        W 8913  13.917  31.911  26.734  0.1192 -0.2209  0.0127
65976W        W 8914  12.999  31.380  28.308 -0.3132 -0.0475  0.0122
65977W        W 8915  12.086  33.321  28.767  0.1618 -0.1984 -0.1593
65978W        W 8916  13.086  29.645  24.877  0.0576 -0.0001 -0.0542
65979W        W 8917  15.311  32.926  25.536  0.2031 -0.0538 -0.1390
65980W        W 8918  13.659  32.017  27.111  0.1961 -0.1357  0.0965
65981W        W 8919  12.739  32.893  24.671  0.0271 -0.1183  0.2110
65982W        W 8920  10.736  30.522  25.766  0.1191 -0.2787  0.0697
65983W        W 8921  11.971  29.928  24.231  0.0151  0.1907 -0.1304
65984W        W 8922  14.600  29.989  25.503  0.0928 -0.2803 -0.1109
65985W        W 8923  12.770  32.321  27.387 -0.0019  0.1363 -0.1107
65986W        W 8924  10.970  30.338  24.334 -0.2821  0.0418  0.3130
65987W        W 8925  11.691  32.809  27.032  0.1211 -0.0806  0.0332
65988W        W 8926  15.712  30.049  24.219 -0.2130  0.0538 -0.1932
65989W        W 8927  12.827  30.707  23.670  0.0916 -0.1359 -0.2479
65990W        W 8928  12.748  30.593  26.125  0.2496  0.0488 -0.0139
65991W        W 8929  14.303  30.296  26.462  0.0882  0.1205  0.1956
65992W        W 8930  13.342  31.394  23.397 -0.0083 -0.3821 -0.3065
65993W        W 8931  13.252  30.431  28.352 -0.2453  0.0925 -0.1752
65994W        W 8932  12.217  29.101  26.996  0.2617  0.0161  0.0947
65995W        W 8933  14.705  31.630  24.170 -0.1593  0.1985 -0.3349
65996W        W 8934  11.522  29.951  26.701 -0.1721 -0.0300  0.1447
65997W        W 8935  14.535  32.774  26.785  0.2345  0.2064  0.0292
65998W        W 8936  12.086  30.586  26.323 -0.2546 -0.1323  0.2379
65999W        W 8937  14.132  30.319  24.055 -0.3390  0.3542 -0.1628
66000W        W 8938  13.091  29.339  25.729  0.0771 -0.5507 -0.0040
66001W        W 8939  12.388  31.506  25.995 -0.2905  0.2474  0.0039
66002W        W 8940  14.623  31.662  25.502 -0.0663 -0.1438 -0.1574
66003W        W 8941  13.764  30.291  25.105 -0.0701 -0.1996  0.2656
66004W        W 8942  14.610  30.190  24.063 -0.4067 -0.4257 -0.2343
66005W        W 8943  13.215  33.281  26.247 -0.1686 -0.0762 -0.2668
66006W        W 8944  14.116  31.049  23.770  0.3122 -0.1614  0.0552
66007W        W 8945  12.853  31.380  24.598  0.3087  0.2466  0.1103
66008W        W 8946  11.742  30.364  24.524 -0.2013  0.1018  0.0678
66009W        W 8947  14.410  29.665  27.729  0.0027  0.0884 -0.1830
66010W        W 8948  14.201  31.416  24.785  0.2839  0.0907 -0.2342
66011W        W 8949  13.366  31.045  25.296  0.0419  0.0593 -0.1238
66012W        W 8950  14.281  29.636  27.234  0.0381  0.0963  0.1838
66013W        W 8951  14.511  31.036  27.948 -0.0550  0.1611  0.0333
66014W        W 8952  13.538  29.939  27.587  0.2944  0.3935 -0.3359
66015W        W 8953  11.067  28.723  26.077  0.0781 -0.0491  0.0144
66016W        W 8954  15.089  31.956  25.698  0.0412 -0.3969 -0.0086
66017W        W 8955  14.698  30.710  24.099 -0.0321  0.2609 -0.0992
66018W        W 8956  14.929  31.363  25.771  0.2372 -0.0369  0.0035
66019W        W 8957  14.587  30.820  23.572  0.0736  0.1932 -0.3486
66020W        W 8958  13.141  30.057  24.013  0.0077  0.1030 -0.0900
66021W        W 8959  10.834  29.069  25.745 -0.1687 -0.3319  0.1302
66022W        W 8960  14.024  31.692  28.311  0.0573 -0.1658 -0.1592
66023W        W 8961  12.714  29.099  23.695 -0.0073  0.1682  0.2373
66024W        W 8962  13.617  31.178  27.411  0.0293 -0.0083 -0.1362
66025W        W 8963  12.487  31.524  24.906  0.0458 -0.0259 -0.2789
66026W        W 8964  12.753  31.102  25.761  0.5204 -0.0430  0.0130
66027W        W 8965  12.906  31.338  25.302 -0.2461 -0.0482  0.0325
66028W        W 8966  11.400  30.223  25.484  0.1811 -0.2661  0.0084
66029W        W 8967  11.311  32.426  27.399 -0.1770 -0.0441 -0.0803
66030W        W 8968  11.503  30.676  22.821 -0.1030  0.1946 -0.1577
66031W        W 8969  12.716  31.526  24.101  0.4172  0.1753 -0.0550
66032W        W 8970  13.485  31.682  25.860 -0.1365  0.0174 -0.1017
66033W        W 8971  13.149  31.985  28.173  0.1617  0.1689 -0.2438
66034W        W 8972  14.222  29.876  24.851  0.0368  0.1916 -0.2257
66035W        W 8973  13.545  30.391  27.217 -0.3162 -0.1498 -0.0486
66036W        W 8974  11.076  31.143  24.615 -0.4454  0.1378 -0.0586
66037W        W 8975  14.404  29.156  26.132 -0.4147 -0.0236 -0.2180
66038W        W 8976  12.389  31.584  26.552  0.0462  0.0462 -0.1977
66039W        W 8977   9.915  30.706  25.966 -0.0303  0.2677  0.2155
66040W        W 8978  13.189  32.192  25.621  0.0166 -0.1308  0.2351
66041W        W 8979  13.598  30.040  25.452 -0.1777  0.0223 -0.0918
66042W        W 8980  12.922  32.176  26.875  0.1389  0.1474  0.1360
66043W        W 8981  12.217  31.236  25.610 -0.2912  0.0306  0.0692
66044W        W 8982  15.583  30.377  27.048  0.2971  0.0477 -0.2614
66045W        W 8983  13.186  32.093  27.670  0.1077 -0.3150  0.2189
66046W        W 8984  12.186  30.364  25.918 -0.0179  0.2564 -0.0793
66047W        W 8985  12.696  33.990  28.908 -0.1303 -0.1060 -0.0002
66048W        W 8986  13.702  31.321  25.599  0.0985  0.0945  0.0780
66049W        W 8987  13.245  32.523  26.121  0.0410 -0.0160 -0.0595
66050W        W 8988   9.633  29.986  26.110 -0.1221 -0.0957 -0.2175
66051W        W 8989  12.795  30.718  27.607  0.0199 -0.0137  0.1087
66052W        W 8990  12.904  30.829  25.208 -0.2667 -0.0189  0.0666
66053W        W 8991  12.943  29.836  24.468 -0.0917  0.2687 -0.4230
66054W        W 8992  12.855  32.005  23.991  0.1049 -0.2086 -0.2481
66055W        W 8993  11.155  31.391  26.848 -0.1825 -0.0445  0.2187
66056W        W 8994  11.244  30.519  25.842  0.0894 -0.1089 -0.0738
66057W        W 8995  11.191  32.114  25.401  0.1764  0.0038  0.2254
66058W        W 8996  13.830  31.942  25.455 -0.0303  0.2258  0.1627
66059W        W 8997  12.359  30.607  24.252 -0.0698 -0.1819  0.0898
66060W        W 8998  14.151  31.534  27.036 -0.3742  0.1637  0.1913
66061W        W 8999  11.667  30.191  22.333  0.1819  0.3342 -0.0181
66062W        W 9000  10.034  32.003  26.625 -0.3693 -0.0247  0.2544
66063W        W 9001  12.495  31.059  24.617  0.0409 -0.0693 -0.2604
66064W        W 9002  13.486  32.148  23.608 -0.4057 -0.0108 -0.1827
66065W        W 9003  12.448  32.550  24.753  0.1016 -0.0979  0.1907
66066W        W 9004  14.566  33.021  26.264  0.1148  0.3474 -0.1399
66067W        W 9005  13.885  30.739  23.306 -0.1796  0.0962 -0.2651
66068W        W 9006  14.357  30.962  25.114  0.1097 -0.2320  0.2444
66069W        W 9007  14.950  30.352  23.691 -0.1004 -0.0655  0.1202
66070W        W 9008  12.537  33.911  26.903 -0.2108 -0.0275 -0.0129
66071W        W 9009  13.240  33.437  26.995  0.2107  0.3359  0.3300
66072W        W 9010  11.671  30.029  23.378 -0.0621  0.0550 -0.2001
66073W        W 9011  11.908  31.604  26.507  0.3989 -0.2217  0.0699
66074W        W 9012  15.435  29.837  27.072 -0.1560 -0.0397  0.1420
66075W        W 9013  10.329  30.820  26.829 -0.0502  0.0970  0.1574
66076W        W 9014  13.271  31.689  24.184  0.1676 -0.1599  0.1269
66077W        W 9015  11.026  29.762  24.324 -0.1014 -0.1270 -0.1012
66078W        W 9016  11.008  30.309  26.787  0.2875  0.0008 -0.2554
66079W        W 9017  15.132  30.367  25.306 -0.0752 -0.1122 -0.0262
66080W        W 9018  12.615  31.153  22.155 -0.0256  0.1807 -0.1817
66081W        W 9019  15.645  29.635  25.159  0.1648  0.0719  0.2353
66082W        W 9020  13.353  31.810  24.658 -0.0716 -0.0027 -0.1689
66083W        W 9021  12.443  32.236  26.575  0.1082  0.3676 -0.1597
66084W        W 9022  12.922  32.850  26.234 -0.2138 -0.2083  0.0350
66085W        W 9023  11.489  30.834  23.700  0.1403  0.0385 -0.0336
66086W        W 9024  13.767  31.608  24.606  0.2280 -0.1308  0.1385
66087W        W 9025  12.475  30.589  27.162  0.0340  0.1804  0.1447
66088W        W 9026  15.740  30.087  25.404 -0.1807 -0.1689  0.0880
66089W        W 9027  11.787  29.912  25.726 -0.1360 -0.0384 -0.1741
66090W        W 9028  13.194  30.599  24.101 -0.1581 -0.0710 -0.2305
66091W        W 9029  13.451  31.625  27.555 -0.0437  0.0930 -0.0588
66092W        W 9030  11.500  29.570  27.274  0.1449 -0.1534  0.2440
66093W        W 9031  11.598  31.238  24.378 -0.2670  0.0730  0.0165
66094W        W 9032  13.501  30.845  26.462  0.0344 -0.0568  0.0899
66095W        W 9033  11.944  30.591  22.562  0.2105 -0.2492 -0.2807
66096W        W 9034  15.064  32.500  27.688 -0.0952 -0.3502  0.0460
66097W        W 9035  12.840  30.124  24.861  0.0075 -0.0368 -0.1432
66098W        W 9036  13.436  29.878  24.391 -0.0364  0.0794  0.1168
66099W        W 9037  11.030  30.538  25.337  0.3047 -0.1972  0.0976
66100W        W 9038  13.579  31.256  26.089  0.3660 -0.1270  0.0852
66101W        W 9039  14.596  32.621  25.923  0.1167  0.0463 -0.1931
66102W        W 9040  13.076  29.711  23.609 -0.3270 -0.1090  0.0398
66103W        W 9041  13.235  33.368  22.960  0.2110  0.1685 -0.1387
66104W        W 9042  14.965  31.608  26.249 -0.0814  0.2497  0.0361
66105W        W 9043  12.669  33.043  25.139  0.1680 -0.0973  0.0965
66106W        W 9044  13.232  31.245  25.716 -0.0169 -0.2705 -0.1431
66107W        W 9045  14.017  32.310  26.427 -0.0628  0.1791  0.0741
66108W        W 9046  10.997  30.087  25.742 -0.2844 -0.1300 -0.0853
66109W        W 9047  14.148  33.196  26.289  0.2723 -0.1338 -0.5021
66110W        W 9048  13.529  30.843  25.882  0.1062 -0.2831 -0.5224
66111W        W 9049  12.292  30.656  25.531  0.0284  0.1681 -0.1795
66112W        W 9050  12.760  30.397  25.658 -0.3194 -0.4914  0.1950
66113W        W 9051  10.413  30.865  25.910  0.1564  0.0128 -0.0343
66114W        W 9052  13.344  30.455  26.212 -0.0172  0.0189  0.1340
66115W        W 9053  14.899  30.669  27.680  0.0669  0.2051 -0.1007
66116W        W 9054  13.545  32.293  24.616  0.1544 -0.0136  0.2971
66117W        W 9055  15.733  29.654  25.671 -0.2270  0.1299 -0.0256
66118W        W 9056  13.346  32.784  27.544 -0.0200 -0.0009 -0.0073
66119W        W 9057  12.907  33.069  28.002 -0.1815 -0.0085 -0.2271
66120W        W 9058  10.791  30.852  24.978 -0.1787  0.1387 -0.0713
66121W        W 9059  14.126  31.447  25.839 -0.3600 -0.3764  0.1684
66122W        W 9060  11.690  31.301  25.503  0.0198 -0.0610  0.0620
66123W        W 9061  12.605  32.146  25.569 -0.0463  0.0727  0.0484
66124W        W 9062  14.386  31.940  24.823  0.1060  0.0807 -0.0300
66125W        W 9063  14.449  30.156  27.067 -0.2309  0.2175  0.3167
66126W        W 9064  14.600  31.439  25.016  0.3212 -0.0390  0.0783
66127W        W 9065  12.743  29.574  26.264  0.0152  0.1077  0.2245
66128W        W 9066  15.804  29.250  24.838  0.1506  0.1019  0.0237
66129W        W 9067  13.899  29.635  25.220 -0.3303 -0.1803 -0.0033
66130W        W 9068  12.814  31.441  26.783 -0.1006 -0.0381 -0.3645
66131W        W 9069  10.834  30.301  23.468 -0.1448  0.1082 -0.0523
66132W        W 9070  11.322  30.321  23.707 -0.1238 -0.1394 -0.1687
66133W        W 9071  11.457  31.148  26.498 -0.0108 -0.0781 -0.2741
66134W        W 9072  13.653  29.146  26.655 -0.1747 -0.3803  0.0020
66135W        W 9073  10.401  29.395  25.898 -0.0899 -0.1547  0.0026
66136W        W 9074  10.245  30.628  26.343 -0.1697 -0.4529  0.1232
66137W        W 9075  12.738  29.462  25.237  0.2122  0.1351 -0.2709
66138W        W 9076  13.694  31.635  23.648 -0.0815 -0.1214  0.1151
66139W        W 9077  10.273  29.458  26.648 -0.0201  0.1674  0.1165
66140W        W 9078  11.320  29.230  25.539 -0.0891  0.0620  0.0286
66141W        W 9079  15.189  33.119  23.617 -0.1134 -0.1267  0.3469
66142W        W 9080  15.482  32.239  25.563  0.2676 -0.1533  0.1552
66143W        W 9081  11.794  29.607  26.480  0.3024 -0.0581 -0.0286
66144W        W 9082  14.314  33.191  28.438 -0.3356  0.2303  0.2077
66145W        W 9083   9.950  31.257  23.655 -0.1378 -0.3027  0.0663
66146W        W 9084  12.315  32.054  28.773 -0.4845  0.1343  0.0837
66147W        W 9085  12.125  29.399  27.529 -0.1071 -0.2751  0.0315
66148W        W 9086  10.058  28.649  23.687  0.1557  0.1042 -0.2760
66149W        W 9087  12.944  30.833  26.665  0.0500 -0.0859  0.0565
66150W        W 9088  13.451  32.657  25.641 -0.0959 -0.3879  0.2116
66151W        W 9089  13.387  32.108  25.163 -0.3274 -0.1388  0.1071
66152W        W 9090  13.627  32.540  26.843 -0.1064 -0.0910 -0.1601
66153W        W 9091  12.898  31.834  26.498 -0.0481 -0.1715 -0.0916
66154W        W 9092  11.525  28.321  27.314 -0.1382 -0.1037 -0.0280
66155W        W 9093  12.707  31.277  22.639  0.1726 -0.2092  0.2384
66156W        W 9094  13.842  32.556  28.334  0.0231  0.2043  0.0292
66157W        W 9095  13.575  32.367  22.967 -0.3562 -0.1475 -0.3468
66158W        W 9096  14.878  30.683  25.028  0.3357 -0.2153  0.1065
66159W        W 9097  14.032  32.146  24.484 -0.1652 -0.3676  0.0737
66160W        W 9098  12.871  29.828  26.650 -0.0053  0.1363  0.2372
66161W        W 9099  11.963  30.477  27.137 -0.2996  0.0007 -0.5324
66162W        W 9100  14.132  32.414  27.809 -0.1676 -0.0136 -0.0246
66163W        W 9101  12.075  29.532  23.911  0.1597 -0.0910 -0.0365
66164W        W 9102  12.451  29.884  24.272  0.3889  0.0174 -0.0760
66165W        W 9103  13.742  33.207  24.062  0.0576  0.3491 -0.3674
66166W        W 9104  10.913  29.900  26.504  0.0777 -0.2054  0.5024
66167W        W 9105  12.592  30.275  23.961 -0.0985 -0.0867  0.2904
66168W        W 9106  13.493  31.252  27.920 -0.1683  0.0672 -0.2168
66169W        W 9107  13.571  31.684  26.430  0.1517 -0.0440 -0.0347
66170W        W 9108  14.694  32.394  28.017 -0.6507 -0.4523 -0.0047
66171W        W 9109  13.032  29.614  22.246 -0.0753 -0.0514 -0.0602
66172W        W 9110  13.774  31.282  24.087  0.0773 -0.0152 -0.0194
66173W        W 9111  13.773  33.742  27.485 -0.1327  0.4370  0.1853
66174W        W 9112  15.353  32.109  27.478  0.1012  0.1504 -0.0419
66175W        W 9113  13.024  32.631  26.746 -0.1561  0.0337  0.4021
66176W        W 9114  14.151  32.662  26.119  0.0553  0.1090  0.2270
66177W        W 9115  10.880  30.039  23.911  0.1925 -0.1438  0.4151
66178W        W 9116  11.920  30.942  23.493 -0.1288  0.0624  0.0056
66179W        W 9117  12.317  30.860  23.875  0.1368  0.2161  0.0170
66180W        W 9118  12.936  30.292  26.551 -0.1262 -0.1108 -0.1045
66181W        W 9119  11.257  29.535  26.513  0.2314 -0.1841 -0.3924
66182W        W 9120  13.690  29.552  24.753  0.1454  0.0749  0.1468
66183W        W 9121  12.640  33.474  27.791 -0.1757 -0.2730  0.0242
66184W        W 9122  12.490  30.164  26.839  0.0159  0.0149  0.3839
66185W        W 9123  12.015  31.259  30.474 -0.0649  0.2755  0.2037
66186W        W 9124  12.617  31.832  28.105 -0.0998  0.2642 -0.0362
66187W        W 9125  14.254  32.162  25.841  0.2410  0.1238  0.0515
66188W        W 9126  14.531  31.464  28.459  0.0523 -0.1518 -0.2704
66189W        W 9127  10.947  31.232  27.281 -0.1339  0.1577  0.1106
66190W        W 9128  12.847  34.544  28.191  0.0679  0.3120  0.1118
66191W        W 9129  11.306  28.531  30.907 -0.1380 -0.1489  0.0012
66192W        W 9130  12.692  32.003  30.269  0.0351  0.2355 -0.2535
66193W        W 9131  13.904  30.288  29.411 -0.1188  0.2696  0.0282
66194W        W 9132  13.899  31.615  28.773  0.0600  0.0474 -0.1626
66195W        W 9133  12.025  30.271  30.361 -0.0371  0.0448  0.1441
66196W        W 9134  12.629  31.004  29.049  0.1293 -0.0795 -0.0062
66197W        W 9135  13.269  29.682  28.472 -0.2433 -0.2866  0.0370
66198W        W 9136  11.236  28.026  30.547  0.0260  0.0286 -0.1002
66199W        W 9137  13.719  30.592  30.083 -0.2364 -0.2406 -0.4579
66200W        W 9138  11.423  31.404  27.296  0.2095 -0.1345 -0.0169
66201W        W 9139  11.876  29.041  29.700 -0.1634 -0.3286  0.2319
66202W        W 9140  13.175  30.790  27.290  0.0943  0.0347 -0.0953
66203W        W 9141  12.302  33.638  29.040 -0.1760  0.1947 -0.2567
66204W        W 9142  12.069  29.666  28.888  0.3592  0.2590 -0.0968
66205W        W 9143  13.610  30.667  31.025  0.0346  0.0526  0.0078
66206W        W 9144  12.118  32.505  26.856 -0.0858  0.0176 -0.1436
66207W        W 9145  11.012  29.960  27.873 -0.0083  0.1919 -0.0454
66208W        W 9146   9.232  29.874  28.152  0.0732 -0.1005 -0.1322
66209W        W 9147  12.159  31.033  30.041  0.1220  0.1533 -0.1659
66210W        W 9148  12.810  30.653  30.614 -0.3501 -0.2801  0.1230
66211W        W 9149  13.603  29.715  29.822 -0.0952 -0.0249 -0.0537
66212W        W 9150  11.544  32.561  28.943  0.2354 -0.1884 -0.3242
66213W        W 9151  12.891  32.945  29.104 -0.0258 -0.1476  0.1472
66214W        W 9152  15.167  30.723   1.218 -0.1124 -0.2394  0.1429
66215W        W 9153  11.819  32.198  28.722 -0.0556 -0.1052 -0.3243
66216W        W 9154  11.402  31.973  28.470  0.1036 -0.0527  0.0048
66217W        W 9155  10.671  31.659  26.804  0.0765 -0.3179  0.0906
66218W        W 9156  14.545  31.307  29.928  0.2328 -0.2149  0.3838
66219W        W 9157  12.652  33.394  30.472  0.3994 -0.3776  0.0935
66220W        W 9158  11.591  32.065  30.678  0.3228  0.1683  0.0610
66221W        W 9159  11.261  30.454  27.792 -0.1238  0.1986 -0.3955
66222W        W 9160  13.073  33.446  30.796 -0.2256 -0.1200  0.0732
66223W        W 9161  11.460  31.622  29.743  0.0783  0.0488  0.1701
66224W        W 9162  11.676  29.004  30.198 -0.1513 -0.0878  0.0861
66225W        W 9163  12.717  30.795  30.080 -0.0836 -0.1452  0.2136
66226W        W 9164  12.800  32.269  27.890  0.0909  0.2944 -0.2402
66227W        W 9165  12.797  31.800  28.794 -0.1117 -0.1634 -0.0191
66228W        W 9166  12.517  30.751  31.015 -0.0306  0.3733 -0.2509
66229W        W 9167  12.003  29.996  29.934  0.0884 -0.2441 -0.2536
66230W        W 9168  13.952  30.286  31.792  0.1266 -0.2261  0.2396
66231W        W 9169  13.701  32.034  27.692 -0.0759 -0.2071  0.0034
66232W        W 9170  14.930  31.201  27.756 -0.2940 -0.2187 -0.2126
66233W        W 9171  13.149  29.446  26.916 -0.0378  0.2916  0.0657
66234W        W 9172  14.606  30.015  28.660  0.3177  0.0280 -0.0682
66235W        W 9173  12.123  29.556  28.024  0.1308  0.0431 -0.2368
66236W        W 9174  12.835  33.583  29.091  0.1729 -0.0606  0.1358
66237W        W 9175  11.542  30.586  29.098 -0.0791 -0.1957  0.0018
66238W        W 9176  14.496  30.433  30.982 -0.3831 -0.2324  0.1131
66239W        W 9177  13.342  31.756  29.733 -0.2481  0.2691  0.0982
66240W        W 9178  13.254  29.576  30.148  0.1083  0.5133 -0.0032
66241W        W 9179  11.993  30.806  30.875 -0.1929  0.0536  0.2768
66242W        W 9180   9.875  29.348  28.273 -0.0154 -0.0789  0.1722
66243W        W 9181  14.209  33.939  27.154 -0.0363  0.0707  0.1496
66244W        W 9182  15.682  32.666  28.997 -0.1012 -0.1060 -0.1091
66245W        W 9183  12.606  32.056  29.250 -0.3003  0.0816 -0.3683
66246W        W 9184  12.000  29.814  29.471  0.1646 -0.0578 -0.0765
66247W        W 9185  11.554  30.150  29.593  0.0898 -0.1341  0.2053
66248W        W 9186  11.473  29.732  29.817 -0.0416  0.3002 -0.1176
66249W        W 9187  11.074  29.301  26.944 -0.2320 -0.1407 -0.1751
66250W        W 9188  13.648  32.223  29.985 -0.3067  0.2774 -0.3462
66251W        W 9189  11.493  33.213  29.613 -0.0756 -0.2637 -0.3026
66252W        W 9190  14.361  30.165  29.480 -0.1175 -0.1784 -0.0915
66253W        W 9191  13.174  29.814  29.585  0.2215  0.0504  0.0518
66254W        W 9192  12.207  31.985  31.403  0.2391 -0.5166 -0.0644
66255W        W 9193  13.211  31.308  26.527  0.0989 -0.0386  0.1407
66256W        W 9194  13.527  29.533  29.301 -0.4175 -0.0562  0.4151
66257W        W 9195  12.691  28.677  29.991  0.2948 -0.0933  0.3775
66258W        W 9196  14.397  33.023  27.231  0.4325  0.1805 -0.0725
66259W        W 9197  13.299  31.077  29.347  0.3384  0.3107  0.1883
66260W        W 9198  12.867  32.378  30.719  0.3269  0.0009 -0.2837
66261W        W 9199  13.818  30.724  29.080 -0.1033  0.1030 -0.0411
66262W        W 9200  11.973  32.606  29.413  0.2335 -0.1424  0.0820
66263W        W 9201  12.493  29.474  30.801 -0.0332 -0.0385  0.0936
66264W        W 9202  11.659  30.698  29.896  0.1048 -0.0362  0.0475
66265W        W 9203  10.927  32.218  27.625  0.0195 -0.2277 -0.2740
66266W        W 9204   9.554  30.002  27.758 -0.1370  0.0275  0.2361
66267W        W 9205  11.080  31.114  28.133 -0.2360 -0.0812  0.0906
66268W        W 9206  10.119  29.659  29.839 -0.1078  0.0984 -0.1565
66269W        W 9207  11.772  31.328  30.960 -0.2445  0.2845  0.1279
66270W        W 9208  15.356  29.296  28.118 -0.1096  0.2576 -0.3667
66271W        W 9209  11.915  29.502  29.917 -0.2935  0.0928  0.0792
66272W        W 9210  14.730  28.607  27.728  0.0105 -0.0387 -0.2926
66273W        W 9211  11.821  31.774  28.305  0.0495  0.0154 -0.0799
66274W        W 9212  14.188  32.775  28.812  0.0465 -0.1493  0.1360
66275W        W 9213  15.293  29.968  27.537 -0.2290  0.0983  0.0731
66276W        W 9214  14.246  33.018  27.918 -0.0592  0.0284 -0.6339
66277W        W 9215  10.599  29.841  29.887 -0.0396 -0.4663  0.1990
66278W        W 9216  12.387  29.730  28.524 -0.0670 -0.1909 -0.3397
66279W        W 9217   9.761  28.829  28.781 -0.3775  0.3143 -0.1364
66280W        W 9218   9.825  29.207  29.648 -0.0682  0.1543 -0.0890
66281W        W 9219  12.469  30.513  29.253  0.0647  0.3065  0.1305
66282W        W 9220  10.674  29.421  28.410  0.2085  0.0202  0.1926
66283W        W 9221  12.951  30.123  29.257 -0.1085  0.1652  0.0157
66284W        W 9222  12.297  30.918  27.765  0.3301 -0.4768  0.0546
66285W        W 9223  11.505  30.862  28.167 -0.0901  0.0208 -0.2350
66286W        W 9224  14.741  29.053  30.424  0.2001  0.0759 -0.0161
66287W        W 9225  13.051  33.870  27.107 -0.2266  0.3921  0.4475
66288W        W 9226  14.880  32.575  30.898 -0.0762 -0.2233  0.0346
66289W        W 9227  13.172  32.040  30.149  0.0793  0.1408  0.0035
66290W        W 9228  11.604  28.957  29.059 -0.1819 -0.0267  0.0548
66291W        W 9229  12.161  31.018  27.119  0.1741 -0.0394 -0.0646
66292W        W 9230  11.131  34.275  30.333 -0.0562 -0.0513 -0.0046
66293W        W 9231  11.415  32.956  30.072 -0.0084  0.1774  0.0212
66294W        W 9232  11.807  30.341  27.703 -0.1207  0.0207 -0.0295
66295W        W 9233  13.401  32.783  29.405 -0.1081 -0.1620 -0.1868
66296W        W 9234  11.687  31.073  29.028  0.2053  0.1055  0.2105
66297W        W 9235  11.912  31.460  29.728 -0.1758  0.0580  0.0512
66298W        W 9236  14.187  30.933  29.945 -0.1520  0.0753 -0.0043
66299W        W 9237  14.074  30.383  30.839 -0.0839 -0.1140 -0.1189
66300W        W 9238  11.988  30.335  29.545  0.0318  0.0131  0.0031
66301W        W 9239   9.789  30.235  27.347 -0.0299 -0.0180  0.2413
66302W        W 9240  11.651  32.620  28.370 -0.1291  0.2371 -0.4383
66303W        W 9241  11.910  32.005  26.795 -0.0931 -0.1792 -0.0777
66304W        W 9242  10.151  31.650  28.329 -0.1804 -0.0187  0.2870
66305W        W 9243  11.246  33.452  28.664  0.2618  0.2129  0.2705
66306W        W 9244  13.769  29.415  30.184 -0.2394 -0.2731  0.0098
66307W        W 9245  11.177  30.707  30.629 -0.0774 -0.2653 -0.1816
66308W        W 9246  14.272  29.535   0.124  0.0383  0.2133 -0.0399
66309W        W 9247  10.895  30.729  27.599 -0.0932 -0.0635  0.1607
66310W        W 9248  12.130  30.835  29.576  0.1782 -0.0716  0.0234
66311W        W 9249  13.339  29.067  28.514  0.0821  0.0864 -0.1401
66312W        W 9250  14.909  29.513  27.858 -0.0726 -0.3512  0.1823
66313W        W 9251  12.876  31.159  30.697  0.0548  0.2722 -0.2201
66314W        W 9252  13.749  33.568  28.729  0.1335 -0.1159  0.2628
66315W        W 9253  13.295  30.708  28.793 -0.0253  0.1666 -0.1938
66316W        W 9254  13.049  30.979  27.978  0.0646  0.0626 -0.2507
66317W        W 9255  12.164  32.039  30.404 -0.2172 -0.0800  0.1082
66318W        W 9256  13.696  32.953  26.009  0.1831 -0.2980  0.0630
66319W        W 9257  12.303  29.878  30.540  0.2520 -0.1391  0.1971
66320W        W 9258  13.248  30.258  25.767 -0.1468  0.1837  0.0405
66321W        W 9259  15.631  33.099  28.827  0.1479 -0.0597 -0.1295
66322W        W 9260  10.298  30.172  28.345 -0.0783  0.1006 -0.0332
66323W        W 9261  14.149  31.871   0.245 -0.1571 -0.0442 -0.1565
66324W        W 9262  14.121  31.089  28.806  0.3680 -0.0830 -0.2508
66325W        W 9263  13.546  29.079  28.055  0.1923 -0.1658 -0.0946
66326W        W 9264  12.662  30.235  27.496  0.2998 -0.1894  0.0931
66327W        W 9265  11.747  29.828  28.461  0.0878  0.0319  0.1367
66328W        W 9266  11.389  33.187  26.787  0.1866  0.0829  0.0986
66329W        W 9267  13.783  29.330  30.731  0.4291 -0.0600  0.2136
66330W        W 9268  12.813  29.573  29.784  0.1967 -0.1645 -0.0964
66331W        W 9269  13.148  28.852  30.650 -0.4445 -0.3497 -0.0101
66332W        W 9270  14.233  31.744  30.614 -0.3887 -0.0792  0.0991
66333W        W 9271  13.571  31.768  28.112  0.0628 -0.2216 -0.1149
66334W        W 9272  11.528  29.315  29.467 -0.1778  0.0969 -0.1053
66335W        W 9273  12.053  31.125  26.457 -0.2514  0.2185  0.2219
66336W        W 9274  13.177  30.165  28.808  0.2447 -0.1610 -0.0486
66337W        W 9275  11.132  30.630  29.973 -0.2763 -0.2132  0.1222
66338W        W 9276  11.629  32.492  30.026  0.0024  0.1391 -0.2262
66339W        W 9277  13.696  31.220  30.455  0.1489 -0.1764 -0.1128
66340W        W 9278  12.965  30.648  29.165  0.0052 -0.2232  0.1161
66341W        W 9279  13.737  31.633  30.815  0.0175  0.1984 -0.0908
66342W        W 9280  13.595  28.607  27.267  0.1711  0.1993  0.2997
66343W        W 9281  11.971  32.958  28.408  0.1775  0.1600 -0.0059
66344W        W 9282  11.769  30.774  26.798 -0.1404 -0.0251  0.0963
66345W        W 9283  12.987  29.342  30.612 -0.0681 -0.2441  0.0489
66346W        W 9284  12.011  32.221  30.966 -0.1515 -0.0497  0.0560
66347W        W 9285  12.689  32.207  28.437  0.1563 -0.0582  0.1429
66348W        W 9286  12.551  31.128  30.330 -0.4102 -0.1862  0.2140
66349W        W 9287  12.276  32.272  29.671  0.2368 -0.2121 -0.0670
66350W        W 9288  13.962  29.319  27.978 -0.1079  0.3440 -0.1438
66351W        W 9289  11.459  32.680  29.593 -0.1292  0.1266 -0.4026
66352W        W 9290  12.658  31.339  27.833 -0.0097  0.1917 -0.3166
66353W        W 9291  12.411  30.846  28.567  0.0375  0.0968 -0.0313
66354W        W 9292  15.485  28.998  27.469  0.3623 -0.1305 -0.0415
66355W        W 9293  15.012  31.665  27.503 -0.3972  0.2150 -0.0024
66356W        W 9294  11.052  29.873  30.064 -0.4309 -0.1465 -0.1135
66357W        W 9295  12.533  28.767  28.793 -0.2641 -0.3352 -0.2241
66358W        W 9296  12.072  32.068  29.289  0.0145  0.1701  0.0440
66359W        W 9297  13.284  31.409  30.659 -0.1182  0.1027 -0.1046
66360W        W 9298  13.654  31.515  26.890 -0.2069 -0.2284 -0.2146
66361W        W 9299  13.088  31.096  30.259 -0.3235 -0.3307 -0.0042
66362W        W 9300  12.145  30.364  30.879 -0.1254  0.2195  0.4846
66363W        W 9301  10.511  30.071  27.338 -0.0683 -0.0851  0.1747
66364W        W 9302  13.795  30.295  31.264 -0.1588 -0.1894 -0.3335
66365W        W 9303  12.220  30.201  28.600  0.2572  0.1416  0.2004
66366W        W 9304  11.144  31.478  28.510  0.0949  0.1928  0.1664
66367W        W 9305  13.329  32.677  29.963 -0.2991 -0.2847 -0.1854
66368W        W 9306  12.210  31.546  27.870 -0.4246  0.2394 -0.0665
66369W        W 9307  11.379  32.051  27.855  0.1483 -0.1090 -0.2048
66370W        W 9308  11.788  29.819   0.873  0.0758  0.2329  0.3377
66371W        W 9309  13.893  31.948  29.561 -0.1409  0.2483 -0.1826
66372W        W 9310  12.053  30.042  28.084  0.0403  0.0051 -0.2421
66373W        W 9311  12.601  30.123  27.996 -0.2422  0.0595  0.0743
66374W        W 9312  12.679  30.431  28.785  0.1359 -0.2696 -0.1948
66375W        W 9313  12.646  32.499  30.078  0.3893  0.2376 -0.1468
66376W        W 9314  13.100  30.039  30.041  0.2471 -0.0577 -0.1491
66377W        W 9315  10.764  30.727  29.606  0.2035  0.1432 -0.2135
66378W        W 9316  12.384  29.058  29.317 -0.0177 -0.1558  0.0163
66379W        W 9317  14.131  32.495  29.712 -0.0050  0.1163  0.0694
66380W        W 9318  12.631  31.584  30.621  0.0396 -0.0295 -0.1150
66381W        W 9319  13.232  31.818  26.924 -0.1595  0.1031 -0.1827
66382W        W 9320  11.303  31.058  27.643  0.0627 -0.0847 -0.0888
66383W        W 9321  12.357  31.701  29.605  0.1032  0.1491 -0.4163
66384W        W 9322  13.163  30.331  27.669 -0.2951  0.0363 -0.0085
66385W        W 9323  12.163  30.160  29.116  0.2389 -0.0166 -0.2381
66386W        W 9324  12.484  31.877  27.553  0.3224  0.3406 -0.1426
66387W        W 9325  12.866  31.558  30.182 -0.0561 -0.3783  0.1003
66388W        W 9326  13.557  28.607  27.771 -0.1841  0.0761 -0.1775
66389W        W 9327  13.239  32.022  28.811  0.1794  0.0336 -0.0211
66390W        W 9328  13.231  28.918  27.586 -0.1596  0.3500 -0.0400
66391W        W 9329  14.792  29.414   0.229 -0.0276  0.0930  0.2563
66392W        W 9330  12.611  31.317  28.573 -0.1442  0.1043 -0.2130
66393W        W 9331  14.348  29.915  31.003  0.0412  0.4183 -0.1822
66394W        W 9332  13.129  29.316  29.392 -0.0707 -0.1771  0.1894
66395W        W 9333  14.415  32.036  29.683  0.1308 -0.0415 -0.1452
66396W        W 9334  12.340  29.226  28.887  0.3718  0.3486  0.0026
66397W        W 9335  12.322  34.239  31.115 -0.0558 -0.2849  0.1836
66398W        W 9336  11.497  31.156  30.608  0.1026  0.4067  0.3136
66399W        W 9337  13.523  29.673  28.039 -0.3253 -0.1587  0.1093
66400W        W 9338  11.295  29.510  27.731 -0.3155 -0.2346 -0.0328
66401W        W 9339  13.109  31.338  28.878  0.1615  0.2031  0.2028
66402W        W 9340  13.518  30.040  30.269  0.0964 -0.1652  0.1216
66403W        W 9341  13.587  30.718  28.158 -0.0772 -0.0363 -0.1050
66404W        W 9342  13.756  30.002  28.416  0.0072 -0.0662  0.0794
66405W        W 9343  11.650  29.853  29.101 -0.0326  0.1699 -0.0219
66406W        W 9344  13.658  30.252  28.010 -0.2283  0.1627 -0.0520
66407W        W 9345  14.144  30.598  28.072  0.2876 -0.2220 -0.1667
66408W        W 9346  10.566  31.558  27.351  0.3514 -0.1143  0.1686
66409W        W 9347  11.142  28.484  29.796 -0.4173  0.1891 -0.1995
66410W        W 9348  14.567  31.150  28.989 -0.2377 -0.1481 -0.0368
66411W        W 9349  13.649  29.728  28.830  0.3098  0.0061 -0.0566
66412W        W 9350  11.834  29.481  30.408 -0.4115  0.1300  0.2224
66413W        W 9351  13.604  30.425  30.597 -0.3255 -0.1732 -0.0921
66414W        W 9352  11.493  29.366  30.710  0.0849 -0.2107 -0.2204
66415W        W 9353  10.600  29.937  31.965  0.1407  0.0001 -0.1302
66416W        W 9354  13.026  33.564  29.919 -0.0257  0.0285 -0.0282
66417W        W 9355  15.071  29.706  28.282 -0.1057 -0.0973  0.0583
66418W        W 9356  14.368  30.280  31.433  0.2563  0.1781  0.0642
66419W        W 9357  13.383  30.569  29.301 -0.1716 -0.0146 -0.0155
66420W        W 9358  14.655  30.600  28.171  0.2218 -0.0185 -0.1697
66421W        W 9359  11.046  29.060  28.428 -0.0627 -0.2629  0.1902
66422W        W 9360  13.159  30.375  30.896 -0.3329  0.3417  0.2652
66423W        W 9361  12.598  29.409  27.809  0.2778  0.2121 -0.3678
66424W        W 9362  13.374  29.235  28.954  0.1428 -0.0875 -0.0405
66425W        W 9363  12.270  31.698  28.459 -0.3203 -0.0892  0.1314
66426W        W 9364  13.077  31.317  29.795  0.0515  0.2730  0.1676
66427W        W 9365  13.354  31.072  28.450  0.1669 -0.1251 -0.0069
66428W        W 9366  11.735  30.238  28.799 -0.3367  0.1338 -0.0480
66429W        W 9367  11.853  32.914  29.855 -0.2368  0.2361  0.2219
66430W        W 9368  11.078  29.821  26.958  0.0514 -0.0455 -0.0721
66431W        W 9369  12.452  32.969  28.691 -0.1696 -0.3296  0.1805
66432W        W 9370  13.342  31.526  30.201  0.0781  0.1281  0.1485
66433W        W 9371  14.840  30.711  31.824  0.3170 -0.3004 -0.1789
66434W        W 9372  13.263  29.365  27.757 -0.2205 -0.4577 -0.2447
66435W        W 9373  14.623  31.141  30.428 -0.3033  0.0985  0.1861
66436W        W 9374  12.144  31.261  28.779 -0.2390 -0.0262 -0.2902
66437W        W 9375  13.672  27.907  28.914  0.2224 -0.2358 -0.1400
66438W        W 9376  12.406  33.149  29.222  0.1317  0.1475  0.0948
66439W        W 9377   9.911  30.976  30.385 -0.2641  0.1041  0.1058
66440W        W 9378  12.486  31.260  29.710 -0.0561  0.1202 -0.0230
66441W        W 9379  14.389  28.444  28.226  0.1267 -0.1468  0.2784
66442W        W 9380  13.914  29.014  28.651 -0.1290 -0.3025  0.0811
66443W        W 9381  11.697  30.436  30.700 -0.2713 -0.0503 -0.0173
66444W        W 9382  15.252  29.363  30.755 -0.1007  0.1952  0.3109
66445W        W 9383  12.347  32.788  29.709  0.2353  0.2793  0.1923
66446W        W 9384  12.816  31.961  29.744 -0.2880 -0.0525  0.0377
66447W        W 9385  13.331  30.879  30.657  0.0051  0.0597  0.3030
66448W        W 9386  12.943  30.420  29.758 -0.0618  0.0405  0.1329
66449W        W 9387  12.096  31.294  29.332  0.3679 -0.1380  0.1174
66450W        W 9388  11.348  29.351  30.220 -0.0071  0.1481  0.0246
66451W        W 9389  11.731  31.566  31.837  0.0070  0.0934  0.0990
66452W        W 9390  12.072  30.701  29.024 -0.0168  0.3673 -0.2973
66453W        W 9391  11.127  28.309  26.983  0.2412  0.0579 -0.0221
66454W        W 9392  14.160  32.444  26.988  0.2244 -0.0158  0.0845
66455W        W 9393  10.175  30.744  29.994 -0.0702  0.3013 -0.1938
66456W        W 9394  11.203  30.548  29.478  0.0600  0.1699 -0.0056
66457W        W 9395  11.600  31.165  29.538  0.0230  0.2001 -0.2566
66458W        W 9396  13.787  32.437  27.404  0.1850  0.1418  0.1980
66459W        W 9397  13.489  33.750  29.102  0.4407  0.0369 -0.1300
66460W        W 9398  13.016  34.236  28.587  0.1228  0.2702 -0.2163
66461W        W 9399  12.295  30.387  27.782  0.3297 -0.1276  0.0796
66462W        W 9400  10.865  31.512  29.067 -0.2534 -0.0941  0.0797
66463W        W 9401  10.449  32.186  26.805 -0.2353 -0.0847 -0.1933
66464W        W 9402  14.696  33.709  27.191 -0.0490 -0.3850  0.2255
66465W        W 9403  11.726  31.677  29.324  0.0698 -0.2668 -0.2140
66466W        W 9404  14.610  32.092  30.984  0.1039 -0.1164  0.2982
66467W        W 9405  14.920  30.530  26.811 -0.4818 -0.0243  0.1176
66468W        W 9406  13.108  29.706  29.012  0.2296  0.2293 -0.2340
66469W        W 9407  14.283  29.080  28.333 -0.2732  0.0300 -0.0188
66470W        W 9408  13.640  32.482  31.262 -0.0224  0.0028 -0.2081
66471W        W 9409  12.887  30.134  28.441  0.1585 -0.2009  0.0992
66472W        W 9410  14.024  29.954  27.938 -0.0617 -0.2138 -0.2349
66473W        W 9411  12.371  29.618  30.109  0.0159  0.1899  0.1297
66474W        W 9412  15.291  29.994  30.610  0.1760  0.1683  0.0065
66475W        W 9413  11.730  33.405  30.020  0.1709 -0.3557 -0.0221
66476W        W 9414  13.708  32.076  28.512  0.1211  0.3080 -0.6155
66477W        W 9415  11.879  31.331  27.475 -0.1960  0.1509  0.0680
66478W        W 9416  11.535  30.218  30.085  0.0069 -0.0851  0.3115
66479W        W 9417  14.340  29.581  29.591  0.1274  0.1341  0.2565
66480W        W 9418  11.636  31.339  28.479 -0.1247 -0.1941  0.0925
66481W        W 9419  13.205  30.471  30.203  0.1117 -0.0178  0.0508
66482W        W 9420  11.017  31.903  28.193  0.2042  0.1736 -0.1209
66483W        W 9421  13.292  32.778  28.803  0.3521  0.0840 -0.1201
66484W        W 9422  12.521  33.995  29.404 -0.0142  0.1080  0.2815
66485W        W 9423  10.598  29.635  27.034 -0.3517  0.3360  0.1199
66486W        W 9424  14.476  29.778  29.100 -0.2198 -0.0896  0.0185
66487W        W 9425  12.559  30.048  29.876  0.0956 -0.0259  0.1526
66488W        W 9426  13.128  28.630  30.180 -0.1888 -0.0819  0.4166
66489W        W 9427  12.314  31.216  28.218  0.2319 -0.2138 -0.1889
66490W        W 9428  14.059  30.125  28.948 -0.3871  0.2056  0.0465
66491W        W 9429  12.290  30.540  29.919 -0.2776  0.3170 -0.0672
66492W        W 9430   9.824  31.591  29.645  0.2353  0.1840 -0.4547
66493W        W 9431  12.908  30.787  28.513 -0.0889 -0.1229 -0.0005
66494W        W 9432  13.675  31.361  31.822  0.0953 -0.1218 -0.0822
66495W        W 9433  13.641  30.685  27.644  0.0119  0.3224 -0.2400
66496W        W 9434  12.737  32.947  30.685  0.2028  0.2644 -0.0376
66497W        W 9435  11.488  29.399  28.769  0.0347  0.4035  0.1218
66498W        W 9436  14.517  30.162  27.656 -0.0600 -0.1834 -0.0100
66499W        W 9437  13.084  31.245  27.554  0.0483 -0.2661  0.1106
66500W        W 9438  11.111  30.249  30.382 -0.1398 -0.0488  0.1280
66501W        W 9439  13.443  33.329  29.378  0.0106 -0.0064  0.2113
66502W        W 9440   8.816  29.006  28.100  0.0571 -0.0772  0.0356
66503W        W 9441  14.626  32.491  28.930 -0.3069  0.0510 -0.2460
66504W        W 9442  13.468  30.043  29.265  0.1246  0.1688 -0.1386
66505W        W 9443  12.734  33.413  27.015  0.1635 -0.1980  0.2549
66506W        W 9444  12.143  32.424  28.423 -0.1921  0.0337  0.0809
66507W        W 9445  14.171  32.190  28.782  0.3844 -0.1404  0.0700
66508W        W 9446  10.743  30.356  29.246  0.2962  0.1215  0.0105
66509W        W 9447  13.518  31.058  30.018 -0.3949 -0.0974 -0.0238
66510W        W 9448  13.969  29.804  29.340 -0.1210 -0.1632 -0.2617
66511W        W 9449  13.919  29.365  27.036  0.0579 -0.0373 -0.2265
66512W        W 9450  10.767  29.973  28.355  0.1721 -0.2088  0.0523
66513W        W 9451  10.779  32.316  28.080  0.0663 -0.1206  0.0114
66514W        W 9452  14.813  29.771  29.499 -0.1506 -0.1941 -0.0276
66515W        W 9453  13.782  29.617  31.124 -0.2596 -0.2074 -0.3463
66516W        W 9454  13.045  32.400  29.181  0.1761  0.2513 -0.3068
66517W        W 9455  13.942  28.861  30.677 -0.2976 -0.0728  0.3245
66518W        W 9456  13.061  33.816  29.442 -0.1425  0.0988 -0.0565
66519W        W 9457  11.639  31.188  30.076 -0.0113 -0.2124 -0.0556
66520W        W 9458  10.718  30.605  27.134 -0.3091  0.1921  0.6191
66521W        W 9459  12.020  29.552  31.008  0.1630  0.2686  0.2027
66522W        W 9460  13.492  32.313  28.063 -0.0137 -0.1198 -0.0697
66523W        W 9461  11.835  31.193  27.967  0.1360 -0.0025 -0.0055
66524W        W 9462  14.385  33.744  29.534 -0.1001  0.2250  0.0166
66525W        W 9463  14.173  29.600  28.553  0.3979  0.2130 -0.1042
66526W        W 9464  14.825  30.550  31.340 -0.1397  0.5408 -0.0687
66527W        W 9465  11.798  28.650  28.289 -0.1557 -0.0217 -0.1106
66528W        W 9466  15.283  28.706  28.999 -0.1703 -0.1946 -0.3231
66529W        W 9467  14.851  28.804  28.798  0.1748  0.1162 -0.1547
66530W        W 9468  12.748  30.857  29.570  0.1508 -0.1365 -0.0820
66531W        W 9469  11.285  30.107  28.248  0.0558 -0.3730  0.0104
66532W        W 9470  10.753  30.702  26.526 -0.1448 -0.2240  0.1750
66533W        W 9471  11.820  32.964  29.083  0.1119  0.1395  0.1852
66534W        W 9472  12.659  30.216  30.868 -0.2041 -0.2631 -0.2684
66535W        W 9473  12.092  29.028  28.080  0.1957 -0.1744  0.0273
66536W        W 9474   9.777  31.025  28.644  0.1695 -0.3466 -0.0847
66537W        W 9475  12.135  30.611  28.200 -0.0771 -0.1194 -0.0631
66538W        W 9476  14.587  32.230  28.501  0.1468  0.0377  0.0157
66539W        W 9477  10.681  28.262  29.646  0.0271 -0.1502  0.0023
66540W        W 9478  11.258  30.139  29.152 -0.0036 -0.3957  0.1627
66541W        W 9479  15.015  31.612  28.697  0.1637 -0.2922  0.0870
66542W        W 9480  13.456  34.099  28.683 -0.2400  0.1613 -0.1043
66543W        W 9481  11.634  29.778  27.994  0.1068 -0.0019 -0.1115
66544W        W 9482  14.848  32.345  31.798 -0.0811  0.1480  0.1759
66545W        W 9483   9.854  31.573  27.409 -0.3983  0.2116 -0.0392
66546W        W 9484  12.330  29.916  31.087 -0.1819  0.0906  0.0303
66547W        W 9485  12.649  30.309  30.305  0.0649  0.1899 -0.2739
66548W        W 9486  11.274  29.889  28.727 -0.1557 -0.2597 -0.3279
66549W        W 9487  12.716  29.908  28.817 -0.1119  0.2879  0.1256
66550W        W 9488  14.306  33.681  27.590 -0.2923  0.2120 -0.2598
66551W        W 9489  13.992  34.094  28.786  0.1959 -0.3223  0.0690
66552W        W 9490  11.874  32.013  29.781 -0.2172 -0.2153 -0.2667
66553W        W 9491  12.293  32.972  30.494 -0.0281  0.2324  0.1459
66554W        W 9492  10.629  28.954  29.073 -0.1213 -0.0956  0.0533
66555W        W 9493  14.405  31.679  28.919 -0.1251 -0.0608 -0.2358
66556W        W 9494  11.649  31.620  30.273 -0.0184  0.1818 -0.1113
66557W        W 9495  14.045  30.996  27.828 -0.3407  0.1918 -0.0006
66558W        W 9496  12.969  29.752  30.911  0.2444  0.2384 -0.1854
66559W        W 9497  14.348  30.608  27.457  0.1389 -0.0374  0.3347
66560W        W 9498  11.750  28.568  31.181 -0.0248  0.3063  0.1995
66561W        W 9499  10.667  31.082  29.980  0.0900 -0.1321  0.1357
66562W        W 9500  14.127  30.396  29.912  0.2172 -0.0948  0.1404
66563W        W 9501  11.098  28.838  28.908 -0.0330 -0.2123  0.2507
66564W        W 9502  12.999  30.320  27.098 -0.1727 -0.1039 -0.1225
66565W        W 9503  13.684  32.496  28.944 -0.0798  0.1888  0.1336
66566W        W 9504   9.994  29.938  28.877 -0.0840 -0.0808  0.2442
66567W        W 9505  12.610  30.646  28.102 -0.2032  0.0008  0.3650
66568W        W 9506  13.079  30.072  30.527  0.0656 -0.0633  0.4870
66569W        W 9507  12.832  31.370  29.321 -0.3888 -0.1671 -0.1165
66570W        W 9508  12.279  30.388  31.339  0.1881  0.1197  0.1794
66571W        W 9509  12.361  31.479  27.314 -0.1913 -0.2524 -0.1071
66572W        W 9510  14.898  32.101  27.223 -0.2654 -0.1239  0.0246
66573W        W 9511  13.671  32.408  29.514 -0.0444  0.0510 -0.2713
66574W        W 9512  13.648  31.680  31.302  0.1146 -0.0739  0.2338
66575W        W 9513  12.835  33.258  29.510 -0.0321  0.3682 -0.1190
66576W        W 9514  13.926  30.689  28.548  0.3368  0.0181 -0.1624
66577W        W 9515  11.328  30.550  28.487  0.0791 -0.1546  0.0840
66578W        W 9516  11.938  31.949  27.743  0.0599 -0.2295 -0.1810
66579W        W 9517  11.972  31.832  27.231 -0.1484  0.0148  0.2849
66580W        W 9518  13.712  28.826  29.900 -0.1898  0.0456  0.1460
66581W        W 9519  12.606  28.906  27.886 -0.2542 -0.0503  0.0707
66582W        W 9520  13.246  28.310  27.501  0.0961  0.1534 -0.0539
66583W        W 9521  11.362  33.889  30.143 -0.1512 -0.0199 -0.1550
66584W        W 9522  12.329  30.744  30.507 -0.0945  0.2207  0.2219
66585W        W 9523  14.519  29.465  31.181  0.0954 -0.1717 -0.2411
66586W        W 9524  13.181  31.567  31.922  0.2362  0.1667  0.1006
66587W        W 9525  12.570  30.496   0.261  0.1686 -0.0158  0.1932
66588W        W 9526  12.253  30.183  31.969 -0.1574  0.0303 -0.0054
66589W        W 9527  11.826  33.094  30.388  0.1716 -0.0699  0.1202
66590W        W 9528  12.541  32.032  30.769 -0.0156  0.1061 -0.2859
66591W        W 9529  12.550  30.076  31.613  0.0244  0.1343  0.2431
66592W        W 9530  13.374  29.206  29.830  0.3517 -0.2844  0.0496
66593W        W 9531  12.932  28.715   0.037 -0.2322 -0.0302  0.1842
66594W        W 9532  13.663  34.629  31.607 -0.1700 -0.2470  0.1176
66595W        W 9533  12.100  31.729  30.756  0.0190 -0.1762  0.1323
66596W        W 9534  11.896  29.148  31.315 -0.1172  0.0726  0.1779
66597W        W 9535  11.666  30.462  31.230  0.0043 -0.0291 -0.0792
66598W        W 9536  11.938  30.524  31.657  0.2258  0.3172  0.0913
66599W        W 9537  15.186  31.978  31.014 -0.1154  0.2253  0.2828
66600W        W 9538  11.475  31.351  31.360  0.0466  0.0671  0.4470
66601W        W 9539  11.360  30.362  31.895  0.2173  0.0932 -0.0060
66602W        W 9540  12.578  31.713  31.195  0.2208  0.0258  0.1123
66603W        W 9541  11.112  30.188  30.886  0.0806 -0.1933  0.1061
66604W        W 9542  13.204  31.175  31.530  0.2162  0.0196  0.2374
66605W        W 9543  13.178  29.034  31.425 -0.4054  0.0503 -0.3216
66606W        W 9544  11.736  30.938  31.383  0.0790 -0.2152 -0.1418
66607W        W 9545  15.940  28.437   0.148  0.1987 -0.2917  0.0662
66608W        W 9546  14.879  28.952  30.907 -0.3785 -0.0295  0.0718
66609W        W 9547  12.333  28.435  31.228 -0.4219  0.2401 -0.1697
66610W        W 9548  13.318  31.403   0.413  0.3051 -0.0199  0.4327
66611W        W 9549  12.764  29.681  30.326  0.1888  0.1414 -0.0983
66612W        W 9550  11.128  32.420  29.977 -0.2250 -0.1193  0.0224
66613W        W 9551  11.395  29.900  30.518 -0.0305 -0.1859 -0.0490
66614W        W 9552  12.042  31.207  31.744 -0.3286 -0.0539  0.4938
66615W        W 9553  11.968  29.679   0.045 -0.1769 -0.2099 -0.4179
66616W        W 9554   9.737  31.346  31.760 -0.1221  0.1723 -0.1298
66617W        W 9555  13.505  32.072  31.002 -0.0724  0.0844  0.2621
66618W        W 9556  13.988  28.407  31.830 -0.2654 -0.0465 -0.0032
66619W        W 9557   9.668  29.711  31.324 -0.0356 -0.0696  0.0521
66620W        W 9558  12.655  31.534   0.131 -0.1713  0.1621  0.0159
66621W        W 9559  10.938  31.108  31.304  0.0609 -0.1449 -0.0169
66622W        W 9560  11.353  30.886  31.059  0.1579 -0.3413 -0.2673
66623W        W 9561  14.113  31.625  31.716  0.2811  0.2471  0.1005
66624W        W 9562  12.848  31.178  31.863 -0.0541 -0.2707 -0.3273
66625W        W 9563  14.453  28.571   0.003  0.0165  0.0792 -0.2555
66626W        W 9564  12.215  31.069   1.341  0.1289  0.1637  0.3583
66627W        W 9565  11.561  29.555  31.422  0.0293  0.1770 -0.2078
66628W        W 9566  13.128  32.499  31.326  0.2323 -0.2683  0.1459
66629W        W 9567  10.754  29.848   1.157 -0.1364 -0.1496  0.1408
66630W        W 9568  12.846  31.571   0.703 -0.3410  0.2510  0.2996
66631W        W 9569  13.816  29.243   0.024  0.2151  0.0837 -0.0696
66632W        W 9570  11.106  31.033  30.270  0.1091 -0.1004 -0.0822
66633W        W 9571  13.157  33.267  30.348  0.0707  0.2440  0.0926
66634W        W 9572  10.916  30.098  29.626  0.2989  0.0920 -0.0907
66635W        W 9573  13.352  33.998  30.045  0.4066 -0.1921  0.1618
66636W        W 9574  13.688  28.398  30.907 -0.1118  0.1119 -0.0331
66637W        W 9575  13.347  31.028   0.001 -0.3118  0.0144  0.0303
66638W        W 9576  14.583  31.584  30.955  0.0033 -0.1312  0.2353
66639W        W 9577  12.142  30.786   0.044 -0.3205 -0.0613  0.0900
66640W        W 9578  13.450  30.948   0.490 -0.1876  0.2111 -0.2087
66641W        W 9579  12.386  31.188  30.840 -0.1363 -0.1314 -0.1303
66642W        W 9580  12.370  32.482  30.583  0.0652 -0.2779 -0.1907
66643W        W 9581  10.693  30.303  30.645 -0.0557 -0.1872  0.0652
66644W        W 9582  12.128  29.671  31.520 -0.1158  0.0237  0.0830
66645W        W 9583   9.120  29.637  31.689  0.2879 -0.1302 -0.0992
66646W        W 9584  11.864  30.772  30.353  0.2593  0.0525 -0.0345
66647W        W 9585  11.063  30.773   0.643 -0.2714  0.2178 -0.1496
66648W        W 9586  12.712  29.624  31.347  0.2248 -0.2337  0.2459
66649W        W 9587  12.208   0.008  30.703 -0.0478  0.2055  0.0111
66650W        W 9588  14.126  30.772  31.197 -0.2805  0.5128 -0.1308
66651W        W 9589  13.933  30.858  30.713 -0.2425  0.1182 -0.1649
66652W        W 9590  11.626   0.863  17.082  0.1329 -0.0684 -0.0611
66653W        W 9591  13.449  32.474  16.843 -0.3719 -0.0312 -0.0193
66654W        W 9592  14.559  34.018  16.463  0.0035 -0.0644  0.1674
66655W        W 9593  10.114  33.465  16.565 -0.1909 -0.1584  0.0807
66656W        W 9594  11.136  33.972  17.253 -0.1021 -0.0229  0.1051
66657W        W 9595  13.984  33.782  15.763 -0.2925 -0.0087 -0.1276
66658W        W 9596  12.177  33.232  17.660  0.0119  0.0507 -0.0365
66659W        W 9597  11.272  32.428  16.683 -0.0120  0.0811  0.5511
66660W        W 9598   9.912  32.189  18.551 -0.1711  0.4112 -0.3329
66661W        W 9599  12.323  34.128  18.678 -0.0651 -0.2970 -0.2616
66662W        W 9600  11.315   0.448  16.055  0.0883 -0.1030 -0.1186
66663W        W 9601  12.181  33.344  16.313  0.2780  0.0167  0.1189
66664W        W 9602  12.353   0.366  17.020 -0.2908 -0.0190 -0.2348
66665W        W 9603  13.833  33.622  18.425 -0.0648 -0.1228 -0.2285
66666W        W 9604  12.087  32.659  20.439 -0.0085 -0.2999 -0.0800
66667W        W 9605  10.656  34.245  16.737  0.1346 -0.0444 -0.3915
66668W        W 9606  11.016  33.337  15.795  0.3141 -0.4058 -0.0220
66669W        W 9607  12.295  34.233  17.433 -0.0711 -0.2026  0.1480
66670W        W 9608  14.638  32.974  17.467 -0.1145  0.3315  0.0768
66671W        W 9609  12.875   0.701  18.840  0.0948  0.0747  0.2682
66672W        W 9610  14.461  32.735  18.184 -0.1336  0.0372 -0.3384
66673W        W 9611  12.758  33.758  18.512 -0.4666 -0.0143  0.2772
66674W        W 9612  13.077   0.047  16.336  0.4916  0.0795 -0.1103
66675W        W 9613  14.185  32.537  17.792 -0.2497 -0.2338  0.1343
66676W        W 9614  13.544   0.184  16.238 -0.2038 -0.2652 -0.2575
66677W        W 9615  12.272   1.035  16.390  0.3182  0.1847  0.2197
66678W        W 9616  14.583  33.027  16.515 -0.6370  0.0585  0.2109
66679W        W 9617  10.528  33.885  17.250 -0.0779  0.1337  0.0866
66680W        W 9618  11.017  33.572  16.840 -0.2038 -0.0586  0.1006
66681W        W 9619  12.371  32.863  16.407 -0.4540 -0.1073 -0.3450
66682W        W 9620  11.026  34.109  18.790  0.1879 -0.1157 -0.1496
66683W        W 9621  11.365   0.494  16.897 -0.0082 -0.0174  0.2825
66684W        W 9622  11.854  34.541  15.685 -0.0095 -0.0571 -0.1512
66685W        W 9623   9.256  33.323  17.022  0.3353  0.1020  0.2893
66686W        W 9624  10.253  34.631  17.969  0.1378  0.0200  0.1966
66687W        W 9625  10.809  32.929  16.010 -0.1161 -0.1224  0.2119
66688W        W 9626  13.382  33.462  17.120  0.0467 -0.0444  0.1235
66689W        W 9627  13.577  33.458  16.701 -0.2722 -0.0142  0.0893
66690W        W 9628  12.986  32.561  17.012  0.2180 -0.0370 -0.2141
66691W        W 9629  14.106  34.194  16.249  0.0913  0.0058  0.0866
66692W        W 9630  13.164  33.061  19.135 -0.2979 -0.0280  0.2914
66693W        W 9631   9.499   0.012  17.048  0.0060 -0.1678 -0.1800
66694W        W 9632  14.783  33.260  16.904 -0.3408  0.2442 -0.0795
66695W        W 9633   9.763  33.428  18.890 -0.1173 -0.0059 -0.0984
66696W        W 9634  14.758  32.542  17.775  0.0685 -0.1321  0.1492
66697W        W 9635  14.046   0.492  16.268 -0.2122 -0.0241  0.0040
66698W        W 9636   9.356  34.610  16.467 -0.0773  0.0089 -0.1578
66699W        W 9637  11.049  34.223  15.668  0.1085 -0.1008  0.3909
66700W        W 9638  11.000  32.495  19.629 -0.1712  0.2527 -0.0442
66701W        W 9639  10.507  34.248  17.643  0.3343  0.1143  0.1349
66702W        W 9640  13.684  33.845  18.852  0.0009  0.2161 -0.1101
66703W        W 9641  11.118  32.551  15.907  0.3543 -0.0319  0.4574
66704W        W 9642  13.536  34.460  16.458 -0.1960  0.2122 -0.1990
66705W        W 9643  12.162  33.945  16.247  0.0595  0.1520 -0.0628
66706W        W 9644  12.794  32.414  19.772 -0.0752  0.2613 -0.2009
66707W        W 9645  11.781  33.813  17.513  0.1217  0.0676  0.0665
66708W        W 9646  10.931  33.542  16.238  0.2183 -0.0761  0.0921
66709W        W 9647  12.283  34.342  16.614 -0.0716  0.2453 -0.1267
66710W        W 9648  12.126  31.113  19.233 -0.2163  0.2004  0.4235
66711W        W 9649  12.296  34.232  15.828  0.1043 -0.0038  0.0310
66712W        W 9650  10.840  32.126  16.012 -0.1959 -0.0095  0.3039
66713W        W 9651   9.817  34.407  16.254  0.0298  0.1059  0.0661
66714W        W 9652  13.863  33.697  17.641  0.0759  0.2040  0.1167
66715W        W 9653   9.724   0.315  19.067  0.0187 -0.0583  0.4019
66716W        W 9654  12.932  33.218  18.312  0.2928  0.0733 -0.0403
66717W        W 9655   9.584  34.318  16.758 -0.0926  0.1169 -0.0373
66718W        W 9656  11.186  31.899  16.466 -0.2388 -0.4261 -0.0594
66719W        W 9657  12.986  33.547  16.168 -0.1156 -0.0248 -0.2329
66720W        W 9658  13.260  33.174  15.860 -0.4919  0.1648  0.2110
66721W        W 9659  14.100  33.338  16.639  0.0167 -0.1702  0.1379
66722W        W 9660  13.741  32.448  16.434  0.1555 -0.0721 -0.3735
66723W        W 9661  13.154  31.691  17.268 -0.1750  0.4368 -0.0157
66724W        W 9662  12.463   0.767  15.522 -0.2484  0.4140  0.1495
66725W        W 9663  11.260  33.499  17.305 -0.1178 -0.0072  0.4247
66726W        W 9664  11.933  33.541  17.951  0.1053 -0.0650  0.0060
66727W        W 9665  13.761  33.149  17.048  0.1339  0.3064  0.1123
66728W        W 9666  12.074  32.107  19.663 -0.1206  0.0557 -0.3275
66729W        W 9667  13.382   0.866  19.320 -0.0871 -0.1375  0.1197
66730W        W 9668  14.068   0.024  16.449 -0.0928  0.4360 -0.3411
66731W        W 9669  12.736  34.574  16.936  0.1258 -0.2360  0.1121
66732W        W 9670  11.378  34.498  15.450  0.1173  0.0176  0.2274
66733W        W 9671  11.530  33.845  16.957 -0.1058  0.0782  0.0384
66734W        W 9672  13.711  32.447  19.653  0.2322  0.2104 -0.3199
66735W        W 9673  12.623  33.398  16.504 -0.1876 -0.0864  0.1708
66736W        W 9674  11.022  32.557  18.397  0.0216  0.1360 -0.1556
66737W        W 9675  14.205  33.050  17.789  0.2877  0.1552  0.0776
66738W        W 9676  11.762   0.176  16.035 -0.0826  0.2069 -0.3637
66739W        W 9677  10.454  32.609  16.225  0.1092  0.1933 -0.2184
66740W        W 9678  13.639  32.854  17.835 -0.0562 -0.1918  0.0695
66741W        W 9679  11.423   0.158  16.428 -0.0185 -0.0788 -0.2371
66742W        W 9680  12.955  33.784  17.053 -0.2154 -0.2000  0.0527
66743W        W 9681  13.258  33.758  19.856 -0.0341 -0.2405 -0.1251
66744W        W 9682  13.782  33.952  16.644  0.2290 -0.0519  0.2009
66745W        W 9683  12.416   1.927  19.127 -0.1678  0.3034  0.0417
66746W        W 9684  10.197  33.902  16.289 -0.2889  0.0854  0.1621
66747W        W 9685  13.842  33.338  18.005  0.0581  0.4221 -0.1124
66748W        W 9686  12.793  34.248  17.335  0.3692  0.0815 -0.0333
66749W        W 9687  12.061   0.890  15.731 -0.0398  0.1297 -0.1169
66750W        W 9688  13.239  33.201  17.910 -0.1226 -0.2752 -0.0334
66751W        W 9689  11.038   0.035  16.844 -0.0722  0.1530 -0.1066
66752W        W 9690  11.970   0.313  16.535 -0.2998 -0.1190 -0.1550
66753W        W 9691  12.486  34.139  16.999 -0.1163 -0.1620  0.4162
66754W        W 9692  13.833  34.132  17.315 -0.0537  0.2218  0.2607
66755W        W 9693  12.452  33.228  18.542 -0.2702  0.0141  0.1839
66756W        W 9694  13.384  33.294  19.553  0.0033 -0.1666  0.1257
66757W        W 9695  11.951  34.096  16.874  0.2272  0.2052 -0.0479
66758W        W 9696  14.517  33.527  16.423 -0.1985 -0.1585  0.0834
66759W        W 9697  11.705  33.633  16.198  0.3355  0.1235 -0.2110
66760W        W 9698  15.084  31.738  17.520 -0.2126  0.0799  0.1814
66761W        W 9699  14.312  33.761  16.825  0.0282  0.0856 -0.3667
66762W        W 9700  13.153  32.549  18.993 -0.2810 -0.0446  0.0926
66763W        W 9701   9.893  34.460  18.360  0.0100  0.0813 -0.0765
66764W        W 9702  11.433  33.321  18.063 -0.0245  0.0022  0.0438
66765W        W 9703  11.537  34.368  18.930 -0.1097  0.3138  0.0375
66766W        W 9704  13.398  34.147  16.894  0.0419  0.1053  0.0273
66767W        W 9705  12.640  33.784  17.396 -0.1812 -0.1629 -0.0104
66768W        W 9706  11.596  34.120  16.482  0.1779  0.2160  0.2160
66769W        W 9707  11.744  34.458  17.268 -0.0114  0.2978  0.3409
66770W        W 9708  12.184   1.559  17.558  0.0562 -0.1792  0.1990
66771W        W 9709  12.964  34.683  17.594 -0.1032  0.0450  0.0285
66772W        W 9710  12.739  33.276  17.373  0.1565  0.0410  0.3135
66773W        W 9711  12.195  32.161  16.732 -0.0559 -0.2432  0.1518
66774W        W 9712  12.108  33.475  17.183 -0.0893 -0.0247 -0.3776
66775W        W 9713  11.883  34.321  18.500 -0.2681  0.0021  0.2606
66776W        W 9714  11.583  33.798  18.329  0.0262  0.3277 -0.3139
66777W        W 9715  10.518  34.587  18.381  0.1100 -0.3129 -0.0554
66778W        W 9716  13.591  34.014  16.166 -0.1881 -0.1432 -0.1127
66779W        W 9717  12.821  33.236  19.544  0.0427  0.1338  0.0833
66780W        W 9718  14.018   0.462  17.198  0.4168 -0.0167  0.0657
66781W        W 9719  12.737   0.255  15.813  0.0670 -0.3040  0.1276
66782W        W 9720  11.347  32.959  17.360 -0.1124 -0.2684  0.4448
66783W        W 9721  13.240  34.652  19.017 -0.4634 -0.0964 -0.0352
66784W        W 9722  10.338  34.379  17.145 -0.0270 -0.1786  0.1289
66785W        W 9723  13.299  32.194  18.576 -0.1744 -0.1746  0.0473
66786W        W 9724  12.881   0.474  17.756 -0.2703  0.1189 -0.1319
66787W        W 9725   9.145  33.644  17.680 -0.1575 -0.0920  0.0278
66788W        W 9726  12.289   0.049  16.064 -0.1278  0.3951  0.0710
66789W        W 9727  12.748   1.015  16.284  0.3292 -0.2505 -0.1791
66790W        W 9728  14.128  32.230  15.672 -0.0054 -0.0798 -0.1064
66791W        W 9729  13.470  33.087  18.412 -0.4226 -0.0186 -0.2922
66792W        W 9730  13.260  32.492  17.703 -0.0260 -0.2094 -0.1082
66793W        W 9731  13.942  32.520  16.937 -0.0781  0.0025 -0.0688
66794W        W 9732  13.903  33.645  17.067 -0.0353  0.3233  0.1735
66795W        W 9733  12.793  32.923  17.789 -0.0557 -0.2411 -0.1478
66796W        W 9734  14.302  33.044  19.312 -0.0081 -0.0637  0.0403
66797W        W 9735  11.650   0.401  18.303 -0.0481 -0.0743  0.2101
66798W        W 9736   9.563  32.678  17.184 -0.0679 -0.1806  0.0343
66799W        W 9737  11.145  33.921  16.572 -0.0659  0.0146  0.4081
66800W        W 9738  10.238  33.481  17.293 -0.2366 -0.1144  0.1939
66801W        W 9739  13.174  33.788  16.585  0.0559 -0.1616 -0.0457
66802W        W 9740  14.697  33.907  17.699 -0.1308 -0.1406  0.1942
66803W        W 9741  13.625  33.420  16.112 -0.1092  0.4635  0.2253
66804W        W 9742  11.194  34.401  16.377 -0.1998  0.3193 -0.5824
66805W        W 9743  11.839  32.566  16.605 -0.0153  0.0589 -0.0940
66806W        W 9744  11.061  33.167  17.712  0.2430  0.0877  0.3047
66807W        W 9745  14.545  32.143  17.916 -0.2384  0.2062  0.1122
66808W        W 9746  10.332  34.581  16.219 -0.0998  0.1325  0.1295
66809W        W 9747  11.470  34.224  17.597 -0.0282  0.2720 -0.3388
66810W        W 9748  15.241  33.108  18.501 -0.1976 -0.1215  0.1748
66811W        W 9749  12.415  31.107  17.728  0.1765  0.2947 -0.1126
66812W        W 9750   9.853  33.363  17.601  0.0908 -0.0488  0.0277
66813W        W 9751  14.754  34.493  17.704 -0.0950  0.0394 -0.0751
66814W        W 9752  11.714  34.538  16.676 -0.0073  0.0572  0.0055
66815W        W 9753  11.941  32.926  17.356  0.0173  0.2546 -0.0808
66816W        W 9754  11.357  34.342  16.939 -0.3302  0.1355 -0.0082
66817W        W 9755  12.701  33.914  16.572  0.0855  0.1838 -0.0714
66818W        W 9756  11.735  34.131  19.309 -0.1520 -0.2313  0.1344
66819W        W 9757  12.276  33.723  16.683 -0.0475 -0.0561 -0.1902
66820W        W 9758  12.894   1.003  19.332 -0.1217 -0.0334 -0.0955
66821W        W 9759  13.234   0.877  16.254 -0.0015  0.1133  0.2441
66822W        W 9760  12.544   0.121  16.554 -0.2246 -0.0379  0.2705
66823W        W 9761  14.751  33.491  17.333 -0.0826  0.4171  0.1053
66824W        W 9762   9.983  34.697  16.947 -0.0033 -0.3129 -0.3039
66825W        W 9763  12.192   0.397  18.399  0.1069 -0.1832 -0.0983
66826W        W 9764  10.900  32.140  16.970 -0.1599 -0.1530  0.1215
66827W        W 9765  13.040  34.036  17.817  0.0265  0.0891  0.2967
66828W        W 9766  14.873   1.408  16.018 -0.0615  0.4210 -0.1909
66829W        W 9767  10.830  34.452  17.270 -0.1022  0.0939 -0.2008
66830W        W 9768  13.156  32.968  17.437 -0.3683  0.0948  0.1435
66831W        W 9769  13.033   1.313  17.093  0.0287 -0.1213 -0.0708
66832W        W 9770  15.647  33.012  17.536  0.1021  0.1388  0.1766
66833W        W 9771  14.458  32.521  17.274  0.1029 -0.1550  0.2879
66834W        W 9772  13.460  33.434  18.957 -0.4685 -0.1154 -0.2207
66835W        W 9773  14.111  32.893  17.354 -0.1578  0.0454 -0.1349
66836W        W 9774  11.647  31.990  17.739 -0.0868  0.1703  0.2486
66837W        W 9775  15.223  33.853  16.498  0.1154 -0.1070  0.1418
66838W        W 9776  13.213  33.185  16.366  0.2197  0.3225  0.0886
66839W        W 9777  12.404   0.045  19.554 -0.2106 -0.0503 -0.0316
66840W        W 9778  10.509  33.408  15.890  0.0894  0.2304  0.0910
66841W        W 9779  12.567  31.995  19.886  0.1183  0.1122 -0.1752
66842W        W 9780  12.181  33.793  18.334 -0.0845  0.2073  0.1435
66843W        W 9781  10.346   0.350  17.590  0.1855  0.0483  0.3125
66844W        W 9782  10.313  32.476  17.118 -0.2270 -0.0515 -0.0790
66845W        W 9783  10.715  33.436  17.271  0.1324  0.0055 -0.1613
66846W        W 9784  11.407  33.413  16.559 -0.5436 -0.0052 -0.0755
66847W        W 9785  12.154  33.008  16.808 -0.0170 -0.1703 -0.2926
66848W        W 9786  11.865  33.397  18.415  0.1865  0.0039  0.2155
66849W        W 9787  13.337  33.572  18.515 -0.1915  0.0194 -0.0699
66850W        W 9788  10.558  33.300  16.788 -0.0654  0.2738  0.0484
66851W        W 9789  13.586  33.276  17.567  0.1174 -0.0030 -0.1719
66852W        W 9790  10.111  32.423  19.507  0.3517 -0.2255  0.1539
66853W        W 9791  13.938  32.848  18.266 -0.0318  0.3990 -0.1921
66854W        W 9792  12.414   0.206  17.831 -0.1334 -0.2063  0.1006
66855W        W 9793  10.292  33.557  18.338 -0.0799  0.1087 -0.4480
66856W        W 9794  10.525  33.175  17.830 -0.2182  0.0507  0.1632
66857W        W 9795  13.094  33.559  17.551 -0.0094 -0.0315  0.1352
66858W        W 9796  11.674   0.496  17.461  0.1245 -0.2438 -0.1933
66859W        W 9797  12.725  33.966  15.706 -0.0212  0.2841 -0.1697
66860W        W 9798  11.995   0.391  19.465 -0.1259 -0.1099  0.0475
66861W        W 9799  12.036   0.824  16.798  0.0235 -0.0748  0.0763
66862W        W 9800  15.500   0.032  15.995  0.2650 -0.2317  0.2303
66863W        W 9801  12.040  32.036  18.260  0.0401 -0.0760  0.0398
66864W        W 9802  11.978  33.867  15.789 -0.4124 -0.0045  0.2184
66865W        W 9803  11.631   0.217  17.823 -0.0825  0.1024 -0.1654
66866W        W 9804  12.863  32.389  18.429  0.1952  0.0714 -0.1239
66867W        W 9805  11.662  33.297  17.093  0.2441 -0.1941 -0.0688
66868W        W 9806  14.835  33.121  18.083 -0.3294 -0.3469  0.1611
66869W        W 9807  11.160  33.397  19.893  0.1053  0.1016 -0.0809
66870W        W 9808  14.306  32.904  18.592  0.3461  0.0510  0.1623
66871W        W 9809  14.440  34.342  20.579 -0.2179 -0.2242  0.1511
66872W        W 9810  10.397  32.634  19.081  0.3290  0.4390  0.1780
66873W        W 9811  11.955  32.171  22.053 -0.3137  0.0466 -0.0702
66874W        W 9812  12.066  34.398  19.032 -0.0480  0.0715  0.0053
66875W        W 9813  11.674  33.923  22.471 -0.0028  0.0740  0.1192
66876W        W 9814  11.795  32.393  20.152  0.0100 -0.0609  0.1592
66877W        W 9815   9.066  31.726  20.388  0.2620 -0.1403  0.0623
66878W        W 9816  13.875   0.073  21.381 -0.1520  0.1052  0.1824
66879W        W 9817  10.156  34.427  19.638 -0.0321 -0.0936 -0.1272
66880W        W 9818  12.057  34.049  24.310  0.1621  0.0291 -0.0909
66881W        W 9819  11.823  34.671  21.957 -0.3336  0.4645  0.3191
66882W        W 9820  12.346  33.590  22.877 -0.0063  0.1837  0.1303
66883W        W 9821  11.559  33.456  22.632  0.0261  0.1488 -0.0407
66884W        W 9822   9.606  34.360  18.740 -0.1552  0.1323 -0.0727
66885W        W 9823  10.831  33.231  19.556  0.3738  0.0833 -0.0709
66886W        W 9824  11.636  33.206  21.415  0.1656  0.1025 -0.0757
66887W        W 9825  12.054  33.520  22.457  0.0939 -0.1274 -0.0554
66888W        W 9826  15.142   0.938  20.654 -0.1814 -0.2695  0.2773
66889W        W 9827  13.984  34.268  23.065 -0.0952 -0.0155  0.1007
66890W        W 9828  11.215  33.744  22.135 -0.0165  0.3049 -0.0819
66891W        W 9829  13.868  33.845  21.221 -0.2312 -0.0903 -0.0621
66892W        W 9830  14.455  33.567  24.062  0.2913  0.1956 -0.3234
66893W        W 9831  14.097  33.556  20.296  0.1026  0.3471 -0.0438
66894W        W 9832  12.524  32.562  16.861  0.1560  0.2898 -0.1407
66895W        W 9833  13.229  33.198  21.457  0.4915 -0.1848  0.0125
66896W        W 9834  12.231  32.986  20.897 -0.3793  0.0442 -0.1551
66897W        W 9835  10.651  33.494  21.448 -0.3963 -0.3255  0.1160
66898W        W 9836  12.231  33.331  21.352 -0.0007  0.3775  0.0628
66899W        W 9837  14.142   0.383  21.828 -0.0624  0.0479  0.1361
66900W        W 9838  11.276  34.477  19.413 -0.3005 -0.2086  0.1602
66901W        W 9839  12.766  33.824  20.025  0.3603 -0.0774  0.1872
66902W        W 9840  11.966   0.624  23.357 -0.0148  0.2710 -0.0432
66903W        W 9841  10.936  34.612  21.998 -0.0089  0.2541  0.0785
66904W        W 9842  11.558  31.398  18.566  0.0222  0.4336 -0.0937
66905W        W 9843  12.788  34.323  18.796 -0.2107 -0.1080 -0.3921
66906W        W 9844  12.854  34.521  23.356 -0.0249 -0.1325  0.0581
66907W        W 9845  13.250  33.766  22.621 -0.0913  0.0807  0.1309
66908W        W 9846  12.316   0.616  18.825 -0.1766  0.1282 -0.3180
66909W        W 9847  12.925  34.192  24.033  0.0108  0.1469 -0.3335
66910W        W 9848  10.411  33.061  21.899  0.3515 -0.0991  0.0852
66911W        W 9849  13.734  33.941  20.185 -0.2320  0.1085 -0.0950
66912W        W 9850  11.897  34.137  23.362 -0.4610  0.2214 -0.1895
66913W        W 9851  14.417  33.418  20.708 -0.1612 -0.0707 -0.2100
66914W        W 9852  12.958  33.328  18.794  0.2621 -0.1398 -0.0217
66915W        W 9853  10.279  33.143  22.803  0.1070 -0.1309  0.1346
66916W        W 9854  12.214  32.966  20.027  0.2780  0.0076 -0.0249
66917W        W 9855  11.110  33.402  24.021 -0.2208 -0.0045  0.1754
66918W        W 9856  11.376  32.709  23.090 -0.0018 -0.5211 -0.4097
66919W        W 9857  14.149  34.561  21.809  0.2846 -0.2081 -0.0405
66920W        W 9858  11.278  32.714  18.837 -0.1036  0.0000  0.2622
66921W        W 9859  12.480  34.179  19.727  0.2502  0.0542  0.1317
66922W        W 9860  12.645  33.890  19.059 -0.1800  0.2125  0.1213
66923W        W 9861  14.454  32.037  23.954 -0.0997  0.0761  0.0284
66924W        W 9862  10.757  33.487  21.918 -0.0324 -0.0182  0.1817
66925W        W 9863   9.939  33.984  19.028  0.4174 -0.1611  0.0490
66926W        W 9864  12.832  32.716  19.312  0.0153  0.3092  0.1656
66927W        W 9865  14.153  33.297  23.766 -0.2410  0.0533 -0.2718
66928W        W 9866  12.517  32.980  20.486  0.0644  0.1156 -0.0506
66929W        W 9867  11.818  32.609  19.565  0.1232 -0.2215 -0.0988
66930W        W 9868  10.070  34.278  20.178 -0.1923  0.1846  0.2535
66931W        W 9869  13.815  34.416  20.993  0.0034 -0.2789 -0.1909
66932W        W 9870  10.649  33.652  24.573  0.1668 -0.0442 -0.0425
66933W        W 9871  12.359  34.074  23.802  0.1469 -0.0778  0.1960
66934W        W 9872  12.269  32.734  17.765 -0.0321 -0.0485  0.1067
66935W        W 9873  14.230  33.797  21.719  0.1234 -0.0773  0.1944
66936W        W 9874  14.644  33.924  22.054 -0.1296  0.0397  0.1922
66937W        W 9875  13.686  32.660  20.085 -0.0727 -0.1370 -0.1317
66938W        W 9876  13.153  32.830  19.652 -0.0798 -0.2276  0.0420
66939W        W 9877  12.443  33.464  18.030  0.0634  0.1688 -0.0582
66940W        W 9878  10.843  33.398  20.892 -0.0030 -0.1651 -0.0907
66941W        W 9879  12.528  33.071  19.000  0.1338 -0.2454  0.1984
66942W        W 9880  12.991  33.893  22.194 -0.0427  0.2937  0.3556
66943W        W 9881  13.994  34.463  22.641 -0.2575 -0.0626 -0.4178
66944W        W 9882  11.117  33.546  22.947  0.1987  0.0599 -0.2344
66945W        W 9883  12.191  32.008  22.437  0.1582 -0.0949  0.0976
66946W        W 9884  14.577   0.562  23.341  0.0653 -0.0896  0.0993
66947W        W 9885  14.182   0.865  19.297 -0.0419 -0.0185  0.1397
66948W        W 9886  11.621  33.942  21.010  0.2019 -0.1821  0.0610
66949W        W 9887  10.383  33.748  17.794 -0.0819 -0.1632 -0.0420
66950W        W 9888  12.821  33.704  23.177  0.0532 -0.0890  0.3457
66951W        W 9889  12.002  33.441  24.661 -0.1637  0.0194 -0.1039
66952W        W 9890  12.430  32.931  19.571  0.1427 -0.1589 -0.0046
66953W        W 9891  11.924  33.065  22.780 -0.3739  0.1136  0.3390
66954W        W 9892  13.835  32.867  21.569 -0.0454  0.1720  0.2363
66955W        W 9893  12.066  32.698  18.620 -0.3096  0.0487  0.1549
66956W        W 9894  11.408  33.871  19.016  0.0859 -0.1105 -0.1179
66957W        W 9895  13.556  33.182  22.512  0.0283 -0.1358  0.1589
66958W        W 9896  11.219  32.568  22.138  0.0028  0.2264 -0.3210
66959W        W 9897  13.423  32.797  24.160  0.0186 -0.1070  0.3202
66960W        W 9898  14.847  34.539  22.212  0.0319  0.1973  0.0690
66961W        W 9899  14.274  33.347  18.235 -0.2753  0.1547 -0.1877
66962W        W 9900  12.188   0.278  23.596 -0.2484  0.0691 -0.2548
66963W        W 9901  11.348  33.865  19.505 -0.0396  0.2476  0.2347
66964W        W 9902  14.136  33.801  22.211  0.0417  0.0562  0.2783
66965W        W 9903  11.668  34.050  21.967 -0.3930 -0.1333 -0.3235
66966W        W 9904  11.817  33.456  21.024  0.2678  0.2314 -0.1008
66967W        W 9905  10.941  34.026  23.894  0.1798  0.2331  0.3179
66968W        W 9906  11.350  34.119  20.361 -0.1521 -0.1909 -0.1224
66969W        W 9907  11.046  32.723  21.676 -0.0085  0.0743  0.1408
66970W        W 9908  10.341  33.219  21.093  0.0103 -0.1932  0.0972
66971W        W 9909  14.012  33.672  24.063 -0.1043 -0.1375 -0.0207
66972W        W 9910  13.769  32.284  21.598  0.2211 -0.1702 -0.0910
66973W        W 9911  13.199  34.086  21.692 -0.0151  0.1075 -0.4478
66974W        W 9912  12.766  31.648  22.314  0.2552 -0.0234 -0.2106
66975W        W 9913  14.943  31.957  19.289 -0.2971  0.0370  0.0619
66976W        W 9914  11.878  33.162  20.494  0.0969  0.1858 -0.0611
66977W        W 9915  13.412  33.607  21.776  0.1095 -0.1610 -0.1952
66978W        W 9916  12.976  34.496  20.356 -0.2609 -0.1965 -0.2462
66979W        W 9917  13.144  33.070  24.967 -0.0293  0.2803  0.2217
66980W        W 9918  10.935  32.790  22.548  0.3043 -0.1139 -0.0465
66981W        W 9919  12.315  32.786  23.432  0.0848  0.2775 -0.0533
66982W        W 9920  11.242   0.166  24.553 -0.1176 -0.0793 -0.2992
66983W        W 9921  11.672  34.175  21.460 -0.1315  0.0910  0.0488
66984W        W 9922  11.707  31.889  20.359  0.3090 -0.0954 -0.3045
66985W        W 9923  10.429  34.606  21.778  0.4746 -0.2884 -0.0763
66986W        W 9924  14.240   0.596  21.398 -0.0002 -0.0637  0.0861
66987W        W 9925   9.936  34.457  22.740 -0.0719 -0.1678  0.1478
66988W        W 9926  11.956  33.823  19.713 -0.0474  0.0868 -0.2956
66989W        W 9927  11.278  32.263  22.615  0.1572  0.2889  0.1150
66990W        W 9928  13.632  33.718  20.795 -0.0685  0.1480 -0.0368
66991W        W 9929  13.611  34.139  23.347 -0.0233 -0.0455  0.1277
66992W        W 9930  13.409  34.148  22.917  0.0087 -0.4489  0.0394
66993W        W 9931  12.734  34.065  23.496  0.1033  0.0434  0.1685
66994W        W 9932  12.395  33.542  23.931  0.1416 -0.0805  0.0739
66995W        W 9933  12.328  33.614  18.806  0.0567 -0.1497 -0.2050
66996W        W 9934  14.574  34.620  21.486 -0.0260  0.0598 -0.0768
66997W        W 9935  13.923  33.281  20.655 -0.0412  0.1503 -0.1332
66998W        W 9936  13.441  34.271  20.709  0.0291  0.1606  0.0321
66999W        W 9937  10.550  33.675  20.087  0.3393 -0.3449  0.1187
67000W        W 9938  14.409   0.518  23.860 -0.4778 -0.0526 -0.0432
67001W        W 9939  11.465  32.888  22.642  0.4707  0.1124 -0.0732
67002W        W 9940  13.061  33.261  23.920  0.1307  0.1433 -0.1242
67003W        W 9941  11.128  32.885  21.216 -0.1387 -0.0658 -0.3566
67004W        W 9942  11.387  32.962  19.601  0.4132 -0.0758  0.1835
67005W        W 9943  11.383  32.591  19.960  0.2227  0.1671 -0.1079
67006W        W 9944  11.112  33.639  18.495 -0.0892 -0.1399  0.0993
67007W        W 9945  11.915  31.498  18.194  0.1123 -0.0259 -0.1856
67008W        W 9946  14.407   0.234  21.143  0.1748 -0.0869 -0.2308
67009W        W 9947  12.913  33.391  22.623 -0.0071  0.1960 -0.2257
67010W        W 9948  12.213  33.217  23.181  0.0815 -0.0484  0.1637
67011W        W 9949  13.492  34.347  20.168  0.1053  0.0770 -0.2027
67012W        W 9950  12.878  34.023  21.085  0.1855 -0.0639  0.1775
67013W        W 9951  13.651   0.426  23.782 -0.1388  0.0129 -0.1796
67014W        W 9952  11.268  33.090  20.797 -0.0101  0.2643 -0.1666
67015W        W 9953  12.101  34.430  23.010 -0.0422 -0.4251 -0.1666
67016W        W 9954  11.959  32.520  21.092 -0.3857  0.0081 -0.0825
67017W        W 9955  11.761  32.947  19.926 -0.3185  0.0260  0.0024
67018W        W 9956  13.612  34.167  19.710  0.1110  0.1657 -0.1657
67019W        W 9957  12.600  34.684  20.607  0.0187  0.0614 -0.2226
67020W        W 9958  14.308  32.342  20.817  0.0964 -0.2135  0.0660
67021W        W 9959  12.563  33.664  22.351  0.0230  0.0135 -0.1201
67022W        W 9960  12.263  32.428  17.291 -0.1875  0.0940 -0.0734
67023W        W 9961  11.434   0.547  23.027  0.3002  0.1886  0.1014
67024W        W 9962  15.243  33.661  22.862  0.0670  0.0091 -0.2764
67025W        W 9963  10.248  33.533  18.931 -0.0302  0.0204  0.3025
67026W        W 9964  11.542  33.441  18.762  0.0745 -0.0900  0.2907
67027W        W 9965  12.299  34.532  23.484 -0.0325  0.1828  0.2603
67028W        W 9966  12.361   0.381  23.035 -0.0523 -0.0947 -0.0663
67029W        W 9967  10.298  31.760  20.118 -0.1479 -0.0941 -0.1207
67030W        W 9968  14.137  33.811  20.787  0.2324 -0.1307  0.1460
67031W        W 9969  11.398   0.218  24.043 -0.1016 -0.2765  0.2790
67032W        W 9970  15.508  33.226  22.911  0.1335  0.0134  0.3097
67033W        W 9971  11.530  33.086  19.129  0.0707  0.1712  0.1687
67034W        W 9972  13.218  34.450  18.561  0.0267  0.0062  0.2110
67035W        W 9973  11.543  32.576  23.696  0.1452 -0.3668 -0.2762
67036W        W 9974  11.074  32.897  19.222  0.2075  0.4272 -0.4021
67037W        W 9975  14.627   1.026  23.648  0.2684  0.2381  0.1434
67038W        W 9976  11.519  34.604  18.233  0.0964 -0.5772  0.0071
67039W        W 9977  10.934  33.042  20.408  0.3078  0.0716 -0.0899
67040W        W 9978  13.354  33.589  20.393  0.0445 -0.3311  0.1573
67041W        W 9979  11.185   0.583  21.688 -0.1696  0.1153  0.2340
67042W        W 9980  11.748  32.461  22.540  0.0436 -0.1064 -0.5153
67043W        W 9981  11.610  32.732  21.429 -0.0234  0.1403 -0.1114
67044W        W 9982  14.779   0.691  22.008  0.1861  0.0940  0.0029
67045W        W 9983  13.098   0.095  22.327  0.0853 -0.3690 -0.0800
67046W        W 9984  10.729  32.578  22.056 -0.0592 -0.2113 -0.0546
67047W        W 9985  12.995  32.884  20.559 -0.2013 -0.2128  0.3683
67048W        W 9986  10.588  33.738  20.589  0.1829  0.1892 -0.0053
67049W        W 9987  13.914  34.220  22.081 -0.0792  0.1442  0.4204
67050W        W 9988  12.491  33.155  22.379 -0.1703  0.0125  0.1851
67051W        W 9989  14.871  33.969  24.093  0.1744 -0.5199  0.2846
67052W        W 9990  12.190  33.833  22.061  0.3644 -0.1588  0.1462
67053W        W 9991  11.085  33.980  20.742 -0.1934 -0.0438 -0.0526
67054W        W 9992  12.730  33.069  20.961 -0.0654  0.2511 -0.0763
67055W        W 9993  13.375  33.054  20.348 -0.0380 -0.2265 -0.0418
67056W        W 9994  12.276  33.676  23.444 -0.1360  0.1430  0.1920
67057W        W 9995   9.895   0.324  19.595  0.0446 -0.0515  0.0291
67058W        W 9996  13.519  34.574  22.553  0.0579  0.0325 -0.3129
67059W        W 9997  10.979  33.948  21.323 -0.2590  0.1522  0.3559
67060W        W 9998  11.281  33.554  21.106 -0.0287  0.2286  0.1253
67061W        W 9999  11.138  32.355  21.265  0.2652  0.0951 -0.1693
67062W        W10000  11.524  33.640  20.582  0.1855 -0.1896 -0.1875
67063W        W10001  10.032  33.059  19.259  0.1483 -0.1457 -0.4142
67064W        W10002  12.650  33.537  21.049  0.2282  0.2153  0.1128
67065W        W10003  13.112  34.565  22.865 -0.2824  0.0942 -0.0486
67066W        W10004  12.297  33.056  24.660  0.2391  0.0560 -0.3873
67067W        W10005   9.879  33.288  20.151  0.2358 -0.1707 -0.0554
67068W        W10006  12.859  33.700  23.759 -0.2122  0.2994  0.0663
67069W        W10007  10.818  31.850  23.401 -0.1486 -0.0564 -0.1810
67070W        W10008  13.924  34.241  20.549  0.0189  0.0810 -0.0351
67071W        W10009  11.895  33.601  20.189  0.0598  0.0343  0.4368
67072W        W10010  12.189  33.040  25.140  0.2802 -0.1157 -0.2525
67073W        W10011  11.587  32.717  20.467  0.0995 -0.2546 -0.0033
67074W        W10012  13.025  33.347  20.007 -0.5983 -0.3157 -0.2128
67075W        W10013  11.309  33.738  21.614  0.1358  0.3882 -0.1285
67076W        W10014  13.126  33.620  20.912  0.2339  0.0132  0.0799
67077W        W10015  14.203  34.654  23.294 -0.0371 -0.2768  0.2123
67078W        W10016  11.393  32.934  18.392 -0.0194  0.3306 -0.0629
67079W        W10017  13.897   0.064  20.307 -0.2347 -0.0157  0.1701
67080W        W10018  11.443  33.130  22.125  0.0447 -0.4195  0.3975
67081W        W10019  10.515  33.185  20.024  0.0906 -0.1473  0.0323
67082W        W10020  10.801  33.650  22.378  0.0762 -0.0784 -0.1712
67083W        W10021  14.304   0.577  22.239 -0.0989  0.2359  0.2005
67084W        W10022  11.045  33.602  20.393  0.2999  0.0576  0.2069
67085W        W10023  12.660  32.536  20.309 -0.1308 -0.1143  0.0769
67086W        W10024  10.836  33.998  25.935 -0.1422 -0.0317  0.0592
67087W        W10025  13.003  32.777  25.360 -0.2308  0.2951  0.3916
67088W        W10026  14.339  33.649  25.049 -0.0129  0.1406 -0.3873
67089W        W10027  11.589  33.365  23.199  0.0254  0.2271 -0.0250
67090W        W10028  11.945  32.423  26.372  0.3022 -0.0047 -0.3227
67091W        W10029  14.144   0.202  22.894  0.1119  0.6004  0.1396
67092W        W10030  12.375  33.739  28.234  0.2029 -0.2548 -0.0668
67093W        W10031  12.086  32.518  25.876  0.2760 -0.0606 -0.2408
67094W        W10032  11.460  31.594  26.189  0.0506  0.0160 -0.2667
67095W        W10033  14.469   0.407  26.210  0.1705 -0.0792 -0.1574
67096W        W10034  11.124  33.844  25.035 -0.0075 -0.2873  0.2519
67097W        W10035  12.283  33.045  26.990  0.0651  0.2862  0.1901
67098W        W10036  12.647  34.616  25.176 -0.1464 -0.2704  0.0046
67099W        W10037  12.879  32.917  27.186 -0.0961 -0.4780 -0.0528
67100W        W10038  13.783  33.659  28.105 -0.2121  0.1697 -0.1112
67101W        W10039  10.585  33.469  23.093  0.1153 -0.1170  0.3757
67102W        W10040  10.055  34.322  25.318 -0.2813 -0.0277 -0.0137
67103W        W10041  12.362  33.457  26.697 -0.0478 -0.0846  0.1494
67104W        W10042  13.108  33.952  24.557 -0.1488 -0.0668 -0.0918
67105W        W10043  14.002  34.626  24.977  0.3799  0.1389  0.0364
67106W        W10044  14.379   0.841  26.927  0.1587 -0.0230  0.0567
67107W        W10045  14.084   0.566  25.055 -0.0165 -0.0794 -0.0780
67108W        W10046  13.555   0.262  24.868 -0.0014  0.1715 -0.2336
67109W        W10047  14.626  34.147  27.427 -0.1751 -0.0422  0.0253
67110W        W10048  14.157  33.103  24.956  0.0534 -0.0400 -0.1515
67111W        W10049  12.577  33.814  24.322 -0.0428  0.3355 -0.1480
67112W        W10050  14.299  34.400  24.525 -0.1121 -0.2849  0.0478
67113W        W10051  12.823  32.537  25.835  0.0294 -0.2851  0.1436
67114W        W10052  12.037  33.971  26.885  0.2353  0.2202  0.4420
67115W        W10053  12.473   1.245  23.439  0.3706 -0.1457  0.3430
67116W        W10054  13.810  34.222  26.655  0.0074 -0.0408  0.0259
67117W        W10055  11.664  33.026  26.172 -0.0285  0.1946 -0.3679
67118W        W10056  10.527  34.464  24.423 -0.2157  0.0013  0.0513
67119W        W10057  10.497   0.549  26.549 -0.1198 -0.2241  0.1934
67120W        W10058  10.848  33.837  27.095 -0.0095 -0.2287  0.1013
67121W        W10059  11.726  32.897  24.881 -0.3284 -0.2302  0.1171
67122W        W10060  15.787  33.772  26.190  0.0852 -0.1570  0.1676
67123W        W10061  14.110  33.417  25.458  0.1127 -0.0155  0.0894
67124W        W10062  13.730  33.213  26.804 -0.0269  0.2329  0.0447
67125W        W10063  14.486   1.421  24.464 -0.0927 -0.0249 -0.1199
67126W        W10064  12.904  33.995  28.042 -0.1301 -0.0814  0.1799
67127W        W10065  12.007  32.792  27.413  0.1519 -0.4114  0.1089
67128W        W10066  13.830  33.522  24.917 -0.0485  0.4659  0.2719
67129W        W10067  10.830  34.390  26.274  0.1520 -0.0820 -0.0995
67130W        W10068  15.232  33.791  26.213 -0.0884 -0.0594  0.3046
67131W        W10069  12.087  34.448  24.026  0.0315 -0.3653 -0.0292
67132W        W10070  11.424  34.017  25.765 -0.0026  0.3389 -0.1192
67133W        W10071  11.333  32.729  25.714  0.0940  0.1852  0.2518
67134W        W10072  11.618  33.665  26.905 -0.0466  0.2541 -0.3637
67135W        W10073  11.227  32.280  25.943  0.1012 -0.1458  0.2675
67136W        W10074  14.923   0.398  26.424 -0.0277 -0.1934 -0.3684
67137W        W10075  12.066  32.292  25.393 -0.1984 -0.2451  0.1417
67138W        W10076  12.964  33.651  26.609 -0.1958  0.0998  0.1306
67139W        W10077  12.214  34.218  25.071  0.1597 -0.2803  0.0572
67140W        W10078  14.136  34.217  27.733 -0.6388 -0.1754  0.1300
67141W        W10079  13.157  32.593  27.965  0.2115 -0.2401 -0.0021
67142W        W10080  10.531  32.253  24.705 -0.1000  0.1458  0.2548
67143W        W10081  10.259  31.877  25.063 -0.1782  0.2275  0.0934
67144W        W10082  15.254  32.772  26.817  0.0216  0.0817 -0.0531
67145W        W10083  13.335  33.542  24.923  0.0594 -0.0545 -0.0293
67146W        W10084  12.606  32.537  23.856  0.0899  0.0287 -0.1584
67147W        W10085  11.559  33.805  25.329  0.0184  0.2217  0.1050
67148W        W10086  15.234  34.253  25.545  0.2428  0.1999 -0.1588
67149W        W10087  10.125   0.019  28.352  0.2694 -0.1913 -0.3572
67150W        W10088  13.213  33.780  26.130  0.2608 -0.1272  0.2605
67151W        W10089  11.125  33.968  24.344 -0.2324  0.1620 -0.0722
67152W        W10090  13.829  32.654  24.388  0.0826 -0.1499  0.1257
67153W        W10091  14.678  32.053  24.396 -0.1362  0.1168  0.0720
67154W        W10092  13.863  33.918  22.620 -0.0098 -0.0731 -0.0160
67155W        W10093  12.337  33.932  24.709 -0.3296 -0.1859 -0.0050
67156W        W10094  12.528  34.343  24.401 -0.1362 -0.1192  0.0114
67157W        W10095  12.433  33.868  25.522 -0.0266 -0.0069 -0.0767
67158W        W10096  11.849   0.206  22.977 -0.1110 -0.0314  0.0519
67159W        W10097  12.889  31.503  26.139  0.2911  0.1470  0.1095
67160W        W10098  14.009  34.287  26.019 -0.1297  0.4962 -0.0403
67161W        W10099  13.996  32.769  26.593  0.0269 -0.2450  0.2218
67162W        W10100  13.367  34.155  26.439  0.0027 -0.2335 -0.0856
67163W        W10101  15.550   0.687  27.060  0.1584 -0.0790  0.0791
67164W        W10102  13.523   0.401  25.592  0.2252 -0.4159  0.2443
67165W        W10103  13.709  34.584  25.725  0.1810  0.0820 -0.2759
67166W        W10104  10.303  33.511  23.595  0.1422 -0.1831  0.1106
67167W        W10105  13.216  34.326  25.988  0.1593  0.0196  0.3199
67168W        W10106  14.940  33.244  27.208  0.0990  0.1837  0.2313
67169W        W10107  12.856  33.578  24.776 -0.0347  0.1509  0.1215
67170W        W10108  12.229  32.261  27.434  0.2866 -0.1011  0.2159
67171W        W10109  15.506  33.608  26.636  0.1729 -0.0068 -0.1039
67172W        W10110  10.267  34.095  23.644  0.1201  0.2535  0.0748
67173W        W10111  11.697  34.306  24.956  0.2169  0.2359 -0.0218
67174W        W10112  12.845  33.546  25.850  0.0101 -0.1839  0.0379
67175W        W10113  13.031  34.440  27.281  0.1068 -0.0164  0.2596
67176W        W10114  12.559  32.838  26.561  0.3431  0.4728  0.0804
67177W        W10115  15.695   0.512  26.411  0.1364 -0.1564  0.0904
67178W        W10116  13.817  34.106  23.881 -0.0531  0.1304 -0.3033
67179W        W10117  11.248   1.438  26.648  0.0073 -0.1298  0.1333
67180W        W10118  11.547  33.952  24.630  0.0403  0.3356 -0.0004
67181W        W10119  14.132   0.297  27.144  0.0368  0.0914 -0.0811
67182W        W10120  10.607  33.039  24.360  0.2156 -0.2958 -0.1217
67183W        W10121  10.867   0.155  24.236 -0.0532  0.1625 -0.1834
67184W        W10122  12.255  34.584  27.569 -0.0882  0.1721 -0.3619
67185W        W10123  11.877  34.177  25.468 -0.0409  0.3891 -0.2702
67186W        W10124  11.945  33.456  25.345  0.0528 -0.2901  0.0929
67187W        W10125  12.451  34.387  25.587 -0.1853 -0.0786  0.0489
67188W        W10126  13.441  33.680  26.584 -0.3153 -0.3812  0.0445
67189W        W10127  13.420  32.552  25.067 -0.0024  0.2118  0.1435
67190W        W10128  13.276   0.662  26.882  0.0859 -0.1149 -0.1621
67191W        W10129  13.716  34.578  26.283  0.2274  0.0922  0.2693
67192W        W10130  13.050  32.282  24.823  0.1306 -0.2244  0.4051
67193W        W10131  12.820  34.470  26.289  0.1290 -0.2263 -0.1707
67194W        W10132  14.283  34.234  26.396  0.3114  0.0740 -0.2015
67195W        W10133  14.105   0.418  23.500  0.0894 -0.1963 -0.2921
67196W        W10134  14.323  33.813  26.013 -0.4765  0.2668 -0.0185
67197W        W10135  10.954  31.348  26.305  0.1789 -0.1746 -0.1280
67198W        W10136  11.606  34.169  27.095 -0.1927 -0.0922 -0.3177
67199W        W10137  11.367   1.020  27.856 -0.0095 -0.0347 -0.2851
67200W        W10138  12.389  33.324  25.480 -0.0962  0.1702  0.1106
67201W        W10139  12.408  32.813  24.246  0.0592  0.2193 -0.1247
67202W        W10140  13.956   0.183  25.403 -0.1592  0.2996  0.0687
67203W        W10141  13.690  34.564  24.535  0.0092  0.1508  0.0237
67204W        W10142  11.651   0.222  26.022  0.2486 -0.0992  0.0819
67205W        W10143  12.418   0.742  23.510 -0.0469  0.0836 -0.0115
67206W        W10144  12.126  33.728  27.795  0.1427  0.1338  0.0139
67207W        W10145  12.451  33.511  24.991  0.0540  0.3114  0.0498
67208W        W10146  14.325  33.234  26.730  0.2210 -0.3887  0.0085
67209W        W10147  12.849  33.493  25.290 -0.3507  0.2625  0.1173
67210W        W10148  11.486  34.431  26.664 -0.1907  0.1517 -0.1272
67211W        W10149  10.364  34.524  24.918  0.1411 -0.2659 -0.2964
67212W        W10150  13.554  34.616  23.134  0.3669  0.1063 -0.2134
67213W        W10151  14.986  34.205  27.816  0.4291  0.2843  0.0197
67214W        W10152  13.717   0.355  23.148  0.2199 -0.0487 -0.0414
67215W        W10153  12.117  34.072  22.669 -0.2290  0.2536  0.4176
67216W        W10154  11.322  33.567  26.429 -0.0252  0.0018 -0.2891
67217W        W10155  13.436   1.451  26.764  0.0956 -0.2156  0.0124
67218W        W10156  11.969  33.324  23.737  0.0795 -0.0798 -0.0662
67219W        W10157  12.589  34.338  27.130 -0.0291  0.4168  0.0907
67220W        W10158  13.978  34.053  24.397 -0.0464 -0.1023 -0.1188
67221W        W10159  10.018  32.986  25.207 -0.1330  0.0377  0.1557
67222W        W10160  12.672  33.281  24.370  0.0691  0.1192 -0.1461
67223W        W10161  12.606  34.375  22.466  0.0660  0.0844  0.1201
67224W        W10162  12.444  33.085  23.817 -0.1445  0.1009 -0.2603
67225W        W10163  14.631  34.423  26.842 -0.1011  0.2067 -0.0904
67226W        W10164  13.633  32.241  25.884 -0.1031  0.1438  0.1686
67227W        W10165  14.105  33.403  27.205  0.1256  0.2421 -0.0389
67228W        W10166  13.151   0.132  25.840  0.0012 -0.0769  0.1222
67229W        W10167  13.211  33.733  25.587 -0.2724 -0.0599  0.0767
67230W        W10168  14.370  34.564  27.306 -0.1867 -0.1399 -0.0108
67231W        W10169  13.220   0.554  26.405  0.0238 -0.2450  0.4219
67232W        W10170  11.213  34.617  27.611  0.0769  0.0326  0.0925
67233W        W10171  12.110  33.100  25.837 -0.2461 -0.0598 -0.0511
67234W        W10172  12.710   0.326  23.602 -0.2823  0.2953 -0.0602
67235W        W10173  14.237  32.838  24.514  0.4783  0.0481 -0.0427
67236W        W10174  14.077   0.585  25.951 -0.3763 -0.0618  0.2297
67237W        W10175  14.819  32.762  25.437 -0.2373 -0.1706 -0.0594
67238W        W10176  11.672  33.899  26.420  0.1281 -0.0746 -0.0041
67239W        W10177  12.056  32.723  23.919 -0.0552  0.0208  0.1162
67240W        W10178  11.355   0.496  26.273  0.2480  0.1695 -0.0418
67241W        W10179  15.235  33.023  27.550 -0.1505  0.3063  0.1169
67242W        W10180  11.990  33.820  23.875  0.0236  0.1228 -0.0591
67243W        W10181  13.557  34.130  24.756 -0.0099  0.1767  0.2346
67244W        W10182  15.224  33.218  26.346 -0.1083 -0.0860  0.1623
67245W        W10183  12.993  33.113  26.686  0.2611 -0.1269  0.0723
67246W        W10184  10.109  32.314  23.938  0.3449 -0.3728 -0.2383
67247W        W10185  14.185  34.690  26.493 -0.1652 -0.0146 -0.0353
67248W        W10186  11.854  34.394  26.311 -0.0167  0.1813  0.2319
67249W        W10187  14.205  32.928  25.608  0.2828 -0.0269  0.0618
67250W        W10188  11.959  33.818  25.022  0.0776  0.2631  0.1098
67251W        W10189  13.780  33.075  25.403  0.0524  0.0331 -0.1122
67252W        W10190  11.246  34.634  26.251  0.1570 -0.1479  0.1855
67253W        W10191  12.605  34.555  23.894  0.0654 -0.1247  0.0509
67254W        W10192  16.065   0.506  26.845 -0.1382  0.0914 -0.2172
67255W        W10193  12.432   0.534  22.596 -0.3318 -0.0477 -0.1185
67256W        W10194  12.758  34.134  24.904  0.0301  0.0029  0.1187
67257W        W10195  13.205  33.663  24.138 -0.3822  0.0196  0.2070
67258W        W10196  10.947  33.362  24.876  0.0801  0.0241 -0.0133
67259W        W10197  13.698   0.858  26.001 -0.0795 -0.1010 -0.1339
67260W        W10198  11.547  32.494  25.119  0.1264  0.0863 -0.0573
67261W        W10199  14.783  34.538  25.577  0.1651  0.0282 -0.3253
67262W        W10200  12.631   0.664  24.820 -0.1568  0.0885 -0.3205
67263W        W10201  11.322  34.352  25.318  0.0782 -0.1295 -0.1469
67264W        W10202  13.355  32.193  26.569 -0.2855  0.2532 -0.0438
67265W        W10203  11.609  32.307  25.636 -0.2194  0.0052 -0.1273
67266W        W10204  12.996  34.448  25.581 -0.1037  0.2631  0.0609
67267W        W10205  13.822  34.255  27.293  0.1904  0.0715  0.3237
67268W        W10206  15.004  33.637  26.738 -0.3143 -0.1058  0.1450
67269W        W10207  13.521  34.683  25.288  0.1560 -0.0782  0.0579
67270W        W10208  12.076  32.842  26.296  0.0104  0.3029 -0.0939
67271W        W10209  12.858  34.034  25.373  0.2288  0.0577 -0.0589
67272W        W10210  14.838  34.053  26.430  0.2007  0.0930  0.1305
67273W        W10211  13.269   0.102  26.991 -0.1578 -0.0132 -0.0045
67274W        W10212  10.212  33.941  24.977  0.0393 -0.2413  0.2151
67275W        W10213  13.028  33.397  27.440  0.1841 -0.0066  0.1810
67276W        W10214  10.161   0.242  26.823  0.1804 -0.0565  0.3295
67277W        W10215  12.665  33.868  26.243  0.1146  0.0059  0.1814
67278W        W10216  11.595  33.173  24.491  0.0934 -0.1917  0.1515
67279W        W10217  11.449  33.186  25.335 -0.2336  0.0497 -0.0564
67280W        W10218  10.505  33.199  24.984 -0.0162 -0.1263  0.3253
67281W        W10219  11.566  32.150  24.638  0.2335 -0.1730  0.0068
67282W        W10220  13.609  34.034  25.791  0.1842 -0.2234 -0.2757
67283W        W10221  13.575  33.820  27.050 -0.4597 -0.0392  0.0558
67284W        W10222  11.581  33.745  23.630  0.1342 -0.3507  0.0576
67285W        W10223  12.817  33.903  27.571  0.1829 -0.1779  0.0087
67286W        W10224  11.538  31.710  26.918  0.1491  0.1761  0.0397
67287W        W10225  13.633  33.787  25.337  0.3573 -0.1108 -0.0073
67288W        W10226  12.919  34.630  24.413  0.0612 -0.0772 -0.2269
67289W        W10227  12.134  33.233  27.846  0.0213  0.4362  0.0645
67290W        W10228  11.615  32.579  26.072 -0.1576  0.0928  0.0080
67291W        W10229  13.174  33.221  24.436 -0.1253 -0.2248 -0.3016
67292W        W10230  12.095  34.402  24.633  0.2486 -0.3210 -0.0747
67293W        W10231  12.781  34.052  25.820 -0.1035 -0.1685  0.0250
67294W        W10232  12.326  34.046  27.446  0.0474 -0.2980  0.0708
67295W        W10233  11.061  33.808  23.458  0.1880 -0.3408  0.0425
67296W        W10234  13.311   0.269  24.459 -0.2590 -0.0878  0.0622
67297W        W10235  10.955  32.902  27.485 -0.4013 -0.1753 -0.0608
67298W        W10236  11.616   0.577  24.926  0.0560 -0.0554 -0.1329
67299W        W10237  13.388  34.232  25.261  0.0150 -0.1134 -0.1548
67300W        W10238  13.171  32.977  25.824 -0.1673  0.2172 -0.1445
67301W        W10239  13.695  33.343  26.349  0.2247 -0.0136  0.0518
67302W        W10240  14.523  33.198  25.312 -0.1088 -0.0552 -0.1955
67303W        W10241  11.500  33.857  27.838  0.1725  0.1618 -0.1566
67304W        W10242  14.419  33.810  26.713 -0.1739 -0.0595  0.0953
67305W        W10243  13.291  33.734  27.773 -0.0931  0.1237  0.0544
67306W        W10244  11.199  33.200  27.828  0.3118 -0.0836 -0.2859
67307W        W10245  11.932  33.445  30.724  0.1340  0.4337 -0.0173
67308W        W10246  13.861   0.756  27.003  0.1003 -0.2867 -0.2283
67309W        W10247  12.963  33.556  28.274  0.0287  0.2795  0.0943
67310W        W10248  11.338  34.052  28.392 -0.1321 -0.0514  0.0608
67311W        W10249  11.078  33.536  29.327  0.0221  0.1175 -0.1833
67312W        W10250  13.625   1.250  29.112 -0.1276  0.4945  0.1340
67313W        W10251   9.972   0.711  28.692 -0.4771 -0.1746 -0.0277
67314W        W10252  11.636  33.455  29.084  0.0560 -0.2068 -0.1428
67315W        W10253  12.427  33.232  28.232  0.2091  0.2145 -0.0008
67316W        W10254  12.440  33.306  30.899 -0.2653  0.1515  0.0662
67317W        W10255  12.904  33.117  28.496  0.1721 -0.1297 -0.2589
67318W        W10256  11.669   0.111  27.694  0.0914  0.0909  0.1998
67319W        W10257  11.479   0.863  29.634  0.0101 -0.0384 -0.2879
67320W        W10258  12.353   0.057  29.238 -0.2619  0.5165 -0.0337
67321W        W10259  13.738  32.863  29.787  0.0303 -0.0358 -0.1418
67322W        W10260  13.255   1.547  28.393  0.4375 -0.1315 -0.0857
67323W        W10261  14.654   0.214  30.615 -0.0198  0.1042  0.2344
67324W        W10262  13.384   0.444  30.415  0.0255 -0.0398 -0.2056
67325W        W10263  13.706   0.535  29.367 -0.0352 -0.1661  0.0823
67326W        W10264  12.976  33.119  31.130  0.0571 -0.0936  0.0018
67327W        W10265  13.986   0.028  27.651  0.3419  0.0349 -0.0432
67328W        W10266  13.472  34.329  26.970  0.0088 -0.2271 -0.4707
67329W        W10267  13.496  34.599  27.478  0.5391 -0.0537 -0.3603
67330W        W10268  11.494  32.128  29.158 -0.1435  0.0889  0.0759
67331W        W10269  11.292  33.583  28.199 -0.4718 -0.0724  0.0188
67332W        W10270  12.625   0.359  28.084 -0.0906  0.3750  0.2506
67333W        W10271  13.829   0.049  29.553  0.0873  0.0539  0.2399
67334W        W10272  11.480  34.593  29.359  0.5783  0.1783 -0.2524
67335W        W10273  11.713  33.375  27.736 -0.2092  0.0545 -0.2979
67336W        W10274  11.972   1.470  31.521  0.2034 -0.2326 -0.0296
67337W        W10275  11.122   0.561  30.126  0.1644  0.3583 -0.2114
67338W        W10276  11.502  30.940  27.193  0.1954  0.2379  0.1723
67339W        W10277  14.790  33.472  29.147  0.0974  0.1060 -0.0515
67340W        W10278  13.973  33.641  29.243  0.0634 -0.1004 -0.1900
67341W        W10279  13.603  33.467  30.145  0.0313  0.1288  0.2766
67342W        W10280  14.846   0.359  27.709  0.1929 -0.3521 -0.1176
67343W        W10281  12.756  34.472  29.409  0.1539  0.1461 -0.1245
67344W        W10282  11.048  32.711  30.839 -0.2181  0.1509 -0.0150
67345W        W10283  14.420   0.704  28.947 -0.0389 -0.1189 -0.0892
67346W        W10284  11.071  32.989  29.681 -0.1726 -0.2558 -0.0289
67347W        W10285  13.796  31.985  29.068  0.4159  0.0907  0.0058
67348W        W10286  13.531   0.406  28.341  0.1051 -0.1229  0.4335
67349W        W10287  10.623   0.817  31.265 -0.0393  0.2052 -0.1286
67350W        W10288  10.936  32.554  29.404  0.2160  0.3272  0.1413
67351W        W10289  11.258  33.901  30.640 -0.1460  0.3007  0.0172
67352W        W10290  11.767  34.649  29.835  0.0900 -0.0732 -0.1237
67353W        W10291  14.192   0.175  29.896 -0.1856  0.0010 -0.1202
67354W        W10292  11.653  33.004  28.025 -0.1655 -0.2663 -0.1256
67355W        W10293  12.212  34.121  28.900 -0.2887 -0.1148 -0.1784
67356W        W10294  12.595  34.127  28.391  0.2351 -0.3656  0.1291
67357W        W10295  14.798  33.682  30.342  0.0081  0.0189 -0.2398
67358W        W10296  12.666  34.079  29.860 -0.1091 -0.0926 -0.3163
67359W        W10297  12.052  32.704  27.972  0.1854  0.3199 -0.0160
67360W        W10298  11.882  33.521  28.201  0.1228 -0.3116  0.0027
67361W        W10299  13.223  34.285  29.618  0.0608 -0.1332 -0.1200
67362W        W10300  14.036   2.123  29.088 -0.0327  0.0785 -0.2106
67363W        W10301  11.670  33.230  27.225  0.0926  0.0370 -0.0560
67364W        W10302  10.581   0.594  28.907  0.0314 -0.3240  0.1924
67365W        W10303  12.511  32.558  29.261  0.0853 -0.1900 -0.0826
67366W        W10304  10.893  33.749  30.324 -0.2552 -0.0535 -0.1007
67367W        W10305  13.096   0.027  31.611 -0.2248 -0.2935 -0.0885
67368W        W10306  10.542  34.425  28.353  0.2242 -0.0274 -0.1950
67369W        W10307  13.095  31.911  29.261 -0.0835  0.3179 -0.0640
67370W        W10308  13.911  34.617  26.931  0.0077 -0.2459  0.1803
67371W        W10309  12.625  33.560  28.650 -0.4714 -0.1158 -0.1543
67372W        W10310  12.936  34.143  26.678 -0.0296 -0.1021  0.2564
67373W        W10311  14.865   0.244  25.909  0.3772 -0.1730 -0.0565
67374W        W10312  12.687  34.662  30.449  0.1144  0.0248  0.2883
67375W        W10313  12.329  33.585  27.231  0.0433  0.0470  0.2116
67376W        W10314  11.954  31.719  28.869 -0.2973  0.0223 -0.3430
67377W        W10315  14.275  34.242  31.163  0.0018 -0.1837  0.2378
67378W        W10316  11.652  34.268  30.583 -0.1661  0.1529  0.0099
67379W        W10317  12.410  33.576  29.762 -0.1329  0.1139  0.0543
67380W        W10318  15.205   0.156  31.070  0.1245 -0.1732  0.2264
67381W        W10319  13.574   0.310  28.864 -0.3038  0.3127  0.4072
67382W        W10320  13.463   0.979  29.664  0.0514 -0.2735  0.0594
67383W        W10321   9.901   0.605  27.241 -0.1339  0.2904 -0.0116
67384W        W10322  13.570  33.715  30.571 -0.1393 -0.1607  0.3190
67385W        W10323  11.845  34.688  30.367 -0.0491  0.0427  0.0876
67386W        W10324  13.956  33.688  26.729  0.1157  0.0144  0.2802
67387W        W10325  10.630  33.364  29.636 -0.1863  0.0629  0.1518
67388W        W10326  13.889  34.087  30.143 -0.0473 -0.1687 -0.0589
67389W        W10327  13.193  33.747  28.696 -0.0395  0.1571  0.0119
67390W        W10328  10.685  34.410  29.111 -0.0328 -0.1240 -0.0661
67391W        W10329  13.269  34.654  28.949 -0.1620 -0.2482 -0.1207
67392W        W10330  11.667  34.215  29.627  0.1441  0.0259  0.2267
67393W        W10331  11.484  34.054  29.081 -0.3364  0.0510  0.3192
67394W        W10332  14.524   0.875   0.468 -0.0519 -0.1381  0.0325
67395W        W10333  13.382  33.229  27.880 -0.0079  0.0662 -0.0432
67396W        W10334  12.859   0.406  31.296  0.1915  0.0293  0.0745
67397W        W10335  10.377  33.728  28.242 -0.1505  0.0825  0.2810
67398W        W10336  14.355   0.804  29.770 -0.1368  0.1812 -0.1859
67399W        W10337  13.920   0.553  29.786 -0.2543  0.0386 -0.0920
67400W        W10338  11.877  34.053  28.162  0.0317 -0.0479 -0.2295
67401W        W10339  11.755   0.858  30.368 -0.1106  0.1911  0.2864
67402W        W10340  10.908  33.911  28.999  0.0062  0.2720 -0.1219
67403W        W10341  11.202  33.062  28.306  0.1571  0.1165  0.1708
67404W        W10342  11.957  34.463  29.269 -0.1728  0.1521  0.1844
67405W        W10343  13.536  34.374  30.324  0.0704 -0.0508  0.1859
67406W        W10344  13.250  33.281  28.936  0.0841  0.0656  0.1731
67407W        W10345  13.031   0.374  30.716 -0.0214 -0.0459 -0.3315
67408W        W10346  11.706   0.393  30.063  0.0895  0.3309 -0.5127
67409W        W10347  13.939   0.067  29.099 -0.1543 -0.1746 -0.1591
67410W        W10348  13.151   1.103  29.223 -0.1067  0.2102  0.2613
67411W        W10349  14.183  32.804  30.142  0.2695 -0.4283  0.0924
67412W        W10350  13.131   0.265  28.027 -0.0279 -0.1972  0.1662
67413W        W10351  14.971  33.188  30.190 -0.0778 -0.3155  0.1779
67414W        W10352  11.373   0.070  30.300 -0.2084  0.2128  0.2047
67415W        W10353  12.329   1.106  31.387  0.0142  0.0294 -0.1572
67416W        W10354  12.155   0.004  31.941  0.0699 -0.0833  0.1652
67417W        W10355  12.104  32.627  28.895 -0.1807  0.7084  0.0269
67418W        W10356  12.523  32.615  27.631  0.0725 -0.0363  0.1765
67419W        W10357  11.830   0.373  29.551 -0.0916  0.1213  0.0782
67420W        W10358  13.283  33.144  29.843 -0.0353  0.1248 -0.1950
67421W        W10359  11.308   0.240  29.674  0.2268 -0.0263  0.0090
67422W        W10360  13.403   2.050  29.644 -0.0685 -0.2999  0.1619
67423W        W10361  12.103  34.089  30.731  0.4286 -0.2874  0.3202
67424W        W10362  12.187  34.341  29.690  0.0174  0.3665  0.0361
67425W        W10363  12.500  33.855  30.268 -0.0279  0.0414 -0.0288
67426W        W10364  15.057   0.230  30.381 -0.0274  0.1399  0.2483
67427W        W10365  12.722   1.225  30.784  0.2117 -0.0841  0.2228
67428W        W10366  12.484  32.397  31.109  0.2013 -0.1522 -0.1472
67429W        W10367  15.269   0.025  27.721  0.1215 -0.0849  0.1334
67430W        W10368  13.491  33.704  29.702 -0.1284 -0.2398  0.2050
67431W        W10369  14.506   1.054  29.332  0.1164  0.2368  0.0854
67432W        W10370  13.579   1.209  27.612 -0.2622 -0.0712 -0.3046
67433W        W10371  11.126   0.196  28.079  0.0045  0.2518 -0.2029
67434W        W10372  14.263   1.915  30.940  0.1906 -0.0302 -0.0882
67435W        W10373  11.835  34.254  27.695 -0.2116  0.0094 -0.0815
67436W        W10374  14.251  34.250  29.803  0.0142  0.3149  0.1807
67437W        W10375  13.294   0.787  28.574  0.2843  0.1180 -0.1538
67438W        W10376  10.902  33.113  28.905 -0.1536 -0.2769  0.0443
67439W        W10377  11.833  33.757  27.355 -0.0188  0.0684  0.0632
67440W        W10378  11.921   0.370  27.316 -0.1467 -0.0160  0.0717
67441W        W10379  12.442  31.592  29.018  0.1218  0.1209  0.2085
67442W        W10380  14.059  34.550  30.312 -0.1922  0.1241 -0.0262
67443W        W10381  12.026  33.835  29.840  0.0416 -0.2931  0.1856
67444W        W10382  13.005  33.705  31.310  0.2450 -0.0264  0.0717
67445W        W10383  12.733   1.632  28.392  0.1176 -0.2662 -0.0778
67446W        W10384  12.906   0.263  29.793 -0.2777 -0.3560 -0.2323
67447W        W10385  14.574   0.527  30.155 -0.0848 -0.0139 -0.1184
67448W        W10386  11.351   0.493  29.252  0.4560  0.3355 -0.1608
67449W        W10387  11.410  33.032  30.723  0.0848 -0.1658 -0.0259
67450W        W10388  11.824  32.210  28.116 -0.0016 -0.0790 -0.0502
67451W        W10389  13.665   0.357  27.217  0.0882  0.1832  0.0211
67452W        W10390  15.888  34.005  26.680  0.1489  0.0477 -0.1177
67453W        W10391  14.947   0.475  29.137  0.3754  0.2829  0.4001
67454W        W10392  14.010   0.896  29.297  0.0567  0.1487  0.0540
67455W        W10393  12.652   1.433  29.199 -0.0957 -0.2698 -0.0186
67456W        W10394  12.539  32.683  28.146  0.1144 -0.0532  0.2382
67457W        W10395  12.570  33.986  31.912  0.0225 -0.0706 -0.0494
67458W        W10396  13.821  34.190  30.692  0.0924  0.3329 -0.0022
67459W        W10397  10.478  32.905  28.900  0.0760 -0.1331 -0.1854
67460W        W10398  12.568   0.297  28.566 -0.1336 -0.0719  0.1508
67461W        W10399  14.475  32.949  31.027  0.1953  0.0819  0.0332
67462W        W10400  12.003  33.375  29.464 -0.0942 -0.0264  0.0537
67463W        W10401  11.124  32.644  27.869  0.0576 -0.2686 -0.0478
67464W        W10402  14.208   0.434  29.378  0.0812  0.0489 -0.1035
67465W        W10403  11.521  33.741  29.543 -0.2166 -0.0572  0.1341
67466W        W10404  15.319  32.976   0.166  0.0704  0.0205  0.2019
67467W        W10405  10.941  34.687  29.516 -0.0675 -0.1991  0.2223
67468W        W10406  13.896  34.076  28.338 -0.5022 -0.4481  0.1825
67469W        W10407  10.924   0.019  30.033  0.1340  0.1687 -0.2419
67470W        W10408  13.582   0.302  26.662 -0.4468  0.0597  0.0591
67471W        W10409  14.672   0.414  28.615  0.1732 -0.1410 -0.1386
67472W        W10410  14.511   0.344  26.714  0.2647 -0.0437  0.0070
67473W        W10411  11.003  34.443  28.454  0.0630 -0.0276 -0.2237
67474W        W10412  13.334  34.092  27.426 -0.0518  0.0515 -0.0244
67475W        W10413  12.083   0.309  27.843 -0.0932 -0.0180  0.1767
67476W        W10414  13.156  34.172  29.081  0.0492  0.2607 -0.0619
67477W        W10415  11.293  32.970  29.200  0.0188  0.0937  0.0311
67478W        W10416  13.009  33.799  30.452  0.3457 -0.3076  0.1799
67479W        W10417  13.724   1.249  28.611  0.0406 -0.0598 -0.2100
67480W        W10418  10.828   0.891  29.920 -0.0848 -0.0456 -0.0395
67481W        W10419  12.656  33.148  30.058  0.2634 -0.2141  0.0422
67482W        W10420  11.071  34.238  29.370  0.0172  0.2224 -0.2166
67483W        W10421  14.190  34.181  29.248  0.1939 -0.0165  0.0565
67484W        W10422  14.841   0.926  30.457 -0.0800  0.0799  0.0394
67485W        W10423  13.757  34.216  29.650  0.0626 -0.4259 -0.0750
67486W        W10424  12.208  34.370  28.489 -0.2399  0.1619 -0.3131
67487W        W10425  12.387  34.191  27.916 -0.5087 -0.0100  0.1238
67488W        W10426  13.363  34.050  28.241 -0.0390  0.1250 -0.1019
67489W        W10427  14.173   0.263  28.719 -0.2148  0.0659 -0.2271
67490W        W10428  13.376   0.444  29.897  0.0819 -0.1626  0.1786
67491W        W10429  11.720  34.255  28.657 -0.1627  0.2737 -0.0240
67492W        W10430  13.310  32.371  30.498  0.0711 -0.6420  0.2294
67493W        W10431  11.023  33.898  29.699  0.3104  0.0182  0.0298
67494W        W10432  11.995  33.914  29.353 -0.0051 -0.0078  0.2359
67495W        W10433  11.573  33.025  28.692  0.1222  0.1638 -0.0492
67496W        W10434  10.350  33.055  29.911  0.1884  0.1690 -0.2017
67497W        W10435  11.016  32.059  29.172  0.1611 -0.0365 -0.1547
67498W        W10436  12.876   0.271  29.094 -0.1309 -0.4164 -0.3863
67499W        W10437  13.623   0.419  30.945  0.1819 -0.1385 -0.0707
67500W        W10438  12.179  33.695  31.132 -0.1714 -0.1542 -0.2225
67501W        W10439  10.943  34.158  27.979  0.2088  0.0076  0.0212
67502W        W10440  13.290   0.230  29.394  0.0019 -0.2168  0.2235
67503W        W10441  11.718  33.394  31.238 -0.2829 -0.1907  0.0248
67504W        W10442  14.429  33.719  28.936 -0.0838 -0.0400  0.1018
67505W        W10443  12.621  34.533  28.767  0.0024  0.1191 -0.2924
67506W        W10444  12.116  32.462  30.097  0.1045  0.2224  0.1324
67507W        W10445  13.207  34.340  27.898  0.1791 -0.2733  0.1053
67508W        W10446  13.685  34.615  28.043  0.0678 -0.0062  0.1541
67509W        W10447  12.102   0.736  31.096 -0.1872 -0.0381 -0.0382
67510W        W10448  13.544   0.396  27.764 -0.0641  0.1724  0.0650
67511W        W10449  12.318  34.309  30.368  0.1584 -0.1776  0.0839
67512W        W10450  13.324  34.576  28.372 -0.0027 -0.0514  0.5460
67513W        W10451  14.870   0.718  26.998  0.0750 -0.0793 -0.1616
67514W        W10452  12.619  32.862  31.372  0.1874 -0.2623 -0.0299
67515W        W10453  11.204  34.449  28.876 -0.1318  0.1166  0.1152
67516W        W10454  13.013   1.218  29.721  0.2522  0.0410  0.0388
67517W        W10455  12.972  34.308  30.157 -0.0106  0.2736 -0.0981
67518W        W10456  12.749  34.674  27.682  0.0409  0.0358  0.1532
67519W        W10457  13.433  32.851  28.253  0.4003  0.0646 -0.0601
67520W        W10458  13.943  33.672  30.945  0.1607  0.1413 -0.0767
67521W        W10459  14.969  34.452  31.930 -0.1725 -0.1674 -0.0391
67522W        W10460  11.706  33.816  30.954 -0.0160 -0.1250  0.0902
67523W        W10461  13.050   0.925   0.427  0.0081  0.0111  0.1016
67524W        W10462  10.784  33.731  30.895 -0.0255 -0.1506  0.0479
67525W        W10463  13.517  33.215  30.767 -0.0451 -0.1299 -0.1769
67526W        W10464  12.726   0.021  30.904 -0.1423  0.2416 -0.3487
67527W        W10465  14.207  34.664  31.493 -0.1786 -0.1796  0.0678
67528W        W10466  12.636  33.394  31.363  0.0187  0.1637  0.1481
67529W        W10467  13.416  34.517   0.039  0.2137  0.3558  0.1174
67530W        W10468  11.566  32.996  31.425 -0.2071 -0.3520  0.0466
67531W        W10469  13.303  32.590  31.752  0.0454  0.0883 -0.1025
67532W        W10470  13.428  33.699  31.668  0.3755 -0.0927  0.1777
67533W        W10471  13.336  34.093  30.809 -0.0538 -0.0127 -0.1681
67534W        W10472  12.862  33.480   0.655  0.0004 -0.1499  0.0510
67535W        W10473  11.874  33.794  30.374 -0.0034 -0.2503  0.0240
67536W        W10474  12.144  33.191  31.418  0.0925  0.1274 -0.3199
67537W        W10475  12.949  32.106  31.132 -0.0457 -0.0326 -0.0307
67538W        W10476  12.200  31.584  30.137 -0.0168 -0.0905 -0.2147
67539W        W10477  10.969  33.193  31.777  0.2703 -0.1082 -0.1687
67540W        W10478  13.850  34.560  31.157  0.0081  0.0435  0.1948
67541W        W10479  14.897  33.106   0.395 -0.1068 -0.0673 -0.0032
67542W        W10480  12.710  34.226  30.696  0.0641 -0.0959 -0.1004
67543W        W10481  11.154  34.124  31.123  0.2176 -0.2105  0.5282
67544W        W10482  12.626  33.760  30.851  0.0697  0.0761  0.2439
67545W        W10483  12.949   0.250   2.110 -0.0562 -0.1990  0.1057
67546W        W10484  12.594  34.564  29.899  0.0318 -0.1340  0.2468
67547W        W10485  13.941  33.694  31.442 -0.0810 -0.2304  0.0940
67548W        W10486  12.592  34.012   0.743  0.0628 -0.2609 -0.1150
67549W        W10487  13.912   0.252   0.732  0.1706  0.0775 -0.2894
67550W        W10488  13.835   0.487  31.372  0.0032 -0.1672  0.0394
67551W        W10489  12.969  34.201  31.214  0.1484  0.2365 -0.0702
67552W        W10490  11.777  32.794  31.015 -0.0950  0.2445  0.1494
67553W        W10491  14.623  34.443  31.524  0.1569  0.2681 -0.0108
67554W        W10492  14.347   2.036  20.771  0.1190 -0.2081 -0.1208
67555W        W10493  16.007   0.991  17.079 -0.0941 -0.0238 -0.0223
67556W        W10494  17.468  34.312  16.594 -0.0580 -0.1984  0.2662
67557W        W10495  17.870   1.430  16.422  0.0429 -0.0842 -0.2397
67558W        W10496  14.840   1.061  16.423  0.1105  0.0170 -0.1537
67559W        W10497  18.223   3.502  16.584 -0.0667  0.2757  0.0212
67560W        W10498  13.915   0.013  19.273  0.3789 -0.3418 -0.0047
67561W        W10499  17.871   3.034  18.760  0.0853  0.2556  0.0135
67562W        W10500  17.547   2.350  18.597 -0.0197 -0.2569  0.3976
67563W        W10501  16.282   1.461  16.842 -0.1680 -0.0568 -0.2250
67564W        W10502  15.441   0.468  18.070  0.2773 -0.0021 -0.2409
67565W        W10503  15.343   2.663  19.506  0.1733 -0.1041  0.1040
67566W        W10504  15.749  33.855  16.318  0.0009  0.1640  0.0393
67567W        W10505  13.454  33.832  19.315 -0.0876  0.1903  0.2553
67568W        W10506  17.598   0.412  18.666  0.2984 -0.0614  0.1411
67569W        W10507  15.361   1.423  16.392 -0.0475 -0.3671  0.1286
67570W        W10508  14.074  34.241  19.440 -0.2252 -0.1449 -0.4346
67571W        W10509  15.855   1.503  16.513  0.0909 -0.1166 -0.1896
67572W        W10510  17.849   3.510  18.444  0.0484 -0.3130 -0.0741
67573W        W10511  14.690   0.050  18.412  0.0830  0.1074 -0.0476
67574W        W10512  16.906  33.343  18.151  0.2968 -0.1840 -0.1273
67575W        W10513  16.055   3.136  17.171  0.1040  0.0341  0.1371
67576W        W10514  15.723  34.411  15.752  0.1359  0.0451  0.0823
67577W        W10515  14.882   0.109  16.685 -0.2091 -0.0388 -0.0473
67578W        W10516  15.136   1.428  18.191  0.1974  0.0575 -0.1860
67579W        W10517  18.187  33.939  18.355  0.1327 -0.5633  0.0775
67580W        W10518  16.821   0.785  17.910 -0.5214 -0.1077 -0.1621
67581W        W10519  16.401   3.543  18.103  0.1109  0.3300  0.0416
67582W        W10520  17.397   2.858  18.676 -0.2101 -0.3809  0.3220
67583W        W10521  18.036   0.461  19.893 -0.2492  0.2074 -0.2563
67584W        W10522  14.350   2.720  18.266  0.1000  0.2147  0.1388
67585W        W10523  13.072   3.667  17.066  0.0930  0.3082  0.1280
67586W        W10524  15.433   2.374  18.442 -0.1286 -0.1797  0.4983
67587W        W10525  18.065   2.428  17.848 -0.0424  0.1027  0.1279
67588W        W10526  17.319   3.189  19.014  0.1007 -0.0156  0.1361
67589W        W10527  14.923   2.516  21.664  0.1083 -0.1029 -0.1568
67590W        W10528  14.620   2.075  16.672  0.0742 -0.0211  0.1439
67591W        W10529  16.551   3.400  19.931 -0.3288 -0.0428  0.3512
67592W        W10530  15.214   1.684  20.568 -0.1390 -0.4671  0.3191
67593W        W10531  16.813   1.549  17.218  0.0323  0.3086  0.1012
67594W        W10532  15.582   1.501  17.897  0.2227 -0.2576 -0.0957
67595W        W10533  15.733   3.393  17.532  0.2064 -0.1729  0.2884
67596W        W10534  18.363   0.371  19.166 -0.0255  0.0109 -0.0025
67597W        W10535  15.582   0.847  20.876  0.0129  0.1348  0.3024
67598W        W10536  14.539   2.282  18.146 -0.0762 -0.1523 -0.1304
67599W        W10537  18.132   0.866  19.051  0.1885  0.1067  0.0469
67600W        W10538  15.420   2.207  16.853 -0.0764  0.3577 -0.1211
67601W        W10539  16.661   0.297  16.661 -0.1457  0.4303  0.2273
67602W        W10540  15.694  34.481  16.927 -0.1188  0.0353 -0.1934
67603W        W10541  16.213   0.451  16.468 -0.0377 -0.1844 -0.2035
67604W        W10542  15.457  34.335  18.138  0.0889 -0.0325 -0.0892
67605W        W10543  14.410   1.780  18.085  0.0008 -0.5182 -0.2694
67606W        W10544  14.653   0.782  19.086 -0.0947  0.0905 -0.3166
67607W        W10545  16.668   2.875  20.108  0.0550 -0.0178 -0.1100
67608W        W10546  16.791   1.313  17.710  0.2464  0.1346 -0.3012
67609W        W10547  18.559   1.220  19.445 -0.1175 -0.2167 -0.1193
67610W        W10548  14.535   3.055  18.581 -0.0233  0.1006  0.0703
67611W        W10549  13.258   1.874  17.396  0.2216  0.0696  0.0426
67612W        W10550  17.581   4.241  16.629 -0.1872 -0.1760 -0.1145
67613W        W10551  18.141   3.585  17.125 -0.0015  0.5742  0.1684
67614W        W10552  16.280   2.682  16.590 -0.0694  0.2272 -0.1823
67615W        W10553  14.349   0.929  16.542  0.0577  0.1023 -0.1831
67616W        W10554  14.380   2.611  19.319 -0.0533 -0.0573 -0.0098
67617W        W10555  14.870   2.337  19.471  0.1836  0.1377  0.1458
67618W        W10556  16.163   0.117  16.091 -0.0428 -0.0967  0.0678
67619W        W10557  17.670   1.396  19.692 -0.0531  0.2302  0.2422
67620W        W10558  14.039   2.865  19.056  0.0700 -0.3822  0.2103
67621W        W10559  18.854   0.349  17.134  0.1373  0.0049  0.0950
67622W        W10560  15.250   2.780  17.192  0.0456  0.1150  0.1020
67623W        W10561  16.569   2.050  19.467 -0.0999 -0.1343  0.0199
67624W        W10562  16.317   1.974  15.826 -0.0582  0.0549 -0.1736
67625W        W10563  17.842  34.353  17.541 -0.0747  0.0170 -0.0841
67626W        W10564  17.905   0.242  18.263 -0.1280 -0.1908  0.1281
67627W        W10565  15.443   2.536  16.145 -0.1365 -0.1479 -0.4247
67628W        W10566  15.929   1.946  16.705 -0.1970 -0.4644 -0.2331
67629W        W10567  18.925   3.988  18.340  0.1143  0.0473 -0.1073
67630W        W10568  17.841   1.279  15.969  0.2995  0.1594 -0.0535
67631W        W10569  14.573   4.078  18.084  0.1360 -0.1236  0.1160
67632W        W10570  16.466   0.559  18.821 -0.2464  0.0546 -0.2537
67633W        W10571  17.086   1.927  19.854 -0.1503 -0.3814 -0.1687
67634W        W10572  14.692   3.797  16.293  0.3241 -0.2241  0.4076
67635W        W10573  15.428   1.896  18.326 -0.0152  0.0939 -0.1316
67636W        W10574  14.806   2.733  17.957  0.0978  0.3348  0.0945
67637W        W10575  13.607  34.316  19.247 -0.4342  0.2559 -0.0834
67638W        W10576  15.915   2.360  18.159  0.0052  0.0406 -0.0931
67639W        W10577  18.573  34.123  17.094  0.3667 -0.1467  0.1275
67640W        W10578  16.156   0.006  20.425 -0.0019 -0.0616 -0.0183
67641W        W10579  17.211   0.975  17.672 -0.0431 -0.2342  0.5318
67642W        W10580  14.988   1.787  16.345 -0.2866  0.0741  0.3430
67643W        W10581  17.700   2.996  16.763  0.2003 -0.3013  0.0219
67644W        W10582  15.972   0.341  18.105  0.1261 -0.0591 -0.1443
67645W        W10583  16.570   2.317  16.232 -0.1303 -0.1087  0.0695
67646W        W10584  13.794   0.840  18.978 -0.0625  0.0340  0.2327
67647W        W10585  14.424   0.495  18.538  0.0268 -0.0338  0.1509
67648W        W10586  16.119   0.721  19.406  0.1369  0.2104  0.0995
67649W        W10587  15.422  34.013  19.199  0.2185 -0.1424  0.1701
67650W        W10588  16.974   1.809  19.388 -0.0271  0.1673  0.1733
67651W        W10589  14.683  34.255  16.867  0.0868  0.2106  0.0175
67652W        W10590  18.164   2.929  18.096 -0.1181  0.0701  0.0377
67653W        W10591  15.063   1.384  17.715 -0.0369  0.1814  0.1276
67654W        W10592  14.553   1.871  16.029 -0.0025 -0.1913  0.0707
67655W        W10593  17.319   1.613  18.968  0.0705 -0.0581  0.2822
67656W        W10594  16.919   3.183  17.161  0.0992 -0.1345 -0.2944
67657W        W10595  18.775   2.238  19.179  0.0006 -0.2162 -0.2125
67658W        W10596  17.462   4.503  17.058 -0.2069  0.0027 -0.3023
67659W        W10597  14.545  34.424  19.439  0.0982 -0.3499 -0.0616
67660W        W10598  16.658   0.733  16.355 -0.4576  0.0865 -0.1087
67661W        W10599  13.751   4.709  17.021  0.1688 -0.3286  0.1367
67662W        W10600  15.489   0.917  19.062  0.0518 -0.1285 -0.1083
67663W        W10601  15.757   0.446  16.308  0.0446  0.0057 -0.0171
67664W        W10602  17.427   2.858  16.364  0.1922  0.1494 -0.1133
67665W        W10603  16.703   1.825  16.811 -0.2712 -0.1479 -0.3935
67666W        W10604  15.990   1.182  20.762  0.2141 -0.4035  0.1684
67667W        W10605  17.535  34.266  18.907  0.0143  0.3338 -0.0114
67668W        W10606  17.593   1.873  18.517  0.0192  0.0087 -0.0769
67669W        W10607  15.482   1.722  17.416 -0.2963  0.2770  0.1106
67670W        W10608  15.191  34.011  15.602 -0.1080 -0.2019  0.2502
67671W        W10609  15.367   0.921  20.012 -0.1425  0.2772 -0.1948
67672W        W10610  15.440   3.413  15.882 -0.0249 -0.0142 -0.0603
67673W        W10611  14.709   2.325  15.627  0.2636 -0.1580 -0.4440
67674W        W10612  15.096   3.326  18.346 -0.2911  0.0772  0.1059
67675W        W10613  18.316   1.374  18.147 -0.0765 -0.2929 -0.4385
67676W        W10614  14.833   0.771  18.594 -0.2973 -0.1116  0.4183
67677W        W10615  16.304   1.464  18.932  0.2438  0.0480 -0.1542
67678W        W10616  15.911   1.315  19.239  0.2184  0.0262  0.1677
67679W        W10617  14.630   1.250  18.527  0.3524 -0.1250 -0.0337
67680W        W10618  15.980   0.842  18.157 -0.3248  0.0931 -0.0161
67681W        W10619  17.574   1.271  17.100  0.1318  0.2063 -0.2442
67682W        W10620  16.184   1.719  19.411 -0.1824 -0.0854 -0.1152
67683W        W10621  16.531   2.957  16.878  0.0730 -0.0768  0.2039
67684W        W10622  17.263   1.910  16.175  0.2254 -0.0655 -0.0733
67685W        W10623  16.165  33.618  15.240 -0.2316  0.0825  0.0603
67686W        W10624  14.786   3.144  19.811  0.1294 -0.1575  0.3389
67687W        W10625  15.829   1.755  15.904  0.0933 -0.1483  0.3547
67688W        W10626  15.928   1.132  17.709 -0.1219 -0.1890  0.0691
67689W        W10627  16.469   0.475  15.939 -0.1214 -0.0824 -0.1146
67690W        W10628  17.290   1.698  16.967  0.0123  0.3844  0.1181
67691W        W10629  14.171   2.197  19.559  0.3522 -0.0592 -0.1958
67692W        W10630  18.497   3.224  19.536  0.5246  0.0921 -0.0036
67693W        W10631  16.925   2.981  18.516  0.3544 -0.3008  0.0408
67694W        W10632  16.029  34.552  18.658  0.1154  0.0888  0.5222
67695W        W10633  16.890   0.689  16.906  0.3991  0.0239 -0.0980
67696W        W10634  17.294   0.213  18.157 -0.0608  0.0027  0.0260
67697W        W10635  13.426   3.106  16.374 -0.0437 -0.5484  0.0920
67698W        W10636  17.589   0.661  19.125  0.1633 -0.1841  0.0143
67699W        W10637  16.640  33.449  17.354  0.1321  0.0614  0.3000
67700W        W10638  15.159   0.016  18.964  0.2008  0.0577 -0.1949
67701W        W10639  18.435   1.476  20.180 -0.1837 -0.0672 -0.4267
67702W        W10640  17.501   2.280  17.419 -0.0850  0.0826  0.0155
67703W        W10641  18.287   1.235  18.594  0.0191  0.0907  0.0828
67704W        W10642  15.897   0.003  16.547 -0.4555  0.2707 -0.0556
67705W        W10643  14.787   0.836  17.697  0.1260  0.5766  0.1507
67706W        W10644  15.820   1.426  18.643 -0.1476  0.2230  0.1581
67707W        W10645  14.890   2.427  18.438 -0.1587  0.1619 -0.0660
67708W        W10646  17.580   2.554  18.115 -0.1446  0.0382  0.0466
67709W        W10647  17.576   1.847  16.565  0.4586 -0.3361 -0.3882
67710W        W10648  16.732  33.860  18.846  0.1967  0.1601 -0.0560
67711W        W10649  17.401  34.586  17.658 -0.1023  0.0998 -0.3561
67712W        W10650  16.517   2.276  17.335 -0.3745 -0.1120  0.2648
67713W        W10651  15.008   1.892  16.925 -0.2114  0.1406 -0.2325
67714W        W10652  14.376  34.497  18.093  0.1443 -0.0961  0.1094
67715W        W10653  16.339   2.062  18.932  0.0193 -0.1302 -0.0346
67716W        W10654  16.539   3.209  16.464  0.1021 -0.0168 -0.0792
67717W        W10655  17.910   2.104  16.937 -0.2300  0.1566  0.4665
67718W        W10656  15.303   1.155  18.610 -0.2800  0.0458 -0.3857
67719W        W10657  18.268  33.980  17.564 -0.1555 -0.1255 -0.1036
67720W        W10658  14.154   1.409  18.279 -0.1183 -0.1203  0.1370
67721W        W10659  15.368   0.752  16.404 -0.0425  0.0620  0.2588
67722W        W10660  15.593   1.207  16.797  0.1695  0.0709  0.0584
67723W        W10661  16.916  34.317  17.666 -0.0067  0.2993  0.2530
67724W        W10662  17.119   1.191  16.969 -0.3553  0.2625  0.0391
67725W        W10663  14.356   0.862  17.236  0.1393  0.1698  0.2372
67726W        W10664  16.173  34.312  17.163  0.2426  0.0381 -0.0142
67727W        W10665  13.579   2.161  17.961 -0.1288  0.3457 -0.3070
67728W        W10666  17.671   1.159  19.223  0.1967  0.3285 -0.2598
67729W        W10667  16.968  33.764  16.398  0.0699 -0.2512  0.0357
67730W        W10668  15.563   2.856  18.099 -0.1078 -0.1505  0.0886
67731W        W10669  15.012   1.666  18.676  0.0283 -0.0044 -0.1298
67732W        W10670  15.144   0.977  16.785 -0.2156  0.0805  0.0200
67733W        W10671  17.322   2.043  18.126  0.0146 -0.2686  0.0595
67734W        W10672  17.428  33.354  17.895 -0.2692  0.3342  0.1683
67735W        W10673  15.760   2.092  17.216 -0.0942 -0.2471  0.1065
67736W        W10674  15.755   2.884  17.416  0.1399 -0.0533 -0.2601
67737W        W10675  14.772   0.482  18.141  0.0744  0.0061  0.1324
67738W        W10676  15.200   2.401  17.933 -0.3397  0.1244 -0.0254
67739W        W10677  16.623   1.452  19.357  0.1571 -0.2919  0.0293
67740W        W10678  17.964   2.598  18.446  0.0291  0.1319  0.0713
67741W        W10679  16.040   1.698  17.716  0.1456 -0.0746  0.1409
67742W        W10680  16.161   0.300  17.593  0.0930 -0.2333 -0.1133
67743W        W10681  16.344   1.378  17.349 -0.0826 -0.1629 -0.4748
67744W        W10682  16.442   1.617  17.971 -0.0965 -0.2019  0.1680
67745W        W10683  16.727   1.038  18.804 -0.1009 -0.1833 -0.1072
67746W        W10684  13.876   4.337  21.347 -0.0491  0.1199  0.1501
67747W        W10685  17.419  34.062  17.698 -0.2540  0.4756 -0.0312
67748W        W10686  18.691   3.587  17.129 -0.2016 -0.2250  0.1696
67749W        W10687  16.992   2.552  19.805  0.3173 -0.1190 -0.0534
67750W        W10688  15.056   2.289  16.440 -0.3037 -0.3430 -0.1440
67751W        W10689  13.906   0.472  18.544  0.2652  0.0242  0.0378
67752W        W10690  16.391   0.794  16.834 -0.2103  0.0116 -0.3147
67753W        W10691  16.871   0.424  18.511 -0.2367 -0.0757  0.0213
67754W        W10692  14.091   1.772  19.210  0.1503  0.1754 -0.0843
67755W        W10693  16.321   1.782  16.307  0.1743  0.0154 -0.0679
67756W        W10694  14.381   0.569  17.666 -0.1857 -0.2161 -0.2491
67757W        W10695  17.486   0.394  15.999 -0.1902 -0.1091 -0.0995
67758W        W10696  16.481   2.864  16.101 -0.2073  0.0085 -0.2480
67759W        W10697  15.865   0.637  17.448  0.0113 -0.0981  0.1865
67760W        W10698  20.097   0.778  19.072  0.0392  0.1416  0.0436
67761W        W10699  18.300   1.221  16.257 -0.3589  0.1713  0.1923
67762W        W10700  16.000   0.261  19.693  0.1596 -0.4496  0.0232
67763W        W10701  14.501   0.892  18.132  0.0887  0.1506 -0.2795
67764W        W10702  16.592   3.031  18.126 -0.0760 -0.0634  0.1354
67765W        W10703  13.254   0.043  20.023  0.1458  0.1443  0.1528
67766W        W10704  17.101   2.832  20.398  0.4147  0.1455 -0.0448
67767W        W10705  13.743   2.263  19.221  0.0592 -0.2653 -0.1860
67768W        W10706  17.024   0.060  17.364 -0.2696  0.0506 -0.3068
67769W        W10707  15.237   1.053  16.046 -0.0934  0.0955 -0.2271
67770W        W10708  15.605   0.687  18.574 -0.0734 -0.0703  0.1164
67771W        W10709  17.437   3.211  18.329 -0.1136 -0.3589  0.0715
67772W        W10710  16.393   3.511  16.859 -0.1468 -0.0072  0.1639
67773W        W10711  17.257   1.467  17.465 -0.0678 -0.0995  0.1544
67774W        W10712  15.627   2.478  17.656 -0.2932 -0.1799 -0.1526
67775W        W10713  17.918   2.080  18.245 -0.1032 -0.1405 -0.0106
67776W        W10714  16.675   1.225  16.770  0.0488  0.1242  0.1952
67777W        W10715  14.716   2.072  17.773 -0.0017  0.2843 -0.1343
67778W        W10716  15.606  34.349  18.715  0.4625  0.0271 -0.0291
67779W        W10717  16.615   0.824  18.387  0.1788 -0.0788 -0.0293
67780W        W10718  17.927   0.047  17.300 -0.2261  0.1954  0.1167
67781W        W10719  16.240   1.114  18.581 -0.3436  0.2139  0.1772
67782W        W10720  16.789   0.898  19.384 -0.0038 -0.2824 -0.1553
67783W        W10721  15.660   0.972  19.493 -0.0763  0.1396 -0.2670
67784W        W10722  13.303   0.491  19.691  0.0122  0.0249 -0.1342
67785W        W10723  17.240   5.001  19.334  0.0977 -0.3286  0.0681
67786W        W10724  17.090   0.191  15.760 -0.1045 -0.2428 -0.3381
67787W        W10725  17.375   0.878  18.632  0.0052 -0.0182 -0.0352
67788W        W10726  16.259   1.843  17.154  0.0157 -0.2476  0.0555
67789W        W10727  15.456   0.805  17.110  0.5042  0.0088 -0.5284
67790W        W10728  14.982   0.546  16.193 -0.1113  0.3112  0.2472
67791W        W10729  16.661   1.055  20.871 -0.1352  0.1502 -0.0303
67792W        W10730  14.753   0.371  15.783 -0.0255 -0.1468 -0.2906
67793W        W10731  17.874   0.904  19.644  0.0816  0.1600  0.2727
67794W        W10732  17.081   2.100  16.673  0.1736 -0.1519  0.0636
67795W        W10733  16.364   2.135  17.977  0.0526 -0.1300 -0.1439
67796W        W10734  16.384  34.312  15.905 -0.2060  0.0122  0.2670
67797W        W10735  14.572   0.289  16.271 -0.2931 -0.4584  0.0507
67798W        W10736  15.251   1.449  19.539 -0.1908 -0.5087  0.0447
67799W        W10737  13.791   0.282  16.763  0.0383 -0.0084 -0.0508
67800W        W10738  16.247   1.099  16.483 -0.1834  0.4283  0.0812
67801W        W10739  16.859   1.783  18.292 -0.0160 -0.0713 -0.0918
67802W        W10740  15.980   0.765  18.927  0.0785  0.2888 -0.2782
67803W        W10741  15.144  34.495  15.709 -0.2842  0.0440  0.2161
67804W        W10742  18.104   1.682  18.762 -0.2536 -0.2047  0.0421
67805W        W10743  14.648   1.334  18.038 -0.3733 -0.1002 -0.0963
67806W        W10744  16.037   0.294  18.598  0.0211 -0.1011 -0.0745
67807W        W10745  15.400   3.350  17.970  0.1019 -0.0245  0.1624
67808W        W10746  15.131   0.247  17.077  0.2571 -0.1394  0.4154
67809W        W10747  16.178   3.156  17.779  0.0806 -0.0654 -0.3657
67810W        W10748  16.597   1.883  17.600  0.1457 -0.0079 -0.0738
67811W        W10749  19.682   1.002  18.106  0.2137  0.1525 -0.3308
67812W        W10750  17.160   1.054  19.043 -0.0817 -0.1824  0.0396
67813W        W10751  18.424   0.520  20.253 -0.0444 -0.2505 -0.1277
67814W        W10752  14.963   1.302  20.366  0.1612  0.0361 -0.2562
67815W        W10753  14.905   1.250  18.959 -0.2281  0.2914 -0.2910
67816W        W10754  18.560   2.706  19.169  0.0677 -0.0621 -0.3028
67817W        W10755  18.159   1.354  19.197 -0.1406 -0.2287  0.0791
67818W        W10756  16.094   2.182  17.518  0.2937 -0.2409 -0.2680
67819W        W10757  13.562   1.754  18.893  0.1173 -0.1788 -0.0586
67820W        W10758  16.457   0.792  19.737  0.1845 -0.1483  0.1430
67821W        W10759  17.530   2.882  17.262 -0.0370  0.3879 -0.0727
67822W        W10760  15.204  34.662  17.477 -0.0735 -0.1604 -0.1706
67823W        W10761  17.105   0.999  16.468 -0.2642 -0.1460 -0.2179
67824W        W10762  12.287   4.766  19.533  0.0975  0.1654 -0.1121
67825W        W10763  14.745  34.500  18.952  0.4697  0.3776 -0.2051
67826W        W10764  14.182   2.217  15.736  0.0772  0.3122  0.0835
67827W        W10765  17.184   1.918  17.622 -0.3493  0.3252 -0.2712
67828W        W10766  16.393   1.134  18.001 -0.1435  0.1290  0.0469
67829W        W10767  17.565   4.088  19.006 -0.4800  0.0814 -0.0276
67830W        W10768  15.855   1.533  17.087 -0.2082  0.5851  0.2127
67831W        W10769  14.467   1.592  17.580  0.1153 -0.2622 -0.0382
67832W        W10770  14.388   3.522  16.653 -0.0293  0.4444 -0.0410
67833W        W10771  16.347   2.157  16.627 -0.0435  0.1481  0.1377
67834W        W10772  16.000   2.665  16.074 -0.1244 -0.0307  0.1325
67835W        W10773  17.705   2.770  20.152  0.1444 -0.1460  0.1218
67836W        W10774  17.694   0.017  16.832  0.4245 -0.3030 -0.2714
67837W        W10775  18.722   1.810  17.621 -0.1493 -0.2500  0.3760
67838W        W10776  17.461   0.821  16.847 -0.0762 -0.2654  0.0009
67839W        W10777  17.034   2.867  18.041  0.0140 -0.1815 -0.0424
67840W        W10778  15.108   0.608  18.966 -0.1143 -0.1259 -0.1931
67841W        W10779  17.007  34.304  16.392  0.0200 -0.0544 -0.1468
67842W        W10780  15.546   0.378  19.944 -0.2760 -0.2276  0.4979
67843W        W10781  18.652   0.991  20.583  0.4122  0.1532 -0.0330
67844W        W10782  13.710   3.512  18.919  0.0840 -0.0132 -0.2921
67845W        W10783  17.740   3.921  15.759  0.0974  0.1174 -0.0876
67846W        W10784  15.980   0.427  15.765 -0.0639  0.2629 -0.0926
67847W        W10785  15.461   1.444  19.056 -0.3343 -0.0480  0.1330
67848W        W10786  18.244   1.484  17.658 -0.1309  0.2399 -0.1069
67849W        W10787  16.111   1.397  16.036 -0.1509 -0.2085 -0.3144
67850W        W10788  15.352   0.938  17.685 -0.1259  0.1070  0.1128
67851W        W10789  15.199   3.281  17.342 -0.4461  0.0757 -0.0915
67852W        W10790  15.468   1.935  18.817  0.2878  0.0552  0.0452
67853W        W10791  16.701   4.410  18.795 -0.0278 -0.4028  0.2693
67854W        W10792  14.536   0.417  17.188 -0.1708  0.1082  0.1634
67855W        W10793  17.184   0.301  16.940 -0.2750  0.2074 -0.1209
67856W        W10794  16.230   1.264  19.608  0.0496 -0.0897 -0.0988
67857W        W10795  17.943   0.844  18.543  0.4408 -0.0925 -0.1683
67858W        W10796  14.973   0.751  17.204 -0.3981 -0.1173  0.1453
67859W        W10797  18.969   1.377  17.527  0.3074  0.0789  0.2127
67860W        W10798  16.072   1.435  18.225  0.1115 -0.1134 -0.3816
67861W        W10799  15.033   1.780  19.202 -0.2378  0.0528  0.1586
67862W        W10800  17.919   0.524  16.913  0.3901  0.2043  0.2546
67863W        W10801  18.833   1.136  19.881  0.1657 -0.2648 -0.1961
67864W        W10802  17.349   1.418  16.183 -0.1755  0.2356 -0.0156
67865W        W10803  18.075   4.024  18.920 -0.0909  0.1601  0.1692
67866W        W10804  14.746  34.619  17.186  0.3893 -0.2436 -0.0418
67867W        W10805  16.165  34.659  15.589 -0.0739 -0.1051 -0.1756
67868W        W10806  15.602   1.153  18.236  0.1007  0.0664 -0.0093
67869W        W10807  16.383   1.005  19.116  0.1052  0.2325  0.0973
67870W        W10808  16.768   2.596  19.346 -0.0850 -0.2592 -0.1075
67871W        W10809  15.779  34.123  17.807  0.2448  0.3826 -0.2717
67872W        W10810  17.474   2.787  15.821  0.1040 -0.0583 -0.2148
67873W        W10811  18.297   1.863  18.002 -0.2615  0.0015 -0.1825
67874W        W10812  16.299   3.051  15.674  0.2207 -0.1131  0.1365
67875W        W10813  18.040   1.201  17.273 -0.0838 -0.0601 -0.2958
67876W        W10814  17.268   3.563  17.546  0.3538 -0.4247  0.3210
67877W        W10815  14.236   0.357  18.082 -0.2638  0.0289 -0.0488
67878W        W10816  18.124   3.672  18.011  0.0444 -0.0524 -0.2929
67879W        W10817  17.209   1.433  18.530 -0.1227  0.0587 -0.0648
67880W        W10818  16.295   0.052  16.920 -0.1929  0.2407  0.1008
67881W        W10819  14.738   1.172  17.352 -0.0423 -0.1873  0.0264
67882W        W10820  14.920   3.554  17.903 -0.1450 -0.0513  0.0111
67883W        W10821  17.574   1.159  18.170  0.1022  0.2203 -0.0807
67884W        W10822  17.878   0.013  18.818 -0.3373 -0.0234  0.0668
67885W        W10823  16.004   2.339  15.664 -0.3564  0.2608 -0.0651
67886W        W10824  16.466   0.281  18.271  0.1166 -0.0557 -0.1229
67887W        W10825  15.759   1.484  19.668 -0.0791  0.0245 -0.1156
67888W        W10826  15.570   2.023  20.911 -0.1304  0.2116 -0.0741
67889W        W10827  14.607   2.337  16.177 -0.1296 -0.1082  0.0403
67890W        W10828  16.773   1.605  18.887 -0.1323  0.1542 -0.0912
67891W        W10829  17.066   2.536  18.814  0.2162  0.1440 -0.0128
67892W        W10830  15.467   4.216  18.179 -0.1520 -0.1672  0.2166
67893W        W10831  17.019   3.128  16.147 -0.0852  0.2903  0.1945
67894W        W10832  16.741   1.011  17.296 -0.4448  0.0410 -0.1765
67895W        W10833  17.233   1.561  17.959  0.1760 -0.0552 -0.3714
67896W        W10834  15.585   0.079  18.387  0.0341 -0.2292  0.0059
67897W        W10835  19.482  32.814  16.367  0.1048 -0.1286 -0.2414
67898W        W10836  18.119   0.152  16.595 -0.2118  0.0086  0.0586
67899W        W10837  14.850   0.193  19.405  0.0160 -0.0694  0.1684
67900W        W10838  15.089   2.195  15.901  0.1054  0.4336 -0.0052
67901W        W10839  15.181   2.191  15.377  0.0388  0.1316 -0.3635
67902W        W10840  15.278   2.872  17.697 -0.2407 -0.1104  0.0270
67903W        W10841  15.831  34.277  19.185 -0.5781  0.1265 -0.0041
67904W        W10842  14.127   0.805  19.796  0.2630 -0.1348 -0.2261
67905W        W10843  15.898   3.471  18.113  0.1266 -0.1705  0.2305
67906W        W10844  14.824   0.591  16.665 -0.0665  0.3455  0.0672
67907W        W10845  17.864   2.584  16.954  0.2311 -0.1855 -0.0326
67908W        W10846  15.653  33.512  18.424  0.0322  0.2601 -0.2280
67909W        W10847  13.223  34.481  18.065 -0.3281  0.0364  0.1166
67910W        W10848  18.113   3.980  16.626  0.0858 -0.0973 -0.0098
67911W        W10849  17.353   3.874  17.154  0.2450  0.0220 -0.0967
67912W        W10850  16.465  34.498  17.901 -0.3366 -0.0931  0.1456
67913W        W10851  17.675   2.098  19.063  0.0438 -0.1468  0.0232
67914W        W10852  14.003   3.085  15.989  0.0699 -0.2225 -0.2482
67915W        W10853  16.177   1.828  20.341  0.3456 -0.1027 -0.6219
67916W        W10854  16.087   0.085  19.107  0.1147  0.0870  0.0765
67917W        W10855  14.365   0.816  15.576 -0.0223 -0.0666  0.2722
67918W        W10856  17.710   1.403  18.681  0.1620  0.0131  0.0513
67919W        W10857  17.083   2.461  18.353 -0.1155  0.0823  0.2180
67920W        W10858  15.949   2.137  16.266 -0.1259  0.1558 -0.2813
67921W        W10859  16.346   1.753  18.484 -0.1610 -0.1797  0.5950
67922W        W10860  15.032   2.797  20.370  0.0637 -0.1563 -0.2516
67923W        W10861  15.220  33.530  18.774  0.0709 -0.2740  0.2914
67924W        W10862  16.912   2.620  17.207  0.4191 -0.1681 -0.0175
67925W        W10863  15.761   3.113  19.744  0.0967 -0.0843  0.0709
67926W        W10864  18.220   2.329  16.586  0.0321  0.0440  0.3626
67927W        W10865  18.926   0.115  18.416  0.0844  0.1980  0.3204
67928W        W10866  15.761   0.100  17.296  0.2852 -0.2985  0.1013
67929W        W10867  15.647   0.212  18.887 -0.0875 -0.0438  0.1600
67930W        W10868  14.577   1.133  20.130  0.0366 -0.0578 -0.2518
67931W        W10869  18.404   2.086  17.085  0.1271 -0.0067  0.0379
67932W        W10870  15.155   0.104  17.972  0.0958 -0.1958  0.2099
67933W        W10871  16.578   0.459  17.304 -0.2274  0.2099  0.1139
67934W        W10872  16.766   2.712  16.491 -0.2402 -0.0544  0.0729
67935W        W10873  14.103   0.030  18.489  0.1127  0.2907 -0.1545
67936W        W10874  16.290   0.870  17.482  0.2205 -0.0774 -0.0499
67937W        W10875  16.649   1.357  18.395  0.0663 -0.1287  0.4155
67938W        W10876  16.660   2.584  17.726  0.0473  0.1724 -0.2704
67939W        W10877  15.832   2.956  19.148 -0.0064  0.0704 -0.2136
67940W        W10878  15.837   0.796  16.635 -0.0418 -0.0261 -0.0325
67941W        W10879  17.500   3.391  16.400 -0.0914  0.1896 -0.2828
67942W        W10880  17.189   2.338  19.278  0.2639  0.0409 -0.0913
67943W        W10881  17.089   3.659  20.779  0.1063 -0.3536 -0.1641
67944W        W10882  17.592   2.611  19.087 -0.0788 -0.1530  0.0548
67945W        W10883  17.076   1.051  18.225  0.1694 -0.0146 -0.2621
67946W        W10884  16.028  33.267  18.848 -0.0387 -0.2624  0.2662
67947W        W10885  15.606   1.224  17.357  0.0557  0.3338 -0.0746
67948W        W10886  17.652   0.876  17.461  0.1530 -0.1834  0.0099
67949W        W10887  17.891   2.074  19.885 -0.0039 -0.1063 -0.0833
67950W        W10888  13.795   1.322  18.706 -0.0397  0.1158 -0.2775
67951W        W10889  16.455  34.555  16.456 -0.2215 -0.0161 -0.2330
67952W        W10890  13.170   4.334  19.095  0.3275  0.0494  0.1611
67953W        W10891  16.711   2.373  16.824 -0.0588 -0.2347  0.1571
67954W        W10892  15.310   2.326  22.639  0.1244 -0.0894 -0.2002
67955W        W10893  16.267   1.279  21.636 -0.4125  0.0322  0.0391
67956W        W10894  18.097   0.564  20.641  0.2585  0.4200 -0.1134
67957W        W10895  16.675   2.366  21.072 -0.2949 -0.0428 -0.0048
67958W        W10896  14.033   0.690  22.663 -0.0141  0.0095 -0.1235
67959W        W10897  17.941   4.747  21.225 -0.2081  0.1573 -0.1984
67960W        W10898  14.443   1.153  23.150  0.1589 -0.1390 -0.0341
67961W        W10899  16.141   3.338  22.056 -0.3423  0.2786  0.1748
67962W        W10900  18.279   2.835  23.291  0.0809 -0.2353  0.0098
67963W        W10901  14.495   1.625  21.131  0.0893  0.3197 -0.1720
67964W        W10902  16.645   0.139  22.914  0.2071 -0.2445  0.3592
67965W        W10903  16.063   3.857  22.422  0.1908  0.1823  0.0643
67966W        W10904  16.325   1.614  19.904 -0.1376 -0.1932  0.0684
67967W        W10905  14.976  34.459  21.709  0.2677  0.3875  0.0383
67968W        W10906  16.180   1.780  21.421  0.0505 -0.0155  0.1883
67969W        W10907  13.002   0.434  21.448  0.0921  0.0499 -0.1602
67970W        W10908  14.600   1.445  21.570 -0.2742  0.0818  0.0109
67971W        W10909  16.304   0.878  20.615 -0.3367  0.3142  0.1789
67972W        W10910  15.573   3.654  20.524 -0.2784  0.1259 -0.0679
67973W        W10911  16.716   0.590  23.432  0.2291  0.0853  0.4089
67974W        W10912  16.138   0.957  24.353 -0.0084 -0.0612 -0.2064
67975W        W10913  16.626   4.014  20.009  0.2297 -0.0110  0.0720
67976W        W10914  14.237   0.798  20.322  0.3485 -0.3488  0.4233
67977W        W10915  13.717   0.980  21.726 -0.2346  0.1742  0.3962
67978W        W10916  15.225   1.539  22.888  0.2260 -0.1792  0.2538
67979W        W10917  16.479  34.054  22.701  0.1230  0.0090 -0.1633
67980W        W10918  16.455   1.416  23.526  0.0073  0.0311 -0.3138
67981W        W10919  16.156   3.815  21.902 -0.1087  0.2143 -0.5676
67982W        W10920  16.634   3.868  21.924 -0.0817 -0.1519  0.0408
67983W        W10921  16.495   1.031  24.003 -0.0866  0.1394  0.1810
67984W        W10922  14.352   2.115  22.727 -0.0404 -0.2531 -0.0686
67985W        W10923  14.742   3.132  20.730  0.0817 -0.0591 -0.3119
67986W        W10924  16.971   2.120  21.390 -0.0259  0.0389 -0.1407
67987W        W10925  17.203   3.318  21.901 -0.0937 -0.1089 -0.0733
67988W        W10926  16.817   4.311  23.438 -0.0125 -0.0497  0.0316
67989W        W10927  15.780   4.096  24.394 -0.1036 -0.0791  0.2680
67990W        W10928  15.107   2.770  22.566  0.2886  0.1927 -0.0922
67991W        W10929  14.941   2.547  22.961 -0.0949  0.0268  0.5023
67992W        W10930  15.128   3.299  23.865 -0.2525 -0.1564 -0.0377
67993W        W10931  15.447   1.120  23.001  0.0108  0.2253 -0.2361
67994W        W10932  15.881   2.692  21.626 -0.1299  0.2653  0.1960
67995W        W10933  15.239   2.927  20.813  0.1356  0.0287  0.0161
67996W        W10934  15.741   3.142  22.283 -0.0195 -0.1799  0.1805
67997W        W10935  15.482   3.312  24.948 -0.1442  0.1614 -0.1384
67998W        W10936  13.977   2.502  21.959  0.1613  0.1649  0.2032
67999W        W10937  17.175   0.699  23.416  0.0057  0.1167 -0.3692
68000W        W10938  13.612   2.677  20.135  0.0279  0.0905  0.2341
68001W        W10939  16.087   2.054  19.816 -0.0927  0.1339  0.0521
68002W        W10940  16.877  34.597  18.313 -0.1977 -0.2754 -0.1281
68003W        W10941  18.073  34.339  21.279 -0.3323 -0.5148 -0.1239
68004W        W10942  17.271   1.514  20.630 -0.2841  0.0659 -0.0787
68005W        W10943  15.598   4.088  22.657 -0.0787 -0.0982 -0.3608
68006W        W10944  16.082   0.749  21.112  0.3304 -0.0634 -0.1712
68007W        W10945  16.726   2.876  22.756 -0.2766 -0.1433  0.2510
68008W        W10946  16.279   1.301  22.242 -0.1473  0.0285 -0.0899
68009W        W10947  15.198   2.021  21.354 -0.1622  0.0300 -0.2481
68010W        W10948  15.016   1.072  23.294  0.0346  0.0382 -0.6982
68011W        W10949  14.284   1.968  20.215 -0.3306 -0.0012  0.0920
68012W        W10950  16.040   2.480  20.043 -0.0211  0.1423  0.1609
68013W        W10951  17.368   3.498  22.410  0.1012 -0.0092  0.3544
68014W        W10952  14.547   2.031  19.265  0.0425  0.0573  0.1918
68015W        W10953  14.856   0.783  20.202  0.0145  0.2254 -0.2777
68016W        W10954  13.541   0.858  23.040  0.0850  0.2185 -0.0592
68017W        W10955  13.283   3.258  21.968  0.0796  0.1466 -0.1651
68018W        W10956  15.630  34.623  19.494 -0.1256  0.2688  0.2453
68019W        W10957  19.686   2.085  25.490  0.2066 -0.0733 -0.0719
68020W        W10958  15.291   0.605  22.231  0.2574 -0.0186  0.1484
68021W        W10959  18.475   1.394  22.774  0.0406  0.1996  0.1572
68022W        W10960  14.437   1.186  22.492  0.3716  0.3488 -0.0485
68023W        W10961  18.950   3.505  23.363  0.3697  0.4240 -0.0199
68024W        W10962  17.261   1.719  21.250  0.2132  0.0179  0.0198
68025W        W10963  18.014  34.622  22.534 -0.3424  0.0075  0.1963
68026W        W10964  15.781   1.284  22.456  0.0256  0.1558  0.3451
68027W        W10965  13.882   1.974  20.679 -0.0833  0.2057 -0.1050
68028W        W10966  14.751  34.669  20.831 -0.2542 -0.0931  0.0916
68029W        W10967  17.765   3.459  23.479  0.0343 -0.1667  0.0688
68030W        W10968  17.718   1.079  20.635  0.2586 -0.3140  0.4144
68031W        W10969  15.685   3.542  22.679 -0.1190  0.0385  0.1895
68032W        W10970  15.376   2.636  23.045  0.1922 -0.0520  0.2989
68033W        W10971  17.299   3.421  24.763 -0.1744  0.0320 -0.1297
68034W        W10972  15.783   4.440  19.996 -0.4121  0.2392  0.2944
68035W        W10973  12.948   4.056  22.280 -0.1599 -0.1012  0.0631
68036W        W10974  13.944   1.477  21.057  0.1188 -0.1782 -0.1676
68037W        W10975  14.831   1.534  22.412 -0.1858 -0.1610  0.0826
68038W        W10976  15.635   2.664  22.567  0.0194  0.1076  0.0125
68039W        W10977  17.599   0.769  22.679 -0.0585 -0.0918 -0.0661
68040W        W10978  14.512   0.767  22.828 -0.1387 -0.0442  0.2929
68041W        W10979  17.164  33.775  22.153 -0.2033 -0.0991  0.0325
68042W        W10980  14.869   2.845  21.187 -0.1935 -0.1353 -0.0572
68043W        W10981  17.307   3.824  21.822  0.4138  0.0039 -0.1996
68044W        W10982  18.849   1.739  20.033 -0.1487 -0.0745 -0.1892
68045W        W10983  15.990   3.403  20.749  0.1924 -0.2764 -0.3254
68046W        W10984  12.985   1.495  23.281  0.2178  0.1242 -0.2693
68047W        W10985  15.027  34.209  20.626  0.0162  0.0270 -0.1420
68048W        W10986  15.250   2.085  23.078  0.2836 -0.0761  0.2802
68049W        W10987  15.364   0.628  23.377  0.0269 -0.0470  0.0996
68050W        W10988  16.622   1.875  23.807  0.0288 -0.1138  0.0371
68051W        W10989  15.381   0.335  19.362 -0.0429 -0.1602  0.1258
68052W        W10990  16.871   1.080  22.613  0.0635 -0.2254 -0.1270
68053W        W10991  15.424   1.974  21.913 -0.0669 -0.1110 -0.1261
68054W        W10992  14.252   1.574  20.524  0.0352  0.1370 -0.1193
68055W        W10993  17.094   0.662  23.979  0.0138 -0.1030  0.0863
68056W        W10994  17.460   2.332  19.953 -0.0447  0.1282  0.1323
68057W        W10995  17.477   4.549  23.947 -0.1288 -0.2113 -0.3996
68058W        W10996  16.869   3.566  21.591 -0.1094  0.2989 -0.2299
68059W        W10997  15.306   0.010  22.314  0.0970 -0.2080 -0.4085
68060W        W10998  15.794   0.834  20.432  0.3539 -0.0417  0.0455
68061W        W10999  14.284   2.905  22.309 -0.1429 -0.0087  0.1493
68062W        W11000  15.350   2.433  22.146 -0.1092 -0.2447 -0.1020
68063W        W11001  16.180   1.765  21.935 -0.1406  0.1264 -0.1090
68064W        W11002  17.004   2.798  21.257  0.0637 -0.0969 -0.0744
68065W        W11003  17.044   0.827  21.703  0.0226  0.1147 -0.0443
68066W        W11004  14.659   0.222  22.966  0.0720  0.0182  0.0508
68067W        W11005  16.760   0.086  24.017  0.2097 -0.0029  0.1908
68068W        W11006  17.405   2.531  23.905  0.0075 -0.0727 -0.0878
68069W        W11007  16.953   0.578  20.740 -0.1944 -0.0905 -0.4584
68070W        W11008  16.522   0.341  19.280  0.4370 -0.0581  0.3830
68071W        W11009  17.151   2.519  22.332 -0.0321  0.0346 -0.1466
68072W        W11010  16.837   3.342  21.138  0.0434 -0.0664  0.2370
68073W        W11011  14.014   3.084  21.925  0.0541  0.0219  0.0261
68074W        W11012  15.934   2.835  20.448 -0.0035 -0.0902 -0.0210
68075W        W11013  17.111   0.510  22.051 -0.5062  0.1685  0.1683
68076W        W11014  15.096   1.477  24.726  0.0247 -0.3126 -0.0016
68077W        W11015  16.683   0.726  22.217  0.2777  0.1980 -0.0253
68078W        W11016  14.724   0.306  18.871  0.0870 -0.1537  0.2826
68079W        W11017  15.466   3.575  23.608  0.0296 -0.3040 -0.2063
68080W        W11018  18.184  33.832  20.926  0.0725 -0.2492  0.0092
68081W        W11019  19.330   0.910  20.494  0.1834  0.0278  0.2248
68082W        W11020  16.125   2.503  22.677 -0.0210 -0.0050  0.2033
68083W        W11021  16.232   2.642  21.266 -0.1260  0.1236  0.3203
68084W        W11022  15.683   1.858  19.966 -0.0129 -0.2360 -0.1357
68085W        W11023  17.372   0.886  19.717  0.0668  0.4815  0.5181
68086W        W11024  14.345   1.821  23.179 -0.0813 -0.1954  0.0257
68087W        W11025  16.670   3.400  22.043 -0.2777  0.0052  0.0087
68088W        W11026  15.888   2.614  22.132  0.1766 -0.2013 -0.1447
68089W        W11027  17.195   0.376  20.174  0.0071  0.1280  0.0388
68090W        W11028  18.333   2.295  20.809  0.1077 -0.2868  0.1352
68091W        W11029  15.194   1.735  23.887  0.2240 -0.0106 -0.4301
68092W        W11030  17.173   3.694  24.051 -0.0484 -0.0121  0.3664
68093W        W11031  16.910   3.294  22.517  0.1833 -0.0185  0.1079
68094W        W11032  16.374  34.487  22.624  0.0973 -0.2034 -0.2048
68095W        W11033  16.850   2.146  17.951  0.1071 -0.1631 -0.0159
68096W        W11034  16.712   1.281  19.790  0.1243  0.0288  0.1153
68097W        W11035  15.518   2.537  20.697  0.1849  0.0650  0.1116
68098W        W11036  17.639   0.353  22.002 -0.1615  0.0397 -0.1241
68099W        W11037  17.788   0.808  22.215 -0.1929 -0.1784  0.0683
68100W        W11038  15.959   3.178  23.492 -0.1616 -0.0308 -0.0826
68101W        W11039  16.498   2.332  24.132  0.4484 -0.3407  0.2587
68102W        W11040  18.461   1.308  21.103  0.1894 -0.0779 -0.2202
68103W        W11041  15.807   2.139  22.492  0.0539  0.1569  0.0909
68104W        W11042  15.016   1.176  19.850  0.0165  0.0211  0.1552
68105W        W11043  17.259   1.518  23.873  0.0096 -0.0105 -0.1142
68106W        W11044  15.619   2.780  23.481  0.0074  0.0286  0.0275
68107W        W11045  13.195   3.128  22.480  0.0655  0.1749 -0.3579
68108W        W11046  17.095   2.939  24.017  0.0994  0.0370 -0.0114
68109W        W11047  15.846   2.471  21.035  0.0277  0.0529 -0.1143
68110W        W11048  16.060   1.169  23.809  0.0913 -0.0052 -0.4056
68111W        W11049  16.098  34.466  19.559  0.0144 -0.3481  0.1791
68112W        W11050  16.473   3.045  21.185 -0.2640  0.1022  0.0266
68113W        W11051  16.045   2.763  19.601 -0.2501  0.1824 -0.0470
68114W        W11052  16.368   1.251  21.164 -0.1666 -0.2674 -0.0029
68115W        W11053  15.395   3.103  22.685 -0.1877  0.0685 -0.1143
68116W        W11054  15.510   1.922  19.303  0.2654 -0.0203  0.1893
68117W        W11055  16.190   2.477  23.446 -0.0256  0.1481  0.1574
68118W        W11056  15.262   2.958  19.906 -0.0849 -0.0236 -0.0862
68119W        W11057  16.482  34.613  21.936 -0.2355 -0.0747 -0.1602
68120W        W11058  13.805   3.500  23.003 -0.0529  0.0389  0.1565
68121W        W11059  16.024  34.180  20.373  0.2365  0.0518  0.0522
68122W        W11060  12.978   0.868  19.797 -0.1875  0.0978  0.0095
68123W        W11061  17.294   0.877  20.304 -0.2052  0.0244  0.0242
68124W        W11062  19.193   2.034  21.354  0.0270  0.1503 -0.3041
68125W        W11063  15.631  34.340  22.002  0.0028  0.0417  0.0079
68126W        W11064  17.686  33.912  22.205 -0.4280 -0.3760 -0.0444
68127W        W11065  14.909   3.236  22.532  0.1467  0.1902 -0.3652
68128W        W11066  16.147   0.324  22.677 -0.0330  0.0317  0.2267
68129W        W11067  19.275   1.578  19.825  0.0884 -0.1017  0.2982
68130W        W11068  17.887   2.749  24.112 -0.3476  0.0108  0.0620
68131W        W11069  16.382   3.429  24.662  0.0338  0.0553 -0.2062
68132W        W11070  15.382   0.501  20.554  0.4490  0.1805  0.0654
68133W        W11071  16.496   1.654  23.097  0.2439  0.3649  0.1545
68134W        W11072  15.626   0.719  21.365 -0.0762 -0.0231 -0.1441
68135W        W11073  13.133   2.394  21.661  0.0801 -0.0849 -0.0258
68136W        W11074  17.321   3.713  23.338 -0.0547  0.1230  0.0200
68137W        W11075  15.228   0.002  20.629  0.2804 -0.1579 -0.0766
68138W        W11076  15.155   3.124  22.105  0.0922 -0.1814 -0.1795
68139W        W11077  15.404   1.419  23.380  0.0935  0.1665 -0.2386
68140W        W11078  16.470   2.500  23.007 -0.0039 -0.2429  0.3686
68141W        W11079  15.794  34.685  22.768  0.0571 -0.0250 -0.1778
68142W        W11080  15.194   1.107  21.185  0.2996 -0.2340 -0.1217
68143W        W11081  15.249   1.868  22.486  0.1301 -0.0492  0.1101
68144W        W11082  16.780   3.053  21.587 -0.0835 -0.1739  0.1738
68145W        W11083  15.668   0.578  21.849  0.0012 -0.0901 -0.0652
68146W        W11084  15.258   3.792  24.159  0.2663 -0.1390 -0.1627
68147W        W11085  15.351  33.862  20.790  0.1618  0.0129 -0.1426
68148W        W11086  17.517   2.001  19.558  0.1968 -0.0054 -0.1932
68149W        W11087  15.790   2.398  23.047 -0.0764 -0.0262  0.0586
68150W        W11088  14.593   2.880  20.205 -0.1904  0.0411  0.1810
68151W        W11089  13.563   3.110  21.451  0.0224  0.0944  0.1308
68152W        W11090  15.754   1.212  21.333  0.0722 -0.2417  0.0486
68153W        W11091  16.489   0.860  21.771 -0.2127  0.2997 -0.1783
68154W        W11092  14.994   3.389  23.410 -0.2406  0.1503 -0.0176
68155W        W11093  14.667   1.943  21.495 -0.0025  0.5271  0.3410
68156W        W11094  15.234   3.676  23.095  0.0953 -0.0424 -0.1451
68157W        W11095  17.853   1.155  21.464  0.1597 -0.1749  0.1224
68158W        W11096  17.400   2.534  21.445  0.0678 -0.0397  0.0327
68159W        W11097  15.913   2.173  21.953 -0.1053  0.1163  0.1770
68160W        W11098  16.958   0.425  24.405 -0.0416  0.0233 -0.0163
68161W        W11099  16.994   2.230  20.239 -0.1121  0.2764 -0.1478
68162W        W11100  17.156   2.015  24.745  0.2220  0.1125  0.0991
68163W        W11101  15.652   1.742  22.968 -0.2266  0.2966 -0.0106
68164W        W11102  14.911   1.392  20.848  0.0413  0.1260  0.2612
68165W        W11103  14.457   1.456  22.065 -0.1164 -0.1362 -0.1147
68166W        W11104  17.892   4.932  22.927 -0.0217  0.0653 -0.0121
68167W        W11105  14.282   2.413  22.345  0.3028  0.0098  0.0502
68168W        W11106  16.586   0.273  19.848  0.0765  0.0603 -0.3285
68169W        W11107  15.268   1.554  20.090 -0.0559 -0.2797  0.0346
68170W        W11108  14.777   2.296  22.530 -0.0521 -0.3544 -0.0548
68171W        W11109  16.116   2.044  23.122  0.2421  0.0359 -0.2528
68172W        W11110  15.492   1.401  20.938  0.1348  0.0027 -0.3981
68173W        W11111  16.762   1.559  22.666  0.0977  0.0268 -0.1301
68174W        W11112  14.973   0.658  23.046  0.2534 -0.3136 -0.0216
68175W        W11113  15.842   1.720  22.235 -0.0491  0.2453 -0.0776
68176W        W11114  15.095   2.018  20.176 -0.5331  0.1204  0.2978
68177W        W11115  14.934   3.081  21.638  0.1113 -0.0218 -0.4289
68178W        W11116  16.647   1.766  22.097  0.2107 -0.3652 -0.2033
68179W        W11117  16.325   2.956  21.638  0.1572  0.2057 -0.0056
68180W        W11118  16.750   1.251  21.985  0.1965  0.1031 -0.0954
68181W        W11119  16.927   2.605  24.335 -0.1518 -0.0873  0.1972
68182W        W11120  16.298   1.021  23.190  0.1705 -0.0199 -0.2018
68183W        W11121  14.570   2.709  22.693 -0.0468 -0.1856  0.1955
68184W        W11122  14.491   2.321  23.122 -0.0275  0.0411 -0.3008
68185W        W11123  17.577   4.504  23.056 -0.0431 -0.0132 -0.0551
68186W        W11124  17.602   1.202  20.152  0.3381  0.0560  0.1343
68187W        W11125  17.973   1.235  23.426 -0.0870  0.0271  0.2584
68188W        W11126  15.817   1.416  21.803 -0.2637  0.1541 -0.0137
68189W        W11127  18.178   1.012  20.469  0.3415  0.0433 -0.0037
68190W        W11128  15.517   1.002  22.120  0.1666 -0.1831 -0.0461
68191W        W11129  17.161   2.886  25.719  0.0145 -0.0484 -0.1708
68192W        W11130  15.709   1.714  20.446 -0.1738 -0.2020 -0.3121
68193W        W11131  17.698   1.061  23.047  0.0140  0.1447  0.1506
68194W        W11132  15.420   2.779  18.834 -0.0604 -0.1963  0.0103
68195W        W11133  16.964   2.275  23.796 -0.0689 -0.1798 -0.1245
68196W        W11134  16.928   0.850  19.925 -0.1355  0.0761 -0.0580
68197W        W11135  15.390   1.099  21.627 -0.2151 -0.1115 -0.2037
68198W        W11136  14.719   4.895  22.289  0.0921  0.1302  0.1744
68199W        W11137  16.970   0.100  19.185 -0.0080 -0.1959 -0.0222
68200W        W11138  15.665   1.719  21.352 -0.0351  0.3589  0.0552
68201W        W11139  16.295   2.138  22.281 -0.0513  0.0250  0.0786
68202W        W11140  19.389   1.969  24.979  0.0499 -0.2679  0.2468
68203W        W11141  17.491   0.114  19.119 -0.3640 -0.2382 -0.0464
68204W        W11142  17.998   0.746  23.339 -0.1559  0.2088  0.2454
68205W        W11143  13.528   2.747  21.816  0.2839 -0.2208 -0.0410
68206W        W11144  16.428   0.396  20.853  0.0490  0.1854  0.2761
68207W        W11145  15.236   3.601  22.504  0.2042  0.0130 -0.0957
68208W        W11146  14.185   3.212  23.271  0.0450 -0.3406  0.0278
68209W        W11147  14.568   3.198  21.984  0.4128 -0.3240  0.1352
68210W        W11148  16.230   0.532  23.201  0.0697 -0.1003  0.3643
68211W        W11149  18.060   0.622  22.860  0.1925 -0.0544  0.0456
68212W        W11150  14.820   1.843  22.777 -0.0388  0.2355  0.1692
68213W        W11151  17.925   2.506  23.448 -0.0200  0.3094 -0.0974
68214W        W11152  17.069   2.538  24.855 -0.0690 -0.1596 -0.1893
68215W        W11153  14.152   1.267  21.593  0.1342  0.2153 -0.1093
68216W        W11154  16.791   3.470  24.298 -0.1721  0.0937 -0.1837
68217W        W11155  16.983   3.787  22.335 -0.0641  0.2032  0.1454
68218W        W11156  14.921   1.868  23.518 -0.0833  0.0025 -0.0307
68219W        W11157  14.050   0.726  24.170  0.0020  0.0798  0.3357
68220W        W11158  16.564   2.073  22.794 -0.0187 -0.0086 -0.1187
68221W        W11159  14.941   2.166  22.026 -0.2208 -0.1260  0.0588
68222W        W11160  16.544  34.381  20.526  0.3557 -0.1482 -0.2985
68223W        W11161  15.943   2.203  21.435  0.1103 -0.0275 -0.0740
68224W        W11162  14.268   3.687  23.184 -0.2742  0.3083  0.0326
68225W        W11163  13.838   1.613  22.464 -0.0288  0.3804 -0.0150
68226W        W11164  14.873   4.341  21.569  0.2839 -0.0375  0.2726
68227W        W11165  16.217   3.022  19.974  0.1265 -0.0740  0.0158
68228W        W11166  16.446   2.210  21.535  0.0467  0.1974 -0.1863
68229W        W11167  16.798   2.947  22.161 -0.1295  0.0888 -0.4397
68230W        W11168  17.478   0.885  21.193 -0.1939  0.1500  0.1106
68231W        W11169  14.997   3.542  21.888  0.2295 -0.0362 -0.0527
68232W        W11170  14.336   4.021  22.253 -0.0745 -0.0056  0.1637
68233W        W11171  16.266   3.179  19.490  0.0566  0.0996  0.2068
68234W        W11172  16.031   2.239  20.585 -0.0700  0.0552  0.3501
68235W        W11173  18.527   3.722  24.423 -0.0945  0.0166  0.1500
68236W        W11174  17.225   1.268  21.426  0.3934  0.0523 -0.0281
68237W        W11175  17.092   1.751  23.471 -0.1220 -0.1065  0.2604
68238W        W11176  18.503   0.720  20.956 -0.0477  0.1044 -0.0704
68239W        W11177  15.796   3.217  21.629 -0.2143 -0.3919 -0.0149
68240W        W11178  14.910   1.648  21.887 -0.2511 -0.0109 -0.0258
68241W        W11179  15.779   2.378  18.879 -0.3460 -0.0636  0.0843
68242W        W11180  15.016   3.088  22.988 -0.3448  0.1591 -0.1653
68243W        W11181  19.148   1.086  22.579 -0.0115  0.0776  0.2860
68244W        W11182  15.072   3.870  23.655 -0.0970 -0.5499 -0.3332
68245W        W11183  16.287   2.601  20.770  0.1875  0.1306 -0.0625
68246W        W11184  14.851   1.946  20.934  0.1473 -0.0241 -0.5455
68247W        W11185  14.745   2.688  22.155 -0.2031 -0.3159 -0.2570
68248W        W11186  16.582  34.446  23.660  0.0020 -0.1305  0.2065
68249W        W11187  16.131   2.637  17.789 -0.0854 -0.1611  0.0745
68250W        W11188  16.919   1.462  21.008  0.1274 -0.0334 -0.2319
68251W        W11189  16.709   2.916  20.703 -0.1945 -0.0572 -0.2206
68252W        W11190  15.501   3.225  23.201 -0.1845  0.1829 -0.1516
68253W        W11191  15.885   2.970  22.976  0.0687  0.1487 -0.0672
68254W        W11192  15.194   0.621  21.603 -0.2200  0.2472  0.0856
68255W        W11193  16.775   1.225  23.120  0.1520  0.1355  0.1689
68256W        W11194  15.431   3.262  24.340  0.4912 -0.2076  0.1036
68257W        W11195  17.441  34.529  21.696 -0.0905  0.5320  0.3858
68258W        W11196  13.748   1.506  20.521  0.0976  0.0674 -0.0384
68259W        W11197  17.560   1.717  22.947  0.1272  0.4521 -0.3412
68260W        W11198  16.125   3.429  22.913  0.0724  0.0203 -0.3348
68261W        W11199  13.370   1.807  23.124  0.0289  0.0863 -0.2115
68262W        W11200  16.894   1.715  20.342 -0.0051 -0.2963  0.2350
68263W        W11201  17.657   1.908  24.691 -0.2160 -0.0394  0.1819
68264W        W11202  15.230   1.933  19.690  0.0645  0.0777 -0.0088
68265W        W11203  18.474   3.959  22.665 -0.0291  0.1169 -0.0122
68266W        W11204  15.882   0.452  20.725  0.3900  0.0429  0.0981
68267W        W11205  17.233   1.053  20.785 -0.1275  0.1677 -0.0453
68268W        W11206  14.109   1.940  22.027 -0.0604  0.4042 -0.4425
68269W        W11207  16.566   1.818  24.438  0.2198 -0.2687 -0.1424
68270W        W11208  18.362   3.354  22.601 -0.3098 -0.2093  0.1515
68271W        W11209  15.502   0.233  20.981  0.1670  0.4781 -0.0336
68272W        W11210  16.569   2.097  20.603  0.1850 -0.3231 -0.0463
68273W        W11211  17.095   1.935  22.918 -0.0129  0.0602 -0.1327
68274W        W11212  14.130   2.285  18.980 -0.2086  0.1317 -0.0098
68275W        W11213  17.585   1.375  22.600 -0.3313  0.1123 -0.3755
68276W        W11214  18.172   2.868  22.823 -0.3992  0.3342 -0.1084
68277W        W11215  14.844   0.901  22.457  0.1529 -0.0401  0.0383
68278W        W11216  17.312   3.320  23.734  0.0846  0.1797 -0.1410
68279W        W11217  16.901   3.216  23.368 -0.0529  0.2222  0.1155
68280W        W11218  16.869   0.023  20.575 -0.1697  0.0664  0.1453
68281W        W11219  15.731   0.441  22.440  0.2069  0.0512  0.0290
68282W        W11220  14.735   3.662  22.301 -0.1408  0.2681  0.0952
68283W        W11221  17.368   1.345  23.391  0.1177 -0.0357  0.4043
68284W        W11222  19.494   2.058  23.942  0.0276 -0.3203 -0.2008
68285W        W11223  15.577   1.259  20.443  0.3422  0.0200  0.4514
68286W        W11224  15.619  34.647  23.269 -0.0674 -0.0038  0.0775
68287W        W11225  17.143   3.948  25.046 -0.4175  0.3859 -0.2422
68288W        W11226  15.387   3.739  24.642  0.0291 -0.1848 -0.0234
68289W        W11227  13.636   1.953  21.096 -0.1417  0.0745 -0.1177
68290W        W11228  16.281   1.575  23.969  0.3780  0.0966 -0.1824
68291W        W11229  15.569   2.171  20.379  0.0375 -0.1998 -0.1944
68292W        W11230  15.596   2.629  20.104  0.2155  0.2239  0.0892
68293W        W11231  17.298   2.650  22.941 -0.1519  0.0198  0.2500
68294W        W11232  15.967   1.416  20.184  0.3067 -0.2940  0.0337
68295W        W11233  15.880   2.958  20.967 -0.0308 -0.1554 -0.2468
68296W        W11234  17.163   0.987  22.163 -0.2891 -0.5299  0.0004
68297W        W11235  19.488  34.151  20.632  0.1782 -0.0533 -0.0846
68298W        W11236  18.599   1.897  21.195 -0.0139  0.0486  0.0331
68299W        W11237  16.087   0.765  22.204 -0.0373 -0.0504 -0.0055
68300W        W11238  14.605   0.995  20.697 -0.0230  0.2961 -0.1064
68301W        W11239  13.664   2.779  19.404 -0.0275  0.2138  0.1818
68302W        W11240  14.544   1.912  22.327  0.4121  0.2812  0.1027
68303W        W11241  15.913  34.008  24.341 -0.3211 -0.0803 -0.0765
68304W        W11242  14.329   1.148  24.075  0.2287  0.5353  0.0321
68305W        W11243  13.363   1.111  21.315 -0.3379  0.0029  0.0900
68306W        W11244  16.560   0.512  20.303 -0.0365 -0.4176  0.0542
68307W        W11245  18.038   3.657  21.150 -0.0256  0.1256  0.0206
68308W        W11246  16.498   1.760  21.002 -0.2088  0.1568  0.5277
68309W        W11247  13.001  34.492  20.855  0.0753 -0.1390  0.1856
68310W        W11248  17.183   2.166  21.868  0.1458  0.3494  0.1496
68311W        W11249  17.161   3.142  22.986  0.0275  0.0274 -0.0701
68312W        W11250  16.652   1.584  21.506 -0.0837  0.0313 -0.3933
68313W        W11251  18.104   3.831  23.706 -0.1843 -0.0172 -0.5436
68314W        W11252  14.939   3.335  21.215 -0.1113 -0.3541  0.1415
68315W        W11253  17.305   1.534  24.506 -0.1052 -0.2397 -0.0148
68316W        W11254  17.224   1.647  25.128 -0.2072 -0.2904 -0.1871
68317W        W11255  13.818   0.517  19.515  0.1058 -0.0799  0.1112
68318W        W11256  16.382   1.242  22.733 -0.3360  0.1102  0.1557
68319W        W11257  15.997   3.634  21.378  0.1638  0.2242  0.1693
68320W        W11258  18.005   3.467  20.643  0.0858 -0.0091  0.1370
68321W        W11259  16.091   3.983  22.862 -0.1254  0.0854 -0.2361
68322W        W11260  15.788   3.587  24.026  0.1196 -0.1332 -0.0914
68323W        W11261  14.368  33.955  21.193  0.2311  0.1569  0.2032
68324W        W11262  15.997   1.651  20.874 -0.0063 -0.1607 -0.0194
68325W        W11263  16.429   3.469  23.411  0.1906  0.1049  0.1166
68326W        W11264  17.543   1.720  20.024  0.3183 -0.2969  0.0976
68327W        W11265  16.979   0.057  22.604  0.1490  0.2448  0.0174
68328W        W11266  16.823   2.127  19.031 -0.1097 -0.0492  0.1688
68329W        W11267  15.629   1.453  23.862 -0.0325 -0.1545 -0.5127
68330W        W11268  15.311   2.339  23.628  0.0695 -0.3497 -0.0383
68331W        W11269  17.156   2.842  21.843 -0.1132  0.0196 -0.1981
68332W        W11270  15.896   0.897  19.920 -0.1451 -0.2416 -0.1867
68333W        W11271  16.471   1.426  20.616 -0.0190 -0.1796  0.0337
68334W        W11272  16.468   2.484  20.322  0.1762 -0.2990  0.0383
68335W        W11273  14.017   1.244  22.209 -0.4716  0.0040  0.1551
68336W        W11274  14.125   3.330  21.507  0.2638 -0.1038 -0.1236
68337W        W11275  16.224   1.783  22.624 -0.1010 -0.0758  0.2180
68338W        W11276  15.467   3.528  21.645  0.1558 -0.1789 -0.2733
68339W        W11277  18.631   1.737  23.513  0.1783 -0.0503 -0.0104
68340W        W11278  16.240   3.037  22.527  0.1731 -0.1998  0.1144
68341W        W11279  17.619   1.791  22.233  0.4233  0.1028 -0.0944
68342W        W11280  16.616   3.907  22.889  0.2325  0.0989  0.0254
68343W        W11281  18.559   3.997  23.876 -0.1848 -0.1628 -0.0356
68344W        W11282  15.809   4.134  23.279 -0.0245  0.1970  0.1376
68345W        W11283  16.352   2.485  21.883 -0.1166  0.1354 -0.0613
68346W        W11284  14.464   0.198  22.482 -0.0405 -0.1868  0.1028
68347W        W11285  14.095   2.268  21.525 -0.2706  0.0508 -0.1936
68348W        W11286  15.417   2.504  21.627  0.1159  0.0916  0.0716
68349W        W11287  17.658   1.617  21.466 -0.1193 -0.2419 -0.1441
68350W        W11288  16.748  34.317  22.334 -0.1568 -0.2733 -0.0036
68351W        W11289  17.838   0.758  20.255  0.1362  0.1574  0.1076
68352W        W11290  14.766   3.773  23.196 -0.0405  0.0809  0.0447
68353W        W11291  15.218   2.413  21.109  0.0114  0.1542 -0.2287
68354W        W11292  16.977   4.008  27.031 -0.0213  0.3778 -0.3373
68355W        W11293  15.856   1.197  24.742  0.1160  0.4747 -0.1595
68356W        W11294  15.749   0.002  23.748 -0.1693  0.3681 -0.1198
68357W        W11295  18.654   1.777  24.555  0.0486 -0.0048 -0.3382
68358W        W11296  15.493   1.690  26.135  0.0612 -0.2261 -0.0052
68359W        W11297  17.542   4.199  24.283  0.0110  0.1106  0.2650
68360W        W11298  16.313  34.406  25.672 -0.0129 -0.1651  0.1277
68361W        W11299  18.085   1.752  24.785 -0.1802 -0.1415  0.0850
68362W        W11300  17.782   2.640  26.903 -0.1029  0.0470 -0.0085
68363W        W11301  15.913   2.215  24.296 -0.1433  0.3957 -0.1364
68364W        W11302  15.283   1.303  26.440  0.0297 -0.0340 -0.0753
68365W        W11303  15.966   2.642  26.009  0.0102 -0.3091  0.0743
68366W        W11304  15.643   1.083  24.212  0.1603 -0.0002  0.0116
68367W        W11305  15.194   0.383  24.322 -0.2054 -0.2041  0.5487
68368W        W11306  19.040   2.646  26.109  0.1723  0.0726 -0.2412
68369W        W11307  14.088   3.881  23.633 -0.2008  0.3727 -0.3654
68370W        W11308  16.071   2.116  25.651 -0.0583 -0.0960 -0.0784
68371W        W11309  15.615   2.387  24.659 -0.3495 -0.1225 -0.2314
68372W        W11310  16.985   2.685  26.474 -0.0137  0.0238 -0.2072
68373W        W11311  15.258   0.757  26.623 -0.2855  0.0467  0.1365
68374W        W11312  17.145   0.239  26.512 -0.1018 -0.1218 -0.2917
68375W        W11313  16.484   3.852  25.105 -0.0334 -0.1923 -0.1724
68376W        W11314  14.233   2.209  24.164  0.1056  0.1249  0.1466
68377W        W11315  13.261   1.443  25.447  0.0821  0.1336  0.1308
68378W        W11316  16.092   2.182  26.590  0.0174 -0.1162  0.0130
68379W        W11317  17.091   0.293  25.236 -0.2787  0.0640  0.1474
68380W        W11318  16.988   2.121  25.217  0.0529 -0.0402 -0.2064
68381W        W11319  16.039   3.665  24.957  0.1557  0.2291  0.0539
68382W        W11320  16.836   3.449  26.317  0.1308  0.3113 -0.1144
68383W        W11321  17.416   0.203  27.112  0.0752 -0.0781 -0.1935
68384W        W11322  13.342   1.623  24.571 -0.2015 -0.1573 -0.0731
68385W        W11323  13.849   2.946  24.177 -0.0079 -0.0602 -0.1500
68386W        W11324  14.736   2.702  24.821  0.0661 -0.0416  0.0378
68387W        W11325  19.822   2.320  24.924 -0.2204 -0.1347 -0.2909
68388W        W11326  17.247   3.638  26.750 -0.0683  0.0565 -0.1396
68389W        W11327  17.303   3.755  27.844  0.4888  0.1057 -0.0825
68390W        W11328  15.367   3.333  25.447 -0.1475  0.0619  0.2007
68391W        W11329  17.691   2.382  27.394 -0.3575 -0.2276  0.0257
68392W        W11330  16.004   3.833  27.010 -0.3631  0.0666  0.0927
68393W        W11331  17.168   1.487  27.239 -0.2506 -0.3442  0.0636
68394W        W11332  16.725   1.077  26.547 -0.0185  0.0631 -0.0212
68395W        W11333  16.201   3.431  23.860 -0.2540 -0.2336  0.2454
68396W        W11334  16.737   2.700  26.010 -0.0569 -0.3295 -0.0504
68397W        W11335  16.216   3.757  27.487  0.1319 -0.0733  0.2174
68398W        W11336  14.748   2.441  25.263 -0.1117  0.2969  0.3631
68399W        W11337  17.872  33.593  27.147 -0.1115  0.0252  0.1488
68400W        W11338  15.683   3.076  23.937  0.1424  0.0695  0.4576
68401W        W11339  17.436   2.312  24.344 -0.1482 -0.0579  0.2914
68402W        W11340  16.564   2.955  24.238  0.2578 -0.1263 -0.0027
68403W        W11341  16.478   0.472  24.130 -0.1677  0.3537 -0.0200
68404W        W11342  15.272   0.918  24.632 -0.4559  0.0001 -0.1768
68405W        W11343  15.223   2.437  24.982  0.0285  0.0480  0.1384
68406W        W11344  15.936   2.002  27.057  0.0731  0.4662  0.1009
68407W        W11345  18.855   2.025  27.472  0.4264 -0.1114 -0.0092
68408W        W11346  15.341   2.813  25.328  0.1118  0.1422  0.1665
68409W        W11347  17.934   1.496  26.798 -0.1176  0.2021 -0.1356
68410W        W11348  13.946   2.458  26.186 -0.3316 -0.0685 -0.1602
68411W        W11349  13.641   1.926  24.922  0.1034 -0.1553  0.0058
68412W        W11350  19.043   4.279  23.223 -0.2086 -0.1241 -0.1797
68413W        W11351  18.218   2.092  25.702  0.0365  0.0803  0.0876
68414W        W11352  17.458   6.255  24.435 -0.3038 -0.2261 -0.1339
68415W        W11353  12.822   1.713  25.415  0.1593 -0.1639 -0.2876
68416W        W11354  15.256   1.862  26.534 -0.2267  0.1021  0.1778
68417W        W11355  15.229   1.030  27.130  0.1806  0.0626 -0.2121
68418W        W11356  15.250  34.096  23.777 -0.1178  0.0862 -0.1048
68419W        W11357  17.652   2.545  28.652 -0.0660  0.0661  0.0556
68420W        W11358  16.448   2.521  26.684  0.0189 -0.3334 -0.0435
68421W        W11359  17.302   0.245  24.764 -0.1343  0.0266 -0.3491
68422W        W11360  16.424   2.367  26.196  0.0401 -0.2661  0.0145
68423W        W11361  19.415   2.164  25.947  0.0289  0.0161  0.1451
68424W        W11362  19.125   2.941  23.358  0.2277  0.2658 -0.2865
68425W        W11363  18.286  34.151  25.241 -0.0421 -0.2160 -0.0045
68426W        W11364  17.581  33.884  28.101  0.4128 -0.3171  0.3054
68427W        W11365  15.900   3.263  25.340  0.0787 -0.3141 -0.0103
68428W        W11366  16.366   1.525  24.900  0.5049 -0.1947  0.1886
68429W        W11367  17.762   3.262  26.176  0.1315  0.0094  0.0828
68430W        W11368  17.074   1.970  24.276  0.0622 -0.1648  0.2286
68431W        W11369  15.757   2.749  25.000 -0.0749 -0.0990  0.1604
68432W        W11370  16.911   1.116  27.053 -0.0134  0.0588 -0.1162
68433W        W11371  17.042   1.658  27.733 -0.0580 -0.1787  0.0981
68434W        W11372  13.426   2.591  22.620  0.1324 -0.1166 -0.1388
68435W        W11373  14.456   2.672  23.738  0.1781 -0.1582  0.0576
68436W        W11374  14.504   3.522  23.550 -0.0654  0.1137  0.1027
68437W        W11375  13.992   1.062  25.103  0.1251 -0.2405  0.1448
68438W        W11376  17.226   2.888  27.688  0.1864  0.0704  0.1328
68439W        W11377  18.624  34.524  25.284 -0.0899  0.1438  0.3325
68440W        W11378  15.349   1.275  25.950  0.0875 -0.3182  0.0952
68441W        W11379  18.862   0.527  24.078  0.1468 -0.1743 -0.2086
68442W        W11380  15.346   1.895  25.038 -0.0275  0.0558 -0.1926
68443W        W11381  17.971   3.807  26.063  0.2365  0.2742 -0.2190
68444W        W11382  18.581   1.308  24.564 -0.0340 -0.1995 -0.2225
68445W        W11383  17.736   3.218  24.493  0.2104  0.0166 -0.1347
68446W        W11384  13.901   1.215  26.799  0.0626 -0.2446 -0.0461
68447W        W11385  14.941   1.090  24.996  0.1441  0.3952  0.4741
68448W        W11386  15.651   1.592  26.693  0.0077 -0.0388  0.0284
68449W        W11387  14.088   0.110  25.981  0.0490  0.0620 -0.2297
68450W        W11388  17.951   0.806  28.524  0.1612  0.1417 -0.1372
68451W        W11389  14.313   0.256  24.273 -0.1554  0.1392 -0.0696
68452W        W11390  17.499   0.665  24.967  0.1066 -0.0348  0.2440
68453W        W11391  14.906   2.602  24.059  0.1514  0.0069  0.1249
68454W        W11392  14.316   2.136  23.661  0.0181  0.0617 -0.1313
68455W        W11393  17.160   0.856  26.333 -0.0573 -0.0221 -0.1082
68456W        W11394  18.301   2.952  25.587 -0.1259 -0.1697  0.4669
68457W        W11395  17.271   2.783  26.872  0.2590 -0.0697 -0.1981
68458W        W11396  17.392   4.290  24.734 -0.1913  0.0904 -0.1670
68459W        W11397  14.463   1.971  25.540  0.0581 -0.0137  0.1923
68460W        W11398  15.975   1.535  23.431  0.1027  0.0627 -0.1270
68461W        W11399  13.353   2.281  24.718  0.0485 -0.0584  0.3204
68462W        W11400  16.841   3.282  25.811 -0.1463  0.3530 -0.2599
68463W        W11401  16.045   0.810  22.798 -0.1352 -0.0076 -0.0417
68464W        W11402  16.461   3.869  26.981  0.2798 -0.1855  0.0506
68465W        W11403  16.604   2.086  25.586 -0.0148  0.1071 -0.0784
68466W        W11404  15.228   2.448  26.275 -0.1511 -0.0154  0.0383
68467W        W11405  17.266  33.601  27.131 -0.0551 -0.2008  0.2324
68468W        W11406  18.115   2.163  26.738 -0.3210  0.0927 -0.1304
68469W        W11407  17.185   1.882  25.618 -0.0743  0.1036 -0.1721
68470W        W11408  15.192   1.346  24.260 -0.1286  0.0526 -0.1808
68471W        W11409  18.075   4.274  25.067 -0.0367 -0.3355  0.1382
68472W        W11410  14.494   2.671  24.375  0.1755  0.1430  0.1860
68473W        W11411  13.711   0.847  24.736 -0.2200  0.2423 -0.2869
68474W        W11412  16.913   3.147  24.883  0.0919 -0.0626 -0.3499
68475W        W11413  17.381   1.169  24.812 -0.0829 -0.0373 -0.1425
68476W        W11414  14.086   2.106  25.827 -0.1231  0.4133 -0.0528
68477W        W11415  16.891   0.755  28.081 -0.1638  0.0893 -0.1940
68478W        W11416  16.001   1.194  25.280 -0.1890 -0.1813  0.1020
68479W        W11417  16.560   3.091  26.621  0.1126  0.2679  0.1264
68480W        W11418  16.753  34.039  25.564  0.1457 -0.1393 -0.0860
68481W        W11419  16.881   1.349  24.239  0.2860 -0.1870  0.0767
68482W        W11420  17.767   0.546  28.118 -0.4443 -0.2027  0.1417
68483W        W11421  19.129   1.780  26.105 -0.3098 -0.2605  0.2028
68484W        W11422  15.966   1.352  22.941 -0.1147 -0.2799 -0.0479
68485W        W11423  16.039   1.979  23.721  0.3594 -0.0088 -0.0652
68486W        W11424  14.077   2.814  26.599  0.2183  0.0349  0.1168
68487W        W11425  16.416   3.555  26.588 -0.0790  0.2299  0.1949
68488W        W11426  16.726   1.577  26.366 -0.0046 -0.0669 -0.2543
68489W        W11427  15.995   0.641  24.760  0.0499 -0.1352 -0.0486
68490W        W11428  16.116   4.005  25.812  0.2161  0.3151 -0.5985
68491W        W11429  14.258   1.473  26.394 -0.1076 -0.0237  0.0307
68492W        W11430  18.330   2.745  26.956  0.1810 -0.3356  0.0434
68493W        W11431  17.643   4.651  24.480 -0.1264 -0.0551 -0.1306
68494W        W11432  15.607   0.322  25.383 -0.2088 -0.2054 -0.0622
68495W        W11433  14.320   1.699  24.038 -0.1003  0.0519  0.0928
68496W        W11434  17.633  34.298  26.146 -0.1348 -0.2495  0.1672
68497W        W11435  15.990   3.782  23.581  0.0537 -0.1038  0.3402
68498W        W11436  17.485   1.008  25.335  0.1706 -0.0483 -0.2073
68499W        W11437  15.460  34.181  24.621  0.2059 -0.1334 -0.4534
68500W        W11438  16.129  34.378  26.901 -0.0016 -0.1486 -0.0345
68501W        W11439  17.789   0.326  27.605  0.1689  0.0317 -0.0932
68502W        W11440  18.092   2.479  25.102  0.1165 -0.2679 -0.2096
68503W        W11441  15.425   1.190  24.998  0.3097  0.1346  0.0771
68504W        W11442  16.464   2.936  23.516 -0.2400 -0.0258  0.1233
68505W        W11443  17.249   1.271  26.657 -0.0092 -0.4766  0.2440
68506W        W11444  15.202   2.589  27.605  0.2331 -0.2974 -0.0504
68507W        W11445  15.225   2.154  25.420 -0.0782  0.0527 -0.1663
68508W        W11446  16.050   4.212  27.333  0.1096 -0.2337 -0.4389
68509W        W11447  17.361   2.558  25.260 -0.1939  0.1624 -0.0215
68510W        W11448  16.491   0.803  26.863 -0.0523  0.0431  0.0450
68511W        W11449  16.743   1.491  25.871 -0.1904 -0.1128 -0.2577
68512W        W11450  14.816   2.416  23.506  0.0362 -0.0692 -0.1322
68513W        W11451  16.121   2.599  24.632 -0.1573  0.2915 -0.0727
68514W        W11452  16.483   0.417  25.791 -0.0596 -0.1052  0.2656
68515W        W11453  17.069   3.173  26.628 -0.2562  0.1226  0.3426
68516W        W11454  16.092   4.453  23.637 -0.3127  0.2090 -0.0897
68517W        W11455  18.374   1.941  27.601 -0.4983 -0.1130 -0.0624
68518W        W11456  14.614   4.466  25.914  0.1553  0.3307 -0.1421
68519W        W11457  19.283   0.843  25.941  0.1264  0.3562 -0.0061
68520W        W11458  14.187   2.712  25.255  0.3636  0.1630 -0.3328
68521W        W11459  15.793   2.748  24.320  0.1087  0.4549  0.2285
68522W        W11460  14.019  34.057  24.928 -0.2297  0.1088 -0.2505
68523W        W11461  16.978   0.669  24.881 -0.3056 -0.1552 -0.0107
68524W        W11462  18.321   2.202  24.754  0.2161 -0.1322  0.2406
68525W        W11463  15.850   2.564  25.474  0.1358 -0.0139 -0.0640
68526W        W11464  16.201   1.685  26.550 -0.0506  0.0229  0.0148
68527W        W11465  13.368   2.894  25.868  0.3188 -0.3884 -0.1504
68528W        W11466  17.477   0.970  25.888 -0.1305 -0.1007 -0.0593
68529W        W11467  16.912   1.531  24.788  0.3822 -0.0875  0.0698
68530W        W11468  18.223   2.250  27.214 -0.0662 -0.2529  0.3871
68531W        W11469  16.813   2.926  27.136 -0.1102  0.0578 -0.1287
68532W        W11470  14.941   1.813  24.397 -0.0821  0.0047 -0.0106
68533W        W11471  19.350   1.429  26.543 -0.2004 -0.1840  0.2703
68534W        W11472  15.794   2.186  25.080 -0.1501  0.0911 -0.3165
68535W        W11473  12.612   3.136  23.626  0.0052  0.1716  0.1077
68536W        W11474  15.848   3.645  26.230  0.3161 -0.2168  0.2987
68537W        W11475  13.813   2.156  24.461 -0.0880 -0.1431 -0.1042
68538W        W11476  14.918   1.760  25.692 -0.3645  0.4034 -0.2368
68539W        W11477  16.191   1.185  26.665 -0.0595 -0.2482  0.2300
68540W        W11478  17.840   1.927  27.065 -0.2057 -0.2304 -0.0190
68541W        W11479  16.192   0.983  25.762  0.2212  0.2782 -0.0083
68542W        W11480  15.713   0.916  26.032  0.0158  0.1846  0.0223
68543W        W11481  16.507   0.492  24.815  0.0970  0.2139  0.2095
68544W        W11482  18.433   1.124  25.549 -0.1563  0.1441 -0.4174
68545W        W11483  17.249   1.305  28.024  0.2996  0.4502  0.0635
68546W        W11484  15.962   2.881  26.688 -0.0749 -0.2297  0.2295
68547W        W11485  15.950  33.632  25.631 -0.1869 -0.1077 -0.1850
68548W        W11486  18.469   3.342  24.985 -0.1659  0.0392 -0.1480
68549W        W11487  18.033   0.086  28.071 -0.0834  0.4308 -0.1239
68550W        W11488  15.790   3.494  25.709 -0.0352 -0.1131  0.0006
68551W        W11489  14.514   1.669  25.933 -0.0499 -0.1111  0.0811
68552W        W11490  17.812   2.894  25.371 -0.1374 -0.2677  0.1436
68553W        W11491  16.781   1.050  25.985  0.4587  0.0573 -0.0317
68554W        W11492  15.703   2.233  26.017  0.1054  0.3504 -0.3688
68555W        W11493  15.297   2.843  24.677 -0.1661 -0.5131 -0.3353
68556W        W11494  12.580   2.064  25.028 -0.1597 -0.0053  0.2054
68557W        W11495  17.574   0.465  23.745 -0.0576  0.0454 -0.1081
68558W        W11496  16.766   2.674  23.721 -0.1266 -0.0769  0.1386
68559W        W11497  15.856   1.697  24.883 -0.1555  0.1083 -0.1405
68560W        W11498  17.521  34.000  27.206  0.4331 -0.1229  0.1548
68561W        W11499  17.298   3.173  25.293  0.0971 -0.1524 -0.0451
68562W        W11500  16.179   3.060  28.098  0.0319  0.2337 -0.1868
68563W        W11501  15.008   0.888  26.204 -0.0039  0.2152 -0.0022
68564W        W11502  17.750   3.369  23.960 -0.2429  0.1769  0.0863
68565W        W11503  16.114   1.479  27.084  0.1214  0.0159  0.0017
68566W        W11504  16.978   3.296  27.578 -0.3162 -0.0999 -0.0297
68567W        W11505  16.980   1.871  26.884  0.0154 -0.2992 -0.2523
68568W        W11506  17.764   1.353  24.476  0.0591 -0.2485  0.1836
68569W        W11507  15.371   0.380  23.852 -0.0634  0.1552  0.1314
68570W        W11508  16.509   2.484  27.207  0.1019  0.3639  0.1138
68571W        W11509  17.294   2.323  26.026 -0.0042  0.1348 -0.1731
68572W        W11510  16.553   2.878  24.729  0.1233  0.3842  0.1335
68573W        W11511  16.983   1.129  25.131  0.0996  0.2033  0.1746
68574W        W11512  14.781   2.687  25.934 -0.1133 -0.4229 -0.2293
68575W        W11513  17.166   1.404  26.065  0.0207  0.1287  0.3092
68576W        W11514  16.432   1.357  24.423 -0.2675  0.0360 -0.1044
68577W        W11515  15.834   1.369  25.743 -0.0369 -0.2090 -0.0020
68578W        W11516  16.959   1.957  26.074  0.3108  0.0045  0.1205
68579W        W11517  17.429   2.218  26.962 -0.1753  0.4780 -0.0239
68580W        W11518  17.038   0.647  27.230 -0.0530 -0.1788 -0.2366
68581W        W11519  18.333   0.434  27.752 -0.0610 -0.0798  0.1555
68582W        W11520  16.946  34.481  26.351 -0.0684  0.0639 -0.0595
68583W        W11521  17.655   1.453  27.312 -0.2707 -0.3161 -0.0835
68584W        W11522  14.901   1.194  25.775 -0.1448 -0.0494 -0.0183
68585W        W11523  17.516   4.243  25.329  0.0530 -0.2726  0.2073
68586W        W11524  16.293   0.710  23.656 -0.0411 -0.0754 -0.2697
68587W        W11525  17.908   0.523  25.268  0.1079  0.1170 -0.1282
68588W        W11526  17.931   2.002  25.235 -0.3240  0.0644 -0.0077
68589W        W11527  18.137   3.003  24.949  0.4070 -0.0550 -0.1577
68590W        W11528  15.032   1.729  26.141 -0.1519  0.1012 -0.3396
68591W        W11529  18.101   1.391  27.636  0.1585  0.5467 -0.0941
68592W        W11530  15.981   1.772  25.337 -0.1818 -0.0005 -0.2644
68593W        W11531  17.773  34.574  27.193 -0.1255 -0.1508  0.0258
68594W        W11532  16.510   3.883  23.790  0.3542 -0.0817 -0.0975
68595W        W11533  18.073   1.107  24.812 -0.0731 -0.0943 -0.0522
68596W        W11534  17.649   2.377  24.855 -0.1144  0.0031 -0.1266
68597W        W11535  14.813   1.093  24.497  0.1088 -0.1843  0.2610
68598W        W11536  17.677   3.539  28.817  0.0436 -0.3407 -0.1601
68599W        W11537  15.051   2.389  24.483 -0.2423  0.0247  0.1429
68600W        W11538  17.479   3.374  25.780 -0.1002 -0.3058 -0.2764
68601W        W11539  17.225   3.240  27.144 -0.0074 -0.3254  0.0880
68602W        W11540  19.337   3.297  29.738  0.0908  0.1753  0.2386
68603W        W11541  14.774  34.309  23.690 -0.2210 -0.1409  0.3122
68604W        W11542  16.583   0.630  26.292  0.1579 -0.0265 -0.1167
68605W        W11543  13.363   1.134  25.056 -0.1039 -0.0198 -0.1081
68606W        W11544  17.320  34.677  25.828 -0.1183 -0.1238  0.2263
68607W        W11545  14.968   3.566  25.805 -0.1602  0.3424 -0.1665
68608W        W11546  13.720   3.739  25.824  0.3229  0.2568 -0.0172
68609W        W11547  14.262   2.871  24.765  0.1257 -0.0930  0.1857
68610W        W11548  16.733  33.386  27.092 -0.0739 -0.0358  0.0065
68611W        W11549  16.773   1.614  25.369  0.1537  0.0852 -0.2101
68612W        W11550  16.803   2.066  27.361  0.1842 -0.0602 -0.2036
68613W        W11551  17.882   2.513  28.182 -0.0196  0.0946 -0.2905
68614W        W11552  16.293   2.877  26.312  0.1068 -0.0907 -0.1381
68615W        W11553  14.495   2.519  26.363 -0.3082  0.2420  0.1630
68616W        W11554  17.496   1.856  26.022  0.0918 -0.1045 -0.4466
68617W        W11555  18.582   2.102  26.409 -0.0221  0.0131  0.2385
68618W        W11556  16.674   2.541  25.183  0.2502 -0.0101  0.0250
68619W        W11557  13.388   0.740  27.438  0.2087  0.1006  0.1088
68620W        W11558  16.893   1.943  28.203 -0.0178 -0.2267  0.0932
68621W        W11559  18.070   1.189  26.112 -0.1786  0.0264 -0.0860
68622W        W11560  15.932   0.584  25.625  0.0801 -0.2292  0.2619
68623W        W11561  16.673   2.259  24.680 -0.2468 -0.1096 -0.0677
68624W        W11562  14.050   2.693  27.191  0.0960 -0.0614 -0.0463
68625W        W11563  15.272   2.635  25.795 -0.2675  0.1356  0.0442
68626W        W11564  14.870   4.087  24.049 -0.1404  0.0611 -0.0761
68627W        W11565  17.484   2.764  24.371 -0.3783 -0.1820  0.3317
68628W        W11566  18.117   3.188  27.069  0.0833  0.0759 -0.4281
68629W        W11567  17.225   1.720  26.423 -0.0122  0.0644 -0.3314
68630W        W11568  16.239   2.684  23.947  0.3634 -0.1137 -0.1761
68631W        W11569  12.973   2.610  24.453 -0.2965  0.2388  0.1998
68632W        W11570  14.584   4.300  24.539 -0.2554 -0.2008 -0.1076
68633W        W11571  17.602   2.611  26.382 -0.1393 -0.0208  0.2861
68634W        W11572  14.089   3.346  25.076  0.1197  0.2490 -0.0478
68635W        W11573  17.654   2.978  27.280  0.3341  0.1194  0.0270
68636W        W11574  15.355   2.136  24.180  0.1180  0.2270 -0.2428
68637W        W11575  18.935  34.638  25.688  0.1450 -0.0721 -0.0509
68638W        W11576  19.529   0.630  23.475  0.2956  0.1646  0.1615
68639W        W11577  18.018   2.066  28.038 -0.0589  0.2688 -0.1164
68640W        W11578  16.420   1.909  26.037 -0.3227  0.1907 -0.0696
68641W        W11579  15.647   0.783  23.752  0.0854  0.0868 -0.0355
68642W        W11580  16.903   2.405  26.903 -0.0286 -0.0816 -0.0618
68643W        W11581  18.173  32.358  27.808  0.0223 -0.0590  0.0046
68644W        W11582  15.090   3.628  27.183  0.1251  0.0760  0.0122
68645W        W11583  18.000   5.406  24.727  0.1988  0.0307  0.2249
68646W        W11584  14.672   0.556  25.128  0.2455 -0.0155  0.0019
68647W        W11585  16.450   2.063  25.123  0.0491 -0.1587 -0.0943
68648W        W11586  19.681  34.492  25.641 -0.3711 -0.2488 -0.0993
68649W        W11587  16.378   4.050  23.282 -0.1639  0.2066  0.1317
68650W        W11588  17.162   1.367  25.582 -0.1014 -0.3246  0.2091
68651W        W11589  16.337   3.527  25.610  0.0177  0.2669  0.1706
68652W        W11590  16.258   3.013  25.727 -0.1653  0.0069 -0.0063
68653W        W11591  15.181   3.953  26.491  0.2350  0.1998 -0.1981
68654W        W11592  13.815   2.521  24.866  0.0339 -0.2011  0.0769
68655W        W11593  18.271   0.617  24.852  0.0601  0.3270  0.1098
68656W        W11594  16.593   1.471  26.872 -0.2727  0.0465 -0.3125
68657W        W11595  19.433  33.982  27.184 -0.0963  0.0755 -0.1797
68658W        W11596  16.351   1.560  25.563 -0.6501  0.1926  0.2740
68659W        W11597  18.886   2.220  24.760  0.2195 -0.3388  0.2162
68660W        W11598  18.247   2.495  26.406 -0.0266  0.1274 -0.0143
68661W        W11599  13.308   3.138  25.429 -0.2107  0.0280  0.0388
68662W        W11600  17.229   3.214  24.360  0.0040  0.1734  0.1747
68663W        W11601  17.407   1.027  27.377 -0.0694  0.0535  0.0470
68664W        W11602  15.188   2.830  23.626 -0.0556 -0.2002  0.1993
68665W        W11603  16.195   4.696  26.478  0.3084  0.3136  0.0028
68666W        W11604  14.875   1.958  25.149  0.0611  0.2811 -0.1450
68667W        W11605  17.016   2.395  25.613  0.5236 -0.1046 -0.2314
68668W        W11606  16.350   1.376  26.162  0.0512  0.5189 -0.1021
68669W        W11607  17.657   1.150  26.922 -0.0676  0.4846  0.1085
68670W        W11608  18.237   4.432  26.213 -0.0794  0.1107  0.1026
68671W        W11609  14.937   0.515  24.657  0.2117  0.0048  0.2315
68672W        W11610  17.553   3.694  24.418  0.0306 -0.2345 -0.1044
68673W        W11611  17.715   1.417  25.160  0.0838  0.1144 -0.1164
68674W        W11612  16.894   3.492  25.311 -0.0318 -0.1123  0.1000
68675W        W11613  17.809   0.825  24.559  0.2823 -0.5406  0.0694
68676W        W11614  16.042   4.193  25.297  0.3796  0.1676  0.0584
68677W        W11615  14.121   1.529  25.038 -0.0151 -0.0556  0.1652
68678W        W11616  17.192   2.196  26.533  0.0111 -0.3040 -0.1951
68679W        W11617  17.810   1.322  25.707  0.1548  0.0241 -0.1168
68680W        W11618  15.235   0.011  24.648 -0.1166 -0.1060  0.4019
68681W        W11619  15.228   0.631  25.076 -0.1056  0.1687 -0.1730
68682W        W11620  14.008   4.605  24.393  0.2220  0.1062  0.0957
68683W        W11621  17.886  34.402  25.071 -0.0614  0.3590  0.1050
68684W        W11622  17.679   0.960  26.362  0.3838 -0.1935 -0.1408
68685W        W11623  16.468   3.300  25.130  0.2033  0.1941 -0.0303
68686W        W11624  17.961  33.946  26.063 -0.0606  0.0261 -0.1568
68687W        W11625  17.651   2.728  25.917 -0.1203  0.1334 -0.0586
68688W        W11626  16.475   3.251  27.317 -0.1303  0.3640 -0.1007
68689W        W11627  15.430   1.846  24.579  0.0485 -0.0181  0.1428
68690W        W11628  15.190   2.132  25.933 -0.1431 -0.3009  0.1535
68691W        W11629  17.259   3.056  26.181  0.2553 -0.0510 -0.2827
68692W        W11630  16.959   4.693  23.782 -0.0587  0.0579  0.0685
68693W        W11631  17.627   1.704  25.523  0.0161 -0.1010 -0.0624
68694W        W11632  16.550   1.054  24.887 -0.0831  0.0910  0.0236
68695W        W11633  18.371   1.454  25.107 -0.3549  0.1044 -0.1881
68696W        W11634  15.967   1.791  25.996  0.5527 -0.2345 -0.1533
68697W        W11635  19.498   0.188  25.284 -0.3971 -0.1194 -0.0160
68698W        W11636  16.590  33.765  23.926 -0.1762 -0.3971  0.0279
68699W        W11637  16.083  34.696  27.587  0.1692 -0.1187  0.1597
68700W        W11638  14.571   2.197  24.467  0.1047 -0.0465 -0.0450
68701W        W11639  14.638   3.135  23.855  0.2946  0.1808  0.2034
68702W        W11640  13.376   2.083  25.362  0.0548 -0.2436 -0.0022
68703W        W11641  15.977  34.188  28.414 -0.0415 -0.3446  0.0519
68704W        W11642  16.289   2.819  27.495 -0.0731  0.1511 -0.3079
68705W        W11643  14.803   2.104  23.989 -0.0461 -0.0033 -0.3618
68706W        W11644  15.129   0.850  24.185 -0.0399  0.1051  0.0687
68707W        W11645  19.970   1.780  24.017  0.0035  0.0718 -0.0093
68708W        W11646  15.478  34.470  25.109 -0.2584  0.1480  0.0583
68709W        W11647  16.290  34.003  25.333  0.1309 -0.0518 -0.1916
68710W        W11648  17.485   2.061  25.180 -0.3554  0.0102 -0.0066
68711W        W11649  19.493   2.601  26.225  0.1745  0.2519 -0.0387
68712W        W11650  15.413   0.939  25.556 -0.1058 -0.2279  0.1686
68713W        W11651  16.927   3.906  26.460 -0.1675 -0.4170 -0.1336
68714W        W11652  14.660   3.630  23.976 -0.0417 -0.0686 -0.1393
68715W        W11653  17.343   1.919  27.416 -0.0408 -0.2198  0.2240
68716W        W11654  16.616   0.740  27.605  0.0264  0.2451 -0.0036
68717W        W11655  12.906   1.892  24.658  0.1290 -0.0961  0.0879
68718W        W11656  17.672   0.384  26.689  0.0771  0.1665  0.0635
68719W        W11657  18.037   2.533  25.659  0.1916  0.2304 -0.2184
68720W        W11658  17.101   3.657  22.804  0.1026 -0.0595 -0.2241
68721W        W11659  17.633   1.483  26.381  0.0661  0.3708 -0.0209
68722W        W11660  15.979   3.368  26.603 -0.0191 -0.0335 -0.0597
68723W        W11661  15.671  34.543  25.524  0.1294 -0.0152 -0.1306
68724W        W11662  16.801   2.969  25.440 -0.3919 -0.3097  0.4106
68725W        W11663  17.730   3.506  27.127  0.1939  0.0895  0.1017
68726W        W11664  18.255   3.058  23.792  0.2089 -0.0325  0.1915
68727W        W11665  18.292  34.608  25.703  0.2237  0.0167 -0.0838
68728W        W11666  16.195   2.052  24.665 -0.3658 -0.0194  0.3795
68729W        W11667  15.560   0.132  26.784 -0.1630 -0.2510 -0.0113
68730W        W11668  14.026   2.165  25.329 -0.1795  0.1638  0.1254
68731W        W11669  19.466   2.332  26.651  0.3553 -0.0433  0.3872
68732W        W11670  15.253  34.642  23.689 -0.2931  0.1624  0.1436
68733W        W11671  17.627   0.897  24.096 -0.0235 -0.0292  0.2019
68734W        W11672  18.179   2.858  26.085  0.2285 -0.2232 -0.0364
68735W        W11673  14.529   1.368  25.500 -0.2149 -0.1452  0.1105
68736W        W11674  15.731   2.461  23.831 -0.0220  0.0031  0.1053
68737W        W11675  17.429  34.512  26.771 -0.4709 -0.0201  0.0320
68738W        W11676  16.724   2.067  26.483 -0.0464 -0.0925  0.0437
68739W        W11677  18.876   2.892  27.720  0.0034  0.1416  0.0553
68740W        W11678  16.110   3.145  24.245 -0.0247  0.0686 -0.0183
68741W        W11679  19.372   3.065  25.151  0.0046 -0.0846  0.4285
68742W        W11680  16.919   4.499  27.533  0.0091 -0.1331 -0.2513
68743W        W11681  18.469   4.321  29.018  0.3858 -0.0971 -0.0521
68744W        W11682  15.432   3.213  27.068 -0.1351 -0.0033 -0.0223
68745W        W11683  17.882   0.832  25.687  0.0214  0.2409 -0.1316
68746W        W11684  16.079   0.133  25.636  0.0485  0.1342 -0.1929
68747W        W11685  15.578   1.857  25.657 -0.0104  0.3517 -0.3465
68748W        W11686  16.366   2.529  25.664  0.0416  0.0222 -0.1738
68749W        W11687  17.456   0.472  26.117 -0.1240 -0.0947 -0.0148
68750W        W11688  15.752   0.742  25.186  0.0118 -0.2826 -0.0415
68751W        W11689  18.024   0.910  23.854  0.2246 -0.0538 -0.1732
68752W        W11690  14.523   3.704  25.963  0.1010 -0.2079  0.3546
68753W        W11691  18.441   1.268  26.716  0.1455 -0.0427 -0.2496
68754W        W11692  16.787   3.151  30.104 -0.0230 -0.3092  0.0430
68755W        W11693  15.786   1.847  27.496  0.0218  0.0669  0.0219
68756W        W11694  16.590  34.205  27.007 -0.0099  0.0779  0.1838
68757W        W11695  19.073   1.623  29.036 -0.0483  0.1953 -0.2137
68758W        W11696  15.258   2.188  28.226  0.0739  0.0493 -0.1074
68759W        W11697  17.267   3.053  29.925 -0.2539  0.3102 -0.0701
68760W        W11698  15.439   1.044  29.304 -0.1137 -0.2242 -0.1226
68761W        W11699  16.824   3.808  29.125 -0.2452  0.0816  0.4490
68762W        W11700  19.118   2.971  30.246 -0.1412  0.1619 -0.0668
68763W        W11701  17.317   1.244  28.675 -0.0391 -0.2612  0.2656
68764W        W11702  16.589   0.217  30.195  0.1612  0.1318 -0.0417
68765W        W11703  16.173   1.851  30.968  0.2553  0.2208 -0.0391
68766W        W11704  15.718   1.451  28.784  0.2673  0.0607 -0.0680
68767W        W11705  13.993  33.777  29.774 -0.0860  0.1551 -0.3585
68768W        W11706  17.915   1.992  30.369  0.3457  0.1450 -0.1471
68769W        W11707  14.938   1.826  29.283 -0.0098 -0.1767  0.1707
68770W        W11708  16.544   1.103  30.287 -0.0630 -0.0609  0.0077
68771W        W11709  16.871   2.542  29.440  0.3128 -0.0307 -0.1818
68772W        W11710  16.417   4.532  29.078 -0.0890  0.1553  0.0536
68773W        W11711  16.944   1.382  30.492 -0.2691  0.3971  0.0095
68774W        W11712  18.897   0.079  30.175 -0.1584 -0.2123 -0.3458
68775W        W11713  17.310   3.561  30.015 -0.0236 -0.2746 -0.0151
68776W        W11714  15.140   1.481  26.906 -0.1299 -0.3577  0.1085
68777W        W11715  15.679   2.215  27.833 -0.0006  0.0262 -0.0073
68778W        W11716  15.642   1.597  30.030 -0.0464  0.1179  0.3602
68779W        W11717  16.663  33.646  30.745 -0.2934 -0.2123  0.2256
68780W        W11718  18.177   1.300  28.484  0.1057  0.3160  0.0718
68781W        W11719  16.417   3.496  28.837  0.2741 -0.3446  0.0338
68782W        W11720  16.977   3.431  29.632 -0.0595 -0.4369 -0.2707
68783W        W11721  18.143   0.736  30.563 -0.0549  0.0199 -0.0027
68784W        W11722  14.624   2.826  28.804  0.0957  0.0251  0.2177
68785W        W11723  16.065   3.501  29.347 -0.1791  0.0746 -0.1862
68786W        W11724  16.695   2.549  27.685  0.2466 -0.1024 -0.0198
68787W        W11725  17.726   1.559  28.669 -0.2798 -0.0528 -0.2457
68788W        W11726  18.415   2.144  30.509 -0.3271 -0.2115  0.2749
68789W        W11727  16.162   3.888  31.808 -0.0218 -0.0231  0.2027
68790W        W11728  15.364   2.330  26.745 -0.1345 -0.0777 -0.3780
68791W        W11729  16.217   2.251  31.208  0.0392 -0.4742 -0.3889
68792W        W11730  15.556   2.424  29.844  0.0226 -0.0447  0.0633
68793W        W11731  17.589   2.117  29.492  0.0917 -0.0556 -0.1507
68794W        W11732  16.366   2.561  28.107 -0.3595 -0.2793  0.1029
68795W        W11733  16.806   3.496  26.888  0.2309 -0.1693  0.0765
68796W        W11734  17.066   2.086  29.469 -0.1424 -0.0568 -0.1297
68797W        W11735  17.037   1.782  31.270 -0.1496 -0.2081  0.0932
68798W        W11736  17.297   3.857  29.533  0.2412  0.1068  0.2300
68799W        W11737  16.957   0.391  30.582  0.1979  0.0202  0.1648
68800W        W11738  16.308   2.881  27.047 -0.0247  0.0171 -0.0502
68801W        W11739  17.292  34.311  28.037  0.3617 -0.1464  0.3387
68802W        W11740  16.479   2.056  26.935 -0.2250  0.0214  0.0830
68803W        W11741  17.927  34.607  28.565 -0.3278  0.2471 -0.1414
68804W        W11742  16.226  34.547  29.681 -0.4388 -0.0284 -0.0547
68805W        W11743  17.268   4.932  28.547  0.2171  0.0575  0.0785
68806W        W11744  17.044   2.373  28.971 -0.1231 -0.0373 -0.0634
68807W        W11745  17.221   1.408   0.491 -0.0582  0.0747  0.0363
68808W        W11746  16.913   1.005  28.491 -0.2468 -0.2207 -0.3006
68809W        W11747  16.583   1.346  29.824 -0.0702 -0.3882 -0.0346
68810W        W11748  16.816   2.365  31.580 -0.0237 -0.2159  0.3877
68811W        W11749  15.633   1.978  29.549 -0.0022  0.1384  0.2657
68812W        W11750  19.355   3.421  27.901  0.1260 -0.1633 -0.2219
68813W        W11751  18.231   2.671  30.438  0.1382  0.0849  0.0818
68814W        W11752  18.555   3.053  27.288  0.0836  0.1800 -0.1247
68815W        W11753  15.487   0.958  28.775 -0.1978  0.0003  0.4062
68816W        W11754  15.356   1.155  29.897 -0.0565 -0.0619 -0.3405
68817W        W11755  15.465   0.658  29.735 -0.4772  0.1276  0.3299
68818W        W11756  14.840  34.550  29.214 -0.0141  0.4085 -0.0286
68819W        W11757  18.977   2.656  31.257 -0.5185  0.0532  0.2010
68820W        W11758  14.906   3.533  30.450  0.0078 -0.0841  0.0796
68821W        W11759  19.219   0.823  28.784 -0.5083 -0.2698 -0.0901
68822W        W11760  16.297   1.956  29.480 -0.1257  0.1606 -0.1356
68823W        W11761  17.422   2.151  30.372 -0.0436 -0.2406  0.2055
68824W        W11762  17.277   2.228  28.454 -0.0001 -0.0460 -0.1542
68825W        W11763  17.852   0.050  28.996 -0.4460 -0.0074 -0.1349
68826W        W11764  17.018  33.815  31.289 -0.3770  0.4035 -0.1048
68827W        W11765  16.125   2.028  27.881 -0.2137 -0.0598 -0.2026
68828W        W11766  16.775   3.767  27.511  0.2198  0.2183  0.0199
68829W        W11767  18.433   4.687  30.587 -0.2700  0.0626 -0.0087
68830W        W11768  17.522   2.055  28.953 -0.2789  0.0909  0.0476
68831W        W11769  16.023   3.024  30.218  0.1796 -0.2544 -0.2200
68832W        W11770  17.157   1.341  30.931  0.0932  0.0790 -0.0254
68833W        W11771  16.089   1.735   0.445  0.0147 -0.2647 -0.0264
68834W        W11772  16.232   2.764  28.522  0.2788 -0.2373  0.2596
68835W        W11773  14.799   1.711  29.843 -0.0060 -0.0581 -0.4645
68836W        W11774  14.268   1.999  26.301  0.0100  0.1729  0.0151
68837W        W11775  15.943   0.530  28.971 -0.0898 -0.0050  0.1933
68838W        W11776  15.918   2.769  28.957  0.0779  0.0439  0.2591
68839W        W11777  17.410  34.417  28.947 -0.0717 -0.0247 -0.0248
68840W        W11778  15.401  34.491  29.404 -0.1601 -0.2271  0.1465
68841W        W11779  15.867  33.996  29.643 -0.2736  0.0425  0.0119
68842W        W11780  16.160   2.306  28.680 -0.0971 -0.0790  0.1043
68843W        W11781  17.162   4.340  28.513  0.4199 -0.0534 -0.2322
68844W        W11782  18.365   1.704  27.056  0.0576 -0.1714  0.1121
68845W        W11783  17.216   3.234  28.052  0.2700 -0.5317 -0.2037
68846W        W11784  13.324   2.119  29.022 -0.1164  0.1086  0.1794
68847W        W11785  16.094   1.284  28.501  0.2163 -0.2092 -0.2514
68848W        W11786  17.245   0.408  30.975  0.3330 -0.3238  0.2212
68849W        W11787  15.614   1.527  29.226 -0.1246  0.0424 -0.3261
68850W        W11788  18.661   0.506  29.973 -0.0660 -0.0323  0.0060
68851W        W11789  15.386   0.834  28.161  0.1361  0.3208 -0.2228
68852W        W11790  17.880  34.670  29.796  0.0016  0.1088 -0.1545
68853W        W11791  16.575   2.209  29.058  0.1262 -0.0325 -0.1105
68854W        W11792  15.655   3.070  28.233 -0.2861 -0.3212  0.0809
68855W        W11793  17.629   1.347  29.655 -0.0159  0.2823  0.0867
68856W        W11794  17.586   2.232  27.826  0.1029  0.0938 -0.0821
68857W        W11795  17.824   4.575  30.265 -0.0285 -0.2408  0.0274
68858W        W11796  17.379   2.609  29.204  0.1608 -0.1807 -0.3077
68859W        W11797  15.981   1.613  29.622 -0.0349 -0.0490 -0.1427
68860W        W11798  15.610   1.313  27.735  0.0550 -0.3344 -0.0722
68861W        W11799  16.763   3.868  29.625 -0.0642  0.0427  0.1132
68862W        W11800  17.569   3.425  29.529  0.1080  0.2718 -0.1201
68863W        W11801  15.738   2.413  29.348 -0.0041  0.1350  0.0164
68864W        W11802  18.387   3.476  29.247 -0.0830 -0.3555 -0.1025
68865W        W11803  16.871   2.523  28.178 -0.0754 -0.0071 -0.0241
68866W        W11804  14.431   3.003  30.435 -0.0063  0.2194  0.2790
68867W        W11805  17.663   0.677  30.761 -0.3484  0.0859 -0.1721
68868W        W11806  18.123   1.302  29.775 -0.0902  0.0408  0.1337
68869W        W11807  17.384   1.151  29.228  0.2396 -0.1869  0.2423
68870W        W11808  15.921   0.051  27.098  0.1084  0.3296  0.0358
68871W        W11809  17.266   2.448  29.705  0.0511 -0.0655  0.0792
68872W        W11810  13.714   3.935  27.378  0.1846 -0.2084 -0.0343
68873W        W11811  15.034   2.739  28.438 -0.2545 -0.0517  0.3067
68874W        W11812  16.794   3.681  28.578  0.2594  0.3101 -0.0452
68875W        W11813  18.155   1.445  29.004 -0.3470  0.1331 -0.0365
68876W        W11814  16.982   0.769  31.309  0.1344 -0.0975 -0.1084
68877W        W11815  17.273   2.185  31.501  0.0181  0.0226  0.1706
68878W        W11816  16.294   1.911  27.415  0.0304 -0.0457  0.0701
68879W        W11817  14.525   2.347  29.021  0.0836  0.0945 -0.2294
68880W        W11818  16.839   1.073  29.057  0.0209  0.5822 -0.0445
68881W        W11819  18.107   0.424  29.267  0.4091 -0.0973  0.0146
68882W        W11820  16.531   2.223  30.775 -0.1130 -0.0025 -0.3559
68883W        W11821  17.853   4.276  27.857 -0.1558 -0.1135 -0.1759
68884W        W11822  17.383   0.753  26.762 -0.0612 -0.1564 -0.0208
68885W        W11823  16.152   0.825  26.267  0.1001 -0.1003 -0.2175
68886W        W11824  15.911   1.702  30.468 -0.0364  0.1207  0.1488
68887W        W11825  16.850   3.139  28.399  0.1043  0.1545 -0.0487
68888W        W11826  16.708   1.771  28.623 -0.1409  0.0025 -0.1665
68889W        W11827  16.537   0.405  27.205 -0.0577 -0.1122  0.2718
68890W        W11828  17.502   3.077  29.023  0.0864 -0.1927 -0.3109
68891W        W11829  15.754   3.188  29.094 -0.0115  0.1847 -0.1203
68892W        W11830  17.138   2.256   1.591  0.2539  0.1250 -0.0283
68893W        W11831  17.657   2.888  29.549  0.0426  0.1647  0.0701
68894W        W11832  16.528   0.650  29.338 -0.0787  0.1194  0.3037
68895W        W11833  16.427   2.107  28.270 -0.0071  0.1785  0.0182
68896W        W11834  15.221   0.025  29.954 -0.1171 -0.0488 -0.1985
68897W        W11835  15.444   3.620  27.786 -0.1684 -0.1672 -0.0677
68898W        W11836  17.001  34.631  30.942 -0.1936  0.0175  0.1209
68899W        W11837  16.548   1.337  28.707 -0.2398 -0.1975 -0.0810
68900W        W11838  17.102   0.838  30.807  0.1862 -0.2631  0.2119
68901W        W11839  18.651   1.476  30.427  0.0251  0.0177  0.1626
68902W        W11840  17.366   0.253  28.075  0.0785  0.0884  0.2059
68903W        W11841  17.443   1.132  30.514 -0.0740  0.2845  0.2573
68904W        W11842  15.915   1.068  28.089  0.3029  0.1738  0.0226
68905W        W11843  17.062   2.335  30.621 -0.0541 -0.0017 -0.1045
68906W        W11844  15.659   2.588  30.360  0.0527 -0.0366 -0.0636
68907W        W11845  15.315   3.467  30.174 -0.2354  0.1070  0.1380
68908W        W11846  17.021   2.512   0.032  0.1621  0.3899 -0.0232
68909W        W11847  18.040   1.951  29.060 -0.1636 -0.0852  0.0828
68910W        W11848  16.079   0.450  31.414 -0.1314 -0.0500 -0.1770
68911W        W11849  15.960   2.088  29.107 -0.3743 -0.2632 -0.0766
68912W        W11850  15.992   3.285  28.586  0.2492  0.0820 -0.3235
68913W        W11851  16.856   3.574  28.070  0.4783  0.2295 -0.6085
68914W        W11852  15.795   1.154  29.639 -0.0754 -0.3407  0.0730
68915W        W11853  17.030   2.801  31.421 -0.1312  0.1380  0.0104
68916W        W11854  16.069   5.250  27.087 -0.0389  0.0493  0.0014
68917W        W11855  16.753   0.404  31.107  0.1157 -0.0195  0.1545
68918W        W11856  15.347   1.916  27.044  0.2015  0.1806  0.0029
68919W        W11857  18.210  34.467  29.335 -0.1005 -0.0674 -0.2489
68920W        W11858  14.448   3.729  30.120 -0.2741  0.3617 -0.2309
68921W        W11859  16.405   0.572  28.009  0.0560  0.0793  0.0404
68922W        W11860  14.511   1.854  28.968  0.2120  0.2055 -0.3675
68923W        W11861  17.860   0.399  30.231 -0.1265 -0.0853 -0.0690
68924W        W11862  18.899   1.551  28.080 -0.0615 -0.0648  0.0036
68925W        W11863  14.967   0.970  29.085 -0.0926  0.1205 -0.0865
68926W        W11864  15.949   2.675  29.764  0.0956 -0.1372  0.0213
68927W        W11865  16.461   4.198  31.019  0.0290  0.1910 -0.3332
68928W        W11866  17.081   2.127  30.005  0.1116 -0.1715  0.4126
68929W        W11867  16.652   1.566  27.342  0.1500 -0.2578  0.1616
68930W        W11868  17.389   2.687  30.273  0.0321 -0.0487 -0.0177
68931W        W11869  17.717   1.339   0.303 -0.1813 -0.1425  0.2094
68932W        W11870  15.967   0.958  27.046 -0.1126  0.1632 -0.0426
68933W        W11871  18.365   2.299  29.215  0.0520 -0.0004  0.0073
68934W        W11872  15.919   0.726  29.446 -0.0843 -0.1986  0.1600
68935W        W11873  15.470   3.005  28.733 -0.1408  0.2638  0.1737
68936W        W11874  16.901   2.653  29.976  0.4011 -0.0047  0.2377
68937W        W11875  15.162   1.580  27.405  0.1137 -0.2088  0.0881
68938W        W11876  14.092   3.984  30.425 -0.2485 -0.1749  0.3103
68939W        W11877  15.243   2.081  31.319 -0.1152 -0.0090 -0.5490
68940W        W11878  16.980   1.542  29.549  0.2299  0.2288 -0.0606
68941W        W11879  16.934   1.031  29.530  0.0521 -0.0135 -0.2064
68942W        W11880  15.711   0.806  27.543  0.0255  0.0253 -0.1023
68943W        W11881  16.286   2.509  29.413  0.1985  0.0575  0.3395
68944W        W11882  17.228   1.713  30.265  0.0703 -0.2750 -0.2031
68945W        W11883  17.802   1.069  28.929 -0.0331  0.1546  0.1129
68946W        W11884  16.251   3.789  29.788  0.1945  0.1106 -0.0449
68947W        W11885  16.717  34.349  29.593 -0.0228 -0.2257  0.0246
68948W        W11886  18.133   3.573  28.524  0.0087 -0.0047  0.0506
68949W        W11887  18.620   1.382  29.882 -0.1799  0.0971  0.1769
68950W        W11888  15.894   3.637  28.923  0.0266 -0.1029  0.0938
68951W        W11889  15.322   3.512  28.383 -0.0340 -0.1440 -0.3354
68952W        W11890  16.435   3.381  28.350 -0.1076  0.0716 -0.3930
68953W        W11891  17.354   0.464  30.198 -0.0036 -0.0328 -0.3358
68954W        W11892  15.127   2.134  29.781  0.0096  0.2318  0.2494
68955W        W11893  17.323   3.251  28.610  0.1048  0.0205  0.2621
68956W        W11894  15.401   3.671  28.887 -0.2827  0.3160  0.1792
68957W        W11895  17.936  33.921  27.513 -0.0417  0.1559  0.1700
68958W        W11896  16.555   4.266  27.307  0.1076 -0.1589 -0.1042
68959W        W11897  16.113   1.644  29.099 -0.1898 -0.2885  0.1594
68960W        W11898  16.698   0.762  29.867  0.2284 -0.2087 -0.1007
68961W        W11899  17.860   1.816  27.583 -0.1048  0.0377  0.0299
68962W        W11900  18.322   0.289  30.317  0.1306  0.2890  0.1287
68963W        W11901  16.232   0.584  30.216  0.2144 -0.0869 -0.1411
68964W        W11902  17.950   1.885  29.683 -0.1367 -0.2239 -0.1570
68965W        W11903  16.122   0.583  30.918  0.2893  0.0627 -0.2358
68966W        W11904  17.569   2.745   0.818 -0.2414  0.0224  0.4791
68967W        W11905  16.384   1.568  30.511  0.0812 -0.2798 -0.1532
68968W        W11906  18.006  34.169  27.047 -0.2815 -0.0522 -0.1843
68969W        W11907  15.545   1.936  28.887  0.2518  0.0721 -0.4163
68970W        W11908  16.740   2.973  29.638  0.0434 -0.0043 -0.0655
68971W        W11909  18.198   2.838  29.865 -0.0411 -0.0390 -0.0812
68972W        W11910  16.621   2.864  28.987  0.1533 -0.1591  0.1511
68973W        W11911  18.282   0.913  28.959 -0.0761  0.0354  0.1616
68974W        W11912  16.713   1.841  29.892 -0.2231  0.0908 -0.1396
68975W        W11913  17.478   1.771  27.906 -0.4975 -0.2689 -0.1888
68976W        W11914  18.664   2.117  26.901 -0.0659 -0.1393 -0.0453
68977W        W11915  16.521   1.388  27.866 -0.2907  0.2154 -0.0500
68978W        W11916  15.976   0.290  30.524 -0.2026 -0.1579 -0.0714
68979W        W11917  17.683   2.194  29.960 -0.1528  0.0069  0.2342
68980W        W11918  15.613  34.614  30.337  0.1484 -0.2424  0.0213
68981W        W11919  16.822  33.948  30.317  0.1797  0.3514  0.2023
68982W        W11920  17.512   1.798  31.114  0.0008 -0.1277 -0.3905
68983W        W11921  17.355   0.033  31.266 -0.0512  0.1753 -0.3274
68984W        W11922  15.186  34.481  30.641  0.2089 -0.0916  0.2043
68985W        W11923  17.923   3.583  31.183  0.1306  0.2403 -0.1392
68986W        W11924  17.153  34.360  27.269  0.0239  0.0410  0.1752
68987W        W11925  19.722  34.415  30.795  0.3730  0.0866  0.1035
68988W        W11926  17.140   0.598  29.368  0.0617 -0.0251 -0.1650
68989W        W11927  17.065   2.221  27.788 -0.0122  0.1755  0.2239
68990W        W11928  14.570   2.089  28.210  0.0004  0.0785  0.3933
68991W        W11929  17.934   1.982  30.911  0.3070  0.2551  0.0130
68992W        W11930  16.426   1.088  27.242  0.0945  0.2027 -0.0527
68993W        W11931  16.190  34.408  30.604  0.0799  0.0686 -0.1258
68994W        W11932  17.925   3.818  27.669 -0.0343  0.1106  0.3285
68995W        W11933  17.185   2.722  28.643 -0.0916 -0.0619  0.1226
68996W        W11934  17.722   0.849  30.151 -0.2487  0.1843 -0.2744
68997W        W11935  15.058   1.248  28.616 -0.0458  0.0243 -0.0837
68998W        W11936  16.125   3.767  31.282 -0.0191 -0.3552 -0.1916
68999W        W11937  14.789   1.095  27.303  0.1579 -0.1506 -0.1338
69000W        W11938  17.158   2.538  27.312 -0.0363  0.2113 -0.0567
69001W        W11939  15.982   2.131  29.885 -0.0920 -0.0374 -0.1450
69002W        W11940  17.732   1.520  30.616 -0.4411  0.1079  0.2800
69003W        W11941  16.823   0.213  28.106 -0.1619 -0.0134 -0.0845
69004W        W11942  18.245   0.629  31.027 -0.2218  0.1021 -0.1494
69005W        W11943  14.744   2.946  27.828  0.1720 -0.0959 -0.1054
69006W        W11944  16.465   1.055  28.202 -0.1390 -0.2621 -0.1464
69007W        W11945  16.173   2.464  30.224  0.0921  0.1146 -0.2280
69008W        W11946  14.547   2.646  30.094 -0.3772 -0.0691  0.1665
69009W        W11947  15.545   2.496  28.555  0.0003 -0.1438 -0.0869
69010W        W11948  16.671   0.160  29.522 -0.0823  0.1015 -0.0501
69011W        W11949  17.406   0.784  29.783 -0.0181  0.3566 -0.0361
69012W        W11950  16.861   0.292  29.021  0.1991 -0.0449 -0.0620
69013W        W11951  18.652   2.801   0.871 -0.1088 -0.1619 -0.3051
69014W        W11952  16.889   2.213   0.491 -0.2078 -0.1877  0.1300
69015W        W11953  15.064   0.739  28.587  0.3130  0.1297 -0.1785
69016W        W11954  18.035   3.387  30.695  0.2144  0.0364  0.2211
69017W        W11955  17.950   2.901  29.145 -0.1339 -0.0019 -0.1259
69018W        W11956  16.005   3.625  30.677 -0.4242 -0.2471  0.1021
69019W        W11957  16.394   0.932  31.329  0.1916  0.1097  0.1078
69020W        W11958  16.631   2.335  30.276  0.2578  0.2032 -0.2225
69021W        W11959  17.350   1.666  28.413 -0.0026 -0.1998 -0.2232
69022W        W11960  15.159   0.403  27.324  0.0395 -0.2674  0.0027
69023W        W11961  17.838   2.412  29.099  0.0095 -0.0629 -0.2378
69024W        W11962  15.756   2.083  30.775  0.1428 -0.1218  0.0653
69025W        W11963  15.086   0.626  30.803 -0.1166 -0.1451 -0.0201
69026W        W11964  16.213   4.898  29.280 -0.1008 -0.1531 -0.0433
69027W        W11965  18.204   2.355  28.725 -0.1836 -0.1516  0.0980
69028W        W11966  18.023   2.362  29.577  0.1382 -0.3242  0.2221
69029W        W11967  17.341   3.192  30.409  0.1832  0.1841  0.1814
69030W        W11968  16.185   1.016  27.700  0.0258  0.0411  0.1835
69031W        W11969  14.935   3.226  28.607 -0.1806 -0.1248 -0.0722
69032W        W11970  14.971   2.301  27.106 -0.1320 -0.1628  0.1386
69033W        W11971  16.307   3.921  28.565 -0.1652 -0.1747 -0.0513
69034W        W11972  17.889   4.851  29.234  0.0137  0.1076  0.0317
69035W        W11973  18.222   2.843  28.454 -0.0642 -0.3539  0.1113
69036W        W11974  16.981   1.166  27.598 -0.1455 -0.0092  0.1072
69037W        W11975  19.378   1.277  30.314  0.0922 -0.1964  0.0593
69038W        W11976  18.262  34.360  28.132  0.0760  0.0906 -0.0282
69039W        W11977  17.203   4.324  31.957 -0.3277  0.0856  0.1580
69040W        W11978  15.407   2.635  29.042  0.2493  0.1069  0.3338
69041W        W11979  15.881   1.105  29.063 -0.0680 -0.1002  0.2179
69042W        W11980  16.532   2.347  29.822 -0.0353 -0.2347  0.0019
69043W        W11981  19.339  34.575  30.201  0.1667 -0.1173 -0.1042
69044W        W11982  15.138   2.495  30.129 -0.0743  0.0675  0.2530
69045W        W11983  17.486   4.604  27.589 -0.0218  0.0530  0.1224
69046W        W11984  14.414   0.907  27.480  0.2556 -0.0049  0.0687
69047W        W11985  16.068   2.368  27.459 -0.0286  0.1268 -0.0202
69048W        W11986  17.580   0.210  29.432 -0.3981 -0.1605 -0.5328
69049W        W11987  16.113   1.506  27.647  0.0645  0.0372 -0.0119
69050W        W11988  17.170   1.311  29.931  0.2143 -0.4017 -0.1735
69051W        W11989  16.921   2.838  30.481  0.4271  0.0154 -0.1673
69052W        W11990  16.146   2.086  30.499 -0.0917 -0.3110  0.1640
69053W        W11991  16.069   3.515  30.182 -0.0561 -0.2361  0.0656
69054W        W11992  13.340   1.619  28.899 -0.0882  0.1373  0.3554
69055W        W11993  19.317   2.200  28.319 -0.2432 -0.1542 -0.4579
69056W        W11994  18.152   2.315  30.050  0.0338  0.0776  0.2584
69057W        W11995  17.998   0.094  30.754 -0.0296 -0.2264 -0.0475
69058W        W11996  16.707   1.666  29.100 -0.0766  0.2547  0.2746
69059W        W11997  18.080   1.167  27.211 -0.1593  0.1071 -0.0623
69060W        W11998  14.801   2.270  29.448 -0.2514 -0.2587  0.0438
69061W        W11999  15.637   0.018  30.812 -0.3988  0.1298 -0.0141
69062W        W12000  16.647   1.928  27.819  0.0966  0.1689 -0.0833
69063W        W12001  18.352   1.698  29.440 -0.2606  0.2227  0.3073
69064W        W12002  17.658   1.238  27.796 -0.1399  0.1517 -0.2959
69065W        W12003  16.577   4.439   0.338 -0.0222  0.0218  0.5469
69066W        W12004  15.188   1.459  29.048  0.0897 -0.1796  0.0051
69067W        W12005  16.558   0.248  27.673 -0.1407  0.2661  0.0402
69068W        W12006  15.433   1.756  27.926  0.1630 -0.1053 -0.2770
69069W        W12007  16.368   1.173  29.338  0.2172 -0.1108 -0.2352
69070W        W12008  16.988   2.222  31.124 -0.0133  0.0001  0.1528
69071W        W12009  14.180   1.205  28.083  0.1496 -0.2307  0.1098
69072W        W12010  18.939   2.655  29.175  0.2555 -0.2012 -0.0401
69073W        W12011  18.370   0.919  29.981 -0.1492 -0.1007 -0.1216
69074W        W12012  16.764   5.124  26.490 -0.1909 -0.1105  0.1612
69075W        W12013  16.369   1.647  28.215 -0.0879 -0.0743 -0.4471
69076W        W12014  18.523   3.663  30.353  0.1698  0.1326  0.2113
69077W        W12015  14.112   1.548  29.295  0.2896 -0.0999  0.0737
69078W        W12016  15.611   2.905  29.502 -0.3196  0.3051 -0.0253
69079W        W12017  17.705   3.447  28.256 -0.1520  0.0967  0.1863
69080W        W12018  16.410  34.328  28.678 -0.0049 -0.1218 -0.0507
69081W        W12019  16.836   1.420  28.292 -0.3144 -0.0253 -0.0806
69082W        W12020  15.910   4.221  28.872  0.3529  0.3247  0.1152
69083W        W12021  19.131  34.392  29.793  0.1736  0.5125  0.2656
69084W        W12022  17.808   0.516  29.758 -0.2238 -0.1809  0.2152
69085W        W12023  15.952   4.713  28.842  0.1998  0.1538  0.0700
69086W        W12024  17.801   0.296  31.195 -0.2360  0.0564 -0.0173
69087W        W12025  16.152   3.149  30.877 -0.1557 -0.1818 -0.0607
69088W        W12026  16.230   1.478  31.558  0.3240 -0.2264  0.2137
69089W        W12027  15.717   2.051  28.269  0.0642 -0.3231 -0.5498
69090W        W12028  17.217   1.815  30.724  0.1330 -0.1512  0.2332
69091W        W12029  17.740   2.788  27.730 -0.3966  0.0653  0.0390
69092W        W12030  15.516   4.213  30.099 -0.1601 -0.0053 -0.0192
69093W        W12031  18.255   3.200  30.210 -0.0888  0.0914  0.1269
69094W        W12032  17.854   0.975  29.417  0.1337  0.0732 -0.1051
69095W        W12033  18.024   3.297  29.524 -0.1780 -0.2455 -0.0342
69096W        W12034  16.474  34.611  29.099  0.1405  0.0719 -0.0566
69097W        W12035  18.982  34.633  27.424  0.1053 -0.0218  0.0908
69098W        W12036  15.174   0.243  29.538 -0.1830  0.0065 -0.0656
69099W        W12037  15.069   2.246  28.816  0.1876  0.1159 -0.0260
69100W        W12038  15.982   3.242  27.650 -0.0596  0.0799  0.0477
69101W        W12039  15.886   2.706  27.731 -0.2398 -0.3573 -0.2078
69102W        W12040  16.023   1.840  28.637 -0.0965  0.0746 -0.0371
69103W        W12041  14.656   0.351  29.635 -0.0691 -0.1062 -0.3035
69104W        W12042  14.841   3.054  30.713  0.1410  0.4374  0.0219
69105W        W12043  15.037   1.376  30.241  0.0543  0.1218  0.1259
69106W        W12044  14.728   1.760  27.243 -0.1444  0.0917 -0.3444
69107W        W12045  17.940   3.911  28.207  0.3118  0.0113 -0.0476
69108W        W12046  14.319   1.260  28.698 -0.2820 -0.0767  0.0424
69109W        W12047  14.041   2.216  30.019  0.1876 -0.0603 -0.0086
69110W        W12048  17.965   3.028  28.053 -0.3892  0.2356  0.2389
69111W        W12049  17.743   3.019  28.549 -0.0135  0.1572  0.2650
69112W        W12050  15.347   0.497  27.791 -0.4268  0.0411 -0.0120
69113W        W12051  18.415   2.706   0.133 -0.0672 -0.0130 -0.2945
69114W        W12052  15.513   2.831  26.164  0.3006 -0.1038  0.0211
69115W        W12053  14.892   0.267  31.574 -0.1643  0.0417 -0.3057
69116W        W12054  15.407  33.863  29.720 -0.1162 -0.2071  0.1808
69117W        W12055  15.212   0.917  27.660 -0.3601  0.2032  0.2564
69118W        W12056  15.777   0.813  30.088 -0.0152 -0.3921 -0.4146
69119W        W12057  16.495   3.384  27.809 -0.0271  0.1822 -0.0678
69120W        W12058  16.554   4.269  26.479  0.3132  0.1304  0.4297
69121W        W12059  16.378   2.818  29.943  0.2710 -0.3683 -0.2372
69122W        W12060  17.471   2.305  30.912  0.2035  0.1537  0.1191
69123W        W12061  13.809   0.794  27.987  0.1594  0.1706  0.2745
69124W        W12062  16.663   2.492  28.624 -0.1200 -0.0867  0.0646
69125W        W12063  16.749   1.898  30.378  0.0657  0.0411  0.3760
69126W        W12064  18.615   3.324  27.877  0.0490  0.0380  0.3030
69127W        W12065  16.773  34.159  29.118 -0.0347 -0.0832 -0.1803
69128W        W12066  16.600   0.629  28.487  0.2489 -0.3476  0.1174
69129W        W12067  16.017   0.600   0.445  0.2813 -0.1662 -0.0800
69130W        W12068  15.265   2.277  30.585 -0.2320  0.0117 -0.2794
69131W        W12069  18.467   3.210  29.746  0.0985  0.1483 -0.0585
69132W        W12070  14.312   1.662  27.888  0.0045 -0.0409 -0.0877
69133W        W12071  17.709   0.347  28.588  0.1824 -0.0380 -0.0493
69134W        W12072  16.698   2.961  27.993 -0.1837 -0.0153 -0.0889
69135W        W12073  17.225   1.634  29.002  0.0403 -0.1801  0.2202
69136W        W12074  17.397   0.812  28.391  0.1528  0.3605  0.0159
69137W        W12075  17.965   1.673  31.319 -0.0486  0.1673 -0.2086
69138W        W12076  17.348   1.753  29.794 -0.1875 -0.3689 -0.3457
69139W        W12077  18.520   2.108  29.676  0.1153 -0.1475  0.2243
69140W        W12078  15.853   1.598  28.041  0.1886 -0.0251  0.0627
69141W        W12079  18.106   0.888  28.050 -0.0067 -0.0509  0.0414
69142W        W12080  15.306   3.232  29.716  0.1629 -0.0045 -0.0371
69143W        W12081  17.785   2.202  31.339  0.2786  0.0715  0.0203
69144W        W12082  16.369   3.979  29.314  0.0544 -0.2647 -0.0443
69145W        W12083  18.645   1.414  28.514 -0.2898 -0.1653 -0.0571
69146W        W12084  15.519   0.318  30.108  0.0968 -0.2366 -0.2511
69147W        W12085  15.775   3.303  29.740 -0.1756 -0.1134 -0.1140
69148W        W12086  16.925   3.348  28.938  0.3865  0.1510  0.0668
69149W        W12087  17.093   0.893  30.257  0.0875 -0.0229  0.0086
69150W        W12088  16.284   0.383  29.758 -0.0130  0.1958  0.0635
69151W        W12089  16.585  33.430  28.622  0.0510 -0.1744  0.0627
69152W        W12090  16.497   3.409  31.445 -0.1993 -0.1183  0.3363
69153W        W12091  17.093   2.998  29.345 -0.1241 -0.2651  0.1813
69154W        W12092  16.227  34.381  31.496  0.2317  0.1685  0.2026
69155W        W12093  16.899   1.635   0.201  0.3167  0.5210 -0.0213
69156W        W12094  16.447   0.139  31.564  0.1788  0.1942 -0.0023
69157W        W12095  15.610   1.845  31.783  0.2386 -0.1901  0.3774
69158W        W12096  15.904   1.887  31.399 -0.1090 -0.2616 -0.0731
69159W        W12097  17.170   4.043  31.448 -0.0570  0.0011 -0.2710
69160W        W12098  18.282   2.114  31.288  0.0163  0.0203  0.0603
69161W        W12099  15.184   0.133   0.556 -0.1759 -0.2213 -0.0343
69162W        W12100  16.454   0.224  30.716  0.3255 -0.1754  0.0377
69163W        W12101  16.920   3.488   0.350  0.0702  0.0713 -0.1968
69164W        W12102  16.119   1.930  31.871 -0.1481 -0.0904  0.1510
69165W        W12103  15.439  34.239  31.181  0.3469 -0.2171 -0.0789
69166W        W12104  17.906   1.787   0.524 -0.1502  0.0104 -0.1288
69167W        W12105  16.735   1.361  31.267  0.2386  0.1079  0.0794
69168W        W12106  17.560   2.378   1.157 -0.1113  0.1999 -0.0404
69169W        W12107  15.683   2.387  31.144  0.1183  0.1008 -0.0819
69170W        W12108  12.919   1.766  31.847  0.0829  0.0932 -0.2783
69171W        W12109  16.649   3.655  31.903 -0.1494  0.1346 -0.2031
69172W        W12110  14.321  34.090   0.630 -0.1731  0.2320  0.0767
69173W        W12111  14.727   1.414  30.678 -0.1801  0.3032 -0.1530
69174W        W12112  13.797   0.974  31.226 -0.1667  0.0798  0.2375
69175W        W12113  14.981   3.014  30.259 -0.0531  0.1006  0.0759
69176W        W12114  18.032   0.780   0.189  0.0031  0.0415  0.0160
69177W        W12115  16.237   1.717  30.087  0.0690 -0.1192  0.0645
69178W        W12116  17.543  34.175  31.535 -0.1192  0.1259  0.3008
69179W        W12117  16.960   1.142   0.171  0.2186 -0.2700 -0.3451
69180W        W12118  16.474   0.884   0.263 -0.0965  0.0654 -0.2544
69181W        W12119  14.357   3.690  31.398  0.0638 -0.1553  0.0282
69182W        W12120  16.264   0.501   0.025 -0.0867 -0.0530 -0.0006
69183W        W12121  16.723   2.634  31.016 -0.1702 -0.1664 -0.3176
69184W        W12122  16.028   2.702  31.346 -0.3685 -0.1417  0.1007
69185W        W12123  14.139   1.312  31.144  0.2619 -0.1202  0.1504
69186W        W12124  18.887   1.065  30.236 -0.3625 -0.0487  0.2361
69187W        W12125  15.550   0.446   0.219  0.4348  0.3734  0.0064
69188W        W12126  16.022   1.273  30.240 -0.2084 -0.0240 -0.0728
69189W        W12127  15.063   1.931  30.287 -0.0293  0.0220 -0.0376
69190W        W12128  15.702   3.374  31.084  0.2680 -0.1333  0.5046
69191W        W12129  16.727   1.735  30.874  0.2387  0.0051 -0.2292
69192W        W12130  17.248   2.064   0.124  0.1094  0.2389  0.0294
69193W        W12131  17.560   1.796  31.605 -0.1316  0.0137 -0.0352
69194W        W12132  18.869   0.732  31.528 -0.0820 -0.1213  0.3834
69195W        W12133  17.082  34.298  31.401 -0.3064  0.2161  0.0500
69196W        W12134  15.682  34.301   0.883  0.2647 -0.1770  0.0542
69197W        W12135  16.019   3.575   0.209  0.0996  0.1916  0.2481
69198W        W12136  16.500   1.934  31.492 -0.4780  0.2331  0.0800
69199W        W12137  15.599   0.641  30.624 -0.0105  0.3560  0.0925
69200W        W12138  14.955   0.674   0.292  0.3214  0.0241  0.2306
69201W        W12139  17.447   3.140  31.393 -0.0422  0.0493 -0.3230
69202W        W12140  19.309   1.974  31.661 -0.1373  0.1168  0.1093
69203W        W12141  14.329   3.320  30.798  0.1833 -0.0736 -0.1787
69204W        W12142  16.623   3.090  31.101  0.1393 -0.4701 -0.0503
69205W        W12143  17.200   0.435   0.576  0.0818  0.2993  0.1119
69206W        W12144  16.452   0.045   0.290  0.1550 -0.1655 -0.3686
69207W        W12145  16.514   2.796  31.479  0.1286  0.0041  0.0581
69208W        W12146  15.919   1.381   0.875 -0.0813 -0.1830 -0.0151
69209W        W12147  17.730   1.227  31.044 -0.0962 -0.0469  0.1850
69210W        W12148  17.716   1.943   1.060 -0.1073  0.1310  0.2806
69211W        W12149  15.679   3.682  31.530 -0.0977  0.0444 -0.5656
69212W        W12150  17.780   2.207  31.848  0.0759  0.0952 -0.2752
69213W        W12151  14.853   2.010  30.774  0.0398 -0.2203 -0.2263
69214W        W12152  15.645   1.391  31.490 -0.0057 -0.2294  0.4418
69215W        W12153  15.201   2.597  29.504  0.0283 -0.3363  0.0009
69216W        W12154  15.283   3.252  29.161 -0.2131 -0.1753 -0.1779
69217W        W12155  15.045   0.726  31.812  0.1367 -0.5180 -0.2776
69218W        W12156  15.562   2.797  31.707  0.3378  0.1747  0.1968
69219W        W12157  17.773   4.354  31.577  0.3746  0.1436  0.0673
69220W        W12158  18.889   1.948   0.479  0.0599 -0.0724 -0.2176
69221W        W12159  14.772   4.019  18.750  0.3079 -0.1733  0.0215
69222W        W12160  14.798   3.112  17.561 -0.0045  0.1398  0.0967
69223W        W12161  17.963   5.170  17.000  0.1255  0.1654  0.3263
69224W        W12162  18.064   5.726  16.672  0.1011 -0.3152  0.2246
69225W        W12163  14.792   4.380  17.662  0.2721 -0.1757  0.2746
69226W        W12164  16.738   7.359  16.574 -0.1904 -0.0409  0.0961
69227W        W12165  14.415   3.357  20.128  0.1927 -0.1203 -0.1805
69228W        W12166  17.034   4.212  16.809  0.0829  0.2496  0.3484
69229W        W12167  17.960   8.087  18.047 -0.1554  0.0289  0.1130
69230W        W12168  16.776   4.617  16.001  0.0936 -0.2033 -0.2598
69231W        W12169  15.822   4.388  18.585 -0.1470 -0.0056  0.1351
69232W        W12170  15.044   3.899  18.304 -0.1575  0.1416 -0.2873
69233W        W12171  15.851   2.712  18.512  0.2256 -0.1301 -0.5231
69234W        W12172  13.093   3.468  18.113 -0.2099 -0.3716 -0.2951
69235W        W12173  17.646   4.832  17.816  0.0515  0.2098  0.3405
69236W        W12174  12.746   4.958  16.981  0.0957  0.1602 -0.0885
69237W        W12175  14.223   3.601  19.700 -0.2430  0.0046  0.0420
69238W        W12176  15.983   4.701  16.098 -0.1888  0.0351  0.0406
69239W        W12177  16.776   6.468  17.836 -0.1979 -0.0033  0.0932
69240W        W12178  15.048   2.149  18.797  0.2453 -0.0965  0.0483
69241W        W12179  17.769   3.298  18.007  0.0623 -0.2203 -0.2532
69242W        W12180  16.344   6.384  15.926 -0.2840 -0.2633 -0.2168
69243W        W12181  14.151   5.381  16.061  0.1414 -0.2447  0.3116
69244W        W12182  13.231   3.088  17.699 -0.2362 -0.0821 -0.4596
69245W        W12183  13.306   3.464  19.624 -0.1544 -0.0705  0.0241
69246W        W12184  15.141   5.770  18.372 -0.0132  0.3174  0.3130
69247W        W12185  16.388   5.411  15.870  0.3302 -0.0573 -0.0192
69248W        W12186  15.725   6.607  17.246  0.1216 -0.2661  0.0043
69249W        W12187  15.814   5.080  18.200  0.0249  0.1991 -0.0169
69250W        W12188  16.829   4.800  19.020  0.0622 -0.0347 -0.0719
69251W        W12189  14.211   5.548  16.654 -0.3204 -0.1251  0.0198
69252W        W12190  15.082   6.008  17.456  0.0666 -0.2671  0.0226
69253W        W12191  15.707   6.491  16.667  0.0729 -0.0863  0.1047
69254W        W12192  17.061   5.609  16.616 -0.1194 -0.0724  0.0054
69255W        W12193  19.616   6.939  19.739  0.3625  0.1826  0.2398
69256W        W12194  14.585   5.425  19.807 -0.2545 -0.0954  0.2544
69257W        W12195  14.832   7.670  15.887  0.1463 -0.2841 -0.1250
69258W        W12196  16.373   5.594  19.651  0.0074 -0.1166 -0.1763
69259W        W12197  15.031   5.425  20.605  0.0063  0.1814  0.0702
69260W        W12198  16.521   3.344  18.555 -0.0278 -0.0361  0.1320
69261W        W12199  15.963   4.998  16.553  0.2292 -0.3195 -0.1766
69262W        W12200  16.200   5.488  15.424 -0.1118 -0.5043 -0.0469
69263W        W12201  17.747   4.790  17.310 -0.1830  0.0930 -0.2007
69264W        W12202  16.846   5.357  19.856 -0.0745  0.1757 -0.3602
69265W        W12203  14.064   6.190  17.708  0.3762 -0.4783 -0.0653
69266W        W12204  18.429   4.471  19.048  0.1105  0.0798  0.1700
69267W        W12205  15.983   5.702  15.830 -0.2378 -0.1086 -0.0305
69268W        W12206  16.766   4.083  16.098 -0.0402 -0.1504 -0.1614
69269W        W12207  14.605   5.528  16.306  0.0849 -0.1254  0.0612
69270W        W12208  17.024   3.352  16.628  0.3058 -0.1045  0.3367
69271W        W12209  15.536   3.384  17.009 -0.2953  0.1278 -0.2079
69272W        W12210  16.477   6.155  18.175  0.1550  0.0915  0.0130
69273W        W12211  15.674   3.151  18.458 -0.1500  0.1525 -0.1307
69274W        W12212  18.240   6.085  17.920 -0.2484  0.1279 -0.2996
69275W        W12213  15.225   6.764  17.363  0.1133 -0.4048 -0.1144
69276W        W12214  15.381   4.190  16.948 -0.0204 -0.1579 -0.0280
69277W        W12215  15.389   4.092  18.698  0.1456  0.0029  0.2701
69278W        W12216  14.678   4.681  16.813 -0.0195  0.1859  0.0087
69279W        W12217  17.930   5.689  16.114  0.1465  0.1713 -0.4067
69280W        W12218  17.123   6.350  16.771  0.0062  0.0729  0.0618
69281W        W12219  16.524   4.928  18.062  0.1045 -0.0321  0.0048
69282W        W12220  15.089   4.994  16.739  0.2292 -0.1495 -0.0251
69283W        W12221  13.866   3.962  18.597  0.0101 -0.0222  0.1965
69284W        W12222  14.338   3.926  19.006  0.1430 -0.1370  0.3961
69285W        W12223  15.988   3.618  17.113 -0.2875  0.1032 -0.1023
69286W        W12224  18.307   6.289  19.558  0.1902  0.0685  0.1945
69287W        W12225  14.422   7.483  19.715 -0.1990 -0.1029 -0.2321
69288W        W12226  16.481   3.415  17.361 -0.2816  0.1787 -0.0249
69289W        W12227  14.915   4.960  17.708 -0.0982  0.0584 -0.0075
69290W        W12228  16.030   6.322  18.656 -0.1555 -0.2133  0.3702
69291W        W12229  17.567   6.636  17.015  0.0866 -0.1201 -0.4596
69292W        W12230  16.776   4.366  17.976 -0.1094 -0.1118 -0.2984
69293W        W12231  16.334   3.850  18.646 -0.2340 -0.1303 -0.0789
69294W        W12232  15.442   4.913  16.309  0.1472 -0.1772 -0.0794
69295W        W12233  14.753   5.369  16.699  0.0249 -0.0202  0.2702
69296W        W12234  18.018   6.383  18.580  0.3166  0.0051  0.0700
69297W        W12235  17.814   5.223  15.898  0.1383  0.3904 -0.0936
69298W        W12236  15.382   5.874  17.863  0.2332  0.0535 -0.1732
69299W        W12237  14.727   3.619  19.840  0.1637 -0.1965  0.0630
69300W        W12238  15.022   5.245  20.077  0.1413  0.3002  0.2472
69301W        W12239  14.996   6.531  16.089  0.1168  0.1331 -0.2780
69302W        W12240  13.655   4.214  18.989 -0.4970 -0.0328  0.1796
69303W        W12241  16.064   6.275  17.152 -0.2105  0.2282  0.0857
69304W        W12242  13.103   5.152  19.887 -0.1475 -0.2107  0.0119
69305W        W12243  14.257   6.459  18.209  0.1333  0.0228  0.2762
69306W        W12244  18.023   4.422  17.437  0.0940 -0.0283  0.1100
69307W        W12245  13.645   4.045  18.139  0.3577 -0.0050  0.1293
69308W        W12246  17.703   3.413  17.359 -0.2202  0.1154 -0.0967
69309W        W12247  15.745   5.098  19.533  0.1537 -0.1638  0.1965
69310W        W12248  17.068   7.001  15.715  0.0920 -0.0099 -0.1411
69311W        W12249  16.886   5.071  16.791 -0.1118  0.2939  0.2391
69312W        W12250  16.951   5.635  16.126 -0.1241 -0.1886  0.2268
69313W        W12251  13.521   4.485  19.403  0.0275  0.0627  0.0224
69314W        W12252  14.788   3.382  17.139  0.1133  0.3907 -0.0450
69315W        W12253  14.627   2.300  20.336  0.2452 -0.1115 -0.1448
69316W        W12254  15.454   1.987  16.359 -0.2742  0.0771 -0.0449
69317W        W12255  17.561   3.866  17.873  0.2265 -0.0747  0.3654
69318W        W12256  14.431   4.334  15.907  0.2603  0.2435  0.1117
69319W        W12257  17.233   4.628  17.493 -0.1162 -0.2606 -0.1966
69320W        W12258  16.343   5.210  17.494  0.3185  0.1186 -0.5295
69321W        W12259  12.139   3.624  17.253 -0.0262 -0.1316 -0.1290
69322W        W12260  18.330   3.687  19.341  0.0763 -0.1056  0.6044
69323W        W12261  16.007   7.067  17.197 -0.1962  0.2120 -0.1643
69324W        W12262  19.372   6.728  19.309  0.3847  0.0120  0.2684
69325W        W12263  17.299   7.435  17.747  0.0985 -0.1832  0.0249
69326W        W12264  13.425   5.201  18.954 -0.2558 -0.2463 -0.0003
69327W        W12265  15.220   3.645  16.258 -0.0227 -0.0796  0.1062
69328W        W12266  14.269   5.928  18.090 -0.1063 -0.0652  0.1747
69329W        W12267  15.640   6.023  18.446  0.0748 -0.2798  0.2282
69330W        W12268  15.436   4.035  16.452 -0.1127 -0.0693  0.2436
69331W        W12269  17.581   5.272  18.482 -0.0958  0.2841  0.2591
69332W        W12270  17.095   4.748  17.988  0.0542  0.0561  0.0433
69333W        W12271  14.957   5.635  19.142 -0.2685  0.0437  0.1124
69334W        W12272  15.904   3.440  19.295 -0.1196 -0.2294  0.0365
69335W        W12273  16.056   4.917  17.801 -0.3997 -0.2195  0.1225
69336W        W12274  17.258   4.725  16.602  0.4208 -0.0458  0.1510
69337W        W12275  14.857   4.208  15.738  0.1033 -0.2750 -0.3250
69338W        W12276  17.052   5.584  17.751 -0.0050 -0.2956 -0.1468
69339W        W12277  15.077   7.176  16.815 -0.0125 -0.2918 -0.1463
69340W        W12278  13.966   5.169  17.294  0.1076 -0.2697  0.1467
69341W        W12279  15.373   5.209  19.115  0.1212  0.1454  0.0685
69342W        W12280  18.531   4.512  16.681  0.0910 -0.1345  0.0565
69343W        W12281  14.019   4.043  20.522  0.0493 -0.4199  0.1579
69344W        W12282  16.131   5.805  18.015  0.0771  0.2097  0.2976
69345W        W12283  15.538   4.832  16.882 -0.0561 -0.0602 -0.0201
69346W        W12284  14.837   4.819  18.879 -0.2409 -0.0194  0.2228
69347W        W12285  14.894   2.857  19.372  0.0047  0.1148  0.0777
69348W        W12286  17.834   5.259  17.479 -0.0593  0.1465  0.1346
69349W        W12287  16.271   6.568  19.393  0.5530 -0.0699 -0.1690
69350W        W12288  16.974   4.206  17.362 -0.0405  0.2071  0.2434
69351W        W12289  16.574   4.306  17.113 -0.0211  0.3576 -0.1198
69352W        W12290  17.324   3.795  16.647 -0.1798  0.0813  0.1781
69353W        W12291  14.811   5.215  19.338  0.0950 -0.1651  0.1439
69354W        W12292  16.161   6.330  17.717 -0.0211 -0.0662 -0.0069
69355W        W12293  17.064   4.020  17.851 -0.0980 -0.0964 -0.0978
69356W        W12294  16.077   3.222  16.109  0.0185  0.0747 -0.0636
69357W        W12295  17.325   5.909  16.942 -0.0870  0.0576  0.0296
69358W        W12296  13.317   4.509  18.200  0.1024 -0.0317 -0.1736
69359W        W12297  17.616   6.707  18.114  0.0941  0.2061 -0.3372
69360W        W12298  16.995   6.849  16.969 -0.3202  0.1216 -0.1764
69361W        W12299  15.350   2.343  19.116 -0.0334 -0.0425 -0.0166
69362W        W12300  14.496   3.046  16.863 -0.0774 -0.0106 -0.3725
69363W        W12301  17.751   3.504  16.832  0.0624 -0.3159  0.2039
69364W        W12302  15.076   5.836  16.394 -0.3015  0.0211  0.0554
69365W        W12303  19.227   3.545  18.336 -0.0952 -0.1227 -0.1008
69366W        W12304  18.107   2.634  18.985 -0.1675  0.0040  0.1086
69367W        W12305  14.880   4.644  19.327  0.0318 -0.1835  0.5376
69368W        W12306  17.624   4.984  18.937  0.0800 -0.0419 -0.0296
69369W        W12307  16.335   4.317  16.080  0.2224 -0.1888  0.3380
69370W        W12308  17.293   5.934  15.901  0.2288  0.3611  0.2050
69371W        W12309  15.641   4.494  17.240 -0.0832 -0.2975  0.1513
69372W        W12310  16.719   4.609  17.573 -0.0355 -0.2022 -0.4130
69373W        W12311  14.289   5.490  19.399  0.0723 -0.0028 -0.1955
69374W        W12312  15.087   7.444  18.273 -0.0084 -0.1025  0.0024
69375W        W12313  16.316   6.994  18.450 -0.4184  0.1736 -0.2498
69376W        W12314  16.473   4.738  16.783 -0.0841  0.0656 -0.1192
69377W        W12315  14.586   3.679  18.398 -0.0944  0.2091 -0.0048
69378W        W12316  15.727   2.987  16.400  0.0052 -0.0320  0.3715
69379W        W12317  15.499   6.549  15.909 -0.0403  0.0876  0.0252
69380W        W12318  15.271   5.708  16.828 -0.1832  0.0909  0.2735
69381W        W12319  15.487   3.664  18.413  0.1479 -0.0067  0.0633
69382W        W12320  16.306   4.492  17.908 -0.0685 -0.1045 -0.0085
69383W        W12321  16.065   5.447  16.253 -0.0274  0.0601  0.3748
69384W        W12322  16.167   5.265  19.251 -0.1016 -0.1953  0.1252
69385W        W12323  14.591   6.468  16.613 -0.1079  0.0341 -0.2344
69386W        W12324  17.356   3.105  17.754  0.2749  0.0329 -0.4523
69387W        W12325  14.359   5.622  17.641 -0.0767 -0.2585  0.0042
69388W        W12326  15.129   4.493  16.635 -0.0396 -0.1788  0.1015
69389W        W12327  14.301   4.674  18.771 -0.0667  0.1648  0.0280
69390W        W12328  16.151   4.007  18.029 -0.2004  0.2431  0.4932
69391W        W12329  17.364   5.195  16.518 -0.2006  0.2039 -0.1540
69392W        W12330  13.180   2.352  18.833  0.1491  0.0349 -0.3532
69393W        W12331  15.440   4.858  17.691 -0.0185 -0.2297  0.0679
69394W        W12332  14.807   7.015  18.451  0.0392 -0.1860  0.0014
69395W        W12333  17.166   5.144  18.805  0.2758  0.1243 -0.0812
69396W        W12334  16.816   3.841  16.563 -0.2065  0.0208  0.1785
69397W        W12335  19.696   6.249  19.320 -0.3756  0.2285 -0.1648
69398W        W12336  16.294   5.308  18.388 -0.3238 -0.1336 -0.4011
69399W        W12337  14.877   3.375  15.936  0.0024 -0.0682 -0.2032
69400W        W12338  17.918   3.818  17.506  0.0710  0.0549  0.1124
69401W        W12339  13.902   4.859  16.560  0.0403  0.1003 -0.0060
69402W        W12340  15.864   5.384  18.686 -0.1267 -0.0449  0.0821
69403W        W12341  17.855   4.821  18.520  0.1657  0.2124 -0.0361
69404W        W12342  15.115   4.186  16.119 -0.0882 -0.1305 -0.0344
69405W        W12343  14.427   5.123  18.558  0.4454  0.0893  0.1440
69406W        W12344  16.539   3.626  19.433  0.0169  0.1572  0.1572
69407W        W12345  17.527   4.366  17.976 -0.1232  0.0161  0.0240
69408W        W12346  14.611   4.774  17.337  0.2593  0.2310 -0.0732
69409W        W12347  15.365   4.313  17.702  0.1221  0.5683 -0.1291
69410W        W12348  16.070   4.157  17.052 -0.1843 -0.0791 -0.2395
69411W        W12349  16.522   5.478  17.868 -0.0732 -0.0306 -0.3406
69412W        W12350  15.416   4.826  18.326 -0.0410 -0.3252  0.0804
69413W        W12351  14.890   4.971  20.775 -0.1153 -0.1879 -0.0070
69414W        W12352  15.648   3.946  17.259 -0.0588  0.1659 -0.2544
69415W        W12353  18.427   6.766  16.374  0.1193  0.1075  0.0197
69416W        W12354  17.165   4.491  19.740  0.0276  0.1157 -0.2484
69417W        W12355  14.368   4.723  17.844 -0.1665  0.1041  0.3039
69418W        W12356  13.713   3.047  18.606  0.1195  0.2550 -0.1697
69419W        W12357  16.784   5.064  17.652 -0.2377 -0.0199  0.0234
69420W        W12358  16.918   4.859  18.439 -0.2256 -0.0372 -0.0148
69421W        W12359  15.385   5.234  18.594 -0.0354  0.4591 -0.0233
69422W        W12360  14.926   5.606  17.190 -0.3224  0.0193 -0.0738
69423W        W12361  15.246   5.104  19.596 -0.2125 -0.3498 -0.0119
69424W        W12362  18.063   3.515  16.138 -0.2243  0.0502  0.2191
69425W        W12363  17.197   5.070  15.267  0.2385  0.0308 -0.1455
69426W        W12364  16.178   4.451  16.480  0.3154 -0.0581 -0.1904
69427W        W12365  17.146   3.867  19.217  0.1871 -0.3243  0.1994
69428W        W12366  17.358   5.289  16.047  0.0581 -0.4762  0.3451
69429W        W12367  18.127   3.078  20.191 -0.0606  0.0704  0.0099
69430W        W12368  13.973   2.519  20.551 -0.1790  0.1879 -0.2441
69431W        W12369  16.666   5.888  16.509  0.1389 -0.0017  0.1567
69432W        W12370  13.878   4.831  19.290  0.1713 -0.0371  0.1565
69433W        W12371  16.683   8.058  18.340 -0.1607 -0.2024  0.1218
69434W        W12372  14.990   6.061  19.729  0.0458 -0.0162 -0.1103
69435W        W12373  16.369   4.059  16.704  0.1447  0.2465 -0.1611
69436W        W12374  15.278   3.292  16.619 -0.0203 -0.0826 -0.0867
69437W        W12375  16.017   4.438  19.325  0.5030 -0.0697  0.2433
69438W        W12376  17.435   6.528  18.807  0.0424  0.0483  0.0024
69439W        W12377  15.365   6.190  16.209 -0.1140  0.0837 -0.3381
69440W        W12378  18.173   4.885  17.745  0.0415 -0.3117  0.0484
69441W        W12379  14.121   4.372  18.182 -0.0723  0.0023 -0.0669
69442W        W12380  15.956   4.269  17.580  0.2041  0.1337  0.1565
69443W        W12381  16.192   4.989  15.331 -0.3595  0.1234  0.2146
69444W        W12382  15.422   5.331  17.585  0.0636  0.0931  0.3709
69445W        W12383  14.641   3.875  19.441  0.2077  0.4185 -0.0074
69446W        W12384  18.638   4.885  18.990  0.2975 -0.1357  0.2047
69447W        W12385  15.702   3.895  17.776  0.0493  0.0957 -0.1546
69448W        W12386  17.125   4.312  18.311  0.1913  0.2727 -0.0675
69449W        W12387  16.469   4.148  17.603  0.1945 -0.3632 -0.0137
69450W        W12388  14.966   4.746  19.809 -0.1276  0.1659  0.0992
69451W        W12389  13.511   3.804  19.299  0.1679  0.3253 -0.0415
69452W        W12390  16.822   5.923  16.999 -0.2379 -0.0554 -0.1053
69453W        W12391  18.429   3.178  16.205  0.0052  0.0561  0.0020
69454W        W12392  17.023   3.467  18.670 -0.0270 -0.2599 -0.1304
69455W        W12393  19.114   5.947  17.184  0.2638  0.1163 -0.0650
69456W        W12394  16.993   4.624  17.062  0.1690 -0.0939  0.1737
69457W        W12395  13.956   2.459  17.982  0.0619 -0.0141 -0.0580
69458W        W12396  16.601   6.103  18.694 -0.0366  0.1203 -0.0092
69459W        W12397  15.831   3.301  15.539  0.1017 -0.0794 -0.0470
69460W        W12398  15.673   4.196  19.614 -0.0251  0.0239  0.0318
69461W        W12399  16.622   5.449  16.967  0.1094 -0.0300  0.0177
69462W        W12400  16.517   6.326  17.327  0.0206  0.0181 -0.3063
69463W        W12401  15.777   4.997  17.355  0.1458  0.2523  0.2909
69464W        W12402  15.092   4.007  19.159 -0.2418 -0.1307 -0.1150
69465W        W12403  16.031   7.368  18.687  0.1960  0.2297  0.0259
69466W        W12404  15.451   4.310  15.644  0.0376  0.0208 -0.2285
69467W        W12405  15.611   5.355  16.548  0.2014  0.0036  0.1680
69468W        W12406  16.711   5.714  18.354  0.1622  0.1868 -0.0577
69469W        W12407  18.526   5.659  18.977 -0.1698  0.1827 -0.1156
69470W        W12408  16.490   2.499  15.772 -0.0664  0.3249  0.0018
69471W        W12409  17.787   3.661  19.207 -0.1847  0.1096 -0.2441
69472W        W12410  13.474   6.362  17.572  0.1871 -0.2147  0.0655
69473W        W12411  16.954   3.407  18.154  0.0754 -0.1971 -0.0778
69474W        W12412  14.275   6.127  18.616  0.1355  0.0303  0.0523
69475W        W12413  14.308   4.221  18.590  0.3442  0.1856  0.0473
69476W        W12414  16.573   6.548  16.822 -0.1513 -0.1089 -0.2543
69477W        W12415  16.023   3.465  18.591  0.2323 -0.1631  0.4855
69478W        W12416  16.991   5.273  18.184  0.1893 -0.2617  0.3921
69479W        W12417  16.143   4.755  18.364  0.0409  0.0043  0.2934
69480W        W12418  18.538   4.995  19.649 -0.0181 -0.0489  0.2705
69481W        W12419  16.124   5.831  18.506 -0.2121  0.1510 -0.2255
69482W        W12420  14.197   4.168  17.697 -0.0873 -0.0835 -0.1072
69483W        W12421  16.702   6.427  19.275 -0.1111 -0.2039  0.1524
69484W        W12422  16.699   5.524  17.421  0.1489 -0.1267 -0.2701
69485W        W12423  15.886   5.395  17.739  0.2456 -0.1567 -0.0887
69486W        W12424  14.484   3.561  20.613 -0.0812  0.0804 -0.0642
69487W        W12425  17.955   3.776  19.656  0.0939  0.1853  0.0031
69488W        W12426  16.568   5.377  16.473  0.2914 -0.1908 -0.4224
69489W        W12427  15.466   1.665  16.820  0.0685 -0.2298 -0.2248
69490W        W12428  16.215   6.546  18.223  0.2632 -0.1414 -0.0771
69491W        W12429  14.789   6.387  18.563  0.1952  0.2847  0.4138
69492W        W12430  13.719   5.499  18.687 -0.0015  0.0764 -0.2219
69493W        W12431  16.291   6.117  16.722 -0.1987 -0.1591 -0.0514
69494W        W12432  17.445   5.715  17.444 -0.1027 -0.1139 -0.0203
69495W        W12433  16.639   4.937  17.206  0.1782 -0.3426 -0.1721
69496W        W12434  17.304   3.831  18.324  0.1131 -0.1148 -0.4107
69497W        W12435  15.944   3.957  16.238  0.0899  0.0187  0.0547
69498W        W12436  15.371   4.720  18.859 -0.1133  0.0495  0.2166
69499W        W12437  14.892   5.527  17.733  0.1003 -0.0039 -0.0942
69500W        W12438  16.190   5.173  16.946 -0.2018 -0.1986 -0.1593
69501W        W12439  15.416   5.675  19.297 -0.1462  0.2105  0.0026
69502W        W12440  18.359   6.737  18.615  0.1379  0.0583  0.5236
69503W        W12441  17.708   3.881  16.308 -0.2242  0.2755 -0.5736
69504W        W12442  17.801   5.646  18.247  0.2723 -0.0075 -0.0597
69505W        W12443  18.532   4.178  16.342 -0.2257 -0.0611 -0.0989
69506W        W12444  17.497   3.755  19.949  0.2027 -0.2168  0.0745
69507W        W12445  16.263   4.637  17.403  0.3099 -0.0776 -0.0168
69508W        W12446  15.784   3.849  16.721 -0.0801  0.1626 -0.4089
69509W        W12447  15.059   4.392  18.492  0.2284 -0.0181  0.0446
69510W        W12448  18.097   2.542  19.923 -0.0227 -0.0383 -0.2353
69511W        W12449  14.849   6.568  19.582 -0.0767  0.0051 -0.0284
69512W        W12450  16.368   7.953  17.315  0.1082  0.1495 -0.4630
69513W        W12451  14.753   3.877  17.524 -0.1159 -0.1019  0.0226
69514W        W12452  17.318   6.436  17.808 -0.0357 -0.0882 -0.1524
69515W        W12453  18.661   3.659  17.990  0.0923 -0.2460  0.2278
69516W        W12454  15.474   5.750  17.329 -0.2629 -0.0804 -0.0151
69517W        W12455  16.763   3.677  17.705  0.2552  0.1065  0.0746
69518W        W12456  16.323   4.978  18.804  0.0924  0.0635  0.2800
69519W        W12457  15.792   6.150  17.984  0.0794 -0.1398  0.1026
69520W        W12458  15.681   6.711  17.711  0.1277 -0.0043  0.1027
69521W        W12459  14.517   3.384  15.590 -0.3047  0.4681 -0.1486
69522W        W12460  17.187   4.340  16.332 -0.1951  0.0897 -0.1358
69523W        W12461  14.564   5.230  18.031 -0.0209  0.0303  0.0014
69524W        W12462  18.200   2.834  19.452  0.0986  0.2946  0.0194
69525W        W12463  16.014   4.683  16.948 -0.1281 -0.0333  0.3660
69526W        W12464  15.808   4.530  18.047  0.0242 -0.1738  0.1491
69527W        W12465  16.216   4.509  18.824  0.2327 -0.1525  0.0760
69528W        W12466  14.079   4.388  19.130  0.1942  0.0793 -0.0025
69529W        W12467  16.397   3.691  16.389 -0.3420 -0.1299 -0.2759
69530W        W12468  17.527   4.186  17.440 -0.2476  0.2948 -0.1583
69531W        W12469  16.818   3.764  15.624  0.3084 -0.2772  0.4139
69532W        W12470  17.126   6.609  18.323 -0.1895  0.0931 -0.0476
69533W        W12471  15.272   2.158  17.406 -0.0373  0.0855  0.1308
69534W        W12472  15.982   3.277  16.688 -0.0022  0.0042  0.1485
69535W        W12473  14.943   4.960  18.394  0.1276  0.2505  0.1557
69536W        W12474  15.402   4.661  19.475 -0.0201  0.0884  0.2626
69537W        W12475  18.362   6.490  17.697  0.1886  0.0829 -0.1562
69538W        W12476  15.203   1.844  17.863 -0.0436 -0.0076 -0.0663
69539W        W12477  16.997   5.038  15.789  0.0199 -0.1394 -0.0704
69540W        W12478  17.593   4.916  19.645 -0.0153 -0.1005 -0.1500
69541W        W12479  16.373   5.850  17.212 -0.0354 -0.0779 -0.0646
69542W        W12480  16.729   4.438  16.464 -0.0094 -0.3914 -0.0361
69543W        W12481  17.169   6.049  16.364  0.1670  0.1169  0.0212
69544W        W12482  12.719   3.416  19.488 -0.0913 -0.1561  0.0342
69545W        W12483  17.501   5.921  17.864  0.0147 -0.0651  0.1149
69546W        W12484  18.937   5.765  19.833 -0.0743  0.2590 -0.0083
69547W        W12485  16.015   2.604  17.046 -0.3087  0.0196 -0.0363
69548W        W12486  15.014   4.141  17.234  0.2756  0.1866  0.1642
69549W        W12487  14.400   6.984  18.153 -0.0876  0.2145 -0.0483
69550W        W12488  17.403   4.796  18.337 -0.1953  0.1102  0.0775
69551W        W12489  19.083   4.703  18.957 -0.1311  0.0342  0.2894
69552W        W12490  15.575   5.991  15.677 -0.0226  0.1069 -0.2901
69553W        W12491  18.210   4.314  18.479 -0.3918  0.0317  0.0867
69554W        W12492  15.866   5.618  20.299 -0.0550 -0.2550  0.1776
69555W        W12493  15.248   5.269  21.006  0.0382 -0.1922 -0.3796
69556W        W12494  14.397   5.559  17.149 -0.1255  0.1882 -0.3644
69557W        W12495  16.414   4.260  18.377 -0.1806 -0.1607  0.1636
69558W        W12496  15.713   5.945  16.947 -0.1023 -0.1671  0.1587
69559W        W12497  15.525   5.714  16.135  0.0166 -0.1225 -0.0167
69560W        W12498  18.749   6.107  18.829  0.1141 -0.1954  0.0353
69561W        W12499  16.453   4.920  16.245  0.0194 -0.1837 -0.0779
69562W        W12500  17.237   5.716  18.274 -0.0151  0.0240 -0.1032
69563W        W12501  16.143   3.062  18.291 -0.0614 -0.0958 -0.0304
69564W        W12502  16.539   2.527  18.183 -0.3220  0.0362 -0.0738
69565W        W12503  18.989   3.460  16.759 -0.2771 -0.0029 -0.2221
69566W        W12504  15.113   4.606  17.991 -0.0241  0.2256  0.0406
69567W        W12505  15.169   3.735  17.042  0.2089  0.0140 -0.0035
69568W        W12506  15.708   4.479  16.544  0.0254  0.1245 -0.1845
69569W        W12507  15.397   5.660  18.792 -0.0875 -0.1833  0.0781
69570W        W12508  16.189   2.973  18.785 -0.1228  0.2052 -0.0075
69571W        W12509  15.595   4.200  19.162  0.0489 -0.0285  0.0503
69572W        W12510  14.648   4.572  18.217  0.2151  0.0121 -0.1981
69573W        W12511  15.666   3.549  16.305 -0.1800  0.1329  0.0089
69574W        W12512  18.001   4.626  18.077 -0.0706  0.0812  0.1004
69575W        W12513  14.946   3.403  19.426 -0.2750 -0.0043  0.0695
69576W        W12514  14.709   3.150  18.138 -0.1518 -0.2265  0.0346
69577W        W12515  17.095   5.475  17.128  0.0922 -0.2561  0.1164
69578W        W12516  17.560   5.478  16.910  0.1038 -0.3386 -0.1002
69579W        W12517  16.173   3.751  17.587 -0.3375  0.1175  0.0505
69580W        W12518  18.556   5.157  20.904  0.0275 -0.0624 -0.1549
69581W        W12519  14.833   4.835  16.322 -0.1217  0.2106 -0.3983
69582W        W12520  16.092   3.711  19.864 -0.0759  0.0602  0.1074
69583W        W12521  15.074   0.935  19.383 -0.1838 -0.0616  0.0255
69584W        W12522  15.623   2.907  16.910  0.1551 -0.0580 -0.0463
69585W        W12523  15.500   3.724  19.311 -0.0823 -0.2112  0.2601
69586W        W12524  15.079   7.175  18.821  0.3313 -0.0036 -0.1511
69587W        W12525  15.946   8.302  16.237 -0.0098  0.2378  0.2763
69588W        W12526  15.248   5.278  18.084  0.1255 -0.0024  0.1643
69589W        W12527  15.137   4.808  20.371 -0.0930 -0.0967 -0.0214
69590W        W12528  14.878   2.647  18.902  0.1329 -0.5682 -0.1951
69591W        W12529  17.643   4.844  16.278 -0.1869 -0.2511 -0.0645
69592W        W12530  14.580   4.325  19.054  0.1752  0.0847  0.2211
69593W        W12531  16.963   5.040  16.286  0.2655 -0.3376 -0.1478
69594W        W12532  18.541   4.133  17.988 -0.0493 -0.2294 -0.4915
69595W        W12533  16.552   5.965  17.717 -0.0179  0.2943  0.0886
69596W        W12534  15.406   4.287  20.382 -0.2781 -0.0474  0.2180
69597W        W12535  14.664   5.589  20.286 -0.1391  0.2928  0.2718
69598W        W12536  17.047   4.028  18.742  0.0292 -0.2898 -0.0130
69599W        W12537  15.314   3.666  17.574 -0.1968  0.1435  0.3239
69600W        W12538  16.851   3.235  17.717  0.1534 -0.0269  0.0799
69601W        W12539  15.777   5.961  16.450  0.4554 -0.1244  0.3890
69602W        W12540  13.120   3.528  19.055  0.0455 -0.1818 -0.0277
69603W        W12541  15.162   4.629  17.175 -0.1636 -0.0848 -0.2095
69604W        W12542  17.619   4.409  18.487  0.1101  0.2948 -0.0405
69605W        W12543  15.543   6.206  17.507  0.0307 -0.0386 -0.1419
69606W        W12544  17.779   6.299  19.081  0.1583 -0.1040 -0.2358
69607W        W12545  14.492   4.309  17.246 -0.3626  0.1019 -0.2751
69608W        W12546  18.167   6.071  16.335 -0.1757 -0.0985 -0.1359
69609W        W12547  16.340   5.545  18.887 -0.0768  0.0377 -0.2780
69610W        W12548  16.664   6.580  18.488  0.0577 -0.2373  0.2289
69611W        W12549  16.267   6.142  19.043 -0.1518 -0.0510 -0.1071
69612W        W12550  16.346   5.955  16.194  0.1689 -0.0972  0.3615
69613W        W12551  15.061   2.855  18.459  0.1033 -0.0019 -0.2853
69614W        W12552  15.445   5.289  17.090  0.1197 -0.2560  0.3511
69615W        W12553  16.110   5.632  16.792  0.1579  0.2421 -0.0096
69616W        W12554  15.903   3.927  18.422  0.0782 -0.2706  0.3193
69617W        W12555  15.926   1.818  18.979  0.0253  0.3891 -0.1012
69618W        W12556  16.196   2.390  18.523  0.1077  0.3103 -0.1061
69619W        W12557  16.366   4.802  19.289  0.1056 -0.0569 -0.2421
69620W        W12558  15.929   5.888  17.562  0.3115 -0.1125  0.0662
69621W        W12559  14.510   5.779  23.817  0.3263 -0.0825  0.0554
69622W        W12560  14.473   3.924  20.104 -0.2198  0.3348  0.0945
69623W        W12561  17.997   3.301  19.731  0.0839 -0.1001  0.2683
69624W        W12562  18.300   5.228  19.000  0.0994  0.1105 -0.3619
69625W        W12563  16.020   4.296  22.168  0.0663  0.0296  0.0339
69626W        W12564  17.469   6.818  20.964  0.3255  0.4154  0.3364
69627W        W12565  14.550   4.002  23.626 -0.0130 -0.2014  0.0766
69628W        W12566  15.985   8.149  20.435 -0.4063 -0.4004 -0.8412
69629W        W12567  18.662   6.085  21.330 -0.0487 -0.1215 -0.2612
69630W        W12568  16.381   6.654  18.918  0.4150 -0.1698  0.0838
69631W        W12569  15.789   5.070  22.199  0.1340  0.1127  0.0768
69632W        W12570  14.774   5.563  22.989 -0.0187 -0.0161  0.4845
69633W        W12571  14.598   3.495  21.572 -0.2192  0.1188  0.0670
69634W        W12572  13.425   4.083  22.471 -0.1281 -0.1000  0.1831
69635W        W12573  16.208   4.764  22.227  0.0260  0.0279 -0.0651
69636W        W12574  15.993   5.311  19.914  0.1626 -0.0050  0.0512
69637W        W12575  16.051   4.967  22.648 -0.5133  0.0141 -0.0314
69638W        W12576  16.338   5.853  20.517 -0.4029 -0.3838 -0.0493
69639W        W12577  17.879   6.578  20.770  0.0637  0.1266 -0.1966
69640W        W12578  16.493   4.862  22.984 -0.2440 -0.0816  0.1406
69641W        W12579  15.332   4.281  24.214 -0.0797 -0.4229 -0.2474
69642W        W12580  15.423   5.194  20.335  0.1614 -0.0347 -0.2570
69643W        W12581  14.622   5.060  20.374  0.2317 -0.1713 -0.0993
69644W        W12582  14.254   4.283  20.954 -0.1431 -0.2449  0.2001
69645W        W12583  15.690   4.640  22.438 -0.2672 -0.0066 -0.0450
69646W        W12584  16.732   3.073  18.983 -0.0024  0.2402 -0.2917
69647W        W12585  19.328   4.634  21.329  0.1261 -0.0406 -0.1390
69648W        W12586  15.228   7.859  21.075 -0.3185  0.0210  0.1165
69649W        W12587  17.013   5.992  21.867 -0.1964  0.1503 -0.0351
69650W        W12588  16.423   5.454  23.991 -0.1795 -0.2086 -0.0525
69651W        W12589  15.920   6.103  20.644  0.0977 -0.3033 -0.0930
69652W        W12590  15.203   6.245  22.561  0.0803 -0.1202 -0.3273
69653W        W12591  16.437   7.290  21.387 -0.3343  0.2164 -0.2520
69654W        W12592  17.490   4.552  20.432 -0.2375  0.3144  0.0307
69655W        W12593  15.907   5.867  22.492  0.1447 -0.4658  0.3119
69656W        W12594  16.045   7.561  23.240 -0.2923 -0.2316  0.0795
69657W        W12595  14.683   7.160  20.177 -0.1696 -0.1697  0.0653
69658W        W12596  16.280   7.150  23.336 -0.1517  0.3127 -0.3097
69659W        W12597  14.938   6.212  24.220  0.1688  0.1637  0.4083
69660W        W12598  17.456   4.986  22.551  0.2218 -0.2888  0.0761
69661W        W12599  15.773   6.108  20.151  0.2439 -0.0912 -0.4138
69662W        W12600  15.134   5.836  20.868  0.0099  0.0511  0.2791
69663W        W12601  14.700   6.401  21.766 -0.1073 -0.1277 -0.1078
69664W        W12602  16.061   5.094  23.189  0.2887 -0.0829  0.0537
69665W        W12603  15.554   6.496  20.990  0.0310 -0.2245 -0.1991
69666W        W12604  18.208   4.634  23.179 -0.2825 -0.1056  0.1184
69667W        W12605  15.001   6.792  20.145 -0.0517 -0.1223  0.0282
69668W        W12606  17.627   3.318  20.983 -0.2408 -0.0777 -0.2987
69669W        W12607  14.584   3.536  18.875  0.2808 -0.3298 -0.2150
69670W        W12608  17.084   4.594  21.136 -0.0037  0.1457 -0.1946
69671W        W12609  15.167   3.471  20.762  0.1977 -0.0135 -0.2311
69672W        W12610  15.763   6.300  21.931 -0.0740 -0.2072  0.1999
69673W        W12611  15.137   4.600  22.095  0.0245  0.1313 -0.0817
69674W        W12612  16.897   5.239  23.019  0.1253  0.2224  0.0300
69675W        W12613  16.429   3.927  21.395 -0.1949  0.2582 -0.1266
69676W        W12614  17.692   4.038  23.233  0.1357  0.4601 -0.0158
69677W        W12615  15.246   5.802  22.868 -0.0669 -0.2650 -0.2289
69678W        W12616  16.396   6.073  21.008  0.1480 -0.0388 -0.2249
69679W        W12617  20.852   6.683  19.296 -0.4114 -0.2813  0.1402
69680W        W12618  17.906   6.747  21.259 -0.1824 -0.2589 -0.2178
69681W        W12619  17.095   6.698  19.551  0.4367  0.1126 -0.2144
69682W        W12620  15.412   4.652  20.770 -0.0179 -0.0942  0.0937
69683W        W12621  14.939   5.130  23.303 -0.0714  0.1766  0.0271
69684W        W12622  14.045   3.516  24.615  0.1231 -0.1473  0.0918
69685W        W12623  14.011   4.204  20.049 -0.0987  0.2123 -0.0216
69686W        W12624  17.541   6.408  22.772 -0.2128 -0.1230 -0.2098
69687W        W12625  13.429   5.588  23.598  0.2360 -0.3143  0.1227
69688W        W12626  18.959   3.340  20.677 -0.2468  0.2188  0.2585
69689W        W12627  17.898   5.008  21.658  0.1508  0.1153 -0.2641
69690W        W12628  16.621   5.570  21.929 -0.1147  0.2174  0.2744
69691W        W12629  19.216   6.710  20.208 -0.0218 -0.0553 -0.0339
69692W        W12630  16.116   5.171  21.060  0.3519  0.0682 -0.0380
69693W        W12631  16.368   3.474  21.624 -0.1225  0.0779 -0.1898
69694W        W12632  15.893   4.967  20.232  0.1571 -0.0150  0.2264
69695W        W12633  16.313   4.448  20.208 -0.0324  0.1107  0.1852
69696W        W12634  16.921   5.831  22.888 -0.0891  0.3372 -0.1624
69697W        W12635  16.019   3.941  19.417  0.0968 -0.1215  0.0754
69698W        W12636  14.627   7.234  22.790  0.1331  0.0518 -0.1200
69699W        W12637  15.448   4.505  24.759  0.1480  0.0589  0.1046
69700W        W12638  15.739   5.588  23.242  0.2067  0.1294 -0.2345
69701W        W12639  15.281   6.305  20.144  0.2689  0.0959  0.2602
69702W        W12640  15.453   6.054  20.543 -0.2155  0.2181  0.3600
69703W        W12641  14.064   5.030  21.302 -0.0977 -0.0403 -0.1803
69704W        W12642  15.569   4.066  23.751  0.1208 -0.1430  0.3792
69705W        W12643  14.057   5.929  22.482  0.0209 -0.0396 -0.1885
69706W        W12644  15.942   2.182  19.302  0.4841 -0.0919  0.0760
69707W        W12645  15.484   4.172  22.155 -0.0257 -0.2995  0.1222
69708W        W12646  16.658   3.389  22.955 -0.1952  0.1400  0.1115
69709W        W12647  15.033   6.735  23.105  0.1768  0.1503 -0.0773
69710W        W12648  17.716   5.992  20.034  0.1796 -0.2275 -0.1075
69711W        W12649  19.136   4.924  20.393  0.0343 -0.3605 -0.2695
69712W        W12650  17.049   6.206  18.636 -0.0598 -0.0007 -0.2148
69713W        W12651  15.684   4.526  21.399 -0.2522  0.1968  0.0639
69714W        W12652  15.644   4.178  20.904 -0.1450 -0.0582 -0.1860
69715W        W12653  16.265   2.856  25.180  0.0419  0.4023 -0.0588
69716W        W12654  15.039   2.494  19.969  0.1953  0.2034  0.1681
69717W        W12655  15.116   6.870  23.929 -0.1108 -0.2260 -0.0684
69718W        W12656  15.324   4.120  21.699  0.1392  0.1495  0.0383
69719W        W12657  16.235   4.438  22.599 -0.1323  0.1028 -0.2855
69720W        W12658  15.879   4.847  18.979 -0.0141  0.1596 -0.0251
69721W        W12659  14.600   5.788  20.751 -0.2557 -0.3178  0.3449
69722W        W12660  16.303   3.712  24.252  0.2349  0.0663  0.0431
69723W        W12661  17.265   5.003  19.979  0.0610 -0.2747 -0.0287
69724W        W12662  18.232   6.897  21.703  0.2041 -0.1923 -0.0766
69725W        W12663  17.785   5.790  20.994  0.1375 -0.0234 -0.0254
69726W        W12664  15.623   4.927  25.125 -0.3523  0.4554  0.2471
69727W        W12665  17.162   4.991  20.656  0.3083  0.1227 -0.0970
69728W        W12666  16.193   8.229  22.411  0.1069 -0.0896  0.0460
69729W        W12667  16.021   6.355  21.103 -0.1531 -0.1316 -0.2019
69730W        W12668  15.450   4.850  19.976 -0.0498 -0.1464 -0.0958
69731W        W12669  19.089   6.347  21.323  0.0020 -0.0839 -0.2221
69732W        W12670  17.501   4.433  21.964  0.2447 -0.0258  0.0291
69733W        W12671  14.484   5.569  22.570 -0.1722  0.0349 -0.1896
69734W        W12672  17.612   3.914  23.770  0.0156  0.0138 -0.0605
69735W        W12673  17.069   4.801  21.728  0.0984  0.0883 -0.2702
69736W        W12674  17.283   5.767  19.962 -0.2144 -0.0868  0.0406
69737W        W12675  13.185   5.273  20.791  0.1055 -0.1498 -0.1567
69738W        W12676  17.263   8.023  20.239  0.0232 -0.0523 -0.2642
69739W        W12677  15.089   6.229  21.290  0.0817 -0.0953  0.1983
69740W        W12678  14.154   5.753  20.427  0.0751 -0.3759  0.1283
69741W        W12679  15.896   6.385  19.736 -0.2752 -0.0572 -0.0190
69742W        W12680  16.326   4.355  20.680  0.1099  0.0981  0.2517
69743W        W12681  14.147   7.110  23.712 -0.1320 -0.2435  0.1433
69744W        W12682  16.712   4.396  22.893 -0.4223  0.0477 -0.0473
69745W        W12683  15.057   4.769  21.171 -0.0361  0.0232  0.0115
69746W        W12684  15.292   5.284  22.910  0.0020  0.1130  0.1033
69747W        W12685  17.244   4.310  21.501  0.2351 -0.1676  0.3259
69748W        W12686  19.588   4.704  20.358 -0.0064  0.0994  0.2307
69749W        W12687  15.847   5.390  22.772  0.1786  0.0153  0.1378
69750W        W12688  17.864   6.945  18.495 -0.0879  0.1369 -0.1982
69751W        W12689  17.151   3.064  20.890 -0.0982 -0.3016  0.1653
69752W        W12690  15.619   2.257  19.687 -0.1989  0.3311 -0.0588
69753W        W12691  14.107   8.012  23.585 -0.2432 -0.2288  0.1963
69754W        W12692  15.604   5.182  21.670 -0.2740 -0.0909 -0.1213
69755W        W12693  18.314   5.199  22.006  0.3160  0.1751  0.1104
69756W        W12694  16.257   2.597  19.078 -0.0772 -0.1989 -0.1423
69757W        W12695  17.481   5.708  21.947 -0.2123 -0.3107  0.1226
69758W        W12696  14.323   5.829  23.038 -0.1133 -0.1528  0.0196
69759W        W12697  16.477   5.997  23.072  0.0371 -0.0447 -0.0144
69760W        W12698  16.770   6.328  20.766 -0.0123 -0.1760 -0.0853
69761W        W12699  16.145   4.530  23.051 -0.2542 -0.0792  0.0634
69762W        W12700  15.303   4.404  19.879 -0.1705  0.3346  0.1737
69763W        W12701  16.323   4.354  21.711 -0.0156  0.1842  0.0438
69764W        W12702  15.144   6.741  21.087 -0.0576 -0.4220  0.1886
69765W        W12703  15.598   4.424  22.975  0.1496 -0.0498  0.3079
69766W        W12704  17.728   3.614  22.043 -0.2082  0.1406 -0.0366
69767W        W12705  17.063   4.095  23.065  0.1317 -0.2560  0.1954
69768W        W12706  18.947   6.219  23.470  0.0396 -0.2809  0.1733
69769W        W12707  15.284   3.496  19.837  0.2488 -0.0149  0.0946
69770W        W12708  17.587   3.666  21.447  0.0253  0.0580 -0.0600
69771W        W12709  15.858   5.676  19.594 -0.1511  0.2162  0.0749
69772W        W12710  15.811   4.737  24.408  0.0289  0.3964  0.1603
69773W        W12711  15.328   4.751  21.628  0.3093 -0.0951 -0.0288
69774W        W12712  14.587   6.688  22.560  0.1960 -0.2134  0.0743
69775W        W12713  16.268   6.839  21.998 -0.1014 -0.0843 -0.2456
69776W        W12714  18.159   5.479  20.782 -0.0959 -0.1877 -0.2340
69777W        W12715  16.251   5.339  22.235  0.2255 -0.0893  0.1286
69778W        W12716  16.484   3.654  20.904  0.2442 -0.0808  0.0071
69779W        W12717  14.425   5.829  22.075  0.0661  0.2113  0.1325
69780W        W12718  15.805   6.787  21.881  0.3146  0.0822 -0.0525
69781W        W12719  15.644   4.543  23.950 -0.2728 -0.2150 -0.1411
69782W        W12720  15.434   6.677  22.322 -0.1627  0.1635  0.0663
69783W        W12721  17.023   5.738  19.509 -0.0053  0.3254 -0.2898
69784W        W12722  16.102   5.905  21.990  0.0505 -0.2212 -0.0849
69785W        W12723  16.107   6.862  21.029 -0.1106  0.1348  0.0211
69786W        W12724  17.531   3.485  22.936 -0.0826 -0.1217  0.0417
69787W        W12725  14.829   7.591  23.180  0.0825 -0.0532 -0.1027
69788W        W12726  16.409   5.108  19.668  0.1571 -0.2213  0.3795
69789W        W12727  15.264   5.744  21.358  0.0360 -0.0833  0.4389
69790W        W12728  17.556   3.988  22.270 -0.1227 -0.1094 -0.0778
69791W        W12729  17.906   6.098  20.610 -0.2805 -0.3007  0.1372
69792W        W12730  15.832   4.147  21.681 -0.1038  0.1919 -0.0311
69793W        W12731  15.759   3.635  23.181 -0.0480  0.0375  0.0245
69794W        W12732  15.413   7.985  22.728 -0.2293  0.0804  0.1665
69795W        W12733  14.955   5.882  22.120 -0.0603 -0.0773  0.1528
69796W        W12734  17.496   3.668  18.771  0.4586  0.0119 -0.0294
69797W        W12735  16.238   8.652  21.092  0.1349 -0.2259  0.1295
69798W        W12736  16.775   4.223  24.759  0.0343 -0.0022 -0.1023
69799W        W12737  13.562   3.855  20.311  0.3441 -0.0551 -0.1290
69800W        W12738  16.779   4.210  21.585  0.0867 -0.1509 -0.0811
69801W        W12739  15.598   3.916  21.346 -0.2147 -0.1873  0.3291
69802W        W12740  14.514   6.726  22.100 -0.0851 -0.1551 -0.0603
69803W        W12741  16.609   6.672  21.695 -0.1558  0.1436  0.1681
69804W        W12742  14.534   4.085  20.589  0.0356 -0.2088  0.1297
69805W        W12743  15.594   5.622  20.735 -0.1548  0.2017  0.1406
69806W        W12744  16.127   4.927  23.657 -0.1068  0.1184 -0.2475
69807W        W12745  17.013   5.716  22.376  0.2007  0.1428  0.1534
69808W        W12746  15.584   3.492  21.088 -0.0180  0.0785  0.2729
69809W        W12747  14.747   3.773  20.949 -0.1242 -0.1364 -0.1839
69810W        W12748  16.769   3.388  20.487  0.2441 -0.0744  0.0409
69811W        W12749  16.554   6.096  21.582 -0.1587  0.0557 -0.2764
69812W        W12750  16.689   4.526  22.004 -0.1072  0.3328 -0.2064
69813W        W12751  15.148   6.606  21.743  0.0855 -0.1188 -0.0082
69814W        W12752  14.810   4.166  22.296  0.0041 -0.4741 -0.4589
69815W        W12753  19.130   5.491  20.302 -0.0750  0.0336  0.0432
69816W        W12754  18.828   5.744  22.757  0.2239 -0.1863  0.2578
69817W        W12755  17.809   6.137  19.563  0.0199 -0.2033  0.0246
69818W        W12756  14.323   5.423  21.759 -0.3397  0.1287 -0.3501
69819W        W12757  15.742   7.210  20.936 -0.3118 -0.4065  0.0482
69820W        W12758  16.502   3.558  22.481  0.0981  0.0127 -0.2166
69821W        W12759  15.642   7.206  23.432 -0.1466  0.2324  0.2057
69822W        W12760  15.697   5.511  21.254 -0.1499 -0.2136  0.0093
69823W        W12761  13.635   6.091  22.962 -0.3281 -0.1856  0.1990
69824W        W12762  17.139   3.532  20.188 -0.0670  0.0559  0.1046
69825W        W12763  17.107   5.637  18.812  0.1503 -0.2791 -0.2070
69826W        W12764  15.967   4.031  20.240  0.0208 -0.2494 -0.0484
69827W        W12765  18.728   3.918  23.346  0.2096 -0.1624  0.0492
69828W        W12766  17.460   5.888  19.271 -0.2013  0.1097  0.1556
69829W        W12767  16.066   4.111  23.976  0.1543 -0.2518 -0.0227
69830W        W12768  15.664   4.951  22.932  0.1153  0.0223  0.0360
69831W        W12769  17.377   5.509  20.819  0.1449 -0.0068 -0.1520
69832W        W12770  15.486   5.576  23.745  0.0094  0.1593  0.1064
69833W        W12771  17.226   7.865  23.541 -0.1119  0.0432  0.1171
69834W        W12772  14.308   5.261  22.204 -0.0286  0.1494 -0.0756
69835W        W12773  16.578   2.642  18.706  0.1690 -0.3133 -0.3445
69836W        W12774  16.325   3.734  20.409  0.2264  0.2620 -0.0660
69837W        W12775  16.886   5.913  21.224 -0.0012 -0.2497  0.1208
69838W        W12776  17.042   5.504  21.496  0.1024  0.1621  0.0545
69839W        W12777  16.623   4.927  20.141 -0.3178 -0.3502 -0.0719
69840W        W12778  17.145   4.224  20.777 -0.3394 -0.1112 -0.0409
69841W        W12779  15.147   5.228  21.458 -0.0493 -0.1084  0.2408
69842W        W12780  16.683   4.425  19.686 -0.0054  0.1939 -0.2945
69843W        W12781  17.282   4.596  18.774  0.0880  0.1174  0.1792
69844W        W12782  16.571   4.924  20.984  0.0348  0.0815 -0.3047
69845W        W12783  17.080   4.706  23.240 -0.0679  0.0132 -0.0050
69846W        W12784  15.892   6.793  20.560 -0.2384 -0.0620 -0.2089
69847W        W12785  16.063   4.267  21.274  0.2483 -0.0896  0.1461
69848W        W12786  17.082   4.228  22.549 -0.1379 -0.0690 -0.0752
69849W        W12787  16.115   5.068  21.786 -0.0926  0.2168  0.0787
69850W        W12788  17.012   4.815  22.739 -0.2302 -0.0168  0.0406
69851W        W12789  14.671   5.836  25.366 -0.0661  0.1782 -0.1075
69852W        W12790  18.352   6.432  21.540 -0.0201 -0.1687  0.0255
69853W        W12791  16.395   4.201  19.180 -0.0524  0.0282  0.4146
69854W        W12792  17.498   5.335  21.591 -0.0708 -0.1667  0.1369
69855W        W12793  18.439   4.220  21.720  0.1521 -0.1163 -0.0540
69856W        W12794  15.137   3.702  18.780 -0.1403  0.1515 -0.0074
69857W        W12795  15.646   4.632  23.454  0.1732 -0.0558  0.2272
69858W        W12796  17.001   5.360  24.122 -0.0605 -0.0033 -0.2625
69859W        W12797  14.461   4.416  19.698 -0.1731 -0.0528  0.0967
69860W        W12798  17.073   4.802  22.251  0.2814 -0.2314 -0.3673
69861W        W12799  16.307   6.435  20.550  0.1658  0.0428 -0.2143
69862W        W12800  17.528   5.757  20.440  0.1933 -0.2884  0.1694
69863W        W12801  16.677   4.761  21.445 -0.1430 -0.1167 -0.1128
69864W        W12802  14.468   4.699  20.985  0.1160 -0.2768  0.3843
69865W        W12803  15.673   6.478  23.341 -0.3322  0.1058  0.0456
69866W        W12804  13.572   3.336  20.039 -0.0506 -0.0816 -0.1479
69867W        W12805  16.445   5.437  20.178 -0.1086 -0.0592  0.0555
69868W        W12806  17.231   7.590  20.557  0.0147 -0.1247 -0.3290
69869W        W12807  17.802   6.574  22.408 -0.0406 -0.1621  0.3360
69870W        W12808  15.456   3.023  20.339 -0.0426 -0.4933  0.5271
69871W        W12809  18.998   4.292  23.811 -0.2870  0.1598  0.2008
69872W        W12810  16.073   5.669  20.988  0.0017 -0.1774  0.0891
69873W        W12811  16.902   3.659  23.587 -0.1511  0.1912  0.1410
69874W        W12812  16.814   6.413  22.964  0.0186  0.1013 -0.1198
69875W        W12813  14.448   4.990  23.338 -0.4894 -0.2678  0.0839
69876W        W12814  14.780   5.413  21.983 -0.0306  0.1947  0.0590
69877W        W12815  16.574   4.181  22.350  0.1321  0.3346 -0.0493
69878W        W12816  17.185   6.132  23.157 -0.2116  0.1038  0.2352
69879W        W12817  18.567   4.291  22.345  0.0522  0.0298  0.3268
69880W        W12818  18.069   4.239  22.852  0.0827  0.0481 -0.1759
69881W        W12819  17.121   6.254  23.960  0.0035 -0.1713 -0.0288
69882W        W12820  15.838   4.664  21.888 -0.0338  0.0533  0.0995
69883W        W12821  15.441   7.357  24.041 -0.0327  0.0205 -0.0611
69884W        W12822  16.963   4.487  20.172 -0.0086 -0.0603  0.1019
69885W        W12823  14.739   6.266  22.912  0.0399 -0.1272  0.1653
69886W        W12824  16.246   4.411  24.364 -0.0370  0.1258 -0.2370
69887W        W12825  14.666   7.149  23.307  0.0927  0.3137  0.1565
69888W        W12826  16.810   5.817  20.127  0.4487 -0.1443  0.2919
69889W        W12827  15.035   3.794  21.432 -0.3113 -0.0145  0.1336
69890W        W12828  16.280   6.064  19.562 -0.0649 -0.0140  0.1786
69891W        W12829  14.004   7.803  24.082  0.2913  0.0244  0.1004
69892W        W12830  14.282   5.047  22.659 -0.2611  0.3721  0.3581
69893W        W12831  14.760   6.313  20.877  0.0767  0.0312 -0.1448
69894W        W12832  19.164   6.147  20.057  0.1205  0.0209  0.0435
69895W        W12833  17.322   6.473  20.655 -0.1587  0.1395 -0.0183
69896W        W12834  16.935   6.465  22.106 -0.2876  0.1026  0.0920
69897W        W12835  15.498   3.301  18.944  0.0563  0.1600 -0.0191
69898W        W12836  15.225   6.061  21.707 -0.1922  0.1176  0.1275
69899W        W12837  15.307   5.768  20.143  0.1785 -0.2240 -0.1984
69900W        W12838  16.944   6.272  19.758 -0.0501 -0.2613 -0.0448
69901W        W12839  17.001   6.413  21.574  0.1560 -0.0779  0.0465
69902W        W12840  15.801   6.346  22.414  0.5149 -0.0961 -0.0232
69903W        W12841  16.805   3.040  19.698 -0.0403 -0.0745  0.0181
69904W        W12842  18.213   4.365  21.316  0.1090  0.0627  0.0710
69905W        W12843  19.073   3.801  18.763 -0.1501  0.1215 -0.0566
69906W        W12844  17.182   5.688  23.751 -0.5092 -0.0383  0.3380
69907W        W12845  16.649   5.044  22.006 -0.1255  0.0749  0.0124
69908W        W12846  14.336   2.829  21.125  0.2350 -0.0871  0.0505
69909W        W12847  16.513   5.252  23.404  0.0196  0.2972 -0.1128
69910W        W12848  18.111   4.750  23.827  0.0837 -0.0362  0.1503
69911W        W12849  14.927   7.521  24.056 -0.3960  0.0772  0.1085
69912W        W12850  17.508   6.614  21.462  0.1133  0.3034  0.0188
69913W        W12851  15.537   3.918  20.021  0.0192  0.2950  0.0549
69914W        W12852  16.513   6.249  20.038 -0.0594  0.0109  0.1406
69915W        W12853  18.607   3.015  24.167 -0.0076 -0.1566  0.1439
69916W        W12854  16.764   5.342  19.145  0.0794 -0.1874 -0.1623
69917W        W12855  16.438   5.638  21.329  0.0048 -0.3815  0.4553
69918W        W12856  16.677   8.077  20.300 -0.2033 -0.1584  0.3351
69919W        W12857  16.219   4.728  21.367 -0.1068  0.1692  0.2027
69920W        W12858  15.459   5.975  22.161 -0.0434  0.2432 -0.0497
69921W        W12859  13.352   4.371  21.107  0.0519 -0.0316  0.2984
69922W        W12860  20.084   5.946  20.154 -0.0803  0.3044  0.5199
69923W        W12861  15.759   5.127  23.987  0.2818 -0.1349  0.0250
69924W        W12862  18.764   2.577  23.461 -0.1061  0.0048 -0.0675
69925W        W12863  16.772   5.395  21.061  0.2440  0.1145 -0.2064
69926W        W12864  18.321   3.926  22.098  0.0347  0.1196 -0.0241
69927W        W12865  15.249   5.548  23.346  0.0026 -0.0974  0.0549
69928W        W12866  15.788   5.976  24.472 -0.0827  0.1199 -0.2345
69929W        W12867  15.444   3.243  19.425  0.0853 -0.1751 -0.1481
69930W        W12868  19.526   5.712  23.442  0.4204  0.0718 -0.1148
69931W        W12869  16.302   3.426  19.021  0.1243  0.1396  0.1255
69932W        W12870  17.121   7.381  23.256  0.0902  0.0139  0.0751
69933W        W12871  14.381   4.435  22.538  0.1994 -0.0756  0.0242
69934W        W12872  16.688   4.022  20.567  0.1730  0.0080  0.2067
69935W        W12873  15.548   4.985  21.196 -0.4169  0.1220 -0.0861
69936W        W12874  14.844   5.736  21.630 -0.0553  0.1557 -0.1566
69937W        W12875  16.366   6.331  22.051 -0.0661  0.0601  0.3354
69938W        W12876  14.901   4.455  20.685  0.0179 -0.0016  0.0474
69939W        W12877  16.846   7.051  18.558 -0.1436  0.1316  0.2908
69940W        W12878  17.512   5.030  22.003  0.0277  0.1552 -0.1730
69941W        W12879  15.517   5.968  19.757  0.1265 -0.0630  0.1328
69942W        W12880  17.203   6.087  20.323  0.4162 -0.0412 -0.2570
69943W        W12881  17.917   6.469  21.980  0.0717 -0.1184  0.3216
69944W        W12882  13.936   3.708  22.560  0.0525  0.1836  0.2860
69945W        W12883  17.285   6.655  23.115 -0.0164 -0.0315  0.1189
69946W        W12884  17.453   6.706  22.093 -0.4312 -0.0274 -0.0413
69947W        W12885  16.073   3.876  20.955  0.3972  0.1030 -0.0488
69948W        W12886  15.259   5.076  22.067  0.2055  0.1986  0.0857
69949W        W12887  16.078   5.993  21.422 -0.2171 -0.1385 -0.0365
69950W        W12888  18.462   3.173  20.525  0.4719  0.0900  0.1702
69951W        W12889  17.508   3.959  22.760 -0.1591 -0.0999 -0.4327
69952W        W12890  16.963   4.394  19.279 -0.3823 -0.2206  0.0141
69953W        W12891  17.629   2.087  21.181 -0.3572 -0.2193  0.1955
69954W        W12892  17.008   6.989  22.737 -0.0408 -0.1523 -0.1241
69955W        W12893  15.761   6.945  24.488  0.1885 -0.2552 -0.0804
69956W        W12894  15.049   3.998  19.772  0.0736  0.3663 -0.1937
69957W        W12895  15.348   6.824  23.482 -0.1095  0.1196 -0.3646
69958W        W12896  16.731   5.279  18.652  0.1426  0.2506  0.3988
69959W        W12897  16.628   5.854  19.210  0.1367 -0.0304  0.1400
69960W        W12898  17.087   5.342  22.016 -0.1343  0.0141  0.1040
69961W        W12899  17.286   6.000  20.864  0.4763  0.1682 -0.0396
69962W        W12900  17.685   5.373  20.060 -0.0422 -0.2381  0.0642
69963W        W12901  15.642   3.641  22.190 -0.0669  0.0437  0.2566
69964W        W12902  17.380   3.295  20.545 -0.0562  0.0907  0.0050
69965W        W12903  16.290   3.205  20.402 -0.0402  0.1807 -0.0016
69966W        W12904  13.629   6.023  22.178 -0.0476 -0.2858 -0.3449
69967W        W12905  14.864   6.389  22.244 -0.2854  0.3200 -0.4009
69968W        W12906  16.763   4.641  20.629  0.0230 -0.0601  0.1318
69969W        W12907  13.278   6.462  22.135 -0.0279  0.0165  0.0879
69970W        W12908  16.521   4.386  23.930 -0.1528  0.5650  0.2181
69971W        W12909  14.943   3.511  24.522 -0.4167  0.3097 -0.1081
69972W        W12910  16.134   5.357  20.586 -0.2267 -0.0125 -0.0547
69973W        W12911  14.411   3.951  21.279  0.2199  0.0638 -0.2230
69974W        W12912  18.047   4.850  19.300 -0.0328 -0.2607  0.2529
69975W        W12913  14.969   4.003  22.790  0.2181  0.0554  0.1469
69976W        W12914  15.239   4.883  22.566 -0.1803 -0.0401 -0.3930
69977W        W12915  17.631   6.261  21.002 -0.0019  0.1132 -0.1204
69978W        W12916  17.833   5.497  19.570  0.1150  0.0917 -0.0966
69979W        W12917  15.869   3.394  20.224  0.0061 -0.1369  0.2556
69980W        W12918  19.094   6.874  24.047 -0.1019 -0.0194 -0.1630
69981W        W12919  14.755   4.302  21.104 -0.0142 -0.0860  0.3125
69982W        W12920  14.938   5.345  22.441 -0.4471 -0.2162  0.2495
69983W        W12921  16.848   2.726  23.257 -0.3705 -0.0824 -0.0150
69984W        W12922  15.869   1.962  18.487 -0.0795  0.0330 -0.3964
69985W        W12923  16.710   5.193  20.605  0.0054 -0.1857  0.2018
69986W        W12924  16.162   6.956  21.550  0.2118 -0.0476 -0.1016
69987W        W12925  16.841   7.195  19.730 -0.0107 -0.2672  0.5034
69988W        W12926  15.378   5.534  22.342  0.0295 -0.0073 -0.1145
69989W        W12927  15.084   7.231  24.422 -0.3329  0.2108 -0.1645
69990W        W12928  15.180   4.242  23.137 -0.0452  0.2200 -0.1134
69991W        W12929  17.035   3.993  20.200  0.2350  0.2587 -0.1167
69992W        W12930  16.009   6.059  23.379 -0.0769 -0.0597  0.2124
69993W        W12931  17.685   4.290  20.882  0.3260  0.1716  0.1037
69994W        W12932  18.087   4.058  20.826 -0.2681  0.1137 -0.0914
69995W        W12933  17.110   5.029  21.248 -0.1168 -0.2997  0.0938
69996W        W12934  14.604   5.437  23.500  0.0776 -0.2313 -0.2896
69997W        W12935  15.237   4.399  22.603 -0.0136  0.2357 -0.3470
69998W        W12936  18.026   5.660  23.345 -0.3402 -0.0797  0.3915
69999W        W12937  14.598   2.625  20.716 -0.2677  0.1411  0.1692
70000W        W12938  16.268   4.823  20.524  0.0482  0.2367 -0.1979
70001W        W12939  15.689   5.094  20.733 -0.1361  0.2830  0.1809
70002W        W12940  16.170   6.488  21.633  0.1408 -0.2102 -0.2496
70003W        W12941  16.687   3.793  19.020 -0.0832 -0.1463  0.1461
70004W        W12942  16.780   5.218  22.488 -0.0001 -0.1743 -0.2476
70005W        W12943  16.566   5.216  21.559 -0.0644  0.0718 -0.0382
70006W        W12944  15.801   5.537  22.055  0.0537 -0.2125 -0.0705
70007W        W12945  15.929   4.709  20.974 -0.2091 -0.4294 -0.2045
70008W        W12946  17.693   5.180  20.549  0.0013 -0.1142 -0.2545
70009W        W12947  16.452   6.988  23.792 -0.0536  0.0367  0.0274
70010W        W12948  16.481   6.535  23.474  0.1899 -0.1294  0.0492
70011W        W12949  15.915   7.217  22.250 -0.1247  0.2637  0.1453
70012W        W12950  18.818   3.852  21.730 -0.1008  0.1908  0.0350
70013W        W12951  13.761   2.884  22.298 -0.1105  0.2276  0.0026
70014W        W12952  15.816   4.486  20.548 -0.1190 -0.0167 -0.0498
70015W        W12953  15.418   6.949  20.629  0.3102 -0.2491 -0.0656
70016W        W12954  17.074   4.189  21.997 -0.1425  0.0030 -0.1681
70017W        W12955  15.450   2.929  21.295 -0.0980  0.0216 -0.2539
70018W        W12956  17.014   1.968  20.884 -0.0937 -0.2966  0.0477
70019W        W12957  15.992   6.711  23.648  0.2965 -0.0238  0.0675
70020W        W12958  16.822   6.144  22.503 -0.2867 -0.0892  0.2712
70021W        W12959  16.392   6.800  25.745  0.1617 -0.0786  0.0481
70022W        W12960  15.484   5.069  24.575  0.2428  0.0493  0.0014
70023W        W12961  16.610   5.495  24.921 -0.3220  0.0502 -0.4653
70024W        W12962  18.343   7.646  25.853 -0.1675 -0.0449  0.0898
70025W        W12963  15.063   4.516  25.546  0.1652 -0.0752 -0.0069
70026W        W12964  17.318   6.431  23.553  0.1238 -0.0245 -0.2084
70027W        W12965  15.836   4.737  26.952  0.0739 -0.0716  0.0495
70028W        W12966  18.284   6.664  26.187  0.2527 -0.2485  0.1824
70029W        W12967  18.846   5.844  26.458  0.1061 -0.1512  0.0043
70030W        W12968  16.406   5.823  23.574 -0.0915  0.2989  0.1164
70031W        W12969  16.011   4.299  26.137  0.1535  0.1373 -0.1901
70032W        W12970  15.319   5.754  25.413 -0.0780 -0.1425  0.2553
70033W        W12971  18.077   3.631  24.752 -0.0233 -0.0375 -0.0898
70034W        W12972  14.721   4.070  25.608 -0.2422  0.0915  0.0509
70035W        W12973  17.923   5.895  26.922  0.3422 -0.2390  0.4818
70036W        W12974  13.590   6.280  24.777 -0.1440  0.0662 -0.1934
70037W        W12975  15.736   4.782  26.160  0.4346  0.0628 -0.0586
70038W        W12976  15.851   3.553  24.518  0.0157  0.4508  0.1312
70039W        W12977  17.096   8.778  25.352 -0.0158  0.2225 -0.0348
70040W        W12978  16.209   4.369  26.880 -0.0352 -0.3377  0.1071
70041W        W12979  14.859   3.628  26.715  0.0320 -0.2558 -0.0003
70042W        W12980  17.036   6.852  24.953  0.0573  0.1626  0.0593
70043W        W12981  16.491   5.299  24.442  0.2431 -0.0735 -0.2476
70044W        W12982  15.645   5.042  27.353 -0.0270  0.0336  0.1358
70045W        W12983  15.980   5.474  27.544  0.0603 -0.1553  0.0358
70046W        W12984  19.444   4.361  24.512  0.0266 -0.0002 -0.0578
70047W        W12985  16.435   5.040  28.153 -0.0457 -0.1958  0.3022
70048W        W12986  17.502   6.006  25.748  0.3484  0.0342 -0.2248
70049W        W12987  16.813   7.865  24.921 -0.1105  0.1287 -0.2412
70050W        W12988  17.080   5.760  27.975  0.0060 -0.0199  0.2181
70051W        W12989  13.876   6.536  23.932 -0.0419  0.1042  0.1725
70052W        W12990  14.181   7.336  25.346 -0.0183  0.0709 -0.0521
70053W        W12991  15.171   5.748  24.654  0.2033  0.1921  0.2096
70054W        W12992  18.046   8.454  25.578  0.1380  0.0137 -0.1314
70055W        W12993  18.459   6.834  26.838  0.2116 -0.2056  0.0453
70056W        W12994  15.676   6.612  27.006 -0.2274  0.1187  0.1553
70057W        W12995  14.537   6.264  23.456 -0.0844 -0.0078 -0.0598
70058W        W12996  17.932   7.621  26.801 -0.2927 -0.1102 -0.3310
70059W        W12997  15.911   5.150  25.790 -0.3528 -0.3430  0.3212
70060W        W12998  16.090   5.774  26.968  0.1262 -0.3078  0.1319
70061W        W12999  16.431   5.416  26.724  0.3572  0.0130  0.0057
70062W        W13000  14.920   5.956  23.282  0.0909 -0.0002  0.0979
70063W        W13001  15.800   5.877  25.023 -0.0615  0.0320 -0.0313
70064W        W13002  14.447   6.447  27.147 -0.0241  0.2980  0.0032
70065W        W13003  14.714   7.341  25.160 -0.2425  0.0456  0.0354
70066W        W13004  18.987   4.341  27.061 -0.0943 -0.1338 -0.2058
70067W        W13005  15.042   5.906  23.758 -0.0801  0.1329  0.0936
70068W        W13006  18.337   6.345  22.464 -0.2495  0.0867  0.1284
70069W        W13007  15.948   5.209  24.468 -0.1663  0.1321  0.0705
70070W        W13008  18.034   5.778  23.841 -0.3973  0.3958  0.3955
70071W        W13009  17.595   2.201  25.675 -0.0343 -0.2109  0.0582
70072W        W13010  14.784   6.847  24.887 -0.0172  0.3187 -0.0423
70073W        W13011  15.377   3.707  25.987  0.3156  0.0085 -0.1442
70074W        W13012  17.631   8.001  26.163  0.0037 -0.1283 -0.0258
70075W        W13013  16.633   6.484  24.834  0.1608 -0.2898  0.0147
70076W        W13014  15.331   5.787  26.909 -0.2646 -0.1164 -0.1584
70077W        W13015  14.985   6.440  25.197 -0.1680  0.0946  0.1042
70078W        W13016  13.733   6.234  25.688  0.0488 -0.0243  0.0988
70079W        W13017  16.022   6.806  22.595  0.0429  0.2274 -0.1675
70080W        W13018  19.192   7.648  24.752  0.0213 -0.1087  0.1376
70081W        W13019  15.712   8.166  23.741 -0.1941  0.0084 -0.0968
70082W        W13020  15.938   4.545  24.888  0.4095 -0.1354  0.2360
70083W        W13021  14.667   4.646  28.201 -0.0939  0.0840  0.0754
70084W        W13022  15.099   4.868  27.897  0.3520 -0.0680 -0.0339
70085W        W13023  14.673   3.955  21.842 -0.1107  0.2392  0.0318
70086W        W13024  18.868   6.747  26.151  0.0673 -0.1177  0.2012
70087W        W13025  15.383   6.883  27.299  0.0966  0.0943 -0.2670
70088W        W13026  17.863   3.911  25.534 -0.0835  0.0508 -0.3616
70089W        W13027  14.718   6.185  24.741  0.3693 -0.1560 -0.3323
70090W        W13028  18.184   7.793  25.380 -0.1047  0.1368  0.2420
70091W        W13029  17.779   6.013  23.080  0.3209 -0.2269  0.0573
70092W        W13030  17.016   4.295  26.115  0.1303 -0.4212  0.0525
70093W        W13031  16.962   5.384  27.627  0.1548 -0.5248  0.4081
70094W        W13032  14.478   4.756  24.126  0.2494 -0.0654  0.2668
70095W        W13033  15.722   6.477  24.626  0.0974  0.1407  0.0942
70096W        W13034  18.120   5.966  27.883 -0.1901  0.1681  0.0522
70097W        W13035  16.840   5.682  23.374  0.0342 -0.0372  0.3222
70098W        W13036  15.850   7.243  26.956 -0.0661 -0.1273  0.0026
70099W        W13037  15.558   4.045  27.466 -0.3118 -0.1523  0.0172
70100W        W13038  16.756   6.185  27.945 -0.1594 -0.1797 -0.1886
70101W        W13039  14.224   8.052  24.465 -0.1673 -0.0855 -0.1878
70102W        W13040  14.381   6.924  25.719  0.0961  0.1152  0.1084
70103W        W13041  14.470   6.316  25.218  0.2282 -0.0197 -0.0371
70104W        W13042  15.512   5.477  25.824 -0.0784  0.1825  0.0401
70105W        W13043  16.269   7.260  25.002  0.0757  0.0480 -0.0681
70106W        W13044  17.874   4.169  24.621  0.3035  0.1142  0.1308
70107W        W13045  14.328   3.058  25.600 -0.0663  0.0803 -0.0520
70108W        W13046  17.424   3.974  25.834  0.1220  0.0094 -0.1942
70109W        W13047  13.244   5.823  24.786 -0.1425 -0.0935 -0.0162
70110W        W13048  18.574   7.337  25.370  0.1324  0.4498 -0.0229
70111W        W13049  17.213   4.767  24.823  0.2297  0.0573 -0.1688
70112W        W13050  16.629   4.702  22.484  0.0213 -0.1358  0.2065
70113W        W13051  15.364   5.479  26.413 -0.1532 -0.0577  0.0498
70114W        W13052  16.436   6.318  25.517  0.0226  0.4429  0.1045
70115W        W13053  14.938   3.798  24.934 -0.1362 -0.1727 -0.0024
70116W        W13054  15.605   4.036  26.278 -0.3056 -0.4513 -0.2691
70117W        W13055  16.882   6.493  27.519 -0.0271 -0.0008 -0.0098
70118W        W13056  14.779   4.627  23.301 -0.0678  0.2131  0.1763
70119W        W13057  17.643   5.091  25.983  0.1692  0.2018 -0.1069
70120W        W13058  17.137   5.321  24.591 -0.2774  0.2001 -0.0590
70121W        W13059  14.520   5.120  25.037  0.1602  0.0504  0.0557
70122W        W13060  18.240   5.589  26.102  0.2314  0.2366 -0.2223
70123W        W13061  16.173   7.219  24.448  0.1542 -0.0117 -0.0197
70124W        W13062  19.453   6.294  27.233  0.0027 -0.0213  0.1869
70125W        W13063  18.232   6.937  24.635  0.1597  0.1108  0.2114
70126W        W13064  16.382   3.764  28.004  0.0474 -0.0993 -0.2345
70127W        W13065  12.910   4.775  24.895 -0.0043  0.2669 -0.2185
70128W        W13066  14.979   8.692  26.061 -0.3027 -0.1290 -0.2071
70129W        W13067  15.829   7.948  24.914 -0.1927 -0.1530  0.2195
70130W        W13068  15.548   4.435  25.325 -0.2923 -0.2147 -0.0527
70131W        W13069  19.646   6.940  24.280 -0.0231 -0.0779 -0.1179
70132W        W13070  16.388   5.334  22.740 -0.5306  0.4585  0.0844
70133W        W13071  14.652   5.983  26.392 -0.1646  0.1090 -0.0748
70134W        W13072  16.733   5.127  25.949 -0.1093 -0.2047 -0.1265
70135W        W13073  17.419   5.821  27.080  0.1682 -0.0170 -0.1763
70136W        W13074  17.126   6.647  24.350 -0.1967 -0.1227  0.1438
70137W        W13075  15.792   5.598  24.171 -0.3317 -0.0053 -0.1312
70138W        W13076  16.163   8.747  25.636  0.1827  0.1851  0.2472
70139W        W13077  14.063   8.582  24.397  0.3145 -0.1011 -0.1535
70140W        W13078  15.008   4.041  24.526  0.0041 -0.2337 -0.1282
70141W        W13079  15.942   8.397  25.155 -0.2534  0.1313  0.2610
70142W        W13080  17.661   3.870  24.945  0.0561  0.0615 -0.0818
70143W        W13081  14.839   6.094  26.953  0.0896  0.1303 -0.1466
70144W        W13082  17.559   5.052  26.632 -0.0340 -0.1053  0.0977
70145W        W13083  14.898   3.487  25.349  0.0285 -0.0207  0.2899
70146W        W13084  15.536   5.955  26.160 -0.0050 -0.1429 -0.1240
70147W        W13085  16.978   5.571  26.604  0.3211  0.1502 -0.1011
70148W        W13086  18.016   5.332  25.765  0.2074 -0.1020 -0.0713
70149W        W13087  15.535   8.238  28.294  0.0981  0.0989  0.0030
70150W        W13088  18.805   7.654  24.090 -0.0859  0.2954  0.0825
70151W        W13089  17.014   5.198  23.586 -0.0041  0.1690  0.2932
70152W        W13090  18.439   5.487  23.567 -0.2730  0.0201  0.1182
70153W        W13091  15.378   6.660  26.441 -0.1696  0.0677  0.0654
70154W        W13092  15.419   6.007  24.142 -0.1581 -0.0709  0.1567
70155W        W13093  17.668   6.626  27.115 -0.1016  0.1005 -0.0163
70156W        W13094  17.223   4.942  24.269  0.1616 -0.0070 -0.2005
70157W        W13095  16.681   7.348  24.669 -0.0843 -0.2701 -0.0369
70158W        W13096  15.212   4.512  26.139  0.0914  0.0288  0.2847
70159W        W13097  17.479   5.993  28.153 -0.2291 -0.2289  0.0896
70160W        W13098  16.084   6.292  25.108 -0.2918  0.0778 -0.1802
70161W        W13099  15.740   4.447  27.683  0.0833 -0.2479 -0.2423
70162W        W13100  15.471   6.373  23.819  0.0685  0.0087 -0.2638
70163W        W13101  16.026   4.021  26.561  0.2396  0.0635 -0.2873
70164W        W13102  15.472   8.050  24.314  0.2116 -0.1226 -0.0933
70165W        W13103  18.563   4.052  26.843 -0.1260 -0.2081 -0.2206
70166W        W13104  16.122   4.943  25.322  0.0168  0.0537  0.0148
70167W        W13105  16.332   4.884  25.774  0.2685 -0.0143 -0.3126
70168W        W13106  18.473   5.488  27.605  0.0404  0.0230  0.2882
70169W        W13107  18.689   6.498  24.178  0.2180 -0.0804  0.1694
70170W        W13108  17.209   5.931  26.286  0.1721  0.0411  0.1199
70171W        W13109  15.616   5.538  24.681 -0.0817  0.1731 -0.1669
70172W        W13110  15.288   4.911  26.978  0.1122  0.0522  0.0224
70173W        W13111  14.293   5.657  27.496 -0.3491 -0.2939 -0.0557
70174W        W13112  15.691   6.108  26.959 -0.1966  0.0869 -0.1112
70175W        W13113  18.590   8.196  25.895 -0.1560  0.1723  0.0364
70176W        W13114  16.730   5.624  26.199  0.0448 -0.1419  0.0844
70177W        W13115  15.891   3.962  27.811 -0.3043 -0.1331 -0.0712
70178W        W13116  17.045   4.344  24.306 -0.0704  0.0366 -0.0131
70179W        W13117  15.008   7.547  24.810 -0.1317  0.0720 -0.1392
70180W        W13118  15.196   6.252  24.711  0.1636 -0.0245  0.2012
70181W        W13119  16.485   5.354  27.743  0.3298  0.0732  0.2396
70182W        W13120  16.270   6.908  26.258  0.1105 -0.3161 -0.0984
70183W        W13121  15.237   7.183  23.166  0.2420 -0.3194  0.0992
70184W        W13122  17.587   6.213  26.811 -0.1619  0.1144  0.0260
70185W        W13123  13.958   6.998  23.238  0.1869  0.1320 -0.2057
70186W        W13124  17.375   4.670  26.311  0.4027 -0.1434  0.0087
70187W        W13125  15.759   7.236  28.079 -0.1955  0.3771  0.1450
70188W        W13126  16.959   4.457  25.169  0.0557 -0.1243 -0.2391
70189W        W13127  14.650   5.534  24.640  0.0667 -0.3678 -0.2097
70190W        W13128  17.013   4.087  25.591 -0.2695 -0.1920  0.4021
70191W        W13129  19.038   5.627  24.673  0.2714 -0.2043 -0.2324
70192W        W13130  15.168   4.097  27.098 -0.0932 -0.0636  0.2625
70193W        W13131  16.785   3.655  24.798 -0.2099 -0.0778  0.2300
70194W        W13132  14.898   6.982  26.549  0.1355 -0.2847  0.5601
70195W        W13133  16.663   6.146  26.283  0.0101 -0.0545 -0.3099
70196W        W13134  18.274   6.069  24.208  0.2635 -0.0370  0.2465
70197W        W13135  19.285   7.765  26.484 -0.3788  0.1512  0.0669
70198W        W13136  15.641   7.591  26.621 -0.0565  0.4301  0.0100
70199W        W13137  14.491   5.373  24.083 -0.2369  0.0134 -0.1253
70200W        W13138  17.108   4.841  26.715 -0.0591  0.0538 -0.1835
70201W        W13139  16.682   6.372  24.223 -0.1001 -0.1104 -0.1277
70202W        W13140  13.633   6.183  24.246  0.0685  0.1125 -0.0956
70203W        W13141  17.108   7.973  26.375 -0.0968  0.2520 -0.1035
70204W        W13142  16.236   4.875  24.206 -0.0637  0.1868 -0.2198
70205W        W13143  14.526   7.781  25.462  0.0665  0.3385  0.1734
70206W        W13144  15.290   2.715  27.130  0.1409 -0.1086  0.2342
70207W        W13145  17.125   6.384  26.469 -0.0948  0.2099  0.0556
70208W        W13146  16.059   5.333  24.954  0.0387 -0.0120  0.0255
70209W        W13147  15.545   5.021  26.553  0.0629  0.0604 -0.0819
70210W        W13148  17.493   5.606  26.600 -0.2773 -0.2405 -0.3831
70211W        W13149  16.658   5.789  27.622  0.1116 -0.3701  0.0348
70212W        W13150  16.333   4.866  26.979  0.0661 -0.0673  0.3767
70213W        W13151  15.934   6.824  26.618 -0.0390  0.1181  0.3356
70214W        W13152  16.345   5.099  26.243 -0.1299  0.0438 -0.2906
70215W        W13153  17.181   7.055  23.666  0.0492  0.0744 -0.2054
70216W        W13154  18.076   7.544  26.341  0.0082 -0.4534  0.0105
70217W        W13155  14.489   7.065  24.384 -0.0876  0.0263 -0.1039
70218W        W13156  14.956   5.424  25.706  0.4898  0.2097 -0.1222
70219W        W13157  17.547   5.800  24.043 -0.3584 -0.0641  0.1042
70220W        W13158  16.847   4.640  25.686 -0.5065  0.3086 -0.0707
70221W        W13159  14.530   7.427  26.788 -0.1007 -0.1322 -0.2081
70222W        W13160  15.889   6.942  23.137  0.2342  0.1638 -0.0859
70223W        W13161  14.094   5.104  26.532 -0.2707  0.1566 -0.4217
70224W        W13162  18.075   4.920  24.290  0.0640  0.0402 -0.0831
70225W        W13163  16.855   6.193  23.570 -0.0764 -0.0980 -0.0553
70226W        W13164  15.724   3.807  25.349  0.1273 -0.0591  0.0597
70227W        W13165  18.478   4.689  27.202 -0.1370 -0.1097  0.2975
70228W        W13166  16.268   6.190  22.585  0.2298  0.0736  0.1936
70229W        W13167  16.565   4.916  27.412  0.3581  0.2753 -0.1343
70230W        W13168  15.566   4.127  25.752 -0.3568  0.2532 -0.2632
70231W        W13169  18.429   6.464  24.590 -0.0470 -0.1984  0.0106
70232W        W13170  16.023   5.131  26.612 -0.1251 -0.0514 -0.0526
70233W        W13171  18.802   7.521  26.695  0.1602  0.2559 -0.3327
70234W        W13172  14.610   5.210  26.884  0.2406 -0.0416 -0.1574
70235W        W13173  16.168   5.866  25.461  0.1807  0.2934 -0.0966
70236W        W13174  14.950   4.614  24.076 -0.1651 -0.1394 -0.0216
70237W        W13175  15.045   5.862  25.900 -0.1147  0.0048 -0.0356
70238W        W13176  17.612   6.713  26.539  0.1309  0.2525  0.0575
70239W        W13177  16.233   5.560  23.134  0.3031 -0.0459 -0.0705
70240W        W13178  18.820   4.960  25.708 -0.0164 -0.0190 -0.1155
70241W        W13179  15.440   6.281  25.701  0.3815  0.0267  0.2505
70242W        W13180  17.117   6.380  24.795  0.0994  0.1251 -0.4692
70243W        W13181  18.141   5.331  23.965  0.0464  0.0247 -0.1501
70244W        W13182  14.777   6.665  24.342 -0.0995  0.0928  0.0946
70245W        W13183  16.064   3.295  27.109  0.2616  0.3189  0.2243
70246W        W13184  17.565   6.368  26.164 -0.1079 -0.0299  0.0073
70247W        W13185  16.691   5.849  24.549 -0.0659  0.2446 -0.0264
70248W        W13186  15.232   3.887  25.475 -0.2437  0.0398 -0.0237
70249W        W13187  18.272   6.579  27.205  0.2635 -0.0745  0.1931
70250W        W13188  16.909   5.213  28.284 -0.1463  0.0268  0.1835
70251W        W13189  15.633   5.009  27.827 -0.1056 -0.3577  0.0520
70252W        W13190  19.491   9.611  26.507  0.0401 -0.1619 -0.3643
70253W        W13191  17.643   5.011  23.961  0.0316  0.0338 -0.0873
70254W        W13192  17.927   5.396  26.465 -0.3357  0.1602  0.0068
70255W        W13193  18.545   6.909  25.016 -0.0392  0.3889 -0.1374
70256W        W13194  17.165   5.770  24.380 -0.2290 -0.2240 -0.4181
70257W        W13195  15.895   4.540  25.666 -0.1912  0.2690 -0.2144
70258W        W13196  16.191   7.435  27.886  0.1506 -0.2630 -0.1039
70259W        W13197  16.590   6.001  25.049 -0.1738 -0.4268 -0.3850
70260W        W13198  15.522   3.731  26.896  0.0419  0.2398 -0.2746
70261W        W13199  15.378   6.540  24.289 -0.0432  0.0841  0.1505
70262W        W13200  16.843   6.877  25.452 -0.0507  0.0949  0.1978
70263W        W13201  16.246   5.697  26.361 -0.0801 -0.0410  0.3755
70264W        W13202  14.715   4.962  25.425 -0.2256 -0.0687 -0.0621
70265W        W13203  16.827   6.767  27.964 -0.0770  0.0067 -0.1654
70266W        W13204  16.526   4.710  23.449 -0.3959 -0.0291 -0.0784
70267W        W13205  16.333   4.905  24.804  0.1307 -0.1426 -0.1921
70268W        W13206  15.782   6.758  26.127 -0.0772  0.1523 -0.0886
70269W        W13207  17.167   7.431  26.500 -0.2971  0.0071 -0.1517
70270W        W13208  17.414   2.928  24.835 -0.3023  0.1734 -0.0537
70271W        W13209  15.698   5.691  27.246  0.0897  0.2581 -0.0732
70272W        W13210  14.859   5.717  24.203 -0.2613 -0.2083  0.0811
70273W        W13211  16.391   3.285  26.110  0.2132 -0.1857  0.3575
70274W        W13212  15.930   6.420  24.168 -0.1841 -0.1582  0.0678
70275W        W13213  14.870   5.648  26.706  0.0278 -0.1675 -0.1530
70276W        W13214  14.343   6.879  25.226  0.0371  0.2230  0.0788
70277W        W13215  15.163   5.083  26.061  0.3816  0.0787 -0.0759
70278W        W13216  16.147   6.290  26.751  0.1719  0.3159 -0.2850
70279W        W13217  16.768   4.712  24.580  0.3748 -0.0096 -0.2155
70280W        W13218  17.419   5.479  27.430  0.0239  0.0506  0.4554
70281W        W13219  18.446   7.861  26.671 -0.3215  0.0860 -0.0551
70282W        W13220  15.127   4.228  25.105 -0.1930  0.0805 -0.1011
70283W        W13221  17.320   7.921  25.680  0.0047 -0.0401 -0.2564
70284W        W13222  17.575   6.149  24.914 -0.0998  0.2293 -0.1278
70285W        W13223  16.010   8.169  24.484 -0.0181  0.0370 -0.0886
70286W        W13224  14.314   4.798  26.143 -0.3403  0.1850 -0.0590
70287W        W13225  15.590   5.352  26.875  0.1755  0.2247  0.4125
70288W        W13226  17.177   5.819  25.413 -0.3277  0.1807 -0.0148
70289W        W13227  16.030   3.173  24.827  0.0791  0.0447  0.0528
70290W        W13228  16.093   6.465  23.020  0.2454 -0.0052 -0.0713
70291W        W13229  14.114   7.471  25.884  0.2466 -0.0358 -0.0683
70292W        W13230  14.200   5.031  25.372 -0.0028  0.2152 -0.2296
70293W        W13231  14.890   6.713  26.101 -0.2720  0.0103 -0.1217
70294W        W13232  18.227   6.553  23.972  0.4035  0.1261 -0.1025
70295W        W13233  17.458   6.718  24.723  0.2923  0.3557  0.1721
70296W        W13234  17.818   8.029  25.654 -0.0045 -0.4505  0.0685
70297W        W13235  15.047   3.059  25.035 -0.1205  0.0265 -0.0760
70298W        W13236  14.286   7.173  24.854  0.0396  0.3574  0.0370
70299W        W13237  14.653   7.143  23.839 -0.1702  0.0376  0.2825
70300W        W13238  17.968   6.278  23.573 -0.3025 -0.1551 -0.0966
70301W        W13239  13.430   8.498  24.629  0.1364  0.3270 -0.1503
70302W        W13240  17.811   6.929  27.543  0.2367  0.1170 -0.1215
70303W        W13241  17.006   4.115  23.858  0.3661  0.1874 -0.2104
70304W        W13242  17.597   5.119  24.747  0.2763 -0.2076 -0.1201
70305W        W13243  17.111   3.870  24.503  0.3940 -0.1642 -0.0048
70306W        W13244  18.465   6.417  27.842 -0.0535  0.2195 -0.2595
70307W        W13245  14.713   5.007  25.878 -0.0358 -0.4300  0.2487
70308W        W13246  17.331   4.289  23.418  0.1802 -0.0128 -0.1407
70309W        W13247  15.879   5.636  28.579 -0.1060 -0.5422  0.0665
70310W        W13248  17.630   5.621  26.100 -0.1224 -0.3831 -0.1643
70311W        W13249  14.596   7.899  26.821  0.0175 -0.0545 -0.0499
70312W        W13250  15.718   7.629  23.633 -0.2300  0.4400  0.0063
70313W        W13251  14.870   3.061  24.269 -0.0983 -0.2505 -0.1897
70314W        W13252  16.183   6.354  26.154  0.3034  0.2365  0.1836
70315W        W13253  18.514   2.434  25.944 -0.0213 -0.0937  0.3463
70316W        W13254  15.978   5.416  23.617 -0.0975 -0.0934  0.1851
70317W        W13255  16.315   5.490  25.878  0.1753 -0.0445  0.1228
70318W        W13256  14.836   6.792  25.574  0.0309 -0.0684  0.1686
70319W        W13257  16.289   6.753  25.231  0.1050 -0.1346 -0.0586
70320W        W13258  15.739   6.296  26.480 -0.0650 -0.1196 -0.1535
70321W        W13259  12.904   4.744  25.420  0.0002 -0.1185  0.1485
70322W        W13260  18.604   6.698  25.638 -0.1022 -0.0472  0.0943
70323W        W13261  14.546   5.119  26.403  0.1214 -0.0873 -0.1943
70324W        W13262  16.762   4.546  26.940  0.2044  0.3324 -0.0309
70325W        W13263  15.845   5.917  23.849  0.1352 -0.1239 -0.1015
70326W        W13264  17.158   5.558  25.866  0.0486  0.1345  0.0553
70327W        W13265  18.418   6.170  25.641 -0.0717 -0.0055 -0.2359
70328W        W13266  15.289   5.133  25.477 -0.0459  0.1897  0.0592
70329W        W13267  16.583   4.997  23.824  0.0396 -0.0346 -0.1478
70330W        W13268  15.632   5.126  28.780  0.4980 -0.0203  0.3001
70331W        W13269  16.450   5.821  22.317 -0.3239  0.0339 -0.0972
70332W        W13270  16.659   8.039  25.429  0.1795 -0.1517  0.1702
70333W        W13271  15.373   4.855  24.140  0.1307  0.1331  0.1070
70334W        W13272  16.391   4.410  25.004  0.0844 -0.0624  0.1106
70335W        W13273  15.458   4.769  25.753  0.0496 -0.3143  0.1520
70336W        W13274  15.922   5.822  25.890  0.1245  0.0306  0.1404
70337W        W13275  19.487   8.935  27.881 -0.2833 -0.2334  0.0549
70338W        W13276  15.031   4.595  24.549 -0.0510 -0.1591  0.0348
70339W        W13277  18.088   6.753  23.229  0.2413  0.0990 -0.0993
70340W        W13278  17.143   6.865  26.617 -0.0129 -0.3126  0.1692
70341W        W13279  15.194   7.341  23.661  0.1502 -0.1564 -0.0376
70342W        W13280  19.279   5.826  26.173 -0.2106 -0.2383 -0.0214
70343W        W13281  17.403   6.570  25.757 -0.2851 -0.1905 -0.1515
70344W        W13282  14.779   4.668  26.404  0.1333  0.0551 -0.3933
70345W        W13283  19.011   7.453  26.167 -0.0231  0.0783 -0.1057
70346W        W13284  18.360   6.451  25.161 -0.0390 -0.1479 -0.0337
70347W        W13285  17.744   3.299  25.098  0.3370  0.2103  0.0381
70348W        W13286  16.175   5.651  24.631  0.1623 -0.0827  0.0074
70349W        W13287  15.704   7.218  25.831  0.1217 -0.0787  0.0714
70350W        W13288  18.843   5.165  24.571 -0.4032 -0.3978 -0.4347
70351W        W13289  18.786   3.982  27.308 -0.1766  0.0273 -0.0378
70352W        W13290  14.112   6.584  23.467 -0.3595  0.1149 -0.2992
70353W        W13291  16.389   3.801  26.174  0.1552  0.0671 -0.2873
70354W        W13292  18.034   6.993  27.041 -0.0527 -0.2989 -0.0055
70355W        W13293  16.269   6.305  27.753  0.0412 -0.0089  0.1773
70356W        W13294  14.217   5.137  23.765  0.3053 -0.3299 -0.1143
70357W        W13295  16.418   5.957  25.904 -0.0544 -0.3708 -0.0755
70358W        W13296  16.269   6.230  24.592 -0.0099 -0.1980  0.0925
70359W        W13297  15.478   7.518  24.541  0.2299  0.2327 -0.2671
70360W        W13298  18.346   8.673  25.008  0.1965  0.1921 -0.3499
70361W        W13299  16.836   5.349  25.429 -0.1063 -0.0031  0.0497
70362W        W13300  17.301   5.379  25.119  0.2819  0.2688  0.2563
70363W        W13301  16.296   3.985  24.680  0.5204  0.0136  0.1770
70364W        W13302  18.006   4.274  23.972  0.1251 -0.0846 -0.1468
70365W        W13303  17.851   4.450  23.521 -0.2065  0.0117 -0.4144
70366W        W13304  15.032   5.086  26.563  0.0294 -0.0594  0.1185
70367W        W13305  14.221   6.166  23.856 -0.0830 -0.2081  0.0195
70368W        W13306  13.637   5.637  24.352  0.0120 -0.3708 -0.0338
70369W        W13307  16.265   5.950  24.191  0.0987  0.2457 -0.0383
70370W        W13308  17.217   4.104  27.485  0.2886 -0.1655 -0.3539
70371W        W13309  15.372   4.479  27.989  0.1204 -0.5192 -0.3507
70372W        W13310  15.471   6.246  25.193 -0.1072  0.1467 -0.0579
70373W        W13311  15.710   2.982  25.676  0.0250  0.0672  0.1588
70374W        W13312  16.756   5.856  23.973  0.1632 -0.0440  0.2197
70375W        W13313  14.671   3.239  24.745  0.0396 -0.6531  0.1568
70376W        W13314  14.033   4.597  25.744  0.1997  0.3015 -0.1304
70377W        W13315  16.277   6.299  23.853  0.2660 -0.1652  0.2991
70378W        W13316  17.624   5.429  23.638  0.3040  0.4084  0.0081
70379W        W13317  16.679   4.047  24.288  0.1172 -0.0658  0.2877
70380W        W13318  19.172   5.566  28.491 -0.0446  0.1667  0.0414
70381W        W13319  13.889   5.167  23.410 -0.0932 -0.0725 -0.1699
70382W        W13320  16.853   4.913  27.854  0.0342 -0.0193 -0.3703
70383W        W13321  15.704   4.450  26.570  0.2404  0.0448  0.0877
70384W        W13322  15.635   4.104  24.950 -0.0555 -0.2189 -0.2768
70385W        W13323  15.813   5.502  25.408 -0.0331  0.0011  0.1097
70386W        W13324  15.454   8.070  23.254  0.1649 -0.1995  0.0139
70387W        W13325  17.670   7.329  23.642 -0.0059 -0.0070  0.6505
70388W        W13326  15.314   6.745  25.865 -0.3596  0.1684  0.2448
70389W        W13327  15.894   7.749  27.036  0.1784  0.0868 -0.1083
70390W        W13328  15.798   3.518  28.087  0.1903  0.0186 -0.0266
70391W        W13329  17.152   7.112  24.557  0.1240 -0.1807 -0.0695
70392W        W13330  14.296   5.944  26.976 -0.0754  0.0156 -0.1041
70393W        W13331  16.691   6.900  24.560 -0.0033 -0.2016 -0.4400
70394W        W13332  16.510   4.331  25.958  0.0771 -0.3038  0.0801
70395W        W13333  17.405   6.602  25.290 -0.1142 -0.1240 -0.0637
70396W        W13334  15.784   2.541  27.042  0.0575  0.1013  0.1856
70397W        W13335  14.505   7.826  25.998  0.1856  0.0367 -0.0720
70398W        W13336  16.943   5.630  27.181  0.0040 -0.0952  0.3612
70399W        W13337  15.325   3.191  25.887 -0.1020  0.2807 -0.1248
70400W        W13338  16.630   4.875  25.225 -0.1240 -0.2080  0.2202
70401W        W13339  15.719   6.884  24.016  0.1217  0.0384  0.1057
70402W        W13340  13.646   4.286  25.948  0.1514  0.1155  0.2717
70403W        W13341  17.454   5.121  23.080 -0.2658 -0.1331  0.0949
70404W        W13342  15.819   5.402  26.268  0.0467  0.0277 -0.1440
70405W        W13343  19.130   6.546  25.742 -0.1304  0.0868 -0.1688
70406W        W13344  17.414   6.502  27.564  0.3815  0.3586 -0.0198
70407W        W13345  16.419   4.465  25.478  0.1415 -0.1956  0.1434
70408W        W13346  19.223   6.539  23.677  0.2599  0.2767  0.2075
70409W        W13347  18.038   7.549  24.633  0.3717  0.0802 -0.1660
70410W        W13348  17.929   6.361  28.143  0.0123 -0.1190 -0.1060
70411W        W13349  16.787   6.694  27.111 -0.0548 -0.1584 -0.1425
70412W        W13350  18.059   6.548  25.774 -0.1844 -0.0865 -0.2964
70413W        W13351  14.594   3.002  26.516  0.1909  0.0637  0.0623
70414W        W13352  15.028   4.722  25.016  0.0013  0.0669 -0.2902
70415W        W13353  15.889   6.313  25.637 -0.2750  0.0113  0.2071
70416W        W13354  17.570   5.472  25.566  0.0097 -0.0331  0.0097
70417W        W13355  15.638   4.223  26.982 -0.3417 -0.1021  0.1941
70418W        W13356  18.417   4.981  23.476 -0.2661 -0.0195  0.0106
70419W        W13357  15.739   7.155  29.013 -0.2208 -0.2746 -0.2310
70420W        W13358  16.688   5.818  25.529 -0.1341  0.1801 -0.1806
70421W        W13359  14.490   5.827  30.772  0.0326  0.0675  0.3399
70422W        W13360  14.760   6.043  28.723  0.0974  0.1282 -0.1261
70423W        W13361  17.603   4.929  27.102 -0.0134 -0.1493  0.0473
70424W        W13362  18.440   6.135  29.337  0.0790 -0.1825  0.1106
70425W        W13363  15.766   3.617  27.338 -0.0601 -0.3088  0.0220
70426W        W13364  16.582   7.289  28.765 -0.0433  0.0005  0.2656
70427W        W13365  16.057   4.295  29.804  0.0262 -0.3048  0.2662
70428W        W13366  16.156   6.207  30.202  0.0228 -0.2726 -0.0574
70429W        W13367  16.193   6.442  30.963 -0.0140 -0.3298 -0.2706
70430W        W13368  17.172   6.397  27.093  0.3317 -0.2079 -0.2826
70431W        W13369  15.268   3.966  29.711  0.1440  0.0280  0.1080
70432W        W13370  16.117   7.836  31.151 -0.3008 -0.2194  0.1390
70433W        W13371  17.745   3.717  29.836  0.0327 -0.1959  0.0433
70434W        W13372  14.450   1.887  29.508 -0.1117 -0.1959 -0.1631
70435W        W13373  15.454   5.710  30.491  0.1850 -0.1064  0.4035
70436W        W13374  15.849   6.200  28.771 -0.0607  0.2113  0.0695
70437W        W13375  14.553   4.485  29.219  0.3193  0.1989  0.0745
70438W        W13376  15.933   4.469  29.319  0.2974  0.1921  0.0069
70439W        W13377  15.890   9.220  29.045  0.1904 -0.1472  0.0501
70440W        W13378  17.237   5.136  30.219  0.0496 -0.2965 -0.1663
70441W        W13379  16.968   3.464  31.382 -0.3088  0.1843 -0.0255
70442W        W13380  17.315   6.850  26.162 -0.2226  0.1698  0.0667
70443W        W13381  14.299   4.346  27.961 -0.1405 -0.3101  0.1297
70444W        W13382  15.359   4.213  28.669  0.2027  0.0582  0.0321
70445W        W13383  14.152   4.894  28.906 -0.1569 -0.0340 -0.0803
70446W        W13384  16.692   4.144  28.797 -0.1378 -0.2209  0.1009
70447W        W13385  17.753   5.920  29.041  0.0084 -0.0398 -0.3678
70448W        W13386  17.392   7.579  29.479  0.1416 -0.2851  0.0402
70449W        W13387  17.284   6.727  29.844  0.1784  0.0890  0.0251
70450W        W13388  16.153   4.461  31.937  0.2134 -0.1010  0.0471
70451W        W13389  14.183   5.302  28.424 -0.2231  0.0713  0.0519
70452W        W13390  14.450   7.282  29.313 -0.0508  0.0494  0.3878
70453W        W13391  15.670   8.389  29.170 -0.1177 -0.0080 -0.1225
70454W        W13392  18.292   5.975  28.357  0.0411 -0.0587  0.0002
70455W        W13393  18.114   6.675  31.696  0.0563 -0.0261  0.1038
70456W        W13394  14.719   4.808  30.679  0.0430 -0.1719 -0.0686
70457W        W13395  15.165   6.998  27.743 -0.0818  0.0699  0.0277
70458W        W13396  16.590   6.958  30.985 -0.1916  0.0914 -0.1415
70459W        W13397  14.653   5.395  29.849 -0.2063  0.0917  0.1402
70460W        W13398  16.407   7.163  29.762 -0.2600  0.0253  0.1100
70461W        W13399  17.096   6.054  28.455  0.0977 -0.3031  0.1377
70462W        W13400  15.542   5.873  27.745 -0.1050 -0.1229 -0.2572
70463W        W13401  17.041   6.569  30.270  0.0944 -0.0227  0.1552
70464W        W13402  13.156   4.932  30.923  0.0358  0.1295  0.3632
70465W        W13403  13.812   5.132  29.318  0.0102  0.0606  0.0197
70466W        W13404  17.144   5.502  30.481  0.0868 -0.3606  0.1090
70467W        W13405  16.804   7.298  26.964 -0.2287  0.6034 -0.1493
70468W        W13406  16.668   7.015  28.367  0.2091  0.2394 -0.0063
70469W        W13407  15.937   5.347  28.105  0.2210  0.0702 -0.2415
70470W        W13408  17.786   5.527  28.716 -0.1986  0.0112 -0.0012
70471W        W13409  15.984   4.020  30.286  0.0872  0.2827  0.1087
70472W        W13410  15.315   7.933  29.764  0.3688  0.0841 -0.0127
70473W        W13411  16.752   4.753  30.270  0.1935 -0.0936 -0.1580
70474W        W13412  18.721   5.740  28.525 -0.1246 -0.1174 -0.1381
70475W        W13413  15.942   6.795  27.901 -0.2594  0.0521  0.3054
70476W        W13414  16.403   5.787  30.096  0.1207 -0.1145 -0.2739
70477W        W13415  15.077   6.942  28.397 -0.3578 -0.0455  0.0737
70478W        W13416  14.625   5.094  28.581  0.1526  0.0087  0.2534
70479W        W13417  17.353   7.405  28.084 -0.1408 -0.3981  0.1054
70480W        W13418  16.990   7.377  28.475 -0.2836  0.0118  0.0445
70481W        W13419  16.413   7.557  28.307 -0.2702 -0.3341 -0.0204
70482W        W13420  16.107   5.055  28.493 -0.0526 -0.1104  0.0926
70483W        W13421  12.924   5.634  29.041  0.3540  0.1793 -0.0680
70484W        W13422  15.424   4.276  30.742  0.0645  0.1487 -0.2502
70485W        W13423  15.039   3.897  27.596  0.0570  0.0717 -0.1984
70486W        W13424  18.351   6.432  30.126 -0.0612  0.2537 -0.0170
70487W        W13425  15.168   5.008  30.966 -0.0126 -0.4010  0.0136
70488W        W13426  17.406   4.251  29.178  0.0719  0.1546  0.0566
70489W        W13427  15.286   6.464  29.827 -0.1525  0.0817  0.0843
70490W        W13428  16.499   5.251  30.106 -0.3299  0.1489  0.2128
70491W        W13429  17.730   6.159  27.305  0.1210 -0.0125 -0.0786
70492W        W13430  16.924   3.384  30.669 -0.0255 -0.0904 -0.2483
70493W        W13431  17.663   4.074  30.840  0.1689  0.2783  0.2856
70494W        W13432  14.238   4.562  26.547  0.0046  0.2583 -0.1263
70495W        W13433  15.422   6.375  27.410  0.2038  0.1541  0.2167
70496W        W13434  17.448   6.925  30.325  0.2822  0.0108  0.1766
70497W        W13435  18.411   6.940  30.009  0.3777  0.1823  0.0926
70498W        W13436  14.106   5.519  29.369  0.0668  0.1966  0.4015
70499W        W13437  17.684   4.522  31.111 -0.1590  0.0641 -0.0031
70500W        W13438  16.899   6.561  31.803  0.1831 -0.0187  0.0704
70501W        W13439  13.264   7.385  26.702  0.3025 -0.2603 -0.0742
70502W        W13440  15.236   6.998  28.878 -0.2089 -0.1848 -0.1261
70503W        W13441  13.923   6.202  28.084 -0.2248  0.1638 -0.0956
70504W        W13442  15.912   4.178  30.763  0.1108  0.1949  0.2030
70505W        W13443  14.550   5.918  29.668  0.2016 -0.3325  0.2255
70506W        W13444  18.199   6.388  28.704  0.1298  0.4241  0.1628
70507W        W13445  14.265   4.094  30.967 -0.1335  0.1074  0.2618
70508W        W13446  18.702   4.752  28.522  0.2247 -0.0161  0.0299
70509W        W13447  14.910   6.609  27.945  0.0146  0.1606 -0.0827
70510W        W13448  16.935   7.320  29.079  0.2633  0.0797 -0.0974
70511W        W13449  17.461   7.289  27.421  0.2403  0.3023  0.5403
70512W        W13450  17.410   8.323  27.126  0.3086  0.0862  0.0299
70513W        W13451  15.158   4.486  29.900 -0.1774 -0.0068  0.1363
70514W        W13452  15.466   4.077  29.186  0.0276  0.0875  0.1256
70515W        W13453  16.080   4.540  31.040 -0.2231  0.0711  0.0992
70516W        W13454  13.854   3.895  28.959  0.3085  0.0836  0.1370
70517W        W13455  17.371   5.116  31.547  0.0372  0.0924  0.1188
70518W        W13456  15.780   4.370  28.311  0.1558 -0.0842 -0.2569
70519W        W13457  16.497   4.442  29.568  0.3218 -0.2247  0.0260
70520W        W13458  17.465   6.528  28.493  0.1264  0.0007  0.3485
70521W        W13459  15.204   5.204  29.113  0.0395 -0.3291  0.3515
70522W        W13460  17.222   2.708  30.929 -0.0316 -0.0569 -0.0429
70523W        W13461  17.274   8.098  27.557 -0.0800  0.2434  0.1630
70524W        W13462  16.411   6.072  29.286 -0.1966  0.1051  0.2221
70525W        W13463  17.061   7.667  27.820  0.3141  0.1745 -0.2084
70526W        W13464  16.395   3.954  30.552  0.0674  0.1390 -0.0822
70527W        W13465  14.154   4.834  28.109 -0.1898 -0.4867  0.4342
70528W        W13466  14.443   7.582  28.661 -0.2047 -0.2012 -0.0212
70529W        W13467  15.022   6.554  29.029 -0.0977  0.1720 -0.1102
70530W        W13468  16.599   6.546  29.061  0.1694 -0.0867  0.0636
70531W        W13469  17.542   7.738  27.736  0.0152  0.0064  0.0732
70532W        W13470  17.190   6.933  28.253 -0.1258  0.0303  0.0009
70533W        W13471  14.656   5.073  29.060 -0.2616 -0.0526  0.2005
70534W        W13472  17.810   5.130  30.095 -0.1626 -0.0023 -0.3573
70535W        W13473  18.049   5.746  30.569  0.1646  0.1105 -0.1144
70536W        W13474  14.860   5.988  29.191  0.0092  0.0140  0.1082
70537W        W13475  14.982   5.287  28.134 -0.0213  0.0836 -0.0104
70538W        W13476  16.686   7.287  27.844  0.1067 -0.2794 -0.1803
70539W        W13477  15.266   7.919  27.325 -0.0366  0.1240 -0.1877
70540W        W13478  14.920   4.201  28.876  0.4075  0.1808 -0.1481
70541W        W13479  16.534   7.407  29.273  0.1269 -0.0712 -0.4129
70542W        W13480  16.759   4.030  28.243  0.1486  0.2437 -0.4505
70543W        W13481  14.519   4.822  31.423 -0.1458  0.2301 -0.0429
70544W        W13482  17.745   3.536  30.320 -0.1315 -0.0392 -0.1314
70545W        W13483  15.503   6.066  29.530 -0.0743 -0.2183 -0.1846
70546W        W13484  14.727   5.008  30.126 -0.1194  0.0706 -0.0337
70547W        W13485  17.774   2.457  30.485  0.0831  0.0666  0.0262
70548W        W13486  17.714   4.269  27.293  0.1021  0.1697  0.2561
70549W        W13487  14.985   5.550   0.196  0.2205  0.0721  0.2750
70550W        W13488  18.231   7.589  28.257  0.2772 -0.3117 -0.1459
70551W        W13489  16.064   4.751  28.064  0.0943 -0.2210  0.0559
70552W        W13490  17.457   1.619  26.858  0.0340 -0.0875 -0.1950
70553W        W13491  14.294   4.919  29.401 -0.0702  0.3777  0.3685
70554W        W13492  16.132   6.540  29.242 -0.0781  0.1339 -0.0285
70555W        W13493  15.730   5.611  29.530 -0.1235  0.0870  0.2233
70556W        W13494  16.356   4.448  28.410  0.0790  0.0766 -0.0263
70557W        W13495  19.318   8.345  29.367  0.1291  0.3352 -0.0285
70558W        W13496  13.978   5.686  31.078 -0.1784 -0.2428  0.2408
70559W        W13497  15.753   5.860  30.977  0.2900  0.1082 -0.0556
70560W        W13498  17.044   6.922  28.848 -0.1279 -0.0063  0.1166
70561W        W13499  16.584   5.272  29.617 -0.3152 -0.0756  0.1701
70562W        W13500  14.982   4.243  28.303 -0.2029 -0.0763  0.2839
70563W        W13501  17.332   4.788  29.918  0.1251 -0.1372 -0.4841
70564W        W13502  15.295   9.549  28.073  0.4506  0.0029 -0.1817
70565W        W13503  16.434   3.350  30.422 -0.2249  0.0587  0.1541
70566W        W13504  17.505   5.582  30.049 -0.1977  0.0008 -0.2544
70567W        W13505  17.243   4.475  30.955  0.3910  0.2237  0.0498
70568W        W13506  18.238   4.102   0.063  0.1194  0.2367 -0.3301
70569W        W13507  14.892   4.359  27.757  0.3017  0.0556  0.0318
70570W        W13508  16.513   5.361  28.524  0.1116 -0.3689  0.0094
70571W        W13509  15.675   6.344  27.864 -0.0577  0.0479  0.0686
70572W        W13510  17.292   4.520  31.501  0.1562  0.3302 -0.0326
70573W        W13511  14.982   5.638  30.549  0.3517 -0.0706 -0.3001
70574W        W13512  15.836   9.701  30.901 -0.1459 -0.1183  0.1622
70575W        W13513  15.641   6.868  30.691  0.3290  0.5086 -0.0052
70576W        W13514  17.914   6.408  29.121  0.1458 -0.1069  0.3092
70577W        W13515  16.619   3.880  31.356 -0.0966 -0.1608  0.2193
70578W        W13516  16.574   5.820  28.335 -0.0639 -0.0052 -0.0201
70579W        W13517  16.288   6.943  29.050 -0.1735 -0.5052  0.0066
70580W        W13518  14.748   6.491  26.510  0.0068  0.2845  0.0836
70581W        W13519  14.853   3.655  29.889  0.2322  0.3782 -0.2473
70582W        W13520  14.619   5.867  30.250  0.3195 -0.0542  0.2978
70583W        W13521  15.280   6.255  26.747 -0.1723  0.0351 -0.0297
70584W        W13522  17.547   6.320  30.389  0.1731  0.0651  0.1824
70585W        W13523  15.838   7.145  27.474 -0.2299 -0.1397  0.0508
70586W        W13524  18.377   2.959  29.311 -0.0944  0.1634  0.2901
70587W        W13525  14.847   7.065  30.309  0.0412  0.2034 -0.0928
70588W        W13526  16.359   6.571  28.189  0.0038  0.0915 -0.2557
70589W        W13527  13.809   4.329  27.726 -0.2845  0.2813 -0.1964
70590W        W13528  16.517   4.197  30.073 -0.0815 -0.0637 -0.0014
70591W        W13529  15.960   7.498  28.428  0.2974  0.2091  0.0350
70592W        W13530  15.040   3.792  29.210  0.3195 -0.0167 -0.1499
70593W        W13531  17.383   3.237  30.894  0.1956 -0.0115  0.3678
70594W        W13532  14.841   6.159  30.578  0.1380 -0.1482  0.0740
70595W        W13533  15.499   5.167  29.601 -0.0075  0.1706 -0.1137
70596W        W13534  17.937   4.705  27.365 -0.2019 -0.0317 -0.1204
70597W        W13535  17.050   7.267  29.541 -0.0733 -0.0528  0.0287
70598W        W13536  15.639   5.421  31.386  0.0452 -0.1907  0.1617
70599W        W13537  13.581   3.899  28.049 -0.3465 -0.1302 -0.2907
70600W        W13538  16.632   5.743  31.207 -0.0083 -0.0550 -0.1643
70601W        W13539  14.629   4.409  27.290  0.0087  0.1157 -0.0294
70602W        W13540  15.701   7.709  27.760  0.0157  0.1682 -0.1452
70603W        W13541  16.907   5.935  30.144 -0.3171  0.4193  0.2778
70604W        W13542  15.407   6.085  29.060 -0.0443 -0.0204  0.1701
70605W        W13543  15.638   6.509  29.137  0.1731 -0.1167 -0.3465
70606W        W13544  15.312   6.453   0.207  0.3682 -0.1958  0.0984
70607W        W13545  17.963   6.315  29.599 -0.1578 -0.2514  0.2035
70608W        W13546  16.670   5.813  29.626 -0.0133 -0.1425  0.1452
70609W        W13547  16.799   4.254  29.264  0.2565  0.0351  0.1833
70610W        W13548  16.190   5.811  27.873  0.0551  0.0585 -0.2245
70611W        W13549  17.804   4.856  30.760  0.0138 -0.0090 -0.1390
70612W        W13550  14.205   5.633  30.049  0.1554  0.0020  0.0392
70613W        W13551  16.447   4.910  31.049  0.4344  0.3124 -0.4290
70614W        W13552  16.840   4.330  30.739  0.3467  0.1815  0.0731
70615W        W13553  19.820   9.127  26.566  0.1939  0.1955  0.1243
70616W        W13554  15.228   5.214  31.906 -0.0064  0.0328 -0.2144
70617W        W13555  16.106   6.088  28.341 -0.0180 -0.0735  0.1167
70618W        W13556  14.366   6.028  29.035  0.1227 -0.0885 -0.0572
70619W        W13557  15.408   7.472  28.687  0.0508  0.1067  0.0264
70620W        W13558  16.770   4.788  29.328 -0.1762 -0.0341  0.0140
70621W        W13559  14.757   6.252  29.983  0.1311  0.1973 -0.0831
70622W        W13560  14.259   7.796  27.827  0.2313 -0.1781 -0.2337
70623W        W13561  15.132   6.935  30.782  0.0968  0.0084  0.0543
70624W        W13562  17.899   5.689  27.457 -0.3069  0.2071  0.4510
70625W        W13563  16.904   7.128  27.446  0.2476 -0.2944 -0.7448
70626W        W13564  17.733   5.433  29.280 -0.3389  0.0489 -0.1958
70627W        W13565  18.962   3.283  30.759  0.0835  0.0556  0.0761
70628W        W13566  16.780   6.823  29.843  0.1824  0.0840 -0.1401
70629W        W13567  17.887   3.184   0.127  0.0983 -0.1333  0.0158
70630W        W13568  16.623   3.653  30.054  0.0788 -0.1093  0.4149
70631W        W13569  17.029   7.177  30.076  0.3959  0.0674  0.2014
70632W        W13570  16.033   4.532  30.280 -0.2353 -0.1272  0.0655
70633W        W13571  16.024   5.032  30.224  0.0907 -0.1604 -0.0043
70634W        W13572  15.322   5.772  31.692  0.0069  0.0170 -0.1461
70635W        W13573  17.822   4.547  28.433  0.0587  0.1320  0.0317
70636W        W13574  16.734   4.894  28.670 -0.1654  0.2435 -0.0961
70637W        W13575  15.121   5.532  30.079 -0.3128  0.4114  0.0110
70638W        W13576  17.095   7.646  30.296 -0.0357  0.2406  0.2309
70639W        W13577  16.295   6.457  28.693  0.3267 -0.2324  0.0546
70640W        W13578  17.328   4.682  29.385  0.3085 -0.0396 -0.3485
70641W        W13579  14.728   4.748  29.660  0.0455  0.2891 -0.2557
70642W        W13580  17.334   5.630  28.443 -0.0962  0.1833 -0.1434
70643W        W13581  15.946   6.342  27.343  0.2227 -0.0400 -0.0522
70644W        W13582  15.268   5.790  28.622  0.1780  0.1290 -0.1417
70645W        W13583  16.718   3.087  31.806 -0.0805 -0.1032  0.1721
70646W        W13584  17.861   6.020  30.151  0.2971  0.1644 -0.1131
70647W        W13585  17.385   4.677  28.148 -0.3176 -0.0860  0.1664
70648W        W13586  16.105   5.224  29.626 -0.2466  0.1024 -0.2099
70649W        W13587  15.658   6.207  30.592  0.0478  0.2413 -0.0169
70650W        W13588  15.866   4.778  29.701 -0.1834  0.3340 -0.0188
70651W        W13589  15.440   5.018   0.387 -0.0828  0.0094 -0.1934
70652W        W13590  17.448   6.115  29.386  0.1675 -0.0349 -0.1364
70653W        W13591  17.278   5.278  26.945  0.3766 -0.2506  0.0623
70654W        W13592  16.327   5.309  31.809  0.1162 -0.1729 -0.0132
70655W        W13593  18.041   5.575  29.964  0.0603 -0.0083  0.0141
70656W        W13594  16.774   4.530  28.131  0.0764 -0.0107 -0.3782
70657W        W13595  13.829   3.001  28.769 -0.0845  0.2157 -0.1991
70658W        W13596  18.461   6.075  31.430  0.0902 -0.0595  0.1700
70659W        W13597  15.636   4.829  28.321 -0.0702  0.1729  0.3608
70660W        W13598  18.044   5.250  29.607  0.4223 -0.1854  0.0356
70661W        W13599  16.464   8.932  26.766 -0.2434 -0.1989 -0.2735
70662W        W13600  15.644   6.588  30.261  0.4085  0.0627 -0.1210
70663W        W13601  16.079   6.056  29.747  0.1861 -0.0871  0.0377
70664W        W13602  15.151   4.707  28.368 -0.0121  0.0188 -0.0396
70665W        W13603  13.654   5.579  30.328 -0.1279 -0.1115  0.2541
70666W        W13604  14.953   3.684  28.085 -0.3002  0.1436  0.0952
70667W        W13605  16.829   5.138  27.016 -0.0185 -0.1605 -0.1713
70668W        W13606  18.475   7.991  28.507 -0.1483 -0.0661 -0.1443
70669W        W13607  17.141   5.327   0.431  0.0528  0.2153 -0.0950
70670W        W13608  16.083   4.759  27.515 -0.0801  0.1575 -0.0373
70671W        W13609  18.508   4.252  30.895 -0.0991 -0.1584 -0.1724
70672W        W13610  15.529   8.724  28.112  0.2026  0.0879  0.1754
70673W        W13611  17.435   2.763  28.181 -0.0769 -0.1080  0.3930
70674W        W13612  16.482   6.852  31.880  0.2458 -0.0825 -0.0332
70675W        W13613  14.502   6.591  31.635  0.1812 -0.0809 -0.0777
70676W        W13614  15.424   6.577  28.632  0.1263 -0.1123  0.1139
70677W        W13615  17.365   3.687  30.642  0.0654  0.0888  0.0153
70678W        W13616  17.335   5.077  29.018 -0.0936  0.0524 -0.0360
70679W        W13617  15.101   6.555  30.338 -0.0481 -0.1689 -0.2421
70680W        W13618  16.941   3.862  30.959  0.0834 -0.1197 -0.1787
70681W        W13619  14.944   5.176  29.502 -0.2425  0.0173 -0.1181
70682W        W13620  13.110   4.465  29.201 -0.0381 -0.1081 -0.1124
70683W        W13621  16.206   5.381  30.941  0.1582 -0.0121 -0.2308
70684W        W13622  18.079   7.345  28.687  0.1689  0.1386 -0.1019
70685W        W13623  14.023   5.938  30.476 -0.2880  0.0023  0.0350
70686W        W13624  15.658   5.025  31.059 -0.0417 -0.1322  0.0259
70687W        W13625  16.839   4.450  31.342  0.1163 -0.1549  0.1730
70688W        W13626  16.868   5.727  29.187  0.0769  0.1190 -0.1397
70689W        W13627  17.107   4.286  29.640 -0.0603 -0.2531  0.0853
70690W        W13628  15.603   7.066  28.542  0.1311  0.4769  0.0434
70691W        W13629  15.862   6.850  31.141  0.2721 -0.0970 -0.1171
70692W        W13630  13.565   5.840  30.720 -0.0854  0.1118 -0.0578
70693W        W13631  15.455   6.838  28.083  0.1792  0.0909  0.1045
70694W        W13632  18.484   6.491  28.339  0.0642  0.4227  0.0053
70695W        W13633  16.563   5.269  29.075 -0.0170 -0.0948 -0.1123
70696W        W13634  16.468   7.002  30.331 -0.2202 -0.1030 -0.4709
70697W        W13635  16.479   5.463  27.250  0.1351 -0.2104  0.1661
70698W        W13636  16.862   6.283  29.799 -0.1858  0.0194  0.0157
70699W        W13637  15.100   5.849  27.375  0.2433 -0.1675  0.0910
70700W        W13638  16.816   6.497  28.478  0.0448  0.1171  0.0033
70701W        W13639  14.762   7.848  30.687 -0.2502 -0.1501  0.4663
70702W        W13640  18.237   6.695  31.066  0.1761  0.0248  0.2791
70703W        W13641  17.292   3.728  28.366 -0.1841 -0.0029 -0.0952
70704W        W13642  17.760   6.790  30.731 -0.0479  0.1538 -0.0327
70705W        W13643  15.491   5.424  28.275  0.1369  0.5187 -0.1587
70706W        W13644  16.218   7.565  30.719 -0.1821 -0.1270  0.2352
70707W        W13645  14.847   6.387  29.501  0.1386 -0.1039 -0.1184
70708W        W13646  17.174   3.993  28.821  0.1049  0.2295  0.2933
70709W        W13647  13.956   4.965   0.286 -0.2320 -0.0983  0.2138
70710W        W13648  16.971   4.924  31.359  0.2743 -0.0141  0.3613
70711W        W13649  16.051   5.136  31.354  0.1449  0.4877 -0.1413
70712W        W13650  17.575   8.018  28.640 -0.0873 -0.3266  0.2329
70713W        W13651  14.214   4.498  28.468  0.0672 -0.0261  0.1438
70714W        W13652  15.304   5.319  27.553  0.0763  0.0408 -0.1006
70715W        W13653  16.858   3.887  30.426 -0.0397 -0.1556 -0.1405
70716W        W13654  13.732   5.839  26.842  0.3163  0.4231  0.0866
70717W        W13655  13.666   5.422  29.710 -0.1245  0.0476  0.0035
70718W        W13656  15.516   8.643  28.663  0.1550 -0.2425 -0.0275
70719W        W13657  15.612   5.927  29.955  0.2766 -0.0495  0.2287
70720W        W13658  14.631   5.574  29.326 -0.1104  0.0468  0.2780
70721W        W13659  14.612   6.131  27.456 -0.3751  0.0103  0.2624
70722W        W13660  18.122   3.790  28.949  0.2470 -0.2225  0.0793
70723W        W13661  15.947   5.526  30.048  0.1593  0.0905 -0.0288
70724W        W13662  18.488   3.463  30.828  0.1331 -0.0223  0.0206
70725W        W13663  15.556   4.689  30.050  0.0781 -0.1734  0.1642
70726W        W13664  17.299   3.558  29.153 -0.3259 -0.1003  0.2980
70727W        W13665  15.208   4.734  29.460 -0.0515  0.1673  0.1963
70728W        W13666  13.273   5.269  29.960  0.1055  0.3922 -0.2221
70729W        W13667  15.648   5.992  28.292 -0.0532 -0.0706  0.4308
70730W        W13668  16.547   6.486  30.151  0.1816  0.0935 -0.4572
70731W        W13669  16.496   6.218  27.280  0.2591 -0.1549  0.3532
70732W        W13670  17.315   6.647   0.118 -0.1179  0.0910 -0.4276
70733W        W13671  15.461   3.973  28.100 -0.1699  0.2153  0.0528
70734W        W13672  17.571   3.359  27.668  0.1853  0.0025  0.1496
70735W        W13673  14.556   4.063  28.445 -0.2470  0.1672  0.1267
70736W        W13674  15.161   5.001  30.477 -0.0215 -0.4321 -0.0975
70737W        W13675  18.719   5.162  30.437 -0.0286 -0.0270 -0.0068
70738W        W13676  14.667   3.326  28.223  0.0108  0.0798  0.2287
70739W        W13677  19.584   7.145  27.749 -0.0311  0.1585  0.1717
70740W        W13678  17.029   4.382  30.139  0.0020  0.0373  0.0979
70741W        W13679  16.783   7.124  26.408  0.3031  0.0822 -0.2494
70742W        W13680  16.694   6.100  28.782 -0.0781  0.2022  0.1721
70743W        W13681  16.975   6.248  29.279 -0.2550 -0.3770 -0.1082
70744W        W13682  14.497   3.888  29.094 -0.1622 -0.2093 -0.4631
70745W        W13683  17.568   7.194  28.633 -0.2896 -0.0918 -0.0217
70746W        W13684  19.238   7.721  30.971  0.1615  0.1506  0.0122
70747W        W13685  17.637   4.025  28.637  0.2314 -0.1317 -0.0108
70748W        W13686  14.147   4.278  29.025  0.2183 -0.1552 -0.0100
70749W        W13687  15.234   8.517  27.754 -0.0523  0.0435 -0.2490
70750W        W13688  17.284   4.131  30.482 -0.2665 -0.0037  0.0632
70751W        W13689  16.420   4.491  30.605  0.1321 -0.1693  0.1741
70752W        W13690  14.342   6.774  26.204  0.3483  0.0986  0.1600
70753W        W13691  17.428   2.606  31.736 -0.0385 -0.0981 -0.0957
70754W        W13692  16.285   6.417   0.021 -0.1607 -0.0893 -0.0386
70755W        W13693  15.139   5.457   0.745 -0.1218 -0.1806  0.0042
70756W        W13694  15.219   4.475  26.695  0.0019 -0.1497 -0.0044
70757W        W13695  15.906   6.013  29.230 -0.2469 -0.2550  0.0233
70758W        W13696  16.990   5.274  29.371 -0.1595 -0.1659 -0.5650
70759W        W13697  15.719   8.235  27.790  0.0107 -0.0043  0.0019
70760W        W13698  17.522   6.715  28.987  0.0842 -0.1093 -0.1177
70761W        W13699  18.216   5.887  28.860  0.0923  0.1333  0.1740
70762W        W13700  18.633   6.958  28.206  0.0539 -0.0299  0.0111
70763W        W13701  15.965   5.274  29.073  0.1322  0.0795  0.1707
70764W        W13702  18.395   4.508  27.718 -0.1226  0.0810 -0.2480
70765W        W13703  17.238   6.058  28.903 -0.1233 -0.2554  0.1591
70766W        W13704  16.036   4.988  30.705 -0.0757  0.1588  0.2225
70767W        W13705  15.118   4.738  28.963 -0.0506  0.1173 -0.1956
70768W        W13706  14.520   6.482  28.753 -0.1529  0.2889 -0.1811
70769W        W13707  15.575   4.378  29.637  0.2711 -0.1460 -0.0846
70770W        W13708  16.825   4.595  31.855 -0.0592  0.2043 -0.1315
70771W        W13709  14.681   4.622  28.703 -0.0676 -0.1448 -0.0221
70772W        W13710  15.549   5.574  29.018  0.2883 -0.2337 -0.0285
70773W        W13711  17.171   4.946  27.405  0.0783 -0.1852 -0.1255
70774W        W13712  19.448   8.017  28.235 -0.1184 -0.0505 -0.2589
70775W        W13713  15.446   2.866  30.046  0.0693 -0.0447  0.1096
70776W        W13714  15.506   3.607  29.414  0.0917  0.2198 -0.0290
70777W        W13715  17.883   5.695  28.221  0.3578 -0.2430  0.1749
70778W        W13716  19.042   6.123  29.128 -0.0477 -0.0823 -0.1007
70779W        W13717  16.910   5.646  28.723  0.0091 -0.2016  0.0406
70780W        W13718  18.344   5.951  30.938  0.1049 -0.1927 -0.4281
70781W        W13719  15.845   6.549  28.347  0.2487 -0.1413 -0.1203
70782W        W13720  15.964   5.599   0.345 -0.2174 -0.1331  0.1460
70783W        W13721  16.576   5.273  31.347 -0.0545 -0.3158  0.1496
70784W        W13722  14.636   5.666  27.140 -0.0456  0.0882  0.1970
70785W        W13723  16.488   6.516  29.598  0.1194 -0.2832 -0.0979
70786W        W13724  15.982   8.376  28.511  0.2313  0.4469  0.2095
70787W        W13725  19.038   7.871  27.933 -0.3798  0.0500 -0.1232
70788W        W13726  15.164   5.628  29.439  0.1426 -0.0209  0.0079
70789W        W13727  15.170   6.082  30.175  0.0327  0.3360  0.1308
70790W        W13728  15.598   4.698  30.561 -0.0290 -0.0386  0.1758
70791W        W13729  17.732   5.194  28.238  0.0613  0.1714 -0.1382
70792W        W13730  16.619   6.668  31.348  0.2574 -0.0644 -0.0537
70793W        W13731  17.429   7.308  26.853  0.2355  0.1691 -0.1702
70794W        W13732  17.750   3.222  29.942  0.2152 -0.1618 -0.0612
70795W        W13733  16.326   5.788  28.828 -0.0527 -0.1668 -0.0080
70796W        W13734  15.452   4.901  31.550 -0.1948 -0.0141  0.1979
70797W        W13735  13.126   4.609  29.775 -0.1471 -0.1333  0.1366
70798W        W13736  17.774   6.535  29.999  0.0242 -0.2175 -0.1565
70799W        W13737  15.776   3.864  28.471 -0.1382  0.0201 -0.2191
70800W        W13738  17.261   4.538  27.102 -0.2432 -0.1664 -0.0087
70801W        W13739  16.430   6.786  27.613  0.0668  0.1484  0.0688
70802W        W13740  15.011   4.244  29.398 -0.0352  0.1160  0.0905
70803W        W13741  15.184   5.897  28.142  0.1382 -0.0060 -0.0592
70804W        W13742  18.076   6.286  30.751 -0.0324  0.1117 -0.2448
70805W        W13743  17.901   7.015  29.220 -0.1216  0.1513 -0.1414
70806W        W13744  18.539   5.005  31.421 -0.0703  0.1394 -0.1786
70807W        W13745  15.665   4.866  29.207  0.1262 -0.2934  0.0458
70808W        W13746  16.152   7.059  28.493 -0.0424  0.1513  0.1608
70809W        W13747  15.190   7.396  29.894  0.0411 -0.0820  0.3858
70810W        W13748  17.676   6.665  31.300  0.2143 -0.3176  0.1408
70811W        W13749  15.395   7.101  30.303 -0.1526  0.0198 -0.2153
70812W        W13750  17.685   5.781  29.634  0.1502  0.0643  0.3999
70813W        W13751  14.442   3.640  29.655  0.0752  0.1361 -0.0990
70814W        W13752  17.210   5.686  29.545  0.1330  0.0944 -0.0928
70815W        W13753  16.238   5.606  29.309 -0.0951 -0.1586 -0.4304
70816W        W13754  16.523   5.179  30.610 -0.0014 -0.2699  0.2517
70817W        W13755  16.381   4.271  27.833  0.1013  0.0775 -0.1620
70818W        W13756  17.287   5.335  27.966 -0.2143 -0.1263  0.0306
70819W        W13757  14.556   5.289  30.582 -0.0069  0.2168  0.1881
70820W        W13758  17.524   5.835  30.519 -0.0453  0.2985  0.3207
70821W        W13759  16.431   4.892   0.053  0.1854  0.1473 -0.0120
70822W        W13760  17.670   5.339  30.565  0.0729  0.2407 -0.0578
70823W        W13761  15.014   5.397   1.720 -0.0658  0.0654 -0.0739
70824W        W13762  15.602   7.057   1.054  0.0431 -0.0325  0.3031
70825W        W13763  15.989   6.933  31.912  0.0580  0.0715 -0.0634
70826W        W13764  15.979   7.529   1.005  0.0992 -0.0172 -0.2241
70827W        W13765  16.561   6.579  30.614  0.3270 -0.0029  0.1860
70828W        W13766  15.881   3.752   0.711  0.1422 -0.2474  0.2550
70829W        W13767  15.718   6.024   1.453 -0.0832 -0.0228 -0.2630
70830W        W13768  17.095   6.085  30.543 -0.2991  0.0557  0.2083
70831W        W13769  15.267   6.862   0.555 -0.2824 -0.0668  0.1674
70832W        W13770  15.219   4.205   0.082 -0.0697  0.0454 -0.0229
70833W        W13771  15.695   5.368  30.694 -0.2742 -0.0011 -0.0424
70834W        W13772  15.642   4.576   0.080  0.1782 -0.1317  0.2526
70835W        W13773  16.842   5.108  31.819  0.0241  0.0572  0.2467
70836W        W13774  15.258   6.846  31.243  0.0082 -0.0416  0.0696
70837W        W13775  16.112   5.735  31.431  0.1381  0.2278  0.3017
70838W        W13776  18.578   6.089  30.448 -0.0709 -0.0848  0.0262
70839W        W13777  13.738   4.154  31.091 -0.1321  0.2479 -0.0270
70840W        W13778  14.988   4.611  31.324  0.1369 -0.0676 -0.0249
70841W        W13779  16.236   4.270  31.443  0.0607 -0.1867 -0.0966
70842W        W13780  13.135   6.408   0.139 -0.2901 -0.1618 -0.0613
70843W        W13781  16.718   5.660  30.696 -0.1613  0.1761 -0.2350
70844W        W13782  17.346   2.925   1.203  0.1183 -0.0582  0.1622
70845W        W13783  17.808   3.432  31.662 -0.3161  0.0458 -0.1463
70846W        W13784  16.058   2.551  30.681 -0.0980 -0.0874  0.0656
70847W        W13785  16.831   4.877   0.317  0.0595  0.2004  0.1331
70848W        W13786  15.055   6.466  31.430 -0.3092  0.0482 -0.0284
70849W        W13787  15.411   3.595   0.010 -0.0420 -0.1498 -0.1473
70850W        W13788  15.534   5.226  30.189  0.0709 -0.1743 -0.2821
70851W        W13789  14.788   7.374   0.588  0.1972  0.2597 -0.0638
70852W        W13790  16.273   3.353  31.853  0.0484  0.0487  0.0239
70853W        W13791  19.465   5.891  31.653 -0.0259 -0.2554  0.0701
70854W        W13792  17.684   4.303   0.733 -0.1193 -0.0965 -0.0985
70855W        W13793  13.129   6.656  31.543  0.3642 -0.1028 -0.1469
70856W        W13794  17.595   5.244   0.029  0.1326 -0.0527  0.1846
70857W        W13795  15.290   6.132   1.045 -0.2790  0.1652  0.2655
70858W        W13796  16.526   6.081  30.496 -0.0170 -0.0277  0.2481
70859W        W13797  15.783   6.071  31.630  0.2643  0.0679 -0.2554
70860W        W13798  15.820   5.546   1.135 -0.0331  0.0148  0.3983
70861W        W13799  18.245   4.102   0.879 -0.2267 -0.1308 -0.1638
70862W        W13800  17.408   3.694  31.174  0.2345 -0.1560 -0.0021
70863W        W13801  15.837   4.284   0.384  0.2584  0.0562 -0.0897
70864W        W13802  15.380   8.622   1.033 -0.1007 -0.1806  0.0812
70865W        W13803  14.651   6.120  31.501 -0.1597  0.0457  0.0884
70866W        W13804  14.791   5.391  31.063  0.1696  0.0296 -0.0808
70867W        W13805  16.437   2.775  30.522 -0.2595 -0.1356  0.0284
70868W        W13806  15.365   6.053  31.295  0.0126  0.2622  0.2160
70869W        W13807  18.555   6.530  31.626  0.3773  0.0462  0.1230
70870W        W13808  13.090   6.075  30.752 -0.0449  0.1432  0.0116
70871W        W13809  19.312   6.026  30.015  0.0107 -0.0189  0.1259
70872W        W13810  17.723   2.815  30.826 -0.2884 -0.0724 -0.3212
70873W        W13811  16.675   5.638   0.774 -0.3893  0.3976  0.0015
70874W        W13812  16.124   6.538  31.540  0.1082 -0.2402 -0.1068
70875W        W13813  16.477   4.426   1.188  0.1627 -0.2275  0.3750
70876W        W13814  15.901   5.175   0.048 -0.0118 -0.3537 -0.3470
70877W        W13815  18.147   5.246  31.032 -0.3658  0.3165 -0.0704
70878W        W13816  15.735   7.655  31.604  0.0954 -0.1352 -0.1710
70879W        W13817  15.862   6.127   1.026  0.1464 -0.0765 -0.0401
70880W        W13818  16.031   3.201  31.419 -0.1575  0.0718  0.0926
70881W        W13819  16.694   5.398   0.194 -0.1926 -0.0347 -0.1955
70882W        W13820  16.579   6.029   0.457  0.2245  0.0002 -0.2655
70883W        W13821  15.767   6.474   0.030  0.0942  0.0333 -0.2751
70884W        W13822  13.589   3.718  30.254  0.0005  0.0247 -0.0270
70885W        W13823  16.252   6.725   1.104 -0.3582  0.2402  0.2055
70886W        W13824  18.394   5.643   0.522  0.2359 -0.1557 -0.4670
70887W        W13825  17.732   5.846  31.000 -0.1518 -0.1850  0.0769
70888W        W13826  15.417   9.036  18.618  0.1320  0.1443  0.1112
70889W        W13827  15.885   6.895  16.388 -0.4511  0.1355  0.1035
70890W        W13828  17.807   8.054  17.114  0.0063  0.0011  0.1442
70891W        W13829  17.802   7.957  15.470 -0.3656 -0.0798 -0.2129
70892W        W13830  15.219   8.487  17.033 -0.0292  0.2748 -0.1716
70893W        W13831  17.040  10.546  15.661 -0.3451  0.1957  0.0486
70894W        W13832  14.365   5.122  19.052  0.0269 -0.1436 -0.0209
70895W        W13833  18.716   8.244  18.112  0.1774  0.2521 -0.0328
70896W        W13834  16.911  10.804  18.018 -0.1857  0.1106  0.0805
70897W        W13835  15.901   9.696  15.728 -0.1937 -0.2208  0.1251
70898W        W13836  15.103   6.102  18.891  0.2500  0.0442 -0.2075
70899W        W13837  16.854  10.336  18.130 -0.0934 -0.0646 -0.1309
70900W        W13838  16.808   6.128  15.942 -0.1572  0.1918  0.2629
70901W        W13839  15.145   7.241  17.423 -0.1844  0.1306 -0.0541
70902W        W13840  18.509   8.585  17.874 -0.0132  0.1051  0.0934
70903W        W13841  15.364   9.469  16.357 -0.0752  0.2828 -0.2284
70904W        W13842  15.315   6.652  18.707  0.2574  0.1619 -0.0067
70905W        W13843  17.415   7.613  16.871  0.0379  0.3173  0.0287
70906W        W13844  16.391   9.518  16.592  0.1807 -0.1945  0.0248
70907W        W13845  15.635   5.578  18.186 -0.0754  0.0677  0.3897
70908W        W13846  15.222   6.236  18.238  0.2693  0.1339  0.0229
70909W        W13847  15.501   9.775  15.483 -0.2717 -0.0045 -0.0137
70910W        W13848  14.962   7.791  15.378  0.2177 -0.1355  0.2464
70911W        W13849  15.080   8.528  16.534  0.1701 -0.0955  0.3327
70912W        W13850  14.657   8.528  17.762 -0.0696 -0.6597 -0.0393
70913W        W13851  17.321   7.378  19.661 -0.1266  0.2655 -0.0764
70914W        W13852  17.329   8.273  16.827  0.2250 -0.0741  0.0947
70915W        W13853  16.314  10.570  16.247 -0.1074  0.3510  0.0822
70916W        W13854  16.422  10.668  18.115 -0.0472 -0.1311 -0.4964
70917W        W13855  18.144   7.343  17.843 -0.2828 -0.0549  0.2609
70918W        W13856  14.190   8.709  17.697 -0.0990  0.2270 -0.0429
70919W        W13857  12.077   9.145  17.755 -0.0150  0.0506  0.0022
70920W        W13858  14.913   9.720  18.372 -0.2297  0.0308  0.2309
70921W        W13859  17.705   8.939  16.354  0.0571  0.2343 -0.1860
70922W        W13860  16.964   8.848  19.696  0.0955  0.3007 -0.1917
70923W        W13861  15.278  10.095  18.534  0.2557 -0.0610 -0.1060
70924W        W13862  15.691   9.265  16.091  0.1554  0.1147  0.1193
70925W        W13863  16.121  10.518  19.553  0.1377 -0.3241  0.1566
70926W        W13864  15.952   8.900  19.543  0.0153 -0.1248 -0.1045
70927W        W13865  17.264   7.610  18.281  0.0298  0.1610 -0.0338
70928W        W13866  16.512   8.155  17.843 -0.3462  0.0382 -0.0786
70929W        W13867  15.569   9.877  16.014  0.1646  0.3254  0.2599
70930W        W13868  16.683   9.913  17.438  0.0038 -0.2252  0.1821
70931W        W13869  15.846   9.620  20.607 -0.0557 -0.2208  0.1357
70932W        W13870  14.453   9.719  18.694 -0.4657 -0.2302  0.1659
70933W        W13871  18.472   6.197  20.038  0.1679 -0.2630  0.1851
70934W        W13872  15.051   9.869  15.949 -0.1759  0.1439  0.0376
70935W        W13873  16.830   8.351  16.076 -0.0192 -0.1982  0.1780
70936W        W13874  16.459   6.643  15.474  0.2786 -0.1222 -0.1741
70937W        W13875  16.696   7.871  16.437  0.1409 -0.1428  0.2395
70938W        W13876  15.159   6.310  16.648 -0.3560 -0.1964  0.4359
70939W        W13877  14.517   8.907  19.956  0.0495 -0.0419 -0.3792
70940W        W13878  14.724   7.498  19.197 -0.1970 -0.3205  0.2937
70941W        W13879  17.074  11.242  19.812 -0.0515 -0.2248 -0.1776
70942W        W13880  16.605   9.001  15.830  0.1416 -0.1895  0.1160
70943W        W13881  17.239   8.222  18.215  0.0941 -0.0458 -0.0243
70944W        W13882  15.063   8.533  18.025 -0.5258  0.1357 -0.2818
70945W        W13883  13.896   8.517  18.167  0.3521  0.1243  0.2772
70946W        W13884  18.257  10.006  15.454 -0.0656  0.0227 -0.0387
70947W        W13885  17.509  10.003  17.118 -0.2879 -0.1885 -0.1459
70948W        W13886  16.808  10.122  15.925 -0.0014 -0.0707 -0.0183
70949W        W13887  14.322   9.197  16.084  0.1295 -0.0579 -0.2370
70950W        W13888  15.142   8.711  19.023  0.1468  0.3793 -0.2479
70951W        W13889  13.724   8.438  19.619  0.4420 -0.1090 -0.2022
70952W        W13890  15.893   6.271  15.993  0.0345  0.0542 -0.0258
70953W        W13891  17.012   9.146  20.995 -0.3385 -0.0803 -0.1524
70954W        W13892  14.885  11.207  18.690 -0.1902  0.1231 -0.1582
70955W        W13893  18.092   7.618  18.309  0.0048  0.1013  0.0226
70956W        W13894  17.476   8.272  17.812 -0.1309 -0.4038  0.0336
70957W        W13895  16.968   8.416  17.605  0.1932  0.1146 -0.0509
70958W        W13896  16.065   9.438  17.067 -0.0505 -0.1737 -0.0567
70959W        W13897  17.663   7.359  18.304 -0.1976 -0.1478  0.2325
70960W        W13898  18.092   6.989  17.411  0.2020  0.0058  0.1612
70961W        W13899  14.196   9.541  16.457 -0.1881  0.2072 -0.2713
70962W        W13900  16.361   8.473  16.416 -0.3925  0.0619  0.0474
70963W        W13901  19.147   8.555  18.093 -0.1360  0.0058 -0.0908
70964W        W13902  17.472   8.744  15.543 -0.0113  0.1331  0.3264
70965W        W13903  15.258  10.248  17.444 -0.2418  0.1954  0.4276
70966W        W13904  15.702   7.991  18.068  0.3405 -0.1155 -0.1525
70967W        W13905  17.237   9.192  18.110  0.0890 -0.0060 -0.2227
70968W        W13906  13.908   8.922  16.131 -0.1657 -0.1394  0.3066
70969W        W13907  13.249   8.265  17.408 -0.0897  0.1234  0.4691
70970W        W13908  14.433  10.766  16.754 -0.3433  0.0027 -0.1560
70971W        W13909  15.096   5.578  19.647  0.1595  0.0790  0.0342
70972W        W13910  16.632   9.741  18.803 -0.2166 -0.0531  0.1063
70973W        W13911  17.332   7.070  16.675 -0.0689 -0.2510  0.2602
70974W        W13912  13.678   6.256  18.043 -0.3214  0.0455 -0.3559
70975W        W13913  18.667   6.895  16.786 -0.0788  0.0025  0.0998
70976W        W13914  15.943   8.658  16.761  0.2974 -0.1730 -0.1497
70977W        W13915  16.940   9.617  16.637  0.0538  0.1254  0.2928
70978W        W13916  17.927   8.449  15.506  0.1633  0.2601 -0.2643
70979W        W13917  15.651   9.274  15.578 -0.1161  0.1027  0.0536
70980W        W13918  15.127   8.187  17.484 -0.1528  0.1520  0.1014
70981W        W13919  15.498   8.257  16.637 -0.0545 -0.1577  0.0008
70982W        W13920  15.405   6.521  19.715 -0.0434 -0.1525  0.3374
70983W        W13921  15.068   7.982  16.265  0.1394 -0.1996  0.4374
70984W        W13922  16.827   8.492  18.068 -0.2851  0.0730 -0.2252
70985W        W13923  14.988   6.663  16.937 -0.1023 -0.0440  0.2994
70986W        W13924  15.521   7.417  17.130  0.3628 -0.0179 -0.1244
70987W        W13925  15.796   8.988  17.105 -0.2682 -0.2110 -0.2448
70988W        W13926  14.824  10.154  18.725  0.1586  0.1635 -0.0582
70989W        W13927  17.063   7.181  19.090  0.1666  0.1425 -0.0692
70990W        W13928  16.275  11.950  16.621 -0.2376 -0.0925 -0.4086
70991W        W13929  18.075   9.651  17.937  0.0222 -0.0547  0.4743
70992W        W13930  16.783  10.224  16.387 -0.0578 -0.0662  0.1360
70993W        W13931  15.325   7.476  19.220 -0.0771 -0.2239 -0.2024
70994W        W13932  15.981   8.151  16.756  0.1629 -0.1093  0.1578
70995W        W13933  15.484   9.856  17.634  0.2583 -0.0158  0.2229
70996W        W13934  16.487   9.531  17.738  0.2074  0.0746 -0.1696
70997W        W13935  14.467   7.164  17.651  0.1402  0.3587 -0.2769
70998W        W13936  17.969  10.457  17.894  0.1968  0.0137 -0.0129
70999W        W13937  16.919   8.320  16.565 -0.0434  0.2461 -0.2982
71000W        W13938  14.441   9.474  19.096 -0.0399 -0.0575  0.3968
71001W        W13939  18.603   6.691  20.023 -0.2402  0.0974 -0.0884
71002W        W13940  18.534   7.534  19.298 -0.2745  0.2566  0.0729
71003W        W13941  14.998   7.629  17.765 -0.0758 -0.0218  0.3746
71004W        W13942  15.947   6.638  15.651  0.1780  0.0957 -0.1985
71005W        W13943  18.073  10.138  16.962  0.1980  0.1406  0.0949
71006W        W13944  15.509  10.041  16.578 -0.1188 -0.1236  0.1964
71007W        W13945  14.647   9.839  16.311 -0.0810 -0.0823  0.0256
71008W        W13946  16.801   8.947  18.394 -0.1367  0.2036 -0.1288
71009W        W13947  17.724   8.453  18.290  0.2548  0.5633 -0.2002
71010W        W13948  13.981   8.163  20.554  0.1049 -0.1161  0.1583
71011W        W13949  15.958   8.191  17.504  0.1435 -0.0201  0.3001
71012W        W13950  15.266   9.016  15.532  0.2535  0.3689 -0.2730
71013W        W13951  14.558   8.691  19.356 -0.1250 -0.0949 -0.3141
71014W        W13952  16.802   6.828  16.470  0.2240  0.0184 -0.2099
71015W        W13953  18.111   7.629  16.191  0.0375  0.0249  0.0262
71016W        W13954  15.938   8.756  20.049 -0.1074  0.0748  0.1531
71017W        W13955  17.612   9.059  17.453  0.3042 -0.1827 -0.1822
71018W        W13956  17.617   6.153  16.184  0.0611  0.0052 -0.0101
71019W        W13957  16.303   7.134  16.427 -0.2265  0.0938  0.0282
71020W        W13958  15.449   8.954  19.413  0.1138 -0.1231  0.3144
71021W        W13959  16.204   9.128  17.500  0.2068 -0.2812  0.3857
71022W        W13960  16.454   8.669  17.654 -0.1731 -0.1349 -0.1179
71023W        W13961  15.997   7.822  15.929 -0.1361  0.2948 -0.0301
71024W        W13962  17.511   9.216  16.801  0.4433  0.1233  0.0911
71025W        W13963  13.799   8.078  19.226  0.0193 -0.2518 -0.1232
71026W        W13964  17.781   7.902  20.053  0.0991  0.1172 -0.2425
71027W        W13965  17.250   8.818  17.767  0.0923  0.0459 -0.0088
71028W        W13966  15.719   6.574  18.320 -0.1491  0.3092 -0.1553
71029W        W13967  15.611   9.452  17.331 -0.0303 -0.2835  0.0604
71030W        W13968  17.121   6.932  17.794 -0.1379  0.2353  0.1947
71031W        W13969  15.748  10.227  15.263 -0.0483  0.0688  0.0239
71032W        W13970  17.668   7.116  17.835 -0.1523  0.0910 -0.0754
71033W        W13971  17.057   6.568  17.435  0.2076 -0.1018  0.0221
71034W        W13972  15.622   6.267  18.917  0.3254 -0.0669  0.0658
71035W        W13973  17.696   7.782  19.505  0.3014  0.1254 -0.2500
71036W        W13974  17.328   8.657  16.481  0.1066 -0.2508 -0.3019
71037W        W13975  18.593   8.154  17.602 -0.1893 -0.1763  0.3798
71038W        W13976  16.183   9.458  16.168  0.0432 -0.1210 -0.1297
71039W        W13977  14.645   8.748  18.827  0.1998 -0.2262 -0.2393
71040W        W13978  15.359   6.988  19.619 -0.0286  0.0935 -0.0056
71041W        W13979  14.918   9.202  18.367 -0.0632 -0.1840  0.3141
71042W        W13980  17.847   9.049  19.031 -0.1069 -0.1168 -0.0214
71043W        W13981  16.478   8.081  16.813  0.1161 -0.1245  0.2493
71044W        W13982  14.441   7.132  19.029 -0.1418 -0.0872  0.1262
71045W        W13983  16.844   7.341  16.075 -0.1668 -0.3168 -0.0909
71046W        W13984  16.171  10.149  16.509 -0.1204  0.3273  0.1326
71047W        W13985  14.799   9.315  16.251  0.1464  0.2751 -0.1875
71048W        W13986  17.476   6.211  18.313 -0.1846 -0.0155 -0.0335
71049W        W13987  16.285  10.640  18.593 -0.1345 -0.1536 -0.1613
71050W        W13988  15.043  11.139  16.347  0.0718  0.3908  0.0625
71051W        W13989  16.798   9.464  18.271 -0.1709 -0.3178  0.0549
71052W        W13990  15.540   9.847  18.166  0.1087 -0.0912  0.0282
71053W        W13991  16.643   6.960  17.538  0.1650 -0.1545  0.1546
71054W        W13992  14.391  11.247  15.840 -0.2088  0.1973  0.2065
71055W        W13993  16.831   8.195  15.577  0.0265  0.1472 -0.0992
71056W        W13994  14.615   7.260  16.372  0.2833  0.2382 -0.1357
71057W        W13995  18.418   6.594  17.143  0.0042  0.1979  0.1519
71058W        W13996  17.478   9.596  15.759  0.0601  0.0375 -0.1063
71059W        W13997  14.542   6.746  19.959  0.2628 -0.1183 -0.1846
71060W        W13998  17.214   7.123  18.236  0.0443 -0.1444 -0.1649
71061W        W13999  14.234   8.778  18.475 -0.1749 -0.2404  0.0388
71062W        W14000  16.832   8.460  19.231  0.1171 -0.0373 -0.1830
71063W        W14001  16.806   7.347  17.742  0.0555 -0.2271  0.2494
71064W        W14002  16.982   9.444  17.616 -0.2305  0.0142  0.1094
71065W        W14003  15.288   8.971  20.463 -0.0512 -0.1215  0.0567
71066W        W14004  14.208   8.110  16.406  0.5357 -0.3051 -0.0982
71067W        W14005  17.693   7.981  18.997 -0.1332  0.0235 -0.0939
71068W        W14006  16.148   7.811  16.399 -0.0556  0.2110 -0.2998
71069W        W14007  14.434   9.220  18.619  0.3376  0.2229 -0.0965
71070W        W14008  17.450  10.029  19.886 -0.0099  0.2077  0.0386
71071W        W14009  15.559   7.743  16.613  0.1157 -0.0035  0.4449
71072W        W14010  15.553   8.417  17.687  0.2974 -0.1933 -0.0261
71073W        W14011  15.550   5.419  19.908  0.1097 -0.0695  0.2533
71074W        W14012  18.809   8.175  19.112 -0.1890 -0.1981 -0.0667
71075W        W14013  15.561   7.493  18.739 -0.1037 -0.3436 -0.0825
71076W        W14014  15.919   7.377  16.750 -0.2070 -0.2274 -0.1984
71077W        W14015  16.354   7.321  18.030 -0.0989  0.1913  0.2225
71078W        W14016  17.468   9.282  18.651  0.0014  0.1106 -0.1099
71079W        W14017  17.325   7.910  19.754  0.2485 -0.1054  0.1284
71080W        W14018  16.153   9.652  18.999  0.0199  0.1819 -0.4296
71081W        W14019  16.998   6.104  18.105  0.0957 -0.0464 -0.0440
71082W        W14020  17.972   9.897  16.362 -0.0310 -0.1389  0.3169
71083W        W14021  17.267   8.223  19.260 -0.0525  0.0054  0.1355
71084W        W14022  15.226   9.057  17.134  0.2383 -0.0005  0.1083
71085W        W14023  14.892   8.802  16.900  0.0776 -0.1958  0.0629
71086W        W14024  16.320   8.937  16.594  0.0702  0.1282  0.0324
71087W        W14025  15.198   6.709  18.211  0.3858  0.0389 -0.4206
71088W        W14026  15.361   8.032  18.476  0.0169 -0.1501  0.1547
71089W        W14027  15.410   9.017  17.608 -0.4440 -0.2967 -0.0257
71090W        W14028  14.185  10.895  18.519 -0.1379 -0.1382  0.0980
71091W        W14029  16.314   8.018  15.495  0.0703  0.0093  0.1084
71092W        W14030  16.621   9.200  16.225  0.1642 -0.0669  0.0734
71093W        W14031  16.489   7.136  16.999 -0.1176 -0.0638  0.0592
71094W        W14032  18.225   5.939  18.617  0.2342 -0.1252  0.0994
71095W        W14033  16.933   8.673  15.525  0.0472 -0.1431  0.2202
71096W        W14034  16.642   6.683  19.754 -0.0673  0.1298  0.1815
71097W        W14035  15.924   5.763  19.034 -0.0353 -0.0396 -0.3175
71098W        W14036  17.097   8.731  16.861 -0.0480 -0.2376  0.1283
71099W        W14037  15.059   8.284  18.758  0.0422 -0.0204 -0.0566
71100W        W14038  17.109  11.162  19.203  0.0454  0.3618  0.0068
71101W        W14039  13.160   9.125  19.770 -0.0845  0.0858 -0.0066
71102W        W14040  17.001   7.378  16.944 -0.0610  0.2951 -0.0263
71103W        W14041  15.264   7.447  16.121  0.2605  0.1212  0.1823
71104W        W14042  16.218   9.103  19.152  0.0868  0.0080  0.3308
71105W        W14043  18.937   8.356  18.648  0.2270 -0.0569 -0.2557
71106W        W14044  16.816   9.056  17.900  0.0000 -0.1913  0.1521
71107W        W14045  18.534   7.222  17.468  0.1561 -0.0828  0.1400
71108W        W14046  16.041   8.508  18.717 -0.0635  0.0267 -0.0374
71109W        W14047  17.760   8.036  16.631  0.0271  0.0481 -0.0067
71110W        W14048  16.955   7.864  16.821  0.1605  0.4774 -0.2144
71111W        W14049  15.523   8.582  18.245 -0.1116  0.1165 -0.2337
71112W        W14050  15.915   6.813  18.729 -0.0521 -0.1318 -0.3340
71113W        W14051  17.514   9.569  16.411 -0.0795 -0.0898 -0.3544
71114W        W14052  18.330   7.258  18.932 -0.1029 -0.1895  0.1769
71115W        W14053  16.767   7.563  18.289 -0.1265 -0.3271  0.1049
71116W        W14054  15.512   7.029  18.446 -0.2304  0.1629  0.2163
71117W        W14055  14.119   9.364  19.888  0.1318 -0.2784  0.0098
71118W        W14056  15.587   7.057  21.380  0.3235  0.2179 -0.1209
71119W        W14057  17.726  10.243  19.525  0.0515 -0.2092 -0.1488
71120W        W14058  17.382   7.649  15.513  0.1037 -0.3234 -0.0264
71121W        W14059  19.247   6.795  17.510 -0.2382 -0.0485 -0.1817
71122W        W14060  17.437   8.331  18.708 -0.0782 -0.3552  0.1210
71123W        W14061  17.230   8.065  16.303 -0.0257  0.0980 -0.0214
71124W        W14062  14.593   7.477  18.643  0.5192  0.0509 -0.1611
71125W        W14063  19.285   7.980  18.814 -0.1862  0.0631  0.0568
71126W        W14064  15.846   7.423  16.232  0.0466 -0.1497 -0.0806
71127W        W14065  15.003   7.050  19.285 -0.0227 -0.1185 -0.2663
71128W        W14066  16.259   8.852  16.139  0.2187  0.1592  0.0581
71129W        W14067  16.989   7.922  17.949  0.0778 -0.0560 -0.1182
71130W        W14068  16.395   8.099  15.994 -0.0459  0.2117  0.1335
71131W        W14069  15.554   7.850  17.626  0.1757  0.1883  0.1873
71132W        W14070  15.376   9.543  18.629  0.0046 -0.2569  0.1037
71133W        W14071  15.765   8.783  16.236  0.1012  0.2479 -0.1865
71134W        W14072  15.442   9.056  16.683 -0.2261  0.1584 -0.1985
71135W        W14073  16.844  10.855  18.581  0.2215  0.3300  0.0212
71136W        W14074  19.293   8.492  19.051  0.2214  0.0531  0.1293
71137W        W14075  16.115   6.435  16.390  0.2162 -0.0734  0.2257
71138W        W14076  18.185   5.959  19.157 -0.0921  0.0152  0.2324
71139W        W14077  15.289   8.973  16.231 -0.3774  0.3345 -0.1274
71140W        W14078  16.131   6.751  16.855 -0.1825 -0.1714  0.3138
71141W        W14079  16.810   9.452  19.258 -0.1341 -0.2958  0.0552
71142W        W14080  13.964   9.338  19.370 -0.1327  0.0353  0.0797
71143W        W14081  16.750  10.401  17.641  0.1353  0.0891 -0.3093
71144W        W14082  16.103   7.757  17.803 -0.1586 -0.0468  0.1521
71145W        W14083  16.387   7.568  16.821  0.1541 -0.1480  0.3450
71146W        W14084  15.054   7.780  18.900  0.0660  0.4682 -0.3881
71147W        W14085  18.750   7.244  17.929 -0.0835 -0.0551 -0.0985
71148W        W14086  16.505   9.868  18.328 -0.3573  0.3823 -0.2506
71149W        W14087  16.524   9.167  19.599 -0.3307 -0.2068  0.0347
71150W        W14088  17.996   9.269  19.426  0.0122 -0.2234 -0.4623
71151W        W14089  16.522   9.575  17.126 -0.0112 -0.0737  0.1067
71152W        W14090  15.130   9.531  17.067  0.1058  0.4195  0.3019
71153W        W14091  14.713   7.936  19.540  0.0525 -0.1283 -0.1629
71154W        W14092  16.278   8.527  19.157  0.1469  0.0906 -0.2361
71155W        W14093  16.511   8.838  18.776 -0.0477  0.1236  0.0321
71156W        W14094  15.376   6.327  17.062  0.0838 -0.0442  0.2676
71157W        W14095  15.333  10.249  15.718  0.0001  0.0951  0.0271
71158W        W14096  15.726   9.952  18.690  0.0459 -0.1898  0.2418
71159W        W14097  15.042   8.727  18.501  0.0036  0.0948 -0.2402
71160W        W14098  16.042  10.717  17.185  0.1980 -0.1377 -0.0217
71161W        W14099  17.095   9.220  16.406  0.0909  0.0432 -0.1009
71162W        W14100  17.834   8.427  16.302 -0.2612  0.0608  0.0068
71163W        W14101  17.321   9.798  17.562 -0.0929 -0.1230  0.0111
71164W        W14102  16.249   6.911  15.932  0.0452 -0.1713  0.0263
71165W        W14103  15.663  10.412  16.935 -0.2978  0.1195 -0.0645
71166W        W14104  14.481  10.326  16.336  0.1807 -0.1299 -0.0271
71167W        W14105  16.541  11.203  16.210 -0.0119  0.2396  0.1398
71168W        W14106  16.109   9.911  16.938 -0.0438  0.0466  0.1276
71169W        W14107  18.068   8.100  19.376  0.1553  0.0486 -0.0484
71170W        W14108  16.743   6.361  16.351 -0.0844 -0.3179  0.1304
71171W        W14109  17.734   8.979  18.159 -0.2678 -0.1201 -0.0682
71172W        W14110  17.216   7.570  16.399 -0.0503 -0.0920  0.0693
71173W        W14111  15.901  10.387  20.010  0.4810  0.0177  0.0949
71174W        W14112  14.825   7.867  18.359  0.5883  0.0552 -0.1484
71175W        W14113  14.921   6.895  16.447 -0.2868  0.1215 -0.0931
71176W        W14114  15.967   8.134  19.096  0.1584  0.2260  0.5099
71177W        W14115  18.688   5.859  19.385 -0.1352  0.3543 -0.3445
71178W        W14116  13.956   9.982  18.629 -0.1036  0.1357  0.0637
71179W        W14117  17.041  11.033  15.314 -0.1646  0.1122  0.0704
71180W        W14118  15.009   8.714  15.882  0.3008  0.0096 -0.1149
71181W        W14119  15.764   7.453  18.280 -0.1510 -0.1208  0.3106
71182W        W14120  16.639   6.935  19.316  0.4667 -0.0243 -0.5327
71183W        W14121  15.864   9.726  16.402 -0.1593  0.3298 -0.1609
71184W        W14122  16.242   8.443  17.166 -0.1248  0.1874  0.1187
71185W        W14123  15.456  10.430  16.167  0.5208 -0.1659  0.1960
71186W        W14124  16.122   9.803  17.510  0.1485 -0.0227 -0.0688
71187W        W14125  16.018  10.585  19.087  0.0728 -0.0558 -0.1409
71188W        W14126  15.138   7.410  15.607 -0.2416  0.1101  0.0322
71189W        W14127  19.706   7.517  18.172 -0.1870 -0.0202  0.1398
71190W        W14128  15.927   7.008  18.159 -0.0295  0.1002  0.0389
71191W        W14129  17.363   7.083  18.682 -0.0987  0.1665  0.4664
71192W        W14130  14.626   7.608  17.383 -0.0483  0.0597  0.0803
71193W        W14131  17.097   7.809  15.123  0.0769  0.1589  0.1102
71194W        W14132  16.892   9.845  17.954 -0.0208  0.2134 -0.1051
71195W        W14133  14.099   7.545  18.918 -0.1068  0.1122 -0.0148
71196W        W14134  16.421   8.535  15.722 -0.0067  0.0614 -0.1851
71197W        W14135  18.187   8.966  18.698 -0.2181  0.1220  0.1288
71198W        W14136  16.592   8.618  16.876 -0.0857  0.1078  0.0900
71199W        W14137  17.336   9.208  19.174 -0.1493 -0.1927 -0.0775
71200W        W14138  15.436   7.412  17.859  0.0333 -0.3595  0.0727
71201W        W14139  17.073   7.793  15.916  0.0056  0.3205  0.1716
71202W        W14140  16.030   8.468  17.940 -0.1163 -0.2556 -0.0684
71203W        W14141  16.503   8.208  18.808  0.0944 -0.3369  0.1638
71204W        W14142  18.411   9.537  18.289  0.0407  0.4861 -0.3145
71205W        W14143  14.065   6.807  15.839 -0.0796  0.3180 -0.0280
71206W        W14144  16.356  10.325  17.210  0.1519 -0.4932 -0.1787
71207W        W14145  18.416   7.953  18.933 -0.0107  0.1818  0.2310
71208W        W14146  15.827  10.248  15.737  0.1327  0.1269 -0.0020
71209W        W14147  16.796   8.800  17.265  0.1935  0.1137 -0.2228
71210W        W14148  16.422  10.088  17.907 -0.0245 -0.1626  0.2591
71211W        W14149  13.644   7.599  17.555 -0.0069  0.0921 -0.1847
71212W        W14150  18.095   8.112  17.565  0.3519 -0.0469 -0.2070
71213W        W14151  18.640   9.980  17.136  0.5320 -0.0320 -0.1328
71214W        W14152  17.105   7.118  17.337 -0.3327 -0.2053 -0.0123
71215W        W14153  15.696   8.391  17.113 -0.1364 -0.0609 -0.0822
71216W        W14154  15.023   9.371  17.515  0.0039  0.1382 -0.0275
71217W        W14155  18.326   6.419  19.017 -0.0110 -0.0047  0.0850
71218W        W14156  16.339   7.422  17.418 -0.4703 -0.2463 -0.4836
71219W        W14157  16.027  11.141  16.164  0.5735 -0.3353  0.1212
71220W        W14158  17.202   9.095  20.059  0.1822  0.0360 -0.2913
71221W        W14159  17.720   9.551  19.111 -0.0331  0.0443 -0.0028
71222W        W14160  16.688  10.400  19.705  0.0714 -0.0139 -0.3141
71223W        W14161  14.254   8.496  15.883 -0.3338  0.0928  0.0045
71224W        W14162  16.302   9.592  19.873 -0.1110  0.0156  0.0913
71225W        W14163  15.962   9.036  18.367 -0.1089  0.3326 -0.1948
71226W        W14164  16.329  10.535  16.754 -0.2053  0.0793  0.4015
71227W        W14165  18.096  10.865  18.261 -0.1351  0.6148  0.2225
71228W        W14166  15.470   7.978  17.081  0.1034 -0.2218  0.0836
71229W        W14167  17.917   9.848  15.863  0.2209 -0.0449  0.0454
71230W        W14168  16.235   6.840  17.778  0.2218  0.1984 -0.4018
71231W        W14169  17.284   7.138  16.162 -0.0117  0.0872  0.3085
71232W        W14170  16.739   6.750  15.993 -0.2162  0.3330 -0.0507
71233W        W14171  14.705   8.374  18.372  0.2767 -0.1745  0.0280
71234W        W14172  13.473   8.151  15.977  0.0347  0.1149 -0.0198
71235W        W14173  14.634   9.570  16.771 -0.2683  0.1104 -0.1284
71236W        W14174  16.209   8.211  18.331 -0.0377 -0.1875  0.0496
71237W        W14175  16.187   4.229  19.752  0.0175 -0.0333 -0.2971
71238W        W14176  15.603   7.197  20.011  0.0297 -0.2379 -0.4022
71239W        W14177  14.595   8.830  18.121  0.2067 -0.0253 -0.0638
71240W        W14178  15.359   6.869  16.270 -0.2598  0.3164 -0.1936
71241W        W14179  16.809   8.777  16.446 -0.0221 -0.0795 -0.1525
71242W        W14180  14.211   6.699  17.793  0.0493 -0.1427  0.0928
71243W        W14181  13.068   7.513  18.525  0.0738  0.1741 -0.3093
71244W        W14182  17.106   8.813  16.021 -0.4277 -0.1335  0.0545
71245W        W14183  15.949   9.226  16.576  0.1080 -0.0069  0.1351
71246W        W14184  15.875   7.347  17.615 -0.0805  0.2049  0.2513
71247W        W14185  17.676   8.255  19.646 -0.0784 -0.1818  0.0301
71248W        W14186  14.280  10.045  16.037 -0.2512 -0.2752  0.0638
71249W        W14187  15.499   8.631  19.878 -0.0431  0.1368  0.0774
71250W        W14188  16.521   7.294  18.875  0.3318  0.0325 -0.0750
71251W        W14189  14.554   6.967  16.799 -0.3407  0.0772  0.1784
71252W        W14190  16.284   7.720  18.400 -0.1764 -0.3117  0.1207
71253W        W14191  16.318   8.973  17.054  0.0021  0.0027  0.0676
71254W        W14192  17.211  10.027  16.701 -0.1254 -0.2589  0.0451
71255W        W14193  17.586   9.455  17.786  0.1863 -0.1858  0.0342
71256W        W14194  16.263  10.088  19.779  0.0970  0.0760 -0.0404
71257W        W14195  14.549   7.033  19.492  0.0830 -0.1115 -0.2452
71258W        W14196  17.509   9.032  15.005 -0.1474  0.1063 -0.0504
71259W        W14197  15.952   9.710  19.520  0.1872 -0.1177  0.0610
71260W        W14198  17.443   9.178  16.022 -0.1915 -0.2121  0.1737
71261W        W14199  17.514   6.753  19.251 -0.0345 -0.0445  0.2203
71262W        W14200  16.983   7.719  17.446  0.0997 -0.0015 -0.2216
71263W        W14201  14.890   6.026  17.964  0.0171  0.1997 -0.0041
71264W        W14202  16.915   8.491  18.571 -0.0996  0.8477  0.1652
71265W        W14203  17.988   8.571  17.860 -0.1292  0.0341 -0.0677
71266W        W14204  15.157   7.016  17.827  0.0297  0.3245 -0.0522
71267W        W14205  15.840   8.002  18.562 -0.0896  0.2012 -0.0361
71268W        W14206  15.029   8.666  17.416  0.5957 -0.0800 -0.2745
71269W        W14207  15.474   7.265  16.510  0.3113  0.0245 -0.1860
71270W        W14208  15.903   7.752  17.256  0.0841 -0.0401  0.2069
71271W        W14209  16.529   7.427  19.319 -0.2005 -0.2519  0.1632
71272W        W14210  17.483   9.497  17.201  0.3771 -0.1038 -0.0883
71273W        W14211  18.212   7.697  19.656 -0.0481  0.2443  0.2621
71274W        W14212  15.349   8.410  16.141  0.2100 -0.1360 -0.0297
71275W        W14213  19.074   8.581  16.808 -0.0653 -0.2942 -0.1580
71276W        W14214  17.362   8.020  17.346 -0.1320  0.0870  0.1563
71277W        W14215  17.711   8.822  19.529  0.0965  0.0962 -0.0591
71278W        W14216  16.683  10.322  18.624 -0.1140 -0.3030 -0.1955
71279W        W14217  19.414   7.767  17.865  0.6082 -0.0094  0.0270
71280W        W14218  14.721   8.273  17.163  0.0001  0.0304  0.0859
71281W        W14219  16.816   8.232  17.148  0.0316 -0.1431 -0.3625
71282W        W14220  14.659   9.711  17.881  0.3700  0.1374  0.1441
71283W        W14221  17.445   7.607  18.809  0.0943  0.0032  0.0655
71284W        W14222  16.684   6.900  18.020 -0.1091  0.1840  0.1443
71285W        W14223  18.178   7.670  15.694  0.0377  0.1407  0.0902
71286W        W14224  16.450   9.926  19.281  0.3277 -0.1353  0.0778
71287W        W14225  17.252   7.742  19.233  0.1125  0.2548  0.1794
71288W        W14226  16.254   9.134  22.177  0.0032  0.0085 -0.0069
71289W        W14227  16.649   7.514  20.589  0.0191  0.0473  0.3465
71290W        W14228  18.881   7.635  19.690 -0.1144 -0.0339 -0.3241
71291W        W14229  18.784   7.515  22.199  0.5422 -0.2847 -0.1671
71292W        W14230  13.943   7.904  21.549  0.1977 -0.0171 -0.0779
71293W        W14231  16.824   8.810  21.305 -0.1007  0.0695  0.1499
71294W        W14232  15.469   6.727  22.860  0.1684 -0.3047  0.0250
71295W        W14233  17.249   9.710  22.672 -0.0194  0.0668  0.1741
71296W        W14234  17.811  10.238  21.132 -0.1097 -0.1893  0.1643
71297W        W14235  17.100   7.977  18.617  0.1612  0.3449  0.1626
71298W        W14236  15.708   6.202  22.893 -0.0795 -0.1718 -0.1694
71299W        W14237  14.649   9.610  22.376 -0.0665 -0.0720 -0.0070
71300W        W14238  16.569   6.920  20.215  0.1741 -0.0339 -0.0736
71301W        W14239  14.715   7.678  21.984 -0.2564 -0.3735  0.2085
71302W        W14240  18.306   6.754  22.186 -0.0565 -0.3433 -0.0556
71303W        W14241  14.775   8.810  20.477 -0.0647  0.2475 -0.2812
71304W        W14242  15.713   7.948  21.827  0.2321  0.0747 -0.0996
71305W        W14243  17.698   8.037  20.562 -0.0972  0.2627 -0.2926
71306W        W14244  15.315   9.819  20.636  0.1045  0.2476  0.2139
71307W        W14245  16.332   7.754  21.207 -0.1420  0.0126 -0.3746
71308W        W14246  15.937   7.275  23.876 -0.2934 -0.1450  0.1026
71309W        W14247  15.817   9.316  19.785  0.0263 -0.1220 -0.5119
71310W        W14248  15.074   8.688  19.552 -0.3044 -0.2720  0.2069
71311W        W14249  14.025   7.927  22.510 -0.3988  0.0238  0.1762
71312W        W14250  15.282   9.015  23.335 -0.1457  0.2697  0.0943
71313W        W14251  17.088   6.875  21.753 -0.0082 -0.0400 -0.2624
71314W        W14252  17.809   9.794  21.593  0.4907  0.0433 -0.0975
71315W        W14253  14.847   9.163  20.834  0.0953  0.3708  0.1137
71316W        W14254  17.605   9.300  21.697 -0.0501 -0.0042 -0.1172
71317W        W14255  17.959   8.519  22.166 -0.3320 -0.1331 -0.3460
71318W        W14256  14.591   8.171  22.487  0.0427  0.3574  0.0808
71319W        W14257  15.276   9.250  19.023  0.0056  0.0715 -0.2352
71320W        W14258  15.305   9.376  20.974  0.0169 -0.0721 -0.0952
71321W        W14259  17.776   8.892  21.440 -0.0331  0.0244 -0.0705
71322W        W14260  17.387  10.829  22.394 -0.0187 -0.3991 -0.3346
71323W        W14261  17.489  11.700  22.194 -0.3237 -0.1255 -0.0491
71324W        W14262  14.864   9.517  19.347 -0.1197  0.0461 -0.1243
71325W        W14263  17.408  10.159  21.481 -0.0895 -0.1516 -0.1502
71326W        W14264  16.249  11.843  22.986  0.1250 -0.0491 -0.0192
71327W        W14265  16.998   7.335  21.390 -0.0882 -0.1111 -0.1887
71328W        W14266  17.552   6.936  22.668 -0.1287  0.1940 -0.3046
71329W        W14267  16.546   9.803  20.321  0.1231 -0.1035  0.0892
71330W        W14268  15.181   8.600  21.653 -0.0427 -0.0209  0.1959
71331W        W14269  16.753   7.529  22.603 -0.0853  0.0389  0.1234
71332W        W14270  14.441   8.935  20.977 -0.0919  0.2321 -0.1986
71333W        W14271  18.098   8.148  23.246  0.3452 -0.0157  0.0380
71334W        W14272  14.917   9.156  19.726  0.0268 -0.0276 -0.0122
71335W        W14273  17.624   7.276  20.180  0.1833  0.0950  0.1585
71336W        W14274  14.936   8.288  19.207 -0.0944 -0.0773  0.1341
71337W        W14275  16.962   7.535  18.741  0.1790  0.0157 -0.1438
71338W        W14276  16.602   6.618  22.516  0.1545 -0.0894  0.1119
71339W        W14277  15.211  10.381  20.594 -0.0019  0.1043  0.1127
71340W        W14278  15.063   7.882  22.402 -0.2448 -0.1674  0.3176
71341W        W14279  17.249  10.097  22.333  0.0482  0.1176  0.1914
71342W        W14280  16.965   8.044  20.684 -0.2857  0.0985 -0.0784
71343W        W14281  17.013   8.109  21.879  0.2392 -0.0316 -0.0522
71344W        W14282  14.975  10.026  22.481 -0.1484  0.0099  0.1457
71345W        W14283  15.576   7.622  22.330  0.3721  0.1098 -0.1170
71346W        W14284  16.762   8.960  19.228 -0.1655 -0.1537 -0.1268
71347W        W14285  18.726   9.266  20.662 -0.0014 -0.2691 -0.1560
71348W        W14286  16.980   8.925  20.504  0.2522  0.0139 -0.3268
71349W        W14287  15.563   8.161  20.741  0.1769 -0.0092 -0.2012
71350W        W14288  13.131   8.509  22.278  0.1254 -0.2448  0.1921
71351W        W14289  16.067   8.277  21.919  0.1267 -0.1408  0.2847
71352W        W14290  16.158   5.869  20.010 -0.0804 -0.2660 -0.0695
71353W        W14291  18.243   8.558  22.584  0.1473 -0.2691  0.2704
71354W        W14292  15.098   9.636  22.097 -0.2525 -0.2069  0.3104
71355W        W14293  18.288   7.648  21.642  0.1810 -0.0012 -0.0899
71356W        W14294  14.872   8.252  21.205  0.1151  0.1112 -0.0255
71357W        W14295  17.619  10.121  23.177  0.1851 -0.3513 -0.0810
71358W        W14296  16.755   8.151  19.722  0.0135  0.1524  0.0408
71359W        W14297  15.903   7.814  20.901 -0.1448 -0.0675  0.2628
71360W        W14298  18.040   6.402  22.863  0.1870  0.0150 -0.0060
71361W        W14299  14.511   8.000  18.734 -0.3059  0.1808 -0.1142
71362W        W14300  16.845   7.696  21.047  0.0436 -0.1038  0.1808
71363W        W14301  18.044  11.689  22.176 -0.3501 -0.0905  0.4320
71364W        W14302  17.861   7.329  18.777 -0.0781  0.3606 -0.3135
71365W        W14303  14.143  10.727  19.548 -0.0589 -0.2435 -0.2430
71366W        W14304  17.309   8.328  22.830 -0.3750 -0.1058 -0.0751
71367W        W14305  16.924   9.370  22.542 -0.1888  0.0902  0.1060
71368W        W14306  15.549  10.740  19.102 -0.0020 -0.0366  0.0371
71369W        W14307  13.997   8.916  22.243 -0.2733  0.1324  0.0704
71370W        W14308  14.763   8.306  20.231 -0.3151  0.0706 -0.2810
71371W        W14309  14.626   8.072  23.304  0.2961 -0.4060 -0.1548
71372W        W14310  14.471   9.909  21.085  0.0722 -0.1095 -0.2250
71373W        W14311  17.984   7.076  20.629  0.1466  0.2563 -0.1207
71374W        W14312  14.769   8.616  24.866 -0.0790 -0.0016  0.2487
71375W        W14313  17.386   5.887  22.745  0.2406 -0.2580  0.1942
71376W        W14314  15.416   9.093  19.965 -0.0930  0.2597 -0.0017
71377W        W14315  17.944   9.041  20.985 -0.1364  0.0117  0.0949
71378W        W14316  18.625   7.646  20.126  0.3791 -0.0340  0.0770
71379W        W14317  17.730   9.427  20.723 -0.0605  0.1545 -0.1783
71380W        W14318  12.502   9.215  21.849 -0.2689 -0.2800 -0.0632
71381W        W14319  16.908   6.857  21.286  0.0306 -0.0404 -0.2703
71382W        W14320  16.708   7.388  23.649  0.1268  0.1501  0.2635
71383W        W14321  15.153   7.563  22.812  0.1718  0.6129  0.1090
71384W        W14322  17.640   8.188  22.313 -0.0218 -0.4081  0.1362
71385W        W14323  14.283   6.488  21.214 -0.2658 -0.0813  0.1246
71386W        W14324  17.356   7.804  20.998  0.2033 -0.0339 -0.1029
71387W        W14325  15.290   9.056  21.826 -0.3565 -0.1846  0.0823
71388W        W14326  15.775   8.783  19.090  0.4047  0.2460  0.0828
71389W        W14327  17.853   7.058  22.297 -0.0685  0.2186 -0.0445
71390W        W14328  15.705   9.108  20.735  0.4573  0.2409  0.1026
71391W        W14329  17.790   9.483  22.607 -0.1134  0.0944 -0.1057
71392W        W14330  15.071   9.137  22.289  0.2162  0.1066 -0.0749
71393W        W14331  16.404   8.769  24.283 -0.2027  0.3044  0.2734
71394W        W14332  13.744   8.794  20.458  0.3609 -0.1085  0.0725
71395W        W14333  14.987   9.680  19.788 -0.2253 -0.1883  0.0456
71396W        W14334  15.799   8.489  21.514 -0.0510  0.0927 -0.0494
71397W        W14335  16.491   6.922  20.719 -0.1871  0.3426 -0.1495
71398W        W14336  16.999  10.365  20.510  0.3266 -0.1151  0.0996
71399W        W14337  16.885   8.431  20.106 -0.0303  0.3916 -0.0160
71400W        W14338  16.554  11.129  22.386 -0.0593 -0.0064  0.1624
71401W        W14339  16.359   7.517  23.926 -0.2231 -0.1300  0.2121
71402W        W14340  18.132   7.512  20.125  0.0815  0.0399  0.0645
71403W        W14341  17.969   8.535  21.186 -0.1240  0.1644 -0.1675
71404W        W14342  15.866   7.502  19.182  0.1031  0.1547 -0.2319
71405W        W14343  16.174   8.778  20.542 -0.1219 -0.1311 -0.1861
71406W        W14344  15.446  10.218  19.049 -0.0176  0.3266  0.0283
71407W        W14345  14.339   9.092  20.465 -0.0608  0.3824 -0.0101
71408W        W14346  15.231  10.709  19.545  0.1424 -0.3067  0.1906
71409W        W14347  17.838   6.240  21.482  0.0959 -0.1612  0.1906
71410W        W14348  15.064   8.954  23.817  0.1080 -0.1204 -0.2111
71411W        W14349  17.478   8.110  24.388 -0.0437  0.0527  0.1216
71412W        W14350  15.078   8.162  19.881 -0.1587  0.3561  0.0187
71413W        W14351  15.504   9.964  22.383  0.0690  0.0402  0.0589
71414W        W14352  17.484   6.452  20.070  0.2369 -0.0842  0.3535
71415W        W14353  18.843   6.313  19.689  0.2424  0.0891 -0.1713
71416W        W14354  16.756   8.975  22.255 -0.0746 -0.0380  0.2920
71417W        W14355  17.093   9.309  19.629  0.1891  0.1147 -0.0858
71418W        W14356  17.943   6.801  18.940  0.1957 -0.1609 -0.0275
71419W        W14357  16.001   6.875  19.980  0.3056 -0.2646  0.1119
71420W        W14358  12.674  10.215  22.067 -0.2585  0.2053 -0.0477
71421W        W14359  15.730   8.655  20.935 -0.1384 -0.0707  0.1799
71422W        W14360  15.577   9.458  21.933 -0.1615 -0.3135  0.2760
71423W        W14361  18.087   8.497  19.732  0.2330 -0.2069  0.1797
71424W        W14362  17.132   9.285  21.931  0.1659  0.2838 -0.1833
71425W        W14363  12.271   9.698  22.588 -0.1808 -0.0043  0.1261
71426W        W14364  16.244   9.809  22.916 -0.4024  0.3689 -0.0254
71427W        W14365  16.603   8.238  21.136  0.0429  0.5503 -0.0302
71428W        W14366  16.043   5.514  21.574  0.1654  0.0335  0.1059
71429W        W14367  15.839   7.165  19.548  0.0131 -0.0233  0.1210
71430W        W14368  18.406   7.911  20.531  0.0054  0.3679  0.2214
71431W        W14369  13.986   8.815  20.037  0.0944 -0.0762  0.1219
71432W        W14370  18.926   6.940  22.253  0.2215  0.1510 -0.1138
71433W        W14371  15.804   7.676  20.089 -0.0585 -0.0825  0.0659
71434W        W14372  16.310   6.758  24.164 -0.4124  0.1081 -0.1418
71435W        W14373  18.384   9.398  23.460  0.0759 -0.1816  0.0464
71436W        W14374  17.541   9.036  20.445 -0.1570  0.2028  0.1771
71437W        W14375  16.797   6.867  23.239 -0.1682  0.1575 -0.1051
71438W        W14376  15.752   6.691  19.349  0.0302 -0.2317 -0.0051
71439W        W14377  17.512   7.092  23.142  0.3880 -0.0268  0.2557
71440W        W14378  14.608   8.957  22.452  0.4675 -0.2095  0.0006
71441W        W14379  14.929  10.389  21.854 -0.0430  0.2308  0.2875
71442W        W14380  17.564   9.111  23.321  0.1861  0.4196 -0.1931
71443W        W14381  16.534   8.029  22.056 -0.0655 -0.0780 -0.1867
71444W        W14382  17.944   7.235  23.233 -0.1020  0.0143  0.2876
71445W        W14383  16.982   6.805  20.749  0.1002  0.0903  0.0838
71446W        W14384  14.325  10.232  19.622 -0.2471  0.0663 -0.3341
71447W        W14385  17.268   9.734  19.470  0.3600 -0.1104  0.1772
71448W        W14386  16.788   5.810  20.703  0.1011 -0.2129  0.0371
71449W        W14387  15.828   8.962  21.765  0.3599  0.2203 -0.2608
71450W        W14388  16.922   9.196  18.807 -0.2421  0.0068 -0.0847
71451W        W14389  17.801   7.879  23.562  0.0317  0.0688 -0.0680
71452W        W14390  14.863  10.424  19.809 -0.1205 -0.0999 -0.0525
71453W        W14391  17.300   7.380  22.714 -0.2199  0.3024 -0.0032
71454W        W14392  14.450  10.181  21.656  0.0716  0.0192  0.3364
71455W        W14393  15.214   7.288  20.989  0.0462 -0.1703  0.1940
71456W        W14394  15.296   7.843  20.209  0.0184  0.2871  0.1252
71457W        W14395  18.236   6.501  20.370  0.0312  0.3602  0.0855
71458W        W14396  17.682   8.501  19.100  0.3527 -0.0911 -0.0122
71459W        W14397  13.634   8.288  23.407  0.0970  0.1118 -0.1368
71460W        W14398  17.096   9.029  23.467 -0.0288  0.3098  0.0634
71461W        W14399  15.049  10.700  21.026  0.2642  0.0685 -0.0466
71462W        W14400  17.472   9.752  21.999 -0.1427 -0.0798  0.3652
71463W        W14401  17.969   6.480  19.907  0.2998  0.0126  0.0665
71464W        W14402  18.532   9.267  22.020 -0.0393 -0.0959 -0.0417
71465W        W14403  16.501   8.122  24.197  0.6652 -0.0262 -0.0530
71466W        W14404  13.710   8.859  21.074  0.1054  0.0177  0.0611
71467W        W14405  18.102   9.308  21.436  0.1605 -0.0114 -0.1246
71468W        W14406  16.111   7.743  22.225 -0.1034  0.0153  0.1223
71469W        W14407  14.786   8.255  21.888 -0.2944 -0.0253  0.2381
71470W        W14408  16.607  10.476  22.148  0.0059  0.0526 -0.2086
71471W        W14409  16.350   8.089  19.435 -0.2373 -0.2473  0.3734
71472W        W14410  15.764   9.593  21.102 -0.1239  0.1489  0.1798
71473W        W14411  15.117   7.551  25.431  0.4044  0.2751  0.1976
71474W        W14412  18.439   8.703  22.069 -0.4746  0.0543  0.1604
71475W        W14413  16.213   7.972  23.773  0.0616 -0.0803 -0.0593
71476W        W14414  16.029   7.253  20.337 -0.0229 -0.0282  0.1622
71477W        W14415  16.854   7.703  19.587  0.1420  0.0354 -0.0645
71478W        W14416  17.571   8.845  21.907 -0.0172  0.2101  0.0208
71479W        W14417  17.100   7.739  22.301  0.2082  0.2546 -0.0113
71480W        W14418  16.889   8.542  23.643  0.2274  0.0826 -0.0374
71481W        W14419  16.742   8.062  23.653 -0.0025 -0.0273  0.0440
71482W        W14420  20.158  11.092  21.419  0.1021  0.1108 -0.0494
71483W        W14421  16.806   8.137  22.439 -0.4062 -0.1051  0.0966
71484W        W14422  16.147   8.063  19.928 -0.1137 -0.0713  0.2533
71485W        W14423  12.961   9.808  20.219 -0.1650 -0.1699 -0.3914
71486W        W14424  15.768   7.974  19.540 -0.1795 -0.0460 -0.0994
71487W        W14425  18.298   7.339  22.880  0.0969  0.0141  0.1445
71488W        W14426  13.818  10.355  21.718 -0.1716  0.0443  0.0017
71489W        W14427  15.126   8.599  20.801 -0.2862 -0.0176 -0.1502
71490W        W14428  13.789   9.519  22.678 -0.0741 -0.0887 -0.1900
71491W        W14429  16.922   6.536  20.305  0.2299 -0.1689 -0.1759
71492W        W14430  15.646   8.625  20.441 -0.2454 -0.1173 -0.3613
71493W        W14431  15.430   8.894  21.326 -0.1469  0.1136  0.1296
71494W        W14432  19.752   6.153  22.117 -0.1687  0.0113  0.1939
71495W        W14433  16.803   7.886  19.062  0.2434 -0.1978 -0.2474
71496W        W14434  17.979   7.648  24.002 -0.0539  0.0765 -0.1394
71497W        W14435  16.743   6.915  22.129  0.0617  0.1156  0.1977
71498W        W14436  17.624   9.757  20.327 -0.1005  0.0874 -0.0602
71499W        W14437  14.932   8.520  23.997  0.3428  0.0039  0.1351
71500W        W14438  16.634  10.369  23.787  0.0733  0.1739  0.1235
71501W        W14439  15.350   9.517  22.544 -0.1411  0.1623 -0.0846
71502W        W14440  14.928   9.010  21.464 -0.1860 -0.0784 -0.2362
71503W        W14441  14.693   5.831  18.761  0.1097  0.0724 -0.4543
71504W        W14442  16.699   8.686  23.198  0.0290 -0.3373 -0.0002
71505W        W14443  18.520  11.138  20.563  0.0746 -0.1217 -0.0715
71506W        W14444  17.343   8.496  20.445  0.0338 -0.0477  0.1860
71507W        W14445  18.574   7.202  21.509 -0.1016 -0.0491  0.1040
71508W        W14446  14.344   9.319  22.070  0.2252  0.2784  0.1280
71509W        W14447  17.562   8.359  20.913 -0.0422 -0.1259 -0.1495
71510W        W14448  16.471   8.611  19.653  0.1205  0.3088  0.0884
71511W        W14449  15.592   8.194  20.025 -0.0136 -0.0544 -0.1954
71512W        W14450  15.317   7.826  23.878  0.2999  0.0022  0.1543
71513W        W14451  16.659   7.740  21.604  0.3932 -0.1790  0.0722
71514W        W14452  16.389   8.027  20.728  0.0239  0.0539  0.1009
71515W        W14453  17.626   6.789  23.525  0.0076 -0.0707 -0.0355
71516W        W14454  17.518   7.856  22.694  0.1789 -0.1535 -0.0652
71517W        W14455  16.898   9.050  22.899  0.0255 -0.1004 -0.0295
71518W        W14456  13.997   8.735  23.900  0.0710  0.0471 -0.1946
71519W        W14457  18.775  11.353  23.552  0.2151 -0.0232  0.1270
71520W        W14458  18.558   8.552  19.883  0.0614  0.3338 -0.2453
71521W        W14459  18.543   7.221  22.505 -0.0515  0.1388  0.1720
71522W        W14460  18.200   5.795  19.759  0.2823 -0.0248 -0.0209
71523W        W14461  16.293   7.757  18.989  0.1240 -0.0451 -0.0641
71524W        W14462  15.938   7.423  21.346  0.0154  0.0708 -0.0285
71525W        W14463  16.460   8.558  22.102 -0.7101 -0.0354  0.0422
71526W        W14464  16.138   7.628  19.623  0.2683  0.1202 -0.0793
71527W        W14465  17.799   7.337  22.756  0.0873  0.0559 -0.3168
71528W        W14466  18.143   9.251  20.555 -0.1305  0.0167 -0.1671
71529W        W14467  16.715   9.071  21.749  0.0564  0.1507 -0.1900
71530W        W14468  17.048   8.206  21.325 -0.1475  0.2801  0.0723
71531W        W14469  14.542   7.942  20.534  0.2038 -0.1316 -0.0764
71532W        W14470  14.056  10.639  22.971 -0.1378 -0.1012 -0.2037
71533W        W14471  15.502   7.558  19.692 -0.1998  0.0819 -0.0866
71534W        W14472  15.893   9.035  21.200 -0.2349  0.0965  0.1677
71535W        W14473  16.358   9.657  21.031  0.2598 -0.1630 -0.4006
71536W        W14474  16.566   9.427  23.888  0.0304  0.0131  0.1895
71537W        W14475  15.872   6.159  19.320 -0.1522 -0.0175  0.2291
71538W        W14476  19.415   8.018  22.837 -0.0500 -0.1885  0.0015
71539W        W14477  15.236   8.361  20.344  0.0240  0.4433 -0.1377
71540W        W14478  16.731   7.805  23.217  0.4204 -0.1581 -0.0920
71541W        W14479  14.943  11.204  22.186 -0.2397  0.3467  0.2283
71542W        W14480  15.342   8.874  22.795  0.1722 -0.2585  0.0036
71543W        W14481  14.400   9.667  19.578  0.0146  0.2255 -0.1552
71544W        W14482  15.993   8.135  23.131 -0.1219  0.1123  0.0110
71545W        W14483  17.713   7.655  21.491 -0.3528 -0.1614  0.0081
71546W        W14484  15.546   9.304  21.472  0.0849  0.2780 -0.1616
71547W        W14485  17.453   8.898  20.948  0.0928 -0.2238  0.2276
71548W        W14486  18.084   9.029  21.857  0.5374  0.0870 -0.1582
71549W        W14487  16.624   7.317  23.045 -0.1383 -0.2407 -0.0066
71550W        W14488  16.604  10.124  22.502 -0.0182  0.2372 -0.0072
71551W        W14489  17.486   8.278  21.850  0.0287 -0.1719  0.1939
71552W        W14490  16.283   8.771  21.606  0.2693  0.1646  0.0169
71553W        W14491  16.154   7.232  22.854 -0.1206  0.0807  0.0542
71554W        W14492  16.636   8.356  21.659 -0.3189 -0.0802 -0.0304
71555W        W14493  18.317   8.881  21.377  0.1905  0.1063 -0.1344
71556W        W14494  14.925   7.054  21.916 -0.0611 -0.0917  0.0066
71557W        W14495  17.812   8.394  20.231 -0.0337 -0.1156  0.1509
71558W        W14496  14.932   9.275  22.754 -0.1664 -0.0912 -0.1019
71559W        W14497  15.425   8.653  22.107 -0.0772  0.1083  0.0759
71560W        W14498  13.946  10.652  20.184 -0.0911 -0.0250  0.0139
71561W        W14499  16.345   8.484  20.146  0.1417 -0.2115 -0.1420
71562W        W14500  18.572   9.857  20.081 -0.4070  0.1404 -0.2406
71563W        W14501  16.834  10.890  23.667 -0.1699  0.3037 -0.2737
71564W        W14502  17.650   7.340  20.929  0.2454  0.2423 -0.1098
71565W        W14503  16.000   8.702  22.295  0.0666 -0.0070 -0.0145
71566W        W14504  14.667  10.001  20.014 -0.0748  0.1273  0.1508
71567W        W14505  16.615   8.493  20.572 -0.1830  0.0213  0.1072
71568W        W14506  16.207   7.344  20.888 -0.3280  0.0418  0.0818
71569W        W14507  18.736  11.874  23.801 -0.0906  0.0264 -0.0583
71570W        W14508  17.634   5.910  18.798 -0.1098 -0.1433 -0.2205
71571W        W14509  17.517   7.812  21.972  0.3378  0.0357 -0.5708
71572W        W14510  18.408   7.108  20.194 -0.2814 -0.0238  0.2246
71573W        W14511  17.319  11.201  21.882  0.2837  0.0119  0.2749
71574W        W14512  16.176   7.833  21.718  0.0182  0.1586  0.4008
71575W        W14513  15.554   7.042  19.014  0.1473 -0.0710 -0.0207
71576W        W14514  16.728  10.027  21.321 -0.2886  0.0451 -0.1970
71577W        W14515  18.100   6.927  23.670 -0.1650 -0.1605  0.0199
71578W        W14516  14.498  10.291  22.679 -0.2442  0.1415  0.0787
71579W        W14517  18.302   9.683  21.734  0.2234  0.3596 -0.0281
71580W        W14518  14.629   6.824  21.495 -0.0694 -0.2700  0.2433
71581W        W14519  15.187   8.001  21.598 -0.0750  0.0788 -0.1885
71582W        W14520  18.576   6.723  22.662  0.1868  0.0100  0.0737
71583W        W14521  17.222   8.741  18.941  0.0078  0.2041  0.1216
71584W        W14522  16.785   7.324  21.899  0.0029 -0.0799 -0.0194
71585W        W14523  13.717  10.371  19.784 -0.1430  0.2481  0.0479
71586W        W14524  14.210   8.342  19.593  0.4379 -0.3329  0.1669
71587W        W14525  14.957  10.440  22.914  0.0044  0.3098  0.2199
71588W        W14526  15.597   7.556  20.529 -0.0308 -0.2743 -0.1047
71589W        W14527  19.547   8.369  21.405  0.0774  0.0658  0.1127
71590W        W14528  16.429   6.794  22.925 -0.1202 -0.1203  0.0771
71591W        W14529  17.152   6.557  22.592  0.1725 -0.1377 -0.0520
71592W        W14530  15.770   8.004  21.337 -0.0286 -0.1821  0.1159
71593W        W14531  18.145   6.203  21.081  0.2396 -0.3116 -0.1754
71594W        W14532  15.695   9.171  22.373  0.0766 -0.2370 -0.1240
71595W        W14533  15.387   8.441  22.524  0.1148 -0.1950 -0.1989
71596W        W14534  15.512   8.429  19.391  0.0096  0.1350  0.1839
71597W        W14535  19.006   9.284  22.012 -0.2294 -0.1837  0.0982
71598W        W14536  15.557   7.898  18.976 -0.2658  0.1331 -0.2933
71599W        W14537  17.133  10.773  21.559  0.2009 -0.0132  0.0336
71600W        W14538  14.767   7.931  22.850  0.2664 -0.3122 -0.1765
71601W        W14539  16.164   7.056  19.141 -0.3149  0.0695  0.0652
71602W        W14540  14.508   7.669  22.493  0.0819 -0.1184  0.0172
71603W        W14541  15.044   8.469  24.456  0.1597  0.1960  0.1223
71604W        W14542  17.535   9.126  22.845 -0.0462 -0.3003 -0.1569
71605W        W14543  15.449   7.523  21.396 -0.3226  0.3187  0.0978
71606W        W14544  18.915   9.751  20.466  0.0888  0.0272  0.1677
71607W        W14545  18.018   9.247  24.052 -0.1271 -0.2470  0.1037
71608W        W14546  16.918  11.238  20.250  0.2300  0.4333 -0.0161
71609W        W14547  17.385   8.595  21.342  0.1225 -0.3165 -0.0843
71610W        W14548  16.946  10.404  21.035 -0.3261  0.0073  0.3199
71611W        W14549  14.884   8.765  23.269 -0.1310  0.1265  0.3441
71612W        W14550  16.788   8.627  22.601 -0.1850  0.3026 -0.4130
71613W        W14551  17.750  10.450  22.352 -0.0486  0.0518  0.0909
71614W        W14552  17.063   5.469  20.413 -0.1949  0.1176 -0.1020
71615W        W14553  13.673   9.033  22.619 -0.1135  0.0291  0.0614
71616W        W14554  15.353   9.427  19.506  0.0205 -0.0223 -0.2001
71617W        W14555  17.940   7.413  21.891 -0.0215 -0.2636 -0.2438
71618W        W14556  17.513   8.051  23.166  0.1003  0.0724 -0.0425
71619W        W14557  18.118   9.980  19.872  0.2108  0.1934  0.0788
71620W        W14558  17.346   6.094  22.294  0.1511  0.1029 -0.0951
71621W        W14559  16.960  10.921  22.133 -0.0022 -0.0716  0.2003
71622W        W14560  16.124  11.115  22.634  0.0267  0.3831 -0.0191
71623W        W14561  14.198   8.048  21.004 -0.1563  0.2548 -0.1297
71624W        W14562  16.534   9.571  22.313 -0.0037  0.1869 -0.0006
71625W        W14563  14.733   9.931  21.994 -0.1670 -0.1157 -0.1790
71626W        W14564  16.754  10.001  20.782  0.2088 -0.2354 -0.4836
71627W        W14565  18.795  10.858  22.632  0.0789  0.1527 -0.2055
71628W        W14566  17.161   6.949  20.021  0.0718 -0.2408 -0.2481
71629W        W14567  17.139   7.207  20.959  0.2721  0.1501  0.0937
71630W        W14568  16.985   7.180  20.432 -0.3770  0.0589  0.3614
71631W        W14569  17.407   6.920  20.443  0.0798  0.0976 -0.1874
71632W        W14570  17.479   7.178  21.340 -0.0524 -0.1519 -0.0063
71633W        W14571  15.835   8.473  22.731  0.1687 -0.1506  0.2172
71634W        W14572  13.067   8.463  18.992  0.0120  0.2403  0.1919
71635W        W14573  15.968   8.416  19.699 -0.0271  0.1029  0.0886
71636W        W14574  15.184  10.008  20.165 -0.0522  0.2554  0.2061
71637W        W14575  15.449   8.508  24.111 -0.1968  0.0476  0.2351
71638W        W14576  15.508   8.695  23.707  0.0450 -0.0057 -0.1431
71639W        W14577  15.279   8.199  22.012 -0.0603 -0.1367 -0.1066
71640W        W14578  15.239   7.923  19.431  0.1722  0.0847  0.0059
71641W        W14579  16.942  10.125  20.088 -0.2136  0.1260  0.3948
71642W        W14580  16.560   6.489  21.195  0.0245 -0.1343  0.1300
71643W        W14581  16.272   7.350  21.923 -0.0604 -0.1818  0.0258
71644W        W14582  16.584   8.894  20.175  0.0785  0.0381  0.0251
71645W        W14583  17.118   9.644  20.954  0.0514  0.0039  0.1041
71646W        W14584  15.654   5.833  21.676  0.0662 -0.0308 -0.1213
71647W        W14585  20.752  11.166  22.258  0.0312 -0.1072  0.2620
71648W        W14586  14.128   8.535  20.846  0.1812  0.0212  0.2220
71649W        W14587  16.406   8.352  22.871 -0.0271 -0.3964 -0.3178
71650W        W14588  15.964   8.534  23.585  0.0788 -0.2983 -0.1290
71651W        W14589  14.727   6.179  19.240  0.0302  0.0889  0.3878
71652W        W14590  17.231   9.562  21.567 -0.2488 -0.2191  0.1809
71653W        W14591  17.098   8.721  21.788  0.0216  0.1157 -0.2308
71654W        W14592  18.376   9.664  20.724 -0.0869 -0.0399  0.3079
71655W        W14593  16.333   8.829  22.615  0.1813 -0.1539  0.1023
71656W        W14594  16.529   9.968  22.018 -0.0761 -0.0094  0.2883
71657W        W14595  15.723   8.130  22.308 -0.3922 -0.1681 -0.0430
71658W        W14596  17.910   7.569  20.552  0.0292 -0.1438 -0.0451
71659W        W14597  15.769  10.077  20.846  0.4029  0.2459  0.1375
71660W        W14598  18.390   8.990  19.694  0.1748  0.1526  0.2638
71661W        W14599  18.091   6.103  24.732  0.2127 -0.1582 -0.1398
71662W        W14600  16.229   8.237  21.435  0.0055  0.2868 -0.0633
71663W        W14601  15.247   6.305  23.060 -0.1804  0.0412  0.0162
71664W        W14602  15.530   9.322  22.978 -0.2139  0.0885 -0.1606
71665W        W14603  19.488   9.582  21.721 -0.1423 -0.3943  0.0899
71666W        W14604  16.517   7.675  19.950  0.1060  0.5586 -0.1522
71667W        W14605  17.780   7.341  19.680 -0.1857 -0.0004  0.0738
71668W        W14606  16.237   7.704  20.375 -0.1872  0.1370  0.3296
71669W        W14607  14.371   7.591  23.766 -0.4238 -0.0492 -0.1708
71670W        W14608  18.065   7.271  21.445  0.0503  0.0218 -0.0785
71671W        W14609  17.830   8.270  22.804 -0.0919  0.0299 -0.1446
71672W        W14610  16.024   8.267  20.936 -0.1247 -0.2766  0.0099
71673W        W14611  16.721   9.565  21.823 -0.0287  0.1123 -0.2081
71674W        W14612  16.319   7.157  19.733  0.1612  0.1854 -0.0939
71675W        W14613  17.075   7.549  20.068  0.0370  0.0726 -0.0465
71676W        W14614  16.697  10.462  21.532 -0.0257  0.2118  0.1682
71677W        W14615  18.891  11.321  22.353 -0.0207 -0.3856 -0.1138
71678W        W14616  15.733  11.593  21.788  0.3413 -0.1352  0.2943
71679W        W14617  17.970   7.771  21.098 -0.0777  0.1463 -0.3343
71680W        W14618  15.459   6.014  23.424  0.1176  0.0741  0.0662
71681W        W14619  17.532   8.745  20.051 -0.3097  0.1510  0.1547
71682W        W14620  14.941   7.669  21.432 -0.5350 -0.1044  0.3386
71683W        W14621  16.404   7.206  22.394  0.0886 -0.1712 -0.3639
71684W        W14622  16.896   6.686  23.748 -0.1390 -0.0330 -0.0084
71685W        W14623  16.976   6.705  18.926  0.0142 -0.0106  0.0981
71686W        W14624  15.952  10.650  22.084  0.2514  0.0220  0.1988
71687W        W14625  17.032   8.269  23.266 -0.1845  0.1585  0.1263
71688W        W14626  14.487  11.552  26.057  0.3376 -0.1192  0.0177
71689W        W14627  14.246   8.296  23.986  0.0891 -0.1717  0.0353
71690W        W14628  18.733   8.807  22.802  0.1460 -0.1808  0.2040
71691W        W14629  17.712   9.535  24.850  0.3316 -0.0480 -0.1139
71692W        W14630  14.570   8.380  24.388  0.2737  0.1681  0.0706
71693W        W14631  17.797  10.076  25.612 -0.3791 -0.2765  0.0591
71694W        W14632  16.215   8.213  25.684 -0.2290 -0.1026 -0.1509
71695W        W14633  16.853  10.528  25.573 -0.0473  0.0928 -0.1082
71696W        W14634  17.471  10.639  24.942  0.2018  0.0233 -0.0837
71697W        W14635  16.445   9.232  23.009  0.1219  0.1020  0.0820
71698W        W14636  15.480  10.306  25.829  0.0760 -0.0371  0.4340
71699W        W14637  15.490  11.860  24.328  0.3554 -0.1197 -0.0082
71700W        W14638  16.374   7.573  25.401 -0.1850  0.1209 -0.1860
71701W        W14639  14.038   7.940  25.767 -0.1097 -0.0833 -0.0232
71702W        W14640  16.935  10.133  25.172  0.2887 -0.2385 -0.2333
71703W        W14641  15.516  10.211  24.865  0.0745  0.0652  0.0700
71704W        W14642  15.782   8.692  26.556  0.2350 -0.1260 -0.2400
71705W        W14643  16.937   8.453  25.711 -0.0193  0.0075 -0.0670
71706W        W14644  17.020  10.845  24.543  0.0259  0.1383  0.0188
71707W        W14645  15.683   7.649  26.146  0.2005 -0.0651  0.4773
71708W        W14646  17.983   8.125  27.039  0.1012  0.2703 -0.0510
71709W        W14647  16.366   8.886  23.482 -0.1947  0.0113 -0.0440
71710W        W14648  15.715   8.901  24.966 -0.0764  0.1774 -0.1168
71711W        W14649  15.114   8.922  25.244 -0.0273 -0.2825  0.3461
71712W        W14650  16.299  10.064  26.423 -0.2544  0.4705 -0.0033
71713W        W14651  17.246   7.257  25.159  0.4603  0.0240 -0.1255
71714W        W14652  17.258   9.332  24.546  0.0088 -0.1900 -0.0328
71715W        W14653  16.258  11.327  24.308 -0.0357 -0.0773 -0.0068
71716W        W14654  18.244   9.641  24.490  0.1770  0.0756  0.0840
71717W        W14655  18.206   8.078  26.192  0.1165  0.2771  0.3961
71718W        W14656  16.505   8.990  26.233 -0.2925  0.0595 -0.2067
71719W        W14657  15.250  10.344  24.186 -0.2252 -0.0904  0.1562
71720W        W14658  15.454   9.320  24.670 -0.0528  0.2281 -0.1559
71721W        W14659  19.056   9.764  23.824 -0.0588  0.0123 -0.2484
71722W        W14660  17.139  10.359  24.712 -0.0703  0.0985  0.0312
71723W        W14661  16.010  11.902  25.286 -0.1778  0.2840 -0.0037
71724W        W14662  15.940  10.719  23.292  0.1674 -0.1047 -0.0987
71725W        W14663  17.546  10.684  26.371  0.1263 -0.1390  0.0231
71726W        W14664  15.907  11.941  26.196 -0.5950 -0.1113  0.1999
71727W        W14665  17.849   8.517  26.076 -0.0628  0.1951 -0.2256
71728W        W14666  16.547   9.065  24.719 -0.0226  0.1147 -0.1915
71729W        W14667  15.473   9.778  23.964  0.1289  0.0164 -0.2066
71730W        W14668  16.165  10.278  24.212 -0.3212  0.2051 -0.1425
71731W        W14669  14.966  11.423  26.337  0.0578  0.3111  0.0454
71732W        W14670  15.319  11.160  25.246  0.2298  0.2553  0.1015
71733W        W14671  19.140   8.316  28.438 -0.0537  0.1885 -0.0041
71734W        W14672  15.334  10.988  23.475  0.2412 -0.2698  0.1140
71735W        W14673  16.296   9.275  24.358 -0.1083  0.1281  0.0161
71736W        W14674  15.838   9.000  23.366 -0.0946  0.0634 -0.1762
71737W        W14675  17.641   6.681  24.038 -0.2605 -0.0080 -0.0353
71738W        W14676  16.733   7.303  25.945 -0.0141 -0.0694 -0.0092
71739W        W14677  16.081  11.110  25.707  0.1928  0.2174 -0.0901
71740W        W14678  16.485   9.831  25.966 -0.4556  0.2685  0.1494
71741W        W14679  17.320  10.351  25.441 -0.0040 -0.3995 -0.0752
71742W        W14680  16.391   9.325  25.874 -0.2310  0.0332 -0.1892
71743W        W14681  16.457   8.474  27.046 -0.1186  0.0982  0.1091
71744W        W14682  14.539  11.498  24.188 -0.3152 -0.2116 -0.0538
71745W        W14683  15.127   8.291  24.916  0.0781  0.2022 -0.0878
71746W        W14684  17.067   9.912  24.566  0.2226 -0.0653 -0.1930
71747W        W14685  17.195   9.956  24.078 -0.2447  0.4799  0.0251
71748W        W14686  17.168   8.774  23.964 -0.1167  0.1536 -0.1198
71749W        W14687  15.573   9.219  23.709 -0.0349 -0.0181  0.2433
71750W        W14688  16.748  10.891  26.458 -0.0224 -0.0001 -0.1760
71751W        W14689  14.803   8.290  27.282 -0.2377 -0.1591 -0.0474
71752W        W14690  15.186   8.307  23.615  0.0010  0.0010 -0.1577
71753W        W14691  17.194  11.394  26.541 -0.1776 -0.2762  0.2164
71754W        W14692  14.088  11.447  25.699  0.1096 -0.0036 -0.2475
71755W        W14693  18.688   6.968  24.349  0.0097  0.0419  0.0668
71756W        W14694  15.153   9.105  25.837  0.0458  0.1384  0.0005
71757W        W14695  16.754   9.673  24.924 -0.0314 -0.1869 -0.1195
71758W        W14696  17.960   8.895  23.546 -0.0363  0.0192  0.0496
71759W        W14697  17.444   8.401  25.504  0.2112  0.1140  0.1804
71760W        W14698  18.507   7.261  26.331 -0.3432  0.0430  0.4794
71761W        W14699  16.512   8.400  24.720 -0.2373  0.0190 -0.0565
71762W        W14700  14.992   9.408  24.810 -0.0084  0.3156  0.0119
71763W        W14701  19.298  10.838  25.120  0.2838  0.2489 -0.0314
71764W        W14702  17.212   8.728  23.127  0.1449 -0.2135 -0.0345
71765W        W14703  15.967  10.931  24.631  0.0207  0.6001  0.1988
71766W        W14704  15.474   8.780  26.910  0.1838  0.0211  0.0236
71767W        W14705  16.771  12.461  25.774 -0.1580  0.1991 -0.1611
71768W        W14706  14.693  11.459  23.010 -0.1154 -0.2489  0.0967
71769W        W14707  15.659  11.936  25.709 -0.0212 -0.0174 -0.0589
71770W        W14708  14.835   7.827  23.644  0.0960 -0.1390  0.0590
71771W        W14709  15.221   7.825  26.836 -0.4408  0.2122  0.0173
71772W        W14710  15.893  10.636  25.753  0.0531 -0.3390  0.1897
71773W        W14711  15.944   8.812  24.540 -0.2553 -0.1446  0.2085
71774W        W14712  16.285   6.646  27.051 -0.1643  0.2352 -0.2180
71775W        W14713  17.199   7.590  26.032 -0.0808 -0.2419  0.1804
71776W        W14714  15.280   9.766  24.450 -0.1160 -0.4896  0.1527
71777W        W14715  18.295  10.860  23.973 -0.0335 -0.3740 -0.2017
71778W        W14716  18.372   7.920  24.266  0.1351  0.1166  0.0804
71779W        W14717  16.669   9.921  24.104 -0.0395 -0.0507  0.2605
71780W        W14718  14.868  10.065  26.564  0.2110  0.3683  0.0147
71781W        W14719  15.837   6.903  25.011  0.2961 -0.0934 -0.2434
71782W        W14720  16.404   7.074  26.781 -0.2901 -0.1262 -0.0397
71783W        W14721  14.760   8.418  25.304 -0.0173 -0.1416 -0.1351
71784W        W14722  17.483   9.447  28.024 -0.1550  0.0107  0.1549
71785W        W14723  15.861   7.971  25.424  0.2352  0.2920  0.2843
71786W        W14724  17.534   8.875  24.754  0.1040 -0.0751  0.1139
71787W        W14725  15.722   9.447  25.202  0.1924 -0.2402  0.2560
71788W        W14726  15.151   9.516  23.652  0.2849  0.2055  0.0596
71789W        W14727  18.823   7.990  28.874  0.1646  0.0830  0.0355
71790W        W14728  16.523  10.120  24.564 -0.0630 -0.1768  0.2301
71791W        W14729  19.487  11.891  25.052  0.0909  0.0470  0.0117
71792W        W14730  17.791  10.088  24.151 -0.0145 -0.2380 -0.1216
71793W        W14731  15.715   5.788  26.566 -0.2226  0.0032  0.1313
71794W        W14732  15.723   8.435  25.629  0.0669  0.2204 -0.0532
71795W        W14733  15.090  10.483  26.068 -0.0612 -0.2478  0.4192
71796W        W14734  15.985  10.398  24.808  0.0632  0.0153  0.0684
71797W        W14735  17.536   8.506  24.016 -0.0281 -0.2306 -0.0886
71798W        W14736  18.221  11.806  25.184 -0.3578 -0.2369 -0.2352
71799W        W14737  14.523   9.307  25.533 -0.2672 -0.3805  0.0993
71800W        W14738  15.199  12.344  25.729 -0.1384 -0.2563  0.0716
71801W        W14739  18.335   8.628  25.983 -0.0211  0.0188  0.2872
71802W        W14740  17.749  10.563  25.673 -0.2687 -0.1516 -0.1895
71803W        W14741  17.991   9.089  25.107 -0.2100  0.3665  0.2232
71804W        W14742  14.065   7.344  24.141  0.2410 -0.2303 -0.0581
71805W        W14743  17.319  11.152  23.536 -0.2328  0.0475  0.4167
71806W        W14744  15.856  10.346  22.987 -0.0305  0.0771 -0.0451
71807W        W14745  14.451   9.967  24.843  0.0633  0.0061 -0.0815
71808W        W14746  16.154  10.439  23.641  0.0273  0.1956  0.1076
71809W        W14747  17.906   8.183  24.179  0.1321 -0.0636 -0.2286
71810W        W14748  14.539   9.506  28.513  0.2081 -0.1517  0.1559
71811W        W14749  16.707   8.099  26.779  0.4083  0.0430 -0.0248
71812W        W14750  14.307   8.473  24.865  0.0089 -0.0354  0.0537
71813W        W14751  13.432   9.986  26.331 -0.0993  0.1017  0.0655
71814W        W14752  17.661   6.973  25.082 -0.1193 -0.1738 -0.1016
71815W        W14753  17.857   8.338  23.705  0.0419 -0.1661  0.2699
71816W        W14754  16.492   9.440  26.468  0.0437  0.1740 -0.1670
71817W        W14755  18.915  10.466  23.935  0.0894 -0.2474  0.0226
71818W        W14756  17.733   8.567  23.193 -0.0129  0.0077 -0.1805
71819W        W14757  17.657   7.607  24.383  0.1691  0.3001  0.0744
71820W        W14758  14.298  11.072  26.653 -0.0698 -0.1253 -0.0922
71821W        W14759  16.282   9.654  24.728  0.0458 -0.4287  0.1993
71822W        W14760  16.232   9.667  26.856 -0.2131  0.1661  0.0834
71823W        W14761  16.183   6.730  24.676  0.0854  0.0958  0.1556
71824W        W14762  18.318   9.055  22.663  0.1046  0.0162 -0.2587
71825W        W14763  16.218  11.125  26.170  0.1427 -0.3130 -0.0713
71826W        W14764  16.178   9.364  27.267  0.1385 -0.0394 -0.1959
71827W        W14765  18.285  11.681  24.708 -0.1119  0.1247  0.2523
71828W        W14766  18.283   6.180  27.461  0.1245 -0.1996  0.1279
71829W        W14767  17.124   8.168  23.918  0.1304 -0.0939 -0.0961
71830W        W14768  16.954   8.979  26.018 -0.0718  0.0918 -0.0282
71831W        W14769  14.902  10.083  23.240  0.2132 -0.1323  0.0228
71832W        W14770  18.175   8.953  26.304  0.0357 -0.1253  0.3322
71833W        W14771  16.846   7.594  25.538 -0.1749 -0.0281  0.2588
71834W        W14772  17.184   7.805  26.875 -0.0756  0.0754 -0.1389
71835W        W14773  20.064   9.280  26.989  0.0710  0.1526 -0.1104
71836W        W14774  16.513  10.108  23.377  0.0920 -0.0460 -0.2451
71837W        W14775  16.423  10.232  25.156  0.0471  0.2942 -0.0128
71838W        W14776  15.922   9.015  22.830 -0.4575 -0.1096 -0.0468
71839W        W14777  16.206   7.237  25.859  0.0093 -0.0358  0.0538
71840W        W14778  15.760   9.912  26.522  0.0266  0.0961 -0.2402
71841W        W14779  15.089  10.572  26.920 -0.4375 -0.0407 -0.1734
71842W        W14780  17.978   9.496  26.524  0.0525 -0.1766 -0.2672
71843W        W14781  16.651   8.976  23.908 -0.0244 -0.1754  0.3161
71844W        W14782  17.028   8.663  26.850  0.0234 -0.1961 -0.3148
71845W        W14783  16.414   8.319  23.374  0.0248  0.3847  0.2829
71846W        W14784  15.791  10.458  25.259  0.0983 -0.0261  0.3283
71847W        W14785  16.386   7.810  22.831 -0.2691 -0.0601  0.1026
71848W        W14786  16.541   5.896  26.761 -0.0436  0.1127 -0.0976
71849W        W14787  17.606  11.144  24.909 -0.0806 -0.3013 -0.0289
71850W        W14788  15.998   9.965  23.311  0.0274 -0.0194  0.1539
71851W        W14789  17.087  10.206  25.858 -0.2116 -0.0366 -0.0926
71852W        W14790  14.300   9.350  23.478  0.1880  0.0807 -0.0283
71853W        W14791  17.634   7.488  25.798  0.0875  0.1093 -0.1996
71854W        W14792  15.699   9.459  25.767 -0.0331 -0.3573 -0.1009
71855W        W14793  14.661   9.623  24.376 -0.2557 -0.1286 -0.0264
71856W        W14794  13.472  10.395  22.870  0.4105  0.2532 -0.1925
71857W        W14795  17.431   7.191  24.115  0.0762  0.1660  0.3732
71858W        W14796  17.657  10.267  24.699 -0.1546 -0.0258  0.2005
71859W        W14797  15.369   7.013  26.779  0.2921 -0.0624 -0.0332
71860W        W14798  17.105   7.635  24.455 -0.0449 -0.3294 -0.1950
71861W        W14799  14.156  12.191  25.860  0.2108  0.1391 -0.2823
71862W        W14800  16.955   8.559  26.297  0.1262 -0.1239 -0.0815
71863W        W14801  17.384   8.477  23.517  0.2673  0.2430 -0.2307
71864W        W14802  17.873  11.438  27.997  0.2734  0.1245 -0.1771
71865W        W14803  15.717   9.332  27.539  0.0206  0.1720 -0.1084
71866W        W14804  13.878   8.803  24.851 -0.1106 -0.1156 -0.1681
71867W        W14805  16.871   7.957  25.898 -0.0779 -0.5166  0.0777
71868W        W14806  16.753   9.150  25.206 -0.0035  0.0200  0.0469
71869W        W14807  15.780   9.368  24.203 -0.0183 -0.0428  0.3320
71870W        W14808  16.067  11.700  25.741 -0.0303 -0.1456 -0.0642
71871W        W14809  15.659   9.372  26.364 -0.1299 -0.2817  0.2103
71872W        W14810  17.170   9.502  25.177  0.1957  0.1213  0.1219
71873W        W14811  16.432   7.751  25.973 -0.0340  0.1551 -0.0696
71874W        W14812  17.837  11.151  26.253 -0.0251  0.1045 -0.2379
71875W        W14813  16.499   8.440  26.053  0.4767 -0.2183 -0.2368
71876W        W14814  16.058   9.221  25.536  0.0689 -0.0061  0.0434
71877W        W14815  17.182   9.818  26.102  0.1202  0.3455 -0.0818
71878W        W14816  17.551   9.002  24.279  0.0718  0.2189 -0.2231
71879W        W14817  16.869   6.604  26.062  0.0940 -0.0918  0.0238
71880W        W14818  16.802  11.342  26.857  0.1204  0.3930  0.1739
71881W        W14819  16.325   8.067  25.016  0.0513 -0.1362 -0.1646
71882W        W14820  17.652   7.597  23.150 -0.1270  0.0435 -0.2868
71883W        W14821  17.360   9.322  26.093  0.2290 -0.0053 -0.1029
71884W        W14822  13.703  10.185  24.839  0.2731 -0.4649 -0.2286
71885W        W14823  14.999  10.164  25.716  0.0416  0.0625  0.3403
71886W        W14824  15.615  10.567  24.452 -0.0038 -0.2104  0.1361
71887W        W14825  15.647   8.176  26.093  0.0736  0.2614 -0.0117
71888W        W14826  16.239  12.225  25.043 -0.0237  0.1434  0.3366
71889W        W14827  16.376  10.410  22.983 -0.1849 -0.2966  0.1298
71890W        W14828  16.552  11.431  25.666  0.0324  0.0981  0.1324
71891W        W14829  18.146   7.307  25.047  0.0202  0.4014  0.1050
71892W        W14830  16.289  10.608  22.489 -0.1940 -0.1841  0.0749
71893W        W14831  17.556  10.222  26.065 -0.0494 -0.0078  0.0810
71894W        W14832  19.008   8.969  25.412  0.2386 -0.2090  0.1925
71895W        W14833  17.361   9.600  23.486  0.1009 -0.4645 -0.1459
71896W        W14834  19.301   7.257  26.610  0.0664 -0.0315 -0.0810
71897W        W14835  15.253   7.972  27.858 -0.2169  0.0964 -0.0926
71898W        W14836  18.512   9.529  22.851 -0.0713 -0.2899 -0.0115
71899W        W14837  15.703   7.185  26.314 -0.2397 -0.1189 -0.2774
71900W        W14838  17.625  10.679  27.027  0.2874 -0.4612 -0.0345
71901W        W14839  15.021   8.487  26.904 -0.2683 -0.0456 -0.0110
71902W        W14840  16.027   8.611  26.093  0.0378  0.0777  0.1803
71903W        W14841  15.353   7.832  25.058  0.2285  0.1002  0.1203
71904W        W14842  15.958   9.081  26.014 -0.1245 -0.1272  0.1407
71905W        W14843  17.502   9.397  25.646  0.0686  0.2502 -0.1081
71906W        W14844  15.268   9.388  25.366  0.2235  0.0896 -0.0539
71907W        W14845  17.232   8.556  24.467  0.0726  0.0577 -0.0881
71908W        W14846  15.372   8.381  27.290 -0.0141 -0.4835 -0.1720
71909W        W14847  17.903   9.387  23.542  0.0238 -0.0083  0.1689
71910W        W14848  16.346   9.512  25.255 -0.1215  0.0964  0.1195
71911W        W14849  15.178   9.599  25.817  0.0053  0.1438 -0.2206
71912W        W14850  16.947   6.081  25.883 -0.1529 -0.1378 -0.0707
71913W        W14851  17.740   9.746  25.977  0.1273 -0.1230 -0.0189
71914W        W14852  17.244   6.995  27.772  0.2742 -0.0516 -0.0421
71915W        W14853  17.666   7.268  26.276  0.2579 -0.1391  0.2428
71916W        W14854  17.472   8.927  25.777  0.0769  0.1685 -0.0889
71917W        W14855  16.093   9.633  26.194 -0.1353  0.1402 -0.2369
71918W        W14856  14.470  10.064  27.745  0.1367 -0.0251  0.1329
71919W        W14857  17.321  11.756  24.561  0.1631 -0.1832 -0.3460
71920W        W14858  17.251   9.072  21.470 -0.1121  0.0855 -0.1799
71921W        W14859  18.681   9.401  24.353  0.0302  0.2395 -0.2808
71922W        W14860  17.378   8.396  26.037 -0.1603 -0.2298 -0.0433
71923W        W14861  16.446   8.445  23.827 -0.0070 -0.0558 -0.0479
71924W        W14862  15.517   9.908  25.523 -0.1587  0.0446  0.1572
71925W        W14863  17.296  10.242  26.510  0.0353 -0.1718  0.1591
71926W        W14864  16.975   8.134  24.513  0.3784  0.1336 -0.1907
71927W        W14865  17.939   6.428  27.669 -0.1877 -0.0418  0.1444
71928W        W14866  16.852  10.359  22.992  0.2114  0.1612 -0.2999
71929W        W14867  16.317   9.865  23.789  0.0485 -0.0632 -0.1061
71930W        W14868  16.809   8.494  24.200  0.0903 -0.2266 -0.0626
71931W        W14869  13.742   9.388  25.818 -0.0282  0.1287 -0.2916
71932W        W14870  16.047  10.198  26.959  0.0999 -0.0973 -0.1424
71933W        W14871  16.250   8.925  25.177  0.0024  0.0476 -0.2483
71934W        W14872  15.396   9.769  25.048 -0.1066 -0.2370 -0.0072
71935W        W14873  16.661  11.610  25.212  0.1107 -0.2295 -0.1882
71936W        W14874  18.287   9.281  26.881  0.1800  0.3620 -0.0755
71937W        W14875  17.914   7.139  24.088  0.2150  0.2284 -0.1401
71938W        W14876  18.901   8.995  27.664 -0.3698  0.1420 -0.3309
71939W        W14877  14.227   9.329  22.663  0.2953  0.3252  0.2982
71940W        W14878  17.749   6.943  25.588  0.2068  0.0366 -0.1964
71941W        W14879  16.184  12.024  23.877  0.2195  0.1188  0.2092
71942W        W14880  14.441   9.271  26.530  0.1099 -0.0142  0.2079
71943W        W14881  16.570  11.366  22.860 -0.1800  0.3930 -0.1641
71944W        W14882  18.362   7.358  26.792 -0.3115 -0.2646  0.0104
71945W        W14883  18.546  10.150  26.153  0.1041  0.0221  0.2123
71946W        W14884  17.234  10.905  25.471  0.2978 -0.1058 -0.0746
71947W        W14885  18.019  10.808  26.684  0.0351 -0.4220 -0.3102
71948W        W14886  16.164  10.658  26.180 -0.2112 -0.1582  0.0909
71949W        W14887  15.944   7.664  25.760  0.0644 -0.3504  0.1848
71950W        W14888  16.654  11.365  26.284  0.1610 -0.1598  0.2808
71951W        W14889  18.301  10.292  25.017 -0.0211 -0.1798  0.2514
71952W        W14890  16.196  11.423  25.203 -0.0316 -0.2811 -0.0319
71953W        W14891  14.645  11.024  26.137  0.4477  0.0756 -0.2430
71954W        W14892  18.272   8.225  27.433 -0.0731  0.2010 -0.0878
71955W        W14893  16.734   9.572  25.569  0.1574  0.2476 -0.1452
71956W        W14894  17.029   8.352  25.122  0.0801 -0.3072 -0.1686
71957W        W14895  16.268   9.821  21.569  0.3369  0.1902  0.0243
71958W        W14896  16.642   9.904  26.782 -0.2000  0.3896  0.0338
71959W        W14897  15.744   8.078  26.539  0.1081  0.1349  0.3072
71960W        W14898  15.888  11.142  23.565 -0.0280 -0.2877  0.0727
71961W        W14899  16.834   9.381  23.406 -0.1069  0.1749 -0.2365
71962W        W14900  15.945   8.702  24.012  0.0782  0.0104  0.1140
71963W        W14901  17.716  10.919  23.919 -0.0974  0.0199  0.3338
71964W        W14902  16.964   8.783  24.899  0.3338  0.0865 -0.1563
71965W        W14903  15.888  10.769  24.068 -0.1059 -0.2153 -0.3300
71966W        W14904  13.936  10.065  23.989 -0.2967  0.1460  0.0027
71967W        W14905  17.719  10.015  22.579 -0.0541 -0.4370 -0.1963
71968W        W14906  16.015   9.567  22.125  0.1850  0.2231  0.0158
71969W        W14907  18.595   9.674  26.940 -0.0511  0.2360 -0.1292
71970W        W14908  18.545   7.157  21.982 -0.1579 -0.2902 -0.1212
71971W        W14909  17.022   9.501  23.972 -0.0331 -0.3279 -0.1605
71972W        W14910  17.291   7.640  23.965 -0.0935 -0.3358 -0.0792
71973W        W14911  19.320  10.946  25.684  0.3871 -0.2005  0.0508
71974W        W14912  15.932   8.888  27.020 -0.1235  0.0515  0.0382
71975W        W14913  15.142   6.932  25.219 -0.2142  0.1928  0.1935
71976W        W14914  16.075   9.156  26.561  0.2758  0.0600 -0.4982
71977W        W14915  18.836   7.228  27.637 -0.1117  0.2442  0.1196
71978W        W14916  15.378   9.729  27.217  0.1660 -0.1670  0.1059
71979W        W14917  18.090   9.825  22.837 -0.0971 -0.1399  0.2001
71980W        W14918  15.585   7.453  25.397 -0.1560 -0.0420  0.0983
71981W        W14919  15.665   8.973  25.488 -0.0555  0.0837 -0.1325
71982W        W14920  17.884   8.137  25.123 -0.0126 -0.1785  0.2891
71983W        W14921  17.006   9.693  22.208  0.0709 -0.0873 -0.2040
71984W        W14922  16.903   9.089  26.523 -0.3517  0.0375 -0.2195
71985W        W14923  16.579  10.665  23.313 -0.3429  0.1988 -0.3114
71986W        W14924  16.523  11.725  24.149 -0.3222  0.0992  0.0634
71987W        W14925  16.310  10.892  23.777 -0.0331 -0.1554 -0.1300
71988W        W14926  14.526   7.626  24.530  0.1896  0.0610 -0.1774
71989W        W14927  17.759   7.071  24.542 -0.1163 -0.3262 -0.3314
71990W        W14928  16.339   8.455  26.578 -0.1831  0.0829 -0.3561
71991W        W14929  18.569   8.381  26.370 -0.1041  0.0284 -0.0812
71992W        W14930  15.111   8.228  25.984 -0.2312  0.0784 -0.1960
71993W        W14931  18.562   8.737  25.450  0.0298 -0.0200 -0.0236
71994W        W14932  17.061   9.553  26.582  0.3604 -0.1257 -0.0458
71995W        W14933  16.641   8.876  27.232 -0.5078 -0.1861 -0.2391
71996W        W14934  16.559   8.519  25.229  0.0485 -0.0773 -0.2312
71997W        W14935  18.218   9.679  26.074 -0.1601  0.1103  0.2319
71998W        W14936  15.581   8.577  23.219  0.1736 -0.3608  0.0361
71999W        W14937  17.088  11.918  25.459  0.1215 -0.1035  0.0742
72000W        W14938  14.269   8.619  25.858  0.0202 -0.3914 -0.4111
72001W        W14939  15.925   7.748  24.090 -0.0350 -0.2874 -0.0201
72002W        W14940  14.167   9.213  25.168  0.0803 -0.1816  0.4317
72003W        W14941  16.107  10.224  25.577  0.3039  0.4203 -0.0515
72004W        W14942  19.106  11.565  26.780 -0.1153 -0.0649  0.1004
72005W        W14943  15.662   6.817  25.506  0.0071  0.0884 -0.1369
72006W        W14944  17.076   7.855  22.898 -0.1086  0.0748 -0.1344
72007W        W14945  17.553   9.777  25.280  0.3728 -0.2174  0.2310
72008W        W14946  17.163   8.878  22.520 -0.0514 -0.0777 -0.2317
72009W        W14947  18.584   9.576  23.889  0.0515  0.0289  0.0769
72010W        W14948  18.012  11.309  23.997  0.0036  0.0548 -0.0193
72011W        W14949  15.352   8.414  26.455 -0.0124 -0.2220 -0.2195
72012W        W14950  17.030  11.464  25.933 -0.2391  0.1982  0.0123
72013W        W14951  17.734   9.778  27.485  0.0443  0.0199  0.0711
72014W        W14952  14.707   7.275  25.642  0.1062 -0.0147  0.3232
72015W        W14953  15.974  10.208  26.037 -0.0344 -0.0530  0.0940
72016W        W14954  14.931  10.930  23.059 -0.0770  0.1918  0.2112
72017W        W14955  17.377   8.836  26.230  0.1212  0.4381  0.1171
72018W        W14956  17.433   8.881  27.569 -0.2874  0.2397 -0.1365
72019W        W14957  17.166   9.989  23.172 -0.0635  0.2099  0.0936
72020W        W14958  17.977   8.479  26.562  0.0999 -0.3157  0.1434
72021W        W14959  17.072  11.099  25.023  0.1465 -0.0604  0.1829
72022W        W14960  14.996  11.100  27.223  0.0714  0.0965  0.3360
72023W        W14961  15.952   9.479  23.193 -0.1848 -0.5592 -0.1678
72024W        W14962  16.748  10.387  26.731 -0.0759 -0.0819  0.0654
72025W        W14963  15.922   9.910  25.198 -0.1646 -0.2075  0.0479
72026W        W14964  16.375   9.508  23.437  0.0837  0.2914  0.0703
72027W        W14965  18.229  11.802  24.160 -0.3844 -0.2100 -0.2688
72028W        W14966  17.500   9.107  25.241  0.1172 -0.0487  0.0625
72029W        W14967  17.543   9.711  24.404 -0.1159  0.0685  0.0545
72030W        W14968  15.996   7.224  25.416  0.1724  0.0523 -0.1514
72031W        W14969  17.459   5.658  23.203 -0.0367 -0.0678  0.0373
72032W        W14970  16.746   7.359  25.148 -0.4184  0.0343  0.2577
72033W        W14971  15.598   9.826  26.070  0.0766 -0.3066  0.1761
72034W        W14972  14.249   9.471  24.657 -0.0454  0.0944  0.0434
72035W        W14973  16.131   8.687  23.112 -0.2739 -0.3984  0.1512
72036W        W14974  16.090   9.734  25.647  0.1802  0.0099 -0.1065
72037W        W14975  17.753   8.192  27.510 -0.2137  0.1499  0.0399
72038W        W14976  15.013   9.403  26.449 -0.1667  0.4482  0.0009
72039W        W14977  16.652   8.898  25.648  0.1767  0.0833 -0.5796
72040W        W14978  15.477   8.537  25.162 -0.0522 -0.0809  0.2420
72041W        W14979  17.527   9.151  23.848 -0.0467  0.0532 -0.0133
72042W        W14980  15.219   7.367  26.372  0.1514  0.1767  0.2469
72043W        W14981  13.976   6.458  25.052  0.3032 -0.2442 -0.0948
72044W        W14982  15.985   9.269  24.784 -0.1229 -0.0620  0.0917
72045W        W14983  18.383   7.817  24.893 -0.1015 -0.0061  0.1545
72046W        W14984  17.174   9.814  25.605 -0.3111  0.3303  0.0830
72047W        W14985  18.056  10.952  27.765 -0.0812 -0.0228 -0.1094
72048W        W14986  14.788   8.631  22.778 -0.0653  0.1166 -0.1073
72049W        W14987  16.625   9.421  26.982 -0.1439  0.0998 -0.2071
72050W        W14988  16.201   7.979  26.719 -0.0362  0.0625  0.1062
72051W        W14989  13.563   8.603  24.106  0.1143 -0.2050  0.4334
72052W        W14990  17.503   8.599  26.648 -0.1358 -0.6225  0.0877
72053W        W14991  16.803   9.491  24.430  0.2641 -0.3247 -0.0198
72054W        W14992  17.385  10.389  22.749  0.2007 -0.2264 -0.0016
72055W        W14993  15.861  11.449  26.243 -0.2367  0.0047  0.1171
72056W        W14994  16.043  12.850  25.997  0.1103 -0.2866  0.0203
72057W        W14995  14.589   7.313  26.211  0.1053 -0.1464  0.3616
72058W        W14996  17.437   9.271  22.324  0.0793 -0.1352 -0.2913
72059W        W14997  16.609  10.000  25.546 -0.1289 -0.0710  0.0796
72060W        W14998  16.817   9.854  23.634 -0.0633  0.1362 -0.0260
72061W        W14999  17.890   8.587  24.489 -0.0528 -0.1838 -0.0214
72062W        W15000  15.777   9.771  24.667 -0.1113  0.1018  0.0770
72063W        W15001  14.202   7.161  28.907  0.3815  0.0426  0.0963
72064W        W15002  15.541   8.843  27.370 -0.0156 -0.1348  0.1842
72065W        W15003  17.267  10.660  25.889 -0.2383 -0.1879 -0.1314
72066W        W15004  16.347   7.729  24.497 -0.3361 -0.1075 -0.0757
72067W        W15005  17.912   6.326  25.335  0.0720 -0.2364  0.2438
72068W        W15006  15.936   9.559  23.727  0.1574 -0.2906 -0.2807
72069W        W15007  15.300   9.771  26.647  0.2374  0.3126 -0.2267
72070W        W15008  17.700   8.632  25.166  0.1154 -0.1271  0.3299
72071W        W15009  17.002  10.537  26.238  0.2488  0.0395 -0.0800
72072W        W15010  17.072   9.230  25.632  0.1183 -0.2485  0.0058
72073W        W15011  17.796  10.365  25.225  0.2564 -0.0966  0.1951
72074W        W15012  15.273   7.874  26.336  0.0487 -0.1395 -0.0956
72075W        W15013  18.351  10.215  23.127  0.1764  0.3569 -0.2128
72076W        W15014  17.598  11.231  25.851 -0.0067 -0.0990 -0.2534
72077W        W15015  17.374  11.903  27.384 -0.3829 -0.2245 -0.0975
72078W        W15016  16.325  10.600  24.542 -0.1265 -0.0815 -0.1232
72079W        W15017  17.987   8.917  25.640 -0.0055  0.2470 -0.2417
72080W        W15018  14.707   9.207  26.067 -0.1127 -0.2181  0.0564
72081W        W15019  16.675  11.012  25.375  0.2961  0.4830 -0.0730
72082W        W15020  17.249  11.276  24.563 -0.4652 -0.1446 -0.1109
72083W        W15021  16.858   9.461  26.057  0.0112  0.0179  0.1301
72084W        W15022  15.484   8.769  25.977 -0.1623 -0.1206 -0.0096
72085W        W15023  17.442   7.649  24.798  0.3518 -0.1530  0.3424
72086W        W15024  17.037  13.821  24.180  0.3608 -0.2723 -0.1332
72087W        W15025  16.363  10.711  25.658  0.4464  0.2842  0.3425
72088W        W15026  14.885   8.654  29.518 -0.5350 -0.1236 -0.0219
72089W        W15027  16.210   8.064  27.698  0.1852  0.1125  0.2410
72090W        W15028  17.872   8.996  26.705  0.2543  0.1348 -0.2666
72091W        W15029  18.043   9.470  28.548  0.4692  0.2060 -0.0687
72092W        W15030  16.017   7.963  28.203  0.0759  0.1383 -0.0403
72093W        W15031  16.268  10.559  27.258 -0.0717  0.0465 -0.1271
72094W        W15032  15.306   6.236  31.736  0.0082 -0.1216  0.2346
72095W        W15033  16.918   9.649  30.075  0.4374  0.1986  0.0794
72096W        W15034  17.234   9.469  29.168  0.2152 -0.0271  0.1302
72097W        W15035  17.224   9.807  27.569 -0.2214  0.2448  0.4037
72098W        W15036  16.778   8.406  31.371  0.1684 -0.3807  0.2051
72099W        W15037  16.212  10.028  30.724 -0.1482  0.2102  0.1604
72100W        W15038  16.154   7.382  26.497  0.4065  0.2482  0.0975
72101W        W15039  14.940   7.503  28.957 -0.0979 -0.2298 -0.0245
72102W        W15040  17.166   9.376  28.473  0.3258 -0.0334  0.1762
72103W        W15041  15.116   8.960  28.581 -0.2358 -0.0084 -0.2469
72104W        W15042  16.195   7.669  29.939  0.0002  0.0676 -0.0138
72105W        W15043  17.853   7.367  27.918  0.0046  0.2577 -0.5210
72106W        W15044  15.509  11.369  29.054  0.2909 -0.2172 -0.0330
72107W        W15045  15.130   7.935  30.210  0.0885  0.0589  0.0591
72108W        W15046  16.592   7.664   0.240  0.0784 -0.0269  0.0345
72109W        W15047  17.944  11.343  27.490 -0.1812 -0.1173 -0.0171
72110W        W15048  15.380  10.263  26.420 -0.1219 -0.1196  0.0699
72111W        W15049  14.941   9.015  30.046 -0.4779  0.0202  0.0303
72112W        W15050  16.304   8.401  29.556 -0.3521  0.0739 -0.1843
72113W        W15051  17.258   7.311  30.622  0.0003 -0.3219  0.3855
72114W        W15052  16.596   8.423  28.784 -0.0231 -0.1359  0.0117
72115W        W15053  16.195  10.486  28.761  0.2186 -0.2666  0.0933
72116W        W15054  16.791  10.610  27.670 -0.0272 -0.2386 -0.1399
72117W        W15055  17.613   7.793  31.415 -0.1155  0.0818 -0.1634
72118W        W15056  14.499  10.704  27.865 -0.0913 -0.0674 -0.2086
72119W        W15057  15.195  11.431  27.594  0.4905 -0.1939  0.0691
72120W        W15058  16.925  11.809  26.487  0.4814 -0.0693 -0.0968
72121W        W15059  18.075  10.361  28.567 -0.1403 -0.0173 -0.0250
72122W        W15060  17.206   8.977  30.043 -0.1674 -0.0002 -0.2031
72123W        W15061  15.555  10.651  28.741  0.2862 -0.0815  0.1068
72124W        W15062  16.894  10.964  25.863  0.2252 -0.1341 -0.1478
72125W        W15063  15.053  11.880  29.736  0.1375 -0.0346 -0.2347
72126W        W15064  14.820  10.311  30.577  0.1401  0.1087  0.2613
72127W        W15065  17.556   6.571  29.488 -0.0639 -0.1167 -0.1001
72128W        W15066  17.589   9.096  28.546  0.2070 -0.0798 -0.1418
72129W        W15067  17.270  11.054  26.224  0.0601 -0.2465 -0.0794
72130W        W15068  16.937  10.622  29.876 -0.2223 -0.0032  0.1543
72131W        W15069  16.487  10.046  29.191 -0.0301  0.0425 -0.1969
72132W        W15070  16.001  10.134  29.115 -0.0747  0.0050  0.1563
72133W        W15071  17.489   7.072  31.027 -0.1239 -0.0052 -0.2728
72134W        W15072  14.486  10.763  27.081  0.0945 -0.0519  0.2582
72135W        W15073  16.717   8.635  28.074  0.0334  0.0284  0.0647
72136W        W15074  17.196   7.097  25.750 -0.1252  0.0210 -0.2449
72137W        W15075  18.017   7.849  27.843  0.0355  0.1998  0.1338
72138W        W15076  15.955   6.916  29.473  0.0442  0.2659  0.2414
72139W        W15077  16.606  11.021  28.027 -0.1544 -0.0209  0.0118
72140W        W15078  15.238   7.885  31.589  0.0382 -0.1000  0.1413
72141W        W15079  18.886  10.848  30.059  0.2336  0.2318 -0.0057
72142W        W15080  16.765   9.150  28.128  0.0593 -0.1223  0.0035
72143W        W15081  17.229   8.161  30.447  0.0840 -0.0172 -0.0040
72144W        W15082  16.757  10.459  31.203  0.2636  0.0692  0.0234
72145W        W15083  16.977   9.560  27.884  0.0543  0.0860 -0.3190
72146W        W15084  17.720   9.426  27.008 -0.1157 -0.4399 -0.1026
72147W        W15085  16.515   9.456  27.689  0.3311  0.4307  0.1153
72148W        W15086  16.779  12.154  27.364 -0.0796 -0.3505  0.1881
72149W        W15087  14.874   8.099  29.392  0.0757 -0.0460 -0.0584
72150W        W15088  16.215  10.565  31.027  0.3618  0.1847  0.0408
72151W        W15089  14.399   8.983  30.753 -0.2714 -0.0750 -0.0702
72152W        W15090  16.553   6.623  26.564 -0.3084 -0.2188  0.1068
72153W        W15091  17.896   8.324  30.498 -0.1458  0.0056  0.4051
72154W        W15092  15.699  10.657  31.227  0.0105  0.2456  0.2755
72155W        W15093  17.452   8.471  29.901 -0.0283  0.0530  0.0593
72156W        W15094  17.252   9.136  31.468  0.2803 -0.0439  0.1856
72157W        W15095  17.501   9.219  29.570  0.1893 -0.0694  0.0700
72158W        W15096  17.574   9.767  26.665 -0.1362 -0.0645  0.1470
72159W        W15097  17.567   7.084  29.613  0.3565  0.1019 -0.2004
72160W        W15098  18.121   7.839  29.757  0.1753  0.0746  0.1248
72161W        W15099  14.878   8.940  26.649 -0.0381  0.0273  0.0903
72162W        W15100  15.812  10.070  29.615  0.2321 -0.1516  0.0086
72163W        W15101  17.278  11.284  28.052 -0.2554  0.0781  0.1791
72164W        W15102  17.241   7.892  28.218 -0.2051  0.2401 -0.0678
72165W        W15103  14.804  11.521  30.537 -0.0747  0.2465  0.2160
72166W        W15104  15.959   7.937  30.488 -0.2117  0.1029  0.2549
72167W        W15105  17.462   8.483  30.767 -0.0435 -0.1393 -0.2551
72168W        W15106  17.158  10.704  27.268 -0.0112  0.3290  0.2161
72169W        W15107  13.987   9.448  29.023  0.0717 -0.0606 -0.4159
72170W        W15108  15.805   7.330  29.822 -0.1673 -0.2016 -0.2942
72171W        W15109  14.924   6.824  29.802 -0.0122  0.1033 -0.0272
72172W        W15110  16.648   8.810  29.458  0.1016 -0.1375 -0.2133
72173W        W15111  18.001   8.608  29.007  0.1466  0.0606  0.1349
72174W        W15112  14.897   8.655  31.066 -0.1349  0.0881 -0.0418
72175W        W15113  17.904   8.844  30.641  0.1020 -0.1980  0.1262
72176W        W15114  15.296   8.894  26.429 -0.0853 -0.0740  0.0405
72177W        W15115  17.327  11.136  28.523 -0.1077  0.0713 -0.1871
72178W        W15116  17.609   8.054  26.748  0.2675  0.2326  0.2959
72179W        W15117  17.124  10.232  27.283 -0.0751  0.0648  0.0141
72180W        W15118  14.769   9.852  30.280 -0.2168 -0.0515 -0.2020
72181W        W15119  17.072   9.258  26.965  0.0671 -0.2941 -0.0112
72182W        W15120  16.326   7.128  31.454  0.1568 -0.3488 -0.2285
72183W        W15121  16.482   8.047  29.834 -0.0197 -0.0490  0.1798
72184W        W15122  17.564   8.726  30.281  0.1323 -0.1705 -0.2914
72185W        W15123  14.276   8.242  26.137 -0.4460  0.0982  0.0095
72186W        W15124  17.729   8.030  29.132  0.0268 -0.2787  0.2174
72187W        W15125  16.771   8.081  30.238  0.0003  0.0454 -0.1748
72188W        W15126  14.566   9.134  28.010  0.1883  0.0220 -0.0109
72189W        W15127  16.829   6.277  31.090 -0.0035 -0.4347  0.0237
72190W        W15128  16.107  12.585  27.210  0.3217 -0.0144  0.1344
72191W        W15129  17.532  10.536  29.711  0.0545 -0.1103 -0.0636
72192W        W15130  16.442  12.574  27.633 -0.2641  0.2761  0.0842
72193W        W15131  15.703   7.509  30.641  0.0823 -0.0253  0.0701
72194W        W15132  15.533   7.750  28.250 -0.3125 -0.0382 -0.1049
72195W        W15133  13.058  11.270  29.785  0.3471 -0.2328 -0.0230
72196W        W15134  15.094   9.463  28.542  0.1047 -0.0794  0.1405
72197W        W15135  16.812   7.991  28.514  0.3908  0.1298 -0.0952
72198W        W15136  18.008  10.449  27.935 -0.0333 -0.1125 -0.0287
72199W        W15137  17.129   8.348  27.998  0.1584  0.1290  0.0804
72200W        W15138  16.469   9.423  30.429  0.1368  0.1338 -0.2983
72201W        W15139  16.097   6.624  30.426  0.2196  0.1597 -0.2346
72202W        W15140  18.609   7.107  30.475 -0.0629  0.1332  0.0045
72203W        W15141  16.946   7.845  29.437  0.3442 -0.0449  0.3320
72204W        W15142  14.534   8.521  26.771 -0.1976 -0.3344 -0.0006
72205W        W15143  17.167  12.490  28.067  0.4284  0.0101  0.1814
72206W        W15144  15.428  10.422  27.370  0.2142 -0.0151 -0.0684
72207W        W15145  16.082   8.867  29.454 -0.3288 -0.2288 -0.2243
72208W        W15146  16.652  10.827  26.993 -0.2481 -0.0888  0.1225
72209W        W15147  18.230   7.716  29.246  0.0310 -0.1316  0.2277
72210W        W15148  14.998   8.302  30.654  0.0727 -0.1286 -0.4213
72211W        W15149  17.029   8.306  30.929  0.3329 -0.1352 -0.2041
72212W        W15150  15.982   8.516  27.519  0.2482 -0.2320 -0.0263
72213W        W15151  15.906  11.013  30.952 -0.1048 -0.2729 -0.3313
72214W        W15152  16.606   7.671  27.493 -0.1231  0.1425  0.0424
72215W        W15153  16.987   8.618  27.473  0.0274 -0.2242  0.0427
72216W        W15154  16.578   8.097  31.710 -0.0331  0.4375 -0.3630
72217W        W15155  16.927   9.901  28.319  0.0526  0.0334 -0.2542
72218W        W15156  18.892   9.123  25.899  0.2302  0.1273 -0.1227
72219W        W15157  17.616   6.714  28.035 -0.1929 -0.0072 -0.1213
72220W        W15158  16.148   8.583  30.423  0.0721 -0.5641 -0.1843
72221W        W15159  16.799  11.120  27.356 -0.1187  0.2823 -0.4149
72222W        W15160  15.968  10.096  28.522 -0.0159  0.1027  0.1015
72223W        W15161  16.891   8.113  27.228  0.0479 -0.0033  0.1436
72224W        W15162  15.946   8.731  28.887 -0.0838 -0.0434  0.0702
72225W        W15163  16.015  10.166  30.150  0.1376  0.0240 -0.0061
72226W        W15164  17.806   8.151   0.264  0.1302  0.1584 -0.0410
72227W        W15165  17.170  10.811  28.198 -0.1708  0.0049  0.0236
72228W        W15166  16.159   6.742  29.947 -0.1249  0.0502 -0.2449
72229W        W15167  17.422   9.202  26.617  0.0187  0.1015 -0.0595
72230W        W15168  16.706   7.640  26.480  0.2928  0.1069  0.0459
72231W        W15169  14.328  12.895  26.400 -0.0931 -0.1853 -0.3438
72232W        W15170  17.732   7.537  30.992  0.1228  0.2393  0.2059
72233W        W15171  17.540   7.356  30.057 -0.2264 -0.0518 -0.5432
72234W        W15172  15.761   6.349  31.161  0.0229 -0.0451 -0.1090
72235W        W15173  18.281   8.318   0.467 -0.0333  0.2169 -0.2139
72236W        W15174  16.438   8.781  28.488 -0.0073  0.0600 -0.0700
72237W        W15175  17.620   7.982  29.702 -0.0988  0.1911  0.2819
72238W        W15176  15.849  10.834  27.567 -0.2111  0.0090 -0.1782
72239W        W15177  17.312   7.894  31.003 -0.1070 -0.2501  0.2996
72240W        W15178  15.039  10.039  29.826 -0.3186  0.0534 -0.2454
72241W        W15179  16.335  10.992  29.475  0.0066  0.0647 -0.1910
72242W        W15180  17.440   8.496  28.825  0.2605 -0.0894 -0.2835
72243W        W15181  16.477   9.890  30.240  0.2421 -0.2250  0.0651
72244W        W15182  18.128   7.783   0.363 -0.0695  0.0709 -0.1997
72245W        W15183  16.634   7.872  27.989  0.1625  0.4214  0.1995
72246W        W15184  16.381  11.410  28.218  0.1936  0.2498  0.2451
72247W        W15185  17.149  10.788  26.747  0.0482 -0.0397 -0.1771
72248W        W15186  15.180   7.432  30.627  0.2834 -0.0977 -0.0980
72249W        W15187  15.214  10.138  30.398 -0.1246 -0.0286 -0.1754
72250W        W15188  15.567   9.869  27.702 -0.0958 -0.0162  0.2517
72251W        W15189  17.774   7.304  30.521  0.1131  0.0045  0.1902
72252W        W15190  16.264   9.185  28.017 -0.0617 -0.0669  0.0444
72253W        W15191  18.866   6.649  29.199 -0.0008 -0.1713  0.0633
72254W        W15192  16.102  10.135  28.040 -0.0326 -0.0875 -0.1487
72255W        W15193  15.742   8.071  27.356  0.3389  0.1763  0.0238
72256W        W15194  14.777   9.320  29.542 -0.1258  0.0457  0.0031
72257W        W15195  16.669   6.954  29.375  0.0487 -0.1743 -0.2283
72258W        W15196  16.563  10.350  28.233 -0.3267 -0.0414  0.1778
72259W        W15197  14.330   8.670  29.493 -0.0148 -0.1594  0.0081
72260W        W15198  16.878   7.610  29.876 -0.0898 -0.0196  0.0209
72261W        W15199  15.075  10.603  29.101  0.0837 -0.1259 -0.0993
72262W        W15200  16.121   8.256  28.953 -0.0414 -0.1388  0.0396
72263W        W15201  18.441   8.658  29.185  0.0157 -0.1407 -0.3896
72264W        W15202  16.820   9.784  30.609  0.1292 -0.0660 -0.2035
72265W        W15203  15.770   8.835  30.750 -0.0525  0.2899  0.0348
72266W        W15204  15.261   9.248  26.843 -0.2259  0.0235  0.3493
72267W        W15205  17.558   7.312  31.645  0.0670  0.0189 -0.3139
72268W        W15206  17.141   7.996  29.920 -0.1412 -0.1264  0.5300
72269W        W15207  16.353   9.588  29.040 -0.0120  0.0465  0.2546
72270W        W15208  16.771  11.531  29.492 -0.1208 -0.0739 -0.1902
72271W        W15209  15.319   9.070  27.860 -0.1649 -0.0469 -0.0607
72272W        W15210  15.646   9.879  28.227  0.0057  0.4724 -0.0084
72273W        W15211  14.691   9.248  30.386 -0.1563  0.1475 -0.2780
72274W        W15212  17.255   8.839  31.835 -0.2056 -0.4108 -0.0673
72275W        W15213  15.965   7.207  30.327 -0.4017  0.0133 -0.3724
72276W        W15214  16.459   8.856  27.710 -0.1560  0.1330  0.2809
72277W        W15215  16.197   8.592  28.005 -0.0675  0.2577 -0.0383
72278W        W15216  16.585   8.916  30.489 -0.0063  0.1629 -0.1786
72279W        W15217  18.013   7.799  30.614 -0.3777 -0.0169 -0.3269
72280W        W15218  17.579  10.182  30.526  0.4538 -0.2582  0.0018
72281W        W15219  15.357   6.832  29.395 -0.1159  0.0993  0.1809
72282W        W15220  17.107  11.996  29.275 -0.1481  0.1350 -0.2259
72283W        W15221  17.497   8.309  31.246 -0.2599  0.0949 -0.1622
72284W        W15222  15.839  10.753  28.285  0.0426  0.1073  0.1602
72285W        W15223  14.379  10.227  30.318 -0.2452 -0.5361 -0.0593
72286W        W15224  15.520  10.084  28.721  0.2880  0.1476  0.1368
72287W        W15225  18.226   7.375  30.794 -0.2678 -0.2044 -0.1924
72288W        W15226  16.432   9.271  29.410 -0.0453 -0.1778  0.2383
72289W        W15227  14.113  10.915  27.686 -0.0723  0.1274  0.1458
72290W        W15228  15.513  10.383  30.028  0.3352 -0.2320  0.1589
72291W        W15229  18.273   8.588  28.619 -0.1091  0.1642 -0.1600
72292W        W15230  16.846  10.084  26.363 -0.0665 -0.0599  0.1504
72293W        W15231  17.892   8.605  27.112  0.1279  0.1299 -0.2096
72294W        W15232  16.685   6.069   1.677 -0.3266 -0.2693 -0.3424
72295W        W15233  16.997   8.661  29.059  0.0658 -0.0330  0.0921
72296W        W15234  18.498   7.887  31.887  0.0860 -0.3998  0.0781
72297W        W15235  15.819   7.873  29.628  0.0719  0.2573 -0.4302
72298W        W15236  18.679   8.374  28.289 -0.1730  0.0776  0.0959
72299W        W15237  14.196   8.179  31.094  0.0101 -0.0304 -0.0080
72300W        W15238  17.518  11.490  30.829  0.0569 -0.4290 -0.0656
72301W        W15239  14.963   9.485  31.233 -0.0585  0.3707 -0.0414
72302W        W15240  17.337   7.577  28.826 -0.0875  0.4237 -0.2251
72303W        W15241  16.640   8.303  27.691  0.2127 -0.0352 -0.1013
72304W        W15242  15.482   9.316  30.974 -0.1024  0.1226  0.0152
72305W        W15243  16.781   9.283  29.051  0.2783  0.3761  0.5224
72306W        W15244  16.503  10.357  26.020 -0.2362 -0.0335  0.0894
72307W        W15245  18.039   7.385  29.510  0.0165  0.0153 -0.0893
72308W        W15246  15.706   9.290  30.518 -0.0829  0.3650 -0.0633
72309W        W15247  17.200   8.059  28.943 -0.1815  0.0579 -0.0473
72310W        W15248  16.265   9.215  28.676  0.0981  0.2640  0.0230
72311W        W15249  15.519  10.289  29.187  0.2413 -0.0678  0.0873
72312W        W15250  16.697   7.344  30.658 -0.0356  0.1384 -0.2039
72313W        W15251  17.120  10.150  29.036  0.2608 -0.1032 -0.0199
72314W        W15252  17.707   7.638  28.354 -0.4143 -0.2166  0.1996
72315W        W15253  15.572   8.180  30.186 -0.0719  0.0465  0.2684
72316W        W15254  17.406   7.138  29.154  0.3223  0.2215  0.0174
72317W        W15255  16.793   9.850  31.148  0.0694 -0.1069 -0.1949
72318W        W15256  15.100   8.349  31.409  0.1789 -0.0195 -0.0158
72319W        W15257  16.709   9.742  29.511 -0.0485 -0.0052  0.1480
72320W        W15258  17.693   8.630  28.381  0.1256  0.1688 -0.2549
72321W        W15259  18.066   8.210  29.472  0.2618  0.0605 -0.2728
72322W        W15260  18.122   9.597  29.108 -0.1726  0.0762 -0.0195
72323W        W15261  16.407   8.884  29.023  0.2095  0.0450 -0.0348
72324W        W15262  16.858   8.348  29.677  0.3977 -0.0037 -0.1485
72325W        W15263  17.005   6.323   0.431  0.0556 -0.1495 -0.1435
72326W        W15264  15.829   8.964  27.836  0.0661 -0.0677  0.1913
72327W        W15265  16.148   7.079  30.779 -0.2523  0.2029 -0.0541
72328W        W15266  17.238  12.010  26.059 -0.0663 -0.2573 -0.1983
72329W        W15267  17.859  10.734  29.182  0.1350 -0.0063 -0.2370
72330W        W15268  16.745   7.775  29.013  0.1821 -0.1371 -0.1869
72331W        W15269  16.531   7.634  30.292  0.0188 -0.1988 -0.0679
72332W        W15270  14.476   9.665  29.916 -0.0856  0.3146  0.1893
72333W        W15271  16.133   8.023  26.191  0.1679  0.1213  0.0685
72334W        W15272  15.891  10.240  27.595  0.1971 -0.3767  0.0482
72335W        W15273  16.834  10.420  30.318 -0.1646 -0.1376 -0.0868
72336W        W15274  17.912   8.597  31.142 -0.2062 -0.0951  0.3736
72337W        W15275  15.881   8.348  26.947 -0.1015 -0.0346  0.2137
72338W        W15276  17.794   5.864  31.889 -0.1580  0.2198  0.1228
72339W        W15277  15.074  10.126  27.081  0.3703 -0.1599  0.3405
72340W        W15278  17.123   6.793  29.415 -0.0017 -0.2709  0.4669
72341W        W15279  16.369  11.968  27.562  0.0319 -0.2039  0.0085
72342W        W15280  16.302  10.005  29.697  0.1647 -0.3002 -0.0655
72343W        W15281  15.121  10.392  28.599 -0.3767 -0.0166  0.0206
72344W        W15282  16.100   8.234  30.078 -0.0655 -0.4109 -0.0543
72345W        W15283  16.444   8.284  28.313 -0.1120 -0.2093 -0.0280
72346W        W15284  16.474  10.480  29.900  0.1912  0.0601  0.2373
72347W        W15285  18.037   7.824  28.755 -0.0553  0.0719  0.1833
72348W        W15286  17.192   8.734  29.597  0.0714  0.0607  0.2352
72349W        W15287  15.424   9.669  30.539  0.3365 -0.2644 -0.3191
72350W        W15288  16.162  11.454  28.707  0.3934 -0.1177 -0.0627
72351W        W15289  16.216  10.594  27.951 -0.1860  0.0215 -0.0913
72352W        W15290  16.121   9.634  29.508  0.1185 -0.3669  0.1060
72353W        W15291  15.208   9.027  31.265  0.0974 -0.0684 -0.2055
72354W        W15292  16.514   8.556  30.038 -0.0515 -0.0038  0.0720
72355W        W15293  15.152  11.821  27.997  0.1302 -0.3166  0.1026
72356W        W15294  15.262   7.352  28.083 -0.1619 -0.1598  0.1599
72357W        W15295  16.405  11.178  26.678  0.3243  0.0596 -0.1876
72358W        W15296  16.153  11.383  30.704  0.0130 -0.0473  0.1029
72359W        W15297  13.398   9.668  29.844  0.0083 -0.0296 -0.4442
72360W        W15298  17.245   9.687  27.061  0.0683  0.1311  0.0636
72361W        W15299  17.519   8.956  27.072 -0.1291 -0.0403 -0.0657
72362W        W15300  17.815  10.433  27.461  0.2578 -0.1505 -0.4561
72363W        W15301  16.880  11.583  28.373 -0.1240  0.0820  0.2068
72364W        W15302  17.582   7.735  27.190  0.3212 -0.0582  0.0844
72365W        W15303  15.648  11.195  28.518 -0.0705 -0.1111  0.3461
72366W        W15304  15.014  10.146  27.666  0.0523  0.1452 -0.1090
72367W        W15305  15.820  10.957  25.241  0.1706 -0.1327  0.0360
72368W        W15306  16.104  11.066  27.210 -0.0526  0.5022 -0.3176
72369W        W15307  17.404  10.625  31.189 -0.0690  0.0446  0.0900
72370W        W15308  19.033   7.778  28.481  0.1367 -0.0375  0.0425
72371W        W15309  16.619   9.463  28.475 -0.0871  0.1979 -0.1171
72372W        W15310  19.377   8.763  28.316  0.3778 -0.0137 -0.1650
72373W        W15311  17.342  11.016   0.093 -0.4275 -0.3813 -0.0834
72374W        W15312  15.790   6.452  29.629  0.2972  0.1596  0.1419
72375W        W15313  16.505   9.843  28.128  0.1062  0.1429  0.0383
72376W        W15314  16.360   8.184  30.715  0.1047 -0.1446 -0.1954
72377W        W15315  19.540   7.031  30.559 -0.1444 -0.0014  0.0266
72378W        W15316  15.844  10.185  31.050 -0.1204  0.2329 -0.1096
72379W        W15317  17.402  10.570  27.691  0.1636  0.2036 -0.0571
72380W        W15318  16.309   8.058  27.245 -0.0105  0.0743 -0.0157
72381W        W15319  15.640   8.751  30.264 -0.2434 -0.1980 -0.0036
72382W        W15320  19.740   7.862  28.776 -0.1248 -0.3197  0.1248
72383W        W15321  15.539  10.266  26.929 -0.1160 -0.1154  0.2981
72384W        W15322  14.601   8.068  30.206  0.0073 -0.0487 -0.0183
72385W        W15323  16.309  11.426  27.683 -0.0788  0.1488 -0.4164
72386W        W15324  15.950  10.686  29.277  0.0681  0.0318  0.0048
72387W        W15325  18.877   9.016  30.792  0.0746  0.1397 -0.0756
72388W        W15326  16.107   7.565  27.395 -0.1341  0.2806 -0.4098
72389W        W15327  18.578   9.455  28.912 -0.1160 -0.0192  0.1946
72390W        W15328  14.397   9.242  29.163 -0.0274  0.4148  0.0743
72391W        W15329  18.179   6.815  30.503  0.3400 -0.0109  0.1902
72392W        W15330  16.377  10.914  27.618  0.0942  0.2027 -0.2450
72393W        W15331  17.941   7.392  27.388  0.4634 -0.0266 -0.1260
72394W        W15332  16.673   7.919  31.102 -0.1754  0.4380  0.4356
72395W        W15333  16.709   8.314  29.233 -0.1621  0.1388  0.2170
72396W        W15334  18.711   9.240  27.277 -0.1157  0.2694  0.0226
72397W        W15335  17.395   9.436  30.059 -0.3018 -0.0751 -0.0521
72398W        W15336  16.899   9.096  27.575  0.2515 -0.3469  0.0151
72399W        W15337  16.994   9.224  30.436 -0.0761 -0.0236  0.1792
72400W        W15338  15.631   7.662  29.116  0.5766  0.1195  0.1082
72401W        W15339  18.039   9.498  25.464 -0.1982  0.0348 -0.1994
72402W        W15340  16.387  11.515  27.101 -0.4109 -0.0798  0.1748
72403W        W15341  16.295   8.278  31.267 -0.3649  0.2156 -0.1750
72404W        W15342  18.432  10.872   0.193  0.3463  0.1323  0.0614
72405W        W15343  16.322   7.859  29.365  0.0502 -0.0606 -0.4564
72406W        W15344  17.463   9.945  27.988 -0.0588  0.1791  0.1380
72407W        W15345  17.710   8.872  29.848  0.2222  0.0962 -0.1433
72408W        W15346  15.668  13.302  27.787 -0.0468 -0.3081 -0.1888
72409W        W15347  16.985  10.816  28.912 -0.0373 -0.0418 -0.1779
72410W        W15348  16.376  12.036  29.131  0.1628 -0.1178 -0.0446
72411W        W15349  16.163   8.906  29.997  0.0118 -0.1289 -0.1904
72412W        W15350  16.996   9.293  29.551  0.0272  0.0391 -0.1641
72413W        W15351  17.238   9.755  29.652  0.3501 -0.1780  0.2442
72414W        W15352  18.327   7.737  27.251  0.1991  0.0805 -0.0156
72415W        W15353  15.554   8.898  29.247 -0.1464 -0.1230 -0.1848
72416W        W15354  15.972  11.738  27.319 -0.2160 -0.0954  0.0586
72417W        W15355  17.664   9.446  28.963  0.0314 -0.0026 -0.1535
72418W        W15356  16.989   7.983  31.483  0.1228  0.2692  0.1756
72419W        W15357  17.449   9.346  27.490  0.0033 -0.0025 -0.0878
72420W        W15358  16.190   5.549  30.480  0.2575  0.2802 -0.1798
72421W        W15359  17.185  10.015  30.914 -0.0382 -0.1087  0.0695
72422W        W15360  15.303   9.858  31.042  0.1877 -0.2859 -0.2378
72423W        W15361  14.472   8.640  27.917  0.0843 -0.0562  0.4155
72424W        W15362  15.747   8.453  29.768  0.1193 -0.0316 -0.0175
72425W        W15363  16.705  11.801  26.922 -0.1227 -0.5446 -0.2088
72426W        W15364  17.967  12.234  28.040 -0.1386 -0.0664 -0.0705
72427W        W15365  16.828   9.027  28.664  0.1486  0.2740  0.1284
72428W        W15366  16.706  10.505  29.250  0.0574  0.0221  0.3140
72429W        W15367  19.098   9.648  28.914 -0.0564  0.1530  0.0929
72430W        W15368  16.131   9.585  28.334 -0.0358  0.3377  0.0226
72431W        W15369  18.185   8.758  29.576  0.2176  0.2541  0.1103
72432W        W15370  18.742   7.784  27.532 -0.0397 -0.0487 -0.2360
72433W        W15371  16.022   9.697  30.375  0.0884 -0.0294  0.2503
72434W        W15372  14.841   9.696  27.785  0.0483 -0.0209 -0.4374
72435W        W15373  14.688   9.800  27.271  0.1036 -0.1958 -0.2466
72436W        W15374  16.452   9.439  29.866 -0.1929 -0.1222  0.1224
72437W        W15375  16.207   6.785   0.332 -0.0613 -0.3988 -0.2714
72438W        W15376  17.149   6.812  30.708 -0.1747  0.1386 -0.0404
72439W        W15377  16.125   9.730  27.717 -0.0971  0.3266 -0.0442
72440W        W15378  15.024   7.835  28.505  0.0782  0.1974  0.0342
72441W        W15379  17.230   8.862  28.128 -0.3426  0.2093 -0.0616
72442W        W15380  13.976   9.999  30.062 -0.3181 -0.0030 -0.0690
72443W        W15381  13.918   6.423  30.357  0.1513  0.1113  0.0761
72444W        W15382  16.345  10.260  27.616 -0.2063  0.0767  0.1540
72445W        W15383  18.845  10.324  27.767 -0.1520 -0.0723  0.0071
72446W        W15384  15.099   8.429  28.505 -0.0941 -0.0138  0.2328
72447W        W15385  19.252  11.647  30.741  0.1334  0.0402  0.3344
72448W        W15386  14.410   9.941  29.007  0.0742  0.0308 -0.1157
72449W        W15387  15.661   8.232  31.452 -0.0133 -0.1259  0.0386
72450W        W15388  16.648   7.634  31.532 -0.3236  0.1255 -0.1387
72451W        W15389  16.397   7.183  27.294  0.0875  0.0770  0.0650
72452W        W15390  16.360   7.892  28.731 -0.0198  0.0711 -0.0545
72453W        W15391  17.249  11.190  27.056  0.1645 -0.2196 -0.2239
72454W        W15392  17.562  10.961  27.458  0.1570  0.2189  0.2445
72455W        W15393  16.664   9.034  29.999  0.2601  0.2571  0.1083
72456W        W15394  16.719  10.223  30.760 -0.2069 -0.0420 -0.0042
72457W        W15395  15.034   6.425  30.922  0.0082 -0.0323  0.1849
72458W        W15396  17.672   8.559  29.421 -0.0167  0.2746  0.1143
72459W        W15397  15.965  10.118  31.900 -0.2890  0.3582  0.2274
72460W        W15398  18.928  12.346  28.227 -0.3659  0.0597  0.1269
72461W        W15399  17.565   9.607  28.520 -0.1423 -0.1404  0.0683
72462W        W15400  15.795   9.621  28.766 -0.3256  0.1991  0.1182
72463W        W15401  15.319   7.281   0.700  0.0479 -0.3263  0.1030
72464W        W15402  15.615   8.410  30.595 -0.1745  0.2615 -0.2199
72465W        W15403  17.468   9.184  30.566  0.0577 -0.1845  0.1757
72466W        W15404  16.044   7.432  29.415 -0.0442 -0.0772 -0.0065
72467W        W15405  18.373   7.534  27.717  0.0043  0.0076  0.2542
72468W        W15406  17.018   9.711  28.789  0.1110 -0.0471 -0.2811
72469W        W15407  15.281   7.938  29.214  0.0472 -0.2189  0.1590
72470W        W15408  17.654   8.975  29.115  0.2153 -0.0657 -0.1060
72471W        W15409  16.301   8.213   0.193 -0.0086 -0.1854  0.0898
72472W        W15410  16.403  10.838  29.000  0.0668  0.0791  0.1158
72473W        W15411  18.209   8.990  31.191 -0.0505  0.0538 -0.1154
72474W        W15412  16.010   8.940  28.356  0.3195  0.1695 -0.3145
72475W        W15413  18.058   9.812  26.997 -0.0568  0.1262  0.3966
72476W        W15414  17.845   9.494  29.810 -0.1734 -0.3243 -0.1722
72477W        W15415  18.038  10.727  30.970  0.2247 -0.0657 -0.0869
72478W        W15416  16.848  10.129  29.953 -0.1766  0.0571  0.1120
72479W        W15417  18.212   8.762  30.251  0.3268 -0.5875  0.0605
72480W        W15418  15.590   6.862  29.855  0.4814  0.3039 -0.1596
72481W        W15419  15.063  10.029  28.212  0.0805  0.0625  0.0103
72482W        W15420  16.369   9.823  27.314 -0.0040  0.2372 -0.3097
72483W        W15421  17.258   8.256  29.384 -0.1544 -0.2737 -0.0252
72484W        W15422  15.531   9.182  28.446 -0.2929 -0.2189  0.3186
72485W        W15423  19.213   7.541  27.471  0.1714 -0.0342 -0.0974
72486W        W15424  15.445  11.745  29.470 -0.0302 -0.2585 -0.3474
72487W        W15425  17.793   7.965  30.187 -0.0403  0.0953 -0.3868
72488W        W15426  19.248   8.391  31.814 -0.3371 -0.0093  0.1302
72489W        W15427  18.298   9.452  31.721  0.3092  0.0191 -0.2257
72490W        W15428  15.597   7.865  31.122  0.1532  0.1576  0.0234
72491W        W15429  16.378   9.631  30.940 -0.4146 -0.0473 -0.0177
72492W        W15430  15.378  10.411   0.348  0.0775 -0.1990  0.2034
72493W        W15431  14.021   9.402   0.510  0.2629  0.1238 -0.1899
72494W        W15432  18.344   7.570  31.454 -0.1082 -0.2190  0.0886
72495W        W15433  15.849   7.953   1.267  0.2106 -0.0655  0.1539
72496W        W15434  17.840   8.039  31.007  0.2731  0.1619 -0.1660
72497W        W15435  17.847  10.588  30.153  0.0566 -0.0083  0.2798
72498W        W15436  16.381  11.010   0.388  0.3071  0.0152 -0.1405
72499W        W15437  17.561   7.771  30.581  0.0385  0.1373 -0.0486
72500W        W15438  18.396   7.882  30.993 -0.2863 -0.1875  0.1936
72501W        W15439  17.126   9.395  31.069  0.0346 -0.0419  0.1793
72502W        W15440  18.851   8.492  30.821  0.0469 -0.1200 -0.1227
72503W        W15441  14.501  11.172   0.116  0.2186 -0.2835  0.0637
72504W        W15442  15.313   8.825  29.817  0.0487 -0.3517 -0.0518
72505W        W15443  17.689   9.051  31.038 -0.1898 -0.1567 -0.2473
72506W        W15444  14.855   5.680  31.699  0.1213 -0.0218  0.2841
72507W        W15445  14.394   8.206   0.171  0.0727  0.0911 -0.1232
72508W        W15446  16.230   8.863  31.402 -0.1391 -0.2129 -0.0347
72509W        W15447  13.304   8.883   0.034 -0.0822  0.0501 -0.0096
72510W        W15448  20.200   8.345  31.549  0.0836  0.2780  0.1954
72511W        W15449  17.046   7.087  31.955 -0.1232 -0.1704 -0.1588
72512W        W15450  17.316   6.030   0.013  0.1026  0.2040 -0.1398
72513W        W15451  16.297   8.516  31.774 -0.1485 -0.1291 -0.1143
72514W        W15452  16.541   7.434  31.097  0.1070  0.2940  0.1336
72515W        W15453  15.296  11.680   0.508  0.0527  0.0880  0.0428
72516W        W15454  16.160   7.514  31.768  0.3017  0.2082 -0.0919
72517W        W15455  16.313   9.946   0.175  0.1276 -0.1137  0.3526
72518W        W15456  16.295   8.651  30.892  0.0405  0.0810  0.1112
72519W        W15457  18.313   8.092  31.442  0.0543 -0.1445 -0.0815
72520W        W15458  18.110   9.688  31.313  0.2783 -0.0205 -0.2211
72521W        W15459  16.527   6.949   1.601  0.0017  0.0884  0.0916
72522W        W15460  13.836   5.634   0.861  0.0109  0.1077 -0.0795
72523W        W15461  15.641   8.671  31.232 -0.0761  0.0646  0.0202
72524W        W15462  16.348  10.447  30.471 -0.0984  0.0555 -0.0333
72525W        W15463  17.283   9.613  30.568  0.1473  0.0206 -0.0886
72526W        W15464  18.372   8.772   0.186  0.1178 -0.1460  0.0210
72527W        W15465  16.987   8.892  30.831 -0.1211 -0.1098  0.1813
72528W        W15466  18.093   8.763  31.631 -0.0040  0.0890  0.5048
72529W        W15467  17.018   7.444  31.018  0.1134 -0.0252 -0.0148
72530W        W15468  15.863   8.707  31.788 -0.0211  0.4178 -0.1178
72531W        W15469  16.516   9.795  31.563 -0.0164  0.1682 -0.0227
72532W        W15470  15.392   6.907  31.969 -0.2026  0.2880 -0.0252
72533W        W15471  16.885   9.782  31.916 -0.1691 -0.0515  0.0059
72534W        W15472  16.487   7.588   0.723  0.0558 -0.2341 -0.2431
72535W        W15473  17.199  10.182  31.552 -0.1873 -0.1471 -0.2495
72536W        W15474  17.779   9.421   0.277 -0.1584 -0.0193 -0.1374
72537W        W15475  14.797   9.476   0.414  0.0262 -0.2006  0.4090
72538W        W15476  17.061  11.136  30.589  0.1236 -0.4330 -0.2232
72539W        W15477  19.240   7.880  31.864  0.1946  0.0806 -0.0128
72540W        W15478  16.187   7.304   0.348 -0.1915  0.0200 -0.4381
72541W        W15479  17.749  10.266  30.975 -0.0923  0.1613 -0.1038
72542W        W15480  15.456   7.902   0.048 -0.0923  0.3462 -0.1461
72543W        W15481  16.850   7.182  31.446 -0.2612 -0.0571  0.1158
72544W        W15482  18.293   9.636  30.114  0.1287 -0.2037 -0.0162
72545W        W15483  17.376   9.971  30.138  0.1838 -0.0537 -0.0449
72546W        W15484  15.697  10.079  30.529 -0.0911  0.0866 -0.0637
72547W        W15485  15.105   7.805  31.007  0.2201  0.0284  0.3785
72548W        W15486  14.245   6.714  31.056 -0.0227  0.0617  0.1823
72549W        W15487  15.275   8.807  30.797  0.0283  0.1687 -0.0480
72550W        W15488  15.667   9.140  31.422 -0.0315  0.0409 -0.1293
72551W        W15489  15.271   5.990  30.824 -0.0005 -0.1471  0.2813
72552W        W15490  18.560  11.036  30.447  0.3063 -0.0545 -0.3152
72553W        W15491  17.542   9.310   0.731  0.1246  0.0403 -0.1679
72554W        W15492  17.848   8.277  31.635 -0.2226 -0.0386  0.1965
72555W        W15493  14.230  12.605  18.449  0.0509 -0.1449  0.4568
72556W        W15494  15.498  11.774  17.106  0.0027  0.1614 -0.0828
72557W        W15495  17.742   9.990  15.455 -0.1377 -0.1080  0.0205
72558W        W15496  17.260  12.947  15.279  0.1525  0.3854  0.4303
72559W        W15497  14.415  10.777  17.438  0.2035  0.0922 -0.0837
72560W        W15498  15.532  14.224  14.719  0.3296 -0.2007  0.0312
72561W        W15499  16.345   9.355  18.634  0.0909  0.0880 -0.1687
72562W        W15500  17.449  12.297  16.214  0.0982 -0.2797  0.1073
72563W        W15501  16.672  13.311  17.684  0.1593 -0.4311 -0.0177
72564W        W15502  16.695  11.912  15.708 -0.1445  0.1251 -0.2087
72565W        W15503  16.030  11.726  17.198 -0.1338  0.0386 -0.0585
72566W        W15504  16.470  13.139  16.519  0.2198 -0.0691 -0.3986
72567W        W15505  15.866  10.726  15.955  0.1457  0.2599  0.1010
72568W        W15506  14.881  11.006  17.443 -0.0644 -0.1094 -0.1356
72569W        W15507  17.677  10.904  17.215 -0.0039  0.0288 -0.2446
72570W        W15508  13.924  12.507  17.358 -0.2907  0.2777  0.1298
72571W        W15509  15.252  11.508  17.574 -0.1054 -0.1635  0.1142
72572W        W15510  15.261  10.771  17.140 -0.0866  0.0622  0.0505
72573W        W15511  16.954  15.541  15.124 -0.1719 -0.0199  0.1620
72574W        W15512  16.172  12.456  18.629  0.1806  0.0315 -0.0707
72575W        W15513  15.601  11.671  19.582 -0.3223 -0.1486  0.2072
72576W        W15514  14.507  11.769  17.117  0.0375 -0.2458  0.2420
72577W        W15515  14.786  12.255  16.196 -0.0025  0.0074 -0.1602
72578W        W15516  13.750  11.275  16.781 -0.0581 -0.0172 -0.2475
72579W        W15517  12.711  12.538  18.146  0.0370 -0.3674  0.3338
72580W        W15518  17.939  11.554  16.651 -0.0402  0.0407  0.0416
72581W        W15519  19.533  13.198  17.642 -0.1253  0.1414  0.5151
72582W        W15520  15.617  12.277  15.755  0.2128 -0.2372 -0.1795
72583W        W15521  16.096  13.110  16.025  0.1796 -0.2506  0.1753
72584W        W15522  17.477  10.080  19.125  0.2253  0.1864 -0.1807
72585W        W15523  13.976  13.085  15.783 -0.0508 -0.2663 -0.5218
72586W        W15524  13.934  13.585  15.661  0.0388 -0.1582  0.2473
72587W        W15525  14.943  12.901  16.792  0.0229  0.2778  0.0320
72588W        W15526  17.526  11.748  16.924  0.1960  0.1452  0.0032
72589W        W15527  15.887  13.353  15.599 -0.0877  0.0841 -0.0653
72590W        W15528  16.299  14.159  17.552  0.1328 -0.1155  0.1339
72591W        W15529  14.543  12.589  16.800  0.0833 -0.0617  0.2658
72592W        W15530  15.842  14.358  17.725  0.0506 -0.0644  0.0119
72593W        W15531  14.806  13.720  16.583 -0.1639 -0.0725  0.3178
72594W        W15532  16.638  12.676  18.915 -0.0451 -0.2276  0.0127
72595W        W15533  15.610  11.087  18.376 -0.1717 -0.1945  0.2496
72596W        W15534  15.861  13.864  14.779 -0.0507 -0.1416 -0.1718
72597W        W15535  16.554  12.399  15.881  0.1356 -0.0847 -0.0368
72598W        W15536  13.896  11.226  20.088  0.2390  0.0338  0.0655
72599W        W15537  14.416  13.653  17.045 -0.1497 -0.0039 -0.0676
72600W        W15538  18.677  11.088  19.299  0.0199 -0.1883 -0.2079
72601W        W15539  14.283  13.188  16.145 -0.0910 -0.2877  0.2390
72602W        W15540  16.753  12.573  16.721 -0.0628 -0.1647  0.1386
72603W        W15541  15.621  11.587  15.115  0.2353  0.1131  0.2170
72604W        W15542  18.422  11.678  16.523  0.0831 -0.1660 -0.3377
72605W        W15543  16.609   9.768  16.192  0.3213 -0.1840  0.3341
72606W        W15544  15.810  13.750  16.811 -0.0478 -0.0897 -0.4018
72607W        W15545  15.799  10.737  18.083 -0.3405  0.0057 -0.1749
72608W        W15546  17.189  12.877  17.009  0.0407 -0.1190  0.2900
72609W        W15547  17.373  12.288  16.764 -0.0411  0.2504  0.1213
72610W        W15548  17.662  11.247  17.643  0.0273  0.3994  0.4301
72611W        W15549  12.425  12.629  17.723 -0.1266 -0.1068  0.1719
72612W        W15550  13.573  12.110  17.339 -0.0044  0.2159 -0.1368
72613W        W15551  17.719  13.651  15.400 -0.3915 -0.1434 -0.0473
72614W        W15552  17.305  12.706  15.947  0.3508 -0.0691 -0.0412
72615W        W15553  15.933  14.418  14.998  0.1358 -0.0990  0.1643
72616W        W15554  13.409  11.934  17.806  0.0772  0.0196  0.0333
72617W        W15555  12.818  13.058  17.830  0.2338  0.1385  0.0192
72618W        W15556  14.078  11.788  19.232  0.0645  0.0938  0.0759
72619W        W15557  15.231  10.785  15.936  0.0050  0.0667  0.1071
72620W        W15558  15.920  12.680  18.106 -0.0745  0.0769  0.3079
72621W        W15559  13.446  13.817  16.678  0.2277  0.0925 -0.0666
72622W        W15560  17.383  10.790  16.543 -0.2502  0.2077 -0.1624
72623W        W15561  15.023  11.867  17.197  0.3023  0.1248  0.2148
72624W        W15562  15.444  13.403  15.984  0.1258  0.1285 -0.2662
72625W        W15563  17.597  14.205  14.901 -0.4362 -0.0371  0.3068
72626W        W15564  17.901  12.229  18.225  0.5227  0.1576 -0.1112
72627W        W15565  17.370  10.115  18.282 -0.1994 -0.1862 -0.1083
72628W        W15566  16.170  11.959  15.978 -0.1882  0.2215  0.2009
72629W        W15567  16.108  10.475  17.685  0.0858 -0.0026 -0.0667
72630W        W15568  16.930  12.572  16.245 -0.1565  0.2819 -0.0486
72631W        W15569  16.448  10.811  17.495 -0.1039 -0.0629  0.1545
72632W        W15570  13.910  13.669  16.584 -0.0868 -0.2764 -0.0006
72633W        W15571  17.168  10.243  19.589  0.0330  0.0633  0.1319
72634W        W15572  16.674  12.933  18.095 -0.0272  0.1823 -0.1418
72635W        W15573  15.241  13.873  15.155  0.1805  0.3322 -0.0164
72636W        W15574  11.789  12.260  17.005 -0.0357 -0.0154  0.0384
72637W        W15575  14.266  12.240  16.992 -0.2296  0.1778  0.0058
72638W        W15576  14.723  10.186  18.204 -0.0907 -0.0545 -0.1872
72639W        W15577  15.474  11.964  17.584  0.0849 -0.0761 -0.1621
72640W        W15578  18.487  12.219  16.463 -0.0779  0.2139  0.1147
72641W        W15579  15.888  10.151  19.206  0.2157  0.4463 -0.0248
72642W        W15580  18.323  10.267  16.427  0.2071 -0.0144  0.0768
72643W        W15581  13.521  12.054  16.018 -0.1466 -0.0584  0.2954
72644W        W15582  16.758  14.220  15.849  0.0113  0.1382 -0.0126
72645W        W15583  18.679  11.949  16.929 -0.1399  0.1647  0.2715
72646W        W15584  18.092  13.998  15.323  0.2733 -0.0814 -0.2269
72647W        W15585  14.377  12.651  17.411  0.0848 -0.1884  0.0490
72648W        W15586  15.038  11.383  17.135  0.2091 -0.2257  0.1367
72649W        W15587  15.142  11.485  19.383 -0.0296  0.0506  0.2390
72650W        W15588  15.097  10.028  17.905  0.2736 -0.1833  0.0964
72651W        W15589  18.072  12.786  17.359  0.3545  0.1451  0.2632
72652W        W15590  15.374  10.647  15.099 -0.1583  0.0664  0.3578
72653W        W15591  17.626  12.229  17.717 -0.0598 -0.2006 -0.1878
72654W        W15592  16.804  12.550  17.760  0.0158  0.2787 -0.2278
72655W        W15593  12.597  12.993  15.995 -0.1171 -0.1887 -0.1118
72656W        W15594  17.215  10.259  17.700  0.1054  0.0601 -0.0811
72657W        W15595  15.538  11.371  15.542  0.3309 -0.2413  0.1016
72658W        W15596  17.163  14.635  16.907 -0.2632  0.3215 -0.0515
72659W        W15597  17.162  11.875  16.390 -0.1255 -0.1492  0.3076
72660W        W15598  15.631   9.678  19.098  0.1852 -0.0255 -0.1478
72661W        W15599  15.861  11.335  16.884  0.0082 -0.2100 -0.0685
72662W        W15600  13.000  12.874  17.244 -0.0820 -0.1502  0.0215
72663W        W15601  15.104  12.279  17.483  0.3017 -0.1920 -0.2767
72664W        W15602  15.308  10.699  16.606 -0.2830  0.1365 -0.0226
72665W        W15603  16.749  14.597  16.607  0.1975 -0.3124 -0.0579
72666W        W15604  15.253  12.747  16.303  0.1220  0.1700 -0.3028
72667W        W15605  13.777  12.669  18.200 -0.2456 -0.1034  0.2134
72668W        W15606  16.997   9.884  18.526 -0.0574 -0.1214  0.1294
72669W        W15607  19.304  11.103  16.670  0.1074  0.0181  0.0292
72670W        W15608  16.639  11.184  17.822 -0.0651 -0.0104 -0.1361
72671W        W15609  13.739  11.713  15.261 -0.2485 -0.1233 -0.1359
72672W        W15610  17.511  14.935  15.511  0.1654  0.3321 -0.2163
72673W        W15611  14.735  13.322  15.694 -0.1569  0.4108  0.3446
72674W        W15612  13.933  13.405  17.042  0.3836 -0.0900  0.1599
72675W        W15613  16.530  13.805  16.253 -0.0458  0.0863 -0.0400
72676W        W15614  17.779  10.024  17.666 -0.1603  0.3579  0.2354
72677W        W15615  14.469  11.059  19.936 -0.0303  0.1569 -0.0089
72678W        W15616  17.434  11.988  18.216  0.0388 -0.2788  0.1278
72679W        W15617  15.122  12.425  15.217  0.3675 -0.1463  0.0567
72680W        W15618  14.605  12.286  18.657 -0.1349  0.1758  0.1673
72681W        W15619  16.673   9.959  16.830  0.0083  0.1537 -0.2031
72682W        W15620  17.704  10.839  15.688  0.0827  0.0650  0.3262
72683W        W15621  16.367  12.917  17.735 -0.1718  0.0484  0.5143
72684W        W15622  16.540  12.838  16.145 -0.2582  0.2158  0.0451
72685W        W15623  16.350  12.432  16.434  0.3471 -0.2002  0.2005
72686W        W15624  15.976  11.471  15.779 -0.0623  0.0957  0.1087
72687W        W15625  12.501  13.932  17.869 -0.2019 -0.0299  0.0827
72688W        W15626  16.353  13.757  14.540  0.1055 -0.0228 -0.0236
72689W        W15627  16.312  12.321  16.960  0.0414  0.0585  0.5330
72690W        W15628  14.730  11.337  14.898  0.2271  0.0120  0.0054
72691W        W15629  19.334  14.241  16.174 -0.0940 -0.3114 -0.0880
72692W        W15630  12.417  12.245  17.385  0.1769  0.0902  0.3513
72693W        W15631  15.012  12.357  18.904 -0.1011  0.2089 -0.1169
72694W        W15632  16.701  13.056  15.298 -0.0658 -0.3005 -0.1315
72695W        W15633  14.558  11.834  18.874 -0.0282  0.2417  0.0624
72696W        W15634  15.825  11.894  15.450 -0.0992 -0.2925  0.2500
72697W        W15635  16.866  10.294  17.154  0.1677  0.1957  0.1961
72698W        W15636  14.596  13.114  14.911  0.1088  0.0717 -0.0297
72699W        W15637  16.863  11.517  15.996  0.0209  0.2162 -0.0296
72700W        W15638  15.603  10.486  18.593  0.1507  0.0688  0.1257
72701W        W15639  16.264  11.498  17.600  0.1243 -0.0581  0.0691
72702W        W15640  17.427  13.031  19.143  0.2340 -0.0731  0.2080
72703W        W15641  17.178  10.979  16.977 -0.1442  0.0530 -0.0487
72704W        W15642  15.854   9.506  17.850 -0.1054 -0.0872 -0.1110
72705W        W15643  14.790  10.961  15.889  0.1487  0.4403 -0.0045
72706W        W15644  16.342  11.130  18.371 -0.2032  0.0952 -0.2103
72707W        W15645  15.464  11.451  18.102  0.0382 -0.1645 -0.0380
72708W        W15646  14.822  12.687  18.360 -0.1127 -0.2417  0.0019
72709W        W15647  16.822  13.701  15.730 -0.0093  0.1531  0.0194
72710W        W15648  16.510  13.531  15.043 -0.1218 -0.2119 -0.0674
72711W        W15649  17.247  10.306  18.721 -0.0113 -0.0477 -0.0764
72712W        W15650  15.336  11.397  16.782  0.0297  0.2288  0.1155
72713W        W15651  15.784  13.986  15.260  0.2084 -0.0280 -0.4861
72714W        W15652  15.427  12.100  15.062  0.1252  0.0996 -0.2314
72715W        W15653  16.005  10.313  18.320  0.0526  0.0012  0.0592
72716W        W15654  14.144  11.962  17.377  0.2400  0.1308  0.1511
72717W        W15655  15.222  12.080  16.122 -0.4006 -0.0572  0.0096
72718W        W15656  16.924  13.063  16.450  0.2185  0.1135  0.2861
72719W        W15657  15.422  12.678  15.538 -0.1479  0.0556  0.0486
72720W        W15658  18.897  10.506  17.134 -0.4215  0.0770 -0.4325
72721W        W15659  13.401  12.585  17.250 -0.3355  0.0041  0.1758
72722W        W15660  14.391  11.757  15.746  0.0973  0.0877  0.3887
72723W        W15661  14.569  11.815  16.264  0.0362  0.3218  0.3571
72724W        W15662  16.838  11.715  17.511 -0.3085  0.1473 -0.3079
72725W        W15663  16.890  12.374  17.290 -0.0899  0.0723 -0.3512
72726W        W15664  14.642  10.833  18.358  0.2059 -0.1162 -0.0137
72727W        W15665  16.395   8.702  18.164 -0.2886 -0.1368  0.1269
72728W        W15666  15.911  13.138  16.844  0.1272 -0.0274  0.0865
72729W        W15667  15.944  11.819  18.051 -0.0245  0.3178  0.2404
72730W        W15668  16.701   9.176  16.784 -0.0790  0.0733  0.0000
72731W        W15669  16.647  12.067  16.283 -0.1196  0.2609  0.2183
72732W        W15670  14.292  13.436  18.251  0.0501 -0.0293  0.0362
72733W        W15671  13.743  11.382  14.915  0.2590 -0.1939 -0.3251
72734W        W15672  17.758  12.745  17.761  0.1401  0.1660 -0.1098
72735W        W15673  15.575  10.335  17.846 -0.0402  0.3222 -0.0531
72736W        W15674  13.851  13.439  16.145  0.2112  0.3043  0.2514
72737W        W15675  16.074  12.526  15.963  0.0952  0.1339  0.2793
72738W        W15676  15.544  11.795  15.849  0.0606 -0.0092  0.1910
72739W        W15677  13.726  11.823  16.887  0.1077  0.0045  0.0203
72740W        W15678  15.846  11.255  19.943  0.0724 -0.1564  0.0164
72741W        W15679  19.325  12.017  17.574 -0.0244 -0.0411 -0.1536
72742W        W15680  15.155  11.058  18.210  0.1202  0.2520 -0.0785
72743W        W15681  14.564  11.294  18.350 -0.1474  0.1972 -0.2262
72744W        W15682  16.206  11.179  17.208 -0.1373 -0.1079 -0.2174
72745W        W15683  14.567  13.219  16.643 -0.2640  0.1890 -0.0040
72746W        W15684  17.239  10.640  18.323  0.0881 -0.2054  0.4258
72747W        W15685  15.349  11.203  19.710  0.0714  0.1013  0.1572
72748W        W15686  15.601  10.682  17.486 -0.4977 -0.1131  0.5995
72749W        W15687  17.558  14.385  15.367  0.0367  0.2277  0.2403
72750W        W15688  17.829  10.407  17.324  0.0022  0.0396 -0.1246
72751W        W15689  14.543  11.292  17.144 -0.0255 -0.2182 -0.0172
72752W        W15690  13.201  12.781  17.970 -0.0693 -0.1826  0.3934
72753W        W15691  15.269  12.343  16.577  0.0495 -0.0056  0.1808
72754W        W15692  16.285  11.989  18.425 -0.0683 -0.3223  0.0050
72755W        W15693  13.353  13.524  16.267 -0.3562 -0.2082  0.1790
72756W        W15694  14.062  13.681  17.511 -0.0933  0.2602 -0.0711
72757W        W15695  14.144  13.033  17.915  0.2066  0.5330 -0.0414
72758W        W15696  16.735  10.605  16.057  0.2020 -0.0375  0.1150
72759W        W15697  14.987  14.538  14.687 -0.1200  0.0521  0.2939
72760W        W15698  15.485   9.891  17.105 -0.2243  0.1433 -0.1076
72761W        W15699  17.646  11.074  19.141  0.1970 -0.2622  0.1100
72762W        W15700  16.166  13.255  14.708 -0.1029  0.0388 -0.1174
72763W        W15701  17.770   9.706  19.645  0.2851 -0.4619 -0.1837
72764W        W15702  15.782  10.219  17.411 -0.1387  0.2915 -0.0532
72765W        W15703  18.825  11.867  16.331 -0.0683  0.1625  0.1598
72766W        W15704  14.007  11.438  18.311 -0.2115 -0.2402  0.0393
72767W        W15705  15.993  15.248  16.697 -0.2518 -0.0189 -0.1792
72768W        W15706  15.502  11.701  18.544 -0.0035 -0.1298  0.0991
72769W        W15707  16.712  11.613  16.475 -0.1106 -0.0734  0.1032
72770W        W15708  15.084  11.304  15.746  0.1203  0.2838 -0.2121
72771W        W15709  15.748  11.529  17.638 -0.2314  0.0950 -0.0625
72772W        W15710  17.127  13.279  17.341 -0.3680  0.1977  0.1622
72773W        W15711  15.365  11.825  16.569  0.1168  0.0084  0.1074
72774W        W15712  18.737  12.006  18.179  0.2391  0.0645  0.1435
72775W        W15713  14.398  11.575  17.989  0.0887 -0.2604  0.0487
72776W        W15714  18.606  11.476  17.129  0.1336  0.1245 -0.0542
72777W        W15715  15.959  10.025  17.947  0.0960 -0.3814 -0.1465
72778W        W15716  14.529  12.639  17.914  0.0918  0.0714 -0.0057
72779W        W15717  15.718  10.825  19.660  0.3139  0.1602 -0.1267
72780W        W15718  15.848  11.768  16.683  0.3623  0.1427 -0.1078
72781W        W15719  17.353  10.506  17.150  0.2818  0.0895  0.1172
72782W        W15720  17.090  11.374  17.712 -0.2227  0.0388  0.3614
72783W        W15721  17.834  10.413  18.368  0.0172 -0.0438  0.3762
72784W        W15722  15.707  12.221  19.300 -0.0576  0.0953 -0.1599
72785W        W15723  15.676  10.854  20.164 -0.0418  0.4253  0.2107
72786W        W15724  18.040  12.850  15.602 -0.2281  0.1179  0.3028
72787W        W15725  17.343  12.237  15.402  0.1066  0.0720 -0.2381
72788W        W15726  17.934  11.321  18.042 -0.0600  0.0287 -0.0818
72789W        W15727  18.621  11.392  17.687  0.2075  0.2613  0.2062
72790W        W15728  15.757  11.521  16.255  0.0575  0.1077 -0.0080
72791W        W15729  14.667  13.078  18.055 -0.0795  0.0273 -0.2315
72792W        W15730  16.909  11.240  18.258 -0.0687  0.2097  0.1541
72793W        W15731  15.176  11.607  16.150  0.2985  0.1749 -0.0219
72794W        W15732  15.926  11.130  18.930  0.1884  0.1576  0.2177
72795W        W15733  16.181  14.327  14.065  0.0653  0.3252  0.1246
72796W        W15734  17.164  13.261  15.732  0.2978 -0.0662  0.4155
72797W        W15735  16.674  10.837  17.035  0.1858  0.1525  0.1823
72798W        W15736  13.873  10.883  18.127  0.0328  0.3220  0.0341
72799W        W15737  13.447  14.052  18.285 -0.2573 -0.0668 -0.0698
72800W        W15738  16.193  12.268  15.506  0.0253 -0.0805 -0.0226
72801W        W15739  16.375  13.344  15.604  0.3402 -0.0483  0.0633
72802W        W15740  15.621  12.373  17.831  0.1662  0.0881 -0.2135
72803W        W15741  17.036  11.749  18.085  0.1550  0.1202  0.0977
72804W        W15742  16.426  11.438  15.802 -0.0441  0.0002  0.2069
72805W        W15743  16.559  12.088  17.779  0.2325 -0.3337 -0.0745
72806W        W15744  13.826  12.500  16.090  0.1799 -0.2949 -0.0572
72807W        W15745  17.358   9.639  18.237 -0.2594 -0.2270 -0.1500
72808W        W15746  14.885  13.413  17.059 -0.0351 -0.0755 -0.1017
72809W        W15747  12.532  13.421  18.093 -0.1161  0.0549  0.0605
72810W        W15748  14.910  15.251  15.695  0.0111 -0.1290 -0.0992
72811W        W15749  16.527  11.646  18.116  0.3713  0.0766 -0.1717
72812W        W15750  16.277  12.797  16.882  0.0546 -0.0503  0.0041
72813W        W15751  16.768  13.144  16.910 -0.0286  0.0219 -0.2517
72814W        W15752  18.458  13.246  17.984  0.0099  0.2116  0.0221
72815W        W15753  15.083  12.927  15.870 -0.2183  0.1140  0.1104
72816W        W15754  15.581  12.753  16.715  0.0416  0.0949 -0.0127
72817W        W15755  17.070  13.967  17.092  0.0820 -0.3646 -0.2635
72818W        W15756  18.467  12.722  16.600 -0.5431 -0.2236  0.0586
72819W        W15757  14.844  11.036  16.823 -0.0724 -0.0958 -0.1710
72820W        W15758  13.169  12.538  18.391  0.4617 -0.1712  0.0192
72821W        W15759  16.554  12.035  19.688  0.0906 -0.1105 -0.0612
72822W        W15760  16.784  12.101  16.836 -0.2116  0.4154  0.1840
72823W        W15761  15.982   9.602  18.340  0.0190 -0.1611 -0.2176
72824W        W15762  15.647  12.916  15.968 -0.2180  0.2865 -0.1537
72825W        W15763  12.805  12.934  18.871  0.0260  0.0631  0.0063
72826W        W15764  13.508  14.631  16.809  0.0476 -0.3128  0.1106
72827W        W15765  14.596  13.779  14.750 -0.1498  0.2665  0.3793
72828W        W15766  17.301  13.979  15.487 -0.1072 -0.0970  0.0094
72829W        W15767  16.412  12.760  15.572 -0.1004  0.3608 -0.1381
72830W        W15768  15.399  12.786  17.286  0.0074 -0.1637 -0.1274
72831W        W15769  17.030  11.156  16.341 -0.0143  0.0180  0.0375
72832W        W15770  14.716  12.104  16.705 -0.1703 -0.1213  0.0959
72833W        W15771  11.841  12.792  16.742 -0.3380 -0.1047  0.0819
72834W        W15772  17.383  14.670  15.011  0.2411  0.1668  0.1740
72835W        W15773  14.843  11.641  16.742 -0.3250  0.2493  0.3041
72836W        W15774  16.453  13.960  17.106  0.0147  0.3706  0.1781
72837W        W15775  16.237  11.548  16.326 -0.0020 -0.2240  0.2257
72838W        W15776  18.851  11.892  17.685 -0.0114  0.1713 -0.1802
72839W        W15777  18.136  11.444  16.164 -0.0567 -0.2519 -0.0216
72840W        W15778  17.192  14.396  16.366  0.1358 -0.1167  0.1279
72841W        W15779  14.643  11.657  17.540 -0.3382 -0.3357  0.1966
72842W        W15780  15.865  10.635  16.503  0.1710 -0.2867 -0.0161
72843W        W15781  16.062  11.907  19.411 -0.0497 -0.1174  0.3160
72844W        W15782  17.553   9.805  18.680 -0.0670  0.0295  0.1149
72845W        W15783  13.154  14.228  16.723  0.3028  0.1635 -0.1938
72846W        W15784  18.469  14.229  14.859 -0.3722 -0.0288  0.1778
72847W        W15785  14.025  10.971  17.056  0.2324 -0.4029  0.0976
72848W        W15786  15.925  11.297  18.049 -0.0284  0.3386  0.1542
72849W        W15787  17.994  10.850  17.604 -0.2723  0.0289  0.1748
72850W        W15788  16.597  12.404  15.222  0.0287  0.2012  0.3719
72851W        W15789  15.552  11.085  17.795  0.0312 -0.0601  0.0171
72852W        W15790  14.075  13.222  16.594  0.1464 -0.1149 -0.1596
72853W        W15791  15.549  14.176  16.912  0.3002 -0.0905 -0.3232
72854W        W15792  15.088  12.739  17.780 -0.1025  0.1563 -0.0481
72855W        W15793  15.681  10.880  16.896  0.1804 -0.2152 -0.2448
72856W        W15794  18.170  11.861  16.976 -0.2225  0.1011  0.1162
72857W        W15795  14.580  11.780  19.411  0.0763  0.0938  0.0108
72858W        W15796  18.912  11.517  18.069  0.3054 -0.2331  0.3308
72859W        W15797  15.538  11.153  17.284  0.0532  0.0673 -0.0404
72860W        W15798  16.025  12.827  16.439  0.3345  0.0278 -0.1696
72861W        W15799  16.964  11.672  16.945 -0.0067  0.1850 -0.0868
72862W        W15800  13.115  13.426  18.154 -0.3442  0.0191  0.1337
72863W        W15801  15.597  11.716  19.037 -0.0436 -0.3767  0.4562
72864W        W15802  18.694  12.660  18.095  0.2023  0.3544 -0.1958
72865W        W15803  15.123  11.484  15.255 -0.2046 -0.0528 -0.0927
72866W        W15804  16.244  13.962  16.675  0.2241 -0.0977 -0.2247
72867W        W15805  14.837  11.306  17.949  0.3726  0.3473 -0.0291
72868W        W15806  15.561  11.202  15.982 -0.0380 -0.2054 -0.2752
72869W        W15807  13.919  11.871  17.920 -0.2462  0.1610  0.0262
72870W        W15808  17.019  10.888  17.494  0.0006 -0.0991 -0.1053
72871W        W15809  16.760  13.592  17.205 -0.1114 -0.1969 -0.0812
72872W        W15810  15.902   8.979  17.896  0.1069 -0.0153  0.0602
72873W        W15811  17.802  12.213  16.988  0.4146 -0.3104 -0.0654
72874W        W15812  18.410  11.672  18.106  0.0912  0.0865  0.3805
72875W        W15813  15.678  14.065  14.295 -0.0531  0.3913  0.1532
72876W        W15814  17.223  12.009  17.210 -0.3377  0.0279 -0.2565
72877W        W15815  16.541  14.769  16.127  0.2110 -0.0504 -0.1433
72878W        W15816  13.728  10.767  18.766  0.1983  0.0296 -0.2471
72879W        W15817  16.493  11.865  17.176 -0.0404  0.1161  0.0204
72880W        W15818  18.504  12.427  17.525 -0.0490 -0.1429 -0.1321
72881W        W15819  15.569  11.093  16.451  0.2872 -0.2804 -0.2358
72882W        W15820  14.062  11.503  17.065  0.2018 -0.2518  0.0281
72883W        W15821  14.882  12.884  17.298  0.0026  0.0352 -0.3173
72884W        W15822  17.874  11.370  17.097  0.0776  0.2047 -0.0189
72885W        W15823  17.816  10.162  18.841 -0.0155  0.3079  0.1528
72886W        W15824  15.757  12.408  15.241 -0.1468  0.0606  0.2676
72887W        W15825  18.139  10.940  19.254 -0.0431  0.4545 -0.1366
72888W        W15826  16.385  13.153  17.293  0.0080  0.1979 -0.0332
72889W        W15827  13.936  12.346  17.871  0.0260  0.1587 -0.0154
72890W        W15828  14.202  11.831  16.651 -0.0280 -0.1636  0.0080
72891W        W15829  15.909  12.278  16.642 -0.1374  0.1119  0.0490
72892W        W15830  14.947  12.430  16.987 -0.2729 -0.0981 -0.1961
72893W        W15831  15.722  12.968  15.093 -0.0415 -0.1543 -0.1343
72894W        W15832  17.728  14.129  16.268 -0.1356  0.1519  0.3264
72895W        W15833  16.747  11.284  17.271 -0.2950 -0.2828 -0.0895
72896W        W15834  17.849  12.064  15.326  0.2203  0.2556  0.3254
72897W        W15835  15.086  11.753  18.918 -0.0760 -0.1069  0.0977
72898W        W15836  17.604  11.419  16.031  0.1090 -0.2631  0.2043
72899W        W15837  17.475  11.396  16.547  0.0739  0.0898 -0.2284
72900W        W15838  13.825  12.423  19.373 -0.2525  0.0516 -0.0822
72901W        W15839  15.235  11.967  15.516  0.3768 -0.3162 -0.1609
72902W        W15840  14.115  12.142  15.954  0.0716  0.2638 -0.1140
72903W        W15841  13.698  12.894  17.643  0.2241  0.3848  0.0193
72904W        W15842  16.703  11.586  19.915  0.2246 -0.1778 -0.0021
72905W        W15843  14.144  12.232  18.861  0.2609 -0.0381  0.0412
72906W        W15844  13.599  13.017  17.088  0.1990 -0.1373  0.0355
72907W        W15845  13.909  11.144  15.958 -0.2110  0.0635 -0.0298
72908W        W15846  16.260  13.998  15.002  0.4942 -0.2133  0.2591
72909W        W15847  15.523   9.852  19.785  0.0465  0.1410  0.3332
72910W        W15848  15.138  10.177  16.937  0.2256 -0.1222  0.0133
72911W        W15849  16.141  14.179  14.553 -0.2480 -0.1556  0.0991
72912W        W15850  17.063  14.229  15.073 -0.3501  0.0008 -0.2923
72913W        W15851  17.052  10.475  16.723 -0.1219 -0.1888 -0.0425
72914W        W15852  18.119  13.139  18.941  0.4164 -0.1953 -0.4285
72915W        W15853  14.844  12.691  14.837 -0.3269 -0.2297 -0.1801
72916W        W15854  16.852  12.191  18.209 -0.1471 -0.2437  0.1623
72917W        W15855  16.743   9.814  19.700 -0.3370 -0.0090  0.1370
72918W        W15856  14.856  10.654  16.451  0.0557 -0.1431  0.0505
72919W        W15857  15.130   9.543  17.946 -0.0050  0.2570 -0.1879
72920W        W15858  15.714  12.008  16.270  0.3247 -0.0370 -0.0494
72921W        W15859  15.852  15.398  16.118  0.2966  0.1702  0.0146
72922W        W15860  14.496  13.336  17.611  0.2795  0.2385  0.1753
72923W        W15861  13.938  13.814  18.302  0.0234  0.2383  0.0882
72924W        W15862  15.209  10.787  18.701  0.2132  0.3125 -0.1733
72925W        W15863  16.314  11.503  16.828  0.2357 -0.2320  0.1865
72926W        W15864  16.387  11.594  18.721 -0.0383  0.2754 -0.1750
72927W        W15865  17.899  11.020  16.109 -0.0709  0.1489  0.1025
72928W        W15866  18.696   9.978  18.409 -0.1342  0.1792  0.1290
72929W        W15867  17.312  11.403  17.254 -0.0901 -0.0352 -0.1947
72930W        W15868  14.472  10.414  19.134 -0.0789 -0.1460 -0.2042
72931W        W15869  11.892  13.019  18.952 -0.2679 -0.2182 -0.0125
72932W        W15870  17.899  12.810  16.387  0.0219  0.2881  0.3189
72933W        W15871  16.375   9.213  18.140  0.1761 -0.0543  0.2769
72934W        W15872  17.545  11.152  15.252  0.4393  0.1283 -0.0628
72935W        W15873  15.882  15.044  14.850 -0.1379 -0.0134 -0.2717
72936W        W15874  13.600  12.694  19.045  0.2416 -0.3036  0.0150
72937W        W15875  16.686  10.764  16.513  0.1987 -0.6452  0.1461
72938W        W15876  15.961  11.503  18.494  0.0657  0.3377 -0.2279
72939W        W15877  16.380  12.651  17.346 -0.0882 -0.3104 -0.0508
72940W        W15878  16.414  12.539  18.118 -0.2187 -0.0102  0.1115
72941W        W15879  14.870  11.843  15.841 -0.0958  0.0771 -0.0826
72942W        W15880  19.160  12.064  16.786 -0.0402  0.0212 -0.0146
72943W        W15881  15.907  14.538  17.270 -0.0768  0.1038 -0.3708
72944W        W15882  16.263  13.506  16.973  0.0445 -0.3008  0.3407
72945W        W15883  15.358  13.618  18.221 -0.3886 -0.1797  0.1859
72946W        W15884  19.582  11.019  18.349 -0.1626 -0.3877 -0.0800
72947W        W15885  15.818   9.346  18.743  0.3008  0.0301 -0.1194
72948W        W15886  15.999  10.963  17.605 -0.0289 -0.0528  0.0213
72949W        W15887  15.458  12.282  17.094  0.0460  0.2248  0.0840
72950W        W15888  17.834  13.513  18.542 -0.1275 -0.1536 -0.1843
72951W        W15889  15.072  10.524  18.234 -0.1113 -0.2794  0.3001
72952W        W15890  16.233  11.023  16.633  0.3415  0.1576 -0.0461
72953W        W15891  14.888  14.553  17.004  0.1429 -0.3970  0.1083
72954W        W15892  15.335  13.168  16.962  0.2152 -0.1056  0.0872
72955W        W15893  14.890  13.468  20.896  0.2331 -0.2255  0.0351
72956W        W15894  14.843  10.266  20.961 -0.1285  0.1674  0.0262
72957W        W15895  18.402  11.323  18.875 -0.0392 -0.0449  0.2168
72958W        W15896  17.127  12.130  18.614  0.1137  0.4202  0.2897
72959W        W15897  14.891  11.097  21.324  0.0246 -0.1541  0.0251
72960W        W15898  17.678  12.122  18.738 -0.0408  0.1301 -0.3290
72961W        W15899  14.558  10.342  22.144  0.3789 -0.5038 -0.1898
72962W        W15900  17.298  12.158  19.185  0.2977 -0.1284 -0.3462
72963W        W15901  18.362  12.263  19.492  0.0823  0.0065 -0.2824
72964W        W15902  15.883  12.535  17.210  0.0153 -0.1015 -0.2524
72965W        W15903  15.616  12.039  20.584  0.4196 -0.0009 -0.1179
72966W        W15904  15.004  12.011  20.703  0.0701 -0.0678  0.1638
72967W        W15905  15.782   9.228  20.285  0.4361  0.0354  0.1338
72968W        W15906  15.814  10.068  21.883  0.3223 -0.0601 -0.2083
72969W        W15907  18.195  12.528  20.402  0.0930  0.0713 -0.1292
72970W        W15908  13.765  10.408  20.640  0.0364  0.0587 -0.0056
72971W        W15909  16.220  10.373  21.669  0.1865 -0.1750  0.2568
72972W        W15910  17.167   9.663  20.071 -0.1955  0.0854 -0.0735
72973W        W15911  15.417  13.311  18.622 -0.2626 -0.6362  0.2913
72974W        W15912  15.319  10.804  22.142  0.0372  0.0517  0.4809
72975W        W15913  18.529  11.631  21.266 -0.0607 -0.2009 -0.0562
72976W        W15914  16.290  13.589  18.578  0.0233 -0.0132  0.3061
72977W        W15915  15.370  11.260  18.836  0.1430 -0.1119  0.0029
72978W        W15916  13.622  12.905  20.941  0.0833  0.1250 -0.0321
72979W        W15917  13.959  12.588  22.506 -0.0422  0.0725  0.0163
72980W        W15918  16.209  11.424  21.763  0.2933 -0.1323 -0.1764
72981W        W15919  17.808  10.212  20.159 -0.1316  0.2898  0.2800
72982W        W15920  14.161  13.417  20.147 -0.0553  0.0243 -0.0350
72983W        W15921  17.277  12.950  18.276  0.2428 -0.1047 -0.2463
72984W        W15922  16.810  11.513  21.167  0.0727 -0.0881  0.1115
72985W        W15923  12.735  12.703  19.357 -0.0150  0.0034  0.3659
72986W        W15924  14.744  14.189  18.702  0.3549  0.0907 -0.2762
72987W        W15925  15.674  12.749  18.609 -0.2558  0.2784  0.0613
72988W        W15926  17.952  13.013  20.340  0.0421 -0.0280 -0.2175
72989W        W15927  17.311  12.099  20.112 -0.0008  0.3624 -0.0227
72990W        W15928  15.565  12.840  19.685 -0.2491  0.0102 -0.1106
72991W        W15929  13.554  11.910  18.645  0.0051  0.1914  0.1288
72992W        W15930  15.973  12.122  20.952 -0.0479  0.0388 -0.1326
72993W        W15931  14.956  13.131  21.287  0.1413 -0.1529  0.0182
72994W        W15932  16.351  11.429  21.289  0.1851  0.1291  0.0686
72995W        W15933  16.321  11.391  20.276 -0.1798 -0.0177  0.0093
72996W        W15934  15.220  13.134  18.079 -0.1238  0.1315 -0.2084
72997W        W15935  14.843  11.318  20.178 -0.0249 -0.2372 -0.0387
72998W        W15936  16.428  12.279  21.732 -0.2151  0.1354 -0.1773
72999W        W15937  14.326  12.923  21.179  0.0422 -0.2142 -0.0574
73000W        W15938  19.220  11.215  23.643 -0.2848 -0.0285  0.2035
73001W        W15939  13.440  12.192  19.088  0.0078 -0.0443  0.2168
73002W        W15940  18.123  11.412  19.307  0.1806  0.1322 -0.0824
73003W        W15941  16.926  12.606  18.486  0.1017  0.0944  0.0818
73004W        W15942  18.856  10.064  20.936 -0.0850  0.4224 -0.2857
73005W        W15943  15.595  10.176  20.382 -0.1916  0.0400  0.2746
73006W        W15944  14.264  13.402  19.234  0.1302  0.0862  0.0790
73007W        W15945  15.144  11.696  21.726  0.1060 -0.2798  0.2737
73008W        W15946  17.329  11.990  20.689  0.4354  0.0186 -0.2574
73009W        W15947  15.984  12.692  20.012 -0.0883  0.0175  0.1346
73010W        W15948  18.081  10.949  20.136 -0.0674 -0.3123 -0.1101
73011W        W15949  13.019  13.281  19.794 -0.2624  0.3793  0.0803
73012W        W15950  13.374  11.232  19.822  0.3622 -0.2490  0.4749
73013W        W15951  18.745  13.941  17.541  0.0738 -0.3030  0.0502
73014W        W15952  18.639  13.126  18.918  0.1457 -0.1212 -0.0288
73015W        W15953  14.788  14.829  16.520 -0.1431 -0.1023 -0.0703
73016W        W15954  14.716  11.381  21.762  0.0225 -0.1842  0.3303
73017W        W15955  14.760  12.883  20.896  0.3348  0.1829 -0.0371
73018W        W15956  13.721  13.112  21.855  0.0174  0.1300  0.1319
73019W        W15957  15.621  11.267  19.313  0.3085  0.0126 -0.2083
73020W        W15958  18.532  11.599  20.224  0.1580 -0.0519 -0.0300
73021W        W15959  13.083  12.482  21.491 -0.0398 -0.0832  0.0567
73022W        W15960  18.198  10.121  21.525  0.2375 -0.0230 -0.3131
73023W        W15961  14.787  12.044  19.790 -0.3720 -0.4317  0.1634
73024W        W15962  16.465  12.517  20.307 -0.0439 -0.0251 -0.0531
73025W        W15963  16.154  12.318  17.597  0.0469 -0.2486  0.2091
73026W        W15964  18.174  10.598  21.994  0.0980  0.0205 -0.1135
73027W        W15965  18.447  12.549  21.417 -0.0820 -0.0566 -0.0987
73028W        W15966  15.780  12.231  18.339  0.0803  0.1193 -0.1221
73029W        W15967  13.314  11.013  18.923  0.0786 -0.0495 -0.4758
73030W        W15968  17.510  12.062  19.643  0.2161 -0.2269 -0.2193
73031W        W15969  17.278  10.826  18.812 -0.1698  0.1164 -0.2368
73032W        W15970  15.036  13.374  19.659  0.0990  0.3177  0.0486
73033W        W15971  15.181  11.469  22.583 -0.1131  0.0270  0.0346
73034W        W15972  15.996  12.414  20.501 -0.0737  0.0731  0.1261
73035W        W15973  15.124  12.046  18.549  0.1858  0.2835  0.2784
73036W        W15974  14.086  11.675  20.921  0.1081 -0.4134 -0.2443
73037W        W15975  14.610  12.101  21.024 -0.2438 -0.2368 -0.0900
73038W        W15976  14.309  10.422  21.140  0.0413 -0.1851  0.1191
73039W        W15977  14.860  11.867  22.727 -0.0155  0.2452 -0.3283
73040W        W15978  18.747  10.304  21.382 -0.0486 -0.0114  0.1510
73041W        W15979  13.914  10.833  21.989  0.1951  0.1317 -0.2391
73042W        W15980  16.410   9.146  21.229  0.0678  0.2085 -0.1635
73043W        W15981  14.762  10.476  21.392 -0.0432  0.3048  0.0353
73044W        W15982  19.066  13.082  18.560 -0.2571  0.1507  0.1384
73045W        W15983  17.019  10.038  21.851 -0.2276  0.2245 -0.1643
73046W        W15984  18.200  12.756  18.092 -0.3639 -0.2234  0.4704
73047W        W15985  13.470  11.774  22.323 -0.0692  0.2020  0.0609
73048W        W15986  14.648  10.848  20.367  0.0335  0.2278  0.0859
73049W        W15987  15.677  10.943  22.492 -0.1439  0.2228 -0.1434
73050W        W15988  13.578  11.034  21.663  0.2585  0.4525 -0.4000
73051W        W15989  18.747  11.234  21.529 -0.1756 -0.0077 -0.0400
73052W        W15990  14.998  10.388  19.213 -0.3698  0.0370  0.1497
73053W        W15991  16.971  12.651  21.508  0.1986  0.1468  0.2681
73054W        W15992  15.814  11.039  21.704  0.1121  0.1174 -0.0400
73055W        W15993  11.812  12.248  19.486  0.3106 -0.1665  0.1773
73056W        W15994  18.423  11.164  21.131  0.0213 -0.1628 -0.0755
73057W        W15995  17.230  12.820  17.709 -0.1049  0.1693  0.1546
73058W        W15996  18.600  12.345  18.497  0.2062  0.4446 -0.2928
73059W        W15997  18.059  13.581  18.035  0.1823  0.1999  0.2460
73060W        W15998  15.424  10.451  22.609 -0.0118  0.1220 -0.1069
73061W        W15999  15.052  10.869  19.999  0.0716 -0.0571  0.2680
73062W        W16000  12.552  13.888  18.373 -0.2996  0.3151 -0.0533
73063W        W16001  15.181  12.010  19.372  0.1763 -0.3082 -0.1696
73064W        W16002  15.114  10.991  20.467  0.2146 -0.0075  0.0230
73065W        W16003  18.009  13.139  17.743 -0.2750 -0.1027  0.0149
73066W        W16004  14.962  12.310  18.055  0.1032 -0.1355 -0.2166
73067W        W16005  14.648  13.113  22.174  0.1071  0.2947 -0.0147
73068W        W16006  16.583  10.818  21.173  0.3646  0.1680 -0.2783
73069W        W16007  20.371  10.357  20.811 -0.0013  0.1684 -0.1452
73070W        W16008  16.548  10.514  20.756 -0.4311  0.3831 -0.2293
73071W        W16009  16.242  10.126  18.795  0.2700 -0.0355 -0.0185
73072W        W16010  16.473  14.053  18.541 -0.1178  0.0126  0.0956
73073W        W16011  13.866  12.702  19.779 -0.1164 -0.1935  0.1464
73074W        W16012  13.555  11.749  20.893 -0.2595 -0.0471  0.0490
73075W        W16013  15.574  12.287  18.758 -0.1403 -0.1594 -0.1653
73076W        W16014  18.826  11.481  20.898  0.0981  0.0347 -0.4649
73077W        W16015  13.494  12.322  22.233 -0.1394  0.2037 -0.1019
73078W        W16016  17.511  10.978  20.060 -0.0715 -0.2380  0.1432
73079W        W16017  14.044  11.789  18.749  0.2787  0.1249  0.1278
73080W        W16018  13.999  12.556  21.114  0.0244 -0.0042  0.1747
73081W        W16019  16.703  11.423  21.991 -0.2708  0.2041 -0.0478
73082W        W16020  18.224  10.492  20.015 -0.4164  0.0489 -0.0314
73083W        W16021  16.409  11.742  20.891  0.0334  0.2669 -0.0679
73084W        W16022  18.077  12.562  18.565  0.2003  0.3210 -0.1853
73085W        W16023  17.263  10.794  20.430 -0.1504  0.3206  0.0470
73086W        W16024  16.216  10.780  20.000  0.2245  0.2730  0.0980
73087W        W16025  13.422  13.844  21.326  0.1759  0.1338  0.2296
73088W        W16026  16.730  13.117  18.533 -0.3890 -0.0943 -0.2184
73089W        W16027  14.704  12.306  20.424  0.0103 -0.1502  0.1427
73090W        W16028  16.486  10.283  20.200  0.0820 -0.2338 -0.0249
73091W        W16029  18.809  12.416  19.504  0.0008  0.4531  0.1135
73092W        W16030  13.873  12.962  20.223  0.0685 -0.0042  0.3597
73093W        W16031  15.579  12.512  20.197  0.2924 -0.0179  0.1937
73094W        W16032  16.781  14.267  17.973  0.1854 -0.2383 -0.0287
73095W        W16033  15.729  10.477  21.638 -0.1772  0.1470 -0.0766
73096W        W16034  16.281  11.218  19.773  0.1896  0.0618  0.0480
73097W        W16035  16.123   9.330  21.614  0.1665  0.0119  0.0078
73098W        W16036  12.148  14.174  18.142  0.0170 -0.0375 -0.1096
73099W        W16037  17.905  10.591  21.501 -0.3154  0.2215  0.0878
73100W        W16038  16.137  10.798  21.421  0.3358 -0.4058  0.2391
73101W        W16039  15.959   9.489  22.660 -0.0203 -0.0109 -0.0196
73102W        W16040  18.828  10.871  21.194  0.0172  0.3105  0.1912
73103W        W16041  17.509  11.081  21.012  0.0374 -0.3343 -0.1983
73104W        W16042  18.322  11.585  20.791  0.0617 -0.0780  0.0921
73105W        W16043  15.093  11.031  19.204 -0.0608  0.1210 -0.1718
73106W        W16044  15.750  12.047  22.559  0.3100 -0.0626 -0.0501
73107W        W16045  14.829  10.845  21.789  0.1393 -0.0240  0.0080
73108W        W16046  13.372  14.025  19.955  0.1458 -0.0743 -0.0277
73109W        W16047  16.612  12.542  19.700  0.1286  0.0422  0.0875
73110W        W16048  15.992  10.713  20.958  0.0833 -0.1643  0.1849
73111W        W16049  16.300   9.256  20.304 -0.1565  0.0306 -0.1245
73112W        W16050  14.260  12.198  19.478 -0.0092  0.1621  0.4453
73113W        W16051  14.958  12.485  19.470 -0.0092 -0.1956  0.1692
73114W        W16052  16.101  10.475  20.477 -0.0125  0.1634  0.0408
73115W        W16053  15.903  12.761  19.297  0.3770  0.0451  0.0214
73116W        W16054  14.714  11.800  20.190  0.0369 -0.2698 -0.1567
73117W        W16055  17.095  13.033  18.785 -0.5057 -0.0131 -0.0442
73118W        W16056  13.858  13.006  19.369  0.1442 -0.0491 -0.0777
73119W        W16057  17.992  11.219  20.722  0.0506  0.1182 -0.1614
73120W        W16058  13.963  13.879  19.183  0.1061  0.1265  0.1080
73121W        W16059  13.359  11.992  19.940 -0.2543 -0.1151  0.0474
73122W        W16060  13.419  12.943  18.497  0.1872  0.0029 -0.2074
73123W        W16061  17.819  10.261  21.811  0.1775 -0.1728  0.0994
73124W        W16062  19.696  12.163  18.945  0.1476 -0.4034  0.0579
73125W        W16063  15.574  11.865  21.409  0.1078 -0.2739 -0.1274
73126W        W16064  15.647  10.602  20.658  0.1128 -0.0137 -0.0688
73127W        W16065  13.700  13.618  20.017  0.0090 -0.2635 -0.0824
73128W        W16066  17.460  12.216  21.639 -0.0170  0.0419 -0.1605
73129W        W16067  16.709   9.431  20.611  0.0784  0.0768 -0.2315
73130W        W16068  16.855  13.196  19.424 -0.2067 -0.1202 -0.2957
73131W        W16069  15.123  12.420  22.404 -0.0181  0.2177 -0.1397
73132W        W16070  14.321  10.875  19.062  0.1362 -0.1926 -0.1553
73133W        W16071  20.065  12.458  21.585  0.0303 -0.2388 -0.4255
73134W        W16072  15.378  10.395  21.117 -0.1819 -0.0092  0.2963
73135W        W16073  13.594  12.488  20.189 -0.1945 -0.2786  0.0631
73136W        W16074  16.161  12.913  18.818 -0.1932 -0.1843  0.0785
73137W        W16075  14.647  10.775  19.402 -0.2870 -0.0517 -0.0169
73138W        W16076  14.632  12.221  19.197 -0.2103 -0.1843 -0.1018
73139W        W16077  15.946  11.198  22.166  0.1058  0.2480  0.2028
73140W        W16078  18.525  12.051  21.570  0.1026  0.0390  0.0359
73141W        W16079  16.071  12.454  21.456 -0.0733 -0.1171  0.0988
73142W        W16080  15.236  10.560  21.534 -0.5456  0.2224 -0.2136
73143W        W16081  16.832  12.286  20.084 -0.4396  0.0115 -0.2183
73144W        W16082  17.093  11.831  19.800 -0.2315 -0.0676  0.1494
73145W        W16083  16.400  11.110  23.296 -0.2529  0.0962  0.1251
73146W        W16084  16.261  12.973  21.093 -0.0980 -0.0955 -0.0511
73147W        W16085  15.665   9.851  22.856  0.0661 -0.1162  0.0013
73148W        W16086  18.343  12.312  17.086  0.3335  0.1307 -0.2147
73149W        W16087  17.426  12.443  22.497  0.1729 -0.0114 -0.3067
73150W        W16088  15.143  11.633  19.931 -0.0355 -0.2981 -0.2340
73151W        W16089  12.290  12.884  22.416 -0.1483  0.2180 -0.3747
73152W        W16090  13.335  12.402  19.605 -0.0362  0.1327  0.0114
73153W        W16091  16.685  11.851  22.547 -0.3379  0.1940  0.1616
73154W        W16092  14.717  13.494  20.042 -0.0558  0.1781 -0.1499
73155W        W16093  14.430  11.556  19.837 -0.3347  0.1854  0.0535
73156W        W16094  13.334  13.020  20.182 -0.2996  0.0071  0.1623
73157W        W16095  16.682  10.903  19.574 -0.0178  0.1766  0.2271
73158W        W16096  16.793  13.339  16.049  0.2090  0.2137  0.2547
73159W        W16097  15.603  10.828  21.253  0.1397 -0.0628  0.2197
73160W        W16098  19.157  11.483  21.358 -0.2941 -0.2316  0.1863
73161W        W16099  17.100  11.719  20.333  0.4232  0.1821  0.0879
73162W        W16100  18.099  10.996  22.839  0.0722  0.1522  0.0660
73163W        W16101  15.877  10.093  21.362  0.1849 -0.1825  0.0759
73164W        W16102  17.708  13.021  18.699 -0.2869  0.2470 -0.3879
73165W        W16103  13.773  10.652  22.551  0.0814  0.4045  0.3128
73166W        W16104  16.040  13.273  19.221  0.2011  0.0146  0.0177
73167W        W16105  15.480  11.661  20.929  0.0640  0.1929 -0.0945
73168W        W16106  18.407  10.635  21.342  0.4446 -0.0561  0.1801
73169W        W16107  14.395  10.525  20.020 -0.5023 -0.1613 -0.0906
73170W        W16108  15.292  13.265  20.570  0.1088 -0.2069  0.0670
73171W        W16109  17.005  13.490  19.072 -0.0305  0.0014 -0.1768
73172W        W16110  16.785  11.345  18.741 -0.1177 -0.0413  0.1138
73173W        W16111  17.199   9.928  20.537 -0.0734 -0.3487 -0.2592
73174W        W16112  14.078  12.744  21.564  0.0232  0.2376  0.0854
73175W        W16113  16.980  11.730  19.026  0.1581 -0.0373  0.0237
73176W        W16114  17.258  11.530  20.908  0.3239 -0.1666  0.0238
73177W        W16115  16.704  11.386  19.455  0.2197 -0.0329  0.0253
73178W        W16116  14.668  11.339  22.540 -0.0952  0.3314 -0.0732
73179W        W16117  16.661  12.237  18.742 -0.0053  0.2243 -0.2273
73180W        W16118  15.703  11.549  22.506 -0.2488  0.0399 -0.1424
73181W        W16119  15.693  12.551  22.609 -0.0907 -0.1609  0.1444
73182W        W16120  19.679  13.321  20.891  0.0382  0.1183 -0.3003
73183W        W16121  14.247  12.307  21.789  0.2653 -0.0614 -0.2034
73184W        W16122  15.384  11.448  22.125 -0.1284 -0.1226 -0.1478
73185W        W16123  18.242  11.957  18.507  0.0188 -0.2721  0.1020
73186W        W16124  19.216  11.452  20.455 -0.0789  0.1594 -0.0884
73187W        W16125  19.043  11.080  20.735  0.0131  0.1281 -0.1273
73188W        W16126  18.473  10.759  20.863  0.3127 -0.1093  0.2955
73189W        W16127  14.628  11.606  21.283 -0.0732 -0.0256  0.1620
73190W        W16128  18.083  11.885  21.311 -0.4352 -0.0491 -0.0420
73191W        W16129  15.594  10.340  19.565 -0.2835 -0.0763 -0.0509
73192W        W16130  18.344  11.506  21.700  0.1371  0.2813  0.1371
73193W        W16131  16.238  12.336  19.110 -0.2153  0.1347  0.2326
73194W        W16132  15.950  12.000  18.904 -0.1602  0.1190 -0.1120
73195W        W16133  17.327  10.087  20.966 -0.2393  0.0964 -0.5905
73196W        W16134  13.666  12.395  21.522  0.0529  0.1775  0.0477
73197W        W16135  16.501  10.497  19.154 -0.1396  0.0992  0.1040
73198W        W16136  16.175  11.748  19.871 -0.1122  0.3485  0.2701
73199W        W16137  15.855  13.404  18.724  0.1807  0.0984  0.4343
73200W        W16138  18.998  11.982  21.388 -0.2865  0.0973  0.1461
73201W        W16139  17.215   9.370  20.528  0.1655  0.2948 -0.0305
73202W        W16140  18.751  10.626  21.749  0.1989 -0.0788 -0.0139
73203W        W16141  11.534  12.350  18.364  0.2418 -0.1053  0.0017
73204W        W16142  16.928  11.032  20.847 -0.3101 -0.0466 -0.0587
73205W        W16143  15.271  14.139  18.941  0.0616  0.1738 -0.0258
73206W        W16144  13.551  12.840  22.353 -0.0820 -0.0406 -0.3522
73207W        W16145  15.610  11.752  20.151 -0.0050  0.0342 -0.0966
73208W        W16146  16.373  10.985  21.888  0.2897 -0.0390  0.3241
73209W        W16147  18.032  11.594  20.370  0.1458 -0.1920  0.0322
73210W        W16148  16.460  12.904  19.376  0.2029  0.2215  0.0886
73211W        W16149  18.749  11.915  19.842  0.2017 -0.2119 -0.1790
73212W        W16150  14.287  13.058  19.735  0.4431 -0.0085  0.1373
73213W        W16151  16.069  11.883  20.381 -0.0792 -0.2554 -0.1730
73214W        W16152  14.867  12.951  19.862 -0.2935 -0.2461 -0.2751
73215W        W16153  17.318  13.778  17.724  0.3878  0.1239  0.0854
73216W        W16154  14.687  11.521  20.697  0.0950  0.1168  0.1580
73217W        W16155  12.904  11.570  23.093 -0.2862 -0.1509  0.2633
73218W        W16156  17.214  12.382  20.987  0.3720 -0.2819  0.1813
73219W        W16157  16.753  11.804  18.506  0.2361  0.1582 -0.1908
73220W        W16158  15.372   9.519  20.225 -0.0523  0.0759 -0.2151
73221W        W16159  15.958  12.948  17.438  0.2298  0.1846  0.1057
73222W        W16160  13.631  13.338  20.483  0.1261 -0.2813 -0.1861
73223W        W16161  13.952  11.930  20.353  0.0521 -0.3343 -0.0988
73224W        W16162  12.788  14.395  17.991  0.0205  0.2036  0.4218
73225W        W16163  16.514  11.003  19.012 -0.1924  0.2119 -0.1027
73226W        W16164  17.588  10.616  19.195 -0.3921 -0.0073  0.1934
73227W        W16165  15.147  12.093  20.239 -0.2432  0.2636  0.1524
73228W        W16166  17.445  10.604  21.171  0.1368  0.1255 -0.1269
73229W        W16167  13.129  12.801  19.807 -0.0569  0.3999  0.0485
73230W        W16168  11.911  13.712  18.584  0.2610 -0.0983  0.0895
73231W        W16169  15.618  14.823  17.510 -0.0285  0.1569  0.1772
73232W        W16170  14.585  13.751  18.415  0.1914  0.2214 -0.0970
73233W        W16171  18.173  13.238  19.712 -0.1742 -0.1966 -0.2055
73234W        W16172  18.472  10.667  19.583  0.1151 -0.0549  0.2920
73235W        W16173  17.072  12.324  19.588  0.0175 -0.1706  0.0847
73236W        W16174  16.850  12.351  20.613 -0.2249  0.2184  0.0767
73237W        W16175  16.957  12.771  20.283 -0.0506  0.0691  0.1904
73238W        W16176  16.125  12.435  19.603 -0.2724  0.0245  0.1153
73239W        W16177  16.517  10.933  20.395 -0.0844  0.1767  0.0529
73240W        W16178  12.645  11.622  22.681  0.0931 -0.1291 -0.0018
73241W        W16179  19.003  10.968  22.051 -0.3311 -0.0192 -0.3172
73242W        W16180  13.421  13.878  20.674  0.0160 -0.1668 -0.1951
73243W        W16181  16.707  13.809  18.150  0.2696 -0.2196 -0.1435
73244W        W16182  15.374  10.446  19.984  0.2882 -0.3502  0.1951
73245W        W16183  15.093  11.432  20.991 -0.2391  0.1659 -0.0257
73246W        W16184  19.374  10.162  22.662  0.0763 -0.5222 -0.0640
73247W        W16185  15.713  13.197  18.244  0.1761 -0.2600 -0.0995
73248W        W16186  17.900  11.315  21.236  0.1253  0.2333 -0.0040
73249W        W16187  15.607  13.034  18.991 -0.2286 -0.1898  0.0381
73250W        W16188  15.073  13.876  19.764 -0.0320 -0.2774  0.1182
73251W        W16189  15.018  12.554  20.121 -0.0441 -0.2860 -0.0996
73252W        W16190  13.992  10.821  20.910 -0.0206  0.0944 -0.0594
73253W        W16191  18.370  11.127  19.749 -0.0637  0.1165 -0.1561
73254W        W16192  16.044  11.940  21.570 -0.0454 -0.0910 -0.1661
73255W        W16193  18.565  11.663  22.147 -0.3315 -0.2269  0.0131
73256W        W16194  15.148  11.608  20.456  0.0891 -0.1360  0.1221
73257W        W16195  17.607   9.445  21.185 -0.2805 -0.0831  0.0372
73258W        W16196  15.399  12.314  19.782 -0.5062  0.2524 -0.0015
73259W        W16197  14.304  11.240  20.864 -0.1337 -0.1058 -0.0436
73260W        W16198  16.102  10.969  19.386  0.1635 -0.1157 -0.1984
73261W        W16199  18.112  12.894  21.143  0.1744 -0.5682 -0.1262
73262W        W16200  16.179  11.480  19.221 -0.0347  0.0407  0.0465
73263W        W16201  16.432  13.453  19.644 -0.1223  0.1783  0.1252
73264W        W16202  16.358  11.172  20.802 -0.3086 -0.1506 -0.1291
73265W        W16203  16.185   9.229  20.773  0.2053 -0.0424  0.1883
73266W        W16204  12.384  12.398  19.519  0.0902 -0.0689  0.0332
73267W        W16205  15.856  12.166  20.002 -0.2836  0.1449  0.1310
73268W        W16206  17.365  13.198  19.599  0.1384 -0.0059  0.0761
73269W        W16207  14.358  10.363  18.619 -0.0351 -0.3123  0.4619
73270W        W16208  18.302  14.014  18.105  0.1317  0.0475  0.2125
73271W        W16209  17.586  11.325  20.495 -0.0602  0.0658  0.3322
73272W        W16210  13.137  12.360  20.174 -0.1824  0.0451  0.0375
73273W        W16211  18.001  10.783  20.965 -0.0458 -0.0636 -0.1787
73274W        W16212  17.475  13.235  17.679  0.3808  0.4350  0.1887
73275W        W16213  13.989  11.316  21.816 -0.2487  0.0908 -0.1205
73276W        W16214  18.524  13.345  19.358 -0.2014  0.1205 -0.0340
73277W        W16215  18.196  12.239  18.954 -0.2475 -0.4881 -0.2216
73278W        W16216  16.802   9.426  21.356 -0.2670 -0.0551  0.1474
73279W        W16217  16.853  11.995  20.964 -0.0147 -0.1410 -0.0499
73280W        W16218  13.089  12.562  19.000  0.0091 -0.3303 -0.0695
73281W        W16219  18.539  10.727  20.293 -0.2688  0.2026 -0.1389
73282W        W16220  19.445  12.723  20.677  0.0338  0.1496  0.2622
73283W        W16221  15.493  14.138  17.461 -0.0446  0.1865 -0.0834
73284W        W16222  17.388  10.512  21.886 -0.1298  0.1423 -0.0735
73285W        W16223  15.483  12.342  21.048 -0.3333  0.1959  0.0609
73286W        W16224  14.974  12.946  20.381 -0.1656 -0.2026  0.0974
73287W        W16225  14.652  11.891  18.259  0.0672  0.0144 -0.1907
73288W        W16226  14.696  11.755  22.115 -0.0494 -0.6008  0.4885
73289W        W16227  16.271  12.978  18.360 -0.1044 -0.1752  0.1657
73290W        W16228  15.298  13.581  17.351  0.0604  0.0079  0.1322
73291W        W16229  17.750  13.396  19.375 -0.0137 -0.1472  0.0681
73292W        W16230  15.792  11.499  20.566  0.2692 -0.1050 -0.3121
73293W        W16231  17.307  12.585  18.858 -0.0763 -0.0078  0.1355
73294W        W16232  16.314  10.334  21.138 -0.0036  0.4010 -0.0441
73295W        W16233  19.182  11.048  19.372 -0.3863 -0.0435  0.1746
73296W        W16234  17.511  10.318  20.539  0.1782 -0.2420 -0.1834
73297W        W16235  13.914  13.144  21.411 -0.2420 -0.1674 -0.2801
73298W        W16236  12.929  11.636  19.801 -0.0627 -0.0293  0.1465
73299W        W16237  15.427  11.946  18.084  0.2913 -0.0692 -0.0958
73300W        W16238  14.323  12.041  19.965 -0.0050  0.3794 -0.1331
73301W        W16239  16.900  10.617  22.519  0.1143  0.1070  0.0044
73302W        W16240  15.213  11.144  21.716 -0.1451  0.2064  0.1871
73303W        W16241  13.456  11.631  20.287 -0.0134  0.1803  0.1228
73304W        W16242  13.961  10.383  18.904  0.1771 -0.0044 -0.3302
73305W        W16243  16.861  13.547  16.588 -0.1007 -0.0540 -0.2422
73306W        W16244  15.448  11.293  20.189 -0.1153 -0.1213 -0.0747
73307W        W16245  14.948  10.016  21.449 -0.0573  0.2354 -0.0256
73308W        W16246  17.727  11.150  18.503  0.1968  0.1419 -0.1666
73309W        W16247  17.170  13.920  18.205  0.0534  0.3861 -0.0739
73310W        W16248  16.034   9.818  20.185  0.2198 -0.1684  0.1520
73311W        W16249  17.794  12.396  20.116  0.0436  0.0592 -0.0480
73312W        W16250  15.383  12.690  18.245  0.1956 -0.0446  0.2280
73313W        W16251  15.939  11.668  21.148 -0.1884  0.0676  0.0983
73314W        W16252  15.609  12.057  22.015  0.1606  0.0343  0.0811
73315W        W16253  13.999   9.877  19.815  0.0329  0.0589 -0.0253
73316W        W16254  16.908  12.138  21.497 -0.4500  0.3321 -0.2832
73317W        W16255  15.586  12.907  17.757 -0.0150 -0.1391  0.2600
73318W        W16256  17.311  13.274  16.235  0.0527 -0.1870  0.0494
73319W        W16257  15.394  11.104  20.846  0.0950  0.2476 -0.1057
73320W        W16258  15.577  13.812  18.658  0.3135 -0.2830  0.1101
73321W        W16259  14.299  10.471  20.594 -0.0618  0.1489  0.2591
73322W        W16260  17.502  12.608  19.395 -0.0145 -0.1178  0.1915
73323W        W16261  16.683  12.648  21.063  0.0370 -0.3985  0.1165
73324W        W16262  16.502  11.828  19.171 -0.1160 -0.2773 -0.0043
73325W        W16263  17.959  10.369  22.810  0.0079 -0.1285 -0.4013
73326W        W16264  16.872  10.732  20.108 -0.1532 -0.2608 -0.0923
73327W        W16265  15.355  10.336  22.075  0.4522  0.3430 -0.2209
73328W        W16266  14.905  10.559  22.373 -0.1154  0.1484  0.2955
73329W        W16267  17.153  12.884  20.766 -0.0380  0.0778  0.0862
73330W        W16268  15.307   9.884  21.139 -0.2306  0.1519 -0.3475
73331W        W16269  16.574   8.888  20.832 -0.2607 -0.3138 -0.2268
73332W        W16270  16.827  12.884  17.380  0.2080 -0.1699  0.0190
73333W        W16271  14.186  12.066  21.299 -0.1938  0.0685 -0.1808
73334W        W16272  16.210   9.960  20.656 -0.2957 -0.3673  0.1318
73335W        W16273  16.408  12.367  20.792 -0.0326  0.0795 -0.1860
73336W        W16274  16.383  14.136  19.283 -0.0305  0.0715  0.1653
73337W        W16275  19.071  11.962  22.938 -0.0540  0.0051 -0.2696
73338W        W16276  15.532  11.327  21.347 -0.1333 -0.2273  0.0753
73339W        W16277  17.618  11.523  20.044  0.1758  0.0670  0.0696
73340W        W16278  16.558  11.929  20.356 -0.1276 -0.2778  0.1602
73341W        W16279  17.717  13.237  18.115  0.0108  0.3434 -0.0943
73342W        W16280  18.477  12.728  19.119  0.3220  0.1684  0.0189
73343W        W16281  14.605  10.001  20.527  0.0080 -0.0702  0.0440
73344W        W16282  14.390  12.517  20.800 -0.2475 -0.3959  0.0637
73345W        W16283  14.404  11.071  21.418  0.6670  0.3434 -0.0247
73346W        W16284  17.611  10.986  21.502  0.0138  0.0505 -0.0497
73347W        W16285  16.442  12.118  21.256 -0.0289  0.0613  0.0035
73348W        W16286  18.315  10.141  18.102 -0.2056 -0.0732 -0.0385
73349W        W16287  14.767  13.030  19.385 -0.2276  0.0919  0.2581
73350W        W16288  16.713  12.295  19.287  0.2639 -0.0926  0.3750
73351W        W16289  16.660  14.097  23.881 -0.1786 -0.0748  0.2555
73352W        W16290  16.266  11.573  22.435 -0.2661 -0.1130  0.0986
73353W        W16291  17.826  11.998  21.821  0.2207 -0.0756  0.5738
73354W        W16292  17.039  11.132  22.625 -0.3956  0.1764  0.2672
73355W        W16293  15.714  10.061  24.286 -0.2017 -0.1820  0.1909
73356W        W16294  17.263  14.009  21.802 -0.3613  0.0010  0.2736
73357W        W16295  15.803  12.133  24.741  0.0506 -0.0639  0.0734
73358W        W16296  17.609  13.546  25.663 -0.1009  0.1818 -0.3529
73359W        W16297  17.982  11.966  19.894  0.1399  0.1856 -0.2115
73360W        W16298  16.220  13.958  24.633  0.1306 -0.3309  0.2302
73361W        W16299  17.963  11.212  23.521  0.0800  0.0636  0.1876
73362W        W16300  14.803  11.468  25.144  0.0381 -0.3343 -0.3050
73363W        W16301  18.195  13.877  24.773 -0.3364  0.2350 -0.0537
73364W        W16302  15.580  13.090  22.534 -0.5643  0.3602  0.0810
73365W        W16303  16.006  11.823  24.371 -0.0460 -0.0417  0.0474
73366W        W16304  14.901  10.829  23.674  0.2984 -0.4264  0.1872
73367W        W16305  17.283  11.686  23.541  0.0944 -0.3558  0.0316
73368W        W16306  16.078  12.901  24.276 -0.0679 -0.0264  0.3850
73369W        W16307  14.456  12.494  21.333 -0.0911  0.2178 -0.1554
73370W        W16308  14.568  13.024  25.434  0.1479 -0.1123  0.2869
73371W        W16309  16.006  11.429  24.724 -0.3318 -0.0595 -0.0343
73372W        W16310  17.319  12.807  21.945  0.1020 -0.2737  0.1309
73373W        W16311  16.792  11.781  23.102  0.5064  0.2543 -0.1925
73374W        W16312  15.938  13.547  23.602  0.1541  0.0393 -0.3135
73375W        W16313  18.479  14.006  26.692  0.1101  0.2664 -0.0435
73376W        W16314  15.158  13.263  22.965 -0.1494  0.2044  0.2097
73377W        W16315  14.233  13.294  22.769  0.2913 -0.0963  0.1285
73378W        W16316  17.999  12.398  23.275  0.0941 -0.2117 -0.0234
73379W        W16317  16.541  13.735  24.310  0.2398  0.1601 -0.2435
73380W        W16318  15.751  14.160  23.827  0.0226  0.3054  0.0351
73381W        W16319  13.657  12.147  23.481  0.1328  0.1077  0.2323
73382W        W16320  14.432  12.822  22.551  0.2533 -0.4722 -0.3065
73383W        W16321  16.570  13.168  23.473  0.0843  0.0091 -0.0348
73384W        W16322  14.019  13.049  22.341 -0.0906 -0.0618 -0.2368
73385W        W16323  15.058  11.992  21.260 -0.0432  0.0421  0.0926
73386W        W16324  17.445  13.561  24.557 -0.0353 -0.3225  0.2633
73387W        W16325  14.346  12.721  23.760 -0.0672  0.1004 -0.3444
73388W        W16326  17.927  11.693  26.585  0.3425  0.2025 -0.3138
73389W        W16327  14.442  13.798  20.948 -0.2808 -0.0001  0.2903
73390W        W16328  17.148  11.048  24.068 -0.0833 -0.1125 -0.0356
73391W        W16329  16.012  10.098  22.554  0.1234 -0.1168  0.0504
73392W        W16330  19.092  11.448  24.032  0.5019 -0.1755  0.1138
73393W        W16331  17.104  10.746  23.184 -0.0281  0.0272  0.0888
73394W        W16332  16.854  11.988  24.436  0.0428  0.2648  0.1267
73395W        W16333  17.224  14.386  25.852 -0.1071 -0.0841  0.1767
73396W        W16334  17.817  12.914  21.678  0.0182  0.1076 -0.0618
73397W        W16335  16.529  11.743  21.598  0.1374 -0.0811  0.1996
73398W        W16336  15.584  13.707  24.090 -0.1440 -0.0496 -0.1730
73399W        W16337  14.635  12.053  23.138  0.5794  0.1136 -0.0928
73400W        W16338  18.493  13.548  20.435  0.0273 -0.1015 -0.0432
73401W        W16339  18.223  12.348  21.887  0.0136 -0.5628  0.1126
73402W        W16340  15.641  12.404  23.195 -0.0380 -0.2057  0.0221
73403W        W16341  16.433  13.375  23.910  0.0393 -0.0678 -0.1367
73404W        W16342  14.975  13.304  25.304 -0.1339 -0.1805 -0.1432
73405W        W16343  16.483  11.351  23.853  0.0774 -0.4334 -0.1892
73406W        W16344  17.941  12.301  25.274 -0.0787 -0.1792  0.1012
73407W        W16345  15.122  12.859  23.363  0.0096  0.2396  0.1294
73408W        W16346  18.718  11.099  23.120  0.0436 -0.2419 -0.0174
73409W        W16347  16.250  12.667  23.219  0.0968 -0.1720  0.5938
73410W        W16348  18.723  12.911  21.170  0.0174  0.3173  0.0833
73411W        W16349  18.099  11.344  25.058 -0.0840 -0.0806  0.1757
73412W        W16350  16.691  12.094  24.961  0.1427 -0.2639  0.2299
73413W        W16351  15.209  12.694  21.388 -0.0790 -0.2291 -0.2112
73414W        W16352  15.331  13.177  22.098 -0.0540  0.0873  0.1195
73415W        W16353  17.437  13.736  23.870  0.0384  0.0519 -0.1997
73416W        W16354  18.211  10.986  21.663  0.1749  0.1809 -0.0974
73417W        W16355  13.966  12.591  23.458  0.2550  0.0172 -0.2723
73418W        W16356  15.290  11.659  25.381  0.1452  0.1861  0.1746
73419W        W16357  15.880  13.537  24.943 -0.2030 -0.3192 -0.1205
73420W        W16358  14.376  14.321  20.292  0.2682 -0.3819 -0.1264
73421W        W16359  13.753  15.112  23.373 -0.2228  0.3527  0.1884
73422W        W16360  13.480  12.766  22.833 -0.2312 -0.2013  0.3038
73423W        W16361  14.203   9.980  27.255 -0.3639 -0.1234 -0.3714
73424W        W16362  16.251  12.840  23.816  0.0771 -0.0652 -0.0957
73425W        W16363  17.022  11.633  24.910  0.0428 -0.2147  0.0268
73426W        W16364  14.869  12.440  26.952  0.1018 -0.1313 -0.2616
73427W        W16365  17.673   9.634  23.890 -0.2045 -0.0711 -0.1958
73428W        W16366  16.858  12.758  23.535 -0.0880  0.0011  0.0294
73429W        W16367  18.026  11.639  22.677 -0.1935 -0.1026 -0.0926
73430W        W16368  17.649  12.883  20.765 -0.2366  0.0879  0.0915
73431W        W16369  14.593  12.585  26.037  0.4204 -0.3083  0.3329
73432W        W16370  14.913  12.676  22.000  0.1054  0.0995  0.0854
73433W        W16371  15.520  11.550  27.158 -0.0200  0.1010  0.1401
73434W        W16372  16.876  12.437  24.683 -0.4872  0.1128  0.0973
73435W        W16373  17.361  13.190  25.355  0.1482  0.0893  0.3521
73436W        W16374  15.046  10.671  24.615  0.0955 -0.2984  0.0740
73437W        W16375  17.513  10.616  23.456  0.0181 -0.0054  0.2216
73438W        W16376  15.378  12.545  23.648  0.3937 -0.2185  0.2473
73439W        W16377  15.228  11.640  23.101  0.0634 -0.1436 -0.1290
73440W        W16378  18.406  11.570  26.596 -0.1685 -0.0332 -0.2105
73441W        W16379  16.149  12.927  20.532 -0.0721 -0.0503  0.0009
73442W        W16380  17.583  14.093  23.474  0.0981  0.0279 -0.2180
73443W        W16381  16.856  14.282  21.398 -0.1863  0.0783  0.0855
73444W        W16382  15.398  13.083  26.562  0.1491 -0.1032  0.0430
73445W        W16383  14.062  11.146  22.393  0.2617 -0.0628 -0.0887
73446W        W16384  14.852  13.436  23.977 -0.2207 -0.0290 -0.1271
73447W        W16385  15.118  13.465  23.490 -0.0102  0.3803  0.1624
73448W        W16386  14.878  11.272  23.919  0.0616 -0.2056  0.2339
73449W        W16387  15.989  12.378  22.021  0.1138 -0.1308 -0.1147
73450W        W16388  16.247  13.774  25.156  0.3372 -0.3135  0.0647
73451W        W16389  17.649  13.170  24.869 -0.0132  0.1576  0.0011
73452W        W16390  17.397  12.834  23.999 -0.0306 -0.0454 -0.0985
73453W        W16391  16.942  12.278  22.487 -0.2203 -0.0176 -0.2505
73454W        W16392  15.188  10.821  24.127 -0.2452  0.3503 -0.0138
73455W        W16393  13.564  13.327  19.672  0.0046  0.1770  0.0972
73456W        W16394  14.725  13.083  23.591 -0.5297  0.1644  0.0325
73457W        W16395  17.628  11.911  24.132 -0.1214 -0.1041  0.4462
73458W        W16396  14.555  13.648  25.188  0.0703  0.1841 -0.1927
73459W        W16397  16.352  12.165  24.599 -0.0367 -0.4423  0.3556
73460W        W16398  16.816  11.947  21.957  0.1243 -0.0907 -0.0489
73461W        W16399  14.709  13.497  24.438  0.1665  0.0706  0.0632
73462W        W16400  17.472  10.471  24.037 -0.0931 -0.0738 -0.1491
73463W        W16401  19.228  11.241  24.499  0.0253  0.2211  0.1664
73464W        W16402  17.118  14.860  24.577  0.3833 -0.0794  0.1924
73465W        W16403  18.420  12.870  22.917  0.1378 -0.2448  0.3534
73466W        W16404  17.837  11.319  21.839  0.4414 -0.2533 -0.0322
73467W        W16405  17.081  11.573  22.409  0.0595  0.0999  0.1217
73468W        W16406  15.580  13.695  24.596  0.1217 -0.2539  0.2104
73469W        W16407  17.954  12.384  21.476 -0.3354  0.0781  0.0130
73470W        W16408  16.082  13.107  24.761  0.0760 -0.0314  0.1227
73471W        W16409  15.777  12.910  21.844 -0.2815 -0.0520 -0.0148
73472W        W16410  15.865  12.935  23.524 -0.1280 -0.2065  0.1733
73473W        W16411  18.045  14.310  26.521 -0.0423  0.2013 -0.0185
73474W        W16412  17.018  12.743  22.345 -0.0830  0.2936 -0.0387
73475W        W16413  16.597  10.964  24.280  0.1525  0.0911  0.0905
73476W        W16414  15.179  10.922  22.578  0.0947 -0.3320  0.1658
73477W        W16415  15.935  11.967  23.403 -0.0264  0.1931 -0.3175
73478W        W16416  15.350  12.862  20.947  0.1681 -0.3284  0.0737
73479W        W16417  17.379  11.766  23.070 -0.4649 -0.2828  0.0403
73480W        W16418  16.760  11.778  23.661 -0.0117 -0.2328  0.1491
73481W        W16419  16.255  11.610  23.481 -0.4316 -0.1564  0.0462
73482W        W16420  17.732  13.625  26.202 -0.2171 -0.1579  0.0207
73483W        W16421  17.638  11.661  21.475 -0.1802  0.2654  0.1800
73484W        W16422  16.874  12.215  23.448 -0.3261 -0.0876  0.1600
73485W        W16423  14.491  10.802  22.669 -0.2508  0.1935 -0.0011
73486W        W16424  17.097  13.602  25.538  0.0562 -0.0754 -0.1723
73487W        W16425  15.246  13.308  26.152  0.1110 -0.1491 -0.3281
73488W        W16426  14.906  14.508  23.757 -0.0571 -0.0865  0.1606
73489W        W16427  16.557  14.461  25.125  0.0396  0.3391  0.1549
73490W        W16428  18.479  12.613  22.480 -0.0645  0.0495  0.0211
73491W        W16429  16.040  12.575  24.685  0.0431 -0.1429  0.0128
73492W        W16430  17.275  11.899  21.274  0.1626 -0.1871  0.0000
73493W        W16431  15.419  13.217  21.580  0.1526  0.0038  0.0701
73494W        W16432  15.157  12.224  21.812  0.0620  0.0131  0.0833
73495W        W16433  15.757  11.383  24.268  0.1868 -0.6011  0.2851
73496W        W16434  16.433  12.241  22.249  0.0071  0.2885  0.3732
73497W        W16435  16.669  12.920  20.662 -0.0944  0.2167  0.0947
73498W        W16436  16.936  13.700  23.195  0.1034  0.1226  0.1128
73499W        W16437  15.221  12.692  22.869 -0.1861  0.0109  0.2112
73500W        W16438  18.644  11.999  24.958  0.0859  0.1411 -0.0038
73501W        W16439  13.464  14.403  23.662 -0.2977  0.0646 -0.2049
73502W        W16440  14.471  10.545  23.274  0.0841  0.1561  0.0108
73503W        W16441  14.119  12.263  23.895  0.1109 -0.0301 -0.0041
73504W        W16442  16.761  11.394  24.439  0.1742 -0.3000  0.2754
73505W        W16443  17.522  12.668  21.318 -0.0563  0.3607  0.0498
73506W        W16444  14.656  12.178  25.757  0.0175 -0.1773  0.2356
73507W        W16445  17.150  11.604  24.027  0.0898  0.1556 -0.4402
73508W        W16446  15.167  12.141  23.844 -0.1475  0.1180  0.0012
73509W        W16447  17.091  12.227  22.999 -0.1606 -0.1734  0.1408
73510W        W16448  17.998  10.605  23.298  0.0883 -0.0893  0.3639
73511W        W16449  17.093  13.258  23.030 -0.1847 -0.3529  0.3358
73512W        W16450  15.450  13.305  25.612  0.0039  0.0609  0.0009
73513W        W16451  14.205  11.713  22.717 -0.2999  0.0569 -0.0225
73514W        W16452  17.915  12.290  24.414 -0.0789  0.0137  0.0783
73515W        W16453  16.046  12.282  22.909  0.1057  0.1243 -0.0217
73516W        W16454  14.278  14.281  24.065  0.0449  0.1343  0.2902
73517W        W16455  15.435  12.690  22.114  0.2764 -0.0146 -0.2381
73518W        W16456  15.622  12.349  25.431  0.2706  0.1162  0.0295
73519W        W16457  17.477  13.558  23.413  0.3041 -0.0461 -0.3769
73520W        W16458  16.025  12.431  23.636  0.1640 -0.1188 -0.0896
73521W        W16459  15.785  10.120  23.743 -0.1184  0.3431 -0.1829
73522W        W16460  16.437  11.650  24.770  0.0321 -0.0228 -0.0449
73523W        W16461  16.924  13.572  23.698  0.2168  0.0482 -0.2166
73524W        W16462  17.050  12.926  24.471  0.0902  0.2068 -0.2234
73525W        W16463  15.369  13.569  25.193 -0.1604  0.1214  0.4008
73526W        W16464  16.534  12.686  24.327 -0.2513  0.2322 -0.0842
73527W        W16465  18.841  13.348  20.783  0.0895 -0.1657  0.2215
73528W        W16466  16.734  13.727  25.886 -0.0750  0.0401 -0.3517
73529W        W16467  14.224  13.190  21.809  0.0579 -0.0366 -0.2425
73530W        W16468  13.635  12.758  25.626 -0.0518 -0.0306 -0.0938
73531W        W16469  15.329  12.095  22.858  0.2097  0.0492  0.4293
73532W        W16470  16.871  13.073  24.006  0.0611 -0.0092  0.0351
73533W        W16471  14.877  11.828  24.046 -0.0410  0.1428 -0.0345
73534W        W16472  13.862  11.856  23.053 -0.1290 -0.0094  0.1473
73535W        W16473  15.146  13.218  24.369 -0.2552  0.1770  0.1789
73536W        W16474  17.644   9.631  23.087  0.0798 -0.4973  0.0916
73537W        W16475  16.760  11.498  20.668  0.1897 -0.1892  0.0058
73538W        W16476  15.417  11.240  23.911  0.1716  0.0183 -0.1817
73539W        W16477  19.334  12.280  25.801  0.1452  0.0644 -0.1777
73540W        W16478  16.754  11.135  21.514 -0.0976  0.0619 -0.1278
73541W        W16479  17.687  11.458  27.069  0.1363  0.0597  0.4811
73542W        W16480  16.238  10.678  25.165 -0.1141  0.2091 -0.0426
73543W        W16481  18.041  12.435  22.720 -0.0811  0.0916 -0.4843
73544W        W16482  14.000  12.226  24.384  0.0786  0.1728  0.2757
73545W        W16483  16.950  14.402  24.792  0.1502  0.0603 -0.1678
73546W        W16484  15.704  13.562  25.908  0.0741  0.1283  0.1021
73547W        W16485  17.624  10.818  22.959 -0.1062 -0.2167  0.0703
73548W        W16486  14.372  11.379  22.096  0.0797 -0.0382 -0.3824
73549W        W16487  15.430  11.998  23.425 -0.1155  0.1438  0.1437
73550W        W16488  18.309  12.086  23.542  0.1675  0.1629  0.1629
73551W        W16489  17.372  12.573  19.946  0.0468  0.1338  0.0299
73552W        W16490  18.421  11.388  22.519  0.1225 -0.0495 -0.1181
73553W        W16491  15.579  13.331  23.330 -0.1460  0.0879  0.0104
73554W        W16492  18.304  11.625  23.651 -0.0528 -0.0055  0.0944
73555W        W16493  16.362  12.694  22.654  0.0741  0.0796  0.0936
73556W        W16494  14.869  12.575  23.685 -0.0187 -0.0574  0.1345
73557W        W16495  16.937  12.572  24.161 -0.0724  0.2722  0.3399
73558W        W16496  17.595  12.193  24.830  0.1187  0.2065  0.0205
73559W        W16497  16.612  12.529  25.211  0.1258  0.3726 -0.2082
73560W        W16498  17.616  12.667  25.325 -0.0627 -0.3267  0.0343
73561W        W16499  16.394  13.500  24.728 -0.1779 -0.4048 -0.2012
73562W        W16500  14.743  11.945  27.050  0.0947 -0.1847  0.2260
73563W        W16501  17.791  13.904  24.302 -0.4020 -0.1377 -0.0428
73564W        W16502  19.817  11.665  22.824 -0.2678 -0.1872  0.1829
73565W        W16503  16.923  12.112  23.960  0.1211 -0.0745  0.1471
73566W        W16504  18.698  12.133  22.073 -0.0707 -0.0017 -0.1202
73567W        W16505  17.246  11.272  21.367 -0.2866 -0.1771  0.1478
73568W        W16506  15.043  12.936  25.662 -0.0861 -0.0950 -0.2014
73569W        W16507  17.584  14.184  26.251  0.0048  0.0474  0.2896
73570W        W16508  15.254  11.968  22.357  0.1023  0.0297 -0.3553
73571W        W16509  17.155  13.316  25.998 -0.0550  0.0742 -0.1653
73572W        W16510  15.944  12.597  20.990 -0.0360 -0.0287  0.1604
73573W        W16511  17.371  10.065  23.630  0.0115 -0.1584  0.0398
73574W        W16512  15.702  12.098  23.851 -0.1258 -0.1807  0.0600
73575W        W16513  15.461  14.524  23.634  0.0070  0.2567 -0.2866
73576W        W16514  13.753  11.458  22.626  0.2075  0.1512  0.3638
73577W        W16515  13.831  12.102  22.561  0.1312  0.1854 -0.0474
73578W        W16516  16.556  12.371  23.783 -0.0016  0.0977  0.2880
73579W        W16517  17.435  14.068  27.193  0.5057  0.1436 -0.2671
73580W        W16518  17.019  10.372  23.508 -0.1997  0.1607 -0.0577
73581W        W16519  17.986  12.297  26.584  0.1072 -0.1870 -0.0200
73582W        W16520  14.495  13.350  21.328 -0.1604 -0.1691  0.1175
73583W        W16521  17.961  10.584  24.268 -0.2118 -0.1430  0.2424
73584W        W16522  16.036  13.185  22.707  0.3614 -0.0994 -0.1355
73585W        W16523  14.795  13.364  22.577 -0.0115 -0.0898  0.0100
73586W        W16524  16.887  12.278  26.236 -0.0807 -0.2408 -0.2165
73587W        W16525  17.796  11.354  23.038 -0.0028  0.1024  0.0914
73588W        W16526  17.353  12.163  22.108 -0.1435 -0.1749  0.0571
73589W        W16527  17.832  12.642  24.109  0.1468  0.1016  0.2726
73590W        W16528  16.848  12.436  21.972  0.0594 -0.1830  0.2113
73591W        W16529  17.833  11.687  23.594  0.1010 -0.0843 -0.0838
73592W        W16530  15.316  13.005  23.813 -0.3323  0.0573 -0.1416
73593W        W16531  15.217  13.587  26.612  0.0960  0.1112 -0.1330
73594W        W16532  17.326  12.288  24.293  0.3178 -0.1767 -0.0781
73595W        W16533  16.159   9.111  23.858  0.3832  0.0398  0.2419
73596W        W16534  15.684  14.197  23.283 -0.0169  0.0008 -0.2296
73597W        W16535  13.839  14.527  23.324 -0.1867  0.0417  0.2664
73598W        W16536  13.914  14.074  21.487  0.0203  0.0599  0.0080
73599W        W16537  17.766  12.126  22.330 -0.3030  0.1308  0.0664
73600W        W16538  15.811  11.619  23.792 -0.2160 -0.0616  0.3050
73601W        W16539  14.598  11.554  23.614 -0.2201  0.0276 -0.0792
73602W        W16540  14.013  13.634  21.277  0.2039  0.0531 -0.1582
73603W        W16541  17.372  12.486  20.445 -0.2000 -0.4185  0.0985
73604W        W16542  14.539  13.613  21.832 -0.0768 -0.2707 -0.2639
73605W        W16543  17.908  13.646  25.234  0.1827  0.0720  0.1371
73606W        W16544  18.852  11.520  22.785 -0.2535  0.1554 -0.0547
73607W        W16545  19.719  12.586  23.856  0.0104  0.0991 -0.1432
73608W        W16546  18.428  10.968  23.502 -0.1230 -0.1524 -0.2144
73609W        W16547  17.190  13.934  24.732  0.0451 -0.2304  0.3148
73610W        W16548  14.795  12.824  24.584 -0.3311 -0.0413  0.2524
73611W        W16549  17.316  11.246  23.002  0.1201 -0.3300  0.1231
73612W        W16550  15.743  13.070  25.132 -0.2620 -0.2290 -0.0190
73613W        W16551  18.408  11.238  24.497  0.0602 -0.2511 -0.0938
73614W        W16552  15.159  14.840  25.655 -0.4294  0.3432 -0.2825
73615W        W16553  16.631  12.984  22.975  0.0504 -0.0719  0.0165
73616W        W16554  15.701  12.697  24.007  0.0020  0.2477 -0.1772
73617W        W16555  18.011  11.531  25.967  0.1751  0.1114  0.3125
73618W        W16556  16.005  10.974  20.498  0.0899 -0.0081  0.0388
73619W        W16557  16.677  12.537  23.073  0.1938 -0.0518 -0.0358
73620W        W16558  16.055  14.923  23.787  0.1883 -0.1447  0.1178
73621W        W16559  15.573  11.442  23.382 -0.1352 -0.2337 -0.1147
73622W        W16560  18.694  11.733  23.299 -0.1432  0.1201 -0.1487
73623W        W16561  16.027  12.913  22.296  0.0961 -0.3033 -0.1328
73624W        W16562  17.159  12.320  25.126 -0.4373 -0.0938  0.0338
73625W        W16563  14.975  11.308  23.432 -0.0028  0.0492 -0.0372
73626W        W16564  17.890  11.222  22.377  0.0254  0.0031  0.0426
73627W        W16565  17.002  12.881  25.223 -0.2129  0.0047 -0.3632
73628W        W16566  15.689  12.564  24.967 -0.0728  0.2865 -0.0685
73629W        W16567  17.655  12.125  21.033  0.2111  0.0831  0.1116
73630W        W16568  17.544  12.924  24.458  0.0644  0.4960 -0.1523
73631W        W16569  18.650  12.160  21.057  0.3138 -0.1988  0.4309
73632W        W16570  16.129   9.753  24.263  0.2604 -0.0561  0.0395
73633W        W16571  15.927  11.283  23.094  0.1916  0.1360 -0.1372
73634W        W16572  13.340  13.277  23.506  0.0114 -0.0822 -0.1646
73635W        W16573  16.096  12.391  24.234  0.1004  0.0731  0.0096
73636W        W16574  18.097  14.100  25.393  0.1762 -0.1931  0.2600
73637W        W16575  15.309  10.126  23.655  0.1715 -0.3128  0.0038
73638W        W16576  18.476  12.577  20.934 -0.1395  0.4017  0.0783
73639W        W16577  17.373  12.421  23.749 -0.0237 -0.1350 -0.1551
73640W        W16578  17.308  11.940  22.629 -0.0946 -0.0438 -0.3811
73641W        W16579  15.194  12.299  25.157  0.1810  0.1180  0.1372
73642W        W16580  17.342  12.760  24.881 -0.1227  0.2498  0.1928
73643W        W16581  17.580  11.406  24.256  0.0830  0.0478 -0.1007
73644W        W16582  15.427  11.172  22.976 -0.1037 -0.0718 -0.1817
73645W        W16583  14.413  13.836  22.678 -0.0796  0.0926 -0.2302
73646W        W16584  17.264  12.672  23.255 -0.1835 -0.2520 -0.1550
73647W        W16585  16.946  13.499  24.565 -0.1847 -0.1089  0.0655
73648W        W16586  17.444  12.018  26.514 -0.4626 -0.1163  0.1501
73649W        W16587  16.216  13.701  25.768 -0.2129 -0.2002  0.1958
73650W        W16588  14.319  12.698  22.087  0.2093  0.0823  0.0756
73651W        W16589  14.971  11.844  23.462  0.0800 -0.1767 -0.1144
73652W        W16590  16.421  12.743  22.027  0.1717  0.0795  0.0037
73653W        W16591  17.801  12.018  20.480  0.1139  0.0221  0.3196
73654W        W16592  17.923  12.244  23.792  0.1849  0.2060  0.1294
73655W        W16593  17.544  13.106  23.161  0.0435 -0.0016 -0.2714
73656W        W16594  16.893  11.388  23.326  0.1841  0.1071  0.0221
73657W        W16595  17.841  10.235  23.617  0.3797  0.0525 -0.1001
73658W        W16596  16.754   9.741  23.028  0.0050 -0.0309 -0.1322
73659W        W16597  16.058  13.448  24.343  0.0183 -0.3587 -0.1561
73660W        W16598  15.042  12.351  23.240 -0.2156 -0.3785 -0.1333
73661W        W16599  14.655  12.911  21.599  0.0139  0.2397 -0.0391
73662W        W16600  16.111  13.321  23.248  0.0173  0.2413  0.0712
73663W        W16601  16.039  12.353  26.465 -0.3262 -0.2162  0.2176
73664W        W16602  14.408  13.240  24.969 -0.0277 -0.1798  0.2394
73665W        W16603  15.150  12.671  24.212 -0.2740 -0.1134 -0.1158
73666W        W16604  14.757  12.273  24.851 -0.0991  0.0630 -0.1868
73667W        W16605  16.833  10.427  24.248 -0.2561 -0.1782 -0.5686
73668W        W16606  15.444  10.672  24.989  0.0095 -0.1108  0.1972
73669W        W16607  18.260  12.048  22.415 -0.0774  0.3751  0.0219
73670W        W16608  17.540  11.488  22.599 -0.0064  0.3865  0.1639
73671W        W16609  17.977  13.408  24.555 -0.1640 -0.2165 -0.0048
73672W        W16610  14.277  12.246  22.773  0.0132  0.2326 -0.2254
73673W        W16611  16.317  13.226  25.217 -0.2207  0.1399  0.0413
73674W        W16612  16.156  12.334  25.518 -0.0058 -0.2609  0.2009
73675W        W16613  14.180  11.145  22.890 -0.0070  0.0891  0.3581
73676W        W16614  17.257  11.690  21.776  0.1763  0.1090  0.2469
73677W        W16615  16.675  13.592  21.043  0.0978 -0.0542 -0.3459
73678W        W16616  17.964  12.907  23.108 -0.4497  0.1205  0.1130
73679W        W16617  14.824  13.844  23.663 -0.3454 -0.1585  0.0956
73680W        W16618  14.459  12.052  26.186 -0.1232  0.2036 -0.2887
73681W        W16619  17.815  11.676  20.963  0.1721 -0.0037 -0.1388
73682W        W16620  15.720  14.663  24.077  0.0865 -0.0899  0.1116
73683W        W16621  18.854  11.674  21.754  0.1126 -0.0078  0.1441
73684W        W16622  17.493  12.174  23.358 -0.1518 -0.1023 -0.1455
73685W        W16623  16.064  11.892  22.127 -0.3176  0.3580 -0.3333
73686W        W16624  15.575  11.394  25.806 -0.1999 -0.1890 -0.2244
73687W        W16625  15.304  13.012  24.851 -0.0437  0.3416 -0.0305
73688W        W16626  18.628  13.129  23.354  0.1320  0.3419 -0.0587
73689W        W16627  14.992  12.190  24.376  0.4653  0.0637  0.0737
73690W        W16628  17.187   9.395  23.050 -0.6465  0.0411  0.1402
73691W        W16629  15.015  12.351  26.164 -0.0836  0.2827  0.2543
73692W        W16630  17.726  12.540  22.076  0.2387  0.1690  0.2101
73693W        W16631  17.844  13.156  25.374 -0.0222 -0.4071  0.0844
73694W        W16632  17.191  13.217  24.901  0.3083  0.0728  0.0123
73695W        W16633  16.403  12.188  23.361  0.0154  0.0820  0.1263
73696W        W16634  19.320  12.474  22.901 -0.1975  0.2278  0.2335
73697W        W16635  18.116  13.595  24.057 -0.2205 -0.0412 -0.1964
73698W        W16636  17.725  12.109  22.856 -0.0046 -0.0415 -0.2714
73699W        W16637  16.651  10.648  24.893 -0.0085 -0.2160 -0.0186
73700W        W16638  14.776  12.411  22.812 -0.2404  0.0702  0.0710
73701W        W16639  15.593  12.377  21.618  0.1961 -0.0686  0.1300
73702W        W16640  17.462  11.837  25.142 -0.0190 -0.2569 -0.0899
73703W        W16641  15.669  11.763  23.008 -0.2391  0.1271 -0.3573
73704W        W16642  18.438  10.696  23.013  0.1215  0.1243  0.0892
73705W        W16643  17.080  14.407  25.353 -0.1266  0.1811 -0.0378
73706W        W16644  14.919  13.154  29.900 -0.0657 -0.0992 -0.1983
73707W        W16645  15.939  11.771  27.826 -0.3229  0.0336 -0.1948
73708W        W16646  17.585  11.805  25.722  0.0674 -0.2966  0.0100
73709W        W16647  18.388  12.420  29.535 -0.1070  0.0622 -0.1352
73710W        W16648  15.389  10.999  27.538  0.2604  0.0335 -0.1208
73711W        W16649  16.645  15.255  24.935 -0.3132  0.0384 -0.1012
73712W        W16650  15.787  10.594  30.743 -0.2371 -0.0447 -0.1365
73713W        W16651  16.309  13.558  26.898 -0.1450 -0.0378  0.0075
73714W        W16652  18.062  14.140  27.972 -0.0259 -0.0422 -0.1442
73715W        W16653  16.752  13.469  25.087 -0.0471  0.0915 -0.1069
73716W        W16654  15.897  11.571  28.301 -0.1997  0.2550  0.0657
73717W        W16655  16.491  16.333  27.036  0.0031  0.1004  0.0348
73718W        W16656  15.764  12.299  26.844  0.2226 -0.2700 -0.1233
73719W        W16657  14.406  12.176  29.345 -0.1875  0.1820  0.0337
73720W        W16658  17.296  14.238  29.162  0.2391  0.1407 -0.0473
73721W        W16659  15.166  15.051  26.479  0.2434  0.3716 -0.2292
73722W        W16660  16.506  11.796  27.995  0.3502 -0.2281  0.0561
73723W        W16661  15.949  13.247  25.610  0.2264 -0.1820 -0.0899
73724W        W16662  17.436  14.245  27.694 -0.0105  0.0726 -0.1243
73725W        W16663  17.976  11.219  29.005 -0.1702  0.1147  0.0656
73726W        W16664  16.749  10.707  30.739 -0.1047 -0.1403  0.1056
73727W        W16665  15.855  14.176  26.350 -0.0727  0.2103 -0.2727
73728W        W16666  15.510  12.890  25.820 -0.0001 -0.2341 -0.1591
73729W        W16667  13.229  11.551  28.915 -0.1672 -0.0936  0.1834
73730W        W16668  14.919  11.936  28.684 -0.2013 -0.1056  0.3947
73731W        W16669  16.255  13.093  27.035  0.0139  0.2559  0.1273
73732W        W16670  18.037  11.860  29.085 -0.0195 -0.2596 -0.0963
73733W        W16671  17.176  16.005  26.242  0.1625 -0.0488  0.0631
73734W        W16672  15.734  14.080  28.342  0.1291 -0.1870  0.0491
73735W        W16673  16.391  13.849  29.137  0.0007 -0.1492 -0.1224
73736W        W16674  14.925  13.802  27.803  0.5434 -0.0875  0.2507
73737W        W16675  16.371  15.000  27.754  0.2608  0.1572 -0.1490
73738W        W16676  15.581  14.093  25.319  0.1886 -0.0699  0.1079
73739W        W16677  17.892  13.227  25.931 -0.3318 -0.1765  0.0257
73740W        W16678  16.750  15.230  28.229 -0.1085 -0.0304 -0.2809
73741W        W16679  16.316  14.247  31.340  0.1820 -0.2484  0.1536
73742W        W16680  14.967  14.682  26.098 -0.0354  0.3976 -0.0923
73743W        W16681  16.276  14.471  29.011 -0.0713 -0.1628 -0.0090
73744W        W16682  14.384  12.948  27.892 -0.0491  0.0572  0.0615
73745W        W16683  15.438  13.647  27.455  0.1477 -0.0489  0.5007
73746W        W16684  15.020  14.008  27.369 -0.0268 -0.0302 -0.1726
73747W        W16685  17.154  13.161  26.610  0.0014  0.0274 -0.1415
73748W        W16686  15.514  14.520  27.584  0.2942 -0.0502  0.0228
73749W        W16687  16.450  14.880  28.795  0.1944  0.0059 -0.0113
73750W        W16688  14.902  14.087  28.738 -0.0660  0.1514  0.0556
73751W        W16689  17.480  12.590  30.458  0.2251 -0.0290  0.1283
73752W        W16690  16.183  13.915  24.042 -0.0239  0.1273 -0.1066
73753W        W16691  16.281  12.379  26.018 -0.0655 -0.1719 -0.0550
73754W        W16692  16.370  12.833  25.613 -0.0179  0.1077 -0.1182
73755W        W16693  17.593  12.852  25.768  0.0112 -0.1324  0.4207
73756W        W16694  16.571  12.465  27.002  0.0351  0.2126 -0.2825
73757W        W16695  16.942  14.823  26.187  0.0203  0.1647  0.0042
73758W        W16696  17.312  12.124  28.639  0.0118 -0.1119  0.2263
73759W        W16697  17.727  14.107  28.844 -0.2603  0.1194 -0.3526
73760W        W16698  15.743  13.044  27.261  0.0691  0.2486  0.1167
73761W        W16699  15.887  13.658  27.145  0.0531 -0.2079  0.1102
73762W        W16700  15.493  13.327  30.402 -0.0657  0.0325  0.1118
73763W        W16701  15.523  12.453  27.255 -0.0282 -0.0894 -0.2636
73764W        W16702  17.226  14.802  26.970  0.1166 -0.0889 -0.1077
73765W        W16703  18.430  15.185  25.351  0.1804 -0.1101  0.0222
73766W        W16704  17.809  14.448  24.715  0.2253  0.1361  0.1601
73767W        W16705  14.104  12.552  27.533  0.0544  0.2811 -0.0041
73768W        W16706  14.842  14.141  30.116 -0.1096  0.0885 -0.1599
73769W        W16707  15.017  11.449  28.825  0.1184  0.0796  0.2768
73770W        W16708  15.579  12.191  26.407  0.1714  0.1353  0.2476
73771W        W16709  17.723  14.939  27.753 -0.1701 -0.1471  0.3285
73772W        W16710  14.802  13.000  28.924  0.1136 -0.0282  0.0308
73773W        W16711  17.971  13.248  27.021  0.0561 -0.1355  0.1901
73774W        W16712  14.002  13.949  27.820 -0.1411 -0.2482 -0.0791
73775W        W16713  16.798  14.927  27.239 -0.1720  0.0552 -0.0478
73776W        W16714  18.430  13.710  25.331 -0.0477  0.0113 -0.1097
73777W        W16715  17.127  10.991  27.676 -0.0306 -0.1766 -0.0352
73778W        W16716  15.878  11.710  29.055  0.1297  0.1320 -0.4289
73779W        W16717  16.666  13.222  25.583  0.1077  0.2842 -0.0550
73780W        W16718  15.824  12.763  25.507 -0.1437 -0.0399  0.0537
73781W        W16719  17.102  14.102  28.712  0.0579  0.3472  0.0496
73782W        W16720  16.964  12.262  26.761 -0.1802 -0.2011 -0.2259
73783W        W16721  15.374  13.416  29.068  0.0617 -0.3266  0.1652
73784W        W16722  15.836  12.165  29.169 -0.0714 -0.0221  0.1988
73785W        W16723  16.867  13.110  28.584  0.3022 -0.2437 -0.0647
73786W        W16724  16.251  14.873  25.129 -0.2721  0.0469  0.0195
73787W        W16725  14.877  14.845  27.031 -0.0062 -0.0977  0.1333
73788W        W16726  14.318  13.433  26.243 -0.1124 -0.1584  0.1758
73789W        W16727  16.184  11.799  30.215  0.1472 -0.0625 -0.0351
73790W        W16728  14.563  12.680  27.340  0.1794 -0.0093  0.2464
73791W        W16729  18.465  11.673  28.779 -0.1856 -0.1969  0.0469
73792W        W16730  15.980  10.975  28.848  0.2022 -0.0894 -0.1870
73793W        W16731  16.750  10.386  28.755  0.0910 -0.0488  0.3698
73794W        W16732  16.505  14.586  26.125 -0.2880  0.1170 -0.1374
73795W        W16733  18.085  14.790  25.602 -0.2184  0.0040  0.3000
73796W        W16734  18.265  13.768  27.027 -0.3069  0.0634 -0.0509
73797W        W16735  16.862  12.956  26.143  0.0503  0.1452  0.4393
73798W        W16736  13.456  12.401  29.307 -0.0572  0.2035  0.0259
73799W        W16737  14.832  10.819  28.404 -0.1230  0.2039  0.1149
73800W        W16738  15.835  11.480  29.894  0.1608 -0.0795  0.1287
73801W        W16739  14.103  10.838  28.181 -0.3566  0.0922 -0.3487
73802W        W16740  17.443  12.577  29.963  0.0414  0.1980  0.0954
73803W        W16741  14.108  12.195  28.911 -0.2320  0.0509  0.2854
73804W        W16742  17.612  12.624  28.319  0.1784 -0.1139  0.1602
73805W        W16743  16.262  13.115  26.435 -0.1142  0.0340  0.1879
73806W        W16744  14.833  13.918  26.599 -0.1208 -0.0005 -0.1029
73807W        W16745  17.418  11.735  30.304 -0.0135 -0.2183 -0.0587
73808W        W16746  15.474  14.931  26.093 -0.3362 -0.0361 -0.2211
73809W        W16747  18.178  14.624  29.546 -0.0983  0.3210 -0.1949
73810W        W16748  17.858  13.974  27.479 -0.3093 -0.0777  0.3248
73811W        W16749  15.628  11.965  28.123 -0.4748  0.0780  0.0117
73812W        W16750  14.901  10.588  27.454 -0.0721 -0.0542 -0.4831
73813W        W16751  16.987  16.733  25.999  0.1223  0.1832  0.1911
73814W        W16752  16.347  15.401  27.079  0.0218  0.0616 -0.0347
73815W        W16753  14.812  11.502  27.935  0.2725  0.0853  0.1453
73816W        W16754  16.589  14.310  27.458  0.0489 -0.1488 -0.2908
73817W        W16755  17.117  12.987  28.184 -0.2111  0.1593  0.1420
73818W        W16756  14.494  11.712  29.505 -0.0072 -0.0850 -0.4727
73819W        W16757  16.742  11.128  29.230  0.0097  0.1511  0.1686
73820W        W16758  16.764  12.408  29.192  0.1955  0.0231  0.0639
73821W        W16759  17.392  13.290  28.511 -0.0035  0.0621 -0.0823
73822W        W16760  15.180  12.556  24.729  0.1128 -0.1057 -0.0651
73823W        W16761  18.351  15.402  26.349 -0.0189  0.3745  0.0228
73824W        W16762  15.032  14.322  24.544 -0.2766 -0.2803  0.0322
73825W        W16763  15.538  11.815  27.579 -0.0347 -0.1822  0.2198
73826W        W16764  16.829  14.552  26.538  0.1438  0.0103  0.2282
73827W        W16765  17.229  12.416  29.047  0.0253 -0.1519  0.1415
73828W        W16766  15.333  12.238  29.550 -0.1794 -0.3126  0.2918
73829W        W16767  17.383  10.557  30.254 -0.1411 -0.0933  0.1500
73830W        W16768  15.152  12.786  26.229  0.1458 -0.2230  0.0501
73831W        W16769  15.170  13.734  30.501 -0.0690 -0.3763  0.2285
73832W        W16770  15.837  12.834  26.767  0.3343 -0.1263  0.1884
73833W        W16771  17.479  11.616  28.461  0.1024  0.3002  0.1509
73834W        W16772  16.244  14.129  30.545  0.3425 -0.1188 -0.0116
73835W        W16773  18.201  13.434  27.448  0.0411  0.2910  0.0981
73836W        W16774  17.544  11.595  26.186 -0.0923  0.4017  0.2675
73837W        W16775  17.614  12.935  26.716  0.1177  0.2758  0.1573
73838W        W16776  14.576  13.478  30.196 -0.0438 -0.3574 -0.3846
73839W        W16777  15.553  14.091  27.358 -0.2095  0.1850  0.1208
73840W        W16778  14.912  12.068  29.315  0.0228 -0.0291  0.0121
73841W        W16779  18.242  12.399  25.923 -0.1395 -0.0357 -0.0774
73842W        W16780  17.381  14.403  26.762  0.2429  0.1656 -0.0817
73843W        W16781  15.456  13.751  28.048  0.1603 -0.2582  0.1581
73844W        W16782  16.892  13.727  29.183 -0.0316 -0.3574 -0.0807
73845W        W16783  17.084  13.634  26.874 -0.0986  0.1656  0.0291
73846W        W16784  15.901  11.258  29.344 -0.1164  0.0218  0.2903
73847W        W16785  16.606  12.846  24.821  0.1210 -0.2525  0.0421
73848W        W16786  15.710  12.711  26.297 -0.0355  0.0312  0.1482
73849W        W16787  15.207  15.119  27.437  0.0436  0.1582 -0.2906
73850W        W16788  17.257  12.348  27.190 -0.3140 -0.0037 -0.0839
73851W        W16789  17.157  10.897  29.450 -0.5097  0.2352  0.3422
73852W        W16790  16.236  10.905  30.579 -0.0765 -0.0742  0.0133
73853W        W16791  17.776  12.689  29.322 -0.1284  0.0538  0.3390
73854W        W16792  18.047  13.273  26.450  0.0593 -0.1781 -0.0984
73855W        W16793  16.353  13.419  27.367  0.0430  0.0129 -0.2231
73856W        W16794  15.489  12.348  24.426  0.0896 -0.0649  0.2176
73857W        W16795  15.820  12.650  29.409 -0.0979 -0.3925  0.0330
73858W        W16796  15.327  13.407  28.461  0.0840 -0.1574 -0.0296
73859W        W16797  16.059  14.678  30.000  0.3183  0.0482 -0.2747
73860W        W16798  18.174  14.525  28.413  0.0526 -0.3076  0.0704
73861W        W16799  16.873  13.325  27.380  0.1872 -0.0788 -0.1905
73862W        W16800  15.393  11.286  30.139 -0.0981  0.2354 -0.0627
73863W        W16801  16.679  13.038  27.801 -0.1483  0.4903 -0.3659
73864W        W16802  16.392  15.605  25.666 -0.0411 -0.0568  0.0453
73865W        W16803  15.241  14.366  27.018 -0.2436  0.0030 -0.2369
73866W        W16804  14.770  10.074  29.356  0.2500  0.2629 -0.2123
73867W        W16805  17.656  12.444  28.785 -0.1355 -0.0422 -0.0728
73868W        W16806  15.761  14.243  26.882  0.0180  0.2289  0.0401
73869W        W16807  17.419  12.273  27.690 -0.1077 -0.2600  0.3001
73870W        W16808  15.285  13.977  24.877 -0.1418 -0.2042  0.3457
73871W        W16809  17.914  12.152  29.769 -0.0720  0.1456 -0.1665
73872W        W16810  16.386  15.838  26.847  0.5900 -0.1808  0.0722
73873W        W16811  15.088  12.647  27.396  0.0288  0.3051 -0.1475
73874W        W16812  14.747  11.571  27.437  0.1611  0.0616  0.4230
73875W        W16813  17.567  11.058  26.718  0.0840 -0.0781 -0.2121
73876W        W16814  18.018  13.767  26.635 -0.0565  0.0563  0.0648
73877W        W16815  15.480  12.931  28.595 -0.1672  0.5584 -0.2059
73878W        W16816  17.810   9.784  30.802 -0.2425  0.0223  0.3155
73879W        W16817  13.701  13.753  29.800  0.2390  0.1486  0.0703
73880W        W16818  15.744  12.559  28.369  0.0144  0.2788  0.0499
73881W        W16819  17.820  11.175  28.431 -0.1858  0.1190  0.0315
73882W        W16820  16.969  14.036  27.885 -0.0792 -0.1347  0.0575
73883W        W16821  17.259  13.818  28.248 -0.0350 -0.1340 -0.0560
73884W        W16822  14.450  13.960  26.148  0.1443  0.2683 -0.2043
73885W        W16823  17.715  11.169  29.439  0.2152 -0.3861 -0.1061
73886W        W16824  16.810  11.406  27.873  0.1550 -0.2014 -0.2377
73887W        W16825  14.402  14.524  29.404  0.0854 -0.3530  0.0475
73888W        W16826  16.174  13.008  27.557 -0.0113  0.2575  0.5784
73889W        W16827  15.764  13.674  26.420  0.1047 -0.2029  0.1172
73890W        W16828  17.282  13.647  27.655  0.1895 -0.0660 -0.2391
73891W        W16829  16.426  11.482  29.861 -0.0302 -0.0111  0.2438
73892W        W16830  16.961  13.269  29.437  0.1531  0.1031 -0.1290
73893W        W16831  16.961  11.610  27.303 -0.1821  0.0158  0.0486
73894W        W16832  15.084  12.084  27.418  0.3065  0.2349  0.0554
73895W        W16833  16.804  12.163  28.702  0.2760  0.0851  0.0086
73896W        W16834  17.399  13.777  29.214 -0.0164 -0.1151 -0.0750
73897W        W16835  16.539  13.379  28.934 -0.2109  0.0051 -0.1437
73898W        W16836  16.694  13.431  31.318 -0.1442 -0.0075 -0.1047
73899W        W16837  17.835   9.706  30.313 -0.0804  0.1027 -0.5389
73900W        W16838  17.943  15.292  25.626  0.0249  0.2035  0.1505
73901W        W16839  17.652  11.688  29.432  0.2456  0.2702 -0.2004
73902W        W16840  15.295  13.810  27.019  0.2020  0.0757 -0.0505
73903W        W16841  14.476  14.820  28.375  0.0073 -0.0085  0.1080
73904W        W16842  15.789  13.192  26.238  0.3584 -0.1862  0.2007
73905W        W16843  17.805  10.722  28.659  0.2383 -0.3673  0.1627
73906W        W16844  15.833  15.462  28.445 -0.2471  0.0909  0.1095
73907W        W16845  16.162  12.756  25.142 -0.2080  0.0292 -0.2307
73908W        W16846  15.270  14.172  27.826 -0.1761 -0.1730 -0.0156
73909W        W16847  16.737  10.765  28.483 -0.3788 -0.1011 -0.0199
73910W        W16848  17.026  14.863  25.541  0.1655  0.1962 -0.0278
73911W        W16849  16.117  13.957  26.697  0.0045 -0.2170 -0.0435
73912W        W16850  19.420  10.841  30.393 -0.1088 -0.0272 -0.0622
73913W        W16851  17.550  13.946  26.684  0.3041  0.0847 -0.0435
73914W        W16852  15.786  10.684  26.999 -0.1406  0.3655  0.0276
73915W        W16853  15.133  10.977  28.774 -0.2812 -0.1338  0.1364
73916W        W16854  17.816  14.663  26.887  0.0328 -0.0143 -0.2804
73917W        W16855  15.475  10.886  29.298 -0.0130  0.3005  0.1904
73918W        W16856  15.843  13.083  31.386  0.1575 -0.0952 -0.3736
73919W        W16857  14.632  11.728  29.049  0.1274 -0.5374 -0.1857
73920W        W16858  16.707  12.244  27.893  0.2247 -0.3873  0.1105
73921W        W16859  16.477  11.096  24.864 -0.1587 -0.2031 -0.0394
73922W        W16860  14.916  14.263  28.189  0.2872  0.1694  0.0423
73923W        W16861  15.965  14.318  27.338  0.1854  0.1279 -0.0907
73924W        W16862  16.603  13.996  25.476  0.1895  0.2099 -0.0176
73925W        W16863  18.023  12.933  28.866 -0.0948  0.1675  0.0101
73926W        W16864  15.633  12.555  28.922  0.2456 -0.2806  0.3575
73927W        W16865  17.673  13.327  27.537  0.2938 -0.0365 -0.0087
73928W        W16866  17.227  13.346  24.176  0.2919 -0.4867 -0.3986
73929W        W16867  16.965  12.665  27.487 -0.0872 -0.2210 -0.1473
73930W        W16868  15.811  11.149  30.461 -0.0667 -0.0080 -0.1807
73931W        W16869  16.944  13.470  27.928 -0.0858  0.3563  0.0670
73932W        W16870  17.422  11.468  27.610  0.1946  0.1895  0.2660
73933W        W16871  16.612  10.925  30.163 -0.0350 -0.1794  0.0546
73934W        W16872  17.797  12.887  30.173 -0.1578 -0.0928  0.0507
73935W        W16873  15.588  13.340  30.893 -0.0805  0.0745  0.0675
73936W        W16874  14.798  12.474  30.205 -0.3323 -0.1241  0.1749
73937W        W16875  18.839  14.815  29.867 -0.2857  0.1166 -0.2900
73938W        W16876  18.409  12.989  27.058  0.0705 -0.0241  0.0703
73939W        W16877  17.868  11.046  29.960  0.0584 -0.1696  0.2136
73940W        W16878  17.858  14.129  29.724 -0.0263 -0.2377  0.0730
73941W        W16879  16.499  12.607  26.367 -0.1111 -0.3255 -0.1299
73942W        W16880  15.271  13.783  26.134 -0.1060  0.1439  0.0880
73943W        W16881  17.588  12.152  30.170 -0.1427  0.3126  0.1666
73944W        W16882  15.385  12.792  25.334 -0.1133 -0.2607  0.1756
73945W        W16883  16.782  11.750  29.004 -0.0300  0.2477  0.1239
73946W        W16884  17.501  14.826  25.807 -0.0390 -0.1153 -0.1599
73947W        W16885  16.284  13.926  27.261 -0.1870  0.1792 -0.1594
73948W        W16886  16.697  12.917  26.644  0.1045  0.2512  0.1747
73949W        W16887  14.393  10.658  28.569  0.0256 -0.1563  0.1657
73950W        W16888  16.260  15.305  28.691 -0.0226 -0.0370  0.0615
73951W        W16889  15.836  11.822  26.687  0.4284 -0.0384  0.1319
73952W        W16890  16.405  14.376  26.914  0.1704  0.0016 -0.0047
73953W        W16891  17.120  12.616  28.570  0.1775 -0.0177 -0.0414
73954W        W16892  18.414  12.756  30.398 -0.2110 -0.2854 -0.4698
73955W        W16893  16.646  10.302  27.166  0.4963 -0.4681 -0.1581
73956W        W16894  16.722  12.039  29.567 -0.5045  0.0915 -0.3233
73957W        W16895  14.687  14.025  24.913 -0.0075  0.0457 -0.0435
73958W        W16896  16.603  11.226  28.732  0.2012  0.4114  0.2338
73959W        W16897  16.208  14.057  28.276 -0.1300 -0.0849 -0.0382
73960W        W16898  14.391  14.450  29.959 -0.0196  0.0427  0.0719
73961W        W16899  15.818  14.950  27.489  0.0532 -0.1015  0.2486
73962W        W16900  17.253  11.321  29.291  0.2396 -0.5031 -0.2488
73963W        W16901  17.047  12.006  28.195 -0.1823  0.1107 -0.1225
73964W        W16902  15.369  12.203  28.446 -0.2521 -0.1421  0.1033
73965W        W16903  19.506  11.722  30.065 -0.4071 -0.1550  0.3060
73966W        W16904  16.262  12.268  28.320  0.2577 -0.1815 -0.1683
73967W        W16905  14.616  13.407  28.078  0.1168  0.1330  0.0747
73968W        W16906  16.159  13.623  30.385 -0.0070  0.0976  0.2642
73969W        W16907  18.244  12.159  28.569  0.1457  0.1359  0.0666
73970W        W16908  14.957  13.466  27.091  0.1881 -0.0687  0.0940
73971W        W16909  14.292  12.446  30.298 -0.1623 -0.2328  0.0010
73972W        W16910  16.127  13.538  29.879 -0.0888 -0.1250 -0.2473
73973W        W16911  17.734  14.273  28.373  0.0146 -0.0918 -0.0444
73974W        W16912  15.267  11.032  26.084 -0.0393 -0.3634 -0.1894
73975W        W16913  16.681  15.548  25.295 -0.1779 -0.0997  0.1018
73976W        W16914  15.354  12.645  31.104 -0.1801 -0.1117  0.1449
73977W        W16915  14.193  13.482  30.562 -0.0728  0.3033  0.0857
73978W        W16916  15.661  15.086  26.582  0.1157 -0.1314  0.6592
73979W        W16917  18.157  11.271  26.960 -0.3549 -0.0934 -0.1689
73980W        W16918  16.633  12.942  27.284 -0.0507  0.0879  0.0632
73981W        W16919  15.878  14.151  27.800  0.0988 -0.0061 -0.2125
73982W        W16920  15.040  11.525  26.880  0.1728  0.0533 -0.0351
73983W        W16921  16.272  14.767  26.531 -0.0499 -0.1590 -0.0257
73984W        W16922  15.801  13.212  23.994  0.1240  0.1152 -0.0144
73985W        W16923  17.902  14.160  27.011  0.0698 -0.1940  0.1267
73986W        W16924  16.511  16.477  26.235  0.2138 -0.2631 -0.2302
73987W        W16925  16.888  14.352  27.053  0.1074 -0.0127 -0.0753
73988W        W16926  17.003  11.883  27.707 -0.3741 -0.0344 -0.1385
73989W        W16927  17.745  12.048  28.403 -0.2295 -0.2129  0.2502
73990W        W16928  17.960  12.628  29.777  0.1149 -0.1350  0.1271
73991W        W16929  17.952  15.404  28.996  0.4342  0.1105 -0.0137
73992W        W16930  14.934  14.674  28.549 -0.2103 -0.0423 -0.0039
73993W        W16931  16.576  11.975  25.560 -0.2361  0.3822  0.0639
73994W        W16932  15.123  13.100  29.414  0.0475  0.1689 -0.2306
73995W        W16933  17.708  10.061  31.475 -0.2230  0.0983  0.0364
73996W        W16934  14.942  14.140  30.601  0.3712 -0.1673 -0.0253
73997W        W16935  17.417  15.707  24.586 -0.2228  0.2174 -0.1866
73998W        W16936  15.951  11.336  26.827 -0.2933  0.5009  0.0033
73999W        W16937  15.367  12.874  28.018  0.2151 -0.2442  0.0188
74000W        W16938  17.490  12.903  28.831 -0.2544 -0.1028  0.0220
74001W        W16939  16.332  14.175  25.908 -0.0519 -0.2964 -0.0518
74002W        W16940  15.414  13.283  27.018  0.1309 -0.0723 -0.1497
74003W        W16941  16.480  14.165  26.405  0.0388  0.1575  0.1503
74004W        W16942  16.856  15.036  27.776  0.1691  0.2427  0.1394
74005W        W16943  14.881  13.588  28.787 -0.1476 -0.1401  0.0006
74006W        W16944  14.388  10.836  29.042  0.1458 -0.0243  0.0172
74007W        W16945  18.703  13.564  27.817  0.0684 -0.2654 -0.1300
74008W        W16946  14.958  11.500  29.404  0.1373 -0.1925 -0.1203
74009W        W16947  18.107  11.463  29.501 -0.1616 -0.2401  0.1673
74010W        W16948  15.727  12.715  27.650 -0.2140  0.2270 -0.1796
74011W        W16949  17.104  12.684  26.506 -0.0652  0.0695 -0.2478
74012W        W16950  16.229  12.019  26.922 -0.0243  0.2907  0.1201
74013W        W16951  15.355  11.620  28.530 -0.1724  0.1635 -0.0547
74014W        W16952  17.109  12.862  25.686 -0.0497 -0.0863 -0.2476
74015W        W16953  18.431  12.821  29.893  0.2133 -0.2088 -0.1513
74016W        W16954  17.246  12.394  25.723 -0.1919 -0.2294 -0.2406
74017W        W16955  18.336  13.356  31.212 -0.2150 -0.1989 -0.0279
74018W        W16956  14.547  11.179  28.676  0.2665 -0.2469 -0.0213
74019W        W16957  16.503  11.913  26.074 -0.1637  0.2408 -0.3438
74020W        W16958  15.577  14.597  26.635 -0.1671 -0.1465 -0.1195
74021W        W16959  15.333  14.424  28.432 -0.0611  0.2231 -0.3122
74022W        W16960  18.223  13.391  29.218 -0.0152 -0.1393 -0.0910
74023W        W16961  15.979  11.191  27.974  0.1267 -0.2042 -0.0110
74024W        W16962  17.269  13.606  26.403  0.2033  0.1715 -0.0162
74025W        W16963  16.958  12.889  29.022  0.1351 -0.1073  0.2159
74026W        W16964  14.965  13.566  24.874  0.2369 -0.0011 -0.2061
74027W        W16965  18.396  13.584  28.224  0.0139  0.0864  0.4073
74028W        W16966  18.066  14.657  29.024 -0.0667  0.0960  0.0569
74029W        W16967  13.662  11.843  28.925  0.1235  0.0192  0.1575
74030W        W16968  17.819  15.602  26.491  0.1198  0.0344  0.1850
74031W        W16969  18.490  14.335  27.188  0.0100 -0.2709  0.1745
74032W        W16970  16.199  12.801  28.026  0.2282  0.1071  0.3361
74033W        W16971  15.499  12.277  27.742  0.0841 -0.1862  0.0851
74034W        W16972  15.282  15.294  25.620 -0.4437  0.0254  0.2055
74035W        W16973  16.689  12.665  28.211 -0.0383  0.0515 -0.0585
74036W        W16974  16.547  11.330  30.402  0.2645  0.3402  0.0620
74037W        W16975  16.516  15.128  26.115 -0.1526  0.0330 -0.2384
74038W        W16976  17.386  11.690  28.991 -0.1271  0.1845 -0.0821
74039W        W16977  17.330  12.885  29.353 -0.2740  0.0054 -0.2479
74040W        W16978  15.664  13.795  30.577 -0.3532 -0.1208 -0.0030
74041W        W16979  14.611  12.157  27.516 -0.0156 -0.0206  0.1483
74042W        W16980  15.809  12.023  28.621 -0.2247 -0.4104 -0.0144
74043W        W16981  15.789  14.491  25.096 -0.0523 -0.2078 -0.0333
74044W        W16982  14.988  13.843  25.281 -0.2073 -0.0419 -0.2361
74045W        W16983  17.779  15.193  26.156 -0.2384 -0.0301 -0.1507
74046W        W16984  16.695  13.481  26.470  0.0282 -0.0281  0.2861
74047W        W16985  18.646  13.379  27.221 -0.0211  0.0299  0.2452
74048W        W16986  15.762  12.419  25.880  0.1358 -0.1110 -0.0476
74049W        W16987  19.345  11.105  27.749 -0.0093  0.0623  0.1987
74050W        W16988  18.314  10.455  26.529  0.0560 -0.0078  0.0640
74051W        W16989  15.236  13.539  29.607  0.3241 -0.2320 -0.1593
74052W        W16990  13.491  11.613  27.109 -0.2727  0.0383 -0.0428
74053W        W16991  15.792  13.677  25.417 -0.0981  0.0996 -0.0696
74054W        W16992  16.257  13.657  26.327 -0.1632  0.0871 -0.2611
74055W        W16993  15.326  11.964  28.976 -0.4203 -0.1307  0.0737
74056W        W16994  13.871  11.456  29.626  0.1939 -0.1994  0.0728
74057W        W16995  15.824  14.141  25.786 -0.0450  0.2963  0.2535
74058W        W16996  14.618  10.529  26.521  0.1698  0.1567 -0.0755
74059W        W16997  17.366  15.388  27.035  0.3542  0.0265 -0.2944
74060W        W16998  16.279  10.916  28.460  0.2120  0.3639 -0.0038
74061W        W16999  15.820  11.327  27.543  0.0596 -0.0801  0.0788
74062W        W17000  18.015  13.502  27.896 -0.3082 -0.0201  0.3832
74063W        W17001  16.626  13.772  28.191 -0.1427  0.1729 -0.1869
74064W        W17002  16.055  12.277  27.778  0.0725  0.1469  0.1676
74065W        W17003  17.713  13.871  31.464 -0.1163 -0.0324  0.0006
74066W        W17004  15.664  12.888  24.554 -0.3173 -0.2238 -0.0503
74067W        W17005  17.552  11.043  31.010 -0.1263 -0.2475 -0.4228
74068W        W17006  15.686  13.409  29.498  0.1777  0.0474 -0.0340
74069W        W17007  14.018  12.150  24.900 -0.2078  0.0119 -0.1205
74070W        W17008  17.963  13.126  28.336 -0.1276  0.3342 -0.2056
74071W        W17009  16.981  14.020  26.554 -0.2488 -0.0636 -0.0899
74072W        W17010  16.437  13.291  25.995  0.0360 -0.2196 -0.3384
74073W        W17011  16.392  13.205  28.251  0.0224  0.2279  0.2927
74074W        W17012  15.776  14.467  28.748 -0.0264 -0.1783  0.1144
74075W        W17013  14.931  10.443  30.099 -0.2002 -0.2629  0.1660
74076W        W17014  17.536  13.599  27.120  0.1878 -0.1786 -0.1253
74077W        W17015  15.496  14.870  31.006  0.0444 -0.0395 -0.3773
74078W        W17016  19.210  13.521  26.167  0.1950 -0.2804  0.1841
74079W        W17017  18.871  11.290  28.819 -0.0884 -0.0760  0.0238
74080W        W17018  17.337  12.947  27.671 -0.3273  0.3061  0.2667
74081W        W17019  16.029  10.891  31.581 -0.2198 -0.5807 -0.0338
74082W        W17020  16.553  11.100  30.922 -0.0232 -0.0833  0.2563
74083W        W17021  17.318  12.984  30.231  0.1277 -0.3667 -0.0930
74084W        W17022  16.334  11.536  29.215 -0.0967 -0.0615  0.0613
74085W        W17023  17.088  12.772  26.996 -0.1323 -0.0253 -0.0968
74086W        W17024  16.721  13.276  26.944 -0.1905  0.1025 -0.1546
74087W        W17025  14.016  13.590  28.437  0.0018  0.1265 -0.0247
74088W        W17026  15.892  13.299  26.733 -0.1168  0.0861 -0.0917
74089W        W17027  15.758  13.549  28.671 -0.1561  0.0723  0.1605
74090W        W17028  16.622  13.915  26.845 -0.0114  0.1124 -0.1248
74091W        W17029  18.753  14.193  29.768 -0.3473 -0.1986 -0.0330
74092W        W17030  17.445  13.604  25.107  0.1228  0.1495  0.2165
74093W        W17031  18.862  13.074  26.027  0.1491 -0.1153  0.3771
74094W        W17032  17.763  15.357  28.446  0.0435  0.1050  0.0084
74095W        W17033  16.569  14.279  30.925 -0.2374  0.3151  0.4244
74096W        W17034  16.069  13.475  29.070 -0.0728 -0.0137 -0.0073
74097W        W17035  17.927  13.731  29.351  0.1421  0.1634 -0.0125
74098W        W17036  14.278  12.837  28.974  0.0536  0.0583 -0.1863
74099W        W17037  14.514  14.164  27.793  0.0079  0.0694 -0.2128
74100W        W17038  15.156  13.391  27.940  0.1351 -0.1593 -0.1363
74101W        W17039  16.884  11.355  30.019  0.1488  0.0707 -0.2669
74102W        W17040  16.403  11.839  28.621  0.2644 -0.0030  0.0299
74103W        W17041  16.500  12.156  26.516  0.2886  0.0869 -0.0471
74104W        W17042  16.706  14.650  28.378 -0.1589  0.1213 -0.0601
74105W        W17043  16.333  13.655  28.579  0.2632  0.0826  0.4111
74106W        W17044  16.542  11.665  31.128 -0.1546  0.0881  0.1252
74107W        W17045  17.119  11.683  29.777  0.0132  0.1090  0.2807
74108W        W17046  16.071  12.735  29.856  0.1740 -0.1323 -0.2500
74109W        W17047  15.815  13.120  28.242 -0.2280 -0.3096  0.0033
74110W        W17048  15.902  14.185  30.130  0.0233  0.1085 -0.3015
74111W        W17049  16.165  14.480  29.517  0.2274 -0.1445 -0.3336
74112W        W17050  18.384  11.467  30.178 -0.1334  0.1096  0.2560
74113W        W17051  15.439  11.307  29.611  0.2158  0.4059  0.0321
74114W        W17052  16.636  12.772  29.517  0.0526 -0.2197  0.1864
74115W        W17053  18.339  13.286  31.726 -0.1278 -0.0634  0.0466
74116W        W17054  16.187  14.502  28.478  0.0589  0.1133  0.2005
74117W        W17055  15.429  11.740  31.409 -0.3034 -0.1063 -0.3275
74118W        W17056  16.419  12.925  29.064  0.4342  0.2675  0.0596
74119W        W17057  16.094  12.415  28.819 -0.1357  0.1414 -0.1750
74120W        W17058  18.599  14.063  29.284  0.0408  0.3005  0.3723
74121W        W17059  15.647  14.511  29.660  0.3407 -0.1868  0.3618
74122W        W17060  15.165  11.790  30.280 -0.0678 -0.1615 -0.2134
74123W        W17061  16.985  12.833  29.849 -0.5929 -0.0348 -0.0626
74124W        W17062  16.057  11.852  30.885  0.0586 -0.0257  0.2364
74125W        W17063  16.663  10.240  31.661  0.0385 -0.2071  0.1974
74126W        W17064  15.756   9.998   0.355 -0.1801 -0.1989 -0.3325
74127W        W17065  13.247  13.929  31.750 -0.0306  0.0046 -0.1051
74128W        W17066  19.282  11.231  31.188  0.1961 -0.1740 -0.1338
74129W        W17067  16.772  11.231  31.393  0.1245  0.1606 -0.0632
74130W        W17068  17.485  11.168  30.402 -0.1919 -0.3067 -0.0690
74131W        W17069  17.381   9.874  31.981  0.0126  0.0413  0.0265
74132W        W17070  16.841  11.145   0.845  0.0885 -0.1314  0.2987
74133W        W17071  15.131  14.497  30.888 -0.1890  0.0432 -0.1227
74134W        W17072  16.520  12.561  28.678  0.3091 -0.1093 -0.0645
74135W        W17073  16.573  14.746  29.350 -0.1409 -0.0494 -0.1429
74136W        W17074  15.915  13.573  28.148 -0.2998 -0.0007 -0.1209
74137W        W17075  15.545  11.909  29.958 -0.0890 -0.2914  0.3464
74138W        W17076  17.441  13.725  28.719  0.0785 -0.1553 -0.1680
74139W        W17077  18.372  11.136  30.944 -0.3254 -0.0005  0.0060
74140W        W17078  14.073  11.761   0.822  0.1425 -0.3095 -0.1960
74141W        W17079  16.072  14.039  28.801 -0.0980 -0.1272 -0.2244
74142W        W17080  16.384  12.219  30.845 -0.0809 -0.0491  0.2732
74143W        W17081  17.125  13.443  30.468 -0.0083  0.2101 -0.2379
74144W        W17082  19.217  11.410  30.289  0.2476  0.4149 -0.0828
74145W        W17083  15.292  14.274  29.436 -0.3083  0.1582  0.3450
74146W        W17084  17.972  11.488  31.483 -0.2098  0.1424  0.4300
74147W        W17085  17.388  13.561  29.692 -0.2677 -0.3693 -0.0364
74148W        W17086  15.747  12.278  30.774 -0.1748 -0.1999 -0.5941
74149W        W17087  17.201  13.744  31.437 -0.1331 -0.0695  0.1293
74150W        W17088  14.577  13.201  30.767 -0.0849  0.2098 -0.1093
74151W        W17089  16.366  12.621  30.248 -0.2441  0.0048  0.3983
74152W        W17090  15.627  10.025  31.546  0.0551 -0.0062 -0.3561
74153W        W17091  15.975  13.670  27.622  0.1276 -0.4449  0.1453
74154W        W17092  16.427  13.476  29.451  0.0508  0.1706 -0.0233
74155W        W17093  15.205  12.871  30.230 -0.1541 -0.1722 -0.0919
74156W        W17094  16.662  13.829  30.714  0.1906 -0.0209 -0.2314
74157W        W17095  19.751  11.624  30.486 -0.3560 -0.1200 -0.2315
74158W        W17096  15.645  12.265  30.304 -0.0450  0.0194 -0.1002
74159W        W17097  16.748  11.049  29.695 -0.0519 -0.4509 -0.0872
74160W        W17098  17.111  10.470   0.014 -0.1739  0.0174 -0.0517
74161W        W17099  17.900  11.468  30.380  0.1193  0.4381 -0.0086
74162W        W17100  17.589  13.233  30.738 -0.0853 -0.0076 -0.1684
74163W        W17101  16.485  14.502   0.657  0.1913  0.0098  0.1441
74164W        W17102  16.071  15.485  29.336 -0.2151 -0.0792  0.1547
74165W        W17103  15.229  11.833   0.012  0.0940 -0.0622 -0.0391
74166W        W17104  14.457  13.282  28.545  0.1795  0.1869 -0.0656
74167W        W17105  16.494  12.767  30.779 -0.0103  0.0888  0.1422
74168W        W17106  13.470  13.387  30.340 -0.0078  0.2388 -0.1445
74169W        W17107  15.339  11.924  30.731  0.4609  0.1429  0.0989
74170W        W17108  18.824  13.444  31.574  0.1022  0.0793  0.1135
74171W        W17109  16.705  12.423  29.900  0.3633 -0.0082 -0.0366
74172W        W17110  16.411  14.001  30.101 -0.0277  0.0057  0.4024
74173W        W17111  16.327  17.457  16.332  0.2819  0.2522 -0.0407
74174W        W17112  14.334  16.126  15.680  0.1976 -0.1313 -0.2907
74175W        W17113  16.423  15.823  15.343  0.3002 -0.0963 -0.1845
74176W        W17114  17.122  17.246  14.860  0.0171 -0.0375  0.0698
74177W        W17115  13.465  13.035  16.169  0.1167  0.1714  0.1210
74178W        W17116  17.334  18.720  14.902 -0.1234  0.0326 -0.1396
74179W        W17117  14.423  13.069  18.563  0.0272  0.0271  0.3301
74180W        W17118  15.245  17.717  16.461  0.0454  0.0886 -0.2115
74181W        W17119  17.750  20.252  16.511  0.0964 -0.2058 -0.0161
74182W        W17120  15.995  17.967  14.788  0.0963  0.1261 -0.1448
74183W        W17121  15.170  15.709  15.850  0.1023  0.1325 -0.1076
74184W        W17122  15.634  17.727  15.362  0.0051  0.2038 -0.1022
74185W        W17123  14.490  13.918  15.277 -0.3043  0.1557 -0.3087
74186W        W17124  13.500  14.363  17.736 -0.1441 -0.2036 -0.0037
74187W        W17125  16.238  15.463  14.955 -0.1427  0.2489  0.1859
74188W        W17126  13.987  16.416  16.101  0.1299  0.0817  0.0670
74189W        W17127  14.640  13.973  16.199  0.1281  0.2229 -0.1729
74190W        W17128  14.536  14.696  14.917 -0.0450  0.2152  0.0398
74191W        W17129  15.717  17.005  15.560 -0.2277  0.3521 -0.0622
74192W        W17130  15.665  13.720  16.302 -0.0895  0.1285 -0.1098
74193W        W17131  15.595  14.995  17.017 -0.0956 -0.0956 -0.1335
74194W        W17132  17.375  18.518  15.563  0.1379 -0.0320 -0.0844
74195W        W17133  14.013  16.522  14.244  0.0508 -0.1975  0.0758
74196W        W17134  14.199  16.587  15.541  0.0377  0.0089  0.0030
74197W        W17135  14.646  16.062  16.926  0.0483  0.0039  0.0019
74198W        W17136  16.536  15.851  14.824  0.0161  0.1167  0.1951
74199W        W17137  16.940  15.731  15.626 -0.0319  0.0829 -0.0288
74200W        W17138  17.434  17.176  17.327 -0.0271 -0.1561  0.1194
74201W        W17139  16.367  16.205  16.614  0.0527 -0.1518 -0.0376
74202W        W17140  17.213  16.768  16.875  0.0559 -0.0959  0.2048
74203W        W17141  14.365  17.073  14.683 -0.2214 -0.1290 -0.1790
74204W        W17142  13.631  18.443  14.885  0.1807 -0.0957 -0.0503
74205W        W17143  15.255  16.479  15.379 -0.1206  0.2952 -0.0636
74206W        W17144  18.277  17.673  15.768 -0.1869  0.1175  0.2924
74207W        W17145  17.272  19.211  16.393  0.1950 -0.0493 -0.1022
74208W        W17146  15.170  18.805  16.496  0.2414 -0.1329 -0.2328
74209W        W17147  15.762  17.781  14.363  0.1707  0.0443  0.0190
74210W        W17148  13.573  17.407  16.492 -0.1485  0.2296 -0.0880
74211W        W17149  13.690  19.205  15.510 -0.0020 -0.2172 -0.1201
74212W        W17150  16.382  17.008  16.094 -0.1008  0.2011 -0.0922
74213W        W17151  17.157  17.466  16.977 -0.0329  0.0334  0.1303
74214W        W17152  13.150  18.410  15.739  0.0428  0.3581 -0.0813
74215W        W17153  15.107  16.893  15.088  0.2179  0.0635  0.2791
74216W        W17154  12.724  16.493  17.219  0.0718  0.0848  0.0526
74217W        W17155  14.556  14.984  16.111 -0.0408  0.1143 -0.0815
74218W        W17156  17.601  16.227  15.949 -0.2845  0.2959 -0.0733
74219W        W17157  15.242  19.033  15.463  0.1254  0.2206  0.0584
74220W        W17158  17.802  15.337  14.811 -0.0984  0.2050  0.1340
74221W        W17159  15.235  15.272  14.962  0.0551 -0.1677  0.0775
74222W        W17160  16.783  14.637  14.989  0.0028 -0.0594 -0.1421
74223W        W17161  15.927  12.793  15.541 -0.0210  0.0787  0.1742
74224W        W17162  15.059  18.477  15.777  0.2491 -0.4377  0.0185
74225W        W17163  15.241  14.228  15.803  0.0613 -0.2764 -0.1142
74226W        W17164  17.038  17.540  17.447  0.4229  0.0520 -0.0446
74227W        W17165  16.492  16.773  15.521 -0.0045 -0.0970  0.0884
74228W        W17166  14.908  15.498  17.083 -0.1484  0.1004  0.2483
74229W        W17167  13.248  17.953  17.733  0.1438  0.0728 -0.1036
74230W        W17168  13.309  15.232  16.390 -0.1301  0.0408  0.2273
74231W        W17169  19.181  18.175  14.692  0.4193 -0.1293 -0.3194
74232W        W17170  16.839  16.851  14.970  0.3390  0.0603  0.4312
74233W        W17171  16.688  17.141  14.582  0.0315  0.1066  0.0170
74234W        W17172  13.456  14.097  15.633 -0.1767 -0.0431  0.1809
74235W        W17173  14.169  15.876  16.084 -0.2036 -0.0744  0.0919
74236W        W17174  14.130  15.972  17.394  0.1788  0.0530  0.0930
74237W        W17175  15.669  13.355  14.636 -0.2944  0.1382  0.0515
74238W        W17176  18.815  17.066  16.896 -0.0783 -0.1645  0.2810
74239W        W17177  13.557  19.069  18.432  0.0828  0.0439 -0.2725
74240W        W17178  17.203  16.542  16.279 -0.0877  0.0078  0.1900
74241W        W17179  15.389  15.303  15.460 -0.1970 -0.1702 -0.2027
74242W        W17180  17.071  18.331  15.051  0.2761  0.0278  0.4946
74243W        W17181  17.340  15.475  14.663  0.1477 -0.0869 -0.0746
74244W        W17182  16.123  13.494  16.442  0.2591 -0.2168 -0.1652
74245W        W17183  16.590  14.683  15.615  0.0826 -0.2011  0.0265
74246W        W17184  15.596  16.105  14.968  0.1975 -0.2747  0.0370
74247W        W17185  15.692  17.474  14.784  0.0042  0.2719  0.2788
74248W        W17186  17.468  16.355  16.687  0.1494  0.3247  0.0502
74249W        W17187  17.386  15.187  15.044 -0.2717 -0.0474 -0.0761
74250W        W17188  12.862  18.522  16.925  0.2032  0.3036 -0.0029
74251W        W17189  14.927  15.294  17.944 -0.1447  0.1894 -0.2472
74252W        W17190  14.783  16.510  17.092  0.1575 -0.1168 -0.0346
74253W        W17191  15.143  20.234  16.146  0.1886  0.3375 -0.0919
74254W        W17192  13.069  15.121  17.414 -0.1487  0.0965 -0.4364
74255W        W17193  14.540  16.174  15.101  0.0716 -0.0201  0.1816
74256W        W17194  13.749  16.681  17.642 -0.0949 -0.0429  0.0280
74257W        W17195  13.793  17.878  16.323  0.1391  0.0686  0.1653
74258W        W17196  15.648  15.723  15.753 -0.1470  0.2211  0.4210
74259W        W17197  15.798  14.187  16.487 -0.0740  0.1755 -0.2143
74260W        W17198  18.453  13.806  15.094 -0.0152 -0.0805 -0.1120
74261W        W17199  15.406  16.121  15.681  0.4152 -0.0518 -0.0929
74262W        W17200  17.029  17.138  15.336 -0.0543  0.0986 -0.1555
74263W        W17201  17.049  14.588  15.480  0.0989  0.2156  0.1524
74264W        W17202  16.755  16.982  13.929  0.0215 -0.1185 -0.0662
74265W        W17203  14.165  16.940  15.940 -0.1576 -0.0766 -0.2104
74266W        W17204  14.376  15.447  16.183  0.1325  0.0791  0.0320
74267W        W17205  12.298  14.677  17.774  0.0143  0.3894  0.0361
74268W        W17206  13.757  14.949  15.029 -0.0716  0.0386  0.1661
74269W        W17207  18.881  16.660  16.074  0.1020  0.1544 -0.1552
74270W        W17208  15.120  14.967  14.418  0.1349  0.1376 -0.0453
74271W        W17209  16.646  15.793  16.714  0.2502 -0.0149 -0.1362
74272W        W17210  16.121  15.255  14.136 -0.0011 -0.0886  0.2255
74273W        W17211  13.213  17.488  16.817 -0.0207  0.2508 -0.0817
74274W        W17212  17.891  16.380  17.410  0.0037  0.1812  0.0335
74275W        W17213  16.534  17.896  14.800 -0.0427 -0.1408 -0.0349
74276W        W17214  19.014  19.578  16.640  0.2860 -0.2033 -0.2073
74277W        W17215  17.356  17.687  15.863  0.1783  0.0221  0.1249
74278W        W17216  16.030  13.805  15.785 -0.4505 -0.0282  0.0309
74279W        W17217  14.293  14.449  15.331  0.2452 -0.1650 -0.0306
74280W        W17218  13.156  18.763  16.118 -0.0746  0.0131  0.2874
74281W        W17219  14.072  17.566  16.710  0.6174 -0.0262  0.2627
74282W        W17220  15.945  15.319  15.336 -0.0920 -0.0602 -0.1348
74283W        W17221  18.233  18.275  16.332  0.0213 -0.1132  0.1116
74284W        W17222  15.161  17.710  15.377 -0.0461  0.0792  0.3860
74285W        W17223  15.693  16.135  16.606  0.1241 -0.1753  0.1404
74286W        W17224  15.651  15.001  15.821  0.0576 -0.2046 -0.1773
74287W        W17225  17.956  16.220  16.796  0.2926  0.1061  0.0770
74288W        W17226  17.835  16.762  16.645  0.2336  0.0815 -0.1950
74289W        W17227  14.508  15.265  13.701  0.0653 -0.0245 -0.0640
74290W        W17228  16.888  19.486  16.863  0.1471 -0.0862  0.2016
74291W        W17229  14.499  17.806  15.108  0.1258 -0.1849 -0.0328
74292W        W17230  13.806  16.879  15.580  0.0503  0.0294  0.0594
74293W        W17231  15.471  18.669  15.235  0.1850 -0.0889  0.4839
74294W        W17232  18.192  15.003  16.017  0.1652 -0.1436 -0.0068
74295W        W17233  12.679  15.030  17.102 -0.1351  0.1578  0.0500
74296W        W17234  15.829  15.283  17.345 -0.0154  0.0530  0.2528
74297W        W17235  14.824  14.347  15.290  0.1094  0.3166 -0.0957
74298W        W17236  13.943  17.080  17.434 -0.0638 -0.1339 -0.0105
74299W        W17237  17.463  15.739  15.163  0.0330  0.0021 -0.0896
74300W        W17238  16.546  15.323  15.461  0.1347  0.1494 -0.1757
74301W        W17239  16.082  16.914  15.186 -0.0038  0.0459  0.1414
74302W        W17240  17.670  17.112  14.905  0.1963 -0.3815 -0.3535
74303W        W17241  17.625  15.373  14.268 -0.0157 -0.0979 -0.1057
74304W        W17242  16.829  13.839  15.243  0.0636  0.1899 -0.0776
74305W        W17243  13.905  16.514  16.635  0.2568  0.2857  0.1901
74306W        W17244  15.724  16.556  15.278  0.0912 -0.2578 -0.2959
74307W        W17245  15.357  17.253  15.352 -0.4001 -0.0412  0.1734
74308W        W17246  15.653  15.553  14.936 -0.2009  0.0071 -0.1599
74309W        W17247  17.277  17.915  14.793  0.0915 -0.2581  0.2027
74310W        W17248  12.950  16.784  16.354 -0.0828 -0.0307 -0.0802
74311W        W17249  15.178  16.333  17.379 -0.2355 -0.0738  0.4823
74312W        W17250  18.811  18.521  14.813  0.1692 -0.2115 -0.0629
74313W        W17251  15.185  13.251  16.356 -0.1245 -0.2817 -0.0654
74314W        W17252  13.947  15.680  14.866 -0.2419 -0.2104 -0.0196
74315W        W17253  16.153  14.055  16.196 -0.0270  0.0103  0.0554
74316W        W17254  14.235  17.884  15.979 -0.1445 -0.1287  0.0569
74317W        W17255  17.662  13.168  16.676  0.2560  0.0880  0.0172
74318W        W17256  15.674  12.492  16.223 -0.0172 -0.2080  0.0436
74319W        W17257  13.787  14.199  16.603 -0.0724 -0.2531  0.1647
74320W        W17258  17.977  17.295  16.984  0.0037  0.1445  0.3161
74321W        W17259  16.354  15.574  14.426  0.2211  0.2490  0.2603
74322W        W17260  15.438  16.620  15.789  0.1607  0.1812 -0.1755
74323W        W17261  14.167  14.994  14.711  0.0125 -0.0287 -0.3590
74324W        W17262  15.290  14.687  16.699  0.3080 -0.0071  0.1092
74325W        W17263  14.038  16.135  16.903 -0.2843 -0.2990  0.0371
74326W        W17264  12.953  18.388  16.446  0.0064  0.0824  0.1333
74327W        W17265  15.359  17.208  15.997  0.0441 -0.0181  0.0590
74328W        W17266  16.655  16.217  15.558 -0.3327 -0.2998  0.0686
74329W        W17267  15.525  15.934  16.145  0.1257 -0.2142  0.0861
74330W        W17268  17.132  15.225  14.270 -0.0455  0.1040  0.3116
74331W        W17269  15.053  16.893  15.631  0.1336  0.0381  0.2655
74332W        W17270  15.772  18.304  14.428  0.0504 -0.1555 -0.1313
74333W        W17271  14.922  14.207  16.617  0.0330 -0.1830  0.0378
74334W        W17272  14.930  16.421  15.869  0.0069 -0.1495  0.1648
74335W        W17273  15.374  16.539  14.828 -0.2532  0.1741  0.3714
74336W        W17274  14.302  18.014  16.430 -0.1274  0.2690 -0.0841
74337W        W17275  14.506  17.569  15.547 -0.2878  0.3383 -0.1685
74338W        W17276  17.895  14.136  15.769  0.2426  0.1094  0.0112
74339W        W17277  14.625  19.862  16.223  0.0456 -0.2237 -0.1667
74340W        W17278  15.746  14.601  15.518 -0.0708  0.1004  0.3218
74341W        W17279  14.079  15.291  15.208 -0.1783 -0.3699  0.0108
74342W        W17280  17.877  14.641  15.836  0.2094 -0.0309  0.2058
74343W        W17281  17.050  16.157  13.922 -0.0808  0.2254  0.1199
74344W        W17282  13.763  15.700  17.093 -0.1507 -0.1911  0.0023
74345W        W17283  15.302  13.676  16.710 -0.0847 -0.3069  0.1756
74346W        W17284  14.279  19.507  16.485 -0.1059  0.1334  0.2478
74347W        W17285  17.832  17.434  16.519 -0.0893  0.1394 -0.1154
74348W        W17286  16.975  14.637  16.011  0.3728  0.0770  0.1612
74349W        W17287  16.649  18.700  17.256 -0.0273  0.0199 -0.0141
74350W        W17288  14.609  17.111  18.060  0.0793 -0.0870  0.0536
74351W        W17289  14.227  15.037  16.490 -0.0106  0.4300  0.0457
74352W        W17290  17.001  16.304  17.020  0.2375  0.2182 -0.0843
74353W        W17291  16.141  14.596  15.855 -0.1307 -0.2713 -0.1452
74354W        W17292  13.158  17.928  15.986  0.1054  0.0209  0.4865
74355W        W17293  16.794  17.580  16.123 -0.0086 -0.2971 -0.0613
74356W        W17294  14.866  16.036  15.516 -0.0408 -0.1217 -0.0799
74357W        W17295  14.609  16.901  15.106  0.2462 -0.1018  0.2823
74358W        W17296  15.263  14.754  15.696 -0.0486  0.1698  0.0944
74359W        W17297  18.132  17.161  16.162 -0.1127  0.1354  0.0650
74360W        W17298  14.987  13.779  15.619  0.1596 -0.0707  0.0571
74361W        W17299  14.110  14.106  16.174  0.1404  0.1491  0.1836
74362W        W17300  16.437  16.455  15.964  0.2577  0.1615 -0.0684
74363W        W17301  18.415  17.769  15.298  0.1440 -0.1288  0.0155
74364W        W17302  16.186  15.124  15.742 -0.3482  0.0087 -0.1098
74365W        W17303  13.229  18.811  17.091 -0.0633  0.1317  0.0609
74366W        W17304  15.675  13.196  16.425  0.0550 -0.0202  0.1593
74367W        W17305  18.320  18.664  15.575  0.4168 -0.1256 -0.0123
74368W        W17306  15.539  17.210  16.506 -0.2100 -0.4105  0.0648
74369W        W17307  15.931  15.908  15.273  0.0313  0.1424  0.1475
74370W        W17308  12.899  16.428  15.507  0.1284  0.0562 -0.1901
74371W        W17309  16.076  17.487  15.111 -0.3232 -0.4776 -0.1207
74372W        W17310  15.924  14.628  16.780 -0.1489 -0.3487  0.4762
74373W        W17311  13.804  18.247  15.907  0.2433 -0.2114  0.3371
74374W        W17312  16.342  16.845  14.765  0.1623  0.0958 -0.1019
74375W        W17313  14.139  16.987  15.237 -0.0482 -0.0623  0.3609
74376W        W17314  17.064  14.404  14.636 -0.0205 -0.0598  0.0153
74377W        W17315  16.519  17.307  15.038  0.1616  0.1717 -0.1795
74378W        W17316  14.597  15.281  16.761  0.1925 -0.2476 -0.0838
74379W        W17317  17.875  15.144  17.294  0.0246 -0.2586 -0.0225
74380W        W17318  16.088  16.526  14.153  0.0220 -0.0712 -0.3737
74381W        W17319  16.286  14.431  16.483 -0.1038 -0.2639 -0.0054
74382W        W17320  15.523  13.797  15.673 -0.0757  0.0919 -0.0565
74383W        W17321  16.677  17.487  14.124  0.1348 -0.2671 -0.0401
74384W        W17322  13.113  15.963  16.439 -0.2484 -0.0020  0.0308
74385W        W17323  16.138  18.031  17.244  0.2955 -0.2261 -0.0047
74386W        W17324  14.524  17.223  17.577 -0.2752  0.4085 -0.0014
74387W        W17325  16.359  14.657  14.781 -0.2249 -0.3135 -0.1068
74388W        W17326  14.701  14.221  14.396  0.2552  0.2373  0.2348
74389W        W17327  14.958  15.570  15.266  0.0650  0.1930 -0.2756
74390W        W17328  17.474  16.958  16.331  0.2136 -0.2005 -0.0547
74391W        W17329  15.288  17.489  14.268  0.0697  0.0783  0.2465
74392W        W17330  16.980  15.042  15.721  0.1071  0.1575  0.0848
74393W        W17331  15.160  15.943  16.986  0.1992  0.0658 -0.0312
74394W        W17332  17.224  16.851  14.042  0.0063 -0.2875  0.1237
74395W        W17333  16.278  16.390  15.249 -0.1253  0.1639  0.0373
74396W        W17334  15.036  19.486  15.421 -0.1163  0.0916  0.0647
74397W        W17335  13.629  13.460  17.517 -0.0146  0.0404 -0.3593
74398W        W17336  16.984  16.035  15.199  0.1236  0.1642 -0.0346
74399W        W17337  16.094  14.994  16.226 -0.0933 -0.1969 -0.0399
74400W        W17338  16.429  13.823  15.478 -0.0541 -0.1686 -0.0235
74401W        W17339  16.201  14.880  15.174 -0.2539  0.2083  0.0077
74402W        W17340  13.434  17.769  17.359 -0.2788 -0.4444 -0.0225
74403W        W17341  13.978  14.807  16.814 -0.1584  0.0113 -0.1574
74404W        W17342  17.564  18.849  17.225 -0.0629  0.1422  0.2399
74405W        W17343  17.020  14.986  15.230  0.2024  0.3103 -0.2669
74406W        W17344  18.167  15.160  16.851  0.1042  0.0193 -0.0554
74407W        W17345  17.475  15.765  15.803  0.2866 -0.0411  0.0350
74408W        W17346  16.874  16.186  14.404  0.0641  0.0428  0.0730
74409W        W17347  14.321  13.631  16.354 -0.2481  0.0648  0.1860
74410W        W17348  16.428  17.130  17.204 -0.0593 -0.0238  0.3016
74411W        W17349  15.122  13.741  16.146 -0.2457 -0.0335  0.0140
74412W        W17350  16.266  15.639  15.847 -0.0279 -0.1638  0.0315
74413W        W17351  16.800  19.143  15.372 -0.1118  0.0357 -0.4766
74414W        W17352  16.645  15.872  16.087  0.1470 -0.0466 -0.0890
74415W        W17353  16.681  15.260  14.106 -0.0527 -0.3321 -0.1753
74416W        W17354  12.134  14.202  17.604 -0.0068  0.3441 -0.3717
74417W        W17355  13.839  18.377  16.519  0.0749 -0.1162 -0.1188
74418W        W17356  15.479  14.816  15.067  0.3961  0.0016  0.4049
74419W        W17357  15.207  17.372  14.866  0.1492  0.2031 -0.0057
74420W        W17358  14.520  17.061  15.577  0.0018  0.1251  0.3139
74421W        W17359  18.734  16.564  16.865  0.0782  0.1643  0.0860
74422W        W17360  15.551  13.508  15.061 -0.1788  0.0681 -0.0558
74423W        W17361  15.322  15.319  16.081 -0.0509 -0.0877  0.1113
74424W        W17362  15.362  18.357  14.807 -0.0431 -0.1319 -0.1198
74425W        W17363  16.011  13.569  15.155  0.2861  0.0110  0.3380
74426W        W17364  13.713  18.223  15.373  0.0770 -0.0408  0.2233
74427W        W17365  13.383  18.305  16.791  0.0521  0.0259 -0.2745
74428W        W17366  14.679  18.252  15.235 -0.3362  0.0570  0.0399
74429W        W17367  17.518  13.589  17.242 -0.1302 -0.0288 -0.1300
74430W        W17368  17.421  17.521  15.209 -0.2336 -0.0176 -0.0212
74431W        W17369  15.216  16.816  16.259 -0.1831  0.2157  0.2230
74432W        W17370  18.221  16.601  16.999  0.0660 -0.0826 -0.3511
74433W        W17371  14.224  18.499  16.145  0.0503 -0.0190 -0.3547
74434W        W17372  14.866  17.341  15.239  0.3773  0.1854  0.0707
74435W        W17373  16.530  20.750  17.267 -0.1329 -0.1128  0.1267
74436W        W17374  18.334  17.745  16.306  0.0843 -0.0342 -0.1367
74437W        W17375  13.329  17.883  16.474 -0.1507  0.0315  0.1355
74438W        W17376  13.836  16.022  16.433 -0.0789 -0.0839  0.0978
74439W        W17377  13.249  16.659  17.223 -0.1701 -0.3790  0.0225
74440W        W17378  15.330  14.314  16.286  0.1677 -0.2204  0.3256
74441W        W17379  15.063  12.390  15.687  0.1665 -0.1159 -0.1426
74442W        W17380  15.395  16.609  14.270 -0.1030  0.2710 -0.0026
74443W        W17381  12.442  20.225  17.770  0.2832  0.1157 -0.1319
74444W        W17382  14.328  16.772  16.355 -0.1008  0.0088 -0.0874
74445W        W17383  14.142  18.416  15.009  0.0258  0.0959  0.0377
74446W        W17384  16.915  17.672  15.116  0.1849 -0.0562  0.1001
74447W        W17385  17.167  16.510  14.805 -0.0387  0.0205  0.0617
74448W        W17386  16.414  18.427  16.011 -0.1799  0.3090 -0.2227
74449W        W17387  16.795  15.439  14.591  0.5657 -0.0728 -0.2393
74450W        W17388  14.462  17.338  15.982  0.0845 -0.0620 -0.1069
74451W        W17389  15.355  17.015  14.563 -0.1342 -0.2098 -0.0029
74452W        W17390  16.465  17.643  15.409 -0.0055 -0.0317  0.0483
74453W        W17391  15.146  18.921  15.996  0.2078 -0.2181  0.1573
74454W        W17392  19.460  17.847  17.400 -0.0724  0.3119 -0.2486
74455W        W17393  18.401  14.973  14.277  0.0250 -0.0710  0.1819
74456W        W17394  17.303  16.137  15.524  0.1181  0.1066  0.3108
74457W        W17395  18.680  16.248  14.566 -0.0356  0.0661  0.1430
74458W        W17396  16.488  17.893  15.826  0.2116  0.2191  0.2480
74459W        W17397  14.520  15.692  15.127  0.0441  0.2221  0.0897
74460W        W17398  15.894  14.572  14.563 -0.1889 -0.1057  0.1423
74461W        W17399  14.840  14.454  16.106  0.0334  0.3882 -0.2016
74462W        W17400  19.030  13.249  18.011  0.1651 -0.0501 -0.1291
74463W        W17401  13.645  17.887  16.835 -0.0083  0.2206  0.0719
74464W        W17402  16.704  19.961  14.461 -0.0093  0.1227 -0.0478
74465W        W17403  13.669  16.126  14.826  0.1848  0.0103  0.0940
74466W        W17404  13.539  14.992  16.022 -0.0272 -0.0684  0.0180
74467W        W17405  17.881  13.665  16.835 -0.0119  0.1366 -0.5441
74468W        W17406  15.810  16.753  14.529 -0.2153  0.0874  0.1251
74469W        W17407  15.127  15.761  16.374  0.0532  0.5451  0.0844
74470W        W17408  15.181  18.236  15.273 -0.3159 -0.0550  0.1502
74471W        W17409  14.964  17.905  14.961 -0.1345  0.2350  0.1255
74472W        W17410  15.603  15.590  16.474 -0.0260  0.1607  0.2431
74473W        W17411  14.054  15.524  15.692 -0.0125  0.3822 -0.0975
74474W        W17412  18.186  16.644  16.236  0.0763 -0.3769 -0.1108
74475W        W17413  14.263  14.594  16.006  0.1591  0.1116 -0.0150
74476W        W17414  17.466  14.803  16.057 -0.1899  0.2811 -0.0294
74477W        W17415  13.549  16.992  16.007 -0.2453 -0.2118 -0.1063
74478W        W17416  15.637  16.971  15.019 -0.1187  0.2753  0.1883
74479W        W17417  16.036  16.595  15.640 -0.4045  0.2089  0.0189
74480W        W17418  14.448  15.656  17.152  0.2212  0.2468 -0.0736
74481W        W17419  15.225  15.448  14.523 -0.2217 -0.1959 -0.0718
74482W        W17420  19.221  17.080  16.527 -0.3047 -0.0529 -0.0122
74483W        W17421  16.279  16.999  14.335  0.0541 -0.2459 -0.0612
74484W        W17422  17.423  19.415  16.860 -0.2143 -0.1235  0.0619
74485W        W17423  14.401  13.695  15.824 -0.1992 -0.4137 -0.1139
74486W        W17424  16.592  15.132  14.984  0.2515 -0.0696  0.0048
74487W        W17425  13.816  16.968  16.438  0.1092 -0.0193 -0.0080
74488W        W17426  15.235  15.145  17.290  0.2323 -0.2150 -0.1210
74489W        W17427  17.873  19.075  16.245 -0.0346 -0.1933  0.2662
74490W        W17428  14.989  14.095  14.854  0.1428  0.0826 -0.0236
74491W        W17429  18.112  17.526  14.547 -0.1128  0.0309  0.0219
74492W        W17430  16.041  15.850  16.242  0.1472  0.0663 -0.2009
74493W        W17431  16.170  16.599  16.384 -0.1555 -0.1389 -0.1373
74494W        W17432  17.601  15.995  14.249 -0.0866  0.0329 -0.0500
74495W        W17433  17.252  17.450  16.383 -0.0542 -0.4277 -0.1338
74496W        W17434  12.898  15.376  16.743  0.1326  0.1667 -0.0129
74497W        W17435  16.991  18.568  15.890 -0.1010  0.1535  0.0652
74498W        W17436  17.242  19.897  16.721  0.1268 -0.1095  0.3853
74499W        W17437  16.488  14.335  15.217  0.0320 -0.2244 -0.1495
74500W        W17438  14.749  13.440  16.160  0.1787  0.2171  0.3368
74501W        W17439  14.431  19.054  16.155  0.3138 -0.4820  0.0635
74502W        W17440  18.397  14.949  15.094 -0.5969  0.0444  0.1393
74503W        W17441  16.440  15.417  16.928  0.3634  0.0901 -0.0751
74504W        W17442  16.100  18.934  15.694 -0.0977 -0.1817 -0.0347
74505W        W17443  17.051  13.850  16.184  0.2368 -0.1951  0.0603
74506W        W17444  14.848  17.999  15.651 -0.0762  0.1050 -0.0887
74507W        W17445  16.679  18.662  16.708  0.1671  0.2939  0.3497
74508W        W17446  15.416  15.779  15.322  0.0530 -0.1834  0.1922
74509W        W17447  14.743  15.999  16.039 -0.0969  0.1508  0.0539
74510W        W17448  16.549  17.096  16.640  0.3243 -0.0917  0.1560
74511W        W17449  15.298  17.693  15.953 -0.0486 -0.1377  0.2328
74512W        W17450  16.170  17.275  15.613  0.3613 -0.0448 -0.0552
74513W        W17451  15.060  16.112  15.065  0.1903  0.1563  0.0148
74514W        W17452  17.360  16.809  15.153  0.1491  0.2973 -0.0778
74515W        W17453  15.318  14.351  15.208  0.1673  0.1363  0.0667
74516W        W17454  18.800  14.558  15.043 -0.0532 -0.0409 -0.0466
74517W        W17455  16.131  14.237  15.533  0.0070  0.0572  0.0457
74518W        W17456  14.702  16.286  17.766  0.0908  0.1211  0.0875
74519W        W17457  14.582  14.675  13.848  0.2557  0.0309 -0.1575
74520W        W17458  14.576  18.099  14.702  0.1521  0.2141 -0.1306
74521W        W17459  14.213  16.588  14.927  0.1538 -0.1794 -0.0518
74522W        W17460  15.973  13.275  17.811  0.0976 -0.0176 -0.1406
74523W        W17461  14.034  15.049  16.024  0.0333 -0.0767  0.1500
74524W        W17462  13.817  16.147  15.672  0.2273 -0.0004  0.0406
74525W        W17463  15.313  13.245  15.519  0.1491  0.0049 -0.2862
74526W        W17464  19.304  17.846  15.680 -0.1690 -0.2258 -0.0868
74527W        W17465  14.606  14.755  15.622 -0.1307  0.0408  0.0904
74528W        W17466  14.976  14.839  15.104 -0.1190  0.0192 -0.3470
74529W        W17467  17.101  17.280  14.226  0.2115  0.0894  0.1470
74530W        W17468  16.672  17.970  14.254 -0.0467 -0.2764  0.2219
74531W        W17469  13.581  14.460  15.955  0.2918  0.2147 -0.1827
74532W        W17470  16.902  17.008  17.339 -0.1875  0.1252 -0.1828
74533W        W17471  14.158  16.129  14.760 -0.1189  0.1376  0.0591
74534W        W17472  15.228  16.323  16.545  0.0225  0.2406 -0.0768
74535W        W17473  15.865  16.649  17.974  0.1340 -0.1029  0.0192
74536W        W17474  14.094  14.045  15.071 -0.0854 -0.2998  0.1536
74537W        W17475  14.794  16.494  16.430  0.3138 -0.2700  0.3866
74538W        W17476  16.750  18.071  15.357 -0.1910  0.0589  0.0529
74539W        W17477  16.976  16.570  15.371 -0.1082  0.2418  0.0298
74540W        W17478  14.862  15.313  16.351 -0.0225 -0.3332  0.1331
74541W        W17479  14.211  18.257  15.561  0.0113 -0.1814 -0.0235
74542W        W17480  14.339  13.844  17.922  0.1382 -0.0208  0.1749
74543W        W17481  17.306  16.385  14.321  0.1211 -0.0293 -0.3084
74544W        W17482  14.951  17.245  16.350 -0.0379 -0.2569  0.1536
74545W        W17483  18.388  15.984  15.450 -0.2487  0.1094  0.3333
74546W        W17484  17.794  12.492  15.956 -0.0375  0.3433 -0.0075
74547W        W17485  17.292  15.393  15.518  0.0724  0.3470  0.1417
74548W        W17486  14.535  12.562  19.870  0.1375  0.1521  0.0952
74549W        W17487  13.900  16.392  18.476  0.1345 -0.0106  0.3705
74550W        W17488  15.879  16.825  16.081 -0.0209  0.0315  0.0079
74551W        W17489  14.481  13.069  17.086  0.2346 -0.6120 -0.0387
74552W        W17490  17.287  15.980  14.669  0.0473  0.0270 -0.0724
74553W        W17491  15.795  17.203  14.272  0.0729 -0.1673 -0.1478
74554W        W17492  13.320  15.108  16.977 -0.1311  0.0674  0.2592
74555W        W17493  16.633  16.427  14.907 -0.0431 -0.0581 -0.0203
74556W        W17494  15.469  16.376  16.961 -0.1846  0.0815 -0.1271
74557W        W17495  16.142  16.349  14.768 -0.0392 -0.0917 -0.2621
74558W        W17496  17.072  18.476  16.422 -0.2544  0.0638  0.2447
74559W        W17497  14.623  15.128  15.254  0.0740  0.0099  0.2802
74560W        W17498  17.747  16.322  14.633 -0.0860  0.0316 -0.0110
74561W        W17499  16.291  17.778  16.720 -0.0394 -0.3340  0.1755
74562W        W17500  19.623  19.165  17.801  0.0732 -0.0040 -0.0622
74563W        W17501  17.245  20.487  16.602  0.1497  0.1256 -0.0036
74564W        W17502  16.843  16.745  15.906  0.0076 -0.2011 -0.3659
74565W        W17503  13.612  14.746  17.413 -0.0114 -0.1422  0.1015
74566W        W17504  14.446  16.468  16.003  0.0073 -0.3431 -0.1249
74567W        W17505  15.708  16.290  14.470  0.0848  0.2756 -0.0775
74568W        W17506  16.131  16.087  15.708  0.1597  0.0440 -0.1704
74569W        W17507  13.300  14.679  16.333 -0.1993 -0.0197 -0.2204
74570W        W17508  15.758  14.625  16.270 -0.5224  0.0868  0.0069
74571W        W17509  14.734  17.716  16.071  0.0093 -0.3573  0.1236
74572W        W17510  14.745  16.902  16.026 -0.4122 -0.1125  0.0833
74573W        W17511  16.160  16.690  18.996  0.1071  0.0245 -0.0385
74574W        W17512  14.241  14.093  18.637 -0.2123  0.0371 -0.0701
74575W        W17513  16.697  15.343  15.986 -0.2948 -0.2061  0.2440
74576W        W17514  17.396  15.529  17.357  0.1041 -0.0799 -0.0744
74577W        W17515  12.781  14.425  18.534  0.2731 -0.4689 -0.2415
74578W        W17516  17.067  17.978  16.965  0.0341 -0.0624  0.2709
74579W        W17517  14.034  13.594  19.647  0.0992  0.0571 -0.2317
74580W        W17518  15.590  16.690  16.537  0.0772  0.0090 -0.2474
74581W        W17519  15.843  13.791  17.757 -0.0088  0.0414  0.0153
74582W        W17520  15.748  16.934  18.561  0.4856  0.0161 -0.1920
74583W        W17521  15.932  14.012  17.215  0.0006 -0.0152  0.1630
74584W        W17522  14.446  12.882  20.314 -0.2022  0.2100  0.2160
74585W        W17523  13.386  15.736  18.105 -0.2507  0.0174 -0.1658
74586W        W17524  16.153  15.000  17.116  0.1487  0.0710 -0.0474
74587W        W17525  13.738  18.511  17.262 -0.2782 -0.2296 -0.2338
74588W        W17526  15.977  13.111  19.681 -0.1691 -0.0442  0.3663
74589W        W17527  16.185  13.766  19.036 -0.0187 -0.2141 -0.0949
74590W        W17528  15.961  16.980  17.422 -0.1948 -0.0519 -0.0590
74591W        W17529  14.165  14.860  17.350 -0.0900  0.3265 -0.0920
74592W        W17530  13.728  14.751  19.613  0.3418  0.3342  0.0285
74593W        W17531  14.743  14.968  18.257  0.1676 -0.0068  0.1094
74594W        W17532  16.976  13.313  18.083  0.1317  0.0186 -0.1120
74595W        W17533  16.545  15.887  17.524  0.0245 -0.0451 -0.1191
74596W        W17534  15.862  18.136  16.749 -0.0251 -0.3972  0.0665
74597W        W17535  14.429  17.296  16.461  0.1027  0.0573  0.1802
74598W        W17536  17.616  15.933  20.747  0.1803  0.0524 -0.0814
74599W        W17537  13.618  16.615  18.925 -0.2295  0.1756 -0.2431
74600W        W17538  13.644  20.630  19.504 -0.0953 -0.2156 -0.0590
74601W        W17539  15.321  17.830  17.534 -0.0804  0.1379 -0.3268
74602W        W17540  17.849  18.005  17.669  0.0833 -0.0989  0.0245
74603W        W17541  15.791  17.817  17.603 -0.0106 -0.1933  0.1214
74604W        W17542  13.747  17.386  17.043 -0.1705  0.1630  0.2284
74605W        W17543  14.741  15.849  18.785  0.0510  0.1262 -0.0747
74606W        W17544  14.964  15.879  17.923 -0.0726  0.0870  0.0606
74607W        W17545  15.037  19.214  16.950 -0.0988 -0.1318 -0.3867
74608W        W17546  15.139  16.075  18.445 -0.0855 -0.0495  0.2381
74609W        W17547  15.462  16.927  19.749  0.0676  0.0612  0.0965
74610W        W17548  17.754  15.143  20.271 -0.4676 -0.0134 -0.3417
74611W        W17549  11.613  17.903  16.572  0.4386  0.1518 -0.1245
74612W        W17550  16.410  15.288  17.421 -0.0685  0.2403  0.1903
74613W        W17551  15.202  15.246  16.735 -0.3860 -0.2642  0.0969
74614W        W17552  17.407  14.331  15.885  0.1907 -0.1421 -0.0511
74615W        W17553  15.801  13.488  17.347 -0.2640 -0.1445 -0.2192
74616W        W17554  14.172  18.253  17.536  0.1814  0.0369  0.0295
74617W        W17555  15.158  12.836  18.706 -0.2936  0.0303  0.1214
74618W        W17556  17.372  17.794  19.348 -0.2303 -0.0967 -0.0195
74619W        W17557  17.023  16.159  16.511  0.2181  0.2549  0.2795
74620W        W17558  16.941  14.280  18.457  0.0137 -0.1807 -0.2546
74621W        W17559  14.146  14.603  18.695 -0.2076  0.2915 -0.3901
74622W        W17560  18.583  19.324  16.712  0.0938  0.0019  0.0598
74623W        W17561  18.546  18.443  17.303  0.0061 -0.1521  0.3343
74624W        W17562  15.227  17.380  16.985 -0.1575 -0.1490  0.1023
74625W        W17563  15.380  15.990  17.738 -0.0082 -0.3402 -0.0516
74626W        W17564  14.348  14.100  17.430 -0.1306  0.0489  0.0154
74627W        W17565  17.737  12.692  16.851  0.2598  0.0978 -0.0195
74628W        W17566  17.167  17.839  20.182 -0.1554  0.1437  0.2306
74629W        W17567  16.675  19.165  17.185 -0.2827 -0.1194 -0.1141
74630W        W17568  19.112  13.194  16.943 -0.1382 -0.0764 -0.4508
74631W        W17569  17.706  13.930  18.143  0.1282 -0.1304  0.0227
74632W        W17570  14.463  17.407  16.989 -0.1122 -0.0147  0.1562
74633W        W17571  15.239  15.561  17.587  0.0710 -0.2589  0.1002
74634W        W17572  18.214  17.448  17.543  0.0134 -0.2085 -0.0672
74635W        W17573  15.775  16.551  19.938  0.0238 -0.0212  0.0203
74636W        W17574  16.364  16.829  19.464 -0.0737  0.2320 -0.3813
74637W        W17575  13.794  18.787  16.864 -0.1999  0.1839  0.1131
74638W        W17576  14.422  16.499  18.101 -0.0646  0.1400  0.0742
74639W        W17577  13.676  15.920  17.650  0.2033 -0.0135  0.1305
74640W        W17578  14.477  13.801  18.984 -0.4749  0.2411 -0.0296
74641W        W17579  15.582  17.350  18.366 -0.0522  0.0532 -0.0836
74642W        W17580  17.080  15.666  16.356 -0.1761  0.1385  0.2251
74643W        W17581  17.256  14.442  17.781  0.1551 -0.0164  0.1807
74644W        W17582  15.144  16.475  17.893  0.0198  0.0718  0.2696
74645W        W17583  17.962  18.477  16.923 -0.0338 -0.1413 -0.2100
74646W        W17584  17.415  16.560  17.442  0.1631 -0.0002  0.1977
74647W        W17585  16.806  19.920  17.022 -0.0443  0.0441  0.0252
74648W        W17586  13.990  15.386  18.845 -0.1864 -0.3848 -0.0753
74649W        W17587  14.320  12.696  19.385 -0.0246 -0.2839  0.1500
74650W        W17588  15.210  14.406  17.873  0.1080 -0.2769 -0.0471
74651W        W17589  15.436  12.636  19.132  0.1147  0.0405 -0.0084
74652W        W17590  17.277  15.144  17.667 -0.0629 -0.1456  0.4230
74653W        W17591  14.813  17.164  17.199  0.2161  0.2081  0.1052
74654W        W17592  14.421  17.908  16.904  0.0702 -0.1515  0.2946
74655W        W17593  17.907  14.435  18.769 -0.0681 -0.2526 -0.0447
74656W        W17594  15.598  17.653  16.773 -0.2317  0.2155 -0.1857
74657W        W17595  17.289  17.567  19.761  0.0484  0.3182  0.1008
74658W        W17596  16.977  18.331  17.469 -0.0850  0.1387 -0.1492
74659W        W17597  14.895  13.279  18.438  0.2171 -0.0288 -0.3738
74660W        W17598  14.024  16.770  18.125 -0.2220 -0.1381  0.1193
74661W        W17599  15.179  18.066  17.968  0.2070  0.1149 -0.3181
74662W        W17600  14.811  13.771  17.480  0.1896 -0.1148 -0.0142
74663W        W17601  17.983  18.752  17.800 -0.3365  0.4411 -0.3988
74664W        W17602  14.784  16.740  17.542 -0.2145 -0.1564 -0.2123
74665W        W17603  17.551  15.918  17.627  0.2001 -0.1575  0.0502
74666W        W17604  16.428  16.246  17.849  0.0278  0.1697  0.0011
74667W        W17605  12.948  13.221  19.295 -0.2092  0.2061 -0.0268
74668W        W17606  16.656  18.051  18.280  0.0802 -0.2134 -0.0430
74669W        W17607  12.772  15.966  17.140 -0.1159 -0.0052  0.1394
74670W        W17608  13.765  14.081  18.714 -0.0204  0.0721  0.3131
74671W        W17609  15.590  17.304  17.329 -0.0714 -0.0487 -0.3258
74672W        W17610  14.056  15.534  20.021 -0.1809 -0.2394  0.2391
74673W        W17611  17.620  16.251  18.916  0.0036  0.0580 -0.0923
74674W        W17612  14.711  16.138  18.283  0.0110 -0.0645  0.2517
74675W        W17613  15.507  13.428  17.779  0.2005 -0.3932 -0.1315
74676W        W17614  17.229  15.103  17.149 -0.0153 -0.2652  0.2576
74677W        W17615  16.104  16.993  19.866  0.3859 -0.0726  0.3064
74678W        W17616  17.811  16.822  17.163 -0.1781  0.0081  0.2549
74679W        W17617  15.574  15.889  17.298  0.0023 -0.2127 -0.2036
74680W        W17618  15.596  15.085  16.459 -0.0455  0.1150 -0.2496
74681W        W17619  15.673  16.562  17.400 -0.2747 -0.2035  0.0671
74682W        W17620  15.548  15.529  16.991  0.0499 -0.2821  0.0836
74683W        W17621  18.020  18.927  16.707  0.0854 -0.0889  0.0551
74684W        W17622  16.029  17.415  16.928  0.2324 -0.2401 -0.1741
74685W        W17623  14.572  13.331  20.558 -0.2498 -0.0516  0.2249
74686W        W17624  14.607  12.733  18.930 -0.3189  0.2280 -0.0074
74687W        W17625  16.294  14.536  17.905 -0.1689  0.0266  0.0744
74688W        W17626  13.542  17.054  17.834  0.2294 -0.0866 -0.0926
74689W        W17627  17.403  14.140  17.374 -0.2702  0.1603  0.2354
74690W        W17628  15.889  13.687  18.257  0.3106 -0.0540 -0.1037
74691W        W17629  17.737  16.116  20.079 -0.0964  0.1017  0.0084
74692W        W17630  16.901  15.034  16.353 -0.0412 -0.1751 -0.0334
74693W        W17631  15.480  15.168  17.800  0.1980  0.0852  0.2314
74694W        W17632  12.790  15.641  17.804  0.2368  0.0472 -0.0097
74695W        W17633  16.089  18.176  17.789  0.2207  0.0725  0.2834
74696W        W17634  16.763  14.900  17.061 -0.0712  0.0716 -0.2600
74697W        W17635  15.964  14.170  18.414 -0.0343 -0.0308  0.0326
74698W        W17636  14.895  13.612  18.064 -0.0106 -0.0424 -0.0249
74699W        W17637  15.109  19.652  17.819 -0.1038 -0.3853  0.2280
74700W        W17638  14.874  17.679  17.406 -0.2588  0.1842  0.1626
74701W        W17639  15.105  14.021  18.376 -0.1852 -0.1864  0.0023
74702W        W17640  15.027  17.150  17.682 -0.1264  0.0307  0.2687
74703W        W17641  15.208  16.925  16.755 -0.1482 -0.3806 -0.0139
74704W        W17642  17.555  17.319  19.442  0.3188 -0.0469 -0.0572
74705W        W17643  13.154  18.342  17.375 -0.0878  0.3495  0.3006
74706W        W17644  17.972  12.799  19.433 -0.2670  0.2834 -0.2024
74707W        W17645  13.335  18.640  18.528  0.3765 -0.1010  0.1423
74708W        W17646  14.682  15.125  17.288 -0.3293 -0.2195  0.1106
74709W        W17647  12.904  13.028  18.350  0.1802 -0.2312 -0.1210
74710W        W17648  18.364  15.012  17.360 -0.1227  0.0555 -0.0271
74711W        W17649  19.490  18.216  17.694 -0.0395 -0.3066  0.0618
74712W        W17650  16.327  14.990  18.124  0.3314 -0.0567  0.1016
74713W        W17651  13.243  17.062  18.593  0.1561 -0.0704 -0.1187
74714W        W17652  15.205  14.792  16.220 -0.1758 -0.0170 -0.2416
74715W        W17653  17.205  16.992  18.862  0.1863  0.0394  0.0194
74716W        W17654  14.186  15.259  17.021 -0.2448 -0.0013  0.0926
74717W        W17655  17.838  15.780  19.337  0.1138  0.1124  0.2158
74718W        W17656  14.687  15.574  18.247 -0.2166  0.1901  0.1809
74719W        W17657  13.481  15.200  17.759  0.0722 -0.0454  0.1456
74720W        W17658  16.712  18.935  17.713  0.1047  0.0574  0.2721
74721W        W17659  14.730  14.533  17.845 -0.1782  0.0352 -0.2342
74722W        W17660  15.070  17.825  16.980 -0.0503  0.0702 -0.0121
74723W        W17661  17.789  17.233  17.781  0.2540  0.2475 -0.2341
74724W        W17662  14.557  14.438  18.315  0.0452 -0.1487 -0.1162
74725W        W17663  14.997  13.730  18.753  0.1503  0.3281  0.1832
74726W        W17664  15.521  14.037  18.107  0.0168  0.0405 -0.3982
74727W        W17665  14.868  17.224  19.730 -0.0473  0.0887 -0.0701
74728W        W17666  15.185  13.869  17.745 -0.2681  0.0925  0.0595
74729W        W17667  18.556  19.655  17.786  0.0814  0.0379 -0.4171
74730W        W17668  13.885  16.506  17.215 -0.1221  0.1774 -0.0070
74731W        W17669  13.922  15.163  18.333  0.2030  0.1554  0.2110
74732W        W17670  14.093  18.349  16.932 -0.1174 -0.1015 -0.0425
74733W        W17671  15.630  13.608  19.139  0.0334 -0.0987 -0.2166
74734W        W17672  15.098  18.109  16.156  0.4256 -0.2404 -0.2158
74735W        W17673  13.083  17.079  18.116  0.0408  0.2503 -0.1193
74736W        W17674  17.723  14.564  16.450 -0.1089 -0.1935 -0.2959
74737W        W17675  14.144  17.022  16.827 -0.2181 -0.1983  0.2856
74738W        W17676  16.248  13.978  18.024  0.1078  0.0768  0.0320
74739W        W17677  18.460  14.987  18.326 -0.2991  0.0501 -0.2279
74740W        W17678  16.680  18.190  16.356  0.0435 -0.0052  0.2360
74741W        W17679  14.988  13.669  19.248 -0.1168  0.3728  0.0404
74742W        W17680  15.228  14.753  18.808  0.0351  0.0341  0.2309
74743W        W17681  17.134  17.194  17.754  0.1435  0.0243  0.0326
74744W        W17682  13.783  14.944  18.861 -0.1515 -0.1893 -0.0388
74745W        W17683  13.121  15.959  20.286 -0.2799  0.0954  0.3664
74746W        W17684  15.544  14.715  18.007 -0.0155  0.2625 -0.2686
74747W        W17685  14.664  14.081  17.044  0.3737  0.1396  0.0770
74748W        W17686  17.587  17.650  17.298  0.2616 -0.1533  0.6336
74749W        W17687  16.043  15.802  16.730 -0.0734  0.0966  0.0412
74750W        W17688  16.879  14.860  18.004 -0.0613 -0.1240 -0.0621
74751W        W17689  17.283  15.265  16.063 -0.2456  0.2936  0.0366
74752W        W17690  14.363  16.531  16.831 -0.0260 -0.1751  0.2433
74753W        W17691  15.232  16.848  17.236 -0.3247  0.0099 -0.0657
74754W        W17692  15.722  15.637  17.692 -0.1928  0.2033 -0.1424
74755W        W17693  16.981  15.343  16.749  0.0899  0.1643  0.1751
74756W        W17694  16.526  13.265  18.941 -0.3063  0.3175  0.2301
74757W        W17695  16.605  14.626  18.361 -0.1149  0.5459 -0.2145
74758W        W17696  17.949  17.919  19.201 -0.0810  0.1317  0.2529
74759W        W17697  17.507  16.097  17.177 -0.0974  0.1636 -0.0489
74760W        W17698  18.461  14.441  19.335  0.1958  0.1697 -0.1985
74761W        W17699  16.720  16.612  16.442 -0.0559  0.2903 -0.1390
74762W        W17700  16.433  14.975  16.585  0.1884  0.0688  0.0547
74763W        W17701  15.231  15.156  18.275 -0.1234  0.0003  0.1650
74764W        W17702  14.772  14.054  18.007  0.2744 -0.2335 -0.0359
74765W        W17703  16.156  17.526  17.377  0.1538  0.3795  0.0614
74766W        W17704  16.331  14.505  16.979 -0.1225  0.0916 -0.1487
74767W        W17705  12.825  15.017  19.286 -0.1528  0.1722  0.1077
74768W        W17706  14.355  17.287  19.746 -0.0232 -0.1255  0.2813
74769W        W17707  14.356  14.422  16.529  0.0335 -0.2138  0.5094
74770W        W17708  14.615  15.624  17.696  0.2841 -0.0499  0.0955
74771W        W17709  18.143  16.107  19.061  0.0707  0.2521 -0.1277
74772W        W17710  17.207  13.341  16.816 -0.0889  0.2192  0.1359
74773W        W17711  18.552  16.699  19.755  0.0037  0.1048  0.1629
74774W        W17712  14.270  16.804  17.710 -0.1546  0.0649  0.4503
74775W        W17713  17.457  13.511  18.909 -0.0184  0.1533  0.0876
74776W        W17714  15.157  18.222  17.276  0.2334  0.0131 -0.0111
74777W        W17715  15.566  13.432  19.651  0.1677  0.2182  0.1036
74778W        W17716  17.779  16.347  18.366 -0.2748  0.0856  0.2123
74779W        W17717  14.656  14.712  18.754  0.2341 -0.1242 -0.1952
74780W        W17718  16.253  17.740  17.893  0.1365 -0.3088 -0.0792
74781W        W17719  18.387  16.669  18.105 -0.1604 -0.3825  0.2554
74782W        W17720  16.165  16.539  17.403 -0.1785  0.1553  0.2971
74783W        W17721  14.766  13.325  18.962  0.2091 -0.1670 -0.1435
74784W        W17722  14.745  17.673  16.580  0.0442 -0.1418  0.3179
74785W        W17723  13.882  17.642  19.702  0.1958  0.2184  0.1372
74786W        W17724  13.731  17.514  17.654 -0.0654  0.1272  0.2112
74787W        W17725  16.697  16.436  17.439 -0.0437 -0.3578 -0.0600
74788W        W17726  16.731  16.733  16.951  0.0375 -0.1448 -0.1329
74789W        W17727  14.909  15.931  17.419  0.1808  0.0452  0.0321
74790W        W17728  12.941  16.339  16.790  0.0284 -0.0201 -0.1081
74791W        W17729  12.960  17.540  17.346  0.1404  0.1046  0.0906
74792W        W17730  15.675  18.062  16.079 -0.0474 -0.4962 -0.0677
74793W        W17731  14.682  19.397  17.942  0.2860 -0.3469  0.1499
74794W        W17732  17.804  17.683  19.717  0.0203 -0.1724 -0.2042
74795W        W17733  17.292  13.969  16.680  0.3493 -0.1839 -0.0591
74796W        W17734  17.486  14.756  17.272  0.2241 -0.0269 -0.0757
74797W        W17735  17.775  14.854  16.852 -0.2725  0.1752  0.2079
74798W        W17736  14.982  13.312  17.644  0.0050  0.0979 -0.1635
74799W        W17737  15.845  15.107  20.059 -0.1076 -0.0229  0.3513
74800W        W17738  17.894  15.244  19.709 -0.5016  0.4568 -0.2577
74801W        W17739  18.529  18.748  16.659 -0.1794 -0.0022 -0.0811
74802W        W17740  14.374  15.146  18.564  0.1505 -0.1410  0.0364
74803W        W17741  15.419  15.745  18.164 -0.1177  0.3251  0.1410
74804W        W17742  16.846  13.934  17.617  0.1131 -0.3046 -0.2791
74805W        W17743  15.775  16.334  16.018 -0.2837  0.3349 -0.0383
74806W        W17744  15.114  14.864  17.883  0.5452  0.1692 -0.2841
74807W        W17745  13.772  17.976  18.101  0.2638  0.0796  0.0076
74808W        W17746  14.305  16.146  18.554  0.1568 -0.1141 -0.0746
74809W        W17747  18.364  15.717  16.753 -0.1285  0.2390 -0.4391
74810W        W17748  14.991  14.548  18.262 -0.0609 -0.0323  0.0864
74811W        W17749  14.322  15.332  18.089 -0.1262 -0.1750 -0.2320
74812W        W17750  17.050  15.936  17.461  0.0822  0.1528 -0.1756
74813W        W17751  13.914  14.334  18.232 -0.1578  0.0623  0.2785
74814W        W17752  14.507  14.996  17.781 -0.3202 -0.0574  0.0458
74815W        W17753  18.393  16.680  19.010 -0.0272 -0.0397 -0.0617
74816W        W17754  14.401  16.880  17.234  0.0444 -0.1830  0.1142
74817W        W17755  17.525  18.950  17.712 -0.3236  0.1300 -0.1644
74818W        W17756  13.358  12.965  19.401  0.0013 -0.5519 -0.2467
74819W        W17757  16.295  15.468  17.909  0.1445  0.0370  0.2528
74820W        W17758  15.926  15.723  18.207  0.2476  0.1938 -0.0855
74821W        W17759  17.768  18.088  18.594  0.0566 -0.2229  0.2136
74822W        W17760  12.578  13.340  18.662 -0.0809 -0.2983  0.0312
74823W        W17761  16.236  18.521  17.043  0.0601  0.2338 -0.1298
74824W        W17762  17.410  14.876  18.185 -0.2649  0.1671  0.1389
74825W        W17763  14.803  18.646  16.861  0.3900  0.1858  0.1204
74826W        W17764  18.301  16.585  17.599 -0.3935  0.0865  0.0761
74827W        W17765  17.949  16.538  19.192 -0.0285  0.2135  0.1263
74828W        W17766  13.159  14.726  18.760 -0.1303 -0.2957 -0.1322
74829W        W17767  16.620  17.331  17.580 -0.1892  0.1118  0.1238
74830W        W17768  18.365  18.447  18.184 -0.0317 -0.0317 -0.2318
74831W        W17769  15.133  13.966  17.098 -0.0664  0.1988 -0.0525
74832W        W17770  14.292  15.841  17.982  0.2382  0.0956  0.1024
74833W        W17771  13.110  17.971  17.039  0.2303  0.0844 -0.0190
74834W        W17772  14.562  18.285  17.180  0.2109  0.2363 -0.1366
74835W        W17773  15.982  17.181  18.970  0.1440  0.2448  0.1039
74836W        W17774  15.050  17.348  18.165 -0.1552  0.2143  0.0212
74837W        W17775  12.976  15.975  18.522  0.0481 -0.0354  0.1948
74838W        W17776  15.446  17.495  19.576  0.0216 -0.0280  0.1454
74839W        W17777  16.505  16.847  17.650  0.0853  0.1054 -0.0313
74840W        W17778  14.836  18.786  17.385 -0.1128  0.2073 -0.0892
74841W        W17779  14.983  14.249  17.494 -0.0537 -0.2080 -0.2415
74842W        W17780  18.573  17.437  17.099  0.0673  0.0306 -0.0119
74843W        W17781  15.371  14.520  17.219 -0.3538 -0.6199 -0.0039
74844W        W17782  16.350  13.386  18.109  0.2109 -0.3606  0.0900
74845W        W17783  17.315  14.943  16.549  0.0285  0.0042  0.0897
74846W        W17784  14.259  14.385  17.010 -0.1793  0.2862  0.1618
74847W        W17785  14.100  16.279  17.808  0.1913  0.1597 -0.2444
74848W        W17786  14.186  14.775  18.221 -0.2054 -0.1385  0.0786
74849W        W17787  14.994  12.450  21.009 -0.2295 -0.0858 -0.5041
74850W        W17788  14.548  15.424  20.068  0.4060 -0.2263  0.1531
74851W        W17789  14.954  15.119  18.658 -0.1039  0.1292 -0.2730
74852W        W17790  14.483  14.846  16.918 -0.1379 -0.3548  0.1004
74853W        W17791  17.115  17.910  16.413  0.0486 -0.1803  0.0340
74854W        W17792  14.766  14.069  19.342  0.0831  0.0041  0.1448
74855W        W17793  13.353  14.428  19.589 -0.0271  0.2638 -0.1727
74856W        W17794  14.663  16.941  16.759 -0.1596 -0.3215 -0.2424
74857W        W17795  16.776  14.029  16.684 -0.0206  0.0102  0.0643
74858W        W17796  19.111  19.112  19.226 -0.4251 -0.0980  0.0218
74859W        W17797  14.379  16.400  17.361  0.1327 -0.1820 -0.0133
74860W        W17798  16.913  15.935  19.478 -0.1392  0.2349  0.0510
74861W        W17799  15.953  13.739  19.564  0.0658  0.1790  0.0769
74862W        W17800  12.358  13.364  19.195 -0.1013  0.0570  0.2160
74863W        W17801  16.251  16.636  16.927 -0.1024 -0.1449 -0.0968
74864W        W17802  15.531  18.306  17.679  0.0403 -0.3919  0.1377
74865W        W17803  15.639  16.213  18.133 -0.0895 -0.0307 -0.1009
74866W        W17804  15.416  18.078  18.860  0.0537 -0.1632  0.0335
74867W        W17805  14.608  13.627  19.583 -0.2087 -0.4082  0.2350
74868W        W17806  17.019  16.159  15.944 -0.1179 -0.0863 -0.2224
74869W        W17807  15.944  17.298  19.484  0.0681 -0.4585  0.1216
74870W        W17808  16.910  17.665  15.614  0.0872  0.0719  0.4418
74871W        W17809  18.473  14.109  18.656  0.0234 -0.3691  0.0828
74872W        W17810  16.058  15.718  17.304  0.1861 -0.2918 -0.1428
74873W        W17811  15.314  12.472  20.587 -0.1191 -0.0967 -0.0525
74874W        W17812  16.735  14.332  17.296 -0.0161 -0.2318 -0.2421
74875W        W17813  16.490  16.156  17.077 -0.1540 -0.2657  0.2506
74876W        W17814  17.166  15.799  16.855  0.0614  0.1330 -0.3594
74877W        W17815  17.331  17.549  18.856  0.0321  0.0229 -0.0273
74878W        W17816  15.828  17.610  16.290  0.1355 -0.0636 -0.2350
74879W        W17817  14.976  14.752  17.443  0.0115 -0.0591 -0.1173
74880W        W17818  18.306  15.568  17.494 -0.1714  0.0013  0.2343
74881W        W17819  17.162  18.663  17.836  0.0983 -0.2467 -0.0567
74882W        W17820  16.541  17.913  17.501 -0.0685 -0.1702 -0.0636
74883W        W17821  12.965  13.738  19.008 -0.0193 -0.0530  0.0035
74884W        W17822  13.781  16.947  18.585  0.0684 -0.1520  0.0559
74885W        W17823  15.971  16.094  17.695 -0.0659  0.2058  0.0993
74886W        W17824  15.474  14.417  18.449 -0.3434 -0.2088  0.2057
74887W        W17825  14.533  14.552  17.372 -0.0551  0.0176  0.1717
74888W        W17826  15.946  16.171  17.108  0.0879  0.0453 -0.1235
74889W        W17827  15.592  17.650  22.304  0.1545 -0.0616  0.1470
74890W        W17828  14.457  15.064  22.268 -0.3036  0.1183 -0.0013
74891W        W17829  13.035  14.775  22.219 -0.1001  0.0862  0.5563
74892W        W17830  14.644  14.061  24.365 -0.2442 -0.2329 -0.0056
74893W        W17831  17.275  17.688  21.538 -0.2946  0.4277  0.3333
74894W        W17832  17.141  16.809  21.583 -0.1448 -0.2292 -0.1619
74895W        W17833  14.192  14.806  21.941 -0.1015 -0.1560 -0.1025
74896W        W17834  15.670  17.298  21.977  0.1619 -0.0203  0.4171
74897W        W17835  15.734  12.923  23.037  0.1574  0.3229 -0.3261
74898W        W17836  16.363  16.415  22.102  0.0357  0.0110  0.0663
74899W        W17837  15.341  15.817  21.966 -0.0821  0.1663 -0.2789
74900W        W17838  15.338  14.933  22.057 -0.0824 -0.0287 -0.0796
74901W        W17839  17.069  18.850  20.092  0.1248  0.2815  0.3124
74902W        W17840  16.631  13.985  24.870 -0.0057 -0.0979 -0.0352
74903W        W17841  17.121  17.332  20.194 -0.0933 -0.0289 -0.4379
74904W        W17842  14.856  15.416  21.720 -0.2095  0.5141  0.0520
74905W        W17843  15.621  16.343  21.762  0.0697  0.1347 -0.0577
74906W        W17844  16.810  16.800  20.939 -0.2466 -0.2458  0.3505
74907W        W17845  16.251  18.391  21.685 -0.1186 -0.3174  0.0604
74908W        W17846  16.212  17.931  20.714  0.1565  0.1540  0.1013
74909W        W17847  17.865  16.219  23.067 -0.0472 -0.1749 -0.4135
74910W        W17848  15.993  16.582  20.391 -0.0146 -0.2434 -0.1503
74911W        W17849  17.816  17.790  20.901 -0.1413  0.0136  0.1983
74912W        W17850  18.112  17.618  22.640 -0.2685  0.1188 -0.1321
74913W        W17851  15.520  18.743  22.302  0.0715 -0.0935  0.0243
74914W        W17852  16.211  16.311  20.725  0.4937  0.1732  0.1220
74915W        W17853  15.797  17.332  20.004  0.2806 -0.4056 -0.2365
74916W        W17854  16.193  16.781  20.841 -0.1595 -0.3526  0.3708
74917W        W17855  15.551  17.284  22.783  0.2038 -0.1583 -0.3166
74918W        W17856  14.513  17.765  20.789  0.0480 -0.3546 -0.1327
74919W        W17857  18.054  15.793  22.832 -0.1558 -0.2998 -0.0224
74920W        W17858  15.178  15.039  21.601  0.2382 -0.1265  0.1654
74921W        W17859  17.676  16.810  22.329 -0.1019 -0.1813  0.0866
74922W        W17860  16.713  15.286  21.502  0.1326 -0.2716  0.0377
74923W        W17861  13.779  14.597  21.720  0.3987  0.0771 -0.0163
74924W        W17862  17.757  17.670  21.443  0.3913 -0.0937 -0.0972
74925W        W17863  16.822  17.828  19.057  0.0028  0.0818 -0.1459
74926W        W17864  15.049  16.296  20.442  0.1578 -0.0168 -0.2900
74927W        W17865  14.383  15.472  23.257  0.0401 -0.2073  0.0916
74928W        W17866  18.748  17.766  22.536  0.0465  0.2177  0.0353
74929W        W17867  14.962  18.530  22.171  0.2402  0.2679 -0.2333
74930W        W17868  19.259  14.827  19.621  0.3968  0.1813 -0.1034
74931W        W17869  15.875  16.053  21.260  0.0659 -0.0421  0.1500
74932W        W17870  17.297  18.441  21.515  0.0432  0.2622 -0.0124
74933W        W17871  17.725  16.292  22.451 -0.2140  0.3000  0.1058
74934W        W17872  17.498  15.534  22.172 -0.0077 -0.1278  0.2665
74935W        W17873  17.250  15.429  19.859 -0.0277 -0.0529 -0.0105
74936W        W17874  16.616  14.698  24.073  0.1114 -0.0812 -0.1540
74937W        W17875  14.545  18.063  20.361 -0.1587 -0.2547 -0.0417
74938W        W17876  17.937  15.615  20.071  0.2602 -0.0499 -0.0789
74939W        W17877  14.232  14.465  25.210  0.0731  0.1184 -0.0684
74940W        W17878  18.189  16.006  21.946  0.0735  0.2527 -0.0381
74941W        W17879  16.603  17.939  20.423  0.2622 -0.2890 -0.4008
74942W        W17880  18.027  16.199  20.588  0.1102 -0.2097  0.0350
74943W        W17881  15.760  16.028  22.188  0.0123 -0.1008 -0.1935
74944W        W17882  15.448  14.106  24.369  0.2182  0.0967  0.0008
74945W        W17883  14.308  14.253  23.023 -0.2658  0.1980  0.1933
74946W        W17884  17.101  15.691  22.472  0.0108 -0.0401 -0.3290
74947W        W17885  13.211  13.566  20.192 -0.0202  0.0759 -0.2706
74948W        W17886  16.857  15.733  20.996 -0.2067 -0.0707 -0.0489
74949W        W17887  14.576  16.806  21.170 -0.1737  0.0150 -0.1020
74950W        W17888  17.414  17.706  20.576  0.0726  0.1519 -0.1098
74951W        W17889  16.871  17.887  21.330  0.2694 -0.0278 -0.0056
74952W        W17890  15.454  18.340  20.973  0.1188  0.0982  0.1483
74953W        W17891  18.009  18.438  21.054  0.1120  0.2883 -0.0664
74954W        W17892  17.876  16.229  21.246 -0.1376  0.1320 -0.3080
74955W        W17893  15.436  14.582  20.071 -0.1639  0.3206 -0.1801
74956W        W17894  17.029  18.868  21.542  0.0471  0.0331  0.1778
74957W        W17895  13.504  17.309  19.549 -0.2479  0.0763 -0.0631
74958W        W17896  16.128  17.901  21.223  0.1502  0.0656  0.1628
74959W        W17897  13.972  15.750  26.171 -0.0554 -0.0641  0.0312
74960W        W17898  16.831  16.428  22.764 -0.0960  0.1788  0.2593
74961W        W17899  15.211  18.214  24.166 -0.2095  0.0254 -0.0094
74962W        W17900  18.182  16.518  20.972 -0.0487  0.0609 -0.2323
74963W        W17901  16.573  17.718  22.628  0.0462  0.1526 -0.2065
74964W        W17902  16.969  15.678  20.282  0.2814  0.2700  0.3265
74965W        W17903  15.434  13.997  19.417 -0.2642 -0.0699 -0.1539
74966W        W17904  14.372  17.906  24.717 -0.2077 -0.3006 -0.2594
74967W        W17905  16.542  17.135  20.087 -0.4734  0.4495  0.3192
74968W        W17906  16.395  16.936  21.249  0.0965 -0.0202  0.1093
74969W        W17907  18.360  17.442  20.327 -0.0623 -0.3290  0.0889
74970W        W17908  16.441  17.316  22.358  0.0036  0.2665 -0.0516
74971W        W17909  17.381  17.308  21.824  0.1676 -0.1654 -0.1194
74972W        W17910  14.958  15.291  22.225  0.0288 -0.0302  0.0403
74973W        W17911  13.677  18.790  18.897 -0.3557 -0.0915  0.1867
74974W        W17912  16.912  14.511  20.998 -0.2351 -0.0568  0.2297
74975W        W17913  16.163  14.269  25.399  0.1496 -0.2758  0.1240
74976W        W17914  16.623  16.647  21.644 -0.3178  0.0091  0.1533
74977W        W17915  15.294  15.568  20.331 -0.0466  0.0827  0.2091
74978W        W17916  16.908  14.842  25.063 -0.1995  0.0035  0.1413
74979W        W17917  14.352  18.808  23.318  0.3296 -0.2136  0.0935
74980W        W17918  17.361  17.388  22.857 -0.1356  0.0827  0.1837
74981W        W17919  17.005  17.255  21.355  0.2368  0.0670  0.1897
74982W        W17920  17.352  14.412  24.536 -0.0443 -0.1069 -0.0679
74983W        W17921  15.932  14.683  20.469 -0.0861 -0.0569  0.0203
74984W        W17922  15.912  17.787  19.793  0.0546  0.2185  0.0560
74985W        W17923  16.594  17.614  21.942 -0.0115 -0.0167  0.0196
74986W        W17924  15.514  17.154  19.138 -0.1391 -0.0532  0.2382
74987W        W17925  16.773  15.812  22.954 -0.0793  0.0786  0.0443
74988W        W17926  14.741  17.297  20.861  0.0832 -0.0842  0.4489
74989W        W17927  17.959  13.120  24.023  0.0800  0.1522  0.1008
74990W        W17928  15.240  17.354  21.251 -0.0816  0.2818  0.2452
74991W        W17929  17.416  14.539  20.906  0.3583 -0.0862  0.0995
74992W        W17930  13.785  14.843  22.898 -0.1302  0.1557 -0.0355
74993W        W17931  14.540  18.238  22.283 -0.0370 -0.1920 -0.3362
74994W        W17932  17.936  17.244  21.707 -0.2152  0.1599  0.0910
74995W        W17933  14.106  14.680  20.641  0.0632  0.1351  0.3534
74996W        W17934  16.179  14.742  21.374 -0.0651 -0.2087 -0.0107
74997W        W17935  14.457  18.576  20.220 -0.2549  0.1326 -0.1166
74998W        W17936  16.379  16.430  21.238 -0.4321 -0.2181 -0.1481
74999W        W17937  15.458  15.067  23.697 -0.3467  0.1125  0.0145
75000W        W17938  17.210  16.843  22.640 -0.0294  0.1356 -0.1516
75001W        W17939  16.782  16.691  22.317  0.0210  0.5844 -0.1897
75002W        W17940  17.180  17.107  23.235  0.1223 -0.0178 -0.2698
75003W        W17941  18.120  18.324  20.555  0.1627 -0.2000 -0.0148
75004W        W17942  13.546  15.819  21.648  0.0093 -0.1158 -0.0703
75005W        W17943  15.710  16.928  20.693 -0.1273  0.0484 -0.2276
75006W        W17944  14.942  17.976  21.992 -0.1035  0.0478 -0.1127
75007W        W17945  12.651  17.782  23.103  0.1664 -0.0570  0.0954
75008W        W17946  18.367  13.061  20.746  0.0944 -0.0712 -0.0826
75009W        W17947  15.700  15.082  21.348 -0.1134 -0.1813 -0.2473
75010W        W17948  17.158  15.961  20.660  0.1035  0.0845  0.0776
75011W        W17949  17.011  13.947  25.205  0.0484 -0.1145 -0.4413
75012W        W17950  16.221  14.800  21.934  0.0235 -0.1163  0.0455
75013W        W17951  16.753  17.046  22.009  0.1639 -0.2231 -0.0302
75014W        W17952  13.457  14.951  23.688  0.0006  0.4146 -0.2661
75015W        W17953  13.919  15.751  22.988 -0.1638 -0.2056  0.2043
75016W        W17954  15.022  14.708  20.497  0.1445  0.0080 -0.1153
75017W        W17955  16.300  15.892  21.062 -0.0201  0.0965  0.2648
75018W        W17956  17.953  17.930  22.236 -0.0225  0.1018  0.1117
75019W        W17957  16.493  17.416  20.545 -0.2317  0.2673 -0.0487
75020W        W17958  18.326  16.940  21.234 -0.0958 -0.1289 -0.2725
75021W        W17959  16.900  17.032  20.503  0.0966 -0.1916 -0.1286
75022W        W17960  16.448  15.836  20.100  0.1453  0.2982 -0.1253
75023W        W17961  16.376  13.334  20.666 -0.1404 -0.1059 -0.3547
75024W        W17962  16.471  14.237  24.311 -0.0771  0.0114  0.0723
75025W        W17963  16.538  16.467  23.233  0.0771 -0.1020 -0.1131
75026W        W17964  15.896  16.275  22.950 -0.0240 -0.0536  0.0444
75027W        W17965  15.367  14.968  24.902 -0.0491 -0.2747  0.1309
75028W        W17966  17.283  18.092  22.933 -0.0250 -0.1471  0.0936
75029W        W17967  18.261  15.454  19.438 -0.0096  0.3249  0.1923
75030W        W17968  17.886  15.798  22.292  0.1718 -0.3081  0.0636
75031W        W17969  17.417  16.321  21.515 -0.1517 -0.2654 -0.0363
75032W        W17970  16.372  16.168  22.712 -0.0453 -0.3328  0.0103
75033W        W17971  14.798  14.849  21.946  0.0550  0.3618  0.0668
75034W        W17972  15.772  15.572  20.264  0.0574  0.1627 -0.2226
75035W        W17973  18.069  15.572  23.268  0.0402 -0.1228  0.0470
75036W        W17974  13.680  16.725  20.037 -0.1150 -0.1035 -0.0672
75037W        W17975  16.411  14.022  21.067 -0.4547 -0.4524 -0.1562
75038W        W17976  15.262  19.280  22.329 -0.2054  0.0550  0.1097
75039W        W17977  14.775  17.118  23.568  0.2553  0.1662  0.0364
75040W        W17978  15.778  17.526  21.127 -0.1029 -0.0538  0.0206
75041W        W17979  16.200  14.442  23.907 -0.1487 -0.0449 -0.2219
75042W        W17980  17.043  16.444  21.228 -0.1471 -0.2690  0.1545
75043W        W17981  16.550  16.651  20.518 -0.1135  0.0043 -0.2695
75044W        W17982  17.284  16.572  22.117  0.0116  0.0594 -0.0348
75045W        W17983  17.169  18.343  22.468  0.1754  0.0565 -0.1434
75046W        W17984  17.906  17.253  21.164  0.1289  0.1447  0.0002
75047W        W17985  14.712  15.411  25.324  0.0395  0.0337 -0.0534
75048W        W17986  16.414  17.264  23.497  0.2520  0.5266 -0.2495
75049W        W17987  16.827  16.276  20.844  0.0969 -0.0654  0.1611
75050W        W17988  14.222  16.079  23.232 -0.4174  0.1461  0.0904
75051W        W17989  17.443  17.080  19.884  0.1877 -0.0356  0.1564
75052W        W17990  16.271  17.412  21.379  0.1419 -0.1475 -0.1581
75053W        W17991  16.608  18.405  21.366  0.1706  0.1484  0.2277
75054W        W17992  16.758  17.602  19.998 -0.2236  0.0871  0.2476
75055W        W17993  17.638  17.748  22.746  0.1478  0.2959 -0.4473
75056W        W17994  17.436  16.335  20.964 -0.0113  0.1582  0.0303
75057W        W17995  19.136  15.472  22.337  0.1787 -0.0239  0.0631
75058W        W17996  15.782  14.054  19.035 -0.3495  0.0627  0.0523
75059W        W17997  15.230  15.748  22.410  0.0534 -0.0618  0.0137
75060W        W17998  17.752  12.795  23.606  0.0415 -0.3873  0.0742
75061W        W17999  15.860  16.751  19.440  0.2355  0.1032 -0.2756
75062W        W18000  15.881  18.294  21.359  0.0314 -0.0135 -0.1394
75063W        W18001  15.779  18.010  21.912 -0.1774  0.0622  0.4296
75064W        W18002  18.483  14.011  20.243  0.0753  0.1483  0.0875
75065W        W18003  17.388  17.499  21.082  0.1658 -0.1715 -0.5256
75066W        W18004  16.154  16.165  21.699 -0.0723  0.2862  0.2357
75067W        W18005  14.561  15.239  23.678  0.2053  0.0149 -0.2581
75068W        W18006  16.438  16.629  19.984  0.0213 -0.3959 -0.0364
75069W        W18007  18.059  16.542  22.758 -0.0677 -0.1594  0.2041
75070W        W18008  16.739  16.199  20.369  0.1033  0.0914  0.0430
75071W        W18009  12.787  14.996  22.587 -0.1762 -0.0423 -0.2820
75072W        W18010  15.015  16.888  21.290 -0.0823  0.0440 -0.0887
75073W        W18011  17.473  17.669  22.229  0.1049 -0.0611  0.1771
75074W        W18012  17.608  17.496  20.172 -0.0405 -0.1504  0.0245
75075W        W18013  17.260  15.951  21.164  0.0917  0.0071 -0.2069
75076W        W18014  15.407  17.954  19.782 -0.3309  0.2247 -0.2190
75077W        W18015  18.223  17.673  21.246 -0.2293  0.2856  0.1447
75078W        W18016  17.515  19.063  21.335 -0.0510 -0.1995 -0.0627
75079W        W18017  13.442  14.513  22.145 -0.0553 -0.0529  0.0718
75080W        W18018  18.628  17.937  21.505  0.1163 -0.1329  0.3417
75081W        W18019  15.678  15.460  22.215  0.0231  0.1932  0.0015
75082W        W18020  16.099  17.587  22.123 -0.1495  0.0369 -0.1902
75083W        W18021  15.355  17.176  23.430 -0.1974 -0.2107  0.4913
75084W        W18022  15.983  16.465  22.410 -0.2173 -0.1552 -0.1421
75085W        W18023  18.343  17.454  21.630  0.2328  0.3245 -0.0813
75086W        W18024  17.962  14.851  20.704  0.5608  0.3730 -0.0989
75087W        W18025  12.779  15.334  20.826 -0.2742 -0.0613  0.2015
75088W        W18026  13.281  17.668  19.823 -0.1005  0.1356 -0.0979
75089W        W18027  17.160  15.160  26.594 -0.0400  0.0151 -0.0133
75090W        W18028  14.510  15.720  23.836  0.2919  0.1258  0.3405
75091W        W18029  18.256  17.686  19.943 -0.4318 -0.0797  0.0323
75092W        W18030  14.236  13.747  23.109  0.1232  0.1180 -0.0410
75093W        W18031  17.002  17.491  20.779  0.2314 -0.1895  0.3677
75094W        W18032  17.337  16.896  21.111 -0.0297 -0.0657 -0.0627
75095W        W18033  15.876  14.638  19.768 -0.4252 -0.0731 -0.0493
75096W        W18034  13.191  15.474  20.321 -0.0846  0.2219  0.1431
75097W        W18035  16.795  16.062  22.346  0.0466 -0.3508  0.0293
75098W        W18036  16.536  13.167  24.385  0.2207  0.1627  0.1025
75099W        W18037  13.812  13.952  20.971  0.0101  0.0696 -0.0449
75100W        W18038  17.011  18.366  21.064  0.0527 -0.1893 -0.1383
75101W        W18039  16.677  18.239  20.012  0.0795  0.0458  0.0939
75102W        W18040  16.052  17.549  22.627 -0.0162  0.0990 -0.1784
75103W        W18041  16.222  18.037  22.651  0.0098  0.1477 -0.4343
75104W        W18042  14.976  14.909  24.545  0.3879  0.1369 -0.2521
75105W        W18043  17.964  15.541  21.826  0.0486  0.1040 -0.0552
75106W        W18044  17.223  16.292  20.238  0.0395 -0.2450  0.4575
75107W        W18045  15.526  14.551  24.572 -0.0858 -0.0248 -0.0645
75108W        W18046  17.963  18.123  21.400  0.0850  0.1734 -0.1725
75109W        W18047  14.299  14.036  21.944 -0.0011  0.0717  0.0063
75110W        W18048  17.033  14.808  20.629 -0.1347 -0.4483  0.0099
75111W        W18049  16.606  17.746  20.942 -0.0365 -0.2630 -0.0731
75112W        W18050  14.814  15.862  22.056  0.1624 -0.1159  0.3062
75113W        W18051  16.630  17.241  21.008 -0.4020 -0.4236 -0.0004
75114W        W18052  16.367  16.733  22.764  0.0141  0.1208  0.2168
75115W        W18053  16.132  15.250  20.442  0.0366 -0.0808 -0.3036
75116W        W18054  17.934  17.390  20.609  0.0796  0.1651  0.1868
75117W        W18055  17.023  18.089  21.806  0.1745 -0.3327  0.3715
75118W        W18056  16.378  19.466  22.454  0.0244  0.1925 -0.0271
75119W        W18057  16.837  16.292  21.911 -0.1159 -0.0236 -0.2974
75120W        W18058  14.948  15.000  23.995 -0.0126  0.1351  0.2020
75121W        W18059  15.537  15.349  21.797  0.1035 -0.0958  0.1689
75122W        W18060  16.330  17.619  26.948  0.4197  0.2226 -0.0092
75123W        W18061  15.697  14.950  25.279  0.0834 -0.0327  0.0121
75124W        W18062  16.578  14.792  24.702 -0.3554  0.4109  0.1695
75125W        W18063  18.262  16.439  24.480  0.0314  0.1122 -0.2027
75126W        W18064  15.498  14.390  26.115  0.2016 -0.1488  0.2075
75127W        W18065  17.478  17.794  24.654  0.0502  0.0202 -0.0597
75128W        W18066  16.057  14.889  29.116  0.1942  0.1024 -0.1788
75129W        W18067  17.189  18.360  25.825 -0.0843  0.2185  0.1864
75130W        W18068  17.637  17.613  27.408 -0.2460 -0.1346 -0.1846
75131W        W18069  17.145  16.544  23.266  0.0966 -0.2285  0.1031
75132W        W18070  16.862  17.855  27.009 -0.0609  0.1400  0.0369
75133W        W18071  16.493  18.888  27.111 -0.0032 -0.0574 -0.0119
75134W        W18072  16.828  14.206  26.034 -0.0545  0.1473  0.0840
75135W        W18073  15.862  14.649  28.055  0.1361 -0.1694 -0.2030
75136W        W18074  16.022  16.261  28.171 -0.0881 -0.1443 -0.1917
75137W        W18075  15.309  15.716  27.247  0.2903  0.0881 -0.0383
75138W        W18076  15.686  16.626  28.047 -0.1667  0.0448 -0.1353
75139W        W18077  15.926  14.922  28.575 -0.0488 -0.1732 -0.0760
75140W        W18078  17.702  13.510  31.150 -0.1505  0.0069  0.0839
75141W        W18079  17.123  17.280  23.738 -0.0120 -0.0153  0.2332
75142W        W18080  14.809  17.420  24.319 -0.0324 -0.3756  0.0239
75143W        W18081  15.491  16.917  26.795 -0.1558 -0.0405 -0.2096
75144W        W18082  15.102  16.386  28.780 -0.1387 -0.0596 -0.2567
75145W        W18083  16.443  16.310  27.634 -0.0876 -0.1984  0.1953
75146W        W18084  16.014  15.643  26.014 -0.1758 -0.0883 -0.0843
75147W        W18085  17.035  18.151  26.368 -0.0130  0.0230 -0.0133
75148W        W18086  16.278  16.728  27.397  0.0702 -0.1185 -0.2903
75149W        W18087  14.021  14.970  28.960 -0.3476 -0.0627 -0.1168
75150W        W18088  14.662  17.518  28.255 -0.0263  0.0403  0.0502
75151W        W18089  17.051  19.291  29.874  0.1135  0.1843 -0.0922
75152W        W18090  15.972  19.212  30.485  0.0026 -0.1653  0.0126
75153W        W18091  14.368  16.736  24.865  0.0597  0.0303 -0.4470
75154W        W18092  16.415  17.187  27.734 -0.0506  0.1624  0.0533
75155W        W18093  16.424  17.565  28.973 -0.0568 -0.1352  0.0404
75156W        W18094  17.328  16.550  27.562 -0.1765  0.0609  0.1132
75157W        W18095  17.073  17.705  23.993 -0.3408 -0.1114  0.1674
75158W        W18096  14.967  16.624  25.965 -0.1042 -0.1349  0.0812
75159W        W18097  16.087  15.395  27.520 -0.1012  0.4372  0.3502
75160W        W18098  15.160  16.845  28.614 -0.1274 -0.1264 -0.3855
75161W        W18099  16.864  15.358  30.060  0.0631  0.3598 -0.0409
75162W        W18100  18.139  15.247  22.708  0.0734  0.0277  0.0575
75163W        W18101  16.165  14.508  24.821  0.2347  0.1997 -0.1196
75164W        W18102  16.876  15.800  25.739 -0.0175 -0.0592 -0.2540
75165W        W18103  16.082  17.564  27.845  0.1563 -0.0742  0.4448
75166W        W18104  15.630  15.318  27.109 -0.0963  0.2796  0.1863
75167W        W18105  16.756  18.593  28.006  0.0439  0.1725 -0.1186
75168W        W18106  17.335  15.724  27.814 -0.2255  0.0434 -0.0918
75169W        W18107  13.903  15.924  25.217 -0.0440  0.1617 -0.0794
75170W        W18108  15.606  17.268  26.387  0.3962 -0.2461  0.0866
75171W        W18109  18.925  17.031  26.974  0.0145 -0.0110  0.2381
75172W        W18110  16.104  17.247  23.931  0.0872  0.3875 -0.1391
75173W        W18111  15.709  15.477  25.259  0.5409  0.2421 -0.0294
75174W        W18112  16.311  16.667  27.956 -0.2719 -0.0082 -0.2084
75175W        W18113  13.242  15.966  29.218 -0.2115  0.4867 -0.0466
75176W        W18114  16.178  14.769  25.759 -0.0659 -0.1393  0.0444
75177W        W18115  17.259  16.866  28.259 -0.2491  0.2955 -0.1203
75178W        W18116  14.353  16.775  28.317  0.0001 -0.3069  0.1426
75179W        W18117  18.512  16.839  25.895  0.2727  0.5536  0.2468
75180W        W18118  16.455  17.331  26.080  0.2961  0.1209 -0.1235
75181W        W18119  18.462  17.098  26.735  0.2085  0.0139  0.1514
75182W        W18120  17.382  14.438  29.955  0.3646 -0.0454  0.0102
75183W        W18121  18.444  15.028  29.034 -0.2365  0.1194 -0.1430
75184W        W18122  15.361  16.666  23.774  0.0137  0.2345  0.3877
75185W        W18123  16.518  15.145  24.279  0.0330  0.1411 -0.1412
75186W        W18124  18.620  15.696  26.848  0.4726 -0.1369  0.0409
75187W        W18125  15.807  17.708  26.706  0.1540  0.1167  0.2683
75188W        W18126  15.976  16.462  30.189  0.1288  0.1679 -0.0816
75189W        W18127  17.260  16.846  29.339  0.3638 -0.0517 -0.1433
75190W        W18128  14.733  17.602  26.968 -0.1967  0.0300 -0.5371
75191W        W18129  14.907  15.574  28.901  0.0092 -0.2493 -0.0023
75192W        W18130  14.786  16.870  26.734  0.1953 -0.2242  0.2212
75193W        W18131  14.941  13.977  29.656 -0.1973 -0.0131  0.1002
75194W        W18132  17.654  16.121  28.829 -0.0149  0.0029 -0.4799
75195W        W18133  15.025  17.081  25.793 -0.1809  0.0877 -0.0178
75196W        W18134  17.023  18.073  25.449 -0.0281  0.0038  0.0416
75197W        W18135  17.767  15.337  24.272  0.3185  0.1768 -0.0222
75198W        W18136  15.122  16.755  27.128  0.2386 -0.0112  0.0716
75199W        W18137  15.106  16.195  27.338  0.1649 -0.2570 -0.0275
75200W        W18138  15.225  15.942  29.106 -0.1521  0.0607 -0.0762
75201W        W18139  15.065  15.236  28.591  0.2983  0.1205  0.0227
75202W        W18140  17.538  16.409  25.923 -0.1690  0.0803  0.2359
75203W        W18141  15.806  14.053  24.867 -0.1585 -0.1797 -0.3465
75204W        W18142  18.786  16.343  26.002  0.2679  0.0304 -0.4416
75205W        W18143  15.139  16.457  26.411  0.3056  0.0330 -0.1756
75206W        W18144  17.430  14.509  28.698  0.2746  0.0479 -0.2930
75207W        W18145  16.929  17.129  24.300 -0.0859 -0.0214  0.2028
75208W        W18146  17.340  17.426  29.881  0.1843 -0.6512  0.2445
75209W        W18147  16.988  17.183  27.927  0.0906  0.0466 -0.1523
75210W        W18148  14.916  14.849  25.190  0.1796 -0.3979 -0.0473
75211W        W18149  14.518  18.296  26.380 -0.1931 -0.3036 -0.2704
75212W        W18150  16.869  17.389  26.782  0.2431 -0.0735  0.4145
75213W        W18151  16.034  15.494  26.655 -0.0035  0.0707 -0.0133
75214W        W18152  13.615  15.935  28.062  0.3758 -0.2539 -0.3356
75215W        W18153  17.413  14.795  29.104 -0.6470  0.1779 -0.0858
75216W        W18154  18.899  15.587  28.243 -0.0292 -0.1135 -0.1546
75217W        W18155  16.104  15.253  25.434  0.1051 -0.1787  0.0186
75218W        W18156  15.259  17.645  26.689 -0.1207 -0.0189 -0.2686
75219W        W18157  15.411  15.811  24.942  0.0803 -0.1525 -0.1703
75220W        W18158  16.293  18.498  25.870 -0.2387  0.1931  0.0454
75221W        W18159  19.318  17.335  26.806  0.0351  0.0132 -0.3103
75222W        W18160  15.475  16.792  30.094  0.0576  0.1185 -0.3010
75223W        W18161  17.349  16.449  27.038 -0.0413  0.0001 -0.0366
75224W        W18162  14.132  15.960  24.386  0.1434 -0.0391  0.0169
75225W        W18163  14.694  17.462  27.693 -0.3128  0.3344 -0.3369
75226W        W18164  16.413  13.460  27.841  0.2113 -0.0754 -0.0200
75227W        W18165  16.991  14.404  24.224  0.1688  0.0691 -0.2227
75228W        W18166  15.570  16.597  28.735  0.1199  0.0399 -0.2148
75229W        W18167  17.676  15.310  23.122 -0.1117  0.0696  0.0687
75230W        W18168  17.287  13.186  23.611  0.1668 -0.0353  0.0310
75231W        W18169  13.858  18.402  28.255  0.1750  0.0083 -0.0520
75232W        W18170  17.330  17.048  24.882  0.0232  0.1507  0.3140
75233W        W18171  16.290  15.486  28.206 -0.0753  0.2774 -0.2653
75234W        W18172  18.364  18.817  25.077 -0.1509  0.2134 -0.0851
75235W        W18173  14.545  15.424  27.802 -0.1486  0.2224 -0.1117
75236W        W18174  17.602  16.996  27.150  0.0187 -0.1446  0.4867
75237W        W18175  15.960  16.345  27.624  0.1725 -0.0767  0.1937
75238W        W18176  16.160  14.823  24.263 -0.0203 -0.1514 -0.1160
75239W        W18177  16.469  15.505  26.451 -0.3693  0.0795  0.1188
75240W        W18178  16.411  14.034  27.804  0.1103 -0.2155  0.0195
75241W        W18179  16.224  15.961  29.288  0.3542  0.4245 -0.0241
75242W        W18180  17.701  14.851  28.279 -0.0479  0.0803  0.0208
75243W        W18181  18.598  15.188  30.121 -0.0739 -0.1537  0.0108
75244W        W18182  17.229  17.722  26.549 -0.2718  0.0917  0.0612
75245W        W18183  17.401  15.296  29.183  0.0976  0.0840  0.0568
75246W        W18184  15.467  15.676  28.204 -0.0140  0.2200  0.2840
75247W        W18185  15.737  18.739  27.044 -0.1271  0.2621  0.0461
75248W        W18186  15.707  18.652  28.550 -0.2274 -0.0393 -0.0803
75249W        W18187  17.493  18.361  24.774 -0.1908  0.1289 -0.2796
75250W        W18188  15.525  14.956  29.892 -0.0945 -0.1745 -0.3355
75251W        W18189  15.555  16.096  25.341 -0.0972  0.1459  0.0702
75252W        W18190  14.558  17.566  25.057  0.1346 -0.0620  0.2988
75253W        W18191  16.842  16.826  23.608 -0.1261  0.2387  0.0404
75254W        W18192  15.763  16.663  27.126 -0.1214 -0.0845  0.0305
75255W        W18193  17.336  17.510  27.006  0.1400 -0.1207  0.0100
75256W        W18194  14.655  17.122  27.148 -0.1290 -0.0669 -0.2322
75257W        W18195  17.453  15.589  26.014  0.4583 -0.0270  0.2718
75258W        W18196  15.290  18.596  26.923  0.3260 -0.0691  0.1034
75259W        W18197  15.943  15.807  25.563 -0.7215  0.0151 -0.0485
75260W        W18198  14.816  15.438  26.536  0.1415  0.0541 -0.1829
75261W        W18199  16.658  15.076  26.716  0.4629  0.0096  0.2462
75262W        W18200  17.975  19.154  24.503  0.0755  0.1267 -0.1282
75263W        W18201  15.974  15.775  27.916 -0.1139  0.2988  0.0179
75264W        W18202  16.437  16.377  30.097  0.2357 -0.2119 -0.1980
75265W        W18203  17.089  16.976  28.714  0.0757  0.3795  0.0502
75266W        W18204  18.665  16.290  27.534 -0.0119  0.0429  0.1137
75267W        W18205  17.393  14.620  25.008  0.1044  0.1760  0.0784
75268W        W18206  18.018  17.248  27.370 -0.2798  0.1539  0.2582
75269W        W18207  15.574  16.939  28.388  0.1115 -0.1797  0.1818
75270W        W18208  15.094  15.862  26.153 -0.0186 -0.0535 -0.0519
75271W        W18209  16.864  15.777  29.381  0.1145 -0.4853  0.0353
75272W        W18210  15.948  16.710  25.663  0.3476  0.0372  0.0310
75273W        W18211  14.704  16.365  24.632 -0.0585 -0.0751  0.0437
75274W        W18212  16.535  15.954  28.066  0.0518 -0.3024  0.0789
75275W        W18213  15.138  15.384  24.629  0.0474  0.1286  0.2397
75276W        W18214  16.427  16.710  25.835 -0.1748  0.2163 -0.0414
75277W        W18215  15.679  15.292  28.883 -0.1883  0.0498  0.2866
75278W        W18216  17.596  17.270  26.620 -0.2755  0.2346 -0.2133
75279W        W18217  16.855  15.608  27.856  0.0737  0.1542  0.0787
75280W        W18218  14.730  15.747  28.226 -0.4463 -0.1451 -0.3141
75281W        W18219  16.630  15.351  27.468  0.2311  0.0674 -0.3174
75282W        W18220  16.979  16.216  27.257 -0.2061 -0.0429 -0.0720
75283W        W18221  16.881  15.152  28.713  0.1684  0.1691  0.1128
75284W        W18222  15.057  17.337  27.980 -0.0309 -0.1190 -0.1408
75285W        W18223  16.734  16.042  28.662  0.0369  0.0584  0.0435
75286W        W18224  17.550  16.110  27.348  0.0632  0.0841 -0.0220
75287W        W18225  15.642  17.734  23.075  0.0171 -0.2035  0.1257
75288W        W18226  14.115  16.881  27.273  0.0634 -0.5446  0.1605
75289W        W18227  16.122  17.580  24.492  0.2310 -0.1020  0.1624
75290W        W18228  15.658  15.091  29.402 -0.1128  0.1565  0.0354
75291W        W18229  15.599  17.003  25.898  0.2736 -0.0197  0.0396
75292W        W18230  16.943  16.644  25.017  0.3108  0.0059  0.2813
75293W        W18231  16.566  17.817  26.510 -0.0804  0.0229  0.2260
75294W        W18232  17.708  14.011  24.920  0.2189  0.1891 -0.0943
75295W        W18233  17.574  16.902  24.407 -0.0497 -0.0189 -0.0858
75296W        W18234  16.859  16.636  26.661 -0.0967 -0.1142 -0.2128
75297W        W18235  18.493  14.476  30.684 -0.2580 -0.0070  0.2468
75298W        W18236  16.744  17.025  22.935 -0.1474  0.2771  0.2193
75299W        W18237  16.744  17.280  27.300  0.2019 -0.2953 -0.3291
75300W        W18238  16.094  15.905  27.399  0.0696  0.0373  0.1586
75301W        W18239  14.257  15.045  29.614  0.3501 -0.0151 -0.0467
75302W        W18240  17.179  17.982  29.572  0.0635  0.1219 -0.2468
75303W        W18241  16.665  16.649  29.754  0.0810 -0.1439  0.1261
75304W        W18242  15.943  14.282  24.372 -0.0199 -0.0451 -0.1984
75305W        W18243  15.903  18.223  28.717  0.0458 -0.3243  0.1676
75306W        W18244  17.467  18.247  26.618  0.0755 -0.2322  0.0685
75307W        W18245  16.522  15.095  25.619 -0.3499 -0.1661 -0.3745
75308W        W18246  15.621  17.121  28.824 -0.0124  0.1958 -0.0693
75309W        W18247  15.650  16.108  27.316  0.2702  0.1014 -0.1535
75310W        W18248  15.877  17.005  23.564  0.0936 -0.0895  0.0417
75311W        W18249  16.282  14.947  28.250  0.0170  0.0144 -0.4087
75312W        W18250  17.195  15.991  28.604 -0.1476 -0.0396 -0.1196
75313W        W18251  17.300  15.920  26.912 -0.1090  0.2772  0.2034
75314W        W18252  15.728  14.672  30.615 -0.0676  0.1832  0.0621
75315W        W18253  17.680  16.812  26.690 -0.1508 -0.2963  0.3380
75316W        W18254  14.433  17.682  27.321 -0.4523 -0.2295  0.0482
75317W        W18255  13.905  16.567  30.605  0.0294  0.3789  0.2767
75318W        W18256  18.267  19.442  27.385 -0.0781  0.1755 -0.0667
75319W        W18257  18.223  14.993  27.989  0.2963 -0.1508  0.0075
75320W        W18258  18.363  14.390  24.724  0.0258  0.3811  0.2159
75321W        W18259  15.471  16.556  26.034  0.2473 -0.0322  0.1657
75322W        W18260  17.311  15.242  28.040  0.0738 -0.0036  0.0924
75323W        W18261  16.716  14.537  25.694  0.0907 -0.0841 -0.2911
75324W        W18262  17.559  15.850  28.257 -0.0106 -0.2451  0.1312
75325W        W18263  16.813  17.134  25.815 -0.0525  0.1706 -0.3321
75326W        W18264  15.612  16.093  26.417 -0.0648 -0.1103  0.2265
75327W        W18265  16.023  17.825  28.296 -0.1306  0.4431 -0.0256
75328W        W18266  15.232  14.627  24.183 -0.1160  0.1190 -0.0552
75329W        W18267  16.075  17.028  26.273 -0.0485  0.2193  0.2337
75330W        W18268  16.962  16.499  28.456 -0.0644 -0.2883  0.1326
75331W        W18269  15.884  14.738  27.042  0.0054 -0.1622  0.1877
75332W        W18270  18.352  15.097  29.592  0.0440 -0.0866 -0.0324
75333W        W18271  16.029  17.331  25.784 -0.0880 -0.1967  0.1257
75334W        W18272  17.715  14.431  25.575  0.0937  0.0970 -0.0293
75335W        W18273  15.688  18.234  26.862 -0.0924  0.4394  0.1207
75336W        W18274  15.511  18.048  26.446  0.2686 -0.0428 -0.3028
75337W        W18275  15.927  17.138  26.759 -0.1114 -0.0023 -0.1598
75338W        W18276  16.008  15.612  30.423 -0.0969  0.0189 -0.2326
75339W        W18277  17.193  17.759  25.979 -0.0000 -0.0820 -0.0152
75340W        W18278  17.599  17.089  27.686 -0.5521 -0.1233  0.0512
75341W        W18279  16.225  16.275  28.891  0.0873 -0.0548  0.3640
75342W        W18280  16.057  16.657  28.493 -0.0433  0.0508 -0.2916
75343W        W18281  16.585  16.947  26.333 -0.0359 -0.0841  0.2084
75344W        W18282  18.852  14.776  26.260  0.1198  0.1010 -0.1437
75345W        W18283  15.982  16.558  26.124  0.2773  0.0415  0.1759
75346W        W18284  14.224  16.166  31.181  0.1100  0.4713 -0.0011
75347W        W18285  16.629  16.069  29.736 -0.0471  0.5180  0.0782
75348W        W18286  17.388  15.950  25.605 -0.1484  0.2326 -0.0128
75349W        W18287  16.863  16.133  26.751  0.2732  0.0584 -0.0243
75350W        W18288  15.764  18.044  29.701 -0.2214 -0.2004 -0.1058
75351W        W18289  15.257  18.200  28.012 -0.0109  0.0116  0.1968
75352W        W18290  15.745  18.185  25.558 -0.1793  0.2013 -0.0787
75353W        W18291  17.406  17.408  24.253 -0.1780  0.0871  0.4575
75354W        W18292  17.459  18.022  23.889  0.0893 -0.2343  0.1025
75355W        W18293  16.685  18.711  26.703  0.0740  0.1392  0.0854
75356W        W18294  15.534  17.370  27.027 -0.1765  0.0188  0.2597
75357W        W18295  16.719  17.495  25.369  0.0346  0.0989 -0.1714
75358W        W18296  17.109  18.885  27.129  0.1934 -0.1076  0.1716
75359W        W18297  18.189  16.383  27.841 -0.1734  0.0578 -0.2320
75360W        W18298  18.433  16.565  26.696 -0.0810  0.1802  0.0651
75361W        W18299  18.039  18.136  26.399  0.1605  0.1057 -0.2532
75362W        W18300  15.884  16.893  27.624  0.0904 -0.0775  0.0803
75363W        W18301  15.511  15.752  25.857 -0.0683  0.0112  0.1178
75364W        W18302  14.745  16.994  28.096 -0.2716  0.0871  0.3413
75365W        W18303  17.860  14.598  30.015 -0.0172 -0.0234 -0.1012
75366W        W18304  16.828  18.305  28.926 -0.0053 -0.1213 -0.0703
75367W        W18305  17.709  18.520  23.898  0.0871  0.0389  0.0565
75368W        W18306  14.439  14.640  26.111  0.0201 -0.0863  0.0995
75369W        W18307  17.896  16.863  26.052  0.1136  0.1713  0.0034
75370W        W18308  17.156  15.444  28.468 -0.0018 -0.1777 -0.1238
75371W        W18309  16.866  15.469  27.003  0.3297  0.1505  0.0784
75372W        W18310  14.779  17.550  26.479 -0.1453  0.0426  0.2077
75373W        W18311  16.374  18.158  29.125 -0.1275 -0.0489  0.2291
75374W        W18312  14.879  15.463  24.179 -0.3383 -0.0317  0.0746
75375W        W18313  15.255  15.424  29.649  0.3143  0.0593  0.0727
75376W        W18314  17.706  13.228  29.305  0.0869 -0.0945 -0.2945
75377W        W18315  18.561  16.180  26.993 -0.1572 -0.0569 -0.3115
75378W        W18316  18.029  16.506  26.387 -0.2672 -0.2714 -0.1550
75379W        W18317  15.151  15.683  27.753  0.0121  0.1157 -0.1239
75380W        W18318  18.041  17.168  26.416  0.0404 -0.0645 -0.1701
75381W        W18319  16.167  16.477  23.575  0.2100  0.1824  0.0818
75382W        W18320  17.382  18.823  26.712  0.1552  0.2382 -0.2787
75383W        W18321  16.665  15.812  27.295  0.0137 -0.1117 -0.1011
75384W        W18322  17.434  14.726  26.385 -0.4974 -0.2553  0.0983
75385W        W18323  15.231  16.184  25.718 -0.1288  0.0423  0.0026
75386W        W18324  16.892  16.726  27.256 -0.0214 -0.1871  0.0176
75387W        W18325  17.791  18.855  26.981  0.0947 -0.0568  0.2476
75388W        W18326  16.028  15.173  26.209 -0.0801  0.0367  0.0125
75389W        W18327  18.081  18.444  24.508 -0.0696 -0.1019 -0.3266
75390W        W18328  18.237  15.568  29.440 -0.2205 -0.2897 -0.0629
75391W        W18329  17.120  17.553  25.023 -0.0320  0.0840  0.1538
75392W        W18330  14.966  14.797  29.067 -0.1002 -0.2484 -0.0923
75393W        W18331  17.836  17.551  26.966  0.1660  0.1100 -0.1099
75394W        W18332  18.579  16.057  28.021  0.0523  0.0524  0.0021
75395W        W18333  16.987  15.515  26.242 -0.0575 -0.0031  0.1522
75396W        W18334  16.609  15.930  26.226  0.1707 -0.0087  0.0995
75397W        W18335  17.535  16.197  26.491 -0.1316  0.1359  0.1236
75398W        W18336  17.749  15.069  27.232  0.0078 -0.1273  0.2932
75399W        W18337  14.786  17.710  23.881 -0.1961  0.0478 -0.1774
75400W        W18338  16.808  14.234  29.131  0.0142  0.1452  0.0152
75401W        W18339  15.195  16.987  26.371  0.1454  0.2281 -0.3509
75402W        W18340  16.796  18.997  29.545 -0.2502 -0.1332  0.1363
75403W        W18341  15.098  16.313  25.189  0.0001  0.0103 -0.2241
75404W        W18342  15.219  16.753  28.025 -0.0021  0.2290 -0.3523
75405W        W18343  17.154  16.814  24.029  0.1454  0.0558 -0.1824
75406W        W18344  17.215  18.355  24.272  0.1579 -0.0430  0.1937
75407W        W18345  15.936  17.869  27.271  0.0245 -0.1593 -0.0015
75408W        W18346  15.727  15.775  26.921  0.2909 -0.0404 -0.0884
75409W        W18347  18.588  17.060  27.398  0.0726 -0.0137 -0.1201
75410W        W18348  16.549  17.018  26.924 -0.1166 -0.0973 -0.2417
75411W        W18349  17.610  14.756  24.343 -0.1544  0.0266  0.0887
75412W        W18350  16.255  14.959  27.239 -0.0086 -0.1052  0.0813
75413W        W18351  15.945  18.062  27.783  0.0808 -0.0829  0.0006
75414W        W18352  14.864  16.704  25.424  0.0236  0.0550 -0.0523
75415W        W18353  14.487  16.948  23.906 -0.2450  0.0729  0.0799
75416W        W18354  14.958  18.143  26.793  0.2556  0.0385  0.2484
75417W        W18355  17.164  14.253  31.526 -0.2298  0.0260  0.1124
75418W        W18356  15.485  16.083  27.829 -0.0095  0.0217 -0.2012
75419W        W18357  15.194  17.421  27.446 -0.1767 -0.2534 -0.3244
75420W        W18358  15.402  16.664  25.498  0.1093  0.0647  0.0693
75421W        W18359  18.215  18.360  25.130  0.0643 -0.1527  0.2457
75422W        W18360  16.738  14.489  27.900  0.0636 -0.1593 -0.1526
75423W        W18361  15.422  15.445  26.333 -0.1592 -0.2223  0.1754
75424W        W18362  17.895  18.081  24.864  0.0337  0.0418 -0.4329
75425W        W18363  15.577  14.540  25.588  0.1237  0.0590  0.0153
75426W        W18364  17.749  16.866  29.183 -0.2161  0.0230  0.3233
75427W        W18365  16.452  16.375  28.368 -0.1727 -0.1844 -0.0929
75428W        W18366  16.716  15.060  29.678  0.2073 -0.2146 -0.3488
75429W        W18367  15.186  15.355  26.889 -0.0573 -0.0086  0.2408
75430W        W18368  16.475  18.176  26.865 -0.2363 -0.1885 -0.1535
75431W        W18369  16.533  16.890  24.006  0.0321 -0.0239  0.1941
75432W        W18370  17.657  18.707  24.485  0.3753 -0.1768 -0.0475
75433W        W18371  16.059  17.220  27.259  0.3795  0.1728  0.3684
75434W        W18372  15.560  16.323  29.999 -0.1335 -0.1376 -0.0666
75435W        W18373  15.772  13.065  29.046  0.0691  0.0494  0.1172
75436W        W18374  17.720  18.147  24.333 -0.0238  0.0653  0.0108
75437W        W18375  16.443  17.501  28.164 -0.0060 -0.1662  0.0366
75438W        W18376  18.512  18.568  24.194 -0.2712 -0.3189 -0.0350
75439W        W18377  17.111  15.654  27.405 -0.2287  0.1810 -0.1373
75440W        W18378  15.944  15.687  28.876 -0.1173  0.2485 -0.0822
75441W        W18379  15.649  16.851  30.530  0.1646 -0.1461  0.0167
75442W        W18380  17.747  16.630  28.130 -0.0100  0.1220  0.3080
75443W        W18381  16.137  16.096  26.387 -0.2582 -0.1868  0.0000
75444W        W18382  16.274  16.164  25.880  0.0898 -0.2471  0.1992
75445W        W18383  17.006  18.051  24.931 -0.2259 -0.0973 -0.0727
75446W        W18384  15.440  17.963  28.603 -0.3344 -0.2923 -0.3435
75447W        W18385  17.010  15.934  28.172  0.1085  0.1580  0.0330
75448W        W18386  17.424  17.230  29.003 -0.2164 -0.4639 -0.1301
75449W        W18387  18.873  17.010  24.158 -0.1521  0.1521 -0.1555
75450W        W18388  16.039  18.158  26.528 -0.0610 -0.1178  0.0680
75451W        W18389  16.707  17.700  30.512 -0.3960  0.0834 -0.1149
75452W        W18390  17.042  18.371  26.913  0.0088 -0.0841 -0.0429
75453W        W18391  18.387  15.986  25.936 -0.2974 -0.1286 -0.0502
75454W        W18392  14.496  13.662  27.614 -0.2645  0.1476  0.0691
75455W        W18393  16.822  13.879  27.449 -0.1189  0.0687 -0.0634
75456W        W18394  16.231  15.920  28.518 -0.2058 -0.0105  0.4493
75457W        W18395  17.886  16.052  25.713  0.1493  0.1159  0.3461
75458W        W18396  16.342  17.645  27.442  0.1874 -0.1148  0.2431
75459W        W18397  17.701  17.736  26.482 -0.0564 -0.0466 -0.0705
75460W        W18398  17.547  14.226  30.477 -0.0692  0.3478 -0.0911
75461W        W18399  16.966  15.794  29.917 -0.0071  0.1190 -0.1671
75462W        W18400  15.409  16.467  29.445 -0.0885 -0.0453 -0.2300
75463W        W18401  15.069  17.200  28.977 -0.0657 -0.2926  0.2133
75464W        W18402  17.093  16.803  30.380 -0.0621 -0.1344  0.1070
75465W        W18403  15.788  17.386  30.689  0.0794  0.1451 -0.0109
75466W        W18404  17.297  16.348  28.095 -0.1859 -0.0062 -0.0418
75467W        W18405  14.733  15.381  30.967  0.1916 -0.1624 -0.0830
75468W        W18406  15.515  16.185  30.963 -0.1124  0.1273 -0.0199
75469W        W18407  16.755  16.183  29.110  0.1419  0.3381 -0.0340
75470W        W18408  16.575  16.984  28.834 -0.1285 -0.0407  0.2143
75471W        W18409  16.484  15.244  29.161 -0.2629 -0.2969 -0.0983
75472W        W18410  17.746  15.429  29.705  0.0935  0.0475 -0.0459
75473W        W18411  14.906  16.404  29.449 -0.0526  0.1767 -0.1052
75474W        W18412  17.149  17.101  27.454 -0.3126  0.0646  0.1836
75475W        W18413  16.825  19.497  28.024  0.0879 -0.0349 -0.0309
75476W        W18414  13.360  16.082  29.789  0.1776 -0.1743  0.2825
75477W        W18415  17.484  15.727  29.980 -0.1375 -0.0753  0.2815
75478W        W18416  14.366  16.469  30.176 -0.1498 -0.3444  0.3543
75479W        W18417  14.805  14.759  29.609  0.0949 -0.1583  0.4776
75480W        W18418  15.853  14.582  31.315  0.0282 -0.0072 -0.2166
75481W        W18419  15.749  17.511  29.482  0.0977 -0.0358 -0.0859
75482W        W18420  17.504  15.611  28.758  0.2492  0.1242  0.2061
75483W        W18421  17.844  13.740  30.395 -0.2194 -0.2592  0.1872
75484W        W18422  16.951  15.057  29.239 -0.1428  0.2560  0.2250
75485W        W18423  16.636  16.929  30.203 -0.0431  0.2457 -0.1949
75486W        W18424  16.150  14.988  29.617  0.1214  0.0340  0.1043
75487W        W18425  15.907  18.559  29.240  0.1105  0.1487  0.1668
75488W        W18426  16.932  16.127  27.728 -0.1681  0.0400  0.1810
75489W        W18427  16.020  17.054  28.156 -0.0746  0.3309 -0.0227
75490W        W18428  16.430  18.053  28.630  0.3259 -0.1351  0.5712
75491W        W18429  15.136  14.496  29.877 -0.0010 -0.1387  0.2022
75492W        W18430  16.172  16.371  29.691  0.3092  0.0448 -0.1408
75493W        W18431  16.908  14.126  30.052 -0.0925 -0.2202  0.0489
75494W        W18432  15.292  14.950  30.554 -0.1874  0.1054  0.0928
75495W        W18433  15.267  17.272  29.404 -0.1914 -0.0037 -0.0227
75496W        W18434  16.437  18.530  28.742  0.2121  0.2331  0.0563
75497W        W18435  17.586  14.865  29.645  0.3873 -0.1238 -0.2904
75498W        W18436  16.980  15.586  28.953 -0.0937 -0.2119 -0.0051
75499W        W18437  16.140  16.848  28.958  0.1760 -0.1031 -0.0344
75500W        W18438  17.482  16.506  28.558  0.3823  0.1437 -0.1094
75501W        W18439  16.548  13.665   0.084 -0.0733 -0.1140  0.2152
75502W        W18440  15.421  14.798  31.485  0.0332 -0.0626  0.1007
75503W        W18441  16.535  16.871  28.352 -0.1922  0.1131 -0.3528
75504W        W18442  16.480  15.700  28.958 -0.2111  0.0249 -0.0986
75505W        W18443  15.629  15.770  29.977  0.0461  0.0638  0.1607
75506W        W18444  15.194  13.448  31.767  0.1389  0.2404  0.0188
75507W        W18445  15.573  17.175  27.891  0.1097  0.3329  0.5479
75508W        W18446  16.438  16.540  29.276 -0.1412  0.0643 -0.1484
75509W        W18447  14.716  17.532  28.731 -0.1513  0.0805 -0.3257
75510W        W18448  17.606  16.986  31.160  0.0984 -0.2077 -0.3164
75511W        W18449  17.219  14.883  28.421  0.1298 -0.1047 -0.0124
75512W        W18450  16.621  14.218  29.616  0.1122 -0.3224  0.2047
75513W        W18451  17.164  15.391  29.592  0.0559 -0.2799  0.2116
75514W        W18452  16.469  14.848  31.246 -0.2935 -0.1298 -0.1079
75515W        W18453  17.243  16.051  29.079  0.2027  0.1949 -0.1825
75516W        W18454  16.829  17.315  28.435 -0.0188  0.1120  0.0144
75517W        W18455  16.201  18.299  29.617  0.1638 -0.1755 -0.0959
75518W        W18456  17.335  17.315  28.485 -0.1985 -0.1933 -0.2209
75519W        W18457  16.279  17.325  28.582  0.1420  0.0164 -0.0911
75520W        W18458  14.142  14.546  31.937  0.1802 -0.1064  0.0123
75521W        W18459  15.314  18.481  25.973 -0.0957  0.0242  0.1670
75522W        W18460  15.700  16.931  29.260  0.5018 -0.3481  0.0006
75523W        W18461  14.502  14.945  30.095  0.1931 -0.0689  0.0921
75524W        W18462  17.353  17.698  30.299  0.0121  0.3982 -0.2418
75525W        W18463  17.497  14.766  30.290  0.0110 -0.0459 -0.1284
75526W        W18464  17.607  17.404  26.137  0.0949  0.0986  0.1264
75527W        W18465  14.298  21.397  17.052 -0.2805  0.0466 -0.2831
75528W        W18466  15.139  20.696  15.878 -0.3350  0.0631 -0.1060
75529W        W18467  18.009  19.368  14.822 -0.2890  0.1643 -0.3263
75530W        W18468  17.181  20.050  15.450 -0.1582  0.4454 -0.1656
75531W        W18469  13.170  19.657  16.106 -0.4783 -0.0838  0.0881
75532W        W18470  17.338  22.204  17.324  0.0892  0.1725  0.0249
75533W        W18471  13.334  20.090  17.325  0.0679  0.1008  0.1223
75534W        W18472  17.846  22.421  17.471  0.4054 -0.0979  0.4155
75535W        W18473  16.820  22.341  18.559  0.2238  0.1170 -0.1487
75536W        W18474  16.342  20.729  15.569  0.1239  0.0689 -0.1294
75537W        W18475  15.906  20.638  17.784 -0.0824  0.1992  0.2849
75538W        W18476  14.449  21.813  16.601  0.0218  0.0611 -0.1811
75539W        W18477  15.612  19.248  15.656  0.2057 -0.0499  0.2291
75540W        W18478  14.047  17.338  15.683  0.1460 -0.2542 -0.0430
75541W        W18479  16.078  21.511  17.415 -0.2317 -0.2944  0.4320
75542W        W18480  14.626  20.483  14.542 -0.1596 -0.0839  0.1183
75543W        W18481  14.621  21.004  17.052 -0.1383 -0.1241  0.1769
75544W        W18482  14.242  20.762  16.254 -0.1773  0.1555 -0.1407
75545W        W18483  16.297  22.470  17.826  0.4629 -0.1320  0.2283
75546W        W18484  15.412  20.821  17.057  0.1246 -0.2815 -0.0138
75547W        W18485  15.248  18.752  17.041 -0.2667  0.0481 -0.1401
75548W        W18486  16.368  20.784  15.104 -0.2925  0.5426  0.0417
75549W        W18487  14.033  19.838  14.776 -0.0606 -0.2268 -0.1487
75550W        W18488  14.776  18.636  16.222  0.1511 -0.2784  0.1609
75551W        W18489  12.802  20.836  17.803 -0.0470 -0.0893 -0.1246
75552W        W18490  18.062  18.607  14.297  0.4498  0.1286  0.1936
75553W        W18491  18.491  20.581  16.739 -0.2524  0.0756  0.1596
75554W        W18492  16.514  22.241  16.817 -0.0961 -0.2736  0.4499
75555W        W18493  16.073  22.956  17.720 -0.1233  0.3522 -0.1207
75556W        W18494  18.003  19.430  16.544  0.3212  0.2386 -0.1107
75557W        W18495  15.298  21.613  15.685  0.3086  0.3719 -0.1085
75558W        W18496  13.574  21.118  15.940 -0.0702 -0.4314  0.4117
75559W        W18497  15.765  20.150  15.260 -0.0559 -0.2194 -0.1526
75560W        W18498  18.572  21.347  16.888 -0.3386  0.2442  0.0396
75561W        W18499  17.205  23.392  16.568 -0.0222  0.4636 -0.1465
75562W        W18500  16.048  22.147  18.294  0.0975 -0.2029  0.4701
75563W        W18501  15.538  20.987  14.625  0.1359 -0.3400  0.0318
75564W        W18502  17.292  23.287  17.463  0.4079 -0.1528 -0.1237
75565W        W18503  13.236  20.756  18.184  0.0375  0.2139 -0.1858
75566W        W18504  17.397  21.687  17.268  0.0501  0.0447  0.0301
75567W        W18505  15.333  21.104  16.120 -0.1037 -0.2249  0.0440
75568W        W18506  17.075  21.535  15.173  0.1487 -0.2081  0.1969
75569W        W18507  16.774  21.247  16.272 -0.0938  0.0971 -0.0284
75570W        W18508  14.675  19.883  17.905 -0.0369  0.1254  0.0896
75571W        W18509  15.667  22.992  16.508 -0.1315  0.1498  0.0599
75572W        W18510  19.338  19.914  17.295  0.0407 -0.0025  0.0083
75573W        W18511  15.650  21.945  15.638 -0.0804  0.0344 -0.1807
75574W        W18512  16.439  20.141  15.740 -0.3195 -0.0163  0.0524
75575W        W18513  16.162  20.393  14.291  0.1508 -0.0747 -0.2902
75576W        W18514  14.747  19.611  16.790 -0.2824  0.1329 -0.0840
75577W        W18515  15.898  17.715  15.769  0.3970  0.0054  0.0955
75578W        W18516  16.925  22.234  17.662  0.2252  0.2567  0.0261
75579W        W18517  17.063  20.826  16.135  0.0866 -0.2173 -0.0155
75580W        W18518  18.839  22.036  16.923  0.1256 -0.1730  0.0305
75581W        W18519  16.854  20.525  15.592 -0.2319 -0.1701 -0.0562
75582W        W18520  16.519  19.815  16.072  0.0605 -0.2977  0.5658
75583W        W18521  15.424  21.901  17.060 -0.0829  0.0709 -0.0705
75584W        W18522  13.197  19.407  15.200 -0.4136  0.1052 -0.0769
75585W        W18523  17.562  20.798  14.464 -0.2658  0.2115  0.4049
75586W        W18524  18.614  22.993  16.769 -0.1138 -0.4094  0.2470
75587W        W18525  17.078  22.434  15.119 -0.0074 -0.1267  0.0385
75588W        W18526  14.368  19.685  15.142  0.0673 -0.1071  0.3484
75589W        W18527  13.696  21.250  18.360 -0.1073  0.1247 -0.0912
75590W        W18528  12.422  21.088  18.532 -0.0677 -0.0723 -0.4671
75591W        W18529  15.205  18.929  14.891 -0.1964 -0.3220  0.2275
75592W        W18530  19.919  22.269  19.305  0.3691  0.0066  0.1638
75593W        W18531  13.833  22.249  18.578  0.1906  0.1712  0.1142
75594W        W18532  18.158  19.106  15.334 -0.2087 -0.0404  0.2010
75595W        W18533  16.413  21.729  16.371 -0.2086  0.0412 -0.1855
75596W        W18534  19.613  21.370  17.515 -0.1583  0.0156  0.0448
75597W        W18535  18.345  20.134  14.380  0.0418  0.0413  0.1602
75598W        W18536  16.923  19.679  16.377  0.0124  0.2573  0.1633
75599W        W18537  17.902  18.685  15.809 -0.1990 -0.0270  0.1618
75600W        W18538  15.480  20.158  15.709  0.1178 -0.0783  0.0733
75601W        W18539  15.901  20.721  15.281  0.3444 -0.0265 -0.0425
75602W        W18540  18.936  22.072  17.420  0.1471  0.1731  0.0890
75603W        W18541  17.419  19.878  15.880  0.1579  0.2790 -0.0440
75604W        W18542  16.489  22.901  16.888  0.2037  0.1623 -0.0381
75605W        W18543  16.325  20.315  18.405 -0.0498  0.1410  0.0765
75606W        W18544  17.174  22.691  17.403 -0.2855  0.0645  0.2202
75607W        W18545  14.416  22.240  16.359 -0.1319  0.1593 -0.0074
75608W        W18546  14.820  20.047  16.994 -0.1613 -0.3426 -0.2192
75609W        W18547  15.292  21.094  15.579  0.1890  0.0076  0.0361
75610W        W18548  14.060  19.503  15.875 -0.1940  0.0293  0.3119
75611W        W18549  17.257  22.145  16.746  0.0578  0.2023 -0.1645
75612W        W18550  17.660  19.671  15.012  0.1053  0.5075  0.2482
75613W        W18551  14.847  19.611  17.347  0.1490  0.0888 -0.2133
75614W        W18552  18.753  18.039  14.459  0.0470  0.0531 -0.1212
75615W        W18553  13.198  20.975  16.361  0.2284 -0.1956  0.0467
75616W        W18554  17.790  22.314  16.012  0.1074 -0.1776 -0.1005
75617W        W18555  18.500  19.521  14.945  0.2659 -0.2395  0.3776
75618W        W18556  16.431  22.523  16.063 -0.1527  0.2630 -0.0499
75619W        W18557  15.349  20.446  16.526 -0.0838  0.2173 -0.1790
75620W        W18558  13.790  19.506  17.128  0.0738 -0.0212  0.2688
75621W        W18559  15.396  19.325  16.468  0.1812  0.1070 -0.2885
75622W        W18560  14.627  19.102  16.662 -0.2284  0.0223 -0.0270
75623W        W18561  17.940  21.406  17.155 -0.2836 -0.2394  0.0133
75624W        W18562  14.910  18.696  15.314 -0.0354  0.1264  0.0109
75625W        W18563  17.437  18.783  16.644  0.1469  0.1002 -0.2003
75626W        W18564  15.961  19.865  15.851  0.3503 -0.0171  0.2563
75627W        W18565  14.937  20.094  14.749  0.0374  0.1839  0.0518
75628W        W18566  18.105  20.299  17.632  0.0737 -0.4133 -0.2267
75629W        W18567  17.238  22.604  16.543  0.0951 -0.4103 -0.1305
75630W        W18568  19.412  22.977  19.091 -0.3040  0.0100  0.1666
75631W        W18569  16.677  22.628  16.491  0.3186 -0.1809  0.0380
75632W        W18570  16.486  19.394  16.374 -0.0617  0.0665 -0.1976
75633W        W18571  15.116  19.759  16.287 -0.0897  0.1734  0.0136
75634W        W18572  15.749  23.033  17.272  0.0979  0.0648 -0.0861
75635W        W18573  15.782  21.954  17.430 -0.0481  0.1734 -0.4425
75636W        W18574  14.908  17.808  14.446  0.2361 -0.0951  0.2018
75637W        W18575  18.034  22.651  15.734  0.4408  0.0408 -0.0863
75638W        W18576  16.612  20.583  16.065  0.0210 -0.0681  0.1490
75639W        W18577  14.408  21.513  18.007  0.0481  0.1165  0.1844
75640W        W18578  17.010  20.744  17.040 -0.0207  0.0736  0.0003
75641W        W18579  17.543  22.553  16.995 -0.1404  0.2015  0.0444
75642W        W18580  17.052  18.994  16.919 -0.0735  0.0242  0.0750
75643W        W18581  14.736  19.073  15.674  0.1225  0.0691 -0.0693
75644W        W18582  17.244  21.607  15.635  0.1223 -0.1139 -0.0466
75645W        W18583  15.618  22.435  15.887 -0.0542 -0.2107  0.1398
75646W        W18584  13.864  20.051  15.775 -0.1512  0.3593 -0.1844
75647W        W18585  16.494  21.735  16.834 -0.0129 -0.0426  0.2143
75648W        W18586  17.271  18.989  15.485 -0.1976  0.3324 -0.2179
75649W        W18587  14.152  20.908  18.188  0.2278  0.1873  0.1210
75650W        W18588  18.001  20.653  16.664  0.1844 -0.1813 -0.1092
75651W        W18589  14.508  20.429  15.458 -0.1936 -0.1767  0.3305
75652W        W18590  15.393  22.046  17.915 -0.0699 -0.0294  0.1089
75653W        W18591  17.003  18.653  14.338 -0.0321 -0.1221  0.3670
75654W        W18592  16.703  20.045  15.335  0.0566  0.3076  0.1179
75655W        W18593  17.262  21.505  16.776 -0.1330 -0.0637 -0.0959
75656W        W18594  17.751  20.574  15.456  0.0881 -0.1546 -0.1779
75657W        W18595  17.456  20.251  15.001  0.1290  0.1308  0.2515
75658W        W18596  17.048  18.231  14.068 -0.0541  0.2474 -0.3564
75659W        W18597  13.195  20.644  19.146  0.0756 -0.3184  0.0103
75660W        W18598  16.770  21.868  15.492 -0.3830  0.1392 -0.1739
75661W        W18599  16.376  22.487  17.293  0.1966 -0.1223  0.1898
75662W        W18600  17.129  19.782  15.013 -0.0587 -0.2216  0.0162
75663W        W18601  18.163  21.198  16.055  0.3198  0.0237 -0.2095
75664W        W18602  14.882  21.244  15.890 -0.0825 -0.0010  0.0312
75665W        W18603  17.165  20.943  17.537 -0.0486 -0.1090  0.0207
75666W        W18604  18.004  21.587  15.327  0.2621 -0.1513  0.3267
75667W        W18605  14.612  18.218  16.036 -0.1047 -0.0035 -0.0331
75668W        W18606  16.250  19.718  15.456 -0.3395  0.0237  0.1107
75669W        W18607  17.279  20.159  16.271 -0.0897 -0.0173  0.0271
75670W        W18608  14.391  21.407  15.673 -0.0619  0.0753 -0.0169
75671W        W18609  18.550  20.496  15.295 -0.1183 -0.1978 -0.0207
75672W        W18610  16.885  18.649  15.396 -0.0190  0.1883  0.0767
75673W        W18611  16.798  17.546  16.644  0.2906 -0.0093  0.2167
75674W        W18612  18.226  20.997  16.987 -0.0718 -0.4538  0.1466
75675W        W18613  16.803  20.233  16.402  0.2628 -0.1685  0.0538
75676W        W18614  16.823  19.650  15.573  0.2746  0.0499  0.0300
75677W        W18615  15.678  19.113  15.189 -0.1132  0.0143 -0.2691
75678W        W18616  16.797  20.777  16.571 -0.1645 -0.3213 -0.0697
75679W        W18617  14.480  22.343  17.333 -0.4248 -0.1281 -0.2840
75680W        W18618  14.357  22.048  17.725 -0.0665  0.0348 -0.2554
75681W        W18619  18.602  22.515  18.144  0.1298  0.1542  0.0712
75682W        W18620  17.707  21.143  16.250 -0.1052 -0.1694  0.1777
75683W        W18621  16.959  19.887  17.751  0.1861  0.1396 -0.0584
75684W        W18622  16.406  18.798  15.091  0.0676  0.1882 -0.1693
75685W        W18623  15.066  20.951  14.945 -0.1924 -0.0591  0.0112
75686W        W18624  16.239  20.271  15.303 -0.1290 -0.0239  0.1178
75687W        W18625  15.769  20.437  17.004 -0.0714  0.1186  0.2369
75688W        W18626  17.442  22.367  17.806  0.0108 -0.1595  0.0917
75689W        W18627  16.384  20.307  14.751  0.2839  0.0852 -0.3547
75690W        W18628  17.103  21.757  17.644 -0.0131 -0.1791  0.0349
75691W        W18629  15.987  21.743  16.914  0.2582 -0.0030  0.0097
75692W        W18630  15.889  18.580  16.126 -0.1652 -0.1911  0.1130
75693W        W18631  14.128  22.528  17.764  0.1545  0.2302  0.0328
75694W        W18632  14.180  19.239  15.333 -0.0898 -0.1062  0.1403
75695W        W18633  12.898  21.172  17.469 -0.3924  0.0402 -0.0260
75696W        W18634  17.232  18.051  15.465 -0.0628  0.0716 -0.0380
75697W        W18635  18.128  20.757  15.203  0.0469  0.0482 -0.0959
75698W        W18636  15.646  21.386  15.427 -0.0986 -0.0442 -0.1185
75699W        W18637  16.990  17.065  16.385 -0.1099 -0.2151  0.0807
75700W        W18638  17.079  22.922  16.903  0.0106  0.0223  0.1991
75701W        W18639  17.523  20.600  16.242 -0.2145  0.0239 -0.0124
75702W        W18640  17.705  20.349  14.240 -0.0417  0.0736 -0.0364
75703W        W18641  18.142  22.140  17.803  0.1494 -0.1623  0.0232
75704W        W18642  14.958  20.931  17.386  0.1548  0.1513 -0.1219
75705W        W18643  13.065  20.362  15.262 -0.2896 -0.3148  0.2147
75706W        W18644  19.200  19.407  15.711  0.0001  0.1541 -0.0342
75707W        W18645  15.919  20.359  15.702  0.2412  0.2671  0.4604
75708W        W18646  15.593  20.540  16.043  0.0808 -0.0278  0.2776
75709W        W18647  16.307  21.985  17.276 -0.3030 -0.5100  0.1550
75710W        W18648  14.523  20.825  15.844 -0.3817  0.0856 -0.3102
75711W        W18649  14.882  21.889  16.354 -0.1294 -0.4294  0.1352
75712W        W18650  15.683  19.579  16.777  0.4770 -0.1469  0.2492
75713W        W18651  16.901  21.931  17.108  0.0812  0.0643 -0.3621
75714W        W18652  15.021  20.569  16.894  0.0210  0.1282 -0.0911
75715W        W18653  14.410  20.293  16.310 -0.0600 -0.0731 -0.2952
75716W        W18654  16.426  18.492  15.508 -0.2160  0.1982  0.0108
75717W        W18655  18.593  20.920  15.676 -0.1604 -0.2539  0.1448
75718W        W18656  17.753  19.100  15.633  0.2766 -0.3703  0.3409
75719W        W18657  13.927  21.355  17.917  0.0172 -0.1409  0.0751
75720W        W18658  16.800  19.043  16.270  0.2473 -0.2023 -0.2253
75721W        W18659  19.016  20.765  15.983  0.0663  0.3655 -0.1655
75722W        W18660  18.281  20.251  16.267 -0.4043  0.3328  0.2776
75723W        W18661  15.144  21.324  14.626 -0.0714  0.3634 -0.1676
75724W        W18662  13.191  20.292  16.923 -0.1112  0.0234  0.0930
75725W        W18663  14.631  22.178  16.896  0.0429  0.1696 -0.0011
75726W        W18664  15.866  19.133  16.582 -0.0025  0.0278  0.1510
75727W        W18665  13.931  21.857  17.877  0.2476 -0.0504  0.0466
75728W        W18666  14.765  21.736  15.889  0.0149  0.0452 -0.1961
75729W        W18667  14.593  21.118  16.368  0.0026  0.1001  0.0094
75730W        W18668  19.757  18.537  15.812 -0.1376  0.0305  0.1906
75731W        W18669  16.909  22.104  14.579  0.0809  0.1624 -0.0882
75732W        W18670  16.286  21.180  16.033 -0.4523 -0.0135 -0.0635
75733W        W18671  18.834  19.534  16.044  0.2988  0.0214 -0.1754
75734W        W18672  16.957  20.115  15.868 -0.0035  0.1036  0.4511
75735W        W18673  15.840  18.639  16.593  0.0233  0.0579  0.2730
75736W        W18674  14.864  20.207  16.552 -0.0612  0.0750 -0.0119
75737W        W18675  18.547  22.441  16.799 -0.0492  0.0116  0.3374
75738W        W18676  12.474  19.460  16.997 -0.1667  0.0168  0.3518
75739W        W18677  15.781  24.489  19.155 -0.1533  0.1015 -0.0261
75740W        W18678  14.268  20.161  16.877  0.2110  0.0027  0.0270
75741W        W18679  16.220  20.267  16.354 -0.0388  0.0156  0.0746
75742W        W18680  14.838  17.305  14.349 -0.3383 -0.0850  0.0560
75743W        W18681  15.794  21.154  17.762 -0.4558 -0.1104 -0.1298
75744W        W18682  18.231  20.625  15.704 -0.1026  0.0682 -0.2509
75745W        W18683  17.969  19.567  15.613  0.1400 -0.0885 -0.1792
75746W        W18684  17.542  18.298  15.103  0.0071  0.0117  0.2439
75747W        W18685  15.184  21.734  17.491  0.0717 -0.2094  0.0487
75748W        W18686  17.507  19.916  14.579  0.0075 -0.1261 -0.1380
75749W        W18687  16.617  18.864  15.766 -0.3735  0.0761 -0.1254
75750W        W18688  14.813  21.319  15.399 -0.0909 -0.0798  0.2539
75751W        W18689  15.674  20.047  16.178  0.2197  0.3397 -0.0281
75752W        W18690  16.505  20.763  18.167  0.0676 -0.4506  0.2086
75753W        W18691  15.020  20.293  15.519  0.2088 -0.0705  0.1769
75754W        W18692  15.322  21.910  16.080  0.3011 -0.0615  0.0781
75755W        W18693  19.045  20.815  15.265  0.0325 -0.0103 -0.2028
75756W        W18694  16.323  18.982  16.876 -0.0853 -0.0011 -0.1312
75757W        W18695  14.838  19.355  16.293  0.1550  0.0938  0.3259
75758W        W18696  15.846  22.276  17.815 -0.0821 -0.1780 -0.1303
75759W        W18697  19.145  19.082  15.318 -0.2417  0.2406  0.3097
75760W        W18698  19.091  18.266  15.195 -0.0498  0.1335 -0.0241
75761W        W18699  16.895  18.944  14.881  0.3981  0.0991  0.2355
75762W        W18700  16.375  19.903  14.942 -0.2038  0.0089 -0.0429
75763W        W18701  15.629  19.048  16.099  0.1595 -0.0236  0.0001
75764W        W18702  17.243  21.040  16.582 -0.0631  0.0926 -0.0018
75765W        W18703  15.947  18.390  15.586 -0.3536 -0.0256  0.0280
75766W        W18704  17.609  20.280  16.977 -0.0840  0.2087  0.2203
75767W        W18705  16.378  21.708  15.098 -0.0045 -0.0108 -0.0066
75768W        W18706  17.893  21.248  16.691 -0.0640  0.2111  0.0497
75769W        W18707  15.325  19.413  15.009  0.0521  0.2046  0.0844
75770W        W18708  15.533  19.842  17.950 -0.0080  0.0232 -0.0352
75771W        W18709  15.510  20.797  17.544  0.0249 -0.1489  0.0574
75772W        W18710  16.243  19.234  15.293  0.0057 -0.0556  0.1323
75773W        W18711  16.726  21.634  14.817 -0.2515 -0.0756 -0.0452
75774W        W18712  17.555  23.031  17.075  0.0066 -0.0719 -0.0505
75775W        W18713  18.151  22.336  19.701  0.1241  0.0978 -0.2664
75776W        W18714  15.745  18.231  15.125  0.1802  0.0920  0.0310
75777W        W18715  18.846  18.074  15.620 -0.0666 -0.0757  0.1876
75778W        W18716  14.886  20.437  15.077 -0.2248 -0.0488 -0.2848
75779W        W18717  15.524  18.713  15.747  0.0073  0.0788  0.0495
75780W        W18718  16.039  22.228  16.970  0.0598 -0.0279  0.0166
75781W        W18719  14.651  21.023  18.013 -0.1312 -0.0819 -0.2763
75782W        W18720  15.895  21.557  16.424 -0.3526  0.1078 -0.0731
75783W        W18721  16.040  20.863  17.280  0.0351  0.3632  0.1096
75784W        W18722  17.708  19.449  16.017  0.1787  0.0203 -0.0830
75785W        W18723  15.861  21.800  18.036 -0.2212 -0.0510  0.4240
75786W        W18724  18.839  19.839  15.650  0.1880 -0.1258 -0.2848
75787W        W18725  17.549  20.786  16.872  0.0024  0.2142 -0.0716
75788W        W18726  14.210  21.079  16.661 -0.1849 -0.5109  0.0256
75789W        W18727  16.852  23.732  18.083 -0.0500 -0.2542  0.1088
75790W        W18728  18.855  20.347  14.484  0.2007 -0.1877 -0.0282
75791W        W18729  15.580  20.271  17.516 -0.1914 -0.2533  0.1493
75792W        W18730  13.799  19.087  17.398 -0.2812  0.0478  0.0202
75793W        W18731  16.699  21.215  18.243  0.0097 -0.0959  0.1382
75794W        W18732  16.318  21.186  16.597 -0.2128 -0.1304  0.1123
75795W        W18733  14.947  17.342  15.768  0.1116 -0.1324  0.0596
75796W        W18734  16.713  20.983  15.793  0.1084  0.4019 -0.2492
75797W        W18735  15.419  22.284  17.493  0.0228 -0.0495 -0.2341
75798W        W18736  15.806  19.970  17.198 -0.1505  0.1696 -0.2397
75799W        W18737  15.032  24.139  17.852  0.2621  0.0569  0.2325
75800W        W18738  17.602  21.358  14.930  0.0464  0.0404  0.1534
75801W        W18739  17.423  19.510  15.507 -0.1837  0.0608 -0.0492
75802W        W18740  15.908  22.879  16.068  0.2156 -0.1240 -0.2268
75803W        W18741  15.877  19.588  14.584  0.2356  0.0296 -0.0477
75804W        W18742  14.345  21.941  15.633  0.0815 -0.1682  0.0574
75805W        W18743  15.087  22.152  15.609  0.0252 -0.0889  0.1907
75806W        W18744  17.705  19.979  15.420  0.0297 -0.1611 -0.0723
75807W        W18745  15.890  22.506  17.368  0.0170 -0.0056  0.0530
75808W        W18746  18.430  22.225  18.497  0.1615 -0.5833  0.3277
75809W        W18747  16.507  18.826  14.600  0.2050  0.1989  0.1556
75810W        W18748  17.704  21.781  16.856  0.0683 -0.2631  0.2437
75811W        W18749  19.537  20.263  15.650  0.0277 -0.0598 -0.0555
75812W        W18750  17.850  21.898  17.306 -0.1720  0.1119  0.5028
75813W        W18751  16.289  19.847  17.283 -0.1485  0.2700  0.0069
75814W        W18752  15.908  19.605  15.057  0.1245 -0.0514  0.3216
75815W        W18753  14.461  19.894  17.426 -0.1650 -0.1380 -0.0540
75816W        W18754  19.042  19.727  17.615 -0.0709  0.0489  0.1839
75817W        W18755  15.632  21.971  18.428 -0.0075  0.0127 -0.1139
75818W        W18756  18.503  21.999  16.548  0.0017  0.0367  0.2722
75819W        W18757  14.398  18.785  15.296 -0.0835  0.0515  0.1035
75820W        W18758  15.830  20.544  16.521 -0.1632 -0.4775  0.2193
75821W        W18759  18.980  20.562  16.428  0.1304  0.3300  0.1470
75822W        W18760  16.496  21.221  14.960  0.1856  0.1777 -0.1174
75823W        W18761  16.479  19.338  15.737 -0.3686 -0.3619 -0.1690
75824W        W18762  14.122  22.127  16.799  0.1994  0.2058 -0.0769
75825W        W18763  16.002  19.884  17.681 -0.0942 -0.1438  0.2666
75826W        W18764  13.862  21.560  17.478  0.1556 -0.0421  0.1209
75827W        W18765  15.552  19.707  15.449  0.2248  0.2301  0.3243
75828W        W18766  19.513  19.791  15.716 -0.2731  0.0831 -0.0242
75829W        W18767  15.664  20.073  16.686  0.0401 -0.2676 -0.0951
75830W        W18768  17.951  19.886  16.231 -0.1592  0.2642  0.1131
75831W        W18769  14.685  20.347  15.887  0.0507  0.5141 -0.0657
75832W        W18770  18.958  20.066  16.412  0.1913  0.3071 -0.1200
75833W        W18771  16.313  20.352  17.897 -0.4004  0.4017  0.0171
75834W        W18772  14.559  20.632  16.650 -0.2077 -0.3605  0.1580
75835W        W18773  15.935  20.069  14.761  0.3519 -0.1676 -0.4382
75836W        W18774  18.561  20.516  17.611  0.0306  0.2340  0.1672
75837W        W18775  16.786  20.952  15.258 -0.0133 -0.1418 -0.1945
75838W        W18776  17.456  22.387  18.300  0.0283 -0.0005  0.2194
75839W        W18777  13.484  19.170  16.870 -0.2256  0.2794 -0.0606
75840W        W18778  15.627  19.190  14.630  0.0184 -0.1446 -0.1166
75841W        W18779  13.915  20.369  16.230  0.1596 -0.0353 -0.1242
75842W        W18780  15.466  21.365  16.854  0.1623  0.0379 -0.0746
75843W        W18781  17.868  23.302  18.138 -0.2988  0.0030  0.2581
75844W        W18782  14.045  18.892  15.718  0.1128  0.0328  0.1188
75845W        W18783  18.165  21.684  15.800 -0.0552 -0.1865 -0.0151
75846W        W18784  18.239  20.126  15.554 -0.2297  0.2014  0.1563
75847W        W18785  16.110  21.171  15.383  0.1143 -0.2233 -0.1156
75848W        W18786  17.766  22.466  16.542 -0.3221 -0.0260  0.0093
75849W        W18787  17.501  24.752  16.477  0.0531  0.0010 -0.0174
75850W        W18788  13.105  18.946  18.112 -0.0422 -0.0108  0.0204
75851W        W18789  16.316  23.610  17.908  0.0088  0.0599  0.0816
75852W        W18790  18.880  22.040  18.325  0.0130  0.2337 -0.2366
75853W        W18791  16.701  19.536  15.100 -0.1934 -0.0876 -0.1844
75854W        W18792  16.452  21.242  17.202 -0.1440 -0.0155 -0.0029
75855W        W18793  14.314  22.889  17.249 -0.0997 -0.0760  0.1124
75856W        W18794  17.861  20.299  15.964  0.1890  0.0083 -0.0621
75857W        W18795  17.483  19.727  16.347 -0.0487  0.1323 -0.2033
75858W        W18796  14.552  20.741  14.984  0.0064 -0.0520 -0.0161
75859W        W18797  16.734  19.572  17.428 -0.1552 -0.1523 -0.1142
75860W        W18798  16.708  23.227  16.595 -0.0880 -0.3342 -0.1512
75861W        W18799  16.615  23.542  19.253  0.0078 -0.0437  0.1008
75862W        W18800  15.444  20.050  14.673 -0.1152 -0.4027  0.3294
75863W        W18801  16.097  20.343  17.397  0.2775 -0.0636  0.2640
75864W        W18802  15.990  21.189  16.920  0.0680 -0.0373 -0.0590
75865W        W18803  15.757  21.074  16.452  0.0862  0.0770  0.1470
75866W        W18804  17.408  21.183  17.143 -0.2075  0.0005 -0.0908
75867W        W18805  17.333  20.433  15.735 -0.2104  0.0386 -0.0322
75868W        W18806  18.659  23.402  18.037 -0.1247 -0.0979  0.1516
75869W        W18807  14.970  19.880  15.782  0.6712 -0.0522 -0.2074
75870W        W18808  18.878  18.674  15.433 -0.0564  0.0728  0.3205
75871W        W18809  18.709  19.145  15.620  0.1323  0.3655  0.0828
75872W        W18810  16.048  21.007  18.144 -0.0751  0.0650 -0.3195
75873W        W18811  13.348  19.887  15.219  0.0814 -0.1687  0.0718
75874W        W18812  15.208  21.410  15.117  0.0043  0.3318  0.1199
75875W        W18813  15.446  20.569  15.471 -0.0963 -0.2588 -0.0454
75876W        W18814  15.365  18.144  15.681 -0.0351 -0.3555 -0.0453
75877W        W18815  16.272  20.718  16.771  0.0019  0.0907  0.2572
75878W        W18816  14.319  20.957  15.390  0.1457 -0.3911 -0.2578
75879W        W18817  13.148  19.232  15.698 -0.2676  0.2515  0.0305
75880W        W18818  18.268  22.510  16.364 -0.4319 -0.1364 -0.2968
75881W        W18819  13.413  18.346  16.235  0.0879  0.2121  0.1575
75882W        W18820  12.005  20.545  17.570 -0.0689  0.2339 -0.0326
75883W        W18821  17.162  21.092  15.540 -0.0701  0.1652 -0.0826
75884W        W18822  16.894  22.516  17.036  0.1119 -0.3790 -0.0447
75885W        W18823  15.172  19.404  15.923 -0.1987  0.1278 -0.0055
75886W        W18824  19.734  23.701  19.468  0.0108 -0.0270  0.2181
75887W        W18825  13.793  20.724  15.366 -0.1290 -0.0478  0.1019
75888W        W18826  15.477  21.331  17.374  0.0286 -0.3680  0.0001
75889W        W18827  16.320  18.884  16.321  0.0425  0.0814  0.0239
75890W        W18828  14.360  19.520  14.595 -0.0288  0.0118  0.0366
75891W        W18829  14.368  21.522  16.203  0.1065 -0.2042 -0.0605
75892W        W18830  15.999  22.781  16.923  0.1681  0.1668 -0.2471
75893W        W18831  17.201  20.650  15.241 -0.3396 -0.0100 -0.0141
75894W        W18832  15.088  21.230  18.317  0.3877  0.2239 -0.0865
75895W        W18833  15.224  21.716  18.394  0.1806  0.0619  0.2022
75896W        W18834  13.751  19.411  16.552 -0.3089  0.1866 -0.1173
75897W        W18835  17.639  19.160  15.144  0.2151 -0.0109  0.1598
75898W        W18836  14.688  21.670  17.230  0.3743  0.0588  0.1953
75899W        W18837  18.685  21.990  15.989 -0.0175  0.0302  0.3574
75900W        W18838  18.369  17.303  16.604 -0.3721 -0.2028 -0.0518
75901W        W18839  17.153  19.472  15.977  0.1400  0.2438 -0.2241
75902W        W18840  13.463  18.821  16.535  0.1283  0.3380 -0.1178
75903W        W18841  13.973  21.948  19.435 -0.1248  0.1626 -0.0888
75904W        W18842  17.852  21.591  16.330  0.2291  0.0518  0.1684
75905W        W18843  14.712  18.274  16.542  0.1010 -0.0742 -0.0644
75906W        W18844  15.998  18.742  15.270  0.1166 -0.2274 -0.2364
75907W        W18845  17.226  21.741  16.183  0.1843  0.2704 -0.0412
75908W        W18846  15.331  20.164  17.045  0.1846 -0.2285  0.0739
75909W        W18847  16.035  19.711  16.395 -0.0652 -0.1409  0.1249
75910W        W18848  18.015  20.723  16.201 -0.0365 -0.4260  0.0862
75911W        W18849  16.889  22.073  16.438 -0.1221 -0.4998  0.2881
75912W        W18850  18.435  21.806  17.102 -0.1684 -0.1960 -0.4099
75913W        W18851  15.144  19.539  14.552  0.0108  0.2280  0.2889
75914W        W18852  16.749  19.070  14.251  0.3168 -0.1710 -0.3185
75915W        W18853  17.369  22.964  18.282  0.0219  0.0360  0.0567
75916W        W18854  18.880  22.462  18.621  0.1473 -0.0137 -0.3070
75917W        W18855  17.624  21.930  17.767 -0.3198 -0.1634  0.0356
75918W        W18856  17.575  20.909  15.815 -0.1884  0.1143 -0.0191
75919W        W18857  13.502  18.827  17.704 -0.1568  0.0334  0.1203
75920W        W18858  14.935  20.634  16.338  0.2515  0.0041  0.0155
75921W        W18859  15.726  20.968  15.779  0.2831 -0.1227  0.2997
75922W        W18860  19.242  21.047  17.353  0.0309  0.1955 -0.0203
75923W        W18861  16.111  20.734  16.046  0.2903 -0.0269 -0.4093
75924W        W18862  16.097  17.954  15.372 -0.0755 -0.1391  0.1143
75925W        W18863  16.497  23.867  17.459  0.0653  0.0903  0.1377
75926W        W18864  16.813  21.354  16.831  0.0066 -0.1521  0.3932
75927W        W18865  15.247  21.914  20.460 -0.1034  0.1144 -0.1522
75928W        W18866  16.311  19.486  16.848  0.0630 -0.2608  0.1025
75929W        W18867  16.483  19.896  16.579  0.0456  0.0310  0.2065
75930W        W18868  18.268  21.289  18.899  0.3138 -0.2733 -0.0693
75931W        W18869  14.224  20.092  17.886  0.0089  0.2720  0.0486
75932W        W18870  17.443  23.579  20.258 -0.0270  0.0486  0.1128
75933W        W18871  17.953  23.137  20.324  0.2145 -0.0334  0.2254
75934W        W18872  17.811  22.002  20.704 -0.0968 -0.0267  0.1113
75935W        W18873  17.767  21.080  18.148  0.2740 -0.3211 -0.1938
75936W        W18874  15.922  20.935  19.815  0.3590 -0.1211 -0.1045
75937W        W18875  14.360  18.684  16.604  0.3081  0.2268  0.1248
75938W        W18876  12.993  17.817  18.954  0.0562  0.0637  0.1071
75939W        W18877  18.258  21.684  17.534  0.0907  0.0478  0.0425
75940W        W18878  15.535  22.425  18.831 -0.0851  0.2692  0.2918
75941W        W18879  15.048  20.083  19.204 -0.0242  0.1066  0.0139
75942W        W18880  15.806  20.650  18.413 -0.2412  0.3025  0.1286
75943W        W18881  15.513  23.312  20.630  0.3526  0.2126  0.2806
75944W        W18882  15.093  20.732  18.263  0.1647 -0.4099  0.0199
75945W        W18883  16.002  19.676  18.168  0.0091  0.0263 -0.0628
75946W        W18884  13.789  20.366  20.879  0.2246 -0.1045  0.2515
75947W        W18885  14.630  20.275  18.872  0.0457  0.1580 -0.0678
75948W        W18886  16.846  19.374  17.881 -0.0787  0.1968  0.0753
75949W        W18887  17.537  20.657  18.407  0.0075 -0.1082  0.2059
75950W        W18888  16.073  23.717  18.525  0.1317 -0.1861 -0.0867
75951W        W18889  15.938  22.889  19.591  0.0571 -0.0839 -0.1772
75952W        W18890  13.121  20.679  19.670 -0.1134 -0.1379  0.1906
75953W        W18891  14.944  22.511  19.018 -0.0405 -0.3731 -0.0425
75954W        W18892  16.611  22.214  18.128  0.1935 -0.0539 -0.2886
75955W        W18893  19.090  21.241  19.435 -0.0937  0.0446  0.0162
75956W        W18894  16.729  22.399  20.074 -0.0846 -0.3395  0.0708
75957W        W18895  14.851  22.682  21.041 -0.0014 -0.0541 -0.0430
75958W        W18896  13.811  21.491  20.190 -0.1743  0.1008  0.1612
75959W        W18897  16.314  22.274  20.261 -0.1547 -0.0826  0.0824
75960W        W18898  14.622  22.484  22.028  0.0964 -0.1870  0.2939
75961W        W18899  15.844  21.435  18.364  0.0489 -0.0460  0.1355
75962W        W18900  15.985  22.695  18.147 -0.1877 -0.0543  0.2739
75963W        W18901  14.723  21.987  18.195 -0.2347 -0.1075  0.2701
75964W        W18902  16.116  21.573  19.600  0.1742  0.1420  0.0137
75965W        W18903  15.451  22.441  20.245 -0.0520 -0.1142 -0.0736
75966W        W18904  17.821  18.553  18.986  0.0091  0.1480 -0.1522
75967W        W18905  13.679  22.945  19.167  0.0898  0.1625  0.0480
75968W        W18906  18.160  21.020  17.576  0.1094  0.1069  0.1999
75969W        W18907  16.239  18.389  16.555  0.1806  0.1396  0.2638
75970W        W18908  17.648  20.568  17.847  0.1599 -0.1757 -0.0503
75971W        W18909  14.380  17.763  17.409  0.1730 -0.2966  0.1753
75972W        W18910  14.941  22.974  20.579 -0.0414 -0.2929 -0.2182
75973W        W18911  15.538  19.376  17.856  0.3003  0.1886 -0.0108
75974W        W18912  18.480  21.539  20.071  0.3494 -0.2881  0.1917
75975W        W18913  16.280  21.417  17.964  0.3156 -0.0277 -0.1957
75976W        W18914  15.651  20.866  19.290 -0.0241  0.1369 -0.1019
75977W        W18915  15.312  21.850  20.936 -0.2136 -0.1594 -0.2000
75978W        W18916  14.079  19.621  19.735  0.0919  0.1508 -0.3129
75979W        W18917  17.927  21.460  18.447  0.1613  0.2000 -0.2207
75980W        W18918  18.588  21.802  20.748  0.2208 -0.0460 -0.1529
75981W        W18919  16.959  21.347  17.268  0.0363  0.0512  0.0173
75982W        W18920  14.494  20.853  19.722  0.0071 -0.3434 -0.4251
75983W        W18921  12.304  22.608  21.520  0.2130 -0.2437  0.2257
75984W        W18922  14.263  19.666  16.972 -0.1699  0.0946 -0.1840
75985W        W18923  17.265  21.997  19.393 -0.2483  0.1524  0.0752
75986W        W18924  13.595  21.279  21.806  0.0769  0.1550 -0.0395
75987W        W18925  17.752  19.545  17.501 -0.3923  0.2820  0.0429
75988W        W18926  15.350  22.492  19.293 -0.0747  0.0727 -0.0119
75989W        W18927  17.314  21.706  19.856  0.1764  0.2310 -0.0452
75990W        W18928  16.998  21.302  17.832  0.1490  0.0724 -0.0205
75991W        W18929  17.611  18.871  18.165 -0.1670  0.0878  0.0220
75992W        W18930  14.974  20.626  17.815  0.0001  0.1865 -0.1401
75993W        W18931  13.621  20.874  17.911  0.0697 -0.1165 -0.0463
75994W        W18932  18.825  22.178  21.822  0.1038 -0.1020 -0.1529
75995W        W18933  17.153  20.280  17.088 -0.0479  0.1611  0.1860
75996W        W18934  14.337  22.748  20.184  0.3181 -0.0541  0.5536
75997W        W18935  17.017  22.076  21.002 -0.2245 -0.0920  0.0634
75998W        W18936  15.574  23.129  17.725 -0.2273  0.0228 -0.0892
75999W        W18937  14.539  21.030  18.490 -0.1411  0.1554  0.0539
76000W        W18938  12.745  20.810  19.189  0.1130 -0.4217 -0.1199
76001W        W18939  13.313  19.806  20.011  0.0482  0.0139  0.1353
76002W        W18940  15.382  21.883  19.549 -0.2278 -0.3762  0.3057
76003W        W18941  17.957  19.051  17.433  0.0622  0.3477 -0.1419
76004W        W18942  13.957  20.045  19.466  0.2654  0.1716 -0.0792
76005W        W18943  18.914  19.095  17.020 -0.0598 -0.1411 -0.1590
76006W        W18944  13.602  21.258  19.640 -0.0029 -0.0282 -0.0444
76007W        W18945  17.658  22.360  20.356 -0.1807 -0.1644  0.0072
76008W        W18946  18.287  20.824  18.694 -0.2249  0.0456  0.1406
76009W        W18947  18.285  23.350  18.474  0.1250  0.2509  0.2447
76010W        W18948  13.403  21.509  22.247  0.2379  0.3565  0.0592
76011W        W18949  15.485  21.866  18.952  0.0794 -0.2844 -0.0372
76012W        W18950  15.749  19.054  20.012  0.0187  0.1485 -0.0810
76013W        W18951  14.249  19.879  18.385 -0.2995  0.1577  0.0666
76014W        W18952  17.536  21.337  18.919 -0.0076 -0.0569  0.4804
76015W        W18953  13.241  21.258  19.254 -0.0458  0.1025 -0.1962
76016W        W18954  17.044  19.768  18.213  0.3362  0.2958 -0.1769
76017W        W18955  14.076  22.572  19.260 -0.0504 -0.0014 -0.1898
76018W        W18956  11.803  20.694  19.395  0.1216 -0.0769 -0.0248
76019W        W18957  18.323  19.104  20.069  0.0853 -0.0145 -0.1223
76020W        W18958  16.513  23.261  17.645 -0.1640  0.2372  0.3774
76021W        W18959  17.365  22.377  21.230  0.0014  0.2226 -0.1392
76022W        W18960  17.186  23.242  20.564 -0.0565  0.0388  0.0347
76023W        W18961  15.342  18.749  17.497 -0.0881  0.3952 -0.0489
76024W        W18962  15.808  23.780  19.578 -0.1098 -0.0290 -0.0775
76025W        W18963  14.917  22.096  19.278 -0.2779 -0.1391  0.2249
76026W        W18964  15.237  19.658  17.019  0.0118 -0.1579 -0.0915
76027W        W18965  18.262  22.228  20.897  0.0683 -0.1078  0.2088
76028W        W18966  15.180  21.083  17.809  0.0925 -0.1404  0.0142
76029W        W18967  14.406  21.685  20.702 -0.1927  0.0542 -0.3049
76030W        W18968  16.497  21.258  18.733 -0.0103  0.3177  0.1142
76031W        W18969  14.591  20.345  17.706  0.0468  0.0013  0.0996
76032W        W18970  17.508  22.871  20.443 -0.3524 -0.3100  0.1148
76033W        W18971  14.472  23.239  18.944 -0.0974 -0.0410 -0.0652
76034W        W18972  12.740  21.409  20.211  0.0979 -0.4199 -0.0622
76035W        W18973  17.006  22.108  18.967  0.1053 -0.0124 -0.2265
76036W        W18974  17.861  19.371  17.937 -0.1307  0.0608 -0.0191
76037W        W18975  17.559  19.863  19.796  0.0115 -0.3489  0.0371
76038W        W18976  14.693  21.404  16.723 -0.1164 -0.1272  0.3294
76039W        W18977  14.884  22.089  20.727  0.1764 -0.0324  0.1278
76040W        W18978  18.318  19.166  17.752 -0.4024  0.3465 -0.3801
76041W        W18979  18.129  20.214  16.827 -0.2510  0.1731  0.2018
76042W        W18980  17.174  20.656  17.986 -0.1293 -0.2963 -0.3150
76043W        W18981  16.737  22.694  17.559  0.1067 -0.0373  0.0833
76044W        W18982  12.358  17.527  18.536  0.2516 -0.0715 -0.2524
76045W        W18983  13.596  22.174  22.138 -0.2682  0.1334  0.3026
76046W        W18984  16.593  22.921  17.969 -0.0879  0.2765  0.0284
76047W        W18985  13.928  21.401  19.230 -0.2538 -0.0335  0.1206
76048W        W18986  17.787  21.016  18.633  0.1955  0.0250  0.2212
76049W        W18987  19.146  21.161  18.749  0.0184  0.2293  0.0531
76050W        W18988  14.189  22.353  19.710  0.1687 -0.1657  0.0928
76051W        W18989  17.481  22.444  19.580 -0.3555  0.0947  0.2976
76052W        W18990  16.240  20.221  16.913  0.1286  0.0508  0.0544
76053W        W18991  16.618  20.240  17.407 -0.3888  0.3031  0.2517
76054W        W18992  12.444  22.807  16.915 -0.0150 -0.0362  0.0592
76055W        W18993  17.937  20.266  18.196 -0.2380 -0.2812  0.0339
76056W        W18994  15.941  19.602  19.827 -0.1868  0.1328 -0.1109
76057W        W18995  17.426  18.615  19.356 -0.2837 -0.2125  0.2602
76058W        W18996  17.343  19.846  17.264 -0.1792 -0.3240  0.0089
76059W        W18997  16.600  21.716  18.893 -0.0658 -0.1799  0.0892
76060W        W18998  13.587  20.630  17.366  0.0684  0.0423  0.2365
76061W        W18999  14.671  21.881  20.320 -0.1549 -0.0582  0.0113
76062W        W19000  17.200  22.760  20.115  0.1694  0.3405 -0.1194
76063W        W19001  17.144  22.035  18.098  0.1929  0.0606 -0.2003
76064W        W19002  16.627  18.392  17.771 -0.1799 -0.2609 -0.0851
76065W        W19003  15.603  23.634  19.127 -0.0962 -0.0505 -0.1657
76066W        W19004  14.066  19.679  17.559  0.3691  0.0939 -0.0637
76067W        W19005  15.638  21.373  19.613  0.0364 -0.0950 -0.0731
76068W        W19006  13.260  21.273  17.922 -0.1254  0.2078  0.0935
76069W        W19007  14.307  22.989  19.324 -0.0035  0.1589  0.1036
76070W        W19008  19.037  17.939  17.739  0.1455 -0.1467  0.1752
76071W        W19009  15.131  22.061  20.006  0.0318  0.0785 -0.1173
76072W        W19010  15.662  19.547  16.106  0.1206  0.2267 -0.0542
76073W        W19011  12.730  20.231  18.603 -0.2277 -0.0584  0.1762
76074W        W19012  16.127  19.446  17.776 -0.3715  0.1183 -0.1203
76075W        W19013  18.512  21.789  19.210 -0.1272 -0.1397  0.2321
76076W        W19014  14.319  19.453  18.782  0.0866 -0.1873 -0.1787
76077W        W19015  16.015  18.565  17.518 -0.0855 -0.0532  0.2498
76078W        W19016  13.946  23.217  21.316 -0.0404  0.3588  0.3857
76079W        W19017  18.372  19.833  15.888  0.1944  0.0435  0.0614
76080W        W19018  16.391  22.768  20.301  0.0350  0.0441 -0.3298
76081W        W19019  16.587  21.569  20.758  0.3159 -0.2176 -0.1154
76082W        W19020  13.729  19.257  17.873 -0.1579 -0.1522 -0.0308
76083W        W19021  16.353  21.655  18.393 -0.0598  0.3704  0.1478
76084W        W19022  14.645  22.323  20.067 -0.2838 -0.0170  0.1491
76085W        W19023  16.229  22.029  19.130  0.1868 -0.2026 -0.0167
76086W        W19024  14.262  20.421  18.597  0.1128 -0.0586  0.0544
76087W        W19025  13.664  22.441  19.500  0.0750 -0.1425  0.0031
76088W        W19026  17.368  20.210  18.191 -0.2655  0.2055  0.0292
76089W        W19027  15.021  21.357  17.101 -0.0448 -0.0176  0.3123
76090W        W19028  17.111  21.532  20.571  0.0780  0.0820 -0.1875
76091W        W19029  15.800  19.578  19.168  0.0549  0.1081 -0.4412
76092W        W19030  13.574  21.585  21.129  0.1808  0.0797 -0.0559
76093W        W19031  16.578  18.192  16.878 -0.3262  0.0413  0.1453
76094W        W19032  18.682  21.463  19.632  0.3043  0.0584  0.2067
76095W        W19033  17.819  20.567  19.338  0.1343  0.0163  0.2664
76096W        W19034  13.871  21.080  17.134 -0.0661  0.4549 -0.2301
76097W        W19035  14.076  20.957  20.138 -0.2877  0.0265 -0.0882
76098W        W19036  14.147  22.220  18.133  0.1103  0.4269  0.2036
76099W        W19037  15.322  22.907  18.927  0.1074  0.2146 -0.1857
76100W        W19038  12.663  21.909  20.669 -0.1718  0.2720  0.2408
76101W        W19039  15.337  22.360  20.760  0.1649 -0.3021 -0.2292
76102W        W19040  18.251  19.698  16.846  0.1790 -0.0151  0.0502
76103W        W19041  14.950  21.220  18.859  0.3071  0.2460  0.5497
76104W        W19042  16.288  18.998  17.457 -0.0812 -0.0611 -0.1654
76105W        W19043  17.639  19.782  17.977 -0.1429  0.3882 -0.0760
76106W        W19044  18.489  21.777  18.704  0.1166  0.2063  0.1312
76107W        W19045  17.162  19.356  20.000  0.1672 -0.1188  0.0677
76108W        W19046  14.676  17.557  18.364  0.0419  0.0722 -0.1885
76109W        W19047  18.221  22.442  20.352  0.4152  0.1187 -0.1849
76110W        W19048  14.799  18.756  19.812  0.0024 -0.1125  0.0787
76111W        W19049  16.691  22.096  21.922  0.2456  0.0322  0.0792
76112W        W19050  14.563  20.917  19.046  0.1475 -0.3131  0.1393
76113W        W19051  15.898  20.198  18.106 -0.1766 -0.2664 -0.1350
76114W        W19052  16.071  19.342  16.035  0.4279  0.0353  0.3082
76115W        W19053  15.987  22.317  18.755  0.0474 -0.0046  0.3462
76116W        W19054  16.963  21.281  18.655 -0.1541  0.1872 -0.0025
76117W        W19055  16.932  21.769  18.502 -0.2195 -0.3313 -0.1292
76118W        W19056  17.495  20.531  17.367  0.0616  0.1055 -0.1716
76119W        W19057  14.889  21.084  19.477 -0.2525  0.0242  0.1884
76120W        W19058  17.800  21.638  19.342 -0.0770  0.1187 -0.1980
76121W        W19059  16.250  20.790  18.589 -0.0784 -0.0538  0.2983
76122W        W19060  15.270  22.944  19.450 -0.1556 -0.1729 -0.1001
76123W        W19061  17.787  21.147  19.574 -0.0906 -0.1260 -0.0434
76124W        W19062  16.477  19.816  17.869 -0.2475 -0.0709 -0.3247
76125W        W19063  17.514  19.802  18.471 -0.2210 -0.1087  0.0392
76126W        W19064  15.135  21.428  19.840 -0.0500 -0.3246 -0.3505
76127W        W19065  15.064  19.074  19.506  0.3973  0.1404 -0.1447
76128W        W19066  17.441  21.887  20.296 -0.0797  0.1544 -0.1633
76129W        W19067  18.908  20.671  16.980 -0.2359  0.3594  0.0223
76130W        W19068  18.289  20.662  19.182  0.2786  0.1451  0.1523
76131W        W19069  19.072  20.338  19.014 -0.0349  0.1445  0.2374
76132W        W19070  18.294  21.226  18.197  0.2429 -0.5209 -0.5367
76133W        W19071  15.432  20.566  17.933  0.1857  0.0439  0.2991
76134W        W19072  15.332  18.271  16.737  0.0649 -0.2122 -0.1014
76135W        W19073  17.096  20.103  20.067 -0.2152  0.0749  0.1138
76136W        W19074  13.710  21.416  18.832  0.3814  0.0755 -0.0290
76137W        W19075  16.706  22.854  19.132 -0.0155  0.4835 -0.1505
76138W        W19076  17.084  20.365  17.608  0.1783  0.0079 -0.0731
76139W        W19077  12.938  18.954  19.622  0.3220 -0.0600  0.1204
76140W        W19078  14.447  22.676  22.451  0.0105  0.1072  0.2450
76141W        W19079  13.861  19.798  16.750  0.0563 -0.1112  0.1467
76142W        W19080  15.888  21.072  18.687 -0.0021 -0.1047 -0.0783
76143W        W19081  19.067  21.979  20.821  0.0031 -0.1510 -0.0003
76144W        W19082  16.065  17.069  16.523 -0.1350  0.2398 -0.2676
76145W        W19083  14.003  21.823  18.954 -0.0535 -0.0034  0.0066
76146W        W19084  17.162  19.273  17.299  0.2716 -0.0403 -0.0781
76147W        W19085  13.949  23.197  20.188 -0.0714 -0.0970  0.0577
76148W        W19086  13.688  22.051  20.901  0.1979  0.1397 -0.1137
76149W        W19087  15.913  22.473  19.950  0.1889 -0.0028  0.0599
76150W        W19088  16.713  19.551  19.284 -0.3520  0.0855  0.0072
76151W        W19089  17.626  20.094  17.608  0.1087  0.1590 -0.3238
76152W        W19090  15.889  23.182  18.964  0.0084  0.0472  0.2123
76153W        W19091  16.982  20.662  19.184  0.1160 -0.0482  0.2485
76154W        W19092  15.319  21.410  19.217 -0.0175 -0.1178 -0.0679
76155W        W19093  16.967  23.716  20.458  0.0235  0.1941 -0.1502
76156W        W19094  19.197  20.819  19.217  0.2152 -0.0370  0.1030
76157W        W19095  14.694  22.117  18.828  0.0784 -0.2211  0.1905
76158W        W19096  12.358  20.435  20.649 -0.1305 -0.0586  0.1277
76159W        W19097  16.799  19.712  20.133  0.1165 -0.0480 -0.1040
76160W        W19098  17.109  20.370  18.764 -0.0418 -0.0438  0.2640
76161W        W19099  15.389  18.468  16.193  0.1835  0.0951 -0.4264
76162W        W19100  15.466  21.496  17.838  0.0920  0.1358 -0.2629
76163W        W19101  14.502  22.154  24.332  0.2385 -0.0148  0.2124
76164W        W19102  13.035  20.920  20.477 -0.0505 -0.0238 -0.3656
76165W        W19103  15.481  21.361  18.695 -0.1021 -0.1092 -0.2333
76166W        W19104  15.964  21.747  18.726 -0.3066 -0.4173  0.0929
76167W        W19105  17.193  21.073  18.309 -0.0495 -0.0497 -0.3299
76168W        W19106  17.691  22.817  21.252 -0.2006 -0.2340  0.2935
76169W        W19107  16.753  20.793  17.719 -0.1965  0.1392  0.2358
76170W        W19108  13.385  23.219  20.217  0.1934  0.1149 -0.0111
76171W        W19109  13.526  22.708  18.543  0.0787 -0.0786  0.1210
76172W        W19110  18.055  22.507  18.254 -0.0954 -0.0430 -0.0598
76173W        W19111  14.489  22.473  20.607  0.1058  0.0727  0.1804
76174W        W19112  19.250  22.888  20.230 -0.1856 -0.0575  0.3129
76175W        W19113  16.300  21.024  17.653  0.1491  0.1714 -0.0458
76176W        W19114  17.767  19.823  16.802  0.2657  0.0842 -0.1225
76177W        W19115  19.216  19.506  18.019  0.0570 -0.0006  0.2200
76178W        W19116  15.882  22.103  19.515 -0.5034  0.0268 -0.1182
76179W        W19117  14.949  21.696  18.824  0.0304  0.1224  0.2065
76180W        W19118  14.488  20.851  17.586 -0.5171 -0.2272  0.1545
76181W        W19119  14.959  22.502  19.651 -0.1830 -0.2302  0.3278
76182W        W19120  17.614  18.087  20.096  0.0115 -0.0717  0.1961
76183W        W19121  13.300  23.849  22.878 -0.3563  0.1686 -0.0301
76184W        W19122  17.155  23.991  20.073  0.0553  0.1340  0.1265
76185W        W19123  14.738  20.052  18.420 -0.1679 -0.1435  0.0522
76186W        W19124  14.666  21.522  18.446  0.1028  0.0753 -0.1496
76187W        W19125  17.772  19.206  19.043 -0.2417  0.1314  0.3544
76188W        W19126  14.272  21.296  17.528  0.1962 -0.0029  0.1510
76189W        W19127  15.471  20.223  18.395 -0.0301 -0.1016 -0.0824
76190W        W19128  14.885  22.915  20.037 -0.3115  0.2356 -0.0573
76191W        W19129  14.828  21.813  21.329 -0.0606  0.2284  0.0334
76192W        W19130  16.385  22.052  19.712 -0.2041 -0.0943  0.0862
76193W        W19131  14.257  18.747  17.226 -0.0547 -0.1001  0.3758
76194W        W19132  17.902  19.376  17.024 -0.2573 -0.0311 -0.0404
76195W        W19133  14.731  19.444  18.591  0.0858  0.3376  0.0577
76196W        W19134  18.415  19.671  16.344 -0.1915 -0.0505  0.0101
76197W        W19135  15.553  21.004  18.164 -0.2746 -0.0195 -0.3066
76198W        W19136  13.588  19.814  19.091  0.0208  0.0539 -0.1057
76199W        W19137  17.971  19.975  17.264  0.1923 -0.1901 -0.1100
76200W        W19138  17.855  21.511  19.927  0.3608 -0.0994  0.1231
76201W        W19139  16.252  21.968  17.789  0.1231  0.0448 -0.2782
76202W        W19140  17.180  22.907  21.525  0.0138  0.0761 -0.2557
76203W        W19141  15.136  19.216  17.603  0.2914 -0.3333 -0.0125
76204W        W19142  17.086  18.825  17.374 -0.0608  0.3488  0.0695
76205W        W19143  14.286  21.933  18.525 -0.0057 -0.1140  0.0925
76206W        W19144  18.670  22.272  20.578  0.0213 -0.0719  0.0832
76207W        W19145  14.138  17.751  17.855  0.6478 -0.1953 -0.0322
76208W        W19146  17.962  22.356  18.751 -0.0691  0.1474  0.2343
76209W        W19147  17.900  21.025  19.097  0.1180  0.0612 -0.2527
76210W        W19148  16.908  23.551  17.546  0.0393 -0.0461 -0.1929
76211W        W19149  16.854  21.858  19.894 -0.1189  0.1436  0.1831
76212W        W19150  18.629  23.891  21.293  0.2061 -0.1165 -0.2862
76213W        W19151  16.286  22.543  19.376  0.0729 -0.3675 -0.1557
76214W        W19152  18.898  23.468  19.648  0.0462  0.1653 -0.2329
76215W        W19153  17.180  18.433  16.925  0.2263  0.1606 -0.2515
76216W        W19154  15.316  20.888  19.670 -0.1091  0.2619  0.0200
76217W        W19155  14.969  22.532  20.423 -0.3797  0.1118  0.1467
76218W        W19156  18.302  20.523  17.196 -0.2080  0.2074 -0.2133
76219W        W19157  18.550  19.963  18.720  0.2093  0.1670  0.2995
76220W        W19158  16.998  22.535  18.058  0.0186  0.2074 -0.2578
76221W        W19159  15.790  23.167  21.078  0.0034 -0.0527 -0.0041
76222W        W19160  14.359  22.681  21.072  0.0126  0.1294 -0.3002
76223W        W19161  13.772  20.738  18.491 -0.0524 -0.0242 -0.1310
76224W        W19162  14.429  21.916  19.311 -0.0160  0.0138 -0.0870
76225W        W19163  16.589  22.342  18.991  0.2600 -0.0197 -0.1313
76226W        W19164  18.467  22.971  20.663 -0.4292 -0.2309 -0.2140
76227W        W19165  16.402  22.089  18.622 -0.2666  0.1901 -0.1455
76228W        W19166  18.862  21.413  19.029  0.0434 -0.2669 -0.2396
76229W        W19167  15.427  19.755  17.449 -0.1970 -0.1421  0.0097
76230W        W19168  18.025  18.427  17.430 -0.2392 -0.1036  0.1851
76231W        W19169  17.555  17.723  16.817  0.2904 -0.3707 -0.3598
76232W        W19170  13.417  20.281  18.142  0.0068  0.1683 -0.0316
76233W        W19171  14.961  21.788  16.826  0.3592  0.3340 -0.0697
76234W        W19172  14.407  21.296  19.419  0.0598  0.0108 -0.1901
76235W        W19173  15.812  17.747  20.309  0.1973  0.0972  0.0629
76236W        W19174  13.865  19.684  18.688 -0.0073  0.0980  0.0019
76237W        W19175  13.714  20.297  19.112  0.1420 -0.1768  0.1651
76238W        W19176  15.460  19.219  17.156 -0.2431  0.2636 -0.1375
76239W        W19177  18.401  22.705  18.630 -0.1443  0.0351 -0.0072
76240W        W19178  12.948  18.321  18.421 -0.0438 -0.2578 -0.2170
76241W        W19179  17.141  21.649  18.989  0.1115 -0.0610 -0.2249
76242W        W19180  18.072  22.080  19.237  0.2296 -0.2936 -0.0847
76243W        W19181  15.572  17.906  17.142  0.0434 -0.0786 -0.0677
76244W        W19182  17.997  23.363  21.705  0.0402  0.0204  0.3344
76245W        W19183  13.977  20.015  17.213  0.1407  0.3025 -0.2095
76246W        W19184  14.532  19.166  17.212 -0.2630 -0.0158 -0.0849
76247W        W19185  15.387  20.832  18.704 -0.0550  0.3145  0.1458
76248W        W19186  17.377  23.000  19.539  0.1112  0.0397 -0.2051
76249W        W19187  16.690  21.718  18.026  0.0666  0.1346  0.0596
76250W        W19188  15.539  21.220  20.084  0.0559  0.1668 -0.2251
76251W        W19189  16.422  21.796  20.346 -0.1824 -0.4564  0.0552
76252W        W19190  14.573  18.524  17.831 -0.2799  0.2434  0.2096
76253W        W19191  16.700  20.396  16.870  0.0768  0.2770  0.0726
76254W        W19192  16.007  21.355  20.104 -0.0108 -0.3030 -0.0313
76255W        W19193  20.257  22.731  18.722  0.1195  0.2126 -0.1197
76256W        W19194  19.108  19.986  18.135 -0.2161  0.2862 -0.1345
76257W        W19195  16.003  20.405  18.798  0.1568  0.2290  0.0875
76258W        W19196  15.740  18.352  20.095  0.0824  0.0104 -0.4130
76259W        W19197  13.633  20.610  21.365  0.1838  0.0815  0.3539
76260W        W19198  17.312  21.429  19.420 -0.0881 -0.0068  0.2538
76261W        W19199  15.704  18.448  17.102  0.4456 -0.1491  0.2257
76262W        W19200  16.220  18.015  16.219  0.0702  0.1945  0.0421
76263W        W19201  16.602  21.618  17.489  0.0840 -0.0305 -0.0725
76264W        W19202  14.732  21.970  19.714 -0.3570  0.3352 -0.1165
76265W        W19203  16.788  20.325  18.101  0.1431 -0.3213 -0.1901
76266W        W19204  16.835  21.105  19.412  0.2007 -0.1484  0.1168
76267W        W19205  16.855  22.826  20.568  0.2175  0.3787  0.2381
76268W        W19206  15.160  20.129  17.877 -0.1829 -0.1155  0.5562
76269W        W19207  18.840  22.946  18.307  0.0432  0.3328 -0.1120
76270W        W19208  15.817  22.399  20.515  0.2715  0.1055  0.1406
76271W        W19209  17.553  22.022  18.962 -0.1356 -0.1112 -0.0277
76272W        W19210  16.392  21.306  19.298 -0.2573  0.0677 -0.1947
76273W        W19211  19.553  21.134  18.399  0.1351  0.0287  0.0883
76274W        W19212  14.188  21.373  18.487  0.1901  0.1076 -0.0370
76275W        W19213  14.951  21.604  18.012 -0.1121 -0.0767 -0.2430
76276W        W19214  17.268  20.919  18.809  0.1336 -0.2054 -0.0467
76277W        W19215  15.032  20.137  17.408  0.4154  0.1546  0.1945
76278W        W19216  15.723  16.970  16.926 -0.1869 -0.0142  0.0885
76279W        W19217  16.426  23.443  20.152  0.1374  0.1525 -0.0157
76280W        W19218  13.302  21.410  22.952 -0.1655 -0.3466 -0.3271
76281W        W19219  19.207  19.981  21.864 -0.2861  0.3532  0.1523
76282W        W19220  13.006  20.197  21.927 -0.2755  0.4894 -0.1435
76283W        W19221  17.074  22.155  21.605 -0.0299 -0.1549 -0.0111
76284W        W19222  17.977  21.679  22.076 -0.1837 -0.1677  0.2203
76285W        W19223  20.687  21.682  24.326  0.0264 -0.2394 -0.2015
76286W        W19224  17.390  20.907  19.350 -0.2060  0.0611  0.0394
76287W        W19225  14.111  21.826  23.086 -0.0957 -0.0527 -0.0208
76288W        W19226  16.232  17.503  20.135  0.0859 -0.0143 -0.2127
76289W        W19227  13.314  20.591  21.767  0.0249 -0.0558 -0.3843
76290W        W19228  16.615  22.450  22.444  0.3157  0.4037 -0.2054
76291W        W19229  16.532  18.960  21.646 -0.0890  0.1777  0.1429
76292W        W19230  15.498  22.441  21.236 -0.2077  0.1145  0.1990
76293W        W19231  13.414  19.826  23.351 -0.1452 -0.0684  0.2271
76294W        W19232  14.662  19.917  22.389 -0.0315  0.0613  0.2024
76295W        W19233  17.660  19.532  21.601  0.0057  0.3734  0.2309
76296W        W19234  16.124  23.013  23.107 -0.1867  0.0337 -0.0025
76297W        W19235  17.400  19.998  24.128 -0.0427 -0.0732  0.0467
76298W        W19236  13.220  20.557  23.593 -0.2104 -0.3044  0.0801
76299W        W19237  13.733  22.489  25.637  0.0699 -0.0387  0.5358
76300W        W19238  14.937  22.139  22.912  0.0846  0.1359  0.0465
76301W        W19239  18.348  22.178  25.192 -0.1566  0.0769 -0.1514
76302W        W19240  16.731  22.012  24.585 -0.0852 -0.1671 -0.0640
76303W        W19241  15.018  22.261  21.770 -0.1872 -0.0515 -0.1098
76304W        W19242  17.464  20.932  25.485  0.1513 -0.1645  0.2398
76305W        W19243  15.727  22.124  25.797  0.0670  0.1314  0.3551
76306W        W19244  16.915  20.776  21.691 -0.1540  0.3444  0.0528
76307W        W19245  14.382  23.450  23.517 -0.1102  0.0533 -0.2192
76308W        W19246  17.167  20.017  21.370 -0.1924 -0.0281  0.2462
76309W        W19247  14.593  21.080  26.095 -0.0003 -0.3068  0.2240
76310W        W19248  15.498  22.206  22.466  0.2870  0.2223 -0.2071
76311W        W19249  14.451  22.449  21.507  0.0218  0.1526 -0.1225
76312W        W19250  17.743  22.047  19.615  0.1491 -0.0008 -0.3021
76313W        W19251  14.892  21.592  19.382 -0.0815 -0.0518  0.2532
76314W        W19252  17.708  19.933  21.266 -0.0928  0.0433  0.0328
76315W        W19253  16.168  18.790  21.261  0.0152 -0.0133  0.2729
76316W        W19254  14.587  23.407  24.115 -0.1640 -0.1530 -0.0616
76317W        W19255  15.668  19.099  21.991  0.2501 -0.1369 -0.1698
76318W        W19256  17.535  21.085  23.842  0.2148 -0.2444 -0.5093
76319W        W19257  16.020  19.624  22.188 -0.0012 -0.2357 -0.1315
76320W        W19258  14.313  20.441  23.835  0.1506 -0.1961 -0.0451
76321W        W19259  14.268  21.132  20.974  0.0724  0.1122 -0.4013
76322W        W19260  17.372  22.537  21.842 -0.1473 -0.1273 -0.2298
76323W        W19261  17.858  21.698  23.811 -0.1822 -0.2240  0.2318
76324W        W19262  16.042  21.908  19.967 -0.3959  0.2682  0.3607
76325W        W19263  15.363  18.772  19.811 -0.0354  0.0048 -0.3232
76326W        W19264  14.351  21.405  23.739 -0.1000  0.3220  0.0102
76327W        W19265  17.992  19.096  21.548  0.2203  0.2024  0.1776
76328W        W19266  17.555  21.778  24.741  0.0739 -0.0081 -0.2517
76329W        W19267  17.528  21.994  21.610  0.3083 -0.2114 -0.0460
76330W        W19268  16.619  18.808  21.010 -0.0060 -0.1051  0.0845
76331W        W19269  18.693  20.479  23.828  0.1542  0.1724  0.2988
76332W        W19270  18.991  20.476  19.938 -0.2052 -0.0566 -0.0055
76333W        W19271  14.389  21.865  23.514 -0.0901  0.0393 -0.1283
76334W        W19272  16.075  19.667  22.809 -0.0004  0.0727  0.1100
76335W        W19273  13.615  22.644  22.824  0.1468  0.1028  0.0665
76336W        W19274  13.550  22.328  24.624 -0.2909 -0.0159 -0.3658
76337W        W19275  16.285  22.007  22.226 -0.2890 -0.0857  0.1241
76338W        W19276  17.509  18.117  21.196 -0.4270  0.0737 -0.0584
76339W        W19277  19.551  22.596  22.805  0.0006  0.1223 -0.1001
76340W        W19278  18.173  19.552  21.486 -0.0586 -0.1641  0.4204
76341W        W19279  16.452  20.724  21.222  0.0712  0.4531 -0.0204
76342W        W19280  13.853  19.904  21.985  0.1378  0.3530 -0.0391
76343W        W19281  17.641  20.192  23.175 -0.1173 -0.0053 -0.0455
76344W        W19282  14.103  18.229  20.254 -0.0023  0.4585  0.0773
76345W        W19283  16.713  20.355  21.478  0.2209  0.0732 -0.1335
76346W        W19284  16.391  22.563  21.669 -0.0529 -0.0535 -0.0835
76347W        W19285  19.924  21.214  25.916  0.2236 -0.0771 -0.0839
76348W        W19286  16.072  23.052  22.397  0.0928 -0.1459  0.0770
76349W        W19287  14.901  20.289  24.584  0.1292 -0.2145  0.0704
76350W        W19288  14.277  22.532  24.569 -0.0385  0.1762  0.0855
76351W        W19289  18.713  21.489  24.743  0.2448  0.1112  0.1983
76352W        W19290  17.411  20.579  23.892  0.2090 -0.5237  0.1963
76353W        W19291  19.664  20.834  23.705 -0.2540  0.2793  0.3064
76354W        W19292  17.144  20.806  20.710  0.0088  0.0946 -0.2076
76355W        W19293  13.940  20.601  20.425  0.0012  0.0272 -0.1865
76356W        W19294  17.980  21.861  23.283  0.1049 -0.4884  0.0631
76357W        W19295  14.572  23.068  23.277 -0.0246 -0.3772  0.0388
76358W        W19296  13.863  20.386  21.892  0.0666 -0.2056 -0.2698
76359W        W19297  17.819  20.419  23.580 -0.1552  0.1665 -0.2987
76360W        W19298  14.083  21.566  21.690 -0.2727  0.0058 -0.2283
76361W        W19299  15.743  21.360  24.056 -0.4164 -0.1715  0.0777
76362W        W19300  17.873  18.849  19.377  0.0083 -0.1452  0.0394
76363W        W19301  17.262  20.739  26.632 -0.0036  0.1853 -0.0658
76364W        W19302  19.130  21.032  20.373 -0.2574 -0.0833  0.0161
76365W        W19303  17.014  19.752  19.716  0.0709 -0.1258  0.1933
76366W        W19304  15.951  21.217  24.531  0.1752 -0.1571 -0.0100
76367W        W19305  15.759  22.066  21.029  0.1502 -0.0091 -0.1052
76368W        W19306  16.330  21.782  22.931  0.1548  0.0077 -0.2173
76369W        W19307  17.434  18.975  19.719  0.0887 -0.0140  0.3786
76370W        W19308  18.069  21.929  21.654 -0.3193  0.1253 -0.0979
76371W        W19309  17.896  20.848  24.821  0.1902 -0.0355  0.0129
76372W        W19310  17.167  22.180  22.622  0.2051  0.1740  0.5146
76373W        W19311  16.999  19.554  20.656 -0.0611  0.0693  0.1394
76374W        W19312  14.293  23.620  22.377 -0.0609 -0.1832 -0.0516
76375W        W19313  17.477  18.605  21.079 -0.1712  0.0452  0.0659
76376W        W19314  17.543  18.997  21.840 -0.0716  0.2924  0.2854
76377W        W19315  17.270  20.238  19.592  0.1473  0.4077  0.5354
76378W        W19316  15.531  21.724  20.082 -0.0018 -0.0961  0.0601
76379W        W19317  16.795  19.974  23.620 -0.1498  0.1179 -0.0917
76380W        W19318  13.836  20.706  23.720  0.1661 -0.0568  0.0447
76381W        W19319  13.705  21.322  22.630  0.2282 -0.2378  0.2169
76382W        W19320  14.846  22.711  21.593 -0.0141 -0.2326 -0.2653
76383W        W19321  15.337  18.219  22.246  0.1951 -0.2410  0.0735
76384W        W19322  15.203  21.763  22.531 -0.0705 -0.1031  0.1656
76385W        W19323  16.575  23.069  21.681 -0.2403 -0.2194 -0.0024
76386W        W19324  17.607  22.263  23.878 -0.3351 -0.3245  0.5505
76387W        W19325  13.577  20.814  23.260  0.2678 -0.2511  0.0406
76388W        W19326  14.709  19.029  20.214  0.2146  0.3126  0.0954
76389W        W19327  13.142  20.965  22.689  0.2253 -0.1352 -0.0755
76390W        W19328  17.824  19.441  21.115  0.0550  0.1242  0.1117
76391W        W19329  18.719  22.152  21.169 -0.0407  0.3600  0.0183
76392W        W19330  14.449  19.174  23.936 -0.0022 -0.0433 -0.1484
76393W        W19331  16.792  19.163  20.423  0.4063 -0.3454  0.3432
76394W        W19332  15.707  21.821  24.305  0.0748  0.1200 -0.0973
76395W        W19333  18.811  20.964  24.081  0.1208 -0.2508  0.2551
76396W        W19334  17.481  19.792  20.340  0.0538  0.4074  0.1418
76397W        W19335  18.181  22.179  23.577  0.3904 -0.2303  0.3781
76398W        W19336  14.135  21.703  24.618 -0.0872  0.0167 -0.0981
76399W        W19337  13.079  19.891  22.399  0.1955  0.1544 -0.0263
76400W        W19338  17.246  19.741  23.704  0.1745  0.1620  0.1387
76401W        W19339  15.910  18.458  22.167  0.0027 -0.0918 -0.2753
76402W        W19340  14.194  22.517  24.055 -0.1859  0.2276  0.2170
76403W        W19341  15.793  22.777  24.553 -0.1139 -0.5137  0.3626
76404W        W19342  14.305  20.635  20.782 -0.1024 -0.0002 -0.2023
76405W        W19343  15.539  19.642  22.092  0.0338  0.1159 -0.0152
76406W        W19344  17.213  22.073  23.139 -0.1607 -0.5703 -0.0566
76407W        W19345  14.973  18.399  21.707 -0.1183  0.0578  0.1367
76408W        W19346  17.323  21.595  23.264  0.1127  0.1180  0.0463
76409W        W19347  15.573  21.508  25.742  0.2021 -0.0073 -0.2217
76410W        W19348  18.665  23.190  23.514 -0.2314 -0.0270  0.4899
76411W        W19349  16.174  22.118  20.736  0.2048  0.4118  0.1900
76412W        W19350  13.899  20.328  22.439 -0.0034 -0.0581 -0.2087
76413W        W19351  14.771  23.263  21.722  0.0319  0.0373  0.1530
76414W        W19352  15.286  21.702  23.976 -0.0238 -0.2087  0.1196
76415W        W19353  16.445  21.245  20.369  0.1019 -0.3105  0.1225
76416W        W19354  18.516  19.256  24.172 -0.0766  0.0529 -0.2159
76417W        W19355  15.323  18.931  21.652  0.3237 -0.1006 -0.1293
76418W        W19356  18.416  21.982  22.793  0.1023 -0.0065  0.0848
76419W        W19357  15.875  22.594  23.296 -0.1732  0.0396  0.2499
76420W        W19358  15.356  20.556  25.663 -0.1498  0.2913 -0.1787
76421W        W19359  16.248  19.895  20.175 -0.0040  0.2416  0.0353
76422W        W19360  14.835  18.693  20.531  0.0411 -0.2266 -0.2500
76423W        W19361  16.464  20.652  20.659  0.0525  0.3463  0.0439
76424W        W19362  14.671  21.186  23.410 -0.0685 -0.0530 -0.2182
76425W        W19363  15.749  19.199  22.465 -0.0869 -0.2948 -0.0399
76426W        W19364  17.560  20.989  21.341 -0.2317 -0.0927 -0.1835
76427W        W19365  16.143  18.761  20.753  0.1156  0.1174  0.1290
76428W        W19366  16.662  21.276  23.835  0.3200 -0.0096  0.0045
76429W        W19367  19.674  20.693  24.921 -0.1869  0.0748  0.1078
76430W        W19368  17.640  20.498  21.464 -0.3020  0.0321 -0.1413
76431W        W19369  17.023  19.976  20.508 -0.1499  0.3853  0.0407
76432W        W19370  14.863  19.042  22.135 -0.0803 -0.1760 -0.2971
76433W        W19371  18.779  20.123  24.250 -0.0625 -0.0327  0.3607
76434W        W19372  14.831  22.619  22.959  0.3033 -0.0985  0.0463
76435W        W19373  15.899  22.497  21.526 -0.2809  0.1651  0.1362
76436W        W19374  15.084  18.555  20.142 -0.1169 -0.0820 -0.0794
76437W        W19375  15.890  21.330  26.353 -0.1529 -0.2054  0.0262
76438W        W19376  14.356  18.980  20.594  0.2683  0.4543 -0.0111
76439W        W19377  16.007  21.253  20.695  0.1728  0.0142  0.2469
76440W        W19378  16.569  21.749  24.157 -0.2354  0.0988 -0.0356
76441W        W19379  18.580  21.381  25.728 -0.3293  0.1732 -0.4088
76442W        W19380  15.693  17.944  20.797  0.2850 -0.1786  0.0587
76443W        W19381  14.625  21.536  21.701  0.0093 -0.6343  0.1478
76444W        W19382  16.597  18.276  20.787  0.1279 -0.0971  0.0882
76445W        W19383  14.646  21.720  24.572 -0.0132  0.1937 -0.1062
76446W        W19384  14.559  20.708  24.289  0.2676 -0.1759  0.0570
76447W        W19385  14.863  22.065  22.211  0.2516 -0.2496  0.2875
76448W        W19386  16.341  18.659  22.192 -0.0933  0.2191 -0.0094
76449W        W19387  19.200  21.314  23.777  0.2138 -0.1186 -0.1072
76450W        W19388  16.371  20.841  24.535 -0.0091 -0.1988 -0.1418
76451W        W19389  17.093  21.819  25.009  0.0687 -0.2083  0.1154
76452W        W19390  18.912  21.262  21.279 -0.1882  0.0299  0.0521
76453W        W19391  14.491  21.545  22.177 -0.2461 -0.0555  0.0288
76454W        W19392  17.094  20.316  21.819  0.2043  0.0015  0.0581
76455W        W19393  15.991  19.257  21.575  0.0346 -0.1716  0.1461
76456W        W19394  16.475  21.077  26.372 -0.1561  0.0787  0.0128
76457W        W19395  13.756  21.224  23.735  0.0995  0.3313  0.4965
76458W        W19396  13.887  22.072  23.960  0.1120 -0.1302 -0.2547
76459W        W19397  17.819  22.201  22.030 -0.1047  0.1052  0.2472
76460W        W19398  17.529  21.536  24.238  0.1127  0.1059 -0.0605
76461W        W19399  14.518  22.209  23.182 -0.0288  0.3142  0.2158
76462W        W19400  13.954  21.614  22.151 -0.0730  0.0433 -0.0578
76463W        W19401  13.205  21.891  23.169 -0.3308  0.0368 -0.1224
76464W        W19402  17.854  20.669  25.277 -0.4119  0.1408 -0.3413
76465W        W19403  17.352  18.231  19.041  0.0130  0.1040 -0.1141
76466W        W19404  18.301  19.910  21.101 -0.0571 -0.3218 -0.1555
76467W        W19405  16.659  21.898  26.842 -0.1006 -0.1922  0.0405
76468W        W19406  14.575  18.220  19.897  0.2154  0.0970 -0.0030
76469W        W19407  14.572  22.288  27.124 -0.2403  0.3178  0.0884
76470W        W19408  17.918  22.865  22.598 -0.3113 -0.1472 -0.1214
76471W        W19409  14.274  20.117  20.955 -0.1102  0.0780 -0.2463
76472W        W19410  18.628  18.556  22.336  0.1963 -0.0685  0.0018
76473W        W19411  16.973  20.692  21.204  0.0434 -0.0263 -0.0485
76474W        W19412  15.547  22.631  23.672 -0.0560  0.0839  0.2325
76475W        W19413  14.656  22.613  23.461  0.4309  0.0310 -0.1637
76476W        W19414  15.193  22.469  23.343 -0.0936  0.1559 -0.1023
76477W        W19415  13.279  19.319  19.699  0.0721 -0.2241 -0.0396
76478W        W19416  15.744  19.677  21.340  0.0121 -0.2628  0.2192
76479W        W19417  13.962  18.635  20.517  0.2080  0.0465 -0.2104
76480W        W19418  16.843  20.411  20.327 -0.2050  0.3545  0.0084
76481W        W19419  17.724  20.915  24.248 -0.1063  0.0775 -0.3489
76482W        W19420  13.188  20.960  21.473  0.3212 -0.1303  0.0081
76483W        W19421  18.622  21.417  24.186 -0.2078  0.0049  0.0154
76484W        W19422  15.197  19.077  20.155 -0.2266 -0.2489 -0.2159
76485W        W19423  18.966  21.513  20.877  0.4412 -0.1523  0.1017
76486W        W19424  13.430  22.135  22.730 -0.1096 -0.1769 -0.0421
76487W        W19425  16.482  22.283  21.111 -0.1010  0.0324 -0.2060
76488W        W19426  18.195  21.584  25.450 -0.3014  0.1963 -0.0913
76489W        W19427  12.632  21.686  25.492 -0.1710 -0.4352  0.1706
76490W        W19428  18.430  19.038  21.303 -0.0894 -0.2937  0.1900
76491W        W19429  16.606  23.743  21.770  0.0184  0.1651  0.1119
76492W        W19430  16.032  21.744  23.917  0.1958  0.0444 -0.1477
76493W        W19431  16.925  20.744  25.617 -0.0424  0.0429 -0.2688
76494W        W19432  14.996  22.489  22.464 -0.0437  0.0763 -0.4399
76495W        W19433  17.221  21.181  24.539  0.0247  0.0952  0.4064
76496W        W19434  15.806  23.666  20.980  0.4056 -0.4670  0.0660
76497W        W19435  17.181  22.329  20.606  0.3680 -0.1989  0.1382
76498W        W19436  17.971  22.217  22.974  0.2273 -0.0438  0.2882
76499W        W19437  16.709  21.033  20.951 -0.2596  0.0854  0.1080
76500W        W19438  18.540  21.688  22.371 -0.0358  0.2081 -0.0539
76501W        W19439  15.854  18.780  21.705 -0.2587 -0.1663  0.1280
76502W        W19440  17.808  18.700  20.700 -0.0769  0.1089 -0.0570
76503W        W19441  13.663  21.143  21.318  0.5046 -0.1681 -0.0221
76504W        W19442  14.606  19.237  23.350  0.1124  0.0653 -0.0407
76505W        W19443  13.584  20.582  22.746  0.2504  0.0319  0.0926
76506W        W19444  14.377  18.453  20.699 -0.1458  0.5422 -0.2356
76507W        W19445  18.236  21.754  21.188 -0.0285  0.1349 -0.1622
76508W        W19446  15.480  18.492  21.853 -0.1992  0.1292 -0.0388
76509W        W19447  17.332  20.514  20.254 -0.0437 -0.2676  0.1877
76510W        W19448  17.632  21.751  22.901 -0.1265 -0.0570 -0.1109
76511W        W19449  19.072  21.255  24.426  0.1898  0.0651 -0.3585
76512W        W19450  12.789  19.335  19.317  0.2589 -0.4399  0.1897
76513W        W19451  16.027  19.685  23.319  0.1911 -0.1813  0.2755
76514W        W19452  15.196  22.922  21.937  0.0831  0.0429 -0.1074
76515W        W19453  16.268  23.500  23.316  0.0027  0.1380 -0.1198
76516W        W19454  17.097  21.674  24.499 -0.1439 -0.1540  0.0831
76517W        W19455  15.685  21.620  23.541  0.0520 -0.0135 -0.2762
76518W        W19456  18.879  21.924  20.359  0.0184 -0.0676  0.0443
76519W        W19457  18.969  19.080  21.229  0.2374  0.2926  0.3174
76520W        W19458  18.928  21.494  23.219  0.3383  0.0318 -0.0217
76521W        W19459  16.470  17.948  21.582 -0.1665  0.0329  0.1445
76522W        W19460  17.355  20.054  20.894  0.0524  0.2864  0.1482
76523W        W19461  16.855  23.019  21.074 -0.1997  0.0215 -0.0306
76524W        W19462  16.064  20.870  21.937  0.1472  0.2035 -0.1864
76525W        W19463  17.540  19.502  19.461 -0.1775 -0.0555 -0.5712
76526W        W19464  16.817  21.650  21.704  0.0558  0.0138 -0.2311
76527W        W19465  17.123  21.223  26.436 -0.1011 -0.1230  0.0162
76528W        W19466  18.089  21.942  20.254 -0.4012 -0.0627 -0.1988
76529W        W19467  18.106  22.180  24.062  0.0751  0.2332 -0.2130
76530W        W19468  20.622  21.159  26.878 -0.1514  0.4426 -0.0537
76531W        W19469  14.546  21.595  23.137  0.1017  0.3214 -0.0922
76532W        W19470  17.738  19.545  22.456 -0.1935  0.1023  0.0022
76533W        W19471  16.239  19.132  22.017  0.0113  0.0342 -0.0542
76534W        W19472  15.839  20.718  24.622  0.3262  0.0419  0.0624
76535W        W19473  16.956  21.660  22.939 -0.1120  0.0627  0.1830
76536W        W19474  17.923  18.782  27.952 -0.2191  0.1765  0.0831
76537W        W19475  18.141  18.923  24.132 -0.1939  0.0665 -0.3428
76538W        W19476  18.758  19.539  26.341  0.1900 -0.1937 -0.3187
76539W        W19477  14.798  18.573  25.537  0.0932  0.3329  0.0337
76540W        W19478  17.906  21.469  28.025 -0.0646  0.1437 -0.4135
76541W        W19479  16.869  17.865  29.128  0.1771 -0.2829  0.1576
76542W        W19480  16.801  20.392  27.114  0.0785 -0.0453 -0.2549
76543W        W19481  19.033  20.318  29.713 -0.2229  0.1180 -0.1343
76544W        W19482  16.385  20.345  27.484 -0.1021  0.1195 -0.0823
76545W        W19483  17.068  20.896  29.477  0.2774  0.0362  0.1069
76546W        W19484  16.624  17.394  23.957 -0.0513 -0.1102 -0.0856
76547W        W19485  14.795  19.645  26.107 -0.2264 -0.1337 -0.1962
76548W        W19486  19.067  18.830  26.490 -0.1701 -0.0789  0.0795
76549W        W19487  15.792  20.252  25.580 -0.1808  0.3659  0.4060
76550W        W19488  16.499  19.225  26.705  0.0941  0.0752 -0.2129
76551W        W19489  17.732  21.056  27.860  0.0676 -0.1324  0.0730
76552W        W19490  16.437  18.638  29.218  0.1146 -0.2054  0.3911
76553W        W19491  16.800  18.189  28.345  0.1573 -0.1124 -0.4322
76554W        W19492  16.439  20.213  25.407  0.3050  0.1298  0.3931
76555W        W19493  15.065  19.441  25.528  0.1726 -0.0224  0.2221
76556W        W19494  15.947  19.856  25.866  0.0198 -0.4353  0.0615
76557W        W19495  16.253  19.425  27.093  0.2882 -0.0707 -0.0595
76558W        W19496  17.587  19.143  27.884 -0.0460  0.0318  0.0447
76559W        W19497  17.805  20.959  27.273 -0.2669  0.2324  0.2084
76560W        W19498  18.916  19.479  30.229  0.0664 -0.0120  0.2764
76561W        W19499  18.057  18.303  29.803  0.2360  0.1539 -0.1959
76562W        W19500  16.033  21.629  27.714  0.1631 -0.1308  0.0896
76563W        W19501  16.296  20.213  28.001  0.1569 -0.1189  0.1501
76564W        W19502  15.952  21.118  27.368  0.1538  0.0699  0.0573
76565W        W19503  17.327  20.739  24.695 -0.4024  0.0352  0.0077
76566W        W19504  19.039  19.523  28.791  0.2211 -0.0490 -0.0315
76567W        W19505  18.163  21.374  30.815 -0.1167 -0.1537  0.0844
76568W        W19506  15.965  21.604  24.949 -0.1928 -0.1836  0.3317
76569W        W19507  17.207  21.536  30.137  0.4865 -0.2925  0.0001
76570W        W19508  14.687  21.413  29.575 -0.0221 -0.1907 -0.1606
76571W        W19509  17.571  20.473  27.722  0.2587 -0.2664 -0.0167
76572W        W19510  17.576  20.112  25.924 -0.2028 -0.0580 -0.2361
76573W        W19511  15.123  21.441  24.384  0.2725 -0.0675  0.0148
76574W        W19512  17.432  20.446  25.523  0.2111 -0.0508 -0.1452
76575W        W19513  17.587  19.459  28.503  0.4945  0.1065  0.0344
76576W        W19514  15.472  21.405  29.016 -0.0793 -0.2321 -0.2573
76577W        W19515  16.148  18.732  30.774 -0.0758 -0.2126 -0.0663
76578W        W19516  16.206  20.805  27.678  0.1875 -0.0429  0.1095
76579W        W19517  16.767  21.096  24.319 -0.1489  0.3329 -0.4253
76580W        W19518  16.526  19.773  23.165 -0.0017 -0.1679 -0.1553
76581W        W19519  17.021  20.294  24.076  0.1270 -0.1809  0.0026
76582W        W19520  16.758  18.465  27.286 -0.2031  0.1720 -0.1626
76583W        W19521  16.332  21.921  28.995 -0.2495  0.3505  0.0152
76584W        W19522  18.288  18.541  27.728  0.1784 -0.0501 -0.1359
76585W        W19523  18.731  21.056  29.254  0.1729  0.3095 -0.0506
76586W        W19524  17.861  20.084  27.665  0.0209  0.0669  0.1640
76587W        W19525  17.163  19.872  26.520  0.1032 -0.1290 -0.1834
76588W        W19526  17.250  21.468  28.793  0.3813  0.0761  0.0321
76589W        W19527  14.325  19.629  25.884 -0.2270  0.0318 -0.2638
76590W        W19528  19.958  21.725  25.758 -0.0867  0.0885  0.0774
76591W        W19529  19.291  20.312  26.141 -0.1247 -0.1473  0.2738
76592W        W19530  16.786  20.815  26.681  0.1684 -0.0973 -0.1599
76593W        W19531  15.670  19.686  25.446  0.1725  0.4898 -0.1064
76594W        W19532  14.948  18.980  28.356  0.3087  0.3562  0.0657
76595W        W19533  16.648  20.564  27.847  0.1071  0.1977 -0.1588
76596W        W19534  14.340  17.411  23.937  0.1143 -0.3988  0.1391
76597W        W19535  18.060  18.075  27.767  0.1089 -0.2255  0.1068
76598W        W19536  15.155  21.761  28.243  0.3503  0.1724  0.0575
76599W        W19537  18.053  19.232  26.107 -0.0427  0.0458  0.0532
76600W        W19538  16.451  19.942  27.148  0.4908  0.0725 -0.1032
76601W        W19539  17.103  21.590  26.886 -0.1047  0.0219 -0.0292
76602W        W19540  16.229  20.681  25.006  0.4359 -0.0592  0.0018
76603W        W19541  18.229  18.485  26.801 -0.1356 -0.2094  0.3944
76604W        W19542  17.738  17.747  25.754  0.1002  0.0779  0.0256
76605W        W19543  14.231  20.030  24.299  0.1194  0.1219  0.2522
76606W        W19544  18.057  20.222  26.690  0.0588 -0.1749 -0.0055
76607W        W19545  18.313  19.891  24.166  0.4207  0.2231  0.4766
76608W        W19546  15.802  22.354  29.386 -0.1042 -0.0514 -0.4833
76609W        W19547  16.872  19.025  28.474  0.2157 -0.0062 -0.2405
76610W        W19548  15.722  21.914  30.282  0.1123  0.0670 -0.1065
76611W        W19549  14.970  21.591  25.427 -0.1413  0.1158  0.0483
76612W        W19550  15.390  20.944  27.183 -0.1938  0.0416  0.0815
76613W        W19551  15.593  20.623  25.170 -0.0334 -0.0752  0.0244
76614W        W19552  15.088  19.640  27.524 -0.1078  0.1194 -0.3070
76615W        W19553  15.181  20.738  27.624  0.3187 -0.1665 -0.0163
76616W        W19554  16.495  18.992  28.046 -0.0111  0.0531  0.1240
76617W        W19555  15.255  20.495  26.750  0.0540 -0.0056  0.0939
76618W        W19556  17.352  22.036  27.060  0.2610 -0.0840  0.3253
76619W        W19557  18.383  20.094  25.375 -0.3582  0.2179  0.0309
76620W        W19558  15.707  19.282  27.276  0.2572  0.1829  0.0216
76621W        W19559  16.588  19.447  28.470 -0.2472  0.1804 -0.0908
76622W        W19560  14.849  19.397  26.624  0.5215  0.1026 -0.0543
76623W        W19561  16.705  19.076  26.250 -0.0548  0.5110  0.1661
76624W        W19562  13.945  17.513  25.270 -0.1176  0.1927 -0.1341
76625W        W19563  17.529  19.377  25.861 -0.0699  0.0579  0.0766
76626W        W19564  16.774  19.746  27.491  0.6459  0.2358  0.2405
76627W        W19565  16.129  21.302  26.805  0.0689  0.0243 -0.0156
76628W        W19566  18.373  18.883  28.203  0.0382 -0.3164  0.2649
76629W        W19567  16.609  21.792  25.838 -0.3240  0.1547 -0.1212
76630W        W19568  18.179  21.189  27.697  0.3318 -0.5575  0.1805
76631W        W19569  17.740  21.419  28.930  0.2000  0.4014 -0.0726
76632W        W19570  17.997  19.168  28.409 -0.1819 -0.0703  0.3199
76633W        W19571  16.347  21.464  28.087 -0.0104 -0.2870 -0.2972
76634W        W19572  17.699  20.460  29.014  0.1629 -0.1755  0.1832
76635W        W19573  19.473  21.138  28.339  0.0283  0.0390  0.2447
76636W        W19574  17.018  20.172  25.497  0.2620  0.3235 -0.3110
76637W        W19575  17.371  20.868  28.128 -0.2151 -0.2379 -0.0265
76638W        W19576  17.854  18.615  26.526  0.1521  0.0853  0.0646
76639W        W19577  17.986  20.159  26.222 -0.2922 -0.1931  0.1418
76640W        W19578  15.484  19.021  26.704 -0.3497 -0.1114  0.0248
76641W        W19579  13.856  17.528  23.843  0.1381 -0.1357 -0.1921
76642W        W19580  18.077  21.371  28.525 -0.1153 -0.1979 -0.0159
76643W        W19581  15.575  21.597  27.917  0.2388  0.0441  0.1508
76644W        W19582  15.757  20.892  26.838  0.0614 -0.1950 -0.0143
76645W        W19583  16.860  20.923  28.162 -0.1592 -0.0602  0.3210
76646W        W19584  17.467  19.433  26.584 -0.2545 -0.2261  0.0411
76647W        W19585  14.227  19.647  29.962 -0.3746  0.1762 -0.0894
76648W        W19586  18.720  19.137  29.120  0.0192 -0.5356 -0.2616
76649W        W19587  15.047  20.327  26.084 -0.1981  0.0867 -0.1956
76650W        W19588  16.005  19.761  29.027 -0.3734 -0.0271 -0.3873
76651W        W19589  17.746  19.797  23.726 -0.5448  0.0989  0.0981
76652W        W19590  17.400  20.611  28.547 -0.2356  0.0772  0.0178
76653W        W19591  18.054  20.454  24.453  0.1122 -0.1984  0.1357
76654W        W19592  17.795  19.774  24.292  0.0213 -0.2574  0.4229
76655W        W19593  16.287  21.184  28.976  0.2061  0.2888 -0.0906
76656W        W19594  15.950  21.367  25.412 -0.0378  0.0659 -0.0651
76657W        W19595  17.755  20.536  28.159 -0.0232 -0.1594 -0.2639
76658W        W19596  18.669  21.327  25.220 -0.2282 -0.0041  0.0495
76659W        W19597  16.022  20.614  28.694  0.4879 -0.1804  0.1272
76660W        W19598  17.119  19.497  28.497 -0.1869 -0.1345 -0.2499
76661W        W19599  17.568  22.376  29.063 -0.0723 -0.1246  0.1376
76662W        W19600  16.700  17.996  27.458  0.0012 -0.0471 -0.1896
76663W        W19601  15.492  20.060  25.205  0.1828  0.1118 -0.0366
76664W        W19602  13.651  22.169  26.431 -0.0601  0.0823 -0.0589
76665W        W19603  19.295  19.113  26.946  0.0912  0.3544 -0.0203
76666W        W19604  17.057  17.805  28.125 -0.2022 -0.4033  0.1090
76667W        W19605  16.842  17.783  28.607 -0.1444  0.2663  0.0105
76668W        W19606  18.616  18.716  26.673  0.0837  0.0844  0.1361
76669W        W19607  18.213  20.492  24.934  0.2927  0.0436 -0.2714
76670W        W19608  16.844  18.895  27.578  0.0925  0.2715  0.1523
76671W        W19609  14.615  20.059  25.827 -0.0034  0.3718 -0.1323
76672W        W19610  17.457  18.748  29.360  0.2749  0.0259 -0.1931
76673W        W19611  15.215  19.122  29.403  0.0343  0.0621 -0.0827
76674W        W19612  15.416  20.527  27.999  0.1185 -0.1106  0.1433
76675W        W19613  17.561  19.287  30.161  0.0500 -0.1713  0.0103
76676W        W19614  17.237  20.371  25.068 -0.3576 -0.1855 -0.0355
76677W        W19615  17.306  19.375  30.648  0.2395  0.1266 -0.2207
76678W        W19616  15.255  21.071  25.144  0.0428 -0.1063  0.2204
76679W        W19617  15.045  20.379  25.210 -0.3298  0.0954  0.0540
76680W        W19618  17.339  19.056  28.387 -0.1235 -0.4546 -0.0431
76681W        W19619  18.282  21.382  29.267  0.0265  0.1372  0.2699
76682W        W19620  15.750  22.007  24.786 -0.0052  0.1036  0.2054
76683W        W19621  17.806  20.944  29.133  0.1323 -0.1674 -0.1501
76684W        W19622  15.102  22.957  26.623  0.1464 -0.2991 -0.0759
76685W        W19623  17.567  17.918  27.949 -0.5767  0.3824 -0.1058
76686W        W19624  15.437  21.566  26.416 -0.0856  0.0371 -0.0824
76687W        W19625  15.896  20.251  24.958  0.0513  0.0454  0.0631
76688W        W19626  15.068  18.310  24.970  0.0826 -0.1987  0.0843
76689W        W19627  18.990  20.295  25.192  0.0588  0.0521  0.1038
76690W        W19628  15.896  19.077  26.268  0.0272  0.1495 -0.0913
76691W        W19629  15.779  19.662  26.398 -0.3075 -0.0730 -0.0536
76692W        W19630  14.753  21.947  27.937  0.1948 -0.1100  0.2310
76693W        W19631  17.752  19.586  27.779 -0.0596  0.1352 -0.1514
76694W        W19632  17.667  19.063  23.888  0.2453 -0.1112  0.2558
76695W        W19633  16.988  20.786  30.083 -0.1365 -0.1768  0.0967
76696W        W19634  17.787  20.275  29.607 -0.0968 -0.1082  0.1310
76697W        W19635  19.065  17.371  27.408  0.0613 -0.2785  0.3238
76698W        W19636  16.285  19.038  25.931 -0.2846 -0.1676 -0.0940
76699W        W19637  14.973  21.322  28.069  0.1229  0.0668 -0.2308
76700W        W19638  16.929  21.692  29.212 -0.2681  0.2082  0.1070
76701W        W19639  15.834  20.648  25.892 -0.0742 -0.1780 -0.2262
76702W        W19640  18.215  19.757  27.796  0.1156  0.1084 -0.1284
76703W        W19641  16.964  18.756  29.192 -0.3157  0.2162  0.1379
76704W        W19642  18.212  20.021  29.874 -0.1538  0.0816  0.0117
76705W        W19643  15.941  19.838  27.940 -0.1227  0.0627 -0.1488
76706W        W19644  15.250  18.356  25.489  0.0141  0.1480 -0.0351
76707W        W19645  17.639  18.145  27.476 -0.1482 -0.1453  0.1042
76708W        W19646  18.560  19.070  27.750  0.3449 -0.2175 -0.0348
76709W        W19647  17.293  18.540  28.086 -0.2680 -0.1568 -0.2191
76710W        W19648  15.402  20.782  31.448 -0.1244 -0.0815 -0.0346
76711W        W19649  15.417  18.028  27.591  0.0483  0.0243 -0.0855
76712W        W19650  18.527  21.298  26.714  0.3611 -0.3378 -0.2479
76713W        W19651  16.532  18.394  26.345 -0.0443  0.0850 -0.0423
76714W        W19652  16.634  20.342  28.355  0.1066 -0.0551  0.0711
76715W        W19653  15.961  18.868  27.483  0.0975 -0.3529  0.0478
76716W        W19654  16.905  20.437  26.430 -0.3615  0.3056  0.0455
76717W        W19655  17.296  18.627  27.555  0.0695  0.0442 -0.1247
76718W        W19656  15.595  19.074  27.779 -0.1066 -0.0507 -0.4694
76719W        W19657  16.539  19.975  26.267 -0.1755  0.1073  0.0164
76720W        W19658  15.416  20.904  26.523  0.0072  0.3836 -0.0220
76721W        W19659  18.298  19.588  24.557 -0.1504  0.2881 -0.1112
76722W        W19660  17.034  21.839  25.494 -0.3212 -0.1202  0.0461
76723W        W19661  15.971  19.134  26.779  0.0036 -0.2358  0.1344
76724W        W19662  18.289  18.889  27.363 -0.1712  0.0590  0.1422
76725W        W19663  18.301  21.000  24.368  0.3637  0.2945  0.1061
76726W        W19664  17.566  19.024  26.332  0.0225  0.0059 -0.1470
76727W        W19665  17.816  18.661  27.462 -0.3220 -0.3234  0.1403
76728W        W19666  18.087  19.911  27.263  0.1169 -0.1772 -0.0145
76729W        W19667  14.440  19.180  30.089 -0.1176 -0.0232 -0.1442
76730W        W19668  15.610  21.361  29.561  0.0648  0.1607 -0.1536
76731W        W19669  15.855  20.157  28.793  0.0459  0.1921 -0.0199
76732W        W19670  14.488  19.718  23.982  0.1293 -0.2680  0.4013
76733W        W19671  17.170  20.358  30.234 -0.0446  0.0896  0.1243
76734W        W19672  17.615  20.571  26.908  0.0651  0.0241  0.3061
76735W        W19673  16.761  20.385  25.977 -0.1954 -0.0080  0.0158
76736W        W19674  17.795  19.128  27.360  0.2853  0.0821 -0.1072
76737W        W19675  16.180  20.321  26.914 -0.0388  0.0905 -0.2222
76738W        W19676  16.682  20.087  24.418  0.0666 -0.1577 -0.1716
76739W        W19677  15.719  18.758  25.788  0.3202 -0.3239 -0.0670
76740W        W19678  15.518  18.962  29.044  0.0777 -0.1234 -0.1960
76741W        W19679  18.369  19.602  26.033  0.1103 -0.1294  0.1956
76742W        W19680  16.857  18.649  26.037  0.4171 -0.3419 -0.0201
76743W        W19681  17.107  19.073  30.289 -0.0913  0.3608 -0.1829
76744W        W19682  17.028  19.388  25.756 -0.2009 -0.0095  0.2046
76745W        W19683  17.218  19.197  29.322  0.1356  0.1369  0.2616
76746W        W19684  16.214  19.442  28.112  0.1237  0.0625 -0.1642
76747W        W19685  18.517  19.615  29.937 -0.0985  0.0472  0.2641
76748W        W19686  17.932  20.181  24.031 -0.0635  0.0231  0.0924
76749W        W19687  19.258  17.853  27.597  0.1728 -0.0561  0.0429
76750W        W19688  17.079  20.906  25.173 -0.2235  0.3529 -0.5326
76751W        W19689  15.217  18.459  27.583  0.0639  0.2847  0.1772
76752W        W19690  18.092  19.485  28.790  0.0082  0.2912 -0.1630
76753W        W19691  15.750  20.053  23.659 -0.1327  0.0457  0.0877
76754W        W19692  17.201  18.851  29.845 -0.1643 -0.2116 -0.1773
76755W        W19693  17.162  20.803  24.213 -0.1029  0.1514 -0.0465
76756W        W19694  17.120  19.378  26.238  0.0613  0.1905  0.1757
76757W        W19695  16.697  20.410  24.993 -0.1652  0.1257  0.3549
76758W        W19696  15.166  17.446  26.145  0.1497  0.0379  0.0807
76759W        W19697  15.273  22.200  29.498  0.3131  0.3102 -0.0821
76760W        W19698  15.839  19.287  23.048 -0.1245 -0.0806 -0.3142
76761W        W19699  17.359  19.870  28.768  0.2206 -0.1511  0.1747
76762W        W19700  18.405  17.988  26.939  0.0852  0.1265 -0.1782
76763W        W19701  18.752  18.626  29.024 -0.2990  0.4233  0.3711
76764W        W19702  15.546  21.301  27.508  0.3162 -0.0735  0.0298
76765W        W19703  17.133  21.936  29.665 -0.3057  0.0167  0.1380
76766W        W19704  15.553  20.415  27.183  0.0234 -0.1262  0.1151
76767W        W19705  16.945  21.488  28.348  0.2269  0.1953 -0.3076
76768W        W19706  17.019  19.192  26.713  0.1168  0.1634  0.1606
76769W        W19707  17.666  19.710  26.194 -0.1624  0.2423 -0.2528
76770W        W19708  16.973  20.280  27.613 -0.0157 -0.0378  0.2460
76771W        W19709  19.201  19.309  27.694 -0.1823 -0.4256  0.1322
76772W        W19710  17.118  20.546  29.092 -0.0917 -0.1241  0.1537
76773W        W19711  17.364  19.939  27.735 -0.2923 -0.1847  0.0306
76774W        W19712  17.459  21.512  30.994 -0.3414 -0.2371 -0.1702
76775W        W19713  16.684  19.558  26.039  0.3595  0.1722 -0.0579
76776W        W19714  16.718  20.052  26.737  0.0808 -0.2521 -0.1001
76777W        W19715  17.222  19.066  28.859  0.0335 -0.0712  0.2601
76778W        W19716  16.872  19.986  28.017  0.0180  0.1574  0.2666
76779W        W19717  17.135  19.879  25.991 -0.0177  0.0699 -0.1236
76780W        W19718  15.091  18.954  25.582  0.4305 -0.1158 -0.1495
76781W        W19719  15.612  20.918  24.229  0.2519  0.0201  0.2532
76782W        W19720  15.493  21.407  28.382  0.0476 -0.0208 -0.4572
76783W        W19721  15.390  19.883  27.184 -0.2019 -0.1760  0.0469
76784W        W19722  15.590  22.920  26.531 -0.1084  0.1565 -0.1974
76785W        W19723  16.282  22.100  24.837  0.2176 -0.0038 -0.0569
76786W        W19724  16.354  21.196  25.054 -0.0412  0.0117 -0.0133
76787W        W19725  18.223  22.539  30.005  0.0476 -0.2472 -0.1743
76788W        W19726  15.662  20.772  27.615  0.2116  0.0057  0.3390
76789W        W19727  16.631  21.387  26.705 -0.1834  0.2725 -0.0661
76790W        W19728  18.359  21.711  23.692  0.0060  0.0576 -0.0400
76791W        W19729  15.875  21.733  28.254  0.0579  0.3286  0.3520
76792W        W19730  17.337  20.125  29.761 -0.2284 -0.2357  0.0287
76793W        W19731  17.562  19.777  27.333  0.1373  0.2024 -0.2485
76794W        W19732  19.359  19.315  24.964 -0.0500  0.1033 -0.0662
76795W        W19733  16.576  19.889  31.276  0.0325 -0.1477 -0.1914
76796W        W19734  16.767  19.584  26.547 -0.2221  0.1766 -0.5161
76797W        W19735  16.868  20.534  24.508 -0.2427 -0.1068 -0.0961
76798W        W19736  15.727  19.550  31.275  0.2910 -0.0706  0.1754
76799W        W19737  17.125  16.945  29.835  0.4348  0.0380  0.0231
76800W        W19738  14.936  20.567  30.229 -0.2178  0.0653  0.3414
76801W        W19739  18.886  22.971  27.113 -0.0861  0.3604 -0.2951
76802W        W19740  14.668  19.176  24.818 -0.3786  0.1350 -0.2524
76803W        W19741  15.596  20.425  26.241 -0.5784 -0.0249  0.0329
76804W        W19742  18.233  17.582  26.611 -0.0584 -0.0318 -0.0542
76805W        W19743  15.907  20.518  28.115  0.3314 -0.0181 -0.2239
76806W        W19744  16.006  21.590  29.114 -0.1267 -0.3861  0.2640
76807W        W19745  17.491  20.669  29.449  0.1773  0.0312 -0.0328
76808W        W19746  13.554  17.846  25.142 -0.1948 -0.1826  0.1158
76809W        W19747  18.082  20.344  25.786 -0.3826 -0.0615 -0.2638
76810W        W19748  14.929  17.856  27.366  0.0013 -0.1748  0.0131
76811W        W19749  17.692  17.686  28.441 -0.2407  0.0177  0.2020
76812W        W19750  14.915  20.704  26.411  0.3414  0.0340 -0.1582
76813W        W19751  18.257  19.065  26.890 -0.0958 -0.2042 -0.3454
76814W        W19752  17.229  19.382  27.577  0.0547 -0.1129 -0.0874
76815W        W19753  18.250  17.903  28.457 -0.1134 -0.1848  0.1458
76816W        W19754  17.530  20.633  29.997 -0.3369 -0.0576  0.1361
76817W        W19755  14.281  18.284  27.897  0.0647  0.0911  0.1225
76818W        W19756  15.345  19.570  25.976  0.0976  0.2076  0.2333
76819W        W19757  16.456  19.746  28.840 -0.2020 -0.3348 -0.1094
76820W        W19758  17.836  19.944  28.655  0.3652  0.1909 -0.4833
76821W        W19759  13.938  18.549  26.618  0.5375  0.0499  0.1358
76822W        W19760  19.648  21.185  24.611  0.0516  0.1076  0.2605
76823W        W19761  17.636  18.617  28.433 -0.1507 -0.0196 -0.0677
76824W        W19762  17.234  20.552  26.077  0.0623 -0.1386  0.0464
76825W        W19763  17.655  21.040  26.712  0.0019  0.2540  0.0340
76826W        W19764  18.757  20.509  30.429 -0.0414  0.3381 -0.1473
76827W        W19765  15.459  18.895  26.209 -0.0949  0.0042  0.0009
76828W        W19766  18.050  20.621  27.758  0.1356  0.3181  0.1387
76829W        W19767  18.554  19.282  28.632 -0.0577 -0.1260 -0.1206
76830W        W19768  15.820  18.292  26.092  0.0246  0.0299  0.2046
76831W        W19769  16.240  19.420  26.280  0.3805 -0.1190  0.1352
76832W        W19770  16.068  21.563  27.236  0.1546  0.1293  0.0308
76833W        W19771  17.092  17.381  29.382 -0.2486 -0.0480 -0.0135
76834W        W19772  15.865  21.887  26.247 -0.0795 -0.1879  0.3794
76835W        W19773  16.804  19.318  27.159  0.1380 -0.1356  0.0108
76836W        W19774  17.127  21.717  31.282 -0.3027 -0.1873 -0.0883
76837W        W19775  16.514  21.566  29.968 -0.0842  0.0932 -0.3289
76838W        W19776  15.327  20.559  24.743 -0.1135  0.0892 -0.4202
76839W        W19777  18.166  20.173  28.128  0.2917 -0.1848  0.2638
76840W        W19778  16.461  20.865  25.892  0.0136  0.2431 -0.0466
76841W        W19779  17.351  21.413  28.057  0.1583  0.2055 -0.0589
76842W        W19780  17.550  19.942  26.852 -0.1193 -0.0086  0.0469
76843W        W19781  16.061  20.141  26.367 -0.2050 -0.2199  0.1416
76844W        W19782  18.694  19.221  27.177 -0.2087 -0.0563 -0.3482
76845W        W19783  16.524  19.302  27.536  0.1874 -0.2298 -0.3971
76846W        W19784  17.005  17.944  24.448 -0.0855  0.1334 -0.1904
76847W        W19785  17.114  20.730  27.738  0.3442  0.3373 -0.2848
76848W        W19786  14.840  19.510  23.695  0.3347  0.0652 -0.3707
76849W        W19787  16.447  20.551  26.356  0.0433 -0.0754  0.0154
76850W        W19788  15.961  20.654  27.215  0.1574  0.1929 -0.0941
76851W        W19789  16.163  16.922  29.455 -0.4110  0.1134  0.1911
76852W        W19790  16.430  19.774  27.855  0.1058  0.3323 -0.2920
76853W        W19791  14.747  18.831  26.507  0.1300  0.0999  0.0636
76854W        W19792  17.639  21.856  27.839  0.1432  0.2845  0.0268
76855W        W19793  17.268  18.025  27.172  0.0646 -0.1613  0.0106
76856W        W19794  15.727  18.559  27.798 -0.0004 -0.2393 -0.1848
76857W        W19795  17.050  21.975  26.016  0.1180 -0.2615 -0.0304
76858W        W19796  16.945  21.109  27.070  0.0417 -0.2809  0.1032
76859W        W19797  16.523  19.911  24.949  0.1535 -0.1172  0.1764
76860W        W19798  18.558  19.647  29.047  0.1377 -0.0500  0.3115
76861W        W19799  15.060  21.349  25.871  0.1196  0.0370  0.3574
76862W        W19800  17.527  19.439  28.998  0.1583 -0.0401 -0.5225
76863W        W19801  17.105  20.460  28.176  0.0468  0.3377  0.2493
76864W        W19802  13.484  17.927  27.150 -0.0074 -0.1603 -0.0907
76865W        W19803  17.485  18.471  27.131  0.0919  0.1452 -0.1566
76866W        W19804  16.832  21.675  26.350  0.1909  0.1511  0.0173
76867W        W19805  18.058  21.400  24.168 -0.0390 -0.0520  0.1591
76868W        W19806  15.993  19.808  28.520 -0.0144  0.0788 -0.0994
76869W        W19807  16.640  21.722  28.648 -0.1926 -0.2373  0.1589
76870W        W19808  15.326  18.894  27.347 -0.0532 -0.4131  0.0993
76871W        W19809  18.368  20.081  24.616  0.0758 -0.1011  0.3028
76872W        W19810  15.643  20.055  31.174 -0.2119 -0.2424  0.2069
76873W        W19811  18.870  20.025  26.197  0.4279 -0.0830  0.0743
76874W        W19812  18.042  17.456  29.262  0.1260  0.3303 -0.3017
76875W        W19813  16.331  18.666  27.725 -0.1006 -0.1406 -0.0133
76876W        W19814  17.748  19.023  28.761  0.3778 -0.0532 -0.1440
76877W        W19815  17.699  18.194  29.347  0.2115  0.1949 -0.0697
76878W        W19816  15.782  18.614  26.524 -0.0682  0.1060  0.0704
76879W        W19817  18.051  19.419  23.974 -0.0852  0.1361  0.0490
76880W        W19818  17.240  21.380  25.395 -0.2446  0.3601  0.0131
76881W        W19819  16.235  20.320  25.931 -0.1691 -0.1991  0.1510
76882W        W19820  17.555  20.423  24.316 -0.0241 -0.1239 -0.1099
76883W        W19821  16.285  18.248  27.394  0.0316  0.1926 -0.2055
76884W        W19822  18.159  21.653  27.493 -0.0257  0.0101 -0.0695
76885W        W19823  16.062  20.294  29.869 -0.3107 -0.1106 -0.1254
76886W        W19824  17.190  20.314  26.827  0.0774  0.0664 -0.2152
76887W        W19825  17.797  21.291  24.604  0.0060  0.3866  0.0286
76888W        W19826  17.724  19.885  29.213  0.0004 -0.0168  0.3765
76889W        W19827  17.140  21.933  30.808 -0.1066 -0.1398 -0.0268
76890W        W19828  16.826  21.517  30.825 -0.1107  0.0066 -0.0971
76891W        W19829  18.084  20.378  28.589 -0.0615  0.2010  0.0237
76892W        W19830  16.215  18.553  26.778  0.0902 -0.0252  0.2142
76893W        W19831  15.301  20.084  25.741 -0.1446  0.1177 -0.0531
76894W        W19832  16.175  19.783  26.694 -0.2489  0.6266 -0.2066
76895W        W19833  18.425  17.408  27.736  0.3670  0.0652  0.2195
76896W        W19834  16.313  18.842  26.373  0.1931 -0.2199 -0.1513
76897W        W19835  16.301  20.807  28.281  0.1554 -0.0641  0.1171
76898W        W19836  17.995  19.758  26.601 -0.1619  0.0383  0.2025
76899W        W19837  17.127  18.513  30.836 -0.0971  0.0903  0.0706
76900W        W19838  17.618  17.712  29.461  0.1814  0.1347 -0.1475
76901W        W19839  15.081  18.793  28.855  0.0830  0.2424  0.0977
76902W        W19840  15.822  20.942  29.855 -0.1692 -0.3708 -0.1248
76903W        W19841  16.818  21.238  30.390 -0.2016 -0.1768 -0.1865
76904W        W19842  15.515  21.964  31.230  0.3005 -0.5089 -0.0373
76905W        W19843  18.001  19.691  28.300  0.1159  0.1842 -0.1574
76906W        W19844  15.927  18.240  30.597  0.1364  0.1295  0.2417
76907W        W19845  17.073  18.560  28.561  0.1788 -0.1515 -0.0063
76908W        W19846  17.596  19.163  29.640 -0.2948  0.2330 -0.0397
76909W        W19847  17.359  21.110  30.348 -0.2847  0.2219  0.2152
76910W        W19848  16.754  16.914  29.326 -0.1357 -0.0907 -0.1130
76911W        W19849  18.474  18.664  29.423  0.2682  0.0825 -0.0065
76912W        W19850  15.689  20.519  29.613  0.1222 -0.2623  0.1178
76913W        W19851  18.090  19.181  27.762 -0.0611  0.0922 -0.0895
76914W        W19852  15.867  20.844  30.399 -0.1350 -0.2984 -0.0853
76915W        W19853  15.131  20.643  29.485  0.0367  0.0532  0.0283
76916W        W19854  16.614  19.423  29.351  0.1229  0.1017  0.0985
76917W        W19855  15.695  19.411  29.184 -0.2860  0.2030 -0.1677
76918W        W19856  16.182  19.098  30.034 -0.1987 -0.1848  0.3795
76919W        W19857  16.606  18.549  29.764  0.1832  0.0235 -0.2030
76920W        W19858  14.833  20.913  29.211 -0.0669 -0.0014 -0.1421
76921W        W19859  17.582  18.424  30.785  0.2096  0.0122  0.0344
76922W        W19860  17.545  18.491  29.806  0.1470  0.0368 -0.0588
76923W        W19861  16.613  17.752  29.524 -0.1791  0.1704 -0.0557
76924W        W19862  17.834  18.566  28.884  0.1494 -0.0128 -0.1702
76925W        W19863  16.418  19.872  29.326  0.2492  0.4606  0.1009
76926W        W19864  14.821  21.911  29.732 -0.2525  0.1474  0.1300
76927W        W19865  15.775  18.258  28.229 -0.0108 -0.0343  0.3788
76928W        W19866  17.273  19.692  29.446 -0.0963  0.0786  0.0026
76929W        W19867  16.195  21.129  30.161 -0.0610  0.0774  0.1453
76930W        W19868  16.259  19.274  29.070  0.0228  0.0128 -0.0193
76931W        W19869  17.833  20.084  31.581 -0.3445 -0.1038  0.2094
76932W        W19870  16.611  18.177  30.087 -0.1591  0.0679 -0.1403
76933W        W19871  15.394  18.951  29.887  0.0159 -0.0892  0.1763
76934W        W19872  14.636  19.902  29.677  0.1905  0.1186 -0.0947
76935W        W19873  15.786  22.190  31.616  0.1736 -0.1991  0.1206
76936W        W19874  16.324  21.564  30.474 -0.1180  0.4450  0.2033
76937W        W19875  16.540  19.127  30.498 -0.0113  0.1623 -0.1187
76938W        W19876  16.298  18.956  29.572  0.1100 -0.0749  0.1273
76939W        W19877  17.311  19.915  31.311 -0.0534 -0.3000 -0.4250
76940W        W19878  16.666  18.943  30.052  0.1986 -0.0647  0.1504
76941W        W19879  16.235  19.652  30.359 -0.2665 -0.2529  0.1808
76942W        W19880  14.365  20.486  31.127 -0.2979  0.2040 -0.1397
76943W        W19881  16.047  19.551  29.535  0.2063 -0.0996  0.0016
76944W        W19882  16.517  19.918  29.883 -0.0550 -0.0637  0.2729
76945W        W19883  16.227  17.842  29.826 -0.1677  0.2806 -0.0769
76946W        W19884  16.627  18.680  30.829 -0.1309  0.0353 -0.0085
76947W        W19885  18.914  19.039  31.146  0.2803  0.0667 -0.4278
76948W        W19886  15.180  21.536  29.899  0.0769 -0.1131  0.1546
76949W        W19887  18.165  20.096  29.312 -0.1366 -0.0225 -0.1151
76950W        W19888  17.110  19.015  27.971 -0.0850  0.1523 -0.3758
76951W        W19889  15.141  19.600  29.277 -0.0838 -0.1447 -0.4287
76952W        W19890  17.304  21.098  29.875  0.0829 -0.0041  0.0755
76953W        W19891  17.120  21.062  28.528 -0.0914 -0.0517  0.2805
76954W        W19892  17.923  18.256  28.171 -0.1830  0.1756  0.0597
76955W        W19893  19.896  19.680  29.683 -0.2592  0.1228 -0.1137
76956W        W19894  16.157  20.558  30.757 -0.0010 -0.3061  0.0108
76957W        W19895  16.298  20.692  29.794 -0.1650  0.0908  0.2878
76958W        W19896  15.984  18.883  28.142  0.0323 -0.1710 -0.0532
76959W        W19897  13.209  20.909  29.953 -0.0484 -0.0139 -0.0508
76960W        W19898  15.600  19.647  30.291 -0.0557 -0.0187  0.0677
76961W        W19899  14.151  21.008  29.493 -0.2877 -0.2056 -0.0329
76962W        W19900  14.603  20.152  28.857  0.2505 -0.2284  0.3263
76963W        W19901  17.060  20.639  30.643 -0.1160 -0.0759  0.0626
76964W        W19902  19.435  19.781  30.021 -0.2943  0.0273  0.1772
76965W        W19903  19.488  18.779  30.468  0.1718  0.2644 -0.0144
76966W        W19904  13.529  24.786  18.317  0.2581 -0.0640 -0.0436
76967W        W19905  15.092  22.239  16.660 -0.2275 -0.1458  0.1874
76968W        W19906  16.448  22.063  15.955  0.0697 -0.2509 -0.1522
76969W        W19907  18.486  23.761  16.240 -0.2589 -0.0670 -0.0958
76970W        W19908  13.629  22.622  17.663  0.2036 -0.1855  0.3614
76971W        W19909  14.726  25.259  16.725  0.0467  0.0590  0.0278
76972W        W19910  15.411  22.663  17.902  0.0978 -0.2280  0.0501
76973W        W19911  16.830  24.330  18.239 -0.1100 -0.1257 -0.0914
76974W        W19912  18.509  26.164  17.639  0.1675 -0.0198  0.1955
76975W        W19913  16.616  23.768  15.362  0.1800 -0.1915  0.0318
76976W        W19914  14.896  24.113  18.421 -0.0703 -0.1709 -0.0304
76977W        W19915  15.553  26.088  18.266  0.0419 -0.0150  0.0910
76978W        W19916  17.293  21.271  16.094 -0.3855 -0.0085 -0.1975
76979W        W19917  14.330  22.655  16.759  0.0373  0.2773  0.0245
76980W        W19918  16.492  24.915  18.142 -0.2507  0.0922 -0.2188
76981W        W19919  14.386  25.267  17.099 -0.1150  0.3151  0.1492
76982W        W19920  15.659  24.080  18.870  0.1211 -0.0712 -0.0620
76983W        W19921  15.261  21.521  16.413  0.2076  0.1055  0.0475
76984W        W19922  15.692  24.188  15.612 -0.1894  0.3041 -0.1019
76985W        W19923  14.743  23.783  18.054 -0.1691 -0.1072 -0.0069
76986W        W19924  18.127  24.164  18.736 -0.0606 -0.3085 -0.0576
76987W        W19925  15.695  24.024  17.447 -0.1288 -0.3537 -0.4723
76988W        W19926  14.649  24.598  16.091 -0.1838  0.1748  0.0091
76989W        W19927  13.796  24.891  17.587 -0.2332 -0.3758  0.0450
76990W        W19928  13.962  24.255  19.389  0.2065 -0.3719  0.0704
76991W        W19929  18.877  22.659  16.535  0.1540 -0.3866 -0.1486
76992W        W19930  17.977  23.785  17.449  0.3037 -0.2444  0.3017
76993W        W19931  17.738  24.992  16.929 -0.2009 -0.3180 -0.0058
76994W        W19932  16.610  26.162  17.916 -0.1367  0.2708 -0.0887
76995W        W19933  18.980  22.933  18.782  0.1727 -0.0624 -0.0875
76996W        W19934  11.952  24.321  17.396  0.2273 -0.1050 -0.4576
76997W        W19935  13.805  25.118  18.057  0.2722  0.1343  0.0840
76998W        W19936  15.482  24.782  17.127 -0.0825 -0.1367 -0.2639
76999W        W19937  19.430  24.765  16.541 -0.1126  0.0692 -0.3358
77000W        W19938  19.881  26.634  18.655  0.1872 -0.1969 -0.1773
77001W        W19939  15.849  24.988  20.829  0.0065 -0.1657 -0.4305
77002W        W19940  14.433  24.938  15.773  0.0127 -0.1418 -0.0485
77003W        W19941  15.778  26.582  18.445  0.2190  0.0359  0.1595
77004W        W19942  15.469  26.424  19.184 -0.0979  0.0286 -0.0729
77005W        W19943  14.904  24.758  16.895  0.1116 -0.3723  0.2769
77006W        W19944  16.245  24.905  17.686  0.1705 -0.1077 -0.1861
77007W        W19945  15.512  26.230  16.522  0.0017 -0.0479  0.1759
77008W        W19946  14.082  23.881  17.259  0.0560  0.0424 -0.2228
77009W        W19947  13.993  24.844  19.002 -0.2203 -0.1665  0.5123
77010W        W19948  15.013  26.056  18.034 -0.1484 -0.0872  0.1627
77011W        W19949  17.984  23.748  18.505  0.0197  0.2451 -0.0951
77012W        W19950  13.420  24.900  17.027  0.0768  0.2339  0.2242
77013W        W19951  17.698  25.006  15.583  0.0913  0.1331  0.0552
77014W        W19952  15.366  21.866  15.270  0.0955 -0.0324 -0.3656
77015W        W19953  17.556  23.021  15.647 -0.1826 -0.0287  0.3131
77016W        W19954  17.161  24.188  17.228  0.1272  0.1029  0.0387
77017W        W19955  16.416  25.860  18.246  0.3377 -0.4101  0.1048
77018W        W19956  15.388  24.421  17.523  0.0636 -0.0154  0.4302
77019W        W19957  18.912  25.259  18.591 -0.0027 -0.0094 -0.1154
77020W        W19958  14.775  23.080  15.539  0.1848  0.1273 -0.0189
77021W        W19959  16.035  24.830  17.287  0.1082  0.0272  0.1382
77022W        W19960  14.213  25.739  18.455 -0.0163  0.1596 -0.3055
77023W        W19961  14.778  23.961  16.357 -0.0755 -0.1106 -0.0339
77024W        W19962  17.549  26.183  15.787  0.2773  0.0254  0.0851
77025W        W19963  18.045  25.747  17.660  0.1272  0.0781 -0.0083
77026W        W19964  16.429  26.065  16.783 -0.0186  0.3864 -0.1536
77027W        W19965  16.057  22.481  15.651 -0.2303 -0.0152 -0.0004
77028W        W19966  14.842  23.363  20.127 -0.2171 -0.1452 -0.1095
77029W        W19967  15.524  24.144  19.525  0.1195 -0.2205 -0.0689
77030W        W19968  15.072  21.905  14.899 -0.0816  0.2171  0.1709
77031W        W19969  17.392  24.556  19.135 -0.2147  0.1071  0.2462
77032W        W19970  14.764  25.580  20.211 -0.1403 -0.0934 -0.2187
77033W        W19971  18.966  23.859  16.759 -0.0419  0.0297 -0.2146
77034W        W19972  14.609  23.927  17.412 -0.0470 -0.1866  0.0466
77035W        W19973  18.218  24.093  17.739  0.3342 -0.0481  0.0970
77036W        W19974  17.786  24.350  16.717 -0.1948  0.0045 -0.0656
77037W        W19975  17.399  22.998  19.021 -0.0081 -0.0882 -0.1903
77038W        W19976  17.700  22.892  17.574 -0.1820  0.0968 -0.2748
77039W        W19977  14.999  24.312  15.867  0.2418 -0.1950 -0.0840
77040W        W19978  15.527  23.994  16.972  0.0473 -0.0494  0.3158
77041W        W19979  18.379  25.835  18.800  0.1718  0.5948 -0.3113
77042W        W19980  18.090  24.564  16.376 -0.2600  0.1326  0.0245
77043W        W19981  15.227  25.597  17.870  0.4595 -0.1493  0.0289
77044W        W19982  15.137  23.934  18.831  0.1035  0.0906  0.3409
77045W        W19983  16.950  24.810  19.180 -0.2318  0.1411 -0.3017
77046W        W19984  14.273  24.929  14.898  0.0319 -0.3985  0.6753
77047W        W19985  14.224  23.613  18.717 -0.0006  0.1182  0.3492
77048W        W19986  14.134  24.650  15.386 -0.1523 -0.0241  0.0848
77049W        W19987  15.318  22.865  16.055  0.1010  0.2137  0.1081
77050W        W19988  14.996  24.704  17.703 -0.1308  0.2532 -0.2746
77051W        W19989  18.562  24.400  18.611  0.0207 -0.3118  0.0710
77052W        W19990  14.580  22.437  17.953  0.3848  0.0336  0.0291
77053W        W19991  16.756  22.879  15.623 -0.1486  0.3424  0.0932
77054W        W19992  13.615  23.307  16.848 -0.2479 -0.1352  0.0764
77055W        W19993  17.751  25.449  17.106  0.0613  0.4102  0.1763
77056W        W19994  18.056  23.219  15.777 -0.0357 -0.0350  0.2652
77057W        W19995  17.971  24.988  16.481 -0.1420  0.1398  0.3945
77058W        W19996  13.265  22.652  19.033  0.0360  0.0581  0.1292
77059W        W19997  16.146  23.459  16.321 -0.1699  0.0245  0.2582
77060W        W19998  15.874  23.492  17.437  0.1458 -0.1296  0.1079
77061W        W19999  13.390  23.746  17.638 -0.0015  0.0306  0.1164
77062W        W20000  19.090  24.851  18.389 -0.0544 -0.0130 -0.0216
77063W        W20001  15.138  23.121  16.503  0.0876 -0.0259 -0.1368
77064W        W20002  18.517  24.464  17.531  0.1395  0.0042 -0.0139
77065W        W20003  15.630  22.814  15.644  0.0528  0.0479 -0.2476
77066W        W20004  14.076  23.589  15.823  0.1474 -0.0028  0.2011
77067W        W20005  17.297  23.434  17.939 -0.0035  0.0108 -0.2013
77068W        W20006  15.996  26.162  16.484  0.1064  0.0588 -0.0790
77069W        W20007  18.248  26.363  19.872 -0.0211 -0.2747 -0.1489
77070W        W20008  15.389  24.667  16.621 -0.0045 -0.0054  0.3256
77071W        W20009  14.446  23.040  18.466 -0.2486  0.2026 -0.1379
77072W        W20010  16.601  21.395  15.483  0.0174  0.1410  0.2053
77073W        W20011  14.159  24.796  17.960  0.1959  0.1194  0.0754
77074W        W20012  15.738  25.227  17.216 -0.2676  0.0179  0.0092
77075W        W20013  15.862  22.651  15.067  0.4454 -0.0344 -0.1011
77076W        W20014  18.515  26.068  15.775 -0.0659  0.1271 -0.2973
77077W        W20015  15.341  22.853  15.195 -0.0347 -0.1447 -0.2830
77078W        W20016  14.669  25.434  18.698  0.2511 -0.3449  0.1159
77079W        W20017  17.099  23.408  18.422  0.2055  0.0434  0.1462
77080W        W20018  19.428  24.542  18.742 -0.0765  0.4552  0.0815
77081W        W20019  16.135  23.769  15.907 -0.0167  0.3206 -0.1321
77082W        W20020  14.819  21.781  15.405  0.1960 -0.3177  0.0554
77083W        W20021  15.312  25.083  18.074 -0.0982 -0.0104  0.1253
77084W        W20022  14.979  24.970  16.416  0.0774 -0.0494 -0.3186
77085W        W20023  16.795  24.668  17.704 -0.2188  0.1924 -0.2532
77086W        W20024  16.182  24.953  15.582  0.3723 -0.0295  0.0943
77087W        W20025  17.958  23.343  17.239 -0.1802 -0.0393  0.1754
77088W        W20026  13.563  24.871  18.791 -0.0217  0.4682  0.1606
77089W        W20027  17.150  24.412  18.646  0.0139 -0.2485  0.0651
77090W        W20028  15.047  22.662  15.614 -0.1795 -0.3220 -0.0582
77091W        W20029  15.403  26.106  17.764 -0.1197 -0.0190  0.0340
77092W        W20030  16.716  22.394  15.548 -0.1837  0.2034 -0.2282
77093W        W20031  18.771  23.390  16.457  0.3740  0.3959 -0.1012
77094W        W20032  15.808  24.440  16.931 -0.1785 -0.1208 -0.2570
77095W        W20033  18.298  25.096  16.802  0.0141  0.1333 -0.0992
77096W        W20034  17.057  23.535  17.063 -0.1535  0.0792 -0.1696
77097W        W20035  16.958  22.469  14.277  0.0411 -0.1346  0.1702
77098W        W20036  15.193  24.495  20.096 -0.1291  0.3905 -0.0519
77099W        W20037  16.277  24.026  16.330  0.1325 -0.1533 -0.0242
77100W        W20038  17.595  24.248  18.387  0.0475  0.0303  0.1383
77101W        W20039  16.723  22.493  14.755 -0.0440 -0.1549  0.3190
77102W        W20040  17.263  25.002  17.055 -0.1823  0.0630 -0.3151
77103W        W20041  12.825  24.380  17.752  0.1551  0.5439 -0.1448
77104W        W20042  16.255  26.681  17.557  0.0680  0.2496 -0.0345
77105W        W20043  17.926  26.171  17.939 -0.3933  0.3446 -0.0244
77106W        W20044  16.440  23.721  16.675  0.2035  0.0263  0.0776
77107W        W20045  15.125  23.571  15.355 -0.2757  0.1547 -0.0990
77108W        W20046  16.770  22.850  15.153 -0.2620  0.0636 -0.0782
77109W        W20047  14.842  25.545  17.158 -0.3594  0.1369 -0.3697
77110W        W20048  19.082  23.836  18.168 -0.2704 -0.1202 -0.2203
77111W        W20049  17.779  23.863  17.982 -0.0983 -0.0704 -0.0309
77112W        W20050  15.284  23.031  16.976 -0.0926  0.2037  0.0396
77113W        W20051  17.676  25.046  18.985  0.0380 -0.0510  0.0084
77114W        W20052  17.544  24.075  15.735  0.2314 -0.0608  0.0330
77115W        W20053  16.814  23.994  16.307 -0.1325  0.0764 -0.2668
77116W        W20054  15.617  23.256  15.295  0.2401 -0.0601 -0.1153
77117W        W20055  15.203  24.301  19.162 -0.2672 -0.4049  0.1900
77118W        W20056  12.902  24.293  19.172  0.1978  0.1595 -0.1191
77119W        W20057  14.212  25.326  18.784  0.0925 -0.2096 -0.3893
77120W        W20058  16.293  25.823  17.704 -0.0107  0.2047  0.4761
77121W        W20059  17.594  23.638  17.171 -0.1061  0.0681 -0.0478
77122W        W20060  14.717  24.189  18.892 -0.1221 -0.0012  0.1315
77123W        W20061  16.377  22.541  15.185 -0.3261 -0.1934 -0.2648
77124W        W20062  16.255  25.203  16.524  0.2277  0.0847 -0.2099
77125W        W20063  14.463  23.633  16.154  0.2335 -0.3234  0.1465
77126W        W20064  16.164  24.217  17.312  0.1864 -0.1145  0.1524
77127W        W20065  15.024  23.525  17.646 -0.0396  0.3607  0.2824
77128W        W20066  15.671  26.388  16.958 -0.2054 -0.1675  0.1214
77129W        W20067  16.770  25.006  17.255 -0.2253 -0.1543 -0.1706
77130W        W20068  14.733  25.948  17.682  0.2228 -0.2423  0.2931
77131W        W20069  17.584  22.922  16.560  0.2147 -0.1211  0.1795
77132W        W20070  14.591  25.493  17.602 -0.1227 -0.0746 -0.2072
77133W        W20071  15.962  21.841  14.719  0.0665  0.1154 -0.2774
77134W        W20072  15.703  23.802  16.158  0.3189  0.1140  0.2879
77135W        W20073  15.738  22.491  16.396 -0.1154  0.0461  0.0282
77136W        W20074  19.264  23.293  16.340  0.0430 -0.0247 -0.1381
77137W        W20075  14.738  23.276  18.116 -0.2018 -0.2228 -0.4983
77138W        W20076  17.650  24.123  17.189 -0.0054 -0.1678  0.0232
77139W        W20077  13.350  24.219  17.807  0.0616  0.2287  0.0118
77140W        W20078  17.738  24.483  18.781 -0.2323  0.0893  0.1473
77141W        W20079  18.768  22.108  15.028  0.2369  0.0107 -0.1260
77142W        W20080  17.263  25.994  19.970 -0.0261  0.1614  0.1868
77143W        W20081  13.353  24.541  19.117 -0.0370  0.2425 -0.0801
77144W        W20082  14.360  22.783  15.534 -0.2025 -0.0087 -0.0846
77145W        W20083  17.492  23.669  18.400 -0.1945  0.3098 -0.3377
77146W        W20084  14.943  23.922  16.948  0.0315  0.0674  0.1174
77147W        W20085  14.116  24.291  16.899 -0.1896 -0.3466 -0.0108
77148W        W20086  17.900  26.414  18.351 -0.3220 -0.2503 -0.0950
77149W        W20087  14.996  24.417  15.182  0.1032  0.3531  0.1127
77150W        W20088  14.208  25.850  17.723 -0.2011 -0.1660  0.0570
77151W        W20089  15.101  23.341  19.162  0.0775 -0.0749  0.1825
77152W        W20090  16.979  23.797  19.028 -0.4971 -0.1147  0.0658
77153W        W20091  15.192  23.473  17.156 -0.1957  0.0170  0.1191
77154W        W20092  16.208  22.223  16.413  0.3580  0.0798  0.0043
77155W        W20093  16.284  22.030  15.446  0.1682  0.2448 -0.1973
77156W        W20094  17.185  24.689  18.147 -0.2057 -0.0084 -0.0487
77157W        W20095  18.401  23.515  17.533 -0.5161 -0.0408  0.0493
77158W        W20096  14.569  26.355  21.470 -0.1557 -0.2342  0.2433
77159W        W20097  15.211  24.031  17.351  0.1372 -0.2021  0.0423
77160W        W20098  17.029  24.516  16.299 -0.2719 -0.1985  0.3572
77161W        W20099  14.566  24.376  17.900  0.0785 -0.1604 -0.1011
77162W        W20100  13.714  23.546  17.329  0.2981  0.2198  0.2791
77163W        W20101  12.989  24.033  18.328 -0.1041 -0.0863  0.0668
77164W        W20102  14.134  23.865  16.447  0.0647 -0.0650 -0.0953
77165W        W20103  16.137  23.294  16.841  0.1907  0.0175 -0.1867
77166W        W20104  15.826  24.945  16.768 -0.2461 -0.3182  0.2573
77167W        W20105  14.187  23.368  17.296  0.0994 -0.0596 -0.1078
77168W        W20106  14.896  25.060  18.358 -0.1831 -0.2272  0.2401
77169W        W20107  17.924  22.832  16.193 -0.0973 -0.1499  0.1994
77170W        W20108  16.641  25.409  16.303  0.0759  0.1357  0.3022
77171W        W20109  15.469  23.335  16.227 -0.0924  0.1165 -0.1825
77172W        W20110  19.045  24.347  18.489 -0.1047 -0.2628  0.0375
77173W        W20111  16.358  23.858  14.911  0.0350  0.0057 -0.2378
77174W        W20112  16.573  23.347  19.670  0.4257  0.1155 -0.1573
77175W        W20113  16.104  23.742  17.097  0.1139  0.0228 -0.0014
77176W        W20114  17.196  24.677  17.385 -0.1908 -0.0101 -0.0668
77177W        W20115  12.793  23.686  16.479 -0.0056 -0.0851  0.0426
77178W        W20116  15.499  25.596  19.674  0.2310 -0.3108  0.0268
77179W        W20117  15.001  25.517  19.653 -0.1599 -0.0309 -0.0346
77180W        W20118  16.809  23.088  17.259  0.0953 -0.1291  0.5682
77181W        W20119  16.767  21.645  15.919 -0.4293  0.4813  0.0186
77182W        W20120  16.021  24.197  18.342  0.0400 -0.3733  0.1329
77183W        W20121  18.506  24.850  16.351 -0.2053  0.0797  0.0701
77184W        W20122  15.930  23.458  14.884  0.0246 -0.0326  0.2353
77185W        W20123  17.438  25.309  16.643 -0.0545  0.0622 -0.0069
77186W        W20124  14.163  26.567  18.288  0.0960 -0.0639 -0.3620
77187W        W20125  16.572  23.038  16.140  0.0400  0.2120 -0.0570
77188W        W20126  15.504  23.705  15.671 -0.1619 -0.3368  0.1252
77189W        W20127  13.843  24.409  18.789 -0.0036 -0.1529 -0.0203
77190W        W20128  15.009  22.114  17.203 -0.0681  0.0269  0.1350
77191W        W20129  16.591  25.255  17.662  0.1222 -0.2750 -0.1361
77192W        W20130  17.067  23.021  16.333  0.1261  0.2683  0.0671
77193W        W20131  16.550  24.124  17.902 -0.0923 -0.2400 -0.0717
77194W        W20132  17.060  23.889  18.552  0.0329  0.0724 -0.0425
77195W        W20133  15.434  23.855  18.419  0.2330  0.2977  0.0217
77196W        W20134  13.809  23.506  17.882 -0.4013  0.0101  0.0800
77197W        W20135  17.607  25.381  17.899  0.0990 -0.0285  0.0166
77198W        W20136  18.212  23.537  15.378 -0.0729  0.1959  0.1618
77199W        W20137  18.170  23.094  17.655 -0.1003  0.5491  0.1640
77200W        W20138  17.072  24.653  15.505 -0.0087 -0.1547  0.0749
77201W        W20139  17.039  23.782  15.698 -0.2942 -0.0875 -0.0979
77202W        W20140  14.941  23.034  17.325 -0.1926  0.1280 -0.3683
77203W        W20141  15.054  24.542  18.171 -0.2107 -0.3844  0.1005
77204W        W20142  14.792  22.782  14.953 -0.3178 -0.1594  0.3401
77205W        W20143  16.876  23.317  18.853 -0.0004 -0.0986  0.0909
77206W        W20144  17.237  25.063  15.753 -0.0298 -0.0897  0.2028
77207W        W20145  18.187  24.109  18.228  0.0603  0.0285 -0.0600
77208W        W20146  17.225  22.110  15.477 -0.0569 -0.1795 -0.0153
77209W        W20147  16.185  22.942  16.459 -0.0457 -0.3569  0.0043
77210W        W20148  14.245  26.118  19.367 -0.2243 -0.0076 -0.1352
77211W        W20149  15.798  21.471  15.930 -0.0400  0.4156  0.0884
77212W        W20150  14.436  24.266  16.444  0.0955  0.2237  0.2272
77213W        W20151  17.556  25.119  17.472 -0.0825  0.4554 -0.0824
77214W        W20152  17.704  25.631  19.939  0.2458 -0.2085 -0.2450
77215W        W20153  16.235  21.591  15.682 -0.0097  0.0732  0.1746
77216W        W20154  17.742  22.789  18.608 -0.1180  0.0504 -0.0257
77217W        W20155  14.084  25.579  16.889  0.4691  0.2980  0.0450
77218W        W20156  16.705  23.969  17.006  0.0691 -0.0519  0.2648
77219W        W20157  14.708  24.912  17.354  0.2058  0.2398 -0.0078
77220W        W20158  13.358  25.279  18.168  0.2315  0.2015 -0.0619
77221W        W20159  15.903  26.918  17.004  0.3703 -0.1852 -0.1141
77222W        W20160  16.980  23.112  17.822 -0.2629 -0.2194 -0.2931
77223W        W20161  18.269  22.597  17.766  0.2226 -0.1775  0.0315
77224W        W20162  14.704  23.536  16.600 -0.4370  0.0130  0.1764
77225W        W20163  17.429  23.784  17.632 -0.2581 -0.0878  0.2686
77226W        W20164  18.109  25.855  19.683  0.3315 -0.4012 -0.0667
77227W        W20165  15.320  23.585  16.658  0.1437 -0.0403 -0.0557
77228W        W20166  16.458  26.252  19.512 -0.2098 -0.0736 -0.2180
77229W        W20167  17.462  24.287  17.654  0.3386 -0.1561  0.2281
77230W        W20168  15.600  24.909  17.672  0.2046 -0.2390  0.2567
77231W        W20169  13.381  23.302  18.159  0.0176  0.1316  0.3617
77232W        W20170  14.287  24.472  19.049 -0.1001  0.0477  0.0251
77233W        W20171  17.749  23.439  16.678  0.0012 -0.1699 -0.2183
77234W        W20172  16.002  21.925  16.080 -0.0663  0.2202  0.0651
77235W        W20173  15.802  24.248  16.471  0.0416 -0.0130  0.1476
77236W        W20174  13.816  26.809  19.896  0.1352  0.5330 -0.0630
77237W        W20175  12.329  24.505  17.770  0.0815  0.0591 -0.0806
77238W        W20176  14.880  26.660  17.165 -0.0938  0.2558 -0.2350
77239W        W20177  17.084  23.162  15.809 -0.1027 -0.1337 -0.0314
77240W        W20178  15.504  24.266  16.040  0.2167 -0.1366 -0.1733
77241W        W20179  17.081  26.115  17.329 -0.0498 -0.0702  0.2514
77242W        W20180  16.686  21.663  14.300  0.1582  0.2362  0.0335
77243W        W20181  14.510  24.949  18.653  0.0494  0.0594 -0.2183
77244W        W20182  14.207  25.169  15.352  0.1151  0.2249 -0.0217
77245W        W20183  17.134  25.069  16.312 -0.1064 -0.3771 -0.2810
77246W        W20184  14.359  24.699  17.034 -0.0223  0.0420 -0.0786
77247W        W20185  17.026  24.217  19.303 -0.2596 -0.0452 -0.0006
77248W        W20186  17.930  22.009  15.548  0.1388 -0.0410 -0.1210
77249W        W20187  17.962  23.795  16.899  0.2123  0.1641 -0.3043
77250W        W20188  18.898  23.439  17.055  0.1100 -0.0878  0.1383
77251W        W20189  16.829  25.379  19.115 -0.0068  0.3651  0.1679
77252W        W20190  15.316  24.856  18.519  0.2808  0.1695  0.4256
77253W        W20191  15.521  21.025  15.112 -0.0850  0.0655  0.0381
77254W        W20192  15.231  23.508  18.075  0.2622 -0.1314 -0.2558
77255W        W20193  17.205  22.652  18.695 -0.0255  0.0169  0.1136
77256W        W20194  13.873  25.093  20.447  0.6278 -0.2159 -0.0865
77257W        W20195  16.851  25.239  16.765  0.0030  0.0118 -0.0222
77258W        W20196  16.064  23.633  15.383  0.1738  0.1561 -0.0731
77259W        W20197  16.480  23.950  18.404 -0.2483  0.0514  0.1138
77260W        W20198  19.637  22.611  17.990 -0.1062 -0.0672 -0.2103
77261W        W20199  16.836  24.881  15.954  0.1640 -0.2761  0.0171
77262W        W20200  16.205  24.136  16.812 -0.4150  0.1013  0.3041
77263W        W20201  16.361  24.700  16.954 -0.1056  0.0764 -0.1453
77264W        W20202  15.154  25.872  17.449 -0.0371 -0.0237  0.1227
77265W        W20203  15.242  25.147  16.799 -0.2187 -0.0371  0.0659
77266W        W20204  14.797  22.797  16.045 -0.1921 -0.2977 -0.1554
77267W        W20205  17.608  23.208  16.078 -0.0302  0.0806  0.1123
77268W        W20206  15.384  23.089  18.263  0.0155  0.1787  0.0294
77269W        W20207  20.017  22.859  18.274  0.2054 -0.1261  0.0289
77270W        W20208  16.623  24.348  17.394 -0.0254 -0.2312 -0.0037
77271W        W20209  17.076  24.267  15.875  0.2660  0.1296  0.2807
77272W        W20210  16.588  25.513  17.185  0.1095  0.0453  0.3416
77273W        W20211  14.833  22.785  18.199  0.0647 -0.2570  0.2307
77274W        W20212  16.601  23.938  15.817 -0.1422  0.1878  0.2378
77275W        W20213  16.796  25.205  18.464  0.0109 -0.0103  0.2382
77276W        W20214  15.334  24.051  16.471  0.1102 -0.2576  0.1557
77277W        W20215  17.828  25.357  19.466  0.1992 -0.2677 -0.0553
77278W        W20216  15.853  23.734  16.612 -0.0500  0.2011  0.1373
77279W        W20217  16.932  22.628  16.058 -0.1423 -0.0475  0.0008
77280W        W20218  14.824  24.387  17.332  0.3224  0.1173 -0.2068
77281W        W20219  16.284  24.516  17.997  0.3539  0.1875 -0.0109
77282W        W20220  17.378  26.856  19.130 -0.0551  0.0794 -0.1738
77283W        W20221  13.011  23.472  17.488 -0.0123 -0.1185 -0.2335
77284W        W20222  18.783  24.896  16.797  0.0525 -0.0012 -0.1552
77285W        W20223  19.302  23.845  17.187  0.3691  0.2867 -0.3413
77286W        W20224  15.625  25.273  14.935 -0.0280 -0.3391  0.2206
77287W        W20225  18.188  24.207  17.210 -0.2202 -0.1776 -0.2412
77288W        W20226  18.368  26.472  18.099 -0.0531 -0.0994 -0.1827
77289W        W20227  14.292  23.588  18.157  0.1706 -0.1505  0.2090
77290W        W20228  16.964  25.899  18.239  0.1375 -0.0425  0.2964
77291W        W20229  17.181  25.034  17.738  0.0438 -0.0345  0.0525
77292W        W20230  17.022  22.136  15.933 -0.0851  0.1723  0.1252
77293W        W20231  16.549  23.699  18.815 -0.0905 -0.2557  0.1168
77294W        W20232  12.073  25.921  18.089 -0.0998 -0.2030 -0.0456
77295W        W20233  17.475  25.841  17.545  0.2240  0.1547  0.3809
77296W        W20234  18.301  22.982  18.108 -0.1307 -0.0064  0.1701
77297W        W20235  16.571  23.553  16.152 -0.0808  0.1623 -0.0100
77298W        W20236  18.493  23.142  18.898 -0.1991  0.0793 -0.0017
77299W        W20237  16.805  25.671  18.677 -0.0143 -0.4479 -0.3602
77300W        W20238  14.104  26.202  18.611  0.2965 -0.1259 -0.1776
77301W        W20239  14.661  23.535  15.227  0.0804  0.1774  0.1956
77302W        W20240  15.953  24.964  19.155 -0.0641  0.1355 -0.0177
77303W        W20241  13.726  24.533  17.915 -0.3430  0.0472 -0.1724
77304W        W20242  15.564  24.560  18.088  0.2960  0.0249  0.0938
77305W        W20243  17.161  25.512  17.778 -0.6965  0.1606  0.1145
77306W        W20244  17.172  22.617  15.585 -0.2176 -0.1033 -0.2091
77307W        W20245  18.217  25.771  17.151 -0.4441 -0.0738 -0.1840
77308W        W20246  15.384  22.770  17.378  0.0341 -0.0870 -0.3239
77309W        W20247  18.948  22.121  16.428 -0.1530 -0.1123  0.1228
77310W        W20248  17.540  21.732  15.288 -0.2529 -0.0130 -0.1056
77311W        W20249  16.554  23.383  18.322  0.2401 -0.2583  0.0568
77312W        W20250  14.483  24.086  15.964 -0.1456  0.1260  0.0105
77313W        W20251  15.234  24.668  16.127 -0.2546 -0.0524 -0.0474
77314W        W20252  15.196  24.388  17.002 -0.3308 -0.1110 -0.0026
77315W        W20253  16.266  23.021  17.284  0.1483  0.0524  0.0504
77316W        W20254  14.513  23.461  17.674 -0.3272 -0.2272  0.0008
77317W        W20255  14.660  23.469  17.182 -0.2585  0.1250 -0.0467
77318W        W20256  15.850  23.300  15.756 -0.1584 -0.0415  0.0511
77319W        W20257  17.591  23.681  16.236  0.1512 -0.1069  0.0538
77320W        W20258  15.555  21.985  16.535  0.1302  0.0600 -0.0177
77321W        W20259  15.299  22.663  16.540  0.0040  0.0397 -0.0754
77322W        W20260  16.191  25.263  16.998  0.1883  0.2046 -0.0938
77323W        W20261  16.693  24.722  18.799 -0.0862  0.0719  0.3183
77324W        W20262  16.668  22.113  15.065  0.1402 -0.1179  0.0484
77325W        W20263  18.902  26.329  18.225  0.0948  0.2369  0.1148
77326W        W20264  13.977  24.185  15.453  0.1133 -0.1251 -0.0938
77327W        W20265  15.492  23.994  19.966  0.2240 -0.0738 -0.1669
77328W        W20266  15.130  24.144  20.466 -0.0797  0.1733 -0.3320
77329W        W20267  14.765  22.581  16.493  0.1609  0.0300  0.1659
77330W        W20268  16.536  23.372  15.663  0.1768 -0.1030 -0.2373
77331W        W20269  14.935  24.463  16.478  0.0817  0.1073 -0.2288
77332W        W20270  17.713  25.063  16.075  0.1214 -0.2693  0.2052
77333W        W20271  15.906  24.516  17.652 -0.0742  0.0480 -0.3557
77334W        W20272  16.361  26.678  19.189 -0.0381 -0.2521  0.1596
77335W        W20273  14.440  22.728  18.927  0.0159 -0.1945 -0.1067
77336W        W20274  17.306  24.392  16.783 -0.0131  0.2739 -0.0267
77337W        W20275  16.565  24.853  19.784 -0.0639 -0.2045  0.0456
77338W        W20276  18.073  25.094  17.242 -0.0652  0.4319 -0.0884
77339W        W20277  18.119  22.163  16.880 -0.1678 -0.0864  0.0142
77340W        W20278  16.187  24.540  16.485  0.4139  0.3847 -0.1881
77341W        W20279  15.157  22.624  18.524  0.1848  0.1821  0.1615
77342W        W20280  14.568  24.532  18.416  0.0609  0.0873  0.0399
77343W        W20281  18.497  25.977  18.260 -0.1890 -0.0241 -0.3738
77344W        W20282  16.089  22.995  15.287  0.1091  0.0954 -0.2160
77345W        W20283  18.113  22.835  16.695 -0.2665  0.0614  0.0734
77346W        W20284  15.797  24.749  16.243 -0.1212 -0.0089  0.0210
77347W        W20285  13.803  24.031  17.802 -0.0517 -0.1172 -0.1121
77348W        W20286  16.248  22.909  14.856 -0.1121 -0.4332  0.1165
77349W        W20287  14.949  24.723  18.843 -0.3520  0.1373 -0.1615
77350W        W20288  17.440  24.146  16.332 -0.1055  0.0642 -0.2288
77351W        W20289  16.327  25.487  18.681  0.1090  0.0234 -0.1059
77352W        W20290  16.272  22.559  14.474  0.1729 -0.3412 -0.2723
77353W        W20291  17.844  25.488  16.447  0.2897 -0.3150 -0.4120
77354W        W20292  14.086  26.758  18.773  0.1489  0.0077  0.1546
77355W        W20293  17.133  26.854  19.630  0.0101  0.1417 -0.4911
77356W        W20294  15.596  25.935  19.213  0.0673 -0.0859 -0.3187
77357W        W20295  17.764  23.385  17.672 -0.0049 -0.1670 -0.4427
77358W        W20296  14.879  22.017  17.728 -0.5263 -0.0793  0.3212
77359W        W20297  15.687  23.899  15.214  0.0837  0.0817  0.0611
77360W        W20298  14.174  24.349  17.532 -0.0195 -0.1104  0.0833
77361W        W20299  19.374  23.545  17.840 -0.1643 -0.1098  0.0344
77362W        W20300  14.928  23.240  16.073 -0.4063  0.2033 -0.4309
77363W        W20301  16.287  22.940  15.741 -0.2479 -0.0858  0.0229
77364W        W20302  15.873  24.935  18.129 -0.0690  0.1536  0.0958
77365W        W20303  15.577  24.079  17.922 -0.3063  0.0162 -0.1754
77366W        W20304  15.372  24.703  22.634  0.1194  0.0471  0.1943
77367W        W20305  15.542  23.749  20.411 -0.0316 -0.0528  0.1216
77368W        W20306  17.836  23.756  19.022  0.2252  0.4476 -0.2282
77369W        W20307  18.413  25.427  18.529  0.3143 -0.0353 -0.2512
77370W        W20308  13.527  23.276  18.770  0.0250  0.1796 -0.0906
77371W        W20309  18.167  26.541  21.332 -0.1850 -0.2582  0.0644
77372W        W20310  15.760  21.905  20.547 -0.0464  0.1044  0.1782
77373W        W20311  15.428  26.445  22.457  0.5954  0.0256 -0.1335
77374W        W20312  17.290  26.071  22.702  0.0890 -0.1354  0.1665
77375W        W20313  17.629  24.689  19.728 -0.0542  0.0976  0.2077
77376W        W20314  15.330  22.941  20.303  0.0106 -0.2308  0.0554
77377W        W20315  14.937  24.437  22.728 -0.1317  0.3518  0.0362
77378W        W20316  16.811  22.913  18.504  0.0027 -0.1260 -0.1783
77379W        W20317  14.411  23.651  20.772  0.2666 -0.1059 -0.1331
77380W        W20318  16.340  24.990  21.582 -0.1470  0.1300 -0.2651
77381W        W20319  13.361  23.960  19.229  0.1464 -0.0418 -0.0169
77382W        W20320  15.856  23.052  20.210 -0.0187  0.1781  0.0650
77383W        W20321  14.581  24.794  21.781 -0.2136  0.1533 -0.1780
77384W        W20322  16.032  26.882  19.764  0.1577  0.2167  0.0855
77385W        W20323  17.131  23.837  21.438  0.0369 -0.0250  0.1037
77386W        W20324  16.039  21.665  21.051 -0.0047  0.2225  0.2097
77387W        W20325  15.630  24.910  19.504 -0.1206  0.1237  0.1085
77388W        W20326  13.818  23.796  18.403  0.0411  0.1442 -0.1435
77389W        W20327  14.988  23.907  20.931  0.0861 -0.2457 -0.1793
77390W        W20328  13.620  24.305  22.838  0.2083 -0.0597  0.3321
77391W        W20329  17.361  23.542  18.846 -0.1397  0.0527  0.3377
77392W        W20330  16.084  24.116  21.192  0.0096  0.0773  0.2615
77393W        W20331  15.926  27.405  21.307 -0.1483 -0.1990 -0.0700
77394W        W20332  15.921  25.469  21.647  0.2213 -0.0110  0.2493
77395W        W20333  17.565  23.972  22.010 -0.0333 -0.1454 -0.0861
77396W        W20334  14.508  25.469  22.029  0.0804  0.1966 -0.2036
77397W        W20335  14.605  25.262  20.706 -0.4433 -0.1446  0.0459
77398W        W20336  15.574  25.493  21.295 -0.1999  0.2261 -0.0321
77399W        W20337  16.257  24.586  21.091  0.0390  0.2461  0.1105
77400W        W20338  16.764  24.703  22.844  0.2387 -0.1137 -0.0041
77401W        W20339  15.869  25.875  23.115  0.2142 -0.3047  0.1614
77402W        W20340  13.797  24.736  19.554  0.6578 -0.3983 -0.1471
77403W        W20341  16.996  26.169  21.592 -0.1999 -0.0120  0.1977
77404W        W20342  13.674  25.690  23.824 -0.2007  0.1624 -0.2898
77405W        W20343  15.498  23.457  22.805  0.4302  0.1454  0.3321
77406W        W20344  16.800  25.177  20.575  0.1052 -0.1485 -0.0689
77407W        W20345  15.411  26.237  20.788 -0.0322  0.1727 -0.2494
77408W        W20346  15.955  24.546  22.182  0.1475  0.0639  0.2393
77409W        W20347  13.643  24.614  23.839  0.0664 -0.2943 -0.1507
77410W        W20348  14.506  25.464  21.348  0.1443 -0.2111 -0.2923
77411W        W20349  18.643  24.190  22.141  0.4229 -0.2265 -0.1275
77412W        W20350  13.139  24.940  19.925 -0.1132 -0.3510  0.1572
77413W        W20351  16.051  24.022  17.749 -0.1164 -0.0013  0.1984
77414W        W20352  14.928  23.262  19.632  0.0618 -0.1690  0.2218
77415W        W20353  16.695  24.194  18.792 -0.0057 -0.1998 -0.2773
77416W        W20354  15.428  23.364  19.998  0.0170  0.2125 -0.2034
77417W        W20355  16.090  25.813  22.615 -0.1322 -0.1345  0.0979
77418W        W20356  15.929  24.031  20.597  0.0463 -0.1687  0.2634
77419W        W20357  15.982  23.781  22.558 -0.1796 -0.0852  0.1952
77420W        W20358  14.738  25.915  19.432  0.1918 -0.0015  0.2097
77421W        W20359  15.882  24.053  22.101 -0.2741  0.1598 -0.0715
77422W        W20360  16.516  25.746  22.315  0.1698  0.1301 -0.1434
77423W        W20361  15.003  23.139  21.204 -0.3772  0.2637  0.1693
77424W        W20362  16.439  25.067  19.153  0.0899 -0.0929 -0.0890
77425W        W20363  16.998  26.194  20.415  0.1459  0.3050  0.0483
77426W        W20364  15.961  25.818  19.759  0.0754  0.1056  0.1530
77427W        W20365  14.196  23.781  17.739  0.0896  0.0118 -0.1167
77428W        W20366  13.690  24.100  22.009  0.0339  0.0613 -0.1248
77429W        W20367  14.387  23.281  22.806  0.0749 -0.2625 -0.3242
77430W        W20368  16.371  22.562  18.463 -0.0061  0.1350  0.1227
77431W        W20369  18.007  24.852  22.682  0.2940  0.1019  0.0640
77432W        W20370  15.266  26.194  22.011  0.1683 -0.0194 -0.3303
77433W        W20371  18.455  23.836  20.829 -0.0079 -0.3977  0.1932
77434W        W20372  16.097  26.586  21.087 -0.1278  0.0269  0.4545
77435W        W20373  16.969  25.694  22.439 -0.0196 -0.1209 -0.0388
77436W        W20374  16.736  25.499  18.048 -0.2738 -0.1666  0.3771
77437W        W20375  17.239  22.739  20.941 -0.3007 -0.0210 -0.0043
77438W        W20376  15.726  23.515  22.063 -0.2743  0.1206 -0.1079
77439W        W20377  14.977  24.148  19.745  0.0431 -0.0082 -0.0994
77440W        W20378  16.095  25.388  17.481  0.1715  0.1533 -0.0423
77441W        W20379  18.517  24.234  21.617  0.2715  0.0488  0.0505
77442W        W20380  17.247  25.393  20.633 -0.0476  0.2065  0.3025
77443W        W20381  13.796  24.834  22.494 -0.1309 -0.1138  0.1188
77444W        W20382  14.336  23.523  21.743 -0.0340  0.0760 -0.0037
77445W        W20383  15.985  24.280  23.420 -0.0240 -0.3055  0.1451
77446W        W20384  14.202  26.702  21.766  0.0936 -0.1198  0.3339
77447W        W20385  13.547  23.875  22.441 -0.0933 -0.2097  0.0883
77448W        W20386  13.744  23.856  18.965 -0.0218  0.0179 -0.1015
77449W        W20387  13.693  21.977  21.349 -0.0165 -0.2541  0.1276
77450W        W20388  15.532  24.931  20.403  0.2127  0.0066 -0.2402
77451W        W20389  16.421  24.720  20.606 -0.0925  0.2734  0.2107
77452W        W20390  16.042  22.760  21.978 -0.0469 -0.3196  0.0344
77453W        W20391  17.314  24.219  19.665  0.0809 -0.1448 -0.3490
77454W        W20392  12.645  24.454  20.621 -0.0712 -0.3215 -0.1654
77455W        W20393  19.035  25.813  20.064 -0.4570 -0.0244  0.0653
77456W        W20394  19.144  25.099  20.744 -0.0983  0.0732 -0.0719
77457W        W20395  18.081  24.472  20.167  0.1460  0.2515  0.0361
77458W        W20396  14.450  24.958  23.024  0.2551 -0.0922 -0.0628
77459W        W20397  14.707  23.046  22.197 -0.0650 -0.2304  0.0039
77460W        W20398  14.977  24.021  22.374  0.1101 -0.0309 -0.4318
77461W        W20399  14.774  23.637  21.267 -0.2202 -0.1333 -0.0289
77462W        W20400  18.043  23.919  21.654  0.0938 -0.1324 -0.1374
77463W        W20401  15.462  23.649  17.535  0.0340  0.2637  0.3490
77464W        W20402  17.593  23.681  21.543  0.0176 -0.0001 -0.0701
77465W        W20403  15.216  24.990  19.855 -0.1090 -0.1159 -0.1828
77466W        W20404  16.065  24.118  19.352 -0.0426 -0.0738 -0.0071
77467W        W20405  16.786  23.626  23.013  0.5043 -0.1793  0.0233
77468W        W20406  18.063  26.626  20.822  0.2667 -0.0383 -0.1006
77469W        W20407  16.384  25.389  21.913  0.0720 -0.1349 -0.0868
77470W        W20408  17.326  26.238  20.823  0.0122  0.0552 -0.1577
77471W        W20409  14.558  23.921  22.636  0.1502 -0.1365  0.1709
77472W        W20410  15.169  23.470  18.657 -0.0903  0.1945  0.2124
77473W        W20411  14.259  27.087  20.921  0.0880  0.0406  0.0874
77474W        W20412  16.246  25.349  22.508  0.1176 -0.0928 -0.0741
77475W        W20413  15.057  23.042  17.791 -0.1774 -0.0534 -0.0977
77476W        W20414  17.901  26.226  21.015 -0.0375  0.0918  0.3840
77477W        W20415  15.621  24.659  19.943  0.0255 -0.3917  0.6551
77478W        W20416  12.932  24.559  22.475  0.1015  0.0859 -0.1323
77479W        W20417  16.134  22.984  21.440 -0.0957 -0.1323 -0.0095
77480W        W20418  17.085  25.262  21.556  0.0860 -0.0139 -0.3191
77481W        W20419  15.589  24.833  22.058  0.0798  0.0659 -0.1248
77482W        W20420  16.032  23.200  18.261  0.0999 -0.0965  0.0816
77483W        W20421  17.424  27.167  20.833 -0.1148  0.2913  0.1494
77484W        W20422  15.771  24.999  22.508 -0.0451  0.3245 -0.3472
77485W        W20423  14.759  24.276  20.167  0.1315 -0.1327  0.1227
77486W        W20424  15.250  26.741  21.806 -0.4399  0.2390  0.1351
77487W        W20425  16.556  24.043  19.248 -0.1642  0.1132 -0.3702
77488W        W20426  14.599  24.490  23.041 -0.2276 -0.0220 -0.1327
77489W        W20427  15.996  23.381  22.797 -0.1475 -0.0717 -0.1757
77490W        W20428  14.470  24.423  20.626  0.2247 -0.0378 -0.3627
77491W        W20429  14.368  25.010  22.368 -0.1811 -0.0866 -0.0584
77492W        W20430  16.093  23.393  19.748 -0.1036 -0.1354  0.0938
77493W        W20431  17.006  24.105  17.692  0.0430  0.2672 -0.4237
77494W        W20432  15.752  24.942  23.551 -0.1691 -0.1544 -0.1956
77495W        W20433  16.932  25.339  20.980 -0.1368  0.1799  0.0403
77496W        W20434  16.044  25.014  19.841  0.2921 -0.2795  0.0419
77497W        W20435  16.296  25.025  18.696  0.0193 -0.2812 -0.0846
77498W        W20436  14.869  24.061  23.030 -0.1608  0.0280 -0.1032
77499W        W20437  16.729  26.338  20.787  0.1458 -0.0242  0.0917
77500W        W20438  15.377  24.061  21.906  0.1003 -0.0904  0.2147
77501W        W20439  15.537  24.580  21.636  0.1511 -0.1321 -0.0357
77502W        W20440  17.751  25.525  18.761 -0.2217 -0.1710  0.0566
77503W        W20441  14.398  24.552  22.563 -0.2756 -0.1044  0.1194
77504W        W20442  15.974  25.015  23.111  0.2420 -0.1072  0.0264
77505W        W20443  16.538  26.817  21.398  0.0532  0.1227  0.1138
77506W        W20444  15.856  21.541  19.164 -0.2533 -0.0619  0.3314
77507W        W20445  15.333  24.332  18.591 -0.3759 -0.3219 -0.1538
77508W        W20446  15.762  22.729  19.146  0.0150  0.2481 -0.0856
77509W        W20447  13.514  25.003  19.287 -0.2689 -0.0101 -0.1161
77510W        W20448  18.425  23.258  21.986 -0.2069 -0.3254  0.4790
77511W        W20449  17.581  24.093  20.384  0.3266 -0.1085 -0.0893
77512W        W20450  15.962  22.501  21.010 -0.0069  0.0398  0.0782
77513W        W20451  18.743  24.294  21.031  0.1134  0.1170  0.1415
77514W        W20452  16.960  25.261  19.868 -0.0249  0.0161  0.0353
77515W        W20453  15.289  23.513  21.033  0.1283  0.0905  0.1298
77516W        W20454  14.618  24.948  17.932  0.0870  0.1862  0.5751
77517W        W20455  15.155  23.459  22.065 -0.1626 -0.1023 -0.1217
77518W        W20456  14.778  24.310  21.730  0.1440  0.0461 -0.0810
77519W        W20457  13.282  25.206  22.778  0.3061  0.0592 -0.2293
77520W        W20458  17.874  24.371  22.483 -0.1078 -0.0193 -0.1637
77521W        W20459  16.860  24.835  21.310 -0.1539  0.0016 -0.4083
77522W        W20460  17.007  23.387  21.695  0.1331 -0.2202  0.0629
77523W        W20461  15.580  22.464  18.333 -0.0790  0.0883  0.2283
77524W        W20462  14.911  26.226  20.978  0.1143  0.1702  0.1497
77525W        W20463  15.228  26.075  19.512 -0.0734  0.0026 -0.0804
77526W        W20464  15.468  22.302  19.749 -0.0093  0.1604  0.0375
77527W        W20465  15.375  24.602  20.776  0.3834  0.0072 -0.0980
77528W        W20466  15.433  25.466  19.187 -0.2437  0.0092  0.0288
77529W        W20467  17.508  25.784  21.760 -0.2460  0.0700 -0.1300
77530W        W20468  14.432  24.642  20.165  0.2658 -0.0472  0.1390
77531W        W20469  18.750  23.837  19.943  0.3537 -0.0395 -0.0179
77532W        W20470  13.550  24.412  22.343  0.0022 -0.0878  0.0527
77533W        W20471  14.243  23.888  19.185  0.3582 -0.1807 -0.0595
77534W        W20472  13.405  23.802  18.136 -0.0025  0.0683  0.1363
77535W        W20473  17.012  23.235  19.331 -0.1570  0.2749  0.1207
77536W        W20474  17.839  24.529  21.036 -0.4213 -0.0549 -0.1584
77537W        W20475  15.730  23.359  21.509 -0.1221 -0.3108  0.2342
77538W        W20476  15.483  22.777  19.850 -0.0820 -0.2659 -0.2393
77539W        W20477  14.387  26.337  22.212 -0.3740  0.0031  0.1855
77540W        W20478  16.080  25.251  21.169 -0.2514  0.2435 -0.1170
77541W        W20479  16.837  23.103  20.199  0.1040  0.2611 -0.1100
77542W        W20480  16.975  24.222  21.817 -0.3416 -0.0818  0.1527
77543W        W20481  13.913  23.845  22.763 -0.1009  0.0558  0.0910
77544W        W20482  14.457  24.971  19.187 -0.3609  0.1343 -0.4016
77545W        W20483  15.870  24.485  20.700 -0.1182 -0.1419 -0.1178
77546W        W20484  17.441  24.202  20.867 -0.0167 -0.1160 -0.2630
77547W        W20485  14.997  25.047  22.046  0.2160 -0.0768 -0.1970
77548W        W20486  15.975  25.659  22.174  0.1762  0.0535 -0.0149
77549W        W20487  14.388  23.269  19.909 -0.1423 -0.0393  0.4488
77550W        W20488  15.378  25.111  21.678 -0.2243 -0.0043  0.1610
77551W        W20489  14.569  23.678  23.025 -0.3266  0.2860 -0.4423
77552W        W20490  18.574  23.067  21.208  0.0727  0.1236  0.0796
77553W        W20491  15.422  22.835  20.835 -0.3080  0.0829  0.1535
77554W        W20492  16.727  23.761  19.968  0.4520 -0.3220  0.2535
77555W        W20493  18.036  23.148  21.188 -0.1826  0.2579 -0.1246
77556W        W20494  15.725  24.451  21.200  0.0962  0.4451  0.3288
77557W        W20495  17.842  23.966  22.817  0.3537 -0.0822 -0.1256
77558W        W20496  14.343  25.976  22.574 -0.0412  0.0349  0.0294
77559W        W20497  15.961  24.258  19.846 -0.0172  0.2600  0.1540
77560W        W20498  16.871  27.146  20.049  0.1418 -0.1602 -0.0130
77561W        W20499  15.743  23.677  23.273  0.3188  0.0293  0.1489
77562W        W20500  14.764  24.615  19.795 -0.0534 -0.0716  0.1951
77563W        W20501  13.759  24.063  24.069  0.3390 -0.0256  0.0326
77564W        W20502  15.361  25.518  20.146  0.2074 -0.0339  0.1422
77565W        W20503  16.453  22.758  20.852  0.3232  0.0209  0.0019
77566W        W20504  13.063  24.021  22.459  0.2684  0.3611 -0.0016
77567W        W20505  14.498  26.155  20.313 -0.3584 -0.1143 -0.3127
77568W        W20506  16.155  25.980  21.710 -0.2246  0.1314 -0.2821
77569W        W20507  17.390  21.756  18.601  0.1001 -0.2706  0.2544
77570W        W20508  14.878  25.087  19.441 -0.1507 -0.1110  0.2865
77571W        W20509  16.003  23.748  20.100 -0.4636  0.0353  0.4096
77572W        W20510  18.962  23.498  21.450  0.2329  0.0481 -0.0581
77573W        W20511  16.724  24.236  19.732  0.1407  0.0955  0.0139
77574W        W20512  16.468  22.893  22.170 -0.3630 -0.1843 -0.1266
77575W        W20513  15.025  24.761  21.562  0.1087  0.1818  0.0366
77576W        W20514  18.173  27.631  20.849 -0.0264  0.1859 -0.2768
77577W        W20515  14.118  23.916  21.919 -0.1153  0.3333 -0.0957
77578W        W20516  17.220  25.567  23.462 -0.0054 -0.1042 -0.2736
77579W        W20517  14.741  23.622  22.217  0.1332 -0.0884 -0.2495
77580W        W20518  16.391  23.254  18.873 -0.1335  0.1228  0.1155
77581W        W20519  16.543  23.453  17.122  0.2876 -0.0077  0.0437
77582W        W20520  15.533  23.988  21.448 -0.0430 -0.0636  0.1331
77583W        W20521  16.745  24.985  21.860 -0.1497  0.1588  0.1678
77584W        W20522  15.801  25.228  18.669 -0.1365 -0.0391 -0.0821
77585W        W20523  17.657  24.550  20.587  0.1615 -0.0445 -0.0578
77586W        W20524  13.983  24.058  21.290 -0.0882  0.2150 -0.1662
77587W        W20525  15.840  24.545  18.623 -0.1236 -0.0659 -0.0915
77588W        W20526  16.202  24.660  19.553 -0.0216  0.0972 -0.0942
77589W        W20527  15.570  25.883  20.470 -0.0172 -0.2172  0.0517
77590W        W20528  16.329  23.727  20.939  0.3166 -0.1015 -0.0975
77591W        W20529  16.638  24.529  19.349  0.2380  0.1556  0.0899
77592W        W20530  15.975  22.907  20.708  0.0615  0.3488  0.2262
77593W        W20531  17.641  23.232  20.828  0.0573  0.2897  0.1375
77594W        W20532  16.620  23.495  21.334  0.1060  0.3782  0.2578
77595W        W20533  14.807  23.799  21.748 -0.4162  0.2319  0.1511
77596W        W20534  16.470  23.282  22.613 -0.0186  0.1499 -0.2124
77597W        W20535  16.685  25.883  21.310 -0.1919 -0.0862  0.0802
77598W        W20536  17.822  23.255  18.751 -0.0331 -0.0538  0.1233
77599W        W20537  17.363  23.667  20.801 -0.1727  0.2339 -0.2777
77600W        W20538  17.751  25.399  20.405 -0.0091 -0.0584  0.0857
77601W        W20539  16.969  25.733  19.642  0.0555  0.0060  0.0889
77602W        W20540  12.259  23.842  22.993 -0.1378 -0.2437  0.1867
77603W        W20541  17.259  24.280  22.261  0.0529 -0.0229 -0.2880
77604W        W20542  16.169  24.145  18.810 -0.1284  0.0692 -0.0276
77605W        W20543  17.437  24.306  21.678 -0.1871 -0.3589 -0.0615
77606W        W20544  16.768  24.510  20.185  0.6567  0.0903 -0.2149
77607W        W20545  17.023  26.466  21.149 -0.1786  0.1577  0.0154
77608W        W20546  17.550  25.030  20.776  0.1384 -0.1055 -0.2428
77609W        W20547  13.607  23.223  21.755 -0.0412  0.0304 -0.1286
77610W        W20548  15.519  25.255  23.938 -0.0730 -0.0598 -0.3517
77611W        W20549  15.784  23.598  18.081  0.1088  0.0284 -0.2874
77612W        W20550  14.784  24.520  19.316  0.0571  0.1597 -0.1899
77613W        W20551  16.695  25.236  22.299 -0.2301  0.3203  0.1905
77614W        W20552  18.631  25.158  22.395  0.2036 -0.1428 -0.0937
77615W        W20553  15.267  24.590  19.608 -0.2630 -0.0389  0.0386
77616W        W20554  16.836  23.470  20.877 -0.1416  0.0549 -0.3021
77617W        W20555  11.548  23.485  20.468 -0.1598  0.0147  0.3527
77618W        W20556  16.464  23.815  20.487 -0.0443  0.1156 -0.2907
77619W        W20557  15.297  25.076  22.989 -0.2924 -0.1311 -0.0010
77620W        W20558  14.670  26.648  21.917  0.0072  0.1408 -0.2611
77621W        W20559  15.284  25.211  22.490 -0.0075 -0.2214  0.1368
77622W        W20560  16.065  23.458  20.617 -0.0532  0.1891  0.0697
77623W        W20561  16.395  24.244  20.158 -0.5356  0.0499 -0.0393
77624W        W20562  16.414  24.597  22.036 -0.0365 -0.1378  0.3778
77625W        W20563  16.624  24.036  21.306 -0.1745 -0.0888  0.0678
77626W        W20564  17.103  25.638  22.982  0.1184 -0.0863  0.2877
77627W        W20565  14.874  23.499  20.676 -0.1872 -0.1331  0.2717
77628W        W20566  17.566  25.617  22.703 -0.1722 -0.1628 -0.0402
77629W        W20567  19.454  24.797  19.272 -0.0085  0.0186 -0.2472
77630W        W20568  15.644  26.396  23.225 -0.0773  0.1641  0.3546
77631W        W20569  13.814  22.952  22.161 -0.4020 -0.2365  0.1744
77632W        W20570  17.408  24.862  21.569 -0.1548  0.0161  0.3225
77633W        W20571  17.400  25.288  21.179 -0.0192 -0.0348 -0.3030
77634W        W20572  16.386  24.457  18.473  0.0182  0.3571 -0.0582
77635W        W20573  14.419  27.475  20.621 -0.2879  0.0412  0.2172
77636W        W20574  16.248  25.504  23.015  0.1815  0.3689 -0.0687
77637W        W20575  13.899  22.404  22.499 -0.3730  0.1453  0.0877
77638W        W20576  15.024  25.219  18.987 -0.3174 -0.3127 -0.0370
77639W        W20577  17.452  25.134  19.833  0.1860 -0.0094  0.2285
77640W        W20578  16.412  25.323  20.047  0.1669  0.1303  0.0929
77641W        W20579  16.926  25.709  21.816 -0.2366 -0.3862 -0.3652
77642W        W20580  14.256  24.616  19.495  0.0512 -0.1611  0.2463
77643W        W20581  14.257  24.867  21.381 -0.2730 -0.0419 -0.0499
77644W        W20582  13.749  24.660  22.007  0.1104 -0.2205  0.1562
77645W        W20583  17.967  25.774  20.614 -0.1170 -0.3446 -0.0175
77646W        W20584  15.040  25.739  22.165 -0.1880  0.0919 -0.0050
77647W        W20585  19.242  25.286  21.783  0.1737 -0.3272  0.0470
77648W        W20586  16.836  22.365  19.595 -0.1631 -0.1809 -0.1996
77649W        W20587  16.502  25.574  20.954  0.1007  0.0031 -0.0913
77650W        W20588  16.873  22.853  19.703 -0.2336  0.0846  0.3114
77651W        W20589  17.236  25.250  22.645  0.2428  0.1324 -0.1499
77652W        W20590  14.428  24.063  21.579  0.0762  0.2103  0.2875
77653W        W20591  13.944  23.280  18.389  0.1694  0.0109  0.1751
77654W        W20592  15.823  23.410  23.919 -0.0930  0.1923 -0.0285
77655W        W20593  17.665  22.697  22.211  0.0714 -0.2166  0.2999
77656W        W20594  15.033  26.001  23.017  0.3533 -0.2273 -0.1145
77657W        W20595  18.324  24.700  21.236 -0.0053 -0.0153  0.0857
77658W        W20596  15.818  22.780  18.599 -0.0737  0.1876  0.0484
77659W        W20597  15.507  24.944  21.213  0.4675 -0.0305  0.1395
77660W        W20598  15.242  24.485  22.173  0.0911 -0.2322 -0.0490
77661W        W20599  16.215  25.341  18.058  0.1515  0.1319  0.1333
77662W        W20600  16.525  23.183  20.564 -0.3672 -0.0122 -0.3771
77663W        W20601  15.352  27.767  22.180 -0.0441  0.2812 -0.2184
77664W        W20602  16.572  25.778  22.792 -0.0986  0.0307 -0.3134
77665W        W20603  14.007  27.251  21.911 -0.2131  0.0914  0.0303
77666W        W20604  14.591  22.899  17.704  0.1690 -0.0645 -0.1951
77667W        W20605  18.426  22.365  18.993  0.2228  0.0868 -0.0947
77668W        W20606  15.181  24.292  23.996 -0.0907  0.2433  0.1527
77669W        W20607  17.102  22.488  22.262  0.0917  0.1949 -0.1379
77670W        W20608  13.792  23.770  19.464  0.1121  0.1813  0.3734
77671W        W20609  15.065  24.901  21.049  0.0651 -0.1193  0.2674
77672W        W20610  17.011  24.755  20.598 -0.2149  0.1306  0.1155
77673W        W20611  15.115  23.756  20.170  0.2686  0.0120 -0.0064
77674W        W20612  15.101  24.203  21.305 -0.1481  0.0012 -0.0289
77675W        W20613  17.579  25.277  21.744  0.0429  0.0000 -0.0229
77676W        W20614  17.487  24.060  18.861 -0.1832 -0.3334  0.2638
77677W        W20615  17.300  26.030  22.184 -0.2186  0.1521 -0.1320
77678W        W20616  13.634  23.503  19.887 -0.0250 -0.3075 -0.1671
77679W        W20617  16.309  23.036  19.333 -0.2180  0.0104  0.1507
77680W        W20618  14.038  24.421  21.652 -0.4437 -0.3018 -0.2987
77681W        W20619  15.557  23.069  22.306 -0.2871  0.2574  0.0980
77682W        W20620  17.931  25.131  22.283 -0.0766  0.2907  0.1256
77683W        W20621  15.119  22.151  18.560 -0.2083 -0.1841  0.0973
77684W        W20622  16.970  23.737  19.546 -0.0509  0.0013  0.1933
77685W        W20623  17.095  24.395  21.301  0.1811  0.0490 -0.0086
77686W        W20624  15.139  25.492  18.404  0.0548  0.1978  0.0517
77687W        W20625  16.045  24.594  20.199  0.2169  0.0565 -0.2779
77688W        W20626  15.063  26.979  22.667 -0.3208 -0.0702 -0.1367
77689W        W20627  15.399  22.970  21.462 -0.2425  0.1376  0.0248
77690W        W20628  17.106  26.884  23.279  0.1045  0.1107  0.0241
77691W        W20629  18.361  24.718  22.324 -0.1731  0.0218  0.3359
77692W        W20630  14.639  22.442  18.508 -0.0515  0.3210  0.0222
77693W        W20631  14.551  23.179  20.910 -0.0563 -0.2178 -0.2357
77694W        W20632  15.560  26.543  21.200 -0.0620 -0.0266  0.0600
77695W        W20633  17.217  23.353  21.193  0.2220  0.2651 -0.3193
77696W        W20634  16.802  22.554  21.300 -0.1625 -0.0918  0.3855
77697W        W20635  14.963  25.719  19.068 -0.0049  0.1437  0.3265
77698W        W20636  17.688  22.464  20.849  0.0324 -0.1387  0.0168
77699W        W20637  16.285  24.308  22.586 -0.0379 -0.0849 -0.3036
77700W        W20638  15.253  25.018  23.566  0.2434 -0.0314  0.0353
77701W        W20639  14.882  25.111  20.172  0.1766  0.0182 -0.1193
77702W        W20640  16.218  23.551  22.078  0.1887 -0.0253  0.2567
77703W        W20641  15.387  26.004  21.383  0.2625  0.0532 -0.0494
77704W        W20642  15.036  27.466  20.417 -0.1594  0.0873  0.0725
77705W        W20643  16.325  25.206  20.488  0.1326  0.1331  0.0954
77706W        W20644  14.599  24.476  21.301 -0.0439  0.3173 -0.0437
77707W        W20645  19.391  24.799  22.122  0.2183 -0.1843  0.0101
77708W        W20646  16.281  23.885  19.721 -0.0007 -0.0221 -0.1090
77709W        W20647  16.412  22.878  19.783  0.0058 -0.0942  0.2864
77710W        W20648  16.980  23.957  20.931 -0.2917 -0.0524  0.4960
77711W        W20649  14.717  24.607  22.221  0.0083 -0.3847  0.0364
77712W        W20650  13.090  23.042  18.707  0.1538 -0.0739  0.3344
77713W        W20651  15.439  24.938  19.005 -0.2074  0.1693  0.1695
77714W        W20652  14.628  26.626  22.576 -0.0885 -0.0654  0.0438
77715W        W20653  15.019  23.662  22.692  0.0189 -0.4535 -0.4377
77716W        W20654  14.083  23.007  22.578 -0.0426  0.0254 -0.0665
77717W        W20655  15.478  24.097  20.888 -0.1875 -0.1657 -0.2688
77718W        W20656  14.018  23.403  19.123  0.1103  0.0820 -0.1281
77719W        W20657  17.168  25.795  21.313 -0.0712  0.1141 -0.2420
77720W        W20658  14.545  22.433  19.289 -0.1422 -0.0470  0.1278
77721W        W20659  14.254  23.026  21.866  0.3573 -0.0404 -0.0047
77722W        W20660  15.895  25.628  18.980 -0.0680 -0.1141  0.2718
77723W        W20661  17.515  25.752  20.933 -0.0346  0.1583 -0.0838
77724W        W20662  16.255  22.750  18.898  0.1127 -0.2245  0.0666
77725W        W20663  18.776  25.629  21.879 -0.0740  0.0834 -0.1594
77726W        W20664  14.538  24.158  19.532  0.0971 -0.0352  0.0306
77727W        W20665  16.647  24.209  22.960 -0.0531 -0.1311  0.0805
77728W        W20666  15.192  22.757  24.209  0.0387 -0.0800  0.1276
77729W        W20667  12.646  23.239  18.431 -0.0720 -0.2868  0.2265
77730W        W20668  17.082  24.257  20.530 -0.1268 -0.1243  0.0197
77731W        W20669  16.058  24.544  21.582  0.3996 -0.0171  0.2697
77732W        W20670  17.990  26.020  20.185  0.0691  0.0684 -0.3213
77733W        W20671  14.808  24.891  22.685  0.5188 -0.1599  0.0980
77734W        W20672  16.732  25.443  23.315  0.0569  0.0438 -0.1060
77735W        W20673  14.439  23.358  20.387 -0.1320 -0.0309  0.1965
77736W        W20674  17.888  25.375  20.929 -0.3322 -0.2269  0.2031
77737W        W20675  15.668  25.412  23.304 -0.0322  0.3538 -0.2299
77738W        W20676  18.078  25.064  19.861 -0.0479  0.1346 -0.2378
77739W        W20677  17.770  24.194  19.929  0.1230 -0.2163 -0.2193
77740W        W20678  17.694  26.143  19.808 -0.3041  0.0142  0.1322
77741W        W20679  13.935  22.448  20.711  0.1737 -0.1275  0.0405
77742W        W20680  14.750  25.201  21.621 -0.1040 -0.1150 -0.0268
77743W        W20681  18.706  23.816  21.811  0.0128 -0.1155  0.0133
77744W        W20682  15.253  23.637  19.569  0.1230  0.1694  0.1278
77745W        W20683  16.136  23.594  19.180 -0.2850 -0.0790  0.0667
77746W        W20684  16.091  25.664  20.681 -0.3718  0.4290 -0.0953
77747W        W20685  13.349  24.716  22.771 -0.3307  0.2482  0.0479
77748W        W20686  16.235  24.602  19.006  0.1851  0.0995 -0.0991
77749W        W20687  16.097  23.857  23.647 -0.0164 -0.2522  0.2830
77750W        W20688  16.570  25.927  20.503 -0.0116 -0.0333 -0.1146
77751W        W20689  15.225  23.550  21.560  0.0218 -0.4340 -0.1063
77752W        W20690  15.576  24.332  20.372  0.1561  0.0359  0.0136
77753W        W20691  19.302  23.742  19.071  0.1622  0.0266 -0.1122
77754W        W20692  16.153  26.619  21.817 -0.0037 -0.1385 -0.1428
77755W        W20693  17.800  26.093  22.844  0.0279  0.2920 -0.3526
77756W        W20694  15.289  25.655  22.747 -0.0615 -0.0365  0.0582
77757W        W20695  16.086  25.034  22.105 -0.0596  0.4744  0.0702
77758W        W20696  14.246  23.599  21.221 -0.1199  0.3117 -0.0818
77759W        W20697  14.422  23.475  19.406  0.0793  0.1942  0.1712
77760W        W20698  15.580  25.327  22.145 -0.0527  0.0261  0.3099
77761W        W20699  16.122  23.635  21.432 -0.0394 -0.2427  0.1514
77762W        W20700  16.661  22.335  20.679 -0.3240  0.1458 -0.4087
77763W        W20701  17.234  22.177  19.947  0.2213 -0.1922 -0.1021
77764W        W20702  16.593  26.569  22.913 -0.1680 -0.3395 -0.2819
77765W        W20703  17.728  24.000  21.208 -0.0896  0.0300  0.0402
77766W        W20704  16.783  25.350  26.201 -0.1659 -0.1562 -0.3116
77767W        W20705  16.909  23.795  24.463 -0.0144 -0.2092 -0.3899
77768W        W20706  16.921  21.990  20.366  0.2089 -0.2091  0.1412
77769W        W20707  18.609  24.025  23.045  0.2051  0.4309  0.3156
77770W        W20708  13.768  24.021  24.606 -0.1349 -0.2110  0.1836
77771W        W20709  16.831  25.963  25.138 -0.0586 -0.1032 -0.3206
77772W        W20710  14.953  21.762  26.117  0.0784 -0.1485  0.0804
77773W        W20711  16.143  23.543  24.782  0.3612 -0.3076 -0.1148
77774W        W20712  18.696  26.089  25.816 -0.1254 -0.1714  0.2543
77775W        W20713  16.235  24.832  23.593 -0.0847  0.3025  0.0966
77776W        W20714  16.538  23.153  26.128  0.1132 -0.1093  0.1418
77777W        W20715  18.728  25.965  27.058  0.1657 -0.1397 -0.0402
77778W        W20716  16.331  23.481  23.870  0.0899  0.1175 -0.0554
77779W        W20717  13.159  20.990  24.854 -0.1284  0.3934  0.0709
77780W        W20718  16.524  22.604  23.254 -0.2600 -0.1241  0.2861
77781W        W20719  14.191  22.891  23.669 -0.1956 -0.1295 -0.2956
77782W        W20720  17.159  22.782  24.973 -0.1307 -0.0274 -0.0319
77783W        W20721  15.541  24.002  23.636  0.0242  0.1716  0.0117
77784W        W20722  16.257  25.452  24.054 -0.2256  0.1231  0.0373
77785W        W20723  15.276  22.900  24.786  0.0388 -0.1895 -0.0594
77786W        W20724  16.581  21.569  24.658 -0.1697  0.2349 -0.1472
77787W        W20725  14.725  25.654  23.456 -0.0745  0.1684  0.0545
77788W        W20726  14.699  25.182  23.635 -0.1405 -0.3438  0.1738
77789W        W20727  14.731  22.777  24.830 -0.0211 -0.2819  0.0661
77790W        W20728  15.109  23.800  24.886 -0.1628  0.1021 -0.2271
77791W        W20729  16.680  24.230  24.297  0.2498 -0.2746  0.3135
77792W        W20730  16.885  21.406  25.022  0.1951  0.1286  0.0712
77793W        W20731  16.480  26.048  24.781 -0.3046 -0.1393 -0.0850
77794W        W20732  17.779  23.251  24.421 -0.0748 -0.0880  0.3074
77795W        W20733  16.569  22.089  25.338  0.1875 -0.2205  0.0746
77796W        W20734  14.227  24.157  24.517 -0.0590  0.1076  0.4761
77797W        W20735  14.619  25.243  24.861 -0.0812  0.0546 -0.2866
77798W        W20736  15.485  25.808  24.061 -0.0135  0.1929 -0.2278
77799W        W20737  17.921  24.640  24.257  0.0687  0.2012  0.2082
77800W        W20738  17.374  23.185  25.305 -0.0517 -0.2121 -0.1130
77801W        W20739  16.056  24.314  27.530 -0.0313 -0.0357  0.0372
77802W        W20740  14.531  24.170  23.451 -0.1780  0.0495  0.1675
77803W        W20741  19.364  24.229  26.522  0.0253 -0.0018  0.1149
77804W        W20742  15.126  25.756  25.177  0.2608  0.0089  0.3429
77805W        W20743  15.133  23.240  24.022 -0.0864 -0.1915 -0.0672
77806W        W20744  17.436  24.358  23.523  0.0640  0.0366  0.2666
77807W        W20745  16.798  26.331  24.008 -0.3674  0.2962  0.0663
77808W        W20746  16.114  23.146  24.475  0.0736  0.3191  0.3619
77809W        W20747  15.961  24.149  25.495  0.0349 -0.3473  0.3291
77810W        W20748  14.104  25.936  27.163 -0.2394  0.0723 -0.1777
77811W        W20749  19.209  21.321  24.901  0.2198 -0.1267  0.1446
77812W        W20750  16.042  25.973  24.614  0.0751  0.0202  0.1867
77813W        W20751  16.987  24.391  23.271  0.1337  0.2120  0.0926
77814W        W20752  16.130  22.521  22.410 -0.1091  0.2409 -0.2540
77815W        W20753  19.115  23.049  23.851 -0.0096 -0.1359  0.1433
77816W        W20754  15.339  22.458  22.904 -0.0791 -0.2044  0.0604
77817W        W20755  15.111  26.655  25.249  0.3735  0.0255  0.0314
77818W        W20756  16.506  23.073  24.128  0.2816 -0.2503  0.2181
77819W        W20757  16.316  24.592  25.473  0.1295  0.1590  0.0130
77820W        W20758  16.222  24.103  24.074 -0.0467  0.1250 -0.0253
77821W        W20759  17.117  22.745  23.945 -0.1305  0.1835 -0.3119
77822W        W20760  17.066  24.904  26.770 -0.2415  0.1667  0.0810
77823W        W20761  15.455  24.510  23.671  0.0776 -0.1436 -0.3080
77824W        W20762  18.267  24.520  23.852  0.0383 -0.2142  0.0075
77825W        W20763  17.214  24.215  24.372 -0.0767  0.1001 -0.1554
77826W        W20764  16.379  24.534  23.209 -0.1794  0.0923  0.0783
77827W        W20765  15.139  24.411  23.281  0.1207  0.3365 -0.2151
77828W        W20766  14.930  24.918  26.158 -0.3858  0.2695  0.3841
77829W        W20767  15.504  22.885  25.230 -0.2503  0.1398  0.0069
77830W        W20768  13.971  22.724  21.504  0.2468 -0.1192 -0.0249
77831W        W20769  18.004  24.649  24.862  0.2331  0.0689 -0.2443
77832W        W20770  13.085  25.979  26.149 -0.1036  0.0628  0.2504
77833W        W20771  18.396  22.457  23.032 -0.0496  0.2845 -0.0967
77834W        W20772  15.167  24.584  25.234 -0.1196  0.1554 -0.2101
77835W        W20773  18.836  24.582  25.347 -0.0191  0.0500 -0.1686
77836W        W20774  17.902  23.715  24.555 -0.3407  0.1162  0.0106
77837W        W20775  17.025  22.529  24.394  0.2176  0.1400 -0.0045
77838W        W20776  16.340  22.075  23.625 -0.3424  0.2881 -0.1385
77839W        W20777  14.269  24.145  22.953  0.0381  0.1644 -0.1173
77840W        W20778  16.051  24.018  22.988 -0.0867 -0.0121  0.1000
77841W        W20779  17.121  24.498  25.201 -0.2393  0.3919 -0.1933
77842W        W20780  18.038  24.097  23.809 -0.3420 -0.1398 -0.2764
77843W        W20781  15.629  27.451  26.475  0.7002 -0.1241  0.3074
77844W        W20782  14.896  22.125  25.480 -0.0782 -0.1859  0.0087
77845W        W20783  17.021  25.434  26.664  0.1045 -0.1752 -0.1261
77846W        W20784  16.384  27.378  23.310 -0.1477  0.0851  0.1607
77847W        W20785  14.992  23.067  25.364  0.2745 -0.0448  0.0240
77848W        W20786  12.836  25.724  23.790 -0.0150 -0.1842  0.0875
77849W        W20787  14.007  22.127  24.442 -0.0628 -0.1837  0.0185
77850W        W20788  15.491  24.235  24.971 -0.1959 -0.4291  0.0418
77851W        W20789  17.656  23.024  23.058  0.1278  0.3625  0.2277
77852W        W20790  15.543  21.477  24.635  0.1959  0.2458 -0.1585
77853W        W20791  18.685  22.293  23.340  0.1289  0.2752  0.1371
77854W        W20792  14.769  25.350  23.009 -0.0644 -0.0713 -0.0938
77855W        W20793  16.949  26.190  24.490 -0.0124 -0.0679 -0.2330
77856W        W20794  19.129  23.125  24.977  0.0374  0.0840 -0.2425
77857W        W20795  17.751  24.685  23.795  0.2166 -0.0917  0.0620
77858W        W20796  14.455  22.882  25.265 -0.0419  0.1014  0.3614
77859W        W20797  14.420  23.822  23.862 -0.4939  0.0006  0.0639
77860W        W20798  16.160  21.308  23.718  0.3195  0.2632  0.2180
77861W        W20799  16.627  23.087  23.128  0.3729 -0.0759 -0.1697
77862W        W20800  17.097  21.489  25.955  0.1327  0.2124  0.4684
77863W        W20801  15.195  22.882  22.628 -0.1784 -0.2091 -0.1735
77864W        W20802  16.802  22.434  24.885  0.1215  0.2500  0.2576
77865W        W20803  16.694  25.362  24.331  0.3993 -0.1455  0.1361
77866W        W20804  13.563  24.542  24.366 -0.1303 -0.1332 -0.0148
77867W        W20805  18.546  23.012  25.492  0.0262 -0.0705  0.1305
77868W        W20806  16.020  25.944  24.131  0.1727 -0.2107 -0.0664
77869W        W20807  18.050  23.881  25.468 -0.1636 -0.2189  0.0120
77870W        W20808  17.063  25.027  23.126 -0.0255  0.1866  0.0449
77871W        W20809  16.172  22.359  25.675  0.2871  0.1507  0.0270
77872W        W20810  14.344  22.170  22.689  0.0303  0.0696  0.1098
77873W        W20811  14.568  25.612  24.504 -0.0418 -0.0347 -0.1371
77874W        W20812  15.055  25.453  25.825 -0.1495  0.1599  0.2344
77875W        W20813  15.615  23.967  24.091 -0.1817  0.0676 -0.1883
77876W        W20814  19.023  25.617  25.622 -0.1286 -0.1595  0.1519
77877W        W20815  15.763  24.703  24.705  0.0999  0.1042  0.1498
77878W        W20816  14.909  24.541  25.663  0.0318 -0.0829  0.3249
77879W        W20817  16.524  22.481  24.290 -0.1037 -0.2196 -0.2216
77880W        W20818  18.187  22.685  25.629  0.0807 -0.1193  0.3027
77881W        W20819  15.934  23.627  24.361 -0.0695 -0.0860 -0.4213
77882W        W20820  13.276  24.961  24.134 -0.0480  0.2310 -0.2485
77883W        W20821  17.369  25.469  24.917 -0.0702  0.2882 -0.0052
77884W        W20822  14.985  25.988  24.707  0.0111 -0.0156  0.1740
77885W        W20823  14.261  22.970  24.824  0.0003 -0.2111 -0.2120
77886W        W20824  15.977  25.007  23.967  0.1216 -0.2185 -0.0576
77887W        W20825  19.096  22.294  23.697  0.0844  0.1043  0.3412
77888W        W20826  14.870  23.372  24.947  0.1019 -0.0622  0.1871
77889W        W20827  16.638  23.340  24.561 -0.1236 -0.1132 -0.3587
77890W        W20828  12.598  23.779  24.989 -0.1870 -0.1585 -0.1265
77891W        W20829  15.708  25.469  25.990 -0.0309  0.2284  0.0224
77892W        W20830  16.027  22.363  22.858 -0.2134  0.1696  0.0708
77893W        W20831  18.074  22.929  23.552  0.0801 -0.3837  0.0064
77894W        W20832  17.684  22.866  24.912  0.0237 -0.0092 -0.1403
77895W        W20833  16.752  24.775  23.488  0.0340 -0.0050  0.1804
77896W        W20834  17.881  24.397  21.509 -0.1199 -0.1367  0.0811
77897W        W20835  16.615  23.913  23.423 -0.1654 -0.0636  0.1525
77898W        W20836  14.628  24.479  26.098  0.0315 -0.1223  0.0344
77899W        W20837  18.519  23.964  23.763  0.0040 -0.0840 -0.1486
77900W        W20838  16.858  24.183  24.938  0.1436  0.3041  0.2075
77901W        W20839  16.366  24.121  22.147  0.0057 -0.1498 -0.0316
77902W        W20840  18.925  24.770  22.358  0.1871  0.1632 -0.0011
77903W        W20841  15.165  26.148  25.553 -0.0606 -0.2670 -0.1815
77904W        W20842  15.163  24.002  25.854 -0.0538  0.0120 -0.0432
77905W        W20843  17.191  23.164  24.591  0.0372  0.0668  0.1354
77906W        W20844  15.098  22.546  25.162  0.0362 -0.3794  0.3470
77907W        W20845  17.488  23.526  23.048  0.2744 -0.2980 -0.1560
77908W        W20846  15.737  22.749  22.718 -0.5166  0.0689 -0.0475
77909W        W20847  15.517  27.639  22.662  0.3283 -0.0795 -0.0532
77910W        W20848  19.457  21.571  24.308 -0.1177  0.1962 -0.1059
77911W        W20849  16.862  22.343  23.467  0.0372  0.1386 -0.0851
77912W        W20850  15.811  22.236  23.903 -0.1463 -0.0393 -0.3106
77913W        W20851  17.809  23.505  25.450  0.4092 -0.0509  0.1398
77914W        W20852  17.275  23.802  23.907  0.1499  0.0945 -0.1051
77915W        W20853  18.364  23.614  24.643  0.0317  0.1706 -0.1965
77916W        W20854  15.696  24.247  22.530 -0.1648  0.0754  0.0317
77917W        W20855  16.720  22.847  24.611 -0.0534  0.0600  0.6008
77918W        W20856  14.241  22.602  25.638 -0.0646 -0.1276 -0.1086
77919W        W20857  15.039  25.383  26.322 -0.0548  0.1079  0.1211
77920W        W20858  16.817  23.201  25.113 -0.2012  0.1061 -0.0115
77921W        W20859  17.156  23.600  24.976  0.2386  0.2404  0.1276
77922W        W20860  17.433  21.672  26.327  0.0580 -0.1873  0.1838
77923W        W20861  17.006  23.494  22.488 -0.1785  0.1347  0.1139
77924W        W20862  15.961  25.456  24.902  0.2222 -0.1182  0.1775
77925W        W20863  16.739  24.400  22.361  0.0143 -0.2177  0.1246
77926W        W20864  15.914  22.482  25.121 -0.2735  0.0252 -0.4225
77927W        W20865  17.257  26.093  26.374  0.1379  0.1060  0.0079
77928W        W20866  16.451  25.069  23.206  0.1344  0.1070  0.0068
77929W        W20867  17.737  23.621  23.927  0.1898  0.2708 -0.0296
77930W        W20868  14.729  26.395  23.800 -0.0422  0.0325  0.0186
77931W        W20869  18.301  21.382  23.359 -0.1833  0.1985  0.2649
77932W        W20870  14.900  24.456  24.378  0.0902  0.0283 -0.0728
77933W        W20871  15.454  24.746  24.280  0.4643 -0.2967 -0.1628
77934W        W20872  14.087  23.261  24.035  0.0690 -0.1835 -0.1045
77935W        W20873  15.363  22.015  21.402  0.1997 -0.0870  0.0946
77936W        W20874  18.585  24.481  22.742  0.2357  0.0326 -0.0619
77937W        W20875  15.694  23.251  25.526  0.3369  0.0901 -0.1039
77938W        W20876  16.717  21.945  23.277  0.0561  0.0034  0.0754
77939W        W20877  13.328  24.608  26.325  0.3341 -0.0245  0.2106
77940W        W20878  17.419  22.263  26.247 -0.3933 -0.0910 -0.3413
77941W        W20879  17.986  23.453  22.866 -0.1627  0.0434  0.1178
77942W        W20880  17.893  25.137  26.440  0.3780 -0.4410 -0.0025
77943W        W20881  15.508  24.410  26.659  0.1681 -0.1647 -0.0371
77944W        W20882  13.432  22.585  22.376  0.0158 -0.0388 -0.2189
77945W        W20883  16.869  21.735  23.680  0.0281  0.0546 -0.2012
77946W        W20884  16.304  24.580  24.316  0.3155 -0.1270 -0.1178
77947W        W20885  15.073  23.467  24.502 -0.1039  0.0945 -0.2081
77948W        W20886  17.294  25.282  26.250 -0.5019 -0.1827 -0.1560
77949W        W20887  13.515  23.819  23.353  0.1729 -0.1031 -0.2267
77950W        W20888  15.373  26.009  23.486 -0.0441  0.1512  0.2993
77951W        W20889  16.447  22.669  25.319 -0.0146  0.3774 -0.2003
77952W        W20890  17.472  23.395  25.777  0.1382 -0.0220  0.2866
77953W        W20891  16.158  21.734  24.485 -0.3025  0.0578 -0.0586
77954W        W20892  16.315  23.100  24.974 -0.1437 -0.1840  0.1335
77955W        W20893  16.412  23.044  23.617  0.0160  0.0209 -0.0934
77956W        W20894  17.139  23.860  25.447 -0.0530 -0.0430 -0.0261
77957W        W20895  15.264  24.592  24.696 -0.1548 -0.0677 -0.0870
77958W        W20896  15.390  24.974  26.987 -0.1295  0.0233 -0.0271
77959W        W20897  17.486  22.807  24.436 -0.1101 -0.1696 -0.1742
77960W        W20898  17.231  24.514  22.736 -0.2980  0.1426  0.1534
77961W        W20899  16.901  22.792  25.488  0.1435  0.1015  0.2850
77962W        W20900  16.673  24.758  25.155  0.1186 -0.1227 -0.2783
77963W        W20901  14.029  22.560  25.061  0.0669  0.0593  0.1803
77964W        W20902  14.442  24.845  24.037 -0.1747  0.1560 -0.0200
77965W        W20903  16.490  23.184  25.503 -0.2146 -0.2287  0.1508
77966W        W20904  14.391  24.206  25.300  0.0478  0.0502  0.0048
77967W        W20905  15.602  24.628  23.204 -0.1591  0.2277 -0.4739
77968W        W20906  15.442  26.576  25.600  0.1696  0.0825 -0.0303
77969W        W20907  16.774  24.483  20.918  0.0931  0.1098  0.1132
77970W        W20908  17.984  24.431  23.385  0.1699 -0.2249  0.1291
77971W        W20909  15.483  22.899  23.162  0.2104 -0.2395 -0.2511
77972W        W20910  18.422  22.473  24.672 -0.1228  0.0404 -0.1307
77973W        W20911  17.589  24.317  23.048  0.3682 -0.0731  0.2019
77974W        W20912  17.685  21.337  25.701 -0.1177  0.1190 -0.3958
77975W        W20913  14.945  22.038  24.067  0.3537 -0.2783  0.2485
77976W        W20914  17.811  24.027  25.060 -0.1161 -0.1934 -0.1128
77977W        W20915  14.689  22.219  24.797  0.4251 -0.2983  0.1707
77978W        W20916  15.998  24.706  27.226 -0.0191  0.0853 -0.1089
77979W        W20917  16.464  23.699  25.107 -0.0923  0.3009  0.2496
77980W        W20918  17.127  23.164  22.866  0.3585 -0.0374 -0.0524
77981W        W20919  14.149  22.354  23.465  0.4040 -0.0767  0.1281
77982W        W20920  16.739  22.102  22.813  0.1131  0.1248  0.3004
77983W        W20921  17.359  24.103  24.874 -0.0464  0.0500 -0.0634
77984W        W20922  16.518  25.188  24.864  0.0749 -0.1391  0.0515
77985W        W20923  18.887  22.294  24.301 -0.0573 -0.0058 -0.1911
77986W        W20924  14.618  24.762  25.153  0.1488  0.0961  0.0325
77987W        W20925  18.849  24.079  25.079 -0.0155 -0.0268 -0.0041
77988W        W20926  17.325  22.794  22.594 -0.0876 -0.2272 -0.1395
77989W        W20927  15.241  24.966  25.536 -0.1214 -0.2212  0.0958
77990W        W20928  16.270  22.612  24.775  0.2405 -0.1195 -0.2101
77991W        W20929  16.846  23.407  24.066  0.1118  0.0762 -0.0770
77992W        W20930  17.765  23.365  23.449  0.0176 -0.0609  0.1446
77993W        W20931  17.798  22.572  25.349  0.0875  0.0416 -0.1668
77994W        W20932  17.370  23.666  24.369  0.0926  0.0690 -0.0862
77995W        W20933  17.052  23.083  25.962 -0.0814 -0.2563 -0.0827
77996W        W20934  13.950  21.237  24.547  0.0234  0.0310  0.2897
77997W        W20935  17.544  25.141  25.720  0.0593 -0.2248 -0.0703
77998W        W20936  19.251  23.435  24.614  0.2530 -0.0089  0.0097
77999W        W20937  18.430  23.521  25.340  0.2609 -0.3767 -0.1850
78000W        W20938  17.840  22.664  24.084  0.3358 -0.0993  0.0510
78001W        W20939  16.489  23.779  22.459 -0.2674  0.0080  0.1179
78002W        W20940  14.375  22.954  24.315  0.3955  0.3663 -0.0541
78003W        W20941  19.054  23.613  26.860  0.0861 -0.4137 -0.0515
78004W        W20942  14.109  24.198  23.699 -0.1834 -0.1068 -0.1463
78005W        W20943  18.920  22.002  25.819 -0.1504  0.1856 -0.0317
78006W        W20944  16.403  26.334  24.344  0.3481 -0.0626 -0.1464
78007W        W20945  18.172  23.844  23.230  0.0778 -0.1023  0.0361
78008W        W20946  17.577  22.819  23.679 -0.2089  0.2813  0.0297
78009W        W20947  15.799  22.916  24.054  0.0628  0.0211  0.1410
78010W        W20948  15.268  24.519  26.121  0.0091  0.2798  0.1024
78011W        W20949  13.940  23.694  23.738  0.0419 -0.1819 -0.2525
78012W        W20950  16.495  24.326  23.750  0.1613  0.0050 -0.1670
78013W        W20951  16.959  23.413  25.591  0.1999  0.0166 -0.0678
78014W        W20952  17.598  21.536  26.772  0.1093 -0.1154  0.3619
78015W        W20953  16.269  23.186  21.009 -0.2413 -0.3293 -0.3267
78016W        W20954  17.986  22.063  25.613  0.0684  0.2821 -0.0815
78017W        W20955  15.179  25.276  24.311  0.3638  0.3865  0.0367
78018W        W20956  16.943  22.560  22.879  0.2046 -0.0009 -0.0117
78019W        W20957  16.379  25.619  25.162 -0.0651 -0.0080 -0.0754
78020W        W20958  15.252  23.121  26.180  0.1179 -0.0740  0.1479
78021W        W20959  16.020  25.977  25.137  0.4233 -0.0621  0.2298
78022W        W20960  16.568  22.601  23.771 -0.1460 -0.0199 -0.4523
78023W        W20961  17.334  22.042  24.286  0.0654  0.0017  0.0033
78024W        W20962  16.679  24.785  24.574 -0.0402 -0.0834  0.1604
78025W        W20963  17.163  22.399  25.258 -0.0940 -0.0762 -0.1877
78026W        W20964  16.947  24.362  25.773 -0.0298  0.1148  0.1191
78027W        W20965  15.766  24.763  25.683  0.0453 -0.1488  0.0446
78028W        W20966  16.163  24.498  25.929 -0.1599  0.2297  0.0894
78029W        W20967  17.287  23.208  23.458 -0.0513  0.1009 -0.2749
78030W        W20968  15.526  24.338  25.609  0.1958  0.0326 -0.1395
78031W        W20969  15.244  22.439  26.644 -0.1647 -0.0573 -0.0976
78032W        W20970  15.226  23.519  25.550  0.3280  0.1737  0.3193
78033W        W20971  14.994  24.088  25.356 -0.1468  0.1906 -0.4547
78034W        W20972  15.074  22.947  23.498  0.2487  0.0317  0.1012
78035W        W20973  16.812  26.581  25.199 -0.0246 -0.3206 -0.0220
78036W        W20974  14.221  25.124  26.066  0.2824 -0.1039 -0.3437
78037W        W20975  14.822  23.167  25.778  0.2334 -0.1046 -0.0141
78038W        W20976  15.600  24.952  25.143  0.1923 -0.1545  0.1815
78039W        W20977  17.352  24.626  24.175 -0.0123  0.0109  0.1903
78040W        W20978  15.959  24.570  22.836  0.0643  0.0278 -0.1544
78041W        W20979  17.770  27.514  25.697 -0.2215 -0.2671 -0.1113
78042W        W20980  15.215  23.710  23.214 -0.2105 -0.0982  0.2267
78043W        W20981  14.708  25.688  25.530  0.1265  0.1740  0.1787
78044W        W20982  15.534  26.158  24.492 -0.3189 -0.3232 -0.0722
78045W        W20983  16.663  25.169  23.823 -0.0993 -0.1126 -0.0379
78046W        W20984  14.538  24.312  24.098 -0.1673 -0.3225 -0.0687
78047W        W20985  17.493  23.278  26.287 -0.1263  0.1220 -0.1701
78048W        W20986  17.959  23.078  22.120  0.1013 -0.1001  0.3414
78049W        W20987  19.012  22.942  24.335 -0.1186  0.0219 -0.3530
78050W        W20988  18.977  22.839  23.432  0.0954  0.2222  0.3827
78051W        W20989  17.587  24.712  26.603 -0.0085  0.2697 -0.0043
78052W        W20990  15.858  24.564  24.000  0.1330 -0.2166 -0.2236
78053W        W20991  15.871  23.069  23.523  0.1626  0.0790  0.2097
78054W        W20992  16.056  23.605  25.390 -0.2197  0.0765  0.0236
78055W        W20993  18.529  21.940  24.302  0.0106 -0.0660 -0.2857
78056W        W20994  14.832  24.663  26.611  0.0565  0.1190  0.0201
78057W        W20995  18.408  26.068  23.571 -0.3534  0.1345 -0.2773
78058W        W20996  14.402  24.710  24.608 -0.1714  0.2894  0.3124
78059W        W20997  16.878  23.480  23.509  0.0034  0.1036  0.0934
78060W        W20998  19.296  22.377  23.221 -0.0351  0.1489  0.0668
78061W        W20999  16.300  25.520  23.507  0.0215  0.3890  0.1034
78062W        W21000  16.703  24.726  24.054  0.1428  0.0871  0.1822
78063W        W21001  16.128  24.984  25.091 -0.0880 -0.1530  0.2065
78064W        W21002  16.798  25.142  27.132 -0.0598 -0.0488 -0.0614
78065W        W21003  17.416  25.674  25.909 -0.0831 -0.0409  0.1345
78066W        W21004  13.650  23.447  24.160  0.1970  0.2515 -0.2646
78067W        W21005  19.194  22.947  22.942  0.1366 -0.1446 -0.0346
78068W        W21006  15.740  22.613  25.605 -0.2019  0.3024  0.0246
78069W        W21007  18.490  22.693  23.515  0.1656  0.0481  0.2322
78070W        W21008  14.859  23.419  23.530  0.1549 -0.1947 -0.1901
78071W        W21009  17.390  23.253  24.040  0.1610  0.0486 -0.2816
78072W        W21010  16.974  24.724  26.232 -0.1109 -0.1964  0.2918
78073W        W21011  14.047  23.488  25.217  0.2340  0.0169  0.2194
78074W        W21012  16.705  23.888  23.955  0.3737  0.0913 -0.1161
78075W        W21013  18.239  23.545  24.157  0.1018  0.0254 -0.2249
78076W        W21014  16.621  24.483  21.581 -0.2068 -0.0720  0.0952
78077W        W21015  17.127  24.798  25.659 -0.0444  0.1559 -0.0945
78078W        W21016  14.315  22.671  23.035 -0.0656  0.0688  0.2644
78079W        W21017  16.968  24.854  22.411 -0.1560 -0.1646 -0.1898
78080W        W21018  15.235  24.099  24.506  0.0875 -0.1547 -0.0390
78081W        W21019  15.801  23.219  24.994 -0.0924  0.1014 -0.3554
78082W        W21020  17.038  25.129  24.736 -0.1712 -0.1105  0.0259
78083W        W21021  13.716  22.384  23.655 -0.1367 -0.0902 -0.2405
78084W        W21022  17.137  24.675  21.975  0.4071  0.1666  0.1097
78085W        W21023  19.306  23.519  24.119  0.2038  0.0462  0.3738
78086W        W21024  15.852  25.667  23.722  0.2109  0.0493 -0.4122
78087W        W21025  17.643  24.063  24.200 -0.2441  0.0599 -0.1575
78088W        W21026  16.540  24.365  26.209  0.0440  0.0946 -0.2152
78089W        W21027  15.465  22.337  24.271  0.0541 -0.0927  0.1149
78090W        W21028  16.904  25.278  25.687 -0.4535  0.1450  0.0501
78091W        W21029  19.225  23.874  25.507  0.4389 -0.0836  0.3429
78092W        W21030  15.434  23.517  23.653 -0.2408  0.0716 -0.2239
78093W        W21031  15.024  24.950  24.922  0.2419  0.0955 -0.0314
78094W        W21032  18.038  22.685  24.533 -0.0313 -0.0790  0.1948
78095W        W21033  17.904  22.380  24.942 -0.0988  0.1469 -0.0971
78096W        W21034  16.316  26.036  23.783 -0.2597  0.1439  0.2544
78097W        W21035  17.972  21.871  25.140  0.1937  0.0322  0.0592
78098W        W21036  16.660  24.748  25.836  0.0662 -0.2454 -0.0560
78099W        W21037  14.929  25.726  26.803 -0.2091  0.1366 -0.2448
78100W        W21038  15.725  26.199  23.816 -0.1316 -0.1546 -0.2794
78101W        W21039  16.265  24.137  24.602 -0.0033  0.3631  0.0036
78102W        W21040  16.592  25.913  23.385 -0.2701 -0.1878 -0.0225
78103W        W21041  17.115  26.039  25.572  0.1825 -0.1715  0.3276
78104W        W21042  18.123  24.180  24.718  0.0991 -0.2305  0.1052
78105W        W21043  17.467  22.454  22.963  0.0320 -0.1320  0.0159
78106W        W21044  19.894  22.337  25.114 -0.1060 -0.2693 -0.0615
78107W        W21045  15.746  24.320  24.446  0.1452  0.1049 -0.0425
78108W        W21046  18.733  22.973  22.996  0.3762 -0.0799 -0.0581
78109W        W21047  17.828  22.640  23.280 -0.0219 -0.2310 -0.1442
78110W        W21048  16.231  23.980  25.932 -0.2066 -0.2602  0.0194
78111W        W21049  14.050  24.620  22.918 -0.0142  0.3641  0.0125
78112W        W21050  14.666  24.302  24.848 -0.0513  0.1736  0.2137
78113W        W21051  15.518  25.447  25.148  0.0730  0.1470  0.0196
78114W        W21052  16.336  21.304  24.223  0.2935  0.1957 -0.1557
78115W        W21053  15.069  21.509  24.928  0.0871  0.3299 -0.2448
78116W        W21054  14.656  23.850  25.040  0.0283  0.1773  0.0040
78117W        W21055  16.157  22.609  24.021 -0.0270 -0.0254  0.0069
78118W        W21056  16.695  25.686  23.831 -0.4162 -0.2737 -0.3895
78119W        W21057  14.100  21.017  23.415  0.0769  0.0082 -0.2775
78120W        W21058  13.755  22.903  23.895  0.1678  0.2926 -0.1358
78121W        W21059  18.215  23.510  23.651 -0.0412  0.1087  0.0689
78122W        W21060  16.830  25.644  24.718 -0.0079  0.1236  0.4992
78123W        W21061  16.277  25.565  24.571  0.0437  0.0228  0.0705
78124W        W21062  19.855  23.723  26.978 -0.0801 -0.1866 -0.1172
78125W        W21063  14.388  25.425  22.692  0.0196 -0.1494  0.1178
78126W        W21064  16.047  22.936  25.361  0.3966  0.0335  0.1640
78127W        W21065  16.402  22.775  22.795  0.0509  0.3408  0.2244
78128W        W21066  13.925  22.309  22.995  0.3075 -0.0010 -0.0279
78129W        W21067  15.523  22.469  24.856  0.1428  0.2482 -0.0433
78130W        W21068  17.436  25.515  25.410 -0.2802 -0.0203 -0.2145
78131W        W21069  16.690  25.259  22.810  0.1447  0.1643 -0.1789
78132W        W21070  15.599  23.746  25.217 -0.3236  0.1174  0.2125
78133W        W21071  16.411  24.183  25.146  0.0561  0.2130 -0.3023
78134W        W21072  14.500  21.215  24.335 -0.0496 -0.3318 -0.0136
78135W        W21073  16.319  24.771  22.472 -0.0244 -0.0254 -0.1039
78136W        W21074  15.287  25.852  25.992 -0.1478  0.1264  0.3481
78137W        W21075  19.024  24.431  23.143 -0.1393  0.0381  0.1539
78138W        W21076  18.776  22.690  23.988 -0.0204 -0.1417  0.0794
78139W        W21077  18.431  23.048  23.936 -0.2303 -0.2375  0.2523
78140W        W21078  13.356  21.683  26.471  0.2383  0.0488  0.2280
78141W        W21079  13.926  22.658  26.355  0.0969 -0.3929  0.0694
78142W        W21080  17.273  24.277  26.220  0.0068  0.0157  0.0215
78143W        W21081  17.042  24.394  23.835 -0.0759  0.0233  0.1909
78144W        W21082  16.855  22.971  22.503  0.0377 -0.3481 -0.0390
78145W        W21083  17.104  24.906  23.782 -0.0316 -0.0901  0.0145
78146W        W21084  13.641  22.212  25.151 -0.0725  0.0722 -0.3794
78147W        W21085  17.179  23.918  23.350  0.1434  0.1973 -0.3474
78148W        W21086  15.591  23.277  24.490  0.4165 -0.1825 -0.0271
78149W        W21087  16.165  24.999  24.546 -0.5059  0.0589  0.0116
78150W        W21088  17.774  22.220  24.464 -0.1292 -0.0847  0.1586
78151W        W21089  15.477  24.055  22.984  0.2272  0.1074  0.1026
78152W        W21090  17.668  23.917  23.537 -0.3239  0.1510  0.1669
78153W        W21091  17.799  24.305  26.336 -0.1094  0.1001 -0.4157
78154W        W21092  19.240  24.379  25.601  0.1028  0.1889  0.3661
78155W        W21093  16.571  26.093  26.994  0.1403 -0.2713  0.2888
78156W        W21094  18.801  23.587  24.910  0.2779  0.2633 -0.0156
78157W        W21095  15.541  21.947  22.877 -0.1433 -0.0573  0.0308
78158W        W21096  16.258  24.565  24.840  0.1449 -0.0946  0.1257
78159W        W21097  14.845  24.538  23.720  0.1068  0.0783 -0.3990
78160W        W21098  17.058  22.780  23.374  0.1687 -0.2806 -0.1014
78161W        W21099  15.039  23.999  23.590  0.2120  0.3719 -0.1530
78162W        W21100  18.157  24.290  22.962 -0.0437  0.3051 -0.0357
78163W        W21101  16.156  26.859  26.660  0.2025 -0.0478  0.0317
78164W        W21102  16.326  22.022  26.152  0.0145 -0.1672 -0.0007
78165W        W21103  14.509  24.164  30.080  0.1059 -0.0661 -0.1754
78166W        W21104  16.753  22.355  27.782 -0.2271 -0.0951  0.1129
78167W        W21105  16.731  22.168  26.365  0.0904  0.0783  0.0510
78168W        W21106  17.501  22.819  28.699  0.1001  0.2926  0.1799
78169W        W21107  15.184  21.653  27.197  0.1918 -0.0368  0.0675
78170W        W21108  18.814  24.555  26.961  0.1659 -0.0951 -0.1368
78171W        W21109  16.183  21.258  29.577 -0.1889 -0.2446  0.1768
78172W        W21110  16.345  23.570  28.755 -0.1432  0.0063  0.1351
78173W        W21111  16.298  24.406  28.366 -0.0635  0.1704  0.0753
78174W        W21112  16.288  22.827  25.791  0.4031 -0.0453  0.1124
78175W        W21113  17.395  20.992  28.907 -0.0601  0.0053 -0.1668
78176W        W21114  15.571  23.975  28.047 -0.4085 -0.0408  0.0488
78177W        W21115  16.370  21.623  25.307 -0.1583 -0.0142  0.2299
78178W        W21116  16.149  21.495  28.621  0.2948 -0.0160  0.2723
78179W        W21117  18.055  23.186  28.602 -0.4241  0.0743  0.0040
78180W        W21118  15.997  24.051  26.404  0.0697 -0.1428  0.4620
78181W        W21119  16.169  22.628  29.031  0.1955  0.0402  0.1862
78182W        W21120  16.721  21.317  25.524 -0.1537  0.2150 -0.0057
78183W        W21121  16.767  25.340  28.306  0.0362 -0.1403 -0.0942
78184W        W21122  17.591  22.137  29.525  0.2942  0.0146 -0.2638
78185W        W21123  17.648  20.279  31.090  0.3266  0.1781  0.0525
78186W        W21124  16.974  25.942  27.378  0.0851  0.1066  0.1350
78187W        W21125  14.194  22.077  24.902  0.1786 -0.1584 -0.1953
78188W        W21126  17.252  22.642  27.676 -0.0950 -0.3539  0.0878
78189W        W21127  17.205  23.742  28.601 -0.0431 -0.0335 -0.1294
78190W        W21128  16.680  22.631  29.336 -0.0305  0.4905  0.4561
78191W        W21129  18.044  24.696  28.202 -0.2515  0.1676  0.0923
78192W        W21130  15.606  23.785  26.777  0.2248 -0.1560  0.1942
78193W        W21131  16.643  24.393  29.625  0.1910 -0.1775  0.0216
78194W        W21132  17.024  23.423  30.590 -0.0866 -0.0600 -0.1801
78195W        W21133  17.403  23.071  26.763 -0.0197 -0.0498 -0.0255
78196W        W21134  13.858  25.637  29.541 -0.0828 -0.2900  0.2068
78197W        W21135  15.627  23.792  25.685 -0.0990  0.2972  0.0302
78198W        W21136  18.815  24.031  27.084 -0.2421  0.1841  0.1261
78199W        W21137  17.125  24.367  30.393  0.0679 -0.1691 -0.2001
78200W        W21138  15.761  25.618  29.941 -0.1405 -0.1431  0.1863
78201W        W21139  16.304  24.947  26.944  0.0967 -0.0596 -0.1397
78202W        W21140  16.983  24.886  30.392 -0.1071 -0.2571  0.0097
78203W        W21141  15.326  24.148  29.439  0.0907 -0.0795  0.0604
78204W        W21142  15.003  21.169  30.282 -0.2152  0.1109  0.1584
78205W        W21143  16.529  21.748  27.725 -0.1580  0.0897 -0.0412
78206W        W21144  14.480  23.637  25.909  0.3128  0.0536  0.1479
78207W        W21145  16.691  24.287  28.029  0.1875  0.1095  0.0211
78208W        W21146  16.596  22.397  28.901  0.2658  0.0425  0.1710
78209W        W21147  16.174  23.604  29.386 -0.1275 -0.2258  0.1506
78210W        W21148  18.527  23.224  30.536  0.1782 -0.1479  0.1043
78211W        W21149  15.452  24.918  26.419 -0.2246  0.1528 -0.1815
78212W        W21150  16.737  22.534  27.340  0.0001 -0.1104 -0.2680
78213W        W21151  16.245  22.086  24.157 -0.2611  0.2918 -0.3397
78214W        W21152  18.916  22.099  25.044  0.2747 -0.0877 -0.0188
78215W        W21153  16.889  20.886  26.168  0.1138  0.2923 -0.0796
78216W        W21154  16.678  24.069  26.999  0.0447 -0.1412 -0.0757
78217W        W21155  17.486  21.891  28.771  0.1919  0.1342 -0.2117
78218W        W21156  18.509  25.446  27.623  0.3072 -0.1950 -0.2796
78219W        W21157  16.535  23.569  26.435  0.2967 -0.2460  0.1991
78220W        W21158  18.871  22.765  27.564 -0.0654  0.0197 -0.0057
78221W        W21159  15.526  26.629  29.799  0.0026  0.0762 -0.0446
78222W        W21160  15.634  21.766  27.431  0.1082 -0.1389  0.1253
78223W        W21161  17.942  23.667  25.923  0.3072  0.1774 -0.2826
78224W        W21162  19.185  24.961  27.148 -0.1282  0.0219  0.0956
78225W        W21163  17.713  23.531  27.639  0.0384 -0.0548  0.0584
78226W        W21164  15.739  22.334  26.528  0.1395  0.0200  0.0746
78227W        W21165  15.489  23.205  28.726  0.0792  0.3613 -0.3497
78228W        W21166  14.470  22.600  30.062  0.1839 -0.3986 -0.2446
78229W        W21167  15.572  22.176  25.318 -0.0059  0.0865 -0.1631
78230W        W21168  19.019  23.154  30.603  0.3145 -0.2668  0.2247
78231W        W21169  15.136  24.750  29.779 -0.2835 -0.0035  0.1161
78232W        W21170  20.599  22.203  26.606 -0.1499  0.2546 -0.3867
78233W        W21171  16.708  22.406  26.887 -0.1324 -0.1689 -0.0771
78234W        W21172  17.460  22.899  29.244  0.0810 -0.2120 -0.1626
78235W        W21173  18.382  23.841  25.847 -0.3131  0.1377 -0.1656
78236W        W21174  17.081  22.717  28.994 -0.0352  0.1266 -0.0515
78237W        W21175  18.202  21.119  29.831 -0.2443  0.1812 -0.2381
78238W        W21176  15.425  23.617  27.719  0.3671 -0.1466  0.0296
78239W        W21177  16.406  23.161  26.702  0.0155  0.0347 -0.2847
78240W        W21178  18.235  24.615  28.853 -0.0294  0.1404  0.0500
78241W        W21179  16.858  22.921  26.872 -0.0679  0.1152 -0.2555
78242W        W21180  15.002  26.107  27.283  0.1407  0.0402  0.2792
78243W        W21181  15.033  22.375  28.572 -0.1409  0.2415  0.1194
78244W        W21182  16.573  24.852  28.766  0.0537 -0.0025  0.4035
78245W        W21183  14.694  24.973  25.715 -0.2836  0.0138 -0.0880
78246W        W21184  15.138  25.178  27.809  0.0047  0.0333  0.2080
78247W        W21185  15.885  24.524  25.169  0.0383  0.2699 -0.0079
78248W        W21186  15.577  21.439  26.924 -0.1940  0.0031 -0.1862
78249W        W21187  15.414  24.099  28.475  0.0104 -0.0888 -0.2542
78250W        W21188  17.289  20.730  27.243 -0.2295  0.2073  0.0076
78251W        W21189  16.141  22.071  27.965 -0.1515  0.2238 -0.0741
78252W        W21190  18.177  20.614  29.069  0.0800 -0.0882  0.0103
78253W        W21191  16.073  23.070  26.286  0.1993 -0.1960  0.1594
78254W        W21192  19.516  24.241  27.600  0.0090 -0.0205 -0.0060
78255W        W21193  18.121  20.737  26.899  0.4960  0.3600  0.2695
78256W        W21194  15.330  23.752  26.328  0.1504 -0.5733 -0.1408
78257W        W21195  14.219  22.980  30.362 -0.2443  0.3265  0.0486
78258W        W21196  15.464  22.944  27.935 -0.1745  0.1853 -0.2515
78259W        W21197  15.902  22.184  28.941  0.2186  0.1628  0.4426
78260W        W21198  15.741  22.458  28.234 -0.0059 -0.2215 -0.2843
78261W        W21199  17.636  23.596  30.527 -0.1153  0.0193  0.1390
78262W        W21200  14.484  20.905  26.870  0.1950 -0.3162  0.0881
78263W        W21201  17.814  22.681  27.747 -0.0269  0.1563 -0.3421
78264W        W21202  15.507  22.669  26.103  0.0392  0.2282  0.0438
78265W        W21203  15.405  25.030  25.972 -0.1009 -0.1766  0.0292
78266W        W21204  16.436  22.679  31.092 -0.0685  0.0964 -0.0416
78267W        W21205  18.138  24.652  26.614 -0.1271  0.0483  0.1368
78268W        W21206  16.830  24.941  29.834 -0.0246  0.1729 -0.0653
78269W        W21207  18.283  25.120  28.065 -0.1608 -0.1655 -0.2177
78270W        W21208  17.596  21.657  29.736 -0.3024 -0.1768 -0.1182
78271W        W21209  15.280  21.922  25.776  0.0246  0.1118  0.2687
78272W        W21210  15.883  24.341  28.675 -0.1729  0.1322 -0.0331
78273W        W21211  16.105  23.550  26.692 -0.2420  0.1576  0.2037
78274W        W21212  15.324  22.116  27.299 -0.3945  0.1418  0.0527
78275W        W21213  17.611  23.932  27.122  0.0970 -0.1234  0.3039
78276W        W21214  17.066  23.621  26.012  0.0945  0.0287  0.0568
78277W        W21215  14.624  23.028  30.921 -0.0168 -0.2322  0.1879
78278W        W21216  17.286  23.349  30.107  0.0596  0.2836  0.0308
78279W        W21217  18.370  23.013  28.914  0.1619  0.2825  0.4611
78280W        W21218  17.851  22.810  26.840 -0.1923  0.3998 -0.1528
78281W        W21219  15.428  21.915  26.830  0.1042 -0.0492  0.3062
78282W        W21220  16.801  25.710  29.736 -0.0652 -0.0970 -0.2066
78283W        W21221  14.608  23.710  27.988  0.1976 -0.1617 -0.0238
78284W        W21222  15.789  23.561  27.220 -0.1962  0.1402  0.3495
78285W        W21223  17.106  24.291  27.749 -0.1753 -0.2194  0.2704
78286W        W21224  18.452  21.490  26.242 -0.1502  0.0742 -0.2821
78287W        W21225  15.932  23.381  31.306  0.0294  0.0766  0.0119
78288W        W21226  18.643  22.740  29.224 -0.2160  0.0180 -0.3839
78289W        W21227  15.259  22.402  25.702  0.2531 -0.0040  0.1551
78290W        W21228  15.475  24.709  29.259 -0.0026 -0.2922  0.2561
78291W        W21229  17.136  21.243  27.555 -0.3029  0.1093 -0.3741
78292W        W21230  18.221  22.322  26.052 -0.0197 -0.0090  0.0267
78293W        W21231  17.309  22.270  29.988 -0.3077  0.2822 -0.2186
78294W        W21232  18.295  22.902  27.058  0.3218  0.4243  0.0013
78295W        W21233  16.792  22.420  25.927 -0.1780  0.1790  0.2725
78296W        W21234  16.458  22.669  26.422 -0.0642 -0.1894  0.0692
78297W        W21235  15.902  23.864  28.862 -0.0275 -0.4436  0.3415
78298W        W21236  18.586  25.140  28.863  0.0238 -0.2750  0.0815
78299W        W21237  16.930  23.230  26.422 -0.1427 -0.3562 -0.0656
78300W        W21238  13.978  21.748  26.363 -0.1959 -0.0116  0.0055
78301W        W21239  17.541  23.045  27.510 -0.1459 -0.0548  0.1631
78302W        W21240  15.050  23.955  28.898 -0.0485 -0.1535 -0.0290
78303W        W21241  17.107  25.322  29.938  0.0246 -0.2271 -0.2332
78304W        W21242  18.420  24.249  26.899  0.2988  0.1493  0.2414
78305W        W21243  16.746  22.134  29.348 -0.2085  0.2797  0.2994
78306W        W21244  16.964  22.586  26.462  0.1800 -0.1095 -0.0792
78307W        W21245  15.731  22.641  28.737 -0.1159 -0.2698  0.0923
78308W        W21246  14.277  24.808  26.652 -0.1931 -0.0309 -0.1035
78309W        W21247  18.049  22.212  29.150 -0.2360  0.2460  0.1298
78310W        W21248  17.678  21.780  28.313 -0.2367 -0.2053 -0.1936
78311W        W21249  15.375  20.497  30.988 -0.1409 -0.1236  0.5111
78312W        W21250  18.164  23.499  31.059 -0.0482  0.1272  0.2375
78313W        W21251  17.956  22.226  26.957  0.0040 -0.0394  0.0067
78314W        W21252  17.246  23.544  27.242  0.4668  0.2638 -0.0655
78315W        W21253  16.002  21.989  25.263 -0.3095  0.2824 -0.2950
78316W        W21254  17.749  21.928  30.094 -0.1579 -0.2886 -0.3559
78317W        W21255  16.067  23.026  29.294 -0.0627  0.3613 -0.0159
78318W        W21256  15.948  24.419  30.055 -0.1010  0.0093  0.0746
78319W        W21257  18.246  22.975  31.041 -0.1458  0.4345 -0.1252
78320W        W21258  17.919  24.562  27.601 -0.2409  0.0356  0.0354
78321W        W21259  16.386  21.496  31.040  0.0850 -0.0150 -0.3753
78322W        W21260  15.873  22.700  27.306 -0.1575  0.0301  0.4687
78323W        W21261  15.713  24.542  26.224  0.0083 -0.4575 -0.0362
78324W        W21262  17.960  24.235  25.879  0.0936  0.3758 -0.2859
78325W        W21263  17.377  21.304  29.326  0.0203 -0.1048 -0.1997
78326W        W21264  16.818  23.787  27.884 -0.0141 -0.0641 -0.1497
78327W        W21265  16.483  25.101  25.449 -0.1331  0.0797  0.2202
78328W        W21266  17.135  23.146  28.780  0.0550 -0.3874  0.3372
78329W        W21267  14.871  25.274  27.316  0.0129 -0.0274 -0.1760
78330W        W21268  18.208  20.544  29.607 -0.1153 -0.0167 -0.0181
78331W        W21269  15.409  24.506  28.179  0.3573 -0.0398  0.0353
78332W        W21270  14.779  22.584  25.604  0.0768  0.0249 -0.2440
78333W        W21271  15.714  23.152  25.988  0.3539  0.4106  0.2152
78334W        W21272  16.430  21.110  27.133  0.1100  0.0186  0.1959
78335W        W21273  17.915  23.241  26.647  0.1206 -0.0036 -0.1567
78336W        W21274  15.121  20.804  28.301 -0.4240  0.4070  0.1486
78337W        W21275  17.983  22.746  29.204  0.0079 -0.1880 -0.3819
78338W        W21276  15.567  24.475  27.656  0.1258 -0.2481 -0.3995
78339W        W21277  17.236  21.694  27.416 -0.1291  0.1066  0.1524
78340W        W21278  16.890  22.213  24.025  0.1077  0.0712 -0.2498
78341W        W21279  16.322  24.064  29.210 -0.1496  0.3783  0.0854
78342W        W21280  15.385  21.157  30.622  0.1008 -0.1687  0.1372
78343W        W21281  14.242  23.320  27.129 -0.0970  0.0763 -0.2894
78344W        W21282  17.904  22.941  31.660 -0.0172  0.1266  0.4362
78345W        W21283  16.241  21.675  26.528  0.0912 -0.0176  0.0423
78346W        W21284  16.704  23.274  28.149 -0.2967 -0.0022 -0.1145
78347W        W21285  16.419  23.781  29.778 -0.1226  0.0859  0.1788
78348W        W21286  16.617  24.037  25.600  0.1974  0.3148  0.0993
78349W        W21287  15.613  24.013  27.401  0.2608 -0.1123 -0.2553
78350W        W21288  15.835  23.028   0.234  0.2321  0.3801  0.4818
78351W        W21289  16.285  24.466  28.911 -0.0651 -0.0117  0.1546
78352W        W21290  16.255  22.510  27.566 -0.1073 -0.1298 -0.0693
78353W        W21291  16.417  22.523  28.086  0.2917 -0.3326  0.1385
78354W        W21292  16.350  21.273  27.609 -0.0747 -0.0540  0.1850
78355W        W21293  16.804  24.568  27.137  0.0368 -0.1268 -0.1116
78356W        W21294  16.342  22.105  30.199  0.1732 -0.2549 -0.2125
78357W        W21295  16.680  23.650  29.099 -0.2616  0.0751 -0.0029
78358W        W21296  18.540  21.491  28.569  0.2284  0.1803  0.0661
78359W        W21297  19.581  24.165  26.043 -0.3326  0.0720  0.3871
78360W        W21298  16.813  23.162  31.537  0.0797  0.0547 -0.1484
78361W        W21299  15.187  24.033  26.801 -0.0788  0.1371 -0.0819
78362W        W21300  15.044  23.157  27.106 -0.2656 -0.0173  0.2126
78363W        W21301  14.629  23.446  25.422 -0.2624 -0.0015 -0.0760
78364W        W21302  16.818  21.819  30.348 -0.4351  0.1129 -0.1462
78365W        W21303  16.905  22.871  27.994 -0.1272 -0.2193 -0.0045
78366W        W21304  16.139  24.528  26.434 -0.2325 -0.2013 -0.0952
78367W        W21305  14.927  23.447  30.506 -0.0215  0.4604  0.1506
78368W        W21306  17.849  20.887  25.870  0.1327  0.1751 -0.1971
78369W        W21307  16.449  23.730  24.315 -0.0056 -0.3933  0.0408
78370W        W21308  16.250  22.229  26.579  0.1497  0.1869  0.0016
78371W        W21309  18.622  21.392  30.607 -0.1923 -0.0477 -0.0197
78372W        W21310  17.467  22.787  26.325 -0.0078  0.0090  0.1435
78373W        W21311  18.219  21.490  30.302  0.1304 -0.1171  0.1878
78374W        W21312  15.742  21.793  28.718 -0.2286  0.1741 -0.0495
78375W        W21313  17.315  23.843  27.625  0.0106  0.0513 -0.3760
78376W        W21314  15.156  23.196  27.614 -0.2152 -0.1788 -0.1321
78377W        W21315  17.510  24.991  31.199 -0.0648  0.0083 -0.0122
78378W        W21316  13.476  24.612  31.532 -0.0918  0.3141 -0.3400
78379W        W21317  17.349  20.190  27.291 -0.0033 -0.3653  0.0437
78380W        W21318  14.951  21.706  26.621 -0.1108 -0.1800  0.0722
78381W        W21319  17.208  22.183  27.575  0.0336  0.2248  0.0146
78382W        W21320  17.636  23.527  28.477 -0.0061 -0.0701 -0.2248
78383W        W21321  16.519  23.560  25.829 -0.1446 -0.1735  0.2546
78384W        W21322  17.136  23.346  27.766  0.2990 -0.0587  0.1695
78385W        W21323  16.951  23.141  29.295  0.1171  0.1694  0.2264
78386W        W21324  17.404  22.689  28.188  0.0687 -0.2095  0.0557
78387W        W21325  17.569  24.626  25.064  0.1428 -0.2604 -0.0669
78388W        W21326  15.899  23.127  26.971  0.1919  0.0418 -0.3650
78389W        W21327  17.926  21.772  29.341  0.0351 -0.2885  0.0469
78390W        W21328  17.917  23.865  26.736  0.1380  0.0290 -0.3590
78391W        W21329  18.374  21.892  29.447 -0.0466  0.0837 -0.2115
78392W        W21330  17.323  21.969  30.352  0.1883  0.0982 -0.2002
78393W        W21331  16.847  24.013  28.856  0.0497 -0.1055  0.0161
78394W        W21332  16.559  23.169  28.940  0.2788  0.0148  0.1455
78395W        W21333  14.740  22.265  29.402 -0.2860  0.1942  0.3382
78396W        W21334  18.128  25.377  28.978 -0.0286 -0.1957  0.0590
78397W        W21335  17.366  21.811  23.777  0.1765 -0.3617  0.0285
78398W        W21336  18.440  23.826  28.149  0.1075 -0.1546  0.1679
78399W        W21337  17.671  21.427  27.524  0.1875  0.1838 -0.0547
78400W        W21338  16.048  21.763  25.757  0.0925 -0.0127  0.1323
78401W        W21339  17.037  22.113  28.910  0.0567 -0.1550  0.2219
78402W        W21340  17.300  23.882  29.562  0.1418  0.0265 -0.0648
78403W        W21341  15.939  22.317  24.422  0.2327 -0.1597  0.1599
78404W        W21342  16.822  22.337  30.290 -0.0797  0.0321  0.2868
78405W        W21343  16.818  23.447  26.918  0.2782 -0.0192 -0.0077
78406W        W21344  18.178  24.758  27.102  0.0155 -0.0210  0.0400
78407W        W21345  16.028  22.714  26.704 -0.2062 -0.2157 -0.0950
78408W        W21346  16.502  21.665  29.416 -0.1331  0.1903 -0.2007
78409W        W21347  16.139  25.607  30.379  0.0914 -0.1858  0.1765
78410W        W21348  14.459  22.117  25.644  0.3370 -0.3736  0.3532
78411W        W21349  15.978  23.619  26.000 -0.1142  0.1417 -0.1173
78412W        W21350  16.853  23.959  29.427 -0.1122 -0.0501 -0.1916
78413W        W21351  18.511  23.745  30.275  0.4671 -0.0741  0.2032
78414W        W21352  17.945  20.444  27.311  0.2648  0.0711 -0.0747
78415W        W21353  17.043  23.806  30.278 -0.1591 -0.0717  0.2213
78416W        W21354  15.359  26.068  26.939  0.0771  0.0442 -0.0178
78417W        W21355  17.519  20.049  28.211 -0.0778  0.4613 -0.0981
78418W        W21356  15.226  26.634  29.349  0.1159 -0.0864  0.4099
78419W        W21357  15.163  22.815  30.162 -0.1600 -0.1192  0.1492
78420W        W21358  16.050  24.075  26.920 -0.1157  0.2607 -0.2630
78421W        W21359  17.579  20.655  30.529  0.2743  0.1577  0.0194
78422W        W21360  16.674  22.277  28.439  0.2175 -0.1111 -0.1755
78423W        W21361  18.198  21.785  26.931 -0.2454  0.1024 -0.0370
78424W        W21362  18.866  23.468  31.497 -0.1221  0.0129  0.0315
78425W        W21363  15.974  24.129  29.623 -0.1133 -0.1928  0.0662
78426W        W21364  16.642  21.888  28.154  0.1804 -0.1202 -0.0848
78427W        W21365  16.615  24.781  28.267  0.1408  0.1824  0.1090
78428W        W21366  17.347  23.751  28.132  0.1038  0.1719  0.0530
78429W        W21367  16.807  21.338  27.916  0.0282 -0.0851 -0.2651
78430W        W21368  14.935  22.478  30.403  0.0199 -0.0649  0.2743
78431W        W21369  15.587  22.838  29.139  0.0093  0.2079 -0.2580
78432W        W21370  18.565  23.151  27.543  0.1502 -0.1098  0.1630
78433W        W21371  16.289  20.779  26.822 -0.0126  0.0744  0.3768
78434W        W21372  15.769  25.851  26.662  0.1886  0.0857 -0.0006
78435W        W21373  15.128  23.470  31.828 -0.2935 -0.4155  0.1430
78436W        W21374  15.022  22.746  31.236 -0.1443 -0.1190 -0.4048
78437W        W21375  14.488  24.970  27.081 -0.0581 -0.0648  0.0016
78438W        W21376  17.451  24.128  26.650  0.3180  0.0661  0.2678
78439W        W21377  17.219  22.968  27.168  0.0126 -0.3437 -0.3644
78440W        W21378  16.920  24.728  27.690  0.1134  0.2301  0.0403
78441W        W21379  16.222  22.412  27.028  0.0096  0.0730 -0.0021
78442W        W21380  16.452  23.458  27.672 -0.0579 -0.0009  0.1230
78443W        W21381  15.732  24.117  26.013  0.0261 -0.0733 -0.0314
78444W        W21382  17.661  23.792  26.304 -0.2703  0.3607 -0.1248
78445W        W21383  16.325  25.846  27.391 -0.0098  0.2033  0.0522
78446W        W21384  16.761  23.953  28.382  0.2208 -0.1607  0.0785
78447W        W21385  18.423  22.818  26.027  0.1165  0.2554  0.0886
78448W        W21386  19.303  22.946  27.929 -0.0152  0.1101 -0.0227
78449W        W21387  18.014  21.287  26.946 -0.1759  0.1222  0.0110
78450W        W21388  17.283  24.664  30.801 -0.0243  0.0139  0.0554
78451W        W21389  16.799  23.438  28.571  0.0748 -0.1438  0.2832
78452W        W21390  16.720  20.927  24.859 -0.0634 -0.0697  0.2243
78453W        W21391  14.752  24.421  29.653 -0.0057  0.1516 -0.3553
78454W        W21392  18.682  21.626  29.081  0.1838 -0.3098 -0.0496
78455W        W21393  14.101  25.300  28.470 -0.0625 -0.1345 -0.3393
78456W        W21394  17.629  25.138  27.484 -0.2977  0.1153  0.1019
78457W        W21395  14.080  21.832  25.827  0.0792 -0.0367  0.0622
78458W        W21396  15.945  21.923  26.844  0.2159  0.9019 -0.5170
78459W        W21397  17.965  22.606  28.727  0.0402 -0.2453 -0.2487
78460W        W21398  14.657  24.100  25.786 -0.2673 -0.0973  0.1115
78461W        W21399  17.804  22.111  27.465  0.0717  0.1237  0.0298
78462W        W21400  17.240  25.332  28.664 -0.2741  0.2981 -0.1333
78463W        W21401  16.828  23.694  27.415 -0.1268  0.0611 -0.2871
78464W        W21402  15.968  23.984  28.367 -0.0064  0.1246  0.1251
78465W        W21403  14.637  23.138  26.809  0.0257 -0.2500  0.1851
78466W        W21404  18.686  20.960  26.404 -0.0151  0.0969 -0.4706
78467W        W21405  15.835  22.433  30.073  0.0700  0.3649 -0.1424
78468W        W21406  18.460  19.818  28.515 -0.2587 -0.2820 -0.1761
78469W        W21407  15.393  22.723  27.053  0.2022  0.2151 -0.1483
78470W        W21408  17.196  23.295  28.308  0.1294  0.0368 -0.1143
78471W        W21409  16.989  23.465  29.754  0.0871  0.2815  0.3892
78472W        W21410  15.830  23.411  29.037  0.0475  0.3086 -0.0210
78473W        W21411  15.979  24.007  25.019 -0.0967  0.0990 -0.0426
78474W        W21412  17.748  23.739  29.297  0.0254 -0.2211 -0.0083
78475W        W21413  17.872  21.979  26.160 -0.3444 -0.1668 -0.0011
78476W        W21414  17.753  25.434  28.711  0.2476 -0.1168 -0.0526
78477W        W21415  17.472  22.475  26.781  0.0657  0.3861  0.1652
78478W        W21416  18.463  20.087  25.970  0.1646 -0.0761 -0.1235
78479W        W21417  15.421  21.686  25.297  0.0761 -0.0521 -0.0949
78480W        W21418  17.752  21.066  29.624 -0.3100  0.1404  0.0617
78481W        W21419  17.106  24.452  29.446 -0.0695 -0.2067 -0.0301
78482W        W21420  15.927  21.125  28.087 -0.0350 -0.2081  0.0192
78483W        W21421  16.836  23.988  26.288  0.1360  0.0599  0.2771
78484W        W21422  18.379  23.639  29.576  0.1869 -0.1214 -0.2333
78485W        W21423  15.851  24.872  26.768 -0.0346  0.1053 -0.2927
78486W        W21424  17.716  23.416  27.080 -0.1787 -0.1087 -0.1627
78487W        W21425  16.980  25.770  28.674  0.0513 -0.2305  0.1295
78488W        W21426  15.984  22.809  27.922  0.0791 -0.3818  0.2039
78489W        W21427  17.788  24.499  28.678 -0.0305 -0.0101 -0.0607
78490W        W21428  18.335  22.726  27.761 -0.0193  0.1649 -0.3438
78491W        W21429  19.135  22.573  28.792 -0.2563  0.0833 -0.1466
78492W        W21430  16.705  21.563  27.220 -0.0132 -0.1488 -0.1194
78493W        W21431  15.892  23.447  28.525  0.1037 -0.1062 -0.1853
78494W        W21432  17.195  23.585  29.091 -0.0189  0.1391 -0.0958
78495W        W21433  18.220  22.740  30.477 -0.0747  0.1929  0.0006
78496W        W21434  17.453  24.703  26.055 -0.3443  0.0165  0.2295
78497W        W21435  18.346  23.045  30.059  0.1310  0.0879  0.0724
78498W        W21436  17.478  24.074  30.165  0.1565  0.0195 -0.0205
78499W        W21437  15.576  23.108  30.023  0.0520 -0.3039 -0.1388
78500W        W21438  15.688  23.416  26.405 -0.2167  0.1659  0.0506
78501W        W21439  16.015  23.212  29.813 -0.0439 -0.0180  0.4878
78502W        W21440  16.356  24.450  26.979 -0.2293  0.0709 -0.2774
78503W        W21441  17.806  26.089  28.021 -0.1096 -0.1584  0.0858
78504W        W21442  17.762  24.038  28.420  0.4648  0.0825 -0.4582
78505W        W21443  16.769  23.113  27.332 -0.0161 -0.4928  0.1302
78506W        W21444  17.517  24.694  28.360 -0.0836 -0.1461 -0.2036
78507W        W21445  16.184  20.653  25.536 -0.0369  0.0531 -0.4114
78508W        W21446  18.426  20.419  26.441  0.0988  0.3367  0.1982
78509W        W21447  18.356  20.955  27.214  0.1400 -0.1166  0.0140
78510W        W21448  15.651  24.494  29.646  0.3015  0.0990  0.1410
78511W        W21449  13.648  23.761  27.793 -0.0220 -0.5122 -0.0386
78512W        W21450  15.557  24.492  27.143 -0.0289  0.0759  0.2212
78513W        W21451  16.665  22.864  28.513 -0.4034 -0.4096  0.4665
78514W        W21452  18.155  21.711  28.862  0.2828  0.0231  0.0503
78515W        W21453  15.022  22.039  29.050  0.0832 -0.1271 -0.3820
78516W        W21454  14.877  22.614  26.910  0.1155  0.4837  0.1909
78517W        W21455  16.372  22.022  27.296  0.0602 -0.0980  0.4813
78518W        W21456  19.224  23.865  26.087  0.1452 -0.1591  0.4450
78519W        W21457  17.726  21.689  30.498  0.1333  0.0812  0.1282
78520W        W21458  13.904  21.208  26.439  0.0348  0.0102 -0.1108
78521W        W21459  17.447  23.888  25.827 -0.0500  0.3075 -0.1996
78522W        W21460  17.807  24.007  27.639  0.0527  0.2038  0.1103
78523W        W21461  17.591  21.245  28.446 -0.3939  0.4216 -0.1720
78524W        W21462  18.852  23.719  29.409  0.2522  0.1064 -0.1620
78525W        W21463  14.995  23.514  26.692 -0.0890 -0.0476 -0.1427
78526W        W21464  15.266  22.228  30.043 -0.1846  0.0290  0.2792
78527W        W21465  17.280  22.412  30.708 -0.2398 -0.1556 -0.1361
78528W        W21466  15.669  22.315  26.998 -0.1898  0.0060 -0.1806
78529W        W21467  17.421  22.315  28.530  0.1819  0.0553 -0.1360
78530W        W21468  17.486  24.350  27.422 -0.0931 -0.0682 -0.1758
78531W        W21469  17.768  24.937  26.976 -0.1318 -0.2622 -0.0127
78532W        W21470  15.423  22.370  29.049  0.3175  0.0931  0.2223
78533W        W21471  16.693  25.257  30.198 -0.2865  0.0113 -0.2622
78534W        W21472  15.133  21.176  29.540 -0.1408 -0.2479  0.1683
78535W        W21473  16.664  24.630  26.623 -0.0338  0.3623 -0.0074
78536W        W21474  15.375  24.086  29.980 -0.2602 -0.1577  0.1479
78537W        W21475  18.241  23.536  27.693  0.2033 -0.0921 -0.0840
78538W        W21476  17.989  22.176  28.630 -0.2729  0.1791  0.0947
78539W        W21477  16.881  22.039  27.252 -0.1772 -0.0045  0.1581
78540W        W21478  15.497  22.159  28.482  0.2046 -0.3625 -0.2604
78541W        W21479  15.219  25.665  28.779 -0.0544  0.0956 -0.0930
78542W        W21480  17.564  24.239  27.977  0.2449  0.0052  0.2054
78543W        W21481  16.572  21.087  29.374  0.0101  0.0722 -0.2565
78544W        W21482  17.076  22.074  26.669  0.1480 -0.0719  0.2439
78545W        W21483  17.364  23.555  26.696  0.1027 -0.1083 -0.1640
78546W        W21484  15.636  23.816  29.306  0.2347 -0.1498 -0.1440
78547W        W21485  16.359  21.416  26.066  0.2321  0.0914  0.0086
78548W        W21486  17.790  22.629  29.668  0.1013 -0.2243 -0.0424
78549W        W21487  15.483  24.588  30.155 -0.0469  0.2034  0.2221
78550W        W21488  16.739  24.482  29.133  0.1987 -0.2125 -0.2733
78551W        W21489  16.364  24.605  27.819  0.2601  0.2387  0.0049
78552W        W21490  18.220  23.317  25.785  0.0208  0.0458  0.2387
78553W        W21491  17.914  26.403  28.771 -0.3043  0.3401 -0.0652
78554W        W21492  18.474  24.088  28.984 -0.0398 -0.0658  0.0718
78555W        W21493  17.214  25.506  27.205  0.1551 -0.3128  0.2615
78556W        W21494  17.955  23.700  28.079  0.1091  0.0168  0.3051
78557W        W21495  16.557  21.168  28.472  0.1430 -0.0294 -0.0380
78558W        W21496  16.390  23.910  27.345 -0.0884  0.0150 -0.1864
78559W        W21497  16.493  22.910  27.744  0.0362  0.0253 -0.2962
78560W        W21498  17.652  21.985  26.622  0.4093 -0.1383  0.0857
78561W        W21499  17.435  21.769  29.249  0.1131  0.0319 -0.0922
78562W        W21500  17.734  21.177  26.270  0.0826 -0.3918 -0.3433
78563W        W21501  16.088  25.327  29.098  0.0303  0.0850  0.0670
78564W        W21502  17.447  23.981  28.935 -0.1687 -0.2771  0.1425
78565W        W21503  16.460  23.523  31.252 -0.0793 -0.1938 -0.1354
78566W        W21504  15.745  23.571  29.984 -0.1567 -0.2565  0.1136
78567W        W21505  15.237  21.736  30.368  0.4472  0.0096 -0.0088
78568W        W21506  15.232  23.644  29.776  0.0548 -0.1914  0.1755
78569W        W21507  14.957  25.652  29.568 -0.1677 -0.0505 -0.5660
78570W        W21508  15.032  25.184  31.351  0.0646  0.0125  0.4378
78571W        W21509  16.898  23.640  31.066 -0.2050 -0.0159 -0.0975
78572W        W21510  15.772  21.460  30.498  0.0790 -0.2431  0.0503
78573W        W21511  16.066  21.789  31.329 -0.3325 -0.2384 -0.0065
78574W        W21512  17.579  24.340  31.140 -0.0239 -0.0111  0.1270
78575W        W21513  17.041  24.301  31.058 -0.1844 -0.2782  0.0270
78576W        W21514  16.365  22.812  29.654  0.0467 -0.0035 -0.4437
78577W        W21515  17.890  25.537  29.396 -0.1808  0.1689 -0.3631
78578W        W21516  15.850  22.754  29.684 -0.0805 -0.1369  0.1736
78579W        W21517  17.542  24.627   0.288  0.0355  0.2263 -0.2937
78580W        W21518  15.923  24.923  29.654  0.2859  0.0279  0.1617
78581W        W21519  16.353  22.989  30.552 -0.0971 -0.2077  0.3501
78582W        W21520  17.368  24.019  30.720  0.0101 -0.1566 -0.0665
78583W        W21521  14.715  21.342  31.284  0.3185 -0.0497  0.0174
78584W        W21522  15.490  22.017  30.720  0.0914  0.3261 -0.0327
78585W        W21523  14.682  20.391  29.850 -0.2609  0.0028  0.2064
78586W        W21524  14.760  24.148  31.703  0.0913 -0.3735  0.0677
78587W        W21525  17.359  20.341  31.569  0.0686 -0.2791  0.1492
78588W        W21526  15.891  22.330  30.550 -0.2228  0.0718 -0.1680
78589W        W21527  17.718  21.138  30.692  0.0791 -0.1061 -0.1636
78590W        W21528  17.708  22.703  30.738 -0.0088 -0.0381  0.1068
78591W        W21529  15.392  25.172  30.861  0.1889  0.1035 -0.0930
78592W        W21530  15.690  26.184  28.960  0.1735  0.2922 -0.0918
78593W        W21531  15.667  23.360  29.507 -0.0434  0.1587  0.3712
78594W        W21532  15.397  23.272  30.461 -0.2455 -0.0356  0.1755
78595W        W21533  16.363  24.048  28.682  0.2836  0.4316 -0.1666
78596W        W21534  15.801  22.878  30.401  0.2967  0.0528  0.3496
78597W        W21535  18.357  24.823  31.107 -0.0669 -0.0901 -0.1239
78598W        W21536  18.226  22.060  30.150 -0.0087  0.4355 -0.0025
78599W        W21537  15.240  22.403   0.079 -0.1094 -0.0749  0.1563
78600W        W21538  14.698  24.170  30.633 -0.1329 -0.0011  0.0203
78601W        W21539  15.059  25.557  30.985 -0.0141  0.1746 -0.0704
78602W        W21540  16.410  22.658  30.189  0.0374 -0.2701  0.0128
78603W        W21541  16.233  22.682   0.403  0.4939  0.1919 -0.0575
78604W        W21542  17.246  22.974  29.701  0.1113 -0.1411  0.3150
78605W        W21543  18.618  22.429  31.734  0.2360  0.0136  0.0180
78606W        W21544  17.224  22.660  30.253  0.0919 -0.2466 -0.0420
78607W        W21545  16.907  21.144  28.994  0.0932 -0.2055  0.1649
78608W        W21546  17.259  24.500  28.862  0.1432  0.0268  0.2024
78609W        W21547  16.905  22.665  29.842  0.1748 -0.0134  0.0315
78610W        W21548  15.426  22.440  30.501  0.0204 -0.4215  0.1587
78611W        W21549  14.842  22.556  31.707 -0.0779 -0.3178  0.0375
78612W        W21550  15.574  23.082  30.900  0.0582 -0.0148 -0.2792
78613W        W21551  19.008  23.982  30.625 -0.1544 -0.2693 -0.5329
78614W        W21552  14.468  26.138  31.219  0.1752  0.0531 -0.1384
78615W        W21553  16.869  25.250  29.440  0.0523  0.1868  0.0476
78616W        W21554  17.152  24.574  29.972  0.1808 -0.1204 -0.0819
78617W        W21555  16.922  21.429  29.676  0.2178 -0.1062 -0.0450
78618W        W21556  16.481  23.302  29.641  0.2543 -0.0219  0.2487
78619W        W21557  16.529  23.546  30.720 -0.1269  0.0544 -0.3552
78620W        W21558  16.195  23.890  30.702 -0.1010  0.0687  0.0016
78621W        W21559  18.422  24.803  29.696 -0.1888 -0.0981  0.0248
78622W        W21560  17.976  25.236  30.137 -0.2626  0.0204 -0.0898
78623W        W21561  15.556  23.783  30.437  0.0876 -0.0097  0.2095
78624W        W21562  15.253  22.843  31.759 -0.3220  0.1523  0.0820
78625W        W21563  14.763  23.922   0.476  0.1146  0.0745 -0.0777
78626W        W21564  16.275  22.342  29.488 -0.3812  0.1860 -0.1063
78627W        W21565  15.570  21.875  29.224  0.3127 -0.2253  0.0266
78628W        W21566  15.509  21.197  30.105  0.1144  0.1128  0.0611
78629W        W21567  18.157  24.411  31.356 -0.2018 -0.1198 -0.0814
78630W        W21568  17.876  24.706  31.003 -0.2797 -0.0183 -0.2313
78631W        W21569  18.448  22.523  31.286  0.0699  0.0561 -0.1161
78632W        W21570  13.739  27.374  19.652 -0.2337 -0.0859 -0.0706
78633W        W21571  16.349  27.923  16.685  0.1487  0.5257  0.0695
78634W        W21572  17.499  26.680  16.357  0.0918 -0.1479 -0.1939
78635W        W21573  17.837  27.463  16.746  0.2189 -0.3420  0.0454
78636W        W21574  13.494  27.129  17.095 -0.2012 -0.2364 -0.2137
78637W        W21575  17.573  28.524  18.322  0.0025  0.0575  0.0599
78638W        W21576  14.472  25.531  19.202  0.1209  0.0864 -0.0060
78639W        W21577  17.417  26.920  20.044 -0.0873  0.2745  0.0332
78640W        W21578  18.163  28.741  18.382  0.1751 -0.0152 -0.2299
78641W        W21579  16.425  27.715  15.271 -0.1046  0.0966 -0.0450
78642W        W21580  16.153  26.375  17.093 -0.0951  0.0691 -0.0730
78643W        W21581  14.941  28.077  19.052 -0.1247 -0.1023  0.0279
78644W        W21582  15.098  25.206  17.523 -0.0326 -0.4929 -0.3158
78645W        W21583  12.260  25.706  17.439 -0.0049  0.2018  0.2020
78646W        W21584  17.624  26.329  17.540  0.1272  0.3095 -0.2176
78647W        W21585  15.812  25.928  16.843  0.0951 -0.3406  0.0199
78648W        W21586  15.598  26.046  17.297 -0.0843 -0.1452  0.1170
78649W        W21587  16.386  26.963  16.968 -0.0435  0.0268  0.2349
78650W        W21588  17.126  29.276  20.328  0.3336  0.1150  0.1241
78651W        W21589  15.485  26.038  20.013  0.1490 -0.0676  0.3159
78652W        W21590  17.700  24.908  18.002  0.1014  0.0058  0.0065
78653W        W21591  15.211  28.735  15.719  0.1257 -0.1798  0.3422
78654W        W21592  14.945  27.723  17.366 -0.1910  0.0055 -0.1450
78655W        W21593  13.035  27.833  17.382 -0.1752  0.1519  0.0167
78656W        W21594  17.049  27.369  19.129  0.0723 -0.0862 -0.0069
78657W        W21595  16.605  26.868  18.456 -0.1580  0.1107  0.0170
78658W        W21596  16.532  27.033  16.474  0.0581  0.3076 -0.0076
78659W        W21597  15.940  28.636  17.797 -0.1419  0.0258 -0.0780
78660W        W21598  16.388  27.364  18.545 -0.0007  0.4987  0.0060
78661W        W21599  16.635  27.706  19.446 -0.0878  0.2993 -0.0966
78662W        W21600  13.522  27.618  17.430  0.0033  0.0080  0.3055
78663W        W21601  14.732  29.037  16.547 -0.0202 -0.3839  0.3050
78664W        W21602  14.876  28.682  17.676  0.1790  0.1547 -0.0372
78665W        W21603  16.375  28.153  17.543 -0.1718  0.2339  0.0853
78666W        W21604  16.954  28.363  19.302 -0.2794  0.2298  0.2575
78667W        W21605  14.554  30.070  19.597  0.0407 -0.2008 -0.1166
78668W        W21606  15.180  27.881  16.061 -0.0781 -0.1465  0.0388
78669W        W21607  15.689  29.807  18.995  0.0483 -0.0037  0.1198
78670W        W21608  14.729  30.978  19.548 -0.4020 -0.1453 -0.0252
78671W        W21609  16.369  27.976  18.720  0.1370  0.3310  0.2078
78672W        W21610  16.890  27.086  16.969 -0.0752 -0.1850  0.0780
78673W        W21611  15.495  27.154  16.626  0.2074 -0.1623 -0.0445
78674W        W21612  17.155  27.077  17.447  0.1019  0.1139 -0.2686
78675W        W21613  14.479  29.631  19.279  0.1161 -0.0325 -0.1594
78676W        W21614  15.461  29.156  18.255 -0.1139  0.1631 -0.0989
78677W        W21615  17.120  27.444  19.597 -0.0467  0.1572 -0.0896
78678W        W21616  14.779  28.268  16.033 -0.0134  0.1390 -0.0109
78679W        W21617  15.984  27.525  16.005  0.1519 -0.3391  0.2065
78680W        W21618  15.452  25.613  17.036  0.0842 -0.1782  0.0380
78681W        W21619  17.982  27.082  17.108  0.2358  0.2080  0.0917
78682W        W21620  15.823  25.442  16.709 -0.2328 -0.1384 -0.4135
78683W        W21621  15.532  27.876  16.899 -0.2803  0.2627  0.2589
78684W        W21622  14.992  26.952  17.667  0.3502 -0.2450  0.0612
78685W        W21623  17.351  28.421  19.980 -0.3575 -0.0127 -0.0261
78686W        W21624  15.696  26.603  16.054 -0.1571  0.1046 -0.3810
78687W        W21625  17.082  26.094  18.702  0.1053 -0.2649  0.1552
78688W        W21626  15.013  28.958  20.396 -0.0424  0.1391 -0.1906
78689W        W21627  15.643  26.508  17.936  0.1726  0.1896 -0.1383
78690W        W21628  16.412  28.944  17.138  0.1355 -0.1154  0.0310
78691W        W21629  18.703  28.565  17.500 -0.1149 -0.2678  0.1864
78692W        W21630  16.684  27.957  16.179  0.1617 -0.3946 -0.0225
78693W        W21631  15.911  27.171  17.461  0.0359  0.1183  0.1954
78694W        W21632  15.169  27.169  19.025  0.0196  0.3305 -0.1181
78695W        W21633  15.384  28.200  19.139 -0.0154  0.0651 -0.0439
78696W        W21634  15.417  25.029  15.824 -0.1024  0.1423 -0.1059
78697W        W21635  16.934  28.096  18.821  0.1011 -0.2257 -0.1846
78698W        W21636  13.862  28.418  19.563  0.1960 -0.3196  0.1246
78699W        W21637  18.548  27.193  17.468  0.1812  0.2155 -0.0597
78700W        W21638  15.567  27.634  17.397  0.2736 -0.1523 -0.0683
78701W        W21639  18.046  27.328  19.574 -0.1985  0.4253  0.1785
78702W        W21640  18.097  27.871  17.018 -0.0321 -0.4407  0.0357
78703W        W21641  17.589  26.894  17.426 -0.1973  0.0355 -0.2304
78704W        W21642  18.659  26.727  17.668  0.2536 -0.0405  0.0611
78705W        W21643  15.769  27.078  16.181  0.3312 -0.1231  0.0045
78706W        W21644  15.279  26.886  15.822 -0.2991 -0.0825 -0.0337
78707W        W21645  16.500  28.549  18.758 -0.1541  0.3380 -0.1398
78708W        W21646  18.414  27.696  16.495  0.3280  0.0502  0.3494
78709W        W21647  14.902  27.872  18.024  0.0036 -0.3621 -0.4051
78710W        W21648  16.636  26.305  18.943  0.1097 -0.0731 -0.0991
78711W        W21649  14.519  28.399  19.015  0.0972 -0.0719 -0.1235
78712W        W21650  14.065  29.297  16.046 -0.1724  0.2102  0.0153
78713W        W21651  14.590  29.151  19.481  0.0021 -0.0579 -0.1301
78714W        W21652  14.460  28.480  16.354  0.0109  0.5552 -0.2316
78715W        W21653  12.800  25.051  18.006  0.0929 -0.2351  0.3614
78716W        W21654  15.896  27.794  18.645  0.2153  0.4876 -0.1749
78717W        W21655  16.892  24.626  16.987 -0.0101  0.0476 -0.2201
78718W        W21656  13.854  25.593  18.081 -0.0808  0.0067 -0.0797
78719W        W21657  17.814  26.601  17.117 -0.2332  0.1329  0.0675
78720W        W21658  14.073  28.181  16.285 -0.1544 -0.0685  0.2946
78721W        W21659  16.701  28.581  17.541  0.3419 -0.1497 -0.1365
78722W        W21660  17.399  27.182  16.391  0.0529 -0.0884  0.0643
78723W        W21661  18.206  28.174  16.271  0.1390 -0.2395 -0.0151
78724W        W21662  14.181  27.374  19.251  0.1193  0.2435  0.1977
78725W        W21663  15.764  27.217  18.568  0.1216 -0.2219 -0.0288
78726W        W21664  15.046  26.705  19.115 -0.1714 -0.1531  0.2867
78727W        W21665  13.633  26.280  16.686  0.2608  0.0215 -0.0333
78728W        W21666  18.963  26.686  18.846  0.2389  0.2608  0.0063
78729W        W21667  16.267  26.105  15.584  0.1684 -0.4216  0.1414
78730W        W21668  18.085  26.250  17.454 -0.2077  0.0307  0.0058
78731W        W21669  14.171  27.746  17.536 -0.2222  0.2525  0.2618
78732W        W21670  15.029  28.097  16.996 -0.0428 -0.2950 -0.0785
78733W        W21671  16.833  25.878  19.206  0.1061  0.0144  0.1097
78734W        W21672  17.720  28.822  17.441  0.0090  0.2307 -0.1048
78735W        W21673  17.597  30.183  21.750  0.0241 -0.0002 -0.1852
78736W        W21674  16.230  28.764  18.368  0.0057 -0.1852  0.2188
78737W        W21675  15.260  27.247  18.543  0.1136  0.1461  0.5365
78738W        W21676  14.869  25.852  15.797 -0.1301 -0.0731 -0.1415
78739W        W21677  15.101  29.043  18.626 -0.5151 -0.1237 -0.2264
78740W        W21678  16.521  29.198  20.687 -0.0324  0.0742 -0.1051
78741W        W21679  13.667  25.701  16.683 -0.5150  0.0328 -0.0227
78742W        W21680  17.581  28.779  16.868 -0.0617  0.0125 -0.2563
78743W        W21681  16.061  27.943  17.113  0.2235 -0.0445 -0.1702
78744W        W21682  14.237  30.104  18.728  0.0039  0.0017 -0.2367
78745W        W21683  15.522  26.991  18.192  0.1736  0.1950  0.0262
78746W        W21684  18.209  27.106  19.154 -0.0700  0.0600  0.0049
78747W        W21685  16.741  26.568  17.636 -0.1325  0.0328  0.2495
78748W        W21686  13.447  26.471  15.946 -0.0428 -0.2836 -0.1836
78749W        W21687  16.697  29.123  20.031 -0.2266  0.2765  0.2506
78750W        W21688  14.759  28.833  19.114  0.0328 -0.0907  0.0039
78751W        W21689  13.187  28.625  17.465  0.2598  0.0147  0.3491
78752W        W21690  14.961  29.509  19.531  0.0262  0.0963  0.2221
78753W        W21691  17.363  26.373  18.311 -0.0333 -0.1601  0.2182
78754W        W21692  15.245  26.623  20.520 -0.1306  0.4494 -0.1299
78755W        W21693  16.025  26.926  18.856 -0.2428 -0.3369 -0.1271
78756W        W21694  13.892  28.783  16.052  0.0265  0.0247  0.1113
78757W        W21695  12.744  28.783  20.550 -0.2513 -0.0094 -0.0810
78758W        W21696  16.089  25.589  16.280  0.1378  0.3866 -0.1384
78759W        W21697  16.018  24.283  15.987  0.0935  0.0356 -0.0084
78760W        W21698  16.753  26.999  17.939 -0.2143  0.0787  0.0449
78761W        W21699  18.241  28.361  17.321 -0.1391 -0.2449 -0.1754
78762W        W21700  15.876  25.176  16.003  0.1333  0.3552  0.1226
78763W        W21701  15.855  25.842  15.381 -0.0762 -0.1278  0.1012
78764W        W21702  13.881  27.546  20.654  0.0689 -0.2063  0.2309
78765W        W21703  15.218  28.568  18.331 -0.0484 -0.0560 -0.1350
78766W        W21704  16.370  27.912  18.112  0.1162 -0.3200  0.1292
78767W        W21705  16.314  25.469  15.338 -0.0662  0.0290 -0.0903
78768W        W21706  17.658  28.147  16.137 -0.3471 -0.1829  0.3493
78769W        W21707  13.990  26.841  17.612  0.1146 -0.0458 -0.3044
78770W        W21708  17.039  27.977  19.805  0.0146  0.2704 -0.3560
78771W        W21709  16.522  27.636  17.663  0.0737  0.1941  0.2585
78772W        W21710  15.498  26.905  17.692 -0.0612 -0.1216  0.0527
78773W        W21711  15.375  25.918  15.613  0.2390  0.0399 -0.2979
78774W        W21712  16.496  25.589  16.713 -0.2310  0.2296  0.0693
78775W        W21713  12.875  28.919  16.501  0.0344 -0.2038  0.1067
78776W        W21714  16.894  27.954  17.787 -0.0151 -0.0791  0.1085
78777W        W21715  15.196  27.366  17.566 -0.0559 -0.0016  0.3077
78778W        W21716  15.862  25.886  17.944 -0.1625  0.2743  0.0785
78779W        W21717  16.534  27.082  18.899  0.0743 -0.1465 -0.3866
78780W        W21718  16.456  27.500  16.269 -0.1834 -0.1575 -0.0523
78781W        W21719  16.902  27.842  18.347 -0.0263 -0.1399  0.0501
78782W        W21720  16.350  26.588  16.646  0.0025 -0.0166 -0.0522
78783W        W21721  15.206  26.570  18.148 -0.0982  0.1232 -0.0323
78784W        W21722  14.351  26.714  16.931 -0.1291 -0.1633 -0.1638
78785W        W21723  15.227  29.642  18.766 -0.4425 -0.2122  0.0881
78786W        W21724  18.436  29.615  20.134 -0.0489 -0.1170 -0.0939
78787W        W21725  16.491  28.219  15.782  0.1542  0.1404  0.2335
78788W        W21726  15.897  26.726  19.313  0.1624 -0.1852  0.0215
78789W        W21727  16.325  24.898  16.086 -0.1181 -0.1702 -0.2379
78790W        W21728  17.271  28.564  17.181  0.0190 -0.1492 -0.0820
78791W        W21729  16.148  29.196  15.931  0.0495  0.0318 -0.1561
78792W        W21730  15.645  25.434  18.179  0.1468  0.0407  0.3466
78793W        W21731  17.186  27.577  18.687  0.0680 -0.0152  0.2248
78794W        W21732  14.033  27.764  16.068 -0.0948 -0.1028  0.0172
78795W        W21733  18.611  28.102  19.262  0.1275 -0.1558  0.0571
78796W        W21734  15.597  28.349  15.353  0.0925  0.0142 -0.6442
78797W        W21735  18.052  25.262  17.717  0.1457  0.3750 -0.1903
78798W        W21736  14.023  29.780  16.241 -0.1279  0.1702 -0.1930
78799W        W21737  15.289  26.725  16.367 -0.1751  0.4544  0.2115
78800W        W21738  14.204  27.927  15.632 -0.1012 -0.2747 -0.0292
78801W        W21739  18.323  27.395  16.923 -0.0746  0.1903 -0.0778
78802W        W21740  17.292  28.213  15.747  0.0802 -0.1931  0.1496
78803W        W21741  14.516  26.498  18.793  0.2536  0.0508 -0.0695
78804W        W21742  15.928  26.858  17.868  0.3487  0.3372  0.0702
78805W        W21743  14.532  28.923  20.172 -0.0428 -0.1690 -0.2202
78806W        W21744  18.102  26.793  18.680 -0.0643 -0.1471  0.0583
78807W        W21745  17.183  26.587  15.977 -0.2934  0.1538 -0.2939
78808W        W21746  18.199  27.353  18.677 -0.1866 -0.1561  0.0087
78809W        W21747  15.466  26.927  19.313  0.2285  0.0724 -0.1612
78810W        W21748  13.979  27.077  15.225  0.0718  0.2740 -0.0139
78811W        W21749  19.303  25.465  19.528 -0.4161 -0.0892 -0.1149
78812W        W21750  16.248  27.379  17.177  0.5066  0.0266  0.1007
78813W        W21751  14.319  28.837  15.807  0.0638 -0.4093  0.1467
78814W        W21752  17.719  27.452  19.209  0.0333  0.0397 -0.1577
78815W        W21753  16.786  26.280  16.503  0.1438 -0.0248 -0.2104
78816W        W21754  16.057  28.293  18.414 -0.3012  0.0071  0.3114
78817W        W21755  15.690  27.308  19.122  0.2240  0.0296 -0.1968
78818W        W21756  17.823  28.077  18.185  0.0663  0.0618  0.0969
78819W        W21757  17.044  27.468  17.772  0.0609  0.0917 -0.1640
78820W        W21758  16.425  27.556  15.812  0.0401  0.0449 -0.2304
78821W        W21759  14.692  27.340  16.371 -0.1672  0.1395 -0.2613
78822W        W21760  16.110  26.985  18.310  0.0035 -0.3776 -0.3113
78823W        W21761  18.044  27.203  17.711 -0.0755  0.0352 -0.1510
78824W        W21762  14.083  29.793  19.723 -0.2911  0.0642 -0.1274
78825W        W21763  16.106  25.833  17.224  0.2028 -0.3541  0.0441
78826W        W21764  19.521  28.847  18.466 -0.1038 -0.0690 -0.1540
78827W        W21765  15.012  27.951  20.335 -0.2898 -0.2286 -0.0087
78828W        W21766  14.237  27.105  16.410  0.2196 -0.0328  0.2097
78829W        W21767  13.863  26.104  18.217 -0.0347 -0.3696 -0.1066
78830W        W21768  15.485  28.816  17.826  0.1018 -0.0879 -0.0849
78831W        W21769  17.506  27.214  17.846  0.1793 -0.0811  0.1471
78832W        W21770  15.643  28.384  18.077 -0.1004  0.0000 -0.0837
78833W        W21771  14.076  27.563  16.619  0.0959  0.1208  0.0247
78834W        W21772  13.441  28.824  17.916 -0.3480  0.1802  0.2654
78835W        W21773  18.123  24.673  16.954  0.1886  0.0012 -0.1585
78836W        W21774  15.544  28.699  16.540 -0.0502 -0.2175  0.3699
78837W        W21775  16.635  26.587  17.085  0.2340  0.3898 -0.0065
78838W        W21776  18.428  27.830  20.439  0.0691  0.1615  0.1378
78839W        W21777  15.148  27.630  16.522 -0.0082 -0.0106  0.2662
78840W        W21778  17.733  27.369  20.468  0.0195 -0.0571  0.1487
78841W        W21779  16.353  26.554  18.142 -0.0784 -0.0813 -0.0622
78842W        W21780  18.048  26.630  17.766 -0.4404 -0.2262  0.1274
78843W        W21781  14.427  26.069  18.172  0.2764  0.0652 -0.1900
78844W        W21782  15.794  29.046  19.739  0.1368  0.2476  0.0361
78845W        W21783  15.040  27.060  20.015  0.2024 -0.2970  0.2067
78846W        W21784  16.954  26.754  16.621  0.2851 -0.1797 -0.1147
78847W        W21785  15.767  25.363  15.536  0.2053 -0.4582 -0.1284
78848W        W21786  14.900  26.990  18.117 -0.1558  0.1211  0.2060
78849W        W21787  17.003  27.573  17.141  0.1176  0.1278 -0.0218
78850W        W21788  15.589  27.612  16.304 -0.0921 -0.4244 -0.0407
78851W        W21789  17.716  26.037  17.155  0.2201  0.1076 -0.0924
78852W        W21790  15.868  27.976  17.925  0.0763  0.1142  0.1352
78853W        W21791  18.354  25.571  16.573 -0.0583  0.2092 -0.1406
78854W        W21792  17.058  27.811  16.685  0.1083 -0.0603  0.0327
78855W        W21793  15.574  25.606  17.538 -0.0433  0.2343  0.0627
78856W        W21794  15.032  26.779  18.642  0.0217  0.0699 -0.0584
78857W        W21795  19.093  27.480  17.501  0.2261  0.1970  0.1223
78858W        W21796  17.054  25.459  17.291  0.0273 -0.1084  0.2279
78859W        W21797  17.225  25.411  18.272 -0.5410  0.0851  0.3110
78860W        W21798  16.033  28.288  18.922 -0.3637 -0.2461 -0.0098
78861W        W21799  15.313  28.016  18.252 -0.1207 -0.1893  0.1775
78862W        W21800  15.110  26.710  19.620 -0.0942 -0.1893 -0.0259
78863W        W21801  18.272  29.952  18.021  0.0489 -0.0036  0.1063
78864W        W21802  16.877  26.871  15.738  0.1333 -0.1778 -0.0474
78865W        W21803  18.585  27.326  18.317 -0.1474  0.0254 -0.0343
78866W        W21804  18.999  26.504  16.270 -0.3450 -0.3241 -0.3815
78867W        W21805  16.538  27.117  15.983  0.0082 -0.0861  0.1538
78868W        W21806  14.049  26.229  16.932 -0.2491  0.3882 -0.2214
78869W        W21807  16.408  27.269  21.114  0.2908  0.1634 -0.2262
78870W        W21808  14.773  25.234  15.515  0.0440  0.1636 -0.2292
78871W        W21809  16.217  26.513  18.658  0.0554 -0.0696  0.2770
78872W        W21810  15.362  28.416  16.108 -0.0639  0.2823 -0.3226
78873W        W21811  17.816  27.956  17.463  0.2007  0.2571  0.1883
78874W        W21812  17.081  26.325  16.879 -0.1850  0.3078  0.0559
78875W        W21813  16.162  26.274  17.789 -0.2028 -0.1523  0.1825
78876W        W21814  14.658  29.809  19.991  0.2844 -0.2931  0.0073
78877W        W21815  14.817  27.155  15.792  0.0937  0.2059 -0.0177
78878W        W21816  15.931  28.216  16.677  0.2188  0.0012  0.3250
78879W        W21817  15.599  29.099  18.831 -0.2442  0.0624  0.1329
78880W        W21818  17.942  28.347  19.782  0.2452 -0.2940  0.1312
78881W        W21819  15.105  25.721  16.642  0.0298  0.1269  0.3531
78882W        W21820  17.570  26.025  18.698  0.1514 -0.3684 -0.2796
78883W        W21821  15.055  28.277  16.481 -0.2641 -0.0732 -0.2334
78884W        W21822  15.544  25.581  15.969 -0.3206 -0.0118 -0.0681
78885W        W21823  15.775  30.048  19.440  0.1940  0.0273 -0.0720
78886W        W21824  14.737  27.372  17.787  0.0953 -0.2227 -0.1234
78887W        W21825  16.310  27.152  17.758  0.0160  0.1235 -0.2935
78888W        W21826  15.946  25.740  18.481 -0.1264 -0.1786 -0.2701
78889W        W21827  17.594  26.531  18.847 -0.1035 -0.0859  0.3783
78890W        W21828  15.140  27.464  18.112 -0.1759  0.1250 -0.1637
78891W        W21829  17.913  26.642  19.188 -0.1142  0.0246  0.0944
78892W        W21830  15.679  28.713  19.120  0.2027  0.1002 -0.1403
78893W        W21831  14.744  26.560  18.234  0.2865 -0.2756  0.0963
78894W        W21832  17.462  28.031  18.514  0.0255 -0.1480 -0.1751
78895W        W21833  17.383  28.715  17.893  0.1315  0.1331  0.0216
78896W        W21834  15.801  26.699  16.569  0.1294 -0.3444 -0.3716
78897W        W21835  14.020  25.698  19.105 -0.0645  0.2975  0.0889
78898W        W21836  17.061  26.662  18.680 -0.2995 -0.1736 -0.1886
78899W        W21837  17.591  27.955  19.040  0.0492 -0.0537  0.1795
78900W        W21838  15.842  26.513  17.448 -0.0554  0.0115  0.0863
78901W        W21839  16.072  28.609  15.391  0.0652  0.0207 -0.3104
78902W        W21840  13.248  28.921  20.630  0.1830 -0.0143  0.2320
78903W        W21841  13.653  27.851  19.671 -0.1362 -0.3609  0.1190
78904W        W21842  16.537  28.431  16.274 -0.1199 -0.3867  0.1441
78905W        W21843  15.811  27.406  16.992 -0.0357  0.1394 -0.0657
78906W        W21844  16.498  27.446  16.759  0.2800  0.0883  0.0465
78907W        W21845  15.654  28.972  16.976  0.0733  0.1642  0.0298
78908W        W21846  15.589  25.724  16.421  0.0408 -0.1499  0.2366
78909W        W21847  14.476  27.901  18.987  0.1601  0.1021 -0.2006
78910W        W21848  13.502  28.527  15.913 -0.1308 -0.1081 -0.2237
78911W        W21849  17.452  28.634  16.144  0.1688  0.2248  0.1266
78912W        W21850  13.924  28.689  18.100  0.2939 -0.0510  0.1567
78913W        W21851  16.385  27.947  20.039  0.0764 -0.0015 -0.0737
78914W        W21852  17.283  26.221  16.344  0.0847 -0.0575  0.3220
78915W        W21853  17.194  26.626  17.260  0.1641 -0.2291 -0.0158
78916W        W21854  19.186  26.312  16.743 -0.0666  0.0026  0.3543
78917W        W21855  16.088  27.471  18.077 -0.0848 -0.2339 -0.0498
78918W        W21856  16.891  26.538  18.110  0.2334  0.1489 -0.3733
78919W        W21857  15.043  25.496  16.179 -0.1590  0.1387 -0.0190
78920W        W21858  14.419  26.789  17.932 -0.0159  0.1349 -0.1419
78921W        W21859  17.483  25.747  19.532 -0.1537  0.0954  0.0289
78922W        W21860  13.752  29.624  18.251  0.3478 -0.4768 -0.3361
78923W        W21861  18.111  28.743  16.956  0.0780 -0.2056 -0.4827
78924W        W21862  14.888  27.146  17.182 -0.1864  0.0460 -0.0562
78925W        W21863  16.658  27.094  17.403 -0.1671  0.3492  0.0646
78926W        W21864  17.929  25.679  18.242 -0.0621  0.2894 -0.0187
78927W        W21865  16.831  28.232  16.686  0.3057  0.0562 -0.0509
78928W        W21866  16.662  27.456  18.114  0.0067 -0.0372 -0.2572
78929W        W21867  16.969  28.461  18.032  0.1050  0.1386  0.1366
78930W        W21868  16.357  28.413  17.956 -0.2302  0.0832 -0.1170
78931W        W21869  15.687  29.170  17.412  0.1326 -0.0275 -0.3378
78932W        W21870  14.577  25.133  16.255 -0.0381 -0.1121  0.2133
78933W        W21871  19.065  26.798  16.700 -0.0786 -0.2304  0.1132
78934W        W21872  16.525  26.205  17.374  0.0163  0.1166 -0.1737
78935W        W21873  16.628  26.264  18.462  0.0312  0.0888  0.2689
78936W        W21874  15.634  27.606  18.274  0.1240  0.0763  0.0514
78937W        W21875  16.633  25.731  15.680  0.1849 -0.4046  0.0413
78938W        W21876  17.165  27.905  19.345 -0.0453 -0.0318 -0.6330
78939W        W21877  15.636  27.357  17.870  0.5180  0.1611  0.5372
78940W        W21878  15.935  27.700  16.611 -0.3452  0.5631  0.2631
78941W        W21879  17.471  27.843  20.399 -0.0823  0.4890  0.0803
78942W        W21880  16.912  27.419  16.502 -0.2378 -0.0401 -0.1281
78943W        W21881  15.813  30.792  20.575 -0.0778 -0.2086 -0.2372
78944W        W21882  13.409  25.425  17.083  0.0801  0.1295  0.0592
78945W        W21883  17.511  26.818  18.421  0.1189 -0.1373 -0.2612
78946W        W21884  13.382  29.018  16.257 -0.1166  0.0115  0.2410
78947W        W21885  17.177  26.180  17.818  0.1395  0.0392  0.0218
78948W        W21886  17.751  28.292  20.319 -0.2518  0.1158  0.2508
78949W        W21887  14.557  26.303  16.744  0.1566 -0.1364  0.1379
78950W        W21888  17.822  28.502  16.550  0.0002  0.1727 -0.2024
78951W        W21889  18.187  26.270  19.400 -0.0874  0.0638  0.1780
78952W        W21890  16.337  29.298  16.461  0.1812 -0.1303 -0.2435
78953W        W21891  19.160  26.908  17.654 -0.3100  0.0550  0.0035
78954W        W21892  18.111  28.178  19.163 -0.0267 -0.1962 -0.0641
78955W        W21893  13.560  27.061  18.303 -0.0205  0.0948 -0.1575
78956W        W21894  18.707  29.219  20.055  0.0332 -0.2774  0.1732
78957W        W21895  17.924  28.696  19.405 -0.1469 -0.1524  0.2047
78958W        W21896  16.132  26.336  16.048  0.0753 -0.3070 -0.0532
78959W        W21897  15.838  28.184  17.480 -0.2743 -0.3480 -0.0444
78960W        W21898  13.799  26.670  16.938 -0.1411  0.0928  0.2368
78961W        W21899  19.275  26.749  19.594 -0.1008 -0.0503  0.1301
78962W        W21900  16.314  25.989  18.779 -0.0519 -0.1143  0.1535
78963W        W21901  14.593  27.909  16.469  0.0020  0.0210  0.0449
78964W        W21902  17.222  25.296  18.824 -0.2271 -0.2178 -0.2531
78965W        W21903  16.186  29.967  20.376 -0.0063 -0.0815  0.4051
78966W        W21904  14.245  30.214  20.034  0.0889  0.0053 -0.2764
78967W        W21905  15.345  27.193  15.163  0.1933  0.1087 -0.2563
78968W        W21906  16.020  29.261  18.556  0.0471  0.4673 -0.1491
78969W        W21907  16.489  29.515  16.859  0.0507  0.1859 -0.0345
78970W        W21908  16.311  28.791  16.489 -0.1517  0.3607 -0.0477
78971W        W21909  17.700  27.099  18.869 -0.2735 -0.3783 -0.0072
78972W        W21910  16.774  25.758  17.574 -0.1099  0.1762  0.1720
78973W        W21911  17.264  28.735  19.428  0.2716 -0.0466 -0.2411
78974W        W21912  15.745  26.061  15.973  0.0823  0.0730 -0.1018
78975W        W21913  17.354  25.799  16.781  0.1515 -0.0625  0.3292
78976W        W21914  17.177  26.742  17.769 -0.2963 -0.0015 -0.0633
78977W        W21915  17.047  27.082  18.363 -0.4018 -0.1816 -0.2086
78978W        W21916  14.641  27.689  15.469  0.1285  0.0317  0.3992
78979W        W21917  15.559  27.354  15.780  0.3558 -0.2479 -0.0342
78980W        W21918  15.404  27.847  17.786  0.1208 -0.4098 -0.4581
78981W        W21919  15.971  25.345  19.450 -0.1014 -0.0376 -0.1398
78982W        W21920  14.800  27.298  18.717 -0.2138  0.0906 -0.0367
78983W        W21921  13.951  27.627  18.581 -0.2492  0.1892  0.0076
78984W        W21922  13.569  24.059  17.304  0.0358 -0.0801  0.1341
78985W        W21923  18.264  28.240  16.781  0.1131  0.2904  0.1219
78986W        W21924  14.367  26.395  17.317 -0.0126 -0.1494  0.1468
78987W        W21925  13.983  25.431  17.395 -0.1457  0.4287  0.1716
78988W        W21926  16.808  29.667  16.542  0.0407 -0.0859  0.2253
78989W        W21927  17.732  28.408  17.142  0.2125 -0.0052 -0.1690
78990W        W21928  16.050  27.073  15.785  0.3645  0.3268  0.3419
78991W        W21929  17.819  29.795  21.408  0.0786 -0.2206  0.1790
78992W        W21930  14.329  27.369  15.989 -0.0639 -0.1477  0.1449
78993W        W21931  15.378  27.918  19.637 -0.4681 -0.3174  0.2324
78994W        W21932  15.319  26.502  20.052  0.1742 -0.0850  0.1293
78995W        W21933  14.692  25.816  16.327 -0.2091 -0.1784 -0.1232
78996W        W21934  17.448  28.354  17.560  0.3823 -0.0978  0.2875
78997W        W21935  15.209  28.982  17.290  0.2647 -0.0909 -0.3212
78998W        W21936  19.782  28.649  16.281 -0.1226 -0.2250  0.1028
78999W        W21937  15.721  28.708  18.544  0.1140  0.2116 -0.0982
79000W        W21938  15.912  29.670  19.926  0.0821 -0.0534  0.1547
79001W        W21939  14.225  25.255  17.838  0.1446 -0.3245 -0.0650
79002W        W21940  17.422  26.673  16.852 -0.0222 -0.0856  0.0130
79003W        W21941  15.000  27.724  18.603  0.1204  0.1054  0.2908
79004W        W21942  19.693  28.669  17.161 -0.0904  0.0668  0.0038
79005W        W21943  18.368  25.489  18.018 -0.2365 -0.0741  0.2603
79006W        W21944  17.519  27.813  17.055 -0.0400  0.0862  0.0929
79007W        W21945  13.328  25.362  20.181 -0.3939 -0.1035  0.2577
79008W        W21946  16.035  26.101  19.303 -0.2442 -0.1545  0.0043
79009W        W21947  17.777  27.443  18.427  0.4143  0.1474 -0.0050
79010W        W21948  16.935  25.782  16.483  0.1091  0.1228 -0.1348
79011W        W21949  17.356  27.360  16.908 -0.0260  0.2968 -0.0645
79012W        W21950  15.960  28.536  17.061  0.0224  0.2072  0.0779
79013W        W21951  16.076  27.209  16.597 -0.4309  0.2498 -0.0902
79014W        W21952  16.182  26.804  16.199 -0.1541 -0.0846  0.1491
79015W        W21953  16.315  28.558  19.247  0.1018  0.0872  0.2830
79016W        W21954  16.650  28.284  18.346 -0.3419  0.0424 -0.1953
79017W        W21955  18.308  28.335  20.275 -0.0750  0.1124  0.1562
79018W        W21956  16.567  25.894  16.142  0.3276 -0.1103  0.0279
79019W        W21957  17.797  26.968  16.652 -0.0504  0.0401  0.0853
79020W        W21958  16.274  29.880  19.545 -0.0950 -0.0286  0.0024
79021W        W21959  17.204  28.260  20.474 -0.0733 -0.4515 -0.1627
79022W        W21960  16.077  28.858  18.872 -0.0045 -0.2540  0.3539
79023W        W21961  17.682  27.409  17.389 -0.0832 -0.1628  0.2273
79024W        W21962  14.761  26.498  17.671  0.0388 -0.1542 -0.3393
79025W        W21963  14.523  26.955  18.443  0.2284  0.2095  0.0877
79026W        W21964  16.053  27.650  17.536  0.1552 -0.0855  0.2121
79027W        W21965  17.187  26.388  19.106  0.1841  0.3437  0.2331
79028W        W21966  15.241  27.485  17.034  0.0233 -0.1061 -0.1345
79029W        W21967  15.469  25.171  16.303 -0.1676  0.0699  0.1524
79030W        W21968  16.521  29.147  18.664 -0.2057 -0.0924 -0.1952
79031W        W21969  17.967  26.935  18.189  0.0137 -0.0676 -0.1950
79032W        W21970  15.232  29.019  22.415  0.2320  0.0569 -0.0192
79033W        W21971  14.462  26.059  19.815  0.4423 -0.1896  0.2107
79034W        W21972  17.260  25.767  18.994 -0.0017 -0.3159 -0.0014
79035W        W21973  18.017  28.085  20.671  0.0154  0.0951  0.0653
79036W        W21974  15.882  26.216  22.089  0.1993  0.1193  0.3071
79037W        W21975  16.279  28.946  20.287  0.1438  0.0613  0.1394
79038W        W21976  17.446  26.960  22.789 -0.1131 -0.0982  0.1909
79039W        W21977  18.175  28.944  22.361 -0.3016  0.0443  0.2328
79040W        W21978  18.615  30.472  23.954 -0.0082  0.3675  0.1171
79041W        W21979  16.036  26.202  18.337 -0.0805  0.0082 -0.0127
79042W        W21980  16.800  26.235  22.578  0.5033  0.2145 -0.3409
79043W        W21981  14.574  28.730  21.814 -0.0061  0.1546 -0.3980
79044W        W21982  16.890  26.908  21.002 -0.1128  0.0664 -0.1567
79045W        W21983  15.392  27.163  23.037  0.0557 -0.1024 -0.0124
79046W        W21984  18.286  28.038  21.212  0.1709  0.1292  0.1354
79047W        W21985  15.840  27.854  20.050 -0.3236 -0.0037 -0.1750
79048W        W21986  15.926  27.960  22.492 -0.1974 -0.0087  0.0719
79049W        W21987  15.099  27.177  21.837  0.0495 -0.0938 -0.0271
79050W        W21988  16.749  29.447  22.398  0.0859  0.4698 -0.1609
79051W        W21989  16.853  26.938  22.789 -0.2593 -0.0855 -0.3425
79052W        W21990  17.453  27.244  22.302  0.2340 -0.0144  0.1609
79053W        W21991  14.065  29.186  20.338 -0.0096  0.0033 -0.2483
79054W        W21992  14.546  26.961  18.949  0.1006  0.0732 -0.0503
79055W        W21993  14.275  27.611  21.612 -0.1414 -0.0274 -0.1175
79056W        W21994  16.431  27.989  22.693  0.3759  0.1415  0.2948
79057W        W21995  16.996  26.669  21.644 -0.1456  0.0092  0.2196
79058W        W21996  17.919  28.461  21.189 -0.1558 -0.4136  0.3796
79059W        W21997  16.232  29.577  20.898  0.0314  0.2402  0.0293
79060W        W21998  16.964  28.412  22.334  0.0923 -0.0778 -0.1950
79061W        W21999  18.054  27.176  23.051 -0.0805 -0.0871 -0.1453
79062W        W22000  14.449  29.216  21.146  0.0035 -0.1222 -0.1139
79063W        W22001  13.688  30.090  19.011  0.1060 -0.0717 -0.1777
79064W        W22002  15.370  28.705  21.250  0.0279  0.1064 -0.0455
79065W        W22003  17.137  28.780  21.346  0.2262 -0.1362 -0.1997
79066W        W22004  17.447  28.551  22.852 -0.0442  0.1853 -0.0508
79067W        W22005  16.065  29.865  22.729  0.1503 -0.1006  0.1160
79068W        W22006  14.506  28.121  20.733  0.1440 -0.1431  0.0595
79069W        W22007  17.383  31.213  24.444 -0.0573 -0.0286  0.4150
79070W        W22008  15.909  29.436  22.870 -0.1061  0.1542  0.4094
79071W        W22009  17.165  27.944  22.494  0.2405  0.2900  0.0655
79072W        W22010  16.696  27.953  22.263  0.3708 -0.4632 -0.3102
79073W        W22011  14.758  30.289  19.998  0.4575  0.1486  0.0480
79074W        W22012  16.650  28.759  21.673 -0.1123  0.2537 -0.3296
79075W        W22013  15.834  28.846  23.686 -0.0794  0.0047  0.4288
79076W        W22014  13.397  29.377  22.456 -0.0131 -0.2853 -0.4241
79077W        W22015  17.959  26.161  23.344 -0.1047  0.1465  0.0590
79078W        W22016  14.789  28.553  20.554 -0.3785  0.1318 -0.0350
79079W        W22017  16.880  26.792  19.168 -0.0027  0.1714 -0.0494
79080W        W22018  15.742  26.481  19.726  0.0704  0.2022  0.0548
79081W        W22019  16.358  25.615  19.133 -0.0844 -0.0470  0.1764
79082W        W22020  15.078  25.388  20.606  0.3150  0.0724  0.0769
79083W        W22021  15.079  29.133  21.413  0.2266  0.0268  0.1529
79084W        W22022  14.251  26.847  22.245  0.0027 -0.2887  0.0220
79085W        W22023  18.076  30.243  23.932  0.0678  0.1760 -0.0772
79086W        W22024  15.521  28.267  21.481  0.3898 -0.1485  0.2824
79087W        W22025  17.944  27.318  22.087  0.2748  0.1437 -0.1729
79088W        W22026  15.652  29.603  23.974  0.1342  0.3435  0.0464
79089W        W22027  13.784  26.995  21.517  0.3218 -0.0283 -0.0663
79090W        W22028  17.990  27.798  20.150  0.2070  0.0591 -0.2424
79091W        W22029  15.790  29.799  22.281  0.0673 -0.0513 -0.2697
79092W        W22030  16.464  28.687  20.702  0.0983 -0.0637  0.1849
79093W        W22031  15.557  28.210  18.631  0.2477 -0.1219 -0.0023
79094W        W22032  16.170  28.547  23.391 -0.0170  0.1307 -0.1317
79095W        W22033  15.259  28.650  22.896  0.1002  0.0389 -0.1549
79096W        W22034  15.430  25.842  18.764  0.3835  0.0303 -0.0836
79097W        W22035  18.549  27.553  25.325  0.1432  0.1973 -0.4100
79098W        W22036  14.642  29.570  22.100  0.2393 -0.0542  0.3678
79099W        W22037  17.701  27.453  19.909 -0.1686 -0.4158  0.0077
79100W        W22038  16.428  27.108  22.375  0.2895  0.1799  0.1445
79101W        W22039  18.214  28.824  22.867  0.3057  0.0236  0.0142
79102W        W22040  18.269  26.774  19.549 -0.1239 -0.0058  0.0505
79103W        W22041  18.288  25.569  21.602  0.0282 -0.2006  0.0650
79104W        W22042  16.284  27.127  21.669 -0.2680 -0.2791  0.1455
79105W        W22043  17.035  28.008  21.160  0.1452 -0.3785 -0.1025
79106W        W22044  16.931  28.781  20.302  0.1058 -0.0465 -0.2692
79107W        W22045  17.797  29.532  23.653  0.0397  0.0286 -0.3751
79108W        W22046  16.400  26.390  20.425 -0.1286 -0.1195  0.1344
79109W        W22047  14.220  29.401  22.040  0.0131  0.2473 -0.0690
79110W        W22048  16.307  26.089  20.907  0.1001 -0.0325 -0.0186
79111W        W22049  16.188  29.541  23.598  0.0347  0.0945  0.3247
79112W        W22050  14.860  29.194  19.945 -0.0654  0.0539  0.0011
79113W        W22051  13.178  27.305  21.017  0.0862 -0.3217  0.0236
79114W        W22052  13.780  28.791  20.416  0.1257 -0.0332 -0.1650
79115W        W22053  14.488  28.233  22.362  0.2105  0.4963  0.1235
79116W        W22054  16.489  27.227  20.457  0.3498  0.0592  0.0602
79117W        W22055  19.328  27.557  20.064  0.1103  0.5331  0.3756
79118W        W22056  15.984  27.888  23.422 -0.3163  0.0419  0.1481
79119W        W22057  19.178  27.270  20.447  0.0505 -0.3025  0.0368
79120W        W22058  14.243  28.544  20.436 -0.0400 -0.4513  0.1180
79121W        W22059  16.187  29.055  19.417 -0.1162  0.0277  0.0870
79122W        W22060  18.596  28.822  20.918 -0.0276 -0.1329 -0.1414
79123W        W22061  17.687  30.081  19.219 -0.1923 -0.2762 -0.1430
79124W        W22062  15.170  27.642  23.032  0.0865  0.0126 -0.2977
79125W        W22063  14.327  27.800  22.699 -0.1009  0.0775 -0.3182
79126W        W22064  15.157  28.663  23.533 -0.0596 -0.3082 -0.0756
79127W        W22065  15.534  26.106  22.838 -0.1636 -0.1109  0.0885
79128W        W22066  18.191  28.368  24.887 -0.1865  0.1948  0.1945
79129W        W22067  14.185  26.527  20.199 -0.0739  0.0608  0.0312
79130W        W22068  16.742  26.633  20.218  0.1815 -0.2685  0.0505
79131W        W22069  15.206  27.925  21.671  0.2260 -0.1320  0.0795
79132W        W22070  15.472  27.506  21.715 -0.2263 -0.3116  0.1781
79133W        W22071  18.731  26.330  24.417  0.0335 -0.0064 -0.0119
79134W        W22072  14.503  30.309  20.624 -0.2245 -0.0182 -0.2244
79135W        W22073  18.587  30.714  22.984 -0.0744 -0.3621 -0.2881
79136W        W22074  16.507  30.207  20.781  0.1453 -0.1193  0.1443
79137W        W22075  15.710  27.852  23.894 -0.0845  0.2473 -0.2387
79138W        W22076  14.891  27.011  20.479 -0.2361  0.0183  0.0859
79139W        W22077  14.221  29.791  21.205  0.0436 -0.1016 -0.1421
79140W        W22078  13.670  27.801  21.038  0.1526  0.0953 -0.3166
79141W        W22079  15.834  26.245  18.825 -0.1640 -0.0157  0.2102
79142W        W22080  17.691  29.737  22.545 -0.1471 -0.0290 -0.1465
79143W        W22081  16.568  28.210  21.389 -0.3421 -0.1484  0.0713
79144W        W22082  15.619  28.990  22.693  0.1401 -0.0673 -0.0478
79145W        W22083  17.425  25.008  22.238  0.0291 -0.0860  0.0452
79146W        W22084  18.524  26.097  21.434 -0.0349 -0.3233  0.0348
79147W        W22085  17.465  29.135  21.030 -0.2723 -0.0365 -0.1372
79148W        W22086  15.711  26.772  20.747 -0.2354 -0.0662 -0.0588
79149W        W22087  15.509  29.471  22.540  0.0222 -0.0798 -0.2673
79150W        W22088  14.571  29.224  21.655 -0.0192  0.1315  0.0834
79151W        W22089  14.950  28.212  18.512 -0.2420  0.0895  0.2590
79152W        W22090  16.874  29.198  21.539 -0.0133 -0.1793  0.2744
79153W        W22091  17.795  27.529  22.618  0.1907  0.1079  0.1023
79154W        W22092  16.513  27.437  24.237 -0.0431  0.4606 -0.1321
79155W        W22093  17.112  26.791  22.245 -0.3630  0.1471 -0.0522
79156W        W22094  14.610  29.103  20.662  0.4162  0.0376 -0.0794
79157W        W22095  14.313  29.017  22.883 -0.0585 -0.0415 -0.3128
79158W        W22096  15.381  27.071  21.350 -0.0834  0.0453 -0.0214
79159W        W22097  18.740  25.482  19.558 -0.0127 -0.0563 -0.2244
79160W        W22098  15.349  28.315  21.972 -0.1021 -0.1120  0.3461
79161W        W22099  15.991  28.344  22.115  0.1299  0.2013  0.0660
79162W        W22100  16.291  28.428  20.334  0.0912  0.0301  0.3285
79163W        W22101  16.538  25.282  19.578 -0.0263 -0.1053 -0.0839
79164W        W22102  15.603  28.016  23.038  0.0124  0.2449 -0.0157
79165W        W22103  17.075  27.787  20.682  0.1852  0.4304 -0.0769
79166W        W22104  14.802  27.943  21.423 -0.0330  0.1223  0.0513
79167W        W22105  16.664  27.191  19.414 -0.1406 -0.0415 -0.1170
79168W        W22106  16.719  28.307  21.917  0.0483 -0.1634 -0.0149
79169W        W22107  13.288  28.743  21.915  0.1214 -0.1270  0.2988
79170W        W22108  17.746  28.299  23.332  0.1050  0.1189  0.0454
79171W        W22109  17.429  30.086  21.226  0.2106 -0.1604 -0.0634
79172W        W22110  15.926  26.282  22.612 -0.0604 -0.1838 -0.1006
79173W        W22111  15.537  26.979  19.800  0.0776  0.1053 -0.1328
79174W        W22112  15.826  27.524  19.594  0.0697 -0.0548 -0.0738
79175W        W22113  15.317  30.106  18.955  0.2009  0.1655 -0.0033
79176W        W22114  17.479  26.490  22.436  0.1316  0.2376  0.2641
79177W        W22115  16.462  26.780  20.765  0.2678 -0.1044 -0.0642
79178W        W22116  16.175  25.791  21.239  0.0971  0.2010  0.1964
79179W        W22117  19.443  27.556  23.397  0.1234  0.4036 -0.0295
79180W        W22118  16.564  28.279  19.686  0.0805  0.1774 -0.0582
79181W        W22119  16.086  28.077  21.346  0.0221  0.1729  0.2257
79182W        W22120  14.687  27.470  19.224 -0.3513 -0.1317 -0.2703
79183W        W22121  17.394  25.968  23.191 -0.1040  0.3087  0.0257
79184W        W22122  14.172  28.910  22.374  0.0436  0.3063  0.0227
79185W        W22123  15.666  29.039  22.150  0.1458  0.1512  0.1790
79186W        W22124  17.262  29.290  22.778 -0.2211 -0.1584  0.3918
79187W        W22125  16.522  28.114  19.138 -0.1821  0.1098  0.1811
79188W        W22126  17.763  27.979  21.232 -0.0855  0.0865 -0.1282
79189W        W22127  15.873  25.349  20.234 -0.1266 -0.3102  0.0640
79190W        W22128  14.367  30.489  19.507  0.0372  0.0688  0.0049
79191W        W22129  15.640  29.869  20.331 -0.3491  0.0952  0.2433
79192W        W22130  15.934  27.320  23.140 -0.0127  0.1194  0.1472
79193W        W22131  16.334  29.660  22.204  0.0407 -0.0402 -0.0441
79194W        W22132  14.342  27.654  19.597 -0.2314 -0.2343 -0.0204
79195W        W22133  17.498  28.286  22.354  0.1092  0.3451 -0.0867
79196W        W22134  14.559  28.610  19.698 -0.2983 -0.0543  0.0068
79197W        W22135  17.250  24.736  21.006 -0.2847  0.2502 -0.1416
79198W        W22136  13.373  28.806  22.430 -0.0042 -0.0468 -0.2594
79199W        W22137  14.775  27.622  21.797  0.1433  0.0632 -0.0185
79200W        W22138  13.419  27.909  21.493  0.0766 -0.0481 -0.2486
79201W        W22139  16.639  27.748  21.050 -0.0055 -0.1073  0.4388
79202W        W22140  18.747  27.460  20.702  0.1539 -0.2855  0.1851
79203W        W22141  15.214  27.623  23.961 -0.1247 -0.2654 -0.1916
79204W        W22142  16.011  27.696  22.885 -0.0501 -0.0391 -0.0370
79205W        W22143  15.440  28.570  22.370  0.1544  0.1920 -0.2624
79206W        W22144  16.368  27.667  21.452 -0.0451 -0.0630  0.1412
79207W        W22145  16.648  26.133  20.015 -0.0381 -0.1055 -0.0479
79208W        W22146  18.500  29.693  22.781  0.0255  0.1525 -0.1357
79209W        W22147  17.169  27.758  23.313  0.2661 -0.2757  0.2878
79210W        W22148  15.360  27.369  19.477  0.1833 -0.4756 -0.0777
79211W        W22149  18.095  27.004  21.719  0.1325 -0.0747  0.0710
79212W        W22150  13.173  27.922  20.317 -0.1985 -0.0526 -0.0269
79213W        W22151  12.828  27.082  21.224 -0.0053 -0.2559 -0.2774
79214W        W22152  17.639  30.058  23.728  0.2071  0.2500  0.1857
79215W        W22153  14.489  28.108  21.857  0.0497 -0.1990 -0.0398
79216W        W22154  12.952  28.074  19.829 -0.1173 -0.0417  0.0382
79217W        W22155  16.591  27.414  21.947  0.1810  0.0544  0.3083
79218W        W22156  17.155  29.394  23.242 -0.3327  0.1371 -0.0970
79219W        W22157  16.174  28.453  21.678 -0.4360  0.1588  0.1989
79220W        W22158  15.932  26.275  20.586 -0.1504  0.1132 -0.0830
79221W        W22159  15.855  26.888  21.410  0.2000  0.0550 -0.0267
79222W        W22160  18.454  27.634  22.171  0.0716  0.3336  0.1953
79223W        W22161  18.303  26.894  23.479  0.0764  0.0260  0.1656
79224W        W22162  15.407  29.169  23.695 -0.0507 -0.0799  0.0727
79225W        W22163  15.574  25.810  22.388  0.0721 -0.3105 -0.0406
79226W        W22164  17.659  28.772  21.499 -0.1926  0.2722  0.1249
79227W        W22165  17.270  27.441  22.719  0.0912  0.2810  0.0519
79228W        W22166  13.607  28.975  21.619  0.2204  0.0441  0.2335
79229W        W22167  15.115  27.501  21.246 -0.3999  0.1587 -0.0674
79230W        W22168  15.741  28.671  21.752  0.0546 -0.3355 -0.1920
79231W        W22169  17.437  26.249  21.353 -0.1957 -0.1374  0.2242
79232W        W22170  14.784  29.049  22.093 -0.4302 -0.0652 -0.0598
79233W        W22171  15.182  29.872  20.661 -0.0500  0.4505 -0.0870
79234W        W22172  14.237  28.423  21.527 -0.0547 -0.0983 -0.2268
79235W        W22173  17.221  27.570  20.104  0.2675  0.1005  0.1052
79236W        W22174  15.539  29.119  20.932 -0.0417  0.1093  0.0311
79237W        W22175  15.584  26.392  21.685 -0.2616 -0.2548 -0.1052
79238W        W22176  17.918  27.361  23.544  0.1147 -0.0172  0.0808
79239W        W22177  15.732  26.705  20.259  0.2865 -0.0949  0.0375
79240W        W22178  17.448  24.867  23.404  0.1326 -0.4095  0.0198
79241W        W22179  16.288  26.157  22.918 -0.0129  0.1448  0.0270
79242W        W22180  17.370  29.725  21.695  0.0674 -0.1207 -0.0158
79243W        W22181  16.111  26.344  23.407  0.1334  0.3159 -0.0237
79244W        W22182  17.125  28.767  24.897  0.0509 -0.1176 -0.0210
79245W        W22183  16.094  27.751  24.902  0.1174  0.1352 -0.0126
79246W        W22184  15.641  25.430  20.708  0.3109 -0.1963 -0.0609
79247W        W22185  14.641  26.485  19.380  0.1895 -0.0720  0.0628
79248W        W22186  15.925  27.342  20.158 -0.1011  0.4458  0.0124
79249W        W22187  17.259  27.617  21.488 -0.0541 -0.1529  0.2263
79250W        W22188  16.275  27.555  19.085 -0.0385 -0.0977 -0.1580
79251W        W22189  17.853  26.711  22.631 -0.1916  0.0510  0.1691
79252W        W22190  14.194  27.741  22.060  0.1144 -0.0606  0.1454
79253W        W22191  15.774  27.754  20.506  0.2280  0.1846 -0.4358
79254W        W22192  18.321  27.685  19.103 -0.0771 -0.0856  0.0996
79255W        W22193  14.993  28.671  20.007  0.3539  0.0777 -0.0965
79256W        W22194  16.600  26.408  21.759  0.0878 -0.1894 -0.1284
79257W        W22195  17.258  28.122  21.923  0.1075  0.3023  0.0779
79258W        W22196  16.144  26.875  20.404  0.1368 -0.2522 -0.2861
79259W        W22197  17.562  26.683  20.945  0.2180  0.1156  0.1253
79260W        W22198  17.604  27.982  24.255  0.0378  0.0552 -0.1107
79261W        W22199  16.738  26.925  21.959  0.0837 -0.1716  0.3173
79262W        W22200  16.532  26.606  22.394  0.0067 -0.2363  0.0534
79263W        W22201  16.942  29.685  22.888 -0.1023 -0.1251 -0.2573
79264W        W22202  19.005  27.300  19.634  0.1883  0.3039 -0.0755
79265W        W22203  17.058  27.275  20.520 -0.1479 -0.3318  0.0228
79266W        W22204  15.874  28.630  20.794  0.1762 -0.0973  0.0586
79267W        W22205  16.157  26.432  20.021 -0.0386 -0.1923  0.3551
79268W        W22206  15.156  27.355  22.341 -0.1115  0.0397  0.3559
79269W        W22207  19.022  26.963  24.216 -0.1269 -0.0835 -0.0556
79270W        W22208  15.353  27.503  19.984 -0.0233  0.0826  0.1329
79271W        W22209  16.300  27.032  22.905  0.1182  0.2041  0.2189
79272W        W22210  15.116  28.964  19.561  0.0991 -0.1604  0.0852
79273W        W22211  17.040  29.137  20.820 -0.1862  0.2027 -0.0268
79274W        W22212  15.850  28.836  21.269 -0.2008  0.0363  0.2242
79275W        W22213  13.564  25.564  21.211  0.2273  0.1262 -0.0907
79276W        W22214  15.315  30.025  23.875  0.1793  0.2077  0.0566
79277W        W22215  15.540  26.771  18.861  0.2055 -0.1351  0.0084
79278W        W22216  15.259  27.644  19.059  0.0994  0.0399 -0.0540
79279W        W22217  16.653  28.804  21.148 -0.0409 -0.1451  0.0158
79280W        W22218  17.362  27.342  23.757 -0.0980 -0.1421 -0.1694
79281W        W22219  16.802  25.634  20.172  0.1002  0.2958  0.0681
79282W        W22220  18.513  27.312  23.012 -0.3495 -0.1460  0.0848
79283W        W22221  14.592  27.293  20.137  0.1147 -0.4672 -0.3084
79284W        W22222  15.713  25.900  20.961 -0.0386  0.1678 -0.2965
79285W        W22223  15.634  29.790  21.562 -0.0467  0.0110  0.0723
79286W        W22224  14.165  27.990  23.175  0.4309  0.3633 -0.0441
79287W        W22225  13.790  29.000  22.762 -0.2094 -0.1483  0.0339
79288W        W22226  17.964  26.395  21.817 -0.0140  0.2272 -0.0937
79289W        W22227  17.722  26.749  21.515  0.2245  0.0153  0.3509
79290W        W22228  17.170  27.167  21.859  0.0700  0.0967  0.1581
79291W        W22229  18.949  27.563  23.533  0.1244  0.1717  0.0711
79292W        W22230  17.644  29.463  23.107  0.2265 -0.0011  0.0545
79293W        W22231  14.705  28.777  21.304  0.1905 -0.1459  0.3376
79294W        W22232  16.142  29.858  23.928 -0.1149  0.0383  0.2604
79295W        W22233  16.120  27.731  20.984 -0.0624  0.1750 -0.1004
79296W        W22234  14.577  29.740  20.830 -0.0095 -0.2468  0.0957
79297W        W22235  15.310  27.042  23.720 -0.0427  0.2319 -0.1148
79298W        W22236  16.867  28.037  23.614 -0.0773  0.1549  0.1197
79299W        W22237  17.720  28.273  21.710  0.0514 -0.2800  0.2084
79300W        W22238  15.336  27.648  20.771  0.1206 -0.0451  0.1024
79301W        W22239  14.065  28.967  20.853 -0.0211 -0.0262 -0.1751
79302W        W22240  15.293  30.150  23.404  0.0507  0.1301 -0.6926
79303W        W22241  13.777  28.521  21.904  0.1069  0.1783  0.3578
79304W        W22242  13.866  29.731  20.193 -0.0493 -0.0054 -0.0164
79305W        W22243  17.676  29.217  22.419  0.1098 -0.0424  0.0827
79306W        W22244  15.983  29.183  20.730  0.1203 -0.1466 -0.1394
79307W        W22245  15.946  29.388  21.298 -0.1762 -0.0224  0.3179
79308W        W22246  15.763  27.866  19.181  0.0813 -0.0156 -0.1228
79309W        W22247  14.124  29.450  21.560  0.0042 -0.2462 -0.0346
79310W        W22248  13.419  28.720  19.406  0.0855  0.2680 -0.4455
79311W        W22249  17.184  29.609  20.660 -0.0664 -0.0691  0.1421
79312W        W22250  13.892  29.302  21.167 -0.0378 -0.2562  0.0929
79313W        W22251  17.142  28.194  24.165  0.0215 -0.3407  0.1516
79314W        W22252  16.277  25.752  20.185  0.1451 -0.0110 -0.0876
79315W        W22253  18.538  28.151  22.147 -0.1546 -0.0546 -0.0944
79316W        W22254  17.752  26.906  20.481  0.3945  0.2165  0.1970
79317W        W22255  15.755  28.445  22.761  0.1542  0.0834 -0.3015
79318W        W22256  16.247  28.542  21.161  0.2474  0.2160 -0.5083
79319W        W22257  15.312  26.352  18.605  0.0682 -0.2019 -0.3136
79320W        W22258  16.879  27.800  22.886 -0.0664 -0.2000  0.1882
79321W        W22259  17.435  26.575  24.555  0.5591  0.5187  0.0423
79322W        W22260  15.167  30.333  24.201  0.2083  0.0790  0.0028
79323W        W22261  17.121  31.040  20.961  0.1595 -0.3281 -0.1286
79324W        W22262  14.789  27.700  20.883  0.0301  0.2297  0.1426
79325W        W22263  15.441  28.231  20.119 -0.3965 -0.1450  0.2214
79326W        W22264  17.583  25.489  22.227  0.1550  0.2765  0.2292
79327W        W22265  14.316  27.408  18.799 -0.0640  0.0389  0.2072
79328W        W22266  16.063  28.391  19.719  0.0345 -0.1627 -0.1732
79329W        W22267  14.816  29.661  21.397 -0.0808  0.1715  0.1361
79330W        W22268  15.441  28.552  19.725 -0.2435 -0.0034 -0.0742
79331W        W22269  15.696  28.174  20.957 -0.0934 -0.0878  0.0769
79332W        W22270  13.270  24.970  17.813 -0.1972  0.3559  0.1306
79333W        W22271  18.882  26.328  20.817 -0.1777 -0.2677 -0.1864
79334W        W22272  14.709  28.884  22.582 -0.3917  0.0991  0.0907
79335W        W22273  17.599  26.527  23.179  0.0011  0.2736  0.1284
79336W        W22274  14.875  28.397  21.083  0.2780 -0.0688  0.0659
79337W        W22275  17.035  27.414  21.018  0.2474 -0.0232  0.1442
79338W        W22276  15.517  28.927  23.218  0.0094  0.3461 -0.0878
79339W        W22277  16.323  26.169  22.231  0.0870  0.0996  0.0047
79340W        W22278  16.198  27.176  19.353  0.1883  0.4247 -0.3386
79341W        W22279  18.424  28.978  23.544  0.0040  0.1312 -0.0626
79342W        W22280  15.474  29.442  19.758 -0.2209  0.0123  0.2558
79343W        W22281  17.831  29.862  24.871 -0.0504  0.0235  0.0248
79344W        W22282  15.913  27.204  22.592 -0.1726  0.0303 -0.1250
79345W        W22283  15.921  27.330  20.727 -0.2359  0.0936  0.0451
79346W        W22284  13.811  26.538  22.133  0.0895 -0.0146 -0.0680
79347W        W22285  16.040  28.724  22.490  0.0871  0.1729  0.2238
79348W        W22286  16.495  28.685  22.997 -0.3754  0.2369 -0.0090
79349W        W22287  15.675  26.674  22.091 -0.2596  0.1193 -0.1390
79350W        W22288  18.097  29.454  19.729  0.2485  0.0156 -0.2218
79351W        W22289  17.641  27.267  21.686 -0.0695  0.2108  0.2946
79352W        W22290  14.533  31.031  21.393 -0.2491  0.0562  0.1078
79353W        W22291  16.272  28.197  20.819 -0.0572 -0.1082  0.0302
79354W        W22292  18.322  29.401  22.338 -0.1161  0.2147 -0.1001
79355W        W22293  15.260  27.100  24.225 -0.0234 -0.0202  0.0474
79356W        W22294  16.978  28.715  22.823  0.3011  0.0580 -0.0968
79357W        W22295  19.501  29.421  23.746 -0.1531  0.1922 -0.1779
79358W        W22296  15.864  26.171  21.347 -0.2239 -0.2853  0.0502
79359W        W22297  15.566  27.743  21.273 -0.0156 -0.1530 -0.4227
79360W        W22298  13.280  28.643  21.330 -0.0393 -0.1538  0.6844
79361W        W22299  18.445  26.959  21.299 -0.2794 -0.1261 -0.0635
79362W        W22300  18.209  27.890  23.590  0.2451 -0.0339 -0.2650
79363W        W22301  15.010  28.503  19.430 -0.1036 -0.2048  0.2074
79364W        W22302  18.199  25.678  23.161 -0.1235 -0.3377 -0.0093
79365W        W22303  16.892  29.860  24.236  0.0232 -0.0062  0.0402
79366W        W22304  15.423  30.170  22.509 -0.1677  0.2447 -0.1496
79367W        W22305  15.136  28.559  18.857  0.2562  0.2645 -0.2821
79368W        W22306  16.287  27.976  21.933  0.2820 -0.0278  0.2314
79369W        W22307  15.841  28.663  20.209 -0.1830 -0.2079  0.2141
79370W        W22308  16.111  29.024  21.669  0.1389  0.0026 -0.1972
79371W        W22309  16.518  29.173  21.912  0.0535  0.1658 -0.2653
79372W        W22310  18.396  27.899  21.660 -0.1151 -0.2403 -0.3288
79373W        W22311  16.758  30.033  22.420 -0.0856 -0.3367  0.0638
79374W        W22312  15.266  28.280  20.694 -0.1161 -0.3569  0.2083
79375W        W22313  18.224  26.776  20.337 -0.0846  0.0641  0.0694
79376W        W22314  17.217  26.798  20.569 -0.0279 -0.0050 -0.1064
79377W        W22315  16.441  29.534  22.881 -0.2488 -0.3253 -0.3455
79378W        W22316  14.141  26.270  21.306 -0.0015 -0.1670  0.1721
79379W        W22317  14.776  28.076  19.697 -0.3610 -0.1932 -0.0049
79380W        W22318  16.002  27.378  23.634  0.4603 -0.1979 -0.0389
79381W        W22319  15.625  26.794  22.770  0.0693  0.0439 -0.1037
79382W        W22320  15.740  25.444  22.723  0.1780 -0.2979 -0.2959
79383W        W22321  15.769  27.966  21.793 -0.3472 -0.0128 -0.0201
79384W        W22322  14.988  25.924  19.969 -0.2358  0.0432  0.1903
79385W        W22323  16.852  28.370  20.899 -0.1307  0.0240 -0.1605
79386W        W22324  15.185  25.541  23.305  0.0475  0.0424 -0.1089
79387W        W22325  15.122  26.654  21.040  0.0841 -0.0158  0.4168
79388W        W22326  15.988  28.907  23.049 -0.0640 -0.0287  0.0824
79389W        W22327  16.749  29.600  20.422 -0.0684 -0.0560  0.2613
79390W        W22328  15.283  27.134  20.832 -0.2400  0.1163  0.0066
79391W        W22329  17.992  29.816  22.918 -0.3456  0.1796  0.4301
79392W        W22330  14.692  26.962  19.445 -0.3228  0.0243 -0.5934
79393W        W22331  14.954  28.065  22.075  0.4254 -0.0713 -0.0808
79394W        W22332  17.180  26.539  22.926 -0.1179 -0.2700 -0.0102
79395W        W22333  14.367  25.303  18.282  0.2111  0.2538 -0.1999
79396W        W22334  16.897  27.206  22.369 -0.1707  0.2137 -0.0263
79397W        W22335  15.154  27.994  21.109 -0.0649 -0.2100  0.0962
79398W        W22336  15.764  29.329  20.215  0.3290  0.0709  0.0827
79399W        W22337  15.043  29.188  23.323  0.1666  0.1924  0.1891
79400W        W22338  17.416  29.311  22.040 -0.4599 -0.2628  0.1371
79401W        W22339  15.080  26.471  22.854  0.1128 -0.0114  0.1116
79402W        W22340  16.288  27.686  20.524  0.0664 -0.1000  0.1718
79403W        W22341  16.402  29.098  23.302 -0.1432  0.0129  0.1000
79404W        W22342  18.509  27.456  21.169  0.2116  0.0350  0.0369
79405W        W22343  17.193  26.510  20.100 -0.0738  0.0155  0.2721
79406W        W22344  16.370  27.332  19.831  0.1578 -0.4647 -0.2206
79407W        W22345  16.806  27.455  23.655 -0.2648 -0.0957  0.0439
79408W        W22346  15.491  28.486  23.918  0.1627 -0.1970  0.1345
79409W        W22347  17.347  29.803  23.439  0.4461 -0.1889  0.2114
79410W        W22348  15.822  28.262  20.443  0.0981  0.0940  0.0198
79411W        W22349  17.548  27.127  19.573 -0.2282  0.3773  0.1295
79412W        W22350  14.974  29.385  20.928 -0.3749 -0.1584  0.0446
79413W        W22351  15.304  28.137  22.564  0.1077 -0.3515  0.1887
79414W        W22352  16.960  25.875  20.808  0.0163  0.0586  0.1974
79415W        W22353  16.754  28.277  22.876 -0.1098 -0.0177 -0.0867
79416W        W22354  17.673  29.014  22.928 -0.1742  0.1577 -0.0845
79417W        W22355  18.614  27.837  23.224 -0.0008 -0.2461 -0.0609
79418W        W22356  16.408  28.755  19.808 -0.0539 -0.2024 -0.0870
79419W        W22357  18.974  27.820  20.412  0.3490 -0.0813 -0.2992
79420W        W22358  15.777  29.348  23.366 -0.1363  0.3059  0.0179
79421W        W22359  18.041  29.249  23.343 -0.2248 -0.2240  0.0084
79422W        W22360  16.600  28.991  22.499  0.2178  0.1509  0.0222
79423W        W22361  18.027  27.967  22.096  0.2584  0.2535 -0.0705
79424W        W22362  16.034  26.697  22.385 -0.4284 -0.2537 -0.2624
79425W        W22363  15.247  28.840  21.852 -0.0116  0.0498 -0.1729
79426W        W22364  15.749  27.473  22.223 -0.2716  0.0757  0.0420
79427W        W22365  16.773  27.284  21.478  0.1745  0.2688 -0.1981
79428W        W22366  15.408  27.100  20.360 -0.2288 -0.0699  0.0258
79429W        W22367  16.473  25.758  19.683  0.0524 -0.3511 -0.0169
79430W        W22368  16.237  30.843  21.352 -0.0610  0.2033 -0.0278
79431W        W22369  16.041  29.324  22.372 -0.0587  0.1690 -0.3265
79432W        W22370  16.630  28.448  26.946 -0.0792 -0.1892  0.0751
79433W        W22371  16.358  27.394  25.266  0.0901  0.1162 -0.0527
79434W        W22372  17.403  26.221  24.116  0.0295 -0.3703  0.0547
79435W        W22373  17.820  26.124  24.404  0.0934 -0.3479 -0.3431
79436W        W22374  13.965  24.979  23.562 -0.2276 -0.2775  0.0173
79437W        W22375  16.699  28.394  24.033 -0.0769  0.2388  0.2406
79438W        W22376  15.914  25.886  26.134  0.1076  0.0556  0.0512
79439W        W22377  16.458  28.631  24.873 -0.1451  0.3315 -0.4148
79440W        W22378  18.853  29.194  26.755  0.0834 -0.3206  0.3419
79441W        W22379  16.438  27.877  23.225 -0.1021  0.1507  0.1500
79442W        W22380  16.827  26.842  26.319  0.1143  0.2867  0.1037
79443W        W22381  16.902  28.060  25.550  0.0029 -0.1069 -0.1897
79444W        W22382  16.930  25.429  25.199 -0.1966  0.2211  0.0653
79445W        W22383  15.411  25.456  26.902 -0.1492  0.1058 -0.1727
79446W        W22384  17.939  26.409  24.814 -0.1743 -0.0655  0.5470
79447W        W22385  15.621  27.563  24.383  0.1775 -0.0239 -0.2952
79448W        W22386  15.872  27.847  26.691  0.0331  0.1196 -0.0030
79449W        W22387  17.256  26.532  23.629  0.4673  0.1067 -0.1644
79450W        W22388  17.253  30.477  25.220  0.1640  0.3101 -0.1895
79451W        W22389  16.278  27.164  27.082  0.1320  0.0925  0.0469
79452W        W22390  18.564  27.049  26.803  0.2170  0.4872  0.0273
79453W        W22391  16.722  27.847  24.036  0.1729  0.0087 -0.1443
79454W        W22392  14.843  28.592  22.202 -0.1185  0.0699 -0.1244
79455W        W22393  14.701  27.015  25.390  0.0643  0.0685  0.3320
79456W        W22394  16.214  28.662  26.685 -0.0026 -0.0022 -0.1040
79457W        W22395  18.141  26.780  25.172  0.2133  0.1191  0.0591
79458W        W22396  18.404  28.406  25.326  0.0749 -0.0449 -0.3020
79459W        W22397  16.801  28.085  26.669 -0.0026  0.0379 -0.1308
79460W        W22398  16.570  29.044  26.478  0.1710 -0.1981  0.0178
79461W        W22399  18.218  26.953  26.396 -0.1166 -0.0944 -0.2360
79462W        W22400  15.777  27.517  25.357  0.2827  0.0609 -0.0720
79463W        W22401  15.697  27.853  25.745  0.0129  0.0126 -0.1160
79464W        W22402  16.082  28.232  24.713 -0.2962  0.0441  0.1053
79465W        W22403  18.472  28.426  24.471  0.0134 -0.0502 -0.1542
79466W        W22404  18.122  28.639  26.911 -0.1109  0.0492  0.2303
79467W        W22405  16.219  29.013  25.823  0.0214  0.0511  0.1266
79468W        W22406  14.950  28.827  24.008 -0.0161  0.0735 -0.0788
79469W        W22407  16.043  30.151  26.574  0.2751  0.0381 -0.2860
79470W        W22408  15.912  28.651  27.118 -0.2593 -0.0016 -0.1355
79471W        W22409  16.944  27.642  25.904  0.0569  0.1262 -0.5265
79472W        W22410  16.810  26.442  23.470  0.0123  0.1473 -0.1215
79473W        W22411  15.668  28.479  23.363  0.0842  0.1888  0.4062
79474W        W22412  18.103  28.798  24.617  0.0827  0.2113 -0.0243
79475W        W22413  16.440  27.791  27.212  0.1039  0.1267  0.1119
79476W        W22414  16.001  26.823  25.246 -0.0610 -0.0363  0.0117
79477W        W22415  19.043  24.411  26.183  0.0579 -0.3504 -0.1146
79478W        W22416  16.457  29.480  24.402  0.2708  0.0753  0.1047
79479W        W22417  18.279  27.551  22.599 -0.4777  0.0390  0.4559
79480W        W22418  17.129  27.610  22.131  0.0849 -0.0301 -0.1805
79481W        W22419  16.942  27.204  24.051  0.0007  0.0258 -0.2137
79482W        W22420  15.962  24.986  26.269 -0.0144 -0.1161 -0.1433
79483W        W22421  14.885  29.542  25.418 -0.1114 -0.0546 -0.0764
79484W        W22422  16.466  26.910  25.447  0.1044 -0.1801 -0.3395
79485W        W22423  18.646  28.517  27.026 -0.2927  0.0305  0.0283
79486W        W22424  18.466  27.097  24.932 -0.0263  0.0661  0.2159
79487W        W22425  16.988  27.243  25.122  0.0278 -0.4093  0.2445
79488W        W22426  15.598  27.985  26.242  0.0403  0.0137 -0.0035
79489W        W22427  16.174  26.867  23.442  0.0765  0.0073 -0.0517
79490W        W22428  18.912  29.736  24.524  0.1177 -0.1732 -0.0604
79491W        W22429  19.435  28.161  25.939  0.1514  0.1684  0.1949
79492W        W22430  17.803  28.714  22.573  0.1867 -0.3530  0.1004
79493W        W22431  16.523  26.989  24.993  0.0119  0.0473 -0.0878
79494W        W22432  15.034  28.039  26.362 -0.0281  0.0013 -0.0085
79495W        W22433  16.421  27.379  25.906 -0.2578  0.0233  0.0993
79496W        W22434  16.330  27.653  23.761  0.0513  0.0643  0.0137
79497W        W22435  17.734  28.688  26.646 -0.0941  0.1068  0.1518
79498W        W22436  14.826  29.407  26.348  0.0142 -0.1697  0.1989
79499W        W22437  16.638  26.550  24.737 -0.4936 -0.0155 -0.0328
79500W        W22438  15.397  28.763  26.021  0.0122 -0.2325 -0.1507
79501W        W22439  17.636  28.329  25.807  0.1304  0.0258  0.2313
79502W        W22440  17.236  27.792  23.878  0.1458  0.0789  0.0159
79503W        W22441  17.073  24.991  24.270 -0.5745 -0.0918 -0.0561
79504W        W22442  18.569  25.998  25.324 -0.0074  0.1241  0.0602
79505W        W22443  17.419  28.371  24.570  0.2487 -0.1139  0.0510
79506W        W22444  16.297  28.898  25.264 -0.1591 -0.0890 -0.0654
79507W        W22445  17.844  29.601  26.869 -0.0288 -0.0147  0.0580
79508W        W22446  17.076  28.248  23.200 -0.1456 -0.1798  0.1075
79509W        W22447  15.295  28.148  25.730 -0.0608  0.1980 -0.2993
79510W        W22448  15.871  26.588  28.232 -0.3501  0.1923 -0.0601
79511W        W22449  17.662  27.244  27.009 -0.0110 -0.1466  0.0854
79512W        W22450  14.034  29.889  24.348  0.3297  0.2235 -0.0405
79513W        W22451  16.301  28.611  23.898 -0.0727 -0.2310  0.0202
79514W        W22452  16.456  28.016  25.847 -0.1840 -0.0248 -0.0656
79515W        W22453  14.555  25.409  25.916 -0.1841  0.1216 -0.0546
79516W        W22454  16.979  28.550  26.607  0.2694  0.3018 -0.2658
79517W        W22455  17.662  26.836  24.938 -0.1306  0.0667 -0.1674
79518W        W22456  15.558  25.426  26.452  0.1388  0.0125 -0.0929
79519W        W22457  17.244  25.438  24.399  0.0534 -0.2044 -0.0232
79520W        W22458  16.068  27.191  25.632  0.2135  0.0429  0.0556
79521W        W22459  18.015  30.195  25.854  0.1374  0.0694 -0.3449
79522W        W22460  19.294  26.759  25.123  0.3135 -0.0217  0.1604
79523W        W22461  17.616  29.066  24.879 -0.1017 -0.0763 -0.3302
79524W        W22462  14.796  27.226  25.795 -0.0588  0.0612 -0.3536
79525W        W22463  16.296  26.539  23.892 -0.2660  0.2905  0.1896
79526W        W22464  14.239  27.443  28.259  0.0544  0.0201 -0.0401
79527W        W22465  14.468  26.534  25.135 -0.0704 -0.1652 -0.2563
79528W        W22466  18.316  27.518  25.821 -0.3636  0.0354  0.1065
79529W        W22467  16.892  26.722  24.280 -0.0157 -0.0042  0.0112
79530W        W22468  15.816  26.340  25.365  0.0276  0.1042 -0.1122
79531W        W22469  15.749  26.286  25.901  0.0008 -0.1231  0.0144
79532W        W22470  15.944  27.254  24.977 -0.3174  0.0022 -0.2773
79533W        W22471  18.398  25.190  26.179  0.2024  0.1522  0.2106
79534W        W22472  15.964  29.519  24.392 -0.0672 -0.1310 -0.1026
79535W        W22473  17.616  28.755  28.546  0.1417  0.0673  0.1462
79536W        W22474  17.191  28.607  25.748  0.2339 -0.0242  0.3131
79537W        W22475  16.958  26.411  26.587  0.4611 -0.2951  0.0477
79538W        W22476  16.827  27.187  24.552  0.1600  0.2056 -0.2712
79539W        W22477  16.133  26.812  24.655  0.0806 -0.0019 -0.3169
79540W        W22478  17.677  28.753  24.329  0.0446 -0.0245  0.2011
79541W        W22479  16.991  27.676  24.390 -0.1834  0.1952 -0.0471
79542W        W22480  17.742  29.412  24.417 -0.3124  0.0164 -0.0596
79543W        W22481  15.893  28.314  25.721 -0.3150 -0.0825  0.1742
79544W        W22482  14.036  28.739  26.573  0.0966 -0.0440 -0.2246
79545W        W22483  18.291  25.674  25.913  0.2512 -0.3091 -0.1149
79546W        W22484  19.217  27.696  26.160  0.1141  0.0358  0.1812
79547W        W22485  17.091  26.871  24.812  0.0517 -0.0691 -0.0180
79548W        W22486  16.416  27.141  23.811  0.1420 -0.2158 -0.2028
79549W        W22487  17.947  30.750  24.690 -0.3589  0.1110 -0.0321
79550W        W22488  15.833  30.376  23.704  0.0198  0.3619 -0.0569
79551W        W22489  15.842  26.417  24.840 -0.2635  0.3115  0.1571
79552W        W22490  15.391  31.298  21.770 -0.3389 -0.0805  0.0523
79553W        W22491  17.489  25.824  26.890  0.0658 -0.1225 -0.0798
79554W        W22492  16.690  27.182  26.801 -0.0341  0.3572  0.1647
79555W        W22493  17.475  26.326  26.858 -0.0622  0.1280  0.0854
79556W        W22494  15.490  28.980  24.189 -0.2059  0.0763  0.1569
79557W        W22495  15.449  28.724  27.073  0.2873 -0.0197  0.0955
79558W        W22496  17.643  25.624  26.465 -0.0105 -0.0586 -0.2864
79559W        W22497  17.547  24.905  22.893 -0.5077  0.2405 -0.0344
79560W        W22498  17.085  28.168  27.159 -0.0083 -0.1270  0.2785
79561W        W22499  19.258  28.069  26.531 -0.0714  0.1871 -0.3877
79562W        W22500  17.897  26.693  23.708  0.1361  0.2307  0.0979
79563W        W22501  18.711  26.872  23.813  0.0206 -0.0143 -0.1303
79564W        W22502  14.630  28.927  26.494  0.2764 -0.0684 -0.0901
79565W        W22503  17.360  26.868  24.112  0.0514  0.0579 -0.1415
79566W        W22504  17.913  28.352  25.295 -0.0669 -0.1840  0.3300
79567W        W22505  16.409  26.281  21.334 -0.1870 -0.1036  0.1076
79568W        W22506  17.294  29.120  24.474 -0.4021  0.2814 -0.1106
79569W        W22507  15.737  26.895  25.829  0.0849 -0.0428  0.0795
79570W        W22508  17.731  27.862  26.122  0.1705 -0.0638  0.1480
79571W        W22509  17.565  30.275  24.866  0.1427  0.0713  0.2512
79572W        W22510  15.680  25.884  25.501  0.0940  0.1253 -0.2399
79573W        W22511  15.690  27.100  21.871 -0.0151  0.0846  0.3150
79574W        W22512  17.126  25.386  23.933 -0.1847  0.0130 -0.1667
79575W        W22513  13.897  30.280  23.609  0.2838 -0.3256 -0.1538
79576W        W22514  17.553  24.992  24.765  0.0336 -0.3483 -0.1720
79577W        W22515  17.023  27.333  26.433  0.1430  0.1698 -0.2199
79578W        W22516  16.500  24.880  27.402 -0.1079 -0.1206 -0.2368
79579W        W22517  18.865  26.656  25.697  0.1338  0.0711 -0.1548
79580W        W22518  18.908  27.015  24.738  0.1375  0.0194  0.0275
79581W        W22519  18.023  28.824  25.206  0.0498  0.0665  0.2943
79582W        W22520  15.891  28.255  23.782  0.3015  0.2006  0.0628
79583W        W22521  16.738  27.576  25.459  0.1531 -0.2189 -0.0318
79584W        W22522  16.097  27.688  26.208 -0.0406  0.3274  0.2336
79585W        W22523  14.669  28.374  26.345  0.0429  0.3428  0.4331
79586W        W22524  17.547  28.943  25.853 -0.0209 -0.2534 -0.1126
79587W        W22525  18.806  28.512  25.032 -0.0238 -0.1702 -0.2530
79588W        W22526  16.344  25.331  27.303  0.0156 -0.0966 -0.0776
79589W        W22527  17.574  25.676  24.115 -0.0672  0.1125  0.3911
79590W        W22528  17.447  29.830  24.523 -0.2343 -0.2333 -0.3113
79591W        W22529  16.807  28.291  25.114 -0.3698 -0.1622  0.0161
79592W        W22530  17.000  25.880  26.881 -0.0928  0.1551  0.1857
79593W        W22531  17.119  29.255  25.964  0.2031  0.0067  0.0192
79594W        W22532  15.910  28.527  25.126  0.0796  0.1498  0.3342
79595W        W22533  18.145  26.250  25.288 -0.1247  0.0622  0.4058
79596W        W22534  15.572  28.264  24.782 -0.0924 -0.0853  0.3088
79597W        W22535  17.218  25.014  25.228  0.1755  0.3960  0.3495
79598W        W22536  15.096  28.086  24.905  0.0092 -0.0391  0.2261
79599W        W22537  18.475  27.382  23.552  0.0001 -0.2748  0.2326
79600W        W22538  16.451  26.945  24.248 -0.2740 -0.0629  0.0341
79601W        W22539  17.772  27.082  23.932 -0.1407 -0.1110 -0.0648
79602W        W22540  16.733  28.530  23.486 -0.0581 -0.1417 -0.3032
79603W        W22541  16.534  26.674  26.914  0.2571  0.2051 -0.1145
79604W        W22542  16.863  26.657  25.698 -0.0070  0.1737  0.2621
79605W        W22543  16.176  29.791  25.434  0.1865 -0.2170  0.2019
79606W        W22544  17.362  27.906  25.771  0.0343  0.0156  0.3389
79607W        W22545  17.549  26.162  23.628  0.1311 -0.2614 -0.3392
79608W        W22546  16.853  29.517  25.551 -0.0093  0.0686 -0.1765
79609W        W22547  17.121  27.816  26.404  0.0117  0.0184  0.2291
79610W        W22548  16.150  27.709  24.347 -0.0934  0.1074  0.1171
79611W        W22549  18.182  25.941  24.690 -0.1100  0.0031 -0.0475
79612W        W22550  16.002  27.151  24.253 -0.2829 -0.0108  0.1438
79613W        W22551  16.839  28.377  24.566  0.2761 -0.2783 -0.0735
79614W        W22552  16.074  28.959  26.294 -0.2040  0.0468 -0.2151
79615W        W22553  16.341  28.355  25.394  0.0249  0.1590  0.0112
79616W        W22554  14.731  28.346  25.821  0.0035  0.0080 -0.0151
79617W        W22555  15.285  26.710  26.673  0.0427  0.2673  0.1739
79618W        W22556  18.046  28.619  25.768  0.1607  0.1474 -0.0793
79619W        W22557  17.254  26.951  25.891  0.2508 -0.0103 -0.1015
79620W        W22558  17.427  27.402  24.232 -0.0398 -0.2168 -0.2730
79621W        W22559  16.757  28.766  25.260  0.2989  0.1984 -0.2012
79622W        W22560  18.927  27.579  24.941  0.1449  0.2422 -0.1458
79623W        W22561  16.351  26.905  27.493  0.2309  0.1286 -0.1295
79624W        W22562  15.211  28.291  27.048 -0.1792 -0.2789 -0.1611
79625W        W22563  16.477  24.922  26.282 -0.1377  0.2802 -0.2119
79626W        W22564  18.186  29.219  24.228  0.0022 -0.3061  0.1182
79627W        W22565  17.856  28.231  26.426 -0.0230  0.0381 -0.1229
79628W        W22566  15.107  28.189  23.960 -0.2319  0.2478  0.1265
79629W        W22567  13.627  26.281  26.842 -0.0202 -0.1058  0.0035
79630W        W22568  15.721  27.416  25.928 -0.1361  0.0789  0.0346
79631W        W22569  17.363  28.273  26.183 -0.3612  0.1073  0.1719
79632W        W22570  15.816  29.226  25.355 -0.1001 -0.1504  0.0538
79633W        W22571  15.903  30.289  22.072 -0.1288 -0.3072 -0.1284
79634W        W22572  15.031  27.327  25.142  0.1697  0.4609  0.2087
79635W        W22573  17.175  26.871  25.356  0.1064 -0.2502  0.1319
79636W        W22574  18.195  27.844  24.496  0.1083 -0.2080  0.3149
79637W        W22575  15.614  26.977  26.426  0.2409  0.0190 -0.0663
79638W        W22576  18.406  23.954  25.091  0.0265 -0.0572 -0.0195
79639W        W22577  17.561  27.769  22.272 -0.5043 -0.0475  0.0805
79640W        W22578  17.946  25.974  27.015 -0.0884  0.0328 -0.1963
79641W        W22579  16.183  25.017  25.801 -0.2712 -0.2422  0.4408
79642W        W22580  17.176  29.065  25.418  0.2504  0.0512  0.0347
79643W        W22581  16.377  25.694  26.245  0.0350  0.1958 -0.0561
79644W        W22582  16.954  29.874  26.936  0.0607  0.0049  0.0061
79645W        W22583  15.818  27.140  26.879 -0.0811 -0.0361  0.0003
79646W        W22584  16.597  25.847  24.301 -0.0819 -0.0409 -0.3988
79647W        W22585  17.043  26.025  23.601 -0.0286 -0.0756 -0.0076
79648W        W22586  16.464  28.651  26.125 -0.1717  0.0421 -0.1558
79649W        W22587  18.762  26.963  26.206 -0.2460  0.2330  0.1353
79650W        W22588  17.187  27.851  25.237 -0.0375  0.3688 -0.2069
79651W        W22589  17.708  26.513  25.294 -0.0198 -0.3532  0.3694
79652W        W22590  15.338  27.102  25.518  0.0602  0.0449 -0.3547
79653W        W22591  17.753  27.583  24.602 -0.5448  0.2431  0.2277
79654W        W22592  18.306  27.649  24.013 -0.1650 -0.0221 -0.3427
79655W        W22593  14.440  28.528  26.745 -0.0275  0.2165 -0.6167
79656W        W22594  16.016  26.173  27.156 -0.1402  0.1696 -0.1856
79657W        W22595  19.383  26.782  24.591  0.0655 -0.1300 -0.0378
79658W        W22596  17.898  26.551  26.455  0.2217  0.0033 -0.0325
79659W        W22597  16.202  25.735  26.898  0.2319  0.1481 -0.1124
79660W        W22598  17.403  26.333  27.732  0.3459 -0.0250 -0.1312
79661W        W22599  16.557  26.036  26.464 -0.0671  0.1578  0.0896
79662W        W22600  14.036  26.066  26.383 -0.0254  0.1550 -0.3679
79663W        W22601  16.661  29.480  26.009  0.0223  0.2652 -0.3183
79664W        W22602  17.862  25.691  23.592  0.1430 -0.0625 -0.0269
79665W        W22603  18.095  24.770  26.118 -0.0393 -0.2820 -0.1777
79666W        W22604  18.533  26.997  24.327 -0.2062  0.0987  0.3644
79667W        W22605  16.925  27.358  23.090 -0.3119 -0.1083  0.0616
79668W        W22606  16.151  26.073  25.618 -0.0496 -0.2205  0.2898
79669W        W22607  16.945  29.401  27.507 -0.2601 -0.3419  0.2408
79670W        W22608  16.089  26.598  23.004 -0.2234 -0.0108  0.1319
79671W        W22609  18.474  24.434  27.353 -0.0915  0.1236  0.0162
79672W        W22610  17.321  30.166  24.164 -0.2605  0.1123 -0.0447
79673W        W22611  15.542  29.657  24.648  0.3207 -0.1672  0.2138
79674W        W22612  17.808  26.611  24.165 -0.0311  0.0985 -0.3753
79675W        W22613  14.479  27.033  24.944  0.5061  0.3573  0.2040
79676W        W22614  16.925  28.257  27.654  0.0067  0.0414 -0.4027
79677W        W22615  16.245  27.557  22.337 -0.0303  0.0264 -0.2062
79678W        W22616  15.738  28.747  24.689 -0.2956 -0.1115  0.2029
79679W        W22617  17.301  28.404  25.238  0.0227  0.0307 -0.0146
79680W        W22618  18.080  26.132  25.790  0.0694  0.1738 -0.3749
79681W        W22619  16.343  26.155  26.049 -0.2499 -0.0881  0.1902
79682W        W22620  18.102  27.089  25.830  0.0012  0.1667  0.0345
79683W        W22621  14.439  30.265  24.488  0.0373 -0.0084  0.0648
79684W        W22622  16.190  25.591  25.739  0.0485  0.1039 -0.1441
79685W        W22623  15.143  29.812  24.371 -0.4292 -0.0852 -0.0595
79686W        W22624  14.355  27.360  25.653 -0.1554  0.2078 -0.0367
79687W        W22625  16.396  29.341  25.487  0.0357  0.1851 -0.1469
79688W        W22626  18.598  26.753  25.300  0.1050 -0.1663  0.1402
79689W        W22627  17.391  27.492  26.111 -0.2684  0.1187  0.0052
79690W        W22628  16.839  27.142  25.681  0.0341  0.0661  0.0856
79691W        W22629  19.221  26.655  26.103  0.1239  0.2733  0.2178
79692W        W22630  17.276  27.511  26.839 -0.0648  0.0105 -0.2329
79693W        W22631  15.027  26.770  25.743 -0.0619 -0.1128  0.3582
79694W        W22632  17.015  27.745  27.313  0.2181  0.0253  0.0067
79695W        W22633  18.103  29.110  26.780  0.0012  0.2930 -0.1164
79696W        W22634  16.374  30.718  25.201 -0.0478 -0.2078 -0.0819
79697W        W22635  14.055  27.323  27.644  0.1838 -0.3098  0.0405
79698W        W22636  17.931  28.158  27.006 -0.1251 -0.0226  0.0259
79699W        W22637  18.099  27.270  25.395  0.1231 -0.1182 -0.0475
79700W        W22638  15.954  26.522  24.236 -0.0979 -0.1568 -0.2180
79701W        W22639  16.056  29.111  23.988 -0.2555  0.0555  0.1023
79702W        W22640  15.554  28.795  27.963 -0.3056  0.1630  0.0006
79703W        W22641  14.941  28.810  27.223  0.1193  0.2363 -0.0010
79704W        W22642  15.155  29.488  23.982  0.1803 -0.0048 -0.0236
79705W        W22643  17.604  28.713  25.421  0.2947  0.1626  0.0184
79706W        W22644  18.104  27.467  24.948 -0.0532 -0.0220 -0.0631
79707W        W22645  17.897  30.949  25.830 -0.0506  0.0822 -0.0971
79708W        W22646  16.634  26.947  23.290 -0.0290  0.4017  0.1568
79709W        W22647  15.843  28.087  25.281 -0.0731 -0.0944 -0.2361
79710W        W22648  14.745  29.294  23.738 -0.0140  0.3407 -0.0418
79711W        W22649  17.280  29.640  25.299 -0.0480 -0.1658 -0.2042
79712W        W22650  16.750  30.620  23.627 -0.1930  0.0155  0.0571
79713W        W22651  18.414  28.078  27.760  0.2039 -0.1988 -0.2776
79714W        W22652  16.931  26.103  23.087 -0.0938 -0.0681 -0.2760
79715W        W22653  18.304  24.018  24.294  0.0043 -0.1155  0.2106
79716W        W22654  17.153  26.358  24.916  0.0647  0.2550 -0.1526
79717W        W22655  17.715  28.193  28.635  0.0546  0.3067  0.0502
79718W        W22656  16.877  26.369  26.102 -0.0651  0.2125  0.1186
79719W        W22657  16.641  25.739  25.572  0.0222 -0.1393 -0.0494
79720W        W22658  16.593  27.716  26.358 -0.0394 -0.5250 -0.0790
79721W        W22659  19.090  24.410  27.323 -0.0368 -0.0665 -0.3365
79722W        W22660  14.065  29.914  25.646 -0.4577 -0.1177  0.0843
79723W        W22661  16.975  30.233  26.084 -0.0115  0.1769 -0.1389
79724W        W22662  15.951  28.583  24.240 -0.1301  0.0522 -0.0308
79725W        W22663  17.295  27.386  25.565  0.0913 -0.1326 -0.0928
79726W        W22664  19.713  23.896  24.978 -0.2564  0.1060 -0.1223
79727W        W22665  17.017  29.857  23.807 -0.1629 -0.1365  0.0711
79728W        W22666  17.334  26.449  25.760 -0.0628 -0.0745  0.4270
79729W        W22667  15.696  28.091  24.372  0.2185 -0.0862  0.4025
79730W        W22668  14.562  29.839  26.461 -0.1032  0.0397 -0.0258
79731W        W22669  18.355  29.325  25.384 -0.2564 -0.2351  0.3286
79732W        W22670  15.632  27.314  23.962  0.1123 -0.0820  0.0267
79733W        W22671  17.620  26.075  25.547  0.0330 -0.0676 -0.0869
79734W        W22672  16.006  25.347  26.679  0.1814  0.3248 -0.1847
79735W        W22673  17.498  24.227  25.398 -0.0188 -0.1438  0.5422
79736W        W22674  16.502  26.886  25.942  0.2255  0.1038  0.2140
79737W        W22675  18.153  27.350  24.414  0.1339 -0.0554  0.4304
79738W        W22676  18.479  26.416  24.915  0.0193  0.1711 -0.1150
79739W        W22677  14.377  26.863  25.720 -0.0671 -0.2885 -0.2404
79740W        W22678  17.598  27.437  25.091 -0.0158 -0.3534  0.1631
79741W        W22679  17.827  28.806  27.245 -0.0366  0.2465 -0.1477
79742W        W22680  17.480  27.946  22.971 -0.3198  0.4148  0.1318
79743W        W22681  16.352  28.826  27.239 -0.2164  0.1615 -0.1598
79744W        W22682  15.531  26.040  25.009 -0.0242  0.0601  0.0544
79745W        W22683  17.545  26.960  23.452  0.1111  0.2026 -0.3058
79746W        W22684  15.118  27.417  24.582  0.0132 -0.0103 -0.1592
79747W        W22685  17.521  27.248  26.521  0.0295 -0.4868  0.1288
79748W        W22686  16.263  28.756  27.751  0.3284  0.2367 -0.0051
79749W        W22687  14.999  25.735  24.221 -0.3116  0.0692  0.1875
79750W        W22688  17.718  28.652  23.825 -0.1825 -0.0910 -0.1315
79751W        W22689  18.118  26.829  24.603  0.1907 -0.2117 -0.0990
79752W        W22690  16.539  30.058  22.875 -0.1914 -0.3113  0.2066
79753W        W22691  18.245  26.381  24.402 -0.0330 -0.0880 -0.1384
79754W        W22692  17.764  29.404  26.207 -0.4282 -0.1404  0.2277
79755W        W22693  14.726  25.318  24.137 -0.0629  0.1160 -0.0215
79756W        W22694  17.134  29.266  24.948  0.4218 -0.0124 -0.0166
79757W        W22695  19.928  26.493  26.600  0.2031 -0.1403 -0.2153
79758W        W22696  16.396  26.391  25.215  0.2030 -0.3928  0.4809
79759W        W22697  15.959  26.663  26.231  0.2459 -0.0067 -0.2698
79760W        W22698  16.236  28.173  24.136 -0.2044  0.0941 -0.2064
79761W        W22699  18.137  25.270  24.911 -0.1252  0.0050  0.0583
79762W        W22700  18.558  25.339  25.626  0.0599 -0.1859  0.4601
79763W        W22701  16.286  28.756  22.032  0.2091 -0.2060 -0.1203
79764W        W22702  18.922  26.147  26.627 -0.0165  0.0859 -0.2129
79765W        W22703  17.640  28.300  27.394  0.3009 -0.1345 -0.0320
79766W        W22704  16.454  28.248  27.886  0.0939  0.0348  0.1240
79767W        W22705  16.705  29.538  23.348 -0.0515 -0.0331  0.1599
79768W        W22706  17.657  27.878  25.347  0.1432  0.1807 -0.0284
79769W        W22707  16.447  27.900  25.207  0.1526 -0.1986  0.3349
79770W        W22708  16.449  28.411  22.428  0.1398 -0.0139 -0.1492
79771W        W22709  17.400  28.808  26.325 -0.3055  0.0164  0.1634
79772W        W22710  17.301  27.924  24.690  0.2136  0.1268  0.0575
79773W        W22711  17.090  29.050  26.650 -0.0231  0.0493  0.2183
79774W        W22712  17.133  24.609  24.730 -0.0409  0.1886 -0.1335
79775W        W22713  19.156  25.900  24.525  0.1209 -0.1620  0.0167
79776W        W22714  17.123  25.366  22.064 -0.0132  0.3526 -0.1903
79777W        W22715  16.821  28.247  26.166  0.1240  0.1582  0.3221
79778W        W22716  16.156  28.286  23.001 -0.3073 -0.3522 -0.0527
79779W        W22717  16.854  27.662  24.916 -0.0998  0.0654 -0.0854
79780W        W22718  14.699  27.994  24.478 -0.1030  0.1057 -0.0280
79781W        W22719  16.434  26.549  27.864 -0.2803 -0.1443 -0.2708
79782W        W22720  15.282  27.090  26.038  0.0188 -0.1338  0.0946
79783W        W22721  15.273  28.524  24.435 -0.1123 -0.2162 -0.0801
79784W        W22722  16.731  26.781  23.782 -0.0381  0.3317 -0.0384
79785W        W22723  18.765  27.340  24.049  0.0624  0.0252 -0.0503
79786W        W22724  15.314  26.601  26.101  0.1619 -0.0412 -0.2627
79787W        W22725  14.495  26.077  24.764  0.3175 -0.0443 -0.2297
79788W        W22726  17.282  27.379  24.730 -0.1909  0.0118  0.0775
79789W        W22727  17.812  29.243  25.283  0.0096 -0.0267  0.0721
79790W        W22728  14.291  25.963  25.253 -0.0314  0.0704 -0.0582
79791W        W22729  18.941  27.240  27.094 -0.3733 -0.0132  0.2724
79792W        W22730  15.519  27.793  24.862  0.0652  0.1428 -0.1364
79793W        W22731  14.579  25.182  26.434 -0.0217  0.2183 -0.0293
79794W        W22732  17.704  26.952  25.562 -0.0864 -0.1289 -0.2507
79795W        W22733  15.395  28.057  23.557  0.1309  0.0362  0.1053
79796W        W22734  18.618  27.139  25.641  0.4293 -0.3690  0.1712
79797W        W22735  17.164  30.375  24.602 -0.2782 -0.2478 -0.0220
79798W        W22736  17.810  27.608  23.985 -0.0925 -0.1923 -0.1408
79799W        W22737  18.040  27.494  26.250 -0.0174 -0.0564  0.0221
79800W        W22738  18.032  28.025  25.698  0.1219  0.1627 -0.3257
79801W        W22739  13.979  27.714  26.248 -0.0989 -0.0667  0.0242
79802W        W22740  18.096  27.917  25.159 -0.1037 -0.0425 -0.1972
79803W        W22741  17.714  27.736  26.671 -0.0072 -0.2356  0.1782
79804W        W22742  18.525  28.937  24.995  0.0843  0.0281  0.2548
79805W        W22743  19.222  24.822  24.864 -0.2032  0.3012  0.1226
79806W        W22744  19.111  27.457  24.453  0.2766  0.1887 -0.0218
79807W        W22745  14.751  25.828  26.239 -0.1604 -0.3823  0.1247
79808W        W22746  15.128  29.453  27.423 -0.0392  0.2247 -0.0466
79809W        W22747  18.588  28.799  26.558  0.1365  0.1734  0.1373
79810W        W22748  16.922  25.879  26.061  0.3806  0.0409 -0.1358
79811W        W22749  16.636  26.230  25.625 -0.0264  0.1827 -0.3650
79812W        W22750  16.372  28.136  23.658  0.1952 -0.2924 -0.0412
79813W        W22751  15.030  28.741  26.768 -0.1601  0.0897 -0.0556
79814W        W22752  18.273  27.132  23.929 -0.0981 -0.0718 -0.2263
79815W        W22753  18.284  26.587  25.650 -0.1247  0.2745 -0.0256
79816W        W22754  16.917  29.601  24.680  0.0086  0.0774  0.1662
79817W        W22755  18.013  27.852  27.541  0.2528 -0.0384  0.0571
79818W        W22756  16.550  27.975  24.614 -0.1832  0.1461 -0.0957
79819W        W22757  17.906  28.101  23.900  0.1805 -0.0967 -0.0631
79820W        W22758  17.594  29.413  25.756 -0.1523 -0.0358 -0.2182
79821W        W22759  17.616  29.216  26.619 -0.1917 -0.2020 -0.0522
79822W        W22760  17.629  30.277  26.598 -0.0049  0.0233  0.3630
79823W        W22761  19.581  26.791  26.420  0.0618 -0.0414 -0.0318
79824W        W22762  15.861  25.280  25.479 -0.0325  0.2338 -0.4291
79825W        W22763  16.342  28.128  26.334  0.0832 -0.1777 -0.1833
79826W        W22764  15.323  27.869  26.807 -0.1254 -0.1802 -0.1220
79827W        W22765  18.011  25.508  25.486  0.3212 -0.2763 -0.0061
79828W        W22766  16.182  26.535  25.757  0.0253 -0.0549  0.1971
79829W        W22767  16.825  26.117  22.056 -0.1311 -0.0678 -0.1637
79830W        W22768  15.715  29.291  26.449 -0.7216  0.2075  0.1405
79831W        W22769  16.715  28.472  25.713 -0.1426 -0.0849  0.2561
79832W        W22770  16.946  27.613  30.573  0.0116 -0.1304  0.2714
79833W        W22771  15.124  27.338  28.316 -0.3258 -0.0549  0.0908
79834W        W22772  19.633  26.623  26.995  0.1224  0.0955 -0.0321
79835W        W22773  18.304  28.330  26.594 -0.0208 -0.2483 -0.0720
79836W        W22774  15.544  26.588  27.535  0.1263  0.0973 -0.3212
79837W        W22775  17.323  27.857  28.707  0.2223  0.3438  0.1287
79838W        W22776  16.961  24.131  29.912 -0.0862  0.3506 -0.1459
79839W        W22777  17.388  28.801  30.103  0.3058 -0.0761 -0.0824
79840W        W22778  17.965  29.244  28.910  0.1466  0.1149 -0.0257
79841W        W22779  16.704  27.211  28.299  0.0080  0.1389 -0.1572
79842W        W22780  16.409  26.470  30.672  0.1137 -0.0791  0.1933
79843W        W22781  16.840  29.123  29.699 -0.0281 -0.0819 -0.1773
79844W        W22782  15.413  26.105  27.668  0.1653 -0.0074  0.3330
79845W        W22783  15.903  25.570  27.617  0.1862 -0.4067 -0.1163
79846W        W22784  17.674  27.527  29.343  0.0489 -0.1258  0.0544
79847W        W22785  15.375  28.047  27.569  0.2638 -0.1483  0.0456
79848W        W22786  15.426  27.903  29.219 -0.2377  0.0185  0.1952
79849W        W22787  17.264  26.851  27.681  0.1166 -0.1241 -0.2530
79850W        W22788  17.105  29.418  28.591 -0.0107 -0.1260  0.1923
79851W        W22789  15.879  24.316  29.164  0.0034 -0.3122 -0.1010
79852W        W22790  17.393  25.758  28.832 -0.0800  0.0862 -0.0457
79853W        W22791  17.048  27.998  28.052  0.0020  0.2413 -0.0263
79854W        W22792  15.723  26.467  26.913  0.1966  0.2576  0.1438
79855W        W22793  14.441  25.888  29.546  0.1381  0.1027  0.3810
79856W        W22794  13.376  26.395  29.267 -0.1208  0.3055 -0.2315
79857W        W22795  16.475  25.725  28.769 -0.2172 -0.3730  0.1963
79858W        W22796  18.594  26.389  29.431 -0.1816  0.1773  0.0456
79859W        W22797  16.250  29.418  28.645  0.0471 -0.4772  0.0937
79860W        W22798  15.788  28.738  29.836  0.0598 -0.2171 -0.1067
79861W        W22799  17.596  27.184  30.719 -0.0971  0.2138 -0.3990
79862W        W22800  15.637  27.009  28.291 -0.1272  0.0977  0.4775
79863W        W22801  14.114  28.683  30.248 -0.1091 -0.1405  0.0235
79864W        W22802  15.859  28.167  28.580 -0.1499  0.1360 -0.0424
79865W        W22803  18.078  27.970  28.367  0.0984  0.0137  0.1744
79866W        W22804  18.746  27.942  30.501 -0.0454  0.1685  0.0639
79867W        W22805  16.758  28.131  30.495  0.0708  0.0997  0.0081
79868W        W22806  14.502  27.938  26.464  0.0457  0.1074  0.0823
79869W        W22807  18.039  29.330  31.770  0.0202 -0.1317 -0.1805
79870W        W22808  15.475  27.117  29.645 -0.0194  0.2128  0.1527
79871W        W22809  15.994  30.102  29.534 -0.0331  0.0056 -0.1010
79872W        W22810  17.079  25.716  29.220 -0.0896  0.0733  0.0156
79873W        W22811  14.924  27.489  27.673  0.3129  0.2260  0.1105
79874W        W22812  15.879  27.690  28.755 -0.1823 -0.2038  0.4172
79875W        W22813  16.547  26.176  29.522  0.0690 -0.0881  0.1753
79876W        W22814  15.394  28.329  28.512  0.1567  0.0864 -0.0079
79877W        W22815  17.322  26.337  30.428 -0.2400 -0.1095 -0.2565
79878W        W22816  14.589  27.779  27.422  0.1580 -0.0426  0.0262
79879W        W22817  17.519  27.904  29.587 -0.1416  0.0143 -0.0111
79880W        W22818  16.842  26.829  27.262  0.1550 -0.0504  0.2846
79881W        W22819  18.360  25.103  26.687 -0.1144 -0.1528  0.0571
79882W        W22820  16.036  25.053  27.605  0.1807  0.1031 -0.3377
79883W        W22821  15.385  28.820  29.490 -0.4420  0.1169 -0.0944
79884W        W22822  15.406  24.323  28.936 -0.0663 -0.1157 -0.2973
79885W        W22823  18.142  26.403  29.749  0.0498  0.1725 -0.2584
79886W        W22824  15.576  27.788  28.419  0.1245  0.1106 -0.0190
79887W        W22825  17.180  27.013  28.205 -0.1450 -0.1282  0.0050
79888W        W22826  15.570  29.172  30.333  0.2103 -0.1369  0.0194
79889W        W22827  14.948  27.016  27.526  0.1239  0.0516 -0.2052
79890W        W22828  18.909  28.854  27.266  0.3105 -0.1182 -0.2300
79891W        W22829  17.902  28.140  27.904 -0.0137  0.1348  0.0064
79892W        W22830  16.577  27.801  28.192 -0.1191  0.2586  0.3012
79893W        W22831  13.908  27.798  27.948  0.0520 -0.1411  0.2933
79894W        W22832  14.799  26.964  30.354  0.0233  0.0156 -0.1530
79895W        W22833  14.837  26.569  28.647  0.0829 -0.3198  0.0312
79896W        W22834  17.081  24.129  27.245  0.0911 -0.0501 -0.1360
79897W        W22835  18.518  27.165  31.048  0.1863  0.1462  0.0452
79898W        W22836  14.461  28.992  31.462 -0.0051  0.2028  0.0523
79899W        W22837  17.931  26.034  27.556  0.0051 -0.2292 -0.6011
79900W        W22838  16.088  27.991  27.584 -0.2275  0.4007  0.1900
79901W        W22839  16.991  28.645  29.857 -0.4491  0.1654  0.0240
79902W        W22840  18.187  27.844  26.722 -0.4384 -0.2999  0.2004
79903W        W22841  19.155  24.769  26.535 -0.4015  0.1181 -0.0619
79904W        W22842  17.281  26.214  28.946  0.1888  0.2017 -0.0505
79905W        W22843  15.825  28.140  27.152  0.2966  0.0157 -0.2450
79906W        W22844  16.246  26.182  28.141  0.1042 -0.2788  0.3319
79907W        W22845  17.960  28.086  29.911 -0.1376 -0.0858  0.0054
79908W        W22846  16.610  26.905  28.750  0.0877 -0.1113  0.1568
79909W        W22847  16.293  29.054  29.880  0.0702 -0.0918 -0.0679
79910W        W22848  16.667  25.046  30.819 -0.3925 -0.2003  0.3218
79911W        W22849  16.195  30.370  31.324  0.3299 -0.2668 -0.5677
79912W        W22850  16.314  29.689  28.197  0.1534  0.0129  0.3492
79913W        W22851  13.862  26.612  29.267 -0.0302  0.0526  0.1372
79914W        W22852  15.963  29.161  27.308  0.0584  0.5380 -0.0298
79915W        W22853  13.093  27.010  30.077 -0.2012 -0.0438  0.1010
79916W        W22854  15.558  26.938  29.060 -0.0088 -0.0679 -0.0647
79917W        W22855  16.324  26.621  28.462  0.3688 -0.1212  0.0691
79918W        W22856  15.638  25.687  28.390  0.2832  0.2743 -0.1524
79919W        W22857  19.501  24.787  26.156  0.3047  0.5249  0.0378
79920W        W22858  14.788  28.118  26.835  0.0017 -0.1208 -0.1564
79921W        W22859  17.886  29.700  28.186 -0.2359 -0.4188  0.3185
79922W        W22860  18.406  28.039  27.194 -0.0013  0.0584  0.1847
79923W        W22861  18.107  28.391  27.408  0.0695 -0.2292  0.1087
79924W        W22862  14.639  24.976  29.291 -0.0092 -0.1835 -0.1785
79925W        W22863  15.432  27.082  27.816  0.1180  0.1867 -0.0414
79926W        W22864  16.099  25.227  30.045 -0.0205 -0.0674  0.1446
79927W        W22865  15.172  25.637  27.409 -0.1696  0.1048 -0.0501
79928W        W22866  17.431  27.049  29.285  0.0274 -0.2400 -0.0122
79929W        W22867  14.512  26.177  27.498 -0.2025 -0.2161 -0.0192
79930W        W22868  17.467  24.711  27.737 -0.0855  0.2106 -0.1033
79931W        W22869  16.159  25.655  28.374 -0.1912  0.0049  0.0298
79932W        W22870  15.401  27.433  28.722 -0.0596  0.1125 -0.1786
79933W        W22871  17.558  25.309  29.761  0.1787  0.0412 -0.0509
79934W        W22872  16.229  28.949  28.484  0.0988  0.1259  0.1268
79935W        W22873  18.537  27.700  30.922  0.2827 -0.1579  0.0585
79936W        W22874  17.366  29.684  29.567 -0.0277  0.1118 -0.0655
79937W        W22875  15.946  26.947  29.642 -0.1048  0.1895 -0.1137
79938W        W22876  14.829  25.090  28.598 -0.2395  0.2489  0.4394
79939W        W22877  15.068  29.315  29.544  0.1635 -0.0463 -0.0144
79940W        W22878  15.859  29.251  29.427 -0.2831 -0.1378 -0.0300
79941W        W22879  16.470  26.410  27.359 -0.2275 -0.0262 -0.5137
79942W        W22880  18.288  28.532  27.954  0.3622 -0.1637 -0.0352
79943W        W22881  16.730  27.664  29.427  0.1736  0.1181  0.0441
79944W        W22882  15.349  27.557  29.579  0.0038 -0.3675  0.2119
79945W        W22883  17.386  25.862  30.118  0.4645 -0.2778 -0.0566
79946W        W22884  19.149  25.605  29.050 -0.1158  0.1766  0.4660
79947W        W22885  17.807  26.342  29.260 -0.4554 -0.2045 -0.0586
79948W        W22886  13.612  25.933  27.328  0.1416  0.0162  0.0099
79949W        W22887  17.011  29.398  29.249  0.2922  0.1487 -0.0176
79950W        W22888  13.969  28.628  27.516  0.1964 -0.0557 -0.2136
79951W        W22889  15.616  28.196  28.034 -0.0138 -0.0149 -0.0530
79952W        W22890  16.318  27.848  28.658  0.1801  0.0059 -0.0649
79953W        W22891  17.691  26.787  26.830  0.3539  0.5774  0.2346
79954W        W22892  14.970  26.471  30.431  0.2193 -0.0738  0.0773
79955W        W22893  16.189  27.115  30.971 -0.2933  0.3001 -0.0447
79956W        W22894  14.561  26.135  26.928 -0.0040  0.0243  0.1561
79957W        W22895  16.145  27.871  29.563  0.1278  0.3953 -0.2145
79958W        W22896  16.709  25.156  27.851 -0.2096  0.1489 -0.1412
79959W        W22897  19.357  25.214  25.709 -0.0953 -0.4463  0.1785
79960W        W22898  16.309  27.385  29.999 -0.3364  0.0213  0.0218
79961W        W22899  17.341  27.458  28.368 -0.2288  0.0986 -0.0531
79962W        W22900  18.157  27.066  27.204 -0.0744  0.4571  0.1695
79963W        W22901  17.462  26.404  28.353 -0.0578 -0.0688 -0.0911
79964W        W22902  15.177  28.998  29.957 -0.0816  0.2458 -0.1671
79965W        W22903  16.793  27.017  27.788  0.0283 -0.0570 -0.1163
79966W        W22904  15.899  26.671  30.131 -0.2441 -0.1451  0.0915
79967W        W22905  17.349  26.620  26.258 -0.0101 -0.1927 -0.1237
79968W        W22906  16.219  29.140  28.023 -0.0308  0.2765  0.0836
79969W        W22907  15.560  27.956  29.866 -0.0423 -0.1196  0.2221
79970W        W22908  16.461  29.111  30.484  0.1196  0.2361  0.1028
79971W        W22909  16.910  28.537  28.060 -0.0203 -0.1886 -0.0676
79972W        W22910  16.901  26.633  29.085 -0.2365  0.1369 -0.2150
79973W        W22911  15.655  28.792  26.632 -0.0143 -0.0961  0.3481
79974W        W22912  15.982  24.828  28.398  0.3612  0.0140  0.2209
79975W        W22913  14.426  28.611  27.266  0.1317 -0.1385 -0.3111
79976W        W22914  17.977  26.510  28.241  0.1414  0.1142 -0.1511
79977W        W22915  16.286  24.073  27.893 -0.3410  0.2863  0.0060
79978W        W22916  17.084  24.569  28.204  0.0898 -0.0831  0.1428
79979W        W22917  18.663  27.756  29.696 -0.2508 -0.2303  0.2024
79980W        W22918  17.272  25.724  28.306  0.1735  0.0282  0.2045
79981W        W22919  17.182  27.599  29.097 -0.1946  0.0295  0.0682
79982W        W22920  17.413  28.194  26.687 -0.0674  0.1705 -0.2253
79983W        W22921  16.414  26.409  30.037  0.2279  0.0368  0.3801
79984W        W22922  15.964  27.744  30.139  0.1525  0.0053  0.1494
79985W        W22923  16.056  29.392  30.195  0.1392  0.0288  0.1200
79986W        W22924  17.536  28.226  30.467  0.1608 -0.1933 -0.1751
79987W        W22925  17.547  27.281  28.789  0.3452  0.2505  0.1702
79988W        W22926  16.368  26.039  30.414  0.1214  0.0286  0.4580
79989W        W22927  14.347  25.309  27.387 -0.2078  0.1040 -0.2449
79990W        W22928  15.526  29.875  28.856 -0.0661  0.3786  0.1575
79991W        W22929  15.454  26.436  28.035  0.0381  0.1265  0.2913
79992W        W22930  15.723  24.848  27.985 -0.1277 -0.2246 -0.0738
79993W        W22931  15.609  29.213  29.811 -0.0826 -0.1800 -0.1053
79994W        W22932  16.415  27.481  27.782  0.1885 -0.0525  0.0141
79995W        W22933  18.055  26.901  30.005 -0.1119  0.0071 -0.1165
79996W        W22934  15.322  28.844  28.403 -0.1625  0.1481  0.0783
79997W        W22935  18.617  25.615  29.111 -0.3016  0.2265 -0.2660
79998W        W22936  15.086  28.424  29.316 -0.1542  0.0907  0.2540
79999W        W22937  14.406  27.720  26.906  0.4112  0.2351 -0.1402
80000W        W22938  14.696  27.620  28.200 -0.2105 -0.0006  0.3269
80001W        W22939  17.724  25.906  28.488 -0.1980  0.0185  0.1272
80002W        W22940  18.464  27.527  27.567 -0.0358  0.0601  0.0620
80003W        W22941  16.383  26.519  29.149  0.0882 -0.0136 -0.4536
80004W        W22942  17.304  24.491  26.984  0.3417  0.1361 -0.1877
80005W        W22943  14.005  28.241  30.540  0.0775 -0.0488  0.0944
80006W        W22944  16.549  27.914  29.875 -0.0018  0.1536 -0.3206
80007W        W22945  17.755  26.985  26.116  0.0333  0.1275  0.1477
80008W        W22946  16.367  27.310  28.921 -0.0063 -0.2265  0.1322
80009W        W22947  16.518  28.245  28.920  0.1264 -0.2399  0.0634
80010W        W22948  13.911  28.258  27.842 -0.2805 -0.0907  0.0440
80011W        W22949  18.033  27.753  29.600 -0.0406  0.2681  0.1607
80012W        W22950  15.204  26.278  29.033 -0.1930 -0.2031 -0.1541
80013W        W22951  15.117  27.029  28.701  0.0666  0.1217 -0.1543
80014W        W22952  16.358  27.735  29.140  0.2512 -0.1970 -0.0716
80015W        W22953  17.134  26.930  26.827 -0.2424 -0.2204  0.1416
80016W        W22954  16.041  27.986  28.115 -0.0721  0.2416 -0.3038
80017W        W22955  16.659  28.621  30.237  0.0113  0.3582 -0.2476
80018W        W22956  18.560  25.983  29.735 -0.0884  0.0487 -0.0349
80019W        W22957  15.327  25.641  27.927 -0.2276 -0.0511 -0.1867
80020W        W22958  14.984  25.625  28.350  0.2316 -0.2359 -0.0810
80021W        W22959  17.076  27.119  28.738  0.5877 -0.1010  0.0295
80022W        W22960  16.780  29.320  30.766 -0.0495 -0.0545 -0.3875
80023W        W22961  16.236  23.196  28.203  0.0790  0.0366  0.1376
80024W        W22962  16.926  27.927  31.000  0.1155 -0.0741 -0.1592
80025W        W22963  15.096  24.737  27.502 -0.0005 -0.1676  0.1862
80026W        W22964  18.223  27.302  28.463 -0.0155  0.1942  0.0141
80027W        W22965  17.679  26.720  29.612 -0.0211 -0.0109 -0.2555
80028W        W22966  16.059  27.171  26.233 -0.1353 -0.1112 -0.0431
80029W        W22967  14.280  27.917  29.198 -0.1554  0.2595 -0.2255
80030W        W22968  16.890  27.640  28.625 -0.2794  0.0051  0.3406
80031W        W22969  15.879  25.283  28.609 -0.0788 -0.1438 -0.2006
80032W        W22970  15.661  28.341  29.510 -0.1033 -0.2526  0.0074
80033W        W22971  15.799  28.561  27.589 -0.0473  0.2036  0.0506
80034W        W22972  15.341  28.811  31.480 -0.1818  0.1739  0.0801
80035W        W22973  18.111  26.953  28.081 -0.0061 -0.0710  0.3774
80036W        W22974  17.016  28.896  28.495  0.1223 -0.0352  0.1591
80037W        W22975  17.449  25.221  26.739 -0.0918  0.1432  0.1565
80038W        W22976  18.524  25.308  28.412 -0.0602  0.0652 -0.0169
80039W        W22977  16.955  26.352  27.153  0.1728 -0.3052  0.0380
80040W        W22978  16.979  26.790  31.129  0.0185  0.4151 -0.0815
80041W        W22979  16.264  25.136  28.126 -0.0729 -0.3421 -0.0844
80042W        W22980  17.399  28.338  27.903  0.2696  0.0084 -0.2229
80043W        W22981  15.989  26.667  30.936 -0.2633  0.0630 -0.0188
80044W        W22982  16.562  28.372  30.907  0.0155 -0.1163 -0.2741
80045W        W22983  15.893  27.415  29.709  0.2694 -0.1868 -0.0939
80046W        W22984  16.855  26.424  27.627 -0.1233 -0.0660 -0.2125
80047W        W22985  14.978  25.174  26.812 -0.0263 -0.0113  0.0580
80048W        W22986  15.857  27.435  29.150  0.0702  0.0969 -0.0018
80049W        W22987  17.856  28.584  30.175  0.1183 -0.0575  0.1268
80050W        W22988  16.842  26.689  28.238  0.1659  0.0670 -0.2143
80051W        W22989  18.697  27.071  28.632  0.2022 -0.0429  0.2214
80052W        W22990  15.104  27.724  30.118  0.1274 -0.3111  0.2929
80053W        W22991  17.163  27.530  29.628 -0.2101  0.4105  0.1013
80054W        W22992  17.365  26.656  27.243 -0.0318  0.2074 -0.2658
80055W        W22993  16.685  27.283  27.375 -0.1015 -0.2361  0.4189
80056W        W22994  16.343  25.242  28.616  0.1491 -0.1266  0.1064
80057W        W22995  17.477  28.269  29.970 -0.2909 -0.3308  0.0978
80058W        W22996  16.403  26.200  28.714 -0.0536  0.0890  0.0254
80059W        W22997  17.402  26.751  28.784  0.2733  0.3313  0.1383
80060W        W22998  16.778  24.424  28.583 -0.4260  0.0209  0.1013
80061W        W22999  15.879  25.134  31.003 -0.1670  0.3956  0.0110
80062W        W23000  16.699  26.905  30.775  0.0474  0.1079 -0.0746
80063W        W23001  17.834  28.955  29.765 -0.0495  0.0692  0.3305
80064W        W23002  19.685  26.981  25.925 -0.2325  0.1217  0.1249
80065W        W23003  17.828  26.862  29.006 -0.0572 -0.0870 -0.2728
80066W        W23004  17.891  27.624  27.942  0.1752  0.1140  0.0050
80067W        W23005  17.470  25.724  27.820  0.3761  0.5670 -0.0844
80068W        W23006  15.249  26.114  28.569 -0.0147 -0.2226 -0.1434
80069W        W23007  17.334  26.520  29.276  0.3287 -0.1265 -0.1167
80070W        W23008  15.662  27.578  27.002  0.1399 -0.3377 -0.0649
80071W        W23009  17.646  25.423  28.229 -0.2742 -0.0155 -0.3830
80072W        W23010  16.011  28.197  29.928 -0.0436 -0.0974 -0.0479
80073W        W23011  16.834  28.154  28.512 -0.0719 -0.1154 -0.0029
80074W        W23012  17.830  27.655  28.631  0.1584  0.0739 -0.0933
80075W        W23013  15.555  25.098  27.525 -0.1226  0.1442  0.3438
80076W        W23014  14.712  29.928  31.406 -0.3487 -0.3037  0.3018
80077W        W23015  14.376  27.648  27.810 -0.1700  0.2864  0.0577
80078W        W23016  16.296  27.450  26.644  0.1715 -0.0358 -0.0685
80079W        W23017  16.331  27.375  29.492  0.1827  0.1084  0.1341
80080W        W23018  18.651  27.264  29.597  0.1087 -0.0728  0.2248
80081W        W23019  17.184  24.840  27.290  0.0910 -0.0673 -0.2646
80082W        W23020  17.613  25.912  29.251 -0.0626 -0.2626 -0.1491
80083W        W23021  15.776  28.708  28.569  0.1562  0.0507  0.0235
80084W        W23022  17.454  26.045  27.343  0.1947 -0.1376  0.3249
80085W        W23023  16.584  28.149  29.445 -0.0253 -0.0780 -0.0509
80086W        W23024  15.068  26.985  31.243  0.2464 -0.0481 -0.0223
80087W        W23025  16.654  29.209  28.372  0.2747 -0.1672 -0.0278
80088W        W23026  16.550  26.889  29.428 -0.0087  0.2718 -0.0409
80089W        W23027  17.761  26.901  28.513  0.3673  0.0302  0.2813
80090W        W23028  16.822  27.231  29.190 -0.1285 -0.1218 -0.2041
80091W        W23029  18.264  25.559  29.815  0.1709 -0.0846 -0.0673
80092W        W23030  18.081  28.771  31.086  0.0054 -0.0904 -0.2816
80093W        W23031  16.083  26.940  29.172 -0.1314  0.1238  0.2681
80094W        W23032  16.094  29.581  31.718 -0.0094 -0.2047 -0.1170
80095W        W23033  17.548  27.898  27.156  0.2384  0.0596  0.2994
80096W        W23034  15.125  28.423  28.069 -0.2372 -0.2795  0.2471
80097W        W23035  14.993  26.788  29.785 -0.1320  0.1386  0.2068
80098W        W23036  16.590  26.435  31.139 -0.1927  0.0693  0.1796
80099W        W23037  16.148  28.385  29.475 -0.4161  0.1729  0.0019
80100W        W23038  16.993  24.281  26.634 -0.0213  0.1142 -0.1582
80101W        W23039  16.560  27.225  26.343 -0.1268  0.0571  0.0490
80102W        W23040  15.353  26.930  30.136 -0.1040 -0.0233 -0.2499
80103W        W23041  14.585  26.410  29.864  0.4957 -0.0409 -0.3848
80104W        W23042  14.783  29.831  27.313 -0.0463 -0.1212 -0.0211
80105W        W23043  16.933  27.500  27.931  0.0128 -0.2385 -0.1130
80106W        W23044  17.303  28.699  27.551 -0.1215 -0.0426 -0.3027
80107W        W23045  17.437  29.196  29.374 -0.0420  0.2600  0.1460
80108W        W23046  16.673  24.254  27.512 -0.0364  0.1130 -0.4365
80109W        W23047  16.120  28.570  28.895  0.0244  0.1046 -0.1082
80110W        W23048  15.765  29.223  27.794 -0.0700 -0.1293  0.3002
80111W        W23049  16.964  29.892  29.231  0.1548  0.3535  0.1623
80112W        W23050  16.013  29.611  29.032 -0.2772 -0.2748  0.0712
80113W        W23051  17.523  28.703  30.586 -0.0393  0.1144  0.0787
80114W        W23052  17.725  25.112  25.251 -0.2315 -0.2068  0.1136
80115W        W23053  17.601  26.866  28.046 -0.2450  0.1417 -0.2382
80116W        W23054  17.709  26.963  27.462  0.2554 -0.0175 -0.1689
80117W        W23055  17.900  28.155  31.387 -0.0949 -0.1893 -0.1799
80118W        W23056  16.568  25.892  28.295 -0.0780  0.1187  0.0786
80119W        W23057  16.966  26.159  28.045  0.1802 -0.2085  0.2269
80120W        W23058  15.921  26.160  28.525 -0.1482  0.1351  0.0728
80121W        W23059  19.542  25.716  28.424 -0.1723 -0.2992  0.0253
80122W        W23060  15.460  29.292  31.242 -0.1300  0.0764  0.1300
80123W        W23061  17.158  28.297  29.305 -0.2582  0.2332 -0.1247
80124W        W23062  14.149  26.995  28.677  0.1402 -0.3264 -0.3066
80125W        W23063  15.814  25.367  28.030 -0.5136 -0.0340 -0.2985
80126W        W23064  16.741  25.322  28.906 -0.0456 -0.0974  0.0311
80127W        W23065  17.222  27.236  27.393  0.0037 -0.0029 -0.0349
80128W        W23066  15.876  27.157  28.711 -0.2702 -0.1409 -0.2369
80129W        W23067  15.744  29.692  29.695 -0.2100  0.0345 -0.1428
80130W        W23068  16.220  28.872  29.453  0.1116  0.2756  0.1144
80131W        W23069  16.286  30.727  28.874 -0.1781  0.2359  0.0448
80132W        W23070  15.042  24.819  28.275  0.1914  0.3036 -0.0718
80133W        W23071  17.832  24.380  26.982  0.1641  0.0975 -0.2747
80134W        W23072  15.661  27.655  27.911 -0.1064  0.0291 -0.3743
80135W        W23073  17.036  24.878  29.086  0.1148 -0.5218  0.1035
80136W        W23074  15.908  24.880  28.986  0.2853 -0.2825  0.1506
80137W        W23075  18.026  27.051  29.447 -0.1790  0.0085 -0.0119
80138W        W23076  16.296  26.961  28.141 -0.0764  0.3674  0.2185
80139W        W23077  15.426  25.815  29.211  0.3009 -0.2168 -0.0849
80140W        W23078  16.165  26.281  26.705  0.3056 -0.1483  0.1172
80141W        W23079  18.793  26.804  31.333 -0.1396  0.4601 -0.0770
80142W        W23080  16.485  25.332  26.708 -0.0771  0.0581  0.2553
80143W        W23081  17.860  28.849   0.403 -0.0184 -0.1683  0.1147
80144W        W23082  16.406  25.584  27.865 -0.0837  0.0427  0.5266
80145W        W23083  18.777  24.930  28.021 -0.2368 -0.1000 -0.1570
80146W        W23084  15.585  28.318  29.007  0.0402  0.0449 -0.0139
80147W        W23085  15.418  26.089  29.667 -0.0415 -0.2453 -0.0513
80148W        W23086  16.207  29.526  30.689 -0.1534  0.0350 -0.1999
80149W        W23087  15.082  26.506  27.654 -0.1923  0.2086 -0.0705
80150W        W23088  19.270  27.566  27.414 -0.2630  0.0188  0.0850
80151W        W23089  18.699  25.987  28.308 -0.0525  0.2164 -0.3109
80152W        W23090  16.876  28.787  27.216 -0.1250 -0.2448 -0.0278
80153W        W23091  18.822  27.765  27.816  0.0197  0.3891 -0.1903
80154W        W23092  17.940  28.393  30.697 -0.3538  0.0282 -0.3412
80155W        W23093  14.748  26.969  29.021  0.0488  0.0220 -0.0921
80156W        W23094  17.892  29.338  29.481 -0.1377 -0.1439  0.0953
80157W        W23095  18.892  28.033  29.348  0.2669  0.0330  0.0484
80158W        W23096  18.158  25.601  26.408  0.0095 -0.1285  0.1706
80159W        W23097  15.936  26.879  27.777  0.3231 -0.1266 -0.1392
80160W        W23098  15.106  27.892  28.586  0.4054  0.3429  0.0466
80161W        W23099  19.001  25.586  28.534  0.0431  0.0885  0.0601
80162W        W23100  16.972  26.302  28.549  0.0134  0.0790  0.2379
80163W        W23101  16.320  28.288  28.419 -0.0221  0.0944  0.2352
80164W        W23102  18.557  24.276  29.483  0.1740 -0.0502 -0.1405
80165W        W23103  16.916  29.207  31.253 -0.0903  0.5339 -0.1260
80166W        W23104  15.040  27.912  30.742 -0.2120 -0.0464  0.2054
80167W        W23105  14.870  27.584  26.732 -0.3847 -0.3616  0.2535
80168W        W23106  15.800  29.177  30.818  0.4450  0.2105  0.0674
80169W        W23107  16.082  26.236  27.685 -0.0442 -0.2519  0.0868
80170W        W23108  16.682  29.563  28.942 -0.0072  0.1869 -0.0265
80171W        W23109  18.106  28.944  28.409  0.1222 -0.0876  0.0529
80172W        W23110  18.005  27.779  29.071 -0.0572  0.2247 -0.4041
80173W        W23111  18.201  28.241  28.833  0.0942  0.1497 -0.0781
80174W        W23112  15.732  25.766  27.184  0.1972 -0.1838  0.0779
80175W        W23113  18.625  24.692  26.453 -0.0579  0.0491 -0.0388
80176W        W23114  18.651  24.959  27.200 -0.1793  0.2554 -0.1017
80177W        W23115  15.763  28.720  29.206  0.1580  0.2581 -0.1108
80178W        W23116  14.985  26.272  28.129  0.0318  0.0437  0.1908
80179W        W23117  14.395  29.133  26.975  0.2621  0.1356  0.1463
80180W        W23118  14.871  27.457  28.794 -0.2042 -0.1780  0.0383
80181W        W23119  16.451  25.047  29.291 -0.3108 -0.0487 -0.1155
80182W        W23120  16.532  25.624  29.301 -0.1386 -0.0362 -0.2257
80183W        W23121  14.560  28.452  29.152  0.0009 -0.1581  0.0102
80184W        W23122  14.655  24.615  28.046  0.0293 -0.0982 -0.1044
80185W        W23123  18.118  27.184  27.683 -0.4491 -0.0662 -0.0631
80186W        W23124  16.931  25.694  27.926 -0.0496 -0.2264  0.0210
80187W        W23125  15.884  26.625  28.767  0.1183  0.0586  0.0063
80188W        W23126  17.523  27.936  28.211 -0.1379 -0.1312  0.1615
80189W        W23127  18.717  26.872  27.353  0.0816  0.0013 -0.0966
80190W        W23128  17.279  25.079  28.079  0.1479  0.1605 -0.3796
80191W        W23129  17.827  27.337  30.290 -0.0534  0.0181  0.2575
80192W        W23130  16.255  28.132  26.865 -0.0204  0.2540  0.0530
80193W        W23131  16.284  24.360  30.482 -0.1321 -0.4166 -0.0157
80194W        W23132  16.496  25.264  29.774 -0.1942 -0.0661  0.1330
80195W        W23133  16.445  26.564  26.361  0.1434  0.1081 -0.3143
80196W        W23134  16.731  26.150  29.038 -0.0673  0.3402 -0.1172
80197W        W23135  17.338  28.886  28.041  0.0709  0.2928 -0.0035
80198W        W23136  16.569  29.653  27.265  0.1534 -0.0679  0.3167
80199W        W23137  15.153  28.182  30.326 -0.3133  0.1891 -0.3366
80200W        W23138  17.795  30.488  31.629 -0.2490  0.1457 -0.0565
80201W        W23139  14.372  25.149  30.654 -0.0990  0.3157  0.0965
80202W        W23140  16.070  27.349  28.335  0.1183  0.0681 -0.4755
80203W        W23141  15.114  28.487  30.887  0.0189  0.2771  0.2864
80204W        W23142  17.926  28.273  29.284 -0.1690 -0.1176 -0.3003
80205W        W23143  18.651  25.914  27.607  0.2616  0.1629 -0.1029
80206W        W23144  16.565  26.052  27.766 -0.1379 -0.0457  0.4106
80207W        W23145  15.424  25.524  29.597  0.0626 -0.3462  0.0075
80208W        W23146  14.966  29.165  31.362 -0.2672  0.0944 -0.3087
80209W        W23147  18.249  26.788  28.623 -0.0313 -0.0918 -0.3507
80210W        W23148  16.758  25.494  27.508 -0.2105  0.1103  0.2018
80211W        W23149  15.867  25.866  27.988 -0.0619 -0.1312 -0.1982
80212W        W23150  17.473  27.883  27.683 -0.0791 -0.0335 -0.1003
80213W        W23151  15.692  26.549  29.295  0.0982 -0.3392 -0.3298
80214W        W23152  18.242  26.708  26.899 -0.1418 -0.3534  0.1836
80215W        W23153  16.787  26.535  29.726 -0.1015  0.1979 -0.1316
80216W        W23154  16.623  28.620  29.385  0.0246 -0.0510  0.2455
80217W        W23155  17.143  27.998  30.225  0.2101  0.2124  0.3056
80218W        W23156  14.612  27.050  28.521 -0.1256  0.5021 -0.0350
80219W        W23157  19.307  27.645  27.921  0.2923 -0.4265  0.3959
80220W        W23158  17.290  29.323  30.459  0.3215 -0.0384  0.3880
80221W        W23159  18.732  28.688  31.863  0.0189  0.2276 -0.2224
80222W        W23160  16.282  30.993  29.734  0.0147 -0.0742  0.2305
80223W        W23161  17.127  28.504  30.346 -0.1411 -0.0608  0.0336
80224W        W23162  14.344  23.657  28.428 -0.1965 -0.0732  0.1974
80225W        W23163  15.970  27.346  27.494  0.2882 -0.2844  0.0478
80226W        W23164  16.672  27.867  27.640 -0.2375  0.0747  0.2352
80227W        W23165  17.056  26.912  29.529  0.0997 -0.1396  0.1520
80228W        W23166  15.894  25.244  27.161 -0.0149  0.0439 -0.1238
80229W        W23167  17.703  25.607  27.307  0.2974 -0.1542 -0.1095
80230W        W23168  16.287  28.566  29.922 -0.1478  0.1420  0.0671
80231W        W23169  16.924  27.579  30.040 -0.0093 -0.0095 -0.0832
80232W        W23170  17.159  26.836  30.549  0.2607  0.0684 -0.1086
80233W        W23171  17.681  26.661  30.707 -0.2125  0.2789 -0.2464
80234W        W23172  14.275  26.345  29.384  0.1363  0.0402  0.1199
80235W        W23173  16.261  28.685  30.679 -0.0938 -0.4162 -0.0325
80236W        W23174  16.711  27.921  31.820 -0.2618 -0.3943  0.3329
80237W        W23175  16.123  27.614  31.115 -0.2065 -0.0232 -0.1207
80238W        W23176  16.558  25.569  30.598 -0.0013  0.0157  0.1664
80239W        W23177  15.839  25.624  30.833  0.0204 -0.0046  0.2188
80240W        W23178  17.654  24.504  30.430 -0.3539 -0.2203 -0.5447
80241W        W23179  18.042  26.981  30.485  0.0609 -0.1794  0.2987
80242W        W23180  16.711  27.221  29.789 -0.5714  0.1802  0.1566
80243W        W23181  15.211  24.421  31.836  0.3468 -0.1894 -0.0405
80244W        W23182  16.050  28.854  30.284 -0.1699 -0.1270  0.2420
80245W        W23183  16.344  25.848  29.941  0.0793  0.1282 -0.1458
80246W        W23184  17.563  26.884  30.190  0.4158 -0.0640  0.1074
80247W        W23185  15.554  28.739  31.914  0.0575  0.0960 -0.1717
80248W        W23186  14.578  26.594  30.660  0.2841 -0.1397  0.0957
80249W        W23187  18.549  26.794  30.683  0.1392 -0.1113  0.2409
80250W        W23188  15.531  25.269  31.368  0.0735  0.3672 -0.0665
80251W        W23189  16.292  24.932   0.282 -0.1915  0.1571 -0.2372
80252W        W23190  15.744  26.192  29.979 -0.2918  0.0352  0.1285
80253W        W23191  14.652  27.221  31.372 -0.3439  0.0201 -0.1259
80254W        W23192  20.285  25.513  31.375  0.1911 -0.0111 -0.1739
80255W        W23193  17.699  25.552  30.445  0.2136  0.4308  0.1388
80256W        W23194  16.196  24.585  29.420  0.1871  0.0798 -0.1463
80257W        W23195  16.085  26.420  29.586  0.2466 -0.0375 -0.2926
80258W        W23196  17.023  26.185  29.435  0.1212 -0.1226 -0.0665
80259W        W23197  15.681  28.492  31.139 -0.0692  0.0624  0.1236
80260W        W23198  14.244  25.352  29.391 -0.1405  0.0374 -0.0903
80261W        W23199  14.344  27.795  31.865 -0.3625  0.1675  0.1495
80262W        W23200  17.239  28.855  31.430 -0.2238 -0.0962 -0.1000
80263W        W23201  15.254  25.730  30.030 -0.0713  0.1813 -0.1524
80264W        W23202  16.802  28.743  30.694  0.2278  0.1239  0.3555
80265W        W23203  16.693  24.548  30.194  0.0352  0.0928 -0.3858
80266W        W23204  15.021  24.528  29.205  0.1931  0.1410 -0.0585
80267W        W23205  16.019  28.281  30.836 -0.1808  0.0340 -0.0075
80268W        W23206  15.497  27.071  31.673  0.0874  0.2867  0.1003
80269W        W23207  15.905  27.123  30.120  0.1010 -0.3012  0.0399
80270W        W23208  16.246  27.365  30.541 -0.2158  0.1267 -0.1255
80271W        W23209  17.045  28.101  29.759  0.3095  0.0010 -0.0619
80272W        W23210  18.653  25.640  30.192  0.0945  0.0925  0.1137
80273W        W23211  17.928  23.958  30.953  0.1905 -0.0036 -0.2364
80274W        W23212  15.176  24.946  30.405  0.0675 -0.0603 -0.0614
80275W        W23213  17.075  26.994  30.051 -0.0749  0.0803 -0.0175
80276W        W23214  14.691  27.075  30.840  0.1185 -0.3972  0.2383
80277W        W23215  16.419  26.886  29.985 -0.1034 -0.0764 -0.0011
80278W        W23216  16.249  24.771  30.763 -0.1714  0.0516  0.0311
80279W        W23217  16.224  28.135  31.256 -0.2113 -0.1314 -0.1270
80280W        W23218  16.619  27.423  30.941 -0.0828 -0.0823  0.0466
80281W        W23219  15.015  27.391  30.931  0.1676 -0.0565 -0.3208
80282W        W23220  17.121  27.226  30.857  0.1253  0.5279 -0.2810
80283W        W23221  18.279  26.503  30.367 -0.2217 -0.0784  0.2646
80284W        W23222  18.838  24.510   0.191  0.1480 -0.0879  0.1854
80285W        W23223  15.521  27.843  30.388 -0.0399  0.1819 -0.1152
80286W        W23224  16.292  24.754  29.949  0.0930 -0.1185  0.0115
80287W        W23225  17.436  25.384  29.145 -0.2056  0.3646  0.2879
80288W        W23226  17.854  27.687  31.362 -0.0796 -0.3135  0.0648
80289W        W23227  15.642  28.661  30.578  0.0978 -0.0178  0.1285
80290W        W23228  15.384  28.902  30.990  0.0491  0.0439  0.2075
80291W        W23229  14.771  25.479  29.077  0.2766  0.0387 -0.2446
80292W        W23230  15.183  26.873  30.762  0.2129 -0.0533  0.0274
80293W        W23231  15.515  27.411  30.019 -0.1902 -0.0290 -0.2301
80294W        W23232  15.729  26.905  30.534 -0.0535 -0.0014 -0.1659
80295W        W23233  15.684  25.386  30.418  0.1635  0.0527  0.3296
80296W        W23234  17.914  27.808  30.903 -0.5316  0.0313 -0.3093
80297W        W23235  17.972  28.070  31.934 -0.3870  0.2911 -0.0367
80298W        W23236  16.854  26.175  30.125  0.1569  0.2209 -0.2238
80299W        W23237  15.795  31.292  18.660 -0.0138 -0.0325 -0.0673
80300W        W23238  13.661  29.033  18.346 -0.0719  0.1866  0.0818
80301W        W23239  18.907  29.555  17.072 -0.3119  0.0097  0.0177
80302W        W23240  17.171  31.147  16.792 -0.1741 -0.0055 -0.2309
80303W        W23241  14.007  28.557  16.640  0.0017  0.1006 -0.2320
80304W        W23242  18.351  32.242  16.903 -0.0032  0.1944  0.0201
80305W        W23243  16.010  29.337  19.048 -0.0014 -0.2272  0.1579
80306W        W23244  18.154  30.370  17.746 -0.0925  0.0573  0.2357
80307W        W23245  19.473  31.126  18.140  0.1310  0.1525  0.0416
80308W        W23246  16.411  31.303  17.740 -0.1747 -0.0046 -0.2294
80309W        W23247  16.920  29.774  18.234 -0.1339 -0.0706  0.3565
80310W        W23248  15.603  33.098  19.491 -0.2432 -0.2275  0.1504
80311W        W23249  15.505  28.106  16.459  0.2561 -0.2536 -0.1931
80312W        W23250  14.697  28.613  16.738 -0.0685 -0.2864 -0.2078
80313W        W23251  17.049  32.567  18.157  0.0334  0.0633  0.0877
80314W        W23252  14.654  31.636  17.311  0.0555 -0.0693 -0.0861
80315W        W23253  14.583  29.191  18.560  0.0387  0.0636  0.2788
80316W        W23254  15.346  30.275  16.640 -0.0175 -0.1742 -0.0551
80317W        W23255  16.106  30.999  17.159 -0.2604 -0.1101  0.0965
80318W        W23256  16.444  29.874  17.574 -0.0122  0.2964  0.3647
80319W        W23257  16.790  29.554  20.973  0.0439 -0.3227  0.2308
80320W        W23258  16.444  30.766  18.374 -0.3102 -0.2320 -0.0570
80321W        W23259  14.376  30.462  15.798 -0.3983  0.0476  0.0518
80322W        W23260  14.501  30.816  17.546  0.4022  0.6086 -0.2067
80323W        W23261  14.043  30.680  19.814 -0.2902 -0.4405 -0.1148
80324W        W23262  17.828  30.158  17.379 -0.2078 -0.0494 -0.2103
80325W        W23263  18.237  29.910  17.541  0.1231 -0.0403 -0.2900
80326W        W23264  15.271  30.905  17.551  0.1562  0.0365  0.1810
80327W        W23265  16.039  29.814  18.611  0.0158 -0.1470  0.0439
80328W        W23266  17.112  30.549  19.278  0.1837 -0.3334 -0.2516
80329W        W23267  14.048  29.947  18.027  0.1823 -0.1018  0.1297
80330W        W23268  14.050  31.015  16.995 -0.0025 -0.3378  0.1822
80331W        W23269  15.906  32.355  16.258  0.0243  0.2580  0.1056
80332W        W23270  18.892  31.075  16.251  0.1215 -0.1802 -0.0063
80333W        W23271  16.756  30.960  17.994  0.0877  0.3358 -0.0422
80334W        W23272  16.243  33.289  19.311  0.0289  0.0195 -0.1454
80335W        W23273  14.407  31.365  16.057 -0.3352 -0.1902  0.0414
80336W        W23274  16.284  32.811  18.774  0.0845 -0.0800 -0.3839
80337W        W23275  15.414  32.679  19.218 -0.1405  0.0672  0.0974
80338W        W23276  16.993  30.698  18.600  0.4711  0.1899 -0.0243
80339W        W23277  15.704  29.515  17.846  0.3333 -0.5060  0.2951
80340W        W23278  14.779  30.762  16.737  0.0224  0.0401  0.2125
80341W        W23279  13.467  31.076  16.974  0.0638 -0.0357 -0.2847
80342W        W23280  14.964  32.418  19.080  0.0603  0.1430 -0.1861
80343W        W23281  15.469  32.531  17.447  0.1390  0.4793 -0.1207
80344W        W23282  16.913  28.833  18.890 -0.1654 -0.0685 -0.1763
80345W        W23283  14.798  31.240  16.552  0.0190 -0.1237  0.1765
80346W        W23284  17.131  29.352  17.419 -0.1230  0.0823 -0.1218
80347W        W23285  16.557  29.575  16.032  0.1106 -0.2044 -0.0583
80348W        W23286  19.035  29.762  16.560  0.1263 -0.2852  0.1657
80349W        W23287  16.943  28.927  17.112 -0.1402  0.0311  0.0048
80350W        W23288  15.675  31.645  16.085 -0.1682  0.1764 -0.1839
80351W        W23289  16.332  30.236  18.564  0.2112 -0.0697 -0.0186
80352W        W23290  18.220  30.844  18.216  0.2418 -0.0282  0.0448
80353W        W23291  17.684  30.713  17.281 -0.4144  0.0765 -0.1780
80354W        W23292  17.045  29.202  18.070  0.0536 -0.2472  0.1781
80355W        W23293  14.280  31.232  17.379  0.0476  0.0306 -0.0278
80356W        W23294  13.368  30.145  17.362  0.1551  0.1423 -0.0410
80357W        W23295  17.535  31.596  15.748  0.1268 -0.1298  0.2324
80358W        W23296  17.802  30.377  16.396  0.2055 -0.2383 -0.0619
80359W        W23297  16.476  33.315  15.787  0.1637 -0.3227  0.0909
80360W        W23298  13.461  30.555  17.652  0.2141 -0.1477  0.0527
80361W        W23299  14.944  31.716  18.003 -0.1692 -0.1181 -0.0309
80362W        W23300  13.819  30.861  17.763  0.1072  0.2881 -0.0353
80363W        W23301  15.525  29.826  16.629 -0.0003  0.0002 -0.4360
80364W        W23302  17.842  32.030  19.140  0.1611 -0.2428 -0.0701
80365W        W23303  14.709  32.099  17.456  0.4890  0.2306  0.1292
80366W        W23304  17.834  30.462  16.907  0.4272 -0.2744 -0.1827
80367W        W23305  15.135  29.154  17.792  0.1098  0.3713  0.2801
80368W        W23306  18.554  29.123  17.862  0.1227  0.1888  0.1821
80369W        W23307  18.418  31.147  16.318  0.0863 -0.0444  0.1472
80370W        W23308  15.354  30.379  17.464  0.0378 -0.0242  0.1447
80371W        W23309  15.508  28.630  17.319  0.1645 -0.1101  0.3828
80372W        W23310  14.104  29.726  17.594  0.2887 -0.1590  0.2221
80373W        W23311  16.004  30.814  16.134  0.0231  0.1164  0.4066
80374W        W23312  17.103  32.188  18.565  0.2730  0.2100  0.1577
80375W        W23313  17.547  29.395  17.006 -0.0570  0.1958  0.2456
80376W        W23314  15.944  32.626  17.541 -0.2160 -0.1350  0.1553
80377W        W23315  16.561  29.416  19.551 -0.1051  0.0054 -0.2945
80378W        W23316  16.022  31.058  19.638 -0.2877  0.5285  0.3167
80379W        W23317  15.138  31.292  15.690  0.1118 -0.0154  0.3821
80380W        W23318  14.554  30.582  17.134  0.0454  0.0916  0.0161
80381W        W23319  15.564  32.131  15.946 -0.2520  0.0427  0.1864
80382W        W23320  13.713  30.052  18.451  0.0242  0.0334  0.0352
80383W        W23321  16.835  31.648  18.586  0.1374 -0.2662 -0.0891
80384W        W23322  16.331  30.195  16.797 -0.0046  0.0878 -0.2464
80385W        W23323  14.846  29.928  18.208 -0.3382  0.0402 -0.3206
80386W        W23324  16.788  28.825  18.326 -0.2396 -0.1895  0.0408
80387W        W23325  14.411  30.184  17.404  0.1080  0.1059 -0.1571
80388W        W23326  18.151  31.278  17.082 -0.0352 -0.1337  0.0503
80389W        W23327  18.720  30.448  16.917  0.0560  0.1041 -0.1997
80390W        W23328  17.867  30.398  15.905 -0.0165  0.0843 -0.0132
80391W        W23329  13.412  31.203  18.452  0.0430  0.0202 -0.2390
80392W        W23330  14.073  29.352  18.570  0.0947  0.2277  0.0219
80393W        W23331  16.761  30.220  18.952 -0.0130 -0.0496  0.0907
80394W        W23332  13.279  29.621  18.093  0.3430 -0.2127  0.0379
80395W        W23333  17.633  29.095  19.539  0.1713 -0.3548 -0.1966
80396W        W23334  15.639  29.534  17.039 -0.1065  0.0053 -0.1120
80397W        W23335  17.856  29.216  18.575 -0.0463 -0.0014  0.1214
80398W        W23336  16.860  31.350  17.405  0.0523 -0.0463 -0.3303
80399W        W23337  14.118  32.258  16.206  0.1497  0.1053 -0.1754
80400W        W23338  16.961  29.621  18.728 -0.0667 -0.3530 -0.1227
80401W        W23339  16.765  32.453  16.581 -0.1186 -0.0217  0.1195
80402W        W23340  17.252  32.690  18.755 -0.0590  0.1539 -0.1177
80403W        W23341  17.250  31.805  16.165  0.1518  0.0409  0.2130
80404W        W23342  14.428  29.413  17.972  0.2068 -0.0785  0.2973
80405W        W23343  15.162  28.827  16.810 -0.2612 -0.4699  0.0176
80406W        W23344  15.057  33.322  16.477  0.2322  0.1161  0.1031
80407W        W23345  14.847  30.164  17.141 -0.0009  0.2101 -0.3359
80408W        W23346  15.011  29.452  16.425  0.0845 -0.1051  0.0666
80409W        W23347  17.344  31.114  17.395 -0.0622 -0.2285 -0.0208
80410W        W23348  15.585  31.069  17.072  0.5214  0.0170  0.4582
80411W        W23349  15.710  30.880  19.234 -0.0361  0.0236 -0.1247
80412W        W23350  16.657  27.985  20.633 -0.1826 -0.1755 -0.2883
80413W        W23351  19.756  31.496  18.864 -0.0111  0.0925 -0.5649
80414W        W23352  17.453  30.703  16.669  0.2389 -0.0356  0.3396
80415W        W23353  14.022  28.534  17.172  0.1862 -0.0837 -0.0041
80416W        W23354  16.438  32.166  17.603 -0.1421 -0.3550  0.0209
80417W        W23355  15.485  32.176  16.444  0.4812 -0.0197  0.0066
80418W        W23356  14.667  30.360  17.795 -0.1975  0.0255  0.0115
80419W        W23357  13.972  30.328  17.597 -0.2510  0.1374  0.1765
80420W        W23358  17.628  28.994  18.197 -0.2208 -0.0662  0.3855
80421W        W23359  14.897  31.181  18.275 -0.1769 -0.1298  0.2215
80422W        W23360  16.294  31.205  18.580 -0.2109 -0.3002  0.0114
80423W        W23361  15.335  31.288  16.152  0.3004  0.1172 -0.0582
80424W        W23362  14.968  32.702  17.312  0.0989 -0.3532 -0.0361
80425W        W23363  16.180  29.123  17.638 -0.2066  0.2075 -0.3800
80426W        W23364  19.072  29.934  16.112  0.0624 -0.3602 -0.3907
80427W        W23365  17.036  31.095  19.909 -0.1602 -0.0447  0.1482
80428W        W23366  17.970  30.875  16.033 -0.2692 -0.0942 -0.0054
80429W        W23367  17.292  29.533  16.502 -0.2111 -0.0685  0.2338
80430W        W23368  16.984  28.685  16.409  0.0234 -0.0080  0.2988
80431W        W23369  14.566  32.124  21.178  0.2500 -0.0630  0.0601
80432W        W23370  15.222  30.618  17.026  0.0765 -0.1344  0.0388
80433W        W23371  16.135  30.433  18.112  0.1989 -0.2476 -0.2208
80434W        W23372  16.906  29.271  15.742  0.0322  0.4052  0.3011
80435W        W23373  19.307  31.438  16.740 -0.2445  0.3010  0.2720
80436W        W23374  15.296  30.800  18.174  0.1766 -0.0146  0.2647
80437W        W23375  16.547  31.261  19.457 -0.0332 -0.0442 -0.0642
80438W        W23376  17.830  31.102  17.557  0.4267 -0.1688  0.2924
80439W        W23377  15.292  29.502  17.472 -0.1700 -0.1901  0.2179
80440W        W23378  17.246  30.398  15.778  0.1562  0.0959  0.2040
80441W        W23379  16.506  28.864  17.880  0.1136 -0.1349  0.0033
80442W        W23380  14.904  33.501  15.710 -0.0822 -0.0795  0.0464
80443W        W23381  17.719  30.007  18.311 -0.1079  0.0899 -0.1551
80444W        W23382  14.910  29.562  17.799  0.0391  0.0490  0.1569
80445W        W23383  16.131  28.009  19.465  0.1184 -0.1377  0.1458
80446W        W23384  17.264  29.572  21.188  0.0800  0.0262  0.2892
80447W        W23385  18.015  29.882  16.084  0.0745  0.3091  0.1852
80448W        W23386  17.278  29.923  16.799  0.1966  0.0169 -0.1188
80449W        W23387  14.537  29.743  16.351 -0.0257 -0.0090 -0.1426
80450W        W23388  16.824  30.056  17.821  0.4129  0.2969  0.2142
80451W        W23389  14.991  30.460  18.371  0.2241 -0.2016 -0.1467
80452W        W23390  13.647  31.334  18.005  0.2289  0.0479 -0.1360
80453W        W23391  16.121  32.303  17.935 -0.2276 -0.1158  0.0286
80454W        W23392  17.006  30.390  16.844  0.1259 -0.0047  0.0270
80455W        W23393  15.134  29.740  20.087  0.3404 -0.1082  0.1774
80456W        W23394  17.031  28.121  17.157  0.2423 -0.1131 -0.3187
80457W        W23395  16.452  31.930  15.720  0.0829  0.1587 -0.0196
80458W        W23396  15.715  31.060  17.858 -0.0473 -0.0835  0.1060
80459W        W23397  16.174  29.591  18.025  0.0777 -0.1015 -0.0751
80460W        W23398  15.389  31.856  19.595 -0.0082  0.3159  0.4359
80461W        W23399  15.717  31.013  16.527 -0.3666 -0.0173  0.0142
80462W        W23400  17.796  31.026  18.099 -0.0263 -0.1209  0.2861
80463W        W23401  15.158  32.089  17.157 -0.2420 -0.0067  0.1725
80464W        W23402  17.429  30.346  17.668  0.0113 -0.0875 -0.3792
80465W        W23403  14.706  32.189  16.950  0.0107  0.1706  0.2819
80466W        W23404  15.618  30.505  16.275  0.1077 -0.2653 -0.0332
80467W        W23405  14.920  30.585  17.427  0.1115  0.2409 -0.2371
80468W        W23406  16.472  29.657  19.069 -0.0382  0.2147  0.0169
80469W        W23407  18.863  31.488  16.535 -0.2857 -0.2133  0.1766
80470W        W23408  13.240  30.377  18.939 -0.1688 -0.0713 -0.1156
80471W        W23409  15.707  30.660  17.252  0.3195 -0.3880 -0.3408
80472W        W23410  15.176  32.901  17.767 -0.1069 -0.3321  0.2428
80473W        W23411  18.510  29.336  17.282 -0.1770 -0.0962  0.0167
80474W        W23412  17.136  28.180  16.251 -0.0360 -0.2382  0.1394
80475W        W23413  18.735  31.934  17.815 -0.1520  0.1745  0.0065
80476W        W23414  15.993  31.252  19.163  0.0501  0.0185 -0.0383
80477W        W23415  14.727  28.383  18.082  0.1487  0.1848 -0.3908
80478W        W23416  17.239  30.130  18.073  0.3769  0.2257  0.1152
80479W        W23417  14.904  31.000  17.178 -0.4785 -0.2562  0.1420
80480W        W23418  15.408  31.685  15.657 -0.0859 -0.1303 -0.3957
80481W        W23419  14.961  31.675  18.507 -0.0273  0.0867 -0.0060
80482W        W23420  15.365  31.302  15.263  0.2012 -0.0810  0.1382
80483W        W23421  14.479  31.648  17.747 -0.3052  0.4370 -0.1405
80484W        W23422  14.846  30.068  18.676  0.1970  0.0416 -0.1475
80485W        W23423  17.007  31.380  18.951 -0.0672  0.1851  0.0847
80486W        W23424  17.200  29.926  17.360  0.2300  0.0013 -0.0341
80487W        W23425  15.410  28.382  16.881 -0.0371  0.1663 -0.0173
80488W        W23426  15.043  28.541  17.209  0.0715  0.1184  0.0848
80489W        W23427  15.985  31.655  17.746  0.3682 -0.4976 -0.0568
80490W        W23428  15.905  29.032  18.033 -0.2100 -0.3589  0.0813
80491W        W23429  15.154  32.568  18.246 -0.1430  0.0504  0.0241
80492W        W23430  16.458  29.220  18.202 -0.1446  0.0005 -0.1600
80493W        W23431  18.504  31.017  16.791  0.0828 -0.1799  0.1157
80494W        W23432  16.842  31.643  19.420 -0.1184 -0.1089 -0.4848
80495W        W23433  14.154  28.875  17.475  0.0772 -0.0616 -0.0030
80496W        W23434  13.774  30.414  18.018 -0.0377 -0.2522  0.3797
80497W        W23435  15.222  30.258  18.023 -0.0621  0.1315  0.2517
80498W        W23436  17.166  30.656  17.277 -0.0372 -0.1035  0.1687
80499W        W23437  15.842  30.326  18.777  0.3468  0.1211  0.2970
80500W        W23438  15.951  30.923  18.282 -0.2142  0.1641 -0.0527
80501W        W23439  15.475  33.045  16.323  0.0007 -0.1280  0.2951
80502W        W23440  18.846  28.715  19.122  0.2364  0.1535 -0.0042
80503W        W23441  16.536  31.410  15.594  0.1018 -0.2451  0.2023
80504W        W23442  17.236  29.970  19.081 -0.0255  0.2295  0.2194
80505W        W23443  16.973  29.599  19.896 -0.0074  0.0700  0.2921
80506W        W23444  18.208  29.698  17.125  0.3480  0.1806 -0.2523
80507W        W23445  15.896  31.023  20.147  0.2252 -0.1056  0.1250
80508W        W23446  15.508  30.172  19.859  0.1364  0.1247 -0.2069
80509W        W23447  18.565  30.460  17.413  0.0249  0.1529  0.1273
80510W        W23448  12.274  29.139  18.229  0.0621 -0.1809  0.3741
80511W        W23449  17.450  33.883  19.536  0.1701  0.0437  0.0115
80512W        W23450  14.321  32.329  20.284  0.1192 -0.0436  0.0832
80513W        W23451  16.744  29.927  16.939  0.1701  0.3245 -0.1628
80514W        W23452  15.857  28.472  16.185  0.1568  0.2411 -0.1201
80515W        W23453  15.506  31.223  19.939 -0.1109 -0.1252  0.0302
80516W        W23454  17.448  30.821  17.757  0.6282 -0.1485  0.2532
80517W        W23455  16.395  31.376  17.241 -0.0771 -0.0123 -0.3129
80518W        W23456  17.687  29.595  17.485 -0.0364  0.1423  0.2072
80519W        W23457  14.559  30.222  19.099  0.0068  0.0626  0.1146
80520W        W23458  18.302  28.881  17.427  0.1995  0.1169  0.2037
80521W        W23459  17.395  28.277  16.762 -0.0839 -0.1826  0.1621
80522W        W23460  15.191  31.415  17.153 -0.0694 -0.1792  0.1378
80523W        W23461  13.785  30.191  19.708 -0.2202  0.1339  0.0728
80524W        W23462  16.684  29.538  17.891 -0.3459 -0.4640 -0.1264
80525W        W23463  16.581  29.362  17.370 -0.1751 -0.3313  0.3910
80526W        W23464  17.082  31.202  19.391 -0.0772  0.0989  0.2973
80527W        W23465  16.741  30.735  20.065 -0.3948  0.1294 -0.3785
80528W        W23466  15.044  30.526  18.977  0.0537 -0.3037 -0.2127
80529W        W23467  13.920  29.032  18.956  0.0689 -0.2857  0.2941
80530W        W23468  16.480  31.558  18.996 -0.4372 -0.1677  0.0365
80531W        W23469  18.464  29.519  16.699 -0.2242 -0.0249 -0.0061
80532W        W23470  17.860  30.689  18.523  0.2974  0.0485 -0.2300
80533W        W23471  18.620  30.678  16.373  0.3433  0.2852  0.1966
80534W        W23472  17.464  29.175  17.791  0.0004  0.1274 -0.0279
80535W        W23473  13.576  31.895  18.236  0.3834 -0.0004  0.0585
80536W        W23474  16.921  29.289  19.155 -0.1586  0.1038  0.0485
80537W        W23475  14.556  29.289  16.155  0.1797 -0.1889 -0.2254
80538W        W23476  17.472  29.695  18.742  0.1649  0.2171 -0.1458
80539W        W23477  16.768  31.650  16.047 -0.2508  0.0919 -0.3015
80540W        W23478  18.769  30.857  17.246 -0.2470 -0.2304 -0.2239
80541W        W23479  17.254  29.112  16.752 -0.2302  0.0462  0.0659
80542W        W23480  13.858  28.978  16.995 -0.2913  0.0420 -0.3854
80543W        W23481  15.064  33.027  19.086  0.0052 -0.0056 -0.2221
80544W        W23482  15.284  29.916  17.107  0.0706  0.0162  0.0833
80545W        W23483  17.431  30.291  17.118 -0.1396 -0.2361  0.0063
80546W        W23484  17.411  30.473  18.861  0.4458 -0.0386  0.0647
80547W        W23485  16.858  29.815  19.428  0.0930 -0.4798  0.2163
80548W        W23486  16.518  28.328  17.117 -0.1794 -0.1640 -0.4411
80549W        W23487  18.249  30.492  20.492  0.4143 -0.0350  0.2139
80550W        W23488  15.941  31.907  18.184 -0.2075  0.1549 -0.0042
80551W        W23489  15.288  29.695  18.106  0.0712  0.0279  0.0770
80552W        W23490  15.069  32.163  17.826 -0.0081 -0.0176  0.1564
80553W        W23491  14.541  30.777  19.103  0.2452  0.1947 -0.2303
80554W        W23492  15.565  31.676  17.090  0.1824  0.0605  0.0103
80555W        W23493  15.339  28.091  17.396  0.4599  0.2293 -0.3152
80556W        W23494  18.708  30.173  17.834  0.0494 -0.2090 -0.2054
80557W        W23495  15.723  29.973  18.215 -0.0972  0.1007 -0.3886
80558W        W23496  17.593  31.376  21.715  0.0893  0.1397 -0.3208
80559W        W23497  16.504  32.003  19.269 -0.3754  0.0766  0.0310
80560W        W23498  15.603  29.554  18.475  0.1581 -0.1625  0.2494
80561W        W23499  16.554  32.435  18.411 -0.1161 -0.2936  0.0360
80562W        W23500  19.039  30.451  18.073  0.1480  0.0302 -0.0097
80563W        W23501  14.423  29.735  18.416  0.0539  0.2407 -0.0047
80564W        W23502  15.287  30.030  18.457  0.3341  0.3519  0.1911
80565W        W23503  15.742  31.687  19.061  0.1300 -0.0576  0.1826
80566W        W23504  16.374  30.603  17.127  0.0410  0.1647  0.0908
80567W        W23505  14.874  28.958  18.173 -0.1306  0.0185 -0.0787
80568W        W23506  16.280  31.036  16.608 -0.0391 -0.0509  0.1403
80569W        W23507  15.209  32.328  19.508  0.0175 -0.0316  0.0462
80570W        W23508  13.056  31.039  19.645 -0.0511 -0.1415  0.0352
80571W        W23509  14.816  31.628  15.921 -0.3452 -0.5524 -0.1201
80572W        W23510  16.275  30.929  15.730  0.1355 -0.0498 -0.3048
80573W        W23511  16.737  30.998  17.022 -0.1813 -0.0489  0.3437
80574W        W23512  17.309  32.964  18.303 -0.1196 -0.1127  0.0950
80575W        W23513  15.905  29.590  16.440 -0.0453  0.4024  0.0674
80576W        W23514  15.867  31.801  16.481  0.1299 -0.0516  0.1935
80577W        W23515  14.988  32.855  16.329 -0.1611 -0.0752 -0.0489
80578W        W23516  16.058  31.320  16.291 -0.2153  0.2429  0.2052
80579W        W23517  17.241  31.557  17.036 -0.0188  0.4413 -0.0654
80580W        W23518  17.028  32.171  19.441 -0.1155  0.0591  0.0670
80581W        W23519  18.732  28.471  17.010 -0.2044  0.0103  0.2273
80582W        W23520  18.258  31.274  18.867 -0.3892 -0.0526 -0.1400
80583W        W23521  18.244  29.459  17.703 -0.0835 -0.1471  0.1566
80584W        W23522  15.389  32.722  20.076 -0.0717  0.0356  0.1416
80585W        W23523  15.162  29.361  16.987  0.1304 -0.3717  0.1031
80586W        W23524  15.589  28.924  15.945  0.1031  0.1544 -0.0732
80587W        W23525  16.054  30.243  19.859  0.0103  0.0407 -0.0364
80588W        W23526  18.228  28.571  20.757  0.1546  0.0527 -0.0769
80589W        W23527  14.455  32.897  19.838  0.2720  0.0045 -0.0119
80590W        W23528  18.156  31.769  15.715  0.0135  0.3225  0.0076
80591W        W23529  15.897  29.502  19.467  0.0570 -0.1169 -0.3804
80592W        W23530  15.591  31.363  17.491  0.0091 -0.0151  0.0344
80593W        W23531  17.337  27.522  18.202 -0.0011  0.2948 -0.0063
80594W        W23532  15.983  29.667  17.475 -0.1458 -0.0897 -0.0965
80595W        W23533  16.078  29.761  16.933 -0.2384  0.2611 -0.2460
80596W        W23534  16.617  30.586  16.634 -0.1835 -0.1363  0.0092
80597W        W23535  15.390  29.744  19.398 -0.0296  0.1638 -0.4202
80598W        W23536  15.493  30.696  18.818 -0.1002 -0.0368 -0.3649
80599W        W23537  15.484  29.236  16.591  0.2583 -0.2318 -0.1121
80600W        W23538  18.625  29.935  17.307 -0.1026  0.0994 -0.1660
80601W        W23539  15.021  31.001  19.058  0.4148  0.2094 -0.0593
80602W        W23540  18.118  29.963  20.498 -0.1029 -0.0209 -0.1060
80603W        W23541  16.276  30.411  16.329 -0.0838 -0.1122 -0.0795
80604W        W23542  16.587  30.711  16.138  0.2387 -0.1443  0.1867
80605W        W23543  17.585  31.921  18.640 -0.2499  0.1270 -0.2636
80606W        W23544  17.133  30.192  18.582 -0.1838  0.0552  0.2098
80607W        W23545  16.059  29.280  16.942 -0.2861  0.2649 -0.1303
80608W        W23546  18.278  32.245  18.950 -0.2461  0.1507  0.1401
80609W        W23547  15.907  29.093  16.338 -0.3452  0.2532  0.1824
80610W        W23548  17.524  32.548  18.315 -0.0778 -0.1945 -0.0733
80611W        W23549  13.608  29.909  17.781 -0.3830  0.1005 -0.1154
80612W        W23550  16.947  29.492  17.004  0.0694  0.0585  0.3304
80613W        W23551  14.981  29.889  16.697  0.0068 -0.0708  0.1411
80614W        W23552  17.519  30.735  19.820  0.1486 -0.1059  0.1575
80615W        W23553  16.958  32.078  18.018  0.0765  0.0259  0.1682
80616W        W23554  16.558  27.843  17.200  0.2138 -0.2669  0.1096
80617W        W23555  17.404  31.108  15.771  0.2226 -0.1619 -0.0319
80618W        W23556  16.411  30.060  18.108  0.1222 -0.3160  0.3477
80619W        W23557  17.018  31.419  15.637 -0.0450 -0.2143 -0.2745
80620W        W23558  17.123  29.880  16.105  0.2274  0.3881  0.1797
80621W        W23559  16.750  32.308  17.175 -0.6925  0.0864  0.2292
80622W        W23560  14.318  30.689  18.004 -0.3046  0.0971 -0.1769
80623W        W23561  16.629  30.847  17.505 -0.2001 -0.2811 -0.1553
80624W        W23562  16.787  31.136  18.493 -0.2065 -0.1245 -0.2129
80625W        W23563  16.688  29.027  16.707  0.0396 -0.0727 -0.0961
80626W        W23564  14.932  29.455  18.399  0.3178  0.0354  0.3891
80627W        W23565  15.599  30.541  17.839 -0.2777  0.1722  0.5839
80628W        W23566  17.292  29.683  17.880  0.2447  0.1233 -0.1120
80629W        W23567  17.323  29.112  18.610  0.2786 -0.0919  0.0850
80630W        W23568  16.761  31.831  15.371  0.2198  0.0542  0.1933
80631W        W23569  16.909  28.636  19.787 -0.0898  0.1348  0.1221
80632W        W23570  16.586  33.379  18.676 -0.1251 -0.2097  0.0444
80633W        W23571  15.174  32.543  21.847 -0.0231  0.1861  0.1441
80634W        W23572  14.321  29.786  17.022 -0.3656  0.2584 -0.0256
80635W        W23573  16.536  32.033  18.734 -0.0741 -0.0002 -0.1641
80636W        W23574  16.156  30.159  17.284 -0.1570 -0.2269  0.1622
80637W        W23575  15.498  31.753  17.841 -0.1321  0.0820  0.1579
80638W        W23576  18.770  31.384  17.030 -0.1917 -0.0161  0.3390
80639W        W23577  16.855  29.198  16.287 -0.0065  0.1254 -0.1374
80640W        W23578  18.501  31.590  16.225 -0.0757 -0.4261  0.3870
80641W        W23579  14.750  29.062  17.097  0.3969 -0.2468  0.2320
80642W        W23580  18.461  29.074  16.891 -0.6041 -0.1121  0.1896
80643W        W23581  18.325  28.554  17.846 -0.0667 -0.2811 -0.5285
80644W        W23582  16.025  30.845  18.803  0.1440 -0.0283  0.0989
80645W        W23583  15.936  30.118  17.761 -0.1140 -0.0610 -0.2033
80646W        W23584  14.971  31.666  15.395  0.0382  0.2916 -0.2029
80647W        W23585  14.274  31.377  18.318 -0.0706  0.1403 -0.1134
80648W        W23586  17.042  29.128  19.696  0.0875 -0.1487 -0.0899
80649W        W23587  14.105  29.610  18.947  0.0021 -0.0414 -0.2862
80650W        W23588  14.251  32.068  16.662  0.1222  0.1041 -0.0443
80651W        W23589  14.719  29.582  18.847 -0.0815 -0.0931 -0.1040
80652W        W23590  16.975  31.518  16.501 -0.1400  0.1503  0.4434
80653W        W23591  13.666  28.242  18.180  0.0760  0.2741  0.1898
80654W        W23592  13.619  29.434  16.863 -0.1164  0.2678  0.0404
80655W        W23593  16.512  30.042  16.043 -0.2476 -0.1661  0.2258
80656W        W23594  17.641  31.960  16.915 -0.0609 -0.1811  0.0137
80657W        W23595  14.983  30.029  17.637 -0.0893 -0.1472  0.1763
80658W        W23596  16.585  32.844  19.251  0.1339  0.4807 -0.2520
80659W        W23597  15.154  32.388  16.142  0.2987  0.1739  0.1243
80660W        W23598  15.372  32.213  20.005  0.2155  0.1686  0.3329
80661W        W23599  16.429  29.700  19.960  0.3308 -0.7271  0.1223
80662W        W23600  14.719  29.619  17.339  0.2633 -0.1118  0.2563
80663W        W23601  16.493  29.704  18.502  0.1269  0.2356 -0.1193
80664W        W23602  15.878  32.924  17.089  0.0559  0.0641  0.0353
80665W        W23603  16.680  32.053  16.285  0.3479  0.0760  0.1565
80666W        W23604  16.066  31.390  18.169  0.0605  0.1569  0.0400
80667W        W23605  16.521  33.920  20.457  0.0616 -0.1139 -0.1829
80668W        W23606  15.521  29.219  19.291  0.2072  0.1812  0.0495
80669W        W23607  18.453  30.732  15.895 -0.1531 -0.2972 -0.0199
80670W        W23608  16.089  30.702  17.663 -0.1162  0.2642 -0.1020
80671W        W23609  19.264  31.594  16.098 -0.1114  0.0395  0.0830
80672W        W23610  17.833  29.515  18.003  0.2958  0.0281 -0.1938
80673W        W23611  17.516  30.692  16.105  0.0222  0.2914 -0.0503
80674W        W23612  16.268  30.489  20.326  0.0219 -0.1024  0.1701
80675W        W23613  15.780  31.995  17.444 -0.1223 -0.0538  0.2345
80676W        W23614  18.750  30.150  18.346 -0.3088 -0.6236 -0.1969
80677W        W23615  15.162  28.349  17.833 -0.0711  0.1929 -0.1023
80678W        W23616  16.013  30.654  16.806  0.3118 -0.1300 -0.0012
80679W        W23617  16.415  31.601  16.482  0.1866 -0.2399 -0.1545
80680W        W23618  16.493  30.340  19.374  0.1301 -0.4577  0.2479
80681W        W23619  17.323  27.837  17.532  0.1149  0.0695  0.0209
80682W        W23620  16.228  29.248  19.891  0.1379  0.2208 -0.0305
80683W        W23621  16.790  30.354  18.259  0.0093  0.3176 -0.1662
80684W        W23622  18.119  29.610  18.441 -0.0854 -0.3963  0.2251
80685W        W23623  16.952  28.951  17.648 -0.1876  0.0348  0.1332
80686W        W23624  19.095  29.997  17.036 -0.0359  0.1541 -0.1586
80687W        W23625  16.286  32.437  19.198  0.3297 -0.0812  0.2666
80688W        W23626  17.863  32.933  18.206  0.2409 -0.1046  0.0134
80689W        W23627  16.742  31.831  17.284  0.1802  0.1136  0.1318
80690W        W23628  16.844  30.285  17.331 -0.2026 -0.0877  0.0607
80691W        W23629  14.897  29.879  19.220 -0.0450 -0.0090 -0.0091
80692W        W23630  15.875  30.180  16.594 -0.1935  0.1081 -0.0781
80693W        W23631  16.301  29.849  16.475  0.0369 -0.0572  0.2323
80694W        W23632  16.437  30.574  18.887  0.0515 -0.0446 -0.0382
80695W        W23633  14.613  29.139  17.562  0.0339 -0.2782 -0.0445
80696W        W23634  16.145  28.060  16.176  0.3194 -0.1266  0.0024
80697W        W23635  14.870  30.798  17.957  0.2253 -0.3766  0.0504
80698W        W23636  17.180  31.628  18.159 -0.0918  0.0775 -0.1022
80699W        W23637  13.573  32.911  23.631  0.3767 -0.0875 -0.1655
80700W        W23638  13.297  30.056  19.428 -0.2543  0.2190 -0.0144
80701W        W23639  16.681  28.880  19.400 -0.0147  0.0606  0.1388
80702W        W23640  18.250  30.644  21.812  0.0219  0.0329  0.0499
80703W        W23641  13.590  30.285  21.881 -0.0148  0.2960 -0.2500
80704W        W23642  16.914  33.321  19.957  0.1180  0.5002  0.1714
80705W        W23643  16.157  29.886  21.701  0.3231 -0.2920 -0.1945
80706W        W23644  17.678  33.508  21.883  0.2071 -0.0056 -0.0883
80707W        W23645  19.304  34.067  23.098  0.0368  0.1641 -0.0226
80708W        W23646  16.302  31.634  20.509  0.0295 -0.2200 -0.2062
80709W        W23647  15.217  29.994  21.343 -0.2116  0.1389  0.0971
80710W        W23648  15.987  31.407  23.979  0.0739 -0.0167  0.0602
80711W        W23649  15.453  29.547  21.123 -0.1680  0.0062 -0.1281
80712W        W23650  15.045  28.862  20.912 -0.0231  0.0441  0.1688
80713W        W23651  16.992  32.808  22.140 -0.1075 -0.0419 -0.1436
80714W        W23652  13.234  30.437  20.541 -0.2406 -0.1653  0.2320
80715W        W23653  15.593  32.856  21.003 -0.1819 -0.0805  0.1748
80716W        W23654  15.351  30.872  20.346 -0.1688  0.0517 -0.3406
80717W        W23655  16.476  33.646  21.019  0.3064  0.2672 -0.1030
80718W        W23656  15.075  29.360  21.834  0.2475 -0.1731  0.1344
80719W        W23657  16.808  29.191  22.951 -0.0943  0.2785 -0.0087
80720W        W23658  15.924  32.605  21.320 -0.4756  0.2469  0.0849
80721W        W23659  16.602  31.422  18.180 -0.4138 -0.0552 -0.0736
80722W        W23660  14.841  31.404  21.650 -0.0914  0.1392  0.2013
80723W        W23661  15.226  31.392  22.727  0.0377  0.2751  0.1045
80724W        W23662  16.655  30.420  21.562 -0.0127  0.0551  0.1334
80725W        W23663  16.218  32.501  22.164  0.1228 -0.0547 -0.1143
80726W        W23664  17.107  33.029  20.648  0.2715 -0.0424 -0.1921
80727W        W23665  15.794  33.395  22.069  0.0701  0.1628 -0.0061
80728W        W23666  16.932  31.098  23.873 -0.3473  0.0495  0.0111
80729W        W23667  16.720  31.766  21.569  0.0546  0.1174  0.3417
80730W        W23668  13.719  33.990  21.674  0.2318 -0.1237  0.2410
80731W        W23669  16.186  32.985  20.360 -0.2645 -0.1028  0.3173
80732W        W23670  18.135  31.811  20.787 -0.2781  0.3388  0.1551
80733W        W23671  17.010  33.326  22.456 -0.0659  0.1604  0.2361
80734W        W23672  15.700  33.483  24.329 -0.0293  0.0175 -0.0484
80735W        W23673  14.946  31.546  20.337 -0.2420 -0.2510 -0.4346
80736W        W23674  14.946  34.089  22.811 -0.0877 -0.0158 -0.0718
80737W        W23675  14.455  32.174  22.036 -0.0318 -0.0086  0.1012
80738W        W23676  16.502  31.275  21.430  0.1260 -0.2239 -0.0937
80739W        W23677  15.737  32.813  20.502 -0.3511 -0.1070  0.3310
80740W        W23678  16.150  32.708  19.581  0.2632  0.1272  0.2901
80741W        W23679  16.041  32.044  21.190  0.1204  0.1604 -0.4467
80742W        W23680  15.256  32.540  23.435  0.1207 -0.3011  0.2321
80743W        W23681  13.433  32.202  22.018  0.0654  0.0181  0.1276
80744W        W23682  17.503  30.824  23.236  0.1573 -0.1169 -0.0506
80745W        W23683  15.843  33.289  20.212 -0.1623 -0.1500 -0.1051
80746W        W23684  17.771  29.971  17.832 -0.0169  0.0503  0.0421
80747W        W23685  15.237  30.892  19.481  0.0513  0.0337 -0.0536
80748W        W23686  15.105  30.632  19.889 -0.2593  0.3773 -0.0848
80749W        W23687  14.639  30.205  21.361 -0.3193 -0.0090 -0.1586
80750W        W23688  14.759  33.036  21.708  0.1255  0.1207  0.2181
80751W        W23689  16.450  30.507  22.673  0.0521  0.1193 -0.0663
80752W        W23690  18.809  33.202  23.345  0.1372 -0.4197 -0.0718
80753W        W23691  16.414  32.843  21.791  0.0083 -0.0547 -0.3647
80754W        W23692  17.375  32.912  22.593 -0.1247 -0.0139 -0.1670
80755W        W23693  16.139  31.949  22.980 -0.1227 -0.0835 -0.1244
80756W        W23694  15.181  31.419  19.581 -0.0921 -0.1943 -0.3703
80757W        W23695  15.713  31.430  19.588  0.0407 -0.1059  0.3312
80758W        W23696  16.619  32.482  19.555  0.4361 -0.0825  0.1693
80759W        W23697  16.806  30.594  20.601 -0.0030  0.0895  0.1607
80760W        W23698  14.971  31.121  20.000  0.3173 -0.2322  0.3245
80761W        W23699  14.573  30.751  22.870  0.1544 -0.0059  0.0636
80762W        W23700  15.044  32.111  22.180  0.1502  0.2531  0.0112
80763W        W23701  15.990  30.477  19.375  0.0753 -0.1300  0.1927
80764W        W23702  17.632  32.445  24.164  0.0866  0.0694 -0.0687
80765W        W23703  13.935  32.781  23.950 -0.3420 -0.0487  0.2615
80766W        W23704  17.238  32.414  23.130 -0.2499 -0.0108 -0.0261
80767W        W23705  15.613  31.697  21.433  0.0636  0.1997  0.1256
80768W        W23706  16.501  32.022  20.785  0.1917 -0.3200  0.2844
80769W        W23707  16.670  31.759  17.768 -0.0370 -0.1071  0.1494
80770W        W23708  17.562  30.230  20.634 -0.1465 -0.1581  0.0727
80771W        W23709  17.356  32.102  22.749 -0.0598  0.2808  0.4189
80772W        W23710  14.680  32.610  21.041  0.2256  0.0241 -0.1026
80773W        W23711  16.426  33.546  19.682 -0.0298 -0.2915  0.1429
80774W        W23712  17.047  32.583  22.637 -0.0210 -0.0325  0.1279
80775W        W23713  16.492  30.367  17.658  0.0201  0.0461 -0.1669
80776W        W23714  15.431  34.295  21.538 -0.1036  0.1150 -0.1237
80777W        W23715  17.121  31.893  21.971 -0.0005 -0.2755  0.0634
80778W        W23716  17.485  33.354  22.845  0.1275  0.0561  0.2248
80779W        W23717  15.112  32.364  21.201 -0.0144 -0.2587 -0.0257
80780W        W23718  12.819  31.394  21.667  0.1079  0.0591  0.3139
80781W        W23719  14.950  31.954  19.791 -0.4289 -0.4224 -0.4675
80782W        W23720  14.685  29.699  22.665 -0.2582  0.0244 -0.0512
80783W        W23721  14.738  30.995  21.892  0.1344  0.1653 -0.1331
80784W        W23722  16.215  29.458  20.380  0.1409 -0.0845  0.1704
80785W        W23723  16.200  29.910  23.243  0.0385  0.1992  0.0902
80786W        W23724  17.902  29.189  21.959  0.0748  0.0442  0.0277
80787W        W23725  14.920  32.062  20.844 -0.0071  0.0074  0.5587
80788W        W23726  16.798  31.514  19.876 -0.0652 -0.0034 -0.1751
80789W        W23727  17.523  31.418  21.229  0.1386  0.1117 -0.4576
80790W        W23728  16.917  31.919  19.036  0.0488  0.2565 -0.0261
80791W        W23729  15.455  30.110  21.880  0.2759 -0.0816 -0.2291
80792W        W23730  15.199  30.497  21.265 -0.0561 -0.0248 -0.1401
80793W        W23731  15.397  32.944  22.577 -0.1034 -0.0818  0.0536
80794W        W23732  14.921  28.401  21.628  0.3112 -0.2542  0.0369
80795W        W23733  17.407  32.403  22.245  0.0154  0.1163  0.2088
80796W        W23734  13.351  30.353  19.848 -0.2499 -0.1694 -0.2513
80797W        W23735  18.953  30.822  22.133  0.0654  0.1203 -0.0514
80798W        W23736  15.551  32.786  22.086 -0.0207 -0.3363  0.1143
80799W        W23737  13.818  32.272  20.483 -0.0386  0.2345  0.3131
80800W        W23738  17.322  30.559  22.770  0.0968 -0.1376  0.2013
80801W        W23739  17.550  33.341  19.309 -0.0152 -0.2728 -0.0705
80802W        W23740  18.199  32.461  22.306 -0.2386  0.3955 -0.1486
80803W        W23741  16.717  33.331  20.664 -0.0452  0.1317  0.0087
80804W        W23742  14.766  31.370  21.143  0.0846  0.1643 -0.2197
80805W        W23743  15.476  32.050  21.056  0.1764  0.0404 -0.2037
80806W        W23744  15.833  33.275  22.524  0.0967  0.0754 -0.1558
80807W        W23745  15.447  32.674  21.437  0.0220  0.1224  0.0875
80808W        W23746  13.155  29.964  20.273 -0.0629 -0.0231  0.6369
80809W        W23747  18.335  33.865  21.397  0.0858  0.1800 -0.0348
80810W        W23748  15.409  32.158  21.565 -0.0189 -0.2461  0.2847
80811W        W23749  15.433  30.676  22.524  0.0631 -0.2615  0.0184
80812W        W23750  16.913  28.993  23.466  0.3979 -0.1292 -0.0392
80813W        W23751  17.688  32.499  22.789 -0.2323 -0.0004 -0.0936
80814W        W23752  15.980  29.897  21.164  0.2164 -0.1198 -0.1460
80815W        W23753  15.853  30.614  21.036 -0.3302 -0.1471 -0.1097
80816W        W23754  17.417  33.991  20.587 -0.1328 -0.0990 -0.1270
80817W        W23755  15.163  33.371  20.873  0.0615 -0.0558  0.0552
80818W        W23756  13.948  31.287  22.736 -0.0604  0.2438  0.0763
80819W        W23757  15.445  31.901  20.464  0.2419 -0.0900 -0.1450
80820W        W23758  17.610  29.312  21.530 -0.1077  0.1700 -0.2535
80821W        W23759  13.831  31.938  23.201 -0.1231 -0.2088 -0.0820
80822W        W23760  16.099  30.406  24.253 -0.1811  0.2092  0.0217
80823W        W23761  13.955  30.578  20.709 -0.1914 -0.0784 -0.1140
80824W        W23762  14.229  32.438  24.126 -0.1257  0.1660 -0.0779
80825W        W23763  15.912  29.466  21.789  0.2426  0.1778 -0.0245
80826W        W23764  16.780  30.841  19.593  0.2161  0.0905 -0.1048
80827W        W23765  15.800  32.570  22.437 -0.2522  0.0249 -0.4273
80828W        W23766  17.333  30.948  21.528  0.0863 -0.1796 -0.1923
80829W        W23767  14.256  30.717  20.310  0.1422  0.1199  0.1626
80830W        W23768  15.412  28.942  20.107 -0.2384 -0.0259 -0.3083
80831W        W23769  15.133  32.027  22.823  0.1986 -0.0898 -0.0047
80832W        W23770  15.889  31.965  21.715  0.0113 -0.1744  0.2240
80833W        W23771  17.433  33.115  21.072  0.3130 -0.0793  0.2149
80834W        W23772  15.260  29.374  20.479 -0.3020  0.2831 -0.0332
80835W        W23773  16.951  31.429  21.210  0.2528  0.0806 -0.0262
80836W        W23774  14.983  32.764  23.989  0.1318 -0.3495 -0.3318
80837W        W23775  16.287  32.365  23.704 -0.3374  0.3729 -0.2233
80838W        W23776  17.225  33.498  20.776 -0.0260  0.1753 -0.0252
80839W        W23777  14.977  29.879  21.797 -0.0925  0.0036  0.1230
80840W        W23778  16.830  30.236  20.305 -0.1754 -0.0612  0.1770
80841W        W23779  16.454  29.264  21.226 -0.2165 -0.1332 -0.2208
80842W        W23780  14.897  32.484  19.928  0.2445 -0.0847  0.0736
80843W        W23781  17.790  30.243  22.655 -0.0431  0.2331 -0.0156
80844W        W23782  17.290  30.114  22.488  0.2411  0.0335 -0.0163
80845W        W23783  15.918  30.425  22.604  0.0987  0.0824  0.2529
80846W        W23784  18.306  30.779  25.041  0.0678  0.1079  0.0461
80847W        W23785  16.960  30.539  17.778 -0.0277  0.0698 -0.2545
80848W        W23786  16.532  31.042  23.291 -0.1823 -0.1978 -0.1237
80849W        W23787  14.661  31.906  18.900 -0.1975 -0.6047  0.0069
80850W        W23788  16.880  30.012  23.317 -0.1187 -0.1821  0.0008
80851W        W23789  16.397  31.086  23.770 -0.2237  0.0841 -0.1411
80852W        W23790  14.686  32.360  22.520 -0.0237 -0.1159 -0.1442
80853W        W23791  15.328  33.433  22.403 -0.0505 -0.1145  0.0705
80854W        W23792  16.471  30.944  20.402  0.2691 -0.2133 -0.0510
80855W        W23793  16.690  30.079  24.725 -0.0724  0.1443  0.2789
80856W        W23794  15.420  30.426  19.323 -0.1140  0.0249 -0.2064
80857W        W23795  15.808  33.775  20.630  0.1569 -0.0773  0.0451
80858W        W23796  18.025  32.090  18.551  0.1824 -0.1638  0.0113
80859W        W23797  15.596  30.768  21.968 -0.0919  0.3971 -0.2523
80860W        W23798  15.246  31.750  21.914 -0.2149  0.0997  0.1330
80861W        W23799  16.737  32.831  20.286 -0.2627 -0.4695 -0.4027
80862W        W23800  15.891  32.567  23.533  0.1913 -0.3657  0.0165
80863W        W23801  15.216  33.079  20.455 -0.0936  0.0423  0.0336
80864W        W23802  16.972  30.591  22.385 -0.2315  0.1674 -0.2224
80865W        W23803  15.795  33.903  22.137  0.3219 -0.0075  0.2205
80866W        W23804  14.014  29.922  20.606 -0.0891 -0.1278 -0.2536
80867W        W23805  14.693  31.459  19.740  0.4241  0.1773  0.0729
80868W        W23806  16.588  31.393  22.501  0.1086 -0.3580 -0.1116
80869W        W23807  17.665  31.752  19.993  0.0720 -0.1103  0.1426
80870W        W23808  14.590  30.761  19.939  0.1083 -0.1001 -0.0228
80871W        W23809  15.970  31.978  20.660 -0.0114 -0.2958  0.1746
80872W        W23810  13.786  33.382  23.416  0.1981 -0.2916 -0.0195
80873W        W23811  15.551  32.160  23.307  0.0150  0.1670  0.1546
80874W        W23812  17.248  29.631  22.376 -0.0547 -0.0874 -0.1056
80875W        W23813  16.107  31.175  20.696  0.0083 -0.2617  0.1170
80876W        W23814  16.432  31.451  24.752  0.2036  0.0002 -0.0023
80877W        W23815  13.603  31.324  18.944  0.2190 -0.0760 -0.0957
80878W        W23816  16.670  30.975  22.203  0.0485 -0.0579 -0.0717
80879W        W23817  15.766  32.336  20.309  0.0664 -0.0079  0.0745
80880W        W23818  16.495  33.509  21.479 -0.0090 -0.0497  0.0603
80881W        W23819  17.175  32.675  21.170 -0.3256  0.1458 -0.2207
80882W        W23820  15.548  31.115  20.922  0.3328 -0.5715  0.0003
80883W        W23821  14.187  32.444  21.300  0.0056  0.0210 -0.0204
80884W        W23822  15.800  31.559  23.430  0.1695  0.0687  0.0695
80885W        W23823  16.693  32.407  21.921 -0.2665  0.0133  0.0255
80886W        W23824  16.184  30.461  21.736  0.0109  0.1499 -0.1917
80887W        W23825  15.232  31.382  21.286  0.0425 -0.2135 -0.2082
80888W        W23826  15.482  32.214  22.063 -0.1402 -0.0546 -0.1647
80889W        W23827  17.996  32.395  21.881 -0.1171 -0.1421 -0.2843
80890W        W23828  16.520  30.318  23.284  0.1387  0.0556 -0.2322
80891W        W23829  15.529  32.384  23.796 -0.1155  0.1831  0.0381
80892W        W23830  16.278  30.726  20.843  0.3940  0.2702  0.3263
80893W        W23831  17.161  32.503  20.515  0.1720  0.2056  0.3823
80894W        W23832  16.300  32.308  21.598  0.2818 -0.0189 -0.0999
80895W        W23833  15.352  32.329  20.654 -0.1314  0.0058 -0.1588
80896W        W23834  14.146  30.483  22.174  0.2040  0.3593 -0.1328
80897W        W23835  15.257  32.617  18.737 -0.1262  0.0144 -0.0547
80898W        W23836  15.652  30.305  21.408  0.0794 -0.0438 -0.0822
80899W        W23837  15.527  33.254  21.284  0.1057 -0.3082 -0.0779
80900W        W23838  15.215  31.694  18.937 -0.1424 -0.2408  0.2207
80901W        W23839  13.346  32.724  21.695  0.1930  0.2568 -0.0085
80902W        W23840  18.531  28.804  20.408  0.4014  0.0598 -0.1728
80903W        W23841  16.246  31.617  20.006  0.1050 -0.0450 -0.0744
80904W        W23842  14.989  30.889  21.063  0.0448  0.0995  0.2957
80905W        W23843  17.256  30.331  23.248 -0.1597 -0.1288 -0.2918
80906W        W23844  18.412  32.313  19.824 -0.1076  0.1654 -0.0467
80907W        W23845  16.408  32.190  24.188  0.0479  0.3452  0.0827
80908W        W23846  14.462  30.151  22.073 -0.0065 -0.1097 -0.0138
80909W        W23847  16.855  32.185  22.863  0.2320 -0.2845  0.0437
80910W        W23848  15.990  31.114  22.005 -0.1014  0.0438 -0.1108
80911W        W23849  16.359  31.767  23.884  0.3435  0.0543 -0.0982
80912W        W23850  13.860  31.293  23.353 -0.0833 -0.0699 -0.0759
80913W        W23851  16.514  29.910  21.205  0.3029  0.1478 -0.1738
80914W        W23852  16.030  30.240  20.754  0.0821  0.0217 -0.1538
80915W        W23853  15.746  30.787  21.525 -0.2152  0.3277 -0.0208
80916W        W23854  16.249  31.621  21.621 -0.1167 -0.1792 -0.3221
80917W        W23855  16.070  32.032  18.926  0.2972  0.0708 -0.1006
80918W        W23856  16.241  30.358  21.218 -0.0245 -0.2364  0.0773
80919W        W23857  14.431  31.392  23.413 -0.1803  0.0920 -0.0375
80920W        W23858  18.971  31.537  21.486  0.2050 -0.0516 -0.2511
80921W        W23859  15.923  32.760  20.004  0.1397  0.1634  0.2353
80922W        W23860  15.773  31.871  19.839 -0.1681  0.1985 -0.3278
80923W        W23861  14.079  31.993  22.566 -0.1765  0.2703 -0.0070
80924W        W23862  16.654  32.802  20.764 -0.1451 -0.1013  0.2238
80925W        W23863  15.186  30.571  20.710 -0.0059  0.1772 -0.3046
80926W        W23864  18.103  30.729  23.172  0.1775  0.0608  0.1877
80927W        W23865  15.695  31.044  22.725  0.0621  0.2266  0.1216
80928W        W23866  15.522  31.895  23.740  0.1127 -0.3683  0.1495
80929W        W23867  15.365  29.415  23.014 -0.0848 -0.0121 -0.0860
80930W        W23868  16.668  32.896  22.629  0.1440 -0.0596  0.1103
80931W        W23869  17.623  30.601  19.357 -0.4417  0.0742  0.3318
80932W        W23870  18.049  31.396  22.179 -0.2109  0.0501  0.0138
80933W        W23871  17.826  30.975  21.230  0.2061 -0.1658  0.1397
80934W        W23872  16.334  30.642  19.789  0.1274 -0.2552 -0.1595
80935W        W23873  14.670  31.716  22.002 -0.0285 -0.1021  0.4260
80936W        W23874  18.132  29.894  22.414  0.0574 -0.4440 -0.2418
80937W        W23875  15.263  31.203  18.612  0.0248  0.1136  0.0424
80938W        W23876  17.068  31.124  22.461 -0.0330 -0.0142 -0.2278
80939W        W23877  15.635  32.512  19.653  0.2621 -0.0322 -0.2529
80940W        W23878  18.139  32.110  22.731 -0.0548 -0.1112  0.2343
80941W        W23879  15.960  33.508  21.038 -0.1540 -0.6089 -0.2016
80942W        W23880  13.510  30.838  21.618 -0.0630 -0.2870 -0.1544
80943W        W23881  15.067  32.069  23.455  0.3277  0.2517  0.4049
80944W        W23882  15.230  30.301  20.325 -0.1224  0.0386 -0.1050
80945W        W23883  15.045  30.016  19.719 -0.2068 -0.1911 -0.0269
80946W        W23884  15.993  32.416  23.040 -0.1336  0.1402  0.1987
80947W        W23885  18.423  31.710  22.330 -0.1005  0.0294  0.0514
80948W        W23886  16.167  30.066  19.059 -0.1466 -0.0424  0.1866
80949W        W23887  16.633  29.984  21.919 -0.2059  0.3451  0.2286
80950W        W23888  14.704  32.571  21.528 -0.0297 -0.0772  0.1196
80951W        W23889  16.579  29.592  21.578  0.1373 -0.1036  0.2826
80952W        W23890  16.132  34.403  20.844  0.3669 -0.0660 -0.0700
80953W        W23891  12.859  32.023  22.920 -0.1485 -0.1107  0.1716
80954W        W23892  15.322  31.689  20.043 -0.0014  0.0778 -0.0472
80955W        W23893  17.551  30.560  22.218 -0.4473  0.2022 -0.4956
80956W        W23894  18.001  32.088  21.429 -0.0228 -0.0631  0.1944
80957W        W23895  15.163  31.652  20.815  0.1775 -0.1599 -0.3294
80958W        W23896  16.848  32.117  23.955  0.2178 -0.0388  0.0077
80959W        W23897  14.876  32.139  21.721  0.1782  0.0223  0.0330
80960W        W23898  15.647  31.344  22.274  0.3662  0.1880 -0.2842
80961W        W23899  17.097  32.182  21.495  0.2001 -0.3816  0.2243
80962W        W23900  16.578  31.990  19.745  0.2468  0.2070 -0.0248
80963W        W23901  15.517  32.595  22.948 -0.1546 -0.2736 -0.2361
80964W        W23902  15.064  31.360  23.502  0.0799  0.0975 -0.0389
80965W        W23903  16.513  31.941  22.072 -0.1062  0.2485 -0.0943
80966W        W23904  15.061  32.456  22.992 -0.2130  0.0323  0.0519
80967W        W23905  14.032  30.248  21.632 -0.2097  0.1120 -0.2961
80968W        W23906  16.836  32.897  18.564  0.0364 -0.0493  0.3680
80969W        W23907  13.924  32.765  23.091 -0.1720 -0.0583 -0.3653
80970W        W23908  15.397  31.148  23.120  0.2958 -0.2036  0.2014
80971W        W23909  15.131  32.768  20.839 -0.2666 -0.1219  0.2242
80972W        W23910  17.333  31.746  19.318  0.3183 -0.1631  0.1853
80973W        W23911  15.787  32.056  19.372  0.0082 -0.4113  0.2453
80974W        W23912  16.989  33.083  21.512  0.1319 -0.0116 -0.1030
80975W        W23913  13.946  30.884  19.405 -0.0699 -0.0458  0.0118
80976W        W23914  14.596  31.076  22.382  0.0038  0.1220 -0.0812
80977W        W23915  13.961  32.155  19.994 -0.0353 -0.2164 -0.0023
80978W        W23916  17.740  32.051  20.397 -0.0173  0.4334 -0.0167
80979W        W23917  14.901  33.319  22.734 -0.0036  0.4735 -0.1189
80980W        W23918  18.832  34.205  23.137 -0.1448  0.1812  0.1799
80981W        W23919  17.274  30.587  20.386  0.0550  0.0675  0.0185
80982W        W23920  18.464  30.978  22.123 -0.0285  0.3680  0.0550
80983W        W23921  16.940  29.539  21.890 -0.0257 -0.0564 -0.0236
80984W        W23922  15.255  32.478  22.508 -0.0723  0.1160 -0.0791
80985W        W23923  15.755  31.583  22.905  0.1348 -0.0660  0.0874
80986W        W23924  15.747  30.405  20.271  0.2569  0.0496  0.1105
80987W        W23925  14.571  30.844  24.653 -0.0376 -0.2184  0.0759
80988W        W23926  17.479  29.141  23.499  0.0308  0.4095 -0.2445
80989W        W23927  14.328  32.084  23.399 -0.0604  0.0627  0.1661
80990W        W23928  17.342  30.958  19.053 -0.1607  0.2373  0.0709
80991W        W23929  14.352  30.532  21.111  0.3224  0.1086  0.1715
80992W        W23930  15.713  31.604  20.942 -0.2321  0.0665 -0.3564
80993W        W23931  18.955  29.602  23.027 -0.2733  0.0284  0.0692
80994W        W23932  16.794  30.926  19.101 -0.1212  0.2011  0.0619
80995W        W23933  15.121  30.925  21.578  0.0039 -0.1808 -0.0982
80996W        W23934  16.073  32.975  20.885  0.3744 -0.3185 -0.2057
80997W        W23935  16.446  32.628  23.174  0.1850  0.1964  0.0860
80998W        W23936  15.835  32.392  20.884 -0.0197 -0.2048 -0.0850
80999W        W23937  12.663  30.260  19.520  0.1995  0.0575  0.0039
81000W        W23938  17.978  31.095  23.642  0.1650 -0.4135 -0.1295
81001W        W23939  15.139  30.926  22.181  0.1768 -0.0753 -0.2844
81002W        W23940  17.448  31.159  23.832  0.1266  0.3884 -0.2056
81003W        W23941  15.207  32.830  19.639 -0.0906 -0.0925  0.1186
81004W        W23942  16.291  30.837  19.301 -0.1059 -0.1577  0.3430
81005W        W23943  16.438  31.415  22.024  0.1401  0.2464  0.3258
81006W        W23944  14.284  31.296  21.841  0.1083  0.0654 -0.2746
81007W        W23945  15.419  31.350  20.451  0.3452  0.1792  0.1360
81008W        W23946  19.921  31.066  23.322  0.0537  0.3040  0.3062
81009W        W23947  16.701  30.657  21.099 -0.0349 -0.0961 -0.0794
81010W        W23948  15.487  32.851  23.896 -0.1287  0.2907 -0.1455
81011W        W23949  14.183  31.749  19.741 -0.3867 -0.2947  0.0567
81012W        W23950  16.661  31.385  20.353 -0.0251  0.1394  0.2094
81013W        W23951  15.923  31.260  21.288  0.1796  0.0636  0.0937
81014W        W23952  15.622  32.115  22.784  0.0697 -0.4387  0.2554
81015W        W23953  17.637  32.888  23.232 -0.2093 -0.0349 -0.0855
81016W        W23954  13.996  29.393  22.525  0.0231  0.0979  0.0276
81017W        W23955  17.103  31.913  19.894 -0.2390  0.3106 -0.2272
81018W        W23956  17.212  31.655  21.563  0.3436  0.1903 -0.2544
81019W        W23957  15.633  33.587  19.744  0.1735  0.1328  0.1226
81020W        W23958  16.098  32.250  19.698  0.2535 -0.1241  0.3652
81021W        W23959  17.379  33.239  20.259 -0.0274  0.1578  0.0725
81022W        W23960  15.534  29.230  21.522 -0.1807  0.0037  0.2421
81023W        W23961  18.878  32.629  22.411 -0.0780 -0.1942 -0.2278
81024W        W23962  19.665  33.268  22.425 -0.0945 -0.1842  0.3738
81025W        W23963  15.751  29.691  20.742  0.1567 -0.1260  0.0914
81026W        W23964  13.125  30.562  21.068 -0.0019 -0.2829  0.1942
81027W        W23965  15.012  33.453  22.003  0.3378 -0.3731 -0.2124
81028W        W23966  18.129  31.780  21.809  0.2948  0.1095  0.1671
81029W        W23967  17.738  31.306  22.648  0.2296 -0.1798 -0.0877
81030W        W23968  16.447  33.441  20.184  0.1673 -0.0648 -0.0120
81031W        W23969  17.312  31.104  22.881 -0.1139 -0.0462 -0.0990
81032W        W23970  15.040  32.961  22.230  0.0166  0.0234 -0.2883
81033W        W23971  14.648  33.099  23.564  0.0472 -0.1994  0.2734
81034W        W23972  15.832  31.557  20.218 -0.0494  0.2151 -0.1640
81035W        W23973  16.528  32.168  23.274  0.3412 -0.1481  0.2375
81036W        W23974  15.879  32.524  21.835 -0.2026 -0.0729 -0.1470
81037W        W23975  16.941  34.137  20.287  0.1124  0.0445 -0.0716
81038W        W23976  18.392  32.087  21.066  0.3845  0.0989 -0.0908
81039W        W23977  16.875  30.941  21.521  0.1024 -0.2062  0.0373
81040W        W23978  16.672  32.357  20.463 -0.2862 -0.0509  0.2590
81041W        W23979  15.191  30.403  22.156  0.1912 -0.1150  0.0116
81042W        W23980  16.955  29.091  22.132 -0.3139  0.2597  0.2141
81043W        W23981  16.854  27.836  21.622 -0.0057  0.0002 -0.3089
81044W        W23982  16.005  31.618  22.080 -0.0208 -0.0888  0.1620
81045W        W23983  13.010  31.629  19.215 -0.2715  0.0146  0.0709
81046W        W23984  15.616  30.685  19.795 -0.0706 -0.1019  0.1024
81047W        W23985  15.377  31.805  22.393 -0.1100  0.0567 -0.0631
81048W        W23986  16.538  29.959  23.671  0.0171  0.2839 -0.0282
81049W        W23987  16.019  31.116  23.395 -0.0191 -0.0291 -0.1518
81050W        W23988  14.566  30.919  20.835 -0.3129 -0.1385 -0.2213
81051W        W23989  15.421  28.705  20.581  0.0642 -0.0595 -0.1568
81052W        W23990  18.240  31.725  19.115  0.1842 -0.0517  0.0322
81053W        W23991  14.346  29.741  20.347  0.1941  0.3992 -0.1335
81054W        W23992  13.527  31.804  21.724 -0.1263 -0.0864 -0.3979
81055W        W23993  17.897  31.556  20.410  0.0986 -0.2250 -0.3655
81056W        W23994  16.682  31.899  20.203  0.2787  0.1158  0.0833
81057W        W23995  16.466  31.143  19.910  0.1221  0.0847 -0.1382
81058W        W23996  17.960  33.941  23.885 -0.1998  0.1540  0.4180
81059W        W23997  14.861  30.874  18.614 -0.3654  0.2358  0.2178
81060W        W23998  15.920  32.026  24.089  0.0548  0.0416  0.0907
81061W        W23999  17.176  30.318  23.712 -0.0536 -0.4511  0.0600
81062W        W24000  14.482  29.858  17.846  0.3738 -0.0895  0.0180
81063W        W24001  16.725  32.607  21.484  0.1056 -0.1770 -0.1103
81064W        W24002  15.394  32.107  19.089 -0.0446 -0.1299 -0.1043
81065W        W24003  17.319  32.195  19.045 -0.2493  0.0778  0.1405
81066W        W24004  14.203  31.058  23.119  0.2108  0.0877  0.1384
81067W        W24005  14.403  33.477  23.371  0.3848 -0.1066  0.1679
81068W        W24006  16.281  30.184  22.375 -0.0580 -0.0441  0.1895
81069W        W24007  17.229  33.036  19.618  0.1171 -0.1063 -0.0728
81070W        W24008  14.565  32.646  23.152  0.2420 -0.1216  0.0929
81071W        W24009  18.186  30.973  20.701 -0.3045  0.2506 -0.1928
81072W        W24010  19.137  31.074  23.639 -0.1900 -0.1075 -0.1671
81073W        W24011  16.637  30.179  19.826  0.0619 -0.0229  0.0544
81074W        W24012  14.284  30.509  23.163 -0.0442 -0.1325 -0.1682
81075W        W24013  14.810  31.109  23.157  0.0478 -0.1906  0.1822
81076W        W24014  18.116  31.155  21.719 -0.1673 -0.2660  0.1391
81077W        W24015  14.851  30.399  21.760  0.1412  0.1096  0.1255
81078W        W24016  17.919  30.926  22.210  0.0858 -0.2974  0.0389
81079W        W24017  16.257  32.146  20.283  0.0443  0.1568 -0.0423
81080W        W24018  15.048  31.384  22.268 -0.2731 -0.0970  0.1606
81081W        W24019  14.999  31.165  20.641  0.1989  0.2745  0.1003
81082W        W24020  16.332  31.645  23.392 -0.1505 -0.2026 -0.0837
81083W        W24021  16.938  33.513  21.204  0.0189  0.0061  0.3726
81084W        W24022  18.038  32.002  22.244  0.2083 -0.1167  0.1383
81085W        W24023  14.774  30.653  20.412 -0.0212  0.2694  0.2365
81086W        W24024  16.772  31.617  20.802  0.0220 -0.0862  0.1949
81087W        W24025  16.506  34.096  21.774  0.2799  0.2440  0.1709
81088W        W24026  17.859  34.296  23.420 -0.1691 -0.1312  0.0159
81089W        W24027  18.622  34.431  22.548  0.3407  0.1835  0.0097
81090W        W24028  17.590  31.874  22.252  0.0703 -0.0456 -0.1881
81091W        W24029  14.091  31.067  20.626 -0.2098 -0.3572  0.0810
81092W        W24030  14.278  31.113  19.712 -0.1129  0.0447  0.0267
81093W        W24031  16.355  31.616  21.116 -0.1454  0.1395  0.0959
81094W        W24032  16.459  30.958  21.811  0.1913  0.3461  0.1249
81095W        W24033  14.876  30.126  20.954 -0.3510 -0.0817  0.0072
81096W        W24034  15.525  30.184  20.843  0.2606 -0.0546  0.0575
81097W        W24035  14.855  32.799  22.688  0.0394  0.0956 -0.2856
81098W        W24036  16.986  33.240  22.922  0.2995 -0.0167 -0.0783
81099W        W24037  16.863  31.927  26.218  0.1667 -0.3051 -0.0116
81100W        W24038  15.377  31.489  24.849  0.0506  0.3084  0.2070
81101W        W24039  17.069  31.628  22.356 -0.1358 -0.0392  0.4858
81102W        W24040  17.936  33.158  24.992  0.1507  0.0080  0.0423
81103W        W24041  16.505  30.734  24.094 -0.1362 -0.0095 -0.0980
81104W        W24042  16.807  33.097  24.326  0.1551 -0.1544  0.1705
81105W        W24043  14.994  29.209  26.946  0.0522  0.0927 -0.0363
81106W        W24044  18.011  32.135  24.513 -0.1288 -0.1820  0.0185
81107W        W24045  18.235  33.262  26.811 -0.0202  0.1056  0.2791
81108W        W24046  17.317  32.038  24.299 -0.1087  0.0744  0.2857
81109W        W24047  15.225  29.512  26.632 -0.0691  0.0541 -0.1750
81110W        W24048  16.183  32.006  26.836 -0.1512 -0.2249 -0.4052
81111W        W24049  15.510  31.062  23.684 -0.1326  0.0213 -0.0269
81112W        W24050  16.164  27.685  25.617 -0.1135 -0.2028 -0.0437
81113W        W24051  17.087  31.224  27.024  0.0773  0.2496 -0.1590
81114W        W24052  14.042  30.950  26.005 -0.2961  0.1797  0.1012
81115W        W24053  14.522  30.109  26.030  0.0508 -0.1927 -0.0986
81116W        W24054  17.725  31.626  24.487 -0.2772  0.3484 -0.3875
81117W        W24055  17.340  33.137  25.676 -0.2823  0.0294  0.0264
81118W        W24056  14.752  30.458  26.304 -0.1408  0.2976  0.1003
81119W        W24057  16.469  29.842  26.800  0.2125  0.2070  0.1615
81120W        W24058  15.562  32.935  24.464 -0.2043  0.1152 -0.2071
81121W        W24059  14.920  32.219  23.917  0.1262  0.1434 -0.2714
81122W        W24060  14.019  31.491  26.456  0.0006 -0.1855  0.1522
81123W        W24061  15.435  30.978  24.627 -0.1717 -0.0162  0.2375
81124W        W24062  17.458  31.016  25.484  0.2199  0.0951  0.2252
81125W        W24063  17.752  31.789  25.424  0.3836 -0.0989  0.1166
81126W        W24064  17.530  33.239  26.133 -0.0871 -0.1075 -0.0932
81127W        W24065  17.485  32.653  25.720  0.1020  0.2469 -0.0526
81128W        W24066  18.351  29.216  26.269 -0.0178 -0.1795 -0.1060
81129W        W24067  14.670  31.239  23.845 -0.0112  0.1843  0.0750
81130W        W24068  14.960  32.705  26.391 -0.1322 -0.0734  0.1430
81131W        W24069  14.730  32.416  25.147 -0.0829  0.0102  0.3801
81132W        W24070  17.540  33.382  22.347  0.0806 -0.1142  0.1561
81133W        W24071  18.266  33.261  27.374 -0.1747 -0.1547  0.0947
81134W        W24072  15.197  33.272  28.902 -0.3314 -0.0312  0.0816
81135W        W24073  16.656  30.943  22.773  0.1820 -0.0704  0.0631
81136W        W24074  17.880  32.957  27.377  0.1316 -0.1564  0.0507
81137W        W24075  16.867  32.690  26.958 -0.0680 -0.3352 -0.4525
81138W        W24076  16.676  32.144  25.648  0.0823  0.0064  0.1166
81139W        W24077  16.866  31.681  25.730 -0.0101  0.1347  0.1788
81140W        W24078  15.154  32.115  24.796  0.2346  0.0509  0.0060
81141W        W24079  17.703  32.015  26.826 -0.1537  0.2325  0.0489
81142W        W24080  14.393  30.824  26.378 -0.1443 -0.1546  0.1662
81143W        W24081  14.828  31.081  25.273 -0.1544  0.1681 -0.0366
81144W        W24082  16.626  29.937  25.705 -0.2644 -0.0162  0.0458
81145W        W24083  14.824  32.140  26.150 -0.1767 -0.2154  0.0679
81146W        W24084  17.144  31.655  24.645  0.0885  0.0643 -0.3697
81147W        W24085  15.688  30.775  23.232  0.1120  0.1018  0.1764
81148W        W24086  17.120  31.496  24.152  0.0093  0.0863 -0.0411
81149W        W24087  15.776  29.242  25.950  0.0949  0.1383  0.1466
81150W        W24088  17.041  32.447  26.424  0.3421 -0.2299  0.4373
81151W        W24089  15.377  30.095  25.944  0.0112  0.2874  0.0708
81152W        W24090  19.419  29.794  26.761 -0.0605  0.0784  0.2213
81153W        W24091  17.407  31.847  25.016 -0.2442 -0.1311 -0.0438
81154W        W24092  16.601  30.618  25.680 -0.2697  0.3156 -0.1135
81155W        W24093  16.098  31.873  26.291  0.0512 -0.1241  0.0298
81156W        W24094  14.416  30.583  25.895  0.0328  0.0933 -0.0057
81157W        W24095  16.655  33.701  24.486 -0.1798 -0.1379  0.1724
81158W        W24096  17.741  32.594  23.716  0.0742 -0.3865 -0.0160
81159W        W24097  16.910  33.650  21.733  0.1258 -0.1962 -0.1363
81160W        W24098  13.326  30.502  24.961  0.0190  0.0523 -0.1742
81161W        W24099  18.171  31.069  28.010  0.0710  0.0220  0.1898
81162W        W24100  15.020  29.725  28.795 -0.1256  0.2071 -0.0756
81163W        W24101  16.609  30.242  24.187  0.1998  0.1208  0.0018
81164W        W24102  18.695  32.732  28.544  0.2088 -0.1172 -0.3138
81165W        W24103  14.557  31.569  26.615 -0.0377 -0.1147 -0.0050
81166W        W24104  19.719  30.487  24.898 -0.0730  0.4906  0.3459
81167W        W24105  16.658  32.398  26.091 -0.2214 -0.2321 -0.0591
81168W        W24106  16.577  32.307  26.655 -0.0251 -0.0148 -0.1395
81169W        W24107  18.094  31.957  23.192  0.2998  0.0219 -0.1448
81170W        W24108  17.097  31.578  26.541 -0.1622  0.0396 -0.0342
81171W        W24109  16.727  30.374  26.554 -0.1730  0.2555 -0.2213
81172W        W24110  15.206  31.347  24.393  0.1609  0.2401  0.0239
81173W        W24111  15.607  31.638  24.229  0.0417  0.0485 -0.0023
81174W        W24112  18.381  33.077  26.010  0.0398 -0.5766  0.1832
81175W        W24113  18.462  28.411  26.081  0.0160  0.4932  0.0691
81176W        W24114  15.395  32.379  26.493 -0.3626  0.0332 -0.1076
81177W        W24115  17.980  31.055  26.339  0.0361 -0.4202  0.1578
81178W        W24116  15.796  32.105  27.743 -0.1270  0.3860  0.1702
81179W        W24117  15.513  33.622  23.819 -0.2721 -0.1960  0.1177
81180W        W24118  14.929  31.852  26.721  0.0226  0.3919  0.3118
81181W        W24119  15.218  31.519  23.946 -0.1069 -0.1768 -0.0042
81182W        W24120  15.783  31.056  26.007 -0.1797 -0.2095 -0.1618
81183W        W24121  15.700  31.208  25.075  0.1386  0.0626  0.0476
81184W        W24122  17.116  29.341  23.736 -0.2586  0.0541  0.1045
81185W        W24123  16.010  30.110  25.826 -0.1493  0.1786  0.3336
81186W        W24124  19.044  30.056  26.348 -0.1813  0.2043 -0.0809
81187W        W24125  13.892  30.920  25.415  0.0691  0.2668  0.2441
81188W        W24126  18.737  32.050  24.999  0.1666 -0.2791 -0.3262
81189W        W24127  16.901  31.328  23.061 -0.1479  0.0759 -0.3634
81190W        W24128  17.105  32.605  24.006  0.0725 -0.1863 -0.2895
81191W        W24129  16.852  31.143  25.674 -0.0899 -0.1064  0.0049
81192W        W24130  15.079  31.471  25.291  0.1800 -0.2161 -0.0847
81193W        W24131  15.793  29.668  26.770  0.1025 -0.1963 -0.1798
81194W        W24132  14.896  28.096  25.355  0.1870 -0.1002  0.2968
81195W        W24133  17.727  30.528  27.054  0.0871  0.0992  0.2961
81196W        W24134  15.753  29.826  23.488 -0.0558 -0.1015 -0.0389
81197W        W24135  18.839  30.647  25.503  0.0675 -0.1128  0.1659
81198W        W24136  17.328  30.764  26.909  0.4718  0.1526 -0.2046
81199W        W24137  13.951  31.087  24.562 -0.0411  0.0468 -0.0021
81200W        W24138  16.717  29.004  25.754 -0.2501 -0.2394 -0.1075
81201W        W24139  17.203  32.761  24.460  0.0531  0.1579 -0.2717
81202W        W24140  19.181  32.329  27.134  0.1863  0.1430 -0.2121
81203W        W24141  16.892  32.759  23.092 -0.1597 -0.1047 -0.1705
81204W        W24142  14.784  30.897  26.083 -0.1285  0.2787  0.2507
81205W        W24143  16.247  31.308  22.999  0.0755 -0.2267 -0.1731
81206W        W24144  13.905  32.528  25.433 -0.1078 -0.0581 -0.2054
81207W        W24145  16.262  32.757  27.465  0.4103 -0.1585  0.0193
81208W        W24146  15.617  31.116  24.170  0.0152 -0.1089  0.0316
81209W        W24147  19.073  32.334  26.686 -0.1902  0.0450 -0.2239
81210W        W24148  17.404  31.848  25.880  0.1030  0.2681  0.1130
81211W        W24149  15.714  31.921  26.663  0.0251  0.1181  0.1864
81212W        W24150  18.240  29.514  28.556 -0.0999 -0.0006  0.3642
81213W        W24151  18.493  31.664  24.881  0.1903 -0.0290 -0.0278
81214W        W24152  16.952  31.738  25.123  0.0834  0.1474  0.2900
81215W        W24153  16.822  28.964  24.588 -0.0850  0.0559 -0.0908
81216W        W24154  17.384  33.200  24.463 -0.1144  0.0941  0.0638
81217W        W24155  15.533  33.420  25.275 -0.1144  0.1926 -0.2212
81218W        W24156  13.665  30.734  23.984  0.0179  0.1327  0.0651
81219W        W24157  15.331  31.552  25.923  0.2674 -0.0711 -0.1761
81220W        W24158  17.470  30.896  26.035  0.1000  0.0392 -0.1849
81221W        W24159  13.873  30.820  27.212 -0.3267  0.0566  0.0234
81222W        W24160  18.477  29.986  26.791 -0.0775  0.0510 -0.0983
81223W        W24161  15.341  30.908  25.165  0.2463  0.3386  0.4620
81224W        W24162  15.366  32.580  27.271  0.1207 -0.2075  0.1599
81225W        W24163  16.929  29.336  24.199  0.0994 -0.1150  0.1704
81226W        W24164  17.936  31.903  24.908  0.2544 -0.1149  0.3367
81227W        W24165  16.683  32.826  26.409  0.1525  0.2540 -0.0590
81228W        W24166  16.977  32.608  25.601  0.2721  0.0003  0.1897
81229W        W24167  16.778  31.547  23.632 -0.3161 -0.2984  0.2171
81230W        W24168  16.239  32.947  23.527  0.1111  0.0020  0.0715
81231W        W24169  14.614  32.759  28.448 -0.1146  0.0446 -0.2499
81232W        W24170  16.873  32.345  25.192 -0.1916 -0.0181 -0.2372
81233W        W24171  18.074  31.514  26.011  0.0278  0.1035 -0.2624
81234W        W24172  16.201  31.106  22.525  0.1768 -0.0956 -0.1530
81235W        W24173  18.813  33.225  24.212 -0.1150 -0.2183  0.0745
81236W        W24174  14.279  31.925  26.410 -0.0894  0.0883 -0.1297
81237W        W24175  17.355  31.116  26.579  0.1087 -0.2164  0.1070
81238W        W24176  16.210  32.776  24.990  0.2245  0.3889 -0.2055
81239W        W24177  16.830  28.870  27.699 -0.2649  0.0922  0.1119
81240W        W24178  15.072  30.799  24.408 -0.0212 -0.1040 -0.2324
81241W        W24179  16.363  31.114  25.827  0.3991  0.0285  0.1983
81242W        W24180  15.060  33.538  25.124  0.2486  0.1935  0.1461
81243W        W24181  18.489  28.972  27.051 -0.0279  0.0349 -0.1626
81244W        W24182  17.553  29.937  25.816 -0.3944 -0.1533  0.0804
81245W        W24183  16.952  28.816  26.172 -0.1228 -0.0819 -0.0660
81246W        W24184  18.009  31.530  27.133 -0.2491 -0.0886 -0.1531
81247W        W24185  18.294  30.529  24.337 -0.1162  0.2490 -0.0814
81248W        W24186  16.012  29.086  26.806  0.3551  0.3261 -0.1271
81249W        W24187  14.970  31.115  24.799  0.0661  0.4510 -0.1648
81250W        W24188  16.574  29.652  27.760 -0.1713  0.0104  0.0185
81251W        W24189  14.853  31.006  26.764 -0.1427 -0.1820  0.1487
81252W        W24190  14.901  32.856  27.977  0.1601  0.0454 -0.0840
81253W        W24191  18.198  32.571  27.155 -0.1534 -0.0770 -0.2938
81254W        W24192  17.539  30.468  25.599 -0.1404  0.3139 -0.1681
81255W        W24193  16.214  29.433  26.467  0.0692 -0.0842 -0.0573
81256W        W24194  18.441  30.377  23.355 -0.0974  0.2082  0.1729
81257W        W24195  15.989  32.027  23.472 -0.1407  0.3468 -0.0950
81258W        W24196  15.798  32.081  24.623  0.1689 -0.1647  0.2092
81259W        W24197  16.295  30.289  25.473  0.1687 -0.1605  0.3674
81260W        W24198  16.157  31.194  26.321 -0.1266 -0.0131 -0.2742
81261W        W24199  16.034  33.116  24.598 -0.1196 -0.0046 -0.1923
81262W        W24200  17.198  30.757  28.121  0.1095  0.0277  0.1679
81263W        W24201  14.687  32.885  24.945  0.1720 -0.2573 -0.0158
81264W        W24202  16.462  29.878  26.269  0.0188 -0.0595 -0.1850
81265W        W24203  14.353  31.252  24.234 -0.0417  0.1575  0.3470
81266W        W24204  16.031  30.371  23.225 -0.1684 -0.0149  0.0065
81267W        W24205  13.767  31.842  24.148 -0.2029  0.4156 -0.0355
81268W        W24206  17.145  29.998  24.946  0.1885  0.3046  0.0977
81269W        W24207  17.422  32.146  23.740 -0.3149 -0.3964  0.0345
81270W        W24208  15.294  30.645  26.098  0.3704  0.2903 -0.1605
81271W        W24209  17.069  30.374  26.946  0.0481 -0.2151 -0.0284
81272W        W24210  15.624  32.302  26.934 -0.3298  0.1718  0.5378
81273W        W24211  17.705  30.768  26.624 -0.0912  0.0305  0.0473
81274W        W24212  17.299  28.745  23.276 -0.0596  0.3768 -0.1955
81275W        W24213  18.507  33.901  26.261 -0.1974 -0.2241  0.0583
81276W        W24214  16.402  32.421  27.791  0.2079  0.1770 -0.1641
81277W        W24215  14.976  30.476  22.581  0.5681  0.0824 -0.0250
81278W        W24216  18.516  31.469  26.915  0.0506  0.1733 -0.0433
81279W        W24217  16.420  30.730  26.520  0.2420 -0.0159  0.0821
81280W        W24218  14.847  31.670  24.666 -0.0934  0.3415 -0.0456
81281W        W24219  17.553  33.838  25.820 -0.3158  0.2175  0.0890
81282W        W24220  15.885  30.888  25.460  0.2743 -0.1040  0.3082
81283W        W24221  15.062  31.049  23.986  0.2661 -0.2381  0.0410
81284W        W24222  16.132  30.740  27.196 -0.2034  0.1500 -0.1978
81285W        W24223  17.327  31.681  26.958 -0.3698  0.0049  0.0203
81286W        W24224  16.704  30.215  25.227 -0.1424  0.0280  0.2171
81287W        W24225  15.959  30.509  25.084  0.1978  0.2541 -0.0546
81288W        W24226  16.675  31.223  26.562  0.0191  0.3298  0.1662
81289W        W24227  17.734  31.950  27.352  0.3087 -0.2911 -0.0231
81290W        W24228  14.938  29.973  26.790 -0.2270 -0.1859  0.2748
81291W        W24229  16.021  32.880  27.912 -0.4946 -0.1006 -0.0648
81292W        W24230  16.621  29.745  25.125  0.1127  0.2858 -0.0274
81293W        W24231  17.523  32.904  24.859  0.0874 -0.3575 -0.2070
81294W        W24232  17.722  31.361  28.547 -0.1810  0.1083  0.2046
81295W        W24233  16.350  30.487  24.747 -0.3093 -0.0669  0.2894
81296W        W24234  14.196  31.497  25.327  0.2417 -0.0147 -0.0238
81297W        W24235  15.907  31.691  25.020 -0.3527  0.0229  0.0428
81298W        W24236  16.618  29.198  25.015  0.0182 -0.1052 -0.4378
81299W        W24237  15.807  32.468  27.407  0.1011 -0.1341 -0.3251
81300W        W24238  15.359  32.487  24.252 -0.0366 -0.0429  0.1080
81301W        W24239  14.666  31.156  27.342  0.2843  0.2694  0.0107
81302W        W24240  19.271  30.122  24.602 -0.1892  0.0462  0.0058
81303W        W24241  16.405  32.812  24.088  0.2707  0.0845 -0.1121
81304W        W24242  15.635  30.613  24.189 -0.3402 -0.1978  0.0205
81305W        W24243  17.814  28.614  27.720 -0.2764  0.3012 -0.0285
81306W        W24244  17.979  30.242  25.246 -0.2260  0.0428 -0.1674
81307W        W24245  17.811  29.928  26.229 -0.2521  0.2048  0.1142
81308W        W24246  17.211  30.041  26.510 -0.0116 -0.0070 -0.0010
81309W        W24247  18.113  33.494  25.868 -0.1034  0.0479 -0.2196
81310W        W24248  15.153  30.874  27.326 -0.0455  0.0579  0.2210
81311W        W24249  16.224  33.736  27.812  0.3263  0.0593 -0.1518
81312W        W24250  15.827  30.830  28.492 -0.0150  0.0818 -0.1388
81313W        W24251  16.889  31.317  24.839  0.0475 -0.0268  0.0553
81314W        W24252  16.122  31.087  24.326  0.0599 -0.2506  0.0763
81315W        W24253  16.270  32.236  27.336  0.0117  0.0801  0.0805
81316W        W24254  17.628  31.530  26.222  0.1380  0.0710  0.0007
81317W        W24255  15.906  32.572  24.142 -0.0634  0.1397  0.1163
81318W        W24256  16.753  31.841  24.390  0.0852  0.0993 -0.0268
81319W        W24257  16.368  31.784  25.791  0.0734 -0.1073  0.1771
81320W        W24258  18.698  32.264  25.438 -0.0416 -0.0835 -0.0025
81321W        W24259  15.936  32.051  22.352  0.0152  0.0777  0.1448
81322W        W24260  16.563  31.973  24.786  0.0533 -0.2274 -0.2612
81323W        W24261  16.112  29.616  27.575 -0.1214 -0.1636  0.0481
81324W        W24262  17.461  31.463  27.369  0.2029 -0.0339  0.1944
81325W        W24263  17.180  31.305  26.027 -0.1085  0.4157  0.0308
81326W        W24264  16.579  30.564  27.426 -0.2151  0.2615 -0.2330
81327W        W24265  16.147  31.568  26.675  0.0121  0.1121 -0.1794
81328W        W24266  16.072  31.197  27.323 -0.0918  0.1090  0.1213
81329W        W24267  15.602  29.767  28.366 -0.2875  0.0718 -0.2678
81330W        W24268  17.356  32.507  26.787 -0.3048  0.1523 -0.1058
81331W        W24269  18.511  31.786  25.861 -0.1281  0.1137 -0.3384
81332W        W24270  18.127  29.613  25.900 -0.1365 -0.1604  0.2136
81333W        W24271  18.342  29.731  24.994 -0.1690 -0.1332 -0.0373
81334W        W24272  17.463  31.391  24.971 -0.1482  0.1429  0.1076
81335W        W24273  16.242  29.490  24.985  0.0232 -0.1115 -0.1511
81336W        W24274  18.369  31.291  27.402 -0.3464  0.0123 -0.0078
81337W        W24275  15.902  31.392  24.628  0.3548  0.1071 -0.4354
81338W        W24276  17.540  30.907  27.465  0.1851 -0.2263  0.3441
81339W        W24277  16.722  33.039  23.530  0.0995 -0.1407  0.0664
81340W        W24278  18.029  32.504  25.595  0.0986  0.2876 -0.1666
81341W        W24279  17.537  30.045  25.327 -0.0702 -0.0744 -0.0682
81342W        W24280  15.858  30.189  24.680  0.2263 -0.3705 -0.0699
81343W        W24281  15.567  32.610  27.835 -0.0596  0.2306 -0.2003
81344W        W24282  14.469  29.146  23.299  0.0552  0.1702  0.1086
81345W        W24283  17.736  31.927  24.058  0.0163 -0.2409  0.4502
81346W        W24284  16.638  33.301  26.466  0.0620 -0.0025 -0.0159
81347W        W24285  18.563  30.325  27.839 -0.2427 -0.1248 -0.4870
81348W        W24286  16.611  31.291  25.264  0.2473 -0.0340 -0.2077
81349W        W24287  16.998  30.468  27.784  0.2813  0.3061 -0.0073
81350W        W24288  14.686  32.145  23.035 -0.2761 -0.1579  0.0157
81351W        W24289  16.418  30.362  26.163 -0.1668  0.0709 -0.3081
81352W        W24290  16.178  32.882  26.584  0.2108 -0.1417  0.0676
81353W        W24291  15.798  31.981  27.185 -0.0553  0.2041 -0.0282
81354W        W24292  15.682  31.962  25.966 -0.2037  0.0411 -0.0646
81355W        W24293  18.067  29.139  25.757 -0.1500  0.0208 -0.1356
81356W        W24294  18.417  31.160  25.884 -0.0589  0.1494  0.3110
81357W        W24295  18.048  31.081  25.373  0.0146  0.0731 -0.2377
81358W        W24296  18.011  30.069  26.942  0.0044 -0.1764 -0.1604
81359W        W24297  16.287  31.941  27.820  0.0426 -0.2712 -0.0160
81360W        W24298  16.194  31.672  24.347  0.0870  0.1595 -0.4731
81361W        W24299  16.536  33.390  27.582  0.3302  0.1890 -0.0398
81362W        W24300  19.515  31.816  24.617  0.4856  0.0284 -0.0823
81363W        W24301  17.496  32.343  24.877  0.0501 -0.3424  0.0025
81364W        W24302  15.728  30.373  26.257  0.0606  0.1467 -0.0282
81365W        W24303  17.488  32.274  27.722 -0.0525 -0.1193 -0.1687
81366W        W24304  17.954  32.398  26.551  0.1818 -0.0555  0.1535
81367W        W24305  15.881  30.750  24.586  0.1635  0.1435  0.2346
81368W        W24306  16.770  32.441  24.337  0.3493  0.1947  0.1716
81369W        W24307  14.100  33.257  29.825 -0.2393  0.0929  0.1591
81370W        W24308  15.496  31.004  26.759  0.0838  0.1497 -0.4129
81371W        W24309  15.270  33.698  25.619 -0.2961  0.0702 -0.0239
81372W        W24310  17.048  32.174  24.663  0.0352 -0.1148  0.0678
81373W        W24311  16.826  30.797  24.834  0.2205 -0.3251 -0.0372
81374W        W24312  17.202  32.926  25.240 -0.0803 -0.0105  0.0204
81375W        W24313  16.324  30.419  23.696  0.0938 -0.0341  0.0349
81376W        W24314  15.651  33.066  26.546 -0.0597  0.0474  0.2493
81377W        W24315  14.550  33.862  23.672  0.0433 -0.2324 -0.2985
81378W        W24316  16.213  32.336  24.742 -0.1323  0.1352 -0.1107
81379W        W24317  14.138  33.908  25.505 -0.0266 -0.0249 -0.1400
81380W        W24318  18.823  33.593  27.531  0.1067  0.2820 -0.0515
81381W        W24319  18.166  28.707  24.066  0.0481  0.0547  0.0600
81382W        W24320  18.857  31.388  25.803 -0.1564 -0.2237  0.1122
81383W        W24321  18.236  29.791  24.516 -0.1666 -0.0785  0.1142
81384W        W24322  16.607  31.772  26.652 -0.1398 -0.0519 -0.0108
81385W        W24323  16.841  30.877  26.169  0.1973 -0.0712 -0.1724
81386W        W24324  17.400  30.893  24.892  0.2483 -0.0859 -0.0632
81387W        W24325  15.759  31.510  26.983 -0.3103  0.1908  0.2720
81388W        W24326  17.427  29.515  27.876  0.1660  0.2693  0.0192
81389W        W24327  15.077  31.340  27.070  0.3795 -0.0204  0.1853
81390W        W24328  17.449  33.658  23.679 -0.1129  0.0152  0.1572
81391W        W24329  14.635  28.605  25.395 -0.1003 -0.2466 -0.5298
81392W        W24330  17.149  32.258  25.983  0.3433  0.0049  0.1744
81393W        W24331  16.775  29.538  26.555 -0.2166  0.0585 -0.0173
81394W        W24332  16.111  30.792  22.954  0.1318 -0.0285  0.1383
81395W        W24333  17.089  30.694  25.755 -0.2572  0.2437 -0.5296
81396W        W24334  16.130  31.307  25.384  0.0600  0.1777  0.0711
81397W        W24335  18.181  32.584  26.090  0.0431  0.1942  0.0514
81398W        W24336  17.317  33.001  26.549 -0.0291 -0.1981 -0.1785
81399W        W24337  15.176  29.518  25.004  0.0831 -0.3011  0.0235
81400W        W24338  18.332  31.670  24.437  0.2653 -0.0145 -0.1043
81401W        W24339  16.616  30.261  27.028 -0.0927 -0.0083  0.1013
81402W        W24340  18.864  28.110  26.933 -0.1889 -0.2729  0.0360
81403W        W24341  14.911  30.298  24.684  0.1399  0.0125  0.1081
81404W        W24342  18.971  31.941  25.960  0.1143  0.2514  0.0188
81405W        W24343  16.866  32.291  28.104 -0.2395  0.1544 -0.1957
81406W        W24344  14.934  30.355  27.248 -0.1987 -0.2578  0.0814
81407W        W24345  16.141  31.595  22.580 -0.1099  0.1887 -0.4160
81408W        W24346  18.088  31.659  27.619 -0.0721  0.0995 -0.3271
81409W        W24347  15.987  30.844  23.876  0.2258 -0.2421 -0.0626
81410W        W24348  17.369  33.217  29.201 -0.0619 -0.1088  0.0345
81411W        W24349  15.405  30.488  24.683  0.2044  0.1013  0.1162
81412W        W24350  16.960  30.275  22.864 -0.1357 -0.1130  0.1048
81413W        W24351  15.386  31.856  25.207  0.2797 -0.0219  0.0675
81414W        W24352  15.912  30.713  26.579  0.1202 -0.0747 -0.0427
81415W        W24353  18.814  34.079  25.433  0.1578  0.2223 -0.0998
81416W        W24354  15.388  28.358  25.272 -0.1129  0.0219 -0.1052
81417W        W24355  18.159  31.561  22.863  0.1225  0.2409 -0.3762
81418W        W24356  18.869  30.768  24.949 -0.0189 -0.0009  0.0149
81419W        W24357  16.186  32.220  25.824 -0.0259 -0.1152 -0.0594
81420W        W24358  19.029  32.360  26.207 -0.4899 -0.0210 -0.1271
81421W        W24359  17.669  32.931  25.370  0.2250  0.2496  0.0653
81422W        W24360  14.923  30.348  25.835  0.1085  0.0235  0.1640
81423W        W24361  17.026  33.524  27.621  0.0848 -0.2259  0.1542
81424W        W24362  19.084  33.240  25.052  0.1005  0.0713  0.0366
81425W        W24363  16.218  29.915  24.497 -0.1500 -0.0786 -0.2105
81426W        W24364  16.350  31.635  27.124 -0.2402  0.1098 -0.0209
81427W        W24365  15.140  31.930  24.291  0.2112 -0.1712 -0.0302
81428W        W24366  18.808  28.424  26.434 -0.0086 -0.0967 -0.2160
81429W        W24367  15.411  30.013  26.467  0.1607 -0.0843 -0.0376
81430W        W24368  16.983  32.193  22.331 -0.2194 -0.1778  0.2216
81431W        W24369  17.436  28.546  26.998  0.0249 -0.1995 -0.1907
81432W        W24370  16.447  32.712  28.254  0.2127 -0.2598 -0.2188
81433W        W24371  15.133  32.621  28.904  0.1420 -0.1363  0.2267
81434W        W24372  14.343  32.791  22.754  0.2846 -0.1505 -0.0325
81435W        W24373  16.620  31.174  27.241  0.0162  0.0229  0.1098
81436W        W24374  16.349  31.778  25.212  0.2998 -0.4078 -0.0316
81437W        W24375  15.948  31.514  25.851  0.0501  0.0143 -0.1711
81438W        W24376  17.399  31.959  26.390  0.0479 -0.0624  0.2203
81439W        W24377  17.457  30.352  26.070  0.2926  0.2981 -0.0848
81440W        W24378  18.748  31.687  25.357 -0.3215 -0.2961 -0.1440
81441W        W24379  16.163  29.606  25.891 -0.1921 -0.0578  0.1166
81442W        W24380  16.707  28.924  23.981 -0.2055 -0.2307  0.0826
81443W        W24381  17.763  28.081  24.827  0.1976  0.3556 -0.1430
81444W        W24382  15.683  31.482  26.303  0.0087 -0.1830 -0.2488
81445W        W24383  16.947  30.816  25.305  0.0843 -0.0474  0.0006
81446W        W24384  15.531  32.573  24.756  0.1165  0.1160  0.3523
81447W        W24385  15.472  30.470  25.649 -0.0048  0.0099  0.4059
81448W        W24386  16.186  29.483  27.025 -0.0686 -0.1488 -0.0910
81449W        W24387  15.647  29.512  27.385 -0.1995 -0.2977  0.0253
81450W        W24388  14.406  31.055  25.610 -0.1522 -0.0559  0.0744
81451W        W24389  14.862  29.603  23.124 -0.1412  0.1311 -0.0588
81452W        W24390  16.585  31.699  22.899 -0.1931  0.1312 -0.1540
81453W        W24391  15.365  31.025  25.690 -0.1168  0.0540  0.1755
81454W        W24392  15.369  30.563  23.752  0.0197  0.0080 -0.1517
81455W        W24393  17.711  32.304  26.002  0.2785  0.2908  0.1492
81456W        W24394  16.611  31.320  24.305 -0.1646  0.1318  0.0821
81457W        W24395  16.122  30.591  25.837 -0.0449 -0.1160  0.0944
81458W        W24396  17.237  32.567  27.377  0.0762 -0.0645  0.1406
81459W        W24397  14.255  31.582  23.856 -0.0011  0.0834 -0.1025
81460W        W24398  16.448  28.386  27.414 -0.3945 -0.1397  0.0379
81461W        W24399  16.509  31.550  26.225 -0.1475 -0.4866  0.0063
81462W        W24400  14.094  30.665  24.794 -0.2270 -0.0976 -0.1467
81463W        W24401  17.032  30.835  27.371 -0.0622  0.0182  0.0761
81464W        W24402  16.227  32.378  25.374 -0.0970 -0.2223  0.0731
81465W        W24403  17.370  34.538  22.898 -0.2082  0.1210 -0.4365
81466W        W24404  16.415  33.684  26.746  0.0447  0.1506 -0.1522
81467W        W24405  15.708  32.947  27.462 -0.3551  0.1026 -0.2667
81468W        W24406  15.794  30.156  27.508 -0.1508  0.2552 -0.5114
81469W        W24407  18.220  31.231  24.653  0.2219 -0.2359 -0.3298
81470W        W24408  16.804  32.388  27.510 -0.1842  0.0309  0.0678
81471W        W24409  16.522  32.751  24.599 -0.0441 -0.0783  0.2148
81472W        W24410  17.265  29.501  26.881 -0.1581  0.1077 -0.0068
81473W        W24411  16.937  30.854  24.369  0.2002 -0.0452 -0.2274
81474W        W24412  14.818  28.311  27.347  0.2172 -0.0879  0.4048
81475W        W24413  14.452  31.977  26.881  0.1432  0.0669 -0.3431
81476W        W24414  16.689  32.138  27.111  0.2678 -0.0449 -0.1322
81477W        W24415  17.125  30.194  25.612  0.0723 -0.0933  0.1545
81478W        W24416  17.212  28.712  23.755 -0.1079 -0.2564 -0.2329
81479W        W24417  18.175  32.519  24.233 -0.2431 -0.0917 -0.2844
81480W        W24418  15.770  32.450  26.127 -0.0574 -0.1211 -0.1673
81481W        W24419  17.526  30.662  24.465  0.1964 -0.1956 -0.3718
81482W        W24420  16.285  31.138  26.862  0.0188 -0.2402 -0.2641
81483W        W24421  16.849  31.653  27.086  0.0013 -0.1731  0.1033
81484W        W24422  18.009  33.216  27.901 -0.0291 -0.0373  0.1990
81485W        W24423  16.165  30.997  24.898  0.3113 -0.0454  0.1138
81486W        W24424  17.291  31.656  23.667  0.0521 -0.1515  0.0830
81487W        W24425  17.722  31.364  25.722  0.0863  0.0231 -0.2540
81488W        W24426  18.180  32.620  28.630 -0.0315 -0.0138 -0.3312
81489W        W24427  15.913  33.489  26.948 -0.2015 -0.1379  0.1932
81490W        W24428  16.791  30.796  26.856  0.2344 -0.1589  0.1543
81491W        W24429  15.368  29.285  25.560  0.0323 -0.0066  0.1551
81492W        W24430  15.614  31.468  25.477 -0.1120  0.0376  0.0304
81493W        W24431  17.753  31.511  26.697  0.0497 -0.2847 -0.1676
81494W        W24432  17.312  31.532  25.487  0.0256 -0.2023 -0.0456
81495W        W24433  16.229  30.049  24.996 -0.3742  0.0570 -0.1044
81496W        W24434  18.656  31.099  25.391  0.1516  0.0261 -0.0095
81497W        W24435  16.233  32.727  26.115 -0.0374 -0.0515 -0.1709
81498W        W24436  16.993  31.334  27.493 -0.1604 -0.2076 -0.0652
81499W        W24437  15.133  31.927  30.154  0.0123 -0.0773  0.1253
81500W        W24438  15.502  29.199  26.950  0.2491  0.3088  0.0091
81501W        W24439  18.316  30.300  27.328  0.4413 -0.1044  0.1926
81502W        W24440  17.281  31.480  28.839 -0.2205  0.2041 -0.2388
81503W        W24441  14.421  29.259  28.826  0.1272  0.0641 -0.1055
81504W        W24442  16.058  32.848  28.522  0.0201  0.1268  0.3593
81505W        W24443  14.773  29.532  30.756 -0.0669 -0.1758  0.0261
81506W        W24444  16.567  30.314  29.095  0.0628  0.1137 -0.0307
81507W        W24445  17.330  33.940  30.325 -0.0735  0.5462  0.0328
81508W        W24446  18.162  31.902  28.058 -0.2689 -0.1336 -0.0825
81509W        W24447  16.191  31.011  30.698 -0.0464  0.2302  0.0968
81510W        W24448  15.004  31.418  30.117 -0.2009 -0.2606  0.0107
81511W        W24449  16.621  28.652  28.558  0.0880 -0.2441 -0.0505
81512W        W24450  15.119  27.988  29.616  0.1056  0.0772  0.0359
81513W        W24451  16.833  30.905  29.767 -0.3881  0.2771  0.0806
81514W        W24452  15.257  31.496  26.636 -0.2008  0.0021 -0.1166
81515W        W24453  16.492  30.690  31.045 -0.0888 -0.5583  0.0072
81516W        W24454  15.430  31.330  27.395 -0.2118 -0.0031  0.2082
81517W        W24455  16.713  32.581  29.596  0.0752 -0.0773 -0.1416
81518W        W24456  16.333  29.051  31.478  0.0067  0.1174 -0.0245
81519W        W24457  16.972  30.006  31.239  0.1960  0.0917 -0.1721
81520W        W24458  14.559  33.068  29.800 -0.4715 -0.0073 -0.0073
81521W        W24459  15.857  29.299  28.380 -0.2776  0.1397  0.0892
81522W        W24460  14.867  30.033  30.960  0.2421 -0.1085 -0.1119
81523W        W24461  15.531  32.140  29.471 -0.2568 -0.1585 -0.0058
81524W        W24462  16.813  30.455  30.013 -0.2842 -0.1802  0.0133
81525W        W24463  16.219  31.548  29.241  0.1383 -0.0830  0.2548
81526W        W24464  15.473  32.250  28.728 -0.1736  0.2665 -0.0525
81527W        W24465  15.919  32.178  28.500  0.0668  0.0788 -0.1670
81528W        W24466  17.631  31.139  30.213  0.0965 -0.0142 -0.3112
81529W        W24467  15.023  31.123  28.893 -0.0382 -0.3085  0.1601
81530W        W24468  13.760  33.068  28.790  0.0920 -0.3278  0.0405
81531W        W24469  14.876  31.612  28.089 -0.0075  0.0860 -0.2657
81532W        W24470  17.392  32.726  29.019  0.2113  0.0380  0.0447
81533W        W24471  17.854  31.750  30.236  0.1217 -0.0108 -0.1519
81534W        W24472  14.038  32.997  30.630 -0.0277 -0.0474 -0.2153
81535W        W24473  14.493  30.031  28.127  0.0170  0.0661  0.0906
81536W        W24474  16.141  33.177  29.487 -0.0067  0.1875 -0.0549
81537W        W24475  14.907  31.959  29.631  0.0146  0.1213  0.1124
81538W        W24476  17.871  29.971  30.021  0.2196  0.1036  0.0271
81539W        W24477  17.328  30.700  30.190 -0.1699 -0.1581 -0.4873
81540W        W24478  15.055  31.988  28.407 -0.1555  0.4226 -0.2285
81541W        W24479  16.888  32.600  29.094  0.1437  0.0661 -0.1730
81542W        W24480  17.822  31.782  31.767  0.0978 -0.2282  0.1631
81543W        W24481  15.160  30.409  30.323  0.2555  0.3774  0.1282
81544W        W24482  19.181  28.631  30.911 -0.1251 -0.1706 -0.2699
81545W        W24483  15.890  32.512  29.441  0.2263  0.2362 -0.0566
81546W        W24484  18.390  30.757  26.277  0.0766 -0.3194  0.1257
81547W        W24485  15.921  31.098  28.975  0.3632  0.0090  0.1517
81548W        W24486  17.268  31.472  28.312 -0.0747  0.3216  0.0560
81549W        W24487  17.408  30.000  28.743  0.0879  0.0754  0.1014
81550W        W24488  15.765  32.654  30.499 -0.3255  0.2829  0.0218
81551W        W24489  15.265  28.399  29.919 -0.1563  0.0112  0.2519
81552W        W24490  17.466  32.397  30.693 -0.0584 -0.2278 -0.2082
81553W        W24491  15.812  31.272  27.794  0.1493  0.0125 -0.2678
81554W        W24492  16.616  31.383  30.078  0.0392 -0.2093 -0.0211
81555W        W24493  14.718  32.247  30.016  0.0764 -0.0446 -0.0833
81556W        W24494  14.771  30.189  29.145 -0.3473  0.3287 -0.1624
81557W        W24495  15.634  33.098  29.297  0.0789 -0.1550 -0.1367
81558W        W24496  18.298  31.903  30.407 -0.1211  0.3927 -0.1440
81559W        W24497  17.385  32.312  28.256  0.3165 -0.1147  0.0953
81560W        W24498  14.989  30.095  27.895 -0.1401  0.0891  0.3007
81561W        W24499  14.487  30.854  30.774 -0.1174 -0.2246  0.3795
81562W        W24500  14.145  31.546  29.731  0.0534 -0.1058 -0.1354
81563W        W24501  16.833  29.738  28.273 -0.2689 -0.0942  0.1826
81564W        W24502  18.496  33.274  30.342 -0.3369  0.0428 -0.1106
81565W        W24503  14.136  31.393  30.262 -0.0121  0.0301  0.0798
81566W        W24504  17.340  30.875  29.002 -0.2351 -0.2351 -0.0444
81567W        W24505  16.606  31.772  29.796  0.1230  0.1486  0.3410
81568W        W24506  17.833  30.668  30.030  0.3869 -0.1153  0.1863
81569W        W24507  17.160  31.976  27.299 -0.1413 -0.0076  0.1530
81570W        W24508  16.541  29.437  30.074  0.1650  0.2567 -0.1081
81571W        W24509  17.737  29.148  30.283 -0.3459  0.3625  0.0990
81572W        W24510  15.412  30.472  27.488 -0.1052  0.2031 -0.0085
81573W        W24511  16.703  31.807  28.205  0.0683 -0.2566 -0.2526
81574W        W24512  18.366  32.398  29.963 -0.1633 -0.2029  0.2637
81575W        W24513  17.927  31.200  27.604  0.1326  0.0983 -0.0501
81576W        W24514  14.372  33.469  31.265 -0.0654  0.0652  0.1881
81577W        W24515  15.677  29.633  30.697 -0.0534 -0.0232 -0.2783
81578W        W24516  15.356  31.840  30.589 -0.0158  0.0418 -0.2036
81579W        W24517  14.843  32.632  27.190  0.1115 -0.1316 -0.2405
81580W        W24518  13.624  30.350  28.741 -0.0402  0.0082 -0.0969
81581W        W24519  15.169  32.518  28.306 -0.1216 -0.0859  0.0164
81582W        W24520  14.254  29.671  30.536  0.1208  0.0327 -0.2405
81583W        W24521  15.815  32.159  30.441 -0.0272  0.0575  0.4594
81584W        W24522  17.735  30.841  27.969  0.2487  0.2426  0.1355
81585W        W24523  17.265  29.368  29.983 -0.0456 -0.1537 -0.2192
81586W        W24524  17.399  30.186  29.212 -0.0945  0.0034 -0.1852
81587W        W24525  15.174  30.457  28.182 -0.2198 -0.0588 -0.2941
81588W        W24526  18.683  31.660  28.399  0.1682  0.1556 -0.2678
81589W        W24527  18.809  31.952  26.900 -0.3601  0.0341  0.0661
81590W        W24528  17.896  33.552  28.364  0.5166 -0.2775 -0.3005
81591W        W24529  14.510  30.072  30.012  0.0343  0.1689  0.0484
81592W        W24530  17.030  30.267  28.285  0.0084  0.0109  0.0768
81593W        W24531  15.709  30.981  30.199  0.1186 -0.1076 -0.2131
81594W        W24532  16.291  29.070  29.002 -0.2370  0.1370  0.0899
81595W        W24533  18.481  29.665  31.425 -0.0375 -0.0435  0.0837
81596W        W24534  15.249  28.554  27.566 -0.0505  0.2377  0.0782
81597W        W24535  17.690  30.796  28.456  0.2215  0.1011 -0.1984
81598W        W24536  14.799  30.715  28.680 -0.2904 -0.0922  0.3272
81599W        W24537  13.440  31.545  29.272 -0.0835  0.0751 -0.0305
81600W        W24538  17.553  29.733  30.964 -0.1525 -0.2195 -0.0241
81601W        W24539  16.403  32.418  29.244  0.1009 -0.1513  0.3571
81602W        W24540  17.920  32.639  30.927 -0.1038  0.1784  0.0108
81603W        W24541  17.226  32.335  28.789  0.1475 -0.0814 -0.3148
81604W        W24542  16.020  29.425  31.219  0.3428  0.1073  0.0966
81605W        W24543  14.922  29.276  28.994 -0.1267  0.0044  0.1180
81606W        W24544  15.316  31.126  29.814 -0.1432 -0.0832 -0.4354
81607W        W24545  15.531  32.205  28.141 -0.0781  0.4358 -0.3279
81608W        W24546  15.995  28.520  28.101 -0.1833  0.0599 -0.1244
81609W        W24547  17.948  33.691  29.678  0.2888 -0.1409 -0.0758
81610W        W24548  15.526  31.830  29.038  0.1442  0.2398 -0.3225
81611W        W24549  13.787  30.798  29.614 -0.1859  0.0650  0.1408
81612W        W24550  19.045  28.254  31.801  0.1820  0.4582 -0.0850
81613W        W24551  18.273  29.599  30.746  0.0921  0.1438  0.2051
81614W        W24552  17.123  32.845  29.471  0.0012 -0.0813  0.0334
81615W        W24553  15.382  29.553  26.150  0.0539 -0.1206 -0.0569
81616W        W24554  16.150  32.912  29.041  0.2301  0.2473  0.1587
81617W        W24555  14.985  32.082  28.953 -0.0704 -0.1865 -0.0328
81618W        W24556  14.496  29.510  28.172  0.0672 -0.0746  0.0887
81619W        W24557  15.272  32.942  28.527  0.0510 -0.1093 -0.2036
81620W        W24558  16.955  29.064  30.223  0.1821 -0.1835 -0.0790
81621W        W24559  13.293  30.440  31.342  0.1294 -0.1574  0.1563
81622W        W24560  16.794  29.520  31.675  0.0453  0.0454 -0.1451
81623W        W24561  15.567  30.009  29.333 -0.1786 -0.1300  0.1542
81624W        W24562  13.200  30.805  29.777  0.1379  0.1365 -0.1341
81625W        W24563  17.464  29.556  29.014 -0.0331  0.3140  0.4630
81626W        W24564  18.619  30.597  29.091 -0.0536  0.3059 -0.2028
81627W        W24565  17.779  31.240  30.899 -0.1245 -0.3645 -0.0458
81628W        W24566  17.003  33.154  30.762  0.0392 -0.0114 -0.4248
81629W        W24567  18.007  30.866  27.248  0.2971  0.0390 -0.0881
81630W        W24568  16.072  30.532  27.721  0.2388 -0.0375  0.1015
81631W        W24569  13.592  31.953  30.474  0.2748  0.4570  0.0971
81632W        W24570  16.814  30.801  28.785 -0.0408 -0.2659 -0.1051
81633W        W24571  16.285  31.224  28.653 -0.0402 -0.0122  0.1360
81634W        W24572  16.855  30.958  27.808 -0.0393  0.0535  0.0903
81635W        W24573  16.804  32.883  27.418 -0.0599  0.0251 -0.0274
81636W        W24574  14.128  32.106  30.035 -0.2437  0.0690  0.1566
81637W        W24575  14.946  30.581  30.777 -0.1128 -0.1031  0.0661
81638W        W24576  17.535  32.914  30.019 -0.2067 -0.0601  0.1596
81639W        W24577  15.358  30.135  29.833  0.2876  0.0156  0.0843
81640W        W24578  16.821  31.456  28.505 -0.0977  0.0142 -0.2980
81641W        W24579  16.102  30.174  29.025  0.0046 -0.2689  0.0617
81642W        W24580  14.577  32.704  27.647 -0.1108  0.0514  0.0224
81643W        W24581  17.470  29.764  30.249 -0.0984  0.0011  0.0023
81644W        W24582  16.626  29.997  31.563  0.0502  0.0238  0.3745
81645W        W24583  17.630  29.107  30.885  0.1090 -0.0267 -0.0497
81646W        W24584  18.825  28.607  30.026 -0.1188 -0.2341  0.3838
81647W        W24585  17.036  30.210  30.421  0.0601 -0.0574 -0.1857
81648W        W24586  16.398  30.515  29.710  0.2735 -0.0765 -0.1142
81649W        W24587  15.528  29.685  27.869  0.2814  0.1724  0.3522
81650W        W24588  17.278  29.533  31.436  0.1795 -0.1924  0.0756
81651W        W24589  15.445  31.504  30.952 -0.0584  0.0513 -0.1621
81652W        W24590  13.618  31.135  28.907  0.0323 -0.0255  0.0145
81653W        W24591  16.551  32.290  31.685 -0.2550 -0.4453 -0.2046
81654W        W24592  17.671  32.839  29.504  0.3019  0.1598 -0.0632
81655W        W24593  15.909  29.825   0.482  0.2270 -0.1026 -0.2683
81656W        W24594  16.933  28.005  29.004  0.2446  0.1040  0.1420
81657W        W24595  14.403  33.061  29.327  0.0725  0.0328  0.3064
81658W        W24596  15.283  30.845  28.555 -0.2141 -0.0719 -0.0956
81659W        W24597  16.484  29.343  29.393  0.1596 -0.0814 -0.5030
81660W        W24598  16.172  31.900  30.129 -0.0062 -0.2095  0.1569
81661W        W24599  15.645  32.656  28.388 -0.0918  0.1261  0.3445
81662W        W24600  18.356  31.109  29.214 -0.0720 -0.0732  0.2225
81663W        W24601  14.374  30.933  28.412 -0.1100 -0.1645 -0.1591
81664W        W24602  18.163  28.748  28.855  0.2121 -0.2182 -0.1512
81665W        W24603  15.143  30.930  30.383 -0.1115  0.0325 -0.0953
81666W        W24604  16.048  29.964  27.913  0.1454 -0.1213  0.0195
81667W        W24605  15.851  30.861  27.987 -0.2440  0.0245  0.1078
81668W        W24606  17.359  29.109  28.892 -0.0035  0.1829  0.3206
81669W        W24607  17.393  33.081  27.621  0.0192 -0.1132  0.2420
81670W        W24608  15.369  30.671  29.911 -0.5068  0.1704 -0.2063
81671W        W24609  16.780  30.211  29.570  0.1381 -0.4151  0.0816
81672W        W24610  13.450  30.303  29.718  0.1409 -0.4250 -0.0528
81673W        W24611  17.251  30.713  30.718  0.0394  0.0325  0.1785
81674W        W24612  16.725  31.014  28.327 -0.0372  0.2508 -0.0648
81675W        W24613  17.148  31.992  30.557 -0.0035 -0.0666 -0.0110
81676W        W24614  14.144  31.269  30.841 -0.2421 -0.0795 -0.0620
81677W        W24615  13.872  30.552  26.315  0.0723  0.2861 -0.3437
81678W        W24616  18.115  29.792  29.615  0.0815  0.0753 -0.2589
81679W        W24617  16.020  31.998  29.509 -0.3102 -0.2157 -0.0096
81680W        W24618  14.244  30.995  29.369 -0.1540  0.1485 -0.5012
81681W        W24619  16.645  32.705  30.142 -0.1539  0.2076  0.2743
81682W        W24620  15.962  31.633  27.506 -0.0605 -0.0042  0.0422
81683W        W24621  15.308  31.688  29.709 -0.2432  0.1414 -0.2488
81684W        W24622  14.237  28.638   0.486 -0.0090  0.3327 -0.0051
81685W        W24623  17.295  31.012  29.698 -0.1620  0.0153  0.1150
81686W        W24624  17.087  29.993  29.948 -0.0548 -0.4082  0.3470
81687W        W24625  15.164  30.314  29.429 -0.3816 -0.2559  0.1329
81688W        W24626  15.920  30.612  29.881 -0.1817  0.1969  0.0552
81689W        W24627  17.010  31.515  29.243 -0.0240  0.0175 -0.2159
81690W        W24628  17.784  30.711  30.610 -0.1426 -0.2683 -0.2388
81691W        W24629  14.355  32.575  31.486  0.1295  0.2437 -0.0514
81692W        W24630  16.521  29.566  31.232 -0.4231  0.4543  0.3120
81693W        W24631  19.220  33.221  28.811  0.0342 -0.1594 -0.1574
81694W        W24632  19.392  29.852   0.208  0.0425 -0.0344 -0.1415
81695W        W24633  15.356  30.499  26.558  0.2119  0.3474 -0.0263
81696W        W24634  14.236  30.591  30.407  0.2236 -0.0147 -0.1119
81697W        W24635  15.557  31.759  28.488  0.1523  0.2424 -0.1549
81698W        W24636  16.216  29.630  29.745  0.1016 -0.1732 -0.1662
81699W        W24637  14.062  29.808  29.946  0.2310 -0.0611 -0.2353
81700W        W24638  15.458  31.640  27.821  0.0029 -0.0973  0.1354
81701W        W24639  13.782  31.684  30.050 -0.0578 -0.1634 -0.2364
81702W        W24640  18.579  27.578  26.878 -0.0714 -0.1783  0.1717
81703W        W24641  16.976  32.765  27.906 -0.0471  0.2852  0.2586
81704W        W24642  16.279  30.874  28.291 -0.2917 -0.0062  0.2241
81705W        W24643  18.544  28.900  29.721  0.2394 -0.1113 -0.1274
81706W        W24644  17.349  31.179  27.886  0.0197  0.1435 -0.0051
81707W        W24645  18.562  28.954  31.021  0.2428 -0.3466  0.0873
81708W        W24646  14.900  28.987  31.832 -0.0091  0.2848 -0.1285
81709W        W24647  18.517  31.438  30.667  0.1561  0.0396  0.0496
81710W        W24648  15.560  29.730  30.194 -0.1173  0.0633 -0.0195
81711W        W24649  17.764  32.961   0.576  0.0462 -0.0889 -0.1721
81712W        W24650  15.299  30.233  31.100  0.2874 -0.2225  0.1988
81713W        W24651  17.177  29.982  27.887  0.1113 -0.1394 -0.2814
81714W        W24652  16.776  27.637  26.856 -0.0736 -0.0578 -0.1105
81715W        W24653  15.872  32.212  29.021 -0.2376 -0.1028  0.1154
81716W        W24654  17.497  31.959  29.760 -0.3937  0.0783 -0.4166
81717W        W24655  15.978  32.420  28.087 -0.0364 -0.0555  0.5308
81718W        W24656  18.543  31.281  29.700 -0.0736  0.1220 -0.1052
81719W        W24657  13.698  31.383  29.657  0.1385  0.0596 -0.1358
81720W        W24658  17.432  31.834  29.212  0.2868  0.1052 -0.2146
81721W        W24659  17.479  31.243  29.321 -0.0633 -0.0218 -0.0730
81722W        W24660  14.863  30.933  29.916 -0.0255 -0.0147  0.0415
81723W        W24661  15.205  27.278  29.227  0.0979 -0.1680  0.1757
81724W        W24662  16.593  31.356  29.506 -0.0285  0.1861 -0.1003
81725W        W24663  17.607  29.346  28.526 -0.2665 -0.1200 -0.0512
81726W        W24664  16.896  29.628  30.326 -0.0051  0.2365  0.0844
81727W        W24665  18.236  29.597  29.208  0.1008  0.0571 -0.0948
81728W        W24666  15.826  30.607  31.066 -0.1473  0.1748  0.1625
81729W        W24667  15.630  29.785  31.178  0.1357  0.0652 -0.1148
81730W        W24668  16.867  31.619  30.420  0.0130  0.0503  0.4271
81731W        W24669  18.233  29.913  27.744 -0.3553  0.0520  0.2377
81732W        W24670  18.304  30.291  30.818  0.1450  0.2232  0.0059
81733W        W24671  18.172  29.639  30.181  0.0841  0.2938  0.4018
81734W        W24672  16.966  31.031  29.282 -0.3423 -0.3117  0.5618
81735W        W24673  14.427  28.747  31.041 -0.1324  0.2258  0.2430
81736W        W24674  18.719  29.442  30.986 -0.1698  0.0622  0.2691
81737W        W24675  16.314  30.127  27.480  0.3446  0.0025  0.1216
81738W        W24676  18.174  29.278  31.128 -0.1465 -0.3182  0.0228
81739W        W24677  15.354  33.147  28.021 -0.3928  0.0109  0.0029
81740W        W24678  15.914  31.273  28.346  0.1577 -0.1687  0.0843
81741W        W24679  17.492  30.317  28.364  0.3868 -0.1082 -0.0810
81742W        W24680  15.835  30.592  28.968  0.3647  0.1248  0.1573
81743W        W24681  14.807  33.468  31.001 -0.1804 -0.1052 -0.4078
81744W        W24682  16.011  29.949  27.128 -0.0875  0.3296  0.1887
81745W        W24683  16.907  31.471  27.963 -0.1434  0.0928 -0.0294
81746W        W24684  16.336  34.003  29.772  0.0101 -0.0341 -0.0858
81747W        W24685  17.661  31.838  31.106  0.0068 -0.1737 -0.2571
81748W        W24686  16.439  29.203  27.536  0.5199  0.2394 -0.1214
81749W        W24687  19.489  30.349  30.481 -0.2277 -0.1876  0.0196
81750W        W24688  14.342  31.992  28.026  0.1610 -0.0069 -0.2389
81751W        W24689  15.220  30.819  29.444  0.1909  0.1439 -0.0177
81752W        W24690  15.909  32.344  31.290 -0.0761  0.0108  0.0245
81753W        W24691  13.022  32.737  30.329 -0.0794  0.1667  0.4183
81754W        W24692  14.946  31.017  28.221 -0.1123  0.1455 -0.2347
81755W        W24693  16.670  29.849  30.772 -0.0147 -0.0408  0.1001
81756W        W24694  16.666  31.280  28.947 -0.0603  0.1644 -0.2774
81757W        W24695  15.435  31.230  29.204 -0.4076 -0.1660 -0.3653
81758W        W24696  18.197  30.443  30.310  0.0948 -0.0408  0.3736
81759W        W24697  18.094  31.683  30.870 -0.2955  0.0008  0.2249
81760W        W24698  15.103  29.402  30.280 -0.1408  0.3049  0.2132
81761W        W24699  17.340  31.619  30.147  0.2254 -0.1746  0.1021
81762W        W24700  18.670  30.398  29.559 -0.0040  0.0057  0.0205
81763W        W24701  17.567  30.275  30.233 -0.1854  0.2106 -0.2898
81764W        W24702  13.572  28.860  31.012 -0.0787  0.0565 -0.0543
81765W        W24703  16.153  31.333  30.251  0.0308 -0.3537 -0.1517
81766W        W24704  16.407  29.864  29.306  0.0599 -0.0060 -0.1129
81767W        W24705  15.809  29.132  28.873 -0.1919 -0.0039  0.1340
81768W        W24706  16.527  32.984  27.830  0.3384 -0.1781  0.0246
81769W        W24707  15.874  30.774   0.844  0.2939 -0.0189 -0.2159
81770W        W24708  15.512  31.033  30.787  0.1093  0.0827 -0.2428
81771W        W24709  14.531  31.526  29.356 -0.0620  0.0195 -0.0092
81772W        W24710  15.939  31.725  28.106 -0.0166 -0.2332 -0.1504
81773W        W24711  17.525  32.360  29.381  0.0990 -0.0227  0.0588
81774W        W24712  15.043  32.393  29.336 -0.3596 -0.4967 -0.1017
81775W        W24713  16.645  30.506  28.472  0.3418  0.1459 -0.0954
81776W        W24714  14.909  31.233  29.524  0.4697 -0.0973  0.2242
81777W        W24715  12.610  32.484  28.810  0.0128 -0.1251  0.1302
81778W        W24716  18.341  33.639  27.673  0.1842  0.1408 -0.0257
81779W        W24717  16.307  31.977  29.026  0.0233  0.0055 -0.2093
81780W        W24718  17.130  33.013  31.292 -0.1945  0.1181  0.1342
81781W        W24719  18.088  30.275  28.542  0.1628 -0.0191  0.0600
81782W        W24720  17.018  30.506  29.182  0.0312  0.0727  0.0871
81783W        W24721  18.602  30.514  28.578  0.1899 -0.3873 -0.1039
81784W        W24722  17.238  32.209  31.091  0.3020  0.0135  0.1411
81785W        W24723  15.044  30.257  28.726 -0.1916 -0.2291  0.3015
81786W        W24724  16.351  29.924  28.682 -0.0890 -0.0418  0.0639
81787W        W24725  14.371  30.002  31.885  0.0883 -0.0054 -0.0179
81788W        W24726  18.336  27.823  31.694 -0.1291  0.3563  0.2013
81789W        W24727  14.421  32.727  30.570  0.2400  0.2579 -0.2974
81790W        W24728  17.589  31.421  29.820  0.0602  0.2345  0.1825
81791W        W24729  16.539  30.090  27.993 -0.3002 -0.3740 -0.0286
81792W        W24730  15.293  30.602  29.027 -0.0699 -0.2723  0.2962
81793W        W24731  17.898  27.846  30.375 -0.1665  0.2363  0.4071
81794W        W24732  16.389  32.226  28.284 -0.0639 -0.0990 -0.0739
81795W        W24733  17.207  30.479  28.733  0.2966  0.2119  0.3343
81796W        W24734  15.772  32.431  29.960  0.3211  0.2285 -0.4268
81797W        W24735  16.239  32.439  30.256  0.0850  0.2440  0.0392
81798W        W24736  15.745  32.894  29.736 -0.2161  0.1010  0.4404
81799W        W24737  15.077  27.758  27.258  0.0357 -0.1194  0.2769
81800W        W24738  18.155  30.943  28.523 -0.0734  0.1035 -0.2651
81801W        W24739  15.959  31.165   0.012  0.4161  0.0599 -0.0088
81802W        W24740  19.104  29.163  30.882  0.0148 -0.1168  0.0505
81803W        W24741  15.372  29.301  28.713 -0.3217  0.2480 -0.2876
81804W        W24742  17.724  30.445  28.852 -0.1964 -0.0377  0.1336
81805W        W24743  16.227  32.723  29.725 -0.0091  0.1944 -0.0617
81806W        W24744  14.483  30.648  29.595 -0.1548  0.2483  0.1336
81807W        W24745  16.605  30.593  27.972  0.0749  0.0991  0.0720
81808W        W24746  18.078  31.380  29.993 -0.2608  0.1373  0.2310
81809W        W24747  17.530  31.722  27.763 -0.0418 -0.0798 -0.2436
81810W        W24748  16.162  32.625  31.596 -0.3047 -0.0908 -0.0049
81811W        W24749  15.508  29.501  29.192 -0.0330 -0.1622  0.1086
81812W        W24750  16.361  31.431  28.135  0.1758  0.2932  0.0957
81813W        W24751  14.204  30.269  28.494  0.2471  0.1169  0.0248
81814W        W24752  16.545  30.126  30.409  0.0422  0.1431  0.3087
81815W        W24753  17.675  33.044  31.254 -0.1996  0.0909 -0.2104
81816W        W24754  15.639  30.485  29.465  0.1473 -0.3070  0.2356
81817W        W24755  17.979  32.338  28.258 -0.0708 -0.3586  0.3589
81818W        W24756  17.783  30.194  29.545 -0.2264  0.2547 -0.0271
81819W        W24757  14.695  33.032  28.900 -0.4895  0.1675 -0.2611
81820W        W24758  18.342  30.740  27.658 -0.0752  0.0612 -0.0541
81821W        W24759  17.866  32.995  28.842  0.0152  0.2811  0.2122
81822W        W24760  14.521  30.150  30.503 -0.1108  0.0489 -0.0143
81823W        W24761  16.654  32.136  30.305 -0.1058 -0.1328 -0.0169
81824W        W24762  18.171  30.489  29.743  0.3634 -0.1626  0.1395
81825W        W24763  17.282  28.372  28.401  0.3633 -0.1485  0.1982
81826W        W24764  14.188  29.190  30.044  0.4199  0.0125 -0.2971
81827W        W24765  14.628  31.757  30.050  0.1034 -0.0800 -0.0308
81828W        W24766  18.812  30.160  29.062  0.0410  0.2635 -0.2536
81829W        W24767  18.874  28.894  30.523 -0.0569 -0.2618 -0.2282
81830W        W24768  16.460  31.471  27.627  0.0280 -0.1314 -0.1290
81831W        W24769  18.904  28.604  31.329  0.1877  0.3136  0.0997
81832W        W24770  16.205  31.498  29.757 -0.1099  0.0174  0.2700
81833W        W24771  15.733  31.965  30.882 -0.3053  0.1144 -0.3956
81834W        W24772  15.411  30.909  27.795 -0.0104 -0.0496  0.3604
81835W        W24773  15.420  31.356  30.414  0.0473 -0.1880 -0.1355
81836W        W24774  17.268  33.719  29.894 -0.2420  0.1538  0.0710
81837W        W24775  15.396  32.697  29.451  0.0682  0.2271 -0.3705
81838W        W24776  16.757  32.034  30.880  0.3273  0.3062  0.2201
81839W        W24777  16.112  30.608  29.341  0.0156 -0.2742  0.1646
81840W        W24778  17.548  30.665  29.425  0.3226  0.0253  0.0565
81841W        W24779  16.110  29.873  30.249  0.3983 -0.0960 -0.2753
81842W        W24780  17.865  29.828  28.728  0.1308 -0.3556  0.3973
81843W        W24781  17.768  29.853  29.244 -0.1400  0.2255  0.0238
81844W        W24782  15.752  31.583  29.470 -0.0682 -0.0508  0.4631
81845W        W24783  15.617  30.347  27.957  0.1560  0.0872 -0.3431
81846W        W24784  14.547  32.640  29.464  0.1832  0.4041  0.2489
81847W        W24785  14.345  30.595  28.922  0.0950 -0.0641 -0.2253
81848W        W24786  17.385  27.510  31.156 -0.2754  0.0601 -0.0482
81849W        W24787  16.235  30.308  30.811 -0.1614  0.0167  0.2150
81850W        W24788  14.797  30.697  29.238 -0.0390  0.1362  0.1404
81851W        W24789  14.435  29.188  29.331  0.0965  0.1932 -0.2881
81852W        W24790  16.788  31.819  28.871 -0.0335 -0.0710  0.2266
81853W        W24791  15.001  31.586  29.197  0.0329 -0.2411  0.0461
81854W        W24792  14.913  29.829  30.339 -0.0687 -0.0002 -0.0165
81855W        W24793  18.021  31.602  29.536 -0.0225  0.0444 -0.1209
81856W        W24794  17.648  31.877  28.387 -0.0698  0.0825  0.3159
81857W        W24795  16.830  30.084  28.731 -0.0918 -0.0846 -0.1399
81858W        W24796  17.463  32.929  30.774 -0.0198 -0.1038  0.0790
81859W        W24797  14.605  31.607  27.175 -0.1434 -0.1271  0.2035
81860W        W24798  16.818  29.950   0.207 -0.2083 -0.1335 -0.1343
81861W        W24799  15.435  30.484  30.714 -0.1587  0.3247 -0.0775
81862W        W24800  13.976  30.421  26.951 -0.1547  0.3888 -0.0817
81863W        W24801  15.896  30.627  30.516 -0.1433 -0.0375 -0.0237
81864W        W24802  16.775  32.288  28.648 -0.2239 -0.1432  0.0948
81865W        W24803  17.440  32.796  28.152  0.1075  0.0073 -0.0390
81866W        W24804  16.268  31.770  28.492  0.1700  0.0909  0.0018
81867W        W24805  14.545  31.526  31.422  0.1451 -0.0102 -0.0177
81868W        W24806  15.807  30.110  30.681  0.2465  0.0425  0.0977
81869W        W24807  16.846  31.886  27.682  0.2350 -0.0941  0.0396
81870W        W24808  15.914  31.423  31.068 -0.1894 -0.0754  0.1116
81871W        W24809  17.140  33.548  28.640  0.1893 -0.1230 -0.4400
81872W        W24810  17.722  29.520  29.900  0.0939 -0.1878 -0.0465
81873W        W24811  16.785  29.709  29.698  0.2701 -0.0040  0.0760
81874W        W24812  16.739  28.755  31.209  0.0639  0.0190  0.3623
81875W        W24813  15.080  31.062  31.518 -0.0728 -0.2499 -0.2594
81876W        W24814  16.823  30.374  30.880 -0.2715  0.1856 -0.1807
81877W        W24815  14.702  30.655  30.322  0.0141 -0.0784 -0.1117
81878W        W24816  16.987  29.329  28.021  0.1010 -0.0467 -0.0842
81879W        W24817  15.302  31.405  28.222 -0.1845 -0.2714 -0.2287
81880W        W24818  15.611  31.928  30.032  0.0701 -0.2220 -0.3074
81881W        W24819  16.509  30.914  29.328  0.0491  0.0864  0.0995
81882W        W24820  16.573  31.167  31.328  0.1337 -0.1979 -0.0922
81883W        W24821  17.167  31.708  30.956 -0.1330 -0.1597 -0.0922
81884W        W24822  18.451  30.739  31.925 -0.0066 -0.2884  0.1555
81885W        W24823  15.437  31.305  28.724 -0.1989  0.1186  0.3850
81886W        W24824  17.055  32.673  28.512  0.4628  0.0465 -0.0544
81887W        W24825  18.052  32.359  30.328  0.0319  0.4165 -0.2017
81888W        W24826  17.470  31.675   0.252  0.1377 -0.1014  0.3055
81889W        W24827  15.845  32.242  31.772 -0.0174  0.1978 -0.2129
81890W        W24828  17.098  32.125  29.416  0.1000 -0.1462  0.2371
81891W        W24829  15.171  29.697  29.808 -0.1462  0.0494  0.2240
81892W        W24830  14.906  30.365  29.856 -0.0421  0.2175 -0.3246
81893W        W24831  15.674  31.463  29.977  0.5647  0.0948 -0.0450
81894W        W24832  17.258  30.437  29.743  0.0475 -0.5221 -0.1308
81895W        W24833  16.427  30.051  29.922 -0.1111  0.2002  0.0094
81896W        W24834  16.789  30.085  27.570 -0.0461  0.0634  0.3651
81897W        W24835  16.308  33.871  30.255  0.0037  0.0916  0.2707
81898W        W24836  17.734  32.253  31.725 -0.0317  0.1383  0.1867
81899W        W24837  18.619  29.324  30.380  0.1072 -0.2394 -0.3366
81900W        W24838  15.817  31.625  30.429  0.1627 -0.4173 -0.0363
81901W        W24839  15.256  30.472  31.643 -0.3010 -0.0512  0.0468
81902W        W24840  14.988  32.296  31.301 -0.1633  0.1434 -0.1256
81903W        W24841  16.747  30.527  31.474 -0.1516 -0.2774  0.4076
81904W        W24842  14.594  32.007  31.497  0.0459  0.2997 -0.2133
81905W        W24843  18.246  30.358  31.361  0.1585 -0.1692 -0.1474
81906W        W24844  15.781  28.390  31.615 -0.2463 -0.0954  0.1207
81907W        W24845  17.761  29.857   0.140 -0.0752 -0.3617  0.2831
81908W        W24846  16.821  30.696  30.458  0.0190  0.0251  0.1698
81909W        W24847  16.342  30.855  30.213  0.1581  0.4071  0.2483
81910W        W24848  15.228  28.106  31.270  0.2849 -0.5023  0.0346
81911W        W24849  18.057  30.869   2.422 -0.1373  0.0292  0.1667
81912W        W24850  15.699  31.729  31.435  0.2359 -0.0408 -0.1157
81913W        W24851  18.015  30.920  31.457  0.1243  0.2097  0.0495
81914W        W24852  15.160  32.698  31.568 -0.1541  0.2471 -0.1117
81915W        W24853  14.267  32.345   0.057 -0.1961 -0.2093  0.3225
81916W        W24854  16.652  31.544  31.625  0.2077 -0.1134 -0.2007
81917W        W24855  14.414  28.526  31.497  0.3459  0.1686  0.0445
81918W        W24856  14.607  29.448  31.671  0.6638  0.0596 -0.1645
81919W        W24857  15.610  30.286  31.967  0.0337  0.2465  0.0519
81920W        W24858  15.543  31.559   1.182  0.2237  0.0997 -0.3370
81921W        W24859  17.593  28.982  31.955 -0.0697  0.0637  0.0238
81922W        W24860  17.154  29.016  30.857 -0.0917 -0.1502 -0.1826
81923W        W24861  17.770  29.341   0.281 -0.1220  0.0188  0.1384
81924W        W24862  18.124  29.868  31.183 -0.2623  0.1253  0.1092
81925W        W24863  15.316  30.685  31.156 -0.0603  0.0527  0.1240
81926W        W24864  13.996  32.109  31.652  0.0384  0.0876  0.1623
81927W        W24865  14.965  31.490  30.637  0.0530 -0.0683 -0.0330
81928W        W24866  15.835  31.013  29.487 -0.2519 -0.2893 -0.0739
81929W        W24867  17.016  31.443  29.752  0.0488  0.0805  0.1747
81930W        W24868  15.298  29.593   1.062 -0.0552 -0.1337 -0.1597
81931W        W24869  16.904  31.089  31.687 -0.3038  0.2364 -0.0789
81932W        W24870  18.227  28.599  31.910  0.1275 -0.0887 -0.2295
81933W        W24871  15.455  29.524   0.547 -0.1682 -0.1262 -0.1961
81934W        W24872  15.003  31.501  31.196 -0.0153 -0.2201  0.1121
81935W        W24873  14.506  31.481   0.249 -0.3994 -0.1905 -0.1320
81936W        W24874  17.920  31.059   0.748  0.0247  0.1351 -0.0793
81937W        W24875  19.069  30.893  31.337  0.0157  0.3922 -0.0189
81938W        W24876  16.257  31.487  30.687  0.0832  0.1174  0.1109
81939W        W24877  18.550  30.488   0.569 -0.2255  0.1610  0.0123
81940W        W24878  18.297  31.187   0.051 -0.1061  0.1488  0.0887
81941W        W24879  15.711  27.952  31.233  0.2061 -0.1085  0.2176
81942W        W24880  16.119  33.385  30.561  0.1710  0.1916  0.2620
81943W        W24881  15.677  30.276  30.176 -0.3351  0.2344  0.0233
81944W        W24882  17.937  31.064  29.574  0.0951 -0.3476 -0.1321
81945W        W24883  15.879  27.532  31.886  0.0004  0.0719  0.2944
81946W        W24884  17.857  31.320  31.733  0.0351 -0.2758  0.2077
81947W        W24885  18.230  32.423   0.437 -0.0824  0.2832 -0.4448
81948W        W24886  14.255  31.042   0.231 -0.2221 -0.2607  0.0233
81949W        W24887  17.565  31.734   2.715 -0.1227 -0.0378  0.2130
81950W        W24888  18.399  29.404  29.732 -0.0757  0.0330  0.1456
81951W        W24889  15.036  29.630  31.198  0.0339  0.2208 -0.2976
81952W        W24890  17.317  31.462  31.785  0.0867  0.2183 -0.2257
81953W        W24891  17.622  28.519  31.026 -0.0053  0.2124 -0.3618
81954W        W24892  18.228  29.083  30.656  0.2394  0.3259 -0.1173
81955W        W24893  17.106  31.151  30.304  0.0912 -0.1737  0.4750
81956W        W24894  15.272  33.160  29.743 -0.0504 -0.1677  0.0558
81957W        W24895  15.497  31.404   0.159 -0.1115  0.0690  0.0656
81958W        W24896  13.655  31.751   1.580 -0.0734  0.0177  0.1288
81959W        W24897  14.140  31.160  31.674 -0.1309  0.0960 -0.0017
81960W        W24898  15.252  32.824  30.636  0.3112  0.2959  0.2053
81961W        W24899  14.703  30.823   0.448  0.1887  0.3136 -0.1723
81962W        W24900  14.871  28.645  31.481  0.1685  0.1809 -0.2397
81963W        W24901  18.360  30.396   1.111  0.2241  0.2168 -0.0857
81964W        W24902  18.341  31.316   0.529 -0.0343  0.1974  0.1197
81965W        W24903  17.511  30.904  31.237  0.3004  0.0784  0.0154
81966W        W24904  15.302  33.002  16.798  0.2845  0.0705 -0.0007
81967W        W24905  17.846  32.650  16.507  0.0835 -0.1168  0.1390
81968W        W24906  17.633  33.522  16.919 -0.2854  0.1932  0.1072
81969W        W24907  14.364  34.280  17.339 -0.2821 -0.0460 -0.2029
81970W        W24908  15.662  30.515  18.331  0.4091 -0.1629 -0.0340
81971W        W24909  16.956  33.805  17.262 -0.1040  0.1464 -0.0161
81972W        W24910  17.154  33.276  17.138  0.1746 -0.0523  0.3841
81973W        W24911  16.408  33.649  16.498  0.0508  0.4447 -0.0888
81974W        W24912  13.366  33.900  17.361 -0.2046  0.0418 -0.2073
81975W        W24913  17.067  34.301  19.118 -0.4001  0.1983  0.0038
81976W        W24914  14.042  34.241  15.661  0.2857 -0.0834 -0.0985
81977W        W24915  15.142  34.543  18.497  0.2612 -0.0323  0.2542
81978W        W24916  16.064  34.147  16.653 -0.1317 -0.0778  0.1640
81979W        W24917  14.460  32.664  18.993 -0.0979 -0.2174  0.0812
81980W        W24918  16.557  33.915  19.336  0.3990  0.0369  0.1756
81981W        W24919  15.961  33.427  15.687  0.1681  0.1791 -0.0014
81982W        W24920  15.931  33.619  17.976  0.1509  0.0308  0.1190
81983W        W24921  16.762  33.942  18.022  0.1990 -0.1301 -0.0492
81984W        W24922  17.321  32.313  17.754  0.2529  0.0730  0.1612
81985W        W24923  17.279  33.854  16.793  0.1050  0.3228 -0.2176
81986W        W24924  16.963  34.218  18.648  0.0032 -0.2162 -0.2804
81987W        W24925  16.472  34.230  18.386  0.0477  0.1494  0.1097
81988W        W24926  16.366   0.635  17.926 -0.0321  0.0410 -0.0884
81989W        W24927  18.447  33.520  18.887 -0.0262  0.0673 -0.0625
81990W        W24928  17.008  34.245  15.877  0.2980 -0.1243  0.1791
81991W        W24929  15.988  32.105  14.923 -0.1997  0.1606  0.0943
81992W        W24930  17.739  33.146  16.490 -0.1451  0.0039  0.3755
81993W        W24931  17.351  32.854  16.481 -0.1826  0.2581 -0.0897
81994W        W24932  15.826  33.989  18.300 -0.2293  0.0197  0.4209
81995W        W24933  15.373  34.167  16.055 -0.2396 -0.1278  0.0898
81996W        W24934  18.547  31.967  17.273 -0.2796 -0.2269  0.3646
81997W        W24935  15.172  34.431  17.029 -0.3148  0.1391 -0.0643
81998W        W24936  15.466  33.777  17.470  0.0723  0.2108  0.2152
81999W        W24937  14.383   0.456  19.477 -0.3046  0.0242  0.1432
82000W        W24938  14.834  33.764  18.630 -0.1303  0.1125 -0.2370
82001W        W24939  15.696  32.187  16.904 -0.0891 -0.1352  0.1423
82002W        W24940  18.116   0.085  17.824  0.0086 -0.0948  0.1746
82003W        W24941  17.467  33.431  18.390 -0.2794  0.1723 -0.1729
82004W        W24942  17.192  32.948  17.742 -0.0816  0.0204  0.1374
82005W        W24943  17.973  31.993  16.564 -0.1446  0.2026  0.0851
82006W        W24944  16.707  33.036  17.642  0.3787 -0.1792  0.2099
82007W        W24945  13.713  32.420  18.023  0.0948  0.1691  0.0844
82008W        W24946  18.092  31.408  16.056  0.1066 -0.1290 -0.3382
82009W        W24947  14.637  33.329  19.060  0.1961 -0.0448  0.3245
82010W        W24948  17.570  32.448  16.884 -0.0248  0.1499 -0.4292
82011W        W24949  16.685  34.043  16.717 -0.0451 -0.2562 -0.2975
82012W        W24950  14.102  33.329  19.711  0.1068  0.2183 -0.1800
82013W        W24951  14.813  33.778  16.826  0.1319 -0.1819  0.1806
82014W        W24952  15.683  33.520  19.196 -0.2287 -0.0684  0.0207
82015W        W24953  15.525  33.488  16.597  0.2483 -0.2097 -0.0677
82016W        W24954  18.356  33.149  18.077 -0.0480  0.3929 -0.0417
82017W        W24955  15.234  32.589  15.631 -0.4212  0.1285  0.0762
82018W        W24956  17.572  31.446  17.885 -0.1377 -0.1383  0.1127
82019W        W24957  16.540  34.648  17.459 -0.1452 -0.3401 -0.2679
82020W        W24958  18.091  32.599  18.484  0.2596 -0.1764  0.2457
82021W        W24959  15.829  33.137  16.643  0.0022  0.2108  0.0925
82022W        W24960  14.863  33.767  16.113 -0.1000 -0.2858 -0.0761
82023W        W24961  17.083  32.297  16.180 -0.1491  0.1418  0.1994
82024W        W24962  16.565  32.521  17.935  0.1405  0.1491  0.1647
82025W        W24963  17.581  32.956  16.948  0.1513  0.0582  0.1462
82026W        W24964  15.337  33.481  16.103  0.0171  0.1201 -0.1523
82027W        W24965  15.136  34.172  17.699  0.2764  0.0953  0.0358
82028W        W24966  17.431  32.651  17.342  0.0991  0.0142  0.0501
82029W        W24967  13.447   0.090  20.535 -0.0501  0.1660 -0.1236
82030W        W24968  16.325  34.197  18.991  0.3437  0.1094 -0.4032
82031W        W24969  14.071  33.711  16.274 -0.2000  0.2714 -0.1169
82032W        W24970  15.560  32.298  17.869  0.1718  0.2159  0.0853
82033W        W24971  16.731  33.299  16.183 -0.0425 -0.3194  0.1746
82034W        W24972  18.784  33.290  16.699  0.0135 -0.2249 -0.0720
82035W        W24973  16.943  32.840  16.131 -0.3163  0.0987 -0.0434
82036W        W24974  16.482  34.068  16.288  0.0859 -0.0373 -0.0126
82037W        W24975  15.653  32.001  18.671  0.0913  0.0882 -0.2174
82038W        W24976  16.744  33.477  16.883 -0.3139 -0.0156 -0.2412
82039W        W24977  17.474  31.587  16.558  0.1056 -0.1155 -0.4498
82040W        W24978  17.432  32.089  18.193  0.2559  0.0444 -0.3913
82041W        W24979  17.958  33.157  17.209 -0.3058  0.2672 -0.0338
82042W        W24980  17.243  34.345  18.070 -0.5027  0.3408 -0.4007
82043W        W24981  17.604  34.582  18.452 -0.0358  0.4586 -0.2274
82044W        W24982  16.107  32.275  18.494 -0.0002  0.0378 -0.1825
82045W        W24983  16.567  34.696  18.755 -0.2226  0.1646  0.1051
82046W        W24984  15.069  34.355  16.550  0.1937  0.1955 -0.0988
82047W        W24985  18.212  33.063  18.602  0.0697  0.4588  0.1125
82048W        W24986  17.201  34.671  18.726 -0.1549 -0.2025 -0.0709
82049W        W24987  17.129  33.323  16.574  0.0149 -0.1910 -0.1896
82050W        W24988  16.130  31.687  19.473 -0.0465  0.1032  0.1145
82051W        W24989  16.192  31.683  18.614  0.1255  0.4365  0.0874
82052W        W24990  16.137  32.335  17.183  0.0327 -0.0172  0.3711
82053W        W24991  15.340  33.959  17.033  0.1425 -0.2908 -0.1922
82054W        W24992  16.739  32.915  17.111  0.0765  0.1759 -0.2657
82055W        W24993  13.887  33.114  20.123 -0.1546 -0.0784 -0.1134
82056W        W24994  16.199  33.141  17.403 -0.1951  0.0190  0.3406
82057W        W24995  15.881  33.933  18.835  0.2506  0.0647 -0.0539
82058W        W24996  16.497  32.754  16.184  0.0994 -0.0734 -0.0843
82059W        W24997  15.135   0.333  18.483  0.1757  0.1593  0.0132
82060W        W24998  14.187  34.259  16.776 -0.0769 -0.1114 -0.1776
82061W        W24999  17.857  33.891  18.001 -0.0771  0.2808  0.1454
82062W        W25000  16.271  33.171  16.418 -0.0144  0.3273  0.0289
82063W        W25001  15.884  33.338  16.195  0.0575 -0.0340 -0.0703
82064W        W25002  16.060  33.033  17.878 -0.1144  0.0446  0.0483
82065W        W25003  16.899  32.566  17.586  0.0269 -0.1333 -0.1696
82066W        W25004  15.463  33.271  17.899  0.1893 -0.1278  0.1237
82067W        W25005  16.271  34.050  17.948 -0.1913 -0.0630  0.1432
82068W        W25006  17.466  34.439  19.439  0.2033 -0.2504  0.2178
82069W        W25007  15.754  32.960  18.454  0.1050  0.0231 -0.0003
82070W        W25008  17.566   0.659  18.173 -0.2859 -0.1423  0.0560
82071W        W25009  16.019  34.496  17.616 -0.0468  0.1113  0.0928
82072W        W25010  18.432  31.712  16.848  0.2100 -0.1595  0.1830
82073W        W25011  16.247  33.330  16.937  0.1953  0.1825 -0.0420
82074W        W25012  18.621  31.444  18.110  0.0285 -0.0555 -0.4215
82075W        W25013  16.914  34.609  16.903 -0.0593 -0.0069 -0.0297
82076W        W25014  18.966  33.052  18.380 -0.0255 -0.2369 -0.1652
82077W        W25015  16.072  32.687  18.221  0.1327 -0.0387  0.0983
82078W        W25016  14.331  33.110  20.310 -0.0983 -0.1419  0.1095
82079W        W25017  14.753  33.283  18.574  0.0658 -0.1148 -0.0209
82080W        W25018  16.276  32.807  16.850 -0.0203 -0.1547  0.5334
82081W        W25019  16.163  31.746  16.049  0.3596 -0.0704  0.1112
82082W        W25020  16.118  33.282  18.328  0.2570 -0.1200  0.3730
82083W        W25021  18.387  34.293  17.959 -0.1800  0.0897 -0.0762
82084W        W25022  14.180  32.267  18.210 -0.1039  0.0251  0.2210
82085W        W25023  17.218   0.713  17.219 -0.1604  0.2050 -0.0458
82086W        W25024  15.633  32.354  18.333  0.2825  0.0955 -0.2239
82087W        W25025  16.763  31.466  16.922 -0.0138  0.0045 -0.2716
82088W        W25026  16.455  31.910  18.201  0.1731 -0.0777  0.1724
82089W        W25027  17.235  33.803  18.086 -0.0638  0.0199  0.1755
82090W        W25028  15.316  33.981  18.490  0.1926  0.1274 -0.0570
82091W        W25029  14.560  33.443  20.005 -0.4496 -0.2453  0.0895
82092W        W25030  17.742  33.126  15.860 -0.2205 -0.1959  0.1725
82093W        W25031  17.365  34.229  17.209 -0.1753 -0.0854  0.0399
82094W        W25032  19.322  33.425  17.000  0.0221 -0.2611  0.1098
82095W        W25033  16.553  31.937  16.836 -0.1520 -0.1304  0.0612
82096W        W25034  15.586  32.801  18.019  0.1857  0.0663  0.2873
82097W        W25035  17.133   0.602  18.931  0.3158 -0.5365 -0.1515
82098W        W25036  15.216  30.825  16.370  0.1598 -0.0150 -0.2485
82099W        W25037  17.529  33.636  18.837  0.2211  0.0293 -0.3029
82100W        W25038  18.504  33.114  17.046 -0.1011 -0.3840 -0.0522
82101W        W25039  14.757  33.233  16.072  0.1226  0.4532  0.2412
82102W        W25040  14.864  34.033  17.275  0.2707  0.4053 -0.0390
82103W        W25041  15.670  32.578  15.829  0.0464 -0.0501 -0.2787
82104W        W25042  16.141  32.244  16.691 -0.1183 -0.0049  0.0179
82105W        W25043  17.699  32.460  18.866  0.0346  0.1053 -0.2576
82106W        W25044  16.074  31.827  17.000 -0.3306  0.0493 -0.0236
82107W        W25045  16.409  33.498  17.882  0.2768  0.3668  0.2174
82108W        W25046  17.484   0.301  17.322 -0.2604  0.1218 -0.0492
82109W        W25047  15.940  34.500  18.153  0.1005 -0.0680 -0.0631
82110W        W25048  18.357  34.666  18.768  0.0606  0.1926  0.1775
82111W        W25049  15.966  33.678  16.700  0.0592  0.3831 -0.2036
82112W        W25050  14.477  34.000  19.008  0.0886 -0.0659  0.2617
82113W        W25051  16.188  32.411  15.827  0.0839  0.1376  0.0687
82114W        W25052  15.177  33.005  15.866  0.1260 -0.2703 -0.2552
82115W        W25053  17.081  30.746  16.373 -0.0495  0.3476 -0.2418
82116W        W25054  17.892   0.516  17.768 -0.0233  0.0453 -0.3187
82117W        W25055  17.409  33.638  17.471  0.1781  0.0651  0.1193
82118W        W25056  16.950  33.594  17.728 -0.3352  0.1432  0.0261
82119W        W25057  16.695  34.273  17.166  0.0601 -0.0834  0.0141
82120W        W25058  16.287  33.698  19.028 -0.0180  0.0951 -0.1859
82121W        W25059  17.804  34.028  19.947  0.1640  0.1726  0.3418
82122W        W25060  14.622  34.547  15.710 -0.0497 -0.1101  0.3367
82123W        W25061  15.528  34.290  17.443 -0.1528  0.2048 -0.0954
82124W        W25062  18.124  33.019  19.488 -0.0355 -0.2249 -0.0115
82125W        W25063  17.112  33.664  18.576 -0.0235  0.0142  0.1919
82126W        W25064  13.046  34.092  16.098 -0.0146  0.0306 -0.1322
82127W        W25065  18.468  34.026  16.615  0.2992 -0.0176  0.0454
82128W        W25066  15.807  32.421  18.932 -0.0806  0.1143 -0.0939
82129W        W25067  17.942  33.559  17.507 -0.0833 -0.1626 -0.1478
82130W        W25068  16.081  33.658  17.493 -0.0631 -0.0964 -0.0434
82131W        W25069  18.321  33.612  17.128 -0.1823  0.1899  0.2372
82132W        W25070  15.503  31.485  18.270 -0.0051  0.3806 -0.2196
82133W        W25071  16.793  32.941  16.553  0.0473  0.1683 -0.0280
82134W        W25072  18.610   1.098  18.943 -0.0325 -0.0861  0.2611
82135W        W25073  17.725  33.724  15.917  0.0912 -0.0996  0.1001
82136W        W25074  15.916  31.824  15.668  0.0840  0.3156  0.0871
82137W        W25075  16.747  33.772  15.937 -0.0114  0.1819  0.0483
82138W        W25076  15.365   0.184  16.443 -0.0526 -0.3887 -0.2013
82139W        W25077  15.550   0.322  16.875 -0.1559  0.1099 -0.1313
82140W        W25078  16.382  33.847  17.111 -0.0364 -0.1101  0.0636
82141W        W25079  18.638   1.050  18.258  0.0073  0.2753  0.0140
82142W        W25080  17.873  33.997  16.619  0.2915  0.2356  0.2102
82143W        W25081  15.117  32.135  18.678 -0.0366 -0.0304  0.0831
82144W        W25082  15.717  32.660  16.711 -0.1062  0.2079 -0.1123
82145W        W25083  15.368  33.767  17.933 -0.0971 -0.2432 -0.1734
82146W        W25084  18.221  32.630  17.192 -0.1148 -0.0951 -0.0024
82147W        W25085  18.330  33.650  17.907 -0.1250 -0.1785 -0.0136
82148W        W25086  17.757  34.352  18.029 -0.2070 -0.0740 -0.3223
82149W        W25087  17.110  31.181  16.130  0.1707  0.0458  0.0325
82150W        W25088  15.954  31.381  16.847 -0.4034  0.0976 -0.0921
82151W        W25089  17.038  31.992  16.780  0.0479 -0.1018 -0.2779
82152W        W25090  17.519  32.712  16.061 -0.0701 -0.2282  0.0246
82153W        W25091  12.972   0.029  19.458 -0.1600  0.0353  0.2145
82154W        W25092  14.563  34.478  16.391  0.0661 -0.2120  0.0900
82155W        W25093  16.043  33.241  19.758 -0.1806 -0.0100  0.1086
82156W        W25094  14.522   0.474  20.008 -0.0931 -0.1511 -0.1931
82157W        W25095  13.767  34.504  16.901  0.3896  0.0814  0.2792
82158W        W25096  14.284  34.604  16.018 -0.0301  0.1753 -0.0755
82159W        W25097  14.491  31.845  18.382  0.1629  0.1539 -0.0370
82160W        W25098  14.092  34.170  18.705 -0.0396 -0.0618 -0.0824
82161W        W25099  16.330  32.219  15.265 -0.1905  0.2069 -0.0534
82162W        W25100  15.541  33.074  18.932 -0.2228  0.1166 -0.3648
82163W        W25101  14.938  34.484  19.915 -0.4887  0.3550  0.1267
82164W        W25102  14.418  33.625  15.928  0.2322  0.2102 -0.2927
82165W        W25103  16.049   0.417  17.053 -0.0381 -0.0647  0.3578
82166W        W25104  14.551  32.246  19.298  0.1792  0.1930  0.1463
82167W        W25105  18.124  32.730  19.015 -0.3266  0.2395  0.0956
82168W        W25106  15.791  33.916  17.120 -0.0903  0.0115 -0.2542
82169W        W25107  15.214  33.482  19.414 -0.0574  0.1827 -0.0142
82170W        W25108  15.214  33.512  17.034  0.0526  0.0628 -0.1558
82171W        W25109  18.043  33.549  16.665 -0.1477  0.3429 -0.1266
82172W        W25110  15.708  33.420  17.148  0.4266  0.2038  0.0796
82173W        W25111  16.170  33.722  16.014  0.0256  0.1707 -0.3374
82174W        W25112  17.786  33.944  17.195  0.0111  0.1119  0.1578
82175W        W25113  15.945  34.313  16.196  0.0096  0.0466  0.0443
82176W        W25114  18.110  32.977  16.785  0.2015 -0.2095 -0.0019
82177W        W25115  13.209  32.720  18.166  0.2147 -0.0049 -0.2000
82178W        W25116  14.964   0.036  16.123  0.2978 -0.1208 -0.1035
82179W        W25117  15.732   1.088  16.221  0.1057  0.2036 -0.3475
82180W        W25118  17.103  32.648  16.915 -0.0099 -0.0526 -0.2380
82181W        W25119  15.317  31.980  18.250 -0.2994 -0.1356  0.0451
82182W        W25120  15.406  31.631  16.574  0.1949  0.0609 -0.2977
82183W        W25121  14.894   0.473  20.656 -0.1885  0.4861  0.1893
82184W        W25122  17.502  34.052  18.471 -0.1960 -0.1670  0.2071
82185W        W25123  17.587  34.404  21.001 -0.0383 -0.0582 -0.0831
82186W        W25124  15.280  33.123  21.721 -0.3790 -0.1196 -0.3662
82187W        W25125  14.215  31.712  22.993 -0.1426 -0.2561  0.0146
82188W        W25126  16.587  33.909  17.558  0.0779  0.0141  0.2039
82189W        W25127  14.681  34.687  23.383 -0.4298 -0.0480 -0.1254
82190W        W25128  16.162  33.425  20.591  0.2354  0.3500  0.2433
82191W        W25129  13.630  33.721  23.052  0.2751 -0.0454  0.0762
82192W        W25130  16.791   0.204  21.128 -0.0619 -0.1122 -0.1326
82193W        W25131  16.101   0.409  20.162  0.1218  0.0099 -0.0023
82194W        W25132  15.263   0.196  22.894  0.1137 -0.0817  0.1694
82195W        W25133  14.028  34.295  20.030  0.0510  0.0874  0.1059
82196W        W25134  16.202  33.638  21.942  0.4507 -0.0946 -0.3122
82197W        W25135  16.637  33.232  21.996 -0.1539  0.0555  0.1111
82198W        W25136  14.537  33.587  19.489  0.1158 -0.1696 -0.1961
82199W        W25137  14.639   0.746  21.114  0.2517 -0.2739 -0.0752
82200W        W25138  16.081   0.349  21.595  0.1965  0.0937  0.0212
82201W        W25139  16.854  34.446  21.678 -0.3906  0.2211 -0.2518
82202W        W25140  17.819   0.558  21.114 -0.3964 -0.2015 -0.0809
82203W        W25141  17.582   0.215  22.728  0.2702  0.0450 -0.1686
82204W        W25142  15.609  34.300  24.089  0.1577  0.2582  0.2535
82205W        W25143  17.716   0.292  20.312 -0.0426 -0.1514 -0.0233
82206W        W25144  19.739  33.818  23.208  0.0284  0.1644  0.2593
82207W        W25145  18.683   0.033  17.823  0.2740  0.1779  0.0672
82208W        W25146  16.594  34.511  19.285 -0.0683  0.0379 -0.2827
82209W        W25147  18.364   0.937  19.978  0.0843  0.1524 -0.2978
82210W        W25148  16.845  32.308  20.995 -0.1579 -0.0912 -0.2458
82211W        W25149  16.184  34.659  23.062  0.0446  0.0238  0.2231
82212W        W25150  17.281  33.852  20.053  0.0266  0.2729 -0.0461
82213W        W25151  16.066   0.245  21.145 -0.2283 -0.3899  0.4053
82214W        W25152  14.729   0.413  21.498  0.3265 -0.0736  0.1034
82215W        W25153  14.958  33.916  20.194 -0.1280 -0.1105  0.2867
82216W        W25154  14.474   0.027  25.078  0.0984 -0.1900  0.1548
82217W        W25155  15.063   0.276  23.315  0.0703 -0.3295 -0.2050
82218W        W25156  17.186  33.209  18.897  0.0366 -0.1352  0.2863
82219W        W25157  18.874  33.776  21.245  0.2372  0.0362 -0.1932
82220W        W25158  16.999  33.593  20.364 -0.3666 -0.0021 -0.3989
82221W        W25159  18.121  34.145  22.431  0.0210  0.2562  0.1376
82222W        W25160  18.125  34.486  18.322 -0.1136  0.0504  0.0682
82223W        W25161  16.255  33.660  23.011 -0.1519 -0.1304  0.0159
82224W        W25162  13.136  34.275  22.460 -0.1549  0.0560 -0.0835
82225W        W25163  18.093  34.321  20.804  0.0474  0.1704 -0.0720
82226W        W25164  14.216  33.020  23.371 -0.1203 -0.1538  0.1290
82227W        W25165  16.692  33.042  21.159 -0.1950  0.2389 -0.2228
82228W        W25166  17.904  34.570  19.771  0.0239 -0.0928  0.0964
82229W        W25167  15.084   0.247  21.912  0.0818  0.0686 -0.0202
82230W        W25168  15.440  33.732  21.792  0.0510 -0.0542  0.1062
82231W        W25169  15.069  34.373  23.266 -0.1240 -0.1214 -0.2720
82232W        W25170  14.516  33.466  21.980 -0.1323 -0.0596  0.3064
82233W        W25171  17.899  33.637  22.821  0.0214 -0.4482 -0.5875
82234W        W25172  15.445  33.647  20.268 -0.1289 -0.0686 -0.3859
82235W        W25173  19.412  34.264  19.646 -0.1393 -0.1916  0.2440
82236W        W25174  16.958  34.586  20.140 -0.1860 -0.0841  0.2626
82237W        W25175  17.857  33.433  24.091 -0.0457  0.1219  0.0996
82238W        W25176  15.969   0.087  22.109  0.1374  0.2490  0.0083
82239W        W25177  14.918  34.224  21.260 -0.1618  0.0140 -0.0239
82240W        W25178  14.972  33.380  21.357  0.0753 -0.1126 -0.0906
82241W        W25179  16.188  32.928  22.808  0.2156  0.1560 -0.1104
82242W        W25180  18.618   0.445  21.733 -0.2736 -0.1901 -0.0663
82243W        W25181  14.204  33.597  19.097  0.1555  0.1416 -0.2161
82244W        W25182  15.658   0.080  20.346 -0.1066 -0.1863 -0.1003
82245W        W25183  18.348   0.002  23.868  0.0495  0.1210 -0.0474
82246W        W25184  13.251  33.283  23.482 -0.0927 -0.1141  0.0557
82247W        W25185  15.946  33.702  23.401 -0.5340 -0.0495  0.1558
82248W        W25186  15.031   0.332  20.100 -0.2818 -0.0240  0.1258
82249W        W25187  16.212  32.497  20.621 -0.0801  0.2543 -0.0348
82250W        W25188  18.481  34.398  20.534  0.1906  0.3405  0.0318
82251W        W25189  17.081  34.207  19.739 -0.2467  0.0709  0.1436
82252W        W25190  18.291  33.697  20.020 -0.0424  0.2737 -0.1490
82253W        W25191  15.931  32.808  19.170 -0.3408 -0.1963 -0.1671
82254W        W25192  16.676  33.746  22.224 -0.2852 -0.1107  0.2214
82255W        W25193  16.234  34.065  21.311 -0.2584  0.0980 -0.3266
82256W        W25194  17.530   0.312  19.737  0.0154 -0.1440 -0.0858
82257W        W25195  17.358  33.994  21.617  0.3773 -0.1256 -0.1848
82258W        W25196  15.619  33.287  20.684  0.0867 -0.1679  0.0379
82259W        W25197  16.461  32.050  22.546  0.0110  0.1915 -0.1286
82260W        W25198  17.136  34.474  23.857 -0.3573 -0.2358  0.0524
82261W        W25199  17.063   0.477  19.537 -0.0517  0.1799  0.0026
82262W        W25200  17.006   0.531  22.577  0.0096 -0.2071  0.0869
82263W        W25201  14.935  33.876  19.262 -0.1625 -0.1340  0.0401
82264W        W25202  16.363  33.967  23.549 -0.2357 -0.0048 -0.0454
82265W        W25203  15.489  33.279  24.817 -0.1447  0.0290 -0.0596
82266W        W25204  16.537  33.029  19.764 -0.0094 -0.1411 -0.0977
82267W        W25205  16.468  33.297  22.507  0.0903  0.0632 -0.0730
82268W        W25206  18.601  33.474  21.601 -0.3374 -0.1499 -0.5049
82269W        W25207  15.726  34.089  19.642  0.1638 -0.2386  0.3289
82270W        W25208  14.178   0.020  20.727  0.0199 -0.1282 -0.2260
82271W        W25209  18.775   0.333  21.167  0.0104  0.0931  0.1574
82272W        W25210  15.448  34.017  22.512 -0.3652 -0.2987 -0.2238
82273W        W25211  16.595  34.282  21.014  0.0545 -0.2668  0.1292
82274W        W25212  16.004   0.883  21.665 -0.1936  0.0724 -0.2740
82275W        W25213  18.303   0.101  20.094 -0.1604 -0.3174  0.2085
82276W        W25214  15.910  34.183  22.581 -0.2659 -0.0793 -0.2009
82277W        W25215  13.688  33.595  19.869 -0.1862  0.1090  0.1986
82278W        W25216  16.926  34.286  22.836  0.2259 -0.1499 -0.0251
82279W        W25217  15.989  34.498  21.699  0.3464  0.1137  0.2808
82280W        W25218  15.658  34.367  20.682 -0.0020 -0.2390 -0.0532
82281W        W25219  16.437  34.568  21.431  0.0190 -0.1337  0.1160
82282W        W25220  16.503  33.183  23.124  0.3729  0.0026 -0.1494
82283W        W25221  16.076  32.993  22.158 -0.0290 -0.1311  0.2836
82284W        W25222  15.978  33.462  21.531 -0.0116  0.1501  0.1218
82285W        W25223  16.070  33.716  22.525  0.1910  0.6599  0.0988
82286W        W25224  16.951  34.696  22.093 -0.1880  0.1109  0.0398
82287W        W25225  16.133  33.619  24.604 -0.0959 -0.2269  0.0787
82288W        W25226  17.217  33.687  23.137  0.1232 -0.1461  0.2641
82289W        W25227  17.410  34.581  20.476  0.1291  0.0067 -0.0926
82290W        W25228  15.956  33.778  20.146  0.1417 -0.2128  0.1166
82291W        W25229  17.766  33.351  23.209 -0.1634  0.1138 -0.2225
82292W        W25230  17.487   0.580  20.670 -0.3469 -0.2084  0.0851
82293W        W25231  17.202  32.573  21.714 -0.0239 -0.0136 -0.2148
82294W        W25232  14.407  33.234  22.949  0.1664 -0.0810 -0.0248
82295W        W25233  14.358  34.002  22.664 -0.1594  0.1460  0.0990
82296W        W25234  14.977   0.670  23.754 -0.1142 -0.5184 -0.1473
82297W        W25235  16.761  33.857  19.960  0.3487 -0.0356  0.0411
82298W        W25236  14.244  33.872  19.849  0.0848  0.3814  0.0279
82299W        W25237  14.341   0.061  23.851 -0.4773 -0.0429  0.1736
82300W        W25238  17.057  34.306  20.771  0.5160 -0.2763 -0.0232
82301W        W25239  14.979  34.543  22.690 -0.0642 -0.0742  0.0178
82302W        W25240  17.882   0.328  19.383 -0.0698  0.1248 -0.1329
82303W        W25241  17.706  33.166  23.666 -0.3662  0.0667  0.0503
82304W        W25242  15.757  34.564  21.229 -0.4726 -0.3237 -0.0510
82305W        W25243  16.802  33.725  22.765  0.4154  0.0893 -0.0205
82306W        W25244  17.099   0.239  23.645  0.1884 -0.1769 -0.3228
82307W        W25245  16.215  33.111  21.328 -0.2364  0.0052 -0.0051
82308W        W25246  14.696  32.523  24.321  0.0789 -0.0619 -0.2531
82309W        W25247  17.977  33.582  18.599 -0.1783  0.1788 -0.1089
82310W        W25248  17.754  34.406  22.113 -0.0866  0.1060  0.2807
82311W        W25249  18.177   0.701  21.412 -0.2666  0.4681 -0.0599
82312W        W25250  17.909  34.536  20.255 -0.1767  0.1276  0.0964
82313W        W25251  14.775  33.818  21.573  0.0189  0.1346  0.1781
82314W        W25252  15.939  33.258  23.160  0.0324 -0.0071 -0.0439
82315W        W25253  16.254  33.750  18.449  0.0600 -0.1596  0.0039
82316W        W25254  17.296  33.278  23.367  0.1092 -0.1695  0.0686
82317W        W25255  17.924  33.987  20.477 -0.0024 -0.1202 -0.3561
82318W        W25256  13.846   0.491  20.039  0.2363  0.0808  0.1853
82319W        W25257  15.047  32.906  21.296  0.0041 -0.2503  0.1980
82320W        W25258  16.558  32.995  18.194 -0.1070 -0.3868  0.1077
82321W        W25259  17.376  33.496  21.421 -0.0503  0.1314  0.0720
82322W        W25260  17.278  33.718  22.629  0.3062 -0.0374  0.0038
82323W        W25261  17.374  33.916  21.057 -0.1400  0.1217  0.0910
82324W        W25262  16.005  34.104  23.052 -0.1960  0.0209  0.2871
82325W        W25263  18.084   1.068  20.998 -0.0246 -0.0066  0.1191
82326W        W25264  16.998   0.712  21.213 -0.0701  0.1537  0.1592
82327W        W25265  19.198  33.615  22.206 -0.2078 -0.1038 -0.0894
82328W        W25266  15.527   0.126  21.653  0.1363 -0.2545  0.1946
82329W        W25267  14.119  33.799  23.049 -0.2212 -0.2068 -0.0010
82330W        W25268  15.218  33.988  19.679  0.0243 -0.0439  0.0719
82331W        W25269  17.123   1.339  20.071 -0.0657 -0.0947 -0.1221
82332W        W25270  18.657  32.584  18.919 -0.0520 -0.0401 -0.0095
82333W        W25271  17.123   0.292  23.053  0.2053  0.0143  0.1147
82334W        W25272  18.759  33.603  20.176 -0.0230 -0.0160  0.0341
82335W        W25273  16.775   1.072  20.340  0.0339 -0.0615 -0.0250
82336W        W25274  16.013  33.754  19.455 -0.2394 -0.1077  0.2294
82337W        W25275  14.830   1.246  22.819 -0.0173 -0.4188 -0.0002
82338W        W25276  17.448  34.274  22.499 -0.3771 -0.1384 -0.2000
82339W        W25277  16.279  34.023  19.766 -0.1181  0.1062 -0.1342
82340W        W25278  16.739   1.094  21.392  0.1794  0.0234  0.0638
82341W        W25279  18.241  32.656  20.631  0.1962  0.3526 -0.1109
82342W        W25280  18.277  34.383  21.998 -0.1537 -0.2615  0.0301
82343W        W25281  14.474  33.428  21.465  0.0653 -0.0578  0.2242
82344W        W25282  18.839  33.857  21.819  0.2591  0.2163  0.1984
82345W        W25283  15.329   0.677  22.737  0.1566 -0.0531  0.1576
82346W        W25284  18.484  32.600  22.678  0.0816  0.1676 -0.1780
82347W        W25285  15.395  34.342  22.864 -0.0411  0.3129 -0.0454
82348W        W25286  17.734   0.173  20.785  0.4792 -0.0676 -0.3895
82349W        W25287  14.517  34.231  23.290 -0.1801 -0.2604  0.0300
82350W        W25288  15.612   0.007  17.787 -0.2621 -0.0212 -0.1391
82351W        W25289  17.419  34.225  23.232 -0.2317  0.2854  0.0738
82352W        W25290  17.900  33.425  18.121  0.1003 -0.2916  0.0774
82353W        W25291  14.264  32.048  21.577 -0.2079  0.4003 -0.0481
82354W        W25292  18.345   0.048  19.569 -0.0578  0.3018  0.0927
82355W        W25293  15.895  34.544  19.991  0.2359 -0.1908  0.1257
82356W        W25294  15.702  33.792  22.871 -0.2007  0.0967 -0.1635
82357W        W25295  14.629  33.150  21.067  0.1215  0.1723  0.3459
82358W        W25296  19.138  34.484  22.702 -0.1782 -0.1199  0.0780
82359W        W25297  16.540   0.239  22.325 -0.1361 -0.0422  0.1832
82360W        W25298  13.438  34.358  22.041 -0.2969 -0.0246  0.0413
82361W        W25299  17.051  32.700  19.319 -0.2211 -0.2435 -0.0453
82362W        W25300  14.864  33.711  22.467  0.0345  0.2591  0.1267
82363W        W25301  18.337  33.045  22.338 -0.1831  0.0880 -0.0365
82364W        W25302  16.858  33.856  20.847  0.1535  0.4681 -0.2090
82365W        W25303  17.194  33.282  21.955  0.4049  0.1231 -0.0296
82366W        W25304  16.501   0.593  21.322  0.1870  0.0590 -0.0821
82367W        W25305  15.711  34.054  21.091  0.1768 -0.0025 -0.2908
82368W        W25306  17.316   0.337  21.074 -0.2172 -0.0348  0.0537
82369W        W25307  18.210  34.062  19.536  0.1983 -0.2336  0.2537
82370W        W25308  15.260   1.164  22.550  0.1787 -0.0317 -0.1193
82371W        W25309  14.411   0.407  20.595 -0.0918 -0.2358  0.0823
82372W        W25310  15.903  33.076  24.089 -0.3733  0.3775 -0.6622
82373W        W25311  14.561   0.091  21.932  0.1625 -0.0845 -0.3497
82374W        W25312  15.083  33.449  19.933  0.2470  0.2725  0.2832
82375W        W25313  14.890  33.558  20.472 -0.0933 -0.1814 -0.0547
82376W        W25314  14.383  33.535  22.530  0.2144 -0.0471  0.2084
82377W        W25315  14.569  33.096  22.389 -0.0111 -0.1872  0.2035
82378W        W25316  15.543  34.205  20.144 -0.2467  0.0544  0.2881
82379W        W25317  16.515  34.280  23.131 -0.1271 -0.1626  0.1210
82380W        W25318  15.447  33.500  23.369  0.0300  0.0940  0.1367
82381W        W25319  14.674  34.043  19.719 -0.0768  0.0665 -0.0165
82382W        W25320  16.957  34.011  21.327 -0.0393 -0.2187  0.1763
82383W        W25321  13.925  33.361  22.894  0.1396 -0.3264  0.1006
82384W        W25322  18.690  33.556  23.025 -0.1125  0.1822  0.0130
82385W        W25323  17.078   0.006  19.657 -0.0950 -0.0767  0.0140
82386W        W25324  15.597  32.925  23.344  0.0494  0.4909 -0.2787
82387W        W25325  15.335  33.728  21.315  0.3071  0.2272 -0.0777
82388W        W25326  17.553  32.796  20.691 -0.1674  0.3439  0.1632
82389W        W25327  15.123  34.044  21.909  0.0742  0.0541 -0.0957
82390W        W25328  18.778  34.229  21.516 -0.2091 -0.3479  0.0156
82391W        W25329  16.251  34.686  23.962 -0.0737 -0.3495 -0.2186
82392W        W25330  16.424  34.489  19.946 -0.2017 -0.0309 -0.0079
82393W        W25331  17.754   0.035  21.315 -0.1725 -0.0607 -0.3411
82394W        W25332  14.694  32.662  22.024  0.2205 -0.1599 -0.2455
82395W        W25333  16.322   1.072  20.126 -0.0909  0.2622 -0.4794
82396W        W25334  14.325   0.030  19.879 -0.2417 -0.0085 -0.1548
82397W        W25335  17.768  34.158  22.862 -0.2000 -0.2531  0.0103
82398W        W25336  15.826  33.959  21.645  0.0562  0.0270 -0.1543
82399W        W25337  17.466  34.396  20.046  0.1908  0.4091  0.1916
82400W        W25338  14.615  33.356  24.708  0.0388 -0.2723 -0.0468
82401W        W25339  17.395  34.190  24.278 -0.0443 -0.0832 -0.1902
82402W        W25340  17.058  34.589  24.411  0.0674  0.1067  0.3425
82403W        W25341  14.493  33.309  25.867 -0.4140  0.0638 -0.1265
82404W        W25342  16.349  31.008  27.794 -0.3749  0.0872  0.0338
82405W        W25343  16.124   0.357  25.167  0.0319  0.2780  0.0694
82406W        W25344  16.187  33.816  27.175  0.3203 -0.1885  0.0713
82407W        W25345  17.234  32.712  23.537 -0.2095 -0.2128  0.1368
82408W        W25346  14.445  31.291  26.239 -0.1209  0.0849  0.1902
82409W        W25347  17.941   0.290  25.807  0.4463 -0.1319  0.0943
82410W        W25348  13.650  33.161  24.604 -0.1462 -0.0427  0.2928
82411W        W25349  15.180  33.037  25.091 -0.4824 -0.2264  0.1246
82412W        W25350  15.052  33.045  24.602 -0.0010 -0.3351  0.2587
82413W        W25351  16.452  34.626  27.234 -0.2837 -0.2233 -0.0023
82414W        W25352  16.360  32.606  26.997  0.2605  0.0138  0.0800
82415W        W25353  13.962  34.534  24.147  0.1253  0.1856  0.4651
82416W        W25354  15.064   1.433  25.306  0.0416  0.0541  0.0496
82417W        W25355  15.819   1.314  26.286 -0.1425 -0.3062  0.0485
82418W        W25356  16.043  33.380  26.503  0.2826 -0.1621 -0.2130
82419W        W25357  16.648   1.143  25.503 -0.1268 -0.0191 -0.3265
82420W        W25358  16.769  34.047  26.521 -0.0051  0.0147  0.1535
82421W        W25359  17.229  34.044  26.332 -0.0869 -0.1450  0.0231
82422W        W25360  17.069   0.803  25.648  0.0901  0.4022 -0.2513
82423W        W25361  17.630  33.517  28.769  0.1351 -0.1635 -0.0743
82424W        W25362  15.784  34.090  23.652  0.3325  0.1145  0.0014
82425W        W25363  15.444  34.056  23.292  0.0783 -0.1797 -0.2588
82426W        W25364  16.273  34.217  24.053  0.2319  0.0830  0.1811
82427W        W25365  16.993  33.297  26.082 -0.2117 -0.0134 -0.3603
82428W        W25366  17.352  32.992  27.107 -0.2759 -0.2262 -0.1351
82429W        W25367  15.233  33.987  25.071 -0.0617  0.1962  0.1323
82430W        W25368  15.860  34.481  24.608  0.1928  0.0916  0.1273
82431W        W25369  14.871   0.664  25.577 -0.0487 -0.2244 -0.1976
82432W        W25370  13.531  33.521  25.904  0.1931 -0.1041 -0.2127
82433W        W25371  15.491  34.428  28.063  0.2232 -0.1175 -0.0215
82434W        W25372  14.628  34.263  25.944  0.2375  0.2804 -0.1622
82435W        W25373  15.900  31.951  25.518  0.0690 -0.0786  0.5611
82436W        W25374  17.976  33.197  24.517  0.2544 -0.2460  0.0971
82437W        W25375  16.270  33.975  25.847  0.0376 -0.5638 -0.2373
82438W        W25376  18.431  33.464  24.477 -0.2983  0.1330  0.3216
82439W        W25377  17.153   0.940  24.453 -0.1840  0.0081 -0.0903
82440W        W25378  16.312  33.223  28.247 -0.2538  0.0323  0.1141
82441W        W25379  15.190  32.513  25.920  0.0413  0.0680  0.1307
82442W        W25380  18.363  34.560  22.927 -0.0007 -0.3263  0.2914
82443W        W25381  15.364  34.069  26.554  0.0309 -0.1877 -0.2500
82444W        W25382  17.665  33.634  24.521 -0.0182 -0.1155  0.0470
82445W        W25383  18.116  33.868  24.378 -0.0953  0.2360 -0.1017
82446W        W25384  15.266   0.084  25.718  0.1893 -0.0853 -0.2258
82447W        W25385  15.100  34.398  26.071  0.1110  0.2807  0.1014
82448W        W25386  14.728  33.494  28.627 -0.0766 -0.1950 -0.0884
82449W        W25387  14.927  33.284  25.569  0.3378  0.2305 -0.2477
82450W        W25388  16.951   0.474  25.990  0.0174  0.1167  0.3975
82451W        W25389  14.649  34.445  24.159 -0.0882  0.2524 -0.1693
82452W        W25390  16.503  33.334  24.835  0.1044 -0.0764  0.1120
82453W        W25391  14.826   0.225  24.000  0.1451  0.2020  0.5359
82454W        W25392  16.958  33.178  28.337 -0.2871  0.2630  0.2397
82455W        W25393  15.484  33.270  27.052 -0.0496  0.0251  0.1874
82456W        W25394  14.337  34.056  24.077  0.0988 -0.2483  0.3146
82457W        W25395  14.320  32.649  25.149  0.1763 -0.0423  0.3334
82458W        W25396  16.925   0.616  26.758  0.1333  0.2036 -0.0937
82459W        W25397  17.956   0.551  26.258  0.0161  0.0529 -0.1170
82460W        W25398  16.075  33.728  23.883  0.4631 -0.1724 -0.2149
82461W        W25399  14.388   0.309  25.524 -0.3160  0.1776  0.0684
82462W        W25400  19.213  32.754  27.587 -0.3318 -0.0654  0.0618
82463W        W25401  16.552   0.288  26.666  0.0458  0.3886  0.0832
82464W        W25402  15.669  33.658  28.845  0.2706 -0.2103  0.0766
82465W        W25403  15.275   1.097  23.781  0.0522 -0.1437 -0.0105
82466W        W25404  15.701  32.247  25.133  0.0894 -0.0028  0.0245
82467W        W25405  17.867   0.009  23.078 -0.3142  0.2404  0.3113
82468W        W25406  18.327   0.499  23.799  0.0663 -0.3083  0.1427
82469W        W25407  16.965  33.479  23.675 -0.0973 -0.0183 -0.5954
82470W        W25408  16.120  34.439  23.506 -0.2498  0.1897  0.0329
82471W        W25409  16.260  33.140  27.081 -0.0681  0.1029  0.0925
82472W        W25410  14.942  33.904  23.304 -0.2220 -0.0121 -0.1685
82473W        W25411  15.293  33.263  24.122 -0.0445  0.0287  0.1374
82474W        W25412  17.031  33.637  25.718 -0.2369 -0.1357  0.2405
82475W        W25413  16.620  34.292  25.082  0.0513  0.0378  0.0973
82476W        W25414  17.873  32.840  26.880  0.0167 -0.0129  0.0435
82477W        W25415  18.165   0.349  26.664  0.0475 -0.0915  0.2373
82478W        W25416  15.964  34.440  25.177 -0.2233  0.0637 -0.1090
82479W        W25417  17.086  33.928  25.164  0.1813 -0.3428  0.1365
82480W        W25418  15.795  32.983  21.615 -0.0039 -0.1331 -0.0701
82481W        W25419  16.061  33.356  28.678 -0.0331  0.0126  0.1261
82482W        W25420  15.605  34.600  28.560  0.1969 -0.2158 -0.0711
82483W        W25421  15.382  33.849  24.284 -0.2966  0.1040  0.1938
82484W        W25422  17.112  32.822  26.044 -0.0879 -0.3005 -0.0728
82485W        W25423  17.945  33.052  26.406 -0.0929  0.2126 -0.1469
82486W        W25424  14.101  33.322  24.384 -0.1717 -0.0957  0.0207
82487W        W25425  15.075  34.309  27.130 -0.4662  0.1231 -0.3538
82488W        W25426  16.701  32.920  25.107  0.1199 -0.3183 -0.1809
82489W        W25427  15.341  31.934  26.344 -0.0319  0.2152  0.0449
82490W        W25428  17.145  34.175  25.825 -0.2571 -0.1081 -0.0968
82491W        W25429  18.068  33.745  26.691 -0.2516  0.1613 -0.1961
82492W        W25430  15.933   0.453  24.007  0.0291  0.1189  0.0139
82493W        W25431  15.747   0.193  24.888  0.4641  0.0153  0.4231
82494W        W25432  13.990  33.443  25.925 -0.1161  0.0659  0.2354
82495W        W25433  17.721  34.377  27.653 -0.0183 -0.0718  0.0679
82496W        W25434  15.628  33.736  24.748 -0.1230  0.0833  0.0571
82497W        W25435  15.668   2.083  23.405  0.1382  0.2301 -0.0468
82498W        W25436  14.668  34.629  28.490 -0.2047 -0.1976 -0.3427
82499W        W25437  15.698   0.653  24.396  0.2200 -0.2346 -0.0602
82500W        W25438  15.702  33.994  25.388  0.0029  0.0947  0.0004
82501W        W25439  14.410  33.821  24.492 -0.0551 -0.1456  0.0971
82502W        W25440  16.322  33.913  26.338  0.2826 -0.1168  0.0673
82503W        W25441  17.883  32.992  25.852 -0.2256  0.3351 -0.2943
82504W        W25442  16.059  34.400  26.104  0.1116  0.1496 -0.0423
82505W        W25443  16.793  34.645  25.783  0.1820  0.2511  0.1098
82506W        W25444  18.136  33.039  23.540 -0.0066 -0.0008  0.2201
82507W        W25445  15.496  32.854  26.109 -0.1999  0.0148 -0.0012
82508W        W25446  18.343  33.773  27.135 -0.2201  0.1129 -0.2408
82509W        W25447  16.687   0.656  25.380 -0.2338  0.1166  0.0047
82510W        W25448  17.831  32.753  27.894 -0.0023  0.1872  0.0840
82511W        W25449  15.839  33.807  27.528 -0.0409  0.0561 -0.1332
82512W        W25450  15.541  34.335  26.932 -0.2390  0.3896 -0.3344
82513W        W25451  16.463  34.449  26.565 -0.2555 -0.0609  0.1062
82514W        W25452  17.164  34.152  24.704 -0.0824 -0.0579  0.1260
82515W        W25453  15.833  33.249  23.644 -0.1015 -0.0729  0.3071
82516W        W25454  16.254   0.779  25.247 -0.0885  0.0599  0.0166
82517W        W25455  16.840   0.036  24.868  0.0949  0.1709  0.0893
82518W        W25456  15.743   0.075  25.988 -0.3379 -0.0790 -0.0078
82519W        W25457  17.050  34.431  25.388  0.0200  0.2694  0.2908
82520W        W25458  15.561  33.850  27.080 -0.0401  0.0681  0.1712
82521W        W25459  17.607  32.071  23.167  0.0488 -0.0263 -0.2222
82522W        W25460  15.732  32.892  25.075  0.0967  0.0858 -0.0091
82523W        W25461  17.708  33.283  26.779 -0.0725 -0.2535  0.2267
82524W        W25462  16.452  34.536  27.905 -0.3022  0.1715 -0.0461
82525W        W25463  14.526  34.141  28.161 -0.1614 -0.2580  0.4536
82526W        W25464  16.880  34.621  23.255 -0.0267 -0.1422 -0.3406
82527W        W25465  18.741  32.719  25.805  0.2312 -0.0822 -0.0829
82528W        W25466  16.269  34.215  22.206 -0.0550  0.0097  0.0044
82529W        W25467  15.785   1.733  24.242 -0.1235 -0.2273  0.2183
82530W        W25468  14.854  34.408  25.084 -0.2109  0.1023 -0.1646
82531W        W25469  16.666  33.471  28.045  0.2241  0.0675 -0.0400
82532W        W25470  14.962  33.428  23.244 -0.0570  0.2173 -0.1994
82533W        W25471  18.129  34.164  26.487 -0.1763 -0.2309 -0.1022
82534W        W25472  17.089  33.604  24.702  0.0202 -0.0898 -0.1044
82535W        W25473  15.979  33.199  26.040  0.2132  0.0004 -0.0017
82536W        W25474  16.397  32.486  22.648  0.1751 -0.3153 -0.3666
82537W        W25475  15.908   0.394  23.533 -0.2033 -0.1395 -0.0115
82538W        W25476  17.009  33.126  24.802 -0.0726 -0.0811  0.3598
82539W        W25477  17.613  34.059  26.701 -0.0794  0.0863 -0.0601
82540W        W25478  17.818  33.377  25.456 -0.1168 -0.0431 -0.0480
82541W        W25479  16.511  32.717  25.698  0.2878 -0.2078  0.1209
82542W        W25480  18.999  33.520  24.659 -0.1888  0.0657  0.0254
82543W        W25481  16.572   0.144  25.340  0.0836  0.4311 -0.7902
82544W        W25482  17.676   0.046  25.494  0.3873  0.1528 -0.1030
82545W        W25483  16.014  34.062  24.844  0.2825 -0.0067 -0.1061
82546W        W25484  13.778  33.896  26.251 -0.0869  0.2251 -0.0398
82547W        W25485  15.996  32.396  26.624  0.0266 -0.0570 -0.0058
82548W        W25486  14.455  34.514  22.888  0.1273 -0.2364  0.2346
82549W        W25487  18.585  34.179  23.772 -0.3173  0.0162 -0.1865
82550W        W25488  18.451  34.434  26.196  0.3703 -0.1604 -0.0879
82551W        W25489  18.029  32.529  23.193  0.1460 -0.0197  0.1558
82552W        W25490  17.415  34.494  24.988 -0.1452 -0.0737 -0.1967
82553W        W25491  14.972  32.954  25.945 -0.0975  0.0367  0.0292
82554W        W25492  15.600   1.483  25.341 -0.0890 -0.0651  0.1454
82555W        W25493  20.017  32.891  27.260  0.0398 -0.1701  0.0795
82556W        W25494  13.979  32.151  24.982 -0.0219  0.3136  0.2571
82557W        W25495  16.937  33.457  25.241 -0.2354  0.3227 -0.0765
82558W        W25496  17.212  31.039  28.541 -0.0592 -0.1377  0.0699
82559W        W25497  16.343  34.275  24.533  0.0428  0.4279 -0.2412
82560W        W25498  14.731  33.848  24.893  0.1599 -0.0803 -0.0314
82561W        W25499  17.006  34.072  23.399 -0.1539 -0.2314  0.4093
82562W        W25500  15.732  33.168  28.288  0.0798 -0.0744 -0.0383
82563W        W25501  16.887  34.606  26.860 -0.2095 -0.0616 -0.0110
82564W        W25502  14.772   1.384  24.019 -0.0765  0.1275  0.1808
82565W        W25503  17.488  33.425  24.920  0.0683  0.0396 -0.1857
82566W        W25504  16.044   0.064  26.561 -0.2130 -0.0925 -0.2122
82567W        W25505  15.706   0.491  22.950 -0.1158 -0.1722 -0.2214
82568W        W25506  17.926  34.293  25.651 -0.0555  0.3521  0.3091
82569W        W25507  16.445   0.163  23.423  0.0776  0.2109  0.1621
82570W        W25508  16.296  33.114  25.383 -0.1496  0.0887  0.2250
82571W        W25509  16.702  33.709  23.279  0.2759  0.2905  0.0227
82572W        W25510  14.812  33.994  25.396  0.0736  0.0868 -0.2061
82573W        W25511  15.678  34.470  26.450  0.0432  0.2356  0.1521
82574W        W25512  14.755  31.779  23.664 -0.0627 -0.1209  0.1079
82575W        W25513  18.857  34.219  25.960  0.1714  0.0634 -0.1003
82576W        W25514  18.085   0.057  26.279 -0.0242 -0.1886 -0.1348
82577W        W25515  14.646  34.642  26.387  0.0921  0.0739  0.2235
82578W        W25516  15.825  32.636  25.660 -0.2216 -0.2932  0.3136
82579W        W25517  14.076   0.748  23.147 -0.2129  0.1391  0.0396
82580W        W25518  18.639  33.588  25.904 -0.1370  0.2197 -0.0803
82581W        W25519  17.677  32.701  26.224 -0.0722  0.0782 -0.1711
82582W        W25520  18.287  33.450  26.350  0.3357 -0.1164  0.2448
82583W        W25521  17.530  34.227  23.786 -0.0892 -0.3713  0.0790
82584W        W25522  16.500  33.563  25.622 -0.0106 -0.2714  0.2067
82585W        W25523  17.483  34.156  25.460 -0.1680  0.0848 -0.1682
82586W        W25524  17.101  33.950  23.873  0.1678  0.0169 -0.1737
82587W        W25525  16.107   0.359  26.119 -0.0962  0.0766  0.0395
82588W        W25526  13.876   0.391  24.485 -0.1152 -0.1069 -0.0827
82589W        W25527  14.942  33.290  28.215  0.3765  0.0226 -0.0104
82590W        W25528  15.118  33.862  27.388 -0.1119 -0.2030  0.2137
82591W        W25529  14.390   0.898  25.491  0.0426  0.1525  0.2385
82592W        W25530  13.769  34.557  23.666  0.0831 -0.0680 -0.3244
82593W        W25531  16.749  33.768  26.075 -0.3719  0.1387  0.1441
82594W        W25532  14.952   0.170  25.226  0.1619  0.1971  0.3906
82595W        W25533  15.093  33.557  24.532 -0.0894 -0.0446  0.0201
82596W        W25534  15.924  34.268  27.339 -0.0264  0.0463 -0.0967
82597W        W25535  14.626  33.274  27.702  0.0993 -0.0461 -0.0932
82598W        W25536  13.558  33.726  24.461 -0.1221 -0.2783 -0.0084
82599W        W25537  17.233  33.519  26.601  0.0614  0.1851  0.2435
82600W        W25538  15.865  32.781  26.977  0.0573  0.1313  0.1803
82601W        W25539  17.618  33.692  26.351  0.0829 -0.1051 -0.0483
82602W        W25540  15.797   1.021  23.366 -0.1697 -0.1094  0.0526
82603W        W25541  14.841  33.190  26.693 -0.0524 -0.0489 -0.1285
82604W        W25542  16.487  33.194  25.963  0.3690 -0.1107 -0.0600
82605W        W25543  16.383  33.356  24.173  0.2472 -0.2015  0.1978
82606W        W25544  15.081  34.470  26.618  0.1461 -0.2429 -0.1494
82607W        W25545  16.582  33.838  24.940  0.0368  0.0121 -0.0754
82608W        W25546  16.907  33.933  27.325 -0.0942  0.2607  0.0717
82609W        W25547  16.009  33.478  25.117 -0.5738 -0.1395  0.0911
82610W        W25548  18.939   1.196  24.265  0.0510  0.4225  0.4290
82611W        W25549  15.524  33.386  25.885  0.1475  0.2682 -0.2632
82612W        W25550  15.148  34.577  24.151  0.0546 -0.2714 -0.1257
82613W        W25551  15.612   0.065  24.257  0.0098 -0.0974 -0.1484
82614W        W25552  16.588  34.225  26.078  0.1283 -0.0406 -0.0064
82615W        W25553  16.830  33.096  25.599  0.2659 -0.4510 -0.2217
82616W        W25554  14.931  33.498  23.740  0.0883 -0.2586 -0.2192
82617W        W25555  15.913   0.440  27.914 -0.0253  0.1661  0.2840
82618W        W25556  17.571  33.555  27.703  0.3518 -0.1120  0.0575
82619W        W25557  17.098   0.498  27.693  0.1039 -0.1108  0.1233
82620W        W25558  15.491  33.796  27.862 -0.1468 -0.2109  0.0495
82621W        W25559  13.779  32.496  30.348 -0.2951 -0.0741  0.2302
82622W        W25560  16.952   0.107  27.375  0.0772 -0.0007  0.0388
82623W        W25561  15.042  33.915  29.406 -0.2056  0.0506  0.0831
82624W        W25562  15.459  34.044  28.405 -0.1527 -0.3099 -0.2030
82625W        W25563  14.593  32.092  29.223 -0.0093 -0.1069 -0.1987
82626W        W25564  17.815  33.529  31.502 -0.0398  0.0592  0.0112
82627W        W25565  15.848  33.757  28.168  0.1051  0.2262  0.1271
82628W        W25566  16.295   0.884  28.844  0.2183 -0.0776  0.1662
82629W        W25567  16.389  33.362  29.115  0.1698  0.2179 -0.3023
82630W        W25568  16.331  33.982  31.024  0.2098  0.1679  0.0864
82631W        W25569  16.130  32.453  30.747  0.0740  0.2748 -0.3730
82632W        W25570  15.364   0.156  26.335  0.1431  0.1054 -0.1614
82633W        W25571  14.366  34.173  30.363  0.1765  0.0484  0.0569
82634W        W25572  16.154  33.415  30.019 -0.1612 -0.0283  0.0900
82635W        W25573  17.211  32.386  29.855  0.1163 -0.2639 -0.1327
82636W        W25574  16.552  33.130  29.765 -0.2712 -0.3329 -0.1631
82637W        W25575  17.009  34.607  29.228 -0.1475 -0.3633 -0.2026
82638W        W25576  15.762  33.857  30.253  0.0340  0.2902 -0.1341
82639W        W25577  16.622  32.935  29.297 -0.1146 -0.0030  0.1171
82640W        W25578  19.400  33.413  31.665  0.1330  0.0034  0.1891
82641W        W25579  16.941  34.472  27.725 -0.2150 -0.0456 -0.2198
82642W        W25580  15.981  34.650  28.141 -0.0668  0.1493  0.0598
82643W        W25581  17.350  34.630  28.470  0.3544 -0.1376  0.0535
82644W        W25582  16.027  32.914  30.151  0.2196  0.3688  0.1610
82645W        W25583  16.615  33.142  30.349  0.1301 -0.0833  0.1997
82646W        W25584  15.565   0.242  28.173  0.1496  0.3168 -0.3879
82647W        W25585  18.837  33.434  29.958  0.2312  0.2467  0.1728
82648W        W25586  13.817   1.632  28.243  0.0699  0.0092 -0.1780
82649W        W25587  14.011   0.291  28.129 -0.3467 -0.0355 -0.1347
82650W        W25588  14.081   0.473  30.321 -0.1057  0.3468  0.0655
82651W        W25589  13.625   0.074  30.068  0.2162 -0.0606 -0.0814
82652W        W25590  14.358  33.511  28.052 -0.2970 -0.2143 -0.1473
82653W        W25591  18.577  33.196  27.929  0.0121 -0.2332 -0.2403
82654W        W25592  16.693  33.423  31.185  0.0766  0.0164  0.1122
82655W        W25593  15.936  31.614  28.830  0.2054 -0.2465 -0.0236
82656W        W25594  18.533  33.640  28.236 -0.0236 -0.0022  0.0112
82657W        W25595  16.198  33.408  31.023  0.2017  0.1205 -0.2558
82658W        W25596  14.384  33.833  30.043  0.0745  0.0418  0.2696
82659W        W25597  17.478  33.255  29.695  0.1388  0.0655  0.0142
82660W        W25598  14.360  33.357  30.758  0.1671  0.2658  0.0678
82661W        W25599  16.005  34.282  30.135 -0.0160 -0.4062  0.3671
82662W        W25600  15.937  33.626  29.222 -0.2809  0.1458  0.0660
82663W        W25601  14.595  34.634  30.028 -0.0657  0.2234 -0.1649
82664W        W25602  14.551   0.271  28.151 -0.0757 -0.3011  0.0753
82665W        W25603  13.914  33.140  31.101 -0.0469 -0.0915 -0.0336
82666W        W25604  14.081  31.413  29.247 -0.0573 -0.0122 -0.0787
82667W        W25605  17.272  34.630  29.720 -0.0789  0.2747  0.3310
82668W        W25606  14.297  33.814  28.477 -0.3830 -0.2403 -0.0778
82669W        W25607  16.865  33.695  29.203  0.4054  0.0109 -0.1310
82670W        W25608  15.568   0.036  29.030  0.0432  0.1113 -0.0811
82671W        W25609  18.692  34.328  29.447 -0.1566  0.1871  0.2559
82672W        W25610  16.632   0.742  30.615 -0.5208 -0.0936 -0.1726
82673W        W25611  15.304  33.510  29.322  0.1522  0.1311 -0.0157
82674W        W25612  13.871  33.033  29.299 -0.1356 -0.0713  0.0376
82675W        W25613  17.882  33.037  31.706 -0.0494  0.0901 -0.1888
82676W        W25614  17.250  34.383  30.505  0.3723  0.1158 -0.1272
82677W        W25615  15.112  32.052  27.946 -0.3749  0.0544 -0.0153
82678W        W25616  14.287  34.492  28.849  0.0388  0.1274 -0.4115
82679W        W25617  18.721  33.935  29.806 -0.1899  0.1686  0.1852
82680W        W25618  16.611   0.584  31.633 -0.2503 -0.1474 -0.3870
82681W        W25619  16.733  33.700   0.363 -0.0335 -0.0401 -0.0418
82682W        W25620  15.417   0.015  27.228  0.2225  0.2738 -0.4834
82683W        W25621  16.267  32.440  28.774  0.0238 -0.0532 -0.1015
82684W        W25622  18.105  33.698  28.892 -0.1471 -0.1780 -0.1691
82685W        W25623  18.395  32.792  27.626  0.1660 -0.5304  0.3043
82686W        W25624  16.361  33.873  28.283 -0.1370 -0.0165  0.2141
82687W        W25625  17.404  34.123  31.050 -0.1596  0.1835 -0.1014
82688W        W25626  14.794  33.488  29.740  0.0526 -0.2926  0.1640
82689W        W25627  16.526   0.099  26.190  0.3653  0.1838 -0.1560
82690W        W25628  14.984  32.760  29.808  0.1851 -0.2446 -0.1531
82691W        W25629  16.691  33.533  30.047 -0.1225 -0.0017 -0.0669
82692W        W25630  16.002  33.868  30.692  0.0123  0.0759  0.0301
82693W        W25631  16.386  32.269  31.166  0.1251  0.3888  0.0127
82694W        W25632  18.098  34.437  31.635 -0.0409 -0.2866  0.0147
82695W        W25633  16.815  33.861  29.692 -0.4464 -0.1956  0.1781
82696W        W25634  18.543  34.471  29.937  0.0822 -0.0356  0.1828
82697W        W25635  14.725  33.513  26.341  0.0206  0.3187  0.1285
82698W        W25636  16.872  32.569  31.309  0.2669 -0.1987 -0.3006
82699W        W25637  16.120  33.005  31.279 -0.0750 -0.0085 -0.0238
82700W        W25638  16.914  33.233  29.065  0.2900  0.0972  0.1005
82701W        W25639  16.967  33.365  29.579  0.2732 -0.1497 -0.0559
82702W        W25640  17.657  33.428  30.085  0.0927 -0.1135  0.3626
82703W        W25641  16.031   0.036  28.754  0.1014  0.0531 -0.1283
82704W        W25642  15.696   0.365  27.400  0.2389  0.2157  0.0744
82705W        W25643  18.415  33.110  28.630  0.1189  0.1295 -0.0984
82706W        W25644  15.001  33.819  28.273  0.2030  0.1427 -0.0214
82707W        W25645  14.100  33.651  30.404  0.0596  0.2116  0.1030
82708W        W25646  16.824  34.121  30.870 -0.2223 -0.1076 -0.2643
82709W        W25647  17.120  34.024  26.862 -0.0224 -0.2408 -0.2421
82710W        W25648  15.096   0.262   0.036  0.0270 -0.1117 -0.1096
82711W        W25649  14.939   0.201  26.914  0.0528  0.2551 -0.2262
82712W        W25650  18.151  34.123  28.501  0.0041  0.1692  0.1341
82713W        W25651  14.672   1.403  28.317 -0.2224  0.2000  0.1221
82714W        W25652  16.166   0.549  27.478  0.2613 -0.0766  0.1617
82715W        W25653  15.682  34.535  29.814 -0.4040  0.0803  0.4117
82716W        W25654  14.519   0.224  29.063  0.0112 -0.0903  0.0259
82717W        W25655  15.456  34.239  27.494 -0.2296  0.4153 -0.2385
82718W        W25656  17.411  33.091  28.612 -0.0369  0.0807 -0.0317
82719W        W25657  16.176  33.903  31.639 -0.0111 -0.1837 -0.3055
82720W        W25658  14.819  33.038  30.675  0.0121  0.1358  0.1268
82721W        W25659  17.002   0.286  31.636  0.1368  0.2947 -0.0638
82722W        W25660  15.863  33.781  31.229  0.0018 -0.1398 -0.3864
82723W        W25661  18.839  33.819  27.091 -0.1568 -0.0703  0.2477
82724W        W25662  14.946  33.079  29.394 -0.2217 -0.0837  0.0335
82725W        W25663  16.974  32.387   0.129  0.3009  0.2379 -0.3185
82726W        W25664  16.031   0.463  28.439 -0.0673 -0.0997 -0.1422
82727W        W25665  17.701  33.890  30.682  0.1619  0.0558  0.0542
82728W        W25666  14.375  34.633  29.413  0.2848  0.1993  0.3733
82729W        W25667  15.458  34.221  30.141  0.1011  0.1137  0.0036
82730W        W25668  14.893  33.941  29.905 -0.3301 -0.0290  0.1774
82731W        W25669  17.206  33.782  30.781  0.1163 -0.0746  0.0928
82732W        W25670  14.437  33.268  30.237  0.0222  0.1490  0.0432
82733W        W25671  15.046   0.490  29.924 -0.0133  0.2903  0.1057
82734W        W25672  17.708  34.395  30.684  0.0948  0.1756 -0.3085
82735W        W25673  15.992   0.101  30.095 -0.0845  0.1582  0.1080
82736W        W25674  16.162   0.234  29.313 -0.0445  0.0532 -0.0210
82737W        W25675  14.859  34.422  29.678  0.0879 -0.0630  0.0786
82738W        W25676  17.170  33.451  30.308 -0.2898 -0.0234 -0.0982
82739W        W25677  15.399  32.388  30.321 -0.5014 -0.1402  0.0587
82740W        W25678  15.700  33.358   0.068 -0.0398  0.0272  0.0235
82741W        W25679  15.553  33.688  30.757 -0.0449 -0.0684 -0.0376
82742W        W25680  15.648  33.153  30.622 -0.0274 -0.0054  0.1137
82743W        W25681  18.095  33.908  28.022  0.1907 -0.0609  0.0467
82744W        W25682  18.691  34.452  27.776 -0.2391 -0.0664 -0.3874
82745W        W25683  16.764  34.239  28.281 -0.3211  0.2765  0.3586
82746W        W25684  16.446   0.123  28.438  0.0484  0.4053  0.2917
82747W        W25685  15.553   0.497  28.633  0.1701 -0.0144 -0.0949
82748W        W25686  18.008  33.510  30.451 -0.1894  0.2021 -0.0409
82749W        W25687  15.198  33.481  27.656  0.1283  0.2449 -0.0492
82750W        W25688  16.587  33.932  31.930 -0.1307 -0.1612  0.0347
82751W        W25689  17.152  34.088  28.506 -0.1269 -0.2423  0.1510
82752W        W25690  14.633  34.068  29.204  0.2837  0.1982  0.2843
82753W        W25691  15.852  33.369  27.798  0.1426  0.2416  0.0998
82754W        W25692  16.407  34.190  27.543  0.0530 -0.0821  0.0025
82755W        W25693  16.755  33.973  27.798  0.2571 -0.0611  0.2383
82756W        W25694  18.010  33.598  30.955  0.0308 -0.0570  0.1760
82757W        W25695  16.656  32.017  29.340  0.1838 -0.1056  0.0796
82758W        W25696  15.198  32.305  29.865 -0.2716  0.0230  0.2224
82759W        W25697  17.193  34.198  29.379 -0.0626 -0.2478  0.1520
82760W        W25698  17.877   0.392  31.844  0.0765  0.2011 -0.1673
82761W        W25699  18.806   0.085  29.636  0.1975  0.0809  0.1133
82762W        W25700  14.778  34.134  28.597 -0.1727 -0.1788  0.0227
82763W        W25701  14.962  34.340  30.175  0.1233 -0.1594  0.3776
82764W        W25702  14.103  32.534  29.223  0.1358  0.3069 -0.1102
82765W        W25703  14.768  33.764  27.790 -0.1723  0.1178 -0.1908
82766W        W25704  18.874  33.272  28.454 -0.0257  0.0791 -0.2319
82767W        W25705  17.160   0.754  28.825  0.0869  0.0682  0.0688
82768W        W25706  17.044   0.379  28.532  0.0130  0.1779 -0.0065
82769W        W25707  16.384  32.223  29.811 -0.2377 -0.2783 -0.2864
82770W        W25708  17.619  34.103  28.615 -0.1856 -0.2318 -0.0359
82771W        W25709  14.902   1.304  29.552 -0.0594  0.0354  0.0054
82772W        W25710  16.802  31.125  30.717 -0.1322 -0.1567 -0.4572
82773W        W25711  14.590   0.446  27.292 -0.2672  0.2445  0.5087
82774W        W25712  15.080   0.129  28.196  0.0624  0.0538 -0.3158
82775W        W25713  18.964   0.317  30.722 -0.1987  0.2663 -0.0169
82776W        W25714  17.418  33.464  31.142  0.0747  0.2657 -0.1617
82777W        W25715  13.795  34.627  28.550  0.1735 -0.0584 -0.1318
82778W        W25716  17.531  34.641  30.165  0.2177 -0.2284  0.1885
82779W        W25717  16.210  34.129  29.253  0.3094 -0.0016  0.1608
82780W        W25718  17.012  33.014  30.031  0.0033  0.0037  0.2049
82781W        W25719  15.362  33.450  28.442  0.0898 -0.0077 -0.0381
82782W        W25720  17.312  33.709  29.400 -0.0496  0.0535 -0.2560
82783W        W25721  13.160  34.537  30.700  0.0159 -0.0269  0.2496
82784W        W25722  15.779  34.201  28.902  0.4943 -0.0320 -0.0485
82785W        W25723  18.190  34.373   0.280  0.0859  0.0047 -0.2581
82786W        W25724  16.217  33.847  28.834 -0.0324  0.1059 -0.1170
82787W        W25725  14.192  33.266  28.935 -0.2297 -0.3122  0.0054
82788W        W25726  17.091  33.746  28.184  0.1280  0.1240 -0.2022
82789W        W25727  15.150   0.135  28.775  0.1731 -0.1125 -0.1800
82790W        W25728  16.253   0.961  29.842 -0.1279 -0.0584  0.0504
82791W        W25729  14.938  32.648  30.306  0.2047  0.0952  0.1310
82792W        W25730  17.037  34.693  30.171 -0.4708 -0.2350  0.1280
82793W        W25731  16.361  33.623  29.523 -0.5163 -0.1531 -0.0880
82794W        W25732  13.694  34.296  29.150 -0.1961 -0.2375  0.0422
82795W        W25733  15.795   0.288  29.641  0.2279  0.0410 -0.2531
82796W        W25734  15.569  33.945  29.265 -0.0989  0.0126  0.1741
82797W        W25735  17.607   0.588  29.158 -0.3397 -0.2049 -0.3816
82798W        W25736  18.428  34.205  30.344  0.0077  0.0163  0.1453
82799W        W25737  16.930  33.448  31.621 -0.2511 -0.0162  0.0850
82800W        W25738  15.861  34.462  29.367  0.2684 -0.0615  0.2854
82801W        W25739  17.062  34.202  29.948  0.0379 -0.0168 -0.0512
82802W        W25740  16.741  33.895  28.671  0.3043  0.1256 -0.1497
82803W        W25741  19.192  33.025  28.234 -0.2039  0.1266 -0.1702
82804W        W25742  14.179   0.225  30.854  0.0307  0.2343  0.1245
82805W        W25743  15.838  34.159  27.874 -0.3390  0.1635  0.2780
82806W        W25744  17.034  32.674  30.881 -0.2986  0.0811 -0.0920
82807W        W25745  14.034   0.876  28.464 -0.0494 -0.1327  0.1647
82808W        W25746  15.017   0.814  29.518 -0.0012  0.2205  0.0009
82809W        W25747  13.845  33.136  28.219 -0.3032  0.2272  0.3528
82810W        W25748  15.064  33.809  28.893  0.1395  0.1328 -0.0865
82811W        W25749  13.217  32.224  29.651 -0.1274  0.2659  0.0728
82812W        W25750  15.454   0.596  29.220 -0.0627  0.0776 -0.1491
82813W        W25751  16.085   0.085  31.099  0.0563  0.1366  0.2459
82814W        W25752  15.636  33.305  30.107  0.1577 -0.0201  0.2834
82815W        W25753  14.194  34.559  28.170 -0.3242  0.1505  0.0864
82816W        W25754  16.686  34.529  30.540  0.1221 -0.1448  0.0310
82817W        W25755  14.217  32.235  30.600 -0.0473  0.0118 -0.1511
82818W        W25756  17.987  34.563  30.278 -0.1249  0.0992  0.0199
82819W        W25757  16.880  34.491  28.762 -0.3620 -0.2294  0.0001
82820W        W25758  15.216  32.969  31.168 -0.1460  0.0862  0.1776
82821W        W25759  14.746  34.187  30.645  0.3040 -0.2723  0.1217
82822W        W25760  16.383   0.375  28.890  0.1436 -0.3824  0.0903
82823W        W25761  15.724  33.453  29.656 -0.0063 -0.1163  0.0470
82824W        W25762  15.395  32.840  30.084 -0.0231 -0.0166  0.0834
82825W        W25763  17.901  34.046  31.218 -0.1594 -0.1384  0.2358
82826W        W25764  15.100  34.360  28.333 -0.2144  0.2444  0.4542
82827W        W25765  17.258  33.964  27.683 -0.0917  0.0463 -0.2809
82828W        W25766  13.609  32.950  30.344 -0.1795 -0.1114  0.0109
82829W        W25767  14.515  34.559  27.771 -0.1688  0.0941 -0.1545
82830W        W25768  17.656   1.643  29.261 -0.0249  0.0669  0.0796
82831W        W25769  16.600  32.972  31.558 -0.1817  0.1217 -0.0754
82832W        W25770  15.265  34.355  28.975  0.1020 -0.0847 -0.0758
82833W        W25771  16.590  32.903  28.677  0.0029 -0.0720 -0.1488
82834W        W25772  19.268   0.553  31.158  0.3692 -0.0827  0.2181
82835W        W25773  16.725  34.278   0.328 -0.1664 -0.1895  0.1163
82836W        W25774  15.180  34.010  30.488 -0.0267 -0.1083  0.1058
82837W        W25775  18.266  34.671  31.182  0.1309  0.1594 -0.0073
82838W        W25776  16.285  32.895  30.635 -0.0812  0.0822 -0.3517
82839W        W25777  17.431  33.829   0.425 -0.1551  0.0173 -0.0518
82840W        W25778  15.802  32.649   0.122 -0.2741 -0.0847  0.4295
82841W        W25779  19.197  33.314  31.175  0.1150  0.3902 -0.0339
82842W        W25780  14.390  33.864  30.731 -0.0868  0.0375 -0.1446
82843W        W25781  15.728  32.831  30.999  0.0254 -0.0298  0.0757
82844W        W25782  16.299  31.071   0.748  0.2177  0.0991  0.0658
82845W        W25783  18.045  32.499   1.726  0.1200 -0.3280 -0.0133
82846W        W25784  17.308  34.324   0.188 -0.0506 -0.2053 -0.1342
82847W        W25785  17.092  33.064   0.170  0.2499  0.0465 -0.2339
82848W        W25786  16.999  32.775  31.757 -0.2614 -0.0563  0.3092
82849W        W25787  15.153  33.476  30.609 -0.0720  0.0292  0.0263
82850W        W25788  15.239  33.557  30.033  0.1596 -0.0324 -0.1126
82851W        W25789  15.246  33.538   0.165 -0.0191  0.1203 -0.1692
82852W        W25790  18.852  34.462  31.113 -0.0525 -0.1670 -0.0106
82853W        W25791  14.246  33.045  31.488 -0.0919  0.3285  0.3353
82854W        W25792  15.153  33.887  31.001 -0.2120 -0.1600 -0.1100
82855W        W25793  18.242  33.408  31.823  0.1037 -0.4115  0.3291
82856W        W25794  17.716  33.598   0.055  0.0769 -0.1259 -0.0446
82857W        W25795  16.256  32.676   0.417 -0.0561  0.0531 -0.2889
82858W        W25796  15.639   0.434  31.160 -0.3163 -0.3791  0.2210
82859W        W25797  15.646  34.245  30.653  0.1918 -0.1272 -0.0860
82860W        W25798  17.168  33.541   0.076 -0.0424  0.1119 -0.0581
82861W        W25799  16.620  32.505  30.648 -0.1083  0.3035  0.0534
82862W        W25800  17.725   0.439   0.429  0.1857  0.1422 -0.1751
82863W        W25801  16.634  34.035  31.458 -0.1109  0.0958 -0.2749
82864W        W25802  16.539  34.538  31.088  0.2660 -0.3541 -0.2648
82865W        W25803  14.822  33.638  31.554  0.0920  0.0839  0.1357
82866W        W25804  14.406  33.988  31.615  0.0256 -0.0046  0.1324
82867W        W25805  19.576  34.123  30.123  0.2418 -0.0185  0.0179
82868W        W25806  18.605   3.914  18.828  0.1057 -0.2219 -0.0059
82869W        W25807  16.995   2.095  17.160  0.1974  0.3781  0.1073
82870W        W25808  19.988   1.328  16.702 -0.3445 -0.2775 -0.0147
82871W        W25809  23.197   2.603  18.350  0.4164  0.1709 -0.2766
82872W        W25810  17.199   0.509  16.451 -0.2516  0.0109 -0.0215
82873W        W25811  22.179   4.430  16.332 -0.0859  0.1031  0.2425
82874W        W25812  18.481   0.254  18.295  0.1074  0.0380  0.1468
82875W        W25813  20.757   3.849  17.907  0.2619  0.1603 -0.2176
82876W        W25814  20.578   4.645  17.737  0.2092 -0.1033  0.0290
82877W        W25815  22.393   1.230  16.055  0.0785  0.0270  0.1928
82878W        W25816  20.006   0.513  20.006  0.0796 -0.0414 -0.0759
82879W        W25817  19.767   1.602  20.579  0.1992  0.2548  0.3223
82880W        W25818  19.684   0.402  16.918  0.0594 -0.2294 -0.1535
82881W        W25819  19.004   1.380  19.258 -0.0806  0.2086 -0.1098
82882W        W25820  21.170   2.910  18.187 -0.0331 -0.0306  0.0152
82883W        W25821  18.979   0.999  17.874  0.1770 -0.2733  0.2896
82884W        W25822  19.201   0.407  19.245  0.0850  0.3155  0.0522
82885W        W25823  19.638   1.715  16.766 -0.1478  0.1611  0.2286
82886W        W25824  19.572   4.762  16.774 -0.2597  0.0817  0.1936
82887W        W25825  19.720   1.178  18.717  0.1537  0.0965 -0.1836
82888W        W25826  20.213   1.294  19.003 -0.2035  0.3031 -0.0265
82889W        W25827  20.425   3.922  16.530  0.0014 -0.2860 -0.3036
82890W        W25828  19.551   2.129  16.410 -0.1945 -0.1028  0.3809
82891W        W25829  19.123   1.167  18.339  0.1617  0.1674  0.2677
82892W        W25830  19.811   2.410  18.306  0.2996  0.1844  0.0755
82893W        W25831  20.740   1.530  17.813  0.2571  0.1760 -0.0971
82894W        W25832  21.194   1.769  17.694  0.2859  0.0822 -0.3291
82895W        W25833  18.871   4.020  17.386 -0.0274 -0.0808  0.0688
82896W        W25834  20.060   3.684  16.919  0.0061 -0.1692  0.3115
82897W        W25835  20.357   1.680  20.336  0.2006 -0.3184  0.0335
82898W        W25836  17.367   2.452  16.963 -0.0239 -0.0418  0.1892
82899W        W25837  18.161   2.433  17.371  0.0772 -0.1436 -0.4506
82900W        W25838  21.752   4.351  16.718 -0.0052  0.1325  0.2443
82901W        W25839  21.425   3.893  16.679  0.1516 -0.1228  0.2403
82902W        W25840  19.519   3.863  18.666 -0.3514  0.0085  0.1938
82903W        W25841  18.540   3.317  20.069  0.2632  0.1478 -0.4015
82904W        W25842  18.401   1.571  17.172  0.1455  0.1585 -0.0897
82905W        W25843  19.419   2.937  19.467 -0.0999 -0.1252  0.1677
82906W        W25844  20.308   3.913  18.641 -0.0762  0.0284  0.0079
82907W        W25845  20.577   2.536  17.869  0.0735  0.1540 -0.0307
82908W        W25846  20.424   3.166  17.530 -0.0654  0.0174 -0.0012
82909W        W25847  19.205   4.235  15.649 -0.2214  0.1745  0.0483
82910W        W25848  19.803   3.373  17.315 -0.0565  0.0783 -0.0937
82911W        W25849  18.304   2.035  19.219 -0.0738 -0.0323  0.2499
82912W        W25850  19.032   2.311  17.634  0.1993  0.2785  0.2161
82913W        W25851  20.313   0.541  19.541 -0.0840  0.2034  0.0501
82914W        W25852  18.644   2.492  16.778 -0.0330  0.0167 -0.1925
82915W        W25853  22.300   0.554  16.544  0.2592 -0.0081  0.1580
82916W        W25854  19.182   1.897  16.677 -0.0238  0.3461 -0.2842
82917W        W25855  21.350   2.298  17.346 -0.1651  0.1414 -0.1315
82918W        W25856  19.403   0.743  17.118 -0.1367  0.1078  0.0306
82919W        W25857  18.537   2.857  17.643 -0.0712 -0.0097 -0.1726
82920W        W25858  20.390   1.192  17.945 -0.1040 -0.2659 -0.2904
82921W        W25859  21.952   1.964  18.827  0.1578  0.0395  0.0669
82922W        W25860  19.642   2.476  16.774  0.1805  0.1609 -0.4659
82923W        W25861  20.895   2.495  17.468 -0.0747  0.0037 -0.3001
82924W        W25862  18.986   3.064  19.122  0.1000  0.3145 -0.0826
82925W        W25863  19.511   1.461  18.312 -0.2420  0.4241  0.2102
82926W        W25864  21.664   4.011  17.501  0.2788  0.3117 -0.1135
82927W        W25865  21.845   3.545  16.664  0.0132 -0.0555  0.2240
82928W        W25866  20.986   3.096  16.136  0.0059 -0.3749 -0.0037
82929W        W25867  19.951   0.680  18.362 -0.2219 -0.3981 -0.1442
82930W        W25868  17.656   1.819  17.354 -0.0964 -0.3680  0.0773
82931W        W25869  19.617   1.251  20.156 -0.2053 -0.2426 -0.2749
82932W        W25870  18.631  34.695  16.691  0.0421 -0.0156  0.1147
82933W        W25871  21.645   2.898  19.150  0.1496 -0.0724 -0.1101
82934W        W25872  18.361   1.994  19.934 -0.1056  0.0458  0.1961
82935W        W25873  21.776   1.380  16.588 -0.2623  0.0488 -0.3288
82936W        W25874  20.470   2.188  17.572  0.0163 -0.1285 -0.1327
82937W        W25875  22.249   2.955  18.361  0.2713 -0.2173  0.2687
82938W        W25876  20.301   2.911  17.942  0.0647 -0.1389  0.1214
82939W        W25877  20.683   0.170  17.374  0.1928  0.2078 -0.2789
82940W        W25878  21.262  34.444  16.907 -0.0524  0.0572  0.1155
82941W        W25879  19.938   2.401  16.354  0.0865 -0.2139 -0.3589
82942W        W25880  18.971   2.869  16.428  0.2557  0.0416 -0.0026
82943W        W25881  20.336   3.755  18.194 -0.2735  0.1302  0.0296
82944W        W25882  22.370   3.295  16.015 -0.4514 -0.0857 -0.1875
82945W        W25883  19.059   3.137  18.663 -0.1538 -0.4971  0.2741
82946W        W25884  19.833   1.586  18.940 -0.0306 -0.0706 -0.1823
82947W        W25885  21.363   2.258  18.384 -0.3313 -0.1357 -0.0102
82948W        W25886  18.426   2.617  15.859 -0.0646  0.0383 -0.0069
82949W        W25887  17.223   2.437  17.789 -0.1545  0.3044 -0.1221
82950W        W25888  18.825   1.310  16.985  0.0450  0.2867  0.2513
82951W        W25889  19.459   1.798  18.811  0.2815  0.0448  0.2517
82952W        W25890  20.117   2.071  18.107 -0.0310 -0.2443  0.0021
82953W        W25891  21.073   2.021  16.938  0.1099 -0.2343 -0.0240
82954W        W25892  20.053   1.754  19.406  0.1820 -0.1368  0.0594
82955W        W25893  21.703   0.972  17.514  0.0547  0.1686  0.0027
82956W        W25894  18.631   3.180  18.055  0.0789  0.0258  0.1340
82957W        W25895  21.071   3.327  16.888 -0.0108  0.0276  0.3350
82958W        W25896  19.897   2.951  17.616 -0.2260 -0.1445  0.1622
82959W        W25897  20.997   2.871  16.604 -0.1118  0.0268  0.4614
82960W        W25898  19.390   0.340  18.411 -0.0581  0.4386  0.0594
82961W        W25899  18.536   1.660  19.026  0.0605 -0.3840 -0.3011
82962W        W25900  20.288   1.043  18.458  0.2164  0.0290  0.2511
82963W        W25901  19.961  34.636  17.548  0.0062  0.1367 -0.0293
82964W        W25902  21.402   1.176  20.563  0.1504 -0.0237  0.0882
82965W        W25903  19.660  34.615  16.675 -0.2376  0.0269 -0.0200
82966W        W25904  20.331   2.694  17.399 -0.3900 -0.0486  0.0028
82967W        W25905  19.690   0.698  16.020 -0.1451 -0.1789  0.3121
82968W        W25906  18.198   1.944  17.491  0.0752  0.1234 -0.2865
82969W        W25907  21.090   0.047  18.332 -0.2280  0.0323  0.4476
82970W        W25908  19.933   3.372  16.484  0.3530  0.3049  0.2906
82971W        W25909  20.122   3.244  18.471 -0.0706 -0.0288 -0.0027
82972W        W25910  21.131   3.397  17.924 -0.1203  0.0163 -0.2096
82973W        W25911  19.373   1.345  20.660  0.4051  0.1415  0.0391
82974W        W25912  18.400   0.935  16.947 -0.2329 -0.1419  0.2375
82975W        W25913  16.753   3.893  18.281  0.0285 -0.0796 -0.2995
82976W        W25914  18.987   2.755  17.503  0.3729 -0.2975  0.1977
82977W        W25915  18.147   0.660  17.296 -0.6743  0.1669  0.1784
82978W        W25916  22.879   2.202  16.741  0.0288  0.3387  0.0159
82979W        W25917  19.018   2.323  17.130 -0.0024  0.1114 -0.4509
82980W        W25918  17.833   1.591  18.226  0.0100 -0.5492  0.2676
82981W        W25919  21.146   1.088  19.208  0.3260 -0.2188  0.0212
82982W        W25920  21.576   2.031  17.924  0.0135 -0.3197 -0.0027
82983W        W25921  22.355   2.868  17.359  0.2279 -0.6022 -0.0959
82984W        W25922  18.557   1.062  17.472  0.2690  0.1323 -0.0263
82985W        W25923  19.160   4.176  17.854 -0.2255 -0.0108 -0.0039
82986W        W25924  18.261   2.795  16.729  0.3061 -0.1434 -0.0065
82987W        W25925  17.240   1.329  19.453 -0.1331  0.0322  0.0413
82988W        W25926  20.796   3.509  17.571 -0.1638 -0.1214  0.3650
82989W        W25927  20.964   0.044  16.600 -0.0377 -0.1758 -0.0456
82990W        W25928  16.854   2.471  20.636 -0.1281  0.3236 -0.0066
82991W        W25929  20.497   2.423  18.697  0.3230 -0.0956 -0.1477
82992W        W25930  18.156   1.856  16.475  0.0496 -0.0448  0.2850
82993W        W25931  18.235   2.758  20.568  0.2360 -0.3084  0.2505
82994W        W25932  20.485   0.189  16.268 -0.0434  0.1761  0.1864
82995W        W25933  21.587   0.697  15.926  0.0695 -0.3964 -0.2406
82996W        W25934  21.413   3.494  19.190 -0.2762  0.1031  0.2225
82997W        W25935  21.962   4.103  17.939  0.1847  0.0796 -0.0213
82998W        W25936  20.883   2.386  16.576 -0.1195 -0.0106  0.0133
82999W        W25937  18.508  33.625  16.327  0.0515 -0.1256  0.1869
83000W        W25938  17.504   2.076  20.453  0.1208 -0.1153  0.0384
83001W        W25939  21.133   3.703  18.780 -0.0617 -0.0416 -0.2358
83002W        W25940  19.674   2.111  17.874  0.1559 -0.0505 -0.2617
83003W        W25941  21.313   1.010  16.236  0.1033 -0.0970 -0.1438
83004W        W25942  23.285   2.501  17.002  0.2555 -0.0698 -0.1176
83005W        W25943  19.338   1.091  19.527 -0.3515 -0.4232  0.1505
83006W        W25944  21.881   2.345  19.264 -0.1271  0.0065 -0.0631
83007W        W25945  20.348   2.947  18.948 -0.0445 -0.0260  0.0069
83008W        W25946  20.557  34.043  18.224  0.1730  0.0075 -0.1395
83009W        W25947  19.586   1.335  16.436  0.3084  0.1238  0.0217
83010W        W25948  20.372   0.919  15.623 -0.0119 -0.0722 -0.1204
83011W        W25949  17.166   2.405  16.324 -0.2054  0.0870  0.1009
83012W        W25950  21.471   1.230  17.118  0.3449  0.0819  0.1415
83013W        W25951  20.033   2.151  16.921  0.1119 -0.1796 -0.2509
83014W        W25952  20.093   1.468  18.314  0.0107 -0.3052  0.1296
83015W        W25953  20.706   2.820  20.632  0.0725  0.1209  0.1030
83016W        W25954  22.521   1.818  16.939 -0.2184  0.1435 -0.0002
83017W        W25955  19.254   2.277  18.179  0.1697  0.0190  0.0202
83018W        W25956  20.627   2.317  17.075  0.2302 -0.1856  0.2676
83019W        W25957  21.602   0.785  18.342  0.2470 -0.1593 -0.0348
83020W        W25958  19.644   2.088  19.178  0.2234  0.0396  0.1827
83021W        W25959  18.590   4.632  18.040  0.4436 -0.2413  0.0634
83022W        W25960  21.560   1.827  18.526 -0.0092  0.4544  0.3403
83023W        W25961  21.800   3.091  17.491  0.1384  0.1340  0.2209
83024W        W25962  21.439   1.292  18.558  0.3291  0.0258  0.5788
83025W        W25963  19.245   0.041  17.162  0.3042 -0.1353  0.7801
83026W        W25964  19.922   4.003  17.276  0.1993  0.1196  0.1444
83027W        W25965  19.528   2.667  16.280 -0.1399  0.2197  0.2810
83028W        W25966  19.930   0.270  18.566 -0.1433 -0.0131  0.2861
83029W        W25967  19.787   1.628  17.940  0.1315 -0.0802 -0.0761
83030W        W25968  18.698   1.800  16.750 -0.3284  0.1575  0.0526
83031W        W25969  21.429   1.527  21.310  0.3488 -0.0930  0.1774
83032W        W25970  19.438   2.506  17.338  0.0500 -0.0541 -0.0177
83033W        W25971  20.589   0.721  18.182  0.2384 -0.0917 -0.0968
83034W        W25972  17.222   2.885  19.398 -0.3270  0.0385  0.0481
83035W        W25973  19.167  34.419  15.887 -0.0176  0.0969 -0.0580
83036W        W25974  17.915   1.635  16.868  0.2591  0.0157 -0.3032
83037W        W25975  22.055  34.665  17.184  0.0232 -0.1126  0.0477
83038W        W25976  21.527   2.445  16.705  0.0939  0.2140  0.4808
83039W        W25977  20.061   1.286  20.178 -0.1091 -0.0474 -0.0836
83040W        W25978  18.745  33.708  17.467 -0.1155  0.2244  0.1744
83041W        W25979  18.642   3.780  16.617  0.0085  0.1229 -0.0627
83042W        W25980  19.896   3.151  18.986  0.0868  0.2984 -0.0159
83043W        W25981  20.777   1.704  16.703 -0.0615  0.1859  0.0843
83044W        W25982  20.741   2.975  17.052  0.0335 -0.4701 -0.1856
83045W        W25983  20.892   2.076  19.315  0.2737  0.1609  0.2380
83046W        W25984  18.409   1.398  16.667  0.1709 -0.0831  0.3759
83047W        W25985  22.270   2.287  18.007  0.2163 -0.1233  0.1953
83048W        W25986  19.976   1.230  17.605 -0.1897  0.2238 -0.1728
83049W        W25987  18.821   2.668  17.986 -0.5584  0.1609 -0.3392
83050W        W25988  20.674   2.888  18.253  0.0906 -0.2610  0.0068
83051W        W25989  19.312   1.138  16.805  0.1143 -0.0669 -0.2165
83052W        W25990  18.606   2.795  18.484 -0.1007 -0.2814 -0.0615
83053W        W25991  21.214   2.344  17.853  0.1185  0.1985 -0.0236
83054W        W25992  20.794   3.230  18.625 -0.0939  0.0861  0.1229
83055W        W25993  19.776   1.165  19.226  0.1403  0.0841  0.0241
83056W        W25994  19.122   0.584  16.639 -0.1253 -0.3480  0.0951
83057W        W25995  20.790   2.055  17.911  0.0678 -0.2025  0.0681
83058W        W25996  21.339   3.311  18.420  0.0269  0.0394 -0.1337
83059W        W25997  20.456   2.100  19.057  0.1532  0.2853 -0.1768
83060W        W25998  17.998   1.891  20.780 -0.1341 -0.2838 -0.1961
83061W        W25999  19.178   0.174  18.023  0.2268  0.3187  0.1042
83062W        W26000  22.635   4.096  16.424 -0.0375 -0.0341 -0.0338
83063W        W26001  21.403   2.163  18.952  0.0307  0.2687 -0.1000
83064W        W26002  18.139   2.971  17.301  0.1637 -0.4127  0.2002
83065W        W26003  19.139   1.786  18.332  0.1201  0.3269 -0.1758
83066W        W26004  20.035   1.980  17.526  0.0217  0.2978 -0.0128
83067W        W26005  19.596   0.320  17.463  0.1374  0.1045 -0.1139
83068W        W26006  18.754   3.538  19.101  0.2063  0.0578  0.1656
83069W        W26007  18.732   3.357  17.566 -0.1427 -0.0291 -0.0859
83070W        W26008  17.859   2.838  17.677  0.3301  0.1042  0.3840
83071W        W26009  20.413   1.637  16.346  0.0923 -0.1836 -0.1022
83072W        W26010  19.821   2.851  17.078  0.2745  0.2806  0.3054
83073W        W26011  21.107   2.643  17.041 -0.2039 -0.1600 -0.1248
83074W        W26012  20.290   1.681  17.784  0.1491 -0.0744  0.0340
83075W        W26013  19.979   1.952  16.482  0.0307 -0.1970  0.1265
83076W        W26014  21.251   1.001  19.743  0.1120 -0.1693  0.1001
83077W        W26015  20.504   1.644  18.796 -0.1796 -0.1488 -0.3968
83078W        W26016  20.677   3.394  16.597 -0.3584  0.2734  0.1393
83079W        W26017  19.098   1.866  19.408 -0.1073  0.0325 -0.1841
83080W        W26018  19.558   3.301  17.963 -0.0440  0.1827 -0.1818
83081W        W26019  18.938   1.110  20.968 -0.1580 -0.4066  0.2505
83082W        W26020  20.872   1.155  16.740 -0.1460 -0.0051 -0.0910
83083W        W26021  18.424   0.123  16.199  0.0475  0.0543 -0.0912
83084W        W26022  19.187   1.777  17.808 -0.2617 -0.1097 -0.2087
83085W        W26023  21.240   5.161  17.104  0.1256  0.3956  0.4140
83086W        W26024  20.170   3.156  16.923  0.0190 -0.3188  0.0297
83087W        W26025  20.980   1.536  17.314  0.2300  0.1265 -0.1510
83088W        W26026  20.260   1.574  19.837 -0.3471  0.2212  0.4717
83089W        W26027  21.339   2.813  17.719 -0.0469 -0.0716  0.1809
83090W        W26028  21.236   2.542  16.232  0.1028  0.0865 -0.2103
83091W        W26029  18.989   1.473  16.504  0.2879  0.0553  0.0692
83092W        W26030  20.760   0.938  18.655  0.3310 -0.2911 -0.4038
83093W        W26031  20.431   3.429  18.857 -0.1963 -0.5543 -0.2317
83094W        W26032  20.584   0.640  16.472 -0.1051  0.0427  0.3326
83095W        W26033  20.370   0.578  18.679  0.2405  0.2548  0.0487
83096W        W26034  19.595   1.734  17.472 -0.1980 -0.0255 -0.0319
83097W        W26035  19.661   0.778  17.630 -0.1676 -0.0670 -0.0169
83098W        W26036  17.740   1.427  17.701  0.0400  0.0428 -0.3685
83099W        W26037  21.195   4.244  18.612  0.0556  0.1944 -0.2555
83100W        W26038  21.802   1.919  16.334 -0.0321  0.3054  0.0019
83101W        W26039  21.291   1.433  18.088  0.2079  0.0757  0.1073
83102W        W26040  20.394   0.964  17.499 -0.0802  0.4034 -0.5394
83103W        W26041  21.660   1.203  15.819  0.1608 -0.3450  0.1726
83104W        W26042  18.801  34.516  17.197  0.1663 -0.2035  0.1523
83105W        W26043  20.887   1.738  20.443 -0.3257  0.0780  0.2849
83106W        W26044  20.400   1.828  17.058  0.1623 -0.1097  0.1312
83107W        W26045  21.030   1.644  19.202 -0.1352  0.1569  0.0801
83108W        W26046  19.940   3.895  16.460 -0.2238 -0.0590 -0.2857
83109W        W26047  21.631   3.679  18.024 -0.1234  0.2221 -0.1251
83110W        W26048  19.934   2.432  17.332  0.0686  0.1561  0.2604
83111W        W26049  18.624  32.776  16.747 -0.3102  0.0077 -0.1456
83112W        W26050  17.922   1.768  19.366  0.0293  0.0554  0.1420
83113W        W26051  18.709   1.024  16.548 -0.3441  0.2737  0.1532
83114W        W26052  19.177   2.381  16.562  0.1067  0.1233 -0.1183
83115W        W26053  19.535   2.074  17.089  0.0201  0.1180  0.0125
83116W        W26054  22.770   2.089  17.617 -0.0083  0.3586 -0.4651
83117W        W26055  18.614   0.419  15.770  0.4536  0.0309  0.0999
83118W        W26056  22.325   1.510  19.593  0.0280  0.0719 -0.2937
83119W        W26057  18.290   3.246  18.399 -0.0145 -0.0567  0.0372
83120W        W26058  19.816   0.380  18.016  0.0006  0.1532  0.0005
83121W        W26059  19.774   3.567  18.351 -0.1395 -0.3724 -0.0725
83122W        W26060  19.259   2.451  19.135  0.3010  0.3061  0.1328
83123W        W26061  18.452   3.201  16.913  0.0121  0.3059  0.4248
83124W        W26062  21.339  34.331  19.736  0.2951  0.0515 -0.1057
83125W        W26063  22.052   1.395  17.686  0.0658 -0.0675 -0.1863
83126W        W26064  20.032   3.400  17.956  0.1906 -0.1883  0.0383
83127W        W26065  23.169   0.703  19.615 -0.0567 -0.0490 -0.2220
83128W        W26066  21.756   2.397  18.650  0.2315 -0.1164  0.1069
83129W        W26067  19.473   2.389  19.583  0.0112 -0.1534 -0.0492
83130W        W26068  21.278   2.670  18.688  0.1512  0.0400 -0.0135
83131W        W26069  21.316   1.933  16.509  0.0791  0.2770  0.1393
83132W        W26070  18.061   2.168  18.765  0.0392  0.3700 -0.1527
83133W        W26071  18.896  34.270  20.330  0.0313 -0.0392 -0.0752
83134W        W26072  18.747   2.020  20.754 -0.0461 -0.0497  0.3852
83135W        W26073  19.805   2.936  18.129 -0.2022 -0.1752  0.1046
83136W        W26074  18.883   0.860  17.091 -0.1582  0.0785  0.1345
83137W        W26075  21.050   3.647  16.022  0.1672 -0.1051  0.0846
83138W        W26076  18.002   2.313  20.428 -0.1175  0.3165 -0.0417
83139W        W26077  17.965   2.361  19.431  0.2249 -0.1286 -0.1657
83140W        W26078  19.864   2.877  16.557  0.0259  0.0377  0.0016
83141W        W26079  22.307   3.616  16.399  0.0069  0.1772  0.0438
83142W        W26080  20.377   3.499  16.270  0.0154  0.2489 -0.0898
83143W        W26081  21.243   3.811  18.295  0.1259 -0.0709  0.1848
83144W        W26082  20.191   0.357  15.790  0.1113 -0.1143 -0.2864
83145W        W26083  18.166   3.302  17.657 -0.1345  0.0068 -0.0971
83146W        W26084  17.583   2.299  16.022  0.4530 -0.1708 -0.1654
83147W        W26085  21.455   2.994  16.078  0.0968 -0.0807 -0.1884
83148W        W26086  18.943   3.101  17.122 -0.0233  0.0685 -0.1537
83149W        W26087  20.325   3.061  19.997 -0.1669 -0.3538  0.0456
83150W        W26088  22.751   0.536  16.310  0.0971 -0.0544  0.2040
83151W        W26089  21.871   2.434  17.163  0.0556 -0.1244  0.0658
83152W        W26090  21.693   0.489  17.829 -0.0783  0.0366 -0.1850
83153W        W26091  19.845   2.758  18.652 -0.0053  0.0507 -0.1802
83154W        W26092  19.497   2.395  18.700  0.1275 -0.0927 -0.3295
83155W        W26093  20.495  34.607  15.284  0.0313 -0.0291 -0.0707
83156W        W26094  18.981   2.585  19.595  0.0693 -0.0438 -0.1194
83157W        W26095  21.384  33.377  18.296 -0.0528 -0.1671  0.1077
83158W        W26096  18.584   3.135  18.848 -0.1446 -0.1789 -0.0628
83159W        W26097  22.696   3.268  16.442  0.1038  0.4862  0.1737
83160W        W26098  18.167   0.638  16.425  0.1374 -0.1903 -0.0665
83161W        W26099  19.354   0.646  17.966 -0.0573 -0.0418  0.2410
83162W        W26100  20.680   0.559  17.704 -0.1742  0.2165 -0.0752
83163W        W26101  20.317   2.618  16.814 -0.2226  0.2121 -0.1442
83164W        W26102  20.420   1.310  17.001 -0.1392 -0.0820 -0.0501
83165W        W26103  18.501   2.414  18.775 -0.1547 -0.1651  0.1114
83166W        W26104  19.143   3.771  19.271  0.2821  0.1233  0.2145
83167W        W26105  19.626   3.175  18.584  0.0698  0.0142 -0.0043
83168W        W26106  18.533   1.681  16.226  0.0891  0.0634  0.2252
83169W        W26107  23.284   2.768  18.990 -0.1297 -0.0094 -0.0490
83170W        W26108  19.091   0.679  18.820  0.0273 -0.1548  0.2063
83171W        W26109  20.833   1.084  17.630 -0.0161 -0.1490 -0.1995
83172W        W26110  19.989   1.131  16.186 -0.1271  0.1243  0.0089
83173W        W26111  20.760   2.037  16.216  0.2086 -0.0681 -0.0019
83174W        W26112  20.666   2.557  19.274  0.0886 -0.0842  0.1310
83175W        W26113  19.282   1.349  18.834  0.1118  0.1098 -0.2157
83176W        W26114  21.540   3.498  17.045 -0.2441  0.2369  0.1261
83177W        W26115  23.656   0.608  19.627  0.4282 -0.0013 -0.2006
83178W        W26116  21.898   3.203  16.231 -0.1087  0.0019  0.1265
83179W        W26117  20.784   3.742  18.442  0.3251 -0.3355  0.0779
83180W        W26118  19.095   0.678  17.492 -0.0752 -0.5375 -0.1325
83181W        W26119  19.905   1.054  15.696  0.2230  0.0066 -0.0466
83182W        W26120  17.938   1.015  16.749 -0.4067  0.0145  0.2823
83183W        W26121  21.217   3.096  19.404  0.1594  0.4728  0.2615
83184W        W26122  22.775   4.034  19.361  0.0449  0.0460 -0.1540
83185W        W26123  18.079   0.961  17.821 -0.0247 -0.3804 -0.1223
83186W        W26124  22.247   1.635  16.595  0.0818 -0.1580  0.4152
83187W        W26125  23.192   1.843  19.510  0.2913  0.0933 -0.1836
83188W        W26126  17.687   2.374  16.513 -0.1254 -0.2595  0.2385
83189W        W26127  21.580   3.156  18.008 -0.0197  0.1464 -0.0112
83190W        W26128  21.446   3.498  17.579  0.0273  0.0984 -0.3358
83191W        W26129  18.572   0.644  18.683 -0.0236  0.2778  0.0019
83192W        W26130  19.205   2.776  16.882 -0.0436 -0.2892  0.1834
83193W        W26131  21.615   3.671  18.632 -0.0588 -0.2017  0.3631
83194W        W26132  20.435   1.277  15.954  0.0225  0.3609 -0.1988
83195W        W26133  19.171   0.053  16.693 -0.0191  0.1344 -0.3883
83196W        W26134  18.594   2.658  17.202  0.2908 -0.1831  0.1117
83197W        W26135  20.817   1.958  17.355  0.1554 -0.0014  0.1132
83198W        W26136  19.927   0.915  17.220  0.1758 -0.1101  0.1819
83199W        W26137  18.721   2.132  16.405  0.1143  0.0860  0.1501
83200W        W26138  20.271   1.127  19.526 -0.1575  0.0259 -0.3296
83201W        W26139  19.718   4.248  17.722 -0.1632 -0.0343  0.1869
83202W        W26140  19.889   3.633  20.963 -0.1510  0.0862  0.4739
83203W        W26141  18.454   1.324  15.752  0.2205  0.0532  0.0373
83204W        W26142  18.353   2.312  18.207 -0.0681 -0.2723 -0.1503
83205W        W26143  20.623   3.534  17.084 -0.3252  0.0053 -0.1437
83206W        W26144  20.148   4.054  17.847 -0.1375 -0.0456 -0.1328
83207W        W26145  19.947   3.601  18.834 -0.0289  0.0194  0.0879
83208W        W26146  19.553   1.235  17.270 -0.1561  0.0168 -0.3385
83209W        W26147  19.837   4.287  16.897 -0.1661  0.2014  0.2351
83210W        W26148  19.128  34.000  17.245  0.1979 -0.5215 -0.2849
83211W        W26149  21.132   0.240  17.174  0.0025  0.5717  0.2193
83212W        W26150  22.375  34.366  16.157  0.0679 -0.0080  0.1973
83213W        W26151  21.091   1.797  18.738 -0.0635  0.0301 -0.1480
83214W        W26152  17.597   0.984  16.353 -0.1252 -0.5723 -0.0222
83215W        W26153  17.335   3.359  17.019 -0.0340  0.0827 -0.0921
83216W        W26154  19.751   3.723  17.665 -0.3327 -0.3863 -0.3158
83217W        W26155  19.278   0.058  18.826  0.1600 -0.1102  0.0696
83218W        W26156  20.595   2.029  18.355 -0.1436  0.1377  0.1488
83219W        W26157  19.599   2.401  20.263 -0.3214 -0.2241  0.3712
83220W        W26158  18.366  34.453  17.458 -0.2561 -0.3060 -0.0535
83221W        W26159  23.282   4.227  17.197 -0.3116  0.2031 -0.0421
83222W        W26160  18.501   0.333  17.520  0.0189 -0.0437 -0.1368
83223W        W26161  17.685   0.411  16.486 -0.2402 -0.0331  0.1006
83224W        W26162  21.971   4.519  18.517  0.1126 -0.0120  0.0924
83225W        W26163  21.090   3.146  17.415 -0.0134  0.4050 -0.0693
83226W        W26164  18.976   0.599  18.358  0.2895 -0.1507 -0.1783
83227W        W26165  21.735   2.866  18.494 -0.2276  0.2344 -0.0711
83228W        W26166  18.174   3.073  15.758 -0.1024 -0.2248 -0.1622
83229W        W26167  19.190   1.800  20.841  0.1116  0.0053  0.2836
83230W        W26168  18.770   0.255  18.895  0.2050 -0.0865 -0.1762
83231W        W26169  19.260   0.960  16.297  0.0023  0.3544  0.1700
83232W        W26170  21.986   1.155  17.029  0.1258 -0.0161 -0.1370
83233W        W26171  19.135   3.673  17.803  0.3453 -0.1671  0.0438
83234W        W26172  21.002   4.335  17.559  0.2034  0.1902 -0.0226
83235W        W26173  19.323   2.732  18.343  0.3015 -0.1482  0.2004
83236W        W26174  18.612   4.474  17.581  0.0755  0.1626 -0.0468
83237W        W26175  18.797   2.057  18.094 -0.2547 -0.2021 -0.2629
83238W        W26176  21.940   3.701  16.018  0.0765  0.4835 -0.0760
83239W        W26177  20.305   2.890  19.450  0.0182 -0.0936 -0.1766
83240W        W26178  22.349   3.683  16.906 -0.3733 -0.1618 -0.0712
83241W        W26179  21.250   0.459  17.585  0.0496 -0.2770 -0.4415
83242W        W26180  19.630   1.931  18.398 -0.0404 -0.0529 -0.3346
83243W        W26181  19.747   0.664  20.508 -0.1454  0.0824  0.0621
83244W        W26182  17.788   3.121  19.274 -0.1446  0.0276 -0.1025
83245W        W26183  21.881   0.950  20.120 -0.4094  0.1001 -0.1903
83246W        W26184  19.963  33.231  16.300 -0.3864  0.2147 -0.2175
83247W        W26185  21.708   2.466  18.151 -0.3307  0.0377 -0.1875
83248W        W26186  21.505   3.539  15.839  0.0155  0.0273  0.0007
83249W        W26187  18.438   1.938  18.510 -0.2114  0.1715 -0.0270
83250W        W26188  19.750   0.879  16.730  0.0789 -0.2866 -0.1241
83251W        W26189  20.114   1.910  18.602 -0.1984 -0.2436  0.0986
83252W        W26190  20.232   3.649  17.478  0.1938  0.2787  0.1044
83253W        W26191  20.804   1.646  19.936 -0.0505 -0.1523 -0.2837
83254W        W26192  20.670   1.663  15.858  0.0082 -0.3239  0.0074
83255W        W26193  21.465   1.511  16.158 -0.2241 -0.1096  0.3827
83256W        W26194  19.447   2.870  18.926  0.1041 -0.2390  0.0703
83257W        W26195  20.686   3.960  17.375  0.1837  0.0218  0.1417
83258W        W26196  19.440   3.362  19.062 -0.2735 -0.2832  0.0402
83259W        W26197  22.636   2.638  18.236 -0.0470  0.0241  0.2865
83260W        W26198  18.804   1.509  18.010  0.2571  0.0679  0.2355
83261W        W26199  19.107   1.817  17.308  0.0411 -0.2326  0.2804
83262W        W26200  19.941   1.572  17.165  0.0650 -0.2317  0.3156
83263W        W26201  20.894   1.112  18.172 -0.0420  0.1845  0.1152
83264W        W26202  18.686   0.560  17.962 -0.4363 -0.0760 -0.0079
83265W        W26203  20.411  34.028  15.811  0.3547  0.2094 -0.0937
83266W        W26204  19.956   2.496  17.824  0.3812 -0.1717  0.1336
83267W        W26205  19.213   3.548  17.298 -0.0474  0.2467  0.0619
83268W        W26206  19.014   2.635  22.341 -0.1787  0.3273  0.0627
83269W        W26207  18.462   1.587  22.073  0.3722 -0.1744  0.1671
83270W        W26208  21.590   0.927  18.960  0.2521  0.3167  0.0044
83271W        W26209  21.634   0.722  20.648 -0.1974  0.2463  0.0808
83272W        W26210  19.267   0.420  20.424  0.0404 -0.0379  0.0315
83273W        W26211  20.325   2.071  22.074 -0.1163  0.1222  0.1885
83274W        W26212  18.283  34.054  23.375 -0.2062 -0.3640  0.1231
83275W        W26213  20.318   2.751  21.686  0.2056 -0.0320 -0.3624
83276W        W26214  21.343   2.716  22.497  0.0524 -0.2555  0.0963
83277W        W26215  21.080   2.675  20.948 -0.0806  0.1795 -0.0629
83278W        W26216  18.678  33.950  22.359  0.1211  0.0678 -0.3797
83279W        W26217  19.754   4.224  23.775 -0.0365 -0.0260  0.1020
83280W        W26218  19.614  34.098  19.153  0.1661  0.0026  0.1275
83281W        W26219  17.184  34.253  22.033 -0.0834 -0.3007  0.1421
83282W        W26220  19.868   3.050  22.295 -0.1891  0.1234  0.2989
83283W        W26221  17.636   1.524  20.971  0.1608  0.1341 -0.1674
83284W        W26222  18.374   2.133  22.380  0.0780 -0.0478  0.0030
83285W        W26223  19.059   0.631  20.857 -0.2464 -0.0589 -0.2676
83286W        W26224  17.557   2.842  21.101 -0.0996 -0.1497  0.4729
83287W        W26225  19.963   0.508  22.594  0.1766  0.1526  0.1780
83288W        W26226  20.425   0.206  21.012  0.0102 -0.1216  0.2479
83289W        W26227  19.651   1.913  22.695 -0.0073 -0.3298 -0.0528
83290W        W26228  18.178   1.502  19.758  0.0694 -0.2109  0.2650
83291W        W26229  17.579   1.179  21.869  0.0287 -0.0093 -0.1407
83292W        W26230  20.455   1.655  21.278 -0.1175  0.0771 -0.1522
83293W        W26231  20.521   0.728  20.879 -0.0435  0.3262 -0.2208
83294W        W26232  21.055   1.402  22.415 -0.2462 -0.3193  0.0645
83295W        W26233  19.612   3.281  21.816 -0.0400  0.2049 -0.0208
83296W        W26234  20.938   3.521  21.427 -0.0689  0.0696 -0.1723
83297W        W26235  20.247   0.301  21.829 -0.0440  0.2644 -0.0936
83298W        W26236  16.190   2.132  21.023 -0.1007 -0.1402  0.1472
83299W        W26237  17.342   3.127  21.418  0.1634  0.1807  0.2520
83300W        W26238  18.312   3.891  20.417 -0.2030  0.1569  0.0625
83301W        W26239  20.588   3.140  21.577 -0.2728 -0.0229 -0.2586
83302W        W26240  21.386   2.039  23.099 -0.0460  0.3861 -0.1134
83303W        W26241  19.480   3.516  24.179 -0.1684  0.1406 -0.0102
83304W        W26242  19.040   2.825  20.852  0.0655  0.0527 -0.0930
83305W        W26243  19.359   2.379  24.664  0.2882  0.1693 -0.1449
83306W        W26244  17.961   3.793  22.500  0.3276 -0.0544 -0.3155
83307W        W26245  19.108   1.464  21.267 -0.4580 -0.0653 -0.0339
83308W        W26246  20.055   1.723  20.954  0.3526  0.0619 -0.0370
83309W        W26247  18.502   2.851  19.848  0.1900 -0.0994  0.3174
83310W        W26248  20.090   3.204  21.616 -0.1385  0.2540 -0.1653
83311W        W26249  19.353   3.704  21.899  0.0240  0.2698 -0.0558
83312W        W26250  17.940   1.649  21.874 -0.0339 -0.3488  0.2876
83313W        W26251  21.314   0.997  21.429 -0.2730  0.0092  0.1833
83314W        W26252  18.935   3.076  19.692 -0.0078  0.2328 -0.0655
83315W        W26253  19.902  34.341  20.342 -0.1199 -0.2480  0.2964
83316W        W26254  19.805  34.580  19.937  0.1602 -0.1503 -0.0951
83317W        W26255  20.750   0.358  19.888 -0.0006 -0.0490  0.1640
83318W        W26256  20.767  33.549  21.811  0.2733 -0.1483  0.3715
83319W        W26257  18.675   3.619  22.292 -0.3431  0.1123  0.1180
83320W        W26258  19.664  34.232  23.443  0.2258  0.0596 -0.0609
83321W        W26259  21.766   4.382  22.720 -0.0360  0.1068  0.2144
83322W        W26260  19.542   2.466  21.355 -0.0439  0.1939  0.3963
83323W        W26261  19.633   1.953  22.144 -0.2220 -0.0925  0.0662
83324W        W26262  18.154   3.429  22.156  0.3969  0.4167 -0.0966
83325W        W26263  18.332   1.320  21.650 -0.1145 -0.0295 -0.0972
83326W        W26264  19.802   3.291  19.549 -0.0653 -0.1879  0.2577
83327W        W26265  20.260   3.145  20.577  0.1060 -0.1627 -0.0377
83328W        W26266  22.095   2.970  19.894 -0.1346 -0.0498 -0.2262
83329W        W26267  18.301   1.981  21.697 -0.0309  0.0630 -0.0373
83330W        W26268  19.190   2.991  23.990  0.0918  0.1482  0.0304
83331W        W26269  19.082   2.133  24.263  0.1302 -0.1236 -0.3994
83332W        W26270  19.340  34.262  18.727  0.3027  0.2201 -0.2740
83333W        W26271  22.268   1.923  22.883  0.1290 -0.0279 -0.3150
83334W        W26272  18.486   3.491  23.935  0.0744 -0.1142 -0.1807
83335W        W26273  21.482   0.266  20.964  0.0013  0.0773  0.4761
83336W        W26274  19.396   2.828  22.765  0.2131  0.1729  0.0588
83337W        W26275  19.212   3.303  23.005  0.1610  0.0580 -0.2211
83338W        W26276  22.727   1.424  20.091  0.0569 -0.0540  0.1181
83339W        W26277  20.901   0.958  21.634 -0.1593 -0.0386  0.2054
83340W        W26278  20.944   1.595  20.905 -0.0735  0.3304 -0.2097
83341W        W26279  17.753   1.926  17.824 -0.0411  0.2040 -0.2645
83342W        W26280  18.792   2.512  20.067 -0.0291  0.0827  0.0982
83343W        W26281  21.698   3.620  22.241 -0.1607 -0.2556  0.2583
83344W        W26282  22.199   1.373  20.024  0.3376  0.1132  0.1122
83345W        W26283  17.734   3.006  23.109  0.2695  0.0840  0.0005
83346W        W26284  19.550   1.390  22.825 -0.3018  0.1420  0.0114
83347W        W26285  19.675   3.695  23.284  0.4793 -0.0447 -0.2820
83348W        W26286  19.391   3.255  20.480 -0.0767  0.1330  0.2634
83349W        W26287  16.799   2.552  21.644 -0.0258 -0.1302 -0.0135
83350W        W26288  18.747   1.722  21.628 -0.1300 -0.0554 -0.1183
83351W        W26289  16.915   1.036  23.657 -0.2899 -0.0450  0.3227
83352W        W26290  20.606   3.372  22.772  0.0211  0.0915  0.1857
83353W        W26291  19.850   0.936  19.818  0.0441  0.0174 -0.1072
83354W        W26292  18.110   1.753  23.341  0.1640  0.4656 -0.2302
83355W        W26293  20.790   0.609  20.455  0.0538 -0.1049  0.1875
83356W        W26294  17.293   2.980  22.429 -0.2996 -0.2598 -0.1668
83357W        W26295  20.533   2.158  21.621  0.0545 -0.0521  0.0555
83358W        W26296  20.941   1.956  21.362  0.1140 -0.1530  0.0563
83359W        W26297  20.611   2.105  20.140  0.2989 -0.2945 -0.2201
83360W        W26298  18.027   1.076  22.569 -0.0784  0.0709  0.1758
83361W        W26299  18.155   1.633  22.451 -0.1256 -0.0771  0.0217
83362W        W26300  18.449   1.335  23.297  0.0577  0.2767  0.1341
83363W        W26301  17.215   0.853  22.934 -0.1470  0.0423  0.0622
83364W        W26302  20.121   1.277  22.983 -0.0906  0.2830  0.1519
83365W        W26303  19.153   0.616  21.365  0.0059  0.0512 -0.0759
83366W        W26304  19.559   0.311  21.507 -0.2941  0.0011  0.0475
83367W        W26305  18.132   0.583  21.904  0.0548  0.1457 -0.2956
83368W        W26306  17.692   3.137  21.915  0.2196 -0.0293  0.0951
83369W        W26307  20.144   0.834  21.727  0.0049 -0.0820 -0.0421
83370W        W26308  19.217   3.908  20.139  0.2700  0.0967 -0.2406
83371W        W26309  21.135   3.343  23.037  0.0789 -0.0290  0.3309
83372W        W26310  20.118   3.526  22.908 -0.0100  0.0628  0.0270
83373W        W26311  18.547   0.773  23.007  0.0433 -0.1445  0.0238
83374W        W26312  19.145   0.246  19.960  0.0674  0.1465 -0.2915
83375W        W26313  17.725   4.157  21.364  0.1746  0.1179  0.0922
83376W        W26314  18.279   3.060  21.758  0.0614 -0.1032 -0.0389
83377W        W26315  20.764   1.241  19.677 -0.3031  0.1219 -0.1621
83378W        W26316  20.721   4.059  22.215 -0.1395  0.4500  0.1123
83379W        W26317  20.031   2.290  19.796 -0.1973  0.5731 -0.2556
83380W        W26318  14.482   2.292  21.929 -0.2373  0.0995 -0.1119
83381W        W26319  18.862   1.286  21.812  0.5494 -0.0289 -0.0384
83382W        W26320  20.046   0.944  22.306  0.3258 -0.0198 -0.1784
83383W        W26321  19.893   1.362  21.506  0.2129  0.5697  0.1713
83384W        W26322  18.631  33.937  19.146  0.1139 -0.1791  0.1600
83385W        W26323  20.672   2.441  22.062 -0.1859 -0.1579 -0.1893
83386W        W26324  18.706   2.510  20.590  0.1670  0.1349  0.0821
83387W        W26325  17.257   2.390  20.935  0.3285  0.3374 -0.0083
83388W        W26326  20.075   2.684  20.650  0.2886  0.2942  0.3559
83389W        W26327  20.246   0.419  20.511  0.2325  0.0808 -0.0243
83390W        W26328  19.410   1.147  23.669  0.2042 -0.5383  0.0359
83391W        W26329  20.519   0.629  21.461  0.0236 -0.2454 -0.1593
83392W        W26330  19.129   1.731  21.920  0.0049  0.1697 -0.0097
83393W        W26331  18.197   2.507  21.847  0.0956  0.0798 -0.2278
83394W        W26332  19.853  34.030  18.662 -0.3026  0.1286 -0.2745
83395W        W26333  22.011   0.704  19.281  0.1504 -0.0573 -0.4279
83396W        W26334  17.981   2.298  22.691 -0.1296 -0.0420  0.0016
83397W        W26335  21.512   2.398  20.607  0.1206 -0.3351 -0.0824
83398W        W26336  20.885   2.434  18.299  0.0411 -0.2011 -0.0189
83399W        W26337  20.187   0.224  19.087  0.1819  0.0440 -0.1956
83400W        W26338  18.808   2.127  23.822  0.2709  0.1650 -0.1203
83401W        W26339  19.058   2.667  21.369 -0.0116  0.1207  0.1225
83402W        W26340  18.409   2.444  22.973  0.2352  0.1217  0.2807
83403W        W26341  20.915   1.367  18.844 -0.1959 -0.3120 -0.0941
83404W        W26342  22.725   1.782  19.691  0.4849 -0.1862  0.3354
83405W        W26343  17.679   1.700  23.556  0.1937  0.0766  0.3594
83406W        W26344  20.164   2.797  23.500  0.1299  0.2043  0.1820
83407W        W26345  20.527   2.347  20.625 -0.2324  0.1057  0.2685
83408W        W26346  20.390  34.381  22.713  0.0301  0.2735  0.1621
83409W        W26347  19.381   1.767  20.377  0.3740  0.0450  0.0750
83410W        W26348  19.723   0.176  20.429 -0.0950  0.0813  0.0464
83411W        W26349  16.537   2.106  20.045 -0.0784  0.0148 -0.1373
83412W        W26350  20.751   1.104  21.159 -0.4541 -0.0519 -0.0059
83413W        W26351  19.826   0.940  22.775  0.1361 -0.0007 -0.2144
83414W        W26352  19.812   0.437  23.065 -0.3136  0.3901  0.0575
83415W        W26353  20.879   1.668  24.144  0.0649  0.1100  0.2038
83416W        W26354  20.311   0.918  20.493  0.3098 -0.1237  0.1092
83417W        W26355  18.766   1.742  22.550  0.0013 -0.2736 -0.2891
83418W        W26356  19.148   1.299  20.230  0.1114  0.3207  0.1786
83419W        W26357  21.672  33.474  22.541  0.1867 -0.0682 -0.2352
83420W        W26358  19.339   1.608  22.439 -0.1422  0.0820 -0.0458
83421W        W26359  18.882   3.117  22.618  0.2066 -0.2792 -0.1828
83422W        W26360  20.861   2.503  22.545  0.0536 -0.0628 -0.0831
83423W        W26361  20.518   2.162  21.132  0.2142  0.1409  0.4217
83424W        W26362  20.241   1.198  24.317  0.0677 -0.0844  0.0281
83425W        W26363  19.739   1.419  19.675 -0.2242 -0.3389  0.2555
83426W        W26364  18.877   3.088  21.473 -0.3988 -0.2841  0.0279
83427W        W26365  19.226   2.586  20.461 -0.2605 -0.4551  0.5396
83428W        W26366  18.718  34.564  21.028  0.0812  0.1532  0.2770
83429W        W26367  17.825   3.222  22.573 -0.0970  0.1305  0.4145
83430W        W26368  19.148   2.138  19.827  0.3859  0.0812  0.0324
83431W        W26369  20.331   2.419  22.810 -0.2881  0.0365 -0.2377
83432W        W26370  17.476   2.639  20.598 -0.2021  0.2652  0.1597
83433W        W26371  21.714   0.330  23.215 -0.0267 -0.1418 -0.0248
83434W        W26372  16.973   3.982  21.228 -0.2139  0.0392 -0.1364
83435W        W26373  18.877   0.683  20.185 -0.0065  0.1095 -0.0438
83436W        W26374  18.298   0.367  23.238 -0.3773  0.3035 -0.3255
83437W        W26375  21.670  33.913  20.518  0.1685  0.2453  0.6537
83438W        W26376  21.229   1.758  21.970 -0.0325  0.1615 -0.0800
83439W        W26377  17.606   0.951  23.622  0.0796 -0.1425 -0.1645
83440W        W26378  20.053   0.370  21.347 -0.1604  0.2526 -0.1086
83441W        W26379  17.832   2.165  23.791  0.0648 -0.0043 -0.1488
83442W        W26380  20.863   1.013  22.615  0.2735 -0.1528 -0.4783
83443W        W26381  21.380  34.399  18.652 -0.2723 -0.1196 -0.2281
83444W        W26382  20.414   2.156  23.490 -0.2633 -0.3098  0.0393
83445W        W26383  20.573   2.647  23.735  0.6420  0.1928  0.0130
83446W        W26384  18.847   1.481  20.614 -0.0785  0.1664  0.0278
83447W        W26385  21.723   2.074  21.511  0.0302  0.4358  0.2494
83448W        W26386  20.464   2.862  22.415  0.1930  0.3078 -0.2278
83449W        W26387  18.726   2.291  21.544 -0.6030 -0.3501 -0.3118
83450W        W26388  19.990   3.302  23.510 -0.2941  0.2599 -0.0209
83451W        W26389  20.485   1.842  20.738  0.1039 -0.3282  0.1696
83452W        W26390  17.119   1.452  22.266  0.0370  0.1733  0.3649
83453W        W26391  18.957   1.752  24.996 -0.0829 -0.3385 -0.0490
83454W        W26392  21.001   1.984  22.724 -0.0628  0.1212 -0.1821
83455W        W26393  19.572   0.389  20.955 -0.0441 -0.0221  0.3085
83456W        W26394  18.688   0.331  20.719  0.1747 -0.3057  0.3457
83457W        W26395  18.972   0.791  22.081  0.4758 -0.3649 -0.0516
83458W        W26396  19.967   2.285  22.516  0.1915 -0.1867 -0.1203
83459W        W26397  19.573   0.918  22.284  0.1336 -0.2181  0.2866
83460W        W26398  18.846   4.092  24.320  0.0737 -0.0732  0.2297
83461W        W26399  19.836  34.671  21.761 -0.0857  0.1297  0.2993
83462W        W26400  21.638   2.922  20.143 -0.3285 -0.0568 -0.1441
83463W        W26401  19.829   0.502  21.943 -0.2066 -0.1594 -0.1910
83464W        W26402  19.652   1.454  21.053 -0.1081  0.0460  0.1090
83465W        W26403  16.597   2.545  22.409  0.2918 -0.1747 -0.1278
83466W        W26404  18.479   2.370  19.609  0.0429  0.2253 -0.1790
83467W        W26405  19.390   0.757  21.842 -0.2581  0.2485 -0.0525
83468W        W26406  16.750   2.110  23.324  0.1281  0.2565  0.3046
83469W        W26407  17.690   2.606  21.866 -0.0481  0.0931 -0.0081
83470W        W26408  16.675   3.284  23.808  0.1953  0.1826 -0.0395
83471W        W26409  20.995   0.558  21.342 -0.1706  0.1854 -0.2842
83472W        W26410  20.438   2.001  19.607 -0.0628  0.2331 -0.4361
83473W        W26411  19.753   1.084  21.880  0.1563 -0.1173  0.1134
83474W        W26412  20.999   0.478  21.815  0.1746 -0.1374  0.5100
83475W        W26413  20.055   2.166  20.387  0.0831  0.0054  0.0707
83476W        W26414  20.513   0.194  24.361  0.0740 -0.2345 -0.0792
83477W        W26415  19.321   0.257  24.190  0.3013  0.4501  0.0857
83478W        W26416  20.792   2.953  19.639  0.2167  0.1273 -0.1088
83479W        W26417  18.269   1.916  23.961 -0.1351  0.2756 -0.2281
83480W        W26418  20.557   3.128  23.358  0.0789 -0.0493  0.2289
83481W        W26419  19.236   2.483  23.641 -0.0450  0.0268  0.5590
83482W        W26420  19.889  34.467  19.452 -0.3944  0.0719 -0.0914
83483W        W26421  18.470  34.405  19.260 -0.0093  0.0817  0.0232
83484W        W26422  19.404   2.309  22.809  0.5131 -0.0627  0.1362
83485W        W26423  18.441   3.272  21.324  0.2176 -0.1437  0.4510
83486W        W26424  20.938   2.254  18.827  0.0492 -0.0118  0.0549
83487W        W26425  21.736   0.319  21.902  0.1086 -0.3129  0.0906
83488W        W26426  18.792   2.267  22.705 -0.1014 -0.3366  0.0860
83489W        W26427  21.065   2.088  20.843  0.0327  0.1183 -0.0643
83490W        W26428  19.571   2.142  20.718  0.2809  0.0409  0.2333
83491W        W26429  18.155   2.896  22.243 -0.2880 -0.0806 -0.0378
83492W        W26430  18.817   1.280  23.674  0.1484  0.1823 -0.3418
83493W        W26431  19.212   3.607  22.451 -0.2560  0.0619  0.2367
83494W        W26432  20.504  33.982  21.664 -0.0678  0.1532 -0.1104
83495W        W26433  19.870   2.337  21.731  0.1822  0.2696 -0.5113
83496W        W26434  19.843   2.805  21.792 -0.1607 -0.2543  0.0108
83497W        W26435  19.455   2.421  25.251  0.0227  0.1725 -0.1563
83498W        W26436  18.202   1.569  24.354  0.1386  0.0243  0.0033
83499W        W26437  21.763   4.522  20.668 -0.1516 -0.0471  0.2607
83500W        W26438  23.245   1.637  20.700  0.0525 -0.2484  0.1852
83501W        W26439  21.512  34.553  23.289 -0.1327 -0.0800  0.3777
83502W        W26440  21.412   0.848  20.203 -0.2335  0.1203  0.2604
83503W        W26441  17.997   2.688  21.364 -0.0844  0.1218 -0.0804
83504W        W26442  18.272   0.261  21.046 -0.1780  0.3340 -0.1486
83505W        W26443  20.619   1.460  23.206  0.0690 -0.0626  0.1380
83506W        W26444  19.296  33.648  20.940  0.1544  0.0705  0.0337
83507W        W26445  20.236   0.676  23.142 -0.1461 -0.2009 -0.3514
83508W        W26446  19.419   3.581  19.642  0.0487  0.0219  0.1433
83509W        W26447  19.561   2.686  20.923 -0.0930 -0.1102  0.0585
83510W        W26448  19.463   0.954  21.003 -0.1218  0.1194  0.0056
83511W        W26449  17.678   0.662  21.650 -0.0131  0.1407 -0.1849
83512W        W26450  19.965   4.460  23.366 -0.3086 -0.0519  0.0699
83513W        W26451  18.731   2.508  21.045  0.2956 -0.0297  0.1437
83514W        W26452  18.146   2.206  21.283  0.0513  0.0398  0.3097
83515W        W26453  19.621   3.269  22.693  0.1434 -0.2493 -0.2712
83516W        W26454  21.401   1.795  22.452 -0.1355  0.0333 -0.1675
83517W        W26455  20.599   1.254  20.207  0.2399  0.5441  0.3631
83518W        W26456  20.544   0.799  22.007 -0.1173  0.1418 -0.3647
83519W        W26457  17.776   2.199  21.680  0.1991 -0.1313  0.0985
83520W        W26458  20.169  34.151  19.887  0.1679 -0.0352 -0.1669
83521W        W26459  20.291   3.049  22.955  0.0932  0.0737  0.3984
83522W        W26460  18.432   2.638  24.420  0.0399  0.2004 -0.2379
83523W        W26461  17.290   2.889  23.408  0.0119 -0.0189  0.1722
83524W        W26462  20.452   0.375  22.274  0.0771  0.2417 -0.0193
83525W        W26463  21.875   0.553  21.123 -0.3459  0.0330 -0.0259
83526W        W26464  18.368   1.867  22.915 -0.3561  0.0484  0.1501
83527W        W26465  21.671   2.619  21.666 -0.0411 -0.0152 -0.0091
83528W        W26466  18.926   3.391  24.343  0.0942 -0.2033  0.3169
83529W        W26467  17.276   1.665  21.783 -0.0143 -0.1168  0.3235
83530W        W26468  20.494   1.936  22.525  0.0442 -0.1695 -0.1296
83531W        W26469  21.782   3.205  20.636 -0.1148  0.0123 -0.0014
83532W        W26470  18.980   2.613  22.969 -0.5045 -0.1755  0.1078
83533W        W26471  17.970   2.642  24.598  0.0017  0.0881  0.0345
83534W        W26472  20.594   1.433  22.700  0.0746  0.0082  0.0892
83535W        W26473  19.297   2.222  21.900  0.2132 -0.2205  0.0089
83536W        W26474  19.625  33.467  19.872 -0.1349 -0.0636 -0.2013
83537W        W26475  19.778   2.658  19.189  0.3328  0.2181 -0.5597
83538W        W26476  17.510   2.231  22.695 -0.1486  0.1519  0.1644
83539W        W26477  17.687   2.141  23.188 -0.3657 -0.0228 -0.0576
83540W        W26478  17.818   3.027  20.606 -0.0584 -0.1455 -0.0264
83541W        W26479  21.299   1.333  20.112 -0.0560 -0.0813  0.2352
83542W        W26480  19.038   2.110  20.372  0.0510 -0.1786 -0.2426
83543W        W26481  19.049   3.322  21.968  0.1950 -0.1336 -0.1234
83544W        W26482  19.853   1.804  20.078 -0.0000  0.1539  0.1282
83545W        W26483  16.921   2.383  22.805 -0.1141  0.0555 -0.2079
83546W        W26484  17.862   1.570  20.411  0.1353 -0.2658  0.0245
83547W        W26485  20.185   2.456  19.328  0.1303 -0.3833 -0.3194
83548W        W26486  18.538   3.836  21.364  0.1291 -0.1482  0.0504
83549W        W26487  20.999   2.929  23.474  0.1282  0.3300 -0.0309
83550W        W26488  21.141   2.550  19.169 -0.0686  0.0185 -0.1623
83551W        W26489  21.827   1.786  20.313  0.0430 -0.1163  0.0255
83552W        W26490  20.892   0.832  20.032  0.3493  0.0491  0.2029
83553W        W26491  19.589   4.183  23.252 -0.2305 -0.1162 -0.2964
83554W        W26492  18.746   1.202  22.324  0.1701 -0.1436 -0.2913
83555W        W26493  19.440   1.568  19.244 -0.0384 -0.1613  0.2111
83556W        W26494  18.666   1.616  24.046  0.2933 -0.0556  0.2123
83557W        W26495  21.369  34.421  23.753 -0.1450 -0.1138 -0.0483
83558W        W26496  18.552   2.165  24.259  0.0192 -0.1149 -0.3880
83559W        W26497  19.936   2.840  21.258  0.0069 -0.0261 -0.0840
83560W        W26498  19.424   0.696  20.002 -0.2310  0.0472  0.1671
83561W        W26499  19.345   1.127  21.580  0.0461  0.0984 -0.1778
83562W        W26500  21.814  33.911  22.962  0.2581 -0.1152  0.0349
83563W        W26501  19.010   2.530  18.732 -0.0941  0.0214  0.2082
83564W        W26502  17.973   1.451  22.873 -0.3534 -0.0595 -0.3218
83565W        W26503  18.587   2.992  20.964 -0.0591 -0.0193 -0.1513
83566W        W26504  17.939   3.316  21.526  0.0686  0.1256  0.4262
83567W        W26505  18.669   2.727  21.867 -0.2309  0.0740 -0.0380
83568W        W26506  18.467   2.120  20.369 -0.0231  0.0128  0.1181
83569W        W26507  21.053   2.268  20.373  0.0646  0.2188  0.1412
83570W        W26508  21.759   0.118  23.630  0.2658 -0.0421 -0.1556
83571W        W26509  21.510   0.490  21.475  0.0114 -0.1652 -0.3722
83572W        W26510  20.394   0.944  22.663 -0.0223  0.1900 -0.1759
83573W        W26511  20.831   1.065  20.688  0.1983  0.1482  0.0483
83574W        W26512  20.110   1.592  22.637  0.0699  0.1788  0.0513
83575W        W26513  17.719   1.775  24.186  0.1913  0.1556  0.1474
83576W        W26514  20.142   2.394  21.354  0.2144 -0.1147 -0.1187
83577W        W26515  20.920   1.958  22.268  0.1050  0.3729  0.0792
83578W        W26516  21.785   1.582  18.127  0.2572 -0.0541 -0.0149
83579W        W26517  20.117   3.105  23.962  0.3140 -0.1810  0.1251
83580W        W26518  18.029   0.001  21.744 -0.0125 -0.1271  0.1958
83581W        W26519  21.248   0.169  19.511 -0.3315 -0.0819  0.0363
83582W        W26520  18.063   1.263  22.106  0.1990 -0.0299 -0.1179
83583W        W26521  19.716   2.857  20.387  0.3526 -0.1157 -0.1984
83584W        W26522  22.513   3.294  22.631 -0.0310  0.1967  0.1100
83585W        W26523  18.505   0.956  21.958 -0.2167 -0.2524 -0.0950
83586W        W26524  20.399   2.801  21.045  0.1408  0.2211 -0.2722
83587W        W26525  21.197   0.838  20.925 -0.1044  0.1602  0.2474
83588W        W26526  21.177   2.938  19.912  0.0168  0.0740 -0.0135
83589W        W26527  20.241   1.105  21.143  0.1010  0.0337 -0.0116
83590W        W26528  19.644   2.533  22.205  0.1560  0.0469  0.2746
83591W        W26529  18.317   2.258  23.461 -0.2880  0.0162  0.1573
83592W        W26530  21.148   3.716  22.109 -0.2324  0.1305  0.1076
83593W        W26531  21.095   2.702  21.749 -0.0094 -0.1337 -0.0456
83594W        W26532  19.301  33.801  19.494 -0.0627 -0.2158 -0.1993
83595W        W26533  19.237   1.565  23.336 -0.3090 -0.1075  0.3114
83596W        W26534  17.864   2.533  20.872  0.2859  0.1309 -0.0572
83597W        W26535  21.143   1.659  23.550  0.1326 -0.1198  0.1085
83598W        W26536  18.453   0.654  22.377 -0.1221 -0.0094 -0.1205
83599W        W26537  20.154   3.610  19.758 -0.1187  0.1670  0.0885
83600W        W26538  22.009   0.595  23.594  0.2833 -0.2429  0.0488
83601W        W26539  18.631   4.080  20.829 -0.0359  0.0937 -0.1840
83602W        W26540  20.296   4.421  23.732  0.1388  0.1697 -0.1700
83603W        W26541  18.084   1.685  21.197 -0.2618  0.0844 -0.2470
83604W        W26542  19.612   1.617  23.717  0.1719  0.2303  0.0431
83605W        W26543  17.139   1.958  22.402  0.1097 -0.2333 -0.2236
83606W        W26544  18.852   3.476  21.158 -0.1170  0.6248 -0.0532
83607W        W26545  20.799   3.415  22.268  0.0788  0.0172  0.3377
83608W        W26546  19.346  34.453  20.180  0.0528 -0.0546  0.1231
83609W        W26547  22.332   3.236  21.363  0.0231  0.0620 -0.3324
83610W        W26548  20.126   1.873  21.644  0.2228  0.0397 -0.1976
83611W        W26549  22.058  34.198  20.433  0.1055  0.1938  0.0375
83612W        W26550  21.231   0.513  19.860 -0.2728  0.3539 -0.0805
83613W        W26551  17.219   2.329  23.322 -0.0467 -0.1413  0.0454
83614W        W26552  18.330   1.488  20.694  0.1597 -0.2243  0.3153
83615W        W26553  18.677   1.735  19.526  0.0654  0.1605  0.2726
83616W        W26554  17.747   2.672  22.450 -0.2059  0.0704 -0.1385
83617W        W26555  20.074  33.608  22.413  0.3676 -0.0478 -0.2772
83618W        W26556  18.486   0.985  24.007 -0.0149 -0.4617  0.1825
83619W        W26557  17.194   1.379  22.909  0.0101 -0.1499  0.0117
83620W        W26558  19.468  34.497  21.434  0.0649 -0.1047 -0.3921
83621W        W26559  19.901   2.758  19.758  0.0666  0.0652  0.2723
83622W        W26560  20.040   0.022  20.803 -0.0976 -0.1359 -0.2801
83623W        W26561  19.778   2.019  21.308  0.1784  0.1798 -0.0506
83624W        W26562  21.772   2.271  21.043 -0.1507  0.0372  0.0701
83625W        W26563  21.433   3.071  21.525  0.0041  0.0436  0.1580
83626W        W26564  19.148  34.536  20.669  0.0448 -0.1284  0.0695
83627W        W26565  21.353   3.467  24.774  0.1993  0.1784 -0.0689
83628W        W26566  17.110   1.958  18.692 -0.3157  0.0285 -0.3735
83629W        W26567  19.770   0.879  23.960  0.0767  0.1424  0.1490
83630W        W26568  19.673   0.035  22.776 -0.0692  0.1358  0.1634
83631W        W26569  17.957  34.326  19.213 -0.2409 -0.1639 -0.0313
83632W        W26570  19.163   0.058  21.116  0.0339 -0.0154 -0.1205
83633W        W26571  19.343   2.756  19.937  0.0819 -0.2059 -0.0510
83634W        W26572  20.835   2.468  21.353 -0.0447 -0.0154 -0.3674
83635W        W26573  19.765   1.569  23.249  0.2839  0.0357 -0.0036
83636W        W26574  20.802   3.861  23.938 -0.1323  0.0640  0.2466
83637W        W26575  18.334  34.555  23.400 -0.0680 -0.0850 -0.0465
83638W        W26576  20.321   1.339  20.723  0.1173 -0.1627  0.0247
83639W        W26577  18.829   2.595  23.973  0.1527 -0.2205  0.0201
83640W        W26578  21.196   2.790  20.406  0.1176  0.0699 -0.3914
83641W        W26579  20.943   0.546  22.348 -0.1711  0.0227  0.1255
83642W        W26580  18.786   0.106  20.336  0.0521 -0.1030  0.1450
83643W        W26581  19.255   0.414  23.144 -0.3159 -0.1559  0.3234
83644W        W26582  19.361   3.029  22.295 -0.0054  0.2881  0.0297
83645W        W26583  20.325   1.865  23.072  0.0562 -0.0868 -0.1038
83646W        W26584  18.713   0.861  21.411  0.1593 -0.2332 -0.4051
83647W        W26585  21.212  34.665  20.616  0.3816  0.0362  0.0733
83648W        W26586  19.870   3.455  20.376 -0.1922  0.0873 -0.0882
83649W        W26587  18.939   2.131  23.242  0.2691  0.1448  0.0685
83650W        W26588  19.871   1.147  20.702 -0.2635 -0.1634 -0.0319
83651W        W26589  20.992   1.464  21.515  0.0405  0.0063  0.0420
83652W        W26590  19.485   2.941  21.454 -0.2260  0.4824  0.0681
83653W        W26591  20.372   2.337  24.538  0.1326 -0.1969  0.0553
83654W        W26592  19.456   1.643  21.536  0.2193  0.1061  0.2049
83655W        W26593  22.911   2.674  19.396  0.0202  0.1080  0.3015
83656W        W26594  21.778   3.224  22.442  0.2850  0.1330  0.2800
83657W        W26595  21.209   3.848  21.620 -0.1192 -0.0920  0.1930
83658W        W26596  20.364   3.232  22.095  0.0846 -0.0427 -0.2072
83659W        W26597  20.451   1.292  21.604  0.2789 -0.0132  0.1548
83660W        W26598  18.864  33.280  22.190 -0.0078 -0.0686  0.0643
83661W        W26599  19.149   2.324  20.946 -0.2076  0.3266  0.2541
83662W        W26600  18.705   2.038  22.019 -0.3791  0.1546  0.0770
83663W        W26601  22.180   0.976  20.678  0.0193  0.0179 -0.1211
83664W        W26602  19.566  34.475  22.419 -0.0784 -0.0947 -0.0505
83665W        W26603  20.950   0.376  20.884 -0.2377  0.1907  0.3920
83666W        W26604  19.917   2.702  23.044  0.0728 -0.0040  0.2288
83667W        W26605  19.332   1.293  22.054  0.2811  0.0501 -0.0862
83668W        W26606  19.460   2.622  25.704  0.0769 -0.4951  0.1841
83669W        W26607  19.451   1.466  24.795 -0.0539 -0.3370 -0.3085
83670W        W26608  20.328   0.175  22.793 -0.0962 -0.0080  0.0721
83671W        W26609  20.214   2.742  24.287  0.1945  0.0449  0.1592
83672W        W26610  18.562   1.001  25.039 -0.1073  0.2654 -0.2813
83673W        W26611  20.597   3.498  24.783 -0.2449  0.0929  0.2189
83674W        W26612  20.017  34.603  27.822 -0.0860  0.1681 -0.0585
83675W        W26613  20.561   3.064  25.728 -0.0799  0.0857  0.2042
83676W        W26614  19.558   4.073  25.214  0.2095 -0.0669  0.0053
83677W        W26615  19.637   3.066  24.166 -0.3302 -0.1521  0.4457
83678W        W26616  19.791   2.605  26.910  0.1266 -0.0482  0.0576
83679W        W26617  17.890   4.194  26.547 -0.0823  0.0569 -0.0365
83680W        W26618  18.108  33.667  24.845  0.1161 -0.0823 -0.0826
83681W        W26619  18.325   0.622  25.919  0.3097  0.1365  0.0680
83682W        W26620  20.845   1.778  26.492  0.1028 -0.1309 -0.2557
83683W        W26621  19.515   0.643  24.350  0.0546 -0.1991  0.0534
83684W        W26622  17.993   1.049  25.274  0.0494  0.2327 -0.0076
83685W        W26623  20.008   1.073  25.009 -0.1203 -0.0168 -0.2787
83686W        W26624  19.989   3.864  26.006  0.1142  0.1383  0.1323
83687W        W26625  19.410  34.591  26.146  0.0406  0.0320 -0.1460
83688W        W26626  22.120   0.719  27.177 -0.2874  0.3794 -0.3077
83689W        W26627  19.323   3.393  25.498 -0.1376  0.1575  0.3643
83690W        W26628  17.977   2.157  24.357 -0.2724 -0.0028 -0.4014
83691W        W26629  17.375   0.847  27.827 -0.2075  0.1257  0.4341
83692W        W26630  18.725   3.509  26.280  0.0263  0.1171 -0.1966
83693W        W26631  20.472   1.585  26.049 -0.3664  0.0753  0.2654
83694W        W26632  23.128   2.205  25.349  0.2487 -0.0781 -0.1570
83695W        W26633  18.677   4.877  25.168 -0.0643  0.2691 -0.2354
83696W        W26634  19.493   3.863  26.000  0.2687  0.0985  0.0688
83697W        W26635  22.193   1.273  27.463 -0.2456  0.1556  0.1004
83698W        W26636  20.203   2.367  26.872  0.0353 -0.0371  0.1995
83699W        W26637  17.355   3.709  25.448 -0.0929 -0.0140  0.1385
83700W        W26638  18.163   4.780  25.157 -0.2561  0.0694 -0.1807
83701W        W26639  21.974   2.555  23.690  0.0591  0.1939  0.0142
83702W        W26640  21.212   3.202  25.186 -0.0304  0.0966  0.1203
83703W        W26641  18.357   4.930  26.422  0.1632 -0.2355 -0.1635
83704W        W26642  19.791   3.423  25.201 -0.0844  0.0531  0.0828
83705W        W26643  20.682   3.029  27.034  0.0040 -0.1863  0.2356
83706W        W26644  17.992   3.338  25.718  0.2893 -0.0708  0.1863
83707W        W26645  20.688   1.926  24.560  0.2541 -0.0185 -0.2737
83708W        W26646  20.883   2.707  26.468 -0.1171 -0.3772  0.4834
83709W        W26647  19.515   1.908  24.444  0.1602 -0.0065 -0.1323
83710W        W26648  21.019   2.280  25.606  0.2307  0.1152  0.5154
83711W        W26649  19.285   1.874  26.835 -0.1429  0.0809 -0.2710
83712W        W26650  17.662   2.086  26.515 -0.1766  0.1349 -0.1960
83713W        W26651  21.931   0.576  28.200 -0.2237  0.2100  0.1337
83714W        W26652  19.511   5.192  23.272  0.0258  0.1327  0.4870
83715W        W26653  19.209   2.130  22.368 -0.1648  0.2243  0.0828
83716W        W26654  18.825   0.098  22.192 -0.2804 -0.1216  0.1614
83717W        W26655  19.442   2.025  23.433  0.0477 -0.0138  0.1527
83718W        W26656  20.607  34.469  24.581  0.0312  0.2599 -0.0686
83719W        W26657  21.129   3.516  25.583  0.1898  0.2973 -0.0891
83720W        W26658  19.712   1.025  26.637  0.0505  0.0112  0.4983
83721W        W26659  21.425   2.688  26.661  0.1580 -0.1149  0.1167
83722W        W26660  20.571   2.217  25.800  0.4432  0.1011  0.3239
83723W        W26661  22.638   3.362  24.276  0.0708  0.1849  0.0437
83724W        W26662  17.760   3.684  26.529  0.0361  0.1675  0.0368
83725W        W26663  18.563   2.575  24.912  0.5788 -0.4256  0.4144
83726W        W26664  20.451   3.203  24.348  0.0641 -0.2039 -0.0770
83727W        W26665  22.879   3.301  24.746  0.2668 -0.2343 -0.1241
83728W        W26666  22.328   3.191  24.736 -0.3252  0.0887  0.1027
83729W        W26667  19.525   1.041  25.073  0.0905  0.2192 -0.2869
83730W        W26668  18.322   0.881  26.395  0.2432  0.0489 -0.0791
83731W        W26669  20.318   0.639  27.273 -0.0242 -0.0720 -0.1478
83732W        W26670  17.122  33.588  24.226  0.2407  0.3649 -0.0054
83733W        W26671  21.163   2.142  26.956 -0.3143 -0.1516  0.0753
83734W        W26672  18.659   2.390  27.774  0.2410  0.2015 -0.1243
83735W        W26673  21.185   1.607  24.958  0.0826 -0.1669  0.2354
83736W        W26674  19.950   2.215  24.327  0.0374 -0.2595  0.1973
83737W        W26675  21.060   3.970  27.014  0.1948  0.0110  0.0201
83738W        W26676  20.676   3.205  23.859  0.3662  0.1273 -0.1522
83739W        W26677  20.930   2.290  23.643 -0.3597  0.0997  0.0107
83740W        W26678  21.593   0.805  25.863  0.1048 -0.2460 -0.0188
83741W        W26679  19.142   1.705  23.890 -0.0467  0.0237  0.0016
83742W        W26680  20.182   3.033  25.294 -0.1945 -0.3037  0.0437
83743W        W26681  22.359   4.087  25.127  0.0671 -0.0952 -0.0528
83744W        W26682  23.274   1.298  23.111  0.2353 -0.0911 -0.1211
83745W        W26683  18.115   4.589  24.657 -0.2110  0.2854 -0.1178
83746W        W26684  19.598   1.065  27.501 -0.0576 -0.0819 -0.2279
83747W        W26685  20.685   3.487  26.026  0.3677 -0.0933  0.1074
83748W        W26686  19.477   2.628  23.231 -0.0459 -0.3864 -0.1430
83749W        W26687  17.948   0.504  24.119  0.0130 -0.3275  0.0662
83750W        W26688  18.741   3.108  23.610 -0.1167 -0.3518  0.0708
83751W        W26689  17.598   0.049  26.313 -0.0446  0.2825  0.0033
83752W        W26690  19.945   2.772  26.498 -0.0304  0.1647 -0.1832
83753W        W26691  20.937   0.666  24.778 -0.2352 -0.1774 -0.0179
83754W        W26692  18.502   0.379  26.316 -0.1072 -0.2271 -0.2854
83755W        W26693  21.620   1.856  25.736 -0.0114  0.0761 -0.3076
83756W        W26694  18.996   2.239  25.235  0.0189 -0.2253  0.0475
83757W        W26695  21.825   4.249  24.313 -0.0265  0.2992 -0.0446
83758W        W26696  21.253   1.153  23.439  0.2108  0.2749 -0.1688
83759W        W26697  19.144   1.903  22.822 -0.0725  0.3335  0.2161
83760W        W26698  19.991   1.225  26.984 -0.0205 -0.0632  0.4177
83761W        W26699  18.411   2.101  25.196  0.1075  0.0334  0.2669
83762W        W26700  19.291  34.327  26.591 -0.0290  0.0201 -0.0343
83763W        W26701  19.175  34.427  25.222  0.0932 -0.1518 -0.0406
83764W        W26702  21.622   2.766  27.484  0.2181  0.2900 -0.1408
83765W        W26703  18.713   0.332  23.531 -0.3202 -0.2878 -0.1343
83766W        W26704  22.493   1.588  23.339  0.1618  0.0178 -0.0559
83767W        W26705  19.876   2.419  25.982 -0.1503  0.2266 -0.0216
83768W        W26706  19.099   2.238  26.327 -0.0106 -0.0719 -0.0537
83769W        W26707  21.780   0.629  26.401 -0.1314 -0.1592  0.0724
83770W        W26708  20.602   2.809  24.595 -0.0800  0.2069 -0.1577
83771W        W26709  20.876   3.383  27.662 -0.2140 -0.1803  0.0098
83772W        W26710  20.500   4.413  25.628 -0.1239 -0.0105  0.3044
83773W        W26711  19.762   0.830  28.025 -0.0248  0.2425  0.1029
83774W        W26712  17.590   0.521  23.119 -0.0878 -0.0221  0.0665
83775W        W26713  18.568   4.332  25.088 -0.0799  0.2624  0.2855
83776W        W26714  20.374   2.068  26.273  0.1386  0.2368  0.4825
83777W        W26715  19.783   0.246  24.026  0.2056 -0.0162  0.1372
83778W        W26716  22.075   3.768  26.856 -0.0166 -0.0817 -0.0686
83779W        W26717  19.942   2.637  25.509 -0.0803 -0.1062 -0.0367
83780W        W26718  18.481   3.008  26.505 -0.2659 -0.0630 -0.3064
83781W        W26719  20.893   1.345  25.999  0.0592 -0.0815 -0.0794
83782W        W26720  22.027   2.350  26.818  0.0936  0.2376 -0.0504
83783W        W26721  22.629   2.813  24.863 -0.1604 -0.0152 -0.1011
83784W        W26722  16.582   0.116  24.500  0.1744  0.0412  0.0776
83785W        W26723  19.589   3.953  24.768 -0.2767  0.0126 -0.1449
83786W        W26724  18.593   4.283  22.994  0.2686 -0.0771 -0.0483
83787W        W26725  18.368   0.432  24.367 -0.0693 -0.0653 -0.2348
83788W        W26726  19.743   3.069  25.555  0.2991 -0.2504  0.2364
83789W        W26727  21.807   0.414  24.901 -0.4265  0.0811  0.0366
83790W        W26728  18.974   1.011  28.406  0.0385 -0.1651  0.0204
83791W        W26729  21.984   1.856  26.763  0.1110  0.4848 -0.1381
83792W        W26730  18.151   1.074  24.340  0.1273  0.3453 -0.2247
83793W        W26731  17.975   2.944  26.576 -0.1671 -0.0888  0.0352
83794W        W26732  21.050   1.272  25.391  0.2129  0.0135  0.1249
83795W        W26733  21.237   0.782  25.254 -0.0145 -0.1009  0.2831
83796W        W26734  19.902   3.492  27.977 -0.1847  0.0497  0.0156
83797W        W26735  20.336   2.064  24.923 -0.2599 -0.0424 -0.0297
83798W        W26736  19.884   1.980  23.550 -0.1684  0.1019  0.1304
83799W        W26737  20.960   0.793  23.781  0.1305 -0.1579  0.1565
83800W        W26738  19.834   2.059  26.947 -0.1009  0.1164 -0.2175
83801W        W26739  19.394   3.426  23.570 -0.0125  0.0677 -0.1160
83802W        W26740  22.197   2.807  24.347  0.1789  0.0722  0.1803
83803W        W26741  20.048  34.394  24.671  0.0887 -0.0627  0.2862
83804W        W26742  22.965   3.410  22.973  0.0726 -0.0331 -0.1168
83805W        W26743  18.857   1.293  26.250  0.1189 -0.0901  0.3623
83806W        W26744  21.645   3.297  25.546  0.1763 -0.1911 -0.2257
83807W        W26745  20.183   3.602  26.355  0.3206 -0.0352 -0.1560
83808W        W26746  21.714   0.598  25.391  0.0973 -0.0679 -0.0336
83809W        W26747  19.830   1.475  24.427 -0.0286 -0.1518 -0.1723
83810W        W26748  19.949   0.433  26.469 -0.0502  0.3331  0.0762
83811W        W26749  18.287   2.433  23.900  0.0112 -0.3598 -0.1147
83812W        W26750  21.497   1.676  26.692 -0.1255  0.3257 -0.1326
83813W        W26751  21.259   0.338  25.543 -0.1833 -0.1166  0.1425
83814W        W26752  20.098  34.479  26.734 -0.1126  0.1431  0.1141
83815W        W26753  21.610   2.177  26.510 -0.0277 -0.1879 -0.5164
83816W        W26754  20.179   2.667  24.893 -0.1223  0.0178 -0.0049
83817W        W26755  20.992   3.676  25.112  0.0374 -0.0955  0.1220
83818W        W26756  18.822   1.592  23.062  0.0473  0.1851 -0.2026
83819W        W26757  20.098   0.199  27.394 -0.1593  0.0069  0.0198
83820W        W26758  19.161   2.765  28.152  0.1012 -0.0968 -0.0310
83821W        W26759  17.302   3.694  27.250 -0.1903 -0.2512  0.0657
83822W        W26760  21.902   2.829  25.481 -0.0204 -0.0835 -0.3227
83823W        W26761  20.942   3.093  24.673  0.0439 -0.2903  0.0121
83824W        W26762  20.015  32.175  27.114  0.0990  0.3195 -0.1267
83825W        W26763  19.604  34.568  24.904 -0.1290  0.0867 -0.0274
83826W        W26764  18.959   3.700  23.904  0.4047 -0.0211  0.3298
83827W        W26765  20.731   3.003  25.118  0.1165 -0.1715 -0.2768
83828W        W26766  20.362   0.997  26.104 -0.2490 -0.0995  0.0883
83829W        W26767  20.216   3.975  25.586  0.1228 -0.0206 -0.0770
83830W        W26768  18.983   3.331  24.910  0.0368  0.1378  0.1164
83831W        W26769  19.149   3.507  25.967 -0.1625  0.0709  0.1374
83832W        W26770  19.237   3.040  24.548 -0.0367 -0.1337  0.1273
83833W        W26771  19.996   1.338  26.430 -0.1132  0.3056  0.0540
83834W        W26772  17.734   2.888  23.652 -0.1186  0.2752  0.1214
83835W        W26773  18.976   2.613  24.446  0.0775 -0.0788  0.0940
83836W        W26774  20.046   1.287  23.837 -0.1070  0.3201  0.2843
83837W        W26775  20.683   1.623  24.969  0.0122 -0.0760  0.3453
83838W        W26776  21.196   1.931  24.528  0.3576 -0.0390 -0.2737
83839W        W26777  18.944   1.216  26.827 -0.2120  0.0523  0.2374
83840W        W26778  21.242   0.538  26.166  0.0610 -0.2707 -0.0510
83841W        W26779  15.894   3.180  26.091  0.1286 -0.0721  0.0077
83842W        W26780  21.341   1.672  26.183 -0.3048  0.0563  0.0507
83843W        W26781  19.302   0.718  23.917 -0.0300  0.5407  0.1195
83844W        W26782  20.347   3.131  26.170  0.1140  0.1900 -0.1179
83845W        W26783  20.042   2.588  28.285  0.1055 -0.1416  0.1164
83846W        W26784  16.663   0.808  24.465  0.0494  0.0608 -0.0752
83847W        W26785  20.486   1.318  26.587  0.1420  0.2527  0.0561
83848W        W26786  19.114   1.344  25.792 -0.1702 -0.0308  0.0446
83849W        W26787  18.559   2.489  25.451 -0.2417  0.0390 -0.0743
83850W        W26788  20.150   4.859  25.694  0.1279  0.3487  0.2681
83851W        W26789  19.788   2.482  23.595  0.3391 -0.3762 -0.1066
83852W        W26790  19.079   2.695  24.959  0.2125 -0.0875  0.1521
83853W        W26791  18.243   1.729  26.441  0.3187 -0.1120  0.1126
83854W        W26792  18.803   2.605  26.626 -0.0130  0.4169  0.0233
83855W        W26793  21.517   1.210  26.376 -0.0633 -0.2141  0.2060
83856W        W26794  18.975   1.267  24.941 -0.1564 -0.0987  0.1027
83857W        W26795  18.947   0.984  25.437 -0.3560 -0.1381 -0.0083
83858W        W26796  21.067   3.011  25.884 -0.1039  0.1165  0.0795
83859W        W26797  21.115  34.621  26.448  0.0472 -0.1021  0.1347
83860W        W26798  19.422   2.824  26.674 -0.3905  0.2282 -0.0443
83861W        W26799  19.128   0.322  27.074  0.0986 -0.0452  0.0002
83862W        W26800  21.461   3.251  23.454 -0.0510 -0.1677  0.0448
83863W        W26801  20.606   2.443  27.134 -0.1079  0.3597  0.0578
83864W        W26802  19.174   1.935  25.587 -0.0734 -0.1276  0.0430
83865W        W26803  19.030   0.429  26.432  0.1470  0.0854 -0.0742
83866W        W26804  17.985   1.730  26.012 -0.0503 -0.0661 -0.0334
83867W        W26805  19.889   1.818  24.804 -0.0262 -0.0725 -0.3003
83868W        W26806  18.874   3.939  25.939 -0.2426 -0.1775  0.2484
83869W        W26807  19.224   3.817  23.102 -0.0248  0.0142  0.2907
83870W        W26808  19.812   2.933  26.009 -0.0087 -0.1468 -0.2072
83871W        W26809  19.837   1.099  23.368  0.1550 -0.1223  0.3186
83872W        W26810  20.151   2.352  23.885  0.1390  0.0537  0.0679
83873W        W26811  20.143   1.920  25.755  0.2014 -0.0391  0.1079
83874W        W26812  22.043  34.021  26.845  0.0250 -0.0000 -0.1465
83875W        W26813  21.071   0.197  23.507  0.0634 -0.0580  0.1016
83876W        W26814  21.500   0.870  28.425 -0.1100 -0.2365 -0.2723
83877W        W26815  18.689   0.919  26.034 -0.0766  0.2984  0.0193
83878W        W26816  20.566   4.002  26.103  0.0595  0.3157  0.3610
83879W        W26817  18.177  34.614  27.624  0.0162 -0.0632 -0.2572
83880W        W26818  20.127   3.745  26.841  0.1511  0.0699  0.1914
83881W        W26819  18.742   0.547  28.064  0.1888  0.0618 -0.1383
83882W        W26820  20.028   0.441  24.719  0.1969 -0.3277 -0.2146
83883W        W26821  19.397  34.666  23.261  0.1844  0.4557  0.1952
83884W        W26822  19.041   2.886  25.583 -0.1162  0.0462 -0.1511
83885W        W26823  21.417   2.608  23.311 -0.1097  0.0033 -0.1045
83886W        W26824  19.586   2.926  23.678  0.1350  0.2650 -0.1176
83887W        W26825  22.047   2.348  24.529 -0.0713 -0.1887  0.0866
83888W        W26826  18.225   3.334  26.253  0.1384  0.0902  0.0646
83889W        W26827  21.967   1.360  26.569 -0.0158 -0.0830 -0.1337
83890W        W26828  19.885   2.190  23.105  0.1927  0.0710 -0.2901
83891W        W26829  18.355   0.813  27.052 -0.1334  0.0604 -0.1319
83892W        W26830  19.007  34.329  26.982  0.1070  0.2590 -0.2976
83893W        W26831  21.448   2.645  25.811 -0.2507  0.1990 -0.0428
83894W        W26832  20.630   1.149  25.665 -0.0217  0.3600 -0.2764
83895W        W26833  20.795   0.641  27.100  0.1717 -0.2677  0.2358
83896W        W26834  21.008   0.733  27.535 -0.3267 -0.0715 -0.0860
83897W        W26835  19.665   1.149  25.586  0.4451 -0.1225 -0.0690
83898W        W26836  17.368   0.045  27.625 -0.0443  0.0007  0.2568
83899W        W26837  22.476   5.778  26.936  0.0621 -0.1067  0.1095
83900W        W26838  21.617   1.639  24.243 -0.1590  0.1751 -0.0106
83901W        W26839  21.019   1.259  26.590 -0.0010 -0.0689  0.0288
83902W        W26840  21.810   2.330  25.747 -0.1999  0.0870  0.0959
83903W        W26841  20.454   1.490  23.987  0.0482 -0.0870 -0.0103
83904W        W26842  17.879   0.828  27.562 -0.1407 -0.0945  0.1938
83905W        W26843  21.078   3.449  27.192  0.1602 -0.0990  0.1482
83906W        W26844  19.267   1.072  24.581 -0.2860 -0.1489  0.2745
83907W        W26845  20.078   0.974  27.629  0.1942 -0.2606  0.1638
83908W        W26846  19.823   3.691  23.775  0.2805  0.4924  0.3345
83909W        W26847  20.180   3.414  25.756 -0.3321 -0.0116  0.2012
83910W        W26848  20.188   1.784  25.299  0.1138 -0.1284 -0.1998
83911W        W26849  18.509   0.467  25.319  0.3421  0.1521 -0.0027
83912W        W26850  18.840   3.064  26.852  0.1834  0.0279 -0.4017
83913W        W26851  17.502   0.421  24.363  0.0982 -0.0884 -0.1077
83914W        W26852  19.791   1.377  22.377  0.0156  0.0829  0.3166
83915W        W26853  19.060   3.879  26.542  0.0761  0.1372  0.3104
83916W        W26854  21.307   1.879  27.541  0.0603  0.1968 -0.1732
83917W        W26855  20.399   0.017  25.193  0.0656 -0.1781  0.0753
83918W        W26856  20.322   0.723  26.580 -0.0875  0.2945 -0.3348
83919W        W26857  18.127   3.875  24.260  0.1918 -0.1646  0.1665
83920W        W26858  20.822   0.415  25.316  0.0473 -0.0987  0.1513
83921W        W26859  18.966   2.388  25.705  0.3667 -0.2159  0.0497
83922W        W26860  19.354   3.076  25.908  0.1824 -0.2100  0.0915
83923W        W26861  18.721   3.009  24.681 -0.3850 -0.1253  0.2348
83924W        W26862  21.337   0.868  26.603  0.1992 -0.2144 -0.2129
83925W        W26863  20.757   0.308  26.067 -0.2866 -0.3289 -0.1521
83926W        W26864  19.180   0.896  26.469  0.1665  0.1596 -0.1940
83927W        W26865  20.646   2.172  26.712 -0.1683  0.1145  0.1034
83928W        W26866  20.213   3.193  26.697 -0.1824 -0.0327  0.0399
83929W        W26867  19.896   2.262  26.443  0.0217  0.1353  0.0343
83930W        W26868  20.647   3.683  26.478 -0.0391  0.2967  0.2751
83931W        W26869  22.255   2.058  25.854  0.0178 -0.0007  0.3292
83932W        W26870  19.986   1.711  26.154  0.1299 -0.3105  0.0849
83933W        W26871  18.511  34.167  26.866  0.0721  0.0866 -0.3057
83934W        W26872  19.763   1.928  27.728  0.0149 -0.0736  0.2399
83935W        W26873  20.209   2.294  25.354 -0.1012  0.1172  0.1488
83936W        W26874  20.131  33.982  22.878 -0.3536  0.1576 -0.2566
83937W        W26875  19.742   2.793  25.045  0.0767  0.1822  0.3267
83938W        W26876  18.116   2.741  27.394  0.3416  0.0792  0.0411
83939W        W26877  18.804   0.415  25.805  0.1442 -0.0359  0.3644
83940W        W26878  17.737   4.284  26.091 -0.0561  0.0457 -0.0497
83941W        W26879  20.941   2.847  24.164  0.0840 -0.3897  0.3823
83942W        W26880  20.592   1.627  25.551 -0.0601 -0.0401 -0.2071
83943W        W26881  22.087   4.739  26.391  0.1854 -0.2561 -0.0150
83944W        W26882  19.318   0.908  23.122 -0.0878 -0.1543 -0.1188
83945W        W26883  18.276   3.706  25.337  0.0806 -0.0746  0.0976
83946W        W26884  18.370   4.233  24.494 -0.2236  0.1960 -0.3049
83947W        W26885  21.153   2.382  24.156 -0.0707  0.0893 -0.1624
83948W        W26886  18.669   4.525  23.447 -0.1383 -0.1839  0.0754
83949W        W26887  21.179   3.124  26.355  0.1333 -0.0455  0.1391
83950W        W26888  21.457   0.752  21.994 -0.1131 -0.1192  0.1048
83951W        W26889  21.970   2.019  25.355 -0.0553  0.2389  0.0883
83952W        W26890  21.260   1.085  22.904 -0.1723 -0.1652  0.1538
83953W        W26891  20.147   4.313  25.987 -0.0325 -0.1359 -0.0481
83954W        W26892  19.551   1.924  26.378  0.0669 -0.0179 -0.0094
83955W        W26893  20.328   1.154  23.420  0.1486  0.1826 -0.1759
83956W        W26894  20.427   2.762  26.658  0.1622  0.0792  0.1317
83957W        W26895  22.248   0.792  26.497  0.2812  0.0854 -0.1432
83958W        W26896  17.565   3.234  26.656  0.0717  0.0684  0.0414
83959W        W26897  19.367   5.458  25.160  0.3007  0.1701  0.1987
83960W        W26898  19.053   0.510  24.522 -0.2063 -0.1773 -0.1939
83961W        W26899  19.479   1.293  27.027 -0.3999 -0.0514  0.3050
83962W        W26900  21.685   0.271  25.816 -0.1202  0.0047  0.2766
83963W        W26901  18.408   3.463  23.425 -0.1044  0.3732  0.0980
83964W        W26902  20.760   1.100  24.123 -0.0292  0.3548 -0.2804
83965W        W26903  19.248   4.752  25.784 -0.1831 -0.2866  0.1655
83966W        W26904  21.403   3.405  25.990  0.0627 -0.1050  0.3842
83967W        W26905  19.711   4.256  26.220  0.1102 -0.0830 -0.2057
83968W        W26906  17.899   0.323  24.676 -0.1208 -0.0870  0.3025
83969W        W26907  20.418   0.898  24.739 -0.2219 -0.4108  0.1032
83970W        W26908  19.008   1.565  27.193  0.0649 -0.0305 -0.3197
83971W        W26909  21.428   1.393  25.757 -0.0304 -0.0249  0.0873
83972W        W26910  17.449   0.524  25.539 -0.2093  0.0546 -0.2566
83973W        W26911  20.708   2.035  25.273 -0.0847 -0.2196  0.2339
83974W        W26912  20.874   1.830  25.928  0.2291 -0.1225  0.1483
83975W        W26913  18.747   1.971  25.938  0.0325  0.2548 -0.2414
83976W        W26914  19.455   1.362  24.138  0.0692  0.4381 -0.1063
83977W        W26915  21.157   3.620  26.549 -0.1670 -0.0152 -0.0618
83978W        W26916  20.152   2.560  22.152 -0.3863  0.2374  0.0124
83979W        W26917  21.039   4.512  25.537 -0.2055 -0.2817 -0.0348
83980W        W26918  18.676   0.319  24.793 -0.0085 -0.1138  0.3485
83981W        W26919  20.276   0.328  23.868 -0.1416  0.1836 -0.0026
83982W        W26920  17.377   1.984  23.909 -0.1615  0.2174  0.4721
83983W        W26921  20.420   1.379  27.265  0.3276  0.2321  0.0721
83984W        W26922  21.275   3.874  26.118 -0.0970 -0.0848 -0.1001
83985W        W26923  18.977   0.334  25.257  0.2355  0.1306  0.1878
83986W        W26924  20.546   2.622  25.464 -0.0603  0.0075 -0.1931
83987W        W26925  21.193   1.633  27.092  0.5837 -0.1397 -0.1605
83988W        W26926  19.766   3.753  25.561 -0.1890  0.2121 -0.2593
83989W        W26927  21.177   2.714  24.971  0.0260 -0.1781  0.3178
83990W        W26928  20.266   3.524  25.156  0.0696  0.1217  0.4844
83991W        W26929  19.374   0.801  27.090  0.4746 -0.2631  0.1282
83992W        W26930  20.491   3.755  24.376  0.1042  0.1343 -0.0345
83993W        W26931  21.375   2.192  25.996  0.0337  0.2579 -0.0803
83994W        W26932  19.478   0.462  26.259  0.3062  0.0154  0.3568
83995W        W26933  19.226   1.504  25.286  0.0953  0.0279  0.2420
83996W        W26934  18.168   1.595  25.495  0.0476 -0.0829  0.1262
83997W        W26935  21.815   1.754  26.244  0.0473  0.7715  0.3769
83998W        W26936  20.892   1.214  27.046 -0.0660  0.0484  0.0902
83999W        W26937  20.393   3.577  23.701 -0.1263 -0.0279  0.0589
84000W        W26938  20.827  34.005  27.159  0.1064  0.2007  0.2387
84001W        W26939  18.605   5.091  26.844 -0.0760  0.1186 -0.0062
84002W        W26940  19.004   3.109  26.286  0.1347 -0.1554 -0.0055
84003W        W26941  19.688   2.730  24.498  0.0644  0.0183  0.1352
84004W        W26942  20.453   1.876  27.701 -0.1634 -0.0330 -0.2109
84005W        W26943  18.661   2.936  25.241  0.0003 -0.0669  0.0476
84006W        W26944  18.788   3.427  25.385  0.1525 -0.0509  0.1747
84007W        W26945  21.994   3.469  26.152 -0.0782 -0.0054 -0.3995
84008W        W26946  20.886   2.427  24.560 -0.0016 -0.1401  0.1933
84009W        W26947  21.452   2.123  25.332  0.2768  0.1644  0.1613
84010W        W26948  18.571   0.377  26.973  0.0160 -0.1336 -0.4297
84011W        W26949  22.522   0.674  23.553 -0.0677 -0.0315  0.2620
84012W        W26950  21.530   1.221  25.240 -0.1265  0.1277 -0.0698
84013W        W26951  20.170   2.899  27.120  0.1061  0.0230 -0.0850
84014W        W26952  17.748   1.387  23.888 -0.0943 -0.1507 -0.4481
84015W        W26953  19.796   1.500  25.229  0.2712 -0.2951 -0.0979
84016W        W26954  17.913   2.229  26.108 -0.0210 -0.1058  0.1456
84017W        W26955  19.585  34.275  28.056  0.0225 -0.1853 -0.1306
84018W        W26956  20.209   1.855  26.723  0.1112  0.2103  0.1772
84019W        W26957  17.979   0.790  26.776 -0.1504 -0.0064 -0.1305
84020W        W26958  19.772   0.643  25.179 -0.0359  0.1179  0.1826
84021W        W26959  21.752   2.749  24.565  0.0624 -0.3041 -0.0056
84022W        W26960  18.706   0.809  26.685 -0.2460 -0.0063 -0.2431
84023W        W26961  20.067   1.441  25.740  0.0627  0.0198 -0.0871
84024W        W26962  20.032   3.125  24.778  0.2618  0.3094  0.1794
84025W        W26963  21.604   4.315  25.740 -0.1720  0.2800 -0.1621
84026W        W26964  19.252   0.260  23.698 -0.3485 -0.1124  0.0742
84027W        W26965  21.598   4.179  27.622 -0.0071 -0.1440  0.0868
84028W        W26966  18.281   3.268  24.384  0.2259 -0.0678  0.0012
84029W        W26967  19.480   0.438  26.741 -0.0572  0.1007 -0.0754
84030W        W26968  20.536  34.647  27.696 -0.3192 -0.0975  0.1109
84031W        W26969  20.082  34.494  23.709  0.1447  0.0643  0.3855
84032W        W26970  19.037   0.770  24.961  0.1346 -0.2273  0.1271
84033W        W26971  20.043   3.648  24.706  0.1193  0.2316  0.1472
84034W        W26972  19.826   3.937  24.290  0.2251 -0.0691  0.1508
84035W        W26973  18.747   1.677  25.469 -0.2498  0.1277  0.2911
84036W        W26974  18.694   3.973  25.398 -0.0136  0.1475 -0.1764
84037W        W26975  18.876  33.336  27.012 -0.1105 -0.0726  0.2641
84038W        W26976  20.634   3.468  25.466 -0.0725  0.2129 -0.0560
84039W        W26977  18.580   3.534  25.807 -0.1923  0.4244 -0.1254
84040W        W26978  21.517   2.332  22.717 -0.3227 -0.0566 -0.1234
84041W        W26979  20.800   0.731  26.349  0.3396 -0.0104 -0.0848
84042W        W26980  22.219   2.359  24.052 -0.0592 -0.0515 -0.1449
84043W        W26981  18.493  34.642  26.692  0.0674  0.1691  0.3430
84044W        W26982  20.616   4.029  26.793 -0.0439 -0.0495 -0.0651
84045W        W26983  21.849   3.975  26.223  0.1945 -0.1459 -0.0413
84046W        W26984  18.591  33.663  26.700  0.0328 -0.0393 -0.1617
84047W        W26985  21.830  34.465  24.580  0.3797 -0.1509  0.0366
84048W        W26986  20.001   3.446  24.251  0.3533  0.1370  0.1453
84049W        W26987  18.147   0.366  27.232  0.2007  0.0342 -0.2126
84050W        W26988  20.237   1.762  24.442  0.0751 -0.1045 -0.1314
84051W        W26989  19.804   1.591  26.794 -0.0756 -0.1022  0.0787
84052W        W26990  21.068   2.808  25.478  0.0004  0.0389 -0.1580
84053W        W26991  20.999   2.608  26.929 -0.2338  0.0339  0.1193
84054W        W26992  19.413   2.532  24.068  0.2279 -0.0652 -0.2289
84055W        W26993  20.664   2.433  25.002  0.1227 -0.0231  0.1681
84056W        W26994  21.615   3.590  26.478  0.0146 -0.2803  0.1382
84057W        W26995  21.189   4.332  27.376 -0.0971  0.2076 -0.0130
84058W        W26996  20.896   4.974  26.965 -0.0113 -0.4749  0.2527
84059W        W26997  22.412   2.510  26.064  0.1419 -0.1953  0.1239
84060W        W26998  19.051   0.039  26.683 -0.1742 -0.1334  0.1592
84061W        W26999  18.438   1.493  25.953 -0.0370 -0.2165 -0.2115
84062W        W27000  19.375   3.499  26.421  0.0886  0.1386  0.1638
84063W        W27001  21.566   0.132  26.352 -0.1518  0.1676  0.0418
84064W        W27002  19.674   0.631  25.737 -0.0234  0.1484 -0.0103
84065W        W27003  20.240   1.421  24.775  0.2585 -0.3972 -0.2923
84066W        W27004  19.783   5.352  27.434 -0.1239  0.1606 -0.0378
84067W        W27005  21.800   2.561  26.264  0.0306 -0.0465 -0.1616
84068W        W27006  18.949   1.641   0.075  0.0351 -0.0540  0.1156
84069W        W27007  19.664   0.507  28.459 -0.0940  0.3603 -0.3324
84070W        W27008  20.824   1.507  27.469 -0.3034 -0.1629 -0.0291
84071W        W27009  20.891   1.813  27.957 -0.1038 -0.0359  0.0160
84072W        W27010  19.140   0.327  28.963  0.0354 -0.2109 -0.1199
84073W        W27011  20.547   3.299  28.638  0.2696 -0.3998 -0.1848
84074W        W27012  19.302   1.431  28.566  0.2276 -0.1604 -0.1653
84075W        W27013  19.277   4.053  29.525  0.0309  0.1652  0.0459
84076W        W27014  21.767   4.761  29.355  0.1734  0.0008  0.2003
84077W        W27015  20.439   1.384  27.780  0.0283  0.4471 -0.2706
84078W        W27016  20.008   0.171  29.738 -0.2167 -0.1165  0.0232
84079W        W27017  20.299   3.030  31.297  0.0173  0.0825 -0.1067
84080W        W27018  20.912  33.900  29.496 -0.0971 -0.0722 -0.3748
84081W        W27019  18.299   0.142  29.613 -0.1996  0.0980 -0.1767
84082W        W27020  20.147   1.074  30.343 -0.2386 -0.0333 -0.1821
84083W        W27021  18.537   2.723  28.911 -0.0936 -0.1043 -0.1164
84084W        W27022  19.586   2.507  27.947  0.0954  0.0966  0.3222
84085W        W27023  18.835   2.009  28.040  0.5006 -0.0139  0.2297
84086W        W27024  21.553   4.082  28.160 -0.0660 -0.1902 -0.2209
84087W        W27025  21.040  34.369  29.326 -0.0080 -0.2117  0.0398
84088W        W27026  19.213  33.855  30.626 -0.1232  0.0847  0.1559
84089W        W27027  19.588   3.510  28.475 -0.1003  0.4652 -0.1325
84090W        W27028  18.389   0.459  28.817  0.1443  0.1112  0.0790
84091W        W27029  18.460   1.196  29.344  0.3667 -0.1125 -0.1342
84092W        W27030  19.462   3.521  30.938 -0.2551 -0.1735 -0.2308
84093W        W27031  21.790  33.703  30.243  0.0713 -0.3663 -0.0225
84094W        W27032  20.757   1.538  28.927 -0.1149 -0.1848 -0.0979
84095W        W27033  17.841   3.034  30.404 -0.3064 -0.2993  0.3053
84096W        W27034  20.289   3.565  28.275  0.3128 -0.0203 -0.0679
84097W        W27035  20.701   1.784  30.400  0.1209  0.5275 -0.0878
84098W        W27036  19.175   0.940  29.309  0.3882  0.1578 -0.0639
84099W        W27037  16.199   3.006  29.284  0.0476  0.0025  0.1646
84100W        W27038  19.282   4.432  27.853  0.1430  0.0690  0.0884
84101W        W27039  21.829   2.673  27.959 -0.3434 -0.2293  0.0830
84102W        W27040  21.686   4.135  28.715  0.0701  0.1964 -0.0556
84103W        W27041  19.971   2.903  30.607 -0.3976 -0.1949 -0.1378
84104W        W27042  18.618   2.545  27.286  0.3174 -0.1312  0.0427
84105W        W27043  20.024   4.332  31.759  0.0721  0.0172  0.0708
84106W        W27044  19.575   2.579  30.480  0.0038  0.0124 -0.0289
84107W        W27045  19.686   1.067  29.635  0.2810  0.1198  0.1777
84108W        W27046  19.839   2.107  28.287 -0.4607 -0.1008 -0.0701
84109W        W27047  20.230   4.150  26.464  0.4041  0.1174  0.0795
84110W        W27048  21.915   3.053  28.854 -0.5016 -0.2384 -0.0253
84111W        W27049  18.846   1.551  30.962  0.0837  0.1157 -0.2561
84112W        W27050  19.125   3.609  28.685  0.3509  0.1500 -0.0468
84113W        W27051  21.998   1.946  30.772  0.1241  0.0706 -0.3956
84114W        W27052  19.295   3.186  27.235 -0.1465 -0.2333 -0.0226
84115W        W27053  20.866   0.522  28.002 -0.0966 -0.2733  0.1131
84116W        W27054  18.817   0.777  27.159  0.2794 -0.1564 -0.0769
84117W        W27055  20.912   2.697  28.253  0.2372  0.2556 -0.1183
84118W        W27056  21.170   1.696  29.212  0.0529 -0.0275  0.4112
84119W        W27057  17.863   4.678  29.692 -0.3090  0.3761  0.4455
84120W        W27058  19.015   2.333  29.854 -0.2839 -0.0728 -0.0702
84121W        W27059  21.993   3.975  30.100 -0.0736 -0.0933  0.0226
84122W        W27060  19.045   0.131  27.863 -0.0850  0.5267 -0.0941
84123W        W27061  20.077   1.146  29.138 -0.2300  0.0978  0.0004
84124W        W27062  19.533   3.076  29.338 -0.3159 -0.0475  0.1531
84125W        W27063  18.829   1.200  28.927  0.0359 -0.1665  0.0408
84126W        W27064  21.253   3.769  27.907  0.0616 -0.0383  0.1237
84127W        W27065  22.521   3.784  29.303  0.1928 -0.0606 -0.2633
84128W        W27066  19.590   2.298  27.303  0.1052 -0.2005 -0.0672
84129W        W27067  18.729   0.367  27.462 -0.0511  0.0273 -0.1036
84130W        W27068  16.994   0.388  29.886 -0.0914  0.0235  0.1513
84131W        W27069  17.795   1.587  30.081  0.1602  0.1124 -0.1571
84132W        W27070  19.829   0.599  27.487 -0.0318  0.2230 -0.0671
84133W        W27071  22.081   2.286  31.239  0.1558 -0.0364 -0.1436
84134W        W27072  17.921   3.056  31.221 -0.0731 -0.3018  0.0290
84135W        W27073  21.600   2.757  29.658 -0.1492 -0.1308 -0.1095
84136W        W27074  20.531   2.321  28.261  0.0608  0.3788 -0.1853
84137W        W27075  20.669   2.543  30.003 -0.1320  0.0443  0.1195
84138W        W27076  21.573   3.597  28.452 -0.2724  0.1598 -0.2303
84139W        W27077  19.930  34.512  30.145 -0.0192 -0.2384  0.1203
84140W        W27078  20.751  34.641  30.131  0.0328 -0.1172 -0.5825
84141W        W27079  18.829   1.649  26.699  0.0339  0.1536 -0.0215
84142W        W27080  18.469   2.257  28.272  0.1049  0.2595 -0.3759
84143W        W27081  22.054   3.744  29.534  0.3599  0.0240 -0.2335
84144W        W27082  22.286   1.189  26.951 -0.1368 -0.0530 -0.1833
84145W        W27083  19.417   3.427  30.226 -0.0411  0.2711 -0.1835
84146W        W27084  19.702   1.510  29.934 -0.0360  0.0494  0.2886
84147W        W27085  20.164   3.522  31.129  0.1235 -0.0931 -0.1992
84148W        W27086  19.063   3.586  26.989  0.1027 -0.0818 -0.3368
84149W        W27087  17.759   2.672  29.973 -0.3161 -0.2262 -0.3914
84150W        W27088  19.306   2.160  27.745 -0.0110 -0.0547 -0.5205
84151W        W27089  18.766   0.247  31.227  0.4831  0.1194  0.0139
84152W        W27090  20.074   3.222  30.197 -0.2529  0.1512  0.1084
84153W        W27091  20.046   1.233  28.688 -0.3665 -0.1821  0.1605
84154W        W27092  18.244   1.098  31.195 -0.1337 -0.0249 -0.1004
84155W        W27093  21.232   2.107  28.327  0.0580  0.1681  0.0180
84156W        W27094  19.451   1.797  28.143 -0.0849 -0.0920  0.2964
84157W        W27095  21.426   5.120  27.700 -0.0286  0.0048  0.1071
84158W        W27096  22.880   3.099  29.750  0.0416  0.0496  0.0808
84159W        W27097  21.163   3.357  28.181 -0.1099  0.4965  0.0290
84160W        W27098  19.997   2.211  29.385 -0.4258  0.1550 -0.1048
84161W        W27099  19.208   0.275  28.416  0.0192 -0.1519 -0.1426
84162W        W27100  21.033   1.213  30.223  0.0925  0.1258  0.1099
84163W        W27101  18.838   0.668  29.072  0.0849  0.2781  0.4234
84164W        W27102  20.387   1.935  29.090  0.4609 -0.0116  0.1863
84165W        W27103  19.726  34.206  27.618 -0.0431 -0.1211  0.1590
84166W        W27104  21.496   1.924  30.472  0.2769 -0.0661  0.2925
84167W        W27105  20.274   1.666  28.617  0.1765 -0.1209 -0.1611
84168W        W27106  19.530   1.768  27.277  0.0765  0.0196 -0.0184
84169W        W27107  22.213  34.306  30.756 -0.0159  0.0417  0.0389
84170W        W27108  19.611   2.838  27.325 -0.2011  0.4269  0.3431
84171W        W27109  22.444   2.881  29.783 -0.0099  0.1879 -0.0450
84172W        W27110  20.491   4.385  28.825 -0.0738  0.3008  0.2795
84173W        W27111  19.177   0.972  30.703 -0.3688  0.5272 -0.3010
84174W        W27112  19.018  34.113  27.468 -0.2711 -0.1645  0.1227
84175W        W27113  18.497   5.566  29.112  0.0101  0.4328  0.1088
84176W        W27114  20.482   2.806  28.428  0.1296 -0.6175  0.2314
84177W        W27115  19.863  34.401  27.182  0.1328 -0.0230  0.0150
84178W        W27116  22.036   5.600  28.811 -0.1842  0.1491  0.0395
84179W        W27117  19.125   2.300  26.999  0.2039 -0.0165  0.1781
84180W        W27118  18.654   2.969  30.512  0.3799  0.0975 -0.0122
84181W        W27119  20.442   0.055  28.931 -0.0014 -0.1990  0.0305
84182W        W27120  20.902   2.772  30.449  0.1274 -0.2326 -0.0259
84183W        W27121  21.459   2.381  30.004  0.1631  0.3163  0.1279
84184W        W27122  18.621  33.977  27.908 -0.1006 -0.1337  0.1974
84185W        W27123  20.553   4.088  28.096  0.1332  0.0716 -0.1985
84186W        W27124  18.380   2.899  27.837  0.0270  0.0398 -0.1387
84187W        W27125  17.657   1.190  28.311 -0.1430  0.0724 -0.0950
84188W        W27126  19.648   4.405  29.648 -0.2616  0.1742 -0.1024
84189W        W27127  21.617   1.429  28.952 -0.0500  0.2728  0.3646
84190W        W27128  18.772   1.831  30.037  0.1334  0.1461 -0.1931
84191W        W27129  20.570   1.786  30.948  0.1170 -0.2026  0.2762
84192W        W27130  18.402   0.890  27.560 -0.0317  0.0015 -0.2308
84193W        W27131  18.985   3.356  31.567  0.1460  0.0584  0.1080
84194W        W27132  20.900   0.267  28.774  0.2712  0.0620  0.4812
84195W        W27133  22.430   1.643  27.139 -0.1998  0.1895 -0.4172
84196W        W27134  20.582   2.923  31.701 -0.3301 -0.3663  0.0602
84197W        W27135  20.031   2.325  27.868 -0.1277 -0.0810 -0.3948
84198W        W27136  20.941   1.198  27.929  0.1167 -0.0285  0.0429
84199W        W27137  19.268   0.472  27.563 -0.0833  0.1610 -0.2133
84200W        W27138  18.067   2.430  30.941  0.1392  0.0650 -0.3335
84201W        W27139  21.083   3.460  28.689  0.2165 -0.2182  0.2599
84202W        W27140  19.897   3.044  29.749  0.0342  0.2350 -0.1622
84203W        W27141  20.597   0.991  27.486 -0.0467 -0.2040 -0.1319
84204W        W27142  21.378   3.235  27.696 -0.1722  0.1762  0.1109
84205W        W27143  18.869   4.274  30.474  0.1565  0.0950  0.0345
84206W        W27144  20.555   2.852  30.833  0.0932  0.0206  0.2471
84207W        W27145  22.455   2.947  28.552 -0.0152  0.2215  0.1653
84208W        W27146  18.506   0.609  29.447  0.0219 -0.3184  0.0850
84209W        W27147  20.790   2.300  27.811 -0.1080 -0.4228  0.0226
84210W        W27148  21.131   1.688  30.075  0.0638 -0.0637  0.1471
84211W        W27149  16.924   3.781  25.957 -0.1430  0.2183  0.2421
84212W        W27150  20.551   0.397   0.593  0.1776  0.0719 -0.2178
84213W        W27151  20.935   0.596  29.536  0.1169 -0.1332 -0.2149
84214W        W27152  19.318   0.201  29.819 -0.2653  0.0360  0.0256
84215W        W27153  23.316   3.021  31.613  0.1991 -0.1038 -0.0663
84216W        W27154  21.276   2.227  28.914  0.3932  0.1487 -0.3281
84217W        W27155  20.496   0.419  30.761  0.0412  0.1562  0.5782
84218W        W27156  18.605   1.243  27.199 -0.2940  0.1741 -0.0286
84219W        W27157  19.719  34.000  31.423 -0.2737  0.0979  0.0881
84220W        W27158  19.024   3.664  29.638 -0.3144 -0.1517  0.0667
84221W        W27159  18.044   2.866  31.744  0.1542 -0.3276 -0.2306
84222W        W27160  21.857   3.212  31.431  0.3887 -0.1496 -0.1893
84223W        W27161  20.575   2.858  28.973  0.0952 -0.0654 -0.3976
84224W        W27162  20.484  34.646  31.876  0.2553 -0.3554  0.0451
84225W        W27163  19.581   1.047  28.470  0.1299  0.1030  0.0290
84226W        W27164  20.749   3.204  26.585  0.4247  0.0318  0.1019
84227W        W27165  19.027   1.829  28.493  0.1344 -0.0886 -0.0153
84228W        W27166  20.293  34.485  28.235  0.4662  0.1633 -0.0158
84229W        W27167  19.545   3.877  29.938 -0.1205 -0.1452 -0.4170
84230W        W27168  19.742   3.293  27.456  0.1939 -0.0287  0.0756
84231W        W27169  19.985   3.012  31.759  0.0396 -0.2118  0.0099
84232W        W27170  19.687   2.456  29.014 -0.1120  0.2796 -0.0246
84233W        W27171  20.121  34.563  29.289  0.1065 -0.0586  0.3532
84234W        W27172  18.227   3.206  28.863 -0.2826 -0.1445 -0.2159
84235W        W27173  19.499   1.321  26.094 -0.1064  0.0750 -0.2863
84236W        W27174  18.386   1.720  28.071  0.0637 -0.0498 -0.1485
84237W        W27175  20.460   2.217  29.675  0.1074 -0.3788  0.0502
84238W        W27176  22.283   2.770  26.747 -0.0898 -0.0190  0.1850
84239W        W27177  19.589   0.734  29.112  0.0295 -0.1365  0.1342
84240W        W27178  20.229   0.868  30.827 -0.1512 -0.3742 -0.0315
84241W        W27179  18.614   2.419  30.938  0.2203 -0.1318  0.0492
84242W        W27180  20.970   2.208  30.269  0.0420  0.0325  0.1091
84243W        W27181  20.613   1.517  28.209  0.0772  0.0762  0.1133
84244W        W27182  20.317   3.272  29.617  0.0692 -0.0634 -0.0135
84245W        W27183  20.225   2.119  31.070 -0.0029  0.1240 -0.0692
84246W        W27184  18.739  33.734  28.680  0.1176 -0.1847 -0.0139
84247W        W27185  21.133  33.793  30.185  0.2591  0.5122  0.0177
84248W        W27186  19.926   1.603  28.964 -0.1966  0.0798  0.4152
84249W        W27187  19.372   1.377  29.413  0.1311  0.1803 -0.2053
84250W        W27188  20.435   3.999  28.567 -0.1426 -0.0214  0.1927
84251W        W27189  20.556   0.904  27.961  0.1727 -0.2312 -0.1033
84252W        W27190  18.667   2.183  28.842 -0.2352 -0.1149 -0.2650
84253W        W27191  18.204   0.291  31.502  0.2204 -0.3658 -0.2006
84254W        W27192  21.476   3.839  29.664  0.0634  0.0170 -0.1599
84255W        W27193  18.496   0.278  30.818  0.2063  0.2026 -0.0756
84256W        W27194  18.761   1.500  27.608  0.1130  0.0231 -0.0721
84257W        W27195  19.908   1.959  30.137 -0.0252 -0.3066  0.0691
84258W        W27196  21.365   2.995  29.304 -0.0084 -0.2687 -0.3547
84259W        W27197  21.032  34.034  31.328  0.1461  0.0313  0.2191
84260W        W27198  18.979   2.698   0.099 -0.1354 -0.1856 -0.3632
84261W        W27199  19.827  34.500  31.294  0.1746  0.1271  0.0497
84262W        W27200  21.849   3.180  28.023 -0.0590 -0.2583  0.1146
84263W        W27201  20.276   2.757   0.114  0.0611 -0.2649 -0.1842
84264W        W27202  19.153   2.132  28.865  0.1284  0.4410 -0.2957
84265W        W27203  18.600   1.685  28.929  0.2008 -0.3129  0.1660
84266W        W27204  19.406   2.910  27.732  0.0545  0.1069  0.2299
84267W        W27205  20.605  34.147  29.863  0.1556 -0.0430 -0.0286
84268W        W27206  19.874   3.500  29.424  0.0070 -0.1020 -0.2252
84269W        W27207  18.698   2.691  28.324  0.1016 -0.0172  0.0629
84270W        W27208  18.336   2.696  31.352  0.1343  0.0364 -0.0514
84271W        W27209  21.640   0.159  28.331 -0.0463  0.4065  0.0513
84272W        W27210  19.773   3.432  26.071 -0.0248  0.1601  0.1687
84273W        W27211  21.259   1.736  28.725  0.1642 -0.2036  0.2149
84274W        W27212  21.888   1.633  30.314  0.3094 -0.0077 -0.1461
84275W        W27213  20.194   3.380  27.218  0.0881  0.0045 -0.0526
84276W        W27214  21.368   0.221  31.016  0.2838  0.2113 -0.2743
84277W        W27215  19.226  33.751  29.962 -0.0416 -0.1088  0.2935
84278W        W27216  22.242   3.473  29.023 -0.2710 -0.0694 -0.3169
84279W        W27217  19.840   3.148  31.063  0.1724  0.0879 -0.2060
84280W        W27218  20.086   5.097  31.831 -0.0496  0.3104  0.0920
84281W        W27219  19.426   3.812  30.528  0.0779 -0.1272  0.0189
84282W        W27220  20.029   2.082  28.771  0.1347  0.0149  0.1953
84283W        W27221  20.751  34.580  28.455  0.0390  0.3171 -0.0928
84284W        W27222  18.676   2.415  30.220  0.1793 -0.0255  0.0395
84285W        W27223  21.019   2.662  29.115 -0.2739 -0.2149 -0.1026
84286W        W27224  20.752   3.668  28.362 -0.0046 -0.1711  0.0479
84287W        W27225  21.509   1.888  27.986 -0.0128  0.2591  0.2890
84288W        W27226  19.786   2.907  28.723  0.1594 -0.1316  0.2819
84289W        W27227  19.700   1.327  27.903 -0.0374  0.0868  0.2306
84290W        W27228  20.715   1.758  26.977  0.1019 -0.2921 -0.1695
84291W        W27229  19.618   3.060  28.202  0.4733 -0.2976  0.0802
84292W        W27230  19.673   0.107  30.477  0.0769  0.0153 -0.0379
84293W        W27231  20.078   3.654  29.886  0.2737  0.0901 -0.0593
84294W        W27232  21.100   1.455  28.360 -0.0835  0.0593  0.0361
84295W        W27233  20.841   1.665  31.520 -0.0158 -0.2535 -0.0927
84296W        W27234  20.402   2.766  30.363 -0.0452  0.1765 -0.3472
84297W        W27235  19.335   1.812  30.128  0.0364 -0.1982 -0.1683
84298W        W27236  18.819   1.969  30.753 -0.0681 -0.1275  0.0209
84299W        W27237  20.942   3.794  31.568  0.3826 -0.0310 -0.1215
84300W        W27238  21.783   1.623  27.537 -0.1467  0.0294 -0.0074
84301W        W27239  21.187   0.895  29.818  0.0498 -0.2623  0.2675
84302W        W27240  20.898   3.196  29.081  0.2297 -0.2355  0.1676
84303W        W27241  19.769   0.282  27.061  0.0680  0.3637  0.2775
84304W        W27242  19.544   1.865  28.708  0.1458 -0.1792 -0.2431
84305W        W27243  21.693   0.889  29.818 -0.0818  0.1755 -0.0675
84306W        W27244  20.143   1.230  28.191  0.1312  0.1065 -0.0806
84307W        W27245  20.981  34.541  31.409 -0.0987  0.0399 -0.1767
84308W        W27246  18.864   4.407  27.551  0.2459  0.4057 -0.3508
84309W        W27247  21.962   3.924  28.335 -0.3597 -0.0413  0.0991
84310W        W27248  19.884   2.884  27.741 -0.0691 -0.0410 -0.0566
84311W        W27249  19.536   1.833  29.196  0.2110 -0.1081 -0.0332
84312W        W27250  18.785   4.734  30.132 -0.1330  0.1862 -0.1490
84313W        W27251  18.885   0.844  27.746 -0.1741 -0.1732  0.2389
84314W        W27252  20.006   1.508  27.501 -0.0404  0.1043 -0.0418
84315W        W27253  20.357   3.224  30.628  0.0749 -0.0732 -0.0950
84316W        W27254  21.942   2.270  31.699 -0.0496  0.3107 -0.0011
84317W        W27255  21.391   1.407  27.933 -0.1045  0.1506  0.0312
84318W        W27256  21.659   0.600  31.314  0.1875 -0.1801 -0.0753
84319W        W27257  20.125   3.069  29.227 -0.0357 -0.0743  0.1111
84320W        W27258  20.484   0.581  28.732 -0.2564  0.2259 -0.0595
84321W        W27259  16.868   4.695  29.808 -0.1954  0.0232  0.1573
84322W        W27260  18.704   4.569  31.148  0.3555 -0.2682 -0.1243
84323W        W27261  19.451   4.272  28.591 -0.0398  0.2862 -0.2217
84324W        W27262  19.234  32.220  31.016  0.0695  0.0812 -0.0126
84325W        W27263  20.956   0.793  29.021  0.0957 -0.1381  0.0832
84326W        W27264  20.283   3.983  29.086  0.2722 -0.0295  0.1503
84327W        W27265  20.728   3.037  30.061  0.1606  0.5217  0.0705
84328W        W27266  20.246   3.405   0.342  0.5969 -0.1280  0.0098
84329W        W27267  19.258   1.135  27.949  0.2081 -0.4567 -0.1446
84330W        W27268  19.460   2.719  30.914  0.0898 -0.0960 -0.0726
84331W        W27269  22.848   2.645  28.483  0.0816 -0.3560 -0.3501
84332W        W27270  19.392   3.583  29.301 -0.2402 -0.1990  0.1405
84333W        W27271  18.243   1.808  30.078  0.2949  0.0494  0.4488
84334W        W27272  19.505   2.243  30.016  0.0780 -0.3029  0.1335
84335W        W27273  21.115   1.439  29.625  0.0914 -0.1210 -0.3085
84336W        W27274  20.252  34.344  28.772  0.1835  0.0014  0.5359
84337W        W27275  18.924   3.656  28.184  0.2584  0.2099  0.3454
84338W        W27276  18.471   2.321   0.896  0.0153  0.1679 -0.1448
84339W        W27277  19.538   3.096  30.585  0.4244 -0.1615  0.2815
84340W        W27278  17.491   4.127  28.204  0.2730  0.1314  0.1487
84341W        W27279  19.724   3.441  26.877 -0.0636 -0.0826 -0.1518
84342W        W27280  20.092   1.707  27.986 -0.3802 -0.0770  0.1498
84343W        W27281  20.420   3.491  29.170 -0.2323 -0.1154  0.1044
84344W        W27282  20.145   1.955  27.342 -0.1249  0.2221  0.0012
84345W        W27283  19.184   3.234  28.340 -0.1335 -0.5483  0.1111
84346W        W27284  18.046   3.259  27.570 -0.0358 -0.2686 -0.1282
84347W        W27285  21.402   3.766  27.437  0.1198  0.1479  0.0183
84348W        W27286  19.324   4.243  27.371  0.0832 -0.1708  0.2059
84349W        W27287  20.849   3.279  30.552 -0.0803 -0.0691 -0.0912
84350W        W27288  20.658   2.369  28.754 -0.0443 -0.2770 -0.4304
84351W        W27289  20.748   3.139  28.091  0.1276  0.0040 -0.0585
84352W        W27290  22.918   1.317  27.945 -0.1885 -0.0979 -0.0267
84353W        W27291  20.666   3.608  30.975  0.2744  0.0171  0.1392
84354W        W27292  19.031   0.497  29.538  0.0368  0.1696 -0.2747
84355W        W27293  19.918  34.201  28.374  0.2553 -0.2785 -0.1430
84356W        W27294  18.699  34.539  31.622  0.0568  0.0380 -0.3225
84357W        W27295  21.512  34.417  31.247  0.4568  0.0861 -0.0443
84358W        W27296  17.706   4.707  31.890 -0.1114 -0.0174  0.2462
84359W        W27297  22.178   4.054  28.854 -0.2635 -0.0444  0.1721
84360W        W27298  19.355  33.479  27.073  0.0568 -0.0026 -0.0850
84361W        W27299  20.767   1.900  28.529 -0.0661 -0.0120 -0.0941
84362W        W27300  21.975   0.949  31.521  0.0375 -0.4073  0.0998
84363W        W27301  20.412   3.199  27.673 -0.3548  0.1850  0.3006
84364W        W27302  20.512   0.664  30.312 -0.3455 -0.0029 -0.1159
84365W        W27303  19.986   3.943  28.358 -0.1357  0.1661  0.2113
84366W        W27304  19.149   2.774  29.646  0.0219 -0.0803 -0.1205
84367W        W27305  19.000   2.602  30.540  0.1158 -0.1448 -0.5904
84368W        W27306  17.873   1.601  28.097 -0.3146  0.4087 -0.3273
84369W        W27307  22.073   2.557  28.929  0.1400 -0.1058  0.0826
84370W        W27308  19.095   2.165  30.322 -0.1250  0.2462 -0.1101
84371W        W27309  20.990   2.240  30.837  0.1653  0.0981  0.1933
84372W        W27310  19.107   1.841  29.654 -0.2575  0.2105  0.0446
84373W        W27311  21.678   1.919  28.489  0.0104  0.2056 -0.2374
84374W        W27312  19.579   2.003  30.562  0.3636  0.3512 -0.1628
84375W        W27313  20.215   1.827  29.653 -0.0693  0.2006  0.1298
84376W        W27314  20.471   0.996  26.955  0.0945  0.0937  0.2738
84377W        W27315  21.694   3.301  29.779  0.0684 -0.0760 -0.0894
84378W        W27316  20.099   2.542  27.425 -0.2771  0.1722  0.0320
84379W        W27317  20.044   3.009   1.379  0.1273 -0.2653  0.0955
84380W        W27318  18.876   1.418  29.383  0.1162 -0.3223  0.1792
84381W        W27319  20.206  33.941  27.998  0.3111 -0.2066  0.2426
84382W        W27320  18.584   2.616  29.601  0.0019 -0.0533  0.2173
84383W        W27321  20.405   1.502  29.312  0.1650  0.3839 -0.0564
84384W        W27322  20.594   3.437  31.920  0.0514  0.3062 -0.1237
84385W        W27323  18.291   0.447  28.304  0.5533 -0.0597 -0.1455
84386W        W27324  22.005   2.015  28.021  0.0171 -0.1115 -0.2156
84387W        W27325  19.746   1.247  31.201 -0.1686 -0.0712  0.2552
84388W        W27326  18.702   4.101  28.625 -0.2401  0.1789 -0.0104
84389W        W27327  21.511   2.559  29.205  0.1145  0.1836 -0.2922
84390W        W27328  19.525   4.479  29.071  0.0040 -0.2521  0.1200
84391W        W27329  19.599   2.938  30.125 -0.0377  0.0553 -0.1334
84392W        W27330  20.792   2.962  29.468  0.1253  0.0002  0.0897
84393W        W27331  20.985   4.271  28.786  0.0799  0.0925 -0.1243
84394W        W27332  22.824   2.792  28.020  0.1134 -0.0164 -0.1411
84395W        W27333  18.239   1.897  28.550  0.0102 -0.2467  0.0844
84396W        W27334  18.185   2.407  27.757  0.1106 -0.0429 -0.1459
84397W        W27335  21.413   0.612  29.320 -0.0015 -0.0172 -0.0265
84398W        W27336  21.256   1.021  30.814 -0.2207  0.0239 -0.0678
84399W        W27337  18.502   3.481  26.798 -0.2316  0.2969 -0.0798
84400W        W27338  20.815   0.336   0.178  0.1631  0.1374 -0.2391
84401W        W27339  21.600   3.680  30.131  0.4026  0.0942 -0.0656
84402W        W27340  20.191   2.629  31.030  0.0962  0.0267  0.0412
84403W        W27341  17.669   0.652  27.162  0.1431 -0.1015 -0.2826
84404W        W27342  20.537   2.340  30.650 -0.0398 -0.0704  0.0580
84405W        W27343  18.823   3.616  29.124 -0.2678  0.1808 -0.2652
84406W        W27344  20.133   4.626  27.866  0.1256 -0.1683 -0.1128
84407W        W27345  21.525   4.652  30.706 -0.3352  0.0333 -0.3577
84408W        W27346  20.751   1.752  29.588 -0.3491 -0.3173 -0.0047
84409W        W27347  23.285   3.886  29.167 -0.1523  0.2412  0.2535
84410W        W27348  19.841   1.516  29.452 -0.1196 -0.1322 -0.4058
84411W        W27349  21.417   0.442  28.735 -0.0039  0.3768 -0.1359
84412W        W27350  20.417  34.617  31.351  0.1309  0.0310  0.1656
84413W        W27351  20.700   0.933  29.853 -0.1829 -0.1382 -0.0891
84414W        W27352  17.791   2.051  28.490 -0.1749 -0.0843  0.2704
84415W        W27353  19.129   1.109  27.432 -0.0436  0.1437  0.0029
84416W        W27354  19.212   2.280  29.366 -0.1680 -0.1261 -0.1532
84417W        W27355  19.635   0.899  30.154  0.0455 -0.0437 -0.0221
84418W        W27356  18.613   0.667  30.456  0.2204 -0.2997  0.1978
84419W        W27357  18.870   3.187  28.836 -0.1619 -0.1182 -0.1213
84420W        W27358  18.488   1.172  28.052  0.2750 -0.0856  0.0147
84421W        W27359  21.170   3.919  28.447 -0.1176  0.0009 -0.0113
84422W        W27360  18.788   0.916  29.707 -0.0678  0.0729  0.1807
84423W        W27361  18.859  33.150  29.482 -0.2757  0.2340  0.1403
84424W        W27362  21.764   3.538  28.906 -0.2507  0.0831  0.2472
84425W        W27363  20.730   3.829  28.914  0.2471 -0.2113 -0.0960
84426W        W27364  19.824   1.566  28.390  0.1248 -0.2134  0.1086
84427W        W27365  22.795   3.667   0.193 -0.0321 -0.3266  0.0768
84428W        W27366  19.177   2.574  27.415 -0.4595 -0.0018  0.0865
84429W        W27367  20.151   0.352  31.189  0.1719 -0.0672  0.3090
84430W        W27368  21.068  33.706  31.720  0.1310  0.1503  0.5373
84431W        W27369  18.495  34.120  27.436 -0.1396 -0.0279  0.1203
84432W        W27370  20.043   0.580  30.486  0.0965 -0.1180 -0.2069
84433W        W27371  19.463   3.674  27.374  0.2108  0.1948  0.0388
84434W        W27372  21.523   4.587  27.947  0.1095  0.2005  0.2035
84435W        W27373  19.873   3.455  30.710 -0.1881 -0.2519 -0.2177
84436W        W27374  19.322   1.909  31.153 -0.0981 -0.1990  0.1254
84437W        W27375  19.672   0.435  30.068  0.1686  0.1107  0.0826
84438W        W27376  21.594   2.412  27.098  0.2406  0.1102 -0.0980
84439W        W27377  20.017   1.549   0.285 -0.0828 -0.1183 -0.2064
84440W        W27378  22.094   2.161  28.552  0.1835 -0.1507 -0.2925
84441W        W27379  21.874   0.773  29.255 -0.0996  0.0110  0.0564
84442W        W27380  20.373   2.737  27.907 -0.0190  0.1265 -0.1299
84443W        W27381  20.069   0.205  31.714  0.1880 -0.0011  0.0068
84444W        W27382  19.727   1.066  30.705  0.1352  0.1288 -0.3316
84445W        W27383  21.384   2.136  29.426 -0.0286  0.0449 -0.1657
84446W        W27384  19.631   2.591  29.471  0.1397  0.2332  0.1027
84447W        W27385  20.648   2.766  27.498  0.2346  0.2012  0.0386
84448W        W27386  20.117   2.645  28.932  0.0036  0.2995 -0.2071
84449W        W27387  18.811   1.983  29.282  0.0668  0.1040 -0.4540
84450W        W27388  20.855   2.032  27.370  0.0077 -0.2539 -0.1564
84451W        W27389  20.041   2.467  29.898 -0.2648  0.0534 -0.1700
84452W        W27390  20.148   3.100  28.145  0.0753 -0.0336  0.2462
84453W        W27391  20.457   2.444   0.441  0.3220 -0.2001  0.1925
84454W        W27392  19.302   0.663  28.118 -0.1008  0.1908 -0.1965
84455W        W27393  23.210   1.908  28.094 -0.2432  0.0931  0.1836
84456W        W27394  19.850   3.765  30.327  0.2648 -0.2156 -0.0794
84457W        W27395  21.944   4.943   0.423 -0.0110  0.0647 -0.2637
84458W        W27396  21.075   3.780  30.111  0.1147  0.1691 -0.0277
84459W        W27397  21.382   2.417  30.530  0.0639 -0.1426  0.3960
84460W        W27398  18.867   0.036  28.683 -0.0542  0.1575 -0.2052
84461W        W27399  19.325   1.640  27.696 -0.0231 -0.1467 -0.0104
84462W        W27400  21.223   2.445  27.367  0.1230  0.1943 -0.1935
84463W        W27401  20.995   2.240  29.727 -0.4330  0.0919 -0.2800
84464W        W27402  19.332  34.582  28.750 -0.0976  0.0468  0.0019
84465W        W27403  21.363   0.307  27.907  0.1193 -0.5441 -0.1443
84466W        W27404  20.151   4.003  30.810  0.1657  0.1150  0.3910
84467W        W27405  20.876   2.114  29.210 -0.5722 -0.0443 -0.0232
84468W        W27406  20.330   0.527   0.116  0.1315  0.3584  0.1212
84469W        W27407  20.212   1.580  30.175 -0.3559 -0.0963  0.2684
84470W        W27408  18.720   0.676  31.030 -0.2709  0.1142  0.0501
84471W        W27409  18.565   3.698  31.261 -0.1538  0.0381  0.1364
84472W        W27410  19.235   3.445   0.047 -0.1195  0.1375  0.2578
84473W        W27411  19.875   3.816   1.368 -0.0024  0.0320  0.1516
84474W        W27412  20.300   1.012  31.966  0.0450 -0.1571  0.2938
84475W        W27413  21.846   0.138  31.449  0.1296 -0.1394  0.0251
84476W        W27414  20.880   1.543   0.773 -0.1775  0.0930 -0.0418
84477W        W27415  21.020   2.059   0.901 -0.0889 -0.0605 -0.0243
84478W        W27416  20.066   3.038   0.644  0.1371 -0.0166 -0.0892
84479W        W27417  18.358  33.674  31.327  0.2559  0.0034 -0.0966
84480W        W27418  20.593   2.395  31.863  0.1534 -0.0673 -0.0967
84481W        W27419  19.360   1.459  30.910 -0.0122 -0.0003 -0.1780
84482W        W27420  20.744   2.330  31.322  0.0534  0.0243 -0.0234
84483W        W27421  19.264   2.307   0.546  0.1526 -0.0158  0.0224
84484W        W27422  19.118   1.362  29.893  0.0091  0.2348 -0.1269
84485W        W27423  21.974   3.581  30.451  0.1701 -0.0089  0.0309
84486W        W27424  19.630  34.238   0.907  0.1972 -0.1112 -0.1874
84487W        W27425  17.389  34.673  31.768  0.1182  0.1346 -0.3317
84488W        W27426  18.623  34.191   0.505  0.5134 -0.2518 -0.1397
84489W        W27427  17.975   4.469   0.370 -0.2124  0.2255 -0.0167
84490W        W27428  21.083   1.749  30.723  0.1376 -0.1481  0.0971
84491W        W27429  20.244   1.212  29.670 -0.1827 -0.3084  0.0042
84492W        W27430  21.055   1.897  31.164  0.0266  0.2100  0.2340
84493W        W27431  19.936  33.617   0.314 -0.0413 -0.2840  0.3084
84494W        W27432  21.285   1.489  31.553 -0.0797 -0.2042 -0.0362
84495W        W27433  19.147   4.198  31.030 -0.2222  0.2551  0.0918
84496W        W27434  19.650   1.579  31.567 -0.0411  0.1044 -0.0462
84497W        W27435  19.739   3.336   0.199 -0.0789  0.1017 -0.0287
84498W        W27436  20.679   3.410  31.465 -0.0081  0.0038  0.0083
84499W        W27437  19.529   0.580  30.656 -0.0882  0.0144  0.2747
84500W        W27438  22.818   3.219  31.758 -0.1619 -0.0839 -0.4904
84501W        W27439  21.199  33.449   0.174 -0.4267  0.1161 -0.0675
84502W        W27440  19.257   0.862  29.803 -0.1930  0.0764 -0.0344
84503W        W27441  19.408   1.786   1.047 -0.2726 -0.1243 -0.5481
84504W        W27442  19.865   2.179  31.463  0.0586  0.0142  0.1641
84505W        W27443  20.539   2.049   1.143 -0.0828  0.5382  0.2454
84506W        W27444  21.106   3.081  31.943 -0.2976 -0.2280  0.1022
84507W        W27445  21.068   2.200  31.822  0.0765 -0.0731  0.1499
84508W        W27446  22.826   2.118   0.742  0.3241 -0.2562  0.0838
84509W        W27447  20.723   0.858   0.864  0.0507  0.0483 -0.0782
84510W        W27448  18.739   1.125  31.251 -0.0028 -0.5362 -0.2041
84511W        W27449  19.190   3.974   0.059  0.0893 -0.1421  0.0896
84512W        W27450  19.716   0.252  30.973 -0.1399  0.0164 -0.0184
84513W        W27451  20.810   2.082   0.271 -0.0365  0.0976 -0.0415
84514W        W27452  21.314   0.326   0.157  0.0054  0.1559  0.1754
84515W        W27453  20.034   2.335  31.884  0.0084  0.2007  0.1251
84516W        W27454  21.391   3.480  30.644  0.1388  0.1299 -0.2613
84517W        W27455  19.164   2.285  30.870 -0.1254 -0.1964  0.0249
84518W        W27456  20.818   3.923   0.086  0.0794 -0.1059 -0.0129
84519W        W27457  19.840   0.728  31.111 -0.1142 -0.1227 -0.0356
84520W        W27458  20.527  34.139  31.837 -0.1548  0.0224  0.1198
84521W        W27459  19.542   3.453  31.581  0.0045  0.2420 -0.2217
84522W        W27460  19.754  34.598  31.905  0.0126  0.0548  0.1341
84523W        W27461  20.876   3.173  31.094  0.0246 -0.0143 -0.2257
84524W        W27462  22.583   3.545  31.172 -0.1656  0.5695 -0.0217
84525W        W27463  18.913   4.802   0.494  0.3151 -0.0320  0.0858
84526W        W27464  20.099   3.465  31.818 -0.0042  0.0993 -0.1178
84527W        W27465  19.816   1.516  30.528  0.2727 -0.2368 -0.3234
84528W        W27466  18.550   1.670  31.328  0.2803 -0.0416  0.1115
84529W        W27467  20.707   0.885   0.252 -0.2180 -0.0233  0.1217
84530W        W27468  20.221   0.783  29.922 -0.0780 -0.1754 -0.2614
84531W        W27469  19.210   0.600  30.264  0.3339 -0.2585 -0.0772
84532W        W27470  22.949   4.080  31.835 -0.1278  0.0737 -0.0661
84533W        W27471  23.595   3.368  31.400  0.0541 -0.1296 -0.0570
84534W        W27472  21.455   3.365   0.353  0.2745 -0.2811 -0.0227
84535W        W27473  18.843   6.561  18.584  0.3582  0.0628  0.0452
84536W        W27474  19.257   5.173  16.875 -0.3276  0.1042 -0.1413
84537W        W27475  19.399   3.618  16.415 -0.1438  0.0191 -0.0264
84538W        W27476  21.849   5.663  16.570  0.1985 -0.0401 -0.3037
84539W        W27477  18.798   6.259  17.488  0.1179  0.2438  0.1694
84540W        W27478  20.714   6.225  16.029 -0.0717 -0.2643 -0.0272
84541W        W27479  17.865   4.547  18.948 -0.1275  0.0198  0.3095
84542W        W27480  20.286   4.854  18.902  0.0111 -0.2793  0.2153
84543W        W27481  23.298   5.357  18.710 -0.3719  0.0366  0.1131
84544W        W27482  19.555   6.337  17.938  0.1321  0.4396  0.0216
84545W        W27483  20.232   5.066  19.852 -0.0311 -0.1570  0.1863
84546W        W27484  20.583   6.574  18.581  0.1531 -0.0704 -0.3823
84547W        W27485  20.061   3.289  15.843  0.2427  0.4342  0.0862
84548W        W27486  16.669   2.163  18.564  0.0708  0.0769  0.1784
84549W        W27487  20.163   6.084  19.419 -0.0681 -0.1820  0.0891
84550W        W27488  18.545   5.255  17.444  0.0008  0.0251 -0.2841
84551W        W27489  18.850   4.930  18.551 -0.3891  0.0426  0.0201
84552W        W27490  20.346   4.153  17.053  0.3803  0.0290  0.0325
84553W        W27491  19.477   6.197  16.804 -0.2137  0.0951 -0.0615
84554W        W27492  18.997   4.207  19.101 -0.2391  0.0118 -0.0851
84555W        W27493  20.825   2.736  18.803  0.5620 -0.0527  0.1481
84556W        W27494  18.098   6.876  14.988  0.0356 -0.0186  0.1651
84557W        W27495  18.125   4.115  16.040  0.1188 -0.1547 -0.0464
84558W        W27496  18.269   6.082  17.414  0.1164 -0.0220 -0.1435
84559W        W27497  18.867   6.334  19.218 -0.1552  0.0784  0.0638
84560W        W27498  20.356   3.853  19.127  0.3126 -0.3702 -0.1802
84561W        W27499  20.041   4.734  16.998  0.1223 -0.0521 -0.1049
84562W        W27500  21.268   6.060  18.575  0.0222  0.4942 -0.0453
84563W        W27501  18.275   7.148  16.990 -0.1922  0.1493 -0.2405
84564W        W27502  20.803   4.586  18.626 -0.1188  0.1645  0.1807
84565W        W27503  18.580   6.690  18.145 -0.3004 -0.1105  0.2914
84566W        W27504  20.005   6.509  17.644 -0.2455  0.3366  0.2465
84567W        W27505  19.801   7.084  15.347 -0.2523  0.1993  0.0420
84568W        W27506  21.527   7.833  15.902 -0.5341 -0.2172  0.1436
84569W        W27507  21.788   7.039  19.160 -0.0268 -0.2697  0.0420
84570W        W27508  20.428   7.966  18.335  0.4048  0.0824  0.0194
84571W        W27509  16.958   7.248  15.310 -0.0090 -0.0395 -0.0271
84572W        W27510  21.026   6.780  18.802 -0.0861 -0.0653  0.2654
84573W        W27511  21.094   6.523  18.330 -0.0267 -0.1183  0.2485
84574W        W27512  20.314   4.709  18.421 -0.2621  0.1832  0.2359
84575W        W27513  19.893   5.781  18.415 -0.1275 -0.1179 -0.0056
84576W        W27514  18.363   6.861  15.899  0.3046  0.1839 -0.1706
84577W        W27515  20.262   5.294  17.097 -0.1465 -0.0959  0.1246
84578W        W27516  20.247   6.113  18.523  0.1994 -0.0688 -0.3219
84579W        W27517  17.559   6.720  17.492  0.1686 -0.0985  0.0652
84580W        W27518  20.886   5.676  18.908 -0.4703 -0.1263  0.2285
84581W        W27519  19.290   6.897  15.207  0.1237 -0.1892  0.2220
84582W        W27520  21.613   4.664  16.374 -0.2226  0.0821 -0.1973
84583W        W27521  19.516   3.300  16.821 -0.2340  0.1094 -0.0868
84584W        W27522  21.172   4.915  16.651 -0.0202  0.0317  0.4459
84585W        W27523  19.126   3.046  17.874  0.0257  0.1232  0.1845
84586W        W27524  18.472   7.339  15.992 -0.1122 -0.1273 -0.1025
84587W        W27525  17.988   4.290  19.389 -0.0101 -0.1795  0.6828
84588W        W27526  22.027   5.943  19.558 -0.2053  0.0644  0.1152
84589W        W27527  19.851   6.401  17.159 -0.1602  0.0651 -0.1747
84590W        W27528  20.787   4.658  19.119 -0.1767  0.3006  0.0152
84591W        W27529  19.197   5.920  19.230 -0.1166  0.2401  0.1423
84592W        W27530  19.087   6.528  17.915  0.3522 -0.0795 -0.1626
84593W        W27531  20.167   7.791  16.191  0.0214  0.1230  0.1686
84594W        W27532  21.571   6.486  18.394 -0.0551  0.1067  0.2843
84595W        W27533  20.121   7.415  15.813 -0.2483 -0.0667  0.2233
84596W        W27534  18.968   5.430  17.827 -0.0504 -0.1269 -0.1993
84597W        W27535  17.629   3.275  20.024 -0.0306  0.0648  0.2978
84598W        W27536  18.194   4.640  19.721  0.5306  0.1059 -0.1194
84599W        W27537  17.684   3.239  15.967  0.0997  0.1223  0.0941
84600W        W27538  21.062   4.418  19.494 -0.0333 -0.1070  0.1151
84601W        W27539  18.845   5.313  19.309  0.0074 -0.0869  0.0847
84602W        W27540  23.351   5.425  18.011  0.0270 -0.5518 -0.0537
84603W        W27541  20.510   6.515  17.459  0.2278 -0.2025  0.0852
84604W        W27542  22.111   5.468  19.721 -0.1471  0.0576  0.0271
84605W        W27543  21.249   5.140  16.005 -0.2156  0.0983 -0.1092
84606W        W27544  20.923   4.407  18.164 -0.1686 -0.1781 -0.2466
84607W        W27545  21.246   4.752  17.984 -0.1167 -0.0783  0.0678
84608W        W27546  19.553   6.546  15.495 -0.1484  0.1443  0.3296
84609W        W27547  18.682   6.063  15.694  0.0470  0.1557  0.2424
84610W        W27548  21.384   6.381  17.892  0.2523 -0.0675 -0.0992
84611W        W27549  21.307   7.013  16.132 -0.2255 -0.1167 -0.0636
84612W        W27550  19.183   5.942  17.674 -0.0819 -0.1472 -0.2164
84613W        W27551  21.233   5.311  19.118  0.0978 -0.2114  0.0992
84614W        W27552  21.808   5.906  20.617  0.2437  0.0101 -0.0579
84615W        W27553  18.359   7.109  15.353 -0.0785  0.0895  0.1074
84616W        W27554  18.628   5.754  17.162  0.1554  0.2298 -0.0197
84617W        W27555  18.983   6.120  16.087  0.1250  0.2190  0.0606
84618W        W27556  18.358   4.835  18.500  0.1939  0.3901 -0.1074
84619W        W27557  19.671   5.777  17.952 -0.0351 -0.1168  0.1887
84620W        W27558  20.755   4.963  18.236  0.2710  0.2482 -0.0066
84621W        W27559  19.035   4.919  18.108 -0.0640 -0.2606 -0.0680
84622W        W27560  21.396   4.234  17.107  0.1572  0.1932 -0.1432
84623W        W27561  17.002   5.983  17.516  0.0227  0.0713  0.1580
84624W        W27562  19.902   6.265  16.386 -0.0956  0.0460 -0.1223
84625W        W27563  21.526   4.727  16.943  0.1436 -0.1761 -0.1939
84626W        W27564  21.564   5.496  16.151  0.2837 -0.1388 -0.0386
84627W        W27565  19.915   5.421  20.189 -0.0752  0.0876 -0.1035
84628W        W27566  18.890   5.204  16.108 -0.1083  0.1077  0.1721
84629W        W27567  19.502   4.134  19.108 -0.1657  0.1265  0.0312
84630W        W27568  16.447   2.919  17.392  0.1810 -0.1838  0.1262
84631W        W27569  22.137   4.951  20.469  0.0884 -0.2324 -0.1392
84632W        W27570  17.190   2.964  16.811 -0.1492  0.0834 -0.1343
84633W        W27571  20.566   4.634  17.036 -0.0220 -0.1944 -0.0239
84634W        W27572  18.581   5.717  17.710 -0.5592  0.2052  0.1285
84635W        W27573  17.516   6.660  16.467  0.2356 -0.3602 -0.5179
84636W        W27574  21.579   5.700  18.987  0.1028 -0.1634 -0.3365
84637W        W27575  19.655   6.700  16.291 -0.0143  0.1911  0.2108
84638W        W27576  21.707   5.588  18.435 -0.1919  0.0437  0.3739
84639W        W27577  20.793   7.621  16.958  0.0623 -0.2198  0.1290
84640W        W27578  20.690   5.834  17.643  0.0320 -0.0018 -0.0000
84641W        W27579  17.890   5.252  16.514  0.1021  0.1365  0.1005
84642W        W27580  17.572   7.128  17.162 -0.3387 -0.0835  0.3468
84643W        W27581  17.994   6.545  16.329 -0.0564  0.1662  0.1567
84644W        W27582  18.989   4.332  16.525  0.0908  0.0423  0.1565
84645W        W27583  22.250   6.606  17.816 -0.1057  0.0773  0.1216
84646W        W27584  20.504   5.484  16.619  0.0619 -0.1377  0.0756
84647W        W27585  18.183   5.238  20.329  0.0497 -0.1981 -0.1069
84648W        W27586  20.033   4.548  17.926  0.0845  0.2392  0.2769
84649W        W27587  19.696   4.893  17.721  0.1024 -0.3763 -0.3587
84650W        W27588  20.787   6.396  16.568 -0.2820 -0.2339  0.2729
84651W        W27589  18.519   2.642  16.316 -0.1573  0.0435  0.0845
84652W        W27590  20.057   7.459  17.782 -0.2420  0.1883 -0.0581
84653W        W27591  19.676   6.975  18.893 -0.0526  0.2697  0.0598
84654W        W27592  17.958   5.713  17.720  0.4528 -0.1608  0.2240
84655W        W27593  19.195   6.644  16.527 -0.0752 -0.0777 -0.2113
84656W        W27594  21.134   5.018  18.643 -0.1122 -0.1316  0.3536
84657W        W27595  17.560   3.813  20.956  0.1183 -0.2707 -0.2021
84658W        W27596  19.965   4.080  19.709 -0.3108  0.1039 -0.1237
84659W        W27597  19.004   3.766  15.780  0.0214  0.3644 -0.0671
84660W        W27598  18.983   5.919  20.441  0.1357 -0.0380  0.0655
84661W        W27599  19.939   4.773  16.403 -0.2537  0.1887 -0.0981
84662W        W27600  21.548   4.579  17.615  0.4170 -0.1737  0.1067
84663W        W27601  20.170   7.519  20.744 -0.1864  0.0078 -0.0165
84664W        W27602  20.008   6.011  16.872 -0.0370 -0.2008  0.1842
84665W        W27603  20.480   4.750  16.262 -0.0090 -0.3146 -0.1264
84666W        W27604  20.547   2.982  16.377 -0.0267  0.1207 -0.0801
84667W        W27605  17.905   4.800  20.227  0.0687 -0.0427 -0.0867
84668W        W27606  20.531   5.772  17.172 -0.1655 -0.2001 -0.1854
84669W        W27607  20.584   6.652  18.036 -0.0036  0.0695  0.1090
84670W        W27608  19.756   4.450  15.651 -0.1349 -0.0884 -0.2822
84671W        W27609  21.830   7.124  16.955 -0.1988 -0.1754  0.1111
84672W        W27610  19.277   5.996  18.299 -0.3164  0.1893 -0.0451
84673W        W27611  21.781   6.432  19.815 -0.3149  0.2520 -0.1119
84674W        W27612  20.583   7.090  17.107 -0.2063  0.0960 -0.0434
84675W        W27613  20.273   4.465  20.303 -0.2103  0.0483  0.0056
84676W        W27614  19.169   4.779  16.417  0.1434  0.1784 -0.1240
84677W        W27615  19.557   3.888  16.919 -0.2409  0.3725  0.1806
84678W        W27616  17.631   7.323  15.855  0.1018 -0.1950 -0.0413
84679W        W27617  20.417   4.322  18.179  0.3198  0.0106  0.0415
84680W        W27618  19.703   4.563  17.320 -0.3160 -0.1789  0.1334
84681W        W27619  19.500   3.932  18.095 -0.1494  0.2653  0.3135
84682W        W27620  22.901   6.122  18.973  0.1777 -0.2212  0.0034
84683W        W27621  21.325   5.779  15.235  0.2403  0.0449 -0.1010
84684W        W27622  20.248   6.111  17.441 -0.1530 -0.0059  0.0271
84685W        W27623  18.179   5.628  17.203 -0.0765  0.0736 -0.0631
84686W        W27624  19.547   4.455  18.236 -0.0796  0.4916 -0.2106
84687W        W27625  18.596   5.400  19.994  0.1896 -0.0760 -0.0606
84688W        W27626  19.189   6.853  18.853 -0.1973 -0.1040 -0.0491
84689W        W27627  21.307   7.223  18.891  0.1369 -0.3186  0.1025
84690W        W27628  20.731   5.118  16.429 -0.2964  0.2116  0.2600
84691W        W27629  20.394   5.554  18.560  0.1688 -0.2142  0.2351
84692W        W27630  20.089   4.755  15.906  0.0938 -0.0073 -0.2010
84693W        W27631  20.028   6.660  15.509 -0.2343  0.0490  0.1335
84694W        W27632  18.847   6.918  16.239 -0.1787 -0.1113 -0.0311
84695W        W27633  18.971   5.408  17.263  0.0162  0.3774  0.0361
84696W        W27634  20.235   6.725  17.126  0.1373 -0.3117 -0.2178
84697W        W27635  21.426   6.829  17.040  0.1069  0.1672  0.3053
84698W        W27636  20.947   5.358  17.951  0.1396 -0.0922 -0.0729
84699W        W27637  19.831   7.397  16.278 -0.1965  0.1344  0.1367
84700W        W27638  22.887   3.579  17.342  0.1261  0.0572  0.0436
84701W        W27639  18.075   5.432  18.582  0.1747 -0.3105  0.0667
84702W        W27640  18.979   5.573  16.748  0.2518  0.0069  0.3203
84703W        W27641  17.437   6.233  17.321  0.0996 -0.0076 -0.0862
84704W        W27642  21.808   4.953  17.328 -0.0313 -0.0974 -0.3569
84705W        W27643  22.060   5.618  16.088  0.3197  0.3165 -0.0683
84706W        W27644  17.844   3.995  18.434  0.2348 -0.2320  0.2175
84707W        W27645  19.136   4.448  17.425 -0.0100 -0.1474  0.4508
84708W        W27646  17.952   6.473  17.258 -0.1341  0.2153 -0.0925
84709W        W27647  20.475   5.771  18.123 -0.1214  0.0508 -0.1251
84710W        W27648  18.406   3.863  17.594  0.0091 -0.1303  0.4166
84711W        W27649  20.194   4.965  19.390 -0.0975  0.0177  0.3292
84712W        W27650  20.504   6.893  20.714  0.2392  0.1011  0.2517
84713W        W27651  17.493   5.308  17.961  0.1111 -0.1535 -0.0575
84714W        W27652  20.634   5.127  18.760 -0.3404 -0.1884  0.2689
84715W        W27653  19.376   3.075  17.330  0.0734 -0.4067 -0.1293
84716W        W27654  19.637   7.200  16.685  0.0096 -0.0895 -0.0345
84717W        W27655  21.406   7.051  17.539 -0.2437 -0.1069 -0.0393
84718W        W27656  19.299   6.361  17.363 -0.1769 -0.0677  0.0360
84719W        W27657  18.987   7.344  15.929 -0.0513  0.0496 -0.0314
84720W        W27658  19.614   4.899  19.497  0.1450  0.2984 -0.1939
84721W        W27659  21.207   5.072  17.591 -0.0320 -0.3356 -0.0722
84722W        W27660  19.774   4.882  18.214 -0.0716  0.1443 -0.0860
84723W        W27661  18.127   4.920  16.141 -0.2115  0.1871 -0.0607
84724W        W27662  19.676   5.171  17.148 -0.2535  0.1774  0.1361
84725W        W27663  21.040   6.272  18.994  0.0572 -0.2463  0.0928
84726W        W27664  18.732   3.549  18.471  0.2266 -0.0428  0.1154
84727W        W27665  20.171   6.415  20.149 -0.0136  0.2307 -0.1757
84728W        W27666  19.331   4.509  19.342 -0.1530 -0.1119 -0.1620
84729W        W27667  21.138   6.508  16.208  0.1263  0.0909  0.1688
84730W        W27668  21.504   6.089  19.585 -0.0388  0.0327 -0.0981
84731W        W27669  17.590   5.700  16.449 -0.3664  0.3196 -0.0447
84732W        W27670  17.275   5.155  17.518 -0.1484  0.0499  0.3282
84733W        W27671  17.733   6.095  16.681 -0.1588 -0.3709 -0.5923
84734W        W27672  19.343   4.371  18.708  0.0186  0.1072  0.1011
84735W        W27673  21.304   6.983  18.450 -0.0566 -0.3121 -0.0865
84736W        W27674  18.718   6.503  15.953 -0.0837  0.3605 -0.2370
84737W        W27675  18.543   5.136  18.056  0.3209  0.0115 -0.0292
84738W        W27676  22.007   4.011  17.093 -0.2104 -0.2002  0.1942
84739W        W27677  19.599   7.442  15.863  0.2667  0.2673 -0.1443
84740W        W27678  18.876   4.414  17.015  0.0442 -0.3339  0.1602
84741W        W27679  20.626   3.378  18.050 -0.1996 -0.1845  0.0948
84742W        W27680  20.195   6.059  16.031 -0.3730 -0.4065  0.1068
84743W        W27681  20.693   5.039  19.714  0.0316 -0.2549  0.1049
84744W        W27682  19.009   3.921  16.873  0.0785 -0.0770 -0.1686
84745W        W27683  20.954   5.787  16.936  0.0068 -0.0334  0.3203
84746W        W27684  19.597   4.747  19.011  0.0777  0.1682 -0.1231
84747W        W27685  21.625   6.894  20.746 -0.0838 -0.0323 -0.4326
84748W        W27686  18.737   5.819  18.385  0.0325 -0.1766 -0.1612
84749W        W27687  19.535   4.830  16.099  0.0824 -0.1609 -0.0330
84750W        W27688  18.315   4.960  16.675 -0.0841  0.0353  0.1293
84751W        W27689  19.998   5.540  16.767  0.1323 -0.1628 -0.0718
84752W        W27690  22.013   6.708  17.165  0.1999  0.1629 -0.0687
84753W        W27691  18.291   6.169  16.919 -0.2339 -0.1579 -0.2521
84754W        W27692  21.569   5.395  17.494 -0.2105 -0.2403 -0.0366
84755W        W27693  19.929   6.046  18.901 -0.1096  0.2342 -0.0498
84756W        W27694  20.888   4.254  16.974 -0.0170 -0.1427 -0.0503
84757W        W27695  18.984   6.063  16.621 -0.0902  0.1702 -0.1006
84758W        W27696  20.131   6.627  18.285  0.1014 -0.2296  0.0870
84759W        W27697  17.632   2.804  19.677  0.1143 -0.1985 -0.2977
84760W        W27698  20.589   7.307  16.656 -0.0876  0.1874 -0.1542
84761W        W27699  20.273   4.463  17.432  0.2481  0.1239 -0.0572
84762W        W27700  20.035   5.686  17.277 -0.1490 -0.1666  0.1653
84763W        W27701  20.635   4.212  19.366 -0.0954  0.2616  0.0317
84764W        W27702  20.172   6.801  18.819 -0.0025  0.1274  0.0776
84765W        W27703  18.888   4.077  19.760 -0.1291 -0.1023  0.2116
84766W        W27704  22.249   7.600  19.715 -0.1334  0.0308  0.1945
84767W        W27705  22.530   5.961  15.425  0.0042 -0.1029  0.1763
84768W        W27706  20.338   4.373  18.919 -0.0417 -0.0750  0.2042
84769W        W27707  22.192   5.194  17.597  0.1728  0.0114  0.4879
84770W        W27708  20.073   5.640  16.232  0.4901 -0.0747 -0.0371
84771W        W27709  16.863   3.732  17.086 -0.0981 -0.0033 -0.0192
84772W        W27710  20.792   4.569  20.502 -0.0340 -0.3598  0.2206
84773W        W27711  19.022   3.920  16.259 -0.1737  0.0816  0.1275
84774W        W27712  21.388   4.669  18.896 -0.3697 -0.2139  0.0699
84775W        W27713  20.191   6.499  16.673  0.3092 -0.1009  0.1006
84776W        W27714  21.380   6.189  17.101 -0.1421 -0.1945  0.2149
84777W        W27715  20.712   4.958  17.422  0.2521  0.3456 -0.2195
84778W        W27716  18.150   4.358  16.958 -0.0863  0.3157  0.0295
84779W        W27717  19.905   6.514  19.761  0.1903 -0.2164 -0.4178
84780W        W27718  17.826   4.743  16.785 -0.1317  0.0581  0.0128
84781W        W27719  19.409   6.109  16.302 -0.0845 -0.0668  0.2244
84782W        W27720  21.845   6.526  19.315 -0.1362  0.1488 -0.0564
84783W        W27721  21.686   5.925  17.524  0.1198 -0.2570  0.1969
84784W        W27722  21.001   3.351  15.607 -0.2919  0.0406 -0.3449
84785W        W27723  21.273   3.849  19.540 -0.0036 -0.2389 -0.1317
84786W        W27724  17.817   6.127  15.734 -0.0375  0.2275 -0.0697
84787W        W27725  18.291   3.767  18.482 -0.0780 -0.1281 -0.1995
84788W        W27726  18.994   6.366  16.997 -0.2153 -0.1382  0.4364
84789W        W27727  18.010   5.156  18.186  0.1069 -0.1928  0.1242
84790W        W27728  18.432   5.386  16.870  0.2676 -0.1537  0.2480
84791W        W27729  19.413   4.019  17.402  0.0792 -0.0963 -0.0821
84792W        W27730  20.003   5.132  18.577 -0.1211 -0.1417 -0.1791
84793W        W27731  19.446   5.228  17.971 -0.0268 -0.1045  0.1107
84794W        W27732  19.956   4.118  18.314 -0.0610 -0.2488  0.4012
84795W        W27733  22.268   6.368  19.565  0.0516 -0.2011 -0.0651
84796W        W27734  17.833   5.926  17.142 -0.0856 -0.1925 -0.1117
84797W        W27735  22.048   6.459  18.365 -0.4101  0.2022  0.0439
84798W        W27736  21.662   6.585  17.556 -0.3661 -0.0335 -0.1427
84799W        W27737  19.543   5.767  17.049  0.0608 -0.0612  0.0451
84800W        W27738  16.885   4.873  19.627  0.1802  0.0027 -0.1652
84801W        W27739  19.640   5.788  20.335  0.0341  0.1015  0.1675
84802W        W27740  19.776   6.733  16.807 -0.1805  0.1800  0.1658
84803W        W27741  18.801   4.940  17.095 -0.1599  0.0996  0.1236
84804W        W27742  18.548   5.855  16.623 -0.2765 -0.0832  0.2382
84805W        W27743  19.003   5.549  20.781  0.0987  0.0941  0.0275
84806W        W27744  18.329   5.600  18.185  0.0636 -0.0835  0.1253
84807W        W27745  19.351   7.763  16.910 -0.3558  0.0737 -0.0724
84808W        W27746  20.506   6.458  15.613 -0.1643  0.0052 -0.3106
84809W        W27747  20.708   5.083  15.944  0.2820  0.1147  0.1042
84810W        W27748  21.394   7.673  17.445  0.1060  0.2611 -0.2686
84811W        W27749  19.844   5.073  15.522  0.1651  0.1964 -0.1611
84812W        W27750  19.807   6.943  17.290  0.0454  0.1755 -0.3061
84813W        W27751  18.050   6.643  16.798  0.0002  0.0438 -0.2283
84814W        W27752  19.932   7.635  16.701  0.0317 -0.2268  0.0520
84815W        W27753  18.833   7.004  15.595  0.4424 -0.1355 -0.0746
84816W        W27754  22.328   6.456  20.452  0.3458  0.0383  0.1776
84817W        W27755  21.135   4.217  16.052 -0.0535  0.0259 -0.0653
84818W        W27756  20.805   6.192  18.115  0.0341  0.0621 -0.1334
84819W        W27757  21.864   4.457  17.276 -0.0242 -0.2747  0.0909
84820W        W27758  21.985   6.025  19.026 -0.0154  0.3389 -0.0963
84821W        W27759  18.803   5.088  16.615  0.1278 -0.0774  0.0879
84822W        W27760  20.170   3.872  15.966  0.0332 -0.2383  0.0899
84823W        W27761  19.370   5.408  19.363 -0.0916  0.0537  0.4754
84824W        W27762  22.871   4.558  18.100 -0.0155 -0.3246  0.0951
84825W        W27763  19.754   6.706  20.204 -0.3211  0.1124 -0.1460
84826W        W27764  20.523   6.835  16.674 -0.3036 -0.0787 -0.0281
84827W        W27765  18.303   4.825  17.232  0.0903 -0.0537 -0.0674
84828W        W27766  19.304   5.311  16.354 -0.0073 -0.3827 -0.1062
84829W        W27767  21.452   4.594  18.392 -0.0726 -0.0668 -0.0700
84830W        W27768  21.113   6.331  15.689  0.0310 -0.0388  0.0798
84831W        W27769  19.902   4.535  18.652  0.1161 -0.0223 -0.0737
84832W        W27770  19.216   6.538  16.017  0.1157  0.0413 -0.3283
84833W        W27771  19.398   6.659  18.356  0.2070  0.0262  0.0176
84834W        W27772  20.245   6.209  18.007  0.3566 -0.1292  0.1136
84835W        W27773  17.368   5.053  17.037 -0.1681 -0.1156 -0.1975
84836W        W27774  22.688   4.063  17.161  0.1070  0.1052 -0.2085
84837W        W27775  19.712   6.258  18.399  0.1911  0.0082 -0.1038
84838W        W27776  21.550   5.954  18.130  0.0549  0.0663 -0.1937
84839W        W27777  20.260   4.494  16.650 -0.0678 -0.3439 -0.1303
84840W        W27778  20.777   4.315  16.497  0.0308 -0.0228 -0.0599
84841W        W27779  21.208   5.955  17.635 -0.1023  0.2665 -0.1198
84842W        W27780  19.214   5.247  18.893  0.0428 -0.2148 -0.0322
84843W        W27781  19.640   5.573  15.546  0.3022 -0.0201  0.1850
84844W        W27782  21.093   5.329  19.709 -0.0964  0.2011  0.0158
84845W        W27783  21.990   4.762  16.794  0.0901 -0.1580 -0.0302
84846W        W27784  20.662   5.293  19.248  0.2662  0.0867 -0.3667
84847W        W27785  17.819   3.995  17.060  0.1597  0.2013 -0.2181
84848W        W27786  20.601   3.624  15.782  0.0608 -0.2194  0.1874
84849W        W27787  19.519   5.759  18.829  0.1075 -0.2163  0.0215
84850W        W27788  19.124   5.462  18.303 -0.0374  0.2620 -0.0183
84851W        W27789  21.824   7.651  20.032  0.0771 -0.2064 -0.3027
84852W        W27790  18.117   4.507  16.385  0.3151  0.2335  0.0684
84853W        W27791  21.285   7.612  15.547  0.1822  0.3684  0.2620
84854W        W27792  20.302   5.025  17.988 -0.2463  0.0889 -0.1567
84855W        W27793  19.875   6.975  15.870 -0.1058  0.0685 -0.1661
84856W        W27794  20.099   5.762  17.757  0.0864 -0.0818  0.1736
84857W        W27795  21.262   7.801  17.000 -0.4469  0.1628 -0.1496
84858W        W27796  18.740   4.406  18.691  0.2551 -0.2235 -0.1395
84859W        W27797  20.906   6.157  17.281 -0.0479  0.0209  0.1043
84860W        W27798  21.925   5.951  17.018  0.2254 -0.0233 -0.0343
84861W        W27799  20.910   3.826  16.649  0.2101  0.2446  0.2472
84862W        W27800  19.725   6.500  18.899  0.0287  0.0723  0.0580
84863W        W27801  19.309   6.734  17.024  0.1319  0.0593 -0.0321
84864W        W27802  19.284   4.978  17.404  0.0552 -0.4595 -0.0607
84865W        W27803  21.702   5.010  17.864  0.1903 -0.3209 -0.2080
84866W        W27804  19.397   6.144  15.712 -0.4497  0.4564  0.1039
84867W        W27805  19.478   4.202  19.709  0.2304  0.1568  0.0811
84868W        W27806  19.042   5.684  18.757  0.0925 -0.0123  0.1725
84869W        W27807  19.843   7.018  18.355  0.0213 -0.4115  0.0781
84870W        W27808  18.230   5.858  15.715 -0.0681 -0.1179  0.0297
84871W        W27809  20.650   6.500  20.415  0.4423  0.2123  0.0834
84872W        W27810  19.697   6.010  17.432 -0.0083  0.0472  0.0798
84873W        W27811  18.220   7.931  16.515  0.2770 -0.2590 -0.1038
84874W        W27812  20.327   8.288  17.381  0.1629 -0.0307 -0.3380
84875W        W27813  19.726   5.171  16.608  0.1535  0.0311 -0.0182
84876W        W27814  21.088   6.918  16.622  0.1400 -0.2504  0.2684
84877W        W27815  19.353   3.424  15.808 -0.2688  0.1415  0.0257
84878W        W27816  21.456   5.677  17.045  0.1917 -0.1206 -0.3667
84879W        W27817  21.107   3.696  17.228  0.0769 -0.0781  0.0749
84880W        W27818  19.683   5.269  18.997 -0.0628 -0.2110  0.0466
84881W        W27819  18.043   4.833  15.620 -0.0400  0.4335  0.1145
84882W        W27820  18.389   5.350  16.356  0.0851 -0.1500  0.0539
84883W        W27821  17.852   6.398  17.763 -0.4369  0.1149  0.1756
84884W        W27822  19.820   3.775  19.314  0.1618 -0.1590  0.0149
84885W        W27823  17.896   5.561  19.037  0.2339 -0.0333  0.1740
84886W        W27824  19.007   4.477  18.270 -0.0471 -0.0581 -0.0031
84887W        W27825  18.543   4.047  17.005  0.2514 -0.1270 -0.0375
84888W        W27826  20.433   6.994  15.778  0.2794  0.0728  0.2126
84889W        W27827  19.359   4.322  16.980 -0.1166  0.0019 -0.1245
84890W        W27828  18.172   3.491  18.873  0.3062 -0.2454 -0.5082
84891W        W27829  20.876   5.881  16.387  0.1271 -0.0290  0.0766
84892W        W27830  20.525   6.623  16.185  0.1037  0.0209  0.0222
84893W        W27831  18.518   2.306  17.725 -0.0745  0.1468 -0.3230
84894W        W27832  23.122   5.750  21.319 -0.1199  0.3590 -0.1009
84895W        W27833  18.252   6.331  15.879 -0.0337 -0.1087 -0.0593
84896W        W27834  20.243   5.525  19.488 -0.0473  0.1652  0.2271
84897W        W27835  19.423   2.647  17.817 -0.1635  0.0255 -0.0014
84898W        W27836  18.947   3.421  16.192 -0.0537  0.3136 -0.1704
84899W        W27837  18.840   4.876  17.616 -0.1171 -0.0594 -0.2232
84900W        W27838  21.076   6.629  17.544 -0.1241  0.2326  0.0164
84901W        W27839  20.086   7.178  16.918 -0.1055 -0.0731  0.1573
84902W        W27840  20.770   6.063  18.593  0.2525  0.0751  0.0949
84903W        W27841  20.118   8.379  18.100  0.1420 -0.1759  0.1283
84904W        W27842  18.445   4.154  19.499  0.0135 -0.1315  0.3517
84905W        W27843  22.603   5.881  18.200 -0.1104  0.1257 -0.1163
84906W        W27844  19.809   7.209  20.626  0.0831  0.2257 -0.1422
84907W        W27845  21.293   6.034  16.123  0.0706 -0.1688 -0.3337
84908W        W27846  22.115   3.828  18.378 -0.2016  0.0727  0.1136
84909W        W27847  19.625   5.668  16.481 -0.4657 -0.2326 -0.3220
84910W        W27848  17.987   4.163  17.858 -0.0060 -0.2976 -0.0999
84911W        W27849  17.452   5.405  19.117 -0.0534  0.0737 -0.2666
84912W        W27850  21.121   5.423  16.638  0.0703 -0.0330  0.1030
84913W        W27851  19.367   4.350  16.121 -0.1241 -0.2644 -0.0173
84914W        W27852  20.147   4.925  17.521 -0.0083 -0.1671  0.2347
84915W        W27853  20.385   5.998  16.549 -0.4456  0.1903  0.2887
84916W        W27854  18.820   4.579  19.404  0.0987  0.0447 -0.0889
84917W        W27855  19.548   5.349  18.496 -0.1432 -0.2783  0.2507
84918W        W27856  20.430   6.126  19.866 -0.0419 -0.4255  0.1860
84919W        W27857  21.450   5.412  18.000 -0.0379  0.3166  0.0181
84920W        W27858  21.147   6.811  20.456 -0.0452 -0.3131 -0.2832
84921W        W27859  20.277   5.180  16.265  0.0933  0.4746  0.2488
84922W        W27860  21.985   5.512  15.610  0.2090  0.1792 -0.1849
84923W        W27861  18.813   7.198  18.832 -0.0734  0.2823 -0.0120
84924W        W27862  21.413   4.670  19.829 -0.0152  0.1624 -0.1807
84925W        W27863  19.922   6.806  19.349  0.0323 -0.1318 -0.1101
84926W        W27864  20.469   5.343  17.596 -0.1795 -0.1084 -0.2469
84927W        W27865  17.477   4.528  19.308  0.2302  0.1311  0.2226
84928W        W27866  18.852   6.913  17.259 -0.0488 -0.3408  0.3066
84929W        W27867  20.902   5.460  17.350 -0.1179  0.1259  0.0309
84930W        W27868  19.377   4.896  18.593  0.0132 -0.2889  0.0795
84931W        W27869  18.659   4.755  16.291 -0.0429 -0.0278 -0.0823
84932W        W27870  19.547   4.150  16.525  0.1864 -0.1583 -0.1201
84933W        W27871  20.388   6.663  19.415 -0.0013 -0.1208  0.4065
84934W        W27872  19.442   5.466  17.545 -0.0351  0.1489  0.0151
84935W        W27873  19.136   5.528  22.426  0.1326  0.0108  0.0631
84936W        W27874  17.459   3.902  20.493  0.3398 -0.1270  0.0806
84937W        W27875  21.690   5.270  21.189 -0.1841 -0.0346  0.1918
84938W        W27876  21.604   4.886  20.312 -0.1192 -0.3148  0.1422
84939W        W27877  18.611   3.116  22.171  0.5618  0.1139 -0.3026
84940W        W27878  20.878   7.450  21.993 -0.0599  0.0788  0.2092
84941W        W27879  19.000   4.136  22.752 -0.1248 -0.1455  0.0180
84942W        W27880  21.944   6.675  23.152 -0.3061  0.2052  0.2108
84943W        W27881  22.997   6.326  22.069 -0.2573  0.0044  0.0266
84944W        W27882  20.703   5.665  19.688  0.2711 -0.1135 -0.0134
84945W        W27883  19.986   5.506  23.259  0.0399 -0.2220  0.1064
84946W        W27884  19.280   5.903  22.062  0.2992 -0.4745 -0.0228
84947W        W27885  18.717   3.744  20.171 -0.3042 -0.0236  0.1367
84948W        W27886  17.519   4.505  22.551  0.1522  0.0616  0.0000
84949W        W27887  21.849   5.538  24.159 -0.1782 -0.0868 -0.0487
84950W        W27888  20.719   6.279  22.291 -0.2702  0.0086  0.4002
84951W        W27889  19.950   4.927  23.199  0.0394  0.2408 -0.1942
84952W        W27890  18.557   4.843  20.405 -0.6281 -0.0547 -0.2113
84953W        W27891  20.699   5.900  21.025 -0.0150 -0.0308 -0.0892
84954W        W27892  18.370   5.016  24.782 -0.0674  0.1517  0.4702
84955W        W27893  21.720   3.593  24.140  0.0748 -0.3675  0.0553
84956W        W27894  20.599   7.753  21.573 -0.2913 -0.0499 -0.1452
84957W        W27895  17.239   2.997  19.919  0.0469  0.2346 -0.1079
84958W        W27896  16.614   4.422  21.136  0.1686  0.4558  0.1630
84959W        W27897  19.102   5.052  22.124 -0.1705 -0.2782  0.0821
84960W        W27898  20.228   3.652  22.368  0.0999 -0.0459 -0.1472
84961W        W27899  21.904   4.923  21.023  0.0362 -0.0596  0.0061
84962W        W27900  19.401   5.669  21.626 -0.2569 -0.2227 -0.1113
84963W        W27901  21.183   7.154  20.946  0.1223 -0.4061 -0.1491
84964W        W27902  19.886   5.301  24.800 -0.1789  0.0770 -0.1846
84965W        W27903  18.167   5.636  22.275 -0.0576 -0.1821  0.0385
84966W        W27904  18.708   5.019  21.829  0.0717 -0.3995  0.0839
84967W        W27905  18.557   6.831  20.598 -0.3638  0.0486 -0.2217
84968W        W27906  21.308   5.957  20.405 -0.2226  0.0155 -0.4617
84969W        W27907  19.504   6.150  21.688  0.2078  0.1866 -0.0263
84970W        W27908  21.420   5.792  23.378 -0.1484  0.1004  0.0815
84971W        W27909  18.992   6.658  20.877  0.3701 -0.1604 -0.0874
84972W        W27910  22.208   4.297  23.857 -0.0402  0.2941 -0.1373
84973W        W27911  18.492   5.714  21.731  0.1186  0.1250  0.1691
84974W        W27912  20.359   5.138  23.395  0.1702  0.1848 -0.0255
84975W        W27913  21.333   5.892  21.900  0.3959 -0.3133 -0.0881
84976W        W27914  20.166   6.985  20.339  0.5140  0.0557  0.1709
84977W        W27915  20.217   5.674  22.873  0.2274  0.5566  0.0231
84978W        W27916  18.793   5.373  25.084  0.1336 -0.0318  0.0446
84979W        W27917  18.964   5.520  21.830 -0.1957 -0.1414  0.1098
84980W        W27918  21.897   4.789  22.494  0.0283  0.1997  0.1903
84981W        W27919  20.387   5.809  19.038  0.1293  0.1572  0.2329
84982W        W27920  20.928   5.066  20.694  0.0984 -0.3620  0.2095
84983W        W27921  19.797   5.716  19.269  0.0026  0.0943  0.1338
84984W        W27922  21.897   4.135  22.280  0.2224  0.1823 -0.0620
84985W        W27923  19.167   3.422  20.068 -0.0442 -0.1166 -0.1411
84986W        W27924  19.465   6.480  20.966  0.0821  0.2836  0.0796
84987W        W27925  20.462   5.271  22.943  0.1221  0.0231  0.4102
84988W        W27926  21.502   6.506  23.941 -0.1929  0.2447  0.1193
84989W        W27927  19.972   4.452  20.835  0.0198 -0.2103  0.0689
84990W        W27928  20.781   4.502  23.762  0.1640 -0.2453 -0.4812
84991W        W27929  18.162   5.740  20.274  0.1818 -0.2225  0.0422
84992W        W27930  20.729   4.431  22.634  0.1373 -0.0162 -0.0972
84993W        W27931  23.122   7.623  19.787  0.0024 -0.0697 -0.1439
84994W        W27932  21.876   6.641  22.209  0.2437 -0.1841 -0.0507
84995W        W27933  20.816   5.364  20.129 -0.1277  0.1617 -0.0016
84996W        W27934  19.140   4.958  19.373 -0.0196 -0.1876  0.0224
84997W        W27935  19.465   5.425  22.040 -0.3285  0.0697 -0.3021
84998W        W27936  19.357   4.012  24.077  0.2556 -0.0681 -0.3220
84999W        W27937  20.321   3.641  20.728 -0.1232  0.2069  0.1479
85000W        W27938  21.121   6.498  22.595  0.0758  0.0640 -0.2435
85001W        W27939  18.441   8.386  23.524 -0.0624 -0.0631 -0.3633
85002W        W27940  20.973   2.983  21.319 -0.1743 -0.0482 -0.1442
85003W        W27941  18.762   5.381  21.355 -0.2264  0.2925  0.3582
85004W        W27942  20.451   6.289  21.346 -0.1764 -0.2436  0.0159
85005W        W27943  22.516   6.282  20.019  0.3156  0.0784  0.3378
85006W        W27944  19.730   3.305  21.283 -0.1546  0.0403 -0.2276
85007W        W27945  20.299   4.176  24.589  0.1136 -0.2606 -0.1641
85008W        W27946  21.136   3.719  20.935 -0.0019  0.1434  0.1702
85009W        W27947  18.652   4.575  19.917 -0.2625 -0.0508 -0.1520
85010W        W27948  22.410   6.850  22.934  0.1216  0.2572 -0.0897
85011W        W27949  21.736   4.098  18.834 -0.2143 -0.1321 -0.0726
85012W        W27950  19.057   6.162  20.871  0.0332 -0.1434 -0.0534
85013W        W27951  18.991   5.401  23.179  0.0919 -0.4189  0.0848
85014W        W27952  19.432   5.445  22.865  0.0370 -0.0608 -0.1763
85015W        W27953  18.275   5.357  21.314 -0.0437 -0.0672 -0.3088
85016W        W27954  18.012   4.549  21.834 -0.0459  0.1458  0.0867
85017W        W27955  18.872   4.876  21.363  0.0826  0.0807  0.2712
85018W        W27956  18.156   3.719  21.680  0.1828 -0.0311 -0.0423
85019W        W27957  20.455   5.430  22.404  0.1206 -0.0778 -0.1299
85020W        W27958  19.737   3.852  21.496 -0.4023 -0.0900 -0.1151
85021W        W27959  18.069   4.304  22.293 -0.3646  0.0206  0.0953
85022W        W27960  19.996   5.071  20.907  0.1443  0.0900 -0.2218
85023W        W27961  18.586   5.727  20.982 -0.2077  0.2369  0.0569
85024W        W27962  21.895   6.241  21.916 -0.0661 -0.1469  0.2580
85025W        W27963  21.151   5.818  19.362  0.0435  0.0495  0.4281
85026W        W27964  22.188   7.037  20.549 -0.0208 -0.1915 -0.3095
85027W        W27965  17.444   5.865  21.471  0.0094  0.2059  0.0605
85028W        W27966  18.963   4.491  20.736  0.2943  0.3047  0.1663
85029W        W27967  17.907   5.768  24.395 -0.2204 -0.0095 -0.0473
85030W        W27968  18.424   3.604  20.883  0.2178  0.1824  0.0740
85031W        W27969  20.782   5.184  22.153  0.3665 -0.1344  0.2136
85032W        W27970  18.110   3.088  21.008 -0.3071 -0.2083  0.1276
85033W        W27971  22.264   5.840  20.977 -0.1029  0.3053  0.0626
85034W        W27972  20.721   5.046  21.656 -0.1481  0.0534 -0.1656
85035W        W27973  17.522   4.760  21.431 -0.2081 -0.0496 -0.2997
85036W        W27974  20.428   4.054  22.673 -0.1324  0.2107 -0.0762
85037W        W27975  20.635   7.027  18.426 -0.1022  0.0470 -0.2073
85038W        W27976  21.339   6.884  22.425  0.0109 -0.2585 -0.2883
85039W        W27977  22.319   6.902  22.313 -0.2357  0.1869 -0.2816
85040W        W27978  19.409   5.060  23.791  0.2916  0.2457  0.0572
85041W        W27979  19.133   4.388  20.250  0.0122 -0.0442 -0.0666
85042W        W27980  18.478   5.989  20.532 -0.3259 -0.1087 -0.0162
85043W        W27981  20.196   5.946  21.019  0.0043 -0.1204 -0.0483
85044W        W27982  19.129   3.845  21.076  0.2890  0.0469 -0.0239
85045W        W27983  20.156   7.291  22.848  0.1046  0.1940 -0.0538
85046W        W27984  20.598   6.798  21.191  0.1078 -0.1026  0.1125
85047W        W27985  19.100   4.986  20.926 -0.1107  0.0567 -0.0291
85048W        W27986  22.279   3.774  22.473  0.2695  0.3673  0.2215
85049W        W27987  22.371   6.407  23.361 -0.0154  0.3990 -0.0640
85050W        W27988  19.973   4.016  20.598  0.0211 -0.0791  0.0400
85051W        W27989  16.975   3.394  19.397 -0.0916  0.1769 -0.0586
85052W        W27990  20.918   6.762  21.559  0.1084 -0.0123 -0.0403
85053W        W27991  19.943   6.388  21.099 -0.1030 -0.0953  0.4663
85054W        W27992  17.354   5.364  19.651  0.0522  0.1929  0.1025
85055W        W27993  20.146   7.067  21.007  0.1420 -0.1637 -0.3664
85056W        W27994  20.364   4.705  20.697 -0.0682 -0.3863 -0.1668
85057W        W27995  19.779   6.452  23.021 -0.0008  0.1135  0.4438
85058W        W27996  21.186   4.587  22.843  0.1676  0.6080 -0.0996
85059W        W27997  19.912   4.095  18.881  0.3344 -0.1857  0.1952
85060W        W27998  19.540   6.205  23.360  0.2420  0.3465  0.0488
85061W        W27999  19.322   3.327  20.992 -0.2053 -0.2151 -0.0049
85062W        W28000  20.078   2.218  20.898 -0.2547  0.1413 -0.3099
85063W        W28001  19.528   4.713  23.063  0.1743 -0.0756 -0.0821
85064W        W28002  21.992   5.543  19.206  0.0105  0.0790 -0.2852
85065W        W28003  19.815   3.135  20.842  0.0673 -0.0948 -0.1411
85066W        W28004  20.429   4.350  19.852  0.2606  0.0652  0.2065
85067W        W28005  16.804   7.180  24.151 -0.0375 -0.1344 -0.4090
85068W        W28006  20.967   6.222  20.736 -0.1248  0.0452  0.0182
85069W        W28007  19.585   5.494  24.444  0.3240 -0.1011 -0.1305
85070W        W28008  19.508   3.833  20.552  0.2994  0.1397 -0.1425
85071W        W28009  22.509   6.378  20.911 -0.0944  0.0942 -0.1282
85072W        W28010  18.413   6.125  22.012  0.2357 -0.2305  0.0596
85073W        W28011  20.897   5.425  22.661 -0.0688  0.1957  0.0502
85074W        W28012  21.718   7.214  21.445 -0.1047  0.2184  0.1694
85075W        W28013  20.145   3.962  23.421  0.1297 -0.1517  0.0198
85076W        W28014  20.410   4.167  20.788  0.1231 -0.1116  0.0549
85077W        W28015  20.864   4.147  20.781  0.0662  0.1519 -0.0610
85078W        W28016  17.984   6.591  19.387 -0.4082  0.0483 -0.0913
85079W        W28017  20.348   4.412  22.255 -0.2402 -0.1671 -0.0132
85080W        W28018  22.111   3.453  22.871  0.1326  0.3152  0.0594
85081W        W28019  20.232   3.660  21.380  0.2289  0.1306  0.0582
85082W        W28020  21.203   5.660  25.048 -0.0253  0.1479 -0.3107
85083W        W28021  22.176   5.882  21.466 -0.0945  0.2425 -0.0002
85084W        W28022  21.309   5.677  21.440  0.1029  0.0980 -0.0328
85085W        W28023  19.827   5.278  19.736 -0.1430  0.0086  0.0733
85086W        W28024  18.830   3.652  22.874 -0.0839 -0.0840  0.0969
85087W        W28025  18.994   4.538  22.177 -0.3326 -0.0905 -0.1225
85088W        W28026  19.932   5.778  21.855 -0.1222 -0.3677  0.1403
85089W        W28027  20.903   6.013  23.487  0.0073 -0.1420  0.0079
85090W        W28028  21.827   5.378  20.690  0.0144 -0.2888  0.2341
85091W        W28029  19.460   4.594  22.335 -0.4243  0.1373  0.1845
85092W        W28030  21.138   3.454  19.750  0.4335 -0.2562 -0.2161
85093W        W28031  19.772   7.708  20.420 -0.1285  0.0873  0.3212
85094W        W28032  20.657   6.597  19.885  0.1226  0.0076  0.2649
85095W        W28033  19.429   4.035  22.328  0.2956  0.2698 -0.2108
85096W        W28034  20.875   6.809  22.245 -0.2481  0.0145 -0.0938
85097W        W28035  20.362   7.571  20.258  0.0877 -0.2729  0.2310
85098W        W28036  20.002   5.249  23.833 -0.1053  0.0704 -0.0497
85099W        W28037  19.044   5.182  19.814 -0.2281  0.1358 -0.1022
85100W        W28038  21.643   3.975  21.294  0.2167 -0.1129  0.3837
85101W        W28039  17.454   6.248  21.838  0.0822  0.0683 -0.2788
85102W        W28040  19.273   3.492  21.456 -0.3200 -0.4330  0.2924
85103W        W28041  18.397   4.770  21.550 -0.3208 -0.0791  0.3224
85104W        W28042  20.477   5.201  20.559  0.2225 -0.0908  0.2588
85105W        W28043  20.455   5.459  20.997  0.1699 -0.1779 -0.0805
85106W        W28044  19.395   4.472  21.789  0.0968  0.0746 -0.0069
85107W        W28045  19.959   5.280  22.761 -0.1309 -0.0981  0.0746
85108W        W28046  17.971   5.497  21.791  0.4560  0.2794 -0.4350
85109W        W28047  21.808   4.189  23.207 -0.2009  0.2693 -0.1215
85110W        W28048  20.180   3.996  20.119 -0.0050  0.0660 -0.5023
85111W        W28049  20.424   6.695  21.934 -0.3109  0.0323  0.0269
85112W        W28050  20.438   5.659  23.434  0.1372 -0.5083  0.3819
85113W        W28051  21.641   3.663  20.760  0.3030 -0.2467 -0.3311
85114W        W28052  21.718   5.555  23.077  0.1301  0.3003 -0.0968
85115W        W28053  20.495   4.908  22.506 -0.3022  0.2904 -0.2314
85116W        W28054  17.108   6.459  21.105 -0.5295  0.0394  0.1731
85117W        W28055  19.385   5.342  21.148 -0.1836 -0.2716 -0.0214
85118W        W28056  20.828   6.079  20.283  0.0466 -0.2957  0.1543
85119W        W28057  18.140   4.457  20.476  0.0315  0.2017 -0.0443
85120W        W28058  19.028   4.864  23.255 -0.3163 -0.3024 -0.1442
85121W        W28059  22.199   5.359  21.162  0.0934 -0.4059  0.2820
85122W        W28060  20.805   4.926  22.896  0.2298  0.2147 -0.0272
85123W        W28061  20.615   4.980  21.080 -0.0782 -0.0822  0.1344
85124W        W28062  21.520   4.615  21.188 -0.1701  0.1896  0.3186
85125W        W28063  19.538   5.102  22.451  0.3663 -0.0413 -0.3347
85126W        W28064  19.909   4.460  24.191  0.1217  0.0427  0.1252
85127W        W28065  18.971   7.834  25.810 -0.0126 -0.1666  0.2129
85128W        W28066  17.916   2.119  22.121  0.2022 -0.0739 -0.4227
85129W        W28067  22.904   7.644  20.256  0.2383 -0.0467 -0.1031
85130W        W28068  20.248   6.954  22.309  0.3855  0.1057  0.0346
85131W        W28069  18.881   4.475  21.705  0.0327  0.0159  0.1419
85132W        W28070  17.729   5.367  22.290 -0.2172 -0.1101  0.4269
85133W        W28071  19.153   7.629  21.161 -0.1745 -0.1872 -0.0111
85134W        W28072  19.147   5.045  22.774 -0.1465 -0.2016 -0.1940
85135W        W28073  17.560   6.030  23.577 -0.1776  0.2420  0.3708
85136W        W28074  19.895   6.170  20.605 -0.0257 -0.1350  0.2330
85137W        W28075  18.705   6.259  22.796  0.0059  0.0375 -0.0346
85138W        W28076  19.695   3.676  19.996 -0.0260 -0.2030  0.0385
85139W        W28077  21.739   7.151  20.264  0.1634 -0.2711  0.1587
85140W        W28078  19.628   4.106  21.091  0.1089  0.0319  0.0444
85141W        W28079  21.114   4.929  22.492  0.1975  0.2566  0.0770
85142W        W28080  20.656   6.083  19.388  0.0249 -0.2615 -0.2195
85143W        W28081  20.672   2.576  23.268  0.0214 -0.0853  0.0877
85144W        W28082  19.690   4.934  21.952  0.3867 -0.0776 -0.1294
85145W        W28083  20.956   5.668  20.632 -0.2429 -0.3247 -0.0422
85146W        W28084  17.912   4.800  22.380 -0.0158  0.0001 -0.0786
85147W        W28085  20.938   8.154  24.002 -0.0045 -0.1034  0.1194
85148W        W28086  17.969   5.191  23.349  0.2000  0.1100 -0.2882
85149W        W28087  20.805   3.500  20.548  0.0630 -0.0152 -0.0867
85150W        W28088  17.546   4.049  19.524  0.2779 -0.0663 -0.1456
85151W        W28089  20.056   4.154  22.955  0.1312  0.0393 -0.0092
85152W        W28090  20.997   6.348  21.292 -0.1388  0.0889  0.2208
85153W        W28091  21.355   6.836  21.300  0.0290 -0.0179 -0.0643
85154W        W28092  21.414   4.204  20.903  0.0274  0.0842 -0.0640
85155W        W28093  19.766   5.326  21.669  0.1652  0.1440  0.2647
85156W        W28094  20.534   4.574  21.734 -0.0066  0.1181  0.1746
85157W        W28095  21.033   6.299  19.683  0.2443  0.0444 -0.0261
85158W        W28096  19.294   5.105  21.599 -0.1674 -0.1742  0.1275
85159W        W28097  19.357   4.542  23.528 -0.0830  0.0812  0.1261
85160W        W28098  20.418   5.727  21.432 -0.0263 -0.1321  0.0322
85161W        W28099  20.629   4.405  21.168  0.0711 -0.1653 -0.0162
85162W        W28100  20.109   4.721  24.652  0.0903 -0.1125  0.0661
85163W        W28101  21.755   6.050  23.911 -0.0800  0.0909  0.1367
85164W        W28102  18.358   4.763  22.143 -0.2595  0.1217 -0.1672
85165W        W28103  17.589   4.882  23.482 -0.0401  0.1215  0.3740
85166W        W28104  21.753   6.981  22.721 -0.0381 -0.0160 -0.0405
85167W        W28105  22.606   4.732  20.491 -0.0690 -0.1350 -0.0590
85168W        W28106  21.165   5.624  22.265  0.3827  0.0276 -0.1224
85169W        W28107  19.683   4.188  20.197  0.2959 -0.2524  0.0087
85170W        W28108  20.089   4.965  20.327 -0.0284  0.2808  0.0930
85171W        W28109  19.789   4.902  21.373 -0.3206 -0.0573  0.2312
85172W        W28110  22.386   3.870  24.071 -0.0351  0.2519 -0.1481
85173W        W28111  19.466   4.298  20.636  0.1329  0.1454  0.0505
85174W        W28112  20.858   5.412  21.253  0.0680  0.0339 -0.1826
85175W        W28113  20.904   7.804  21.165  0.1687  0.1463  0.0679
85176W        W28114  20.453   5.881  20.509 -0.2841  0.0149 -0.0885
85177W        W28115  20.837   3.085  20.237 -0.0468  0.3320  0.0269
85178W        W28116  18.617   4.976  22.960  0.2320 -0.1418 -0.1957
85179W        W28117  18.718   6.691  21.878  0.1412 -0.0166 -0.2155
85180W        W28118  18.386   3.760  19.819  0.0336 -0.0054 -0.1298
85181W        W28119  20.192   5.366  19.020  0.0617 -0.0841 -0.0568
85182W        W28120  19.634   6.243  22.560 -0.0650  0.1455  0.0934
85183W        W28121  21.657   4.709  23.390  0.0780  0.0731 -0.3658
85184W        W28122  20.213   3.262  21.098 -0.0790 -0.0602 -0.2821
85185W        W28123  23.037   4.767  24.409  0.4845 -0.1750  0.1731
85186W        W28124  19.463   5.872  20.781 -0.4558  0.1084  0.0502
85187W        W28125  21.138   4.147  21.259 -0.1839 -0.1978 -0.1369
85188W        W28126  19.144   7.148  21.821  0.0555  0.2803 -0.4048
85189W        W28127  18.977   4.609  22.774  0.2474 -0.0384 -0.3091
85190W        W28128  19.287   6.461  22.206 -0.1489 -0.1609  0.0421
85191W        W28129  19.667   3.553  22.263  0.2445 -0.0147 -0.0141
85192W        W28130  21.904   5.563  20.196  0.1880 -0.3785 -0.1517
85193W        W28131  21.910   4.978  21.992  0.2902  0.1019 -0.1585
85194W        W28132  20.901   6.333  26.162 -0.4068 -0.0426  0.0443
85195W        W28133  20.417   4.882  23.784 -0.0895  0.2837 -0.0937
85196W        W28134  19.691   4.355  21.470 -0.3143 -0.3082  0.0676
85197W        W28135  22.002   6.488  24.128 -0.0465 -0.1790 -0.0387
85198W        W28136  21.637   5.164  19.921  0.1277 -0.1322 -0.1320
85199W        W28137  18.556   6.372  20.842  0.1873  0.0468 -0.0578
85200W        W28138  18.875   5.179  23.625  0.1049  0.3098 -0.3219
85201W        W28139  21.451   5.646  23.925  0.1333 -0.0035  0.0924
85202W        W28140  21.117   5.059  21.326 -0.3861 -0.1282 -0.1068
85203W        W28141  18.836   3.582  19.655 -0.1776  0.1606 -0.1192
85204W        W28142  20.836   7.392  20.609 -0.0318  0.2028 -0.1573
85205W        W28143  18.816   5.927  22.263 -0.2932  0.1286  0.0722
85206W        W28144  17.863   6.212  24.041  0.1420  0.4576 -0.2216
85207W        W28145  19.888   6.705  20.678  0.0008  0.0672  0.4194
85208W        W28146  21.128   5.807  19.877 -0.0083 -0.1723  0.2051
85209W        W28147  19.883   7.330  20.109  0.5037  0.1234 -0.1725
85210W        W28148  20.003   7.032  21.816 -0.1114 -0.0616 -0.3539
85211W        W28149  19.810   5.945  19.704  0.1930 -0.1967  0.2624
85212W        W28150  18.488   4.587  20.854  0.1331 -0.2905  0.5292
85213W        W28151  18.064   5.129  19.822  0.0629 -0.0848  0.3935
85214W        W28152  21.852   7.309  20.979 -0.1149  0.0399  0.0517
85215W        W28153  18.202   7.409  20.932  0.0457 -0.1574 -0.2574
85216W        W28154  21.921   6.467  23.605 -0.1452  0.3850  0.0196
85217W        W28155  20.796   3.087  19.149  0.2398 -0.0837  0.0529
85218W        W28156  23.498   5.307  21.006 -0.0771  0.2033  0.0426
85219W        W28157  20.821   3.680  20.050  0.0387  0.0027 -0.1207
85220W        W28158  22.524   6.178  24.303 -0.0233 -0.0058 -0.2256
85221W        W28159  20.517   3.688  21.883 -0.1482 -0.2231  0.0568
85222W        W28160  19.594   1.906  19.629 -0.3308  0.2797  0.0811
85223W        W28161  18.750   4.334  21.262 -0.1197 -0.0542 -0.3155
85224W        W28162  21.029   3.851  23.176 -0.3684 -0.0670 -0.1627
85225W        W28163  18.784   6.443  22.316  0.1252 -0.6215  0.1831
85226W        W28164  22.543   7.360  22.560  0.1766 -0.0603  0.0188
85227W        W28165  18.970   4.069  22.137 -0.0691  0.1040  0.0382
85228W        W28166  18.851   2.914  20.347  0.3284 -0.2565 -0.0005
85229W        W28167  21.244   3.310  23.910 -0.1795 -0.1967 -0.0729
85230W        W28168  21.250   7.861  20.125 -0.0594  0.1379 -0.2438
85231W        W28169  20.022   3.670  21.865 -0.3157  0.1089 -0.1119
85232W        W28170  20.222   7.745  21.210 -0.0217  0.2109  0.0714
85233W        W28171  19.650   6.639  21.471 -0.0126 -0.2428 -0.0846
85234W        W28172  19.969   5.395  22.204  0.1055 -0.1262  0.1951
85235W        W28173  16.935   3.711  19.751  0.0174  0.0299 -0.0297
85236W        W28174  22.225   4.630  20.877 -0.2326 -0.0021 -0.1190
85237W        W28175  19.496   4.279  22.768  0.0717 -0.0468 -0.1153
85238W        W28176  19.631   3.132  23.199  0.1926  0.2219  0.1859
85239W        W28177  20.001   4.527  21.858 -0.0978  0.0572  0.2334
85240W        W28178  20.738   3.228  20.978  0.0889 -0.0366  0.5270
85241W        W28179  20.302   5.447  21.877  0.2733 -0.0120  0.0018
85242W        W28180  19.557   4.781  20.891 -0.0031  0.0392  0.1735
85243W        W28181  18.940   3.841  20.592 -0.0001 -0.2585  0.1386
85244W        W28182  20.878   5.915  21.585  0.0219  0.3250 -0.2513
85245W        W28183  19.613   3.162  19.988  0.2547  0.0165 -0.1694
85246W        W28184  20.755   6.441  23.295 -0.0659 -0.1440  0.0963
85247W        W28185  18.591   4.331  20.369 -0.1726  0.2277  0.0265
85248W        W28186  20.603   3.767  21.050 -0.2934  0.0234 -0.0026
85249W        W28187  17.924   5.991  21.889  0.3686  0.0386  0.1925
85250W        W28188  21.276   5.407  20.936  0.1197 -0.0941  0.2951
85251W        W28189  22.155   7.344  22.917 -0.1770  0.0570 -0.2273
85252W        W28190  17.873   4.064  21.844  0.0636  0.1254 -0.1097
85253W        W28191  21.212   4.136  19.940  0.2597  0.0611 -0.0139
85254W        W28192  20.844   5.226  23.272  0.0232  0.0815  0.0096
85255W        W28193  19.170   8.120  19.494  0.1892 -0.0330  0.0036
85256W        W28194  20.273   5.167  21.487  0.2120  0.3123 -0.1758
85257W        W28195  21.441   7.278  22.164  0.0299 -0.1756  0.1118
85258W        W28196  18.624   5.419  20.487 -0.0490  0.2442  0.2096
85259W        W28197  20.969   6.351  21.844 -0.1182  0.1165  0.0269
85260W        W28198  22.226   6.057  22.875  0.0943  0.1103  0.0759
85261W        W28199  19.199   2.720  21.843  0.0749  0.2069  0.2820
85262W        W28200  18.574   3.443  21.827  0.1837  0.1221 -0.0017
85263W        W28201  17.685   7.022  21.769  0.1203  0.0941 -0.0524
85264W        W28202  20.986   4.621  21.509 -0.0853 -0.1873  0.1978
85265W        W28203  20.270   4.661  22.895 -0.0183 -0.0391 -0.1867
85266W        W28204  20.838   7.586  19.927 -0.0576  0.2596  0.2078
85267W        W28205  20.594   4.778  24.677 -0.3607  0.2480  0.1549
85268W        W28206  19.891   6.554  21.934 -0.1122 -0.0058  0.0905
85269W        W28207  19.541   6.924  22.061 -0.1828  0.2629 -0.0089
85270W        W28208  18.195   4.178  19.946 -0.2775 -0.0835 -0.2646
85271W        W28209  20.896   4.816  24.187  0.0590 -0.1844  0.2174
85272W        W28210  18.145   4.912  20.820  0.0747 -0.0616 -0.0655
85273W        W28211  19.794   7.510  21.147 -0.0999 -0.0016 -0.1693
85274W        W28212  20.972   5.457  21.779  0.2910 -0.1091 -0.0242
85275W        W28213  18.010   3.569  20.174  0.0730 -0.0263  0.1772
85276W        W28214  21.952   6.029  23.353  0.0403 -0.0875 -0.0686
85277W        W28215  19.247   4.060  21.535  0.0071 -0.1231 -0.2437
85278W        W28216  21.368   3.278  20.250  0.0604 -0.0210 -0.1545
85279W        W28217  21.511   2.568  19.513 -0.1880 -0.0426  0.2499
85280W        W28218  17.704   5.168  21.094  0.0327  0.0862  0.1831
85281W        W28219  17.699   4.458  19.805 -0.0607  0.1344 -0.1723
85282W        W28220  19.642   5.904  21.211 -0.2555  0.3202  0.0981
85283W        W28221  20.209   4.970  22.019 -0.2383 -0.0851  0.1886
85284W        W28222  20.238   3.983  24.033  0.3236  0.3152 -0.1326
85285W        W28223  18.309   4.211  23.471 -0.1868 -0.3628  0.1323
85286W        W28224  19.940   4.072  22.506  0.1975 -0.1977 -0.1719
85287W        W28225  17.470   3.408  19.544  0.0083 -0.2052 -0.1646
85288W        W28226  20.336   5.533  19.993 -0.2592 -0.2369  0.1311
85289W        W28227  19.291   3.910  23.571 -0.2000  0.1831  0.1367
85290W        W28228  17.561   4.746  20.940  0.2508 -0.1253 -0.3436
85291W        W28229  21.400   5.368  20.325  0.2772  0.4345  0.1696
85292W        W28230  20.066   5.532  20.653  0.0190 -0.0820  0.2503
85293W        W28231  20.221   4.634  21.301 -0.1923 -0.0348  0.3224
85294W        W28232  22.790   6.441  23.704  0.3342 -0.2446 -0.1840
85295W        W28233  18.664   5.402  22.305  0.0287  0.0364  0.1443
85296W        W28234  20.794   5.297  24.320  0.1315  0.3247 -0.4712
85297W        W28235  18.265   3.840  23.126 -0.3289  0.0887 -0.1350
85298W        W28236  16.491   2.513  19.779 -0.0450 -0.1703 -0.1194
85299W        W28237  20.548   3.756  23.107  0.0072  0.0292  0.0984
85300W        W28238  20.427   6.372  20.826  0.3636  0.0353  0.0764
85301W        W28239  21.837   7.677  21.556  0.0737 -0.0023 -0.3583
85302W        W28240  21.343   5.240  23.494  0.1744 -0.0149  0.2739
85303W        W28241  21.400   6.360  24.403 -0.2683 -0.0616 -0.0781
85304W        W28242  18.464   2.759  21.405 -0.0523  0.0120  0.2757
85305W        W28243  19.427   5.172  20.095 -0.3746  0.1665  0.1449
85306W        W28244  17.252   5.406  22.680 -0.1733 -0.2200 -0.2038
85307W        W28245  22.468   5.560  20.089 -0.0719 -0.0535  0.2181
85308W        W28246  21.179   4.154  22.418  0.1191  0.0752  0.2368
85309W        W28247  19.965   4.836  22.429 -0.1545  0.1719 -0.1222
85310W        W28248  18.044   3.400  22.986  0.0782 -0.0854 -0.1799
85311W        W28249  19.188   6.056  22.579  0.1048 -0.2565  0.2376
85312W        W28250  22.557   6.285  22.408  0.3472  0.1775 -0.0653
85313W        W28251  19.767   4.082  21.974 -0.0920  0.0933  0.0905
85314W        W28252  20.596   3.750  19.575 -0.2330 -0.2442 -0.1148
85315W        W28253  21.505   6.183  19.089  0.1225  0.0062 -0.2201
85316W        W28254  17.943   6.078  22.459  0.1435  0.1088 -0.0168
85317W        W28255  19.193   4.671  19.852 -0.0554  0.2102 -0.2954
85318W        W28256  18.306   5.867  22.764  0.1041  0.0905 -0.1667
85319W        W28257  20.634   6.541  22.782  0.0472  0.0759 -0.1090
85320W        W28258  20.236   6.425  22.303 -0.0842 -0.1286 -0.0205
85321W        W28259  19.431   5.305  20.600 -0.1628  0.0393 -0.1391
85322W        W28260  20.614   4.927  20.227 -0.1160  0.0458 -0.0838
85323W        W28261  20.553   7.805  25.286 -0.2557  0.0326 -0.0120
85324W        W28262  21.599   5.869  24.897 -0.2068  0.0274 -0.0492
85325W        W28263  19.582   7.134  22.778 -0.1400 -0.0149  0.1189
85326W        W28264  20.988   4.698  21.014 -0.0989 -0.0670  0.0975
85327W        W28265  18.571   2.727  22.611 -0.1397  0.2017  0.2556
85328W        W28266  20.121   4.095  21.150  0.1031 -0.0959  0.3107
85329W        W28267  19.903   5.483  21.112 -0.1721  0.2968 -0.1213
85330W        W28268  19.718   3.766  22.779 -0.1753 -0.0055 -0.0134
85331W        W28269  20.236   4.102  21.694  0.1819 -0.0707  0.0929
85332W        W28270  20.313   2.520  20.209  0.0301 -0.0672  0.1012
85333W        W28271  20.438   6.150  21.896 -0.0034 -0.0916 -0.2917
85334W        W28272  21.614   6.032  22.950  0.3908 -0.0653 -0.1857
85335W        W28273  18.631   6.324  26.567 -0.3154  0.2314 -0.0713
85336W        W28274  18.582   5.961  23.188  0.0291  0.0234 -0.3407
85337W        W28275  20.894   3.448  24.277 -0.0477  0.3926  0.0169
85338W        W28276  20.506   4.888  25.377 -0.3765 -0.0548  0.1601
85339W        W28277  18.415   5.652  25.575 -0.1455  0.2992  0.1476
85340W        W28278  22.074   8.759  23.944 -0.1810 -0.1088  0.0750
85341W        W28279  18.478   5.204  25.979 -0.1830 -0.4278  0.0025
85342W        W28280  20.777   5.603  24.792  0.1693  0.0911 -0.2331
85343W        W28281  21.906   7.914  26.062  0.1459  0.0134 -0.0057
85344W        W28282  20.399   5.512  23.950 -0.0118 -0.1443 -0.1057
85345W        W28283  21.268   5.689  25.595 -0.0532  0.1802  0.3156
85346W        W28284  19.676   8.627  26.847  0.0879  0.0694  0.0914
85347W        W28285  19.869   4.794  23.785  0.3437 -0.1796 -0.0890
85348W        W28286  17.439   4.563  25.763 -0.2314 -0.5168 -0.2171
85349W        W28287  19.427   4.549  26.917 -0.2858  0.1934 -0.0495
85350W        W28288  21.210   6.067  23.834  0.1217 -0.0453 -0.3840
85351W        W28289  17.852   4.757  26.341  0.0248  0.0894 -0.2455
85352W        W28290  19.408   5.838  25.669 -0.1383 -0.1346  0.1036
85353W        W28291  21.082   5.411  26.535 -0.0495  0.0803 -0.0180
85354W        W28292  18.741   4.744  26.132  0.0489 -0.0240 -0.1155
85355W        W28293  18.212   4.523  26.697 -0.2102 -0.0204  0.0574
85356W        W28294  19.678   5.895  22.969 -0.1028  0.0937  0.0405
85357W        W28295  18.283   5.141  22.604 -0.0341  0.2253  0.0017
85358W        W28296  17.060   5.945  24.900  0.0988  0.0958 -0.0658
85359W        W28297  18.941   6.040  25.579  0.0122 -0.1552  0.1614
85360W        W28298  19.918   5.521  25.304 -0.2609 -0.1108 -0.1035
85361W        W28299  22.302   4.869  24.100  0.0979 -0.0688  0.3107
85362W        W28300  21.038   7.406  26.339 -0.0168  0.3567 -0.0144
85363W        W28301  20.463   7.516  24.525 -0.1334 -0.2698  0.3106
85364W        W28302  19.731   4.457  27.566 -0.3314  0.0107 -0.1618
85365W        W28303  18.224   6.867  25.393 -0.3268  0.0999  0.2419
85366W        W28304  19.213   7.304  24.322  0.1127 -0.1289 -0.0008
85367W        W28305  19.532   7.891  23.683 -0.0976  0.0200  0.1493
85368W        W28306  21.603   6.896  24.812 -0.1659 -0.3208 -0.0279
85369W        W28307  21.047   7.066  27.882 -0.1233  0.1203 -0.0545
85370W        W28308  18.768   8.513  27.199 -0.0932  0.0035  0.0894
85371W        W28309  18.067   7.213  25.934 -0.4469 -0.1913  0.0904
85372W        W28310  21.705   7.359  26.893 -0.1495  0.2864 -0.1511
85373W        W28311  20.089   6.616  26.520  0.2594  0.0988 -0.1905
85374W        W28312  20.778   5.882  27.107  0.2447 -0.2960 -0.5140
85375W        W28313  20.175   5.994  24.597 -0.0518  0.1417 -0.1675
85376W        W28314  19.338   6.848  22.492  0.1441  0.0688  0.2245
85377W        W28315  19.465   5.405  26.539 -0.1792 -0.2613 -0.1887
85378W        W28316  19.592   6.489  26.609 -0.0077  0.0682 -0.0458
85379W        W28317  18.088   6.334  26.669 -0.0998 -0.2123 -0.1543
85380W        W28318  21.198   6.310  27.523  0.2184  0.1128  0.0657
85381W        W28319  20.204   5.852  22.255  0.0724 -0.1905 -0.2928
85382W        W28320  20.573   4.443  25.109 -0.0010 -0.0695  0.4170
85383W        W28321  18.721   4.928  22.447 -0.2456 -0.1475  0.0928
85384W        W28322  19.635   5.062  25.135  0.1295  0.0212 -0.4042
85385W        W28323  19.211   3.962  25.587 -0.1250  0.2182 -0.1776
85386W        W28324  19.338   6.846  26.287 -0.0283  0.0464 -0.2550
85387W        W28325  18.501   4.977  23.979 -0.2137  0.0451  0.2942
85388W        W28326  20.980   6.414  27.024  0.2273 -0.0262 -0.0189
85389W        W28327  19.939   6.279  23.631  0.1235  0.1065 -0.1369
85390W        W28328  19.251   4.288  26.004  0.0828  0.0484 -0.0694
85391W        W28329  20.361   6.541  25.139 -0.0498  0.2228  0.0382
85392W        W28330  19.055   4.816  26.763  0.0327  0.0194  0.2395
85393W        W28331  21.119   6.189  23.041  0.4204  0.1589  0.1219
85394W        W28332  21.064   6.149  25.704 -0.2100 -0.1660 -0.2469
85395W        W28333  20.998   7.722  24.554  0.0071  0.1792  0.0471
85396W        W28334  20.134   6.086  25.365  0.3800 -0.0534  0.2309
85397W        W28335  18.634   5.030  27.713 -0.0459  0.2018 -0.1867
85398W        W28336  18.871   6.072  27.250  0.2345 -0.0596 -0.0766
85399W        W28337  19.104   3.740  25.161 -0.1077  0.2433 -0.0691
85400W        W28338  20.881   7.132  27.418 -0.0673  0.1442 -0.0996
85401W        W28339  19.146   6.532  26.843 -0.3194  0.2025 -0.0756
85402W        W28340  21.837   3.811  24.654  0.1053  0.0631  0.2287
85403W        W28341  19.173   6.250  26.442  0.1159 -0.0298  0.1904
85404W        W28342  22.071   6.980  24.610  0.0015  0.0501 -0.0934
85405W        W28343  22.536   3.856  23.593  0.1567 -0.0615 -0.2705
85406W        W28344  20.069   4.395  25.396  0.0641 -0.1818 -0.1139
85407W        W28345  22.339   5.203  25.954  0.4020 -0.4197 -0.3493
85408W        W28346  20.153   6.144  22.716 -0.1563  0.2003 -0.1496
85409W        W28347  19.104   5.390  24.068  0.0333  0.1310  0.0987
85410W        W28348  23.030   6.159  26.247 -0.0219 -0.4218  0.1179
85411W        W28349  21.066   4.793  25.087 -0.2365  0.1415  0.0708
85412W        W28350  20.177   6.161  26.380 -0.1562  0.2993  0.0080
85413W        W28351  20.084   5.667  26.646 -0.0441  0.1463  0.2104
85414W        W28352  20.351   7.091  27.339  0.0835 -0.0757  0.0880
85415W        W28353  18.939   7.118  24.719 -0.0105 -0.2473 -0.1094
85416W        W28354  18.586   6.099  26.128  0.2075  0.2360 -0.3375
85417W        W28355  18.937   6.201  21.819 -0.2040 -0.1045  0.1334
85418W        W28356  19.415   3.906  28.212  0.2070 -0.1451 -0.0266
85419W        W28357  20.033   6.915  25.413  0.2500 -0.1872 -0.1032
85420W        W28358  22.221   4.793  23.578 -0.0901 -0.3679 -0.0917
85421W        W28359  19.376   3.974  26.928 -0.0891  0.0684  0.0329
85422W        W28360  21.595   4.889  25.422  0.0682  0.3546 -0.1127
85423W        W28361  19.189   6.428  24.190  0.0800 -0.0659  0.0572
85424W        W28362  20.629   7.426  24.984 -0.1051 -0.4484  0.0917
85425W        W28363  20.873   3.921  24.683  0.1498  0.1058  0.0079
85426W        W28364  20.414   6.157  23.628 -0.0930  0.2611  0.0774
85427W        W28365  18.109   6.190  26.160 -0.0770 -0.0323 -0.2981
85428W        W28366  19.006   5.369  26.728  0.1167  0.3926 -0.0080
85429W        W28367  19.311   5.419  27.109 -0.0633  0.0897  0.1415
85430W        W28368  19.093   4.774  27.258 -0.0694 -0.3208 -0.3141
85431W        W28369  20.911   5.192  27.778  0.0117 -0.0784  0.1756
85432W        W28370  17.931   4.442  25.498 -0.0703  0.1871 -0.1717
85433W        W28371  21.866   5.027  26.062 -0.1655 -0.0465 -0.1026
85434W        W28372  19.092   5.946  23.078  0.2731  0.0057  0.0346
85435W        W28373  18.771   6.117  24.543 -0.2282 -0.1264  0.0187
85436W        W28374  19.867   4.108  27.131  0.3607  0.0450  0.1134
85437W        W28375  20.216   7.633  24.107  0.2120  0.0674  0.1582
85438W        W28376  21.749   7.773  25.492  0.0990  0.1212  0.0628
85439W        W28377  21.496   8.153  25.237 -0.2450  0.2008 -0.1127
85440W        W28378  18.991   3.501  27.568  0.1965 -0.3095 -0.1079
85441W        W28379  19.593   4.620  25.396  0.0755  0.3733 -0.0918
85442W        W28380  20.386   7.029  24.700 -0.2318  0.1579 -0.3145
85443W        W28381  20.336   6.273  24.152 -0.2416  0.2551 -0.0893
85444W        W28382  19.443   4.526  24.048 -0.1932  0.0767 -0.0615
85445W        W28383  22.455   7.855  24.993  0.2011  0.2782 -0.1476
85446W        W28384  20.435   5.208  24.779  0.2620 -0.0124 -0.1117
85447W        W28385  19.154   5.847  28.041 -0.1285 -0.0383  0.2269
85448W        W28386  20.371   3.958  27.244 -0.1845 -0.1594  0.2399
85449W        W28387  20.385   5.561  28.665  0.3245  0.0398 -0.0519
85450W        W28388  19.862   6.371  25.032  0.0330  0.0435 -0.1855
85451W        W28389  19.017   4.562  24.343  0.4137  0.2309 -0.0733
85452W        W28390  20.662   6.665  24.350 -0.1056  0.1760 -0.0639
85453W        W28391  20.208   6.560  24.663 -0.1664 -0.0166  0.1456
85454W        W28392  18.653   6.889  23.721  0.0144  0.0605  0.0654
85455W        W28393  19.983   7.201  24.002 -0.0211 -0.1430  0.0412
85456W        W28394  21.462   4.465  25.218  0.0933 -0.1276 -0.1927
85457W        W28395  17.216   6.050  27.565  0.0679 -0.2613 -0.2004
85458W        W28396  20.608   4.803  27.405  0.0166 -0.4100  0.1315
85459W        W28397  19.597   6.005  25.252 -0.3571  0.0843 -0.1176
85460W        W28398  19.713   5.943  27.976 -0.0232  0.2745  0.2759
85461W        W28399  20.046   3.947  25.109  0.1561 -0.1623 -0.1079
85462W        W28400  21.332   4.151  23.002 -0.3256  0.1468 -0.0746
85463W        W28401  21.448   6.399  28.555 -0.3722 -0.1039  0.0162
85464W        W28402  22.462   4.942  24.647  0.2930 -0.4125  0.0563
85465W        W28403  19.262   5.340  25.931  0.0128  0.1268 -0.0536
85466W        W28404  20.547   4.731  23.293  0.0043 -0.0434  0.1979
85467W        W28405  17.018   6.030  26.844 -0.1429 -0.2063  0.1710
85468W        W28406  21.584   7.331  25.149  0.1926 -0.2993  0.0507
85469W        W28407  21.371   7.365  27.335  0.2310  0.0335 -0.1797
85470W        W28408  20.063   5.525  24.414  0.2053 -0.2165 -0.2962
85471W        W28409  21.852   6.365  24.617 -0.1609 -0.1607 -0.1860
85472W        W28410  17.740   5.422  27.055  0.0600  0.1041 -0.1938
85473W        W28411  21.529   7.114  27.810 -0.0321  0.2220  0.2489
85474W        W28412  21.380   8.215  24.447  0.3626  0.2468  0.1648
85475W        W28413  19.512   4.717  26.403  0.2170 -0.0677  0.0714
85476W        W28414  19.173   5.056  25.354 -0.2581  0.0985 -0.1193
85477W        W28415  18.638   4.657  24.563 -0.2636 -0.0530 -0.2463
85478W        W28416  18.890   6.692  23.268  0.1006 -0.0468  0.0840
85479W        W28417  21.032   4.206  25.092  0.0183  0.0266  0.0021
85480W        W28418  20.217   5.673  26.167  0.1822  0.0423  0.0011
85481W        W28419  20.005   4.635  26.406 -0.0649  0.1756 -0.0192
85482W        W28420  23.413   6.471  28.207  0.1635 -0.1508  0.1206
85483W        W28421  21.241   4.619  26.397  0.4905  0.2121 -0.1594
85484W        W28422  19.588   5.918  26.526 -0.0924 -0.0905 -0.0805
85485W        W28423  20.289   5.034  24.219  0.0464  0.0170  0.4772
85486W        W28424  17.480   4.037  26.931 -0.2290  0.2350 -0.3217
85487W        W28425  17.607   4.577  26.766  0.0926 -0.1745 -0.2501
85488W        W28426  19.202   7.054  25.873 -0.1578 -0.1232  0.0022
85489W        W28427  20.613   6.939  25.722  0.0169  0.1257  0.0798
85490W        W28428  20.996   6.617  25.257  0.1519  0.1712  0.3793
85491W        W28429  20.866   3.876  27.542  0.0109  0.2006  0.3853
85492W        W28430  19.731   4.696  25.925  0.1049  0.2016  0.0486
85493W        W28431  20.002   7.417  24.689 -0.1467  0.1694 -0.2802
85494W        W28432  17.931   6.551  24.410  0.0021  0.2839 -0.2304
85495W        W28433  19.743   3.832  26.473  0.2174  0.0676 -0.1166
85496W        W28434  21.184   8.139  26.839  0.1443 -0.0319 -0.4414
85497W        W28435  20.703   5.762  22.108 -0.4959 -0.1898  0.1492
85498W        W28436  19.839   6.867  25.987  0.2548 -0.0574 -0.1630
85499W        W28437  19.037   7.422  25.601  0.1795  0.1584  0.0508
85500W        W28438  19.781   4.260  26.687 -0.1239  0.0750  0.3086
85501W        W28439  19.311   6.481  25.259  0.0541 -0.2472 -0.0766
85502W        W28440  18.953   5.751  23.661 -0.2464  0.0430 -0.1913
85503W        W28441  16.920   6.446  25.354 -0.0873  0.3793  0.1026
85504W        W28442  22.014   5.154  25.491  0.1153  0.5190 -0.3775
85505W        W28443  22.126   5.549  25.225  0.1479  0.0991  0.2051
85506W        W28444  17.194   5.200  26.226  0.0451 -0.0208  0.1979
85507W        W28445  18.961   4.228  24.783 -0.0970  0.3101 -0.0242
85508W        W28446  20.658   7.248  26.560  0.1772  0.4099 -0.0342
85509W        W28447  19.902   5.270  27.921 -0.0972  0.4175  0.0929
85510W        W28448  21.037   5.718  24.263  0.0329  0.0671  0.1986
85511W        W28449  20.995   6.086  26.617 -0.1888  0.0264 -0.5443
85512W        W28450  18.671   5.907  27.740 -0.1466  0.1120 -0.0445
85513W        W28451  19.612   5.498  23.917 -0.1007 -0.0306  0.0748
85514W        W28452  22.779   6.140  27.090 -0.0533  0.1726 -0.0385
85515W        W28453  19.486   6.218  25.965  0.2865 -0.1605  0.0962
85516W        W28454  19.691   6.507  23.994 -0.0263  0.2377  0.0677
85517W        W28455  21.227   6.798  27.545 -0.0380  0.0940 -0.0208
85518W        W28456  18.884   6.048  24.038  0.3122 -0.2899 -0.0208
85519W        W28457  21.099   7.045  25.462  0.0607  0.0595 -0.2246
85520W        W28458  18.632   4.081  26.333 -0.1177  0.1073 -0.1272
85521W        W28459  20.455   6.853  26.887 -0.0520  0.0160 -0.2358
85522W        W28460  18.120   4.855  25.924 -0.2892  0.0795 -0.0145
85523W        W28461  17.761   5.977  26.423  0.2329  0.1414  0.0391
85524W        W28462  19.651   5.179  25.633  0.0102  0.0681 -0.0125
85525W        W28463  22.160   7.042  25.997 -0.0811 -0.0289 -0.0234
85526W        W28464  19.583   4.887  27.315 -0.0624 -0.2575 -0.0572
85527W        W28465  18.992   7.180  27.140 -0.1828 -0.0847  0.0011
85528W        W28466  19.962   4.701  26.996 -0.1134  0.1304  0.0609
85529W        W28467  21.494   6.438  24.945 -0.1990  0.2001 -0.0459
85530W        W28468  19.335   4.682  28.325 -0.3330  0.0099 -0.2352
85531W        W28469  20.341   6.721  23.728 -0.2311 -0.0024 -0.2924
85532W        W28470  18.746   5.664  25.970  0.0008 -0.3366  0.1192
85533W        W28471  20.926   6.248  24.317  0.1976  0.1475  0.0109
85534W        W28472  19.590   5.026  26.825  0.3881 -0.0349 -0.4584
85535W        W28473  19.193   8.625  27.498  0.1091 -0.0014  0.0197
85536W        W28474  18.947   6.948  25.248  0.1946  0.4113  0.1183
85537W        W28475  19.574   6.887  25.285 -0.0474  0.2249 -0.3078
85538W        W28476  20.551   3.953  25.134 -0.0230 -0.0265 -0.1033
85539W        W28477  20.080   4.949  25.088  0.0055 -0.0306  0.0821
85540W        W28478  19.658   6.551  25.619 -0.3806 -0.0331 -0.2822
85541W        W28479  22.318   5.264  27.182 -0.0531  0.2270 -0.0220
85542W        W28480  21.709   5.118  23.872  0.0989 -0.1741  0.1844
85543W        W28481  21.091   5.444  27.070 -0.0709 -0.1425 -0.4673
85544W        W28482  18.498   4.521  25.759  0.1915 -0.0298  0.1985
85545W        W28483  21.326   6.094  25.245  0.0385  0.1069 -0.2744
85546W        W28484  17.680   4.664  25.051  0.0413 -0.0693  0.4648
85547W        W28485  22.235   7.466  26.818 -0.4229  0.1730 -0.1170
85548W        W28486  18.825   6.224  28.117 -0.1268 -0.2878 -0.0427
85549W        W28487  20.382   5.382  25.370 -0.0233 -0.0944  0.0382
85550W        W28488  17.826   5.584  22.874  0.0234 -0.1254 -0.2573
85551W        W28489  20.258   6.552  27.472 -0.1375  0.3853  0.1202
85552W        W28490  21.334   7.516  25.579  0.0518  0.3889 -0.1121
85553W        W28491  22.087   5.915  24.440 -0.1216 -0.2616  0.1193
85554W        W28492  20.463   4.930  26.666  0.1291 -0.0998 -0.2117
85555W        W28493  18.294   5.826  26.506 -0.0883  0.2581  0.3060
85556W        W28494  20.817   5.571  25.448  0.2135 -0.1507 -0.0220
85557W        W28495  19.872   5.940  24.138  0.0973 -0.0123 -0.3324
85558W        W28496  20.636   6.148  24.704 -0.0922  0.2674  0.0679
85559W        W28497  18.088   3.907  26.990 -0.0015  0.0189 -0.1786
85560W        W28498  21.231   6.872  27.087  0.0720 -0.2454  0.0914
85561W        W28499  20.538   5.250  25.806  0.2534 -0.0288  0.0513
85562W        W28500  20.945   4.060  26.442 -0.2000 -0.1740  0.0133
85563W        W28501  21.483   7.236  26.412  0.0851 -0.0494  0.2744
85564W        W28502  19.424   5.812  27.447  0.0825  0.3303 -0.0123
85565W        W28503  18.380   3.591  27.361  0.0717 -0.1919 -0.1432
85566W        W28504  21.983   6.890  27.739 -0.0348  0.0025 -0.0312
85567W        W28505  21.789   4.069  23.739  0.2531  0.0357 -0.1674
85568W        W28506  22.760   6.222  28.396 -0.3994 -0.2963 -0.1206
85569W        W28507  21.181   5.023  24.545  0.1924 -0.0153  0.2053
85570W        W28508  19.795   5.095  24.302 -0.2525  0.2891 -0.3335
85571W        W28509  18.932   4.482  25.426 -0.3847 -0.0186  0.2691
85572W        W28510  20.083   4.971  27.532 -0.0006 -0.1444  0.2926
85573W        W28511  18.977   4.774  23.847  0.2078  0.0162  0.0670
85574W        W28512  21.488   4.096  26.528  0.0773  0.2745 -0.0028
85575W        W28513  19.150   5.908  25.088 -0.1271 -0.2224  0.1152
85576W        W28514  20.581   6.465  26.539 -0.0952  0.0552 -0.3248
85577W        W28515  20.904   5.560  23.650 -0.4773 -0.1902 -0.2598
85578W        W28516  17.959   5.895  25.676 -0.0326  0.0184 -0.0235
85579W        W28517  20.786   7.738  26.738 -0.1762 -0.3093 -0.2630
85580W        W28518  17.524   5.612  24.780 -0.7514  0.2018 -0.0127
85581W        W28519  20.432   4.509  24.203  0.1345 -0.1974 -0.3056
85582W        W28520  20.661   5.375  26.276 -0.0135 -0.2862  0.2188
85583W        W28521  22.392   5.096  28.178  0.1819 -0.1066 -0.1984
85584W        W28522  21.326   3.760  23.681  0.0297 -0.0830  0.0571
85585W        W28523  22.056   5.521  26.836 -0.1505 -0.1714  0.1068
85586W        W28524  18.378   7.320  24.139  0.2022  0.1561 -0.1601
85587W        W28525  20.334   4.422  26.937 -0.3108  0.1946 -0.1741
85588W        W28526  17.675   5.821  25.252  0.3171  0.2397 -0.1467
85589W        W28527  18.427   6.075  27.007 -0.0495 -0.1454  0.2460
85590W        W28528  20.147   7.238  25.821 -0.1919 -0.0620 -0.1399
85591W        W28529  20.912   4.376  26.064  0.0677 -0.0673  0.1476
85592W        W28530  21.328   5.670  26.138  0.2009 -0.3076  0.2335
85593W        W28531  19.711   5.609  26.133 -0.2015 -0.0115 -0.1790
85594W        W28532  20.559   5.399  26.858 -0.1667 -0.0595 -0.1477
85595W        W28533  20.661   6.946  25.210  0.1542  0.2994 -0.1139
85596W        W28534  18.958   5.434  25.535  0.3602 -0.2765 -0.0193
85597W        W28535  21.560   8.164  26.520 -0.0559 -0.1499 -0.3459
85598W        W28536  21.579   5.971  25.819 -0.2047 -0.0719  0.2074
85599W        W28537  20.376   6.540  26.050 -0.3219  0.2901  0.0260
85600W        W28538  17.155   4.357  26.669  0.2458  0.1312  0.1485
85601W        W28539  18.810   6.680  27.274  0.0134 -0.3228 -0.0203
85602W        W28540  20.071   5.440  25.764 -0.1693 -0.0387  0.2368
85603W        W28541  18.577   3.804  24.929 -0.0821  0.2247 -0.0017
85604W        W28542  20.090   6.016  23.234  0.2122 -0.0843  0.0774
85605W        W28543  20.609   7.466  27.664 -0.2127  0.0763  0.0925
85606W        W28544  17.219   6.415  28.011  0.1629  0.1756  0.1309
85607W        W28545  18.877   6.648  24.739 -0.0649  0.0526 -0.2543
85608W        W28546  20.867   5.040  23.725  0.1611 -0.0411  0.0131
85609W        W28547  20.316   5.691  24.928 -0.0701  0.1896 -0.0660
85610W        W28548  20.080   7.425  26.255  0.1435 -0.1792 -0.1153
85611W        W28549  19.260   5.792  24.234  0.0569  0.0279  0.6107
85612W        W28550  18.825   6.364  25.238  0.2528  0.0129 -0.1813
85613W        W28551  18.289   7.924  23.728 -0.0601 -0.1155  0.1459
85614W        W28552  21.397   6.687  22.983 -0.1890  0.0052  0.0696
85615W        W28553  20.759   6.041  25.218  0.0070 -0.0053  0.3157
85616W        W28554  20.170   6.928  28.334  0.1978  0.0326  0.1814
85617W        W28555  20.629   4.008  23.483 -0.2077 -0.2699 -0.3554
85618W        W28556  20.408   6.202  26.899  0.3688 -0.0922  0.1534
85619W        W28557  21.974   4.662  24.496  0.1004 -0.0008  0.0837
85620W        W28558  20.070   8.312  27.095  0.3013 -0.0941 -0.1007
85621W        W28559  18.356   4.041  25.835  0.1645 -0.1867 -0.2633
85622W        W28560  18.551   4.474  24.069  0.0449  0.0456 -0.0806
85623W        W28561  18.161   5.146  27.320  0.1437 -0.0310  0.2902
85624W        W28562  21.663   4.746  26.677 -0.1262  0.0729 -0.5537
85625W        W28563  19.482   6.897  26.859 -0.4016  0.0119 -0.4491
85626W        W28564  20.887   7.305  23.314  0.0671  0.2078 -0.0803
85627W        W28565  18.426   5.674  24.672 -0.0744 -0.1411  0.0583
85628W        W28566  18.400   5.127  25.460  0.3479 -0.2067 -0.0601
85629W        W28567  22.049   2.982  27.568 -0.0902 -0.3821 -0.1574
85630W        W28568  20.825   5.225  25.094 -0.0095 -0.2775 -0.0158
85631W        W28569  20.173   5.249  27.120 -0.1072  0.1353 -0.0840
85632W        W28570  19.461   6.800  23.289  0.1746  0.1998  0.0119
85633W        W28571  19.767   7.448  25.121 -0.1889  0.0812  0.4049
85634W        W28572  18.881   6.941  26.621  0.1366  0.0745  0.0642
85635W        W28573  18.327   5.505  25.102  0.2664 -0.1226 -0.1222
85636W        W28574  23.293   4.436  23.000 -0.0665  0.0283  0.0908
85637W        W28575  19.904   6.604  26.963  0.3368  0.0125 -0.1157
85638W        W28576  21.474   3.963  24.968 -0.0011 -0.0508  0.0411
85639W        W28577  17.832   5.337  25.179  0.0322  0.1036  0.0807
85640W        W28578  22.658   6.467  26.672  0.0284  0.1310  0.0542
85641W        W28579  20.196   6.522  25.604 -0.0730 -0.2162  0.1902
85642W        W28580  18.615   5.365  26.412  0.0700  0.4446 -0.0557
85643W        W28581  19.234   6.442  22.974 -0.0238 -0.0263  0.0857
85644W        W28582  23.110   6.471  25.911  0.2139 -0.2298  0.0697
85645W        W28583  21.098   4.791  23.347  0.0330  0.0380 -0.3848
85646W        W28584  20.837   8.710  26.808  0.4369 -0.2509  0.0361
85647W        W28585  18.284   3.792  26.461 -0.3289 -0.0277  0.1665
85648W        W28586  19.370   6.088  24.654  0.1383  0.1076  0.1621
85649W        W28587  19.916   6.891  24.913 -0.5245 -0.0111 -0.1551
85650W        W28588  19.903   7.024  27.316 -0.0385  0.3093  0.0387
85651W        W28589  22.279   6.226  29.807 -0.2634  0.1198  0.0139
85652W        W28590  17.389   4.039  26.373 -0.0475  0.2888 -0.1521
85653W        W28591  21.431   7.001  23.821 -0.1940 -0.2250 -0.1808
85654W        W28592  20.200   5.143  26.087 -0.1452  0.1639  0.1217
85655W        W28593  20.269   6.503  23.253  0.1492 -0.0651  0.0852
85656W        W28594  20.523   5.815  26.627  0.0386  0.1995  0.1062
85657W        W28595  21.131   6.090  24.752  0.0870 -0.0215 -0.1315
85658W        W28596  17.184   5.051  25.750  0.0009 -0.0893  0.4725
85659W        W28597  21.580   8.484  27.181 -0.0800 -0.0764 -0.0525
85660W        W28598  21.265   8.264  26.036 -0.1096 -0.0414 -0.1755
85661W        W28599  19.601   3.406  24.656 -0.0515 -0.0163  0.0244
85662W        W28600  18.036   5.002  26.810  0.0789 -0.0255 -0.2081
85663W        W28601  18.166   5.951  25.198  0.3324 -0.0887  0.0024
85664W        W28602  19.242   5.824  26.856 -0.0111 -0.0944 -0.1738
85665W        W28603  20.706   4.506  26.575 -0.1023 -0.1533  0.1343
85666W        W28604  19.742   5.749  22.493  0.1974  0.1323 -0.0648
85667W        W28605  19.985   3.767  27.546  0.1614  0.2271  0.1158
85668W        W28606  20.576   6.961  27.807 -0.0361  0.0764  0.2473
85669W        W28607  19.112   6.096  28.520  0.1176  0.1578  0.2486
85670W        W28608  18.665   3.160  23.102 -0.2027 -0.1521 -0.0215
85671W        W28609  20.666   6.875  28.287 -0.1433  0.2339 -0.0943
85672W        W28610  21.063   7.288  26.858 -0.1224  0.1363  0.0476
85673W        W28611  19.724   7.656  24.087  0.1557 -0.0598 -0.2119
85674W        W28612  22.509   7.303  25.043 -0.2021 -0.0276  0.1058
85675W        W28613  20.670   5.922  23.982 -0.0919 -0.4022 -0.1620
85676W        W28614  23.074   7.863  26.463 -0.2376 -0.0628 -0.0086
85677W        W28615  17.307   3.566  26.243 -0.0473 -0.1950  0.2014
85678W        W28616  21.487   4.682  24.788 -0.2542  0.3954 -0.0015
85679W        W28617  19.155   4.701  24.987 -0.0264 -0.3042  0.0063
85680W        W28618  18.019   5.352  27.916  0.0835  0.0408  0.1915
85681W        W28619  18.655   5.619  24.149 -0.3422 -0.1128 -0.1796
85682W        W28620  19.435   6.058  23.823  0.0921  0.1328  0.2159
85683W        W28621  18.258   5.462  26.892 -0.0780  0.4606 -0.1749
85684W        W28622  20.691   5.311  28.271 -0.0036  0.0975  0.0993
85685W        W28623  18.747   5.693  26.958  0.1035 -0.0277  0.0129
85686W        W28624  18.299   6.901  27.718 -0.0926 -0.1531  0.1711
85687W        W28625  17.698   4.996  25.493  0.2725  0.2379  0.3114
85688W        W28626  21.401   6.371  26.057  0.1224 -0.0758 -0.1107
85689W        W28627  17.147   4.903  25.307 -0.2149 -0.1943 -0.4119
85690W        W28628  16.690   4.684  26.268  0.3430  0.0921 -0.0086
85691W        W28629  23.658   6.859  26.055  0.0207 -0.1685  0.2846
85692W        W28630  20.808   6.459  23.801  0.2561  0.1633 -0.0271
85693W        W28631  19.289   4.957  24.323 -0.0476 -0.0782 -0.2125
85694W        W28632  22.610   7.200  25.853 -0.2973 -0.1969  0.1566
85695W        W28633  18.291   4.648  22.667 -0.2915 -0.0487 -0.1003
85696W        W28634  19.726   5.555  28.312  0.1243 -0.1438 -0.2271
85697W        W28635  19.154   4.371  26.521  0.1714  0.0992  0.2031
85698W        W28636  18.469   5.480  23.039 -0.3203  0.1704 -0.0969
85699W        W28637  19.686   5.127  26.175 -0.1876 -0.0614  0.2832
85700W        W28638  20.666   8.251  26.637  0.0239 -0.0456 -0.1329
85701W        W28639  20.904   8.827  23.338 -0.0639 -0.0206  0.1606
85702W        W28640  20.202   5.916  27.772 -0.0124  0.1039  0.0932
85703W        W28641  21.081   7.979  26.388  0.1190  0.0050 -0.2588
85704W        W28642  18.859   5.255  27.257 -0.0980 -0.0811 -0.0322
85705W        W28643  19.605   4.804  24.669 -0.1483 -0.1966 -0.1932
85706W        W28644  20.432   7.658  25.783  0.1693  0.1034  0.1397
85707W        W28645  22.598   7.013  24.610  0.5497  0.1549  0.3616
85708W        W28646  19.979   5.192  26.576 -0.2036 -0.2127  0.0437
85709W        W28647  20.828   4.859  25.812 -0.0014 -0.3927  0.2279
85710W        W28648  18.662   3.009  25.905  0.1414  0.0920  0.0025
85711W        W28649  19.855   7.504  27.170 -0.0994 -0.3415 -0.0174
85712W        W28650  20.674   6.387  25.583 -0.0686 -0.0806  0.0878
85713W        W28651  17.586   5.338  24.350  0.1315  0.0989  0.2774
85714W        W28652  19.143   3.797  24.647 -0.1162  0.1077 -0.2004
85715W        W28653  20.953   6.872  26.341  0.1085 -0.0672 -0.2651
85716W        W28654  19.092   5.086  26.320 -0.2515  0.1044  0.4327
85717W        W28655  21.180   4.334  23.993 -0.2352  0.0122  0.2362
85718W        W28656  20.610   6.189  27.623  0.1651  0.0038 -0.1198
85719W        W28657  19.974   6.169  25.881 -0.1338  0.0920 -0.1410
85720W        W28658  21.803   6.417  26.671  0.1826  0.0047 -0.2574
85721W        W28659  19.750   5.762  24.801  0.0625  0.2479  0.2503
85722W        W28660  21.305   4.828  23.879  0.3093  0.0658 -0.0422
85723W        W28661  20.324   9.111  28.227 -0.0489 -0.3608 -0.2438
85724W        W28662  21.681   6.940  27.318  0.2069 -0.2054 -0.1596
85725W        W28663  20.146   8.223  26.598  0.2717 -0.0492  0.3370
85726W        W28664  21.276   6.516  26.607 -0.1456 -0.0601  0.1560
85727W        W28665  18.691   4.478  26.674  0.2455 -0.1435 -0.0492
85728W        W28666  17.895   6.563  24.899  0.3699 -0.2497  0.2697
85729W        W28667  20.261   7.843  24.843 -0.2579  0.1867 -0.1230
85730W        W28668  20.211   5.757  27.183 -0.1944 -0.1388 -0.0632
85731W        W28669  19.281   5.151  24.788 -0.0189  0.1965  0.3073
85732W        W28670  19.647   4.207  25.714 -0.2835 -0.0091  0.1863
85733W        W28671  18.083   7.003  26.474  0.0386  0.0186  0.1335
85734W        W28672  21.608   6.377  25.583  0.1316 -0.0234 -0.1022
85735W        W28673  19.358   5.113  29.673 -0.2060 -0.0194 -0.2574
85736W        W28674  18.871   3.842  30.822  0.1494 -0.2110  0.2069
85737W        W28675  21.130   4.759  27.596 -0.0326  0.0367  0.0573
85738W        W28676  22.297   6.641  28.117  0.1264  0.0087 -0.2984
85739W        W28677  19.175   4.238  30.019  0.0216  0.0208 -0.1008
85740W        W28678  20.949   5.980  29.628  0.0525  0.1551  0.0122
85741W        W28679  20.713   4.100  31.206 -0.0053 -0.3093 -0.0603
85742W        W28680  20.273   6.416  29.065 -0.2860 -0.4196  0.0475
85743W        W28681  21.145   9.082  30.067  0.1487 -0.2226  0.0383
85744W        W28682  19.284   7.092  28.995 -0.0873 -0.0736  0.3118
85745W        W28683  18.506   5.502  30.737 -0.0231 -0.0755  0.1143
85746W        W28684  19.737   7.252  30.083  0.1511 -0.1585  0.0939
85747W        W28685  20.578   4.271  27.649  0.3480  0.1388 -0.0044
85748W        W28686  18.336   4.372  29.563  0.0509  0.1754 -0.0230
85749W        W28687  21.461   7.016  30.462 -0.2727 -0.1272  0.3462
85750W        W28688  17.757   4.989  28.696  0.2229  0.0185 -0.0654
85751W        W28689  17.410   4.917  31.131  0.1584 -0.1070 -0.0370
85752W        W28690  19.519   5.360  28.799 -0.5305 -0.1575 -0.1044
85753W        W28691  20.978   6.308  29.225 -0.0093 -0.0385  0.1656
85754W        W28692  19.067   5.566  30.242 -0.0529  0.2953  0.2620
85755W        W28693  19.444   5.143  30.999 -0.2118 -0.2285  0.2290
85756W        W28694  20.870   7.953  28.833  0.0040 -0.0197 -0.0013
85757W        W28695  17.660   5.096  27.654  0.0311  0.0396 -0.1120
85758W        W28696  17.377   4.638  30.442  0.2432  0.1639 -0.0095
85759W        W28697  18.210   4.722  31.074  0.1071  0.2465 -0.2304
85760W        W28698  20.525   4.288  29.451 -0.0497 -0.2077 -0.0861
85761W        W28699  22.308   6.086  29.332 -0.0142  0.2127 -0.0961
85762W        W28700  18.274   8.088  30.210 -0.3043  0.1253  0.0345
85763W        W28701  20.405   6.731  29.578 -0.0874  0.2027  0.3020
85764W        W28702  20.838   4.852  31.578 -0.1917 -0.1432 -0.0867
85765W        W28703  19.321   6.836  27.312 -0.0020  0.1305  0.0259
85766W        W28704  18.361   8.172  29.056  0.0552 -0.0184 -0.3595
85767W        W28705  18.371   6.756  29.236 -0.1910 -0.4383  0.5627
85768W        W28706  23.620   7.007  29.963 -0.0330  0.0556 -0.1358
85769W        W28707  20.022   7.547  30.730 -0.2363  0.1988 -0.2558
85770W        W28708  20.638   6.631  30.660  0.0573  0.0675  0.1140
85771W        W28709  19.926   6.084  26.900 -0.3100 -0.1309 -0.1458
85772W        W28710  19.769   8.466  31.331 -0.0369  0.0593 -0.1768
85773W        W28711  18.906   6.289  29.572 -0.3390 -0.1118 -0.0453
85774W        W28712  20.618   4.648  30.455 -0.2499 -0.2165  0.0798
85775W        W28713  20.479   5.095  29.013 -0.2271 -0.1130 -0.2263
85776W        W28714  20.277   7.038  28.825  0.1695 -0.1098 -0.1606
85777W        W28715  19.965   6.468  28.568 -0.1580  0.0270 -0.0777
85778W        W28716  20.840   6.281  31.705 -0.0916  0.1921 -0.1175
85779W        W28717  18.288   4.970  28.178 -0.1270  0.1434 -0.1950
85780W        W28718  21.224   4.693  31.263 -0.1024  0.1188 -0.1700
85781W        W28719  19.173   7.318  29.402 -0.3504  0.1214 -0.0696
85782W        W28720  20.927   6.549  27.898 -0.1418  0.0439  0.0907
85783W        W28721  20.219   4.520  27.386  0.2241  0.0925 -0.0473
85784W        W28722  20.718   4.713  29.267  0.0551  0.1689  0.3141
85785W        W28723  20.361   3.822  29.554 -0.0320 -0.1065  0.2048
85786W        W28724  18.950   7.693  29.769  0.0791 -0.4671  0.0627
85787W        W28725  20.520   4.404  31.573 -0.0409  0.0317  0.0281
85788W        W28726  20.294   7.480  29.627 -0.2667  0.1785 -0.4094
85789W        W28727  20.252   5.169  28.422  0.1245 -0.1436  0.3732
85790W        W28728  20.050   5.328  31.099 -0.2272  0.0005 -0.0553
85791W        W28729  19.578   7.030  29.569 -0.1825 -0.0816 -0.2704
85792W        W28730  18.146   4.131  28.622  0.1286 -0.0251  0.1883
85793W        W28731  22.807   6.889  27.717  0.0823  0.2623  0.0387
85794W        W28732  21.671   7.443  29.046 -0.3837  0.0024 -0.0513
85795W        W28733  21.594   6.906  26.771  0.3233 -0.3217 -0.1832
85796W        W28734  19.127   4.958  28.896  0.0445 -0.1982  0.0198
85797W        W28735  18.187   5.136  30.548 -0.2026  0.1427  0.2547
85798W        W28736  17.522   5.413  31.127 -0.0006 -0.1489  0.1969
85799W        W28737  20.219   4.499  28.361  0.1570  0.0850  0.2960
85800W        W28738  20.572   5.439  31.006 -0.1496  0.3480 -0.0378
85801W        W28739  17.728   6.911  31.926 -0.2615 -0.1495  0.2318
85802W        W28740  21.185   5.331  28.547  0.1473 -0.0970 -0.0495
85803W        W28741  20.633   5.083  30.107  0.1869 -0.1630 -0.0302
85804W        W28742  21.933   6.418   0.406  0.0947  0.2106  0.1099
85805W        W28743  20.940   7.311  28.273 -0.2715  0.1362 -0.3099
85806W        W28744  20.335   2.677  29.487 -0.1042  0.1247  0.0551
85807W        W28745  20.661   3.558  30.011 -0.1409  0.1723  0.0572
85808W        W28746  20.555   6.264  29.487 -0.4167 -0.2382  0.1687
85809W        W28747  18.125   5.247  28.993  0.0426 -0.1163  0.2638
85810W        W28748  20.234   8.192  31.026 -0.1789  0.2894  0.1330
85811W        W28749  20.505   6.405  28.160  0.4609 -0.2155  0.1112
85812W        W28750  18.332   7.210  29.144  0.2375 -0.2093  0.2942
85813W        W28751  19.021   5.050  31.254 -0.1861  0.2142 -0.3167
85814W        W28752  21.196   6.831  31.863  0.2880  0.6108  0.0654
85815W        W28753  19.490   8.379  27.899 -0.1306 -0.1434  0.0796
85816W        W28754  18.065   6.797  29.637 -0.0162 -0.2053  0.1755
85817W        W28755  17.064   7.569  27.325 -0.2343 -0.2518 -0.1918
85818W        W28756  18.126   4.121  29.923  0.0887 -0.0683 -0.2447
85819W        W28757  19.384   6.694  27.742 -0.0126  0.1153 -0.0595
85820W        W28758  21.552   5.086  28.233  0.0636 -0.0472 -0.1806
85821W        W28759  18.204   4.506  31.664 -0.1194  0.1931  0.2072
85822W        W28760  21.851   5.279  27.920 -0.2273  0.3839  0.0976
85823W        W28761  17.606   4.551  28.850  0.2110 -0.3798  0.2298
85824W        W28762  22.087   7.001  28.735 -0.0850  0.1780 -0.1612
85825W        W28763  22.187   6.133  28.372 -0.1284 -0.0329 -0.0662
85826W        W28764  21.582   7.918  27.013  0.0077  0.0498 -0.0099
85827W        W28765  18.930   6.817  31.136  0.1624  0.3156  0.0823
85828W        W28766  19.351   5.421  29.261  0.1558  0.0872 -0.2774
85829W        W28767  18.921   3.357  30.017  0.1601 -0.2257 -0.1343
85830W        W28768  18.532   3.697  29.888  0.1245 -0.2542  0.0900
85831W        W28769  20.728   5.693  31.382 -0.1287  0.1391  0.2675
85832W        W28770  18.188   3.483  27.973 -0.2086 -0.4900 -0.0488
85833W        W28771  20.476   4.811  31.899 -0.0581  0.0881 -0.1267
85834W        W28772  19.719   5.740  29.827 -0.1469 -0.1745 -0.0358
85835W        W28773  17.067   4.646  28.970 -0.1664  0.1116  0.1695
85836W        W28774  21.711   4.260  29.592 -0.2075  0.0007  0.0536
85837W        W28775  19.361   8.145  28.930  0.1897  0.1111  0.0874
85838W        W28776  23.752   8.729  31.658  0.2958 -0.0986  0.1862
85839W        W28777  21.576   7.866  29.358  0.0522 -0.0848 -0.0088
85840W        W28778  19.247   3.048  31.172  0.2485 -0.0881  0.1235
85841W        W28779  19.752   4.421  28.186 -0.2876  0.1257  0.2841
85842W        W28780  17.898   6.746  28.651 -0.3233 -0.2231  0.0479
85843W        W28781  20.211   7.046  29.920  0.1098 -0.1366 -0.1752
85844W        W28782  18.905   3.191  29.390 -0.3148  0.1975  0.0294
85845W        W28783  23.106   7.564  29.231 -0.1292 -0.0101  0.1317
85846W        W28784  20.242   5.909  29.135 -0.1878  0.0481  0.0262
85847W        W28785  18.081   7.260  31.744 -0.1049 -0.0603  0.0680
85848W        W28786  19.648   3.788   0.025  0.0728 -0.0842  0.2501
85849W        W28787  21.288   6.419  29.678  0.1854  0.0648  0.2610
85850W        W28788  19.792   5.349  29.560 -0.0291  0.1651  0.0062
85851W        W28789  19.400   3.222  28.895 -0.5737  0.0092 -0.3860
85852W        W28790  20.437   6.133  30.235  0.2823  0.0377 -0.0277
85853W        W28791  20.246   7.841  27.325  0.0855  0.1831 -0.0284
85854W        W28792  18.153   3.821  29.481  0.0344  0.0002  0.0338
85855W        W28793  19.458   6.549  28.731  0.0165 -0.1436  0.0060
85856W        W28794  22.084   3.411  28.486  0.0697  0.2324 -0.2260
85857W        W28795  18.633   5.022  30.909 -0.1114 -0.0136 -0.1240
85858W        W28796  19.731   4.485  31.274 -0.2170 -0.1050  0.1140
85859W        W28797  18.630   5.167  28.794 -0.0726  0.4068 -0.1261
85860W        W28798  18.477   7.415  29.839  0.1818  0.1916 -0.0840
85861W        W28799  20.023   3.372  28.836 -0.4152  0.1037 -0.1480
85862W        W28800  21.367   4.462  28.476  0.0994 -0.2234  0.0790
85863W        W28801  20.024   6.085  31.820 -0.0652 -0.1710 -0.1265
85864W        W28802  20.957   5.733  28.739 -0.0860 -0.0040 -0.1712
85865W        W28803  21.076   5.698  27.478 -0.2417 -0.0663 -0.0739
85866W        W28804  19.632   4.835  27.816 -0.0702  0.1010  0.0243
85867W        W28805  17.451   6.422  30.961  0.0478 -0.3739 -0.2181
85868W        W28806  19.909   6.644  29.478 -0.0883  0.1597 -0.0302
85869W        W28807  21.254   7.702  29.707 -0.0615  0.0066 -0.2840
85870W        W28808  19.581   3.967  27.763 -0.2083  0.1173  0.0235
85871W        W28809  22.472   7.170  28.341 -0.1422 -0.3104  0.1321
85872W        W28810  18.069   5.777  29.383 -0.1383  0.2760 -0.1861
85873W        W28811  19.223   7.153  30.927 -0.1008  0.1587  0.1779
85874W        W28812  23.168   6.316  29.270 -0.2702  0.1156  0.4163
85875W        W28813  20.889   3.650  29.405 -0.1168  0.0722  0.1787
85876W        W28814  19.922   5.709  28.720  0.2744  0.1467 -0.0276
85877W        W28815  19.881   4.870  28.301 -0.3254  0.2688 -0.0207
85878W        W28816  18.665   8.886  26.329 -0.0355  0.0014 -0.0672
85879W        W28817  20.178   4.759  28.795  0.2957  0.0156  0.1410
85880W        W28818  20.712   5.912  28.294 -0.0970 -0.0338 -0.0508
85881W        W28819  21.132   3.604  31.043  0.3107  0.4244 -0.1154
85882W        W28820  21.451   3.988  30.463 -0.0115 -0.0647 -0.0052
85883W        W28821  22.282   5.647  28.261 -0.0548 -0.0802 -0.0821
85884W        W28822  19.601   6.125  30.691  0.1076 -0.0738 -0.1687
85885W        W28823  19.971   6.107  27.387 -0.5024 -0.0515 -0.0285
85886W        W28824  18.792   4.645  31.691  0.0135  0.2328  0.1813
85887W        W28825  19.265   6.109  31.108 -0.0820 -0.2660 -0.0563
85888W        W28826  19.827   6.178  28.957 -0.2245 -0.2098 -0.0791
85889W        W28827  20.657   7.149  29.838  0.0619  0.2251 -0.0756
85890W        W28828  20.428   5.316  30.518 -0.1294 -0.1276 -0.0945
85891W        W28829  19.925   3.871  31.591 -0.2055 -0.1418  0.4026
85892W        W28830  20.444   3.694  27.770  0.0692  0.0382  0.0264
85893W        W28831  19.842   6.684  29.008  0.0788 -0.1664 -0.0762
85894W        W28832  19.647   6.071  28.523 -0.0637  0.0968  0.0573
85895W        W28833  18.863   4.608  29.193  0.2108 -0.1472  0.2508
85896W        W28834  20.272   5.779  29.762 -0.0603 -0.1296  0.0345
85897W        W28835  19.731   7.554  26.572 -0.1378 -0.0201  0.1904
85898W        W28836  19.859   6.136  30.209 -0.0448 -0.0633 -0.1245
85899W        W28837  19.761   7.949  27.387  0.0715 -0.1218  0.0266
85900W        W28838  21.417   3.509  29.327 -0.2421  0.1340 -0.0797
85901W        W28839  18.786   7.112  28.984 -0.1066  0.2014 -0.0530
85902W        W28840  19.455   5.472  27.816  0.0355 -0.0637 -0.5224
85903W        W28841  18.347   6.915  28.642  0.0672 -0.0798 -0.0149
85904W        W28842  21.110   4.771  28.844 -0.0145  0.1255 -0.0048
85905W        W28843  21.909   6.575  26.089 -0.0959  0.5972  0.1500
85906W        W28844  18.825   5.638   0.235  0.1460  0.4176  0.1460
85907W        W28845  18.738   4.054  29.470  0.0088 -0.1022  0.0160
85908W        W28846  18.651   6.150  28.735 -0.1371 -0.0960  0.1257
85909W        W28847  20.946   5.994  30.160 -0.0863  0.0766  0.1704
85910W        W28848  21.495   4.818  27.225 -0.0069 -0.1080 -0.3258
85911W        W28849  20.541   6.971  30.278  0.0516  0.0686 -0.0741
85912W        W28850  20.132   5.293  29.933  0.0710 -0.2152  0.2367
85913W        W28851  17.098   4.266  27.939 -0.0312 -0.3051  0.1756
85914W        W28852  21.439   4.274  30.025 -0.2562 -0.3258 -0.0081
85915W        W28853  19.254   4.588  29.491 -0.3930 -0.1583  0.1548
85916W        W28854  19.385   6.334  28.108  0.0973  0.1011  0.3745
85917W        W28855  19.782   7.494  29.633  0.1969  0.0849 -0.0193
85918W        W28856  19.190   4.993  27.683  0.0203  0.2793  0.0577
85919W        W28857  19.460   7.399  28.554  0.1443 -0.1177  0.1620
85920W        W28858  19.694   4.824  30.358 -0.1680  0.1925 -0.2194
85921W        W28859  21.135   7.088  29.187  0.0304 -0.1644 -0.1268
85922W        W28860  19.080   6.753  29.668 -0.0064 -0.0065  0.0387
85923W        W28861  19.776   4.342  30.139 -0.2830  0.1219  0.1937
85924W        W28862  19.887   6.106  29.461 -0.2005  0.0363 -0.4057
85925W        W28863  20.120   5.682  30.230 -0.2534  0.2655  0.1685
85926W        W28864  19.591   5.712  30.295 -0.0530  0.1922 -0.1797
85927W        W28865  19.014   5.360  30.810  0.0530 -0.0598 -0.0803
85928W        W28866  20.537   3.658  30.457  0.2565 -0.4660 -0.0278
85929W        W28867  21.912   7.296  28.094 -0.1418  0.1810  0.0270
85930W        W28868  20.367   5.926  31.063  0.2145  0.1709  0.0089
85931W        W28869  19.641   6.770  28.143 -0.1395  0.1764 -0.0635
85932W        W28870  17.349   6.190  29.946 -0.0031 -0.1860 -0.0747
85933W        W28871  18.687   7.525  28.125 -0.1892  0.1194 -0.0116
85934W        W28872  19.714   3.960  31.102  0.0103 -0.2482  0.1643
85935W        W28873  18.828   5.829  30.959 -0.0533 -0.0419  0.1150
85936W        W28874  20.145   4.731  29.408  0.1621 -0.4236 -0.0467
85937W        W28875  19.171   7.468  30.430 -0.1600 -0.0504 -0.0917
85938W        W28876  20.773   4.485  28.410 -0.0285 -0.0532 -0.4010
85939W        W28877  20.091   7.065  29.328 -0.1003 -0.0307 -0.3964
85940W        W28878  18.971   5.500  28.929 -0.1532 -0.1587 -0.0573
85941W        W28879  21.803   5.087  30.121 -0.1014  0.0888 -0.1709
85942W        W28880  20.683   5.699  27.837 -0.0127  0.1519  0.2593
85943W        W28881  21.327   4.029  31.820 -0.0656  0.1483  0.1392
85944W        W28882  17.533   5.078  29.618  0.1062 -0.1495  0.0881
85945W        W28883  22.411   7.008  29.901 -0.1209 -0.0900  0.0189
85946W        W28884  17.003   5.360  29.877  0.1399 -0.1272 -0.3351
85947W        W28885  19.858   7.651  31.884  0.2122  0.1382  0.2354
85948W        W28886  18.416   5.215   0.221 -0.1833 -0.1036  0.0280
85949W        W28887  19.925   4.264  28.764 -0.1328  0.0373  0.2651
85950W        W28888  19.686   3.802  28.921  0.1330  0.0220 -0.0705
85951W        W28889  18.302   6.022  29.832 -0.1322 -0.1834  0.1336
85952W        W28890  21.637   5.574  30.210  0.0616 -0.0697 -0.0533
85953W        W28891  18.886   5.273  28.087  0.0145 -0.0196  0.0915
85954W        W28892  20.269   5.444  29.332  0.3261 -0.2338 -0.3626
85955W        W28893  18.117   5.732  31.340  0.0386  0.2123  0.1161
85956W        W28894  21.422   5.070  29.098 -0.0329 -0.1459  0.0526
85957W        W28895  19.034   6.651  28.234  0.2855  0.2073 -0.0524
85958W        W28896  18.816   5.775  29.407  0.1527 -0.3178 -0.0868
85959W        W28897  19.267   4.628  31.374 -0.1890  0.0806 -0.1622
85960W        W28898  22.075   6.688  31.048 -0.1030  0.1126 -0.1989
85961W        W28899  20.214   4.941  30.293 -0.3133 -0.2096 -0.0259
85962W        W28900  20.582   4.264  30.733  0.2270 -0.0033  0.1416
85963W        W28901  20.740   5.027  30.886 -0.3817 -0.1458  0.1962
85964W        W28902  19.477   4.376  30.613  0.1796  0.1277  0.0375
85965W        W28903  18.144   4.999  31.813 -0.1677 -0.0935 -0.1085
85966W        W28904  19.912   7.232   0.231 -0.3284  0.2855 -0.2639
85967W        W28905  21.233   5.982  27.044 -0.0881 -0.0383  0.1808
85968W        W28906  20.705   4.579  31.097  0.0103  0.3928  0.5302
85969W        W28907  20.709   4.967  28.585 -0.2025 -0.4222 -0.1222
85970W        W28908  20.745   4.416  27.156 -0.3971  0.3043  0.1661
85971W        W28909  18.468   4.922  29.517  0.1792 -0.1456 -0.0553
85972W        W28910  20.722   7.045  31.045 -0.1086  0.1211 -0.1160
85973W        W28911  19.007   5.499  27.621 -0.1435 -0.1427 -0.1867
85974W        W28912  18.654   4.138  29.997 -0.0394  0.1575  0.1273
85975W        W28913  20.549   7.473  27.097 -0.0805  0.0418  0.1509
85976W        W28914  19.988   5.236  28.909 -0.0817 -0.0286 -0.0937
85977W        W28915  20.311   5.710  28.188 -0.3229 -0.4164  0.2755
85978W        W28916  17.709   3.803  29.231 -0.0908  0.1398  0.0409
85979W        W28917  18.743   8.112  30.053 -0.3348 -0.0378  0.6713
85980W        W28918  18.591   3.859  27.782 -0.2821 -0.3734 -0.0224
85981W        W28919  18.546   7.961  28.052 -0.0655  0.0448 -0.4234
85982W        W28920  19.039   7.553  28.943  0.0265  0.0920 -0.0718
85983W        W28921  20.840   7.524  31.040  0.4726  0.1156 -0.1426
85984W        W28922  20.580   3.552  26.953  0.3168  0.2022 -0.0438
85985W        W28923  20.475   4.301   0.071  0.0677 -0.4256 -0.1582
85986W        W28924  18.230   4.772  28.772  0.0051 -0.1254 -0.1516
85987W        W28925  19.692   4.923  29.281  0.0545  0.0782  0.1362
85988W        W28926  19.853   8.635  30.762  0.3514 -0.0555  0.1157
85989W        W28927  18.515   5.550  29.726  0.0208 -0.0788  0.0093
85990W        W28928  19.781   6.516  27.521  0.3160 -0.1153  0.0424
85991W        W28929  20.948   4.220  30.288 -0.0629 -0.2383  0.3170
85992W        W28930  21.433   6.018  29.963  0.0364 -0.0142 -0.4668
85993W        W28931  20.920   6.698  29.501 -0.2232  0.1955  0.1761
85994W        W28932  21.406   4.661  31.836 -0.1619  0.1765  0.0275
85995W        W28933  19.611   7.775  30.600 -0.1317  0.2270  0.1308
85996W        W28934  17.841   6.098  28.556 -0.0735  0.2533  0.1611
85997W        W28935  20.365   7.850  31.635 -0.3404 -0.1139 -0.0752
85998W        W28936  21.968   5.011  29.014  0.1641 -0.1382  0.1577
85999W        W28937  18.923   6.527  28.706 -0.0257  0.1441  0.0459
86000W        W28938  17.763   5.446  31.625  0.0034  0.5197  0.0384
86001W        W28939  21.498   4.766  29.901 -0.0362 -0.1279 -0.2439
86002W        W28940  19.400   5.952  29.442 -0.0818  0.0906  0.2308
86003W        W28941  18.336   4.422  28.221  0.2369  0.0848 -0.1099
86004W        W28942  20.196   8.808  27.380  0.0902 -0.0930 -0.3115
86005W        W28943  20.269   6.690  31.087  0.1384 -0.2485 -0.0951
86006W        W28944  19.441   5.660  30.796 -0.0215  0.1146 -0.0788
86007W        W28945  19.342   9.189  27.423  0.0588  0.2667  0.0302
86008W        W28946  21.590   6.928  28.825 -0.1940  0.0698  0.1795
86009W        W28947  20.929   6.338  28.435  0.0830  0.3459  0.0911
86010W        W28948  19.861   8.664  30.250 -0.1705 -0.6121  0.4362
86011W        W28949  18.861   4.672  28.043 -0.1153 -0.1361 -0.2770
86012W        W28950  19.171   5.586  29.718 -0.1203 -0.1959  0.0494
86013W        W28951  18.437   7.192  27.302 -0.1041 -0.0622 -0.1549
86014W        W28952  20.101   7.526  29.136 -0.0230  0.3494 -0.2338
86015W        W28953  18.104   8.761  28.058 -0.3520  0.2210  0.2249
86016W        W28954  20.522   7.350  30.643 -0.0336  0.1111  0.0298
86017W        W28955  21.145   5.146  25.465 -0.4039  0.1348  0.1816
86018W        W28956  21.897   6.520  28.536 -0.4004  0.0243 -0.1103
86019W        W28957  21.590   4.370  27.090 -0.0216  0.0253  0.1262
86020W        W28958  19.935   8.150  30.661 -0.0655  0.0359 -0.0864
86021W        W28959  19.633   6.393  29.777 -0.0797  0.0417  0.1828
86022W        W28960  18.906   4.134  28.201 -0.2330  0.0953 -0.0036
86023W        W28961  19.288   5.546  31.972  0.0013  0.2790  0.0476
86024W        W28962  20.321   4.198  30.082 -0.0270  0.2350  0.1930
86025W        W28963  18.895   6.539  30.106  0.2078 -0.2000 -0.1243
86026W        W28964  21.454   7.274  29.502  0.2721  0.2101  0.1893
86027W        W28965  18.865   5.153  29.894  0.0989 -0.2742 -0.1817
86028W        W28966  19.626   5.278  30.097  0.1840 -0.4226  0.0934
86029W        W28967  19.841   4.015  29.494 -0.1280  0.0523  0.1558
86030W        W28968  20.793   7.082  28.732  0.1049 -0.0159 -0.0371
86031W        W28969  19.491   5.131  28.277  0.1418 -0.3128 -0.0345
86032W        W28970  18.711   7.015  29.529  0.0139 -0.1627  0.1782
86033W        W28971  20.130   6.380  29.866 -0.0887 -0.2511  0.3298
86034W        W28972  19.176   8.697  28.930 -0.1487 -0.0249 -0.0209
86035W        W28973  18.930   5.209  29.402  0.2995  0.1633  0.0850
86036W        W28974  21.058   4.977  29.713  0.1741 -0.3379  0.1943
86037W        W28975  19.316   4.717  30.009 -0.0234 -0.1735  0.0918
86038W        W28976  20.518   3.469   0.792  0.0801  0.1166 -0.2876
86039W        W28977  17.845   4.235  29.500 -0.0172 -0.1210  0.1275
86040W        W28978  21.476   4.517  29.001  0.2638  0.1308  0.3711
86041W        W28979  20.734   5.572  31.856 -0.0509  0.2480 -0.1074
86042W        W28980  18.486   5.626  30.233  0.2594 -0.0340  0.4571
86043W        W28981  19.735   5.510  26.954 -0.0632 -0.2990 -0.1947
86044W        W28982  21.827   6.114  30.271  0.2360 -0.0609 -0.0803
86045W        W28983  20.709   5.324  27.313  0.0084  0.2671  0.1678
86046W        W28984  20.585   7.852   0.112 -0.3272 -0.0433 -0.1238
86047W        W28985  17.523   4.288  29.914  0.3178  0.1597 -0.0886
86048W        W28986  20.393   5.056  27.926 -0.0403 -0.3352  0.0251
86049W        W28987  17.997   4.352  29.046  0.0677 -0.0996  0.2231
86050W        W28988  19.390   5.814  28.943  0.0404  0.0409  0.0655
86051W        W28989  21.156   6.887  31.347  0.0795  0.1001  0.0763
86052W        W28990  18.551   3.607  28.746  0.1025 -0.3029 -0.0083
86053W        W28991  21.155   6.766  28.327  0.0258  0.0349 -0.2321
86054W        W28992  21.191   6.675  30.900  0.0226  0.0095 -0.3540
86055W        W28993  20.467   6.617  28.683  0.3445  0.0830  0.2790
86056W        W28994  21.202   5.469  29.983  0.2310 -0.0721  0.1956
86057W        W28995  20.205   8.460  29.752  0.2599 -0.1696  0.2616
86058W        W28996  18.558   6.551  29.678 -0.0758  0.1540  0.0425
86059W        W28997  20.185   8.767  28.689  0.0178  0.2257 -0.0356
86060W        W28998  20.948   8.613  29.937  0.0509  0.0273 -0.3489
86061W        W28999  19.090   4.503  28.711 -0.1597 -0.0087  0.0413
86062W        W29000  19.169   5.956  30.533  0.0696  0.0015  0.2836
86063W        W29001  18.797   9.350  28.452  0.0352 -0.0696  0.0469
86064W        W29002  21.629   5.351  28.747  0.0809 -0.0519  0.1125
86065W        W29003  20.157   4.457  30.531  0.1035 -0.2638 -0.0303
86066W        W29004  21.397   7.701  26.154  0.2517 -0.0669  0.1123
86067W        W29005  21.747   3.845  30.864  0.3158 -0.2456  0.2174
86068W        W29006  20.211   6.608  30.348 -0.4034 -0.0061 -0.1741
86069W        W29007  18.918   6.868  31.698 -0.1214  0.0764 -0.2030
86070W        W29008  19.074   4.014  27.729  0.2939 -0.3321  0.2246
86071W        W29009  20.183   6.189  30.656 -0.1655  0.0765 -0.3267
86072W        W29010  18.947   7.268  28.495  0.1348  0.1440  0.1551
86073W        W29011  19.236   7.168  28.117  0.1353 -0.0115 -0.2160
86074W        W29012  20.521   8.341  28.928  0.1151  0.3408  0.2266
86075W        W29013  19.826   5.322  30.554  0.0914  0.0329  0.2868
86076W        W29014  21.551   7.521  30.537  0.0671  0.2983  0.0312
86077W        W29015  18.460   5.584  28.093 -0.6118  0.0875 -0.1878
86078W        W29016  23.014   4.377  29.713  0.2243 -0.0559  0.2377
86079W        W29017  20.113   4.088  27.891 -0.1131 -0.1145 -0.0766
86080W        W29018  20.418   6.170  31.481 -0.4245  0.1262  0.2631
86081W        W29019  18.294   5.446  28.548  0.1813 -0.0058  0.0251
86082W        W29020  19.174   6.194  27.687 -0.1329  0.2021  0.0964
86083W        W29021  20.645   6.527  29.950 -0.1687  0.0702  0.0539
86084W        W29022  20.192   4.697  31.413 -0.0544 -0.2721 -0.0505
86085W        W29023  18.282   4.609  30.041 -0.0661  0.1446  0.0309
86086W        W29024  17.328   5.567  28.989  0.0148 -0.1667  0.1369
86087W        W29025  17.855   4.785  27.973 -0.1354  0.1797  0.3244
86088W        W29026  21.640   6.541  27.687  0.1529  0.0910  0.1277
86089W        W29027  18.649   2.895  30.058 -0.0141 -0.2016  0.1031
86090W        W29028  18.440   3.925  28.241  0.3340 -0.2319  0.0399
86091W        W29029  20.689   6.120  28.853 -0.0063  0.1155 -0.1773
86092W        W29030  21.148   7.618  27.675  0.2032  0.2784  0.0318
86093W        W29031  19.135   4.057  28.969  0.2174 -0.0552 -0.0745
86094W        W29032  22.154   8.706  30.821  0.2808 -0.0073 -0.3535
86095W        W29033  17.273   6.908  27.177  0.0542  0.0505  0.1178
86096W        W29034  18.757   4.200   0.081 -0.3871 -0.2259 -0.0562
86097W        W29035  19.767   4.784  30.847  0.3229  0.2848 -0.0649
86098W        W29036  18.334   4.191  27.302 -0.2288 -0.0518  0.4106
86099W        W29037  19.025   3.801  30.193 -0.1665 -0.1790  0.1397
86100W        W29038  21.152   7.376  30.125  0.1598  0.3628 -0.0504
86101W        W29039  21.330   7.679  26.662 -0.0233  0.0980 -0.1397
86102W        W29040  19.317   6.932  30.067 -0.0479 -0.1187 -0.0847
86103W        W29041  19.499   7.574  31.426  0.0216 -0.1286  0.0829
86104W        W29042  18.152   3.859  30.741 -0.2197  0.0207 -0.0298
86105W        W29043  20.300   6.087  28.500 -0.0539  0.0744 -0.0269
86106W        W29044  20.704   8.209  30.320 -0.1869 -0.0205  0.0619
86107W        W29045  22.181   7.131  29.218 -0.1884  0.3939  0.3328
86108W        W29046  20.960   3.858  30.633 -0.0784  0.2473  0.0110
86109W        W29047  20.104   6.785  27.870 -0.0858  0.0812 -0.0756
86110W        W29048  19.133   4.717  30.867 -0.1629 -0.1940  0.2265
86111W        W29049  19.037   5.395   1.264  0.1680 -0.0916  0.4016
86112W        W29050  21.181   7.424  28.779 -0.0137 -0.0464  0.2618
86113W        W29051  18.423   3.263  28.321 -0.0786 -0.3234  0.2144
86114W        W29052  21.075   6.693  28.867  0.1122  0.1453 -0.0326
86115W        W29053  21.437   7.218  28.373  0.2535  0.2427  0.3847
86116W        W29054  17.831   4.067  30.349  0.1987 -0.2184 -0.0020
86117W        W29055  19.680   4.816  28.745  0.1700  0.0377 -0.0067
86118W        W29056  18.821   5.915  29.949 -0.3425  0.1091  0.1903
86119W        W29057  21.155   7.615  29.206 -0.0419 -0.0927  0.1579
86120W        W29058  20.666   6.816  29.114  0.2206  0.1630 -0.3292
86121W        W29059  20.259   5.472  27.555  0.0842  0.1315 -0.1775
86122W        W29060  21.375   6.433  28.041  0.0898  0.0227 -0.1253
86123W        W29061  20.521   9.195  31.372 -0.0059 -0.2046  0.0247
86124W        W29062  20.506   7.974   0.817  0.0958  0.1039  0.2432
86125W        W29063  20.308   7.923  29.913 -0.1896  0.0010 -0.2750
86126W        W29064  22.012   7.122  30.740 -0.0895  0.2720 -0.2332
86127W        W29065  18.825   4.571  29.676  0.0490 -0.3822  0.4337
86128W        W29066  18.364   5.133  30.068  0.1163 -0.0819  0.1496
86129W        W29067  19.937   6.341  28.049 -0.0265  0.0711  0.0404
86130W        W29068  20.238   4.899  30.939  0.1997 -0.0420 -0.1091
86131W        W29069  18.337   4.221  30.406 -0.1469 -0.3810 -0.0267
86132W        W29070  19.145   2.738  28.715  0.1144  0.0692  0.0660
86133W        W29071  19.770   8.986  31.224 -0.1819 -0.0469  0.2808
86134W        W29072  20.744   7.662  29.728  0.1916 -0.0140  0.1406
86135W        W29073  20.768   4.030  29.803  0.1855  0.3681 -0.0812
86136W        W29074  19.884   6.327  31.107  0.0452  0.5346  0.0594
86137W        W29075  18.946   5.823   0.786 -0.0116  0.2893 -0.1221
86138W        W29076  19.103   8.188   0.371  0.1666  0.1308 -0.2845
86139W        W29077  19.123   6.433   0.808  0.2922 -0.1175  0.0469
86140W        W29078  18.712   7.636  30.255 -0.1029 -0.0922 -0.4599
86141W        W29079  20.238   5.689  31.549  0.2963  0.0590 -0.2438
86142W        W29080  18.756   5.281  31.825  0.1959 -0.0291 -0.1548
86143W        W29081  19.385   6.650  31.848 -0.0300  0.0308 -0.0118
86144W        W29082  20.470   8.479  30.634 -0.2485  0.1512  0.1443
86145W        W29083  20.926   5.370  30.498 -0.1179 -0.3547  0.2009
86146W        W29084  20.481   3.951  31.659  0.0238 -0.0715  0.1165
86147W        W29085  22.937   5.135  30.846  0.0994 -0.5329  0.2040
86148W        W29086  19.197   5.079  30.396  0.1811 -0.2239  0.1158
86149W        W29087  21.199   5.077  30.939 -0.0038 -0.1468  0.0187
86150W        W29088  18.496   6.984   0.003  0.1350 -0.5209 -0.4337
86151W        W29089  19.274   5.580  31.252  0.2063  0.0754 -0.0126
86152W        W29090  21.067   6.033  31.184  0.2585 -0.0864 -0.0237
86153W        W29091  19.669   4.303   0.096 -0.1097 -0.2591 -0.4102
86154W        W29092  18.791   2.422  31.669 -0.5241 -0.0045 -0.2364
86155W        W29093  18.408   3.134   0.515 -0.0198 -0.0508 -0.0630
86156W        W29094  19.027   6.918  30.525 -0.3076  0.0300  0.1433
86157W        W29095  21.294   4.268   0.855  0.2631 -0.0161 -0.2525
86158W        W29096  20.593   4.699   0.410  0.1146 -0.1911  0.1496
86159W        W29097  19.154   4.471   0.024  0.0630 -0.1110 -0.1638
86160W        W29098  19.840   4.885  29.848 -0.2377  0.0596  0.4325
86161W        W29099  21.193   4.109  31.302  0.0113 -0.0380  0.3788
86162W        W29100  19.058   6.364  30.730  0.3152  0.1964 -0.0541
86163W        W29101  20.123   4.215  31.294 -0.2113  0.4747  0.1637
86164W        W29102  18.538   4.174  31.474 -0.2337 -0.0961 -0.0532
86165W        W29103  19.997   5.736  30.781 -0.0747  0.3412 -0.2119
86166W        W29104  19.594   4.687  31.800  0.0808 -0.1846  0.1543
86167W        W29105  21.973   4.974  31.867  0.2180 -0.0810 -0.1360
86168W        W29106  20.664   4.329   0.711  0.1324 -0.1995  0.4170
86169W        W29107  17.172   4.507   0.452  0.0374 -0.0382 -0.1851
86170W        W29108  18.909   7.341  31.250 -0.0837  0.3407 -0.1947
86171W        W29109  18.683   6.339  31.051 -0.1276  0.1817  0.0455
86172W        W29110  20.660   5.811  30.652  0.2586 -0.1707 -0.0615
86173W        W29111  21.715   6.635   0.866  0.2390 -0.0368 -0.0092
86174W        W29112  19.755   4.475   0.913  0.3251  0.0890  0.1832
86175W        W29113  20.916   5.236  31.320 -0.1339  0.1052 -0.2427
86176W        W29114  22.035   4.618  31.520 -0.2452 -0.0079  0.0707
86177W        W29115  20.169   5.609   0.036 -0.3434  0.2025  0.1265
86178W        W29116  19.588   9.760   0.456  0.1038  0.1969 -0.3046
86179W        W29117  19.719   5.838  31.211 -0.2168  0.1918  0.5364
86180W        W29118  20.758   4.725   0.969  0.1605  0.1350  0.1488
86181W        W29119  19.800   2.812   0.168 -0.1194  0.2892 -0.1502
86182W        W29120  20.140   6.012   0.336  0.2024 -0.2791 -0.0882
86183W        W29121  22.144   5.155  31.364  0.1627 -0.0878  0.0235
86184W        W29122  18.605   6.584  30.577  0.2041 -0.0149  0.2583
86185W        W29123  20.587   5.189   0.219 -0.1839 -0.0328 -0.3015
86186W        W29124  23.750   3.865  31.415  0.1560  0.0539  0.1175
86187W        W29125  21.285   5.157  31.767  0.1169  0.0214  0.1725
86188W        W29126  19.772   4.993  31.387  0.2989 -0.1784 -0.2013
86189W        W29127  20.659   5.970   0.159 -0.0053  0.2210 -0.0676
86190W        W29128  20.157   7.157  30.992 -0.1656  0.3834 -0.2255
86191W        W29129  21.147   5.479   0.369  0.0840  0.2671  0.3131
86192W        W29130  19.835   6.659  30.665 -0.1919  0.1578  0.0694
86193W        W29131  20.122   8.066   0.026  0.0117  0.1392  0.0662
86194W        W29132  19.477   7.438   0.119  0.0365  0.2089  0.0108
86195W        W29133  18.465   4.311   0.491 -0.2607  0.2392 -0.1033
86196W        W29134  19.481   6.730  30.986 -0.4818 -0.0092  0.1449
86197W        W29135  19.333   6.968  31.447 -0.0180 -0.0617 -0.0564
86198W        W29136  18.054   4.084  31.191 -0.0725  0.3010 -0.0846
86199W        W29137  20.947   7.661  31.785  0.0561  0.0407  0.0212
86200W        W29138  22.370   6.772   1.146  0.0850 -0.0586 -0.2932
86201W        W29139  23.545   5.782  31.668  0.0340 -0.4171  0.2473
86202W        W29140  19.407  10.365  19.309 -0.2015  0.1923 -0.1353
86203W        W29141  18.783   8.483  17.263 -0.2351  0.1046 -0.0941
86204W        W29142  20.577   7.539  15.883  0.1061 -0.0316  0.1503
86205W        W29143  21.217  10.404  16.054 -0.2760 -0.1079  0.0960
86206W        W29144  18.203   7.197  16.442  0.0820  0.0161  0.0184
86207W        W29145  19.775  10.127  17.185  0.2207  0.1425  0.0233
86208W        W29146  19.411   6.340  19.710 -0.1395  0.1144  0.2129
86209W        W29147  20.280   8.848  18.110  0.1735 -0.1832  0.0394
86210W        W29148  22.703   9.526  17.647  0.1400  0.1911 -0.2643
86211W        W29149  20.339   9.166  16.393  0.1449 -0.0404 -0.2025
86212W        W29150  20.207   9.078  18.802 -0.1974 -0.1773  0.0429
86213W        W29151  19.594   9.957  17.691  0.0287  0.2728  0.0642
86214W        W29152  19.371   7.012  15.710  0.1247 -0.1352  0.0645
86215W        W29153  18.738   6.235  18.059 -0.3220 -0.0903 -0.1775
86216W        W29154  20.205   9.301  17.765  0.2020 -0.0108 -0.3482
86217W        W29155  18.362   9.415  17.034  0.4024 -0.1674 -0.0967
86218W        W29156  18.934   9.363  19.119 -0.2640  0.0112 -0.1228
86219W        W29157  19.663   7.912  16.231  0.1946  0.1938 -0.0077
86220W        W29158  18.861   9.515  17.195  0.1287 -0.1369  0.0312
86221W        W29159  19.670   9.012  18.604  0.0135 -0.0765  0.0590
86222W        W29160  21.972   7.532  20.549 -0.3482 -0.1504  0.1496
86223W        W29161  20.123   9.428  16.032 -0.2009  0.0508  0.3649
86224W        W29162  18.916   8.014  17.087 -0.1097 -0.0881  0.2043
86225W        W29163  17.608   7.935  18.401  0.0715  0.1206  0.1562
86226W        W29164  18.223   9.992  17.517 -0.0851  0.0550  0.2225
86227W        W29165  21.824   8.846  17.353 -0.0326 -0.0811  0.0988
86228W        W29166  21.878   8.839  17.816 -0.1344  0.1349  0.1291
86229W        W29167  18.708   9.203  17.977  0.1326 -0.0901  0.1853
86230W        W29168  19.159   8.851  17.287  0.0090  0.2687 -0.0288
86231W        W29169  20.941   7.739  17.694  0.2259 -0.0073  0.0456
86232W        W29170  18.719   7.890  16.579 -0.1201 -0.4427 -0.2118
86233W        W29171  18.583  10.565  18.093 -0.0013  0.0160 -0.2764
86234W        W29172  18.909   9.721  16.275  0.0617  0.0449 -0.2705
86235W        W29173  22.266   9.618  16.319 -0.0612  0.4107  0.1144
86236W        W29174  20.832   8.671  18.152 -0.0897  0.2061 -0.0735
86237W        W29175  19.385  11.795  18.917  0.4035 -0.0880 -0.1239
86238W        W29176  17.748   9.151  15.649 -0.2216 -0.0167 -0.2175
86239W        W29177  20.972   9.183  20.411 -0.1340  0.0045 -0.1383
86240W        W29178  19.942  10.309  19.061  0.2901 -0.3338  0.1345
86241W        W29179  19.672   9.975  18.722 -0.2226  0.0757 -0.0349
86242W        W29180  21.014   7.845  18.326 -0.2299 -0.0211 -0.0969
86243W        W29181  20.935  10.734  16.459  0.0134  0.1816 -0.5151
86244W        W29182  20.959   9.174  17.178  0.1560 -0.2268 -0.2464
86245W        W29183  19.386   6.903  20.648 -0.1254  0.0411  0.1244
86246W        W29184  18.041   9.126  17.725 -0.0647  0.0219 -0.1162
86247W        W29185  21.485   8.317  18.290 -0.1708 -0.3027 -0.0571
86248W        W29186  18.869  11.436  15.546  0.3701 -0.0920  0.4686
86249W        W29187  20.658  10.789  17.185 -0.0370  0.1121  0.0060
86250W        W29188  20.007   7.877  14.928  0.3253 -0.5202  0.1143
86251W        W29189  21.105   9.343  15.649 -0.0019 -0.0292  0.3249
86252W        W29190  21.237   7.435  17.913 -0.1125 -0.2994  0.2693
86253W        W29191  19.232  10.027  18.398  0.1100 -0.1906 -0.0405
86254W        W29192  19.713   8.709  18.067  0.2704 -0.0275 -0.3161
86255W        W29193  22.503   8.097  18.716  0.0962 -0.1245 -0.2579
86256W        W29194  19.475   8.186  17.258 -0.2299  0.0563 -0.0004
86257W        W29195  21.429   8.982  17.659  0.1338  0.0184 -0.2097
86258W        W29196  17.245   8.728  18.243 -0.0182 -0.0139  0.0112
86259W        W29197  19.269   8.129  18.278 -0.1923 -0.0065 -0.1885
86260W        W29198  21.555  10.752  16.109  0.3861 -0.0823 -0.1375
86261W        W29199  20.750  10.303  17.833  0.2850  0.0669 -0.1516
86262W        W29200  21.388  10.688  15.119 -0.0836  0.2175  0.2621
86263W        W29201  18.488   8.522  16.268  0.0067  0.0428  0.1342
86264W        W29202  18.114   8.643  19.203 -0.2039  0.0168  0.1263
86265W        W29203  18.193   9.433  18.783 -0.3246  0.3792  0.0681
86266W        W29204  19.211   7.608  16.434 -0.0031 -0.0615  0.0679
86267W        W29205  21.782   9.910  19.789 -0.1995  0.2786 -0.2431
86268W        W29206  19.159  10.162  17.935  0.1952  0.3146 -0.2449
86269W        W29207  22.211   7.869  17.223 -0.1973 -0.1306  0.0167
86270W        W29208  20.583  10.630  18.143  0.3357 -0.0247 -0.1941
86271W        W29209  22.545   8.813  17.289  0.0608  0.2575 -0.2217
86272W        W29210  20.145   8.700  16.335 -0.4243 -0.0471 -0.3978
86273W        W29211  21.511   6.697  18.910  0.1299 -0.1821 -0.0142
86274W        W29212  21.630   6.909  19.728 -0.0879  0.0873 -0.2382
86275W        W29213  18.184   8.445  16.662 -0.2269 -0.1684 -0.3253
86276W        W29214  19.242   9.646  18.835  0.2359  0.0249  0.0752
86277W        W29215  22.187   9.990  20.062 -0.1311  0.0186  0.0648
86278W        W29216  22.041   8.868  15.582 -0.0929 -0.1823  0.2289
86279W        W29217  18.134   9.910  19.273  0.2217 -0.2996 -0.0775
86280W        W29218  20.211   8.206  18.832  0.0615 -0.3517  0.1106
86281W        W29219  20.117   9.110  19.264 -0.3425  0.0561 -0.2843
86282W        W29220  18.705   9.928  15.307 -0.4135  0.0403  0.0636
86283W        W29221  18.273   8.618  17.200  0.0374 -0.2017 -0.0039
86284W        W29222  18.365   9.102  16.217 -0.1035 -0.1213 -0.0328
86285W        W29223  19.018   7.120  18.411  0.3571 -0.0190  0.0198
86286W        W29224  18.623   9.185  18.611  0.2452 -0.0908 -0.0056
86287W        W29225  20.060   6.921  16.388  0.2861  0.0380 -0.0148
86288W        W29226  18.591   6.741  19.519  0.2691 -0.0530  0.0374
86289W        W29227  20.249   6.962  17.569  0.1152  0.0468 -0.1765
86290W        W29228  17.963   9.368  16.040  0.0840 -0.0722 -0.0920
86291W        W29229  21.493  10.100  17.189 -0.0989 -0.0988 -0.2870
86292W        W29230  21.687  10.356  15.813 -0.2230  0.0077  0.2325
86293W        W29231  19.667   9.976  15.456 -0.4432  0.1456  0.4209
86294W        W29232  18.684   6.759  19.040 -0.1577 -0.1781  0.1781
86295W        W29233  17.687   7.596  17.267  0.1256 -0.0135 -0.3003
86296W        W29234  19.290   7.599  20.277  0.2692  0.3280  0.0946
86297W        W29235  18.409   7.874  17.941  0.0123  0.0097  0.1022
86298W        W29236  21.851   7.845  18.192 -0.2433 -0.0521 -0.1114
86299W        W29237  17.788   7.176  15.388  0.1594  0.1232 -0.1685
86300W        W29238  19.551   8.233  17.925  0.0045  0.0420  0.0041
86301W        W29239  20.059   8.242  16.506  0.0217 -0.0193  0.0779
86302W        W29240  17.959   9.484  17.335  0.1159 -0.1460  0.0442
86303W        W29241  21.289   7.081  19.408  0.2103  0.1517  0.0370
86304W        W29242  19.227   9.453  16.026  0.5214 -0.1286  0.0510
86305W        W29243  21.801  11.530  18.512  0.1119  0.1323 -0.0959
86306W        W29244  20.263  10.579  17.728 -0.1799 -0.0369  0.2577
86307W        W29245  19.970   8.218  19.686  0.0661  0.2082  0.2085
86308W        W29246  18.798   7.703  17.530  0.1200  0.1108  0.1987
86309W        W29247  17.818  11.068  16.638  0.2115 -0.0123 -0.1369
86310W        W29248  19.814  11.002  15.553  0.1899 -0.0678 -0.3166
86311W        W29249  18.643   7.537  15.544  0.0311 -0.4422  0.0260
86312W        W29250  20.682  11.530  18.269 -0.2881  0.3285 -0.1320
86313W        W29251  18.780   9.245  15.979  0.2042 -0.2562  0.1205
86314W        W29252  18.458   8.533  18.811  0.0748 -0.0993 -0.2599
86315W        W29253  21.106   7.672  18.760  0.0179 -0.0265 -0.1482
86316W        W29254  21.075   9.019  19.182 -0.1645 -0.1976  0.1112
86317W        W29255  20.970   9.670  16.816 -0.3341  0.0074 -0.1031
86318W        W29256  17.589   7.814  16.004 -0.0179  0.1816  0.0110
86319W        W29257  19.717  10.166  18.105  0.0765 -0.0315  0.0717
86320W        W29258  18.779   8.924  16.456 -0.0927  0.1965  0.0175
86321W        W29259  17.037   9.750  17.139  0.0926 -0.2138 -0.0121
86322W        W29260  19.128  11.084  16.180  0.0525 -0.1200 -0.2702
86323W        W29261  22.523   6.406  18.196 -0.0449 -0.2555  0.2060
86324W        W29262  17.880   8.620  20.654 -0.2611 -0.1665  0.1674
86325W        W29263  20.621   9.512  17.347  0.2908  0.1915  0.2044
86326W        W29264  17.821   7.094  16.741  0.1474  0.2508 -0.1707
86327W        W29265  17.748  10.647  19.780  0.1225 -0.1298  0.1319
86328W        W29266  21.343   8.618  16.360  0.0424 -0.0332  0.0082
86329W        W29267  21.086   7.517  16.002  0.1592 -0.3281  0.3057
86330W        W29268  20.530   9.505  20.177  0.3328  0.1930  0.4354
86331W        W29269  21.845   9.855  16.508 -0.1289 -0.1060  0.0869
86332W        W29270  20.420   7.810  16.682  0.3334 -0.0553  0.2231
86333W        W29271  19.463   8.272  15.950  0.1201 -0.3759 -0.0259
86334W        W29272  17.854   9.468  18.365 -0.1019  0.0615  0.1080
86335W        W29273  19.692   9.901  16.718  0.3046 -0.1892  0.0145
86336W        W29274  19.847   8.983  17.640  0.5090 -0.0339  0.1951
86337W        W29275  19.513   8.549  16.364  0.0341  0.0993  0.0818
86338W        W29276  22.506  10.731  17.099  0.3619  0.0792 -0.1322
86339W        W29277  17.726   8.750  18.678 -0.0686  0.0928 -0.1283
86340W        W29278  19.788   9.531  17.523  0.2234 -0.0500 -0.0696
86341W        W29279  18.097   9.313  16.585 -0.0357 -0.0440 -0.2448
86342W        W29280  19.633   8.078  19.269 -0.0199  0.1273  0.0961
86343W        W29281  19.014   8.479  16.285 -0.0043 -0.0755 -0.2459
86344W        W29282  20.755   9.175  17.670  0.2907 -0.2527 -0.0056
86345W        W29283  17.205  10.457  16.205  0.1833  0.1611  0.4924
86346W        W29284  21.029   7.360  18.340 -0.3517  0.0532  0.0962
86347W        W29285  21.138   8.753  18.521  0.2341  0.2197 -0.1922
86348W        W29286  19.593   8.305  16.766  0.3234  0.1111 -0.1320
86349W        W29287  21.722   8.797  19.850  0.1614  0.1478 -0.0382
86350W        W29288  21.387   9.200  16.664 -0.1935 -0.1033 -0.0992
86351W        W29289  20.453   8.277  19.267  0.1735  0.3200 -0.2148
86352W        W29290  18.179   7.572  17.335  0.1391 -0.1256  0.0737
86353W        W29291  20.658   7.450  18.019 -0.0700 -0.0739  0.3175
86354W        W29292  18.596   8.581  19.368  0.1863  0.1036  0.0816
86355W        W29293  19.363  10.339  17.345  0.1949 -0.0905  0.0317
86356W        W29294  20.956   9.472  19.427 -0.1808  0.0009  0.2030
86357W        W29295  21.354   9.624  18.043  0.0553 -0.3173  0.0583
86358W        W29296  21.761   7.403  18.802  0.0605 -0.1820  0.0782
86359W        W29297  19.638   7.274  17.643 -0.2766  0.2194 -0.2641
86360W        W29298  20.130   9.667  16.455 -0.1533 -0.4152 -0.1246
86361W        W29299  19.210   9.050  16.801 -0.2506 -0.1518 -0.0862
86362W        W29300  19.761   8.117  18.381 -0.2613  0.0563 -0.1137
86363W        W29301  19.189   9.243  17.547 -0.1128  0.3082  0.0782
86364W        W29302  18.792  10.271  15.720  0.0680  0.0112  0.3383
86365W        W29303  19.605   9.890  19.228  0.1346  0.2774  0.0816
86366W        W29304  20.301  10.378  17.276 -0.0225 -0.0466  0.0750
86367W        W29305  20.575   7.471  17.528  0.2238  0.3091 -0.2246
86368W        W29306  17.966   9.057  17.049  0.2426 -0.5214 -0.0443
86369W        W29307  18.612   6.327  16.448  0.0177  0.1286  0.0676
86370W        W29308  17.808   8.566  17.397 -0.0799 -0.2423 -0.3468
86371W        W29309  20.321   7.326  16.294  0.2232  0.3887 -0.0798
86372W        W29310  20.933   8.867  15.747  0.1314  0.0431 -0.0369
86373W        W29311  20.268   7.047  18.095  0.1219  0.1064 -0.3425
86374W        W29312  19.601   8.624  17.171  0.1114 -0.3482 -0.0107
86375W        W29313  18.425   9.497  17.550  0.0835  0.1477  0.0783
86376W        W29314  21.021   8.258  17.886 -0.1154  0.0335  0.2265
86377W        W29315  20.802   7.144  16.243 -0.0454 -0.2460  0.0042
86378W        W29316  21.013   9.238  18.647 -0.0046 -0.0469  0.0945
86379W        W29317  18.357   9.551  19.702 -0.3000 -0.0560 -0.0201
86380W        W29318  17.713   8.610  16.851  0.0549 -0.3035 -0.3628
86381W        W29319  22.597   8.248  17.379 -0.0488 -0.0402 -0.0310
86382W        W29320  19.641   9.122  17.189 -0.4207 -0.0821 -0.3492
86383W        W29321  17.315   8.576  17.277  0.2236  0.0155 -0.1955
86384W        W29322  19.418  10.788  15.792  0.3457 -0.0264  0.0227
86385W        W29323  17.998   7.568  16.806 -0.0195  0.1079 -0.5831
86386W        W29324  19.199  10.083  16.938  0.2068 -0.0281  0.3989
86387W        W29325  19.564   8.503  19.528 -0.0235 -0.1180  0.0011
86388W        W29326  20.924  10.927  18.700  0.0844 -0.2952  0.0092
86389W        W29327  19.915   8.432  17.672 -0.1717  0.1038 -0.3049
86390W        W29328  19.351   7.238  17.115  0.0513  0.0869 -0.1757
86391W        W29329  20.288   8.670  19.067  0.1759  0.1297 -0.2421
86392W        W29330  20.609   9.227  19.036 -0.0321 -0.3523  0.0597
86393W        W29331  20.724   8.092  18.789 -0.0917 -0.0758  0.1599
86394W        W29332  19.147  10.118  19.688  0.0221 -0.1738 -0.1292
86395W        W29333  18.324   7.160  18.373 -0.1498  0.0018  0.0440
86396W        W29334  21.501  11.713  17.683 -0.0425 -0.0284  0.0011
86397W        W29335  20.027   8.626  18.557  0.3493  0.2593 -0.6344
86398W        W29336  18.375   8.038  17.133 -0.3129 -0.0653 -0.0307
86399W        W29337  18.033   8.213  18.729 -0.0141 -0.0404  0.1909
86400W        W29338  21.234   8.824  16.916  0.0395  0.0437 -0.2489
86401W        W29339  19.421   8.643  17.657  0.0901 -0.1961 -0.2690
86402W        W29340  18.287   8.033  20.000  0.1556 -0.0022  0.3277
86403W        W29341  18.684   9.096  15.461 -0.1155  0.2058 -0.0332
86404W        W29342  17.717   7.714  17.760 -0.1165 -0.1465  0.2178
86405W        W29343  20.711   7.748  16.317  0.2126 -0.4683 -0.1525
86406W        W29344  19.442   9.446  16.564  0.1757 -0.3132 -0.0046
86407W        W29345  20.321   8.818  17.600 -0.0875  0.2762  0.2392
86408W        W29346  21.296   7.517  19.724  0.1610  0.1386  0.3108
86409W        W29347  20.846   8.048  17.312  0.2200 -0.1461 -0.1807
86410W        W29348  20.550   8.394  17.854 -0.2017  0.0860 -0.2381
86411W        W29349  19.433   5.630  19.844 -0.3971  0.0761  0.0776
86412W        W29350  21.268   9.677  16.319 -0.2354 -0.0929 -0.1351
86413W        W29351  17.612   7.374  19.201  0.1716 -0.0019  0.0538
86414W        W29352  20.565   9.571  21.217 -0.0738 -0.1342 -0.1779
86415W        W29353  18.922   7.832  18.004 -0.1281 -0.3534 -0.0578
86416W        W29354  21.407   8.052  16.386  0.0053 -0.0218 -0.0863
86417W        W29355  17.920   7.037  16.112  0.1858  0.1425  0.0441
86418W        W29356  19.517   9.487  18.440 -0.1574 -0.3259 -0.0159
86419W        W29357  21.049   9.795  17.294  0.0683  0.1433  0.0286
86420W        W29358  20.148  10.190  16.788 -0.1488 -0.0789 -0.1798
86421W        W29359  21.431   7.962  17.971 -0.0017  0.1869  0.3621
86422W        W29360  19.102   8.229  17.692 -0.0315  0.0019 -0.0054
86423W        W29361  21.898   7.922  17.581 -0.2148 -0.1388 -0.0423
86424W        W29362  20.531   8.241  16.908  0.0967 -0.2011  0.2523
86425W        W29363  18.924   8.772  17.725  0.0047 -0.0183 -0.3470
86426W        W29364  19.697   6.807  17.841  0.2313  0.0959 -0.1000
86427W        W29365  22.234   7.351  19.243  0.2691  0.4718 -0.2498
86428W        W29366  19.935   7.938  17.957 -0.2124 -0.0764  0.2519
86429W        W29367  20.800   7.065  19.676  0.2225 -0.2846 -0.1369
86430W        W29368  21.230   7.278  20.183 -0.0223 -0.0114 -0.0923
86431W        W29369  19.661   7.660  19.024  0.2798 -0.2371 -0.1359
86432W        W29370  18.850   6.387  20.390 -0.0030  0.0453 -0.1474
86433W        W29371  21.239  10.536  18.926 -0.2659  0.2042 -0.2110
86434W        W29372  20.697   9.640  15.703  0.0394  0.2482  0.0682
86435W        W29373  20.446   7.889  17.797  0.3206 -0.0234 -0.2122
86436W        W29374  20.406   9.865  16.015  0.0595  0.1318  0.0320
86437W        W29375  20.453   8.778  16.723  0.1140 -0.0546  0.0506
86438W        W29376  18.717   6.782  17.694  0.0836 -0.2651 -0.0972
86439W        W29377  21.356   9.587  19.952  0.3817 -0.2112  0.0186
86440W        W29378  19.230   7.776  15.878  0.0384  0.3734 -0.1646
86441W        W29379  20.556   7.094  19.144 -0.1310 -0.0215  0.0137
86442W        W29380  20.798   9.580  16.306 -0.1364  0.0822 -0.0077
86443W        W29381  20.102  10.015  17.632 -0.1349 -0.0257  0.0092
86444W        W29382  21.785   6.937  18.525 -0.0159  0.0713  0.0245
86445W        W29383  18.926   7.530  17.080  0.0837 -0.4426 -0.1462
86446W        W29384  18.332   9.962  18.844 -0.0101  0.0239 -0.1233
86447W        W29385  18.649   8.535  15.261  0.3736 -0.0526  0.2295
86448W        W29386  18.732   9.024  17.004 -0.0025  0.3061  0.2209
86449W        W29387  20.592   9.955  17.104 -0.1311 -0.1814  0.0980
86450W        W29388  20.951   7.407  19.297  0.1201  0.3308  0.0538
86451W        W29389  20.296   6.993  15.234 -0.1421  0.2347 -0.1475
86452W        W29390  22.085   7.737  18.723  0.4119 -0.0204 -0.0712
86453W        W29391  18.057   8.158  15.914  0.0553 -0.0498  0.1366
86454W        W29392  19.913   7.925  17.465  0.1516  0.0057 -0.1435
86455W        W29393  18.977   9.557  18.297 -0.0916 -0.0702 -0.0927
86456W        W29394  17.154   9.132  17.154  0.0862  0.2720 -0.3311
86457W        W29395  19.289   9.675  17.912 -0.0204 -0.2572 -0.0468
86458W        W29396  22.006   6.485  18.832  0.1858 -0.1887  0.2001
86459W        W29397  20.553   8.290  16.436  0.0555 -0.0263 -0.0198
86460W        W29398  21.067   9.134  18.015 -0.0481  0.0474 -0.2373
86461W        W29399  22.268   8.397  19.206  0.1164  0.0245  0.3444
86462W        W29400  19.979   9.561  18.698 -0.1271  0.0554  0.0802
86463W        W29401  20.115   9.756  17.154 -0.1165  0.0468 -0.1605
86464W        W29402  20.510   9.409  19.657 -0.3402 -0.1558 -0.0134
86465W        W29403  20.493   8.019  15.884 -0.0286 -0.2917  0.2229
86466W        W29404  19.296   9.965  16.410  0.0168  0.1788  0.1206
86467W        W29405  17.251   6.340  19.217 -0.1979  0.3524  0.2568
86468W        W29406  19.176   9.080  18.176 -0.0689 -0.0998  0.1009
86469W        W29407  20.486   8.454  18.441  0.0401  0.3638 -0.1907
86470W        W29408  18.487   7.912  16.010 -0.0214 -0.2312  0.0723
86471W        W29409  19.637  10.320  15.968  0.1562  0.0203  0.0340
86472W        W29410  18.010   9.281  19.953 -0.1290  0.2095  0.2894
86473W        W29411  18.635   7.525  18.468 -0.0465 -0.2465  0.0634
86474W        W29412  18.402   9.563  16.203  0.1814 -0.2353  0.0126
86475W        W29413  20.160  10.385  15.904  0.2106 -0.0181 -0.0154
86476W        W29414  20.821  10.322  17.320  0.1972 -0.0952  0.0438
86477W        W29415  20.491  10.413  16.256 -0.1638  0.0252 -0.0083
86478W        W29416  19.837   8.176  15.359  0.1752 -0.1819 -0.1476
86479W        W29417  19.600  11.916  15.803  0.0361  0.1772 -0.0374
86480W        W29418  17.906   9.580  15.468  0.3023 -0.1876  0.0679
86481W        W29419  22.012  11.757  15.662  0.0549 -0.0477  0.3379
86482W        W29420  18.327   8.919  16.704  0.1525  0.3443 -0.1952
86483W        W29421  20.442  10.024  18.861  0.0117  0.1779 -0.2486
86484W        W29422  20.272   7.946  15.395  0.1123 -0.2103 -0.1407
86485W        W29423  24.204   8.657  18.617  0.0305 -0.1361 -0.0302
86486W        W29424  21.387   8.608  17.329  0.1575  0.1927 -0.0692
86487W        W29425  21.125  10.064  18.063 -0.1720 -0.3781  0.1033
86488W        W29426  20.172  10.247  18.074  0.0751  0.0544  0.1532
86489W        W29427  19.179   8.996  16.205 -0.2682 -0.1467  0.2596
86490W        W29428  20.228   6.911  19.855  0.2956 -0.3594  0.1459
86491W        W29429  21.829   6.671  20.271  0.3872 -0.1902 -0.3873
86492W        W29430  18.436  11.789  19.235  0.0864  0.0500  0.0631
86493W        W29431  20.453  11.115  18.010  0.2454  0.0869  0.2566
86494W        W29432  18.875   7.736  18.832  0.2373  0.1501 -0.3486
86495W        W29433  19.653   9.673  16.215 -0.3772 -0.0212  0.0141
86496W        W29434  21.806   6.046  18.557 -0.1455  0.1416 -0.0010
86497W        W29435  19.321  10.320  15.560 -0.1852 -0.2468  0.2149
86498W        W29436  20.097   8.729  17.079 -0.2638  0.0134 -0.0115
86499W        W29437  19.685  12.729  16.055 -0.0919 -0.2615 -0.0228
86500W        W29438  18.515   8.954  17.494 -0.2335  0.0789  0.2652
86501W        W29439  18.632   9.393  16.595 -0.0951  0.2543 -0.2403
86502W        W29440  18.302   8.066  15.465  0.2042 -0.0988  0.0150
86503W        W29441  22.241   9.004  18.494  0.0916  0.0114 -0.2809
86504W        W29442  19.212   9.063  19.694  0.0813  0.2408 -0.0548
86505W        W29443  22.286   8.839  20.122  0.0065 -0.1590  0.0999
86506W        W29444  20.083   8.070  16.990 -0.0526  0.1726 -0.1691
86507W        W29445  22.188   7.446  16.866 -0.0442 -0.3750  0.2076
86508W        W29446  19.705   9.041  19.522  0.0867 -0.1972 -0.4758
86509W        W29447  19.888   9.564  19.490  0.1383 -0.0922 -0.1379
86510W        W29448  18.785   8.768  15.934  0.1742 -0.2242 -0.0361
86511W        W29449  21.972   8.766  18.849  0.0490 -0.0354 -0.1146
86512W        W29450  19.834   7.887  15.778  0.1403 -0.1578 -0.1163
86513W        W29451  22.333  11.603  18.705  0.3502  0.3259  0.0603
86514W        W29452  19.267   6.293  18.801  0.0464 -0.1647 -0.1789
86515W        W29453  20.076   8.292  15.993  0.0865  0.1288  0.0334
86516W        W29454  19.448   9.601  17.098 -0.0595  0.1502 -0.2710
86517W        W29455  19.427   8.538  18.550 -0.1399 -0.4407  0.0660
86518W        W29456  22.370   9.073  19.234 -0.1992  0.2299  0.2069
86519W        W29457  19.097   7.135  16.683 -0.0576 -0.2717 -0.0197
86520W        W29458  21.453   9.983  16.020  0.1950  0.0427 -0.0635
86521W        W29459  21.542   9.066  18.565 -0.1009 -0.1317 -0.2013
86522W        W29460  19.137  10.432  16.112 -0.0679 -0.0593 -0.3479
86523W        W29461  22.000   9.991  16.067 -0.2340  0.0530 -0.1573
86524W        W29462  21.405  10.878  18.412 -0.1868  0.1279  0.2937
86525W        W29463  20.207   7.262  18.673  0.1241 -0.1765  0.2040
86526W        W29464  21.521   9.699  19.421 -0.1384 -0.0560  0.4577
86527W        W29465  21.749   9.608  17.242  0.0598  0.0317  0.0521
86528W        W29466  20.647   7.568  18.539  0.2248  0.2592  0.1618
86529W        W29467  19.194   8.076  16.506 -0.0071  0.0295 -0.2285
86530W        W29468  19.257  11.166  18.002 -0.0387 -0.0373 -0.2552
86531W        W29469  21.873   7.552  17.277 -0.1235 -0.1472  0.0403
86532W        W29470  19.388   7.127  18.068  0.1082 -0.1590 -0.1242
86533W        W29471  18.253   8.548  18.306 -0.0631 -0.0219 -0.2325
86534W        W29472  21.583   5.555  19.530 -0.1131  0.3813  0.3649
86535W        W29473  20.419  10.922  19.015  0.0751 -0.2075  0.0770
86536W        W29474  20.036  10.037  19.471 -0.1408  0.1725  0.2405
86537W        W29475  18.486   7.571  16.865  0.1005  0.1484 -0.1374
86538W        W29476  18.026   9.912  18.420 -0.2148 -0.1278 -0.2316
86539W        W29477  17.694  10.570  16.225 -0.3632 -0.1231  0.0599
86540W        W29478  19.796   8.840  16.708  0.0745  0.1233 -0.2937
86541W        W29479  20.993   8.013  16.658 -0.3974  0.0552  0.1274
86542W        W29480  20.084   9.248  18.318  0.2680 -0.0319 -0.0564
86543W        W29481  20.790  10.780  17.731  0.0868  0.0694 -0.0347
86544W        W29482  19.349   7.113  16.224 -0.4454  0.0516 -0.0381
86545W        W29483  20.228   7.518  18.267 -0.0860  0.0346  0.0806
86546W        W29484  22.482   7.053  17.700 -0.0658 -0.1020  0.0647
86547W        W29485  18.452   9.083  19.156 -0.1929  0.0342  0.1369
86548W        W29486  18.554   8.349  15.788 -0.2678 -0.3241  0.2295
86549W        W29487  19.169   8.560  15.722  0.0840 -0.1985 -0.0178
86550W        W29488  18.740   8.717  18.373  0.3468 -0.1996 -0.0303
86551W        W29489  19.394   7.366  20.787  0.1010  0.2344 -0.0328
86552W        W29490  18.344   5.451  19.389 -0.1378 -0.1973  0.0567
86553W        W29491  17.184   8.407  19.737 -0.1558 -0.1670  0.0654
86554W        W29492  19.105   7.282  17.578 -0.0208 -0.1556  0.0749
86555W        W29493  22.638  10.315  16.871 -0.0606 -0.1683  0.0166
86556W        W29494  18.097   6.768  18.051 -0.0322  0.0654 -0.2599
86557W        W29495  17.699   7.486  16.463  0.1116 -0.2194  0.0580
86558W        W29496  20.516   9.995  16.591  0.0270  0.1648  0.0401
86559W        W29497  21.666  10.280  16.327 -0.1429 -0.0482  0.1508
86560W        W29498  16.657   7.686  15.736  0.2472 -0.2347  0.2428
86561W        W29499  22.184  10.263  18.794  0.1312  0.1635  0.0890
86562W        W29500  17.451  10.021  16.161 -0.0919 -0.0027  0.0028
86563W        W29501  19.817   7.661  19.738  0.2730  0.1436  0.0351
86564W        W29502  18.920   8.801  18.992 -0.3740  0.0999 -0.1233
86565W        W29503  16.588   7.130  15.630  0.3566  0.2092  0.1332
86566W        W29504  21.535   7.418  18.318  0.0286 -0.0276  0.2376
86567W        W29505  21.329  11.057  16.472 -0.1738  0.1966 -0.0253
86568W        W29506  20.925   9.960  15.992 -0.0921  0.0597  0.0495
86569W        W29507  20.631   9.208  18.230  0.1128 -0.0840 -0.1014
86570W        W29508  18.808  12.058  18.949 -0.1622 -0.0491  0.3605
86571W        W29509  19.250   7.659  18.466 -0.0883  0.4049  0.0462
86572W        W29510  20.187   9.196  17.251  0.2444 -0.2282 -0.1509
86573W        W29511  19.238  10.664  18.016 -0.0613  0.2365 -0.0395
86574W        W29512  21.559   9.497  15.922 -0.1276 -0.2314 -0.2040
86575W        W29513  22.089   7.065  19.609 -0.0091 -0.0618  0.0502
86576W        W29514  21.709   8.068  17.165 -0.1457  0.0105 -0.0024
86577W        W29515  18.062   7.646  19.146 -0.2541 -0.0314  0.1992
86578W        W29516  18.053   7.086  19.329  0.1453 -0.0181  0.0230
86579W        W29517  20.922   9.297  19.883 -0.1616 -0.2141  0.1107
86580W        W29518  18.719   7.385  16.460  0.0185  0.0173  0.1069
86581W        W29519  21.268   6.831  17.965  0.0339 -0.2461  0.1621
86582W        W29520  20.949  10.380  15.125  0.1233  0.0982 -0.0612
86583W        W29521  19.300   7.731  17.406  0.1162 -0.1977  0.2630
86584W        W29522  19.765   7.525  17.165 -0.1450 -0.2254  0.3550
86585W        W29523  20.624   8.868  18.607  0.1487 -0.1225 -0.0800
86586W        W29524  19.053   9.651  16.732  0.0564  0.2567 -0.2054
86587W        W29525  20.385   7.669  18.978  0.1401 -0.1908  0.1997
86588W        W29526  19.771   9.030  16.191 -0.0822  0.1941 -0.0701
86589W        W29527  21.481   9.162  17.168 -0.3851  0.1163 -0.2422
86590W        W29528  21.461   9.927  17.655 -0.4645 -0.2030 -0.0304
86591W        W29529  22.246   9.158  19.743  0.3373  0.0920  0.0753
86592W        W29530  21.347  10.282  18.429  0.2731 -0.0632 -0.0090
86593W        W29531  20.310   8.078  20.164 -0.0393  0.0513 -0.1815
86594W        W29532  18.663   5.383  18.537  0.2295  0.0994 -0.0813
86595W        W29533  19.271   7.335  18.887 -0.0682 -0.0274  0.3293
86596W        W29534  19.871   9.357  16.791 -0.3124  0.0884  0.0682
86597W        W29535  20.939   8.516  16.682  0.1524 -0.0693  0.3571
86598W        W29536  20.859   8.604  17.198 -0.2192  0.1849  0.1983
86599W        W29537  20.314   7.570  17.096 -0.0798  0.1312  0.3084
86600W        W29538  20.471  11.026  18.511 -0.0553  0.0522 -0.0749
86601W        W29539  19.556   9.267  17.941 -0.1635 -0.0312  0.1787
86602W        W29540  18.157   9.976  22.081 -0.1251  0.0202 -0.0631
86603W        W29541  18.875   7.174  20.027 -0.3295 -0.1810 -0.0205
86604W        W29542  20.762   7.872  19.208  0.0935 -0.2428 -0.1461
86605W        W29543  21.713   9.673  20.285 -0.4812 -0.3666  0.0642
86606W        W29544  17.188   7.163  22.279 -0.1253 -0.2139 -0.0726
86607W        W29545  20.476  10.867  20.668  0.2107 -0.0238 -0.0755
86608W        W29546  19.040   7.063  22.831 -0.1160  0.0934 -0.1628
86609W        W29547  20.000   8.438  21.594  0.0266  0.0018  0.3479
86610W        W29548  22.115  11.015  22.449  0.0759  0.1285 -0.0073
86611W        W29549  19.679   9.386  19.087  0.0488 -0.3314 -0.0325
86612W        W29550  18.400   8.185  21.940  0.0801 -0.4521  0.0201
86613W        W29551  19.371  10.194  21.693 -0.0455 -0.4501 -0.3349
86614W        W29552  21.433   7.472  21.179 -0.1692 -0.1486  0.1650
86615W        W29553  18.147   5.839  21.382  0.3870  0.1305 -0.3491
86616W        W29554  20.366  10.267  22.697 -0.0591 -0.0150  0.0675
86617W        W29555  18.633   7.728  21.030 -0.1219 -0.2682  0.1514
86618W        W29556  19.871   6.684  22.412  0.1064 -0.3262 -0.0159
86619W        W29557  19.804   8.246  20.237 -0.1107  0.1509 -0.1688
86620W        W29558  21.643  10.056  22.298 -0.0926  0.2142  0.0880
86621W        W29559  19.814   8.309  22.362  0.2539  0.1732  0.0382
86622W        W29560  20.505   7.108  24.179  0.4005  0.0036  0.3338
86623W        W29561  20.216  10.988  19.446 -0.0384 -0.0953 -0.2716
86624W        W29562  19.161   7.674  19.251 -0.4434  0.1085  0.1015
86625W        W29563  17.250   7.805  21.461  0.0140  0.1421  0.0163
86626W        W29564  19.290   8.292  22.338 -0.1984 -0.0369  0.1010
86627W        W29565  21.749   7.590  23.104  0.2146  0.1219 -0.1494
86628W        W29566  20.146   7.956  22.114 -0.2006 -0.0987 -0.0604
86629W        W29567  18.598   8.274  20.840 -0.0475 -0.0883 -0.1801
86630W        W29568  21.171   9.944  21.313 -0.0977  0.4701  0.0594
86631W        W29569  20.631   8.086  21.914 -0.0783  0.0482 -0.1529
86632W        W29570  17.093   8.509  20.905 -0.1634 -0.1723  0.0567
86633W        W29571  18.024   9.722  21.170 -0.0974  0.0003  0.1352
86634W        W29572  21.338  10.060  19.838  0.3348  0.0996 -0.0453
86635W        W29573  21.109  10.143  20.290  0.0323 -0.1123 -0.2627
86636W        W29574  20.925  11.178  23.813  0.2049 -0.2401  0.1726
86637W        W29575  21.614  11.292  22.466  0.2023 -0.2077  0.0526
86638W        W29576  18.667   8.782  20.441  0.0742  0.2095 -0.0991
86639W        W29577  19.855  10.349  21.977  0.1794 -0.3097  0.0338
86640W        W29578  18.026   9.847  23.425 -0.0537 -0.3923  0.0317
86641W        W29579  21.706   8.319  22.719 -0.1826  0.1363  0.0185
86642W        W29580  21.020   8.324  22.398  0.0807 -0.4124 -0.0564
86643W        W29581  20.252   9.599  19.192 -0.0459  0.0972 -0.2176
86644W        W29582  20.982   9.347  21.302  0.1275 -0.0855  0.3027
86645W        W29583  19.573   9.807  23.688  0.2428  0.0815  0.0465
86646W        W29584  19.014   9.778  21.390 -0.1448 -0.1349  0.1272
86647W        W29585  21.619   8.643  24.758  0.2074 -0.2481 -0.0041
86648W        W29586  18.939   9.864  19.250  0.2348 -0.4015 -0.2091
86649W        W29587  22.242   8.638  19.673 -0.0749 -0.3748 -0.0942
86650W        W29588  21.183   6.803  19.896 -0.2591  0.2880 -0.0424
86651W        W29589  22.145   8.001  21.798 -0.0777  0.1001 -0.3418
86652W        W29590  19.475   7.138  20.215  0.2123 -0.0077 -0.1509
86653W        W29591  20.359  11.004  22.058 -0.1374 -0.1385  0.0523
86654W        W29592  20.559   7.380  21.136  0.6200  0.2501  0.1192
86655W        W29593  20.189  10.836  22.711 -0.1893 -0.1618  0.1457
86656W        W29594  21.027   8.789  19.739  0.0306 -0.0962  0.2723
86657W        W29595  19.460   8.879  21.325 -0.1677 -0.0360  0.0234
86658W        W29596  19.473  10.679  21.927  0.2919 -0.0587  0.1046
86659W        W29597  18.192   8.812  20.127 -0.3327  0.0722  0.0285
86660W        W29598  21.040   9.968  19.413  0.0148  0.1176  0.0815
86661W        W29599  19.645   9.337  21.298 -0.0410 -0.2579 -0.1998
86662W        W29600  20.547   9.962  19.347  0.2030  0.3224 -0.0135
86663W        W29601  18.951   8.361  20.504 -0.3298  0.1275  0.5034
86664W        W29602  19.208   8.781  22.899  0.1932  0.0484  0.1347
86665W        W29603  19.070   9.291  24.048 -0.2525 -0.0313  0.1294
86666W        W29604  20.047   7.321  19.131 -0.1694 -0.1745  0.1649
86667W        W29605  21.913  10.984  23.699  0.0219 -0.3315 -0.1910
86668W        W29606  17.160   8.431  22.245  0.1358 -0.2834 -0.0539
86669W        W29607  22.600   8.280  21.709  0.1283 -0.0337  0.0524
86670W        W29608  19.620   8.068  21.981  0.0957 -0.0552  0.3217
86671W        W29609  21.169  10.142  21.757  0.2059  0.1959  0.1596
86672W        W29610  21.141   9.071  20.891  0.1541 -0.0839  0.0245
86673W        W29611  20.616   7.109  22.627 -0.2009  0.1106 -0.1557
86674W        W29612  20.735   8.103  22.775 -0.0472  0.1059 -0.1471
86675W        W29613  20.860   8.523  18.936  0.0938 -0.2575  0.1439
86676W        W29614  18.119   8.165  20.844  0.2213  0.4690 -0.0454
86677W        W29615  22.016  10.419  22.819 -0.2838 -0.2107  0.2825
86678W        W29616  20.539   8.397  19.819  0.0264 -0.0951 -0.0477
86679W        W29617  19.208  11.376  21.967  0.0664 -0.2168  0.2398
86680W        W29618  20.685   7.844  22.367 -0.1741 -0.1970 -0.0803
86681W        W29619  19.096  10.183  23.543 -0.0576 -0.0040 -0.0669
86682W        W29620  19.495  10.493  20.634 -0.0363  0.3068  0.1026
86683W        W29621  17.916   8.837  22.832  0.0317  0.0418 -0.0710
86684W        W29622  18.321   8.364  20.390  0.1082  0.0612 -0.1584
86685W        W29623  18.133   6.856  22.689 -0.2729 -0.3163  0.4032
86686W        W29624  19.281   8.596  20.894 -0.0525  0.1153 -0.0375
86687W        W29625  21.828   9.273  21.317 -0.0847 -0.0661  0.0176
86688W        W29626  18.481   7.092  23.315  0.0995  0.0654  0.0496
86689W        W29627  22.086   7.402  22.368  0.0151  0.0504  0.2993
86690W        W29628  18.363   8.778  20.895  0.0151  0.0172 -0.2557
86691W        W29629  20.857   8.636  21.236  0.1150 -0.2761 -0.2809
86692W        W29630  21.765   8.268  20.874 -0.2383  0.1213 -0.0769
86693W        W29631  19.395  10.669  19.763  0.2424 -0.0616 -0.2889
86694W        W29632  18.821   7.468  23.065  0.1127 -0.0973 -0.1025
86695W        W29633  20.362   8.227  21.228 -0.0643 -0.2045  0.1515
86696W        W29634  18.764   7.586  23.577 -0.0548  0.5032  0.1955
86697W        W29635  17.620   6.804  19.761 -0.1203  0.2607 -0.2111
86698W        W29636  19.604   8.744  22.473  0.1461 -0.1811 -0.1498
86699W        W29637  19.100   5.851  21.237  0.0833 -0.3279  0.0629
86700W        W29638  21.422   6.323  21.617  0.1639  0.3497 -0.0092
86701W        W29639  19.790   9.033  21.702 -0.0245 -0.0384 -0.0332
86702W        W29640  17.993   7.789  22.885  0.0345 -0.0531  0.0726
86703W        W29641  19.986   8.986  22.240  0.1080 -0.1769  0.1789
86704W        W29642  21.367  11.034  19.611 -0.0388  0.3563  0.0660
86705W        W29643  22.662  11.530  22.478 -0.1831  0.0641 -0.1320
86706W        W29644  19.036   8.589  21.379 -0.3058  0.2227 -0.0867
86707W        W29645  18.951   7.197  21.015 -0.1547 -0.1647  0.0368
86708W        W29646  20.045   8.002  20.660 -0.0412 -0.0984  0.0078
86709W        W29647  18.886  10.471  20.648  0.2072 -0.0658  0.1825
86710W        W29648  19.477   7.951  19.909  0.0555  0.0856  0.2539
86711W        W29649  20.120   8.675  19.538 -0.2453 -0.0314  0.0780
86712W        W29650  20.113   9.413  21.424  0.1097  0.1532 -0.1629
86713W        W29651  20.137   9.242  20.946  0.1589  0.1647 -0.1049
86714W        W29652  19.054   7.879  22.546 -0.0516 -0.1315  0.2645
86715W        W29653  20.713   7.519  22.892 -0.2124 -0.2840 -0.0235
86716W        W29654  20.749   9.511  22.653 -0.3523 -0.2419  0.1512
86717W        W29655  20.143   8.527  20.645  0.1344 -0.4184 -0.0349
86718W        W29656  19.053   6.779  19.693  0.0798  0.1900  0.0712
86719W        W29657  20.742  10.746  21.105  0.0360  0.0509 -0.0264
86720W        W29658  18.544   9.854  21.272  0.0009  0.1374 -0.0570
86721W        W29659  17.979   9.935  20.658 -0.0799  0.0542  0.3384
86722W        W29660  20.581   8.958  19.875 -0.0322  0.1126  0.2689
86723W        W29661  20.924   8.198  21.475 -0.1654  0.0981 -0.3125
86724W        W29662  18.807   9.236  22.540 -0.1723  0.1013 -0.1342
86725W        W29663  20.306   7.317  23.569  0.2002  0.1526  0.1113
86726W        W29664  18.498   7.211  19.683 -0.0354 -0.1032  0.2899
86727W        W29665  19.439  10.434  23.136  0.1147  0.2326  0.4985
86728W        W29666  21.372   6.875  21.833  0.1489  0.0981  0.0479
86729W        W29667  21.476   8.481  20.188 -0.1184 -0.2571 -0.2401
86730W        W29668  20.461   9.038  25.251  0.1174 -0.2186 -0.1642
86731W        W29669  21.219  10.374  21.039  0.0819 -0.2666 -0.0455
86732W        W29670  21.405   7.607  19.219 -0.0674  0.2292  0.2105
86733W        W29671  20.656   7.116  20.176 -0.2001 -0.0300 -0.3761
86734W        W29672  19.150   9.809  24.371 -0.0339  0.2301 -0.1947
86735W        W29673  20.363  10.032  21.524 -0.0904 -0.1529  0.3058
86736W        W29674  19.700   9.584  20.828 -0.2245 -0.0650  0.2873
86737W        W29675  20.445   7.463  19.598  0.0393 -0.2495 -0.0498
86738W        W29676  21.225   9.603  20.961 -0.3124 -0.1504 -0.0742
86739W        W29677  18.412   9.284  21.041 -0.1093  0.5350 -0.1326
86740W        W29678  20.080   9.504  23.799 -0.4301 -0.2110 -0.2877
86741W        W29679  19.684   8.325  20.751  0.0591  0.4600 -0.1758
86742W        W29680  19.232   6.613  21.729 -0.1763 -0.2966  0.1638
86743W        W29681  19.035   8.565  19.582 -0.0083 -0.2228  0.0518
86744W        W29682  20.164   7.338  21.451 -0.0306  0.0808 -0.2210
86745W        W29683  19.343   9.591  19.537 -0.0062 -0.2405 -0.1203
86746W        W29684  21.941   8.711  22.521  0.2095 -0.0997  0.1449
86747W        W29685  19.908   7.068  23.196  0.2219  0.1218  0.0250
86748W        W29686  20.011   5.778  23.672  0.2981  0.1398 -0.2684
86749W        W29687  20.024   8.687  23.795  0.0035 -0.1175  0.1203
86750W        W29688  22.114   8.041  20.556  0.2727  0.1104 -0.0847
86751W        W29689  20.880   8.909  21.770 -0.0333  0.1434  0.1097
86752W        W29690  18.912   9.389  20.112 -0.0713 -0.1354  0.0612
86753W        W29691  20.643   8.013  23.359  0.0196  0.2161 -0.0906
86754W        W29692  20.185   8.473  22.084 -0.0584  0.0377 -0.2523
86755W        W29693  19.842  12.179  23.589  0.1153  0.0808  0.2607
86756W        W29694  20.863  10.994  23.337  0.0183 -0.1773 -0.0741
86757W        W29695  19.717   8.622  21.983  0.0836  0.1795 -0.3706
86758W        W29696  20.120   7.811  22.664 -0.1770  0.2990  0.0054
86759W        W29697  21.046   8.005  19.645  0.2094  0.3292  0.3539
86760W        W29698  20.412  10.501  18.613 -0.2602  0.2104  0.1345
86761W        W29699  19.421   9.994  20.617 -0.2022  0.1770  0.0224
86762W        W29700  21.387   6.341  23.458 -0.0912  0.3139 -0.3742
86763W        W29701  18.241   9.506  22.376 -0.4408  0.0354 -0.3460
86764W        W29702  18.137   6.920  19.813 -0.0633  0.0928  0.1030
86765W        W29703  21.064   9.590  23.447 -0.3201  0.1957  0.0582
86766W        W29704  18.445   9.562  19.186 -0.0839  0.1060  0.2230
86767W        W29705  22.214   6.930  21.518  0.0358  0.1333  0.2518
86768W        W29706  17.781  10.875  22.038  0.1619 -0.0384  0.0403
86769W        W29707  20.083   9.458  20.492 -0.0600 -0.1144  0.3568
86770W        W29708  17.831   6.801  20.232 -0.2086 -0.1187  0.3916
86771W        W29709  21.441   7.403  20.610  0.1960 -0.1024  0.1739
86772W        W29710  20.871   9.764  19.905  0.2112  0.0197 -0.1630
86773W        W29711  20.981   8.411  20.133 -0.0939 -0.1409  0.1032
86774W        W29712  20.582   5.881  22.551  0.1343  0.3893 -0.2046
86775W        W29713  16.575  10.864  22.891  0.0101  0.0531  0.3521
86776W        W29714  19.666   8.450  24.819  0.2075  0.0456 -0.2152
86777W        W29715  20.099   7.777  19.359 -0.1082 -0.2240  0.0966
86778W        W29716  20.713  10.715  22.520 -0.1842  0.3247 -0.2264
86779W        W29717  19.594   7.874  24.590  0.0996 -0.0333 -0.0587
86780W        W29718  19.355   6.349  20.485 -0.0147 -0.1347  0.1677
86781W        W29719  21.487   8.268  22.289  0.2511  0.1446  0.2378
86782W        W29720  20.614   8.906  20.784 -0.2598  0.1621 -0.1788
86783W        W29721  18.977   8.079  20.044 -0.1070  0.2995  0.1094
86784W        W29722  21.260   9.280  22.511  0.0006  0.0043  0.0296
86785W        W29723  18.531   7.446  20.609 -0.2711 -0.1506  0.2042
86786W        W29724  18.658  10.134  21.839  0.0179 -0.2301  0.2181
86787W        W29725  19.588   8.878  23.153  0.0773  0.1385 -0.1459
86788W        W29726  20.997  11.902  22.918 -0.3180  0.2627 -0.0479
86789W        W29727  18.938   8.020  22.013  0.1014  0.2255 -0.0326
86790W        W29728  20.191   8.583  20.150 -0.1107  0.2915  0.0146
86791W        W29729  19.577   7.174  21.546 -0.0489  0.1057 -0.3490
86792W        W29730  21.439   8.792  22.592 -0.1458 -0.0364 -0.1641
86793W        W29731  19.583   7.763  22.410 -0.0180  0.1416  0.2358
86794W        W29732  18.326   9.627  25.063 -0.2238  0.2928 -0.1907
86795W        W29733  21.026   6.644  20.920  0.2489  0.1824 -0.1647
86796W        W29734  21.612  10.836  21.149  0.3133 -0.0441  0.2744
86797W        W29735  19.877   9.155  22.714 -0.0049  0.0078 -0.2310
86798W        W29736  19.391   9.186  22.624 -0.0533 -0.0412  0.0721
86799W        W29737  18.682   7.956  21.534  0.2913  0.1532  0.1480
86800W        W29738  19.151   9.048  20.722  0.0481  0.2757  0.2576
86801W        W29739  19.300   9.319  23.107  0.2105 -0.3717  0.0463
86802W        W29740  17.918   9.026  22.352  0.0215  0.1850 -0.0141
86803W        W29741  18.543   8.075  19.537 -0.0661  0.3541  0.1863
86804W        W29742  19.565   9.604  24.161  0.0103 -0.2013  0.1872
86805W        W29743  21.903   8.172  21.337  0.0119 -0.0485  0.1692
86806W        W29744  19.706   8.265  18.827  0.3928  0.1385 -0.0175
86807W        W29745  20.602   6.042  23.032 -0.1242 -0.0409 -0.1868
86808W        W29746  21.006   6.904  22.907  0.0137  0.1419  0.2438
86809W        W29747  21.443   8.770  19.405  0.1385  0.1958  0.1578
86810W        W29748  21.054   6.810  23.477 -0.2011  0.0050  0.0561
86811W        W29749  19.545   7.833  21.472 -0.0767 -0.2701 -0.0562
86812W        W29750  21.781   8.973  21.697 -0.0623 -0.2680 -0.0418
86813W        W29751  17.302   7.358  21.774  0.0146  0.0860  0.3564
86814W        W29752  20.527  11.347  23.411 -0.1603  0.2139 -0.4584
86815W        W29753  18.491   8.320  22.961  0.1012  0.1100 -0.3776
86816W        W29754  21.280   8.569  21.012 -0.0948  0.0995 -0.1929
86817W        W29755  19.325   7.425  19.771  0.4937 -0.1445  0.1245
86818W        W29756  19.311   8.845  21.792 -0.0720  0.3724 -0.0627
86819W        W29757  20.355   9.868  20.787 -0.2177  0.1551  0.3010
86820W        W29758  20.389   9.865  19.885  0.2932 -0.1154 -0.3643
86821W        W29759  21.591   8.669  22.060  0.2221  0.0086 -0.0056
86822W        W29760  19.152   9.223  21.452 -0.0272  0.1296 -0.0278
86823W        W29761  21.935   8.852  19.338 -0.0132  0.0532 -0.0605
86824W        W29762  20.854   9.950  20.758  0.1906 -0.1205  0.2265
86825W        W29763  19.074   9.558  20.958  0.0307 -0.0842  0.2395
86826W        W29764  19.199   7.342  22.419 -0.0224  0.1922 -0.0784
86827W        W29765  20.306   8.937  21.275  0.1091  0.0240 -0.1824
86828W        W29766  20.187   6.722  21.459  0.1511 -0.2593 -0.1197
86829W        W29767  19.761   9.533  23.140  0.0797 -0.0764  0.1933
86830W        W29768  21.339   8.972  23.110 -0.1114  0.1760 -0.2161
86831W        W29769  20.131   6.721  24.185 -0.0061  0.1930  0.0457
86832W        W29770  19.723   8.148  25.689  0.1274 -0.2201 -0.1270
86833W        W29771  21.704  11.238  23.346 -0.0859  0.0038  0.1229
86834W        W29772  21.403   6.392  20.141  0.4217 -0.1600 -0.0369
86835W        W29773  21.521   7.094  23.280  0.0820 -0.3939 -0.0166
86836W        W29774  21.806   9.564  20.858 -0.0893 -0.1181  0.3431
86837W        W29775  21.980   8.478  20.369  0.3314  0.1603  0.1187
86838W        W29776  18.569   7.804  22.674 -0.2336 -0.0446  0.0708
86839W        W29777  20.178   8.249  22.926 -0.0363 -0.0503  0.0438
86840W        W29778  19.331   8.402  19.971 -0.1721 -0.4834 -0.0304
86841W        W29779  21.868   9.412  23.821  0.0503  0.3085  0.1856
86842W        W29780  20.078  11.513  21.643  0.1528 -0.0759 -0.2534
86843W        W29781  20.141   8.627  22.600 -0.0378  0.1668 -0.3698
86844W        W29782  20.928   8.227  20.982  0.3214 -0.0239 -0.3712
86845W        W29783  18.169   7.502  22.346 -0.0178  0.3632  0.1439
86846W        W29784  20.011  12.248  22.578 -0.2222  0.0683 -0.1344
86847W        W29785  19.220   9.140  18.712  0.0455  0.0521 -0.0087
86848W        W29786  19.948   9.711  20.069  0.4018 -0.1253  0.1586
86849W        W29787  20.222  10.055  22.113 -0.2361 -0.1846 -0.4264
86850W        W29788  21.392   9.508  23.928  0.1819  0.2176  0.2515
86851W        W29789  19.439   7.887  20.904 -0.0198 -0.1132 -0.1875
86852W        W29790  20.379   9.187  22.381 -0.3388 -0.1137 -0.1488
86853W        W29791  19.294   9.765  20.029  0.1597 -0.3573 -0.1546
86854W        W29792  19.767   7.596  23.037 -0.0912  0.0483 -0.0233
86855W        W29793  19.650  10.705  21.434  0.0037 -0.0209  0.2908
86856W        W29794  17.899   9.532  22.039  0.1714  0.2575  0.1018
86857W        W29795  19.999  10.546  20.437  0.0890 -0.2495 -0.1276
86858W        W29796  20.512   5.670  24.374  0.1401  0.1236  0.0104
86859W        W29797  19.542   9.247  22.123 -0.1049 -0.1027  0.0433
86860W        W29798  19.052   8.115  21.063 -0.1141 -0.2400  0.1340
86861W        W29799  20.759   9.320  23.220  0.0360  0.1189 -0.1426
86862W        W29800  20.429   8.276  22.461 -0.0287 -0.1918 -0.0380
86863W        W29801  19.823   9.067  20.349  0.1557  0.0530 -0.1431
86864W        W29802  20.317   9.970  23.078 -0.0138 -0.0760  0.1221
86865W        W29803  20.635  10.251  19.736 -0.0558 -0.1166 -0.2963
86866W        W29804  19.149  10.280  22.226 -0.1435  0.0532  0.0831
86867W        W29805  18.936   8.571  23.740 -0.0435  0.0439  0.0831
86868W        W29806  18.807   8.671  23.287 -0.0261  0.0116 -0.1201
86869W        W29807  19.806   7.570  21.889  0.0488 -0.1736 -0.2397
86870W        W29808  21.214   8.245  20.537 -0.1587  0.1052 -0.0165
86871W        W29809  20.749  10.423  19.033  0.0708  0.1503 -0.1665
86872W        W29810  18.159   9.847  23.884 -0.1635  0.1913  0.3549
86873W        W29811  19.031   9.724  22.814  0.0209  0.2750 -0.1643
86874W        W29812  19.149  10.350  20.114  0.3547 -0.0249  0.2250
86875W        W29813  21.583  10.243  19.361  0.3897  0.5592  0.0547
86876W        W29814  20.052  10.031  20.408 -0.0758 -0.1543  0.2476
86877W        W29815  20.792  11.629  22.405 -0.2532 -0.0692 -0.0365
86878W        W29816  19.815   8.764  19.082 -0.0742  0.0418 -0.0725
86879W        W29817  19.843  10.191  20.870 -0.2598 -0.1896  0.2076
86880W        W29818  16.918  10.133  19.074  0.1266 -0.0391  0.1669
86881W        W29819  21.394  10.598  20.374  0.3575 -0.0520  0.0008
86882W        W29820  20.475  10.557  20.264 -0.2235 -0.0661  0.0242
86883W        W29821  20.790   9.157  25.622 -0.1169 -0.1226 -0.0737
86884W        W29822  20.858   7.898  20.465  0.2976  0.2405 -0.0010
86885W        W29823  20.774   9.936  22.986 -0.1885 -0.1089 -0.0471
86886W        W29824  22.731   8.484  19.901 -0.2417 -0.0684  0.0302
86887W        W29825  19.774  10.044  23.017 -0.1218 -0.0757  0.1407
86888W        W29826  19.948   8.604  21.082 -0.3346 -0.0179 -0.3433
86889W        W29827  19.304   8.924  19.254 -0.0874 -0.0968 -0.1042
86890W        W29828  19.296   9.872  23.201 -0.1081 -0.4044  0.0223
86891W        W29829  21.058   7.358  22.451 -0.0775  0.1654  0.2395
86892W        W29830  19.227  10.924  23.172 -0.2530  0.1494 -0.1353
86893W        W29831  20.531  11.409  20.619 -0.0227 -0.0717 -0.1181
86894W        W29832  19.041   7.206  19.357  0.0314 -0.0420  0.3977
86895W        W29833  19.000   7.848  20.675 -0.1529  0.2584  0.0645
86896W        W29834  21.669   6.432  22.595 -0.1114  0.4245 -0.0857
86897W        W29835  20.075   9.207  19.919  0.1461  0.2904  0.1517
86898W        W29836  20.299   7.451  21.921  0.0263 -0.0796 -0.2551
86899W        W29837  18.698   9.446  21.584  0.0834 -0.4200  0.0266
86900W        W29838  19.204  10.868  20.281  0.0255 -0.3919  0.1043
86901W        W29839  19.662  11.364  23.238 -0.1373  0.1356  0.0286
86902W        W29840  19.690   6.256  20.146 -0.0674 -0.0076  0.2855
86903W        W29841  21.577   8.724  20.651 -0.0236  0.1160 -0.0049
86904W        W29842  19.745   7.449  23.552  0.4220 -0.0709 -0.1060
86905W        W29843  21.599   7.501  22.573  0.2950 -0.0964  0.1891
86906W        W29844  19.615   9.325  19.907 -0.0363 -0.0063 -0.2297
86907W        W29845  21.062   8.735  20.519  0.0950 -0.1507  0.2277
86908W        W29846  21.768   8.698  21.280  0.1817 -0.1343  0.0198
86909W        W29847  20.182   6.747  22.843 -0.2683  0.0937  0.0180
86910W        W29848  18.820   8.989  21.169 -0.2271  0.3043  0.3986
86911W        W29849  21.473   9.248  23.500 -0.0903  0.1433 -0.3335
86912W        W29850  20.028   7.772  18.699  0.0464 -0.1692 -0.2016
86913W        W29851  21.134   9.900  22.566 -0.0590 -0.0401  0.3554
86914W        W29852  18.841   7.530  21.728 -0.1529 -0.1333 -0.0011
86915W        W29853  20.030   7.935  21.622 -0.0457  0.1197 -0.0677
86916W        W29854  18.261   8.086  21.318 -0.1164 -0.0442  0.0948
86917W        W29855  20.159   9.627  22.725  0.0112 -0.1502 -0.0177
86918W        W29856  21.859  11.449  22.942  0.1902  0.2195  0.3912
86919W        W29857  19.587   7.291  19.323 -0.0237  0.0228  0.1547
86920W        W29858  21.005   8.462  19.387  0.0999  0.0799  0.2930
86921W        W29859  21.337   9.109  21.904  0.0214 -0.1470  0.0352
86922W        W29860  19.665  11.080  20.648 -0.0337 -0.0876 -0.1900
86923W        W29861  18.569   8.457  21.424  0.2491 -0.2163  0.1505
86924W        W29862  19.373   9.420  20.493 -0.0977 -0.3727  0.1391
86925W        W29863  17.621   7.515  22.316 -0.0326  0.0034 -0.1387
86926W        W29864  20.546  10.597  22.999  0.1015 -0.2562  0.0938
86927W        W29865  21.186  10.464  22.669 -0.2892  0.0566 -0.0747
86928W        W29866  20.635   8.437  20.508 -0.0115  0.0734 -0.2072
86929W        W29867  19.837   8.065  21.150 -0.0468  0.0510  0.2918
86930W        W29868  18.453   9.226  20.184  0.0064  0.0677 -0.2286
86931W        W29869  22.582   8.714  21.875  0.2259  0.1557  0.0208
86932W        W29870  20.928   9.039  22.812  0.4704 -0.0307  0.0263
86933W        W29871  19.195  10.160  18.900 -0.2006  0.2047  0.1281
86934W        W29872  21.414   8.203  23.846  0.1300 -0.0646 -0.2282
86935W        W29873  18.715   8.942  21.656  0.0611  0.0775 -0.2775
86936W        W29874  19.732  10.378  24.431 -0.1081  0.1512  0.1158
86937W        W29875  18.887   9.547  19.610 -0.3380  0.0889 -0.2413
86938W        W29876  20.184   9.122  24.358  0.0288  0.1530  0.1490
86939W        W29877  20.400  10.522  21.414 -0.2807  0.0210 -0.1856
86940W        W29878  19.671  11.200  21.215 -0.1999 -0.2861  0.2847
86941W        W29879  21.971   8.500  21.830  0.0887  0.0133  0.0331
86942W        W29880  21.805   7.799  21.066  0.0639 -0.2822  0.3758
86943W        W29881  20.520   8.478  21.672 -0.4374 -0.1087 -0.0372
86944W        W29882  20.035   6.217  21.599  0.1182  0.1741 -0.0987
86945W        W29883  22.724   8.772  20.924  0.1040  0.0711 -0.0329
86946W        W29884  22.216   7.359  21.301 -0.1229  0.0372 -0.1117
86947W        W29885  19.415   9.358  23.692 -0.1778 -0.4543 -0.0166
86948W        W29886  18.321  10.212  20.983 -0.0370  0.3379  0.1745
86949W        W29887  18.159   9.622  20.223 -0.0927 -0.0540  0.0597
86950W        W29888  18.071   8.528  21.658 -0.0363 -0.0684  0.0652
86951W        W29889  19.968   8.209  23.926  0.1365  0.0082 -0.0010
86952W        W29890  19.260   8.400  23.262 -0.3779 -0.0646  0.0489
86953W        W29891  17.704   8.150  21.381  0.1747 -0.1202  0.0836
86954W        W29892  19.485   8.566  20.415 -0.0570 -0.0643  0.0094
86955W        W29893  20.524   7.817  20.831 -0.1247 -0.3234 -0.0326
86956W        W29894  19.171   8.120  21.587  0.0577  0.2345  0.0199
86957W        W29895  18.406   6.816  21.171 -0.0956 -0.1508 -0.3011
86958W        W29896  20.544  11.247  21.172 -0.2078 -0.0917 -0.0984
86959W        W29897  21.297  10.890  21.510 -0.1293 -0.1413  0.3505
86960W        W29898  21.306   7.811  20.842  0.0099 -0.0042  0.0848
86961W        W29899  21.922  11.013  24.900 -0.0288  0.1880  0.1849
86962W        W29900  16.756   9.376  20.065  0.0201 -0.0202 -0.0074
86963W        W29901  20.108   8.745  23.060 -0.0463  0.1750  0.0022
86964W        W29902  19.537   7.054  23.786 -0.0795  0.1635 -0.1711
86965W        W29903  18.948   7.142  20.480  0.0081 -0.1941 -0.3138
86966W        W29904  19.814   7.192  22.350  0.1091 -0.1332 -0.0895
86967W        W29905  19.870   9.856  21.743  0.0826 -0.1428 -0.1961
86968W        W29906  21.458  11.574  19.322 -0.1445  0.2614 -0.1675
86969W        W29907  19.081   8.847  22.341  0.1549  0.4377 -0.0503
86970W        W29908  19.715  10.827  23.352  0.0264 -0.2756 -0.1673
86971W        W29909  18.411   5.985  23.638 -0.1518  0.2681 -0.0278
86972W        W29910  20.325   9.027  20.388 -0.1037 -0.3557  0.1859
86973W        W29911  18.907  10.210  23.106  0.0473  0.1875  0.1225
86974W        W29912  21.741  10.198  20.231  0.2381 -0.1526 -0.0005
86975W        W29913  22.738   7.595  20.967 -0.1622 -0.1359 -0.1251
86976W        W29914  21.335   8.973  20.138 -0.0892  0.0786 -0.0563
86977W        W29915  18.439   6.440  23.448 -0.2747  0.0431 -0.1050
86978W        W29916  17.961   8.010  21.777 -0.2007  0.1700  0.2180
86979W        W29917  21.737   9.339  22.819 -0.1349  0.2228  0.1477
86980W        W29918  20.985   7.287  21.455 -0.1362 -0.1585  0.2985
86981W        W29919  21.284   7.712  21.665 -0.1673  0.0970  0.3111
86982W        W29920  20.012   9.847  21.166  0.0261  0.1010 -0.2868
86983W        W29921  18.767   8.409  22.372 -0.0664 -0.1530  0.2745
86984W        W29922  19.302   8.984  20.188 -0.0011  0.2514 -0.0315
86985W        W29923  19.690   8.425  22.835 -0.1985  0.1050  0.1732
86986W        W29924  18.906   8.534  21.893  0.0250 -0.2359  0.1575
86987W        W29925  21.324   9.940  23.697 -0.1451  0.4699 -0.2673
86988W        W29926  19.741   8.708  19.967  0.2350  0.1608  0.0385
86989W        W29927  22.817   8.691  20.349 -0.4491 -0.1997  0.3313
86990W        W29928  20.531   8.795  22.168  0.1610 -0.0537  0.3141
86991W        W29929  21.546  10.439  23.600  0.1188  0.1033 -0.4167
86992W        W29930  18.680   9.707  22.280 -0.2138 -0.1488  0.2678
86993W        W29931  19.691   8.948  20.839  0.0366  0.1175 -0.1134
86994W        W29932  19.292   7.578  21.982 -0.1199 -0.3110  0.1727
86995W        W29933  17.578   8.685  22.477 -0.0667  0.4779  0.4306
86996W        W29934  18.832   8.919  20.023 -0.0555  0.3144 -0.1249
86997W        W29935  21.591   8.125  21.803  0.3332  0.0906  0.1783
86998W        W29936  19.402   8.072  20.433  0.1606 -0.1697  0.0425
86999W        W29937  20.485   7.918  19.646  0.1872  0.0399  0.0401
87000W        W29938  20.302  11.752  22.539  0.2254  0.0281 -0.1263
87001W        W29939  18.129   8.029  22.367 -0.2489  0.0153 -0.0020
87002W        W29940  18.433  11.128  27.355  0.0249  0.2165 -0.2398
87003W        W29941  19.252   7.647  23.359 -0.0053 -0.0606  0.2508
87004W        W29942  20.833   9.379  24.135  0.3576  0.2461 -0.0260
87005W        W29943  21.264   9.375  25.141 -0.3052  0.1475 -0.1201
87006W        W29944  18.339   8.884  24.394 -0.1746  0.0304 -0.0782
87007W        W29945  20.228   9.277  24.916 -0.0409  0.0676  0.1075
87008W        W29946  19.284   7.841  27.011 -0.0976 -0.1281 -0.0774
87009W        W29947  22.810  11.469  24.665 -0.0902 -0.1114 -0.0760
87010W        W29948  20.291  10.629  27.064 -0.2859  0.1756 -0.1659
87011W        W29949  20.268   8.377  24.641 -0.0579  0.2769  0.1598
87012W        W29950  19.893   9.833  27.544 -0.3099  0.2347  0.3211
87013W        W29951  18.832  11.777  26.283  0.1151  0.2746 -0.0382
87014W        W29952  20.893   7.728  25.993 -0.1701 -0.0562 -0.4530
87015W        W29953  18.659   5.936  25.044 -0.1269  0.2170  0.1656
87016W        W29954  20.140  10.475  27.510 -0.0297 -0.1980 -0.0926
87017W        W29955  20.084   7.850  23.609  0.0326 -0.1137  0.1129
87018W        W29956  18.877   9.144  26.782  0.0993  0.3373 -0.4284
87019W        W29957  18.663   7.877  25.413  0.1065  0.0121 -0.4887
87020W        W29958  21.202  11.710  24.489 -0.0864  0.0995 -0.2019
87021W        W29959  18.418   9.195  25.363 -0.0817  0.1577 -0.2330
87022W        W29960  19.714   8.898  27.223  0.1351 -0.1412  0.0150
87023W        W29961  19.387  10.143  24.007  0.0264  0.2598 -0.3447
87024W        W29962  18.797   8.035  23.255  0.0702 -0.0259 -0.0212
87025W        W29963  18.516   9.218  24.820 -0.1075 -0.0736 -0.0038
87026W        W29964  19.374   8.410  26.547 -0.4630 -0.5070  0.1763
87027W        W29965  19.834   9.644  26.125 -0.1423 -0.3501 -0.1180
87028W        W29966  20.907   9.381  26.058  0.0105 -0.2109  0.0240
87029W        W29967  20.142  11.472  26.226  0.0848  0.1000 -0.3987
87030W        W29968  20.186  12.625  24.745 -0.2100  0.3280  0.0811
87031W        W29969  20.949   9.500  27.303  0.0790 -0.0103 -0.1847
87032W        W29970  18.538  11.411  26.149 -0.0349  0.0989 -0.2389
87033W        W29971  19.281  11.842  24.251 -0.0639 -0.2589 -0.2117
87034W        W29972  18.957  10.037  25.742 -0.0080  0.1570  0.0396
87035W        W29973  22.608  10.589  24.867  0.2578 -0.3015  0.0573
87036W        W29974  20.283  10.760  26.542  0.0266 -0.1053  0.0043
87037W        W29975  19.546  12.375  26.275  0.0634  0.0986 -0.1597
87038W        W29976  18.905  10.369  22.653  0.1149 -0.1045 -0.0189
87039W        W29977  19.842  11.563  26.863  0.1878  0.1156  0.0333
87040W        W29978  19.781  10.974  26.330 -0.1386 -0.0492 -0.1397
87041W        W29979  19.226   9.499  25.582  0.1562 -0.3261  0.1911
87042W        W29980  20.008  10.238  24.874  0.2159  0.2142 -0.0909
87043W        W29981  19.812  10.991  24.358 -0.1490  0.1551 -0.2281
87044W        W29982  19.514   9.154  25.855  0.1724 -0.0953  0.1010
87045W        W29983  18.455  10.660  27.027  0.1043 -0.4112  0.0883
87046W        W29984  18.449  11.018  24.929 -0.2955 -0.1943 -0.1824
87047W        W29985  22.227   9.228  28.550 -0.1131 -0.0124  0.2986
87048W        W29986  18.624  10.014  24.297 -0.1252  0.3026  0.1128
87049W        W29987  21.733   8.834  23.401 -0.2411 -0.0914  0.2488
87050W        W29988  19.689   6.908  21.082  0.4633 -0.1563 -0.0077
87051W        W29989  21.629   9.718  23.351  0.1784 -0.1511  0.0678
87052W        W29990  19.906   7.744  25.875 -0.2575 -0.3296 -0.0629
87053W        W29991  20.132  10.661  24.637  0.0243  0.0425  0.2531
87054W        W29992  19.244   8.853  26.133 -0.0908 -0.3600  0.2520
87055W        W29993  20.995  10.339  27.744  0.0451 -0.3766 -0.2971
87056W        W29994  18.908   8.659  25.817  0.0578  0.0890  0.0801
87057W        W29995  20.180   9.610  26.616 -0.2355  0.0850 -0.1878
87058W        W29996  19.418  11.599  25.551  0.5243 -0.0229  0.0335
87059W        W29997  16.936   8.965  24.338 -0.0199 -0.2615  0.0136
87060W        W29998  20.443   8.840  24.668 -0.2582 -0.0659 -0.2246
87061W        W29999  21.400   8.844  25.146 -0.0104 -0.1069 -0.2756
87062W        W30000  20.379   9.658  24.136  0.4760 -0.3200  0.2557
87063W        W30001  18.581   9.005  23.772 -0.3653 -0.0247  0.1563
87064W        W30002  18.397   9.109  25.862  0.0197 -0.2778 -0.2995
87065W        W30003  19.067   9.388  26.405  0.1888  0.1568  0.0404
87066W        W30004  18.916   6.817  21.427  0.3598  0.3511  0.0130
87067W        W30005  21.382   8.763  27.584 -0.3072  0.0618 -0.3747
87068W        W30006  18.159  11.745  27.171  0.2000 -0.2829  0.0712
87069W        W30007  22.440   7.645  25.445  0.0323  0.1614 -0.1442
87070W        W30008  18.495  10.765  26.064  0.1356 -0.3042 -0.0628
87071W        W30009  19.950  11.533  25.649 -0.4092  0.1265  0.1510
87072W        W30010  21.107  11.360  25.944 -0.4653 -0.0445 -0.0063
87073W        W30011  20.899   9.014  24.934  0.2302  0.0242  0.0567
87074W        W30012  19.690  10.332  27.211  0.2512 -0.2690 -0.2261
87075W        W30013  20.161   8.386  23.434  0.3994  0.0245 -0.1822
87076W        W30014  18.828   8.253  24.179 -0.0277  0.1267 -0.2215
87077W        W30015  21.764  11.074  26.738  0.2017  0.2036  0.1235
87078W        W30016  21.887   9.101  25.229  0.0498  0.2433  0.0316
87079W        W30017  19.475  11.201  26.790 -0.0853  0.1470 -0.2772
87080W        W30018  18.545   8.711  27.936  0.0345  0.0270  0.0544
87081W        W30019  19.547  11.523  26.373 -0.0255  0.0106  0.0215
87082W        W30020  18.575   9.998  22.737 -0.2564  0.1579  0.2231
87083W        W30021  18.338  10.875  25.465 -0.0610 -0.2730 -0.0854
87084W        W30022  19.617  11.036  23.869 -0.0583  0.2165 -0.1056
87085W        W30023  19.227   8.092  27.494 -0.0529 -0.3585 -0.1196
87086W        W30024  19.233  10.449  24.398  0.0605 -0.1293 -0.0674
87087W        W30025  21.417   8.764  26.249 -0.1572 -0.1157  0.0265
87088W        W30026  18.662   7.189  25.856 -0.2140 -0.1122  0.0838
87089W        W30027  21.052   9.547  24.653 -0.3645 -0.3037  0.2432
87090W        W30028  17.917   8.057  24.652  0.0382 -0.1926 -0.1878
87091W        W30029  22.264   9.740  24.180  0.0881  0.0232 -0.1803
87092W        W30030  20.058   7.953  24.399  0.2075  0.2369 -0.0002
87093W        W30031  20.660   8.922  24.133 -0.0995 -0.2702 -0.1567
87094W        W30032  18.230  10.000  25.376 -0.0310  0.1958  0.0978
87095W        W30033  20.019   9.068  26.097 -0.0142  0.0250 -0.1520
87096W        W30034  20.628   8.066  27.107  0.1110 -0.4489 -0.2041
87097W        W30035  18.931   8.083  26.629 -0.1724 -0.1574  0.4362
87098W        W30036  21.439   9.851  28.267 -0.0810 -0.1303  0.0514
87099W        W30037  19.543   7.264  24.665  0.1102 -0.1503 -0.0060
87100W        W30038  21.572   9.524  25.920  0.2579  0.0511  0.0368
87101W        W30039  18.445   8.575  24.017  0.0529 -0.0002  0.0798
87102W        W30040  17.946   9.973  24.957 -0.1663  0.0948  0.1305
87103W        W30041  21.956   7.694  27.227  0.2883 -0.2789  0.0940
87104W        W30042  20.312  10.365  23.953  0.2077 -0.4119 -0.2032
87105W        W30043  19.733  11.886  25.905 -0.3769 -0.1149  0.1695
87106W        W30044  20.793   9.526  25.199  0.0704  0.0564  0.2384
87107W        W30045  20.366  10.018  27.659 -0.2177 -0.1034 -0.2669
87108W        W30046  18.836   9.218  23.088  0.3046 -0.4076  0.1498
87109W        W30047  18.910  10.207  24.747 -0.4809 -0.0520 -0.2502
87110W        W30048  21.129  10.029  24.807  0.0775  0.2112 -0.2539
87111W        W30049  19.766   8.070  23.267  0.3711  0.0841  0.1916
87112W        W30050  21.712  11.776  24.732  0.1351  0.0864 -0.0228
87113W        W30051  19.642   8.955  25.293  0.4585 -0.0525  0.1892
87114W        W30052  18.824  10.896  26.370 -0.1841 -0.0282  0.1971
87115W        W30053  20.859   8.935  27.472  0.0797  0.1810  0.3998
87116W        W30054  21.165   9.868  25.274 -0.2914  0.0558  0.2876
87117W        W30055  20.404   9.114  26.509 -0.1243  0.0366  0.0275
87118W        W30056  18.976   8.305  22.830  0.0057  0.1032  0.5369
87119W        W30057  21.604  10.576  25.560  0.4060  0.1173  0.1385
87120W        W30058  18.490   9.629  25.624 -0.0541 -0.1177 -0.3743
87121W        W30059  18.958   9.325  23.553 -0.0531  0.1059 -0.0132
87122W        W30060  19.312  10.658  23.594  0.0377 -0.0365  0.1599
87123W        W30061  22.404   7.884  26.471 -0.0093 -0.0698 -0.0929
87124W        W30062  18.876  10.021  26.509 -0.1630 -0.1071  0.1368
87125W        W30063  19.169   8.821  27.047 -0.2837  0.0286  0.1729
87126W        W30064  17.717   7.538  25.270 -0.1057  0.2448  0.1021
87127W        W30065  19.351   9.693  26.062  0.4522  0.0629 -0.2901
87128W        W30066  21.422   6.853  26.170  0.1187  0.1523 -0.1388
87129W        W30067  22.088   8.583  24.565 -0.2477 -0.0680 -0.1134
87130W        W30068  18.305   9.921  26.524 -0.0856 -0.1684  0.3159
87131W        W30069  21.289   9.067  25.859 -0.1515  0.0583 -0.2194
87132W        W30070  20.766   8.484  24.431  0.2422 -0.0774 -0.2410
87133W        W30071  20.632   7.676  23.858  0.0881 -0.3894 -0.4127
87134W        W30072  17.805  10.282  26.589 -0.1308 -0.1172  0.0068
87135W        W30073  20.302  10.656  25.101  0.0428  0.0006 -0.4770
87136W        W30074  20.297  10.592  26.024 -0.0520  0.2130 -0.0832
87137W        W30075  20.723   8.188  25.917 -0.1646 -0.0730 -0.1073
87138W        W30076  21.471  10.843  24.716  0.0003 -0.0243 -0.0701
87139W        W30077  17.756  10.892  25.325 -0.1926  0.0385  0.1080
87140W        W30078  19.423  10.008  26.930  0.2082 -0.0887  0.1412
87141W        W30079  21.463  10.872  23.973  0.0409 -0.0183 -0.0497
87142W        W30080  19.394   7.797  26.017 -0.0881 -0.0745 -0.0423
87143W        W30081  19.888   6.745  23.573 -0.0910  0.0399  0.0189
87144W        W30082  20.496   7.840  26.298  0.2782  0.3896 -0.1726
87145W        W30083  19.228  10.867  24.129 -0.1362 -0.2263  0.1892
87146W        W30084  21.261   8.472  25.591  0.1529 -0.2727  0.0540
87147W        W30085  21.089   9.498  26.530 -0.1603 -0.1465  0.1273
87148W        W30086  19.175   8.346  27.007  0.0179 -0.2280  0.0608
87149W        W30087  21.158   9.222  27.657 -0.1241 -0.1873  0.0600
87150W        W30088  20.995   9.019  26.486  0.1521  0.1654 -0.0038
87151W        W30089  20.601   9.747  26.291  0.1440  0.0427  0.1364
87152W        W30090  18.740   9.749  23.250 -0.2989  0.2380 -0.4763
87153W        W30091  18.771   7.980  27.080 -0.2344  0.1529  0.1727
87154W        W30092  19.837   8.156  26.218 -0.0356  0.0716  0.2737
87155W        W30093  17.775  11.509  25.410  0.1241  0.2389  0.4609
87156W        W30094  19.771   9.943  25.214  0.0935  0.1977 -0.0524
87157W        W30095  21.119   9.838  26.009  0.1750  0.1570 -0.0818
87158W        W30096  19.942   8.453  27.672 -0.3038 -0.0380  0.1850
87159W        W30097  20.729   8.080  24.831 -0.2265 -0.0050 -0.1038
87160W        W30098  18.406  10.470  23.574 -0.1497  0.1863 -0.0744
87161W        W30099  19.718   7.998  25.098  0.3368  0.5406  0.0962
87162W        W30100  19.138   7.837  25.229  0.1979 -0.1098  0.2521
87163W        W30101  19.363  11.868  27.073  0.0194  0.5132  0.0740
87164W        W30102  19.791   9.053  24.793  0.0744 -0.0409 -0.0352
87165W        W30103  20.646   9.452  26.799 -0.1902 -0.0569  0.0264
87166W        W30104  20.489   8.931  26.004 -0.0297 -0.2436 -0.3141
87167W        W30105  22.131   6.938  25.154 -0.1946 -0.0093  0.0560
87168W        W30106  17.526  10.841  24.416 -0.0083  0.3275 -0.2839
87169W        W30107  19.731   9.179  24.190 -0.1208  0.0474  0.1770
87170W        W30108  16.795   7.731  24.079 -0.4225  0.0709  0.1472
87171W        W30109  21.137   8.681  24.146  0.2918  0.2313 -0.2556
87172W        W30110  20.305   8.565  24.155  0.2749 -0.0295 -0.3306
87173W        W30111  20.560   8.632  26.363 -0.2980 -0.0059  0.2973
87174W        W30112  20.458   8.696  25.566 -0.0871 -0.1094  0.0990
87175W        W30113  18.175  10.155  24.496  0.0143 -0.1845  0.0022
87176W        W30114  21.474   9.234  26.371 -0.3596  0.2507 -0.4114
87177W        W30115  21.175   8.770  24.599 -0.0528  0.2121  0.2433
87178W        W30116  20.754   9.640  27.747 -0.1593  0.0736 -0.1913
87179W        W30117  19.451  10.610  28.120 -0.2428  0.0103 -0.0903
87180W        W30118  18.380   7.665  23.258 -0.3549 -0.2638  0.0964
87181W        W30119  22.034   8.111  26.732 -0.2284  0.2128 -0.2099
87182W        W30120  19.345   8.308  25.157  0.0115  0.1673  0.1871
87183W        W30121  18.967  10.455  25.160 -0.3323  0.0159  0.2314
87184W        W30122  19.867  11.974  25.371 -0.0764 -0.2380 -0.0098
87185W        W30123  20.881   6.963  23.894  0.0769  0.1828  0.3499
87186W        W30124  18.017  10.624  26.139  0.1633  0.1490 -0.0742
87187W        W30125  19.832   9.328  27.443  0.1492  0.2605  0.0435
87188W        W30126  20.954  10.594  26.519  0.3409 -0.2677  0.2210
87189W        W30127  20.416  10.557  25.544 -0.0778  0.1828  0.1686
87190W        W30128  19.436   8.651  25.624 -0.1712  0.0132  0.2019
87191W        W30129  19.970   8.637  25.870 -0.1221  0.0564  0.2486
87192W        W30130  21.287  10.499  26.066  0.1625 -0.1199 -0.1341
87193W        W30131  19.519   9.293  26.983  0.3297  0.1947  0.0447
87194W        W30132  18.287  11.037  26.397 -0.1970  0.0088  0.1532
87195W        W30133  20.139   7.748  26.827  0.1601  0.2434 -0.2457
87196W        W30134  22.645  10.332  25.307 -0.1648 -0.0885  0.1674
87197W        W30135  20.005   9.039  27.812  0.0875 -0.1063  0.0006
87198W        W30136  17.967   8.756  24.020  0.2064 -0.1779 -0.2019
87199W        W30137  18.199  11.089  25.873 -0.0308  0.2347  0.1998
87200W        W30138  20.374   9.447  25.874 -0.0656 -0.2277  0.3887
87201W        W30139  19.379   8.979  26.574 -0.0165 -0.3180  0.2430
87202W        W30140  17.932  11.204  24.553 -0.0390 -0.3250  0.1163
87203W        W30141  19.160   9.781  24.899  0.1386  0.0330  0.3010
87204W        W30142  18.795  11.058  25.713  0.2628 -0.0584 -0.1928
87205W        W30143  20.233   7.714  23.150 -0.2616 -0.2156  0.2250
87206W        W30144  19.330   8.934  24.434 -0.1875  0.1946  0.0548
87207W        W30145  20.043   8.657  26.375  0.0402  0.1923 -0.0730
87208W        W30146  21.956   8.430  28.261 -0.0482  0.0186 -0.1434
87209W        W30147  20.623   8.662  22.696 -0.0254 -0.0901 -0.0912
87210W        W30148  22.232   7.689  28.162  0.2027 -0.2389  0.0754
87211W        W30149  19.544   7.310  26.155  0.2655  0.0522  0.2922
87212W        W30150  21.387  10.305  25.155 -0.0495 -0.2795 -0.2322
87213W        W30151  18.693  10.468  25.549  0.0001  0.0573 -0.1133
87214W        W30152  20.639  11.682  27.300  0.0545 -0.0646  0.2216
87215W        W30153  17.045   8.453  28.467 -0.0372 -0.0566 -0.1091
87216W        W30154  20.859   7.191  24.526 -0.1027 -0.1393  0.1090
87217W        W30155  19.809   6.377  24.459 -0.1288  0.0473 -0.3994
87218W        W30156  19.867   9.722  27.035  0.0975 -0.1306  0.0947
87219W        W30157  21.830   8.573  26.721 -0.0143 -0.2411  0.0278
87220W        W30158  18.751   8.778  24.676  0.1825 -0.3803  0.2060
87221W        W30159  21.577   9.468  26.803 -0.0150  0.2244 -0.0034
87222W        W30160  18.813   9.637  26.026  0.0273 -0.1954 -0.1418
87223W        W30161  19.203   8.331  24.656 -0.1431 -0.1110 -0.0346
87224W        W30162  19.876   8.700  24.403 -0.2132  0.2563  0.0304
87225W        W30163  19.320   8.846  24.947 -0.1325  0.0544 -0.1819
87226W        W30164  19.802   7.021  26.462 -0.0071 -0.1109 -0.0583
87227W        W30165  21.393  10.285  26.574  0.2324 -0.3606 -0.1454
87228W        W30166  21.779   7.459  25.988 -0.2190 -0.4242  0.1474
87229W        W30167  21.047   9.132  26.970  0.1224  0.0165  0.2521
87230W        W30168  21.333  10.627  28.383 -0.4348  0.0356 -0.4094
87231W        W30169  20.947   9.708  28.315 -0.1588 -0.1327  0.0712
87232W        W30170  18.144   8.296  27.932 -0.0498  0.1091 -0.0964
87233W        W30171  20.598  11.381  27.730  0.1957  0.1616 -0.2088
87234W        W30172  23.313   8.302  24.249 -0.0602 -0.1886 -0.2270
87235W        W30173  20.329   8.110  27.884  0.0015  0.1613  0.0819
87236W        W30174  21.815   8.442  26.051 -0.0128  0.0627 -0.0936
87237W        W30175  20.966   8.737  25.348  0.0863  0.2986 -0.4271
87238W        W30176  19.699   8.053  26.819  0.2987 -0.0932 -0.0351
87239W        W30177  20.689  10.351  27.348  0.2340 -0.0363  0.1683
87240W        W30178  19.283   7.542  22.867 -0.1159  0.2887 -0.0073
87241W        W30179  21.879   7.395  27.603 -0.2684  0.1132  0.3982
87242W        W30180  19.456   9.396  24.622 -0.2466  0.3302 -0.0722
87243W        W30181  19.987  10.296  25.614  0.2766 -0.0690 -0.2007
87244W        W30182  22.253   9.048  23.606  0.1175 -0.0223  0.0663
87245W        W30183  17.215   7.793  25.234  0.0151 -0.0155  0.0133
87246W        W30184  18.204  12.402  27.080  0.3383  0.5594  0.0995
87247W        W30185  19.547   8.250  24.179 -0.0141  0.0561  0.1171
87248W        W30186  19.522   8.707  24.020 -0.1196  0.0369 -0.3282
87249W        W30187  20.099  10.279  26.675 -0.1945 -0.1225 -0.2782
87250W        W30188  22.367   9.071  27.450 -0.0704  0.1783  0.0620
87251W        W30189  19.588   8.404  27.275  0.2512  0.1527 -0.2578
87252W        W30190  22.499   9.943  28.511  0.1076 -0.0453  0.0867
87253W        W30191  19.929   8.469  25.360  0.0684 -0.1922 -0.0705
87254W        W30192  21.075   6.658  25.859 -0.3489  0.2304  0.0566
87255W        W30193  18.550  10.549  24.564  0.2201  0.2093  0.2947
87256W        W30194  18.455  10.148  27.031 -0.0692  0.0005 -0.1874
87257W        W30195  19.692  10.691  25.854  0.2666  0.1100 -0.2623
87258W        W30196  20.675   7.253  26.078  0.0891 -0.0250  0.1667
87259W        W30197  21.472   8.895  26.763 -0.0662  0.0513  0.0214
87260W        W30198  20.219   9.793  24.918 -0.0650  0.0950  0.0407
87261W        W30199  21.986   8.150  27.391 -0.1568  0.0455  0.1599
87262W        W30200  19.715  10.758  27.611 -0.1584 -0.0460  0.1642
87263W        W30201  18.948  10.492  25.999  0.0073  0.1524 -0.2007
87264W        W30202  19.285  10.759  26.315  0.0277  0.3975 -0.1000
87265W        W30203  20.404  10.105  25.818 -0.2417 -0.0252  0.0354
87266W        W30204  19.330  10.171  26.268 -0.0011 -0.2288 -0.0849
87267W        W30205  19.136  10.764  26.801 -0.0825 -0.2726 -0.0209
87268W        W30206  19.447  11.402  28.169 -0.1752 -0.3764 -0.0274
87269W        W30207  20.801   9.908  25.605  0.1808  0.2126  0.2150
87270W        W30208  19.392   6.833  24.848  0.3270  0.1604  0.0480
87271W        W30209  19.930   9.542  24.511 -0.1252  0.2743  0.1179
87272W        W30210  18.469  11.561  27.693  0.1920 -0.0236  0.1840
87273W        W30211  18.361   8.809  27.346 -0.1768  0.2759  0.2037
87274W        W30212  19.158  11.705  24.693  0.2001  0.2617 -0.0198
87275W        W30213  20.915   9.876  24.096 -0.1516 -0.0510 -0.1628
87276W        W30214  20.798  11.458  25.354  0.0633 -0.1551  0.2599
87277W        W30215  20.550  10.657  24.295  0.1546 -0.1795 -0.0604
87278W        W30216  19.084   7.990  23.682 -0.1811 -0.1274  0.0251
87279W        W30217  18.839   9.498  25.192  0.0328 -0.0459  0.0833
87280W        W30218  18.035   9.319  23.073 -0.0476  0.1513  0.2946
87281W        W30219  21.332   9.888  24.372 -0.1795  0.0189  0.3166
87282W        W30220  18.771  10.967  24.301  0.2386 -0.1139 -0.0305
87283W        W30221  21.955   9.763  27.578  0.0202 -0.1421 -0.0870
87284W        W30222  21.075   7.866  23.154  0.1310 -0.1232  0.1739
87285W        W30223  22.739  10.286  27.315  0.1978 -0.3141 -0.1912
87286W        W30224  21.081   7.822  25.120  0.3295 -0.1101  0.1889
87287W        W30225  20.151  11.481  27.347  0.0718  0.0205 -0.2400
87288W        W30226  20.094   9.097  25.565 -0.1010 -0.0968 -0.1079
87289W        W30227  19.222   7.891  24.212 -0.2142  0.3261 -0.1340
87290W        W30228  19.229   8.301  26.055  0.2930 -0.4044  0.3440
87291W        W30229  21.850   7.697  26.480  0.2630 -0.0536  0.2712
87292W        W30230  18.828  11.224  27.856  0.1682  0.1030  0.0057
87293W        W30231  21.356  10.899  23.479  0.1488  0.3907  0.4110
87294W        W30232  18.406   8.269  25.246 -0.3475 -0.3126 -0.2036
87295W        W30233  18.901   8.386  25.340 -0.3047  0.4241  0.1589
87296W        W30234  21.102   8.501  26.492 -0.3049 -0.0009 -0.0811
87297W        W30235  20.044   7.805  25.400 -0.2005 -0.1012  0.1355
87298W        W30236  20.211   8.203  25.805 -0.1423 -0.0412  0.0063
87299W        W30237  18.758   9.979  25.209  0.3852 -0.4079  0.1506
87300W        W30238  19.389  10.266  24.873  0.0566  0.0538  0.2117
87301W        W30239  19.274   9.974  25.312  0.0884 -0.3248  0.2783
87302W        W30240  19.089   7.122  23.505  0.0790  0.2172  0.0341
87303W        W30241  22.398  11.459  25.630 -0.0516 -0.2563  0.1974
87304W        W30242  18.420   9.610  28.267 -0.0609 -0.1015 -0.0325
87305W        W30243  22.314   7.354  27.307 -0.1470  0.0577 -0.1638
87306W        W30244  18.332   8.388  24.485 -0.1061 -0.2007  0.0736
87307W        W30245  22.035   8.558  25.103 -0.0287  0.0419 -0.0283
87308W        W30246  21.726   8.709  25.519  0.2239 -0.0296 -0.0735
87309W        W30247  19.109   9.613  26.904  0.0582  0.4010 -0.0735
87310W        W30248  20.294   9.519  25.356  0.2104 -0.1781 -0.0091
87311W        W30249  21.917   9.064  26.652  0.0411  0.1143 -0.2753
87312W        W30250  20.782   8.255  25.419  0.0143  0.2971  0.3050
87313W        W30251  20.477  11.505  26.852 -0.0643  0.0658  0.0232
87314W        W30252  21.076   6.631  24.734  0.1256 -0.3358 -0.1535
87315W        W30253  19.325   8.881  23.611  0.0493  0.1272  0.0418
87316W        W30254  18.869   8.887  24.184 -0.1843 -0.5162  0.1492
87317W        W30255  19.413  10.965  27.236  0.1270  0.3165  0.3088
87318W        W30256  21.988   9.306  25.645 -0.2775  0.1812 -0.6445
87319W        W30257  18.837   7.909  24.539  0.2186  0.2589  0.2110
87320W        W30258  19.504   9.943  22.152  0.1263 -0.1471  0.1131
87321W        W30259  22.586   6.983  26.871  0.2189  0.0534 -0.0746
87322W        W30260  19.865   9.102  23.508  0.2658 -0.2194  0.4210
87323W        W30261  20.303  10.059  25.315  0.0688 -0.1193  0.1055
87324W        W30262  20.782  10.854  25.225 -0.0996 -0.3190 -0.0666
87325W        W30263  17.465   8.302  24.866  0.1460 -0.2085  0.1358
87326W        W30264  20.161  12.102  26.095  0.1199 -0.0276  0.0547
87327W        W30265  21.748   9.941  26.875 -0.3476 -0.2216 -0.0481
87328W        W30266  19.604   8.392  23.633  0.3391 -0.0174 -0.0841
87329W        W30267  19.348   9.309  25.149 -0.0653  0.1497  0.1337
87330W        W30268  17.983  10.696  24.773  0.0193 -0.0892 -0.1916
87331W        W30269  21.109   8.460  27.198 -0.4306 -0.3355  0.1080
87332W        W30270  21.458   9.123  27.240 -0.0901 -0.1064  0.0946
87333W        W30271  19.607   9.725  22.680  0.1499  0.0663  0.4747
87334W        W30272  21.977   6.499  27.329  0.2992 -0.1458  0.1378
87335W        W30273  20.102  11.067  25.910 -0.0209 -0.2146  0.0425
87336W        W30274  19.788  12.114  27.120  0.0781  0.0380  0.1255
87337W        W30275  18.371   8.899  23.171  0.0527  0.0595  0.1083
87338W        W30276  20.434  11.134  27.181 -0.1261 -0.0002  0.1087
87339W        W30277  20.536   8.041  24.329 -0.3990  0.0672  0.0237
87340W        W30278  19.150  11.439  23.189  0.0816  0.0277  0.1627
87341W        W30279  19.792   9.530  25.003  0.2578 -0.0935 -0.2573
87342W        W30280  19.766   9.521  25.579 -0.0342  0.1924 -0.3007
87343W        W30281  21.877  10.177  26.110 -0.0505  0.3033  0.1727
87344W        W30282  20.337   7.364  25.381  0.1197  0.3523 -0.0147
87345W        W30283  22.953   6.239  24.779  0.1017 -0.0086 -0.2280
87346W        W30284  20.620   8.583  24.992  0.1632  0.0202 -0.0832
87347W        W30285  18.742  10.453  26.705 -0.0653  0.0836 -0.2592
87348W        W30286  18.264   7.404  23.633 -0.2743 -0.3585 -0.2919
87349W        W30287  18.700   9.739  24.747  0.0848  0.0841  0.1460
87350W        W30288  19.009   9.205  24.716  0.1002  0.0333 -0.0551
87351W        W30289  20.521   9.201  27.706  0.0262 -0.1019  0.0133
87352W        W30290  18.863   8.836  28.397  0.0800  0.1572  0.4160
87353W        W30291  18.224  10.417  25.723  0.0842  0.1318  0.2822
87354W        W30292  18.739   8.280  24.859  0.1853 -0.1854  0.1866
87355W        W30293  21.990  10.322  23.728  0.1700 -0.2278  0.2891
87356W        W30294  20.857   5.720  25.966 -0.1186 -0.3680 -0.1521
87357W        W30295  19.296   7.291  25.151 -0.1953 -0.1302  0.0787
87358W        W30296  20.723  10.001  25.066 -0.2392  0.1784 -0.0400
87359W        W30297  19.896  10.010  24.013  0.1037 -0.0016  0.1636
87360W        W30298  21.159   7.945  25.605 -0.3553  0.0785  0.0951
87361W        W30299  18.956  11.983  25.773  0.1253 -0.1077 -0.0053
87362W        W30300  18.682  10.083  23.735  0.0427  0.0945  0.1049
87363W        W30301  19.401   9.561  27.827 -0.0748  0.2331 -0.2543
87364W        W30302  20.206   7.278  26.770  0.2527  0.0533 -0.1028
87365W        W30303  19.263   7.470  23.823  0.0792  0.0794 -0.0735
87366W        W30304  19.830  10.129  26.105  0.0508 -0.1045  0.1717
87367W        W30305  20.506  11.395  24.978  0.2690  0.0416 -0.1079
87368W        W30306  22.224  10.786  24.062  0.0754  0.0783  0.1917
87369W        W30307  19.817  10.763  26.813  0.0039  0.2246 -0.1520
87370W        W30308  18.193  12.942  24.530 -0.2838  0.1662  0.2151
87371W        W30309  17.830   6.834  26.084 -0.0882 -0.2962  0.0900
87372W        W30310  20.483  10.301  24.676 -0.0884  0.3163 -0.0200
87373W        W30311  20.650  12.192  27.294  0.1339  0.1024 -0.1824
87374W        W30312  21.147   9.496  25.618 -0.1401  0.0684 -0.0237
87375W        W30313  22.815   7.204  27.273 -0.2489  0.3481 -0.2135
87376W        W30314  20.966   8.713  25.975  0.0087  0.0441  0.2681
87377W        W30315  18.849   6.737  27.817  0.3626 -0.1714 -0.3131
87378W        W30316  17.892   9.253  26.049 -0.1177  0.1912 -0.0595
87379W        W30317  21.768  10.606  26.276  0.0487 -0.0686 -0.2248
87380W        W30318  18.800   7.523  24.980  0.2138  0.2636 -0.2651
87381W        W30319  21.065   7.832  23.640 -0.0944  0.0300 -0.2083
87382W        W30320  20.618   9.295  24.583 -0.2796 -0.0398 -0.2526
87383W        W30321  18.641   7.458  24.538  0.1240  0.2752 -0.4314
87384W        W30322  20.440   8.152  23.802 -0.3481  0.1011 -0.1694
87385W        W30323  20.687  10.046  28.068 -0.0590  0.2019  0.1609
87386W        W30324  19.725  10.551  25.231 -0.1778  0.1526  0.1069
87387W        W30325  20.853  10.333  25.891 -0.1133 -0.0179 -0.4228
87388W        W30326  20.572   8.564  23.173 -0.2084  0.2677 -0.1329
87389W        W30327  22.154  10.241  26.566 -0.2508 -0.0360 -0.2850
87390W        W30328  20.048  13.242  25.237  0.0244  0.1480  0.0829
87391W        W30329  18.597  11.531  27.026  0.0431  0.2045  0.2792
87392W        W30330  20.292  11.061  25.358 -0.0403 -0.0098  0.1511
87393W        W30331  21.135  10.098  27.364 -0.1657 -0.3704  0.0975
87394W        W30332  19.584   7.417  25.662  0.3248 -0.0187 -0.0448
87395W        W30333  20.110   8.773  25.049 -0.0547  0.0550  0.1881
87396W        W30334  20.268   8.190  25.137 -0.1157  0.3901 -0.2952
87397W        W30335  20.948  10.104  26.370 -0.2707 -0.3311 -0.1856
87398W        W30336  17.981   9.135  24.601  0.1407  0.0063  0.0450
87399W        W30337  21.125   7.249  24.957  0.1854 -0.1040 -0.0026
87400W        W30338  18.957  12.275  26.184 -0.0798  0.1427 -0.1797
87401W        W30339  19.702  10.508  26.341  0.0553 -0.0936  0.0458
87402W        W30340  18.092  10.099  30.114  0.1727 -0.0552 -0.0143
87403W        W30341  21.238   9.381  28.135  0.2714  0.0194  0.0225
87404W        W30342  21.885   9.120  27.631  0.0506  0.0245 -0.0968
87405W        W30343  23.604   9.273  29.034  0.1698 -0.0347 -0.0273
87406W        W30344  17.800   7.528  29.040 -0.0490  0.0521 -0.3239
87407W        W30345  22.429  12.678  27.557  0.0309 -0.1630  0.1243
87408W        W30346  16.121   7.472  28.908 -0.0705  0.0766  0.2708
87409W        W30347  21.850  11.636  29.583  0.2034  0.1485  0.0033
87410W        W30348  21.027  11.379  29.119 -0.0726  0.2008 -0.1986
87411W        W30349  21.609  10.139  27.727 -0.1383  0.1523 -0.0860
87412W        W30350  21.807   8.964  29.480 -0.1611 -0.0820 -0.1973
87413W        W30351  20.663  10.022  29.843  0.4724  0.0907 -0.0243
87414W        W30352  21.694   6.852  29.358 -0.0019  0.1459  0.2276
87415W        W30353  18.903   7.232  30.061  0.3027 -0.1386 -0.2582
87416W        W30354  20.768  10.066  29.301  0.4472 -0.2131  0.0875
87417W        W30355  18.836   9.855  28.510 -0.2762 -0.1450  0.1980
87418W        W30356  17.600   8.744  31.504  0.0552 -0.0745 -0.0565
87419W        W30357  19.837   8.684  28.156  0.2202  0.1872 -0.0407
87420W        W30358  19.804  12.663  28.449  0.2710 -0.0102 -0.2880
87421W        W30359  19.559   8.953  29.862 -0.1968  0.2669  0.3293
87422W        W30360  20.228   8.848  31.005 -0.3539 -0.1093  0.2873
87423W        W30361  19.158  10.989  28.429  0.1131  0.0984 -0.0313
87424W        W30362  18.337   9.153  27.790  0.1535 -0.2900 -0.2585
87425W        W30363  17.169  10.294  28.134 -0.1965 -0.3370 -0.2497
87426W        W30364  19.850   8.715  29.416 -0.2089 -0.0692  0.1539
87427W        W30365  21.282   8.445  29.117  0.2929 -0.0509  0.0935
87428W        W30366  20.507  10.385  30.467  0.2267  0.1976  0.0711
87429W        W30367  20.090  10.647  29.335  0.2625  0.3921  0.1583
87430W        W30368  20.453  11.006  30.655 -0.1501 -0.0467  0.1741
87431W        W30369  21.209   8.596  30.786 -0.0360  0.1690  0.0800
87432W        W30370  18.370   9.109  28.412 -0.1753 -0.0273  0.2878
87433W        W30371  18.514  10.881  27.818  0.0361 -0.1114 -0.3223
87434W        W30372  19.216  10.578  27.569  0.1042 -0.0378  0.1899
87435W        W30373  22.872   9.730  28.196 -0.1990 -0.2650  0.0627
87436W        W30374  21.851  11.711  29.053 -0.0263 -0.1124  0.1915
87437W        W30375  18.826  10.849  31.091 -0.1247  0.1791 -0.1315
87438W        W30376  18.057  10.819  27.296  0.0828  0.0365 -0.1106
87439W        W30377  20.724  10.899   0.084 -0.0738 -0.1107  0.1287
87440W        W30378  20.610  11.445  30.006 -0.1245 -0.6639  0.0595
87441W        W30379  20.760   9.595  29.520 -0.0647 -0.2225 -0.0917
87442W        W30380  20.785   9.671  28.902  0.0176 -0.0553  0.0919
87443W        W30381  19.025  12.606  26.561 -0.1421 -0.3801 -0.2345
87444W        W30382  19.419  10.157  29.640 -0.1336 -0.0808  0.2119
87445W        W30383  19.128   8.622  30.005 -0.2581  0.1579 -0.1913
87446W        W30384  17.623  10.398  28.310  0.4303 -0.5248  0.0836
87447W        W30385  20.216   7.093  31.514  0.0084 -0.1101 -0.1721
87448W        W30386  18.020  10.356  26.999  0.0520 -0.1476 -0.1914
87449W        W30387  20.667   7.431  29.208 -0.2336  0.1662  0.1775
87450W        W30388  20.509   8.690  27.837  0.0796  0.0713 -0.0380
87451W        W30389  21.614   8.378  28.644 -0.0482 -0.0987 -0.0768
87452W        W30390  19.888   8.047  29.698 -0.1113  0.2272  0.1326
87453W        W30391  18.278  11.228  28.583 -0.0155 -0.0404 -0.0005
87454W        W30392  19.730   7.937  29.224 -0.2281  0.3776 -0.3359
87455W        W30393  21.388  10.842  29.771 -0.1091 -0.1773  0.0304
87456W        W30394  20.115  10.915  28.916  0.1288 -0.1760 -0.3825
87457W        W30395  19.326   8.072  31.373 -0.0861  0.0504 -0.2284
87458W        W30396  18.935  11.313  29.380 -0.0500 -0.4922  0.0732
87459W        W30397  17.631   8.186  28.071 -0.2411 -0.0060 -0.1517
87460W        W30398  20.857  11.443  28.674 -0.0715 -0.1118  0.3586
87461W        W30399  21.566  11.903  28.328 -0.3298  0.0706  0.4500
87462W        W30400  20.633  10.186  28.603 -0.1777  0.1616  0.2145
87463W        W30401  19.522   9.447  28.898  0.1466  0.0940 -0.2833
87464W        W30402  18.545   9.417  31.061 -0.1771  0.2007 -0.0913
87465W        W30403  18.295   8.795   0.866 -0.0928 -0.0451  0.0316
87466W        W30404  18.425   8.798  26.820  0.2197  0.0707  0.2582
87467W        W30405  23.202  11.077  29.282  0.1935 -0.2907  0.3377
87468W        W30406  18.273   9.905  30.608 -0.2516 -0.0965 -0.2723
87469W        W30407  20.811   7.742  28.127  0.1250 -0.1641 -0.1785
87470W        W30408  20.323   9.799  29.008  0.0997 -0.2497 -0.1765
87471W        W30409  19.829  12.289  28.815 -0.0012 -0.1139 -0.0290
87472W        W30410  21.560   9.578  27.789  0.1916 -0.0535 -0.1636
87473W        W30411  21.857   8.152  29.002  0.3168 -0.0593  0.0176
87474W        W30412  20.672   8.204  31.774 -0.0680  0.1446 -0.1497
87475W        W30413  20.492  10.259  26.271  0.2165  0.1345  0.1312
87476W        W30414  18.435   8.295  26.885 -0.2762 -0.2173 -0.3469
87477W        W30415  23.541  10.729  29.381  0.1114  0.0024 -0.0233
87478W        W30416  19.756  10.185  28.345  0.3422  0.2037 -0.0289
87479W        W30417  19.204  11.124  29.778 -0.0739 -0.0847  0.0232
87480W        W30418  18.569   7.999  29.565  0.0989  0.1057 -0.3006
87481W        W30419  20.456  10.372  31.480 -0.0748 -0.0287  0.0798
87482W        W30420  17.897  11.829  27.625 -0.0968 -0.2464  0.2203
87483W        W30421  17.694   9.695  29.410 -0.0069 -0.0109  0.0473
87484W        W30422  18.616   9.917  27.476  0.1650 -0.1295 -0.2417
87485W        W30423  19.589   8.482  29.744  0.2033  0.1320 -0.0524
87486W        W30424  20.420  11.156  29.180  0.0097  0.0733 -0.3237
87487W        W30425  21.148   8.398  28.665 -0.1882 -0.3119  0.4166
87488W        W30426  18.408   8.395  30.962  0.0598  0.2741  0.1684
87489W        W30427  21.158   7.893  28.447 -0.3671 -0.0215 -0.0200
87490W        W30428  17.315  13.170  27.158 -0.3433 -0.1176 -0.2056
87491W        W30429  22.137  11.236  27.981  0.0300  0.1520 -0.0402
87492W        W30430  22.145   8.965  29.081 -0.1736 -0.1523  0.1436
87493W        W30431  20.184  11.013  27.649 -0.2444 -0.1515 -0.1380
87494W        W30432  19.011   9.173  29.164 -0.1018 -0.0732 -0.1285
87495W        W30433  18.675   8.985  28.852 -0.0964 -0.1079 -0.0361
87496W        W30434  18.777   8.319   0.001  0.0286  0.1578  0.0139
87497W        W30435  19.834   7.954  31.104 -0.0434 -0.0533  0.1275
87498W        W30436  22.120   8.036  28.620 -0.0104 -0.0620 -0.0151
87499W        W30437  20.144   7.712  28.134  0.1739 -0.1378  0.0223
87500W        W30438  21.095  10.268  28.239 -0.0361  0.3025 -0.1308
87501W        W30439  20.198   9.957  29.576 -0.0867  0.2202 -0.0124
87502W        W30440  18.007   9.583  27.855 -0.1606  0.0434 -0.0249
87503W        W30441  21.192   7.417  31.382 -0.0400  0.1539  0.0509
87504W        W30442  20.849  11.872  30.248  0.0301  0.0339 -0.1464
87505W        W30443  23.196  10.000  29.320 -0.0608  0.0303 -0.0188
87506W        W30444  22.072  12.507  29.344 -0.1431  0.0800 -0.1914
87507W        W30445  18.577   7.532  28.789 -0.4285  0.0357  0.1087
87508W        W30446  19.649   7.664  27.799  0.3894  0.1077  0.1193
87509W        W30447  19.039  10.501  28.384 -0.0418  0.1487  0.4475
87510W        W30448  18.198   9.468  27.354  0.1964  0.3970  0.1926
87511W        W30449  19.617   7.394  29.111 -0.1269 -0.2362  0.0284
87512W        W30450  21.381  11.726  28.779  0.2990  0.0631  0.0684
87513W        W30451  19.252   9.606  28.412 -0.1695  0.0423  0.0577
87514W        W30452  18.129  10.299  29.058  0.0479  0.2027 -0.0264
87515W        W30453  21.708   9.533  30.412  0.1838 -0.4045 -0.1151
87516W        W30454  22.097   9.798  30.323 -0.0806 -0.1469  0.2564
87517W        W30455  20.486  11.155  28.642  0.4056  0.1320  0.0729
87518W        W30456  18.642   7.764  26.224  0.0226  0.2901  0.0381
87519W        W30457  19.319  11.523  28.665  0.1263 -0.0205 -0.3825
87520W        W30458  18.904  11.787  27.401 -0.3088 -0.0752 -0.0082
87521W        W30459  17.347  10.066  28.571  0.0595  0.0888 -0.1793
87522W        W30460  19.617  11.182  28.909 -0.0361  0.2137 -0.1245
87523W        W30461  20.043   8.814  31.653 -0.1097 -0.2697 -0.1117
87524W        W30462  18.720   8.372  31.490 -0.1629 -0.0370 -0.0112
87525W        W30463  19.989   9.216  30.793 -0.0474 -0.1497  0.0292
87526W        W30464  17.506  10.155  26.961 -0.0282  0.0297  0.0538
87527W        W30465  18.978  12.159  30.793  0.2022 -0.1154 -0.2200
87528W        W30466  20.923   8.406  27.677  0.2448 -0.1202  0.1726
87529W        W30467  21.471   8.563  28.149  0.2589  0.0863 -0.1974
87530W        W30468  20.262   9.625   0.739  0.2641 -0.1274 -0.0180
87531W        W30469  23.273  10.191  27.548 -0.2389  0.2410 -0.0260
87532W        W30470  20.828   8.392  28.220  0.2299  0.0104 -0.0582
87533W        W30471  20.142   9.605  27.887  0.2932 -0.2401 -0.0064
87534W        W30472  19.362  10.643  29.923  0.0759 -0.1300 -0.0525
87535W        W30473  19.877  11.310  28.440  0.2170  0.2970 -0.0488
87536W        W30474  19.781  10.325  28.960 -0.0302 -0.1007 -0.0863
87537W        W30475  20.605   8.529  27.270 -0.1000  0.4596 -0.1972
87538W        W30476  23.571  10.613  27.525  0.0563  0.0792  0.1863
87539W        W30477  18.395   9.163  29.875  0.2199 -0.3815  0.1361
87540W        W30478  20.936   9.791   0.933 -0.1382 -0.2553  0.0190
87541W        W30479  19.686  11.794  27.988  0.5421 -0.2269 -0.3478
87542W        W30480  20.028   7.531  31.378  0.0956  0.1541 -0.0059
87543W        W30481  19.230  10.018  27.577  0.0256 -0.0437 -0.2619
87544W        W30482  20.371   7.944  29.393 -0.0676 -0.3379 -0.0464
87545W        W30483  18.877  12.576  25.786 -0.1492 -0.1876 -0.1158
87546W        W30484  21.949   9.133  31.027 -0.0848  0.2523  0.1642
87547W        W30485  21.219   8.119  27.979 -0.0807  0.1550  0.1879
87548W        W30486  20.150   7.512  30.245 -0.1652  0.1032  0.1398
87549W        W30487  20.305   9.199  31.883 -0.2071 -0.0909 -0.1387
87550W        W30488  20.060  10.547  28.010  0.2401  0.0084 -0.3888
87551W        W30489  19.489   9.556  30.538 -0.1409  0.1367 -0.0402
87552W        W30490  18.919   8.676  26.677 -0.3304 -0.0910 -0.1912
87553W        W30491  20.457   8.756  30.092 -0.0373  0.1147 -0.2018
87554W        W30492  17.759   9.006  31.961 -0.2708  0.2275  0.0707
87555W        W30493  20.243  11.621  30.615  0.0063 -0.0518 -0.0287
87556W        W30494  22.302  10.733  30.631  0.1893 -0.0054  0.1565
87557W        W30495  21.485  10.169  28.635  0.1726 -0.3277  0.2400
87558W        W30496  19.512   8.872  31.704 -0.0570  0.5533 -0.3912
87559W        W30497  20.083   7.304  27.713 -0.2882 -0.0874 -0.0222
87560W        W30498  18.717  11.081  26.825 -0.0565  0.0871  0.1583
87561W        W30499  20.247  10.032  27.177 -0.3966  0.2060  0.2245
87562W        W30500  19.040   7.944  29.314  0.1632  0.1034  0.0129
87563W        W30501  20.837  10.556  29.972 -0.0822  0.2144 -0.0845
87564W        W30502  20.883  11.230  27.329  0.0041  0.1240 -0.4496
87565W        W30503  20.623   9.349  30.762 -0.0923 -0.0404  0.0528
87566W        W30504  17.644  10.897  28.035  0.3797  0.1462  0.0854
87567W        W30505  21.133   7.960  30.114 -0.0882  0.1640 -0.1195
87568W        W30506  18.396  10.455  27.486  0.3360  0.0508 -0.0253
87569W        W30507  19.667   8.948  28.656 -0.0028 -0.0704 -0.1819
87570W        W30508  18.775   8.257  27.646  0.3123 -0.3881 -0.2693
87571W        W30509  20.624   8.428  29.443 -0.2938 -0.0778  0.0471
87572W        W30510  20.073  10.048  28.681  0.1490  0.0135  0.1597
87573W        W30511  19.405   9.350  29.481 -0.1239 -0.0261 -0.0789
87574W        W30512  20.392   9.354  29.291  0.1488 -0.1572 -0.0667
87575W        W30513  17.415  10.595  29.081 -0.0794 -0.1710  0.0623
87576W        W30514  20.024   9.083  30.075  0.0072  0.0173  0.0740
87577W        W30515  21.690   7.995  28.236 -0.1715  0.0084  0.2163
87578W        W30516  20.280  10.971  28.219 -0.1193  0.1259 -0.1257
87579W        W30517  19.473   8.192  30.866 -0.1862 -0.1351 -0.2029
87580W        W30518  19.021   8.575  27.980  0.0763  0.0813 -0.1486
87581W        W30519  22.568   9.504  29.762 -0.1805 -0.1307 -0.1159
87582W        W30520  20.775   7.927  27.603  0.0316 -0.1441  0.1328
87583W        W30521  17.933   9.871  28.258 -0.3171 -0.1773 -0.1016
87584W        W30522  19.806  10.362  29.908 -0.1217  0.3915  0.2226
87585W        W30523  18.096  10.074  27.529 -0.2686 -0.4433 -0.1031
87586W        W30524  18.206   9.104  28.973 -0.2673  0.2152  0.0098
87587W        W30525  19.404   7.931  29.693 -0.0606 -0.2215  0.2705
87588W        W30526  21.888  11.036  30.424  0.0329  0.0036  0.0159
87589W        W30527  20.395   9.499  29.873 -0.1166  0.0667 -0.0685
87590W        W30528  19.737   8.545  29.000  0.0685 -0.2301  0.0832
87591W        W30529  18.928  10.100  29.552 -0.0883  0.0400  0.3583
87592W        W30530  21.331   9.995  30.979  0.0708  0.1438 -0.0560
87593W        W30531  20.697   8.713  28.624 -0.1492  0.3146 -0.2572
87594W        W30532  19.174   9.420  30.875 -0.2262 -0.0627 -0.1574
87595W        W30533  18.695   7.574  29.304  0.0907 -0.0308 -0.0160
87596W        W30534  20.242  11.911  27.066 -0.0025 -0.1142  0.3004
87597W        W30535  20.089   8.292  29.223 -0.2139 -0.1727 -0.0144
87598W        W30536  18.326  10.054  27.944  0.1146 -0.0045 -0.0171
87599W        W30537  18.716   8.792  29.595 -0.0452  0.3432 -0.1199
87600W        W30538  18.600  10.412  28.646 -0.1853 -0.1399 -0.0266
87601W        W30539  19.904   9.604  29.212 -0.1967  0.3137  0.0313
87602W        W30540  19.523   9.066  30.416  0.1264 -0.2653 -0.1342
87603W        W30541  19.492   9.665  27.334 -0.1169  0.0391 -0.0812
87604W        W30542  18.600  10.040  28.980 -0.3146 -0.3842  0.1718
87605W        W30543  21.463   7.581  28.034  0.0868 -0.1392 -0.0560
87606W        W30544  20.534   9.112  27.126 -0.0595 -0.0228  0.1643
87607W        W30545  22.591   8.355  28.401  0.1501  0.2692  0.1888
87608W        W30546  20.942   9.389  31.166 -0.3144 -0.3104  0.1249
87609W        W30547  20.169  10.064  28.150 -0.0366 -0.1891 -0.0844
87610W        W30548  20.277   6.931  31.969 -0.4603  0.0373 -0.3068
87611W        W30549  19.270   7.878  30.165 -0.0484  0.4254 -0.1115
87612W        W30550  21.780  10.334  29.022  0.0081 -0.2977  0.2868
87613W        W30551  18.229   7.486  30.293 -0.1667 -0.0655 -0.2382
87614W        W30552  21.320   9.473  31.538 -0.0867  0.1521 -0.0411
87615W        W30553  19.072   9.629  31.334  0.0648  0.0639 -0.0600
87616W        W30554  20.036   9.350  28.600 -0.1399  0.1263  0.0049
87617W        W30555  19.804   5.679  29.187 -0.0286  0.0963 -0.0908
87618W        W30556  19.033   9.103  29.869  0.0767 -0.1693 -0.1279
87619W        W30557  22.335   9.829  29.481  0.1254  0.1366 -0.0820
87620W        W30558  19.809  10.750  28.482 -0.1110  0.1994 -0.0333
87621W        W30559  21.897   9.380  28.926  0.0040  0.2043  0.0222
87622W        W30560  18.750   9.468  30.072 -0.2780  0.0823  0.0367
87623W        W30561  20.677   7.538  28.614 -0.1427 -0.0896 -0.0493
87624W        W30562  20.403   9.655  28.459 -0.1295  0.0039 -0.1385
87625W        W30563  18.273   9.630  29.569 -0.1322  0.4292  0.2621
87626W        W30564  19.615   8.249  30.234  0.2329  0.1956  0.1646
87627W        W30565  20.339  10.416  29.705  0.1353  0.0129  0.0930
87628W        W30566  20.347   8.933  30.551 -0.1480  0.0081 -0.1265
87629W        W30567  20.613   9.417   0.479  0.0788  0.0879  0.0947
87630W        W30568  20.699   8.456  31.291  0.3226  0.1876  0.1879
87631W        W30569  20.376   7.911  30.574  0.2661 -0.0466  0.2698
87632W        W30570  18.197   8.348  31.935  0.3172  0.1369 -0.0078
87633W        W30571  21.997  12.202  29.763 -0.2373 -0.0119  0.0584
87634W        W30572  20.640  10.496  28.198  0.0515  0.1594  0.0501
87635W        W30573  21.924   9.215   0.809 -0.1059 -0.2101  0.1008
87636W        W30574  21.584   9.425  28.526 -0.2469  0.0268  0.1140
87637W        W30575  21.175  10.960  29.366 -0.1975 -0.0490  0.3829
87638W        W30576  17.901   9.111  27.392 -0.0091  0.0470 -0.0526
87639W        W30577  21.225   9.315  29.592 -0.0492  0.0381 -0.1686
87640W        W30578  20.432   7.369  28.197  0.3321 -0.1220  0.5311
87641W        W30579  21.516   8.951   0.136  0.2142  0.0199 -0.0385
87642W        W30580  20.536  10.675  27.725  0.0315  0.0435 -0.1133
87643W        W30581  21.420   9.193  29.142  0.0914 -0.3113  0.1685
87644W        W30582  21.010   8.820  27.978  0.0409 -0.2533  0.0302
87645W        W30583  18.839   9.875  27.896  0.0175  0.1008 -0.0770
87646W        W30584  17.177   8.669  31.273  0.0407 -0.3390  0.1034
87647W        W30585  19.113   9.207  28.109 -0.2755  0.0573 -0.0194
87648W        W30586  20.604  11.922  28.603 -0.2301  0.0992 -0.1167
87649W        W30587  20.089  10.085   0.374 -0.0422  0.1224  0.2689
87650W        W30588  21.009  10.461  29.520  0.2653  0.0500 -0.0704
87651W        W30589  19.938   8.169  28.242 -0.0587  0.0822  0.2043
87652W        W30590  21.335   8.813  31.417  0.0698  0.3529 -0.2119
87653W        W30591  19.709  10.235  27.789 -0.0874 -0.0214 -0.1388
87654W        W30592  21.034   7.722  27.191  0.1563  0.1232 -0.1068
87655W        W30593  18.763  12.679  29.210  0.0749 -0.3115  0.1454
87656W        W30594  17.991   9.225  29.406  0.1101  0.1581  0.3312
87657W        W30595  18.745   9.403  27.821  0.2603  0.2085 -0.0326
87658W        W30596  18.904   8.059  31.088 -0.0771 -0.2951 -0.1689
87659W        W30597  20.701  10.624  29.181  0.1525  0.1021 -0.0924
87660W        W30598  20.787   9.150  28.339 -0.1859  0.1838  0.1687
87661W        W30599  21.640   9.349  29.891  0.3826 -0.2986  0.3286
87662W        W30600  21.102   9.996  31.942 -0.1561 -0.0798  0.1596
87663W        W30601  18.721   9.665  29.330 -0.0144 -0.2313 -0.1206
87664W        W30602  21.495  11.254  30.165  0.1651 -0.0970  0.0928
87665W        W30603  21.641  10.504  29.529 -0.0924  0.0839  0.0094
87666W        W30604  19.417   9.439  30.031 -0.1592 -0.0810 -0.1778
87667W        W30605  18.547   8.462  30.437 -0.1525 -0.3024  0.1405
87668W        W30606  18.457   9.167  29.358 -0.1548 -0.0086  0.3555
87669W        W30607  20.460   9.189  28.756 -0.2400 -0.1104 -0.1779
87670W        W30608  22.829   7.143  28.769 -0.0912 -0.0566  0.1302
87671W        W30609  19.911  11.121  27.139 -0.1230 -0.0184  0.1429
87672W        W30610  18.699  10.326  31.426 -0.2349 -0.1940 -0.0895
87673W        W30611  18.694   8.856  31.186 -0.0363 -0.2119 -0.0418
87674W        W30612  18.506  10.471  28.116 -0.0382  0.0366 -0.1373
87675W        W30613  21.634  11.243  29.098 -0.0828 -0.1740  0.0817
87676W        W30614  22.309  11.956  30.189 -0.0574 -0.1591  0.2555
87677W        W30615  20.785   9.942  30.701  0.0596  0.1541  0.0055
87678W        W30616  19.776   7.004  28.606 -0.2565 -0.4422 -0.2245
87679W        W30617  18.785  11.455  28.354 -0.3085 -0.1768  0.1554
87680W        W30618  16.796  10.094  27.795  0.0606 -0.0996  0.1587
87681W        W30619  21.273  10.576  29.080 -0.1403  0.0340  0.1429
87682W        W30620  19.830  11.838  27.500  0.0119  0.2096  0.4208
87683W        W30621  22.292  11.397  29.661  0.3543 -0.0019 -0.0198
87684W        W30622  22.392   6.870  27.432  0.0314 -0.0998  0.1047
87685W        W30623  22.029   9.667  29.851  0.1932  0.1343 -0.0284
87686W        W30624  22.019   9.950  28.064  0.0022 -0.0965 -0.1625
87687W        W30625  21.545   9.593   0.646 -0.1186  0.2462  0.3058
87688W        W30626  18.315  10.108  29.567 -0.1231 -0.0240  0.3206
87689W        W30627  20.169   8.813  26.857 -0.0229 -0.1381  0.1408
87690W        W30628  18.601   9.198   0.124  0.0190  0.1784 -0.3396
87691W        W30629  22.766   8.794   0.741 -0.0768  0.0252  0.1974
87692W        W30630  17.741   9.947  28.870  0.2880 -0.0661  0.0525
87693W        W30631  20.885  10.577  28.669  0.3658 -0.1168 -0.3181
87694W        W30632  19.602   8.385  28.542 -0.1015  0.0670 -0.1673
87695W        W30633  18.043   9.354  30.807  0.0234 -0.0688 -0.0649
87696W        W30634  20.793   8.029  30.804  0.1999  0.2323 -0.1412
87697W        W30635  21.597  10.956  28.042  0.1455 -0.2108 -0.2237
87698W        W30636  20.363   8.000  28.415 -0.2190  0.0441  0.0263
87699W        W30637  21.031  10.876  27.886 -0.0513  0.2116  0.3726
87700W        W30638  19.656  11.253  30.116 -0.2513 -0.5269  0.0842
87701W        W30639  20.174  11.690  28.480 -0.0366 -0.1671 -0.1348
87702W        W30640  18.989   9.611  27.413  0.3873  0.1237  0.1068
87703W        W30641  22.232   8.636  29.490 -0.2550 -0.2249 -0.0256
87704W        W30642  18.276   9.913  28.676 -0.0152  0.2461 -0.0759
87705W        W30643  20.369   7.425  31.926 -0.1386 -0.3074  0.2785
87706W        W30644  21.013   8.883  28.943 -0.0897  0.1778 -0.0643
87707W        W30645  22.974   8.510  28.766 -0.0651 -0.2826  0.0273
87708W        W30646  20.151  10.047  30.145 -0.2827  0.3246  0.1292
87709W        W30647  19.779   7.821  30.117  0.1644 -0.0247  0.0462
87710W        W30648  19.631   9.264  28.233 -0.2378  0.0058  0.1054
87711W        W30649  20.160  10.655  30.229 -0.3150  0.0737 -0.0380
87712W        W30650  21.011  10.141  28.921  0.0587 -0.0565  0.2864
87713W        W30651  21.887  10.554  31.496 -0.4366  0.1134 -0.1447
87714W        W30652  18.016   8.038  28.338  0.0138  0.3531 -0.1601
87715W        W30653  21.373   8.061  27.473  0.0769  0.1166  0.0134
87716W        W30654  17.886   8.617  27.653 -0.1918 -0.0146  0.0277
87717W        W30655  19.862   9.615  30.155 -0.0172 -0.0021 -0.0705
87718W        W30656  21.435  10.190  30.454 -0.1532  0.3999 -0.1051
87719W        W30657  18.767   8.457  28.755 -0.2303  0.1112  0.2195
87720W        W30658  23.372   9.567  27.895 -0.1558  0.1811 -0.0267
87721W        W30659  21.045   9.306  28.715 -0.0574  0.2177 -0.0572
87722W        W30660  18.913  11.823  27.965  0.0147  0.0594  0.0637
87723W        W30661  23.123   9.036  28.685  0.4460 -0.0532  0.0504
87724W        W30662  21.344  11.127  27.625 -0.0737  0.0186 -0.0707
87725W        W30663  20.025   9.067  29.044  0.1146  0.2397 -0.2233
87726W        W30664  21.827  12.806  28.267 -0.1285 -0.0531  0.0974
87727W        W30665  21.636   9.647  29.495 -0.0289  0.1988  0.4549
87728W        W30666  19.397   6.476  29.350  0.2116  0.2850  0.0473
87729W        W30667  19.937   9.267  29.608  0.2597 -0.2717  0.3385
87730W        W30668  18.820  10.798  27.403  0.2012  0.0499 -0.0927
87731W        W30669  21.262   9.725  28.728 -0.3276 -0.2524 -0.2082
87732W        W30670  20.260   9.496  30.459  0.0994  0.3847 -0.1179
87733W        W30671  19.126  11.172  26.160  0.3221  0.0236  0.3760
87734W        W30672  20.365   7.719  31.085 -0.1167  0.1272  0.3039
87735W        W30673  20.568  11.388  30.989 -0.3133  0.0672 -0.1745
87736W        W30674  20.189  11.425  29.704 -0.0805  0.0409 -0.1297
87737W        W30675  19.249  10.097  28.155 -0.1521 -0.2415 -0.0132
87738W        W30676  19.190   8.766  29.491  0.1381 -0.2336  0.1148
87739W        W30677  18.628  10.838  28.409  0.0381 -0.4510 -0.0533
87740W        W30678  19.501  11.420  27.235 -0.0640  0.0707  0.0122
87741W        W30679  22.295  10.884  29.519  0.0193 -0.1079 -0.0473
87742W        W30680  20.349  10.298  29.036 -0.1461  0.2501 -0.1188
87743W        W30681  21.366  10.111  29.296  0.4678 -0.0162 -0.1386
87744W        W30682  20.397   7.805  28.925 -0.0356 -0.1243  0.2006
87745W        W30683  22.192   8.549  28.753  0.2673  0.1674  0.2569
87746W        W30684  21.802   6.406  29.611 -0.1850 -0.2469 -0.0197
87747W        W30685  19.180   9.932  30.758  0.2235 -0.2498  0.0592
87748W        W30686  17.730   9.038  27.942  0.1275  0.1035  0.0351
87749W        W30687  18.540   9.444  26.364  0.1427 -0.1727 -0.2631
87750W        W30688  17.614  10.235  29.308 -0.0203 -0.1974  0.0306
87751W        W30689  19.795   6.744  30.047 -0.1840  0.2567 -0.1698
87752W        W30690  18.861   8.392  29.234  0.2579 -0.0977 -0.1630
87753W        W30691  17.897   9.183  30.275  0.0492  0.1981 -0.0619
87754W        W30692  20.148   7.484  28.619 -0.0425 -0.2389 -0.0509
87755W        W30693  21.482  10.705  26.935 -0.4142  0.2133  0.3378
87756W        W30694  19.320   7.426  29.896 -0.2696  0.4047 -0.0464
87757W        W30695  19.197   9.122  28.681  0.0147  0.0549  0.3732
87758W        W30696  20.730  10.892  29.606  0.5407  0.4026 -0.1790
87759W        W30697  22.842  10.674  29.176  0.1597 -0.2245  0.0932
87760W        W30698  19.838   7.318  28.191  0.2189 -0.0724  0.3165
87761W        W30699  21.307  11.809  30.068 -0.0942  0.0081  0.0535
87762W        W30700  18.929  10.124  27.129  0.1476  0.4411  0.0033
87763W        W30701  18.889   8.058  30.536 -0.1184 -0.0179  0.0214
87764W        W30702  19.175   8.579  31.298  0.2304  0.3739  0.1144
87765W        W30703  17.994   6.919  28.202 -0.1616  0.0023 -0.2297
87766W        W30704  21.537   9.553  30.884  0.0442  0.2376  0.1413
87767W        W30705  19.759  11.027  28.066 -0.2912 -0.0171  0.1735
87768W        W30706  20.499  12.083  28.063 -0.2112  0.0238 -0.0947
87769W        W30707  20.000   9.820  31.314  0.2128 -0.2045  0.0171
87770W        W30708  19.647  11.372  31.508  0.1898 -0.1916 -0.0217
87771W        W30709  17.924   7.053  30.065 -0.1133 -0.0141  0.1132
87772W        W30710  21.961  10.822  29.164  0.1522 -0.2336  0.0974
87773W        W30711  19.537  11.180  30.723  0.1252  0.2309 -0.1050
87774W        W30712  22.071  11.817  28.630 -0.1790  0.0944  0.0883
87775W        W30713  20.791   8.124  29.827  0.3878  0.0865 -0.3201
87776W        W30714  19.822   9.714  28.218  0.1079 -0.1302 -0.2680
87777W        W30715  19.654   9.742  29.731 -0.2658 -0.0345  0.1470
87778W        W30716  17.847   9.168  31.491  0.0515  0.2066 -0.0687
87779W        W30717  22.053   9.103  30.022  0.0292  0.0692 -0.0052
87780W        W30718  20.315   8.923  29.577 -0.2397  0.1001  0.0645
87781W        W30719  20.851   8.753  30.448 -0.0759  0.0612 -0.3126
87782W        W30720  20.515  12.375  26.621  0.1138 -0.3011  0.0341
87783W        W30721  18.505   8.522  29.936  0.1710 -0.1057 -0.2723
87784W        W30722  20.064   8.257  28.715  0.2492 -0.1944 -0.0248
87785W        W30723  18.484   9.205  30.402  0.0779  0.2299  0.1127
87786W        W30724  19.420   9.828  29.270 -0.3363  0.3883 -0.4630
87787W        W30725  21.554   9.814  29.961 -0.1024  0.0167 -0.0109
87788W        W30726  20.547   8.857  29.163  0.0784  0.1061 -0.3039
87789W        W30727  22.440   9.746  27.889  0.2908 -0.2878 -0.2012
87790W        W30728  21.637  11.957  30.885  0.4091 -0.2064 -0.1787
87791W        W30729  21.032  10.572  30.605  0.0194  0.1119 -0.2271
87792W        W30730  19.697  10.139  30.975  0.2306 -0.4550 -0.1270
87793W        W30731  20.642  10.970  30.161  0.0605  0.2898  0.1286
87794W        W30732  17.945   8.428  29.968 -0.1213 -0.1306 -0.1304
87795W        W30733  20.383   9.568  27.407  0.3682 -0.2295  0.2067
87796W        W30734  20.246  10.558  28.610 -0.5190  0.3066 -0.0214
87797W        W30735  21.967   8.332  29.962 -0.0060  0.0112  0.1994
87798W        W30736  19.478   9.004  29.131 -0.0839 -0.3809  0.1220
87799W        W30737  21.998   6.459  29.085  0.0164  0.1329 -0.1103
87800W        W30738  19.528   9.918  28.712  0.0284 -0.2368  0.1302
87801W        W30739  20.147  10.242  30.764  0.2505  0.1927 -0.1586
87802W        W30740  21.744   8.600  31.611 -0.5242 -0.0740  0.1962
87803W        W30741  20.876  10.278  31.194 -0.1244  0.0911  0.1675
87804W        W30742  20.275   9.502  31.091  0.4284 -0.0339 -0.1343
87805W        W30743  19.388   8.855  30.887  0.1314  0.0283 -0.0794
87806W        W30744  19.302  10.350  30.507 -0.0273 -0.0999 -0.1899
87807W        W30745  19.306  10.772  31.014  0.3404  0.1957 -0.0438
87808W        W30746  22.946   9.608  30.548 -0.1880  0.1708  0.0087
87809W        W30747  20.791   9.064  29.697  0.4946  0.3633 -0.0312
87810W        W30748  20.928   8.240   0.623  0.0099  0.2406  0.3640
87811W        W30749  21.720  11.022  31.734  0.3021  0.1266  0.5718
87812W        W30750  20.069  10.370   0.755 -0.1722  0.0698  0.1126
87813W        W30751  19.748   7.193  31.728  0.0482  0.0774 -0.2389
87814W        W30752  21.537   9.073  30.379 -0.1010 -0.0243 -0.2798
87815W        W30753  18.773   8.875  30.241  0.2321  0.1458  0.0619
87816W        W30754  22.207   8.727  31.790 -0.2462 -0.0336  0.1511
87817W        W30755  19.079   9.649  29.740  0.1781 -0.0592  0.3721
87818W        W30756  18.885   9.423  31.779  0.1011 -0.1693 -0.2482
87819W        W30757  22.045   8.523   1.946 -0.1886 -0.0733 -0.0150
87820W        W30758  19.612   6.320  31.536 -0.0350 -0.1182  0.1989
87821W        W30759  19.837   9.157  31.965 -0.0788  0.0247 -0.1983
87822W        W30760  20.080   7.075  30.504 -0.4708  0.0434  0.0053
87823W        W30761  17.686  11.844  31.211 -0.0080  0.1236  0.0695
87824W        W30762  22.298   8.008   1.083  0.1194 -0.0053 -0.2769
87825W        W30763  21.044   8.121   0.162 -0.0945 -0.0549 -0.0574
87826W        W30764  20.907   6.241  30.675  0.0218 -0.1560 -0.0949
87827W        W30765  21.045   9.552  30.040  0.0492 -0.3982  0.0877
87828W        W30766  19.829   8.045  31.621  0.0423  0.1461 -0.1211
87829W        W30767  18.503  10.553  30.839 -0.1547  0.1007  0.0714
87830W        W30768  20.029   9.330  31.497  0.3188 -0.0915 -0.4875
87831W        W30769  21.768   8.506   0.109 -0.0916 -0.2610  0.3198
87832W        W30770  20.396   9.741  31.589  0.0356  0.1375  0.2580
87833W        W30771  20.417   8.948   0.331 -0.0378 -0.1253  0.0223
87834W        W30772  20.761   9.081   1.601 -0.1075  0.0013  0.1483
87835W        W30773  21.443   7.714   0.060 -0.1141 -0.1298 -0.2445
87836W        W30774  17.995   6.023   0.386 -0.2898  0.1611 -0.1275
87837W        W30775  20.701   9.210  30.273 -0.2526  0.1285 -0.1808
87838W        W30776  19.708  10.514  31.606 -0.1844 -0.0840  0.0569
87839W        W30777  18.917   9.457   0.381 -0.1611  0.0864  0.3482
87840W        W30778  21.865  10.160   0.623  0.1986  0.0173 -0.1051
87841W        W30779  20.770   8.950   0.703 -0.0459  0.2278 -0.1899
87842W        W30780  20.986  10.119  30.228 -0.0644  0.1817  0.0206
87843W        W30781  19.243   8.512  30.527 -0.0936  0.0045 -0.0986
87844W        W30782  20.187   8.268  30.234 -0.0557  0.2683 -0.0135
87845W        W30783  19.579  12.060  30.848 -0.2175  0.1199  0.2237
87846W        W30784  17.979   7.173  31.252 -0.1200  0.0921  0.1587
87847W        W30785  19.668   9.537  31.064 -0.1083 -0.1500  0.1997
87848W        W30786  20.351   7.045   0.464 -0.0590  0.2624  0.1948
87849W        W30787  19.830   9.903   0.877 -0.2855  0.0911 -0.1210
87850W        W30788  20.426   9.992  31.124 -0.3017 -0.0250 -0.0639
87851W        W30789  18.422   8.855  30.758 -0.0379 -0.1136 -0.1033
87852W        W30790  21.423   9.069   0.631 -0.0593 -0.2327  0.0700
87853W        W30791  20.482   9.304   2.020 -0.2994  0.0761 -0.0391
87854W        W30792  20.257   8.551   0.057 -0.0255  0.0796 -0.1653
87855W        W30793  19.903   9.829  30.624  0.0610  0.0062  0.0254
87856W        W30794  19.978   9.418   0.388 -0.0631 -0.2356  0.1084
87857W        W30795  19.598   9.555   1.293  0.4362 -0.0981  0.0260
87858W        W30796  21.308  10.554  31.408 -0.0226  0.1982 -0.0895
87859W        W30797  19.272  10.581   0.117  0.0888 -0.2269  0.0259
87860W        W30798  21.508  10.573  30.882  0.0093 -0.1682  0.0487
87861W        W30799  18.623  10.009  30.039 -0.0071  0.1444  0.0800
87862W        W30800  18.096   9.167   0.550  0.1855 -0.4814 -0.2524
87863W        W30801  18.249  10.560  31.804 -0.0346 -0.2666 -0.0933
87864W        W30802  18.800  10.208  30.551  0.1243 -0.1552  0.1747
87865W        W30803  18.649   8.928  31.725 -0.1491  0.0547 -0.1808
87866W        W30804  21.420  10.732  30.320 -0.0289  0.2791  0.0613
87867W        W30805  23.487  10.039  31.398 -0.1035 -0.2477 -0.0182
87868W        W30806  21.204   9.756  30.487  0.1890  0.1221  0.4277
87869W        W30807  20.962  12.648  16.485  0.2298  0.2705  0.0473
87870W        W30808  19.342  11.612  16.643  0.2685 -0.1104 -0.0324
87871W        W30809  21.513  11.247  16.059  0.2750 -0.4211  0.1219
87872W        W30810  22.294  13.002  17.608 -0.1604 -0.1823 -0.3275
87873W        W30811  18.379  11.220  16.668  0.1942  0.3150  0.1050
87874W        W30812  21.412  14.468  15.855  0.2812 -0.0135 -0.2346
87875W        W30813  18.665  10.385  18.971 -0.1802  0.0417 -0.1131
87876W        W30814  21.324  12.550  17.988 -0.2735  0.1466  0.2215
87877W        W30815  22.712  12.405  18.513 -0.2025  0.4066  0.0347
87878W        W30816  19.941  12.384  15.146 -0.1757  0.1129  0.2744
87879W        W30817  20.562  11.778  17.297 -0.2448 -0.2458 -0.0354
87880W        W30818  21.502  13.493  17.941  0.3235  0.2223  0.0765
87881W        W30819  18.677  11.764  15.195  0.1883  0.3208  0.0108
87882W        W30820  19.024  10.532  18.538 -0.1182 -0.0771  0.1710
87883W        W30821  21.761  10.926  18.027 -0.0765 -0.1423  0.0305
87884W        W30822  18.956  13.582  15.075 -0.2017  0.3174  0.0042
87885W        W30823  19.654  11.496  18.012  0.0088 -0.0289  0.2022
87886W        W30824  19.910  12.868  16.491  0.0099 -0.2400 -0.1817
87887W        W30825  20.056  14.197  15.117  0.0190  0.1364 -0.2072
87888W        W30826  19.081  11.018  18.460  0.2191 -0.2231  0.1704
87889W        W30827  21.070  10.568  19.647 -0.0566 -0.2418 -0.1356
87890W        W30828  20.833  14.707  15.167  0.0526 -0.1609  0.2200
87891W        W30829  19.345  11.961  16.259 -0.1228 -0.3587 -0.1324
87892W        W30830  18.125  11.452  17.558 -0.0394 -0.0249 -0.1439
87893W        W30831  18.487   9.850  16.672 -0.0054  0.1165 -0.2274
87894W        W30832  21.303  11.171  17.284 -0.0514  0.2158 -0.0056
87895W        W30833  20.199  11.225  15.828 -0.0805 -0.2063 -0.0586
87896W        W30834  20.162  13.413  15.475 -0.0259 -0.2101 -0.0141
87897W        W30835  20.103  13.959  16.722 -0.1575 -0.0566 -0.4076
87898W        W30836  22.505  12.048  20.130 -0.0044  0.0000  0.0879
87899W        W30837  18.502  13.226  17.389  0.0469  0.0639 -0.2092
87900W        W30838  17.771  15.410  15.334  0.0313 -0.1108  0.1080
87901W        W30839  19.035  13.866  16.168 -0.1549  0.1218  0.1601
87902W        W30840  22.205  14.031  16.904 -0.1519  0.2727  0.0023
87903W        W30841  22.131  14.481  18.155  0.0029  0.3060 -0.0449
87904W        W30842  20.384  14.157  18.306 -0.1102  0.1878  0.1557
87905W        W30843  17.722  11.844  16.353  0.1531 -0.0331  0.0366
87906W        W30844  21.062  13.081  18.643  0.0939 -0.1369 -0.2759
87907W        W30845  19.558  12.344  18.155  0.2254 -0.4354 -0.0300
87908W        W30846  19.582  12.571  17.574 -0.0834  0.2241  0.1859
87909W        W30847  19.373  12.867  15.407 -0.0407 -0.2992 -0.3421
87910W        W30848  20.100  14.657  15.319 -0.0328 -0.2990  0.1239
87911W        W30849  19.913  12.408  16.791 -0.1674  0.1444  0.0378
87912W        W30850  21.412  12.836  18.470 -0.0686 -0.1390  0.2308
87913W        W30851  18.927  12.233  17.326  0.1284 -0.1177 -0.0819
87914W        W30852  22.825  11.566  19.445  0.1412  0.1526  0.1790
87915W        W30853  19.872  13.777  15.440  0.0886  0.0300  0.0648
87916W        W30854  22.362  11.937  16.008 -0.1427 -0.0090  0.1364
87917W        W30855  19.428  12.340  17.108 -0.0822  0.0216 -0.1514
87918W        W30856  21.576  12.731  17.065 -0.1371 -0.0287 -0.1767
87919W        W30857  19.000  12.454  15.558  0.1530 -0.0066 -0.2011
87920W        W30858  18.857  14.259  15.816 -0.0192  0.0416 -0.0054
87921W        W30859  20.018  10.805  18.112  0.1040  0.2333 -0.0964
87922W        W30860  21.969  14.847  18.699 -0.1312 -0.1368  0.0745
87923W        W30861  19.822  12.221  16.151 -0.1198  0.3371  0.0841
87924W        W30862  20.975  11.282  17.679  0.3118 -0.1288 -0.1391
87925W        W30863  18.984  12.697  17.249  0.1371  0.0815  0.4277
87926W        W30864  17.834  11.868  17.400 -0.2208 -0.0279  0.4470
87927W        W30865  21.314  14.261  15.370  0.2242 -0.1707  0.0222
87928W        W30866  23.217  13.347  17.466 -0.0769  0.1340  0.2400
87929W        W30867  19.756  12.822  15.115 -0.0543 -0.0100  0.1601
87930W        W30868  18.754  11.006  16.504 -0.2668 -0.1397  0.2017
87931W        W30869  16.973  10.596  19.199  0.3253 -0.2150 -0.1408
87932W        W30870  20.099  10.645  16.437 -0.1135  0.2002 -0.2432
87933W        W30871  20.192  11.844  15.210 -0.1631 -0.2618  0.2318
87934W        W30872  21.952  12.789  18.457 -0.0505  0.4342 -0.0254
87935W        W30873  18.359  13.658  17.021  0.1047 -0.4015 -0.0238
87936W        W30874  19.173  10.827  17.494  0.3837  0.2065  0.0033
87937W        W30875  19.440  12.929  17.215 -0.1236  0.0984 -0.0888
87938W        W30876  21.707  12.994  18.003 -0.1819 -0.1257 -0.0085
87939W        W30877  20.813  12.827  15.112  0.0822  0.1002  0.2568
87940W        W30878  19.918  10.815  16.008  0.0845  0.2214  0.1319
87941W        W30879  20.466  10.881  16.068  0.2368  0.2097  0.0756
87942W        W30880  19.643  14.427  15.325  0.3054  0.0355  0.1195
87943W        W30881  19.986  13.646  15.959  0.1916 -0.1200  0.0018
87944W        W30882  23.229  12.591  18.624 -0.1932  0.1719  0.3385
87945W        W30883  21.210  12.911  14.824  0.1204 -0.2187 -0.1283
87946W        W30884  17.850  13.674  17.593 -0.0823  0.0181  0.0241
87947W        W30885  19.185  11.805  20.122 -0.0606  0.2479  0.2143
87948W        W30886  21.180  12.760  19.034  0.0602  0.0697 -0.0083
87949W        W30887  18.701  15.165  14.708 -0.1366 -0.0356 -0.0416
87950W        W30888  17.442  11.409  18.114 -0.2520 -0.2222 -0.0550
87951W        W30889  17.512  13.766  15.929 -0.2693  0.0070 -0.0466
87952W        W30890  18.300   9.051  18.189 -0.1549  0.0175 -0.3058
87953W        W30891  20.901  13.100  16.744 -0.0478 -0.0019  0.1649
87954W        W30892  21.191  11.170  15.551  0.3760  0.1441  0.3249
87955W        W30893  18.114  11.421  18.474 -0.1909 -0.0076  0.1148
87956W        W30894  21.739  10.521  17.625  0.2323  0.0106  0.1993
87957W        W30895  17.488  12.461  17.265  0.1421 -0.0607 -0.0163
87958W        W30896  22.045  14.810  16.794 -0.2353  0.1460 -0.0826
87959W        W30897  22.485  12.866  16.739 -0.3842  0.0707 -0.0090
87960W        W30898  20.602  14.719  14.342 -0.0855 -0.2400 -0.3950
87961W        W30899  19.810  11.387  16.741 -0.0316 -0.1015  0.2000
87962W        W30900  17.318  10.881  16.005  0.2264 -0.0281  0.0268
87963W        W30901  18.631  10.080  19.554 -0.1520  0.1458  0.2037
87964W        W30902  19.839  10.643  17.247  0.2773  0.2880  0.0005
87965W        W30903  20.850  12.316  18.214  0.3251  0.2397 -0.2051
87966W        W30904  17.630  10.346  16.758  0.0010  0.2350 -0.0830
87967W        W30905  18.909  10.874  15.819  0.3498  0.3610 -0.1547
87968W        W30906  20.681  12.249  16.522 -0.0173 -0.1110  0.0218
87969W        W30907  19.053  11.799  17.216  0.3208  0.0377  0.1542
87970W        W30908  20.897  10.912  19.270 -0.0629  0.1773  0.0742
87971W        W30909  20.464  13.684  15.735 -0.1339  0.0515 -0.0867
87972W        W30910  22.130  11.239  18.931 -0.0195 -0.3719 -0.3160
87973W        W30911  20.482  14.193  15.951 -0.0153 -0.3568  0.2867
87974W        W30912  20.148  11.860  17.546 -0.1638 -0.0574  0.0215
87975W        W30913  18.604  10.509  16.108 -0.3774 -0.2487 -0.0919
87976W        W30914  18.722  14.551  14.527 -0.2413 -0.0916  0.0590
87977W        W30915  19.738  14.106  15.955 -0.2522  0.0078 -0.0001
87978W        W30916  19.187  11.510  15.957 -0.1908  0.1386  0.0037
87979W        W30917  21.842  13.169  17.210  0.0722 -0.1087  0.1843
87980W        W30918  19.659  13.243  15.680  0.1669 -0.2124  0.0590
87981W        W30919  19.271  13.820  17.576  0.3421 -0.0284 -0.1920
87982W        W30920  20.626  10.138  18.257 -0.0129  0.2013  0.0364
87983W        W30921  21.042  11.596  17.256  0.2027 -0.1332  0.0858
87984W        W30922  20.115  13.202  15.970 -0.5069  0.1256 -0.2741
87985W        W30923  18.540  10.006  16.024 -0.2692  0.0168  0.0681
87986W        W30924  20.490  14.222  16.582  0.0843  0.2045  0.4776
87987W        W30925  17.665  13.624  16.403 -0.2680 -0.2465  0.0943
87988W        W30926  18.544  10.541  16.781 -0.0084 -0.0131 -0.2751
87989W        W30927  19.544  14.419  14.373  0.4423  0.1818  0.2653
87990W        W30928  18.783  11.008  17.948  0.1874  0.3074  0.2414
87991W        W30929  18.862  12.555  18.887 -0.0022  0.2537 -0.2065
87992W        W30930  21.507  11.383  18.038 -0.1524  0.1951  0.1734
87993W        W30931  18.729  12.279  16.005 -0.0832 -0.2340  0.3114
87994W        W30932  18.625  13.147  16.861  0.0901  0.2231  0.0695
87995W        W30933  21.240  10.365  17.629 -0.2677  0.2029  0.2590
87996W        W30934  19.792  11.670  16.335  0.2599  0.0187  0.0736
87997W        W30935  19.786  12.150  17.363 -0.0975 -0.0881  0.0915
87998W        W30936  21.385  13.785  16.814  0.2537 -0.0070 -0.0836
87999W        W30937  20.590  11.319  16.172  0.0852  0.0330  0.0236
88000W        W30938  20.725  11.079  15.670  0.2424 -0.0282 -0.0473
88001W        W30939  16.799  13.635  18.603 -0.1171  0.0540  0.1487
88002W        W30940  19.366  12.384  15.937 -0.0405  0.1590  0.0092
88003W        W30941  20.935  13.574  16.534  0.0023  0.0290 -0.0186
88004W        W30942  18.061  10.578  16.872 -0.0321 -0.0187 -0.2090
88005W        W30943  22.033  13.871  14.822 -0.1032 -0.1481 -0.1814
88006W        W30944  20.384  12.550  18.466  0.1483 -0.1092 -0.1719
88007W        W30945  19.759  13.211  19.027 -0.0214  0.0944  0.1243
88008W        W30946  20.091  14.090  16.243  0.0419  0.2195  0.2903
88009W        W30947  20.202  11.925  16.486 -0.0009 -0.1524  0.0519
88010W        W30948  21.594  12.647  15.760 -0.3956  0.0056 -0.0968
88011W        W30949  19.667  10.395  16.736  0.1710 -0.2647 -0.1457
88012W        W30950  17.800  14.900  15.087 -0.0900  0.0571  0.1949
88013W        W30951  21.965  11.473  17.813  0.0125 -0.0006  0.0879
88014W        W30952  19.698  10.967  17.718  0.2369 -0.2349 -0.2088
88015W        W30953  19.859  10.971  18.778 -0.1410 -0.0948 -0.1745
88016W        W30954  21.204  11.947  19.587  0.1606  0.1751  0.0426
88017W        W30955  21.851  13.581  16.919 -0.2112  0.4628  0.0058
88018W        W30956  18.866  11.571  16.686 -0.1778  0.0639 -0.1202
88019W        W30957  19.207  11.794  15.476  0.1836  0.0573  0.0226
88020W        W30958  19.842  11.551  18.763 -0.0349  0.1145  0.0008
88021W        W30959  18.515  12.768  17.145 -0.2317 -0.1920 -0.0328
88022W        W30960  19.687  13.840  16.942 -0.2258  0.0768  0.1252
88023W        W30961  19.293  11.455  17.628  0.1124 -0.1159  0.1266
88024W        W30962  20.744  11.886  16.127 -0.0953 -0.2723  0.0774
88025W        W30963  20.656  11.906  19.165  0.3591  0.0487 -0.0155
88026W        W30964  19.510  12.379  16.513  0.1133  0.0671 -0.0627
88027W        W30965  19.855  15.107  15.069  0.4485 -0.6124 -0.3080
88028W        W30966  18.808  12.457  16.861  0.3860  0.0834 -0.0068
88029W        W30967  20.467  11.403  19.217 -0.1012 -0.0170  0.1870
88030W        W30968  21.435  12.480  17.470  0.1800  0.0441 -0.4137
88031W        W30969  19.762  13.299  15.167  0.5505 -0.0660 -0.2205
88032W        W30970  19.304  11.880  18.059  0.0119  0.2263  0.3013
88033W        W30971  18.697  14.673  15.539 -0.0518 -0.2044 -0.1035
88034W        W30972  20.223  10.690  16.919  0.0840  0.0266 -0.0612
88035W        W30973  18.149  13.026  16.800 -0.0045 -0.0279  0.1061
88036W        W30974  18.800  11.895  15.697  0.2809 -0.0478 -0.0675
88037W        W30975  20.160  12.922  16.901  0.3205 -0.2028  0.1977
88038W        W30976  21.107  10.592  18.075 -0.0613 -0.0781  0.3358
88039W        W30977  20.593  13.054  15.573  0.3253  0.0208 -0.0376
88040W        W30978  18.682  10.889  17.470  0.0888  0.3370  0.1862
88041W        W30979  19.533  10.706  16.340  0.2089 -0.2914  0.1946
88042W        W30980  17.319  12.748  16.474 -0.0760  0.1448  0.3224
88043W        W30981  21.208  11.966  18.422 -0.3714 -0.2109 -0.0743
88044W        W30982  19.717  11.448  15.898 -0.0157  0.1272  0.3800
88045W        W30983  22.099  11.948  18.060 -0.2702 -0.1163 -0.0159
88046W        W30984  20.292  12.165  18.138  0.1265  0.0399  0.1727
88047W        W30985  18.484  12.640  15.699  0.2939 -0.1805 -0.1669
88048W        W30986  20.948  11.058  18.188  0.1406 -0.1077 -0.1695
88049W        W30987  19.682  11.152  16.271  0.0181 -0.0415  0.1572
88050W        W30988  19.024  13.323  15.993  0.3017 -0.1874  0.1131
88051W        W30989  22.393  13.945  16.410 -0.0487 -0.4711  0.0328
88052W        W30990  18.310  12.769  16.127  0.4307  0.3089 -0.0358
88053W        W30991  19.782  11.967  17.870  0.1805 -0.0375  0.1241
88054W        W30992  20.341  12.956  18.113 -0.0803 -0.0740 -0.0822
88055W        W30993  22.491  12.636  18.054 -0.4529  0.2143 -0.0475
88056W        W30994  20.019  11.275  18.320  0.1550  0.7392  0.1230
88057W        W30995  18.066  11.200  15.607  0.4029  0.2647  0.0007
88058W        W30996  18.607  11.119  18.441  0.0280  0.0617  0.4499
88059W        W30997  21.865  12.775  17.506 -0.0233  0.2482  0.4593
88060W        W30998  20.682  12.080  18.611  0.0583  0.0737 -0.0073
88061W        W30999  18.566  12.814  18.551 -0.1547 -0.0801  0.1077
88062W        W31000  19.776  10.882  16.791  0.1819 -0.1506  0.0297
88063W        W31001  22.515  13.535  16.056 -0.1081  0.0797 -0.0106
88064W        W31002  20.846  12.629  18.691  0.0929  0.2667  0.0292
88065W        W31003  17.679  13.158  15.414  0.2191 -0.1118 -0.2282
88066W        W31004  17.827  11.814  17.943  0.2735 -0.2561  0.1300
88067W        W31005  18.903  13.778  15.602 -0.2125  0.0890 -0.1483
88068W        W31006  19.377  11.214  18.850 -0.2155  0.0342  0.1775
88069W        W31007  18.770  14.028  16.568 -0.0347  0.2803 -0.0527
88070W        W31008  17.374  13.804  15.028 -0.0596  0.0692 -0.0634
88071W        W31009  19.017  13.703  17.064  0.0314 -0.3642 -0.1693
88072W        W31010  20.499  11.343  17.485 -0.0396  0.0728  0.1726
88073W        W31011  20.567  13.370  15.180 -0.2241  0.0346 -0.1849
88074W        W31012  20.254  11.260  16.969 -0.0171  0.1647 -0.2593
88075W        W31013  23.080  11.977  19.691 -0.0966  0.1153 -0.1226
88076W        W31014  21.135  12.553  15.352 -0.0551 -0.1924 -0.0731
88077W        W31015  21.642  12.057  19.295 -0.0138 -0.0597  0.0451
88078W        W31016  19.316  11.237  15.557  0.1894 -0.2089 -0.1377
88079W        W31017  22.849  13.293  17.070  0.2261 -0.1043  0.2847
88080W        W31018  18.879  10.300  17.547 -0.1058 -0.1434 -0.0285
88081W        W31019  21.546  13.336  18.549  0.0086 -0.0721  0.1057
88082W        W31020  17.284  12.449  18.046 -0.2167 -0.0519  0.2836
88083W        W31021  20.272  11.200  15.314  0.2416  0.2269 -0.1810
88084W        W31022  18.661   8.356  16.804 -0.1945  0.0189  0.4072
88085W        W31023  20.531  11.695  16.764 -0.0323 -0.0502  0.1960
88086W        W31024  22.039  12.202  16.808 -0.0869 -0.1211 -0.0452
88087W        W31025  20.999  11.948  16.836 -0.4028  0.3329 -0.3344
88088W        W31026  21.409  13.043  17.511 -0.2335  0.3579 -0.3065
88089W        W31027  20.024  12.618  17.258  0.3499 -0.2296  0.1987
88090W        W31028  21.157  12.117  16.354  0.0822 -0.2230  0.3073
88091W        W31029  20.691  12.519  15.606  0.1021 -0.0120  0.0077
88092W        W31030  18.039  13.222  16.202  0.0771  0.1475  0.0891
88093W        W31031  17.555  10.894  18.067  0.1873 -0.1298  0.1042
88094W        W31032  20.388  12.165  16.993 -0.2100 -0.0939  0.2501
88095W        W31033  21.955  10.082  17.616  0.0032  0.1849  0.1115
88096W        W31034  19.627  11.708  17.332  0.0237  0.1805 -0.4537
88097W        W31035  21.679  10.727  19.271  0.0491  0.2567 -0.0335
88098W        W31036  19.009  13.276  17.449 -0.0102 -0.0361 -0.1755
88099W        W31037  17.907  10.766  18.758  0.1091  0.1161 -0.3117
88100W        W31038  22.163  13.497  16.497 -0.2754 -0.0521  0.0973
88101W        W31039  21.940  12.222  15.808 -0.1879  0.0979  0.0886
88102W        W31040  21.654  11.839  18.186 -0.0016  0.1361 -0.1468
88103W        W31041  21.867  12.094  16.360  0.2882  0.1561 -0.1610
88104W        W31042  22.573  12.356  16.847 -0.0778 -0.2207 -0.0547
88105W        W31043  18.256  11.035  17.137  0.0008  0.0945  0.0100
88106W        W31044  21.441  11.687  18.800  0.0291 -0.0449 -0.0629
88107W        W31045  19.336   9.942  15.898  0.1370 -0.2647 -0.2588
88108W        W31046  19.827   9.690  18.039 -0.0677  0.2390 -0.2451
88109W        W31047  20.360  13.830  15.246 -0.1139 -0.1002 -0.2344
88110W        W31048  21.312  12.040  17.289 -0.1603 -0.0641  0.1846
88111W        W31049  20.057  11.702  17.084  0.1490  0.0563 -0.2030
88112W        W31050  16.798  11.270  16.771  0.0347  0.0563 -0.6116
88113W        W31051  19.412  13.473  17.210  0.1304  0.0331 -0.1897
88114W        W31052  18.223  11.758  15.192  0.1203  0.2106  0.1737
88115W        W31053  20.223  12.349  15.588  0.4968 -0.1021  0.1868
88116W        W31054  22.062  12.750  17.082 -0.1823  0.3571 -0.0978
88117W        W31055  21.839  11.250  19.355  0.1574 -0.3314  0.0952
88118W        W31056  20.581  12.030  15.638 -0.0754  0.2728  0.1564
88119W        W31057  21.823  12.059  18.718  0.3912 -0.0990 -0.1232
88120W        W31058  18.527  14.104  16.147  0.1273  0.1105  0.2389
88121W        W31059  19.960  10.163  16.334  0.1020 -0.0255 -0.2432
88122W        W31060  18.107  14.127  16.673  0.3115  0.1325 -0.0524
88123W        W31061  17.582  12.948  17.291 -0.1665 -0.0672 -0.0167
88124W        W31062  18.566  13.554  16.006 -0.0519 -0.0701  0.1171
88125W        W31063  20.890  10.519  18.501 -0.1829 -0.1526  0.3245
88126W        W31064  19.267  11.342  17.142 -0.0533  0.0656 -0.0725
88127W        W31065  20.188  11.375  16.448  0.0078  0.2260  0.0423
88128W        W31066  22.812  12.167  17.269  0.2928 -0.0979 -0.0627
88129W        W31067  20.463  12.869  17.500 -0.0819  0.2219 -0.2231
88130W        W31068  19.716  11.955  16.706  0.3065  0.1892  0.1387
88131W        W31069  22.639  13.954  18.698  0.1918 -0.0180 -0.0083
88132W        W31070  21.398  12.888  16.650 -0.1232 -0.2030  0.0035
88133W        W31071  16.855  11.048  15.832  0.1573 -0.0796 -0.0982
88134W        W31072  17.755  12.609  18.994 -0.1303  0.0518  0.1767
88135W        W31073  20.098  12.836  18.733 -0.2789  0.0601 -0.1766
88136W        W31074  18.610  12.885  17.661  0.0695 -0.2627 -0.1342
88137W        W31075  19.088  10.583  16.640  0.0554  0.2822 -0.3360
88138W        W31076  19.803  13.210  14.662 -0.0708  0.0483 -0.1163
88139W        W31077  18.770  13.660  17.948  0.0802  0.1935  0.2857
88140W        W31078  17.695  11.678  18.473  0.1479 -0.0388  0.1615
88141W        W31079  19.366  14.116  15.640  0.1814  0.0500 -0.0978
88142W        W31080  21.578  12.831  15.213  0.1718 -0.2136  0.2034
88143W        W31081  22.233  12.567  16.469  0.1493  0.0243 -0.0247
88144W        W31082  22.148  14.175  17.736 -0.3623  0.0184  0.0063
88145W        W31083  18.499  12.172  15.378 -0.0510  0.1511 -0.1959
88146W        W31084  19.237  12.872  15.888 -0.1273  0.1002 -0.0154
88147W        W31085  17.668  13.028  15.984  0.0881  0.0474  0.2088
88148W        W31086  20.913  13.461  15.559  0.2343  0.4320  0.1259
88149W        W31087  19.741  13.765  16.407  0.1610 -0.2546  0.0945
88150W        W31088  22.736  13.124  18.204  0.0824 -0.0248  0.3433
88151W        W31089  20.731  11.573  15.712  0.3230 -0.0627  0.0869
88152W        W31090  21.486  12.124  15.931  0.3271 -0.0715  0.0219
88153W        W31091  21.719  10.764  16.588  0.0652 -0.1677 -0.0355
88154W        W31092  21.678  12.799  18.922  0.3593  0.2286 -0.0293
88155W        W31093  20.710  12.381  19.155 -0.0219  0.2821 -0.1869
88156W        W31094  19.228   9.895  15.321 -0.1257  0.0044  0.0205
88157W        W31095  20.399  11.459  18.755  0.1711 -0.0844 -0.1583
88158W        W31096  22.089  10.642  20.218  0.1919  0.1264  0.1001
88159W        W31097  17.893  13.990  17.193 -0.1200  0.0749 -0.2134
88160W        W31098  22.373  14.805  14.732 -0.1214 -0.2250  0.2758
88161W        W31099  18.391  11.602  15.596  0.3262  0.1343  0.2483
88162W        W31100  21.307  12.372  16.784  0.0403 -0.0457 -0.0288
88163W        W31101  21.895   9.714  18.004 -0.1624 -0.3894  0.1272
88164W        W31102  18.595  13.142  15.769  0.3817  0.2409  0.1580
88165W        W31103  20.712  10.436  16.780  0.0741 -0.1533  0.0626
88166W        W31104  19.304  13.436  16.453  0.0121 -0.1021 -0.0715
88167W        W31105  19.135  12.640  18.358  0.2082  0.0892  0.1663
88168W        W31106  20.346  13.655  16.306  0.1425 -0.0197  0.0059
88169W        W31107  17.841   9.635  16.872 -0.0683  0.1828 -0.1194
88170W        W31108  22.877  12.149  15.913 -0.1214  0.2025 -0.3396
88171W        W31109  19.713  11.202  17.237  0.0406  0.1404  0.2116
88172W        W31110  22.259  11.345  19.703  0.0540 -0.0354 -0.0513
88173W        W31111  21.321  11.385  16.854  0.0043 -0.1215 -0.0021
88174W        W31112  21.721  12.503  16.546 -0.2858 -0.0334 -0.3534
88175W        W31113  20.381  12.649  16.516  0.1328  0.0098 -0.1025
88176W        W31114  18.250  10.786  16.428  0.1777 -0.1572  0.2287
88177W        W31115  21.093  12.096  15.626  0.1921  0.0015  0.1784
88178W        W31116  21.649  12.364  18.332 -0.0962 -0.0204  0.2377
88179W        W31117  21.689  11.684  15.031  0.2444  0.0170 -0.1333
88180W        W31118  21.994  13.853  17.386 -0.0879 -0.1200 -0.0077
88181W        W31119  18.704   9.766  17.929  0.0914  0.0357 -0.1124
88182W        W31120  20.184  10.727  15.077  0.0745 -0.5295 -0.0496
88183W        W31121  17.570  12.659  15.562 -0.2054 -0.0966  0.2912
88184W        W31122  21.211  11.386  18.464  0.0580  0.0257 -0.3004
88185W        W31123  22.315  14.483  20.725 -0.0161 -0.0261  0.0927
88186W        W31124  18.413  11.040  15.986  0.1610  0.1240 -0.0006
88187W        W31125  20.517  14.378  15.489  0.0728  0.0502 -0.1976
88188W        W31126  20.872  11.286  16.553  0.0581  0.2961  0.2919
88189W        W31127  19.963  14.121  14.615  0.1005  0.2528  0.1176
88190W        W31128  22.436  11.907  17.009 -0.2730 -0.1189  0.1445
88191W        W31129  21.129  13.138  16.294  0.0947  0.0597 -0.0265
88192W        W31130  19.371  10.748  17.028 -0.1197  0.1400 -0.0025
88193W        W31131  21.750  14.605  17.204 -0.1734  0.4400  0.2759
88194W        W31132  22.771  13.010  17.695 -0.3016 -0.2951 -0.0652
88195W        W31133  20.325  10.765  15.619  0.0135  0.0347  0.1173
88196W        W31134  18.379  10.490  17.345 -0.0449 -0.0147  0.0731
88197W        W31135  18.324  14.347  15.703 -0.3244  0.1757 -0.0339
88198W        W31136  21.040  10.931  16.893 -0.0561  0.1569 -0.1181
88199W        W31137  20.965  11.067  19.876  0.0805 -0.1387  0.2526
88200W        W31138  21.393  16.012  16.554 -0.1189  0.0537  0.1762
88201W        W31139  22.450  11.778  19.688 -0.2712  0.0356  0.1264
88202W        W31140  22.493  12.121  17.845  0.2027  0.1638  0.0231
88203W        W31141  19.716  14.082  17.973 -0.0926  0.2063 -0.2186
88204W        W31142  18.541  13.180  16.367 -0.2046  0.2646 -0.1113
88205W        W31143  19.914  12.694  18.252 -0.0372  0.1935 -0.4130
88206W        W31144  19.246  12.709  16.802 -0.2515 -0.0967  0.2034
88207W        W31145  20.613  13.163  14.754 -0.1148  0.0246  0.0538
88208W        W31146  21.008  13.662  16.075  0.1296  0.3607 -0.2572
88209W        W31147  20.512  10.935  16.625 -0.1819 -0.0353 -0.1924
88210W        W31148  22.577  13.037  15.972  0.2139 -0.0447 -0.2337
88211W        W31149  18.781  12.841  16.098  0.1636  0.3641  0.0326
88212W        W31150  22.073  11.829  17.477  0.2473 -0.1667  0.1566
88213W        W31151  21.836  10.477  18.355 -0.0260 -0.1506  0.1749
88214W        W31152  18.384  13.625  17.656  0.3250  0.1486 -0.0137
88215W        W31153  17.069  12.178  15.889 -0.1526  0.0467 -0.2186
88216W        W31154  18.563  13.474  15.444 -0.1084  0.0587  0.1372
88217W        W31155  19.968  12.192  18.550 -0.0075  0.1914 -0.2287
88218W        W31156  18.717   9.652  18.793 -0.1808  0.0872 -0.1927
88219W        W31157  18.695  11.717  18.609  0.1670 -0.1463  0.0446
88220W        W31158  19.139  12.787  17.751 -0.2229 -0.1092  0.0390
88221W        W31159  19.049   9.857  17.511  0.5305 -0.1682 -0.0185
88222W        W31160  21.182  13.104  15.336 -0.2773 -0.0992  0.1173
88223W        W31161  18.832  10.154  16.494  0.0260 -0.2094  0.1072
88224W        W31162  17.577  10.369  15.792 -0.1203 -0.1356 -0.1952
88225W        W31163  22.257  12.291  17.325  0.2827 -0.0744 -0.0385
88226W        W31164  23.103  13.857  16.898 -0.2778 -0.3553 -0.1852
88227W        W31165  19.042  12.478  16.393  0.2433 -0.1927  0.0704
88228W        W31166  20.859  14.587  16.592  0.1060  0.0601 -0.0047
88229W        W31167  18.213  12.205  15.766 -0.0790  0.0965  0.1953
88230W        W31168  20.668  13.323  18.389 -0.0447 -0.2442 -0.0092
88231W        W31169  20.103  10.020  18.493 -0.0951  0.2353  0.2741
88232W        W31170  17.096   9.668  16.120  0.1852  0.0549 -0.0615
88233W        W31171  20.060  12.439  17.778  0.4105 -0.2487  0.0943
88234W        W31172  21.437  13.882  16.271 -0.1411 -0.0217 -0.0336
88235W        W31173  20.268  14.857  14.635 -0.2029  0.0397  0.1866
88236W        W31174  22.244  13.058  18.112  0.1426  0.0159 -0.3371
88237W        W31175  20.491  13.316  17.039 -0.3369  0.0283 -0.2258
88238W        W31176  18.687  10.310  19.993  0.3155 -0.0918 -0.0912
88239W        W31177  21.166  12.527  16.044 -0.0190  0.0155 -0.3779
88240W        W31178  19.858  13.665  17.596 -0.1544  0.3352  0.0094
88241W        W31179  21.801  14.174  15.635 -0.4188  0.2020 -0.0897
88242W        W31180  20.940   9.621  18.284 -0.0885 -0.3916 -0.3458
88243W        W31181  20.186  12.702  16.077 -0.2308 -0.1647  0.1464
88244W        W31182  19.374  10.625  18.918  0.0689 -0.1794 -0.0533
88245W        W31183  20.704  13.915  17.331 -0.0617 -0.2528  0.2021
88246W        W31184  23.436  11.585  18.505 -0.0728 -0.2296  0.1288
88247W        W31185  18.703  11.397  16.184  0.0297  0.1414  0.1783
88248W        W31186  21.045  11.034  16.028 -0.1819  0.0540 -0.2047
88249W        W31187  20.042  12.883  15.576 -0.3097  0.2308  0.1302
88250W        W31188  18.348  11.871  16.074  0.0255  0.0741 -0.2669
88251W        W31189  19.269  13.086  14.949 -0.0726 -0.1041  0.3073
88252W        W31190  20.185  10.952  17.422  0.1579 -0.0146 -0.3080
88253W        W31191  20.687  12.772  16.075 -0.0509 -0.1454  0.0842
88254W        W31192  21.120  11.694  17.998  0.1197 -0.0639  0.0062
88255W        W31193  19.547  12.469  14.815  0.2206  0.0046  0.2759
88256W        W31194  22.192  13.000  16.268 -0.1883  0.0262  0.2311
88257W        W31195  20.918  14.077  16.747 -0.2462  0.0958  0.0512
88258W        W31196  23.872  13.934  18.571 -0.0545 -0.1589 -0.2286
88259W        W31197  22.386  13.166  18.571 -0.1698 -0.2892  0.2285
88260W        W31198  20.852  12.266  17.210  0.1208  0.0456  0.2191
88261W        W31199  19.774  10.757  19.203 -0.2246 -0.1483 -0.1992
88262W        W31200  18.843  10.991  17.007 -0.1221  0.2065  0.1694
88263W        W31201  21.944  12.584  16.075 -0.0711 -0.1035  0.2810
88264W        W31202  20.613  11.805  17.778 -0.3474 -0.1482 -0.0853
88265W        W31203  19.836  10.482  19.622 -0.0064  0.0357  0.3069
88266W        W31204  22.010  10.674  17.106  0.1858  0.0036 -0.0616
88267W        W31205  21.009  12.640  17.652  0.2126 -0.0317  0.1769
88268W        W31206  21.131  12.742  17.032  0.1063 -0.0007  0.1457
88269W        W31207  20.794  12.239  20.498 -0.0890 -0.1952  0.1685
88270W        W31208  17.346  10.476  20.060 -0.0645 -0.3995 -0.0866
88271W        W31209  21.135  12.019  19.029  0.2952  0.1598 -0.2926
88272W        W31210  22.530  11.614  21.166 -0.1603  0.1665  0.4924
88273W        W31211  18.324  11.617  19.717 -0.1089 -0.0280 -0.1189
88274W        W31212  20.742  12.622  20.010  0.1230 -0.0317 -0.0763
88275W        W31213  20.068  10.729  21.759  0.0079 -0.4176  0.2194
88276W        W31214  21.827  13.771  21.171 -0.3749  0.3789  0.1293
88277W        W31215  21.904  14.423  22.365  0.1642 -0.2834 -0.0199
88278W        W31216  20.750  12.247  19.662 -0.1487 -0.0218  0.1147
88279W        W31217  20.670  12.763  23.253 -0.0333  0.1193 -0.1637
88280W        W31218  21.193  14.269  19.275 -0.0307  0.0576 -0.0216
88281W        W31219  20.582  11.023  20.182 -0.0620  0.1063  0.1652
88282W        W31220  19.263  10.332  21.128  0.1317 -0.1195 -0.3394
88283W        W31221  21.408  13.515  21.040 -0.3147  0.1262  0.2604
88284W        W31222  17.944  11.935  19.400  0.1146  0.1873  0.0047
88285W        W31223  19.707  12.155  20.211  0.0356  0.1095 -0.2216
88286W        W31224  20.283  11.811  18.469 -0.1868 -0.2072 -0.0082
88287W        W31225  20.691  14.059  19.392 -0.0188  0.0458 -0.1752
88288W        W31226  21.346  10.494  22.139 -0.1913 -0.1458  0.0353
88289W        W31227  19.915  10.900  22.201 -0.0173  0.1480 -0.1648
88290W        W31228  22.014  12.528  17.966  0.1338 -0.2380  0.0628
88291W        W31229  18.945  10.949  18.905  0.1695  0.0430  0.4319
88292W        W31230  17.843  11.117  19.655  0.2900  0.3233  0.3202
88293W        W31231  21.529  11.949  20.391  0.0245 -0.0203  0.0966
88294W        W31232  20.079  11.122  20.439 -0.0612  0.1462  0.3479
88295W        W31233  21.759  11.472  20.351 -0.0910 -0.1095 -0.1138
88296W        W31234  22.472  15.322  19.763 -0.3636  0.2326  0.0833
88297W        W31235  21.875  13.678  19.182 -0.0696 -0.0068 -0.1679
88298W        W31236  20.507  10.773  23.737 -0.2252 -0.0683 -0.3344
88299W        W31237  16.984  12.766  19.248 -0.2428  0.0181  0.1267
88300W        W31238  19.446  12.893  19.203  0.1037 -0.0237  0.0710
88301W        W31239  19.260  14.000  19.194  0.0385  0.0993  0.2235
88302W        W31240  24.154  13.238  21.669 -0.0209 -0.2524  0.0439
88303W        W31241  22.838  13.397  22.636 -0.0232 -0.0058 -0.0960
88304W        W31242  19.397  14.293  19.623  0.0495  0.0395  0.1117
88305W        W31243  18.953  12.967  19.274 -0.1742  0.0523  0.0997
88306W        W31244  20.947  13.789  21.108 -0.0753  0.1090 -0.0375
88307W        W31245  20.272  13.758  19.359 -0.2616 -0.0593  0.1342
88308W        W31246  21.246  13.541  20.444 -0.2411  0.3589 -0.2591
88309W        W31247  22.086  11.999  20.408  0.0593  0.1127 -0.2785
88310W        W31248  19.616  13.132  18.524  0.0114 -0.2045 -0.1311
88311W        W31249  21.600  13.447  19.629  0.2130  0.2576  0.0767
88312W        W31250  19.916  12.717  20.890 -0.2023  0.1212  0.2709
88313W        W31251  18.853  11.496  19.102 -0.3083 -0.2624  0.0317
88314W        W31252  22.762  12.644  21.895 -0.2428 -0.1539 -0.1747
88315W        W31253  18.415  13.631  18.741  0.1328 -0.1888  0.0885
88316W        W31254  22.792  12.260  20.503  0.0904 -0.2610  0.3541
88317W        W31255  21.379  11.122  19.099  0.0314  0.2300  0.1655
88318W        W31256  21.796  12.329  20.645  0.1163  0.0871  0.1996
88319W        W31257  19.350  10.862  21.056 -0.1017 -0.0583  0.0260
88320W        W31258  19.537  13.818  19.674  0.3386  0.1182 -0.2054
88321W        W31259  19.646  11.789  21.202  0.0006 -0.0625  0.0452
88322W        W31260  22.966  12.134  21.821 -0.0934 -0.1514 -0.1499
88323W        W31261  21.655  12.055  19.888  0.1388  0.1338 -0.0698
88324W        W31262  21.919  10.645  22.140 -0.0872 -0.0774  0.0665
88325W        W31263  18.968  13.304  19.643 -0.1099  0.2621  0.0044
88326W        W31264  19.825  10.845  20.020  0.0524 -0.1143  0.0454
88327W        W31265  23.058  12.958  19.263 -0.1412 -0.1472 -0.1088
88328W        W31266  23.972  13.149  20.132 -0.0159 -0.3411  0.0212
88329W        W31267  20.035  12.975  17.743  0.0528 -0.1683  0.1526
88330W        W31268  18.761  11.456  19.652  0.2998 -0.2524 -0.1787
88331W        W31269  18.881  11.858  20.612 -0.0742 -0.1372 -0.3825
88332W        W31270  19.312  11.976  21.956 -0.2557 -0.2130  0.1085
88333W        W31271  18.296  10.404  18.515 -0.0154 -0.0389  0.0183
88334W        W31272  22.057  12.997  23.524 -0.0027 -0.0705  0.0975
88335W        W31273  17.738  12.970  19.804  0.0074  0.2047  0.4337
88336W        W31274  23.852  11.779  22.616 -0.0114  0.2519 -0.1966
88337W        W31275  18.863  11.253  20.182 -0.0931 -0.1021  0.4035
88338W        W31276  23.056  12.935  22.197 -0.3298  0.1293 -0.0896
88339W        W31277  22.362  13.422  19.989  0.2441  0.3554  0.0637
88340W        W31278  21.834  11.170  24.192 -0.0319 -0.1193  0.0951
88341W        W31279  21.214  11.827  21.908  0.1187 -0.0996  0.1810
88342W        W31280  20.512  12.536  17.893  0.0876  0.0144  0.1736
88343W        W31281  21.578  12.979  20.164  0.0388  0.1015  0.0834
88344W        W31282  21.954  14.667  21.323 -0.0142 -0.3043  0.0887
88345W        W31283  21.913  11.674  19.035 -0.0463 -0.4235  0.0616
88346W        W31284  20.714  13.513  19.346  0.0209 -0.2659 -0.5013
88347W        W31285  20.258   9.932  23.618  0.0502 -0.2294 -0.0720
88348W        W31286  19.868  13.835  21.179 -0.0617  0.1234 -0.1594
88349W        W31287  19.481  13.125  19.664  0.3535  0.0226 -0.0197
88350W        W31288  17.232  11.579  18.569 -0.0134  0.0208  0.2552
88351W        W31289  19.082  12.329  17.899 -0.0976  0.1065  0.0048
88352W        W31290  19.573  11.543  21.630 -0.0219 -0.3965 -0.0471
88353W        W31291  20.744  13.035  19.006  0.1117 -0.1409  0.1313
88354W        W31292  22.062   8.645  20.955 -0.2189 -0.1136  0.2351
88355W        W31293  18.759  12.253  20.295 -0.0052  0.1555 -0.3110
88356W        W31294  21.290   8.977  21.409  0.0482 -0.1114  0.0560
88357W        W31295  19.593  12.533  18.656 -0.2638 -0.3100 -0.1745
88358W        W31296  24.206  12.661  20.819 -0.0381 -0.3798 -0.0843
88359W        W31297  21.943  11.060  20.441  0.4524 -0.2647 -0.0791
88360W        W31298  20.453  12.240  17.513  0.2254  0.1020 -0.0560
88361W        W31299  18.537  10.156  20.481 -0.0119  0.2657 -0.0262
88362W        W31300  20.174  11.840  18.983 -0.1412  0.2474  0.2115
88363W        W31301  20.366  11.537  22.076 -0.2171  0.3367  0.0420
88364W        W31302  19.657  11.088  21.781 -0.1928 -0.0535 -0.0399
88365W        W31303  23.206  11.735  21.739 -0.0612 -0.0123  0.0806
88366W        W31304  19.677  10.331  20.112  0.2369  0.0500 -0.0873
88367W        W31305  21.428  11.106  20.206 -0.1332 -0.2196 -0.3461
88368W        W31306  21.558  13.000  19.378  0.3022  0.1369  0.1181
88369W        W31307  19.568  10.524  18.443  0.1333  0.0101 -0.2130
88370W        W31308  21.042  11.349  22.677 -0.2052 -0.1015 -0.1441
88371W        W31309  22.173  14.008  19.025  0.1457  0.1944 -0.0825
88372W        W31310  22.534  13.841  21.177  0.1934  0.1910  0.0505
88373W        W31311  19.842  14.091  17.377 -0.3285 -0.2725 -0.0922
88374W        W31312  19.747  11.152  22.716 -0.1036 -0.1502 -0.0561
88375W        W31313  19.411  11.430  20.903 -0.1217  0.2096 -0.2814
88376W        W31314  18.935  13.837  18.751 -0.0912 -0.1658  0.2035
88377W        W31315  21.042  13.033  20.403  0.0767 -0.1209 -0.1903
88378W        W31316  20.118  11.220  20.901 -0.3289 -0.1821 -0.1676
88379W        W31317  22.548  15.090  19.245 -0.3041  0.2227  0.0254
88380W        W31318  20.819  14.212  17.728 -0.2424 -0.1204 -0.0845
88381W        W31319  20.648  11.771  19.704 -0.0298  0.0058  0.1663
88382W        W31320  21.413  11.125  22.932 -0.4042 -0.0172 -0.0445
88383W        W31321  23.009  11.627  22.829  0.0891 -0.0888  0.0513
88384W        W31322  22.269  13.449  21.069 -0.1257 -0.0507  0.0831
88385W        W31323  18.086  10.439  20.629 -0.1890  0.2806  0.0660
88386W        W31324  20.887  14.054  18.866  0.0308 -0.2819  0.2316
88387W        W31325  18.238  14.137  17.650  0.0836 -0.0002 -0.1418
88388W        W31326  20.396  12.059  20.840  0.4510 -0.0651 -0.2030
88389W        W31327  19.503  12.866  18.082 -0.2747  0.1527  0.0422
88390W        W31328  21.048  10.930  21.907  0.0528 -0.0295 -0.5778
88391W        W31329  19.352  11.550  22.550  0.0788  0.2373 -0.1184
88392W        W31330  20.618  13.275  21.665  0.0886  0.1006 -0.2123
88393W        W31331  17.767  10.810  20.471  0.2106 -0.2282  0.0104
88394W        W31332  19.762  12.449  19.351 -0.0524 -0.2143  0.3663
88395W        W31333  20.422   9.625  22.017  0.1301 -0.1163  0.1882
88396W        W31334  21.302  11.566  20.079  0.1960  0.0353  0.0088
88397W        W31335  20.474  12.546  21.193 -0.2526  0.1616  0.0920
88398W        W31336  22.865  12.648  20.217  0.0726  0.0442 -0.3598
88399W        W31337  20.494  10.775  19.741 -0.2951 -0.2937  0.2744
88400W        W31338  20.557  11.270  19.685  0.1097 -0.2491 -0.1210
88401W        W31339  19.030  13.307  21.311  0.1516 -0.2369 -0.2459
88402W        W31340  21.871  13.322  20.060 -0.1787 -0.1979 -0.1196
88403W        W31341  20.289  13.292  19.121 -0.0524  0.2831  0.0795
88404W        W31342  20.380  13.060  20.124  0.1590 -0.0492  0.1724
88405W        W31343  22.260  12.540  20.565  0.1487  0.4136  0.2022
88406W        W31344  18.545  12.893  19.582 -0.0833  0.3217  0.0334
88407W        W31345  21.061  14.252  19.743  0.1622  0.0833 -0.1699
88408W        W31346  22.246  13.908  21.577 -0.2772 -0.1448 -0.0626
88409W        W31347  21.235  10.816  20.854 -0.1913 -0.1714 -0.2791
88410W        W31348  18.406  10.771  18.866  0.0265  0.0028  0.0327
88411W        W31349  20.393  12.078  21.374  0.0539 -0.3331  0.1731
88412W        W31350  18.646  13.356  18.434  0.0797 -0.1700  0.1316
88413W        W31351  20.565   9.898  22.414 -0.0028 -0.0318 -0.0991
88414W        W31352  19.999  12.244  21.151 -0.1407  0.1025  0.1584
88415W        W31353  21.056   9.585  21.783 -0.0259 -0.2368 -0.2552
88416W        W31354  21.306  12.550  23.204  0.1685 -0.3625 -0.4868
88417W        W31355  22.166  12.079  20.890  0.0575 -0.3640 -0.2156
88418W        W31356  21.226  12.414  19.392 -0.0418  0.0935  0.0392
88419W        W31357  20.325  12.232  19.424 -0.2512  0.1535 -0.2216
88420W        W31358  20.970  11.414  21.432 -0.0638 -0.0143  0.1479
88421W        W31359  19.884  13.044  19.952  0.1830  0.3053 -0.3840
88422W        W31360  19.572  14.472  18.270  0.2199 -0.2342  0.3446
88423W        W31361  20.501  13.529  21.085  0.2910 -0.2008 -0.2448
88424W        W31362  21.908  13.371  20.550 -0.5095  0.2242  0.1162
88425W        W31363  21.202  11.817  23.938 -0.0815 -0.2797 -0.2602
88426W        W31364  20.349  10.456  19.328 -0.1381 -0.0517  0.0489
88427W        W31365  18.892  14.485  16.357 -0.3678  0.0889 -0.1881
88428W        W31366  20.230  11.635  18.005  0.1320 -0.0050  0.2189
88429W        W31367  20.693  10.259  21.821  0.0790  0.0574  0.0353
88430W        W31368  20.162  12.326  20.172  0.1148  0.1227  0.1752
88431W        W31369  20.688  13.180  17.857  0.0425 -0.0028 -0.1216
88432W        W31370  21.887  11.696  19.562 -0.2896  0.2231  0.0712
88433W        W31371  20.381  14.108  18.927 -0.0243 -0.0193 -0.1850
88434W        W31372  21.501  10.616  23.074 -0.2490  0.2441 -0.0419
88435W        W31373  20.424  12.767  19.256 -0.0929 -0.2746 -0.0054
88436W        W31374  19.283  11.227  19.952 -0.1950  0.0786 -0.0293
88437W        W31375  17.874  12.389  19.625  0.4419 -0.3861  0.0831
88438W        W31376  22.659  10.639  20.504 -0.0622  0.0696 -0.3897
88439W        W31377  23.814  12.935  21.207 -0.1320 -0.0810  0.0917
88440W        W31378  20.189  11.264  22.488  0.2744 -0.2377  0.1594
88441W        W31379  20.420  12.522  20.615 -0.1302  0.0458  0.1678
88442W        W31380  18.992  13.828  19.691 -0.0142  0.2176 -0.1484
88443W        W31381  22.984  13.943  20.719  0.2792 -0.2538  0.0601
88444W        W31382  20.949  10.609  20.152 -0.0163 -0.3109 -0.2419
88445W        W31383  21.974  12.633  21.614 -0.3343 -0.3384 -0.1684
88446W        W31384  19.945  12.177  20.619 -0.1510 -0.1876 -0.0547
88447W        W31385  18.945  10.574  19.363 -0.0944  0.0260 -0.0130
88448W        W31386  22.481  11.808  22.111  0.2369  0.0060 -0.1887
88449W        W31387  18.946  10.898  19.745  0.1335 -0.0814 -0.1473
88450W        W31388  19.257  12.246  20.428 -0.0137  0.0107  0.2651
88451W        W31389  21.849  12.830  20.570  0.2216 -0.1375  0.1986
88452W        W31390  20.148  11.531  19.553 -0.0217 -0.1561 -0.1358
88453W        W31391  19.555  12.303  20.983  0.2584 -0.1772  0.0879
88454W        W31392  19.895  11.971  21.668  0.3665 -0.4095 -0.1568
88455W        W31393  20.926  13.343  20.838  0.0311 -0.2031  0.1667
88456W        W31394  21.343  13.829  21.472  0.0570  0.0902  0.0787
88457W        W31395  20.826  12.224  21.057  0.0568 -0.2096 -0.0949
88458W        W31396  20.697  11.702  21.066  0.2621  0.1444 -0.1451
88459W        W31397  23.183  13.525  22.197  0.1604 -0.0338  0.2206
88460W        W31398  20.568  11.094  22.911 -0.2275  0.2327 -0.3328
88461W        W31399  19.900  12.739  20.385  0.0407 -0.1071 -0.2692
88462W        W31400  20.704  10.954  21.569  0.4293 -0.1515  0.1373
88463W        W31401  23.636  11.915  19.475 -0.0611 -0.3771 -0.1930
88464W        W31402  21.602  12.727  23.575  0.2661 -0.2968 -0.0837
88465W        W31403  18.417  11.851  17.454 -0.1052  0.3262  0.3675
88466W        W31404  18.341  12.002  20.468 -0.1970  0.1688 -0.2988
88467W        W31405  19.957  12.150  19.718  0.3047 -0.1329 -0.0039
88468W        W31406  21.243  11.353  22.112 -0.5265  0.0621 -0.1226
88469W        W31407  20.440  13.488  17.561  0.2842  0.0640 -0.3449
88470W        W31408  18.297  12.130  17.887  0.0246  0.2777 -0.0752
88471W        W31409  19.392  13.600  18.837  0.2517  0.2721  0.0353
88472W        W31410  21.384  10.025  20.703 -0.1131  0.0019  0.0665
88473W        W31411  22.307  12.721  18.805 -0.4517  0.0954  0.2742
88474W        W31412  20.119  11.207  19.912 -0.2639 -0.0822 -0.0401
88475W        W31413  22.456  10.736  23.009  0.2139  0.0307  0.2081
88476W        W31414  21.991  13.804  20.731  0.1336 -0.1400  0.0523
88477W        W31415  24.004  10.228  23.387  0.3681 -0.3775  0.1006
88478W        W31416  20.877  10.317  22.285 -0.4080  0.0054  0.2033
88479W        W31417  22.036  12.489  21.093 -0.0951 -0.2004 -0.0821
88480W        W31418  19.679  11.459  22.206 -0.2000 -0.2175 -0.1154
88481W        W31419  20.941  14.242  20.981  0.0203  0.0657  0.3624
88482W        W31420  19.358  12.924  21.702  0.0569 -0.2773  0.0691
88483W        W31421  21.755  11.360  19.870 -0.2683  0.3192 -0.1311
88484W        W31422  19.660   9.972  19.774  0.1161  0.3502 -0.1652
88485W        W31423  21.020  13.343  21.436 -0.2311 -0.0445  0.0224
88486W        W31424  23.507  11.205  21.634  0.0118 -0.3421 -0.0992
88487W        W31425  22.090  12.991  19.302 -0.0179  0.0894  0.1064
88488W        W31426  22.600  11.825  20.704  0.0777  0.0580  0.0421
88489W        W31427  19.902  11.310  19.155 -0.0356 -0.1145 -0.1165
88490W        W31428  21.677  11.765  20.858  0.2276 -0.0959  0.1904
88491W        W31429  21.581  12.660  21.000 -0.0328  0.1589  0.0530
88492W        W31430  21.399  12.326  18.742  0.2359 -0.0980  0.0628
88493W        W31431  20.304  10.516  22.241 -0.0746 -0.0489  0.1895
88494W        W31432  22.386  12.512  19.329 -0.2783  0.0734 -0.0205
88495W        W31433  20.817  11.530  21.895 -0.0392  0.1346  0.2486
88496W        W31434  21.185  10.928  22.416 -0.1348  0.0441 -0.1365
88497W        W31435  20.583  12.399  21.733  0.2823  0.2311 -0.2452
88498W        W31436  20.387  12.386  23.363  0.2623 -0.1567 -0.0138
88499W        W31437  18.663  12.412  23.762  0.3635  0.1696 -0.0944
88500W        W31438  22.230  13.167  22.319  0.0057  0.2519  0.2717
88501W        W31439  23.134  12.010  18.611  0.1286 -0.0057 -0.2409
88502W        W31440  21.675  11.732  22.127 -0.2740  0.0537  0.1014
88503W        W31441  22.976  11.418  20.854 -0.1055 -0.0325 -0.3986
88504W        W31442  20.883  11.417  18.825  0.0028  0.0979 -0.0080
88505W        W31443  19.534  11.833  20.556 -0.1283  0.0615 -0.0388
88506W        W31444  21.053  13.217  25.121 -0.0744 -0.0965  0.1659
88507W        W31445  19.079  12.154  18.551 -0.2053  0.1534  0.0347
88508W        W31446  21.419  11.639  22.898  0.1480  0.1840 -0.6325
88509W        W31447  21.942  13.269  18.881  0.1307 -0.0481 -0.0417
88510W        W31448  21.608  14.026  19.438 -0.0390  0.0308 -0.1699
88511W        W31449  21.432  13.131  20.703 -0.0897 -0.0839  0.2548
88512W        W31450  18.173  12.692  19.899  0.2019  0.0054 -0.3661
88513W        W31451  20.023  15.083  18.967  0.1127 -0.0091  0.3538
88514W        W31452  17.518  11.679  19.010 -0.0379 -0.0875  0.0031
88515W        W31453  19.803  11.790  18.354 -0.0230  0.2051  0.0906
88516W        W31454  21.935  12.183  21.668 -0.3645  0.0113  0.0125
88517W        W31455  20.889  12.882  21.836 -0.1803 -0.1165  0.1528
88518W        W31456  19.735  10.406  17.666  0.3801  0.3450 -0.2538
88519W        W31457  21.320  11.482  20.560 -0.3872 -0.3613 -0.1419
88520W        W31458  17.705  12.676  18.288 -0.0755  0.1767  0.0078
88521W        W31459  21.019  12.352  21.956  0.0293 -0.1067  0.2995
88522W        W31460  18.011  13.988  18.562 -0.1464  0.0750 -0.1684
88523W        W31461  19.245  12.324  19.120  0.2884 -0.0474  0.0677
88524W        W31462  19.444  12.090  19.632 -0.0295  0.1653 -0.0427
88525W        W31463  20.682  13.065  21.170  0.1436 -0.1670  0.0585
88526W        W31464  21.932  11.276  22.091 -0.0036  0.1384 -0.3253
88527W        W31465  20.977  11.088  20.518 -0.2157  0.0047  0.0548
88528W        W31466  21.547  10.995  21.981  0.1731 -0.1941  0.3986
88529W        W31467  20.906  13.705  19.956 -0.2551 -0.0764 -0.0201
88530W        W31468  21.221  12.390  19.897  0.0652 -0.4042 -0.3294
88531W        W31469  22.685  14.342  21.838  0.0174 -0.1413  0.0673
88532W        W31470  22.071  12.270  19.762  0.0294 -0.2088  0.1871
88533W        W31471  20.964  13.556  18.880  0.0677 -0.3576 -0.0583
88534W        W31472  19.456  11.954  23.271  0.1080  0.0930  0.1323
88535W        W31473  20.604  11.635  22.937  0.0769 -0.2183  0.2889
88536W        W31474  21.226  13.333  20.009  0.1205 -0.2505 -0.0621
88537W        W31475  19.813  11.843  19.332  0.0386  0.1417 -0.1056
88538W        W31476  19.897  12.924  19.439 -0.2098  0.1605  0.1964
88539W        W31477  18.539  13.498  19.899  0.1359  0.0764  0.3782
88540W        W31478  19.467  13.041  20.250 -0.2473  0.3506 -0.0671
88541W        W31479  18.307  13.635  16.474 -0.3597 -0.3299  0.0566
88542W        W31480  22.375  12.537  20.092 -0.2509 -0.0531 -0.1639
88543W        W31481  21.251  12.847  19.752 -0.1879  0.1591  0.0448
88544W        W31482  20.454  13.648  18.755  0.0703 -0.0170 -0.1430
88545W        W31483  20.593  10.065  20.322  0.2633 -0.0434 -0.1313
88546W        W31484  17.723  14.326  17.829 -0.0157  0.2713 -0.0308
88547W        W31485  17.097  12.153  17.712  0.0573 -0.1960 -0.1704
88548W        W31486  23.012  12.183  20.074 -0.0481 -0.1309 -0.0385
88549W        W31487  17.523  14.362  18.288 -0.0828  0.1095 -0.0293
88550W        W31488  21.380  12.182  21.591  0.1723 -0.0987 -0.0231
88551W        W31489  20.827   9.728  19.031  0.2310  0.2877 -0.0285
88552W        W31490  21.406  12.746  21.525 -0.2683  0.2350 -0.1195
88553W        W31491  22.569  10.670  19.994  0.2134 -0.1148 -0.0832
88554W        W31492  20.418  14.649  20.233 -0.4754 -0.0307 -0.0845
88555W        W31493  20.357  12.877  21.748 -0.2713  0.0988 -0.1325
88556W        W31494  19.293  11.553  18.485  0.2756  0.2545  0.0466
88557W        W31495  21.368  12.572  20.447  0.0608 -0.1905  0.0847
88558W        W31496  21.759  11.882  22.592  0.0878  0.1110 -0.0821
88559W        W31497  24.074  13.846  19.552  0.1014  0.1072 -0.1143
88560W        W31498  19.282  11.527  19.537  0.1969  0.0328 -0.0524
88561W        W31499  20.895  11.729  20.552 -0.0964 -0.0940  0.0216
88562W        W31500  22.403  11.304  22.097 -0.2253  0.1043 -0.3317
88563W        W31501  19.696  13.839  18.460  0.1748  0.0568 -0.0948
88564W        W31502  21.757  12.503  20.090  0.3856  0.0189  0.2531
88565W        W31503  19.864  13.209  18.129 -0.0692 -0.0950  0.0564
88566W        W31504  20.395  14.021  19.815 -0.3245 -0.0909 -0.2291
88567W        W31505  22.444  13.902  20.566 -0.1072  0.1022  0.0822
88568W        W31506  18.105  10.446  19.234 -0.2722 -0.0905  0.0965
88569W        W31507  22.052  11.634  21.211 -0.0982  0.0923 -0.4871
88570W        W31508  20.610  11.951  21.989  0.0865 -0.1004 -0.4341
88571W        W31509  22.406  11.231  22.824 -0.0487  0.0007  0.1794
88572W        W31510  19.718  11.478  20.245 -0.0249  0.1459 -0.0569
88573W        W31511  20.777  11.535  20.129 -0.2557  0.2043  0.4480
88574W        W31512  20.068  12.842  22.420 -0.4457 -0.2057 -0.2436
88575W        W31513  20.290  13.295  19.613  0.0986 -0.1284 -0.0724
88576W        W31514  21.428  13.367  19.077  0.0945  0.1829  0.1320
88577W        W31515  23.283  12.511  21.943  0.0064 -0.0169 -0.0048
88578W        W31516  21.769  12.138  17.723 -0.0490  0.0366  0.2942
88579W        W31517  20.129  14.367  19.994 -0.1829 -0.1129  0.5602
88580W        W31518  18.359  12.230  20.030 -0.0183  0.2626 -0.1315
88581W        W31519  21.060  11.306  20.957  0.2875 -0.2866  0.0045
88582W        W31520  17.945  13.673  19.005  0.1835  0.0251 -0.0799
88583W        W31521  20.481  12.998  22.184 -0.2621 -0.3405  0.3178
88584W        W31522  22.052  13.091  21.510 -0.0211 -0.1057 -0.2701
88585W        W31523  18.621  10.459  22.250  0.0688 -0.1424  0.1285
88586W        W31524  22.438  12.978  19.687 -0.2650 -0.3574 -0.0435
88587W        W31525  20.959  12.649  21.420  0.1012 -0.0346  0.0310
88588W        W31526  18.755  14.596  18.422  0.1382  0.1889 -0.1630
88589W        W31527  22.448  11.585  20.344 -0.1980 -0.0062  0.2453
88590W        W31528  21.742  13.077  21.875  0.2313  0.0249 -0.0035
88591W        W31529  17.261  10.802  19.579  0.1989 -0.0525  0.0503
88592W        W31530  22.243  13.453  21.897  0.0523  0.3043  0.0258
88593W        W31531  22.434  12.523  22.240 -0.0368 -0.2085  0.0719
88594W        W31532  21.437  11.474  21.231  0.1176  0.0369  0.2369
88595W        W31533  19.873  10.723  20.978  0.0304  0.1078 -0.2934
88596W        W31534  18.013  11.758  18.941  0.0648  0.1295  0.0522
88597W        W31535  22.118  11.562  20.724  0.2802  0.0984 -0.1567
88598W        W31536  20.417  12.070  22.924  0.1278  0.0310 -0.0806
88599W        W31537  20.201  12.648  19.762 -0.0133  0.1163 -0.0834
88600W        W31538  19.941  10.126  22.485 -0.1714 -0.1213 -0.2967
88601W        W31539  20.430  13.552  20.008  0.4318 -0.3370  0.0330
88602W        W31540  19.954  13.296  20.397 -0.1433 -0.0520  0.0445
88603W        W31541  17.405  11.749  17.692  0.0853  0.2508  0.0203
88604W        W31542  19.213  11.882  20.953 -0.1073 -0.1038 -0.2835
88605W        W31543  21.030  11.990  20.048  0.5630 -0.0629  0.0989
88606W        W31544  19.416  13.470  19.315 -0.0146 -0.0145  0.0308
88607W        W31545  23.960  12.802  21.671 -0.1341 -0.1937 -0.0776
88608W        W31546  19.700  11.747  19.831 -0.3741  0.0845  0.0415
88609W        W31547  22.358  14.086  22.157  0.1267 -0.1889  0.2124
88610W        W31548  19.177  10.947  21.577 -0.0774 -0.1051  0.0451
88611W        W31549  23.566  12.251  19.846 -0.1180 -0.1646 -0.2196
88612W        W31550  20.843  10.467  20.604 -0.1147 -0.1713  0.0077
88613W        W31551  20.718  13.425  20.369  0.0268 -0.0750 -0.3311
88614W        W31552  17.493  11.496  19.494 -0.0072 -0.1039 -0.0047
88615W        W31553  19.171  13.576  18.365  0.1993 -0.2779  0.3355
88616W        W31554  20.094  13.298  18.538 -0.0476 -0.0972  0.0601
88617W        W31555  20.702  11.843  23.415  0.3040 -0.0238 -0.2056
88618W        W31556  19.458  12.239  21.454 -0.2656 -0.1418  0.0362
88619W        W31557  19.708  12.539  19.902 -0.1364  0.0680 -0.2117
88620W        W31558  20.104  11.669  20.535  0.3419  0.0423 -0.1378
88621W        W31559  22.755  13.621  20.310  0.1225 -0.1715 -0.0733
88622W        W31560  19.677  11.204  19.621 -0.0441 -0.1694  0.0341
88623W        W31561  19.964  10.319  21.511 -0.2796  0.0174  0.0885
88624W        W31562  22.472  13.408  20.622 -0.0925 -0.1266 -0.0707
88625W        W31563  23.500  13.011  20.702  0.0020 -0.1561 -0.1689
88626W        W31564  20.720  10.172  21.180 -0.0230 -0.2614  0.0092
88627W        W31565  23.146  13.699  23.622 -0.0999  0.1122  0.1009
88628W        W31566  16.302  13.645  17.543 -0.7614 -0.0120  0.1113
88629W        W31567  21.660  10.742  22.571 -0.0266  0.1702 -0.0443
88630W        W31568  19.993  12.984  23.971 -0.0775  0.1421 -0.1401
88631W        W31569  17.200   9.688  18.946  0.3299 -0.2886 -0.0568
88632W        W31570  20.935  11.954  21.482  0.1564  0.3931  0.2050
88633W        W31571  20.212  13.675  18.241  0.1267 -0.2563  0.3344
88634W        W31572  22.149  14.703  19.137  0.3726  0.1883  0.1107
88635W        W31573  20.460  11.944  20.247 -0.0861  0.3784 -0.2998
88636W        W31574  20.237  13.687  20.638  0.1703 -0.1486 -0.1801
88637W        W31575  20.430  12.494  22.609  0.0038  0.0492  0.1493
88638W        W31576  23.046  13.990  19.820  0.2732 -0.0102  0.0433
88639W        W31577  18.091  13.534  20.187  0.0367  0.2267 -0.1111
88640W        W31578  23.417  12.749  19.605  0.0763 -0.0800 -0.1046
88641W        W31579  21.486  10.365  21.435 -0.0790 -0.1011 -0.2197
88642W        W31580  20.987  11.377  19.420  0.0473  0.0843  0.0484
88643W        W31581  19.203   9.598  22.362  0.0859 -0.2575 -0.2192
88644W        W31582  19.178  12.577  20.091  0.3556  0.1279 -0.0655
88645W        W31583  21.600  12.522  22.550 -0.1403 -0.0335 -0.0888
88646W        W31584  19.536   9.930  21.293  0.3267  0.1193  0.0315
88647W        W31585  20.164  11.663  21.140  0.3982 -0.1123  0.2714
88648W        W31586  22.065  13.886  19.715  0.2306  0.2828 -0.0278
88649W        W31587  18.669  12.640  20.026 -0.0179 -0.2718 -0.0016
88650W        W31588  21.748  12.536  19.503 -0.1723 -0.1192  0.0769
88651W        W31589  20.799  12.611  22.306 -0.3554 -0.1762 -0.0366
88652W        W31590  21.194  13.773  19.420 -0.1788 -0.1062 -0.1853
88653W        W31591  21.144  11.803  21.025  0.1606  0.3467  0.2058
88654W        W31592  20.876  12.749  19.495  0.0650  0.2240 -0.2650
88655W        W31593  23.049  13.375  20.654  0.0616 -0.0780 -0.0529
88656W        W31594  22.329  12.877  21.850  0.2416  0.0593  0.4965
88657W        W31595  20.907  14.866  20.836  0.1172  0.0149 -0.3292
88658W        W31596  21.446  13.888  18.976  0.3269 -0.2378 -0.0233
88659W        W31597  22.714  12.965  20.643  0.2223 -0.0342 -0.5648
88660W        W31598  19.799  10.575  22.582 -0.1111 -0.0729  0.0556
88661W        W31599  20.815  12.864  18.259  0.3548  0.1431  0.3007
88662W        W31600  22.103  11.726  20.010  0.1561 -0.1939  0.0087
88663W        W31601  22.146  11.484  22.541  0.2769 -0.1197 -0.1024
88664W        W31602  20.529  11.638  21.526 -0.1515 -0.1483 -0.0049
88665W        W31603  20.131  10.281  19.950  0.0222  0.1692  0.4041
88666W        W31604  20.087  13.950  20.219  0.2985  0.1234 -0.0269
88667W        W31605  20.787  13.091  19.844 -0.0857 -0.1331  0.0167
88668W        W31606  18.147  13.681  25.771 -0.0048  0.3563  0.2327
88669W        W31607  19.891  12.635  23.357  0.1740  0.0916  0.0112
88670W        W31608  20.609  12.149  23.842  0.2067 -0.0641 -0.2192
88671W        W31609  22.812  12.964  24.425  0.0573 -0.2711 -0.0865
88672W        W31610  18.323  11.419  23.142  0.0602 -0.0523  0.0992
88673W        W31611  21.781  13.504  22.633 -0.0822  0.0003  0.1753
88674W        W31612  18.176  12.817  26.641 -0.0405 -0.0323 -0.0345
88675W        W31613  20.899  13.922  24.390  0.0494 -0.2133  0.2084
88676W        W31614  21.782  13.814  24.683 -0.1027 -0.1738  0.2063
88677W        W31615  20.102  11.446  24.234  0.0691  0.0105 -0.1436
88678W        W31616  20.240  13.570  24.864  0.2530 -0.1163 -0.0359
88679W        W31617  21.363  11.872  23.409 -0.0052  0.0384 -0.1485
88680W        W31618  18.782  10.884  25.250 -0.3834  0.2067 -0.1762
88681W        W31619  20.210  12.489  23.894  0.0057 -0.0991  0.1768
88682W        W31620  19.104  12.269  22.397  0.0255 -0.0377 -0.2357
88683W        W31621  22.334  13.023  24.527  0.3701 -0.1229  0.0872
88684W        W31622  18.941  12.768  22.951  0.0148 -0.0190  0.0523
88685W        W31623  19.770  14.300  20.553 -0.2086  0.1559 -0.2120
88686W        W31624  19.323  13.192  24.662 -0.2368 -0.0230  0.1773
88687W        W31625  20.825  12.395  25.555  0.1286 -0.0593 -0.4744
88688W        W31626  20.812  13.880  22.283 -0.0119  0.1816 -0.0343
88689W        W31627  18.299  10.828  22.462  0.2058 -0.0559  0.0970
88690W        W31628  18.388  12.833  25.012 -0.0875  0.1442  0.0919
88691W        W31629  19.635  12.834  24.369  0.1039  0.1011 -0.1253
88692W        W31630  22.477  13.505  24.190  0.2321  0.4141  0.1896
88693W        W31631  20.376  13.082  24.735  0.2728  0.0343 -0.1914
88694W        W31632  21.447  14.422  21.851  0.3708 -0.1825 -0.1809
88695W        W31633  20.439  13.287  26.102 -0.0436  0.0999  0.1543
88696W        W31634  18.251  12.763  23.486  0.0040 -0.0123 -0.0093
88697W        W31635  18.849  14.404  20.628 -0.0270 -0.0878  0.0782
88698W        W31636  21.984  14.163  24.276  0.0347  0.0679 -0.1096
88699W        W31637  20.888  13.410  25.907 -0.1108  0.1434  0.1285
88700W        W31638  19.094  14.467  24.419 -0.0734 -0.1458 -0.3729
88701W        W31639  19.254  12.879  21.195 -0.2487 -0.0201 -0.0585
88702W        W31640  20.056  14.597  23.971 -0.0234  0.0568 -0.1001
88703W        W31641  20.216  13.430  23.635  0.0808  0.0472 -0.2557
88704W        W31642  20.299  13.912  23.708  0.1217  0.1444  0.6149
88705W        W31643  19.289  14.049  20.733  0.2224 -0.3790 -0.0057
88706W        W31644  19.924  13.791  22.005  0.0007 -0.0476 -0.1415
88707W        W31645  20.554  13.882  25.125  0.1780 -0.0065  0.1124
88708W        W31646  18.771  13.426  22.332 -0.1959  0.0558  0.0698
88709W        W31647  22.479  11.083  28.382  0.2877  0.2958 -0.0902
88710W        W31648  21.981  12.874  23.998  0.0091 -0.0436  0.1585
88711W        W31649  21.542  12.193  22.132  0.0181 -0.0441 -0.2593
88712W        W31650  20.125  11.291  23.077  0.0375  0.0538  0.0624
88713W        W31651  19.703  11.062  25.429 -0.3551  0.1124 -0.3142
88714W        W31652  18.695  12.475  24.718  0.0942  0.0775  0.1079
88715W        W31653  20.857  14.274  25.536 -0.3057  0.0223 -0.1913
88716W        W31654  18.773  13.618  24.863 -0.1589  0.3104  0.0995
88717W        W31655  21.164  12.734  25.315  0.1969  0.2577  0.0420
88718W        W31656  19.926  13.602  23.181  0.0792  0.1253  0.1741
88719W        W31657  20.192  11.730  23.741 -0.0027 -0.2588 -0.2493
88720W        W31658  22.599  13.766  22.858 -0.1898 -0.3676  0.0668
88721W        W31659  23.297  14.352  24.587 -0.1808 -0.1155  0.2184
88722W        W31660  20.946  12.644  20.842  0.1102  0.0751 -0.0388
88723W        W31661  18.413  12.942  23.921 -0.3536  0.2497 -0.2867
88724W        W31662  17.470  14.024  25.458  0.1073  0.1077  0.2388
88725W        W31663  18.510  12.195  25.548 -0.0603 -0.0965  0.2280
88726W        W31664  19.066   9.796  21.896 -0.2575 -0.1192  0.1198
88727W        W31665  21.496  13.811  28.029  0.3406 -0.0413  0.1292
88728W        W31666  18.729  13.572  23.893 -0.1860  0.2143 -0.1647
88729W        W31667  20.930  11.743  24.927  0.1305 -0.1101 -0.1627
88730W        W31668  18.868  12.256  24.212 -0.0803  0.2390 -0.0029
88731W        W31669  22.077  13.900  23.582 -0.0392 -0.0947 -0.1509
88732W        W31670  20.438  13.524  25.638 -0.3217  0.1006 -0.3177
88733W        W31671  20.498  11.744  25.775  0.3366  0.0644  0.0926
88734W        W31672  20.089  13.057  25.765 -0.0699  0.0737 -0.0654
88735W        W31673  20.190  13.032  21.191  0.2940  0.1126 -0.0954
88736W        W31674  20.443  13.619  22.021 -0.2698  0.1397 -0.0994
88737W        W31675  21.252  13.410  25.518 -0.0579  0.2071 -0.0360
88738W        W31676  22.602  12.522  24.358 -0.1882  0.0764  0.0405
88739W        W31677  19.088  13.193  22.038  0.0657 -0.1900 -0.0231
88740W        W31678  20.920  13.265  22.910  0.1215  0.2110  0.2618
88741W        W31679  21.119  14.636  22.807 -0.1029  0.2472 -0.1971
88742W        W31680  19.704  11.677  23.621  0.0672  0.0098  0.1634
88743W        W31681  20.629  12.107  22.436  0.1458 -0.3821 -0.1197
88744W        W31682  18.018  10.111  26.152 -0.2862  0.1941  0.2206
88745W        W31683  19.489  12.991  23.725  0.0394 -0.2001  0.0622
88746W        W31684  20.656  10.891  24.787  0.2339 -0.2102 -0.1641
88747W        W31685  19.218  12.061  26.550  0.1348  0.0837 -0.1702
88748W        W31686  21.789  10.666  24.332 -0.0090  0.3425 -0.1460
88749W        W31687  19.736  12.355  21.952  0.0405  0.1673  0.1311
88750W        W31688  23.049  14.651  22.683 -0.2703 -0.2244  0.2036
88751W        W31689  20.976  11.266  24.675  0.2433 -0.6079 -0.1906
88752W        W31690  22.811  12.903  23.495  0.2931  0.1389 -0.3789
88753W        W31691  17.302  11.383  25.397 -0.0561 -0.0119  0.1211
88754W        W31692  18.558  11.353  24.021  0.1237 -0.0076  0.0064
88755W        W31693  19.405  13.094  25.180  0.0342 -0.2971  0.0363
88756W        W31694  18.584  11.396  25.380 -0.0326 -0.2977 -0.0993
88757W        W31695  21.651  13.109  25.724  0.3293 -0.1819  0.0847
88758W        W31696  18.493  11.852  22.862  0.2345  0.0208 -0.3000
88759W        W31697  19.644  12.421  24.942 -0.2374  0.2410 -0.1821
88760W        W31698  18.729  11.952  26.807 -0.0835  0.1707  0.0938
88761W        W31699  19.012  12.466  21.363  0.0693  0.3258  0.1108
88762W        W31700  22.032  10.806  28.259  0.1310 -0.1513  0.3088
88763W        W31701  21.330  13.404  21.816 -0.1890  0.1344 -0.0673
88764W        W31702  21.263  14.544  24.746  0.0307  0.1206  0.1290
88765W        W31703  22.161  13.455  23.802  0.2433 -0.1098  0.1321
88766W        W31704  19.638  13.446  25.472  0.0497 -0.2855 -0.4258
88767W        W31705  20.098  11.839  23.266 -0.0120  0.0690 -0.0091
88768W        W31706  19.099  14.054  21.589 -0.1054 -0.0864 -0.0109
88769W        W31707  19.672  10.599  24.011 -0.0374  0.1735  0.1381
88770W        W31708  23.002  14.238  23.664  0.2420 -0.2896 -0.2319
88771W        W31709  19.862  13.177  23.447  0.1791  0.1494 -0.0160
88772W        W31710  18.623  13.016  26.506 -0.0945  0.3369 -0.0636
88773W        W31711  20.598  11.049  25.714  0.0510  0.2765  0.0671
88774W        W31712  22.087  11.549  26.717 -0.0353  0.0152 -0.1159
88775W        W31713  20.819  12.612  23.747 -0.0214  0.1065 -0.1376
88776W        W31714  19.320  10.672  22.683 -0.1702 -0.1592  0.2656
88777W        W31715  19.300  12.550  19.597 -0.2246  0.2240 -0.0756
88778W        W31716  18.983  12.735  23.432  0.0741 -0.0988 -0.0034
88779W        W31717  19.634  13.048  22.436  0.1048 -0.3700 -0.1388
88780W        W31718  21.031  10.837  24.438 -0.0281 -0.2021 -0.1146
88781W        W31719  18.319  12.950  26.060  0.2206 -0.0198  0.2077
88782W        W31720  22.160  12.180  25.569  0.2600 -0.1067 -0.0934
88783W        W31721  18.932  11.828  22.409  0.2318 -0.2943 -0.0704
88784W        W31722  19.688  12.008  24.591 -0.1072  0.2407 -0.2277
88785W        W31723  19.849  11.982  24.061  0.1280  0.3129 -0.0853
88786W        W31724  22.218  12.463  23.382  0.2404  0.1378 -0.1228
88787W        W31725  21.405  12.573  24.898 -0.0053 -0.0478 -0.0640
88788W        W31726  21.917  13.590  23.111  0.3138  0.0158 -0.0613
88789W        W31727  20.200  11.149  24.635 -0.0603 -0.0332  0.0405
88790W        W31728  20.324  11.952  24.200  0.1769  0.1417  0.0357
88791W        W31729  18.185  14.641  24.333  0.1535  0.4134 -0.0998
88792W        W31730  20.868  14.552  20.469 -0.1594 -0.0164 -0.1029
88793W        W31731  20.128  13.325  21.663 -0.0935 -0.3065  0.0452
88794W        W31732  20.071  12.162  24.940  0.2934 -0.1568 -0.0897
88795W        W31733  24.131  14.656  24.427  0.0286  0.0306 -0.0713
88796W        W31734  18.239  12.254  24.899  0.1096 -0.1394  0.2944
88797W        W31735  20.793  13.929  23.643  0.0623  0.0512  0.1088
88798W        W31736  21.544  14.844  22.618  0.2422  0.0243  0.0931
88799W        W31737  19.212  12.703  25.414 -0.0503  0.0312  0.0390
88800W        W31738  21.165  12.818  22.774 -0.0847  0.0365  0.1015
88801W        W31739  19.618  12.922  25.608  0.0663 -0.1258 -0.0460
88802W        W31740  20.052  11.194  26.628 -0.0419 -0.0292  0.0552
88803W        W31741  19.881  11.553  25.067  0.0075  0.1320  0.1315
88804W        W31742  19.226  13.823  24.787 -0.0378 -0.1280 -0.1759
88805W        W31743  21.326  13.049  26.249 -0.1774  0.2529  0.1104
88806W        W31744  21.551  12.608  24.361  0.4554 -0.0731 -0.2281
88807W        W31745  20.711  11.614  23.993 -0.3558 -0.3810 -0.0822
88808W        W31746  19.964  11.883  22.148 -0.2291  0.1635 -0.0524
88809W        W31747  20.073  13.661  25.995  0.0995  0.0959  0.0090
88810W        W31748  17.246  13.885  25.963  0.0526  0.1294  0.0345
88811W        W31749  18.734  13.610  23.335  0.1433  0.2321  0.0710
88812W        W31750  20.529  13.982  25.771 -0.0004  0.1025  0.2123
88813W        W31751  21.282  13.796  22.442 -0.0002 -0.1035 -0.1070
88814W        W31752  19.750  12.757  26.644  0.1912  0.2098  0.0998
88815W        W31753  19.745  12.958  24.871  0.1455  0.0486  0.1021
88816W        W31754  20.248  14.377  19.465 -0.3652 -0.2924 -0.0373
88817W        W31755  19.653  13.251  21.474  0.2896  0.1357 -0.0923
88818W        W31756  19.007  11.215  27.203  0.2787  0.0198 -0.2999
88819W        W31757  19.301  13.457  20.562  0.1305 -0.0138 -0.3387
88820W        W31758  21.184  13.469  23.884  0.2055  0.4084  0.0775
88821W        W31759  19.897  12.890  21.887 -0.2597  0.0730  0.1452
88822W        W31760  21.524  11.539  26.795 -0.2138  0.1899 -0.0496
88823W        W31761  20.182  12.410  22.119 -0.0695 -0.2006  0.0110
88824W        W31762  18.745  12.266  22.712  0.1691 -0.1586 -0.0947
88825W        W31763  21.441  10.370  24.573  0.0434 -0.1603 -0.3154
88826W        W31764  22.479  13.020  23.965 -0.1362 -0.2455 -0.0958
88827W        W31765  18.717  11.526  24.914  0.0883  0.1599  0.1468
88828W        W31766  19.044  11.752  25.266  0.0359  0.0315  0.1848
88829W        W31767  18.535  12.425  23.161 -0.0302 -0.0200 -0.1616
88830W        W31768  21.348  11.976  24.994  0.2443 -0.0873 -0.0649
88831W        W31769  21.544  11.312  24.636  0.2769  0.1016 -0.2492
88832W        W31770  20.529  13.647  23.226  0.0706  0.0204  0.0128
88833W        W31771  19.456  13.606  24.410  0.0657 -0.1729  0.0421
88834W        W31772  18.515  11.091  22.034 -0.1401  0.1051  0.0131
88835W        W31773  22.359  11.279  25.135  0.0106  0.0619 -0.0468
88836W        W31774  18.744  11.691  24.382  0.0721 -0.0466 -0.2411
88837W        W31775  19.128  12.403  21.844 -0.1048 -0.2741 -0.0013
88838W        W31776  20.817  12.075  24.254 -0.3430 -0.2390  0.0025
88839W        W31777  18.643  13.382  22.870 -0.1331 -0.1279  0.0183
88840W        W31778  19.419  12.162  27.518 -0.0490 -0.1209 -0.1811
88841W        W31779  20.885  13.277  26.379  0.2495 -0.0322  0.0865
88842W        W31780  19.215  12.679  24.883  0.0176 -0.0330 -0.2848
88843W        W31781  18.840  10.670  23.405  0.0917 -0.2166 -0.1215
88844W        W31782  19.393  12.337  24.323 -0.1581  0.1489  0.0756
88845W        W31783  21.552  13.721  23.458  0.0472 -0.0336  0.1336
88846W        W31784  21.956  12.841  24.879  0.1494  0.0605 -0.1567
88847W        W31785  19.234  14.346  23.820 -0.0727  0.4009  0.1150
88848W        W31786  18.752  13.499  25.715 -0.0805  0.0550 -0.0619
88849W        W31787  23.317  15.616  23.627  0.1124 -0.0700  0.2955
88850W        W31788  21.398  12.694  25.870  0.1915  0.0863 -0.2506
88851W        W31789  18.987  13.107  23.833  0.2252 -0.2068  0.0198
88852W        W31790  18.014  11.854  23.181  0.0704 -0.0090  0.1906
88853W        W31791  19.479  12.037  22.620  0.1600 -0.1081  0.0851
88854W        W31792  20.587  11.324  26.130 -0.1461  0.1264 -0.1597
88855W        W31793  18.333  13.342  24.906  0.2451 -0.0149 -0.0166
88856W        W31794  20.064  13.295  22.222 -0.1029  0.0382  0.2025
88857W        W31795  18.672  13.117  24.360  0.3607 -0.0119  0.0219
88858W        W31796  22.451  11.167  24.301  0.1217 -0.2400 -0.0177
88859W        W31797  22.047  12.335  22.602 -0.2113 -0.1707 -0.0998
88860W        W31798  19.847  13.263  24.496  0.0485  0.1525  0.0722
88861W        W31799  22.160  12.937  26.280 -0.0995  0.0435  0.0611
88862W        W31800  22.367  12.582  23.827 -0.2079 -0.0798 -0.0361
88863W        W31801  20.591  11.596  28.214 -0.0504  0.1866 -0.1179
88864W        W31802  19.530  10.005  25.706 -0.0613  0.1893  0.0289
88865W        W31803  22.532  13.485  24.975  0.0270  0.0406 -0.1869
88866W        W31804  17.629  12.753  27.324 -0.0174  0.2588  0.0167
88867W        W31805  19.496  14.272  25.424 -0.0545 -0.0634  0.0652
88868W        W31806  18.753  13.007  25.545  0.3985  0.2204 -0.1574
88869W        W31807  20.456  12.346  25.155  0.0518  0.1094  0.3595
88870W        W31808  19.971  11.231  23.639 -0.1895  0.1567  0.0491
88871W        W31809  20.911  13.609  24.798  0.0808 -0.1592 -0.0664
88872W        W31810  22.310  12.464  24.851 -0.0913 -0.1681  0.3291
88873W        W31811  20.540  12.956  22.726  0.1456 -0.1756 -0.0995
88874W        W31812  20.697  11.171  24.252 -0.0350 -0.2840  0.1182
88875W        W31813  20.270  14.074  22.837 -0.1030  0.2664 -0.4119
88876W        W31814  20.975  11.449  23.152  0.1411  0.0416  0.0040
88877W        W31815  21.459  13.222  24.213  0.2473  0.0015  0.1523
88878W        W31816  20.123  13.174  22.836 -0.2568 -0.1531 -0.0181
88879W        W31817  17.444  12.438  26.219 -0.1202  0.2243  0.2175
88880W        W31818  20.375  12.910  23.660  0.1382  0.2422 -0.1404
88881W        W31819  21.018  12.529  24.257  0.1261 -0.0282 -0.0059
88882W        W31820  21.956  13.430  24.267  0.1256  0.0016  0.3021
88883W        W31821  20.549  13.338  25.163  0.2394  0.0445  0.1974
88884W        W31822  21.578  13.276  24.812  0.2950  0.0020  0.1136
88885W        W31823  17.467  13.025  26.264  0.0700  0.1510 -0.2348
88886W        W31824  22.319  15.088  22.996  0.1544 -0.1906  0.1032
88887W        W31825  22.644  12.511  22.969  0.1165  0.0309  0.1701
88888W        W31826  20.269  12.190  25.598  0.0288 -0.1255 -0.0875
88889W        W31827  21.260  14.123  23.338 -0.0899  0.1752  0.2110
88890W        W31828  21.518  12.211  22.944 -0.0523 -0.0611  0.5734
88891W        W31829  19.581  11.299  25.919  0.0890  0.0790 -0.1042
88892W        W31830  21.030  13.000  24.640 -0.0259 -0.0186 -0.0277
88893W        W31831  19.409  12.415  23.429 -0.2737 -0.2330 -0.3456
88894W        W31832  20.968  12.341  25.023  0.1212  0.0052 -0.2156
88895W        W31833  20.316  13.784  21.588  0.1249  0.0479 -0.0799
88896W        W31834  20.394  13.190  23.271  0.1292 -0.1966  0.1482
88897W        W31835  21.191  12.195  24.605 -0.3772 -0.0268 -0.0242
88898W        W31836  18.376  12.534  24.271 -0.0483  0.5240  0.0013
88899W        W31837  19.133  13.819  25.751 -0.0686 -0.0923  0.3826
88900W        W31838  19.427  10.988  22.342  0.1698 -0.0701 -0.2051
88901W        W31839  19.778  12.710  22.775  0.3157  0.1929  0.0298
88902W        W31840  21.687  14.185  23.668 -0.2324 -0.0517 -0.2014
88903W        W31841  21.168  12.281  27.863 -0.0151 -0.1014  0.0741
88904W        W31842  22.165  12.041  23.711 -0.2042 -0.3212  0.1761
88905W        W31843  21.825  12.256  24.657 -0.2803  0.0733 -0.2040
88906W        W31844  19.699  12.765  21.391 -0.1834  0.1868 -0.0140
88907W        W31845  20.589  12.070  24.810 -0.0900 -0.2692  0.0225
88908W        W31846  18.047  11.911  25.665  0.0978 -0.1926  0.1584
88909W        W31847  18.341  13.132  22.455  0.1631 -0.0262  0.0446
88910W        W31848  20.286  12.872  26.644 -0.1869 -0.0139 -0.1369
88911W        W31849  20.055  12.328  24.423 -0.1186  0.3500 -0.1201
88912W        W31850  20.652  14.801  23.368  0.0376  0.0021 -0.1326
88913W        W31851  22.257  12.523  26.596 -0.1780  0.1979  0.0087
88914W        W31852  21.280  13.611  23.006 -0.0310 -0.0678  0.0605
88915W        W31853  20.271  10.891  23.338 -0.1371 -0.0217 -0.0372
88916W        W31854  21.183  14.171  23.873  0.0927 -0.1656 -0.1402
88917W        W31855  21.280  12.860  23.955  0.4723  0.0541  0.1028
88918W        W31856  18.362  13.384  23.658  0.0106  0.1483 -0.1333
88919W        W31857  17.181  11.709  26.927 -0.1107 -0.2432 -0.0321
88920W        W31858  20.990  14.768  26.154  0.0441  0.1889  0.1497
88921W        W31859  20.556  13.440  22.553 -0.3220  0.0695  0.0014
88922W        W31860  19.632   9.905  24.665  0.3857 -0.1273  0.0290
88923W        W31861  19.249  12.797  22.371 -0.0829  0.1996 -0.0845
88924W        W31862  18.270  13.936  26.218 -0.1455 -0.2243  0.2826
88925W        W31863  17.831  12.657  24.862  0.1647  0.1245 -0.1249
88926W        W31864  22.387  13.385  23.338  0.0248 -0.1023 -0.0238
88927W        W31865  21.703  13.168  23.048 -0.0525 -0.0355 -0.0561
88928W        W31866  20.153  10.826  24.064  0.0807 -0.2804 -0.2055
88929W        W31867  18.166  12.197  20.939 -0.0758 -0.4861  0.2170
88930W        W31868  22.883  12.616  24.002  0.1128 -0.1805  0.1721
88931W        W31869  18.953  14.228  21.139 -0.1569  0.1488  0.3988
88932W        W31870  20.489  12.645  27.126 -0.2791  0.0696 -0.0731
88933W        W31871  21.934  10.086  24.473 -0.0171 -0.3138 -0.1867
88934W        W31872  21.795  12.280  25.152 -0.1050  0.0057 -0.0876
88935W        W31873  22.547  12.111  24.059  0.0012 -0.1960  0.1252
88936W        W31874  20.545  14.536  25.901 -0.2465 -0.0774 -0.2718
88937W        W31875  19.136  12.185  24.736  0.1762 -0.3217 -0.3722
88938W        W31876  20.052  10.520  23.097 -0.0838 -0.2935  0.1529
88939W        W31877  19.390  12.477  26.864  0.1236 -0.0913 -0.0389
88940W        W31878  21.346  11.460  28.325 -0.0782 -0.1749  0.1914
88941W        W31879  18.380  13.930  23.058 -0.0515 -0.2165 -0.0579
88942W        W31880  22.723  13.772  22.345 -0.1544  0.1577 -0.0923
88943W        W31881  19.186  11.137  22.733  0.2264  0.0645 -0.1794
88944W        W31882  20.415  12.825  24.303  0.0536 -0.0036  0.4721
88945W        W31883  21.969  10.803  27.178  0.0529  0.0846 -0.1875
88946W        W31884  20.549  13.025  20.675  0.3983  0.2139  0.0116
88947W        W31885  20.364  11.816  25.189 -0.2132  0.0012 -0.1485
88948W        W31886  19.574  12.462  22.367  0.3399  0.2643 -0.0138
88949W        W31887  19.362  14.355  23.332 -0.0172  0.0211 -0.4495
88950W        W31888  18.827  10.915  23.814  0.0215  0.1064 -0.1650
88951W        W31889  22.153  13.970  25.098 -0.0807 -0.2024  0.2376
88952W        W31890  19.586  14.073  24.064  0.0379  0.0665 -0.0355
88953W        W31891  21.527  12.358  26.959 -0.1180 -0.0454 -0.1095
88954W        W31892  19.018  13.244  23.115  0.0747 -0.0082  0.1132
88955W        W31893  21.814  10.509  24.991 -0.0030 -0.1277 -0.0136
88956W        W31894  20.474  13.426  24.415  0.1630  0.0794  0.2396
88957W        W31895  19.186  12.230  25.304  0.0205 -0.1102 -0.2062
88958W        W31896  20.848  12.391  22.927 -0.2419  0.2107 -0.0868
88959W        W31897  21.694  12.655  25.470  0.1206 -0.0335  0.2857
88960W        W31898  21.664  11.842  23.824 -0.1083 -0.3910 -0.2863
88961W        W31899  20.767  13.799  22.800 -0.1528  0.2170 -0.2247
88962W        W31900  17.775  11.765  24.647 -0.0250  0.1237 -0.3440
88963W        W31901  20.251  12.741  23.018 -0.0980 -0.1617  0.1676
88964W        W31902  18.797  13.068  25.025  0.0038  0.0940  0.0528
88965W        W31903  20.291  14.168  21.970 -0.4569  0.1232  0.0132
88966W        W31904  22.103  13.243  25.901  0.3310  0.2556 -0.1108
88967W        W31905  20.022  10.594  23.647  0.0377  0.1756  0.1789
88968W        W31906  21.471  13.103  22.369  0.1885 -0.0588  0.0151
88969W        W31907  21.318  12.272  25.436  0.0959  0.1988 -0.5410
88970W        W31908  18.893  14.311  19.605  0.0539  0.2503 -0.1230
88971W        W31909  22.802  13.574  24.554  0.0349  0.1715 -0.0004
88972W        W31910  20.898  14.308  24.937  0.1019  0.1067 -0.1627
88973W        W31911  18.918  10.848  24.792 -0.0251 -0.1209 -0.3748
88974W        W31912  21.013  14.981  24.366  0.1510 -0.0554 -0.1758
88975W        W31913  22.496  14.580  24.282 -0.2201  0.0417  0.0767
88976W        W31914  19.853  11.005  24.925  0.5850 -0.0917  0.2329
88977W        W31915  19.661  11.526  24.613  0.0485 -0.0397 -0.0595
88978W        W31916  22.429  12.981  25.100 -0.0911  0.0746 -0.0005
88979W        W31917  21.150  11.813  25.609 -0.3294 -0.1172  0.0262
88980W        W31918  19.706  13.760  20.580 -0.2365 -0.1688 -0.0487
88981W        W31919  21.794  12.000  26.722 -0.1626 -0.2297  0.1039
88982W        W31920  20.488  14.057  24.624  0.0829 -0.4767 -0.1550
88983W        W31921  19.131  13.985  24.265 -0.0227  0.1626 -0.1934
88984W        W31922  19.117  12.791  24.437  0.1531  0.0758  0.0683
88985W        W31923  19.788  13.941  23.546 -0.0288 -0.0272  0.0527
88986W        W31924  19.625  13.352  21.998  0.3793 -0.4394  0.1677
88987W        W31925  20.245  13.790  22.413  0.0088  0.1550  0.2124
88988W        W31926  21.088  12.912  23.416  0.1198  0.0001  0.3179
88989W        W31927  22.753  13.395  23.711  0.2068  0.0493  0.0566
88990W        W31928  19.475  10.800  24.626 -0.1989 -0.1921  0.0467
88991W        W31929  20.657  11.632  24.485 -0.0193 -0.2118  0.2475
88992W        W31930  20.673   9.878  24.556  0.0654 -0.0416 -0.2119
88993W        W31931  18.806  14.080  25.230 -0.1121  0.1353 -0.0488
88994W        W31932  19.195  11.708  23.621  0.2223 -0.5655 -0.0096
88995W        W31933  19.760  12.229  23.015 -0.0427  0.0757 -0.4511
88996W        W31934  18.657  14.085  23.426  0.1449 -0.2866  0.2332
88997W        W31935  19.860  12.375  25.671  0.1587 -0.2368 -0.0129
88998W        W31936  19.377  12.109  23.861 -0.2306  0.2622  0.0102
88999W        W31937  18.528  11.728  25.790 -0.2211 -0.2027  0.1853
89000W        W31938  19.367  11.327  24.948 -0.2344 -0.1928 -0.0784
89001W        W31939  22.231  13.642  22.386 -0.0528  0.1034  0.1640
89002W        W31940  17.810  12.067  26.091  0.1782 -0.2274 -0.0769
89003W        W31941  19.624  11.517  24.120  0.0783 -0.1088  0.1259
89004W        W31942  21.086  14.227  21.501  0.2256 -0.0709  0.0863
89005W        W31943  21.809  14.028  22.036  0.1787 -0.2579  0.0735
89006W        W31944  20.982  10.315  24.429  0.0714  0.1005  0.1955
89007W        W31945  21.186  14.162  27.395 -0.1639  0.0442 -0.0303
89008W        W31946  19.068  12.448  20.872  0.0874  0.1757 -0.1010
89009W        W31947  20.684  12.841  25.100  0.1218 -0.1330 -0.2930
89010W        W31948  18.852  12.277  27.626 -0.3059 -0.0884 -0.0705
89011W        W31949  19.637  10.275  23.584  0.3885 -0.1335  0.0049
89012W        W31950  19.992  12.726  25.213 -0.0693  0.0679  0.4022
89013W        W31951  21.361  12.721  22.089 -0.1848 -0.1825  0.0818
89014W        W31952  19.617  13.212  22.914  0.1072 -0.1877  0.0264
89015W        W31953  19.216  10.441  25.583  0.3215 -0.0013 -0.1802
89016W        W31954  20.857  13.321  22.104 -0.0022 -0.6052 -0.3083
89017W        W31955  21.360  15.580  26.432  0.0194  0.0610  0.0121
89018W        W31956  23.105  12.553  23.234  0.2224  0.1565 -0.0471
89019W        W31957  20.760  11.948  25.411  0.1355  0.3778 -0.1085
89020W        W31958  20.199  11.709  24.704 -0.1903 -0.0936 -0.1052
89021W        W31959  19.317  12.760  25.993  0.2044  0.2231  0.0198
89022W        W31960  19.661  13.487  23.820  0.2134 -0.1224  0.2467
89023W        W31961  22.217  13.499  27.061 -0.1314 -0.2501  0.0172
89024W        W31962  18.976  11.504  25.873 -0.0290  0.0450 -0.0698
89025W        W31963  21.297  12.306  23.736 -0.1098 -0.0864 -0.1644
89026W        W31964  20.338  14.227  20.529  0.0451 -0.0052 -0.1403
89027W        W31965  18.321  13.230  25.412  0.0763 -0.4069  0.1210
89028W        W31966  19.155  12.570  23.921  0.0057  0.1115 -0.1651
89029W        W31967  19.344  13.197  24.153 -0.4177 -0.0998  0.0985
89030W        W31968  21.781  12.696  26.433 -0.1187  0.0075  0.0516
89031W        W31969  18.983  12.135  23.495 -0.1931  0.1451  0.2182
89032W        W31970  23.353  12.839  24.064 -0.0829 -0.2180 -0.1771
89033W        W31971  19.988  14.573  25.425  0.1113 -0.0702 -0.0572
89034W        W31972  20.417  14.592  24.459 -0.1337  0.2965 -0.1510
89035W        W31973  20.544  14.401  23.590 -0.0287  0.2091 -0.1899
89036W        W31974  22.238  14.373  24.804  0.2654  0.0655 -0.2597
89037W        W31975  19.076  11.246  25.353  0.1943 -0.2961  0.3265
89038W        W31976  19.444  12.871  23.218 -0.1624 -0.2555  0.0611
89039W        W31977  21.149  12.259  22.504 -0.1609 -0.1231  0.0087
89040W        W31978  21.236  10.900  25.782  0.3436  0.1895 -0.1994
89041W        W31979  18.370  10.403  24.064 -0.0770  0.2563  0.1512
89042W        W31980  21.378  10.339  24.034  0.3308  0.2788 -0.2063
89043W        W31981  20.843  13.778  21.629  0.1603 -0.2175  0.0712
89044W        W31982  18.417  14.289  28.856  0.2089  0.0626 -0.1341
89045W        W31983  18.074  12.589  28.508 -0.0733 -0.2280 -0.0609
89046W        W31984  21.247  11.997  26.782 -0.0631 -0.1706 -0.2932
89047W        W31985  20.630  14.033  27.120  0.1940  0.1036  0.0307
89048W        W31986  17.467  12.460  26.793  0.0972 -0.1267  0.0406
89049W        W31987  19.721  15.081  26.301  0.2878 -0.0695  0.3469
89050W        W31988  17.079  10.296  29.516  0.2258  0.1858 -0.0277
89051W        W31989  20.629  12.935  27.980 -0.0743 -0.0021 -0.1138
89052W        W31990  19.744  13.723  28.761  0.4499  0.1997  0.1486
89053W        W31991  20.617  13.774  26.237 -0.1462  0.1650  0.2187
89054W        W31992  21.030  12.821  30.523 -0.0014  0.0968 -0.0492
89055W        W31993  19.471  14.069  29.653  0.1788 -0.3042 -0.0342
89056W        W31994  19.310  12.446  28.511  0.1155 -0.0886 -0.0434
89057W        W31995  18.149  10.804  28.268 -0.0891 -0.0451 -0.3488
89058W        W31996  18.879  13.654  28.329  0.2897  0.0428 -0.0803
89059W        W31997  18.886  13.444  26.712 -0.2495 -0.0827 -0.0698
89060W        W31998  19.786  12.950  29.445 -0.2356 -0.2001 -0.0281
89061W        W31999  19.747  12.603  27.246 -0.2721 -0.0077  0.3873
89062W        W32000  19.480  14.034  29.017 -0.1577 -0.0510  0.2010
89063W        W32001  20.271  10.964  29.811 -0.1938  0.2178 -0.0461
89064W        W32002  20.143  11.489  31.385 -0.2972  0.1862 -0.2550
89065W        W32003  19.023  14.306  27.166  0.3166  0.0694  0.0034
89066W        W32004  17.491  13.325  28.018  0.1847 -0.0074 -0.1646
89067W        W32005  17.042  11.394  28.833 -0.1694  0.0271 -0.2694
89068W        W32006  19.099  13.699  28.817  0.4125 -0.0593 -0.0845
89069W        W32007  21.377  13.575  29.369 -0.1663  0.0139 -0.1479
89070W        W32008  18.265  12.896  27.527  0.0739 -0.1971 -0.1876
89071W        W32009  19.341  14.536  28.182  0.3246  0.1340 -0.1309
89072W        W32010  19.349  14.885  29.693 -0.1211  0.2339  0.1429
89073W        W32011  20.586  11.716  31.789  0.0388  0.1255  0.1359
89074W        W32012  17.645  13.848  27.952 -0.1743  0.1955  0.0335
89075W        W32013  17.834  15.456  27.994 -0.1135 -0.0355  0.4292
89076W        W32014  17.851  13.693  28.439  0.3613  0.0327  0.2250
89077W        W32015  20.701  14.448  29.413  0.0113  0.0268 -0.2257
89078W        W32016  21.099  15.344  30.093 -0.0368 -0.0497 -0.0669
89079W        W32017  20.110  15.168  30.051 -0.0251  0.0752 -0.2277
89080W        W32018  18.477  14.444  26.265  0.0309 -0.1486 -0.0882
89081W        W32019  20.029  14.226   0.147  0.2964 -0.0896 -0.2393
89082W        W32020  18.849  15.088  30.958  0.2637  0.0431 -0.1737
89083W        W32021  18.196  11.787  28.237  0.0694 -0.0289 -0.0785
89084W        W32022  19.831  13.726  27.218  0.2690 -0.0933  0.1069
89085W        W32023  18.909  13.973  27.557  0.1060 -0.2348 -0.1041
89086W        W32024  18.492  12.118  27.965  0.2355  0.0878 -0.0923
89087W        W32025  19.248  13.621  30.229  0.0528 -0.1064 -0.1548
89088W        W32026  18.353  16.203  25.431 -0.2339 -0.0406 -0.2888
89089W        W32027  19.781  10.835   0.586 -0.1197  0.3203 -0.1323
89090W        W32028  18.436  13.507  26.138 -0.4786 -0.0516  0.0810
89091W        W32029  21.444  12.354  26.355 -0.4115  0.1787 -0.2667
89092W        W32030  20.438  12.716  25.583 -0.3942 -0.1576  0.2259
89093W        W32031  20.906  12.799  25.945  0.2188 -0.0528 -0.2371
89094W        W32032  18.705  11.993  28.460 -0.1726  0.4822  0.0952
89095W        W32033  18.501  16.089  26.412  0.1462 -0.4903  0.1974
89096W        W32034  18.341  11.918  29.621  0.1982  0.0012 -0.1331
89097W        W32035  21.618  13.007  30.511  0.0162 -0.3834  0.0271
89098W        W32036  18.615  12.501  26.823  0.0930 -0.0851  0.0460
89099W        W32037  19.524  11.382  29.565  0.1159 -0.1540  0.2768
89100W        W32038  19.075  14.575  28.646 -0.0099  0.3127 -0.1502
89101W        W32039  18.448  11.216  29.128 -0.1207  0.0605 -0.1297
89102W        W32040  20.280  14.109  26.238  0.0985 -0.0871  0.3710
89103W        W32041  19.776  14.576  28.973 -0.0135 -0.1221  0.1339
89104W        W32042  20.222  15.119  26.492  0.1299 -0.0861 -0.0290
89105W        W32043  19.208  12.765  28.891 -0.0871  0.0889 -0.1852
89106W        W32044  19.173  12.905  30.598  0.1637 -0.0917  0.0626
89107W        W32045  18.807  12.461  29.736 -0.1583 -0.3760 -0.0095
89108W        W32046  19.004  12.252  27.128  0.2264 -0.1806 -0.1591
89109W        W32047  20.145  15.384  29.604  0.1934  0.1397 -0.2583
89110W        W32048  17.051  14.565  27.525  0.1644  0.0035  0.0858
89111W        W32049  21.121  12.407  29.232 -0.2114  0.0954  0.1263
89112W        W32050  19.358  13.502  28.429 -0.2919 -0.1330 -0.0691
89113W        W32051  21.123  14.040  28.845  0.1567  0.2018  0.0306
89114W        W32052  20.800  14.651  26.618 -0.0304 -0.0157 -0.0803
89115W        W32053  20.905  12.322  30.420 -0.1166 -0.1167  0.1363
89116W        W32054  21.039  11.192  29.898  0.0716 -0.0345 -0.0584
89117W        W32055  18.969  13.505  24.420  0.0403  0.1055  0.2129
89118W        W32056  19.618  13.500  24.915  0.1868 -0.0020  0.0483
89119W        W32057  20.366  15.272  28.913 -0.1791 -0.1038  0.0960
89120W        W32058  21.607  11.175  26.049  0.0136  0.0915 -0.2654
89121W        W32059  17.689  16.198  27.835  0.0609  0.4677 -0.1494
89122W        W32060  20.077  11.957  31.119 -0.2163  0.4237 -0.2361
89123W        W32061  19.501  14.497  29.966  0.1091 -0.0964  0.1691
89124W        W32062  20.965  15.274  26.648 -0.0309 -0.0858  0.2955
89125W        W32063  18.254  14.853  26.982  0.0581 -0.2066 -0.0465
89126W        W32064  18.083  14.904  26.492 -0.1130 -0.0891 -0.1271
89127W        W32065  18.775  10.790  28.985 -0.2462  0.0206  0.0330
89128W        W32066  19.587  14.093  28.024 -0.0191 -0.1900  0.2484
89129W        W32067  19.416  10.707  28.840 -0.3765 -0.0504  0.1701
89130W        W32068  18.029  10.534  29.647 -0.0044 -0.0392  0.0180
89131W        W32069  22.627  11.169  29.288  0.0543 -0.0021  0.0156
89132W        W32070  18.770  14.413  25.876  0.1856  0.2768  0.0509
89133W        W32071  19.245  13.392  27.991 -0.0597 -0.0872  0.1751
89134W        W32072  19.742  11.992  26.629  0.1041 -0.1111  0.2271
89135W        W32073  20.531  14.202  26.662  0.1543 -0.0647 -0.4258
89136W        W32074  17.475  13.057  29.778  0.1882 -0.1019  0.0964
89137W        W32075  18.053  12.406  27.607  0.1431 -0.0705 -0.0575
89138W        W32076  18.735   9.671  30.560 -0.0918 -0.1566  0.1104
89139W        W32077  20.118  11.477  28.896 -0.1869 -0.1314  0.0673
89140W        W32078  21.810  13.688  29.743 -0.1906  0.3853 -0.0101
89141W        W32079  18.992  12.342  28.872 -0.0646  0.1065 -0.0280
89142W        W32080  20.252  12.571  28.072  0.4520 -0.0686  0.0955
89143W        W32081  18.988  12.762  28.020 -0.2273  0.1130  0.1492
89144W        W32082  17.632  14.576  27.356 -0.0427 -0.0284  0.2478
89145W        W32083  21.723  11.567  30.535  0.3590  0.1121  0.0089
89146W        W32084  20.224  15.098  26.011 -0.0411 -0.1438  0.0999
89147W        W32085  20.937  15.812  30.815 -0.2568  0.0844  0.0711
89148W        W32086  19.675  14.231  28.619 -0.0263  0.1884  0.0370
89149W        W32087  19.250  12.133  29.843  0.0533 -0.0613  0.0792
89150W        W32088  17.565  11.799  28.009 -0.1834  0.1102 -0.0828
89151W        W32089  18.846  15.698  26.286 -0.2135 -0.2351  0.1257
89152W        W32090  19.713  13.938  26.708 -0.0347  0.0862 -0.0618
89153W        W32091  19.263  11.954  28.381  0.2090  0.0498 -0.0129
89154W        W32092  21.037  13.408  27.920  0.0246 -0.2970  0.0241
89155W        W32093  19.570  14.364  25.880  0.0918 -0.1423 -0.0970
89156W        W32094  18.232  12.857  29.387 -0.0889  0.0565 -0.1488
89157W        W32095  22.394  12.363  30.504 -0.1558  0.1060 -0.2377
89158W        W32096  20.820  14.398  28.934  0.1191  0.2739  0.5091
89159W        W32097  19.083  13.476  27.526 -0.6035  0.0114  0.3195
89160W        W32098  18.338  11.917  26.211  0.0998 -0.0443 -0.1776
89161W        W32099  20.029  14.344  26.597  0.1059  0.0523  0.3881
89162W        W32100  18.385  15.432  25.862 -0.0799  0.0713 -0.1085
89163W        W32101  17.285  14.352  28.193 -0.2795 -0.1381 -0.1988
89164W        W32102  19.442  14.641  26.278  0.0138  0.1817  0.1734
89165W        W32103  21.405  11.829  29.284  0.0274 -0.3174  0.1872
89166W        W32104  17.484  11.094  28.986  0.2387 -0.3848 -0.0118
89167W        W32105  20.415  12.146  30.385  0.1128  0.2133  0.1697
89168W        W32106  18.647  12.624  27.299  0.0447  0.2049  0.2445
89169W        W32107  18.826  13.751  29.906 -0.1415 -0.1013 -0.1525
89170W        W32108  20.420  11.672  29.360  0.0406 -0.0791  0.0106
89171W        W32109  20.743   9.917  27.106  0.2155 -0.1418 -0.0933
89172W        W32110  19.531  14.016  30.595  0.3380 -0.0359 -0.0715
89173W        W32111  21.468  13.749  27.505 -0.3541  0.1803  0.0190
89174W        W32112  20.052  12.472  26.393 -0.0847  0.0669  0.4164
89175W        W32113  20.768  11.997  26.889 -0.2331  0.0066 -0.0584
89176W        W32114  17.582  12.822  31.005  0.2692  0.1047 -0.2354
89177W        W32115  19.554  13.504  26.514 -0.2738  0.0833 -0.1014
89178W        W32116  18.424  12.789  28.250  0.0957  0.0103  0.3675
89179W        W32117  21.060  11.417  27.931 -0.2959  0.1380  0.2873
89180W        W32118  21.436  14.270  27.870  0.3988 -0.2592  0.0444
89181W        W32119  18.523  12.523  28.763  0.0789 -0.2025  0.1593
89182W        W32120  20.113  13.214  30.264 -0.0494  0.1048 -0.2150
89183W        W32121  20.620  14.023  28.121 -0.1119  0.2440  0.3097
89184W        W32122  20.049  11.700  30.079 -0.0778 -0.0802  0.2072
89185W        W32123  17.657  13.425  26.666  0.0064 -0.3422 -0.1091
89186W        W32124  19.747  11.821  28.666  0.3711 -0.2675  0.0512
89187W        W32125  18.782  14.525  24.886 -0.0138  0.3993 -0.1456
89188W        W32126  21.266  12.137  29.669 -0.0705 -0.2713  0.1958
89189W        W32127  20.492  12.435  27.693 -0.0982  0.1583  0.1673
89190W        W32128  20.038  12.351  30.846 -0.0231  0.1660  0.0603
89191W        W32129  21.683  12.579  29.651 -0.1675  0.1412 -0.1642
89192W        W32130  21.161  12.070  27.265  0.0305  0.3308 -0.1960
89193W        W32131  19.510  13.724  27.649 -0.0936  0.4350 -0.1361
89194W        W32132  18.763  12.572  25.248  0.4068  0.1589 -0.1526
89195W        W32133  19.769  11.695  29.227 -0.1832  0.0324  0.4206
89196W        W32134  18.967  12.447  30.379 -0.0416 -0.0226  0.1847
89197W        W32135  17.789  15.660  26.974 -0.2046  0.2386 -0.1243
89198W        W32136  20.901  13.565  28.897  0.3965  0.0932 -0.2021
89199W        W32137  19.814  12.741  26.096  0.0539 -0.2845 -0.1199
89200W        W32138  20.166  12.008  31.645  0.2586 -0.1044 -0.1039
89201W        W32139  20.819  11.074  28.280  0.2266  0.0018  0.2523
89202W        W32140  17.467  15.015  25.357  0.0688 -0.1753 -0.2687
89203W        W32141  18.575  13.981  25.790  0.0922  0.2459  0.0745
89204W        W32142  21.087  11.041  30.395 -0.0736 -0.3506  0.0451
89205W        W32143  18.555  12.619  27.809  0.0079  0.0480 -0.1061
89206W        W32144  20.511  14.588  25.249  0.0725 -0.0483  0.1049
89207W        W32145  19.311  14.471  29.103 -0.2532 -0.1000  0.0216
89208W        W32146  18.547  15.236  27.204  0.0324 -0.2321  0.2161
89209W        W32147  19.928  11.130  29.314 -0.2491 -0.0250  0.0979
89210W        W32148  17.745  15.162  26.708 -0.2477  0.2632 -0.0493
89211W        W32149  18.842  13.847  27.091  0.1221 -0.2661 -0.2672
89212W        W32150  18.413  13.350  29.784  0.2147 -0.4537  0.2781
89213W        W32151  21.571  12.446  27.478 -0.0528  0.0178  0.2302
89214W        W32152  20.520  13.691  27.772  0.1031 -0.1040  0.2653
89215W        W32153  19.128  10.502  29.336  0.0975  0.0754 -0.1598
89216W        W32154  19.882  12.163  28.345  0.2136 -0.2077  0.0406
89217W        W32155  19.684  14.496  29.473  0.0018 -0.0044  0.4077
89218W        W32156  19.934  13.364  29.082  0.2661  0.0581 -0.0136
89219W        W32157  20.243  13.021  29.259  0.0010 -0.1889  0.0726
89220W        W32158  21.495  14.045  30.009  0.1249 -0.2861  0.4198
89221W        W32159  18.839  12.634  30.867  0.2000  0.2023 -0.4660
89222W        W32160  17.781  12.063  27.107  0.2511  0.2651 -0.1577
89223W        W32161  21.727  12.408  31.227  0.2341 -0.1360  0.1779
89224W        W32162  18.339  10.938  29.983  0.1538 -0.3183  0.0454
89225W        W32163  17.891  14.659  26.106 -0.1230  0.3045 -0.1095
89226W        W32164  20.004  13.686  27.772  0.1484 -0.1928  0.1115
89227W        W32165  19.992  13.743  25.410 -0.0826  0.2894 -0.2162
89228W        W32166  19.388  14.010  27.227  0.1100 -0.1142 -0.0475
89229W        W32167  19.030  11.458   0.304 -0.3305 -0.1163 -0.0762
89230W        W32168  18.605  13.798  28.731  0.4459 -0.1843 -0.0208
89231W        W32169  19.703  13.164  28.022  0.1292  0.0174  0.3969
89232W        W32170  19.791  10.819  29.775  0.0896 -0.0927 -0.1586
89233W        W32171  18.755  13.197  28.224  0.0686  0.0891  0.2595
89234W        W32172  20.190  13.013  28.298 -0.2573  0.0389  0.3032
89235W        W32173  20.690  12.922  29.045 -0.1950 -0.0961 -0.1852
89236W        W32174  20.111  13.746  30.017 -0.0391 -0.2429 -0.0969
89237W        W32175  20.327  12.348  28.530  0.2250  0.1283 -0.1140
89238W        W32176  21.084  13.775  26.371  0.0350  0.1074 -0.1061
89239W        W32177  20.136  13.998  28.411  0.1939 -0.5469 -0.2364
89240W        W32178  18.540  12.511  26.346  0.3221  0.3093 -0.0011
89241W        W32179  19.003  11.169  30.698 -0.1611  0.2517 -0.0490
89242W        W32180  18.717  14.924  25.718 -0.1707  0.0178  0.2302
89243W        W32181  19.379  11.867  29.466  0.1560 -0.2963  0.3182
89244W        W32182  18.629  14.029  28.001  0.3833  0.0683  0.1535
89245W        W32183  20.044  14.158  25.758 -0.0001 -0.0164  0.3909
89246W        W32184  18.957  15.350  27.443 -0.1515  0.0556 -0.1223
89247W        W32185  20.886  11.852  29.041 -0.4827 -0.0591  0.1185
89248W        W32186  20.151  14.293  25.065 -0.3067 -0.3945 -0.0966
89249W        W32187  20.938  13.298  29.461  0.0115  0.1388  0.2843
89250W        W32188  20.973  11.919  28.257 -0.2010  0.0439 -0.1531
89251W        W32189  18.130  14.477  27.486  0.1769  0.0894 -0.0684
89252W        W32190  21.983  10.423  30.979 -0.1247  0.1305 -0.1638
89253W        W32191  19.803  10.318  30.416 -0.2351  0.1586 -0.1641
89254W        W32192  21.522  15.316  28.126 -0.0310 -0.0852  0.0934
89255W        W32193  18.541  12.138  29.125  0.0417 -0.0500  0.1109
89256W        W32194  20.530  14.080  30.701 -0.4637 -0.0096 -0.0353
89257W        W32195  18.501  12.240  30.597  0.1923 -0.3165  0.3727
89258W        W32196  19.810  13.202  28.559  0.1719 -0.0517 -0.0615
89259W        W32197  18.926  12.888  26.950  0.0105  0.1448 -0.0997
89260W        W32198  20.222  13.888  26.873 -0.1578 -0.0086  0.1202
89261W        W32199  20.975  14.474  27.863  0.0618  0.3367 -0.1824
89262W        W32200  19.728  14.912  25.759  0.0452  0.5619  0.4736
89263W        W32201  20.793  11.177  26.537 -0.2539  0.1994  0.4500
89264W        W32202  18.336  12.335  29.990 -0.0434  0.1070 -0.1135
89265W        W32203  21.043  13.952  27.836 -0.0940  0.1502  0.1947
89266W        W32204  19.361  13.812  25.261  0.0583  0.1731 -0.2020
89267W        W32205  18.540  14.547  26.749  0.1008 -0.0818 -0.4960
89268W        W32206  18.728  11.987  30.110  0.1844 -0.1226 -0.1817
89269W        W32207  21.567  13.219  27.559  0.1119 -0.0023  0.2351
89270W        W32208  20.964  11.667  29.658 -0.2651 -0.2255  0.1616
89271W        W32209  21.050  12.854  28.184  0.0035  0.0602  0.2026
89272W        W32210  20.667  12.687  30.071 -0.0574 -0.0732 -0.0290
89273W        W32211  20.232  13.724  28.920  0.2341  0.0349 -0.1568
89274W        W32212  19.748  11.565  31.051  0.1183 -0.1392 -0.2513
89275W        W32213  21.063  15.208  29.604  0.4197  0.0174 -0.1680
89276W        W32214  23.030  13.614  25.845 -0.1516  0.2574 -0.0287
89277W        W32215  21.236  11.526  30.571  0.1045 -0.1032 -0.0319
89278W        W32216  20.122  12.364  27.403 -0.2092 -0.1707 -0.2174
89279W        W32217  20.800  13.118  25.547  0.1872 -0.4238 -0.1166
89280W        W32218  18.790  10.836  29.564 -0.1784 -0.0009 -0.1584
89281W        W32219  20.812  12.683  29.596 -0.3569  0.1955 -0.1694
89282W        W32220  19.985  12.222  27.853  0.1710 -0.0604 -0.2789
89283W        W32221  20.530  11.843  31.297  0.2600  0.0170  0.1528
89284W        W32222  19.237  14.800  24.998 -0.2096  0.2239  0.3970
89285W        W32223  20.428  13.447  26.583  0.1636  0.0472 -0.2254
89286W        W32224  19.347  13.013  28.396  0.0675  0.0665  0.1327
89287W        W32225  17.698  12.200  29.234  0.0933 -0.3549  0.3108
89288W        W32226  18.735  14.597  29.236 -0.2284  0.1670 -0.2509
89289W        W32227  18.315  12.639  25.462 -0.1111 -0.3866  0.0147
89290W        W32228  19.914  13.818  24.588  0.2540 -0.3662  0.2818
89291W        W32229  20.254  13.998  27.417  0.5354 -0.2424  0.0144
89292W        W32230  20.962  11.898  31.440  0.1067 -0.2290 -0.5467
89293W        W32231  19.604  12.714  27.881 -0.2887 -0.0876  0.1618
89294W        W32232  20.646  11.290  31.452 -0.3840 -0.0366  0.1592
89295W        W32233  18.171  14.305  25.836  0.1629  0.3635 -0.0607
89296W        W32234  19.189  10.263  28.780 -0.4724  0.1630  0.1387
89297W        W32235  17.287  15.008  27.486 -0.1186 -0.0893  0.1333
89298W        W32236  18.807  13.006  29.607  0.0470 -0.3405  0.4612
89299W        W32237  18.420  14.510  27.916  0.0779  0.1225  0.2446
89300W        W32238  20.731  12.162  29.443  0.1394 -0.1136  0.3284
89301W        W32239  20.338  12.067  29.023  0.1553  0.1691 -0.1726
89302W        W32240  18.862  12.787  28.533 -0.0512 -0.2808 -0.1681
89303W        W32241  21.662  12.312  27.985  0.2675  0.1766 -0.0307
89304W        W32242  19.688  15.356  29.311  0.1017  0.1225  0.2482
89305W        W32243  17.828  13.423  28.838  0.0665  0.1256  0.3869
89306W        W32244  21.512  15.355  29.757  0.3279 -0.1092  0.0222
89307W        W32245  20.214  13.506  27.356  0.0510 -0.3934 -0.3346
89308W        W32246  19.306  14.030  26.262  0.0695  0.1901 -0.0908
89309W        W32247  18.286  10.852  29.422  0.1487 -0.0872  0.2267
89310W        W32248  19.317  14.506  30.396 -0.0533  0.1274 -0.2924
89311W        W32249  21.264  11.566  27.427  0.2154  0.1370  0.0068
89312W        W32250  18.909  11.857  28.951  0.3466 -0.0724  0.0992
89313W        W32251  19.372  13.513  27.052  0.0999 -0.1816  0.1136
89314W        W32252  17.985  13.136  29.781  0.0459 -0.0039 -0.0296
89315W        W32253  18.538  13.026  28.947 -0.0428 -0.1039 -0.2304
89316W        W32254  18.838  14.943  25.218  0.1893  0.0375  0.2657
89317W        W32255  19.920  13.396  26.860  0.1974 -0.2904  0.1025
89318W        W32256  19.623  13.325  25.977 -0.1788 -0.1136  0.1056
89319W        W32257  19.007  15.439  30.526  0.2324  0.1313  0.4340
89320W        W32258  19.942  13.150  26.396  0.0983  0.2740 -0.1721
89321W        W32259  19.391  15.448  26.359  0.0357 -0.2416 -0.1418
89322W        W32260  17.811  14.007  25.830  0.1602 -0.1151 -0.1450
89323W        W32261  21.025  14.518  23.468  0.1472  0.1505  0.3465
89324W        W32262  17.281  14.778  27.941 -0.5488 -0.0986 -0.2657
89325W        W32263  20.271  15.644  30.229 -0.0659  0.1440 -0.1435
89326W        W32264  21.007  12.410  26.851 -0.3449 -0.0770  0.2454
89327W        W32265  20.075  12.930  27.102 -0.0896 -0.0461 -0.0326
89328W        W32266  22.639  12.056  28.078 -0.1118 -0.2509 -0.2468
89329W        W32267  20.022  14.180  29.790 -0.0260  0.2091 -0.0546
89330W        W32268  18.311  13.420  28.660 -0.0051  0.1111  0.1732
89331W        W32269  20.084  12.862  27.642 -0.2205 -0.3876 -0.4098
89332W        W32270  21.023  13.290  30.920  0.1122  0.0130  0.1962
89333W        W32271  21.486  11.045  30.706 -0.1949 -0.2007 -0.0085
89334W        W32272  18.668  14.314  28.402 -0.1310  0.1686 -0.0311
89335W        W32273  19.677  14.595  27.781  0.1946 -0.4031  0.1701
89336W        W32274  18.850  13.869  26.194 -0.0348 -0.2376 -0.0843
89337W        W32275  19.188  12.662  27.376 -0.0264  0.3183 -0.1256
89338W        W32276  21.915  11.344  28.462 -0.0200 -0.2493 -0.1175
89339W        W32277  19.534  14.157  24.549  0.0595  0.2871 -0.0015
89340W        W32278  19.819  12.858  28.952 -0.1341  0.0184 -0.2890
89341W        W32279  18.125  15.448  27.450 -0.2211 -0.0190  0.1406
89342W        W32280  19.816  14.077  26.265 -0.1740 -0.2458  0.4712
89343W        W32281  19.481  13.553  29.313 -0.2377 -0.1263 -0.0179
89344W        W32282  18.315  11.254  28.119 -0.0290 -0.1754 -0.0284
89345W        W32283  21.310  12.782  27.195 -0.0426 -0.3914  0.1352
89346W        W32284  19.072  11.662  29.847 -0.0393 -0.1342  0.0995
89347W        W32285  22.798  11.858  29.794  0.0743  0.0540 -0.2586
89348W        W32286  18.587  11.654  29.249  0.3762 -0.0568 -0.0043
89349W        W32287  20.211  11.881  26.528 -0.3145  0.1269 -0.0592
89350W        W32288  20.497  14.955  29.623 -0.1096  0.0702 -0.3343
89351W        W32289  19.538  12.535  29.181 -0.3092 -0.1402 -0.4694
89352W        W32290  19.326  13.069  27.650 -0.1215  0.3727 -0.2263
89353W        W32291  21.113  11.583  31.104 -0.0460 -0.2548 -0.1850
89354W        W32292  20.873  13.104  24.161  0.3908 -0.1933 -0.1262
89355W        W32293  20.202  14.504  29.413  0.0805 -0.0234  0.0822
89356W        W32294  18.292  10.768  28.814  0.2750 -0.1905  0.1230
89357W        W32295  20.599  12.312  25.995  0.0504  0.1538  0.1424
89358W        W32296  18.372  13.913  27.584 -0.3246  0.1594  0.2853
89359W        W32297  18.005  12.459  30.399  0.2418  0.0320  0.0014
89360W        W32298  20.632  14.625  30.902  0.2018 -0.1715 -0.1414
89361W        W32299  18.149  12.465  29.051  0.2141  0.0066  0.1532
89362W        W32300  20.949  12.214  26.414 -0.5374  0.1483 -0.1897
89363W        W32301  20.416  11.966  29.820 -0.2298  0.1104  0.0561
89364W        W32302  20.395  12.806  26.079 -0.1759  0.0542  0.2428
89365W        W32303  19.791  13.597  28.207 -0.2449  0.0989 -0.0034
89366W        W32304  18.759  11.628  30.469  0.1882 -0.2120  0.0550
89367W        W32305  18.367  13.176  27.934 -0.4768 -0.1913  0.0474
89368W        W32306  22.017  12.458  30.194 -0.0646  0.0080  0.1094
89369W        W32307  20.446  13.275  28.746 -0.1449 -0.1723  0.0091
89370W        W32308  18.426  13.482  26.654 -0.0785 -0.1642 -0.1381
89371W        W32309  18.181  15.333  26.816 -0.1796 -0.0698 -0.0534
89372W        W32310  20.325  13.246  27.820  0.3241  0.0156 -0.0058
89373W        W32311  20.075  11.169  30.380 -0.1627 -0.0058  0.1684
89374W        W32312  19.187  13.658  23.926 -0.2809  0.1963  0.0516
89375W        W32313  21.031  11.099  30.865  0.2046  0.0171  0.0894
89376W        W32314  18.531  13.946  30.797 -0.3146 -0.0273 -0.3227
89377W        W32315  19.320  13.063  29.283 -0.2611  0.2142  0.2359
89378W        W32316  17.903  12.600  26.202  0.3530  0.0215  0.1519
89379W        W32317  19.910  12.191  29.306  0.0567  0.0235  0.1440
89380W        W32318  19.207  13.871  26.714  0.0251  0.1832  0.0086
89381W        W32319  18.323  14.975  26.016 -0.1624  0.0192 -0.0694
89382W        W32320  20.615  13.388  29.947  0.1367 -0.0661  0.0240
89383W        W32321  20.091  12.373  26.861 -0.1548 -0.1656  0.1946
89384W        W32322  20.401  14.422  28.260 -0.0692 -0.4038  0.0781
89385W        W32323  19.781  11.312  27.651 -0.1877  0.0906  0.1467
89386W        W32324  20.728  11.696  26.469  0.0280 -0.0065  0.0531
89387W        W32325  20.630  12.819  28.508  0.1313 -0.2224  0.3945
89388W        W32326  18.864  13.319  29.239  0.1099 -0.1403  0.0076
89389W        W32327  17.745  12.370  25.700  0.2620  0.2084  0.1544
89390W        W32328  19.240  13.286  25.663  0.0744  0.0626  0.0065
89391W        W32329  19.152  13.911  27.959  0.2766 -0.1873  0.0831
89392W        W32330  20.556  10.592   1.061  0.1649 -0.2375 -0.3507
89393W        W32331  19.410  12.501  30.669 -0.0772  0.1543 -0.0732
89394W        W32332  18.845  11.999  29.521 -0.3436 -0.2105 -0.1255
89395W        W32333  17.271  10.587  28.599  0.0502  0.1615 -0.2887
89396W        W32334  21.577  15.370  25.421  0.2167 -0.2105 -0.1411
89397W        W32335  20.850  11.785  30.766 -0.0867 -0.3385  0.4135
89398W        W32336  19.303  10.971  29.272  0.0267 -0.0981  0.1461
89399W        W32337  19.318  13.004  26.420  0.0796 -0.0402 -0.0008
89400W        W32338  19.755  13.290  27.522  0.2108  0.0628 -0.1583
89401W        W32339  19.352  11.635  27.646 -0.3316 -0.2765 -0.1779
89402W        W32340  21.819  14.876  28.965 -0.1201  0.1345 -0.0625
89403W        W32341  18.449  14.536  25.415  0.2034 -0.0739  0.0626
89404W        W32342  19.334  12.756  29.686  0.4552 -0.0565 -0.1179
89405W        W32343  19.096   9.840  30.226  0.2105  0.1670 -0.0156
89406W        W32344  19.018  10.819  27.975 -0.1228  0.0789  0.5868
89407W        W32345  18.798  13.052  27.617 -0.0929 -0.2539 -0.2111
89408W        W32346  19.864  14.218  27.087  0.2332 -0.0429  0.2692
89409W        W32347  20.360  14.661  26.418 -0.3728  0.1084  0.2540
89410W        W32348  20.222  14.219  28.961 -0.0900  0.1734 -0.3078
89411W        W32349  19.273  15.353  29.603 -0.1668  0.0232  0.0298
89412W        W32350  18.542  10.475  29.842 -0.0548  0.0762 -0.3061
89413W        W32351  20.868  14.244  26.255 -0.1602 -0.1216 -0.0546
89414W        W32352  19.249  15.262  29.129  0.0089  0.2022 -0.3395
89415W        W32353  21.543  15.257  27.591  0.1347  0.3736 -0.2163
89416W        W32354  20.860  12.951  27.031  0.0832  0.1766  0.1846
89417W        W32355  20.026  13.678  26.462 -0.0497  0.1177 -0.0415
89418W        W32356  18.087  10.974  30.516  0.1680 -0.0711 -0.1067
89419W        W32357  20.393  12.544  31.239 -0.2639  0.0042  0.1381
89420W        W32358  21.540  13.551  30.208  0.1181  0.2681  0.4682
89421W        W32359  20.178  11.389  28.003  0.0435  0.2412 -0.0788
89422W        W32360  20.704  12.402  28.889 -0.2650 -0.2342 -0.0667
89423W        W32361  20.030  14.509  26.076  0.1417  0.1069 -0.0425
89424W        W32362  19.691  12.132  30.262 -0.0849 -0.0771  0.1685
89425W        W32363  19.653  13.861  25.861  0.0604  0.0245 -0.2170
89426W        W32364  19.683  13.507  29.835  0.0865 -0.1725 -0.2559
89427W        W32365  21.187  15.671  29.202 -0.1855 -0.1646  0.0689
89428W        W32366  20.562  15.423  29.858 -0.0309 -0.2763  0.4576
89429W        W32367  19.460  12.236  28.025  0.0238  0.3911  0.0471
89430W        W32368  20.888  11.816  26.039  0.1506  0.0693  0.1166
89431W        W32369  19.103  14.504  29.575 -0.1994  0.1201 -0.0881
89432W        W32370  21.208  14.527  30.226 -0.1734  0.1640  0.0442
89433W        W32371  19.732  15.850  29.478  0.0743 -0.0653  0.3034
89434W        W32372  21.259  14.100  28.372 -0.1309  0.3949  0.0020
89435W        W32373  18.561  10.450  29.338 -0.4562  0.0971  0.2092
89436W        W32374  17.819  12.960  27.814  0.2562  0.2138  0.1333
89437W        W32375  18.468  12.027  27.479 -0.4113 -0.1837 -0.0200
89438W        W32376  20.736  11.393  30.495 -0.2264 -0.1945 -0.2699
89439W        W32377  19.290  11.484  29.171  0.2178  0.0852  0.1996
89440W        W32378  20.862  11.840  27.701 -0.0057 -0.3698 -0.3073
89441W        W32379  18.131  13.871  28.864 -0.3101 -0.0143 -0.0047
89442W        W32380  19.453  13.016  26.936  0.0442 -0.1362 -0.0504
89443W        W32381  20.799  10.806  31.345 -0.0829  0.0600  0.0178
89444W        W32382  20.565  12.182  30.962 -0.2674  0.0413 -0.1848
89445W        W32383  19.121  12.358  29.393 -0.0088  0.1567  0.2109
89446W        W32384  17.289  13.200  31.279  0.0641  0.1003  0.3251
89447W        W32385  17.695  14.131  31.013  0.4742 -0.1334 -0.0784
89448W        W32386  18.052  13.070  30.846  0.0824 -0.1760 -0.0207
89449W        W32387  20.869  12.554  30.933  0.0084  0.0148  0.0092
89450W        W32388  20.478  12.338   0.776 -0.0287 -0.1269  0.2251
89451W        W32389  21.277  11.227   1.360 -0.0163 -0.1159 -0.0223
89452W        W32390  20.569  14.145   0.089 -0.0976  0.0528 -0.0068
89453W        W32391  20.974  13.461  30.416  0.1334 -0.3301 -0.1267
89454W        W32392  17.654   9.999  29.754 -0.4577 -0.2980 -0.1047
89455W        W32393  20.241  12.470  29.928 -0.0870 -0.2469  0.0840
89456W        W32394  20.165  12.996  30.771 -0.0864 -0.2229  0.3271
89457W        W32395  20.378  11.914   0.280 -0.0068 -0.0008 -0.0916
89458W        W32396  17.703  14.384  31.449 -0.0391 -0.5500  0.0230
89459W        W32397  19.415  12.520  31.730 -0.0335 -0.0641 -0.1792
89460W        W32398  19.765  13.999  31.119  0.0326 -0.1646 -0.3517
89461W        W32399  20.451  11.381   0.219 -0.3076 -0.0932 -0.1034
89462W        W32400  19.195  11.920  31.165 -0.0884 -0.0831 -0.1557
89463W        W32401  18.322  11.354   1.456  0.0131 -0.0638  0.1796
89464W        W32402  18.398  12.811  31.225 -0.1103  0.0779  0.3240
89465W        W32403  21.327  12.007  30.507 -0.1506  0.1909  0.1859
89466W        W32404  20.604  13.136  30.643  0.1727 -0.0732 -0.0963
89467W        W32405  20.506  10.541  30.922 -0.0367  0.0805  0.0518
89468W        W32406  20.517  13.435  29.211  0.0721  0.0261  0.1399
89469W        W32407  20.134  13.477  29.557  0.1712  0.2553  0.1409
89470W        W32408  17.595  13.387  30.183  0.0887 -0.0951  0.1659
89471W        W32409  19.657  13.104  30.511 -0.0426 -0.0140  0.4306
89472W        W32410  17.991  13.625  29.874  0.0241  0.0693 -0.3061
89473W        W32411  19.310  14.991  30.548 -0.1818  0.0983 -0.1264
89474W        W32412  19.711  11.923   0.358 -0.2977  0.2748 -0.1543
89475W        W32413  22.162  12.960  30.256  0.0854  0.0334  0.0629
89476W        W32414  20.049  12.672   0.865 -0.1718 -0.1998 -0.4275
89477W        W32415  18.997  10.293  30.079 -0.0643  0.0634  0.1955
89478W        W32416  19.314  13.149  30.161  0.0519 -0.0483  0.1066
89479W        W32417  19.225  13.378  29.754  0.1177 -0.0330 -0.3155
89480W        W32418  21.872  12.101  30.480  0.0198 -0.3683 -0.0475
89481W        W32419  21.399  11.467   0.237 -0.0556 -0.0050 -0.1029
89482W        W32420  20.533  13.099  31.166 -0.0615  0.0055 -0.0051
89483W        W32421  21.316  12.265   0.137 -0.1290 -0.1232  0.1017
89484W        W32422  20.081  11.258  30.863  0.0338  0.2246  0.0638
89485W        W32423  18.831  11.218  31.467 -0.0475 -0.1886  0.0638
89486W        W32424  20.664  15.014  30.119  0.1341 -0.0404  0.1262
89487W        W32425  17.425  12.085  29.677  0.2001  0.1446  0.0487
89488W        W32426  19.070  13.977  29.348 -0.1617 -0.1260  0.2839
89489W        W32427  19.459  10.939  31.582  0.0565  0.1190 -0.1738
89490W        W32428  18.610  13.180  30.212 -0.2130  0.4455  0.2180
89491W        W32429  20.864  13.384  31.391 -0.2006 -0.0777  0.2977
89492W        W32430  17.931  13.078  31.395 -0.1905  0.0449  0.1875
89493W        W32431  21.791  13.887  30.445  0.1515  0.0130  0.2724
89494W        W32432  20.233  11.176  31.726  0.0676  0.0300 -0.3456
89495W        W32433  19.471  12.566  30.183 -0.0279 -0.0459  0.1421
89496W        W32434  19.798  14.463  30.482  0.0069  0.0376  0.2468
89497W        W32435  20.017  12.226   0.043  0.0285  0.0274  0.0624
89498W        W32436  19.470  13.316  28.885  0.3684 -0.4441 -0.1313
89499W        W32437  20.452  12.591  30.671  0.0107  0.1444 -0.2350
89500W        W32438  20.352  15.197  30.495 -0.0347 -0.0379 -0.0351
89501W        W32439  21.173  13.182  29.046  0.0198  0.2555 -0.0078
89502W        W32440  17.854  10.588  31.401  0.0785 -0.0364 -0.2108
89503W        W32441  18.215  12.611  30.841  0.3974 -0.0225 -0.1478
89504W        W32442  19.209  12.005  30.334  0.3053 -0.2508 -0.3798
89505W        W32443  18.958  12.827  30.052  0.0068  0.2936  0.0888
89506W        W32444  17.326  10.955  30.014  0.0874 -0.2643  0.3424
89507W        W32445  20.507  15.542   0.142  0.2434 -0.1491  0.5283
89508W        W32446  23.162  11.672  31.112  0.0309  0.0713 -0.5183
89509W        W32447  22.456  12.332  29.934  0.1771  0.0753  0.2132
89510W        W32448  17.536  17.157  16.773 -0.0931  0.0283 -0.0531
89511W        W32449  19.466  16.242  16.288  0.2005 -0.1982 -0.0199
89512W        W32450  20.950  14.527  15.639 -0.1541  0.0895 -0.0317
89513W        W32451  22.657  14.432  18.108  0.0027 -0.1205 -0.0282
89514W        W32452  18.080  15.059  15.528 -0.0256 -0.0309  0.1918
89515W        W32453  23.264  18.309  16.158  0.0083  0.1884 -0.3584
89516W        W32454  20.280  14.201  17.124 -0.2630  0.0587 -0.3781
89517W        W32455  22.119  17.100  15.018 -0.0919  0.3323 -0.0375
89518W        W32456  22.440  17.593  18.565  0.0392  0.0518  0.4064
89519W        W32457  21.611  16.295  15.338  0.1509 -0.0175 -0.1569
89520W        W32458  19.920  13.237  17.193 -0.1775  0.0511 -0.2299
89521W        W32459  20.061  16.886  16.564 -0.2174 -0.0947 -0.1425
89522W        W32460  19.844  14.569  14.834  0.0906  0.0011 -0.1735
89523W        W32461  18.408  13.872  15.682 -0.1046  0.0878 -0.0668
89524W        W32462  20.414  15.771  17.477 -0.0921  0.1512  0.3190
89525W        W32463  17.738  15.296  15.828  0.1625  0.2597  0.1242
89526W        W32464  20.286  16.344  15.201  0.0875  0.1767  0.2541
89527W        W32465  21.775  16.963  15.785  0.0618  0.0208 -0.0916
89528W        W32466  22.082  17.802  15.749  0.0585  0.0193  0.0747
89529W        W32467  18.769  14.855  17.162 -0.1798 -0.1259  0.0040
89530W        W32468  21.648  13.926  17.690 -0.0272  0.3362 -0.3135
89531W        W32469  19.977  18.385  16.235  0.0538  0.3104 -0.6048
89532W        W32470  18.047  17.464  15.042 -0.2356 -0.0180  0.2520
89533W        W32471  16.319  15.469  16.453  0.1565  0.0606  0.2327
89534W        W32472  19.874  15.118  16.082  0.1940  0.1015  0.0751
89535W        W32473  23.925  14.115  17.661  0.3029 -0.0936 -0.2459
89536W        W32474  21.142  14.823  16.147 -0.0265 -0.0157  0.0042
89537W        W32475  19.706  20.192  16.107  0.2716 -0.1720 -0.0233
89538W        W32476  21.542  19.291  16.729  0.2697  0.3031 -0.1955
89539W        W32477  21.857  15.035  17.451  0.0524  0.0236  0.2275
89540W        W32478  18.915  16.965  15.622 -0.1053  0.0090  0.1063
89541W        W32479  18.882  19.287  14.720  0.0145 -0.0169 -0.0543
89542W        W32480  20.049  17.125  15.375 -0.0374  0.1325  0.0848
89543W        W32481  22.481  17.691  15.970 -0.0940  0.0247 -0.1563
89544W        W32482  21.820  18.632  18.146 -0.0473  0.2283 -0.2744
89545W        W32483  20.217  18.720  17.659 -0.1316  0.2496  0.0993
89546W        W32484  17.752  17.831  14.888 -0.1031 -0.3227 -0.0989
89547W        W32485  19.175  18.925  17.839  0.1706  0.1693  0.0596
89548W        W32486  20.323  18.809  17.135 -0.1681 -0.0315 -0.0422
89549W        W32487  21.993  15.668  17.632  0.2391 -0.0313 -0.1689
89550W        W32488  18.738  15.842  15.812 -0.1816  0.2992  0.3761
89551W        W32489  19.548  17.419  15.858  0.0659  0.1834  0.1025
89552W        W32490  20.827  15.211  16.041  0.2362  0.0441 -0.3722
89553W        W32491  20.688  17.042  17.011  0.0793 -0.0758  0.1341
89554W        W32492  17.441  18.782  16.061  0.1797 -0.3516  0.0714
89555W        W32493  21.760  15.386  17.970 -0.0167 -0.1203  0.0737
89556W        W32494  19.461  18.248  16.139 -0.1170  0.0274 -0.0356
89557W        W32495  21.643  15.474  14.708 -0.2228 -0.0406  0.1796
89558W        W32496  19.036  16.000  14.792 -0.0578  0.0547 -0.0519
89559W        W32497  20.844  13.987  15.601  0.1425  0.3743  0.3672
89560W        W32498  20.489  15.536  16.370 -0.0030  0.0330 -0.2418
89561W        W32499  20.192  19.211  15.718  0.0031  0.0929 -0.1166
89562W        W32500  20.026  15.563  16.622 -0.4564  0.2063  0.1352
89563W        W32501  21.570  18.137  18.504  0.1322 -0.1034  0.2079
89564W        W32502  20.853  16.537  15.874  0.0391 -0.3523 -0.1445
89565W        W32503  20.842  15.595  16.869  0.1160 -0.2708  0.1323
89566W        W32504  18.282  17.189  15.694  0.0910  0.3701  0.0112
89567W        W32505  19.657  14.874  15.689  0.0023 -0.0306 -0.3923
89568W        W32506  21.666  17.544  15.611  0.3544 -0.2233 -0.3769
89569W        W32507  22.470  16.995  16.749 -0.0645 -0.2305 -0.3060
89570W        W32508  21.173  17.585  14.811 -0.0915  0.1222 -0.1261
89571W        W32509  19.556  16.700  16.442 -0.2326 -0.0343  0.0451
89572W        W32510  20.793  15.773  17.779 -0.1647  0.0112 -0.2678
89573W        W32511  17.840  16.884  15.848 -0.1072  0.0897 -0.2431
89574W        W32512  20.423  14.482  14.966 -0.0646 -0.0043  0.0965
89575W        W32513  23.161  16.417  18.802  0.2075 -0.0630  0.1413
89576W        W32514  17.860  17.997  17.074  0.4099 -0.0177 -0.0464
89577W        W32515  21.334  13.970  15.790  0.0694  0.0491  0.3855
89578W        W32516  19.123  16.260  15.907 -0.0207 -0.2482 -0.1979
89579W        W32517  21.931  15.264  16.076 -0.1427 -0.0560 -0.1319
89580W        W32518  22.086  16.165  16.388 -0.1193  0.1659  0.2268
89581W        W32519  19.808  14.709  16.560 -0.1924  0.0603  0.1474
89582W        W32520  22.623  13.975  17.899 -0.1598  0.0880  0.1744
89583W        W32521  18.927  17.794  15.244 -0.0479  0.2738  0.1926
89584W        W32522  19.339  15.906  15.563 -0.2593  0.2630  0.1618
89585W        W32523  23.378  17.300  18.708 -0.0766 -0.0365  0.4153
89586W        W32524  21.478  16.089  14.912  0.0421 -0.1941  0.1113
89587W        W32525  19.750  17.166  16.330  0.1835 -0.1520 -0.0230
89588W        W32526  19.981  15.012  16.888 -0.1299 -0.0807  0.0359
89589W        W32527  20.507  16.865  17.468  0.1957  0.1207  0.1044
89590W        W32528  20.142  19.333  16.273 -0.0244 -0.3467  0.0358
89591W        W32529  16.700  17.208  15.720  0.3763  0.0300  0.0349
89592W        W32530  18.214  16.548  15.347  0.1572 -0.1228  0.0163
89593W        W32531  19.503  14.853  17.018  0.0872  0.0542  0.1536
89594W        W32532  19.963  16.473  16.292 -0.2243 -0.3030 -0.0346
89595W        W32533  21.651  15.224  15.224  0.0283  0.0414  0.0704
89596W        W32534  20.444  13.175  16.458 -0.0986  0.0893 -0.1904
89597W        W32535  23.800  13.132  17.511 -0.1592  0.1050 -0.0586
89598W        W32536  19.116  15.007  15.577  0.1779  0.0138  0.1173
89599W        W32537  22.413  17.565  17.273 -0.0306  0.0747 -0.1125
89600W        W32538  22.076  15.849  16.003  0.2364 -0.1875  0.2521
89601W        W32539  22.076  17.184  14.489 -0.2302  0.1332 -0.0110
89602W        W32540  17.999  15.493  16.504 -0.2502 -0.2029 -0.0748
89603W        W32541  17.696  16.508  15.437  0.1700  0.2572  0.0338
89604W        W32542  19.315  14.475  16.731 -0.0545  0.1009 -0.1909
89605W        W32543  18.500  16.284  16.530  0.0669  0.2777  0.1071
89606W        W32544  22.232  15.701  19.559 -0.0345  0.3668  0.1881
89607W        W32545  18.110  13.354  15.735  0.3033  0.0390 -0.1806
89608W        W32546  20.651  14.712  16.018 -0.0473  0.0665 -0.0631
89609W        W32547  18.697  15.361  15.484 -0.0791 -0.0418 -0.2589
89610W        W32548  18.020  16.158  15.057  0.0844  0.4053  0.0131
89611W        W32549  21.070  12.172  17.669 -0.0588  0.0927  0.0694
89612W        W32550  21.501  17.024  17.419 -0.0391  0.3151 -0.1263
89613W        W32551  23.178  17.299  18.206  0.2280 -0.1418 -0.1117
89614W        W32552  21.392  16.936  18.156  0.0529 -0.0387 -0.2014
89615W        W32553  18.707  15.270  17.605  0.0890 -0.0270 -0.0489
89616W        W32554  18.449  14.885  16.480  0.0907 -0.0770 -0.2308
89617W        W32555  18.956  20.324  15.501  0.0624 -0.0464 -0.2335
89618W        W32556  20.567  16.099  16.243  0.0338 -0.2555  0.1808
89619W        W32557  20.977  15.770  16.367  0.3486  0.0159 -0.1076
89620W        W32558  21.738  18.831  17.667  0.3024 -0.0679  0.0786
89621W        W32559  22.422  14.863  15.733  0.0395 -0.0904  0.2037
89622W        W32560  19.788  16.784  17.412 -0.1804  0.5068  0.1186
89623W        W32561  20.201  12.391  18.938 -0.4291 -0.1531  0.4452
89624W        W32562  22.167  15.806  18.084  0.0905 -0.1445 -0.1097
89625W        W32563  19.991  15.961  16.316 -0.0210  0.0264  0.0821
89626W        W32564  18.838  15.255  14.249 -0.1057  0.1109 -0.1009
89627W        W32565  20.762  18.135  17.102 -0.0645  0.1133 -0.0575
89628W        W32566  18.641  17.523  14.876 -0.0621  0.0395  0.1139
89629W        W32567  19.423  16.578  15.655  0.1075 -0.1487 -0.0061
89630W        W32568  19.772  16.292  15.906 -0.1723 -0.2180 -0.4168
89631W        W32569  22.777  13.514  17.733 -0.1963 -0.2561  0.0272
89632W        W32570  17.683  17.326  16.027  0.2307 -0.0749  0.0199
89633W        W32571  21.324  15.295  16.168  0.2028 -0.0950  0.0146
89634W        W32572  17.883  16.708  14.972 -0.3295  0.0934 -0.0009
89635W        W32573  18.807  18.399  16.455 -0.4389  0.0027 -0.1580
89636W        W32574  20.080  15.122  15.556 -0.1091  0.2981  0.3265
89637W        W32575  21.996  13.941  16.037 -0.1398  0.1432  0.4708
89638W        W32576  20.269  14.664  16.322 -0.0353  0.0910 -0.0715
89639W        W32577  20.161  18.509  16.710  0.1798  0.2403 -0.0078
89640W        W32578  21.864  15.715  15.175 -0.2420 -0.1583 -0.1250
89641W        W32579  19.701  15.429  15.679  0.4105  0.1842 -0.2023
89642W        W32580  18.935  18.774  17.450  0.0784  0.0938  0.0609
89643W        W32581  21.437  17.719  16.220 -0.2998  0.2191  0.0044
89644W        W32582  19.453  17.440  16.733 -0.0324 -0.0542  0.0521
89645W        W32583  19.725  15.548  14.865 -0.1728  0.0745  0.0953
89646W        W32584  21.670  17.122  15.302 -0.2026  0.0487 -0.1194
89647W        W32585  18.546  15.367  16.450 -0.2355 -0.0624  0.0648
89648W        W32586  21.131  16.208  17.637 -0.1583  0.1067  0.0448
89649W        W32587  22.016  17.153  16.443 -0.1039 -0.2387 -0.0317
89650W        W32588  19.662  13.193  16.201 -0.0158  0.1875 -0.2497
89651W        W32589  20.453  16.864  15.623  0.0288  0.2183 -0.1261
89652W        W32590  20.441  15.837  16.741  0.0654 -0.0060  0.0494
89653W        W32591  18.309  18.173  15.802 -0.2455 -0.2622 -0.0416
89654W        W32592  21.370  14.416  18.068  0.0840  0.1354 -0.2296
89655W        W32593  22.448  16.576  17.487 -0.0225 -0.0868 -0.2229
89656W        W32594  21.380  13.206  17.020 -0.1972 -0.1549 -0.3536
89657W        W32595  22.945  17.006  19.422 -0.2250 -0.1370 -0.0124
89658W        W32596  23.353  15.251  17.160  0.0200 -0.0497 -0.1776
89659W        W32597  21.260  17.308  17.795  0.1074  0.2147  0.1124
89660W        W32598  19.911  16.616  15.580 -0.0497  0.0726  0.2656
89661W        W32599  20.456  14.803  17.307 -0.0850 -0.0284  0.1707
89662W        W32600  18.964  16.386  16.489  0.0986  0.2900 -0.0034
89663W        W32601  17.837  18.181  15.551  0.0928 -0.2831  0.0902
89664W        W32602  22.023  18.663  17.340 -0.1398 -0.0122  0.2025
89665W        W32603  22.288  16.953  16.035 -0.4566 -0.2021 -0.1645
89666W        W32604  19.988  14.282  18.484  0.0109  0.1017 -0.0800
89667W        W32605  19.180  14.541  15.399  0.2262  0.0508  0.3377
89668W        W32606  19.560  17.078  15.465  0.2404  0.1870 -0.0062
89669W        W32607  21.116  17.758  15.852 -0.0623 -0.1824 -0.2617
89670W        W32608  19.992  15.645  17.124  0.2638 -0.3150 -0.2033
89671W        W32609  19.775  16.572  16.887  0.1451 -0.2946 -0.1445
89672W        W32610  19.429  15.929  15.061 -0.0985 -0.0626 -0.1932
89673W        W32611  21.440  14.949  17.736 -0.2445 -0.0277 -0.0424
89674W        W32612  18.870  17.533  15.720  0.0380  0.0847  0.0666
89675W        W32613  21.943  13.406  18.242  0.0111 -0.0749  0.0386
89676W        W32614  18.531  18.118  14.858  0.2609 -0.0195  0.0853
89677W        W32615  19.432  16.436  14.830  0.3127  0.3690 -0.0142
89678W        W32616  17.878  15.966  15.545 -0.1174  0.0159  0.0758
89679W        W32617  20.803  14.193  15.107 -0.0139 -0.1603  0.0837
89680W        W32618  20.440  16.857  15.144  0.1073  0.1784  0.2920
89681W        W32619  19.386  13.616  15.848 -0.0487 -0.1640 -0.1342
89682W        W32620  20.688  15.721  15.959 -0.2845 -0.1630  0.0262
89683W        W32621  17.785  17.692  15.507  0.0336 -0.1496 -0.0725
89684W        W32622  22.080  16.304  17.197 -0.1272  0.1505  0.1687
89685W        W32623  21.109  15.154  15.057 -0.4307 -0.1957  0.0670
89686W        W32624  21.086  15.733  17.391 -0.0220  0.0105 -0.0437
89687W        W32625  22.070  16.750  18.652  0.0923 -0.0246 -0.1350
89688W        W32626  18.959  15.058  15.114  0.1999 -0.2479 -0.3159
89689W        W32627  22.345  15.225  18.028  0.0237 -0.0586  0.0225
89690W        W32628  20.838  16.185  16.636 -0.3306 -0.0656 -0.1839
89691W        W32629  19.302  16.460  17.321  0.1264  0.3110  0.0857
89692W        W32630  21.252  17.552  17.312 -0.0442  0.0326 -0.1350
89693W        W32631  19.884  15.890  15.525 -0.0917 -0.1579  0.0569
89694W        W32632  17.855  17.906  16.052  0.0413 -0.1035  0.3324
89695W        W32633  20.721  16.040  17.178  0.0359 -0.2567  0.1579
89696W        W32634  21.246  16.147  17.047 -0.2146 -0.0818 -0.0069
89697W        W32635  19.625  15.822  15.996 -0.1950  0.0303  0.3005
89698W        W32636  18.839  15.070  16.026  0.0857 -0.2243 -0.0256
89699W        W32637  18.522  16.287  15.993  0.1018 -0.3981  0.0319
89700W        W32638  21.432  15.474  16.689  0.0117 -0.0677 -0.0046
89701W        W32639  21.170  15.301  17.117  0.1852 -0.2008 -0.0480
89702W        W32640  21.434  16.987  16.496  0.2101  0.2490  0.0362
89703W        W32641  20.705  13.266  16.047 -0.3873  0.0603 -0.4282
89704W        W32642  21.843  18.024  15.394 -0.1173  0.1187  0.2247
89705W        W32643  21.092  15.916  18.302  0.1378 -0.1128  0.1975
89706W        W32644  18.564  18.321  15.303 -0.2231 -0.2161 -0.3220
89707W        W32645  17.608  17.143  15.432  0.1755  0.2566  0.0274
89708W        W32646  19.273  18.379  16.611 -0.2509  0.1784  0.2256
89709W        W32647  21.297  14.364  16.398  0.2356  0.1295  0.1727
89710W        W32648  18.086  17.048  15.275 -0.0105 -0.3106 -0.0834
89711W        W32649  19.376  18.774  16.195 -0.0144 -0.0403 -0.0557
89712W        W32650  17.399  18.221  15.986 -0.1188  0.1560 -0.0532
89713W        W32651  22.684  14.196  16.744 -0.1731  0.0082  0.0654
89714W        W32652  21.712  17.885  17.192 -0.0901  0.3660 -0.2819
89715W        W32653  21.592  15.648  17.118 -0.3740  0.2019  0.0603
89716W        W32654  22.934  13.029  18.780 -0.0638 -0.2346 -0.0696
89717W        W32655  21.224  14.960  15.708 -0.0797 -0.0964  0.1486
89718W        W32656  20.004  13.474  16.749 -0.1725 -0.1342  0.0656
89719W        W32657  20.142  14.705  15.837 -0.1066 -0.1341  0.2054
89720W        W32658  22.171  17.011  17.213  0.1684 -0.2244  0.1648
89721W        W32659  18.044  16.420  15.789  0.1497 -0.3283  0.2404
89722W        W32660  20.982  17.701  17.730  0.0993  0.0975  0.1397
89723W        W32661  19.148  14.922  17.519 -0.3296  0.0155  0.1125
89724W        W32662  20.651  16.466  14.875 -0.1517  0.0264 -0.4733
89725W        W32663  19.716  14.559  16.102 -0.1611  0.0325  0.4688
89726W        W32664  20.587  16.503  17.019 -0.0085  0.1720  0.0221
89727W        W32665  22.060  17.493  16.857 -0.1684 -0.2595  0.1186
89728W        W32666  20.481  17.079  16.109  0.0397 -0.2210  0.1811
89729W        W32667  23.134  14.967  16.422 -0.1908 -0.1168 -0.0933
89730W        W32668  16.953  18.052  15.959  0.0832  0.0645  0.1235
89731W        W32669  21.584  15.435  15.695  0.0651  0.5237 -0.0020
89732W        W32670  20.774  17.538  16.787  0.2795  0.0007 -0.0117
89733W        W32671  20.464  18.902  15.296 -0.2307  0.0997 -0.0053
89734W        W32672  19.087  15.408  16.564 -0.1248 -0.1390 -0.2946
89735W        W32673  23.168  15.722  17.069  0.0069  0.1216 -0.0064
89736W        W32674  21.223  16.232  15.749 -0.0314  0.3637  0.0302
89737W        W32675  20.822  14.415  17.227  0.2647  0.0867  0.3824
89738W        W32676  21.252  15.731  15.885 -0.1624  0.0275 -0.2476
89739W        W32677  20.088  15.627  18.272 -0.1221  0.0312  0.1093
89740W        W32678  17.857  15.024  16.405  0.0215  0.0378 -0.0485
89741W        W32679  21.603  19.057  18.150  0.3711 -0.2897  0.0125
89742W        W32680  20.329  15.043  15.089  0.0978  0.3546 -0.2866
89743W        W32681  22.502  13.565  18.302  0.0648 -0.0691  0.1008
89744W        W32682  22.386  15.666  16.384  0.1787  0.0636 -0.2687
89745W        W32683  20.734  15.426  14.986 -0.1161 -0.1934 -0.2544
89746W        W32684  18.436  16.749  15.798  0.1900 -0.0275  0.2655
89747W        W32685  21.857  16.817  18.003 -0.2356 -0.0877  0.2853
89748W        W32686  20.028  15.276  14.508 -0.0762 -0.2481 -0.1365
89749W        W32687  20.381  14.681  16.822  0.0547 -0.2422 -0.0758
89750W        W32688  19.475  15.930  14.590 -0.1647  0.2263  0.4123
89751W        W32689  21.686  15.660  16.302  0.0032 -0.2442  0.3064
89752W        W32690  20.481  15.515  15.543 -0.1463  0.1696 -0.2572
89753W        W32691  18.208  15.537  15.587  0.1787  0.1278  0.0408
89754W        W32692  19.982  20.248  17.852 -0.0793  0.1244 -0.2233
89755W        W32693  18.544  16.008  14.970  0.0906 -0.2506 -0.0399
89756W        W32694  20.219  16.626  14.683 -0.0123  0.4356  0.0398
89757W        W32695  20.840  15.663  18.721  0.1050  0.0451  0.0945
89758W        W32696  22.459  18.041  18.082  0.0187 -0.3381  0.3054
89759W        W32697  20.865  13.723  15.154 -0.0294  0.1835  0.0204
89760W        W32698  21.926  13.306  17.682 -0.0869  0.4370  0.1431
89761W        W32699  19.983  16.864  15.986 -0.1060  0.2733 -0.4567
89762W        W32700  19.339  15.304  16.140  0.3040 -0.0798  0.0970
89763W        W32701  20.895  20.067  17.180  0.1612 -0.1493 -0.4119
89764W        W32702  19.141  17.900  16.468  0.1835  0.0280  0.2167
89765W        W32703  19.239  19.581  14.540 -0.0272  0.1591 -0.2375
89766W        W32704  20.947  13.547  17.096  0.1397 -0.1581 -0.1071
89767W        W32705  21.715  14.448  16.696  0.1999  0.0011  0.1197
89768W        W32706  19.121  17.482  16.209  0.1799 -0.3572  0.3289
89769W        W32707  22.915  14.396  18.763  0.0394  0.1838  0.0411
89770W        W32708  21.740  16.080  16.885 -0.0668 -0.2944  0.2368
89771W        W32709  19.981  15.905  15.055 -0.0569 -0.2196 -0.2857
89772W        W32710  21.911  16.664  17.524 -0.0178  0.1771  0.1796
89773W        W32711  24.387  15.623  17.682  0.1994  0.1292 -0.1121
89774W        W32712  20.428  17.247  16.606 -0.1270  0.1581  0.2892
89775W        W32713  18.489  15.422  15.961  0.2940  0.1841  0.0963
89776W        W32714  19.216  16.673  16.818  0.2741 -0.1758 -0.0453
89777W        W32715  21.732  16.972  16.970  0.1088  0.2813  0.0666
89778W        W32716  18.945  14.946  16.716  0.0936 -0.2307 -0.3297
89779W        W32717  19.776  16.311  15.206  0.1196 -0.1092 -0.2824
89780W        W32718  17.806  18.485  16.240 -0.2101  0.0965  0.0647
89781W        W32719  19.530  15.743  16.528  0.0003 -0.2066  0.3382
89782W        W32720  19.165  18.713  14.992  0.1488  0.0022  0.0419
89783W        W32721  20.094  17.093  14.845 -0.2935 -0.0635 -0.0077
89784W        W32722  21.266  14.447  16.938 -0.2677 -0.3469 -0.0010
89785W        W32723  21.166  19.631  16.692 -0.2780 -0.0796  0.3420
89786W        W32724  20.719  15.357  14.061  0.0447  0.3800 -0.0347
89787W        W32725  17.162  17.225  15.927  0.0065  0.2087 -0.3171
89788W        W32726  18.024  18.138  14.584  0.2150 -0.0230 -0.2110
89789W        W32727  19.793  17.878  15.902  0.0071  0.1794 -0.0940
89790W        W32728  19.251  18.364  15.706  0.1830 -0.0823 -0.6904
89791W        W32729  21.715  17.340  17.939 -0.2856  0.0588  0.0263
89792W        W32730  20.522  14.987  13.795 -0.0846 -0.3293  0.0482
89793W        W32731  21.613  15.065  16.994 -0.0594  0.0028  0.1332
89794W        W32732  21.809  15.201  16.563  0.0733 -0.3774 -0.1005
89795W        W32733  20.594  17.381  17.795 -0.0158  0.0083 -0.0219
89796W        W32734  21.684  16.095  17.480 -0.1864 -0.1393 -0.0730
89797W        W32735  19.823  13.748  14.912 -0.3878 -0.1179  0.0858
89798W        W32736  19.138  15.497  17.548 -0.0302 -0.1239  0.3710
89799W        W32737  23.242  14.938  19.484  0.0421 -0.1607 -0.2108
89800W        W32738  19.544  18.680  17.553  0.2507 -0.0260  0.2283
89801W        W32739  22.017  17.849  16.336  0.4112 -0.2093 -0.0120
89802W        W32740  19.244  16.765  15.209 -0.1875  0.4919  0.0774
89803W        W32741  20.853  16.986  15.392  0.3334  0.1524 -0.0341
89804W        W32742  21.062  13.510  17.657 -0.0868 -0.1960 -0.2334
89805W        W32743  21.341  17.290  15.925  0.4226 -0.1023 -0.2266
89806W        W32744  20.965  15.245  16.535 -0.0019  0.0276 -0.1449
89807W        W32745  20.634  19.381  16.654 -0.0181 -0.1913 -0.2488
89808W        W32746  19.245  17.423  15.356 -0.1824 -0.1752  0.2338
89809W        W32747  21.571  16.533  16.725 -0.1300 -0.1252 -0.1600
89810W        W32748  20.085  14.179  15.632  0.0040 -0.1974  0.0565
89811W        W32749  21.352  14.796  16.628 -0.1882 -0.2640  0.0117
89812W        W32750  19.319  15.755  17.009  0.2379 -0.0090  0.1821
89813W        W32751  22.119  13.735  17.944 -0.1595  0.0355 -0.1027
89814W        W32752  18.114  15.654  15.074 -0.0281 -0.1747 -0.1056
89815W        W32753  21.743  15.947  15.655  0.0516  0.0642  0.0076
89816W        W32754  21.488  15.499  18.421  0.1748  0.1336 -0.1054
89817W        W32755  19.657  15.170  16.515 -0.3777  0.0471 -0.0606
89818W        W32756  19.424  15.343  15.280 -0.1188 -0.1141 -0.1463
89819W        W32757  22.534  16.554  16.950 -0.1929 -0.1927 -0.0663
89820W        W32758  20.398  16.039  15.610  0.2070  0.0619 -0.1489
89821W        W32759  20.823  18.615  17.241  0.3146 -0.0913 -0.0939
89822W        W32760  18.038  16.093  16.335  0.1393 -0.0040  0.0013
89823W        W32761  19.951  15.758  14.493 -0.0644  0.0438  0.0190
89824W        W32762  19.372  17.991  16.917  0.0249 -0.0621 -0.2845
89825W        W32763  20.380  15.321  16.881  0.0269 -0.1980  0.3675
89826W        W32764  20.627  17.622  17.313 -0.0325 -0.0593 -0.0380
89827W        W32765  19.464  14.867  15.134 -0.0792 -0.1196 -0.1167
89828W        W32766  20.648  17.017  14.758 -0.1359  0.2454 -0.0438
89829W        W32767  22.193  14.394  16.512  0.0855  0.4021  0.2413
89830W        W32768  21.112  18.183  16.140  0.0962 -0.1783 -0.0223
89831W        W32769  21.345  16.751  15.348  0.2757 -0.0288 -0.1020
89832W        W32770  21.635  17.887  16.710  0.1037  0.0516  0.0425
89833W        W32771  18.017  15.675  16.035 -0.2061  0.0624 -0.5694
89834W        W32772  21.038  16.826  16.288  0.0456 -0.1923  0.0944
89835W        W32773  22.673  17.031  17.232 -0.2658  0.0171  0.4422
89836W        W32774  20.501  15.906  15.048  0.0193  0.2473  0.1515
89837W        W32775  19.859  15.980  16.788  0.0705  0.0211 -0.2972
89838W        W32776  18.032  18.213  15.097  0.0355  0.1632 -0.0867
89839W        W32777  22.446  15.025  17.130  0.1208 -0.0008  0.4492
89840W        W32778  22.538  15.641  17.727  0.1052  0.1060  0.0927
89841W        W32779  18.652  16.833  15.141  0.0792  0.0472 -0.0557
89842W        W32780  21.724  14.117  17.090 -0.1142 -0.0573 -0.2462
89843W        W32781  20.189  17.368  17.056  0.2034 -0.3467  0.2394
89844W        W32782  20.594  16.654  16.432 -0.1014 -0.0814  0.0124
89845W        W32783  18.746  16.402  15.556  0.2184  0.1742  0.0066
89846W        W32784  19.870  18.074  16.704  0.0349  0.0508 -0.1720
89847W        W32785  20.064  17.373  15.946 -0.1797 -0.0214 -0.1790
89848W        W32786  21.132  18.278  15.623  0.1039  0.1886 -0.1325
89849W        W32787  22.236  16.972  18.194 -0.1422 -0.0711 -0.1292
89850W        W32788  20.900  15.910  15.470 -0.2094 -0.0952  0.2718
89851W        W32789  22.036  15.811  18.592  0.1528 -0.0794 -0.3238
89852W        W32790  20.342  15.128  15.992 -0.0388 -0.0178 -0.2222
89853W        W32791  21.619  14.876  16.040  0.0983  0.1542  0.0688
89854W        W32792  20.048  14.539  14.338 -0.0027  0.1233  0.0895
89855W        W32793  18.748  17.647  16.618  0.0263 -0.0294 -0.2659
89856W        W32794  17.535  16.220  15.081 -0.0711  0.1670  0.0289
89857W        W32795  19.781  16.789  15.071 -0.0581  0.1961 -0.3542
89858W        W32796  18.645  17.320  16.081  0.5688  0.2911 -0.3018
89859W        W32797  20.676  13.775  18.094  0.1157 -0.2024 -0.0151
89860W        W32798  20.624  15.322  17.893  0.0526 -0.2455  0.3455
89861W        W32799  18.182  17.728  16.821 -0.2604  0.3685 -0.1088
89862W        W32800  18.883  15.863  15.338  0.1731  0.0318 -0.2531
89863W        W32801  21.820  16.437  15.792 -0.0540 -0.0376  0.1130
89864W        W32802  19.332  14.857  16.391 -0.0098  0.0618  0.0492
89865W        W32803  18.031  13.759  16.043  0.2555  0.2743 -0.0480
89866W        W32804  20.288  16.382  15.922 -0.1648  0.0641  0.0760
89867W        W32805  22.379  17.518  16.460  0.0033  0.1983  0.0277
89868W        W32806  18.149  14.521  15.184  0.0609  0.2135  0.0598
89869W        W32807  22.129  18.397  19.176  0.1461  0.2100 -0.2074
89870W        W32808  17.333  16.731  15.718 -0.1970  0.1366 -0.1599
89871W        W32809  20.832  14.708  17.660  0.1278  0.1809 -0.0267
89872W        W32810  18.961  14.278  17.140 -0.1436  0.1609 -0.1649
89873W        W32811  18.557  15.512  15.038  0.0865  0.0791  0.0336
89874W        W32812  20.884  14.905  16.968 -0.0925  0.0730  0.2371
89875W        W32813  21.867  17.385  17.337  0.1624 -0.1441  0.1001
89876W        W32814  21.217  17.357  15.444  0.0957  0.0853  0.1556
89877W        W32815  20.617  16.344  17.576  0.0098  0.3248 -0.1605
89878W        W32816  19.815  18.913  17.081  0.3193  0.0439 -0.0495
89879W        W32817  18.213  14.485  16.327 -0.1657  0.2332  0.0899
89880W        W32818  21.430  16.663  15.981 -0.3393 -0.0510  0.2596
89881W        W32819  21.566  16.549  17.231 -0.0973  0.0186 -0.0132
89882W        W32820  22.324  15.126  16.525 -0.3690 -0.2201  0.1349
89883W        W32821  21.839  13.951  16.602 -0.0662  0.3095 -0.0219
89884W        W32822  20.732  16.497  15.377 -0.1265  0.0555  0.1473
89885W        W32823  19.536  13.565  17.998  0.0886 -0.0589  0.0832
89886W        W32824  18.904  18.521  16.941 -0.2423  0.1058 -0.0343
89887W        W32825  22.162  15.795  17.158  0.0139 -0.1093  0.2409
89888W        W32826  19.714  14.263  16.532  0.1141 -0.0571  0.0300
89889W        W32827  21.711  14.861  15.588 -0.4281  0.0469 -0.1762
89890W        W32828  20.826  17.308  15.766 -0.3099  0.0323  0.1330
89891W        W32829  17.654  15.861  16.727  0.1723  0.3204  0.0063
89892W        W32830  21.623  17.422  16.584 -0.1065 -0.1651  0.0295
89893W        W32831  20.553  15.036  16.479  0.3161 -0.2567  0.0840
89894W        W32832  19.981  17.528  16.600  0.2406 -0.1522 -0.0461
89895W        W32833  20.134  15.430  17.815 -0.1025 -0.1625  0.1389
89896W        W32834  20.426  17.406  15.536  0.3070  0.0955  0.0946
89897W        W32835  23.587  15.033  16.711  0.0800 -0.0883  0.1152
89898W        W32836  21.071  16.654  16.739  0.0360  0.0725 -0.1433
89899W        W32837  22.940  17.762  18.061  0.1554 -0.1117 -0.0084
89900W        W32838  19.219  19.284  16.240  0.1225 -0.0116 -0.0862
89901W        W32839  22.511  15.426  16.870 -0.1136 -0.0241 -0.3422
89902W        W32840  19.254  14.652  15.948 -0.0927 -0.0950  0.1605
89903W        W32841  19.073  17.209  14.858  0.2192  0.0675 -0.5113
89904W        W32842  21.951  15.621  16.711 -0.4694 -0.2410  0.2044
89905W        W32843  20.990  15.183  17.600 -0.2108  0.1279  0.1117
89906W        W32844  19.114  15.794  16.180 -0.5434  0.0832 -0.0955
89907W        W32845  20.568  15.019  15.557  0.0237  0.1382  0.0597
89908W        W32846  21.801  20.004  18.550 -0.1697 -0.0768  0.0671
89909W        W32847  21.103  16.322  16.224 -0.0426 -0.0512 -0.0257
89910W        W32848  20.481  16.501  18.790  0.0422 -0.1936  0.2895
89911W        W32849  20.214  13.948  17.768 -0.1414  0.0958 -0.1379
89912W        W32850  21.232  13.645  18.435 -0.0588 -0.1128 -0.1894
89913W        W32851  21.714  15.910  18.219 -0.0777  0.0442 -0.1195
89914W        W32852  18.424  16.123  17.030  0.2231 -0.0031  0.1908
89915W        W32853  22.116  17.426  18.878  0.2717  0.0508 -0.1183
89916W        W32854  18.799  12.848  20.474  0.4740  0.0172 -0.1432
89917W        W32855  22.026  17.643  19.366  0.2017  0.5868 -0.1686
89918W        W32856  21.843  19.814  19.904  0.2751  0.0426 -0.0020
89919W        W32857  21.441  15.801  17.837  0.0614 -0.2975  0.1426
89920W        W32858  20.144  16.291  19.243  0.1769 -0.1216  0.1648
89921W        W32859  20.774  17.971  18.793 -0.1583  0.0857 -0.1974
89922W        W32860  19.445  14.426  17.335 -0.0466  0.0018  0.2453
89923W        W32861  19.337  14.112  18.622 -0.0371  0.3497  0.2266
89924W        W32862  23.025  15.436  20.330  0.2124  0.0868 -0.4412
89925W        W32863  19.273  17.067  17.271 -0.1960 -0.1099  0.0125
89926W        W32864  20.613  15.312  17.355  0.0134 -0.3759 -0.1997
89927W        W32865  21.868  19.744  19.064  0.2037  0.2671  0.0321
89928W        W32866  21.304  14.343  20.154  0.1803 -0.2302 -0.1322
89929W        W32867  20.432  18.890  18.259 -0.1744 -0.0100 -0.0768
89930W        W32868  18.890  15.827  16.675 -0.3093 -0.4611 -0.3063
89931W        W32869  17.928  14.504  17.324 -0.0780 -0.0625 -0.0269
89932W        W32870  19.867  15.043  18.023  0.1807 -0.0110 -0.1003
89933W        W32871  20.706  13.883  20.711  0.2292  0.1700  0.3673
89934W        W32872  20.781  16.421  19.583 -0.1284  0.1036  0.2061
89935W        W32873  20.868  18.145  18.126  0.2220  0.0020  0.5426
89936W        W32874  21.245  18.156  19.042  0.2797 -0.2198 -0.0673
89937W        W32875  21.600  15.113  19.873 -0.2256 -0.3477  0.2955
89938W        W32876  18.597  16.883  16.466 -0.1355  0.1551  0.1436
89939W        W32877  19.830  18.229  18.168  0.1272 -0.0581  0.1096
89940W        W32878  20.159  16.540  17.655  0.1924 -0.0441  0.1071
89941W        W32879  22.608  16.150  19.472  0.1033 -0.1889  0.1494
89942W        W32880  23.150  18.476  19.244  0.1654  0.1386 -0.0696
89943W        W32881  18.582  17.900  17.238  0.2284 -0.0290  0.0018
89944W        W32882  20.737  17.897  19.872 -0.0747 -0.0317  0.0673
89945W        W32883  20.338  17.702  18.836  0.0937  0.0375 -0.0940
89946W        W32884  21.597  16.022  19.287 -0.0174 -0.0080 -0.0639
89947W        W32885  21.423  16.383  19.019 -0.1648 -0.1825 -0.3050
89948W        W32886  20.226  16.328  16.642 -0.0379 -0.2276 -0.0714
89949W        W32887  20.626  16.650  18.272 -0.1303  0.1245 -0.0028
89950W        W32888  20.707  15.429  19.567  0.0973 -0.1485 -0.3817
89951W        W32889  19.093  17.590  18.115 -0.0445 -0.0012 -0.3601
89952W        W32890  23.077  15.037  21.936  0.0205  0.0885 -0.2927
89953W        W32891  20.194  17.757  17.428 -0.3696 -0.1987  0.3226
89954W        W32892  22.228  15.298  18.832  0.0333 -0.0085 -0.0594
89955W        W32893  19.226  13.996  18.141  0.4324  0.1578  0.1230
89956W        W32894  22.846  15.263  18.042 -0.0394  0.0769 -0.0056
89957W        W32895  20.640  14.523  19.202 -0.0956  0.3762  0.0391
89958W        W32896  20.007  17.396  17.969 -0.2271  0.2848  0.1508
89959W        W32897  19.835  14.806  18.538 -0.1637  0.1108  0.0147
89960W        W32898  22.537  17.923  20.427  0.1006  0.0549 -0.0938
89961W        W32899  19.636  15.507  17.927 -0.0342 -0.0378 -0.1553
89962W        W32900  21.107  15.465  18.066  0.1837  0.1751  0.2073
89963W        W32901  19.241  17.596  19.080 -0.3695  0.5003 -0.2875
89964W        W32902  17.849  16.715  17.759  0.0112 -0.1747 -0.2116
89965W        W32903  22.766  16.160  18.923 -0.1447  0.0291 -0.1003
89966W        W32904  24.201  18.693  21.236 -0.2189 -0.1035  0.4663
89967W        W32905  20.604  18.307  16.607 -0.0542  0.0262 -0.0873
89968W        W32906  18.391  16.112  17.514 -0.0869  0.0635 -0.0071
89969W        W32907  18.478  17.279  19.771 -0.0122 -0.3116 -0.1111
89970W        W32908  20.609  12.620  16.975 -0.1302  0.0148 -0.4190
89971W        W32909  24.026  16.933  22.553  0.0799 -0.2554  0.0194
89972W        W32910  22.395  13.562  19.001 -0.1635 -0.0856  0.0384
89973W        W32911  19.990  15.791  18.737 -0.0075  0.0598  0.1719
89974W        W32912  22.752  17.649  19.485  0.4017  0.0139 -0.0859
89975W        W32913  20.163  15.661  15.905 -0.1735 -0.2381  0.1028
89976W        W32914  21.705  15.210  20.347  0.1265  0.1501  0.1498
89977W        W32915  21.374  13.994  21.017  0.0754 -0.0187  0.0177
89978W        W32916  20.483  18.337  16.121  0.0362 -0.1964 -0.1238
89979W        W32917  19.817  16.151  18.405 -0.2004  0.1606  0.0566
89980W        W32918  21.653  17.477  19.060 -0.0180 -0.1976  0.0850
89981W        W32919  21.966  16.044  19.864  0.0542 -0.2051  0.1381
89982W        W32920  20.045  19.757  17.759  0.1132 -0.1126  0.0663
89983W        W32921  20.743  17.267  20.679  0.1470  0.2348 -0.0055
89984W        W32922  18.411  18.293  16.845  0.0391  0.1135  0.0616
89985W        W32923  18.304  16.134  18.140  0.2168  0.0494  0.2833
89986W        W32924  19.040  17.672  17.150  0.1376  0.2112 -0.1636
89987W        W32925  20.921  17.447  18.683  0.1536  0.0516 -0.0285
89988W        W32926  22.959  12.691  18.240 -0.3613 -0.0270  0.0276
89989W        W32927  22.219  12.991  20.284 -0.0742 -0.1995  0.1478
89990W        W32928  18.842  18.074  16.884  0.0597 -0.1451  0.3010
89991W        W32929  21.833  17.978  18.989 -0.0254 -0.2684  0.0933
89992W        W32930  21.529  14.634  18.754  0.1141 -0.0905  0.1630
89993W        W32931  21.246  17.797  18.629  0.3008 -0.2643 -0.0281
89994W        W32932  20.341  14.939  17.760 -0.1673 -0.0516  0.1471
89995W        W32933  19.650  16.168  17.215  0.3717  0.1010  0.2844
89996W        W32934  19.351  14.622  18.739 -0.1642 -0.0138 -0.0127
89997W        W32935  18.979  11.885  19.418 -0.0016  0.1273 -0.4487
89998W        W32936  21.376  15.232  19.349  0.2914  0.2344 -0.1905
89999W        W32937  18.855  13.493  16.569  0.1074  0.0836 -0.1996
90000W        W32938  20.028  14.562  18.060  0.0997 -0.3696  0.2327
90001W        W32939  18.845  16.055  18.105 -0.0630 -0.2617 -0.0124
90002W        W32940  18.824  16.840  17.343  0.1348 -0.0202  0.0050
90003W        W32941  21.838  14.899  20.848 -0.2299 -0.2918  0.2838
90004W        W32942  21.416  18.454  17.997  0.1638  0.2089  0.3109
90005W        W32943  23.071  18.861  21.461 -0.0815 -0.0139  0.3801
90006W        W32944  22.043  16.293  18.448 -0.1363 -0.1421  0.0326
90007W        W32945  18.919  15.001  18.677 -0.0621  0.0734 -0.1502
90008W        W32946  18.156  13.172  18.454  0.4587 -0.1473  0.0629
90009W        W32947  20.234  18.204  17.212  0.1666  0.0929  0.1571
90010W        W32948  21.350  17.231  18.740  0.1826  0.1037 -0.1149
90011W        W32949  18.206  14.606  16.834  0.1952  0.1043  0.0109
90012W        W32950  24.335  18.144  21.107  0.3606  0.1695  0.3122
90013W        W32951  19.452  17.312  17.859  0.0231  0.1614 -0.0457
90014W        W32952  21.593  13.859  20.373 -0.0051  0.1244  0.1304
90015W        W32953  22.124  16.181  19.384 -0.0024  0.0333  0.0854
90016W        W32954  22.640  14.275  19.690 -0.1493 -0.1907 -0.1005
90017W        W32955  19.573  13.125  16.790  0.0009 -0.0838  0.0992
90018W        W32956  20.790  18.437  19.022  0.0340  0.1700 -0.3548
90019W        W32957  19.555  19.695  17.713  0.0459  0.0766  0.1782
90020W        W32958  19.358  16.163  16.742  0.0602 -0.0296  0.0569
90021W        W32959  21.154  19.190  18.318 -0.0852  0.0639  0.2874
90022W        W32960  23.306  14.227  21.067  0.2546 -0.0647  0.1215
90023W        W32961  17.803  16.978  20.365  0.0866 -0.0153  0.1600
90024W        W32962  20.644  14.487  19.813 -0.0083  0.0054  0.1567
90025W        W32963  18.768  15.823  17.717  0.3476  0.0299 -0.0103
90026W        W32964  19.196  17.558  20.225  0.0203 -0.2656  0.1853
90027W        W32965  21.639  13.885  18.204  0.0729  0.1076 -0.0984
90028W        W32966  23.567  15.243  18.570 -0.2036  0.0400  0.1981
90029W        W32967  22.086  15.137  20.003 -0.1232  0.2923  0.0501
90030W        W32968  22.994  16.272  17.769  0.0570 -0.3631  0.1740
90031W        W32969  21.334  14.384  17.527  0.2306  0.5814  0.2495
90032W        W32970  22.201  17.583  18.174  0.2482  0.1969  0.2946
90033W        W32971  20.885  17.129  18.209 -0.1487 -0.2469  0.2575
90034W        W32972  19.800  16.138  17.671  0.1029 -0.2767  0.0200
90035W        W32973  23.144  18.256  18.735 -0.1626  0.1360  0.2559
90036W        W32974  22.466  19.538  19.918 -0.1786  0.1723 -0.2108
90037W        W32975  19.923  13.687  18.910 -0.0690  0.0972  0.3529
90038W        W32976  21.550  13.516  17.404  0.0348  0.3505  0.1327
90039W        W32977  21.223  13.941  17.930 -0.0676 -0.1436  0.0231
90040W        W32978  17.516  18.167  16.574 -0.0896  0.1152 -0.1810
90041W        W32979  21.682  15.246  18.906 -0.1479 -0.1974  0.2332
90042W        W32980  21.766  14.117  21.500  0.2260 -0.2278  0.2164
90043W        W32981  21.313  14.229  18.597 -0.2750  0.0746  0.2099
90044W        W32982  22.565  15.721  20.616 -0.0948 -0.0213 -0.0164
90045W        W32983  22.491  15.519  18.373  0.0627 -0.2463  0.1975
90046W        W32984  21.132  14.919  19.012 -0.1034  0.1043  0.1022
90047W        W32985  18.691  14.527  16.800 -0.0645  0.2528  0.3628
90048W        W32986  22.092  14.313  19.555 -0.4036 -0.2122  0.0152
90049W        W32987  20.128  15.181  17.387 -0.0961  0.1022 -0.0150
90050W        W32988  18.392  19.045  19.468  0.1089  0.1410 -0.0604
90051W        W32989  21.646  17.851  20.526  0.1011 -0.0514 -0.3462
90052W        W32990  20.781  15.090  18.530 -0.1584 -0.3332  0.1283
90053W        W32991  21.331  14.803  20.568  0.1200  0.1629  0.0983
90054W        W32992  20.933  13.113  17.403 -0.1466 -0.0808 -0.2289
90055W        W32993  20.424  18.012  18.434 -0.0252  0.0574 -0.0741
90056W        W32994  20.092  17.195  17.518  0.0533 -0.1758  0.0239
90057W        W32995  19.859  14.500  17.014  0.1829  0.0888 -0.1081
90058W        W32996  21.126  18.352  18.545  0.0989 -0.2309 -0.2709
90059W        W32997  19.816  17.692  17.025  0.0392 -0.0249  0.0448
90060W        W32998  19.370  16.859  16.017  0.1740 -0.1993 -0.2383
90061W        W32999  22.049  14.209  21.068  0.0228 -0.0572  0.0002
90062W        W33000  18.742  14.058  18.272  0.2879  0.0696  0.4792
90063W        W33001  19.004  16.076  17.171  0.2477  0.1325  0.1449
90064W        W33002  21.116  13.209  19.446  0.1235  0.1222 -0.0411
90065W        W33003  22.626  15.722  20.045 -0.1886 -0.1165 -0.1836
90066W        W33004  21.916  14.872  18.034 -0.0076 -0.2505 -0.0102
90067W        W33005  21.668  14.816  19.263  0.2086  0.0416  0.2353
90068W        W33006  22.860  13.184  20.160  0.0512  0.0655 -0.0424
90069W        W33007  21.841  17.172  18.414  0.1270  0.1531  0.3921
90070W        W33008  17.577  15.754  16.284  0.3042 -0.2620 -0.0931
90071W        W33009  22.637  14.657  20.328 -0.0153  0.4141  0.0055
90072W        W33010  20.297  14.756  18.516  0.2149  0.1084  0.1088
90073W        W33011  18.497  18.718  17.725  0.0278 -0.1066  0.1554
90074W        W33012  21.799  18.854  18.974 -0.3039 -0.1127 -0.1303
90075W        W33013  19.967  14.704  17.541  0.1096  0.2037  0.2870
90076W        W33014  20.216  16.382  18.234 -0.1022 -0.0452  0.1381
90077W        W33015  20.391  16.797  19.254 -0.0890  0.1190 -0.3104
90078W        W33016  23.020  16.348  21.019 -0.0142  0.2568 -0.0451
90079W        W33017  19.085  14.710  18.034 -0.2436  0.1549  0.0571
90080W        W33018  20.402  14.427  17.564  0.2137 -0.0157 -0.1483
90081W        W33019  21.351  16.942  19.113 -0.1010 -0.0295  0.1651
90082W        W33020  21.459  14.627  19.670 -0.1231 -0.1254 -0.2003
90083W        W33021  21.029  16.078  19.082  0.0299  0.3013 -0.2012
90084W        W33022  18.761  17.605  20.588  0.2811 -0.1086  0.0201
90085W        W33023  21.181  13.924  17.335 -0.0771  0.3092 -0.1445
90086W        W33024  21.401  18.636  17.434  0.0337  0.0514 -0.1517
90087W        W33025  20.931  14.868  19.472  0.1189 -0.0244  0.0668
90088W        W33026  19.650  15.622  17.445 -0.1194 -0.1065  0.3105
90089W        W33027  19.260  15.155  17.911  0.0233  0.0550  0.1766
90090W        W33028  21.824  14.323  19.044  0.1139  0.0288 -0.0251
90091W        W33029  18.691  19.080  16.254 -0.1655  0.0650  0.0604
90092W        W33030  23.814  12.283  20.732  0.1023  0.4651 -0.0123
90093W        W33031  21.097  16.388  18.147  0.1801  0.2200  0.2210
90094W        W33032  20.576  14.555  18.085  0.0079 -0.0693  0.0073
90095W        W33033  23.455  14.858  22.980  0.2772 -0.0601 -0.0708
90096W        W33034  21.474  15.397  17.509  0.2910  0.0004 -0.2781
90097W        W33035  21.790  15.214  21.200  0.4523  0.2945 -0.1199
90098W        W33036  20.068  14.565  18.957 -0.0614 -0.1309  0.1864
90099W        W33037  22.987  18.112  20.763  0.4683  0.2697  0.3911
90100W        W33038  18.206  15.511  18.916  0.0945  0.4826 -0.1550
90101W        W33039  20.574  17.814  20.367  0.0593  0.0685  0.4405
90102W        W33040  21.161  15.698  19.512 -0.3081 -0.5064  0.1207
90103W        W33041  20.215  13.754  17.242  0.2030  0.3268  0.1229
90104W        W33042  19.047  16.544  18.075 -0.0862  0.0258 -0.1711
90105W        W33043  21.975  16.482  20.078  0.1462 -0.0177 -0.3299
90106W        W33044  22.500  15.999  18.476 -0.0512 -0.1400  0.1908
90107W        W33045  23.360  15.773  20.256  0.0378 -0.2951 -0.0322
90108W        W33046  20.255  16.095  17.793  0.1465  0.0338  0.2383
90109W        W33047  21.453  16.596  17.777  0.0898  0.0031  0.4819
90110W        W33048  19.604  15.345  16.960 -0.2405 -0.1199  0.4739
90111W        W33049  19.921  13.583  19.910  0.1263  0.3099  0.1753
90112W        W33050  21.578  16.871  19.785 -0.1101 -0.0779 -0.2841
90113W        W33051  21.919  14.750  19.670  0.3206 -0.2346  0.0867
90114W        W33052  22.513  13.354  21.526  0.1363 -0.4486  0.1380
90115W        W33053  21.004  14.786  19.985  0.1360 -0.1272  0.2460
90116W        W33054  18.228  14.877  19.453  0.0842 -0.2000  0.1874
90117W        W33055  22.976  17.764  21.197  0.2129 -0.1424  0.2296
90118W        W33056  23.311  13.922  18.565 -0.0992  0.1998 -0.0456
90119W        W33057  21.764  14.681  20.281 -0.1333 -0.0983  0.2289
90120W        W33058  21.752  17.640  18.556  0.1077 -0.0447 -0.1002
90121W        W33059  20.177  16.871  17.055  0.0124  0.2632 -0.0544
90122W        W33060  17.946  15.789  17.243  0.0773 -0.2995  0.0213
90123W        W33061  22.709  16.332  20.628 -0.2093 -0.3000  0.0477
90124W        W33062  20.530  13.781  16.819  0.0815  0.1248  0.0405
90125W        W33063  22.747  14.759  22.184  0.1006  0.0283 -0.0272
90126W        W33064  18.730  17.411  17.572 -0.1244  0.0634 -0.2622
90127W        W33065  21.247  17.178  16.893  0.1133  0.1907 -0.3645
90128W        W33066  22.217  13.468  19.516  0.0530 -0.1706 -0.1775
90129W        W33067  18.628  14.389  17.906 -0.2362  0.0527  0.0442
90130W        W33068  18.491  14.118  17.020  0.0265 -0.2807  0.2614
90131W        W33069  21.033  16.727  17.245 -0.2422  0.1413 -0.0067
90132W        W33070  21.609  16.837  18.716 -0.2748  0.1767 -0.0189
90133W        W33071  22.583  16.418  21.811  0.1205  0.1161  0.5711
90134W        W33072  21.201  13.070  17.987  0.0209 -0.0600  0.2948
90135W        W33073  23.229  15.265  21.331 -0.1193 -0.1967 -0.0007
90136W        W33074  18.515  17.961  17.766 -0.0290  0.0516 -0.0453
90137W        W33075  22.520  13.886  19.921 -0.0656  0.0295 -0.1116
90138W        W33076  20.074  17.543  18.428 -0.0322  0.0257  0.0238
90139W        W33077  17.618  15.742  19.742  0.0467  0.3248  0.3324
90140W        W33078  22.332  18.501  18.366 -0.1686 -0.0168 -0.0127
90141W        W33079  19.709  15.412  18.507  0.3357  0.0358  0.0727
90142W        W33080  21.415  15.046  18.217 -0.2300  0.0221 -0.1001
90143W        W33081  22.365  16.448  19.015  0.0066 -0.3499  0.0535
90144W        W33082  23.665  14.511  22.682 -0.1340 -0.2032  0.2848
90145W        W33083  21.983  16.904  20.357 -0.2470 -0.1397  0.1081
90146W        W33084  23.079  17.243  20.245  0.1858 -0.1130  0.2939
90147W        W33085  19.270  15.989  17.604 -0.0827 -0.1842 -0.2147
90148W        W33086  17.451  15.657  20.216 -0.0355 -0.1085  0.2349
90149W        W33087  21.550  16.502  18.369  0.0095  0.1440  0.2581
90150W        W33088  21.875  16.211  18.920  0.2586  0.1539 -0.2668
90151W        W33089  18.468  14.512  17.380  0.2627  0.1325  0.1991
90152W        W33090  20.411  17.210  18.323 -0.1633 -0.0777  0.0724
90153W        W33091  19.337  16.946  18.215  0.0255  0.1529  0.3920
90154W        W33092  19.805  17.837  17.761  0.0801  0.1005  0.2662
90155W        W33093  20.931  16.818  17.804  0.0253 -0.0041 -0.3863
90156W        W33094  21.335  17.445  18.264 -0.0606  0.2564 -0.4430
90157W        W33095  22.817  18.894  18.888 -0.2931 -0.0236  0.0235
90158W        W33096  18.000  13.295  17.271  0.0586 -0.0163 -0.0962
90159W        W33097  20.202  16.296  17.214  0.2347  0.0089  0.2140
90160W        W33098  16.578  17.604  17.086  0.0925 -0.1302 -0.0498
90161W        W33099  21.508  17.764  17.665 -0.0336 -0.2598 -0.0269
90162W        W33100  19.949  18.309  17.642  0.0133 -0.1200 -0.2533
90163W        W33101  23.060  16.906  21.239 -0.1186 -0.0639  0.2019
90164W        W33102  22.541  14.319  19.218  0.0903  0.1437  0.0211
90165W        W33103  21.288  15.641  19.034 -0.1197  0.1565  0.1061
90166W        W33104  22.837  13.459  19.735 -0.0829 -0.1320  0.0488
90167W        W33105  19.146  14.285  17.679  0.0227 -0.1135  0.1305
90168W        W33106  21.744  14.557  17.720 -0.1440  0.2022  0.1879
90169W        W33107  23.563  13.953  22.729  0.0368 -0.1549  0.1564
90170W        W33108  17.885  19.163  19.762 -0.2148 -0.1228  0.2431
90171W        W33109  21.488  18.747  18.506  0.3237  0.0788  0.0006
90172W        W33110  16.815  15.516  17.230 -0.0835 -0.2669 -0.4030
90173W        W33111  20.637  15.671  18.250  0.1020 -0.1377 -0.0655
90174W        W33112  23.100  14.460  21.537 -0.4465 -0.1280 -0.0628
90175W        W33113  18.602  15.340  16.913  0.1930  0.0300  0.0638
90176W        W33114  20.417  15.415  18.682  0.1104  0.0766 -0.1523
90177W        W33115  21.099  17.381  16.403 -0.1723 -0.0720 -0.7382
90178W        W33116  18.939  18.537  18.297  0.2250  0.1602 -0.3363
90179W        W33117  19.303  18.083  18.203 -0.0293  0.0648  0.3282
90180W        W33118  17.281  13.459  18.406  0.2810 -0.1294  0.2319
90181W        W33119  22.279  17.152  17.711 -0.0391 -0.3727  0.2081
90182W        W33120  23.926  14.904  23.035 -0.0833  0.3010  0.0227
90183W        W33121  18.535  15.826  16.231 -0.0192 -0.0295  0.0632
90184W        W33122  22.587  12.996  19.186  0.0449 -0.1425 -0.1707
90185W        W33123  19.166  15.032  19.178 -0.2159  0.0732 -0.0327
90186W        W33124  21.902  16.322  17.888  0.1963 -0.3476 -0.0892
90187W        W33125  22.534  16.876  20.461  0.0665  0.1921 -0.0421
90188W        W33126  22.577  16.084  18.008  0.0272 -0.1708 -0.0743
90189W        W33127  18.665  14.875  17.844 -0.0571 -0.1505 -0.0170
90190W        W33128  21.287  14.809  17.270 -0.0241 -0.1261  0.3142
90191W        W33129  21.537  18.542  19.774  0.2440  0.0698  0.5648
90192W        W33130  17.691  14.834  17.734 -0.1277  0.0993 -0.0090
90193W        W33131  22.500  17.681  17.745  0.1340  0.3150 -0.3041
90194W        W33132  21.927  15.588  19.087 -0.2898  0.1427  0.1051
90195W        W33133  20.721  19.337  18.165  0.2436 -0.1610  0.1600
90196W        W33134  21.726  16.395  19.661 -0.0847 -0.1071 -0.1583
90197W        W33135  21.981  17.149  19.297  0.2136 -0.1892 -0.0381
90198W        W33136  18.751  15.615  17.257  0.3728 -0.1244  0.1245
90199W        W33137  22.137  18.590  19.610  0.1948 -0.1679  0.3686
90200W        W33138  23.666  16.592  20.711  0.0467  0.1537 -0.2131
90201W        W33139  20.934  14.894  18.109  0.2621 -0.0296  0.1160
90202W        W33140  19.503  14.741  17.802  0.0579  0.1197 -0.1806
90203W        W33141  20.923  17.179  17.443  0.1921  0.0414 -0.1470
90204W        W33142  21.761  14.207  19.970  0.0870 -0.3785 -0.1751
90205W        W33143  22.005  14.950  22.527 -0.1023 -0.2286 -0.1641
90206W        W33144  21.010  19.373  17.554 -0.1777  0.1027 -0.3717
90207W        W33145  20.722  14.118  20.215  0.1522  0.0701  0.0790
90208W        W33146  21.916  18.642  20.104 -0.2067 -0.0178  0.1651
90209W        W33147  18.882  18.677  19.351 -0.1630 -0.0388  0.2000
90210W        W33148  17.542  15.386  16.858 -0.2721 -0.0810 -0.0291
90211W        W33149  20.492  15.911  19.068 -0.1382  0.1115  0.3276
90212W        W33150  19.824  17.109  18.372  0.1050 -0.2058  0.2232
90213W        W33151  21.644  19.289  19.176 -0.1598  0.0167 -0.0650
90214W        W33152  21.628  18.372  19.265 -0.1149 -0.0009  0.0788
90215W        W33153  20.292  15.170  18.298 -0.0708 -0.2261  0.2242
90216W        W33154  23.921  18.009  20.842  0.0059 -0.2199 -0.1314
90217W        W33155  18.826  14.327  18.937 -0.0766  0.1838  0.2215
90218W        W33156  23.280  13.684  20.335  0.1350 -0.0576  0.1572
90219W        W33157  22.127  13.751  20.210 -0.1424 -0.1123 -0.0199
90220W        W33158  19.087  15.528  15.729 -0.0254  0.0013  0.3634
90221W        W33159  19.685  17.052  16.948 -0.2044 -0.3014  0.2050
90222W        W33160  17.920  17.210  19.801  0.1302 -0.0132  0.2820
90223W        W33161  21.146  14.104  20.570 -0.0333  0.1942 -0.2501
90224W        W33162  19.737  14.111  19.098  0.1959 -0.1154 -0.0562
90225W        W33163  19.270  13.965  16.670  0.0459 -0.1565 -0.3044
90226W        W33164  22.123  16.767  19.633  0.1714  0.2428  0.1911
90227W        W33165  18.924  13.517  19.126  0.0929  0.1561 -0.1139
90228W        W33166  18.298  14.522  18.335  0.2403 -0.1929  0.1742
90229W        W33167  20.609  16.965  18.666  0.4336  0.0370  0.1415
90230W        W33168  20.316  17.861  17.984 -0.2884  0.0915 -0.0180
90231W        W33169  21.061  14.690  18.562 -0.6350  0.2523  0.2499
90232W        W33170  23.273  18.430  21.346 -0.0965  0.1530 -0.1189
90233W        W33171  18.318  17.020  17.270  0.0689 -0.0793  0.1739
90234W        W33172  20.648  15.080  19.029  0.2649 -0.0307 -0.5453
90235W        W33173  19.926  14.038  19.580  0.4945 -0.0455  0.1783
90236W        W33174  17.582  14.385  16.943  0.1960 -0.2263  0.2714
90237W        W33175  21.541  16.003  18.674  0.1922 -0.1075  0.0329
90238W        W33176  20.148  16.811  18.572  0.0594 -0.0205 -0.0542
90239W        W33177  22.826  17.993  19.029 -0.1670  0.0940  0.3958
90240W        W33178  20.794  17.991  19.294  0.0126 -0.1996 -0.0508
90241W        W33179  19.402  13.530  20.022 -0.0329  0.0190 -0.0271
90242W        W33180  21.269  16.502  19.488  0.0277 -0.1761  0.0966
90243W        W33181  20.489  16.470  20.035  0.0943 -0.0822  0.0925
90244W        W33182  22.593  16.699  19.453  0.3921  0.0321 -0.1764
90245W        W33183  22.864  14.145  20.244  0.0335  0.1404  0.1893
90246W        W33184  22.707  15.171  18.750  0.1491 -0.4528  0.2082
90247W        W33185  18.633  13.886  19.271 -0.0939 -0.1558 -0.2054
90248W        W33186  18.417  16.314  19.405  0.0390  0.0744  0.1909
90249W        W33187  21.700  15.541  19.505 -0.0370 -0.1602 -0.4012
90250W        W33188  19.040  13.017  16.469  0.0587 -0.1396 -0.0171
90251W        W33189  22.047  15.150  19.406  0.2516 -0.0900  0.1583
90252W        W33190  20.348  17.837  16.840 -0.0073 -0.0549 -0.1528
90253W        W33191  19.643  15.115  17.520 -0.0090 -0.0585  0.2551
90254W        W33192  20.358  16.909  17.943  0.2046  0.1767 -0.3237
90255W        W33193  21.446  16.034  19.786  0.2618 -0.0112  0.0129
90256W        W33194  21.632  17.784  19.883 -0.2450 -0.0215  0.1973
90257W        W33195  21.974  16.398  20.589 -0.2784  0.2384  0.0213
90258W        W33196  18.610  14.633  16.013 -0.1412 -0.1237 -0.1411
90259W        W33197  22.446  16.317  19.921 -0.0760  0.0264  0.0661
90260W        W33198  21.768  19.297  20.233  0.0580  0.0453  0.2991
90261W        W33199  22.999  19.094  21.880 -0.1522 -0.0382  0.2257
90262W        W33200  21.192  17.801  20.318 -0.2187  0.2062  0.0867
90263W        W33201  22.144  17.311  20.048 -0.1307 -0.0179  0.2202
90264W        W33202  18.819  15.274  18.195  0.7328 -0.2307 -0.1420
90265W        W33203  19.139  15.259  17.072  0.0699 -0.3483  0.2066
90266W        W33204  19.629  17.342  17.370  0.1128 -0.2616  0.0142
90267W        W33205  22.532  13.867  19.419  0.0922  0.4224  0.1184
90268W        W33206  18.392  14.596  18.875 -0.0979 -0.0334 -0.0786
90269W        W33207  22.354  12.869  21.014 -0.2796  0.0879 -0.1091
90270W        W33208  19.727  18.316  19.133  0.2691 -0.3781  0.1440
90271W        W33209  20.408  15.980  18.587  0.0495 -0.3268  0.0527
90272W        W33210  18.959  17.266  22.836 -0.0287 -0.0210  0.0713
90273W        W33211  23.473  13.902  21.541  0.4737 -0.3873 -0.0617
90274W        W33212  18.168  15.884  19.701 -0.0876  0.1085 -0.2072
90275W        W33213  21.831  18.036  21.959  0.1332  0.0920 -0.1221
90276W        W33214  21.319  17.063  23.638  0.1151 -0.0510  0.0595
90277W        W33215  22.125  18.019  26.082  0.0283  0.2973  0.1274
90278W        W33216  21.442  16.474  20.083 -0.0591 -0.0938  0.1160
90279W        W33217  19.648  17.937  22.920  0.0328  0.2338  0.2475
90280W        W33218  21.713  16.628  22.978  0.0317  0.0935 -0.0547
90281W        W33219  20.790  15.100  20.398  0.2401  0.4282  0.0961
90282W        W33220  19.992  15.314  22.175  0.0871  0.0573  0.4317
90283W        W33221  20.549  14.276  24.099  0.0951  0.0540  0.0534
90284W        W33222  18.653  16.933  19.320  0.1736 -0.0582 -0.0604
90285W        W33223  17.720  16.791  20.871 -0.1923 -0.1614 -0.0713
90286W        W33224  19.265  16.755  22.235 -0.1897  0.1389 -0.1376
90287W        W33225  23.837  15.681  24.237 -0.0863  0.0205 -0.2381
90288W        W33226  21.865  14.868  23.768 -0.2364  0.1099  0.4359
90289W        W33227  21.056  15.801  25.812 -0.2385  0.2317 -0.0227
90290W        W33228  19.093  17.347  20.998 -0.3796  0.0114  0.3620
90291W        W33229  22.855  17.457  22.403 -0.1411 -0.1617 -0.0082
90292W        W33230  21.257  18.414  25.902  0.2129  0.4981  0.0068
90293W        W33231  18.575  18.450  24.773  0.3677 -0.0636  0.0759
90294W        W33232  17.404  17.165  20.623  0.3008  0.4760  0.1279
90295W        W33233  21.461  16.195  22.206 -0.0521 -0.0612  0.4128
90296W        W33234  18.936  17.238  19.918  0.0900  0.0148 -0.0563
90297W        W33235  19.930  17.154  21.902  0.3310  0.1514  0.0232
90298W        W33236  21.680  14.617  26.106  0.1085 -0.1505 -0.0219
90299W        W33237  18.296  17.869  20.818 -0.1889  0.0535 -0.0245
90300W        W33238  22.263  14.860  22.124 -0.0150  0.0434 -0.0037
90301W        W33239  20.650  14.425  18.656  0.1158 -0.0885 -0.1994
90302W        W33240  22.501  14.769  22.649 -0.0672  0.2339  0.0568
90303W        W33241  19.515  13.718  21.536 -0.0197 -0.1411 -0.0581
90304W        W33242  19.605  18.576  21.896 -0.1649  0.2075 -0.1360
90305W        W33243  19.050  15.543  23.009  0.0509 -0.4292  0.2007
90306W        W33244  22.948  18.757  23.079 -0.2083  0.0508  0.2387
90307W        W33245  20.048  16.317  19.837 -0.2448  0.2653  0.1170
90308W        W33246  18.568  17.307  22.475  0.3001 -0.2304 -0.0572
90309W        W33247  18.490  16.384  21.831 -0.0753 -0.0875  0.3271
90310W        W33248  22.997  16.484  21.481 -0.1557 -0.1228  0.2609
90311W        W33249  21.852  17.136  22.667  0.0476  0.1821  0.0458
90312W        W33250  18.008  15.225  22.214  0.0857  0.1186  0.2452
90313W        W33251  19.866  13.530  19.432 -0.2895 -0.0147  0.2160
90314W        W33252  22.103  16.732  26.443 -0.1609 -0.0743 -0.0328
90315W        W33253  18.236  17.993  22.973  0.0641 -0.2229  0.0042
90316W        W33254  22.903  15.137  22.438  0.0488  0.0526 -0.0995
90317W        W33255  19.768  16.718  22.271  0.0038  0.0162 -0.3584
90318W        W33256  21.404  17.360  24.804 -0.0839 -0.0474  0.1547
90319W        W33257  22.313  16.126  20.829  0.0559 -0.3460  0.0838
90320W        W33258  21.236  14.933  23.187  0.1073 -0.1965 -0.1409
90321W        W33259  21.160  14.981  23.837 -0.3429  0.2564 -0.1078
90322W        W33260  19.894  16.715  19.594 -0.1437 -0.0211 -0.0111
90323W        W33261  23.310  17.217  25.267  0.0476  0.1643 -0.0340
90324W        W33262  22.423  16.166  22.222  0.2329 -0.2927  0.0146
90325W        W33263  19.315  18.106  22.013 -0.0196 -0.1250  0.1302
90326W        W33264  18.291  18.577  19.220  0.2089 -0.1542  0.0846
90327W        W33265  17.773  16.809  21.389 -0.0139 -0.0533  0.0516
90328W        W33266  18.261  16.929  20.750 -0.0239 -0.0238  0.1023
90329W        W33267  18.054  13.976  22.197  0.2440 -0.0859  0.2347
90330W        W33268  20.357  17.393  21.944 -0.0459  0.0247  0.0956
90331W        W33269  23.163  15.252  23.175 -0.3204  0.0974  0.1271
90332W        W33270  21.194  14.124  22.813 -0.2620  0.1308  0.3238
90333W        W33271  22.708  18.268  23.011  0.0886  0.0797 -0.4456
90334W        W33272  23.156  14.528  22.085  0.1800  0.0995 -0.0738
90335W        W33273  22.052  17.823  20.185 -0.0359  0.0451 -0.0973
90336W        W33274  18.815  14.591  23.336 -0.3776  0.1059  0.0492
90337W        W33275  18.530  14.552  20.993 -0.1277  0.0124 -0.2817
90338W        W33276  21.906  16.786  23.497  0.0102 -0.1189  0.0237
90339W        W33277  18.438  13.077  20.156 -0.0747  0.0048  0.0389
90340W        W33278  21.719  15.012  23.034  0.1074 -0.1222 -0.1133
90341W        W33279  20.722  15.969  19.685  0.2000 -0.2042 -0.0925
90342W        W33280  20.512  15.144  24.664  0.1502  0.2682 -0.0952
90343W        W33281  21.898  17.588  21.486 -0.1218 -0.1849  0.0818
90344W        W33282  23.586  17.186  23.730 -0.0452 -0.0780  0.1934
90345W        W33283  22.301  17.047  23.619 -0.2103 -0.1245 -0.0185
90346W        W33284  19.154  13.913  23.479 -0.1178 -0.3267 -0.0177
90347W        W33285  20.041  14.736  20.653  0.1626 -0.0728  0.2113
90348W        W33286  18.338  19.397  20.955  0.1120  0.2036  0.1150
90349W        W33287  21.502  16.405  24.650 -0.0444 -0.1915 -0.3371
90350W        W33288  17.869  17.369  22.182 -0.3197  0.0818  0.2583
90351W        W33289  20.315  14.556  27.027 -0.1511  0.0418  0.2060
90352W        W33290  21.645  15.766  24.052  0.0058 -0.0085 -0.0088
90353W        W33291  17.676  13.490  19.851  0.2027  0.4071 -0.1250
90354W        W33292  17.535  18.283  20.683 -0.0524 -0.0565 -0.1447
90355W        W33293  20.869  18.223  21.626 -0.2270 -0.3086  0.4664
90356W        W33294  22.112  12.822  22.644  0.0480  0.1246  0.0777
90357W        W33295  21.356  16.616  24.109 -0.3765 -0.1235  0.0402
90358W        W33296  19.140  17.877  22.826  0.2047  0.1560  0.1085
90359W        W33297  21.894  14.728  24.278  0.1972  0.0985  0.1485
90360W        W33298  22.828  15.641  23.472  0.2622  0.3687  0.3272
90361W        W33299  22.806  14.336  22.988 -0.0203 -0.1315  0.4151
90362W        W33300  21.783  13.649  21.665 -0.2675  0.1072 -0.2432
90363W        W33301  19.429  17.251  21.962  0.0916  0.0166 -0.2599
90364W        W33302  21.937  14.503  21.785  0.1761  0.0584 -0.2660
90365W        W33303  24.465  17.326  22.420 -0.3863 -0.0862  0.0090
90366W        W33304  18.333  17.604  22.150 -0.0218  0.0661 -0.2753
90367W        W33305  22.222  17.417  21.829  0.0122  0.0070 -0.1125
90368W        W33306  21.717  14.889  22.052  0.1215  0.3313 -0.0218
90369W        W33307  18.217  17.465  19.374  0.1008  0.2133  0.1616
90370W        W33308  23.783  15.443  24.764 -0.1695 -0.2619 -0.1069
90371W        W33309  19.750  15.719  22.151 -0.2648 -0.0926 -0.2214
90372W        W33310  21.295  13.780  27.042  0.1246  0.0866 -0.0656
90373W        W33311  21.154  15.834  22.747  0.0359  0.0628 -0.0339
90374W        W33312  20.479  14.535  22.927 -0.0719  0.2451 -0.2047
90375W        W33313  19.158  18.479  23.287 -0.3160 -0.2587  0.1082
90376W        W33314  21.408  16.945  24.512  0.1934  0.0555  0.1713
90377W        W33315  19.795  15.389  24.260 -0.0556 -0.2116  0.2818
90378W        W33316  20.414  14.984  20.891  0.1864 -0.0444 -0.0460
90379W        W33317  20.033  19.132  19.020 -0.0414  0.5002 -0.0253
90380W        W33318  21.258  13.991  21.988  0.0375  0.2414 -0.0919
90381W        W33319  19.282  17.541  19.660 -0.2607 -0.2626 -0.0228
90382W        W33320  21.980  14.529  23.358  0.0587 -0.1722  0.1325
90383W        W33321  18.507  18.235  21.098  0.3163  0.4636  0.2332
90384W        W33322  20.769  14.222  23.152 -0.1261  0.3106  0.0808
90385W        W33323  22.098  16.052  21.830  0.0364  0.1538  0.2974
90386W        W33324  19.885  18.577  22.414  0.3117 -0.0140 -0.2963
90387W        W33325  22.837  15.018  22.892 -0.2570  0.1100 -0.0409
90388W        W33326  22.175  15.419  25.382 -0.0544  0.1539 -0.1298
90389W        W33327  22.106  18.184  23.386  0.0763  0.1169 -0.2948
90390W        W33328  20.249  15.780  19.567  0.1360  0.0481  0.1046
90391W        W33329  21.289  15.655  23.239  0.3908  0.2422  0.1181
90392W        W33330  20.323  15.771  21.803  0.2740  0.1278 -0.0403
90393W        W33331  20.472  15.895  20.077 -0.2406  0.2274  0.1433
90394W        W33332  20.174  16.139  21.482  0.3506  0.0591  0.5610
90395W        W33333  19.890  17.351  23.360  0.0484 -0.2317  0.1251
90396W        W33334  20.203  14.666  21.279  0.1561  0.0491  0.2863
90397W        W33335  22.122  16.413  21.493 -0.0921 -0.1594  0.1945
90398W        W33336  21.566  15.915  24.688  0.1609  0.0476  0.1322
90399W        W33337  18.664  16.985  21.675  0.2924 -0.0056  0.0325
90400W        W33338  19.730  16.622  20.307 -0.1742  0.3082 -0.2505
90401W        W33339  18.556  18.386  19.570  0.1542  0.2678 -0.2651
90402W        W33340  19.018  18.162  22.400 -0.0708 -0.1239  0.0066
90403W        W33341  23.027  15.572  24.460  0.2610 -0.1271 -0.3156
90404W        W33342  21.703  16.078  20.272 -0.2750  0.1968  0.2523
90405W        W33343  22.452  16.932  21.866 -0.0008  0.0985 -0.1555
90406W        W33344  20.918  13.737  25.388 -0.2266  0.3882 -0.1468
90407W        W33345  19.331  13.403  23.480  0.0464  0.1836 -0.0657
90408W        W33346  17.726  15.449  22.634 -0.0481  0.2314 -0.0899
90409W        W33347  21.071  18.485  25.246  0.0998 -0.2904  0.0120
90410W        W33348  19.822  16.424  21.362 -0.0595 -0.4370  0.2282
90411W        W33349  19.712  17.477  20.042 -0.1076  0.0354 -0.2195
90412W        W33350  21.368  16.209  23.179  0.2628 -0.0073 -0.2111
90413W        W33351  19.395  16.733  21.792 -0.0837  0.0570 -0.0115
90414W        W33352  21.565  16.199  22.728  0.1721 -0.0787 -0.2340
90415W        W33353  19.814  16.878  21.569 -0.1013 -0.1628  0.0222
90416W        W33354  21.335  15.788  25.173 -0.1216  0.0680 -0.1187
90417W        W33355  21.981  15.351  23.934  0.1649  0.1846  0.2161
90418W        W33356  18.632  14.414  24.335  0.0258 -0.2315 -0.0862
90419W        W33357  22.148  17.664  25.114  0.0547 -0.0183  0.1463
90420W        W33358  23.157  15.945  21.940  0.0010 -0.3452 -0.1517
90421W        W33359  20.542  15.914  24.136 -0.0015  0.3320 -0.1889
90422W        W33360  22.479  15.387  23.850  0.1363 -0.0141 -0.2214
90423W        W33361  22.210  14.056  22.658  0.1747 -0.0813  0.2619
90424W        W33362  21.620  14.915  24.637 -0.0137  0.0012  0.3660
90425W        W33363  18.177  14.115  19.058  0.1593  0.2424 -0.0114
90426W        W33364  20.540  15.951  25.678  0.1241 -0.1108 -0.3264
90427W        W33365  20.534  17.858  21.419 -0.0780  0.3041  0.0140
90428W        W33366  22.686  15.740  22.107 -0.1635 -0.1882  0.2754
90429W        W33367  17.319  16.019  22.106  0.0644  0.3060  0.0680
90430W        W33368  18.363  15.241  19.983 -0.0052  0.0681  0.1129
90431W        W33369  20.228  15.901  20.561 -0.1343  0.0506  0.1359
90432W        W33370  20.091  18.090  22.611 -0.0533  0.0197 -0.2329
90433W        W33371  21.977  16.300  24.677  0.0955  0.1923 -0.0995
90434W        W33372  20.531  14.514  20.893 -0.0579  0.0522 -0.0537
90435W        W33373  20.875  14.619  23.974 -0.2597  0.1468 -0.2242
90436W        W33374  19.462  17.722  21.697  0.1752 -0.0330  0.2066
90437W        W33375  21.693  14.027  22.664  0.5365 -0.0467 -0.3343
90438W        W33376  19.220  19.013  23.589 -0.1675  0.1874  0.0861
90439W        W33377  17.586  16.837  21.823 -0.0374 -0.1525 -0.2398
90440W        W33378  19.121  17.669  22.207 -0.2806 -0.0225 -0.0227
90441W        W33379  21.489  16.138  23.668  0.2434  0.0677  0.4103
90442W        W33380  22.030  15.998  23.770 -0.1594  0.0325  0.1712
90443W        W33381  22.099  17.718  24.393 -0.0510 -0.1785 -0.0167
90444W        W33382  22.481  15.381  26.032 -0.3366  0.0709  0.2967
90445W        W33383  23.154  17.442  21.600  0.4254  0.0993  0.2480
90446W        W33384  19.846  16.430  21.834 -0.0330  0.1407  0.4057
90447W        W33385  17.811  16.356  21.747 -0.0231 -0.3373  0.0060
90448W        W33386  20.692  16.393  24.227 -0.2040 -0.0231  0.2042
90449W        W33387  21.051  16.424  23.789  0.1867  0.2293  0.0429
90450W        W33388  20.473  14.982  19.792  0.2067  0.2852 -0.2070
90451W        W33389  18.697  19.934  25.037 -0.0038  0.1968 -0.1772
90452W        W33390  22.930  15.689  22.550 -0.0541 -0.0249  0.0805
90453W        W33391  21.749  17.356  24.404 -0.0418 -0.0324 -0.0829
90454W        W33392  21.975  15.732  20.863 -0.3781 -0.0594  0.0702
90455W        W33393  19.000  18.056  20.404 -0.1554  0.2275 -0.1318
90456W        W33394  22.518  16.188  21.311 -0.1195  0.0591  0.0637
90457W        W33395  20.803  16.202  26.007 -0.1899  0.2574  0.1649
90458W        W33396  22.753  14.890  21.516 -0.0350  0.2462 -0.2208
90459W        W33397  21.505  14.669  23.503  0.1627  0.0092  0.2499
90460W        W33398  22.138  16.271  22.877  0.0371 -0.0946  0.0191
90461W        W33399  21.457  13.794  19.905 -0.1246  0.2078 -0.0632
90462W        W33400  20.216  15.211  25.044 -0.1422  0.0396  0.0652
90463W        W33401  19.412  17.933  24.077 -0.0596  0.1251 -0.0633
90464W        W33402  23.026  17.907  23.090  0.3891 -0.1503  0.2614
90465W        W33403  18.216  15.243  20.418 -0.2502 -0.0275 -0.2327
90466W        W33404  21.406  14.563  24.091  0.0655  0.1243  0.1391
90467W        W33405  19.478  17.940  20.500 -0.0219 -0.0314 -0.0481
90468W        W33406  21.531  14.441  23.038  0.1680  0.0715  0.0777
90469W        W33407  20.277  18.164  21.745 -0.0588  0.3120 -0.0862
90470W        W33408  19.923  18.094  22.111 -0.0374 -0.0722 -0.2940
90471W        W33409  21.618  15.815  22.460  0.1123  0.0313 -0.3306
90472W        W33410  20.288  14.973  21.969 -0.4046 -0.1026 -0.2272
90473W        W33411  22.114  14.475  23.863  0.2884 -0.0815 -0.0217
90474W        W33412  22.704  15.120  23.405  0.0866  0.1227 -0.2445
90475W        W33413  20.229  17.497  22.434  0.2150  0.2277 -0.1067
90476W        W33414  21.706  16.959  23.964 -0.0736  0.1438  0.2946
90477W        W33415  22.322  14.937  21.054  0.2875 -0.1631  0.2275
90478W        W33416  21.308  17.186  24.109  0.4020  0.1772  0.1720
90479W        W33417  18.391  15.099  20.848 -0.0454 -0.0241 -0.1222
90480W        W33418  21.660  14.352  20.801 -0.0948  0.3128 -0.2261
90481W        W33419  19.110  16.379  21.938 -0.2610  0.4070 -0.1653
90482W        W33420  21.837  18.164  24.009  0.0563  0.1616 -0.0170
90483W        W33421  18.491  14.774  20.382 -0.2233  0.0500 -0.0090
90484W        W33422  22.467  16.996  20.944 -0.2523 -0.2222  0.1980
90485W        W33423  22.690  15.308  25.437  0.0352 -0.1161 -0.1487
90486W        W33424  21.897  17.522  22.327  0.1976 -0.1802 -0.1993
90487W        W33425  22.652  17.553  22.978  0.1532 -0.1989  0.2540
90488W        W33426  18.375  14.340  20.576  0.1373 -0.0597  0.0666
90489W        W33427  21.228  17.556  23.695 -0.2038 -0.0027  0.1309
90490W        W33428  21.841  17.311  23.559  0.1241  0.0770  0.0066
90491W        W33429  17.058  17.987  20.727 -0.2746  0.0531 -0.0531
90492W        W33430  22.530  16.109  23.377 -0.1826 -0.1433 -0.6411
90493W        W33431  21.174  16.090  24.196 -0.0522  0.1858 -0.3137
90494W        W33432  22.266  18.911  20.385  0.0380  0.0284 -0.2754
90495W        W33433  20.683  15.123  25.259 -0.0955  0.1204  0.1032
90496W        W33434  20.472  17.673  23.163  0.0709 -0.3096 -0.0392
90497W        W33435  20.376  16.624  25.074 -0.0303  0.1102 -0.2503
90498W        W33436  20.907  16.242  20.140 -0.2247 -0.1367 -0.0805
90499W        W33437  19.869  17.085  22.888 -0.2818 -0.2625  0.0753
90500W        W33438  19.243  18.075  19.960 -0.3047  0.0787  0.4872
90501W        W33439  20.335  18.341  22.228  0.2061  0.2576 -0.0996
90502W        W33440  22.616  17.933  23.427 -0.0469  0.0302  0.2043
90503W        W33441  20.879  15.953  23.754  0.0671  0.1751  0.1165
90504W        W33442  23.943  14.399  23.888  0.3823 -0.1964 -0.0671
90505W        W33443  23.040  14.715  23.353 -0.2629  0.0365  0.0794
90506W        W33444  19.792  15.934  21.723 -0.0692  0.0171  0.1161
90507W        W33445  17.673  16.484  20.473 -0.1537  0.2913  0.2827
90508W        W33446  18.266  16.928  20.208 -0.1997 -0.2212 -0.1590
90509W        W33447  19.003  17.176  22.302 -0.2135 -0.1339 -0.1313
90510W        W33448  18.975  13.435  25.302  0.0888  0.3316  0.1439
90511W        W33449  22.647  18.053  22.564 -0.2409  0.1938 -0.0465
90512W        W33450  18.753  16.019  22.081 -0.1428  0.1675  0.3510
90513W        W33451  21.596  17.270  21.835 -0.0024  0.1792 -0.1589
90514W        W33452  23.564  17.661  23.804  0.4001  0.1530  0.1311
90515W        W33453  23.140  18.748  24.139 -0.1703 -0.0288  0.3511
90516W        W33454  18.156  16.953  19.410  0.2068  0.1160 -0.1601
90517W        W33455  21.458  16.628  23.427  0.0633 -0.1769 -0.2455
90518W        W33456  19.530  16.284  22.190  0.1319 -0.2271  0.4173
90519W        W33457  19.193  14.488  19.232 -0.2135 -0.0665 -0.2362
90520W        W33458  22.280  18.423  22.645  0.3738  0.0255 -0.1045
90521W        W33459  22.118  17.811  20.705  0.1470 -0.1211  0.1447
90522W        W33460  19.479  17.395  23.039 -0.0675  0.0834 -0.0716
90523W        W33461  20.270  17.718  24.077  0.1047  0.0632  0.0112
90524W        W33462  22.530  18.725  20.001  0.0474 -0.1303 -0.5127
90525W        W33463  22.736  14.714  23.856 -0.0414  0.4737  0.1560
90526W        W33464  22.483  17.516  23.664  0.2242 -0.0814  0.0590
90527W        W33465  19.480  14.134  21.229 -0.0665 -0.3159 -0.0467
90528W        W33466  22.149  15.253  23.455  0.0967  0.1102  0.0814
90529W        W33467  22.316  18.214  19.992  0.2521 -0.2059 -0.1026
90530W        W33468  19.435  16.234  21.651 -0.0437  0.1258  0.3345
90531W        W33469  22.391  15.323  22.517 -0.3992  0.3420  0.2879
90532W        W33470  21.482  15.419  24.828 -0.1980  0.0189 -0.0807
90533W        W33471  19.843  16.117  20.314 -0.1475  0.2774 -0.1178
90534W        W33472  22.113  17.136  23.126  0.1627  0.0843  0.0876
90535W        W33473  21.355  16.937  25.073  0.1012  0.1180  0.3569
90536W        W33474  21.728  15.674  23.519 -0.0215  0.2632 -0.2943
90537W        W33475  21.038  16.772  19.947 -0.2111  0.1762 -0.0257
90538W        W33476  20.323  16.635  21.729  0.2074 -0.1797 -0.1628
90539W        W33477  21.671  15.809  23.013  0.0139  0.0010  0.2753
90540W        W33478  21.745  15.307  22.332 -0.0066  0.1416 -0.0441
90541W        W33479  19.458  18.835  22.827 -0.1697  0.0777  0.0032
90542W        W33480  18.790  16.578  27.123 -0.1447 -0.0272 -0.0158
90543W        W33481  20.841  15.756  26.231 -0.1269  0.1615 -0.1741
90544W        W33482  22.425  14.894  25.704 -0.1330 -0.1993 -0.0056
90545W        W33483  20.224  16.906  25.490 -0.0405  0.1843  0.1589
90546W        W33484  19.199  14.771  27.660 -0.0335  0.0144 -0.2603
90547W        W33485  20.234  16.102  28.225 -0.2012 -0.1141 -0.0293
90548W        W33486  20.553  17.204  26.905  0.1476 -0.0799  0.3048
90549W        W33487  20.194  16.392  25.528  0.0564  0.2006 -0.0006
90550W        W33488  18.895  17.157  27.875  0.2901  0.0515 -0.1884
90551W        W33489  19.277  14.875  25.498 -0.1677  0.1542  0.1946
90552W        W33490  18.101  15.973  26.735 -0.3247 -0.0984  0.0945
90553W        W33491  19.928  15.025  27.613  0.0009 -0.0038 -0.1714
90554W        W33492  19.755  15.854  30.131 -0.3055 -0.1705 -0.1412
90555W        W33493  20.483  17.716  26.366  0.3727  0.0160 -0.0268
90556W        W33494  19.839  14.963  29.676  0.0216 -0.0307  0.0194
90557W        W33495  20.524  15.050   0.364 -0.2248  0.1250 -0.0636
90558W        W33496  18.020  16.694  23.228  0.0313 -0.0011  0.0298
90559W        W33497  17.163  16.979  26.907  0.0931 -0.0480 -0.1300
90560W        W33498  18.677  15.153  28.234 -0.1364 -0.1318 -0.1231
90561W        W33499  19.904  14.839  26.761 -0.0033  0.2615 -0.1812
90562W        W33500  20.002  15.419  28.240  0.0682  0.1495 -0.0099
90563W        W33501  19.621  16.111  25.986 -0.0536  0.0155 -0.3330
90564W        W33502  19.056  18.057  28.532 -0.0131  0.1415  0.0813
90565W        W33503  20.508  14.442  29.882 -0.0756 -0.0041  0.1549
90566W        W33504  18.981  16.759  24.998 -0.0963 -0.4317 -0.0482
90567W        W33505  18.761  18.689  26.142  0.1447  0.0435 -0.2898
90568W        W33506  20.721  17.601  27.275 -0.2816 -0.2446 -0.1331
90569W        W33507  20.101  16.703  26.437  0.2653 -0.2185 -0.0818
90570W        W33508  20.199  17.496  29.459  0.3462  0.0156 -0.0749
90571W        W33509  19.250  18.517  28.804 -0.3018  0.1722  0.3061
90572W        W33510  19.923  17.927  28.963  0.0019 -0.1780 -0.2846
90573W        W33511  19.790  17.428  26.936 -0.1357 -0.2113 -0.3042
90574W        W33512  19.218  15.032  27.206  0.0251  0.4395 -0.4107
90575W        W33513  20.497  17.758  24.939  0.2156 -0.0858 -0.2283
90576W        W33514  22.336  16.721  24.894  0.3657  0.1408 -0.0588
90577W        W33515  21.116  16.530  26.785 -0.0123 -0.0680  0.2879
90578W        W33516  19.384  16.446  28.355 -0.0549  0.0806 -0.1689
90579W        W33517  20.977  15.477  31.299  0.0777  0.2482  0.0834
90580W        W33518  20.656  17.647  24.437 -0.0759 -0.1422  0.2920
90581W        W33519  20.558  15.461  25.608 -0.0346  0.1719  0.0209
90582W        W33520  18.809  15.843  22.566  0.0809  0.1008  0.0303
90583W        W33521  18.905  15.031  29.451 -0.0993  0.1396  0.4709
90584W        W33522  17.388  19.365  27.091  0.1003  0.2636  0.0187
90585W        W33523  18.593  15.097  26.632 -0.1477  0.1119 -0.3515
90586W        W33524  19.810  15.941  28.379 -0.1263  0.1848 -0.2663
90587W        W33525  20.841  16.880  28.989 -0.0149  0.0175 -0.1453
90588W        W33526  17.605  18.120  26.144  0.0916  0.3728  0.0580
90589W        W33527  18.047  16.192  24.889  0.0109 -0.1840 -0.1979
90590W        W33528  23.451  18.483  28.099  0.0949 -0.0166 -0.2120
90591W        W33529  20.846  17.535  27.798 -0.1547 -0.1907  0.3931
90592W        W33530  21.167  17.822  24.204  0.0343 -0.1056 -0.1323
90593W        W33531  18.558  16.733  27.822  0.2784  0.1245 -0.3815
90594W        W33532  17.897  16.379  26.917 -0.1222 -0.0685  0.0531
90595W        W33533  21.151  16.892  30.198 -0.2611  0.1427  0.1613
90596W        W33534  16.734  17.625  27.742 -0.3191  0.1125 -0.2658
90597W        W33535  21.938  15.743  27.623 -0.3087  0.1156 -0.1223
90598W        W33536  18.780  16.491  25.479  0.1608  0.0145 -0.1887
90599W        W33537  20.742  17.255  28.665  0.2526 -0.0681  0.1234
90600W        W33538  20.815  16.090  29.142  0.2308 -0.2076  0.0064
90601W        W33539  18.852  16.388  28.466 -0.1467  0.0823 -0.1330
90602W        W33540  21.321  17.162  27.509 -0.0052 -0.0736 -0.0389
90603W        W33541  21.809  16.324  25.873 -0.1588  0.3343  0.2836
90604W        W33542  20.235  15.524  31.161  0.0634 -0.0457  0.1097
90605W        W33543  20.258  17.003  28.757  0.3075 -0.0903  0.2074
90606W        W33544  18.359  16.750  25.405  0.2490  0.0619 -0.3383
90607W        W33545  18.233  14.026  28.425 -0.1494 -0.1208  0.0868
90608W        W33546  19.652  16.432  26.435  0.0921  0.1412 -0.0557
90609W        W33547  20.235  15.159  26.976  0.5300  0.0408  0.1950
90610W        W33548  16.841  13.690  28.691  0.0060  0.1824 -0.1756
90611W        W33549  21.259  15.706  28.411 -0.0930  0.0405  0.1702
90612W        W33550  21.922  17.786  25.523 -0.4090 -0.3536  0.2445
90613W        W33551  21.419  14.681  27.281 -0.0089 -0.1796  0.1555
90614W        W33552  21.574  15.993  26.715  0.0006  0.1008 -0.1538
90615W        W33553  19.298  14.272  27.663 -0.0181  0.2336 -0.2102
90616W        W33554  18.911  14.272  26.617  0.0132  0.0425  0.1617
90617W        W33555  20.318  12.981  29.754 -0.1813  0.0927 -0.2273
90618W        W33556  17.703  14.481  29.350  0.1272 -0.0439  0.1242
90619W        W33557  21.401  16.130  30.733  0.2370 -0.1789  0.0289
90620W        W33558  20.058  16.321  26.771  0.0540  0.1020  0.1678
90621W        W33559  19.437  15.318  25.376 -0.0349 -0.1888 -0.1806
90622W        W33560  18.998  17.171  24.658 -0.0384 -0.2884 -0.2032
90623W        W33561  21.158  13.820  31.295  0.4041  0.0201  0.4211
90624W        W33562  20.098  17.353  27.284  0.0436 -0.0015  0.1487
90625W        W33563  21.005  18.197  29.280  0.0900 -0.1903  0.0636
90626W        W33564  20.800  18.495  25.977  0.0050  0.1318 -0.0030
90627W        W33565  18.501  16.560  29.769 -0.0853  0.0937  0.0758
90628W        W33566  18.746  14.951  27.736  0.0649 -0.0022 -0.0184
90629W        W33567  19.051  16.981  25.423  0.1029 -0.2679  0.0904
90630W        W33568  20.505  16.108  26.893  0.0522 -0.0284  0.2855
90631W        W33569  20.988  17.142  26.648 -0.0284  0.0525  0.2471
90632W        W33570  20.889  16.784  24.972  0.2351 -0.1239 -0.1411
90633W        W33571  17.848  18.112  26.944 -0.2202  0.1225 -0.1087
90634W        W33572  21.079  15.849  30.228  0.2838 -0.3323 -0.4360
90635W        W33573  21.520  16.765  28.938  0.3066 -0.3950 -0.4489
90636W        W33574  21.834  15.237  29.345 -0.0952  0.4280 -0.1812
90637W        W33575  19.766  13.958  25.051 -0.0570 -0.1108  0.3757
90638W        W33576  20.723  17.083  25.402  0.2782  0.3146  0.0875
90639W        W33577  16.837  17.506  26.297  0.3289 -0.0134  0.0109
90640W        W33578  19.924  17.910  27.242  0.0758  0.3188 -0.0573
90641W        W33579  20.515  13.407  28.236 -0.2699 -0.1779 -0.0999
90642W        W33580  17.874  16.196  28.356 -0.2733 -0.1404  0.1777
90643W        W33581  19.105  15.792  26.736  0.3054 -0.1162  0.1583
90644W        W33582  17.951  17.366  28.778  0.0805  0.2882 -0.0602
90645W        W33583  19.491  14.393  26.796  0.2203  0.0449 -0.0428
90646W        W33584  21.960  14.877  27.462  0.1324  0.1449  0.2907
90647W        W33585  19.653  17.855  29.593 -0.1459  0.3155 -0.1945
90648W        W33586  20.516  16.169  25.154 -0.1613  0.3588 -0.1919
90649W        W33587  20.371  15.786  27.346  0.1685  0.0784  0.0635
90650W        W33588  21.245  14.968  26.891  0.1020  0.1286 -0.0955
90651W        W33589  18.746  17.790  27.223  0.0865  0.1321  0.0602
90652W        W33590  20.655  16.363  24.729  0.0190 -0.3078 -0.0000
90653W        W33591  20.166  16.630  27.715  0.1336 -0.1066  0.0109
90654W        W33592  21.008  14.834  25.613  0.2372  0.1801 -0.4624
90655W        W33593  20.546  17.192  26.267  0.1647 -0.2391 -0.1192
90656W        W33594  18.961  16.961  25.945  0.0283 -0.1141 -0.1413
90657W        W33595  19.208  16.699  26.683 -0.1040  0.0667 -0.1153
90658W        W33596  20.817  16.843  27.096  0.1321 -0.0996 -0.0443
90659W        W33597  18.854  14.710  28.158  0.1810 -0.3499  0.5164
90660W        W33598  19.178  15.043  28.413  0.0018 -0.1259  0.4355
90661W        W33599  18.504  18.924  24.556 -0.2669 -0.1285 -0.2865
90662W        W33600  20.943  16.313  31.019 -0.0082 -0.2378  0.1486
90663W        W33601  18.560  14.732  28.645  0.0576  0.1725 -0.0455
90664W        W33602  18.523  15.905  28.475 -0.2147 -0.2874  0.2602
90665W        W33603  20.523  16.211  29.545 -0.1238 -0.0460 -0.0547
90666W        W33604  21.001  15.306  24.849  0.1488  0.2302 -0.0635
90667W        W33605  19.404  16.981  26.354 -0.2897 -0.3572 -0.2324
90668W        W33606  18.564  15.747  23.084 -0.0460 -0.5952  0.1916
90669W        W33607  19.426  14.929  28.823 -0.2162 -0.2813  0.0142
90670W        W33608  18.085  16.112  27.313 -0.1317  0.3996  0.0323
90671W        W33609  19.092  16.828  27.419 -0.2018  0.0190 -0.1363
90672W        W33610  18.943  17.340  29.245  0.1078  0.2501  0.1109
90673W        W33611  20.947  15.442  24.065  0.1108 -0.0846 -0.0379
90674W        W33612  21.217  16.155  29.431  0.0145  0.1307  0.1246
90675W        W33613  20.549  15.531  26.578  0.1024 -0.3202  0.3336
90676W        W33614  19.888  16.568  25.058 -0.2920 -0.2362 -0.2277
90677W        W33615  20.265  12.686  28.929 -0.1788 -0.0866  0.0220
90678W        W33616  19.296  16.748  28.734 -0.0667 -0.0762 -0.0890
90679W        W33617  20.912  17.285  24.983 -0.1478  0.1342  0.0213
90680W        W33618  19.902  16.826  28.112 -0.0394  0.0079 -0.1957
90681W        W33619  19.714  16.928  25.398 -0.2049 -0.1005  0.1824
90682W        W33620  20.572  15.392  29.360 -0.1677  0.1872 -0.2096
90683W        W33621  18.761  14.056  24.647  0.0375  0.2856  0.3410
90684W        W33622  19.546  15.778  25.530 -0.5521  0.0675 -0.2842
90685W        W33623  20.948  15.883  24.801 -0.1548  0.3066  0.1425
90686W        W33624  18.689  16.073  30.569 -0.1002  0.1375 -0.0861
90687W        W33625  21.291  15.783  29.730  0.0718  0.0137  0.1032
90688W        W33626  17.390  18.566  26.205 -0.1557 -0.2185  0.1396
90689W        W33627  21.890  16.414  28.772 -0.2765 -0.0457  0.0793
90690W        W33628  20.376  14.913  25.632 -0.0776  0.1907 -0.0864
90691W        W33629  19.265  16.211  27.528 -0.1519  0.1995 -0.2580
90692W        W33630  18.930  15.005  28.886 -0.3249  0.3453 -0.2421
90693W        W33631  19.182  14.257  24.964 -0.1106 -0.3141  0.2926
90694W        W33632  21.990  17.331  30.437  0.0100 -0.3088 -0.3520
90695W        W33633  19.769  15.426  26.732 -0.3002  0.0842 -0.3096
90696W        W33634  17.964  16.060  26.270  0.1089 -0.0384  0.2971
90697W        W33635  19.780  18.471  28.917 -0.2572  0.1560  0.0747
90698W        W33636  19.038  18.717  26.987 -0.2307  0.0439 -0.1188
90699W        W33637  18.738  15.215  31.821  0.1348 -0.2793  0.1013
90700W        W33638  21.155  16.475  28.959 -0.2690  0.0113  0.0719
90701W        W33639  19.278  15.957  28.130 -0.1900 -0.0795  0.0447
90702W        W33640  19.179  15.584  25.876  0.0936  0.0661  0.1496
90703W        W33641  20.028  15.495  26.280  0.1779  0.0388  0.1128
90704W        W33642  19.968  16.530  29.635  0.1242 -0.4112  0.0842
90705W        W33643  17.654  16.955  28.689 -0.2183  0.0922  0.2974
90706W        W33644  19.837  15.239  28.762  0.1124  0.0258 -0.0352
90707W        W33645  22.199  17.777  27.454 -0.0500  0.0454 -0.1922
90708W        W33646  19.966  16.714  29.156  0.1051 -0.2060 -0.0601
90709W        W33647  18.942  15.297  26.916 -0.0950  0.0600  0.0968
90710W        W33648  19.954  15.509  27.354 -0.1202  0.0076 -0.1533
90711W        W33649  18.150  16.464  25.850  0.1875  0.3610 -0.0029
90712W        W33650  19.679  16.978  26.745 -0.0611 -0.0068 -0.0584
90713W        W33651  17.707  17.152  28.198 -0.1007  0.1643 -0.0858
90714W        W33652  21.288  14.461  25.304 -0.1369  0.2211  0.0817
90715W        W33653  21.655  16.698  26.106  0.3392  0.0386  0.3200
90716W        W33654  19.664  15.004  28.098 -0.3461  0.2272  0.0409
90717W        W33655  21.086  14.021  31.832  0.2386  0.1167  0.0897
90718W        W33656  20.680  16.454  25.615  0.0508  0.1465  0.0730
90719W        W33657  21.576  15.530  30.940 -0.5042 -0.2378 -0.1461
90720W        W33658  17.550  15.080  28.757  0.0712 -0.1920 -0.1576
90721W        W33659  21.350  17.036  26.340 -0.0528  0.1989  0.1336
90722W        W33660  18.170  15.103  28.545  0.0413 -0.1211 -0.3333
90723W        W33661  18.877  18.985  28.145 -0.0758 -0.2346 -0.2013
90724W        W33662  17.820  15.899  29.688  0.1541  0.0619  0.0048
90725W        W33663  19.238  15.025  25.997 -0.1386 -0.0957  0.0104
90726W        W33664  18.828  14.469  27.611  0.0539 -0.0293 -0.1621
90727W        W33665  18.938  15.801  27.783  0.1603  0.2387 -0.1886
90728W        W33666  20.542  16.617  27.431  0.2461  0.0295 -0.1435
90729W        W33667  19.478  15.236  27.570 -0.0611  0.1237  0.1344
90730W        W33668  19.034  15.830  27.263 -0.1087 -0.1013  0.2148
90731W        W33669  21.438  14.258  26.929 -0.0351 -0.2662 -0.1314
90732W        W33670  18.759  16.716  26.367 -0.1787  0.3050  0.0287
90733W        W33671  20.192  14.188  30.265  0.3073 -0.0398 -0.0540
90734W        W33672  20.073  15.757  25.753  0.1004 -0.2544  0.0105
90735W        W33673  19.440  14.565  27.223 -0.3427  0.0160  0.1450
90736W        W33674  18.189  15.719  25.485  0.1118 -0.0863  0.3151
90737W        W33675  20.519  15.271  27.445 -0.0009  0.1092 -0.1056
90738W        W33676  19.008  16.809  28.248 -0.1208  0.0408  0.0791
90739W        W33677  17.987  14.554  30.479  0.2355  0.2057  0.1382
90740W        W33678  20.514  16.113  28.641  0.1043 -0.2064  0.2946
90741W        W33679  21.523  16.408  27.053 -0.2909  0.0539 -0.1745
90742W        W33680  19.536  16.162  30.629 -0.3194  0.1803  0.2388
90743W        W33681  21.546  15.903  25.797 -0.1262  0.0485 -0.0386
90744W        W33682  19.664  15.403  25.879 -0.2028  0.3587  0.1005
90745W        W33683  19.024  15.272  27.907 -0.0856  0.3439  0.0452
90746W        W33684  20.107  16.050  29.802 -0.0360  0.0779 -0.0248
90747W        W33685  19.677  15.457  29.881  0.0519  0.2144  0.0216
90748W        W33686  20.438  17.326  25.758 -0.0092  0.1491 -0.1755
90749W        W33687  20.276  15.997  26.425 -0.0025  0.1668  0.1040
90750W        W33688  19.810  15.490  25.085  0.1073  0.0642  0.0532
90751W        W33689  17.994  15.660  25.973 -0.0436 -0.1129  0.1665
90752W        W33690  18.123  16.822  28.458 -0.1776 -0.2089  0.0144
90753W        W33691  18.981  14.478  25.412  0.0685  0.4214  0.1525
90754W        W33692  19.602  16.641  27.021 -0.1690  0.0882 -0.0337
90755W        W33693  21.320  15.844  31.232  0.0038  0.1491 -0.0705
90756W        W33694  19.709  14.953  25.208  0.1847 -0.0488 -0.0359
90757W        W33695  22.282  16.250  31.080  0.1098 -0.1230 -0.0812
90758W        W33696  20.620  14.236  27.629 -0.0052  0.3423 -0.1445
90759W        W33697  18.553  17.218  26.234 -0.3699 -0.0550 -0.2426
90760W        W33698  19.524  15.621  28.613 -0.0317 -0.0938 -0.2436
90761W        W33699  18.678  17.125  28.859 -0.2636  0.2053  0.0134
90762W        W33700  19.775  16.247  27.996 -0.0128  0.0585 -0.0236
90763W        W33701  20.705  14.822  28.164  0.0669  0.1672  0.1702
90764W        W33702  20.731  15.716  28.434 -0.0420  0.1496  0.0123
90765W        W33703  20.924  17.020  29.507 -0.0533 -0.0576  0.5348
90766W        W33704  19.667  18.838  29.308 -0.3998  0.0225  0.0905
90767W        W33705  19.407  15.706  27.630 -0.0564 -0.4540 -0.0217
90768W        W33706  20.022  18.215  28.515 -0.0841  0.1496  0.0096
90769W        W33707  20.683  15.522  27.058 -0.1517  0.0125  0.0986
90770W        W33708  20.350  17.743  27.586  0.1557 -0.0393 -0.1820
90771W        W33709  17.432  13.889  30.107 -0.0480  0.1782 -0.2071
90772W        W33710  18.957  16.342  27.959  0.0074 -0.1624 -0.0876
90773W        W33711  18.808  15.950  29.299 -0.0078  0.0479  0.0371
90774W        W33712  18.523  15.772  27.359 -0.0292  0.0555  0.5118
90775W        W33713  18.685  18.725  28.550 -0.0524 -0.1709 -0.1853
90776W        W33714  18.518  15.410  28.673  0.2008  0.2455  0.4532
90777W        W33715  21.208  17.880  27.222  0.1435  0.2096 -0.0433
90778W        W33716  20.172  16.307  27.288 -0.1291  0.3325  0.0023
90779W        W33717  20.117  17.215  26.669 -0.1474  0.1165 -0.0834
90780W        W33718  21.169  16.373  24.987  0.0403 -0.1357 -0.1460
90781W        W33719  19.479  17.122  27.224 -0.1380 -0.2063  0.0752
90782W        W33720  21.049  16.601  24.533  0.0863 -0.3686 -0.1202
90783W        W33721  19.763  17.599  26.435  0.2060  0.1274  0.0919
90784W        W33722  21.383  17.037  29.798 -0.0232  0.0870 -0.0250
90785W        W33723  19.730  15.054  27.182 -0.0373 -0.2573 -0.3050
90786W        W33724  21.794  13.932  27.135 -0.2556  0.3449  0.3692
90787W        W33725  22.696  15.973  26.194  0.0086  0.0119 -0.1733
90788W        W33726  20.798  17.658  28.353  0.0596 -0.3314 -0.2293
90789W        W33727  18.919  16.297  26.612 -0.1517 -0.1115  0.2059
90790W        W33728  19.463  15.742  22.599  0.1735 -0.2111 -0.1659
90791W        W33729  18.653  15.518  29.695 -0.1848 -0.0885 -0.0241
90792W        W33730  20.982  14.736  29.772 -0.3491 -0.1296 -0.0306
90793W        W33731  18.089  17.002  27.896 -0.0934  0.3803  0.0581
90794W        W33732  21.659  17.996  26.429  0.1113  0.0040  0.1738
90795W        W33733  19.881  15.703  29.003  0.1118  0.0246 -0.1710
90796W        W33734  20.139  15.740  26.892  0.2582 -0.2120 -0.2658
90797W        W33735  19.099  17.440  25.766 -0.1065  0.2383  0.1657
90798W        W33736  19.370  17.807  26.680 -0.0702  0.2163  0.0503
90799W        W33737  20.161  15.692  28.610 -0.1287  0.1653 -0.0555
90800W        W33738  18.427  14.835  25.009 -0.1441 -0.2368  0.2673
90801W        W33739  21.290  17.041  25.859 -0.0714 -0.0072 -0.0838
90802W        W33740  18.536  16.656  28.716 -0.3907 -0.2972  0.1953
90803W        W33741  20.594  15.924  29.997 -0.1683 -0.1991 -0.0648
90804W        W33742  17.850  16.444  25.435  0.3477  0.0117 -0.2889
90805W        W33743  20.853  14.473  27.142 -0.2455 -0.2755  0.1106
90806W        W33744  19.623  15.908  26.465  0.3408 -0.1500 -0.0839
90807W        W33745  17.792  14.520  27.956  0.0443 -0.3512  0.3593
90808W        W33746  22.185  16.178  29.107 -0.2718 -0.1051  0.0945
90809W        W33747  20.773  19.079  27.471 -0.0030 -0.0700  0.1709
90810W        W33748  19.460  15.516  27.146  0.1928  0.3634  0.3003
90811W        W33749  18.149  15.893  27.740  0.0561 -0.0261 -0.4737
90812W        W33750  20.455  17.717  28.779 -0.0041 -0.0175  0.0268
90813W        W33751  18.759  15.224  26.085 -0.0339  0.0171  0.0835
90814W        W33752  21.040  16.098  25.399 -0.1251  0.2297 -0.2065
90815W        W33753  20.588  15.710  28.932 -0.0387  0.1866  0.1807
90816W        W33754  19.320  17.684  25.406 -0.1181  0.1356 -0.0099
90817W        W33755  20.320  16.316  26.029  0.0051 -0.1032 -0.0444
90818W        W33756  21.207  19.270  27.623 -0.1510 -0.2364  0.1685
90819W        W33757  18.068  16.942  26.959 -0.2070 -0.0919  0.2370
90820W        W33758  20.247  17.322  27.811 -0.0007  0.4291 -0.1628
90821W        W33759  21.956  17.787  28.187  0.3154 -0.1027 -0.3444
90822W        W33760  20.049  15.295  25.494 -0.1141 -0.1052 -0.0060
90823W        W33761  19.192  16.054  26.241  0.3804 -0.0236  0.2827
90824W        W33762  22.045  15.283  30.791  0.2711  0.1349 -0.0923
90825W        W33763  19.431  15.472  28.154 -0.3807  0.2827 -0.2914
90826W        W33764  21.384  13.726  30.749  0.1207 -0.0026  0.1229
90827W        W33765  20.276  17.377  28.356  0.0195  0.1602  0.1827
90828W        W33766  18.666  16.560  29.266 -0.3020  0.1496  0.1459
90829W        W33767  19.448  15.027  26.763  0.0208  0.0689 -0.2903
90830W        W33768  19.685  15.924  26.971 -0.3220  0.3476  0.0038
90831W        W33769  21.255  17.398  28.637  0.3146  0.0175 -0.3393
90832W        W33770  19.745  15.998  27.443 -0.0172 -0.2248  0.2318
90833W        W33771  19.765  16.700  25.835  0.0523  0.0331 -0.2792
90834W        W33772  19.752  14.158  27.544 -0.1820  0.0720  0.1331
90835W        W33773  22.023  15.366  27.316  0.2857  0.1174  0.1610
90836W        W33774  19.858  15.771  27.903  0.1530 -0.3174  0.1384
90837W        W33775  19.518  17.603  29.202 -0.0409  0.0452 -0.1173
90838W        W33776  17.997  14.983  24.707  0.2164 -0.0193 -0.1335
90839W        W33777  18.400  17.446  27.112  0.0532  0.2821 -0.0461
90840W        W33778  21.313  14.237  31.469  0.2236  0.0957  0.3818
90841W        W33779  18.308  15.964  29.765  0.0491  0.0605  0.2080
90842W        W33780  18.184  14.960  27.452  0.3315  0.4270  0.0555
90843W        W33781  21.353  17.641  29.062 -0.0442  0.2052  0.0134
90844W        W33782  18.751  14.783  27.149  0.1586  0.0456 -0.0292
90845W        W33783  18.518  15.394  27.739  0.2173  0.0055 -0.1168
90846W        W33784  21.706  17.330  25.205 -0.0665 -0.1830 -0.2285
90847W        W33785  21.312  17.648  27.750 -0.0690  0.2218 -0.1111
90848W        W33786  19.091  14.670  26.758 -0.4418  0.1111  0.0693
90849W        W33787  21.013  17.978  29.726 -0.0652 -0.1838  0.0054
90850W        W33788  18.133  16.574  22.265 -0.0726 -0.1202  0.0474
90851W        W33789  20.247  14.676  30.528  0.0291 -0.1740  0.2615
90852W        W33790  20.011  14.407  31.449 -0.3227 -0.0328  0.2447
90853W        W33791  17.874  14.697  25.124  0.0451 -0.0818  0.2966
90854W        W33792  20.088  16.858  27.138  0.3184 -0.0857  0.0506
90855W        W33793  20.426  16.578  26.845  0.0227  0.0921  0.1349
90856W        W33794  21.082  16.706  25.459  0.0026  0.1507 -0.0161
90857W        W33795  19.862  16.549  28.620  0.0089 -0.1553 -0.2944
90858W        W33796  19.735  19.258  29.974  0.0746 -0.1370 -0.2057
90859W        W33797  18.382  13.869  29.694  0.1405  0.1565 -0.0930
90860W        W33798  20.453  15.572  26.051  0.2259 -0.0342  0.3556
90861W        W33799  19.374  18.038  29.075  0.2693 -0.1041 -0.1123
90862W        W33800  22.154  17.665  26.478  0.0932  0.1888  0.2526
90863W        W33801  20.425  16.557  28.843  0.0533 -0.3981 -0.0434
90864W        W33802  21.808  16.747  25.029  0.3451  0.1640 -0.0375
90865W        W33803  17.435  13.754  30.738 -0.1898  0.0103  0.0787
90866W        W33804  19.786  17.378  28.636  0.2116 -0.0898 -0.1509
90867W        W33805  20.977  16.764  27.698  0.0543  0.2745  0.1037
90868W        W33806  20.120  14.162  27.854 -0.1558 -0.2477 -0.0581
90869W        W33807  20.470  15.741  27.868  0.1195  0.0521  0.2948
90870W        W33808  21.448  17.636  28.250  0.2321  0.2230  0.0020
90871W        W33809  18.332  16.575  27.259 -0.3839 -0.0014  0.3125
90872W        W33810  19.165  16.120  25.756  0.6672 -0.0804  0.4178
90873W        W33811  18.975  15.755  28.743 -0.0263  0.0426  0.1091
90874W        W33812  19.311  16.230  26.930 -0.0244  0.2241  0.0878
90875W        W33813  21.086  16.608  30.652 -0.0833  0.1421  0.1767
90876W        W33814  21.289  15.649  24.362 -0.1519 -0.4654 -0.0656
90877W        W33815  22.662  17.577  26.272  0.0374 -0.1240 -0.2931
90878W        W33816  20.661  18.932  28.887 -0.1341  0.0573  0.2282
90879W        W33817  20.593  17.509  29.771  0.0628 -0.0805 -0.1082
90880W        W33818  20.601  17.795  29.325  0.3533  0.0899 -0.2958
90881W        W33819  21.198  15.565  26.933  0.0180  0.2979  0.1546
90882W        W33820  17.633  15.468  27.535  0.1715 -0.0868  0.3019
90883W        W33821  21.602  16.842  25.509 -0.1153 -0.2145  0.1751
90884W        W33822  21.958  15.801  30.586  0.1235  0.0809  0.0393
90885W        W33823  18.721  14.279  30.259 -0.0689  0.0547  0.1427
90886W        W33824  20.042  14.553  27.468  0.0341  0.0876  0.0020
90887W        W33825  19.480  18.193  27.270 -0.2771  0.0190 -0.0136
90888W        W33826  20.511  15.250  28.443 -0.2223 -0.1647 -0.0204
90889W        W33827  19.921  16.374  30.170  0.3161 -0.4584  0.1749
90890W        W33828  20.792  15.778  29.527  0.0694  0.2027 -0.2212
90891W        W33829  19.182  14.121  28.426  0.0102 -0.2673 -0.0330
90892W        W33830  17.711  17.201  30.074  0.1155  0.0271  0.0137
90893W        W33831  18.434  16.475  28.248  0.0863 -0.5887 -0.1839
90894W        W33832  18.457  18.642  29.929  0.0553  0.5095  0.0294
90895W        W33833  21.664  16.693  30.094  0.0204 -0.0041 -0.0299
90896W        W33834  19.126  16.308  28.976 -0.0083  0.2093  0.3304
90897W        W33835  21.586  16.008  31.705 -0.1954  0.1307 -0.2842
90898W        W33836  18.342  17.745  30.568 -0.1984  0.2921 -0.2253
90899W        W33837  19.405  16.731  30.893  0.1456 -0.2419  0.3176
90900W        W33838  18.910  14.169  28.892  0.2878 -0.0708  0.0450
90901W        W33839  20.984  17.736  31.439  0.1263 -0.0927 -0.3855
90902W        W33840  18.298  16.188  29.321  0.1733 -0.0030  0.3695
90903W        W33841  21.968  16.636  31.144 -0.0860 -0.0657 -0.3752
90904W        W33842  17.895  17.852  29.001  0.1319  0.0774  0.1701
90905W        W33843  18.273  17.196  29.691  0.0260  0.2988 -0.1462
90906W        W33844  19.641  18.355  29.399 -0.0528  0.1603 -0.2109
90907W        W33845  16.830  12.954  31.105  0.0178  0.0991  0.2527
90908W        W33846  19.695  14.079  30.137  0.3408  0.2973  0.0481
90909W        W33847  19.588  15.007  30.101 -0.2108  0.0896 -0.1561
90910W        W33848  16.993  17.310  30.254 -0.0883  0.0436 -0.0315
90911W        W33849  21.094  15.044  30.956  0.0557  0.1779 -0.0807
90912W        W33850  20.043  16.450  31.316  0.3142 -0.1358  0.4017
90913W        W33851  20.446  14.716  31.418  0.0251  0.1902 -0.0735
90914W        W33852  20.084  15.742   0.071 -0.3227 -0.0495 -0.0462
90915W        W33853  18.191  15.447  30.496 -0.0182  0.0613  0.0734
90916W        W33854  18.402  17.848  27.984 -0.0444  0.1236  0.1459
90917W        W33855  17.884  16.574  27.468  0.3906  0.1861  0.0562
90918W        W33856  17.991  15.758  28.602 -0.0750 -0.0993  0.1172
90919W        W33857  20.055  17.440  30.435 -0.0921 -0.0192 -0.2677
90920W        W33858  20.296  14.537  31.841  0.0591 -0.1395  0.0805
90921W        W33859  20.904  17.147  30.533  0.0076  0.0788 -0.1359
90922W        W33860  20.901  16.954  31.030 -0.1060 -0.1454  0.2992
90923W        W33861  17.939  15.027  29.332 -0.0905  0.1184 -0.1617
90924W        W33862  19.873  15.064  30.607 -0.1627  0.4010 -0.6419
90925W        W33863  17.335  16.061  30.282  0.0153 -0.1474 -0.0428
90926W        W33864  19.779  16.997  27.576 -0.0533 -0.1407 -0.0558
90927W        W33865  20.376  16.297  30.884  0.3213 -0.5160 -0.0887
90928W        W33866  19.305  17.175  29.574 -0.0888 -0.1873  0.1537
90929W        W33867  22.282  15.463  29.372 -0.1573  0.1875 -0.0002
90930W        W33868  19.053  16.870  29.107  0.2133  0.1991  0.0293
90931W        W33869  18.401  13.783  30.266 -0.0466 -0.1983 -0.0027
90932W        W33870  18.415  17.623  28.903  0.0084 -0.0875 -0.2514
90933W        W33871  17.015  13.547  30.953  0.3261 -0.1842 -0.0795
90934W        W33872  18.818  16.168  29.832 -0.1423  0.0434 -0.1100
90935W        W33873  20.301  15.023  30.980 -0.2260 -0.0908  0.0256
90936W        W33874  19.273  17.589  29.830  0.3188  0.0339 -0.0329
90937W        W33875  20.256  17.317  31.283  0.1443  0.0126 -0.0003
90938W        W33876  17.041  16.282  29.507 -0.2676  0.0081 -0.2400
90939W        W33877  21.282  17.709  30.510  0.0818 -0.0312  0.2041
90940W        W33878  19.498  14.237  31.913  0.0242  0.0866  0.2080
90941W        W33879  18.842  15.725  31.978 -0.3255  0.0551 -0.0299
90942W        W33880  19.111  17.255  30.221  0.1494 -0.0754  0.1666
90943W        W33881  17.980  16.478  28.796  0.0575  0.1285 -0.0412
90944W        W33882  20.263  16.105  30.378  0.2066  0.2572 -0.2739
90945W        W33883  20.639  17.450  31.698  0.1928 -0.4564  0.2786
90946W        W33884  18.185  18.568  28.508  0.0090  0.2860  0.1460
90947W        W33885  19.042  17.788  29.403  0.0205 -0.1531 -0.2985
90948W        W33886  19.512  16.959  29.139 -0.0881  0.2379 -0.0211
90949W        W33887  16.577  15.535  29.691  0.0644  0.0896  0.1445
90950W        W33888  18.287  15.632  28.145 -0.0763 -0.1199  0.0662
90951W        W33889  17.096  16.509  28.974  0.1540 -0.1784  0.2538
90952W        W33890  19.165  14.129  30.046 -0.0386  0.1946  0.0582
90953W        W33891  20.093  18.034  29.429  0.0811  0.0525 -0.1816
90954W        W33892  19.500  16.328  31.332 -0.3232 -0.0103  0.2098
90955W        W33893  19.459  16.234  29.969  0.3464 -0.1377  0.2244
90956W        W33894  20.277  21.129  16.363  0.1810 -0.0938 -0.0528
90957W        W33895  18.967  19.560  15.111  0.4102  0.1396 -0.0335
90958W        W33896  21.701  18.965  15.224 -0.0991  0.1736  0.0053
90959W        W33897  21.873  21.166  14.913 -0.0960  0.0484  0.1099
90960W        W33898  19.535  18.624  14.525  0.0883  0.2947 -0.0542
90961W        W33899  21.681  22.216  16.119  0.2453  0.0020 -0.1014
90962W        W33900  19.269  19.212  17.383  0.1661  0.1701  0.0100
90963W        W33901  20.881  21.811  17.817  0.1605 -0.0459  0.0087
90964W        W33902  22.748  22.061  17.687 -0.1141  0.2000 -0.1172
90965W        W33903  19.739  19.388  15.514 -0.0183 -0.3399 -0.1909
90966W        W33904  19.341  22.410  16.506 -0.1188 -0.2910  0.0660
90967W        W33905  18.822  22.466  17.698  0.4415  0.1522  0.2006
90968W        W33906  18.752  17.854  16.123 -0.0798  0.0590 -0.3359
90969W        W33907  18.628  20.030  16.807 -0.1246  0.0531 -0.0139
90970W        W33908  22.970  22.107  16.812 -0.3904 -0.0679  0.0093
90971W        W33909  17.395  22.210  16.280 -0.1732  0.4809 -0.1647
90972W        W33910  19.270  20.913  16.702  0.3694  0.2388  0.1004
90973W        W33911  20.200  20.152  16.595 -0.0604  0.3351  0.1480
90974W        W33912  19.917  23.472  17.894 -0.1162  0.0788  0.0476
90975W        W33913  19.897  18.758  18.065 -0.3507  0.2295  0.0919
90976W        W33914  23.393  18.830  19.053 -0.2634  0.1622  0.2070
90977W        W33915  20.927  20.898  15.919 -0.0728  0.1442  0.1122
90978W        W33916  19.688  19.765  14.405 -0.0679 -0.0619 -0.0204
90979W        W33917  19.419  20.516  15.194 -0.0228 -0.0808  0.0824
90980W        W33918  19.643  19.943  18.159 -0.0308 -0.2644  0.1661
90981W        W33919  21.474  19.427  16.221 -0.1388  0.4088 -0.0248
90982W        W33920  21.879  20.191  15.618 -0.0645 -0.2087  0.3169
90983W        W33921  19.969  22.203  17.280 -0.3217 -0.1241 -0.0538
90984W        W33922  22.412  21.944  15.730 -0.2018 -0.0654 -0.1879
90985W        W33923  21.552  20.337  17.561  0.0396  0.3779 -0.3259
90986W        W33924  19.906  22.621  16.555 -0.2507  0.0572  0.0976
90987W        W33925  19.938  23.361  17.011 -0.1926 -0.0075  0.1140
90988W        W33926  20.434  21.641  15.391  0.0353 -0.0540 -0.3657
90989W        W33927  22.743  22.097  16.126  0.0039 -0.2090  0.1746
90990W        W33928  21.002  21.680  18.810 -0.1430  0.4788  0.0820
90991W        W33929  19.780  22.567  18.897  0.1784  0.0473  0.1649
90992W        W33930  19.072  21.177  15.719 -0.5105 -0.1912  0.0421
90993W        W33931  22.752  23.318  18.768 -0.3228 -0.1113  0.1358
90994W        W33932  18.646  22.905  17.683 -0.0655 -0.2288 -0.2070
90995W        W33933  22.664  22.060  17.193 -0.1854 -0.0189  0.1520
90996W        W33934  20.668  18.925  16.785 -0.1886 -0.1247  0.2246
90997W        W33935  19.415  21.898  16.220  0.1454 -0.0448 -0.1671
90998W        W33936  21.210  21.744  15.775  0.0635 -0.2267  0.0664
90999W        W33937  19.149  21.416  16.840  0.1911 -0.0004  0.0865
91000W        W33938  20.138  22.180  16.403 -0.0440 -0.0882 -0.1035
91001W        W33939  20.960  19.991  16.425 -0.0122  0.3127  0.2102
91002W        W33940  19.568  21.529  15.204 -0.1417 -0.0311  0.0404
91003W        W33941  21.270  18.829  15.540  0.0510 -0.1643 -0.0071
91004W        W33942  18.820  21.053  16.536  0.1050 -0.2308 -0.2538
91005W        W33943  21.228  18.991  17.771  0.0409 -0.0528 -0.0302
91006W        W33944  20.220  19.719  15.878  0.1610 -0.0236  0.1003
91007W        W33945  19.584  24.382  17.287  0.0289 -0.1149 -0.0836
91008W        W33946  21.150  17.907  16.556  0.1201  0.1670 -0.0151
91009W        W33947  22.485  21.409  18.723  0.1829  0.0275  0.0038
91010W        W33948  20.815  20.884  15.373  0.1965  0.1337  0.2202
91011W        W33949  21.971  20.445  16.585  0.1213 -0.0051  0.1278
91012W        W33950  18.459  23.183  17.200  0.0124 -0.0990 -0.0187
91013W        W33951  19.442  22.096  17.167 -0.0245 -0.0576 -0.3155
91014W        W33952  23.113  22.321  16.362  0.2166 -0.1334  0.0929
91015W        W33953  22.623  22.385  16.569 -0.0203 -0.1339  0.0120
91016W        W33954  21.391  21.666  15.287  0.0311 -0.0643 -0.1466
91017W        W33955  18.482  19.549  15.480  0.2570 -0.0975 -0.2610
91018W        W33956  18.555  20.720  16.258 -0.0319  0.0228  0.1788
91019W        W33957  19.788  21.124  17.965 -0.0019 -0.0936  0.0455
91020W        W33958  20.069  18.350  15.316 -0.3761 -0.1736 -0.1069
91021W        W33959  23.170  21.385  16.816 -0.2075 -0.0051  0.2790
91022W        W33960  17.460  21.501  18.130 -0.1000  0.1284  0.2413
91023W        W33961  22.015  17.764  17.668 -0.0308 -0.0817  0.2067
91024W        W33962  20.331  21.519  15.990 -0.1880  0.1882 -0.1073
91025W        W33963  21.423  21.432  18.936 -0.2366  0.1232  0.2073
91026W        W33964  22.789  18.994  15.606  0.1484 -0.0909  0.0227
91027W        W33965  21.582  16.132  16.095  0.2828  0.1156 -0.2044
91028W        W33966  20.472  20.445  16.946 -0.1456 -0.5040  0.0778
91029W        W33967  18.952  21.358  15.180  0.1896 -0.0047  0.0252
91030W        W33968  19.466  21.457  15.930 -0.1565 -0.1916 -0.0017
91031W        W33969  23.331  22.465  18.396 -0.0168 -0.0263  0.0854
91032W        W33970  21.952  20.835  16.220 -0.1212  0.0990 -0.1079
91033W        W33971  19.652  23.538  17.425  0.0844  0.0181 -0.5077
91034W        W33972  20.959  20.982  18.279  0.1065  0.0343  0.2115
91035W        W33973  20.291  21.832  16.938 -0.0576 -0.0903  0.3375
91036W        W33974  19.401  22.922  15.095 -0.0416 -0.1280 -0.0116
91037W        W33975  17.694  21.384  15.703  0.0864 -0.1551 -0.2473
91038W        W33976  18.007  21.043  14.479 -0.1001  0.3349  0.1175
91039W        W33977  19.892  19.800  16.362  0.1349  0.1953  0.4729
91040W        W33978  20.108  21.202  17.450  0.1896  0.2345  0.2719
91041W        W33979  21.943  18.873  15.613 -0.0059 -0.1268  0.1883
91042W        W33980  19.212  20.316  16.000 -0.0907  0.2672 -0.2465
91043W        W33981  20.922  18.532  17.710  0.0092  0.1281 -0.1436
91044W        W33982  18.506  21.090  15.137 -0.3240 -0.2650 -0.2736
91045W        W33983  23.885  20.385  15.935  0.0770 -0.3161 -0.2502
91046W        W33984  22.024  18.760  16.158 -0.0408  0.3862  0.0095
91047W        W33985  22.508  19.422  15.593 -0.5192 -0.2468  0.0110
91048W        W33986  18.236  19.271  15.928 -0.0633  0.2690 -0.2049
91049W        W33987  18.978  18.880  15.851 -0.1227 -0.1498  0.0197
91050W        W33988  19.434  19.142  16.819  0.1584  0.1482 -0.0410
91051W        W33989  20.719  18.102  15.754 -0.0163  0.1654 -0.4568
91052W        W33990  23.131  19.754  18.399 -0.1046  0.3267 -0.4158
91053W        W33991  19.666  18.154  15.526 -0.2104 -0.2734  0.1126
91054W        W33992  21.485  21.782  16.260  0.2253 -0.2956  0.0453
91055W        W33993  19.194  21.291  16.290  0.0527 -0.2931 -0.0411
91056W        W33994  18.260  22.198  15.899 -0.3011 -0.0445 -0.0271
91057W        W33995  22.748  20.933  17.477 -0.0578  0.2165  0.4236
91058W        W33996  20.164  22.446  15.211 -0.0494  0.1538  0.1874
91059W        W33997  22.808  23.909  16.611 -0.3888  0.0934  0.1785
91060W        W33998  23.337  23.230  17.291  0.0146 -0.0006  0.1089
91061W        W33999  20.465  19.723  16.277  0.1989  0.1907  0.2505
91062W        W34000  19.611  18.390  15.000  0.0974  0.1891  0.0320
91063W        W34001  18.602  21.981  17.815 -0.2142  0.1273  0.2039
91064W        W34002  20.919  22.093  16.884 -0.4074  0.0293  0.0480
91065W        W34003  18.949  20.395  15.005 -0.0211  0.0061  0.1595
91066W        W34004  21.279  22.157  17.934 -0.0733 -0.1365 -0.0982
91067W        W34005  21.375  20.760  16.276 -0.1774  0.0761 -0.0085
91068W        W34006  19.162  22.846  17.834 -0.0300 -0.0740 -0.0360
91069W        W34007  21.100  19.164  17.064 -0.2141 -0.1902  0.3754
91070W        W34008  22.542  20.863  18.464  0.2566  0.5250 -0.0690
91071W        W34009  21.607  21.505  16.745 -0.0172 -0.2717 -0.2193
91072W        W34010  19.903  19.236  14.632 -0.2030  0.0412 -0.2845
91073W        W34011  20.454  22.516  18.098 -0.2018 -0.1665  0.5515
91074W        W34012  19.867  22.811  15.424 -0.1366  0.1526  0.0235
91075W        W34013  17.553  21.927  15.823 -0.2974  0.1082  0.3364
91076W        W34014  21.136  23.182  16.847  0.0331  0.1139  0.1587
91077W        W34015  21.124  19.568  17.989 -0.0621 -0.0923  0.1324
91078W        W34016  17.749  21.961  18.337  0.0139  0.0553 -0.0935
91079W        W34017  21.612  20.461  18.737 -0.1187  0.1359  0.0215
91080W        W34018  18.009  20.282  15.122  0.2184 -0.0454  0.1544
91081W        W34019  19.203  21.610  17.286 -0.1431 -0.1972  0.0555
91082W        W34020  21.070  19.116  16.546 -0.1285 -0.1050 -0.3780
91083W        W34021  23.583  17.504  16.295  0.0666 -0.0175 -0.1404
91084W        W34022  21.049  20.895  17.528  0.0695  0.2242 -0.3178
91085W        W34023  21.097  21.550  16.580 -0.0227 -0.1544  0.0518
91086W        W34024  20.402  17.785  15.849 -0.1732  0.2815  0.0925
91087W        W34025  21.093  18.945  16.038 -0.0155  0.1317  0.0808
91088W        W34026  18.691  21.561  18.138 -0.2618 -0.1198  0.2602
91089W        W34027  19.888  22.263  15.605 -0.0607 -0.1535 -0.0051
91090W        W34028  20.871  22.553  17.203  0.1085  0.0035  0.1130
91091W        W34029  20.068  18.806  14.908  0.1370  0.1989 -0.1053
91092W        W34030  23.291  20.892  15.309  0.0163 -0.2916  0.0102
91093W        W34031  20.425  21.598  17.657  0.2662 -0.0930 -0.0339
91094W        W34032  20.552  21.917  18.569  0.0610  0.1782 -0.3436
91095W        W34033  21.169  22.146  17.372 -0.0462 -0.2959 -0.1257
91096W        W34034  20.088  20.080  17.069 -0.1889  0.3473 -0.1692
91097W        W34035  19.260  20.026  15.301  0.0128 -0.2964  0.2020
91098W        W34036  20.788  18.631  15.794  0.0026  0.0685 -0.0712
91099W        W34037  17.697  21.046  15.361  0.1083  0.0955  0.2559
91100W        W34038  20.159  19.188  16.782 -0.0110  0.1286 -0.3082
91101W        W34039  21.472  21.249  17.107 -0.3208  0.1097  0.0566
91102W        W34040  21.148  18.711  16.879  0.3118  0.0775  0.0059
91103W        W34041  22.812  20.316  19.408  0.0094 -0.2030  0.0721
91104W        W34042  20.610  19.106  16.000 -0.0922  0.1008  0.1941
91105W        W34043  21.959  21.208  17.188 -0.4733 -0.2114 -0.0629
91106W        W34044  19.788  20.586  14.912  0.2003  0.1597 -0.3764
91107W        W34045  21.612  19.248  18.602 -0.0021  0.0619  0.0757
91108W        W34046  19.686  20.939  17.110 -0.1411 -0.1366  0.0635
91109W        W34047  19.031  21.649  16.014 -0.2042  0.0757  0.0286
91110W        W34048  21.879  21.351  17.986 -0.0611  0.2563 -0.0984
91111W        W34049  22.899  20.494  16.651  0.0839  0.1304  0.0829
91112W        W34050  21.129  20.137  19.091  0.0805 -0.1637 -0.2058
91113W        W34051  20.879  19.159  15.592  0.1136 -0.0894 -0.2424
91114W        W34052  19.644  21.551  17.023 -0.0833 -0.0702 -0.2095
91115W        W34053  20.598  20.535  15.869  0.0413 -0.1680  0.2269
91116W        W34054  19.597  17.752  16.344 -0.0208  0.3372  0.1086
91117W        W34055  20.417  21.429  17.139  0.0533 -0.4155  0.2553
91118W        W34056  20.725  21.341  16.227 -0.1031  0.0776 -0.4251
91119W        W34057  19.081  21.239  18.264 -0.3321 -0.1147  0.0068
91120W        W34058  18.166  19.808  15.185  0.0958  0.3020  0.1077
91121W        W34059  21.271  18.178  16.972  0.3348  0.3414 -0.0022
91122W        W34060  18.813  21.626  16.532 -0.2865  0.0816  0.0854
91123W        W34061  19.941  19.781  14.901 -0.1360 -0.0963 -0.3169
91124W        W34062  18.675  19.061  15.113 -0.0476  0.0430  0.0263
91125W        W34063  22.352  19.625  17.415 -0.0920  0.1030  0.1969
91126W        W34064  21.075  20.401  16.017 -0.3908 -0.1576  0.0473
91127W        W34065  20.348  18.787  16.370 -0.1256 -0.0796  0.4342
91128W        W34066  20.255  18.739  15.852  0.1797 -0.5896 -0.0365
91129W        W34067  17.430  22.707  16.078  0.0783  0.0232  0.0958
91130W        W34068  21.621  20.337  16.084  0.2861  0.2664  0.3802
91131W        W34069  22.014  19.017  16.908  0.2608 -0.0233 -0.1230
91132W        W34070  21.838  23.381  17.660  0.0305  0.0251 -0.1015
91133W        W34071  19.785  20.621  18.123  0.0113 -0.1139 -0.0756
91134W        W34072  20.046  19.771  15.386  0.1807 -0.3372 -0.0306
91135W        W34073  22.262  19.934  16.923  0.0776  0.1921  0.1549
91136W        W34074  19.980  19.634  16.806  0.0091  0.0915 -0.0338
91137W        W34075  18.327  21.048  16.525  0.2831 -0.0721  0.0846
91138W        W34076  20.893  21.244  17.156  0.0888 -0.1857  0.1104
91139W        W34077  19.985  21.278  15.595  0.0284  0.0355  0.0522
91140W        W34078  19.468  22.029  15.719  0.3390  0.1527  0.0007
91141W        W34079  19.771  20.235  17.377  0.1516 -0.1124 -0.3568
91142W        W34080  20.574  19.961  16.791 -0.1857  0.4251  0.0928
91143W        W34081  20.589  20.326  16.353 -0.0960  0.1699 -0.0151
91144W        W34082  19.859  18.932  16.152 -0.1360 -0.1020  0.2146
91145W        W34083  20.688  19.593  15.753  0.1609  0.0972 -0.1039
91146W        W34084  22.454  21.192  17.157 -0.0920  0.2685 -0.2835
91147W        W34085  21.676  21.256  16.166 -0.2090  0.0118 -0.1694
91148W        W34086  19.369  20.525  17.163 -0.1099 -0.0297 -0.0959
91149W        W34087  19.706  18.281  17.196  0.1551  0.0832 -0.2404
91150W        W34088  21.192  22.254  15.836 -0.2800 -0.2184 -0.0999
91151W        W34089  21.674  19.896  17.958 -0.2480 -0.1212  0.0073
91152W        W34090  19.165  22.418  15.059  0.2809  0.0744  0.3694
91153W        W34091  19.111  22.485  17.010  0.1040 -0.4535 -0.1987
91154W        W34092  21.675  20.760  15.827  0.1142  0.0384  0.0329
91155W        W34093  19.055  18.937  16.567 -0.1092  0.0097  0.1896
91156W        W34094  19.674  20.089  16.811  0.1246  0.1086  0.0370
91157W        W34095  19.162  21.278  14.314  0.0873  0.3429 -0.1221
91158W        W34096  18.791  24.107  17.315  0.1668 -0.1849 -0.0296
91159W        W34097  22.472  18.330  16.988 -0.0392  0.0641 -0.0977
91160W        W34098  22.521  20.909  16.213  0.1058 -0.1654 -0.0184
91161W        W34099  20.876  19.477  16.180 -0.0582  0.2072 -0.2803
91162W        W34100  22.043  19.514  18.372 -0.0191  0.2871  0.2558
91163W        W34101  22.417  19.051  15.948 -0.0869 -0.1774  0.3151
91164W        W34102  20.720  18.957  17.819  0.2082 -0.1359 -0.0035
91165W        W34103  19.718  18.720  16.607 -0.0988  0.2647  0.0221
91166W        W34104  21.205  21.408  17.535  0.1386 -0.2911  0.1168
91167W        W34105  18.309  18.733  16.093 -0.3263 -0.1895 -0.3208
91168W        W34106  20.438  21.991  18.070  0.0646  0.3279 -0.1438
91169W        W34107  18.631  21.050  17.896  0.1006  0.0772 -0.0709
91170W        W34108  20.711  20.034  15.954  0.2176  0.3228 -0.0633
91171W        W34109  19.694  19.394  15.987  0.3039  0.0988  0.0230
91172W        W34110  21.437  20.231  16.570 -0.5806 -0.0875  0.0354
91173W        W34111  22.229  21.671  17.314  0.1659 -0.0832  0.1637
91174W        W34112  20.526  21.710  16.521  0.1000 -0.0102 -0.1652
91175W        W34113  22.496  19.909  17.802 -0.0992 -0.2619  0.3262
91176W        W34114  18.580  20.302  15.900 -0.0929  0.1221  0.3566
91177W        W34115  21.516  19.232  15.740  0.1805 -0.1493  0.0126
91178W        W34116  20.888  19.616  17.100  0.2554 -0.1630  0.0004
91179W        W34117  18.577  21.447  15.545  0.0185  0.0951 -0.1873
91180W        W34118  18.951  20.281  17.264  0.0284  0.0178  0.0880
91181W        W34119  21.611  21.455  15.665 -0.2394  0.2101  0.1562
91182W        W34120  21.584  18.682  15.895 -0.0252  0.1424  0.1871
91183W        W34121  21.487  19.566  17.204 -0.1025  0.0241  0.0019
91184W        W34122  22.197  20.919  18.076  0.1447 -0.4273 -0.1067
91185W        W34123  19.086  21.965  17.890 -0.1087  0.2486 -0.0632
91186W        W34124  19.190  20.066  16.862 -0.0560  0.1149 -0.2995
91187W        W34125  21.762  23.020  18.368  0.2025  0.2755 -0.2006
91188W        W34126  21.796  19.467  14.994 -0.2142  0.3008 -0.2988
91189W        W34127  22.170  18.996  18.023 -0.1833 -0.0512 -0.1587
91190W        W34128  22.217  20.852  15.797 -0.0676 -0.0998  0.0560
91191W        W34129  22.400  18.710  15.573 -0.0314 -0.0735 -0.1817
91192W        W34130  20.175  20.254  16.084  0.1008  0.1089 -0.3851
91193W        W34131  22.007  20.279  17.777 -0.2021 -0.0998  0.1817
91194W        W34132  19.060  17.720  14.746  0.2535 -0.0656  0.2536
91195W        W34133  20.952  18.751  18.175 -0.0804  0.2313 -0.1011
91196W        W34134  20.151  23.180  15.604  0.1200  0.0392 -0.1307
91197W        W34135  21.780  20.968  16.655 -0.0360  0.1579 -0.1176
91198W        W34136  21.663  18.890  16.550 -0.2091  0.0836 -0.0026
91199W        W34137  19.429  20.769  15.634  0.1778 -0.0225 -0.0140
91200W        W34138  17.493  21.333  17.616 -0.1110  0.0879 -0.1187
91201W        W34139  19.620  17.259  14.990 -0.0922 -0.2548  0.2167
91202W        W34140  20.240  19.650  14.523  0.1716 -0.3121  0.3663
91203W        W34141  21.879  20.216  17.156 -0.1370  0.1607 -0.1326
91204W        W34142  20.890  21.224  19.123 -0.1731  0.0732 -0.0543
91205W        W34143  22.661  16.580  15.958  0.0676  0.0649 -0.0097
91206W        W34144  20.958  20.408  16.703  0.0161  0.0707  0.4533
91207W        W34145  19.035  21.877  15.504  0.0855  0.0374 -0.1005
91208W        W34146  20.167  19.197  17.381 -0.1046 -0.0258  0.0169
91209W        W34147  19.433  22.885  17.195  0.0492 -0.0403  0.1494
91210W        W34148  18.238  21.837  18.194  0.0104  0.0239  0.1522
91211W        W34149  20.408  22.027  17.359 -0.1157 -0.1916 -0.3252
91212W        W34150  20.797  18.690  16.315 -0.0161  0.4169 -0.0239
91213W        W34151  22.108  20.284  16.089  0.1777 -0.2979  0.3423
91214W        W34152  20.664  21.169  16.681 -0.0256  0.0557  0.1397
91215W        W34153  23.596  21.088  20.084 -0.1361  0.3784 -0.0392
91216W        W34154  21.143  20.980  16.642 -0.1882  0.0211  0.0520
91217W        W34155  19.833  21.996  16.830 -0.3465 -0.0027 -0.1510
91218W        W34156  21.473  22.590  18.188  0.1042 -0.2949 -0.3018
91219W        W34157  21.755  21.925  17.137  0.1794  0.3237  0.0494
91220W        W34158  20.798  22.287  17.689 -0.2470 -0.0094  0.1428
91221W        W34159  19.379  20.321  17.712  0.1448  0.0557 -0.1251
91222W        W34160  21.193  20.483  17.238 -0.1609  0.1263 -0.0571
91223W        W34161  22.756  21.594  17.526 -0.0839  0.0735 -0.2100
91224W        W34162  19.437  18.625  15.371  0.1585 -0.2168  0.0757
91225W        W34163  21.646  22.005  15.665 -0.2549 -0.2172 -0.1657
91226W        W34164  17.667  22.521  19.065 -0.0009 -0.3958 -0.2703
91227W        W34165  18.018  22.039  16.410  0.0382  0.0541 -0.0794
91228W        W34166  19.990  21.004  14.655  0.0843  0.0163  0.1808
91229W        W34167  22.064  21.991  15.349 -0.2088 -0.1050 -0.0388
91230W        W34168  21.194  21.216  15.454  0.1073 -0.0616 -0.2040
91231W        W34169  21.495  21.684  17.976 -0.3182  0.3660  0.1468
91232W        W34170  20.484  19.767  14.962  0.4988  0.0092  0.0730
91233W        W34171  20.032  21.688  17.310  0.2850 -0.0497  0.0830
91234W        W34172  17.633  20.730  14.977 -0.1505  0.0636 -0.0135
91235W        W34173  20.059  20.175  15.626 -0.0941  0.2349 -0.3399
91236W        W34174  18.444  20.276  14.868  0.0445 -0.1368  0.0854
91237W        W34175  22.007  22.533  21.193  0.1136 -0.1301  0.0293
91238W        W34176  22.189  18.082  15.033  0.0735 -0.2754  0.2708
91239W        W34177  21.342  19.932  16.112 -0.0588  0.2164  0.2640
91240W        W34178  21.981  19.557  17.078  0.4172  0.0932  0.0990
91241W        W34179  20.385  22.565  17.493  0.0178  0.0337  0.1670
91242W        W34180  19.451  20.446  16.540 -0.0741 -0.2624 -0.3873
91243W        W34181  19.518  18.969  15.734 -0.2816  0.1815 -0.0731
91244W        W34182  20.292  20.926  16.919 -0.0953  0.0813  0.0309
91245W        W34183  22.796  17.275  16.250 -0.1263 -0.0187  0.0893
91246W        W34184  20.499  21.572  18.964 -0.0762 -0.1073  0.0863
91247W        W34185  20.853  21.294  15.109  0.0026 -0.1715 -0.2193
91248W        W34186  19.743  20.152  15.163 -0.3443 -0.0982  0.1350
91249W        W34187  18.698  21.010  17.329  0.2580  0.0508  0.2448
91250W        W34188  22.665  18.489  17.969  0.0699 -0.0652 -0.0595
91251W        W34189  20.797  21.414  15.652  0.1606  0.0266 -0.1599
91252W        W34190  19.760  20.981  16.553  0.0980 -0.0710  0.0219
91253W        W34191  19.281  22.914  15.813 -0.0482  0.1589  0.0835
91254W        W34192  20.392  22.674  16.475  0.1648  0.0240 -0.1790
91255W        W34193  21.764  22.193  17.643  0.0500 -0.2635 -0.0406
91256W        W34194  19.456  17.850  15.065  0.1005 -0.0051 -0.1228
91257W        W34195  22.929  18.279  16.724 -0.0349 -0.3684 -0.2857
91258W        W34196  19.321  20.934  17.941 -0.0517  0.1082  0.1511
91259W        W34197  20.748  17.656  18.276  0.1871 -0.1152 -0.5471
91260W        W34198  19.480  19.562  15.153  0.1953  0.2133 -0.3804
91261W        W34199  22.125  19.194  17.519 -0.1804  0.1546  0.0737
91262W        W34200  20.044  20.579  16.413 -0.4926 -0.0922  0.5513
91263W        W34201  19.490  19.647  16.807  0.1433  0.1698  0.1324
91264W        W34202  20.557  20.099  14.534 -0.0499  0.0704 -0.0753
91265W        W34203  21.837  21.117  19.365 -0.0838 -0.0414  0.0482
91266W        W34204  20.748  17.701  16.248  0.0462  0.4611 -0.1293
91267W        W34205  23.195  22.874  19.613 -0.1427 -0.0073 -0.1597
91268W        W34206  17.875  18.648  15.288  0.2370  0.3486  0.1660
91269W        W34207  20.512  19.962  15.475 -0.1877  0.0484  0.0955
91270W        W34208  18.723  21.193  16.063  0.0703  0.1862 -0.0452
91271W        W34209  20.553  20.979  17.449 -0.1867  0.1077  0.1980
91272W        W34210  22.075  22.655  18.714 -0.1380  0.0519  0.0697
91273W        W34211  21.231  19.658  15.732  0.0603 -0.4788  0.0990
91274W        W34212  22.973  20.425  14.788 -0.0169  0.1208  0.1287
91275W        W34213  22.768  21.632  18.307  0.3238 -0.1109 -0.0296
91276W        W34214  19.904  21.766  15.503  0.1130 -0.0605  0.0491
91277W        W34215  21.528  20.187  15.162  0.2602 -0.1005  0.0026
91278W        W34216  21.574  21.273  18.414 -0.0567  0.0446  0.2173
91279W        W34217  19.536  20.712  16.163 -0.1076 -0.2178  0.0268
91280W        W34218  21.592  23.010  16.791 -0.1656 -0.0474 -0.0742
91281W        W34219  22.878  23.393  17.382 -0.2356 -0.5058  0.0022
91282W        W34220  21.556  18.009  15.828  0.0888  0.1207  0.0397
91283W        W34221  21.218  20.688  15.581 -0.0665  0.2490  0.0929
91284W        W34222  19.122  21.748  14.896 -0.0706  0.2379  0.2989
91285W        W34223  22.011  19.404  15.549  0.1742 -0.1898 -0.2839
91286W        W34224  21.255  20.732  17.948  0.1630 -0.1940  0.0627
91287W        W34225  20.024  22.746  16.023  0.1510  0.3398 -0.0802
91288W        W34226  22.621  17.347  18.159 -0.0169  0.0325 -0.0427
91289W        W34227  20.193  22.190  18.828  0.2865  0.2857  0.1197
91290W        W34228  20.991  22.364  19.510  0.1226 -0.0156 -0.1140
91291W        W34229  19.251  20.562  14.667  0.1420  0.1563 -0.2138
91292W        W34230  19.343  21.910  16.726  0.2130 -0.2365  0.2170
91293W        W34231  20.003  21.701  16.467  0.1867 -0.1277 -0.1119
91294W        W34232  19.416  22.061  15.242  0.2806 -0.1071  0.0450
91295W        W34233  21.514  22.211  20.227 -0.0116 -0.1358 -0.2023
91296W        W34234  22.418  19.363  16.952 -0.0134  0.0345  0.2233
91297W        W34235  22.650  21.696  16.860  0.0961  0.2066 -0.1942
91298W        W34236  19.324  19.785  16.197 -0.2487  0.0158 -0.1020
91299W        W34237  21.547  19.450  17.706  0.1096  0.2396 -0.0428
91300W        W34238  22.620  15.873  17.311  0.0729  0.4907 -0.1849
91301W        W34239  19.341  21.905  18.296 -0.0260  0.0857 -0.0994
91302W        W34240  18.157  21.140  15.535 -0.1458  0.4412 -0.0188
91303W        W34241  20.219  21.178  14.260 -0.1853  0.1207  0.1201
91304W        W34242  19.858  22.657  17.479  0.1151  0.1544 -0.0684
91305W        W34243  21.392  20.052  17.159 -0.0050 -0.1368  0.0735
91306W        W34244  19.627  20.718  17.599  0.1405 -0.2144 -0.0431
91307W        W34245  20.784  20.759  16.323 -0.2613  0.1953  0.0555
91308W        W34246  20.469  20.515  15.381 -0.1947 -0.0475  0.1641
91309W        W34247  20.830  21.899  15.423 -0.0564 -0.1061 -0.0330
91310W        W34248  19.314  18.653  17.142  0.0543 -0.5861  0.0950
91311W        W34249  18.321  18.682  15.031 -0.0276 -0.1313  0.2526
91312W        W34250  22.201  21.336  16.356  0.1981  0.1566  0.3077
91313W        W34251  21.980  21.751  16.007  0.1889 -0.2102  0.0843
91314W        W34252  20.002  18.884  15.409  0.0488 -0.0385 -0.4097
91315W        W34253  23.659  23.302  18.087 -0.1762 -0.1374  0.5520
91316W        W34254  19.142  20.774  14.154  0.1370 -0.1631  0.3521
91317W        W34255  20.893  20.777  19.318 -0.0699  0.0820  0.0804
91318W        W34256  21.091  20.008  18.138 -0.2825  0.1660 -0.3819
91319W        W34257  17.181  19.319  15.059 -0.1699 -0.0437 -0.0258
91320W        W34258  21.515  20.789  18.380 -0.0617  0.0553 -0.0378
91321W        W34259  20.993  22.800  16.430  0.1608 -0.4118  0.1280
91322W        W34260  20.273  23.081  16.766  0.1594  0.2755 -0.2583
91323W        W34261  21.186  21.310  16.052  0.0410 -0.0229  0.3988
91324W        W34262  19.044  21.369  17.763  0.2121  0.1807  0.0389
91325W        W34263  18.642  17.321  15.342 -0.0529 -0.0255 -0.1025
91326W        W34264  21.362  20.157  15.603  0.0277 -0.0585 -0.0657
91327W        W34265  21.333  22.569  19.898  0.0579  0.1756  0.0774
91328W        W34266  22.544  21.561  16.041  0.1810  0.1535  0.0758
91329W        W34267  21.267  18.523  16.437 -0.0079 -0.2385 -0.1954
91330W        W34268  22.195  22.341  16.289  0.0859 -0.0161  0.1231
91331W        W34269  18.660  19.604  17.157 -0.1186  0.1645 -0.0672
91332W        W34270  18.737  21.583  17.458 -0.3886 -0.3526 -0.3276
91333W        W34271  22.905  20.167  17.972 -0.4145 -0.2347 -0.2615
91334W        W34272  19.692  19.331  16.491  0.1158 -0.1070  0.1483
91335W        W34273  23.078  18.693  16.948 -0.0551 -0.2577 -0.4457
91336W        W34274  20.700  21.975  15.903 -0.1128  0.1701 -0.1974
91337W        W34275  19.547  21.518  16.537 -0.0779  0.0725  0.0010
91338W        W34276  20.885  20.251  15.541 -0.1517 -0.3070  0.0666
91339W        W34277  22.154  20.026  18.160  0.3075  0.0058 -0.0629
91340W        W34278  23.163  21.301  17.438 -0.5527  0.0358  0.1157
91341W        W34279  22.300  21.449  18.206  0.1727  0.0354  0.1574
91342W        W34280  20.191  18.223  15.761 -0.0730  0.1966  0.1512
91343W        W34281  22.599  20.488  15.846  0.2474  0.2915  0.4854
91344W        W34282  21.853  22.442  19.241  0.1284  0.0645  0.1765
91345W        W34283  21.608  23.134  18.856  0.0878 -0.2289 -0.4406
91346W        W34284  21.068  23.012  19.010 -0.2324  0.1783 -0.0140
91347W        W34285  22.288  20.683  17.607 -0.1210  0.0678 -0.2634
91348W        W34286  20.497  19.468  17.690 -0.0579  0.4807  0.1720
91349W        W34287  19.859  20.647  15.411 -0.0303 -0.1120  0.0409
91350W        W34288  19.953  20.840  15.904  0.1828 -0.0767  0.1201
91351W        W34289  21.840  19.882  16.318  0.3816 -0.3036  0.0516
91352W        W34290  18.695  18.473  15.905 -0.0802  0.2570 -0.0021
91353W        W34291  20.179  17.872  16.269  0.2162  0.0702 -0.2408
91354W        W34292  19.802  23.368  19.095  0.0108  0.3597  0.2537
91355W        W34293  21.568  20.914  17.536 -0.1619  0.2452 -0.0540
91356W        W34294  20.830  21.676  21.699  0.0914  0.2651  0.1313
91357W        W34295  19.879  21.711  18.358 -0.0988  0.1733 -0.1475
91358W        W34296  22.729  20.411  17.570  0.2387 -0.0832  0.0625
91359W        W34297  22.289  21.910  19.041 -0.1364 -0.2628 -0.2605
91360W        W34298  19.439  18.548  18.065 -0.1569 -0.1298 -0.1801
91361W        W34299  21.581  21.794  20.624  0.1922 -0.2901 -0.0225
91362W        W34300  19.505  18.401  18.557  0.0812 -0.0787  0.1396
91363W        W34301  20.689  22.759  19.637  0.0561  0.2913  0.1531
91364W        W34302  20.727  22.005  21.329  0.0962  0.0878  0.0833
91365W        W34303  20.730  20.429  19.706  0.0540  0.0812  0.1710
91366W        W34304  21.498  21.119  20.825  0.0135 -0.4332 -0.0906
91367W        W34305  20.171  22.846  21.291  0.2853 -0.0252  0.5380
91368W        W34306  22.897  18.221  20.277 -0.2775  0.0452  0.1521
91369W        W34307  21.544  20.668  19.848  0.0208  0.1536 -0.1331
91370W        W34308  19.313  20.504  18.175  0.0047  0.1197  0.0126
91371W        W34309  20.072  21.326  19.145  0.3883  0.0013 -0.0930
91372W        W34310  20.727  20.667  17.958 -0.2134 -0.1621 -0.0165
91373W        W34311  21.146  21.969  20.960 -0.0516  0.2260  0.0555
91374W        W34312  21.172  19.522  19.927  0.1192 -0.3866  0.0356
91375W        W34313  19.560  22.609  19.436 -0.0332  0.1141 -0.1252
91376W        W34314  18.756  20.573  18.035 -0.1281 -0.4216 -0.0377
91377W        W34315  18.472  19.975  18.212  0.1739  0.0791  0.0244
91378W        W34316  21.406  19.698  18.880  0.0731  0.0497 -0.0971
91379W        W34317  22.582  18.642  19.339  0.1749 -0.0364 -0.1205
91380W        W34318  20.469  21.330  19.933 -0.2396 -0.1745  0.1416
91381W        W34319  19.357  22.544  21.473 -0.3015 -0.2358 -0.2203
91382W        W34320  21.091  21.472  21.228 -0.1479 -0.1139  0.0473
91383W        W34321  22.176  18.643  20.914  0.0572  0.0478 -0.0901
91384W        W34322  19.660  22.118  18.643 -0.1377 -0.0280  0.0879
91385W        W34323  19.100  23.043  20.803  0.0683  0.0397 -0.3624
91386W        W34324  20.785  21.734  20.126 -0.0088  0.0978  0.0554
91387W        W34325  21.917  21.838  19.994  0.2408 -0.1015  0.0100
91388W        W34326  21.266  22.041  23.228  0.3276 -0.1572  0.2150
91389W        W34327  19.328  23.818  23.537 -0.2663 -0.1177 -0.0331
91390W        W34328  17.914  23.421  19.699 -0.4502  0.0351  0.0209
91391W        W34329  19.814  22.500  23.248 -0.2375  0.0150 -0.2396
91392W        W34330  20.584  21.442  21.280 -0.0334  0.0610 -0.1781
91393W        W34331  20.239  20.575  19.371 -0.0228 -0.0861  0.0444
91394W        W34332  19.327  22.937  19.742 -0.3272 -0.1006  0.1505
91395W        W34333  20.855  22.117  18.245  0.0071  0.0112  0.3463
91396W        W34334  20.748  21.710  20.790 -0.2089  0.1716 -0.0707
91397W        W34335  20.316  20.181  19.770  0.1636 -0.1453  0.1735
91398W        W34336  20.431  22.731  19.192 -0.3270 -0.1683  0.2524
91399W        W34337  23.523  18.621  22.434 -0.0048 -0.4807 -0.1904
91400W        W34338  20.009  24.962  19.253 -0.0446  0.1192  0.1708
91401W        W34339  22.464  20.822  20.211 -0.2303  0.0051  0.2183
91402W        W34340  20.063  20.623  17.279  0.0420  0.0787 -0.1532
91403W        W34341  21.492  19.748  19.460  0.0622 -0.1721  0.0962
91404W        W34342  20.795  18.953  18.626 -0.1311 -0.0441  0.1064
91405W        W34343  20.291  23.334  22.171 -0.0150  0.1717  0.1425
91406W        W34344  20.463  19.955  18.859 -0.0549 -0.0737  0.1291
91407W        W34345  21.830  20.576  22.457 -0.3167  0.0059 -0.0842
91408W        W34346  20.380  21.543  20.457 -0.0005  0.1164 -0.2598
91409W        W34347  20.969  20.056  20.515 -0.0496 -0.1307  0.1816
91410W        W34348  18.596  21.828  21.549  0.1516  0.1529  0.1503
91411W        W34349  18.328  21.836  19.728  0.2437  0.0559  0.0436
91412W        W34350  22.052  22.909  20.049  0.1992 -0.2099 -0.1605
91413W        W34351  22.946  22.385  21.667  0.3315 -0.0564  0.1142
91414W        W34352  21.534  22.125  19.602  0.1136 -0.3204 -0.2243
91415W        W34353  18.868  20.152  17.776 -0.1388  0.0278  0.1258
91416W        W34354  18.698  21.369  20.499  0.3843  0.1674 -0.0983
91417W        W34355  19.623  21.125  18.908  0.5134  0.2376 -0.1733
91418W        W34356  20.442  19.354  18.622  0.1646  0.1903  0.2223
91419W        W34357  21.764  21.231  21.896 -0.5914 -0.1952  0.0676
91420W        W34358  20.099  22.981  20.532 -0.3762  0.1844  0.0250
91421W        W34359  23.337  18.625  20.044 -0.3197  0.0762 -0.1702
91422W        W34360  19.944  22.154  19.849 -0.3812  0.0232  0.2480
91423W        W34361  22.501  20.728  21.845 -0.1956 -0.0329  0.0389
91424W        W34362  20.833  21.268  17.932  0.1071 -0.2495  0.0176
91425W        W34363  22.081  19.088  19.945  0.0270  0.0407 -0.3501
91426W        W34364  21.448  19.735  20.326  0.2183  0.1274  0.1082
91427W        W34365  20.302  21.084  17.965  0.2728 -0.0311  0.0072
91428W        W34366  20.046  22.323  17.824  0.0281 -0.4342 -0.0720
91429W        W34367  22.055  21.462  22.379  0.2677  0.0481  0.0335
91430W        W34368  23.375  20.995  20.508  0.0658  0.1999  0.1546
91431W        W34369  18.081  23.382  19.208  0.0845  0.0358 -0.1571
91432W        W34370  21.566  20.298  20.238  0.0979 -0.1921  0.1162
91433W        W34371  20.870  22.240  22.910  0.3235 -0.1383  0.1188
91434W        W34372  19.373  23.365  19.415  0.1025 -0.4015 -0.0710
91435W        W34373  18.994  21.375  20.041  0.1417 -0.2042  0.3414
91436W        W34374  18.919  22.004  18.902  0.0772  0.1510 -0.1680
91437W        W34375  18.754  22.891  19.777  0.1879  0.0535 -0.3753
91438W        W34376  22.006  19.508  19.504  0.3406  0.3910  0.0507
91439W        W34377  20.497  19.753  18.147  0.0673  0.1191  0.0755
91440W        W34378  22.433  18.139  19.511  0.3091  0.0111  0.0302
91441W        W34379  17.835  20.581  18.848 -0.2005  0.1155  0.0529
91442W        W34380  22.975  21.506  18.975 -0.1569  0.1609  0.2417
91443W        W34381  22.573  19.940  19.182 -0.2083  0.0287 -0.0035
91444W        W34382  21.538  20.288  18.237 -0.0560  0.0826 -0.3380
91445W        W34383  19.868  20.197  19.581  0.0087 -0.2933  0.0807
91446W        W34384  18.229  19.517  17.392  0.3891 -0.0409  0.4015
91447W        W34385  21.125  18.469  19.411 -0.1019 -0.1021 -0.2134
91448W        W34386  18.093  19.845  17.865  0.2923 -0.0031 -0.1628
91449W        W34387  22.232  20.368  22.071 -0.1818  0.2199  0.0810
91450W        W34388  20.408  19.603  17.142  0.0668  0.1836 -0.1145
91451W        W34389  21.517  21.162  19.818  0.3278  0.4234 -0.1407
91452W        W34390  19.735  22.042  18.049  0.3929  0.0072  0.2836
91453W        W34391  18.484  23.215  19.512  0.1271  0.0179  0.2143
91454W        W34392  22.405  18.412  22.182  0.0616  0.1032 -0.3173
91455W        W34393  21.398  22.601  19.345 -0.0113  0.1474  0.3019
91456W        W34394  22.775  20.797  22.206 -0.0734  0.2319 -0.0846
91457W        W34395  20.977  22.750  20.937  0.1048  0.0190 -0.1169
91458W        W34396  20.553  20.041  19.325 -0.0471  0.5725  0.2548
91459W        W34397  18.635  21.236  18.538 -0.1680  0.2891  0.0270
91460W        W34398  20.044  22.361  22.032 -0.2771 -0.0085  0.0892
91461W        W34399  19.790  23.258  19.662  0.2188 -0.1487  0.3387
91462W        W34400  20.879  19.621  18.535  0.2032  0.0309 -0.1135
91463W        W34401  20.922  23.190  21.845  0.0600 -0.1743  0.0942
91464W        W34402  21.332  21.071  19.316  0.2877 -0.2724  0.3538
91465W        W34403  19.042  22.462  19.146  0.0280 -0.0062 -0.1621
91466W        W34404  22.698  19.152  22.260  0.0853 -0.0753 -0.3068
91467W        W34405  22.991  20.312  21.840  0.0346  0.1456 -0.1591
91468W        W34406  20.828  19.282  19.735  0.0854 -0.3404 -0.2622
91469W        W34407  20.731  20.420  18.971 -0.0678  0.0647  0.0239
91470W        W34408  21.046  21.948  20.469  0.0936 -0.4995 -0.0929
91471W        W34409  18.396  23.697  19.602 -0.0433  0.1527 -0.0576
91472W        W34410  18.493  20.085  17.347 -0.3288  0.3372  0.1690
91473W        W34411  20.945  22.955  20.067 -0.0054 -0.1369  0.1089
91474W        W34412  22.475  20.272  20.477 -0.0638 -0.2139  0.1044
91475W        W34413  19.771  20.761  20.613  0.3005 -0.1053 -0.2832
91476W        W34414  21.828  19.743  20.649  0.0374  0.1032 -0.2362
91477W        W34415  20.069  19.948  18.455 -0.0852 -0.0259  0.0707
91478W        W34416  18.723  22.222  22.478  0.3098 -0.0156 -0.0668
91479W        W34417  21.607  20.174  19.186  0.3177  0.1198  0.1551
91480W        W34418  21.693  19.850  16.784 -0.0768  0.0055 -0.0652
91481W        W34419  21.229  21.791  22.027 -0.0783  0.2039  0.1094
91482W        W34420  22.446  21.468  19.320  0.0989  0.0883  0.2934
91483W        W34421  22.081  20.757  19.716  0.3821  0.0443 -0.0113
91484W        W34422  20.472  20.202  18.025  0.0269 -0.0734 -0.0909
91485W        W34423  20.213  21.525  20.941  0.0518 -0.1127 -0.2411
91486W        W34424  20.523  21.568  19.471 -0.0754  0.2544 -0.0264
91487W        W34425  20.053  21.978  20.354 -0.1070  0.0311  0.0968
91488W        W34426  20.358  20.082  17.513 -0.0596  0.0664 -0.1531
91489W        W34427  21.989  22.205  20.341 -0.3544  0.1358 -0.0758
91490W        W34428  19.412  21.550  19.780  0.1941 -0.0919 -0.1080
91491W        W34429  21.520  20.465  21.629 -0.0794  0.3336 -0.2080
91492W        W34430  21.559  21.664  21.081  0.2031 -0.0952  0.2861
91493W        W34431  20.102  18.601  19.179 -0.0377 -0.0642  0.3208
91494W        W34432  20.010  21.281  18.632 -0.3094  0.0667  0.2074
91495W        W34433  21.955  18.447  18.690  0.0764  0.0398 -0.2239
91496W        W34434  17.076  23.359  19.877  0.2329 -0.0293 -0.0331
91497W        W34435  22.061  20.248  18.940  0.2480 -0.2552  0.1083
91498W        W34436  22.464  19.426  20.409 -0.0154 -0.1559 -0.2001
91499W        W34437  21.220  18.091  19.695  0.2219 -0.0454 -0.2728
91500W        W34438  22.120  20.951  22.212  0.1148 -0.0054  0.0271
91501W        W34439  22.054  20.696  18.777 -0.3677  0.1771  0.0776
91502W        W34440  22.604  20.243  21.534 -0.1028  0.0495 -0.2516
91503W        W34441  20.633  20.487  17.425  0.0925 -0.0905  0.0837
91504W        W34442  22.213  19.826  20.327 -0.0751 -0.0254  0.0464
91505W        W34443  21.128  20.893  20.590  0.2424 -0.1879 -0.2004
91506W        W34444  18.614  22.186  19.501  0.2046 -0.3368 -0.3364
91507W        W34445  20.625  21.509  22.205  0.2425 -0.1647 -0.0405
91508W        W34446  21.495  21.534  19.439 -0.0051  0.0149 -0.0931
91509W        W34447  20.806  20.022  19.940  0.0624 -0.0779  0.1788
91510W        W34448  20.630  18.468  18.531 -0.2192 -0.0488  0.0364
91511W        W34449  17.532  23.169  19.973 -0.2545 -0.3593  0.0152
91512W        W34450  20.084  21.358  16.819  0.0078  0.1893  0.0881
91513W        W34451  20.447  20.827  18.378 -0.0745  0.0335  0.4329
91514W        W34452  20.281  23.520  21.283 -0.0814  0.2878 -0.1456
91515W        W34453  20.631  22.038  19.138 -0.0169  0.1472  0.1020
91516W        W34454  21.715  21.689  21.594 -0.1369  0.3150 -0.4794
91517W        W34455  18.992  21.615  18.572  0.2886  0.3003 -0.2055
91518W        W34456  21.635  18.177  20.161  0.2267 -0.0940 -0.2604
91519W        W34457  18.757  24.262  20.249  0.4326 -0.1299 -0.1525
91520W        W34458  20.985  21.372  19.673 -0.2514  0.0576  0.1394
91521W        W34459  18.884  20.816  18.467 -0.0843  0.0434 -0.0360
91522W        W34460  21.910  18.071  18.082  0.0118  0.1425  0.2160
91523W        W34461  20.650  21.222  18.657 -0.0094  0.0611 -0.2356
91524W        W34462  18.647  18.958  18.995 -0.0361  0.4248 -0.0925
91525W        W34463  21.270  20.671  19.047 -0.2596  0.1477 -0.1011
91526W        W34464  19.074  23.864  22.310 -0.1857 -0.2320  0.0054
91527W        W34465  21.762  20.621  19.322 -0.1463  0.1141 -0.0867
91528W        W34466  23.591  18.493  19.544  0.0294  0.0731 -0.1974
91529W        W34467  20.973  21.171  22.733 -0.4706 -0.0898 -0.1127
91530W        W34468  19.874  21.852  21.040  0.3494 -0.0454 -0.1561
91531W        W34469  20.107  19.215  17.882  0.0998 -0.3646 -0.1615
91532W        W34470  23.445  19.500  20.340 -0.4621  0.0056 -0.1463
91533W        W34471  19.429  20.678  18.746  0.0288 -0.0843 -0.1072
91534W        W34472  18.666  23.581  20.393  0.1307 -0.3636  0.3875
91535W        W34473  21.385  21.879  22.551  0.1331  0.2784  0.0954
91536W        W34474  18.959  20.347  18.511  0.0725  0.1162 -0.1362
91537W        W34475  18.938  22.932  19.313 -0.0384  0.1152  0.1169
91538W        W34476  21.700  18.828  20.571  0.1177  0.1432 -0.2185
91539W        W34477  21.890  20.863  20.966  0.0640 -0.4618  0.0190
91540W        W34478  20.310  18.404  18.059  0.1681  0.5086 -0.0647
91541W        W34479  20.294  20.647  17.724  0.1126 -0.0367  0.0194
91542W        W34480  20.549  20.405  20.243  0.0410  0.2408 -0.1196
91543W        W34481  22.217  21.695  20.441  0.1299  0.1465 -0.2032
91544W        W34482  21.165  18.909  19.758 -0.1124  0.1285  0.0701
91545W        W34483  19.839  22.142  21.533 -0.4983 -0.2473 -0.0153
91546W        W34484  20.935  18.922  19.298  0.0530  0.4633  0.0694
91547W        W34485  22.120  22.222  17.354 -0.4072  0.0038  0.0870
91548W        W34486  22.175  21.374  21.271  0.1060 -0.0529  0.2095
91549W        W34487  19.383  21.671  19.281  0.0335 -0.1362  0.0478
91550W        W34488  19.596  21.895  20.156  0.1385 -0.2190  0.1521
91551W        W34489  19.942  21.621  19.640  0.1485 -0.1152 -0.1853
91552W        W34490  20.406  18.945  19.440  0.2373 -0.1344  0.0730
91553W        W34491  18.634  22.227  20.076  0.0440 -0.0731  0.1639
91554W        W34492  20.030  23.775  18.860  0.3255  0.2007  0.0617
91555W        W34493  18.199  23.353  20.764  0.4123  0.1710  0.0655
91556W        W34494  22.324  18.864  18.858 -0.0265 -0.3185  0.0614
91557W        W34495  20.729  22.003  19.716 -0.2102 -0.0659 -0.0718
91558W        W34496  20.389  21.507  18.253 -0.1940 -0.1013  0.0072
91559W        W34497  21.763  19.017  22.437  0.0814 -0.2925  0.1059
91560W        W34498  22.063  21.135  18.555  0.1813  0.0042  0.2548
91561W        W34499  22.012  18.974  21.250  0.0322  0.2782  0.0798
91562W        W34500  20.279  20.408  18.758  0.0486 -0.0148 -0.1802
91563W        W34501  21.137  22.012  19.973 -0.1117  0.3280 -0.3520
91564W        W34502  19.414  20.076  18.728  0.1376 -0.0406  0.3072
91565W        W34503  21.096  22.516  23.210  0.3710 -0.3031 -0.0101
91566W        W34504  19.831  21.601  20.582  0.0935 -0.2527  0.0171
91567W        W34505  22.393  19.476  19.200  0.1939  0.0429  0.1260
91568W        W34506  20.636  19.160  17.308  0.0697  0.0475  0.1671
91569W        W34507  20.337  21.809  19.927  0.1013 -0.1355  0.2810
91570W        W34508  22.842  20.591  21.108  0.1413 -0.0648 -0.3822
91571W        W34509  20.934  21.624  18.320  0.0378 -0.0845 -0.1250
91572W        W34510  21.786  20.248  19.669 -0.1425  0.1178  0.0494
91573W        W34511  19.563  22.474  20.047  0.1932  0.2837  0.0677
91574W        W34512  21.200  21.485  20.633  0.0510  0.2594 -0.0665
91575W        W34513  19.453  22.190  19.050  0.1245  0.0023 -0.0189
91576W        W34514  19.514  21.586  18.662  0.0107 -0.2147 -0.1897
91577W        W34515  19.988  19.534  18.215 -0.0592  0.0669 -0.1493
91578W        W34516  23.429  21.458  20.677 -0.0249  0.2396  0.3189
91579W        W34517  22.254  19.768  18.734 -0.2854  0.1142 -0.3205
91580W        W34518  22.614  19.822  18.317  0.1953  0.3142 -0.0573
91581W        W34519  21.516  20.571  20.709  0.2151 -0.0048  0.2007
91582W        W34520  19.902  21.817  21.944 -0.1166 -0.1189  0.3122
91583W        W34521  20.036  20.080  19.114 -0.3409  0.0350 -0.0896
91584W        W34522  20.905  22.307  21.685  0.0488 -0.1016  0.0227
91585W        W34523  22.834  20.048  18.780 -0.0223  0.1846  0.0095
91586W        W34524  22.801  19.329  21.428 -0.0211 -0.1852  0.1834
91587W        W34525  22.882  21.444  20.611  0.0886  0.2755 -0.0705
91588W        W34526  22.422  20.364  18.553 -0.0153  0.1492  0.1244
91589W        W34527  17.902  20.073  18.700 -0.0632 -0.2061  0.0105
91590W        W34528  22.068  20.171  21.662 -0.1339 -0.0763 -0.1151
91591W        W34529  20.819  19.850  17.704 -0.1955 -0.2344  0.0385
91592W        W34530  22.345  19.817  21.384  0.2574 -0.0019  0.2323
91593W        W34531  21.032  21.735  19.312 -0.0096  0.0765  0.0502
91594W        W34532  21.419  21.601  20.131 -0.0933  0.0828 -0.0657
91595W        W34533  22.133  20.406  20.136  0.1033 -0.1431  0.1334
91596W        W34534  18.757  19.253  17.508 -0.0939  0.1804  0.3422
91597W        W34535  17.578  23.303  22.555  0.3004 -0.1539 -0.3231
91598W        W34536  19.845  19.524  17.268  0.0169 -0.1868  0.0035
91599W        W34537  19.991  22.698  19.768  0.1348 -0.1233 -0.1129
91600W        W34538  20.833  20.913  21.023  0.0726 -0.1216  0.0516
91601W        W34539  21.955  20.046  21.125 -0.3248  0.0824  0.2358
91602W        W34540  21.491  19.637  18.368 -0.2567 -0.1670  0.0350
91603W        W34541  21.210  19.741  21.167  0.3838  0.1591 -0.0218
91604W        W34542  18.432  22.739  19.407 -0.3796  0.0749 -0.0020
91605W        W34543  21.473  18.871  19.350  0.2884  0.3939  0.0717
91606W        W34544  18.919  23.212  22.453 -0.0281  0.1409 -0.0945
91607W        W34545  19.135  21.977  19.948 -0.0691  0.1726 -0.2686
91608W        W34546  19.038  22.404  19.706 -0.0563 -0.4353 -0.2505
91609W        W34547  21.363  17.908  18.100 -0.2274  0.0967 -0.0556
91610W        W34548  21.420  20.052  20.780 -0.0741 -0.4293  0.2709
91611W        W34549  20.337  21.977  20.904 -0.0469 -0.3660  0.2062
91612W        W34550  21.834  20.487  21.278 -0.4033 -0.1086 -0.5159
91613W        W34551  21.764  21.343  20.405  0.1152  0.1432 -0.0864
91614W        W34552  19.809  21.837  19.064  0.1870  0.1771  0.2171
91615W        W34553  20.681  20.724  20.597 -0.4558  0.2288  0.0983
91616W        W34554  21.990  21.402  20.814 -0.0822  0.0642 -0.0778
91617W        W34555  19.580  22.055  20.659 -0.1823  0.3781  0.0129
91618W        W34556  18.826  21.003  19.795 -0.3018 -0.0867 -0.0945
91619W        W34557  20.055  20.683  21.984 -0.0209  0.1186 -0.1149
91620W        W34558  21.517  20.901  20.280 -0.0771  0.2282 -0.1772
91621W        W34559  20.096  18.442  18.535  0.0895  0.0176  0.2766
91622W        W34560  21.061  21.268  20.175 -0.3756  0.1065  0.0690
91623W        W34561  19.366  24.646  22.714 -0.0408  0.3233  0.2817
91624W        W34562  18.327  23.474  20.012 -0.1768  0.0908  0.0005
91625W        W34563  21.258  22.378  20.700  0.1495  0.2121  0.1521
91626W        W34564  20.341  22.353  19.527 -0.2793 -0.0329 -0.1327
91627W        W34565  19.233  22.494  20.947  0.1066 -0.3588  0.1008
91628W        W34566  19.776  20.365  18.577 -0.0199  0.0011  0.3989
91629W        W34567  19.533  22.053  19.579  0.0466  0.4170 -0.4621
91630W        W34568  17.753  22.680  19.963 -0.1443  0.0623  0.1855
91631W        W34569  21.917  22.186  18.841  0.0080 -0.2502  0.0989
91632W        W34570  18.107  22.814  19.006  0.2320 -0.2750 -0.0386
91633W        W34571  21.790  21.921  23.430  0.0184 -0.0950 -0.0292
91634W        W34572  21.639  19.119  17.263  0.0274  0.0564 -0.1328
91635W        W34573  22.110  21.155  20.107 -0.2323 -0.0005 -0.0753
91636W        W34574  23.104  19.398  19.687  0.0375 -0.1402  0.0355
91637W        W34575  21.360  21.476  22.845 -0.0729  0.1036  0.0859
91638W        W34576  20.864  19.736  19.041  0.2267 -0.1012 -0.0662
91639W        W34577  21.043  20.572  18.610 -0.2439 -0.0728 -0.1123
91640W        W34578  22.556  18.815  21.242 -0.0622  0.2368  0.1416
91641W        W34579  18.237  22.901  21.675  0.0321 -0.0011  0.0888
91642W        W34580  22.942  23.672  19.622  0.0227  0.1485  0.3340
91643W        W34581  18.927  19.182  18.492  0.0352  0.1106 -0.0631
91644W        W34582  21.156  21.012  18.742 -0.1272  0.0664  0.0111
91645W        W34583  21.999  18.300  20.451 -0.1431 -0.2459  0.0458
91646W        W34584  19.858  21.294  16.096  0.0738  0.2760  0.4546
91647W        W34585  21.230  20.474  19.507 -0.0498 -0.3362  0.3541
91648W        W34586  20.416  22.801  20.136 -0.0738 -0.0787  0.1960
91649W        W34587  20.315  21.532  21.793 -0.1528 -0.0898 -0.0369
91650W        W34588  21.344  21.411  21.709 -0.0453  0.0687  0.0032
91651W        W34589  19.018  18.415  17.844  0.1818 -0.0157  0.0069
91652W        W34590  21.128  19.204  18.826  0.1629  0.0672  0.2093
91653W        W34591  20.679  20.182  18.472  0.1412  0.2407 -0.0294
91654W        W34592  22.780  19.494  20.962 -0.2793 -0.0012  0.0339
91655W        W34593  18.804  19.621  18.344 -0.1426  0.1318 -0.1883
91656W        W34594  22.517  20.434  19.817 -0.1502  0.0212 -0.1173
91657W        W34595  22.305  19.712  20.803 -0.2660 -0.0045 -0.0769
91658W        W34596  21.121  19.394  19.291 -0.0530 -0.0678 -0.1944
91659W        W34597  22.593  21.965  21.198 -0.1130  0.1749 -0.2007
91660W        W34598  22.461  20.380  18.031  0.0268  0.1142 -0.0490
91661W        W34599  21.600  23.597  22.403 -0.1482 -0.1473  0.0124
91662W        W34600  21.082  20.299  17.722 -0.0300  0.0522  0.1174
91663W        W34601  21.262  18.628  18.970 -0.2011 -0.0281  0.0427
91664W        W34602  17.925  21.455  17.887  0.1829  0.2303  0.2618
91665W        W34603  20.495  20.530  21.179  0.1311 -0.0698  0.2688
91666W        W34604  20.974  22.685  22.025  0.0720 -0.0628 -0.2511
91667W        W34605  18.783  18.046  18.185  0.2180 -0.4164  0.1225
91668W        W34606  22.115  21.866  17.719  0.3772 -0.1194 -0.1292
91669W        W34607  22.007  20.782  20.462 -0.0742  0.0408  0.1475
91670W        W34608  20.070  22.314  18.338 -0.0655  0.1851  0.2522
91671W        W34609  20.507  22.318  19.964  0.1187 -0.1247  0.2612
91672W        W34610  21.643  22.122  21.812  0.3031 -0.0933 -0.3223
91673W        W34611  19.900  20.765  18.811  0.0004  0.0871  0.0937
91674W        W34612  20.344  22.547  23.803 -0.1319 -0.5575  0.2668
91675W        W34613  22.485  21.595  21.523 -0.0385  0.1276  0.0618
91676W        W34614  22.067  19.563  17.873 -0.0072  0.0795 -0.1219
91677W        W34615  18.956  21.861  19.447 -0.0577 -0.1728  0.1062
91678W        W34616  17.947  22.829  19.503 -0.2647 -0.0674 -0.1916
91679W        W34617  20.835  19.620  20.244 -0.2492  0.1633  0.0077
91680W        W34618  21.417  20.748  21.184  0.1564  0.0873  0.3283
91681W        W34619  20.810  20.779  17.034  0.2620  0.0739  0.0156
91682W        W34620  24.173  18.371  21.651 -0.1680  0.1429  0.3910
91683W        W34621  18.516  22.789  22.469  0.1787 -0.0376 -0.1212
91684W        W34622  18.870  21.692  23.660 -0.1208 -0.0802 -0.1699
91685W        W34623  19.819  20.576  16.845 -0.3277 -0.1416  0.1577
91686W        W34624  21.242  21.975  21.467  0.2146  0.2071  0.2330
91687W        W34625  19.423  23.342  20.071 -0.1363  0.2365 -0.1601
91688W        W34626  21.417  21.987  18.977  0.1843  0.2076 -0.2625
91689W        W34627  21.680  21.706  22.128 -0.0325 -0.0909  0.3543
91690W        W34628  22.362  22.443  19.154  0.0113 -0.0530 -0.0834
91691W        W34629  21.531  22.745  21.268  0.0505 -0.0308 -0.0428
91692W        W34630  20.374  18.822  18.761  0.0937 -0.0720 -0.0759
91693W        W34631  23.929  18.137  19.141 -0.2389 -0.1073  0.1878
91694W        W34632  22.366  17.875  19.055  0.0234 -0.0337 -0.1680
91695W        W34633  20.912  21.105  21.489 -0.2188  0.1376  0.1249
91696W        W34634  18.188  20.719  18.098 -0.1860  0.0956  0.2660
91697W        W34635  19.265  23.458  18.684  0.1918  0.1231 -0.0131
91698W        W34636  18.625  22.715  20.262 -0.0427  0.1994  0.2358
91699W        W34637  21.003  18.291  20.108  0.2153  0.1238 -0.0402
91700W        W34638  17.960  21.828  18.829 -0.2822  0.0682 -0.0569
91701W        W34639  19.058  18.241  17.358 -0.2621  0.1183 -0.1532
91702W        W34640  22.137  23.183  19.581 -0.0867 -0.3237 -0.2716
91703W        W34641  20.417  20.820  18.980 -0.1258  0.1038  0.1617
91704W        W34642  18.351  19.049  17.186  0.1128 -0.1353 -0.3776
91705W        W34643  20.532  22.162  20.429 -0.0012 -0.1014  0.0305
91706W        W34644  22.082  22.919  19.163  0.0029 -0.1872  0.1152
91707W        W34645  19.857  16.941  17.905 -0.3724 -0.2120  0.0384
91708W        W34646  21.110  22.212  23.642  0.2346  0.0264 -0.0316
91709W        W34647  19.007  20.707  17.586  0.0285  0.1286 -0.3675
91710W        W34648  21.041  20.786  21.966 -0.1175 -0.0584 -0.1497
91711W        W34649  17.368  19.423  17.835  0.0028  0.1307  0.2493
91712W        W34650  20.722  20.875  20.078  0.0207 -0.3017  0.1884
91713W        W34651  20.986  22.459  20.215 -0.2415  0.0148  0.0652
91714W        W34652  20.623  23.200  19.789  0.0504  0.0919 -0.2443
91715W        W34653  21.062  20.465  20.836 -0.1708 -0.0086  0.1022
91716W        W34654  19.767  22.179  22.829  0.2477  0.1596  0.0658
91717W        W34655  19.985  19.039  18.510  0.0912 -0.5218 -0.3373
91718W        W34656  21.334  20.052  19.912 -0.0536 -0.2108 -0.2805
91719W        W34657  19.579  21.193  20.214  0.1036  0.2737  0.1237
91720W        W34658  22.350  21.163  20.577 -0.0717 -0.1133  0.0010
91721W        W34659  22.740  19.795  20.515  0.0015  0.2037 -0.2104
91722W        W34660  21.112  20.443  20.194  0.0761 -0.0232 -0.1418
91723W        W34661  19.572  19.608  18.483 -0.0354  0.0781  0.2225
91724W        W34662  19.608  21.277  19.426  0.0725  0.0983 -0.3896
91725W        W34663  22.325  21.127  22.637 -0.2440  0.1365 -0.1040
91726W        W34664  19.693  18.770  18.858 -0.1663  0.0474  0.0769
91727W        W34665  21.990  18.924  18.487  0.2896  0.0685 -0.1944
91728W        W34666  21.172  22.232  18.621  0.2025  0.0377 -0.1141
91729W        W34667  19.651  20.433  19.156  0.1090 -0.1929  0.2069
91730W        W34668  21.125  20.898  19.790 -0.3762 -0.1115  0.1420
91731W        W34669  22.046  19.263  20.728  0.1117  0.2115 -0.6247
91732W        W34670  20.338  20.985  21.356  0.4165 -0.2652  0.4143
91733W        W34671  20.482  20.289  20.723 -0.0275 -0.0129  0.2443
91734W        W34672  20.109  21.145  19.649  0.0333 -0.1671  0.1021
91735W        W34673  22.846  20.488  20.227  0.5260 -0.2505  0.0237
91736W        W34674  20.266  21.914  21.392  0.2423  0.1361  0.1050
91737W        W34675  21.407  22.798  23.541 -0.0429 -0.2535  0.1672
91738W        W34676  19.193  23.479  20.569  0.1400 -0.1215 -0.1215
91739W        W34677  22.882  20.917  20.563  0.1898 -0.1082  0.0783
91740W        W34678  19.844  20.886  19.295 -0.1201 -0.2027  0.3152
91741W        W34679  20.534  21.077  19.432  0.2050  0.2047  0.1646
91742W        W34680  21.591  19.226  19.752  0.0377  0.1251 -0.0767
91743W        W34681  19.526  21.528  17.993  0.2016 -0.0124  0.1144
91744W        W34682  21.281  19.869  17.595  0.1685 -0.0175  0.2421
91745W        W34683  20.479  21.992  22.003 -0.0061  0.5202 -0.0939
91746W        W34684  22.833  19.968  21.084  0.1447  0.2025 -0.2011
91747W        W34685  19.187  20.787  25.171 -0.2098 -0.0217 -0.1175
91748W        W34686  20.709  18.257  21.184  0.1321  0.0705  0.0779
91749W        W34687  21.729  20.194  22.064 -0.0355 -0.3001  0.0756
91750W        W34688  22.029  21.206  23.027 -0.0747 -0.1722  0.2109
91751W        W34689  18.125  20.033  21.760  0.1543 -0.0127  0.0894
91752W        W34690  22.145  20.688  23.354  0.4906 -0.0103 -0.1162
91753W        W34691  21.462  20.766  22.815  0.1785  0.1084 -0.0685
91754W        W34692  21.823  18.652  24.083 -0.0272 -0.0740 -0.0602
91755W        W34693  21.472  21.592  23.353  0.1724  0.1503 -0.3268
91756W        W34694  19.880  19.905  23.765 -0.1153 -0.3430 -0.0025
91757W        W34695  21.162  21.949  25.098  0.1898  0.0242 -0.1184
91758W        W34696  22.646  18.179  24.992  0.0962 -0.0117  0.1738
91759W        W34697  19.450  21.258  21.252 -0.1688  0.0955 -0.2982
91760W        W34698  19.585  19.416  22.772 -0.1723 -0.0357 -0.2356
91761W        W34699  18.754  18.291  19.994 -0.0475 -0.1939 -0.3432
91762W        W34700  18.655  20.886  22.599 -0.2738 -0.2919 -0.0387
91763W        W34701  20.856  18.074  25.099 -0.1315 -0.0483 -0.3007
91764W        W34702  21.418  21.086  23.694  0.0561 -0.0104  0.1460
91765W        W34703  21.642  19.798  23.014 -0.0647 -0.0136  0.2489
91766W        W34704  21.954  20.184  22.754  0.0870 -0.1427 -0.1864
91767W        W34705  21.806  21.919  25.769  0.2481 -0.1695  0.0445
91768W        W34706  20.105  21.530  23.157 -0.1731  0.0498 -0.0985
91769W        W34707  21.030  17.733  24.780  0.0597 -0.3535 -0.1812
91770W        W34708  18.692  22.599  22.032  0.1423 -0.2259  0.2354
91771W        W34709  18.886  21.674  21.950 -0.4510 -0.1374 -0.1582
91772W        W34710  20.143  21.602  22.420 -0.1138  0.0641  0.1975
91773W        W34711  22.791  21.310  23.627  0.0724  0.0890  0.1566
91774W        W34712  20.707  20.728  24.091 -0.2364 -0.1351  0.0734
91775W        W34713  18.270  24.028  26.384  0.0388  0.1670 -0.1662
91776W        W34714  18.358  21.996  22.037  0.0160 -0.0541 -0.0042
91777W        W34715  20.965  21.045  25.768 -0.1631 -0.1558 -0.0270
91778W        W34716  17.489  21.824  25.729 -0.2767  0.0296  0.4182
91779W        W34717  21.022  21.274  22.039  0.3223 -0.3349  0.2846
91780W        W34718  19.313  20.801  22.824  0.0103  0.0296 -0.1533
91781W        W34719  19.917  20.904  24.259 -0.0451  0.2134 -0.0089
91782W        W34720  19.311  21.122  23.249 -0.1887  0.1020 -0.2314
91783W        W34721  22.078  17.756  23.872  0.1229  0.1489  0.2349
91784W        W34722  19.811  22.829  21.652 -0.1047  0.2821 -0.0060
91785W        W34723  21.977  20.742  21.764 -0.1491 -0.0749 -0.0799
91786W        W34724  20.463  20.612  21.734  0.1509 -0.0592 -0.1887
91787W        W34725  20.943  19.568  21.644 -0.0630  0.1070  0.1020
91788W        W34726  19.016  21.911  24.055 -0.1137 -0.2974 -0.0117
91789W        W34727  18.946  18.689  24.464 -0.1398  0.0026 -0.1647
91790W        W34728  21.560  20.151  25.549  0.2169 -0.0578 -0.2190
91791W        W34729  21.477  20.287  22.636  0.0249  0.3208 -0.0507
91792W        W34730  22.057  19.941  23.960 -0.0583 -0.2226  0.0336
91793W        W34731  21.197  21.859  24.555 -0.0385  0.0268  0.1305
91794W        W34732  22.856  22.877  22.461 -0.0254 -0.0867 -0.1768
91795W        W34733  22.535  20.843  24.452 -0.0341 -0.1245 -0.0265
91796W        W34734  21.299  21.535  23.980 -0.0013  0.3526 -0.2978
91797W        W34735  19.719  20.348  21.798 -0.0200 -0.2902  0.1633
91798W        W34736  18.831  19.640  24.301 -0.0228  0.0632  0.1929
91799W        W34737  18.274  20.867  23.374  0.0407  0.4122 -0.3635
91800W        W34738  20.004  19.590  18.738 -0.3280 -0.0046 -0.2904
91801W        W34739  21.028  19.956  25.468 -0.1155 -0.0987 -0.0538
91802W        W34740  19.728  20.806  26.156  0.1085  0.3274  0.1630
91803W        W34741  23.454  17.603  23.268 -0.2829  0.3047  0.1994
91804W        W34742  18.066  21.376  22.869  0.0404  0.0051  0.0110
91805W        W34743  20.352  19.842  25.463  0.0919 -0.1068 -0.0831
91806W        W34744  22.678  21.916  23.374 -0.6125 -0.3124 -0.0484
91807W        W34745  21.985  19.392  23.708  0.0020  0.2791  0.1829
91808W        W34746  21.882  19.310  23.171  0.2857  0.2787 -0.1548
91809W        W34747  20.363  20.697  19.822 -0.1399 -0.1010  0.0476
91810W        W34748  20.637  21.014  22.322 -0.0658 -0.3228 -0.0384
91811W        W34749  20.822  19.965  24.017  0.1620 -0.0049  0.2941
91812W        W34750  21.676  19.894  22.484  0.0434  0.0302  0.3061
91813W        W34751  20.100  21.336  25.390  0.1876  0.0934  0.3178
91814W        W34752  19.092  19.136  26.053 -0.0097 -0.2511 -0.1999
91815W        W34753  20.176  21.642  24.891  0.2694  0.2658  0.2215
91816W        W34754  17.015  23.998  22.677  0.0599  0.0643  0.1527
91817W        W34755  18.253  20.507  21.860 -0.2167 -0.0816  0.1175
91818W        W34756  19.444  21.628  20.913  0.1374 -0.1077  0.1301
91819W        W34757  18.434  19.191  21.858 -0.2501 -0.2955 -0.0081
91820W        W34758  20.877  20.405  23.181  0.1699 -0.1460 -0.3692
91821W        W34759  22.432  18.794  23.073  0.1857  0.0126 -0.2049
91822W        W34760  22.285  16.500  23.669  0.2006  0.1516 -0.4470
91823W        W34761  17.837  22.227  21.261 -0.2271 -0.0016 -0.0633
91824W        W34762  21.953  21.240  25.027 -0.0544  0.0349 -0.2021
91825W        W34763  23.278  19.861  23.249 -0.1145  0.0387  0.0824
91826W        W34764  21.423  21.378  22.353 -0.1030  0.1698  0.0825
91827W        W34765  20.262  20.985  20.859 -0.1015  0.0460  0.2563
91828W        W34766  19.836  18.422  22.907  0.1096  0.2408  0.0885
91829W        W34767  18.745  19.487  21.496 -0.4633 -0.2009  0.2444
91830W        W34768  20.747  19.268  24.628  0.3719  0.0374 -0.1106
91831W        W34769  17.990  17.870  20.354 -0.0461 -0.2226  0.2194
91832W        W34770  22.164  19.713  23.291 -0.3030  0.1268  0.3308
91833W        W34771  19.548  20.816  21.608  0.5272  0.1456  0.0518
91834W        W34772  22.337  18.979  24.388 -0.0008 -0.0107  0.4410
91835W        W34773  21.877  21.624  22.921  0.0761  0.1120 -0.2506
91836W        W34774  21.655  19.283  25.876  0.3659  0.0661  0.1062
91837W        W34775  22.470  21.401  24.703  0.3990  0.0422 -0.1818
91838W        W34776  19.977  19.699  20.444 -0.2941 -0.1030 -0.0302
91839W        W34777  20.550  21.246  23.225 -0.1407  0.1783 -0.1605
91840W        W34778  19.136  21.257  22.664  0.2104  0.0680 -0.3084
91841W        W34779  20.437  18.642  20.954 -0.1799  0.1988  0.0711
91842W        W34780  21.780  20.281  25.141  0.1008 -0.4654 -0.0954
91843W        W34781  20.318  21.078  23.870 -0.0430  0.1905  0.0552
91844W        W34782  19.039  20.110  24.687 -0.0596 -0.1410  0.4101
91845W        W34783  20.755  19.055  23.916  0.2799 -0.2970  0.4157
91846W        W34784  22.234  20.499  25.972 -0.2466  0.0356 -0.0362
91847W        W34785  22.808  19.437  23.390 -0.2866 -0.1547 -0.1247
91848W        W34786  18.775  17.747  20.029 -0.2371  0.1801  0.2234
91849W        W34787  20.669  21.880  25.281  0.1912 -0.0449 -0.2001
91850W        W34788  19.331  21.955  21.946  0.3130 -0.1868 -0.0586
91851W        W34789  18.677  20.229  21.581  0.2409  0.0264 -0.1515
91852W        W34790  19.063  20.741  22.330  0.0362 -0.1280 -0.0882
91853W        W34791  23.006  18.786  23.626  0.0268  0.2432  0.0755
91854W        W34792  20.024  20.507  20.254  0.3829  0.0484  0.1981
91855W        W34793  18.384  21.934  24.780  0.1463  0.2909 -0.1618
91856W        W34794  22.492  20.028  22.734 -0.2756  0.2096  0.1326
91857W        W34795  21.293  19.815  24.353 -0.2559  0.2655  0.1398
91858W        W34796  21.203  20.748  23.258 -0.0503  0.1894  0.1035
91859W        W34797  22.329  19.334  21.216 -0.1123 -0.3098  0.2368
91860W        W34798  22.563  18.972  21.730 -0.0242  0.3087 -0.2129
91861W        W34799  18.775  21.106  23.604  0.1635  0.1848  0.0489
91862W        W34800  20.449  21.742  23.483 -0.1640 -0.2384  0.2210
91863W        W34801  19.661  21.152  22.845  0.4152  0.0203  0.1699
91864W        W34802  21.204  18.784  20.683 -0.0006  0.1186 -0.2455
91865W        W34803  22.594  20.564  23.059  0.0681 -0.0920 -0.2300
91866W        W34804  18.287  20.778  22.256 -0.0659 -0.0139  0.1671
91867W        W34805  20.422  20.325  26.887 -0.1163  0.1832 -0.0159
91868W        W34806  22.036  20.734  24.242 -0.0721 -0.0741 -0.1574
91869W        W34807  19.629  18.158  23.335  0.1132  0.2993 -0.0438
91870W        W34808  18.162  22.610  22.074 -0.0594  0.3951  0.4660
91871W        W34809  21.616  18.763  25.706 -0.0016 -0.0936 -0.3148
91872W        W34810  21.036  19.415  24.215 -0.1137 -0.0493  0.1330
91873W        W34811  22.142  18.660  23.425 -0.0434  0.2940 -0.2388
91874W        W34812  21.016  20.212  24.719 -0.3910  0.0511  0.0234
91875W        W34813  19.180  20.099  23.345  0.2342  0.0469 -0.4686
91876W        W34814  19.903  21.901  27.339  0.0649 -0.2264 -0.2706
91877W        W34815  20.708  20.370  22.698  0.2187 -0.0604  0.1149
91878W        W34816  21.005  21.631  22.495  0.0378 -0.1342  0.0566
91879W        W34817  22.006  19.133  21.835 -0.0456  0.1761 -0.0102
91880W        W34818  20.973  20.584  21.402 -0.0682  0.1635  0.1797
91881W        W34819  20.053  20.559  21.475 -0.0638  0.1390 -0.1961
91882W        W34820  20.351  18.595  22.860  0.0629 -0.4203  0.0779
91883W        W34821  20.318  21.560  24.010  0.0566 -0.2178 -0.3883
91884W        W34822  20.710  21.204  20.668  0.4753  0.3493 -0.3691
91885W        W34823  19.763  19.439  26.254  0.0077 -0.0184  0.0482
91886W        W34824  19.774  21.898  23.238 -0.1211 -0.4199  0.0913
91887W        W34825  21.187  18.741  23.434  0.3711  0.0670  0.2517
91888W        W34826  17.278  22.280  24.729  0.1276  0.3142  0.3300
91889W        W34827  20.626  19.201  19.029  0.2190  0.0847 -0.1598
91890W        W34828  22.616  19.629  22.954 -0.0088  0.0317  0.1264
91891W        W34829  21.157  20.291  22.017  0.2017 -0.0758 -0.0428
91892W        W34830  19.988  18.979  23.043  0.0320  0.2598 -0.1903
91893W        W34831  20.034  21.449  24.444 -0.1363 -0.2199 -0.0431
91894W        W34832  22.113  18.800  25.820 -0.0489 -0.1700  0.1197
91895W        W34833  22.955  19.241  22.940 -0.0436  0.2602  0.0699
91896W        W34834  20.389  20.206  23.081  0.2304 -0.0871 -0.3292
91897W        W34835  20.032  19.572  24.161 -0.0559  0.2455 -0.0445
91898W        W34836  17.675  19.635  18.953  0.4038  0.0406 -0.0156
91899W        W34837  22.621  18.079  24.395  0.0169  0.0643  0.1534
91900W        W34838  18.589  21.465  22.827  0.1517 -0.0354  0.0227
91901W        W34839  19.268  21.889  23.413  0.2880 -0.2441  0.0999
91902W        W34840  19.712  21.274  21.881 -0.1112 -0.0439 -0.2374
91903W        W34841  20.131  20.369  24.378 -0.2562 -0.0012  0.1906
91904W        W34842  20.550  19.454  24.185 -0.2062 -0.2456 -0.1334
91905W        W34843  19.808  20.024  24.251 -0.6163  0.0496  0.4221
91906W        W34844  20.646  20.405  22.162  0.0075  0.3008  0.1238
91907W        W34845  22.197  18.946  23.804 -0.4615  0.2858 -0.0746
91908W        W34846  20.340  20.064  24.007 -0.1609  0.1426  0.3051
91909W        W34847  20.500  21.225  24.773  0.1534  0.2016  0.1126
91910W        W34848  20.347  19.002  21.508  0.1672  0.2472 -0.0659
91911W        W34849  21.989  22.733  24.348  0.2351 -0.2836 -0.1702
91912W        W34850  20.768  20.379  25.188  0.1369 -0.1118 -0.1202
91913W        W34851  19.576  21.781  21.442  0.2475 -0.1297  0.0918
91914W        W34852  20.113  21.125  22.730 -0.0200  0.0206  0.2016
91915W        W34853  18.976  20.608  23.233  0.1443  0.0128  0.2587
91916W        W34854  19.264  21.649  20.422  0.0841  0.0883 -0.2723
91917W        W34855  19.787  21.366  23.953 -0.2321 -0.0587  0.1175
91918W        W34856  22.637  19.733  22.375 -0.1349 -0.0426  0.1574
91919W        W34857  21.755  21.126  22.597  0.1088  0.0560 -0.1331
91920W        W34858  21.745  18.984  24.682  0.0010 -0.1771  0.3463
91921W        W34859  20.502  21.452  22.750  0.1417  0.3522  0.1499
91922W        W34860  21.605  18.733  23.214  0.1033  0.1388  0.0766
91923W        W34861  21.331  19.281  23.341 -0.0069  0.1166  0.2410
91924W        W34862  20.719  21.093  26.208  0.0541 -0.1784  0.0846
91925W        W34863  18.209  21.419  24.858  0.0084 -0.0995 -0.2083
91926W        W34864  21.548  19.389  22.137  0.2710 -0.1226  0.1972
91927W        W34865  18.164  18.684  19.743 -0.1595  0.2808 -0.1887
91928W        W34866  22.006  20.685  24.817 -0.0316  0.0616 -0.0542
91929W        W34867  21.270  19.742  22.611  0.0808 -0.0671 -0.1531
91930W        W34868  22.226  19.491  24.159 -0.0006 -0.0342 -0.0356
91931W        W34869  20.565  20.443  23.686  0.1114 -0.1592  0.0404
91932W        W34870  22.527  20.415  23.622  0.0466 -0.1851 -0.1788
91933W        W34871  20.583  21.102  21.860 -0.2022 -0.2243 -0.2030
91934W        W34872  20.845  20.945  23.628  0.0610 -0.3765  0.1980
91935W        W34873  22.100  20.761  22.879  0.1220 -0.2549  0.6410
91936W        W34874  21.516  19.346  22.797  0.1120 -0.2015  0.1803
91937W        W34875  22.135  19.370  24.653  0.0747  0.0960  0.1549
91938W        W34876  20.198  20.260  25.932  0.2572 -0.0650  0.0425
91939W        W34877  19.034  18.217  24.530  0.2133  0.0365  0.2448
91940W        W34878  20.018  19.949  25.009 -0.1230 -0.0800  0.2189
91941W        W34879  24.147  21.019  22.951 -0.2037 -0.2070  0.3947
91942W        W34880  23.322  19.010  23.295 -0.0838 -0.0020  0.0188
91943W        W34881  21.700  19.788  23.498  0.0202 -0.2814 -0.1391
91944W        W34882  22.670  20.228  22.245 -0.1072 -0.3280 -0.0009
91945W        W34883  20.132  18.631  21.826 -0.3440 -0.1937 -0.3052
91946W        W34884  21.348  18.811  24.297 -0.1363  0.3215  0.1106
91947W        W34885  21.250  19.015  23.839  0.0881 -0.0446 -0.1310
91948W        W34886  21.129  22.258  22.227 -0.2027 -0.3100  0.0955
91949W        W34887  20.550  20.897  22.869 -0.5231  0.2250 -0.1039
91950W        W34888  22.139  19.392  22.328  0.1144  0.1095  0.0009
91951W        W34889  17.622  20.094  21.727 -0.1422  0.0180 -0.4665
91952W        W34890  18.319  20.728  26.074  0.0158 -0.1136 -0.2668
91953W        W34891  20.987  21.975  24.083 -0.3301  0.1650 -0.2183
91954W        W34892  22.045  19.317  25.569  0.1604  0.1386 -0.0659
91955W        W34893  20.216  18.163  21.119 -0.1049 -0.4084  0.2728
91956W        W34894  22.116  18.620  24.818  0.0234 -0.1187  0.2135
91957W        W34895  18.708  21.214  22.197 -0.1966 -0.0209 -0.2405
91958W        W34896  22.701  18.690  22.568  0.2985 -0.0030  0.0873
91959W        W34897  19.021  21.997  22.983 -0.0538  0.1149 -0.1097
91960W        W34898  17.779  21.422  23.375 -0.1801 -0.0143  0.1649
91961W        W34899  19.877  22.105  24.629 -0.0537  0.0344  0.2118
91962W        W34900  22.333  19.213  23.399 -0.0184  0.3325  0.1093
91963W        W34901  21.558  19.615  23.933 -0.3294 -0.2121 -0.2442
91964W        W34902  21.715  20.444  23.102 -0.3137 -0.0270  0.1775
91965W        W34903  21.907  18.495  27.052 -0.0099 -0.2021 -0.0812
91966W        W34904  20.433  20.227  24.769  0.3808 -0.0719  0.2265
91967W        W34905  20.438  21.092  25.701 -0.0439  0.3310 -0.0392
91968W        W34906  22.829  20.978  24.868  0.0209 -0.1362  0.0110
91969W        W34907  20.234  22.044  22.930 -0.1526 -0.1850 -0.0573
91970W        W34908  18.655  21.105  23.145 -0.0925  0.2603 -0.1555
91971W        W34909  21.830  19.717  24.375 -0.1300  0.2594  0.2150
91972W        W34910  21.108  20.704  22.505  0.0901 -0.1485  0.2158
91973W        W34911  19.809  22.351  21.019  0.1223 -0.3237 -0.0556
91974W        W34912  19.771  21.229  25.088  0.0916  0.1510 -0.4166
91975W        W34913  19.499  20.288  23.729 -0.2570  0.2881  0.0698
91976W        W34914  16.697  23.367  22.123 -0.0674 -0.0223 -0.1472
91977W        W34915  22.427  19.185  22.755 -0.0173  0.3949  0.2247
91978W        W34916  20.709  22.153  22.447 -0.0118  0.1748  0.1130
91979W        W34917  21.768  22.148  25.321 -0.0470  0.0652  0.0056
91980W        W34918  21.665  19.476  21.626  0.2309 -0.0542  0.7174
91981W        W34919  20.155  22.001  25.289 -0.1083  0.0853 -0.1020
91982W        W34920  18.877  22.561  21.425 -0.1072 -0.4136 -0.0360
91983W        W34921  22.326  19.926  24.517  0.0050  0.0952  0.1390
91984W        W34922  19.592  21.472  23.446 -0.2672  0.0781  0.0546
91985W        W34923  20.902  20.179  25.885 -0.3980  0.1141 -0.1052
91986W        W34924  22.916  18.493  22.164  0.1042 -0.0179  0.1341
91987W        W34925  22.540  20.146  23.995  0.0645  0.0826 -0.0957
91988W        W34926  23.457  19.366  22.902  0.1727 -0.1026  0.2515
91989W        W34927  18.899  20.205  26.961 -0.0425 -0.0386 -0.2705
91990W        W34928  20.064  20.538  23.863  0.3039  0.0197  0.2979
91991W        W34929  20.433  19.618  24.963  0.0435  0.0526  0.2897
91992W        W34930  22.166  17.293  24.050 -0.0241 -0.2841  0.3186
91993W        W34931  20.091  20.474  25.063 -0.1870  0.1054  0.0960
91994W        W34932  23.907  22.281  25.451  0.1482 -0.1350 -0.0264
91995W        W34933  18.680  18.846  19.811 -0.0970  0.0016 -0.1936
91996W        W34934  22.278  17.550  22.589  0.0510 -0.0823  0.0175
91997W        W34935  20.310  20.790  23.469  0.1234  0.1421  0.0185
91998W        W34936  19.640  21.640  24.740 -0.2719  0.0710 -0.0437
91999W        W34937  19.094  21.790  22.415 -0.0568  0.3336 -0.2460
92000W        W34938  20.707  21.773  24.789  0.0170  0.0188  0.0673
92001W        W34939  23.750  19.199  22.521  0.2381 -0.1675  0.1695
92002W        W34940  21.719  19.011  23.629  0.1454  0.0766  0.1266
92003W        W34941  19.469  21.185  20.744 -0.1709  0.2101 -0.1199
92004W        W34942  23.514  19.547  22.198 -0.3627  0.0535  0.1237
92005W        W34943  18.512  20.555  23.080  0.0181  0.1977 -0.2941
92006W        W34944  21.171  19.622  20.728  0.4402 -0.0173  0.2669
92007W        W34945  21.295  18.189  24.891 -0.0778 -0.0031 -0.3097
92008W        W34946  20.865  19.979  22.381  0.0822 -0.0469 -0.0150
92009W        W34947  20.422  21.107  24.354 -0.2691 -0.1836  0.4474
92010W        W34948  20.021  18.685  21.288  0.1109 -0.2156  0.2098
92011W        W34949  22.259  18.853  22.360  0.1062 -0.0770  0.2979
92012W        W34950  20.618  20.320  24.319 -0.1683  0.0584  0.0622
92013W        W34951  20.819  19.775  24.504 -0.0124  0.1193  0.0905
92014W        W34952  22.141  19.941  22.333  0.0873  0.1722  0.1795
92015W        W34953  22.253  19.274  26.039  0.1464 -0.1027  0.1107
92016W        W34954  19.226  23.005  22.060 -0.2058 -0.3179  0.1359
92017W        W34955  21.522  20.276  23.561 -0.0016 -0.1567 -0.2056
92018W        W34956  20.851  22.832  24.997  0.0264 -0.0152 -0.2360
92019W        W34957  19.145  19.696  22.995  0.1195 -0.1591 -0.0539
92020W        W34958  20.752  22.345  25.041  0.1536  0.3888 -0.0250
92021W        W34959  21.606  20.609  23.952 -0.0434  0.4290 -0.1143
92022W        W34960  19.623  19.949  22.135 -0.1070  0.3251  0.1127
92023W        W34961  19.012  22.682  22.387 -0.0004 -0.0586 -0.0594
92024W        W34962  22.170  18.096  24.711  0.2072 -0.0421  0.1661
92025W        W34963  21.835  19.166  24.172 -0.0548 -0.2359 -0.0190
92026W        W34964  20.139  21.166  22.214  0.1632 -0.2395  0.2351
92027W        W34965  21.681  17.615  27.263  0.1492  0.0561 -0.2116
92028W        W34966  19.337  20.371  27.134 -0.2892 -0.1454 -0.1613
92029W        W34967  20.652  20.547  25.640  0.0096  0.0635 -0.0578
92030W        W34968  19.810  20.819  19.922 -0.0252 -0.1837  0.0810
92031W        W34969  18.557  20.588  24.397  0.1159  0.1761  0.1325
92032W        W34970  19.532  21.483  22.400  0.1166 -0.0241  0.2600
92033W        W34971  19.839  21.648  22.790  0.2302 -0.2006  0.0053
92034W        W34972  22.026  21.202  24.477 -0.0823  0.0250 -0.2996
92035W        W34973  20.872  19.925  22.894 -0.1291  0.0589  0.0715
92036W        W34974  22.250  18.485  24.296 -0.0473 -0.1011  0.0084
92037W        W34975  19.832  19.157  21.585 -0.0033 -0.0256  0.0266
92038W        W34976  23.927  19.049  24.172  0.1078 -0.0502  0.2024
92039W        W34977  23.316  18.392  23.368 -0.1337  0.0851  0.4359
92040W        W34978  19.071  20.621  24.626  0.1006 -0.0631 -0.0687
92041W        W34979  20.257  20.932  20.301  0.0807  0.0515 -0.1668
92042W        W34980  21.384  18.090  23.778 -0.0553 -0.3005  0.3511
92043W        W34981  18.539  20.007  23.320  0.1496  0.1375  0.3423
92044W        W34982  18.526  19.759  21.893 -0.0569 -0.0489  0.1313
92045W        W34983  18.469  18.001  20.301  0.0327  0.0502  0.0458
92046W        W34984  22.444  22.489  22.511 -0.1855 -0.0690 -0.1295
92047W        W34985  19.871  19.093  21.079 -0.0936  0.1730 -0.1561
92048W        W34986  21.896  20.956  23.791  0.1654 -0.0386 -0.3238
92049W        W34987  21.201  21.545  24.884  0.1914  0.1406  0.0074
92050W        W34988  20.654  18.906  22.228  0.4664  0.1278  0.2922
92051W        W34989  21.297  17.763  25.185 -0.0905  0.1810  0.1117
92052W        W34990  18.378  22.366  21.579  0.2436  0.3006  0.0650
92053W        W34991  20.785  18.835  24.381  0.1307 -0.0125  0.1548
92054W        W34992  20.293  18.185  23.216  0.0957  0.1543  0.1001
92055W        W34993  21.583  20.094  24.040 -0.1332 -0.3281 -0.0768
92056W        W34994  20.838  21.736  23.039  0.3114 -0.0440  0.0963
92057W        W34995  21.211  21.176  25.217  0.1800 -0.3178 -0.0974
92058W        W34996  20.111  20.793  24.707 -0.4597  0.3040  0.0838
92059W        W34997  20.619  22.706  26.573 -0.1136  0.0170  0.2741
92060W        W34998  19.131  18.420  22.806  0.2051 -0.3049 -0.0036
92061W        W34999  21.516  20.735  24.416  0.3283  0.3607  0.0484
92062W        W35000  20.269  20.932  25.193  0.1437 -0.2932 -0.2173
92063W        W35001  21.955  20.251  24.421  0.0475 -0.0975  0.5001
92064W        W35002  23.673  17.682  25.680  0.1531  0.4019  0.0897
92065W        W35003  18.963  18.217  24.018  0.0255  0.1689  0.0188
92066W        W35004  19.446  21.026  24.110  0.1794 -0.1848  0.1202
92067W        W35005  20.827  19.338  25.126 -0.2375 -0.0883 -0.0998
92068W        W35006  19.799  18.109  21.447  0.0945  0.0858 -0.0342
92069W        W35007  22.013  18.933  22.842  0.0831  0.1384  0.0358
92070W        W35008  21.591  20.885  22.189  0.0327 -0.3912  0.0036
92071W        W35009  19.812  20.354  22.312 -0.0818 -0.0923 -0.0487
92072W        W35010  19.417  21.818  25.743  0.0538  0.0390  0.0932
92073W        W35011  20.308  22.249  24.854  0.0703  0.0475 -0.3991
92074W        W35012  20.711  18.871  25.249  0.2385 -0.0751  0.2550
92075W        W35013  21.286  20.141  23.096  0.1527  0.0811  0.3514
92076W        W35014  22.308  21.105  23.562  0.0579 -0.0081  0.0359
92077W        W35015  21.031  21.574  25.438  0.0507 -0.2370 -0.1624
92078W        W35016  21.329  20.487  25.867  0.0040 -0.0823  0.1107
92079W        W35017  20.890  21.583  26.958  0.1901  0.0850  0.1506
92080W        W35018  21.203  20.362  24.173  0.0747  0.6216  0.1286
92081W        W35019  19.949  21.504  21.386 -0.1375  0.1760  0.0807
92082W        W35020  19.378  21.607  22.997  0.0198 -0.1172 -0.0660
92083W        W35021  20.994  18.251  24.434 -0.2503 -0.0459  0.2575
92084W        W35022  20.013  18.560  20.427  0.3376 -0.1168  0.1316
92085W        W35023  19.125  21.672  25.298 -0.0320 -0.2718 -0.5169
92086W        W35024  21.083  20.473  23.720 -0.0997 -0.0303  0.0204
92087W        W35025  19.438  21.176  27.167 -0.2553 -0.1992 -0.0848
92088W        W35026  19.711  19.104  25.295  0.0399  0.2076  0.0875
92089W        W35027  22.694  19.006  24.725 -0.2394 -0.0544  0.0769
92090W        W35028  20.824  19.583  25.998  0.0238  0.0889 -0.0313
92091W        W35029  19.270  19.412  26.496 -0.1121 -0.4716 -0.0001
92092W        W35030  19.695  20.189  28.036  0.0779  0.1814  0.1558
92093W        W35031  18.530  18.129  30.187 -0.2284  0.0081 -0.0118
92094W        W35032  20.331  20.855  28.359  0.1849 -0.4083 -0.0479
92095W        W35033  20.380  19.161  28.543 -0.0906  0.0620  0.1380
92096W        W35034  20.541  18.947  26.037 -0.2215  0.1299  0.0535
92097W        W35035  19.852  18.974  27.356 -0.0951  0.0183  0.1678
92098W        W35036  19.148  20.842  27.387 -0.2330 -0.0343  0.0493
92099W        W35037  18.168  17.402  28.278 -0.2223  0.0505 -0.1843
92100W        W35038  21.163  18.455  28.184  0.2800  0.0895  0.2484
92101W        W35039  18.298  20.974  25.609 -0.1415  0.2110 -0.2498
92102W        W35040  17.830  19.517  26.989  0.0744  0.0052  0.0994
92103W        W35041  19.741  18.880  26.752 -0.3307 -0.2615  0.5340
92104W        W35042  20.632  20.698  27.358  0.1457 -0.1535  0.1374
92105W        W35043  18.309  19.024  30.593 -0.1869 -0.1483  0.4218
92106W        W35044  19.854  19.694  29.183 -0.0087  0.1408 -0.0145
92107W        W35045  20.876  20.602  26.161  0.3181 -0.0423  0.2086
92108W        W35046  19.258  19.693  24.639 -0.0929 -0.2161 -0.3315
92109W        W35047  18.437  19.412  28.132 -0.0287 -0.3425  0.0447
92110W        W35048  19.138  18.930  28.572 -0.0639 -0.0596  0.1289
92111W        W35049  19.976  18.752  27.877 -0.0318 -0.1090  0.1483
92112W        W35050  21.434  19.243  26.634  0.0084  0.0704 -0.2380
92113W        W35051  20.365  20.045  28.199  0.0678 -0.5473  0.2520
92114W        W35052  20.433  20.834  29.075 -0.4173 -0.1578 -0.0182
92115W        W35053  21.586  19.614  30.593 -0.1750 -0.0915  0.0344
92116W        W35054  18.395  20.252  27.047 -0.1875 -0.5048  0.4059
92117W        W35055  18.478  21.342  28.096 -0.3208  0.2555 -0.0939
92118W        W35056  20.927  19.609  27.386 -0.1020  0.3584  0.1738
92119W        W35057  21.542  20.042  28.684  0.1717 -0.1195  0.1036
92120W        W35058  19.980  20.784   0.252  0.1530  0.0519  0.1523
92121W        W35059  18.323  20.929  30.684 -0.1494 -0.1733 -0.1755
92122W        W35060  18.774  20.503  26.058 -0.0777 -0.3425  0.2028
92123W        W35061  18.441  20.812  30.162  0.0816  0.4191 -0.0129
92124W        W35062  18.959  20.037  28.656  0.2060  0.0324 -0.1053
92125W        W35063  19.442  19.892  28.428  0.2115  0.0436  0.1781
92126W        W35064  19.735  20.125  26.340 -0.0794  0.0434  0.1035
92127W        W35065  20.275  21.493  27.101  0.1009 -0.2060  0.3361
92128W        W35066  19.619  19.919  27.595 -0.2550 -0.1022  0.0579
92129W        W35067  19.371  20.806  29.677 -0.3016 -0.3625  0.1582
92130W        W35068  19.089  20.449  27.822 -0.2667 -0.3154 -0.0846
92131W        W35069  20.416  18.032  29.827 -0.0602 -0.1667 -0.2035
92132W        W35070  19.876  21.622  26.455 -0.2243  0.0932  0.2427
92133W        W35071  21.666  17.969  25.937  0.0681  0.3177 -0.1954
92134W        W35072  19.540  20.524  24.206  0.2522 -0.1556 -0.0271
92135W        W35073  19.968  18.961  26.263  0.0203  0.0774  0.1992
92136W        W35074  19.979  18.120  28.013  0.2824  0.2023  0.1429
92137W        W35075  18.627  21.816  26.635 -0.2271  0.1323  0.0057
92138W        W35076  19.285  17.465  28.155  0.2907  0.1407  0.1247
92139W        W35077  19.994  20.011  28.787  0.0879  0.2247  0.1679
92140W        W35078  20.362  19.662  26.284  0.2132  0.0296  0.2260
92141W        W35079  21.599  19.069  28.887  0.0043 -0.0473 -0.1211
92142W        W35080  19.044  20.758  28.397 -0.2190 -0.0635  0.3918
92143W        W35081  18.705  17.706  28.398 -0.0315  0.1483 -0.1368
92144W        W35082  20.884  18.151  25.632 -0.1962 -0.3623  0.4374
92145W        W35083  21.156  20.315  28.540  0.1467 -0.0628 -0.0477
92146W        W35084  19.023  21.378  26.394  0.0610  0.0667  0.0895
92147W        W35085  18.811  19.190  26.732  0.0456  0.2616 -0.0223
92148W        W35086  17.910  19.074  29.244  0.0153  0.6639  0.0108
92149W        W35087  18.906  17.728  26.788 -0.1626  0.2599 -0.0068
92150W        W35088  20.383  18.959  24.794 -0.0545  0.1334  0.1534
92151W        W35089  21.628  19.494  29.114 -0.0353  0.0329  0.0517
92152W        W35090  19.786  20.370  30.397  0.0727 -0.0507 -0.5322
92153W        W35091  20.402  19.674  27.306 -0.1384 -0.0754  0.5610
92154W        W35092  20.374  18.448  28.119  0.0996  0.3135 -0.5312
92155W        W35093  20.552  20.055  29.749 -0.1205 -0.2029  0.0088
92156W        W35094  21.563  18.659  25.142 -0.1359  0.1168  0.0929
92157W        W35095  21.106  18.858  27.907 -0.0128 -0.0476 -0.0765
92158W        W35096  21.478  17.524  26.104  0.3539  0.1539 -0.2241
92159W        W35097  18.787  21.012  24.816 -0.1279  0.0999  0.1815
92160W        W35098  20.043  20.646  26.646 -0.2489  0.1644 -0.1247
92161W        W35099  21.370  21.164  30.073 -0.3570 -0.1410  0.1821
92162W        W35100  21.959  19.948  27.268  0.0853 -0.0093 -0.1235
92163W        W35101  18.595  20.739  27.957 -0.2137 -0.4191  0.0946
92164W        W35102  19.991  18.751  30.273  0.4661  0.4241  0.0279
92165W        W35103  20.098  20.826  30.683  0.2791  0.0562  0.3442
92166W        W35104  18.578  20.503  25.610 -0.0623  0.1591 -0.1242
92167W        W35105  17.975  19.705  25.751 -0.0339  0.0673  0.1666
92168W        W35106  18.587  19.774  27.220 -0.1566 -0.0935 -0.0066
92169W        W35107  18.828  18.272  26.538  0.0381  0.0216 -0.1206
92170W        W35108  19.539  20.363  29.073 -0.0021  0.2591 -0.0678
92171W        W35109  20.000  18.227  25.630 -0.3119 -0.0484  0.2312
92172W        W35110  19.470  17.060  28.348  0.1388  0.1641 -0.1135
92173W        W35111  20.339  18.749  27.519 -0.0648  0.2192  0.1136
92174W        W35112  18.641  18.420  27.111 -0.0540  0.2935 -0.2160
92175W        W35113  21.907  20.407  28.576  0.1526 -0.0084 -0.0385
92176W        W35114  21.459  19.093  25.344 -0.0160  0.1248  0.0764
92177W        W35115  21.722  20.265  26.070 -0.1170 -0.1204 -0.1505
92178W        W35116  19.800  18.150  26.721  0.6429  0.4003 -0.2176
92179W        W35117  19.611  17.548  25.903  0.0739  0.0698  0.1201
92180W        W35118  19.663  17.779  28.271 -0.0466  0.4560 -0.0513
92181W        W35119  20.721  19.310  27.851  0.0888  0.1599 -0.1673
92182W        W35120  20.235  20.224  26.391  0.2082  0.0036 -0.1581
92183W        W35121  20.217  18.239  27.582 -0.0411 -0.1591  0.0248
92184W        W35122  18.345  21.120  28.880 -0.0042 -0.2167  0.1783
92185W        W35123  20.441  18.176  28.964 -0.1072  0.1395 -0.0821
92186W        W35124  20.156  19.807  26.752  0.0225  0.2008 -0.3784
92187W        W35125  20.134  20.438  31.105  0.2035 -0.4505  0.0547
92188W        W35126  21.486  21.287  28.832  0.0278 -0.0637 -0.2482
92189W        W35127  18.928  18.299  27.526  0.1469 -0.0212 -0.0503
92190W        W35128  19.352  19.613  24.163  0.0148  0.1309 -0.1329
92191W        W35129  18.819  22.985  28.679  0.2065 -0.0812 -0.5840
92192W        W35130  20.373  21.903  27.607 -0.0416 -0.0872  0.0072
92193W        W35131  19.155  20.544  25.612  0.0359  0.1289  0.1037
92194W        W35132  20.811  20.489  28.945  0.0215  0.1788 -0.1427
92195W        W35133  20.277  18.949  26.993 -0.1941 -0.0731  0.1504
92196W        W35134  19.147  20.755  29.223  0.2816  0.1117  0.0702
92197W        W35135  20.808  17.978  27.582 -0.3206  0.4428  0.2014
92198W        W35136  20.443  20.696  31.358  0.1518 -0.1436  0.0497
92199W        W35137  21.230  18.288  27.715 -0.1392 -0.2212 -0.0039
92200W        W35138  19.948  19.763  28.241  0.4617  0.0255  0.2975
92201W        W35139  17.404  21.382  24.963 -0.2056 -0.0548 -0.0043
92202W        W35140  18.263  20.955  25.091 -0.0912  0.0082 -0.1721
92203W        W35141  20.452  20.166  27.439  0.1379  0.0434 -0.0127
92204W        W35142  20.256  19.212  27.621 -0.0848  0.1221  0.0340
92205W        W35143  17.819  19.407  30.589 -0.0515 -0.1453 -0.0202
92206W        W35144  19.642  17.105  30.617 -0.1507 -0.4550 -0.1786
92207W        W35145  18.672  20.556  24.885  0.1992  0.0408 -0.0981
92208W        W35146  18.271  19.352  29.470 -0.0279 -0.2635 -0.1540
92209W        W35147  19.638  19.492  27.903 -0.0650  0.2348  0.0517
92210W        W35148  23.001  19.248  27.882  0.0983  0.2486 -0.1184
92211W        W35149  21.546  19.047  29.911 -0.0447  0.0326  0.1744
92212W        W35150  21.343  19.883  26.894 -0.3179 -0.0520  0.2630
92213W        W35151  19.968  20.148  25.454  0.1557 -0.1545  0.0625
92214W        W35152  20.758  17.875  26.809 -0.0942  0.1661  0.0639
92215W        W35153  17.795  20.306  30.224 -0.1934  0.0629  0.3596
92216W        W35154  20.376  20.455  29.497  0.0352 -0.1131  0.1705
92217W        W35155  19.212  20.264  28.283 -0.3600  0.0786  0.0182
92218W        W35156  20.232  18.612  26.547 -0.1357 -0.0088 -0.0650
92219W        W35157  21.575  20.702  26.520  0.2877 -0.4062 -0.1415
92220W        W35158  18.669  19.966  29.549  0.0191 -0.1388 -0.1436
92221W        W35159  20.869  20.325  29.428 -0.3179 -0.1395  0.2097
92222W        W35160  19.441  21.914  27.164  0.1325 -0.0543  0.1008
92223W        W35161  19.606  18.827  28.627  0.1762 -0.0161 -0.0760
92224W        W35162  19.720  20.449  25.835 -0.1903 -0.0780  0.1759
92225W        W35163  19.917  18.964  25.731 -0.0808 -0.3712 -0.1856
92226W        W35164  18.412  21.829  25.884 -0.0153 -0.3987 -0.1280
92227W        W35165  20.739  16.925  28.184 -0.0197 -0.2656  0.0689
92228W        W35166  20.470  17.825  28.075 -0.0565 -0.1335 -0.1174
92229W        W35167  18.921  18.549  29.916  0.1959  0.0061  0.0497
92230W        W35168  20.257  19.319  29.822  0.1807  0.0100  0.1233
92231W        W35169  21.210  18.787  27.418 -0.2274 -0.2907  0.2301
92232W        W35170  20.702  19.870  29.252 -0.4592 -0.1156  0.0717
92233W        W35171  19.732  20.792  25.381  0.2912 -0.2069 -0.1315
92234W        W35172  19.054  19.018  30.066  0.4161  0.1507  0.1441
92235W        W35173  18.279  18.899  28.890 -0.0957 -0.0023  0.1086
92236W        W35174  18.485  19.930  26.459 -0.0639  0.0712  0.1880
92237W        W35175  20.557  20.659  30.843 -0.0435 -0.0013  0.0096
92238W        W35176  21.541  19.975  29.334  0.3370  0.2971 -0.0920
92239W        W35177  19.605  18.321  30.135 -0.1926 -0.4385  0.0837
92240W        W35178  20.481  17.138  24.824  0.1827 -0.0346  0.0074
92241W        W35179  19.589  22.291  27.489 -0.2373  0.2862 -0.1961
92242W        W35180  19.107  21.173  25.476  0.2369 -0.1484  0.2002
92243W        W35181  18.907  18.139  28.013 -0.3241  0.3408 -0.0759
92244W        W35182  19.179  18.905  29.108  0.3252 -0.3277  0.0956
92245W        W35183  18.696  20.821  25.287  0.0326  0.2599 -0.0872
92246W        W35184  19.494  19.984  29.521 -0.1025  0.3810 -0.1050
92247W        W35185  20.596  21.351  25.249 -0.0268 -0.4366  0.2193
92248W        W35186  21.216  17.396  27.082 -0.0170  0.1170  0.1681
92249W        W35187  17.412  21.254  27.136  0.0448 -0.1063 -0.0116
92250W        W35188  19.869  19.901  25.871  0.0526 -0.2501 -0.0809
92251W        W35189  19.617  19.657  25.194 -0.0502  0.2601  0.0167
92252W        W35190  20.196  18.568  25.963  0.1242  0.0847 -0.1994
92253W        W35191  21.109  18.900  25.603  0.2048 -0.0054  0.2370
92254W        W35192  17.115  19.802  27.110  0.1703 -0.0060 -0.1620
92255W        W35193  20.044  18.763  28.366  0.1387 -0.0166  0.1665
92256W        W35194  18.379  22.078  27.362 -0.1033 -0.0724 -0.1918
92257W        W35195  20.752  18.518  27.763  0.2171 -0.1464  0.0632
92258W        W35196  20.856  18.553  23.923  0.3209  0.1142 -0.0805
92259W        W35197  20.048  20.113  29.825  0.0727 -0.1185  0.2468
92260W        W35198  19.378  19.056  31.009  0.1176  0.0262  0.1054
92261W        W35199  18.190  18.161  24.132  0.0944 -0.3607 -0.1069
92262W        W35200  21.401  18.557  29.107 -0.0161  0.0840 -0.1273
92263W        W35201  20.182  19.319  24.574  0.0587  0.1586 -0.1121
92264W        W35202  18.878  20.949  25.811 -0.2795  0.0244  0.1189
92265W        W35203  20.063  21.219  30.324 -0.2023  0.1872 -0.2079
92266W        W35204  20.265  19.846  24.469  0.3515 -0.4377  0.1925
92267W        W35205  19.145  20.895  26.257  0.2319 -0.0484 -0.0813
92268W        W35206  18.422  18.332  28.179  0.0234 -0.0149  0.0403
92269W        W35207  20.835  20.421  29.920 -0.0751  0.1420  0.2418
92270W        W35208  19.459  17.660  27.218  0.1160  0.0367 -0.0357
92271W        W35209  19.570  17.995  26.186  0.1428  0.1616 -0.3950
92272W        W35210  19.649  18.512  28.198  0.0443 -0.0801  0.0048
92273W        W35211  19.134  18.584  28.242 -0.1572  0.0396 -0.0276
92274W        W35212  18.735  18.608  27.888 -0.3412  0.0433  0.0734
92275W        W35213  18.710  19.181  29.659  0.1541 -0.1314  0.2636
92276W        W35214  20.542  17.199  27.436 -0.2302  0.1565  0.3908
92277W        W35215  22.661  20.498  27.660 -0.0708  0.0218 -0.1086
92278W        W35216  20.417  19.569  31.075  0.1943 -0.0492 -0.0560
92279W        W35217  19.410  20.927  25.796  0.3461 -0.0763 -0.0204
92280W        W35218  18.583  18.195  28.688 -0.2631 -0.2941 -0.2442
92281W        W35219  19.675  20.410  27.587  0.1011  0.0925 -0.2738
92282W        W35220  19.451  18.449  26.714 -0.3682 -0.2270  0.1589
92283W        W35221  19.531  19.258  28.951  0.0361  0.0229  0.0996
92284W        W35222  20.048  21.176  26.459 -0.2341 -0.0459  0.1157
92285W        W35223  19.063  21.007  27.889  0.3136 -0.3408 -0.2241
92286W        W35224  20.823  18.899  26.992 -0.0144  0.0908  0.0899
92287W        W35225  20.716  20.057  26.361  0.0607  0.0740 -0.3063
92288W        W35226  18.508  18.100  27.511 -0.1390  0.1366 -0.0874
92289W        W35227  20.865  18.722  29.269 -0.4567 -0.0186 -0.1378
92290W        W35228  21.254  17.728  25.660 -0.2512 -0.1235 -0.1052
92291W        W35229  21.221  20.008  30.643  0.2395 -0.2858  0.1192
92292W        W35230  19.711  16.484  27.504 -0.3144 -0.2201  0.0015
92293W        W35231  20.654  20.641  27.866  0.0684  0.1657 -0.2303
92294W        W35232  16.946  19.067  30.963  0.1623 -0.4207 -0.0015
92295W        W35233  18.963  19.963  30.681  0.1733 -0.2935 -0.1564
92296W        W35234  19.280  19.550  30.732 -0.1863 -0.2124 -0.1872
92297W        W35235  20.092  18.073  26.264 -0.0874  0.1712  0.2423
92298W        W35236  19.796  19.645  24.709 -0.0174 -0.1404  0.0954
92299W        W35237  19.818  20.204  26.835 -0.0538  0.0568 -0.0041
92300W        W35238  21.349  20.725  29.061 -0.0864  0.2126 -0.0430
92301W        W35239  19.536  20.542  26.557  0.0562 -0.1096  0.1863
92302W        W35240  20.345  19.502  28.073  0.0766  0.1075  0.1256
92303W        W35241  19.109  19.758  25.142 -0.1991  0.0015  0.3145
92304W        W35242  21.214  19.225  26.073  0.0517  0.3275  0.1699
92305W        W35243  20.153  20.640  25.632 -0.2608  0.0480  0.2244
92306W        W35244  19.257  20.115  26.579  0.2278  0.1292  0.0048
92307W        W35245  19.503  18.179  28.575  0.1686 -0.1031 -0.0508
92308W        W35246  19.342  18.936  27.411  0.0595 -0.0904  0.0169
92309W        W35247  19.592  19.414  27.371  0.2147 -0.0184  0.1635
92310W        W35248  19.804  18.519  27.133 -0.3007 -0.2405  0.2845
92311W        W35249  20.318  18.383  27.095 -0.0763 -0.0322  0.0725
92312W        W35250  20.527  19.037  30.089  0.3046  0.0914 -0.1980
92313W        W35251  18.676  18.097  29.222  0.2387  0.1396 -0.0740
92314W        W35252  20.393  20.226  29.058 -0.1343 -0.0606 -0.0383
92315W        W35253  20.848  17.596  25.385 -0.1908  0.1194  0.4342
92316W        W35254  21.256  19.448  28.095  0.2711  0.1907 -0.2893
92317W        W35255  20.264  20.863  26.097 -0.0535  0.1102 -0.1833
92318W        W35256  20.908  17.408  25.855 -0.3403  0.1757  0.2923
92319W        W35257  19.239  17.494  26.245 -0.1804  0.2363 -0.2826
92320W        W35258  21.811  18.939  30.765 -0.3018 -0.0372  0.3154
92321W        W35259  19.586  18.780  23.360  0.0719 -0.2253  0.2219
92322W        W35260  18.869  17.637  27.857 -0.0603  0.1987  0.4049
92323W        W35261  20.580  20.685  24.746 -0.5340  0.0122  0.1118
92324W        W35262  20.909  21.029  29.923 -0.1078 -0.0062  0.0428
92325W        W35263  20.252  19.375  25.898 -0.1107 -0.1608  0.2849
92326W        W35264  18.211  21.526  31.314 -0.1260  0.0008 -0.2369
92327W        W35265  19.679  20.172  24.702  0.2235 -0.1261 -0.1462
92328W        W35266  19.522  21.414  26.072  0.3727  0.0965  0.1155
92329W        W35267  20.099  21.576  29.961 -0.0573  0.2140  0.2244
92330W        W35268  21.392  19.544  30.045  0.0161  0.1700 -0.1047
92331W        W35269  20.743  16.936  25.872 -0.1112  0.1388 -0.3223
92332W        W35270  21.699  19.947  30.254 -0.1636 -0.1819 -0.2544
92333W        W35271  19.216  20.815  26.873 -0.0727 -0.1121  0.2174
92334W        W35272  19.390  16.874  27.845 -0.1633  0.0798 -0.0327
92335W        W35273  18.720  21.783  28.102  0.2678 -0.1025 -0.1460
92336W        W35274  18.183  20.887  28.251  0.2460 -0.1691  0.2304
92337W        W35275  19.145  21.412  26.846  0.2809  0.0108 -0.2674
92338W        W35276  19.835  17.332  28.068 -0.2738  0.0292  0.0986
92339W        W35277  20.663  20.116  28.633 -0.0265  0.0091 -0.0652
92340W        W35278  19.627  19.681  26.729 -0.1172  0.3113  0.4608
92341W        W35279  23.047  20.707  29.716  0.0048 -0.0226  0.2119
92342W        W35280  19.117  18.412  29.335 -0.1661 -0.0125  0.3771
92343W        W35281  19.098  20.037  27.451  0.2837  0.2318 -0.1270
92344W        W35282  19.216  21.238  29.354 -0.0249 -0.0838  0.2475
92345W        W35283  21.980  19.124  28.004  0.1337  0.1915  0.0303
92346W        W35284  18.883  19.710  26.786  0.0284  0.1129  0.1341
92347W        W35285  18.254  17.199  30.351 -0.2523  0.3284  0.0592
92348W        W35286  18.604  21.978  31.458 -0.2430 -0.1709  0.2254
92349W        W35287  18.717  20.062  27.793 -0.1571  0.2971  0.2375
92350W        W35288  18.607  17.811  26.359 -0.0121  0.0472  0.2644
92351W        W35289  20.839  20.242  27.712  0.1323 -0.0484 -0.3982
92352W        W35290  18.507  19.121  30.138  0.1578  0.2845 -0.2329
92353W        W35291  19.190  19.884  27.926  0.1405 -0.2395 -0.2461
92354W        W35292  17.549  20.345  26.402 -0.0486  0.2531 -0.1077
92355W        W35293  20.988  20.904  26.596 -0.0005 -0.3705  0.0843
92356W        W35294  21.185  18.892  24.746 -0.1281  0.1925  0.0037
92357W        W35295  19.971  20.118  29.325 -0.0632  0.0346 -0.3643
92358W        W35296  20.404  19.087  26.504 -0.1924  0.0888 -0.2470
92359W        W35297  18.849  18.798  27.392  0.0962  0.2185 -0.0762
92360W        W35298  17.854  20.821  28.625  0.0908 -0.1899  0.0329
92361W        W35299  21.847  20.778  27.423  0.3050 -0.0579  0.1836
92362W        W35300  17.849  22.444  26.463  0.0034  0.1519  0.0243
92363W        W35301  21.352  20.662  31.104  0.0869 -0.2964 -0.0745
92364W        W35302  21.901  18.348  25.552  0.0059 -0.0183 -0.4173
92365W        W35303  22.087  19.067  27.494 -0.3680 -0.0632  0.1629
92366W        W35304  20.681  18.438  26.767 -0.0106 -0.0904  0.3580
92367W        W35305  21.789  19.520  31.129 -0.0349  0.1668  0.6269
92368W        W35306  19.860  17.100  26.174  0.1060  0.0693  0.0862
92369W        W35307  20.072  19.278  25.054 -0.2840  0.3734  0.1804
92370W        W35308  20.359  19.534  29.006  0.0742  0.0385  0.2165
92371W        W35309  19.856  17.717  27.771  0.0785 -0.0809  0.1325
92372W        W35310  19.408  19.378  30.260  0.1117  0.0852  0.0670
92373W        W35311  22.423  21.394  26.960  0.0578 -0.1280 -0.0250
92374W        W35312  19.056  19.589  27.249  0.0984 -0.1039  0.4031
92375W        W35313  22.083  17.520  28.718  0.0794 -0.0392  0.1010
92376W        W35314  19.878  21.035  27.676  0.0557 -0.0067 -0.0674
92377W        W35315  19.345  17.719  28.716 -0.2290  0.2314 -0.2433
92378W        W35316  19.798  22.759  27.565 -0.4635  0.1852 -0.3532
92379W        W35317  18.386  19.549  26.844 -0.1592 -0.0618  0.1698
92380W        W35318  18.953  21.901  27.118 -0.0324  0.3698  0.0950
92381W        W35319  21.574  19.813  26.365 -0.2330  0.3987  0.0381
92382W        W35320  19.489  18.969  27.981 -0.1914  0.1506  0.1050
92383W        W35321  21.202  19.336  27.086  0.0023 -0.0327 -0.1921
92384W        W35322  19.776  18.392  27.625 -0.0512 -0.2480  0.0041
92385W        W35323  21.935  18.619  27.574  0.0919 -0.2026  0.1504
92386W        W35324  21.053  19.038  29.630  0.0318 -0.0861  0.0866
92387W        W35325  19.543  20.834  30.341  0.1877 -0.2506 -0.1265
92388W        W35326  20.353  19.118  25.497 -0.1521  0.0712  0.0277
92389W        W35327  20.470  18.942  29.572  0.1220 -0.0418 -0.2178
92390W        W35328  20.046  19.386  27.047  0.7113  0.0498  0.0332
92391W        W35329  20.049  22.544  30.271  0.0134  0.0548  0.0888
92392W        W35330  19.418  17.069  25.778  0.0847  0.3170 -0.0521
92393W        W35331  19.557  19.345  25.814  0.1110 -0.1309 -0.0126
92394W        W35332  18.694  20.568  27.444 -0.0301 -0.1488  0.2210
92395W        W35333  20.638  18.119  28.442  0.2448  0.1910 -0.1471
92396W        W35334  20.339  20.395  30.116 -0.1302  0.1532  0.3123
92397W        W35335  18.440  18.206  26.074 -0.0147  0.1365  0.1413
92398W        W35336  21.234  20.147  26.335  0.3355  0.2751 -0.1696
92399W        W35337  19.849  19.201  28.234  0.2390 -0.1059  0.1575
92400W        W35338  19.920  21.072  26.948  0.0284 -0.0566  0.1818
92401W        W35339  21.111  20.534  28.021  0.2208 -0.1123  0.1092
92402W        W35340  20.992  21.029  28.991 -0.0587 -0.2977  0.2141
92403W        W35341  17.926  19.254  26.623 -0.0914 -0.3717  0.1254
92404W        W35342  19.487  22.191  29.564 -0.0435  0.3877  0.1386
92405W        W35343  21.329  20.780  28.423  0.0646 -0.0101 -0.0697
92406W        W35344  19.748  18.478  26.249  0.2336  0.0933  0.1151
92407W        W35345  19.198  19.609  29.274  0.1967  0.2739 -0.3141
92408W        W35346  18.843  21.103  27.095  0.1670 -0.2729 -0.3717
92409W        W35347  22.119  19.622  27.880  0.2797 -0.3117  0.1545
92410W        W35348  21.930  18.829  29.284 -0.2924 -0.2310  0.1943
92411W        W35349  20.780  19.930  25.010  0.1283  0.1313 -0.0919
92412W        W35350  19.213  18.111  29.789  0.1322  0.0328 -0.2546
92413W        W35351  19.738  20.486  29.556  0.4105  0.0076  0.1743
92414W        W35352  17.795  21.360  30.101  0.0724  0.3815 -0.0646
92415W        W35353  18.869  20.144  25.725  0.1265 -0.1624  0.0457
92416W        W35354  19.664  21.267  29.535  0.2101 -0.2150 -0.0693
92417W        W35355  18.695  22.088  26.259 -0.1432 -0.0868  0.0136
92418W        W35356  20.529  20.665  26.495  0.3461  0.0123  0.1576
92419W        W35357  19.789  19.516  28.634  0.1635 -0.2050  0.0883
92420W        W35358  20.155  17.565  26.061  0.3928 -0.3832  0.0413
92421W        W35359  20.843  20.154  28.176  0.1917  0.0695 -0.1211
92422W        W35360  20.418  18.045  25.904 -0.3030  0.1421 -0.1108
92423W        W35361  20.947  18.393  27.263 -0.1711  0.1451 -0.1094
92424W        W35362  21.288  18.788  26.847 -0.0863 -0.0221  0.0560
92425W        W35363  19.136  19.460  29.783  0.2447 -0.0252 -0.0252
92426W        W35364  18.022  21.803  24.493  0.1490  0.1955 -0.0708
92427W        W35365  19.964  19.531  25.525  0.3791  0.1546 -0.2617
92428W        W35366  19.581  19.329  29.432 -0.0599 -0.1271 -0.0948
92429W        W35367  20.497  16.722  30.478 -0.0531  0.2329 -0.2374
92430W        W35368  17.336  18.013  28.541  0.2123 -0.2032 -0.4114
92431W        W35369  18.143  18.372  27.282 -0.1110  0.0259 -0.0380
92432W        W35370  21.567  20.408  28.173 -0.0527 -0.1095  0.0069
92433W        W35371  18.697  19.591  27.658  0.0720  0.2305 -0.1343
92434W        W35372  20.086  20.124  27.763 -0.0925  0.0244 -0.1084
92435W        W35373  21.366  20.198  27.754  0.2138  0.1860  0.1383
92436W        W35374  20.367  17.753  25.508  0.0533 -0.1402 -0.0207
92437W        W35375  21.027  20.471  30.754 -0.0926  0.1998 -0.1769
92438W        W35376  19.550  20.317  25.236  0.2999 -0.0551  0.1744
92439W        W35377  20.133  19.269  29.335  0.3509  0.0877  0.1510
92440W        W35378  18.209  19.516  30.895  0.2605 -0.2092 -0.2306
92441W        W35379  18.815  19.377  24.744 -0.2369 -0.4787  0.1046
92442W        W35380  19.312  18.573  27.750  0.1113 -0.2878  0.1662
92443W        W35381  20.682  21.274  29.416 -0.4860  0.0388  0.1503
92444W        W35382  21.532  20.936  25.615 -0.0977 -0.0179  0.0474
92445W        W35383  20.231  20.289  30.614 -0.0628 -0.0257 -0.0945
92446W        W35384  19.115  21.545  27.928 -0.0475 -0.0252 -0.0825
92447W        W35385  19.471  17.392  27.678  0.1240  0.1454  0.2354
92448W        W35386  20.655  19.871  26.865  0.0469 -0.0301 -0.1600
92449W        W35387  18.646  21.333  30.147 -0.3300 -0.0041 -0.0104
92450W        W35388  21.637  20.219  26.681 -0.0593  0.2645 -0.3380
92451W        W35389  21.752  19.536  28.205 -0.1418  0.3522 -0.1245
92452W        W35390  20.042  19.655  27.687 -0.3011 -0.2883  0.1127
92453W        W35391  17.936  17.604  29.844 -0.4940 -0.0272  0.0266
92454W        W35392  19.164  20.360  31.014 -0.0431  0.3912  0.3514
92455W        W35393  20.323  19.752  29.465 -0.1544  0.4290 -0.2363
92456W        W35394  18.059  17.636  26.135 -0.2654 -0.1733 -0.0048
92457W        W35395  20.622  19.344  26.902  0.0071 -0.2248  0.0943
92458W        W35396  20.922  20.228  27.162 -0.0985 -0.1741 -0.0947
92459W        W35397  18.922  19.599  28.259  0.2188  0.0054  0.1697
92460W        W35398  19.947  17.303  25.702 -0.0728 -0.2963 -0.1728
92461W        W35399  21.566  18.638  30.231 -0.0213 -0.2656  0.2769
92462W        W35400  19.465  19.887  28.916 -0.2266  0.1191 -0.0554
92463W        W35401  20.142  18.250  30.259  0.3295  0.2918 -0.0537
92464W        W35402  19.392  19.326  28.383  0.1913 -0.3118  0.1738
92465W        W35403  21.441  18.848  26.299  0.2480 -0.0047  0.0501
92466W        W35404  18.943  21.809  28.599  0.4539  0.1425  0.1960
92467W        W35405  21.671  20.706  31.672  0.2563 -0.0536  0.1013
92468W        W35406  19.548  21.138  26.562  0.2553 -0.0392 -0.0464
92469W        W35407  20.719  18.608  28.419  0.0419 -0.0447 -0.2361
92470W        W35408  19.267  16.552  26.090 -0.1000  0.0932  0.1432
92471W        W35409  19.244  19.659  26.075  0.0164  0.1802  0.4834
92472W        W35410  20.395  18.977  28.054  0.0711  0.0249 -0.1196
92473W        W35411  20.277  18.602  28.767  0.1582 -0.1255 -0.4361
92474W        W35412  18.948  17.166  26.491 -0.1029 -0.1830  0.4201
92475W        W35413  21.043  18.542  26.453 -0.1809 -0.0758  0.2082
92476W        W35414  18.856  20.897  29.680  0.0834  0.1593 -0.1705
92477W        W35415  19.458  19.894  27.150 -0.1838 -0.0439 -0.1062
92478W        W35416  20.706  19.388  29.387  0.2680 -0.0528  0.5412
92479W        W35417  19.367  18.719   1.323 -0.3059 -0.1888 -0.3277
92480W        W35418  18.525  20.185  28.920  0.2372 -0.1012 -0.2413
92481W        W35419  18.420  20.763   0.039  0.1398  0.2159  0.3109
92482W        W35420  18.830  21.028  31.967 -0.3495 -0.0220 -0.2174
92483W        W35421  19.158  20.631  30.091 -0.2002  0.1539  0.0559
92484W        W35422  19.451  18.119  27.947 -0.0738 -0.0732  0.0338
92485W        W35423  20.847  18.601  30.373 -0.2830  0.2790 -0.1135
92486W        W35424  20.382  17.783  30.275 -0.0641  0.1031  0.0137
92487W        W35425  19.718  19.764  30.451  0.0703 -0.2147 -0.0144
92488W        W35426  19.591  21.437  30.758 -0.0635 -0.3072  0.1447
92489W        W35427  19.271  17.231  28.820  0.0289  0.1771 -0.0002
92490W        W35428  19.862  18.956  30.770 -0.0014  0.1558  0.0979
92491W        W35429  19.115  21.085  31.548  0.1639  0.0930  0.1362
92492W        W35430  21.155  18.975   0.137 -0.1967  0.0651 -0.2024
92493W        W35431  19.287  20.306  30.460  0.0990 -0.1312  0.0106
92494W        W35432  18.976  20.107  29.145  0.1407 -0.0059 -0.2728
92495W        W35433  20.817  19.162  28.334  0.1203  0.2637  0.0030
92496W        W35434  16.892  17.398  28.936  0.0702  0.1034  0.0958
92497W        W35435  18.414  19.994  30.826  0.0028  0.1307  0.0461
92498W        W35436  18.528  16.976  30.677  0.1136  0.0124 -0.1673
92499W        W35437  17.344  21.776   0.408 -0.3887 -0.0571 -0.1024
92500W        W35438  19.443  16.806   0.628 -0.0558  0.0666  0.1656
92501W        W35439  22.068  19.358   0.451 -0.1596  0.0670 -0.2345
92502W        W35440  19.809  17.200  31.474  0.0158 -0.1580 -0.0784
92503W        W35441  19.123  18.651  30.758  0.0842  0.0418 -0.1928
92504W        W35442  18.056  18.642  30.796 -0.1938 -0.1610  0.0213
92505W        W35443  17.864  21.173  31.160 -0.1281 -0.0279 -0.1246
92506W        W35444  19.236  18.946  29.615  0.0799 -0.3669  0.0209
92507W        W35445  18.925  20.854  31.146 -0.2783 -0.2673 -0.0384
92508W        W35446  18.986  20.082  30.109  0.0357  0.1718  0.1135
92509W        W35447  19.982  18.384  30.681  0.1557  0.0128  0.3116
92510W        W35448  20.566  20.101  31.001  0.0448  0.1182 -0.0453
92511W        W35449  20.235  16.984  29.508 -0.0769 -0.1433 -0.3707
92512W        W35450  17.361  17.216  30.601  0.0109  0.0145  0.1260
92513W        W35451  20.019  21.261  30.902  0.1375  0.0351  0.2057
92514W        W35452  18.264  20.779  31.205 -0.1013  0.0805 -0.0015
92515W        W35453  20.020  19.407  30.281  0.1991 -0.2250 -0.0151
92516W        W35454  21.804  19.845  31.545  0.0299 -0.0278  0.1435
92517W        W35455  18.974  19.091  30.605  0.0406  0.0816 -0.1239
92518W        W35456  22.656  18.932  30.411 -0.0013  0.4071 -0.0073
92519W        W35457  21.153  19.514  31.850  0.0722  0.0432  0.1417
92520W        W35458  18.028  17.923  30.204 -0.4031  0.0191  0.0882
92521W        W35459  19.400  20.813  28.735  0.2003  0.2622 -0.1103
92522W        W35460  17.104  18.084  27.684 -0.0304 -0.0501 -0.4531
92523W        W35461  19.775  19.907  31.884  0.1224  0.0271 -0.1503
92524W        W35462  19.872  17.837  29.993 -0.2016 -0.2183  0.0812
92525W        W35463  21.732  20.249  31.808 -0.1295 -0.3129 -0.1094
92526W        W35464  20.283  22.226  30.047  0.1030  0.1668  0.0647
92527W        W35465  17.294  21.114  31.345 -0.0180 -0.0753  0.2616
92528W        W35466  20.507  21.325  30.643  0.0854 -0.1471  0.0568
92529W        W35467  21.391  18.620  29.591  0.0063  0.1953  0.0169
92530W        W35468  20.173  17.777  31.472  0.2908 -0.0841 -0.0556
92531W        W35469  20.246  20.441  28.611 -0.4763  0.1165  0.1324
92532W        W35470  19.089  18.185  30.299 -0.3089 -0.0209 -0.0729
92533W        W35471  20.647  19.428  30.389 -0.2966  0.4209 -0.0338
92534W        W35472  21.844  19.861  29.795  0.2947  0.1015 -0.1696
92535W        W35473  19.432  23.177  31.641  0.4020  0.0330  0.1121
92536W        W35474  19.119  21.169  28.889 -0.0907 -0.2036 -0.0184
92537W        W35475  18.490  17.952  30.982  0.0249  0.1903  0.0782
92538W        W35476  17.931  18.802  29.658 -0.4661  0.1919  0.1552
92539W        W35477  19.793  19.426  30.901  0.1307 -0.1441 -0.0228
92540W        W35478  18.193  18.276  29.011  0.5994 -0.2257  0.1421
92541W        W35479  19.099  18.226  26.972  0.2463  0.1824  0.0208
92542W        W35480  20.381  21.730  30.923 -0.0993  0.1255  0.0389
92543W        W35481  20.570  21.553  29.029  0.1016 -0.3335  0.2152
92544W        W35482  21.573  20.390  30.663  0.0160  0.1162  0.1720
92545W        W35483  18.438  25.730  19.280  0.1485 -0.1543  0.0726
92546W        W35484  18.792  23.989  15.911 -0.1725  0.3553  0.1869
92547W        W35485  20.761  22.412  15.722  0.3220 -0.2754 -0.1390
92548W        W35486  21.361  23.873  16.481  0.0581 -0.3467 -0.3404
92549W        W35487  18.338  22.219  17.358 -0.0686 -0.0943  0.2228
92550W        W35488  21.738  24.398  17.247 -0.0243  0.1048 -0.2738
92551W        W35489  19.889  23.119  17.517  0.1051  0.0668 -0.1396
92552W        W35490  23.032  24.249  17.469  0.2852 -0.1440  0.0293
92553W        W35491  22.084  24.293  18.905  0.1335  0.1912 -0.0201
92554W        W35492  20.101  24.049  16.491  0.0243 -0.2429  0.2854
92555W        W35493  19.998  25.119  18.084  0.1266 -0.2679  0.2028
92556W        W35494  20.149  26.374  17.817  0.1208 -0.1097 -0.2685
92557W        W35495  19.200  24.266  16.901  0.0670 -0.0953  0.0500
92558W        W35496  18.167  21.673  16.737 -0.0998  0.1015 -0.2774
92559W        W35497  22.501  23.367  19.244 -0.0515  0.2833  0.2640
92560W        W35498  18.239  24.118  16.666 -0.1225  0.0801  0.0402
92561W        W35499  19.959  22.907  19.195 -0.0966  0.2953 -0.0089
92562W        W35500  20.012  23.854  18.298  0.0817  0.0616 -0.0877
92563W        W35501  21.608  27.059  17.643 -0.1488  0.1884  0.0191
92564W        W35502  19.758  23.032  18.692  0.2638  0.1383  0.2227
92565W        W35503  19.426  22.448  17.529  0.1828  0.2255 -0.1066
92566W        W35504  18.274  25.807  16.136  0.0222 -0.0507 -0.1302
92567W        W35505  18.707  23.402  15.415 -0.2167 -0.0230  0.4406
92568W        W35506  16.640  24.342  16.640  0.2268 -0.1066 -0.0198
92569W        W35507  19.012  25.209  17.105  0.1340  0.2312  0.0028
92570W        W35508  21.689  23.961  16.072  0.0135 -0.1042 -0.4279
92571W        W35509  21.285  24.862  18.469  0.3436 -0.2982  0.0498
92572W        W35510  19.342  24.810  17.016 -0.0152 -0.1211  0.0451
92573W        W35511  22.531  25.662  18.682  0.4133 -0.0507  0.3353
92574W        W35512  21.568  24.772  19.926  0.0853  0.2047 -0.0751
92575W        W35513  17.288  24.019  18.092  0.0397 -0.1163  0.1017
92576W        W35514  19.601  26.394  17.478 -0.1466 -0.0890  0.2238
92577W        W35515  19.574  26.160  15.693 -0.1110 -0.1466  0.0350
92578W        W35516  20.857  24.436  17.006  0.0001  0.3220  0.0665
92579W        W35517  23.421  24.539  20.600 -0.1590 -0.1079 -0.0864
92580W        W35518  18.658  25.440  18.958 -0.3046  0.1854 -0.0449
92581W        W35519  18.443  24.345  15.931  0.2260  0.1354  0.2158
92582W        W35520  22.141  24.188  17.147  0.1869 -0.3651  0.0941
92583W        W35521  20.723  24.579  18.392  0.2073  0.0575 -0.0282
92584W        W35522  21.486  24.511  18.135  0.0706 -0.1089 -0.3382
92585W        W35523  19.741  23.804  16.854 -0.1662  0.0517  0.1564
92586W        W35524  20.415  25.005  16.478  0.1022 -0.1535 -0.2029
92587W        W35525  19.939  24.875  16.543  0.2066  0.0574  0.2781
92588W        W35526  20.717  25.622  19.646 -0.0199 -0.1117  0.2402
92589W        W35527  19.439  24.689  17.648 -0.2767 -0.1948  0.0397
92590W        W35528  23.608  23.716  19.210 -0.2100  0.0457 -0.2936
92591W        W35529  19.626  25.674  16.617 -0.2756 -0.3169 -0.0887
92592W        W35530  20.532  23.343  15.982 -0.1039 -0.1322  0.1682
92593W        W35531  19.961  23.585  15.767 -0.0882  0.0246  0.1108
92594W        W35532  20.585  23.943  16.267  0.0313 -0.3137 -0.2999
92595W        W35533  18.586  23.895  18.382 -0.0090  0.2334  0.3460
92596W        W35534  19.868  26.021  17.185 -0.3183 -0.2361 -0.4021
92597W        W35535  20.208  22.887  17.841  0.2575 -0.1305 -0.1373
92598W        W35536  23.809  25.307  19.919  0.0597  0.0439 -0.1239
92599W        W35537  20.168  23.155  16.287  0.1338  0.1723  0.3069
92600W        W35538  20.805  21.713  17.306  0.2611 -0.0957  0.2842
92601W        W35539  19.224  25.507  17.988  0.1473 -0.1247  0.0131
92602W        W35540  18.408  21.586  16.234 -0.1423 -0.0361  0.1307
92603W        W35541  19.968  25.889  16.332  0.0438 -0.2418 -0.2518
92604W        W35542  23.730  25.503  16.358 -0.3066  0.4207  0.1753
92605W        W35543  21.400  24.266  15.786  0.3101  0.0774  0.1345
92606W        W35544  19.592  24.435  15.643 -0.0845  0.0686 -0.2046
92607W        W35545  17.944  24.657  18.401 -0.0294 -0.2399  0.1783
92608W        W35546  19.564  23.088  18.000  0.0026  0.0484 -0.1418
92609W        W35547  20.383  23.668  15.359  0.0195  0.3131  0.2235
92610W        W35548  22.711  24.035  21.451 -0.1065 -0.0644 -0.0749
92611W        W35549  17.594  26.627  17.979 -0.3120  0.0020 -0.1050
92612W        W35550  21.291  23.202  16.368  0.1313  0.0184 -0.2790
92613W        W35551  19.346  23.445  16.790  0.0493  0.0861  0.4156
92614W        W35552  23.132  24.991  18.134 -0.0571 -0.0782  0.0486
92615W        W35553  21.390  23.572  16.035  0.0531  0.1568 -0.1953
92616W        W35554  21.436  21.952  16.760  0.0067 -0.1283 -0.2260
92617W        W35555  21.135  24.086  19.669  0.2756 -0.0655  0.0799
92618W        W35556  19.448  24.518  16.106  0.0592 -0.1072  0.0262
92619W        W35557  19.088  23.779  16.264  0.0413  0.2847  0.1290
92620W        W35558  21.278  27.479  19.288 -0.1220  0.1300  0.0941
92621W        W35559  23.133  26.332  17.469  0.1376  0.4296  0.0728
92622W        W35560  18.308  24.636  18.076  0.0234  0.1315  0.1887
92623W        W35561  21.081  23.402  19.318  0.0663  0.1183 -0.0777
92624W        W35562  22.152  25.120  19.556  0.1555  0.0772 -0.0544
92625W        W35563  18.237  23.364  16.750 -0.2962 -0.1680  0.0087
92626W        W35564  17.693  25.232  18.355 -0.0851  0.0166  0.0194
92627W        W35565  20.093  24.913  16.072  0.1051 -0.3208  0.0992
92628W        W35566  18.536  24.900  18.577 -0.0331 -0.4060  0.4178
92629W        W35567  18.683  26.416  17.215  0.4159  0.1373  0.2263
92630W        W35568  23.013  21.461  15.944 -0.0703  0.2040 -0.0861
92631W        W35569  19.382  22.708  18.517 -0.1077 -0.1818  0.2060
92632W        W35570  22.529  21.538  15.500  0.1097 -0.0996  0.2204
92633W        W35571  18.975  24.517  15.978 -0.4222  0.0732 -0.1560
92634W        W35572  21.595  24.863  17.340 -0.0139 -0.0377  0.0496
92635W        W35573  23.539  22.988  16.130  0.0932  0.0983 -0.2662
92636W        W35574  21.537  24.547  15.405 -0.2851 -0.2214 -0.3947
92637W        W35575  20.291  23.390  18.948 -0.1080 -0.1550 -0.0112
92638W        W35576  19.228  22.940  16.751  0.3084  0.0487 -0.0957
92639W        W35577  18.204  24.151  21.158 -0.0451  0.1945  0.1488
92640W        W35578  18.230  23.646  18.029 -0.1557 -0.1205  0.2500
92641W        W35579  21.245  24.732  18.977 -0.1177  0.1136 -0.2809
92642W        W35580  19.195  22.430  16.013  0.0052 -0.0570  0.2156
92643W        W35581  21.532  22.749  16.349 -0.1301  0.0417 -0.0475
92644W        W35582  21.835  24.433  17.760  0.2471 -0.0395  0.1607
92645W        W35583  18.052  23.553  16.180 -0.2433  0.0883  0.1589
92646W        W35584  21.957  21.769  18.519  0.0047  0.0057  0.2336
92647W        W35585  20.771  25.505  15.821 -0.2050 -0.0974  0.0832
92648W        W35586  22.494  25.143  19.889  0.2639 -0.0638 -0.2166
92649W        W35587  20.952  25.134  16.626  0.0023  0.1504 -0.1378
92650W        W35588  20.190  25.804  19.158  0.1490  0.0461 -0.1237
92651W        W35589  18.523  21.609  15.073 -0.0051 -0.0547  0.1587
92652W        W35590  20.591  26.496  16.848 -0.1530 -0.0998  0.0680
92653W        W35591  19.374  25.182  17.435  0.0055  0.2061 -0.1877
92654W        W35592  18.925  22.958  16.148  0.0894  0.0133 -0.2228
92655W        W35593  21.864  24.868  18.301 -0.3187  0.0184  0.0670
92656W        W35594  21.206  25.100  17.483 -0.0968 -0.3286  0.2385
92657W        W35595  18.571  24.910  17.243 -0.1476 -0.0891 -0.2396
92658W        W35596  21.283  23.314  18.582  0.2070  0.0276 -0.0825
92659W        W35597  22.496  23.547  17.776 -0.0241  0.2217 -0.3307
92660W        W35598  21.509  23.250  17.214  0.1216 -0.0001 -0.3224
92661W        W35599  19.657  22.486  15.006 -0.3726 -0.2023  0.3512
92662W        W35600  21.631  24.782  16.820 -0.0318 -0.0710  0.1301
92663W        W35601  18.160  24.793  15.885 -0.3042 -0.0221  0.2064
92664W        W35602  19.957  24.527  17.550  0.1530 -0.1121  0.2667
92665W        W35603  19.912  25.329  15.883  0.0328  0.1774 -0.1567
92666W        W35604  23.141  22.372  17.875  0.2033 -0.0257  0.0723
92667W        W35605  19.573  24.191  19.096  0.1479 -0.1315  0.0298
92668W        W35606  21.145  24.378  18.467 -0.1543 -0.0868  0.1074
92669W        W35607  19.007  23.392  15.937  0.0549 -0.1343  0.2659
92670W        W35608  19.750  25.500  17.829 -0.1452 -0.2331 -0.5765
92671W        W35609  22.060  23.427  18.099  0.0791  0.0047  0.0483
92672W        W35610  21.424  22.963  15.417 -0.0944 -0.3059 -0.3000
92673W        W35611  21.683  25.001  19.109 -0.3243 -0.3290 -0.0454
92674W        W35612  22.618  24.249  16.272 -0.5435 -0.2440  0.0336
92675W        W35613  20.319  23.881  15.847 -0.0173 -0.0236  0.1002
92676W        W35614  19.748  22.303  16.060 -0.1254 -0.0496 -0.1334
92677W        W35615  19.681  25.419  19.193 -0.2735  0.3547  0.3366
92678W        W35616  20.792  24.511  17.864  0.1095  0.1097  0.0867
92679W        W35617  20.987  25.390  17.089 -0.3698  0.1506  0.1474
92680W        W35618  20.377  23.011  17.294  0.0145  0.2650  0.2276
92681W        W35619  22.490  24.738  17.636 -0.0943  0.1770  0.2355
92682W        W35620  19.890  23.995  17.633  0.0351  0.0578  0.0824
92683W        W35621  20.693  27.048  19.611  0.1810 -0.0200  0.0145
92684W        W35622  21.390  25.265  18.665 -0.1131  0.0083  0.0487
92685W        W35623  20.239  23.563  19.423 -0.1794  0.1575  0.1989
92686W        W35624  20.557  24.169  16.742  0.0346 -0.0336 -0.0679
92687W        W35625  22.586  23.494  16.889 -0.1623  0.0726  0.2366
92688W        W35626  18.154  26.719  15.868 -0.0968 -0.2340  0.1686
92689W        W35627  23.007  23.103  16.905  0.1377 -0.2053 -0.0486
92690W        W35628  22.660  22.583  17.903  0.0545 -0.1182  0.0999
92691W        W35629  20.030  21.646  17.889 -0.2862  0.0208  0.0883
92692W        W35630  22.534  23.457  19.779  0.1177 -0.0036  0.0528
92693W        W35631  21.262  23.070  18.063 -0.1443 -0.0369  0.2431
92694W        W35632  21.225  24.125  17.871 -0.1130  0.4307  0.3648
92695W        W35633  20.164  23.649  16.237 -0.0357  0.2300  0.0877
92696W        W35634  20.189  25.521  18.325  0.2560  0.2000  0.0303
92697W        W35635  19.363  24.480  18.153  0.0371 -0.0152 -0.0568
92698W        W35636  19.061  26.134  18.792 -0.1805 -0.3207 -0.1151
92699W        W35637  21.568  23.672  19.025 -0.0270  0.0305  0.2154
92700W        W35638  20.737  24.620  16.556 -0.0323 -0.1643  0.1784
92701W        W35639  21.181  25.377  19.621  0.3567  0.0726  0.2700
92702W        W35640  19.905  22.884  17.023  0.0521 -0.1139  0.0272
92703W        W35641  20.586  24.886  16.979 -0.0608  0.3271  0.0488
92704W        W35642  22.493  24.207  17.547  0.1068 -0.0867  0.1137
92705W        W35643  19.651  24.056  18.082  0.2746 -0.0063 -0.0097
92706W        W35644  20.118  26.197  19.423 -0.1267  0.0393  0.1457
92707W        W35645  18.279  22.945  15.448  0.1855  0.1672 -0.2797
92708W        W35646  20.997  25.505  20.079  0.2091  0.0387  0.1389
92709W        W35647  19.531  25.164  16.220  0.4587  0.0857 -0.5995
92710W        W35648  21.781  22.884  17.889  0.2000 -0.1382  0.0786
92711W        W35649  20.195  26.727  18.144 -0.2756 -0.2942 -0.0419
92712W        W35650  18.128  22.420  15.260  0.2257  0.0610 -0.1507
92713W        W35651  19.363  24.194  16.432 -0.0039  0.2810 -0.5610
92714W        W35652  19.863  23.989  16.036 -0.0488  0.0208  0.1272
92715W        W35653  21.379  24.762  15.895 -0.0832 -0.0448  0.0878
92716W        W35654  18.715  24.343  18.140 -0.2354  0.0614  0.0533
92717W        W35655  20.621  23.065  18.776  0.0935  0.3324 -0.0771
92718W        W35656  18.966  24.796  18.840  0.1716 -0.0774 -0.1274
92719W        W35657  20.815  25.049  17.856  0.1644 -0.0077 -0.1502
92720W        W35658  20.314  23.743  17.883 -0.0285  0.1791 -0.0144
92721W        W35659  21.046  23.861  16.918  0.1925  0.0010 -0.0327
92722W        W35660  20.586  24.578  19.817  0.0791 -0.2357  0.2591
92723W        W35661  18.695  22.504  16.115 -0.2196  0.0869  0.1645
92724W        W35662  23.456  24.332  17.716  0.1115 -0.3305  0.2085
92725W        W35663  20.723  22.914  18.290  0.1640 -0.1861 -0.0493
92726W        W35664  19.132  26.573  17.250 -0.1698  0.0575 -0.0258
92727W        W35665  21.281  25.341  17.923 -0.0561  0.3404  0.0548
92728W        W35666  17.170  23.891  16.704 -0.1835  0.1343 -0.2553
92729W        W35667  18.569  25.443  17.077 -0.0886  0.1804  0.2057
92730W        W35668  20.816  24.035  18.680 -0.0220 -0.0373  0.0320
92731W        W35669  20.804  24.492  18.877  0.4557  0.1027  0.1484
92732W        W35670  19.573  21.864  17.585  0.0467  0.1496  0.2901
92733W        W35671  17.099  23.576  16.122 -0.0983 -0.2109 -0.1824
92734W        W35672  20.729  23.465  16.872 -0.1012 -0.0965 -0.2012
92735W        W35673  23.271  25.698  18.051 -0.2242  0.2164 -0.1823
92736W        W35674  21.527  23.758  19.516 -0.0231 -0.1576  0.1186
92737W        W35675  19.652  25.613  19.973 -0.0671  0.1097  0.1933
92738W        W35676  20.468  23.303  18.075  0.2518  0.1253 -0.0153
92739W        W35677  21.290  24.149  17.328 -0.0046 -0.3809  0.1333
92740W        W35678  20.333  23.581  20.307 -0.4622  0.1967 -0.2750
92741W        W35679  19.453  23.589  15.904  0.3413  0.0238 -0.0166
92742W        W35680  17.895  25.827  19.239  0.0639  0.1173 -0.1177
92743W        W35681  19.550  25.875  17.565  0.2202 -0.1447 -0.0868
92744W        W35682  22.023  23.584  19.319  0.0206 -0.1467  0.0323
92745W        W35683  17.698  24.609  17.295  0.2448 -0.2645  0.0522
92746W        W35684  19.175  24.921  15.790  0.1563 -0.0053  0.0833
92747W        W35685  18.979  25.184  19.276  0.3251  0.0660  0.2800
92748W        W35686  19.886  21.843  16.015 -0.1038  0.1582 -0.1050
92749W        W35687  21.139  25.234  16.103  0.2541  0.0591 -0.1776
92750W        W35688  20.614  23.394  17.604 -0.2990 -0.2547  0.5361
92751W        W35689  22.659  23.759  18.525 -0.0164 -0.2290  0.0599
92752W        W35690  21.108  22.755  15.920  0.1255 -0.0997  0.1727
92753W        W35691  21.890  22.152  18.199 -0.0959  0.3306  0.1318
92754W        W35692  20.093  24.051  19.602 -0.0039  0.2156 -0.0248
92755W        W35693  22.698  24.616  16.575  0.0063 -0.0709  0.0967
92756W        W35694  19.461  25.007  18.026 -0.2605 -0.0059  0.3538
92757W        W35695  20.733  26.431  18.496  0.1630  0.0561 -0.0734
92758W        W35696  19.067  24.774  19.551 -0.2767  0.0703 -0.1010
92759W        W35697  20.234  24.552  16.698  0.2296  0.3414 -0.1925
92760W        W35698  19.450  22.488  15.516 -0.3426  0.1387 -0.1720
92761W        W35699  20.368  25.521  18.776  0.1606  0.0420 -0.3768
92762W        W35700  22.315  25.561  17.130  0.2990 -0.0289 -0.0544
92763W        W35701  19.903  24.471  16.260 -0.2136 -0.0042 -0.1806
92764W        W35702  20.829  23.421  18.408 -0.1828  0.0570 -0.0553
92765W        W35703  18.648  24.428  16.970  0.0806 -0.2858 -0.2557
92766W        W35704  21.546  23.489  16.749  0.2323  0.2755 -0.0999
92767W        W35705  21.100  23.953  16.051  0.1767 -0.0222 -0.1585
92768W        W35706  19.728  23.251  16.524 -0.1849  0.0642  0.0173
92769W        W35707  23.040  22.767  17.458 -0.0007 -0.0094  0.0337
92770W        W35708  21.501  23.455  18.127 -0.3327  0.1123 -0.2939
92771W        W35709  20.376  24.502  16.179 -0.1704 -0.1489  0.1311
92772W        W35710  19.717  24.772  18.394  0.1780  0.1214 -0.0536
92773W        W35711  20.884  24.767  17.380  0.0022  0.2086 -0.1059
92774W        W35712  19.441  25.969  19.082  0.0214 -0.0707 -0.1826
92775W        W35713  18.480  24.143  19.226 -0.1442  0.0501 -0.1789
92776W        W35714  21.495  26.293  19.717 -0.1831 -0.0462 -0.1672
92777W        W35715  20.893  23.631  15.578  0.7473 -0.0908 -0.0075
92778W        W35716  21.766  21.572  17.480 -0.0906  0.0527  0.2549
92779W        W35717  21.264  22.598  16.817 -0.1789  0.0665  0.0002
92780W        W35718  21.041  24.252  15.348 -0.4970 -0.2183 -0.3206
92781W        W35719  19.829  24.605  17.981 -0.0398  0.0718 -0.0144
92782W        W35720  21.706  24.048  18.700 -0.0449  0.2454 -0.0809
92783W        W35721  18.535  23.414  15.907  0.1627 -0.1261 -0.1649
92784W        W35722  20.359  24.263  18.661 -0.4865 -0.2067  0.2638
92785W        W35723  19.930  27.281  16.512  0.4146 -0.1103  0.1122
92786W        W35724  22.051  22.974  17.043  0.3813 -0.0829  0.0154
92787W        W35725  20.978  23.596  16.413  0.1050 -0.0447 -0.1448
92788W        W35726  18.674  22.716  17.205 -0.2213 -0.1028  0.3982
92789W        W35727  18.926  25.236  17.665 -0.2326  0.1757 -0.0582
92790W        W35728  18.987  22.575  15.556  0.2393 -0.2003  0.1317
92791W        W35729  19.084  23.728  15.544  0.0633  0.2725  0.1082
92792W        W35730  20.681  22.466  18.620 -0.4391  0.0866 -0.0911
92793W        W35731  22.006  24.106  19.364  0.1446  0.3299  0.1008
92794W        W35732  20.344  22.298  15.999  0.2692  0.0139  0.3412
92795W        W35733  21.370  24.361  16.786 -0.0474  0.0620  0.3171
92796W        W35734  19.053  26.179  17.618 -0.0535  0.1197  0.2488
92797W        W35735  21.014  23.590  17.997 -0.1531  0.0486  0.0241
92798W        W35736  19.717  26.420  18.215  0.0418 -0.4570  0.0048
92799W        W35737  17.389  24.899  18.568 -0.0596 -0.2987  0.1143
92800W        W35738  20.820  25.854  16.924  0.0486  0.0340  0.1991
92801W        W35739  21.730  23.923  17.559 -0.0690 -0.1027 -0.1088
92802W        W35740  21.285  24.621  17.668  0.0524  0.0255  0.0957
92803W        W35741  22.164  22.825  18.162  0.0448 -0.0655 -0.3569
92804W        W35742  23.077  24.084  18.372  0.0403  0.2149  0.0042
92805W        W35743  20.831  25.517  18.563 -0.1376 -0.2549 -0.4294
92806W        W35744  19.037  24.638  17.335  0.3071 -0.0867  0.0022
92807W        W35745  22.070  24.784  19.885  0.1858  0.0287  0.1707
92808W        W35746  24.645  24.943  19.012  0.0383  0.0979  0.0141
92809W        W35747  20.195  25.960  17.514  0.0738  0.4948 -0.2826
92810W        W35748  19.112  24.288  19.077 -0.1950 -0.0060  0.1299
92811W        W35749  21.248  26.519  20.101  0.1567  0.0125 -0.0135
92812W        W35750  22.323  23.765  17.354 -0.0473  0.2074 -0.3477
92813W        W35751  20.043  24.142  17.113  0.2717 -0.0079 -0.1225
92814W        W35752  18.976  25.102  16.265  0.2603  0.0882  0.0287
92815W        W35753  17.981  27.045  20.001  0.2089 -0.2432  0.1366
92816W        W35754  19.971  25.153  18.638  0.0178 -0.0166  0.0022
92817W        W35755  18.313  25.292  16.145  0.4539  0.2126  0.4037
92818W        W35756  20.877  24.767  15.304 -0.1281  0.1230  0.0773
92819W        W35757  20.769  24.890  16.129 -0.1374 -0.0535  0.2125
92820W        W35758  22.335  24.237  16.707 -0.0291  0.4049 -0.0787
92821W        W35759  21.125  23.114  17.508 -0.1655 -0.1340 -0.0428
92822W        W35760  19.051  25.655  17.374 -0.4436 -0.0195 -0.3454
92823W        W35761  17.954  24.115  16.265 -0.0774 -0.0867 -0.0376
92824W        W35762  20.394  25.179  15.792 -0.2424  0.0386  0.0382
92825W        W35763  18.843  25.495  16.608 -0.1041  0.0318 -0.1767
92826W        W35764  21.842  25.408  20.586  0.0744  0.2838 -0.0445
92827W        W35765  20.349  22.130  15.494 -0.0356  0.1373 -0.0580
92828W        W35766  21.161  22.844  18.479 -0.0007 -0.0932 -0.0017
92829W        W35767  21.945  22.744  16.011  0.0134  0.1198 -0.1154
92830W        W35768  19.776  25.818  19.459 -0.1683  0.3597 -0.2109
92831W        W35769  18.622  24.225  16.367 -0.2487  0.0198  0.1141
92832W        W35770  20.509  23.987  17.226  0.2836 -0.0621 -0.0945
92833W        W35771  20.321  24.180  17.679 -0.1278 -0.0761 -0.1240
92834W        W35772  22.001  23.802  19.749 -0.1130  0.1703  0.0824
92835W        W35773  18.739  25.409  20.084  0.0085 -0.0126 -0.0730
92836W        W35774  21.948  26.246  16.464  0.2579 -0.1953  0.2118
92837W        W35775  18.977  23.676  17.524  0.1383 -0.3317 -0.2681
92838W        W35776  20.412  24.507  17.257  0.4334  0.1299 -0.1806
92839W        W35777  23.250  21.596  19.371  0.1564 -0.1323 -0.0082
92840W        W35778  19.337  24.677  15.144 -0.5328  0.3230 -0.2563
92841W        W35779  21.727  24.044  18.138 -0.2907 -0.2055 -0.1308
92842W        W35780  20.267  25.563  16.097 -0.2683 -0.1944 -0.1110
92843W        W35781  18.509  25.475  17.536 -0.1520 -0.2075 -0.2325
92844W        W35782  20.523  26.459  19.469 -0.1395 -0.4171 -0.1154
92845W        W35783  18.538  22.567  15.105 -0.0359  0.2361 -0.1162
92846W        W35784  23.389  23.570  17.782 -0.0098  0.0561 -0.0810
92847W        W35785  20.361  25.327  19.458 -0.0772 -0.1366  0.0513
92848W        W35786  22.152  22.370  17.859  0.0733 -0.0894 -0.2572
92849W        W35787  18.966  24.560  16.471 -0.1627 -0.0452 -0.2017
92850W        W35788  20.597  22.880  16.080  0.0063 -0.4509 -0.1366
92851W        W35789  20.532  26.800  19.093 -0.0045  0.0858 -0.0524
92852W        W35790  19.871  24.265  18.603 -0.1045  0.1803 -0.0124
92853W        W35791  20.539  23.209  15.340  0.0004 -0.0470 -0.1608
92854W        W35792  22.935  24.986  19.787 -0.0264 -0.0510  0.1585
92855W        W35793  20.954  22.579  18.069  0.5784 -0.0521  0.0572
92856W        W35794  22.639  24.970  19.335 -0.2153  0.3450  0.0522
92857W        W35795  19.179  22.419  18.129 -0.0053 -0.1196  0.0589
92858W        W35796  20.369  22.704  15.563  0.2172 -0.1138  0.0235
92859W        W35797  19.576  25.582  17.106 -0.1866  0.1855  0.1036
92860W        W35798  19.573  25.466  18.344  0.2721  0.0267 -0.3495
92861W        W35799  20.638  25.499  20.745 -0.0234 -0.1690  0.0786
92862W        W35800  18.509  22.516  15.638  0.3121  0.0194  0.2023
92863W        W35801  21.948  23.541  17.042  0.1821  0.0512  0.1609
92864W        W35802  23.965  25.123  18.584 -0.2259 -0.0988  0.0459
92865W        W35803  19.378  26.098  16.288  0.0306  0.1676  0.0061
92866W        W35804  22.265  23.281  18.756  0.2256  0.3818  0.0741
92867W        W35805  22.684  24.026  17.988 -0.2916  0.0989  0.0651
92868W        W35806  18.506  23.815  16.958 -0.0666  0.0079 -0.0072
92869W        W35807  20.394  26.219  18.930 -0.1468 -0.2173  0.1205
92870W        W35808  22.938  25.566  20.247  0.0095  0.0690  0.2567
92871W        W35809  20.392  22.439  16.996 -0.2594  0.0133 -0.0414
92872W        W35810  20.541  26.402  17.505 -0.1307  0.2005 -0.0997
92873W        W35811  16.669  24.849  16.523 -0.0100  0.0092  0.1636
92874W        W35812  21.791  23.320  16.345  0.0492 -0.0531  0.0913
92875W        W35813  22.578  22.966  17.257 -0.1134 -0.0455  0.1742
92876W        W35814  19.348  24.072  15.917 -0.1476 -0.2234  0.1744
92877W        W35815  22.284  21.308  17.633 -0.0954  0.1111  0.2207
92878W        W35816  19.899  26.117  18.906  0.1438  0.3522  0.0177
92879W        W35817  19.045  25.755  19.191  0.1016 -0.0147  0.0685
92880W        W35818  18.812  22.999  15.671  0.0639 -0.3996  0.1526
92881W        W35819  20.387  24.926  18.976  0.0950 -0.1762  0.0891
92882W        W35820  19.814  24.894  17.172  0.1379 -0.1895  0.0217
92883W        W35821  19.719  24.400  16.733  0.0488 -0.0343 -0.2696
92884W        W35822  22.451  25.058  18.688 -0.0081  0.3085 -0.2478
92885W        W35823  20.739  22.873  17.740  0.1687 -0.1344  0.4117
92886W        W35824  22.437  23.032  17.828 -0.1485 -0.4092  0.5379
92887W        W35825  18.654  23.954  17.849 -0.1425  0.1038  0.1777
92888W        W35826  23.401  24.475  17.186 -0.2875  0.0688  0.0541
92889W        W35827  21.024  21.872  16.223 -0.0446 -0.0306  0.0103
92890W        W35828  18.751  25.132  18.157 -0.4227 -0.3688  0.4487
92891W        W35829  17.817  23.325  15.295 -0.0168  0.0554 -0.0977
92892W        W35830  19.569  23.729  16.383 -0.0068 -0.1122  0.1478
92893W        W35831  18.060  24.653  17.626 -0.1302  0.0616  0.1797
92894W        W35832  20.837  23.548  18.850  0.2520 -0.0434 -0.2587
92895W        W35833  20.255  24.334  18.196 -0.0149 -0.1445 -0.0453
92896W        W35834  17.846  24.397  17.977 -0.3692  0.0938 -0.0702
92897W        W35835  19.569  20.998  15.103  0.0818  0.1070 -0.3026
92898W        W35836  21.175  24.808  16.943  0.0048  0.2239  0.2180
92899W        W35837  18.523  23.676  19.010  0.2045 -0.0899  0.2215
92900W        W35838  18.071  22.731  17.160 -0.1206  0.0832 -0.0177
92901W        W35839  20.555  25.389  16.831 -0.2228  0.2401 -0.1161
92902W        W35840  21.167  24.721  16.365  0.0169  0.1190  0.0562
92903W        W35841  19.234  24.145  17.669 -0.2586  0.2122  0.2414
92904W        W35842  24.643  25.165  20.976  0.2428  0.0564 -0.1164
92905W        W35843  19.340  25.269  16.730  0.1365  0.2004  0.3075
92906W        W35844  20.385  25.336  17.789  0.1750  0.0698  0.1108
92907W        W35845  21.378  21.743  18.512  0.0789 -0.0328 -0.0643
92908W        W35846  18.415  23.028  16.320 -0.2325 -0.1433  0.1051
92909W        W35847  19.810  24.997  17.618  0.1475  0.0566 -0.1486
92910W        W35848  21.702  24.739  16.332  0.0969 -0.1335 -0.1360
92911W        W35849  20.557  24.757  15.694 -0.0753  0.1586 -0.1156
92912W        W35850  21.779  25.977  18.685  0.0635  0.0706  0.3722
92913W        W35851  20.052  26.578  19.119 -0.0009 -0.2593 -0.2289
92914W        W35852  18.902  23.919  18.756 -0.1739 -0.2158  0.1235
92915W        W35853  22.146  23.968  17.867  0.0304 -0.1585  0.1253
92916W        W35854  19.844  25.256  19.689 -0.0218 -0.2607  0.0027
92917W        W35855  21.863  23.538  15.907 -0.1440  0.2155  0.0728
92918W        W35856  22.301  23.294  17.418 -0.0366 -0.2884  0.0265
92919W        W35857  20.727  22.856  16.865  0.3064  0.2341 -0.1024
92920W        W35858  19.153  23.296  18.222 -0.1141 -0.2169 -0.0949
92921W        W35859  19.472  25.063  18.755  0.1845  0.0498 -0.1811
92922W        W35860  23.666  26.465  19.095 -0.0724 -0.2610  0.2020
92923W        W35861  19.507  22.804  16.213  0.0050  0.2798 -0.0678
92924W        W35862  21.127  22.339  16.398 -0.1285  0.1799 -0.1264
92925W        W35863  19.620  25.748  15.970  0.2055  0.0357 -0.2364
92926W        W35864  19.432  24.977  19.810  0.2128 -0.0065 -0.2126
92927W        W35865  20.649  22.280  16.416  0.1994  0.0167  0.0619
92928W        W35866  20.144  25.799  19.790  0.1121  0.0276 -0.1604
92929W        W35867  21.805  23.518  18.555  0.0876 -0.0806  0.0935
92930W        W35868  22.287  24.508  18.045  0.0638 -0.0618 -0.0051
92931W        W35869  20.181  23.593  17.406  0.3108  0.2830  0.2524
92932W        W35870  21.626  23.932  16.994 -0.0915 -0.1485 -0.0864
92933W        W35871  21.750  26.668  19.879  0.0440 -0.4075 -0.1718
92934W        W35872  21.589  26.467  20.845 -0.3368 -0.0220 -0.1089
92935W        W35873  21.030  24.837  19.748  0.1850 -0.0317  0.0587
92936W        W35874  20.737  24.082  18.185  0.2668  0.3484 -0.0822
92937W        W35875  19.029  23.180  17.462 -0.3007 -0.2192 -0.1451
92938W        W35876  20.275  23.632  16.741 -0.0713 -0.0567  0.0434
92939W        W35877  19.836  25.895  18.151 -0.2331  0.2266 -0.3915
92940W        W35878  21.189  23.615  17.436  0.1022 -0.1069  0.0111
92941W        W35879  18.418  22.001  15.407  0.3299 -0.0013 -0.2614
92942W        W35880  20.126  23.349  18.484  0.2266 -0.0513 -0.1142
92943W        W35881  20.860  26.068  18.868 -0.0170 -0.0401 -0.0517
92944W        W35882  20.835  24.249  17.460 -0.2127  0.1451  0.3382
92945W        W35883  20.739  23.602  21.581 -0.6124 -0.0998  0.0680
92946W        W35884  20.746  25.029  19.327  0.1305 -0.2561 -0.0943
92947W        W35885  21.142  23.952  19.068  0.0959  0.0957 -0.2218
92948W        W35886  23.078  24.882  20.905 -0.0304 -0.0132 -0.2484
92949W        W35887  17.134  22.557  19.200 -0.2762  0.0640 -0.0870
92950W        W35888  22.144  25.786  21.722 -0.0431 -0.1468 -0.2011
92951W        W35889  19.251  22.069  21.262  0.0032  0.1358  0.1292
92952W        W35890  21.464  24.990  21.361  0.1112 -0.2274  0.2216
92953W        W35891  20.799  26.347  22.576 -0.2368 -0.0209  0.0730
92954W        W35892  20.992  24.468  19.384 -0.0691 -0.3046 -0.0494
92955W        W35893  20.606  24.087  20.119  0.0836 -0.1269 -0.2457
92956W        W35894  21.964  25.325  21.860 -0.0055 -0.1040  0.2522
92957W        W35895  17.323  24.528  20.152 -0.3251  0.2376  0.1026
92958W        W35896  18.343  24.005  20.339 -0.3006  0.0145 -0.3715
92959W        W35897  22.376  24.224  21.875 -0.4031 -0.1643 -0.4158
92960W        W35898  18.329  25.231  19.403  0.3135 -0.1165 -0.2170
92961W        W35899  20.674  23.164  21.403 -0.0031 -0.0037 -0.0490
92962W        W35900  20.248  24.771  18.434 -0.1891 -0.0192  0.0564
92963W        W35901  20.886  24.572  21.596 -0.1735 -0.1137  0.2762
92964W        W35902  20.849  23.328  20.882  0.0902  0.0063 -0.1284
92965W        W35903  20.213  23.178  21.721 -0.0139  0.3176 -0.1525
92966W        W35904  19.558  26.118  20.102  0.0199 -0.0212 -0.0877
92967W        W35905  18.794  23.453  18.539  0.2485  0.2645  0.1320
92968W        W35906  16.354  24.228  20.735 -0.0121 -0.0352  0.0631
92969W        W35907  21.057  24.755  22.431 -0.2564 -0.1657  0.0824
92970W        W35908  20.364  23.021  22.725  0.0028  0.0619 -0.3656
92971W        W35909  22.017  24.049  20.535  0.0270 -0.4862  0.2233
92972W        W35910  19.276  25.857  21.792  0.3102  0.2375 -0.5547
92973W        W35911  21.403  25.344  21.854  0.3072 -0.1184 -0.1110
92974W        W35912  23.290  23.074  23.183  0.2378  0.0191 -0.3224
92975W        W35913  18.296  27.350  20.398 -0.0778  0.2534  0.0777
92976W        W35914  17.821  26.526  20.105 -0.0304  0.1349  0.0675
92977W        W35915  20.814  26.511  21.570 -0.1459 -0.0564 -0.0116
92978W        W35916  22.439  24.760  20.222  0.2056  0.0033 -0.1227
92979W        W35917  20.463  24.609  22.064  0.0479  0.3117 -0.0748
92980W        W35918  20.205  24.935  23.211  0.0196  0.1928 -0.2295
92981W        W35919  17.595  26.641  19.650 -0.3032  0.1519 -0.2550
92982W        W35920  22.404  25.687  24.648  0.4178 -0.1914  0.3053
92983W        W35921  20.252  24.912  22.690  0.0010 -0.1798 -0.2258
92984W        W35922  20.332  22.388  21.617 -0.1618  0.3319  0.1891
92985W        W35923  21.091  23.910  20.294  0.2554 -0.1065  0.2423
92986W        W35924  21.639  25.774  19.794  0.1911 -0.2705  0.3374
92987W        W35925  20.146  26.102  21.195  0.3265  0.0734 -0.1155
92988W        W35926  20.245  25.404  22.462  0.4383  0.2489 -0.1242
92989W        W35927  18.203  25.555  20.147 -0.0857 -0.1378 -0.2611
92990W        W35928  22.917  24.027  24.190 -0.0400 -0.1547  0.2125
92991W        W35929  17.762  26.314  20.563 -0.1781 -0.1402 -0.1854
92992W        W35930  22.222  24.277  19.783  0.3215 -0.2742  0.4646
92993W        W35931  20.527  25.670  20.197 -0.0481  0.0517  0.0825
92994W        W35932  22.537  24.032  18.967 -0.1079  0.0855  0.2058
92995W        W35933  21.069  22.852  21.468 -0.0022  0.1724  0.2346
92996W        W35934  19.197  25.885  20.934  0.1984 -0.1289 -0.0110
92997W        W35935  19.906  23.310  20.997 -0.1284 -0.0686  0.2534
92998W        W35936  20.682  25.498  23.421 -0.0498  0.2143 -0.1383
92999W        W35937  19.892  24.490  19.484 -0.3801 -0.0701 -0.0742
93000W        W35938  20.247  23.669  21.790  0.2851  0.3006  0.2850
93001W        W35939  18.484  24.321  23.419  0.2981 -0.4930  0.1202
93002W        W35940  19.042  23.819  21.075 -0.1040 -0.0701 -0.1165
93003W        W35941  19.538  26.043  21.353  0.0237 -0.2422 -0.2557
93004W        W35942  22.247  25.506  20.969  0.1922 -0.1549  0.2875
93005W        W35943  23.088  25.583  21.687 -0.0003 -0.1720 -0.0278
93006W        W35944  17.749  24.875  20.208 -0.0502 -0.2279  0.0147
93007W        W35945  17.646  25.335  23.187  0.0514 -0.2537  0.0905
93008W        W35946  17.202  23.164  22.153  0.0368 -0.1747 -0.2418
93009W        W35947  18.960  23.986  19.468 -0.0684  0.0073  0.1699
93010W        W35948  22.382  24.190  23.792  0.0628 -0.0698  0.0348
93011W        W35949  18.955  25.296  23.250  0.0204 -0.0862  0.1888
93012W        W35950  21.663  23.722  20.493  0.2811  0.1826 -0.0977
93013W        W35951  19.730  25.627  21.537 -0.1057  0.1017  0.2235
93014W        W35952  21.940  24.375  21.672  0.2336  0.2566  0.0662
93015W        W35953  22.178  26.508  20.388  0.1539  0.2524  0.0570
93016W        W35954  20.551  22.767  21.732 -0.1004  0.0838  0.1973
93017W        W35955  21.636  22.322  22.252 -0.0645 -0.0978  0.2838
93018W        W35956  20.866  24.969  18.699 -0.1462 -0.5295  0.0622
93019W        W35957  18.767  24.403  19.712 -0.0883 -0.0026 -0.1020
93020W        W35958  22.635  23.724  22.556  0.0242  0.1848  0.1574
93021W        W35959  23.002  25.474  19.315 -0.2091  0.1000 -0.3568
93022W        W35960  18.809  24.648  21.446  0.2668 -0.0048  0.2881
93023W        W35961  21.992  23.719  22.757  0.0902  0.0623  0.2949
93024W        W35962  21.061  23.690  22.947  0.3177  0.0372 -0.2120
93025W        W35963  19.732  26.832  20.954 -0.0141  0.0148 -0.0726
93026W        W35964  18.069  25.151  21.812 -0.0109 -0.0214  0.1191
93027W        W35965  19.316  26.027  18.056  0.1554 -0.2356  0.1049
93028W        W35966  18.712  22.630  20.914  0.1925  0.2058  0.0573
93029W        W35967  19.829  23.350  21.510 -0.1869 -0.0392 -0.0126
93030W        W35968  23.877  23.239  19.218 -0.0412 -0.1457  0.4804
93031W        W35969  19.757  22.948  20.117  0.1610 -0.0127  0.1425
93032W        W35970  23.336  21.290  22.829  0.4171  0.1280 -0.1456
93033W        W35971  19.647  23.497  18.345  0.1869 -0.4033 -0.0911
93034W        W35972  21.086  25.182  20.854  0.1170 -0.0495 -0.3228
93035W        W35973  22.602  22.893  18.516 -0.0017  0.1356  0.0180
93036W        W35974  20.391  25.908  20.695  0.0302 -0.1010  0.0764
93037W        W35975  16.295  24.095  21.672 -0.0732 -0.1171  0.0439
93038W        W35976  17.892  23.748  20.070  0.3762 -0.0168  0.2101
93039W        W35977  19.582  23.593  22.849 -0.1534  0.2352 -0.1961
93040W        W35978  19.037  23.967  20.582  0.0485 -0.3325  0.0630
93041W        W35979  21.499  22.741  22.989  0.1255  0.2735 -0.0764
93042W        W35980  19.923  24.704  18.859 -0.2299  0.1625 -0.1774
93043W        W35981  21.169  23.497  21.213  0.4858 -0.2850 -0.4240
93044W        W35982  19.829  23.643  20.016 -0.0031 -0.1290 -0.2836
93045W        W35983  17.959  24.111  20.701 -0.0084 -0.0790 -0.0765
93046W        W35984  22.469  23.347  25.183 -0.2584  0.1695  0.1336
93047W        W35985  20.572  25.196  21.213  0.1359 -0.1602 -0.1346
93048W        W35986  21.266  26.874  22.401  0.2787 -0.0991 -0.1122
93049W        W35987  20.938  24.819  21.181 -0.0420  0.2332  0.2688
93050W        W35988  19.776  23.510  20.498  0.0199  0.1073 -0.0841
93051W        W35989  17.573  23.425  19.297 -0.0575 -0.0417  0.1740
93052W        W35990  18.871  25.932  22.703 -0.0568  0.1655 -0.0770
93053W        W35991  19.200  24.652  21.025  0.4398  0.0756  0.0071
93054W        W35992  20.486  22.966  20.939  0.2739 -0.1113  0.0158
93055W        W35993  22.149  24.584  23.167  0.3116 -0.1655 -0.1529
93056W        W35994  19.819  24.745  20.801  0.2888  0.1612  0.1655
93057W        W35995  19.560  25.077  21.220 -0.0765  0.0160  0.2411
93058W        W35996  22.203  22.628  23.950  0.3673  0.3319  0.2784
93059W        W35997  21.987  23.569  21.245  0.1075 -0.0442 -0.1545
93060W        W35998  21.309  23.505  21.827 -0.0174 -0.2504 -0.0460
93061W        W35999  19.422  23.981  18.546  0.0740  0.2372  0.1722
93062W        W36000  20.673  25.696  21.220  0.1113 -0.1369  0.1829
93063W        W36001  16.721  27.639  20.271  0.3407 -0.1363 -0.1441
93064W        W36002  18.437  24.821  20.180  0.2580 -0.3201 -0.0454
93065W        W36003  19.701  25.605  21.033  0.1076 -0.0171  0.0035
93066W        W36004  22.240  22.678  19.596 -0.0981 -0.0643  0.0951
93067W        W36005  19.334  24.011  21.860  0.5657 -0.3264 -0.0116
93068W        W36006  21.644  24.231  21.218 -0.1037 -0.1246  0.0339
93069W        W36007  19.336  24.330  19.528  0.0663  0.0940 -0.2246
93070W        W36008  20.292  25.112  21.968  0.0729 -0.1835 -0.1866
93071W        W36009  21.705  22.690  20.315  0.1432  0.0288 -0.0111
93072W        W36010  22.901  24.478  19.381  0.0381  0.0317 -0.1743
93073W        W36011  21.170  23.286  22.236 -0.0175 -0.2447 -0.0428
93074W        W36012  21.837  24.602  20.675 -0.1499  0.0696 -0.1802
93075W        W36013  21.103  25.055  20.317  0.1660 -0.0896  0.0794
93076W        W36014  20.885  22.514  19.076  0.4209 -0.0510  0.0920
93077W        W36015  19.041  25.366  22.287  0.2765 -0.2050 -0.3353
93078W        W36016  19.821  23.958  21.617 -0.1127  0.0609 -0.4272
93079W        W36017  19.959  26.027  21.713  0.1597 -0.0137  0.0911
93080W        W36018  20.812  23.542  20.097  0.0515  0.1217  0.1945
93081W        W36019  22.659  24.923  20.655 -0.4958  0.0701 -0.1649
93082W        W36020  18.376  25.302  21.155 -0.1887  0.1421  0.0843
93083W        W36021  21.046  24.203  22.692  0.0843  0.2202 -0.2080
93084W        W36022  21.220  24.873  21.876  0.2534  0.0454 -0.0782
93085W        W36023  20.201  22.141  22.443  0.3818  0.1462 -0.2343
93086W        W36024  19.562  24.319  20.469  0.1069 -0.1104 -0.2809
93087W        W36025  20.038  22.494  20.251 -0.1170 -0.1238 -0.0688
93088W        W36026  19.172  26.310  19.349 -0.0219 -0.1140  0.1311
93089W        W36027  21.352  22.962  21.881  0.0223  0.1147 -0.3525
93090W        W36028  21.895  22.539  22.628  0.2327  0.1271  0.1594
93091W        W36029  20.166  22.998  23.931  0.4187 -0.0458 -0.3165
93092W        W36030  22.108  23.717  23.912  0.0426 -0.0218  0.0094
93093W        W36031  22.255  23.925  21.050 -0.2235  0.1324  0.0190
93094W        W36032  21.230  23.261  23.605 -0.4248 -0.2847 -0.3395
93095W        W36033  18.633  24.669  19.206  0.0320  0.0888 -0.0005
93096W        W36034  20.728  22.780  23.057  0.1354  0.2340  0.0580
93097W        W36035  19.374  23.388  21.064 -0.4135 -0.1378 -0.3900
93098W        W36036  19.893  25.727  22.565  0.0178 -0.2851 -0.1514
93099W        W36037  21.753  24.817  21.737  0.0561 -0.1845 -0.2926
93100W        W36038  20.721  23.721  21.110  0.0981 -0.2371  0.0600
93101W        W36039  21.085  21.271  23.307  0.0165  0.2039  0.0279
93102W        W36040  21.507  23.783  20.043  0.0761 -0.2042  0.2208
93103W        W36041  18.747  25.064  20.464 -0.0664 -0.3123  0.0624
93104W        W36042  20.078  25.931  20.270 -0.0370 -0.1880  0.1266
93105W        W36043  18.890  23.227  20.117  0.1035  0.1404 -0.0928
93106W        W36044  21.222  26.219  22.341  0.2761 -0.0417 -0.1768
93107W        W36045  20.416  25.499  21.666 -0.2170 -0.1200  0.0172
93108W        W36046  19.857  25.211  22.851 -0.4499 -0.0142 -0.0687
93109W        W36047  19.039  24.458  21.933 -0.0538 -0.2697 -0.2359
93110W        W36048  21.759  22.312  20.744  0.3740  0.1431  0.4623
93111W        W36049  16.651  25.304  21.356  0.1081  0.1296  0.0240
93112W        W36050  19.465  24.917  20.313  0.1583  0.0933 -0.0108
93113W        W36051  17.266  25.001  20.267 -0.1016  0.0743  0.1184
93114W        W36052  22.987  23.164  19.189 -0.0593  0.2653 -0.1043
93115W        W36053  21.274  24.490  20.784 -0.6629  0.2103  0.2392
93116W        W36054  19.024  24.130  21.525 -0.2573 -0.1035  0.0665
93117W        W36055  21.888  23.194  20.454  0.0394 -0.3720  0.0906
93118W        W36056  17.844  24.941  21.308 -0.1076  0.0061 -0.2414
93119W        W36057  20.515  22.532  22.170  0.0137  0.2595  0.4383
93120W        W36058  22.131  23.579  20.184  0.0766 -0.1093 -0.1399
93121W        W36059  19.991  22.618  22.576  0.3096  0.0975 -0.0193
93122W        W36060  20.273  23.904  23.143 -0.1705 -0.1876  0.0375
93123W        W36061  17.943  23.859  19.541 -0.0951 -0.0331 -0.0521
93124W        W36062  20.597  24.161  21.706 -0.1733  0.2745  0.4224
93125W        W36063  19.522  23.850  20.800  0.1650  0.3225 -0.0802
93126W        W36064  16.538  25.025  20.962  0.1279 -0.0276 -0.1724
93127W        W36065  19.813  24.999  21.828 -0.1913  0.0074 -0.0688
93128W        W36066  17.772  24.256  19.281 -0.0538 -0.0799 -0.0408
93129W        W36067  19.070  24.587  20.546  0.1053 -0.2053  0.0130
93130W        W36068  19.941  23.135  22.549  0.3408  0.4065  0.0225
93131W        W36069  22.844  23.999  23.354 -0.1491  0.1476  0.0130
93132W        W36070  19.359  23.175  21.608  0.1427  0.2669  0.0828
93133W        W36071  20.627  23.181  20.405 -0.1234 -0.2505  0.3448
93134W        W36072  20.682  24.138  22.180 -0.0583  0.1473 -0.2237
93135W        W36073  20.748  24.950  22.797  0.0246  0.5196 -0.0332
93136W        W36074  21.977  23.932  22.094  0.2003  0.2484  0.3325
93137W        W36075  19.097  25.878  22.254  0.1192 -0.4051 -0.1887
93138W        W36076  21.460  22.784  22.422  0.2533 -0.0230  0.0341
93139W        W36077  23.359  25.253  20.932 -0.1332 -0.2429  0.0333
93140W        W36078  21.616  23.559  23.934 -0.0723 -0.0384  0.1911
93141W        W36079  18.188  25.116  18.181  0.0317 -0.0647  0.1991
93142W        W36080  14.919  24.396  20.912 -0.0207 -0.0780 -0.4388
93143W        W36081  20.156  24.355  20.099 -0.2521 -0.0781  0.0042
93144W        W36082  18.171  22.634  21.170  0.0777 -0.1404  0.0768
93145W        W36083  18.412  23.454  21.503 -0.2222  0.1660 -0.3285
93146W        W36084  18.645  25.936  20.375 -0.0808 -0.1556 -0.2825
93147W        W36085  19.353  24.799  21.582  0.3459 -0.0723  0.1986
93148W        W36086  22.530  22.866  19.050 -0.3783 -0.3247 -0.2755
93149W        W36087  21.388  24.741  19.436 -0.2796 -0.0845  0.1618
93150W        W36088  20.594  24.127  19.601 -0.0089  0.0274  0.0912
93151W        W36089  22.360  22.856  23.511  0.0134  0.0374  0.1391
93152W        W36090  20.323  24.579  20.622  0.1703  0.0707 -0.2769
93153W        W36091  20.651  23.002  22.247 -0.1696  0.3469 -0.0768
93154W        W36092  19.606  22.936  21.203 -0.0219 -0.3145  0.0755
93155W        W36093  21.607  25.014  20.849 -0.1512  0.1057  0.0314
93156W        W36094  15.453  23.792  22.423 -0.2086 -0.0773 -0.2030
93157W        W36095  21.178  25.976  24.363 -0.2610  0.0948  0.1544
93158W        W36096  19.450  25.454  22.632 -0.0870  0.2214  0.1795
93159W        W36097  20.174  23.216  20.007  0.0761 -0.0627 -0.2669
93160W        W36098  17.811  22.821  18.045  0.0937  0.0941  0.1249
93161W        W36099  20.565  23.551  23.026 -0.4206 -0.2038 -0.2414
93162W        W36100  22.082  24.548  22.197  0.0518  0.2908 -0.1695
93163W        W36101  19.641  25.269  20.734  0.0194  0.3490  0.2697
93164W        W36102  21.936  23.475  21.716  0.4088 -0.0132 -0.1811
93165W        W36103  18.905  22.981  21.712  0.0170 -0.2323  0.1662
93166W        W36104  21.131  23.927  20.860  0.2301  0.0346  0.1440
93167W        W36105  20.732  23.656  20.545 -0.0201  0.0082 -0.2350
93168W        W36106  19.642  24.113  19.832 -0.1776 -0.4051 -0.0702
93169W        W36107  19.063  23.031  21.251 -0.0383  0.1357 -0.1342
93170W        W36108  21.531  24.975  22.284  0.0399 -0.0338  0.1027
93171W        W36109  20.755  22.294  20.870 -0.1654 -0.1113  0.4485
93172W        W36110  20.291  22.690  23.202 -0.0504  0.0075 -0.1556
93173W        W36111  21.348  22.503  21.740 -0.1550  0.0880  0.1337
93174W        W36112  19.676  22.692  22.137  0.4834  0.1538 -0.0510
93175W        W36113  19.934  24.701  22.192 -0.0567 -0.1479 -0.0400
93176W        W36114  22.805  25.960  22.646 -0.0282  0.2818 -0.3564
93177W        W36115  22.601  22.478  17.416 -0.0559  0.3195  0.0652
93178W        W36116  22.318  22.303  20.827  0.1429 -0.1156  0.3364
93179W        W36117  20.197  24.100  21.320 -0.0399  0.1513 -0.2895
93180W        W36118  20.629  23.250  19.282 -0.0062  0.2635  0.2699
93181W        W36119  18.055  25.013  20.623 -0.0976  0.1923 -0.0231
93182W        W36120  21.563  23.295  23.207  0.2486  0.1307 -0.2524
93183W        W36121  20.282  23.031  19.533  0.1791 -0.2150  0.0416
93184W        W36122  21.716  22.502  24.011 -0.2484  0.4511 -0.0413
93185W        W36123  20.202  25.089  20.855  0.1328 -0.3521  0.1972
93186W        W36124  21.400  25.773  21.540  0.2252 -0.0506 -0.0447
93187W        W36125  21.646  23.191  19.395  0.2412 -0.0377 -0.0095
93188W        W36126  18.024  22.831  20.732 -0.1433  0.1129  0.1929
93189W        W36127  20.142  26.507  20.817 -0.1777  0.0229 -0.0173
93190W        W36128  18.197  24.742  18.892  0.1255  0.1817  0.0733
93191W        W36129  21.744  23.404  19.849 -0.1565 -0.0384 -0.1125
93192W        W36130  20.013  23.971  20.405 -0.3082  0.0940 -0.1221
93193W        W36131  22.746  22.873  25.142  0.0593 -0.2663  0.1843
93194W        W36132  19.320  23.725  19.784  0.0364  0.0686 -0.1046
93195W        W36133  22.395  23.293  21.145 -0.0278  0.3677  0.0795
93196W        W36134  18.409  24.455  20.520 -0.2408 -0.2172  0.0523
93197W        W36135  19.582  22.585  20.536 -0.2096 -0.2488 -0.0541
93198W        W36136  18.920  24.940  21.880  0.2334 -0.3311 -0.2928
93199W        W36137  18.319  23.817  22.086 -0.0537  0.2007 -0.1743
93200W        W36138  18.700  25.860  20.858 -0.0857  0.0772 -0.0493
93201W        W36139  20.748  23.568  22.180  0.1448 -0.2284 -0.2670
93202W        W36140  21.236  23.358  20.385  0.1796 -0.1181 -0.0515
93203W        W36141  20.699  25.153  19.799  0.1708 -0.0007 -0.1838
93204W        W36142  21.790  22.583  24.944 -0.2193  0.0823  0.0798
93205W        W36143  20.721  25.147  22.281 -0.2594  0.0963  0.1811
93206W        W36144  19.665  24.600  19.976  0.3172  0.1886 -0.0874
93207W        W36145  21.997  24.254  22.601 -0.1589 -0.2087 -0.0085
93208W        W36146  21.705  25.441  22.395  0.0178 -0.1430  0.1098
93209W        W36147  20.639  25.204  20.309  0.0470 -0.1854  0.2308
93210W        W36148  16.878  22.581  21.818 -0.0663  0.2046 -0.1701
93211W        W36149  21.362  25.024  22.790 -0.1833  0.1694  0.0832
93212W        W36150  21.565  23.307  21.448 -0.0628 -0.1665  0.1094
93213W        W36151  18.230  22.937  19.889  0.1017  0.1121 -0.3495
93214W        W36152  19.049  25.090  21.291  0.1336  0.0965  0.0121
93215W        W36153  19.183  25.609  23.521 -0.0552 -0.0653 -0.1464
93216W        W36154  19.463  23.974  22.586  0.3166  0.1385  0.3958
93217W        W36155  19.128  26.378  19.921 -0.0652  0.0481  0.0087
93218W        W36156  22.128  25.036  20.820  0.0797  0.1720 -0.1253
93219W        W36157  20.229  25.278  20.022 -0.3707  0.2213  0.1095
93220W        W36158  19.950  26.668  22.871 -0.1490 -0.2363  0.2589
93221W        W36159  20.082  24.222  19.084  0.4512  0.0996  0.1844
93222W        W36160  18.243  25.789  21.050  0.0376 -0.2258  0.0559
93223W        W36161  18.260  26.262  20.539  0.1026  0.0407  0.2351
93224W        W36162  21.415  24.702  20.385 -0.0002 -0.0602  0.1445
93225W        W36163  18.728  24.844  20.984 -0.0002  0.0858  0.2727
93226W        W36164  21.474  24.490  22.743  0.1037 -0.1045  0.0879
93227W        W36165  22.854  23.694  19.168  0.1398 -0.1485  0.0408
93228W        W36166  22.364  25.260  20.427  0.2005  0.2308 -0.1738
93229W        W36167  24.238  22.969  19.848 -0.2089  0.1511 -0.1252
93230W        W36168  21.056  25.163  23.204  0.0349  0.1102 -0.2672
93231W        W36169  19.431  23.872  20.278 -0.0367 -0.2627 -0.2547
93232W        W36170  18.301  24.610  19.703 -0.0669 -0.2653 -0.0603
93233W        W36171  20.303  24.609  21.630 -0.0969  0.1689  0.1636
93234W        W36172  22.628  22.475  23.403 -0.0256  0.1278 -0.3292
93235W        W36173  18.301  24.086  22.559  0.0338 -0.4179 -0.2170
93236W        W36174  21.001  23.916  21.859 -0.1076  0.2713 -0.0067
93237W        W36175  18.321  24.126  19.833  0.0842 -0.0895  0.1832
93238W        W36176  20.329  23.974  20.826 -0.3910  0.0612 -0.0157
93239W        W36177  21.524  21.117  23.151  0.0893 -0.1228 -0.0296
93240W        W36178  18.810  25.746  17.814  0.0241 -0.5630  0.0585
93241W        W36179  21.184  22.392  21.271 -0.1314 -0.1658  0.3144
93242W        W36180  19.742  26.502  21.388 -0.0277  0.1576 -0.0912
93243W        W36181  18.161  24.347  22.011  0.0425 -0.4572  0.0482
93244W        W36182  20.949  25.708  21.781 -0.1729 -0.2457  0.1140
93245W        W36183  17.451  23.894  19.337  0.2719 -0.1907  0.1318
93246W        W36184  21.570  24.217  20.371  0.0168  0.0267  0.0315
93247W        W36185  21.118  23.042  23.149 -0.0518  0.3614 -0.2333
93248W        W36186  22.392  22.396  21.526  0.1554 -0.0421 -0.0529
93249W        W36187  19.617  23.072  20.606  0.1767  0.1875  0.2697
93250W        W36188  20.696  22.660  20.553  0.2129  0.2882 -0.3279
93251W        W36189  19.967  23.955  22.695 -0.0766 -0.0835  0.1456
93252W        W36190  17.395  23.758  22.430 -0.1950 -0.2322 -0.0338
93253W        W36191  20.501  23.867  19.071 -0.3563 -0.0811 -0.2626
93254W        W36192  22.345  24.590  22.712 -0.3221 -0.2375  0.1253
93255W        W36193  21.988  24.944  20.355  0.2917  0.1041 -0.0058
93256W        W36194  21.919  24.059  23.572 -0.0172 -0.0799  0.0760
93257W        W36195  18.752  23.444  20.853 -0.1430 -0.5568  0.1577
93258W        W36196  21.170  23.433  19.794 -0.1961 -0.0889  0.0165
93259W        W36197  19.191  24.458  20.049 -0.1004 -0.2591  0.2461
93260W        W36198  20.232  23.538  22.653  0.3199  0.2493  0.3523
93261W        W36199  19.715  25.138  22.332  0.0370  0.1511 -0.3075
93262W        W36200  17.896  23.656  20.552 -0.0733 -0.0493  0.2904
93263W        W36201  22.518  25.034  21.197  0.1043 -0.0474  0.0302
93264W        W36202  21.612  23.773  20.985 -0.0614  0.0959 -0.2213
93265W        W36203  20.879  25.883  20.456 -0.1166  0.0843  0.2063
93266W        W36204  21.456  23.988  22.039 -0.1086  0.2152  0.1822
93267W        W36205  20.220  25.523  21.054 -0.0060 -0.0659 -0.0559
93268W        W36206  19.592  24.195  21.233  0.3819 -0.1515  0.3748
93269W        W36207  21.678  26.113  23.072 -0.1983  0.0249 -0.3210
93270W        W36208  23.089  23.854  22.907  0.1770  0.1952 -0.1800
93271W        W36209  19.988  21.461  20.130 -0.1939  0.0298  0.0398
93272W        W36210  20.616  22.525  21.274 -0.5180 -0.0800 -0.0426
93273W        W36211  18.796  25.383  20.970  0.0364  0.2506 -0.2857
93274W        W36212  20.262  23.834  22.239 -0.3021 -0.3058  0.2020
93275W        W36213  22.583  22.976  21.522  0.1132 -0.3767  0.2523
93276W        W36214  19.958  24.844  20.331  0.1600  0.0822  0.2690
93277W        W36215  22.420  21.492  23.164  0.1897 -0.1548  0.0434
93278W        W36216  20.102  24.211  21.944  0.1013 -0.0781  0.0105
93279W        W36217  20.260  24.332  22.418  0.2845 -0.2642  0.0696
93280W        W36218  17.100  24.715  19.703 -0.3118 -0.0021  0.1859
93281W        W36219  21.182  25.326  22.391 -0.1214  0.0593  0.1487
93282W        W36220  19.010  24.927  20.064 -0.0314  0.3359  0.0413
93283W        W36221  20.475  26.634  22.344 -0.0113 -0.2077 -0.2000
93284W        W36222  22.357  24.371  21.379  0.2920 -0.0865 -0.1742
93285W        W36223  20.724  23.659  19.543  0.0233 -0.2961 -0.1264
93286W        W36224  22.161  23.930  21.549 -0.2852 -0.1829  0.1578
93287W        W36225  19.266  22.461  22.044 -0.2881  0.1554  0.0095
93288W        W36226  20.768  24.712  20.248 -0.0065  0.1340  0.0985
93289W        W36227  21.455  23.031  20.080 -0.0469 -0.0954  0.1200
93290W        W36228  19.894  24.606  21.297 -0.1789 -0.0978 -0.0802
93291W        W36229  18.181  25.278  18.910 -0.1237  0.0656 -0.0289
93292W        W36230  20.136  26.737  21.266  0.0006 -0.1253  0.0042
93293W        W36231  19.053  25.598  20.529  0.0119  0.0730  0.0392
93294W        W36232  21.042  21.735  23.578 -0.3066  0.0707  0.0146
93295W        W36233  17.879  23.693  22.395 -0.2264  0.2524  0.3438
93296W        W36234  17.723  24.676  21.987  0.5426  0.2066 -0.0058
93297W        W36235  18.943  23.394  19.089  0.2316 -0.0796 -0.0269
93298W        W36236  19.948  24.278  20.872  0.0433 -0.0843 -0.0284
93299W        W36237  18.912  24.301  23.671  0.0735 -0.1979  0.0418
93300W        W36238  18.107  23.650  21.155 -0.0303 -0.3574 -0.0134
93301W        W36239  19.886  23.818  21.093 -0.0861 -0.1958 -0.0234
93302W        W36240  20.657  24.900  20.722 -0.1797 -0.3628 -0.1602
93303W        W36241  20.456  23.739  18.499 -0.0632  0.1838  0.3174
93304W        W36242  21.495  25.331  23.492 -0.4318 -0.2119  0.0004
93305W        W36243  18.010  24.839  19.361 -0.0247 -0.1804  0.0845
93306W        W36244  21.594  24.481  22.173  0.3202 -0.1897  0.0485
93307W        W36245  19.951  23.409  23.109  0.3028 -0.0611 -0.0071
93308W        W36246  17.482  23.706  19.779 -0.0093  0.3170 -0.0738
93309W        W36247  19.738  23.209  22.036 -0.0567  0.1556 -0.1346
93310W        W36248  21.166  24.386  20.070  0.1220  0.0058  0.0659
93311W        W36249  21.351  25.477  20.476 -0.1041 -0.1463  0.0957
93312W        W36250  20.709  25.098  21.772 -0.4146  0.2117 -0.3112
93313W        W36251  19.449  24.619  23.889 -0.1429 -0.1298 -0.0667
93314W        W36252  19.139  22.381  20.429 -0.0390  0.1178 -0.2649
93315W        W36253  22.659  24.922  22.479 -0.0448  0.3039  0.1541
93316W        W36254  19.539  23.028  24.377  0.1584 -0.1416 -0.0607
93317W        W36255  22.412  24.401  19.309  0.0491  0.0396  0.2391
93318W        W36256  21.897  22.560  21.643  0.2130 -0.1057  0.0586
93319W        W36257  22.016  25.711  20.121  0.1595  0.1474  0.0556
93320W        W36258  16.978  23.804  22.089  0.3664  0.2004  0.2005
93321W        W36259  19.235  25.603  21.335 -0.1585  0.1715 -0.3650
93322W        W36260  22.723  24.630  21.101  0.4079  0.1482 -0.0024
93323W        W36261  18.640  24.962  19.730  0.2380  0.2361  0.0060
93324W        W36262  21.223  22.829  20.481 -0.1805 -0.3410  0.0353
93325W        W36263  20.397  24.721  21.111 -0.0751 -0.1188  0.0349
93326W        W36264  20.356  23.691  19.844 -0.3388  0.0008  0.1702
93327W        W36265  20.426  24.581  19.306 -0.0015 -0.1574 -0.1995
93328W        W36266  19.905  24.597  22.802  0.2907  0.1156 -0.0860
93329W        W36267  21.025  25.794  22.450 -0.0292  0.0772  0.4217
93330W        W36268  21.566  24.046  22.551  0.1757  0.2276 -0.2246
93331W        W36269  21.486  22.597  18.837 -0.0228 -0.1853  0.1145
93332W        W36270  21.450  25.446  21.103 -0.0388  0.1134  0.0145
93333W        W36271  20.199  26.063  22.201 -0.1051  0.2116  0.0662
93334W        W36272  20.668  24.500  22.590 -0.1829  0.0645  0.3188
93335W        W36273  21.283  26.545  22.796  0.0814  0.0224 -0.1761
93336W        W36274  20.673  24.270  21.213 -0.2703 -0.0589 -0.2419
93337W        W36275  17.861  22.547  21.674  0.1190 -0.0221 -0.4127
93338W        W36276  20.152  25.467  20.506 -0.0480  0.1935 -0.2486
93339W        W36277  20.067  25.118  21.377  0.2819 -0.2267 -0.1551
93340W        W36278  20.322  23.380  20.755  0.0289 -0.0948 -0.0496
93341W        W36279  20.261  22.486  20.831  0.0481 -0.0440 -0.3137
93342W        W36280  21.191  22.977  19.610  0.0139 -0.0214  0.0177
93343W        W36281  20.490  26.035  21.649  0.0658  0.1282 -0.0515
93344W        W36282  21.092  24.393  22.047  0.0054 -0.3018  0.2765
93345W        W36283  20.175  23.512  25.605 -0.1116 -0.5000 -0.1550
93346W        W36284  20.150  23.644  24.750 -0.1569 -0.2915  0.1148
93347W        W36285  20.925  22.712  22.623 -0.2222  0.2978 -0.0033
93348W        W36286  20.811  23.722  24.442 -0.1873  0.1553 -0.0225
93349W        W36287  17.657  22.245  22.563  0.0736  0.1215 -0.0166
93350W        W36288  21.758  25.747  25.274 -0.0019 -0.2640  0.2440
93351W        W36289  19.074  21.474  25.936  0.1492 -0.1278  0.0416
93352W        W36290  19.791  24.190  26.906 -0.2036  0.0667  0.0858
93353W        W36291  21.575  25.542  27.192  0.0264 -0.0464  0.1896
93354W        W36292  21.412  23.696  23.464 -0.0653 -0.0187  0.0928
93355W        W36293  18.855  22.537  26.388  0.1206  0.1883 -0.0690
93356W        W36294  19.456  23.188  25.366  0.4077  0.1233 -0.2478
93357W        W36295  18.495  21.856  23.253 -0.4266 -0.1975 -0.1088
93358W        W36296  19.417  22.159  24.989 -0.0882  0.0359 -0.1588
93359W        W36297  21.113  23.705  27.434 -0.0242  0.0119 -0.2549
93360W        W36298  18.876  23.562  23.858  0.3092 -0.1577  0.3494
93361W        W36299  19.732  22.180  25.530  0.0565 -0.4089  0.1948
93362W        W36300  19.495  24.290  24.263 -0.3033 -0.2167 -0.2920
93363W        W36301  20.764  24.580  23.843  0.0307 -0.2966  0.0549
93364W        W36302  19.625  21.757  25.293 -0.0560  0.1893 -0.1109
93365W        W36303  20.994  21.448  26.497  0.0467  0.3599 -0.3194
93366W        W36304  20.473  25.039  23.625  0.1619  0.2209  0.3063
93367W        W36305  19.006  23.457  21.977  0.2089 -0.2082 -0.1037
93368W        W36306  19.536  23.377  23.365  0.2129  0.2294  0.1136
93369W        W36307  19.777  22.019  26.144 -0.1823 -0.0221 -0.4749
93370W        W36308  21.972  21.209  25.664  0.1163  0.0318  0.1298
93371W        W36309  21.840  22.774  25.966 -0.2524 -0.3639 -0.1158
93372W        W36310  21.017  24.637  26.007  0.1579  0.2733  0.1416
93373W        W36311  19.864  24.834  23.636  0.1986 -0.2261  0.2133
93374W        W36312  22.730  21.233  26.269  0.0475 -0.1083 -0.1593
93375W        W36313  18.809  23.756  23.429  0.1659 -0.1862  0.1045
93376W        W36314  17.593  25.110  24.202 -0.1463 -0.0317 -0.1788
93377W        W36315  19.590  24.322  22.261 -0.3119  0.1638  0.0061
93378W        W36316  22.918  24.480  25.130 -0.0729 -0.2264  0.0430
93379W        W36317  20.955  24.117  27.064 -0.1840  0.2009  0.1777
93380W        W36318  20.187  23.424  26.188 -0.2070  0.0827 -0.3501
93381W        W36319  18.448  25.528  23.551 -0.1456  0.2728 -0.1679
93382W        W36320  20.700  24.206  26.624  0.0324  0.0167  0.2189
93383W        W36321  20.020  24.979  26.193  0.0944 -0.2747  0.0903
93384W        W36322  21.810  23.051  26.434  0.0461  0.0202 -0.0815
93385W        W36323  19.449  21.787  23.839  0.1912 -0.2932 -0.2516
93386W        W36324  20.408  25.812  23.849 -0.2275 -0.1944 -0.0219
93387W        W36325  20.794  24.508  24.428  0.1234  0.1766  0.0324
93388W        W36326  18.926  22.947  26.238  0.3595  0.2688 -0.0503
93389W        W36327  18.450  24.483  25.034  0.1168 -0.2361  0.1067
93390W        W36328  21.484  22.240  26.735  0.2502  0.3308  0.0565
93391W        W36329  20.108  25.403  23.805 -0.1927  0.0005 -0.1180
93392W        W36330  20.700  23.230  23.814  0.3466  0.1398  0.1448
93393W        W36331  21.057  22.908  24.049 -0.0391  0.0645  0.0004
93394W        W36332  21.761  23.262  25.614  0.1147 -0.0045  0.2082
93395W        W36333  21.555  22.346  25.773  0.2541 -0.0829  0.1616
93396W        W36334  18.875  24.982  24.486  0.0415  0.0612 -0.0096
93397W        W36335  19.184  21.859  24.670 -0.1083 -0.2430  0.0006
93398W        W36336  23.566  23.311  26.258  0.1801  0.0068 -0.0417
93399W        W36337  22.050  23.058  24.710 -0.1547 -0.0546  0.0813
93400W        W36338  19.669  21.543  26.883 -0.3052 -0.4591 -0.1906
93401W        W36339  19.194  22.207  25.460 -0.1250 -0.0908 -0.1149
93402W        W36340  18.550  22.911  24.393 -0.2101  0.2616  0.1676
93403W        W36341  21.877  23.879  25.158 -0.0460 -0.3299 -0.2121
93404W        W36342  21.531  24.078  25.428  0.1666  0.3910  0.1102
93405W        W36343  20.212  26.242  24.518  0.0630 -0.1311  0.0231
93406W        W36344  18.614  23.714  22.503  0.0172 -0.0869  0.1419
93407W        W36345  18.620  23.141  24.990  0.0785 -0.1615 -0.1152
93408W        W36346  17.654  23.370  24.911 -0.2247  0.0380  0.0545
93409W        W36347  20.162  22.858  22.182 -0.0407  0.0205 -0.0673
93410W        W36348  21.311  24.575  27.001  0.0632  0.1078 -0.2989
93411W        W36349  17.857  25.453  26.031 -0.0302 -0.0408 -0.1050
93412W        W36350  21.367  22.968  25.008 -0.2229  0.0962 -0.0725
93413W        W36351  19.734  24.683  25.682  0.2729 -0.0231  0.0501
93414W        W36352  21.416  23.672  27.018  0.0105 -0.0885 -0.3972
93415W        W36353  21.552  24.109  23.901 -0.1339  0.1952 -0.1807
93416W        W36354  20.747  21.396  23.798  0.3818 -0.1036 -0.0425
93417W        W36355  21.351  22.865  26.072  0.0557 -0.2432  0.0169
93418W        W36356  20.606  23.745  23.911 -0.1446 -0.1468 -0.0720
93419W        W36357  19.883  24.071  24.538  0.2888 -0.1426 -0.1700
93420W        W36358  21.168  24.527  26.508  0.1384 -0.0794 -0.0837
93421W        W36359  22.522  21.892  25.184 -0.0956  0.0794 -0.0476
93422W        W36360  20.891  25.108  25.023 -0.1183 -0.0844 -0.0025
93423W        W36361  20.596  23.013  27.013  0.0353  0.0183  0.0167
93424W        W36362  20.299  22.558  26.108  0.2682 -0.0669 -0.1243
93425W        W36363  18.707  26.285  23.901 -0.6291  0.0978 -0.2018
93426W        W36364  18.941  24.450  24.712  0.2646  0.0819  0.1617
93427W        W36365  19.575  24.232  22.999 -0.1097 -0.0450 -0.0776
93428W        W36366  20.009  21.744  23.704  0.0038  0.0454 -0.1178
93429W        W36367  20.527  24.406  26.204 -0.1485 -0.3930  0.1580
93430W        W36368  21.121  21.382  24.410 -0.1903 -0.0480 -0.2075
93431W        W36369  20.225  22.215  25.732  0.3080  0.2978 -0.1379
93432W        W36370  20.008  21.176  23.455 -0.0282  0.1430 -0.0206
93433W        W36371  18.771  23.425  24.388 -0.0739 -0.1524 -0.4214
93434W        W36372  22.918  24.978  25.819  0.0762  0.1010  0.1661
93435W        W36373  21.822  23.782  24.346 -0.2487 -0.0504 -0.2141
93436W        W36374  22.467  24.170  22.356  0.0824  0.2556  0.1977
93437W        W36375  17.313  22.320  25.752 -0.0173  0.1188 -0.1469
93438W        W36376  18.137  23.172  24.765  0.1032  0.0661 -0.0956
93439W        W36377  19.268  21.850  26.253 -0.0766  0.2173  0.5043
93440W        W36378  19.890  21.884  24.169  0.1016 -0.0441 -0.3354
93441W        W36379  20.690  22.359  25.585 -0.2459  0.3167  0.2683
93442W        W36380  19.608  22.012  22.324 -0.1622  0.1630  0.0760
93443W        W36381  21.402  21.213  26.591  0.2417 -0.1843 -0.1823
93444W        W36382  19.863  23.044  25.887 -0.0578  0.2783 -0.0848
93445W        W36383  19.638  24.822  23.149  0.1457  0.0688  0.2328
93446W        W36384  22.284  20.045  25.804 -0.1853  0.1246  0.0748
93447W        W36385  21.695  24.532  24.718 -0.1025  0.1164  0.0509
93448W        W36386  22.279  23.831  28.278 -0.1254  0.1933 -0.2714
93449W        W36387  21.037  23.879  25.221  0.1215 -0.0924 -0.1953
93450W        W36388  18.631  21.815  25.424 -0.1972 -0.1516  0.0423
93451W        W36389  19.655  22.198  23.616 -0.0194  0.2510  0.3498
93452W        W36390  18.738  24.820  24.009 -0.2474  0.1977  0.0980
93453W        W36391  19.321  23.963  24.649  0.1202 -0.1104 -0.0069
93454W        W36392  21.127  22.468  25.357  0.2202  0.0088  0.1384
93455W        W36393  22.125  25.171  25.540  0.0776 -0.1050 -0.1330
93456W        W36394  21.819  23.947  26.240  0.2315 -0.0215  0.0710
93457W        W36395  19.295  22.878  26.800  0.2161  0.0322  0.1706
93458W        W36396  21.807  21.344  26.166 -0.2973 -0.2805 -0.0474
93459W        W36397  23.513  23.962  27.377  0.1581 -0.0589  0.3917
93460W        W36398  20.528  23.067  25.373 -0.2557  0.1685  0.0132
93461W        W36399  17.621  23.447  21.982 -0.1548  0.1589 -0.0266
93462W        W36400  21.868  24.385  25.190 -0.0765  0.1262  0.2116
93463W        W36401  18.440  25.019  23.563 -0.0558  0.2113  0.1952
93464W        W36402  20.945  23.283  25.207  0.0206  0.2201  0.1084
93465W        W36403  19.853  25.246  24.176 -0.0899  0.2029  0.0166
93466W        W36404  21.014  22.985  26.607  0.1571 -0.1216  0.0712
93467W        W36405  18.105  22.520  27.403  0.0459 -0.2844  0.4054
93468W        W36406  22.901  21.787  26.625  0.1345 -0.1069 -0.1286
93469W        W36407  18.495  23.479  22.923 -0.3966 -0.2269  0.0429
93470W        W36408  19.787  23.382  26.579 -0.2969  0.0912 -0.1234
93471W        W36409  20.426  23.141  23.219  0.1820 -0.0626 -0.1102
93472W        W36410  22.074  22.065  24.019  0.1543 -0.2859  0.0775
93473W        W36411  21.079  21.931  26.366  0.1539 -0.1054 -0.2303
93474W        W36412  21.089  23.114  24.593  0.0301  0.4094  0.0782
93475W        W36413  19.229  22.269  22.582  0.1854  0.1746  0.2353
93476W        W36414  20.825  22.167  24.521 -0.0324 -0.3060 -0.3068
93477W        W36415  18.471  24.245  25.504  0.1488 -0.1508 -0.0096
93478W        W36416  20.829  25.993  23.489 -0.1142  0.0802 -0.3742
93479W        W36417  20.603  23.638  26.000  0.0916 -0.3172 -0.1390
93480W        W36418  20.688  22.213  23.359 -0.3017 -0.0468  0.4235
93481W        W36419  22.916  24.975  23.337 -0.2204  0.2533 -0.0201
93482W        W36420  18.978  25.045  25.474 -0.1882 -0.0350  0.2113
93483W        W36421  21.346  22.343  28.218  0.0479 -0.4211 -0.1187
93484W        W36422  21.476  24.345  25.953 -0.0297 -0.1190 -0.2511
93485W        W36423  20.771  21.683  26.114  0.1498  0.0176  0.0215
93486W        W36424  19.538  24.256  23.547 -0.2376 -0.1312 -0.0145
93487W        W36425  21.603  21.967  24.848 -0.1446  0.1126  0.0987
93488W        W36426  18.581  26.473  23.417 -0.1406 -0.4483  0.0815
93489W        W36427  20.765  20.920  25.198 -0.1294  0.2788 -0.0324
93490W        W36428  20.290  21.942  26.226 -0.0830  0.5005  0.0147
93491W        W36429  20.923  21.973  25.760  0.0385  0.1592  0.1001
93492W        W36430  21.747  24.308  26.598  0.0163 -0.1689 -0.0355
93493W        W36431  21.610  22.405  23.357 -0.0255  0.0204  0.0225
93494W        W36432  23.089  20.755  26.529  0.0774  0.2344 -0.3939
93495W        W36433  17.581  22.985  21.750  0.0373 -0.0178 -0.1798
93496W        W36434  21.961  21.595  27.739 -0.1990  0.2211 -0.0672
93497W        W36435  19.430  22.205  24.267 -0.1070 -0.0867  0.3138
93498W        W36436  19.852  23.498  25.209 -0.0824  0.2871  0.1061
93499W        W36437  21.137  23.116  27.691 -0.0679 -0.1846  0.1392
93500W        W36438  20.635  24.668  24.883 -0.2632  0.0779 -0.0229
93501W        W36439  19.921  23.332  27.341 -0.1495 -0.1316 -0.0984
93502W        W36440  20.634  23.932  22.629 -0.4119  0.4184 -0.1682
93503W        W36441  18.117  26.062  23.998 -0.1434  0.2024  0.2720
93504W        W36442  20.577  22.972  24.259 -0.2955  0.4209  0.4021
93505W        W36443  21.363  21.949  25.527 -0.0513 -0.0580 -0.0017
93506W        W36444  20.826  23.534  26.912 -0.0197 -0.2361 -0.1502
93507W        W36445  20.619  25.380  23.975 -0.1432  0.0610  0.0891
93508W        W36446  19.668  23.341  27.997  0.0554  0.2164  0.1357
93509W        W36447  20.212  24.946  24.058  0.1703 -0.2547 -0.0234
93510W        W36448  22.051  21.645  25.355  0.0357 -0.0668 -0.0770
93511W        W36449  18.692  23.987  24.601 -0.0887 -0.1389  0.1637
93512W        W36450  20.846  22.458  24.061  0.0885  0.0577  0.2502
93513W        W36451  19.910  23.570  23.650 -0.2109 -0.4537  0.0985
93514W        W36452  21.785  21.588  24.108  0.0555  0.2204  0.1352
93515W        W36453  21.947  24.224  25.702 -0.0565 -0.3612 -0.2398
93516W        W36454  18.284  22.681  25.154  0.1504  0.0263 -0.0691
93517W        W36455  18.939  22.625  24.884 -0.0073 -0.1961 -0.1539
93518W        W36456  19.767  22.834  24.999 -0.1798 -0.1450  0.1041
93519W        W36457  22.240  23.086  25.621 -0.0774  0.1904 -0.0841
93520W        W36458  22.048  21.719  24.829 -0.1720 -0.0003 -0.1598
93521W        W36459  21.278  24.052  26.655  0.0571  0.0491  0.2390
93522W        W36460  19.946  24.361  27.797  0.1358  0.0896  0.1685
93523W        W36461  19.175  23.939  23.062 -0.3934 -0.1590  0.1071
93524W        W36462  22.435  23.384  26.953 -0.0407  0.0676  0.0407
93525W        W36463  21.635  22.545  26.307  0.0041 -0.0814 -0.0594
93526W        W36464  18.482  25.288  23.053 -0.0754 -0.1131 -0.1702
93527W        W36465  21.069  25.612  27.157  0.0804  0.1451 -0.2246
93528W        W36466  19.493  22.834  23.479 -0.4819  0.0021  0.0670
93529W        W36467  19.371  23.724  21.455  0.0956  0.2109 -0.0330
93530W        W36468  18.189  21.088  26.443  0.0310 -0.3153 -0.0098
93531W        W36469  21.248  23.418  26.603 -0.1625  0.0825 -0.3343
93532W        W36470  21.321  21.547  26.107 -0.0447 -0.2229 -0.0573
93533W        W36471  20.124  23.026  24.486 -0.0778  0.0367 -0.3633
93534W        W36472  21.221  23.297  25.694 -0.2651  0.0853 -0.0860
93535W        W36473  20.239  24.023  26.892 -0.1837 -0.0002  0.2305
93536W        W36474  21.738  22.409  27.210 -0.3525 -0.1957 -0.1743
93537W        W36475  20.000  24.802  28.037  0.1637 -0.1384 -0.1471
93538W        W36476  20.313  21.948  24.439  0.2423 -0.2693  0.0312
93539W        W36477  23.335  23.660  24.907 -0.3934 -0.0836 -0.2633
93540W        W36478  21.912  22.089  26.516 -0.0582 -0.1741 -0.1125
93541W        W36479  19.033  24.978  22.878 -0.0239  0.0146  0.1975
93542W        W36480  18.892  23.418  25.416  0.0140 -0.2877  0.0185
93543W        W36481  18.955  24.163  22.717 -0.1662 -0.1488 -0.0263
93544W        W36482  21.090  22.043  26.954  0.0047 -0.0107 -0.0420
93545W        W36483  20.218  23.190  25.032  0.0610  0.2268  0.2150
93546W        W36484  21.155  26.054  22.962 -0.2064 -0.2963 -0.1281
93547W        W36485  19.369  25.275  25.200 -0.1187  0.3393  0.0219
93548W        W36486  22.109  22.259  23.569  0.0539 -0.3132  0.1484
93549W        W36487  20.358  23.584  23.532 -0.3152  0.1335 -0.3123
93550W        W36488  20.347  23.593  26.708 -0.3401 -0.0481 -0.0914
93551W        W36489  21.699  21.049  26.975 -0.0890 -0.0427 -0.1678
93552W        W36490  20.948  24.120  24.718 -0.2265  0.0305 -0.0214
93553W        W36491  21.093  22.449  26.404 -0.1590  0.3051  0.0218
93554W        W36492  19.356  22.672  25.188  0.3029  0.1813 -0.2619
93555W        W36493  21.036  24.332  25.585  0.2493  0.2307 -0.1242
93556W        W36494  18.583  22.215  23.848  0.0620  0.0140  0.0299
93557W        W36495  20.177  24.946  25.727  0.0791 -0.2540 -0.0911
93558W        W36496  19.054  22.917  25.535  0.3051  0.3198  0.2064
93559W        W36497  20.627  23.302  24.720  0.2778  0.1152  0.2350
93560W        W36498  18.283  23.038  23.066  0.2232 -0.1318  0.2115
93561W        W36499  19.294  22.258  26.016 -0.0120  0.0065 -0.4552
93562W        W36500  20.467  23.684  27.276  0.1344  0.0207  0.1598
93563W        W36501  20.430  24.063  24.519  0.1095 -0.1056 -0.3366
93564W        W36502  21.427  23.568  25.294 -0.3577 -0.1632 -0.0525
93565W        W36503  20.168  23.157  26.930 -0.0257  0.2498 -0.0708
93566W        W36504  21.030  23.370  24.204  0.0285 -0.1915  0.2027
93567W        W36505  21.568  23.056  24.030  0.0643 -0.0759  0.1422
93568W        W36506  18.066  25.095  23.914  0.0259 -0.2197 -0.0361
93569W        W36507  19.353  22.451  26.465 -0.2298  0.4308 -0.4001
93570W        W36508  19.663  23.926  23.889 -0.1158 -0.1579  0.1719
93571W        W36509  21.509  22.797  25.527 -0.3324  0.1484  0.1227
93572W        W36510  23.078  20.830  25.314 -0.1031 -0.0262 -0.3582
93573W        W36511  21.456  22.749  26.835 -0.1128  0.1539  0.1020
93574W        W36512  20.771  23.319  27.419  0.2505  0.0731  0.1567
93575W        W36513  19.184  20.808  23.731  0.3573  0.2466 -0.2053
93576W        W36514  20.758  25.143  26.950  0.0562  0.2990  0.1351
93577W        W36515  23.076  22.772  23.490  0.2643  0.1955  0.0359
93578W        W36516  22.383  22.971  24.315  0.1674 -0.1292  0.0625
93579W        W36517  22.143  23.763  25.904  0.3159 -0.0150  0.2531
93580W        W36518  21.264  22.462  24.817 -0.2348  0.2835  0.0108
93581W        W36519  19.023  23.353  23.205  0.2471  0.0014  0.0065
93582W        W36520  22.815  23.125  27.053 -0.2096  0.1228  0.2873
93583W        W36521  19.036  23.652  22.725  0.0020 -0.1366 -0.4297
93584W        W36522  21.907  22.537  26.747 -0.0191 -0.1650  0.0371
93585W        W36523  20.975  25.140  23.757  0.2053  0.0056 -0.1793
93586W        W36524  20.583  24.582  25.717 -0.2130  0.3225 -0.2923
93587W        W36525  20.377  23.443  24.292 -0.0964  0.1661 -0.0501
93588W        W36526  18.134  22.413  22.534 -0.1373 -0.0022 -0.0381
93589W        W36527  18.704  23.254  25.909  0.0521 -0.2291 -0.1956
93590W        W36528  19.653  23.832  22.182  0.2508  0.0930 -0.0812
93591W        W36529  20.534  24.133  23.530  0.3204  0.3272 -0.2200
93592W        W36530  20.866  23.671  26.400 -0.2577 -0.2439 -0.0854
93593W        W36531  21.052  23.196  28.157 -0.1204  0.3168  0.1469
93594W        W36532  19.356  23.450  22.432  0.3885  0.3883 -0.3456
93595W        W36533  22.651  23.883  26.701  0.1594 -0.3397 -0.0535
93596W        W36534  17.968  25.007  23.347 -0.2276  0.0009 -0.2301
93597W        W36535  21.212  20.626  25.422  0.0408 -0.2509 -0.1029
93598W        W36536  19.647  23.632  25.669  0.3169  0.0268 -0.0461
93599W        W36537  16.461  24.055  26.581  0.1774  0.2945  0.0814
93600W        W36538  18.673  24.315  24.167 -0.3014  0.1699  0.0982
93601W        W36539  21.813  20.804  26.062  0.0207  0.5039 -0.2672
93602W        W36540  22.841  22.722  24.655  0.0395  0.2846 -0.0666
93603W        W36541  19.705  23.330  24.795  0.0283  0.1722  0.0874
93604W        W36542  21.416  21.044  27.460  0.4372  0.1234  0.3871
93605W        W36543  20.352  23.884  27.756 -0.1614 -0.1473 -0.1313
93606W        W36544  19.657  24.490  24.720 -0.2232 -0.1535  0.1165
93607W        W36545  19.648  23.462  26.120 -0.1817  0.2850 -0.0261
93608W        W36546  22.502  24.757  25.648 -0.0197  0.0433  0.3026
93609W        W36547  19.097  24.608  24.256  0.0602  0.4544 -0.1578
93610W        W36548  17.392  22.788  25.665  0.0959 -0.0478  0.1727
93611W        W36549  20.609  22.027  27.211  0.1287  0.0484 -0.1422
93612W        W36550  19.944  24.462  23.287  0.1867  0.2551  0.3385
93613W        W36551  20.882  22.660  24.520  0.1362 -0.0273 -0.0612
93614W        W36552  20.325  24.360  23.031 -0.2557  0.0897  0.1180
93615W        W36553  18.805  23.619  26.207 -0.2343 -0.1196  0.1247
93616W        W36554  18.055  23.608  25.045 -0.0372 -0.0007  0.1849
93617W        W36555  18.026  25.340  22.845  0.3560 -0.2796  0.0023
93618W        W36556  21.149  23.714  23.881  0.1348  0.0794  0.0682
93619W        W36557  21.520  25.123  24.565 -0.2941  0.0782  0.1510
93620W        W36558  21.723  25.334  26.591  0.1024 -0.1042 -0.0272
93621W        W36559  19.744  23.879  23.267 -0.0388  0.1080 -0.2348
93622W        W36560  18.880  24.791  23.454 -0.2814 -0.3752  0.0277
93623W        W36561  18.648  26.813  22.907 -0.0302 -0.1362 -0.0307
93624W        W36562  21.807  26.806  24.301 -0.0079 -0.1464  0.0331
93625W        W36563  18.362  24.796  23.089  0.1040  0.2113 -0.2200
93626W        W36564  21.687  23.472  27.425  0.1161 -0.2045  0.0212
93627W        W36565  21.344  22.346  22.728  0.1094 -0.0828 -0.0696
93628W        W36566  22.308  23.995  25.446 -0.2835 -0.1353  0.0841
93629W        W36567  21.575  21.585  25.183 -0.2074 -0.0325 -0.1788
93630W        W36568  20.149  24.426  26.552 -0.1175 -0.1342  0.2166
93631W        W36569  20.526  24.050  25.663 -0.4397  0.1341 -0.1065
93632W        W36570  19.979  23.000  23.515  0.1089  0.1449  0.1690
93633W        W36571  18.690  23.537  27.847 -0.2097 -0.3075  0.0347
93634W        W36572  21.135  20.562  27.458 -0.3336 -0.2152 -0.0777
93635W        W36573  19.929  23.896  26.456  0.0068 -0.2968 -0.0884
93636W        W36574  21.653  23.742  25.804  0.0717 -0.1450 -0.1400
93637W        W36575  19.313  22.638  24.022 -0.1159  0.1912 -0.1109
93638W        W36576  20.812  22.815  26.108 -0.2818  0.0463 -0.0404
93639W        W36577  21.001  21.014  24.739  0.0997 -0.0673  0.2971
93640W        W36578  20.865  23.554  23.442 -0.0715 -0.2284 -0.0251
93641W        W36579  21.303  23.838  26.227  0.1864 -0.4022  0.0418
93642W        W36580  19.421  25.552  24.340  0.0460  0.2258  0.0977
93643W        W36581  19.824  22.718  25.496 -0.0122  0.2729  0.1445
93644W        W36582  19.873  24.959  25.298 -0.1211  0.0936  0.1171
93645W        W36583  17.931  23.172  23.950  0.0307 -0.4563 -0.1554
93646W        W36584  21.504  22.073  26.192 -0.0745  0.0054  0.3173
93647W        W36585  18.727  22.584  25.372 -0.0490 -0.1301 -0.2108
93648W        W36586  21.333  20.090  25.101 -0.0296 -0.2781  0.0821
93649W        W36587  20.971  22.886  25.542 -0.1561  0.3767  0.1133
93650W        W36588  22.640  23.189  24.676 -0.1618  0.0877  0.1339
93651W        W36589  20.745  23.242  25.786  0.0449 -0.1318  0.0276
93652W        W36590  19.286  23.586  25.090 -0.0150  0.2068  0.2482
93653W        W36591  20.089  23.818  24.067 -0.0386  0.1531  0.0500
93654W        W36592  22.239  24.131  26.380 -0.2312  0.0627  0.0215
93655W        W36593  21.134  23.820  22.404 -0.2226 -0.3443 -0.2790
93656W        W36594  21.875  25.129  26.986 -0.0759  0.0465  0.2142
93657W        W36595  18.015  21.803  22.579 -0.2327  0.1660  0.2592
93658W        W36596  21.651  21.561  24.558 -0.1793  0.4179 -0.3098
93659W        W36597  19.978  24.294  24.090  0.2019 -0.0965 -0.0116
93660W        W36598  20.325  21.444  26.137 -0.3246  0.0739  0.2590
93661W        W36599  20.932  24.738  27.855  0.1282  0.0620  0.3790
93662W        W36600  17.366  22.418  23.456 -0.0251 -0.1311 -0.1086
93663W        W36601  21.712  25.744  23.438  0.1137 -0.0157  0.2500
93664W        W36602  21.127  23.802  25.712  0.0741  0.0992 -0.0129
93665W        W36603  19.421  25.094  23.602 -0.1022  0.0569 -0.0652
93666W        W36604  22.939  23.044  26.110  0.1117  0.0677 -0.0708
93667W        W36605  21.653  25.298  25.504  0.1235  0.0773 -0.4164
93668W        W36606  18.942  22.562  25.915 -0.2331  0.0317  0.0152
93669W        W36607  19.508  24.588  27.096 -0.2753 -0.0796  0.2134
93670W        W36608  21.483  24.635  25.437  0.1625  0.0290  0.0093
93671W        W36609  20.399  22.427  24.339 -0.2166  0.1411  0.1724
93672W        W36610  20.561  22.090  23.906  0.0949 -0.1719 -0.0895
93673W        W36611  20.053  24.086  23.586 -0.2139 -0.1132  0.3601
93674W        W36612  22.227  20.346  25.409 -0.4394  0.0552 -0.1923
93675W        W36613  21.290  20.966  26.140  0.0727 -0.0183  0.0042
93676W        W36614  19.633  26.616  23.344 -0.2598  0.1489  0.0890
93677W        W36615  21.509  21.063  24.811 -0.0283 -0.0374  0.3181
93678W        W36616  19.773  24.052  25.538 -0.1608 -0.2608 -0.0155
93679W        W36617  18.269  24.904  25.270 -0.2156 -0.0708 -0.1794
93680W        W36618  19.713  24.453  21.758  0.1315  0.0543 -0.3489
93681W        W36619  22.015  22.245  26.040  0.3358  0.1890  0.0557
93682W        W36620  19.741  25.704  23.098 -0.0994  0.1750  0.1508
93683W        W36621  19.181  25.967  24.005  0.0749 -0.3220 -0.1409
93684W        W36622  21.935  24.545  26.189 -0.1127 -0.1919  0.0655
93685W        W36623  22.412  22.584  24.765  0.1699  0.0844 -0.0822
93686W        W36624  21.017  23.288  26.170  0.1465 -0.1247  0.0909
93687W        W36625  20.399  22.755  24.789  0.3347  0.0623  0.0379
93688W        W36626  21.889  21.390  23.504  0.0163 -0.1432  0.0131
93689W        W36627  21.717  23.451  24.859 -0.0759 -0.2383  0.2202
93690W        W36628  18.328  22.567  26.497  0.1198  0.0527  0.1726
93691W        W36629  19.087  24.041  24.049 -0.1333  0.1566  0.2165
93692W        W36630  19.971  25.586  21.974  0.0376 -0.1689  0.0495
93693W        W36631  19.314  24.258  25.076  0.1819  0.2371  0.1005
93694W        W36632  20.275  20.997  27.269 -0.3228  0.0687  0.1230
93695W        W36633  19.676  23.060  23.893  0.3273  0.1707 -0.1448
93696W        W36634  19.832  22.597  23.810 -0.1086  0.2720  0.1468
93697W        W36635  19.763  22.943  23.061 -0.0175 -0.1015  0.3570
93698W        W36636  20.778  24.138  23.102  0.0044 -0.0500  0.0625
93699W        W36637  20.095  21.954  26.898  0.0388  0.2423  0.2929
93700W        W36638  18.927  22.464  22.900 -0.2625  0.0880  0.0550
93701W        W36639  20.661  23.597  25.475  0.0992  0.0408 -0.1840
93702W        W36640  21.203  24.640  23.544 -0.0122 -0.1610 -0.3050
93703W        W36641  20.748  22.790  23.608 -0.1068 -0.4094  0.3360
93704W        W36642  22.492  25.784  28.600 -0.0776 -0.0587  0.3417
93705W        W36643  19.535  25.570  22.158 -0.0354  0.0364  0.0189
93706W        W36644  21.293  23.201  27.248  0.0725 -0.0118 -0.0785
93707W        W36645  21.465  22.949  28.104 -0.0364  0.1975 -0.2057
93708W        W36646  18.292  23.277  22.473 -0.1602 -0.0341  0.4810
93709W        W36647  19.590  22.018  26.667 -0.1440  0.1639  0.2269
93710W        W36648  21.622  24.091  27.147 -0.0078  0.0844  0.0845
93711W        W36649  20.312  24.584  24.390 -0.1557  0.1348  0.2583
93712W        W36650  18.553  22.285  25.721 -0.0846  0.1014 -0.0650
93713W        W36651  20.266  24.711  26.932 -0.1151 -0.0671 -0.2801
93714W        W36652  20.478  21.744  25.719 -0.2843 -0.3982 -0.3910
93715W        W36653  20.631  23.687  25.023 -0.1783 -0.1225 -0.0919
93716W        W36654  20.041  22.830  26.563  0.1177  0.0385  0.0632
93717W        W36655  20.306  24.553  23.688  0.0400 -0.0101  0.3727
93718W        W36656  22.930  22.269  26.481  0.2610 -0.1121 -0.0039
93719W        W36657  19.391  22.550  24.655  0.2348 -0.2309 -0.0148
93720W        W36658  20.675  22.226  26.110  0.0217 -0.2085 -0.0134
93721W        W36659  19.384  23.264  27.074  0.0370  0.2214  0.0840
93722W        W36660  22.020  23.255  26.003 -0.0020 -0.0945  0.3407
93723W        W36661  20.171  22.190  23.479  0.3659 -0.0567  0.2554
93724W        W36662  22.283  22.893  25.180  0.0060 -0.1511 -0.0134
93725W        W36663  21.042  24.568  23.060  0.1112  0.0894 -0.2912
93726W        W36664  20.282  22.562  25.374  0.2712 -0.0150 -0.1909
93727W        W36665  21.017  24.108  24.148 -0.2365 -0.2107 -0.2441
93728W        W36666  20.611  23.256  26.406  0.2859 -0.0838 -0.5061
93729W        W36667  20.029  24.411  26.075  0.0028 -0.0581  0.0548
93730W        W36668  22.289  23.854  28.836  0.2319  0.1683  0.0215
93731W        W36669  21.086  22.448  25.931 -0.0085  0.0753  0.0425
93732W        W36670  22.467  23.521  24.367  0.0583 -0.2259  0.2464
93733W        W36671  21.249  25.361  27.604  0.1516 -0.2273 -0.0703
93734W        W36672  21.536  24.521  27.483 -0.0440 -0.0353  0.1553
93735W        W36673  19.735  25.101  27.155 -0.1448 -0.0693 -0.0971
93736W        W36674  21.520  23.362  26.082 -0.0082  0.1171  0.1949
93737W        W36675  18.122  23.148  25.299 -0.0408 -0.2209  0.1374
93738W        W36676  19.882  22.532  24.358 -0.3628 -0.1115  0.0275
93739W        W36677  19.636  24.822  24.364  0.2400  0.0954  0.1170
93740W        W36678  22.300  22.150  25.657 -0.1340  0.1041  0.2653
93741W        W36679  19.461  23.005  22.519  0.3886  0.4694  0.1023
93742W        W36680  21.184  20.884  24.106  0.1840  0.1626  0.1939
93743W        W36681  19.667  24.615  26.642  0.1589 -0.1705  0.1865
93744W        W36682  20.496  24.233  24.057 -0.3807 -0.0998  0.1992
93745W        W36683  19.047  24.018  29.040 -0.1935 -0.0057  0.1581
93746W        W36684  19.079  22.290  27.389  0.1696 -0.1943  0.2248
93747W        W36685  22.144  22.647  26.330 -0.2820  0.2598 -0.0687
93748W        W36686  21.810  23.821  27.870  0.1019  0.2995 -0.0433
93749W        W36687  18.638  20.695  26.861 -0.6106  0.0080  0.1319
93750W        W36688  19.424  26.601  29.354 -0.0231 -0.2856 -0.0724
93751W        W36689  18.496  22.014  28.678  0.2573  0.1593 -0.2787
93752W        W36690  19.901  23.877  28.630  0.1086  0.1927  0.1933
93753W        W36691  20.522  25.950  29.834  0.4212 -0.1043  0.1261
93754W        W36692  20.562  23.718  28.233 -0.0486 -0.1755 -0.2947
93755W        W36693  19.305  21.897  29.881  0.4107  0.2132 -0.1459
93756W        W36694  20.442  25.029  31.442 -0.2965 -0.0146  0.0537
93757W        W36695  18.725  22.253  28.376 -0.0138 -0.0956  0.1277
93758W        W36696  18.843  20.695  28.831 -0.1040  0.0453  0.0100
93759W        W36697  21.269  23.076  28.665  0.2081 -0.0139 -0.1711
93760W        W36698  18.802  23.280  26.561 -0.3020  0.2102  0.0469
93761W        W36699  18.674  22.198  27.773  0.0932  0.1604  0.0904
93762W        W36700  18.248  22.408  28.155 -0.1594 -0.0982 -0.1815
93763W        W36701  20.056  24.292  29.578 -0.1318 -0.0134  0.0399
93764W        W36702  19.195  21.363  30.352  0.2156 -0.2663 -0.0509
93765W        W36703  20.701  22.672  30.107  0.0296  0.1310 -0.0691
93766W        W36704  19.597  23.713  27.355  0.4011  0.3242  0.2077
93767W        W36705  20.107  22.295  26.502  0.3155  0.0798 -0.1448
93768W        W36706  17.160  22.254  28.079 -0.0101  0.2520  0.1439
93769W        W36707  19.395  22.018  28.711  0.0745  0.0744  0.2539
93770W        W36708  19.955  20.862  28.663  0.1864 -0.0880  0.0033
93771W        W36709  21.139  25.075  29.669  0.1610  0.2977  0.0702
93772W        W36710  20.436  23.966  30.244 -0.1152 -0.1841 -0.0609
93773W        W36711  19.053  24.676  29.437 -0.0933  0.0804  0.0096
93774W        W36712  19.905  23.643  29.419 -0.1966 -0.3896 -0.0738
93775W        W36713  19.058  23.288  27.464 -0.0218  0.1052  0.0789
93776W        W36714  19.031  24.600  28.332  0.1557  0.0490 -0.1554
93777W        W36715  20.381  23.006  30.264 -0.1774 -0.1961  0.3433
93778W        W36716  22.272  23.630  30.157 -0.1412  0.1859 -0.0886
93779W        W36717  20.523  24.231  29.709  0.0057  0.1202  0.1987
93780W        W36718  19.578  25.174  29.673  0.3953 -0.2225  0.0033
93781W        W36719  18.266  23.472  26.268 -0.0821 -0.2550  0.1215
93782W        W36720  19.130  25.290  30.848  0.0901  0.0281 -0.0379
93783W        W36721  18.081  25.036  28.608  0.0083  0.1955 -0.1705
93784W        W36722  20.382  22.316  29.465  0.2680 -0.3717 -0.1911
93785W        W36723  20.056  23.402  30.182  0.0233  0.2129  0.2364
93786W        W36724  19.546  24.867  28.490 -0.1704  0.0353  0.0804
93787W        W36725  20.322  23.093  30.738  0.0596 -0.1722  0.1860
93788W        W36726  19.008  24.587  30.385  0.2601 -0.0216  0.1605
93789W        W36727  17.064  24.927  28.519 -0.2911  0.0728 -0.0005
93790W        W36728  22.073  21.665  29.866 -0.0085 -0.1288  0.1171
93791W        W36729  18.159  23.889  27.207  0.2492  0.1239 -0.2094
93792W        W36730  21.668  22.493  27.794  0.1114 -0.1700  0.3072
93793W        W36731  21.480  21.524  27.610 -0.0284  0.0175  0.2231
93794W        W36732  20.021  21.865  29.517 -0.0737 -0.2503 -0.0798
93795W        W36733  19.532  20.291  29.969  0.0230  0.0195 -0.2197
93796W        W36734  19.753  24.765  29.467 -0.0494  0.0766  0.0282
93797W        W36735  20.255  21.358  29.580 -0.2337  0.0458 -0.2150
93798W        W36736  20.867  23.981  30.663  0.1581  0.0077  0.1006
93799W        W36737  20.921  22.590  26.918 -0.0205  0.2556  0.0532
93800W        W36738  20.400  23.914  29.292 -0.0159 -0.1386  0.0506
93801W        W36739  19.412  21.793  30.357 -0.0046  0.3508  0.0094
93802W        W36740  17.631  23.295  28.931  0.0877  0.1322  0.2143
93803W        W36741  21.385  24.302  28.648  0.0564  0.0143  0.0902
93804W        W36742  20.751  25.421  29.274 -0.0883 -0.1266 -0.0978
93805W        W36743  19.792  22.499  25.959  0.2570 -0.1282 -0.1676
93806W        W36744  19.727  22.318  28.011  0.2036  0.1249  0.0392
93807W        W36745  18.695  23.916  29.875  0.2790 -0.0267 -0.1170
93808W        W36746  17.633  23.239  28.070  0.2081 -0.0903  0.0235
93809W        W36747  17.749  21.758  27.159  0.0083 -0.0805 -0.1354
93810W        W36748  21.507  24.574  30.596 -0.1041  0.0263 -0.1483
93811W        W36749  19.056  23.472  28.935  0.1313 -0.0564 -0.0109
93812W        W36750  22.443  22.920  29.631 -0.0208  0.0876  0.3281
93813W        W36751  20.176  22.965  27.859  0.0562  0.0959 -0.1678
93814W        W36752  20.998  24.395  30.903  0.1100  0.2565  0.2455
93815W        W36753  21.269  23.910  28.226  0.1349 -0.0004  0.1522
93816W        W36754  20.744  21.187  28.194 -0.1118 -0.0334  0.0461
93817W        W36755  20.442  20.871  29.809  0.4515  0.1323 -0.1688
93818W        W36756  19.729  24.153  28.253  0.0600  0.3627 -0.0134
93819W        W36757  19.970  23.069  29.189 -0.0272 -0.0341 -0.3196
93820W        W36758  20.392  23.419  29.275  0.1009 -0.0366  0.4233
93821W        W36759  21.583  22.600  28.771 -0.2127  0.1344  0.0925
93822W        W36760  19.560  23.127  28.920  0.1115  0.2950 -0.0813
93823W        W36761  19.827  20.237  31.466  0.2345 -0.0673  0.0255
93824W        W36762  19.839  24.157  30.814 -0.1474  0.0746 -0.1528
93825W        W36763  18.855  24.929  25.973  0.1547 -0.2271  0.2527
93826W        W36764  18.584  22.523  27.258  0.2384  0.1367  0.3129
93827W        W36765  18.438  23.663  26.704 -0.1791  0.0571 -0.0026
93828W        W36766  18.410  22.386  29.476  0.2479  0.1633  0.0928
93829W        W36767  19.808  24.749  29.977 -0.2992 -0.1607  0.0330
93830W        W36768  19.529  21.565  27.538  0.0379 -0.1727 -0.0308
93831W        W36769  18.012  22.142  29.714 -0.0789 -0.0445  0.0497
93832W        W36770  21.214  21.266  28.384  0.1226 -0.2259  0.2722
93833W        W36771  18.751  24.161  28.274  0.1747  0.1303 -0.0547
93834W        W36772  21.857  24.406  28.810 -0.4153  0.1555  0.2097
93835W        W36773  21.512  23.328  29.490 -0.1036  0.1586  0.1580
93836W        W36774  20.862  24.420  28.453 -0.3639  0.0335 -0.2672
93837W        W36775  16.146  23.917  30.211  0.1192  0.0050 -0.0342
93838W        W36776  18.939  23.514  28.321  0.2952 -0.0358 -0.1378
93839W        W36777  18.995  22.099  28.989  0.1081  0.1738  0.1901
93840W        W36778  18.411  22.803  28.432  0.1382 -0.0055  0.1400
93841W        W36779  21.815  23.902  31.091  0.2886 -0.0653  0.1733
93842W        W36780  18.007  21.557  26.508 -0.3032  0.0164  0.1247
93843W        W36781  20.801  23.180  29.352  0.1857  0.2952  0.1601
93844W        W36782  20.089  22.306  27.667  0.2067  0.0321  0.1203
93845W        W36783  18.523  22.447  28.864  0.0858 -0.2886  0.0333
93846W        W36784  21.445  22.461  29.609 -0.0177  0.4266  0.1225
93847W        W36785  20.420  24.517  27.764 -0.1093 -0.0660  0.3722
93848W        W36786  20.271  24.456  30.087 -0.1995 -0.1527 -0.1041
93849W        W36787  19.960  25.448  29.404 -0.0658  0.3317  0.1722
93850W        W36788  20.030  20.879  29.466  0.0539 -0.1520 -0.0765
93851W        W36789  18.509  22.241  26.883 -0.1221  0.2222  0.2031
93852W        W36790  18.855  25.137  26.496 -0.0090  0.4777  0.1931
93853W        W36791  19.845  22.718  28.730 -0.5653 -0.1304 -0.0132
93854W        W36792  19.594  21.342  25.546 -0.4712 -0.0646 -0.1601
93855W        W36793  21.655  25.285  28.663 -0.2632 -0.0273 -0.1478
93856W        W36794  21.323  23.690  28.708 -0.1782  0.0196  0.0986
93857W        W36795  19.144  23.185  30.086  0.1438 -0.0042 -0.0950
93858W        W36796  20.266  22.033  29.018  0.0940  0.1689 -0.1094
93859W        W36797  21.554  22.621  30.230  0.0391 -0.1252  0.1550
93860W        W36798  19.511  23.837  28.960 -0.3449  0.0044 -0.0857
93861W        W36799  17.784  22.525  25.929  0.2722 -0.0946  0.0581
93862W        W36800  21.339  23.811  29.354  0.2417  0.0980  0.0842
93863W        W36801  17.823  23.047  25.690 -0.0607 -0.0882 -0.1914
93864W        W36802  17.979  23.254  29.312 -0.1634 -0.1836 -0.2676
93865W        W36803  19.517  24.783  29.049 -0.1737  0.2344 -0.0393
93866W        W36804  19.384  21.602  28.376  0.0263 -0.0656  0.1145
93867W        W36805  19.139  22.971  31.212  0.3771 -0.1290  0.0642
93868W        W36806  20.256  22.664  29.798  0.1843  0.2818  0.1185
93869W        W36807  19.771  22.915  27.106 -0.0435  0.0376  0.0903
93870W        W36808  18.062  24.229  27.993 -0.0586  0.0456 -0.0731
93871W        W36809  20.169  20.628  27.602 -0.2638  0.0211 -0.0268
93872W        W36810  20.900  21.089  27.722 -0.0593 -0.2310 -0.1215
93873W        W36811  20.548  23.221   0.085 -0.1968  0.0394  0.3914
93874W        W36812  20.961  24.568  28.929 -0.0665  0.2835 -0.0743
93875W        W36813  20.454  21.937  28.151 -0.1319  0.0267  0.1560
93876W        W36814  21.384  21.420  27.083  0.1916 -0.0216  0.2191
93877W        W36815  19.354  24.693  29.867 -0.0221  0.0373 -0.0692
93878W        W36816  19.992  24.581  28.984  0.0385  0.0695  0.1590
93879W        W36817  18.842  24.869  30.783  0.0981  0.2084  0.2590
93880W        W36818  20.199  21.233  29.014  0.3941 -0.0419 -0.1135
93881W        W36819  21.929  23.771  26.996 -0.0332  0.1642 -0.3091
93882W        W36820  18.210  23.693  29.056 -0.1898 -0.0767 -0.2258
93883W        W36821  21.474  24.056  30.699  0.0223  0.0632  0.0121
93884W        W36822  20.762  24.601  29.948  0.0200  0.1846 -0.0463
93885W        W36823  20.069  20.498  28.097  0.2061  0.2909 -0.0999
93886W        W36824  19.037  22.086  26.653 -0.1758  0.2180  0.1824
93887W        W36825  19.444  20.659  28.129  0.2433 -0.1682 -0.2100
93888W        W36826  19.326  22.750  27.393 -0.0139  0.0333 -0.1564
93889W        W36827  19.915  21.642  29.084  0.1076  0.1716  0.1162
93890W        W36828  19.679  20.433  28.534  0.0370 -0.0176 -0.2663
93891W        W36829  19.829  22.191  28.925  0.0060  0.1914 -0.1804
93892W        W36830  20.838  23.012  30.454  0.0465  0.2070 -0.3633
93893W        W36831  21.006  22.666  28.521  0.0011 -0.1537  0.1337
93894W        W36832  19.818  21.409  28.635 -0.0062 -0.2191 -0.1395
93895W        W36833  20.001  23.977  27.411 -0.0554 -0.0140  0.4338
93896W        W36834  20.099  23.261  29.675  0.1733 -0.1288  0.0996
93897W        W36835  18.720  22.787  30.360 -0.1263 -0.1065 -0.3902
93898W        W36836  17.749  24.930  29.320  0.1878  0.2214  0.0675
93899W        W36837  20.682  24.444  30.481 -0.0318  0.0200  0.3477
93900W        W36838  21.271  23.669  29.912  0.0487  0.1595  0.0284
93901W        W36839  21.230  21.940  30.446  0.0576 -0.1471  0.1074
93902W        W36840  20.935  22.835  27.319 -0.2019  0.3363 -0.1126
93903W        W36841  18.849  25.564  28.069 -0.3094  0.0713  0.0214
93904W        W36842  19.170  23.928  27.988  0.1341  0.0789 -0.2347
93905W        W36843  19.496  22.452  28.456  0.2214  0.3103  0.0682
93906W        W36844  20.157  24.068  31.210 -0.1242 -0.0043  0.0544
93907W        W36845  19.218  23.382  25.853  0.2302  0.2676  0.0265
93908W        W36846  20.495  22.346  31.049 -0.0361 -0.4611  0.1481
93909W        W36847  18.797  23.835  28.653  0.0982 -0.0157  0.1796
93910W        W36848  20.530  21.831  29.490  0.1292  0.1164  0.3527
93911W        W36849  17.174  25.221  27.640  0.0104 -0.3574 -0.1967
93912W        W36850  19.534  22.413  26.992  0.2557  0.3547  0.0185
93913W        W36851  17.586  22.530  27.262  0.2700 -0.1462  0.2487
93914W        W36852  20.008  19.967  27.276  0.1277  0.0128  0.3197
93915W        W36853  22.530  22.814  28.194  0.1682  0.0078 -0.1514
93916W        W36854  19.075  22.566  29.349  0.2871  0.0920  0.0864
93917W        W36855  18.944  21.341  28.364 -0.3414 -0.0692  0.3364
93918W        W36856  18.422  24.501  27.875 -0.3775  0.1152 -0.1381
93919W        W36857  19.406  21.614  28.975 -0.3792  0.3901  0.1724
93920W        W36858  22.316  21.701  27.331  0.0669 -0.4613  0.2530
93921W        W36859  17.990  24.188  29.106 -0.0474 -0.2952 -0.2054
93922W        W36860  18.405  23.990  30.738  0.1661 -0.3365 -0.0377
93923W        W36861  17.920  22.943  26.216 -0.0749  0.0255 -0.0248
93924W        W36862  20.804  23.678  29.470  0.1308 -0.0672 -0.0460
93925W        W36863  19.798  23.305  28.508  0.0283  0.1562  0.1002
93926W        W36864  18.780  23.023  28.043 -0.0081  0.1429  0.0347
93927W        W36865  20.410  25.468  30.120  0.0559 -0.0874 -0.0769
93928W        W36866  20.287  22.868  27.371  0.0439  0.0125  0.0216
93929W        W36867  18.208  23.205  28.021 -0.3340 -0.0799 -0.0551
93930W        W36868  19.080  21.386  29.859 -0.0445  0.3643 -0.0519
93931W        W36869  21.303  23.182  30.336  0.2155 -0.0556  0.1977
93932W        W36870  17.679  22.268  28.110 -0.0298  0.1257  0.1513
93933W        W36871  19.707  22.833  28.159  0.0004  0.1470  0.3253
93934W        W36872  20.860  23.940  28.558  0.1040 -0.2734 -0.2866
93935W        W36873  22.871  24.528  30.374 -0.2346  0.0807  0.2554
93936W        W36874  19.188  22.624  29.836  0.0950 -0.2375 -0.0658
93937W        W36875  17.275  24.950  29.542 -0.0511 -0.2095  0.1097
93938W        W36876  20.598  21.541  27.829  0.2997 -0.2963 -0.3174
93939W        W36877  21.301  25.499  29.318  0.0799 -0.2725  0.0145
93940W        W36878  20.343  23.193  31.525  0.0325  0.0966 -0.0378
93941W        W36879  18.376  23.071  26.538  0.1456  0.1505  0.0500
93942W        W36880  17.016  21.766  27.861 -0.0267 -0.2270 -0.0437
93943W        W36881  19.229  24.157  28.492  0.0422  0.0156 -0.3412
93944W        W36882  20.238  21.406  31.411 -0.2041  0.1665  0.1118
93945W        W36883  19.832  22.973  30.043  0.3694  0.1596  0.0539
93946W        W36884  19.495  23.677  28.392 -0.0411 -0.1777 -0.2104
93947W        W36885  18.146  24.426  30.094  0.2992  0.1635  0.0071
93948W        W36886  21.095  21.603  27.986  0.2881  0.0065 -0.1464
93949W        W36887  20.911  23.413  28.551 -0.2953  0.0922 -0.2337
93950W        W36888  20.364  24.243  28.196 -0.0368  0.1145 -0.4481
93951W        W36889  21.104  21.508  29.762  0.0447 -0.2946  0.0083
93952W        W36890  21.374  23.488  27.892 -0.0461 -0.3503 -0.1286
93953W        W36891  20.581  21.393  30.006 -0.1413  0.4139 -0.2572
93954W        W36892  18.659  21.666  27.580 -0.1664  0.1671 -0.2463
93955W        W36893  22.649  24.010  29.153  0.2312 -0.4030  0.0013
93956W        W36894  18.937  22.193  29.626 -0.1245 -0.3030  0.2025
93957W        W36895  20.514  25.418   1.119 -0.0047 -0.1511 -0.1790
93958W        W36896  17.995  23.986  30.177  0.0635 -0.0349 -0.0242
93959W        W36897  19.943  21.846  27.860 -0.0043 -0.3938  0.2017
93960W        W36898  18.604  20.298  28.361 -0.1745  0.2003 -0.1233
93961W        W36899  19.967  23.499  28.948 -0.0715 -0.1346  0.0904
93962W        W36900  21.327  23.754  31.111 -0.0613  0.0076  0.2980
93963W        W36901  20.059  23.646  28.104  0.0616  0.3593  0.1961
93964W        W36902  20.147  21.437  27.670 -0.1811  0.2163 -0.0270
93965W        W36903  18.721  22.684  29.782  0.1237  0.1803 -0.0656
93966W        W36904  21.197  22.910  29.397 -0.0151 -0.1142  0.2280
93967W        W36905  19.921  21.021  28.186 -0.0350  0.0599 -0.0870
93968W        W36906  19.502  23.149  27.547 -0.2645 -0.6102 -0.2505
93969W        W36907  18.687  23.251  29.240 -0.1499 -0.3491  0.1187
93970W        W36908  22.081  22.554  29.359  0.2300 -0.1528 -0.1857
93971W        W36909  21.161  23.374  29.117  0.0501  0.2756 -0.1758
93972W        W36910  19.522  21.690  29.418 -0.1036  0.1672 -0.1296
93973W        W36911  20.858  21.978  29.030 -0.2305  0.0675 -0.0950
93974W        W36912  19.284  22.165  30.628 -0.0537  0.1758 -0.1191
93975W        W36913  17.812  23.566  29.968  0.0235  0.0975  0.1470
93976W        W36914  22.156  24.701  30.573 -0.1214 -0.0479  0.0510
93977W        W36915  20.102  21.471  28.192 -0.1438  0.4206  0.0125
93978W        W36916  20.650  22.939  27.801 -0.0861 -0.0924 -0.1018
93979W        W36917  19.146  23.729  29.860  0.3661 -0.2377 -0.1511
93980W        W36918  20.332  23.416  27.700 -0.0138  0.0768  0.0605
93981W        W36919  19.380  23.469  29.285  0.0382 -0.0886  0.1280
93982W        W36920  22.111  22.682  31.274 -0.4438 -0.3261  0.2399
93983W        W36921  20.467  21.660  26.636  0.1000  0.1382 -0.1543
93984W        W36922  21.549  21.794  30.012 -0.2210  0.1581 -0.0866
93985W        W36923  18.984  23.931  27.548  0.0806 -0.0484  0.0080
93986W        W36924  21.075  24.023  28.985 -0.0990  0.0882  0.1191
93987W        W36925  19.073  21.461  27.373  0.1431  0.0902 -0.0862
93988W        W36926  19.777  21.900  28.327 -0.1568 -0.0467  0.0867
93989W        W36927  20.389  25.688  30.728  0.0877 -0.1171 -0.0586
93990W        W36928  20.607  22.453  27.587 -0.1324 -0.0508 -0.0783
93991W        W36929  18.934  22.523  26.900  0.1594 -0.0868 -0.0081
93992W        W36930  19.094  24.183  30.138 -0.0741 -0.0819  0.1473
93993W        W36931  22.163  24.223  31.358 -0.0186  0.5204 -0.0212
93994W        W36932  20.646  21.387  27.387 -0.1032 -0.2378 -0.2139
93995W        W36933  20.493  23.535  30.533  0.2229 -0.3777 -0.1355
93996W        W36934  20.448  22.480  27.017 -0.2115 -0.0340  0.1609
93997W        W36935  19.922  22.608  29.429 -0.0198 -0.2534 -0.0672
93998W        W36936  18.557  24.287  30.393  0.1123  0.2887 -0.1140
93999W        W36937  17.509  25.043  30.168 -0.3083  0.0312  0.2152
94000W        W36938  20.758  24.875  29.401  0.0356  0.0456 -0.1550
94001W        W36939  21.198  21.536  29.192  0.2633 -0.0990 -0.4972
94002W        W36940  20.857  23.974  29.898 -0.1620  0.1878 -0.3905
94003W        W36941  19.146  25.441  30.034 -0.0196  0.2367 -0.0189
94004W        W36942  21.742  23.357  30.943  0.1670  0.1031 -0.0339
94005W        W36943  19.875  22.937  30.560 -0.0302 -0.1879  0.0209
94006W        W36944  19.592  24.299  29.266  0.2716 -0.1609  0.2270
94007W        W36945  20.121  24.660  31.036 -0.1733  0.1178 -0.0452
94008W        W36946  21.146  22.734  29.940  0.1418 -0.1540  0.0236
94009W        W36947  19.432  23.931  29.434 -0.2521 -0.0393  0.0609
94010W        W36948  19.087  21.283  30.847 -0.0559 -0.2622  0.4316
94011W        W36949  20.632  22.798  30.988  0.0410  0.1255 -0.0449
94012W        W36950  21.763  23.809  29.692  0.3078  0.0933  0.0853
94013W        W36951  17.343  21.023  25.968  0.1193  0.0064 -0.2305
94014W        W36952  21.453  24.781  28.437 -0.0188 -0.4142  0.0040
94015W        W36953  20.444  25.526   0.556 -0.0123 -0.1916  0.0368
94016W        W36954  19.058  22.681  28.352 -0.2844 -0.0840  0.1936
94017W        W36955  18.448  25.574  26.780 -0.1093 -0.2070  0.1698
94018W        W36956  22.746  24.449  28.707 -0.0931 -0.0639  0.0961
94019W        W36957  20.794  23.556  27.852  0.1715 -0.0343 -0.1957
94020W        W36958  21.853  24.292  29.644 -0.1074  0.1294 -0.3036
94021W        W36959  21.350  21.065  27.935 -0.1215 -0.0100  0.3453
94022W        W36960  18.698  24.437  28.722  0.2139  0.1033 -0.2695
94023W        W36961  18.830  23.810  25.781  0.0045 -0.0458  0.0912
94024W        W36962  20.848  25.568  29.725 -0.1029  0.0549 -0.0737
94025W        W36963  19.417  25.637  27.778 -0.2702 -0.0722 -0.2529
94026W        W36964  21.137  24.330  30.199 -0.0706  0.5060 -0.0571
94027W        W36965  21.561  21.496  25.686 -0.3504  0.1483  0.1393
94028W        W36966  20.524  23.198  28.310  0.0330 -0.1038 -0.1040
94029W        W36967  20.310  21.690  28.615  0.2594 -0.2533 -0.3389
94030W        W36968  20.543  24.372  31.070  0.1575  0.1079  0.1209
94031W        W36969  18.811  21.832  29.926 -0.2294 -0.0469  0.0225
94032W        W36970  18.181  21.821  28.274  0.0020 -0.1321 -0.0120
94033W        W36971  18.478  23.398  28.468 -0.1520 -0.1419  0.0516
94034W        W36972  20.613  21.119  28.701  0.0766  0.0811 -0.2917
94035W        W36973  17.557  24.954  28.765 -0.3919  0.0783  0.1862
94036W        W36974  21.111  24.868  27.380 -0.1892 -0.1531  0.0320
94037W        W36975  17.942  20.646  26.401 -0.0173 -0.1501  0.0227
94038W        W36976  20.003  24.055  29.100  0.0871 -0.2787 -0.0001
94039W        W36977  21.533  21.465  30.468 -0.1448  0.2412  0.0034
94040W        W36978  20.209  24.262  28.681  0.1331  0.0984  0.3442
94041W        W36979  19.255  21.918  27.688 -0.0358 -0.0443  0.1335
94042W        W36980  20.630  24.216  28.962 -0.0213  0.1902  0.0789
94043W        W36981  17.235  24.189  28.442 -0.0370  0.0633  0.0955
94044W        W36982  18.113  24.108  29.674 -0.2558 -0.0005  0.1866
94045W        W36983  17.865  21.233  25.151 -0.1878  0.1297 -0.4302
94046W        W36984  21.953  21.994  29.487  0.0926 -0.1104  0.2095
94047W        W36985  19.389  22.176  31.174  0.0025 -0.3433  0.1151
94048W        W36986  19.895  20.708  30.035 -0.1125  0.2089 -0.1108
94049W        W36987  18.995  23.070  29.587  0.1456 -0.0488  0.0876
94050W        W36988  19.719  21.015  29.069 -0.2892 -0.4161 -0.2378
94051W        W36989  19.399  22.848  30.330 -0.2953 -0.0273  0.2010
94052W        W36990  19.505  22.619  29.103  0.0029  0.2625 -0.0316
94053W        W36991  20.850  21.980  27.780  0.2011  0.0621 -0.1493
94054W        W36992  21.573  23.639   0.228 -0.2244 -0.1083 -0.2161
94055W        W36993  20.539  24.209  27.371 -0.1008 -0.2586 -0.0402
94056W        W36994  20.270  24.517  31.467 -0.3017  0.0625 -0.3115
94057W        W36995  19.136  22.484  27.871  0.0265  0.0917  0.0219
94058W        W36996  19.680  21.423  27.990  0.1180 -0.0645 -0.0225
94059W        W36997  18.203  23.395  27.101  0.1830  0.1705 -0.0250
94060W        W36998  18.654  22.305  30.145 -0.0524  0.3725 -0.1603
94061W        W36999  22.275  25.443   0.224 -0.0699  0.0044  0.1286
94062W        W37000  19.002  20.548  26.544  0.0943  0.2113  0.3458
94063W        W37001  21.895  24.765  27.816 -0.0365  0.1379  0.0187
94064W        W37002  21.550  23.102  29.909 -0.1440 -0.0655 -0.0662
94065W        W37003  20.049  24.455  27.341 -0.0086 -0.2297 -0.0797
94066W        W37004  20.727  23.420  30.112  0.3309 -0.0635  0.1005
94067W        W37005  19.759  21.981  30.062  0.0851 -0.4449 -0.0144
94068W        W37006  18.008  23.053  27.469 -0.1286  0.2668 -0.2135
94069W        W37007  21.619  24.835  29.528  0.2005  0.3426  0.1632
94070W        W37008  20.329  23.734  29.803 -0.2510  0.2864 -0.2641
94071W        W37009  18.605  21.481  29.664 -0.1031 -0.0804 -0.1708
94072W        W37010  18.637  21.070  27.588  0.0856  0.0138 -0.1247
94073W        W37011  19.757  23.866  27.847  0.2111  0.0566 -0.0052
94074W        W37012  22.430  22.198  29.349 -0.4366  0.3406  0.2784
94075W        W37013  19.038  21.687  29.366 -0.2867 -0.0688  0.0869
94076W        W37014  19.248  23.340  26.388  0.2531  0.0837  0.1146
94077W        W37015  20.822  20.807  29.422  0.0799  0.1932 -0.2262
94078W        W37016  20.199  25.140  30.986 -0.0639  0.0016 -0.1474
94079W        W37017  19.291  25.010  30.248  0.1064  0.0021 -0.2161
94080W        W37018  18.889  24.383  27.822  0.2879  0.1996  0.1328
94081W        W37019  17.488  23.390  29.565 -0.0674  0.0846 -0.3240
94082W        W37020  20.576  23.065  29.805 -0.1104 -0.1589 -0.0178
94083W        W37021  20.813  24.104  27.995  0.0890 -0.2368 -0.2060
94084W        W37022  21.773  23.835  28.970 -0.4233  0.0359  0.1414
94085W        W37023  20.447  22.865  29.243 -0.1864 -0.0309 -0.1401
94086W        W37024  22.468  23.914  29.614  0.0396  0.0899  0.1016
94087W        W37025  17.888  22.829  28.247  0.1081 -0.0655  0.1789
94088W        W37026  22.462  21.453  27.821 -0.1024  0.0392 -0.0765
94089W        W37027  20.320  21.025  27.887 -0.0847 -0.1965 -0.2943
94090W        W37028  18.735  22.772  30.901  0.3641 -0.0294  0.2181
94091W        W37029  19.648  22.949  26.345  0.0710  0.0643  0.0497
94092W        W37030  18.228  22.067  26.496  0.0471 -0.2937  0.0089
94093W        W37031  19.076  22.997  29.110  0.1890 -0.1235 -0.1100
94094W        W37032  19.714  21.335  31.479 -0.0546  0.1343 -0.2073
94095W        W37033  18.858  22.377  30.579  0.0969  0.1051 -0.0705
94096W        W37034  18.264  24.250  28.488 -0.0382  0.1883 -0.1446
94097W        W37035  18.109  21.282  25.935 -0.4101  0.2744  0.3631
94098W        W37036  20.873  24.175  29.406  0.0588  0.0706  0.0176
94099W        W37037  19.179  22.061  28.172 -0.1089  0.0684  0.1724
94100W        W37038  18.144  22.035  27.850  0.1724 -0.1062  0.0492
94101W        W37039  19.322  23.190  28.431 -0.0303  0.1010  0.0636
94102W        W37040  20.384  23.801  28.753 -0.0318 -0.0463 -0.0309
94103W        W37041  19.999  20.543  29.054 -0.0320  0.2329 -0.1160
94104W        W37042  21.265  23.930  31.721  0.3860  0.0796 -0.0131
94105W        W37043  17.509  22.036  25.183  0.0516  0.0932 -0.1748
94106W        W37044  19.594  21.341  30.053 -0.1057 -0.1213 -0.2199
94107W        W37045  19.994  19.940  30.942 -0.0705 -0.1360  0.0360
94108W        W37046  18.454  21.456  27.160  0.0701 -0.0067 -0.0917
94109W        W37047  19.536  22.967  29.484  0.1657  0.2300  0.0628
94110W        W37048  19.470  23.376  29.763 -0.0537 -0.2638  0.1099
94111W        W37049  21.402  22.734  27.386 -0.4696  0.2760 -0.1076
94112W        W37050  19.991  23.837  30.478  0.1491  0.1715 -0.0171
94113W        W37051  20.975  22.360  30.938 -0.0047  0.0884  0.1977
94114W        W37052  18.529  21.188  31.124 -0.1562 -0.3575  0.2252
94115W        W37053  20.847  22.285  28.218 -0.2801 -0.0078 -0.0935
94116W        W37054  18.158  23.585  30.601  0.2163  0.2461  0.2008
94117W        W37055  22.207  24.309  27.899 -0.1188 -0.0025 -0.1592
94118W        W37056  22.898  21.339  29.132 -0.2013 -0.2012  0.4913
94119W        W37057  20.456  22.700  28.550  0.2383 -0.1743 -0.0525
94120W        W37058  17.945  19.925  30.577  0.4104  0.0491 -0.0686
94121W        W37059  18.303  22.918  29.568  0.2558 -0.0681 -0.2314
94122W        W37060  22.003  23.280  29.699  0.2123  0.0004  0.1338
94123W        W37061  19.991  22.426  27.108  0.1280 -0.0877 -0.2283
94124W        W37062  20.812  22.968  28.862  0.1325 -0.0239 -0.1162
94125W        W37063  21.631  24.783  28.990  0.3503 -0.0503 -0.0281
94126W        W37064  19.321  23.555  30.718  0.3469 -0.0872  0.1685
94127W        W37065  20.360  22.482  28.083 -0.0714 -0.1448  0.0273
94128W        W37066  21.240  22.220  30.030  0.2036  0.1361 -0.1057
94129W        W37067  19.752  23.751  29.943  0.1752 -0.0753 -0.1043
94130W        W37068  21.565  22.896  30.911  0.0639  0.0373 -0.1667
94131W        W37069  21.132  22.619  27.864  0.0694  0.1590  0.0557
94132W        W37070  21.177  22.199  28.679 -0.1263 -0.1264 -0.1440
94133W        W37071  19.873  24.222  30.177  0.0519  0.1429 -0.1214
94134W        W37072  20.984  24.991  31.895 -0.0460 -0.0168  0.1822
94135W        W37073  21.033  24.769  30.477  0.0238  0.1663 -0.0153
94136W        W37074  20.244  23.707  30.953 -0.0875  0.1333 -0.0827
94137W        W37075  17.975  20.810  30.261  0.0571 -0.1026  0.2071
94138W        W37076  18.611  23.638  27.331  0.1801  0.6391 -0.0871
94139W        W37077  20.361  24.134  30.704  0.0435  0.2023  0.0379
94140W        W37078  19.707  22.497  29.879  0.3067 -0.1135 -0.1797
94141W        W37079  19.233  23.473  27.909 -0.0656 -0.1170  0.0540
94142W        W37080  20.936  20.366  26.717 -0.0242  0.0166 -0.0899
94143W        W37081  19.151  26.292  28.429  0.1880  0.0620  0.1715
94144W        W37082  20.134  22.626  30.855 -0.0970 -0.1591  0.4572
94145W        W37083  20.832  21.851  30.698 -0.2283 -0.0277  0.1505
94146W        W37084  21.497  24.340  29.265  0.0790 -0.1373 -0.3153
94147W        W37085  17.791  23.048  30.220  0.0692  0.1280  0.0803
94148W        W37086  19.075  24.223  29.567  0.0203  0.1609  0.1298
94149W        W37087  19.478  24.410  30.547 -0.0502  0.0625  0.1097
94150W        W37088  18.855  24.877  29.961 -0.2922  0.1634  0.0349
94151W        W37089  22.439  22.115  31.365  0.2148 -0.2104 -0.0671
94152W        W37090  19.793  22.529   0.102  0.0831 -0.0922 -0.3043
94153W        W37091  19.436  21.043  31.157  0.0268 -0.2280  0.0196
94154W        W37092  19.821  23.700   0.362  0.0220 -0.0937  0.1117
94155W        W37093  20.927  24.477   0.036  0.1061 -0.2358 -0.4275
94156W        W37094  17.978  20.653  30.824  0.1420  0.2570  0.2318
94157W        W37095  21.432  24.749  29.987  0.0469 -0.0752  0.0188
94158W        W37096  19.804  23.771  31.836  0.3724  0.1332  0.1529
94159W        W37097  19.699  22.049   0.118 -0.0321 -0.0552  0.0010
94160W        W37098  19.213  25.977  31.674 -0.0227  0.5210 -0.2823
94161W        W37099  16.417  24.031  31.352 -0.0055  0.2184 -0.0612
94162W        W37100  20.142  24.148  31.727  0.4310 -0.1317  0.3494
94163W        W37101  17.434  20.739  31.031  0.1982  0.0186 -0.3342
94164W        W37102  18.561  19.998  30.336 -0.1267  0.4162 -0.1821
94165W        W37103  18.705  23.344  29.861  0.3150 -0.4815 -0.2394
94166W        W37104  19.586  24.211  31.916  0.0731  0.3234 -0.2335
94167W        W37105  20.704  21.495  31.687 -0.2640  0.1247 -0.0981
94168W        W37106  20.403  21.792   0.001 -0.0101  0.0842  0.3486
94169W        W37107  20.518  21.105  31.097  0.2072  0.1482 -0.1053
94170W        W37108  18.951  22.445  31.337 -0.0849 -0.1991  0.4113
94171W        W37109  19.954  23.393  30.692  0.0751 -0.1948  0.0629
94172W        W37110  19.142  25.692  30.464 -0.1042 -0.1693 -0.1644
94173W        W37111  19.489  22.954   0.194  0.0310  0.3458 -0.0116
94174W        W37112  19.276  24.611   0.067  0.2507 -0.1074 -0.0125
94175W        W37113  19.561  23.411  30.288  0.4601  0.0515 -0.2240
94176W        W37114  18.774  23.215   0.030  0.2969  0.3441  0.1398
94177W        W37115  20.403  23.723   0.794 -0.3497 -0.0409 -0.0018
94178W        W37116  20.208  21.290  31.905 -0.0816  0.0516 -0.0294
94179W        W37117  18.634  20.761  31.553  0.0705 -0.0512 -0.1253
94180W        W37118  19.385  23.527  31.269  0.2086  0.1061 -0.0173
94181W        W37119  18.926  22.833  31.734  0.2210 -0.3605  0.0037
94182W        W37120  18.976  24.610  31.185  0.1305  0.1780 -0.0852
94183W        W37121  21.264  21.676   0.851  0.0202 -0.1762 -0.0592
94184W        W37122  20.173  22.155  30.586 -0.0501 -0.1920 -0.0507
94185W        W37123  21.388  21.714   0.052  0.2040  0.0372 -0.0892
94186W        W37124  21.861  23.346  31.830 -0.2339 -0.1151  0.2543
94187W        W37125  20.757  22.196  30.053  0.0297  0.1144 -0.2124
94188W        W37126  18.920  23.927  31.122  0.1587 -0.0358 -0.1725
94189W        W37127  18.686  23.216  31.148 -0.1710  0.0614 -0.0862
94190W        W37128  19.273  23.813  31.689  0.4802 -0.0477  0.1243
94191W        W37129  19.212  19.968  31.430  0.2813  0.1508 -0.4227
94192W        W37130  19.702  24.489  31.474  0.2579 -0.0971  0.0046
94193W        W37131  21.089  23.462  31.860 -0.0022  0.3118 -0.0793
94194W        W37132  18.152  23.743  28.565  0.0309 -0.3246 -0.2594
94195W        W37133  19.466  23.899  30.362  0.0137  0.1311  0.2468
94196W        W37134  20.748  21.567  31.213 -0.3309 -0.1046  0.1353
94197W        W37135  19.729  22.705  31.126 -0.2298 -0.2951 -0.0668
94198W        W37136  19.339  24.120  30.958  0.1676 -0.1111  0.1418
94199W        W37137  19.926  23.561   0.881  0.2960 -0.0795 -0.2928
94200W        W37138  19.981  23.540  31.413 -0.1614  0.2980 -0.0170
94201W        W37139  21.833  24.604  31.397 -0.0135  0.2545  0.1294
94202W        W37140  19.764  24.899  30.448  0.0830  0.0597  0.2224
94203W        W37141  20.154  25.807  31.941  0.1032 -0.0863 -0.1998
94204W        W37142  17.828  23.256  30.823  0.0445 -0.0650 -0.1316
94205W        W37143  17.655  22.937  31.201 -0.3024 -0.2476 -0.0002
94206W        W37144  19.023  23.575  30.324  0.1545 -0.0321 -0.0696
94207W        W37145  16.985  23.133  31.062 -0.4213 -0.1440 -0.2133
94208W        W37146  18.152  21.629  29.816 -0.0205  0.0444  0.0208
94209W        W37147  20.530  25.186  30.567  0.2423 -0.1041 -0.0152
94210W        W37148  20.828  23.086  31.631  0.0925  0.1721  0.2777
94211W        W37149  21.159  22.223   0.259  0.0653 -0.3412 -0.0056
94212W        W37150  17.437  29.247  19.037 -0.4354 -0.0144  0.1123
94213W        W37151  19.512  27.061  16.618  0.0403  0.1222 -0.2149
94214W        W37152  21.144  26.764  15.724  0.0044 -0.2235  0.2887
94215W        W37153  22.649  28.326  17.749 -0.1659  0.2213  0.0167
94216W        W37154  17.669  26.265  16.655  0.0779 -0.0109 -0.0150
94217W        W37155  21.541  28.886  16.767  0.1377 -0.0024  0.0311
94218W        W37156  20.616  25.984  19.301  0.1170  0.0588  0.0050
94219W        W37157  21.902  27.237  19.248 -0.1819  0.3215 -0.4201
94220W        W37158  22.924  29.440  19.452  0.0816  0.6265  0.0577
94221W        W37159  20.416  27.488  16.536 -0.0833  0.0036 -0.0941
94222W        W37160  19.784  26.765  17.879  0.0600  0.2036  0.0215
94223W        W37161  19.790  27.536  18.873 -0.1269 -0.0608 -0.0333
94224W        W37162  18.672  25.938  16.891 -0.1135 -0.1300  0.3138
94225W        W37163  18.251  28.080  17.766  0.0881  0.1453  0.4923
94226W        W37164  20.781  28.756  19.520  0.0651  0.0586  0.2687
94227W        W37165  18.957  26.818  18.054  0.1848 -0.0329  0.0844
94228W        W37166  20.729  25.471  16.346  0.0099  0.1023 -0.1493
94229W        W37167  20.772  27.132  18.831 -0.1628 -0.1053 -0.2842
94230W        W37168  20.018  28.806  18.620  0.1131  0.1361  0.0321
94231W        W37169  20.562  25.643  17.305 -0.1185 -0.1325 -0.0959
94232W        W37170  20.503  26.126  19.915 -0.1834  0.1735 -0.2093
94233W        W37171  20.706  26.848  17.708 -0.1405 -0.0219 -0.2141
94234W        W37172  18.728  26.887  17.104  0.1471 -0.0376 -0.0514
94235W        W37173  18.415  27.005  18.017  0.0085  0.0554  0.3957
94236W        W37174  19.721  27.921  19.876  0.0694 -0.1154 -0.1813
94237W        W37175  21.550  26.918  18.163 -0.1692 -0.1496  0.2056
94238W        W37176  21.783  30.080  18.843 -0.1143 -0.0197 -0.2445
94239W        W37177  21.079  27.320  17.549 -0.0680 -0.0400  0.1963
94240W        W37178  20.364  28.126  18.088  0.0752 -0.1502 -0.1378
94241W        W37179  21.162  27.013  19.280  0.2320 -0.0416  0.2710
94242W        W37180  16.883  27.838  15.742  0.0844  0.0442 -0.0383
94243W        W37181  17.301  27.722  16.094  0.0001  0.0710  0.0716
94244W        W37182  19.775  27.477  16.970 -0.0726  0.3123  0.2362
94245W        W37183  21.657  28.472  18.886  0.2353  0.0149  0.0797
94246W        W37184  23.704  30.039  19.688 -0.3360  0.0226 -0.1104
94247W        W37185  20.254  28.195  20.141 -0.2622  0.1031  0.2881
94248W        W37186  17.955  29.188  17.256  0.0293 -0.0265  0.1718
94249W        W37187  19.959  29.914  20.117  0.2423 -0.0748 -0.0558
94250W        W37188  17.759  28.787  20.850 -0.2637  0.0266  0.0220
94251W        W37189  20.038  27.666  18.424 -0.1512 -0.0574 -0.1033
94252W        W37190  20.323  25.967  18.041 -0.0108 -0.0572 -0.1069
94253W        W37191  18.808  28.759  16.465 -0.0474  0.0904  0.2943
94254W        W37192  21.099  27.787  18.369  0.3402  0.0048 -0.1484
94255W        W37193  20.859  28.129  20.849  0.3838 -0.1347  0.1828
94256W        W37194  17.331  28.083  18.004  0.1129  0.0295 -0.1355
94257W        W37195  22.865  26.160  21.249 -0.1521  0.0213  0.1505
94258W        W37196  17.153  28.476  18.564  0.0910  0.2612  0.0681
94259W        W37197  21.872  28.177  16.720  0.1652 -0.0193  0.0884
94260W        W37198  19.074  27.102  15.681 -0.1749 -0.1914  0.1057
94261W        W37199  22.628  25.756  16.239 -0.1372  0.3151 -0.1431
94262W        W37200  19.554  27.649  16.506  0.0235 -0.2409  0.3401
94263W        W37201  20.094  29.076  17.133 -0.1339 -0.2325  0.0338
94264W        W37202  20.405  26.101  17.016  0.2747  0.0201  0.0574
94265W        W37203  22.613  28.254  18.802 -0.2803 -0.2756 -0.1508
94266W        W37204  20.483  26.968  15.731  0.2027  0.2865 -0.0288
94267W        W37205  19.691  27.858  18.013  0.2031  0.1830  0.2774
94268W        W37206  18.195  27.677  18.279  0.0049 -0.1118  0.1723
94269W        W37207  19.306  28.404  18.244  0.2261 -0.3359  0.1926
94270W        W37208  20.648  29.350  16.471  0.0519  0.2038  0.1790
94271W        W37209  21.490  29.229  19.097 -0.1243  0.0671  0.1176
94272W        W37210  21.683  27.675  17.768 -0.3067  0.1089 -0.1257
94273W        W37211  19.224  27.108  17.119  0.2318  0.1083  0.0910
94274W        W37212  19.979  27.103  18.471  0.1931 -0.1444 -0.0133
94275W        W37213  18.640  28.898  18.696 -0.0583  0.0648  0.2001
94276W        W37214  18.774  25.558  16.098 -0.2665 -0.2536  0.1838
94277W        W37215  22.028  27.612  21.199  0.1385  0.1778 -0.0163
94278W        W37216  16.723  27.638  18.807 -0.0302  0.0587  0.0998
94279W        W37217  21.630  25.585  15.592 -0.2726 -0.0802  0.0187
94280W        W37218  20.987  26.601  18.927  0.1135 -0.0365 -0.2262
94281W        W37219  21.321  27.222  18.858 -0.0551 -0.3307  0.0511
94282W        W37220  21.248  27.517  15.776  0.1490  0.0272  0.4461
94283W        W37221  21.479  25.237  16.944 -0.1346 -0.0064 -0.0044
94284W        W37222  22.940  25.375  18.341  0.1246  0.1667 -0.2166
94285W        W37223  19.014  27.051  16.200  0.1964  0.0814 -0.1746
94286W        W37224  20.622  27.732  18.430 -0.2075 -0.2088 -0.0662
94287W        W37225  22.037  29.213  19.390 -0.0543  0.2349 -0.0426
94288W        W37226  22.163  27.477  15.745  0.1783 -0.1820 -0.1477
94289W        W37227  19.106  29.191  18.462  0.3347  0.3065 -0.0451
94290W        W37228  18.416  28.574  19.441  0.1253  0.1726  0.0528
94291W        W37229  20.641  27.334  21.057  0.1032  0.0717  0.1217
94292W        W37230  19.355  29.411  16.717  0.2854 -0.0794 -0.2912
94293W        W37231  18.696  27.682  18.774  0.0338  0.0700  0.2455
94294W        W37232  19.419  28.029  16.788 -0.0174 -0.0259 -0.2143
94295W        W37233  18.633  26.758  18.459  0.0017 -0.0921 -0.2301
94296W        W37234  19.686  28.325  17.772 -0.1200  0.1114  0.1629
94297W        W37235  21.961  26.765  17.950  0.0055  0.1506  0.4315
94298W        W37236  19.607  27.151  17.438 -0.3117  0.3599 -0.2061
94299W        W37237  20.319  24.743  17.880  0.3677  0.2745  0.0809
94300W        W37238  19.783  27.532  16.070  0.0973 -0.3401 -0.1013
94301W        W37239  21.386  28.216  17.523 -0.1431 -0.0844  0.0980
94302W        W37240  23.230  27.631  16.757  0.0318 -0.0881 -0.1712
94303W        W37241  20.741  28.378  16.233  0.3616  0.2893 -0.0687
94304W        W37242  19.542  27.885  18.551  0.0481 -0.1629  0.0782
94305W        W37243  20.336  27.820  19.218  0.0017  0.0345  0.0095
94306W        W37244  18.696  26.241  19.599  0.0847 -0.1984 -0.0243
94307W        W37245  17.442  25.787  18.088  0.1224 -0.2232 -0.2521
94308W        W37246  20.203  27.247  19.500  0.2905 -0.2243  0.0812
94309W        W37247  18.247  26.806  16.780  0.2771  0.1045  0.0454
94310W        W37248  21.635  25.002  17.813  0.0714  0.0049  0.0992
94311W        W37249  20.450  26.136  16.079 -0.0106 -0.3022 -0.1459
94312W        W37250  19.985  28.604  18.102  0.3213  0.1375 -0.0168
94313W        W37251  21.742  27.015  20.763 -0.2337  0.0155 -0.1491
94314W        W37252  21.799  27.727  16.832 -0.2252 -0.1567  0.1564
94315W        W37253  20.698  29.507  19.051  0.3260  0.0435  0.0912
94316W        W37254  20.820  28.430  17.723 -0.0030  0.2955  0.1485
94317W        W37255  18.779  27.427  20.093 -0.0109 -0.1010  0.0612
94318W        W37256  18.331  26.138  16.511  0.0082  0.1694 -0.2068
94319W        W37257  18.355  29.221  18.285 -0.0763  0.2033 -0.5230
94320W        W37258  20.025  28.022  17.519  0.2795  0.2243  0.0770
94321W        W37259  19.197  25.820  16.762 -0.0430  0.0942  0.2018
94322W        W37260  22.432  30.629  18.662  0.0143  0.0606 -0.0275
94323W        W37261  21.339  27.140  16.877  0.2013  0.0540  0.3168
94324W        W37262  17.513  28.270  19.459 -0.1163  0.2187 -0.1214
94325W        W37263  22.844  26.165  19.366 -0.0579  0.1480 -0.1015
94326W        W37264  22.125  25.836  19.055 -0.1206  0.1947  0.0254
94327W        W37265  20.710  26.865  18.212  0.1453 -0.4544  0.1036
94328W        W37266  17.866  27.978  16.575  0.4452  0.2482  0.3883
94329W        W37267  21.155  29.665  19.022  0.1151  0.0375  0.4138
94330W        W37268  18.036  28.975  17.853  0.4401 -0.0957  0.1206
94331W        W37269  19.328  26.557  18.484 -0.1392  0.1327 -0.1068
94332W        W37270  21.027  28.348  19.516 -0.0658 -0.1425  0.1593
94333W        W37271  20.764  25.527  19.118 -0.0726  0.0575 -0.1613
94334W        W37272  17.562  27.986  19.894 -0.4070 -0.2680  0.1438
94335W        W37273  19.578  25.794  20.470  0.0730  0.0432  0.0567
94336W        W37274  18.719  26.411  16.693 -0.1497 -0.0663 -0.1222
94337W        W37275  18.829  28.175  18.456 -0.0589  0.0484 -0.0189
94338W        W37276  21.058  26.211  16.730 -0.1013 -0.0099 -0.3783
94339W        W37277  21.129  25.708  15.605 -0.3121 -0.0904 -0.0732
94340W        W37278  20.863  27.250  20.402  0.0208  0.2345 -0.5322
94341W        W37279  21.261  28.571  17.079 -0.1172 -0.0347  0.1018
94342W        W37280  19.847  26.413  16.019  0.0763 -0.2020  0.3560
94343W        W37281  20.298  26.691  16.186  0.2681  0.1018  0.1273
94344W        W37282  18.735  29.182  20.642 -0.2053 -0.0528 -0.0244
94345W        W37283  21.059  29.075  17.255  0.0556 -0.0605  0.1878
94346W        W37284  21.030  26.476  17.711 -0.0687 -0.1757  0.3578
94347W        W37285  22.460  25.829  15.710 -0.1061 -0.1531  0.0878
94348W        W37286  20.805  28.957  18.323  0.1161  0.0872  0.0325
94349W        W37287  18.292  28.204  18.302  0.2483 -0.0315 -0.3743
94350W        W37288  20.684  28.512  20.025  0.0830  0.3544  0.3271
94351W        W37289  20.255  28.368  20.613  0.1465  0.2196 -0.4046
94352W        W37290  20.549  25.105  18.244 -0.1256 -0.0233  0.0980
94353W        W37291  20.238  27.702  16.016 -0.0170 -0.2336 -0.0549
94354W        W37292  21.573  26.178  18.220  0.0446  0.1672  0.1523
94355W        W37293  19.502  29.113  17.071 -0.1874 -0.4502 -0.3109
94356W        W37294  22.585  25.879  18.239 -0.1443 -0.0963 -0.0500
94357W        W37295  21.162  26.865  18.561 -0.0380  0.2567  0.0176
94358W        W37296  21.284  25.752  18.348  0.2685  0.2059  0.1136
94359W        W37297  22.392  26.554  19.577 -0.4645 -0.0047  0.2843
94360W        W37298  23.487  28.347  17.205  0.0975 -0.0460  0.0793
94361W        W37299  20.701  27.371  17.927 -0.0180 -0.4510  0.1787
94362W        W37300  19.470  26.576  16.354  0.0353 -0.1551  0.2025
94363W        W37301  19.122  27.071  19.203 -0.3573 -0.0164 -0.1487
94364W        W37302  19.834  28.514  19.959  0.0348 -0.1741  0.1394
94365W        W37303  17.611  29.590  19.370 -0.0022  0.3960 -0.3335
94366W        W37304  20.706  28.637  20.555 -0.0312  0.4369 -0.0776
94367W        W37305  21.054  26.604  19.665  0.0815 -0.0024  0.0877
94368W        W37306  20.931  26.881  20.085 -0.1288 -0.1968 -0.4855
94369W        W37307  20.226  26.542  15.665  0.0051  0.1052 -0.2409
94370W        W37308  20.513  28.004  17.554  0.0541  0.0810 -0.1094
94371W        W37309  19.581  27.751  15.660 -0.1114 -0.2903  0.1943
94372W        W37310  20.278  24.968  17.425  0.0720  0.1718  0.3539
94373W        W37311  18.914  29.267  16.614  0.0190 -0.0070  0.1391
94374W        W37312  18.787  28.341  15.725  0.3959  0.0031  0.2429
94375W        W37313  21.368  28.184  18.590 -0.2196  0.0679 -0.0012
94376W        W37314  19.003  28.096  17.335  0.0325 -0.1771  0.0483
94377W        W37315  21.180  25.209  19.085 -0.2059 -0.1877 -0.0690
94378W        W37316  17.705  28.823  18.901  0.1682  0.2243  0.0323
94379W        W37317  20.476  26.940  16.583  0.0336 -0.1962  0.0236
94380W        W37318  19.309  26.098  17.177  0.2362 -0.1112 -0.2389
94381W        W37319  21.182  25.653  16.503  0.0460  0.2150  0.0906
94382W        W37320  22.016  27.335  17.094 -0.1117 -0.0897  0.4597
94383W        W37321  19.306  26.500  17.911 -0.0385  0.1700  0.1326
94384W        W37322  20.209  26.320  16.537  0.3637  0.2664 -0.0654
94385W        W37323  17.322  29.893  19.631 -0.1621  0.3478  0.2128
94386W        W37324  21.212  27.617  17.924 -0.1151  0.0299  0.1913
94387W        W37325  21.465  26.331  16.232 -0.1316 -0.0987  0.0605
94388W        W37326  22.399  27.985  19.174  0.0180  0.2736  0.0472
94389W        W37327  21.036  27.508  21.358  0.1359  0.0353  0.4113
94390W        W37328  18.018  26.515  16.321  0.0172 -0.3228 -0.0013
94391W        W37329  20.945  27.296  18.398  0.1596 -0.0501  0.0491
94392W        W37330  20.390  27.231  16.989  0.1892 -0.1301 -0.0302
94393W        W37331  18.787  27.815  17.700 -0.0628  0.2704  0.1188
94394W        W37332  21.772  27.441  18.789 -0.5693 -0.0253 -0.3469
94395W        W37333  21.691  26.849  17.044  0.0467 -0.3236  0.0490
94396W        W37334  18.995  29.009  17.078 -0.0039 -0.3084  0.1530
94397W        W37335  18.315  28.059  19.795 -0.3261  0.0278 -0.1268
94398W        W37336  21.637  26.535  18.529  0.0042  0.1076 -0.0056
94399W        W37337  20.019  27.089  18.970  0.0787 -0.1118 -0.3177
94400W        W37338  20.251  26.258  18.456  0.3171  0.2202 -0.0112
94401W        W37339  21.059  26.686  16.844 -0.0632  0.0766 -0.3712
94402W        W37340  21.918  26.417  19.488  0.6260 -0.1192 -0.1823
94403W        W37341  22.273  26.112  16.064  0.1514 -0.0943 -0.2000
94404W        W37342  18.803  29.298  21.492 -0.0622 -0.0259 -0.1470
94405W        W37343  20.743  25.988  17.673 -0.2833 -0.1153  0.1554
94406W        W37344  21.274  29.392  17.551 -0.0910 -0.0581  0.1039
94407W        W37345  19.423  27.841  19.073 -0.1025 -0.1921  0.0763
94408W        W37346  20.600  26.837  17.179 -0.2205  0.2304 -0.0359
94409W        W37347  18.842  27.260  17.911  0.0353  0.0878  0.1404
94410W        W37348  19.211  28.408  17.677  0.0456  0.0569  0.2292
94411W        W37349  19.396  26.952  18.785  0.2913 -0.1333  0.1390
94412W        W37350  17.935  29.272  19.149 -0.1519  0.1680  0.0541
94413W        W37351  19.202  28.060  16.338 -0.2810 -0.1556  0.1014
94414W        W37352  18.758  28.247  17.936  0.0994  0.2188 -0.0378
94415W        W37353  21.119  26.247  15.780 -0.1408  0.0981  0.3725
94416W        W37354  21.468  27.671  16.449 -0.1058 -0.2097 -0.3651
94417W        W37355  20.874  25.925  16.085 -0.2575  0.3525  0.1210
94418W        W37356  22.414  25.340  19.096 -0.1219 -0.0407 -0.1903
94419W        W37357  21.823  28.345  17.228 -0.2097 -0.1945 -0.1818
94420W        W37358  20.786  26.362  20.284 -0.2614 -0.3751 -0.0369
94421W        W37359  19.882  26.067  20.823 -0.0349  0.1805  0.1754
94422W        W37360  20.328  28.396  18.632 -0.0533 -0.0866  0.1424
94423W        W37361  18.460  26.582  19.101  0.0696  0.1440  0.5247
94424W        W37362  19.553  29.616  20.196 -0.0814  0.3132  0.1055
94425W        W37363  20.166  28.003  19.677  0.2526  0.1503  0.2476
94426W        W37364  21.777  27.286  16.598 -0.0293 -0.1251 -0.1066
94427W        W37365  19.247  25.628  16.266 -0.1209 -0.2532 -0.2428
94428W        W37366  20.026  26.821  19.719 -0.1392  0.1709  0.1557
94429W        W37367  21.984  27.908  19.725  0.1310  0.1695 -0.0800
94430W        W37368  20.224  27.718  17.158 -0.1514 -0.1032  0.2533
94431W        W37369  22.181  25.917  16.811 -0.0015 -0.4425 -0.3016
94432W        W37370  18.568  28.399  18.827  0.1424 -0.1325 -0.3348
94433W        W37371  21.565  25.473  17.401 -0.1815 -0.0629 -0.3383
94434W        W37372  21.571  25.944  16.496  0.0033  0.0692 -0.0608
94435W        W37373  18.787  27.489  17.028 -0.2732 -0.0529 -0.2753
94436W        W37374  18.018  26.176  18.914 -0.3379 -0.2485  0.1807
94437W        W37375  19.786  28.237  20.360 -0.2226  0.2610  0.3000
94438W        W37376  20.003  25.400  17.419 -0.1189  0.0409 -0.0456
94439W        W37377  20.905  26.122  19.701  0.0047 -0.2789  0.1526
94440W        W37378  20.953  27.662  20.805 -0.1019 -0.0048  0.0908
94441W        W37379  20.069  27.802  20.370  0.1177  0.1198 -0.0416
94442W        W37380  18.643  27.800  18.198  0.5105  0.1007  0.3023
94443W        W37381  21.765  27.709  19.286  0.2392 -0.0835  0.2266
94444W        W37382  21.782  26.798  16.477  0.3763 -0.2368 -0.1993
94445W        W37383  22.567  25.520  19.536  0.1431 -0.1328  0.0596
94446W        W37384  21.509  27.403  17.218 -0.1922  0.1518 -0.0718
94447W        W37385  22.301  25.340  15.975  0.0945 -0.0800  0.2028
94448W        W37386  19.039  27.210  18.395  0.0179 -0.0295 -0.0543
94449W        W37387  21.834  28.045  18.848  0.2465  0.0284  0.0815
94450W        W37388  17.423  25.674  15.692  0.2898  0.0871  0.0596
94451W        W37389  22.487  25.798  20.039  0.0441 -0.2264 -0.0023
94452W        W37390  20.314  29.626  16.797 -0.5449 -0.0527  0.2425
94453W        W37391  21.356  28.095  18.050 -0.2309 -0.1847 -0.0201
94454W        W37392  21.334  25.821  17.040 -0.2096 -0.0736 -0.0956
94455W        W37393  16.870  25.850  16.988  0.1055 -0.1227  0.1857
94456W        W37394  18.236  29.080  20.667  0.4059  0.2095  0.0224
94457W        W37395  18.178  27.186  16.496  0.0481 -0.0171  0.2126
94458W        W37396  20.249  28.605  17.197 -0.0316  0.0387 -0.1677
94459W        W37397  19.987  29.485  19.691  0.1111  0.2123  0.0129
94460W        W37398  21.339  27.008  19.859  0.0849 -0.1341  0.4102
94461W        W37399  20.303  27.104  17.864  0.2143 -0.1254 -0.1280
94462W        W37400  23.222  26.419  19.634 -0.0829 -0.2479 -0.1105
94463W        W37401  19.316  27.591  17.030 -0.0875  0.0912  0.1111
94464W        W37402  20.899  26.321  17.206  0.2113 -0.0932 -0.3092
94465W        W37403  18.974  28.846  17.833  0.3743 -0.0778  0.1170
94466W        W37404  16.720  28.368  20.146  0.3074 -0.1928 -0.2103
94467W        W37405  17.433  28.416  19.003  0.1703 -0.2255  0.2352
94468W        W37406  20.814  25.498  18.021 -0.1589  0.1674 -0.0002
94469W        W37407  21.138  26.876  17.401  0.0207 -0.1921  0.1188
94470W        W37408  20.431  27.251  18.359 -0.0925 -0.0840  0.0071
94471W        W37409  22.085  26.329  18.264 -0.2043 -0.0972 -0.0450
94472W        W37410  19.896  28.030  20.800  0.1744 -0.1418  0.1425
94473W        W37411  19.515  27.358  18.462  0.1075 -0.1548  0.4410
94474W        W37412  21.715  27.368  19.684  0.1390  0.1346  0.1633
94475W        W37413  21.690  27.846  18.298 -0.1389  0.2523  0.1393
94476W        W37414  19.894  28.159  17.043  0.0602 -0.0835  0.3804
94477W        W37415  18.990  28.096  18.920 -0.1571 -0.1056 -0.0276
94478W        W37416  19.099  28.825  20.639  0.0196 -0.0228  0.0920
94479W        W37417  21.576  28.909  18.399 -0.2808  0.1364 -0.0724
94480W        W37418  19.969  25.363  16.427  0.2053  0.1553  0.1420
94481W        W37419  20.527  29.201  15.997  0.1343  0.0950  0.0082
94482W        W37420  17.757  29.300  20.637 -0.3734 -0.1986 -0.0585
94483W        W37421  18.423  27.512  17.844  0.0254  0.2391 -0.1457
94484W        W37422  18.716  28.274  16.357 -0.0016  0.1131  0.0638
94485W        W37423  20.939  27.788  16.731 -0.0612  0.0896 -0.5674
94486W        W37424  20.817  28.273  18.373  0.0744  0.2070 -0.2030
94487W        W37425  21.123  28.782  18.680 -0.0810 -0.0977  0.0410
94488W        W37426  20.890  27.233  16.629 -0.0516  0.0407 -0.4833
94489W        W37427  17.780  27.665  17.939  0.2278 -0.0871 -0.0646
94490W        W37428  17.986  29.219  16.763  0.1694 -0.1435 -0.0560
94491W        W37429  21.453  28.381  16.578 -0.0056 -0.2542  0.1261
94492W        W37430  18.574  27.912  17.264  0.2569 -0.1733 -0.0226
94493W        W37431  23.140  27.536  21.673  0.0656 -0.1512 -0.3245
94494W        W37432  21.418  24.347  16.266 -0.0503 -0.1445  0.0693
94495W        W37433  22.540  29.042  19.119 -0.0139 -0.2149 -0.3363
94496W        W37434  21.438  26.433  17.283  0.3049  0.1080 -0.0267
94497W        W37435  19.515  28.654  20.364  0.3593  0.1482  0.0180
94498W        W37436  21.047  25.600  17.550 -0.0640 -0.2190  0.4456
94499W        W37437  19.344  25.379  15.753  0.4915 -0.0022  0.0164
94500W        W37438  16.563  26.813  19.697  0.0586  0.1292 -0.0181
94501W        W37439  22.230  27.273  21.915 -0.2655 -0.1119  0.0887
94502W        W37440  18.526  29.142  19.186 -0.2956 -0.6184  0.2517
94503W        W37441  22.190  28.300  16.196  0.2273  0.0659 -0.1106
94504W        W37442  20.072  25.652  16.844  0.4833 -0.0414  0.2771
94505W        W37443  20.045  27.422  17.509  0.0265  0.0884  0.0990
94506W        W37444  22.291  25.737  20.514  0.0638 -0.2725 -0.0835
94507W        W37445  21.367  27.993  17.033  0.2148 -0.0575  0.4452
94508W        W37446  20.795  26.458  16.365  0.2750  0.2119  0.1353
94509W        W37447  20.500  28.432  16.757 -0.0375  0.2112 -0.2482
94510W        W37448  20.962  27.426  17.119  0.0734 -0.0041  0.2454
94511W        W37449  19.200  28.562  17.168 -0.0208 -0.1412 -0.2569
94512W        W37450  17.869  25.490  15.951  0.0151  0.1715 -0.0640
94513W        W37451  21.543  26.436  17.769 -0.0869  0.1487 -0.0691
94514W        W37452  20.287  27.664  17.934  0.3379  0.0728 -0.1762
94515W        W37453  21.538  24.256  19.187 -0.0866  0.2164 -0.1292
94516W        W37454  19.518  27.645  17.570 -0.0306  0.2292 -0.3412
94517W        W37455  23.004  27.485  18.643  0.1890  0.0893 -0.0347
94518W        W37456  19.975  29.337  20.219  0.0201 -0.0069 -0.0372
94519W        W37457  19.377  26.965  18.208 -0.0846  0.1389  0.0127
94520W        W37458  20.179  28.290  16.334 -0.3206 -0.1137  0.0204
94521W        W37459  20.797  25.943  18.364 -0.1057  0.0799  0.0288
94522W        W37460  20.846  26.959  16.084  0.1422  0.4665  0.2878
94523W        W37461  20.192  29.305  20.865 -0.0132  0.2752 -0.0781
94524W        W37462  18.466  24.995  17.728  0.0610 -0.0064  0.3965
94525W        W37463  21.962  26.105  17.837  0.2802  0.2775 -0.3721
94526W        W37464  21.140  26.082  18.015 -0.1202 -0.3564 -0.0012
94527W        W37465  20.591  28.242  19.377 -0.1563 -0.0523 -0.1770
94528W        W37466  21.479  28.008  20.163  0.0349 -0.2861  0.4117
94529W        W37467  18.275  26.319  16.933 -0.0986 -0.2467 -0.1088
94530W        W37468  22.286  27.566  16.731  0.1770 -0.1654  0.1720
94531W        W37469  21.511  26.009  17.465  0.0282 -0.0049 -0.2801
94532W        W37470  19.417  28.477  16.674 -0.0110  0.2320  0.1204
94533W        W37471  22.364  27.413  18.020 -0.2123 -0.1208  0.0076
94534W        W37472  20.120  28.389  19.236 -0.1501  0.1856  0.2679
94535W        W37473  18.610  27.130  18.870  0.1160 -0.0710  0.1520
94536W        W37474  20.957  27.910  19.844  0.0270  0.1346  0.0481
94537W        W37475  22.739  27.911  19.652  0.2243 -0.2049  0.2293
94538W        W37476  19.969  26.778  16.539 -0.0772 -0.0692 -0.3594
94539W        W37477  20.147  26.801  17.489  0.1079  0.3477  0.3048
94540W        W37478  18.181  27.602  17.400 -0.0166 -0.0342 -0.1795
94541W        W37479  21.954  25.493  17.829 -0.0918 -0.1120 -0.0536
94542W        W37480  20.533  27.582  19.671 -0.1517  0.0883 -0.1240
94543W        W37481  19.991  28.531  16.776  0.1422 -0.0109 -0.0699
94544W        W37482  21.199  26.010  20.057  0.1352  0.2195  0.1450
94545W        W37483  20.297  29.912  21.168 -0.0215  0.0641  0.1604
94546W        W37484  19.066  29.708  20.424 -0.0666  0.0242 -0.2850
94547W        W37485  19.865  26.988  17.070  0.0125 -0.0215 -0.1939
94548W        W37486  18.981  28.080  21.380  0.1752  0.1844 -0.2007
94549W        W37487  20.699  28.537  18.990 -0.3255 -0.0593 -0.2634
94550W        W37488  20.317  30.404  18.284  0.2605 -0.6114  0.2007
94551W        W37489  21.796  28.772  19.337  0.1016 -0.0378  0.3329
94552W        W37490  20.699  26.504  15.745 -0.1000 -0.0443  0.2854
94553W        W37491  21.484  27.336  18.403  0.2766  0.0898  0.0244
94554W        W37492  20.088  26.504  16.968  0.1012 -0.0819 -0.1024
94555W        W37493  22.381  26.474  15.743 -0.1326  0.1558  0.0772
94556W        W37494  21.494  25.752  17.914  0.1413  0.2529  0.0072
94557W        W37495  18.716  28.692  18.273  0.1173  0.0740 -0.0071
94558W        W37496  17.949  25.879  16.750 -0.1271 -0.0326 -0.0030
94559W        W37497  19.098  27.573  16.138 -0.0590  0.1283  0.0962
94560W        W37498  19.249  27.937  17.861 -0.2834 -0.1018 -0.0171
94561W        W37499  21.344  26.257  18.772 -0.0244 -0.2265 -0.1280
94562W        W37500  19.517  26.465  18.977 -0.3285 -0.0639  0.2743
94563W        W37501  19.494  28.136  17.346 -0.0294  0.1084  0.2130
94564W        W37502  19.319  27.423  17.983  0.2125  0.3266 -0.1732
94565W        W37503  22.260  28.086  17.538 -0.2932  0.0495  0.1955
94566W        W37504  19.334  25.553  18.841  0.1180 -0.0312  0.2305
94567W        W37505  19.605  26.598  17.018  0.1781  0.0368  0.0832
94568W        W37506  21.813  27.834  17.342  0.2425 -0.0238 -0.0553
94569W        W37507  21.987  30.193  17.140 -0.4176  0.0100 -0.0329
94570W        W37508  20.485  25.874  16.564  0.3799 -0.0960  0.1644
94571W        W37509  21.465  27.538  20.056  0.4029  0.0297  0.1106
94572W        W37510  18.295  26.675  17.312 -0.1524 -0.3084  0.3273
94573W        W37511  20.319  28.556  19.711 -0.3160  0.0781  0.0013
94574W        W37512  20.670  27.362  19.240 -0.0902  0.1139  0.2131
94575W        W37513  17.375  25.726  16.242  0.0422 -0.0597 -0.0036
94576W        W37514  22.170  26.451  16.935 -0.1500 -0.1160 -0.0252
94577W        W37515  19.675  28.762  19.035  0.1324  0.3643  0.0116
94578W        W37516  21.188  29.997  16.464  0.0735 -0.0105  0.0154
94579W        W37517  19.850  28.739  19.486 -0.0967 -0.0847 -0.1319
94580W        W37518  18.979  29.090  21.075  0.0594 -0.0528  0.0010
94581W        W37519  18.931  25.763  18.321 -0.0213 -0.0099 -0.0983
94582W        W37520  22.603  26.808  17.235  0.1505 -0.2356  0.1217
94583W        W37521  20.984  27.632  18.889 -0.0217  0.0209 -0.2466
94584W        W37522  20.441  29.702  19.534  0.1681  0.0366  0.1202
94585W        W37523  21.843  26.353  18.994 -0.1920  0.2262  0.0123
94586W        W37524  21.180  26.534  18.200  0.0869  0.1202 -0.0208
94587W        W37525  18.803  26.781  19.435 -0.2999 -0.1434  0.2445
94588W        W37526  18.779  27.778  19.734  0.0319 -0.2469  0.2018
94589W        W37527  21.458  27.860  19.667 -0.1635 -0.3666 -0.3600
94590W        W37528  19.734  26.221  16.667  0.0189 -0.1334  0.2121
94591W        W37529  22.156  24.715  17.198 -0.1167 -0.2751 -0.0684
94592W        W37530  20.772  27.898  17.967  0.0953 -0.0741 -0.0545
94593W        W37531  19.479  27.444  19.380  0.3977 -0.1982  0.1250
94594W        W37532  20.040  27.839  16.518  0.3705  0.3994 -0.2012
94595W        W37533  21.400  26.432  19.242  0.2062 -0.0753 -0.2499
94596W        W37534  19.899  28.211  18.395 -0.1690  0.1566 -0.2688
94597W        W37535  21.791  27.123  20.192  0.1165  0.2704  0.1619
94598W        W37536  19.805  27.252  18.045 -0.0705 -0.2697 -0.2092
94599W        W37537  22.110  28.998  18.354 -0.0646  0.0276  0.0318
94600W        W37538  20.566  29.252  19.520 -0.3437 -0.1792 -0.0276
94601W        W37539  20.521  28.991  22.572 -0.1557  0.0244  0.0710
94602W        W37540  19.714  28.222  19.482 -0.1421 -0.0923 -0.1983
94603W        W37541  21.549  26.468  16.711  0.2708 -0.3419  0.3905
94604W        W37542  18.984  24.741  17.874  0.2415  0.0786 -0.1055
94605W        W37543  21.977  26.564  17.372  0.0229  0.0705  0.0820
94606W        W37544  20.605  26.379  18.001 -0.0668  0.1514 -0.0218
94607W        W37545  19.873  25.643  18.792 -0.2298 -0.2741 -0.0729
94608W        W37546  17.784  26.017  16.227  0.0359  0.2328 -0.1056
94609W        W37547  21.459  25.656  16.053 -0.0789 -0.5990 -0.3271
94610W        W37548  18.181  30.214  20.057 -0.1006  0.1716  0.0983
94611W        W37549  20.734  28.999  19.972  0.2453  0.1690 -0.3968
94612W        W37550  17.970  28.346  24.439 -0.1126  0.2030  0.0402
94613W        W37551  18.254  27.110  20.807 -0.1845 -0.1519  0.2458
94614W        W37552  21.681  26.124  20.130 -0.2415  0.2265 -0.2126
94615W        W37553  21.730  27.382  22.525 -0.1560  0.2461  0.2929
94616W        W37554  18.900  26.261  23.064  0.3414  0.0571 -0.2010
94617W        W37555  19.715  28.579  21.708  0.0746 -0.4970  0.1905
94618W        W37556  17.632  26.880  22.034 -0.0481 -0.0713 -0.1053
94619W        W37557  20.678  28.574  22.876 -0.0587 -0.3829  0.1605
94620W        W37558  20.853  28.052  23.829 -0.1414  0.0498  0.1956
94621W        W37559  20.775  28.421  21.917  0.0679 -0.0595 -0.1603
94622W        W37560  19.693  27.257  22.627 -0.0585 -0.3683  0.0428
94623W        W37561  17.963  29.082  23.793 -0.1724  0.1209  0.0509
94624W        W37562  21.088  25.356  21.416 -0.2376  0.3824 -0.1197
94625W        W37563  17.933  26.060  21.515 -0.1314  0.3213  0.0902
94626W        W37564  21.982  26.847  23.488 -0.2275 -0.1718 -0.0195
94627W        W37565  18.997  26.938  20.026 -0.1987 -0.2806  0.0115
94628W        W37566  18.624  27.366  21.707  0.1552  0.0504  0.0138
94629W        W37567  19.752  26.381  20.456  0.2600 -0.3998  0.0750
94630W        W37568  19.289  29.064  21.657  0.0451  0.3609  0.3786
94631W        W37569  18.704  25.755  23.167  0.3012  0.0140 -0.0788
94632W        W37570  19.683  27.105  23.632  0.0391 -0.1590  0.2516
94633W        W37571  20.572  29.343  22.182 -0.0920  0.0016  0.2214
94634W        W37572  18.335  27.537  19.910 -0.1339  0.2209  0.0330
94635W        W37573  17.389  26.421  21.836 -0.0347  0.0228  0.0081
94636W        W37574  17.414  29.647  24.034 -0.0183 -0.1511  0.1150
94637W        W37575  21.391  25.770  22.094 -0.2998 -0.2092  0.0522
94638W        W37576  20.659  27.311  22.787  0.0731 -0.1604 -0.0693
94639W        W37577  18.589  29.878  23.235 -0.2582 -0.1115  0.1652
94640W        W37578  20.180  27.971  22.247  0.2766 -0.0387 -0.0744
94641W        W37579  22.287  25.696  25.232 -0.0677  0.3275 -0.0886
94642W        W37580  18.949  29.194  23.515 -0.0284  0.0647 -0.2446
94643W        W37581  17.186  28.726  21.876  0.0215  0.1502  0.1797
94644W        W37582  20.070  29.672  21.581  0.1856  0.0948  0.0857
94645W        W37583  21.622  28.600  20.184  0.2154 -0.1001 -0.0185
94646W        W37584  20.807  28.852  23.317  0.2517 -0.1748 -0.2988
94647W        W37585  19.637  30.903  24.510 -0.2359 -0.0816 -0.0798
94648W        W37586  17.241  28.691  20.819  0.0307  0.0070 -0.2254
94649W        W37587  19.733  29.680  23.358  0.0915 -0.1362 -0.0872
94650W        W37588  18.828  30.279  23.066 -0.0535  0.0020  0.3120
94651W        W37589  18.646  28.377  23.518  0.2164 -0.0600 -0.3684
94652W        W37590  21.109  27.164  20.953 -0.1913 -0.1763  0.0025
94653W        W37591  19.397  28.512  19.728  0.1739 -0.3267 -0.1330
94654W        W37592  19.705  29.036  21.983  0.2279  0.2491 -0.0012
94655W        W37593  19.010  26.473  24.799  0.1383 -0.1725  0.2162
94656W        W37594  19.340  27.154  21.199  0.0099 -0.0653 -0.1216
94657W        W37595  22.053  26.439  24.064 -0.0742 -0.4718 -0.1964
94658W        W37596  18.554  30.284  20.872 -0.0656  0.1552  0.2085
94659W        W37597  21.340  26.029  20.549  0.0487 -0.0992  0.2313
94660W        W37598  21.223  25.701  18.881 -0.1606  0.0325  0.4206
94661W        W37599  19.676  26.396  19.456 -0.2522  0.0418 -0.2572
94662W        W37600  19.829  26.243  22.550  0.2655  0.1578 -0.2519
94663W        W37601  19.244  29.455  21.344  0.0705 -0.0111 -0.2209
94664W        W37602  19.560  26.227  23.030  0.0839  0.0154  0.1376
94665W        W37603  20.943  27.676  22.973  0.0887  0.2954  0.0849
94666W        W37604  19.719  27.364  20.350  0.1268  0.0667  0.2933
94667W        W37605  21.901  26.547  23.098 -0.0009  0.2890 -0.1963
94668W        W37606  18.490  29.383  21.116  0.3209 -0.3502 -0.1848
94669W        W37607  18.236  25.531  22.152  0.3499  0.2629 -0.2971
94670W        W37608  22.567  28.465  19.282 -0.0581 -0.1411 -0.1631
94671W        W37609  20.178  27.955  21.653 -0.1398  0.0005 -0.0601
94672W        W37610  21.145  28.862  20.382 -0.1437 -0.0200  0.0915
94673W        W37611  19.102  26.586  20.422  0.2976 -0.0862 -0.0003
94674W        W37612  18.570  27.989  25.018  0.0883  0.0705  0.3477
94675W        W37613  19.140  26.697  23.634  0.3835 -0.0205 -0.0619
94676W        W37614  19.525  26.065  18.534 -0.3810 -0.1087 -0.2973
94677W        W37615  20.314  28.374  23.329  0.3076  0.0815 -0.2282
94678W        W37616  18.480  30.044  23.741 -0.1231  0.1276 -0.0604
94679W        W37617  22.396  25.934  21.196 -0.2684  0.0335 -0.0073
94680W        W37618  20.209  26.432  21.638 -0.0603 -0.1945  0.0426
94681W        W37619  20.505  27.579  22.480  0.0419  0.2240  0.1867
94682W        W37620  22.380  27.332  21.430  0.0481  0.0164 -0.2515
94683W        W37621  21.191  26.168  21.851 -0.1946  0.1370  0.0210
94684W        W37622  20.679  24.649  23.339  0.1771 -0.3418 -0.0877
94685W        W37623  18.752  28.157  20.146  0.0095  0.1378 -0.2929
94686W        W37624  20.060  28.886  21.227  0.3485 -0.0109  0.1123
94687W        W37625  22.454  29.761  23.389 -0.0003  0.0959  0.1938
94688W        W37626  22.863  25.271  18.878 -0.2852 -0.0030  0.1934
94689W        W37627  19.034  28.416  22.201 -0.3164  0.0205 -0.0599
94690W        W37628  20.220  27.099  22.649 -0.3094  0.4279 -0.1075
94691W        W37629  19.044  28.652  23.639  0.0224  0.2841  0.2091
94692W        W37630  19.318  28.290  21.805  0.2293 -0.0663  0.1316
94693W        W37631  18.702  28.895  22.998  0.0903 -0.3040  0.1558
94694W        W37632  20.188  27.088  20.837  0.0070 -0.1330 -0.0603
94695W        W37633  18.473  24.725  21.838  0.0093 -0.1815  0.0466
94696W        W37634  19.293  28.660  22.658 -0.0578  0.0292 -0.1625
94697W        W37635  22.075  25.599  19.504 -0.1003  0.2125  0.2239
94698W        W37636  18.172  26.710  22.166  0.1050 -0.1949  0.0219
94699W        W37637  21.956  25.797  22.192  0.1509  0.0266  0.1201
94700W        W37638  19.167  26.112  20.413 -0.1617 -0.3020  0.1405
94701W        W37639  20.551  27.562  21.587 -0.0646  0.3287  0.0381
94702W        W37640  21.554  25.554  22.979 -0.2507  0.2147  0.1694
94703W        W37641  21.656  29.100  20.321 -0.0426 -0.0770 -0.0360
94704W        W37642  17.682  27.761  21.765 -0.2029  0.1503 -0.1540
94705W        W37643  18.766  27.928  20.980  0.0660  0.1078  0.2224
94706W        W37644  18.162  27.754  23.009  0.0849  0.2907  0.1276
94707W        W37645  19.643  26.038  22.133  0.1479  0.0713  0.1643
94708W        W37646  21.654  27.798  24.371 -0.0340 -0.2371  0.1125
94709W        W37647  17.794  25.642  21.363  0.0288  0.0584 -0.3171
94710W        W37648  21.191  26.721  21.126  0.1414 -0.3175  0.1148
94711W        W37649  20.520  26.366  21.189  0.1017 -0.1146  0.2421
94712W        W37650  18.988  28.519  21.024  0.0095 -0.0003 -0.3027
94713W        W37651  22.158  26.516  24.743 -0.0914 -0.0192 -0.2048
94714W        W37652  20.748  28.827  21.678 -0.1777  0.2412  0.0248
94715W        W37653  22.634  29.285  22.667  0.2633  0.2301  0.1753
94716W        W37654  21.026  28.446  21.403  0.2750 -0.2101 -0.1301
94717W        W37655  17.955  25.887  22.022  0.0726  0.1051  0.0410
94718W        W37656  18.900  27.035  20.997 -0.1230 -0.1074  0.0985
94719W        W37657  17.670  29.713  20.340 -0.1319  0.3145  0.2129
94720W        W37658  18.987  28.313  23.134 -0.0352  0.0312  0.0316
94721W        W37659  20.051  27.582  20.798  0.0940  0.1209  0.2501
94722W        W37660  19.643  28.607  23.023 -0.2872  0.1459  0.0665
94723W        W37661  19.702  29.560  21.965 -0.1559  0.1117 -0.2454
94724W        W37662  17.407  28.259  23.676 -0.2303 -0.4053  0.0669
94725W        W37663  22.175  25.888  23.100  0.2857 -0.0361  0.1094
94726W        W37664  21.381  27.965  23.086  0.0351 -0.0722 -0.0998
94727W        W37665  20.346  27.136  21.442 -0.4036  0.1522  0.3673
94728W        W37666  18.682  26.140  19.145  0.3119 -0.0420  0.1378
94729W        W37667  20.096  27.927  23.193 -0.1228  0.1286  0.0287
94730W        W37668  17.307  28.868  22.444  0.1689  0.0941  0.4385
94731W        W37669  18.056  28.984  21.213  0.0476 -0.1489 -0.2113
94732W        W37670  19.194  29.540  21.898  0.1063  0.2727  0.2319
94733W        W37671  21.413  27.788  22.547  0.0869  0.1923 -0.1948
94734W        W37672  19.349  27.608  25.284 -0.1041  0.0178 -0.2226
94735W        W37673  19.476  28.893  23.653  0.1385  0.0530 -0.0456
94736W        W37674  17.957  28.866  19.861 -0.0327  0.0684 -0.1760
94737W        W37675  18.140  28.446  23.588  0.1086  0.1668 -0.2911
94738W        W37676  20.182  24.861  19.744 -0.3428 -0.1597  0.3760
94739W        W37677  21.668  27.464  21.997 -0.1474 -0.0812  0.0039
94740W        W37678  19.526  28.048  25.070  0.0996  0.1680 -0.4153
94741W        W37679  21.138  26.743  20.609 -0.1580 -0.0019  0.0700
94742W        W37680  20.927  27.361  19.951 -0.2024 -0.0340 -0.1295
94743W        W37681  19.579  26.647  19.987 -0.0875 -0.0129  0.2703
94744W        W37682  18.646  27.462  24.561  0.4378  0.4540  0.2134
94745W        W37683  19.808  28.108  21.931 -0.1094  0.2579  0.1169
94746W        W37684  19.538  27.484  22.191 -0.2471 -0.1502 -0.0140
94747W        W37685  20.862  27.831  19.351  0.2801 -0.0849  0.0732
94748W        W37686  20.395  28.875  20.864 -0.0726 -0.1049  0.0607
94749W        W37687  18.420  28.335  23.086 -0.1126  0.1158 -0.1422
94750W        W37688  20.663  28.970  25.101 -0.0385  0.0069  0.1964
94751W        W37689  19.331  28.572  21.396 -0.2088  0.0543  0.1693
94752W        W37690  19.162  26.162  23.546 -0.0514 -0.0421 -0.0761
94753W        W37691  20.339  26.733  18.665  0.3478  0.0881 -0.0608
94754W        W37692  21.673  26.987  22.083  0.0437 -0.0891  0.2006
94755W        W37693  17.627  29.763  20.842  0.0685 -0.2268 -0.2862
94756W        W37694  20.929  27.813  22.489 -0.3765  0.0650 -0.1068
94757W        W37695  19.657  25.940  23.550  0.0621  0.0599  0.2059
94758W        W37696  19.664  27.703  22.900  0.3452 -0.1539  0.1692
94759W        W37697  21.526  28.261  22.642  0.1839 -0.0044  0.1114
94760W        W37698  20.840  27.094  21.572  0.1232  0.2289  0.1757
94761W        W37699  21.194  27.796  21.973 -0.0624 -0.2372 -0.4100
94762W        W37700  19.211  27.647  20.851  0.1530 -0.2496 -0.1616
94763W        W37701  19.000  26.340  21.795 -0.1157 -0.0738  0.1379
94764W        W37702  18.483  27.091  22.136 -0.2608 -0.0997  0.3338
94765W        W37703  19.007  30.148  21.199 -0.3913  0.3056  0.2046
94766W        W37704  19.000  29.196  24.564 -0.0643  0.0212  0.0686
94767W        W37705  20.326  27.365  20.429  0.2123 -0.0358 -0.0055
94768W        W37706  20.688  26.800  22.782  0.0037 -0.1601 -0.1683
94769W        W37707  19.351  25.961  19.653  0.1314  0.0790  0.4025
94770W        W37708  18.922  28.140  22.679  0.1018  0.1847 -0.1554
94771W        W37709  18.636  30.092  20.314  0.2291 -0.1162 -0.2562
94772W        W37710  18.416  26.261  21.002 -0.4692 -0.0707 -0.0806
94773W        W37711  18.549  28.652  22.553  0.1099  0.0073 -0.0697
94774W        W37712  18.003  28.761  20.368 -0.0600 -0.1820  0.0129
94775W        W37713  19.106  27.206  22.989  0.1616 -0.1284  0.1172
94776W        W37714  19.670  28.169  21.434  0.6404  0.0233 -0.1338
94777W        W37715  20.456  26.337  23.376 -0.1820  0.0149  0.3497
94778W        W37716  18.572  28.863  21.466  0.1427 -0.1974 -0.1986
94779W        W37717  18.377  25.516  20.607 -0.1967  0.1459 -0.2223
94780W        W37718  17.625  28.279  20.796 -0.2128 -0.0637 -0.1682
94781W        W37719  21.773  26.690  22.579 -0.0365 -0.1947  0.0739
94782W        W37720  21.948  28.290  19.373 -0.0888  0.2881 -0.0305
94783W        W37721  19.773  26.505  21.974  0.1452 -0.1535 -0.0147
94784W        W37722  18.940  26.861  22.076 -0.3441  0.3963  0.1122
94785W        W37723  18.690  30.163  22.594 -0.1939  0.2619 -0.0313
94786W        W37724  20.726  26.194  22.088  0.1850  0.2313  0.2439
94787W        W37725  21.129  25.735  20.882  0.1019  0.0257 -0.2301
94788W        W37726  20.133  29.375  22.557  0.0404  0.2129  0.1802
94789W        W37727  19.009  28.217  24.046 -0.3219  0.2869  0.0422
94790W        W37728  19.271  25.347  20.155  0.2253  0.1989  0.0385
94791W        W37729  20.654  26.896  23.514 -0.3053  0.0682  0.2888
94792W        W37730  19.960  26.926  21.750  0.0988 -0.0928  0.1773
94793W        W37731  16.652  30.443  22.049 -0.0474  0.0427 -0.1403
94794W        W37732  19.286  29.879  23.222  0.0131 -0.2209 -0.0661
94795W        W37733  19.784  28.557  20.860  0.3932  0.0607  0.1476
94796W        W37734  17.894  27.873  19.471 -0.0172 -0.0718 -0.0262
94797W        W37735  19.272  27.022  22.492 -0.0651  0.0509 -0.0783
94798W        W37736  21.397  29.248  22.889  0.1090  0.0235  0.0256
94799W        W37737  19.492  26.804  21.635 -0.2338 -0.0862  0.1290
94800W        W37738  21.227  27.358  22.272 -0.2029 -0.1801 -0.2937
94801W        W37739  20.606  25.603  22.148  0.3714  0.0871 -0.0546
94802W        W37740  19.935  28.160  22.781 -0.0659  0.0202 -0.1014
94803W        W37741  19.957  28.116  23.669  0.0762  0.0783  0.3130
94804W        W37742  18.573  28.971  24.449  0.0267  0.1649 -0.1929
94805W        W37743  20.568  25.888  22.520  0.2442 -0.2207 -0.1722
94806W        W37744  21.685  29.642  21.106 -0.1446  0.2689  0.0260
94807W        W37745  21.662  27.102  23.872 -0.1283 -0.3558  0.0457
94808W        W37746  18.482  29.380  23.193  0.1509 -0.0173  0.0776
94809W        W37747  17.908  26.276  22.313 -0.1532 -0.2916  0.1191
94810W        W37748  21.566  27.709  21.433  0.0082 -0.0232 -0.2216
94811W        W37749  20.633  25.958  22.989  0.1593  0.2007  0.3180
94812W        W37750  18.652  28.818  22.075 -0.0294 -0.5580  0.2210
94813W        W37751  18.749  29.107  22.530 -0.0220  0.0719  0.0528
94814W        W37752  17.679  27.798  23.494  0.1260  0.0951  0.0253
94815W        W37753  22.159  26.255  19.973 -0.0941 -0.1797  0.3434
94816W        W37754  21.583  28.412  19.702  0.4863  0.0573  0.1146
94817W        W37755  21.358  27.406  23.265  0.1944 -0.4296  0.1575
94818W        W37756  20.804  26.864  25.177  0.2090  0.0600  0.1614
94819W        W37757  21.727  26.855  18.919 -0.1061  0.0325 -0.0055
94820W        W37758  21.054  25.299  24.227  0.0577 -0.3185  0.0268
94821W        W37759  19.483  26.328  20.941  0.1507 -0.2843  0.1382
94822W        W37760  20.985  28.711  20.996 -0.0258 -0.2030  0.0448
94823W        W37761  18.771  26.311  22.235 -0.1007 -0.0057  0.1157
94824W        W37762  21.765  28.552  24.791 -0.1477 -0.0363  0.0717
94825W        W37763  17.833  28.096  22.640  0.0645 -0.1844  0.0621
94826W        W37764  21.366  26.766  21.726 -0.2760  0.2632 -0.0115
94827W        W37765  18.563  27.262  19.442 -0.1236  0.0547 -0.1240
94828W        W37766  18.983  27.565  21.266 -0.0726  0.1177 -0.1791
94829W        W37767  19.940  27.196  22.210  0.2861 -0.2570  0.1258
94830W        W37768  20.554  27.765  20.169  0.1396  0.2965  0.1834
94831W        W37769  22.152  26.892  22.284  0.4042  0.1222 -0.1578
94832W        W37770  18.552  28.432  21.276  0.0515  0.2046 -0.2239
94833W        W37771  21.714  26.736  21.220 -0.3298  0.1907  0.0645
94834W        W37772  18.472  27.056  20.028  0.2557  0.0209 -0.0138
94835W        W37773  18.897  28.512  21.655  0.0599  0.1134  0.2226
94836W        W37774  18.003  25.745  22.536  0.0630 -0.0871  0.1596
94837W        W37775  20.837  27.452  21.998 -0.0102 -0.1893  0.0490
94838W        W37776  22.150  26.928  21.158  0.0682  0.0132  0.1238
94839W        W37777  21.245  26.939  24.121 -0.1378  0.5358  0.1309
94840W        W37778  20.466  27.601  23.170  0.0574  0.1339  0.1206
94841W        W37779  19.417  29.762  24.265 -0.0636  0.0269  0.0807
94842W        W37780  19.212  25.858  23.108 -0.0830 -0.0746  0.0608
94843W        W37781  20.820  30.043  21.207 -0.2987 -0.0508  0.1575
94844W        W37782  23.389  26.272  21.106 -0.0184  0.3546 -0.0483
94845W        W37783  19.521  26.626  22.634 -0.1857 -0.2070 -0.3198
94846W        W37784  22.194  27.206  23.955  0.2469  0.1638 -0.0653
94847W        W37785  19.663  26.910  19.279  0.0763  0.2363 -0.1929
94848W        W37786  19.564  27.703  21.245 -0.0386 -0.1305 -0.0489
94849W        W37787  21.430  26.606  23.321 -0.1891 -0.1612 -0.0802
94850W        W37788  19.908  27.717  19.385  0.0569 -0.1288 -0.1846
94851W        W37789  21.596  27.003  23.075 -0.0658  0.3011  0.2104
94852W        W37790  19.704  28.962  19.954  0.3976 -0.0079  0.0550
94853W        W37791  22.279  26.881  20.091  0.2941  0.0327  0.1816
94854W        W37792  21.440  27.125  21.358  0.0323 -0.0330 -0.0612
94855W        W37793  18.381  25.987  21.878 -0.2107  0.1450  0.0353
94856W        W37794  18.145  29.355  22.862  0.0860 -0.0427 -0.2223
94857W        W37795  18.643  26.293  18.641 -0.1173  0.2847 -0.0661
94858W        W37796  19.645  27.347  20.865 -0.1556 -0.1631 -0.2281
94859W        W37797  19.938  29.139  23.881 -0.0017  0.2243  0.3747
94860W        W37798  20.832  27.366  23.412  0.0238 -0.0067  0.0504
94861W        W37799  19.269  28.107  20.109 -0.0916  0.3195 -0.0234
94862W        W37800  21.110  27.784  23.519  0.0398 -0.2044 -0.0923
94863W        W37801  19.399  27.773  21.804 -0.1091 -0.4313 -0.0311
94864W        W37802  19.971  26.680  22.396 -0.1665  0.3338  0.0424
94865W        W37803  18.234  30.608  21.251  0.2200  0.1198 -0.0984
94866W        W37804  18.372  28.062  22.645 -0.0190  0.1269  0.2175
94867W        W37805  19.900  29.003  20.660  0.1777 -0.0313  0.1901
94868W        W37806  19.429  25.263  23.127  0.2517  0.1055  0.1142
94869W        W37807  22.060  25.229  21.317 -0.2010 -0.3993 -0.0846
94870W        W37808  20.480  27.018  21.875  0.1458  0.1055  0.0940
94871W        W37809  20.460  28.127  22.822  0.1811 -0.2857  0.3326
94872W        W37810  21.806  28.084  23.880 -0.1508 -0.1870 -0.4572
94873W        W37811  18.174  28.690  21.679  0.0789  0.3397 -0.0097
94874W        W37812  17.950  28.777  23.305 -0.3724  0.3339  0.2784
94875W        W37813  23.152  28.740  22.690  0.0137  0.3930  0.0337
94876W        W37814  18.955  27.000  21.469 -0.2074 -0.1967 -0.0899
94877W        W37815  17.064  25.874  24.105  0.0098 -0.1251  0.2728
94878W        W37816  19.570  27.057  23.106 -0.2514  0.1142  0.2859
94879W        W37817  21.262  27.362  21.756 -0.3862 -0.1260  0.0682
94880W        W37818  19.527  26.877  20.512  0.3298  0.2278 -0.0660
94881W        W37819  21.361  27.914  20.636  0.1190  0.0789 -0.0807
94882W        W37820  18.572  29.393  24.683  0.2378  0.0816 -0.2028
94883W        W37821  17.448  29.894  22.965  0.1946 -0.1108 -0.0846
94884W        W37822  17.896  30.300  19.650  0.0622  0.0860  0.2425
94885W        W37823  20.461  27.164  20.016  0.2125 -0.0371  0.2541
94886W        W37824  19.732  29.204  21.476 -0.1661  0.1137  0.1064
94887W        W37825  19.559  29.354  22.386 -0.1143  0.0084 -0.1150
94888W        W37826  17.084  26.313  19.576  0.1145  0.1058  0.3062
94889W        W37827  18.876  29.793  21.502 -0.0042  0.1342  0.0480
94890W        W37828  16.950  29.930  21.451  0.1034 -0.1537 -0.0401
94891W        W37829  20.942  27.976  21.620 -0.1202  0.0762  0.1011
94892W        W37830  19.167  29.154  20.066 -0.1281 -0.2349  0.1979
94893W        W37831  20.017  28.551  23.901  0.3002 -0.1155  0.0826
94894W        W37832  22.525  26.168  20.429  0.0355  0.0751 -0.0247
94895W        W37833  21.699  27.563  22.966  0.0565 -0.1250 -0.0743
94896W        W37834  22.276  28.067  21.079  0.2069  0.0171 -0.2546
94897W        W37835  20.552  29.053  25.629  0.1257  0.3877  0.0004
94898W        W37836  19.229  26.655  21.200 -0.1113  0.0465 -0.0721
94899W        W37837  18.727  27.064  20.455  0.0484 -0.0706  0.0312
94900W        W37838  18.782  27.185  22.574  0.3072 -0.1514  0.3541
94901W        W37839  21.939  25.014  23.745  0.1804 -0.0065  0.2244
94902W        W37840  17.466  31.181  22.184  0.0404 -0.4977  0.0441
94903W        W37841  22.351  27.875  21.997  0.1826  0.0401 -0.0771
94904W        W37842  17.862  27.292  21.070  0.0349  0.0150 -0.0997
94905W        W37843  18.934  27.865  21.818 -0.0747 -0.2990 -0.2706
94906W        W37844  22.425  25.968  22.156  0.2142 -0.0627  0.2455
94907W        W37845  21.344  27.169  20.370 -0.1500 -0.0274 -0.3331
94908W        W37846  20.802  27.108  22.340 -0.3742  0.3496  0.0536
94909W        W37847  19.121  30.143  20.152 -0.2608 -0.1386 -0.0090
94910W        W37848  20.671  29.787  21.590  0.0524 -0.0759  0.2223
94911W        W37849  19.215  30.616  21.701 -0.0781  0.1262  0.0092
94912W        W37850  19.496  27.777  20.495 -0.1499 -0.1388 -0.1010
94913W        W37851  24.273  26.344  21.572  0.0912  0.3906 -0.1990
94914W        W37852  19.039  26.095  21.377 -0.2785 -0.3715  0.2267
94915W        W37853  20.968  26.485  23.533 -0.1046 -0.1793 -0.1848
94916W        W37854  19.833  27.589  21.681  0.0218  0.0612  0.2169
94917W        W37855  20.355  26.370  22.850 -0.4941  0.4672  0.0827
94918W        W37856  18.908  27.435  22.183 -0.2810 -0.2482  0.0879
94919W        W37857  18.674  25.170  21.566  0.2529  0.2646  0.1543
94920W        W37858  19.244  28.041  19.560  0.1103  0.1208 -0.0362
94921W        W37859  21.648  28.398  24.233  0.1145 -0.1328 -0.1051
94922W        W37860  21.209  27.977  21.122 -0.2757  0.2693 -0.0745
94923W        W37861  21.078  28.476  24.048  0.2572 -0.2469 -0.2133
94924W        W37862  17.272  25.500  20.156 -0.0676  0.2567  0.1135
94925W        W37863  22.202  27.378  20.051  0.0470  0.1898  0.1501
94926W        W37864  18.636  28.229  20.637  0.2395  0.2641 -0.0614
94927W        W37865  19.535  26.948  22.105 -0.3874 -0.0276 -0.0616
94928W        W37866  21.335  27.513  23.884 -0.0626 -0.3204  0.2453
94929W        W37867  17.331  27.026  21.376  0.2584 -0.1449  0.0867
94930W        W37868  22.479  26.455  21.185  0.3455  0.1144 -0.1146
94931W        W37869  21.513  26.503  22.101 -0.1331  0.4719  0.5547
94932W        W37870  18.758  30.494  20.007  0.1263  0.2392 -0.0765
94933W        W37871  20.030  26.926  20.332  0.0063 -0.1307  0.3014
94934W        W37872  19.225  28.852  23.196  0.1595  0.0244 -0.1291
94935W        W37873  18.555  26.733  21.733  0.0334 -0.2293  0.1295
94936W        W37874  21.120  29.667  22.814 -0.0393 -0.1090 -0.0205
94937W        W37875  22.874  28.006  21.814  0.2934 -0.1883 -0.4119
94938W        W37876  20.458  26.688  19.953  0.0245  0.2660 -0.1232
94939W        W37877  19.067  28.114  23.550 -0.3047  0.0425 -0.1153
94940W        W37878  19.251  28.954  22.213 -0.1564  0.3056  0.2254
94941W        W37879  23.962  27.018  23.348  0.2932  0.0147  0.3345
94942W        W37880  20.852  26.416  23.055 -0.1707  0.0201  0.1076
94943W        W37881  19.452  29.402  19.727  0.0605  0.1216  0.0256
94944W        W37882  21.334  26.115  23.473  0.0502 -0.0880  0.0808
94945W        W37883  18.661  29.158  23.939  0.0192  0.0971 -0.2719
94946W        W37884  18.138  29.843  23.457  0.1380 -0.3886  0.1019
94947W        W37885  18.450  28.638  19.911  0.0671  0.0418 -0.2407
94948W        W37886  19.045  28.894  24.034 -0.0705 -0.3939 -0.2352
94949W        W37887  19.848  27.169  21.298 -0.1353  0.1559 -0.1194
94950W        W37888  20.445  27.877  20.708 -0.0695  0.1405 -0.5338
94951W        W37889  19.521  28.411  22.258  0.0533  0.0067 -0.0438
94952W        W37890  19.973  26.322  19.883 -0.0676 -0.0980  0.1180
94953W        W37891  21.454  28.187  21.734  0.2441  0.1266 -0.0729
94954W        W37892  20.066  27.447  19.956  0.1271 -0.4230  0.2555
94955W        W37893  21.891  26.100  20.647 -0.0243 -0.0442  0.1363
94956W        W37894  21.911  25.794  21.311 -0.0533 -0.1677  0.0692
94957W        W37895  19.339  29.354  23.234 -0.1137 -0.4098  0.4776
94958W        W37896  17.585  27.699  20.883  0.0960 -0.1067 -0.4967
94959W        W37897  17.667  28.746  22.072  0.2739  0.2740 -0.2787
94960W        W37898  18.544  26.672  20.730  0.0107  0.0008 -0.1085
94961W        W37899  20.650  25.902  24.260 -0.0034 -0.1609 -0.0140
94962W        W37900  18.804  27.698  22.622 -0.0272  0.2266  0.1789
94963W        W37901  18.089  27.550  21.476  0.6385  0.1019  0.0104
94964W        W37902  17.479  25.925  20.413 -0.2389 -0.1675  0.0035
94965W        W37903  20.097  28.909  21.707 -0.2149  0.3267 -0.3050
94966W        W37904  18.996  26.507  22.657 -0.0427  0.2950  0.0853
94967W        W37905  18.773  26.531  21.296  0.2314 -0.0801  0.1200
94968W        W37906  21.478  27.549  21.005  0.2886 -0.0301  0.1400
94969W        W37907  20.121  28.294  21.224 -0.0516 -0.0195  0.1209
94970W        W37908  19.431  28.196  21.009  0.0485  0.1039 -0.2967
94971W        W37909  22.216  28.971  22.830  0.0458  0.0901 -0.0565
94972W        W37910  17.030  28.350  21.505 -0.1671  0.2791  0.0984
94973W        W37911  20.161  26.722  23.663 -0.3340  0.0020  0.1471
94974W        W37912  20.194  25.768  23.380  0.0345 -0.1700  0.2462
94975W        W37913  17.645  26.238  19.354 -0.3120 -0.2932  0.2184
94976W        W37914  21.432  26.339  21.478  0.0526 -0.1955  0.0778
94977W        W37915  19.398  28.173  22.750  0.0703 -0.2399  0.0690
94978W        W37916  20.567  28.522  21.133 -0.0227  0.0501 -0.2044
94979W        W37917  19.891  28.628  23.442  0.0850  0.0532 -0.3070
94980W        W37918  19.435  29.206  24.217 -0.2384 -0.1246 -0.0211
94981W        W37919  18.410  26.052  22.408  0.1916 -0.2979 -0.0675
94982W        W37920  20.161  27.585  21.303  0.0416 -0.0071  0.0429
94983W        W37921  19.484  28.376  24.357  0.1964  0.2894 -0.1164
94984W        W37922  21.739  28.025  21.036  0.0605  0.1363 -0.1279
94985W        W37923  21.027  26.945  23.119  0.4795  0.1563  0.4939
94986W        W37924  20.959  26.646  22.050 -0.1159  0.3202  0.4910
94987W        W37925  18.287  27.007  22.596 -0.3270  0.2306 -0.0729
94988W        W37926  18.116  28.474  22.294  0.0358 -0.4804 -0.2156
94989W        W37927  20.109  27.593  22.781 -0.0088  0.1889 -0.0781
94990W        W37928  18.614  25.853  19.872  0.0182 -0.2512  0.2700
94991W        W37929  20.684  26.762  20.930  0.0303 -0.1250 -0.1150
94992W        W37930  20.667  29.076  21.230  0.0734  0.4388  0.0059
94993W        W37931  19.394  27.277  21.752  0.1345 -0.0508  0.1054
94994W        W37932  18.669  26.470  20.228 -0.0442  0.0397  0.0101
94995W        W37933  18.720  27.926  23.803 -0.1258  0.0416  0.2764
94996W        W37934  19.106  27.782  23.071  0.1240 -0.0098  0.0185
94997W        W37935  20.372  27.839  23.588 -0.0441  0.0572 -0.0169
94998W        W37936  19.546  27.143  19.785  0.2283  0.0442  0.0236
94999W        W37937  21.975  26.313  21.377 -0.0840  0.1573 -0.0773
95000W        W37938  20.874  29.182  22.984 -0.1638  0.1583 -0.0357
95001W        W37939  20.547  28.925  24.648 -0.1382 -0.3462 -0.2507
95002W        W37940  18.324  29.456  23.719  0.1676  0.0731 -0.0510
95003W        W37941  20.955  28.655  22.346  0.0156  0.0904 -0.3640
95004W        W37942  20.558  26.836  20.477  0.0267 -0.0050  0.1568
95005W        W37943  17.451  28.394  21.238 -0.1252  0.1292  0.1338
95006W        W37944  20.595  27.968  21.240  0.0015 -0.0076  0.0194
95007W        W37945  19.652  27.916  22.374  0.1029  0.0057 -0.2529
95008W        W37946  20.128  25.985  22.927  0.2843 -0.3598 -0.0121
95009W        W37947  20.231  26.414  20.292  0.1299  0.0070  0.2040
95010W        W37948  19.886  29.780  22.382  0.1757 -0.1450 -0.1208
95011W        W37949  19.109  27.895  22.269 -0.2511 -0.3494 -0.1764
95012W        W37950  20.479  27.852  25.849 -0.0103  0.0487 -0.1742
95013W        W37951  18.826  27.027  23.340  0.1716 -0.0790 -0.2251
95014W        W37952  21.015  26.157  23.938 -0.2452  0.0534 -0.2474
95015W        W37953  21.579  28.122  25.049 -0.0481  0.0035  0.2726
95016W        W37954  17.529  27.399  23.134  0.1103  0.4343 -0.0209
95017W        W37955  20.985  28.490  24.940  0.3089 -0.3051  0.0019
95018W        W37956  19.404  24.815  25.321 -0.1284 -0.1449  0.0044
95019W        W37957  21.636  27.862  26.449 -0.0149  0.1140  0.0580
95020W        W37958  21.315  29.601  27.490 -0.0635  0.1049 -0.2475
95021W        W37959  19.836  28.096  24.126 -0.0587 -0.1076 -0.0076
95022W        W37960  19.711  26.140  25.577  0.0148  0.0899  0.1934
95023W        W37961  20.182  28.029  26.408 -0.3034  0.3001 -0.0519
95024W        W37962  18.177  26.526  23.019 -0.1295  0.2613 -0.0750
95025W        W37963  20.617  24.330  25.265 -0.0415  0.2128 -0.0692
95026W        W37964  22.078  26.828  27.390 -0.2348  0.1496 -0.1743
95027W        W37965  19.887  25.950  25.016 -0.0367 -0.4369 -0.0091
95028W        W37966  21.067  25.845  26.139 -0.0737 -0.1762 -0.0441
95029W        W37967  20.124  26.922  24.577  0.0373 -0.0235 -0.2872
95030W        W37968  20.265  30.507  25.505  0.0200  0.2223  0.0918
95031W        W37969  20.593  24.926  26.088  0.1471  0.2703 -0.0285
95032W        W37970  21.358  25.863  26.890  0.3043 -0.1495  0.2130
95033W        W37971  19.246  28.781  25.761 -0.0429 -0.1268 -0.1717
95034W        W37972  19.466  26.272  24.712 -0.0135  0.1773  0.0659
95035W        W37973  19.283  26.016  25.129 -0.1500 -0.0832  0.0764
95036W        W37974  20.190  25.953  25.397  0.1272  0.2992  0.1488
95037W        W37975  22.371  26.059  26.506 -0.3115 -0.0711  0.1307
95038W        W37976  22.793  27.160  23.871  0.0980  0.0670 -0.1363
95039W        W37977  20.168  29.358  25.793  0.0679  0.0173  0.1916
95040W        W37978  20.740  26.949  26.293  0.1005 -0.5789 -0.3753
95041W        W37979  20.999  26.209  27.034  0.2436  0.3293 -0.0331
95042W        W37980  19.638  26.408  25.196  0.2523  0.2075  0.3189
95043W        W37981  19.531  30.110  26.110 -0.0650  0.0200  0.1038
95044W        W37982  19.475  28.883  24.604  0.0498 -0.1798 -0.1222
95045W        W37983  22.928  28.593  23.854 -0.1258  0.0891 -0.1676
95046W        W37984  20.817  27.630  25.553  0.0811 -0.1755 -0.0330
95047W        W37985  19.935  29.840  25.956  0.2232 -0.2197  0.2487
95048W        W37986  18.855  29.018  25.357  0.1931  0.0294 -0.0314
95049W        W37987  20.493  27.744  26.661 -0.1123  0.0861 -0.0210
95050W        W37988  19.455  27.600  26.655 -0.0273 -0.2069 -0.0129
95051W        W37989  22.059  26.106  25.452  0.0500 -0.1231  0.0076
95052W        W37990  19.707  26.029  24.083 -0.0759  0.0009  0.2296
95053W        W37991  19.179  28.924  24.987  0.3168 -0.1867 -0.0632
95054W        W37992  20.554  26.286  23.851 -0.1329 -0.1790  0.3277
95055W        W37993  20.214  27.253  26.974 -0.2050  0.1900  0.0858
95056W        W37994  18.016  25.053  25.700  0.0554  0.0278  0.2463
95057W        W37995  22.429  26.462  27.392  0.0199 -0.1972  0.1006
95058W        W37996  20.122  29.155  24.406  0.1480 -0.2363  0.1795
95059W        W37997  21.802  26.303  23.552  0.1340 -0.2588 -0.5290
95060W        W37998  20.032  27.073  24.089  0.2058 -0.0128 -0.0468
95061W        W37999  20.801  26.645  24.028  0.2048 -0.0399 -0.0329
95062W        W38000  18.041  25.552  24.107  0.2379 -0.0825  0.1740
95063W        W38001  18.658  31.280  26.284 -0.0825  0.0159  0.1775
95064W        W38002  20.899  25.385  26.147 -0.0206 -0.1945 -0.0523
95065W        W38003  21.471  27.988  25.707 -0.1353 -0.1447 -0.1933
95066W        W38004  19.538  26.869  24.172 -0.4057 -0.1073  0.1995
95067W        W38005  19.901  25.458  25.173 -0.0282 -0.1031  0.0523
95068W        W38006  21.968  28.061  26.020 -0.2721 -0.2883  0.0025
95069W        W38007  18.705  24.961  24.982  0.1096  0.1005  0.2987
95070W        W38008  21.078  29.209  25.816 -0.1124 -0.1559  0.1679
95071W        W38009  20.775  28.980  23.907 -0.2426  0.1680  0.0932
95072W        W38010  19.681  27.583  24.753  0.0082 -0.1548 -0.0682
95073W        W38011  17.863  26.555  25.959 -0.2583  0.2389 -0.0719
95074W        W38012  17.003  28.524  28.883  0.3027 -0.2180 -0.0434
95075W        W38013  18.360  26.284  26.695 -0.0408  0.2707  0.3041
95076W        W38014  19.914  25.270  23.317  0.2471  0.0213 -0.1698
95077W        W38015  21.195  27.682  28.711 -0.0169  0.0923  0.2843
95078W        W38016  17.720  27.481  27.523 -0.1644  0.0344 -0.0778
95079W        W38017  21.911  25.494  24.683  0.0216 -0.3614 -0.0325
95080W        W38018  21.195  25.964  25.242 -0.0352 -0.1569 -0.1618
95081W        W38019  22.449  28.355  26.256  0.1529 -0.2983 -0.2828
95082W        W38020  20.279  28.577  25.775  0.0073  0.1839 -0.2297
95083W        W38021  20.858  26.157  25.676  0.2701 -0.0440  0.2952
95084W        W38022  20.985  24.968  24.573 -0.0149 -0.0960 -0.3562
95085W        W38023  18.928  28.678  24.522 -0.5559  0.0966  0.1085
95086W        W38024  19.089  27.697  24.018 -0.0542  0.0228  0.0819
95087W        W38025  21.824  28.496  26.301  0.1283  0.1788  0.1074
95088W        W38026  20.952  27.658  24.332 -0.1014 -0.0101  0.3300
95089W        W38027  18.597  29.397  25.823  0.1789 -0.1550 -0.3540
95090W        W38028  20.986  26.749  26.763  0.1842  0.1344  0.0760
95091W        W38029  20.006  30.252  26.328  0.1276 -0.2188 -0.0030
95092W        W38030  18.561  29.629  24.169  0.1566  0.2441  0.2904
95093W        W38031  18.522  28.004  25.720  0.0199 -0.2295 -0.1446
95094W        W38032  19.791  28.108  24.676 -0.2076  0.0144  0.0282
95095W        W38033  20.204  23.961  25.252  0.1574 -0.1607 -0.4416
95096W        W38034  20.488  28.453  24.978  0.0977  0.1099  0.2480
95097W        W38035  21.500  26.534  23.823 -0.0391  0.1127  0.2933
95098W        W38036  18.881  24.068  26.547 -0.0372 -0.1654  0.0219
95099W        W38037  22.647  25.202  25.417 -0.1935  0.0114  0.1533
95100W        W38038  18.965  28.042  25.334  0.0159 -0.1521 -0.0058
95101W        W38039  22.329  29.070  24.607  0.0350 -0.0876  0.1950
95102W        W38040  21.699  26.057  25.775  0.1518 -0.1659 -0.1592
95103W        W38041  22.068  28.133  24.920 -0.2263  0.0799  0.0573
95104W        W38042  20.153  26.351  25.114  0.2583 -0.2925  0.2523
95105W        W38043  18.806  25.443  25.084 -0.0877  0.1060  0.2506
95106W        W38044  19.935  25.570  25.658  0.0842  0.0406 -0.1168
95107W        W38045  20.148  24.319  24.861 -0.3187 -0.4208 -0.2572
95108W        W38046  21.114  27.221  26.867  0.1866 -0.0145 -0.2139
95109W        W38047  19.366  26.065  22.582  0.0109 -0.1185  0.1009
95110W        W38048  21.147  26.258  26.500  0.1411 -0.0700 -0.4010
95111W        W38049  20.085  27.654  25.606  0.4460 -0.0292  0.0105
95112W        W38050  19.750  28.509  26.178  0.0812  0.1660  0.2292
95113W        W38051  21.394  26.555  28.215  0.3056  0.2918 -0.0795
95114W        W38052  20.240  29.294  25.258 -0.1928 -0.1137 -0.0271
95115W        W38053  20.947  29.342  25.334 -0.0758 -0.3926 -0.0997
95116W        W38054  19.322  29.651  24.787  0.0227  0.1629  0.0861
95117W        W38055  19.425  25.718  25.950 -0.0723  0.1746  0.3142
95118W        W38056  17.395  25.931  24.566  0.1117 -0.2087  0.3832
95119W        W38057  17.184  30.576  26.423  0.1242  0.0837 -0.0206
95120W        W38058  20.915  26.952  25.750  0.1220 -0.4201  0.5528
95121W        W38059  19.298  26.416  22.210 -0.0354 -0.2273 -0.1810
95122W        W38060  21.891  29.926  27.280 -0.3301  0.2360  0.1534
95123W        W38061  19.494  28.846  25.383  0.2153  0.0863 -0.0845
95124W        W38062  19.459  27.077  25.475 -0.0109 -0.0563  0.1719
95125W        W38063  20.411  26.060  27.959  0.1327  0.1324  0.0315
95126W        W38064  21.554  27.324  26.589 -0.2729 -0.0761 -0.2094
95127W        W38065  21.411  27.013  24.847 -0.0228 -0.1849 -0.0058
95128W        W38066  19.557  26.387  23.796  0.2366 -0.1077 -0.0668
95129W        W38067  21.379  29.801  25.066  0.3543  0.2383 -0.0787
95130W        W38068  18.787  30.347  24.719 -0.1871  0.1990 -0.0024
95131W        W38069  19.407  26.583  25.581  0.2377  0.0130  0.2652
95132W        W38070  21.343  27.205  25.355  0.1421 -0.1703 -0.0607
95133W        W38071  21.195  25.249  25.400 -0.0216 -0.0390  0.2067
95134W        W38072  19.484  28.457  26.737 -0.3044 -0.1936  0.0471
95135W        W38073  20.873  27.070  28.202  0.0207  0.1397  0.1023
95136W        W38074  18.514  25.865  24.296 -0.1552 -0.1251 -0.1128
95137W        W38075  19.407  26.306  26.665  0.0492  0.0632  0.0293
95138W        W38076  20.617  25.449  24.480  0.2105  0.1414  0.0103
95139W        W38077  21.813  24.553  23.515  0.0582  0.1290  0.1937
95140W        W38078  22.069  26.323  27.062  0.0866 -0.3029  0.1631
95141W        W38079  20.422  28.160  25.459 -0.0394  0.0512 -0.1324
95142W        W38080  21.207  26.972  23.597 -0.1986  0.0931 -0.0124
95143W        W38081  19.176  26.699  23.075  0.0158 -0.0337  0.0140
95144W        W38082  18.824  27.839  26.479  0.3165 -0.0384  0.0310
95145W        W38083  21.622  26.771  25.161  0.2140  0.0344 -0.2121
95146W        W38084  21.159  27.760  26.804  0.3433 -0.3281 -0.1436
95147W        W38085  19.745  26.453  24.267  0.2816  0.1422 -0.1004
95148W        W38086  20.919  28.131  25.729 -0.0389 -0.1320 -0.2713
95149W        W38087  18.951  28.116  26.075  0.0400  0.2208 -0.2111
95150W        W38088  20.575  27.293  26.639 -0.3118  0.2854 -0.1389
95151W        W38089  20.830  28.199  26.596 -0.1094  0.1974  0.1438
95152W        W38090  20.335  25.358  26.007 -0.3364  0.0459  0.1037
95153W        W38091  19.996  27.655  23.837  0.2808  0.1301  0.0767
95154W        W38092  21.016  27.167  24.491 -0.2035 -0.0047 -0.0902
95155W        W38093  17.865  30.701  24.112  0.1082  0.0189 -0.1574
95156W        W38094  21.258  26.451  24.262 -0.1578  0.1513 -0.2248
95157W        W38095  21.488  25.585  24.358  0.1617 -0.3588  0.1770
95158W        W38096  19.618  24.768  27.519 -0.1207  0.1933 -0.1601
95159W        W38097  20.460  27.433  25.263 -0.1246  0.2078 -0.0872
95160W        W38098  22.559  28.215  23.813  0.1419 -0.0071 -0.0284
95161W        W38099  21.569  25.921  26.300 -0.1520 -0.2406  0.1880
95162W        W38100  18.671  28.595  24.022  0.3526  0.1393  0.2368
95163W        W38101  20.377  25.687  27.667 -0.0528  0.2238 -0.0242
95164W        W38102  19.957  26.746  25.541 -0.0788 -0.0402 -0.0127
95165W        W38103  19.052  28.709  26.788 -0.2347 -0.1240  0.2858
95166W        W38104  20.525  28.393  27.271  0.2397  0.0189 -0.2785
95167W        W38105  21.135  28.198  25.280 -0.3155  0.3938  0.0166
95168W        W38106  20.551  26.042  27.264 -0.0578 -0.1569  0.1627
95169W        W38107  20.261  26.588  24.163  0.0768  0.0398 -0.0795
95170W        W38108  19.349  28.363  25.416 -0.6403 -0.1877 -0.3809
95171W        W38109  19.679  27.142  24.547  0.1941 -0.3963 -0.0368
95172W        W38110  20.636  25.830  24.805  0.1272 -0.0263 -0.1831
95173W        W38111  20.534  28.294  26.140  0.1936  0.2467  0.1955
95174W        W38112  17.490  29.072  23.991 -0.3056 -0.0232 -0.2850
95175W        W38113  21.082  26.479  25.269  0.1726 -0.1589 -0.2855
95176W        W38114  18.866  28.520  25.544  0.1522 -0.2930 -0.0263
95177W        W38115  21.087  25.574  24.774  0.0666  0.1326  0.0400
95178W        W38116  18.446  28.854  25.585  0.1461 -0.0442  0.0083
95179W        W38117  19.268  27.514  22.588  0.0911  0.1046  0.0121
95180W        W38118  17.442  26.004  25.060  0.0960  0.0211  0.0852
95181W        W38119  21.214  24.638  24.152 -0.2480 -0.0059  0.0315
95182W        W38120  20.991  27.358  25.023 -0.0224  0.0756  0.2913
95183W        W38121  20.412  25.280  24.977 -0.1533 -0.1914 -0.2713
95184W        W38122  19.705  25.175  24.805  0.0317 -0.2336 -0.3715
95185W        W38123  16.695  29.236  26.990  0.1032  0.1268 -0.0691
95186W        W38124  21.886  27.516  26.208  0.3508  0.1460  0.2265
95187W        W38125  20.370  27.031  23.135  0.0039 -0.0273 -0.0360
95188W        W38126  19.675  27.940  25.520 -0.2941 -0.0372 -0.1203
95189W        W38127  20.735  27.648  28.156  0.3236 -0.0463 -0.0728
95190W        W38128  18.398  26.483  22.568  0.0640 -0.1235  0.0086
95191W        W38129  22.607  26.880  26.178  0.0841 -0.0577 -0.1265
95192W        W38130  19.863  26.563  24.753 -0.2829  0.2153  0.0688
95193W        W38131  19.643  29.463  26.014 -0.0696 -0.1444  0.0536
95194W        W38132  20.059  31.000  25.785 -0.1020 -0.0343 -0.1142
95195W        W38133  20.261  26.973  25.065  0.0513 -0.3679  0.0233
95196W        W38134  20.014  29.258  26.289 -0.1564  0.2126 -0.1192
95197W        W38135  19.904  25.867  26.084 -0.1261  0.0476  0.2355
95198W        W38136  21.177  28.929  26.721 -0.0602  0.0998  0.0246
95199W        W38137  20.205  25.145  24.495 -0.1664  0.0145 -0.2949
95200W        W38138  18.789  25.735  23.837 -0.1852  0.0996 -0.2258
95201W        W38139  20.775  26.361  24.437  0.0159  0.1731 -0.1201
95202W        W38140  19.755  29.326  25.518 -0.2632  0.0719  0.2872
95203W        W38141  20.519  25.359  26.513 -0.1262  0.0113 -0.1246
95204W        W38142  19.932  26.981  26.699 -0.0391 -0.2592 -0.2932
95205W        W38143  20.855  25.598  25.221  0.1218 -0.1037 -0.1306
95206W        W38144  21.642  29.831  24.135 -0.1252 -0.0444  0.0661
95207W        W38145  20.803  25.890  26.609  0.2362 -0.1350  0.1416
95208W        W38146  20.027  27.671  24.369 -0.1024  0.2575  0.2015
95209W        W38147  18.304  27.896  26.205  0.1932  0.0404  0.3485
95210W        W38148  20.042  28.104  25.859 -0.0199 -0.1432  0.0012
95211W        W38149  20.382  25.505  25.423  0.2683  0.2286  0.0233
95212W        W38150  19.141  27.790  25.709  0.0325  0.1466  0.1184
95213W        W38151  20.536  27.599  24.592  0.2351 -0.1017  0.1985
95214W        W38152  19.159  29.371  25.664  0.0048  0.1225  0.5427
95215W        W38153  20.629  24.958  24.221  0.3120  0.3141 -0.0841
95216W        W38154  21.862  27.558  23.913  0.0889  0.2253 -0.0960
95217W        W38155  20.790  25.020  25.675 -0.3656  0.0987 -0.1004
95218W        W38156  22.577  25.752  26.910  0.1293  0.0293 -0.0980
95219W        W38157  20.781  28.185  24.324  0.0751  0.0502 -0.0868
95220W        W38158  20.340  25.135  28.609  0.3438 -0.0219 -0.0972
95221W        W38159  20.083  23.869  26.014  0.1674 -0.1856 -0.1131
95222W        W38160  22.321  26.569  26.568  0.1277 -0.3767 -0.1859
95223W        W38161  17.634  27.083  24.535 -0.3012  0.1105  0.0972
95224W        W38162  20.313  27.436  27.920 -0.0358  0.0725 -0.2062
95225W        W38163  19.217  26.101  25.659 -0.1302 -0.0391  0.0120
95226W        W38164  20.188  26.238  25.800  0.1043  0.2391 -0.1608
95227W        W38165  18.972  25.466  22.781 -0.3020 -0.2682  0.1192
95228W        W38166  19.756  27.319  26.311  0.0743 -0.1077 -0.2437
95229W        W38167  20.824  28.670  25.908 -0.1378 -0.0949 -0.0162
95230W        W38168  18.345  28.175  24.080  0.1542  0.2129 -0.1208
95231W        W38169  23.044  26.129  25.190 -0.0719  0.2681 -0.0469
95232W        W38170  19.111  27.262  26.434  0.1088  0.4113 -0.1731
95233W        W38171  20.454  27.496  24.104  0.1174  0.0746 -0.1119
95234W        W38172  21.547  26.052  23.922 -0.4055  0.1106 -0.1834
95235W        W38173  18.521  25.416  24.564  0.2928 -0.5972 -0.1645
95236W        W38174  18.823  26.478  26.280 -0.2158  0.0700  0.1247
95237W        W38175  20.308  27.285  23.600 -0.2018  0.0273 -0.1156
95238W        W38176  20.486  26.564  24.767 -0.2032  0.0392 -0.1553
95239W        W38177  21.205  25.026  26.351  0.3155 -0.1914  0.0377
95240W        W38178  21.702  26.505  25.994  0.0569  0.0596 -0.0017
95241W        W38179  20.280  26.493  26.219 -0.1613 -0.1416  0.2371
95242W        W38180  17.906  25.468  26.890 -0.1381  0.1439  0.1163
95243W        W38181  21.670  29.111  25.926 -0.0164 -0.2222  0.3115
95244W        W38182  22.141  28.005  24.290  0.1985  0.0498 -0.0757
95245W        W38183  22.131  25.044  26.502  0.2797 -0.4170  0.3376
95246W        W38184  21.757  27.558  25.680 -0.0254 -0.2570 -0.1936
95247W        W38185  19.622  25.529  23.792  0.1970  0.0382  0.2133
95248W        W38186  18.298  26.409  26.185 -0.0907 -0.2133 -0.4741
95249W        W38187  20.953  27.218  28.698 -0.0421 -0.0826 -0.1772
95250W        W38188  19.937  27.410  23.218 -0.1588 -0.1941 -0.1531
95251W        W38189  20.796  25.315  27.445 -0.1244  0.0937 -0.0692
95252W        W38190  18.560  30.134  24.319 -0.1502  0.1292  0.2950
95253W        W38191  20.838  28.581  26.954  0.0591 -0.0205  0.2020
95254W        W38192  19.727  25.928  24.518  0.1182 -0.1155  0.0880
95255W        W38193  18.944  25.511  24.250  0.1937 -0.0351 -0.3175
95256W        W38194  19.733  28.046  26.642  0.0845  0.3966  0.4158
95257W        W38195  19.172  27.223  23.812 -0.2109 -0.1998  0.1531
95258W        W38196  17.714  28.562  24.918 -0.2099  0.0020 -0.2078
95259W        W38197  20.152  27.365  24.814  0.1141 -0.0742  0.0769
95260W        W38198  21.243  27.090  27.396 -0.3897 -0.0390 -0.0314
95261W        W38199  20.289  25.468  23.017 -0.1497 -0.3849  0.2538
95262W        W38200  20.204  26.566  27.699  0.0800 -0.5242  0.0208
95263W        W38201  18.964  28.175  24.603  0.0484 -0.2102  0.2318
95264W        W38202  20.423  24.830  25.314 -0.3386 -0.1927 -0.2297
95265W        W38203  20.674  30.094  26.242  0.0831 -0.0231 -0.0286
95266W        W38204  18.874  29.241  26.198 -0.0384 -0.2110  0.0262
95267W        W38205  21.210  26.779  26.076 -0.0808 -0.0062 -0.1047
95268W        W38206  19.321  24.086  27.020  0.0742  0.1472  0.2465
95269W        W38207  21.823  25.789  26.708  0.0356 -0.3169 -0.1170
95270W        W38208  20.626  26.155  25.252 -0.1499  0.0143  0.3752
95271W        W38209  21.586  26.956  27.088  0.0046 -0.2192  0.0732
95272W        W38210  20.509  29.287  26.459 -0.0750 -0.0567  0.0882
95273W        W38211  20.163  25.670  24.721  0.0186 -0.6021 -0.2732
95274W        W38212  20.106  27.548  27.445  0.1282  0.3307  0.3956
95275W        W38213  22.657  27.353  25.813  0.0512 -0.2676 -0.1538
95276W        W38214  19.732  26.920  25.084 -0.1610 -0.3395 -0.0847
95277W        W38215  19.800  24.490  25.225  0.1605 -0.0053 -0.0686
95278W        W38216  20.143  26.292  26.960  0.0356  0.1637 -0.1772
95279W        W38217  21.464  25.948  24.774  0.0586 -0.0175 -0.1399
95280W        W38218  19.110  25.293  24.755 -0.1556 -0.0542 -0.0099
95281W        W38219  20.029  28.880  25.477 -0.3537  0.1651 -0.3620
95282W        W38220  18.196  29.045  27.773  0.3387  0.1626  0.1813
95283W        W38221  19.655  26.133  27.043 -0.2904  0.2540 -0.0456
95284W        W38222  20.430  28.122  24.646 -0.3276 -0.0010 -0.2790
95285W        W38223  19.486  28.423  23.800  0.2260  0.0924  0.0453
95286W        W38224  19.628  27.470  24.108 -0.2423 -0.0637  0.1680
95287W        W38225  21.712  27.511  25.183 -0.2084  0.1905  0.1217
95288W        W38226  18.692  27.883  24.286  0.1298  0.1723 -0.1367
95289W        W38227  19.722  28.998  25.891 -0.4721  0.1894 -0.0078
95290W        W38228  16.600  29.495  23.839 -0.0862  0.3368 -0.1584
95291W        W38229  21.306  28.029  24.106  0.5831 -0.1229  0.0451
95292W        W38230  19.255  28.440  24.915  0.1235  0.1422 -0.1442
95293W        W38231  20.799  27.621  26.238  0.0487 -0.1064  0.0830
95294W        W38232  23.017  25.861  24.565 -0.0480 -0.2895 -0.0559
95295W        W38233  21.841  26.970  25.609 -0.0475 -0.0466 -0.0234
95296W        W38234  21.732  27.341  24.507 -0.0848  0.2700  0.0942
95297W        W38235  21.148  27.252  26.363 -0.0188  0.0728 -0.1553
95298W        W38236  19.839  27.387  25.223  0.1378  0.3005 -0.2203
95299W        W38237  19.982  26.220  23.293  0.0781 -0.1570 -0.0643
95300W        W38238  19.430  27.137  26.820 -0.0453 -0.4202  0.0281
95301W        W38239  21.641  25.004  27.458 -0.0367 -0.0294  0.1160
95302W        W38240  17.616  29.565  27.285  0.2834  0.1857  0.1308
95303W        W38241  21.918  27.172  24.880 -0.2168  0.2136 -0.3008
95304W        W38242  17.787  25.544  24.570  0.1543  0.4914  0.1016
95305W        W38243  21.014  26.171  24.833  0.0913  0.4561  0.1713
95306W        W38244  21.792  24.593  27.070  0.1169  0.1202  0.2321
95307W        W38245  20.889  27.906  24.726 -0.3521  0.1352 -0.0374
95308W        W38246  20.588  27.131  24.777 -0.1123  0.0759  0.0224
95309W        W38247  19.241  29.621  26.291  0.0280 -0.0397 -0.0101
95310W        W38248  18.557  30.255  25.266 -0.0235  0.0502  0.1115
95311W        W38249  19.789  28.850  26.512  0.1691  0.2556  0.0346
95312W        W38250  18.442  26.048  22.890  0.2704  0.0729  0.0816
95313W        W38251  22.417  25.093  22.904 -0.2954 -0.1929  0.0301
95314W        W38252  21.086  25.499  26.633 -0.0915  0.0979  0.1025
95315W        W38253  22.071  25.542  27.132 -0.0244  0.2357 -0.2505
95316W        W38254  17.851  25.742  25.045  0.0609 -0.0830  0.2275
95317W        W38255  22.222  27.484  24.362  0.1994  0.2742 -0.0725
95318W        W38256  20.637  26.350  26.691 -0.0717 -0.2504  0.0507
95319W        W38257  18.956  26.367  25.322  0.1616  0.1614 -0.0632
95320W        W38258  19.403  27.888  24.364  0.1661  0.2687 -0.0363
95321W        W38259  21.592  27.779  27.796  0.0846 -0.2505  0.1807
95322W        W38260  19.520  27.883  23.823 -0.2047 -0.0692  0.2621
95323W        W38261  21.174  28.845  26.227  0.1101  0.1430  0.0931
95324W        W38262  18.500  24.670  24.559 -0.1693 -0.3130  0.1554
95325W        W38263  19.254  25.114  24.105 -0.0702  0.0586  0.1697
95326W        W38264  19.138  27.246  25.784  0.2835 -0.3996  0.1511
95327W        W38265  20.801  26.394  26.150 -0.2309  0.2503  0.0271
95328W        W38266  22.010  28.027  28.347  0.0469  0.0705 -0.1748
95329W        W38267  17.595  25.295  23.744 -0.2476 -0.1653  0.0819
95330W        W38268  20.409  28.188  23.967  0.0549 -0.4305 -0.3598
95331W        W38269  22.391  28.275  25.754 -0.0157  0.0485  0.0431
95332W        W38270  19.674  28.802  24.128  0.1630  0.1959 -0.1163
95333W        W38271  22.008  25.647  26.278  0.1744 -0.2185  0.2306
95334W        W38272  20.925  29.605  26.066  0.2185 -0.0479  0.2472
95335W        W38273  19.262  25.252  26.225 -0.0497  0.2201 -0.4244
95336W        W38274  21.297  28.408  26.099  0.1802  0.0562 -0.1919
95337W        W38275  22.023  28.705  25.671 -0.1484  0.4606 -0.3823
95338W        W38276  18.488  25.263  24.085  0.3040  0.0096  0.0349
95339W        W38277  19.509  25.675  25.449 -0.2320 -0.1649  0.2246
95340W        W38278  18.070  29.353  24.742 -0.1240 -0.2042 -0.4960
95341W        W38279  22.460  26.928  26.870 -0.0341  0.1586  0.0986
95342W        W38280  22.394  25.958  27.375 -0.1847  0.0326 -0.2505
95343W        W38281  18.023  29.752  24.076  0.2870 -0.1976 -0.0582
95344W        W38282  21.346  25.055  26.887 -0.2080  0.0198  0.1356
95345W        W38283  19.749  27.708  27.058  0.0511  0.3263  0.1774
95346W        W38284  19.999  28.721  27.042  0.0707 -0.5073 -0.1028
95347W        W38285  19.246  26.421  24.179  0.0978 -0.1917  0.1004
95348W        W38286  22.117  26.077  26.039  0.1375  0.3157 -0.2707
95349W        W38287  21.355  26.708  25.610 -0.2438 -0.3721 -0.0499
95350W        W38288  19.666  29.127  24.973 -0.0805 -0.0734 -0.1412
95351W        W38289  21.873  27.991  25.390 -0.0578 -0.1168 -0.0167
95352W        W38290  19.545  25.608  24.860  0.3176 -0.0702 -0.0285
95353W        W38291  22.462  27.735  25.209 -0.0359  0.2113 -0.0459
95354W        W38292  18.902  25.271  23.744 -0.1584  0.0201 -0.0950
95355W        W38293  20.998  26.704  24.695  0.1700 -0.0363  0.0082
95356W        W38294  21.148  25.638  23.840 -0.0563 -0.2291 -0.0458
95357W        W38295  20.113  27.147  25.717 -0.1342 -0.1380 -0.0143
95358W        W38296  18.342  26.588  23.979  0.0356 -0.0080 -0.3492
95359W        W38297  20.651  27.884  25.120  0.2449 -0.3308  0.3256
95360W        W38298  19.100  26.747  26.612  0.3931 -0.2954 -0.3272
95361W        W38299  19.433  23.754  26.620  0.0705  0.1109 -0.2160
95362W        W38300  17.945  26.050  26.449 -0.2898  0.4492 -0.3906
95363W        W38301  18.917  27.146  25.199  0.0949  0.5226  0.1474
95364W        W38302  18.484  25.592  22.618 -0.1809  0.2211  0.0829
95365W        W38303  20.114  28.904  24.906 -0.0857  0.0991  0.1298
95366W        W38304  20.412  23.946  26.369 -0.2741 -0.1612 -0.0105
95367W        W38305  17.634  24.423  24.576 -0.1815  0.1682 -0.0384
95368W        W38306  21.352  28.302  24.614  0.2439  0.2300 -0.0782
95369W        W38307  19.831  28.469  25.615  0.4904  0.4741  0.0199
95370W        W38308  18.352  25.645  25.072  0.0137  0.1194  0.3110
95371W        W38309  20.841  28.007  27.152  0.4322  0.1076  0.3602
95372W        W38310  17.173  28.699  24.244  0.2236  0.0129 -0.2162
95373W        W38311  20.588  27.514  27.152  0.2803  0.1617  0.0831
95374W        W38312  21.239  24.350  25.035 -0.0121  0.1724 -0.2906
95375W        W38313  18.734  25.663  21.391  0.1254  0.2524 -0.1100
95376W        W38314  20.666  25.707  25.746 -0.0537  0.0109  0.3909
95377W        W38315  19.726  28.586  24.863  0.0041  0.2314 -0.2191
95378W        W38316  21.784  29.935  24.704  0.0945  0.0936 -0.1059
95379W        W38317  19.696  26.415  27.421  0.3957  0.3971 -0.2966
95380W        W38318  19.721  27.767  26.181  0.5432  0.1360 -0.1720
95381W        W38319  17.600  24.699  25.547  0.0042  0.0916  0.0906
95382W        W38320  20.012  28.346  25.135  0.1094  0.1258 -0.1436
95383W        W38321  20.335  27.093  27.542  0.2887  0.2308 -0.1733
95384W        W38322  20.320  29.039  23.163 -0.2188 -0.0863  0.1377
95385W        W38323  21.713  26.208  24.419 -0.1414 -0.2918 -0.2265
95386W        W38324  21.494  26.498  24.792 -0.0624  0.1124  0.2800
95387W        W38325  18.754  25.543  26.054  0.2725  0.0530  0.2197
95388W        W38326  20.354  26.756  26.695 -0.0637 -0.3513  0.0543
95389W        W38327  19.988  27.570  26.677 -0.0516  0.1832 -0.0543
95390W        W38328  18.085  25.028  24.486  0.0475  0.0511  0.1788
95391W        W38329  21.492  25.104  23.958 -0.1263  0.1535  0.1437
95392W        W38330  20.069  27.861  25.043 -0.1771  0.1355  0.0490
95393W        W38331  20.091  26.159  23.780  0.1537  0.0157  0.0154
95394W        W38332  20.552  26.945  24.301 -0.0684  0.1927  0.3208
95395W        W38333  21.579  27.073  26.030 -0.2288 -0.1046 -0.3598
95396W        W38334  20.145  27.605  26.133  0.3770  0.0404 -0.4109
95397W        W38335  20.973  26.441  28.493  0.2741  0.0101  0.0069
95398W        W38336  20.423  26.677  25.422  0.0081 -0.1482  0.1401
95399W        W38337  22.136  27.300  25.331  0.0138  0.1446  0.1126
95400W        W38338  19.644  27.485  25.778  0.1543  0.3177 -0.2223
95401W        W38339  21.994  28.800  27.160  0.1574  0.0793  0.0881
95402W        W38340  20.733  28.684  26.413 -0.0671 -0.0005  0.1277
95403W        W38341  21.072  27.562  27.296 -0.0707 -0.1898  0.0091
95404W        W38342  18.462  24.739  25.696 -0.1803 -0.0795  0.2415
95405W        W38343  18.701  25.903  24.735 -0.1089 -0.0345 -0.0594
95406W        W38344  21.280  26.278  26.026 -0.0049  0.0382  0.0327
95407W        W38345  21.488  25.435  26.082 -0.3304 -0.1340  0.1543
95408W        W38346  20.157  24.382  25.524 -0.0676 -0.0778  0.0334
95409W        W38347  20.048  25.677  24.231  0.0606 -0.0014  0.0061
95410W        W38348  20.299  30.173  27.924 -0.0138  0.0304  0.2179
95411W        W38349  20.295  27.924  27.091  0.2058  0.2771  0.1551
95412W        W38350  18.822  28.237  30.943 -0.4698 -0.0002  0.1036
95413W        W38351  20.021  26.759  27.230  0.0979  0.0072  0.0341
95414W        W38352  21.570  26.430  26.980 -0.1353  0.2532  0.0596
95415W        W38353  22.951  27.425  29.316  0.3126  0.3462  0.2404
95416W        W38354  17.903  25.463  27.800 -0.1372 -0.2339  0.0045
95417W        W38355  19.245  28.070  27.611  0.0063 -0.3165 -0.0086
95418W        W38356  19.334  25.297  28.196  0.0163  0.1824  0.1685
95419W        W38357  21.168  26.678  30.125 -0.0101  0.0257 -0.1554
95420W        W38358  20.730  28.959  30.138  0.2610  0.1710 -0.1017
95421W        W38359  21.249  27.587  25.910  0.1039 -0.1700 -0.1160
95422W        W38360  19.647  25.196  30.920  0.1309  0.1453 -0.2003
95423W        W38361  20.302  28.399  30.771 -0.0637 -0.1164  0.0914
95424W        W38362  19.398  25.720  26.440  0.3352  0.1704  0.0273
95425W        W38363  18.996  24.997  28.547 -0.4212  0.1480  0.2599
95426W        W38364  21.452  26.053  30.624 -0.0747  0.2511 -0.1962
95427W        W38365  17.897  26.486  27.193  0.1359  0.0149 -0.0232
95428W        W38366  19.404  27.093  29.195  0.0570  0.2747 -0.0065
95429W        W38367  18.250  25.275  27.184  0.0713  0.2963  0.2548
95430W        W38368  20.113  28.561  27.783  0.2457  0.2200  0.1106
95431W        W38369  17.784  25.017  27.938  0.1209  0.0384 -0.3159
95432W        W38370  19.593  24.987  31.963 -0.0889  0.4991 -0.2694
95433W        W38371  20.573  28.093  28.258 -0.1581 -0.2201 -0.2944
95434W        W38372  18.019  24.402  25.337  0.2784 -0.1005 -0.0865
95435W        W38373  19.093  25.831  27.424 -0.2683 -0.1757  0.1244
95436W        W38374  18.409  27.829  30.104  0.0138 -0.3034  0.3355
95437W        W38375  21.700  26.034  29.974 -0.2006 -0.0977  0.2502
95438W        W38376  20.783  26.280  29.059 -0.3039 -0.0664 -0.0245
95439W        W38377  19.643  29.563  30.080 -0.0043  0.0122  0.1209
95440W        W38378  20.607  28.492  28.606  0.2510 -0.2074 -0.0438
95441W        W38379  21.243  26.182  31.114  0.0066  0.0122  0.0352
95442W        W38380  17.688  27.184  29.796  0.0166  0.2867 -0.0157
95443W        W38381  18.556  29.143  28.580  0.0046 -0.3916 -0.0737
95444W        W38382  19.643  27.648  29.043  0.2274  0.1426 -0.0872
95445W        W38383  19.883  28.212  29.454 -0.1195 -0.1948  0.2517
95446W        W38384  22.038  27.599  29.165  0.0355  0.0664 -0.0604
95447W        W38385  19.408  28.831  30.439 -0.0994  0.1640 -0.0498
95448W        W38386  20.583  26.541  27.146  0.0341  0.0488 -0.1630
95449W        W38387  20.062  26.812  30.650  0.0914 -0.1056  0.0165
95450W        W38388  19.513  28.319  30.747  0.2093  0.1544 -0.0049
95451W        W38389  18.590  24.734  29.217 -0.2276  0.0614  0.0117
95452W        W38390  19.077  25.171  29.550  0.0893 -0.0652  0.0395
95453W        W38391  19.413  28.598  27.287 -0.0039  0.1837  0.2018
95454W        W38392  19.773  28.172  30.328  0.0084  0.0350  0.0558
95455W        W38393  18.103  25.997  29.486  0.2397 -0.1329 -0.0488
95456W        W38394  18.846  27.768  27.321  0.2855  0.2377 -0.2208
95457W        W38395  21.545  25.566  31.575 -0.0618 -0.0869 -0.1271
95458W        W38396  19.342  28.029  27.076 -0.0947 -0.2343  0.0128
95459W        W38397  20.820  27.782  29.099  0.0076 -0.5517 -0.0573
95460W        W38398  19.234  26.263  27.583  0.1396 -0.0826 -0.1813
95461W        W38399  20.924  25.932  28.519 -0.1550 -0.0376 -0.2323
95462W        W38400  20.215  24.788  29.665  0.2344 -0.0497 -0.3795
95463W        W38401  20.111  26.181  27.429 -0.1195  0.1730  0.0342
95464W        W38402  18.926  26.246  27.958  0.1154 -0.0020  0.0022
95465W        W38403  21.846  28.237  31.530  0.1707  0.0524  0.0709
95466W        W38404  18.315  26.275  27.250 -0.0668  0.2147 -0.0553
95467W        W38405  20.892  26.866  31.211  0.1093 -0.0271  0.0571
95468W        W38406  19.215  28.311  29.653 -0.0486  0.2801  0.2130
95469W        W38407  19.420  26.719  29.894 -0.0423  0.2546  0.1932
95470W        W38408  21.499  26.752  26.553 -0.1624 -0.1546  0.1927
95471W        W38409  22.767  28.261  30.072 -0.0916 -0.4419  0.3422
95472W        W38410  20.264  28.451  26.731 -0.0201 -0.2171  0.1620
95473W        W38411  18.253  25.728  27.339  0.1817  0.0332  0.0387
95474W        W38412  18.648  26.477  29.919 -0.2682 -0.0051 -0.0166
95475W        W38413  18.731  25.522  29.682  0.2188  0.3788  0.2879
95476W        W38414  19.694  25.170  26.563 -0.2698  0.0853 -0.1597
95477W        W38415  22.115  26.228  31.384  0.1140 -0.0160  0.1385
95478W        W38416  19.519  28.005  29.938  0.1796  0.1129 -0.0052
95479W        W38417  21.210  26.960  29.359 -0.1634 -0.5636  0.2351
95480W        W38418  18.365  26.769  29.167  0.1082  0.3372 -0.1379
95481W        W38419  21.377  26.503  29.249  0.1395  0.1698  0.2319
95482W        W38420  20.663  27.758  28.643 -0.0245 -0.1129 -0.1268
95483W        W38421  20.434  25.242  29.617  0.2429  0.2246 -0.0273
95484W        W38422  19.576  25.429  30.413 -0.0769  0.0252 -0.2781
95485W        W38423  19.699  26.481  25.935 -0.2154 -0.1675  0.1308
95486W        W38424  19.672  25.933  27.476 -0.1783 -0.1091  0.1375
95487W        W38425  20.784  27.143  30.146  0.1362 -0.3964 -0.2812
95488W        W38426  20.772  26.844  27.522  0.0778  0.0801  0.0923
95489W        W38427  17.816  28.850  29.253 -0.0272 -0.1423 -0.0728
95490W        W38428  18.209  25.260  31.398 -0.0245 -0.1873 -0.0258
95491W        W38429  21.021  27.673  30.029 -0.0357  0.0235  0.1567
95492W        W38430  19.855  29.986  26.877  0.0127 -0.0130 -0.1851
95493W        W38431  18.578  28.938  28.115 -0.2448  0.1845 -0.0527
95494W        W38432  20.575  27.306  25.934  0.1383 -0.1005  0.0609
95495W        W38433  20.160  25.499  28.938  0.1479  0.0371 -0.0939
95496W        W38434  19.867  27.685  30.022  0.1274 -0.0393 -0.0617
95497W        W38435  20.933  26.096  28.051  0.2808 -0.2310 -0.4832
95498W        W38436  18.483  24.736  28.425  0.1264 -0.3148  0.1560
95499W        W38437  20.317  26.006  31.091  0.0178 -0.3754  0.1346
95500W        W38438  18.958  27.417  28.204 -0.3369  0.2977  0.2538
95501W        W38439  21.386  27.544  29.138  0.1870 -0.2431  0.0999
95502W        W38440  21.430  25.681  28.424  0.1458  0.0697 -0.0447
95503W        W38441  20.831  27.264  27.722 -0.0918  0.1091  0.0454
95504W        W38442  17.542  27.737  30.059  0.1037 -0.2049 -0.0547
95505W        W38443  19.011  25.912  26.168 -0.2730 -0.2155 -0.1611
95506W        W38444  19.389  25.318  28.716 -0.3185  0.1683  0.0306
95507W        W38445  17.907  26.529  27.760 -0.2637  0.0435  0.0604
95508W        W38446  19.856  26.314  31.088 -0.2270  0.0546  0.2821
95509W        W38447  19.443  25.507  27.271 -0.2187  0.0275  0.2822
95510W        W38448  21.745  26.087  28.075 -0.0417 -0.2398  0.1497
95511W        W38449  20.164  26.479  28.183  0.0371  0.0276 -0.0349
95512W        W38450  18.103  27.593  27.112 -0.0494  0.0561  0.1464
95513W        W38451  22.306  25.745  30.837 -0.0189 -0.3660  0.1554
95514W        W38452  18.735  29.606  28.444 -0.0755 -0.1131 -0.1144
95515W        W38453  21.557  29.149  30.374  0.0472  0.2650 -0.0758
95516W        W38454  21.017  26.337  30.581  0.0175 -0.1263 -0.0177
95517W        W38455  18.811  25.982  28.905  0.0505 -0.2700  0.0732
95518W        W38456  18.514  25.979  26.356  0.0416  0.0827 -0.1978
95519W        W38457  18.305  29.920  28.262 -0.1771 -0.1584  0.0733
95520W        W38458  19.667  28.807  27.787 -0.1079 -0.1551  0.0556
95521W        W38459  20.151  25.822  27.143  0.1865  0.0105  0.1218
95522W        W38460  21.608  26.438  30.265  0.5206 -0.0318  0.0546
95523W        W38461  20.346  27.362  28.403  0.2766  0.2555  0.1735
95524W        W38462  19.701  27.899  28.140  0.2500 -0.1239  0.2090
95525W        W38463  20.757  25.111  30.050 -0.2222 -0.0083 -0.2671
95526W        W38464  20.383  25.767  29.390 -0.0547 -0.0654  0.0444
95527W        W38465  19.870  28.433  28.299  0.2937  0.0439 -0.0864
95528W        W38466  19.387  22.863  25.880  0.0671 -0.2694  0.1048
95529W        W38467  20.472  28.509  29.767  0.2131  0.1521  0.1714
95530W        W38468  19.786  27.338  27.735 -0.0566 -0.1322  0.0888
95531W        W38469  18.931  27.320  27.688  0.1822 -0.0262  0.0406
95532W        W38470  20.385  28.151  29.309  0.0040  0.2760 -0.0218
95533W        W38471  21.841  25.482  30.705 -0.2747 -0.0799  0.2578
95534W        W38472  17.581  26.190  29.777  0.4189 -0.0428 -0.1707
95535W        W38473  20.547  26.658  30.486  0.1182 -0.1048  0.1441
95536W        W38474  20.033  24.789  24.787 -0.4755  0.0372  0.1180
95537W        W38475  18.488  28.750   0.905 -0.1322 -0.2818 -0.1460
95538W        W38476  20.476  24.779  28.222 -0.1665  0.2126 -0.1312
95539W        W38477  20.531  24.896  27.378  0.0049  0.2801 -0.0828
95540W        W38478  19.876  27.309   0.535  0.1148 -0.0468  0.3125
95541W        W38479  20.675  27.025  27.094  0.0713  0.0280 -0.3528
95542W        W38480  21.257  26.594  27.401  0.2236  0.1312  0.2147
95543W        W38481  20.664  26.611  28.113 -0.3294  0.0517 -0.0947
95544W        W38482  17.525  28.050  31.085 -0.0594 -0.2646  0.2181
95545W        W38483  21.632  27.646  28.325 -0.1749 -0.2962  0.2794
95546W        W38484  19.226  27.168  29.670 -0.0205 -0.0629  0.2257
95547W        W38485  20.599  25.640  26.963 -0.0611 -0.0008  0.1214
95548W        W38486  21.600  29.385  28.415  0.1859  0.3504 -0.0140
95549W        W38487  19.441  27.978  29.400  0.1646  0.0167 -0.3226
95550W        W38488  20.043  27.428  30.891  0.0902 -0.0795  0.1519
95551W        W38489  20.829  28.255  28.957  0.3953 -0.4190 -0.0793
95552W        W38490  20.408  24.538  29.242 -0.2886 -0.0566  0.0230
95553W        W38491  20.311  25.947  26.653  0.1249  0.0056  0.0434
95554W        W38492  19.261  26.061  28.835 -0.2999 -0.0301 -0.2240
95555W        W38493  17.521  28.493  28.977 -0.0142 -0.2458 -0.1753
95556W        W38494  20.733  25.041  28.900  0.3399 -0.2612 -0.0429
95557W        W38495  19.027  26.763  28.953 -0.2216 -0.1425 -0.2009
95558W        W38496  18.406  26.503  31.238  0.2122  0.1956  0.1188
95559W        W38497  22.597  26.119  31.660  0.0035 -0.0130 -0.0046
95560W        W38498  21.277  26.059  29.079  0.2807  0.1612 -0.1006
95561W        W38499  20.358  26.620  29.014  0.2913  0.0112 -0.2095
95562W        W38500  20.154  26.993  26.194 -0.0202 -0.0051  0.1759
95563W        W38501  19.668  26.292  29.783  0.1643 -0.1667 -0.0567
95564W        W38502  18.921  26.919  30.032 -0.0200  0.1165 -0.2370
95565W        W38503  19.301  27.923  30.512  0.0863  0.0690  0.1150
95566W        W38504  20.485  27.211  30.533  0.0173  0.0472  0.1099
95567W        W38505  21.515  27.761  30.023 -0.0095  0.3918 -0.0975
95568W        W38506  18.866  26.505  30.347  0.1422 -0.0329  0.3030
95569W        W38507  19.056  27.675  26.886  0.1022  0.2099 -0.1657
95570W        W38508  19.948  28.154  28.960 -0.1665 -0.4977 -0.1558
95571W        W38509  20.170  28.005  27.995 -0.1581 -0.0100  0.0961
95572W        W38510  20.964  25.988  29.475  0.0605  0.5590 -0.0432
95573W        W38511  20.362  27.229  29.703 -0.2205 -0.0605 -0.0648
95574W        W38512  20.236  28.765  26.285  0.0131  0.3364  0.0036
95575W        W38513  20.629  27.657  29.656 -0.0274 -0.0179 -0.1358
95576W        W38514  18.759  29.036  27.687  0.0549  0.3537 -0.7166
95577W        W38515  18.669  24.440  29.927 -0.3024 -0.0733  0.1272
95578W        W38516  18.382  29.442  28.059  0.2419  0.5316  0.1678
95579W        W38517  19.231  26.819  27.201 -0.2087 -0.1016  0.1986
95580W        W38518  18.494  27.397  26.316  0.1207  0.1243 -0.1344
95581W        W38519  21.761  25.075  30.241 -0.0435  0.0057 -0.1597
95582W        W38520  20.551  26.885  28.562 -0.1027 -0.1795  0.0330
95583W        W38521  18.314  25.211  29.415  0.2376  0.0343 -0.3304
95584W        W38522  19.023  25.358  27.636 -0.1244  0.3319  0.1107
95585W        W38523  18.527  28.521  30.691 -0.3080 -0.1160  0.1114
95586W        W38524  21.788  26.690  29.397 -0.2071  0.3283 -0.2171
95587W        W38525  19.117  24.589  28.878 -0.0725  0.1261 -0.1919
95588W        W38526  18.896  26.690  27.805 -0.0928 -0.4628  0.2009
95589W        W38527  19.066  27.792  30.894  0.2944  0.0541 -0.0173
95590W        W38528  18.059  27.320  26.708 -0.3025 -0.2684 -0.1706
95591W        W38529  20.259  24.986  30.107 -0.2117 -0.3609 -0.2200
95592W        W38530  19.789  27.069  29.454  0.1584  0.0539  0.1714
95593W        W38531  18.414  27.659  28.102 -0.0956  0.1833  0.1760
95594W        W38532  20.133  27.697  29.497 -0.1819  0.0984  0.4662
95595W        W38533  20.373  26.960  28.003  0.0258  0.0292 -0.1208
95596W        W38534  19.638  27.579  29.611  0.1405  0.2382  0.0824
95597W        W38535  19.148  26.326  29.682 -0.0633 -0.2410  0.1238
95598W        W38536  20.169  26.790  29.730 -0.0046  0.0033 -0.0171
95599W        W38537  19.873  25.255  28.203 -0.0049 -0.0160  0.0592
95600W        W38538  19.905  25.528  27.397  0.3878 -0.1542 -0.0330
95601W        W38539  21.379  26.723  28.746  0.0971  0.0089  0.1473
95602W        W38540  20.330  26.509  31.158 -0.1103 -0.2334 -0.2467
95603W        W38541  19.777  26.182  30.287  0.1599  0.2400  0.0156
95604W        W38542  19.971  28.139  31.826 -0.2777  0.0001 -0.3568
95605W        W38543  19.959  27.374  28.766 -0.1468 -0.2588 -0.0891
95606W        W38544  21.228  28.454  28.596 -0.3419  0.2068  0.3756
95607W        W38545  21.000  25.717  31.279  0.0758  0.1435  0.1579
95608W        W38546  18.507  27.602  29.226 -0.0255 -0.3104 -0.0516
95609W        W38547  18.896  27.453  30.073 -0.1174 -0.1020 -0.2198
95610W        W38548  17.547  28.022  29.070 -0.0023  0.0245  0.0755
95611W        W38549  20.047  26.994  28.407 -0.1325  0.1048 -0.1520
95612W        W38550  18.657  26.565  28.298  0.0617 -0.2364  0.0296
95613W        W38551  19.389  27.087  27.648 -0.1715  0.0590 -0.3387
95614W        W38552  18.345  27.736  28.653  0.0961 -0.0518 -0.0570
95615W        W38553  20.471  26.012  26.128 -0.2432 -0.2350 -0.0189
95616W        W38554  21.123  26.776  27.855  0.0474  0.4248 -0.1528
95617W        W38555  20.547  27.346  28.849 -0.0728 -0.0059 -0.0202
95618W        W38556  21.291  25.644  29.888  0.1735  0.1330 -0.1008
95619W        W38557  20.542  26.944  29.341  0.1367 -0.2543  0.2057
95620W        W38558  20.218  25.137  31.894  0.1414 -0.2474 -0.1889
95621W        W38559  19.126  24.875  27.638  0.0889 -0.0328 -0.1884
95622W        W38560  20.291  26.951  30.172  0.1592 -0.0173  0.0070
95623W        W38561  19.535  25.819  29.984 -0.0726 -0.1134 -0.4124
95624W        W38562  21.536  27.970  30.891  0.1839 -0.0006  0.3142
95625W        W38563  18.216  25.754  28.095  0.0616 -0.3155 -0.1541
95626W        W38564  20.054  26.023  28.373 -0.0738  0.1906  0.3321
95627W        W38565  19.643  25.696  28.993 -0.1078  0.1815 -0.0235
95628W        W38566  19.096  25.859  29.523  0.1914 -0.0643 -0.0376
95629W        W38567  20.950  27.336  29.181  0.1505  0.0795  0.1646
95630W        W38568  19.353  28.307  28.235  0.0177 -0.1664  0.1353
95631W        W38569  22.035  26.996  28.395  0.0788  0.0223 -0.1823
95632W        W38570  20.571  28.068  30.024  0.2630 -0.1472 -0.3658
95633W        W38571  22.273  27.379  29.568 -0.0843 -0.2579  0.1205
95634W        W38572  20.479  26.368  28.591  0.1477  0.0512  0.0119
95635W        W38573  20.090  27.816  28.499 -0.1355 -0.0956 -0.2044
95636W        W38574  19.491  25.227  29.181 -0.3170  0.1294 -0.1261
95637W        W38575  20.981  25.852  30.778 -0.0912 -0.0362 -0.1013
95638W        W38576  19.915  26.533  29.342  0.0066  0.3010 -0.2232
95639W        W38577  20.027  25.867  29.863 -0.1003 -0.1748  0.1512
95640W        W38578  20.497  26.089  30.417  0.2097  0.2219 -0.0086
95641W        W38579  19.365  27.011  30.326  0.1099  0.0253 -0.2233
95642W        W38580  17.908  24.778  29.830  0.2968 -0.0934  0.2962
95643W        W38581  21.359  28.691  31.483  0.1823 -0.0187  0.0430
95644W        W38582  22.325  26.881  27.847  0.1537 -0.0672  0.2367
95645W        W38583  20.217  26.359  30.024 -0.0617  0.0628 -0.1444
95646W        W38584  22.953  27.546  27.513 -0.0230 -0.0370 -0.0638
95647W        W38585  19.782  25.992  26.533 -0.0920 -0.2319  0.1085
95648W        W38586  17.441  28.626  29.616 -0.0054  0.1893  0.0458
95649W        W38587  21.622  26.963   0.499  0.1055 -0.0436 -0.2361
95650W        W38588  19.691  25.196  27.733  0.1586 -0.1107  0.1395
95651W        W38589  21.371  26.322  29.697  0.0170  0.3037 -0.0506
95652W        W38590  19.668  27.773  27.632 -0.0486 -0.0083 -0.0726
95653W        W38591  22.209  27.479  28.324 -0.0076 -0.1312  0.0323
95654W        W38592  20.263  25.600  28.319  0.1984 -0.2045 -0.3024
95655W        W38593  18.383  26.206  27.935 -0.1247 -0.2785 -0.0416
95656W        W38594  18.734  29.065  31.444  0.0866  0.0705  0.0628
95657W        W38595  19.989  25.529  26.459 -0.0773  0.2711 -0.0457
95658W        W38596  19.465  26.171  26.209  0.0247  0.0388 -0.2363
95659W        W38597  19.344  26.374  30.207 -0.3390 -0.0130 -0.0285
95660W        W38598  22.700  27.098  30.899  0.0555 -0.2380  0.1705
95661W        W38599  21.017  24.397  27.454 -0.2753  0.1473 -0.2368
95662W        W38600  21.310  25.621  30.453 -0.2417 -0.0525  0.1356
95663W        W38601  18.599  27.104  27.988  0.1153  0.1281  0.3468
95664W        W38602  19.755  26.103  28.757  0.2751  0.0943  0.2300
95665W        W38603  18.962  28.296  28.534  0.1546 -0.1672  0.0283
95666W        W38604  18.188  27.466  29.982  0.1916  0.2164  0.1513
95667W        W38605  19.272  28.678  28.644  0.0479 -0.1217 -0.2459
95668W        W38606  19.995  24.672  28.514  0.2753  0.1112  0.0997
95669W        W38607  19.582  26.945  28.615 -0.2786  0.0841 -0.3600
95670W        W38608  20.032  26.554  28.633 -0.2127 -0.0971  0.1183
95671W        W38609  20.191  26.034   0.419 -0.0760 -0.0954 -0.0624
95672W        W38610  19.887  27.161  29.911  0.1804  0.0334 -0.3343
95673W        W38611  18.959  28.522  28.996  0.4291 -0.1456  0.1702
95674W        W38612  20.359  28.807  31.654 -0.2104  0.0834 -0.2024
95675W        W38613  21.450  26.818  29.795 -0.2252  0.1365  0.1841
95676W        W38614  19.649  27.934  28.641 -0.3227  0.1981  0.1376
95677W        W38615  18.397  26.798  29.647 -0.1035  0.0405  0.3731
95678W        W38616  20.384  27.042  31.010 -0.0568 -0.4593 -0.0612
95679W        W38617  20.401  26.361  29.512 -0.2012  0.1567 -0.0476
95680W        W38618  19.942  26.016  29.380 -0.1425 -0.0431 -0.1396
95681W        W38619  18.206  26.133  28.441  0.0233  0.0505  0.1126
95682W        W38620  19.068  26.791  30.735  0.0238  0.2908  0.0456
95683W        W38621  19.132  27.570  29.172 -0.0707 -0.3968 -0.0219
95684W        W38622  18.853  28.196  28.036 -0.1186  0.0417  0.0911
95685W        W38623  20.528  28.327  27.812  0.2427 -0.0034  0.1082
95686W        W38624  19.668  25.594  26.836  0.0661  0.2576  0.1161
95687W        W38625  20.176  27.937  30.448 -0.2352  0.1131 -0.1280
95688W        W38626  17.518  27.364  27.933  0.2052 -0.1670  0.0203
95689W        W38627  18.497  28.671  27.524  0.2099  0.2010  0.3769
95690W        W38628  18.709  26.526  26.937 -0.2829  0.1167 -0.0093
95691W        W38629  21.370  27.306  27.812 -0.0236  0.1169 -0.0342
95692W        W38630  18.667  28.015  28.819  0.4199 -0.1521  0.1325
95693W        W38631  21.257  27.278  31.058 -0.1644 -0.1545 -0.1470
95694W        W38632  22.301  26.249  27.889  0.0471  0.1124 -0.1670
95695W        W38633  21.694  27.174  29.245 -0.1251 -0.4014 -0.1969
95696W        W38634  20.285  26.140  29.009 -0.0416  0.2694 -0.3822
95697W        W38635  20.315  28.510  28.975 -0.2556  0.2932 -0.1675
95698W        W38636  19.007  26.321  29.182 -0.0374 -0.0253 -0.1172
95699W        W38637  19.242  25.312  26.757 -0.1417 -0.3205  0.2181
95700W        W38638  18.644  25.225  31.109 -0.2888  0.2458  0.4349
95701W        W38639  23.153  24.716  30.754  0.2204 -0.3152 -0.0322
95702W        W38640  18.380  29.111  29.203 -0.1520 -0.0292  0.0799
95703W        W38641  21.406  28.718  28.127  0.1729 -0.2503  0.0925
95704W        W38642  19.238  25.869  26.895  0.0474  0.2471 -0.0377
95705W        W38643  18.880  27.544  28.716 -0.5026  0.0057  0.0190
95706W        W38644  21.964  24.326  30.814  0.2265  0.1873 -0.0416
95707W        W38645  21.142  27.949  26.297  0.0255 -0.2305 -0.0106
95708W        W38646  19.893  26.882  28.988  0.1865 -0.2241  0.3765
95709W        W38647  19.893  27.396  28.226 -0.1516  0.3116 -0.0932
95710W        W38648  19.516  27.853  31.067  0.0704 -0.3999 -0.3483
95711W        W38649  18.180  29.147  30.101  0.1095  0.1848  0.1154
95712W        W38650  18.389  26.690  27.707 -0.0949 -0.0418  0.0019
95713W        W38651  21.956  26.715  28.851 -0.2678  0.2783 -0.2694
95714W        W38652  18.748  26.363  27.469  0.4396 -0.1293  0.2719
95715W        W38653  20.734  25.430  31.614 -0.2886  0.1422 -0.1294
95716W        W38654  19.681  26.455  28.315 -0.0371  0.3012 -0.0264
95717W        W38655  22.545  27.000  27.323 -0.0170 -0.0709 -0.2513
95718W        W38656  21.450  27.063  30.628 -0.1168  0.2745  0.1598
95719W        W38657  19.813  26.816  27.835 -0.0194  0.0690  0.0691
95720W        W38658  20.156  25.119  26.736  0.3600  0.0754  0.0721
95721W        W38659  20.669  27.688  30.366 -0.1440  0.0955  0.1479
95722W        W38660  19.826  26.278  27.883  0.0264  0.2750  0.2856
95723W        W38661  20.682  26.588  30.030  0.1814  0.1934 -0.1820
95724W        W38662  18.523  24.035  27.646  0.2377  0.2577  0.0496
95725W        W38663  19.509  24.500  27.988 -0.0557  0.1402 -0.1921
95726W        W38664  18.808  27.179  29.119 -0.1448  0.1628 -0.0218
95727W        W38665  21.190  27.698  29.557  0.0682  0.0162  0.1194
95728W        W38666  21.160  27.682  31.358 -0.2895 -0.1021 -0.3857
95729W        W38667  19.714  25.356  26.047  0.2027  0.0739  0.4122
95730W        W38668  21.560  27.470  27.408 -0.1681  0.1179  0.1557
95731W        W38669  21.490  26.146  28.532  0.1055 -0.1462 -0.2209
95732W        W38670  21.178  28.272  26.936 -0.1219 -0.1866  0.0349
95733W        W38671  21.437  27.058  28.246 -0.0368 -0.3163 -0.3365
95734W        W38672  20.883  28.097  29.481 -0.1151  0.2040  0.0023
95735W        W38673  18.623  26.514  28.782  0.1909 -0.4365  0.1897
95736W        W38674  20.555  29.858  30.649 -0.3071  0.2326  0.2201
95737W        W38675  22.554  27.753  29.285 -0.1619 -0.0142 -0.1869
95738W        W38676  21.148  24.541  29.588  0.0633  0.2346 -0.1627
95739W        W38677  19.154  27.695  29.689 -0.2159  0.1148  0.0407
95740W        W38678  18.552  28.642  28.538  0.2995 -0.1897 -0.0204
95741W        W38679  21.658  26.089  29.399 -0.0274 -0.2086 -0.1319
95742W        W38680  19.489  26.510  28.817 -0.3527  0.2551 -0.4271
95743W        W38681  20.187  28.071  27.530  0.1578  0.1458 -0.2158
95744W        W38682  20.190  24.672  30.565 -0.1011  0.4133  0.2261
95745W        W38683  20.042  28.135  29.910 -0.3859  0.1424  0.1451
95746W        W38684  19.909  28.049  30.855  0.0755 -0.1377  0.4454
95747W        W38685  19.304  27.248  24.901  0.4269  0.0731 -0.0836
95748W        W38686  19.404  27.443  30.077 -0.0560 -0.2649  0.2570
95749W        W38687  20.185  27.275  29.187  0.2736  0.1285  0.4052
95750W        W38688  19.692  28.335  27.551  0.0358  0.1484  0.1326
95751W        W38689  21.029  29.035  28.252  0.0984  0.0103 -0.0565
95752W        W38690  19.893  25.748  27.903  0.0468  0.0429 -0.1397
95753W        W38691  20.304  27.778  29.003  0.0439 -0.2328 -0.2506
95754W        W38692  20.188  25.272  27.841  0.1074  0.2370 -0.0016
95755W        W38693  21.948  24.787  29.879  0.0332 -0.1495 -0.3186
95756W        W38694  20.718  26.377  27.683  0.2830 -0.0571  0.1978
95757W        W38695  19.045  27.969  30.110 -0.3202 -0.2711 -0.0241
95758W        W38696  17.428  29.062  27.173  0.0725  0.0351 -0.1616
95759W        W38697  19.756  27.250  27.245 -0.2827 -0.0846  0.0634
95760W        W38698  18.353  28.064  29.414  0.0212  0.2405  0.0910
95761W        W38699  21.157  24.864  31.097 -0.2334 -0.1559  0.0017
95762W        W38700  18.142  24.534  29.386  0.0735 -0.0069  0.0116
95763W        W38701  18.495  28.103  28.368  0.0453 -0.0517  0.1074
95764W        W38702  19.644  24.288  28.792 -0.4804  0.0212 -0.0428
95765W        W38703  22.453  28.576  30.251  0.0939 -0.2789 -0.1352
95766W        W38704  18.770  25.470  27.133 -0.0428 -0.0597 -0.1597
95767W        W38705  18.849  25.669  26.562  0.2446  0.4511 -0.2058
95768W        W38706  21.986  28.354  28.699  0.0674 -0.2354  0.0525
95769W        W38707  22.560  28.364  27.957 -0.2172  0.2259 -0.2472
95770W        W38708  20.285  25.034  29.158 -0.0531  0.1175  0.0277
95771W        W38709  21.391  29.589  31.130 -0.0092  0.1851  0.3251
95772W        W38710  18.839  28.298  27.473 -0.2046 -0.3699  0.1837
95773W        W38711  19.877  27.239  30.402  0.2517  0.1481  0.2633
95774W        W38712  18.995  26.030  30.016 -0.0255  0.0198 -0.1869
95775W        W38713  18.458  24.388  26.046 -0.1347 -0.1729  0.1002
95776W        W38714  18.911  26.824  29.437  0.1085 -0.2345  0.0076
95777W        W38715  21.499  27.342  29.670  0.0251 -0.0692 -0.1796
95778W        W38716  21.187  27.462  28.314 -0.1682 -0.0486  0.0347
95779W        W38717  19.932  28.593  30.539  0.1691 -0.2517 -0.1662
95780W        W38718  19.983  27.806  31.387 -0.2069 -0.1928  0.0989
95781W        W38719  16.193  26.053  29.192  0.0903  0.0675 -0.0217
95782W        W38720  21.762  27.739  28.812  0.2718  0.1700  0.0353
95783W        W38721  19.079  27.507  31.422 -0.1227  0.0662  0.0370
95784W        W38722  22.181  29.024  27.679  0.0950 -0.1897 -0.1646
95785W        W38723  22.172  25.287  28.451 -0.1044 -0.4019  0.1001
95786W        W38724  21.959  26.760  30.662  0.1371  0.1051 -0.1653
95787W        W38725  19.030  25.086  29.050  0.2356 -0.1334  0.0969
95788W        W38726  18.385  25.727  28.641 -0.2102  0.1544  0.0981
95789W        W38727  22.317  26.709  29.627  0.3631  0.1512  0.1877
95790W        W38728  21.703  25.248  29.194 -0.0706  0.2439  0.2780
95791W        W38729  19.384  26.557  27.936  0.3316 -0.0885 -0.0725
95792W        W38730  19.066  28.806  28.209  0.1884  0.1186  0.0180
95793W        W38731  19.124  27.854  28.351  0.0802  0.2583  0.2431
95794W        W38732  20.097  24.976  27.506 -0.0552 -0.3310 -0.1844
95795W        W38733  20.130  26.309  30.664 -0.0839  0.1609 -0.0847
95796W        W38734  20.903  26.539  29.518  0.3446 -0.0846  0.3485
95797W        W38735  21.133  27.925  30.403 -0.3783 -0.2037  0.1130
95798W        W38736  19.155  26.309  27.096  0.3990 -0.4053 -0.0147
95799W        W38737  22.442  28.229  29.476 -0.1118 -0.0836  0.0522
95800W        W38738  21.018  28.750  28.951  0.0496 -0.0091  0.0191
95801W        W38739  21.626  30.268   0.215  0.2675 -0.1081 -0.1519
95802W        W38740  20.116  29.038  30.820 -0.0436 -0.3042 -0.0386
95803W        W38741  20.885  26.952  30.693 -0.1615  0.1672  0.3739
95804W        W38742  18.302  24.968  27.576  0.0437 -0.1094 -0.2298
95805W        W38743  18.254  27.230  28.977  0.0764 -0.0446  0.1507
95806W        W38744  19.464  27.159  28.144 -0.0482 -0.1061 -0.4051
95807W        W38745  19.987  25.770  30.422 -0.1432 -0.0233 -0.0601
95808W        W38746  19.393  26.050  28.045  0.1219 -0.0316  0.3012
95809W        W38747  20.491  24.644  28.726  0.1400 -0.0919 -0.0833
95810W        W38748  18.411  28.734  30.245  0.0099  0.4974  0.1107
95811W        W38749  20.956  27.255  29.680  0.1648 -0.0732 -0.0296
95812W        W38750  20.497  26.857  31.516 -0.1496  0.2783 -0.0324
95813W        W38751  20.855  27.024   0.408 -0.2850 -0.2941  0.3624
95814W        W38752  18.317  28.045  31.194 -0.1164  0.0269  0.3082
95815W        W38753  18.334  27.502  31.315 -0.1559  0.0472  0.0739
95816W        W38754  19.958  28.572  31.619 -0.0667  0.1431 -0.0797
95817W        W38755  18.820  27.992  31.404 -0.1006 -0.3305  0.2346
95818W        W38756  20.637  25.388  31.043  0.2289  0.0608 -0.1401
95819W        W38757  19.478  26.123  29.309  0.0133  0.2530  0.0638
95820W        W38758  22.364  26.616  31.604  0.2335 -0.1703  0.0899
95821W        W38759  21.049  27.991   0.341  0.2058  0.3946  0.1991
95822W        W38760  20.425  27.835  30.849 -0.5516 -0.2119 -0.1634
95823W        W38761  19.672  24.008  31.413  0.0304 -0.4457 -0.1918
95824W        W38762  22.214  26.755  31.109 -0.2851 -0.3134 -0.1006
95825W        W38763  19.324  26.424  31.085  0.4049 -0.0534 -0.2996
95826W        W38764  21.201  26.074  30.140  0.0612  0.0291  0.3274
95827W        W38765  18.790  29.214   0.907  0.0769  0.1493 -0.3364
95828W        W38766  18.873  27.185  30.507 -0.0925  0.1195  0.3918
95829W        W38767  21.655  27.570  31.249  0.2503 -0.0311  0.0053
95830W        W38768  20.062  25.265  30.499 -0.5081  0.1676 -0.1805
95831W        W38769  18.488  25.167  30.042 -0.0958 -0.1846  0.1860
95832W        W38770  18.989  24.559   1.412  0.3926  0.2951  0.0253
95833W        W38771  19.275  29.144  31.777 -0.2874  0.0296  0.1507
95834W        W38772  21.887  25.415  31.199 -0.0209  0.0351  0.1992
95835W        W38773  19.856  25.502  31.679  0.0228 -0.4122 -0.1300
95836W        W38774  19.904  25.652  30.970  0.2624 -0.0724  0.1307
95837W        W38775  21.565  25.096   1.482 -0.1453 -0.0390 -0.0476
95838W        W38776  19.412  27.452  28.664  0.2656  0.0768  0.1141
95839W        W38777  17.315  28.353  31.420 -0.0828  0.1062  0.0033
95840W        W38778  18.499  27.071  30.212  0.2628  0.1762  0.2101
95841W        W38779  19.721  28.838  31.961  0.0506 -0.1402  0.0031
95842W        W38780  20.399  27.742  31.746 -0.2016 -0.0274  0.1100
95843W        W38781  18.354  26.200  28.999 -0.0379 -0.2130  0.3961
95844W        W38782  20.746  27.309  31.446 -0.2896 -0.1893  0.0419
95845W        W38783  21.359  25.356   1.074  0.1689 -0.4106 -0.3433
95846W        W38784  19.000  26.909  28.308 -0.1790  0.0490 -0.0708
95847W        W38785  17.991  27.460  31.824 -0.0058 -0.3574  0.0139
95848W        W38786  19.763  27.693  31.935 -0.0336 -0.0480 -0.0209
95849W        W38787  21.645  27.299   0.114  0.1946  0.0123  0.0754
95850W        W38788  21.253  27.352   0.398 -0.0510  0.2638  0.1886
95851W        W38789  19.950  25.392  30.002 -0.0496  0.0274  0.2277
95852W        W38790  21.348  27.186  31.649  0.1267  0.0947 -0.1713
95853W        W38791  20.292  27.484  30.117  0.0585  0.3442  0.2332
95854W        W38792  19.837  26.664  30.172  0.2282  0.3369 -0.2820
95855W        W38793  20.304  29.209  31.291 -0.1994 -0.1786 -0.0913
95856W        W38794  18.385  25.507   0.237  0.2568  0.2252  0.2327
95857W        W38795  20.019  25.976  31.503  0.0604 -0.0576  0.1298
95858W        W38796  19.401  25.476  31.939 -0.1158  0.3572 -0.2992
95859W        W38797  18.851  27.795  31.873  0.0646 -0.0020 -0.0615
95860W        W38798  20.320  28.554   0.535  0.2756 -0.1499  0.1438
95861W        W38799  17.736  27.921   1.285  0.2512  0.1705  0.2737
95862W        W38800  21.410  27.981   0.778  0.1863 -0.0987 -0.1635
95863W        W38801  21.109  25.833  31.772  0.2676  0.0427 -0.3208
95864W        W38802  19.671  25.931  31.943 -0.3056 -0.1207  0.0637
95865W        W38803  19.536  27.388  31.299 -0.0794  0.0081  0.1717
95866W        W38804  17.906  26.594  31.437  0.1262  0.2709  0.0687
95867W        W38805  19.606  25.956  30.717  0.1683  0.1506  0.3465
95868W        W38806  22.340  28.204   0.644 -0.1421 -0.1181  0.0138
95869W        W38807  18.886  29.134  30.025  0.0940  0.0638  0.3085
95870W        W38808  20.670  27.685   0.217  0.2586 -0.3150 -0.2771
95871W        W38809  18.828  26.616  31.823  0.0162  0.0642 -0.0448
95872W        W38810  18.238  26.098  30.115  0.0150 -0.1468  0.1109
95873W        W38811  18.799  28.494  29.479  0.2594 -0.2726 -0.1825
95874W        W38812  19.233  27.991  28.867  0.1078 -0.0594  0.1261
95875W        W38813  19.524  25.639  29.464  0.1248  0.2566 -0.0511
95876W        W38814  21.287  28.854  30.013  0.1816  0.0568 -0.0527
95877W        W38815  22.280  29.861  31.588 -0.0244 -0.0800  0.1520
95878W        W38816  21.906  27.003   0.960 -0.0176  0.3530 -0.1145
95879W        W38817  19.231  30.731  18.488  0.1266 -0.1796 -0.1345
95880W        W38818  20.612  30.304  17.432 -0.1738  0.0966  0.0628
95881W        W38819  22.917  30.122  17.171  0.1723  0.1736  0.1672
95882W        W38820  22.111  31.717  16.736  0.0400 -0.1212 -0.0754
95883W        W38821  19.082  30.074  17.538 -0.0965  0.1932 -0.4212
95884W        W38822  19.765  31.915  17.521  0.1011 -0.2205 -0.0001
95885W        W38823  19.945  30.281  17.909 -0.1340  0.2002  0.0053
95886W        W38824  20.444  32.197  17.816  0.0978 -0.0261 -0.1090
95887W        W38825  21.652  31.824  17.500 -0.3148  0.2363  0.1113
95888W        W38826  20.278  31.101  17.412 -0.0537 -0.0070  0.1185
95889W        W38827  20.003  29.459  18.322 -0.1914  0.0795 -0.1982
95890W        W38828  19.697  33.099  18.861 -0.1034 -0.0349 -0.1369
95891W        W38829  20.304  28.936  16.665 -0.0549  0.0135 -0.2281
95892W        W38830  17.433  29.502  18.323 -0.0414  0.1086  0.0756
95893W        W38831  20.625  31.121  18.615 -0.3323 -0.3702 -0.4978
95894W        W38832  19.134  29.887  18.085  0.0914  0.0197 -0.1006
95895W        W38833  18.738  31.161  19.412  0.1745  0.2320  0.2202
95896W        W38834  19.895  29.614  17.825 -0.2432  0.0832  0.0092
95897W        W38835  19.961  33.126  16.859 -0.0347 -0.1737  0.0208
95898W        W38836  18.993  28.658  20.165  0.0926 -0.0415  0.1016
95899W        W38837  19.211  28.253  20.543 -0.1444  0.2311  0.1701
95900W        W38838  20.885  31.130  16.441 -0.0986  0.3931  0.0554
95901W        W38839  21.566  30.540  17.300  0.0743  0.1048 -0.0523
95902W        W38840  17.760  30.459  18.025  0.1128  0.1459  0.0516
95903W        W38841  17.819  30.216  18.731 -0.2380 -0.0237  0.1754
95904W        W38842  21.537  30.537  17.852  0.1593  0.2154  0.0052
95905W        W38843  21.442  32.073  17.975  0.2190 -0.3535 -0.0730
95906W        W38844  20.127  33.140  17.678  0.1667 -0.1712  0.1663
95907W        W38845  19.177  32.457  16.572  0.2097  0.1189 -0.2030
95908W        W38846  21.246  30.430  18.713 -0.1415  0.1430  0.3189
95909W        W38847  19.696  32.358  16.380 -0.4409  0.0852 -0.1100
95910W        W38848  18.762  31.989  16.006  0.2787 -0.0610  0.3309
95911W        W38849  19.752  32.705  15.969  0.3327 -0.1852  0.2006
95912W        W38850  21.822  32.354  18.250 -0.1626 -0.0790  0.3848
95913W        W38851  20.587  31.514  18.272  0.0372 -0.3264  0.1688
95914W        W38852  18.508  33.139  19.231  0.1003  0.0012  0.2686
95915W        W38853  17.529  32.187  16.408 -0.0820 -0.1151 -0.2876
95916W        W38854  19.010  33.860  20.625  0.2886  0.3048  0.0220
95917W        W38855  18.908  32.407  19.620 -0.1472  0.0203 -0.0161
95918W        W38856  20.391  31.378  17.829  0.0706 -0.0264 -0.1420
95919W        W38857  20.733  30.324  17.931 -0.2318 -0.0028  0.2552
95920W        W38858  19.126  33.738  15.809  0.3356  0.1075  0.0481
95921W        W38859  20.883  32.800  17.915 -0.0790 -0.0537 -0.0028
95922W        W38860  19.507  31.592  19.803  0.1320  0.1752  0.2554
95923W        W38861  17.210  31.721  17.670  0.3408 -0.4525 -0.1175
95924W        W38862  21.421  30.254  20.248  0.1559 -0.1807  0.0709
95925W        W38863  20.287  31.239  16.158  0.1781  0.3295  0.1158
95926W        W38864  21.687  30.999  16.929  0.1813  0.0428  0.0235
95927W        W38865  21.221  30.487  16.248 -0.1852 -0.2340 -0.0166
95928W        W38866  21.583  28.885  17.332 -0.4139 -0.0029 -0.0203
95929W        W38867  19.089  27.707  18.436 -0.0349  0.2320 -0.1638
95930W        W38868  19.779  31.995  18.620  0.0073  0.2806 -0.0786
95931W        W38869  17.867  28.390  18.660 -0.2916  0.0674 -0.1278
95932W        W38870  20.552  31.613  18.971 -0.0632  0.0552  0.0161
95933W        W38871  20.444  30.949  16.605  0.2299 -0.2544  0.2433
95934W        W38872  20.237  29.186  17.765  0.0777 -0.1690 -0.0511
95935W        W38873  18.392  31.562  17.426  0.0011  0.1306 -0.1100
95936W        W38874  18.665  30.098  19.182  0.2507 -0.3987  0.1326
95937W        W38875  20.691  32.332  16.938 -0.0358 -0.1570 -0.0129
95938W        W38876  20.359  32.169  17.252 -0.3337  0.3017  0.1251
95939W        W38877  20.101  32.189  16.140 -0.1741  0.2019 -0.0919
95940W        W38878  18.309  30.327  16.201  0.0770  0.2385 -0.0930
95941W        W38879  18.037  30.851  19.766 -0.1819  0.0217  0.0249
95942W        W38880  17.868  29.858  19.891 -0.1180  0.1241 -0.1068
95943W        W38881  20.043  28.984  15.955  0.1593 -0.0862 -0.0062
95944W        W38882  20.942  31.888  18.209 -0.0195  0.1501  0.0205
95945W        W38883  17.367  31.432  19.704 -0.0211 -0.2328 -0.1872
95946W        W38884  20.832  31.488  17.829 -0.0616  0.2351  0.1061
95947W        W38885  19.805  31.283  17.185  0.0754 -0.1048  0.1918
95948W        W38886  20.651  31.943  19.382  0.1729  0.1262  0.3357
95949W        W38887  21.875  30.573  16.808 -0.0658 -0.0686 -0.2208
95950W        W38888  21.124  31.035  17.685  0.6076  0.0683 -0.0741
95951W        W38889  21.242  28.836  19.315  0.0382 -0.0050 -0.0001
95952W        W38890  19.459  30.526  17.760 -0.2043  0.3785  0.1863
95953W        W38891  21.046  31.742  17.034  0.2139 -0.2009 -0.0977
95954W        W38892  22.231  30.964  18.338  0.0811 -0.0987  0.2546
95955W        W38893  20.561  31.500  16.405  0.2335  0.0700 -0.0019
95956W        W38894  19.476  31.591  18.513 -0.0987  0.2108  0.0943
95957W        W38895  19.177  30.492  19.748 -0.1585  0.1417  0.1010
95958W        W38896  19.322  32.829  18.749 -0.1278  0.1362 -0.0599
95959W        W38897  19.166  33.282  15.547 -0.0749 -0.0010  0.0239
95960W        W38898  18.951  30.989  18.050 -0.0450  0.2552 -0.1428
95961W        W38899  17.780  29.892  16.969 -0.1445 -0.0556  0.3932
95962W        W38900  17.115  30.297  19.843  0.1694 -0.1620  0.2774
95963W        W38901  19.866  31.327  17.721 -0.4399 -0.2465  0.3064
95964W        W38902  20.415  30.473  16.874 -0.1392 -0.1412 -0.3010
95965W        W38903  20.108  31.636  19.207  0.2215 -0.0334 -0.0145
95966W        W38904  20.987  28.939  17.795 -0.0534  0.0219 -0.1440
95967W        W38905  18.744  32.193  16.542  0.0516 -0.1571 -0.1504
95968W        W38906  20.689   0.168  18.036 -0.0796  0.2435  0.2145
95969W        W38907  22.782  29.686  17.411  0.2104 -0.1824 -0.2311
95970W        W38908  21.221  31.761  16.606 -0.0786 -0.1255  0.2092
95971W        W38909  18.172  28.802  18.958 -0.0015 -0.1217  0.1668
95972W        W38910  18.643  29.676  17.786  0.2692  0.1044  0.1199
95973W        W38911  18.399  31.873  20.335 -0.1224  0.0218  0.2002
95974W        W38912  19.187  31.374  19.386  0.1175  0.3100  0.1656
95975W        W38913  21.251  29.265  20.014  0.0445  0.2352  0.1419
95976W        W38914  19.762  30.318  16.514  0.0147  0.1642  0.1125
95977W        W38915  20.796  29.884  18.722 -0.0365 -0.3074 -0.4192
95978W        W38916  19.051  29.755  18.606 -0.0038 -0.2107  0.2914
95979W        W38917  17.991  30.969  16.600  0.1464 -0.0989 -0.2521
95980W        W38918  19.959  30.394  19.199 -0.2767 -0.0121  0.2136
95981W        W38919  19.994  31.835  16.940 -0.2992  0.1252  0.1190
95982W        W38920  20.383  33.249  20.143 -0.2578 -0.1243  0.4066
95983W        W38921  20.680  32.906  17.218  0.2029  0.3389 -0.0342
95984W        W38922  19.065  30.251  18.769 -0.0494  0.3012 -0.4269
95985W        W38923  20.571  29.208  16.971  0.2180 -0.0176 -0.0687
95986W        W38924  18.057  31.873  17.132 -0.1655 -0.1917  0.0809
95987W        W38925  18.967  33.520  18.770  0.0948 -0.0020 -0.0903
95988W        W38926  21.061  29.046  16.759  0.3047 -0.1493  0.2491
95989W        W38927  21.537  32.474  18.706  0.4630 -0.3241  0.0688
95990W        W38928  19.882  30.792  17.535 -0.2212  0.1755 -0.2247
95991W        W38929  18.743  30.652  18.437 -0.3010 -0.1304 -0.1381
95992W        W38930  19.869  29.876  19.248 -0.0590 -0.3002  0.2294
95993W        W38931  21.853  31.120  18.718  0.2302 -0.4205  0.0095
95994W        W38932  21.191  30.549  18.209  0.0029 -0.2341 -0.2268
95995W        W38933  19.469  29.930  16.413  0.1182  0.0030  0.0784
95996W        W38934  19.351  33.014  17.254  0.2608  0.2072 -0.0448
95997W        W38935  17.883  32.330  16.137 -0.0190 -0.0934 -0.2613
95998W        W38936  19.020  30.575  17.569  0.0568  0.2465  0.0319
95999W        W38937  20.182  32.285  16.746  0.3758  0.1566  0.2511
96000W        W38938  20.992  30.039  18.283 -0.1132  0.0032 -0.0598
96001W        W38939  17.873  31.261  19.944 -0.2968 -0.3263 -0.1781
96002W        W38940  20.339  29.995  17.725 -0.2043  0.0637 -0.3233
96003W        W38941  19.402  29.490  17.870 -0.1115 -0.2134  0.4773
96004W        W38942  17.922  30.888  18.977  0.0039 -0.3284  0.0683
96005W        W38943  19.752  29.262  17.506 -0.1126 -0.1037  0.2720
96006W        W38944  22.426  30.289  17.819 -0.0677  0.0952 -0.1266
96007W        W38945  19.627  31.709  20.426  0.3631  0.1053  0.1770
96008W        W38946  21.247  30.932  17.181 -0.1271  0.0525 -0.3370
96009W        W38947  20.188  30.497  16.399 -0.0099  0.5015  0.0081
96010W        W38948  20.970  28.326  16.782 -0.0575  0.0714  0.0368
96011W        W38949  17.777  32.559  19.775  0.1679  0.0706  0.0421
96012W        W38950  20.777  32.458  17.481  0.0015 -0.2176  0.2732
96013W        W38951  20.121  31.784  17.943 -0.1777  0.1266  0.0196
96014W        W38952  21.852  29.254  16.766  0.2143  0.0005  0.1261
96015W        W38953  22.346  32.678  16.436 -0.1453  0.3364  0.0044
96016W        W38954  17.934  29.714  18.915 -0.2753 -0.1480  0.0579
96017W        W38955  19.953  32.399  19.616 -0.0093 -0.2719 -0.1252
96018W        W38956  18.865  31.302  17.656 -0.0958  0.0873  0.3112
96019W        W38957  19.486  28.274  18.807  0.0121 -0.0089 -0.0053
96020W        W38958  19.548  29.933  15.851  0.1678  0.0399  0.1939
96021W        W38959  21.427  29.161  17.985  0.0393  0.4037 -0.0626
96022W        W38960  18.285  32.089  16.117 -0.1116 -0.0681  0.3189
96023W        W38961  19.639  30.612  18.871  0.2958  0.4103  0.0168
96024W        W38962  19.221  27.461  18.874 -0.0220 -0.0585 -0.0534
96025W        W38963  19.720  29.293  19.290 -0.2757 -0.0553  0.0432
96026W        W38964  20.958  30.761  20.546  0.1043  0.2170  0.0025
96027W        W38965  21.626  29.993  16.737  0.1286  0.0177 -0.1779
96028W        W38966  20.122  31.033  18.065  0.0737 -0.1416 -0.1488
96029W        W38967  19.765  29.483  16.001  0.2791  0.0621  0.3333
96030W        W38968  19.606  29.264  18.710 -0.1866 -0.4213  0.0648
96031W        W38969  18.081  32.368  19.392  0.0821  0.0505 -0.1647
96032W        W38970  18.367  30.764  18.740  0.0543  0.0736 -0.0894
96033W        W38971  20.305  32.080  19.077 -0.0588  0.1530  0.1156
96034W        W38972  19.814  32.252  17.157  0.0834  0.2169  0.0041
96035W        W38973  17.591  31.101  20.813 -0.1264 -0.3626 -0.0550
96036W        W38974  20.811  30.230  15.691  0.1548 -0.1519  0.0954
96037W        W38975  18.351  32.521  16.467 -0.2443  0.0831  0.1004
96038W        W38976  19.305  33.103  16.011 -0.1172  0.0407  0.2851
96039W        W38977  17.857  28.441  17.826 -0.6671  0.0263 -0.0782
96040W        W38978  19.000  32.621  18.096  0.3458 -0.0268 -0.2759
96041W        W38979  20.234  30.744  15.906 -0.1349  0.0700  0.3126
96042W        W38980  20.935  32.296  17.928  0.1117 -0.4194 -0.3710
96043W        W38981  19.037  32.429  17.633  0.3085  0.2974  0.3644
96044W        W38982  21.462  28.646  17.803  0.0566 -0.2365 -0.1462
96045W        W38983  18.141  30.374  19.164 -0.4047 -0.0075 -0.2830
96046W        W38984  19.841  29.647  16.574  0.0508  0.0748 -0.2226
96047W        W38985  18.111  29.999  16.576 -0.2228  0.2066  0.3604
96048W        W38986  20.477  30.286  18.781 -0.0548  0.2109 -0.1765
96049W        W38987  20.506  32.146  16.427 -0.0928  0.1171 -0.2484
96050W        W38988  18.774  29.374  18.792 -0.3457  0.2666  0.1713
96051W        W38989  21.057  29.827  17.313  0.0722  0.1419  0.1670
96052W        W38990  17.502  31.343  18.508  0.3512 -0.1503 -0.0298
96053W        W38991  22.218  29.857  17.895 -0.1522  0.1823  0.3675
96054W        W38992  20.148  29.266  16.334 -0.0561 -0.1777 -0.0630
96055W        W38993  20.380  32.583  19.396 -0.1093  0.1899  0.0184
96056W        W38994  20.689  32.885  19.052 -0.3106 -0.0647 -0.0582
96057W        W38995  19.047  29.227  17.538  0.0045 -0.2690  0.3621
96058W        W38996  20.957  29.981  20.087 -0.0730 -0.0469 -0.1927
96059W        W38997  20.543  29.851  17.214 -0.1334 -0.2512  0.0558
96060W        W38998  18.425  31.725  18.568 -0.0069 -0.1193  0.1557
96061W        W38999  19.416  31.125  16.291  0.0797  0.2934  0.1675
96062W        W39000  19.499  29.996  17.785  0.1311 -0.0588 -0.1880
96063W        W39001  19.610  32.362  19.005  0.1931 -0.0769  0.0849
96064W        W39002  19.227  29.113  18.939  0.1117  0.0973  0.3195
96065W        W39003  21.865  31.341  18.195  0.1305  0.3553 -0.0610
96066W        W39004  20.069  30.350  17.366  0.1478  0.2635 -0.0256
96067W        W39005  20.310  29.037  18.231  0.0070 -0.0730 -0.2147
96068W        W39006  19.181  31.529  18.113  0.1052  0.0136  0.0025
96069W        W39007  22.505  31.440  18.320 -0.1996 -0.2262 -0.0457
96070W        W39008  19.326  30.843  17.155 -0.1387 -0.1503  0.2510
96071W        W39009  18.810  31.145  20.241 -0.0586 -0.0979  0.1847
96072W        W39010  18.691  29.586  18.278 -0.1469 -0.1319  0.0695
96073W        W39011  20.608  34.389  16.317 -0.3217  0.2050  0.0289
96074W        W39012  20.461  31.437  19.553  0.0368 -0.0162  0.1381
96075W        W39013  19.835  31.406  16.570  0.1344 -0.2124 -0.0046
96076W        W39014  17.791  31.605  19.402  0.3552  0.0588  0.3832
96077W        W39015  19.148  32.547  16.005  0.0137  0.4058  0.2620
96078W        W39016  19.373  30.193  18.441 -0.2702 -0.1106  0.0083
96079W        W39017  18.974  31.675  18.503 -0.2596 -0.3399 -0.1291
96080W        W39018  19.217  32.114  16.244  0.2762 -0.3289 -0.1404
96081W        W39019  17.193  31.118  18.169 -0.3626 -0.0374  0.1990
96082W        W39020  20.264  30.057  16.570 -0.0903  0.2348 -0.0228
96083W        W39021  21.765  31.385  16.561 -0.1618  0.0690  0.0313
96084W        W39022  20.334  30.601  17.812  0.1519 -0.0114 -0.0322
96085W        W39023  21.079  30.504  19.874 -0.0964  0.3696 -0.1055
96086W        W39024  20.868  30.657  16.631  0.1792 -0.2795  0.1444
96087W        W39025  20.344  28.929  19.244 -0.0460 -0.2624  0.3377
96088W        W39026  19.305  28.462  19.254 -0.1985 -0.0999 -0.2404
96089W        W39027  20.238  31.375  16.870  0.3928  0.3107 -0.4021
96090W        W39028  17.240  29.973  20.314 -0.1003 -0.0655  0.1274
96091W        W39029  20.537  32.249  21.086 -0.0820  0.1876  0.0373
96092W        W39030  17.475  31.103  20.206  0.1014 -0.0297  0.3370
96093W        W39031  21.587  32.413  17.490 -0.0265  0.0741 -0.1599
96094W        W39032  18.322  28.655  16.512 -0.1060  0.2119  0.3111
96095W        W39033  19.869  29.900  17.433 -0.1725 -0.0467  0.0237
96096W        W39034  21.945  31.590  18.590  0.1138  0.1691 -0.0543
96097W        W39035  20.697  30.780  16.150  0.0241 -0.2333 -0.1409
96098W        W39036  21.682  30.340  18.340  0.0201 -0.0539 -0.0560
96099W        W39037  20.020  32.714  16.433  0.1785 -0.1315 -0.1531
96100W        W39038  20.762  31.311  17.359  0.1552  0.2206  0.1012
96101W        W39039  20.304  30.180  15.964 -0.0385  0.2915  0.1050
96102W        W39040  20.703  33.261  16.702  0.0757  0.5603 -0.1123
96103W        W39041  19.006  27.699  19.295 -0.0390 -0.1139  0.0276
96104W        W39042  20.777  31.086  19.688  0.0029  0.1074 -0.3324
96105W        W39043  20.682  29.455  17.580  0.0745  0.3064  0.0674
96106W        W39044  21.076  28.240  18.989  0.0270  0.0143 -0.3165
96107W        W39045  19.534  30.873  19.502 -0.0503 -0.0018  0.3432
96108W        W39046  19.738  31.361  19.394 -0.1476 -0.0435  0.0384
96109W        W39047  18.424  29.077  19.673  0.0299 -0.0737 -0.1458
96110W        W39048  20.337  32.982  18.686  0.0753 -0.1383  0.1316
96111W        W39049  21.678  30.346  16.348  0.0156 -0.0795  0.0997
96112W        W39050  21.196  28.545  18.211  0.3909 -0.1983  0.0927
96113W        W39051  22.560  30.746  17.612 -0.1279  0.2987 -0.1237
96114W        W39052  20.718  30.070  16.809 -0.2441  0.4191  0.1675
96115W        W39053  18.471  29.962  18.755  0.0493  0.2646  0.1177
96116W        W39054  18.453  31.463  21.062 -0.0498 -0.4479  0.0025
96117W        W39055  20.265  28.419  17.695  0.0139  0.4307 -0.0231
96118W        W39056  20.205  29.111  19.842 -0.1657  0.0494 -0.0034
96119W        W39057  20.707  30.297  16.260  0.0963  0.0772  0.3352
96120W        W39058  22.738  32.057  18.974  0.2355 -0.2716  0.0504
96121W        W39059  21.237  31.412  17.330 -0.1882  0.4657 -0.1252
96122W        W39060  18.275  29.949  19.487 -0.0263 -0.1636  0.3776
96123W        W39061  18.213  32.757  19.902 -0.1078 -0.0581  0.2781
96124W        W39062  20.526  28.753  15.727 -0.4450 -0.5626  0.0551
96125W        W39063  19.319  30.387  16.792 -0.2142 -0.1422 -0.0836
96126W        W39064  21.127  31.889  17.641  0.2953 -0.1819  0.3378
96127W        W39065  20.448  30.295  19.295  0.1534  0.0079  0.2447
96128W        W39066  20.714  28.290  17.216  0.1697 -0.0856  0.0670
96129W        W39067  20.431  29.439  18.630  0.0810  0.1874 -0.3717
96130W        W39068  18.927  31.702  17.404 -0.1598  0.0207 -0.0756
96131W        W39069  18.807  28.311  19.654  0.3086 -0.3151  0.0985
96132W        W39070  18.775  31.921  18.852  0.1306 -0.0970 -0.0303
96133W        W39071  17.611  31.286  16.937  0.1334  0.1475 -0.0492
96134W        W39072  18.103  31.455  17.855  0.0499 -0.0183  0.1391
96135W        W39073  19.389  29.619  19.014  0.0806  0.0983  0.0231
96136W        W39074  20.784  30.789  17.334  0.0928 -0.0963 -0.0649
96137W        W39075  20.673  31.856  17.428  0.0045 -0.0227  0.1065
96138W        W39076  21.682  31.211  19.205  0.2115  0.2987 -0.0835
96139W        W39077  21.460  31.921  18.437  0.1268  0.0165 -0.2152
96140W        W39078  19.026  30.950  16.723 -0.1300  0.0043  0.1611
96141W        W39079  19.126  31.852  19.244 -0.0503 -0.0447 -0.0019
96142W        W39080  21.468  31.323  18.465  0.0828  0.0769 -0.4025
96143W        W39081  19.310  32.030  18.789  0.0081  0.1597 -0.0747
96144W        W39082  17.356  31.539  20.711 -0.2110  0.0666 -0.1342
96145W        W39083  19.962  30.626  19.691 -0.2808  0.0907  0.1540
96146W        W39084  20.173  32.662  18.315  0.1455 -0.3718 -0.0001
96147W        W39085  20.604  28.846  17.447  0.0092 -0.0313 -0.4292
96148W        W39086  19.612  30.871  16.693  0.1015 -0.1145 -0.2655
96149W        W39087  17.808  30.670  20.226  0.2268  0.2248  0.1077
96150W        W39088  18.838  30.111  19.683  0.2993  0.0864  0.0625
96151W        W39089  19.678  31.822  18.094 -0.1606 -0.3709 -0.2490
96152W        W39090  20.450  32.457  18.763  0.2779 -0.4863 -0.2851
96153W        W39091  19.542  31.728  17.070  0.0188  0.2161  0.1842
96154W        W39092  21.326  33.089  17.799 -0.0580  0.1648  0.1807
96155W        W39093  19.626  29.998  16.908  0.0496 -0.1481  0.0647
96156W        W39094  18.981  31.834  16.899 -0.0213  0.0153  0.1651
96157W        W39095  17.825  31.815  16.127 -0.0281 -0.0220 -0.0895
96158W        W39096  21.091  32.287  16.469 -0.0054 -0.0336 -0.1967
96159W        W39097  18.605  30.674  17.916  0.1113  0.1545  0.1611
96160W        W39098  20.278  32.779  19.837 -0.2909  0.0418 -0.2554
96161W        W39099  21.049  30.293  17.111  0.1360 -0.0085 -0.0493
96162W        W39100  22.241  30.852  17.198 -0.0081  0.0201  0.1936
96163W        W39101  21.463  31.012  18.017  0.1166  0.2254  0.1328
96164W        W39102  19.272  33.251  19.107 -0.0974 -0.2125  0.0488
96165W        W39103  19.995  31.625  19.817 -0.0679 -0.0751 -0.0051
96166W        W39104  19.830  29.593  17.060  0.1370  0.0682 -0.1711
96167W        W39105  18.218  31.931  19.549  0.0603  0.0480  0.1022
96168W        W39106  21.921  29.374  19.966 -0.0678  0.0459 -0.2848
96169W        W39107  17.296  32.483  19.669  0.0651  0.3770  0.1048
96170W        W39108  20.538  31.847  16.845 -0.1508  0.1670 -0.2209
96171W        W39109  19.757  29.058  18.059 -0.0204 -0.3091 -0.0912
96172W        W39110  18.620  29.948  16.785  0.2408 -0.0830  0.2436
96173W        W39111  20.400  27.482  18.816  0.1456  0.3510  0.2047
96174W        W39112  19.788  30.474  16.973 -0.0319 -0.1964  0.2026
96175W        W39113  20.214  29.524  17.371 -0.0489 -0.0757 -0.2204
96176W        W39114  19.418  32.066  16.724  0.0237 -0.1267  0.2332
96177W        W39115  18.213  30.310  18.418  0.0083  0.0571  0.2597
96178W        W39116  18.617  31.123  18.454 -0.0903  0.2158 -0.3816
96179W        W39117  19.279  28.930  16.667 -0.1975 -0.1253  0.3930
96180W        W39118  22.084  30.770  16.430  0.1606 -0.1554 -0.0577
96181W        W39119  18.358  31.565  19.929  0.0162  0.1917  0.1981
96182W        W39120  21.404  27.815  18.912 -0.0181 -0.0068 -0.0953
96183W        W39121  19.512  30.261  17.324 -0.0286 -0.3690 -0.0801
96184W        W39122  21.197  29.552  18.190  0.0726  0.1598 -0.2991
96185W        W39123  18.750  31.318  18.913  0.0395 -0.1965  0.0578
96186W        W39124  19.096  28.617  18.720 -0.1833  0.2843 -0.1035
96187W        W39125  20.814  31.141  16.931 -0.0574 -0.1993 -0.1213
96188W        W39126  20.015  31.417  18.347  0.2664  0.6568 -0.2613
96189W        W39127  21.233  30.942  15.954 -0.0067 -0.3702 -0.4977
96190W        W39128  20.050  33.507  18.691  0.3661 -0.1812  0.0161
96191W        W39129  20.626  28.049  18.872 -0.1039  0.1645 -0.1223
96192W        W39130  20.109  30.006  17.016 -0.2164 -0.0271  0.1116
96193W        W39131  19.634  30.579  18.261 -0.0100 -0.4696  0.1213
96194W        W39132  18.266  30.192  17.066 -0.0678  0.5845  0.1103
96195W        W39133  19.677  32.502  20.086 -0.0894 -0.2449  0.1812
96196W        W39134  18.967  29.312  17.998 -0.1554 -0.0346 -0.1129
96197W        W39135  21.859  32.002  17.056  0.0511 -0.2534  0.0508
96198W        W39136  22.179  30.886  19.112  0.1371 -0.0027 -0.1322
96199W        W39137  20.729  32.586  16.396  0.2928 -0.0927 -0.0612
96200W        W39138  22.618  31.442  16.830 -0.0478 -0.1285 -0.0722
96201W        W39139  21.387  32.569  17.926  0.0790  0.2209 -0.0585
96202W        W39140  17.384  30.631  18.268 -0.1357  0.3801 -0.2599
96203W        W39141  21.168  32.718  17.415 -0.2264  0.1483 -0.1634
96204W        W39142  22.706  31.894  16.620 -0.2823  0.1119  0.0811
96205W        W39143  19.946  28.811  17.588 -0.1908 -0.1131  0.3168
96206W        W39144  17.434  28.938  19.940 -0.0567 -0.0044  0.1374
96207W        W39145  17.579  31.179  16.232  0.0304 -0.0670 -0.1816
96208W        W39146  22.560  30.153  18.296 -0.2222 -0.0718 -0.1099
96209W        W39147  20.079  27.983  18.831 -0.0783 -0.2096 -0.0563
96210W        W39148  19.828  30.373  15.984 -0.1223  0.1975  0.4652
96211W        W39149  20.403  29.885  18.397 -0.0874  0.4192  0.1847
96212W        W39150  19.449  32.196  18.298  0.2184  0.0643  0.1171
96213W        W39151  18.467  32.638  19.439 -0.0145  0.1198 -0.4087
96214W        W39152  18.296  30.476  16.674  0.2671 -0.1077  0.0954
96215W        W39153  19.436  32.348  19.491 -0.0407 -0.1349 -0.2106
96216W        W39154  20.922  33.270  18.060 -0.2740 -0.0760 -0.0079
96217W        W39155  20.599  33.213  17.645 -0.1621 -0.0080  0.2500
96218W        W39156  21.838  32.799  17.840 -0.0639  0.0094  0.0237
96219W        W39157  21.610  30.938  17.545 -0.0655  0.1598  0.4729
96220W        W39158  21.665  31.965  16.571 -0.0572  0.2226  0.0407
96221W        W39159  22.032  30.603  17.586  0.0742  0.2569 -0.0827
96222W        W39160  21.797  29.719  17.686  0.0944  0.1776 -0.0130
96223W        W39161  20.861  29.611  16.895  0.0581 -0.0319 -0.1043
96224W        W39162  19.095  31.185  18.540 -0.0455  0.1305 -0.1304
96225W        W39163  18.940  30.263  16.520 -0.1896 -0.2484  0.2003
96226W        W39164  19.839  30.857  16.219  0.1584 -0.0157  0.4068
96227W        W39165  18.612  32.528  15.950 -0.4742  0.2411 -0.0165
96228W        W39166  20.808  30.617  18.528 -0.3249 -0.0303  0.1674
96229W        W39167  19.697  30.951  20.539  0.1873 -0.0530  0.2415
96230W        W39168  18.560  32.342  18.022  0.0391  0.1250  0.1108
96231W        W39169  19.382  29.604  17.293  0.1293 -0.1524  0.0528
96232W        W39170  20.767  32.751  18.437  0.1017  0.0703  0.0207
96233W        W39171  20.456  28.917  18.742 -0.1480  0.2813 -0.0298
96234W        W39172  19.439  28.865  17.591  0.2012  0.3206  0.0183
96235W        W39173  20.134  31.757  16.451 -0.1325  0.1326  0.0378
96236W        W39174  21.076  32.211  17.191  0.3742 -0.1352  0.0612
96237W        W39175  19.964  29.909  16.168  0.0121 -0.0585 -0.2182
96238W        W39176  20.863  32.444  19.174  0.1872  0.0025 -0.0667
96239W        W39177  18.660  30.415  15.571  0.0383  0.1725  0.1824
96240W        W39178  19.865  29.998  18.285  0.2061  0.0254  0.0067
96241W        W39179  18.351  29.643  19.131 -0.2420 -0.1623 -0.0807
96242W        W39180  18.468  29.117  16.379 -0.1069  0.3457  0.0602
96243W        W39181  18.289  29.246  18.783 -0.3192 -0.3994  0.0789
96244W        W39182  20.403  32.810  16.795  0.0544 -0.1005  0.0274
96245W        W39183  20.339  32.590  15.942  0.0450  0.2322 -0.2685
96246W        W39184  20.243  30.938  20.132 -0.3865 -0.2475 -0.0035
96247W        W39185  18.616  32.142  19.282  0.0426 -0.2628 -0.1507
96248W        W39186  17.511  28.739  20.390  0.0664 -0.2796 -0.0071
96249W        W39187  20.953  32.815  16.759  0.0239  0.0650  0.4426
96250W        W39188  20.218  31.601  17.330  0.0402 -0.0225 -0.0541
96251W        W39189  21.752  31.349  17.695 -0.0709 -0.0458 -0.0127
96252W        W39190  21.074  29.366  19.402  0.1801  0.0338 -0.3079
96253W        W39191  19.418  31.026  17.630  0.1447 -0.1155 -0.2040
96254W        W39192  18.624  29.570  19.649  0.0283  0.0386  0.1301
96255W        W39193  18.677  31.645  19.382 -0.2056  0.0851  0.0324
96256W        W39194  21.913  31.283  17.260 -0.1913 -0.1338 -0.1227
96257W        W39195  20.761  28.760  16.989 -0.0308 -0.0660  0.1998
96258W        W39196  21.112  28.082  16.381  0.0205 -0.0229 -0.3135
96259W        W39197  20.188  32.662  17.256  0.0522  0.1570  0.2054
96260W        W39198  18.850  30.724  18.901 -0.1741 -0.1062  0.1456
96261W        W39199  20.048  30.903  16.962 -0.1733 -0.3789 -0.1130
96262W        W39200  20.014  30.190  18.731  0.3059 -0.0879  0.1558
96263W        W39201  19.276  32.043  17.273  0.1369 -0.2390  0.2666
96264W        W39202  19.214  31.496  18.891  0.1794 -0.1417 -0.2002
96265W        W39203  21.691  30.711  15.982  0.1903  0.1844  0.2867
96266W        W39204  21.574  31.526  17.040 -0.1664  0.4443  0.0137
96267W        W39205  19.593  34.604  17.862 -0.1430 -0.0811 -0.0474
96268W        W39206  21.568  33.491  21.074 -0.1902 -0.2022 -0.0783
96269W        W39207  20.097  33.688  17.379 -0.2424 -0.1841 -0.1423
96270W        W39208  21.574  29.793  17.186 -0.0188 -0.0274 -0.1478
96271W        W39209  18.038  27.921  18.732  0.1083  0.0821  0.0849
96272W        W39210  19.477  29.573  18.313  0.0332  0.3490 -0.2979
96273W        W39211  19.958  32.236  18.074 -0.2204 -0.1114  0.0937
96274W        W39212  20.864  30.468  19.082  0.0550 -0.1404 -0.0745
96275W        W39213  20.530  28.601  18.078  0.3969  0.3394  0.1176
96276W        W39214  20.187  29.446  15.735  0.2711  0.4083 -0.0808
96277W        W39215  18.560  32.257  18.505 -0.0923 -0.2655 -0.0548
96278W        W39216  20.287  31.852  18.531  0.3371 -0.2788 -0.3062
96279W        W39217  18.537  32.834  21.363  0.1596 -0.0645  0.1451
96280W        W39218  17.218  30.532  20.984  0.2989  0.0765  0.0974
96281W        W39219  21.248  28.819  19.829 -0.3263 -0.1163  0.2740
96282W        W39220  19.732  30.993  19.992 -0.1211  0.4638  0.3200
96283W        W39221  17.885  32.230  20.946  0.3478  0.0789  0.3115
96284W        W39222  20.058  32.727  21.038  0.0200  0.0503 -0.1660
96285W        W39223  19.418  29.914  23.770 -0.1277  0.1284  0.1289
96286W        W39224  19.609  31.939  22.741  0.0792  0.1940 -0.0938
96287W        W39225  20.634  31.618  22.185  0.1275 -0.0976  0.2203
96288W        W39226  19.431  30.848  21.123  0.1674  0.2244  0.2667
96289W        W39227  19.365  31.140  22.031 -0.1156 -0.0052  0.0285
96290W        W39228  17.967  32.609  25.106  0.0514  0.2112 -0.0057
96291W        W39229  18.850  28.867  19.700  0.0106  0.1095  0.2880
96292W        W39230  18.961  30.123  20.666 -0.0779 -0.0784 -0.1438
96293W        W39231  20.853  31.340  21.850  0.1712  0.1438 -0.0849
96294W        W39232  18.608  30.334  22.061 -0.2475 -0.1146 -0.3719
96295W        W39233  19.108  30.367  22.245 -0.0934  0.4542 -0.2030
96296W        W39234  17.635  30.528  21.336 -0.1140  0.1152  0.1003
96297W        W39235  18.529  33.096  20.348 -0.1555 -0.0725 -0.4841
96298W        W39236  20.141  30.534  23.542  0.0612  0.2263  0.1759
96299W        W39237  19.751  30.326  23.848  0.4144  0.0995  0.0493
96300W        W39238  18.692  32.248  20.648  0.2458  0.0146 -0.0041
96301W        W39239  17.855  30.623  20.845 -0.0698  0.0124  0.2909
96302W        W39240  18.221  29.665  21.958 -0.2013 -0.0360 -0.0380
96303W        W39241  18.991  31.896  22.494 -0.1098 -0.0061  0.2203
96304W        W39242  20.644  29.550  21.058  0.1430 -0.1597 -0.0906
96305W        W39243  21.735  32.477  22.339 -0.1618  0.1051  0.0159
96306W        W39244  20.754  32.329  22.299  0.3941 -0.0692  0.3418
96307W        W39245  19.899  32.036  21.820  0.0235 -0.1962  0.2246
96308W        W39246  20.293  29.893  22.671  0.0925  0.2552 -0.1373
96309W        W39247  18.655  31.002  20.778 -0.1092 -0.0677  0.0157
96310W        W39248  17.600  32.407  21.365 -0.1780  0.1221  0.3848
96311W        W39249  19.105  33.222  20.723  0.1998 -0.1252 -0.0767
96312W        W39250  20.771  31.793  19.868  0.1216  0.0806  0.0289
96313W        W39251  20.642  31.387  22.657  0.0503  0.1433 -0.3924
96314W        W39252  20.345  31.913  23.877  0.2246  0.1764  0.0079
96315W        W39253  18.399  31.363  20.491 -0.0094  0.1859 -0.1182
96316W        W39254  20.200  34.398  24.221 -0.1562  0.2629  0.0834
96317W        W39255  19.528  33.108  23.772  0.0803  0.2947 -0.0392
96318W        W39256  21.086  31.011  22.659  0.1004  0.0450  0.2719
96319W        W39257  20.042  30.151  19.711  0.0702 -0.2229 -0.0763
96320W        W39258  18.692  33.977  19.898 -0.0773  0.0243 -0.1193
96321W        W39259  18.489  31.782  21.454  0.2459 -0.0817 -0.0359
96322W        W39260  16.725  32.532  23.570 -0.3168  0.0572 -0.0289
96323W        W39261  17.523  31.956  21.246 -0.1377  0.0672  0.0141
96324W        W39262  21.065  30.297  23.545  0.2676  0.0115  0.1662
96325W        W39263  19.190  31.956  19.731 -0.2197  0.2383  0.1990
96326W        W39264  20.720  31.209  19.152  0.2083  0.2912  0.2507
96327W        W39265  19.393  28.980  19.440 -0.1118 -0.0816  0.0413
96328W        W39266  20.807  31.374  20.913  0.3147  0.0728 -0.1599
96329W        W39267  18.060  29.525  20.926  0.0038 -0.1028 -0.1125
96330W        W39268  19.198  32.171  21.162 -0.2642  0.0545 -0.1593
96331W        W39269  18.669  30.652  21.555 -0.0508  0.1357  0.2591
96332W        W39270  20.550  30.858  22.702 -0.2260 -0.1146  0.0610
96333W        W39271  20.221  31.979  20.141 -0.0543 -0.0470  0.2044
96334W        W39272  19.507  29.665  22.799 -0.1239 -0.3296  0.0090
96335W        W39273  18.249  32.036  24.037  0.1217  0.2394  0.0750
96336W        W39274  18.946  31.633  22.054 -0.2169 -0.0999  0.3505
96337W        W39275  21.100  33.107  19.227 -0.0854 -0.0398  0.0225
96338W        W39276  20.313  31.838  21.638 -0.1873 -0.2033 -0.3519
96339W        W39277  20.094  32.945  19.299 -0.2157  0.1585  0.1300
96340W        W39278  17.176  31.525  20.210 -0.0979  0.0196 -0.0307
96341W        W39279  18.548  32.115  24.507  0.6676 -0.0116 -0.1391
96342W        W39280  19.184  31.195  22.527  0.3903  0.2409 -0.0859
96343W        W39281  19.544  29.179  20.427 -0.1013  0.0422 -0.1862
96344W        W39282  22.480  31.276  22.287  0.2201 -0.0762 -0.2486
96345W        W39283  18.518  33.440  22.529  0.2592  0.1844 -0.2857
96346W        W39284  20.734  30.392  20.827 -0.2547  0.2606  0.0603
96347W        W39285  19.032  31.163  21.174 -0.1476  0.1931  0.0224
96348W        W39286  19.328  30.439  23.106  0.1865  0.0667 -0.1584
96349W        W39287  19.760  32.041  19.836 -0.0996  0.0983 -0.0495
96350W        W39288  19.650  29.158  22.829 -0.1732 -0.0950  0.0996
96351W        W39289  19.686  28.125  23.291 -0.0507  0.1741 -0.1690
96352W        W39290  19.674  31.889  19.237  0.0400  0.3602 -0.0487
96353W        W39291  19.831  31.081  21.274  0.0744  0.2272  0.0714
96354W        W39292  21.006  32.770  22.976  0.1771 -0.0410 -0.0567
96355W        W39293  20.617  31.800  20.988  0.0366 -0.0358 -0.1055
96356W        W39294  18.777  31.431  22.592  0.0263  0.0119  0.0479
96357W        W39295  19.135  31.029  24.573 -0.1018 -0.0614 -0.3456
96358W        W39296  19.798  31.196  22.386  0.1839  0.0066 -0.4594
96359W        W39297  17.720  33.068  19.866  0.2887  0.1935 -0.1713
96360W        W39298  16.396  32.564  20.042 -0.1420  0.2460  0.3336
96361W        W39299  17.822  31.156  19.463 -0.2791  0.4001 -0.1043
96362W        W39300  18.985  32.203  22.141  0.1132  0.1410  0.1506
96363W        W39301  18.157  32.612  21.114  0.1340  0.1310  0.0699
96364W        W39302  21.437  30.345  22.145 -0.0719 -0.1082  0.3133
96365W        W39303  17.899  31.168  24.164 -0.0077 -0.0008  0.1577
96366W        W39304  21.252  28.881  21.436  0.2445  0.1800  0.0564
96367W        W39305  19.247  31.016  20.652 -0.1661 -0.0697  0.1887
96368W        W39306  20.696  32.999  21.526  0.1667 -0.0596  0.1686
96369W        W39307  19.582  30.252  19.486  0.0802 -0.1076 -0.1737
96370W        W39308  18.952  31.417  20.750 -0.0419 -0.4160  0.0726
96371W        W39309  17.735  31.774  22.725  0.0876 -0.2539  0.1059
96372W        W39310  18.620  30.161  21.610 -0.2449  0.0312 -0.1024
96373W        W39311  19.225  30.460  23.884  0.0851  0.0736 -0.0142
96374W        W39312  19.230  30.141  22.710 -0.3419  0.0290  0.2641
96375W        W39313  21.086  30.968  23.145 -0.0531  0.0101  0.1319
96376W        W39314  18.368  30.422  19.647 -0.1632  0.0639 -0.1751
96377W        W39315  20.660  30.596  21.353 -0.3701 -0.1636  0.2644
96378W        W39316  18.879  29.747  20.954 -0.1608  0.0580  0.3148
96379W        W39317  18.171  31.015  20.213  0.1770  0.1070  0.0923
96380W        W39318  22.468  29.315  24.188 -0.0984  0.1357 -0.0693
96381W        W39319  19.465  32.097  22.093 -0.1528  0.0937 -0.1641
96382W        W39320  20.811  32.593  21.284  0.2775  0.1496 -0.2655
96383W        W39321  20.879  33.033  21.036  0.2917 -0.2037  0.1535
96384W        W39322  19.755  30.802  24.069  0.0338 -0.1172  0.1097
96385W        W39323  17.161  30.075  22.006  0.3601 -0.4354  0.3650
96386W        W39324  19.147  32.906  21.660  0.1059 -0.1773 -0.0219
96387W        W39325  19.284  32.600  22.089 -0.0196 -0.2444 -0.0544
96388W        W39326  19.087  30.997  19.699 -0.1859 -0.3939  0.1054
96389W        W39327  21.012  33.877  23.790 -0.0865 -0.1099  0.0720
96390W        W39328  20.357  31.144  22.312  0.2091 -0.2586 -0.2827
96391W        W39329  18.406  32.278  21.562 -0.1227  0.2703  0.1590
96392W        W39330  21.625  29.181  23.634 -0.1209  0.1742 -0.1426
96393W        W39331  22.242  32.450  21.243 -0.0177 -0.2134 -0.1982
96394W        W39332  21.161  30.030  22.408  0.1526 -0.1334 -0.2097
96395W        W39333  18.134  29.200  20.191 -0.0611 -0.3004  0.0046
96396W        W39334  20.168  31.880  21.100 -0.3032 -0.3583 -0.3130
96397W        W39335  19.095  33.150  20.141  0.0679  0.0519 -0.2465
96398W        W39336  17.108  31.970  20.524  0.1644  0.0065  0.3945
96399W        W39337  19.870  32.121  22.353 -0.1546  0.0466  0.1738
96400W        W39338  20.368  29.804  22.000 -0.1722 -0.2842 -0.1069
96401W        W39339  19.396  30.898  25.220 -0.2782 -0.0131 -0.1270
96402W        W39340  20.327  30.390  22.837 -0.0982  0.4381  0.1002
96403W        W39341  17.730  30.737  21.768  0.0133 -0.1929  0.3166
96404W        W39342  18.381  32.830  24.593 -0.1865  0.4272 -0.0464
96405W        W39343  20.497  29.284  21.592 -0.3075  0.2095 -0.2517
96406W        W39344  21.493  28.203  19.234 -0.0615  0.0079 -0.1938
96407W        W39345  20.150  30.002  24.295 -0.1450  0.0344 -0.0120
96408W        W39346  20.405  30.650  20.539  0.0293 -0.0452 -0.2305
96409W        W39347  20.030  30.702  18.577 -0.2588  0.1290  0.0697
96410W        W39348  19.241  30.493  19.164  0.2566 -0.0183 -0.1210
96411W        W39349  17.944  33.133  22.661 -0.4128  0.0193  0.0954
96412W        W39350  17.611  32.059  19.596 -0.1375  0.0226  0.1036
96413W        W39351  19.669  32.394  22.881  0.2479 -0.2519 -0.0168
96414W        W39352  19.630  31.088  18.615  0.2127 -0.1225 -0.2552
96415W        W39353  21.964  32.076  20.403  0.0477  0.3367 -0.0603
96416W        W39354  17.694  33.594  20.767 -0.0497 -0.1323  0.3720
96417W        W39355  21.726  32.309  23.200 -0.1186 -0.1339 -0.3368
96418W        W39356  20.081  31.411  20.303 -0.2408 -0.1895 -0.1631
96419W        W39357  19.386  29.884  22.274 -0.3545  0.3106 -0.1277
96420W        W39358  19.445  30.431  20.750 -0.0205 -0.2966 -0.3306
96421W        W39359  19.756  29.640  20.630  0.0111 -0.2106 -0.0447
96422W        W39360  19.278  33.236  19.645 -0.0567  0.2028 -0.1729
96423W        W39361  20.073  29.529  23.024 -0.1826 -0.1704  0.0564
96424W        W39362  20.014  30.041  23.102  0.2464 -0.0734  0.0400
96425W        W39363  21.642  29.701  22.827 -0.2898 -0.1295  0.0380
96426W        W39364  20.739  30.889  23.563 -0.2155  0.1664  0.1421
96427W        W39365  19.133  29.929  19.308 -0.0892 -0.1592  0.1130
96428W        W39366  20.671  30.093  22.312 -0.0084 -0.1408 -0.2233
96429W        W39367  18.980  31.438  19.880 -0.1489 -0.0097  0.1059
96430W        W39368  19.536  30.754  23.561 -0.5329  0.0823  0.0649
96431W        W39369  18.059  32.789  21.586  0.1436  0.1130  0.0428
96432W        W39370  18.465  32.258  23.078 -0.1011 -0.0015 -0.1236
96433W        W39371  20.957  31.188  24.000  0.1653 -0.0993  0.0449
96434W        W39372  20.682  31.543  21.427  0.0777  0.0400 -0.1631
96435W        W39373  21.212  29.594  23.791  0.0925 -0.0850  0.2034
96436W        W39374  19.012  29.398  19.353 -0.2271 -0.1281  0.1088
96437W        W39375  19.243  32.738  21.030 -0.0037  0.1378  0.2646
96438W        W39376  18.506  30.977  19.845  0.1923 -0.1962  0.0206
96439W        W39377  18.452  31.133  21.384  0.1987  0.2163  0.0080
96440W        W39378  19.447  31.652  22.370 -0.0414 -0.0179  0.0010
96441W        W39379  18.418  33.892  20.495 -0.1431 -0.0822  0.0306
96442W        W39380  19.774  30.288  22.696  0.2542  0.1678  0.2083
96443W        W39381  18.869  33.203  21.197 -0.0506  0.3311 -0.2280
96444W        W39382  21.378  29.563  22.380  0.2432 -0.0924  0.0126
96445W        W39383  17.834  33.293  21.323 -0.1859 -0.2676 -0.0875
96446W        W39384  18.917  30.623  20.513  0.1060  0.0698 -0.3355
96447W        W39385  17.781  30.790  22.741 -0.0236 -0.1232  0.1570
96448W        W39386  20.315  27.491  21.988  0.1415 -0.2539 -0.1263
96449W        W39387  19.234  32.679  19.919  0.1328 -0.0010  0.3157
96450W        W39388  17.363  31.304  23.320 -0.3500 -0.1833  0.1995
96451W        W39389  17.921  30.146  21.011 -0.0469  0.3754 -0.1221
96452W        W39390  18.033  33.527  22.329 -0.1940 -0.0960 -0.2811
96453W        W39391  21.837  30.889  22.169  0.0403 -0.3247 -0.0519
96454W        W39392  21.327  30.784  20.283  0.1450 -0.1636 -0.1118
96455W        W39393  20.160  32.526  23.188 -0.0951  0.2022  0.0546
96456W        W39394  19.936  31.469  24.610  0.1555 -0.2025 -0.0381
96457W        W39395  17.976  31.384  20.949 -0.2933  0.0279  0.3175
96458W        W39396  20.680  29.565  22.577 -0.1070  0.1036 -0.1621
96459W        W39397  19.930  30.926  19.221 -0.0847  0.1582  0.4716
96460W        W39398  17.974  31.567  21.407 -0.0627 -0.1502  0.0592
96461W        W39399  19.636  32.142  23.747 -0.1757  0.4106  0.0588
96462W        W39400  17.615  31.381  18.991  0.3499  0.2090  0.2611
96463W        W39401  17.414  32.781  20.114 -0.2341  0.1043  0.0170
96464W        W39402  20.377  30.789  23.133 -0.0416  0.1805 -0.1758
96465W        W39403  19.776  31.190  21.831  0.2718 -0.1844  0.3007
96466W        W39404  19.620  29.050  21.029 -0.1274 -0.2776 -0.0287
96467W        W39405  17.013  31.315  21.837  0.1646  0.2285  0.2565
96468W        W39406  18.762  29.831  22.024  0.1058 -0.0308  0.0144
96469W        W39407  21.953  32.742  21.687  0.1424 -0.0138 -0.0555
96470W        W39408  19.577  30.468  22.070  0.0716  0.2722 -0.0178
96471W        W39409  18.539  31.936  23.634  0.1146  0.0136  0.2969
96472W        W39410  19.201  29.179  22.708 -0.0457 -0.1886 -0.0824
96473W        W39411  21.517  32.939  20.258  0.0259  0.0402 -0.1143
96474W        W39412  20.377  29.502  24.024  0.1450  0.0906 -0.3013
96475W        W39413  18.255  31.282  19.412 -0.1840 -0.0130 -0.3948
96476W        W39414  16.386  32.489  21.101  0.0947 -0.2639 -0.0103
96477W        W39415  18.768  32.491  21.061 -0.1203 -0.0377 -0.3349
96478W        W39416  19.627  30.184  23.409 -0.4089 -0.1267  0.0413
96479W        W39417  18.303  32.344  20.293 -0.2279  0.0409 -0.0182
96480W        W39418  16.778  32.412  18.975  0.1784 -0.2190  0.1924
96481W        W39419  18.221  32.993  23.042 -0.0112 -0.1687 -0.2393
96482W        W39420  21.943  28.763  20.513 -0.1926  0.0145  0.0807
96483W        W39421  17.755  32.529  20.311  0.0678 -0.0440  0.1177
96484W        W39422  19.166  30.068  21.837  0.0304  0.1165  0.1998
96485W        W39423  22.004  30.429  21.826 -0.0617 -0.1261  0.2306
96486W        W39424  19.841  30.521  20.449  0.1425 -0.4382  0.0516
96487W        W39425  20.232  29.681  24.635  0.0851  0.0683  0.0139
96488W        W39426  19.612  30.364  24.308 -0.4089 -0.0850  0.1044
96489W        W39427  19.180  31.975  21.745 -0.0291  0.3056  0.2446
96490W        W39428  16.940  31.917  23.253 -0.5218  0.0437  0.1176
96491W        W39429  20.982  32.842  23.723 -0.2757  0.1862  0.1971
96492W        W39430  19.208  31.734  25.016  0.1923 -0.0315 -0.3438
96493W        W39431  19.370  29.854  20.893  0.0789 -0.2357 -0.1652
96494W        W39432  19.003  29.663  19.952  0.0738 -0.0665  0.1695
96495W        W39433  19.367  31.167  21.548 -0.1079  0.1088 -0.3236
96496W        W39434  20.715  30.794  20.081  0.1889 -0.4161  0.0178
96497W        W39435  19.799  31.367  20.870  0.1966  0.0050 -0.0531
96498W        W39436  20.757  30.378  20.335  0.1142  0.1246 -0.0711
96499W        W39437  18.928  32.296  22.872 -0.2180 -0.0413 -0.4168
96500W        W39438  20.981  30.570  22.092 -0.3777  0.0602  0.1615
96501W        W39439  19.242  30.984  19.087 -0.0438  0.1478 -0.1265
96502W        W39440  17.141  31.878  21.006  0.1377  0.1678 -0.2352
96503W        W39441  19.014  30.692  23.413 -0.3642 -0.2963  0.0976
96504W        W39442  20.102  31.179  22.813 -0.1940 -0.1301 -0.0940
96505W        W39443  20.860  29.134  20.719 -0.3023  0.0191 -0.3451
96506W        W39444  19.769  30.022  21.875  0.1536 -0.1975 -0.0045
96507W        W39445  19.831  29.179  23.340  0.1596 -0.1490 -0.1239
96508W        W39446  19.253  31.806  24.174 -0.0437  0.1251  0.1340
96509W        W39447  19.008  31.542  24.569  0.1388 -0.1823  0.1685
96510W        W39448  23.301  32.534  22.162  0.1826  0.0438  0.0203
96511W        W39449  21.319  29.134  20.939  0.2894 -0.0655  0.2409
96512W        W39450  20.304  30.383  21.036 -0.0443  0.1665  0.1816
96513W        W39451  20.219  31.383  21.144 -0.1450  0.0203  0.0987
96514W        W39452  20.453  30.764  18.993  0.1424 -0.2936  0.0700
96515W        W39453  17.832  31.234  23.145  0.0579 -0.2849  0.0210
96516W        W39454  19.837  30.601  23.102  0.0353 -0.2822  0.0195
96517W        W39455  17.573  30.282  20.031  0.1342 -0.1038 -0.1546
96518W        W39456  19.896  29.666  23.997 -0.2177 -0.1014  0.1307
96519W        W39457  20.729  32.705  20.243  0.2523 -0.1335 -0.1161
96520W        W39458  18.842  30.601  21.064 -0.3299 -0.0737  0.2091
96521W        W39459  21.313  29.889  21.370  0.1110 -0.0414  0.2656
96522W        W39460  17.733  30.284  23.191  0.2176  0.1734 -0.1128
96523W        W39461  19.738  33.655  24.058 -0.0685 -0.3155  0.3711
96524W        W39462  20.151  31.219  18.827 -0.3216  0.0065  0.0437
96525W        W39463  18.850  31.837  21.001 -0.2755 -0.1247 -0.1081
96526W        W39464  21.133  31.692  21.664  0.1627 -0.0205  0.1466
96527W        W39465  20.472  31.348  23.877 -0.0670 -0.0303 -0.0778
96528W        W39466  20.214  29.673  20.476 -0.1134 -0.2698 -0.1766
96529W        W39467  21.292  28.698  23.634  0.1168 -0.0834  0.2062
96530W        W39468  17.408  32.274  20.896  0.0084 -0.2495  0.1114
96531W        W39469  19.557  30.059  20.475 -0.1210  0.4144 -0.1197
96532W        W39470  18.557  32.716  23.180  0.1668 -0.3186 -0.0170
96533W        W39471  18.251  31.164  22.579 -0.2614 -0.3180  0.0100
96534W        W39472  19.567  31.980  21.409  0.0302  0.0842 -0.2572
96535W        W39473  19.258  29.351  20.778 -0.3346 -0.1620 -0.0774
96536W        W39474  20.147  30.706  21.360 -0.2445 -0.1758 -0.1766
96537W        W39475  19.924  30.155  21.412 -0.3072  0.0253 -0.0136
96538W        W39476  22.408  30.423  21.360  0.0859 -0.2371 -0.2506
96539W        W39477  19.058  32.004  23.754  0.0204  0.0860 -0.0201
96540W        W39478  18.987  30.164  23.561  0.0132  0.2934  0.3179
96541W        W39479  20.350  31.645  23.027  0.0226  0.2574 -0.2087
96542W        W39480  21.594  30.961  21.073  0.1252  0.2354 -0.0573
96543W        W39481  17.968  32.993  20.327  0.0832  0.0774  0.0149
96544W        W39482  16.961  30.776  23.135 -0.0617  0.2345  0.0077
96545W        W39483  20.255  31.018  25.302 -0.1177  0.4207 -0.1969
96546W        W39484  20.546  30.304  21.824 -0.1233  0.0873  0.1132
96547W        W39485  19.625  30.308  20.020 -0.0680 -0.0509  0.1379
96548W        W39486  17.939  32.138  19.974  0.1415 -0.0334 -0.0903
96549W        W39487  18.786  32.873  23.681 -0.0878  0.1977 -0.2353
96550W        W39488  17.557  32.969  21.640  0.0911 -0.1577 -0.0894
96551W        W39489  17.766  33.590  20.106  0.3872  0.1934  0.0025
96552W        W39490  19.714  30.702  21.611 -0.0952  0.2048  0.1266
96553W        W39491  20.178  31.017  20.822 -0.0499  0.0896 -0.1101
96554W        W39492  18.963  32.434  21.709 -0.4585  0.2362 -0.3188
96555W        W39493  19.433  29.921  19.763 -0.0446 -0.0871 -0.1296
96556W        W39494  19.581  31.803  23.288  0.1001  0.0965 -0.1778
96557W        W39495  16.888  32.384  20.040 -0.0370 -0.5446 -0.2346
96558W        W39496  19.833  30.597  20.948 -0.3161 -0.3120 -0.3877
96559W        W39497  20.299  33.328  21.673 -0.1618 -0.0697 -0.0036
96560W        W39498  21.291  31.106  22.077  0.0235 -0.1078  0.0372
96561W        W39499  20.442  29.130  20.420 -0.1930  0.1555  0.2148
96562W        W39500  22.471  30.035  21.037  0.0097 -0.0716  0.4258
96563W        W39501  21.124  29.600  20.934  0.0556 -0.2200 -0.0670
96564W        W39502  20.406  30.881  24.177 -0.0033 -0.2543  0.2334
96565W        W39503  20.179  29.506  23.508 -0.0199 -0.2843  0.2676
96566W        W39504  19.511  30.093  18.979 -0.1058 -0.1040  0.1344
96567W        W39505  17.803  30.183  24.394 -0.1080 -0.3260  0.2060
96568W        W39506  20.836  30.486  23.088  0.3825  0.1276  0.1111
96569W        W39507  18.210  33.516  23.689 -0.3105  0.0432  0.0554
96570W        W39508  21.727  31.446  22.074  0.1010 -0.1646  0.0980
96571W        W39509  18.492  29.633  20.619 -0.0887 -0.1950 -0.1197
96572W        W39510  19.738  29.597  21.159  0.0021 -0.2463 -0.2634
96573W        W39511  20.971  29.200  22.469  0.2175  0.1230  0.2159
96574W        W39512  19.823  32.150  20.367  0.2443 -0.0063 -0.1220
96575W        W39513  20.037  30.712  22.647  0.0388 -0.0322  0.0748
96576W        W39514  17.575  32.055  21.732 -0.0620 -0.0492 -0.0905
96577W        W39515  20.113  31.518  23.533 -0.1311  0.1465 -0.0291
96578W        W39516  19.682  32.614  23.392 -0.2904 -0.2550  0.3730
96579W        W39517  17.183  30.468  21.624 -0.1676  0.2784 -0.0593
96580W        W39518  22.272  28.789  19.523 -0.0588 -0.1274 -0.1172
96581W        W39519  18.674  30.871  22.560 -0.2857 -0.1174  0.0445
96582W        W39520  21.983  28.743  24.385 -0.0651 -0.0342  0.2221
96583W        W39521  18.863  31.117  21.725  0.2370  0.0166 -0.1736
96584W        W39522  21.142  29.977  20.569  0.1600  0.0111 -0.1840
96585W        W39523  20.707  31.971  23.150  0.1090  0.0478 -0.0807
96586W        W39524  18.987  31.093  23.102  0.2282 -0.0986 -0.1452
96587W        W39525  20.241  30.452  20.102 -0.3154 -0.0809 -0.1248
96588W        W39526  21.150  29.168  23.443 -0.4812 -0.4644 -0.0297
96589W        W39527  19.361  31.246  20.203  0.0859  0.0714 -0.2451
96590W        W39528  20.824  33.441  22.994 -0.0738 -0.0755 -0.0039
96591W        W39529  18.963  29.695  22.555 -0.0030 -0.3232 -0.0354
96592W        W39530  19.856  29.724  18.751  0.0708 -0.2041  0.1475
96593W        W39531  17.453  29.503  19.907  0.1788  0.1776  0.1080
96594W        W39532  19.489  31.640  21.837 -0.0668  0.0910  0.0023
96595W        W39533  21.644  32.140  22.720  0.0816  0.0475 -0.1539
96596W        W39534  18.386  29.921  21.216  0.2999 -0.2057  0.2653
96597W        W39535  21.347  31.975  19.493  0.2182  0.1043  0.1264
96598W        W39536  20.096  30.022  23.679  0.2116  0.0131  0.0264
96599W        W39537  19.929  33.597  20.500 -0.3142 -0.1029 -0.1484
96600W        W39538  20.696  30.875  20.957  0.2710 -0.0221 -0.0649
96601W        W39539  20.130  33.093  22.581  0.1188  0.3579 -0.0867
96602W        W39540  18.523  30.979  23.467  0.0445 -0.0023 -0.3336
96603W        W39541  19.249  31.814  20.689 -0.1247  0.1995 -0.0586
96604W        W39542  20.607  31.056  21.413 -0.0980 -0.1273  0.3367
96605W        W39543  19.330  30.708  20.192 -0.0602  0.1332  0.0739
96606W        W39544  18.793  31.442  23.529 -0.2033 -0.1710 -0.2699
96607W        W39545  18.702  33.016  21.805  0.1811  0.3791 -0.1269
96608W        W39546  21.786  29.935  22.335 -0.1554  0.3422 -0.0278
96609W        W39547  20.783  30.073  22.841  0.0849 -0.1034  0.0451
96610W        W39548  20.223  32.466  20.243 -0.0987  0.0330  0.0647
96611W        W39549  20.729  29.437  24.579  0.0109  0.2035  0.3274
96612W        W39550  19.447  31.287  23.328  0.0631  0.2240  0.1076
96613W        W39551  19.985  31.643  22.062  0.1688  0.0310  0.4382
96614W        W39552  18.374  30.847  19.225 -0.2387  0.0226  0.0014
96615W        W39553  19.285  30.952  24.064  0.0103  0.0414 -0.2460
96616W        W39554  18.904  32.721  20.503  0.2545  0.5547  0.0687
96617W        W39555  19.345  32.077  20.218  0.1643 -0.0384  0.2990
96618W        W39556  19.669  32.661  22.445 -0.1731 -0.0942  0.0150
96619W        W39557  19.556  30.734  22.531 -0.0860  0.1067 -0.0769
96620W        W39558  22.714  32.250  21.496  0.0634 -0.1443 -0.1733
96621W        W39559  17.091  30.859  22.012 -0.1355  0.1346 -0.0124
96622W        W39560  21.154  30.372  21.465 -0.1155  0.0509  0.3046
96623W        W39561  20.204  28.763  20.229  0.0887 -0.1352 -0.1630
96624W        W39562  20.158  30.211  22.291  0.2450  0.1159  0.0169
96625W        W39563  18.048  30.201  22.011 -0.0064  0.3832  0.0626
96626W        W39564  20.548  32.656  20.707  0.0236 -0.0365 -0.0664
96627W        W39565  18.292  30.187  22.873 -0.0628  0.1405 -0.1493
96628W        W39566  19.515  29.873  21.503  0.1528  0.3142  0.0575
96629W        W39567  18.187  30.595  22.472 -0.4882  0.2933 -0.0232
96630W        W39568  18.530  31.410  21.872 -0.1178 -0.1399 -0.1386
96631W        W39569  16.218  30.698  22.175  0.2561  0.0450  0.1245
96632W        W39570  19.408  32.820  20.517 -0.0912  0.1026  0.2429
96633W        W39571  19.799  30.100  20.953 -0.3028 -0.0346  0.0489
96634W        W39572  18.123  29.412  21.489  0.0497 -0.0755 -0.2655
96635W        W39573  21.474  31.785  21.290  0.0957  0.1290 -0.2606
96636W        W39574  21.180  32.953  21.519  0.0106  0.1294  0.2130
96637W        W39575  18.089  30.251  21.527  0.0554  0.4979 -0.1285
96638W        W39576  22.206  32.013  22.486 -0.0331 -0.0985  0.0103
96639W        W39577  17.054  31.077  20.462 -0.2046  0.0669 -0.1510
96640W        W39578  20.700  29.328  23.564  0.2023  0.3461  0.0634
96641W        W39579  20.818  31.015  22.208  0.0715 -0.0536 -0.0293
96642W        W39580  16.969  30.055  20.903  0.1421  0.1128 -0.0256
96643W        W39581  20.028  31.651  22.627 -0.0764  0.1455 -0.1059
96644W        W39582  19.440  30.393  21.283 -0.0194 -0.4846 -0.2944
96645W        W39583  22.211  32.438  20.717  0.1802  0.0448  0.0983
96646W        W39584  20.752  31.933  22.635  0.0448  0.0366  0.1752
96647W        W39585  19.152  31.621  22.970  0.0373  0.0715 -0.1301
96648W        W39586  20.123  30.945  24.565  0.0842 -0.2507 -0.0178
96649W        W39587  20.484  29.992  20.164  0.0842  0.4742 -0.0324
96650W        W39588  18.761  30.964  23.975  0.2413 -0.2193  0.2951
96651W        W39589  21.740  32.705  20.664  0.0054  0.3036 -0.1239
96652W        W39590  20.177  28.603  22.848 -0.2878 -0.2519  0.3276
96653W        W39591  20.789  29.562  20.343 -0.3836  0.0576  0.1696
96654W        W39592  18.274  30.876  23.934  0.1517 -0.0760 -0.0136
96655W        W39593  17.993  32.132  23.638 -0.1823  0.2221 -0.1946
96656W        W39594  21.557  31.192  22.470 -0.0917 -0.0318 -0.1605
96657W        W39595  17.687  29.707  22.057 -0.2223  0.0664 -0.0223
96658W        W39596  20.661  29.904  20.660 -0.1945  0.3055  0.0769
96659W        W39597  20.069  30.436  21.856  0.0503  0.3475 -0.0636
96660W        W39598  18.584  31.977  21.951 -0.1177  0.1932 -0.0551
96661W        W39599  18.784  30.619  19.403  0.0396  0.3489  0.3114
96662W        W39600  19.449  30.951  22.980  0.1251  0.1667  0.3452
96663W        W39601  20.339  30.851  21.814 -0.0860  0.1456  0.0416
96664W        W39602  20.974  30.511  22.576 -0.1540 -0.0753  0.0752
96665W        W39603  17.396  32.278  20.099 -0.0951  0.3323  0.2479
96666W        W39604  21.458  32.467  20.321 -0.2480  0.0635 -0.0538
96667W        W39605  21.121  33.377  24.005  0.1364 -0.0892  0.4983
96668W        W39606  20.531  32.361  22.760 -0.3319 -0.0332  0.0662
96669W        W39607  20.139  32.084  23.385 -0.0388  0.0652  0.0179
96670W        W39608  21.512  30.145  21.728  0.0648  0.2339 -0.0988
96671W        W39609  18.366  29.133  21.840 -0.2335 -0.2622 -0.0066
96672W        W39610  20.161  30.154  20.591  0.1524  0.1497 -0.2212
96673W        W39611  18.881  31.664  20.306 -0.2740 -0.2621 -0.0020
96674W        W39612  21.090  29.167  21.899  0.0961  0.1484  0.0453
96675W        W39613  19.061  30.608  22.696 -0.0691  0.1530  0.3096
96676W        W39614  20.411  29.504  20.032  0.0731 -0.2863 -0.1517
96677W        W39615  18.596  32.160  22.479 -0.1489  0.0783 -0.0518
96678W        W39616  20.337  31.333  21.798 -0.3243  0.4715 -0.0759
96679W        W39617  18.800  32.063  27.881  0.0456  0.0951  0.4418
96680W        W39618  19.325  31.157  26.977 -0.1304  0.1867 -0.4176
96681W        W39619  20.450  28.663  24.186  0.0160  0.0576 -0.2272
96682W        W39620  21.648  32.846  24.621  0.1948  0.3025 -0.0549
96683W        W39621  18.490  29.963  25.947  0.0560  0.0602  0.2569
96684W        W39622  21.084  33.202  24.969  0.1223  0.0673  0.1934
96685W        W39623  19.314  29.068  26.300  0.1812  0.2679  0.0086
96686W        W39624  22.145  32.828  25.539 -0.0766 -0.1274 -0.0875
96687W        W39625  21.108  34.170  26.693 -0.3187  0.0433 -0.3342
96688W        W39626  20.912  29.860  23.334 -0.1163 -0.0058 -0.0998
96689W        W39627  19.393  30.596  26.281 -0.1204  0.0864  0.3416
96690W        W39628  20.928  31.776  28.580  0.1092 -0.1695  0.3758
96691W        W39629  20.795  30.368  25.829  0.0335  0.1495  0.0116
96692W        W39630  18.052  28.725  26.262  0.0895 -0.1693  0.1014
96693W        W39631  21.703  30.430  25.936  0.1796 -0.1675  0.0842
96694W        W39632  17.735  30.733  25.219  0.0601 -0.0196 -0.0344
96695W        W39633  20.098  30.459  26.822 -0.0838  0.1342  0.1686
96696W        W39634  19.833  31.013  24.976 -0.0476 -0.2080 -0.0716
96697W        W39635  19.457  33.020  24.680 -0.0829  0.2866  0.1682
96698W        W39636  20.307  30.546  26.035  0.1631  0.3334 -0.0579
96699W        W39637  20.375  29.703  26.189  0.0105 -0.2365  0.0024
96700W        W39638  19.830  31.464  25.894  0.1168 -0.0697  0.2861
96701W        W39639  18.651  31.267  24.349  0.3406 -0.1896  0.0580
96702W        W39640  17.853  30.551  26.224 -0.1994  0.1551 -0.2894
96703W        W39641  18.618  30.447  25.944  0.2816  0.1619  0.0889
96704W        W39642  21.092  31.709  26.138 -0.0191  0.1453 -0.1527
96705W        W39643  22.053  29.793  26.348  0.0740 -0.0484  0.2669
96706W        W39644  18.878  31.586  27.444  0.0213  0.1218  0.1900
96707W        W39645  20.589  32.498  25.453 -0.0455  0.1206 -0.4285
96708W        W39646  21.108  30.054  27.421 -0.2936 -0.1879  0.1867
96709W        W39647  18.209  31.957  26.282 -0.0611 -0.2716  0.0417
96710W        W39648  18.482  33.755  24.069 -0.0541 -0.1301  0.1931
96711W        W39649  20.715  33.176  24.583  0.2113  0.1456  0.0801
96712W        W39650  21.129  31.943  23.952  0.0215  0.0032  0.0620
96713W        W39651  21.038  32.599  27.794  0.2749 -0.1907 -0.2136
96714W        W39652  19.232  30.947  27.845 -0.1991 -0.0044 -0.0722
96715W        W39653  19.086  32.280  24.157 -0.1246  0.2274  0.1033
96716W        W39654  20.784  34.072  26.289 -0.1281 -0.1040  0.2958
96717W        W39655  19.683  32.539  27.472  0.1607  0.1204 -0.1137
96718W        W39656  19.767  30.340  28.446  0.1159  0.0993  0.0613
96719W        W39657  20.550  30.957  24.841 -0.2416  0.0874  0.1132
96720W        W39658  18.645  31.838  22.856 -0.2422 -0.2305 -0.2380
96721W        W39659  18.994  31.434  26.695 -0.1130  0.0307 -0.1419
96722W        W39660  19.465  29.784  27.842 -0.0691  0.1329 -0.2106
96723W        W39661  20.042  31.645  25.448 -0.0096  0.1274  0.1111
96724W        W39662  22.178  29.724  29.110 -0.4131  0.1165  0.0632
96725W        W39663  20.093  33.998  25.540 -0.1711  0.2852 -0.1526
96726W        W39664  21.115  31.390  24.465  0.1948 -0.0570  0.0630
96727W        W39665  20.028  28.484  24.447 -0.0985  0.3151  0.0676
96728W        W39666  20.913  30.914  24.420  0.2015 -0.1688 -0.0648
96729W        W39667  19.339  29.439  25.210 -0.0940  0.0581 -0.2466
96730W        W39668  19.053  32.842  27.005  0.1960 -0.1381  0.0357
96731W        W39669  21.281  30.521  26.198  0.2177 -0.2663 -0.0145
96732W        W39670  20.336  33.448  27.005 -0.2198 -0.2935 -0.0363
96733W        W39671  19.080  30.541  24.358 -0.3658  0.1047  0.1281
96734W        W39672  20.696  29.352  26.976 -0.1174 -0.2525  0.0311
96735W        W39673  20.017  30.798  26.399  0.2215  0.1381  0.2988
96736W        W39674  19.175  31.011  26.405  0.0918 -0.0637  0.1456
96737W        W39675  22.343  30.768  22.060  0.0779  0.0496 -0.2130
96738W        W39676  21.819  33.338  25.398 -0.0553 -0.0086 -0.2478
96739W        W39677  20.227  32.456  24.747 -0.2508 -0.0892  0.0655
96740W        W39678  19.406  30.524  25.651 -0.1533  0.0021 -0.1916
96741W        W39679  17.465  33.298  28.154  0.0113 -0.2696 -0.1260
96742W        W39680  19.361  30.715  27.298 -0.0285  0.2140 -0.0130
96743W        W39681  18.995  29.689  23.606  0.2064  0.1521  0.0844
96744W        W39682  21.999  31.430  27.603 -0.2378  0.2041 -0.2659
96745W        W39683  18.158  30.596  26.768  0.0884 -0.2140 -0.1009
96746W        W39684  21.116  31.111  25.799  0.0660  0.1963 -0.0995
96747W        W39685  20.299  31.497  27.024 -0.1588 -0.1197  0.0333
96748W        W39686  21.720  32.482  25.861 -0.3106  0.0804 -0.0011
96749W        W39687  20.426  30.157  23.286 -0.3420 -0.3838  0.0651
96750W        W39688  21.344  30.228  25.330  0.2124 -0.3685 -0.0454
96751W        W39689  20.587  29.610  25.632  0.0593 -0.0066 -0.0212
96752W        W39690  18.145  31.539  23.949 -0.0061 -0.5063 -0.1546
96753W        W39691  19.456  32.161  25.847  0.0248 -0.2511  0.3680
96754W        W39692  21.542  33.859  27.623 -0.0474 -0.4867  0.2948
96755W        W39693  21.133  29.984  24.097  0.3502 -0.2681  0.1960
96756W        W39694  19.158  31.925  25.460 -0.1472  0.0402 -0.0350
96757W        W39695  21.213  29.850  26.506 -0.2408 -0.0797 -0.0229
96758W        W39696  20.969  33.288  27.480 -0.1402 -0.1259 -0.2071
96759W        W39697  19.991  32.919  23.605  0.0255 -0.0072  0.0448
96760W        W39698  18.922  31.247  24.969 -0.3641  0.0942 -0.1591
96761W        W39699  18.209  32.062  25.298 -0.0357 -0.1624  0.2210
96762W        W39700  17.462  30.011  27.001  0.2892  0.2846 -0.1431
96763W        W39701  20.908  31.742  26.633  0.2260  0.3391 -0.1540
96764W        W39702  21.375  31.483  24.004 -0.2016 -0.2190 -0.2674
96765W        W39703  19.316  29.433  27.157  0.0146 -0.0668  0.1863
96766W        W39704  21.868  29.486  25.374 -0.3456 -0.0982 -0.0809
96767W        W39705  19.746  32.693  24.991  0.0805 -0.1186 -0.1273
96768W        W39706  22.070  33.172  25.843 -0.2756 -0.3669 -0.0425
96769W        W39707  21.155  29.840  24.575  0.0833 -0.0423 -0.0363
96770W        W39708  19.477  31.370  24.398  0.2083  0.2103 -0.1931
96771W        W39709  18.605  29.667  26.357 -0.0772  0.0020  0.1521
96772W        W39710  19.119  30.062  25.477  0.1105 -0.0390 -0.0056
96773W        W39711  20.179  29.562  26.640  0.0364 -0.2315 -0.1613
96774W        W39712  19.592  29.856  27.348  0.1655  0.0004  0.2515
96775W        W39713  21.129  28.867  27.649  0.1171 -0.3308  0.2054
96776W        W39714  18.872  29.414  25.099 -0.0557 -0.1360  0.1716
96777W        W39715  20.704  31.623  28.070  0.3445 -0.0891 -0.2979
96778W        W39716  20.849  30.559  25.388 -0.2260 -0.1600 -0.2405
96779W        W39717  17.254  32.065  25.495 -0.0210  0.0424  0.0116
96780W        W39718  21.635  28.735  27.671  0.1204  0.5259 -0.1268
96781W        W39719  19.667  32.551  25.490  0.3617  0.2385 -0.0926
96782W        W39720  21.879  33.404  27.502  0.0901  0.1078  0.1675
96783W        W39721  20.626  32.784  24.926  0.2967  0.2083 -0.1327
96784W        W39722  20.602  30.452  26.557  0.0792 -0.0844  0.0761
96785W        W39723  19.805  31.659  25.035 -0.1399  0.1516  0.1679
96786W        W39724  18.328  32.760  26.646 -0.0537 -0.0518 -0.3853
96787W        W39725  20.308  32.821  26.271  0.1114  0.1784  0.0426
96788W        W39726  19.212  30.445  25.058  0.0477 -0.0592 -0.4164
96789W        W39727  21.830  34.270  25.167 -0.2560 -0.0161 -0.0318
96790W        W39728  21.154  30.027  26.046  0.3040  0.3018 -0.0158
96791W        W39729  18.476  30.769  27.167  0.1634 -0.1424 -0.1989
96792W        W39730  21.327  28.685  27.180 -0.0140  0.1808  0.2160
96793W        W39731  21.002  31.261  26.434  0.1694 -0.0782  0.0609
96794W        W39732  20.523  31.416  26.526 -0.0750 -0.1609 -0.3085
96795W        W39733  17.967  29.744  25.392 -0.0760 -0.2338  0.2662
96796W        W39734  20.767  32.187  24.245  0.0884 -0.2242 -0.0705
96797W        W39735  20.088  32.387  25.279  0.0963  0.0055 -0.0324
96798W        W39736  18.249  31.469  25.520  0.2254  0.0769 -0.0578
96799W        W39737  18.774  32.030  27.351  0.0604 -0.3851 -0.1892
96800W        W39738  22.742  29.276  25.531 -0.0065  0.1964 -0.0294
96801W        W39739  19.606  31.584  28.115  0.0799 -0.1264  0.1168
96802W        W39740  21.480  30.210  27.161 -0.0642 -0.0769  0.0654
96803W        W39741  19.450  31.270  24.869  0.1615 -0.0866  0.2572
96804W        W39742  19.521  33.006  27.270  0.0120 -0.1621 -0.1505
96805W        W39743  19.858  29.594  25.036 -0.0608 -0.0805 -0.1213
96806W        W39744  21.835  30.624  24.086 -0.2074 -0.0304 -0.0410
96807W        W39745  20.258  30.896  28.421 -0.2112 -0.2383  0.3799
96808W        W39746  21.966  32.974  24.178 -0.1478 -0.0653 -0.0327
96809W        W39747  20.512  30.582  22.302 -0.0828  0.0010  0.1461
96810W        W39748  20.105  30.369  24.602 -0.1420 -0.0348  0.3485
96811W        W39749  18.321  32.754  28.130  0.3229 -0.0343  0.0376
96812W        W39750  20.733  33.430  25.701  0.2003  0.3100 -0.1364
96813W        W39751  20.331  31.684  25.958  0.0273  0.2909  0.1438
96814W        W39752  20.476  31.413  25.523 -0.3175  0.1201  0.0476
96815W        W39753  22.542  33.444  22.881  0.0415 -0.2100  0.1023
96816W        W39754  18.246  32.118  27.320 -0.0992  0.2705  0.1381
96817W        W39755  20.545  31.282  28.739  0.3179  0.0305  0.1471
96818W        W39756  20.577  32.403  26.632  0.3114 -0.4285  0.1559
96819W        W39757  20.323  30.043  26.673 -0.0705 -0.1302 -0.1439
96820W        W39758  19.030  31.375  24.029  0.2888  0.0430  0.0907
96821W        W39759  20.760  31.585  27.132 -0.0498  0.1838 -0.0861
96822W        W39760  17.259  33.168  23.892 -0.0235  0.5500  0.0394
96823W        W39761  21.974  31.031  27.046  0.0161 -0.0732 -0.0385
96824W        W39762  21.584  29.752  26.125 -0.1914  0.3844  0.3387
96825W        W39763  20.207  28.941  27.402 -0.0914 -0.1162  0.1514
96826W        W39764  20.884  32.092  26.970  0.1190  0.1161 -0.1967
96827W        W39765  21.093  32.370  25.731  0.1013  0.1105  0.1217
96828W        W39766  21.273  33.761  26.977 -0.0320 -0.2684  0.1044
96829W        W39767  19.402  31.642  23.713  0.1056  0.2818  0.2165
96830W        W39768  20.445  31.006  27.318 -0.2179 -0.4319 -0.0217
96831W        W39769  19.494  31.446  26.606  0.1459  0.4071  0.0114
96832W        W39770  18.783  33.083  27.459  0.2121  0.0451 -0.0929
96833W        W39771  20.026  33.134  30.679 -0.0068  0.2895  0.1173
96834W        W39772  21.765  30.995  25.684  0.1376  0.0150  0.0432
96835W        W39773  20.042  29.159  26.810  0.0217  0.2605  0.0170
96836W        W39774  18.705  31.796  24.119  0.2088 -0.0005  0.2784
96837W        W39775  20.129  32.841  24.070  0.1044 -0.2901 -0.1288
96838W        W39776  19.742  33.450  24.594  0.3249 -0.1054  0.3819
96839W        W39777  20.471  30.516  25.029  0.0735 -0.1619  0.1472
96840W        W39778  20.666  32.624  25.958  0.0844  0.1809 -0.0245
96841W        W39779  18.291  31.485  23.465  0.0343  0.0633 -0.0574
96842W        W39780  20.339  33.632  26.190 -0.2237  0.0020 -0.0240
96843W        W39781  19.670  32.034  25.351  0.1674 -0.1268 -0.1247
96844W        W39782  22.147  29.371  27.246  0.0282  0.2644 -0.0781
96845W        W39783  18.012  31.920  25.770  0.1673  0.0994  0.1433
96846W        W39784  18.526  31.252  23.005 -0.2086 -0.1703 -0.1222
96847W        W39785  18.222  30.227  24.759  0.0997 -0.2003  0.1305
96848W        W39786  19.873  31.208  26.768 -0.0259  0.0309 -0.1805
96849W        W39787  21.277  32.105  24.876 -0.1566 -0.1069 -0.1366
96850W        W39788  20.761  30.097  26.972  0.1039  0.2995  0.2248
96851W        W39789  20.332  30.047  25.806 -0.1768  0.2943 -0.2078
96852W        W39790  18.539  32.947  27.063  0.2860  0.2662 -0.0647
96853W        W39791  20.917  31.577  25.538  0.0209  0.1466  0.0317
96854W        W39792  20.583  30.036  24.675  0.0017 -0.2138  0.0851
96855W        W39793  20.385  32.586  27.034  0.1259 -0.2348 -0.2845
96856W        W39794  19.617  30.802  26.680 -0.1664 -0.1584  0.2539
96857W        W39795  18.669  30.793  24.441 -0.0467 -0.4494 -0.2392
96858W        W39796  20.874  29.516  28.211 -0.3612  0.3519 -0.3802
96859W        W39797  20.361  31.025  26.827  0.0653  0.2300 -0.0270
96860W        W39798  19.436  33.519  25.446 -0.0300 -0.0167  0.1703
96861W        W39799  20.303  34.152  26.371  0.1497 -0.1073  0.2118
96862W        W39800  20.292  31.377  24.963  0.1622  0.2183 -0.0096
96863W        W39801  20.765  31.954  25.863 -0.2047 -0.1665 -0.1320
96864W        W39802  19.765  28.270  27.103  0.0421 -0.3068 -0.1634
96865W        W39803  21.573  32.652  26.668  0.3076  0.2395 -0.3020
96866W        W39804  20.720  31.340  26.001 -0.2767 -0.0049  0.2954
96867W        W39805  18.146  29.739  26.509  0.0166 -0.2776  0.1363
96868W        W39806  21.335  30.942  26.629 -0.1957  0.3002  0.0646
96869W        W39807  20.636  32.954  25.514 -0.2144 -0.0486 -0.0841
96870W        W39808  19.773  30.590  25.990 -0.0463 -0.2749  0.0651
96871W        W39809  18.525  32.294  28.208 -0.3492  0.2129  0.3882
96872W        W39810  20.972  28.700  24.499  0.1680  0.1492  0.1341
96873W        W39811  23.704  32.680  24.745 -0.0356 -0.3000 -0.4593
96874W        W39812  20.583  32.083  27.411  0.0276  0.3468  0.2143
96875W        W39813  19.071  32.050  24.612  0.1329  0.2782 -0.2705
96876W        W39814  17.606  31.142  27.022  0.0690  0.0979 -0.2820
96877W        W39815  19.988  31.932  24.471 -0.3151  0.1108 -0.1414
96878W        W39816  20.531  30.552  27.058  0.2419  0.1225  0.2179
96879W        W39817  18.693  31.005  26.750 -0.1901  0.1417  0.0514
96880W        W39818  18.754  32.709  24.193 -0.0949  0.1052  0.0658
96881W        W39819  18.885  31.116  27.244  0.1050 -0.0786 -0.1439
96882W        W39820  20.596  29.695  25.134  0.1707  0.2115 -0.1563
96883W        W39821  20.917  30.806  26.236  0.1339  0.0848 -0.0976
96884W        W39822  19.189  31.467  26.209  0.2617  0.0663 -0.3629
96885W        W39823  20.881  29.312  27.717 -0.1616  0.5191 -0.2637
96886W        W39824  20.467  31.785  24.614  0.2411 -0.3001  0.1261
96887W        W39825  21.751  28.802  26.661  0.3535 -0.1640 -0.0947
96888W        W39826  19.135  28.634  27.768  0.3556 -0.2369  0.2645
96889W        W39827  20.844  31.158  26.901 -0.2217 -0.0161 -0.1323
96890W        W39828  18.444  29.495  26.950  0.1824  0.1084  0.1375
96891W        W39829  19.972  33.645  28.350 -0.0427 -0.1596 -0.0751
96892W        W39830  18.232  31.461  26.492 -0.3776  0.0763  0.0869
96893W        W39831  19.796  31.747  24.057  0.1403  0.1069 -0.0562
96894W        W39832  17.089  29.764  25.943 -0.1444  0.1502 -0.0919
96895W        W39833  19.767  31.571  27.114  0.0776 -0.2593 -0.0184
96896W        W39834  21.587  33.275  24.852  0.0728 -0.0878 -0.2751
96897W        W39835  20.984  30.598  24.915  0.2930  0.0162 -0.1813
96898W        W39836  20.918  31.206  25.244 -0.1775  0.2335  0.1867
96899W        W39837  20.281  31.948  26.741  0.0530 -0.0332  0.0056
96900W        W39838  21.664  29.734  26.819 -0.2254  0.0194 -0.3263
96901W        W39839  21.222  31.095  24.848 -0.2262  0.1612 -0.2181
96902W        W39840  19.160  31.367  25.376 -0.2590 -0.0739  0.2805
96903W        W39841  19.712  30.385  27.140 -0.2793  0.1610  0.1660
96904W        W39842  19.351  32.811  25.957 -0.3352  0.2862 -0.0055
96905W        W39843  20.921  30.094  25.053  0.2130 -0.0896  0.0660
96906W        W39844  20.599  27.767  27.580 -0.1958 -0.0212  0.3290
96907W        W39845  21.729  29.219  27.465  0.0577 -0.1262  0.1116
96908W        W39846  20.990  30.530  27.109  0.3422  0.3507 -0.1711
96909W        W39847  19.226  28.504  26.196 -0.0274 -0.1307 -0.0876
96910W        W39848  21.054  33.059  26.836 -0.1130 -0.3452  0.1406
96911W        W39849  20.639  29.841  23.727 -0.3565  0.2414  0.2241
96912W        W39850  21.469  30.962  26.158  0.1093  0.2741  0.1704
96913W        W39851  20.526  33.709  25.373 -0.0397  0.2179 -0.1869
96914W        W39852  21.481  30.736  25.070 -0.1212 -0.1180  0.1486
96915W        W39853  17.286  29.526  26.349 -0.0865  0.0380 -0.1829
96916W        W39854  20.500  33.318  26.560 -0.0200 -0.4934 -0.0133
96917W        W39855  20.177  30.057  25.017  0.3752  0.1573  0.0893
96918W        W39856  19.623  29.303  28.718  0.0820  0.0985 -0.0671
96919W        W39857  19.704  33.030  24.227 -0.1428 -0.0159  0.1938
96920W        W39858  19.172  31.884  26.534 -0.0535  0.1182 -0.1778
96921W        W39859  20.579  30.919  25.718  0.2501 -0.1444 -0.0262
96922W        W39860  19.711  31.105  26.227 -0.0836 -0.0798 -0.1264
96923W        W39861  20.512  34.283  25.431 -0.0941 -0.1829  0.2575
96924W        W39862  17.826  31.682  23.491 -0.2162 -0.2208 -0.4856
96925W        W39863  20.247  30.974  23.714 -0.0190 -0.0264 -0.0956
96926W        W39864  21.037  32.537  26.747 -0.0542  0.2298 -0.0247
96927W        W39865  22.327  31.128  27.947  0.0586  0.0274  0.0388
96928W        W39866  20.636  28.516  23.707  0.2232 -0.0438 -0.0345
96929W        W39867  22.573  29.816  28.685  0.0272 -0.1204  0.1215
96930W        W39868  17.663  32.308  25.334  0.2282  0.1469 -0.0314
96931W        W39869  19.050  29.839  25.903 -0.1356 -0.3427 -0.0468
96932W        W39870  20.154  33.023  26.755 -0.2339  0.3841  0.0730
96933W        W39871  17.787  31.479  28.087 -0.1986 -0.3088 -0.1065
96934W        W39872  19.489  32.367  26.372 -0.2691 -0.1443  0.0715
96935W        W39873  20.482  28.944  26.807  0.2533  0.0075  0.0171
96936W        W39874  21.161  29.677  26.971  0.0753  0.1993  0.1775
96937W        W39875  21.334  30.657  25.697 -0.0253 -0.1854 -0.2553
96938W        W39876  20.967  31.273  27.497  0.0484 -0.0537  0.2249
96939W        W39877  20.885  32.087  27.916 -0.2581 -0.2235  0.1124
96940W        W39878  18.512  32.289  26.541  0.0728 -0.0203  0.0814
96941W        W39879  21.126  33.364  27.943 -0.2738  0.3635 -0.0737
96942W        W39880  22.486  31.574  25.341  0.1687 -0.0545  0.1006
96943W        W39881  19.259  31.659  27.100 -0.1190 -0.0907 -0.2595
96944W        W39882  19.470  30.465  28.063  0.1922  0.0138 -0.0730
96945W        W39883  19.811  30.154  27.737  0.0267 -0.1183 -0.2053
96946W        W39884  19.566  31.831  26.241 -0.2522 -0.0998 -0.1337
96947W        W39885  19.785  29.743  26.434 -0.1306 -0.0007 -0.1508
96948W        W39886  20.103  32.439  23.728 -0.8381  0.3253 -0.0779
96949W        W39887  19.545  32.068  27.361  0.3035  0.2059  0.0307
96950W        W39888  18.881  29.695  26.913  0.0274 -0.1237  0.0052
96951W        W39889  20.184  33.457  24.834  0.1118  0.0602  0.2541
96952W        W39890  21.650  32.839  25.181  0.2331 -0.3001  0.0162
96953W        W39891  20.482  32.728  24.375 -0.1075 -0.0935 -0.1205
96954W        W39892  21.252  34.664  25.932  0.2465  0.4554 -0.2345
96955W        W39893  19.508  29.998  25.158 -0.1986  0.2300  0.0711
96956W        W39894  19.251  32.261  25.036 -0.1173 -0.4601  0.0785
96957W        W39895  18.566  32.565  21.983 -0.1744  0.0410 -0.1170
96958W        W39896  20.777  31.664  24.203  0.0108  0.0117 -0.0278
96959W        W39897  18.808  32.506  24.726 -0.0185  0.1310  0.1451
96960W        W39898  21.739  32.104  28.959  0.0354 -0.0121  0.3985
96961W        W39899  20.347  28.953  23.645 -0.0012 -0.0251 -0.0646
96962W        W39900  20.648  31.776  25.095  0.1058 -0.3074  0.0599
96963W        W39901  21.441  30.305  24.836  0.2614  0.1485 -0.0271
96964W        W39902  20.166  33.024  28.719  0.3048 -0.0028  0.2142
96965W        W39903  20.617  31.978  26.344  0.2966  0.0766 -0.0271
96966W        W39904  19.755  30.003  24.709  0.2405  0.0233  0.2034
96967W        W39905  19.951  30.821  27.196  0.0364 -0.1508 -0.0562
96968W        W39906  21.143  29.273  28.665 -0.1382  0.1154 -0.2280
96969W        W39907  19.470  32.658  28.122  0.0637  0.2200 -0.1824
96970W        W39908  20.603  31.589  23.436  0.0949 -0.2786 -0.0803
96971W        W39909  17.333  30.733  24.005 -0.1969 -0.2132  0.3391
96972W        W39910  18.650  31.772  26.397 -0.0846 -0.1714  0.0312
96973W        W39911  23.143  27.663  25.675 -0.0259  0.0579  0.2690
96974W        W39912  19.305  32.529  24.612 -0.1207  0.0462  0.0822
96975W        W39913  21.015  29.836  25.527 -0.3059 -0.0062  0.0198
96976W        W39914  19.138  32.444  25.580 -0.2185  0.2513 -0.1320
96977W        W39915  20.338  32.228  25.988 -0.0491 -0.0827 -0.2691
96978W        W39916  20.906  33.556  26.392  0.0668  0.0026 -0.0900
96979W        W39917  18.822  28.756  26.027 -0.0779 -0.4224 -0.2932
96980W        W39918  23.299  30.442  26.422  0.0073  0.0894 -0.3439
96981W        W39919  18.723  31.073  27.718  0.0080 -0.0050 -0.0636
96982W        W39920  21.634  29.224  26.939  0.1740  0.2039 -0.0124
96983W        W39921  20.495  31.307  24.415 -0.0098  0.0947  0.0742
96984W        W39922  21.872  31.496  25.597 -0.2903 -0.1422  0.0475
96985W        W39923  20.933  31.746  27.544 -0.0279 -0.0590 -0.1956
96986W        W39924  17.279  30.367  27.424 -0.0281 -0.1469  0.1720
96987W        W39925  20.911  30.585  23.955 -0.1873  0.1019  0.1022
96988W        W39926  21.603  31.097  27.487 -0.1418  0.1057  0.2718
96989W        W39927  20.242  30.397  24.061  0.2375  0.1932  0.0820
96990W        W39928  20.536  34.049  28.476 -0.0135  0.2094  0.0678
96991W        W39929  19.487  31.023  25.782 -0.1739  0.3719 -0.0035
96992W        W39930  20.474  30.968  26.263 -0.0539 -0.0476  0.0018
96993W        W39931  19.353  31.269  27.478  0.0534  0.0709  0.0160
96994W        W39932  19.529  30.283  26.620 -0.6108  0.2269 -0.2115
96995W        W39933  22.000  31.636  26.616 -0.2833  0.0511 -0.2001
96996W        W39934  18.959  30.926  25.986 -0.0952  0.3319  0.1053
96997W        W39935  23.032  30.862  21.877 -0.2602  0.2274  0.0809
96998W        W39936  21.492  30.823  27.063 -0.5741 -0.3099  0.0118
96999W        W39937  21.345   0.126  24.018 -0.2948  0.2066  0.3110
97000W        W39938  21.057  32.681  24.686 -0.1458  0.1945 -0.0006
97001W        W39939  21.040  32.916  25.793  0.0431 -0.0023  0.3389
97002W        W39940  18.274  30.678  25.635 -0.0323 -0.1410  0.0276
97003W        W39941  21.388  32.569  26.217 -0.2089 -0.1245 -0.0797
97004W        W39942  21.888  32.288  26.381  0.4279  0.2145  0.1946
97005W        W39943  18.986  30.013  24.057 -0.1140 -0.0500 -0.0712
97006W        W39944  18.091  31.089  26.841  0.2685 -0.2460 -0.0194
97007W        W39945  19.722  32.179  24.869  0.0375 -0.4017  0.3892
97008W        W39946  22.095  30.156  26.050  0.1969  0.1529 -0.2005
97009W        W39947  20.749  29.752  27.286  0.0085 -0.3664  0.0123
97010W        W39948  18.633  32.299  23.957  0.2238 -0.2837 -0.1320
97011W        W39949  21.519  29.232  26.420 -0.3129  0.0159  0.1738
97012W        W39950  20.140  32.309  27.579  0.0654 -0.1085 -0.0436
97013W        W39951  19.310  32.282  27.808 -0.4756 -0.1939  0.1634
97014W        W39952  19.911  31.982  25.805  0.2107  0.0059 -0.1492
97015W        W39953  21.284  30.353  26.718  0.0923 -0.3727 -0.1374
97016W        W39954  21.039  31.265  23.529  0.1975 -0.0426  0.1287
97017W        W39955  20.893  34.569  24.092 -0.0354  0.1535 -0.0040
97018W        W39956  21.020  33.822  27.544 -0.2056  0.1439 -0.0211
97019W        W39957  20.619  30.498  24.507  0.0045  0.0236  0.1282
97020W        W39958  21.406  31.783  25.402 -0.0026 -0.0603  0.0254
97021W        W39959  20.569  30.109  25.399  0.1810 -0.2654  0.1266
97022W        W39960  20.440  32.019  25.474  0.0825 -0.4760 -0.1983
97023W        W39961  21.271  30.130  23.076  0.1353  0.0423 -0.0903
97024W        W39962  17.005  32.048  26.717 -0.3405 -0.0888  0.0762
97025W        W39963  18.656  29.777  25.472  0.0336  0.2276 -0.0552
97026W        W39964  19.799  32.596  24.528 -0.1792  0.0282 -0.2255
97027W        W39965  18.894  29.948  24.993 -0.1007  0.2571  0.0633
97028W        W39966  21.543  28.239  28.249 -0.0770 -0.4181  0.0603
97029W        W39967  18.636  30.459  26.845 -0.2400 -0.1080 -0.0430
97030W        W39968  18.190  30.233  26.439 -0.3331 -0.1280  0.1908
97031W        W39969  19.819  30.719  25.383  0.1267  0.0320  0.1974
97032W        W39970  21.460  31.267  25.318 -0.2360  0.1758  0.0343
97033W        W39971  19.092  30.349  25.959  0.2079  0.1734 -0.1195
97034W        W39972  19.479  29.799  25.632 -0.3005  0.0125 -0.2330
97035W        W39973  20.189  31.961  25.022  0.3848 -0.2284 -0.1064
97036W        W39974  21.673  32.063  23.987  0.1655  0.1223  0.0273
97037W        W39975  19.024  29.443  24.020 -0.0621 -0.0613  0.1118
97038W        W39976  22.077  32.632  28.932 -0.1522  0.0161  0.1355
97039W        W39977  18.084  31.464  25.047 -0.0331 -0.0736 -0.2685
97040W        W39978  20.185  30.077  28.460  0.1921  0.1012  0.1219
97041W        W39979  20.708  28.853  27.382  0.1787  0.3207  0.3196
97042W        W39980  17.810  30.593  23.611  0.1746  0.1763 -0.1512
97043W        W39981  21.350  32.119  26.596  0.1489  0.0799  0.2258
97044W        W39982  20.177  32.980  24.767  0.2631  0.2022 -0.0963
97045W        W39983  22.034  32.668  23.285  0.1378  0.2513 -0.0723
97046W        W39984  20.994  31.251  28.351 -0.2750  0.0142 -0.1718
97047W        W39985  19.865  32.409  26.018 -0.0886  0.0645  0.0020
97048W        W39986  18.720  29.709  27.834 -0.0195  0.2959  0.0751
97049W        W39987  21.918  30.529  24.985 -0.2667 -0.1806  0.1856
97050W        W39988  18.480  31.496  27.902 -0.0310 -0.0121 -0.1253
97051W        W39989  21.691  31.314  24.509 -0.1753  0.4289 -0.1033
97052W        W39990  21.105  29.236  27.207 -0.1346 -0.2913 -0.2357
97053W        W39991  19.671  31.203  23.769  0.0777 -0.4771  0.2714
97054W        W39992  19.243  29.181  27.726 -0.1933  0.0510  0.2414
97055W        W39993  18.925  30.454  28.239  0.1219  0.1340  0.0018
97056W        W39994  21.527  32.247  25.443 -0.0076  0.1686  0.0271
97057W        W39995  18.778  27.629  25.941  0.2204  0.3446 -0.0028
97058W        W39996  21.762  30.464  25.450 -0.2544 -0.0386 -0.2656
97059W        W39997  20.640  31.194  23.115  0.2792  0.3125 -0.0891
97060W        W39998  19.796  29.520  27.049 -0.3374  0.2319 -0.1856
97061W        W39999  19.882  30.229  25.549 -0.2327  0.5117 -0.4055
97062W        W40000  19.449  31.228  28.497 -0.2081  0.0917 -0.3040
97063W        W40001  20.206  32.665  25.733  0.0143  0.0799 -0.0021
97064W        W40002  21.271  31.440  29.460  0.0067  0.0829 -0.2214
97065W        W40003  19.724  31.275  25.363 -0.1850 -0.1482 -0.0315
97066W        W40004  20.946  31.914  24.569 -0.2288 -0.0053  0.2286
97067W        W40005  21.053  32.235  27.446 -0.1363 -0.2255  0.0937
97068W        W40006  22.323  32.885  28.345 -0.2465 -0.0186 -0.0161
97069W        W40007  20.635  34.357  26.701  0.0389 -0.1599  0.3744
97070W        W40008  21.287  31.327  27.086 -0.2203 -0.1115 -0.0742
97071W        W40009  17.215  29.817  27.391  0.1500 -0.0938  0.3448
97072W        W40010  20.043  31.311  24.166  0.1043 -0.0436 -0.0619
97073W        W40011  19.506  32.563  26.891 -0.1255  0.0253  0.1195
97074W        W40012  21.978  29.546  25.859  0.5301  0.1262 -0.0947
97075W        W40013  18.869  30.606  26.387  0.1070 -0.0630  0.0542
97076W        W40014  19.796  29.478  24.529 -0.1933 -0.0859  0.0156
97077W        W40015  18.898  33.606  25.322  0.1331 -0.1196 -0.2434
97078W        W40016  19.401  31.546  25.751 -0.2216 -0.3498  0.0981
97079W        W40017  19.659  31.323  31.142  0.0759  0.1167 -0.0758
97080W        W40018  18.974  30.101  30.135  0.0159  0.1930 -0.3222
97081W        W40019  21.826  28.279  27.286  0.2311 -0.0042  0.1254
97082W        W40020  20.593  29.673  29.226  0.3813 -0.2971 -0.0016
97083W        W40021  19.061  30.532  28.793  0.1238  0.2899 -0.2765
97084W        W40022  20.533  32.070  28.318 -0.1091 -0.2096  0.0561
97085W        W40023  18.146  28.596  29.621  0.0119 -0.1779  0.2677
97086W        W40024  20.440  31.930  29.433  0.2479  0.2630  0.2882
97087W        W40025  22.202  32.692  30.299 -0.0884 -0.0868  0.0855
97088W        W40026  20.124  31.068  27.956  0.0768 -0.0002  0.0136
97089W        W40027  19.406  29.301  31.313 -0.1783 -0.4246 -0.0582
97090W        W40028  20.712  33.155  28.799 -0.0567 -0.1374  0.0955
97091W        W40029  18.623  29.801  29.466 -0.0514 -0.0233 -0.1772
97092W        W40030  17.109  28.864  29.302 -0.1551  0.1041 -0.0424
97093W        W40031  20.073  31.479  29.964 -0.2779  0.1528 -0.4011
97094W        W40032  17.895  30.245  28.032 -0.1032  0.0046 -0.0809
97095W        W40033  20.312  29.191  30.388 -0.0413  0.1639 -0.1384
97096W        W40034  19.685  29.629  29.125 -0.0670  0.1912  0.0316
97097W        W40035  20.146  33.356  27.460  0.3401  0.1466 -0.1667
97098W        W40036  20.610  29.317  29.829 -0.0926 -0.1778  0.5507
97099W        W40037  19.735  29.256  29.665 -0.1846 -0.3502  0.0228
97100W        W40038  19.966  32.085  26.390  0.2123 -0.1285  0.0874
97101W        W40039  19.077  30.646  26.859 -0.1822 -0.0193  0.0502
97102W        W40040  19.070  29.929  28.168 -0.3449  0.3018  0.2204
97103W        W40041  18.768  29.650  30.025  0.3477  0.2656 -0.1124
97104W        W40042  21.376  29.162  29.120  0.1399 -0.0415  0.0712
97105W        W40043  21.324  29.986  30.801 -0.2803 -0.4523  0.1399
97106W        W40044  19.605  31.305  29.893  0.0674 -0.2119  0.1144
97107W        W40045  19.102  31.020  29.710  0.0944 -0.1040 -0.0190
97108W        W40046  21.756  30.251  30.546  0.0123 -0.2733  0.4624
97109W        W40047  18.762  31.246  31.107  0.1254  0.0663  0.2205
97110W        W40048  17.819  33.064  30.380 -0.0561 -0.3254 -0.1594
97111W        W40049  20.645  32.491  28.046  0.0340 -0.3130  0.1928
97112W        W40050  21.767  30.890  28.396 -0.3370 -0.0461 -0.1516
97113W        W40051  19.403  31.874  30.688  0.2456  0.1522 -0.3293
97114W        W40052  18.734  32.124  31.924 -0.2857  0.2122 -0.0178
97115W        W40053  18.167  32.091  28.755 -0.0790  0.0070 -0.1376
97116W        W40054  20.257  31.713  31.204 -0.2315 -0.0176 -0.0572
97117W        W40055  18.638  30.960   0.380 -0.0978  0.0018 -0.1029
97118W        W40056  19.236  29.374  30.392  0.0836  0.0143 -0.2042
97119W        W40057  19.517  30.462  28.903  0.1174 -0.0392  0.0142
97120W        W40058  19.765  32.554  28.522  0.1779 -0.1461  0.3746
97121W        W40059  19.375  32.227  30.046  0.0145 -0.1484  0.0931
97122W        W40060  20.271  30.644  31.670  0.0806  0.0405  0.0662
97123W        W40061  18.623  30.576  30.564 -0.2385  0.0571 -0.3117
97124W        W40062  22.661  30.776  30.838 -0.0662  0.1244  0.0465
97125W        W40063  18.739  32.659  29.365 -0.0004  0.2007 -0.1733
97126W        W40064  20.979  30.270  27.852 -0.2663  0.0947 -0.1873
97127W        W40065  18.036  28.458  28.355 -0.1351  0.1239 -0.1251
97128W        W40066  19.990  29.048  29.250 -0.2034 -0.1439 -0.0277
97129W        W40067  19.395  29.117  30.024  0.1326  0.1450 -0.3441
97130W        W40068  19.802  31.897  30.327  0.3066  0.0656 -0.0179
97131W        W40069  21.297  27.223  30.112 -0.0440 -0.2036 -0.1355
97132W        W40070  21.557  31.411  29.940 -0.1874  0.0376 -0.0550
97133W        W40071  21.019  31.969  29.087  0.0084  0.0215  0.1625
97134W        W40072  19.686  29.941  30.750 -0.1546  0.2319 -0.3769
97135W        W40073  18.531  32.343  30.437  0.0812 -0.3817  0.0124
97136W        W40074  19.013  30.034  29.644 -0.0341  0.2585 -0.3019
97137W        W40075  21.335  31.846  27.120  0.1854 -0.0467  0.0958
97138W        W40076  22.197  31.232  29.217 -0.0627 -0.0580 -0.1139
97139W        W40077  20.335  30.160  29.389  0.2615  0.3536 -0.2144
97140W        W40078  21.012  29.836  28.610 -0.2594 -0.1465  0.1360
97141W        W40079  19.262  30.365  31.388 -0.0399  0.2821  0.1680
97142W        W40080  19.073  30.637  30.344  0.1305 -0.0900 -0.0716
97143W        W40081  19.773  29.316  27.838  0.0729 -0.0366  0.0366
97144W        W40082  21.136  30.394  31.182  0.0908  0.1186 -0.2894
97145W        W40083  18.773  32.429  30.843  0.1528 -0.1449 -0.1155
97146W        W40084  20.644  28.948  27.932 -0.2872 -0.1781 -0.0664
97147W        W40085  18.838  31.023  30.627  0.0687 -0.1827  0.1463
97148W        W40086  21.360  31.272  30.375 -0.1530 -0.1993 -0.2947
97149W        W40087  20.477  31.499  27.635 -0.1114  0.0001  0.2315
97150W        W40088  21.526  28.420  30.043  0.1622 -0.1505  0.2326
97151W        W40089  20.169  28.992  29.777 -0.0491 -0.1466  0.2090
97152W        W40090  19.980  30.574  28.051  0.1611  0.4880  0.0861
97153W        W40091  21.035  30.399  28.326  0.0284  0.0146 -0.2281
97154W        W40092  20.915  31.764  30.932 -0.1460  0.4042  0.0972
97155W        W40093  20.540  30.627  28.010 -0.0268  0.0598  0.0712
97156W        W40094  18.999  31.487  28.795 -0.5273 -0.2019 -0.0320
97157W        W40095  20.173  29.665  31.520  0.0219  0.0586 -0.0368
97158W        W40096  20.334  32.208  31.059  0.1770 -0.0425 -0.0699
97159W        W40097  19.654  33.120  28.383  0.3959 -0.0602  0.1634
97160W        W40098  17.115  32.667  30.385 -0.0956 -0.0417  0.1172
97161W        W40099  18.516  31.233  28.722 -0.3432  0.1899  0.0839
97162W        W40100  19.406  29.004  29.149  0.0881  0.3015  0.0794
97163W        W40101  18.758  30.983  30.105  0.1221 -0.1176 -0.0093
97164W        W40102  21.674  28.437  29.220 -0.3515  0.1468 -0.2007
97165W        W40103  19.663  30.517  31.633  0.0418 -0.1038  0.0708
97166W        W40104  21.643  28.148  30.409 -0.0775 -0.0513 -0.1735
97167W        W40105  19.048  31.272  28.150  0.0973 -0.0591 -0.0809
97168W        W40106  21.423  31.513  28.547 -0.1262 -0.2887  0.1543
97169W        W40107  20.412  29.349  27.550  0.2155  0.2015  0.1720
97170W        W40108  20.792  30.866  28.629  0.1340 -0.0460  0.0373
97171W        W40109  17.867  31.039  28.942 -0.0940 -0.1810  0.1668
97172W        W40110  20.142  29.814  28.968  0.1762 -0.1390  0.0611
97173W        W40111  20.660  29.266  31.762  0.3993  0.2466 -0.1216
97174W        W40112  18.805  29.691  28.907  0.1874 -0.2324  0.0350
97175W        W40113  20.774  28.734  30.667  0.2139  0.1161 -0.1073
97176W        W40114  17.352  29.774  28.301  0.0253 -0.0008  0.0547
97177W        W40115  20.489  30.057  30.198  0.1052 -0.3182 -0.0992
97178W        W40116  20.050  31.067  29.697  0.1968 -0.1408  0.0196
97179W        W40117  17.155  31.886  28.582  0.0180 -0.0072  0.0385
97180W        W40118  22.336  30.115  30.946 -0.1007 -0.1178  0.1102
97181W        W40119  20.751  31.045  29.162 -0.1960 -0.0883 -0.0279
97182W        W40120  20.923  32.908  31.404  0.0172 -0.0318  0.0834
97183W        W40121  20.300  32.523  28.495 -0.0202  0.2085 -0.0667
97184W        W40122  18.393  28.538  29.210 -0.3528  0.3086 -0.3121
97185W        W40123  18.002  29.271  27.304  0.0846  0.0309 -0.3394
97186W        W40124  18.557  32.879  29.788 -0.0790  0.1256  0.3138
97187W        W40125  19.872  31.566  29.542  0.1285  0.0974  0.0452
97188W        W40126  18.954  29.310  28.130 -0.0385  0.3908 -0.0799
97189W        W40127  21.059  31.479  30.003  0.0534 -0.1654  0.1565
97190W        W40128  19.966  30.684  29.285  0.0535 -0.1175  0.0685
97191W        W40129  19.259  31.080   0.327  0.1263  0.0030 -0.2305
97192W        W40130  21.826  29.554  31.935 -0.0678  0.0350 -0.0184
97193W        W40131  21.154  31.302  30.849 -0.1792  0.3501  0.0476
97194W        W40132  20.999  28.557  29.698 -0.0344  0.0919  0.1960
97195W        W40133  17.458  30.412  27.897 -0.1463  0.3473 -0.1551
97196W        W40134  22.227  32.438  28.130 -0.2393 -0.3139  0.1637
97197W        W40135  18.718  32.125  28.726 -0.1260 -0.1505  0.0476
97198W        W40136  17.666  32.448  27.150 -0.0229  0.1664  0.0325
97199W        W40137  19.030  32.236  28.298  0.1694  0.0688  0.1551
97200W        W40138  22.117  27.694  27.889  0.1299 -0.0852 -0.0277
97201W        W40139  18.093  30.346  31.979  0.0676 -0.3304  0.0465
97202W        W40140  21.165  29.286  31.828 -0.0832  0.3609  0.1033
97203W        W40141  20.019  29.734  27.633  0.1921  0.1857 -0.3300
97204W        W40142  18.285  32.226  31.555 -0.0347  0.1992  0.1576
97205W        W40143  19.412  28.523  30.051 -0.1132 -0.0209 -0.1906
97206W        W40144  22.557  29.536  28.232  0.1969  0.0408 -0.1371
97207W        W40145  21.541  29.012   1.158  0.0661  0.2759  0.0185
97208W        W40146  20.401  31.319  29.394  0.0955  0.1179 -0.0889
97209W        W40147  21.040  29.334  26.501 -0.0288 -0.0099  0.0618
97210W        W40148  19.630  28.654  29.577 -0.3033  0.4601  0.1384
97211W        W40149  18.241  32.020   0.087  0.2701 -0.0002 -0.1405
97212W        W40150  19.151  31.908  29.649  0.3361  0.0186  0.1934
97213W        W40151  19.229  29.521  29.870 -0.0704  0.2567 -0.0350
97214W        W40152  21.746  28.236  26.773 -0.1829  0.0761  0.0602
97215W        W40153  21.816  31.009  27.890 -0.1631 -0.2603  0.1398
97216W        W40154  18.356  32.776  30.811 -0.0654 -0.1153 -0.1254
97217W        W40155  20.126  32.268  30.604 -0.0267 -0.2878 -0.2512
97218W        W40156  20.060  31.984  29.781  0.2102  0.0294 -0.0631
97219W        W40157  19.465  28.377  29.126  0.0935  0.1883 -0.1236
97220W        W40158  19.286  30.152  28.527 -0.1158  0.0761 -0.2560
97221W        W40159  21.014  29.636  29.565  0.2605 -0.3799 -0.0780
97222W        W40160  17.687  32.077  28.844 -0.2231 -0.1016 -0.0960
97223W        W40161  21.187  28.349  30.683  0.2209  0.0333 -0.0679
97224W        W40162  21.330  28.063  28.981  0.1541 -0.1190 -0.2472
97225W        W40163  21.006  27.429  30.608 -0.2781 -0.0894 -0.0142
97226W        W40164  20.526  31.718  31.779 -0.2343  0.1019  0.3002
97227W        W40165  20.720  30.556  29.115 -0.0566  0.3027  0.5010
97228W        W40166  20.867  31.230  29.609 -0.1660  0.1155  0.3317
97229W        W40167  19.597  29.337  26.606 -0.0727  0.1190 -0.1487
97230W        W40168  21.276  28.814  30.641  0.3323  0.0785  0.0144
97231W        W40169  19.969  31.043  31.505 -0.2738 -0.2055  0.1427
97232W        W40170  19.122  32.707  31.233 -0.3822  0.0294  0.0777
97233W        W40171  19.730  29.441  30.569 -0.3294  0.0596  0.2113
97234W        W40172  20.782  30.483  30.333  0.1790 -0.4665  0.1862
97235W        W40173  21.297  30.753  31.543  0.4474  0.1085  0.2382
97236W        W40174  20.211  30.553  27.589 -0.0572  0.1813  0.1421
97237W        W40175  17.967  32.075  29.286  0.0322  0.1427  0.0095
97238W        W40176  19.343  30.729  28.473  0.1006 -0.0085 -0.0624
97239W        W40177  19.354  29.589  30.862  0.1857 -0.0878  0.4654
97240W        W40178  18.397  31.748  29.166  0.2145 -0.3557  0.1411
97241W        W40179  20.032  31.543  26.377  0.4177 -0.1990  0.3214
97242W        W40180  20.136  29.888  30.991  0.2386  0.0675 -0.3668
97243W        W40181  19.948  31.998  29.281 -0.1552 -0.1159 -0.1609
97244W        W40182  20.955  29.612  30.819 -0.1282 -0.2628  0.2151
97245W        W40183  18.259  32.916  29.093 -0.0049  0.0310 -0.1536
97246W        W40184  19.463  29.467  28.287 -0.0485 -0.1430  0.1406
97247W        W40185  17.949  29.503  27.716  0.0726  0.0199  0.0022
97248W        W40186  20.147  29.483  30.004  0.1279 -0.1459 -0.0637
97249W        W40187  21.434  29.963  30.212  0.2814 -0.0041  0.0210
97250W        W40188  19.343  29.835  30.395 -0.2493  0.0402  0.1944
97251W        W40189  19.864  28.658  31.076 -0.1180 -0.4321 -0.0400
97252W        W40190  18.149  33.331  29.968 -0.0600 -0.2575  0.1909
97253W        W40191  20.427  31.049  30.593  0.0562  0.1911  0.0506
97254W        W40192  19.098  29.644  29.345  0.0163  0.1662 -0.0677
97255W        W40193  20.033  30.069  29.851  0.1297  0.0276  0.0779
97256W        W40194  21.089  32.000  31.831  0.2885  0.0122  0.2926
97257W        W40195  18.667  29.944  27.310 -0.0970 -0.3742  0.1673
97258W        W40196  19.664  31.390  30.446  0.2108  0.1917 -0.1134
97259W        W40197  18.875  29.236  29.543 -0.0939  0.0407  0.0554
97260W        W40198  18.431  32.396  29.115  0.0060 -0.0634 -0.0104
97261W        W40199  20.734  32.476  29.406  0.0492 -0.3270 -0.2030
97262W        W40200  19.756  29.856  28.613 -0.1567  0.2258  0.0835
97263W        W40201  18.328  30.919  30.572 -0.0367 -0.0005 -0.0942
97264W        W40202  20.245  29.096   0.499 -0.1811  0.0977  0.1606
97265W        W40203  19.534  29.774  29.567 -0.1868 -0.3615  0.2405
97266W        W40204  18.948  30.214  30.618 -0.3306 -0.1037  0.0435
97267W        W40205  19.898  29.040  30.283  0.0108 -0.0428 -0.2487
97268W        W40206  20.954  30.916  30.449  0.1337 -0.1395 -0.0519
97269W        W40207  22.231  30.616  29.728  0.2437 -0.1066 -0.0692
97270W        W40208  19.859  29.060  31.519  0.0679 -0.0314  0.1487
97271W        W40209  19.439  30.536   0.159  0.1387  0.1465 -0.2005
97272W        W40210  20.506  28.907  28.882  0.1238 -0.0783 -0.1310
97273W        W40211  21.775  32.777  29.366  0.1270  0.0461  0.0579
97274W        W40212  21.281  29.964  31.969 -0.0801  0.1710  0.1716
97275W        W40213  19.306  30.050  29.185  0.0295 -0.0470  0.0454
97276W        W40214  18.497  30.780  31.056  0.1212  0.0301  0.0423
97277W        W40215  19.333  30.261  27.545  0.1254 -0.1810  0.3517
97278W        W40216  21.000  29.184  30.459 -0.4274 -0.1444  0.0123
97279W        W40217  17.895  32.536  29.047  0.1966  0.1473  0.0043
97280W        W40218  19.481  31.487  29.017  0.0490 -0.3090 -0.0881
97281W        W40219  17.747  32.407  29.870  0.1479 -0.2049 -0.1552
97282W        W40220  20.318  28.689  28.248  0.0587 -0.0715  0.0212
97283W        W40221  20.962  31.804  29.575 -0.0396 -0.0666 -0.0363
97284W        W40222  19.184  28.835  29.544 -0.1196  0.1279 -0.0178
97285W        W40223  23.056  29.177  30.340  0.0261  0.1406 -0.0190
97286W        W40224  19.965  31.213  29.198 -0.1685  0.5213 -0.1797
97287W        W40225  19.904  29.830   0.809 -0.0294  0.0330 -0.0894
97288W        W40226  19.613  29.081  30.862  0.1282 -0.3151 -0.2384
97289W        W40227  21.779  30.747  29.289 -0.0611 -0.0789 -0.1697
97290W        W40228  19.125  29.330   0.225 -0.1834 -0.1901 -0.0402
97291W        W40229  19.264  32.969  30.687  0.3103  0.1137  0.0814
97292W        W40230  18.560  31.685   0.171 -0.1273  0.2001  0.0270
97293W        W40231  18.377  29.945  28.882  0.3456  0.2288 -0.0417
97294W        W40232  20.716  29.714  26.628  0.4164 -0.1931  0.1209
97295W        W40233  20.745  30.128  31.008  0.2911  0.2164 -0.1404
97296W        W40234  21.261  30.983  29.953  0.1495 -0.1671  0.0650
97297W        W40235  19.279  31.691  27.774  0.2422 -0.1432  0.0875
97298W        W40236  21.946  29.386  29.450  0.3677 -0.0050 -0.2279
97299W        W40237  18.431  32.569  31.232  0.1731  0.1250  0.0909
97300W        W40238  21.152  29.676  29.023  0.0504  0.1579  0.1672
97301W        W40239  20.401  31.950  27.819  0.1492 -0.1915  0.0893
97302W        W40240  20.476  30.411  29.844 -0.1198  0.0779  0.1963
97303W        W40241  18.581  29.981  30.381  0.4187  0.1231 -0.0805
97304W        W40242  20.731  29.519  31.351  0.2450 -0.3373 -0.1330
97305W        W40243  21.417  28.259  27.775  0.3063  0.1632  0.1369
97306W        W40244  20.133  28.634  29.423 -0.0325 -0.2778  0.0412
97307W        W40245  19.866  30.689  30.598  0.1973  0.2951 -0.3397
97308W        W40246  20.011  30.141  31.529 -0.3575  0.1824  0.0111
97309W        W40247  18.256  30.149  29.314  0.0912  0.0450  0.1266
97310W        W40248  20.647  32.178  29.768 -0.0503 -0.1266 -0.2270
97311W        W40249  21.039  28.390  27.449  0.1291  0.1749  0.1124
97312W        W40250  21.968  29.165  29.958 -0.0125 -0.0303  0.0969
97313W        W40251  23.403  32.304  29.612 -0.1344  0.2431 -0.1827
97314W        W40252  20.688  30.025  28.266  0.0896  0.1056 -0.0959
97315W        W40253  17.790  29.504  30.564  0.0709 -0.0851 -0.1661
97316W        W40254  20.774  29.113  30.967  0.0289  0.0634 -0.0880
97317W        W40255  17.870  30.499  27.598  0.1612 -0.2026 -0.0849
97318W        W40256  20.441  28.293  31.747 -0.3047  0.1684 -0.1908
97319W        W40257  20.105  31.582  28.014  0.2536  0.0014  0.0665
97320W        W40258  20.747  32.938  29.803  0.3637 -0.1185 -0.2110
97321W        W40259  20.546  29.213  28.417 -0.4008  0.1232 -0.2152
97322W        W40260  19.112  30.506  29.828 -0.0491 -0.1211 -0.4883
97323W        W40261  17.854  34.026  30.197  0.2018  0.4257 -0.0336
97324W        W40262  18.925  30.674  27.483 -0.1641 -0.0466  0.2333
97325W        W40263  19.857  30.557  29.871  0.3516  0.6402  0.1577
97326W        W40264  18.818  32.249  29.659 -0.1720  0.3092 -0.0136
97327W        W40265  20.635  31.338  30.926  0.3227 -0.0114  0.0010
97328W        W40266  19.676  29.089  27.342  0.1465  0.0721 -0.0417
97329W        W40267  20.136  29.721  30.439  0.1514 -0.0633  0.1242
97330W        W40268  17.887  31.604  29.081 -0.1646 -0.0580 -0.1944
97331W        W40269  18.445  30.024  29.900  0.3698 -0.0992  0.1086
97332W        W40270  19.401  32.738  30.208  0.1094  0.1045 -0.2004
97333W        W40271  17.552  32.173  30.270 -0.2626  0.0455  0.2302
97334W        W40272  19.390  30.957  28.974  0.3798 -0.0627  0.2639
97335W        W40273  20.694  28.172  30.508  0.4861 -0.0331 -0.0669
97336W        W40274  20.541  29.829  29.689 -0.2886  0.5048 -0.1707
97337W        W40275  20.264  30.602  30.273  0.3772 -0.0017 -0.2660
97338W        W40276  22.844  31.112  30.460  0.4547 -0.1075  0.0793
97339W        W40277  20.006  31.077  30.262  0.4025  0.0933 -0.3414
97340W        W40278  18.575  30.850  29.554 -0.0879  0.1135 -0.2290
97341W        W40279  19.959  32.025   0.383  0.4921 -0.2546  0.1397
97342W        W40280  22.025  30.508  30.192 -0.2797  0.1910  0.1695
97343W        W40281  19.200  31.157  30.283  0.0832  0.0916  0.0831
97344W        W40282  18.688  29.273  31.930 -0.1612 -0.0711 -0.0071
97345W        W40283  20.193  29.248   0.026 -0.1913 -0.1482  0.1475
97346W        W40284  20.955  29.949  29.933 -0.0163 -0.0334 -0.0421
97347W        W40285  18.449  29.407  27.517 -0.2907  0.0048 -0.0478
97348W        W40286  20.343  31.656  28.482  0.2443 -0.0270 -0.0080
97349W        W40287  18.969  31.818   0.726 -0.1268  0.2192 -0.5636
97350W        W40288  18.029  31.304  30.492  0.2236 -0.0597  0.3933
97351W        W40289  17.658  32.603  28.602 -0.0220  0.1074 -0.0380
97352W        W40290  21.132  30.448  29.937 -0.1801  0.1863 -0.2603
97353W        W40291  20.621  30.231  27.493  0.0052 -0.0764  0.2960
97354W        W40292  19.637  32.268  29.597  0.4458 -0.2559 -0.1329
97355W        W40293  19.910  29.848  28.085 -0.2991 -0.0729  0.1761
97356W        W40294  18.475  31.868  29.608 -0.3607  0.0702  0.3644
97357W        W40295  19.522  32.146  28.258  0.2261  0.0564  0.0088
97358W        W40296  20.992  30.287  28.802 -0.2722 -0.2425 -0.2654
97359W        W40297  19.226  32.632  28.686 -0.1123  0.5120  0.1021
97360W        W40298  20.673  30.606  30.791  0.0678 -0.1773  0.0026
97361W        W40299  20.189  29.086  27.983  0.0005 -0.1419 -0.1539
97362W        W40300  21.709  29.963  29.063 -0.2230 -0.1422 -0.0100
97363W        W40301  20.943  30.706  29.562 -0.1243 -0.0280  0.1126
97364W        W40302  21.573  32.611  30.993  0.1832  0.1579  0.1796
97365W        W40303  19.327  30.226  30.927  0.0277  0.2165 -0.1980
97366W        W40304  20.036  29.396  28.427  0.2013 -0.1703 -0.1396
97367W        W40305  18.748  30.332  31.109  0.0258 -0.0175  0.0593
97368W        W40306  22.422  29.056  30.206 -0.0424  0.1492 -0.0254
97369W        W40307  18.265  30.929  29.973  0.2083  0.1376  0.1334
97370W        W40308  21.199  31.523  27.946 -0.0571  0.0109  0.1523
97371W        W40309  19.079  29.784  27.545  0.4882  0.4298  0.1361
97372W        W40310  20.289  30.817  28.896 -0.1173 -0.0009  0.3482
97373W        W40311  21.393  28.215  29.601 -0.2485 -0.2716  0.4424
97374W        W40312  19.972  31.317  28.424 -0.2995 -0.0865  0.0677
97375W        W40313  20.864  29.256  29.030  0.1423  0.0167  0.1617
97376W        W40314  20.428  33.372  28.325  0.3294  0.4034  0.1748
97377W        W40315  18.065  31.962  29.861  0.1007 -0.3532 -0.1684
97378W        W40316  19.182  32.374  29.141  0.2678 -0.1186 -0.0885
97379W        W40317  17.653  29.926  27.721  0.0651  0.0051  0.1432
97380W        W40318  21.086  29.944  31.435  0.0031 -0.3228  0.0755
97381W        W40319  19.976  30.217  30.445 -0.2350 -0.4272  0.1303
97382W        W40320  22.170  29.962  30.428 -0.0261  0.1005 -0.1731
97383W        W40321  20.314  32.120  28.817  0.1521  0.1413 -0.0773
97384W        W40322  21.160  29.421  30.055 -0.1156  0.1332 -0.0783
97385W        W40323  19.533  30.748  30.171  0.2060  0.1118 -0.1259
97386W        W40324  17.841  32.059  30.659 -0.2984  0.1821  0.1695
97387W        W40325  21.464  30.490  28.775 -0.3188  0.1631 -0.1531
97388W        W40326  21.623  30.842  31.976  0.1122  0.2989  0.0588
97389W        W40327  20.175  30.087  27.301  0.0868 -0.2613  0.1631
97390W        W40328  20.842  31.929  30.136 -0.0657 -0.1930 -0.1220
97391W        W40329  16.796  29.044  28.956  0.2806 -0.1774  0.1181
97392W        W40330  19.500  30.454  29.503 -0.0176  0.0781  0.1356
97393W        W40331  19.835  30.867  28.698  0.2019  0.1375 -0.6956
97394W        W40332  19.502  30.077  30.021 -0.2167  0.0188 -0.1144
97395W        W40333  21.229  32.097  31.113 -0.1045  0.2181 -0.2009
97396W        W40334  17.630  29.147  27.585  0.1230 -0.0340 -0.0308
97397W        W40335  21.173  30.843  28.992 -0.2661  0.1531  0.1925
97398W        W40336  21.631  30.060  31.265  0.0954 -0.1549  0.2275
97399W        W40337  19.747  31.807  28.692  0.2906  0.1894  0.4679
97400W        W40338  21.085  31.400  28.954 -0.1315  0.1906  0.3645
97401W        W40339  20.749  31.443  30.443  0.2287 -0.1442  0.0717
97402W        W40340  18.057  30.637  29.196 -0.1582  0.2021  0.0210
97403W        W40341  20.122  32.773  30.395  0.2623 -0.0974 -0.2847
97404W        W40342  21.132  31.725  30.489  0.2688 -0.2943  0.0352
97405W        W40343  20.413  29.555  28.072 -0.2944 -0.0527  0.2340
97406W        W40344  20.719  29.565  30.283 -0.0064  0.3071  0.0188
97407W        W40345  18.296  30.592  28.175  0.1353  0.0064 -0.1341
97408W        W40346  21.445  29.551  30.585 -0.1859 -0.0771  0.0605
97409W        W40347  20.410  28.516  30.244  0.0571  0.1462  0.2137
97410W        W40348  20.053  31.786  27.474  0.0589  0.3967 -0.2717
97411W        W40349  20.580  28.905   0.166  0.0718 -0.0485 -0.4549
97412W        W40350  19.431  31.020  30.705 -0.1147 -0.2277 -0.1345
97413W        W40351  20.265  31.795   0.776 -0.0008  0.1836  0.1902
97414W        W40352  18.679  30.916  28.239 -0.0022  0.0835 -0.1071
97415W        W40353  20.588  30.548  31.314  0.0309  0.1468 -0.2887
97416W        W40354  20.113  31.598  28.953 -0.1993  0.0161 -0.1554
97417W        W40355  21.912  31.366  28.223  0.0055 -0.3808 -0.0043
97418W        W40356  20.872  32.573  30.177 -0.0588  0.2045 -0.2042
97419W        W40357  20.072  29.599  29.512 -0.4144  0.1047  0.2232
97420W        W40358  22.527  31.038  29.628 -0.3706 -0.1942  0.1010
97421W        W40359  19.974  28.584  30.065 -0.0703  0.1765 -0.2669
97422W        W40360  20.548  29.656  28.656  0.0141  0.0174 -0.2965
97423W        W40361  20.933  28.515  28.067 -0.0868 -0.1635  0.1473
97424W        W40362  18.645  30.498  30.068 -0.2419 -0.2683  0.1780
97425W        W40363  19.449  28.940  26.923  0.0688 -0.1404  0.4057
97426W        W40364  19.199  30.201  27.072 -0.2143 -0.1737  0.1403
97427W        W40365  18.896  31.064  29.146  0.1202 -0.0762  0.1856
97428W        W40366  20.287  28.286  31.245 -0.0702  0.1031  0.2628
97429W        W40367  19.106  30.127  31.784 -0.3132 -0.1043  0.2697
97430W        W40368  19.138  31.762  28.240 -0.2039  0.1129  0.1541
97431W        W40369  18.104  29.757  27.296  0.0503  0.0796 -0.0432
97432W        W40370  21.653  30.557  29.739  0.3203  0.1687  0.1069
97433W        W40371  19.055  30.539  29.335 -0.4270 -0.0572  0.1701
97434W        W40372  17.803  29.195  28.119 -0.1343 -0.3180 -0.0236
97435W        W40373  20.155  32.876  29.788  0.2496  0.2661  0.0317
97436W        W40374  20.454  30.796  29.489 -0.1676 -0.0748 -0.2576
97437W        W40375  19.225  29.683  28.719  0.4640 -0.2774  0.1881
97438W        W40376  19.196  31.428  30.823 -0.0317 -0.2154 -0.0386
97439W        W40377  18.213  31.440  28.375 -0.2642  0.1198 -0.1667
97440W        W40378  20.767  29.782  31.801  0.2360  0.1932  0.1332
97441W        W40379  19.770  27.697  30.507  0.0113  0.0036  0.1644
97442W        W40380  18.858  29.378  27.328 -0.1304 -0.2708  0.0636
97443W        W40381  19.837  30.074  29.242 -0.1326  0.0900  0.0781
97444W        W40382  20.326  31.992  30.235  0.3834  0.2197 -0.0823
97445W        W40383  20.923  34.337  27.560 -0.1188  0.0905  0.0607
97446W        W40384  19.280  31.932  28.779 -0.1199 -0.2510 -0.0855
97447W        W40385  18.867  32.930  30.203 -0.0925  0.3250 -0.0402
97448W        W40386  19.065  28.415  30.434  0.0089 -0.0100  0.0278
97449W        W40387  21.316  30.922  28.568 -0.0259 -0.0401 -0.0236
97450W        W40388  19.094  30.694  30.845  0.4098  0.1050  0.0295
97451W        W40389  21.356  30.955  29.434  0.1571 -0.0168 -0.3702
97452W        W40390  21.910  29.610  30.226  0.0865  0.3333 -0.1786
97453W        W40391  18.786  30.075  28.546  0.2091 -0.1016 -0.0646
97454W        W40392  18.469  28.290  29.841  0.5146  0.1023  0.0653
97455W        W40393  18.832  31.503  29.349 -0.0935  0.1487 -0.0908
97456W        W40394  21.793  31.109  29.666 -0.1115  0.1170 -0.0917
97457W        W40395  19.124  29.149  28.594  0.1676 -0.1072 -0.0734
97458W        W40396  20.281  29.341  28.904  0.1134 -0.2021 -0.1063
97459W        W40397  19.718  30.646  27.604 -0.1062  0.1863  0.0080
97460W        W40398  19.862  29.840  31.933 -0.1507  0.0742  0.1079
97461W        W40399  20.007  28.817  28.630 -0.1061  0.0458  0.0953
97462W        W40400  20.617  28.948   0.768  0.2580 -0.1246 -0.0609
97463W        W40401  20.964  33.235  28.402  0.0600  0.0175 -0.0153
97464W        W40402  19.850  32.208  30.999  0.0165 -0.1534  0.0595
97465W        W40403  19.989  31.284  27.500  0.2905  0.0247 -0.2164
97466W        W40404  20.050  30.363  28.863 -0.4146 -0.1513  0.3408
97467W        W40405  20.478  33.104  30.192  0.2050 -0.0835 -0.2084
97468W        W40406  19.374  32.362   0.875 -0.0909 -0.0978  0.1216
97469W        W40407  20.580  32.497  30.674  0.1229  0.0073  0.1415
97470W        W40408  21.334  31.878  29.896 -0.0482  0.0534 -0.0920
97471W        W40409  18.883  29.064  29.008  0.2830  0.2444  0.0262
97472W        W40410  19.665  30.956  28.080 -0.1569  0.0886 -0.0195
97473W        W40411  18.963  30.992  28.678 -0.1190 -0.0890  0.0758
97474W        W40412  18.907  29.701  30.546 -0.0518 -0.0156 -0.1048
97475W        W40413  19.562  30.951  29.426 -0.2880  0.1566 -0.2015
97476W        W40414  21.064  28.030  28.373 -0.0352 -0.2687  0.0344
97477W        W40415  19.726  32.416  29.086 -0.1511 -0.0118 -0.2462
97478W        W40416  18.916  31.546  29.869  0.1752  0.0510 -0.1437
97479W        W40417  20.855  30.893  31.604 -0.0764 -0.1340 -0.2573
97480W        W40418  20.674  30.158   0.127  0.0480  0.0705 -0.0671
97481W        W40419  19.568  30.762  31.120 -0.3448  0.1191  0.2854
97482W        W40420  19.382  30.888  31.774  0.2274 -0.0186 -0.0710
97483W        W40421  20.113  31.667   0.074  0.2458  0.2248  0.1891
97484W        W40422  17.337  32.645   0.435 -0.6081  0.0867 -0.0815
97485W        W40423  21.447  31.288   0.818 -0.1337 -0.1219 -0.0718
97486W        W40424  20.963  30.900  31.051  0.0606 -0.0984  0.0389
97487W        W40425  20.867  31.204   0.469  0.4233  0.2351 -0.1190
97488W        W40426  20.598  32.178  31.682 -0.0187 -0.2603  0.1223
97489W        W40427  20.208  32.769  31.858 -0.0041 -0.0012 -0.0694
97490W        W40428  19.054  29.859  31.136  0.1475 -0.1423 -0.2823
97491W        W40429  19.954  31.168  30.774  0.0178 -0.0077  0.2971
97492W        W40430  18.959  30.730   0.017  0.0056 -0.1611  0.1665
97493W        W40431  20.554  31.544  29.996  0.0374  0.0928 -0.1421
97494W        W40432  20.546  31.231   0.801  0.1520  0.0459 -0.0115
97495W        W40433  17.064  31.920  31.929 -0.2255 -0.2841 -0.0414
97496W        W40434  21.532  31.702  30.880  0.0207  0.3443 -0.1538
97497W        W40435  19.019  29.470  31.487  0.2489  0.0397 -0.1030
97498W        W40436  19.985  31.377   0.532  0.0143 -0.2473  0.3032
97499W        W40437  20.350  29.456  30.876 -0.2761 -0.0962 -0.0842
97500W        W40438  19.150  31.376  31.345  0.2595  0.2125  0.2557
97501W        W40439  21.192  30.494   0.093 -0.2276  0.0627 -0.1296
97502W        W40440  19.550  29.914  31.335  0.1485 -0.1070  0.2396
97503W        W40441  20.618  29.514   1.921  0.1148 -0.0111  0.1048
97504W        W40442  21.068  28.778  31.902 -0.3165  0.1745 -0.0334
97505W        W40443  20.881  30.341  31.678  0.1520  0.0792  0.0027
97506W        W40444  19.052  31.770   0.166 -0.0421  0.2487  0.1240
97507W        W40445  18.583  30.251   0.078  0.1144  0.1721 -0.0313
97508W        W40446  19.848  31.707  30.808 -0.2192  0.1837 -0.2186
97509W        W40447  19.800  30.324  31.009  0.1236  0.0266 -0.0401
97510W        W40448  19.726  28.317   0.334 -0.0180  0.3020 -0.0539
97511W        W40449  21.401  31.872   1.411  0.1589 -0.0342  0.0673
97512W        W40450  21.415  29.532   0.256 -0.4297 -0.0595 -0.3200
97513W        W40451  18.488  28.351  31.528 -0.2057  0.0008 -0.0186
97514W        W40452  19.501  30.763   0.688  0.0254 -0.1199  0.2032
97515W        W40453  19.760  31.247   0.011 -0.1877  0.0265  0.0607
97516W        W40454  20.430  30.914   0.390 -0.0206  0.0363 -0.3944
97517W        W40455  21.358  31.707  31.398  0.1566  0.2200  0.1773
97518W        W40456  19.837  28.770   0.488  0.1213 -0.0468  0.1177
97519W        W40457  21.271  28.606   0.672 -0.1107  0.2345  0.2932
97520W        W40458  21.163  29.794   1.162 -0.1829 -0.0881  0.0027
97521W        W40459  20.498  28.755  31.096  0.0971 -0.0749  0.0252
97522W        W40460  20.925  32.384   0.879  0.3751 -0.1632  0.1123
97523W        W40461  20.356  29.894   0.552  0.1802 -0.1399 -0.0855
97524W        W40462  19.960  29.485   0.386 -0.0682  0.2006  0.0029
97525W        W40463  19.401  28.763  31.419 -0.4256 -0.2287 -0.1157
97526W        W40464  18.668  31.919   1.104  0.2582  0.1391 -0.0365
97527W        W40465  21.407  31.455   0.307 -0.2211 -0.0509  0.1830
97528W        W40466  18.024  32.643  31.491  0.4183  0.2696  0.1376
97529W        W40467  20.516  31.251  31.414 -0.1519  0.0489  0.0373
97530W        W40468  21.859  29.268   0.387  0.2169  0.1105 -0.0452
97531W        W40469  20.786  28.307  30.957 -0.1727 -0.3021  0.0596
97532W        W40470  20.301  30.309  30.804 -0.0672 -0.0567  0.0588
97533W        W40471  21.062  28.728  31.090 -0.5212 -0.1998  0.0712
97534W        W40472  20.938  29.063  31.445 -0.0659 -0.1060 -0.1092
97535W        W40473  21.550  31.217  31.313 -0.0064  0.1363  0.0374
97536W        W40474  18.458  32.941  31.688  0.1782  0.1770  0.0894
97537W        W40475  18.735  32.156  31.328 -0.0201  0.2019  0.1265
97538W        W40476  17.516  32.743  31.769 -0.2241 -0.1389 -0.1939
97539W        W40477  18.266  32.501  31.962 -0.0435 -0.0420  0.0621
97540W        W40478  18.368  30.839   0.883 -0.0480  0.1317 -0.2164
97541W        W40479  18.497  31.673  31.211  0.1119  0.2484  0.0801
97542W        W40480  17.812  29.587  31.412 -0.0407  0.1432  0.0263
97543W        W40481  21.305  31.230  31.775 -0.2450  0.1611 -0.1766
97544W        W40482  20.316  31.113  31.908  0.1248  0.0340  0.0464
97545W        W40483  20.477  31.846  30.764  0.0628 -0.5107 -0.2048
97546W        W40484  18.943  34.007  16.197  0.1028 -0.1306  0.1164
97547W        W40485  20.259  33.533  16.634 -0.0607  0.2813  0.1338
97548W        W40486  21.934   1.041  16.226 -0.0003 -0.0786 -0.0242
97549W        W40487  17.688  31.593  17.371  0.1308  0.1529 -0.0562
97550W        W40488  18.184  31.333  18.321  0.3203 -0.1664 -0.1214
97551W        W40489  21.848   0.776  16.650  0.0431  0.1626 -0.1548
97552W        W40490  19.562  34.121  18.206 -0.2477 -0.0734 -0.0069
97553W        W40491  19.351  32.527  17.233  0.1718  0.1145 -0.1454
97554W        W40492  19.271  31.368  17.218 -0.1065  0.1176  0.0159
97555W        W40493  20.274  34.075  17.656 -0.2966 -0.0681 -0.1476
97556W        W40494  18.342   0.212  17.070  0.0233  0.2109  0.2598
97557W        W40495  18.845   0.769  19.229 -0.0927  0.1298 -0.0223
97558W        W40496  19.010  33.504  16.290 -0.1064 -0.1295 -0.0447
97559W        W40497  18.883  34.395  19.002  0.1375  0.1063  0.2717
97560W        W40498  18.868  32.944  19.541  0.1269 -0.1361  0.1367
97561W        W40499  18.155  33.883  16.019 -0.0578  0.4100  0.0652
97562W        W40500  18.910  34.248  16.746  0.0939  0.1522  0.0041
97563W        W40501  19.328   0.090  16.197 -0.2459 -0.0548  0.0219
97564W        W40502  21.791  34.442  18.141 -0.1963 -0.2509  0.2342
97565W        W40503  21.244   0.511  18.144 -0.1442  0.0137 -0.2285
97566W        W40504  21.434   0.619  19.334 -0.0004  0.3256 -0.3449
97567W        W40505  21.101   0.692  16.745  0.1523 -0.1090  0.0399
97568W        W40506  21.359  34.240  18.145 -0.2118  0.1271  0.2932
97569W        W40507  21.120  33.838  20.516  0.3553 -0.0414  0.2014
97570W        W40508  20.366   0.836  16.855  0.0679 -0.0863  0.1217
97571W        W40509  18.893  32.921  15.713 -0.0033 -0.2377 -0.2055
97572W        W40510  22.275  33.207  16.621 -0.3046 -0.1186  0.0240
97573W        W40511  19.729  32.592  18.549 -0.0158  0.3310  0.2411
97574W        W40512  19.231  33.826  18.440  0.0907 -0.3004 -0.0221
97575W        W40513  19.779  33.606  16.701 -0.0749 -0.1050 -0.2612
97576W        W40514  19.766  33.766  17.872  0.2945  0.0288 -0.0164
97577W        W40515  17.976  33.098  17.741 -0.0522  0.2290 -0.2577
97578W        W40516  18.854  33.956  18.091  0.1387 -0.0555  0.3487
97579W        W40517  18.651  34.074  20.906 -0.0559 -0.1759  0.3430
97580W        W40518  19.093   0.221  17.569 -0.0833 -0.0770  0.0807
97581W        W40519  20.906  31.819  16.210  0.2656 -0.1578 -0.1607
97582W        W40520  21.225  32.884  18.236  0.0025 -0.3209  0.0491
97583W        W40521  20.485  34.499  17.681 -0.1000  0.0333 -0.0761
97584W        W40522  19.419  32.808  18.282 -0.1482 -0.0346 -0.1580
97585W        W40523  22.374   0.073  16.633  0.0242  0.1090  0.2878
97586W        W40524  20.076  33.834  19.067  0.0804 -0.1323  0.2112
97587W        W40525  17.850  31.745  18.220  0.0322 -0.0447  0.0686
97588W        W40526  20.962  33.194  18.599 -0.0591 -0.3121  0.0419
97589W        W40527  19.219  32.958  16.778  0.0561 -0.4035 -0.0227
97590W        W40528  22.507  32.171  17.857  0.1422 -0.2015 -0.0414
97591W        W40529  21.772  33.357  18.605 -0.4562 -0.1564 -0.2298
97592W        W40530  18.087  34.341  17.052  0.0619 -0.1744 -0.0690
97593W        W40531  18.558  32.417  17.484  0.1292  0.4440  0.0491
97594W        W40532  19.599   0.471  18.918  0.3113  0.0668 -0.0194
97595W        W40533  18.227  30.720  17.193  0.1246 -0.2977 -0.0523
97596W        W40534  20.914   0.492  18.537 -0.0431 -0.0045  0.1375
97597W        W40535  18.024  31.472  16.613  0.0139 -0.1324 -0.0950
97598W        W40536  19.255  33.991  17.793  0.1109 -0.2227  0.0356
97599W        W40537  20.177   0.661  16.186 -0.2994  0.1372 -0.1355
97600W        W40538  20.499  33.396  18.866 -0.1292 -0.3953 -0.0867
97601W        W40539  18.859  33.722  16.876 -0.1243  0.1739 -0.0968
97602W        W40540  18.777  34.248  15.704 -0.1309 -0.0906  0.2050
97603W        W40541  19.272  32.862  17.725  0.0226 -0.3527  0.0969
97604W        W40542  20.808  34.517  17.053 -0.1479  0.1591 -0.1673
97605W        W40543  19.743  34.177  17.521 -0.3849 -0.1762  0.2306
97606W        W40544  18.447  32.647  15.407  0.0649 -0.0594 -0.0269
97607W        W40545  18.232   0.653  18.228 -0.1975 -0.0474 -0.0773
97608W        W40546  22.413  32.345  20.252 -0.0176  0.1011  0.0970
97609W        W40547  18.198   0.089  20.579  0.1072 -0.3089  0.2391
97610W        W40548  20.046  34.498  18.039 -0.4611  0.0545 -0.3866
97611W        W40549  18.400  33.098  16.409 -0.0098  0.2495 -0.0435
97612W        W40550  19.247  33.507  18.054  0.0161 -0.0180  0.1762
97613W        W40551  21.542   0.482  16.358  0.2594 -0.2662 -0.2374
97614W        W40552  20.174  34.164  16.281 -0.0330 -0.4339  0.2269
97615W        W40553  21.056  33.090  16.309  0.2086 -0.0800 -0.1547
97616W        W40554  19.785  33.307  17.258  0.0433 -0.1706  0.2051
97617W        W40555  19.112  33.917  19.058 -0.2590 -0.0217  0.0296
97618W        W40556  18.816  34.528  16.254  0.1612  0.0136  0.3826
97619W        W40557  19.661  33.258  17.823 -0.1431 -0.0466  0.2037
97620W        W40558  20.097  33.511  18.134 -0.1261  0.2232 -0.2843
97621W        W40559  19.555  33.613  18.904 -0.1919  0.3425 -0.0201
97622W        W40560  19.760  33.356  19.333 -0.2709 -0.1478  0.0408
97623W        W40561  20.834   0.713  19.487 -0.0364 -0.0010  0.0106
97624W        W40562  21.687  33.632  15.996 -0.0069 -0.0719  0.0397
97625W        W40563  20.624  33.674  17.398 -0.0526 -0.3346  0.1043
97626W        W40564  19.467  33.972  16.128 -0.0691  0.0470  0.3129
97627W        W40565  18.646  34.410  18.384  0.2233  0.1719  0.1061
97628W        W40566  20.054  33.261  19.728 -0.0208 -0.0915 -0.0034
97629W        W40567  20.082  34.004  18.205 -0.0148  0.0595  0.1015
97630W        W40568  18.571  32.718  18.333 -0.1137  0.0214 -0.0175
97631W        W40569  22.054  33.686  17.533  0.1303  0.0461  0.0982
97632W        W40570  19.410   1.312  17.815  0.0475 -0.3269  0.0154
97633W        W40571  18.139  34.414  16.395 -0.2271 -0.1501 -0.0318
97634W        W40572  19.236  33.479  17.561  0.1985 -0.0360  0.3119
97635W        W40573  17.877  32.288  18.046  0.0857 -0.1455 -0.0358
97636W        W40574  19.885  33.101  18.410  0.4188 -0.3625 -0.0953
97637W        W40575  21.124  34.075  18.979  0.0066 -0.4186 -0.1508
97638W        W40576  21.455  32.846  16.577  0.1411  0.2357 -0.0311
97639W        W40577  19.772  34.494  18.946  0.0632 -0.0714 -0.1633
97640W        W40578  17.657  31.929  17.714  0.1560 -0.0571  0.2312
97641W        W40579  21.080  32.742  18.817 -0.1277 -0.0163 -0.0355
97642W        W40580  18.330  31.855  18.109 -0.4784 -0.2948 -0.0861
97643W        W40581  19.705  34.425  16.126 -0.0876  0.1459  0.1784
97644W        W40582  18.607  33.861  18.547 -0.3930  0.2182 -0.3248
97645W        W40583  20.261   0.284  18.228 -0.4930 -0.1755 -0.0413
97646W        W40584  19.448  33.316  16.492  0.0088  0.0725  0.0327
97647W        W40585  19.499  32.414  17.854 -0.2086 -0.1856 -0.3005
97648W        W40586  19.712  33.693  18.386 -0.0624 -0.0190 -0.1705
97649W        W40587  20.589  32.304  18.292 -0.1169  0.1190  0.1193
97650W        W40588  21.314   0.917  17.848 -0.0394  0.3508 -0.1515
97651W        W40589  18.657  32.850  17.704 -0.0118 -0.2079  0.1105
97652W        W40590  21.402  33.377  17.304 -0.0801 -0.0202  0.0633
97653W        W40591  19.837  32.787  17.994  0.0276  0.2390  0.1254
97654W        W40592  20.884  33.677  18.646 -0.0177 -0.1652 -0.2801
97655W        W40593  20.184  34.602  16.531  0.0618  0.0026  0.1090
97656W        W40594  20.677  33.267  19.755  0.3918  0.0732 -0.0634
97657W        W40595  18.974  32.113  18.244 -0.0690 -0.1049  0.1300
97658W        W40596  17.252   0.472  17.723  0.2648 -0.1273 -0.0277
97659W        W40597  18.023  34.186  18.720 -0.1796  0.0293 -0.1580
97660W        W40598  20.418  34.241  16.791 -0.1717 -0.1217  0.0618
97661W        W40599  18.908  31.883  15.413 -0.2286  0.0202  0.1354
97662W        W40600  18.958   1.986  18.759 -0.1021  0.1067  0.0367
97663W        W40601  20.934  33.420  17.135  0.0833 -0.3133  0.1122
97664W        W40602  18.269   0.679  19.519  0.0280  0.0580 -0.1261
97665W        W40603  20.794  34.052  17.713 -0.0310 -0.2621  0.1113
97666W        W40604  18.908  33.257  17.260 -0.0640 -0.1925  0.1482
97667W        W40605  21.420   0.061  17.805  0.2631 -0.2281  0.2226
97668W        W40606  20.007  32.618  18.960 -0.0914 -0.1052 -0.4330
97669W        W40607  20.410  33.863  18.619  0.0792 -0.2083  0.2668
97670W        W40608  19.596  34.579  18.414 -0.1639 -0.0376 -0.1201
97671W        W40609  16.962  33.649  19.550  0.0386 -0.1242 -0.0059
97672W        W40610  21.064  32.753  15.519  0.0169  0.0413 -0.1092
97673W        W40611  19.258  32.372  20.643 -0.0882  0.0459  0.3489
97674W        W40612  20.925  34.117  16.611 -0.2311 -0.0707  0.1001
97675W        W40613  20.178   0.372  16.697  0.3513 -0.0665  0.3427
97676W        W40614  17.534  33.142  17.463  0.0049  0.4769 -0.2444
97677W        W40615  21.668   0.648  19.756  0.0180 -0.2155  0.2301
97678W        W40616  18.617  33.779  15.784 -0.0340 -0.2881  0.0107
97679W        W40617  20.398  34.540  20.212  0.2770 -0.1433 -0.2676
97680W        W40618  19.799  34.137  16.558  0.0849  0.1111  0.2599
97681W        W40619  18.161  32.562  17.763  0.2370  0.2655  0.1155
97682W        W40620  18.639  33.306  15.946 -0.0821  0.0366  0.2173
97683W        W40621  20.141  34.532  15.871 -0.3924 -0.1181 -0.0811
97684W        W40622  20.405  33.024  16.352  0.2675 -0.1275 -0.0874
97685W        W40623  20.596   0.136  18.679 -0.3573 -0.1667 -0.0239
97686W        W40624  19.444  31.575  17.687  0.1637  0.0093  0.1105
97687W        W40625  20.413  32.738  17.758 -0.0253 -0.0802 -0.0631
97688W        W40626  20.626   0.270  16.883  0.1459 -0.0086 -0.0499
97689W        W40627  19.953  34.049  17.040  0.0439 -0.0229 -0.1721
97690W        W40628  22.067   0.682  18.324 -0.0347  0.0160 -0.0395
97691W        W40629  20.330  34.602  17.152  0.1401  0.0807  0.2614
97692W        W40630  16.840   0.183  17.813 -0.0020 -0.2418  0.1398
97693W        W40631  19.654  33.431  16.002 -0.1206  0.1938 -0.0493
97694W        W40632  19.884  33.992  15.859 -0.2992  0.0622  0.3951
97695W        W40633  21.149  32.665  16.098 -0.1286  0.2438  0.3294
97696W        W40634  22.335   0.872  17.225 -0.1233  0.3003  0.0060
97697W        W40635  21.889  33.507  18.138 -0.1581  0.1117  0.1536
97698W        W40636  20.543  33.683  17.912 -0.0215 -0.1754  0.2693
97699W        W40637  20.616  33.402  16.174  0.1162 -0.0888  0.1434
97700W        W40638  19.498   0.096  19.607  0.0201  0.1179 -0.2317
97701W        W40639  20.803  32.776  19.618  0.1309  0.3191 -0.0515
97702W        W40640  19.291  34.345  16.388 -0.0493  0.1849 -0.0645
97703W        W40641  19.715  32.870  17.526  0.2234 -0.2516 -0.2560
97704W        W40642  21.304  32.235  19.010 -0.0651  0.0761  0.1621
97705W        W40643  20.672   0.632  17.199 -0.1629 -0.0273 -0.0007
97706W        W40644  18.437  33.304  17.535  0.2045  0.2910  0.0186
97707W        W40645  21.822  33.548  17.078 -0.2555  0.0989  0.2018
97708W        W40646  19.463   0.846  18.482  0.0476 -0.1675 -0.1302
97709W        W40647  21.500  32.984  18.841 -0.0258 -0.0225  0.2101
97710W        W40648  18.131  33.361  16.098  0.2541  0.2817  0.2259
97711W        W40649  21.456  33.676  16.509  0.1231  0.3235  0.3398
97712W        W40650  19.731   0.614  19.419 -0.2273  0.1362 -0.2415
97713W        W40651  21.453  34.683  16.383  0.0623 -0.0257 -0.1275
97714W        W40652  21.581   1.485  17.626 -0.4548 -0.1640 -0.1397
97715W        W40653  20.991   1.003  17.165 -0.1270 -0.1102  0.1777
97716W        W40654  17.861  32.305  17.422  0.0343 -0.0107  0.3401
97717W        W40655  20.309  33.304  17.179  0.0132 -0.2555  0.0271
97718W        W40656  18.821   0.380  16.251 -0.2452 -0.0424 -0.0705
97719W        W40657  20.623   1.468  18.372  0.1447 -0.0626  0.0375
97720W        W40658  18.897  32.930  16.231  0.0166 -0.2037  0.0668
97721W        W40659  21.548   0.716  17.103 -0.0020 -0.2049 -0.2016
97722W        W40660  21.890   1.911  17.569  0.1336  0.2333 -0.1018
97723W        W40661  17.179  33.815  19.112  0.2711  0.1967 -0.0611
97724W        W40662  21.273  33.259  16.770  0.0154  0.4354  0.0017
97725W        W40663  18.308  31.020  17.690  0.2495 -0.0472 -0.0979
97726W        W40664  20.644  33.801  16.940  0.3887 -0.0566 -0.0634
97727W        W40665  20.511  33.724  19.981 -0.1841  0.4644  0.2755
97728W        W40666  20.202  31.970  19.549 -0.2631  0.1009  0.2404
97729W        W40667  19.386  34.185  16.841  0.1965  0.0647  0.0703
97730W        W40668  19.979  32.411  17.613 -0.0165 -0.0278  0.0473
97731W        W40669  21.714  32.828  18.378  0.1903 -0.0475 -0.1752
97732W        W40670  21.216  33.746  16.899  0.0993  0.1088 -0.0903
97733W        W40671  18.753   1.462  18.508  0.1654  0.0360  0.2390
97734W        W40672  17.538  33.604  16.369 -0.2366  0.1508  0.0499
97735W        W40673  18.608  33.563  20.801 -0.0572  0.1448  0.3507
97736W        W40674  18.784  34.230  17.648 -0.1189 -0.0285  0.0406
97737W        W40675  19.320  33.778  16.557 -0.3302 -0.0631  0.2829
97738W        W40676  17.290  32.157  17.256  0.1162 -0.0707 -0.0829
97739W        W40677  18.192  32.049  17.689 -0.0917 -0.0408 -0.0397
97740W        W40678  17.658  32.715  17.790  0.1844 -0.3462  0.1388
97741W        W40679  19.644  31.809  16.348 -0.1212  0.1622  0.0510
97742W        W40680  18.872  33.027  18.872  0.1740  0.3211  0.1192
97743W        W40681  19.027  32.460  18.594  0.1713  0.2027  0.1584
97744W        W40682  17.938  31.235  15.538 -0.1861  0.5065  0.2018
97745W        W40683  20.105   0.772  17.856 -0.1881  0.1962  0.1547
97746W        W40684  17.667  32.826  19.312 -0.2381  0.1219  0.5075
97747W        W40685  19.491  32.788  19.297  0.1004  0.0958 -0.4225
97748W        W40686  21.818  34.515  16.750  0.4120  0.0135  0.2042
97749W        W40687  18.813  33.512  18.280  0.0883 -0.0192  0.1352
97750W        W40688  18.885  32.773  17.221 -0.1220 -0.2905  0.1417
97751W        W40689  21.716  34.053  16.817 -0.0907  0.0956 -0.1364
97752W        W40690  18.914  33.222  17.872 -0.3087  0.0121  0.1924
97753W        W40691  19.662  32.649  16.822  0.2268 -0.1290  0.0199
97754W        W40692  20.279  34.449  19.105  0.2864  0.1622 -0.2896
97755W        W40693  18.506  34.191  16.122  0.1403 -0.0405  0.0735
97756W        W40694  21.976   0.151  16.381 -0.3471 -0.1278  0.0777
97757W        W40695  17.641  33.034  18.663 -0.0763 -0.0713 -0.2180
97758W        W40696  18.640   0.553  16.778 -0.0844  0.0016 -0.0782
97759W        W40697  20.168   0.426  17.435 -0.3424 -0.3416  0.0564
97760W        W40698  19.667  34.480  17.141 -0.0972  0.0222  0.2571
97761W        W40699  18.894  32.320  17.009 -0.0335 -0.0372  0.0789
97762W        W40700  21.278  33.917  16.070  0.1053 -0.2538 -0.1902
97763W        W40701  19.116  33.490  21.643  0.1415  0.1543 -0.1228
97764W        W40702  20.410  34.366  18.602  0.0903 -0.2978 -0.0347
97765W        W40703  21.805  33.868  22.329  0.1361 -0.0367  0.1390
97766W        W40704  18.710  32.746  20.061  0.2565  0.3574  0.1009
97767W        W40705  20.132  33.140  23.137 -0.0524  0.2542  0.1912
97768W        W40706  20.914  34.209  18.552  0.1740  0.2114  0.1026
97769W        W40707  18.309  32.597  23.668 -0.3961 -0.1563 -0.1252
97770W        W40708  19.729  33.070  20.838 -0.3387 -0.0699  0.1531
97771W        W40709  18.229  33.575  23.164 -0.1292 -0.2880  0.0521
97772W        W40710  20.466  34.358  22.156 -0.0126  0.3642 -0.0479
97773W        W40711  17.970   0.408  22.446 -0.2476  0.0041 -0.2547
97774W        W40712  19.432   0.644  22.714 -0.0247 -0.1853 -0.2053
97775W        W40713  20.227  33.764  20.879  0.0058 -0.0505 -0.4270
97776W        W40714  20.649  33.534  24.227  0.1793  0.1686 -0.0565
97777W        W40715  21.469  32.609  22.766 -0.0061  0.0467  0.0212
97778W        W40716  18.169   0.394  18.670  0.0697  0.0500 -0.2788
97779W        W40717  17.964  34.120  21.737  0.1548 -0.1523  0.0613
97780W        W40718  19.480  34.279  21.945 -0.0589  0.1308  0.0866
97781W        W40719  19.326  32.355  22.525 -0.2832  0.2431 -0.1994
97782W        W40720  20.733   0.032  22.017  0.1614 -0.0144 -0.0468
97783W        W40721  21.656  33.375  24.234  0.1062  0.1984  0.1574
97784W        W40722  20.010   0.040  22.222  0.2790  0.0050  0.0199
97785W        W40723  19.742   0.786  21.365 -0.1426  0.1524  0.0737
97786W        W40724  21.942  33.800  23.426  0.1396 -0.1212  0.3219
97787W        W40725  20.818  34.311  20.468  0.1025  0.1016  0.1622
97788W        W40726  19.695  34.063  19.985 -0.1658 -0.0072 -0.1769
97789W        W40727  20.676  33.159  20.571  0.1135  0.1797 -0.2984
97790W        W40728  19.390  33.203  21.253 -0.1436 -0.1270 -0.2194
97791W        W40729  20.666  33.977  22.899  0.3748  0.3867 -0.5171
97792W        W40730  20.644   1.056  19.187  0.0243 -0.0802  0.0155
97793W        W40731  20.495  33.596  22.629  0.0649 -0.0145 -0.1101
97794W        W40732  19.976  32.862  21.601 -0.1163 -0.2270 -0.1328
97795W        W40733  19.958  33.200  21.253 -0.2497  0.3606  0.2465
97796W        W40734  18.289   1.366  23.783 -0.3722  0.1673 -0.1222
97797W        W40735  18.648  33.720  23.538 -0.0094 -0.0748  0.2814
97798W        W40736  19.402  33.275  18.476  0.2007 -0.1454  0.0333
97799W        W40737  21.276  33.104  19.761  0.0185 -0.1874  0.0347
97800W        W40738  20.330  31.999  22.411 -0.1775 -0.2062 -0.1667
97801W        W40739  19.975  30.775  22.202 -0.1300  0.0460  0.2156
97802W        W40740  21.090   0.002  20.082  0.1950  0.0986 -0.2105
97803W        W40741  19.920  34.061  23.904  0.1273 -0.1151  0.0347
97804W        W40742  17.241   0.329  21.603 -0.2655  0.2082  0.0910
97805W        W40743  20.943  33.927  21.416 -0.2530  0.0123  0.2235
97806W        W40744  19.078  34.112  23.577  0.1425 -0.0175 -0.1690
97807W        W40745  21.325  32.670  23.323 -0.1562 -0.2567 -0.0308
97808W        W40746  21.296  33.893  21.047 -0.0368  0.1716 -0.1905
97809W        W40747  16.714   0.325  21.720  0.1277  0.1395  0.0057
97810W        W40748  18.319  33.838  21.956  0.3059  0.1307 -0.1814
97811W        W40749  19.105  33.341  23.780 -0.1653 -0.0546 -0.0977
97812W        W40750  19.714  33.257  23.314 -0.0531 -0.2425 -0.2962
97813W        W40751  21.475   0.838  23.994 -0.0107  0.1009  0.1632
97814W        W40752  16.748  33.359  19.166  0.3637 -0.2138 -0.2022
97815W        W40753  19.902  32.308  21.308 -0.2050 -0.2412 -0.4865
97816W        W40754  17.978  33.071  20.834 -0.1216  0.1531 -0.1151
97817W        W40755  21.178  33.170  23.347  0.2182 -0.0410  0.3711
97818W        W40756  19.705  32.572  24.018  0.2285  0.0479 -0.1078
97819W        W40757  18.587  32.959  20.842  0.0826 -0.0627  0.0780
97820W        W40758  17.972  33.853  19.159 -0.0646 -0.1104  0.0074
97821W        W40759  21.149  33.695  22.734  0.0413  0.3497 -0.0395
97822W        W40760  21.124   0.068  21.361  0.3383  0.2826  0.1350
97823W        W40761  17.947  31.619  18.726  0.3714  0.1592  0.0784
97824W        W40762  20.001  34.197  20.815  0.0248 -0.0511 -0.0068
97825W        W40763  20.507  32.787  22.450  0.0939 -0.1692 -0.1404
97826W        W40764  18.432   0.902  23.503  0.1484  0.1666 -0.0699
97827W        W40765  20.804   0.071  22.626  0.3212 -0.2944  0.1002
97828W        W40766  17.133  34.498  21.276  0.0062 -0.3906 -0.2226
97829W        W40767  20.079  32.301  20.781 -0.4988 -0.0149 -0.0671
97830W        W40768  20.745   0.093  20.473  0.2272 -0.0693 -0.2188
97831W        W40769  20.727  34.364  19.100  0.1914  0.0866  0.2236
97832W        W40770  20.350  33.493  19.314 -0.1180 -0.1312 -0.2071
97833W        W40771  18.922  32.258  20.133  0.3068 -0.3477  0.3412
97834W        W40772  21.393  32.186  23.543  0.2074  0.0813 -0.0677
97835W        W40773  17.933  33.494  19.645 -0.0048  0.0498  0.2475
97836W        W40774  19.445  32.433  21.652 -0.1463  0.0439 -0.2069
97837W        W40775  20.446  32.228  21.905 -0.1005  0.1135 -0.4444
97838W        W40776  21.090  32.501  24.054  0.0114  0.1710  0.1885
97839W        W40777  20.206  32.345  24.246 -0.1143  0.0876  0.0201
97840W        W40778  21.130   1.144  24.945 -0.0124 -0.0282  0.1215
97841W        W40779  21.698  34.667  20.392 -0.0416 -0.0268  0.1691
97842W        W40780  20.040   0.659  20.935  0.0960  0.0275  0.0898
97843W        W40781  18.742  34.484  19.883 -0.2305 -0.2447  0.0166
97844W        W40782  19.205  32.474  23.719 -0.0854 -0.0077  0.1941
97845W        W40783  20.472  32.894  23.574  0.1227 -0.0268  0.3418
97846W        W40784  19.071  32.498  19.140  0.0227 -0.2811  0.2703
97847W        W40785  19.762  32.898  22.881  0.2504  0.2061 -0.1721
97848W        W40786  21.044  32.292  22.955  0.0357  0.3675  0.0016
97849W        W40787  20.581  33.877  19.060 -0.1844  0.0082 -0.2155
97850W        W40788  18.302  34.195  20.021  0.1746 -0.2273  0.1059
97851W        W40789  20.408  33.258  20.994 -0.0521  0.0993  0.2103
97852W        W40790  19.209  33.025  22.468  0.0743  0.1153  0.2143
97853W        W40791  21.198  31.835  22.132  0.0355 -0.1293  0.1755
97854W        W40792  19.274  33.983  21.557 -0.1568 -0.1788 -0.1218
97855W        W40793  20.751  34.183  20.004  0.2000  0.0382  0.1836
97856W        W40794  18.852   0.091  23.067  0.0299 -0.1117  0.0442
97857W        W40795  17.395  33.476  19.790  0.1857  0.0003  0.1016
97858W        W40796  21.043  33.811  23.255 -0.1012 -0.1011 -0.0020
97859W        W40797  20.077  33.821  21.933 -0.2928 -0.1647  0.1570
97860W        W40798  17.972  33.249  19.015 -0.3953  0.3126 -0.1971
97861W        W40799  20.103  32.093  22.859 -0.2288 -0.1635  0.1424
97862W        W40800  20.096  33.683  21.373  0.0647  0.0953 -0.0121
97863W        W40801  17.805  33.859  21.351 -0.0556 -0.0257  0.2197
97864W        W40802  19.906  33.353  21.942 -0.0306  0.0147  0.2203
97865W        W40803  20.333  33.799  23.908 -0.0221  0.1790 -0.2524
97866W        W40804  20.786  32.125  23.595  0.1747 -0.0107  0.0190
97867W        W40805  21.650   1.917  24.776  0.1769  0.1986 -0.0084
97868W        W40806  20.474  32.834  22.945  0.0909  0.0782 -0.0278
97869W        W40807  21.367  34.265  20.250 -0.0370  0.3648  0.0752
97870W        W40808  19.649  34.083  21.204  0.1940  0.1388 -0.0991
97871W        W40809  22.273  33.313  22.314  0.0065 -0.0306  0.2446
97872W        W40810  19.679  31.928  20.930  0.1035 -0.1809  0.0986
97873W        W40811  21.601  33.469  23.184 -0.0437 -0.1288  0.1131
97874W        W40812  18.963  31.927  23.279 -0.1916  0.1862 -0.1690
97875W        W40813  17.935   0.134  23.595  0.0327  0.0300 -0.1743
97876W        W40814  16.671   0.751  22.933 -0.1119 -0.0213  0.1686
97877W        W40815  19.431  33.462  20.476 -0.1196  0.2095 -0.1101
97878W        W40816  18.692  33.312  19.757 -0.0698 -0.1089 -0.1638
97879W        W40817  19.010  33.527  22.656  0.1410  0.0901  0.3031
97880W        W40818  20.404  32.832  21.909  0.0731 -0.2312  0.1877
97881W        W40819  19.718  34.253  22.891  0.2867  0.1203 -0.1585
97882W        W40820  20.632  33.593  21.331 -0.0648  0.2208 -0.0734
97883W        W40821  19.771   0.195  23.523 -0.0458 -0.1880  0.0200
97884W        W40822  21.189  32.874  22.396 -0.1077 -0.0022  0.0652
97885W        W40823  21.246  32.359  22.313  0.1280 -0.0579  0.0808
97886W        W40824  20.626  33.924  23.455  0.0441  0.0046  0.1352
97887W        W40825  20.626  34.222  23.828 -0.0132  0.0138 -0.2262
97888W        W40826  19.386  33.253  22.953  0.1274 -0.1214 -0.0396
97889W        W40827  20.380  34.696  19.692  0.0420 -0.1519 -0.3169
97890W        W40828  22.218  32.936  22.716 -0.1858  0.0640 -0.1640
97891W        W40829  20.057  33.639  20.033  0.0567 -0.2473 -0.2777
97892W        W40830  20.587   0.535  19.099  0.1591  0.0256  0.3885
97893W        W40831  20.408  33.274  22.127 -0.3036  0.0732  0.0423
97894W        W40832  20.339   0.870  23.929  0.1751 -0.0680  0.0063
97895W        W40833  18.372  33.602  19.494 -0.2864 -0.0133 -0.0759
97896W        W40834  21.238  33.618  24.609 -0.3762 -0.0022 -0.0140
97897W        W40835  18.877  33.444  19.290 -0.2224 -0.1765 -0.0444
97898W        W40836  18.459  34.638  21.439  0.0053 -0.1974  0.1562
97899W        W40837  19.112  34.365  18.148  0.0929  0.0293  0.0917
97900W        W40838  19.203  34.451  17.524 -0.3965 -0.1836 -0.0958
97901W        W40839  20.357  33.099  18.106 -0.0172  0.1233  0.0675
97902W        W40840  21.656  32.999  23.604  0.3539  0.0233 -0.0774
97903W        W40841  20.106  32.510  22.134  0.2372 -0.0347  0.0634
97904W        W40842  21.504  31.679  22.545 -0.2656 -0.2521  0.0953
97905W        W40843  21.198   1.348  23.997  0.1747  0.0587  0.2006
97906W        W40844  19.977  34.507  21.284 -0.1478  0.0473 -0.0429
97907W        W40845  22.492   1.233  24.894  0.3357 -0.1556  0.0219
97908W        W40846  18.291   0.180  22.162  0.2102  0.1608  0.1746
97909W        W40847  17.887  34.264  24.234 -0.0653  0.0190 -0.1581
97910W        W40848  18.101  33.274  21.759 -0.0095  0.2078 -0.3324
97911W        W40849  18.616   0.432  19.779 -0.0973  0.0206 -0.3110
97912W        W40850  19.671  32.953  19.725  0.0582  0.1618  0.0277
97913W        W40851  20.436  34.075  19.495 -0.1221  0.2099 -0.0152
97914W        W40852  20.864  34.456  19.559 -0.3246  0.0766  0.0484
97915W        W40853  19.653  33.814  22.141  0.4486 -0.0825  0.0335
97916W        W40854  19.673  33.076  20.193 -0.0844 -0.0061  0.1355
97917W        W40855  20.090  34.496  23.114 -0.1939 -0.1277 -0.0862
97918W        W40856  22.204  32.851  23.743  0.0261 -0.1681 -0.4255
97919W        W40857  19.622  33.611  21.545  0.3548  0.2848  0.1539
97920W        W40858  19.589  34.556  20.925 -0.2107  0.0352  0.1191
97921W        W40859  21.193  33.479  21.461  0.1489 -0.0459 -0.1492
97922W        W40860  19.918  33.489  22.878 -0.0629  0.1508  0.2547
97923W        W40861  18.094  33.485  20.507 -0.3056  0.2444  0.0201
97924W        W40862  21.676  32.977  19.491 -0.0034  0.0250 -0.1233
97925W        W40863  20.148  34.084  23.440  0.0821 -0.1805  0.0460
97926W        W40864  20.644  32.504  23.349 -0.0700  0.1199 -0.1432
97927W        W40865  19.564  33.737  22.610 -0.0066  0.0892 -0.1658
97928W        W40866  20.325  34.077  20.419 -0.1554  0.1102  0.3137
97929W        W40867  18.430   0.347  22.762 -0.1409  0.2014  0.3841
97930W        W40868  19.220  33.663  20.082  0.2496  0.0596 -0.1248
97931W        W40869  21.064   0.592  23.205 -0.1365  0.0564  0.0053
97932W        W40870  18.796   0.031  19.387  0.0813 -0.1622  0.1312
97933W        W40871  17.797  32.901  22.088  0.2222  0.1744  0.3343
97934W        W40872  18.724  31.929  19.814 -0.4177 -0.4138 -0.0736
97935W        W40873  20.365   0.874  20.005  0.0360 -0.0865 -0.0547
97936W        W40874  20.352  33.639  23.129  0.2157 -0.2809  0.1061
97937W        W40875  16.570  31.113  20.953  0.3637  0.1663  0.1412
97938W        W40876  20.978  34.256  21.972  0.0312  0.1706 -0.1935
97939W        W40877  20.972  34.439  20.980 -0.1008 -0.0176 -0.0250
97940W        W40878  19.712  32.896  22.021  0.2839 -0.1810  0.3482
97941W        W40879  19.621  32.773  21.295 -0.0405  0.0966  0.1597
97942W        W40880  18.962   0.088  21.649  0.2652  0.2015  0.0879
97943W        W40881  20.326  32.546  21.456 -0.1604  0.2619  0.0590
97944W        W40882  22.387  33.881  23.959  0.2246 -0.1762 -0.2815
97945W        W40883  22.275  32.372  24.000  0.0329 -0.1161 -0.0904
97946W        W40884  20.301  34.126  21.181  0.0970 -0.1740 -0.0209
97947W        W40885  19.850  34.144  21.689 -0.0803  0.0544  0.2379
97948W        W40886  21.153  33.803  21.860  0.0086 -0.2214  0.1698
97949W        W40887  21.460  31.989  20.633  0.0424  0.0313  0.0879
97950W        W40888  17.389   0.070  22.324 -0.0347 -0.0383 -0.1281
97951W        W40889  19.036   0.677  19.684  0.0648 -0.0812  0.1698
97952W        W40890  22.480  33.268  23.906 -0.2396 -0.0684  0.2039
97953W        W40891  17.811  33.841  23.301 -0.0165 -0.0873 -0.2472
97954W        W40892  17.488  34.671  23.514  0.1405  0.2180  0.0015
97955W        W40893  19.771  33.585  20.953  0.3503  0.4369  0.0632
97956W        W40894  19.250  32.730  22.876 -0.2397 -0.3499 -0.1398
97957W        W40895  18.273  33.411  21.188  0.2188  0.2518  0.1931
97958W        W40896  19.980  33.772  19.564 -0.0022  0.2470 -0.1912
97959W        W40897  20.019  33.585  23.532  0.0049  0.1480  0.0466
97960W        W40898  21.497  32.800  24.056  0.0531 -0.0373 -0.3427
97961W        W40899  18.251  33.230  19.978 -0.0096 -0.1116 -0.0038
97962W        W40900  20.064  34.141  22.370  0.2593 -0.1591  0.0734
97963W        W40901  19.263  32.317  23.257  0.1638 -0.0671  0.0774
97964W        W40902  20.571  34.410  23.208  0.0822 -0.3120  0.2827
97965W        W40903  21.818  34.445  19.505  0.0189  0.0864 -0.1339
97966W        W40904  18.483  34.034  22.873  0.0666 -0.2679  0.0795
97967W        W40905  20.108  32.582  22.672  0.0383  0.0593 -0.1038
97968W        W40906  19.661  32.448  20.951  0.4478 -0.0922 -0.1363
97969W        W40907  18.988  34.245  22.166 -0.0179  0.1087 -0.0216
97970W        W40908  19.362  34.506  19.207  0.2399  0.3732 -0.0653
97971W        W40909  20.332  34.441  21.653 -0.1489  0.1373 -0.4488
97972W        W40910  18.918  34.201  19.503 -0.0143  0.1999 -0.0628
97973W        W40911  22.490   0.913  18.512 -0.1443 -0.1781  0.0666
97974W        W40912  19.117  33.624  23.290  0.1695 -0.0022  0.1759
97975W        W40913  19.404  33.275  21.940  0.3876  0.3908  0.1375
97976W        W40914  19.176  34.207  21.062 -0.1862  0.0265  0.2689
97977W        W40915  20.965  34.404  23.464  0.1731 -0.0971  0.2152
97978W        W40916  18.714  33.083  22.793  0.0028 -0.2489  0.3641
97979W        W40917  20.889  33.069  22.007  0.4300  0.3904 -0.0637
97980W        W40918  19.059  34.068  24.852  0.0280  0.1724 -0.0349
97981W        W40919  21.800  33.703  24.549  0.2388 -0.0839  0.1013
97982W        W40920  23.018   1.151  24.893  0.1372 -0.0654 -0.0843
97983W        W40921  18.957  33.772  24.019 -0.1840 -0.1750 -0.0067
97984W        W40922  19.738  33.001  27.804 -0.1623 -0.0174 -0.1510
97985W        W40923  20.634   0.665  24.321  0.1485  0.2597 -0.0819
97986W        W40924  20.481  33.717  27.612 -0.3496  0.1091 -0.0503
97987W        W40925  18.778  32.386  23.510 -0.0480 -0.0937  0.0410
97988W        W40926  18.324  33.518  25.405  0.1471  0.1201 -0.3400
97989W        W40927  21.926  34.521  26.584  0.3238  0.0854  0.2936
97990W        W40928  19.103   1.637  24.434  0.0899  0.2208  0.1139
97991W        W40929  18.658  33.169  25.491  0.1552 -0.0966  0.1961
97992W        W40930  19.668  34.007  24.792  0.0072  0.0029 -0.0372
97993W        W40931  20.221  33.173  25.930  0.1664  0.1587  0.2456
97994W        W40932  20.772  33.032  27.981  0.2927  0.0180 -0.2790
97995W        W40933  17.692  34.688  24.028  0.2008  0.0069 -0.0272
97996W        W40934  20.258   0.286  26.883  0.3190  0.2604  0.1694
97997W        W40935  19.521   0.522  24.805 -0.2187  0.3039  0.2747
97998W        W40936  22.078  34.504  25.624  0.0208 -0.0466 -0.2446
97999W        W40937  22.288   1.167  26.073  0.0649 -0.3485 -0.0035
98000W        W40938  21.612   0.465  27.500  0.0672  0.1695  0.3090
98001W        W40939  19.928   0.742  27.002  0.1038  0.0453 -0.1487
98002W        W40940  21.137   1.422  24.493 -0.0814  0.0480 -0.3000
98003W        W40941  22.055  34.182  28.621 -0.1898  0.1479  0.1438
98004W        W40942  22.778  34.636  24.754  0.3262 -0.3042  0.0940
98005W        W40943  20.522  33.958  24.383 -0.0676  0.0873 -0.0512
98006W        W40944  20.995   0.216  24.471 -0.1339  0.0277 -0.2623
98007W        W40945  19.418  33.628  24.891  0.1700 -0.1070 -0.0485
98008W        W40946  19.355  33.972  25.242 -0.2036 -0.0733  0.2453
98009W        W40947  21.989   1.034  24.967 -0.4341 -0.0224  0.0999
98010W        W40948  21.526  34.590  24.946 -0.2366  0.1825  0.3193
98011W        W40949  19.226  34.465  24.463  0.1129  0.2780  0.0368
98012W        W40950  17.617  34.592  24.565  0.0454 -0.0120 -0.0677
98013W        W40951  18.394  34.049  25.752  0.0299  0.1889 -0.2856
98014W        W40952  18.869   0.066  26.172 -0.3849  0.2584  0.4041
98015W        W40953  18.577  33.183  24.881  0.0930 -0.0831  0.1147
98016W        W40954  21.235  34.176  25.079  0.1621  0.0744  0.0752
98017W        W40955  21.983  34.033  26.342 -0.2653  0.5378 -0.2336
98018W        W40956  22.165  34.042  25.852 -0.0810  0.0037  0.0848
98019W        W40957  22.997   0.998  25.354 -0.0879 -0.0608 -0.1844
98020W        W40958  20.292   0.099  26.341 -0.0632 -0.0741 -0.2454
98021W        W40959  18.665  33.149  26.529 -0.0350 -0.0257  0.0450
98022W        W40960  21.230  33.333  25.486  0.1823  0.4186  0.2607
98023W        W40961  19.175  33.871  26.743 -0.1635 -0.3291  0.3591
98024W        W40962  20.157  33.335  25.383  0.2840  0.0743  0.3224
98025W        W40963  20.620   0.555  23.494  0.1575 -0.2380  0.1205
98026W        W40964  19.405  33.958  26.122  0.1129 -0.2792 -0.0949
98027W        W40965  17.688  32.938  24.194  0.3109  0.0665 -0.2128
98028W        W40966  19.141  33.327  26.622 -0.0255  0.1053 -0.0647
98029W        W40967  18.569  32.724  25.136 -0.0478 -0.0295 -0.0797
98030W        W40968  21.398   1.246  26.955  0.0868  0.1299  0.1591
98031W        W40969  18.477  34.358  24.317 -0.0170 -0.0761 -0.0288
98032W        W40970  19.791  32.852  26.153 -0.1031  0.3398  0.0205
98033W        W40971  18.574   0.844  24.495  0.1062 -0.1945  0.1024
98034W        W40972  21.888  32.720  27.825  0.0794 -0.2402  0.1928
98035W        W40973  19.837  33.283  26.985 -0.0810 -0.2614  0.0531
98036W        W40974  19.536  33.641  23.620  0.0592 -0.0621  0.0772
98037W        W40975  18.973  34.595  23.548  0.2238  0.1112 -0.3027
98038W        W40976  21.863  34.545  27.750  0.0406 -0.5099 -0.0207
98039W        W40977  20.171   0.471  25.987  0.1523  0.1813 -0.2491
98040W        W40978  19.265  32.940  23.407  0.0521 -0.3147 -0.3013
98041W        W40979  18.637  33.798  24.954 -0.0998  0.1255  0.0498
98042W        W40980  21.677  34.281  25.781 -0.0534 -0.2187 -0.2766
98043W        W40981  18.850  34.281  26.513  0.1364  0.2648 -0.1204
98044W        W40982  20.951  34.543  24.999  0.4108  0.1643  0.1956
98045W        W40983  16.301  34.656  24.876 -0.0782  0.0358 -0.3030
98046W        W40984  20.586  33.239  25.060  0.5421  0.3940  0.0916
98047W        W40985  21.620  33.750  24.997 -0.0901 -0.4574 -0.2082
98048W        W40986  21.499  34.025  23.425  0.0947 -0.0857  0.2208
98049W        W40987  20.853   0.379  23.969 -0.5147 -0.2920 -0.1679
98050W        W40988  20.683  34.124  24.979  0.1873 -0.0603  0.0115
98051W        W40989  20.691  33.160  26.125 -0.1984  0.0882 -0.0005
98052W        W40990  20.017   0.693  23.598 -0.1202  0.0519 -0.0830
98053W        W40991  20.112  32.866  25.297  0.1211  0.0258 -0.3185
98054W        W40992  21.150  33.833  25.925 -0.4067 -0.0767 -0.1313
98055W        W40993  20.588  34.537  26.055 -0.0771 -0.0790 -0.1794
98056W        W40994  20.259  34.084  26.986 -0.0405  0.1657 -0.1199
98057W        W40995  21.233  34.492  28.339 -0.0293  0.0129 -0.0153
98058W        W40996  20.462   0.179  25.657  0.2333  0.0455  0.1481
98059W        W40997  20.645   0.273  27.378 -0.0884  0.2009 -0.0363
98060W        W40998  18.937   0.635  22.747 -0.1483 -0.1338  0.0901
98061W        W40999  21.897  33.567  26.681 -0.1047 -0.1080 -0.1400
98062W        W41000  19.375  33.632  28.406  0.2273 -0.0365  0.1807
98063W        W41001  20.209  33.944  24.890 -0.0043  0.0920 -0.0765
98064W        W41002  19.001  33.131  26.064  0.0090 -0.1618  0.0046
98065W        W41003  20.934  33.931  25.502  0.1568  0.1617  0.1422
98066W        W41004  19.510  34.533  23.854 -0.2031  0.1239 -0.1756
98067W        W41005  16.388  33.473  23.592  0.0872 -0.0007  0.1932
98068W        W41006  20.702  33.658  24.731 -0.2690 -0.2086  0.1996
98069W        W41007  19.276  34.277  25.722  0.0680  0.2519  0.4352
98070W        W41008  20.983  34.294  25.767  0.1457 -0.2021  0.0788
98071W        W41009  21.961   1.005  25.578  0.1712 -0.2072  0.6849
98072W        W41010  20.633  33.027  24.044  0.3041 -0.0881  0.0675
98073W        W41011  19.191  32.815  26.463 -0.0712  0.1478  0.1948
98074W        W41012  18.278  34.678  24.768  0.0427  0.0681 -0.1349
98075W        W41013  22.138   0.249  26.681 -0.1033 -0.1852 -0.0697
98076W        W41014  17.433  33.651  25.370 -0.0895 -0.0235 -0.1405
98077W        W41015  19.728   0.114  24.501 -0.0902  0.2943  0.0642
98078W        W41016  19.915  33.566  25.783 -0.4149  0.2294  0.1013
98079W        W41017  18.745  34.542  24.769 -0.1020 -0.3321  0.0609
98080W        W41018  19.869  33.691  25.208 -0.1822 -0.1976  0.0059
98081W        W41019  20.126   0.968  25.636  0.2323 -0.1912  0.0644
98082W        W41020  19.647  34.692  26.646 -0.2323 -0.3652 -0.4605
98083W        W41021  19.157  33.055  25.567 -0.6182  0.0484 -0.2044
98084W        W41022  20.497   0.248  28.271  0.0636 -0.2324 -0.2071
98085W        W41023  19.622  33.925  25.654 -0.1161  0.1200 -0.0554
98086W        W41024  23.130  32.430  23.518  0.3530  0.1363 -0.0226
98087W        W41025  20.164  34.441  25.785 -0.0304  0.2519 -0.2294
98088W        W41026  22.151  33.148  27.937  0.0296 -0.1000  0.2686
98089W        W41027  19.286   0.234  22.418  0.0459  0.0540  0.0662
98090W        W41028  20.917  34.149  28.063  0.0587 -0.1192  0.0970
98091W        W41029  18.968  32.990  24.609  0.0634 -0.2140  0.1896
98092W        W41030  18.958  33.704  26.325 -0.1240  0.2348  0.0142
98093W        W41031  19.250  33.249  27.625 -0.1133 -0.1047  0.2166
98094W        W41032  18.266  34.180  24.740  0.3001 -0.2265 -0.0553
98095W        W41033  19.336  33.836  24.414 -0.1690  0.0250 -0.3521
98096W        W41034  20.464  34.490  27.105 -0.1476 -0.0552 -0.1092
98097W        W41035  22.130   0.324  25.557  0.1176  0.0524  0.4612
98098W        W41036  19.734  34.154  26.766 -0.1948 -0.2452  0.1122
98099W        W41037  20.850  34.673  25.512  0.0194  0.1235  0.0021
98100W        W41038  21.272  32.822  29.479  0.1974 -0.1087  0.2086
98101W        W41039  19.658  34.294  24.348 -0.3429 -0.1105  0.1859
98102W        W41040  21.418  34.208  27.254  0.1697 -0.0057 -0.0074
98103W        W41041  20.842  33.528  26.990 -0.1050  0.0079  0.0141
98104W        W41042  20.722   0.161  26.645 -0.0464 -0.1710  0.2168
98105W        W41043  19.246  33.534  29.495 -0.0715 -0.2423 -0.3766
98106W        W41044  20.084   0.694  24.323 -0.1248  0.4235 -0.0386
98107W        W41045  21.443   0.720  27.058  0.0802 -0.0339  0.4268
98108W        W41046  22.097   1.472  24.605  0.1372  0.1319  0.1723
98109W        W41047  20.289   0.647  25.180 -0.0088  0.0764  0.0454
98110W        W41048  19.059  32.728  25.189 -0.1251  0.1755 -0.0897
98111W        W41049  22.523   0.235  27.249 -0.0159  0.0854  0.2254
98112W        W41050  19.832   0.118  26.018  0.2455  0.3149 -0.2974
98113W        W41051  19.846  33.767  27.074  0.1596 -0.2815  0.0927
98114W        W41052  19.566   1.644  25.687 -0.0485 -0.0665 -0.0878
98115W        W41053  17.607  33.942  24.970  0.1663 -0.0618  0.1057
98116W        W41054  18.970   0.844  23.465 -0.0785 -0.1191 -0.1509
98117W        W41055  20.233   0.249  23.369 -0.0969 -0.0180  0.1470
98118W        W41056  20.309  33.318  23.826 -0.1560 -0.1771 -0.2383
98119W        W41057  20.745  33.675  28.085  0.0077  0.0611 -0.0876
98120W        W41058  19.757  33.232  25.054  0.3032  0.2655  0.0837
98121W        W41059  21.290  34.205  26.235  0.1360  0.1058  0.0141
98122W        W41060  20.586   0.372  24.846  0.0732 -0.0901  0.0542
98123W        W41061  21.126   1.786  25.423 -0.0781  0.0516  0.0902
98124W        W41062  22.564  33.527  25.926 -0.0743 -0.4185 -0.1818
98125W        W41063  19.316  34.461  27.712 -0.4793 -0.2787 -0.2690
98126W        W41064  20.209  32.910  27.726  0.0159 -0.0153  0.0011
98127W        W41065  19.334  33.386  24.310  0.1294 -0.0328 -0.0503
98128W        W41066  20.175  33.338  24.307  0.3272 -0.0091  0.1426
98129W        W41067  21.864  33.790  23.940  0.0724  0.0633  0.0585
98130W        W41068  20.717   0.884  25.238  0.2240  0.0549 -0.0168
98131W        W41069  22.197  34.157  24.891  0.1243  0.0491  0.0283
98132W        W41070  19.505  33.317  26.167  0.0613  0.4012  0.0814
98133W        W41071  21.047  31.457  22.980  0.0415  0.0204 -0.1787
98134W        W41072  19.841  34.369  26.322  0.0828  0.2569  0.4255
98135W        W41073  22.014  34.010  27.764  0.3766 -0.1621 -0.3949
98136W        W41074  18.067   0.017  24.338  0.3063  0.1401  0.0092
98137W        W41075  18.765   0.033  24.287  0.1179 -0.3157 -0.0460
98138W        W41076  21.959  33.094  26.868  0.1876 -0.0193 -0.2211
98139W        W41077  20.633   0.004  23.674  0.0474 -0.0663  0.4412
98140W        W41078  17.856  32.646  24.620  0.0730  0.1130 -0.1236
98141W        W41079  22.784   0.998  24.486  0.0269 -0.2787 -0.3530
98142W        W41080  20.121  33.805  26.640  0.0875 -0.0859  0.1945
98143W        W41081  21.560  32.938  25.832 -0.0895 -0.1157  0.1017
98144W        W41082  16.832  34.151  24.272 -0.0491 -0.2907  0.2332
98145W        W41083  21.344  34.507  25.457  0.0015  0.0320 -0.2328
98146W        W41084  19.552   0.108  27.977 -0.1721  0.3191  0.0081
98147W        W41085  19.401   0.112  21.982  0.1669  0.0508 -0.2461
98148W        W41086  22.081   0.014  28.517  0.0062  0.1237 -0.1220
98149W        W41087  20.704   0.195  23.197  0.0067  0.1039 -0.1017
98150W        W41088  18.746  33.909  24.468  0.1134  0.2054 -0.4737
98151W        W41089  21.752   0.076  25.335  0.2940  0.0581 -0.1027
98152W        W41090  17.885  33.852  25.442 -0.2608 -0.1297 -0.2216
98153W        W41091  19.419   0.226  25.794 -0.1204  0.0928 -0.0826
98154W        W41092  18.200  32.953  25.420 -0.0304 -0.0056 -0.2671
98155W        W41093  20.642   0.637  25.750  0.1705  0.0635 -0.2329
98156W        W41094  21.101   0.902  25.746 -0.0925  0.2096 -0.1004
98157W        W41095  17.955  34.586  26.725  0.2465  0.3530 -0.2564
98158W        W41096  20.701  33.467  23.481 -0.1594  0.0013  0.3092
98159W        W41097  19.198   0.117  24.797 -0.0012  0.0803 -0.2369
98160W        W41098  21.631   0.327  26.797  0.4104  0.1259 -0.1104
98161W        W41099  21.574   0.805  27.904  0.2287 -0.0168 -0.1174
98162W        W41100  22.218  32.366  27.517  0.3066  0.0482  0.1999
98163W        W41101  20.513  33.971  25.879  0.0784  0.2875 -0.2980
98164W        W41102  19.753  33.084  25.604 -0.0756 -0.0212  0.1510
98165W        W41103  22.072  34.100  24.349 -0.0481  0.1044  0.0123
98166W        W41104  21.607  31.392  22.929 -0.1052 -0.2610  0.2703
98167W        W41105  19.974   0.155  25.426  0.0843 -0.0597  0.0962
98168W        W41106  16.052   0.217  24.435  0.0060 -0.1471 -0.0061
98169W        W41107  20.708  32.856  26.534 -0.2362 -0.2369 -0.1548
98170W        W41108  19.068  33.769  25.759  0.1497 -0.3993 -0.1145
98171W        W41109  19.857   0.889  26.127  0.1758  0.1076  0.1173
98172W        W41110  18.288  33.061  24.135 -0.2789  0.1854 -0.1568
98173W        W41111  18.699  32.408  27.071 -0.1705 -0.2346 -0.0367
98174W        W41112  18.666  32.709  26.302  0.0406  0.3035 -0.1399
98175W        W41113  19.227  32.881  24.073  0.2170  0.0972 -0.0132
98176W        W41114  20.929  34.666  27.965  0.0364 -0.0245 -0.3198
98177W        W41115  20.600  32.570  27.531  0.2039 -0.1991  0.4269
98178W        W41116  18.316  32.395  24.844  0.0077 -0.1688  0.0060
98179W        W41117  20.013  34.376  25.168 -0.3456 -0.1972 -0.1724
98180W        W41118  18.783  32.488  27.528 -0.0865  0.0111 -0.0712
98181W        W41119  21.769  33.228  26.252  0.1631 -0.0381 -0.1757
98182W        W41120  21.210   0.639  24.315 -0.0495  0.1979  0.2568
98183W        W41121  19.697  33.032  26.631  0.1811 -0.1505  0.2318
98184W        W41122  19.302  33.790  27.696  0.3415 -0.0928 -0.1437
98185W        W41123  20.961  34.050  24.555  0.0762  0.1649 -0.0150
98186W        W41124  19.425  34.060  23.937  0.1350  0.1009  0.0672
98187W        W41125  19.990  33.884  24.440 -0.1491  0.2024  0.0897
98188W        W41126  21.463  34.528  26.789 -0.1542 -0.0367  0.1827
98189W        W41127  19.776   1.005  24.563 -0.3046  0.1060  0.2469
98190W        W41128  21.651  34.362  24.141 -0.0727 -0.2489  0.0702
98191W        W41129  18.179  31.966  26.855  0.1985 -0.5058 -0.1409
98192W        W41130  18.185   0.104  25.234 -0.0822  0.0081  0.1684
98193W        W41131  19.385   0.765  25.425  0.1546 -0.0032  0.2964
98194W        W41132  21.989   0.009  26.102  0.1406  0.4295  0.1541
98195W        W41133  18.546  32.243  26.037  0.1776 -0.0883  0.0896
98196W        W41134  20.575  32.523  23.885 -0.1716 -0.0927  0.1013
98197W        W41135  19.732   0.031  28.415 -0.1741  0.5566 -0.2222
98198W        W41136  22.946   0.633  27.589 -0.0463 -0.1074  0.1029
98199W        W41137  21.139   0.267  28.333 -0.1245  0.1521 -0.0180
98200W        W41138  18.445  33.358  29.067 -0.0966 -0.2652 -0.1381
98201W        W41139  18.815  34.155  30.719 -0.1079 -0.0994 -0.1035
98202W        W41140  20.119  33.368  27.930 -0.1188 -0.1953  0.0031
98203W        W41141  20.371  32.568  31.450 -0.1245  0.1384  0.1735
98204W        W41142  21.170  32.965  28.886 -0.2119 -0.5471 -0.1446
98205W        W41143  18.152  32.559  29.547 -0.1496 -0.3675 -0.1871
98206W        W41144  20.569  34.510  30.593 -0.1458  0.1102 -0.0263
98207W        W41145  20.404  33.212  29.290  0.0790 -0.1820 -0.2823
98208W        W41146  19.156  34.528  30.651  0.2021 -0.2039  0.1274
98209W        W41147  19.574  33.219  29.258  0.1872 -0.0163 -0.0047
98210W        W41148  19.600  31.848  29.841  0.1345  0.0882 -0.0119
98211W        W41149  19.462  33.164  29.784  0.1703 -0.2167  0.3183
98212W        W41150  18.378  34.627  28.809  0.0123 -0.1953  0.0575
98213W        W41151  18.717  34.222  28.559 -0.2630  0.0542 -0.1571
98214W        W41152  19.802  34.487  28.892  0.3899  0.0508  0.1942
98215W        W41153  21.700  33.103  29.002 -0.2372 -0.1144 -0.0943
98216W        W41154  20.244  33.926  31.391 -0.1568  0.1293 -0.0427
98217W        W41155  20.093  33.625  30.524  0.0381  0.0133 -0.2031
98218W        W41156  20.233  34.029  29.146  0.0248 -0.4208  0.1633
98219W        W41157  20.487   0.825  29.388  0.0176 -0.3332 -0.0552
98220W        W41158  20.821  33.313  31.030 -0.0182  0.1530  0.0479
98221W        W41159  20.430   0.474  27.781  0.2263 -0.0939 -0.1593
98222W        W41160  19.554  32.043  26.792 -0.0515 -0.1099 -0.1543
98223W        W41161  21.399  32.953  27.822 -0.1867 -0.0419 -0.2678
98224W        W41162  18.843  33.629  29.239  0.2885 -0.0858  0.2900
98225W        W41163  19.953  33.339  29.602 -0.0443  0.0396 -0.0056
98226W        W41164  20.382  33.773  29.581  0.2904  0.0707  0.0291
98227W        W41165  19.232  33.365  30.325 -0.2954  0.1519  0.2062
98228W        W41166  19.624   0.316  29.413 -0.0300  0.0009  0.0222
98229W        W41167  19.133  34.479  28.180 -0.3462 -0.1222  0.0465
98230W        W41168  19.842  33.512  31.451  0.1426 -0.2187  0.0707
98231W        W41169  19.189  33.922  31.537  0.1954 -0.2207 -0.2930
98232W        W41170  19.940  32.460  27.952  0.0840  0.3747 -0.0824
98233W        W41171  21.406  32.246  28.650  0.0331 -0.0543 -0.0641
98234W        W41172  19.322  31.393  29.464  0.0450 -0.3335  0.0513
98235W        W41173  20.819  32.725  28.544 -0.3766 -0.1143  0.0909
98236W        W41174  21.968   1.086  28.421  0.2152 -0.1986 -0.0270
98237W        W41175  20.548  33.849  30.961 -0.1196 -0.1596 -0.2183
98238W        W41176  19.658  33.763  31.906  0.1772  0.2886  0.3718
98239W        W41177  20.682  33.423  29.661 -0.2305 -0.3228 -0.0402
98240W        W41178  19.124  32.424   0.010 -0.0007  0.1751  0.2613
98241W        W41179  20.720  34.230  28.956 -0.2815 -0.0007 -0.1120
98242W        W41180  21.144  34.552  28.863  0.2146 -0.0267 -0.3396
98243W        W41181  19.931   0.650  29.535  0.2927 -0.1034  0.1100
98244W        W41182  20.293  33.333  31.068  0.2275 -0.0563  0.1083
98245W        W41183  19.074  33.079   0.295  0.1232  0.1519  0.1105
98246W        W41184  18.963  31.958  29.181  0.2280  0.0304  0.2620
98247W        W41185  20.936   0.117  29.673 -0.0567  0.0707  0.3804
98248W        W41186  18.900  32.693  27.981  0.2289  0.1271  0.0972
98249W        W41187  21.577   0.926  28.895  0.0787  0.0197  0.0965
98250W        W41188  20.275   0.719  28.321 -0.1099  0.0544  0.0621
98251W        W41189  19.816  33.080  30.138  0.6474  0.1050 -0.1304
98252W        W41190  18.101  34.133  29.794  0.3088  0.1014  0.1080
98253W        W41191  19.660  33.521  27.469  0.1132 -0.1454 -0.0269
98254W        W41192  19.920  33.905  26.127  0.0887 -0.3498 -0.1398
98255W        W41193  20.727  32.984  30.601  0.3049 -0.3087 -0.0757
98256W        W41194  21.534  34.035  29.889  0.1341 -0.2613 -0.3665
98257W        W41195  20.196  32.925  28.213  0.0663  0.1897 -0.0066
98258W        W41196  18.995  34.248  30.251 -0.1044 -0.1448 -0.2067
98259W        W41197  20.606  31.662  28.991 -0.2894 -0.2606  0.0868
98260W        W41198  18.448  33.323  30.845 -0.2358  0.2706 -0.1378
98261W        W41199  21.559  33.689  31.691 -0.0351  0.0912  0.1038
98262W        W41200  19.229  32.834  29.432 -0.1981 -0.2852 -0.0478
98263W        W41201  21.240  33.641  28.343 -0.2358 -0.0962  0.0121
98264W        W41202  21.834  32.979  28.360 -0.0627  0.1667  0.0837
98265W        W41203  23.368   0.232  27.414  0.3923 -0.2939 -0.1681
98266W        W41204  21.427  33.229  28.519 -0.0845  0.2583 -0.4197
98267W        W41205  19.579  34.171  29.295 -0.1160 -0.1558 -0.0275
98268W        W41206  18.036  32.837  29.969 -0.1163 -0.0362  0.2874
98269W        W41207  19.990  32.574  26.600 -0.0068  0.1656  0.3434
98270W        W41208  20.177  31.540  30.478  0.0526 -0.0222 -0.0659
98271W        W41209  21.630  33.287  30.552 -0.1687  0.0455  0.2672
98272W        W41210  21.766   0.019  30.051 -0.1995 -0.0404 -0.1156
98273W        W41211  19.628  32.545  31.256  0.0124  0.1609 -0.1684
98274W        W41212  20.141   0.081  30.704  0.1540 -0.0379 -0.0131
98275W        W41213  22.938  34.459  28.982  0.0416  0.1898  0.2252
98276W        W41214  20.124  34.274  29.702 -0.2546 -0.0379  0.0777
98277W        W41215  19.576  33.491  28.009  0.1702 -0.0288 -0.0181
98278W        W41216  20.691  33.627   0.080 -0.1355  0.0280  0.0859
98279W        W41217  20.783  32.722  31.843  0.0934 -0.3176 -0.2114
98280W        W41218  21.020  32.285  28.338 -0.2961  0.1379  0.2482
98281W        W41219  19.630  32.744  29.718 -0.1999 -0.2484 -0.4388
98282W        W41220  21.086  32.492  29.088 -0.2808 -0.0474 -0.0043
98283W        W41221  18.979  33.460  28.005 -0.1120  0.2048 -0.0446
98284W        W41222  17.810  34.359  28.129 -0.2777 -0.1028 -0.0494
98285W        W41223  20.492   0.389  29.684 -0.4317 -0.1457  0.1310
98286W        W41224  19.307  33.695  29.067 -0.1354 -0.0948  0.5269
98287W        W41225  20.118  32.434  29.497 -0.0073  0.0655  0.1779
98288W        W41226  19.724  33.952  30.573 -0.2326  0.0847 -0.2203
98289W        W41227  20.563  34.618  29.393 -0.2406  0.3543  0.0715
98290W        W41228  18.890  33.846  31.065  0.1440  0.1482 -0.3982
98291W        W41229  18.522  34.184  28.999 -0.1717 -0.2564 -0.0498
98292W        W41230  20.769  32.402  31.167  0.0216  0.2337 -0.1190
98293W        W41231  19.659   0.299  28.906  0.1293 -0.1392  0.0054
98294W        W41232  18.997  34.361  29.063 -0.2697 -0.1129 -0.2416
98295W        W41233  18.798  33.707  30.360 -0.0217 -0.2071  0.2656
98296W        W41234  19.843  33.737  29.286 -0.0946 -0.0683 -0.0552
98297W        W41235  17.971  34.247  28.952  0.0391  0.1204 -0.0132
98298W        W41236  20.207   0.409  29.195  0.0475  0.0443  0.1375
98299W        W41237  18.917  33.428  30.746  0.3424 -0.0875  0.1253
98300W        W41238  19.990  32.929  29.266  0.1469  0.0972  0.1314
98301W        W41239  20.933   0.506  30.050  0.2019  0.0727 -0.4386
98302W        W41240  19.987  32.971  31.396 -0.1783 -0.0036  0.3051
98303W        W41241  21.544  32.505  28.232 -0.0482  0.2216 -0.0989
98304W        W41242  20.089  34.030  30.275 -0.0694  0.0375  0.1274
98305W        W41243  21.516  33.313  29.391 -0.1465  0.0459 -0.1539
98306W        W41244  21.591   1.408  28.426  0.1732  0.0309 -0.0397
98307W        W41245  21.732  33.409  31.217  0.0707 -0.1292 -0.2226
98308W        W41246  20.547  34.042  30.509 -0.0526 -0.0790 -0.4489
98309W        W41247  19.114  34.039  29.438  0.2566 -0.0017  0.0148
98310W        W41248  19.575   0.230  31.473  0.0789  0.1624 -0.1035
98311W        W41249  19.732  33.470  28.832  0.0512 -0.1083  0.2987
98312W        W41250  18.826  32.904  28.961 -0.0639 -0.0024 -0.0351
98313W        W41251  17.329   0.233  28.909  0.1119  0.0064 -0.0350
98314W        W41252  21.932  34.043  29.557  0.0657 -0.1045  0.0775
98315W        W41253  18.141   1.293  30.360 -0.0141  0.2289  0.4170
98316W        W41254  22.452   0.389  28.417 -0.2013  0.1280  0.2255
98317W        W41255  18.915  31.728  31.600 -0.1698  0.2077 -0.0420
98318W        W41256  21.386  33.512  28.930 -0.0753 -0.1455  0.0490
98319W        W41257  21.107  33.252  29.639  0.1123  0.0828 -0.1595
98320W        W41258  20.997  33.885  30.681  0.0786  0.2783  0.1986
98321W        W41259  20.679  33.600  31.383 -0.2988 -0.1520 -0.1807
98322W        W41260  18.365  32.818  30.340  0.0978  0.0918 -0.5363
98323W        W41261  21.554  33.951  28.730 -0.4475  0.1324 -0.2300
98324W        W41262  22.520  34.580  29.204  0.0213 -0.1046 -0.2522
98325W        W41263  22.326  33.723  27.944 -0.1634  0.2108 -0.1386
98326W        W41264  20.004   0.363  28.069 -0.1825  0.2067  0.3271
98327W        W41265  17.282  33.904  28.971  0.0318  0.1180 -0.3903
98328W        W41266  21.540  34.267   0.181  0.2787  0.0384  0.1144
98329W        W41267  19.777  31.938  27.833  0.1219 -0.0035  0.0427
98330W        W41268  18.872  31.815  30.575  0.0633 -0.0966  0.4575
98331W        W41269  20.272  34.273  27.522  0.1942 -0.2001 -0.1369
98332W        W41270  17.017  31.917  29.965  0.3369 -0.1605 -0.2984
98333W        W41271  20.020  33.327  26.413 -0.0769 -0.3401 -0.2139
98334W        W41272  19.600  33.548  26.591  0.0072 -0.1016 -0.0042
98335W        W41273  19.857  32.356  30.073  0.1401 -0.0729 -0.0106
98336W        W41274  22.117  33.760  31.143  0.2440  0.1368  0.1723
98337W        W41275  21.246  32.917  29.990  0.1771  0.1032 -0.0738
98338W        W41276  21.748  33.007  29.803  0.1750  0.2692  0.2851
98339W        W41277  21.425  33.802  29.406 -0.3402 -0.0969  0.0861
98340W        W41278  19.550   1.236  28.965 -0.0961 -0.0950  0.0608
98341W        W41279  22.261  34.602  30.321  0.2057 -0.1891  0.0708
98342W        W41280  18.644   0.195  29.154  0.1155  0.1266 -0.2901
98343W        W41281  19.479  32.948  31.509  0.0270  0.0360 -0.0562
98344W        W41282  17.809  34.177  29.399  0.2259 -0.1395 -0.0106
98345W        W41283  19.239  34.115  28.649 -0.2110 -0.2904 -0.0647
98346W        W41284  21.856  32.003  28.384 -0.2140  0.0944  0.4397
98347W        W41285  21.624  34.476  28.707 -0.1705  0.2121  0.0511
98348W        W41286  21.559  34.327  29.179  0.0848  0.4164  0.0767
98349W        W41287  22.010   0.673  28.703 -0.1028 -0.1947  0.0861
98350W        W41288  20.615  33.044  27.121  0.0579 -0.0090  0.1220
98351W        W41289  20.584  32.615  28.981  0.0600 -0.1341  0.2410
98352W        W41290  21.109  33.394  30.595  0.0628  0.0717  0.2768
98353W        W41291  19.475  31.941  29.243 -0.0373 -0.1466 -0.1455
98354W        W41292  20.706   0.363  29.206  0.4202  0.2041  0.3105
98355W        W41293  20.940  33.308  30.114  0.1520 -0.1242 -0.0207
98356W        W41294  20.289   0.243  30.144 -0.1158 -0.2072 -0.3401
98357W        W41295  18.336  33.862  29.315 -0.1166  0.0691 -0.0283
98358W        W41296  22.065  34.522  28.983 -0.2025  0.1227 -0.1160
98359W        W41297  19.691  33.669  30.166  0.1336 -0.1289  0.2095
98360W        W41298  20.344  32.490  30.044  0.1142  0.2021 -0.1076
98361W        W41299  20.521   1.081  28.921  0.0390 -0.0943  0.0341
98362W        W41300  19.683  32.918  28.860 -0.2598  0.0296 -0.2401
98363W        W41301  19.861  33.145  31.846 -0.2511 -0.0987 -0.0262
98364W        W41302  20.644   1.075  28.467  0.0181 -0.2993 -0.0318
98365W        W41303  21.804  34.646  30.894  0.0114 -0.0054  0.1859
98366W        W41304  19.949  33.837  29.787 -0.1705 -0.1632 -0.3128
98367W        W41305  19.055  33.964  28.214 -0.0444 -0.1860  0.0596
98368W        W41306  20.180  33.575  28.850 -0.0930 -0.2262 -0.1654
98369W        W41307  18.497   0.891  28.497  0.2231  0.3431  0.1852
98370W        W41308  19.820  33.970  28.879 -0.2060 -0.1639 -0.0345
98371W        W41309  17.934  32.975  28.369 -0.0481  0.1335  0.0176
98372W        W41310  22.253   0.329  29.205 -0.1313  0.2360 -0.0697
98373W        W41311  22.046   1.183  28.953 -0.1255 -0.0178  0.0734
98374W        W41312  19.637  34.494  29.701  0.0490 -0.2189  0.1623
98375W        W41313  20.825  32.941  29.296 -0.2177 -0.4377 -0.0752
98376W        W41314  20.615  33.711  29.109 -0.0154 -0.0069  0.0529
98377W        W41315  21.582  32.631  28.949 -0.1817 -0.0537  0.0180
98378W        W41316  22.060  33.393  30.817  0.0186  0.1083  0.1462
98379W        W41317  19.266  31.618  30.234  0.2044  0.0925  0.1765
98380W        W41318  19.348  34.631  29.288  0.2426 -0.1050  0.1037
98381W        W41319  17.531  34.219  29.851 -0.4586 -0.0400 -0.1926
98382W        W41320  19.989  32.020  28.334  0.1370 -0.1022 -0.1134
98383W        W41321  20.779  32.242  28.749  0.2491 -0.0622  0.0639
98384W        W41322  20.030  33.775  30.971  0.2047  0.4222 -0.2010
98385W        W41323  18.598  34.568  27.156  0.1563 -0.2314 -0.3743
98386W        W41324  20.863  31.865  31.406  0.0757  0.1959 -0.3437
98387W        W41325  20.863  34.354  30.952 -0.1607  0.0796 -0.1762
98388W        W41326  18.600   0.076  28.187  0.0497  0.1284 -0.0280
98389W        W41327  18.104  33.071  29.555 -0.0239 -0.0633  0.0428
98390W        W41328  18.673  32.009  30.068  0.3260  0.0407  0.1826
98391W        W41329  19.043  32.588  29.943 -0.1697  0.1183 -0.3438
98392W        W41330  20.975   0.746  28.545 -0.1039 -0.0648 -0.0887
98393W        W41331  21.065  34.240  29.834 -0.2062 -0.2811  0.1012
98394W        W41332  18.757  32.586  31.626  0.3748  0.0544  0.1311
98395W        W41333  17.911  33.403  29.253 -0.1303  0.0659  0.1770
98396W        W41334  21.801  33.546  29.734 -0.0807  0.1708  0.0892
98397W        W41335  17.564  33.421  30.658  0.0157 -0.0575  0.4092
98398W        W41336  21.454  33.385  30.104  0.1461  0.1070 -0.0220
98399W        W41337  20.019   0.735  28.821  0.3901 -0.0087 -0.1596
98400W        W41338  17.530  31.560  30.571 -0.0809  0.1886  0.0244
98401W        W41339  18.448  33.426  29.581  0.1305 -0.2148  0.2107
98402W        W41340  21.192  32.833  28.288 -0.0755  0.2121  0.3142
98403W        W41341  19.188  34.397  31.470  0.0375 -0.0968 -0.2134
98404W        W41342  19.437  34.625  27.240 -0.2071  0.1789  0.2870
98405W        W41343  20.065  32.610   0.313  0.0214  0.0985 -0.1123
98406W        W41344  20.104   0.291  28.631 -0.2345  0.0034  0.0764
98407W        W41345  21.051  34.077  28.545 -0.1285  0.0780  0.2321
98408W        W41346  18.534  31.465  30.162 -0.0707 -0.1857 -0.2081
98409W        W41347  18.830   0.562  28.580  0.1692  0.0092 -0.2287
98410W        W41348  20.799   1.152  29.377  0.1441  0.0969 -0.0304
98411W        W41349  20.020  32.641  30.956 -0.0717 -0.1411 -0.1889
98412W        W41350  19.576  33.471  30.646 -0.0507  0.0328  0.0319
98413W        W41351  20.843  33.651  28.639  0.0403 -0.0025 -0.0690
98414W        W41352  20.528  33.449  30.678  0.1729 -0.1955 -0.0261
98415W        W41353  20.858   0.219  31.102 -0.0046  0.0135 -0.3690
98416W        W41354  20.182  33.782  31.886  0.0046 -0.0823 -0.1981
98417W        W41355  18.520  33.034   0.552  0.0909  0.1789 -0.0301
98418W        W41356  19.118  32.268  30.470 -0.3142  0.0200  0.0932
98419W        W41357  21.057  34.085   0.124 -0.0919  0.0593 -0.0510
98420W        W41358  19.735  32.550  31.824 -0.2357  0.0399  0.0869
98421W        W41359  22.714   0.450  31.051  0.2341  0.2133 -0.0065
98422W        W41360  18.598  32.605   0.734 -0.1479 -0.2182 -0.1534
98423W        W41361  18.369  31.796   0.620 -0.0325 -0.4969  0.0677
98424W        W41362  17.573  33.061   0.158  0.2349 -0.0325  0.1336
98425W        W41363  22.037  33.747   0.520  0.1377 -0.4060 -0.0773
98426W        W41364  21.412  34.336  31.706 -0.2358  0.2054 -0.0559
98427W        W41365  18.940  31.789  31.107 -0.1541 -0.1414  0.1076
98428W        W41366  18.653  34.011  31.600 -0.0905  0.1968 -0.0130
98429W        W41367  20.328  34.095   0.299  0.1932  0.2644  0.0053
98430W        W41368  18.282  34.349  30.780  0.2936  0.2001 -0.1080
98431W        W41369  18.477  33.733   2.108  0.1820 -0.2304 -0.1712
98432W        W41370  19.465  31.812  31.159  0.2667 -0.1176  0.1098
98433W        W41371  18.320  33.783  30.074  0.0458 -0.0948  0.2288
98434W        W41372  21.001  33.823   0.679 -0.1097 -0.2224  0.2115
98435W        W41373  22.577  33.814  31.389 -0.1902  0.0541 -0.3647
98436W        W41374  19.981  32.077  31.447 -0.1355 -0.0676 -0.1143
98437W        W41375  18.417  33.818  30.838  0.0048 -0.6456  0.0099
98438W        W41376  18.120  33.948  31.793 -0.1768  0.1859 -0.0668
98439W        W41377  19.762   0.861  31.530  0.2556 -0.1992  0.1376
98440W        W41378  18.122  33.079   0.914 -0.3489  0.1088  0.2438
98441W        W41379  19.985  33.896   0.805 -0.2025  0.1623 -0.0692
98442W        W41380  18.969  33.101  31.702 -0.1022 -0.0352 -0.1609
98443W        W41381  20.548  32.836  31.064  0.1366 -0.0387 -0.0519
98444W        W41382  21.280  33.626  31.014 -0.1198 -0.2200  0.0653
98445W        W41383  20.240  34.243  30.920 -0.2963  0.0297  0.0524
98446W        W41384  17.931  33.146  30.837 -0.2098  0.0945  0.3868
98447W        W41385  21.632   1.668  30.893  0.1748  0.2803  0.3358
98448W        W41386  23.036   1.861  20.023  0.1172  0.0380 -0.1718
98449W        W41387  22.767   1.489  17.683  0.2059  0.0705 -0.1983
98450W        W41388  24.815   0.929  15.642 -0.2587  0.1678 -0.1413
98451W        W41389  25.760   2.161  18.908  0.0153  0.3921 -0.1692
98452W        W41390  21.150   1.887  18.201 -0.3667  0.0348  0.1372
98453W        W41391  23.419   4.482  18.276  0.0243  0.1787  0.3998
98454W        W41392  22.388  34.329  19.441  0.0738 -0.1845 -0.4086
98455W        W41393  23.337   2.704  19.660 -0.0393 -0.0160  0.0814
98456W        W41394  25.233   3.253  19.007 -0.1755  0.0848 -0.2714
98457W        W41395  24.751   2.259  17.005  0.1567  0.2882 -0.0758
98458W        W41396  24.116   0.313  19.659 -0.0110  0.1689  0.1682
98459W        W41397  24.624   2.761  19.403  0.0751  0.0691 -0.2644
98460W        W41398  23.381   0.508  16.015 -0.2229 -0.0283 -0.0790
98461W        W41399  21.421   1.808  17.276  0.1271 -0.1193  0.0471
98462W        W41400  24.842   2.935  19.806  0.1154  0.0358  0.0373
98463W        W41401  23.073   1.152  16.889 -0.0817  0.0499 -0.0907
98464W        W41402  22.956   1.242  18.911 -0.0338  0.2369  0.3388
98465W        W41403  24.216   0.651  18.248 -0.2222 -0.4224  0.0307
98466W        W41404  25.064   3.553  18.492 -0.0941  0.2363  0.1777
98467W        W41405  24.797   1.095  20.345 -0.1171  0.0962  0.4357
98468W        W41406  21.592  33.909  19.898  0.2785  0.1135  0.0310
98469W        W41407  23.109   3.216  17.054  0.2580 -0.0233 -0.0066
98470W        W41408  20.953   1.453  16.266  0.0145 -0.1406  0.0911
98471W        W41409  24.577   0.635  17.840 -0.0971 -0.4007  0.2195
98472W        W41410  23.532   1.089  19.447 -0.1113  0.1345  0.0571
98473W        W41411  24.851   0.893  19.420 -0.3304  0.0299  0.1360
98474W        W41412  25.912   3.113  17.183 -0.1250  0.4853  0.0850
98475W        W41413  24.098   3.023  16.482 -0.1246 -0.4059  0.1960
98476W        W41414  24.414   1.768  18.368  0.1787  0.2284  0.3344
98477W        W41415  25.641   2.069  20.018  0.1339 -0.0129  0.0039
98478W        W41416  20.804   2.944  17.783  0.2198  0.2311  0.1124
98479W        W41417  21.416   3.475  16.361  0.0988 -0.1567  0.2229
98480W        W41418  22.601   3.280  16.937 -0.1425 -0.1259  0.1086
98481W        W41419  25.138   3.192  17.212  0.0138  0.0236 -0.0681
98482W        W41420  23.855   3.454  19.201  0.0071 -0.0900  0.1084
98483W        W41421  23.012   3.174  19.651 -0.1243  0.0056 -0.2204
98484W        W41422  23.401   3.023  16.484  0.0804 -0.2771 -0.3551
98485W        W41423  23.176   4.049  18.779  0.0780  0.3523 -0.2628
98486W        W41424  22.285   3.450  18.754  0.1539 -0.3035 -0.2447
98487W        W41425  25.076   2.462  18.082  0.3645  0.0001 -0.1526
98488W        W41426  23.233   1.229  17.461 -0.2665 -0.0286 -0.1701
98489W        W41427  24.265   1.729  16.732 -0.1922  0.0935 -0.1229
98490W        W41428  24.089   3.351  17.890  0.1532  0.1666 -0.2404
98491W        W41429  22.525   2.238  19.964 -0.2742 -0.0840  0.1711
98492W        W41430  21.772   3.248  18.809 -0.0765 -0.1092  0.0773
98493W        W41431  23.304   0.748  20.477  0.1158  0.1806 -0.2718
98494W        W41432  24.231   2.980  15.919  0.1969 -0.0354  0.0625
98495W        W41433  24.103  34.649  16.473 -0.1369  0.2910  0.0761
98496W        W41434  24.164   1.662  15.785 -0.4382 -0.1400 -0.0692
98497W        W41435  25.952   1.726  15.619 -0.0923 -0.0426  0.4994
98498W        W41436  24.865   0.725  16.780 -0.0511 -0.2768 -0.4174
98499W        W41437  23.739   3.410  16.542  0.1117 -0.2043 -0.2834
98500W        W41438  22.371   1.782  17.949 -0.1182 -0.1525 -0.1653
98501W        W41439  24.820   4.022  21.228 -0.0645 -0.0186  0.2846
98502W        W41440  25.261   2.601  16.607 -0.0527 -0.2755  0.0530
98503W        W41441  24.564   2.108  19.545 -0.0195 -0.2526  0.0874
98504W        W41442  23.593   4.327  16.831 -0.0053  0.0494 -0.2099
98505W        W41443  24.093   1.630  17.717  0.4099  0.3602 -0.0465
98506W        W41444  25.099   4.615  16.328 -0.0836  0.2543 -0.1514
98507W        W41445  24.516   3.738  18.418  0.1771  0.1344 -0.0083
98508W        W41446  24.975   1.654  17.496  0.2896 -0.0026 -0.0204
98509W        W41447  23.426   0.273  17.204  0.3151 -0.0066  0.1582
98510W        W41448  21.563   2.277  19.972  0.1714  0.1733  0.0558
98511W        W41449  23.688   0.116  19.404  0.1403  0.0147  0.1334
98512W        W41450  23.703   0.257  16.306  0.0007  0.2762  0.2021
98513W        W41451  24.083   2.154  21.000  0.1394  0.0294  0.1871
98514W        W41452  21.802   4.569  18.061 -0.4899 -0.1197 -0.1656
98515W        W41453  24.835   2.080  17.942  0.1271 -0.0724 -0.2902
98516W        W41454  23.618   1.881  17.893 -0.3061  0.2638 -0.0742
98517W        W41455  24.181   3.709  18.783 -0.3480 -0.0011  0.0949
98518W        W41456  24.880   2.941  16.451  0.1090  0.3345 -0.1049
98519W        W41457  24.251   0.861  18.738  0.1720 -0.0478  0.0207
98520W        W41458  24.594   0.561  19.143 -0.2128 -0.2260 -0.0276
98521W        W41459  21.228   1.492  16.663  0.0350  0.0567  0.0840
98522W        W41460  23.982   3.005  17.522 -0.1871 -0.0090 -0.2760
98523W        W41461  24.683   3.560  20.307 -0.3321 -0.2080 -0.1995
98524W        W41462  25.342   1.600  15.888  0.2294 -0.1192  0.1274
98525W        W41463  22.984   4.315  16.730 -0.1390  0.0226  0.1454
98526W        W41464  23.383   1.032  18.799  0.2844 -0.2767  0.1158
98527W        W41465  24.510   1.998  20.169 -0.0390  0.2004  0.2808
98528W        W41466  22.208   6.229  16.491 -0.4696  0.0364 -0.2627
98529W        W41467  20.012   2.276  18.866 -0.0214 -0.0956  0.1580
98530W        W41468  22.664   2.565  17.670 -0.1593 -0.0479  0.1709
98531W        W41469  21.886   0.477  18.849  0.3280 -0.0946  0.3009
98532W        W41470  22.874   3.141  18.286  0.0851 -0.0370 -0.2737
98533W        W41471  23.522  34.516  17.304 -0.2344 -0.1074  0.2515
98534W        W41472  22.017   1.207  19.173  0.2585 -0.0834 -0.2270
98535W        W41473  24.311   1.165  17.960 -0.0121  0.1425  0.1197
98536W        W41474  22.842   1.633  18.569  0.0653 -0.2904 -0.2707
98537W        W41475  25.736   4.011  16.557  0.2376 -0.0963  0.1705
98538W        W41476  26.339   0.692  16.152  0.1536 -0.3176  0.3222
98539W        W41477  24.111   3.423  16.854 -0.1073  0.0900 -0.1016
98540W        W41478  22.754   1.311  18.189 -0.1147 -0.1626  0.2044
98541W        W41479  23.326   0.415  18.669  0.0842 -0.0539  0.3157
98542W        W41480  21.802   0.296  19.399 -0.1285  0.0702  0.0857
98543W        W41481  21.356   0.314  18.645 -0.0975 -0.1681  0.0544
98544W        W41482  25.039   2.822  20.583 -0.0003 -0.4969  0.1592
98545W        W41483  23.857   0.870  16.398 -0.1515  0.1342  0.0625
98546W        W41484  26.110   2.337  17.641 -0.1904 -0.2112  0.0743
98547W        W41485  23.618   1.631  16.547  0.0896 -0.0057 -0.0353
98548W        W41486  22.198   3.159  16.621 -0.1516 -0.2724 -0.2016
98549W        W41487  23.896   1.121  19.831 -0.1427 -0.0566  0.0152
98550W        W41488  23.881   3.477  17.388 -0.2336  0.0543  0.0259
98551W        W41489  26.248   3.856  19.645  0.1150  0.3004 -0.0086
98552W        W41490  24.639   4.016  18.829 -0.1057  0.1970  0.2369
98553W        W41491  22.422   1.128  17.899  0.2281 -0.1824  0.1304
98554W        W41492  21.542   3.001  16.584  0.3557 -0.1481  0.1924
98555W        W41493  23.853   3.230  18.629  0.3127 -0.1660 -0.0406
98556W        W41494  23.375   3.915  18.249  0.1287 -0.3366 -0.2678
98557W        W41495  22.133   0.268  18.017 -0.1832  0.1033 -0.1070
98558W        W41496  25.959   4.999  19.113 -0.1752  0.2241  0.2179
98559W        W41497  25.421   0.991  18.245 -0.2792 -0.1216  0.1741
98560W        W41498  22.689   2.191  18.399  0.2634 -0.0303  0.1942
98561W        W41499  24.440  34.375  18.987 -0.0625  0.1071  0.0269
98562W        W41500  25.821   3.679  19.904 -0.1096  0.3610 -0.0890
98563W        W41501  23.954   1.501  18.202 -0.1327 -0.0427  0.3566
98564W        W41502  23.118   1.337  15.963  0.0573 -0.1817 -0.1251
98565W        W41503  24.717   2.995  17.369 -0.1636 -0.2637 -0.0821
98566W        W41504  21.120   4.368  15.564  0.0722  0.0350  0.1646
98567W        W41505  21.534   1.437  19.004 -0.2556  0.2842  0.1284
98568W        W41506  23.179   3.458  16.531  0.2744  0.0053  0.0231
98569W        W41507  24.790   1.883  16.581  0.0585  0.1487  0.3344
98570W        W41508  22.921   0.729  19.096 -0.1837  0.0094  0.1254
98571W        W41509  24.548   1.968  17.481  0.1816  0.2238 -0.2699
98572W        W41510  21.728   2.413  17.665  0.0127 -0.0731  0.1613
98573W        W41511  22.733   3.606  19.666  0.0628  0.1462  0.3871
98574W        W41512  24.914   1.108  17.116 -0.2202  0.3373 -0.3074
98575W        W41513  25.053   0.584  18.195 -0.1799 -0.0289  0.1255
98576W        W41514  25.195   2.117  19.691 -0.0743 -0.1895 -0.0964
98577W        W41515  24.442   2.523  17.330 -0.1446 -0.1175  0.1035
98578W        W41516  23.109   1.085  15.516 -0.3420 -0.2459 -0.2352
98579W        W41517  23.941   0.750  15.456 -0.0651 -0.0374  0.4966
98580W        W41518  22.064   2.769  18.869  0.1019 -0.1676 -0.0350
98581W        W41519  24.229   2.957  17.120 -0.1786 -0.2172 -0.1719
98582W        W41520  23.480   2.292  18.808 -0.2003 -0.0429 -0.3359
98583W        W41521  24.541   1.970  15.899  0.0241  0.2429 -0.2293
98584W        W41522  26.335   4.882  17.592  0.0824  0.1523 -0.2081
98585W        W41523  23.520   1.683  18.616  0.0045  0.3552  0.1824
98586W        W41524  24.971   3.425  19.926  0.0614  0.0614 -0.1012
98587W        W41525  24.051   2.751  18.248  0.2524 -0.2116  0.3227
98588W        W41526  24.186   0.276  17.849 -0.2641 -0.1182  0.1344
98589W        W41527  23.359   1.562  17.077 -0.1250 -0.1013 -0.1944
98590W        W41528  24.487   0.301  17.340  0.0803  0.1602  0.0766
98591W        W41529  20.696   4.021  16.061 -0.2288 -0.3978 -0.3557
98592W        W41530  25.495   1.674  18.706  0.0792  0.0313 -0.1649
98593W        W41531  24.557  33.848  18.829  0.0202  0.0148 -0.0109
98594W        W41532  24.306   0.773  19.806  0.4007 -0.0935 -0.3478
98595W        W41533  24.768   3.808  20.732 -0.1389 -0.0336 -0.0125
98596W        W41534  24.834   2.375  16.464 -0.0219 -0.1155  0.0003
98597W        W41535  25.506   2.921  16.891 -0.1729 -0.0599  0.3783
98598W        W41536  22.391   1.807  15.867  0.0381 -0.2801  0.1216
98599W        W41537  24.861   0.435  18.723  0.2821  0.0095 -0.1717
98600W        W41538  23.104   1.393  19.390 -0.1762 -0.2054 -0.0645
98601W        W41539  22.937   3.142  17.597  0.2819  0.0636 -0.0374
98602W        W41540  25.050   2.521  19.454 -0.2178 -0.0246  0.0144
98603W        W41541  24.368   2.933  17.904 -0.1723 -0.0583 -0.2244
98604W        W41542  23.756  34.447  19.032  0.2378 -0.1821 -0.1083
98605W        W41543  25.007   0.899  17.810  0.2210 -0.2324 -0.0555
98606W        W41544  24.178   4.207  16.422  0.2080 -0.2083 -0.1065
98607W        W41545  23.988   1.818  16.285 -0.0026  0.2710  0.1713
98608W        W41546  23.943  33.774  18.030 -0.2539  0.2683  0.0948
98609W        W41547  22.746   4.439  19.076 -0.1274 -0.2205 -0.0302
98610W        W41548  21.975   2.699  16.732  0.0709 -0.1838  0.0540
98611W        W41549  24.730   2.373  20.464  0.1218 -0.1273 -0.0623
98612W        W41550  23.592   3.405  16.996 -0.4185 -0.0032  0.0276
98613W        W41551  25.124   1.288  18.504 -0.0589 -0.3811 -0.3186
98614W        W41552  22.457   3.004  17.919  0.1219 -0.1011  0.3146
98615W        W41553  22.841   1.104  16.407  0.0286 -0.1017  0.0021
98616W        W41554  22.222   2.343  17.459 -0.0262  0.0613  0.1149
98617W        W41555  24.535  32.882  19.144  0.2049 -0.0789 -0.0485
98618W        W41556  25.662   2.353  16.815 -0.1052 -0.1680 -0.0188
98619W        W41557  22.556   0.627  18.109 -0.0899  0.3850  0.1559
98620W        W41558  23.742   0.180  18.850  0.1773  0.0741 -0.0368
98621W        W41559  21.138   4.640  17.218 -0.0957  0.2397  0.0357
98622W        W41560  24.012   2.189  19.743 -0.0567 -0.2236 -0.2250
98623W        W41561  24.366  34.536  15.407  0.0223 -0.0676  0.1077
98624W        W41562  25.432   3.528  19.737 -0.0527 -0.3089  0.0286
98625W        W41563  24.556  34.539  19.490  0.0316  0.1526  0.0301
98626W        W41564  22.701   1.620  16.197 -0.0489  0.0410 -0.0230
98627W        W41565  25.015   1.731  19.367 -0.0174 -0.0307 -0.1411
98628W        W41566  23.956   0.576  19.235 -0.1989  0.2215 -0.2316
98629W        W41567  22.550   2.051  16.379 -0.1696 -0.1237  0.4890
98630W        W41568  24.972   2.875  16.915  0.1253  0.1560 -0.2569
98631W        W41569  23.605   1.562  16.023 -0.0764  0.0282  0.0548
98632W        W41570  22.915   2.849  16.684 -0.4703 -0.1525 -0.0938
98633W        W41571  22.927   0.936  20.098 -0.1599  0.0451 -0.0480
98634W        W41572  25.599   2.971  20.492  0.1416 -0.2243 -0.0935
98635W        W41573  23.577   1.133  16.902 -0.3653 -0.0253 -0.2296
98636W        W41574  22.031   1.708  17.074  0.4527  0.1316 -0.2024
98637W        W41575  24.696   1.638  17.049 -0.1483  0.2786  0.0997
98638W        W41576  24.268   3.750  20.485 -0.1835  0.1798  0.0411
98639W        W41577  24.215   1.358  18.930  0.0490  0.1795  0.4071
98640W        W41578  23.671   1.342  20.766  0.3359  0.1041 -0.3375
98641W        W41579  23.904   0.268  18.368  0.0692  0.0729 -0.1694
98642W        W41580  25.930   4.313  15.698 -0.0024  0.0355  0.2293
98643W        W41581  24.457   1.844  21.204 -0.1292  0.2497 -0.3937
98644W        W41582  24.072   2.545  16.683 -0.1427  0.1232 -0.0962
98645W        W41583  22.360   1.788  18.466  0.0405  0.1362 -0.1026
98646W        W41584  23.163   2.456  16.363 -0.1431 -0.0244 -0.2646
98647W        W41585  24.652   1.203  17.486  0.2197 -0.1018 -0.2548
98648W        W41586  22.235   2.494  18.481  0.0385 -0.2611 -0.0699
98649W        W41587  21.932   4.014  16.478  0.0035  0.0779 -0.1658
98650W        W41588  22.596   3.868  18.722  0.1941 -0.1172  0.2248
98651W        W41589  24.060   1.344  16.160 -0.2063 -0.0280  0.1194
98652W        W41590  25.531   0.478  16.140 -0.0728 -0.1135 -0.0991
98653W        W41591  23.239   1.403  17.933  0.2009 -0.1705 -0.0064
98654W        W41592  25.120   2.322  20.702 -0.4410 -0.0517 -0.2635
98655W        W41593  25.234   2.433  17.062  0.3329 -0.4287 -0.0180
98656W        W41594  23.451   0.648  19.126  0.0184 -0.3236  0.0293
98657W        W41595  23.724   0.660  18.682 -0.1492  0.0513  0.0807
98658W        W41596  25.265   3.727  17.401 -0.0614 -0.0584 -0.3491
98659W        W41597  23.419   0.944  17.828  0.2527 -0.3518  0.2326
98660W        W41598  24.594   4.173  19.366  0.0039 -0.2278  0.3792
98661W        W41599  23.200   2.090  18.464 -0.2783 -0.1320 -0.0451
98662W        W41600  22.644  34.552  17.021 -0.1825  0.0749  0.1145
98663W        W41601  23.097   0.037  16.007 -0.2055 -0.0473 -0.1093
98664W        W41602  24.331   0.783  17.378 -0.1104  0.1562  0.0475
98665W        W41603  25.508   2.657  19.851 -0.0245  0.2041  0.1684
98666W        W41604  23.801   2.118  16.600 -0.1200  0.1474 -0.1224
98667W        W41605  26.229   1.062  19.425  0.0378 -0.1644 -0.2577
98668W        W41606  23.908   3.195  19.970  0.1719 -0.0163  0.3046
98669W        W41607  25.510   3.312  17.551  0.0528  0.1449  0.1442
98670W        W41608  26.258   2.770  16.879  0.1516  0.1319 -0.1565
98671W        W41609  22.160   2.385  16.322 -0.1233  0.2264  0.0273
98672W        W41610  21.951   1.510  18.702  0.1903  0.0821  0.0368
98673W        W41611  24.288   3.207  18.385  0.0415  0.3507  0.1192
98674W        W41612  24.671   0.301  18.224 -0.0859  0.0602 -0.0049
98675W        W41613  25.614   0.801  19.036 -0.1201 -0.1564 -0.1474
98676W        W41614  24.986   2.562  18.591  0.1092 -0.0958 -0.0090
98677W        W41615  24.282   1.756  19.771 -0.4809 -0.0727  0.0828
98678W        W41616  22.314   0.242  19.471  0.3877  0.0114  0.1591
98679W        W41617  25.448   2.762  19.271  0.1459  0.3457 -0.0862
98680W        W41618  25.071   2.158  17.521 -0.0753 -0.1515 -0.3330
98681W        W41619  24.808   2.273  19.078  0.1518 -0.0428  0.1741
98682W        W41620  25.240   1.468  17.912  0.6076  0.0665  0.1468
98683W        W41621  25.348   2.008  16.600 -0.0095  0.3222  0.0562
98684W        W41622  22.414   1.367  18.791  0.0740  0.0613  0.3858
98685W        W41623  23.907   1.547  21.583  0.1373 -0.4281 -0.1178
98686W        W41624  22.970   1.688  16.674  0.2330 -0.4018  0.1487
98687W        W41625  24.038   1.404  19.377  0.0921  0.1141 -0.0451
98688W        W41626  24.535   2.650  16.822  0.3590 -0.1152 -0.1126
98689W        W41627  24.952   1.705  18.281 -0.0003  0.0101 -0.4408
98690W        W41628  25.505   2.377  17.796  0.0247  0.2044 -0.0764
98691W        W41629  22.186   1.737  19.192 -0.0814 -0.0510 -0.1099
98692W        W41630  21.260   3.135  18.867  0.0996  0.0694  0.0713
98693W        W41631  22.203   0.250  15.918 -0.3321 -0.2041 -0.1333
98694W        W41632  23.086   2.443  17.526  0.4139  0.3553 -0.4441
98695W        W41633  24.164   2.831  18.780 -0.1789 -0.1461  0.1973
98696W        W41634  25.126   1.311  19.577 -0.2597 -0.0938 -0.0760
98697W        W41635  24.181   0.237  15.690  0.4898  0.0517 -0.1164
98698W        W41636  24.796   2.399  19.905  0.3326  0.0676 -0.0368
98699W        W41637  22.433   2.760  16.797  0.1715  0.2054  0.2230
98700W        W41638  25.721   0.668  17.424  0.0511 -0.0719  0.0437
98701W        W41639  22.676   3.492  17.820 -0.0805 -0.3010 -0.0710
98702W        W41640  22.646   3.219  20.105  0.1690 -0.1692 -0.1227
98703W        W41641  23.877   1.984  18.371 -0.1777 -0.0678 -0.0842
98704W        W41642  24.342   0.945  19.320 -0.1699 -0.3854  0.3634
98705W        W41643  25.371   2.032  18.151  0.0245 -0.1122 -0.1090
98706W        W41644  22.650   2.305  17.153  0.1047 -0.0327 -0.1843
98707W        W41645  25.426   1.877  20.375 -0.1074  0.2660 -0.2986
98708W        W41646  23.739   1.871  20.654  0.2876  0.0085 -0.1759
98709W        W41647  23.751   1.293  17.834 -0.1688 -0.3142 -0.0860
98710W        W41648  24.821   5.288  19.621  0.0164  0.2198  0.0596
98711W        W41649  26.135   2.282  16.755  0.1314 -0.1647 -0.2209
98712W        W41650  21.962   2.812  17.858 -0.0014  0.4380  0.1737
98713W        W41651  23.254   0.182  19.146  0.3540 -0.0572  0.0960
98714W        W41652  23.526   0.849  20.064  0.2101 -0.1135 -0.0025
98715W        W41653  23.669   1.618  17.440 -0.1543  0.0324 -0.0793
98716W        W41654  22.702   0.015  16.280  0.1078 -0.3315  0.1571
98717W        W41655  23.605   2.969  17.957 -0.1442  0.0374 -0.1181
98718W        W41656  22.100   2.786  19.405 -0.1523  0.1577 -0.0477
98719W        W41657  21.913   3.364  18.327 -0.1581  0.1389 -0.1359
98720W        W41658  21.242   4.417  16.619 -0.0952 -0.4066 -0.1727
98721W        W41659  25.872   2.780  16.470 -0.2103  0.0488  0.2042
98722W        W41660  24.605   4.361  17.409  0.0601  0.0275 -0.2670
98723W        W41661  23.773   3.516  18.254 -0.1107 -0.0499  0.1560
98724W        W41662  23.320   1.256  16.450  0.2642  0.3159  0.1208
98725W        W41663  23.504   2.048  17.221  0.2712 -0.0053 -0.1258
98726W        W41664  22.382   4.854  16.420  0.0016 -0.2534  0.1994
98727W        W41665  24.991   4.136  17.264 -0.0810 -0.4137 -0.0232
98728W        W41666  22.876   2.795  17.181  0.0386  0.3086  0.2701
98729W        W41667  24.167   4.428  19.433  0.0808 -0.4578 -0.1164
98730W        W41668  24.322   0.891  16.134 -0.0951 -0.2358 -0.1425
98731W        W41669  26.933   2.857  18.148  0.1081 -0.2996 -0.4280
98732W        W41670  25.135   1.493  16.821 -0.2492  0.0917  0.2300
98733W        W41671  24.290   2.887  19.763 -0.1356 -0.2501 -0.0830
98734W        W41672  24.359   1.318  18.425  0.0968  0.1530  0.2926
98735W        W41673  23.965   0.220  17.425 -0.1772  0.1997 -0.2010
98736W        W41674  23.832   1.331  18.623  0.2312 -0.1920 -0.1555
98737W        W41675  25.273   1.409  20.178 -0.6062 -0.1549  0.3259
98738W        W41676  20.375   3.367  19.341 -0.2049  0.0540  0.0926
98739W        W41677  25.587   4.761  16.745  0.0521  0.0090  0.1466
98740W        W41678  21.986   2.078  18.347 -0.0078  0.2332  0.2817
98741W        W41679  23.079   2.262  17.988  0.2381 -0.2017 -0.0232
98742W        W41680  25.154   0.066  18.444 -0.3552 -0.3915 -0.3056
98743W        W41681  24.172   0.441  16.368 -0.0547  0.1316  0.2128
98744W        W41682  25.132   1.106  19.062  0.1393  0.4051  0.2649
98745W        W41683  24.823   3.488  16.432  0.1474 -0.1693 -0.1298
98746W        W41684  21.641   4.117  18.308  0.1411  0.1460  0.0590
98747W        W41685  21.886   3.580  17.481 -0.1226  0.4648  0.1303
98748W        W41686  22.973   1.864  17.175  0.1554  0.4031  0.0876
98749W        W41687  24.238   1.672  17.222  0.0433  0.2836  0.0875
98750W        W41688  21.362   1.915  20.379  0.0099 -0.2112 -0.1499
98751W        W41689  25.774  34.455  19.646 -0.1852 -0.1098  0.0689
98752W        W41690  22.162   2.227  16.820 -0.3317 -0.4193  0.1323
98753W        W41691  24.938   2.631  17.569 -0.1991 -0.0575  0.0758
98754W        W41692  24.454   1.976  18.847 -0.1273 -0.1691  0.0228
98755W        W41693  23.125   1.776  18.977 -0.2505  0.1812 -0.1323
98756W        W41694  25.264   1.945  17.082  0.2810  0.1773  0.1771
98757W        W41695  24.215   2.859  21.824  0.2388 -0.0407 -0.2459
98758W        W41696  25.191   2.563  15.620 -0.1353  0.3006 -0.1466
98759W        W41697  24.223   3.836  18.053 -0.3540 -0.2633  0.2181
98760W        W41698  22.865   1.802  18.070  0.1211 -0.0635 -0.4364
98761W        W41699  25.177   1.041  16.515  0.0674 -0.0661 -0.0265
98762W        W41700  21.495   2.970  17.103  0.2098  0.1736  0.2997
98763W        W41701  23.198   1.823  17.633 -0.0434  0.0557 -0.0852
98764W        W41702  25.394   4.761  19.070 -0.0975 -0.4544 -0.2362
98765W        W41703  22.144   0.781  17.717 -0.1887  0.4679  0.2752
98766W        W41704  25.410   3.060  16.422  0.2432 -0.4003  0.1438
98767W        W41705  25.443   2.773  17.423 -0.0882  0.0735  0.2118
98768W        W41706  23.344   2.014  16.732  0.0120 -0.1988 -0.0819
98769W        W41707  25.975   2.526  18.646 -0.1438  0.2856  0.1094
98770W        W41708  25.024   2.788  19.055 -0.1791  0.1606 -0.1610
98771W        W41709  22.692   1.614  19.206  0.0679  0.1407  0.2451
98772W        W41710  24.242   3.071  19.256  0.0431 -0.2724  0.0842
98773W        W41711  25.008   3.096  18.460  0.1585  0.1399 -0.2008
98774W        W41712  24.429   0.061  16.073 -0.1738 -0.0366 -0.0895
98775W        W41713  24.765   0.855  18.479 -0.0903  0.4244  0.3030
98776W        W41714  22.075   3.301  17.111 -0.1265  0.2600  0.0568
98777W        W41715  24.241   1.843  19.299  0.1376 -0.2118  0.1942
98778W        W41716  24.560   1.636  17.856 -0.3141 -0.0382 -0.0880
98779W        W41717  24.389   2.672  16.281 -0.0318 -0.1533 -0.0055
98780W        W41718  24.864  33.181  19.406  0.1026 -0.1718 -0.3748
98781W        W41719  23.415   3.298  20.651  0.2268 -0.2180 -0.0055
98782W        W41720  20.377   3.552  20.203 -0.2477 -0.0003 -0.1524
98783W        W41721  23.917   2.113  15.697 -0.0362  0.1068  0.3699
98784W        W41722  24.008   1.207  17.407 -0.3751 -0.0373  0.1801
98785W        W41723  23.509   2.762  17.387  0.0893 -0.1997  0.0683
98786W        W41724  23.830   2.449  17.088 -0.0076  0.0449 -0.2217
98787W        W41725  24.754   2.163  18.423 -0.4954  0.1315 -0.2677
98788W        W41726  25.642   0.194  17.661  0.0955 -0.0677 -0.2187
98789W        W41727  25.699   1.584  18.191  0.2998  0.1032 -0.0838
98790W        W41728  22.670   0.589  17.596 -0.1276  0.0574  0.1136
98791W        W41729  25.915   1.947  18.485  0.2709 -0.1557  0.0303
98792W        W41730  24.957   1.426  16.182  0.0001 -0.1613  0.0172
98793W        W41731  22.449   3.338  17.418  0.1148  0.0909  0.1568
98794W        W41732  22.327   3.809  17.558  0.0135  0.2978 -0.0115
98795W        W41733  23.672   2.571  16.392  0.2072 -0.0033  0.1036
98796W        W41734  22.445   3.046  19.036 -0.3936  0.2179 -0.0672
98797W        W41735  23.194  34.536  19.982 -0.2339 -0.1851 -0.1224
98798W        W41736  22.478   1.970  18.922 -0.0419  0.0187 -0.1369
98799W        W41737  22.166   3.483  17.860 -0.0620 -0.1687  0.1901
98800W        W41738  23.243   0.198  16.481 -0.0311  0.1048  0.0813
98801W        W41739  23.590   2.915  16.954 -0.1407  0.0225  0.0458
98802W        W41740  23.335  34.553  17.759 -0.1962 -0.0400  0.2913
98803W        W41741  22.389   1.376  17.347 -0.0522  0.1711 -0.1539
98804W        W41742  24.186   2.098  17.873  0.2465  0.1161 -0.0695
98805W        W41743  25.527   3.579  16.421  0.1561  0.0939  0.0518
98806W        W41744  23.814   0.713  17.299 -0.1382 -0.1719 -0.0122
98807W        W41745  24.782   5.400  19.028 -0.2823  0.1555 -0.0214
98808W        W41746  22.853   3.726  16.819  0.0202 -0.1654 -0.1178
98809W        W41747  23.599   0.658  18.197 -0.1464  0.1164  0.2979
98810W        W41748  23.114   0.505  17.955 -0.2506  0.1271 -0.2169
98811W        W41749  22.238   1.063  16.587 -0.2011 -0.0305 -0.2526
98812W        W41750  25.411   1.831  17.653 -0.1805 -0.0719  0.1910
98813W        W41751  23.325   3.440  18.076  0.0027  0.2381 -0.1640
98814W        W41752  25.179   3.344  16.759  0.1602 -0.2885  0.2736
98815W        W41753  24.294   2.310  18.315  0.1802 -0.1540  0.0488
98816W        W41754  22.543   3.592  20.427 -0.1677 -0.1943  0.0951
98817W        W41755  22.017   0.953  18.711 -0.0746  0.0013  0.1139
98818W        W41756  26.545   2.576  17.720 -0.0364  0.0115 -0.1725
98819W        W41757  22.920   3.109  19.144 -0.1646 -0.0275 -0.2573
98820W        W41758  25.472   2.788  18.709  0.2379 -0.1234 -0.1174
98821W        W41759  25.288   2.194  19.161  0.1919  0.0944  0.1324
98822W        W41760  24.190   2.459  19.261 -0.2165  0.0433  0.2058
98823W        W41761  22.275  34.102  19.002  0.0594  0.0686 -0.0615
98824W        W41762  21.692   1.754  20.865 -0.3067  0.0787 -0.0495
98825W        W41763  25.439   3.440  20.248  0.2388 -0.0896 -0.1721
98826W        W41764  22.368   1.876  17.429 -0.1798 -0.2957  0.0624
98827W        W41765  25.866   1.945  17.921 -0.1647 -0.0823  0.1221
98828W        W41766  24.241   2.196  16.989  0.0517 -0.0094 -0.3083
98829W        W41767  22.444   3.417  18.271  0.2201  0.0982 -0.0197
98830W        W41768  23.801   1.758  16.988  0.0360  0.1437  0.1006
98831W        W41769  24.692   1.558  18.688 -0.0213  0.1497  0.2574
98832W        W41770  23.399   1.127  18.324  0.1907 -0.1206 -0.1388
98833W        W41771  24.312   3.103  21.070  0.3253 -0.1076 -0.3815
98834W        W41772  24.449   1.589  16.331 -0.3753 -0.0131 -0.1240
98835W        W41773  25.631   1.128  18.659  0.1744  0.3330 -0.0508
98836W        W41774  23.329   2.302  19.298  0.0621 -0.0765  0.3487
98837W        W41775  25.139   5.066  19.909  0.2066 -0.3809 -0.3573
98838W        W41776  23.078   2.793  17.897  0.3244  0.3078 -0.3214
98839W        W41777  25.944   2.996  18.965  0.0860 -0.1519 -0.0983
98840W        W41778  21.870   1.084  18.102 -0.1132 -0.1053 -0.0304
98841W        W41779  24.846   0.651  17.366  0.1445 -0.0561  0.3559
98842W        W41780  23.980   2.049  17.393  0.2769 -0.1428 -0.4376
98843W        W41781  26.394   2.278  18.605 -0.2701 -0.1133 -0.3852
98844W        W41782  24.656   1.107  18.882  0.0685 -0.0647  0.1163
98845W        W41783  25.863   0.585  18.653  0.0432  0.0129 -0.0983
98846W        W41784  22.497   3.910  18.059  0.1430 -0.1763  0.0347
98847W        W41785  24.010   1.809  18.801 -0.0156  0.0631  0.1550
98848W        W41786  22.610   2.109  21.556 -0.0751 -0.0202 -0.0605
98849W        W41787  22.881   0.242  21.089 -0.3499  0.4168 -0.2538
98850W        W41788  23.929   0.580  20.126  0.1076 -0.1898 -0.0439
98851W        W41789  25.100   1.702  22.091 -0.2262 -0.1240 -0.1208
98852W        W41790  22.157   0.081  21.947  0.0103 -0.0085  0.0121
98853W        W41791  24.248   2.325  20.577 -0.1614  0.3047 -0.2140
98854W        W41792  21.484   1.120  24.385 -0.1975  0.1178 -0.3071
98855W        W41793  24.324   1.807  21.777 -0.1924 -0.2063 -0.2684
98856W        W41794  24.658   3.562  21.155  0.0091  0.3057 -0.0595
98857W        W41795  24.034   1.799  20.277 -0.1610 -0.2453  0.0759
98858W        W41796  21.127  34.589  22.954  0.1679 -0.5872 -0.0028
98859W        W41797  23.801   2.838  22.338  0.2165 -0.1178 -0.1253
98860W        W41798  22.828   0.338  18.704  0.2450 -0.0531 -0.3670
98861W        W41799  20.485  34.452  20.828 -0.2668  0.0118 -0.0423
98862W        W41800  23.735   1.127  21.744 -0.0133  0.1155  0.2806
98863W        W41801  22.827   1.933  20.513  0.1644 -0.1323  0.1190
98864W        W41802  22.396   0.968  21.634 -0.1792  0.1929 -0.3229
98865W        W41803  22.766   1.429  20.686 -0.3285  0.1535 -0.0212
98866W        W41804  22.599   4.084  21.575 -0.3681 -0.0881 -0.2322
98867W        W41805  21.313   0.031  21.830 -0.3795 -0.1088 -0.1354
98868W        W41806  25.388  33.450  22.403  0.0652  0.2365  0.1376
98869W        W41807  22.277   3.588  19.904  0.0118  0.0650 -0.0064
98870W        W41808  23.002   0.402  20.646 -0.1030 -0.1426  0.1209
98871W        W41809  22.146   2.116  20.744 -0.2536  0.0547  0.0370
98872W        W41810  21.854   1.605  22.285  0.2328  0.0513 -0.0257
98873W        W41811  23.850  34.403  22.275  0.3392 -0.1596 -0.0701
98874W        W41812  24.736  34.411  23.225 -0.3394 -0.2553 -0.1270
98875W        W41813  21.641   2.090  22.078  0.2329  0.1468  0.3001
98876W        W41814  24.407   3.295  21.512  0.2526 -0.2196  0.3924
98877W        W41815  22.660   1.530  22.401  0.1561 -0.1516  0.0651
98878W        W41816  20.543   2.442  19.740 -0.1294 -0.0314 -0.2349
98879W        W41817  21.011   4.240  21.911 -0.1753 -0.3464  0.1222
98880W        W41818  21.332   2.423  21.313  0.2548 -0.2277  0.1832
98881W        W41819  24.901   1.210  22.690  0.2618 -0.0660 -0.2019
98882W        W41820  23.319   2.760  22.189  0.0689  0.1299  0.0533
98883W        W41821  22.865   2.834  21.924 -0.0190  0.0007 -0.0792
98884W        W41822  21.345   2.004  19.505  0.0658 -0.2746 -0.1337
98885W        W41823  23.204   3.808  22.735 -0.5254  0.1903  0.1010
98886W        W41824  21.690   3.655  23.328  0.0727 -0.2529 -0.2369
98887W        W41825  24.435   2.249  21.440 -0.2977  0.3597 -0.4186
98888W        W41826  25.067   2.816  21.709 -0.1330  0.0103 -0.0860
98889W        W41827  22.774   3.319  18.757 -0.1549 -0.1372 -0.1360
98890W        W41828  23.591   2.241  22.810 -0.1143 -0.0094  0.1717
98891W        W41829  23.460   0.662  22.329  0.1825  0.2090 -0.0360
98892W        W41830  21.245   2.394  22.156  0.1146 -0.2402 -0.2644
98893W        W41831  24.518   0.126  23.523  0.1975 -0.2834  0.0622
98894W        W41832  22.017   4.149  20.874 -0.0476 -0.2439  0.2322
98895W        W41833  24.912   1.045  20.828 -0.0764  0.0900 -0.1233
98896W        W41834  22.795   1.001  17.303 -0.3372  0.1216  0.1753
98897W        W41835  24.689   0.928  21.372  0.0887 -0.2522 -0.3648
98898W        W41836  22.719   0.622  22.041  0.4672  0.0362  0.1007
98899W        W41837  21.563   4.968  21.585 -0.1543  0.0281 -0.0068
98900W        W41838  23.562  33.568  21.118  0.3002  0.0378  0.1160
98901W        W41839  24.986   1.612  22.986 -0.1816  0.0616 -0.1020
98902W        W41840  23.725   0.465  20.607 -0.1275  0.2245 -0.0801
98903W        W41841  23.805   1.053  22.232  0.0431  0.0658  0.2877
98904W        W41842  21.492   3.078  22.061  0.0951 -0.1059  0.0409
98905W        W41843  22.171   2.039  21.282  0.1670 -0.1964  0.2272
98906W        W41844  25.561   3.844  21.261  0.1430 -0.0435 -0.3471
98907W        W41845  25.870   2.009  21.960  0.2609 -0.1653  0.0067
98908W        W41846  23.899   3.438  20.621  0.0203  0.0974 -0.1152
98909W        W41847  22.531   2.348  20.556 -0.0229 -0.2969  0.0255
98910W        W41848  21.914   2.037  23.827  0.1151 -0.0912 -0.1603
98911W        W41849  21.453   0.927  22.448 -0.0667  0.1713 -0.2328
98912W        W41850  22.645   0.606  19.687 -0.0945  0.2141 -0.2942
98913W        W41851  24.393   1.051  23.409  0.0971 -0.2588 -0.4740
98914W        W41852  22.361   2.336  23.553 -0.2158  0.4873 -0.0260
98915W        W41853  25.362   0.219  22.312 -0.0189 -0.1370 -0.0010
98916W        W41854  23.216   3.649  22.255 -0.1338  0.4781  0.1330
98917W        W41855  24.874   1.871  22.574 -0.0767  0.0134 -0.1180
98918W        W41856  26.055   1.423  20.786  0.1037 -0.0039  0.2366
98919W        W41857  23.527   0.161  22.159 -0.0350 -0.2963 -0.3111
98920W        W41858  24.651  34.330  22.735 -0.1175 -0.0769  0.0389
98921W        W41859  21.702   0.414  20.200  0.0142 -0.0186 -0.1644
98922W        W41860  23.541   2.262  19.884 -0.2655 -0.1719 -0.1323
98923W        W41861  25.084   1.910  23.954 -0.1081  0.2987 -0.0001
98924W        W41862  23.822   1.007  19.034  0.2864  0.0006  0.1520
98925W        W41863  22.228   2.800  22.072 -0.1717  0.2069 -0.1236
98926W        W41864  23.338   1.146  22.250 -0.1834  0.1813  0.1228
98927W        W41865  23.133   2.899  23.150  0.0753 -0.0619 -0.3021
98928W        W41866  22.355   2.162  19.463  0.1328  0.0177  0.1689
98929W        W41867  20.899   2.942  22.770  0.0719 -0.2491  0.0948
98930W        W41868  22.591   0.044  21.425  0.1195  0.2909  0.0460
98931W        W41869  21.832  34.339  23.686  0.1306 -0.2418  0.2579
98932W        W41870  23.712   2.778  21.849 -0.0404 -0.0607  0.0335
98933W        W41871  24.208   0.813  22.115  0.0796  0.0316 -0.1682
98934W        W41872  20.491  33.833  22.167 -0.3148 -0.1331 -0.0506
98935W        W41873  24.557   0.897  22.950  0.3012 -0.0655  0.0579
98936W        W41874  21.908   1.184  21.647  0.1732  0.0373  0.0462
98937W        W41875  23.934   2.652  22.833 -0.2083 -0.1011  0.1930
98938W        W41876  24.411   0.353  20.094 -0.2654  0.1194  0.0912
98939W        W41877  23.895   3.696  21.523 -0.3771 -0.1219 -0.2493
98940W        W41878  20.240   1.659  23.541 -0.0112 -0.1866 -0.0272
98941W        W41879  22.552  34.653  20.804  0.2123 -0.0197  0.1636
98942W        W41880  22.336   0.438  24.015  0.2762  0.1172  0.2452
98943W        W41881  21.202  33.409  22.270 -0.1165  0.0677  0.0769
98944W        W41882  24.540   1.975  23.901 -0.2686  0.2561 -0.2169
98945W        W41883  22.122   1.019  19.674 -0.2481  0.0726  0.1942
98946W        W41884  25.218   0.923  23.581  0.1569 -0.1248 -0.0178
98947W        W41885  22.552   2.899  20.773  0.3180 -0.1214  0.4514
98948W        W41886  21.071   2.474  19.731  0.0110 -0.0389  0.2743
98949W        W41887  24.256  34.634  22.490 -0.0585  0.0738  0.0976
98950W        W41888  24.116   3.890  19.468 -0.2203 -0.0499 -0.1699
98951W        W41889  25.426   2.681  22.168 -0.3466  0.0010 -0.1791
98952W        W41890  24.249   2.951  23.117  0.1391 -0.2180 -0.3502
98953W        W41891  20.643   0.572  22.901  0.0619 -0.1447  0.2308
98954W        W41892  22.234   1.339  18.305  0.2170 -0.2801  0.3524
98955W        W41893  22.254   3.133  20.387 -0.1492 -0.2306  0.0603
98956W        W41894  23.314   3.188  21.337  0.1470 -0.1577  0.1903
98957W        W41895  23.810   0.619  21.220  0.3057 -0.1343  0.0763
98958W        W41896  25.480   3.343  21.334  0.1869 -0.0468 -0.0330
98959W        W41897  23.329   3.802  20.538 -0.1342  0.2208  0.2926
98960W        W41898  22.873   1.652  21.908  0.0727 -0.1894 -0.2390
98961W        W41899  24.307  34.049  23.970  0.0708  0.4457 -0.2309
98962W        W41900  25.373   1.446  22.758 -0.5123  0.1567  0.3785
98963W        W41901  23.507   1.985  22.015  0.2715 -0.0596 -0.1535
98964W        W41902  21.075   0.028  18.943 -0.4257 -0.1116 -0.0586
98965W        W41903  24.768   4.361  21.657  0.1389  0.0490 -0.3292
98966W        W41904  21.941   3.478  21.164 -0.0752 -0.1318 -0.0289
98967W        W41905  23.324   2.598  21.183 -0.3323  0.0712  0.0817
98968W        W41906  22.221   2.578  21.090 -0.0206 -0.1160 -0.1981
98969W        W41907  24.125   0.931  21.556  0.6072  0.2360  0.0600
98970W        W41908  21.585   1.514  23.160 -0.1521  0.1952 -0.2499
98971W        W41909  22.823   0.184  22.772  0.0379 -0.0988 -0.0068
98972W        W41910  21.753   1.622  19.369  0.1523 -0.1536 -0.4532
98973W        W41911  22.501   2.411  22.056 -0.1227 -0.2035 -0.0281
98974W        W41912  23.335  34.456  19.415  0.3030  0.0468 -0.3035
98975W        W41913  24.705   1.598  20.382  0.3521  0.0533 -0.0793
98976W        W41914  22.878   1.212  22.695 -0.1776  0.0006 -0.3903
98977W        W41915  24.282   1.371  20.119  0.0740 -0.1126 -0.0743
98978W        W41916  23.896   0.791  17.758 -0.0505  0.1097 -0.1515
98979W        W41917  24.146   0.419  21.580  0.1020 -0.0012 -0.2127
98980W        W41918  21.385   2.951  22.968 -0.2136  0.4256 -0.3081
98981W        W41919  24.088   2.717  20.366 -0.3434 -0.1670 -0.1513
98982W        W41920  24.140   2.184  23.037 -0.0089  0.0182 -0.1149
98983W        W41921  24.816   0.644  19.947  0.2349  0.0414  0.1544
98984W        W41922  23.793   4.156  21.720 -0.1595 -0.0520  0.2856
98985W        W41923  21.019   2.204  21.775 -0.1351 -0.0995 -0.2147
98986W        W41924  24.859   2.417  23.987  0.0994  0.3234 -0.0675
98987W        W41925  24.050   2.098  22.570 -0.1264 -0.1519  0.0358
98988W        W41926  21.515   0.222  22.331 -0.1513 -0.0222  0.1709
98989W        W41927  23.127   0.166  19.624 -0.1070  0.0541 -0.0437
98990W        W41928  23.243  34.660  21.727  0.0567  0.3458 -0.2642
98991W        W41929  21.656   3.056  19.623  0.0999 -0.1421 -0.2421
98992W        W41930  24.031   1.649  21.056  0.0627 -0.1615 -0.1067
98993W        W41931  22.140   1.064  21.241  0.1297  0.2056  0.1275
98994W        W41932  21.979   0.477  22.732  0.1258  0.0427  0.0385
98995W        W41933  25.411   0.974  25.595 -0.1504 -0.0193  0.0222
98996W        W41934  23.776   1.164  20.315 -0.4051  0.1863  0.1787
98997W        W41935  24.822   1.244  23.229 -0.1246 -0.2803  0.0107
98998W        W41936  22.642   0.060  19.841 -0.0653 -0.0779  0.0709
98999W        W41937  21.938   0.703  21.582  0.3332  0.1610 -0.0498
99000W        W41938  22.123   1.468  22.672  0.2147  0.0713  0.2216
99001W        W41939  21.909   2.756  22.732  0.1018 -0.3250 -0.1945
99002W        W41940  24.236   3.601  21.886 -0.0770 -0.1880 -0.1369
99003W        W41941  23.568   2.139  21.091 -0.2529  0.2213 -0.0904
99004W        W41942  24.577   0.638  24.731  0.1246 -0.0783  0.2113
99005W        W41943  21.616   1.100  19.442 -0.1694 -0.1536  0.3261
99006W        W41944  23.175   3.174  20.154 -0.1704 -0.0077 -0.0311
99007W        W41945  23.183   1.272  20.372  0.0649 -0.2118 -0.1362
99008W        W41946  22.840   0.944  20.644 -0.0498  0.0392 -0.0451
99009W        W41947  24.585   1.552  22.188 -0.1014  0.0703 -0.0554
99010W        W41948  22.853   2.845  18.680 -0.0205 -0.1954 -0.0181
99011W        W41949  23.482   0.860  20.873  0.0945 -0.2571 -0.2099
99012W        W41950  21.539   3.499  21.782 -0.0448  0.0177  0.1550
99013W        W41951  23.791   0.041  22.699 -0.1522  0.2795 -0.0568
99014W        W41952  21.430   3.421  21.176  0.0693 -0.1592 -0.0985
99015W        W41953  23.015   1.610  21.397 -0.3123 -0.3413 -0.1311
99016W        W41954  20.526   1.513  19.299  0.1482  0.0736  0.1646
99017W        W41955  24.203  34.628  23.078  0.0864  0.2821  0.0722
99018W        W41956  24.311   0.862  20.349  0.1341 -0.0785  0.0109
99019W        W41957  21.392   1.291  22.000  0.2509  0.3053 -0.0420
99020W        W41958  23.777   0.605  21.857  0.0746  0.2467 -0.0531
99021W        W41959  20.840   3.794  22.636  0.0873 -0.0007  0.0602
99022W        W41960  22.765   0.678  22.597  0.2386 -0.1584 -0.1203
99023W        W41961  24.779  34.153  19.349  0.0615  0.1494 -0.2221
99024W        W41962  24.430   1.995  24.388 -0.0597 -0.1019  0.2498
99025W        W41963  22.562   1.998  21.020 -0.2220  0.0045 -0.0807
99026W        W41964  21.760   1.428  19.827 -0.1554 -0.1741 -0.0051
99027W        W41965  26.492   1.628  22.695 -0.1732 -0.2678 -0.0924
99028W        W41966  24.188   1.352  20.679 -0.1461  0.3058 -0.1481
99029W        W41967  21.835   1.979  19.694  0.2817  0.2562 -0.1002
99030W        W41968  24.117   2.587  23.409  0.0625 -0.3162  0.0213
99031W        W41969  22.511   2.505  19.111  0.0474  0.1794 -0.2320
99032W        W41970  22.830   2.103  19.253 -0.1423 -0.1029 -0.0967
99033W        W41971  24.593   0.110  24.517  0.0453 -0.0857 -0.0376
99034W        W41972  24.906   0.657  22.600  0.0811  0.1114  0.2174
99035W        W41973  22.258   0.532  21.910  0.0270 -0.0901 -0.3701
99036W        W41974  22.637   1.207  21.129  0.0192 -0.0017  0.0391
99037W        W41975  23.935  34.449  24.143  0.3178 -0.1234 -0.0503
99038W        W41976  22.668   2.676  21.454 -0.1828 -0.0554  0.1137
99039W        W41977  22.030   1.422  23.197 -0.2900  0.2204  0.4343
99040W        W41978  23.857   1.762  24.196 -0.1977 -0.1855  0.3606
99041W        W41979  22.345  33.757  22.551 -0.1599  0.1265  0.2540
99042W        W41980  25.265   4.856  22.182  0.2689 -0.2301 -0.0355
99043W        W41981  23.666  34.392  24.544  0.1314 -0.1798 -0.0895
99044W        W41982  22.524   2.643  19.647  0.0810 -0.2737 -0.1259
99045W        W41983  22.011   0.287  20.668 -0.0710  0.0667 -0.3648
99046W        W41984  23.330   2.051  20.387  0.0883 -0.0434  0.2821
99047W        W41985  23.325   0.231  22.671 -0.1751 -0.0245  0.1759
99048W        W41986  21.801   1.938  22.709  0.0212 -0.1280  0.1109
99049W        W41987  22.008   2.466  19.806  0.1449 -0.0966  0.0478
99050W        W41988  22.561   3.397  20.940  0.0817 -0.1709  0.1314
99051W        W41989  24.914   0.097  20.391 -0.0658  0.0082 -0.0293
99052W        W41990  23.567   1.464  19.109  0.2512 -0.0000 -0.1050
99053W        W41991  23.154   2.215  21.438  0.2146 -0.4111 -0.0011
99054W        W41992  26.370   0.324  23.443  0.0040  0.1230 -0.0917
99055W        W41993  23.479   1.792  21.555 -0.0662  0.0125  0.0879
99056W        W41994  24.851   0.171  24.018  0.1827 -0.1200  0.2205
99057W        W41995  21.408   0.564  22.832 -0.0579  0.3131 -0.3587
99058W        W41996  24.776   1.767  21.666 -0.1379  0.1659  0.2107
99059W        W41997  23.419   0.916  21.366  0.3313 -0.0105  0.0889
99060W        W41998  24.522   3.401  22.820 -0.0151 -0.3686  0.0283
99061W        W41999  21.918   1.905  23.360  0.3105  0.0469  0.1422
99062W        W42000  23.729   0.141  21.591 -0.3934  0.2034  0.3569
99063W        W42001  22.477   1.026  20.256 -0.1351  0.2983  0.2083
99064W        W42002  23.627   1.829  22.479 -0.2535 -0.0487 -0.3520
99065W        W42003  24.945   2.691  22.345 -0.1893 -0.0010 -0.1302
99066W        W42004  23.830   5.233  21.430 -0.0277 -0.0386 -0.0703
99067W        W42005  24.397   1.400  21.468 -0.1508  0.0041 -0.2965
99068W        W42006  22.227   1.570  20.954  0.2469  0.3166 -0.2228
99069W        W42007  24.998   1.298  21.269 -0.2174  0.1887 -0.0673
99070W        W42008  23.647   1.949  19.133  0.1122  0.0367  0.0560
99071W        W42009  23.050   2.252  21.982 -0.0557 -0.0681  0.1259
99072W        W42010  20.573   1.265  22.124 -0.1603  0.0745 -0.1152
99073W        W42011  24.748   1.317  21.795 -0.0528  0.0590  0.0444
99074W        W42012  24.656   1.454  20.912  0.1318  0.0646  0.2929
99075W        W42013  23.831   0.209  23.224  0.3143 -0.1577 -0.1925
99076W        W42014  24.494   0.507  23.217  0.6571  0.2973  0.0780
99077W        W42015  23.418   2.445  23.269  0.1131 -0.1057 -0.0039
99078W        W42016  22.444  34.682  24.372  0.4197  0.0458  0.0922
99079W        W42017  25.210   3.519  23.625  0.1719  0.1091  0.0233
99080W        W42018  24.896   1.935  20.945 -0.2142  0.0768 -0.1981
99081W        W42019  25.332   0.915  22.639  0.0077 -0.2186 -0.2062
99082W        W42020  25.228   0.301  20.697  0.7971 -0.1108 -0.1461
99083W        W42021  24.324   2.435  20.040  0.1657  0.0997 -0.4727
99084W        W42022  21.918  34.108  21.757  0.0210 -0.1342  0.0197
99085W        W42023  24.757   2.803  24.898  0.0476 -0.0035 -0.1515
99086W        W42024  24.232   0.138  19.163  0.0737 -0.1176  0.3286
99087W        W42025  24.385   1.047  23.973  0.0708  0.0769 -0.0160
99088W        W42026  22.095   2.693  20.635  0.1780  0.1682 -0.2791
99089W        W42027  26.252   0.946  21.155 -0.0986  0.4005 -0.0028
99090W        W42028  25.257   0.487  20.188  0.0627 -0.0509  0.1776
99091W        W42029  22.153   0.542  19.863  0.0935 -0.2358  0.2106
99092W        W42030  23.139   4.241  22.532  0.0756  0.0993 -0.1611
99093W        W42031  22.468   1.004  19.182 -0.0052 -0.3005 -0.2004
99094W        W42032  24.825   1.710  19.856  0.2050  0.1356 -0.3272
99095W        W42033  23.874   3.401  23.279 -0.0063  0.0549  0.2084
99096W        W42034  25.046   2.410  23.524 -0.0743 -0.1776  0.0399
99097W        W42035  22.765   0.247  19.252  0.1039  0.1337 -0.1519
99098W        W42036  24.748   0.153  22.794  0.0407 -0.1673  0.0389
99099W        W42037  22.036   2.370  20.266 -0.0043 -0.2179  0.0591
99100W        W42038  23.357   0.453  21.531  0.1431  0.0721  0.1977
99101W        W42039  21.072   3.249  21.811  0.0868  0.0789 -0.0065
99102W        W42040  21.725   1.123  20.946 -0.0884  0.0272 -0.1642
99103W        W42041  22.458   3.592  21.711 -0.0076 -0.0948  0.2767
99104W        W42042  24.297  34.371  23.567  0.2275 -0.1087  0.2758
99105W        W42043  23.288   1.351  21.707  0.2808 -0.0909 -0.0053
99106W        W42044  22.816   3.738  21.284 -0.1451  0.3429 -0.0424
99107W        W42045  24.566   1.504  23.572  0.0728 -0.1557  0.5855
99108W        W42046  24.471   2.242  23.524  0.3348  0.2879 -0.2104
99109W        W42047  21.998   2.361  21.868  0.2598 -0.1151 -0.1890
99110W        W42048  23.954   2.727  23.934  0.1919  0.0602  0.3447
99111W        W42049  24.506   2.091  22.223  0.0438 -0.1650 -0.0399
99112W        W42050  22.184   1.916  20.016 -0.1786 -0.1883  0.0167
99113W        W42051  20.224   1.563  22.020  0.1171 -0.1217 -0.5904
99114W        W42052  23.305   1.737  22.911 -0.3528 -0.0363 -0.0606
99115W        W42053  23.333   2.487  20.680 -0.2069  0.0757 -0.0958
99116W        W42054  23.620   1.485  22.067 -0.1326 -0.4444  0.1912
99117W        W42055  23.230   1.370  19.851 -0.0682  0.0557 -0.2265
99118W        W42056  21.917   3.184  23.311 -0.1208  0.2160 -0.2488
99119W        W42057  21.043   2.426  22.986  0.1092 -0.0133 -0.0811
99120W        W42058  21.855   3.443  20.199 -0.1363 -0.2685 -0.1433
99121W        W42059  23.600   1.666  20.068  0.1337  0.0948  0.3669
99122W        W42060  23.829   3.937  20.286 -0.0457  0.2557  0.2574
99123W        W42061  23.631   3.842  22.546 -0.0153  0.1692 -0.1552
99124W        W42062  22.821   0.507  21.547 -0.2660  0.0298  0.1172
99125W        W42063  20.709   4.018  21.509 -0.0842  0.1625 -0.2806
99126W        W42064  20.829   2.589  20.142  0.0151  0.0303  0.0343
99127W        W42065  23.746   2.666  21.414 -0.0674  0.1945  0.1143
99128W        W42066  22.999   3.036  20.980 -0.1803  0.0877 -0.0240
99129W        W42067  24.109   1.215  22.982 -0.0175  0.1900 -0.1502
99130W        W42068  25.200   0.958  19.977  0.0485 -0.2373  0.1141
99131W        W42069  25.085   2.208  22.214  0.2639 -0.0895  0.1183
99132W        W42070  25.055   0.274  19.799  0.0472  0.0065  0.0134
99133W        W42071  25.537   3.742  22.317 -0.2378 -0.0573  0.1984
99134W        W42072  22.447   1.458  21.524  0.2271  0.1260 -0.0089
99135W        W42073  23.144   0.455  20.053  0.1229 -0.0083  0.1964
99136W        W42074  23.042   2.566  23.657  0.1529  0.2440 -0.1232
99137W        W42075  26.026   0.796  24.796 -0.3178 -0.1663  0.1813
99138W        W42076  21.782   2.614  22.247  0.0785 -0.0667  0.0768
99139W        W42077  23.763   2.532  20.897 -0.0406  0.1748 -0.1018
99140W        W42078  22.398   0.545  21.297 -0.1786  0.0513 -0.2143
99141W        W42079  23.735   1.137  22.684 -0.4751  0.1991  0.0178
99142W        W42080  24.266  34.608  21.592 -0.0181  0.0780  0.1978
99143W        W42081  22.996   2.356  18.793  0.1994  0.1005 -0.1191
99144W        W42082  25.660   1.110  21.971  0.2506 -0.2120  0.2424
99145W        W42083  23.729   2.384  20.391 -0.1014 -0.4304  0.0205
99146W        W42084  21.933   2.974  21.382 -0.1662  0.3497  0.1594
99147W        W42085  23.403   2.734  22.708 -0.0005  0.2129  0.1182
99148W        W42086  21.923  34.522  20.803  0.0540 -0.1514 -0.0967
99149W        W42087  25.324   2.174  21.236 -0.0651 -0.2087  0.1444
99150W        W42088  21.847   1.091  22.161  0.1415 -0.1682 -0.3501
99151W        W42089  25.562  34.540  23.306 -0.0348  0.1623  0.1465
99152W        W42090  22.857   0.780  21.081  0.1886 -0.1143  0.0450
99153W        W42091  25.808   0.936  20.818 -0.1146 -0.1300 -0.1244
99154W        W42092  24.198   1.311  22.027  0.1685 -0.2297 -0.0667
99155W        W42093  21.969   1.588  21.373 -0.2026 -0.2669 -0.0511
99156W        W42094  24.647   1.141  19.826  0.1110 -0.2154  0.1122
99157W        W42095  25.103   2.064  24.886 -0.0801 -0.0153  0.0116
99158W        W42096  24.053   2.339  18.737  0.0880 -0.0243 -0.5255
99159W        W42097  26.095   3.585  24.255  0.1586 -0.2297 -0.2633
99160W        W42098  20.600   0.145  21.488  0.0973  0.0756  0.0478
99161W        W42099  23.944   0.094  20.318  0.2278 -0.1725  0.0791
99162W        W42100  22.357   1.610  20.461  0.0471  0.2540  0.4888
99163W        W42101  25.627   1.481  24.954 -0.5352  0.1024 -0.0874
99164W        W42102  25.318   2.503  23.050  0.1881  0.0231  0.1163
99165W        W42103  21.837  34.063  21.143  0.0780 -0.3138  0.4224
99166W        W42104  24.383   1.760  22.658  0.1856 -0.1502 -0.1156
99167W        W42105  25.566   1.920  22.308 -0.1275 -0.2882 -0.2029
99168W        W42106  23.506   3.879  19.146 -0.1427  0.0925  0.0586
99169W        W42107  25.371   2.366  22.573  0.0371 -0.0239  0.0550
99170W        W42108  23.297   3.203  21.969 -0.2241 -0.1621 -0.1765
99171W        W42109  21.030   0.966  22.097  0.1307 -0.0197  0.0644
99172W        W42110  24.011   2.013  21.438 -0.0532 -0.2345 -0.1114
99173W        W42111  24.258   3.137  22.279 -0.2813 -0.2695  0.0955
99174W        W42112  24.537   0.213  21.293  0.0728  0.0141  0.1631
99175W        W42113  21.630   2.885  20.998  0.4111  0.4938 -0.0361
99176W        W42114  21.800   3.977  20.336 -0.1434  0.0451 -0.1825
99177W        W42115  25.051   0.944  21.909 -0.0794 -0.4199 -0.0400
99178W        W42116  23.925   0.084  23.783 -0.2036  0.3444  0.0568
99179W        W42117  23.672   2.876  20.588  0.0662 -0.0201 -0.0508
99180W        W42118  24.314  34.347  24.512  0.1922  0.0662 -0.4175
99181W        W42119  22.827   3.226  21.472 -0.0910  0.1509 -0.0075
99182W        W42120  22.913   4.166  21.960 -0.2018  0.2550  0.1089
99183W        W42121  21.123   2.009  19.923 -0.3144  0.0998  0.0773
99184W        W42122  22.233   1.863  21.741 -0.0953  0.4484  0.0622
99185W        W42123  21.229   3.146  20.773 -0.0531 -0.0140  0.0473
99186W        W42124  23.376   2.711  20.176 -0.2919  0.1293 -0.2878
99187W        W42125  25.069   2.610  21.161  0.0598  0.2402  0.3275
99188W        W42126  23.967   0.897  20.727 -0.0646  0.1576  0.3085
99189W        W42127  25.764   1.876  21.475 -0.0368 -0.2574  0.0555
99190W        W42128  24.074   0.758  23.140  0.0044  0.1035  0.0658
99191W        W42129  25.158   0.040  18.947 -0.0961  0.2671  0.1805
99192W        W42130  22.367   0.985  22.389  0.2620 -0.0944  0.2011
99193W        W42131  22.926   1.044  21.503  0.0808 -0.0381 -0.1285
99194W        W42132  21.922   1.348  20.454 -0.0153 -0.0850 -0.1236
99195W        W42133  22.915   2.777  19.957 -0.0775  0.0013  0.0959
99196W        W42134  23.739   2.890  19.100 -0.0936  0.0501  0.1321
99197W        W42135  23.978  33.961  24.379  0.1879 -0.0770  0.1791
99198W        W42136  22.902   1.144  22.083  0.0892  0.1752 -0.2117
99199W        W42137  20.684   1.733  21.868  0.2542 -0.0828  0.0364
99200W        W42138  24.033   0.111  21.186 -0.1424  0.2313  0.3561
99201W        W42139  24.299   4.805  20.714  0.1246  0.1139 -0.1425
99202W        W42140  21.768  34.554  21.685 -0.1447 -0.0136  0.0949
99203W        W42141  22.472   0.539  20.754  0.3669  0.0113 -0.0131
99204W        W42142  24.659   4.374  20.751  0.0901 -0.2425  0.0022
99205W        W42143  25.987   3.471  21.283  0.0960 -0.1092  0.1459
99206W        W42144  23.496   1.444  21.241 -0.2263  0.0929  0.0983
99207W        W42145  23.785   2.358  24.277  0.1827 -0.0841  0.1656
99208W        W42146  21.194   1.515  19.619 -0.1461 -0.1196 -0.2535
99209W        W42147  24.995   0.346  24.599  0.3083 -0.1132  0.4860
99210W        W42148  22.899   0.941  23.211 -0.0010  0.1027  0.1944
99211W        W42149  21.440  33.950  19.372  0.1215 -0.0224  0.2769
99212W        W42150  23.455  34.637  23.030 -0.0424  0.1364 -0.0148
99213W        W42151  24.349   3.986  20.911 -0.0598 -0.0268 -0.2339
99214W        W42152  23.715   3.618  19.701 -0.0359  0.2347 -0.2354
99215W        W42153  24.915   0.565  21.077  0.0058  0.0913 -0.2526
99216W        W42154  24.263   3.585  22.443  0.3637 -0.0249 -0.2243
99217W        W42155  21.666   0.885  23.134  0.2149  0.4037  0.1042
99218W        W42156  24.599   4.089  20.287  0.0846  0.1524  0.0013
99219W        W42157  23.396   1.805  24.588 -0.2060 -0.3398  0.2431
99220W        W42158  24.640   2.029  23.029  0.2610 -0.1757 -0.1236
99221W        W42159  25.018  34.554  21.432 -0.0700  0.2254 -0.0822
99222W        W42160  23.414   0.269  21.031 -0.0956 -0.0334 -0.0103
99223W        W42161  23.314   0.479  24.133 -0.1189  0.0284 -0.1124
99224W        W42162  22.302   1.309  22.012 -0.0350  0.3652  0.4600
99225W        W42163  24.079   2.398  21.831 -0.1676  0.0319  0.2236
99226W        W42164  23.140   1.225  20.970  0.0043 -0.2826  0.0505
99227W        W42165  24.958   0.410  21.592 -0.1503 -0.2519 -0.1631
99228W        W42166  22.969   2.790  20.485 -0.1597 -0.0284  0.3883
99229W        W42167  21.716   1.621  21.800  0.1638 -0.0150 -0.1414
99230W        W42168  23.912   1.170  21.160 -0.1765  0.0862  0.2916
99231W        W42169  24.373   1.824  24.825  0.2158  0.2630 -0.1314
99232W        W42170  23.613   2.250  21.645 -0.0015 -0.1552 -0.0874
99233W        W42171  23.044   2.404  22.837 -0.2971 -0.0742 -0.0719
99234W        W42172  22.711   1.169  19.663  0.0514  0.1015 -0.0138
99235W        W42173  25.899   1.363  21.396  0.1652 -0.0596 -0.1203
99236W        W42174  24.407   2.876  22.666  0.0973  0.1529 -0.3358
99237W        W42175  24.704   4.770  24.196 -0.0982 -0.0654 -0.2144
99238W        W42176  24.312   3.539  23.828 -0.1071  0.1032  0.1272
99239W        W42177  24.649   1.059  22.259  0.2948  0.0623  0.0838
99240W        W42178  21.391  33.834  24.210  0.2247 -0.3634  0.1680
99241W        W42179  22.954   2.310  20.236 -0.0039 -0.0016 -0.1073
99242W        W42180  22.482   2.728  20.190  0.2530  0.0402 -0.1157
99243W        W42181  23.907   0.446  22.427  0.1791 -0.2830  0.1312
99244W        W42182  22.782   0.137  21.921  0.0406  0.3302  0.0792
99245W        W42183  24.757   0.087  20.855  0.1536 -0.1246 -0.0535
99246W        W42184  22.684   1.985  22.243  0.0779  0.3653  0.0894
99247W        W42185  24.001   2.534  25.626 -0.0568  0.0436  0.1930
99248W        W42186  23.380   3.247  27.324 -0.0938  0.1316  0.0639
99249W        W42187  20.436   1.286  25.232 -0.2260 -0.2464  0.3216
99250W        W42188  26.486   0.145  24.403  0.2142  0.3356  0.1075
99251W        W42189  24.930   1.951  23.446  0.0468  0.3022  0.0938
99252W        W42190  21.788   0.729  24.462  0.1937  0.1832 -0.0324
99253W        W42191  23.514   2.727  23.663 -0.0329 -0.1547 -0.4089
99254W        W42192  22.401   1.247  25.474  0.1986  0.4568  0.0016
99255W        W42193  24.172   4.127  26.157  0.3838  0.0943 -0.1097
99256W        W42194  24.593   3.433  27.430  0.2319 -0.2226 -0.0990
99257W        W42195  22.168   2.148  22.389  0.1614  0.1107  0.2440
99258W        W42196  23.009   3.010  25.155  0.2066  0.0271 -0.0907
99259W        W42197  23.293   5.265  26.750 -0.0739  0.2972 -0.0024
99260W        W42198  23.752   0.158  24.263  0.0859  0.1563 -0.0784
99261W        W42199  22.546   0.116  25.631  0.0257  0.1016  0.1472
99262W        W42200  24.865   3.630  25.481  0.0281 -0.2658 -0.3072
99263W        W42201  20.716   2.671  25.974 -0.0792  0.2159  0.0468
99264W        W42202  24.015   0.569  24.048 -0.2047 -0.2222 -0.1970
99265W        W42203  23.783   1.390  23.336  0.2204 -0.2748  0.0523
99266W        W42204  22.092   2.782  24.965 -0.1267 -0.1523 -0.3463
99267W        W42205  22.906   1.812  27.125  0.0986  0.4431  0.1386
99268W        W42206  25.634   1.467  25.501  0.0137 -0.1415 -0.0037
99269W        W42207  22.771   2.344  23.995 -0.0804 -0.0118  0.0021
99270W        W42208  21.806   2.355  23.152  0.1420 -0.2070 -0.2432
99271W        W42209  22.172   2.172  26.377  0.3279  0.0882 -0.0643
99272W        W42210  22.520   1.281  26.494  0.3354  0.0573 -0.2740
99273W        W42211  23.179   0.622  26.106 -0.4619  0.0270 -0.2859
99274W        W42212  23.126   3.557  25.183 -0.0780  0.0783  0.0249
99275W        W42213  21.677   3.757  25.748  0.0326 -0.3427  0.1402
99276W        W42214  23.619   4.009  25.495 -0.0110  0.4561  0.0250
99277W        W42215  25.043   2.609  27.351  0.3314  0.2942 -0.4283
99278W        W42216  22.695   2.582  24.405 -0.0409  0.0787  0.0007
99279W        W42217  22.553   4.061  26.661  0.2102 -0.0214  0.0308
99280W        W42218  21.348   2.757  23.783 -0.2098  0.0036 -0.1953
99281W        W42219  23.612   2.288  25.507  0.0736 -0.0684  0.0001
99282W        W42220  24.429   3.858  26.439  0.1196 -0.1309 -0.0191
99283W        W42221  23.835   5.294  26.722  0.1090 -0.1378  0.1822
99284W        W42222  21.608   3.407  22.899  0.1094  0.2358  0.0849
99285W        W42223  24.225   4.251  26.629  0.3291  0.0579 -0.0065
99286W        W42224  22.518   3.729  27.074  0.0032  0.2359  0.3270
99287W        W42225  24.059   2.915  27.030  0.0171  0.0642 -0.2229
99288W        W42226  23.872   3.438  25.211  0.0713  0.0150  0.0209
99289W        W42227  21.078   1.553  22.971  0.0836 -0.0927  0.3048
99290W        W42228  23.520   3.551  26.365  0.4278 -0.2911 -0.1381
99291W        W42229  22.777   1.429  25.238 -0.3252 -0.0124 -0.1646
99292W        W42230  23.116   3.220  26.385  0.1929  0.0138  0.0637
99293W        W42231  25.612   2.384  28.149 -0.1042  0.0735 -0.1115
99294W        W42232  23.511   3.190  22.922  0.0087  0.0146 -0.0693
99295W        W42233  23.706   1.918  23.301  0.0354  0.2801 -0.1898
99296W        W42234  23.119   1.542  23.967  0.2665 -0.1922 -0.3071
99297W        W42235  25.492   0.665  25.246  0.4888  0.2641 -0.1273
99298W        W42236  23.820   0.254  26.053  0.4891 -0.1776  0.1998
99299W        W42237  22.322   3.275  25.717 -0.0438  0.2827  0.2262
99300W        W42238  24.575   1.817  26.688  0.1642  0.0529 -0.0171
99301W        W42239  24.865   4.090  26.328  0.1566  0.2361  0.1135
99302W        W42240  23.244   2.068  23.617  0.3307 -0.2849  0.1208
99303W        W42241  23.938   1.572  26.007 -0.0033  0.2363  0.0341
99304W        W42242  23.640   3.414  26.919  0.4780 -0.0734 -0.3235
99305W        W42243  22.642   2.046  25.271 -0.2648 -0.0420  0.0773
99306W        W42244  24.212   3.047  23.605 -0.1389  0.2475 -0.0187
99307W        W42245  24.597   3.853  24.557 -0.1038 -0.2167  0.1309
99308W        W42246  23.304   3.196  23.494 -0.0018  0.0218 -0.0526
99309W        W42247  22.739   1.756  25.681 -0.0483  0.3585  0.0685
99310W        W42248  23.816   0.586  27.661  0.1096 -0.0380 -0.1417
99311W        W42249  20.978   2.249  26.285  0.0670 -0.2771 -0.2452
99312W        W42250  23.197   0.688  22.897  0.0206  0.0435  0.3872
99313W        W42251  24.390   4.420  27.128 -0.1031  0.2016  0.0470
99314W        W42252  21.054   4.309  27.912 -0.0536  0.2421 -0.1220
99315W        W42253  25.404   0.260  26.170 -0.4797  0.0028 -0.4102
99316W        W42254  23.575   1.798  25.640  0.1448 -0.0968  0.1172
99317W        W42255  23.915   2.917  27.940 -0.2256  0.5031 -0.2732
99318W        W42256  25.310   3.175  24.087  0.2319  0.1135 -0.2543
99319W        W42257  24.533  34.291  25.634 -0.0240 -0.1677 -0.2575
99320W        W42258  24.089   0.857  25.392  0.3621 -0.1831 -0.0168
99321W        W42259  24.285   1.607  23.199 -0.0009  0.0955  0.0991
99322W        W42260  23.316   2.591  24.147  0.0532  0.2093 -0.0182
99323W        W42261  24.743   4.127  26.803 -0.0921 -0.0550  0.0916
99324W        W42262  23.533   2.872  25.197  0.1084  0.1871  0.0230
99325W        W42263  22.114   1.980  24.867  0.0371  0.0382  0.0397
99326W        W42264  22.897  33.886  26.681 -0.0541 -0.0056 -0.0921
99327W        W42265  22.428   1.633  26.162 -0.0335  0.2063  0.1798
99328W        W42266  22.901   3.865  23.975  0.0057  0.0202 -0.0720
99329W        W42267  21.797   2.336  24.962 -0.1465  0.2960  0.0115
99330W        W42268  23.392   2.041  24.072  0.1863  0.2534  0.1698
99331W        W42269  23.079   0.517  26.563  0.1512 -0.0044 -0.2992
99332W        W42270  22.844   2.328  25.748 -0.1382 -0.1276 -0.2821
99333W        W42271  25.574   2.210  26.478  0.1278 -0.0702 -0.1406
99334W        W42272  22.060  34.218  27.269 -0.2750  0.2476  0.0731
99335W        W42273  25.387  34.189  25.171 -0.0823  0.0540 -0.2550
99336W        W42274  22.771   1.954  23.702  0.1718 -0.3925 -0.2652
99337W        W42275  24.800   4.500  24.877  0.0391 -0.0767 -0.1702
99338W        W42276  25.878   0.295  25.962 -0.0993  0.0796 -0.3338
99339W        W42277  24.077   2.671  24.552 -0.0086 -0.1269  0.2815
99340W        W42278  20.291   2.596  26.203 -0.0629 -0.3319 -0.2523
99341W        W42279  23.278   1.392  25.416 -0.2852  0.0636 -0.0198
99342W        W42280  22.409   1.318  27.964  0.4099 -0.1551 -0.1701
99343W        W42281  22.881   0.680  24.942 -0.2693  0.0664 -0.0955
99344W        W42282  24.379   1.796  26.231  0.1028  0.2201  0.1469
99345W        W42283  21.485  33.512  23.688 -0.0850  0.0598 -0.0205
99346W        W42284  24.288   3.418  25.713 -0.4244  0.0406  0.3617
99347W        W42285  22.663   2.233  24.752  0.0138  0.1664 -0.1669
99348W        W42286  21.719   2.630  24.098 -0.0869 -0.1985 -0.1033
99349W        W42287  24.593   2.396  27.580 -0.1120 -0.1301  0.5646
99350W        W42288  24.470   3.951  25.049  0.1218  0.5431 -0.3495
99351W        W42289  24.617   6.550  26.123 -0.0975  0.0102 -0.1568
99352W        W42290  25.064   2.016  26.468  0.0563  0.0039 -0.0669
99353W        W42291  21.910   1.441  27.060  0.2961 -0.0486  0.0102
99354W        W42292  22.035   1.884  24.351 -0.0979  0.0103  0.0337
99355W        W42293  22.417   3.565  26.479 -0.1129 -0.1171 -0.0239
99356W        W42294  21.528   2.254  23.701  0.0125 -0.1323  0.0640
99357W        W42295  23.099   0.194  23.677  0.2541 -0.2084  0.0483
99358W        W42296  25.030   4.060  24.375 -0.0538 -0.0165  0.0032
99359W        W42297  23.832   1.691  24.755 -0.0743  0.1589 -0.0162
99360W        W42298  22.701   2.843  26.321  0.0305 -0.3631  0.0980
99361W        W42299  24.846   1.219  26.460  0.0885  0.5294  0.0796
99362W        W42300  24.100   3.077  26.073 -0.0517  0.1260  0.1018
99363W        W42301  24.585   2.842  26.097  0.1679 -0.1716  0.1536
99364W        W42302  21.703   1.602  23.757 -0.0912  0.0204 -0.0747
99365W        W42303  23.921   3.945  25.126 -0.3842 -0.0703 -0.2955
99366W        W42304  21.804   4.303  24.819 -0.1063  0.3706  0.2854
99367W        W42305  22.488   2.047  24.309  0.0018  0.2913  0.0944
99368W        W42306  21.795   3.268  24.621  0.0382 -0.0581 -0.2060
99369W        W42307  24.097   1.705  25.592  0.0692 -0.0786  0.3541
99370W        W42308  23.190   2.385  28.196  0.0057 -0.3100  0.1935
99371W        W42309  24.396   2.478  26.750  0.2253 -0.0013 -0.3233
99372W        W42310  23.061   1.404  24.481  0.1488  0.1533  0.1931
99373W        W42311  22.139   2.073  27.258  0.0600 -0.0765  0.2407
99374W        W42312  23.838   0.179  25.469  0.0856  0.0847 -0.0563
99375W        W42313  26.024   1.171  25.237  0.4780  0.3319  0.0138
99376W        W42314  23.576   1.716  27.312  0.0324  0.0820 -0.4621
99377W        W42315  23.777   3.172  23.783 -0.1795 -0.1192  0.2124
99378W        W42316  25.564   1.657  23.797  0.1947 -0.0824  0.1000
99379W        W42317  23.140   0.999  24.070  0.1769 -0.1119 -0.3892
99380W        W42318  21.740   2.874  26.951 -0.2481 -0.0079 -0.1252
99381W        W42319  23.122   2.549  25.009 -0.1792 -0.1156 -0.1781
99382W        W42320  23.419   2.801  26.373 -0.0270  0.0152  0.1400
99383W        W42321  24.812   1.086  24.441  0.0397  0.1626  0.0466
99384W        W42322  25.959   2.791  24.803 -0.2001 -0.2310  0.0515
99385W        W42323  21.194   2.934  27.249 -0.0547 -0.0697  0.1576
99386W        W42324  23.834   1.557  27.714 -0.1210  0.1777 -0.0621
99387W        W42325  25.241   3.456  25.180  0.1879 -0.1174 -0.1622
99388W        W42326  22.943  34.588  26.415 -0.1560 -0.2230  0.0209
99389W        W42327  23.305   0.322  23.254  0.1285 -0.0395 -0.1273
99390W        W42328  24.805  34.162  24.713 -0.1079  0.3011  0.2446
99391W        W42329  21.498   3.036  24.313  0.2043 -0.0636 -0.2357
99392W        W42330  24.358   2.220  25.703  0.1503 -0.3361  0.0247
99393W        W42331  23.108   2.102  26.521 -0.1680  0.0611  0.1294
99394W        W42332  22.574   0.276  26.250  0.3003  0.1816  0.0091
99395W        W42333  24.307   2.941  26.528  0.1180  0.0227  0.0760
99396W        W42334  25.582   1.403  24.410 -0.0882  0.0622 -0.1242
99397W        W42335  23.488   2.349  27.300 -0.0182  0.2676  0.1194
99398W        W42336  23.087   1.612  23.440 -0.0426 -0.2328  0.1315
99399W        W42337  22.922   1.591  26.278  0.0100 -0.0237  0.2334
99400W        W42338  22.449   1.918  28.237 -0.2675  0.0871  0.0655
99401W        W42339  21.647   3.046  25.029 -0.0902  0.0183 -0.1521
99402W        W42340  23.841   4.342  25.820 -0.3337 -0.1673  0.1934
99403W        W42341  24.051   2.613  26.149  0.2388  0.0885  0.3787
99404W        W42342  23.361   0.920  26.664  0.3805  0.2285 -0.1003
99405W        W42343  23.684   0.544  22.897  0.0489 -0.0721  0.2048
99406W        W42344  23.205   2.319  24.533  0.0683  0.3503  0.0039
99407W        W42345  20.695   1.785  23.645  0.1032  0.0633 -0.0422
99408W        W42346  23.245  34.655  24.484  0.1825 -0.1736  0.3507
99409W        W42347  23.961   4.535  26.271 -0.2204 -0.0714 -0.1890
99410W        W42348  22.794   2.883  22.808 -0.1495  0.4632 -0.2773
99411W        W42349  24.602   2.243  26.266  0.1808  0.0225 -0.0839
99412W        W42350  22.358   3.001  23.065  0.0236 -0.1800  0.0763
99413W        W42351  24.092   0.542  26.365 -0.0319 -0.2019 -0.0940
99414W        W42352  24.158   3.451  26.666 -0.1904  0.0608 -0.1582
99415W        W42353  21.593   1.429  24.778  0.0735  0.0789 -0.3115
99416W        W42354  22.518   1.704  24.782  0.1386  0.0111  0.4017
99417W        W42355  24.228  34.021  25.940 -0.1048 -0.2242 -0.0189
99418W        W42356  23.551   2.630  24.745  0.1088 -0.2981  0.4080
99419W        W42357  24.465   1.358  27.462 -0.1176  0.5107 -0.1119
99420W        W42358  23.757   0.030  27.072 -0.0046 -0.1464 -0.0499
99421W        W42359  21.894   4.144  25.331 -0.1507 -0.1526 -0.2514
99422W        W42360  22.793   3.503  26.092  0.0431  0.0040  0.2846
99423W        W42361  24.110   0.499  24.566  0.0911 -0.0833  0.2085
99424W        W42362  23.896   2.585  26.673  0.4256  0.0008 -0.0686
99425W        W42363  23.245   4.207  28.060  0.1115 -0.1074 -0.2124
99426W        W42364  21.612   1.376  22.675 -0.1867  0.1605 -0.2560
99427W        W42365  24.499   1.623  25.247 -0.4480 -0.0178 -0.1120
99428W        W42366  23.542   0.973  25.289  0.0518 -0.0974 -0.2047
99429W        W42367  21.961   3.031  23.927 -0.2625 -0.0669  0.1534
99430W        W42368  23.661   2.822  27.470 -0.4221 -0.1368  0.2829
99431W        W42369  22.699   1.653  22.909  0.0493  0.0429 -0.2198
99432W        W42370  20.817   1.984  23.203  0.0651 -0.1413 -0.0321
99433W        W42371  22.321   1.763  27.641 -0.2284 -0.0694 -0.1033
99434W        W42372  24.233   3.597  27.736 -0.2075  0.1253 -0.3581
99435W        W42373  22.556   1.000  24.018  0.1226 -0.1889 -0.0376
99436W        W42374  23.583   2.173  24.883 -0.2445  0.0217  0.0026
99437W        W42375  23.856   3.046  25.607 -0.0209  0.2203 -0.0589
99438W        W42376  24.230   3.966  25.623 -0.0927  0.0030  0.0652
99439W        W42377  23.220   1.499  25.900 -0.0529  0.0561  0.0459
99440W        W42378  22.616   2.618  27.492 -0.0932 -0.3179  0.2797
99441W        W42379  23.367  33.044  25.696 -0.1086  0.1630 -0.0061
99442W        W42380  25.573   4.408  23.454 -0.0510 -0.0582 -0.0877
99443W        W42381  23.403   2.431  26.799 -0.0548 -0.0235  0.1778
99444W        W42382  22.336   1.802  23.913 -0.1192  0.0024 -0.2204
99445W        W42383  21.791   3.018  25.949  0.1646 -0.0667  0.1526
99446W        W42384  22.761   2.551  25.328 -0.1358 -0.1926  0.2058
99447W        W42385  23.286   0.124  26.839  0.1174  0.0357  0.0070
99448W        W42386  23.002   2.504  26.196  0.0430 -0.0001 -0.2732
99449W        W42387  21.290   1.855  23.974 -0.0699 -0.2054 -0.2391
99450W        W42388  22.658   2.864  25.742 -0.1104 -0.1431 -0.2590
99451W        W42389  23.222  34.584  24.962 -0.0661 -0.0998  0.2449
99452W        W42390  24.072   1.978  23.648 -0.0528 -0.2984 -0.0058
99453W        W42391  21.904   0.976  22.701 -0.0043 -0.0023  0.0771
99454W        W42392  25.898   0.447  26.456 -0.0046 -0.0327  0.0260
99455W        W42393  23.474   1.346  24.835  0.0639  0.1284  0.0275
99456W        W42394  25.269   0.590  28.492 -0.3848  0.1706  0.0052
99457W        W42395  22.502   1.897  26.697 -0.0106 -0.1210  0.1246
99458W        W42396  24.330   4.548  25.678 -0.1631 -0.2599 -0.0781
99459W        W42397  22.787   1.370  26.871 -0.1793  0.0239  0.2475
99460W        W42398  23.374   4.221  27.188  0.0471 -0.1557  0.2316
99461W        W42399  23.165   0.926  27.204  0.1316  0.1919  0.3561
99462W        W42400  23.494   1.287  24.236  0.0391  0.0493  0.1653
99463W        W42401  20.787   1.020  23.213 -0.1084  0.3711  0.0561
99464W        W42402  23.350   1.467  27.725  0.1554 -0.0060  0.3073
99465W        W42403  24.770   3.212  25.792 -0.1637 -0.3732 -0.2140
99466W        W42404  23.370   3.241  24.873  0.2031 -0.1146 -0.0108
99467W        W42405  25.144   1.622  26.770 -0.0799  0.1698  0.1171
99468W        W42406  21.138   0.394  26.672  0.4982 -0.1943  0.1352
99469W        W42407  23.568   2.275  26.309 -0.1069  0.1571  0.0269
99470W        W42408  22.269   2.530  23.043 -0.1872  0.0459  0.1981
99471W        W42409  21.402   2.395  24.704 -0.1506 -0.1729 -0.1881
99472W        W42410  23.130  34.276  27.826  0.1085  0.0089  0.1646
99473W        W42411  23.129   4.280  25.349  0.1052  0.1972 -0.1273
99474W        W42412  24.349   0.511  25.134  0.0103  0.4154  0.4538
99475W        W42413  23.669   1.292  26.935  0.1428 -0.1337 -0.0718
99476W        W42414  23.555   2.851  26.931  0.0890  0.0130 -0.0599
99477W        W42415  23.000   2.298  27.147  0.0135 -0.0803 -0.1917
99478W        W42416  23.054   0.625  28.768  0.0777  0.1576  0.1237
99479W        W42417  23.880   4.399  25.322  0.1320  0.2011  0.1763
99480W        W42418  24.991   2.173  24.424 -0.0369 -0.2090 -0.1442
99481W        W42419  25.425   0.781  27.381 -0.0705  0.0782  0.1175
99482W        W42420  25.056   2.524  25.187  0.0512  0.0488 -0.1206
99483W        W42421  23.742   0.951  23.861  0.1745  0.3466 -0.0146
99484W        W42422  22.078   1.517  25.170  0.3565 -0.0805 -0.0281
99485W        W42423  24.939   2.853  26.565  0.0038  0.0485 -0.3713
99486W        W42424  23.076   0.714  23.668 -0.2923 -0.1954  0.0241
99487W        W42425  24.437   0.228  26.097 -0.1976 -0.0240  0.0212
99488W        W42426  22.910   1.858  24.388  0.0060 -0.2742  0.0549
99489W        W42427  23.197   3.328  24.380 -0.2521  0.2909  0.0760
99490W        W42428  25.235   2.128  25.362 -0.0535 -0.0356 -0.0455
99491W        W42429  21.128   2.157  24.986  0.0330 -0.1626 -0.1424
99492W        W42430  20.637   4.641  27.944 -0.0622 -0.0542  0.5941
99493W        W42431  21.552   0.055  22.805  0.0471 -0.1489 -0.4167
99494W        W42432  23.577   0.880  23.260 -0.0339  0.1517 -0.0476
99495W        W42433  24.124   2.527  27.658  0.2962  0.0411  0.2142
99496W        W42434  24.298   3.007  28.250  0.1535 -0.1593  0.1920
99497W        W42435  24.022   0.018  24.678 -0.2320  0.2722 -0.0105
99498W        W42436  24.377   1.263  26.633  0.0600 -0.0474  0.1688
99499W        W42437  20.523   2.057  24.111 -0.1108 -0.0309  0.4746
99500W        W42438  24.755   1.227  25.417 -0.1077  0.3786  0.0555
99501W        W42439  23.189   3.733  24.703  0.1193 -0.1098  0.0176
99502W        W42440  20.840   4.006  25.560  0.1077 -0.1260 -0.4281
99503W        W42441  23.503   4.533  24.295  0.1473  0.0749  0.1053
99504W        W42442  23.348   0.150  26.268 -0.0189 -0.3234 -0.2030
99505W        W42443  24.430   2.550  25.325 -0.0155  0.3996 -0.0321
99506W        W42444  23.434   0.750  24.912 -0.0822  0.1708 -0.0178
99507W        W42445  25.055   2.412  26.147 -0.2576 -0.0352 -0.0382
99508W        W42446  24.188   3.010  27.555  0.0296 -0.1986 -0.2506
99509W        W42447  22.332   2.547  25.589  0.3413 -0.3266  0.1439
99510W        W42448  23.443   3.849  26.816 -0.3306 -0.3280  0.1728
99511W        W42449  24.149   2.997  25.110  0.1834  0.0307  0.0763
99512W        W42450  22.854   4.072  25.041  0.1181 -0.1063 -0.2310
99513W        W42451  22.762   0.809  26.778 -0.0040 -0.2659  0.1663
99514W        W42452  24.221   1.407  28.875  0.1983  0.0860 -0.4417
99515W        W42453  24.074   2.221  24.776  0.0754  0.0991  0.0700
99516W        W42454  22.029   0.238  24.488  0.4491  0.1623 -0.0899
99517W        W42455  23.084   3.166  22.497 -0.0555  0.0810  0.1621
99518W        W42456  21.420   2.872  28.126  0.1454 -0.2487  0.0335
99519W        W42457  22.879   3.065  27.573  0.0181 -0.0388  0.1091
99520W        W42458  22.277   4.320  23.377 -0.2864  0.2272 -0.1322
99521W        W42459  23.577   3.131  26.055  0.1104  0.2883 -0.1007
99522W        W42460  24.373   2.914  25.653 -0.1493  0.1621 -0.3990
99523W        W42461  23.651   4.950  26.284 -0.3036  0.0053 -0.0004
99524W        W42462  22.399   1.167  22.970 -0.0213 -0.0897 -0.0536
99525W        W42463  20.877   4.254  24.319  0.0199 -0.0267 -0.0538
99526W        W42464  21.268   3.895  24.136  0.1365  0.0781 -0.2560
99527W        W42465  24.172   3.617  24.768 -0.2786 -0.0435 -0.4872
99528W        W42466  22.752   2.576  23.222 -0.0969 -0.0175  0.0397
99529W        W42467  25.496   3.253  27.330  0.1436 -0.1372 -0.2058
99530W        W42468  25.871   0.647  25.593 -0.0555 -0.1549  0.1053
99531W        W42469  24.874   2.049  25.810  0.2823 -0.1102 -0.2374
99532W        W42470  24.615   0.781  25.730  0.2200  0.0525  0.2320
99533W        W42471  23.748   4.390  26.701  0.1801  0.0388  0.2357
99534W        W42472  24.121   2.053  26.891 -0.2998  0.0599  0.2098
99535W        W42473  22.172   0.890  23.248  0.1161  0.2113 -0.1490
99536W        W42474  23.280   1.628  26.686 -0.1215  0.3092  0.0711
99537W        W42475  25.466  34.546  28.467 -0.0973  0.0585 -0.1548
99538W        W42476  21.549   3.702  26.964  0.0389 -0.2290 -0.2036
99539W        W42477  24.071   3.342  24.265 -0.0668  0.0085 -0.2604
99540W        W42478  20.645   1.413  24.526  0.0217  0.0233  0.2703
99541W        W42479  23.090   2.942  25.992  0.0986  0.1779  0.1168
99542W        W42480  24.510   0.689  26.736  0.0091  0.2220  0.2521
99543W        W42481  23.987   1.195  24.220 -0.2880  0.0140 -0.0217
99544W        W42482  24.317   1.194  25.707  0.0208  0.0607 -0.1363
99545W        W42483  23.670   3.983  26.084  0.6030  0.1021  0.2661
99546W        W42484  22.671   3.495  25.141  0.1553 -0.0731  0.3623
99547W        W42485  22.685   2.065  26.187  0.1445 -0.5277  0.2973
99548W        W42486  20.800   1.263  23.679  0.0866 -0.1392 -0.2972
99549W        W42487  25.700   1.959  24.922  0.0358 -0.0179  0.0234
99550W        W42488  23.229   1.413  27.199 -0.2709 -0.2981 -0.1627
99551W        W42489  24.794   1.387  27.024 -0.1390 -0.0354  0.0338
99552W        W42490  22.809   1.154  25.784 -0.0118 -0.1026  0.0598
99553W        W42491  26.037   1.269  26.230  0.0128  0.2833 -0.3212
99554W        W42492  22.932   2.730  26.771 -0.0757 -0.2347 -0.1490
99555W        W42493  21.817   0.924  26.812  0.1194  0.0365  0.1490
99556W        W42494  23.649   1.740  23.761  0.3216  0.3413  0.2484
99557W        W42495  25.345   3.480  26.785 -0.1551  0.2624 -0.0026
99558W        W42496  24.581   1.558  24.097 -0.3254 -0.2524 -0.1375
99559W        W42497  24.313   5.231  26.860 -0.1512 -0.2658  0.2397
99560W        W42498  23.743   0.623  25.632 -0.2599  0.0288  0.0173
99561W        W42499  24.736   2.108  25.357  0.1630  0.1246 -0.1800
99562W        W42500  22.511   1.465  24.313 -0.3911  0.2194 -0.1533
99563W        W42501  23.389   3.359  25.494  0.1456  0.1952 -0.3073
99564W        W42502  23.913   4.475  27.245  0.2646 -0.1712  0.2686
99565W        W42503  23.873   0.401  25.028 -0.1049 -0.1062 -0.0052
99566W        W42504  23.691   2.265  23.684  0.2286  0.0439 -0.2300
99567W        W42505  25.850   1.891  26.874 -0.0298  0.1125  0.2948
99568W        W42506  22.908   5.256  24.573  0.1571 -0.0202 -0.1220
99569W        W42507  23.861   3.177  24.767 -0.0208  0.0286  0.2482
99570W        W42508  24.682   4.891  25.166 -0.1344 -0.1376 -0.1743
99571W        W42509  22.383   0.791  25.054 -0.1363 -0.1570 -0.0703
99572W        W42510  23.440   4.488  26.215  0.3857  0.2821  0.4054
99573W        W42511  25.028   4.906  26.306  0.0771 -0.1810 -0.0765
99574W        W42512  24.143   0.681  25.859 -0.1411 -0.2001  0.0467
99575W        W42513  23.589   2.589  25.934  0.0295 -0.0935 -0.0762
99576W        W42514  21.715   3.591  25.131  0.3195 -0.0767 -0.1585
99577W        W42515  23.905   2.147  25.941  0.0544  0.1527  0.0543
99578W        W42516  23.335   0.998  25.758  0.2198 -0.0810 -0.5215
99579W        W42517  23.681   2.903  23.271  0.2789 -0.0423 -0.0905
99580W        W42518  25.122   1.296  28.172  0.1820 -0.1637  0.0487
99581W        W42519  22.863   4.987  26.818 -0.0737  0.0677  0.0593
99582W        W42520  21.695   3.364  27.274 -0.0110 -0.3474 -0.0691
99583W        W42521  21.810   0.599  22.315 -0.1264 -0.2116  0.1082
99584W        W42522  22.623   2.108  27.457  0.0170  0.0858  0.1547
99585W        W42523  22.911   2.060  23.210  0.0245  0.1206  0.0866
99586W        W42524  22.645   3.735  24.705  0.4618  0.0961 -0.2297
99587W        W42525  23.921   3.989  27.008  0.1091 -0.1657  0.0943
99588W        W42526  23.782   1.250  25.618  0.0697 -0.0323 -0.0399
99589W        W42527  25.327   3.100  26.402  0.0484 -0.0686  0.0159
99590W        W42528  23.038   1.969  24.894  0.1922  0.0724  0.1901
99591W        W42529  26.798   0.883  26.217 -0.0983  0.1485 -0.2636
99592W        W42530  24.564   1.656  25.794 -0.0581 -0.1197 -0.1381
99593W        W42531  22.583   2.407  26.535  0.0985  0.1559  0.2219
99594W        W42532  23.535   1.734  25.144  0.0005  0.4519  0.0490
99595W        W42533  22.260   2.940  23.541 -0.1674 -0.1619  0.1854
99596W        W42534  21.611   2.186  24.281 -0.1092 -0.0396  0.1040
99597W        W42535  23.930   1.573  26.481 -0.1225  0.2479 -0.3360
99598W        W42536  23.353  34.305  26.869 -0.1839 -0.3610  0.1785
99599W        W42537  21.509   2.625  25.323  0.0473  0.3340  0.1427
99600W        W42538  21.631   1.713  25.225  0.0102  0.0343 -0.0210
99601W        W42539  24.803   4.336  23.886 -0.0509  0.1989 -0.1946
99602W        W42540  22.066   1.612  25.705  0.1777  0.2470 -0.0624
99603W        W42541  23.179   2.066  25.989  0.1557  0.4486 -0.1762
99604W        W42542  23.848   2.531  25.126 -0.0104  0.2584  0.1363
99605W        W42543  25.737   3.612  25.166  0.0395 -0.0426  0.3432
99606W        W42544  24.092  34.576  25.879 -0.1628  0.1692  0.1286
99607W        W42545  25.673   3.653  27.083 -0.1084  0.3389 -0.1191
99608W        W42546  20.939   3.470  23.577  0.0574 -0.0755 -0.2997
99609W        W42547  23.315   0.769  28.245  0.1560  0.0767 -0.3131
99610W        W42548  24.584   0.444  27.189 -0.0683 -0.0723 -0.0830
99611W        W42549  21.832   1.161  23.557  0.0765  0.0660  0.0438
99612W        W42550  23.189   2.683  25.547 -0.1201 -0.0683 -0.1155
99613W        W42551  24.722   3.399  24.904 -0.0328 -0.2555  0.2281
99614W        W42552  22.310   2.362  25.081 -0.2204 -0.0503  0.1220
99615W        W42553  23.288   3.704  27.763  0.0316  0.1482  0.0756
99616W        W42554  22.512   3.334  27.723 -0.3370 -0.0948 -0.0629
99617W        W42555  22.438  34.331  26.534  0.0767 -0.3624 -0.0804
99618W        W42556  25.063   2.888  23.778  0.1020 -0.0483 -0.0205
99619W        W42557  22.563   3.216  27.218  0.0453 -0.0842  0.2317
99620W        W42558  24.582   2.264  24.874 -0.2065  0.1511  0.0088
99621W        W42559  23.549   1.771  26.269 -0.1960  0.4290 -0.0368
99622W        W42560  23.936   2.470  27.165  0.0565 -0.3365 -0.2708
99623W        W42561  22.693   0.196  26.740  0.2356  0.1170  0.0154
99624W        W42562  22.242   3.013  26.182  0.1428 -0.2764  0.1317
99625W        W42563  25.006   4.047  25.002 -0.1499 -0.1267 -0.0640
99626W        W42564  23.405   1.260  23.622 -0.1874 -0.2064  0.1098
99627W        W42565  25.954   0.959  24.314 -0.0076  0.0555 -0.1353
99628W        W42566  22.827   2.547  22.377  0.1695  0.1695 -0.2102
99629W        W42567  21.826   1.322  26.001 -0.0363  0.0179 -0.0329
99630W        W42568  23.007  34.589  23.249  0.0716 -0.1296  0.1200
99631W        W42569  23.598   2.548  27.961  0.0792 -0.1338  0.1735
99632W        W42570  23.642   4.118  24.604  0.1821  0.1711 -0.1306
99633W        W42571  24.498   2.682  27.973  0.0727  0.3480  0.2056
99634W        W42572  24.332   0.994  24.986 -0.0477  0.1265 -0.0117
99635W        W42573  24.876   1.678  24.593  0.0661 -0.1452  0.1890
99636W        W42574  23.143   4.804  26.013 -0.3453 -0.0787  0.1915
99637W        W42575  24.502   3.716  26.983 -0.1809  0.2623 -0.3773
99638W        W42576  23.220   4.019  26.377  0.0051 -0.0415 -0.0663
99639W        W42577  23.958   1.968  25.181  0.1756 -0.0123 -0.1114
99640W        W42578  23.125  34.631  25.471 -0.2041 -0.1447 -0.1561
99641W        W42579  23.066   2.830  24.620  0.3149 -0.5021  0.0375
99642W        W42580  22.517   2.760  23.957 -0.3684  0.1049 -0.3939
99643W        W42581  25.460   1.715  26.362 -0.0965 -0.0057  0.3592
99644W        W42582  23.445   0.153  25.752 -0.0607  0.0909  0.1086
99645W        W42583  23.656   0.750  24.334  0.1112  0.2026 -0.3142
99646W        W42584  22.393   4.050  27.569  0.1135  0.1756  0.1192
99647W        W42585  23.280   3.582  25.948  0.0531  0.1716 -0.5209
99648W        W42586  22.728   3.147  30.802  0.0281 -0.2497  0.1582
99649W        W42587  22.782   1.603  28.353 -0.2583  0.2412  0.0449
99650W        W42588  24.045   1.578  27.143  0.1969  0.0104  0.0753
99651W        W42589  26.119   0.590  26.848 -0.0855  0.0189 -0.0696
99652W        W42590  22.039   1.676  28.755  0.0996 -0.2262 -0.1101
99653W        W42591  24.602   3.479  29.567  0.3883 -0.1387 -0.1609
99654W        W42592  22.489   0.134  30.687 -0.2155  0.0266  0.0860
99655W        W42593  23.012   3.869  27.060 -0.0616 -0.1026 -0.2881
99656W        W42594  24.049   4.524  30.209 -0.3907 -0.3501  0.0659
99657W        W42595  23.685   1.147  27.988 -0.0149  0.0561 -0.1287
99658W        W42596  23.783   1.002  30.155  0.0820 -0.2166  0.0596
99659W        W42597  22.373   2.354  29.309 -0.0307 -0.0521  0.2317
99660W        W42598  23.615  34.589  29.134  0.1341  0.2905 -0.0090
99661W        W42599  22.709   0.101  30.163  0.0471  0.0365  0.0635
99662W        W42600  25.199   2.124  30.586 -0.2813 -0.0328 -0.1025
99663W        W42601  22.943   1.160  28.805  0.1235 -0.2710  0.0509
99664W        W42602  23.289   1.702  29.952 -0.0952  0.0310 -0.2025
99665W        W42603  24.078   0.398  28.465 -0.1050  0.1550  0.0848
99666W        W42604  23.726   4.674  28.560  0.0478  0.0911  0.0296
99667W        W42605  23.500   0.175  30.780 -0.0146 -0.1686  0.1238
99668W        W42606  23.979  34.492  31.533 -0.2313 -0.1406 -0.0108
99669W        W42607  24.125   2.255  28.585 -0.0828 -0.4034  0.1217
99670W        W42608  23.292   0.959  27.729 -0.0905  0.0406  0.0335
99671W        W42609  20.384   2.099  30.137  0.2223  0.1069  0.1957
99672W        W42610  22.238   1.509  30.847 -0.0035  0.2855 -0.2220
99673W        W42611  25.669   2.408  30.869 -0.0646 -0.2852 -0.2713
99674W        W42612  24.341   1.409  29.751 -0.0097 -0.2207  0.0112
99675W        W42613  23.063   3.461  30.374  0.2502 -0.0731 -0.0237
99676W        W42614  22.203   2.919  30.972  0.0668 -0.3611  0.0674
99677W        W42615  24.377   1.223  31.253  0.0277  0.0262  0.0340
99678W        W42616  23.045   2.905  28.934  0.2002  0.1864 -0.1140
99679W        W42617  22.058   3.117  30.067 -0.0480  0.2214  0.3134
99680W        W42618  22.822   1.298  29.255  0.1551 -0.0089  0.0406
99681W        W42619  24.949   3.067  29.577 -0.1403 -0.0196 -0.0054
99682W        W42620  24.811   4.266  30.025 -0.3005  0.0155 -0.0517
99683W        W42621  23.370   4.285  31.775  0.0757 -0.4140 -0.1260
99684W        W42622  22.231   2.410  27.749 -0.0842  0.1322 -0.0815
99685W        W42623  24.628   1.910  30.457 -0.0735 -0.0362  0.2215
99686W        W42624  22.256   3.558  29.992 -0.0560  0.0308  0.0271
99687W        W42625  23.725   1.608  30.663  0.0843  0.2990  0.0592
99688W        W42626  23.029   2.157  29.969 -0.0640  0.1540  0.2790
99689W        W42627  23.840   4.012  27.498 -0.3195 -0.1103  0.1138
99690W        W42628  23.771   3.059  30.409 -0.2534 -0.2802  0.3081
99691W        W42629  22.254   1.819  31.610 -0.1219  0.2050 -0.0464
99692W        W42630  21.215   3.263  30.229 -0.1262 -0.2172 -0.1864
99693W        W42631  25.643   0.581  30.461 -0.2187 -0.1797 -0.0938
99694W        W42632  22.565   4.735  27.168 -0.0400 -0.0480  0.2052
99695W        W42633  26.487   0.879  27.975  0.0669 -0.1149 -0.1762
99696W        W42634  24.353   1.913  27.821  0.1653  0.0052 -0.0519
99697W        W42635  25.830   0.482  27.405 -0.0924  0.0463  0.4026
99698W        W42636  21.374   1.196  29.289 -0.2271  0.3280  0.1663
99699W        W42637  22.420   4.196  30.285  0.1165 -0.0626  0.0388
99700W        W42638  22.850   1.118  29.708  0.1724 -0.0213  0.0902
99701W        W42639  25.593   1.690  30.561  0.3204  0.2467  0.2179
99702W        W42640  23.804   2.018  30.181 -0.1857  0.0307 -0.0058
99703W        W42641  24.027   2.426  29.832 -0.0877 -0.0668 -0.5347
99704W        W42642  22.961   2.737  30.614  0.2729 -0.3167 -0.3954
99705W        W42643  22.998   1.655  28.777 -0.1114 -0.1859 -0.0046
99706W        W42644  24.067   3.051  28.690 -0.0707  0.0546 -0.2821
99707W        W42645  24.337   2.951  29.554 -0.0381  0.1614  0.0396
99708W        W42646  24.842   2.103  27.857  0.0547  0.0014  0.1383
99709W        W42647  24.550   1.024  28.793 -0.2235  0.2016  0.0183
99710W        W42648  22.168   2.718  30.430 -0.1614  0.0713 -0.1586
99711W        W42649  22.323   1.996   0.087  0.2713 -0.3118 -0.0946
99712W        W42650  22.579  34.133  28.818  0.3738 -0.0159  0.0242
99713W        W42651  26.263   4.466   0.641  0.1703  0.3639  0.0862
99714W        W42652  22.200   4.670  30.489  0.0158 -0.2027 -0.0382
99715W        W42653  24.610   2.215  28.321 -0.0521  0.1446 -0.1504
99716W        W42654  22.264   1.810  30.076  0.1818 -0.0141  0.0313
99717W        W42655  24.369   2.105  30.822 -0.0778  0.0796  0.1954
99718W        W42656  24.079   2.150  26.426 -0.0487 -0.2125 -0.1057
99719W        W42657  24.104   0.919  29.799 -0.2316 -0.0618 -0.0277
99720W        W42658  24.749   0.181  29.887 -0.2123  0.0422  0.1090
99721W        W42659  22.590   0.988  27.694 -0.2179 -0.1995 -0.0545
99722W        W42660  23.314   2.558  28.630  0.1835  0.5038 -0.4098
99723W        W42661  24.458   4.935  30.236 -0.0309 -0.1330  0.1122
99724W        W42662  24.710   2.076  29.225  0.0999 -0.0905  0.2514
99725W        W42663  21.908   4.453  28.385 -0.0983  0.0111 -0.0613
99726W        W42664  22.525   1.076  30.760 -0.0811 -0.0772  0.1365
99727W        W42665  24.060   2.166  31.587 -0.2012 -0.3600 -0.1113
99728W        W42666  22.250   4.288  26.235  0.0570  0.0858  0.2328
99729W        W42667  22.074   1.714  29.617  0.0222 -0.0830  0.1489
99730W        W42668  21.053   2.814  27.759  0.0556 -0.2116  0.1218
99731W        W42669  21.767   0.256  29.060  0.2956 -0.2937  0.0240
99732W        W42670  20.932   3.009  28.628 -0.1045  0.1632  0.0398
99733W        W42671  26.004   0.741  27.842 -0.1134  0.0058 -0.1935
99734W        W42672  21.910  33.977  29.071  0.3892 -0.2426 -0.0921
99735W        W42673  24.192  33.727  29.557 -0.1486 -0.3142 -0.2633
99736W        W42674  23.207   3.210  30.762  0.0757  0.0166  0.1253
99737W        W42675  23.894   2.684  28.431 -0.1159 -0.1491 -0.3186
99738W        W42676  24.980   0.526  27.430 -0.0160  0.0947 -0.0412
99739W        W42677  24.632   1.804  27.358  0.4324  0.2247 -0.4710
99740W        W42678  21.545   2.897  30.192 -0.1553 -0.0614  0.0610
99741W        W42679  22.640   0.227  29.544 -0.0027 -0.1580  0.0817
99742W        W42680  21.084   1.099  31.417  0.1293  0.2811 -0.0240
99743W        W42681  23.560   0.518  28.602 -0.1470  0.3946  0.2794
99744W        W42682  25.627   2.187   0.372  0.0232  0.1617 -0.1592
99745W        W42683  23.539  34.006  27.609  0.1845 -0.0150 -0.0589
99746W        W42684  26.161   1.552  27.157 -0.0684 -0.3314  0.0420
99747W        W42685  23.427   1.500  29.417  0.0280 -0.0757 -0.1768
99748W        W42686  22.564   0.813  28.780  0.2939 -0.0980  0.0395
99749W        W42687  24.665   0.620  30.165 -0.4590  0.0492  0.0090
99750W        W42688  22.946   4.046  27.579  0.0484  0.1198 -0.3152
99751W        W42689  26.618   5.761  29.049 -0.1913 -0.0038  0.1397
99752W        W42690  25.957   5.401  29.664 -0.0150 -0.1925  0.1758
99753W        W42691  21.814   0.556  30.196 -0.0184 -0.3029 -0.1368
99754W        W42692  22.351   0.864  29.277  0.0715 -0.2385 -0.0504
99755W        W42693  22.494   3.998  29.785  0.2459  0.0410  0.2756
99756W        W42694  22.181   2.217  29.778 -0.0869 -0.2987  0.2011
99757W        W42695  24.739   0.272  29.299 -0.1294 -0.0844 -0.0362
99758W        W42696  24.706   4.237  29.520 -0.2531  0.1433  0.2205
99759W        W42697  23.406   3.321  28.721  0.0582  0.0181 -0.2154
99760W        W42698  22.665   3.063  30.255 -0.0702  0.1490  0.1600
99761W        W42699  24.557   0.384  31.855  0.4049 -0.1942 -0.0514
99762W        W42700  25.516   1.233  30.338 -0.0151  0.0524 -0.1498
99763W        W42701  24.862   1.614  29.554  0.5358  0.0300 -0.0498
99764W        W42702  23.060   0.228  28.394 -0.2940  0.3710  0.2671
99765W        W42703  23.784   3.217  29.111 -0.1589  0.1663 -0.0536
99766W        W42704  22.039   2.583  27.290 -0.1080 -0.1355 -0.2219
99767W        W42705  21.680   2.005  29.016 -0.2343 -0.2998 -0.0457
99768W        W42706  25.284   3.243  28.635 -0.0935 -0.1147 -0.2955
99769W        W42707  26.139   1.471  29.654  0.0169 -0.1911  0.1866
99770W        W42708  21.278   2.621  31.017  0.0504  0.1437  0.0355
99771W        W42709  23.779   1.833  29.215 -0.1663  0.0524  0.3007
99772W        W42710  22.801   0.562  28.048  0.0708  0.1674  0.0108
99773W        W42711  21.624   1.681  29.461 -0.0015  0.4085 -0.1044
99774W        W42712  23.755   0.311  28.989 -0.0821 -0.2454  0.0044
99775W        W42713  26.222   1.800  28.167 -0.0951  0.0708 -0.1049
99776W        W42714  23.986   2.956  29.951 -0.4324 -0.0216  0.2460
99777W        W42715  23.542   2.103  29.787  0.1899  0.2038 -0.0931
99778W        W42716  23.564   1.228  26.232  0.0573 -0.0228  0.0708
99779W        W42717  24.722   0.489  28.639  0.0212 -0.1504  0.3233
99780W        W42718  23.721   2.770  31.351  0.1737 -0.0049 -0.1664
99781W        W42719  24.780   2.377  28.778 -0.3277 -0.1029 -0.1772
99782W        W42720  21.336   2.182  31.390 -0.1135 -0.1951  0.0073
99783W        W42721  24.488   1.412  28.461 -0.0078  0.0015 -0.0421
99784W        W42722  23.608   3.806  28.803  0.0438  0.5067  0.3948
99785W        W42723  21.147   2.941  29.838  0.3074 -0.2578  0.2340
99786W        W42724  23.138   3.243   0.127 -0.0668 -0.3098 -0.1760
99787W        W42725  23.808   2.845  29.462 -0.0892 -0.2149 -0.1614
99788W        W42726  23.505   0.202  31.330 -0.1219  0.0695  0.1006
99789W        W42727  23.669   0.933  27.292  0.0061  0.2300  0.1522
99790W        W42728  25.265   0.459  29.184 -0.0006  0.0307 -0.4268
99791W        W42729  21.133   5.600  28.053 -0.0148 -0.0002 -0.2640
99792W        W42730  24.264   0.773  30.991  0.4221  0.0522  0.0018
99793W        W42731  23.884   1.351  29.594 -0.0451 -0.1484 -0.2920
99794W        W42732  22.285   0.453  30.209  0.1702 -0.1592  0.0300
99795W        W42733  25.769   2.171  31.400 -0.1929  0.1788 -0.2655
99796W        W42734  25.309   1.741  27.731 -0.1694  0.0996 -0.1144
99797W        W42735  23.976   1.784  29.701 -0.0416  0.1302  0.0635
99798W        W42736  22.882   2.084  28.445  0.0620 -0.0445 -0.0135
99799W        W42737  22.055   1.003  31.022 -0.2897 -0.1160 -0.1678
99800W        W42738  21.786   1.968  29.927  0.2196  0.1729  0.0978
99801W        W42739  21.969   4.483  28.946  0.1647 -0.0566 -0.0206
99802W        W42740  24.372   3.866  30.082 -0.0814  0.0595 -0.2677
99803W        W42741  25.056   0.847  28.811 -0.0931  0.0921  0.0485
99804W        W42742  22.019   1.160  30.066  0.0188 -0.1625  0.1559
99805W        W42743  24.327   1.694  29.242 -0.2108 -0.3061  0.1790
99806W        W42744  23.078   3.491  29.058 -0.1374 -0.1149  0.0834
99807W        W42745  23.381   1.922  28.632 -0.2836  0.2945  0.0202
99808W        W42746  21.466  34.474  29.695 -0.0298  0.1205 -0.0617
99809W        W42747  23.851   4.067  30.329 -0.1331  0.1304  0.0964
99810W        W42748  22.480   2.348  26.997  0.2243 -0.2140  0.0235
99811W        W42749  23.423   2.402  30.266  0.1564  0.2949 -0.0931
99812W        W42750  23.313   1.911  29.178 -0.3906  0.0797  0.0826
99813W        W42751  25.277   0.209  29.977  0.2013  0.1181 -0.0742
99814W        W42752  22.050   4.195  27.932 -0.0307 -0.1481 -0.2730
99815W        W42753  23.696   2.159  28.350 -0.5676 -0.3640 -0.1711
99816W        W42754  22.768   2.239  27.940  0.0567  0.0184  0.1054
99817W        W42755  22.968   1.605  29.586 -0.0296 -0.1126 -0.2862
99818W        W42756  25.990   3.201  27.542  0.3018  0.2467  0.1293
99819W        W42757  22.567  34.566  28.572  0.1924  0.1138 -0.2735
99820W        W42758  24.067  34.652  30.051 -0.0582 -0.0136 -0.0978
99821W        W42759  23.450   3.497  29.572  0.0563  0.0448 -0.1392
99822W        W42760  23.218   2.344  30.835 -0.0524  0.2651  0.0991
99823W        W42761  25.036   1.314  27.505 -0.2189 -0.1319 -0.0297
99824W        W42762  23.572   3.192  29.903 -0.0611  0.0951  0.1286
99825W        W42763  23.537   2.332  31.203  0.1983  0.0677 -0.3087
99826W        W42764  23.307   1.410  28.415 -0.1131 -0.2202 -0.1082
99827W        W42765  23.682   0.900  29.419 -0.0174 -0.0907  0.0001
99828W        W42766  22.505   0.965  30.210  0.1958 -0.0125  0.1033
99829W        W42767  22.067   2.756  29.456 -0.0010 -0.0404  0.0500
99830W        W42768  24.181   3.041  31.242 -0.0416 -0.2705 -0.0960
99831W        W42769  24.327   1.425  27.950 -0.3744  0.1329  0.1146
99832W        W42770  22.436   2.455  28.270  0.1252  0.1998  0.0978
99833W        W42771  21.062   0.562  30.780 -0.1193  0.1949 -0.4701
99834W        W42772  23.886   2.547  30.358 -0.1985  0.3195  0.1648
99835W        W42773  22.967   1.248  30.193  0.2823  0.3652 -0.1893
99836W        W42774  23.049   1.013  30.661 -0.0527  0.0032 -0.0377
99837W        W42775  23.044   0.102  29.347 -0.0773  0.2551  0.1894
99838W        W42776  23.852   2.379  29.361  0.1896 -0.0479 -0.0982
99839W        W42777  24.156   0.703  30.389  0.2885  0.0343  0.0826
99840W        W42778  23.162   3.596  31.759  0.0653 -0.2383  0.0797
99841W        W42779  24.367  34.669  29.593  0.2203 -0.0115 -0.1929
99842W        W42780  25.233   4.155  29.521  0.1754  0.3685 -0.2053
99843W        W42781  24.808   1.592  30.984  0.2509 -0.1221  0.1596
99844W        W42782  22.685   3.284  29.271  0.1181  0.3652 -0.1476
99845W        W42783  22.470   1.432  30.415  0.1411  0.0930  0.4834
99846W        W42784  23.649   1.682  28.188  0.1921 -0.2421 -0.0620
99847W        W42785  23.547   0.931  30.668 -0.1036  0.0231  0.0541
99848W        W42786  23.386   4.115  29.612  0.2091  0.0633  0.2601
99849W        W42787  22.850   4.196  28.442 -0.1519 -0.0143  0.0878
99850W        W42788  21.925   4.176  30.550 -0.2064  0.1945 -0.1230
99851W        W42789  25.373   1.257  28.997  0.2118  0.1613 -0.0267
99852W        W42790  23.987   2.065  27.467  0.1454 -0.1425 -0.1017
99853W        W42791  23.970   1.478  30.096 -0.2566 -0.2961 -0.2272
99854W        W42792  25.084   0.345  30.448 -0.2761 -0.2436 -0.0887
99855W        W42793  24.065   2.362  28.085  0.2813 -0.0036  0.1580
99856W        W42794  24.831   2.110  30.888 -0.1907  0.1723 -0.0972
99857W        W42795  22.974   0.164  30.635 -0.2155  0.1307 -0.0139
99858W        W42796  23.566   2.792  28.999 -0.0650  0.2525 -0.1442
99859W        W42797  21.254  34.687  30.142  0.1129  0.5158  0.1213
99860W        W42798  24.906   5.885  31.671 -0.1034 -0.1514 -0.1550
99861W        W42799  21.878   2.216  30.343 -0.4130 -0.5643 -0.1398
99862W        W42800  25.004   1.790  28.248  0.0311  0.0522 -0.0756
99863W        W42801  22.775   0.948  28.349  0.4676  0.0274  0.1222
99864W        W42802  21.428   1.452  30.439  0.1267 -0.1149 -0.5316
99865W        W42803  23.259   2.968  29.461  0.2466 -0.0123 -0.0420
99866W        W42804  23.687   2.251  28.917 -0.0713  0.1496  0.0654
99867W        W42805  24.204   2.168  29.055 -0.0975 -0.0290  0.1171
99868W        W42806  22.362   2.296  30.247 -0.2267  0.1128  0.1265
99869W        W42807  25.602   1.921  28.119 -0.1534  0.2023  0.1056
99870W        W42808  25.072   2.059  27.347 -0.5683 -0.0001  0.1741
99871W        W42809  21.897   2.520  30.791 -0.1430 -0.0098  0.0133
99872W        W42810  22.815   2.771  31.506 -0.0410  0.0713 -0.2862
99873W        W42811  25.117   2.298  28.316 -0.2404  0.1078 -0.0677
99874W        W42812  25.246   1.276  29.925  0.1780 -0.0980 -0.0588
99875W        W42813  23.926   1.197  31.092 -0.0610  0.3858  0.0048
99876W        W42814  25.891   2.059  30.045 -0.3691  0.0709  0.0525
99877W        W42815  22.976   2.752   0.000 -0.0991  0.1916 -0.1302
99878W        W42816  21.992   0.313  30.600  0.2230 -0.0117  0.3335
99879W        W42817  25.752   2.468  29.476 -0.1982 -0.0418 -0.0521
99880W        W42818  25.829   1.679  25.972 -0.0757 -0.2149  0.0285
99881W        W42819  25.141  34.560  30.510  0.2310 -0.1341  0.0396
99882W        W42820  24.900   3.279  29.125 -0.1201 -0.1841  0.0740
99883W        W42821  24.466   1.840  28.775 -0.2034  0.0753 -0.3070
99884W        W42822  21.265   0.176  29.223  0.1257 -0.0237 -0.3067
99885W        W42823  24.167   2.249   0.086 -0.1388 -0.3641  0.2023
99886W        W42824  22.883  34.616  27.525  0.0277 -0.1058 -0.0267
99887W        W42825  24.481   0.891   0.251 -0.1908  0.0448 -0.0670
99888W        W42826  23.032   3.105  28.464 -0.1446  0.0925  0.0353
99889W        W42827  23.830   4.206  29.869 -0.1017  0.5589 -0.1174
99890W        W42828  24.436   2.587  28.557 -0.0722 -0.5208 -0.1949
99891W        W42829  21.335   2.589  28.572 -0.0603  0.0548  0.0430
99892W        W42830  23.587   3.404  31.851 -0.0468 -0.2302 -0.0048
99893W        W42831  23.473   1.548  28.857 -0.0206  0.1949  0.0764
99894W        W42832  24.051   0.490  29.437  0.2643 -0.2565 -0.0094
99895W        W42833  22.306   3.236  30.545  0.0967  0.0571 -0.0384
99896W        W42834  25.803   3.840   0.214 -0.1322 -0.1991 -0.2086
99897W        W42835  22.752   1.357  27.386  0.0195  0.0129 -0.0747
99898W        W42836  25.172   1.440  30.586 -0.0541  0.2647 -0.0102
99899W        W42837  22.509   2.384  28.839  0.0135 -0.0463 -0.0683
99900W        W42838  25.984  33.820  30.820  0.0463  0.0806  0.4129
99901W        W42839  22.934   3.651  30.887 -0.3369  0.0265  0.0878
99902W        W42840  21.458   3.156  31.102 -0.0632  0.0265 -0.0722
99903W        W42841  22.782   3.514  29.931 -0.1454 -0.2221  0.0586
99904W        W42842  24.264   0.670  31.452  0.4362  0.0329 -0.2887
99905W        W42843  24.753   1.518  30.040  0.0492 -0.1244  0.4435
99906W        W42844  22.995   2.330  28.960 -0.0887  0.1374  0.2958
99907W        W42845  24.339   1.872  30.035 -0.0897  0.3846 -0.3706
99908W        W42846  24.577   1.423  30.554 -0.0544 -0.4083 -0.3941
99909W        W42847  21.714   2.350  28.304 -0.2149 -0.0654 -0.0473
99910W        W42848  24.252   2.631  31.516  0.1662 -0.2320 -0.2126
99911W        W42849  24.169   1.755  30.495 -0.0862 -0.4693  0.0719
99912W        W42850  21.889   2.304  29.382 -0.2262  0.0797  0.0424
99913W        W42851  21.592   2.222  30.992 -0.0859 -0.1208 -0.0453
99914W        W42852  24.503   2.639  30.819  0.0274  0.2502  0.0243
99915W        W42853  23.741   2.190  30.733  0.1720 -0.3114  0.1878
99916W        W42854  22.848   0.739  29.231 -0.1237 -0.0515 -0.1644
99917W        W42855  22.991   3.692  28.550  0.1454 -0.0219  0.1846
99918W        W42856  22.338   2.359  30.779 -0.1033  0.0166  0.1417
99919W        W42857  22.518   1.853  28.736 -0.0956 -0.1053 -0.0667
99920W        W42858  22.278   2.941  28.018  0.0452 -0.0811 -0.3773
99921W        W42859  23.870   3.623  29.931 -0.3382 -0.3456 -0.0206
99922W        W42860  23.341   3.023  27.783 -0.2340  0.0448 -0.1545
99923W        W42861  24.002   3.372  29.527  0.3167  0.0588  0.0266
99924W        W42862  24.774   1.619  27.865 -0.1333 -0.3486  0.0610
99925W        W42863  21.196   4.058  29.326 -0.1231  0.2741  0.0221
99926W        W42864  21.671   1.939  27.150 -0.0567  0.0601  0.1590
99927W        W42865  23.427   3.720  28.328  0.2616 -0.3686 -0.2619
99928W        W42866  22.645   3.324  28.761  0.0761  0.2208 -0.1875
99929W        W42867  25.295   1.732  30.942  0.0371 -0.1010  0.1951
99930W        W42868  24.530   0.582  29.656  0.1005 -0.0900  0.0515
99931W        W42869  25.420   1.591  28.519  0.0401  0.0860  0.3592
99932W        W42870  24.912   1.367  28.673 -0.2214  0.0986  0.0019
99933W        W42871  24.692   4.364  31.683 -0.0884 -0.0915  0.2599
99934W        W42872  21.831   1.196  29.480  0.0809 -0.3395  0.0231
99935W        W42873  23.694  34.068  29.135  0.2642  0.0263 -0.0281
99936W        W42874  23.252   1.968  30.461  0.1975  0.0784  0.0056
99937W        W42875  24.737   0.039   0.277 -0.1454 -0.1923  0.1323
99938W        W42876  22.733   4.592  30.117  0.1970 -0.2811 -0.0801
99939W        W42877  25.020   3.073  27.533  0.2985  0.1910 -0.0725
99940W        W42878  21.306   2.358  27.878  0.1292 -0.1081  0.3793
99941W        W42879  22.617   2.436  29.799 -0.2351 -0.0161  0.4173
99942W        W42880  25.662   0.051  30.210 -0.1227  0.1641  0.1794
99943W        W42881  23.089   2.775  27.243 -0.0879 -0.1056  0.1810
99944W        W42882  24.293   1.015  29.345  0.1222 -0.1051  0.0872
99945W        W42883  22.784   3.966  28.892  0.0543 -0.1174 -0.1277
99946W        W42884  22.333   3.764  30.754  0.1734  0.0205 -0.0489
99947W        W42885  22.181   3.776  31.330 -0.0431 -0.1640 -0.1239
99948W        W42886  23.199   1.945  27.596 -0.1903 -0.0603 -0.0178
99949W        W42887  26.158   1.209  27.563 -0.2302  0.0653  0.0056
99950W        W42888  21.553   1.393  29.936 -0.2311  0.0938  0.0460
99951W        W42889  24.734   2.482  31.235  0.0824  0.0024 -0.0442
99952W        W42890  22.777   1.762  27.842  0.1751  0.1273 -0.1731
99953W        W42891  26.182   0.556  28.291  0.0057  0.0625  0.2120
99954W        W42892  23.726   0.572  29.893 -0.3264  0.0370  0.0931
99955W        W42893  21.876   1.832  31.263  0.0596 -0.1171 -0.1196
99956W        W42894  25.502   2.382  27.640 -0.0973 -0.0941  0.0813
99957W        W42895  25.407   2.972  31.464  0.2212 -0.1299 -0.0447
99958W        W42896  25.411   1.624  27.204 -0.3177 -0.1976 -0.0864
99959W        W42897  22.959   3.747  29.474  0.0582 -0.2702 -0.0307
99960W        W42898  22.108   1.576  28.274  0.2592 -0.2982  0.0545
99961W        W42899  23.605   1.975  26.858 -0.3356 -0.0572  0.0180
99962W        W42900  22.204   1.958  29.150 -0.0549  0.1656 -0.1948
99963W        W42901  22.134   1.425  31.354 -0.3304 -0.2028 -0.4441
99964W        W42902  24.416   5.231  30.667 -0.0580  0.0014  0.2068
99965W        W42903  22.157   0.154  27.995  0.0949 -0.0979  0.1277
99966W        W42904  24.777   3.195  27.975  0.2282 -0.3112 -0.2015
99967W        W42905  25.598   1.678  28.978  0.0725 -0.5751 -0.0358
99968W        W42906  22.807   4.322  26.984 -0.0405 -0.0208 -0.3260
99969W        W42907  24.350   2.126  29.545 -0.2349 -0.0612 -0.2779
99970W        W42908  24.355   4.365  29.848  0.3822  0.0367 -0.0461
99971W        W42909  21.481   0.263  30.540  0.0386 -0.1061 -0.1380
99972W        W42910  24.717   4.111  30.874 -0.0401  0.1539 -0.1724
99973W        W42911  24.338   4.099  28.120 -0.3306  0.1430  0.3355
99974W        W42912  23.627   2.058  27.806 -0.4042 -0.0737  0.0529
99975W        W42913  22.525   1.266  28.605  0.0701  0.1314 -0.0782
99976W        W42914  22.719   2.793  29.388 -0.1372 -0.1165  0.2973
99977W        W42915  23.506   0.305  29.482 -0.2011 -0.2845 -0.0535
99978W        W42916  24.474   1.107  30.179  0.2271  0.0245 -0.2041
99979W        W42917  22.516   3.337  28.257 -0.0652 -0.0101 -0.2052
99980W        W42918  25.445   0.191  30.729 -0.0753 -0.0950  0.0477
99981W        W42919  23.482   2.719  30.629  0.0496  0.0873 -0.1005
99982W        W42920  23.309   4.393   0.307 -0.0137  0.0154  0.2530
99983W        W42921  22.967   3.323  28.029 -0.2367 -0.1086 -0.0854
99984W        W42922  24.323   2.924  30.344  0.1329  0.0185  0.2855
99985W        W42923  22.426   2.873  29.007 -0.0913 -0.0309 -0.4679
99986W        W42924  23.502   2.959  28.304  0.0063  0.1266 -0.1128
99987W        W42925  24.607   4.410  30.475 -0.2486  0.2452 -0.0829
99988W        W42926  23.368   1.218  29.915  0.1230  0.2493 -0.3279
99989W        W42927  24.812   2.407  30.304 -0.1276 -0.3101  0.1941
99990W        W42928  23.381   0.623  29.133  0.1709 -0.1050 -0.1190
99991W        W42929  25.464   1.056  28.499  0.3554  0.1195  0.1633
99992W        W42930  25.316   0.923  29.518 -0.0957 -0.0516 -0.1442
99993W        W42931  22.469   1.451  29.790 -0.3590  0.1715 -0.0787
99994W        W42932  21.772   2.223  27.567  0.4457  0.0931 -0.0238
99995W        W42933  21.815   2.775  28.478 -0.2321  0.0568 -0.2488
99996W        W42934  21.856   3.179  29.343 -0.0943 -0.0768 -0.2045
99997W        W42935  22.599   1.599  31.208  0.1122 -0.2420 -0.0523
99998W        W42936  22.174   0.791  30.558  0.2323  0.0784  0.3350
99999W        W42937  21.074   1.195  28.745  0.1069 -0.2147 -0.0779
    0W        W42938  21.863   1.289  27.891 -0.0095 -0.1801 -0.1156
    1W        W42939  23.867   3.885  28.088 -0.0671  0.0463  0.1955
    2W        W42940  22.657   0.618  30.550 -0.0676 -0.0124  0.0480
    3W        W42941  22.024   0.377  29.794 -0.0355 -0.0810  0.4598
    4W        W42942  23.192   2.350  29.463 -0.0996  0.1230  0.1514
    5W        W42943  24.581   2.783  27.178  0.1952  0.1658 -0.0996
    6W        W42944  22.314   1.418  29.321  0.1982 -0.0275  0.1423
    7W        W42945  24.220   3.928  29.615 -0.1185  0.0172 -0.0213
    8W        W42946  21.697   1.111  27.388 -0.0078  0.1199  0.0586
    9W        W42947  23.391   1.939  31.530  0.2571 -0.2445 -0.0216
   10W        W42948  24.571   0.884   0.962 -0.1283  0.0883 -0.0112
   11W        W42949  21.249   1.247  27.422 -0.1860 -0.3859  0.1412
   12W        W42950  24.640   0.914  30.617  0.1873  0.0855 -0.2721
   13W        W42951  23.814   4.267  29.003 -0.2328  0.2004 -0.0392
   14W        W42952  25.266   3.048  28.057 -0.0280  0.4902 -0.1506
   15W        W42953  22.601   1.947  29.686 -0.2706 -0.0374 -0.0176
   16W        W42954  23.386   4.345  30.101 -0.2180 -0.0604  0.1801
   17W        W42955  20.224   1.412  30.824 -0.2694 -0.0888 -0.5057
   18W        W42956  24.894   2.713  28.333 -0.2054 -0.1564  0.0632
   19W        W42957  22.840   2.265  30.421  0.0511  0.2507  0.1582
   20W        W42958  24.956   3.660  27.643  0.0009  0.0396  0.3352
   21W        W42959  24.999   1.061  30.292  0.1051  0.0160  0.1221
   22W        W42960  24.155   1.776  28.269  0.0062  0.1134 -0.0939
   23W        W42961  21.797   1.162  30.607 -0.0441 -0.1119 -0.0746
   24W        W42962  22.767   2.508  31.006  0.3188 -0.3061 -0.2167
   25W        W42963  25.665   4.275  30.722  0.0919  0.2334 -0.0748
   26W        W42964  23.554   0.140  29.957 -0.1399  0.1892  0.1082
   27W        W42965  25.894   1.104  27.134 -0.1549  0.1337 -0.1648
   28W        W42966  24.045   2.680  29.034 -0.2439 -0.3939  0.3495
   29W        W42967  23.439   0.986  28.752 -0.0285  0.0482  0.0605
   30W        W42968  23.803   1.307  29.100  0.1069  0.4928 -0.0604
   31W        W42969  22.831   1.713  30.085 -0.2089 -0.3634 -0.3063
   32W        W42970  23.512   2.648  29.801  0.1296 -0.1186  0.0816
   33W        W42971  25.030   1.974  31.446 -0.0219  0.1562 -0.0155
   34W        W42972  23.920   1.819  28.742  0.2690  0.3037 -0.3918
   35W        W42973  24.754   3.631  28.188  0.1679 -0.3711 -0.2362
   36W        W42974  24.426   3.412  29.059 -0.2631  0.4244 -0.1326
   37W        W42975  25.214   4.227  31.628 -0.0554 -0.0916 -0.0396
   38W        W42976  24.038   4.662   0.091  0.0128  0.0111 -0.1174
   39W        W42977  24.804   2.068  29.878  0.1480  0.0561  0.0653
   40W        W42978  20.704   1.264  31.086 -0.2014  0.1475 -0.0983
   41W        W42979  22.704   1.793  29.240  0.3689 -0.0491 -0.1238
   42W        W42980  22.961   2.629  30.125 -0.0544  0.0841 -0.0038
   43W        W42981  24.745   1.312  29.179  0.0392  0.2023  0.0314
   44W        W42982  22.528   2.124  31.271  0.2858  0.3838  0.3401
   45W        W42983  25.081   2.584  27.895 -0.1836 -0.0077  0.0838
   46W        W42984  21.931   2.590  29.987  0.2967  0.2212 -0.0660
   47W        W42985  23.416   1.330  30.389  0.0035  0.0817 -0.5710
   48W        W42986  24.319   1.640  30.990  0.0927 -0.0709  0.0245
   49W        W42987  23.940   3.015  31.724 -0.1177  0.0715 -0.1293
   50W        W42988  21.164   1.433  31.075 -0.1838  0.4510 -0.0335
   51W        W42989  22.230   4.266  31.082  0.1376 -0.4833 -0.0259
   52W        W42990  24.137   3.756   0.957  0.4916 -0.2334  0.1070
   53W        W42991  23.867   3.822   1.438  0.0873 -0.1497  0.1998
   54W        W42992  24.470  34.672  30.343 -0.0690 -0.1461 -0.2769
   55W        W42993  23.407   1.925  30.947 -0.1395  0.1311 -0.2775
   56W        W42994  23.325   1.324  30.918 -0.1418  0.1088  0.0035
   57W        W42995  23.251   3.925  30.492  0.2351  0.1703 -0.1701
   58W        W42996  24.356   3.672   0.063  0.1164 -0.2214 -0.4475
   59W        W42997  21.806   1.213   0.588  0.0257  0.0880 -0.4008
   60W        W42998  25.094   3.110  31.098  0.0881  0.0102 -0.2328
   61W        W42999  23.321   2.469  31.637  0.0319 -0.0759 -0.0212
   62W        W43000  24.606   3.489  30.572 -0.1620 -0.1602 -0.3310
   63W        W43001  23.319   3.234   0.764  0.1204 -0.1642 -0.1815
   64W        W43002  22.191   3.712  31.849  0.4355 -0.0208 -0.2782
   65W        W43003  23.857   1.681   1.575  0.1716  0.2690  0.1521
   66W        W43004  21.152   0.625  31.290 -0.1508  0.0397 -0.0507
   67W        W43005  21.807   1.488  31.730 -0.2527  0.0178 -0.3353
   68W        W43006  21.492   0.902   0.260  0.1142 -0.1320 -0.0891
   69W        W43007  21.004   3.865   0.720  0.2941 -0.0590  0.2532
   70W        W43008  25.217   0.965   0.348  0.1346  0.1536 -0.3174
   71W        W43009  23.636   1.556  31.244  0.1599 -0.0788 -0.0304
   72W        W43010  22.880   1.092  31.138 -0.2079  0.0735  0.3109
   73W        W43011  23.995   2.691  30.874 -0.1819 -0.0803 -0.1127
   74W        W43012  21.495   1.022  30.224  0.0576  0.3232  0.1568
   75W        W43013  21.726   4.348  31.091  0.0932  0.2017 -0.0136
   76W        W43014  22.946   2.621   0.616  0.1348  0.0499  0.0832
   77W        W43015  23.177   3.719   0.572  0.1997 -0.0600  0.1024
   78W        W43016  24.316   3.952  30.597  0.2738  0.6204  0.2464
   79W        W43017  21.068   1.707  31.958 -0.1167  0.1570 -0.1296
   80W        W43018  24.662   3.108  30.891  0.0314 -0.2661 -0.0130
   81W        W43019  24.320  34.152  31.541 -0.4352  0.1202 -0.0709
   82W        W43020  21.448   2.371   0.052  0.1241  0.1688  0.0485
   83W        W43021  21.941   3.250   0.046 -0.0439 -0.4642  0.2357
   84W        W43022  23.691   3.603   0.362  0.1654  0.0625  0.0069
   85W        W43023  22.988   2.907   1.050 -0.0937  0.0704  0.2813
   86W        W43024  25.165   1.799  30.156  0.2453 -0.1635  0.2494
   87W        W43025  24.195   3.171  30.798  0.0884 -0.0507 -0.0680
   88W        W43026  24.444   2.907  31.842  0.4017  0.3658 -0.0564
   89W        W43027  23.672   1.512  31.781  0.0432  0.1312  0.1307
   90W        W43028  23.089   1.495  31.870  0.2178 -0.0735 -0.1787
   91W        W43029  24.114   3.469  30.432 -0.1069 -0.1339 -0.0532
   92W        W43030  22.537   1.882  30.534  0.2819  0.0221 -0.0997
   93W        W43031  23.706   2.250   0.070  0.0517  0.0510 -0.0991
   94W        W43032  23.111   0.632   0.081  0.2499  0.1585 -0.0665
   95W        W43033  23.999   3.340   0.718  0.2168  0.0094 -0.1519
   96W        W43034  23.773   4.212   0.166  0.0732 -0.0039 -0.4075
   97W        W43035  20.174   3.932   0.068 -0.0084 -0.1148  0.0333
   98W        W43036  23.854   4.365  31.653 -0.2180  0.1773  0.2956
   99W        W43037  24.022   0.258  31.239  0.0566 -0.0584 -0.2891
  100W        W43038  22.348   0.713  31.919  0.0320 -0.2493 -0.1954
  101W        W43039  24.026   2.726   0.184  0.2169  0.1039 -0.0030
  102W        W43040  24.827   0.610   0.599  0.1358 -0.0429  0.0104
  103W        W43041  23.257   2.813  31.173 -0.0301 -0.3122  0.0585
  104W        W43042  24.933   2.969  30.462  0.0006  0.1029  0.0084
  105W        W43043  20.995   4.369  31.870  0.2279  0.1546 -0.3059
  106W        W43044  24.677   2.911  31.395 -0.1931 -0.2445  0.0486
  107W        W43045  22.647   3.680  31.679 -0.1190  0.1146 -0.2863
  108W        W43046  22.225   2.748  31.525  0.1248 -0.1479 -0.0543
  109W        W43047  21.528   1.926  31.811  0.1322 -0.0923 -0.2370
  110W        W43048  21.177   3.458  29.729  0.2175 -0.0315 -0.3685
  111W        W43049  21.044   0.031  30.606 -0.1081  0.0200 -0.0497
  112W        W43050  24.257   4.236   0.029  0.1416  0.1472  0.1344
  113W        W43051  25.534   3.764   0.736 -0.0624  0.2926 -0.0286
  114W        W43052  26.014   1.709  31.662 -0.0600 -0.1101 -0.2995
  115W        W43053  22.400   6.324  19.082  0.1725 -0.1778  0.2243
  116W        W43054  22.488   5.998  16.067 -0.1845  0.2053 -0.0788
  117W        W43055  24.676   4.801  16.122  0.2725  0.1592  0.1038
  118W        W43056  25.871   6.015  15.954 -0.2962  0.0614 -0.0254
  119W        W43057  23.187   4.692  17.060  0.1241 -0.0206  0.2075
  120W        W43058  24.383   6.240  16.243 -0.1399 -0.0154  0.0971
  121W        W43059  21.517   4.535  19.334  0.1200  0.1261  0.2394
  122W        W43060  23.981   6.023  17.381 -0.1488 -0.1572 -0.2525
  123W        W43061  25.511   7.157  17.828  0.0275  0.3434 -0.1881
  124W        W43062  23.515   6.299  17.108  0.0307  0.1756  0.1118
  125W        W43063  23.238   5.013  18.300  0.1615  0.0928 -0.0780
  126W        W43064  24.725   5.890  19.186 -0.1889 -0.0778 -0.1087
  127W        W43065  24.955   4.084  16.502 -0.0734 -0.0629  0.2442
  128W        W43066  23.448   3.868  16.806 -0.0708  0.0307 -0.1239
  129W        W43067  25.455   6.290  18.375 -0.0182 -0.0659 -0.1382
  130W        W43068  22.234   5.221  16.733 -0.1300 -0.0252 -0.0290
  131W        W43069  23.018   3.615  19.099 -0.1418  0.0676 -0.0682
  132W        W43070  23.781   5.357  16.820 -0.1348  0.1023 -0.0156
  133W        W43071  24.038   7.581  18.729  0.0363 -0.0364 -0.1054
  134W        W43072  23.185   3.839  17.707 -0.3110 -0.1829 -0.2243
  135W        W43073  23.673   2.750  18.598 -0.2423 -0.0764  0.1917
  136W        W43074  23.051   6.155  16.988 -0.2946 -0.0157  0.2141
  137W        W43075  22.414   4.681  15.913 -0.0591  0.0762  0.0722
  138W        W43076  22.196   5.815  17.484 -0.0993  0.1517 -0.0956
  139W        W43077  21.856   6.402  16.829  0.1794  0.0645 -0.1722
  140W        W43078  24.688   6.090  16.683  0.1039  0.1022  0.0358
  141W        W43079  23.803   4.892  18.205 -0.3629 -0.1399 -0.1201
  142W        W43080  22.262   6.818  19.166  0.3014  0.3943 -0.3324
  143W        W43081  22.611   6.994  18.661  0.1651  0.0183 -0.1487
  144W        W43082  25.581   4.982  19.471 -0.2529 -0.3014  0.1313
  145W        W43083  22.098   4.713  17.693  0.1800 -0.2265  0.1667
  146W        W43084  21.379   7.268  16.874  0.0777  0.2393 -0.2479
  147W        W43085  23.027   6.367  17.928  0.1100 -0.2068 -0.0990
  148W        W43086  24.875   7.518  17.492 -0.0743  0.1279 -0.4529
  149W        W43087  23.340   6.237  19.185 -0.2702  0.0993  0.2139
  150W        W43088  22.604   5.931  19.660 -0.0442  0.2370 -0.0439
  151W        W43089  21.930   6.958  16.092  0.0096  0.0228  0.1830
  152W        W43090  22.977   6.599  20.964  0.0540 -0.0260  0.2970
  153W        W43091  22.998   4.607  18.586  0.3451  0.2190  0.0551
  154W        W43092  23.282   4.847  17.836 -0.2092 -0.2354  0.1266
  155W        W43093  23.506   5.825  16.437  0.1621  0.0252  0.3546
  156W        W43094  22.859   6.251  15.285 -0.2773  0.1132  0.2608
  157W        W43095  23.705   5.123  17.811  0.0875  0.2725  0.1375
  158W        W43096  22.489   7.461  20.586  0.2000 -0.3624  0.0295
  159W        W43097  23.508   6.732  16.839  0.0342 -0.0939 -0.0380
  160W        W43098  25.542   5.925  19.214  0.1027 -0.1837  0.2540
  161W        W43099  21.539   7.294  15.845 -0.2230  0.2585 -0.0664
  162W        W43100  25.146   3.766  16.122  0.0538 -0.1378 -0.3679
  163W        W43101  23.286   5.307  16.328  0.1004  0.1004 -0.0328
  164W        W43102  24.184   5.132  15.971  0.1759  0.0494  0.3715
  165W        W43103  23.637   4.648  17.347 -0.0205 -0.2544  0.3266
  166W        W43104  22.722   7.095  19.197  0.0021  0.2026 -0.0354
  167W        W43105  23.422   3.266  17.514  0.1610  0.3288  0.1020
  168W        W43106  25.354   6.973  19.214 -0.0537 -0.2345 -0.0881
  169W        W43107  24.206   5.852  16.570 -0.0430 -0.3269 -0.2476
  170W        W43108  24.141   5.743  19.010  0.1140 -0.0616 -0.0699
  171W        W43109  23.824   7.159  18.962  0.0595  0.0036  0.0624
  172W        W43110  22.656   6.146  17.472  0.2605  0.1063  0.1081
  173W        W43111  25.665   7.123  16.552  0.1201 -0.3102 -0.2499
  174W        W43112  23.861   6.787  17.478 -0.1174  0.0962  0.0641
  175W        W43113  23.091   7.565  15.918  0.0952  0.1254 -0.0373
  176W        W43114  22.645   6.283  16.699 -0.1121 -0.1567 -0.1953
  177W        W43115  21.872   4.210  19.296  0.2185  0.1863  0.2656
  178W        W43116  21.670   5.079  19.357  0.4284 -0.4719  0.0724
  179W        W43117  22.845   4.235  15.966  0.0033 -0.0492 -0.1828
  180W        W43118  25.576   7.278  18.782 -0.2462 -0.2295 -0.3899
  181W        W43119  22.433   5.378  18.456 -0.1258  0.4003  0.2149
  182W        W43120  26.223   4.120  16.511  0.2252  0.0858 -0.1645
  183W        W43121  23.764   5.272  19.017  0.0784  0.1991  0.3817
  184W        W43122  24.873   4.852  18.521  0.0479 -0.1984  0.1832
  185W        W43123  24.612   7.845  16.178 -0.1890  0.4873 -0.3983
  186W        W43124  24.939   2.955  17.909 -0.1445  0.1779  0.1709
  187W        W43125  24.403   4.443  18.947  0.0029 -0.2641 -0.1662
  188W        W43126  23.699   4.484  16.359 -0.1429 -0.3251 -0.1934
  189W        W43127  23.468   6.757  16.288  0.1650  0.0922 -0.0599
  190W        W43128  24.728   7.062  18.328  0.1167 -0.0319  0.1499
  191W        W43129  25.387   4.652  15.772 -0.1309  0.1476 -0.2048
  192W        W43130  22.669   6.520  18.727 -0.0887  0.1677 -0.1826
  193W        W43131  22.354   4.414  18.039 -0.0998 -0.0300 -0.1430
  194W        W43132  23.223   5.622  20.783 -0.1786 -0.0551 -0.2931
  195W        W43133  21.478   6.771  15.526  0.1898 -0.0469 -0.2600
  196W        W43134  22.928   6.772  17.567  0.2020  0.0139  0.4650
  197W        W43135  21.623   6.973  16.545 -0.0175 -0.2096  0.0307
  198W        W43136  21.151   3.876  17.707 -0.1445  0.1697 -0.3606
  199W        W43137  22.764   5.602  18.741 -0.3024 -0.2484  0.1848
  200W        W43138  25.369   5.080  17.074  0.0254  0.1413 -0.2139
  201W        W43139  22.091   4.646  19.090  0.1476  0.2098 -0.4261
  202W        W43140  25.665   4.001  17.052  0.2006 -0.0097 -0.1576
  203W        W43141  22.795   7.501  16.478 -0.2487 -0.0545 -0.0589
  204W        W43142  25.305   6.592  17.716  0.0243  0.0284  0.1400
  205W        W43143  25.371   4.183  16.187 -0.0779 -0.0318  0.2731
  206W        W43144  24.114   7.414  16.176  0.0530 -0.2500 -0.2449
  207W        W43145  19.821   4.636  19.849  0.1107 -0.2778 -0.1922
  208W        W43146  22.614   5.387  16.908 -0.3749 -0.0870 -0.1442
  209W        W43147  23.560   4.934  18.690 -0.2256 -0.2410  0.2027
  210W        W43148  20.361   4.977  16.691  0.3271  0.1780 -0.2117
  211W        W43149  25.788   6.661  17.752  0.1548 -0.1765 -0.2500
  212W        W43150  22.395   4.430  16.797  0.0231 -0.1094  0.2260
  213W        W43151  26.022   4.553  17.748  0.1154  0.2349  0.1258
  214W        W43152  23.880   5.484  15.797  0.0404 -0.2675 -0.2611
  215W        W43153  21.919   7.044  17.592  0.0532  0.1007  0.3613
  216W        W43154  23.236   4.251  19.392  0.1074 -0.3917  0.2872
  217W        W43155  25.287   7.004  16.887  0.0435  0.2828 -0.2379
  218W        W43156  24.205   7.237  19.316  0.3159  0.3319 -0.1644
  219W        W43157  24.664   7.314  16.844  0.2215 -0.0491 -0.0457
  220W        W43158  22.639   4.582  17.593 -0.2459  0.1941  0.0832
  221W        W43159  24.071   5.001  17.095 -0.0507  0.1545  0.1891
  222W        W43160  23.235   6.841  18.055  0.1952 -0.1990  0.0121
  223W        W43161  23.194   6.192  17.474 -0.0157  0.1069  0.0690
  224W        W43162  24.744   3.591  17.092 -0.0372 -0.2684 -0.1794
  225W        W43163  23.845   7.832  18.238  0.2743  0.1164  0.4170
  226W        W43164  23.093   7.133  16.193  0.1295 -0.1595 -0.1281
  227W        W43165  21.359   5.932  16.613 -0.0134  0.1188  0.0157
  228W        W43166  23.737   4.172  19.646 -0.3274  0.1968  0.1873
  229W        W43167  26.062   6.209  18.707  0.0132  0.1688 -0.1131
  230W        W43168  25.462   6.012  16.993  0.0514  0.2826 -0.1069
  231W        W43169  21.443   4.643  15.885 -0.1637  0.1649 -0.2550
  232W        W43170  24.543   5.186  17.167 -0.1051  0.2048  0.5328
  233W        W43171  21.780   6.924  18.048 -0.2087  0.1747  0.1026
  234W        W43172  23.338   6.235  16.621 -0.1795  0.1748 -0.0481
  235W        W43173  22.637   7.613  17.264  0.1261 -0.1458 -0.0835
  236W        W43174  24.612   4.221  17.849 -0.4061  0.0258  0.2087
  237W        W43175  20.804   5.426  18.398 -0.0129  0.1297 -0.1803
  238W        W43176  23.748   4.204  18.117  0.0962  0.2073 -0.0049
  239W        W43177  22.901   5.547  16.183 -0.1565  0.1321 -0.1288
  240W        W43178  21.091   5.797  18.209  0.2268 -0.1100  0.2156
  241W        W43179  24.271   3.818  17.153 -0.0481 -0.1360 -0.1612
  242W        W43180  25.028   5.444  16.288 -0.1494  0.0765  0.0124
  243W        W43181  24.317   5.613  20.079  0.1208  0.0215 -0.0738
  244W        W43182  24.327   6.787  16.306 -0.1849 -0.2945  0.0676
  245W        W43183  23.931   4.962  15.554  0.1834 -0.2042 -0.0139
  246W        W43184  25.358   4.320  16.744  0.1689 -0.0882  0.1127
  247W        W43185  22.254   5.566  20.543 -0.1448  0.1621  0.2399
  248W        W43186  23.527   7.294  17.056 -0.0999 -0.2299 -0.1718
  249W        W43187  23.392   5.479  19.436 -0.2072  0.2746 -0.2645
  250W        W43188  23.725   4.984  16.102  0.0942 -0.0552 -0.0882
  251W        W43189  25.954   6.267  16.398  0.0926  0.0920 -0.2983
  252W        W43190  20.395   6.325  19.019 -0.2396 -0.1601  0.0120
  253W        W43191  25.265   7.227  20.129  0.4095  0.1762  0.1208
  254W        W43192  24.365   5.976  17.055 -0.1060  0.1272 -0.1036
  255W        W43193  23.558   3.494  20.186 -0.0944 -0.0260  0.0291
  256W        W43194  23.437   5.622  15.916 -0.0222  0.0609 -0.0215
  257W        W43195  23.684   3.724  17.770  0.0470 -0.1655  0.2163
  258W        W43196  20.541   6.297  16.969 -0.1563  0.0643 -0.2557
  259W        W43197  25.424   4.845  18.543 -0.0019  0.2344 -0.0500
  260W        W43198  24.810   3.696  18.002 -0.1195 -0.1739  0.0314
  261W        W43199  21.967   3.249  19.255 -0.2469  0.1147 -0.1855
  262W        W43200  25.155   5.805  20.691 -0.0709  0.2849 -0.0559
  263W        W43201  24.578   5.281  16.249 -0.0995 -0.2158 -0.0169
  264W        W43202  24.311   5.232  19.683 -0.1530  0.0552  0.2527
  265W        W43203  23.680   4.206  15.921 -0.2987  0.2385 -0.1013
  266W        W43204  23.295   3.594  18.638  0.0182  0.2612 -0.2213
  267W        W43205  22.561   5.832  17.094 -0.1013  0.1313  0.1318
  268W        W43206  22.858   7.962  19.044  0.0544  0.1799  0.4640
  269W        W43207  23.429   6.562  20.722 -0.1664  0.0716 -0.3680
  270W        W43208  25.243   5.092  16.576 -0.0901 -0.1195 -0.0388
  271W        W43209  22.907   3.630  18.227  0.1349  0.1265  0.0001
  272W        W43210  24.619   3.832  17.538  0.0088 -0.2687  0.0587
  273W        W43211  23.105   7.081  16.777  0.0358 -0.2005  0.1026
  274W        W43212  22.989   6.608  16.452  0.0438 -0.2330 -0.0997
  275W        W43213  23.507   2.362  17.711 -0.1262 -0.2371  0.3108
  276W        W43214  22.672   7.545  19.311 -0.2226 -0.0959  0.2229
  277W        W43215  21.791   6.051  16.247 -0.1720 -0.1607  0.1019
  278W        W43216  23.544   7.053  20.695 -0.2609 -0.1306  0.0485
  279W        W43217  22.117   5.802  18.208 -0.1699 -0.1446  0.1812
  280W        W43218  24.992   4.040  18.406 -0.2455 -0.2846 -0.1061
  281W        W43219  23.468   7.497  18.051  0.1437  0.1887 -0.0606
  282W        W43220  22.746   5.014  16.071  0.2380  0.1734 -0.1652
  283W        W43221  22.261   5.186  15.958 -0.0762 -0.0212  0.0132
  284W        W43222  23.983   2.530  17.638 -0.0716 -0.1778  0.1844
  285W        W43223  25.149   5.929  16.533 -0.1854 -0.0118 -0.1596
  286W        W43224  23.093   4.406  17.662 -0.0769 -0.0142 -0.2396
  287W        W43225  24.096   4.150  17.666 -0.0008 -0.1018 -0.1460
  288W        W43226  20.904   6.642  16.987  0.2144 -0.3219 -0.3366
  289W        W43227  25.280   5.003  18.102 -0.1962  0.1742 -0.4362
  290W        W43228  25.683   4.540  17.206 -0.3424  0.0474  0.2988
  291W        W43229  24.920   6.293  18.663  0.0869  0.4145 -0.2113
  292W        W43230  23.062   5.810  19.368  0.2783 -0.1075  0.0299
  293W        W43231  20.775   5.176  16.974  0.3849 -0.0138 -0.3194
  294W        W43232  25.532   5.364  18.281  0.0414  0.0968 -0.0872
  295W        W43233  23.841   5.908  16.906 -0.1568  0.1736 -0.5178
  296W        W43234  22.376   6.077  17.844 -0.0952  0.2296  0.2848
  297W        W43235  23.115   6.854  18.602 -0.5207  0.3185  0.1754
  298W        W43236  22.088   6.483  16.070  0.0608  0.1754 -0.0242
  299W        W43237  22.299   6.286  17.044  0.0377  0.2103  0.0152
  300W        W43238  24.555   3.850  19.825 -0.0146 -0.3649 -0.3363
  301W        W43239  25.018   5.324  18.565  0.0344 -0.0949 -0.1387
  302W        W43240  23.225   5.298  17.538  0.1462  0.0218  0.0736
  303W        W43241  24.381   3.380  17.396 -0.1281  0.3583 -0.1283
  304W        W43242  24.998   4.904  17.324 -0.4589  0.2396  0.0293
  305W        W43243  24.760   6.287  19.612 -0.0902 -0.0651  0.0383
  306W        W43244  21.348   4.268  17.922 -0.1056 -0.3297 -0.0715
  307W        W43245  22.452   5.853  19.093  0.1376 -0.1605 -0.0198
  308W        W43246  22.915   4.119  18.341  0.0996 -0.0080 -0.2744
  309W        W43247  25.771   7.738  17.202  0.1138 -0.2422  0.1303
  310W        W43248  24.263   4.878  18.439  0.1069 -0.3146  0.2566
  311W        W43249  21.516   7.424  16.372  0.2499  0.2480 -0.2745
  312W        W43250  21.278   6.463  16.706 -0.4261 -0.0758 -0.1140
  313W        W43251  23.757   5.372  18.314  0.1781  0.3773  0.0316
  314W        W43252  23.794   3.941  17.250 -0.1210  0.1720  0.0711
  315W        W43253  22.417   6.108  18.650 -0.0270  0.0936 -0.3393
  316W        W43254  21.635   6.346  15.853 -0.1486 -0.0229 -0.0184
  317W        W43255  19.874   5.352  17.648  0.1366  0.1525  0.0142
  318W        W43256  26.196   4.613  17.240 -0.2286 -0.2006  0.1248
  319W        W43257  23.830   6.972  15.374  0.0981  0.1621 -0.0044
  320W        W43258  23.007   5.702  17.286 -0.0508 -0.0342 -0.0697
  321W        W43259  24.835   4.567  19.049 -0.0199  0.1861  0.2310
  322W        W43260  23.314   7.502  16.448  0.4575 -0.0156 -0.2071
  323W        W43261  24.507   2.472  18.759 -0.1796  0.3029 -0.2159
  324W        W43262  22.747   4.872  16.849  0.0264 -0.1762  0.0028
  325W        W43263  24.374   7.305  17.400  0.0437 -0.1447  0.4490
  326W        W43264  22.448   4.259  18.468 -0.1685 -0.1396 -0.2421
  327W        W43265  23.648   7.612  19.117 -0.1199  0.1296 -0.3404
  328W        W43266  21.650   4.228  19.743 -0.1912 -0.1148  0.4443
  329W        W43267  23.964   5.360  16.325  0.1124  0.2801  0.2351
  330W        W43268  23.750   3.737  15.815 -0.0483 -0.0335 -0.1718
  331W        W43269  22.485   5.443  19.387  0.0188  0.2628  0.0062
  332W        W43270  24.636   5.341  17.667 -0.0497  0.0502  0.3770
  333W        W43271  22.639   7.000  16.366  0.0235  0.1233 -0.0556
  334W        W43272  25.969   4.952  16.928  0.3318  0.0572  0.0062
  335W        W43273  23.890   6.196  18.840  0.1037  0.3440 -0.1556
  336W        W43274  25.028   4.656  16.891 -0.2320  0.2873 -0.2510
  337W        W43275  23.275   6.826  15.386 -0.1365  0.2770  0.2700
  338W        W43276  23.432   6.193  18.607  0.0397  0.0080  0.2629
  339W        W43277  23.759   2.520  19.408 -0.1649  0.1721 -0.0329
  340W        W43278  25.152   5.867  18.879 -0.3981  0.3119  0.0887
  341W        W43279  25.326   5.230  17.623 -0.0458  0.0778 -0.2110
  342W        W43280  23.759   5.705  18.675  0.0702  0.0059  0.0940
  343W        W43281  26.352   5.720  18.513  0.3700  0.3805  0.1511
  344W        W43282  22.888   4.146  20.407 -0.0679 -0.2761  0.1397
  345W        W43283  20.881   3.571  19.206  0.2337  0.0534 -0.4046
  346W        W43284  24.350   7.349  19.797  0.0761  0.1074 -0.0523
  347W        W43285  26.585   4.045  16.171 -0.0947 -0.1369 -0.3230
  348W        W43286  24.896   3.709  19.480  0.0872 -0.1056 -0.0851
  349W        W43287  25.046   5.762  15.885 -0.1296  0.0117  0.2999
  350W        W43288  24.153   5.231  17.570 -0.3814 -0.0550 -0.0372
  351W        W43289  24.000   4.666  17.711  0.1745  0.0478 -0.0251
  352W        W43290  23.686   4.513  19.308  0.0308 -0.1909 -0.0498
  353W        W43291  23.199   4.892  16.082  0.1364  0.1163 -0.1225
  354W        W43292  24.682   4.877  19.904 -0.0084 -0.1013 -0.1094
  355W        W43293  23.445   7.250  15.602 -0.0108 -0.0166 -0.0982
  356W        W43294  23.845   6.244  19.527  0.1067  0.0286  0.1484
  357W        W43295  23.090   5.192  17.037  0.3057  0.0354 -0.0778
  358W        W43296  22.707   4.126  17.705 -0.2584 -0.1416 -0.1583
  359W        W43297  21.903   5.548  17.859 -0.1150  0.1924  0.0645
  360W        W43298  22.789   4.612  16.374  0.2093 -0.1963  0.2404
  361W        W43299  23.584   6.738  15.763 -0.0874 -0.1145 -0.2476
  362W        W43300  23.742   5.992  18.246 -0.1090  0.0423  0.1349
  363W        W43301  24.545   6.670  18.633 -0.2824  0.1046  0.1160
  364W        W43302  25.806   3.850  16.078  0.0758 -0.0306 -0.0193
  365W        W43303  23.394   5.387  19.926  0.0787  0.2796 -0.0019
  366W        W43304  22.461   6.596  17.367  0.0755 -0.0464 -0.0424
  367W        W43305  24.415   3.599  19.266 -0.1207  0.1398 -0.1648
  368W        W43306  23.960   7.322  18.266 -0.1309 -0.2330 -0.0509
  369W        W43307  22.330   3.881  19.506 -0.2394 -0.0481 -0.1424
  370W        W43308  24.364   4.972  17.948  0.0374  0.1572  0.2711
  371W        W43309  24.628   2.674  18.266 -0.4871 -0.1197 -0.1689
  372W        W43310  24.632   4.405  18.405 -0.0287 -0.1139  0.3398
  373W        W43311  24.189   5.559  17.944  0.0680 -0.0832  0.0026
  374W        W43312  24.315   5.312  19.174  0.0523  0.1362 -0.1125
  375W        W43313  22.862   4.532  19.568 -0.2572  0.0024 -0.1710
  376W        W43314  21.999   5.008  18.641  0.0914  0.2168 -0.0372
  377W        W43315  23.464   5.887  20.354 -0.2860  0.1715  0.1668
  378W        W43316  25.966   5.452  18.853 -0.0354  0.1046 -0.2321
  379W        W43317  22.787   6.834  18.223  0.0700 -0.0182 -0.2857
  380W        W43318  21.519   3.644  19.935  0.2004 -0.3711  0.0752
  381W        W43319  22.028   4.007  19.894 -0.0517  0.1681 -0.0315
  382W        W43320  23.402   6.642  17.608  0.0640 -0.3262 -0.0879
  383W        W43321  24.162   4.552  16.739  0.1343 -0.0544 -0.2581
  384W        W43322  22.416   6.912  15.932  0.0889  0.0989 -0.3394
  385W        W43323  23.175   4.783  19.231 -0.3335  0.0443  0.1562
  386W        W43324  19.987   5.411  18.099 -0.4449 -0.1051  0.0990
  387W        W43325  21.060   7.467  16.551  0.0158 -0.2070  0.2362
  388W        W43326  23.105   6.631  17.125 -0.0973  0.0266 -0.1934
  389W        W43327  23.957   6.511  16.100  0.0942  0.1243 -0.1127
  390W        W43328  24.309   6.059  19.396 -0.0588  0.1098 -0.0679
  391W        W43329  22.886   4.964  17.376 -0.1163  0.1912 -0.0774
  392W        W43330  23.376   5.942  17.895  0.4500 -0.0027  0.2114
  393W        W43331  21.617   6.491  16.344 -0.0289 -0.2733  0.0483
  394W        W43332  23.823   7.794  16.319 -0.0125 -0.0469  0.0335
  395W        W43333  22.578   7.301  18.159  0.1485 -0.0306 -0.0587
  396W        W43334  24.998   6.721  20.458  0.2845 -0.0811  0.1034
  397W        W43335  23.802   4.897  16.609 -0.0893 -0.1364 -0.3779
  398W        W43336  25.010   6.429  16.768 -0.0756 -0.1172 -0.0498
  399W        W43337  26.037   5.427  17.602 -0.0156  0.1108 -0.0119
  400W        W43338  24.143   6.388  21.327 -0.1666  0.1808  0.2155
  401W        W43339  23.434   4.482  18.881 -0.1013  0.1443  0.1310
  402W        W43340  22.411   5.535  17.907  0.0276  0.1879  0.3503
  403W        W43341  22.132   5.672  18.661  0.3877  0.2847 -0.2080
  404W        W43342  25.148   4.432  18.645  0.2415 -0.3436 -0.0117
  405W        W43343  23.066   6.985  21.507  0.0638  0.1069  0.2500
  406W        W43344  24.621   7.300  16.366 -0.0458  0.1268  0.1547
  407W        W43345  23.200   4.809  16.571 -0.1812 -0.0652 -0.0280
  408W        W43346  24.293   5.101  16.632 -0.0419 -0.3050 -0.0009
  409W        W43347  24.806   4.860  17.792  0.0651  0.0652  0.0122
  410W        W43348  22.975   5.940  15.902  0.3394 -0.0252 -0.3891
  411W        W43349  23.270   5.783  18.374 -0.0594  0.1701 -0.2203
  412W        W43350  23.681   7.738  17.697 -0.1225 -0.4338  0.0007
  413W        W43351  21.222   5.487  18.558 -0.0742  0.1856  0.0074
  414W        W43352  21.578   7.907  18.607  0.3585  0.2399 -0.1895
  415W        W43353  23.235   4.410  16.237 -0.2911  0.2909 -0.3050
  416W        W43354  26.496   5.051  16.659  0.0659  0.0910 -0.0406
  417W        W43355  22.585   4.861  19.192 -0.1666 -0.1956 -0.1241
  418W        W43356  25.081   4.032  19.050  0.0082  0.0427  0.1948
  419W        W43357  22.269   6.857  18.283  0.2202  0.0411  0.1728
  420W        W43358  25.086   5.018  16.005 -0.3045  0.0510 -0.0859
  421W        W43359  23.436   4.052  20.038 -0.0820  0.3706  0.2563
  422W        W43360  21.518   5.081  18.363  0.0895 -0.2264  0.5151
  423W        W43361  23.550   6.131  16.084  0.1202 -0.1305 -0.3133
  424W        W43362  24.515   5.652  19.578  0.0442 -0.0787 -0.0436
  425W        W43363  23.127   3.932  16.347 -0.0533  0.1790  0.0621
  426W        W43364  24.459   6.828  20.539  0.3343 -0.1430  0.1119
  427W        W43365  22.379   4.791  17.177  0.0873  0.0984 -0.0238
  428W        W43366  24.529   3.881  16.575 -0.1161 -0.1551  0.1686
  429W        W43367  21.882   6.320  17.942 -0.2967 -0.3970  0.0339
  430W        W43368  22.809   5.145  17.848  0.4669 -0.1055 -0.1272
  431W        W43369  24.335   6.910  20.047 -0.0901 -0.0581 -0.2226
  432W        W43370  23.351   3.708  17.302 -0.3440  0.4240  0.4327
  433W        W43371  26.389   6.371  16.229 -0.2611 -0.0750  0.3169
  434W        W43372  26.255   4.949  18.119 -0.1264  0.0339  0.0430
  435W        W43373  22.302   7.093  17.223 -0.3268 -0.1072 -0.0093
  436W        W43374  25.831   5.067  17.923 -0.1039  0.1713 -0.0352
  437W        W43375  24.210   5.830  18.408 -0.3013  0.1939 -0.0076
  438W        W43376  23.562   4.222  17.639  0.2378 -0.2441  0.2343
  439W        W43377  24.852   7.057  19.910  0.0845  0.1209 -0.1327
  440W        W43378  24.295   6.468  17.520  0.3899 -0.3314  0.1437
  441W        W43379  24.610   4.209  16.944  0.2795  0.3142 -0.0882
  442W        W43380  22.629   5.434  17.452 -0.0159 -0.2224 -0.0310
  443W        W43381  23.718   6.228  17.744 -0.0176  0.0384 -0.0743
  444W        W43382  24.574   4.958  18.880 -0.0948 -0.1490  0.1058
  445W        W43383  23.972   4.721  18.937  0.1483 -0.1175 -0.3080
  446W        W43384  23.047   7.262  17.875 -0.1249  0.2011 -0.2153
  447W        W43385  24.468   3.242  18.823 -0.2668 -0.0078  0.1097
  448W        W43386  24.473   6.852  19.607  0.1781  0.2241 -0.1836
  449W        W43387  23.244   5.515  22.177  0.2908 -0.1954  0.1077
  450W        W43388  22.492   5.584  16.406  0.2431  0.1091  0.1621
  451W        W43389  22.834   5.067  18.760  0.0597  0.2632  0.1086
  452W        W43390  24.947   6.046  17.118 -0.0100  0.0902 -0.3674
  453W        W43391  22.565   6.474  16.230 -0.0521  0.0485  0.2900
  454W        W43392  23.983   6.418  17.029 -0.3980 -0.1101 -0.1993
  455W        W43393  24.212   4.481  18.084 -0.2910  0.0005 -0.2656
  456W        W43394  24.777   4.992  16.580 -0.0877 -0.0960 -0.0575
  457W        W43395  23.968   3.897  16.785 -0.0523  0.0114  0.1952
  458W        W43396  25.486   4.719  17.679  0.1088 -0.0688  0.0068
  459W        W43397  25.522   3.484  17.062  0.0922  0.0606  0.0525
  460W        W43398  22.543   4.938  18.241  0.3461 -0.2760 -0.5782
  461W        W43399  21.645   5.286  16.768  0.2261 -0.3686  0.1161
  462W        W43400  23.073   5.650  16.739 -0.0579 -0.2385 -0.1164
  463W        W43401  22.079   6.061  15.762  0.1677  0.1698  0.0405
  464W        W43402  22.513   3.158  19.543  0.2163  0.1426 -0.2394
  465W        W43403  23.289   5.795  18.869 -0.0923  0.1083  0.0524
  466W        W43404  22.062   6.293  17.468  0.1100 -0.1504 -0.0648
  467W        W43405  22.826   5.199  16.506  0.0239  0.1696  0.2162
  468W        W43406  25.272   5.529  16.790 -0.3655 -0.1864 -0.2238
  469W        W43407  22.933   5.649  17.856 -0.2958  0.1548 -0.0355
  470W        W43408  23.752   3.848  16.326 -0.1845  0.1183  0.1416
  471W        W43409  25.743   5.819  16.638 -0.2881 -0.0834  0.0456
  472W        W43410  25.596   7.919  17.606 -0.0878 -0.0414 -0.1783
  473W        W43411  24.055   4.441  17.275  0.0688 -0.2277 -0.0256
  474W        W43412  24.622   6.506  19.137 -0.0546 -0.1099  0.3850
  475W        W43413  21.500   6.263  15.391 -0.0226  0.3145 -0.0681
  476W        W43414  23.461   3.241  18.955  0.2989  0.3052 -0.0183
  477W        W43415  23.182   4.081  20.880  0.1993  0.1478  0.1803
  478W        W43416  21.857   5.123  16.319  0.0020 -0.0301  0.1131
  479W        W43417  24.560   4.696  16.985  0.1928 -0.0277 -0.1107
  480W        W43418  23.730   5.611  17.644  0.0824 -0.1119 -0.3895
  481W        W43419  23.930   6.754  16.601  0.0923  0.3800  0.1233
  482W        W43420  22.182   5.084  19.384  0.1351  0.0337 -0.0905
  483W        W43421  22.938   6.189  18.446 -0.2476 -0.1086 -0.1903
  484W        W43422  20.745   4.070  18.854 -0.0181 -0.0211  0.0194
  485W        W43423  24.363   6.562  16.741 -0.0138 -0.0714 -0.1176
  486W        W43424  23.317   6.101  20.779  0.0145  0.0275  0.0148
  487W        W43425  24.706   5.578  16.739  0.2994 -0.0626  0.3958
  488W        W43426  25.115   4.037  17.806 -0.0989  0.0848  0.3510
  489W        W43427  23.576   5.124  17.225 -0.0812 -0.2179  0.0222
  490W        W43428  22.272   4.274  17.448 -0.1369 -0.2785 -0.1864
  491W        W43429  22.382   5.247  18.925 -0.2330 -0.0129 -0.2190
  492W        W43430  25.416   5.580  17.336  0.2417  0.2465 -0.1747
  493W        W43431  24.550   3.151  16.817 -0.0701  0.1548 -0.0101
  494W        W43432  24.582   4.504  16.489 -0.0644 -0.0639 -0.3722
  495W        W43433  24.191   7.062  17.865  0.0536  0.0989  0.2595
  496W        W43434  21.976   5.433  17.193 -0.2200 -0.1368  0.1581
  497W        W43435  23.921   6.254  16.539 -0.1439 -0.1489 -0.2471
  498W        W43436  23.289   3.772  19.625  0.0889 -0.2467  0.2478
  499W        W43437  23.495   5.669  17.148 -0.0290  0.0003  0.0407
  500W        W43438  24.016   4.960  19.428 -0.1497  0.0347  0.1729
  501W        W43439  22.921   6.828  15.774 -0.0035 -0.0606  0.3640
  502W        W43440  25.469   5.803  16.152  0.0532  0.1314 -0.2363
  503W        W43441  24.220   6.921  18.320 -0.0087  0.0769 -0.1438
  504W        W43442  24.448   7.224  18.876 -0.0626  0.1733 -0.0617
  505W        W43443  23.372   6.415  19.708 -0.1549  0.0803 -0.3249
  506W        W43444  24.545   4.824  19.403 -0.1658 -0.1737  0.1125
  507W        W43445  22.311   4.177  19.058  0.1308  0.0714  0.2345
  508W        W43446  22.866   5.995  16.415  0.1065 -0.0627 -0.1309
  509W        W43447  24.043   5.959  16.042  0.0946 -0.3692  0.1416
  510W        W43448  24.374   4.812  17.469 -0.1766 -0.0067  0.0395
  511W        W43449  23.865   4.511  18.496 -0.1879 -0.0661 -0.2633
  512W        W43450  25.573   4.820  16.244 -0.0633 -0.2076  0.1303
  513W        W43451  23.135   7.580  18.790  0.0636  0.0222  0.0455
  514W        W43452  22.564   5.016  19.673 -0.5648 -0.3254 -0.5124
  515W        W43453  22.918   5.996  22.846 -0.1871  0.1299 -0.0509
  516W        W43454  23.568   4.439  21.340  0.1320  0.0147  0.1799
  517W        W43455  25.843   5.830  19.703 -0.2213  0.3112  0.3233
  518W        W43456  24.415   5.906  20.506 -0.0189  0.1063  0.0562
  519W        W43457  22.577   5.193  21.482 -0.3642  0.0067  0.1257
  520W        W43458  24.953   6.248  20.786  0.3313 -0.2906  0.0369
  521W        W43459  22.486   4.959  22.033  0.2078 -0.4071 -0.2143
  522W        W43460  24.354   7.275  21.506 -0.0014 -0.3023  0.2117
  523W        W43461  25.211   6.978  22.739  0.2108 -0.1092  0.2094
  524W        W43462  23.665   3.968  18.669  0.0378  0.2908 -0.2074
  525W        W43463  23.782   3.989  23.174  0.2949 -0.0688  0.0455
  526W        W43464  23.195   7.152  23.597  0.1086 -0.1970 -0.1611
  527W        W43465  22.373   4.510  19.467  0.2336  0.1913 -0.1203
  528W        W43466  21.908   4.392  21.362  0.2142  0.0295 -0.4294
  529W        W43467  25.270   5.523  21.335  0.0740 -0.0785 -0.2957
  530W        W43468  23.434   4.159  22.087  0.3256 -0.0294 -0.0636
  531W        W43469  22.663   4.589  23.264  0.3649 -0.0987 -0.0688
  532W        W43470  23.997   4.635  21.612 -0.5334 -0.1347  0.0932
  533W        W43471  23.828   8.188  19.850 -0.0061  0.4318 -0.1043
  534W        W43472  23.118   2.981  23.962  0.2179 -0.2457 -0.0248
  535W        W43473  23.882   1.678  22.927  0.0931  0.2116 -0.0465
  536W        W43474  22.585   5.178  22.705  0.1076  0.1012 -0.1979
  537W        W43475  22.029   5.216  18.194  0.1296  0.4401 -0.0068
  538W        W43476  21.824   3.853  22.691 -0.3359  0.0490 -0.0510
  539W        W43477  22.978   4.808  22.845 -0.2452 -0.1657  0.1486
  540W        W43478  25.129   3.617  21.075  0.1350 -0.1490  0.2143
  541W        W43479  24.817   5.465  20.590  0.1950  0.1899  0.1752
  542W        W43480  23.924   6.694  20.789 -0.3365 -0.1272  0.0521
  543W        W43481  24.205   6.657  21.740 -0.0607  0.1154  0.0744
  544W        W43482  23.817   4.686  23.020  0.2178 -0.0904 -0.0141
  545W        W43483  21.150   4.951  21.876 -0.2783  0.0630 -0.1643
  546W        W43484  21.587   6.356  21.166  0.3268  0.0180 -0.1097
  547W        W43485  23.632   5.715  21.389  0.0079 -0.1012  0.1663
  548W        W43486  24.580   7.780  21.476  0.1594 -0.0980  0.3030
  549W        W43487  25.013   6.615  23.490  0.4039 -0.0103  0.0577
  550W        W43488  23.230   7.327  24.088 -0.0724  0.1292 -0.4071
  551W        W43489  22.867   5.685  21.812 -0.1710  0.0129 -0.0168
  552W        W43490  25.086   6.199  23.781  0.0719  0.3393 -0.2462
  553W        W43491  22.632   7.380  24.222  0.4707  0.0327  0.1339
  554W        W43492  24.625   6.508  21.911 -0.2085  0.3193  0.1623
  555W        W43493  23.547   3.982  21.222 -0.0754 -0.0941 -0.1057
  556W        W43494  22.768   5.101  20.151 -0.0690 -0.1096  0.1298
  557W        W43495  23.817   6.156  20.588 -0.0810 -0.2945 -0.0946
  558W        W43496  21.764   7.876  24.422 -0.1712  0.3321  0.2455
  559W        W43497  22.158   5.280  22.361  0.1094  0.1148 -0.2588
  560W        W43498  25.450   3.861  23.800 -0.2076 -0.1224  0.2243
  561W        W43499  23.120   6.298  21.316 -0.1234 -0.0363  0.2137
  562W        W43500  25.470   5.280  18.872  0.0585  0.0092  0.1515
  563W        W43501  23.264   4.505  21.772 -0.1646  0.1180 -0.2340
  564W        W43502  24.719   3.770  21.618  0.0225 -0.0208  0.0244
  565W        W43503  23.225   2.805  21.638  0.1021 -0.1269  0.0408
  566W        W43504  23.307   6.014  21.754 -0.1623  0.2061  0.0263
  567W        W43505  22.328   3.832  21.220 -0.1212  0.3265 -0.3111
  568W        W43506  24.143   6.804  22.303 -0.0543 -0.2053 -0.0033
  569W        W43507  23.678   4.423  20.290  0.1958  0.0209 -0.1328
  570W        W43508  23.729   4.587  22.109 -0.1374  0.0786  0.2391
  571W        W43509  23.693   5.977  22.280 -0.0755 -0.1277 -0.1484
  572W        W43510  21.426   4.524  22.255 -0.1879 -0.1868 -0.0391
  573W        W43511  23.850   5.113  20.122 -0.1715 -0.2200  0.1379
  574W        W43512  23.927   7.602  22.330 -0.0966  0.2655  0.0183
  575W        W43513  25.154   5.330  22.027 -0.2595  0.1137  0.1415
  576W        W43514  23.179   4.038  21.576 -0.0950  0.1773  0.1083
  577W        W43515  21.264   5.196  22.979 -0.0543  0.1806 -0.1544
  578W        W43516  22.256   5.309  23.799  0.1881 -0.0956  0.2276
  579W        W43517  21.785   3.704  19.515  0.0817  0.5060  0.1891
  580W        W43518  24.980   5.694  22.855  0.0793 -0.1088 -0.2480
  581W        W43519  21.027   8.267  23.501 -0.1273  0.0524  0.2635
  582W        W43520  24.507   4.443  19.788 -0.0585  0.0058 -0.1729
  583W        W43521  21.755   5.757  21.064 -0.2264  0.3901 -0.1511
  584W        W43522  26.770   6.332  21.109 -0.0363  0.0183  0.3843
  585W        W43523  22.974   5.505  20.279 -0.1751  0.2421  0.1657
  586W        W43524  24.148   3.553  21.093  0.0522 -0.0939  0.1481
  587W        W43525  25.405   4.310  22.361  0.1186 -0.0448  0.0724
  588W        W43526  22.725   5.602  20.729  0.0591  0.3358 -0.1787
  589W        W43527  22.716   4.360  20.813  0.0601  0.2335  0.0860
  590W        W43528  26.746   6.158  21.713 -0.2352  0.1736  0.0614
  591W        W43529  24.690   6.545  20.090  0.0632 -0.1703  0.0721
  592W        W43530  22.667   6.762  21.964 -0.1895 -0.5812  0.1031
  593W        W43531  23.984   3.793  24.241 -0.1197 -0.1740 -0.2487
  594W        W43532  23.896   6.328  24.532  0.0355 -0.2465  0.1567
  595W        W43533  22.960   6.679  19.996 -0.2731 -0.0596 -0.1135
  596W        W43534  21.828   5.493  21.614 -0.1512 -0.0689  0.4595
  597W        W43535  21.650   5.246  18.831 -0.0372  0.0297 -0.1097
  598W        W43536  22.331   2.614  22.519 -0.2713  0.0160  0.4460
  599W        W43537  23.755   6.355  21.666 -0.0427 -0.2787  0.0572
  600W        W43538  25.629   5.686  20.811 -0.1005 -0.3129 -0.1170
  601W        W43539  23.736   3.781  22.048  0.1204 -0.0363 -0.1339
  602W        W43540  23.948   5.241  20.785 -0.3329 -0.2486 -0.1119
  603W        W43541  22.275   4.428  21.972 -0.1311 -0.0305  0.2223
  604W        W43542  24.754   7.625  22.059 -0.1568  0.0046  0.1204
  605W        W43543  24.341   5.204  20.336 -0.0582  0.2665  0.0550
  606W        W43544  26.229   7.562  20.003  0.0585  0.2795  0.3846
  607W        W43545  23.390   5.418  23.299 -0.1722  0.1761 -0.1343
  608W        W43546  20.810   4.661  22.212  0.0347 -0.1020  0.0616
  609W        W43547  22.089   3.477  23.631  0.2346 -0.2223  0.1018
  610W        W43548  22.306   3.361  22.104 -0.0839 -0.1466  0.0281
  611W        W43549  25.640   5.960  22.549 -0.1343  0.1382 -0.0733
  612W        W43550  20.755   4.133  20.292  0.2585 -0.1351  0.0316
  613W        W43551  25.706   4.418  20.899  0.0385 -0.0803 -0.1342
  614W        W43552  23.550   4.892  21.653  0.0660  0.1784 -0.1115
  615W        W43553  22.376   4.620  20.000 -0.3230 -0.1805 -0.1779
  616W        W43554  24.516   5.490  23.079 -0.2585  0.2376  0.0823
  617W        W43555  24.337   6.828  21.150  0.1654  0.1499 -0.1464
  618W        W43556  24.437   6.411  22.506 -0.0810  0.1364  0.4049
  619W        W43557  24.691   6.847  21.496  0.2420  0.2038  0.1525
  620W        W43558  22.390   4.764  22.575 -0.0564  0.0763 -0.3905
  621W        W43559  23.062   3.565  20.920  0.0090 -0.0246  0.1217
  622W        W43560  20.363   7.456  22.393 -0.0553  0.0358 -0.1766
  623W        W43561  24.464   7.049  21.929 -0.2530 -0.1112  0.0661
  624W        W43562  23.974   3.177  22.699 -0.2124  0.0654  0.1482
  625W        W43563  23.452   6.394  22.207 -0.2428  0.2070  0.0378
  626W        W43564  24.361   5.685  21.936  0.1535 -0.0850  0.1826
  627W        W43565  23.557   7.067  23.877  0.1913 -0.3811  0.3203
  628W        W43566  23.542   3.329  22.413  0.1837 -0.2300 -0.0233
  629W        W43567  26.120   5.514  22.967 -0.1930  0.3947  0.0337
  630W        W43568  25.111   4.552  20.181  0.2790 -0.0660  0.1462
  631W        W43569  21.959   3.706  19.038  0.1799 -0.1570  0.1963
  632W        W43570  24.186   8.468  20.430 -0.5729  0.1762  0.1338
  633W        W43571  22.142   6.884  23.585 -0.1115  0.0972 -0.1308
  634W        W43572  21.287   3.806  20.408 -0.0006 -0.0781 -0.1628
  635W        W43573  23.560   4.961  19.698  0.0742  0.0930 -0.1439
  636W        W43574  23.688   5.797  20.889 -0.0401  0.0123  0.1100
  637W        W43575  21.336   5.684  22.766  0.0063 -0.4111  0.0107
  638W        W43576  23.856   3.828  23.706 -0.0181 -0.0686 -0.3307
  639W        W43577  22.137   3.528  20.690  0.0769 -0.2352 -0.4328
  640W        W43578  23.759   6.766  24.284 -0.2610 -0.0610  0.3324
  641W        W43579  24.501   3.333  20.679  0.1753  0.1467 -0.1952
  642W        W43580  26.022   5.352  20.767  0.1760  0.1651  0.0341
  643W        W43581  22.340   6.243  23.844  0.3003  0.0158 -0.1814
  644W        W43582  25.514   7.056  19.669 -0.2419 -0.2528  0.2188
  645W        W43583  23.627   2.402  18.204  0.0760 -0.0800 -0.2288
  646W        W43584  22.461   4.718  18.734  0.2327 -0.1579 -0.3669
  647W        W43585  21.651   6.839  24.270  0.3713  0.1326 -0.1211
  648W        W43586  24.418   4.437  21.283 -0.0856  0.0730  0.0610
  649W        W43587  24.865   5.678  21.896  0.1809 -0.0092  0.0757
  650W        W43588  23.382   4.538  19.859 -0.0072 -0.1465  0.2488
  651W        W43589  25.531   6.776  20.242 -0.1185  0.0032 -0.0476
  652W        W43590  21.556   5.361  22.076  0.0732 -0.2152 -0.1000
  653W        W43591  23.671   8.924  22.517 -0.0593 -0.1387  0.0334
  654W        W43592  26.264   6.836  21.259  0.2355 -0.2143  0.2791
  655W        W43593  23.116   1.624  22.394 -0.2882 -0.0712 -0.1839
  656W        W43594  23.069   4.952  19.706 -0.1796 -0.0998  0.0241
  657W        W43595  25.186   4.232  21.913  0.0580  0.1479  0.4434
  658W        W43596  22.128   6.013  20.160 -0.0117  0.0501  0.2083
  659W        W43597  24.923   4.282  22.349 -0.0236 -0.2468 -0.2797
  660W        W43598  24.203   4.130  23.578 -0.2930  0.2445 -0.0880
  661W        W43599  23.498   5.095  22.884 -0.0175 -0.2838  0.2085
  662W        W43600  23.786   5.824  23.364  0.0244 -0.1618 -0.1564
  663W        W43601  24.397   5.494  20.858 -0.3037  0.3052 -0.1150
  664W        W43602  23.731   5.749  21.842  0.0867  0.3219  0.0435
  665W        W43603  22.954   4.585  20.145  0.0662 -0.2358 -0.2989
  666W        W43604  24.324   4.515  23.199 -0.1641  0.3197  0.0976
  667W        W43605  21.811   4.580  23.819  0.0665  0.0204  0.4241
  668W        W43606  21.204   7.424  22.929 -0.0426  0.0769 -0.0571
  669W        W43607  23.241   6.801  22.860 -0.1560  0.3203 -0.3157
  670W        W43608  24.531   5.323  21.471  0.2943 -0.3520 -0.2279
  671W        W43609  25.079   4.494  23.558 -0.1450  0.0498 -0.0270
  672W        W43610  23.556   3.123  19.500  0.2361 -0.3284  0.0206
  673W        W43611  23.187   7.038  21.018 -0.1470 -0.2934 -0.0901
  674W        W43612  23.001   4.887  21.499 -0.0562 -0.0457  0.2690
  675W        W43613  21.237   3.246  22.564 -0.1083  0.0337  0.3260
  676W        W43614  22.749   6.850  22.560  0.2382  0.2576 -0.0246
  677W        W43615  23.689   5.832  19.176  0.2479  0.2567 -0.0523
  678W        W43616  23.944   6.357  22.116  0.0629 -0.0118  0.0667
  679W        W43617  22.036   6.115  22.409  0.0472  0.0642 -0.0715
  680W        W43618  23.799   3.282  21.962  0.0381  0.4011  0.1723
  681W        W43619  21.062   6.024  22.505 -0.0431 -0.0695  0.0115
  682W        W43620  21.117   4.887  19.404  0.0889  0.0800  0.0073
  683W        W43621  22.750   4.779  21.085  0.0401  0.0074 -0.1295
  684W        W43622  24.755   3.451  22.254  0.3640 -0.1299 -0.5241
  685W        W43623  26.145   5.910  20.945  0.2723 -0.1186  0.3232
  686W        W43624  20.879   4.568  19.929 -0.1802 -0.0905 -0.3430
  687W        W43625  22.598   2.234  22.704 -0.0510 -0.2907  0.2583
  688W        W43626  22.855   7.694  22.325 -0.0195  0.1899 -0.3493
  689W        W43627  22.369   5.773  24.014  0.1191 -0.1317 -0.0167
  690W        W43628  25.488   4.666  19.826 -0.1631 -0.0409 -0.1779
  691W        W43629  24.874   4.591  21.183 -0.2362 -0.0922  0.2627
  692W        W43630  23.131   4.416  23.965 -0.0782  0.2432 -0.1008
  693W        W43631  21.940   4.718  19.606  0.2036  0.3390  0.0309
  694W        W43632  26.317   4.880  22.134 -0.0950  0.0359 -0.0614
  695W        W43633  21.977   3.793  21.629 -0.0649  0.3053  0.3276
  696W        W43634  22.622   5.978  23.376 -0.2853  0.0798  0.1166
  697W        W43635  23.452   6.722  21.241  0.0948 -0.0150  0.1256
  698W        W43636  22.516   5.974  20.500 -0.0315 -0.1512  0.2087
  699W        W43637  22.205   6.403  21.332 -0.1953  0.0606 -0.2105
  700W        W43638  22.781   4.592  22.223 -0.1053 -0.1658 -0.0507
  701W        W43639  23.865   6.933  23.007 -0.2922  0.0064 -0.2367
  702W        W43640  22.370   4.548  21.331  0.3295  0.2390  0.2372
  703W        W43641  22.996   2.277  19.727  0.0469  0.1778 -0.0791
  704W        W43642  24.518   4.856  21.571 -0.0498 -0.1041 -0.0266
  705W        W43643  24.798   5.029  20.897 -0.0283  0.2876  0.1719
  706W        W43644  22.162   6.530  22.642 -0.1028 -0.0439 -0.1276
  707W        W43645  21.807   5.548  23.598  0.0220 -0.4298 -0.1753
  708W        W43646  21.986   3.270  21.778  0.0296 -0.2886  0.2348
  709W        W43647  24.418   8.122  21.079 -0.2062  0.0484 -0.0959
  710W        W43648  22.928   5.366  23.059  0.2091 -0.2567  0.1465
  711W        W43649  22.993   5.293  21.094 -0.0808 -0.1375 -0.0240
  712W        W43650  20.993   5.701  23.091  0.1169 -0.0035 -0.2702
  713W        W43651  23.876   4.703  21.063 -0.4096 -0.3830  0.0859
  714W        W43652  23.228   2.155  22.450  0.2440  0.1101 -0.0319
  715W        W43653  24.140   5.905  22.986 -0.2771 -0.0284 -0.0160
  716W        W43654  22.612   6.230  21.534  0.0636 -0.0634  0.1979
  717W        W43655  21.981   5.741  22.074  0.0785  0.0549  0.2106
  718W        W43656  25.003   5.020  19.254 -0.0613  0.2158  0.2754
  719W        W43657  23.755   6.663  20.336 -0.2500 -0.0803 -0.1166
  720W        W43658  23.890   4.627  19.822  0.1476  0.1835  0.1270
  721W        W43659  25.046   3.631  24.147 -0.1835 -0.2922 -0.1483
  722W        W43660  24.028   5.654  19.544 -0.1802  0.0282  0.1335
  723W        W43661  24.541   2.505  23.150  0.0844 -0.2344 -0.4011
  724W        W43662  22.639   3.798  22.832  0.3399 -0.0511 -0.3784
  725W        W43663  25.394   8.546  19.357 -0.0350 -0.4135  0.3511
  726W        W43664  21.926   5.109  23.347  0.1830 -0.2228 -0.0087
  727W        W43665  23.936   5.427  23.050  0.0334 -0.0558  0.4682
  728W        W43666  21.512   5.849  24.376 -0.2185 -0.0021  0.1506
  729W        W43667  23.350   4.903  20.201  0.3754  0.3272  0.0054
  730W        W43668  22.326   4.151  20.384  0.0870 -0.0789  0.1688
  731W        W43669  23.288   6.609  21.721  0.0689 -0.1692  0.0569
  732W        W43670  25.326   5.206  22.545 -0.2299  0.3573 -0.2424
  733W        W43671  23.993   5.665  20.496 -0.2920  0.0463  0.1161
  734W        W43672  25.885   6.368  21.152 -0.1560 -0.1135  0.2870
  735W        W43673  22.442   5.794  22.457  0.1575 -0.0902  0.2767
  736W        W43674  25.049   6.268  19.186 -0.0885  0.4346  0.3033
  737W        W43675  23.788   5.672  19.999  0.1289 -0.1796 -0.0755
  738W        W43676  24.641   6.344  21.374 -0.0462  0.0996  0.2169
  739W        W43677  22.534   3.409  23.242 -0.1613  0.0012  0.0460
  740W        W43678  25.230   4.101  20.994 -0.2407 -0.1808 -0.1870
  741W        W43679  22.907   3.272  20.544  0.0279 -0.0026  0.0103
  742W        W43680  23.817   5.007  22.526 -0.0908 -0.1009 -0.0454
  743W        W43681  24.260   4.858  22.186 -0.1304 -0.1783  0.3047
  744W        W43682  21.979   5.701  22.657  0.1500  0.1661  0.0770
  745W        W43683  21.540   4.027  21.917  0.0944  0.1647  0.4715
  746W        W43684  24.938   6.596  22.936  0.0617  0.1322  0.3468
  747W        W43685  25.517   6.465  19.378 -0.2747  0.0477 -0.1009
  748W        W43686  24.503   4.456  22.400  0.2074 -0.1569 -0.1354
  749W        W43687  25.786   6.140  20.697 -0.1712 -0.1329 -0.0619
  750W        W43688  23.708   6.217  20.013 -0.1317  0.1642  0.1803
  751W        W43689  21.527   5.994  22.395 -0.0352 -0.1615 -0.3602
  752W        W43690  23.101   5.236  22.594 -0.1339  0.1117  0.0335
  753W        W43691  23.397   3.143  18.435  0.2728 -0.0618 -0.1975
  754W        W43692  23.975   4.222  21.198  0.1801 -0.2453  0.3042
  755W        W43693  24.365   6.418  20.794 -0.1759 -0.0255 -0.0012
  756W        W43694  25.161   4.665  21.704  0.0400 -0.0979 -0.1764
  757W        W43695  25.075   4.491  18.067 -0.0551 -0.0022 -0.0925
  758W        W43696  21.311   3.736  22.663 -0.1510  0.0424 -0.0354
  759W        W43697  23.940   7.406  24.374  0.0926 -0.1548  0.1987
  760W        W43698  22.428   3.540  19.223  0.3889  0.0279  0.0585
  761W        W43699  24.137   5.349  18.663  0.0179 -0.0914 -0.1954
  762W        W43700  23.710   6.435  23.160  0.1966 -0.0688 -0.0175
  763W        W43701  25.383   5.772  23.267 -0.2419 -0.0934  0.0147
  764W        W43702  23.000   3.624  20.153 -0.3193  0.0924 -0.6092
  765W        W43703  25.000   2.922  22.910 -0.3168 -0.2351  0.2819
  766W        W43704  21.189   5.893  21.024  0.1710 -0.0932 -0.0586
  767W        W43705  23.093   2.075  20.883 -0.2438  0.2167 -0.0121
  768W        W43706  22.756   7.236  22.150 -0.0783  0.1363  0.1777
  769W        W43707  21.321   7.197  24.471 -0.0947  0.0501 -0.1176
  770W        W43708  22.655   6.790  20.651 -0.0206  0.5010 -0.1656
  771W        W43709  24.137   4.068  22.303  0.5011  0.2813  0.0403
  772W        W43710  25.165   6.131  22.654  0.1585 -0.1643 -0.6962
  773W        W43711  21.635   5.239  22.546  0.1183 -0.0698 -0.1175
  774W        W43712  23.833   5.468  22.300 -0.0880  0.1494  0.0206
  775W        W43713  23.494   6.148  22.712  0.1273  0.1350 -0.0735
  776W        W43714  22.418   4.241  22.415  0.1955  0.0213  0.1565
  777W        W43715  25.290   7.992  22.787 -0.0979 -0.0560 -0.2151
  778W        W43716  25.971   6.782  19.893  0.0204 -0.1490 -0.0631
  779W        W43717  23.032   6.392  22.550 -0.1682 -0.1305 -0.0500
  780W        W43718  22.714   4.299  22.865 -0.0668  0.3269 -0.2100
  781W        W43719  23.352   6.566  24.586  0.1092 -0.0530 -0.2706
  782W        W43720  24.145   6.067  21.759  0.1416 -0.2412 -0.3694
  783W        W43721  22.659   3.861  20.818  0.0268 -0.0468 -0.0036
  784W        W43722  23.243   4.812  21.049  0.0711 -0.0071 -0.2098
  785W        W43723  22.370   6.394  24.787 -0.0305 -0.2082 -0.4735
  786W        W43724  21.404   4.442  21.607 -0.0090 -0.1475 -0.1491
  787W        W43725  22.877   6.309  20.527  0.0450 -0.4027  0.1394
  788W        W43726  25.142   6.583  21.708  0.1636  0.1298 -0.2718
  789W        W43727  24.167   6.103  19.885  0.3607 -0.1288 -0.0828
  790W        W43728  24.105   8.216  21.975 -0.0191 -0.0618  0.0452
  791W        W43729  23.182   4.542  20.671  0.2026 -0.3519  0.2929
  792W        W43730  23.259   7.277  21.930  0.1185  0.3110  0.0890
  793W        W43731  22.502   5.088  20.847 -0.0356 -0.2523 -0.2798
  794W        W43732  24.107   5.978  21.034 -0.4328 -0.2767 -0.0929
  795W        W43733  22.674   7.237  21.665  0.2104 -0.1281  0.2684
  796W        W43734  23.969   4.673  23.528  0.0600 -0.1147 -0.1999
  797W        W43735  27.217   4.598  19.905 -0.2550  0.2028  0.0489
  798W        W43736  25.598   6.132  23.048  0.2107 -0.1212  0.0193
  799W        W43737  25.976   3.873  20.947  0.0879  0.0510 -0.0388
  800W        W43738  22.857   6.008  23.897  0.0679 -0.4245  0.4295
  801W        W43739  24.114   5.620  21.381 -0.3052  0.0545 -0.1100
  802W        W43740  23.019   4.143  19.838 -0.0211 -0.0006  0.1879
  803W        W43741  22.955   3.571  23.476 -0.4442 -0.0049  0.3281
  804W        W43742  25.748   3.145  25.138  0.2258 -0.4528  0.0977
  805W        W43743  20.586   8.628  23.704  0.1779 -0.3929  0.0762
  806W        W43744  26.134   7.352  21.436 -0.1749  0.0341 -0.0252
  807W        W43745  23.083   4.394  21.241 -0.0414  0.1212  0.1643
  808W        W43746  23.565   5.061  22.079  0.0297 -0.2259 -0.0826
  809W        W43747  23.763   3.000  21.032 -0.4006  0.2564 -0.0104
  810W        W43748  23.579   5.368  20.383  0.0869  0.1467  0.1548
  811W        W43749  24.253   5.010  21.144 -0.0005  0.0020 -0.0521
  812W        W43750  23.440   7.948  20.120 -0.0903  0.1086  0.1428
  813W        W43751  23.253   8.593  21.115  0.0195  0.2128  0.2413
  814W        W43752  23.717   6.742  21.947  0.0463 -0.0439 -0.1533
  815W        W43753  21.906   4.433  20.165  0.0081 -0.2334 -0.0043
  816W        W43754  25.881   6.271  20.137  0.0332 -0.1873  0.2045
  817W        W43755  22.838   5.789  24.408 -0.2075  0.1074 -0.4157
  818W        W43756  24.586   3.974  22.081  0.2595 -0.0147  0.2093
  819W        W43757  21.415   4.382  20.304  0.0831  0.1913 -0.0417
  820W        W43758  24.171   4.674  20.192  0.2768  0.1620 -0.1128
  821W        W43759  24.493   6.105  23.398 -0.2070  0.0226 -0.2213
  822W        W43760  21.342   4.279  23.531 -0.1457  0.0743  0.0850
  823W        W43761  22.959   5.294  19.189  0.2163  0.1582  0.3224
  824W        W43762  24.841   5.066  22.355  0.1185  0.3943 -0.0464
  825W        W43763  24.114   4.194  19.955 -0.0221 -0.2433  0.1918
  826W        W43764  25.080   7.231  23.329  0.0202  0.1215 -0.0347
  827W        W43765  24.284   3.974  21.469  0.0648  0.0952  0.0284
  828W        W43766  24.746   5.395  20.095  0.1664  0.2196  0.0278
  829W        W43767  22.345   5.407  21.898 -0.2303 -0.2862  0.0567
  830W        W43768  22.734   5.385  22.259  0.0936 -0.2603  0.2548
  831W        W43769  24.318   5.666  23.586 -0.0856  0.0354 -0.2320
  832W        W43770  22.819   2.552  20.932  0.0224 -0.3908  0.2046
  833W        W43771  25.006   6.686  19.481 -0.2483  0.0386  0.1198
  834W        W43772  24.756   5.562  22.401  0.0659 -0.0407  0.1642
  835W        W43773  24.251   7.847  19.713  0.0309  0.0469 -0.2037
  836W        W43774  24.968   5.138  21.613 -0.1297  0.0987 -0.1154
  837W        W43775  23.910   7.487  21.458  0.0189  0.3689 -0.0132
  838W        W43776  20.935   2.902  22.202  0.1089  0.1668 -0.2643
  839W        W43777  25.528   5.851  20.380 -0.3046  0.3755 -0.1113
  840W        W43778  25.455   7.934  22.182 -0.0959  0.1970  0.1602
  841W        W43779  23.624   3.485  21.012  0.0708  0.1229 -0.0796
  842W        W43780  22.106   4.988  21.509 -0.3314 -0.2947 -0.6465
  843W        W43781  22.676   6.680  21.394 -0.4703 -0.3442 -0.0153
  844W        W43782  23.836   3.899  20.788  0.1634  0.2610  0.0939
  845W        W43783  24.308   4.391  21.899 -0.0858  0.1904 -0.2502
  846W        W43784  23.256   6.333  20.212  0.2320 -0.0793 -0.3846
  847W        W43785  24.394   2.936  24.056 -0.1290  0.0124  0.4063
  848W        W43786  24.082   6.754  23.413  0.0843 -0.3471  0.4367
  849W        W43787  22.687   7.092  23.739 -0.0672  0.1775 -0.1794
  850W        W43788  23.061   5.064  20.617  0.0538 -0.1383 -0.1174
  851W        W43789  23.263   5.535  24.194 -0.2988  0.1301  0.4455
  852W        W43790  22.729   4.609  21.745 -0.1630  0.1762 -0.0768
  853W        W43791  23.367   5.659  22.722  0.2819  0.0949 -0.1923
  854W        W43792  26.103   6.831  21.735 -0.0208  0.1077  0.0382
  855W        W43793  24.625   5.968  21.000  0.1185 -0.1307 -0.0989
  856W        W43794  25.157   5.583  20.240 -0.1822  0.2603 -0.1938
  857W        W43795  24.079   3.641  22.885  0.2807 -0.3603 -0.3720
  858W        W43796  23.683   2.385  22.177  0.3701  0.0158 -0.0028
  859W        W43797  23.985   4.150  19.075 -0.1172 -0.1178 -0.3107
  860W        W43798  22.623   6.374  22.906 -0.2049 -0.1943 -0.2218
  861W        W43799  21.400   4.897  20.781 -0.0694 -0.1093  0.1191
  862W        W43800  22.651   5.686  21.298 -0.1183  0.4753  0.4006
  863W        W43801  22.458   5.051  23.219 -0.0846 -0.2177  0.0972
  864W        W43802  23.157   4.103  24.343  0.0544  0.1813 -0.1416
  865W        W43803  22.082   4.679  22.984  0.0694 -0.2414  0.0207
  866W        W43804  22.563   5.662  22.922 -0.0758 -0.1361  0.0905
  867W        W43805  23.611   4.809  20.665 -0.1499  0.2965 -0.3877
  868W        W43806  25.285   7.766  19.381  0.3733  0.0740 -0.1104
  869W        W43807  22.148   3.100  20.918  0.3462  0.0712 -0.1040
  870W        W43808  22.287   3.917  21.993 -0.3490 -0.2108  0.0111
  871W        W43809  24.265   7.621  21.889 -0.2151  0.0385 -0.1761
  872W        W43810  25.792   7.728  20.269 -0.1061  0.1500 -0.0047
  873W        W43811  23.433   3.561  21.681  0.0621  0.1599 -0.1141
  874W        W43812  24.330   5.032  23.242 -0.1242 -0.1774  0.0907
  875W        W43813  21.873   6.762  21.168 -0.1461 -0.1323  0.0751
  876W        W43814  22.727   5.302  24.036 -0.0202  0.2891  0.3410
  877W        W43815  24.341   3.467  23.341  0.0983  0.0459 -0.0269
  878W        W43816  21.287   4.038  19.080 -0.1655 -0.1302  0.1657
  879W        W43817  24.625   5.255  21.950 -0.1074 -0.0490  0.1347
  880W        W43818  22.871   5.994  20.944  0.2047 -0.2799 -0.0512
  881W        W43819  24.963   7.124  20.750  0.1264  0.0191  0.2642
  882W        W43820  23.194   5.864  23.242 -0.1991  0.2215 -0.0204
  883W        W43821  23.619   6.852  22.433 -0.0242 -0.1928  0.4072
  884W        W43822  21.610   4.876  22.883 -0.2015  0.1129 -0.1817
  885W        W43823  25.343   6.766  20.848 -0.0814  0.0409 -0.0061
  886W        W43824  23.191   5.144  23.782  0.2360  0.1499  0.1145
  887W        W43825  27.005   6.703  18.887  0.2647  0.2080  0.2252
  888W        W43826  24.357   4.889  22.745 -0.3008 -0.0226  0.1692
  889W        W43827  22.134   5.051  20.006 -0.1586 -0.1020 -0.1624
  890W        W43828  22.229   4.148  22.890 -0.0137 -0.4889  0.2400
  891W        W43829  21.717   7.343  24.147  0.0843  0.0374 -0.0208
  892W        W43830  25.462   6.015  21.073 -0.2022 -0.2391 -0.1054
  893W        W43831  22.220   3.784  23.223  0.0462  0.0245 -0.1001
  894W        W43832  24.521   5.881  21.500 -0.0787  0.3126 -0.3345
  895W        W43833  22.260   6.544  21.829 -0.4146  0.1287 -0.2233
  896W        W43834  21.126   4.918  20.215  0.0228 -0.0429  0.0271
  897W        W43835  22.567   3.977  20.000 -0.2519  0.0774  0.0223
  898W        W43836  23.269   5.669  23.715  0.1339 -0.0695 -0.0044
  899W        W43837  23.955   7.187  21.974 -0.1328 -0.0293 -0.3956
  900W        W43838  24.318   7.173  23.236 -0.2462  0.2872  0.0601
  901W        W43839  24.703   4.889  20.395 -0.2739  0.1152 -0.1992
  902W        W43840  25.857   6.625  20.596 -0.1947  0.1228 -0.1892
  903W        W43841  25.477   5.594  22.802  0.1272 -0.1302 -0.2867
  904W        W43842  25.631   7.389  23.526  0.0821  0.0287 -0.0146
  905W        W43843  23.906   6.461  22.675  0.1354  0.0537  0.1353
  906W        W43844  24.795   5.526  21.127 -0.0838 -0.3141  0.0748
  907W        W43845  23.267   4.735  22.427 -0.1389  0.2581 -0.0853
  908W        W43846  23.220   5.362  21.668  0.1229  0.4668 -0.0637
  909W        W43847  22.959   4.994  22.017 -0.2527 -0.1461 -0.2080
  910W        W43848  22.893   5.883  22.310 -0.1387  0.0553  0.0470
  911W        W43849  23.589   4.398  22.612  0.1027 -0.3590 -0.0081
  912W        W43850  23.635   4.329  20.792 -0.1644 -0.0426 -0.0481
  913W        W43851  22.022   7.830  23.486  0.0510  0.1584 -0.0105
  914W        W43852  24.885   6.047  20.313  0.2434 -0.0263 -0.0100
  915W        W43853  23.056   7.582  28.656 -0.1703  0.0434 -0.2086
  916W        W43854  21.354   5.454  24.624 -0.0523  0.0265 -0.3675
  917W        W43855  24.280   5.091  24.876  0.4002 -0.0768 -0.1385
  918W        W43856  24.209   5.104  23.764  0.0637  0.2450  0.2447
  919W        W43857  20.443   4.703  26.094 -0.0257  0.1978 -0.2202
  920W        W43858  23.335   8.166  24.728  0.0316 -0.3024 -0.0450
  921W        W43859  22.656   3.188  26.700  0.2869  0.4034 -0.1150
  922W        W43860  23.160   6.653  26.408 -0.5855  0.0371 -0.0251
  923W        W43861  25.824   7.354  26.766  0.0538  0.1058 -0.0043
  924W        W43862  24.783   7.412  23.855  0.0627  0.2631  0.1788
  925W        W43863  23.174   6.044  26.730  0.0964  0.2068 -0.1159
  926W        W43864  22.395   8.709  26.712 -0.0194  0.2006  0.1509
  927W        W43865  23.408   3.651  23.319  0.0533 -0.2386 -0.3176
  928W        W43866  22.040   4.520  25.847  0.1487 -0.0818  0.1376
  929W        W43867  26.433   7.222  25.747  0.0361 -0.0850 -0.1004
  930W        W43868  23.559   6.338  25.732  0.1332 -0.0155  0.2415
  931W        W43869  21.830   5.586  26.142 -0.1543  0.0875  0.1417
  932W        W43870  23.545   4.007  24.093  0.0776 -0.1045  0.3164
  933W        W43871  24.204   6.990  24.240  0.0820  0.0230 -0.3729
  934W        W43872  23.274   4.409  26.693  0.3120 -0.0415  0.0361
  935W        W43873  23.242   4.834  26.527 -0.3367 -0.0638  0.0436
  936W        W43874  24.099   6.133  24.942 -0.0032  0.1421  0.1564
  937W        W43875  20.795   4.280  23.147 -0.1446  0.2341  0.0914
  938W        W43876  21.472   5.168  24.998  0.1326 -0.2416  0.1994
  939W        W43877  22.231   6.210  26.749  0.0427  0.1589  0.2173
  940W        W43878  23.890   3.819  26.561 -0.4200 -0.1613  0.1768
  941W        W43879  25.761   5.603  25.899  0.0812  0.1802 -0.0792
  942W        W43880  25.238   6.328  24.345 -0.0108 -0.0383  0.0147
  943W        W43881  23.503   7.109  26.590  0.0311  0.1090 -0.0690
  944W        W43882  23.844   4.794  27.661  0.3649  0.0434 -0.0094
  945W        W43883  20.750   6.644  27.395  0.1909  0.2654 -0.0722
  946W        W43884  21.122   7.152  25.922  0.0290 -0.1113  0.0914
  947W        W43885  23.598   7.079  24.784  0.1953  0.0946  0.2908
  948W        W43886  24.468   6.662  25.636  0.0255 -0.3900  0.0413
  949W        W43887  25.128   7.141  26.171 -0.1078  0.0443  0.0383
  950W        W43888  23.666   7.897  26.874  0.2061 -0.1680  0.3491
  951W        W43889  23.552   6.296  24.048 -0.1385  0.1376  0.2611
  952W        W43890  24.695   7.720  27.327  0.6238  0.2576 -0.1884
  953W        W43891  24.189   9.039  27.851  0.0696 -0.2947  0.0541
  954W        W43892  23.463   5.841  29.100 -0.1536 -0.0708  0.1239
  955W        W43893  23.177   5.474  25.832  0.1076 -0.0890  0.1995
  956W        W43894  22.881   7.536  23.791  0.2878  0.1223 -0.0714
  957W        W43895  22.996   5.307  25.111 -0.0973 -0.1399 -0.1163
  958W        W43896  23.326   7.068  27.948 -0.0731 -0.2289  0.1432
  959W        W43897  21.865   5.982  25.294 -0.0841  0.1211 -0.2800
  960W        W43898  25.320   5.336  26.450  0.0705 -0.1901  0.3326
  961W        W43899  24.739   7.356  25.034  0.1657 -0.0427  0.2911
  962W        W43900  24.173   4.135  22.785  0.3703  0.2934 -0.0461
  963W        W43901  22.924   3.684  21.787  0.2712 -0.0402 -0.1661
  964W        W43902  25.659   3.479  23.951  0.1950 -0.1479 -0.1336
  965W        W43903  22.194   3.667  24.910 -0.0672 -0.1279  0.0507
  966W        W43904  22.577   6.748  25.681  0.0159  0.1769  0.2016
  967W        W43905  23.278   5.741  26.237 -0.1638  0.2069  0.0545
  968W        W43906  24.334   7.625  25.389  0.4526  0.1066  0.0782
  969W        W43907  21.442   6.428  22.136 -0.2082  0.0875 -0.1881
  970W        W43908  23.372   5.123  25.554 -0.1398 -0.4509 -0.0769
  971W        W43909  22.675   8.164  26.805 -0.0910 -0.0478 -0.0438
  972W        W43910  22.920   6.506  27.362  0.1646 -0.0123 -0.1317
  973W        W43911  24.580   5.951  22.738 -0.1919  0.0731 -0.4920
  974W        W43912  25.247   7.089  25.621 -0.1236 -0.1459 -0.1250
  975W        W43913  24.989   8.102  24.718 -0.0172 -0.1075 -0.2051
  976W        W43914  20.855   4.906  26.370  0.1459  0.2890 -0.2459
  977W        W43915  23.968   7.125  27.416  0.3798 -0.3360  0.0880
  978W        W43916  23.213   6.525  26.874 -0.4559  0.1437  0.1759
  979W        W43917  22.792   3.290  22.071 -0.1529 -0.0485 -0.1862
  980W        W43918  24.646   5.720  28.253  0.0530  0.1868  0.0231
  981W        W43919  22.252   7.568  25.992 -0.0268 -0.0326 -0.1622
  982W        W43920  25.199   4.472  24.572 -0.2413  0.3292 -0.3427
  983W        W43921  22.490   4.992  25.170  0.0270 -0.2729 -0.0818
  984W        W43922  25.293   7.456  26.498  0.2468 -0.1019  0.1614
  985W        W43923  23.870   5.125  23.442 -0.1920 -0.0525  0.0164
  986W        W43924  25.576   5.186  24.962  0.1399  0.3316 -0.1759
  987W        W43925  23.465   4.639  25.601  0.1138 -0.0892  0.3324
  988W        W43926  22.724   6.116  25.789 -0.1400  0.0166  0.0818
  989W        W43927  23.102   6.764  23.891  0.1127 -0.2542 -0.0505
  990W        W43928  24.657   6.492  26.975 -0.1895 -0.2883  0.0669
  991W        W43929  23.637   5.338  23.841  0.3873 -0.0812  0.1538
  992W        W43930  22.059   6.854  26.957  0.0703  0.2359  0.1363
  993W        W43931  23.663   5.435  26.070  0.0188 -0.0264 -0.2095
  994W        W43932  24.157   7.623  27.588 -0.2298 -0.2661  0.2941
  995W        W43933  21.048   7.379  24.126  0.0460 -0.0700  0.3697
  996W        W43934  22.072   6.704  25.599  0.5446  0.0405 -0.2972
  997W        W43935  22.182   5.936  24.955  0.1643 -0.0406 -0.0596
  998W        W43936  21.432   5.149  26.285  0.2901 -0.0898  0.0186
  999W        W43937  24.175   5.727  26.737 -0.0358  0.1346  0.0649
 1000W        W43938  23.881   4.905  25.175 -0.1790  0.0023  0.1570
 1001W        W43939  22.502   4.559  26.648  0.1282  0.0468  0.0085
 1002W        W43940  24.895   4.486  25.412  0.0308  0.0338  0.2326
 1003W        W43941  21.954   6.058  26.280  0.0529 -0.2517 -0.1281
 1004W        W43942  25.266   7.368  24.230  0.0619 -0.1005  0.0910
 1005W        W43943  23.894   4.941  25.831 -0.0442 -0.2903 -0.0867
 1006W        W43944  25.484   5.214  23.620  0.0031 -0.2598  0.1558
 1007W        W43945  21.500   6.438  27.070 -0.0547 -0.1513  0.0683
 1008W        W43946  21.626   5.558  25.312  0.3768 -0.2510 -0.0404
 1009W        W43947  21.327   4.801  25.909 -0.0465 -0.0078  0.0687
 1010W        W43948  21.570   5.294  25.713  0.0869 -0.2958  0.0734
 1011W        W43949  25.014   6.082  26.674  0.3884  0.1635 -0.1014
 1012W        W43950  22.541   3.374  23.800  0.0052 -0.0680 -0.2249
 1013W        W43951  22.933   4.758  24.902  0.1832 -0.1130 -0.4751
 1014W        W43952  22.848   5.697  25.528  0.1566  0.0023 -0.2272
 1015W        W43953  22.148   6.165  25.664  0.2328  0.1064 -0.1331
 1016W        W43954  25.110   4.476  26.531 -0.0459  0.0417 -0.0962
 1017W        W43955  25.890   6.883  23.083 -0.0838  0.2233  0.0355
 1018W        W43956  25.280   8.808  25.685 -0.3367 -0.1482  0.0650
 1019W        W43957  25.208   7.150  24.918  0.0621  0.0447  0.2139
 1020W        W43958  22.246   6.671  26.497 -0.0811  0.2668 -0.1115
 1021W        W43959  23.687   3.655  24.641 -0.3511  0.1432 -0.2335
 1022W        W43960  22.055   9.267  24.250 -0.4432 -0.0359 -0.2439
 1023W        W43961  23.138   7.994  26.006 -0.2788  0.3532 -0.3085
 1024W        W43962  23.105   4.523  23.454  0.2528  0.1860 -0.0640
 1025W        W43963  25.719   8.748  26.568  0.0016  0.0379 -0.1119
 1026W        W43964  23.761   5.800  24.769  0.0652 -0.0539  0.1949
 1027W        W43965  23.419   7.094  27.442  0.1057  0.0913 -0.0221
 1028W        W43966  25.171   3.479  26.081 -0.1059 -0.0089 -0.2538
 1029W        W43967  24.094   7.084  26.743 -0.0854  0.1829  0.0436
 1030W        W43968  22.811   5.659  26.103  0.0220  0.0178 -0.0138
 1031W        W43969  22.642   4.515  24.202  0.0940  0.4176 -0.0414
 1032W        W43970  24.037   8.481  25.829 -0.2632  0.4298  0.1382
 1033W        W43971  21.148   6.713  24.203  0.0524 -0.2029  0.2608
 1034W        W43972  24.073   6.000  27.199  0.1819 -0.2461  0.1711
 1035W        W43973  23.161   7.990  26.974  0.0900 -0.1416 -0.1769
 1036W        W43974  24.249   5.327  25.808  0.0808  0.1516 -0.0955
 1037W        W43975  23.202   5.963  28.253 -0.2686 -0.2608 -0.1696
 1038W        W43976  24.117   3.607  26.163  0.1115  0.2069  0.0859
 1039W        W43977  21.073   5.291  25.941 -0.0431 -0.4128 -0.0270
 1040W        W43978  22.598   7.649  28.504 -0.0056  0.1251 -0.1905
 1041W        W43979  24.578   4.352  24.438 -0.2391 -0.3496 -0.2020
 1042W        W43980  24.804   4.730  23.152  0.1363  0.3744 -0.1147
 1043W        W43981  22.572   6.438  27.732  0.0904 -0.0049  0.0357
 1044W        W43982  25.562   4.767  23.783  0.3756 -0.1589 -0.3835
 1045W        W43983  23.404   4.901  23.308 -0.1582 -0.2023  0.0146
 1046W        W43984  22.721   4.287  23.632  0.1066 -0.0158  0.1967
 1047W        W43985  23.769   6.857  27.887 -0.1363  0.3200  0.1121
 1048W        W43986  23.009   6.145  25.295  0.1150  0.0500 -0.2232
 1049W        W43987  23.803   7.348  26.047 -0.1677  0.4120 -0.0436
 1050W        W43988  23.261   4.019  23.650 -0.1191  0.2954 -0.1262
 1051W        W43989  25.631   6.866  23.516 -0.3226  0.3180  0.1313
 1052W        W43990  23.198   7.108  26.983 -0.0111  0.2184  0.2713
 1053W        W43991  24.397   6.511  28.544 -0.2511 -0.1617  0.1922
 1054W        W43992  23.771   7.552  25.480 -0.0117 -0.0930 -0.1594
 1055W        W43993  22.128   3.384  24.259 -0.0433 -0.0672 -0.0562
 1056W        W43994  22.293   5.352  24.333 -0.1728 -0.2685 -0.0590
 1057W        W43995  23.391   5.057  24.267  0.1871  0.1059 -0.3151
 1058W        W43996  20.538   6.984  23.113 -0.0614  0.1590 -0.1420
 1059W        W43997  25.086   4.579  25.901  0.0929 -0.0283 -0.0076
 1060W        W43998  24.161   5.675  26.231  0.1229 -0.0631 -0.4508
 1061W        W43999  22.817   3.778  28.034  0.3233 -0.0306 -0.0402
 1062W        W44000  25.891   6.637  26.006 -0.1174  0.1415 -0.1440
 1063W        W44001  24.655   5.537  24.975  0.1494 -0.0056  0.3042
 1064W        W44002  23.813   6.717  26.542  0.1855  0.1376 -0.1420
 1065W        W44003  22.087   5.161  22.862  0.0303  0.0788  0.0335
 1066W        W44004  21.974   4.200  26.685 -0.0592 -0.1975  0.0416
 1067W        W44005  22.035   5.592  27.328  0.0216  0.1810  0.0371
 1068W        W44006  21.888   8.210  24.802 -0.2750 -0.1664 -0.0101
 1069W        W44007  25.017   7.494  26.899  0.3062  0.0896 -0.2544
 1070W        W44008  24.146   7.088  24.785  0.0163 -0.2868 -0.0759
 1071W        W44009  24.998   5.717  26.357 -0.1143  0.2646  0.4305
 1072W        W44010  23.730   5.363  25.040  0.0985 -0.2339  0.1992
 1073W        W44011  22.254   8.841  26.104  0.1086  0.0437  0.0833
 1074W        W44012  24.457   6.824  23.700 -0.1948  0.2090  0.0245
 1075W        W44013  22.120   3.720  25.457  0.3131  0.0328 -0.0058
 1076W        W44014  25.089   6.667  25.124  0.0207 -0.1443 -0.1227
 1077W        W44015  23.384   6.741  25.101 -0.1116 -0.2370  0.2745
 1078W        W44016  25.930   6.352  25.626  0.1611  0.0623 -0.2718
 1079W        W44017  23.048   7.034  26.040  0.1712 -0.1317 -0.0329
 1080W        W44018  24.123   4.728  26.739 -0.2219 -0.0002  0.2162
 1081W        W44019  22.007   7.656  25.079  0.1698 -0.2118  0.2111
 1082W        W44020  22.162   5.566  23.273  0.0506 -0.2723 -0.1967
 1083W        W44021  22.383   6.383  26.080  0.0018 -0.0782  0.1015
 1084W        W44022  24.661   4.199  25.812 -0.3777 -0.0297  0.2287
 1085W        W44023  24.310   5.341  22.380 -0.0969 -0.0657  0.0894
 1086W        W44024  21.870   4.032  27.266 -0.1808  0.0605 -0.1410
 1087W        W44025  22.484   2.986  25.323  0.1298 -0.0336 -0.0631
 1088W        W44026  20.315   7.001  26.257  0.2694 -0.1204 -0.3373
 1089W        W44027  23.215   5.260  26.282 -0.1128 -0.0754 -0.0011
 1090W        W44028  23.210   4.139  25.867 -0.1833 -0.1668  0.2866
 1091W        W44029  24.628   5.376  25.427  0.1566  0.3411  0.1307
 1092W        W44030  23.393   4.405  27.646  0.1437 -0.0354 -0.0529
 1093W        W44031  23.405   3.561  23.821 -0.0907 -0.0924 -0.2339
 1094W        W44032  25.153   5.000  27.408  0.0603 -0.1896 -0.0067
 1095W        W44033  23.009   4.769  25.478  0.5097 -0.1808 -0.1939
 1096W        W44034  24.243   7.138  25.678 -0.1911  0.0525  0.3926
 1097W        W44035  24.756   7.415  25.708  0.1237  0.0417  0.0547
 1098W        W44036  21.969   5.604  25.688  0.0297 -0.1190  0.1482
 1099W        W44037  23.002   7.282  24.909 -0.1383  0.0814 -0.2386
 1100W        W44038  22.320   4.203  27.096 -0.0898  0.1560 -0.1814
 1101W        W44039  25.192   4.878  24.976 -0.1198  0.1707 -0.0889
 1102W        W44040  22.295   4.173  25.647  0.0500  0.1637  0.1593
 1103W        W44041  23.803   4.570  24.777  0.0333  0.2464  0.1239
 1104W        W44042  23.394   4.638  25.107 -0.1176 -0.0132 -0.0866
 1105W        W44043  24.758   5.011  24.653  0.2402  0.1093  0.1230
 1106W        W44044  24.997   6.615  25.775 -0.1231 -0.1226 -0.3015
 1107W        W44045  23.306   6.898  28.510  0.0569 -0.0635  0.0786
 1108W        W44046  23.433   4.054  25.042  0.0053  0.0076  0.1304
 1109W        W44047  26.453   5.972  22.862  0.1351 -0.2729  0.0545
 1110W        W44048  25.031   6.356  27.332 -0.1230 -0.1297  0.0282
 1111W        W44049  21.902   5.418  24.743 -0.0090 -0.1715  0.2575
 1112W        W44050  20.444   5.925  25.720  0.0261  0.0386 -0.0544
 1113W        W44051  23.430   7.585  24.671  0.0475 -0.0772 -0.1931
 1114W        W44052  22.723   4.412  25.729 -0.1687 -0.2230 -0.1234
 1115W        W44053  23.884   6.543  27.381  0.1065  0.0186 -0.0459
 1116W        W44054  22.485   5.369  25.541  0.0192  0.0117 -0.1193
 1117W        W44055  22.753   7.578  26.183  0.4589 -0.1964 -0.0849
 1118W        W44056  24.309   4.654  24.723 -0.0139  0.0141  0.0882
 1119W        W44057  23.902   6.754  25.660  0.0601  0.0837 -0.0682
 1120W        W44058  23.416   6.069  25.028 -0.2453  0.0927 -0.0915
 1121W        W44059  25.939   5.005  26.650  0.1382 -0.2601  0.0284
 1122W        W44060  23.686   5.468  24.382 -0.5200 -0.2215  0.0537
 1123W        W44061  24.887   3.639  26.586  0.2974 -0.1431 -0.3495
 1124W        W44062  23.864   3.042  26.517  0.2297  0.0249 -0.0363
 1125W        W44063  23.544   6.224  26.346 -0.0247  0.2604  0.1252
 1126W        W44064  22.086   6.284  27.782  0.1112 -0.0646  0.2304
 1127W        W44065  26.149   8.474  28.006  0.2131 -0.0950  0.0202
 1128W        W44066  22.315   5.158  27.676  0.0477 -0.1250 -0.3104
 1129W        W44067  22.354   1.204  23.606  0.2962  0.0282 -0.0673
 1130W        W44068  22.994   4.010  23.197  0.3748 -0.3029  0.0828
 1131W        W44069  24.753   7.407  26.405  0.0184  0.2580  0.0825
 1132W        W44070  24.973   5.378  24.218 -0.1003 -0.1431 -0.1087
 1133W        W44071  23.380   5.009  24.749 -0.3214 -0.0656  0.3455
 1134W        W44072  25.172   5.283  24.677 -0.3237  0.2694 -0.0759
 1135W        W44073  24.190   6.809  26.109 -0.1042 -0.0880 -0.0533
 1136W        W44074  24.002   6.629  24.918 -0.1154 -0.1894 -0.0663
 1137W        W44075  24.162   5.515  24.683  0.0100 -0.1516  0.2175
 1138W        W44076  21.967   6.479  25.099 -0.0872  0.4209  0.1093
 1139W        W44077  22.035   3.243  26.781  0.0868  0.0927  0.1287
 1140W        W44078  24.124   6.418  26.936 -0.0780  0.0640  0.0075
 1141W        W44079  24.620   5.189  23.975  0.2291  0.1612  0.0776
 1142W        W44080  21.665   5.192  26.938 -0.1385 -0.2122 -0.0444
 1143W        W44081  24.325   6.863  27.115 -0.0178  0.2120 -0.1598
 1144W        W44082  23.388   5.378  27.240 -0.2092 -0.0505  0.1348
 1145W        W44083  21.116   4.417  26.809 -0.0513 -0.0173 -0.2810
 1146W        W44084  24.763   6.828  27.624 -0.4471 -0.3001  0.1121
 1147W        W44085  24.306   4.572  23.945  0.0601 -0.1374  0.0610
 1148W        W44086  24.499   6.059  26.183  0.2311  0.0298  0.0214
 1149W        W44087  26.259   4.093  24.493  0.0894  0.4999  0.2311
 1150W        W44088  23.847   4.901  24.108 -0.1007  0.1364 -0.0474
 1151W        W44089  21.596   5.589  26.605  0.0481  0.1077  0.0830
 1152W        W44090  24.418   5.543  27.249 -0.2786 -0.0055  0.3158
 1153W        W44091  22.792   3.027  23.453 -0.0103 -0.1882 -0.1128
 1154W        W44092  24.434   4.650  26.370 -0.2419 -0.2016 -0.0321
 1155W        W44093  22.677   7.628  24.639 -0.0143  0.1600 -0.0950
 1156W        W44094  24.978   6.232  26.112 -0.1595 -0.1082  0.1861
 1157W        W44095  24.518   6.523  25.067  0.0346  0.2133  0.1997
 1158W        W44096  21.686   4.489  26.172 -0.2173  0.0506  0.0837
 1159W        W44097  23.273   8.522  27.580 -0.1004 -0.1627 -0.2647
 1160W        W44098  22.760   4.796  23.786 -0.1549  0.2363  0.0402
 1161W        W44099  23.390   6.174  23.603  0.1206 -0.0510 -0.0757
 1162W        W44100  24.308   7.008  25.234  0.0878 -0.2767  0.1798
 1163W        W44101  25.332   6.896  27.502  0.0697 -0.1555  0.0087
 1164W        W44102  24.152   4.100  24.649  0.3353  0.0769  0.5609
 1165W        W44103  24.631   6.026  27.168 -0.2022  0.1914  0.2504
 1166W        W44104  23.077   6.600  25.417 -0.0058 -0.3380  0.0615
 1167W        W44105  22.304   3.748  25.946 -0.1533  0.1888 -0.2125
 1168W        W44106  22.995   7.141  26.520  0.0675  0.3198  0.2162
 1169W        W44107  21.679   6.033  27.383 -0.1884 -0.4271 -0.2275
 1170W        W44108  25.536   6.699  25.591  0.0292  0.0704 -0.1500
 1171W        W44109  22.894   3.311  25.613  0.0017 -0.1945 -0.2094
 1172W        W44110  25.067   5.329  25.165 -0.1527 -0.2156  0.0128
 1173W        W44111  23.909   5.451  27.161 -0.0298  0.0579  0.1213
 1174W        W44112  24.569   7.129  28.007  0.1379 -0.0928 -0.0411
 1175W        W44113  25.366   8.409  26.711 -0.0606 -0.0810  0.1523
 1176W        W44114  22.431   6.525  27.089 -0.1252  0.2562 -0.2794
 1177W        W44115  23.592   6.793  26.983  0.0500 -0.1055 -0.2355
 1178W        W44116  24.902   6.218  25.172 -0.0578  0.0672 -0.0937
 1179W        W44117  22.501   6.371  25.412 -0.4554  0.2102 -0.1115
 1180W        W44118  21.726   6.754  28.129 -0.0639 -0.1805  0.2007
 1181W        W44119  24.500   5.992  28.877 -0.0383  0.0336 -0.0556
 1182W        W44120  23.368   5.601  25.340  0.1607  0.1420  0.2132
 1183W        W44121  23.484   4.755  23.800 -0.0019 -0.2651 -0.2015
 1184W        W44122  23.754   7.171  23.415 -0.1177 -0.1684 -0.1057
 1185W        W44123  23.155   6.863  30.109  0.0250 -0.1703  0.1968
 1186W        W44124  23.657   6.316  26.835  0.1098  0.0157  0.0964
 1187W        W44125  23.807   7.536  26.559  0.0560  0.1449  0.0395
 1188W        W44126  24.513   5.968  25.169 -0.0588  0.1751 -0.0924
 1189W        W44127  24.152   5.495  24.081 -0.1571  0.2329 -0.1081
 1190W        W44128  23.643   7.454  27.777 -0.0038  0.0905 -0.0156
 1191W        W44129  23.170   4.359  24.735 -0.0557  0.4486 -0.0842
 1192W        W44130  22.086   7.309  25.558  0.0461  0.1663 -0.0849
 1193W        W44131  21.253   5.257  24.136  0.1586  0.4082 -0.0884
 1194W        W44132  24.447   6.120  23.899  0.1396 -0.1380  0.0871
 1195W        W44133  23.057   6.934  24.386  0.3323 -0.1254  0.1303
 1196W        W44134  25.578   8.158  27.137 -0.1435 -0.0750  0.1836
 1197W        W44135  23.604   4.376  23.443 -0.1642  0.0084  0.1068
 1198W        W44136  24.221   5.908  25.646 -0.2755 -0.0126  0.2832
 1199W        W44137  23.753   5.456  25.551 -0.0265 -0.0745 -0.0863
 1200W        W44138  24.495   7.239  27.546 -0.1149 -0.3123 -0.0944
 1201W        W44139  23.685   5.700  26.499 -0.1251  0.0853 -0.2489
 1202W        W44140  22.751   3.829  22.342  0.0628 -0.1102  0.3270
 1203W        W44141  23.283   6.650  27.643  0.2258 -0.2355 -0.0222
 1204W        W44142  25.475   4.947  25.883 -0.1830  0.1021  0.2677
 1205W        W44143  22.429   7.849  27.071 -0.0503 -0.0224 -0.3444
 1206W        W44144  25.161   5.549  23.740 -0.0029 -0.1013  0.0276
 1207W        W44145  22.240   4.070  24.539 -0.1338 -0.2060 -0.3138
 1208W        W44146  23.724   5.921  25.992 -0.1708 -0.0848  0.0560
 1209W        W44147  26.158   3.835  27.124  0.0957 -0.1268  0.0202
 1210W        W44148  23.353   6.038  24.472  0.0347 -0.1510 -0.0365
 1211W        W44149  23.845   5.900  25.308  0.0072  0.1535  0.0124
 1212W        W44150  22.709   8.443  25.874 -0.3500 -0.3891 -0.3194
 1213W        W44151  23.816   7.496  24.985 -0.2163 -0.1755  0.2275
 1214W        W44152  22.950   7.546  25.668 -0.1731 -0.3060 -0.0751
 1215W        W44153  22.435   5.419  24.866  0.2202 -0.0735  0.0050
 1216W        W44154  26.060   5.110  24.996  0.0428  0.0181  0.2129
 1217W        W44155  23.108   5.799  27.199 -0.1638  0.1342 -0.2217
 1218W        W44156  24.722   5.657  26.821  0.1317 -0.3068 -0.0782
 1219W        W44157  21.904   4.952  25.044 -0.0820  0.0547  0.3425
 1220W        W44158  24.969   5.825  24.672 -0.2811  0.1266  0.0047
 1221W        W44159  24.086   6.361  27.880 -0.2088  0.0403 -0.2954
 1222W        W44160  21.328   3.989  25.430 -0.2760 -0.1023  0.0559
 1223W        W44161  23.300   5.573  24.727 -0.1826  0.0160 -0.1158
 1224W        W44162  25.215   5.873  27.069  0.2348  0.3604  0.2382
 1225W        W44163  23.700   5.804  23.974 -0.1374 -0.2118 -0.0048
 1226W        W44164  23.396   8.294  28.014  0.1445  0.0327 -0.0832
 1227W        W44165  22.292   4.553  24.858 -0.1942  0.0515  0.0622
 1228W        W44166  23.925   4.304  23.894  0.1025  0.1960  0.1128
 1229W        W44167  22.623   5.985  26.454  0.0812  0.0328 -0.2487
 1230W        W44168  23.346   6.250  27.318  0.5508  0.3268  0.1078
 1231W        W44169  26.552   8.727  26.972 -0.1102 -0.1596 -0.1469
 1232W        W44170  22.084   3.224  25.194  0.1027  0.1355  0.0811
 1233W        W44171  25.677   5.180  23.120 -0.2200  0.1786  0.1861
 1234W        W44172  24.993   4.969  25.593  0.1798 -0.0206 -0.0515
 1235W        W44173  24.053   7.177  23.815  0.0817 -0.1371  0.1758
 1236W        W44174  25.068   5.010  23.810 -0.1314 -0.0020  0.1497
 1237W        W44175  24.326   7.554  24.730  0.1153 -0.0130 -0.0640
 1238W        W44176  21.458   6.041  26.489 -0.2715  0.2069  0.1988
 1239W        W44177  25.982   7.594  25.652  0.2229 -0.2260 -0.0270
 1240W        W44178  25.465   7.592  24.957  0.0351 -0.0401 -0.1408
 1241W        W44179  23.754   3.559  25.678  0.0626  0.2049 -0.2032
 1242W        W44180  22.729   5.050  26.324 -0.0600  0.2850  0.0600
 1243W        W44181  21.525   6.787  25.310  0.0319  0.3887  0.0174
 1244W        W44182  25.974   4.283  25.981 -0.2499 -0.1730 -0.1495
 1245W        W44183  24.630   4.565  27.535  0.1566 -0.1111 -0.0422
 1246W        W44184  24.354   7.543  24.059 -0.1513 -0.1445  0.3143
 1247W        W44185  24.210   5.095  26.329 -0.1197  0.2227  0.1151
 1248W        W44186  22.990   7.421  27.682 -0.1754 -0.2667  0.3319
 1249W        W44187  25.207   6.684  26.948  0.1207 -0.0063  0.0332
 1250W        W44188  22.588   6.786  25.121 -0.0477 -0.2610 -0.0215
 1251W        W44189  22.636   6.798  26.165  0.1732 -0.0094 -0.2062
 1252W        W44190  23.670   8.097  25.648  0.2886 -0.0831 -0.0452
 1253W        W44191  24.526   6.611  23.185 -0.0519 -0.4103 -0.0234
 1254W        W44192  25.492   5.871  25.522 -0.0798 -0.3110  0.0358
 1255W        W44193  22.449   4.836  25.633 -0.0610  0.1625 -0.0250
 1256W        W44194  25.904   6.287  24.953 -0.1712 -0.1352  0.0812
 1257W        W44195  22.640   4.500  25.263  0.1400  0.0013  0.0961
 1258W        W44196  25.322   4.369  24.015  0.0936 -0.0495 -0.1220
 1259W        W44197  25.403   4.752  25.372  0.1161  0.3674  0.1520
 1260W        W44198  22.504   6.011  28.049 -0.0921 -0.5055 -0.0881
 1261W        W44199  21.485   4.636  24.319 -0.1960 -0.3263 -0.0468
 1262W        W44200  22.996   6.389  24.190 -0.1061 -0.0856 -0.0156
 1263W        W44201  22.899   5.502  26.551  0.0031  0.0275 -0.0991
 1264W        W44202  24.122   3.418  27.270  0.3935  0.0248 -0.1791
 1265W        W44203  22.378   5.082  26.731  0.0822  0.1266 -0.1266
 1266W        W44204  22.422   5.834  25.450  0.1096 -0.4220 -0.2072
 1267W        W44205  22.911   4.424  26.342 -0.0251  0.2255  0.3523
 1268W        W44206  24.709   5.218  23.452  0.2075 -0.2047  0.1315
 1269W        W44207  22.728   4.015  26.047 -0.0537 -0.1207  0.1876
 1270W        W44208  22.681   4.309  24.641  0.1506 -0.0427  0.0632
 1271W        W44209  24.975   5.781  25.341 -0.0508  0.3169  0.1416
 1272W        W44210  24.146   6.334  25.397 -0.1269 -0.1882  0.0061
 1273W        W44211  22.686   3.912  25.448 -0.2523 -0.2059 -0.2081
 1274W        W44212  26.115   6.492  28.153 -0.1326  0.1134  0.0092
 1275W        W44213  21.803   5.107  24.383 -0.0955 -0.0511  0.0668
 1276W        W44214  24.173   5.766  28.546 -0.0807 -0.0831 -0.0313
 1277W        W44215  22.513   4.689  26.095 -0.0326 -0.3613  0.0393
 1278W        W44216  19.767   4.409  24.941 -0.2216  0.0229 -0.2020
 1279W        W44217  22.348   5.529  26.400 -0.0273 -0.1826  0.1378
 1280W        W44218  24.569   6.788  26.596  0.1139  0.0459  0.4621
 1281W        W44219  24.048   6.573  23.961  0.1256 -0.1194 -0.1768
 1282W        W44220  24.081   7.254  27.926  0.3561 -0.3235  0.2589
 1283W        W44221  23.042   8.547  26.752  0.1455  0.2323 -0.1904
 1284W        W44222  21.749   3.087  26.407 -0.0669 -0.1262 -0.0061
 1285W        W44223  25.933   4.955  23.481 -0.0995  0.0879 -0.0530
 1286W        W44224  24.208   7.615  25.899  0.0819  0.0645  0.0142
 1287W        W44225  23.827   5.065  24.617  0.0713  0.1805  0.1320
 1288W        W44226  26.399   4.704  25.353 -0.0419 -0.1233 -0.0059
 1289W        W44227  24.095   5.915  24.354  0.1917  0.0599  0.2308
 1290W        W44228  22.060   4.715  27.025  0.0988  0.0095 -0.1939
 1291W        W44229  23.055   6.356  27.909  0.3181  0.2427  0.0459
 1292W        W44230  24.355   4.423  25.142 -0.2076  0.1580  0.0038
 1293W        W44231  22.940   4.991  23.353 -0.1103  0.3065 -0.1395
 1294W        W44232  22.677   5.852  25.024  0.2069 -0.0066  0.1573
 1295W        W44233  24.469   6.024  24.665 -0.0748  0.1665  0.1171
 1296W        W44234  21.325   4.175  24.509 -0.0193  0.2529  0.0926
 1297W        W44235  22.812   5.546  23.504 -0.3066 -0.2363  0.1698
 1298W        W44236  24.817   6.966  27.107 -0.1729  0.1047  0.1669
 1299W        W44237  24.075   6.247  26.442  0.0046  0.0623  0.3584
 1300W        W44238  24.555   7.265  26.851  0.2728  0.1540 -0.1381
 1301W        W44239  22.815   5.138  25.831  0.3084  0.0476 -0.1207
 1302W        W44240  26.551   5.297  23.818  0.1836  0.0858  0.2562
 1303W        W44241  24.342   8.130  27.521  0.0948  0.0821 -0.1780
 1304W        W44242  25.710   9.148  27.942  0.1241 -0.1871  0.0050
 1305W        W44243  24.988   7.688  26.078  0.1172 -0.2089 -0.2752
 1306W        W44244  24.171   5.530  25.245 -0.2467 -0.0176  0.2400
 1307W        W44245  23.057   3.304  26.957  0.0187  0.2139  0.2870
 1308W        W44246  23.351   7.044  25.635  0.0362 -0.2747  0.1146
 1309W        W44247  23.667   6.637  23.649  0.0926 -0.1633 -0.2888
 1310W        W44248  24.104   6.324  25.879 -0.3106  0.3489  0.1881
 1311W        W44249  21.960   5.209  26.488  0.0026  0.3050  0.5396
 1312W        W44250  25.435   3.921  24.852  0.1643  0.2700 -0.2496
 1313W        W44251  25.134   7.541  25.336  0.2954  0.0343  0.0026
 1314W        W44252  23.551   5.739  26.957  0.2282 -0.1486 -0.2082
 1315W        W44253  23.280   7.538  31.061 -0.2503 -0.2425 -0.2815
 1316W        W44254  21.519   5.642  27.682  0.0262 -0.2387  0.1512
 1317W        W44255  24.198   5.234  27.624 -0.1432 -0.0293  0.1585
 1318W        W44256  26.022   6.376  27.214  0.1282  0.2974  0.2664
 1319W        W44257  21.075   4.898  28.162  0.1249  0.2008 -0.0014
 1320W        W44258  25.089   7.328  29.646 -0.0180 -0.0142  0.0647
 1321W        W44259  23.646   3.069  30.963  0.1586  0.0219 -0.0682
 1322W        W44260  22.543   7.850  29.525 -0.3171 -0.0314 -0.0167
 1323W        W44261  24.810   7.767  29.690 -0.1511  0.3068 -0.4858
 1324W        W44262  24.063   8.070  26.534 -0.2130  0.2497  0.0283
 1325W        W44263  23.240   4.658  30.905 -0.3495 -0.2389 -0.3187
 1326W        W44264  22.837   6.934  30.471 -0.0147 -0.3066 -0.0280
 1327W        W44265  23.959   4.234  28.551 -0.3202  0.0321  0.0049
 1328W        W44266  21.338   5.692  29.405 -0.0711  0.1394 -0.3563
 1329W        W44267  25.147   4.238  30.403  0.0339 -0.1170  0.0595
 1330W        W44268  23.960   4.860  28.962  0.1970 -0.1147 -0.2372
 1331W        W44269  22.834   5.462  30.430  0.3206  0.1128 -0.1145
 1332W        W44270  24.748   5.273  27.863 -0.0906  0.0898 -0.2081
 1333W        W44271  24.280   7.370  28.391  0.0880  0.3294  0.2183
 1334W        W44272  23.073   5.015  30.236  0.1986  0.3042  0.0339
 1335W        W44273  22.429   5.417  30.788  0.1404  0.2356 -0.1659
 1336W        W44274  24.675   5.394  28.695 -0.0135 -0.0344  0.3174
 1337W        W44275  22.840   5.404  27.082 -0.0103  0.2332 -0.1052
 1338W        W44276  20.468   4.650  29.880  0.0326  0.1615  0.1024
 1339W        W44277  22.410   5.533  29.082 -0.1452 -0.0913  0.0054
 1340W        W44278  24.870   5.163  30.083 -0.1287 -0.1335 -0.0542
 1341W        W44279  26.161   4.545  28.806  0.3825  0.1148 -0.0156
 1342W        W44280  23.510   7.728  30.511 -0.0551 -0.1964  0.3379
 1343W        W44281  23.293   8.208  30.496  0.2727 -0.4071 -0.0963
 1344W        W44282  25.485   5.331  28.667 -0.1543  0.0341  0.1676
 1345W        W44283  22.111   5.442  29.854 -0.1352 -0.2861 -0.0189
 1346W        W44284  21.599   7.629  28.536  0.0739  0.1785  0.0398
 1347W        W44285  23.175   6.116  28.787 -0.1047 -0.3678  0.3788
 1348W        W44286  26.614   7.857  29.535  0.1096  0.2085 -0.0062
 1349W        W44287  24.466   7.106  30.370  0.1420  0.1300  0.2338
 1350W        W44288  23.530   6.247   1.055  0.1070 -0.0249  0.1227
 1351W        W44289  22.450   6.573  28.595 -0.0168 -0.1472  0.3576
 1352W        W44290  21.996   7.761  29.807 -0.4148 -0.2190 -0.0431
 1353W        W44291  22.238   7.797  31.390  0.1472 -0.1367 -0.3815
 1354W        W44292  23.714   6.244  29.310  0.0551  0.1235  0.2349
 1355W        W44293  24.220   4.988  29.339 -0.2445 -0.2768  0.2810
 1356W        W44294  23.095   7.811  30.251 -0.1110 -0.1476 -0.2304
 1357W        W44295  21.434   6.343  30.586  0.1091  0.2479 -0.2604
 1358W        W44296  21.889   6.642  31.538 -0.1636  0.2377  0.2950
 1359W        W44297  21.956   7.131  30.233 -0.2273 -0.3447 -0.2488
 1360W        W44298  23.820   5.652   0.070  0.1545 -0.1738 -0.0047
 1361W        W44299  22.874   6.845  29.657  0.0666 -0.3983 -0.1906
 1362W        W44300  23.647   5.268  27.692 -0.0791  0.0100  0.3916
 1363W        W44301  22.334   5.786  25.996  0.3009 -0.0355  0.3231
 1364W        W44302  24.069   5.106  28.548 -0.1997 -0.1057 -0.3164
 1365W        W44303  22.461   3.819  28.445 -0.3370  0.1914 -0.2430
 1366W        W44304  22.296   7.577  30.826  0.2594 -0.1244 -0.2401
 1367W        W44305  23.322   3.779  30.032 -0.2697 -0.2665 -0.0919
 1368W        W44306  25.221   6.374   0.088  0.1677 -0.1493  0.3365
 1369W        W44307  22.893   5.647  29.049  0.0175  0.2919  0.1308
 1370W        W44308  23.649   5.733  30.327  0.0343  0.3516 -0.1232
 1371W        W44309  21.880   7.872  30.757 -0.0589 -0.3162 -0.1446
 1372W        W44310  22.263   6.094  28.836 -0.0108  0.1801  0.0825
 1373W        W44311  25.436   7.379  27.752  0.0397 -0.0605  0.2364
 1374W        W44312  25.204   6.900  29.346 -0.3198  0.0816 -0.3068
 1375W        W44313  25.388   7.098  28.488 -0.0816 -0.0757 -0.1516
 1376W        W44314  21.709   6.041  28.041  0.1301 -0.1684 -0.0120
 1377W        W44315  21.331   3.831  28.878  0.1916 -0.0804  0.4373
 1378W        W44316  22.041   4.995  29.682  0.0487 -0.1069  0.0571
 1379W        W44317  21.354   3.218  26.823 -0.0733 -0.1080  0.1199
 1380W        W44318  25.497   7.193  30.419  0.1660  0.1139 -0.3045
 1381W        W44319  21.602   6.887  30.998  0.1113  0.0044 -0.1650
 1382W        W44320  25.003   5.009  28.787  0.0266 -0.2607  0.0785
 1383W        W44321  22.725   6.415  29.516 -0.0332  0.1815 -0.1403
 1384W        W44322  24.161   7.142  29.853  0.2180 -0.0253  0.1732
 1385W        W44323  23.693   7.293  27.038 -0.0610 -0.0498 -0.1748
 1386W        W44324  24.144   4.806  30.581  0.1320  0.3079  0.2175
 1387W        W44325  24.774   5.607  29.796  0.2741  0.1323 -0.1261
 1388W        W44326  24.235   6.797  27.695  0.0881  0.2659 -0.3813
 1389W        W44327  24.190   5.511  28.100  0.1636 -0.2418  0.0031
 1390W        W44328  24.980   7.204  30.532  0.1852 -0.1387 -0.1264
 1391W        W44329  25.748   4.631  27.981  0.1527  0.2042 -0.1313
 1392W        W44330  22.319   6.219  30.436  0.1680  0.1114 -0.2514
 1393W        W44331  21.932   6.291  30.815  0.1830 -0.0865 -0.0670
 1394W        W44332  25.212   6.264  31.547  0.0294 -0.1036 -0.1831
 1395W        W44333  24.370   7.060  28.806 -0.1897 -0.2670 -0.1787
 1396W        W44334  21.071   6.570  30.288  0.1221 -0.1626  0.2492
 1397W        W44335  22.373   7.748  27.610  0.0348 -0.1383 -0.2678
 1398W        W44336  21.226   4.662  29.412  0.3061  0.2422  0.1452
 1399W        W44337  23.413   7.194  30.451  0.2598  0.1320 -0.2495
 1400W        W44338  23.305   4.928  27.518 -0.5541 -0.2068 -0.0029
 1401W        W44339  20.409   5.149  31.452 -0.0342  0.2857 -0.1615
 1402W        W44340  24.277   3.546  28.339 -0.2577 -0.0623  0.1053
 1403W        W44341  22.627   5.871  30.515 -0.1171  0.3194  0.1282
 1404W        W44342  26.153   6.852  28.463 -0.0626 -0.1975  0.1809
 1405W        W44343  24.956   4.791  27.857  0.1857  0.0553  0.3673
 1406W        W44344  24.821   7.326  28.362  0.1163  0.1635 -0.3340
 1407W        W44345  22.376   4.682  29.201  0.2733 -0.2975 -0.2710
 1408W        W44346  20.700   5.766  29.183  0.0180  0.1248  0.2024
 1409W        W44347  21.705   2.727  31.248  0.1615  0.1660 -0.1066
 1410W        W44348  22.613   3.708  30.322 -0.1270 -0.1869 -0.0907
 1411W        W44349  24.714   5.206  31.785  0.1054  0.1478  0.1041
 1412W        W44350  22.419   4.672  27.684 -0.4268  0.0973  0.1838
 1413W        W44351  23.429   4.186  28.557 -0.2225 -0.0950 -0.0064
 1414W        W44352  23.808   5.263  29.205 -0.0262 -0.0645  0.1696
 1415W        W44353  22.411   7.252  27.805  0.1331 -0.0988  0.1382
 1416W        W44354  25.460   4.201  30.035 -0.2369  0.0506  0.2078
 1417W        W44355  22.512   7.526  29.034  0.0819  0.0202 -0.3631
 1418W        W44356  24.577   7.379  30.789 -0.0872 -0.1707  0.0370
 1419W        W44357  24.905   6.788  29.702 -0.1650  0.0930 -0.1626
 1420W        W44358  21.920   4.528  30.025 -0.1268  0.1970  0.0717
 1421W        W44359  22.191   3.510  27.291 -0.1961 -0.1369 -0.2732
 1422W        W44360  20.672   7.706  30.204 -0.1004  0.2688  0.0836
 1423W        W44361  23.043   6.377  29.979 -0.1495  0.1671  0.2237
 1424W        W44362  22.023   4.808  27.997  0.1392  0.4266 -0.1061
 1425W        W44363  25.602   8.321  30.299  0.0740 -0.0178  0.1041
 1426W        W44364  24.302   5.799  29.556 -0.0292  0.0787  0.0594
 1427W        W44365  21.818   7.299   0.047 -0.0442  0.0628  0.4053
 1428W        W44366  24.360   3.360  29.989  0.1411  0.1047 -0.1647
 1429W        W44367  25.672   5.730  30.015 -0.1613  0.2640  0.1506
 1430W        W44368  24.292   6.627  31.123  0.0151 -0.1159  0.1359
 1431W        W44369  21.917   4.570  27.538  0.1567 -0.0604  0.3011
 1432W        W44370  23.524   7.730  28.930 -0.0404 -0.1368 -0.1399
 1433W        W44371  23.151   7.019  29.237  0.0544 -0.1715  0.1312
 1434W        W44372  22.970   6.626  28.820 -0.1469 -0.5118  0.1718
 1435W        W44373  23.776   5.874  28.108  0.0653  0.3842 -0.1006
 1436W        W44374  25.837   4.894  29.064 -0.0705 -0.0823 -0.2644
 1437W        W44375  21.325   6.446  31.557  0.1896 -0.1027 -0.0040
 1438W        W44376  22.718   6.524  30.902 -0.4032 -0.1360  0.2536
 1439W        W44377  22.705   5.574  27.986  0.1675  0.1549 -0.2186
 1440W        W44378  22.191   8.307  31.498 -0.2447  0.1836  0.0853
 1441W        W44379  24.269   4.078  29.155  0.1350 -0.0579  0.2010
 1442W        W44380  24.671   6.167  25.646  0.1026  0.0789 -0.0401
 1443W        W44381  24.084   5.656  31.537  0.3400 -0.3592  0.1919
 1444W        W44382  23.395   5.994  29.570  0.0487 -0.3177 -0.1491
 1445W        W44383  24.525   5.782  27.742 -0.3164 -0.0238  0.0593
 1446W        W44384  23.687   4.911  27.068  0.0251  0.0471 -0.0902
 1447W        W44385  21.027   7.605  30.552  0.1974  0.2411 -0.1070
 1448W        W44386  23.755   6.543  29.826  0.2579  0.0671 -0.1470
 1449W        W44387  23.495   5.295  30.131  0.0926  0.0602 -0.0494
 1450W        W44388  23.387   5.493  29.439 -0.1195 -0.1294 -0.0702
 1451W        W44389  25.312   7.681  27.370  0.3601 -0.4157 -0.0233
 1452W        W44390  20.957   6.990  30.569  0.2371  0.0965 -0.2798
 1453W        W44391  24.171   6.086  31.015  0.0134  0.4068 -0.0225
 1454W        W44392  24.703   7.196  29.930  0.0259 -0.0754 -0.0232
 1455W        W44393  23.621   3.561  30.458  0.2348  0.1430 -0.0000
 1456W        W44394  21.561   5.653  27.120  0.2220 -0.3313 -0.0680
 1457W        W44395  24.570   4.656  29.197  0.1594  0.4168 -0.2164
 1458W        W44396  22.632   6.939  29.208  0.0701 -0.0866 -0.0464
 1459W        W44397  24.023   3.274   0.142  0.0967 -0.1598 -0.0391
 1460W        W44398  22.679   4.334  29.348  0.0299  0.0183  0.0610
 1461W        W44399  23.344   5.511  30.695  0.0965  0.0241  0.1178
 1462W        W44400  26.438   5.756  31.665  0.1916  0.1223 -0.0236
 1463W        W44401  22.804   5.060  27.458 -0.1412 -0.2715  0.0187
 1464W        W44402  23.647   4.793  30.014  0.0084  0.0525  0.2186
 1465W        W44403  23.593   6.261  27.774 -0.1151  0.4713 -0.2592
 1466W        W44404  23.494   4.329  31.181  0.0294  0.0068  0.1635
 1467W        W44405  22.745   6.432  30.425 -0.0927  0.1000  0.0445
 1468W        W44406  22.505   9.545  30.318 -0.0849  0.0928 -0.0804
 1469W        W44407  25.019   6.004  31.154  0.0370 -0.3180  0.0869
 1470W        W44408  23.958   5.764  27.623  0.1407 -0.0159 -0.2007
 1471W        W44409  23.714   3.988  30.874 -0.0971 -0.0227 -0.0549
 1472W        W44410  23.468   4.679  28.975 -0.1647  0.3617  0.5504
 1473W        W44411  23.709   7.784  27.369 -0.1416 -0.0145 -0.1082
 1474W        W44412  23.656   5.483  28.781  0.1325 -0.1215  0.1105
 1475W        W44413  22.786   4.054  30.623  0.3211  0.2509 -0.2610
 1476W        W44414  23.089   5.901  30.408 -0.1626 -0.0326 -0.1121
 1477W        W44415  24.173   8.545  27.241 -0.3054 -0.2536 -0.3933
 1478W        W44416  24.343   5.690  30.611  0.5031 -0.2152  0.0527
 1479W        W44417  22.843   6.702  28.150  0.1640  0.0116  0.1114
 1480W        W44418  24.742   2.902  30.010 -0.0982  0.0423 -0.0033
 1481W        W44419  21.095   6.945  29.947  0.1685  0.0601  0.1610
 1482W        W44420  23.189   4.710  27.044  0.1089 -0.1140 -0.2093
 1483W        W44421  21.312   5.967  28.350  0.0975 -0.1439  0.0873
 1484W        W44422  25.176   3.660  29.009 -0.1415 -0.1933 -0.1972
 1485W        W44423  25.592   6.926  27.963 -0.4293 -0.1547 -0.3767
 1486W        W44424  22.307   3.309  29.584 -0.1887 -0.0056 -0.0749
 1487W        W44425  22.697   4.330  27.962 -0.1852 -0.0509 -0.2203
 1488W        W44426  21.691   9.106  31.486 -0.0739  0.0281  0.1102
 1489W        W44427  25.512   4.426  31.217 -0.2204 -0.1625 -0.3269
 1490W        W44428  24.193   4.902  27.233 -0.1712 -0.1136 -0.2157
 1491W        W44429  24.915   8.621  31.126  0.1984 -0.0682 -0.1898
 1492W        W44430  23.539   8.212  31.519 -0.0274  0.4185  0.0635
 1493W        W44431  21.842   3.737  27.732  0.2404  0.2822  0.1737
 1494W        W44432  25.407   5.608  30.661 -0.1968 -0.2075  0.1769
 1495W        W44433  21.951   5.471  29.291  0.1443 -0.2569 -0.1532
 1496W        W44434  22.855   5.331  29.569  0.2962 -0.0313  0.3236
 1497W        W44435  22.907   7.385  30.019  0.1326  0.4127  0.1472
 1498W        W44436  23.150   4.607  28.387  0.2312 -0.3093  0.1382
 1499W        W44437  23.611   6.653  30.291  0.0755  0.0699  0.1603
 1500W        W44438  23.614   4.409  30.587  0.1429 -0.2039  0.0974
 1501W        W44439  24.276   5.518  31.068 -0.0312 -0.1044 -0.0685
 1502W        W44440  22.934   4.851  28.792  0.1504  0.1495  0.0400
 1503W        W44441  22.721   6.245  29.034  0.1036  0.1007 -0.0354
 1504W        W44442  22.237   4.851  28.638 -0.2887 -0.1017 -0.1096
 1505W        W44443  24.332   4.438  31.300  0.4103 -0.3624  0.0132
 1506W        W44444  24.774   5.215  29.245 -0.1338  0.1871 -0.0334
 1507W        W44445  22.249   5.794  30.162 -0.3085 -0.1834  0.2204
 1508W        W44446  23.791   3.830  29.389  0.0668 -0.2114  0.0481
 1509W        W44447  25.898   8.049  28.833 -0.1112 -0.0086  0.2299
 1510W        W44448  23.347   5.993  30.817  0.0080  0.0997 -0.0102
 1511W        W44449  23.398   5.036  28.575 -0.0177  0.0156 -0.0963
 1512W        W44450  21.077   4.370  30.852  0.1132  0.2498  0.2219
 1513W        W44451  22.384   5.241  29.455 -0.1307 -0.3302  0.3592
 1514W        W44452  23.441   4.586  29.528 -0.1418  0.3904 -0.1852
 1515W        W44453  21.614   6.424  31.165 -0.1373  0.0567  0.0944
 1516W        W44454  21.893   5.058  27.419  0.4142  0.0347  0.2643
 1517W        W44455  20.905   8.023  29.316  0.2632 -0.1647 -0.0849
 1518W        W44456  26.115   4.459  29.246 -0.1442 -0.3787 -0.0247
 1519W        W44457  24.917   8.040  27.616  0.0379  0.0360 -0.0450
 1520W        W44458  24.187   4.659  28.342  0.0710  0.6060  0.2874
 1521W        W44459  26.116   5.753  29.153  0.0993  0.2093 -0.0555
 1522W        W44460  23.420   4.762  27.999  0.1913 -0.2119  0.0032
 1523W        W44461  25.454   5.224   0.053 -0.0093  0.0884  0.0068
 1524W        W44462  22.070   3.407  30.977  0.0855 -0.1518  0.3331
 1525W        W44463  25.031   5.717  28.663 -0.0307 -0.1429 -0.3773
 1526W        W44464  22.434   5.310  28.622  0.2894  0.2461  0.0787
 1527W        W44465  24.586   6.790  31.591 -0.0116  0.1305 -0.3283
 1528W        W44466  21.092   5.560  30.999 -0.1267 -0.5867  0.3887
 1529W        W44467  22.881   5.257  28.368 -0.1667 -0.2251 -0.0837
 1530W        W44468  23.734   3.355  27.641 -0.3342  0.1669 -0.1291
 1531W        W44469  23.065   5.768  31.597 -0.1239 -0.0504 -0.0931
 1532W        W44470  24.428   6.513  30.621 -0.1334  0.0197 -0.2048
 1533W        W44471  23.952   5.041  28.062 -0.1943  0.0151  0.2516
 1534W        W44472  24.847   4.264  29.015  0.0737  0.1410 -0.2074
 1535W        W44473  20.770   5.522  29.711 -0.1301  0.3229 -0.0229
 1536W        W44474  23.855   5.743  29.384 -0.0252 -0.1497  0.2870
 1537W        W44475  23.959   6.947  29.052 -0.1061 -0.1917  0.0795
 1538W        W44476  21.752   5.689  29.701 -0.0246 -0.1450  0.0410
 1539W        W44477  23.481   3.541  30.932 -0.0102  0.0383 -0.2309
 1540W        W44478  24.072   7.582   0.400  0.2271 -0.1429  0.0358
 1541W        W44479  24.085   4.380  30.815 -0.0720  0.2060 -0.0643
 1542W        W44480  26.239   5.026  29.310  0.0399 -0.2230  0.2126
 1543W        W44481  23.865   5.292  30.718 -0.2951  0.3037 -0.0634
 1544W        W44482  23.050   6.071  31.236 -0.1564  0.1604 -0.0801
 1545W        W44483  21.109   4.788  30.287  0.1023  0.0259 -0.3834
 1546W        W44484  24.110   7.507  31.201 -0.1246 -0.1751 -0.1367
 1547W        W44485  24.671   5.309  26.468 -0.0821  0.3517  0.0040
 1548W        W44486  25.873   4.844  29.781 -0.2359  0.1014 -0.2563
 1549W        W44487  25.292   7.503  28.755 -0.0677 -0.0806  0.2624
 1550W        W44488  25.390   6.297  26.385 -0.2645 -0.0317  0.3934
 1551W        W44489  22.730   4.884  29.725 -0.0959  0.0561 -0.2915
 1552W        W44490  24.258   6.409  31.568 -0.0253  0.1177 -0.0047
 1553W        W44491  22.951   4.570  27.492 -0.0639  0.0273 -0.0137
 1554W        W44492  23.447   5.125  31.042  0.2718 -0.3386  0.1618
 1555W        W44493  25.081   7.039  28.021 -0.0982  0.1165  0.3877
 1556W        W44494  23.933   5.952  28.954  0.1241  0.0091  0.0966
 1557W        W44495  24.280   4.479  28.824  0.1145 -0.3260 -0.1021
 1558W        W44496  21.391   3.108  28.844 -0.1127  0.0062  0.4882
 1559W        W44497  21.551   8.097   0.339 -0.3703 -0.0283  0.0470
 1560W        W44498  21.516   6.277  29.129 -0.4223  0.2116 -0.1359
 1561W        W44499  23.597   5.956  28.562  0.1236 -0.1769 -0.0445
 1562W        W44500  23.845   5.807  30.788  0.0092 -0.1464  0.0976
 1563W        W44501  25.377   6.376  30.874  0.0836 -0.2164 -0.0693
 1564W        W44502  23.462   3.720  27.277  0.0090 -0.0168 -0.0405
 1565W        W44503  23.685   5.297  31.596  0.1316 -0.1795 -0.1768
 1566W        W44504  22.501   5.627  27.477 -0.1212 -0.1522  0.0544
 1567W        W44505  23.297   2.990  30.260 -0.2830  0.2566 -0.0066
 1568W        W44506  21.353   7.265   0.443 -0.1360 -0.2479  0.1722
 1569W        W44507  22.256   6.651  29.517 -0.3463  0.0154 -0.1354
 1570W        W44508  21.552   8.052  29.802  0.1862 -0.0051  0.1834
 1571W        W44509  24.635   4.833  31.412 -0.5584  0.1344 -0.2035
 1572W        W44510  26.051   6.370  28.637 -0.0614  0.0731 -0.0007
 1573W        W44511  23.985   5.134  30.219 -0.0165 -0.0675 -0.1184
 1574W        W44512  23.976   4.860  31.459 -0.1804  0.1462 -0.0173
 1575W        W44513  23.472   6.169  30.126  0.0500 -0.2185  0.0169
 1576W        W44514  21.204   5.842  30.589 -0.0287 -0.1388  0.1107
 1577W        W44515  24.415   7.541  30.146 -0.2007  0.2281 -0.0931
 1578W        W44516  24.884   7.839  28.290 -0.1094 -0.2274  0.1347
 1579W        W44517  24.494   6.957  29.506 -0.1850 -0.0283  0.2434
 1580W        W44518  20.992   4.513  29.918  0.1201  0.2890 -0.1469
 1581W        W44519  22.964   7.401  30.552 -0.0532  0.1548  0.3582
 1582W        W44520  24.616   6.172  29.766  0.0740  0.1674  0.1581
 1583W        W44521  22.286   3.740  27.939  0.0290 -0.0840 -0.1480
 1584W        W44522  23.932   7.875  29.164  0.1414  0.1112  0.1234
 1585W        W44523  21.280   7.250  30.894  0.2157  0.3485  0.0949
 1586W        W44524  21.854   5.958  29.298 -0.2133  0.2450  0.3283
 1587W        W44525  23.236   7.252  29.700  0.4104 -0.1113  0.4134
 1588W        W44526  24.202   6.820  28.191 -0.3569  0.3873 -0.0649
 1589W        W44527  23.917   6.871  29.519 -0.2480 -0.0473 -0.0060
 1590W        W44528  23.524   8.575  30.693  0.2086 -0.2017  0.0353
 1591W        W44529  22.349   4.327  28.338  0.0687  0.1321  0.2753
 1592W        W44530  21.601   7.587  30.043 -0.1224  0.0680 -0.2529
 1593W        W44531  21.841   5.995  26.931  0.2290  0.0148 -0.0903
 1594W        W44532  25.015   7.278  27.419  0.0253 -0.2526  0.3361
 1595W        W44533  21.642   8.542  31.126 -0.0003 -0.1480 -0.3795
 1596W        W44534  25.613   6.243  29.838  0.0094  0.2304 -0.2060
 1597W        W44535  24.777   4.109  27.807  0.0756  0.2338  0.1083
 1598W        W44536  23.922   6.093  29.782  0.0671  0.0049 -0.1918
 1599W        W44537  25.224   5.945  28.263 -0.1087 -0.0632 -0.0829
 1600W        W44538  24.734   5.939   0.721 -0.1548  0.1774  0.2652
 1601W        W44539  23.857   5.552  29.850 -0.1135  0.0353  0.0422
 1602W        W44540  24.926   4.562  27.180 -0.2838  0.0126  0.1105
 1603W        W44541  21.605   5.216  29.611  0.0433  0.1597  0.0676
 1604W        W44542  24.599   4.612  30.954 -0.3063 -0.0769  0.0332
 1605W        W44543  20.650   8.727  31.698 -0.2234  0.1620 -0.0059
 1606W        W44544  25.705   7.865  27.589 -0.1291 -0.0645  0.2347
 1607W        W44545  21.787   6.053  28.666 -0.2878 -0.0124 -0.0542
 1608W        W44546  23.003   4.750  29.309 -0.0347  0.0379 -0.0750
 1609W        W44547  25.112   5.282  29.607 -0.3565  0.2566 -0.1433
 1610W        W44548  24.881   6.092  27.965 -0.3349  0.0852  0.2757
 1611W        W44549  24.159   4.814  29.800 -0.1363  0.3323 -0.0304
 1612W        W44550  23.092   8.285  29.709 -0.2444  0.1069  0.0845
 1613W        W44551  22.582   6.571  29.978 -0.2493  0.0816 -0.3356
 1614W        W44552  22.380   7.283  31.270  0.0305 -0.0273  0.0206
 1615W        W44553  22.934   3.559  27.450 -0.1534 -0.4339 -0.3735
 1616W        W44554  24.701   6.872  28.387 -0.0272  0.2344  0.0979
 1617W        W44555  23.196   5.047  29.738  0.2049 -0.0569 -0.0195
 1618W        W44556  24.746   4.622  28.613  0.1053  0.0245  0.1333
 1619W        W44557  23.080   5.452  27.624 -0.2263  0.3868 -0.2742
 1620W        W44558  24.316   6.117  28.219 -0.0849  0.1688 -0.0032
 1621W        W44559  24.002   6.338  30.205  0.0168 -0.2404  0.2175
 1622W        W44560  22.621   4.449  28.816  0.2072 -0.0206 -0.0184
 1623W        W44561  22.679   6.015  29.994 -0.2623  0.0214 -0.2560
 1624W        W44562  24.903   4.856   0.229 -0.0815  0.2480 -0.1694
 1625W        W44563  22.957   3.681  26.606  0.3900 -0.1682 -0.0448
 1626W        W44564  24.409   7.111  31.212 -0.2006 -0.0499 -0.0496
 1627W        W44565  22.515   5.696  29.593 -0.0255 -0.0816  0.3265
 1628W        W44566  25.353   4.490  27.738 -0.0457 -0.0651 -0.1301
 1629W        W44567  21.039   6.074  27.927 -0.0515 -0.0280 -0.0958
 1630W        W44568  25.224   6.015  29.565  0.0421 -0.0732  0.0108
 1631W        W44569  24.631   7.679  31.195  0.0891 -0.0719  0.0403
 1632W        W44570  23.490   5.471  28.233 -0.1038  0.2101  0.2961
 1633W        W44571  25.522   6.402  27.479  0.2678 -0.0072  0.0985
 1634W        W44572  25.744   6.200  29.038 -0.5392 -0.1482  0.1841
 1635W        W44573  23.556   6.646  29.147  0.0256 -0.0250  0.1327
 1636W        W44574  23.897   7.231  30.333 -0.0014 -0.0683  0.1035
 1637W        W44575  24.818   8.184  29.422  0.0344 -0.0015 -0.0997
 1638W        W44576  22.614   5.769  28.642 -0.3737  0.1928 -0.2005
 1639W        W44577  24.365   7.578  29.630 -0.0384  0.5154  0.1558
 1640W        W44578  25.062   6.148  30.586 -0.5309 -0.2742 -0.2055
 1641W        W44579  24.873   4.048  27.293  0.1678  0.0785 -0.0490
 1642W        W44580  24.004   4.430  29.461  0.0374 -0.2531  0.0858
 1643W        W44581  23.532   6.461  28.731 -0.0084  0.1188  0.1381
 1644W        W44582  25.231   4.600  30.736  0.2093 -0.2644 -0.1278
 1645W        W44583  26.125   5.895  30.972 -0.1690 -0.1020 -0.0636
 1646W        W44584  24.446   7.543  28.820  0.2881 -0.1204  0.0676
 1647W        W44585  24.468   3.530  31.130 -0.2078  0.0995 -0.4365
 1648W        W44586  25.089   6.806  31.279 -0.5170  0.0862  0.0130
 1649W        W44587  23.163   6.876  31.682 -0.1067  0.0021 -0.0720
 1650W        W44588  22.887   4.945  27.972  0.0764 -0.0233 -0.0664
 1651W        W44589  22.685   6.313  31.404 -0.0165  0.2020  0.0452
 1652W        W44590  23.548   7.502  29.976  0.0337  0.3249  0.1824
 1653W        W44591  21.584   6.836  29.824 -0.2199 -0.1268  0.0482
 1654W        W44592  24.965   7.068  28.864 -0.2327  0.3737  0.1604
 1655W        W44593  24.412   3.960  28.658  0.2795  0.2568 -0.1494
 1656W        W44594  24.741   5.732  29.219  0.3800 -0.1354  0.0684
 1657W        W44595  24.269   5.564  29.076  0.1673 -0.2813 -0.0449
 1658W        W44596  24.783   3.588  28.748 -0.0344 -0.1693 -0.2552
 1659W        W44597  24.761   3.112  28.548 -0.1806 -0.1673  0.0667
 1660W        W44598  21.531   6.472  30.119  0.1207 -0.0602 -0.2593
 1661W        W44599  21.714   5.611  28.234 -0.0286 -0.0098 -0.0733
 1662W        W44600  23.928   6.300  28.468  0.2936  0.0381  0.1357
 1663W        W44601  22.898   5.937  29.518 -0.4383 -0.0735  0.1986
 1664W        W44602  23.465   4.743  31.362  0.2228 -0.3136 -0.1178
 1665W        W44603  22.177   4.212  29.320 -0.0776 -0.2423  0.1545
 1666W        W44604  22.889   6.018  27.601  0.1954 -0.0992  0.2750
 1667W        W44605  23.175   5.584  28.676 -0.0125  0.1578 -0.0923
 1668W        W44606  25.293   7.482  28.288 -0.2019 -0.2106 -0.0486
 1669W        W44607  21.723   3.954  29.186 -0.1239 -0.2021  0.1533
 1670W        W44608  21.663   4.814  28.640  0.1773 -0.2650  0.0067
 1671W        W44609  24.222   6.506  29.749  0.2407 -0.1811  0.0485
 1672W        W44610  24.766   6.222  29.269 -0.3222 -0.0831 -0.0956
 1673W        W44611  23.128   4.353  28.984 -0.0240  0.0065 -0.1879
 1674W        W44612  26.274   7.561  30.247 -0.0486  0.0854  0.4181
 1675W        W44613  22.304   6.082  27.351 -0.3236 -0.1357 -0.0925
 1676W        W44614  22.020   6.664  30.028  0.0288 -0.1712  0.1519
 1677W        W44615  23.939   3.480  31.042 -0.1437 -0.3448  0.2239
 1678W        W44616  22.119   4.592  25.339  0.1877  0.1091  0.3955
 1679W        W44617  22.760   5.150  29.112  0.0588 -0.3285  0.1832
 1680W        W44618  24.795   6.165  28.479 -0.1628  0.0531  0.1175
 1681W        W44619  26.439   7.862  27.417 -0.1530  0.1642  0.1386
 1682W        W44620  23.942   6.537  30.626  0.2804 -0.0910 -0.1168
 1683W        W44621  24.333   7.882  31.593 -0.0621 -0.0812 -0.2469
 1684W        W44622  20.980   5.205  29.245  0.2721  0.0174  0.2546
 1685W        W44623  24.452   5.013  28.877  0.0129  0.1006 -0.1672
 1686W        W44624  22.587   7.873  30.419 -0.2297  0.0489  0.2450
 1687W        W44625  25.990   7.363  27.630 -0.0782 -0.0625  0.3176
 1688W        W44626  25.152   5.231  30.578 -0.4838 -0.2538  0.3859
 1689W        W44627  25.608   5.809  28.759  0.2514  0.0875 -0.0654
 1690W        W44628  21.330   2.946  30.629 -0.3868  0.1259  0.1403
 1691W        W44629  22.521   7.028  30.853  0.1925 -0.0747 -0.0285
 1692W        W44630  24.952   6.618  30.475  0.0639 -0.1755 -0.1069
 1693W        W44631  22.668   4.693  28.383  0.0886 -0.0718 -0.3143
 1694W        W44632  24.399   3.925  27.419  0.2022  0.2204 -0.2328
 1695W        W44633  25.765   7.480  27.249  0.3553 -0.0302  0.1664
 1696W        W44634  20.551   5.087  29.599  0.2968  0.2076  0.1033
 1697W        W44635  23.698   5.137  29.679 -0.2775 -0.1805  0.1678
 1698W        W44636  24.254   5.730  30.065  0.2358  0.0652  0.2625
 1699W        W44637  21.904   7.269  29.695  0.1167 -0.0032 -0.0914
 1700W        W44638  26.388   6.648  31.395  0.0798 -0.2985 -0.2500
 1701W        W44639  24.646   5.094  27.286 -0.1150 -0.1673 -0.0032
 1702W        W44640  24.480   6.656  29.087  0.2388 -0.2786  0.0650
 1703W        W44641  23.853   8.051  30.672 -0.0329 -0.1219 -0.1550
 1704W        W44642  25.771   7.857  31.916  0.2307  0.0496 -0.1639
 1705W        W44643  22.206   8.213  31.012  0.1327 -0.4790  0.0938
 1706W        W44644  25.196   6.469  29.922 -0.0957 -0.2114 -0.0224
 1707W        W44645  22.283   4.538  29.665  0.1191  0.1624 -0.1287
 1708W        W44646  22.024   5.776  27.801 -0.1084 -0.2189 -0.0843
 1709W        W44647  23.284   5.181  29.057  0.4816 -0.1167 -0.0502
 1710W        W44648  25.312   4.992  29.246  0.4187  0.2359 -0.1125
 1711W        W44649  21.984   5.189  28.441  0.0151 -0.2477 -0.1441
 1712W        W44650  24.040   3.599  28.814  0.0003 -0.3327  0.2453
 1713W        W44651  20.951   9.032   0.254 -0.0428  0.0526 -0.2574
 1714W        W44652  22.628   5.372  29.974 -0.0883 -0.0390 -0.1072
 1715W        W44653  24.025   4.374   0.587  0.0088 -0.1077  0.1909
 1716W        W44654  23.486   5.670   0.393 -0.3144  0.1576 -0.1256
 1717W        W44655  20.585   5.614  30.173 -0.0211 -0.1289 -0.0105
 1718W        W44656  22.190   7.541  31.840 -0.2275  0.0431  0.1408
 1719W        W44657  22.927   5.696   0.989  0.1253 -0.0055  0.0584
 1720W        W44658  21.350   7.790   0.669  0.0593 -0.2163  0.0862
 1721W        W44659  24.776   4.357   0.909  0.1727 -0.0653  0.0817
 1722W        W44660  22.728   4.448  30.957 -0.1289 -0.0857 -0.1581
 1723W        W44661  24.291   5.208  31.460 -0.1070  0.0512 -0.0012
 1724W        W44662  25.432   7.651  29.794  0.1788  0.1639  0.1637
 1725W        W44663  24.983   7.205  31.050 -0.2699 -0.0929  0.2814
 1726W        W44664  22.698   4.449   0.122  0.1723 -0.1752 -0.0137
 1727W        W44665  22.891   5.654  30.912  0.2795  0.0800 -0.2320
 1728W        W44666  22.353   6.770  31.484  0.0203  0.0326  0.2648
 1729W        W44667  25.585   5.981   0.422  0.2331 -0.0545 -0.3875
 1730W        W44668  21.158   5.611  31.537 -0.1699  0.3108 -0.0014
 1731W        W44669  21.881   7.468  31.099 -0.0807  0.0057 -0.0216
 1732W        W44670  25.956   6.607  30.166 -0.1590  0.0788  0.1902
 1733W        W44671  23.043   3.326  31.261  0.2871  0.0539 -0.0286
 1734W        W44672  22.558   4.953   0.391 -0.3144  0.1211  0.0771
 1735W        W44673  23.142   4.089  30.935 -0.1056  0.3603  0.1184
 1736W        W44674  21.626   7.631  31.519  0.1023 -0.0856  0.2540
 1737W        W44675  24.858   6.777   0.251 -0.2154 -0.0760 -0.1402
 1738W        W44676  24.492   4.786  31.866  0.0238 -0.1287 -0.1923
 1739W        W44677  23.785   6.105   0.517 -0.2878 -0.0649 -0.0369
 1740W        W44678  22.272   5.336  30.343  0.1608 -0.0300  0.4795
 1741W        W44679  23.138   4.405  30.514 -0.0213  0.1749  0.1599
 1742W        W44680  22.087   6.378  31.900  0.0187  0.1168  0.2257
 1743W        W44681  22.979   4.815  31.329 -0.1712 -0.1382  0.0034
 1744W        W44682  22.447   6.042  31.755  0.2399  0.1413  0.1912
 1745W        W44683  22.727   6.646  31.794  0.1782 -0.0700 -0.0514
 1746W        W44684  22.630   5.792  31.365 -0.0422  0.0039  0.3345
 1747W        W44685  25.586   5.474   0.529  0.1452 -0.0434  0.1227
 1748W        W44686  25.008   4.324   0.105  0.1197 -0.2461  0.2796
 1749W        W44687  22.564   4.902  31.078 -0.0679 -0.1500 -0.3250
 1750W        W44688  23.479   5.229   0.128 -0.3382  0.1491  0.0561
 1751W        W44689  22.073   6.241  31.384 -0.0398 -0.1180 -0.1968
 1752W        W44690  23.456   6.900  31.243 -0.4170 -0.0324  0.1773
 1753W        W44691  23.956   4.829   1.051  0.0670  0.1890 -0.0836
 1754W        W44692  23.618   6.889  30.769  0.1047  0.0690  0.1174
 1755W        W44693  24.472   6.858   0.533  0.0359  0.0401 -0.1917
 1756W        W44694  23.195   5.196  31.679  0.0471 -0.0345  0.1162
 1757W        W44695  21.410   5.164  30.406  0.0951 -0.2944 -0.1198
 1758W        W44696  22.775   6.920  31.366  0.0380 -0.3111  0.0196
 1759W        W44697  21.989   5.425  30.994  0.0632 -0.0235 -0.0229
 1760W        W44698  24.611   6.352   0.355  0.0405  0.0084 -0.0476
 1761W        W44699  22.920   4.163   0.546  0.0456 -0.0445  0.1155
 1762W        W44700  23.696   6.620  31.635 -0.2212 -0.2115  0.0470
 1763W        W44701  24.714   6.315  31.842  0.2596  0.2830  0.2032
 1764W        W44702  22.713   8.441  31.805 -0.0655  0.2321 -0.1423
 1765W        W44703  25.890   8.685  31.001 -0.0822  0.0028 -0.1254
 1766W        W44704  25.855   4.704  30.912  0.2333  0.0351  0.2223
 1767W        W44705  22.138   4.487   0.031 -0.3824 -0.1782 -0.0524
 1768W        W44706  24.144   6.990  30.740  0.2121 -0.0969 -0.0986
 1769W        W44707  23.114   7.029  30.872  0.1779  0.0299 -0.0288
 1770W        W44708  23.626   4.705   0.538  0.0233  0.0195  0.1275
 1771W        W44709  24.517   6.013  31.451  0.1732 -0.1639 -0.0017
 1772W        W44710  22.207   6.861  31.971 -0.2559 -0.0671 -0.1136
 1773W        W44711  23.944   6.991  31.169 -0.0531  0.1988  0.1724
 1774W        W44712  23.179   5.684  29.948  0.1352  0.1602 -0.0672
 1775W        W44713  22.556   4.978  30.560 -0.2423 -0.1853  0.1622
 1776W        W44714  21.635   6.036  31.587  0.0012 -0.1064 -0.0369
 1777W        W44715  22.306   4.923  30.097  0.1533  0.2705 -0.0201
 1778W        W44716  22.647   4.010  31.213  0.2801 -0.1035 -0.0926
 1779W        W44717  24.909   8.199   0.489  0.1613 -0.0604 -0.2193
 1780W        W44718  25.711   7.736  31.096 -0.0377  0.0849  0.0060
 1781W        W44719  26.113   6.169   0.231  0.1426  0.1199 -0.0877
 1782W        W44720  23.817  10.012  18.330 -0.1418 -0.1814  0.0326
 1783W        W44721  22.596   8.637  16.664 -0.1145 -0.0602  0.1865
 1784W        W44722  24.994   8.194  15.878  0.0576  0.3164 -0.3279
 1785W        W44723  24.607   8.417  16.233  0.0833  0.1707 -0.3772
 1786W        W44724  21.055   7.345  17.372  0.2679  0.0784  0.2920
 1787W        W44725  23.725   9.496  16.659 -0.2348  0.0956  0.1138
 1788W        W44726  22.647   7.006  20.190 -0.2033  0.1211  0.2442
 1789W        W44727  24.754  10.247  18.316  0.0007  0.1657  0.1572
 1790W        W44728  25.155   9.874  19.020 -0.3855 -0.1217  0.3220
 1791W        W44729  21.989   9.200  15.133 -0.0483 -0.1092 -0.1634
 1792W        W44730  24.108   7.811  17.347  0.1258  0.1271 -0.1102
 1793W        W44731  23.477  10.620  19.787 -0.2807  0.2425 -0.1749
 1794W        W44732  21.724   7.527  17.847  0.0123 -0.1486  0.4332
 1795W        W44733  23.412   7.253  17.552  0.1560  0.0856  0.0598
 1796W        W44734  23.989   9.089  17.515 -0.0051  0.0866  0.1024
 1797W        W44735  21.413   8.538  17.863  0.0101 -0.1137 -0.0561
 1798W        W44736  23.890   7.983  18.870  0.1548 -0.0627  0.0731
 1799W        W44737  23.304   8.629  17.491 -0.0629 -0.0426  0.1847
 1800W        W44738  24.492  11.558  17.423 -0.1983 -0.1291 -0.1530
 1801W        W44739  23.929   7.111  19.762  0.0563 -0.0337  0.1009
 1802W        W44740  22.315   7.884  19.179 -0.0020 -0.0813  0.2933
 1803W        W44741  23.452   9.728  18.027  0.0860  0.4434 -0.4912
 1804W        W44742  20.849   9.159  16.665 -0.2783  0.1568  0.4148
 1805W        W44743  21.337   8.104  19.165  0.0479  0.0524 -0.1265
 1806W        W44744  22.867   9.689  18.848  0.2335  0.2186 -0.1431
 1807W        W44745  23.876   9.081  19.542  0.2229 -0.2718 -0.4415
 1808W        W44746  25.182  10.967  16.649 -0.0286 -0.3791  0.2193
 1809W        W44747  22.879  10.517  18.516  0.3472  0.2368  0.0480
 1810W        W44748  22.409  10.166  16.370  0.0789  0.0205  0.3501
 1811W        W44749  25.477   7.581  19.816 -0.2080  0.0206 -0.2274
 1812W        W44750  22.439   9.095  16.859  0.0163  0.1906 -0.2742
 1813W        W44751  21.710   9.968  18.463 -0.2126 -0.3363  0.2400
 1814W        W44752  23.751  10.409  15.783 -0.1226 -0.1756  0.1034
 1815W        W44753  25.568   9.949  17.968  0.1168  0.2679 -0.0932
 1816W        W44754  24.686  10.434  19.183  0.0346  0.0623  0.4508
 1817W        W44755  22.471  10.301  19.689  0.1136  0.0863  0.4849
 1818W        W44756  21.802  11.123  16.990  0.1652 -0.0546 -0.3848
 1819W        W44757  23.779  10.686  21.804  0.0001  0.0058  0.2659
 1820W        W44758  22.712   7.115  21.170  0.2354 -0.0360  0.0748
 1821W        W44759  24.136   9.973  18.744  0.1750  0.1333 -0.4294
 1822W        W44760  22.768   9.512  16.424 -0.1093 -0.0643 -0.1756
 1823W        W44761  22.831  12.405  15.377  0.0171  0.1443 -0.1910
 1824W        W44762  23.229   9.833  16.976 -0.0864 -0.0848 -0.0964
 1825W        W44763  21.824   8.376  19.402 -0.3183  0.1944  0.0079
 1826W        W44764  21.868   8.666  18.376  0.1557  0.0612  0.3237
 1827W        W44765  25.290   8.426  18.553  0.0859  0.3102  0.0630
 1828W        W44766  22.255  11.405  17.288 -0.0682 -0.0155  0.0130
 1829W        W44767  23.109   8.354  16.121 -0.1305 -0.2890 -0.0393
 1830W        W44768  22.290   7.841  15.863 -0.0009 -0.2056 -0.2752
 1831W        W44769  24.427   8.552  15.760 -0.0873 -0.0785 -0.0699
 1832W        W44770  23.602   6.575  18.959  0.1417  0.2074 -0.0999
 1833W        W44771  21.564   9.184  18.100  0.0728  0.1869  0.0031
 1834W        W44772  23.272   8.012  18.043  0.0218 -0.2251  0.1150
 1835W        W44773  25.766  10.049  19.616 -0.2333 -0.0267  0.0331
 1836W        W44774  23.111   9.445  16.064  0.1830  0.0664 -0.1997
 1837W        W44775  23.883   7.318  17.503 -0.2043 -0.0457 -0.0526
 1838W        W44776  23.116  10.630  18.089  0.2298 -0.2873 -0.0562
 1839W        W44777  23.435   9.072  17.530  0.1003 -0.1359 -0.3099
 1840W        W44778  25.537  11.178  16.283  0.0823 -0.3269 -0.1370
 1841W        W44779  23.555  10.013  16.072 -0.1020 -0.0281  0.2619
 1842W        W44780  21.789   9.402  16.377 -0.1564  0.3421 -0.0959
 1843W        W44781  21.496   8.953  15.691 -0.1017 -0.3615 -0.1510
 1844W        W44782  21.268   9.446  17.589  0.1496 -0.2764  0.2386
 1845W        W44783  23.367   9.044  20.289  0.2266 -0.0720 -0.0892
 1846W        W44784  23.167   7.556  15.331  0.0250 -0.1582 -0.3486
 1847W        W44785  25.946   9.471  20.406 -0.0727  0.0853 -0.1373
 1848W        W44786  21.957  10.867  19.787 -0.1599  0.0247 -0.0890
 1849W        W44787  24.221   6.097  17.926 -0.3512 -0.0638 -0.1791
 1850W        W44788  22.316   8.065  17.842  0.1087 -0.0880  0.2557
 1851W        W44789  24.346   9.727  18.296  0.2103 -0.2568  0.1285
 1852W        W44790  24.853  10.703  17.177  0.1595  0.0176  0.0412
 1853W        W44791  23.921   6.604  17.983  0.0327 -0.0807 -0.1968
 1854W        W44792  22.672   7.895  19.660  0.0002 -0.0179  0.2592
 1855W        W44793  22.613   9.388  15.927  0.0682 -0.0123  0.3264
 1856W        W44794  20.583   9.148  15.936  0.1693 -0.0944  0.0254
 1857W        W44795  25.606  10.193  19.179 -0.0069  0.1071 -0.3857
 1858W        W44796  25.785   8.537  16.718  0.0873  0.1271  0.0043
 1859W        W44797  22.941   9.116  17.509 -0.1314 -0.1509 -0.2665
 1860W        W44798  22.648   7.327  19.804 -0.1123  0.1361 -0.1004
 1861W        W44799  22.824   9.930  21.919  0.1523 -0.3015 -0.1132
 1862W        W44800  22.612  12.091  15.008  0.1489 -0.1056  0.0449
 1863W        W44801  22.209   7.489  17.706  0.2477 -0.0001  0.2993
 1864W        W44802  20.990   8.236  16.116 -0.1071  0.0475  0.0186
 1865W        W44803  21.809   7.913  19.153  0.1652 -0.0689  0.2948
 1866W        W44804  23.132   9.564  17.379 -0.2203 -0.0146  0.2373
 1867W        W44805  25.661   8.256  17.180  0.1312  0.2435 -0.1775
 1868W        W44806  22.652   7.473  18.647  0.0306 -0.0556 -0.1095
 1869W        W44807  26.995   5.710  17.459 -0.0243 -0.0802 -0.2148
 1870W        W44808  21.886  10.310  16.788 -0.2512 -0.0119  0.2247
 1871W        W44809  25.172  10.129  18.396 -0.1279  0.1057 -0.0538
 1872W        W44810  24.186   8.450  16.418 -0.1585 -0.2017  0.2416
 1873W        W44811  23.888  10.755  16.121  0.3991 -0.2766  0.3076
 1874W        W44812  21.192   8.178  18.668 -0.0855 -0.3364  0.2671
 1875W        W44813  22.105   8.058  16.707 -0.0019 -0.1605  0.2025
 1876W        W44814  22.274   7.753  20.927  0.1723 -0.3018 -0.0211
 1877W        W44815  22.260   6.723  20.038 -0.0713 -0.2579  0.2646
 1878W        W44816  25.385   7.761  18.454  0.1427 -0.5224 -0.0755
 1879W        W44817  24.278   8.009  18.113  0.1121 -0.3103  0.1103
 1880W        W44818  24.283   7.665  16.546 -0.2441  0.0475 -0.0778
 1881W        W44819  23.841   8.272  18.475 -0.0695 -0.2698  0.3773
 1882W        W44820  21.113   9.183  16.152 -0.2070 -0.1946  0.2170
 1883W        W44821  24.498   7.777  18.827 -0.3133  0.1897  0.2135
 1884W        W44822  24.917  11.834  16.063 -0.3190  0.3601 -0.1247
 1885W        W44823  25.209  10.237  20.166 -0.1167  0.0199  0.4469
 1886W        W44824  25.649  10.862  16.831  0.1327  0.2680 -0.1024
 1887W        W44825  23.927  10.335  19.217 -0.1720  0.0597  0.2008
 1888W        W44826  22.167   8.120  15.460 -0.2642  0.3016  0.1265
 1889W        W44827  22.182   9.280  18.082  0.1419  0.0737 -0.0381
 1890W        W44828  22.734  10.740  19.340  0.0821  0.1352 -0.1564
 1891W        W44829  22.736   7.873  16.105  0.1592 -0.0919  0.1923
 1892W        W44830  23.608  11.055  18.626 -0.1265 -0.0690 -0.0731
 1893W        W44831  23.257   8.524  16.604  0.0771  0.2419 -0.3215
 1894W        W44832  21.311   8.154  17.482 -0.0834  0.1551  0.2984
 1895W        W44833  24.060   6.692  18.753  0.0515  0.2585 -0.0284
 1896W        W44834  25.630   8.638  18.137 -0.0587  0.1252  0.0759
 1897W        W44835  22.900   8.651  17.786 -0.0837 -0.1170 -0.2845
 1898W        W44836  21.258   8.325  16.967  0.2339  0.1104 -0.0682
 1899W        W44837  25.927  10.143  17.368 -0.3276 -0.1870  0.3267
 1900W        W44838  21.386  10.378  16.750  0.0678 -0.0179  0.1869
 1901W        W44839  23.575   9.148  18.596  0.0895  0.2829  0.0123
 1902W        W44840  23.926   9.146  16.920 -0.1926 -0.0542  0.2131
 1903W        W44841  24.223   8.277  17.707  0.2906  0.2693 -0.1022
 1904W        W44842  22.304   9.502  20.734  0.3165 -0.1687  0.0836
 1905W        W44843  23.261   8.941  18.252  0.0891 -0.1602  0.1662
 1906W        W44844  21.614   8.963  16.223 -0.3312  0.2320 -0.1335
 1907W        W44845  23.406  10.288  20.508 -0.1455  0.1915 -0.1146
 1908W        W44846  23.623   6.865  18.419 -0.0528 -0.3565 -0.0256
 1909W        W44847  25.041   8.455  18.025  0.2715 -0.0514 -0.1668
 1910W        W44848  22.838  11.182  20.265  0.2117  0.2599 -0.2254
 1911W        W44849  24.622   8.894  17.202 -0.0143  0.2401  0.4901
 1912W        W44850  23.335   7.933  16.174 -0.1375  0.0073 -0.0627
 1913W        W44851  24.296   9.203  16.546  0.0655 -0.1323  0.2252
 1914W        W44852  22.737  11.092  19.765 -0.2385 -0.2131  0.3522
 1915W        W44853  23.024   9.954  17.783 -0.2748  0.1464 -0.0692
 1916W        W44854  22.915   9.741  18.191  0.2241  0.0179 -0.0121
 1917W        W44855  22.954   8.561  17.090 -0.0659  0.2017  0.0165
 1918W        W44856  25.958  10.031  18.303 -0.0453 -0.3398  0.1274
 1919W        W44857  22.293   9.745  18.944  0.0209  0.1625  0.0087
 1920W        W44858  24.395  10.291  20.152  0.2806  0.0648 -0.1258
 1921W        W44859  24.522  10.562  16.845  0.3513 -0.0965 -0.0033
 1922W        W44860  22.282   8.395  18.310  0.3875  0.3436  0.0541
 1923W        W44861  22.365   8.223  16.191 -0.2265 -0.1627 -0.2629
 1924W        W44862  23.320   7.161  19.002  0.0293  0.1210  0.2702
 1925W        W44863  21.822  10.402  15.354  0.1848 -0.1643  0.4207
 1926W        W44864  24.812   7.047  19.162  0.0537 -0.1569  0.0438
 1927W        W44865  24.394   7.575  18.314 -0.1494  0.0848 -0.1672
 1928W        W44866  22.921   5.448  19.735  0.0014  0.0519 -0.1723
 1929W        W44867  26.062   8.189  20.502  0.1881 -0.1415  0.2285
 1930W        W44868  23.839   8.547  16.759  0.1350 -0.1318 -0.0760
 1931W        W44869  24.332   8.264  18.918  0.1313 -0.0246  0.1011
 1932W        W44870  23.063  10.228  14.741 -0.0128  0.0431  0.0642
 1933W        W44871  21.826   9.441  18.464 -0.1794  0.3755  0.0685
 1934W        W44872  21.614   9.128  19.101 -0.3652 -0.3731 -0.2230
 1935W        W44873  20.490   9.674  18.496 -0.1673 -0.4441 -0.0053
 1936W        W44874  23.719   8.661  20.159 -0.0778 -0.1762 -0.0595
 1937W        W44875  23.710   9.497  17.604  0.2823  0.3133  0.1539
 1938W        W44876  24.240   8.482  19.864 -0.5108  0.2286 -0.1819
 1939W        W44877  22.442   6.732  16.817  0.0462 -0.0784  0.0413
 1940W        W44878  22.720  11.195  17.097  0.2191 -0.0912  0.0119
 1941W        W44879  20.738   8.835  16.311  0.0238 -0.1725 -0.0169
 1942W        W44880  21.756   7.457  19.521 -0.1294  0.0226 -0.0526
 1943W        W44881  22.587  10.066  18.622 -0.1098 -0.3103 -0.0109
 1944W        W44882  22.705   8.620  16.080 -0.0696 -0.2495  0.0254
 1945W        W44883  24.397  11.271  19.777 -0.1850 -0.3207 -0.1388
 1946W        W44884  22.306  10.697  16.628  0.1824  0.4179  0.1972
 1947W        W44885  24.645   6.193  18.263  0.1885  0.3735 -0.1570
 1948W        W44886  20.836   9.704  17.818  0.1182 -0.1179  0.1988
 1949W        W44887  22.081   8.974  16.550  0.0126  0.2082  0.1581
 1950W        W44888  22.112   8.402  17.488  0.0426  0.0421  0.0313
 1951W        W44889  22.974   8.446  18.896  0.0070 -0.1498  0.1253
 1952W        W44890  25.756   8.796  16.241 -0.0302 -0.1731  0.0694
 1953W        W44891  23.104   8.915  18.786  0.2301 -0.3592  0.1849
 1954W        W44892  23.404   8.166  18.957 -0.1166  0.1633 -0.2058
 1955W        W44893  21.047  10.149  16.474 -0.2989 -0.3189 -0.0373
 1956W        W44894  24.388   8.473  17.271  0.1618 -0.2333  0.1217
 1957W        W44895  24.795   6.905  17.071  0.0515 -0.0768  0.0201
 1958W        W44896  24.437  10.273  17.260  0.1503  0.0068 -0.0916
 1959W        W44897  23.318   8.400  20.369  0.1959  0.2152  0.2166
 1960W        W44898  21.323   8.429  15.818  0.6608 -0.1077  0.1092
 1961W        W44899  24.735   7.988  19.246  0.0265  0.1159  0.0657
 1962W        W44900  24.154   6.380  18.346  0.2299 -0.5897  0.0462
 1963W        W44901  21.359   8.539  18.947 -0.2010  0.1617  0.0631
 1964W        W44902  23.851   9.505  18.288 -0.1538  0.2103  0.0943
 1965W        W44903  21.840   7.823  16.305 -0.1449 -0.0569  0.0912
 1966W        W44904  22.858   9.986  16.595 -0.2519  0.1574 -0.0834
 1967W        W44905  24.177   7.757  19.211  0.1154  0.2380 -0.1981
 1968W        W44906  25.156   8.995  19.545 -0.1343  0.0518 -0.0857
 1969W        W44907  21.673   8.033  20.441  0.2924 -0.0644  0.1821
 1970W        W44908  23.652   7.023  17.945 -0.0333 -0.1785 -0.1058
 1971W        W44909  24.199   9.464  17.867 -0.0211  0.2143 -0.2292
 1972W        W44910  23.884   8.254  17.248 -0.0799  0.2209 -0.1080
 1973W        W44911  24.623   8.857  19.698  0.0727  0.0276  0.2239
 1974W        W44912  22.557   9.611  20.283 -0.2594 -0.0556 -0.1022
 1975W        W44913  22.927   7.730  18.280  0.1014 -0.0363  0.2201
 1976W        W44914  26.233   9.745  16.458 -0.0964  0.1623  0.0104
 1977W        W44915  24.547   9.207  18.199 -0.3281  0.2150 -0.2187
 1978W        W44916  20.977   8.689  17.645  0.0271 -0.2294 -0.0888
 1979W        W44917  22.111   9.299  18.840 -0.0718 -0.0222 -0.2114
 1980W        W44918  22.521   9.068  16.268  0.1376  0.2718  0.2070
 1981W        W44919  23.052   7.034  19.569 -0.1310  0.4884 -0.0973
 1982W        W44920  23.301   9.344  19.432  0.1015  0.1065  0.0600
 1983W        W44921  22.269   9.222  17.509  0.0541  0.1116  0.2455
 1984W        W44922  20.346   9.730  18.010 -0.3209 -0.0516 -0.2604
 1985W        W44923  24.566   7.840  17.734 -0.3156  0.2404 -0.1599
 1986W        W44924  23.450  10.470  16.270 -0.0945 -0.3754 -0.0895
 1987W        W44925  22.912   7.219  17.313  0.0793  0.0327 -0.3597
 1988W        W44926  24.127   6.588  19.299  0.1278 -0.1327 -0.1588
 1989W        W44927  23.097   9.397  16.763 -0.0328  0.1183  0.4458
 1990W        W44928  23.553   7.377  18.564  0.1555  0.1526 -0.2489
 1991W        W44929  22.741   8.369  19.380 -0.5668  0.0476  0.2351
 1992W        W44930  26.377  10.696  18.727  0.0250 -0.2483 -0.0706
 1993W        W44931  23.078   7.216  20.084  0.1187  0.0802 -0.3051
 1994W        W44932  23.360   9.806  20.690 -0.1449 -0.2288 -0.2406
 1995W        W44933  22.715  10.221  20.187  0.1526  0.3164 -0.0103
 1996W        W44934  23.506   8.655  18.644 -0.1576 -0.1190  0.0290
 1997W        W44935  22.883   8.142  17.738 -0.0572 -0.1009  0.1239
 1998W        W44936  24.823   9.313  19.825 -0.0090  0.3543  0.0045
 1999W        W44937  24.777   9.402  17.804 -0.0315  0.0179  0.1253
 2000W        W44938  22.871  10.626  16.555 -0.2973  0.0939 -0.0471
 2001W        W44939  24.285   9.803  17.467  0.1176 -0.2412 -0.1735
 2002W        W44940  23.226   9.319  17.905  0.3334 -0.1702  0.1417
 2003W        W44941  25.261   7.967  16.967  0.0197 -0.1704  0.0845
 2004W        W44942  23.601   9.525  15.870 -0.0033 -0.1390 -0.2794
 2005W        W44943  23.308   8.540  18.002 -0.0367 -0.0039  0.0542
 2006W        W44944  23.971   6.598  19.862  0.2748  0.2541 -0.0547
 2007W        W44945  24.512  10.047  17.878  0.0853  0.0071 -0.1343
 2008W        W44946  23.758   8.288  16.253 -0.3450  0.0128  0.0456
 2009W        W44947  23.753   7.699  19.618 -0.1580 -0.0642 -0.1098
 2010W        W44948  24.989   8.018  18.673  0.0080 -0.0264 -0.0464
 2011W        W44949  22.593   9.241  18.809 -0.0226  0.0830  0.0169
 2012W        W44950  21.245   9.486  19.043  0.1878 -0.1091  0.1013
 2013W        W44951  26.025  10.431  19.453 -0.1007 -0.5779  0.2394
 2014W        W44952  26.987   8.537  16.770  0.0047 -0.0041  0.0501
 2015W        W44953  25.002   6.816  18.681 -0.1310 -0.2173  0.0038
 2016W        W44954  25.939   9.215  17.179  0.0354  0.0829  0.0965
 2017W        W44955  23.795   8.672  17.608  0.1381  0.0361 -0.1488
 2018W        W44956  22.655   7.259  16.896  0.0310 -0.3140 -0.3324
 2019W        W44957  23.893   8.599  19.488  0.0698  0.0235  0.0186
 2020W        W44958  22.982   8.538  15.705 -0.0581 -0.1140  0.0379
 2021W        W44959  22.342   7.727  20.198 -0.1921 -0.2659 -0.1937
 2022W        W44960  22.312  13.220  17.117 -0.0339  0.4670  0.2757
 2023W        W44961  23.660   8.805  17.170  0.1666  0.3791 -0.0111
 2024W        W44962  23.765   8.246  17.958 -0.2505 -0.3024  0.3672
 2025W        W44963  22.700   7.613  17.769 -0.0867 -0.1898 -0.1343
 2026W        W44964  23.226  11.126  20.036  0.4226 -0.0099 -0.0974
 2027W        W44965  21.888   7.655  15.546 -0.1685 -0.0552 -0.2989
 2028W        W44966  23.086   9.860  15.827  0.1762 -0.2673  0.1896
 2029W        W44967  22.403   9.557  18.471  0.0135  0.0762  0.0359
 2030W        W44968  26.720   9.862  20.965  0.0876 -0.2179 -0.2273
 2031W        W44969  22.597   7.838  16.832  0.2529  0.0851 -0.1254
 2032W        W44970  25.598   7.409  19.290 -0.0731 -0.1759 -0.1157
 2033W        W44971  22.249   9.754  17.361 -0.5332 -0.1043 -0.2742
 2034W        W44972  23.460   6.416  18.178  0.0169  0.0071  0.3402
 2035W        W44973  22.379   8.656  17.855  0.1258 -0.2218  0.0745
 2036W        W44974  22.681   9.181  17.983 -0.0450 -0.1919 -0.1851
 2037W        W44975  22.403   9.729  16.758 -0.1596 -0.1890  0.0476
 2038W        W44976  23.194   7.597  19.298 -0.2849  0.3210  0.0122
 2039W        W44977  23.767   9.129  17.958  0.0385 -0.3086 -0.0499
 2040W        W44978  21.916   8.339  17.929 -0.0519  0.0887  0.0748
 2041W        W44979  25.500   9.200  19.188 -0.0653  0.0826 -0.0697
 2042W        W44980  24.227  10.320  18.212  0.3225  0.1580  0.4337
 2043W        W44981  23.891   9.504  18.766  0.1151  0.2554  0.1019
 2044W        W44982  24.173   8.934  19.978  0.1671  0.1266  0.0649
 2045W        W44983  24.439   9.268  17.456 -0.1687  0.0473  0.1614
 2046W        W44984  21.896   9.192  16.943 -0.4271 -0.1675 -0.1736
 2047W        W44985  22.828   9.330  19.258  0.2291 -0.2086  0.1739
 2048W        W44986  23.499   7.467  20.112  0.0326 -0.2912  0.1777
 2049W        W44987  23.485   8.957  16.731 -0.0743 -0.0071 -0.2167
 2050W        W44988  23.684   7.186  16.491 -0.0591  0.3152 -0.1506
 2051W        W44989  23.920   8.947  16.413 -0.2369  0.0815 -0.1552
 2052W        W44990  21.385   9.209  19.605 -0.0939  0.3019  0.0017
 2053W        W44991  22.994   9.295  18.507  0.2520 -0.0332  0.0904
 2054W        W44992  21.997  11.272  15.886  0.0003 -0.2268  0.4592
 2055W        W44993  23.923  10.316  16.353 -0.3482 -0.3010 -0.0948
 2056W        W44994  24.640   9.342  15.980 -0.1456 -0.3870  0.0264
 2057W        W44995  24.019   9.942  17.867  0.0059  0.3276 -0.0280
 2058W        W44996  21.555   8.030  15.424  0.0079  0.1572  0.0495
 2059W        W44997  22.254  10.172  17.076  0.0501  0.1914 -0.2363
 2060W        W44998  20.135   8.983  15.877 -0.0258  0.1142 -0.0272
 2061W        W44999  23.564   9.279  16.274 -0.0949  0.0614 -0.0625
 2062W        W45000  22.780  11.671  17.280 -0.1493  0.3883  0.1068
 2063W        W45001  24.339  10.477  18.758  0.0475  0.4471  0.0563
 2064W        W45002  24.889   7.675  16.623  0.2193  0.1111  0.3152
 2065W        W45003  24.356   9.497  18.827  0.2527  0.3727  0.3988
 2066W        W45004  25.157   7.437  17.086 -0.2233 -0.3965  0.0279
 2067W        W45005  24.325  10.057  19.201  0.1921 -0.1137 -0.1008
 2068W        W45006  23.774   8.108  19.331 -0.4180  0.3347 -0.0186
 2069W        W45007  23.074   7.558  16.946 -0.1656 -0.2825 -0.1630
 2070W        W45008  22.533   8.675  18.782 -0.1253 -0.1557 -0.0982
 2071W        W45009  24.052   8.054  16.715  0.2509  0.0847 -0.3098
 2072W        W45010  21.798   9.349  19.921 -0.2499  0.1208  0.3294
 2073W        W45011  25.148  11.255  15.953  0.0873 -0.0469 -0.0711
 2074W        W45012  22.984   7.981  17.198 -0.0055 -0.0107 -0.1706
 2075W        W45013  23.279  10.161  18.286 -0.0471  0.1578 -0.1323
 2076W        W45014  24.597   7.301  17.864 -0.0667 -0.2166 -0.2871
 2077W        W45015  24.318   8.959  16.056  0.3645  0.1382  0.0830
 2078W        W45016  23.473   9.808  19.191 -0.2064 -0.2125 -0.1394
 2079W        W45017  23.052  10.311  19.436  0.1376 -0.3236  0.0676
 2080W        W45018  22.162  10.066  18.275 -0.0617 -0.4626  0.0294
 2081W        W45019  22.055  10.995  16.313 -0.0919  0.0620  0.1018
 2082W        W45020  20.831   7.029  17.775 -0.2063  0.0598  0.0211
 2083W        W45021  24.229   8.279  19.412 -0.2247  0.2558 -0.0922
 2084W        W45022  23.606  10.117  18.773 -0.1267 -0.2123  0.4500
 2085W        W45023  24.394   6.169  18.770  0.1114  0.1693  0.0005
 2086W        W45024  22.028   7.316  18.207  0.2189  0.0876 -0.0608
 2087W        W45025  24.665   9.375  16.940  0.0751  0.0356  0.1574
 2088W        W45026  24.551   8.918  18.885 -0.0006  0.3692 -0.1679
 2089W        W45027  23.159   8.330  18.447  0.0623 -0.1406  0.1291
 2090W        W45028  22.167   8.531  16.942 -0.1044 -0.2774  0.0834
 2091W        W45029  23.301   9.389  18.963 -0.3299  0.0011 -0.0831
 2092W        W45030  23.490   8.757  16.212  0.4830 -0.0947  0.0786
 2093W        W45031  24.014   9.028  18.894  0.0934  0.1058  0.1974
 2094W        W45032  21.706   8.716  16.771 -0.0950 -0.0489  0.3313
 2095W        W45033  24.752   6.861  16.606 -0.2810  0.0140 -0.1370
 2096W        W45034  20.458   9.502  16.863 -0.0239  0.0918 -0.1217
 2097W        W45035  22.223   7.237  18.713  0.2275 -0.0339 -0.1560
 2098W        W45036  24.316   9.631  20.670 -0.1824  0.0460 -0.2209
 2099W        W45037  21.728   7.619  16.786  0.0419  0.0466 -0.1222
 2100W        W45038  24.431   9.819  16.013  0.2843  0.2712  0.1578
 2101W        W45039  25.013  10.031  16.949 -0.0368 -0.1446  0.0040
 2102W        W45040  21.985  12.565  15.414  0.1836 -0.2333  0.0355
 2103W        W45041  25.537  10.007  17.064  0.1816 -0.0840 -0.1902
 2104W        W45042  24.212   9.511  17.056  0.2205  0.1125 -0.0176
 2105W        W45043  21.941   8.282  18.809  0.0223  0.0334  0.1010
 2106W        W45044  24.489   9.421  20.160  0.0562  0.0484 -0.0119
 2107W        W45045  25.179  10.652  18.237 -0.1602  0.2486  0.0379
 2108W        W45046  23.931   6.993  16.030  0.3214 -0.5015 -0.0733
 2109W        W45047  23.865   8.508  18.995 -0.1833  0.1610  0.0088
 2110W        W45048  22.632  10.240  18.155  0.1386 -0.0907  0.0073
 2111W        W45049  23.395   9.712  18.525 -0.0251 -0.3466 -0.0359
 2112W        W45050  24.149   9.141  18.438  0.2009 -0.0918 -0.3180
 2113W        W45051  23.498   9.329  17.080  0.0120  0.1505 -0.1902
 2114W        W45052  24.912   5.808  19.807 -0.0515  0.0836 -0.1203
 2115W        W45053  23.467  10.548  18.537  0.2552  0.3491  0.1748
 2116W        W45054  23.185  10.169  19.954  0.0487  0.2284 -0.0823
 2117W        W45055  22.258   9.721  15.763  0.0718 -0.2641  0.0609
 2118W        W45056  24.307   9.279  19.661  0.3557 -0.2519 -0.0365
 2119W        W45057  22.701   8.875  19.551 -0.0403 -0.0786  0.0402
 2120W        W45058  23.738  10.300  17.099  0.1288 -0.2164  0.4317
 2121W        W45059  22.715   9.873  17.241  0.2227  0.1530  0.0754
 2122W        W45060  23.386   7.852  18.481  0.4740 -0.0276 -0.1620
 2123W        W45061  25.103  10.333  17.858  0.1830  0.0712 -0.1871
 2124W        W45062  22.894   5.372  18.322  0.1632 -0.0022  0.0308
 2125W        W45063  24.584   6.901  17.508 -0.1266  0.2347  0.0764
 2126W        W45064  24.733   7.815  17.116 -0.1508  0.2105 -0.1636
 2127W        W45065  23.532  10.255  19.517 -0.1261 -0.3851 -0.0487
 2128W        W45066  22.194   8.744  16.078 -0.2007  0.5161 -0.0023
 2129W        W45067  22.726  10.284  15.072  0.0953 -0.2426 -0.3514
 2130W        W45068  22.692   9.876  16.084 -0.1764  0.0865 -0.0153
 2131W        W45069  23.557   7.243  19.443  0.2539 -0.0022  0.1237
 2132W        W45070  22.488   8.254  21.118 -0.0020 -0.4229 -0.1547
 2133W        W45071  22.755   8.167  18.181  0.0986 -0.2713  0.0693
 2134W        W45072  22.317   7.714  16.364  0.3486  0.3092 -0.1939
 2135W        W45073  24.665  11.324  16.177  0.0844 -0.2361 -0.0320
 2136W        W45074  22.574   6.888  19.638  0.0314 -0.0478 -0.2959
 2137W        W45075  22.071   6.725  16.499 -0.0714 -0.3443 -0.2843
 2138W        W45076  25.505   9.144  16.911 -0.1120 -0.2726 -0.2475
 2139W        W45077  24.572   9.834  16.987 -0.0237 -0.2545  0.2231
 2140W        W45078  23.004   8.017  16.538 -0.1137 -0.4273  0.0302
 2141W        W45079  25.275  10.037  19.542 -0.0929  0.0961  0.0217
 2142W        W45080  20.487   8.561  15.981 -0.2377 -0.1130 -0.0323
 2143W        W45081  23.054   8.895  19.919  0.0464 -0.0258 -0.5658
 2144W        W45082  24.264   8.808  19.281  0.1923 -0.2016 -0.1240
 2145W        W45083  21.929   8.437  16.429  0.0822  0.1945 -0.2833
 2146W        W45084  23.157   7.695  17.639 -0.1511  0.0376 -0.0192
 2147W        W45085  24.636  10.996  16.586  0.1475  0.1026  0.2892
 2148W        W45086  24.251  11.180  15.807  0.1212  0.1169  0.1135
 2149W        W45087  23.092  10.141  18.785 -0.2725 -0.2017  0.0535
 2150W        W45088  23.518  10.479  17.503  0.1860  0.1636  0.1611
 2151W        W45089  21.298   6.573  19.403 -0.0669  0.0616 -0.3026
 2152W        W45090  24.585  10.130  16.577  0.0187  0.1332  0.0448
 2153W        W45091  24.364  10.505  19.585 -0.0122  0.0997  0.0779
 2154W        W45092  24.293   8.802  16.844  0.0051 -0.2841 -0.0620
 2155W        W45093  24.707   8.296  17.656 -0.2788 -0.1956 -0.0316
 2156W        W45094  24.727   9.571  16.448 -0.1901 -0.1466 -0.3586
 2157W        W45095  23.045   6.609  19.040  0.0825 -0.0707  0.1491
 2158W        W45096  22.240   9.628  19.769  0.0871 -0.0550  0.1987
 2159W        W45097  24.658   9.146  19.267 -0.0520  0.0624 -0.2178
 2160W        W45098  21.980   7.271  16.474 -0.0059 -0.0110  0.0783
 2161W        W45099  23.998   7.484  16.937 -0.1109 -0.1334  0.0910
 2162W        W45100  22.751  11.059  15.497 -0.2171 -0.1317 -0.0090
 2163W        W45101  22.238   8.124  19.713 -0.2781 -0.0190 -0.0089
 2164W        W45102  23.509   8.014  16.685 -0.2814 -0.1710  0.1854
 2165W        W45103  24.803   8.377  21.635 -0.4435 -0.1188  0.0007
 2166W        W45104  24.449   9.811  19.745 -0.3019  0.0207 -0.0925
 2167W        W45105  25.467   9.326  20.496 -0.3820 -0.2257  0.1613
 2168W        W45106  22.287   9.996  15.282 -0.1006  0.0526 -0.0019
 2169W        W45107  25.121   9.442  16.157  0.2031 -0.0462 -0.3586
 2170W        W45108  24.732  10.245  19.734  0.1259  0.0617 -0.0165
 2171W        W45109  26.253  11.513  21.757  0.0125  0.0409 -0.0230
 2172W        W45110  23.659  10.247  20.035 -0.1239 -0.2815 -0.1482
 2173W        W45111  23.933   9.515  19.273 -0.0045  0.2385  0.2575
 2174W        W45112  22.850   6.438  19.520  0.0291 -0.0925 -0.0501
 2175W        W45113  22.710   9.341  17.162 -0.1051  0.4084 -0.0664
 2176W        W45114  23.018   9.007  16.442 -0.4523 -0.1851  0.1436
 2177W        W45115  23.343   8.142  17.525 -0.0972  0.2100  0.0001
 2178W        W45116  23.064   7.265  18.409 -0.1747  0.0157  0.2759
 2179W        W45117  23.399   8.356  17.054  0.0261  0.1452  0.1209
 2180W        W45118  22.705  11.184  19.060 -0.0301 -0.0312  0.0292
 2181W        W45119  22.850   8.716  18.414  0.0247  0.3300  0.0970
 2182W        W45120  21.589   9.977  22.819  0.1994  0.1977  0.0867
 2183W        W45121  23.060   9.404  20.505  0.1237  0.1386 -0.0980
 2184W        W45122  24.728   8.531  19.248 -0.3360 -0.1402 -0.1554
 2185W        W45123  27.411   9.573  21.483 -0.1381 -0.1378 -0.0470
 2186W        W45124  21.220   7.806  22.235  0.5146 -0.1383  0.2576
 2187W        W45125  25.187   9.748  20.403 -0.1703 -0.0698  0.1786
 2188W        W45126  22.978   6.725  24.846  0.0067  0.1782 -0.1305
 2189W        W45127  24.421   9.343  21.736  0.0442 -0.2260  0.0062
 2190W        W45128  25.319  10.779  23.041 -0.1609  0.5032 -0.0667
 2191W        W45129  24.695   7.725  20.885 -0.0220 -0.0230  0.1059
 2192W        W45130  23.617   8.497  23.261 -0.2710 -0.0644  0.3726
 2193W        W45131  21.944  11.727  23.337 -0.1506 -0.0380  0.0672
 2194W        W45132  23.096   5.943  19.953 -0.1608 -0.1564 -0.1413
 2195W        W45133  21.445   6.355  20.680 -0.0259  0.1276 -0.1472
 2196W        W45134  24.110   8.889  22.005 -0.1767  0.3362  0.0405
 2197W        W45135  21.912   9.089  20.871 -0.0083 -0.2447  0.1093
 2198W        W45136  21.104   8.551  22.865  0.0336 -0.0694 -0.0688
 2199W        W45137  22.341   8.552  22.278  0.1131  0.0252 -0.1629
 2200W        W45138  23.211   9.861  21.609  0.2112 -0.0549  0.3517
 2201W        W45139  23.658   8.041  22.060 -0.0761  0.2608  0.4181
 2202W        W45140  22.714   6.767  23.298 -0.0358  0.0039 -0.2761
 2203W        W45141  23.507   9.822  20.158  0.0712  0.1778 -0.0944
 2204W        W45142  20.637   8.801  19.379  0.0072  0.2025  0.0629
 2205W        W45143  21.376   8.139  21.227  0.2465 -0.0616  0.1471
 2206W        W45144  24.009   9.282  22.410 -0.1656  0.0148 -0.0933
 2207W        W45145  24.844   8.702  21.206  0.2778 -0.0967  0.1069
 2208W        W45146  25.062   8.867  20.564  0.0706  0.2862 -0.1115
 2209W        W45147  23.209  10.748  21.546 -0.1137 -0.2368  0.0289
 2210W        W45148  24.127  10.607  22.476  0.0911  0.0231 -0.1809
 2211W        W45149  23.097   7.783  24.275  0.0522  0.1026 -0.1606
 2212W        W45150  22.384  10.598  22.535  0.4506  0.2072 -0.1947
 2213W        W45151  21.527   9.294  20.542  0.2182 -0.3916 -0.0041
 2214W        W45152  22.743  10.888  21.680 -0.0056 -0.0835  0.2503
 2215W        W45153  25.645   9.667  20.792  0.2574  0.0942 -0.2154
 2216W        W45154  24.556  10.917  23.161  0.1234 -0.0193 -0.2394
 2217W        W45155  23.720  10.864  23.797 -0.1098  0.0412 -0.1410
 2218W        W45156  23.421   9.327  20.950 -0.0923  0.0039 -0.1200
 2219W        W45157  23.916   9.383  21.882 -0.0029 -0.2647  0.2134
 2220W        W45158  22.633  10.658  24.252 -0.1122 -0.4648 -0.2095
 2221W        W45159  22.969   9.280  23.087  0.0444  0.1304 -0.1796
 2222W        W45160  22.310   9.093  22.472 -0.0430  0.0982 -0.0581
 2223W        W45161  23.623   9.255  21.440 -0.1317 -0.0050  0.0822
 2224W        W45162  24.580   9.324  22.402 -0.0497  0.0111 -0.0062
 2225W        W45163  23.165   8.790  23.504 -0.1107  0.0583 -0.3343
 2226W        W45164  22.206   9.513  22.217 -0.2302 -0.1371 -0.1955
 2227W        W45165  25.436   7.566  22.533 -0.3533 -0.1971  0.0069
 2228W        W45166  23.035  10.677  19.827 -0.0311  0.1387 -0.2924
 2229W        W45167  25.562   8.846  20.501  0.0572 -0.3916  0.3161
 2230W        W45168  24.002   8.697  18.135 -0.1328 -0.0971 -0.0055
 2231W        W45169  25.649   8.245  20.056  0.0986  0.0850 -0.1650
 2232W        W45170  22.022   6.385  20.851 -0.1121 -0.0339  0.0909
 2233W        W45171  22.346  10.758  21.373 -0.0225  0.2201 -0.1796
 2234W        W45172  22.994   7.991  21.234  0.1625 -0.1558 -0.0447
 2235W        W45173  24.642   9.484  22.927 -0.0528  0.1212 -0.0679
 2236W        W45174  22.753   9.251  20.874 -0.0802  0.0932  0.0680
 2237W        W45175  24.112   7.359  22.805  0.2566  0.1959 -0.1867
 2238W        W45176  23.314   9.672  23.116 -0.0506 -0.1976 -0.2446
 2239W        W45177  21.658   9.932  21.193  0.0345  0.0977  0.1346
 2240W        W45178  24.695   9.880  20.318  0.1132 -0.0717 -0.0277
 2241W        W45179  24.304   9.633  22.117  0.6631 -0.2260  0.0299
 2242W        W45180  22.351   9.736  21.752 -0.1523 -0.4339 -0.0892
 2243W        W45181  22.668   9.216  20.008  0.0071 -0.2648  0.1547
 2244W        W45182  20.395   9.003  23.380  0.3338  0.0243  0.1043
 2245W        W45183  21.179   9.505  22.990 -0.1940  0.2873 -0.1394
 2246W        W45184  23.428   8.138  21.101  0.1122 -0.0443 -0.0475
 2247W        W45185  25.104  10.678  24.449 -0.2464  0.0408 -0.3327
 2248W        W45186  22.835  10.818  23.847  0.0521 -0.0657  0.1860
 2249W        W45187  23.813   8.432  21.331 -0.0914 -0.2765 -0.2373
 2250W        W45188  24.520   8.291  22.312  0.0138 -0.1363 -0.2430
 2251W        W45189  24.924   8.009  23.374  0.1318  0.0288  0.0394
 2252W        W45190  23.818   8.994  20.563 -0.3063 -0.0474 -0.3919
 2253W        W45191  23.470   5.951  19.610  0.0090  0.1060  0.2568
 2254W        W45192  23.193   6.677  23.415  0.0105 -0.5201 -0.1944
 2255W        W45193  22.340   9.098  21.088  0.0010  0.2091 -0.0198
 2256W        W45194  22.463   9.003  20.535  0.2787  0.1626  0.1734
 2257W        W45195  25.401  10.039  21.316 -0.0761  0.4313  0.1429
 2258W        W45196  24.679   8.457  20.154 -0.0695 -0.2219  0.2738
 2259W        W45197  20.437   9.126  22.876  0.1633 -0.0637 -0.0768
 2260W        W45198  24.131   8.334  23.593  0.0981 -0.0360  0.0302
 2261W        W45199  24.604  10.781  24.855 -0.1249 -0.0849 -0.1505
 2262W        W45200  23.677   9.478  20.461 -0.1755  0.0173  0.1461
 2263W        W45201  20.569   9.419  20.678  0.0186  0.1258 -0.3189
 2264W        W45202  22.286  10.193  22.065  0.2081 -0.1835 -0.0310
 2265W        W45203  22.260   7.038  24.177  0.0707  0.2280  0.1012
 2266W        W45204  22.913  10.569  23.269 -0.0799 -0.3157  0.3410
 2267W        W45205  23.463   8.764  19.686  0.3074 -0.1133  0.1302
 2268W        W45206  22.872   7.593  23.232  0.1122 -0.1657  0.3633
 2269W        W45207  23.399   7.636  22.340  0.1027  0.2219  0.0362
 2270W        W45208  22.199  10.018  22.527  0.1995 -0.1063 -0.3583
 2271W        W45209  24.769  10.157  21.718 -0.0426  0.1048 -0.1179
 2272W        W45210  26.212   9.184  21.527  0.0465  0.2182  0.1333
 2273W        W45211  24.435   9.614  19.295 -0.1188 -0.0622 -0.2476
 2274W        W45212  23.377   9.158  22.812  0.2417 -0.1335  0.0507
 2275W        W45213  21.551   7.976  23.437 -0.2087 -0.4819  0.1930
 2276W        W45214  23.564   8.467  23.788 -0.0179 -0.0928 -0.0879
 2277W        W45215  22.378   7.788  21.424 -0.2141  0.0999  0.1912
 2278W        W45216  25.628   9.836  22.661  0.1783  0.1544  0.0134
 2279W        W45217  22.901   8.357  20.811 -0.0917 -0.0371 -0.0060
 2280W        W45218  23.906   8.238  23.001 -0.0529  0.2089 -0.2920
 2281W        W45219  23.496   8.489  22.326 -0.2817 -0.0378 -0.0664
 2282W        W45220  23.152   9.365  20.006  0.1470  0.2169  0.1024
 2283W        W45221  26.939   8.184  23.656  0.0189  0.0889 -0.3906
 2284W        W45222  24.046   9.308  20.261  0.0953  0.1620  0.0453
 2285W        W45223  26.300  12.118  22.572  0.1694 -0.0026  0.2999
 2286W        W45224  24.718  11.072  21.899 -0.0980 -0.0493  0.4935
 2287W        W45225  24.167   7.884  22.753  0.5286  0.2417 -0.1977
 2288W        W45226  22.199   7.266  20.081 -0.1098  0.3336 -0.1119
 2289W        W45227  24.177  11.072  21.649  0.0109  0.0917 -0.0851
 2290W        W45228  22.684   9.763  22.915 -0.0267 -0.1892 -0.1869
 2291W        W45229  22.684   8.165  22.221  0.1978 -0.2222  0.1107
 2292W        W45230  26.108  10.957  23.347  0.0683  0.0475  0.0134
 2293W        W45231  23.803   9.381  22.849  0.3351  0.0281  0.1371
 2294W        W45232  21.270   9.996  23.199  0.0883 -0.0254 -0.1600
 2295W        W45233  25.540   6.402  23.482  0.0200 -0.3545  0.0071
 2296W        W45234  25.187   9.575  21.733 -0.0962 -0.1729 -0.0887
 2297W        W45235  23.904   6.954  21.430 -0.2402 -0.0057  0.1526
 2298W        W45236  21.681   5.953  20.037 -0.0006 -0.2269 -0.2092
 2299W        W45237  24.562  11.895  23.378 -0.0142  0.0176 -0.1733
 2300W        W45238  23.369   9.794  19.673  0.0238  0.3169 -0.0150
 2301W        W45239  22.040   9.721  21.370  0.2028  0.2936  0.0214
 2302W        W45240  23.585   9.020  22.029  0.0477  0.0905  0.1490
 2303W        W45241  23.979   8.247  22.463  0.0206  0.0977 -0.1241
 2304W        W45242  21.480   9.159  24.630 -0.0308 -0.1453  0.2295
 2305W        W45243  24.244   8.682  23.153  0.1826  0.2762 -0.0118
 2306W        W45244  22.370   8.254  20.156 -0.1556 -0.1982 -0.0826
 2307W        W45245  21.226  11.276  24.214 -0.0866  0.1043  0.1379
 2308W        W45246  23.952   9.357  20.920 -0.0549  0.0649 -0.0452
 2309W        W45247  24.451   7.251  20.829 -0.1709 -0.1142 -0.1664
 2310W        W45248  24.001   9.346  23.360 -0.1044  0.0230  0.0250
 2311W        W45249  24.760   9.789  20.795 -0.1482 -0.0383 -0.0383
 2312W        W45250  23.796   8.194  20.392 -0.2596  0.1957  0.0924
 2313W        W45251  24.545   7.306  20.333 -0.1506  0.3453  0.0511
 2314W        W45252  22.631  11.587  24.143  0.0051 -0.2874  0.3957
 2315W        W45253  25.220   9.604  21.026  0.1209 -0.0234 -0.1258
 2316W        W45254  23.689   9.841  21.642 -0.4613 -0.0001 -0.1408
 2317W        W45255  24.177   7.756  20.700  0.0348  0.2825  0.1255
 2318W        W45256  23.857  10.214  21.980  0.0273 -0.0386  0.1645
 2319W        W45257  21.358   9.583  22.153  0.1769  0.0272  0.0534
 2320W        W45258  23.755   7.650  23.097  0.1571 -0.2246 -0.3021
 2321W        W45259  23.725   8.888  21.069 -0.1393 -0.0380 -0.0889
 2322W        W45260  22.819   7.167  22.940  0.1595 -0.3287 -0.0398
 2323W        W45261  23.138   8.913  20.717 -0.0083 -0.3616  0.1691
 2324W        W45262  23.208   7.949  20.686 -0.2129  0.2358 -0.1725
 2325W        W45263  21.691   9.609  18.935 -0.5465  0.0431 -0.2549
 2326W        W45264  25.220   7.560  23.749 -0.2059  0.0767 -0.1055
 2327W        W45265  22.988   7.495  21.404  0.2672 -0.2363  0.1956
 2328W        W45266  22.430   7.784  22.955 -0.3679  0.1105 -0.0653
 2329W        W45267  24.386   8.756  22.525  0.1244  0.0409  0.3948
 2330W        W45268  25.280   8.686  20.940  0.0429 -0.3074  0.1493
 2331W        W45269  22.970   9.398  21.541  0.0039 -0.2165 -0.1245
 2332W        W45270  23.171   8.058  19.450  0.1160 -0.0300 -0.1116
 2333W        W45271  24.748   7.869  24.328  0.2278 -0.0365 -0.0205
 2334W        W45272  21.024  10.485  23.279  0.1907 -0.2265  0.0142
 2335W        W45273  22.752  11.010  22.356  0.1035 -0.3801 -0.2174
 2336W        W45274  25.132   9.531  22.684  0.1829 -0.0159  0.2606
 2337W        W45275  24.362   9.180  21.159  0.0117 -0.2986  0.0668
 2338W        W45276  24.291   6.871  22.769 -0.0873 -0.1606 -0.1709
 2339W        W45277  24.255   8.055  20.143 -0.0852 -0.1082  0.2299
 2340W        W45278  21.891  10.066  20.744 -0.1153  0.0072  0.2299
 2341W        W45279  20.903   9.268  22.110  0.1036  0.0064 -0.0059
 2342W        W45280  23.335   7.598  21.030 -0.1263  0.1917  0.1428
 2343W        W45281  23.593   9.883  22.716  0.0625  0.2530  0.0411
 2344W        W45282  22.960  10.245  20.749 -0.1276 -0.0357 -0.4634
 2345W        W45283  24.988   8.299  22.111  0.4399  0.1204  0.1528
 2346W        W45284  21.640  10.505  20.780  0.1530  0.0799 -0.2669
 2347W        W45285  25.984   6.166  23.652 -0.1355  0.0625 -0.2548
 2348W        W45286  21.838  11.246  21.510 -0.0834  0.0084 -0.3823
 2349W        W45287  22.648   7.976  20.581 -0.0832  0.0104 -0.1580
 2350W        W45288  21.831   8.931  20.291 -0.0137 -0.0633  0.2777
 2351W        W45289  24.990   8.055  21.260 -0.0855  0.0722 -0.1589
 2352W        W45290  25.701   9.969  22.145 -0.0710 -0.0655  0.1034
 2353W        W45291  23.668   7.906  22.656 -0.0413  0.0231  0.1461
 2354W        W45292  22.347   7.819  22.341 -0.2020 -0.0900  0.1964
 2355W        W45293  19.921   9.573  22.296  0.0339 -0.1213 -0.2250
 2356W        W45294  24.020   7.960  21.549 -0.2578  0.0280  0.3298
 2357W        W45295  24.251   8.475  21.599 -0.0021  0.0018  0.2245
 2358W        W45296  25.781   9.978  24.380 -0.4002  0.2470 -0.0715
 2359W        W45297  23.870   8.782  23.583  0.0797 -0.0079  0.0272
 2360W        W45298  21.395   8.379  19.692  0.3849 -0.1702 -0.1118
 2361W        W45299  25.287   7.536  21.393  0.3329  0.0723 -0.0801
 2362W        W45300  22.560   9.508  21.275  0.2581  0.1637  0.0771
 2363W        W45301  22.178  10.666  20.755  0.0046 -0.3016 -0.1130
 2364W        W45302  24.879  10.507  23.120  0.1037 -0.3244  0.1074
 2365W        W45303  21.782   9.172  22.321  0.0448  0.2283 -0.3674
 2366W        W45304  22.725  10.434  21.159  0.0256  0.1279  0.1634
 2367W        W45305  22.355   7.538  23.775  0.0321  0.0281 -0.0216
 2368W        W45306  25.131  11.062  22.425 -0.1886  0.0009 -0.0938
 2369W        W45307  23.322   7.827  23.176 -0.0741  0.1326  0.1341
 2370W        W45308  22.151   8.967  22.017 -0.2945  0.0359 -0.0095
 2371W        W45309  24.036   9.557  21.385  0.0218 -0.1181 -0.2381
 2372W        W45310  24.984   9.060  21.786  0.4111 -0.4041  0.4457
 2373W        W45311  24.273   9.109  22.850  0.1317 -0.2813  0.0413
 2374W        W45312  22.780   9.860  24.013  0.1753  0.0787 -0.1287
 2375W        W45313  23.204   6.823  22.155 -0.2914  0.0839  0.1334
 2376W        W45314  27.283  11.134  21.465  0.0531 -0.0725 -0.1940
 2377W        W45315  23.494   8.802  21.599  0.2334  0.0546 -0.0253
 2378W        W45316  21.314   8.515  21.661  0.1705  0.1055  0.4267
 2379W        W45317  21.038   8.804  22.286  0.0903  0.0158  0.0651
 2380W        W45318  23.241  10.619  20.996  0.3702 -0.0176 -0.0146
 2381W        W45319  23.689   8.051  23.436 -0.2122  0.1589  0.1557
 2382W        W45320  23.011  10.057  22.580  0.5024  0.1504  0.0572
 2383W        W45321  21.846   9.592  21.869 -0.2498  0.2999 -0.1550
 2384W        W45322  22.681  11.747  21.679 -0.0381  0.1364  0.1041
 2385W        W45323  23.101   8.724  19.296 -0.2503  0.0987  0.0377
 2386W        W45324  25.096   9.451  19.322 -0.0955  0.0859 -0.0486
 2387W        W45325  23.484   7.239  21.363  0.0809  0.1080 -0.3451
 2388W        W45326  24.786   7.105  22.972  0.1368 -0.0982 -0.0596
 2389W        W45327  23.062   9.005  21.859 -0.4955 -0.0860  0.0517
 2390W        W45328  24.756   7.927  22.886  0.0461 -0.0128  0.4113
 2391W        W45329  23.658   7.580  21.907 -0.2791 -0.2723  0.2545
 2392W        W45330  24.806   9.314  21.383 -0.1649 -0.1677  0.0472
 2393W        W45331  22.245   8.592  23.358 -0.0602 -0.1835  0.1727
 2394W        W45332  24.321   9.723  25.661  0.1427  0.0683  0.0808
 2395W        W45333  22.517   9.411  23.324  0.1560 -0.1498  0.0562
 2396W        W45334  23.911   7.237  20.986  0.1738 -0.0383 -0.0498
 2397W        W45335  24.224   6.382  20.317 -0.3996 -0.0387 -0.2227
 2398W        W45336  23.305   8.241  22.872 -0.2450  0.0226  0.2275
 2399W        W45337  25.524   9.191  22.990  0.4194 -0.3097  0.1611
 2400W        W45338  22.415   8.445  20.627 -0.0301  0.0794 -0.1482
 2401W        W45339  25.006   8.865  20.062  0.0608  0.0065  0.1754
 2402W        W45340  20.245   9.498  23.220  0.0033  0.0714  0.0555
 2403W        W45341  25.956   9.825  21.282 -0.1474 -0.2712 -0.1040
 2404W        W45342  23.409   9.498  21.869 -0.2462 -0.0166  0.0042
 2405W        W45343  23.007   9.445  22.162 -0.2278  0.5372 -0.0078
 2406W        W45344  25.094   7.492  22.898  0.1841  0.2293  0.2013
 2407W        W45345  23.799   9.785  22.227  0.1407  0.1867  0.1509
 2408W        W45346  23.473   7.814  21.457 -0.1399 -0.3626  0.0775
 2409W        W45347  24.477   7.956  23.797 -0.2218 -0.5141 -0.0163
 2410W        W45348  24.637   7.580  23.248 -0.0573  0.1843 -0.4373
 2411W        W45349  23.034   8.763  22.975 -0.0855  0.1712 -0.0643
 2412W        W45350  23.089   7.673  22.749 -0.1136  0.3355  0.0435
 2413W        W45351  24.219  11.094  21.183 -0.1993 -0.0733  0.2349
 2414W        W45352  25.926   8.585  20.273 -0.1956  0.3104 -0.1506
 2415W        W45353  24.948   6.912  22.068 -0.0137  0.0730  0.0233
 2416W        W45354  25.705   9.136  20.965  0.2675  0.2272 -0.1532
 2417W        W45355  26.570   8.200  20.763 -0.0473  0.1804 -0.1371
 2418W        W45356  23.174   7.240  22.463  0.2406  0.0721  0.3442
 2419W        W45357  24.925   9.360  23.587 -0.1638 -0.0661 -0.0313
 2420W        W45358  22.938   8.122  20.165 -0.1559  0.1188  0.0933
 2421W        W45359  24.276   7.988  23.283 -0.1328 -0.2357 -0.0997
 2422W        W45360  24.173  10.750  19.158  0.0049 -0.3786  0.0850
 2423W        W45361  24.496  10.926  22.650 -0.0499  0.1748  0.5456
 2424W        W45362  24.559   8.140  20.610 -0.2154  0.2311 -0.0802
 2425W        W45363  21.823   7.750  22.067  0.0053 -0.0052 -0.3806
 2426W        W45364  21.031  10.894  22.890 -0.1591 -0.1249  0.1934
 2427W        W45365  22.359   7.778  18.315 -0.1570  0.0204  0.1105
 2428W        W45366  22.251   8.756  21.490  0.0813  0.2187 -0.1989
 2429W        W45367  24.630   9.811  22.432  0.1203 -0.0422 -0.0898
 2430W        W45368  25.576   8.860  24.529  0.0849  0.0650 -0.0109
 2431W        W45369  25.192   8.027  19.818 -0.1725 -0.1846  0.2952
 2432W        W45370  25.252   9.031  24.916  0.2414 -0.0773  0.0713
 2433W        W45371  23.024   9.871  19.316 -0.2958  0.0874 -0.1475
 2434W        W45372  23.800   7.835  21.097  0.1379 -0.0692  0.1119
 2435W        W45373  22.377  10.773  21.985 -0.0079  0.0144  0.1776
 2436W        W45374  20.437  10.404  23.414  0.0116 -0.1476 -0.1593
 2437W        W45375  22.779   9.154  22.634  0.0624 -0.0869 -0.3669
 2438W        W45376  24.697   6.866  22.487 -0.2897 -0.4057 -0.2148
 2439W        W45377  24.929   8.459  22.578 -0.1072 -0.1302  0.0807
 2440W        W45378  23.426   9.275  23.348  0.1438 -0.0101  0.3956
 2441W        W45379  24.927   7.333  22.437 -0.1865 -0.2018 -0.0325
 2442W        W45380  23.794   8.944  23.104  0.1204 -0.1817  0.1895
 2443W        W45381  23.165   8.073  22.417  0.1637  0.1474  0.0070
 2444W        W45382  23.283   9.902  22.156  0.2216 -0.2110 -0.2324
 2445W        W45383  26.983   9.231  21.452 -0.0985 -0.1838 -0.0766
 2446W        W45384  20.957  10.460  21.446  0.0909 -0.0420 -0.2511
 2447W        W45385  21.753   7.794  23.890  0.2442 -0.3320  0.0799
 2448W        W45386  23.839   8.278  24.356 -0.1933 -0.0707  0.0845
 2449W        W45387  23.185   9.007  22.352  0.1411  0.0128 -0.1935
 2450W        W45388  23.214   7.362  20.532 -0.0700  0.1413  0.1523
 2451W        W45389  23.608   8.515  20.751  0.0795  0.0195  0.1775
 2452W        W45390  22.588  10.241  22.874 -0.1457 -0.1363  0.0883
 2453W        W45391  21.949  10.637  23.303 -0.4709  0.0615 -0.4775
 2454W        W45392  22.340  10.162  20.541  0.3069 -0.0450  0.0607
 2455W        W45393  25.568  10.198  20.797 -0.0588  0.1595 -0.2845
 2456W        W45394  25.267   9.188  21.366  0.1049 -0.1558  0.0785
 2457W        W45395  23.236  11.348  23.138  0.1546 -0.0340  0.1702
 2458W        W45396  22.283   8.218  22.639  0.2260 -0.0003  0.0594
 2459W        W45397  23.024  11.827  22.259 -0.1386  0.0597 -0.1982
 2460W        W45398  22.693   9.821  20.722 -0.1595 -0.1439 -0.2106
 2461W        W45399  26.058  10.707  22.391 -0.1110  0.1558 -0.2684
 2462W        W45400  23.368   8.297  21.608  0.2279  0.1154  0.0101
 2463W        W45401  25.336   9.941  24.100  0.1779 -0.0023 -0.1541
 2464W        W45402  25.096   7.338  19.566 -0.0634  0.2365 -0.0738
 2465W        W45403  24.702  10.008  22.961  0.0850  0.0409 -0.2184
 2466W        W45404  26.125   9.395  20.987 -0.2153 -0.2933  0.3426
 2467W        W45405  25.625   9.554  24.964 -0.0115 -0.2407  0.2138
 2468W        W45406  23.084   8.506  22.121 -0.0946 -0.1461 -0.1342
 2469W        W45407  23.653   7.527  20.560  0.0572 -0.2035  0.2867
 2470W        W45408  23.150   8.264  23.362  0.0372  0.0774  0.0401
 2471W        W45409  25.374   6.607  23.895 -0.0247 -0.1790 -0.0820
 2472W        W45410  22.390  11.915  22.565 -0.0376 -0.1959 -0.1319
 2473W        W45411  24.778  10.720  22.317  0.0940  0.2814  0.0789
 2474W        W45412  21.350   7.959  22.670 -0.1511  0.1718  0.2423
 2475W        W45413  22.279   9.446  22.835 -0.0400 -0.1465 -0.1890
 2476W        W45414  25.012   6.452  22.277  0.0863 -0.0041  0.0108
 2477W        W45415  24.885  10.455  18.726  0.2558 -0.2786  0.0647
 2478W        W45416  22.817   8.661  22.494 -0.2883 -0.0438 -0.1974
 2479W        W45417  22.352  11.279  21.508  0.0795  0.2053  0.0143
 2480W        W45418  22.400  10.722  23.589  0.1147  0.1378  0.1036
 2481W        W45419  22.872  10.582  22.658  0.0227 -0.2407  0.1597
 2482W        W45420  21.568   7.902  19.654 -0.4539  0.0037 -0.1550
 2483W        W45421  26.485   8.905  21.194 -0.3098  0.0245  0.0671
 2484W        W45422  22.792   8.198  22.720  0.1794  0.0626  0.1153
 2485W        W45423  24.777   8.384  24.309  0.1913 -0.0282  0.2303
 2486W        W45424  23.189  10.085  21.136 -0.2361  0.0451  0.2640
 2487W        W45425  24.020   8.259  20.842 -0.4806 -0.1854  0.3867
 2488W        W45426  24.022   7.864  23.944 -0.0814  0.0005 -0.2782
 2489W        W45427  22.678   8.889  23.327 -0.2170  0.1567 -0.2804
 2490W        W45428  23.018   9.606  21.093  0.0271 -0.1001  0.0415
 2491W        W45429  24.973   9.286  24.555  0.1076 -0.0233  0.3910
 2492W        W45430  24.751   7.663  19.825  0.2370  0.0294 -0.1918
 2493W        W45431  24.595  11.258  24.882 -0.2226 -0.2357  0.0769
 2494W        W45432  22.749   7.742  21.808 -0.1597  0.1670  0.1318
 2495W        W45433  24.760   7.312  21.199  0.1702  0.1025 -0.2407
 2496W        W45434  21.407   9.504  21.451 -0.1591  0.4459  0.1763
 2497W        W45435  23.586   9.703  23.680  0.1781 -0.1724 -0.0035
 2498W        W45436  25.584  10.514  23.356  0.0979 -0.1214  0.2001
 2499W        W45437  22.333   7.517  21.866 -0.3021 -0.2976  0.1995
 2500W        W45438  25.610   9.912  20.081 -0.0264 -0.0259 -0.0814
 2501W        W45439  25.535   9.081  21.851  0.0399  0.1528  0.2477
 2502W        W45440  23.761  10.351  21.077  0.1065 -0.0985  0.1601
 2503W        W45441  25.886   8.537  22.396  0.2034  0.0711 -0.0558
 2504W        W45442  24.559  10.368  22.631  0.2536  0.0725 -0.2575
 2505W        W45443  22.020   9.017  22.963 -0.3316 -0.0481 -0.2404
 2506W        W45444  24.177  10.553  22.983  0.1707 -0.0499  0.0821
 2507W        W45445  25.539  11.143  23.389  0.3401  0.0147 -0.0081
 2508W        W45446  23.713   6.314  21.061 -0.1848 -0.0019 -0.0850
 2509W        W45447  22.643   9.737  22.401 -0.2384  0.2286  0.0796
 2510W        W45448  22.008  10.411  19.701  0.0911  0.6052  0.3071
 2511W        W45449  24.398   8.315  22.833  0.0312 -0.4967  0.1151
 2512W        W45450  24.565   7.506  22.724  0.2347 -0.1040 -0.0796
 2513W        W45451  24.127  10.996  20.599 -0.0900  0.0106  0.3378
 2514W        W45452  24.753   8.452  25.103  0.0826 -0.1110  0.2023
 2515W        W45453  22.359  10.313  23.333 -0.1328 -0.1503  0.1314
 2516W        W45454  24.576  10.094  23.711  0.1380  0.0592  0.0439
 2517W        W45455  21.854   8.146  19.984  0.1445 -0.0787  0.0602
 2518W        W45456  22.749  10.473  22.147  0.1638  0.1985  0.0569
 2519W        W45457  23.292  11.067  22.055 -0.0004 -0.3757 -0.1192
 2520W        W45458  23.696  10.832  20.751  0.1030  0.0044  0.0631
 2521W        W45459  24.926  11.011  22.874  0.1125 -0.3224 -0.2209
 2522W        W45460  22.692   9.035  21.432  0.0687 -0.3178 -0.1999
 2523W        W45461  25.285  10.161  21.869 -0.0430 -0.1646 -0.3089
 2524W        W45462  21.996   8.197  22.244  0.0432 -0.0337 -0.3877
 2525W        W45463  25.242   7.908  20.815 -0.0958  0.0851 -0.0413
 2526W        W45464  24.753   6.681  20.890 -0.3214  0.0729 -0.0855
 2527W        W45465  23.486   9.422  22.360 -0.2158  0.0649 -0.0457
 2528W        W45466  23.695   6.756  19.438 -0.0553 -0.1907  0.0221
 2529W        W45467  21.368   9.611  18.575 -0.2505 -0.0089 -0.3471
 2530W        W45468  23.218   7.876  21.898  0.0191  0.2578 -0.0483
 2531W        W45469  24.087   7.558  23.518  0.0030  0.0983  0.0263
 2532W        W45470  21.848   8.405  23.596 -0.1210  0.0896 -0.1002
 2533W        W45471  23.080   9.543  22.644  0.1400  0.1779  0.2247
 2534W        W45472  20.341   9.172  21.823 -0.1665 -0.0373 -0.1517
 2535W        W45473  25.742   9.765  21.718  0.2648  0.2095 -0.2567
 2536W        W45474  22.328   6.833  21.061  0.0636 -0.1949  0.1392
 2537W        W45475  21.796   6.629  21.624  0.4050 -0.0744  0.0944
 2538W        W45476  23.649   9.842  21.107 -0.0545  0.1808 -0.2763
 2539W        W45477  24.560   8.847  21.559  0.1899  0.1890  0.2689
 2540W        W45478  23.136   6.846  20.451  0.2995  0.1546  0.3106
 2541W        W45479  25.075   8.990  23.059  0.2642 -0.0455  0.0521
 2542W        W45480  22.136   9.359  20.308 -0.3940 -0.1389  0.0397
 2543W        W45481  23.320   8.010  23.794 -0.0567 -0.1665 -0.0448
 2544W        W45482  23.638   7.547  23.703 -0.2720 -0.4075 -0.1226
 2545W        W45483  21.876   7.090  21.886 -0.1735  0.1555  0.2954
 2546W        W45484  25.659   7.869  23.821 -0.1007  0.0520  0.2295
 2547W        W45485  24.747   9.281  20.852 -0.2251 -0.0030 -0.0871
 2548W        W45486  24.938  10.625  21.798  0.0416 -0.1869  0.2760
 2549W        W45487  21.809  10.166  23.294  0.1593  0.0940  0.3454
 2550W        W45488  23.782  11.377  23.571 -0.0366  0.2254 -0.0740
 2551W        W45489  21.898   7.338  23.624 -0.1314  0.0421 -0.2533
 2552W        W45490  27.179   9.644  21.028  0.0729  0.2803  0.2060
 2553W        W45491  23.049  11.102  24.197  0.1917  0.1368  0.1992
 2554W        W45492  24.826  10.370  20.518 -0.0841 -0.0959 -0.4404
 2555W        W45493  25.492   6.183  21.505  0.1980 -0.1789 -0.2145
 2556W        W45494  25.770   9.337  21.422  0.3050  0.1189  0.4531
 2557W        W45495  20.588   7.127  21.692  0.2575  0.3945  0.2308
 2558W        W45496  22.240   9.941  23.029 -0.1224 -0.0901  0.2691
 2559W        W45497  24.457  10.315  23.296 -0.0518  0.2113  0.0381
 2560W        W45498  22.025   8.172  23.147 -0.0231  0.0614  0.0756
 2561W        W45499  25.387   7.347  20.970  0.4227 -0.1525 -0.2570
 2562W        W45500  23.678   9.277  19.979  0.2690 -0.1358  0.2490
 2563W        W45501  21.993   9.358  23.313 -0.3085  0.2491 -0.1114
 2564W        W45502  22.605   9.228  22.075  0.1836  0.2688 -0.1267
 2565W        W45503  24.928   8.915  22.527 -0.0764  0.0798  0.0288
 2566W        W45504  24.045  10.115  22.940 -0.0235 -0.1353  0.0373
 2567W        W45505  24.383   9.433  23.691 -0.2236  0.1224  0.1902
 2568W        W45506  22.958   8.558  21.540 -0.2790 -0.3407  0.0189
 2569W        W45507  25.982   9.246  22.005  0.2758  0.0206 -0.3801
 2570W        W45508  23.387  10.442  21.999 -0.2750  0.1714 -0.0182
 2571W        W45509  26.093  10.291  24.038  0.1536  0.0466 -0.1636
 2572W        W45510  23.159   9.071  21.275 -0.1939  0.4314  0.1655
 2573W        W45511  22.497   8.780  22.882 -0.0521 -0.0749  0.0941
 2574W        W45512  22.407   5.976  21.982 -0.1419 -0.2535  0.0663
 2575W        W45513  22.331   9.948  21.044 -0.3498 -0.0160 -0.2726
 2576W        W45514  22.937  10.353  21.639  0.1511 -0.0144  0.4784
 2577W        W45515  25.300   8.367  23.671 -0.0319  0.1328 -0.0345
 2578W        W45516  21.957   7.842  22.676 -0.1815 -0.4083 -0.4242
 2579W        W45517  23.472   6.940  19.959  0.1716  0.0180 -0.1491
 2580W        W45518  22.965  10.066  23.248  0.1086 -0.0642  0.2220
 2581W        W45519  22.296   9.232  21.640  0.0417  0.3389  0.2476
 2582W        W45520  22.930   9.716  25.375  0.0295 -0.0388 -0.0230
 2583W        W45521  22.983   8.723  24.110  0.1968  0.0557 -0.0891
 2584W        W45522  25.129   8.408  23.056 -0.2055 -0.2514  0.1810
 2585W        W45523  24.788  10.035  25.486 -0.2269 -0.1826 -0.3218
 2586W        W45524  23.286   7.407  26.241  0.1449 -0.0720  0.2103
 2587W        W45525  25.272   9.797  25.409 -0.2687  0.5220  0.2244
 2588W        W45526  23.083   7.785  29.742 -0.2113  0.0962 -0.0486
 2589W        W45527  23.430   9.627  25.318 -0.4770 -0.1064 -0.1590
 2590W        W45528  27.157  11.317  27.714 -0.3139 -0.0466  0.0475
 2591W        W45529  22.897   9.173  23.688 -0.0510  0.1743  0.0926
 2592W        W45530  23.427   8.234  26.570  0.0435 -0.0301 -0.1617
 2593W        W45531  22.286  11.182  27.497 -0.2735  0.0480  0.2234
 2594W        W45532  23.272   7.276  23.066 -0.3640 -0.0859 -0.2981
 2595W        W45533  23.070   8.051  25.551 -0.2151 -0.2358  0.3249
 2596W        W45534  22.865   9.073  26.760 -0.2801  0.1782  0.2001
 2597W        W45535  22.093   9.848  23.543 -0.1296 -0.0132  0.3720
 2598W        W45536  23.286  10.152  26.792  0.4770 -0.1616 -0.4125
 2599W        W45537  22.137   7.666  24.201  0.1254 -0.0249  0.2606
 2600W        W45538  23.903  11.185  25.339 -0.1155 -0.0039  0.1410
 2601W        W45539  24.651   7.022  26.011 -0.0122 -0.1412 -0.1782
 2602W        W45540  25.660   9.192  27.347  0.2076 -0.2567 -0.1451
 2603W        W45541  25.024  10.918  25.442  0.6195 -0.0413  0.1056
 2604W        W45542  21.375   8.692  23.723  0.0820 -0.1858  0.0246
 2605W        W45543  22.766   8.223  26.296  0.0808  0.0251  0.1042
 2606W        W45544  21.920  10.454  26.889 -0.2268 -0.2443 -0.4099
 2607W        W45545  25.263   8.089  25.202 -0.3556  0.0242  0.2310
 2608W        W45546  23.922   9.345  25.250 -0.3823  0.2552 -0.2529
 2609W        W45547  23.778  11.655  25.916 -0.4438  0.1393 -0.2054
 2610W        W45548  23.420  11.484  26.290 -0.0236  0.2095 -0.1507
 2611W        W45549  24.721   8.811  26.986  0.1433  0.0741  0.1173
 2612W        W45550  22.643   9.034  25.864 -0.0454  0.0161  0.0942
 2613W        W45551  22.634   9.907  24.982 -0.1369 -0.1805  0.1983
 2614W        W45552  23.097  10.691  25.037 -0.1071  0.1765  0.1632
 2615W        W45553  26.180  10.388  25.767  0.1196  0.1207 -0.1377
 2616W        W45554  24.039   9.768  27.188 -0.0724  0.1470  0.2890
 2617W        W45555  23.254  11.865  27.122 -0.0334  0.0713 -0.0802
 2618W        W45556  22.606  10.311  23.781  0.0627 -0.0406 -0.0027
 2619W        W45557  23.943  11.422  26.316  0.0682  0.1643  0.1456
 2620W        W45558  23.263  10.513  27.116  0.1137  0.2632 -0.0390
 2621W        W45559  23.575   7.841  26.257  0.1004 -0.3168  0.3239
 2622W        W45560  22.986   8.680  25.543  0.2031 -0.1812  0.0690
 2623W        W45561  24.091  10.700  23.532 -0.3361  0.3046  0.0815
 2624W        W45562  24.113  10.000  26.079 -0.1403 -0.2431 -0.0111
 2625W        W45563  22.862  10.673  26.033  0.0402  0.0701 -0.2856
 2626W        W45564  23.179   9.153  24.570  0.3832 -0.2179  0.4991
 2627W        W45565  25.327   7.838  27.930  0.0356 -0.0308  0.3929
 2628W        W45566  23.865   9.594  24.155  0.0082 -0.0756  0.0030
 2629W        W45567  25.989   8.516  23.237 -0.0391  0.0664  0.0885
 2630W        W45568  23.613   7.377  22.670 -0.4883  0.1411  0.0538
 2631W        W45569  23.579   7.775  24.199 -0.2422 -0.0135 -0.0658
 2632W        W45570  24.264   8.330  24.089  0.2504  0.0469  0.0791
 2633W        W45571  23.077  11.428  26.791  0.1107  0.0259  0.2649
 2634W        W45572  23.276   9.320  26.511  0.2765 -0.1533 -0.0363
 2635W        W45573  25.273  10.329  26.769  0.1098  0.1828 -0.1639
 2636W        W45574  24.292  10.254  25.461 -0.0376  0.2579 -0.0564
 2637W        W45575  24.399   8.389  26.811 -0.0723  0.1018 -0.3466
 2638W        W45576  21.777  11.571  26.365  0.2051  0.0476 -0.0852
 2639W        W45577  22.749   9.577  26.637  0.2309 -0.0758 -0.0547
 2640W        W45578  24.976  11.523  25.169 -0.1965 -0.2567  0.3580
 2641W        W45579  25.224   9.826  24.654 -0.0498  0.1236  0.1686
 2642W        W45580  24.486  10.219  24.791  0.2740 -0.1878 -0.0184
 2643W        W45581  22.469   9.424  23.847  0.2610 -0.1252 -0.2727
 2644W        W45582  23.514   9.476  27.156 -0.0331 -0.3023 -0.2498
 2645W        W45583  23.783   8.874  27.209  0.2443  0.0821  0.0491
 2646W        W45584  22.611   7.914  24.146 -0.0764  0.1706  0.2428
 2647W        W45585  24.198  11.122  26.636  0.0348  0.2380 -0.0472
 2648W        W45586  21.903   9.396  27.169  0.1861  0.1116  0.0552
 2649W        W45587  24.337   8.844  25.182  0.0215 -0.0036  0.3323
 2650W        W45588  21.994  10.756  25.859 -0.0581  0.0995  0.0035
 2651W        W45589  25.928   9.919  25.930 -0.0106 -0.3604  0.2598
 2652W        W45590  25.372   9.618  23.657 -0.0806 -0.1135  0.3879
 2653W        W45591  25.613   7.287  25.324  0.1442 -0.0124 -0.2696
 2654W        W45592  25.139   7.874  25.666 -0.1037 -0.3165  0.2372
 2655W        W45593  22.615   9.897  23.489  0.0075  0.1294 -0.0962
 2656W        W45594  23.034   8.584  24.703  0.1292 -0.1339 -0.6074
 2657W        W45595  25.601  10.930  26.718  0.1216 -0.2743  0.1269
 2658W        W45596  25.586  10.162  25.680  0.3179 -0.0182 -0.0035
 2659W        W45597  21.157  10.664  27.391 -0.0883  0.1796 -0.1407
 2660W        W45598  23.354   8.856  28.025  0.1623  0.2004  0.1012
 2661W        W45599  24.864  10.361  26.346  0.0260 -0.0337  0.0147
 2662W        W45600  23.427  10.266  24.422  0.1266  0.0946  0.3213
 2663W        W45601  21.601   9.612  25.401  0.1083  0.0258  0.1768
 2664W        W45602  23.080   9.625  23.581 -0.2573 -0.0385 -0.2439
 2665W        W45603  22.248   8.146  27.916 -0.0423 -0.1644  0.6272
 2666W        W45604  22.859  10.296  26.366  0.0667 -0.2577 -0.0913
 2667W        W45605  25.804   7.753  24.512  0.0694 -0.1334  0.1737
 2668W        W45606  22.924   7.256  28.158  0.2769  0.1935  0.1397
 2669W        W45607  26.451   6.437  24.883  0.2716  0.2987  0.1821
 2670W        W45608  20.962  10.530  24.888 -0.2693 -0.2079  0.1713
 2671W        W45609  25.921  11.391  26.876  0.2155  0.1142  0.3169
 2672W        W45610  25.205   8.625  25.192 -0.0390 -0.0025 -0.0035
 2673W        W45611  24.604   9.133  23.264  0.1847 -0.1211  0.1385
 2674W        W45612  23.831   8.555  26.856 -0.3314  0.0031 -0.0105
 2675W        W45613  23.432   7.647  25.804 -0.2115 -0.0096  0.0746
 2676W        W45614  22.817   8.331  27.320 -0.0809 -0.2554 -0.0072
 2677W        W45615  22.236   8.467  25.768 -0.0499  0.0772  0.0893
 2678W        W45616  24.222  10.491  25.950  0.0230  0.2038 -0.2629
 2679W        W45617  20.795   7.407  25.532  0.4097  0.0502 -0.0558
 2680W        W45618  23.550   8.705  24.675 -0.2385  0.2531 -0.2236
 2681W        W45619  23.701   9.202  24.390 -0.0179 -0.0727 -0.1760
 2682W        W45620  22.498   8.356  24.848 -0.0785 -0.0270  0.0550
 2683W        W45621  24.700   8.336  27.192  0.0864  0.3976 -0.1693
 2684W        W45622  25.481  10.884  25.218  0.0877  0.0056 -0.1169
 2685W        W45623  25.018  11.279  27.254 -0.4567  0.0523  0.1439
 2686W        W45624  25.045  11.057  24.896  0.1418  0.1244  0.0648
 2687W        W45625  22.236   8.356  26.259  0.0998 -0.0193 -0.0246
 2688W        W45626  23.869  10.120  24.256 -0.1392  0.1242  0.1245
 2689W        W45627  21.579  10.274  27.232  0.0043 -0.1258 -0.2566
 2690W        W45628  25.068  10.336  25.917 -0.3658 -0.2065 -0.3103
 2691W        W45629  21.505   7.827  24.846  0.1697 -0.2892 -0.0118
 2692W        W45630  24.690  11.804  25.528  0.0199  0.1523  0.1882
 2693W        W45631  23.868  10.611  24.218  0.1814  0.2549  0.5609
 2694W        W45632  21.271  11.446  26.389  0.1450 -0.2168 -0.1119
 2695W        W45633  25.494   8.480  26.194 -0.1547 -0.1603 -0.0748
 2696W        W45634  24.653   9.680  26.805  0.4273 -0.1885  0.0101
 2697W        W45635  22.818   8.757  26.329  0.2153  0.4717 -0.0009
 2698W        W45636  21.271   7.808  24.129 -0.2487  0.1828  0.1003
 2699W        W45637  22.841  11.231  25.654 -0.0088  0.1790  0.3642
 2700W        W45638  22.062  10.256  25.442  0.0290  0.1029 -0.1297
 2701W        W45639  22.902   9.181  24.148 -0.0262  0.3398  0.0016
 2702W        W45640  22.924  10.223  25.831 -0.1979 -0.3035  0.1080
 2703W        W45641  24.870   6.406  24.703 -0.0051 -0.1388  0.2767
 2704W        W45642  21.888   7.841  27.805 -0.4704 -0.4411  0.1710
 2705W        W45643  23.811   9.246  26.829 -0.3843  0.0186  0.2524
 2706W        W45644  20.604   9.556  23.655 -0.0749 -0.3233  0.3122
 2707W        W45645  20.786  10.854  26.957  0.0278 -0.2055  0.3284
 2708W        W45646  23.763   7.021  25.262 -0.2693  0.2138 -0.2068
 2709W        W45647  25.747   8.473  23.746 -0.0172 -0.1140  0.1916
 2710W        W45648  24.523   8.840  26.521  0.1457 -0.3152  0.0172
 2711W        W45649  26.035   9.565  24.565 -0.0856  0.0421  0.1197
 2712W        W45650  22.602   8.793  23.850  0.1356 -0.0021 -0.0920
 2713W        W45651  24.036   8.903  24.598  0.0737 -0.2425 -0.0453
 2714W        W45652  21.148   9.893  27.826 -0.0442 -0.0580 -0.1752
 2715W        W45653  23.611  10.576  23.274 -0.2189  0.0404 -0.0491
 2716W        W45654  23.344   9.545  25.951 -0.0604  0.0155 -0.0870
 2717W        W45655  24.078   9.347  24.806  0.3093  0.1119  0.1093
 2718W        W45656  26.541  10.209  24.217 -0.1362  0.1379 -0.0788
 2719W        W45657  20.133  10.006  24.420  0.2581  0.2265  0.1366
 2720W        W45658  25.120  11.143  27.916 -0.2307  0.2626 -0.2282
 2721W        W45659  24.353  11.094  25.969 -0.0295  0.0052 -0.0634
 2722W        W45660  23.242   5.932  25.716  0.1502  0.2334 -0.0693
 2723W        W45661  22.725   7.961  23.562  0.1931  0.3890  0.2273
 2724W        W45662  23.421   8.370  25.201 -0.0151  0.2190  0.1154
 2725W        W45663  22.239  10.680  25.224 -0.0657  0.0403 -0.1419
 2726W        W45664  25.057   7.983  27.075  0.1675 -0.0146 -0.0965
 2727W        W45665  24.593   6.508  28.073  0.0334  0.1396  0.1624
 2728W        W45666  24.469   7.817  26.802  0.1346  0.1421  0.1809
 2729W        W45667  24.920   8.871  27.451  0.0147  0.0746 -0.0256
 2730W        W45668  25.011   8.857  24.308  0.3973  0.2165  0.1226
 2731W        W45669  25.083   9.854  26.482 -0.1152  0.4099 -0.2905
 2732W        W45670  21.710   9.997  23.963 -0.0305  0.3117 -0.0088
 2733W        W45671  24.072   8.556  26.379  0.0189  0.1298  0.1467
 2734W        W45672  21.985   9.414  26.329  0.2383  0.4591 -0.0135
 2735W        W45673  20.764  10.857  26.116  0.5176 -0.0364  0.0509
 2736W        W45674  23.971  10.860  26.204  0.0460 -0.0598 -0.0891
 2737W        W45675  23.399  10.018  25.870 -0.0731  0.2927 -0.2990
 2738W        W45676  24.039   8.576  28.582 -0.0869 -0.0322  0.2196
 2739W        W45677  24.716   8.426  23.836 -0.1040 -0.1955 -0.1129
 2740W        W45678  24.667  10.818  26.318 -0.0639  0.0088 -0.0640
 2741W        W45679  24.150   9.872  23.814 -0.4068 -0.0631 -0.0949
 2742W        W45680  22.859   8.090  24.586  0.0057  0.2649  0.1493
 2743W        W45681  22.529   9.416  24.960 -0.0866  0.0550 -0.3100
 2744W        W45682  24.358  10.502  24.362 -0.1064 -0.3670  0.0251
 2745W        W45683  23.568   9.990  27.211 -0.1342  0.0755 -0.1706
 2746W        W45684  23.289   9.895  24.084  0.2039 -0.2626 -0.1703
 2747W        W45685  24.994   8.229  26.199  0.3180 -0.1019  0.5169
 2748W        W45686  22.551   9.402  25.529  0.3246  0.2776 -0.1637
 2749W        W45687  22.409   8.887  24.329  0.0326  0.0683  0.0414
 2750W        W45688  21.778   8.986  25.972 -0.1687 -0.1423 -0.0232
 2751W        W45689  23.941   9.789  24.626 -0.2028 -0.1931  0.4456
 2752W        W45690  26.667  10.300  26.054 -0.0346  0.0983  0.0429
 2753W        W45691  22.706   8.988  24.717 -0.2070  0.0740  0.1188
 2754W        W45692  25.622   6.671  24.322  0.0174  0.2668 -0.1825
 2755W        W45693  21.802   9.954  24.961  0.4513 -0.1584  0.0333
 2756W        W45694  25.254   9.064  27.087 -0.0786  0.0734  0.0818
 2757W        W45695  26.992   7.550  23.991  0.1715  0.3105 -0.1698
 2758W        W45696  25.472   9.984  26.150 -0.0801  0.2505  0.0816
 2759W        W45697  22.086  11.619  27.271 -0.1146 -0.0746 -0.0383
 2760W        W45698  22.342   8.290  23.741  0.2753 -0.3238 -0.0105
 2761W        W45699  24.883   9.462  25.526 -0.3994  0.0249 -0.0034
 2762W        W45700  23.008   7.772  25.045 -0.2291 -0.0605  0.2197
 2763W        W45701  20.998  10.665  23.779 -0.0305 -0.2080 -0.0773
 2764W        W45702  22.504  11.031  26.056  0.0364 -0.1341  0.0016
 2765W        W45703  23.483   8.991  23.853  0.1529 -0.1550 -0.2327
 2766W        W45704  22.043  11.284  25.891  0.1449 -0.3745  0.3620
 2767W        W45705  23.376   9.011  26.992 -0.2717  0.0044  0.1794
 2768W        W45706  26.361   9.705  27.620 -0.3124 -0.1794 -0.2401
 2769W        W45707  22.861   7.159  25.394 -0.2631  0.1275 -0.4453
 2770W        W45708  21.079   8.387  24.974 -0.1660 -0.5060  0.0278
 2771W        W45709  22.430   9.217  26.420 -0.2476 -0.0119  0.0172
 2772W        W45710  25.647  10.893  25.738 -0.0228 -0.2784 -0.2428
 2773W        W45711  23.669   8.385  26.154 -0.0572  0.2620 -0.3054
 2774W        W45712  22.473  10.571  28.399 -0.0720  0.1871  0.1382
 2775W        W45713  23.962   7.949  25.222 -0.1786  0.1147  0.0166
 2776W        W45714  24.786  11.787  26.069  0.1413 -0.3901  0.2589
 2777W        W45715  25.112   9.471  26.823  0.3483 -0.1955  0.0590
 2778W        W45716  21.620   9.802  26.373  0.3131 -0.0574  0.2312
 2779W        W45717  20.376  11.863  27.641  0.2610  0.1415 -0.0996
 2780W        W45718  24.666   9.716  24.681  0.1427  0.1239 -0.3198
 2781W        W45719  24.234   7.361  26.332  0.0692 -0.2421  0.0488
 2782W        W45720  21.637  10.735  27.544 -0.2865 -0.0680  0.0955
 2783W        W45721  22.220  10.304  24.155 -0.2101 -0.1909  0.1230
 2784W        W45722  22.266   8.943  25.538  0.0712 -0.2030  0.0766
 2785W        W45723  25.358   5.769  24.301 -0.1424  0.2829  0.0624
 2786W        W45724  24.858   9.868  23.399 -0.0624 -0.0471 -0.1668
 2787W        W45725  23.592   9.212  25.619 -0.1763  0.1902 -0.1223
 2788W        W45726  27.309   8.500  25.393  0.0297  0.1797  0.0554
 2789W        W45727  24.864   9.001  25.238  0.1205 -0.0992 -0.0548
 2790W        W45728  25.046   8.524  27.809 -0.2071  0.1863 -0.0658
 2791W        W45729  22.198   7.477  24.661 -0.0459  0.0881  0.0900
 2792W        W45730  24.468   9.716  25.174 -0.1204 -0.3094 -0.1718
 2793W        W45731  22.053   8.630  27.622  0.1075  0.0221  0.0159
 2794W        W45732  26.450  12.653  28.625 -0.1187 -0.1877  0.2121
 2795W        W45733  22.772   7.971  28.845 -0.0718 -0.3060 -0.0661
 2796W        W45734  23.473   7.896  25.203 -0.4472 -0.3101  0.3794
 2797W        W45735  23.933   6.204  23.624  0.2932  0.0229  0.0157
 2798W        W45736  24.213   8.879  26.878  0.0282 -0.0165  0.3145
 2799W        W45737  25.173  10.923  26.563  0.0045  0.1980  0.2903
 2800W        W45738  22.910   8.300  23.962 -0.2470 -0.0041 -0.1820
 2801W        W45739  23.290   8.966  26.001  0.0391 -0.2914 -0.0901
 2802W        W45740  22.566   9.799  27.374 -0.2269  0.2450  0.3593
 2803W        W45741  24.685   8.802  25.647  0.1485 -0.2976 -0.1509
 2804W        W45742  24.587   9.269  24.853 -0.1390 -0.0512  0.1600
 2805W        W45743  22.864   9.753  24.516  0.2567 -0.1452 -0.1717
 2806W        W45744  23.731   8.825  27.677 -0.3424  0.3408 -0.0363
 2807W        W45745  23.148   9.808  26.363 -0.0626  0.3257 -0.0989
 2808W        W45746  23.472   8.531  25.669  0.3181 -0.3501 -0.1446
 2809W        W45747  25.625   9.209  26.782 -0.0105 -0.4824  0.3498
 2810W        W45748  24.551   9.907  26.374  0.0260 -0.1645  0.3471
 2811W        W45749  22.980   9.359  27.156 -0.0017 -0.1257  0.0293
 2812W        W45750  23.529   8.769  26.467 -0.1442 -0.0085 -0.2903
 2813W        W45751  25.345  10.455  26.335 -0.0070 -0.0387 -0.2029
 2814W        W45752  24.339   8.769  24.226  0.0303  0.0927  0.1879
 2815W        W45753  24.019   8.950  25.553  0.2090  0.0284 -0.2625
 2816W        W45754  23.830   9.698  25.656 -0.0854 -0.5249 -0.0209
 2817W        W45755  23.898   9.863  25.133  0.0755  0.0523 -0.1592
 2818W        W45756  22.183   9.673  26.764 -0.2737 -0.0379 -0.2444
 2819W        W45757  22.274  10.414  28.879 -0.0194 -0.0863 -0.0546
 2820W        W45758  21.713   7.400  24.670  0.0634  0.1391  0.0437
 2821W        W45759  25.470   8.300  27.697 -0.1062 -0.1543 -0.1964
 2822W        W45760  25.193   9.442  24.138  0.2377  0.1347  0.2346
 2823W        W45761  24.365   9.994  24.279 -0.0363 -0.0505  0.0499
 2824W        W45762  22.890   9.145  25.174  0.0606  0.1954 -0.2447
 2825W        W45763  22.478   7.270  26.430 -0.2252  0.1934  0.0463
 2826W        W45764  22.366  11.653  27.762  0.0363 -0.0279  0.1419
 2827W        W45765  21.474   8.432  23.205  0.3325 -0.0968  0.0711
 2828W        W45766  22.517   9.356  24.429 -0.1235  0.0740 -0.3718
 2829W        W45767  23.316  10.479  26.254 -0.0731 -0.1046  0.2178
 2830W        W45768  24.570  10.198  26.754 -0.1495 -0.2152 -0.2589
 2831W        W45769  22.678   8.411  23.175 -0.0789  0.0475 -0.0235
 2832W        W45770  26.678   9.271  27.650 -0.2042  0.1375  0.3415
 2833W        W45771  21.666   9.531  24.935  0.0583 -0.5073 -0.2187
 2834W        W45772  24.073   8.053  26.044 -0.1460 -0.0384 -0.2379
 2835W        W45773  23.777  10.189  25.560 -0.4125  0.0379  0.0611
 2836W        W45774  21.194   9.816  26.911  0.2612  0.0573  0.1648
 2837W        W45775  23.934  10.263  24.768 -0.0607 -0.1059  0.0599
 2838W        W45776  23.767   8.833  25.990 -0.3162 -0.3087 -0.2823
 2839W        W45777  23.059   9.229  25.628  0.0109  0.1972 -0.0804
 2840W        W45778  22.389   9.798  26.255 -0.0971 -0.1048 -0.0295
 2841W        W45779  24.552   9.339  25.918 -0.0649  0.0737 -0.4178
 2842W        W45780  24.799  10.852  27.507  0.0600  0.0429  0.2728
 2843W        W45781  22.457  10.621  25.756  0.1061 -0.0879  0.3019
 2844W        W45782  24.781  10.631  26.773  0.0953 -0.1064 -0.3513
 2845W        W45783  26.351   8.233  25.113 -0.2794 -0.1888  0.0902
 2846W        W45784  22.226  10.180  24.944 -0.0444  0.1384  0.2512
 2847W        W45785  22.991   8.540  28.127 -0.0374  0.0737  0.0950
 2848W        W45786  23.755  10.716  28.558  0.0673 -0.1902  0.1193
 2849W        W45787  23.981   9.029  26.401  0.1648 -0.0296 -0.0589
 2850W        W45788  22.535   8.391  24.302 -0.2092  0.1195 -0.0909
 2851W        W45789  22.086   9.613  24.649 -0.0845 -0.2201  0.1920
 2852W        W45790  21.272  11.139  27.015 -0.0867  0.2527  0.1449
 2853W        W45791  23.303   7.558  26.762 -0.0262  0.1723 -0.1323
 2854W        W45792  23.003  11.108  26.220  0.2176 -0.0811  0.1996
 2855W        W45793  25.141  11.432  23.656  0.1924  0.1150 -0.3312
 2856W        W45794  24.011   9.194  23.932 -0.0751 -0.1938  0.2458
 2857W        W45795  25.268  11.824  25.747  0.1199  0.1608  0.0359
 2858W        W45796  23.522   9.350  24.921  0.1299 -0.0581  0.0301
 2859W        W45797  22.349  10.648  26.344 -0.1467  0.0173 -0.2246
 2860W        W45798  21.658   8.510  24.110  0.1558  0.0757  0.0145
 2861W        W45799  25.205  12.122  24.955 -0.4913  0.2602  0.1116
 2862W        W45800  21.910  11.440  25.232  0.4855 -0.0214  0.0577
 2863W        W45801  23.749   9.651  26.239  0.2102 -0.4333 -0.3219
 2864W        W45802  26.446   8.048  23.725  0.1625 -0.0842 -0.2019
 2865W        W45803  25.463   9.614  25.868 -0.3391  0.1400  0.1055
 2866W        W45804  27.058   7.076  24.233 -0.1637  0.0202 -0.0861
 2867W        W45805  25.160  10.813  27.083  0.0525  0.0484  0.1294
 2868W        W45806  22.741   8.894  27.243 -0.1531  0.0274  0.2082
 2869W        W45807  23.081   6.376  23.060  0.0061 -0.1109 -0.0509
 2870W        W45808  22.848   9.782  25.978 -0.0844 -0.0731  0.2504
 2871W        W45809  26.550   7.748  25.912 -0.1354  0.3006  0.0815
 2872W        W45810  20.598  10.300  26.753 -0.1227  0.0283  0.2586
 2873W        W45811  25.285  10.796  24.025  0.2118  0.2701  0.2262
 2874W        W45812  21.715   9.634  24.280  0.0048 -0.3211 -0.1821
 2875W        W45813  22.612   8.166  25.426 -0.2679 -0.0073  0.1309
 2876W        W45814  25.897   8.091  25.964  0.1841 -0.2778 -0.0277
 2877W        W45815  24.336   9.750  23.292  0.2919  0.0056  0.0938
 2878W        W45816  23.205   8.501  26.103  0.1005 -0.2491 -0.0721
 2879W        W45817  23.312  11.125  24.790  0.0718 -0.0348 -0.2380
 2880W        W45818  22.149  11.154  26.409  0.2504 -0.0446  0.0455
 2881W        W45819  23.487   9.900  24.822 -0.1474  0.0568  0.2482
 2882W        W45820  21.104   9.092  23.798 -0.3310  0.2832 -0.2816
 2883W        W45821  25.635   8.912  25.245  0.0406 -0.0140  0.1084
 2884W        W45822  24.503   7.856  26.268  0.1130 -0.1491 -0.0280
 2885W        W45823  24.302   8.911  26.067  0.2368  0.4045  0.1094
 2886W        W45824  22.585   7.984  25.903 -0.1577  0.0549  0.0173
 2887W        W45825  23.905  10.553  25.225 -0.0058 -0.0601  0.0487
 2888W        W45826  22.936   9.324  26.172  0.2576  0.2059 -0.0415
 2889W        W45827  21.908   8.865  27.129 -0.1712  0.0303  0.0297
 2890W        W45828  24.318   8.847  23.665 -0.0737  0.1854 -0.0813
 2891W        W45829  26.133   9.331  26.650  0.3340  0.1878 -0.2423
 2892W        W45830  24.707   8.689  22.999 -0.1288 -0.1264 -0.1509
 2893W        W45831  23.436  11.845  27.571  0.2562 -0.2525  0.0924
 2894W        W45832  22.211   9.097  24.767  0.0406 -0.2436  0.4433
 2895W        W45833  24.467   9.420  24.320  0.0613 -0.2863 -0.1402
 2896W        W45834  21.482  10.086  25.751 -0.1752  0.2608 -0.1449
 2897W        W45835  22.392   9.878  25.445 -0.0464 -0.1515  0.1331
 2898W        W45836  25.136  12.810  27.083  0.3378 -0.2888  0.3082
 2899W        W45837  22.006   8.193  24.090  0.1212 -0.0708  0.0171
 2900W        W45838  24.376  10.883  24.027 -0.0935  0.2282 -0.0796
 2901W        W45839  25.754   9.568  25.448 -0.1785  0.1710  0.2373
 2902W        W45840  24.871   9.825  24.024 -0.1044  0.1608 -0.0369
 2903W        W45841  24.787  10.616  24.082 -0.0829 -0.2404  0.0650
 2904W        W45842  24.290  11.565  25.746  0.0452 -0.1227 -0.2862
 2905W        W45843  21.711   8.306  27.806 -0.0389  0.0758  0.1237
 2906W        W45844  24.363   9.347  26.564 -0.1163  0.1282 -0.1603
 2907W        W45845  26.136  10.812  26.670 -0.1946  0.0188 -0.1636
 2908W        W45846  24.362   8.465  24.571  0.0277 -0.0304 -0.0703
 2909W        W45847  22.096   9.570  25.201 -0.1815  0.2286 -0.1314
 2910W        W45848  23.025  10.186  24.782  0.1747 -0.0043 -0.1840
 2911W        W45849  23.826   8.918  25.081  0.1535  0.1502 -0.2556
 2912W        W45850  24.891   9.266  26.441  0.0172  0.0434  0.0097
 2913W        W45851  24.260  11.149  23.581 -0.3161  0.0506 -0.0317
 2914W        W45852  25.957   9.536  27.080  0.2348 -0.0450 -0.1624
 2915W        W45853  24.238  10.761  25.495  0.0100  0.0997 -0.0380
 2916W        W45854  22.555  11.505  26.571 -0.0429  0.0121 -0.0943
 2917W        W45855  20.835  10.030  23.494  0.2733 -0.1755 -0.0718
 2918W        W45856  22.337   9.396  25.989  0.3244  0.0226 -0.0993
 2919W        W45857  23.843   8.787  24.148  0.3580  0.0358 -0.1267
 2920W        W45858  25.143  10.563  24.941 -0.0057 -0.1081  0.1387
 2921W        W45859  23.999   9.311  25.913  0.0596  0.1445  0.0477
 2922W        W45860  22.928   8.250  25.079 -0.1716 -0.1868 -0.2243
 2923W        W45861  24.683  10.608  25.715  0.2737 -0.0160  0.1577
 2924W        W45862  24.397   8.034  24.893 -0.0014  0.2620  0.2329
 2925W        W45863  24.376   6.551  24.560  0.1709  0.0531 -0.0650
 2926W        W45864  23.933   8.455  24.850  0.3993 -0.1641  0.0900
 2927W        W45865  22.840  10.454  26.831  0.1978 -0.0672 -0.2505
 2928W        W45866  21.992   9.841  25.712 -0.1352  0.1395  0.2060
 2929W        W45867  22.509  10.164  24.522 -0.1208 -0.0620  0.0104
 2930W        W45868  22.421  10.691  26.864 -0.1319  0.0624  0.1239
 2931W        W45869  25.919   8.826  27.654 -0.1512 -0.3791  0.1703
 2932W        W45870  22.307   8.512  27.161 -0.1922 -0.3200 -0.1180
 2933W        W45871  22.381  10.121  26.985 -0.1964  0.1713 -0.1953
 2934W        W45872  21.414   7.477  23.608 -0.0937  0.3337  0.0182
 2935W        W45873  24.899  10.166  24.453  0.0944 -0.0023  0.1009
 2936W        W45874  22.716   7.641  26.739 -0.0843 -0.1761  0.3800
 2937W        W45875  22.572   8.631  25.263  0.0981  0.1213  0.1288
 2938W        W45876  24.115  10.704  24.778 -0.3588  0.0972  0.2229
 2939W        W45877  24.988  11.361  25.701 -0.0709 -0.3611  0.3328
 2940W        W45878  22.270   8.033  24.530  0.1375 -0.1497 -0.1846
 2941W        W45879  25.295  12.333  26.902  0.1493 -0.0960  0.0808
 2942W        W45880  21.609   9.022  24.036  0.0585 -0.1342  0.0980
 2943W        W45881  23.111   9.677  27.492 -0.0447 -0.1158  0.0656
 2944W        W45882  23.702   7.942  27.876 -0.2633  0.1543 -0.0792
 2945W        W45883  22.425   7.229  23.364 -0.0235 -0.3338  0.0973
 2946W        W45884  23.316   7.411  25.290  0.1895 -0.3102 -0.0416
 2947W        W45885  23.763  10.397  25.984  0.1619 -0.2688 -0.0806
 2948W        W45886  24.091  12.415  24.815 -0.2074 -0.2139  0.2524
 2949W        W45887  21.969  10.521  27.807  0.2568 -0.0118 -0.2049
 2950W        W45888  23.496  10.959  26.133  0.0385  0.1152  0.0953
 2951W        W45889  21.969   7.080  26.465  0.0260 -0.0906 -0.0413
 2952W        W45890  25.100  10.470  23.637 -0.0913  0.1400 -0.5488
 2953W        W45891  22.946   9.904  27.071  0.2472  0.3755  0.1580
 2954W        W45892  26.194  10.179  24.556  0.0112 -0.3021  0.4173
 2955W        W45893  25.147   6.916  24.355 -0.1023  0.1447 -0.3319
 2956W        W45894  23.308   8.968  25.265 -0.1070  0.1232 -0.0299
 2957W        W45895  21.616   7.021  25.720  0.3095  0.0150 -0.1445
 2958W        W45896  21.463   9.618  27.322  0.0659  0.2046 -0.3116
 2959W        W45897  27.254  10.436  25.943 -0.2726 -0.0334  0.1660
 2960W        W45898  23.824   7.941  24.758  0.5245  0.1971 -0.1952
 2961W        W45899  24.395   9.280  25.377  0.1012  0.2012  0.2230
 2962W        W45900  23.643  10.334  23.804  0.0010  0.0032 -0.0116
 2963W        W45901  22.078  10.177  27.381  0.1540 -0.0982  0.0126
 2964W        W45902  23.091   9.537  24.913 -0.1635 -0.2012  0.2375
 2965W        W45903  24.438   9.561  27.505 -0.1555 -0.1547  0.2477
 2966W        W45904  24.144  10.393  26.399 -0.0801  0.0717 -0.2958
 2967W        W45905  24.435   8.957  27.347  0.0432  0.0271 -0.0638
 2968W        W45906  23.290   9.392  23.997  0.2419  0.0581 -0.1230
 2969W        W45907  25.490   9.318  24.552 -0.1026 -0.2650  0.2950
 2970W        W45908  25.117  12.111  26.519  0.1869 -0.1369  0.1308
 2971W        W45909  24.476  11.416  27.084 -0.0240 -0.0003  0.0488
 2972W        W45910  22.784  12.399  27.106 -0.0995  0.0447  0.1152
 2973W        W45911  25.679  10.577  24.811  0.0156 -0.4383 -0.0913
 2974W        W45912  23.288   7.549  27.241 -0.2487  0.3603  0.0265
 2975W        W45913  22.415  10.126  25.867 -0.0532 -0.0057 -0.1693
 2976W        W45914  23.390   9.597  24.454  0.2254 -0.1366  0.0934
 2977W        W45915  23.878   8.466  25.397 -0.0646  0.3549  0.1692
 2978W        W45916  22.126   8.081  25.295 -0.0922  0.0999 -0.1826
 2979W        W45917  24.198   7.893  24.404  0.2725 -0.0806  0.0147
 2980W        W45918  22.722  11.304  27.153 -0.2063 -0.2472  0.2494
 2981W        W45919  24.057   8.074  27.122 -0.1281 -0.1115 -0.1073
 2982W        W45920  23.025  12.272  29.782 -0.1763 -0.0043  0.2491
 2983W        W45921  23.451   8.511  30.105 -0.1487  0.1714  0.0601
 2984W        W45922  25.796  10.497  26.074 -0.1218  0.3683  0.0746
 2985W        W45923  25.178   8.468  27.277 -0.0438 -0.0939 -0.4918
 2986W        W45924  23.225   8.953  29.993  0.0272  0.1154  0.2751
 2987W        W45925  24.596  10.388  28.396 -0.0508 -0.2344  0.2004
 2988W        W45926  21.803   7.583   0.481  0.0264  0.2837  0.1628
 2989W        W45927  24.420  10.220  29.078  0.0325 -0.0495 -0.0600
 2990W        W45928  24.236  12.290  30.375  0.2330  0.1187  0.0784
 2991W        W45929  23.975   9.283  27.433 -0.3390  0.3064 -0.0062
 2992W        W45930  24.024   8.528  30.712 -0.1981 -0.3085  0.1694
 2993W        W45931  22.574  11.457  30.102  0.0016  0.0934  0.3526
 2994W        W45932  23.904   7.413  28.852  0.0308  0.2544  0.0696
 2995W        W45933  21.261   8.303  31.344 -0.1194 -0.1169  0.2806
 2996W        W45934  23.591   9.687  29.899 -0.3615 -0.2044 -0.0963
 2997W        W45935  22.443   8.608  27.899  0.1851  0.1558 -0.0931
 2998W        W45936  23.992   8.913  31.266  0.1370  0.0465 -0.0421
 2999W        W45937  23.016   8.601  29.317 -0.2788  0.4795  0.0295
 3000W        W45938  23.331  11.869  28.732  0.1729  0.2067 -0.2143
 3001W        W45939  22.197   8.218  30.424  0.1354  0.1826  0.1903
 3002W        W45940  23.620   7.301  31.460  0.0125 -0.2070 -0.1643
 3003W        W45941  23.257  11.046  27.127  0.0171  0.1087  0.2456
 3004W        W45942  22.888  10.034  27.796 -0.0591  0.0561 -0.0121
 3005W        W45943  21.688   8.715  29.016  0.0439 -0.0667 -0.1903
 3006W        W45944  22.296  10.456  29.954 -0.0481 -0.1169 -0.1420
 3007W        W45945  24.797   7.986  30.176  0.0632  0.3098 -0.2737
 3008W        W45946  23.973   9.343  30.353 -0.2888  0.2552 -0.0354
 3009W        W45947  23.893  10.368  29.149  0.0281 -0.1459 -0.3350
 3010W        W45948  22.890   9.201  29.655 -0.0167 -0.1962  0.1408
 3011W        W45949  25.874  10.005  31.098  0.2302 -0.1421 -0.0259
 3012W        W45950  22.615   8.961  28.859  0.0992 -0.3261  0.0299
 3013W        W45951  19.396  12.059  28.907  0.4840 -0.3784  0.2268
 3014W        W45952  23.769  10.333  28.229  0.0787 -0.2733 -0.0341
 3015W        W45953  25.586  10.096  28.217  0.2086 -0.3058  0.1510
 3016W        W45954  26.063  11.385  30.277 -0.5030  0.4514 -0.0697
 3017W        W45955  24.006  12.326  30.823 -0.2728 -0.2326  0.2288
 3018W        W45956  21.716   9.832  28.950  0.1133 -0.0503 -0.3593
 3019W        W45957  23.952  11.403  30.758  0.0294  0.2254  0.0092
 3020W        W45958  22.880  11.348  29.699  0.1095  0.0005 -0.0717
 3021W        W45959  24.464   9.317  30.344  0.1601  0.0680 -0.2028
 3022W        W45960  24.144   9.722  29.876 -0.0468 -0.2988 -0.0297
 3023W        W45961  23.903  11.161  27.198 -0.2104  0.2548  0.1376
 3024W        W45962  24.357  11.185  30.504 -0.3014 -0.2123  0.2847
 3025W        W45963  21.873  10.079  29.439 -0.2265 -0.3125  0.1506
 3026W        W45964  22.453   9.218  28.063 -0.0267  0.0700  0.0034
 3027W        W45965  25.362  10.468  29.833 -0.1909  0.1426  0.3303
 3028W        W45966  22.077  12.287  27.531  0.3182  0.0168 -0.1358
 3029W        W45967  24.192   9.920  27.699 -0.2812  0.2009 -0.0981
 3030W        W45968  23.785   8.650  28.177  0.3004  0.1001  0.2127
 3031W        W45969  24.655   8.218  28.010  0.1660  0.0480 -0.0685
 3032W        W45970  21.790   8.350  30.718 -0.2362 -0.0062 -0.0866
 3033W        W45971  22.410  10.788  27.902 -0.1050 -0.0582 -0.0629
 3034W        W45972  23.498   8.542  29.452  0.1258  0.1812  0.0469
 3035W        W45973  24.938   8.952  28.978 -0.1176 -0.0677  0.0911
 3036W        W45974  23.376   8.632  28.501  0.2081  0.2184  0.0695
 3037W        W45975  24.624   8.463  29.817  0.0285 -0.2050  0.0158
 3038W        W45976  22.236   9.912  28.979 -0.0209  0.1661 -0.0380
 3039W        W45977  23.742   9.268  28.029  0.0773 -0.0731  0.1806
 3040W        W45978  24.295  11.756  27.801 -0.1217 -0.1614 -0.2028
 3041W        W45979  25.704  11.735  29.185 -0.0914 -0.0345 -0.0753
 3042W        W45980  23.536  11.459  27.150 -0.3202  0.0189 -0.0651
 3043W        W45981  21.881  10.324  28.350 -0.0895 -0.0712 -0.0609
 3044W        W45982  22.305  10.231  30.397 -0.0157 -0.4374 -0.1810
 3045W        W45983  20.841   9.247  29.203  0.0965 -0.0098 -0.0282
 3046W        W45984  23.428   8.465  27.075  0.0876 -0.1733  0.1234
 3047W        W45985  24.740   9.849  30.551  0.2586  0.1500  0.0350
 3048W        W45986  22.366  10.303  29.401 -0.2449 -0.2934  0.0722
 3049W        W45987  24.786   8.389  28.488 -0.1768 -0.0525 -0.0265
 3050W        W45988  22.942  10.781  28.144  0.1180 -0.1425 -0.4184
 3051W        W45989  23.855  10.121  30.041  0.1852 -0.2437 -0.1550
 3052W        W45990  23.851   9.594  28.413  0.0935 -0.4416  0.2946
 3053W        W45991  24.389   8.612  30.249  0.0034  0.0628 -0.1700
 3054W        W45992  24.684   6.831  30.886  0.3479 -0.0699  0.0894
 3055W        W45993  23.354   9.965  28.217  0.2243  0.0470 -0.0618
 3056W        W45994  24.666   9.172  27.748 -0.1872 -0.0910  0.2125
 3057W        W45995  24.636  10.386  29.758 -0.2043 -0.0019 -0.3186
 3058W        W45996  25.275   8.727  28.584 -0.0800  0.0509 -0.0304
 3059W        W45997  22.704  12.256  29.056  0.1474  0.3331 -0.1425
 3060W        W45998  23.468   7.576  31.823  0.0010  0.4168 -0.2169
 3061W        W45999  24.570  10.873  31.614 -0.2870 -0.1629  0.0808
 3062W        W46000  23.274  10.805  26.681 -0.0161 -0.0309 -0.0623
 3063W        W46001  21.268  11.001  28.775 -0.1513 -0.0237 -0.0865
 3064W        W46002  22.405  10.298  27.875 -0.0202 -0.0774  0.1925
 3065W        W46003  21.178   8.311  29.604 -0.0492  0.2000  0.1532
 3066W        W46004  22.731  10.042  28.989 -0.3239 -0.0767  0.1373
 3067W        W46005  25.756   8.145  28.179  0.0559 -0.4698 -0.2053
 3068W        W46006  21.932   7.946  31.819 -0.2139 -0.0618  0.1067
 3069W        W46007  24.345   8.130  29.447  0.2285  0.1673 -0.2967
 3070W        W46008  21.424  10.532  27.926  0.0980 -0.0428 -0.0136
 3071W        W46009  25.094  10.868  29.281  0.0982 -0.1636 -0.2209
 3072W        W46010  24.618   9.242  28.279 -0.0715 -0.0973  0.2766
 3073W        W46011  24.165  10.646  26.818  0.0373 -0.1263  0.1761
 3074W        W46012  21.359   8.584  30.280 -0.0129 -0.0478 -0.0073
 3075W        W46013  23.910   7.669  29.622  0.2520  0.0276  0.0853
 3076W        W46014  20.867   8.881  30.969 -0.1289  0.0425 -0.3397
 3077W        W46015  21.166   8.816  29.426  0.0168  0.6046  0.0354
 3078W        W46016  24.582   8.966  29.754 -0.0603  0.0551  0.3249
 3079W        W46017  23.329   6.725  29.635 -0.0754 -0.3707  0.3401
 3080W        W46018  24.085   6.815  30.191 -0.0357  0.0738  0.1123
 3081W        W46019  24.439   8.083  28.466 -0.2652  0.1612 -0.3179
 3082W        W46020  21.031  10.371  26.985  0.0869 -0.2944 -0.2763
 3083W        W46021  25.354   8.569  31.716  0.0916 -0.1051  0.0901
 3084W        W46022  24.161  10.732  27.438 -0.0440  0.2042 -0.0209
 3085W        W46023  26.228  11.587  29.692 -0.3881 -0.2605  0.2441
 3086W        W46024  24.902  10.141  28.865 -0.3292  0.2579 -0.3465
 3087W        W46025  22.788   7.517  31.063 -0.0468 -0.1499  0.1952
 3088W        W46026  23.261   8.006  27.482  0.1740  0.0459 -0.0051
 3089W        W46027  22.282  10.898  28.812  0.4015 -0.2758 -0.1109
 3090W        W46028  22.840  10.922  28.743  0.1489 -0.1280 -0.0851
 3091W        W46029  23.232   7.683  28.048  0.0297  0.0792  0.0445
 3092W        W46030  24.861   9.517  28.710 -0.3475  0.0959  0.1022
 3093W        W46031  24.258   8.577  29.570  0.1808  0.1625  0.1724
 3094W        W46032  21.848  10.478  30.497 -0.1289 -0.0870 -0.2880
 3095W        W46033  26.490   6.221  30.905  0.3427  0.2504 -0.1389
 3096W        W46034  24.801  10.222  30.233 -0.0009 -0.0409  0.1063
 3097W        W46035  24.678  10.742  29.451  0.3748  0.0794 -0.0893
 3098W        W46036  21.716   8.433  29.454  0.1170 -0.0996  0.0694
 3099W        W46037  24.894  11.196  29.585 -0.2098  0.1753  0.0043
 3100W        W46038  21.265  10.962  26.361  0.2180  0.2398  0.0275
 3101W        W46039  22.984   9.240  28.093 -0.1018 -0.0951 -0.1187
 3102W        W46040  24.388  10.909  27.846  0.0655  0.0864 -0.1145
 3103W        W46041  25.317   9.573  29.077  0.2671  0.1951 -0.2427
 3104W        W46042  21.873  11.080  29.622  0.2287 -0.1517  0.0399
 3105W        W46043  24.728   9.153  31.474  0.4823 -0.2133 -0.2034
 3106W        W46044  23.044   8.066  28.416  0.1616 -0.0607 -0.0890
 3107W        W46045  22.772  11.846  28.835 -0.3832  0.0515 -0.1777
 3108W        W46046  24.299   8.146  30.469 -0.0729 -0.0417  0.0471
 3109W        W46047  24.921   7.516  27.825  0.0870  0.1042  0.1713
 3110W        W46048  24.296   9.991  30.868  0.0851 -0.2049 -0.0889
 3111W        W46049  25.251  10.557  28.861  0.2774 -0.1522  0.2155
 3112W        W46050  24.003   8.923  28.963 -0.1078 -0.0103  0.0081
 3113W        W46051  23.460   7.873  29.413  0.0096 -0.0911  0.1367
 3114W        W46052  21.428  10.359  29.984 -0.1195  0.0523 -0.0104
 3115W        W46053  24.337   9.556  28.562  0.1414  0.1532  0.1817
 3116W        W46054  23.281  10.141  29.838 -0.1592 -0.0190  0.0791
 3117W        W46055  24.029   7.895  28.689  0.0696 -0.1237  0.5945
 3118W        W46056  23.149  10.639  30.118 -0.0567  0.2392 -0.0641
 3119W        W46057  21.101   9.262  30.583  0.1486  0.0617  0.2900
 3120W        W46058  23.658   9.222  29.981  0.0016 -0.0406 -0.2208
 3121W        W46059  24.719  11.590  29.762 -0.2032  0.3063  0.0511
 3122W        W46060  22.040   7.684  30.308  0.0272  0.2147 -0.0782
 3123W        W46061  24.585   8.602  27.688 -0.3973  0.1923  0.1187
 3124W        W46062  24.018   6.447  28.928  0.1538 -0.0753  0.0542
 3125W        W46063  21.446  11.352  29.573 -0.1678  0.1350  0.0436
 3126W        W46064  24.188   9.040  28.434  0.2971 -0.0808 -0.1741
 3127W        W46065  22.843   8.683  29.891  0.1382  0.0821  0.0776
 3128W        W46066  23.065   7.854  31.377 -0.1042  0.0608  0.0468
 3129W        W46067  24.664   9.320  30.832 -0.1564  0.0073  0.1754
 3130W        W46068  24.255   8.329  28.988 -0.0169 -0.3058 -0.0949
 3131W        W46069  24.993   9.411  30.473 -0.3564 -0.0619 -0.3996
 3132W        W46070  22.903   8.856  27.767  0.1347  0.4866 -0.0737
 3133W        W46071  22.582   8.541  31.072  0.0700 -0.0002  0.2677
 3134W        W46072  23.416   9.055  30.450 -0.2253 -0.2329  0.0342
 3135W        W46073  22.816   9.900  29.614 -0.0004  0.0288  0.0911
 3136W        W46074  24.145  11.466  31.247 -0.4192 -0.0831 -0.1000
 3137W        W46075  24.505   9.697  28.995 -0.2219 -0.0826 -0.0442
 3138W        W46076  23.921   9.181   0.507 -0.0810  0.1689 -0.2158
 3139W        W46077  23.764   7.222  28.387 -0.0670 -0.2146  0.1289
 3140W        W46078  24.135  12.160  27.535  0.3178  0.0421  0.1640
 3141W        W46079  23.822  10.191  26.836  0.2214  0.4358  0.1713
 3142W        W46080  22.092   7.609  29.315 -0.4330  0.2377  0.0861
 3143W        W46081  23.363  10.335  28.954 -0.2162  0.1402  0.1005
 3144W        W46082  23.354  10.111  25.310  0.1975 -0.0792 -0.1499
 3145W        W46083  23.755  11.647  30.062 -0.2356  0.1751 -0.1788
 3146W        W46084  22.961  11.277  28.249 -0.1651 -0.0521  0.0781
 3147W        W46085  25.595   6.721  29.796  0.2248  0.0603 -0.0787
 3148W        W46086  21.894   8.664  30.344 -0.0343  0.3255 -0.3413
 3149W        W46087  22.312   7.999  29.053 -0.0543 -0.4253 -0.0659
 3150W        W46088  22.090   8.907  28.149  0.1562 -0.0600  0.0696
 3151W        W46089  25.494   8.542  29.626 -0.2957  0.1503  0.2099
 3152W        W46090  24.735   9.908  28.478 -0.0687 -0.1129 -0.1231
 3153W        W46091  21.676   8.073  30.297 -0.0037 -0.3484 -0.2438
 3154W        W46092  22.625   8.362  29.585 -0.0994  0.0247  0.1216
 3155W        W46093  21.830  10.660  29.967  0.0803  0.1859 -0.0715
 3156W        W46094  24.494   8.472  30.835  0.1607 -0.2708  0.4392
 3157W        W46095  24.747   8.494  29.053 -0.1601  0.1673  0.2856
 3158W        W46096  25.297   9.621  30.067 -0.4795 -0.0677  0.1711
 3159W        W46097  23.350   9.245  31.073 -0.0862  0.1028 -0.2533
 3160W        W46098  22.143   9.360  29.476  0.2249  0.0712  0.0510
 3161W        W46099  25.803   9.656  29.926 -0.1269 -0.1265 -0.1883
 3162W        W46100  23.663   8.200  28.474 -0.2964 -0.0387 -0.0443
 3163W        W46101  24.178   9.860  29.396 -0.0194  0.1128  0.1893
 3164W        W46102  23.145  10.510  29.520 -0.0243 -0.0349 -0.0371
 3165W        W46103  22.961   8.048  29.288  0.0264 -0.0910 -0.2275
 3166W        W46104  22.030   9.684  28.547  0.1433 -0.2427 -0.1731
 3167W        W46105  23.043  10.337  30.548  0.2102  0.0409 -0.2990
 3168W        W46106  25.747   9.916  28.763 -0.3050 -0.0900  0.2327
 3169W        W46107  22.633   8.281  30.647  0.1169 -0.0099 -0.0092
 3170W        W46108  22.591   8.486  29.094  0.1080  0.0057 -0.1330
 3171W        W46109  24.856  10.359  31.797  0.0571  0.1982  0.1334
 3172W        W46110  23.870  10.583  30.266  0.2246  0.1450  0.1833
 3173W        W46111  24.491   8.872  29.261 -0.1555 -0.1396 -0.2365
 3174W        W46112  22.757  10.774  29.770  0.6393 -0.3867  0.1186
 3175W        W46113  23.429   8.045  30.907  0.0291  0.0102  0.1142
 3176W        W46114  26.172  11.329  27.682  0.0633  0.1102  0.0718
 3177W        W46115  24.764  11.432   0.276 -0.1688  0.0275  0.2661
 3178W        W46116  23.482  11.518  28.405  0.1946  0.1811 -0.2729
 3179W        W46117  20.369   8.482  28.284 -0.0856 -0.2078 -0.0183
 3180W        W46118  23.644   9.728  26.737 -0.3502 -0.2299 -0.2243
 3181W        W46119  23.001   7.867  30.698 -0.1570  0.1304  0.0676
 3182W        W46120  22.791  10.542  27.701  0.4661  0.1866  0.1091
 3183W        W46121  23.292  11.474  27.946  0.0311 -0.0302 -0.2516
 3184W        W46122  22.592   9.396  29.269  0.0205 -0.0051  0.0493
 3185W        W46123  24.117   7.525  27.109 -0.0641  0.2498 -0.1585
 3186W        W46124  25.150   8.874  26.559 -0.1436 -0.0160 -0.1203
 3187W        W46125  23.400   7.234  28.860  0.1217  0.0167 -0.1784
 3188W        W46126  25.479   9.087  30.396  0.1771 -0.0287  0.0664
 3189W        W46127  23.717   9.705  27.568 -0.0755 -0.2338 -0.0571
 3190W        W46128  24.623   8.570   0.342 -0.0508 -0.1952  0.2854
 3191W        W46129  22.997   8.350  31.398 -0.0702 -0.1601  0.0976
 3192W        W46130  24.246  10.835  29.898 -0.1629 -0.0961  0.2484
 3193W        W46131  21.203   9.666  29.214 -0.2354 -0.1518  0.0082
 3194W        W46132  23.963  13.027  30.092 -0.1968  0.0970  0.0516
 3195W        W46133  22.986  10.823  30.578 -0.0967  0.0252  0.1878
 3196W        W46134  23.401   9.053  29.515 -0.0557  0.2280  0.0549
 3197W        W46135  22.783   8.175  27.785 -0.0187 -0.0684  0.1729
 3198W        W46136  22.643   8.911  29.365 -0.1025  0.2470 -0.0381
 3199W        W46137  24.998   9.855  29.342 -0.0181 -0.1480  0.0740
 3200W        W46138  23.330  10.411  28.452  0.0443 -0.2473  0.0965
 3201W        W46139  25.053   9.398  31.187  0.2976  0.3673  0.3344
 3202W        W46140  22.670   9.437  28.637 -0.0433 -0.1980 -0.0867
 3203W        W46141  23.765   8.407  28.975  0.2978 -0.3323 -0.2512
 3204W        W46142  24.018   9.000  29.453  0.0202  0.1127  0.0790
 3205W        W46143  22.456   9.091  30.944 -0.0474 -0.1065  0.0930
 3206W        W46144  23.480   9.018   0.909 -0.2178  0.1895 -0.0611
 3207W        W46145  24.702   9.657  30.047  0.2097 -0.0715  0.2443
 3208W        W46146  23.852   8.751  29.856 -0.1729  0.1857 -0.0990
 3209W        W46147  23.911   8.172  29.644 -0.1054 -0.0579 -0.1291
 3210W        W46148  24.766   9.437  31.890 -0.0939  0.0576  0.0362
 3211W        W46149  24.778   8.943  30.164 -0.2728  0.0252 -0.3389
 3212W        W46150  22.368   8.578  30.066 -0.0074 -0.1798  0.2581
 3213W        W46151  24.551  11.169  29.206 -0.3262  0.0821 -0.1135
 3214W        W46152  25.167   9.156  28.211 -0.1653  0.0257 -0.2333
 3215W        W46153  25.200   8.987  31.411 -0.0117 -0.1248  0.1181
 3216W        W46154  24.490   9.200  28.852  0.1455  0.0387 -0.2113
 3217W        W46155  23.381   9.194  27.571 -0.0202  0.2613  0.0710
 3218W        W46156  23.528   8.017  29.963 -0.2422 -0.0986  0.0044
 3219W        W46157  25.592   8.742   0.843 -0.2564 -0.0275 -0.1014
 3220W        W46158  23.444   5.826  27.612 -0.2605 -0.0337  0.3118
 3221W        W46159  25.537   9.069  31.019  0.1393  0.1508  0.0417
 3222W        W46160  23.755  10.146  27.760 -0.2700  0.2097  0.0076
 3223W        W46161  23.671   9.837  29.159 -0.3120 -0.1828 -0.0547
 3224W        W46162  22.416   8.067  29.935  0.0438 -0.1516  0.2085
 3225W        W46163  22.096   7.549  28.745  0.0754  0.3567  0.0254
 3226W        W46164  22.034  11.394  30.145 -0.1744 -0.0653  0.0628
 3227W        W46165  21.168   8.896  28.448 -0.0302  0.3137  0.1526
 3228W        W46166  24.074   9.893  28.887  0.2660  0.1789  0.0973
 3229W        W46167  21.900   9.578  31.194  0.1410 -0.1250 -0.1040
 3230W        W46168  24.688  10.977   0.137 -0.0577  0.2781 -0.0476
 3231W        W46169  24.503   7.652  28.022 -0.3012  0.0381  0.0643
 3232W        W46170  25.117  10.608  30.320  0.0274  0.1458 -0.4561
 3233W        W46171  22.744  11.857  27.078  0.0524  0.2376  0.1253
 3234W        W46172  24.231   7.305  29.256 -0.0274  0.1231 -0.1896
 3235W        W46173  22.811  11.927  30.272 -0.0934 -0.2045 -0.0610
 3236W        W46174  22.246  11.248  31.277  0.1301  0.0408  0.2866
 3237W        W46175  22.846  10.260  28.235 -0.1886 -0.1706 -0.1622
 3238W        W46176  22.413   7.498  29.919 -0.2542  0.0988 -0.1678
 3239W        W46177  23.756   9.035  30.825  0.0832  0.1058  0.0885
 3240W        W46178  23.273  10.981  29.743  0.2131 -0.1152 -0.0687
 3241W        W46179  23.489  11.042  30.770 -0.1801 -0.0182 -0.2683
 3242W        W46180  23.344   9.538  30.302  0.0757  0.0805 -0.1607
 3243W        W46181  24.161   9.246  29.868  0.0133  0.3094  0.1013
 3244W        W46182  24.360  11.761  30.910 -0.0240 -0.2103 -0.2479
 3245W        W46183  25.860   9.613  29.383 -0.1390 -0.0316  0.0976
 3246W        W46184  23.090   8.638  30.404  0.1212  0.1520 -0.2353
 3247W        W46185  22.582   8.751  30.464 -0.1909 -0.0370 -0.1441
 3248W        W46186  24.530   8.358  31.321 -0.1991 -0.1454  0.0888
 3249W        W46187  23.750  10.092  29.574 -0.1129 -0.1517  0.1640
 3250W        W46188  23.904   6.769  28.558 -0.0287 -0.1049  0.0115
 3251W        W46189  23.592  10.071  26.353 -0.1412  0.2019 -0.2974
 3252W        W46190  21.795   9.970  30.780 -0.0303 -0.2003  0.0520
 3253W        W46191  22.557   9.063  30.051  0.0666  0.1960 -0.2103
 3254W        W46192  23.879  10.832  28.020 -0.0411  0.2409  0.0050
 3255W        W46193  24.243  10.391  28.029 -0.2116  0.1226  0.0315
 3256W        W46194  24.275   9.544  28.042 -0.3529  0.1293 -0.0851
 3257W        W46195  23.774   9.765  30.583  0.2016 -0.0981 -0.2469
 3258W        W46196  23.522   7.693  28.438 -0.0876  0.0006  0.0634
 3259W        W46197  23.413  11.027  28.215 -0.1151  0.0719  0.2751
 3260W        W46198  21.952   9.404  28.102 -0.1709  0.2168 -0.0451
 3261W        W46199  24.167  10.398  28.694  0.1549 -0.1889 -0.0994
 3262W        W46200  21.897  10.161  30.043 -0.0570  0.0890  0.0949
 3263W        W46201  23.872  11.016  31.172  0.0299  0.1724 -0.0968
 3264W        W46202  26.166   9.457  25.718  0.1071 -0.3423  0.0242
 3265W        W46203  25.280   9.888  28.572 -0.1525 -0.0067  0.0392
 3266W        W46204  25.226   8.303  28.309  0.0387  0.2130  0.0611
 3267W        W46205  23.733  10.584  30.967  0.2074 -0.2929 -0.0882
 3268W        W46206  23.886   8.825  30.355 -0.1564  0.0953 -0.3548
 3269W        W46207  22.859   7.811  27.369 -0.0227  0.1711 -0.0169
 3270W        W46208  23.121   7.344  31.479 -0.2636  0.4011  0.1503
 3271W        W46209  26.090   8.402  30.159 -0.0022 -0.1704 -0.3880
 3272W        W46210  22.369  11.880  29.586 -0.1221  0.0758 -0.3896
 3273W        W46211  24.279  10.841  28.370 -0.2251  0.2901  0.2949
 3274W        W46212  22.208   9.079  30.469  0.2150  0.0206  0.2670
 3275W        W46213  22.945   9.542  30.034 -0.0732 -0.1347  0.1454
 3276W        W46214  24.830   8.495  30.370  0.0178  0.0068 -0.0888
 3277W        W46215  23.563  10.013  28.651  0.4693  0.1053  0.2179
 3278W        W46216  23.920   8.309  30.133 -0.0058 -0.0390  0.2778
 3279W        W46217  23.671  10.540  29.811 -0.1481 -0.1030 -0.0664
 3280W        W46218  21.123   9.926  29.700 -0.2149 -0.0573 -0.1311
 3281W        W46219  23.347  13.136  29.707 -0.1135 -0.1979  0.1511
 3282W        W46220  22.702   8.942  28.356 -0.1873 -0.2503  0.1707
 3283W        W46221  25.202   9.323  27.607  0.3573 -0.0762 -0.3334
 3284W        W46222  23.805   8.375  31.165 -0.3873  0.3861 -0.3014
 3285W        W46223  25.847   8.285  31.258 -0.3490 -0.2383  0.2462
 3286W        W46224  23.397   8.758  29.012  0.0795  0.0052  0.0441
 3287W        W46225  24.351   7.986  29.929 -0.0048 -0.1231  0.1218
 3288W        W46226  22.873  10.428  28.714 -0.0589 -0.1146 -0.0981
 3289W        W46227  21.557   8.773  29.846 -0.2853  0.2972 -0.1508
 3290W        W46228  24.041  10.251  27.299  0.0609 -0.0300  0.1773
 3291W        W46229  25.555  10.053  29.603 -0.0429  0.1608 -0.0560
 3292W        W46230  22.708   9.357  27.665 -0.1982 -0.3850 -0.0621
 3293W        W46231  24.747  11.536  30.295 -0.2361  0.0680 -0.0432
 3294W        W46232  21.671   8.878  28.511  0.1086 -0.2499  0.0624
 3295W        W46233  24.040   7.703  28.175  0.1211 -0.1591 -0.1565
 3296W        W46234  23.195  10.931  27.680  0.0206  0.0449  0.0260
 3297W        W46235  23.429   8.744  31.227  0.1587 -0.0410  0.0888
 3298W        W46236  24.894  10.385  30.732 -0.3952 -0.1766 -0.0430
 3299W        W46237  21.361   7.951  28.916 -0.1640  0.3400 -0.2193
 3300W        W46238  26.518  10.555  26.441 -0.2298 -0.2286 -0.2664
 3301W        W46239  24.922   9.606  28.086 -0.1933 -0.3016 -0.0222
 3302W        W46240  23.610  11.188  27.561  0.1027  0.1479  0.0571
 3303W        W46241  24.498   8.738  28.716  0.1941  0.0186  0.2305
 3304W        W46242  24.755  10.865  30.668 -0.0587  0.2557 -0.1596
 3305W        W46243  23.050   9.982  28.635 -0.0067  0.0549 -0.1679
 3306W        W46244  25.575  10.955  28.806  0.0843  0.0422 -0.2117
 3307W        W46245  25.960  10.834  29.179 -0.0020  0.0353  0.2360
 3308W        W46246  23.602   7.293  29.358  0.0134 -0.1181  0.0913
 3309W        W46247  23.866  10.053  31.689  0.1523 -0.2888 -0.3497
 3310W        W46248  23.664  11.083  26.594  0.1230 -0.1123 -0.1754
 3311W        W46249  25.220   9.929  30.417 -0.3503 -0.0748  0.1441
 3312W        W46250  25.300   7.948  30.157 -0.3375  0.2813  0.1524
 3313W        W46251  24.634  11.366  27.602 -0.0754 -0.0464 -0.0866
 3314W        W46252  24.081   7.982   0.031  0.3203 -0.1093  0.1562
 3315W        W46253  22.631  12.686  30.233  0.4068 -0.1632  0.1449
 3316W        W46254  22.865  11.113  30.126 -0.3259  0.0882  0.2866
 3317W        W46255  21.545   9.045  28.028 -0.1244  0.1969 -0.0212
 3318W        W46256  23.656   9.186  31.452  0.1491  0.1453 -0.1645
 3319W        W46257  23.239   9.637  28.902  0.2914 -0.2402 -0.1097
 3320W        W46258  22.979  11.409  28.734  0.0336 -0.2713 -0.1677
 3321W        W46259  24.301  10.262  30.232  0.0406  0.0568 -0.2787
 3322W        W46260  24.462   9.329  29.455 -0.2480  0.1935  0.1482
 3323W        W46261  26.195   9.561  28.980  0.1190 -0.0880  0.1549
 3324W        W46262  22.771   7.330  29.523  0.0783 -0.2895 -0.0590
 3325W        W46263  25.942   7.654  28.494  0.1260  0.0358 -0.2516
 3326W        W46264  25.741   8.105  29.866 -0.4473 -0.0266 -0.1145
 3327W        W46265  24.392   8.731  31.707  0.0767 -0.0572  0.0220
 3328W        W46266  22.398   9.217  26.993  0.1718 -0.0117 -0.0334
 3329W        W46267  22.806  10.787  27.258 -0.3037 -0.0152  0.1140
 3330W        W46268  24.104   9.413  29.053  0.1750 -0.0490 -0.1277
 3331W        W46269  24.412   7.414  31.644  0.2067  0.0114  0.1053
 3332W        W46270  23.731   9.130  31.983 -0.2405 -0.1406  0.1213
 3333W        W46271  23.326   9.457  28.396 -0.3778  0.1232  0.2426
 3334W        W46272  22.094   8.087  29.503  0.2583 -0.0469  0.1867
 3335W        W46273  24.982  11.034  28.768  0.2591 -0.0155 -0.1209
 3336W        W46274  22.360   6.750  30.408  0.1226 -0.1129 -0.1982
 3337W        W46275  21.430   9.051  30.956  0.1617 -0.2463  0.3745
 3338W        W46276  23.752   9.438  29.506 -0.0148  0.1409 -0.1099
 3339W        W46277  25.416  10.189  30.882 -0.1411 -0.0144  0.1242
 3340W        W46278  22.722   7.712  28.011  0.0925 -0.1395 -0.3907
 3341W        W46279  26.864  11.775  30.849 -0.0407 -0.0480 -0.0627
 3342W        W46280  23.279  10.522  27.928  0.4333 -0.2446 -0.1401
 3343W        W46281  22.986   8.973  30.847 -0.1418 -0.0488 -0.1172
 3344W        W46282  22.547   7.774   0.620  0.1401 -0.3050 -0.1324
 3345W        W46283  23.707   8.278  27.519  0.0988 -0.1619 -0.0624
 3346W        W46284  25.268   8.709  30.191  0.1528  0.0598  0.3152
 3347W        W46285  23.753  11.075  29.810  0.0482 -0.0548  0.1883
 3348W        W46286  24.375  11.305  28.228 -0.0690  0.0971  0.1755
 3349W        W46287  23.192  11.576  29.273  0.0452 -0.0350 -0.3397
 3350W        W46288  22.709  11.650  29.290 -0.0537 -0.2078  0.2457
 3351W        W46289  21.445   8.166  31.801  0.1078 -0.3248 -0.1019
 3352W        W46290  24.553   9.997  28.030 -0.1889 -0.2691  0.0289
 3353W        W46291  25.094  11.383  29.166  0.1802 -0.0002  0.1607
 3354W        W46292  25.569  10.923  27.756  0.0701  0.0958 -0.1586
 3355W        W46293  25.017   8.053  28.733  0.1117  0.1832  0.2075
 3356W        W46294  25.011   8.825  29.495 -0.1682 -0.1908 -0.0002
 3357W        W46295  20.861   7.967  31.325 -0.3081 -0.2753 -0.0036
 3358W        W46296  23.490  10.113  30.832  0.3472  0.1505  0.2085
 3359W        W46297  25.880  11.159  29.629  0.4387 -0.2327  0.2580
 3360W        W46298  22.434   7.274  30.416 -0.0878  0.2677  0.3035
 3361W        W46299  24.058   8.209  28.158 -0.0107 -0.0220 -0.0713
 3362W        W46300  23.143  12.028  29.176  0.0133 -0.4255 -0.1106
 3363W        W46301  22.859   8.239  30.128  0.0799  0.1640  0.3157
 3364W        W46302  23.341   8.191  28.925 -0.1079 -0.1204  0.0123
 3365W        W46303  23.952   7.814  30.139 -0.3760  0.0566 -0.0140
 3366W        W46304  23.426  11.426  29.744 -0.2044 -0.0522 -0.0961
 3367W        W46305  24.114   9.338  30.982  0.1223  0.0427  0.2261
 3368W        W46306  23.042   9.177  29.137  0.0338 -0.0834  0.3185
 3369W        W46307  24.548   9.941  27.196 -0.1036  0.1691  0.4163
 3370W        W46308  23.775  12.589  30.287 -0.0280  0.0694  0.0216
 3371W        W46309  24.111  13.188  31.246 -0.3314  0.2057 -0.3657
 3372W        W46310  22.638  10.687  30.281  0.2046  0.2433 -0.2008
 3373W        W46311  23.946  10.893  30.669  0.2000  0.5014  0.0595
 3374W        W46312  21.296   8.141  30.603 -0.1491 -0.1696 -0.2469
 3375W        W46313  23.648   9.057  28.522  0.1079  0.0399 -0.0449
 3376W        W46314  24.592   9.869  29.606  0.1749  0.0691  0.1807
 3377W        W46315  24.926   9.320  29.336  0.1308  0.0816  0.1006
 3378W        W46316  21.287   7.756  30.989 -0.0937 -0.0872  0.2209
 3379W        W46317  24.773   7.272  29.258  0.4249 -0.2802  0.2426
 3380W        W46318  23.381  12.066  30.148 -0.0749  0.4966 -0.1966
 3381W        W46319  23.200   9.572  29.544 -0.1600  0.0466  0.0057
 3382W        W46320  24.339   8.423   0.701 -0.2640 -0.0157 -0.0880
 3383W        W46321  24.952   9.878  31.039  0.1079  0.0309  0.0779
 3384W        W46322  22.872   9.147  30.402 -0.2062  0.1813  0.2200
 3385W        W46323  22.937  10.332   0.129  0.1023 -0.2086 -0.0031
 3386W        W46324  23.753  11.380  31.622  0.0130  0.0282 -0.4285
 3387W        W46325  20.948  10.336   0.850 -0.1102  0.1592  0.1358
 3388W        W46326  25.003  10.281  31.303  0.3358 -0.1451 -0.1211
 3389W        W46327  25.376   8.589  31.191  0.2218 -0.1086  0.3213
 3390W        W46328  24.154   9.526   0.206 -0.1833 -0.0971  0.2068
 3391W        W46329  24.393  11.090  31.013  0.2410 -0.2475  0.1266
 3392W        W46330  24.181   9.969   0.958 -0.0605  0.0106 -0.3600
 3393W        W46331  21.810   7.976  31.212  0.3233  0.0718  0.3671
 3394W        W46332  25.101  11.601  31.268  0.1993  0.0273  0.1125
 3395W        W46333  23.021   8.966  31.358  0.1752 -0.1753  0.1996
 3396W        W46334  25.023   7.679  30.854 -0.0898 -0.0588  0.3336
 3397W        W46335  19.982  10.677  30.747 -0.0929 -0.0318  0.2737
 3398W        W46336  22.138   9.242  31.655  0.1147  0.2178  0.0741
 3399W        W46337  22.877   9.999  30.237 -0.0836  0.3006 -0.2504
 3400W        W46338  20.955   6.948   1.096 -0.1459 -0.5294  0.2171
 3401W        W46339  22.628   8.029  31.127  0.1159 -0.1075 -0.0046
 3402W        W46340  23.396   8.867   0.315  0.0944 -0.0298 -0.1364
 3403W        W46341  22.432   9.973  30.015 -0.1005  0.1909 -0.1602
 3404W        W46342  25.208   9.422  31.727  0.1948  0.1776  0.0931
 3405W        W46343  24.879   8.497  31.630 -0.0442 -0.0978 -0.0369
 3406W        W46344  23.126   7.694   0.186  0.4016  0.0336  0.0786
 3407W        W46345  24.445   8.911  31.110  0.1275 -0.0665 -0.1921
 3408W        W46346  23.088   8.475  30.931 -0.0849  0.0619 -0.0087
 3409W        W46347  22.162  12.677  31.302  0.3692 -0.0944 -0.0504
 3410W        W46348  23.657   9.622  31.065 -0.2473  0.1037 -0.1832
 3411W        W46349  23.149  11.545  30.126 -0.0602 -0.1251 -0.0157
 3412W        W46350  23.968   9.570  31.415  0.0791 -0.2516 -0.0678
 3413W        W46351  23.194   9.774  31.033  0.1578  0.3963 -0.1051
 3414W        W46352  24.248   9.814  30.407 -0.0574  0.2263  0.1461
 3415W        W46353  25.037   8.071  31.419 -0.1068  0.1311  0.0509
 3416W        W46354  23.065   9.732   0.575 -0.3012 -0.2025  0.0801
 3417W        W46355  23.348  10.457  31.710 -0.1721 -0.0054 -0.1671
 3418W        W46356  23.901  10.238  30.608 -0.0147 -0.0202 -0.1770
 3419W        W46357  24.265  10.136   0.066  0.0244 -0.0896 -0.2314
 3420W        W46358  24.380   7.979   0.458 -0.2664  0.1871 -0.2564
 3421W        W46359  23.176   9.575  31.505 -0.0453  0.0497 -0.0966
 3422W        W46360  25.342   9.604  29.556  0.1950  0.1530 -0.0545
 3423W        W46361  23.857   8.685   0.416 -0.1635  0.2845  0.6206
 3424W        W46362  22.714   8.130   0.264 -0.0899 -0.0699  0.0007
 3425W        W46363  23.218  10.659  30.993  0.0420  0.0406  0.1616
 3426W        W46364  22.359  10.670  31.287  0.0030 -0.1293  0.1805
 3427W        W46365  22.355  10.136  31.289 -0.2413  0.0534  0.0929
 3428W        W46366  23.827   6.501  31.139  0.1104  0.0520 -0.0555
 3429W        W46367  22.656  10.438  30.860  0.1163 -0.0152 -0.0782
 3430W        W46368  23.475  11.516  30.478  0.1542 -0.0052 -0.5255
 3431W        W46369  22.110  10.731  31.919 -0.0862 -0.0917 -0.3252
 3432W        W46370  24.465  10.177  31.410 -0.0733  0.0256  0.1518
 3433W        W46371  26.214   7.939  29.829 -0.0714  0.0139 -0.0459
 3434W        W46372  22.692   7.569   0.091 -0.0050  0.0497 -0.1981
 3435W        W46373  22.290  10.958  30.054 -0.1354 -0.0437 -0.1064
 3436W        W46374  22.572   9.057  31.516 -0.0951  0.0487  0.0422
 3437W        W46375  24.227   9.159  31.615 -0.1183 -0.1457  0.1616
 3438W        W46376  24.234  10.638  31.146  0.1388  0.2704 -0.1141
 3439W        W46377  21.849  13.005  30.990  0.1002  0.0919  0.2340
 3440W        W46378  22.314  10.324  31.761 -0.1040 -0.2032 -0.1351
 3441W        W46379  22.270   9.432   0.108  0.3527  0.3689 -0.2225
 3442W        W46380  21.363  10.279   0.564 -0.0832  0.0387  0.0388
 3443W        W46381  24.049   8.284  31.630 -0.0288  0.1322  0.3198
 3444W        W46382  23.059  10.236  31.161  0.0956 -0.1136  0.2528
 3445W        W46383  22.164   8.790   1.151  0.1021  0.2456  0.4331
 3446W        W46384  23.462  12.222  30.800  0.2047 -0.0802 -0.2004
 3447W        W46385  25.906  10.782  31.895 -0.1840 -0.0638 -0.1614
 3448W        W46386  23.772  10.468  31.973 -0.1139 -0.2769 -0.3062
 3449W        W46387  23.830  12.238  17.986  0.0933  0.3728 -0.0501
 3450W        W46388  23.798  12.483  16.244  0.2509 -0.1449  0.1764
 3451W        W46389  23.952  11.669  16.512  0.0292  0.1409  0.1979
 3452W        W46390  26.074  13.258  16.085  0.4113 -0.4206  0.1187
 3453W        W46391  23.182  10.894  18.843  0.0811 -0.0111 -0.0774
 3454W        W46392  24.340  13.302  17.081 -0.0842  0.0965 -0.0331
 3455W        W46393  21.986   9.909  19.324  0.0303 -0.0273 -0.0307
 3456W        W46394  23.429  12.924  18.220  0.0431 -0.0072 -0.2100
 3457W        W46395  25.491  14.232  19.240 -0.3981  0.2335 -0.0879
 3458W        W46396  23.057  13.628  15.680 -0.0630 -0.0349 -0.2723
 3459W        W46397  23.039  11.364  17.551  0.2465  0.1322 -0.3159
 3460W        W46398  24.327  10.946  18.002  0.1630 -0.2816  0.0440
 3461W        W46399  22.417  11.047  15.961  0.1334  0.3670  0.2978
 3462W        W46400  21.431  10.646  17.225  0.3061 -0.2738 -0.2262
 3463W        W46401  24.941  11.874  19.664 -0.1381  0.1306  0.4414
 3464W        W46402  22.621  11.523  16.752  0.1011  0.0667  0.1818
 3465W        W46403  20.897  10.057  18.647 -0.2548  0.3072  0.0045
 3466W        W46404  23.533  12.017  17.682  0.0860  0.1024 -0.2013
 3467W        W46405  23.780  12.501  17.600  0.0087  0.1046 -0.1613
 3468W        W46406  24.064  10.762  18.402  0.3335 -0.2103  0.0756
 3469W        W46407  23.528   8.923  19.087  0.0806 -0.1636 -0.1419
 3470W        W46408  23.537  13.184  16.380 -0.0493  0.1143  0.1177
 3471W        W46409  21.248  11.618  15.809 -0.0412  0.2636  0.0407
 3472W        W46410  21.304  10.888  17.712 -0.1493  0.0134 -0.1165
 3473W        W46411  23.613  11.105  19.690 -0.0902  0.1796  0.0504
 3474W        W46412  24.215  11.929  16.939 -0.0334 -0.1772  0.3754
 3475W        W46413  25.601  12.162  17.885 -0.3053 -0.3995 -0.0249
 3476W        W46414  24.250  13.984  17.182  0.0117  0.4359 -0.1654
 3477W        W46415  25.170  14.431  17.382  0.3018 -0.0859 -0.1815
 3478W        W46416  26.069  12.723  21.554 -0.2743 -0.1078  0.0699
 3479W        W46417  21.833  11.077  17.529  0.1185  0.0191 -0.0969
 3480W        W46418  23.462  13.754  17.291 -0.0614 -0.1402 -0.0212
 3481W        W46419  21.913  12.932  16.604  0.3512 -0.0460  0.0006
 3482W        W46420  25.739  14.229  16.455  0.0057 -0.2830 -0.0998
 3483W        W46421  25.000  12.882  18.824  0.1552  0.1112  0.0866
 3484W        W46422  24.397  14.487  20.070 -0.0568 -0.0533 -0.1472
 3485W        W46423  22.208  13.427  15.647 -0.0427  0.0562 -0.0190
 3486W        W46424  24.908  13.504  17.900  0.2174 -0.1653  0.0357
 3487W        W46425  24.751  12.767  17.839 -0.0041 -0.1186  0.0068
 3488W        W46426  23.812  11.619  17.495 -0.2954 -0.0092  0.3339
 3489W        W46427  25.260  12.043  18.256 -0.1120  0.0862  0.2338
 3490W        W46428  24.031  12.907  17.049 -0.2820 -0.1225  0.1551
 3491W        W46429  24.585  12.785  17.101 -0.1799  0.1871 -0.2996
 3492W        W46430  24.370  12.853  20.379  0.2278 -0.3622  0.0786
 3493W        W46431  23.170  13.054  16.764 -0.3329 -0.0520 -0.1509
 3494W        W46432  24.924  11.079  20.045 -0.1394 -0.1454  0.0517
 3495W        W46433  21.615  12.974  16.147 -0.1701 -0.3376 -0.1039
 3496W        W46434  25.235  11.305  15.428  0.1188 -0.3795  0.0742
 3497W        W46435  23.175  11.323  15.938  0.2060 -0.3627  0.1930
 3498W        W46436  23.131  11.448  16.504 -0.0420 -0.0106 -0.0775
 3499W        W46437  22.932  10.667  17.631  0.1320 -0.3553 -0.1504
 3500W        W46438  24.949  14.541  16.789  0.1740 -0.0006  0.0286
 3501W        W46439  24.969  12.362  19.115 -0.1740 -0.1495 -0.0529
 3502W        W46440  25.357  14.406  19.890 -0.0670  0.2185  0.1986
 3503W        W46441  23.504  13.354  17.015 -0.4234 -0.0080 -0.1355
 3504W        W46442  24.242  12.147  18.955 -0.0801  0.0178 -0.0965
 3505W        W46443  23.866  11.739  18.004 -0.0086  0.2611  0.0084
 3506W        W46444  22.159  10.410  17.927 -0.2716 -0.0570 -0.0513
 3507W        W46445  26.625  14.080  15.797 -0.1322  0.0635 -0.3058
 3508W        W46446  25.023  12.592  17.474  0.2157 -0.1211 -0.0250
 3509W        W46447  24.131  13.048  16.593  0.0785  0.1629  0.0706
 3510W        W46448  22.219  11.559  16.358  0.5096 -0.2944  0.0751
 3511W        W46449  22.625  12.296  19.731  0.2016 -0.1301  0.2619
 3512W        W46450  22.555  10.729  18.835 -0.1543 -0.0195 -0.1634
 3513W        W46451  22.653  11.134  16.390 -0.0873  0.0376 -0.0324
 3514W        W46452  25.985  13.910  20.603  0.0931 -0.0695 -0.0492
 3515W        W46453  23.216  13.276  18.476 -0.3079 -0.1483  0.1411
 3516W        W46454  24.894  11.951  17.401 -0.2434  0.2095  0.2251
 3517W        W46455  23.707  12.758  16.631  0.1048  0.0030 -0.2806
 3518W        W46456  26.023  13.079  18.977  0.0847 -0.0998 -0.1061
 3519W        W46457  23.703  12.537  15.754 -0.0040  0.1812  0.2230
 3520W        W46458  23.584   9.968  17.593 -0.1375  0.2142 -0.3149
 3521W        W46459  24.008  11.125  18.917 -0.0083  0.1030  0.1179
 3522W        W46460  23.243  14.436  15.070 -0.0683 -0.2004  0.0663
 3523W        W46461  21.981  12.026  15.213  0.2151  0.1381  0.2141
 3524W        W46462  26.237  13.445  18.309 -0.1381  0.1437  0.2905
 3525W        W46463  25.026  12.591  16.397  0.0507  0.1093 -0.0344
 3526W        W46464  23.530  13.566  18.291  0.2090  0.2213 -0.1996
 3527W        W46465  24.111  12.039  17.509  0.2364 -0.1324  0.4346
 3528W        W46466  24.796  14.192  21.159 -0.0561 -0.0297 -0.2343
 3529W        W46467  22.322  13.472  14.610 -0.1300  0.1078  0.2346
 3530W        W46468  23.159  13.242  17.912  0.1045 -0.0135 -0.1162
 3531W        W46469  21.980  13.505  15.245 -0.0288  0.0851  0.0549
 3532W        W46470  21.363  10.015  18.972 -0.1853 -0.0192 -0.2539
 3533W        W46471  23.420  12.722  19.126 -0.3300 -0.0290  0.1656
 3534W        W46472  23.256  11.003  16.378  0.0104  0.0726  0.0399
 3535W        W46473  22.261  10.936  19.298 -0.4475 -0.0377 -0.2118
 3536W        W46474  25.643  10.796  17.965 -0.2209  0.0844  0.1917
 3537W        W46475  21.133  12.960  15.844  0.2155  0.0944  0.1076
 3538W        W46476  25.475  13.897  16.111  0.0354 -0.1096  0.0119
 3539W        W46477  24.324  12.562  16.784  0.0295  0.2573  0.0178
 3540W        W46478  25.524  13.963  15.605 -0.0415 -0.0312  0.0578
 3541W        W46479  21.679  10.174  18.055  0.2171 -0.0866  0.1832
 3542W        W46480  22.925  11.963  16.834  0.1109  0.0326 -0.1054
 3543W        W46481  24.000  10.580  19.982 -0.0227 -0.3702 -0.0452
 3544W        W46482  21.578  10.537  19.883  0.0065 -0.0621  0.2994
 3545W        W46483  24.551  12.233  19.480 -0.0619 -0.2111 -0.1760
 3546W        W46484  22.933  10.833  15.998  0.3104 -0.0468  0.2456
 3547W        W46485  24.810  12.972  16.101  0.1618  0.1673  0.3327
 3548W        W46486  22.913  13.902  16.462 -0.0293  0.1477  0.2341
 3549W        W46487  21.353  13.583  15.437  0.1812  0.3769  0.1370
 3550W        W46488  24.570  11.337  20.459  0.0343  0.0258 -0.0253
 3551W        W46489  25.533  13.844  16.677 -0.2873  0.1147  0.0671
 3552W        W46490  26.240  13.083  20.801  0.2537  0.2940  0.0892
 3553W        W46491  25.261  14.104  17.080 -0.1575  0.2955 -0.0505
 3554W        W46492  24.407  10.626  20.494 -0.0757 -0.0332 -0.3788
 3555W        W46493  21.489  11.901  16.801 -0.3166 -0.3630 -0.0852
 3556W        W46494  22.878  12.907  16.369  0.0081 -0.4609  0.3949
 3557W        W46495  23.488  12.779  17.116  0.1654 -0.0207  0.0828
 3558W        W46496  21.736  11.700  16.092  0.0846 -0.0578 -0.0728
 3559W        W46497  25.062  13.211  16.526  0.1464  0.1291  0.1019
 3560W        W46498  24.791  13.298  16.919  0.0939 -0.1029  0.0643
 3561W        W46499  23.924  11.054  20.083 -0.0989  0.3247 -0.0154
 3562W        W46500  24.646  10.870  19.554 -0.0440  0.0770  0.0248
 3563W        W46501  25.881  11.396  19.435 -0.3413  0.4529 -0.2593
 3564W        W46502  25.393  12.247  17.435  0.1362 -0.0951 -0.3664
 3565W        W46503  22.157   9.231  15.961  0.3632 -0.2136 -0.0424
 3566W        W46504  24.340  14.716  18.212  0.0549 -0.0889  0.1486
 3567W        W46505  22.228  14.376  14.978  0.3635 -0.2196 -0.1620
 3568W        W46506  21.408  13.452  15.898 -0.1287  0.0132  0.0147
 3569W        W46507  24.780  14.159  17.069 -0.1988 -0.1045  0.1417
 3570W        W46508  26.575  11.779  18.427  0.2688  0.0950  0.0172
 3571W        W46509  21.921  12.923  19.785  0.2075  0.1602  0.0515
 3572W        W46510  25.527  11.403  18.617  0.2191  0.2800  0.0230
 3573W        W46511  21.636  11.426  15.531  0.0060  0.1732 -0.3444
 3574W        W46512  23.437  11.992  18.234  0.0413  0.0629 -0.0467
 3575W        W46513  24.520  10.836  17.583 -0.1152  0.1041 -0.0933
 3576W        W46514  25.839  11.989  15.491 -0.0354 -0.2672  0.2284
 3577W        W46515  25.135  12.871  19.703 -0.0481  0.0450  0.0176
 3578W        W46516  25.781  13.081  15.779  0.2031 -0.1437  0.2457
 3579W        W46517  23.264  12.568  15.548  0.0028  0.4861  0.0402
 3580W        W46518  23.921  11.285  16.172  0.1455 -0.0446 -0.3158
 3581W        W46519  23.467  10.933  18.171 -0.2917 -0.3633 -0.4056
 3582W        W46520  24.633  13.478  15.866 -0.1207  0.0329 -0.1338
 3583W        W46521  24.011  12.885  18.431 -0.2323 -0.2207 -0.1025
 3584W        W46522  22.956  10.276  16.214 -0.3279  0.3339 -0.2043
 3585W        W46523  26.889  13.989  17.171 -0.1722 -0.1733  0.2909
 3586W        W46524  22.908  12.434  17.734  0.0281  0.3918  0.2886
 3587W        W46525  25.527  13.774  20.551  0.0528  0.1703  0.2433
 3588W        W46526  24.262  12.820  17.496 -0.1267  0.5080  0.1363
 3589W        W46527  22.503  10.153  17.665 -0.0670  0.1748  0.0725
 3590W        W46528  23.530  11.227  17.200 -0.0310 -0.1280  0.0612
 3591W        W46529  24.928  10.915  17.877  0.0584 -0.0780  0.0206
 3592W        W46530  21.957  13.366  16.070  0.4167 -0.3155  0.2453
 3593W        W46531  25.371  11.327  19.298  0.2768  0.0904  0.1114
 3594W        W46532  22.924  11.391  18.549 -0.2775 -0.0594 -0.1265
 3595W        W46533  23.709  10.436  18.136  0.1733  0.1403 -0.0268
 3596W        W46534  25.822  13.413  20.842 -0.1145 -0.1985  0.1417
 3597W        W46535  26.068  12.083  17.680 -0.3086  0.0842 -0.3579
 3598W        W46536  22.724  12.408  16.292 -0.2415  0.0161  0.0881
 3599W        W46537  21.623  13.448  16.475  0.0840  0.0225 -0.2437
 3600W        W46538  23.880  11.567  18.802  0.3947 -0.0997  0.0562
 3601W        W46539  23.156  11.036  19.488  0.1839 -0.0976  0.3547
 3602W        W46540  23.274  13.549  19.895 -0.0709  0.1727 -0.1386
 3603W        W46541  24.526  13.080  19.049 -0.1639 -0.0385  0.0498
 3604W        W46542  24.753  13.653  17.256 -0.0710  0.1891 -0.1535
 3605W        W46543  24.422  10.933  20.107 -0.1334  0.1095 -0.1201
 3606W        W46544  23.548  10.695  16.768  0.1537 -0.2653  0.0877
 3607W        W46545  22.621  14.129  15.172 -0.0754  0.1633 -0.0904
 3608W        W46546  24.696  12.884  16.625 -0.0183 -0.0590  0.2984
 3609W        W46547  23.348  11.513  19.616  0.1973 -0.4544 -0.1681
 3610W        W46548  23.925  14.403  19.679  0.3372 -0.0117 -0.3799
 3611W        W46549  23.489  13.782  15.732  0.1263 -0.0504  0.0612
 3612W        W46550  24.562  13.906  20.101 -0.1120  0.0181 -0.0165
 3613W        W46551  23.126  14.566  16.740 -0.0677  0.0855  0.2962
 3614W        W46552  24.029  10.614  16.698 -0.2059  0.0795 -0.0772
 3615W        W46553  22.948  12.868  19.778 -0.0402 -0.1572  0.0174
 3616W        W46554  22.967  11.483  15.343 -0.2214  0.3087 -0.1753
 3617W        W46555  21.963  11.693  16.880 -0.1616 -0.2371  0.3201
 3618W        W46556  25.931  10.389  18.688 -0.0403 -0.0229  0.1229
 3619W        W46557  26.072  12.343  16.186  0.1319  0.0890  0.0003
 3620W        W46558  21.472   9.681  16.822 -0.1662 -0.2112 -0.1102
 3621W        W46559  23.368  12.229  16.875 -0.2095 -0.2312 -0.1959
 3622W        W46560  20.368  12.246  16.125  0.2341  0.1118 -0.3785
 3623W        W46561  23.782  11.314  18.237  0.0227 -0.0385  0.1194
 3624W        W46562  23.297   9.742  16.399  0.1658 -0.1522 -0.3028
 3625W        W46563  25.080  12.130  17.789 -0.0786  0.1902  0.2156
 3626W        W46564  23.236  12.593  20.563  0.1035  0.0976 -0.0386
 3627W        W46565  21.735  12.259  17.208 -0.2251  0.5227  0.2182
 3628W        W46566  24.937  11.376  19.011  0.0473 -0.0607 -0.1461
 3629W        W46567  22.676  13.317  15.592 -0.0416 -0.0271 -0.2092
 3630W        W46568  22.566  14.084  15.935 -0.0675  0.2176  0.1000
 3631W        W46569  25.683  12.770  18.078  0.0534  0.1366  0.2411
 3632W        W46570  22.366  12.290  15.457 -0.3338 -0.3071  0.1227
 3633W        W46571  21.699  11.511  17.248  0.2482  0.2063 -0.0944
 3634W        W46572  23.388  11.460  17.915  0.1258 -0.0382 -0.1952
 3635W        W46573  24.819  11.383  18.526  0.0606 -0.4421 -0.0114
 3636W        W46574  23.357  10.441  19.043  0.1890  0.0952  0.2150
 3637W        W46575  23.612  11.299  16.691  0.0145  0.1026 -0.0437
 3638W        W46576  22.585  10.698  17.967 -0.1139  0.0962 -0.1375
 3639W        W46577  24.922  11.226  17.486 -0.0368 -0.0036  0.0978
 3640W        W46578  24.652  10.817  18.382 -0.2523  0.0797 -0.1533
 3641W        W46579  23.785  13.575  19.197  0.1979 -0.2628  0.3601
 3642W        W46580  24.325  11.266  19.282 -0.1945  0.1937  0.1032
 3643W        W46581  25.441  12.882  16.606 -0.0293 -0.2659 -0.2166
 3644W        W46582  22.976  11.929  17.734  0.1230  0.1401  0.0966
 3645W        W46583  21.652  13.196  15.508 -0.2571 -0.1456  0.2295
 3646W        W46584  21.281  11.598  16.364 -0.1847  0.0921 -0.0435
 3647W        W46585  23.037  12.851  17.324  0.1021  0.1101  0.2103
 3648W        W46586  25.058  10.929  20.603 -0.0662  0.0225  0.0258
 3649W        W46587  23.185  15.171  17.665  0.0432 -0.1452  0.2270
 3650W        W46588  23.352  12.777  16.008 -0.0218  0.0037  0.1340
 3651W        W46589  23.981  14.655  17.707 -0.0443  0.2309  0.2034
 3652W        W46590  25.130  12.085  16.502  0.0346 -0.0258  0.2128
 3653W        W46591  23.312  13.579  16.546  0.1483 -0.1646  0.0913
 3654W        W46592  24.144  10.066  16.823 -0.0619 -0.1063  0.0861
 3655W        W46593  25.663  11.264  19.876 -0.1629  0.2032 -0.1844
 3656W        W46594  24.445  12.101  15.837 -0.3505 -0.1004  0.2305
 3657W        W46595  22.791   9.774  19.851 -0.1181  0.0769 -0.0524
 3658W        W46596  22.468   9.918  19.398  0.4194  0.1049  0.3615
 3659W        W46597  24.686  12.282  17.026 -0.2380 -0.1765  0.0134
 3660W        W46598  22.076  11.093  18.470 -0.0678  0.1421  0.1828
 3661W        W46599  25.694  14.731  19.599  0.1339 -0.0618  0.1437
 3662W        W46600  22.693  10.294  19.063  0.0163  0.0246 -0.1075
 3663W        W46601  24.901  10.312  17.429  0.0950  0.1285 -0.3491
 3664W        W46602  22.559  10.509  16.035  0.1963  0.1985 -0.0078
 3665W        W46603  24.805  12.365  18.111 -0.0847 -0.0577  0.2621
 3666W        W46604  24.841  14.082  18.089 -0.0078 -0.5030 -0.2127
 3667W        W46605  24.105  13.348  16.142  0.2556 -0.1732 -0.3853
 3668W        W46606  23.699  12.057  16.411 -0.0904  0.0706  0.3164
 3669W        W46607  22.546  12.724  17.251  0.1168  0.2167 -0.0371
 3670W        W46608  24.210  12.209  16.279 -0.2012  0.2132  0.3048
 3671W        W46609  24.179  12.530  15.851 -0.0717  0.0726  0.0394
 3672W        W46610  22.322  13.530  17.527  0.0483  0.1690 -0.0068
 3673W        W46611  21.818   9.330  17.682 -0.2748  0.2686 -0.1856
 3674W        W46612  24.562  13.831  17.688  0.2087 -0.1037  0.0789
 3675W        W46613  24.622  10.508  17.933  0.2408 -0.1864  0.0994
 3676W        W46614  26.133  10.757  17.760  0.2752 -0.3143  0.4502
 3677W        W46615  24.866  12.263  20.000  0.0027 -0.3089  0.1634
 3678W        W46616  25.434  13.150  18.834 -0.0182 -0.0849  0.1113
 3679W        W46617  22.228  10.457  19.282 -0.0916 -0.0986 -0.0013
 3680W        W46618  24.863  13.679  19.296 -0.0106 -0.0869  0.0774
 3681W        W46619  25.737  12.578  15.300 -0.1850 -0.0308  0.0125
 3682W        W46620  25.136  10.948  18.690  0.3489 -0.2389  0.4656
 3683W        W46621  26.272  12.046  16.865 -0.1141  0.5261 -0.2228
 3684W        W46622  23.426  10.852  15.894  0.1476 -0.1863 -0.1817
 3685W        W46623  24.044  10.912  19.584  0.0451 -0.0788 -0.2027
 3686W        W46624  25.367  14.542  21.174  0.2261 -0.1817 -0.1407
 3687W        W46625  23.870  12.345  16.773  0.0332 -0.0733  0.0018
 3688W        W46626  23.809   9.962  20.587 -0.0248  0.1479  0.0082
 3689W        W46627  23.592  14.580  16.595 -0.2388 -0.2594 -0.3051
 3690W        W46628  25.354  12.905  18.409 -0.2212 -0.0682  0.0232
 3691W        W46629  23.528  12.093  15.554 -0.0903 -0.1119 -0.0334
 3692W        W46630  20.737  11.285  17.042 -0.0019  0.0648 -0.4749
 3693W        W46631  24.184  12.954  19.742  0.0506  0.1263  0.0044
 3694W        W46632  23.083  13.092  15.682  0.0308  0.2235  0.1528
 3695W        W46633  22.802  11.731  16.191 -0.1887 -0.0934  0.0317
 3696W        W46634  25.255  13.428  17.546 -0.3613 -0.2859 -0.1292
 3697W        W46635  25.564  13.081  19.938 -0.1227  0.1589 -0.2243
 3698W        W46636  23.348  10.982  17.624  0.0234 -0.1935  0.2507
 3699W        W46637  23.625  11.428  19.211  0.0740  0.0994 -0.0412
 3700W        W46638  23.155  13.981  16.038 -0.1159  0.0253 -0.3754
 3701W        W46639  23.586  10.096  16.626 -0.0643  0.2630 -0.1039
 3702W        W46640  22.820  13.504  18.665  0.1437  0.1231 -0.2027
 3703W        W46641  23.855  12.798  17.986  0.0573 -0.0308  0.1036
 3704W        W46642  24.768  13.126  17.454 -0.0231  0.3739  0.0088
 3705W        W46643  24.095  11.745  19.280  0.2141 -0.0926 -0.0901
 3706W        W46644  24.522  12.285  17.676  0.1170 -0.0796 -0.0992
 3707W        W46645  23.805  11.031  17.809  0.0698 -0.1819  0.1978
 3708W        W46646  26.891  11.834  17.950 -0.0929  0.1745 -0.1292
 3709W        W46647  24.291  13.525  19.865  0.0858 -0.1016 -0.2959
 3710W        W46648  22.933  11.115  18.015  0.2269 -0.2612 -0.0807
 3711W        W46649  24.031  13.856  18.080  0.1194 -0.4708 -0.1130
 3712W        W46650  25.453  13.718  17.948  0.4032  0.2164 -0.0895
 3713W        W46651  24.253  13.388  19.347  0.0913  0.1176 -0.2575
 3714W        W46652  22.006  12.380  19.057 -0.0986 -0.1000  0.2063
 3715W        W46653  24.837  13.636  21.090  0.0070 -0.0149 -0.0125
 3716W        W46654  24.928  13.677  16.336 -0.0941 -0.0984 -0.2522
 3717W        W46655  23.789   9.766  17.138 -0.3814  0.3432  0.3389
 3718W        W46656  24.112  14.249  15.839  0.2344 -0.1299  0.0400
 3719W        W46657  22.221  12.311  18.454  0.2062  0.0420 -0.0677
 3720W        W46658  22.257  11.114  17.971 -0.1016 -0.1818  0.1193
 3721W        W46659  21.780  14.210  15.132  0.1143  0.1513 -0.1203
 3722W        W46660  24.082  12.835  15.438  0.1635  0.1028  0.0559
 3723W        W46661  24.511  13.719  16.751 -0.1385 -0.0530  0.1801
 3724W        W46662  24.929  14.138  19.149 -0.2918  0.0903 -0.2432
 3725W        W46663  23.871  12.010  15.939  0.0481 -0.1567 -0.1298
 3726W        W46664  24.907  13.073  18.245 -0.1570 -0.0305 -0.2057
 3727W        W46665  21.783  14.318  16.211 -0.3084 -0.2513  0.0008
 3728W        W46666  25.130  13.575  15.907  0.0949  0.1497 -0.1489
 3729W        W46667  23.779  13.265  17.999 -0.1046  0.3166 -0.2511
 3730W        W46668  25.786  14.421  21.963 -0.1097  0.1639  0.2571
 3731W        W46669  24.933  11.567  16.534 -0.1404 -0.0864  0.4928
 3732W        W46670  25.146  12.610  16.909  0.0913  0.2357 -0.4076
 3733W        W46671  25.635  12.686  17.019 -0.1149  0.2050  0.0573
 3734W        W46672  25.104  15.278  20.510  0.3136  0.2471 -0.0332
 3735W        W46673  24.822  11.373  17.999  0.1177  0.1930 -0.0226
 3736W        W46674  23.150  11.496  17.001  0.1127 -0.3463  0.1531
 3737W        W46675  24.673  13.204  19.636 -0.1126 -0.0820 -0.1647
 3738W        W46676  24.233   8.714  21.045 -0.0590  0.0315  0.1209
 3739W        W46677  23.553  12.958  18.698  0.0748  0.2146  0.1190
 3740W        W46678  25.496  14.459  16.068 -0.0150 -0.3530 -0.4528
 3741W        W46679  23.404  12.839  17.694 -0.0485  0.3193 -0.0373
 3742W        W46680  22.972  12.188  18.188 -0.0921 -0.2999  0.1913
 3743W        W46681  24.998   9.851  17.913 -0.1537  0.1593  0.2146
 3744W        W46682  24.121  12.435  17.226  0.1110  0.3404  0.1107
 3745W        W46683  25.357  11.215  18.176  0.1888 -0.1366  0.1543
 3746W        W46684  22.404  12.513  15.875  0.0035  0.1173  0.0932
 3747W        W46685  23.961  13.475  18.446 -0.1863 -0.1241 -0.0537
 3748W        W46686  25.385  13.422  18.351  0.1578 -0.1384 -0.1991
 3749W        W46687  22.253  11.238  16.776 -0.0046 -0.0562 -0.1594
 3750W        W46688  23.880  10.774  17.218 -0.1639  0.3371  0.0513
 3751W        W46689  23.196  11.869  19.231  0.1176  0.0826  0.0818
 3752W        W46690  26.136  11.710  19.076 -0.0610 -0.1296  0.0524
 3753W        W46691  23.041  11.694  18.180 -0.1501  0.0151  0.1935
 3754W        W46692  24.802  11.768  16.956 -0.0110 -0.1629 -0.1635
 3755W        W46693  24.309  12.047  18.073  0.0515 -0.0655 -0.2185
 3756W        W46694  22.041  10.737  18.879 -0.1620 -0.0082  0.1586
 3757W        W46695  22.080  10.523  16.199  0.0493  0.1243  0.0182
 3758W        W46696  26.050  12.836  19.844  0.2920 -0.1779  0.0153
 3759W        W46697  23.294  11.768  17.361 -0.1094  0.0091 -0.2625
 3760W        W46698  24.183  13.586  20.333 -0.0711 -0.1776  0.1627
 3761W        W46699  22.615  11.015  18.474  0.1030  0.2866  0.1966
 3762W        W46700  23.746  11.256  15.747  0.0969  0.3283  0.0672
 3763W        W46701  23.179  10.302  16.803 -0.1942 -0.1276  0.3780
 3764W        W46702  24.523  12.881  18.560  0.1007 -0.3673  0.1491
 3765W        W46703  25.871  14.224  19.675  0.1067  0.0634  0.0105
 3766W        W46704  22.620  11.462  15.830 -0.0995 -0.1633 -0.0438
 3767W        W46705  24.963  14.530  16.248 -0.0849 -0.1453  0.0335
 3768W        W46706  23.621  10.785  19.315  0.1171  0.0659  0.0364
 3769W        W46707  22.181  14.015  15.354  0.0313 -0.2119 -0.1116
 3770W        W46708  24.425  11.487  16.791  0.1580  0.1086  0.0793
 3771W        W46709  24.848  15.429  19.170  0.2113 -0.0683  0.1317
 3772W        W46710  22.552  11.506  17.693  0.0446 -0.0350  0.1269
 3773W        W46711  25.236  13.890  18.417  0.1420  0.0033  0.1150
 3774W        W46712  25.996  12.046  18.214  0.0428  0.2576 -0.0199
 3775W        W46713  23.147  12.011  16.409 -0.0462  0.1197 -0.2227
 3776W        W46714  22.409  12.122  18.868  0.2082  0.1088 -0.1588
 3777W        W46715  21.790  13.689  15.658 -0.3738  0.0075 -0.2136
 3778W        W46716  25.877  11.870  16.594  0.0372 -0.1253  0.1591
 3779W        W46717  24.908  11.601  20.232  0.3350  0.0080 -0.0791
 3780W        W46718  23.723  13.174  15.113  0.0317  0.2901  0.2272
 3781W        W46719  25.587  11.007  18.991 -0.0572  0.1298 -0.1307
 3782W        W46720  24.331  12.690  18.083 -0.4693  0.2949  0.1411
 3783W        W46721  23.300  13.647  19.401  0.0458  0.2359 -0.0370
 3784W        W46722  22.684  13.353  16.573 -0.2089  0.1728 -0.0411
 3785W        W46723  24.502  13.403  20.736  0.0659 -0.1844 -0.2615
 3786W        W46724  22.554  11.925  18.298 -0.1459 -0.0776 -0.0338
 3787W        W46725  25.029  14.021  15.926 -0.1512 -0.3959 -0.1717
 3788W        W46726  25.108  12.490  18.530  0.2759 -0.1328  0.0749
 3789W        W46727  24.374  12.678  16.301 -0.3255 -0.0184  0.1524
 3790W        W46728  26.545  13.190  17.697 -0.1490 -0.2919 -0.4878
 3791W        W46729  21.731  11.411  16.495 -0.1068 -0.1643 -0.2293
 3792W        W46730  24.092  11.143  16.632 -0.0569 -0.0328  0.5483
 3793W        W46731  25.590  10.842  18.505  0.1310  0.2015  0.1128
 3794W        W46732  24.307  11.433  17.987 -0.1513 -0.0840  0.0420
 3795W        W46733  22.373  12.012  16.504 -0.2175  0.2614 -0.1009
 3796W        W46734  22.999  14.833  15.442 -0.0827  0.1988  0.1298
 3797W        W46735  23.357  12.473  18.009 -0.1773 -0.0946 -0.2668
 3798W        W46736  24.515   9.665  21.239  0.0055  0.0443  0.3347
 3799W        W46737  24.653  11.870  19.143 -0.0152  0.2989 -0.0737
 3800W        W46738  22.335  10.653  18.410 -0.1611  0.2424  0.3520
 3801W        W46739  23.147  10.200  17.305 -0.1273 -0.1775 -0.0940
 3802W        W46740  24.376  13.445  15.413  0.4038  0.0565  0.0764
 3803W        W46741  22.209  10.713  17.563  0.1030 -0.0607  0.0222
 3804W        W46742  19.983  11.410  17.636  0.0938  0.0674 -0.1872
 3805W        W46743  25.084  13.112  15.716 -0.0509 -0.0957  0.0403
 3806W        W46744  25.853  12.775  16.307  0.2711  0.0884 -0.0255
 3807W        W46745  23.365  12.235  16.014  0.2458 -0.0743  0.2499
 3808W        W46746  26.101  15.487  20.354  0.2338  0.0633  0.3585
 3809W        W46747  22.514  14.459  15.502 -0.0659  0.0243 -0.1362
 3810W        W46748  25.223  11.474  19.802  0.0896  0.0841 -0.6839
 3811W        W46749  24.809  10.586  20.068  0.1581 -0.1182 -0.0947
 3812W        W46750  22.295  11.301  15.473 -0.0860  0.2779 -0.1443
 3813W        W46751  23.547  11.752  16.806  0.2404  0.1613  0.1136
 3814W        W46752  24.425  14.270  17.523  0.3048 -0.0101  0.0973
 3815W        W46753  25.375  13.553  17.034 -0.2574  0.2234  0.2732
 3816W        W46754  23.892  12.976  19.239  0.1834  0.1258  0.0449
 3817W        W46755  24.430  11.479  18.875  0.0184 -0.2156 -0.1912
 3818W        W46756  22.587  11.456  18.194  0.0207  0.0995 -0.0788
 3819W        W46757  23.466  11.684  16.147  0.1349  0.1548 -0.0022
 3820W        W46758  23.894  14.126  19.068 -0.1639 -0.1695  0.2065
 3821W        W46759  26.818  13.614  15.821  0.2088  0.1618 -0.2051
 3822W        W46760  25.528  11.752  20.022 -0.0221  0.0378 -0.0625
 3823W        W46761  22.962  12.637  16.869 -0.3050 -0.0205  0.0261
 3824W        W46762  22.001   9.417  19.336 -0.1089  0.1463 -0.0348
 3825W        W46763  24.580  12.612  18.937  0.1394 -0.1224  0.1630
 3826W        W46764  25.427  12.344  18.926 -0.2452 -0.0835  0.0448
 3827W        W46765  22.579  11.033  17.579 -0.1936  0.2336 -0.1714
 3828W        W46766  24.505  11.060  17.100  0.1659  0.0788 -0.0688
 3829W        W46767  22.603  13.793  15.557  0.0527  0.0906 -0.0865
 3830W        W46768  22.438   9.772  18.008  0.0127  0.0116  0.1308
 3831W        W46769  23.749  13.673  16.315  0.0827  0.1072 -0.0384
 3832W        W46770  24.307  11.154  18.519  0.0945 -0.2076 -0.0502
 3833W        W46771  23.725  12.027  17.204 -0.0526 -0.3191 -0.2732
 3834W        W46772  25.710  13.168  19.425 -0.5376  0.2411  0.0434
 3835W        W46773  22.551  13.689  16.995  0.2576  0.0499  0.4166
 3836W        W46774  25.363  12.846  16.055 -0.0059  0.0643  0.0953
 3837W        W46775  24.427  14.058  19.143 -0.1722  0.0170  0.3947
 3838W        W46776  25.861  14.792  21.143  0.0837 -0.0850  0.1863
 3839W        W46777  24.393  14.346  16.770 -0.2659 -0.1739  0.3822
 3840W        W46778  25.159  11.739  18.643 -0.2274  0.1818  0.3720
 3841W        W46779  21.688  10.329  18.845 -0.1826  0.0751 -0.0597
 3842W        W46780  23.102  11.737  15.749  0.2080  0.1958  0.0572
 3843W        W46781  23.240  12.545  16.458  0.1548 -0.2111  0.2131
 3844W        W46782  24.867  11.382  19.495 -0.1779 -0.2959  0.0048
 3845W        W46783  23.225  12.337  17.362 -0.2447 -0.1956 -0.0649
 3846W        W46784  23.144  10.739  17.132  0.1000  0.2883 -0.5206
 3847W        W46785  24.173  13.726  18.880 -0.1213  0.2722 -0.0608
 3848W        W46786  24.677  11.848  17.805 -0.3350  0.1404 -0.0436
 3849W        W46787  25.058  13.861  23.686  0.0298  0.3254  0.0384
 3850W        W46788  25.341  12.341  19.478  0.0304 -0.1336 -0.2895
 3851W        W46789  26.065  11.615  18.588  0.2033  0.2618  0.0022
 3852W        W46790  24.712  12.619  22.452 -0.0046  0.1269  0.1730
 3853W        W46791  22.115  11.150  21.059  0.0651 -0.3643  0.0054
 3854W        W46792  25.881  14.683  20.590 -0.1646  0.0319  0.0225
 3855W        W46793  23.290  10.720  22.442 -0.0349 -0.1583 -0.2942
 3856W        W46794  25.235  13.302  20.928  0.1931 -0.1824  0.1383
 3857W        W46795  26.414  14.596  23.577  0.0027 -0.4970 -0.0372
 3858W        W46796  26.240  13.637  21.074 -0.1527  0.1380  0.2363
 3859W        W46797  23.598  12.751  23.604  0.2107 -0.0850  0.0361
 3860W        W46798  24.210  14.441  21.947  0.0908 -0.0548 -0.0740
 3861W        W46799  24.471  11.533  21.850  0.0912  0.1722 -0.0455
 3862W        W46800  21.844  10.085  21.722 -0.4619  0.0544  0.0391
 3863W        W46801  25.146  11.720  22.688 -0.1106 -0.3246 -0.3276
 3864W        W46802  22.357  11.124  20.167  0.4188  0.3424  0.3861
 3865W        W46803  22.867  12.138  22.756 -0.1404  0.0417  0.0985
 3866W        W46804  23.751  12.493  21.972  0.3612 -0.1509  0.2106
 3867W        W46805  24.185  15.886  21.634 -0.4090 -0.2335  0.1772
 3868W        W46806  23.370  11.685  23.545  0.3916  0.0902  0.1894
 3869W        W46807  22.949  10.257  24.248 -0.1549  0.0047  0.1412
 3870W        W46808  24.323  12.988  21.124 -0.0639  0.1217  0.1005
 3871W        W46809  23.601  10.750  20.265  0.0239  0.0205 -0.1246
 3872W        W46810  23.514  11.502  22.099  0.0119  0.0385 -0.0768
 3873W        W46811  21.701  11.759  21.588  0.1214  0.1665  0.0722
 3874W        W46812  24.867  11.811  23.819 -0.0777 -0.3173  0.0377
 3875W        W46813  24.482  13.437  22.901 -0.1295 -0.1144 -0.2421
 3876W        W46814  24.696  14.275  21.702  0.0594 -0.2171 -0.0211
 3877W        W46815  24.991  13.935  21.976  0.0383 -0.0876 -0.2184
 3878W        W46816  22.949  12.702  25.398 -0.0261  0.0018  0.3074
 3879W        W46817  22.962  11.868  21.330  0.1680  0.0176 -0.2826
 3880W        W46818  23.455  13.776  20.790 -0.0382 -0.0293 -0.0425
 3881W        W46819  24.355  11.935  20.159 -0.0330 -0.1952 -0.0022
 3882W        W46820  27.054  13.531  19.973 -0.0135 -0.0754 -0.0749
 3883W        W46821  25.367  14.435  23.169  0.0377  0.0994  0.0564
 3884W        W46822  23.904  15.434  22.790  0.4566  0.0722  0.1546
 3885W        W46823  22.774  11.747  18.942  0.2240  0.1390 -0.3212
 3886W        W46824  25.528  14.562  24.257  0.0896 -0.0605 -0.0213
 3887W        W46825  23.627  15.293  23.881  0.0681  0.0761  0.0428
 3888W        W46826  23.508  13.881  24.576  0.1803 -0.1844 -0.0982
 3889W        W46827  24.909  12.958  23.080  0.0320  0.0860  0.1420
 3890W        W46828  23.613  14.510  19.310 -0.1954 -0.2173  0.2013
 3891W        W46829  24.697  13.246  21.383 -0.1264 -0.3235  0.0018
 3892W        W46830  24.697  14.578  24.436  0.0456  0.0866 -0.0719
 3893W        W46831  23.730  14.290  20.725 -0.0606 -0.0200 -0.1908
 3894W        W46832  25.129  12.208  23.919  0.1742 -0.1838  0.0172
 3895W        W46833  23.578  15.217  19.105  0.2018  0.0734  0.1683
 3896W        W46834  25.527  11.852  20.553 -0.0459  0.0302 -0.0007
 3897W        W46835  24.137  12.411  18.449 -0.0251 -0.4526  0.0117
 3898W        W46836  24.235  11.473  20.837 -0.0373  0.1154 -0.1429
 3899W        W46837  24.163  10.649  20.965  0.2201  0.0177  0.0337
 3900W        W46838  23.664  14.212  22.241  0.1248  0.1601 -0.4539
 3901W        W46839  23.330  10.626  24.055 -0.0457 -0.4019 -0.0080
 3902W        W46840  24.764  14.184  23.953 -0.1770 -0.0061  0.1284
 3903W        W46841  25.612  11.660  21.091  0.0180  0.2634 -0.3320
 3904W        W46842  24.983  10.992  23.349 -0.0277  0.1315 -0.2109
 3905W        W46843  22.687  13.238  21.979  0.3640  0.4444 -0.1504
 3906W        W46844  23.392  12.127  20.444 -0.1119 -0.0049  0.1056
 3907W        W46845  24.435  14.948  20.914 -0.2020 -0.0986 -0.1043
 3908W        W46846  26.160  14.289  22.283 -0.3330  0.4686  0.1214
 3909W        W46847  26.021  13.889  22.018  0.0901 -0.0101 -0.0564
 3910W        W46848  22.990  11.747  20.419  0.1129  0.1327  0.0042
 3911W        W46849  21.777  12.361  23.915 -0.0212 -0.0598  0.0126
 3912W        W46850  23.384  11.969  24.049 -0.1721  0.2719 -0.1791
 3913W        W46851  24.192  11.712  18.434  0.0942  0.0667  0.0143
 3914W        W46852  25.287  13.607  24.152 -0.1402 -0.0362  0.1491
 3915W        W46853  21.812  12.662  23.042 -0.1558 -0.2032 -0.2780
 3916W        W46854  24.306  10.987  22.178  0.0055  0.3005  0.0776
 3917W        W46855  23.638  13.522  21.159 -0.2884 -0.2813  0.2780
 3918W        W46856  25.206  12.833  22.345 -0.0023  0.3354  0.2578
 3919W        W46857  26.896  14.907  22.516 -0.2275 -0.2068  0.3878
 3920W        W46858  24.532  11.468  21.337  0.1948 -0.1749  0.1613
 3921W        W46859  24.718  11.004  21.427  0.4629  0.0030  0.3783
 3922W        W46860  22.889  11.363  21.371  0.2467  0.1012 -0.2340
 3923W        W46861  25.612  12.917  21.446  0.2749 -0.5414  0.0965
 3924W        W46862  25.032  14.094  23.268 -0.1521  0.1685  0.2039
 3925W        W46863  25.361  11.240  20.260  0.1446 -0.2046 -0.1750
 3926W        W46864  24.039  13.800  22.365 -0.1347  0.2803  0.2427
 3927W        W46865  24.087  12.409  24.312  0.1831 -0.0456  0.3205
 3928W        W46866  25.440  12.210  22.151 -0.0475 -0.0177 -0.4117
 3929W        W46867  23.339  15.573  19.434  0.0490  0.0885  0.0408
 3930W        W46868  22.468  12.264  21.791  0.3085 -0.0683 -0.0872
 3931W        W46869  23.732  13.245  19.608 -0.0746 -0.0891 -0.0534
 3932W        W46870  22.939  11.062  22.827 -0.0294  0.0333 -0.0784
 3933W        W46871  23.298  13.176  21.290  0.2053  0.0921 -0.0026
 3934W        W46872  24.665  11.218  20.950  0.0346 -0.2583 -0.0312
 3935W        W46873  22.982  12.373  22.317  0.0753 -0.1489 -0.3902
 3936W        W46874  26.512  10.369  22.611  0.0060  0.1149 -0.0703
 3937W        W46875  23.362  12.163  21.372  0.0265 -0.1051  0.0784
 3938W        W46876  26.860  15.606  21.069 -0.1750 -0.1933 -0.4151
 3939W        W46877  25.197  10.904  19.663 -0.1570 -0.2530 -0.3969
 3940W        W46878  26.404  13.189  18.727 -0.1789 -0.2472  0.1411
 3941W        W46879  23.480  13.009  21.979 -0.1505 -0.0415  0.0235
 3942W        W46880  24.245  12.393  20.383  0.1934  0.1264  0.0420
 3943W        W46881  22.719  11.121  23.330  0.1780 -0.0372  0.0189
 3944W        W46882  22.411  11.673  22.985 -0.1007  0.1337 -0.2009
 3945W        W46883  24.630  13.126  24.865  0.2980  0.0755 -0.0511
 3946W        W46884  23.838  11.735  20.590  0.2956  0.2039  0.0635
 3947W        W46885  25.670  10.783  22.684  0.0585 -0.0817  0.4257
 3948W        W46886  24.206  11.999  20.909  0.2280  0.1280 -0.2713
 3949W        W46887  23.734  13.625  19.911 -0.2033  0.0434  0.0394
 3950W        W46888  23.267  11.512  24.434  0.1482  0.0172 -0.0882
 3951W        W46889  25.264  14.349  21.806 -0.3137 -0.1282  0.0720
 3952W        W46890  25.677  14.017  23.410 -0.0283  0.1398  0.1054
 3953W        W46891  25.483  14.759  21.628  0.1858 -0.0192  0.1019
 3954W        W46892  22.511  11.626  23.637  0.4116  0.3488 -0.1394
 3955W        W46893  23.391  11.696  20.816  0.1899 -0.0926  0.0350
 3956W        W46894  23.685  14.466  21.260  0.0617 -0.1038  0.1138
 3957W        W46895  24.962  14.364  22.810  0.1980  0.2398 -0.4719
 3958W        W46896  23.121  11.353  22.400 -0.1181  0.5440 -0.1063
 3959W        W46897  26.173  13.514  22.282  0.0793  0.1571  0.1050
 3960W        W46898  24.730  12.328  20.943 -0.0198 -0.0512 -0.0280
 3961W        W46899  23.859  13.986  21.195  0.3089 -0.0322  0.2667
 3962W        W46900  25.846   9.927  23.753 -0.1570  0.0687  0.0491
 3963W        W46901  26.260  13.702  22.907 -0.5245 -0.0412  0.2139
 3964W        W46902  24.182  13.265  22.499  0.0933  0.2166 -0.1825
 3965W        W46903  23.110  10.653  20.285  0.0662 -0.0729  0.1976
 3966W        W46904  25.195  15.106  21.174  0.0071 -0.2476  0.0162
 3967W        W46905  23.864  12.609  19.976  0.2773 -0.1556 -0.2336
 3968W        W46906  23.409  13.112  20.105 -0.0589  0.0513 -0.1840
 3969W        W46907  24.943  13.962  22.476 -0.0352  0.0957  0.0115
 3970W        W46908  23.967  10.339  21.494  0.3022  0.1640 -0.0459
 3971W        W46909  21.505  13.243  21.425  0.2052 -0.2709 -0.0605
 3972W        W46910  23.517  14.385  23.586 -0.1447  0.3041 -0.2139
 3973W        W46911  23.224  11.011  20.667  0.3049  0.0365  0.0376
 3974W        W46912  23.692  14.885  23.523  0.1849  0.0592  0.2022
 3975W        W46913  25.048  10.524  22.657 -0.0493 -0.1337  0.0733
 3976W        W46914  25.352  10.678  20.906  0.0100 -0.0210  0.0365
 3977W        W46915  24.610  13.023  22.205 -0.0505  0.0049 -0.1848
 3978W        W46916  27.225  14.489  22.388  0.2985  0.3499  0.0432
 3979W        W46917  23.446  12.251  18.906  0.2289  0.1321 -0.1343
 3980W        W46918  24.396  10.148  20.615 -0.0291  0.1917  0.1580
 3981W        W46919  23.281  14.777  23.814  0.1926  0.2325 -0.3051
 3982W        W46920  24.917  12.346  21.520  0.1693  0.0053  0.1894
 3983W        W46921  23.753  14.418  23.150 -0.0252  0.2235 -0.2324
 3984W        W46922  24.323   9.924  21.675 -0.1870  0.0053 -0.1619
 3985W        W46923  26.895  14.510  21.705  0.0664  0.1754 -0.1864
 3986W        W46924  21.728  13.535  22.131 -0.0008 -0.0834 -0.1496
 3987W        W46925  24.336  13.670  24.473 -0.1154 -0.1382  0.2287
 3988W        W46926  25.778  14.292  20.896 -0.1056 -0.1725  0.2137
 3989W        W46927  24.025  11.514  22.948  0.2182 -0.2988  0.3477
 3990W        W46928  23.929  11.574  19.737 -0.3044 -0.0517  0.1747
 3991W        W46929  23.429  11.637  21.302  0.1081 -0.2169 -0.0641
 3992W        W46930  22.487  14.001  17.368 -0.0085  0.3866 -0.2393
 3993W        W46931  25.038  11.502  23.113  0.3697 -0.0565 -0.1262
 3994W        W46932  23.363  12.057  22.668 -0.2168 -0.1966 -0.1054
 3995W        W46933  24.136  12.159  23.602  0.2212  0.1459 -0.0139
 3996W        W46934  24.335  12.803  22.840  0.0384 -0.1573  0.0165
 3997W        W46935  25.019  13.037  20.394 -0.0059 -0.0522 -0.0774
 3998W        W46936  25.784  13.722  23.011  0.0789 -0.1401 -0.1293
 3999W        W46937  23.746  12.436  19.374 -0.0667  0.1624 -0.1841
 4000W        W46938  23.015  11.323  23.659  0.0847 -0.1815  0.1116
 4001W        W46939  23.079  12.620  22.712 -0.2156 -0.2369 -0.1708
 4002W        W46940  23.952  14.971  22.551 -0.3277 -0.3081 -0.1116
 4003W        W46941  24.860  12.139  22.893 -0.0794  0.1270  0.1658
 4004W        W46942  23.906  13.356  22.093  0.0364  0.0707 -0.1264
 4005W        W46943  23.275  12.367  23.722  0.2239  0.0251 -0.0151
 4006W        W46944  23.715  10.837  21.300  0.0247 -0.1125  0.0003
 4007W        W46945  25.264  15.098  22.318 -0.1165 -0.0530  0.0014
 4008W        W46946  24.789  12.752  19.373 -0.1519 -0.0527 -0.1752
 4009W        W46947  24.052  11.070  22.724 -0.0808 -0.2439  0.2249
 4010W        W46948  25.012  14.824  21.995  0.0679  0.2667 -0.2271
 4011W        W46949  25.297  13.898  19.507 -0.0274 -0.0754 -0.0012
 4012W        W46950  24.682  15.514  22.919 -0.0995  0.0884 -0.1467
 4013W        W46951  25.008  13.170  19.270  0.0706  0.2669 -0.2030
 4014W        W46952  23.979  11.763  23.380  0.1970  0.1678 -0.2599
 4015W        W46953  22.911  14.852  20.951  0.0832  0.1196 -0.2802
 4016W        W46954  22.485  11.225  20.745  0.0820  0.0656 -0.2389
 4017W        W46955  22.863  10.927  21.099  0.1062  0.1233  0.2093
 4018W        W46956  26.663  11.276  22.102  0.1425  0.1653 -0.4200
 4019W        W46957  26.093  12.210  21.662  0.2602  0.0011  0.0171
 4020W        W46958  22.457  11.147  23.824 -0.1317  0.0038  0.1183
 4021W        W46959  23.469  12.567  20.985  0.0312  0.2457 -0.1639
 4022W        W46960  22.693  13.749  21.756  0.0934 -0.2613 -0.0979
 4023W        W46961  24.001  13.172  23.060  0.4297 -0.2380  0.2601
 4024W        W46962  25.113  10.174  20.899  0.3281  0.1922 -0.0744
 4025W        W46963  24.964  13.577  22.954  0.0875  0.3485 -0.3174
 4026W        W46964  24.767  15.179  23.565  0.2964  0.0163  0.0293
 4027W        W46965  22.169  12.012  19.319  0.0556  0.1350 -0.2048
 4028W        W46966  22.933  11.815  23.759 -0.2722  0.0750 -0.3081
 4029W        W46967  24.395  12.506  19.876 -0.3925  0.0820 -0.0522
 4030W        W46968  23.560  14.049  19.404  0.4364  0.2706 -0.1120
 4031W        W46969  24.538  13.605  22.384  0.0561  0.0933  0.1996
 4032W        W46970  25.191  12.624  20.177  0.5292  0.0061  0.2440
 4033W        W46971  22.737  12.057  19.296  0.0985  0.0751 -0.2163
 4034W        W46972  23.244  13.132  22.642 -0.0595 -0.1146 -0.0734
 4035W        W46973  24.970  11.882  24.388  0.1706 -0.0389  0.0705
 4036W        W46974  23.596  12.115  23.423 -0.2176 -0.0721  0.0109
 4037W        W46975  22.127  11.695  21.819 -0.2171 -0.2310 -0.0111
 4038W        W46976  24.005  12.867  22.117 -0.1203 -0.0275  0.4027
 4039W        W46977  24.505  12.806  21.686  0.0784 -0.1103  0.1235
 4040W        W46978  23.726  12.356  23.978  0.0857 -0.4327  0.1433
 4041W        W46979  23.791  14.263  24.432 -0.1160  0.1057  0.2125
 4042W        W46980  23.752  10.995  22.274  0.0253  0.0167  0.2682
 4043W        W46981  26.321  16.166  22.322 -0.2356 -0.4743 -0.0159
 4044W        W46982  24.188  12.851  25.020  0.0431 -0.2499  0.2550
 4045W        W46983  23.773  13.932  20.363  0.1203  0.1220  0.0624
 4046W        W46984  23.527  12.415  22.982  0.4485 -0.2015  0.2752
 4047W        W46985  24.128  14.235  21.513 -0.1187 -0.1356  0.1993
 4048W        W46986  22.903  12.978  22.965  0.0055 -0.0241  0.1825
 4049W        W46987  23.498  12.749  21.567 -0.1956  0.0836  0.2132
 4050W        W46988  24.351  13.979  21.116  0.1058  0.1914  0.0741
 4051W        W46989  22.599  13.867  23.528  0.1174  0.1568  0.0926
 4052W        W46990  25.310  10.922  21.632  0.0642 -0.0305 -0.3153
 4053W        W46991  26.273  14.122  20.981  0.1926 -0.4514  0.2364
 4054W        W46992  24.450  11.859  22.826  0.0949  0.1613  0.0359
 4055W        W46993  26.876  11.019  23.198  0.0146  0.2352  0.0426
 4056W        W46994  25.670  13.058  21.970 -0.4097  0.1593  0.0315
 4057W        W46995  25.230  11.619  24.791 -0.0019 -0.0352  0.1054
 4058W        W46996  23.423  12.650  22.386  0.2562  0.1676  0.2204
 4059W        W46997  24.400  12.442  22.129 -0.0921  0.0966 -0.0500
 4060W        W46998  22.911  11.381  21.933  0.1413  0.1384  0.0093
 4061W        W46999  25.854  15.128  24.323  0.1800 -0.1457  0.0494
 4062W        W47000  23.126  12.044  23.246  0.0421  0.0970 -0.1494
 4063W        W47001  23.917  11.489  21.380 -0.0322 -0.3900  0.0402
 4064W        W47002  23.690  10.573  22.716 -0.0970 -0.0229  0.0929
 4065W        W47003  24.734  13.107  22.668 -0.0374 -0.1085 -0.0181
 4066W        W47004  25.116  11.982  23.392  0.0628 -0.1810 -0.0080
 4067W        W47005  24.729  12.897  20.765 -0.0779 -0.3676  0.0021
 4068W        W47006  25.288  12.001  21.394  0.1802  0.0992 -0.1725
 4069W        W47007  23.522  12.037  22.048  0.1956 -0.0442 -0.0707
 4070W        W47008  23.495  11.228  22.719  0.2858 -0.0374 -0.0140
 4071W        W47009  24.160  12.316  21.713  0.3242 -0.1176  0.0411
 4072W        W47010  24.240  13.511  21.169  0.3147  0.1882 -0.0768
 4073W        W47011  22.806  11.004  24.723 -0.0703  0.1184  0.0247
 4074W        W47012  24.031  12.016  22.141  0.2243  0.1551 -0.1930
 4075W        W47013  24.219  11.914  21.391 -0.0556 -0.0030 -0.1762
 4076W        W47014  24.355  11.653  23.791  0.0095  0.2239  0.0313
 4077W        W47015  25.159  12.190  25.428  0.0251  0.1185  0.0344
 4078W        W47016  24.732  12.322  23.628 -0.0319  0.2867 -0.0006
 4079W        W47017  22.069  12.145  23.051  0.0035  0.0340  0.2302
 4080W        W47018  24.970  13.444  22.193  0.2033 -0.1697  0.3611
 4081W        W47019  26.061  10.794  19.154  0.1970 -0.1439 -0.2042
 4082W        W47020  24.504  11.345  22.958 -0.1711  0.1421  0.1537
 4083W        W47021  25.673  14.295  21.462  0.3761 -0.1171  0.2529
 4084W        W47022  24.797  12.729  21.254  0.0297 -0.0047 -0.1517
 4085W        W47023  22.778  11.599  20.019  0.0018 -0.1366 -0.0190
 4086W        W47024  25.457  12.574  24.516  0.0511  0.0906  0.2732
 4087W        W47025  23.036   9.843  20.318  0.1340  0.2375  0.0565
 4088W        W47026  24.836  11.051  23.865  0.2040 -0.2148 -0.0969
 4089W        W47027  24.712  12.519  20.430 -0.1530 -0.1405  0.3103
 4090W        W47028  25.299  12.459  21.185  0.0409 -0.0042  0.0913
 4091W        W47029  24.458  10.531  21.538 -0.0644 -0.1971  0.0204
 4092W        W47030  21.680  11.228  20.872  0.1049 -0.1779 -0.3079
 4093W        W47031  23.231  13.563  22.971 -0.0121  0.1701 -0.4810
 4094W        W47032  23.801  12.062  18.605  0.1765  0.0224 -0.0510
 4095W        W47033  23.899  12.106  20.229  0.0585  0.2600 -0.1750
 4096W        W47034  24.296  12.670  23.731 -0.1872  0.1135  0.0091
 4097W        W47035  25.284  14.456  25.262 -0.1294  0.0334  0.1490
 4098W        W47036  23.933   9.638  19.763  0.1860  0.1435  0.2231
 4099W        W47037  24.048  12.567  23.216 -0.1083  0.5465 -0.2073
 4100W        W47038  24.111  14.059  20.018  0.0871  0.1145  0.0199
 4101W        W47039  24.321  11.440  22.460 -0.1962  0.0044 -0.0583
 4102W        W47040  23.241  15.390  22.208 -0.1267  0.0544 -0.1074
 4103W        W47041  21.694  12.163  21.121 -0.1471 -0.1320  0.2218
 4104W        W47042  25.224  13.998  21.431 -0.0381 -0.2387 -0.1149
 4105W        W47043  24.398  12.988  23.335 -0.3445 -0.1576 -0.0110
 4106W        W47044  23.633  13.349  21.648 -0.0176  0.2082  0.1238
 4107W        W47045  24.550  13.425  21.881  0.2103  0.0603 -0.0370
 4108W        W47046  25.597  11.647  23.572 -0.1228 -0.1046  0.0297
 4109W        W47047  25.724  14.481  23.783  0.2585 -0.2819 -0.5401
 4110W        W47048  23.841  12.746  22.779 -0.0696 -0.1938 -0.0562
 4111W        W47049  25.459  14.151  24.777  0.0023  0.1526  0.0792
 4112W        W47050  26.046  11.761  20.050 -0.2552  0.0732  0.1632
 4113W        W47051  22.364  12.051  21.368 -0.0276  0.0846  0.1274
 4114W        W47052  21.207  12.987  21.089 -0.0079  0.1278  0.0433
 4115W        W47053  24.550  13.814  24.969 -0.0924  0.0841  0.1382
 4116W        W47054  24.910  12.566  21.982  0.1053 -0.0179 -0.0287
 4117W        W47055  23.762  11.930  21.628  0.1350 -0.3888  0.1556
 4118W        W47056  24.909  13.540  20.466  0.1873  0.0603 -0.1568
 4119W        W47057  23.025  14.458  24.205  0.1359 -0.1383 -0.0275
 4120W        W47058  23.002  12.518  21.463 -0.0564  0.0282  0.1908
 4121W        W47059  23.141  14.397  19.510 -0.0076  0.0785  0.0638
 4122W        W47060  25.582  13.737  21.190 -0.2881  0.0220  0.0095
 4123W        W47061  25.377  14.781  22.841 -0.3780  0.1027  0.0480
 4124W        W47062  25.357  14.836  23.469 -0.0316 -0.1287  0.3516
 4125W        W47063  25.033  12.062  20.457 -0.2447 -0.0558 -0.1423
 4126W        W47064  22.722  14.322  21.015 -0.5425  0.0940  0.1489
 4127W        W47065  22.583  12.320  20.974  0.2004 -0.4251 -0.0363
 4128W        W47066  24.928  14.387  22.261 -0.2032  0.0190 -0.0452
 4129W        W47067  24.078  14.727  21.578  0.0074  0.0394  0.4609
 4130W        W47068  26.557  14.768  24.169 -0.1257 -0.0022  0.2994
 4131W        W47069  23.940  10.433  20.537 -0.0815 -0.0986 -0.1223
 4132W        W47070  25.747  12.385  21.384 -0.2971 -0.1237 -0.0634
 4133W        W47071  25.461  11.715  23.098 -0.1100  0.0958  0.1245
 4134W        W47072  25.171  15.275  24.716 -0.0509 -0.3093  0.1007
 4135W        W47073  23.074  12.998  21.714 -0.0263 -0.3056  0.0531
 4136W        W47074  23.458  10.272  21.551 -0.2292 -0.0878 -0.0694
 4137W        W47075  22.777  12.299  23.636 -0.0709  0.2455 -0.0674
 4138W        W47076  26.299  11.727  25.394  0.1435  0.1100  0.4306
 4139W        W47077  24.605  13.820  21.498 -0.2469 -0.0188 -0.1670
 4140W        W47078  26.066  14.529  21.526  0.0746 -0.1747  0.0700
 4141W        W47079  23.149  12.164  20.844 -0.0498 -0.0944  0.5714
 4142W        W47080  23.672  13.512  22.600  0.4966 -0.2485  0.0187
 4143W        W47081  25.464  11.204  22.811 -0.0199  0.1219 -0.3038
 4144W        W47082  25.211  13.425  20.101  0.0442  0.2099  0.2756
 4145W        W47083  23.655  13.748  21.999  0.1093 -0.2846  0.1079
 4146W        W47084  24.491  14.054  22.111  0.0628 -0.2369  0.1640
 4147W        W47085  25.342  14.033  22.755 -0.0640  0.0326 -0.1658
 4148W        W47086  23.097  13.783  21.179 -0.0618 -0.2349 -0.0086
 4149W        W47087  23.135  11.381  19.044  0.3328 -0.0112  0.2540
 4150W        W47088  24.762  11.437  22.305 -0.1532 -0.0657  0.1513
 4151W        W47089  23.008  13.939  23.176 -0.4039 -0.1329 -0.0271
 4152W        W47090  25.279  10.024  23.193 -0.1485  0.0732 -0.0580
 4153W        W47091  24.103  12.091  19.722 -0.4234  0.0067  0.5633
 4154W        W47092  24.925  11.646  21.635 -0.1232 -0.0050 -0.0650
 4155W        W47093  25.574  15.228  22.860  0.1439 -0.1726 -0.0557
 4156W        W47094  22.783  11.669  23.268 -0.0150 -0.3237  0.1937
 4157W        W47095  24.572  13.274  20.229 -0.2351  0.0212  0.2332
 4158W        W47096  24.724  13.349  23.400 -0.0186 -0.0004  0.1990
 4159W        W47097  25.848  12.181  19.859 -0.0450 -0.0686 -0.4909
 4160W        W47098  25.727  14.320  22.793  0.1217 -0.0630  0.2971
 4161W        W47099  22.003  10.313  21.153  0.0726  0.2278  0.0013
 4162W        W47100  24.318   9.075  20.659  0.0050 -0.0911 -0.4563
 4163W        W47101  23.523  11.729  20.018  0.0091  0.1287  0.3721
 4164W        W47102  23.649  13.462  23.371 -0.0174 -0.0863 -0.4065
 4165W        W47103  25.822  13.453  24.193  0.1781  0.3060 -0.2132
 4166W        W47104  22.724   9.964  21.378  0.5405  0.0365 -0.2429
 4167W        W47105  25.744  13.498  20.192 -0.0128 -0.0402 -0.2354
 4168W        W47106  24.697  12.694  24.025  0.0440  0.0692 -0.1880
 4169W        W47107  24.396  14.178  19.636  0.2205 -0.1252  0.1643
 4170W        W47108  23.766  12.279  22.539  0.0640 -0.0814  0.0187
 4171W        W47109  25.092  15.089  23.122  0.0723  0.0904 -0.0665
 4172W        W47110  22.486  12.640  21.429 -0.1593  0.1741  0.2842
 4173W        W47111  26.478  13.709  21.835 -0.0276  0.0778 -0.2021
 4174W        W47112  26.774  13.024  23.497 -0.2328 -0.0600  0.1652
 4175W        W47113  24.147   9.990  21.075  0.4803  0.3089 -0.1138
 4176W        W47114  23.727  11.074  23.170 -0.1144 -0.2376 -0.0055
 4177W        W47115  23.003  12.842  21.021  0.0237 -0.0264  0.2753
 4178W        W47116  25.854  12.076  22.322  0.0941 -0.2070 -0.0939
 4179W        W47117  24.234   9.638  22.679  0.0764  0.1211  0.0494
 4180W        W47118  25.567  13.902  19.995 -0.0508 -0.0900 -0.1150
 4181W        W47119  23.496  11.376  23.918 -0.2607 -0.1044 -0.0360
 4182W        W47120  23.628  15.417  23.250 -0.1171  0.0766  0.0340
 4183W        W47121  24.586  13.964  22.927  0.0641  0.0662  0.1424
 4184W        W47122  23.938  12.635  18.884 -0.1863 -0.0909  0.2539
 4185W        W47123  22.679  12.945  22.571 -0.0617  0.4982  0.2244
 4186W        W47124  23.760  11.956  21.132  0.1586  0.1138  0.0296
 4187W        W47125  25.303  13.577  22.568 -0.0192 -0.0668  0.2075
 4188W        W47126  25.513  13.382  21.631  0.1073 -0.0418  0.2208
 4189W        W47127  24.169  10.113  22.395 -0.1434 -0.0783  0.1604
 4190W        W47128  26.504  15.404  20.728 -0.2257  0.0574  0.0671
 4191W        W47129  24.030  11.534  22.027 -0.0608  0.1500  0.0328
 4192W        W47130  24.695  11.739  20.770 -0.0398  0.4918  0.3242
 4193W        W47131  25.099  10.043  22.718  0.0783  0.1836 -0.0766
 4194W        W47132  24.604  13.635  23.955 -0.3331  0.2271 -0.0044
 4195W        W47133  23.665  12.526  18.420 -0.2465  0.0740  0.0141
 4196W        W47134  23.282  12.339  19.368 -0.1084  0.0243 -0.4021
 4197W        W47135  24.054  13.746  21.603 -0.2330 -0.1429  0.2535
 4198W        W47136  23.791   9.737  23.187 -0.0964  0.0738 -0.0459
 4199W        W47137  23.322  10.833  22.964  0.3928  0.1192  0.1211
 4200W        W47138  24.287  12.661  19.358 -0.2977  0.1036 -0.0141
 4201W        W47139  22.380  10.296  21.585 -0.2390  0.2174 -0.0064
 4202W        W47140  25.736  14.647  20.100 -0.0559 -0.1332  0.2582
 4203W        W47141  23.543  11.759  23.084 -0.1538 -0.1460  0.2094
 4204W        W47142  21.896  10.761  21.599 -0.0207  0.0049 -0.0847
 4205W        W47143  24.314  12.462  21.273 -0.0011  0.2751 -0.0319
 4206W        W47144  27.087  13.799  22.716  0.0562 -0.1675 -0.0454
 4207W        W47145  23.734  11.359  20.917 -0.4754 -0.0209 -0.3643
 4208W        W47146  26.619  13.740  23.376  0.1709  0.2871 -0.0003
 4209W        W47147  22.349  11.575  19.205  0.0810 -0.0600  0.2134
 4210W        W47148  24.109  13.411  23.886 -0.2605 -0.1570 -0.5361
 4211W        W47149  24.635  10.663  23.578  0.1902  0.0455 -0.1882
 4212W        W47150  21.176   9.673  20.419  0.3141  0.0490  0.0394
 4213W        W47151  23.146  13.552  21.725 -0.0027 -0.0374  0.2075
 4214W        W47152  24.926  15.132  21.619 -0.0203 -0.1284 -0.2228
 4215W        W47153  25.650  15.074  20.349  0.1284  0.1718 -0.1544
 4216W        W47154  23.526  13.943  23.249 -0.0803  0.2091  0.2174
 4217W        W47155  24.553  14.627  22.867 -0.1082 -0.2321 -0.0395
 4218W        W47156  21.948  10.984  22.886  0.0671  0.2587 -0.1576
 4219W        W47157  25.531  13.198  20.499 -0.3653 -0.2835 -0.2440
 4220W        W47158  25.598  13.548  25.032  0.0705 -0.0791 -0.1033
 4221W        W47159  26.122  13.873  20.096  0.2050  0.1544 -0.3354
 4222W        W47160  26.023  11.055  22.784 -0.0522 -0.0919 -0.1011
 4223W        W47161  24.526  11.910  22.345 -0.5084 -0.0948  0.1408
 4224W        W47162  22.228  11.319  23.293 -0.2279 -0.3211  0.0685
 4225W        W47163  23.425  13.689  24.167  0.0526  0.2657 -0.0891
 4226W        W47164  24.386  14.629  23.865 -0.1957 -0.2935  0.1021
 4227W        W47165  23.321  11.134  21.142 -0.0898  0.2327 -0.2404
 4228W        W47166  25.091  11.570  21.156 -0.0981  0.1415  0.2344
 4229W        W47167  25.021  13.532  21.615 -0.3071 -0.1175 -0.0007
 4230W        W47168  21.873  12.671  22.149  0.4081 -0.4121  0.2268
 4231W        W47169  24.171  11.511  20.253 -0.1123  0.1480 -0.3605
 4232W        W47170  24.336  12.826  24.527  0.0473  0.0299  0.1036
 4233W        W47171  25.115  13.048  21.847  0.2003 -0.2914  0.1641
 4234W        W47172  25.504  13.126  23.728  0.1149  0.2697  0.2199
 4235W        W47173  24.463  11.759  19.722  0.2081  0.1059 -0.0380
 4236W        W47174  26.033  13.903  21.496  0.3103  0.2056  0.1060
 4237W        W47175  25.807  15.620  23.222 -0.2453  0.0727 -0.2573
 4238W        W47176  25.934  13.921  24.843  0.0960  0.2370  0.1986
 4239W        W47177  24.866  14.689  23.353  0.0898  0.0816  0.0985
 4240W        W47178  24.281  12.272  22.567 -0.1122 -0.0878 -0.1412
 4241W        W47179  22.049  12.136  22.142  0.0819 -0.0284 -0.1056
 4242W        W47180  23.842  12.754  20.411  0.0591 -0.0782 -0.0253
 4243W        W47181  24.576  13.819  23.422 -0.0729  0.1012 -0.3780
 4244W        W47182  24.001  12.086  23.011  0.0808  0.2434  0.3445
 4245W        W47183  23.588  11.310  20.384  0.1429  0.0807  0.1636
 4246W        W47184  24.095   8.998  21.476  0.0686  0.3946  0.0367
 4247W        W47185  24.423  14.274  22.559 -0.2922 -0.0735 -0.6409
 4248W        W47186  23.662  13.080  22.400 -0.1954  0.0509  0.0707
 4249W        W47187  22.741  13.240  26.138  0.0868 -0.0037 -0.0703
 4250W        W47188  23.891  13.230  25.279  0.0266 -0.1603  0.0560
 4251W        W47189  23.128  10.624  24.499  0.0104 -0.3504  0.0208
 4252W        W47190  26.185  13.190  24.150 -0.1297 -0.1206  0.2205
 4253W        W47191  20.671  12.486  24.578 -0.3623  0.0168  0.0716
 4254W        W47192  23.911  16.401  24.757  0.0194  0.1245 -0.3031
 4255W        W47193  22.298  11.997  26.595 -0.1809  0.2259 -0.0653
 4256W        W47194  25.063  13.380  26.924  0.1438 -0.4006 -0.0669
 4257W        W47195  25.248  14.838  25.765  0.0750  0.1222  0.0678
 4258W        W47196  24.395  13.216  24.273  0.3071 -0.1225  0.0969
 4259W        W47197  22.883  13.169  26.653 -0.0120 -0.0727  0.1721
 4260W        W47198  23.030  14.428  26.057 -0.1813 -0.0578  0.0093
 4261W        W47199  23.474  12.861  23.104  0.0460  0.0116  0.0443
 4262W        W47200  20.904  10.390  25.359  0.1063 -0.1455 -0.1582
 4263W        W47201  23.899  13.752  24.774 -0.1577  0.0074 -0.0597
 4264W        W47202  22.859  13.833  24.011 -0.0627 -0.1761  0.3621
 4265W        W47203  23.188  11.883  26.556  0.0313  0.3823  0.0986
 4266W        W47204  22.642  13.309  25.479  0.0790 -0.1116 -0.0271
 4267W        W47205  25.553  14.974  23.946  0.1564 -0.1503  0.3319
 4268W        W47206  21.719  13.436  27.093  0.0212  0.2932  0.0640
 4269W        W47207  24.777  11.198  26.741 -0.1465 -0.0459  0.5059
 4270W        W47208  23.850  12.945  24.580 -0.0686 -0.0397 -0.0676
 4271W        W47209  21.271  11.749  22.476 -0.0587  0.0828 -0.0399
 4272W        W47210  20.650  13.504  23.852 -0.2355 -0.4972  0.1814
 4273W        W47211  24.334  13.149  26.191 -0.1588  0.1645 -0.0847
 4274W        W47212  24.143  13.303  25.740 -0.0069 -0.1853  0.1780
 4275W        W47213  25.412  13.641  25.474 -0.4022 -0.0370 -0.4603
 4276W        W47214  23.408  14.627  25.835  0.3319  0.2920 -0.1225
 4277W        W47215  25.489  13.816  26.036 -0.0563 -0.2661  0.2975
 4278W        W47216  23.307  13.099  26.933  0.1822 -0.0390  0.3313
 4279W        W47217  22.377  14.030  23.950 -0.1339 -0.0822  0.1812
 4280W        W47218  23.751  14.850  25.501 -0.0749  0.0057  0.4947
 4281W        W47219  24.294  14.236  24.197  0.2575 -0.0838  0.0996
 4282W        W47220  25.798  15.325  26.644  0.0058  0.0111 -0.0461
 4283W        W47221  24.862  14.926  27.833  0.2301  0.0523 -0.0542
 4284W        W47222  22.915  14.776  26.555  0.1223 -0.0879 -0.1434
 4285W        W47223  22.096  14.511  22.820  0.3090 -0.0744  0.1867
 4286W        W47224  23.297  15.467  27.545 -0.0734  0.3397 -0.2375
 4287W        W47225  22.815  13.688  26.396  0.2827  0.5208 -0.1200
 4288W        W47226  24.439  13.640  25.625  0.0547 -0.1019  0.2873
 4289W        W47227  23.381  12.035  24.629  0.1105  0.1654  0.1520
 4290W        W47228  21.842  14.071  23.177  0.1562 -0.1709  0.2461
 4291W        W47229  22.294  13.802  24.547 -0.2838  0.0757  0.0090
 4292W        W47230  22.155  14.229  26.879 -0.0940 -0.1131  0.0807
 4293W        W47231  21.996  14.421  25.281  0.2018  0.1279 -0.2917
 4294W        W47232  24.865  12.716  27.638 -0.0585 -0.2878 -0.2075
 4295W        W47233  23.298  14.529  25.186 -0.1733  0.0114  0.2023
 4296W        W47234  23.925  12.822  25.529 -0.0810  0.2248 -0.1508
 4297W        W47235  24.148  14.094  23.270 -0.0197 -0.1707 -0.1348
 4298W        W47236  24.723  10.985  24.405  0.1552 -0.0674  0.0373
 4299W        W47237  22.292  11.756  26.154  0.0340  0.0666 -0.2456
 4300W        W47238  22.956  15.886  24.871  0.0823  0.1271 -0.4503
 4301W        W47239  23.166  11.776  25.977 -0.0720 -0.1975 -0.0876
 4302W        W47240  25.272  12.895  28.005 -0.1972 -0.0684  0.1171
 4303W        W47241  23.667  13.888  25.201  0.1552  0.0473 -0.3580
 4304W        W47242  24.617  14.053  25.986 -0.0376 -0.2580 -0.0075
 4305W        W47243  21.333  13.632  25.032 -0.2489  0.0106  0.1802
 4306W        W47244  22.141  12.471  24.337 -0.1475 -0.0449  0.0908
 4307W        W47245  27.593  13.664  23.837 -0.1252  0.5130 -0.2729
 4308W        W47246  25.607  13.386  26.260 -0.3083 -0.0275  0.3149
 4309W        W47247  25.571  13.660  23.774  0.1753 -0.1824 -0.1086
 4310W        W47248  23.092  12.141  25.237 -0.0407 -0.1151 -0.1583
 4311W        W47249  20.975  13.889  25.913 -0.1887 -0.1939 -0.0109
 4312W        W47250  21.132  12.247  25.976 -0.2266 -0.1833 -0.3902
 4313W        W47251  23.281  10.969  23.460  0.1308  0.1868  0.0694
 4314W        W47252  25.044  13.922  25.748 -0.1486  0.0306  0.0452
 4315W        W47253  21.098  15.358  25.497 -0.0093  0.1403 -0.2279
 4316W        W47254  24.610  12.079  26.507 -0.2453 -0.2948  0.1090
 4317W        W47255  24.684  14.055  26.480 -0.2326  0.1343  0.1727
 4318W        W47256  24.833  14.587  26.219  0.0126 -0.0251  0.0794
 4319W        W47257  24.840  13.525  24.380  0.0230 -0.0214  0.0115
 4320W        W47258  23.475  10.909  25.207  0.0715  0.0674  0.0535
 4321W        W47259  24.506  11.564  26.555  0.2805  0.0668 -0.2342
 4322W        W47260  23.739  14.374  24.897  0.1617 -0.2187 -0.2557
 4323W        W47261  22.621  12.282  25.243 -0.2685  0.1635  0.3173
 4324W        W47262  25.757  13.093  28.012 -0.0491 -0.1411  0.2437
 4325W        W47263  24.340  11.544  25.252 -0.0278 -0.0447  0.1066
 4326W        W47264  24.086  14.240  25.212  0.1221 -0.0622 -0.1555
 4327W        W47265  23.261  13.348  26.265 -0.2568 -0.1575  0.1998
 4328W        W47266  24.707  14.765  26.993  0.0384 -0.0168 -0.0800
 4329W        W47267  23.106  13.979  22.642 -0.0119 -0.1423  0.1526
 4330W        W47268  22.728  14.037  25.887  0.0863  0.0747  0.0397
 4331W        W47269  22.507  14.354  25.251 -0.1194  0.2116 -0.1563
 4332W        W47270  21.517  11.386  23.782 -0.0112 -0.0309 -0.0137
 4333W        W47271  25.047  12.708  24.845  0.2210  0.0115 -0.2561
 4334W        W47272  25.457  11.393  25.293 -0.0203  0.0562  0.3971
 4335W        W47273  22.072  12.515  27.034 -0.0292  0.1102  0.5432
 4336W        W47274  25.492  11.854  26.259  0.3988 -0.1411 -0.0073
 4337W        W47275  22.637  14.959  24.675 -0.1663  0.0070  0.1454
 4338W        W47276  26.726  14.386  25.996  0.1079 -0.1323 -0.1176
 4339W        W47277  25.812  11.849  24.017  0.1055  0.1965  0.0786
 4340W        W47278  24.653  15.236  24.655  0.1741 -0.0348 -0.0118
 4341W        W47279  22.035  13.051  25.396  0.2909  0.0862 -0.1257
 4342W        W47280  21.629  11.643  24.250  0.0965 -0.0264  0.2233
 4343W        W47281  22.727  12.026  26.200  0.2603  0.1064  0.0241
 4344W        W47282  21.511  11.383  25.577 -0.2688  0.1939  0.2258
 4345W        W47283  24.756  13.106  25.741 -0.0404  0.0687 -0.0685
 4346W        W47284  21.487  12.081  24.216  0.1116 -0.2110 -0.0832
 4347W        W47285  26.119  12.241  25.687  0.3539  0.1948  0.1718
 4348W        W47286  24.583  14.160  25.376 -0.1412  0.2861 -0.1308
 4349W        W47287  23.601  13.332  23.893  0.2044 -0.2318  0.1834
 4350W        W47288  24.319  14.068  27.356  0.2865 -0.0563  0.3750
 4351W        W47289  25.586  15.533  24.115  0.1188  0.0096  0.0227
 4352W        W47290  25.478  15.393  27.983  0.0481 -0.2093  0.0188
 4353W        W47291  25.029  15.755  26.696  0.1888 -0.0375  0.1140
 4354W        W47292  22.785  10.986  26.705  0.1104 -0.1875 -0.2349
 4355W        W47293  22.143  11.884  25.134  0.5340  0.2642  0.1805
 4356W        W47294  21.935  15.080  25.700 -0.0098 -0.0869 -0.1408
 4357W        W47295  23.004  13.572  25.286  0.3153  0.0606  0.1547
 4358W        W47296  22.731  10.872  25.371 -0.2004 -0.0702 -0.0766
 4359W        W47297  26.472  14.881  25.901 -0.0120 -0.2259 -0.0107
 4360W        W47298  24.529  13.147  23.788 -0.1245  0.0048  0.3261
 4361W        W47299  22.001  13.692  26.096 -0.2353  0.2260  0.1214
 4362W        W47300  26.015  12.253  27.481 -0.2388 -0.1673  0.1308
 4363W        W47301  26.162  12.495  26.564 -0.4288  0.0654 -0.2900
 4364W        W47302  23.249  12.604  24.972  0.1636  0.0867  0.0034
 4365W        W47303  23.097  10.430  23.663 -0.0145 -0.2211  0.0306
 4366W        W47304  25.142  15.492  25.279  0.0416 -0.0424 -0.0529
 4367W        W47305  22.588  15.498  23.039 -0.2636  0.0054 -0.0321
 4368W        W47306  21.624  13.698  23.956  0.0472 -0.3669 -0.1007
 4369W        W47307  25.311  14.711  26.318 -0.2318 -0.1129  0.0132
 4370W        W47308  26.407  14.040  25.784  0.0133  0.3279 -0.0203
 4371W        W47309  22.580  13.894  26.827 -0.0344 -0.2346  0.1377
 4372W        W47310  24.520  12.739  27.274  0.2777  0.0785 -0.0878
 4373W        W47311  23.886  13.773  25.693  0.3690  0.2036 -0.0337
 4374W        W47312  23.297  13.888  26.391  0.0809  0.0010 -0.4766
 4375W        W47313  25.513  11.187  27.366  0.0610  0.1593  0.0246
 4376W        W47314  23.735  11.773  24.923  0.0898  0.0975  0.1052
 4377W        W47315  24.546  15.411  25.950 -0.0807  0.0020  0.2081
 4378W        W47316  27.114  13.672  25.224 -0.1560  0.1042 -0.4146
 4379W        W47317  23.213  13.561  24.771  0.0861  0.1605  0.4036
 4380W        W47318  23.572  10.996  24.353 -0.1426 -0.2283 -0.2823
 4381W        W47319  21.633  14.323  25.646  0.0896 -0.1532 -0.1775
 4382W        W47320  23.639  13.337  24.820 -0.0931 -0.2214  0.1246
 4383W        W47321  24.726  12.409  25.592 -0.2402 -0.0939  0.0191
 4384W        W47322  25.225  13.610  26.389  0.2089 -0.2990  0.0177
 4385W        W47323  26.123  13.410  25.195 -0.1966  0.2084  0.1253
 4386W        W47324  21.368  12.888  26.702  0.1952  0.0257 -0.2556
 4387W        W47325  24.379  14.525  26.031 -0.1722 -0.1897  0.2759
 4388W        W47326  25.427  15.244  26.168  0.2365  0.0823 -0.0633
 4389W        W47327  22.090  11.412  24.584 -0.0967 -0.2664  0.0533
 4390W        W47328  22.367  12.900  23.088 -0.0311 -0.0613  0.1488
 4391W        W47329  23.201  12.359  26.375 -0.3828  0.0416  0.3671
 4392W        W47330  23.192  14.027  22.178 -0.0958 -0.2022  0.1309
 4393W        W47331  22.960  11.716  25.537  0.0216 -0.1946 -0.2114
 4394W        W47332  25.660  13.041  25.839 -0.3554  0.1140  0.0003
 4395W        W47333  23.681  10.701  27.010  0.0929  0.2923 -0.3932
 4396W        W47334  25.256  13.421  25.869 -0.3193  0.2890  0.3055
 4397W        W47335  25.922  11.946  23.434  0.1285 -0.0361 -0.0686
 4398W        W47336  23.902  12.923  26.016 -0.1811 -0.0922 -0.0818
 4399W        W47337  23.218  14.029  24.959 -0.2458  0.0643  0.0370
 4400W        W47338  23.938  11.581  26.824 -0.1826  0.0257  0.1568
 4401W        W47339  22.896  12.671  26.744 -0.2041 -0.0957  0.0390
 4402W        W47340  22.135  14.902  24.685 -0.2031 -0.2460 -0.0555
 4403W        W47341  24.709  16.096  26.481 -0.0020 -0.2308  0.1315
 4404W        W47342  25.290  13.160  25.366 -0.1186 -0.2430 -0.2195
 4405W        W47343  23.765  11.578  27.905 -0.0729 -0.1002  0.1114
 4406W        W47344  22.486  11.940  24.714 -0.0842  0.1786  0.1624
 4407W        W47345  24.769  13.979  24.583 -0.0259 -0.3012 -0.0897
 4408W        W47346  23.290  13.009  24.612 -0.3582 -0.3347  0.2387
 4409W        W47347  23.889  12.407  26.197 -0.1274 -0.2578  0.0915
 4410W        W47348  23.028  15.043  25.635  0.2248  0.0362 -0.0947
 4411W        W47349  23.830  13.407  24.362 -0.0932 -0.1058 -0.1603
 4412W        W47350  24.262  13.636  26.205 -0.0454  0.1130 -0.0989
 4413W        W47351  24.128  14.619  23.441 -0.2654  0.2177 -0.0888
 4414W        W47352  25.626  11.861  25.007 -0.2701 -0.0572 -0.0185
 4415W        W47353  22.575  11.965  25.706  0.0797 -0.0273  0.1328
 4416W        W47354  23.954  12.896  24.087  0.0527  0.0049 -0.0739
 4417W        W47355  22.114  11.510  23.955  0.0283 -0.2445 -0.2307
 4418W        W47356  24.005  11.212  24.032 -0.0391 -0.1876  0.2453
 4419W        W47357  25.409  13.118  24.241 -0.1076  0.0792  0.1727
 4420W        W47358  22.807  12.162  26.669  0.1104  0.2713  0.1558
 4421W        W47359  23.837  12.295  25.617 -0.4512 -0.0193  0.0997
 4422W        W47360  22.517  13.606  25.908  0.2594 -0.4332  0.3548
 4423W        W47361  25.043  14.418  26.692 -0.0257  0.1532  0.0533
 4424W        W47362  23.574  10.639  24.762 -0.1531 -0.0372  0.0382
 4425W        W47363  26.159  13.611  27.590  0.1578 -0.1205  0.0272
 4426W        W47364  21.159  13.261  27.284 -0.3540  0.1520  0.1347
 4427W        W47365  22.554  12.078  23.188  0.1809  0.0906 -0.0040
 4428W        W47366  26.160  13.777  26.913 -0.3184  0.1260  0.1754
 4429W        W47367  22.585  13.875  25.446 -0.3115  0.0848 -0.2487
 4430W        W47368  22.799  14.526  24.787 -0.0977  0.1754  0.0001
 4431W        W47369  20.871  14.399  24.491  0.1706 -0.1392  0.1788
 4432W        W47370  22.747  14.109  24.418  0.3255  0.1647 -0.1550
 4433W        W47371  22.909  13.149  24.895  0.0700 -0.6243 -0.1645
 4434W        W47372  22.025  13.402  27.600  0.0127 -0.0167 -0.0951
 4435W        W47373  24.796  13.147  27.270  0.0726  0.1309  0.0854
 4436W        W47374  21.982  11.753  25.801 -0.0354 -0.0806  0.2478
 4437W        W47375  23.036  13.084  25.769  0.0978 -0.1909  0.0026
 4438W        W47376  24.344  11.952  26.989 -0.1939  0.0958  0.1020
 4439W        W47377  24.881  14.359  24.883 -0.0408 -0.1538 -0.2814
 4440W        W47378  24.438  12.604  26.709 -0.0013  0.0815 -0.1141
 4441W        W47379  21.721  13.815  28.556  0.0531  0.3599  0.1815
 4442W        W47380  23.644  12.076  26.480  0.1553  0.0717  0.1893
 4443W        W47381  26.006  15.008  24.794  0.0749  0.0385  0.2037
 4444W        W47382  23.885  14.438  25.986 -0.1741 -0.1495 -0.3315
 4445W        W47383  22.481  14.377  23.549 -0.0280 -0.0879  0.0345
 4446W        W47384  20.069  13.453  24.123 -0.2202 -0.3068 -0.0331
 4447W        W47385  22.253  14.862  26.229  0.1161  0.1062  0.2530
 4448W        W47386  24.139  11.962  26.231 -0.0480  0.0189 -0.2844
 4449W        W47387  21.384  13.413  26.666  0.0896 -0.1050 -0.1445
 4450W        W47388  23.050  13.348  24.115  0.1827 -0.2149  0.0886
 4451W        W47389  22.058  14.580  25.711 -0.3642 -0.2059  0.2209
 4452W        W47390  24.795  11.454  24.161 -0.1557  0.4239 -0.2893
 4453W        W47391  25.567  13.682  24.557  0.2249  0.1895  0.2061
 4454W        W47392  23.548  12.089  25.903 -0.1734 -0.1236 -0.0747
 4455W        W47393  25.163  12.398  27.368 -0.0859 -0.1294 -0.1270
 4456W        W47394  23.868  11.944  24.456 -0.0510  0.3541 -0.0804
 4457W        W47395  25.397  11.971  28.035 -0.2174  0.1095  0.0143
 4458W        W47396  21.836  11.859  27.651  0.0529 -0.2097  0.1842
 4459W        W47397  25.280  15.023  25.176 -0.1821  0.2188  0.0435
 4460W        W47398  22.279  11.157  26.997 -0.1342 -0.0668 -0.3270
 4461W        W47399  24.592  13.617  28.570 -0.1393 -0.1409  0.3762
 4462W        W47400  21.529  13.072  25.224  0.0295 -0.5359  0.0286
 4463W        W47401  24.563  11.149  25.478  0.2491  0.0903 -0.0436
 4464W        W47402  23.783  10.851  25.725  0.0167  0.0461  0.0988
 4465W        W47403  24.896  14.419  25.749  0.0803 -0.1363 -0.2451
 4466W        W47404  26.427  14.516  26.915  0.1665  0.0626 -0.1911
 4467W        W47405  24.239  13.974  23.747 -0.0691  0.1202  0.1031
 4468W        W47406  25.559  12.299  25.829  0.0025 -0.4503  0.0732
 4469W        W47407  21.974  12.713  25.839  0.0132 -0.0845 -0.0778
 4470W        W47408  27.366  12.430  24.590  0.1638  0.0989  0.2071
 4471W        W47409  25.155  12.462  23.297  0.0414 -0.1015 -0.0925
 4472W        W47410  21.847  12.044  26.226  0.1196 -0.2322 -0.2010
 4473W        W47411  23.589  12.328  27.307 -0.0285 -0.2487 -0.3689
 4474W        W47412  25.772  14.836  26.469 -0.3228  0.1106  0.4332
 4475W        W47413  23.734  12.239  25.121 -0.3179  0.0064 -0.0181
 4476W        W47414  24.095  12.250  26.650 -0.0505 -0.0490  0.0404
 4477W        W47415  24.578  12.592  24.891  0.0506  0.0483 -0.2408
 4478W        W47416  22.784  13.904  27.506  0.0791 -0.0544 -0.0784
 4479W        W47417  22.174  13.561  25.463  0.0267 -0.0759 -0.0162
 4480W        W47418  25.260  15.833  27.338 -0.4923  0.0371 -0.0450
 4481W        W47419  23.677  12.497  24.572 -0.3321 -0.1713  0.3593
 4482W        W47420  25.576  13.611  26.730 -0.3822 -0.4221  0.2996
 4483W        W47421  25.374  11.407  26.022  0.1210 -0.0961  0.2441
 4484W        W47422  25.641  12.359  24.052  0.2903  0.2215  0.0395
 4485W        W47423  22.885  11.296  25.138 -0.0612 -0.2355  0.0450
 4486W        W47424  24.554  13.514  27.669  0.3612 -0.0183 -0.1421
 4487W        W47425  22.940  11.990  24.266  0.0734  0.0765  0.0819
 4488W        W47426  25.797  12.269  28.170  0.5721 -0.0591  0.2548
 4489W        W47427  24.398  16.200  25.009 -0.1864 -0.3197  0.0697
 4490W        W47428  25.030  13.521  24.942 -0.3180 -0.0261  0.2404
 4491W        W47429  25.181  12.927  26.176 -0.0337 -0.5888 -0.2585
 4492W        W47430  21.622  11.883  25.431 -0.3216  0.2271 -0.1072
 4493W        W47431  23.367  15.466  27.042 -0.0558 -0.0671 -0.1915
 4494W        W47432  22.165  10.640  24.616 -0.2192  0.1531 -0.3063
 4495W        W47433  23.683  13.880  23.715  0.0357  0.0630 -0.1097
 4496W        W47434  22.203  14.025  25.723  0.0096 -0.0651  0.0557
 4497W        W47435  23.894  14.159  27.852 -0.2495 -0.0244 -0.2578
 4498W        W47436  23.473  11.398  25.225  0.0000 -0.4669  0.1614
 4499W        W47437  25.508  13.219  28.521 -0.2666 -0.0103  0.1587
 4500W        W47438  22.328  13.325  22.824 -0.0728 -0.1985  0.0604
 4501W        W47439  24.215  11.183  24.513  0.0378  0.2718 -0.0853
 4502W        W47440  22.938  14.571  25.585  0.4463 -0.1504 -0.0875
 4503W        W47441  21.305  13.593  24.449  0.1761  0.3130  0.1941
 4504W        W47442  20.838  14.801  24.871  0.0763 -0.1188 -0.0414
 4505W        W47443  23.547  13.136  25.759 -0.0277  0.0558 -0.0752
 4506W        W47444  25.753  12.913  24.543  0.0328  0.0697 -0.0433
 4507W        W47445  23.439  13.567  25.520  0.0174  0.1848 -0.2493
 4508W        W47446  25.578  12.769  28.365  0.3811  0.1185  0.2331
 4509W        W47447  24.597  16.029  26.008 -0.1241 -0.4477 -0.1515
 4510W        W47448  23.842  13.777  26.475 -0.1067  0.0085 -0.1492
 4511W        W47449  24.389  14.605  26.563 -0.1526 -0.0427  0.4424
 4512W        W47450  25.427  14.044  26.543 -0.2027  0.1427  0.1333
 4513W        W47451  24.049  15.434  26.202  0.3706  0.0029 -0.1994
 4514W        W47452  21.439  12.793  27.852  0.1601  0.1191 -0.1582
 4515W        W47453  23.789  13.261  26.336  0.1501  0.2344 -0.2376
 4516W        W47454  24.618  13.550  26.596 -0.1284 -0.0371  0.0746
 4517W        W47455  21.901  10.986  25.429 -0.3386  0.0432  0.1086
 4518W        W47456  24.949  12.466  24.450  0.0238  0.0294  0.3608
 4519W        W47457  21.205  14.406  25.858 -0.2073 -0.3438 -0.0456
 4520W        W47458  22.232  12.584  25.324  0.2425  0.0773 -0.0705
 4521W        W47459  25.114  14.281  24.346  0.3329 -0.1106 -0.2449
 4522W        W47460  24.346  14.214  24.707  0.2833 -0.0417  0.2893
 4523W        W47461  26.154  13.156  26.103  0.0109 -0.1371  0.1294
 4524W        W47462  24.443  15.640  26.920  0.0045 -0.0331 -0.0190
 4525W        W47463  22.760  12.646  24.851 -0.0737 -0.0792 -0.1056
 4526W        W47464  22.687  13.954  24.896  0.0711 -0.1424  0.0340
 4527W        W47465  21.896  13.049  21.008 -0.0033 -0.1379  0.0916
 4528W        W47466  26.076  13.866  25.370  0.4051  0.1966  0.0397
 4529W        W47467  24.988  14.678  24.037 -0.1375  0.0153 -0.1765
 4530W        W47468  22.775  14.588  27.534  0.3662 -0.3621 -0.2348
 4531W        W47469  24.461  12.139  24.585 -0.3675 -0.2776 -0.1269
 4532W        W47470  26.190  13.195  27.111 -0.0993 -0.2122 -0.0301
 4533W        W47471  25.257  11.245  24.401  0.0912  0.0921  0.0744
 4534W        W47472  23.299  15.048  25.273  0.2454  0.0826  0.2369
 4535W        W47473  24.093  12.955  27.091  0.2200 -0.1008 -0.0520
 4536W        W47474  24.257  12.000  25.083  0.3584 -0.0226 -0.0758
 4537W        W47475  22.482  12.989  26.890  0.0626 -0.5392 -0.2469
 4538W        W47476  24.724  13.559  26.040 -0.2284  0.1681 -0.0403
 4539W        W47477  20.953  15.294  25.987 -0.0423 -0.0179 -0.3422
 4540W        W47478  26.268  14.650  25.110 -0.0804 -0.3088  0.1935
 4541W        W47479  22.502  12.937  25.799  0.0111 -0.2692  0.0136
 4542W        W47480  22.365  13.483  26.596 -0.4071 -0.0163 -0.3209
 4543W        W47481  24.682  12.843  25.259 -0.2437 -0.1227  0.0160
 4544W        W47482  24.240  14.604  25.534 -0.0819 -0.0050  0.0732
 4545W        W47483  24.334  12.118  25.738  0.1753  0.0338  0.1702
 4546W        W47484  24.622  14.938  25.830  0.1217  0.0228  0.0676
 4547W        W47485  21.783  13.265  26.368  0.0787  0.0595  0.0941
 4548W        W47486  22.478  14.680  26.842  0.2188 -0.0724  0.3726
 4549W        W47487  21.609  13.270  23.718 -0.2080 -0.0653 -0.0388
 4550W        W47488  26.376  11.437  25.835 -0.1475  0.1511  0.1430
 4551W        W47489  23.276  13.067  25.267  0.2869 -0.1844  0.0280
 4552W        W47490  26.064  10.551  27.629  0.1539 -0.0501  0.2503
 4553W        W47491  22.560  12.454  25.734  0.4260  0.2283  0.4955
 4554W        W47492  24.190  13.314  24.841  0.1283 -0.2230 -0.3545
 4555W        W47493  24.439  15.018  26.264 -0.1847 -0.0417 -0.0256
 4556W        W47494  22.096  11.910  24.349 -0.0246  0.2745 -0.0266
 4557W        W47495  24.825  12.288  26.040  0.2221 -0.0467 -0.0521
 4558W        W47496  25.004  13.897  26.784  0.0828  0.1574 -0.4084
 4559W        W47497  23.692  12.798  25.048 -0.1888 -0.1587 -0.1856
 4560W        W47498  24.345  15.063  26.792 -0.2360 -0.0773 -0.1034
 4561W        W47499  21.710  12.241  23.414 -0.1584  0.1139 -0.1344
 4562W        W47500  24.518  12.179  24.019  0.2215 -0.0303  0.3130
 4563W        W47501  24.411  13.276  25.290 -0.0685 -0.0335  0.0126
 4564W        W47502  23.572  13.633  26.074 -0.2282  0.1331 -0.0241
 4565W        W47503  24.421  15.503  27.550  0.0986  0.0851 -0.0141
 4566W        W47504  22.628  11.716  25.184  0.2049 -0.1566 -0.0428
 4567W        W47505  26.478  13.353  23.731 -0.0509 -0.1827  0.1329
 4568W        W47506  25.388  12.640  25.194  0.1120  0.0236  0.4309
 4569W        W47507  23.807  15.982  25.510 -0.1614  0.2545 -0.1089
 4570W        W47508  25.815  14.452  24.972  0.0822 -0.0300  0.1717
 4571W        W47509  25.968  15.122  26.068  0.1404 -0.0037  0.2789
 4572W        W47510  20.907  13.371  23.458  0.1929  0.2542 -0.0411
 4573W        W47511  24.560  15.518  26.452 -0.0223 -0.1243 -0.1961
 4574W        W47512  25.771  13.600  27.241 -0.1638  0.1071  0.1283
 4575W        W47513  23.804  11.078  24.882  0.3347 -0.0893  0.0742
 4576W        W47514  21.719  14.362  24.615  0.1034 -0.0157  0.0385
 4577W        W47515  22.250  14.953  24.076 -0.0343  0.1020 -0.0265
 4578W        W47516  24.881  12.994  24.426  0.1703  0.0127  0.1610
 4579W        W47517  23.978  11.658  27.332 -0.1050 -0.1699  0.2281
 4580W        W47518  23.997  13.060  23.589  0.2403  0.0517 -0.1759
 4581W        W47519  24.387  12.803  25.739  0.0097  0.3431  0.1723
 4582W        W47520  23.730  14.365  25.497 -0.0959 -0.3222  0.0248
 4583W        W47521  24.053  15.332  27.229 -0.0756 -0.0969 -0.1099
 4584W        W47522  23.219  13.190  23.571  0.1286  0.0480  0.2123
 4585W        W47523  23.503  15.490  25.720 -0.1772  0.1501 -0.0514
 4586W        W47524  24.970  14.840  24.819 -0.1647 -0.0001 -0.2172
 4587W        W47525  25.018  15.143  24.163  0.1512 -0.3111 -0.2955
 4588W        W47526  25.919  14.402  25.561  0.2880 -0.1623  0.2400
 4589W        W47527  23.445  12.600  25.476  0.0291  0.3005  0.2494
 4590W        W47528  25.951  13.506  25.740 -0.1359 -0.0890  0.5019
 4591W        W47529  24.390  12.381  26.202  0.2418  0.1747  0.2264
 4592W        W47530  25.949  11.812  26.609 -0.1012  0.1305  0.0492
 4593W        W47531  25.704  11.008  24.278 -0.1995  0.1597  0.0782
 4594W        W47532  24.133  13.662  25.235  0.0139 -0.2203  0.3130
 4595W        W47533  23.040  12.348  25.853 -0.0058 -0.0543  0.2241
 4596W        W47534  24.190  13.512  23.432 -0.2992 -0.4347 -0.0425
 4597W        W47535  21.703  13.683  25.717 -0.2382 -0.5863  0.1981
 4598W        W47536  23.457  12.824  26.483 -0.1584 -0.0465  0.0613
 4599W        W47537  22.245  12.252  26.127  0.2544  0.1250 -0.0491
 4600W        W47538  21.468  11.780  25.966  0.1666  0.0683 -0.2469
 4601W        W47539  23.213  12.471  24.379  0.1756  0.0608 -0.1974
 4602W        W47540  26.591  13.692  25.225 -0.0434 -0.0472 -0.0287
 4603W        W47541  23.339  10.649  25.724  0.0382 -0.4867  0.0006
 4604W        W47542  21.343  11.449  25.128  0.3291 -0.2330 -0.1021
 4605W        W47543  25.482  14.844  24.713  0.0265  0.0042 -0.2278
 4606W        W47544  26.089  15.473  25.584 -0.0270  0.1901  0.0076
 4607W        W47545  22.736  11.500  26.042  0.0532  0.0150  0.2154
 4608W        W47546  25.571  14.671  27.387 -0.1432  0.2422  0.0924
 4609W        W47547  21.243  12.167  20.729 -0.2325  0.2292  0.1284
 4610W        W47548  24.308  12.431  25.263 -0.0520  0.1134 -0.0051
 4611W        W47549  23.471  12.638  26.003  0.4931 -0.0471  0.1424
 4612W        W47550  23.433  10.127  23.426  0.1665  0.2170 -0.2688
 4613W        W47551  23.372  13.663  27.283 -0.0542 -0.1808  0.1859
 4614W        W47552  25.742  15.443  25.195 -0.3676  0.0039  0.2998
 4615W        W47553  26.461  15.682  24.045  0.0186  0.3202  0.0572
 4616W        W47554  23.062  13.995  25.492  0.0676  0.0502 -0.2474
 4617W        W47555  23.877  14.923  26.979 -0.0538 -0.1328 -0.0969
 4618W        W47556  20.957  11.531  26.932  0.0307 -0.0413  0.1784
 4619W        W47557  26.052  13.357  24.697  0.6046  0.2037 -0.1669
 4620W        W47558  23.655  14.218  26.509 -0.1412 -0.2656 -0.1794
 4621W        W47559  24.998  13.276  23.881 -0.2436 -0.1211  0.0126
 4622W        W47560  23.796  11.472  24.379  0.1331  0.0060 -0.1544
 4623W        W47561  24.774  12.085  25.130  0.3192  0.0834 -0.0718
 4624W        W47562  23.082  11.412  27.441  0.1054  0.0531 -0.1030
 4625W        W47563  21.884  13.957  27.669 -0.1554  0.1557 -0.0896
 4626W        W47564  25.986  14.299  26.619 -0.1446 -0.2383 -0.2512
 4627W        W47565  21.319  10.829  25.209  0.1091 -0.0070 -0.1609
 4628W        W47566  24.141  11.545  24.787 -0.2825 -0.1246  0.3635
 4629W        W47567  25.855  14.110  24.357 -0.3030 -0.2956 -0.1382
 4630W        W47568  23.426  11.852  25.489  0.0492 -0.1223 -0.0971
 4631W        W47569  24.783  11.280  26.173 -0.2054 -0.1418  0.2765
 4632W        W47570  24.519  13.130  26.897  0.0129 -0.0000 -0.0930
 4633W        W47571  24.238  14.134  25.726  0.1417 -0.0841  0.1153
 4634W        W47572  23.493  14.531  26.953  0.2343 -0.0100 -0.1626
 4635W        W47573  23.975  11.817  25.463 -0.4007 -0.1442  0.0549
 4636W        W47574  25.188  12.720  25.651 -0.2122 -0.2951  0.3195
 4637W        W47575  24.804  15.232  26.766 -0.0560 -0.0803 -0.0634
 4638W        W47576  25.071  14.351  27.283 -0.2160 -0.1259  0.2551
 4639W        W47577  23.101  14.119  27.212  0.1559  0.1378  0.3657
 4640W        W47578  26.050  12.652  25.946 -0.1321 -0.0090  0.0987
 4641W        W47579  22.302  12.097  27.103 -0.1902  0.1243 -0.0689
 4642W        W47580  24.857  13.466  25.419 -0.0071 -0.1733 -0.1864
 4643W        W47581  23.977  14.822  26.444  0.2365  0.4046 -0.1377
 4644W        W47582  24.916  12.579  26.662 -0.1415  0.3201  0.0079
 4645W        W47583  23.161  11.710  24.949 -0.0731  0.1006  0.0716
 4646W        W47584  23.344  11.332  25.725  0.3771 -0.1573  0.0911
 4647W        W47585  21.419  13.575  26.079  0.1427 -0.3365 -0.3038
 4648W        W47586  24.294  13.894  26.762 -0.0269  0.1397 -0.0870
 4649W        W47587  23.945  12.753  29.395 -0.0403 -0.1911  0.0842
 4650W        W47588  20.875  12.731  26.453  0.2226  0.0605 -0.1175
 4651W        W47589  24.432  11.228  28.738 -0.3877 -0.1888 -0.1485
 4652W        W47590  23.243  14.008  27.654  0.2374 -0.1957  0.2259
 4653W        W47591  23.241  12.299  26.885 -0.0917 -0.2759  0.2808
 4654W        W47592  23.859  15.192  27.718  0.5537 -0.1196 -0.4341
 4655W        W47593  21.530  12.330  30.037  0.0955 -0.0052 -0.0934
 4656W        W47594  24.087  14.766  30.211  0.1167  0.0519  0.0744
 4657W        W47595  24.833  15.906  29.794  0.1474  0.0069 -0.1673
 4658W        W47596  24.118  14.706  24.974  0.2226  0.0676  0.0817
 4659W        W47597  23.046  12.598  29.092 -0.0857 -0.0131 -0.0365
 4660W        W47598  22.998  13.196  30.138  0.4006  0.0679 -0.3147
 4661W        W47599  23.566  12.091  28.360  0.0361 -0.0029 -0.2628
 4662W        W47600  22.362  10.642  27.427  0.0400 -0.1331  0.2405
 4663W        W47601  24.308  14.065  29.415  0.5559  0.2103 -0.0624
 4664W        W47602  21.605  13.238  28.077  0.4226  0.0632  0.3752
 4665W        W47603  21.941  14.218  28.754 -0.1485 -0.1349 -0.1519
 4666W        W47604  22.141  13.148  28.021 -0.0709 -0.2696 -0.2197
 4667W        W47605  23.211  15.220  28.815 -0.0759 -0.1213  0.0710
 4668W        W47606  22.635  12.040  30.790 -0.1006 -0.0469 -0.1341
 4669W        W47607  23.563  12.318  31.260 -0.1020 -0.0045  0.3703
 4670W        W47608  22.517  14.965  27.260 -0.2814 -0.0690 -0.0647
 4671W        W47609  21.681  11.227  27.295 -0.2517  0.2228 -0.3988
 4672W        W47610  22.231  12.711  28.539 -0.1851  0.2827 -0.0057
 4673W        W47611  22.209  12.366  28.007  0.3831  0.1216  0.3157
 4674W        W47612  24.722  12.024  30.169  0.1537 -0.1092  0.0509
 4675W        W47613  25.674  13.120  28.981  0.2463  0.0259 -0.1365
 4676W        W47614  22.990  13.567  29.202 -0.1268 -0.1187 -0.0529
 4677W        W47615  23.184  13.955  28.868  0.1856 -0.2611 -0.1997
 4678W        W47616  23.550  11.446  31.189 -0.5356  0.0753  0.2587
 4679W        W47617  22.559  12.762  28.165 -0.3004 -0.0762  0.4061
 4680W        W47618  19.809  14.795  28.538 -0.0618 -0.0545  0.1115
 4681W        W47619  23.082  14.353  28.477 -0.3549 -0.0921 -0.4029
 4682W        W47620  26.013  14.801  28.411  0.2363 -0.0544  0.0440
 4683W        W47621  25.710  12.640  31.197  0.1478  0.1564  0.0452
 4684W        W47622  21.246  15.353  30.567 -0.0952  0.0285  0.2896
 4685W        W47623  21.518  13.906  26.594 -0.1809 -0.1092  0.1944
 4686W        W47624  24.425  14.592  31.261  0.1794 -0.0634 -0.1778
 4687W        W47625  22.969  15.057  30.555 -0.0829  0.0363  0.0567
 4688W        W47626  22.284  11.620  30.518 -0.5559 -0.1486  0.2332
 4689W        W47627  23.424  13.380  28.316 -0.2093  0.0399 -0.0837
 4690W        W47628  22.431  13.937  26.279 -0.3043  0.0921  0.0885
 4691W        W47629  23.095  14.431  27.970 -0.1059  0.1004 -0.1333
 4692W        W47630  22.850  13.314  30.912  0.1903  0.0845  0.0546
 4693W        W47631  22.040  13.672  28.147 -0.2131  0.1172  0.2737
 4694W        W47632  24.691  13.133   1.169 -0.0641  0.3651 -0.0462
 4695W        W47633  21.339  13.949  25.556 -0.0859 -0.2244 -0.1320
 4696W        W47634  24.478  13.319  28.179  0.0624  0.1455  0.0566
 4697W        W47635  23.891  13.835  27.472  0.2168  0.1784  0.0045
 4698W        W47636  24.821  12.195  26.988  0.0849  0.2555  0.1207
 4699W        W47637  23.473  10.590  30.546 -0.4334 -0.2728  0.1626
 4700W        W47638  21.943  15.591  29.034 -0.3746 -0.1193 -0.1995
 4701W        W47639  24.641  10.700  28.856 -0.0162  0.0492  0.2097
 4702W        W47640  24.315  13.110  29.667  0.4704 -0.3578 -0.0290
 4703W        W47641  23.123  12.217  27.435  0.1762 -0.0840  0.0895
 4704W        W47642  25.067  13.962  30.602  0.0863  0.0683 -0.1527
 4705W        W47643  20.052  14.957  29.219 -0.4801  0.3221 -0.2294
 4706W        W47644  21.780  14.254  28.244 -0.0206  0.4056  0.1332
 4707W        W47645  25.862  14.428  27.778  0.1489 -0.3362 -0.0973
 4708W        W47646  24.973  14.730  29.164 -0.2215  0.1107  0.1346
 4709W        W47647  23.529  15.044  27.309 -0.1208 -0.2213  0.0545
 4710W        W47648  21.396  12.532  28.344 -0.0854 -0.0305 -0.0274
 4711W        W47649  21.860  13.250  31.611  0.0467  0.0629  0.0322
 4712W        W47650  20.647  13.982  29.169  0.2141  0.3396  0.0210
 4713W        W47651  22.694  13.433  27.038  0.0241  0.1926 -0.3416
 4714W        W47652  25.635  13.173  31.273  0.0093  0.1926 -0.0632
 4715W        W47653  21.130  12.741  28.736 -0.3592  0.2689 -0.3036
 4716W        W47654  24.872  11.353  28.367  0.2099  0.0552 -0.0123
 4717W        W47655  22.617  13.557  28.282  0.2486 -0.1902 -0.2018
 4718W        W47656  24.068  14.457  28.738 -0.2902  0.0931 -0.0887
 4719W        W47657  23.367  14.127  25.885 -0.3055 -0.0389  0.0518
 4720W        W47658  23.344  11.089  30.273  0.0664 -0.2117 -0.2705
 4721W        W47659  23.723  12.999  30.635  0.1699  0.2172 -0.2518
 4722W        W47660  21.972  13.840  26.657  0.0662  0.0139  0.1626
 4723W        W47661  22.041  11.830  28.114 -0.1528  0.0115  0.1873
 4724W        W47662  25.807  13.691  31.121 -0.0476  0.0774 -0.0141
 4725W        W47663  24.109  12.073  28.242 -0.0816  0.0064  0.3168
 4726W        W47664  20.994  14.175  29.866 -0.0065 -0.2173 -0.1948
 4727W        W47665  24.503  12.244  30.866  0.0034 -0.2213  0.0886
 4728W        W47666  23.786  13.485  30.362  0.1327  0.2861 -0.2577
 4729W        W47667  21.754  15.815  26.239  0.1900  0.0236 -0.0282
 4730W        W47668  21.725  12.723  28.794 -0.2896  0.1449  0.1852
 4731W        W47669  20.919  12.392  28.358 -0.1365 -0.5396 -0.0290
 4732W        W47670  20.035  12.660  30.373 -0.2502 -0.0661 -0.1494
 4733W        W47671  23.795  13.233  29.536  0.0625 -0.2212  0.1708
 4734W        W47672  25.355  12.259  28.450  0.1069 -0.0147  0.1098
 4735W        W47673  21.650  12.256  29.196  0.2391  0.3973  0.0836
 4736W        W47674  26.274  12.109  29.396 -0.1370  0.0874  0.2899
 4737W        W47675  21.406  13.638  28.843 -0.1908 -0.1454  0.1326
 4738W        W47676  24.488  16.124  29.145  0.2312  0.1606 -0.2188
 4739W        W47677  24.229  13.405  28.856  0.1989  0.3072 -0.1762
 4740W        W47678  24.054  14.385  26.889  0.0329  0.2720  0.0164
 4741W        W47679  21.465  13.108  28.532 -0.3198  0.0806 -0.1506
 4742W        W47680  22.841  12.852  27.348  0.0247  0.2929 -0.2185
 4743W        W47681  21.125  12.130  31.017  0.3511  0.1774  0.0541
 4744W        W47682  22.449  12.651  29.020  0.1680 -0.0380 -0.0885
 4745W        W47683  25.125  12.498  29.587  0.2723  0.1589  0.2211
 4746W        W47684  23.696  10.572  26.530  0.0577  0.2367  0.0048
 4747W        W47685  24.901  12.877  29.235 -0.0633  0.1931 -0.0712
 4748W        W47686  21.953  13.023  29.448  0.1544  0.1919  0.2512
 4749W        W47687  20.909  13.710  27.419 -0.2189  0.1311  0.0400
 4750W        W47688  24.344  12.722  30.987  0.0377 -0.2681  0.0674
 4751W        W47689  24.592  14.539  27.564 -0.0329  0.2366  0.2515
 4752W        W47690  26.444  14.186  31.630 -0.4317 -0.0775  0.2451
 4753W        W47691  25.426  15.256  28.875 -0.1732 -0.2048 -0.1972
 4754W        W47692  21.151  12.599  29.890 -0.0190 -0.1752  0.2205
 4755W        W47693  22.576  12.132  27.584 -0.3418  0.2506 -0.1493
 4756W        W47694  22.158  15.299  28.386 -0.3101 -0.2143 -0.0780
 4757W        W47695  23.328  13.263  27.529 -0.1241  0.1443  0.2716
 4758W        W47696  22.440  13.192  27.451  0.2385 -0.1282 -0.0283
 4759W        W47697  26.445  13.132  30.790 -0.3198 -0.5541 -0.0997
 4760W        W47698  22.424  12.257  28.535  0.1013  0.3030 -0.0868
 4761W        W47699  23.481  13.136  30.196 -0.0855 -0.1297  0.0119
 4762W        W47700  23.819  12.067  30.349 -0.2618  0.0202 -0.0034
 4763W        W47701  24.495  12.147  29.587  0.2281  0.1428 -0.4228
 4764W        W47702  23.990  13.402  28.288 -0.1888  0.2119  0.2554
 4765W        W47703  23.512  13.497  26.669 -0.1526 -0.1417  0.0118
 4766W        W47704  25.466  15.493  29.707 -0.0224  0.1745 -0.2422
 4767W        W47705  21.138  15.032  27.814 -0.1635  0.2527  0.0093
 4768W        W47706  20.947  12.727  27.533  0.2184  0.1766 -0.1257
 4769W        W47707  22.903  13.155  28.388  0.0907 -0.0776 -0.2039
 4770W        W47708  25.126  12.000  29.785 -0.1468  0.1579 -0.1386
 4771W        W47709  23.318  13.632  29.600 -0.0488  0.1574 -0.3127
 4772W        W47710  24.193  12.520  29.903 -0.1582 -0.2239 -0.0300
 4773W        W47711  21.919  12.730  27.755  0.0871 -0.0912 -0.0335
 4774W        W47712  19.857  13.924  29.316 -0.1669 -0.1296 -0.0344
 4775W        W47713  25.918  11.489  28.153  0.0154 -0.1582 -0.1695
 4776W        W47714  26.376  13.746  28.140 -0.0615  0.1245  0.3258
 4777W        W47715  24.711  13.197  31.090 -0.1662  0.0732  0.1767
 4778W        W47716  24.951  13.639  27.972 -0.2303 -0.1216 -0.3686
 4779W        W47717  24.069  12.869  26.571 -0.2795 -0.0296 -0.1995
 4780W        W47718  23.882  11.271  28.470  0.1906  0.1089  0.2025
 4781W        W47719  22.518  13.720  31.133  0.4260  0.0846 -0.1283
 4782W        W47720  21.720  14.356  27.446 -0.0060 -0.1089  0.1803
 4783W        W47721  24.133  13.707  27.944 -0.0756 -0.0145  0.1095
 4784W        W47722  24.139  12.462  27.129  0.0243 -0.1172  0.2079
 4785W        W47723  26.541  13.174  29.936  0.1991  0.1010  0.0859
 4786W        W47724  21.720  14.504  30.250  0.1431 -0.0094 -0.0381
 4787W        W47725  25.506  14.134  31.085  0.2041  0.3094  0.1310
 4788W        W47726  23.420  14.663  28.232 -0.3894 -0.0084  0.2678
 4789W        W47727  23.788  12.502  28.147 -0.3551 -0.0049  0.0962
 4790W        W47728  23.715  13.948  26.988  0.2349  0.2618  0.0488
 4791W        W47729  23.951  12.686  27.708 -0.0614  0.0796  0.2065
 4792W        W47730  21.622  14.102  26.075  0.0368  0.2994 -0.1487
 4793W        W47731  25.913  11.722  30.712  0.1362  0.0978  0.2829
 4794W        W47732  23.500  11.974  29.512  0.2094  0.2365  0.0149
 4795W        W47733  23.104  13.711  31.022 -0.0523  0.1793 -0.0222
 4796W        W47734  26.533  12.659  30.127 -0.2225 -0.5138 -0.2778
 4797W        W47735  24.279  12.956  28.620  0.4541 -0.2268 -0.4416
 4798W        W47736  24.169  13.906  28.820  0.0265  0.2041  0.2600
 4799W        W47737  22.459  13.222  28.625 -0.0811 -0.1492  0.1740
 4800W        W47738  23.686  12.761  29.783 -0.1728  0.0077 -0.1487
 4801W        W47739  22.181  12.724  29.804 -0.1209 -0.3091 -0.0642
 4802W        W47740  21.420  14.532  29.201 -0.1286  0.0979 -0.1111
 4803W        W47741  24.837  13.859  30.172 -0.0154 -0.0031 -0.0189
 4804W        W47742  23.659  14.272  27.395 -0.2551  0.1340 -0.2424
 4805W        W47743  24.381  10.942   1.983  0.0356 -0.1117 -0.2308
 4806W        W47744  24.683  12.889  28.162 -0.0714  0.3022 -0.1555
 4807W        W47745  23.446  15.061  26.771  0.1597  0.0656 -0.2185
 4808W        W47746  22.269  13.916  27.308  0.0162 -0.0927  0.1367
 4809W        W47747  24.017  11.416  28.970 -0.2882  0.0423 -0.1495
 4810W        W47748  23.138  13.801  28.374  0.0468 -0.0807  0.0588
 4811W        W47749  22.547  14.498  26.266  0.2812  0.1864 -0.0024
 4812W        W47750  23.655  13.769  28.669  0.2645  0.1822 -0.0475
 4813W        W47751  21.834  14.614  27.000 -0.0359 -0.3261 -0.0631
 4814W        W47752  25.650  11.857  28.451 -0.2934  0.2360 -0.1573
 4815W        W47753  22.049  14.134  30.092  0.0231 -0.1538 -0.1319
 4816W        W47754  23.065  13.718  26.880 -0.1427  0.4427  0.2773
 4817W        W47755  21.779  10.671  28.700  0.2014  0.0230 -0.0372
 4818W        W47756  25.389  11.034  29.660 -0.0376  0.1072  0.3290
 4819W        W47757  24.599  14.252  26.954 -0.2844 -0.0535  0.0255
 4820W        W47758  23.403  12.541  27.713  0.0925 -0.0336  0.2665
 4821W        W47759  24.142  10.337  29.683  0.0062 -0.1881 -0.2125
 4822W        W47760  20.217  14.693  27.883  0.1785  0.2008  0.0828
 4823W        W47761  24.226  13.844  30.540  0.0178 -0.2131 -0.1932
 4824W        W47762  24.793  11.747  27.393  0.1493 -0.0871 -0.2964
 4825W        W47763  25.280  14.840  30.418  0.0044  0.1986  0.0985
 4826W        W47764  21.087  12.830  31.391  0.0216  0.1883  0.1009
 4827W        W47765  21.709  11.433  27.919  0.1750 -0.1509  0.2399
 4828W        W47766  26.073  12.444  30.395  0.1015 -0.0972 -0.0797
 4829W        W47767  22.456  11.383  28.777 -0.0207 -0.0959 -0.0286
 4830W        W47768  20.185  14.958  28.286 -0.0131  0.0334 -0.0452
 4831W        W47769  23.766  14.608  29.166  0.3940 -0.0987  0.3175
 4832W        W47770  22.436  13.655  27.807 -0.2197 -0.2102  0.2949
 4833W        W47771  22.593  14.221  28.585  0.5361 -0.2882 -0.0694
 4834W        W47772  22.630  12.491  31.114  0.1597  0.0888  0.1018
 4835W        W47773  25.764  13.319  30.801 -0.1565 -0.0130  0.3079
 4836W        W47774  23.650  11.234  29.354  0.3661  0.0549  0.1990
 4837W        W47775  21.913  12.283  28.416  0.0717  0.1565 -0.0381
 4838W        W47776  22.891  11.737  27.775  0.3809 -0.1454 -0.1401
 4839W        W47777  25.549  13.130  30.348 -0.0365 -0.0512  0.1017
 4840W        W47778  24.624  14.182  29.836 -0.0849 -0.0245  0.2120
 4841W        W47779  21.273  14.585  30.987 -0.3313 -0.0178  0.0599
 4842W        W47780  23.680  11.761  29.080  0.0564  0.1126 -0.1671
 4843W        W47781  24.353  14.878  28.307  0.1145 -0.1404 -0.0196
 4844W        W47782  24.215  13.920  30.008 -0.5313  0.1673 -0.0050
 4845W        W47783  22.308  14.032  29.079  0.0579 -0.3014 -0.0976
 4846W        W47784  20.341  12.525  29.392 -0.0836  0.0457  0.0790
 4847W        W47785  23.744  13.415  27.087 -0.0235  0.0884 -0.1614
 4848W        W47786  24.183  10.688  29.344 -0.0433  0.0780 -0.2838
 4849W        W47787  21.142  13.933  30.349 -0.2558 -0.0926  0.4437
 4850W        W47788  20.544  13.033  27.445  0.0434  0.3169  0.4071
 4851W        W47789  22.803  13.385  29.584  0.0946 -0.0458 -0.0197
 4852W        W47790  24.679  12.786  26.172 -0.1242 -0.0932 -0.0521
 4853W        W47791  24.180  14.124  26.333  0.1631  0.1075  0.2752
 4854W        W47792  24.697  12.175  28.746  0.2195  0.0174  0.2105
 4855W        W47793  25.620  11.070  30.706  0.1940  0.0016 -0.0602
 4856W        W47794  22.234  14.112  28.226  0.1750 -0.2232  0.1589
 4857W        W47795  25.776  12.383  31.625 -0.0021 -0.1477  0.0112
 4858W        W47796  22.963  12.752  29.833 -0.1239  0.0161 -0.3376
 4859W        W47797  25.886  14.485  28.837 -0.1507 -0.0213 -0.1414
 4860W        W47798  21.549  12.849  30.058 -0.2326 -0.1003  0.2167
 4861W        W47799  22.131  13.690  31.683 -0.0750  0.1155  0.1066
 4862W        W47800  23.339  12.968  28.719  0.1902 -0.0479 -0.1706
 4863W        W47801  24.593  12.310  27.514  0.0922 -0.0319 -0.0170
 4864W        W47802  23.720  12.598  26.863  0.2741  0.1051  0.2390
 4865W        W47803  22.749  12.689  28.650  0.0433 -0.2403 -0.1926
 4866W        W47804  23.911  14.445  28.245 -0.1323  0.1268  0.1079
 4867W        W47805  24.334  15.004  27.553  0.1147 -0.0653 -0.0551
 4868W        W47806  26.769  12.591  28.204  0.3233 -0.1118 -0.1336
 4869W        W47807  20.591  13.920  28.607 -0.1824  0.0055 -0.1745
 4870W        W47808  24.330  11.957  29.017 -0.1657  0.0376 -0.1220
 4871W        W47809  22.642  14.293  27.115  0.0292 -0.0062  0.0621
 4872W        W47810  22.669  13.170  27.919  0.0545 -0.1459  0.1166
 4873W        W47811  23.017  11.365  30.622 -0.2606  0.0034 -0.0637
 4874W        W47812  24.634  13.872  28.994  0.2002 -0.0619 -0.0351
 4875W        W47813  25.219  11.995  28.884 -0.1179  0.2727 -0.1582
 4876W        W47814  23.902  14.031  29.608  0.2171 -0.2975 -0.1726
 4877W        W47815  24.594  10.666  30.219 -0.0393 -0.1087  0.0027
 4878W        W47816  23.638  13.299  31.396 -0.3221  0.3342 -0.4884
 4879W        W47817  23.065  13.276  31.357 -0.2883  0.0365 -0.0034
 4880W        W47818  24.859  14.790  30.076  0.1152 -0.0765  0.1880
 4881W        W47819  25.895  13.214  27.527  0.1364 -0.0252 -0.0965
 4882W        W47820  25.007  11.128  31.044 -0.4997 -0.2760 -0.3016
 4883W        W47821  22.295  13.417  29.647 -0.3481  0.3206 -0.0760
 4884W        W47822  24.118  13.427  26.733  0.3042 -0.1255  0.0168
 4885W        W47823  22.136  12.982  28.949  0.0243 -0.1609 -0.1344
 4886W        W47824  25.067  12.824  30.341 -0.1815 -0.0399 -0.1269
 4887W        W47825  22.955  14.688  27.076 -0.0814 -0.0435  0.1631
 4888W        W47826  24.504  12.645  29.469  0.1976 -0.0483 -0.0632
 4889W        W47827  22.986  15.267  26.408  0.0583  0.0939 -0.0149
 4890W        W47828  24.174  14.564  27.323  0.2295  0.1649 -0.2605
 4891W        W47829  25.426  11.483  28.236  0.0220 -0.0495  0.0923
 4892W        W47830  20.928  13.185  28.576  0.2216 -0.0385 -0.0968
 4893W        W47831  21.025  14.799  29.270  0.2268 -0.1024 -0.0435
 4894W        W47832  21.937  13.097  26.796  0.0185 -0.0429  0.0952
 4895W        W47833  23.964  13.246  27.526  0.1670  0.1376  0.5215
 4896W        W47834  23.064  13.547  27.948  0.0663 -0.2415 -0.0671
 4897W        W47835  26.307  13.900   0.652 -0.0497  0.1495 -0.3773
 4898W        W47836  23.976  11.761  28.592  0.3142 -0.1733  0.0450
 4899W        W47837  24.746  12.464  30.509 -0.0200  0.3139 -0.5237
 4900W        W47838  23.145  15.621  27.996 -0.0741  0.1131  0.0441
 4901W        W47839  22.984  11.783  28.302 -0.0880  0.2050  0.0175
 4902W        W47840  23.015  14.538  29.877 -0.0949  0.3188 -0.0522
 4903W        W47841  22.500  12.820  30.790  0.3281 -0.1793  0.3155
 4904W        W47842  22.032  15.331  27.847 -0.0817  0.0357  0.1614
 4905W        W47843  23.531  11.336  28.880  0.0903  0.0180  0.1633
 4906W        W47844  25.265  11.767  30.261  0.1676  0.1632  0.2004
 4907W        W47845  24.716  12.564  29.922 -0.1075  0.0087  0.0660
 4908W        W47846  25.748  14.259  30.035 -0.1309  0.2643  0.0064
 4909W        W47847  22.466  14.567  28.131 -0.1878  0.0191 -0.2168
 4910W        W47848  21.635  14.786  27.964  0.2439 -0.1663  0.1396
 4911W        W47849  25.311  14.014  30.066  0.1098  0.2269  0.1885
 4912W        W47850  24.510  13.917  28.142 -0.0195  0.3117 -0.1241
 4913W        W47851  23.031  14.836  28.473  0.0945  0.0183 -0.1145
 4914W        W47852  20.812  12.252  29.955  0.1742  0.3301  0.0055
 4915W        W47853  25.239  13.603  30.304  0.0082  0.2218 -0.1125
 4916W        W47854  24.354  12.990  29.188 -0.1238  0.1480  0.0515
 4917W        W47855  24.086  11.285  27.702 -0.3302  0.2112 -0.4355
 4918W        W47856  22.745  13.707  28.763  0.3202 -0.0682  0.3704
 4919W        W47857  22.175  13.581  30.137 -0.0892 -0.0686  0.2492
 4920W        W47858  23.979  12.161  29.379  0.1076 -0.1766 -0.0017
 4921W        W47859  23.805  15.432  26.750  0.1035  0.0755 -0.1787
 4922W        W47860  24.604  15.211  27.191  0.1158  0.3294 -0.4335
 4923W        W47861  23.124  12.940  27.874  0.2084 -0.1369 -0.0937
 4924W        W47862  24.299  14.554  29.208  0.0179  0.1142 -0.0839
 4925W        W47863  23.034  12.848  26.220  0.0155 -0.0709 -0.2589
 4926W        W47864  22.818  14.508  28.874  0.1852  0.1306 -0.2231
 4927W        W47865  21.654  14.083  25.180 -0.1751  0.0630 -0.2742
 4928W        W47866  24.625  12.644  28.886 -0.2404 -0.2175  0.4512
 4929W        W47867  22.395  14.937  27.788 -0.5610  0.1201 -0.0814
 4930W        W47868  25.348  13.621  31.060  0.2446  0.0117 -0.2790
 4931W        W47869  24.915  11.706  26.916 -0.0772  0.1170  0.0109
 4932W        W47870  24.917  14.637  28.425 -0.1272  0.1486 -0.0461
 4933W        W47871  24.832  11.666  27.951 -0.1945  0.1253  0.1424
 4934W        W47872  23.806  14.136  29.107  0.0341 -0.0375  0.1300
 4935W        W47873  23.485  12.961  29.214  0.1646  0.2643  0.1276
 4936W        W47874  22.658  12.527  26.203 -0.3203  0.0244  0.0950
 4937W        W47875  23.680  13.944  30.601  0.1993 -0.0376  0.2917
 4938W        W47876  25.977  10.873   1.004 -0.1209  0.2536 -0.0729
 4939W        W47877  21.091  15.150  28.470 -0.0403 -0.5523 -0.2072
 4940W        W47878  24.433  17.011  27.101 -0.3643  0.1308  0.1167
 4941W        W47879  23.767  11.972  27.051  0.1170  0.1234 -0.4145
 4942W        W47880  23.478  12.506  28.578  0.1223 -0.2308  0.0716
 4943W        W47881  24.827  11.494  30.792 -0.1176 -0.2228  0.0040
 4944W        W47882  22.907  14.279  26.578 -0.0221  0.2658 -0.0146
 4945W        W47883  24.416  13.005  27.678  0.2003 -0.0298  0.0388
 4946W        W47884  22.432  14.152  27.734 -0.1029 -0.2748  0.2441
 4947W        W47885  22.766  13.088  29.036  0.1813  0.0934  0.1420
 4948W        W47886  22.964  14.105  29.621  0.0810 -0.2834 -0.4628
 4949W        W47887  22.875  12.534  27.763 -0.0908  0.0391 -0.2675
 4950W        W47888  24.811  11.786  29.248  0.1844  0.2166 -0.1572
 4951W        W47889  22.986  12.389  30.559  0.6315 -0.4763  0.2489
 4952W        W47890  24.713  12.312  31.758 -0.1810  0.0375  0.0951
 4953W        W47891  22.678  11.205  27.784 -0.0310  0.0616  0.1167
 4954W        W47892  24.421  14.406  28.170 -0.2131  0.0453 -0.0456
 4955W        W47893  24.228  11.958  29.989 -0.0517 -0.3443  0.0626
 4956W        W47894  21.561  14.048  29.129 -0.0621 -0.0153 -0.1787
 4957W        W47895  23.624  12.953  27.280  0.2507 -0.0907 -0.0738
 4958W        W47896  25.012  13.372  29.286 -0.1246  0.0430 -0.1693
 4959W        W47897  24.236  13.558  27.251 -0.0555 -0.0460 -0.1676
 4960W        W47898  24.121  14.417  29.790  0.2585 -0.0536  0.0001
 4961W        W47899  22.310  11.884  29.064  0.3549 -0.2801 -0.4275
 4962W        W47900  25.235  11.635  27.673 -0.2290  0.2049  0.1250
 4963W        W47901  21.561  15.035  28.551 -0.2136  0.1053 -0.2653
 4964W        W47902  24.212  12.438  29.059 -0.0254 -0.0751  0.1354
 4965W        W47903  24.586  13.002  30.601  0.3743 -0.2539  0.1994
 4966W        W47904  23.250  12.669  27.188  0.1413  0.1718 -0.2156
 4967W        W47905  25.929  13.949  27.991  0.1519 -0.1620  0.1212
 4968W        W47906  24.050  13.963  28.358 -0.0685 -0.1896  0.1354
 4969W        W47907  23.708  15.628  27.339 -0.1633 -0.1208 -0.0304
 4970W        W47908  23.617  13.696  27.916  0.3329 -0.1814 -0.2174
 4971W        W47909  23.290  14.284  29.150 -0.2289  0.1242 -0.1733
 4972W        W47910  21.111  13.591  28.375  0.4517  0.0356 -0.3002
 4973W        W47911  25.115  13.207  30.742  0.1514  0.1066 -0.4356
 4974W        W47912  25.567  13.980  29.589 -0.0557 -0.2094 -0.1485
 4975W        W47913  24.111  10.835  28.881  0.1335 -0.2431  0.3390
 4976W        W47914  23.603  13.076  27.880 -0.1771 -0.2220 -0.0265
 4977W        W47915  22.040  14.499  27.813  0.0292 -0.1648  0.0872
 4978W        W47916  23.764  12.277  29.832 -0.1693 -0.3537 -0.0326
 4979W        W47917  25.915  11.714  31.224  0.1431  0.0845  0.3255
 4980W        W47918  24.707  16.386  27.847 -0.0230 -0.3673  0.1663
 4981W        W47919  25.189  12.248  30.254  0.0607  0.1172 -0.0479
 4982W        W47920  24.704  13.583  30.618 -0.1080 -0.0215 -0.1597
 4983W        W47921  20.745  15.524  30.435  0.3123 -0.1380  0.4053
 4984W        W47922  21.946  13.306  28.547 -0.1986 -0.1278 -0.0013
 4985W        W47923  23.673  13.971  30.077  0.1486  0.0131 -0.0067
 4986W        W47924  23.171  13.452  28.789 -0.0021 -0.0224  0.1812
 4987W        W47925  22.287  13.759  28.650 -0.1122  0.0501 -0.3017
 4988W        W47926  23.276  14.727  28.931  0.0503 -0.0498 -0.0207
 4989W        W47927  23.756  13.273  28.690 -0.1035 -0.0644 -0.1594
 4990W        W47928  25.841  15.223  29.389  0.1697  0.0009 -0.1907
 4991W        W47929  23.173  12.187  28.008  0.2456  0.2141  0.0266
 4992W        W47930  24.963  12.104  27.757 -0.1641  0.0404  0.0020
 4993W        W47931  26.496  11.625  26.738 -0.2626  0.1242 -0.0262
 4994W        W47932  23.863  11.616  29.581  0.2978 -0.2411  0.0680
 4995W        W47933  21.675  12.210  25.829  0.1317  0.1807  0.2509
 4996W        W47934  20.795  13.568  26.888 -0.2464 -0.0297 -0.3824
 4997W        W47935  23.692  12.982  28.337  0.0775 -0.0932 -0.1730
 4998W        W47936  22.106  11.751  30.990  0.0435 -0.0337 -0.1245
 4999W        W47937  23.665  12.307  29.019 -0.1797 -0.0482  0.3024
 5000W        W47938  21.251  12.242  28.762  0.0331 -0.0447  0.1318
 5001W        W47939  23.319  10.834  28.868 -0.3358 -0.0684 -0.4208
 5002W        W47940  24.716  15.980  28.190 -0.1033 -0.0728 -0.1124
 5003W        W47941  23.029  12.291  28.690 -0.1131 -0.0887  0.0318
 5004W        W47942  22.152  11.293  29.171 -0.6545 -0.1506  0.3287
 5005W        W47943  23.462  14.116  28.186  0.1187 -0.1339  0.0386
 5006W        W47944  24.563  14.283  28.653  0.0092  0.4982 -0.0440
 5007W        W47945  23.112  12.653  28.240 -0.2123 -0.0687 -0.1953
 5008W        W47946  26.663  14.778   0.372  0.2680 -0.0833 -0.1688
 5009W        W47947  21.749  14.336  26.538  0.1057  0.2429 -0.1813
 5010W        W47948  22.876  12.439  31.556  0.1792  0.2386 -0.2351
 5011W        W47949  24.243  12.431  31.438  0.0237  0.1869 -0.1668
 5012W        W47950  22.075  12.996  27.250 -0.2242  0.1686 -0.1820
 5013W        W47951  24.422  12.469  28.425 -0.1093  0.1442  0.0991
 5014W        W47952  24.140  14.621  27.827 -0.1891  0.3781 -0.1170
 5015W        W47953  23.397  15.090  27.880 -0.0404  0.0718  0.0510
 5016W        W47954  23.403  12.445  29.458 -0.1500  0.0762 -0.1940
 5017W        W47955  22.586  15.020  29.606  0.1051 -0.1681  0.0331
 5018W        W47956  22.437  11.162  30.493  0.1221 -0.1068  0.1122
 5019W        W47957  24.703  13.982  27.674  0.0254 -0.3951  0.0958
 5020W        W47958  22.711  13.719  30.573  0.0545  0.0833 -0.0720
 5021W        W47959  26.212  15.116  27.981  0.0140  0.2237 -0.0045
 5022W        W47960  25.406  12.120  29.345  0.0724 -0.1745  0.0795
 5023W        W47961  23.991  12.406  28.629 -0.3142 -0.1097 -0.0059
 5024W        W47962  22.775  10.337  29.925  0.3700 -0.1251 -0.0253
 5025W        W47963  22.511  13.102  29.945  0.3169 -0.2497 -0.1060
 5026W        W47964  24.441  14.783  28.817 -0.0153 -0.2075 -0.1160
 5027W        W47965  22.066  12.332  28.903 -0.4784  0.0529 -0.1254
 5028W        W47966  25.842  12.223  28.993  0.0963  0.2104  0.3458
 5029W        W47967  23.649  15.603  27.935  0.2166  0.0441 -0.2024
 5030W        W47968  21.496  12.773  29.227  0.0088 -0.0995 -0.2279
 5031W        W47969  24.904  11.654  28.735 -0.1109 -0.1695 -0.1179
 5032W        W47970  23.853  12.808  28.898  0.0946  0.1919 -0.1452
 5033W        W47971  24.119  12.887  28.114  0.2996 -0.3022 -0.1807
 5034W        W47972  26.214  13.403   0.451  0.0651 -0.1105  0.2367
 5035W        W47973  22.436  11.645  28.360 -0.0425 -0.1925  0.1141
 5036W        W47974  25.013  12.636  28.561  0.0891  0.4178  0.1174
 5037W        W47975  23.184  14.148  30.590 -0.2533 -0.1370 -0.0117
 5038W        W47976  26.398  15.425  31.524  0.0023 -0.0055 -0.1227
 5039W        W47977  23.961  13.547  29.857 -0.1273 -0.2853  0.2167
 5040W        W47978  24.276  14.517  30.764  0.1358  0.0960 -0.2266
 5041W        W47979  21.617  11.897  27.220  0.0327 -0.1910  0.2117
 5042W        W47980  21.512  14.395  28.689  0.2819 -0.2861 -0.0480
 5043W        W47981  22.861  13.390  27.488  0.2065  0.1476  0.3175
 5044W        W47982  24.166  11.731  30.449 -0.2486  0.0609 -0.3439
 5045W        W47983  22.607  12.433  29.503 -0.2428 -0.0511 -0.2119
 5046W        W47984  23.721  12.171  27.833  0.1757 -0.2184  0.0068
 5047W        W47985  22.303  14.589  28.812  0.0054 -0.0497  0.0063
 5048W        W47986  24.341  11.667  29.447 -0.1329 -0.1541  0.2446
 5049W        W47987  25.955  14.063  30.859 -0.2275 -0.1002  0.0987
 5050W        W47988  25.489  12.914  30.802 -0.0844 -0.0638  0.2528
 5051W        W47989  21.799  13.482  31.179  0.4807 -0.0707  0.1093
 5052W        W47990  21.374  12.759  30.901  0.0187  0.1066 -0.0874
 5053W        W47991  22.471  14.997  30.514  0.2122 -0.0472  0.1955
 5054W        W47992  21.821  13.418  30.653  0.2592 -0.1942 -0.0553
 5055W        W47993  25.235  13.177   0.151 -0.2393 -0.0198 -0.2634
 5056W        W47994  22.966  12.936  30.564  0.1523  0.1925  0.2017
 5057W        W47995  23.875  11.324   0.120 -0.0163 -0.1167  0.0232
 5058W        W47996  24.847  13.682  31.040  0.3036 -0.1223 -0.0745
 5059W        W47997  24.466  14.411  30.253 -0.1922  0.0741  0.1797
 5060W        W47998  22.115  12.159  31.448  0.0067 -0.1236  0.2870
 5061W        W47999  24.882  15.260   0.015  0.2283  0.0782  0.0363
 5062W        W48000  22.527  13.230  30.448 -0.1489  0.0494 -0.1035
 5063W        W48001  24.445  13.029   0.589  0.1354 -0.1890  0.1657
 5064W        W48002  20.254  14.658  28.666  0.0525 -0.1057  0.0532
 5065W        W48003  22.255  13.288  30.866 -0.4057  0.0930 -0.0210
 5066W        W48004  24.160  12.752  30.543 -0.1471  0.4158  0.2269
 5067W        W48005  20.866  11.738   0.246  0.4074 -0.0252  0.1339
 5068W        W48006  21.522  11.458  31.016  0.2943 -0.0262 -0.1982
 5069W        W48007  21.759  11.640  31.905  0.0971  0.1463  0.0017
 5070W        W48008  22.350  14.417  31.410 -0.1651 -0.0547 -0.0839
 5071W        W48009  24.734  11.941   0.291  0.1888 -0.1133  0.3596
 5072W        W48010  23.246  13.498  30.487  0.0708  0.0602 -0.0250
 5073W        W48011  23.856  11.884  31.151  0.1482 -0.2726 -0.3428
 5074W        W48012  21.353  11.461  31.552 -0.3231 -0.0674 -0.0664
 5075W        W48013  24.145  13.339  30.685  0.2335  0.0908 -0.0839
 5076W        W48014  22.348  13.967  30.404 -0.0097 -0.2238 -0.0271
 5077W        W48015  21.361  13.027  29.636  0.2207 -0.1384 -0.0359
 5078W        W48016  23.694  12.984  31.961 -0.0120  0.4627  0.2683
 5079W        W48017  22.588  14.107  30.844 -0.2336  0.1274 -0.0945
 5080W        W48018  22.792  11.299  31.356  0.3041  0.1837 -0.2180
 5081W        W48019  24.915  12.754  30.877  0.0159  0.1254 -0.3656
 5082W        W48020  24.003  10.156  31.209  0.0453  0.2661  0.3570
 5083W        W48021  21.281  11.753   0.670  0.1615 -0.1201 -0.1109
 5084W        W48022  22.645  14.011  31.561  0.0075  0.0174  0.0893
 5085W        W48023  22.065  13.903  30.889 -0.0082 -0.0156 -0.0716
 5086W        W48024  24.615  14.058  30.708  0.0174 -0.0627  0.1607
 5087W        W48025  24.055  13.797  31.385 -0.0783  0.0756  0.0637
 5088W        W48026  23.898  12.708  31.602  0.0163  0.0985  0.2247
 5089W        W48027  25.890  13.564  30.360 -0.1353  0.0115 -0.0644
 5090W        W48028  25.165  11.074   0.292  0.0374  0.3067  0.2305
 5091W        W48029  21.906  11.072   0.226  0.1436  0.3341  0.2335
 5092W        W48030  23.619  14.628  30.156 -0.2258 -0.1533  0.2489
 5093W        W48031  20.095  11.729   0.744 -0.2767 -0.1770 -0.0583
 5094W        W48032  23.960  14.413  31.340  0.0321  0.1292  0.1077
 5095W        W48033  23.480  10.943  31.394 -0.1245  0.1150  0.2340
 5096W        W48034  23.711  13.511   0.080 -0.0884  0.1218  0.3448
 5097W        W48035  24.952  12.561   0.255  0.0275 -0.0027 -0.2144
 5098W        W48036  22.026  12.691  30.659 -0.0076  0.1782  0.2862
 5099W        W48037  24.500  14.060  31.229  0.1088 -0.0008 -0.0581
 5100W        W48038  24.691  11.935  31.309  0.0580  0.0762 -0.3651
 5101W        W48039  22.791  10.751   0.325  0.0697 -0.2475  0.1145
 5102W        W48040  23.785  13.605  30.936 -0.3677  0.2510 -0.1006
 5103W        W48041  22.694  11.568  30.910 -0.2120 -0.1344 -0.0125
 5104W        W48042  23.011  12.136  31.180 -0.1990 -0.2255 -0.1758
 5105W        W48043  27.018  13.481   1.062 -0.3046  0.0097  0.0912
 5106W        W48044  20.899  14.904  30.522 -0.3065  0.0011  0.3842
 5107W        W48045  22.786  14.590  30.455  0.5422 -0.0728 -0.0752
 5108W        W48046  22.649  12.944  31.281 -0.1817  0.1170  0.0717
 5109W        W48047  21.786  11.829  30.067  0.2481  0.1704 -0.0051
 5110W        W48048  23.277  12.631  30.173 -0.2871  0.0364  0.1011
 5111W        W48049  21.793  12.488   0.250  0.0236  0.2628  0.1497
 5112W        W48050  20.931  10.395  31.720  0.1761 -0.1052 -0.0809
 5113W        W48051  23.381  12.802  31.388  0.0837  0.2598  0.1966
 5114W        W48052  25.577  14.464   0.213 -0.0988 -0.0570  0.3110
 5115W        W48053  28.710  12.591   0.170 -0.0422 -0.0793  0.0579
 5116W        W48054  24.842  17.396  19.403  0.4420  0.1407 -0.0217
 5117W        W48055  22.898  14.530  15.846  0.0763  0.0068  0.2267
 5118W        W48056  24.364  15.514  16.038 -0.0419  0.2729  0.0856
 5119W        W48057  23.594  16.065  17.012 -0.0046 -0.3283  0.1364
 5120W        W48058  23.898  13.534  17.150 -0.1144  0.2030  0.1434
 5121W        W48059  24.240  17.452  17.188 -0.1097  0.5077  0.1544
 5122W        W48060  24.657  13.458  18.763 -0.1111 -0.3632  0.1934
 5123W        W48061  25.182  17.196  18.222 -0.2063 -0.3826  0.1729
 5124W        W48062  25.127  17.262  16.957  0.0038  0.1986  0.1554
 5125W        W48063  24.297  16.832  16.587  0.2170  0.4011  0.2450
 5126W        W48064  24.980  15.184  20.023  0.2238 -0.0805  0.0094
 5127W        W48065  23.938  15.639  18.776 -0.1217 -0.1869 -0.1639
 5128W        W48066  23.962  14.580  16.286 -0.0684  0.0537 -0.1356
 5129W        W48067  22.223  14.708  17.659  0.0699  0.2186 -0.0901
 5130W        W48068  26.851  15.547  16.987  0.0210  0.1499  0.2570
 5131W        W48069  22.806  15.334  16.333 -0.0644  0.2084 -0.0724
 5132W        W48070  23.676  14.755  18.824 -0.2364 -0.2253 -0.2390
 5133W        W48071  23.995  15.428  17.311  0.0755 -0.2065  0.1242
 5134W        W48072  23.878  18.426  18.133 -0.0985 -0.0378 -0.3133
 5135W        W48073  23.884  15.904  19.633 -0.0358  0.0296 -0.5009
 5136W        W48074  24.707  12.798  19.985 -0.0507  0.0561 -0.2912
 5137W        W48075  23.729  15.838  16.070  0.2258 -0.1094 -0.1761
 5138W        W48076  23.200  15.603  14.770 -0.2913  0.1619  0.1436
 5139W        W48077  22.312  15.248  17.547 -0.2770  0.2762 -0.0494
 5140W        W48078  24.428  15.695  19.226 -0.3085  0.2031 -0.1194
 5141W        W48079  25.572  14.158  18.709  0.1012 -0.0530  0.1444
 5142W        W48080  25.136  15.288  17.328  0.1697  0.0104  0.1049
 5143W        W48081  23.877  16.684  16.781 -0.0973 -0.0302 -0.0050
 5144W        W48082  23.734  18.410  16.097  0.1256  0.0164  0.2096
 5145W        W48083  25.240  16.192  19.523  0.0411 -0.1034  0.0486
 5146W        W48084  22.433  16.584  16.424  0.3929  0.1346 -0.0420
 5147W        W48085  22.951  15.173  16.829 -0.1382 -0.0701 -0.2231
 5148W        W48086  22.986  18.102  15.800  0.0855 -0.0985 -0.1271
 5149W        W48087  23.771  16.354  16.295  0.1932  0.0467 -0.0482
 5150W        W48088  25.295  16.939  20.053  0.0391  0.3509 -0.0415
 5151W        W48089  24.096  19.029  18.783  0.1768 -0.1180 -0.2766
 5152W        W48090  22.262  16.831  15.560 -0.0663 -0.0978  0.0492
 5153W        W48091  25.333  19.403  18.849 -0.0026 -0.0191 -0.0464
 5154W        W48092  24.389  16.763  19.403  0.0353 -0.0343 -0.1561
 5155W        W48093  23.915  14.470  20.263 -0.1097 -0.1805 -0.0388
 5156W        W48094  24.819  14.695  19.927 -0.1497  0.1181 -0.1347
 5157W        W48095  23.416  18.413  15.720 -0.2467 -0.0366  0.0129
 5158W        W48096  23.386  14.582  18.401  0.3667 -0.0012 -0.1587
 5159W        W48097  24.379  17.890  20.123  0.0410  0.3139 -0.1050
 5160W        W48098  22.224  18.062  18.600  0.0199 -0.1532 -0.0712
 5161W        W48099  27.416  16.137  19.602 -0.0199  0.2922 -0.2190
 5162W        W48100  23.162  16.612  15.774 -0.0736 -0.1088 -0.6082
 5163W        W48101  25.045  15.870  15.987 -0.0843  0.0519 -0.0753
 5164W        W48102  23.155  15.369  15.268 -0.4322 -0.0027 -0.1748
 5165W        W48103  23.423  14.244  16.988  0.0552 -0.2436 -0.0669
 5166W        W48104  24.318  13.181  18.092  0.0463  0.0189  0.0665
 5167W        W48105  22.626  16.575  18.624  0.2675  0.0179  0.3777
 5168W        W48106  24.312  14.072  18.471 -0.1465  0.2290  0.1441
 5169W        W48107  24.990  17.330  18.750  0.1886 -0.4179 -0.2866
 5170W        W48108  23.164  16.315  15.296  0.0306  0.3162 -0.0207
 5171W        W48109  24.447  15.357  18.136 -0.2581  0.4470 -0.0672
 5172W        W48110  23.442  17.607  17.803 -0.2707 -0.0467  0.2517
 5173W        W48111  23.469  16.336  18.363 -0.0146  0.1389  0.0417
 5174W        W48112  24.694  16.806  16.208 -0.1099  0.1532 -0.2572
 5175W        W48113  25.298  18.263  16.496  0.2615 -0.2641 -0.1567
 5176W        W48114  24.325  18.912  15.706 -0.1177  0.0590  0.0184
 5177W        W48115  21.335  14.765  15.301 -0.0766 -0.2788 -0.0561
 5178W        W48116  24.671  16.479  18.870 -0.0832 -0.3669  0.1643
 5179W        W48117  24.604  17.556  18.936  0.1469 -0.0011  0.2761
 5180W        W48118  22.660  14.929  16.161 -0.0265  0.1580  0.3351
 5181W        W48119  27.159  16.866  17.405  0.1389  0.1602  0.1677
 5182W        W48120  24.376  17.586  18.501  0.0559 -0.2865 -0.0390
 5183W        W48121  26.116  15.098  18.350  0.1787  0.1841  0.0292
 5184W        W48122  23.588  16.765  17.580  0.1428 -0.0897 -0.0192
 5185W        W48123  24.409  16.848  18.523 -0.1671  0.0921  0.0478
 5186W        W48124  24.817  15.858  17.580  0.1543 -0.2653 -0.2419
 5187W        W48125  24.344  14.262  17.999  0.0707 -0.0680  0.1958
 5188W        W48126  25.319  13.805  18.953 -0.0162  0.2420  0.0408
 5189W        W48127  22.541  15.865  15.907 -0.0277  0.1814 -0.1256
 5190W        W48128  23.000  16.715  17.466  0.5773  0.0824 -0.0994
 5191W        W48129  25.287  17.358  17.759  0.0429 -0.0503  0.1492
 5192W        W48130  24.402  16.876  15.274 -0.0711  0.1175  0.1518
 5193W        W48131  22.097  18.028  16.830 -0.2275 -0.0573  0.1315
 5194W        W48132  23.770  15.060  21.333 -0.1234  0.2318 -0.1799
 5195W        W48133  26.061  17.660  20.107  0.2974  0.2208  0.1288
 5196W        W48134  22.561  17.905  16.653  0.0404  0.3848  0.0999
 5197W        W48135  23.872  15.986  17.457 -0.3354  0.2223  0.3052
 5198W        W48136  22.048  15.276  15.492 -0.0259 -0.0617 -0.1358
 5199W        W48137  22.984  12.363  18.961  0.0027  0.2022  0.1008
 5200W        W48138  23.653  17.120  17.023 -0.0197  0.1175  0.1851
 5201W        W48139  24.293  15.985  18.885 -0.1976 -0.2457 -0.1170
 5202W        W48140  24.161  14.633  18.992  0.0290  0.1665  0.0530
 5203W        W48141  25.718  12.691  17.575 -0.1794 -0.4580 -0.0977
 5204W        W48142  23.676  14.973  16.242 -0.2288 -0.1585 -0.3416
 5205W        W48143  24.802  19.176  16.610  0.2603  0.3831 -0.0717
 5206W        W48144  25.066  15.049  16.657  0.0035 -0.4332 -0.1180
 5207W        W48145  24.477  15.563  17.201  0.2800  0.0688  0.0479
 5208W        W48146  22.932  16.292  18.307 -0.1768  0.0369  0.2076
 5209W        W48147  22.666  14.427  17.603  0.0300  0.2552 -0.1201
 5210W        W48148  23.300  15.550  18.880 -0.2722 -0.1110 -0.0169
 5211W        W48149  22.938  14.319  17.144  0.0370 -0.1741  0.3054
 5212W        W48150  25.504  15.674  19.482  0.0338 -0.1829  0.1394
 5213W        W48151  22.791  14.623  15.056  0.2884 -0.1533  0.0191
 5214W        W48152  24.741  15.231  17.664 -0.0012  0.0278  0.4074
 5215W        W48153  23.238  14.925  15.903  0.0109 -0.2785 -0.1014
 5216W        W48154  22.867  15.378  17.320 -0.0590 -0.2721 -0.1549
 5217W        W48155  26.413  15.049  19.502  0.0341  0.3936 -0.0570
 5218W        W48156  23.703  15.527  16.918  0.0638  0.1321  0.0307
 5219W        W48157  25.607  18.023  19.176 -0.0528  0.0308 -0.1110
 5220W        W48158  24.227  18.420  16.785  0.1078  0.0144  0.0102
 5221W        W48159  23.879  16.135  19.148  0.0354 -0.0478  0.5455
 5222W        W48160  23.187  14.489  16.228 -0.1317 -0.0067 -0.1418
 5223W        W48161  22.581  18.641  16.575  0.2847  0.1587  0.0551
 5224W        W48162  23.236  17.257  16.715  0.0949  0.3444 -0.4921
 5225W        W48163  23.462  14.107  16.454 -0.3667 -0.1519 -0.0269
 5226W        W48164  22.988  16.048  15.677  0.3059 -0.2620  0.0670
 5227W        W48165  25.110  17.522  16.557  0.0195  0.0485 -0.1624
 5228W        W48166  23.081  15.898  18.575 -0.1496  0.1107  0.4584
 5229W        W48167  25.609  12.584  19.893  0.2837 -0.2465  0.0370
 5230W        W48168  24.722  17.044  19.079  0.1345  0.1646  0.0049
 5231W        W48169  24.723  14.611  17.230 -0.1233 -0.0549  0.3227
 5232W        W48170  22.598  15.249  15.447  0.2158  0.0741 -0.0549
 5233W        W48171  23.311  18.866  15.637 -0.1006 -0.0191 -0.0440
 5234W        W48172  25.146  16.796  16.040 -0.0691  0.2144 -0.0906
 5235W        W48173  23.534  15.613  17.442  0.1332  0.3269  0.2711
 5236W        W48174  24.001  16.906  17.287  0.0467 -0.2748  0.0088
 5237W        W48175  25.994  13.947  19.131  0.2236 -0.0743 -0.1622
 5238W        W48176  22.878  14.660  19.212 -0.1976 -0.0213 -0.0685
 5239W        W48177  24.144  15.457  20.123 -0.3762  0.0489 -0.1006
 5240W        W48178  24.236  15.631  16.558  0.2902 -0.0131 -0.4313
 5241W        W48179  24.318  17.324  19.358 -0.3977  0.0971 -0.0103
 5242W        W48180  24.768  14.123  16.557  0.4710 -0.2299  0.0332
 5243W        W48181  25.197  16.244  17.534 -0.1731 -0.0470  0.0467
 5244W        W48182  24.756  16.128  19.628  0.4411 -0.2443  0.1896
 5245W        W48183  24.438  17.626  17.961 -0.0704 -0.2140 -0.2320
 5246W        W48184  23.702  13.847  16.774  0.3627 -0.1262  0.1883
 5247W        W48185  25.345  16.252  16.160  0.1831 -0.2135 -0.0743
 5248W        W48186  23.809  17.425  19.226 -0.2656  0.0001 -0.0382
 5249W        W48187  23.214  17.081  17.205  0.2859  0.0693  0.2212
 5250W        W48188  22.745  18.055  18.498 -0.3140  0.3566 -0.0841
 5251W        W48189  23.671  16.692  15.902 -0.1603  0.4282 -0.3546
 5252W        W48190  25.887  17.565  16.490  0.3553  0.2738 -0.2293
 5253W        W48191  23.710  17.616  17.062  0.0936 -0.0948 -0.0857
 5254W        W48192  24.792  16.030  20.610  0.0097 -0.0467  0.2628
 5255W        W48193  25.215  17.922  16.906 -0.1120 -0.0575 -0.0835
 5256W        W48194  24.068  15.315  19.577 -0.2312 -0.0875 -0.2778
 5257W        W48195  22.179  17.310  15.560  0.1330  0.0819 -0.2571
 5258W        W48196  23.700  15.181  17.685 -0.1826  0.0961  0.0672
 5259W        W48197  22.784  17.543  15.565  0.1665 -0.1104 -0.0738
 5260W        W48198  25.573  15.975  18.898 -0.2335 -0.0518 -0.1558
 5261W        W48199  24.477  15.536  18.740  0.0459 -0.0257 -0.0009
 5262W        W48200  23.539  15.093  20.130 -0.0867 -0.0877 -0.1342
 5263W        W48201  24.571  15.324  19.635 -0.0211  0.0421  0.0034
 5264W        W48202  24.338  15.071  17.360  0.1334 -0.0354 -0.0042
 5265W        W48203  24.070  14.935  18.580  0.1141 -0.0454  0.1184
 5266W        W48204  24.028  14.765  16.745 -0.2282  0.0552  0.2127
 5267W        W48205  24.230  14.188  20.548  0.2640  0.0252 -0.1883
 5268W        W48206  23.434  16.799  18.582 -0.3944 -0.0413  0.2231
 5269W        W48207  21.935  18.084  19.669 -0.0489 -0.1257  0.1045
 5270W        W48208  24.849  16.942  17.934  0.1941  0.2489  0.4915
 5271W        W48209  24.401  16.743  17.547 -0.0440  0.1258  0.0896
 5272W        W48210  23.913  15.057  20.789  0.1514  0.0777  0.0291
 5273W        W48211  25.252  14.944  16.147  0.1406  0.2858 -0.0533
 5274W        W48212  22.557  18.312  17.491 -0.0995  0.2500 -0.2839
 5275W        W48213  22.377  16.104  16.801  0.0813  0.2093 -0.0692
 5276W        W48214  23.863  14.391  18.310 -0.0881  0.3778 -0.0513
 5277W        W48215  24.858  18.375  19.558  0.1824 -0.0386 -0.6651
 5278W        W48216  23.491  16.171  15.792 -0.2820 -0.0472  0.0470
 5279W        W48217  24.861  16.528  19.372 -0.0206  0.0006  0.1988
 5280W        W48218  21.917  17.425  16.048  0.1612  0.1760 -0.0303
 5281W        W48219  25.251  12.553  18.032  0.0416  0.0345  0.0271
 5282W        W48220  23.467  16.249  17.494 -0.2137  0.0696  0.0341
 5283W        W48221  21.009  15.458  15.443 -0.3987 -0.4075  0.3371
 5284W        W48222  20.974  14.231  16.058 -0.0751 -0.1735 -0.0911
 5285W        W48223  24.834  15.300  15.915  0.1742 -0.2379 -0.0588
 5286W        W48224  23.269  16.372  16.217 -0.0690  0.1957 -0.0056
 5287W        W48225  22.927  15.756  18.108 -0.6455 -0.0484  0.0186
 5288W        W48226  24.166  15.104  17.857 -0.3355 -0.1614  0.1986
 5289W        W48227  24.098  16.363  17.703  0.0131  0.2201 -0.0581
 5290W        W48228  25.441  18.076  18.664  0.2288 -0.1808  0.0957
 5291W        W48229  24.637  15.319  16.595 -0.0166  0.0953  0.2355
 5292W        W48230  25.055  16.816  18.686  0.0055 -0.1375  0.1329
 5293W        W48231  24.917  16.609  20.460 -0.0405 -0.1796  0.0132
 5294W        W48232  22.050  14.724  15.294  0.0632  0.0527 -0.4094
 5295W        W48233  25.952  18.155  18.656 -0.2010  0.0052 -0.1628
 5296W        W48234  23.793  14.930  19.421  0.2516 -0.2569 -0.3664
 5297W        W48235  21.885  16.653  16.278  0.2834  0.1847 -0.0023
 5298W        W48236  23.552  18.488  17.712  0.0497  0.3193  0.3388
 5299W        W48237  22.966  14.896  17.294  0.0596  0.0338  0.1805
 5300W        W48238  22.784  17.448  16.927  0.0522 -0.1399 -0.0109
 5301W        W48239  23.699  17.682  19.850  0.2186  0.0122 -0.2569
 5302W        W48240  24.777  17.179  17.403  0.3420  0.0773  0.0912
 5303W        W48241  24.926  15.161  18.146 -0.0611 -0.1457 -0.0573
 5304W        W48242  24.058  14.031  16.438 -0.1079 -0.1993  0.2725
 5305W        W48243  23.891  15.869  17.914  0.1803 -0.2535  0.0055
 5306W        W48244  25.038  16.383  19.961 -0.1112  0.0978 -0.3771
 5307W        W48245  24.409  15.782  19.840  0.0016  0.2361 -0.1357
 5308W        W48246  24.708  18.249  20.497  0.0876  0.1086  0.2038
 5309W        W48247  23.568  14.089  18.075  0.1623  0.0992  0.2533
 5310W        W48248  23.755  17.241  17.533 -0.0049 -0.1581  0.2816
 5311W        W48249  24.834  16.018  19.054  0.2690 -0.0758  0.0270
 5312W        W48250  22.661  16.135  16.378  0.0710  0.0098  0.2410
 5313W        W48251  22.473  16.533  18.065 -0.0743 -0.0756  0.1347
 5314W        W48252  23.778  15.008  17.188 -0.2480 -0.1966 -0.0360
 5315W        W48253  24.789  14.031  18.632  0.2261  0.1853  0.1625
 5316W        W48254  22.945  16.864  18.382  0.1539  0.0357  0.0292
 5317W        W48255  23.269  17.094  15.945 -0.2346  0.0933  0.0544
 5318W        W48256  23.669  17.084  18.125  0.1387  0.0722  0.0668
 5319W        W48257  25.675  15.737  17.449  0.2845  0.1019 -0.0802
 5320W        W48258  24.842  16.385  16.084  0.1611 -0.3784 -0.0174
 5321W        W48259  24.201  15.797  18.373 -0.1345 -0.1626 -0.3576
 5322W        W48260  26.590  13.632  20.139  0.2559  0.3545  0.2294
 5323W        W48261  23.847  15.451  16.363  0.1998  0.0961 -0.0686
 5324W        W48262  25.329  15.550  18.286 -0.1219 -0.2862 -0.3760
 5325W        W48263  24.665  14.535  19.393  0.0459  0.4507 -0.2205
 5326W        W48264  24.676  16.487  16.560  0.1401  0.3815  0.2194
 5327W        W48265  21.819  14.343  18.506  0.0746 -0.2425  0.1387
 5328W        W48266  22.996  18.978  20.998 -0.2834 -0.0951 -0.2519
 5329W        W48267  22.577  17.086  18.607 -0.2837  0.2908  0.1172
 5330W        W48268  23.283  14.241  17.582  0.1496 -0.1251 -0.1480
 5331W        W48269  24.508  13.616  18.241 -0.1354  0.2344  0.1804
 5332W        W48270  23.129  17.568  16.000 -0.1948  0.0447  0.0782
 5333W        W48271  25.538  17.549  16.849  0.2707 -0.0524  0.0572
 5334W        W48272  24.321  16.279  18.418  0.0370  0.4773  0.1778
 5335W        W48273  25.383  14.992  18.232 -0.2216 -0.1017 -0.1799
 5336W        W48274  23.862  17.156  18.590 -0.3351 -0.0539  0.1304
 5337W        W48275  24.351  16.470  17.059 -0.0342  0.4088  0.0100
 5338W        W48276  23.220  15.844  16.105 -0.0377 -0.0382 -0.3344
 5339W        W48277  23.048  15.727  17.645 -0.1217  0.1913  0.0742
 5340W        W48278  23.299  13.319  18.991 -0.0618 -0.0825 -0.5384
 5341W        W48279  25.098  15.777  18.727  0.0433 -0.0552 -0.0473
 5342W        W48280  23.694  14.254  16.050  0.1530 -0.0228  0.2478
 5343W        W48281  24.549  14.750  17.730 -0.2480  0.1819  0.0064
 5344W        W48282  24.928  15.020  19.503  0.0646  0.0252 -0.2682
 5345W        W48283  24.265  16.289  19.835  0.2335 -0.3228 -0.0750
 5346W        W48284  22.962  13.989  19.100  0.0403  0.1644 -0.0978
 5347W        W48285  24.671  18.539  18.334 -0.1010  0.2885  0.2338
 5348W        W48286  26.055  15.073  15.655 -0.0911 -0.0790 -0.0647
 5349W        W48287  25.538  15.353  17.855 -0.2466  0.0028  0.1785
 5350W        W48288  23.886  16.422  17.227 -0.1228 -0.0945 -0.0766
 5351W        W48289  25.632  15.866  15.864  0.1712 -0.1462 -0.1344
 5352W        W48290  21.907  13.729  18.697 -0.1739 -0.1117  0.2321
 5353W        W48291  25.755  17.103  19.765 -0.0794  0.0711  0.0302
 5354W        W48292  22.892  12.658  15.836  0.2227  0.2083  0.2402
 5355W        W48293  25.290  13.427  19.608  0.3872  0.2420  0.0020
 5356W        W48294  22.860  16.804  14.921  0.1696  0.1490  0.1010
 5357W        W48295  24.421  16.636  18.089  0.1225  0.0552 -0.2891
 5358W        W48296  24.636  15.845  16.269  0.0267  0.1733 -0.4149
 5359W        W48297  22.632  14.933  17.723 -0.4736  0.1550  0.2324
 5360W        W48298  24.199  19.976  19.084 -0.3248 -0.1933 -0.4058
 5361W        W48299  22.201  14.282  14.486 -0.0521  0.1726  0.1327
 5362W        W48300  23.466  15.369  15.988  0.0058 -0.0373 -0.1108
 5363W        W48301  23.557  17.878  18.919 -0.2575  0.0981  0.2723
 5364W        W48302  25.379  18.096  17.697 -0.1408  0.0957  0.0375
 5365W        W48303  23.880  12.918  15.998 -0.1701 -0.0622  0.0202
 5366W        W48304  25.590  14.290  20.409  0.1788  0.0015  0.1178
 5367W        W48305  22.929  17.475  15.026 -0.2919  0.0133  0.2181
 5368W        W48306  24.547  14.810  16.663 -0.0951 -0.4236  0.1553
 5369W        W48307  21.724  18.239  17.596 -0.1410  0.0024 -0.1982
 5370W        W48308  22.757  16.934  17.819 -0.1304  0.0252 -0.1953
 5371W        W48309  23.420  16.603  17.137  0.0518  0.1011 -0.0817
 5372W        W48310  24.880  14.628  18.204  0.3296  0.2370  0.0732
 5373W        W48311  25.154  16.074  18.208  0.2006  0.1999  0.0517
 5374W        W48312  23.223  16.061  16.628 -0.1635 -0.0994 -0.0335
 5375W        W48313  26.442  16.059  19.612  0.0959 -0.1282  0.4677
 5376W        W48314  24.462  18.361  19.873  0.1264  0.0889  0.1105
 5377W        W48315  23.401  15.990  17.953  0.0287  0.2494  0.3500
 5378W        W48316  26.387  19.467  18.620  0.2533 -0.0840  0.1825
 5379W        W48317  25.947  17.009  18.580 -0.1689 -0.0997  0.1912
 5380W        W48318  24.519  14.489  18.696  0.0958  0.2156  0.1155
 5381W        W48319  22.305  14.423  18.651 -0.3572  0.1490 -0.0289
 5382W        W48320  24.507  15.091  20.084 -0.2120 -0.1799 -0.3604
 5383W        W48321  25.509  17.146  18.682  0.0714 -0.1264  0.0530
 5384W        W48322  23.052  13.434  16.175  0.1795 -0.0461  0.0083
 5385W        W48323  23.765  17.424  15.851  0.2910  0.2986  0.1461
 5386W        W48324  24.345  16.266  19.331  0.0223 -0.2882  0.1344
 5387W        W48325  23.588  16.570  19.047  0.1193 -0.1269  0.0133
 5388W        W48326  22.589  18.265  15.574 -0.0792  0.0900  0.1468
 5389W        W48327  24.797  16.120  17.155  0.0974  0.2593  0.1211
 5390W        W48328  23.985  16.273  15.777 -0.1187  0.2985 -0.2570
 5391W        W48329  25.542  17.752  18.017  0.1295  0.1100 -0.0117
 5392W        W48330  23.982  15.096  15.364 -0.0323  0.2004 -0.0914
 5393W        W48331  22.478  15.359  15.933  0.0532 -0.0520  0.2641
 5394W        W48332  22.077  16.547  16.775  0.0336  0.1871 -0.2729
 5395W        W48333  24.102  17.985  18.122  0.2939 -0.2065 -0.2455
 5396W        W48334  22.841  17.484  17.453  0.2125 -0.1825  0.1299
 5397W        W48335  27.009  16.773  18.303 -0.1681  0.1707 -0.1261
 5398W        W48336  24.593  14.329  15.753  0.0449  0.0390  0.1592
 5399W        W48337  26.011  16.195  18.154 -0.1450 -0.1229 -0.0967
 5400W        W48338  25.180  16.291  16.892  0.2582  0.0177  0.3553
 5401W        W48339  24.324  18.056  18.751 -0.0955 -0.0447  0.0165
 5402W        W48340  23.063  15.883  19.730  0.3278 -0.0510 -0.5100
 5403W        W48341  23.348  14.462  15.675 -0.0500 -0.0077 -0.2465
 5404W        W48342  23.857  17.159  19.652 -0.1386  0.4179 -0.0146
 5405W        W48343  24.790  14.315  20.293  0.1789  0.1364 -0.2923
 5406W        W48344  21.764  18.360  17.054  0.1850  0.1414 -0.0409
 5407W        W48345  22.296  16.343  15.763  0.0362  0.5176  0.0756
 5408W        W48346  22.634  14.455  16.289 -0.0443 -0.3141  0.2788
 5409W        W48347  23.087  14.253  18.144 -0.0287 -0.0990  0.1339
 5410W        W48348  25.758  13.729  18.539  0.0382 -0.2258 -0.1188
 5411W        W48349  22.746  16.691  15.449  0.2999  0.1044  0.1128
 5412W        W48350  23.950  14.280  16.927  0.0468 -0.1336 -0.1037
 5413W        W48351  23.702  16.410  17.974  0.0366  0.4042 -0.2500
 5414W        W48352  24.000  16.836  17.864  0.3690  0.1190 -0.1150
 5415W        W48353  23.972  17.887  16.686  0.0077  0.1961  0.0117
 5416W        W48354  22.166  14.759  16.206  0.0416 -0.2520 -0.2353
 5417W        W48355  24.980  13.720  16.793  0.1145 -0.1741 -0.1919
 5418W        W48356  23.905  16.682  18.378  0.3963  0.0447 -0.0305
 5419W        W48357  25.639  14.662  17.983 -0.1055 -0.2221  0.2066
 5420W        W48358  22.040  15.286  17.085 -0.1744 -0.0403 -0.0231
 5421W        W48359  25.448  16.683  17.047 -0.3382  0.0590  0.4127
 5422W        W48360  24.439  16.094  17.964 -0.3082 -0.0393  0.4920
 5423W        W48361  22.849  13.447  19.253 -0.2594 -0.1471 -0.0302
 5424W        W48362  22.989  15.346  15.831 -0.0789  0.0513  0.0781
 5425W        W48363  24.685  15.983  18.540 -0.1180 -0.0272  0.0070
 5426W        W48364  24.473  15.417  15.545  0.1778  0.2728 -0.0231
 5427W        W48365  25.960  17.667  17.612 -0.0459 -0.1299  0.0586
 5428W        W48366  22.332  14.485  17.082  0.0143 -0.2716  0.2941
 5429W        W48367  24.551  13.325  16.437  0.4943  0.2434 -0.1558
 5430W        W48368  22.653  14.774  16.678  0.0006 -0.2527 -0.2217
 5431W        W48369  23.897  16.253  18.633  0.0770  0.1845 -0.0848
 5432W        W48370  26.505  17.414  17.695  0.0626 -0.0735  0.0127
 5433W        W48371  23.023  14.158  15.468 -0.1745 -0.3293  0.1547
 5434W        W48372  24.763  16.516  15.231 -0.0756 -0.1468 -0.0625
 5435W        W48373  25.739  16.126  19.697  0.1074 -0.0587 -0.0238
 5436W        W48374  23.279  17.628  15.544  0.0459 -0.0169 -0.0462
 5437W        W48375  24.615  17.774  17.485 -0.0458  0.0105 -0.0010
 5438W        W48376  23.845  18.104  18.513 -0.0028 -0.1917  0.1204
 5439W        W48377  22.985  13.836  17.368  0.0379 -0.1339 -0.1230
 5440W        W48378  25.380  17.617  18.445  0.1477 -0.0415 -0.0386
 5441W        W48379  26.137  17.280  17.331 -0.0972  0.1523  0.2301
 5442W        W48380  24.226  15.277  16.867  0.0900  0.4186 -0.1059
 5443W        W48381  23.290  13.772  17.786  0.2823 -0.2475 -0.0801
 5444W        W48382  23.518  17.927  15.919  0.0193  0.0647 -0.0620
 5445W        W48383  25.648  14.509  17.071 -0.1320 -0.2709 -0.0082
 5446W        W48384  25.026  15.634  19.609  0.1228  0.3096  0.6785
 5447W        W48385  24.137  18.679  15.057  0.4883  0.1514  0.0822
 5448W        W48386  25.276  14.530  18.447 -0.0497 -0.0498  0.3298
 5449W        W48387  23.274  19.350  18.700  0.1150 -0.0982 -0.1396
 5450W        W48388  24.674  18.452  18.874 -0.0655 -0.0754 -0.0373
 5451W        W48389  22.568  17.122  15.227 -0.0733  0.1558 -0.0952
 5452W        W48390  22.972  16.465  19.255 -0.0716 -0.0106 -0.1653
 5453W        W48391  22.753  15.862  16.832 -0.0349  0.0173 -0.1064
 5454W        W48392  24.188  14.615  17.216  0.0186 -0.1104  0.0586
 5455W        W48393  24.658  17.194  18.350 -0.1124  0.0749 -0.1070
 5456W        W48394  23.784  15.918  16.553 -0.0270 -0.0632  0.0498
 5457W        W48395  25.248  16.742  16.540  0.1680  0.2761  0.0074
 5458W        W48396  23.065  14.674  17.868 -0.0378 -0.0457 -0.0608
 5459W        W48397  24.164  15.088  16.369  0.3011  0.2510  0.1325
 5460W        W48398  25.218  13.069  17.092  0.1527  0.1010  0.1141
 5461W        W48399  23.624  14.566  17.396 -0.2067  0.1783  0.3736
 5462W        W48400  22.666  16.126  15.212  0.0335  0.0313  0.1059
 5463W        W48401  21.855  16.664  15.093 -0.3522 -0.0859  0.4013
 5464W        W48402  23.755  14.916  18.219 -0.0323  0.1207  0.0433
 5465W        W48403  25.115  13.968  20.167 -0.4118  0.0708  0.0251
 5466W        W48404  23.611  15.577  19.864 -0.1315  0.2164 -0.0616
 5467W        W48405  23.375  15.492  18.002  0.1503  0.0037 -0.0949
 5468W        W48406  24.065  13.497  16.694 -0.3181 -0.2164  0.2007
 5469W        W48407  25.020  16.097  16.474  0.1075 -0.1065 -0.0881
 5470W        W48408  23.326  14.263  18.991 -0.2422  0.3275 -0.0917
 5471W        W48409  22.142  14.400  15.866 -0.0811  0.4449  0.0727
 5472W        W48410  24.395  16.042  17.440  0.4195 -0.2061 -0.0829
 5473W        W48411  24.931  16.797  17.043 -0.0760  0.1351 -0.1728
 5474W        W48412  23.764  13.626  17.682  0.4690 -0.2183  0.0268
 5475W        W48413  26.031  17.151  17.814 -0.0987  0.3155  0.0087
 5476W        W48414  22.686  17.059  15.786  0.1769 -0.1479  0.0899
 5477W        W48415  25.266  15.946  19.991 -0.1071 -0.0078 -0.0057
 5478W        W48416  23.878  15.400  18.135  0.4128  0.0022  0.0248
 5479W        W48417  22.250  15.734  15.473  0.0647 -0.2598  0.1390
 5480W        W48418  24.941  16.939  19.643  0.0678  0.0430  0.0786
 5481W        W48419  23.535  17.020  15.535  0.0631  0.3381  0.0712
 5482W        W48420  24.652  17.962  15.589 -0.0124 -0.1319  0.4178
 5483W        W48421  24.854  16.553  17.446 -0.0345 -0.2870 -0.3760
 5484W        W48422  24.262  17.241  18.844  0.2401  0.0973 -0.2401
 5485W        W48423  22.206  14.015  18.372  0.5901  0.0556 -0.1266
 5486W        W48424  23.407  16.542  16.659  0.1605 -0.2644 -0.0709
 5487W        W48425  23.373  16.711  19.553 -0.2247 -0.1111  0.0848
 5488W        W48426  25.719  15.420  15.550 -0.1423  0.0736 -0.1395
 5489W        W48427  26.528  13.894  19.255  0.0481  0.0137 -0.3252
 5490W        W48428  24.205  16.322  16.614  0.0784  0.0205  0.2213
 5491W        W48429  24.087  13.150  18.848 -0.2614  0.0806 -0.2409
 5492W        W48430  23.290  17.298  19.675  0.0676 -0.3053 -0.0682
 5493W        W48431  25.319  16.569  18.160 -0.0332 -0.1951 -0.0618
 5494W        W48432  24.210  13.490  17.529 -0.1247  0.1892 -0.0533
 5495W        W48433  24.507  13.899  16.088  0.1753  0.1018  0.5321
 5496W        W48434  24.937  17.167  15.233  0.5507 -0.0873 -0.0732
 5497W        W48435  23.677  15.794  18.394  0.2903  0.3285 -0.1208
 5498W        W48436  24.734  15.137  17.029 -0.0507  0.1756 -0.1717
 5499W        W48437  24.539  14.939  19.137 -0.0411 -0.1956  0.3693
 5500W        W48438  23.984  17.674  18.743  0.0086 -0.0701  0.1674
 5501W        W48439  25.270  16.543  19.040 -0.2998 -0.0840  0.1640
 5502W        W48440  23.778  14.792  15.790 -0.2540  0.3105 -0.0326
 5503W        W48441  24.498  16.059  15.782 -0.2769  0.2925 -0.4314
 5504W        W48442  25.995  17.819  18.144 -0.0669  0.3872 -0.2817
 5505W        W48443  26.358  17.406  18.763  0.0623 -0.2906 -0.2407
 5506W        W48444  23.263  16.631  17.968 -0.0003 -0.1822  0.3198
 5507W        W48445  25.978  16.604  17.703 -0.3703 -0.0202 -0.0868
 5508W        W48446  22.873  14.790  18.387  0.0741 -0.2805 -0.2892
 5509W        W48447  22.946  16.782  16.376  0.3530  0.0333 -0.1027
 5510W        W48448  25.737  13.543  19.073 -0.1206 -0.0373 -0.1135
 5511W        W48449  25.565  17.563  18.963 -0.2188  0.0922  0.0489
 5512W        W48450  24.103  15.274  19.056  0.0466 -0.4778 -0.2269
 5513W        W48451  23.967  13.760  15.856 -0.0130  0.2182 -0.2517
 5514W        W48452  23.019  16.727  16.883 -0.4085  0.2914  0.2842
 5515W        W48453  24.718  15.758  18.099  0.0461  0.1055  0.0740
 5516W        W48454  23.623  18.178  21.813  0.1309 -0.1079  0.1794
 5517W        W48455  24.062  13.228  20.733 -0.2327  0.0876 -0.0147
 5518W        W48456  25.352  15.523  19.022  0.1085  0.0127  0.1695
 5519W        W48457  25.430  15.086  19.805 -0.0415  0.1690 -0.2296
 5520W        W48458  22.950  15.395  19.811  0.1716 -0.1641  0.2893
 5521W        W48459  25.003  18.613  20.669 -0.1519  0.1376  0.0179
 5522W        W48460  22.842  13.492  23.189 -0.0856 -0.1997  0.2659
 5523W        W48461  24.882  15.948  21.981  0.1971 -0.2402 -0.1796
 5524W        W48462  26.832  17.826  21.093 -0.0540 -0.2183 -0.0993
 5525W        W48463  26.166  16.532  18.505 -0.2898 -0.0767  0.2100
 5526W        W48464  23.738  16.029  21.898  0.0841  0.1834 -0.0612
 5527W        W48465  24.457  17.845  21.485 -0.2627 -0.1390  0.1009
 5528W        W48466  23.801  15.521  20.513  0.0633  0.2619 -0.4588
 5529W        W48467  22.469  14.736  19.507  0.2354 -0.3998 -0.3622
 5530W        W48468  25.167  15.861  22.426  0.4540  0.2191 -0.1918
 5531W        W48469  24.580  17.788  19.597  0.1394 -0.0493  0.0947
 5532W        W48470  23.850  12.412  21.340  0.0699  0.0803 -0.1510
 5533W        W48471  23.478  16.036  18.807  0.0284  0.2466  0.0773
 5534W        W48472  25.479  18.466  21.123  0.3728  0.1865 -0.2275
 5535W        W48473  24.499  15.034  23.117 -0.0893  0.3793  0.0121
 5536W        W48474  26.135  15.556  23.607 -0.1139  0.0028 -0.4052
 5537W        W48475  24.129  18.391  20.562 -0.1525 -0.0500  0.2721
 5538W        W48476  22.369  14.840  18.420 -0.1170  0.0704 -0.0158
 5539W        W48477  22.732  15.593  19.436  0.1918 -0.0250  0.0631
 5540W        W48478  23.767  16.021  21.285 -0.1204 -0.0892  0.1261
 5541W        W48479  25.717  16.073  22.466 -0.0836 -0.1434  0.0217
 5542W        W48480  25.159  16.555  20.894  0.3360 -0.1291  0.1646
 5543W        W48481  24.439  17.741  22.039 -0.0322  0.0948  0.1862
 5544W        W48482  24.648  18.436  21.416  0.2791  0.0596 -0.1217
 5545W        W48483  24.956  15.952  23.018  0.2111 -0.1110  0.3839
 5546W        W48484  23.204  16.427  20.577 -0.0775  0.2434 -0.1737
 5547W        W48485  23.492  19.337  20.897  0.1231  0.1280 -0.1399
 5548W        W48486  23.881  18.441  20.088  0.0540 -0.1887 -0.0344
 5549W        W48487  25.413  16.756  20.543 -0.0207 -0.0717 -0.2596
 5550W        W48488  24.762  18.732  24.193 -0.1064  0.0030  0.4465
 5551W        W48489  25.995  18.644  21.880  0.4164 -0.0966 -0.1652
 5552W        W48490  23.546  17.903  19.419  0.0864 -0.0590 -0.0779
 5553W        W48491  24.789  18.870  21.195 -0.0006 -0.0798 -0.2230
 5554W        W48492  23.857  16.449  20.216 -0.1660 -0.0794  0.0145
 5555W        W48493  23.482  15.771  22.513  0.0057 -0.3077 -0.2026
 5556W        W48494  24.892  16.489  21.356  0.2488 -0.0265 -0.1858
 5557W        W48495  24.166  16.806  20.022  0.0345  0.2006  0.5287
 5558W        W48496  24.339  15.848  20.389 -0.0606  0.0208  0.2265
 5559W        W48497  23.489  17.010  21.507  0.1983  0.0283 -0.0766
 5560W        W48498  23.192  17.368  21.014  0.2197  0.0133  0.0877
 5561W        W48499  25.807  16.958  22.806  0.4014 -0.1665  0.2058
 5562W        W48500  24.653  18.777  19.782 -0.1394 -0.1197  0.0232
 5563W        W48501  25.431  15.088  19.308  0.2347  0.2303  0.1138
 5564W        W48502  24.808  15.997  20.135 -0.1583  0.1870  0.1110
 5565W        W48503  25.267  14.795  20.174  0.0254 -0.1124 -0.0184
 5566W        W48504  24.785  15.502  22.400  0.4354 -0.0413 -0.1099
 5567W        W48505  24.337  19.066  20.787  0.4999  0.1462  0.0269
 5568W        W48506  24.585  15.670  23.875  0.1904  0.4472 -0.0121
 5569W        W48507  27.026  18.678  22.538 -0.2336 -0.0936 -0.0267
 5570W        W48508  24.199  17.637  21.117 -0.1280  0.1477  0.0969
 5571W        W48509  23.929  16.000  22.381 -0.0214  0.1341  0.2351
 5572W        W48510  23.887  16.442  21.528  0.2904 -0.1946 -0.2435
 5573W        W48511  22.223  15.430  20.413  0.1435  0.2623  0.1218
 5574W        W48512  24.603  18.956  18.836 -0.0910  0.1997  0.0425
 5575W        W48513  25.122  17.429  21.685 -0.0321  0.0413  0.1638
 5576W        W48514  25.622  18.902  18.968 -0.0736 -0.0754 -0.2834
 5577W        W48515  23.528  14.681  19.857  0.0661  0.0035  0.0452
 5578W        W48516  23.014  16.465  22.057 -0.0004  0.0870 -0.3572
 5579W        W48517  23.383  16.079  23.436  0.0557  0.0585  0.1159
 5580W        W48518  23.766  15.661  19.239  0.2023 -0.4013  0.3380
 5581W        W48519  25.086  18.843  22.866 -0.0352 -0.0404 -0.2203
 5582W        W48520  24.012  17.547  21.592  0.0325  0.0275 -0.0761
 5583W        W48521  24.508  14.581  21.229 -0.1366 -0.4708 -0.2083
 5584W        W48522  24.850  18.073  20.048 -0.1143  0.0087  0.0398
 5585W        W48523  25.377  19.786  22.457  0.0005 -0.2916 -0.2230
 5586W        W48524  25.477  18.478  20.175 -0.1260  0.2681  0.3693
 5587W        W48525  23.819  14.713  22.175 -0.1151 -0.0549 -0.4525
 5588W        W48526  23.129  17.032  23.071 -0.0040 -0.0762 -0.1551
 5589W        W48527  24.174  14.912  20.380  0.1288  0.0550 -0.1054
 5590W        W48528  23.340  15.356  22.682  0.2510 -0.0329  0.0761
 5591W        W48529  26.527  17.709  23.112 -0.1156  0.1555  0.1687
 5592W        W48530  25.886  17.555  18.572  0.1131 -0.0388  0.0466
 5593W        W48531  22.788  18.237  21.341 -0.2573 -0.2306 -0.3430
 5594W        W48532  23.317  15.739  22.967  0.0686 -0.2258 -0.2879
 5595W        W48533  24.742  16.369  22.171  0.3348 -0.1507 -0.0729
 5596W        W48534  24.155  17.528  19.821 -0.0706 -0.2011 -0.3546
 5597W        W48535  23.040  15.918  20.649 -0.0486 -0.3639 -0.2250
 5598W        W48536  22.675  17.375  19.028 -0.0334 -0.2627  0.0555
 5599W        W48537  21.998  14.203  20.438  0.1710 -0.0248  0.1304
 5600W        W48538  24.072  17.081  21.421  0.2320 -0.2954  0.1244
 5601W        W48539  25.115  15.628  21.481 -0.1350  0.0410  0.4598
 5602W        W48540  23.624  14.404  21.778  0.0766 -0.3068  0.0724
 5603W        W48541  25.538  15.888  21.287  0.1139 -0.1225 -0.0962
 5604W        W48542  23.944  18.022  20.302  0.3024 -0.4038  0.1606
 5605W        W48543  26.211  18.618  20.003 -0.1688  0.1697  0.1991
 5606W        W48544  26.336  16.356  20.524 -0.0213  0.3376 -0.2329
 5607W        W48545  24.359  16.848  20.612  0.1312  0.3371  0.2401
 5608W        W48546  23.036  15.232  19.172 -0.1084  0.0754  0.0941
 5609W        W48547  23.107  14.522  20.089 -0.0833 -0.0870  0.1781
 5610W        W48548  24.867  15.629  24.290 -0.1991 -0.1317 -0.1245
 5611W        W48549  22.813  13.349  21.096 -0.0624  0.1650  0.0583
 5612W        W48550  26.584  18.191  23.145 -0.1036  0.0009  0.2117
 5613W        W48551  23.108  14.480  20.671  0.0015  0.2343 -0.0119
 5614W        W48552  25.849  15.096  22.469 -0.2401  0.0152  0.0171
 5615W        W48553  23.101  15.984  19.240 -0.0230  0.0053 -0.1484
 5616W        W48554  22.303  16.110  17.627  0.1095  0.2536 -0.0937
 5617W        W48555  25.938  13.329  23.652  0.1374  0.2022 -0.1236
 5618W        W48556  24.871  18.227  20.983 -0.0022 -0.3122  0.2643
 5619W        W48557  26.086  18.036  24.645  0.0723 -0.0442 -0.2544
 5620W        W48558  26.617  18.506  20.586  0.2112 -0.1849 -0.3280
 5621W        W48559  22.814  15.822  21.075  0.0669 -0.0723 -0.2307
 5622W        W48560  23.014  13.749  18.186 -0.0235 -0.1024  0.0927
 5623W        W48561  22.823  18.428  19.806 -0.2263  0.2444  0.2003
 5624W        W48562  24.659  17.672  21.067  0.0339 -0.2662  0.0098
 5625W        W48563  22.538  15.227  20.728 -0.0237 -0.1295 -0.1662
 5626W        W48564  26.324  17.096  22.268  0.1152 -0.1159  0.3196
 5627W        W48565  24.420  16.001  22.147  0.0265  0.0167  0.0260
 5628W        W48566  23.497  16.532  21.220  0.0635  0.1653  0.3960
 5629W        W48567  24.505  15.118  24.058 -0.5623 -0.0683 -0.0623
 5630W        W48568  26.385  16.532  22.638  0.0610  0.2685  0.0750
 5631W        W48569  24.325  17.229  21.811 -0.2099 -0.1484 -0.2753
 5632W        W48570  23.296  15.011  18.169 -0.1538  0.0752  0.0328
 5633W        W48571  25.186  16.153  21.577 -0.3449 -0.0003 -0.0426
 5634W        W48572  23.421  17.116  19.197  0.0807  0.1291  0.0569
 5635W        W48573  23.224  17.694  20.026  0.0300 -0.1907 -0.1189
 5636W        W48574  25.156  17.102  20.817  0.2281 -0.0261 -0.2888
 5637W        W48575  25.900  14.488  23.268 -0.0928 -0.1179  0.1088
 5638W        W48576  21.965  16.261  22.367  0.2980 -0.1860  0.2211
 5639W        W48577  23.749  16.429  22.591  0.2157 -0.0396  0.2209
 5640W        W48578  22.000  15.397  18.382  0.0801  0.0403  0.0904
 5641W        W48579  22.595  17.474  20.238  0.0003 -0.1086 -0.1471
 5642W        W48580  25.205  16.086  20.897 -0.0921 -0.0423  0.0972
 5643W        W48581  26.689  16.254  20.102  0.2648  0.0381  0.1745
 5644W        W48582  24.335  18.054  23.524 -0.1785  0.1411  0.1887
 5645W        W48583  26.792  18.399  22.200  0.0484  0.2143 -0.2164
 5646W        W48584  25.546  16.352  20.074  0.2835 -0.1288  0.2876
 5647W        W48585  24.591  14.479  20.730  0.0412  0.2286  0.2575
 5648W        W48586  21.553  17.873  19.396 -0.1129 -0.4004 -0.0292
 5649W        W48587  26.062  15.575  20.963 -0.0572 -0.0354  0.2880
 5650W        W48588  24.950  17.808  21.933 -0.2598  0.1090  0.2113
 5651W        W48589  24.290  15.220  21.571  0.3820  0.2464  0.0353
 5652W        W48590  25.840  17.760  20.514  0.1782  0.3126  0.1572
 5653W        W48591  23.481  18.118  19.969  0.1571 -0.2453  0.0320
 5654W        W48592  25.486  15.980  22.029 -0.0959  0.1519  0.0464
 5655W        W48593  24.779  17.226  21.974  0.4586 -0.0144 -0.2432
 5656W        W48594  24.558  14.285  23.482 -0.2005 -0.2309  0.2158
 5657W        W48595  24.371  17.242  20.286  0.1500  0.1471 -0.0484
 5658W        W48596  24.643  15.294  22.000  0.0259 -0.0217  0.0007
 5659W        W48597  23.674  19.480  18.437  0.3243 -0.0234  0.0329
 5660W        W48598  25.753  15.214  23.535  0.0578 -0.1984  0.1236
 5661W        W48599  25.480  15.755  22.796 -0.2480 -0.2912 -0.0992
 5662W        W48600  24.658  15.934  22.598  0.0517 -0.1748 -0.1381
 5663W        W48601  26.792  18.443  23.891 -0.0402  0.2537 -0.2651
 5664W        W48602  25.186  15.755  20.489  0.0965 -0.4082  0.0743
 5665W        W48603  24.579  15.604  21.634 -0.0724  0.0747  0.1140
 5666W        W48604  23.366  16.246  20.080 -0.0348  0.2027  0.2931
 5667W        W48605  25.266  15.568  23.181 -0.2921  0.1184  0.1015
 5668W        W48606  23.081  16.880  20.747 -0.0232  0.0019 -0.2404
 5669W        W48607  23.427  18.000  20.949  0.0242 -0.2524 -0.0247
 5670W        W48608  25.621  17.500  21.912  0.0811 -0.2018  0.0819
 5671W        W48609  24.597  16.411  20.858 -0.1416  0.0509  0.0838
 5672W        W48610  25.251  15.490  23.776  0.1168  0.1258  0.4015
 5673W        W48611  24.866  13.594  19.808  0.1711 -0.1156 -0.0044
 5674W        W48612  23.971  18.136  19.692 -0.0438 -0.0139 -0.3357
 5675W        W48613  24.128  16.600  18.868 -0.0532 -0.0385  0.1775
 5676W        W48614  23.800  15.190  21.818  0.0050 -0.3139 -0.1032
 5677W        W48615  25.507  16.908  21.057 -0.2256 -0.0288  0.0436
 5678W        W48616  25.638  17.319  20.269 -0.0683 -0.2208 -0.1165
 5679W        W48617  26.350  17.447  22.646  0.3544 -0.0504  0.2016
 5680W        W48618  23.591  18.324  20.513 -0.1327  0.3473  0.4607
 5681W        W48619  26.654  14.036  22.246 -0.2525  0.1950  0.2248
 5682W        W48620  24.458  18.659  22.119 -0.0008  0.2962  0.1521
 5683W        W48621  24.775  15.549  20.291 -0.0040  0.2373  0.1552
 5684W        W48622  23.883  16.545  19.599 -0.2737 -0.2940  0.3358
 5685W        W48623  25.872  16.744  21.461  0.2332  0.0997 -0.4088
 5686W        W48624  25.797  17.503  19.413  0.3384 -0.0265  0.0286
 5687W        W48625  22.731  15.327  21.236 -0.0830 -0.0689 -0.1958
 5688W        W48626  24.468  15.063  22.619  0.0325  0.2770 -0.0512
 5689W        W48627  22.932  17.538  18.566  0.5066  0.4164 -0.0461
 5690W        W48628  26.741  17.050  22.528  0.0188  0.0472  0.1029
 5691W        W48629  24.937  14.208  19.646  0.0058 -0.1812  0.1606
 5692W        W48630  25.745  19.044  23.317 -0.0720  0.0078  0.1412
 5693W        W48631  24.488  16.816  21.505  0.3322 -0.0275  0.1772
 5694W        W48632  21.894  16.636  19.129  0.0767 -0.1546 -0.3233
 5695W        W48633  26.572  15.074  23.367  0.1374  0.2985  0.2535
 5696W        W48634  24.116  16.359  20.715  0.1458 -0.1399 -0.1726
 5697W        W48635  25.135  18.423  21.519  0.0658  0.1076 -0.0866
 5698W        W48636  26.298  16.989  22.881 -0.0642  0.0830 -0.0794
 5699W        W48637  22.959  16.950  18.904 -0.5515  0.0278  0.1785
 5700W        W48638  22.647  17.442  20.795 -0.0012 -0.2297 -0.0794
 5701W        W48639  23.263  14.336  23.041 -0.0976 -0.0601 -0.0354
 5702W        W48640  26.716  16.449  23.458 -0.1111  0.0941 -0.0848
 5703W        W48641  24.189  15.026  22.076  0.2083  0.0029  0.2028
 5704W        W48642  23.571  14.143  19.931 -0.0316 -0.3130 -0.2156
 5705W        W48643  24.224  15.374  21.062 -0.0056 -0.3858  0.2034
 5706W        W48644  26.799  16.682  22.232  0.0381  0.2798 -0.0457
 5707W        W48645  24.335  17.357  23.126  0.0447 -0.0696 -0.1020
 5708W        W48646  23.412  16.828  22.423  0.3125  0.2353 -0.0252
 5709W        W48647  24.511  14.712  22.286 -0.0166  0.0970  0.1347
 5710W        W48648  25.996  19.834  18.970 -0.0013 -0.2405 -0.1981
 5711W        W48649  27.035  17.607  24.589 -0.0148  0.2106  0.1200
 5712W        W48650  24.438  17.133  19.818 -0.0850  0.3054  0.0420
 5713W        W48651  22.926  16.393  19.752  0.0284 -0.0533  0.0845
 5714W        W48652  23.487  17.819  20.465 -0.1211 -0.0137 -0.2304
 5715W        W48653  24.173  16.280  23.125 -0.0698  0.1899 -0.0584
 5716W        W48654  24.296  15.569  22.439  0.2411  0.0670 -0.1470
 5717W        W48655  23.892  16.958  20.459  0.0410 -0.1897  0.0027
 5718W        W48656  22.866  15.956  21.569 -0.0282 -0.2272  0.1007
 5719W        W48657  26.881  15.114  21.301 -0.1368  0.4739 -0.2766
 5720W        W48658  25.217  18.044  19.645  0.4067 -0.1146 -0.0128
 5721W        W48659  24.553  14.810  21.749  0.0058 -0.1641  0.0323
 5722W        W48660  26.242  13.289  23.258  0.1064 -0.0648  0.3135
 5723W        W48661  25.337  17.194  19.209  0.2303  0.1896 -0.1244
 5724W        W48662  25.599  16.104  23.153  0.0221 -0.3522  0.1086
 5725W        W48663  23.931  15.514  21.457 -0.1596 -0.0940  0.1866
 5726W        W48664  25.840  16.257  20.524 -0.0240 -0.0017  0.0622
 5727W        W48665  23.437  15.661  21.681 -0.2146  0.0512 -0.0286
 5728W        W48666  25.809  18.079  24.126  0.1312 -0.0573 -0.2358
 5729W        W48667  23.730  16.791  22.995  0.0594 -0.3356  0.1937
 5730W        W48668  24.168  15.494  21.957  0.3044  0.1147  0.0495
 5731W        W48669  23.192  14.994  18.776  0.0058 -0.0713 -0.0181
 5732W        W48670  23.999  16.409  22.137  0.1056 -0.1949 -0.0161
 5733W        W48671  25.792  17.168  22.316  0.1297 -0.0106 -0.0473
 5734W        W48672  24.673  16.926  21.047  0.0890  0.1749 -0.1457
 5735W        W48673  26.447  15.734  21.315  0.1782 -0.1406  0.2059
 5736W        W48674  23.286  15.841  21.150 -0.1545  0.0427  0.1608
 5737W        W48675  25.526  14.699  22.234 -0.2973  0.0714 -0.2375
 5738W        W48676  24.298  16.309  21.281  0.1896  0.0433 -0.3187
 5739W        W48677  23.479  17.244  20.524 -0.0336  0.1294  0.2716
 5740W        W48678  23.453  16.603  21.827 -0.1061  0.4251  0.3445
 5741W        W48679  25.787  16.234  21.585 -0.2029 -0.0098  0.0561
 5742W        W48680  26.147  15.323  22.082 -0.0231  0.0183  0.0914
 5743W        W48681  23.114  17.477  22.840  0.0913  0.0182 -0.2291
 5744W        W48682  25.541  16.728  22.365  0.1938 -0.0768 -0.0025
 5745W        W48683  25.930  17.197  21.200  0.1076  0.0955 -0.0081
 5746W        W48684  23.425  14.879  22.416 -0.0167 -0.2326 -0.0828
 5747W        W48685  25.055  19.464  23.666  0.3207  0.0450  0.3511
 5748W        W48686  25.959  15.006  18.809 -0.1253 -0.0001  0.0675
 5749W        W48687  26.145  15.039  23.865 -0.0784  0.0241  0.1005
 5750W        W48688  26.029  16.105  21.098  0.0933 -0.2110 -0.0984
 5751W        W48689  25.217  14.580  19.435 -0.3191 -0.0084 -0.1336
 5752W        W48690  23.530  14.696  20.450  0.3761 -0.1036 -0.1759
 5753W        W48691  26.293  17.965  23.965  0.0268  0.1465 -0.4567
 5754W        W48692  23.980  14.955  19.919  0.0773 -0.0308 -0.2443
 5755W        W48693  25.117  15.973  23.591 -0.1337  0.0638 -0.0325
 5756W        W48694  23.699  18.404  21.065 -0.3639 -0.0463 -0.3684
 5757W        W48695  24.661  17.373  20.728  0.4428  0.2474  0.0567
 5758W        W48696  25.572  15.553  22.275 -0.1292  0.0791 -0.1796
 5759W        W48697  20.907  16.235  18.619 -0.2325 -0.2860  0.1826
 5760W        W48698  23.480  18.204  22.837 -0.0724 -0.2431  0.0559
 5761W        W48699  23.539  14.594  17.881 -0.0688 -0.1242  0.1125
 5762W        W48700  24.304  15.342  20.571  0.2299  0.0456  0.2216
 5763W        W48701  24.967  19.408  22.547 -0.0779 -0.0861  0.2941
 5764W        W48702  24.912  17.173  24.479  0.0930 -0.0314 -0.1793
 5765W        W48703  24.665  13.956  20.707  0.1670  0.2989 -0.0658
 5766W        W48704  26.855  16.277  22.582  0.1566 -0.1695  0.1812
 5767W        W48705  22.813  17.344  19.827  0.0904 -0.1315 -0.2494
 5768W        W48706  24.935  14.784  22.510  0.2496 -0.0600  0.2245
 5769W        W48707  23.519  18.954  20.578  0.0082  0.0158  0.0970
 5770W        W48708  22.240  15.398  21.219  0.0245  0.0223 -0.1459
 5771W        W48709  24.958  17.990  21.451  0.0017  0.0580  0.0656
 5772W        W48710  25.091  16.310  22.583  0.2527 -0.1122 -0.0913
 5773W        W48711  26.031  15.606  21.546 -0.0108  0.0154 -0.2129
 5774W        W48712  25.178  15.443  21.980 -0.1362  0.0374 -0.1458
 5775W        W48713  26.541  18.111  24.413 -0.1826 -0.0986 -0.1526
 5776W        W48714  24.938  16.802  22.307  0.2296  0.0705  0.4156
 5777W        W48715  23.379  16.163  21.542 -0.0429  0.0674 -0.0149
 5778W        W48716  25.841  17.699  22.320 -0.0441  0.0030  0.2063
 5779W        W48717  26.301  16.087  21.664 -0.2158  0.0832  0.1981
 5780W        W48718  25.135  17.720  19.170 -0.0543 -0.0152 -0.1895
 5781W        W48719  23.451  14.840  21.642  0.1665  0.2318 -0.0750
 5782W        W48720  25.418  16.833  23.593 -0.1179  0.3227  0.1812
 5783W        W48721  25.589  16.370  21.134 -0.3345 -0.4880  0.0213
 5784W        W48722  24.720  14.863  20.494  0.1662 -0.0928 -0.1902
 5785W        W48723  25.390  17.446  19.693 -0.1674 -0.2169 -0.0326
 5786W        W48724  23.621  17.515  21.280  0.0358 -0.0757 -0.1330
 5787W        W48725  22.186  17.380  21.126 -0.0003  0.0094  0.1288
 5788W        W48726  22.545  19.097  19.602 -0.2828 -0.0540 -0.2360
 5789W        W48727  25.236  18.155  20.413  0.2540  0.0429 -0.2326
 5790W        W48728  25.667  15.832  20.734 -0.1857 -0.1063  0.1319
 5791W        W48729  25.113  19.441  22.013 -0.1020 -0.0353  0.3970
 5792W        W48730  24.765  15.594  20.816  0.0817 -0.0614  0.0808
 5793W        W48731  24.808  19.115  20.239 -0.1297  0.0765  0.2682
 5794W        W48732  20.613  18.123  17.621 -0.0824  0.3960  0.1653
 5795W        W48733  25.200  18.393  18.988 -0.2485 -0.1013  0.0697
 5796W        W48734  24.193  19.727  19.606  0.0809 -0.0809  0.0049
 5797W        W48735  24.842  16.780  23.497  0.3017 -0.0271  0.2020
 5798W        W48736  25.443  15.465  20.093 -0.0389 -0.4438 -0.2134
 5799W        W48737  26.535  16.422  21.070 -0.0853 -0.1502 -0.0020
 5800W        W48738  26.357  15.340  19.941 -0.0817  0.0392  0.3158
 5801W        W48739  25.888  17.444  22.792  0.1002 -0.5320 -0.0075
 5802W        W48740  23.418  16.743  20.201 -0.0927 -0.2203 -0.3304
 5803W        W48741  23.436  16.183  19.564 -0.0936  0.2810  0.1839
 5804W        W48742  22.968  16.141  22.400  0.0500 -0.0124  0.4279
 5805W        W48743  26.012  15.646  24.345 -0.0524  0.1329  0.2413
 5806W        W48744  23.827  17.962  21.349 -0.0904  0.0562 -0.1627
 5807W        W48745  25.768  18.921  20.387 -0.0972 -0.0317 -0.0487
 5808W        W48746  22.723  15.616  18.914  0.4016  0.1967  0.1917
 5809W        W48747  22.635  15.182  20.226  0.1289  0.1457  0.3050
 5810W        W48748  26.031  14.749  22.835 -0.0714  0.0219 -0.0884
 5811W        W48749  25.526  17.118  21.563  0.0663 -0.2954 -0.1155
 5812W        W48750  24.291  15.549  24.370 -0.3502  0.3840 -0.0865
 5813W        W48751  23.920  18.817  20.843  0.1290 -0.2542  0.2668
 5814W        W48752  24.751  18.104  22.317  0.1006  0.3371 -0.0632
 5815W        W48753  24.596  18.221  21.859  0.1042 -0.0786  0.2929
 5816W        W48754  20.886  14.193  18.291  0.0824 -0.0281 -0.1435
 5817W        W48755  25.626  15.555  21.761 -0.2806 -0.0906 -0.0333
 5818W        W48756  24.188  15.438  23.179 -0.2396 -0.1123  0.0129
 5819W        W48757  25.103  15.339  22.739  0.0749  0.1397 -0.1022
 5820W        W48758  23.346  14.157  20.390 -0.2195  0.0582 -0.0180
 5821W        W48759  25.963  15.661  19.768 -0.2080 -0.0381 -0.0440
 5822W        W48760  24.923  16.731  22.969  0.2087  0.2837 -0.0540
 5823W        W48761  23.402  14.877  21.004  0.0591 -0.0090  0.1576
 5824W        W48762  24.444  16.347  20.276  0.0061  0.0992 -0.0616
 5825W        W48763  26.760  16.208  22.044  0.2823  0.0007  0.1306
 5826W        W48764  24.622  16.640  19.901  0.1810  0.4721 -0.0622
 5827W        W48765  25.104  18.324  22.001 -0.0607 -0.1381 -0.1272
 5828W        W48766  23.575  16.058  20.636 -0.2659 -0.0553  0.3113
 5829W        W48767  26.135  14.941  20.182  0.0832  0.1717 -0.1700
 5830W        W48768  22.314  17.694  19.780  0.0449 -0.0619  0.1049
 5831W        W48769  25.239  16.981  22.612  0.0775 -0.1912 -0.2391
 5832W        W48770  24.954  18.982  23.719  0.0857  0.1070 -0.0407
 5833W        W48771  22.286  14.422  20.050  0.0720 -0.1649 -0.0457
 5834W        W48772  24.595  17.348  21.439  0.0440  0.1160 -0.2634
 5835W        W48773  26.822  17.085  21.388 -0.0102 -0.2465  0.0026
 5836W        W48774  23.813  17.529  20.797  0.2812  0.2199 -0.0903
 5837W        W48775  24.810  17.698  20.367  0.1845  0.2680  0.0881
 5838W        W48776  25.057  17.788  20.815  0.0853  0.0650  0.4910
 5839W        W48777  23.760  15.360  22.262  0.0203 -0.0414 -0.1291
 5840W        W48778  26.376  18.203  21.836 -0.2208 -0.2218  0.0970
 5841W        W48779  25.913  18.847  22.360  0.3218  0.1360 -0.0398
 5842W        W48780  24.952  14.607  21.439 -0.0768 -0.1947 -0.1131
 5843W        W48781  22.974  15.477  21.674 -0.2482  0.0180  0.0885
 5844W        W48782  23.706  18.927  19.866  0.1434  0.0375  0.1678
 5845W        W48783  25.689  16.457  23.464 -0.1647 -0.3319  0.1600
 5846W        W48784  26.116  15.303  22.987  0.0460  0.1850  0.1487
 5847W        W48785  24.804  17.027  20.152  0.0825  0.0725  0.0055
 5848W        W48786  26.190  13.762  24.268 -0.1070 -0.1343  0.3898
 5849W        W48787  24.001  17.287  22.181 -0.0218  0.0538  0.3188
 5850W        W48788  24.034  17.344  23.644  0.0462  0.0664 -0.0122
 5851W        W48789  22.311  15.960  18.980  0.0353  0.1783  0.0188
 5852W        W48790  25.616  16.491  22.808  0.1470 -0.0725 -0.2418
 5853W        W48791  23.921  17.486  20.326  0.1038 -0.1063 -0.1310
 5854W        W48792  24.484  18.680  20.381  0.4681  0.3091  0.2363
 5855W        W48793  25.905  19.133  21.613  0.0393 -0.2290  0.0925
 5856W        W48794  24.905  16.771  21.794  0.2800 -0.0731  0.2143
 5857W        W48795  25.610  18.715  22.962 -0.1489  0.0581  0.1343
 5858W        W48796  24.471  15.834  21.142  0.0950 -0.0365  0.0053
 5859W        W48797  25.413  14.174  22.282 -0.0430 -0.0979  0.1438
 5860W        W48798  23.737  15.499  21.021  0.2648  0.1341 -0.0004
 5861W        W48799  23.662  17.065  21.004  0.1651 -0.0737  0.1615
 5862W        W48800  23.037  15.408  18.453  0.1808 -0.1280  0.0685
 5863W        W48801  24.166  17.764  19.347  0.0311 -0.2860  0.1314
 5864W        W48802  23.060  15.335  20.862  0.1021 -0.1189 -0.2530
 5865W        W48803  24.109  16.022  24.559  0.0349  0.1119  0.2037
 5866W        W48804  24.106  13.757  22.880 -0.3970  0.2111  0.2100
 5867W        W48805  22.553  16.894  19.943 -0.0649  0.0927 -0.1331
 5868W        W48806  24.095  14.594  20.963 -0.1353  0.0046 -0.0412
 5869W        W48807  25.878  18.160  20.246  0.2297 -0.0440 -0.0589
 5870W        W48808  23.434  15.230  20.601  0.1271 -0.2060  0.1015
 5871W        W48809  23.046  14.944  20.472  0.1990  0.2207 -0.1597
 5872W        W48810  24.510  18.524  20.862  0.0639  0.0451  0.0189
 5873W        W48811  25.382  19.335  21.631  0.2002 -0.0952  0.1698
 5874W        W48812  24.697  15.200  21.219  0.0402 -0.0260  0.0469
 5875W        W48813  26.164  17.994  23.414 -0.0723 -0.1053 -0.2126
 5876W        W48814  22.367  16.963  19.091  0.0764 -0.2232 -0.2931
 5877W        W48815  23.372  15.679  24.098  0.0927 -0.0162 -0.1554
 5878W        W48816  24.243  15.844  22.899 -0.2946  0.2253 -0.1268
 5879W        W48817  22.886  14.916  19.865  0.1983 -0.0179 -0.1292
 5880W        W48818  24.387  16.747  23.282 -0.2393 -0.0966  0.0278
 5881W        W48819  25.348  19.823  20.582  0.1520  0.0137 -0.0761
 5882W        W48820  25.833  16.791  20.277 -0.1612  0.0838 -0.1214
 5883W        W48821  24.650  17.673  22.712  0.2178 -0.0150 -0.0053
 5884W        W48822  23.396  17.163  21.975 -0.0342  0.2730  0.1006
 5885W        W48823  22.716  14.322  22.438 -0.0346  0.0939 -0.2039
 5886W        W48824  25.550  15.142  20.828  0.0711  0.0678  0.1073
 5887W        W48825  24.338  16.805  22.109 -0.0164  0.1659  0.2184
 5888W        W48826  26.572  17.959  19.090  0.2380  0.1983 -0.0778
 5889W        W48827  25.324  13.097  22.785 -0.0454 -0.0073  0.2405
 5890W        W48828  23.954  15.984  20.122 -0.3710  0.2259  0.2208
 5891W        W48829  22.535  14.678  23.136 -0.3831 -0.0827 -0.3320
 5892W        W48830  22.923  16.054  23.058  0.0560  0.2226  0.0054
 5893W        W48831  26.311  18.529  22.225 -0.3755 -0.1555  0.0075
 5894W        W48832  24.927  14.727  20.919 -0.0622 -0.0745  0.0286
 5895W        W48833  25.260  14.177  20.778 -0.2330 -0.1646 -0.1223
 5896W        W48834  23.910  16.894  19.211 -0.0214  0.1788  0.0425
 5897W        W48835  22.242  17.267  20.585  0.0907 -0.2297  0.0134
 5898W        W48836  25.269  15.574  20.966  0.0904  0.1851  0.0651
 5899W        W48837  25.226  16.450  22.037 -0.0793 -0.5499 -0.0440
 5900W        W48838  24.230  17.188  20.935  0.3168 -0.0045 -0.0257
 5901W        W48839  26.026  17.464  23.284 -0.0176  0.1453  0.1150
 5902W        W48840  22.857  16.143  20.191 -0.1147  0.0167 -0.1179
 5903W        W48841  25.160  17.350  20.378  0.0658  0.0246  0.3444
 5904W        W48842  24.858  17.229  22.769  0.0066  0.1540 -0.0719
 5905W        W48843  26.089  19.345  23.834 -0.0913  0.4282 -0.0381
 5906W        W48844  25.890  18.216  22.513  0.1012 -0.1899  0.1524
 5907W        W48845  25.994  16.051  22.873  0.2690  0.0326 -0.0000
 5908W        W48846  23.710  13.425  20.437  0.2831 -0.1456  0.0365
 5909W        W48847  23.187  17.591  19.222 -0.0143 -0.0430  0.1322
 5910W        W48848  24.324  17.736  20.619  0.1525  0.0617  0.0751
 5911W        W48849  26.463  15.306  22.561  0.2226 -0.0126  0.2141
 5912W        W48850  23.977  13.690  20.797 -0.2888 -0.3650  0.0054
 5913W        W48851  25.160  13.071  21.366  0.1574 -0.0482  0.3723
 5914W        W48852  25.114  18.817  21.867  0.1730 -0.1045  0.2641
 5915W        W48853  24.667  16.131  21.579  0.0237  0.0949  0.0447
 5916W        W48854  23.812  17.643  26.141  0.1523  0.1048 -0.1532
 5917W        W48855  23.553  16.483  24.397 -0.0845  0.0526  0.3599
 5918W        W48856  27.119  15.242  23.457 -0.0709  0.1808 -0.0899
 5919W        W48857  26.796  17.383  25.402  0.1016  0.2827  0.2023
 5920W        W48858  21.949  15.439  22.782  0.2072 -0.0907  0.0127
 5921W        W48859  24.967  17.782  25.821 -0.0552 -0.0928  0.3040
 5922W        W48860  23.470  14.685  26.405  0.4350 -0.2055  0.1243
 5923W        W48861  24.888  17.615  24.144 -0.2767 -0.0837 -0.0120
 5924W        W48862  26.347  18.425  27.178  0.2634  0.0958  0.0348
 5925W        W48863  25.778  16.872  21.924  0.1395 -0.0158 -0.3291
 5926W        W48864  23.334  15.543  24.845 -0.1015 -0.0487  0.0139
 5927W        W48865  22.469  17.113  25.782  0.1077  0.0347 -0.0818
 5928W        W48866  23.036  16.055  23.797  0.0137 -0.1134  0.1108
 5929W        W48867  22.324  14.135  23.123 -0.0469  0.1778  0.1395
 5930W        W48868  25.161  18.174  25.596 -0.2717  0.0688  0.1541
 5931W        W48869  22.942  17.005  22.310  0.0219 -0.0258 -0.0922
 5932W        W48870  22.903  15.577  23.995  0.0630  0.2091 -0.1256
 5933W        W48871  23.642  14.915  24.911 -0.0994  0.2823 -0.0178
 5934W        W48872  24.557  18.047  25.365  0.0667  0.4643 -0.1093
 5935W        W48873  23.375  15.526  26.318 -0.0607 -0.0790 -0.3700
 5936W        W48874  25.686  15.613  27.388 -0.0237 -0.0175  0.3178
 5937W        W48875  24.620  17.221  25.363 -0.1031 -0.0518 -0.0693
 5938W        W48876  22.184  14.946  20.518  0.2253 -0.2111  0.2714
 5939W        W48877  23.503  15.294  24.375  0.2414 -0.2925 -0.1747
 5940W        W48878  23.256  15.881  25.669 -0.3244  0.1833 -0.0840
 5941W        W48879  25.393  15.677  25.917  0.2394  0.0825 -0.1088
 5942W        W48880  26.019  16.125  24.428 -0.1511 -0.2873 -0.0109
 5943W        W48881  24.478  17.652  26.079  0.2332 -0.1374  0.1333
 5944W        W48882  24.582  17.681  24.548  0.0277  0.0721  0.0247
 5945W        W48883  26.807  15.898  26.528  0.2702  0.0026  0.1380
 5946W        W48884  22.245  16.167  25.076 -0.2343  0.1178  0.1871
 5947W        W48885  22.300  18.279  23.827  0.1847 -0.2479 -0.4359
 5948W        W48886  22.978  17.514  23.400 -0.0033 -0.1000  0.1325
 5949W        W48887  25.471  17.789  25.417 -0.1665  0.1199 -0.0922
 5950W        W48888  25.988  16.544  26.432  0.1109  0.3347 -0.1879
 5951W        W48889  22.536  17.928  26.684 -0.0304  0.1610 -0.1095
 5952W        W48890  22.752  17.764  21.665 -0.0617 -0.1899 -0.0326
 5953W        W48891  23.057  17.411  27.389 -0.0924 -0.3360  0.0731
 5954W        W48892  23.198  18.057  27.035  0.2810  0.1574  0.0124
 5955W        W48893  22.509  15.750  25.140  0.3331  0.3098  0.3685
 5956W        W48894  25.464  17.350  23.981 -0.1149 -0.0559  0.0089
 5957W        W48895  23.721  18.118  22.373 -0.2510 -0.0367 -0.1035
 5958W        W48896  22.854  16.521  23.533  0.0896 -0.1676 -0.0123
 5959W        W48897  22.612  16.951  28.158 -0.1314  0.1055  0.0089
 5960W        W48898  22.519  16.637  25.391 -0.1614 -0.4753  0.4252
 5961W        W48899  25.307  13.826  27.177 -0.0712 -0.1134  0.2585
 5962W        W48900  23.880  16.846  21.933  0.1124  0.0910  0.1671
 5963W        W48901  26.536  15.578  24.615 -0.3234 -0.0778  0.0992
 5964W        W48902  24.282  16.005  24.056 -0.1644 -0.0344  0.0063
 5965W        W48903  25.978  16.566  24.219 -0.1616  0.0273 -0.1606
 5966W        W48904  25.680  14.076  26.986 -0.2515  0.1043 -0.1968
 5967W        W48905  23.732  18.713  23.317  0.2713  0.0589 -0.1277
 5968W        W48906  23.632  15.528  25.253 -0.0085 -0.1885  0.1658
 5969W        W48907  26.966  15.397  26.514 -0.0502  0.1614 -0.1093
 5970W        W48908  23.706  16.792  24.016  0.0522 -0.0933  0.1888
 5971W        W48909  24.681  15.714  25.265  0.2563 -0.2089 -0.0862
 5972W        W48910  23.063  17.401  24.859 -0.0220  0.1726 -0.1680
 5973W        W48911  22.199  15.724  23.202  0.0343  0.1503  0.0756
 5974W        W48912  24.869  18.003  23.673  0.0095  0.1880 -0.0898
 5975W        W48913  26.656  18.081  25.526 -0.3169  0.1869 -0.0512
 5976W        W48914  23.559  18.121  24.235 -0.2961  0.1057  0.0100
 5977W        W48915  24.351  16.431  21.800 -0.2456  0.3369 -0.1090
 5978W        W48916  22.222  15.686  26.359  0.1808  0.2915 -0.2356
 5979W        W48917  23.078  17.501  23.895  0.0484  0.0882 -0.1195
 5980W        W48918  23.223  16.474  24.044 -0.0050  0.1688 -0.0506
 5981W        W48919  26.367  17.945  27.062  0.0667 -0.1289  0.2614
 5982W        W48920  21.861  17.114  26.210  0.1181 -0.1581  0.3696
 5983W        W48921  26.898  15.165  25.894 -0.1619 -0.2547  0.0719
 5984W        W48922  22.382  15.840  24.660  0.0806 -0.0673  0.2690
 5985W        W48923  24.390  16.792  25.798 -0.2182 -0.1614 -0.0802
 5986W        W48924  23.920  16.789  23.481 -0.1365 -0.0842  0.1021
 5987W        W48925  25.418  15.758  24.959  0.1080  0.0038  0.1274
 5988W        W48926  24.897  15.874  24.838  0.0736 -0.2037 -0.0800
 5989W        W48927  23.446  16.224  22.244 -0.2348  0.1708 -0.1561
 5990W        W48928  24.365  17.450  24.157 -0.4245  0.0085 -0.3684
 5991W        W48929  24.228  17.896  26.497  0.2184  0.2049  0.0733
 5992W        W48930  25.572  16.319  24.022  0.1278  0.2778  0.1098
 5993W        W48931  22.690  17.172  23.936  0.2191 -0.0572  0.3112
 5994W        W48932  23.438  16.343  25.755 -0.0243  0.3103  0.0027
 5995W        W48933  23.527  17.259  27.129  0.1816 -0.1166 -0.1799
 5996W        W48934  22.815  18.549  21.703  0.0344 -0.0897  0.2342
 5997W        W48935  21.850  17.642  22.814 -0.1616 -0.0671  0.0492
 5998W        W48936  23.206  17.628  22.051  0.0492 -0.1255 -0.0710
 5999W        W48937  21.503  14.843  25.567 -0.3760 -0.1246  0.1265
 6000W        W48938  23.445  17.224  25.786  0.1163  0.0772  0.1590
 6001W        W48939  26.346  15.807  23.149  0.1211 -0.0347 -0.1799
 6002W        W48940  21.341  14.063  24.770 -0.0067 -0.4054 -0.0609
 6003W        W48941  25.119  16.511  25.274  0.2639  0.0869 -0.0427
 6004W        W48942  22.619  16.630  22.343  0.2258 -0.0520  0.3344
 6005W        W48943  26.030  17.851  25.165 -0.2840 -0.4269  0.2778
 6006W        W48944  25.046  16.762  24.786 -0.1694 -0.1803  0.1088
 6007W        W48945  24.718  18.155  23.206  0.2803 -0.1591 -0.1192
 6008W        W48946  21.885  15.858  25.414 -0.1277 -0.0978 -0.0572
 6009W        W48947  22.159  16.760  22.597 -0.2736 -0.0349  0.3304
 6010W        W48948  20.773  15.684  25.194 -0.1839  0.3075  0.0749
 6011W        W48949  22.293  14.827  23.588  0.0867  0.4303  0.1484
 6012W        W48950  24.960  15.260  25.666  0.1274  0.2403  0.0066
 6013W        W48951  23.401  14.175  24.074  0.2789  0.0261 -0.0863
 6014W        W48952  24.188  16.427  24.256  0.0380 -0.1039 -0.1348
 6015W        W48953  25.090  17.073  25.213  0.1888  0.1600 -0.2395
 6016W        W48954  22.509  15.626  21.646 -0.4362 -0.0294  0.1191
 6017W        W48955  25.011  15.651  28.056 -0.0625 -0.3452  0.1972
 6018W        W48956  23.377  18.899  22.816  0.3223 -0.2613 -0.0520
 6019W        W48957  25.964  18.596  25.694  0.1403  0.0931 -0.0865
 6020W        W48958  25.234  17.126  25.985 -0.4653 -0.1812  0.0006
 6021W        W48959  21.854  15.217  26.201 -0.0329  0.1544  0.1200
 6022W        W48960  23.816  15.872  23.194 -0.0897 -0.0918 -0.0776
 6023W        W48961  22.137  17.631  23.240 -0.1669 -0.0056 -0.1860
 6024W        W48962  24.821  17.347  26.383 -0.0625 -0.1114 -0.1849
 6025W        W48963  24.116  14.968  25.918 -0.0065  0.1681  0.0311
 6026W        W48964  26.439  19.435  26.175  0.2143  0.0056 -0.2744
 6027W        W48965  24.057  17.442  24.648 -0.2223  0.0817  0.2277
 6028W        W48966  21.234  17.250  25.429  0.2908  0.0118 -0.1110
 6029W        W48967  26.530  15.381  27.270  0.2186  0.1204  0.2659
 6030W        W48968  25.061  16.292  27.445  0.3245  0.2870 -0.2298
 6031W        W48969  24.417  16.998  24.447  0.2838  0.1066 -0.2138
 6032W        W48970  23.755  15.878  23.676 -0.3597 -0.0508 -0.2412
 6033W        W48971  24.733  19.211  26.945  0.2418  0.3544 -0.0330
 6034W        W48972  23.659  19.110  21.975 -0.0421 -0.1188 -0.3027
 6035W        W48973  21.136  16.574  22.795  0.4140 -0.2189 -0.0173
 6036W        W48974  23.690  16.379  25.232  0.1774 -0.1852  0.0195
 6037W        W48975  24.896  15.762  25.696 -0.2828  0.2978  0.1871
 6038W        W48976  20.744  16.064  27.519  0.0120 -0.1802  0.1370
 6039W        W48977  23.837  15.905  26.970  0.0872  0.0231  0.0069
 6040W        W48978  24.250  15.940  23.451 -0.1174 -0.1607  0.0610
 6041W        W48979  22.027  16.829  25.812  0.2343  0.0696  0.1252
 6042W        W48980  26.600  15.535  25.485 -0.1659  0.1105 -0.0419
 6043W        W48981  24.856  16.340  24.901 -0.1408  0.0230  0.2275
 6044W        W48982  26.197  16.342  26.025 -0.0119 -0.1835  0.1092
 6045W        W48983  26.683  18.573  24.839  0.0360  0.4270 -0.1370
 6046W        W48984  23.643  17.295  24.817 -0.0205 -0.3425  0.1565
 6047W        W48985  26.615  15.985  24.341  0.2724 -0.0849  0.1379
 6048W        W48986  20.808  16.216  26.518 -0.2155  0.1408  0.1405
 6049W        W48987  24.253  16.349  22.554 -0.0133  0.0720 -0.0689
 6050W        W48988  23.136  16.435  25.320  0.1033  0.0028 -0.0899
 6051W        W48989  26.590  16.495  23.958 -0.2500  0.1066  0.1844
 6052W        W48990  24.959  19.331  24.968 -0.1099  0.0127  0.2378
 6053W        W48991  22.312  16.770  24.053  0.4642 -0.1147 -0.1411
 6054W        W48992  25.121  18.268  26.590 -0.1061  0.0293 -0.2365
 6055W        W48993  25.989  17.484  24.802 -0.0588  0.2304  0.1470
 6056W        W48994  24.390  15.161  25.487  0.1563 -0.2745  0.3611
 6057W        W48995  24.190  16.918  23.986  0.2506  0.1199  0.0694
 6058W        W48996  25.063  13.949  25.104 -0.2442  0.2607 -0.0285
 6059W        W48997  24.034  18.907  22.257  0.2693  0.0372  0.1076
 6060W        W48998  25.651  15.872  25.522  0.0474 -0.0791  0.2158
 6061W        W48999  25.543  15.250  25.653 -0.1115 -0.0426  0.5149
 6062W        W49000  25.248  16.150  27.939 -0.0368  0.0112  0.0721
 6063W        W49001  25.549  16.326  27.346 -0.2498 -0.1887  0.3623
 6064W        W49002  25.840  16.944  23.343 -0.0075  0.0227  0.1614
 6065W        W49003  23.622  16.339  26.856 -0.0352 -0.1984  0.0101
 6066W        W49004  22.883  16.631  20.221 -0.0468 -0.2481 -0.0930
 6067W        W49005  23.018  15.554  25.963  0.3587 -0.0596 -0.0613
 6068W        W49006  22.325  16.470  26.060 -0.1697  0.0933  0.0767
 6069W        W49007  21.942  19.224  27.025 -0.1637  0.0495  0.1370
 6070W        W49008  24.984  16.544  26.478  0.0373  0.2318  0.1056
 6071W        W49009  26.001  16.417  24.873  0.1302 -0.0080  0.1945
 6072W        W49010  23.213  16.600  26.410 -0.1732  0.0931  0.2827
 6073W        W49011  25.214  15.889  24.042 -0.1070  0.1659 -0.0561
 6074W        W49012  24.492  17.650  25.035  0.0259 -0.0356 -0.0758
 6075W        W49013  22.692  17.098  23.257  0.0339 -0.0976 -0.0617
 6076W        W49014  22.780  14.941  26.099  0.1100  0.0305 -0.0711
 6077W        W49015  23.630  16.852  25.041 -0.1418  0.0436 -0.3821
 6078W        W49016  24.540  17.583  23.733  0.2559 -0.3068 -0.1198
 6079W        W49017  23.376  16.934  27.453 -0.1721 -0.1265 -0.0312
 6080W        W49018  23.640  17.570  22.337 -0.0815 -0.6022 -0.1471
 6081W        W49019  24.891  14.823  25.428 -0.1868 -0.0194 -0.0549
 6082W        W49020  22.255  18.020  22.960  0.0058 -0.2116 -0.2010
 6083W        W49021  23.344  16.209  22.744 -0.0643 -0.0517 -0.3481
 6084W        W49022  22.282  16.644  23.194 -0.1058  0.1982  0.1667
 6085W        W49023  26.384  16.477  24.538 -0.2702  0.0845 -0.0146
 6086W        W49024  25.091  17.878  24.529  0.2703 -0.0558 -0.2131
 6087W        W49025  20.672  15.067  26.345 -0.1136  0.4202 -0.0233
 6088W        W49026  24.398  15.681  24.844 -0.2379  0.0026  0.1524
 6089W        W49027  22.572  17.614  24.168  0.0184  0.2658 -0.0828
 6090W        W49028  23.950  17.111  26.633 -0.3194  0.0114  0.3086
 6091W        W49029  24.644  16.331  22.926  0.1032 -0.0093  0.2753
 6092W        W49030  23.310  16.821  26.020  0.0668 -0.2051  0.0076
 6093W        W49031  24.870  16.682  27.283  0.0394  0.2669 -0.1047
 6094W        W49032  22.404  14.565  21.404  0.2349  0.1842  0.3204
 6095W        W49033  25.762  16.115  26.285 -0.1110 -0.0103 -0.1905
 6096W        W49034  23.608  16.430  23.699 -0.2098  0.1846 -0.2232
 6097W        W49035  23.825  17.244  23.197  0.2493 -0.1919 -0.1744
 6098W        W49036  24.686  18.013  27.416  0.2514  0.2457 -0.1366
 6099W        W49037  23.254  16.551  23.187 -0.0325  0.0714  0.0376
 6100W        W49038  24.549  17.152  24.862 -0.1086  0.0110  0.0274
 6101W        W49039  21.412  15.205  25.892 -0.0298 -0.1765  0.1089
 6102W        W49040  25.705  17.144  25.686 -0.0753 -0.1246  0.2424
 6103W        W49041  22.888  15.362  24.916  0.1887 -0.0240  0.1001
 6104W        W49042  23.162  14.932  24.737 -0.0161 -0.2365 -0.2315
 6105W        W49043  24.150  15.319  25.119 -0.3130 -0.1513 -0.0135
 6106W        W49044  24.679  16.713  25.237  0.1844 -0.1393 -0.2863
 6107W        W49045  22.833  16.771  26.199 -0.0356 -0.0323  0.0158
 6108W        W49046  21.296  16.921  27.008  0.0241  0.1273  0.0824
 6109W        W49047  24.810  15.217  25.120 -0.0507  0.2308  0.0262
 6110W        W49048  25.270  19.716  24.089  0.3084 -0.1828  0.1092
 6111W        W49049  25.204  16.112  26.284 -0.0048  0.1476  0.1916
 6112W        W49050  24.525  16.844  22.620  0.0339 -0.0176 -0.0239
 6113W        W49051  23.403  17.089  24.207 -0.0620  0.0925 -0.2057
 6114W        W49052  23.901  17.233  24.173 -0.0818 -0.1664 -0.0602
 6115W        W49053  23.372  15.996  25.152  0.3821  0.1453  0.0115
 6116W        W49054  22.438  16.153  25.536  0.1431 -0.0387  0.2116
 6117W        W49055  23.230  18.106  22.039  0.1590  0.1987 -0.1649
 6118W        W49056  22.231  16.233  24.140  0.0510  0.3070 -0.1187
 6119W        W49057  26.581  13.403  24.359 -0.2028 -0.0861  0.1155
 6120W        W49058  24.858  17.092  23.953  0.0312  0.0667 -0.2542
 6121W        W49059  22.324  15.288  24.929 -0.3430  0.2408 -0.0702
 6122W        W49060  25.314  16.073  26.856  0.1958 -0.0543 -0.0509
 6123W        W49061  25.567  15.953  24.479  0.0443  0.1197 -0.0955
 6124W        W49062  24.524  15.252  27.941 -0.2140 -0.2116 -0.0694
 6125W        W49063  21.524  14.047  24.297  0.0051 -0.1246  0.2438
 6126W        W49064  25.284  18.163  26.077  0.0909  0.2362 -0.1528
 6127W        W49065  20.264  13.901  24.178 -0.1970 -0.1173  0.0946
 6128W        W49066  25.476  17.845  26.875  0.2167  0.0512 -0.1155
 6129W        W49067  24.545  16.248  27.379 -0.0403  0.1949 -0.3150
 6130W        W49068  23.413  16.805  25.530 -0.1724 -0.0601  0.3074
 6131W        W49069  24.216  15.081  23.631 -0.0502 -0.0188 -0.1994
 6132W        W49070  22.891  16.840  25.706  0.0123  0.1409 -0.1142
 6133W        W49071  26.024  16.811  25.814 -0.2045 -0.0434 -0.0903
 6134W        W49072  23.690  17.866  24.788  0.0432 -0.1310  0.3774
 6135W        W49073  25.775  16.376  25.795 -0.1244 -0.1768 -0.0096
 6136W        W49074  22.003  16.411  25.418 -0.2533  0.2351  0.1653
 6137W        W49075  24.496  16.594  24.704  0.2699 -0.4955 -0.0569
 6138W        W49076  23.079  16.632  22.686  0.0451  0.2742  0.2106
 6139W        W49077  23.248  16.953  24.708 -0.5159 -0.1159 -0.1174
 6140W        W49078  23.755  15.822  26.005 -0.1545  0.3893 -0.3510
 6141W        W49079  25.594  17.711  24.879  0.1398  0.1147 -0.4158
 6142W        W49080  24.722  16.181  25.451  0.0058  0.1946  0.1038
 6143W        W49081  25.730  14.757  25.823 -0.2990 -0.1594 -0.1983
 6144W        W49082  24.435  16.894  26.620  0.1209 -0.0692  0.1401
 6145W        W49083  22.937  17.203  26.520  0.1788 -0.2026 -0.3654
 6146W        W49084  21.287  15.040  25.158  0.2013 -0.1206  0.0564
 6147W        W49085  24.916  17.015  26.905  0.0259 -0.4885  0.2147
 6148W        W49086  26.923  16.947  23.409 -0.1305  0.0805  0.4057
 6149W        W49087  26.636  15.953  25.706  0.2632  0.1393 -0.0007
 6150W        W49088  25.095  16.201  24.370  0.2441 -0.0931 -0.3156
 6151W        W49089  24.759  16.453  25.882 -0.0113 -0.2975 -0.0245
 6152W        W49090  22.820  14.916  25.153 -0.1314  0.2005  0.0191
 6153W        W49091  25.861  16.404  27.999  0.1017 -0.0613 -0.2516
 6154W        W49092  23.708  16.351  23.164 -0.0871 -0.0887  0.0901
 6155W        W49093  24.804  16.880  26.156 -0.2726 -0.3137 -0.0890
 6156W        W49094  23.582  17.605  21.762  0.0192 -0.0764  0.0555
 6157W        W49095  22.744  16.392  24.958 -0.2863  0.1544 -0.0965
 6158W        W49096  25.503  16.685  25.009  0.0701 -0.0666 -0.0231
 6159W        W49097  21.876  15.145  25.115  0.0227  0.0998  0.0161
 6160W        W49098  22.112  18.688  26.290  0.1367  0.3132 -0.3201
 6161W        W49099  22.606  15.233  22.033  0.2921  0.0835  0.0832
 6162W        W49100  21.927  16.294  23.326 -0.2150  0.2415 -0.3881
 6163W        W49101  23.979  16.725  26.104  0.0696 -0.3042  0.0275
 6164W        W49102  26.085  17.349  25.992 -0.0579  0.2433 -0.3639
 6165W        W49103  23.607  15.978  24.582  0.2591 -0.0574 -0.1784
 6166W        W49104  25.770  15.990  28.286 -0.2255 -0.0319  0.2485
 6167W        W49105  23.005  16.851  21.808  0.0902 -0.0628 -0.1056
 6168W        W49106  24.106  16.264  25.940 -0.1659  0.1005 -0.1207
 6169W        W49107  22.735  17.252  25.286  0.3114 -0.1312 -0.1052
 6170W        W49108  21.734  16.229  24.295  0.3672  0.1219  0.0073
 6171W        W49109  24.549  16.576  23.825 -0.1520  0.1359 -0.0070
 6172W        W49110  24.935  15.157  26.312 -0.1486  0.2382 -0.1493
 6173W        W49111  25.184  15.986  25.316 -0.1127 -0.0259  0.1313
 6174W        W49112  24.786  17.305  25.873 -0.3188 -0.1281 -0.4068
 6175W        W49113  26.701  16.487  25.591  0.3049  0.1008 -0.5303
 6176W        W49114  24.898  17.484  27.176 -0.0412  0.0036  0.1888
 6177W        W49115  24.000  15.853  25.036 -0.0024 -0.2126 -0.0269
 6178W        W49116  25.276  16.565  26.980 -0.1325  0.1714  0.0383
 6179W        W49117  25.508  17.564  25.960  0.3760 -0.0552 -0.0292
 6180W        W49118  21.691  16.235  25.055 -0.1543  0.0747 -0.4917
 6181W        W49119  21.673  14.701  25.091 -0.3888  0.1816 -0.0219
 6182W        W49120  24.461  16.482  26.908 -0.5002  0.2100 -0.2534
 6183W        W49121  24.718  18.051  24.867 -0.0535 -0.2538 -0.1572
 6184W        W49122  24.682  16.222  23.410  0.0601  0.1365 -0.2018
 6185W        W49123  24.308  17.849  22.995 -0.0172  0.1247 -0.1858
 6186W        W49124  22.155  17.458  25.966 -0.1246 -0.1481 -0.0743
 6187W        W49125  21.865  16.504  23.917  0.0925 -0.1116  0.1929
 6188W        W49126  23.296  16.422  24.843 -0.2724 -0.0426  0.1378
 6189W        W49127  24.394  18.106  24.111 -0.2709  0.1442  0.0335
 6190W        W49128  25.096  16.463  23.828 -0.3639  0.0364 -0.2413
 6191W        W49129  23.082  17.887  24.635  0.1888  0.1070 -0.5663
 6192W        W49130  22.510  17.757  22.178  0.1251  0.2046 -0.0489
 6193W        W49131  23.030  17.887  24.129 -0.0728  0.0798 -0.0931
 6194W        W49132  22.678  17.331  21.360  0.1007  0.0414  0.2728
 6195W        W49133  25.192  18.726  24.879  0.2660 -0.2791  0.0704
 6196W        W49134  23.122  19.272  24.000 -0.0925 -0.3105  0.0112
 6197W        W49135  26.821  17.797  26.783 -0.0448  0.2043  0.0482
 6198W        W49136  26.808  15.303  24.003  0.2353 -0.1021 -0.0391
 6199W        W49137  25.598  17.176  24.500  0.0352  0.0802 -0.1370
 6200W        W49138  27.395  13.275  24.893  0.0998  0.1852 -0.1584
 6201W        W49139  23.633  17.560  28.118 -0.0304  0.1574 -0.2919
 6202W        W49140  23.044  15.080  24.158  0.1740 -0.1147  0.0412
 6203W        W49141  24.292  16.448  25.459 -0.2592 -0.2493 -0.1648
 6204W        W49142  22.037  17.266  27.351 -0.1357  0.0418  0.0371
 6205W        W49143  26.383  14.634  27.802  0.1391 -0.3302 -0.1228
 6206W        W49144  22.017  18.965  25.277 -0.3330 -0.0293  0.0212
 6207W        W49145  25.955  18.926  24.116  0.3567 -0.2130  0.1641
 6208W        W49146  23.735  16.150  24.090  0.0292  0.3676 -0.0396
 6209W        W49147  22.683  16.414  24.014  0.0754 -0.0319 -0.0929
 6210W        W49148  25.296  15.073  26.687  0.0169  0.1385  0.2397
 6211W        W49149  25.605  17.873  22.782  0.1880  0.1831  0.0748
 6212W        W49150  25.683  16.299  25.292 -0.2895 -0.0973  0.1113
 6213W        W49151  25.229  18.185  24.967  0.0026 -0.2645  0.0129
 6214W        W49152  22.068  15.727  24.246  0.4264 -0.1997 -0.0806
 6215W        W49153  23.912  17.222  25.851 -0.0752 -0.0330  0.2295
 6216W        W49154  24.018  15.014  24.071  0.1302  0.0765 -0.1573
 6217W        W49155  24.571  16.129  24.522  0.3750 -0.3806 -0.1099
 6218W        W49156  22.879  15.961  25.362  0.2730  0.0945 -0.2585
 6219W        W49157  25.483  15.730  26.479 -0.2180  0.0388  0.1367
 6220W        W49158  22.476  15.887  23.903 -0.0493 -0.1910 -0.3755
 6221W        W49159  25.354  16.239  24.846  0.1352  0.1142 -0.0625
 6222W        W49160  23.206  17.663  26.220  0.1242 -0.1838  0.0543
 6223W        W49161  23.003  17.219  25.987  0.3046  0.0636  0.0159
 6224W        W49162  22.135  15.698  22.272  0.2310 -0.3926 -0.2185
 6225W        W49163  26.314  16.102  26.711 -0.1335 -0.0437  0.0269
 6226W        W49164  26.212  16.536  23.598 -0.1445 -0.0378 -0.0889
 6227W        W49165  25.263  17.380  26.751  0.2644  0.1737 -0.2065
 6228W        W49166  23.556  14.661  24.262  0.1353 -0.3458  0.1669
 6229W        W49167  26.204  17.059  24.364  0.0748 -0.0405 -0.0800
 6230W        W49168  22.982  16.822  25.124  0.1129 -0.0035  0.0282
 6231W        W49169  21.934  15.674  24.952  0.1513 -0.0169  0.1969
 6232W        W49170  25.029  18.151  27.159 -0.0052 -0.2883 -0.0347
 6233W        W49171  23.891  13.888  24.190  0.0769  0.2251 -0.0037
 6234W        W49172  24.462  17.135  23.576 -0.0559  0.2299  0.1706
 6235W        W49173  26.388  16.081  24.806  0.2838 -0.1607 -0.0184
 6236W        W49174  24.958  17.219  23.324  0.0535 -0.0281 -0.0893
 6237W        W49175  26.368  17.632  25.466  0.1524  0.2467 -0.3645
 6238W        W49176  24.293  17.606  25.560 -0.1839  0.1783  0.2648
 6239W        W49177  21.568  15.172  23.509  0.3180  0.1087  0.1706
 6240W        W49178  24.554  18.768  27.044  0.0421  0.0258  0.0544
 6241W        W49179  26.525  17.951  26.373  0.1600  0.1981  0.0489
 6242W        W49180  22.842  16.803  24.281 -0.0680 -0.1604  0.0244
 6243W        W49181  22.426  16.464  24.474 -0.0800 -0.0264 -0.1443
 6244W        W49182  23.805  18.198  23.216 -0.2933 -0.0846  0.2641
 6245W        W49183  26.835  15.914  25.075 -0.0964  0.1866  0.1091
 6246W        W49184  25.491  16.461  26.479 -0.0299  0.2444  0.0758
 6247W        W49185  25.093  17.898  22.593 -0.1806 -0.2278  0.0688
 6248W        W49186  22.506  16.537  27.909  0.1648 -0.0286 -0.4445
 6249W        W49187  24.347  17.123  26.198 -0.1111 -0.7292 -0.1612
 6250W        W49188  22.652  18.135  27.412  0.0117  0.0402 -0.0854
 6251W        W49189  23.275  17.983  21.548 -0.0033 -0.2741  0.2380
 6252W        W49190  23.266  15.788  26.724  0.0892 -0.2351  0.0912
 6253W        W49191  24.989  17.505  24.903  0.0604 -0.0237 -0.1171
 6254W        W49192  23.436  17.625  24.333  0.2163  0.0415  0.1692
 6255W        W49193  25.166  17.698  26.294 -0.1135 -0.0955  0.0467
 6256W        W49194  22.253  15.951  25.923 -0.1001  0.1949  0.0079
 6257W        W49195  25.628  17.949  26.383 -0.3767 -0.2407  0.3197
 6258W        W49196  21.316  15.517  23.727 -0.0394  0.2122 -0.5640
 6259W        W49197  26.169  15.522  24.897  0.0568 -0.0356  0.0982
 6260W        W49198  25.713  14.852  25.269 -0.2370 -0.0939 -0.0661
 6261W        W49199  22.487  17.641  25.593  0.1974 -0.1113 -0.2900
 6262W        W49200  22.522  16.006  22.704 -0.4027 -0.1745 -0.3617
 6263W        W49201  22.675  17.101  22.732  0.2237 -0.0064 -0.0969
 6264W        W49202  23.625  16.446  26.247 -0.1156  0.0281  0.1085
 6265W        W49203  22.902  16.265  25.815 -0.0500  0.4034 -0.0471
 6266W        W49204  22.538  16.287  26.611  0.1467 -0.0378 -0.0590
 6267W        W49205  22.490  15.335  24.352  0.3356  0.3041  0.0551
 6268W        W49206  24.109  15.563  23.837 -0.3535 -0.2240  0.1196
 6269W        W49207  25.234  18.511  23.819  0.1875 -0.0946  0.0043
 6270W        W49208  22.228  14.851  25.210 -0.3737 -0.0199  0.1540
 6271W        W49209  23.057  15.214  23.692  0.0300 -0.1253  0.0024
 6272W        W49210  23.956  17.733  24.205  0.0146 -0.1336  0.1007
 6273W        W49211  25.978  16.767  25.313  0.1377  0.0304 -0.0155
 6274W        W49212  23.987  15.420  25.628 -0.1133  0.1632 -0.1345
 6275W        W49213  25.877  17.447  26.902  0.2255  0.3615  0.0843
 6276W        W49214  22.605  16.467  22.800 -0.0229  0.0490 -0.1265
 6277W        W49215  23.396  15.944  27.148  0.0085 -0.3092 -0.2076
 6278W        W49216  23.233  16.160  26.213  0.2027  0.1824  0.1201
 6279W        W49217  24.711  15.696  23.357 -0.0163  0.2524  0.1646
 6280W        W49218  22.546  15.680  25.676  0.1872  0.0544 -0.3152
 6281W        W49219  22.937  17.302  24.356 -0.2347  0.3658 -0.0650
 6282W        W49220  25.505  18.467  26.396 -0.1375 -0.0114 -0.0111
 6283W        W49221  23.919  16.659  25.612  0.3226 -0.0989  0.0126
 6284W        W49222  24.114  17.924  25.918 -0.1695  0.0847 -0.0866
 6285W        W49223  21.512  15.148  24.177 -0.0183  0.1029 -0.1962
 6286W        W49224  25.351  16.999  23.091 -0.0854 -0.2965  0.2099
 6287W        W49225  26.130  17.674  26.547 -0.0984 -0.0178 -0.3607
 6288W        W49226  26.378  17.530  23.628 -0.1507  0.4036 -0.2353
 6289W        W49227  25.459  14.519  26.934 -0.4948  0.2299 -0.0096
 6290W        W49228  24.163  17.976  24.611  0.1476  0.1168  0.3484
 6291W        W49229  20.145  14.763  24.856  0.3816 -0.2361  0.0411
 6292W        W49230  22.245  17.115  25.335 -0.2329  0.0063  0.0791
 6293W        W49231  25.228  16.616  26.038 -0.0899 -0.3557  0.0878
 6294W        W49232  24.562  14.607  25.131 -0.1863  0.1218 -0.0212
 6295W        W49233  25.229  16.427  23.269  0.2371  0.2147  0.0282
 6296W        W49234  23.670  17.710  22.800  0.2449 -0.0771  0.1565
 6297W        W49235  21.911  15.547  25.767 -0.4437  0.3200 -0.1398
 6298W        W49236  23.164  16.059  24.431  0.1330 -0.1185  0.0831
 6299W        W49237  24.064  16.343  27.229  0.2982 -0.0936 -0.1900
 6300W        W49238  23.994  17.471  26.961  0.0685  0.0718 -0.0770
 6301W        W49239  26.501  17.089  27.385  0.2557 -0.3000 -0.0916
 6302W        W49240  24.758  16.120  24.024  0.4553 -0.3378 -0.1332
 6303W        W49241  26.802  16.762  24.370 -0.0855  0.1125  0.2649
 6304W        W49242  24.612  18.956  26.510 -0.0996  0.0433  0.2085
 6305W        W49243  24.879  18.327  27.855 -0.1676 -0.3475  0.1930
 6306W        W49244  23.902  17.978  26.865 -0.0579  0.2015 -0.0230
 6307W        W49245  25.043  17.779  25.280  0.0049 -0.0460  0.1534
 6308W        W49246  22.111  13.380  24.804 -0.0667 -0.0086  0.1957
 6309W        W49247  23.039  17.047  23.619  0.0848 -0.0855  0.0562
 6310W        W49248  22.787  17.308  21.909 -0.3459  0.1997 -0.0599
 6311W        W49249  24.346  15.826  25.633  0.5094 -0.1285  0.0334
 6312W        W49250  21.770  13.494  25.160  0.0068  0.1892  0.1363
 6313W        W49251  24.135  15.132  24.627 -0.2503  0.0341  0.2211
 6314W        W49252  24.121  16.761  25.001  0.2428 -0.0336 -0.1463
 6315W        W49253  24.392  17.404  26.597  0.0689 -0.1077 -0.0783
 6316W        W49254  20.838  16.446  28.456 -0.3246  0.1137  0.3635
 6317W        W49255  22.701  16.059  27.064 -0.1184 -0.1227 -0.3089
 6318W        W49256  24.907  15.430  27.546  0.2483 -0.1360  0.2300
 6319W        W49257  25.294  16.771  27.512  0.3379  0.1603  0.1693
 6320W        W49258  21.290  16.144  26.234  0.0148 -0.2283 -0.0326
 6321W        W49259  22.252  17.398  27.928 -0.3678  0.0441 -0.1800
 6322W        W49260  21.712  13.207  29.003 -0.1851  0.2564 -0.0012
 6323W        W49261  24.376  17.347  30.254 -0.1924 -0.2308  0.1007
 6324W        W49262  24.604  16.853  29.444  0.1381  0.1697 -0.3781
 6325W        W49263  24.471  16.510  26.281  0.1692 -0.0308  0.1718
 6326W        W49264  23.614  17.066  29.879  0.1192 -0.0611 -0.0730
 6327W        W49265  21.982  18.080  30.406 -0.0190  0.0115  0.1590
 6328W        W49266  23.255  14.533  27.447  0.2172 -0.1338 -0.1331
 6329W        W49267  20.900  15.242  28.926  0.0004  0.3720 -0.0738
 6330W        W49268  23.514  15.223  29.692  0.0110  0.1617 -0.3163
 6331W        W49269  22.420  16.944  27.641 -0.2766  0.0951  0.0747
 6332W        W49270  21.999  14.115  29.550  0.0180 -0.0699  0.1426
 6333W        W49271  23.072  14.991  27.523  0.1607  0.0435  0.1021
 6334W        W49272  23.170  16.957  27.971  0.2433  0.1384 -0.2956
 6335W        W49273  22.154  14.875  29.367  0.0360 -0.1400  0.0853
 6336W        W49274  23.510  13.524  29.107 -0.2348 -0.2213 -0.0504
 6337W        W49275  23.409  17.982  28.174  0.1483  0.0572 -0.4906
 6338W        W49276  21.946  15.363  24.525 -0.2570  0.0622  0.2180
 6339W        W49277  20.909  15.404  28.070  0.0437 -0.0441 -0.0525
 6340W        W49278  21.036  15.999  28.714 -0.0670 -0.2035  0.0810
 6341W        W49279  25.521  14.396  30.654 -0.0779 -0.2034 -0.0833
 6342W        W49280  25.472  16.776  28.830  0.1538 -0.0230 -0.1107
 6343W        W49281  22.477  17.711  29.664  0.3319  0.2806 -0.1432
 6344W        W49282  23.343  17.415  29.510 -0.0907 -0.4477  0.3526
 6345W        W49283  24.609  15.228  31.091  0.2475 -0.0332 -0.0366
 6346W        W49284  21.511  17.132  28.344  0.1148 -0.1557  0.0727
 6347W        W49285  21.108  16.899  28.577  0.2813 -0.1932 -0.0827
 6348W        W49286  22.984  16.341  27.695  0.4261 -0.1430 -0.1268
 6349W        W49287  25.138  17.197  27.983 -0.0784 -0.1918  0.0885
 6350W        W49288  24.706  17.665  31.614 -0.2206 -0.0794 -0.1566
 6351W        W49289  21.579  18.034  27.984 -0.0400  0.2554  0.0479
 6352W        W49290  22.798  15.736  26.591 -0.2138 -0.0559 -0.0276
 6353W        W49291  21.004  18.159  30.600 -0.0049 -0.0047  0.3525
 6354W        W49292  22.201  18.040  28.642 -0.0472 -0.2214  0.0105
 6355W        W49293  23.280  16.445  31.066 -0.2302 -0.1337  0.1724
 6356W        W49294  22.946  17.954  28.643  0.1398 -0.0103  0.2225
 6357W        W49295  22.005  17.198  26.824 -0.1546 -0.1998 -0.0127
 6358W        W49296  25.606  17.264  30.124  0.0269 -0.1156 -0.0893
 6359W        W49297  23.702  16.870  28.749  0.0120  0.2316 -0.3643
 6360W        W49298  21.146  17.232  28.032 -0.3265  0.1518  0.3725
 6361W        W49299  23.182  16.259  29.970 -0.2350 -0.1686  0.0122
 6362W        W49300  22.353  17.143  26.332 -0.1991 -0.1450 -0.0150
 6363W        W49301  23.822  16.688  27.429 -0.1022  0.0917 -0.2608
 6364W        W49302  22.939  16.583  27.025  0.0895 -0.1357  0.0779
 6365W        W49303  24.902  16.461  28.399  0.1475  0.0519 -0.1161
 6366W        W49304  22.426  13.528  29.062  0.4243 -0.1156 -0.0398
 6367W        W49305  20.632  16.740  26.408 -0.2017  0.2491 -0.0977
 6368W        W49306  23.755  15.370  28.800  0.1401 -0.1361 -0.1213
 6369W        W49307  25.205  18.077  31.160 -0.4718 -0.0771  0.0796
 6370W        W49308  21.988  16.622  27.580 -0.3052 -0.2555  0.1067
 6371W        W49309  23.061  15.681  28.656 -0.1912 -0.2188 -0.0442
 6372W        W49310  20.859  15.967  28.046 -0.0273 -0.0369 -0.1067
 6373W        W49311  20.698  14.829  28.639 -0.2209 -0.1819  0.0744
 6374W        W49312  24.751  18.622  28.254  0.2498  0.2001  0.2425
 6375W        W49313  25.547  17.664  27.366  0.1265  0.0452 -0.3435
 6376W        W49314  24.946  16.874  25.649 -0.0367 -0.1884 -0.5551
 6377W        W49315  22.545  15.245  28.115 -0.1365 -0.2324  0.2172
 6378W        W49316  22.429  16.587  29.436 -0.3337 -0.0779 -0.0124
 6379W        W49317  21.556  16.255  29.857 -0.0125 -0.2414 -0.1475
 6380W        W49318  22.684  15.897  27.748 -0.3421  0.0224  0.0661
 6381W        W49319  25.715  15.967  31.151 -0.0198  0.0747 -0.2655
 6382W        W49320  19.559  16.174  28.778 -0.1899 -0.2468  0.0429
 6383W        W49321  24.626  16.728  28.878  0.4116 -0.2710  0.0452
 6384W        W49322  20.691  14.945  26.987  0.2096 -0.1022  0.0562
 6385W        W49323  24.411  16.915  29.880 -0.1207  0.0460 -0.0408
 6386W        W49324  26.036  16.309  27.482  0.1956  0.0790 -0.2903
 6387W        W49325  24.449  15.022  29.771  0.1377 -0.1818 -0.0079
 6388W        W49326  23.816  14.973  30.569  0.4451  0.0303  0.1209
 6389W        W49327  22.278  14.557  27.355 -0.2718  0.2360 -0.2194
 6390W        W49328  22.722  16.063  28.637 -0.1049  0.0683 -0.2242
 6391W        W49329  26.676  16.570  29.438  0.0736 -0.1777  0.2934
 6392W        W49330  25.894  16.528  26.980  0.0842 -0.2823 -0.2292
 6393W        W49331  21.169  16.582  29.759 -0.1005 -0.1279  0.0458
 6394W        W49332  22.770  15.472  29.464 -0.2210 -0.2097  0.2643
 6395W        W49333  24.714  18.564  30.451 -0.0411 -0.0186  0.1984
 6396W        W49334  21.179  17.940  26.102  0.0117  0.1183  0.1135
 6397W        W49335  21.430  16.644  27.541 -0.3113  0.2748  0.3331
 6398W        W49336  22.664  16.784  26.669 -0.1572 -0.1708  0.3067
 6399W        W49337  23.071  16.030  28.254  0.1884 -0.1139  0.1512
 6400W        W49338  23.447  16.579  27.824  0.1402 -0.0826  0.3367
 6401W        W49339  24.774  15.576  28.529  0.0343 -0.2033  0.0002
 6402W        W49340  22.250  14.593  30.185  0.1544 -0.0655 -0.1972
 6403W        W49341  25.591  15.591  29.235  0.1016  0.1359  0.1736
 6404W        W49342  21.337  16.376  25.766  0.1350 -0.0425 -0.2144
 6405W        W49343  25.686  18.651  28.782  0.4219 -0.2159  0.0068
 6406W        W49344  24.797  15.752  27.230  0.1716 -0.0971 -0.4448
 6407W        W49345  24.912  17.875  26.759 -0.0007  0.1807  0.1054
 6408W        W49346  21.255  14.713  28.247 -0.1491 -0.0457 -0.2447
 6409W        W49347  21.657  15.145  27.096  0.1187 -0.1238  0.0372
 6410W        W49348  22.083  16.296  28.102  0.1951  0.0806 -0.0609
 6411W        W49349  21.173  14.754  28.781 -0.0376 -0.3481  0.2024
 6412W        W49350  25.489  16.154  31.553  0.3937 -0.1245  0.0928
 6413W        W49351  21.009  14.129  26.766 -0.0001 -0.0047  0.1602
 6414W        W49352  25.413  17.142  28.407 -0.1088 -0.1005 -0.0558
 6415W        W49353  23.548  15.772  28.482  0.0836  0.0094  0.0962
 6416W        W49354  19.662  16.329  25.490 -0.0859 -0.1866  0.2933
 6417W        W49355  23.762  15.880  31.146 -0.3144 -0.2459 -0.4466
 6418W        W49356  23.902  17.418  28.528 -0.1137 -0.2399  0.1392
 6419W        W49357  26.090  17.344  29.518 -0.2195  0.1042 -0.0847
 6420W        W49358  25.496  18.295  29.157  0.0289  0.0524 -0.1015
 6421W        W49359  20.381  15.238  27.949  0.1293  0.2418 -0.1140
 6422W        W49360  23.023  16.220  26.689  0.3719  0.0587  0.2066
 6423W        W49361  22.931  17.520  28.230  0.0094  0.2849  0.2452
 6424W        W49362  21.382  15.476  28.801  0.3920 -0.0580 -0.0996
 6425W        W49363  23.837  14.930  28.153  0.1206  0.2453 -0.0246
 6426W        W49364  24.112  17.461  28.992 -0.0208  0.3850  0.2304
 6427W        W49365  23.505  16.205  28.202  0.0315  0.3799 -0.0888
 6428W        W49366  22.165  15.883  28.664 -0.0406  0.3915  0.1054
 6429W        W49367  23.380  15.673  29.001 -0.3313  0.1088 -0.1317
 6430W        W49368  25.699  16.313  28.708  0.0150 -0.1233  0.0483
 6431W        W49369  22.192  15.774  28.147  0.0062  0.2309  0.3058
 6432W        W49370  23.135  15.559  25.330 -0.1461 -0.1785  0.2888
 6433W        W49371  23.767  16.560  29.131  0.2557 -0.1682 -0.0576
 6434W        W49372  21.611  16.416  27.946  0.4322  0.0205 -0.0474
 6435W        W49373  21.576  15.644  27.265  0.1555  0.2366 -0.0858
 6436W        W49374  22.386  17.079  28.687  0.3298  0.2718 -0.0583
 6437W        W49375  25.205  15.580  30.379  0.1377  0.1222 -0.2230
 6438W        W49376  21.421  17.808  29.995  0.0594 -0.0408 -0.0573
 6439W        W49377  24.643  15.891  30.889 -0.2764  0.0101 -0.1443
 6440W        W49378  21.334  15.078  26.359  0.0092 -0.1211  0.0755
 6441W        W49379  20.532  17.281  29.127 -0.3344  0.0850 -0.2057
 6442W        W49380  22.766  14.020  28.038 -0.1372 -0.3099  0.1972
 6443W        W49381  25.596  14.127  27.504 -0.0230 -0.0702 -0.1540
 6444W        W49382  24.281  16.591  29.210  0.3406 -0.1452 -0.0813
 6445W        W49383  24.322  16.712  27.491  0.0206 -0.1807 -0.2384
 6446W        W49384  24.242  15.930  26.376 -0.0700  0.0596 -0.1699
 6447W        W49385  25.242  15.451  28.451  0.0964  0.1592 -0.4376
 6448W        W49386  21.432  18.622  31.438  0.1482 -0.0008 -0.0333
 6449W        W49387  24.074  17.199  29.365 -0.0650 -0.0980 -0.1345
 6450W        W49388  23.606  17.519  28.990  0.0665  0.1085  0.0274
 6451W        W49389  24.164  15.886  27.345  0.0778 -0.0604  0.2886
 6452W        W49390  24.576  17.508  27.568  0.1341 -0.0489  0.3515
 6453W        W49391  21.124  16.284  27.756 -0.0866 -0.0069  0.2110
 6454W        W49392  24.417  16.024  30.042 -0.2499  0.1630 -0.0307
 6455W        W49393  23.619  17.563  31.113 -0.0447  0.0053  0.1414
 6456W        W49394  22.451  15.774  29.034  0.1904  0.3187  0.0602
 6457W        W49395  22.076  16.448  26.982 -0.0245  0.0582 -0.0100
 6458W        W49396  22.396  13.892  29.801 -0.0733  0.2650  0.0543
 6459W        W49397  20.294  16.825  25.991 -0.0299 -0.1609 -0.0983
 6460W        W49398  25.111  15.237  30.060  0.1172  0.1503 -0.4472
 6461W        W49399  22.879  15.908  29.177  0.2390  0.0910 -0.4526
 6462W        W49400  21.934  13.675  29.024 -0.0982 -0.1321  0.0196
 6463W        W49401  26.132  16.720  31.868  0.0919  0.3544  0.2331
 6464W        W49402  23.718  15.964  26.480 -0.0046 -0.0407  0.2579
 6465W        W49403  23.512  15.641  29.977 -0.0240  0.1660 -0.2300
 6466W        W49404  22.409  15.547  26.905 -0.1265 -0.1268 -0.0014
 6467W        W49405  23.238  15.714  29.514 -0.2573 -0.1847 -0.1255
 6468W        W49406  20.964  17.264  29.955 -0.0005  0.1489 -0.1159
 6469W        W49407  22.199  17.507  29.207  0.2044 -0.2988 -0.1058
 6470W        W49408  22.701  17.566  30.173 -0.0692 -0.2860  0.0859
 6471W        W49409  23.757  16.369  28.625  0.2040 -0.1056  0.0438
 6472W        W49410  22.330  14.445  29.678  0.3468 -0.3785 -0.0275
 6473W        W49411  24.003  16.132  29.362  0.0342  0.0263  0.0657
 6474W        W49412  23.898  18.274  27.905 -0.0169  0.0449 -0.1748
 6475W        W49413  25.132  17.791  27.695 -0.2155 -0.1670 -0.1666
 6476W        W49414  22.690  15.333  27.659  0.2801 -0.2445 -0.2525
 6477W        W49415  22.249  16.607  30.178 -0.1262 -0.1120  0.4203
 6478W        W49416  23.400  16.406  27.333 -0.0811  0.3759 -0.0332
 6479W        W49417  23.948  16.821  30.156  0.0677  0.3040  0.1909
 6480W        W49418  22.082  16.837  28.052  0.0098  0.0265  0.0026
 6481W        W49419  24.502  15.098  30.289  0.2381 -0.2647 -0.2023
 6482W        W49420  21.160  17.632  26.478 -0.1007  0.0573 -0.2788
 6483W        W49421  22.382  15.788  27.345 -0.3448  0.0015 -0.0278
 6484W        W49422  19.095  15.109  26.471  0.0376  0.0779 -0.1514
 6485W        W49423  25.421  14.964  28.257  0.3330  0.0220  0.2262
 6486W        W49424  26.671  17.408  28.903  0.1881  0.0155  0.1047
 6487W        W49425  21.849  15.134  30.254  0.2989  0.1647  0.1963
 6488W        W49426  23.638  14.717  27.749  0.1494 -0.1113 -0.1896
 6489W        W49427  18.956  17.289  28.451  0.2078  0.0743 -0.1790
 6490W        W49428  23.065  15.396  29.879  0.4131  0.1066 -0.0001
 6491W        W49429  25.192  16.964  26.473 -0.0866 -0.0420  0.2482
 6492W        W49430  23.466  16.265  31.931  0.2852 -0.0956 -0.2077
 6493W        W49431  23.470  16.900  30.334 -0.4190  0.0738 -0.2203
 6494W        W49432  22.093  15.085  26.889  0.0917 -0.1412  0.1348
 6495W        W49433  26.923  16.785  30.511  0.2435 -0.0263  0.2894
 6496W        W49434  23.245  16.650  29.036 -0.2774 -0.0470 -0.0404
 6497W        W49435  21.940  16.884  28.597  0.4215  0.2158  0.0369
 6498W        W49436  24.387  17.270  28.452 -0.1242 -0.1027  0.1190
 6499W        W49437  21.131  15.209  27.290  0.0978  0.0668  0.0036
 6500W        W49438  24.035  18.017  29.723  0.1052  0.4203  0.2766
 6501W        W49439  21.568  15.691  30.201 -0.0117 -0.0803 -0.1123
 6502W        W49440  24.471  16.863  30.488 -0.0409  0.1133 -0.0599
 6503W        W49441  22.926  16.531  29.563  0.1852 -0.0644  0.0381
 6504W        W49442  21.773  14.817  26.553  0.0676  0.2449  0.2789
 6505W        W49443  23.447  15.286  28.318 -0.5006 -0.1385  0.1254
 6506W        W49444  23.613  17.071  29.275 -0.1707  0.1019 -0.2550
 6507W        W49445  24.678  16.520  31.056 -0.2664 -0.0223 -0.2195
 6508W        W49446  22.590  16.820  29.830 -0.3315  0.2449  0.1120
 6509W        W49447  22.237  15.440  30.301 -0.1680  0.1853  0.2143
 6510W        W49448  25.197  18.669  28.023  0.0277  0.0462  0.1937
 6511W        W49449  25.990  16.345  30.426  0.3569  0.1467 -0.1798
 6512W        W49450  24.024  16.447  26.520 -0.2243  0.1706 -0.0204
 6513W        W49451  20.657  14.813  27.564 -0.0662 -0.3229  0.1085
 6514W        W49452  23.623  17.630  26.613  0.0136 -0.2396  0.0530
 6515W        W49453  21.756  16.598  29.359 -0.3204 -0.1575 -0.0804
 6516W        W49454  22.347  16.350  28.630  0.0251  0.0763  0.0338
 6517W        W49455  23.960  16.533  27.956  0.2182 -0.0915  0.1231
 6518W        W49456  20.054  16.159  29.018 -0.0324 -0.0350 -0.0288
 6519W        W49457  25.475  14.085  28.692 -0.0785  0.0889 -0.1413
 6520W        W49458  25.337  17.645  28.117 -0.1070  0.1076  0.0981
 6521W        W49459  25.073  14.876  27.418  0.0035 -0.1095 -0.1195
 6522W        W49460  24.852  15.076  30.683  0.0352  0.2995 -0.1181
 6523W        W49461  26.024  15.488  27.069 -0.3493  0.0784  0.1897
 6524W        W49462  22.943  15.165  31.157 -0.1758  0.0127 -0.2309
 6525W        W49463  23.118  16.762  29.966 -0.1127  0.3599  0.0506
 6526W        W49464  24.078  16.839  28.360 -0.1018  0.0336 -0.3131
 6527W        W49465  19.913  14.462  28.207 -0.0786  0.0020 -0.0643
 6528W        W49466  22.787  17.814  30.596  0.0008 -0.1023  0.1993
 6529W        W49467  19.962  17.243  29.077 -0.3645  0.2218 -0.2242
 6530W        W49468  24.777  14.526  30.792 -0.2638  0.2473 -0.0793
 6531W        W49469  21.288  14.593  26.490  0.2534 -0.2306  0.0857
 6532W        W49470  22.267  16.175  27.632  0.4010  0.0679 -0.0684
 6533W        W49471  24.690  17.417  28.120 -0.4126  0.1958 -0.0008
 6534W        W49472  22.818  16.579  28.626  0.2035 -0.0785  0.0615
 6535W        W49473  23.908  16.784  29.575 -0.1428 -0.1480  0.0705
 6536W        W49474  20.680  16.466  27.931 -0.0013 -0.0537 -0.0478
 6537W        W49475  25.165  15.760  28.864 -0.0446  0.0214 -0.2685
 6538W        W49476  23.583  14.282  28.666  0.0162  0.0283  0.1272
 6539W        W49477  21.027  16.083  27.004  0.0841  0.1579 -0.1160
 6540W        W49478  22.599  16.310  29.960 -0.0183  0.1005  0.0316
 6541W        W49479  23.989  17.815  30.178 -0.0304 -0.0710 -0.0570
 6542W        W49480  24.155  15.621  29.142  0.1788 -0.3792  0.0182
 6543W        W49481  23.966  14.876  29.611 -0.1887  0.3748  0.1029
 6544W        W49482  24.791  15.431  29.603  0.1851  0.2297  0.0879
 6545W        W49483  21.661  15.008  30.966 -0.1682  0.4061  0.0199
 6546W        W49484  20.495  14.818  29.145  0.1043 -0.3327 -0.2021
 6547W        W49485  24.954  17.598  30.302 -0.0030  0.3314  0.0894
 6548W        W49486  23.759  14.872  28.726  0.4811 -0.0581 -0.2900
 6549W        W49487  25.025  15.553  30.938 -0.2820  0.0866  0.2401
 6550W        W49488  26.012  16.023  29.142 -0.1701  0.2142 -0.3170
 6551W        W49489  23.435  16.745  26.932  0.0749  0.1010 -0.0510
 6552W        W49490  22.222  15.172  28.911 -0.0445  0.1059  0.0332
 6553W        W49491  23.611  16.442  30.149 -0.1985 -0.0791 -0.2126
 6554W        W49492  22.871  15.224  26.922 -0.3871  0.1049  0.0094
 6555W        W49493  22.427  16.248  30.515 -0.0324 -0.0306 -0.0190
 6556W        W49494  24.078  17.502  27.921  0.3081  0.1032  0.2555
 6557W        W49495  22.783  18.058  29.344 -0.2358 -0.1068 -0.2680
 6558W        W49496  24.012  15.786  29.918  0.0882  0.1920 -0.0562
 6559W        W49497  21.712  16.146  27.510 -0.1632  0.3073 -0.0798
 6560W        W49498  23.399  18.624  31.290 -0.0236 -0.3149  0.0985
 6561W        W49499  22.064  15.966  26.842 -0.1348  0.2109  0.0891
 6562W        W49500  23.382  17.072  26.546 -0.1689  0.0798 -0.3691
 6563W        W49501  24.013  16.367  30.465 -0.1086  0.1107  0.2046
 6564W        W49502  24.445  17.576  29.409 -0.1758 -0.0936  0.1870
 6565W        W49503  23.303  15.975  27.648  0.1441  0.0542 -0.1230
 6566W        W49504  23.589  16.080  29.707  0.2722 -0.0419  0.0049
 6567W        W49505  21.642  15.915  28.589  0.2314 -0.2615  0.0431
 6568W        W49506  23.084  15.096  29.471  0.1581 -0.1540  0.0707
 6569W        W49507  22.433  19.255  27.902 -0.0290 -0.0964  0.0581
 6570W        W49508  21.808  16.220  30.269  0.1427 -0.0285  0.1130
 6571W        W49509  23.756  16.185  27.590 -0.0894  0.1653 -0.1710
 6572W        W49510  21.974  14.455  29.204  0.0434  0.1573 -0.0379
 6573W        W49511  25.011  16.310  30.204 -0.1625 -0.1065 -0.2592
 6574W        W49512  24.086  15.376  29.676  0.0785  0.1219 -0.2774
 6575W        W49513  25.205  15.978  28.395  0.3089  0.0278  0.2666
 6576W        W49514  24.256  16.215  31.048 -0.2530 -0.0675  0.0115
 6577W        W49515  21.572  16.524  26.552  0.3988 -0.1861 -0.0121
 6578W        W49516  22.661  18.205  29.780 -0.2897  0.3557 -0.3503
 6579W        W49517  25.771  15.847  30.448 -0.3423 -0.0232 -0.1303
 6580W        W49518  22.173  17.662  26.950 -0.4640 -0.0408  0.0327
 6581W        W49519  22.482  15.762  30.675  0.1500 -0.0269  0.0816
 6582W        W49520  22.850  16.096  30.798  0.0294 -0.0832  0.0988
 6583W        W49521  23.517  14.388  29.666 -0.2648  0.0823  0.0025
 6584W        W49522  22.003  14.815  28.446 -0.0926 -0.0726  0.2377
 6585W        W49523  24.219  15.643  27.949 -0.1348 -0.0950  0.0809
 6586W        W49524  21.493  17.289  30.276 -0.2352  0.1493  0.1319
 6587W        W49525  21.716  15.938  28.061 -0.1437  0.2580  0.0298
 6588W        W49526  21.719  16.872  27.225 -0.1847  0.0430  0.1967
 6589W        W49527  24.614  16.840  28.239 -0.0564  0.1397  0.0248
 6590W        W49528  24.838  16.130  26.957 -0.1432 -0.1851  0.2233
 6591W        W49529  23.868  18.008  31.125 -0.5402 -0.0676 -0.0890
 6592W        W49530  22.971  14.594  29.412  0.0707  0.1091  0.1907
 6593W        W49531  21.266  17.177  29.130 -0.0537  0.2296 -0.1623
 6594W        W49532  21.940  16.787  24.442 -0.0517 -0.2772  0.0176
 6595W        W49533  23.620  16.672  28.267  0.0958 -0.3205  0.2666
 6596W        W49534  22.564  15.568  28.488  0.0099  0.2817 -0.5018
 6597W        W49535  25.141  17.712  30.769 -0.0658  0.0154  0.3398
 6598W        W49536  24.723  15.899  27.714  0.1082  0.1623 -0.0436
 6599W        W49537  25.247  17.239  29.612 -0.1933  0.3884 -0.0176
 6600W        W49538  25.939  15.533  28.032 -0.0092  0.2624 -0.0233
 6601W        W49539  24.290  17.816  30.939 -0.0351 -0.2985  0.0786
 6602W        W49540  23.389  17.649  30.038 -0.1863  0.3548  0.2527
 6603W        W49541  23.661  15.149  26.175  0.1779 -0.1534 -0.1091
 6604W        W49542  22.098  16.915  29.144  0.2288  0.0964 -0.0596
 6605W        W49543  24.641  15.871  31.761 -0.1526  0.0142  0.0245
 6606W        W49544  22.703  18.530  29.245  0.3379  0.2460  0.3533
 6607W        W49545  24.708  18.648  27.505 -0.0914  0.0614  0.3751
 6608W        W49546  21.784  15.519  26.711  0.2147  0.1961 -0.1397
 6609W        W49547  22.732  16.392  29.078 -0.2200 -0.4792  0.1863
 6610W        W49548  26.171  14.887  30.986  0.2553 -0.1191 -0.1509
 6611W        W49549  23.955  16.747  26.926  0.3193 -0.0261 -0.0508
 6612W        W49550  24.528  15.126  29.258 -0.4314  0.2330 -0.3504
 6613W        W49551  22.975  18.318  28.285  0.4000  0.0551  0.0259
 6614W        W49552  21.530  16.646  28.471 -0.2771  0.4583  0.2303
 6615W        W49553  22.841  17.279  27.790  0.1149 -0.0278 -0.0227
 6616W        W49554  22.397  15.201  26.517 -0.1095  0.2462 -0.1337
 6617W        W49555  26.397  16.017  27.235  0.3473  0.1321 -0.0752
 6618W        W49556  21.912  13.183  29.903 -0.0746 -0.0406  0.1158
 6619W        W49557  24.334  13.668  30.975 -0.1677  0.2209 -0.1438
 6620W        W49558  22.845  16.872  27.486 -0.2761  0.0312 -0.1910
 6621W        W49559  24.805  16.080  28.702  0.0127 -0.0025 -0.1212
 6622W        W49560  23.493  16.745  30.802 -0.1350  0.1385  0.2355
 6623W        W49561  20.864  15.557  27.611 -0.1173 -0.2693 -0.0166
 6624W        W49562  23.725  17.049  28.013  0.0203 -0.0683  0.0022
 6625W        W49563  25.481  16.398  30.426 -0.1638 -0.0747 -0.1319
 6626W        W49564  25.167  17.270  27.480 -0.4226  0.0560 -0.3551
 6627W        W49565  23.562  18.938  31.652 -0.0604  0.2390  0.0611
 6628W        W49566  23.115  16.553  28.174  0.1789 -0.0257 -0.1346
 6629W        W49567  23.991  15.978  28.251  0.0478 -0.1599 -0.3090
 6630W        W49568  22.528  16.122  28.220  0.0474 -0.3590 -0.0417
 6631W        W49569  25.470  16.845  30.627  0.1684  0.1966  0.2397
 6632W        W49570  24.650  17.146   0.178  0.0081 -0.1056  0.1854
 6633W        W49571  22.903  15.576  27.265 -0.2368 -0.0493 -0.2439
 6634W        W49572  26.654  18.821  27.761  0.1031 -0.0460 -0.1647
 6635W        W49573  22.153  15.199  29.783  0.3711  0.4588 -0.3136
 6636W        W49574  22.947  18.101  27.851 -0.1997  0.1875 -0.0648
 6637W        W49575  25.965  16.610  29.012 -0.1710 -0.1658  0.1076
 6638W        W49576  22.754  16.887  29.017  0.1937 -0.1860  0.1362
 6639W        W49577  21.446  14.424  29.725  0.0648  0.1426  0.0566
 6640W        W49578  23.532  18.187  30.498  0.1038 -0.4434 -0.0782
 6641W        W49579  25.407  16.614  29.940  0.2185 -0.1688  0.2342
 6642W        W49580  25.416  15.190  27.536  0.3791  0.0815 -0.1929
 6643W        W49581  22.304  17.243  29.641  0.0373  0.0693  0.1719
 6644W        W49582  22.480  17.512  28.388  0.2915 -0.1630 -0.1139
 6645W        W49583  23.952  15.386  28.354  0.0695 -0.1309  0.2112
 6646W        W49584  24.066  16.385  29.907 -0.0507 -0.0083 -0.2143
 6647W        W49585  23.512  17.377  27.662  0.0379 -0.3579  0.2872
 6648W        W49586  25.403  15.086  31.307  0.0860  0.0248 -0.1030
 6649W        W49587  24.579  16.515  31.554 -0.2446  0.0687 -0.1243
 6650W        W49588  21.753  17.277  28.925  0.1741 -0.1341 -0.2235
 6651W        W49589  22.416  16.507  27.357 -0.0288 -0.0833  0.0709
 6652W        W49590  22.626  16.367  31.663 -0.3833  0.2583  0.0925
 6653W        W49591  22.870  17.188  28.605  0.2439  0.0698  0.0480
 6654W        W49592  23.875  18.754  28.027  0.0813 -0.4705 -0.1071
 6655W        W49593  25.184  17.894  28.917  0.0457  0.2264 -0.1227
 6656W        W49594  24.238  16.128  27.796  0.0348  0.0616  0.0576
 6657W        W49595  25.029  17.484  28.564  0.0426  0.0356  0.0079
 6658W        W49596  22.816  14.078  29.125  0.2266 -0.4611  0.0907
 6659W        W49597  25.411  16.185  29.185  0.4536  0.0952  0.6617
 6660W        W49598  25.737  14.977  27.821 -0.1451  0.2279 -0.2378
 6661W        W49599  20.927  17.693  30.204 -0.2122 -0.0293  0.0211
 6662W        W49600  22.069  16.166  26.377  0.0784 -0.1446  0.1961
 6663W        W49601  22.562  17.393  26.822 -0.3468  0.0076 -0.2110
 6664W        W49602  21.307  16.217  28.369 -0.1084 -0.0176 -0.2620
 6665W        W49603  23.269  15.001  30.131  0.0509 -0.0133  0.1927
 6666W        W49604  20.636  15.832  31.265  0.1454  0.2194  0.1542
 6667W        W49605  20.193  16.133  27.739 -0.1388  0.2082 -0.0295
 6668W        W49606  21.389  15.768  27.762  0.1143  0.1884  0.5125
 6669W        W49607  24.799  16.958  27.714  0.0166  0.0053 -0.0531
 6670W        W49608  22.682  13.593  30.042 -0.0661 -0.0066  0.2960
 6671W        W49609  20.857  14.403  28.429  0.2114 -0.1003 -0.3424
 6672W        W49610  22.751  17.419  29.183 -0.0937 -0.6764  0.0885
 6673W        W49611  24.244  16.373  28.746  0.0628 -0.0163  0.2366
 6674W        W49612  22.668  14.881  29.123 -0.0750  0.2202 -0.1914
 6675W        W49613  25.370  16.955   0.033  0.2383 -0.1571  0.0465
 6676W        W49614  21.075  16.612  26.095  0.2362  0.0705  0.1577
 6677W        W49615  25.273  15.914  29.998 -0.3013  0.0994  0.0302
 6678W        W49616  21.967  16.493  30.691 -0.0906  0.0783  0.3271
 6679W        W49617  22.098  14.323  26.174  0.0521  0.0300 -0.1398
 6680W        W49618  21.675  17.121  27.869  0.2040  0.1288  0.2197
 6681W        W49619  24.255  17.002  27.892 -0.0983  0.0729  0.0786
 6682W        W49620  23.946  17.205  27.436 -0.3159 -0.2256  0.0070
 6683W        W49621  22.276  15.936  30.107  0.4735 -0.2048  0.1361
 6684W        W49622  21.627  18.177  31.109  0.2046 -0.1522  0.0906
 6685W        W49623  22.095  14.346  30.606  0.2967  0.0398 -0.2648
 6686W        W49624  23.535  15.062  29.195 -0.2465 -0.1631  0.1676
 6687W        W49625  23.134  16.947  29.450 -0.3201 -0.1220  0.2252
 6688W        W49626  25.576  17.389  27.760 -0.1059 -0.1543  0.3187
 6689W        W49627  26.602  15.280  31.027 -0.0323 -0.1679 -0.0593
 6690W        W49628  24.700  16.349  29.630  0.0235 -0.1726  0.2133
 6691W        W49629  21.997  15.865  29.431 -0.1156 -0.0240 -0.2408
 6692W        W49630  22.092  16.251  29.793 -0.1913 -0.1128  0.1615
 6693W        W49631  24.940  16.434  29.195 -0.3404 -0.2793  0.1004
 6694W        W49632  21.879  14.638  29.828 -0.1852 -0.0916 -0.1083
 6695W        W49633  24.055  15.121  29.116  0.1842  0.2736  0.0366
 6696W        W49634  23.429  16.142  29.266  0.0676 -0.1615 -0.1206
 6697W        W49635  22.535  14.985  28.595 -0.0139 -0.1445  0.0080
 6698W        W49636  22.860  14.915  27.981 -0.5382 -0.0253 -0.0357
 6699W        W49637  23.109  16.461  30.492 -0.1221 -0.0705  0.2642
 6700W        W49638  22.966  15.279  28.370  0.0272 -0.2722  0.2118
 6701W        W49639  24.183  17.045   0.322  0.4721 -0.1533  0.1796
 6702W        W49640  22.379  16.969  27.121  0.1809  0.1957 -0.0071
 6703W        W49641  26.033  17.104  27.823  0.0723  0.1030  0.2384
 6704W        W49642  21.480  17.725  31.368  0.3229 -0.0410  0.2357
 6705W        W49643  24.932  18.135  31.582  0.1710  0.0664  0.0160
 6706W        W49644  22.191  17.677  30.110 -0.1632 -0.0082  0.2815
 6707W        W49645  26.587  16.403  30.361 -0.0228 -0.0937 -0.1232
 6708W        W49646  21.369  15.112  29.109 -0.1070  0.4646  0.1128
 6709W        W49647  21.585  18.457  26.530  0.0053  0.1924  0.3659
 6710W        W49648  23.256  16.162  28.807 -0.0735 -0.0839 -0.1309
 6711W        W49649  22.493  16.063  29.558 -0.2564  0.2347  0.2271
 6712W        W49650  22.740  15.417  28.926 -0.0770 -0.2666  0.0843
 6713W        W49651  23.775  15.673  29.408  0.1017 -0.3931  0.1767
 6714W        W49652  22.291  18.518  30.146 -0.0526  0.1352  0.0380
 6715W        W49653  22.520  15.519  29.872  0.0789 -0.3017 -0.1416
 6716W        W49654  22.721  15.025  30.073 -0.3314  0.2151 -0.4625
 6717W        W49655  24.388  16.749  31.959  0.1831  0.0232 -0.1527
 6718W        W49656  21.929  15.636  29.884 -0.0919  0.2970  0.1696
 6719W        W49657  21.677  18.095   0.194  0.0942  0.0155  0.0149
 6720W        W49658  23.135  17.110  31.666  0.0837 -0.3649 -0.1017
 6721W        W49659  21.084  18.339  31.238 -0.0468 -0.5517 -0.0896
 6722W        W49660  24.563  15.656  31.313 -0.1609 -0.1035  0.0707
 6723W        W49661  21.783  14.892  31.963 -0.3728  0.0571  0.0038
 6724W        W49662  23.387  15.413  31.256  0.1277  0.0194 -0.1604
 6725W        W49663  26.541  17.958   0.614  0.1843 -0.1047 -0.1958
 6726W        W49664  23.229  15.936  31.033  0.1058  0.0074 -0.1893
 6727W        W49665  21.454  14.911  30.506 -0.0795  0.3495 -0.0638
 6728W        W49666  23.196  15.968  31.541 -0.1649  0.1522 -0.1180
 6729W        W49667  21.494  16.948  30.624 -0.0124  0.2084  0.2212
 6730W        W49668  24.193  15.660  30.970 -0.2489  0.4709 -0.1998
 6731W        W49669  21.125  17.889  30.990  0.3343 -0.0818  0.3937
 6732W        W49670  20.730  17.890   0.073  0.1023 -0.0076  0.1562
 6733W        W49671  23.764  17.197  31.748  0.3725  0.0939 -0.4235
 6734W        W49672  22.884  14.689  30.924 -0.2113  0.1370 -0.1562
 6735W        W49673  21.343  17.270  30.987  0.1203  0.3739  0.2602
 6736W        W49674  21.749  15.637  31.396 -0.2945 -0.1024  0.0084
 6737W        W49675  20.859  16.544  29.359  0.0688  0.3540 -0.1578
 6738W        W49676  25.370  15.656  31.392  0.1925 -0.2531  0.2500
 6739W        W49677  22.494  14.932  31.320  0.1943  0.2170 -0.1161
 6740W        W49678  23.004  14.231  31.129 -0.1275  0.2159  0.0767
 6741W        W49679  22.847  17.231  29.830 -0.2069 -0.0854  0.2504
 6742W        W49680  21.320  16.351  30.285  0.0877 -0.0955 -0.1672
 6743W        W49681  21.425  17.498  29.568 -0.1141  0.1647  0.2902
 6744W        W49682  24.186  16.056  31.462 -0.0926 -0.3524 -0.0393
 6745W        W49683  23.597  16.192  30.714 -0.0373  0.1558 -0.1667
 6746W        W49684  22.619  18.296  28.775 -0.1501 -0.2433  0.3348
 6747W        W49685  22.416  14.677  30.845  0.1180 -0.0662  0.1383
 6748W        W49686  24.160  18.140   0.184  0.1383  0.3065 -0.2315
 6749W        W49687  25.919  14.243  31.905  0.0294  0.0732  0.0132
 6750W        W49688  21.852  14.537  31.085 -0.0291 -0.0778  0.0529
 6751W        W49689  21.801  17.124  29.504  0.0628 -0.2568 -0.1162
 6752W        W49690  22.109  18.192  31.356  0.0828 -0.1359 -0.2600
 6753W        W49691  24.688  17.098  31.563  0.2251 -0.1734 -0.3417
 6754W        W49692  24.556  16.500  30.114 -0.0422  0.2094 -0.1502
 6755W        W49693  23.918  17.522   0.218 -0.0896 -0.2304  0.2501
 6756W        W49694  24.841  16.169  31.323  0.0362  0.4661  0.0748
 6757W        W49695  24.187  15.881  31.954 -0.0429  0.0381  0.0854
 6758W        W49696  22.505  15.270  30.981 -0.1538 -0.0091  0.0777
 6759W        W49697  23.421  17.532  31.617 -0.2706 -0.1760 -0.1312
 6760W        W49698  21.750  16.176  31.127  0.0744 -0.3370  0.1110
 6761W        W49699  21.893  17.237  29.983  0.1047 -0.3866 -0.0319
 6762W        W49700  23.997  14.293  30.292 -0.3191 -0.0102 -0.1674
 6763W        W49701  22.473  17.409  30.574  0.3886 -0.0274  0.1811
 6764W        W49702  25.020  18.512   1.082 -0.0617  0.0491 -0.3415
 6765W        W49703  21.198  16.628  28.121 -0.1591  0.2571  0.0044
 6766W        W49704  24.370  17.948  31.464 -0.0708 -0.0185 -0.0089
 6767W        W49705  22.707  15.450  30.357  0.0554  0.1664 -0.0114
 6768W        W49706  23.278  15.448  30.366  0.0522  0.1516  0.0894
 6769W        W49707  23.396  17.354   0.111  0.0507 -0.0947  0.2254
 6770W        W49708  22.875  15.866  29.823 -0.0083  0.0031 -0.4275
 6771W        W49709  24.146  16.856  31.542  0.4309  0.0476  0.1091
 6772W        W49710  24.983  17.449  29.227 -0.2305 -0.0086  0.1722
 6773W        W49711  24.255  18.367  31.670  0.0189 -0.1724  0.1006
 6774W        W49712  23.868  16.990  31.164  0.1931  0.4428  0.3335
 6775W        W49713  20.761  17.644  30.728 -0.0866 -0.1257 -0.0483
 6776W        W49714  21.556  14.869  29.552 -0.1596 -0.2720 -0.1360
 6777W        W49715  21.492  16.762  31.065 -0.0067 -0.2355 -0.1664
 6778W        W49716  21.172  17.210  31.525  0.0025 -0.1511  0.2331
 6779W        W49717  21.397  14.921  29.987  0.4164 -0.0546 -0.2162
 6780W        W49718  24.137  18.143  30.499 -0.1342 -0.3231 -0.3562
 6781W        W49719  24.456  17.773   0.060  0.3101  0.1528 -0.2680
 6782W        W49720  25.995  17.330  31.038  0.1946 -0.0660  0.2014
 6783W        W49721  23.397  21.150  19.158 -0.1613 -0.1217 -0.1974
 6784W        W49722  22.875  18.999  16.243 -0.0211 -0.2403 -0.0291
 6785W        W49723  24.542  19.044  16.183 -0.0619  0.2359 -0.1438
 6786W        W49724  27.158  20.209  15.816 -0.1260 -0.0575 -0.0370
 6787W        W49725  21.340  19.349  15.293  0.1857  0.0522 -0.0359
 6788W        W49726  25.447  21.291  16.898 -0.1023  0.1072 -0.0854
 6789W        W49727  23.682  18.454  18.813 -0.2078 -0.1910 -0.0229
 6790W        W49728  24.220  20.255  16.287  0.0814 -0.0447  0.0791
 6791W        W49729  24.761  22.762  17.835 -0.1477  0.5215 -0.2372
 6792W        W49730  23.133  20.588  15.841 -0.1384 -0.0440  0.3784
 6793W        W49731  24.047  17.720  17.575  0.1407 -0.1148 -0.3992
 6794W        W49732  23.242  20.700  17.563 -0.0232 -0.3839 -0.3230
 6795W        W49733  24.004  18.043  15.860 -0.3834  0.2181  0.0258
 6796W        W49734  23.456  18.068  17.427  0.0702  0.1158 -0.2110
 6797W        W49735  26.205  20.224  17.386  0.0935 -0.1143 -0.3918
 6798W        W49736  22.001  20.322  15.104 -0.0371  0.0259 -0.2915
 6799W        W49737  22.491  18.865  17.069  0.1140 -0.0565 -0.2530
 6800W        W49738  22.975  19.148  17.780 -0.1328  0.1010  0.0801
 6801W        W49739  23.862  22.102  16.496  0.1980 -0.0071 -0.0709
 6802W        W49740  24.452  18.983  18.394  0.0111 -0.0226  0.1458
 6803W        W49741  25.689  19.595  19.252  0.0655 -0.2496 -0.0300
 6804W        W49742  25.566  22.789  18.090 -0.0052 -0.0980 -0.2680
 6805W        W49743  22.351  20.006  16.431 -0.0282  0.3272  0.0887
 6806W        W49744  22.687  19.579  16.517 -0.3511  0.3356 -0.5837
 6807W        W49745  23.407  21.375  16.350 -0.3612 -0.1574 -0.1810
 6808W        W49746  24.152  19.188  18.016  0.3845  0.0479  0.1425
 6809W        W49747  27.098  20.324  17.662  0.0453  0.2625  0.2368
 6810W        W49748  23.881  21.130  16.280 -0.1641 -0.0705  0.1642
 6811W        W49749  25.017  21.484  17.050 -0.0329 -0.0312  0.2794
 6812W        W49750  24.182  20.867  18.321 -0.0991  0.0541  0.0125
 6813W        W49751  22.918  21.848  15.682  0.2206 -0.1289  0.1054
 6814W        W49752  22.262  22.010  16.902  0.1885 -0.0426 -0.0065
 6815W        W49753  24.226  21.911  16.004  0.1629 -0.1562 -0.0072
 6816W        W49754  26.436  20.833  17.254 -0.1367  0.2386  0.2512
 6817W        W49755  25.265  21.054  18.787  0.1029  0.1307  0.1152
 6818W        W49756  23.331  22.507  18.937  0.0291 -0.0194 -0.1512
 6819W        W49757  22.871  20.259  15.278  0.3102  0.1085  0.2046
 6820W        W49758  25.574  22.831  19.804  0.0812  0.2145  0.0184
 6821W        W49759  23.493  21.611  17.736  0.1560  0.2472 -0.0185
 6822W        W49760  24.468  19.574  17.731  0.0828 -0.0090  0.0536
 6823W        W49761  22.295  20.135  17.389  0.1856 -0.0060 -0.4255
 6824W        W49762  24.215  23.415  16.363  0.0250 -0.1640  0.1510
 6825W        W49763  23.126  19.667  17.406  0.0612  0.0211 -0.0281
 6826W        W49764  23.909  20.547  19.958 -0.0048  0.0657 -0.1685
 6827W        W49765  22.966  22.153  18.275  0.1250  0.0257 -0.0061
 6828W        W49766  26.608  18.943  20.149 -0.1727 -0.0932  0.0686
 6829W        W49767  22.491  21.559  14.604  0.1679  0.0063  0.1516
 6830W        W49768  23.802  18.768  16.550  0.0672  0.1378 -0.0478
 6831W        W49769  22.803  19.670  15.298  0.0703 -0.3014 -0.1085
 6832W        W49770  25.279  20.480  16.951 -0.1056 -0.0612  0.1175
 6833W        W49771  22.986  16.177  17.233 -0.0507  0.2068 -0.0680
 6834W        W49772  23.520  22.081  17.552  0.1144  0.1154  0.1971
 6835W        W49773  22.944  18.720  17.452  0.2731 -0.2850  0.1655
 6836W        W49774  24.623  21.297  17.252  0.0989  0.1185 -0.1094
 6837W        W49775  24.071  18.809  17.062 -0.1422  0.1225  0.0223
 6838W        W49776  23.464  19.420  17.709  0.1477  0.0556 -0.2559
 6839W        W49777  21.382  21.188  17.968  0.1565  0.2560  0.3384
 6840W        W49778  22.088  20.703  17.084  0.1665 -0.2565 -0.1421
 6841W        W49779  24.371  21.235  15.294  0.0968  0.0134 -0.0717
 6842W        W49780  25.057  21.290  18.072 -0.0378  0.1351 -0.0602
 6843W        W49781  24.801  20.917  16.172 -0.1168 -0.1878  0.0450
 6844W        W49782  21.810  19.840  17.455  0.0934  0.0327  0.3287
 6845W        W49783  22.926  21.146  18.426  0.1350  0.0209 -0.3310
 6846W        W49784  22.824  20.402  18.363  0.0420  0.0438 -0.5544
 6847W        W49785  24.259  16.525  16.129  0.0986 -0.2216 -0.2613
 6848W        W49786  24.674  20.264  17.661 -0.0507 -0.0821  0.0412
 6849W        W49787  21.759  22.833  19.671 -0.2831  0.0495 -0.2703
 6850W        W49788  26.143  19.730  16.502 -0.2219 -0.0841  0.1673
 6851W        W49789  23.516  20.469  17.197 -0.0325 -0.0772 -0.2693
 6852W        W49790  24.883  21.762  17.602 -0.1264  0.0606  0.0712
 6853W        W49791  23.419  19.703  15.605  0.2090  0.0455 -0.1636
 6854W        W49792  24.372  18.451  17.317  0.2155 -0.1160  0.0073
 6855W        W49793  25.157  19.459  17.756 -0.2746  0.0075  0.0469
 6856W        W49794  22.300  18.272  16.372 -0.0954  0.0927 -0.3937
 6857W        W49795  22.344  20.895  16.690  0.2243 -0.3603 -0.1507
 6858W        W49796  25.509  21.416  18.429  0.1898 -0.0346  0.2211
 6859W        W49797  25.332  19.221  16.618  0.0173 -0.1832 -0.1278
 6860W        W49798  23.278  22.763  16.628  0.1877 -0.0500 -0.0190
 6861W        W49799  23.815  19.619  18.010 -0.0902  0.0674  0.2397
 6862W        W49800  23.143  20.764  18.648  0.0096 -0.0197 -0.0519
 6863W        W49801  21.888  21.536  15.309  0.0778  0.0330  0.1234
 6864W        W49802  21.560  20.697  17.028 -0.1167  0.2553 -0.0132
 6865W        W49803  23.105  19.422  14.827 -0.1677  0.2195 -0.2877
 6866W        W49804  23.007  18.894  19.730 -0.0963  0.0864  0.0257
 6867W        W49805  22.708  20.529  18.934  0.0569  0.1005 -0.3197
 6868W        W49806  25.868  18.126  17.725 -0.1696  0.1641  0.2097
 6869W        W49807  23.311  19.042  18.186 -0.3425 -0.0337  0.1286
 6870W        W49808  25.669  18.607  16.688  0.3455  0.1443 -0.0006
 6871W        W49809  22.455  20.456  16.400 -0.1524  0.0061  0.0727
 6872W        W49810  24.193  21.069  17.011  0.2208 -0.0713  0.2742
 6873W        W49811  23.619  19.069  16.144  0.0217  0.0790 -0.4307
 6874W        W49812  24.707  20.688  15.196 -0.2891 -0.0439  0.1100
 6875W        W49813  21.246  20.070  18.582 -0.0856 -0.0155  0.1906
 6876W        W49814  22.364  19.098  16.414 -0.1225 -0.0696  0.0892
 6877W        W49815  23.086  18.031  19.648 -0.2458  0.0585  0.0526
 6878W        W49816  22.524  19.338  17.870  0.1116 -0.0808  0.1656
 6879W        W49817  23.751  20.325  17.661 -0.4073 -0.0495  0.0883
 6880W        W49818  23.114  19.172  17.173  0.0111  0.2949 -0.0394
 6881W        W49819  24.048  17.686  16.233  0.1994  0.0733 -0.1383
 6882W        W49820  24.156  18.188  16.354 -0.0380  0.1252  0.2691
 6883W        W49821  21.101  20.486  15.105 -0.4801 -0.2635 -0.0473
 6884W        W49822  24.655  18.910  17.889 -0.1570  0.2015 -0.0916
 6885W        W49823  24.703  20.405  15.936  0.2155 -0.0851 -0.0791
 6886W        W49824  25.493  23.253  18.338  0.0358 -0.1264 -0.1136
 6887W        W49825  24.653  22.137  16.291 -0.0177  0.2086 -0.1508
 6888W        W49826  23.608  20.304  20.510 -0.0806 -0.0427  0.2292
 6889W        W49827  21.984  18.307  15.808 -0.1180 -0.0065 -0.2227
 6890W        W49828  24.606  20.569  16.438 -0.1518 -0.0459 -0.0595
 6891W        W49829  24.204  20.455  17.594 -0.2521 -0.0076 -0.0486
 6892W        W49830  23.537  18.480  17.193 -0.1834 -0.1693 -0.0939
 6893W        W49831  25.951  21.065  15.606  0.0327  0.0217 -0.1451
 6894W        W49832  23.724  18.333  16.774 -0.1451  0.3169  0.3446
 6895W        W49833  23.643  20.670  16.285  0.0605 -0.1855 -0.0949
 6896W        W49834  24.677  19.909  18.998 -0.1608  0.0610 -0.3005
 6897W        W49835  25.670  20.260  17.514  0.0056  0.0702  0.0046
 6898W        W49836  25.861  20.143  16.482 -0.2247  0.0557  0.1364
 6899W        W49837  22.197  19.071  15.228  0.0401 -0.1760  0.1507
 6900W        W49838  24.008  20.262  16.714 -0.2566  0.0286  0.3410
 6901W        W49839  20.426  21.052  15.673 -0.1567 -0.0615 -0.1019
 6902W        W49840  22.463  20.362  14.952 -0.2974  0.1752 -0.0083
 6903W        W49841  23.831  21.381  18.003  0.0551 -0.0899  0.0217
 6904W        W49842  24.284  18.595  17.896  0.0417 -0.0913 -0.1424
 6905W        W49843  22.595  20.807  19.332  0.0676  0.0234 -0.1510
 6906W        W49844  25.387  20.538  18.864 -0.0702  0.0941 -0.0309
 6907W        W49845  21.962  19.412  16.518 -0.1890  0.0653  0.3225
 6908W        W49846  22.227  22.160  19.613 -0.5204 -0.3054  0.2651
 6909W        W49847  24.948  18.114  17.367 -0.1126  0.4761 -0.1444
 6910W        W49848  24.935  17.722  17.895 -0.1737  0.1689  0.0082
 6911W        W49849  24.530  20.586  20.228 -0.3282 -0.2710  0.0184
 6912W        W49850  26.043  21.668  18.344 -0.0169 -0.1674 -0.0822
 6913W        W49851  24.303  18.320  15.418  0.0163  0.5333  0.0204
 6914W        W49852  23.869  18.738  15.729 -0.0689  0.0208  0.3518
 6915W        W49853  22.290  21.058  19.034  0.0822  0.2845 -0.1995
 6916W        W49854  23.617  19.973  16.999  0.2388 -0.0721  0.1754
 6917W        W49855  23.864  21.309  17.483 -0.0810 -0.2112 -0.1155
 6918W        W49856  24.252  19.101  16.612  0.2070  0.1094  0.0181
 6919W        W49857  25.033  21.122  15.427  0.3727  0.0117  0.0249
 6920W        W49858  22.731  20.043  16.744  0.1199  0.1210 -0.2545
 6921W        W49859  24.555  20.124  20.372  0.0694  0.0329 -0.2703
 6922W        W49860  25.877  21.862  16.917  0.2915 -0.2171 -0.0217
 6923W        W49861  23.794  17.608  18.163 -0.1045 -0.1414  0.0647
 6924W        W49862  22.288  19.522  16.136  0.0820  0.1063 -0.0071
 6925W        W49863  23.573  17.979  16.359 -0.1692 -0.2866  0.0021
 6926W        W49864  21.546  22.565  15.653  0.1906 -0.4572 -0.1116
 6927W        W49865  24.992  20.011  16.962 -0.2690 -0.1063 -0.2110
 6928W        W49866  24.462  18.034  16.995  0.0611 -0.2649 -0.2599
 6929W        W49867  23.363  17.887  18.488  0.1234 -0.1103  0.0315
 6930W        W49868  25.201  20.149  19.657 -0.0355 -0.0469  0.2541
 6931W        W49869  25.830  18.427  17.257  0.1166  0.1620 -0.2768
 6932W        W49870  23.567  18.935  17.037 -0.1054 -0.4391 -0.0084
 6933W        W49871  22.399  20.011  15.267  0.0712 -0.0182 -0.6068
 6934W        W49872  23.965  19.653  18.784  0.3591 -0.2116  0.0384
 6935W        W49873  24.021  20.401  18.704 -0.1182  0.1177  0.2083
 6936W        W49874  21.900  21.865  19.304  0.1800 -0.2413  0.3100
 6937W        W49875  24.934  22.989  17.412  0.1925 -0.0723 -0.1277
 6938W        W49876  25.000  20.837  17.707  0.0603  0.2412 -0.2693
 6939W        W49877  24.877  19.343  21.517 -0.0954  0.1204 -0.2342
 6940W        W49878  23.872  18.903  17.495 -0.0619 -0.1459  0.2315
 6941W        W49879  23.788  22.449  17.365 -0.0863 -0.2365  0.3543
 6942W        W49880  24.806  20.508  17.160 -0.1563  0.2231 -0.1005
 6943W        W49881  23.942  18.092  17.204 -0.3444 -0.0218 -0.1185
 6944W        W49882  24.221  20.980  17.762  0.1452  0.2896  0.4260
 6945W        W49883  23.740  20.101  16.344 -0.1302  0.0797  0.1589
 6946W        W49884  24.843  20.768  18.938  0.0042 -0.0352 -0.1676
 6947W        W49885  23.825  22.519  16.787  0.2158 -0.1196  0.0917
 6948W        W49886  24.857  18.616  17.499 -0.0075 -0.1331  0.3130
 6949W        W49887  23.248  20.181  17.513  0.0393 -0.1728  0.0576
 6950W        W49888  23.299  19.850  16.076 -0.2240 -0.0736  0.1453
 6951W        W49889  21.913  19.220  16.024 -0.2536 -0.3064 -0.0169
 6952W        W49890  24.285  17.405  16.691  0.1452  0.2394 -0.0827
 6953W        W49891  25.785  21.857  17.641 -0.0507 -0.0487 -0.0126
 6954W        W49892  23.461  18.606  18.409  0.1496 -0.0780  0.2870
 6955W        W49893  24.030  18.244  17.652  0.2135  0.1459  0.1549
 6956W        W49894  24.001  21.931  17.534  0.1077 -0.0779  0.0706
 6957W        W49895  23.682  19.867  17.531 -0.2483  0.0267  0.3182
 6958W        W49896  24.839  17.476  15.697  0.0994 -0.2027 -0.1272
 6959W        W49897  24.774  21.265  19.173  0.1227 -0.3108  0.4870
 6960W        W49898  23.719  20.813  19.589  0.0741  0.1926  0.1378
 6961W        W49899  21.736  19.738  15.898 -0.4224 -0.0750  0.0126
 6962W        W49900  26.474  19.791  17.375 -0.1022 -0.4250  0.0104
 6963W        W49901  23.977  19.398  17.563 -0.2925 -0.1509  0.0554
 6964W        W49902  22.778  23.962  17.131  0.1744 -0.0486  0.1796
 6965W        W49903  24.006  19.753  16.653 -0.1443 -0.0922  0.0061
 6966W        W49904  22.964  18.625  15.956  0.0921 -0.0001  0.1392
 6967W        W49905  22.700  21.315  16.524  0.2926 -0.1816  0.0052
 6968W        W49906  23.769  19.713  19.282 -0.0251  0.4140  0.0213
 6969W        W49907  25.153  21.802  18.229 -0.2502  0.0286 -0.0063
 6970W        W49908  24.171  17.210  18.191  0.2112 -0.0862 -0.0858
 6971W        W49909  22.672  18.920  18.143 -0.1736  0.0543  0.1546
 6972W        W49910  22.493  20.451  17.072  0.2084 -0.0209 -0.2301
 6973W        W49911  25.664  20.839  16.936 -0.3160 -0.2736 -0.1093
 6974W        W49912  23.852  21.203  18.479  0.0879  0.1414  0.1377
 6975W        W49913  22.823  21.048  18.932  0.1969 -0.0454 -0.0691
 6976W        W49914  24.719  17.992  19.151 -0.1289 -0.0238 -0.0744
 6977W        W49915  24.699  20.203  15.367 -0.4424 -0.1692 -0.0584
 6978W        W49916  25.987  19.285  18.830 -0.1218  0.2539 -0.0177
 6979W        W49917  23.012  20.993  16.284 -0.0545 -0.0485 -0.1067
 6980W        W49918  23.972  20.832  17.366 -0.3641  0.1872  0.2029
 6981W        W49919  23.524  20.974  17.189 -0.2958 -0.1742 -0.1199
 6982W        W49920  24.371  20.030  18.563  0.0344  0.0669 -0.1860
 6983W        W49921  22.157  21.516  16.826 -0.3370 -0.0775  0.1365
 6984W        W49922  23.401  21.033  15.971  0.3260  0.1560 -0.1420
 6985W        W49923  21.800  20.717  17.977 -0.0273 -0.1247  0.0729
 6986W        W49924  24.498  17.832  16.487 -0.0677  0.0531 -0.0136
 6987W        W49925  23.460  20.227  15.778  0.3087 -0.1582  0.1028
 6988W        W49926  24.276  20.561  17.016 -0.1344 -0.0186  0.0868
 6989W        W49927  25.151  18.868  18.808  0.1580  0.2212 -0.0992
 6990W        W49928  26.948  18.468  17.228 -0.1443 -0.1929 -0.0582
 6991W        W49929  25.654  19.604  18.568 -0.0678 -0.0566  0.0092
 6992W        W49930  23.083  18.221  18.216 -0.0467  0.0406 -0.2112
 6993W        W49931  25.494  20.744  17.492 -0.0603  0.2569 -0.2419
 6994W        W49932  22.915  20.721  19.737 -0.2017  0.0059  0.2305
 6995W        W49933  24.585  21.664  18.566 -0.1365  0.0276  0.2356
 6996W        W49934  23.310  21.197  19.664 -0.2088 -0.0640  0.3158
 6997W        W49935  23.082  18.301  17.240 -0.0488  0.0265  0.0085
 6998W        W49936  23.369  15.568  16.503 -0.1243  0.2489 -0.0154
 6999W        W49937  23.816  20.711  16.931  0.0329  0.1668 -0.2251
 7000W        W49938  26.414  21.988  18.413 -0.0621  0.1203  0.0753
 7001W        W49939  23.680  19.515  16.360  0.1738 -0.5325  0.1043
 7002W        W49940  25.427  19.876  17.193 -0.0448 -0.0896  0.2028
 7003W        W49941  24.192  20.787  16.553 -0.2476  0.0363 -0.3618
 7004W        W49942  25.393  20.014  16.670 -0.0940  0.4171  0.0488
 7005W        W49943  24.565  20.167  16.687  0.3393 -0.0675 -0.0723
 7006W        W49944  23.528  20.353  16.703  0.0941  0.4295  0.4253
 7007W        W49945  23.510  19.844  18.780  0.0085  0.0140 -0.0323
 7008W        W49946  25.903  20.324  16.928  0.1706 -0.2523 -0.1879
 7009W        W49947  24.242  19.286  17.139  0.0805 -0.0580 -0.0369
 7010W        W49948  23.374  19.970  17.942 -0.4895  0.1884  0.0134
 7011W        W49949  25.241  20.843  19.348 -0.2634  0.1826 -0.1650
 7012W        W49950  24.535  20.397  19.513  0.0439 -0.1876 -0.1017
 7013W        W49951  22.731  19.523  18.763  0.1070  0.2012  0.1529
 7014W        W49952  25.197  22.121  19.762  0.0093  0.1200  0.2057
 7015W        W49953  23.694  19.290  15.721  0.0034  0.2566  0.0622
 7016W        W49954  25.968  19.217  19.534  0.1195  0.1452  0.2778
 7017W        W49955  26.276  21.579  16.765 -0.0033 -0.1389  0.1216
 7018W        W49956  24.263  19.870  15.352 -0.1234  0.2479 -0.3095
 7019W        W49957  23.156  19.464  16.362  0.0442  0.2522  0.2491
 7020W        W49958  23.760  21.452  18.949 -0.0395  0.1966  0.2901
 7021W        W49959  24.506  18.037  16.028  0.0685 -0.2533 -0.2065
 7022W        W49960  25.227  19.987  18.320  0.1560  0.3949  0.2222
 7023W        W49961  23.442  21.319  15.534  0.2321  0.0291  0.1361
 7024W        W49962  23.828  19.268  16.804  0.1157 -0.0333 -0.2270
 7025W        W49963  24.711  20.000  16.207 -0.0388 -0.3176  0.1716
 7026W        W49964  22.951  19.662  17.876 -0.3203  0.1235 -0.0036
 7027W        W49965  22.445  22.021  18.151 -0.3693 -0.1269 -0.2472
 7028W        W49966  23.294  17.566  17.300 -0.2776 -0.0045  0.2691
 7029W        W49967  23.743  20.675  15.456  0.0970  0.0989  0.0968
 7030W        W49968  25.368  21.339  16.360 -0.6432  0.0340  0.3352
 7031W        W49969  26.700  19.453  21.765  0.1879  0.0539 -0.1122
 7032W        W49970  22.736  18.056  16.225 -0.1030  0.4241  0.1036
 7033W        W49971  24.771  20.850  19.529 -0.0483 -0.3360 -0.3339
 7034W        W49972  22.849  19.974  16.283  0.1794  0.0106  0.0313
 7035W        W49973  24.077  17.143  16.081 -0.0121  0.0457  0.0170
 7036W        W49974  22.973  22.669  18.231 -0.2071  0.0843  0.5729
 7037W        W49975  22.082  19.299  18.844  0.1680 -0.1638 -0.2442
 7038W        W49976  24.008  20.227  17.194 -0.0225  0.0108  0.1481
 7039W        W49977  24.343  17.225  17.600 -0.0174 -0.3249 -0.2497
 7040W        W49978  24.492  20.822  17.382  0.2382  0.1827  0.0197
 7041W        W49979  24.335  18.910  17.511 -0.1614 -0.1388  0.1967
 7042W        W49980  24.155  19.981  17.690  0.1840 -0.0215  0.0356
 7043W        W49981  25.440  20.080  19.170  0.0364  0.1068 -0.2149
 7044W        W49982  23.194  20.351  16.259 -0.0250 -0.1831  0.0381
 7045W        W49983  24.033  21.978  18.091  0.0846  0.3011  0.1145
 7046W        W49984  25.668  20.468  18.302  0.0010 -0.2820 -0.0621
 7047W        W49985  23.856  21.603  16.119  0.0527 -0.2815 -0.0699
 7048W        W49986  22.107  19.084  19.278 -0.1411  0.2542 -0.0948
 7049W        W49987  24.264  19.643  18.221  0.2131  0.1080 -0.1022
 7050W        W49988  23.617  19.416  17.260  0.0720 -0.1115  0.0085
 7051W        W49989  22.273  20.543  15.434  0.1263 -0.1474  0.2689
 7052W        W49990  25.757  21.535  16.562  0.3921  0.3963  0.1068
 7053W        W49991  22.723  22.448  18.811  0.2539 -0.0930  0.0394
 7054W        W49992  21.685  20.978  18.937  0.3631  0.2936 -0.1016
 7055W        W49993  25.124  20.949  17.130 -0.1727  0.5123 -0.2263
 7056W        W49994  23.796  19.785  14.475 -0.1617  0.1544 -0.2788
 7057W        W49995  24.287  20.052  15.829 -0.0306 -0.0279 -0.2347
 7058W        W49996  26.001  22.255  16.576 -0.3064  0.0248 -0.2702
 7059W        W49997  23.822  19.820  15.919  0.1569 -0.1471 -0.1013
 7060W        W49998  23.600  21.720  16.712  0.1499  0.0723  0.0835
 7061W        W49999  23.388  22.659  17.102 -0.0923 -0.1409 -0.1763
 7062W        W50000  24.927  21.293  16.502  0.0510  0.0544  0.0636
 7063W        W50001  22.516  22.895  16.780  0.2629 -0.2697  0.4558
 7064W        W50002  24.573  21.386  19.650 -0.0860  0.1000 -0.2206
 7065W        W50003  24.544  17.896  15.111  0.3869 -0.0830  0.2649
 7066W        W50004  25.954  20.695  17.309 -0.0016 -0.2684  0.3902
 7067W        W50005  24.989  19.643  16.449 -0.0871 -0.2530 -0.0369
 7068W        W50006  25.001  20.683  20.382  0.1641  0.0838 -0.0585
 7069W        W50007  22.490  18.864  17.649  0.1589  0.0214 -0.0928
 7070W        W50008  24.800  18.247  16.426  0.0999 -0.1668  0.0725
 7071W        W50009  23.533  20.604  18.999  0.1245 -0.0195 -0.1990
 7072W        W50010  26.353  19.233  19.203  0.0887 -0.2545  0.4884
 7073W        W50011  24.722  21.043  20.001  0.0656  0.0659  0.3470
 7074W        W50012  25.021  21.324  16.010 -0.1901  0.0121  0.2037
 7075W        W50013  22.838  19.543  15.965 -0.0121  0.0359  0.1194
 7076W        W50014  23.185  19.923  16.581 -0.0866 -0.0777 -0.1210
 7077W        W50015  24.658  18.158  17.789 -0.1705  0.1687 -0.0221
 7078W        W50016  23.424  20.355  15.294 -0.1414  0.0635 -0.0521
 7079W        W50017  23.351  18.950  17.593  0.0488 -0.1989 -0.0817
 7080W        W50018  23.419  21.989  16.301 -0.3472 -0.1519 -0.0197
 7081W        W50019  23.888  22.456  18.565  0.1119  0.1930  0.0448
 7082W        W50020  23.147  20.092  17.009 -0.1052  0.1095  0.0009
 7083W        W50021  23.443  18.544  15.076 -0.2417 -0.1472  0.0169
 7084W        W50022  26.309  20.004  16.981  0.0924 -0.0320  0.1318
 7085W        W50023  23.763  20.869  17.937  0.1178  0.2181  0.0870
 7086W        W50024  25.749  18.977  17.565 -0.1046 -0.0107 -0.0005
 7087W        W50025  22.970  20.017  15.696 -0.1055 -0.3416  0.2212
 7088W        W50026  25.073  19.490  17.086 -0.0037 -0.3507 -0.2730
 7089W        W50027  24.838  20.972  18.470 -0.0846 -0.1896 -0.0228
 7090W        W50028  22.417  19.197  18.466 -0.0281 -0.2464  0.3192
 7091W        W50029  24.392  19.561  16.448 -0.1747 -0.1398 -0.2156
 7092W        W50030  25.626  21.822  18.128 -0.1084 -0.0484 -0.1079
 7093W        W50031  24.169  19.484  15.659 -0.3572 -0.0489 -0.0937
 7094W        W50032  24.316  22.568  18.818  0.3423 -0.1817  0.0205
 7095W        W50033  23.340  17.977  16.909  0.2090 -0.2446 -0.0774
 7096W        W50034  24.654  19.524  16.055  0.0062  0.0596 -0.0025
 7097W        W50035  23.298  20.787  16.787  0.2720 -0.4708 -0.1339
 7098W        W50036  22.912  19.313  18.293  0.1616 -0.5541 -0.0151
 7099W        W50037  25.770  22.256  18.946  0.4640  0.0403  0.0126
 7100W        W50038  21.761  18.325  16.360  0.1047 -0.0043  0.2087
 7101W        W50039  25.604  20.589  16.456  0.2416 -0.0216 -0.0664
 7102W        W50040  24.490  20.107  18.090  0.0735  0.1213  0.1063
 7103W        W50041  22.256  21.124  15.327 -0.0925 -0.1256 -0.0846
 7104W        W50042  26.110  21.006  16.868  0.0416 -0.2346 -0.2996
 7105W        W50043  25.302  22.681  17.699 -0.1450  0.1464  0.1287
 7106W        W50044  21.992  20.430  18.325 -0.0053 -0.3035  0.1522
 7107W        W50045  25.865  21.401  17.108  0.1108  0.0353  0.0419
 7108W        W50046  26.387  20.601  17.686  0.0147 -0.1398 -0.0501
 7109W        W50047  22.768  17.927  17.165  0.1648 -0.2062  0.1278
 7110W        W50048  23.340  19.519  16.880  0.0142 -0.0717  0.0002
 7111W        W50049  22.196  19.833  15.722 -0.0138  0.3550 -0.2160
 7112W        W50050  24.608  18.866  17.019  0.2485 -0.1313 -0.0877
 7113W        W50051  25.335  19.943  17.727  0.1444 -0.1417 -0.0352
 7114W        W50052  24.274  20.747  16.095 -0.1881 -0.0534  0.0704
 7115W        W50053  25.297  17.753  20.124  0.1587  0.0369 -0.1545
 7116W        W50054  24.545  21.710  19.163 -0.0882  0.1016  0.2213
 7117W        W50055  23.840  22.315  19.772  0.1584  0.2250 -0.1044
 7118W        W50056  22.169  20.770  15.008  0.2349 -0.1220 -0.0626
 7119W        W50057  23.169  21.815  17.231 -0.0696 -0.0567  0.2489
 7120W        W50058  22.798  20.915  16.910  0.4003 -0.1162  0.0397
 7121W        W50059  24.498  20.029  17.216 -0.0698 -0.0733 -0.1841
 7122W        W50060  26.165  21.690  17.454 -0.0255 -0.5045  0.0645
 7123W        W50061  22.960  18.084  17.646  0.0179 -0.0527  0.1988
 7124W        W50062  25.780  21.338  17.872  0.2111  0.2668 -0.0793
 7125W        W50063  22.184  18.464  17.810 -0.1217 -0.1065  0.1872
 7126W        W50064  25.412  17.498  15.972  0.2029  0.1310 -0.1055
 7127W        W50065  23.215  19.251  15.883  0.0690 -0.1165  0.2271
 7128W        W50066  22.661  19.287  17.365  0.1266 -0.1749  0.1495
 7129W        W50067  23.270  18.614  16.517  0.2102 -0.0316  0.1732
 7130W        W50068  23.238  19.806  15.176  0.2382 -0.0647  0.3275
 7131W        W50069  21.896  21.904  16.584 -0.0241 -0.0070  0.0290
 7132W        W50070  24.562  17.994  18.228 -0.1584  0.1012 -0.0252
 7133W        W50071  23.212  20.176  19.097  0.0383  0.1832 -0.2841
 7134W        W50072  22.850  19.637  16.981  0.0477 -0.0473  0.2112
 7135W        W50073  22.492  18.495  15.998  0.5368 -0.0887 -0.0526
 7136W        W50074  24.521  20.961  15.746 -0.1681 -0.0338  0.0639
 7137W        W50075  23.229  17.186  17.718 -0.2191 -0.1774  0.0384
 7138W        W50076  22.231  18.031  17.287 -0.2537 -0.2639 -0.0209
 7139W        W50077  24.092  19.254  16.080 -0.0272  0.1357 -0.1112
 7140W        W50078  25.124  22.340  16.767 -0.1585 -0.2128 -0.0486
 7141W        W50079  23.662  17.038  16.519 -0.0492 -0.1317  0.2102
 7142W        W50080  27.091  22.033  20.416  0.3723  0.2321  0.0940
 7143W        W50081  22.290  20.773  14.329 -0.0040 -0.0878  0.3255
 7144W        W50082  25.353  20.935  20.172 -0.1556  0.0544 -0.1033
 7145W        W50083  24.609  19.494  19.490 -0.0302  0.0783  0.1527
 7146W        W50084  22.034  18.693  14.881 -0.0444  0.3027  0.0428
 7147W        W50085  24.675  19.262  17.342 -0.0999 -0.0115  0.3877
 7148W        W50086  25.104  20.344  16.471 -0.3267 -0.0732  0.1202
 7149W        W50087  25.359  21.788  16.793  0.1385  0.0717  0.0412
 7150W        W50088  23.493  22.019  18.130  0.3637  0.1391 -0.2232
 7151W        W50089  24.233  22.390  17.660 -0.2484 -0.2110  0.0395
 7152W        W50090  23.282  20.243  18.417  0.2095 -0.1587  0.1795
 7153W        W50091  25.329  19.865  16.147  0.0286 -0.0606  0.1767
 7154W        W50092  23.166  20.599  18.099  0.3006  0.0589 -0.0734
 7155W        W50093  26.371  20.482  16.901 -0.0395 -0.0593 -0.0227
 7156W        W50094  25.756  18.575  17.910  0.1557 -0.3525  0.0197
 7157W        W50095  24.029  19.716  17.179  0.1548 -0.0486  0.4441
 7158W        W50096  23.484  19.144  19.517  0.2696  0.1178 -0.1234
 7159W        W50097  22.002  21.452  18.957 -0.0564  0.0648  0.0598
 7160W        W50098  25.491  21.887  18.680  0.3186 -0.0288  0.1429
 7161W        W50099  23.090  17.798  16.469  0.0911 -0.3964 -0.5147
 7162W        W50100  25.098  18.789  16.734  0.2109  0.0141  0.2051
 7163W        W50101  24.717  20.877  16.858  0.0661  0.3947 -0.2817
 7164W        W50102  23.048  20.587  17.126  0.0719 -0.0433  0.3266
 7165W        W50103  24.983  18.688  16.216 -0.2717  0.0636 -0.0017
 7166W        W50104  22.780  20.032  17.289 -0.0840 -0.0210 -0.0073
 7167W        W50105  25.178  20.249  17.403 -0.0016 -0.2537  0.1770
 7168W        W50106  24.761  19.804  18.452  0.0653 -0.2786 -0.0183
 7169W        W50107  23.125  19.288  15.329 -0.1901  0.2159 -0.0832
 7170W        W50108  25.643  19.609  16.481 -0.0261 -0.2156 -0.0003
 7171W        W50109  24.771  22.276  17.552  0.2386 -0.1374  0.1058
 7172W        W50110  25.178  23.011  18.659 -0.0107  0.2435 -0.0631
 7173W        W50111  24.165  23.753  17.177 -0.0208  0.1256  0.1444
 7174W        W50112  24.913  19.816  17.952 -0.5120 -0.1260 -0.0121
 7175W        W50113  22.085  18.534  16.732  0.1178 -0.1898  0.0973
 7176W        W50114  22.882  19.165  16.739  0.1301  0.0996  0.2910
 7177W        W50115  23.368  19.102  16.594 -0.0055 -0.2637 -0.1440
 7178W        W50116  24.652  19.380  18.119 -0.2012  0.2271 -0.2683
 7179W        W50117  23.081  18.711  17.919 -0.2943  0.4333  0.4753
 7180W        W50118  24.101  18.784  16.163  0.2070 -0.0465 -0.3659
 7181W        W50119  22.924  21.222  17.952  0.2196 -0.0127 -0.1009
 7182W        W50120  23.667  20.632  18.415 -0.3035  0.2741  0.0020
 7183W        W50121  22.249  20.782  21.354  0.1846  0.0798 -0.2940
 7184W        W50122  22.846  18.615  18.488  0.1374 -0.1020  0.1159
 7185W        W50123  25.316  19.478  18.238  0.0934 -0.1057  0.0960
 7186W        W50124  26.162  20.369  20.478 -0.0228  0.1977 -0.2032
 7187W        W50125  22.962  18.774  20.328 -0.0193  0.0157 -0.0217
 7188W        W50126  25.334  23.279  20.212 -0.3367 -0.1054  0.1827
 7189W        W50127  24.146  16.754  21.081  0.5985  0.0015 -0.2218
 7190W        W50128  23.757  22.094  21.881 -0.2003 -0.1015  0.1265
 7191W        W50129  25.694  20.701  22.523  0.1265 -0.1659  0.1079
 7192W        W50130  24.478  20.372  18.995  0.0885 -0.1573 -0.3682
 7193W        W50131  24.017  19.862  22.261  0.0567  0.2794 -0.0041
 7194W        W50132  24.496  22.398  23.361 -0.1519  0.3412  0.0796
 7195W        W50133  24.862  17.481  19.907  0.1280 -0.3650 -0.0059
 7196W        W50134  22.855  19.843  21.588  0.2490  0.0610 -0.0563
 7197W        W50135  24.505  19.669  22.303 -0.1144  0.0761  0.2641
 7198W        W50136  23.109  21.059  21.004 -0.0321  0.1083 -0.1017
 7199W        W50137  22.975  19.651  20.101 -0.0556 -0.0903  0.2141
 7200W        W50138  23.259  19.916  19.539  0.0285  0.0456  0.3027
 7201W        W50139  23.998  23.742  22.080  0.2685 -0.3006  0.0769
 7202W        W50140  24.119  20.627  21.530 -0.0428 -0.0604 -0.0333
 7203W        W50141  25.563  18.750  21.596  0.0371  0.1624 -0.0102
 7204W        W50142  24.600  22.101  22.655 -0.2802 -0.0811  0.2263
 7205W        W50143  23.391  20.641  21.156 -0.3686  0.2418  0.1771
 7206W        W50144  22.864  20.277  20.707  0.1713 -0.0329  0.4058
 7207W        W50145  24.392  19.224  21.295  0.2117  0.2415  0.1162
 7208W        W50146  25.515  17.434  20.764  0.0023 -0.1288 -0.1268
 7209W        W50147  25.134  20.750  21.834  0.0499 -0.2095  0.0719
 7210W        W50148  24.161  22.214  21.464  0.0709  0.2295  0.0083
 7211W        W50149  24.725  21.859  23.159  0.2346  0.0851  0.0891
 7212W        W50150  27.220  19.639  23.895  0.0726  0.0914 -0.1209
 7213W        W50151  21.947  21.393  19.757  0.0198 -0.1958  0.2909
 7214W        W50152  20.853  23.199  22.681 -0.1300  0.1975  0.0825
 7215W        W50153  22.926  22.697  19.977  0.2149  0.3884  0.0545
 7216W        W50154  25.199  21.352  20.702 -0.2545 -0.1921  0.0623
 7217W        W50155  24.951  20.433  22.178 -0.0150  0.2164  0.1589
 7218W        W50156  23.561  21.314  23.684  0.1189  0.2792  0.1435
 7219W        W50157  22.902  21.203  19.396 -0.3656 -0.3327 -0.3614
 7220W        W50158  23.555  20.869  22.910  0.1707  0.1352 -0.0809
 7221W        W50159  24.047  20.306  21.865 -0.2662  0.0095 -0.0812
 7222W        W50160  24.181  20.094  22.746  0.0203  0.0723 -0.0821
 7223W        W50161  24.209  20.921  20.723  0.3574 -0.4141 -0.2954
 7224W        W50162  23.178  21.714  18.567 -0.1898  0.2870 -0.0911
 7225W        W50163  23.741  21.901  22.308  0.0988 -0.1862 -0.0080
 7226W        W50164  23.739  21.287  23.108 -0.1128  0.0838  0.0321
 7227W        W50165  22.956  22.317  22.328 -0.0522 -0.2008  0.2063
 7228W        W50166  24.808  18.676  23.228 -0.2400 -0.0084 -0.0904
 7229W        W50167  24.208  20.958  20.216 -0.2824 -0.4968 -0.4119
 7230W        W50168  25.337  19.632  19.689  0.0400 -0.0314  0.2049
 7231W        W50169  23.850  21.279  20.507 -0.0148  0.0885 -0.1217
 7232W        W50170  25.710  19.980  19.607 -0.2427 -0.2252  0.0067
 7233W        W50171  25.644  19.056  21.996  0.1922 -0.1637  0.1129
 7234W        W50172  23.692  22.346  21.306 -0.0770 -0.0061 -0.2690
 7235W        W50173  23.795  19.723  23.050 -0.0197  0.0585  0.1569
 7236W        W50174  24.976  21.377  22.630  0.0923  0.1074 -0.0034
 7237W        W50175  24.043  20.086  20.934 -0.2202  0.1907  0.0488
 7238W        W50176  24.520  21.147  21.853 -0.1455  0.0387  0.0651
 7239W        W50177  22.673  22.121  22.836  0.0648 -0.0216 -0.1853
 7240W        W50178  23.687  19.813  20.672  0.1390 -0.0331 -0.3054
 7241W        W50179  25.337  21.619  17.772 -0.1336 -0.0798 -0.2402
 7242W        W50180  26.207  20.289  21.988  0.0562 -0.0226  0.2199
 7243W        W50181  24.421  21.349  20.971  0.1684 -0.1274  0.0021
 7244W        W50182  22.619  20.007  20.084 -0.0923 -0.2235  0.0245
 7245W        W50183  22.445  20.231  20.986 -0.0252  0.0665 -0.0476
 7246W        W50184  22.828  19.567  21.990 -0.0533 -0.0106 -0.1230
 7247W        W50185  23.505  18.100  18.035  0.1420 -0.1514  0.0553
 7248W        W50186  25.267  21.867  23.781  0.2403  0.0579  0.2856
 7249W        W50187  22.499  21.262  22.149  0.0585 -0.2899  0.0779
 7250W        W50188  26.336  18.948  20.708 -0.1228 -0.0854  0.0499
 7251W        W50189  22.930  21.548  21.123  0.1363 -0.2594 -0.1369
 7252W        W50190  24.274  22.833  22.287 -0.0535  0.2322  0.3280
 7253W        W50191  25.548  22.887  20.391  0.4168  0.0091  0.0681
 7254W        W50192  25.165  17.481  21.168 -0.0678 -0.0486 -0.0725
 7255W        W50193  24.787  19.706  23.285  0.1633  0.1192 -0.2822
 7256W        W50194  23.345  21.258  18.633  0.2041 -0.1306  0.0251
 7257W        W50195  24.161  21.721  18.873 -0.0024  0.0208 -0.0629
 7258W        W50196  24.471  20.207  22.190 -0.3603 -0.1676 -0.0640
 7259W        W50197  25.691  19.494  17.637 -0.0821 -0.2448 -0.0875
 7260W        W50198  22.526  22.270  22.029 -0.1951 -0.0328  0.0906
 7261W        W50199  25.452  18.041  22.221 -0.2499 -0.2524  0.1673
 7262W        W50200  23.577  22.711  23.047 -0.0112 -0.1098  0.1172
 7263W        W50201  23.792  22.412  17.888 -0.1268 -0.0134 -0.1923
 7264W        W50202  22.545  21.117  21.028  0.0610 -0.2267 -0.4386
 7265W        W50203  23.183  21.445  20.161  0.2947 -0.0551 -0.2727
 7266W        W50204  23.272  18.680  21.859 -0.2823  0.0789  0.0116
 7267W        W50205  23.541  20.085  22.196  0.3352 -0.5559  0.0429
 7268W        W50206  24.844  19.332  19.024  0.0420 -0.1413 -0.0564
 7269W        W50207  23.282  19.640  21.733 -0.1076  0.1524  0.1651
 7270W        W50208  25.369  17.995  21.708  0.1461  0.3625 -0.1899
 7271W        W50209  22.446  21.642  20.850  0.1958 -0.0417  0.1039
 7272W        W50210  25.623  21.734  20.617 -0.1445  0.1687 -0.0565
 7273W        W50211  24.983  19.279  19.700 -0.0427  0.0028  0.1338
 7274W        W50212  25.546  21.211  17.444  0.2147 -0.0314 -0.1199
 7275W        W50213  21.662  21.270  21.385  0.0369 -0.0595 -0.0655
 7276W        W50214  23.475  18.888  21.084  0.0415  0.0037 -0.1220
 7277W        W50215  24.113  19.570  22.719 -0.0103  0.2616  0.0886
 7278W        W50216  23.229  19.697  21.230 -0.0509  0.0826 -0.2549
 7279W        W50217  26.049  20.853  21.646 -0.0378 -0.2256  0.1393
 7280W        W50218  22.387  17.229  19.567 -0.0910 -0.0088  0.6733
 7281W        W50219  23.961  19.389  20.039 -0.0877  0.2403 -0.0256
 7282W        W50220  24.442  19.698  20.072  0.1540 -0.1494 -0.0063
 7283W        W50221  21.892  22.373  19.887 -0.1190  0.0416  0.0852
 7284W        W50222  25.730  18.202  21.411 -0.3843 -0.2294 -0.2001
 7285W        W50223  26.906  23.145  19.958 -0.1897 -0.4008  0.2054
 7286W        W50224  25.118  22.108  21.915 -0.2301  0.3685 -0.0696
 7287W        W50225  23.814  22.224  22.784 -0.0950 -0.1016 -0.0805
 7288W        W50226  24.207  18.264  22.265 -0.0614  0.0211 -0.3295
 7289W        W50227  24.041  18.684  19.140  0.2855  0.0680 -0.2962
 7290W        W50228  23.169  22.695  21.998 -0.3588 -0.0846 -0.2140
 7291W        W50229  25.112  22.308  22.403  0.0920  0.1677  0.0256
 7292W        W50230  23.767  19.186  19.108  0.1221 -0.1143 -0.0919
 7293W        W50231  25.409  22.573  21.045 -0.0585 -0.0044  0.1532
 7294W        W50232  25.744  20.297  21.515 -0.1827 -0.0435  0.0497
 7295W        W50233  22.686  20.058  23.291  0.0532 -0.2068  0.2437
 7296W        W50234  25.392  19.640  23.300  0.0438 -0.1439  0.2688
 7297W        W50235  26.549  20.694  20.514 -0.0438 -0.0516  0.1476
 7298W        W50236  25.582  19.798  21.072 -0.2809 -0.3233 -0.1202
 7299W        W50237  23.297  19.533  19.192 -0.2717  0.3720  0.1568
 7300W        W50238  25.498  23.227  22.251  0.0096  0.1645  0.0808
 7301W        W50239  24.198  21.740  20.062  0.2596  0.2481  0.1994
 7302W        W50240  23.531  20.023  20.037 -0.1161 -0.2185  0.3524
 7303W        W50241  23.669  20.831  21.519  0.1476 -0.0751  0.2188
 7304W        W50242  25.385  19.144  19.347  0.2169 -0.0842  0.0571
 7305W        W50243  23.566  19.763  22.603 -0.3537 -0.1804 -0.0192
 7306W        W50244  25.232  18.914  22.330  0.2137  0.0150 -0.0182
 7307W        W50245  22.873  19.311  19.261 -0.0770  0.1350 -0.1737
 7308W        W50246  23.092  22.269  23.783 -0.0515 -0.0247  0.2000
 7309W        W50247  25.755  17.893  19.772 -0.1195 -0.1131  0.1345
 7310W        W50248  25.820  17.892  20.975 -0.0289 -0.1573 -0.1098
 7311W        W50249  24.929  19.595  24.528  0.0857  0.2649 -0.1558
 7312W        W50250  26.148  19.163  20.106 -0.0040  0.0108 -0.1098
 7313W        W50251  24.940  20.285  18.744  0.1034  0.4669  0.1060
 7314W        W50252  25.182  18.808  19.744  0.0343  0.0804  0.1000
 7315W        W50253  21.976  19.717  21.902 -0.4789  0.2120 -0.1027
 7316W        W50254  24.766  21.567  20.753  0.1374 -0.3305  0.1554
 7317W        W50255  23.078  20.371  23.523 -0.2487  0.1139 -0.1761
 7318W        W50256  25.420  18.873  20.742 -0.0050  0.0999  0.1072
 7319W        W50257  24.252  20.895  19.622 -0.5237 -0.2809 -0.0748
 7320W        W50258  22.852  21.978  20.721  0.0932  0.2005 -0.0392
 7321W        W50259  25.426  20.415  24.126 -0.1673 -0.0669 -0.3546
 7322W        W50260  23.197  21.924  22.055 -0.3640 -0.0962 -0.1804
 7323W        W50261  25.371  18.001  21.108 -0.1119  0.0725 -0.1190
 7324W        W50262  23.021  20.967  20.114  0.0532 -0.1128  0.0805
 7325W        W50263  25.055  17.017  21.372  0.1553 -0.0248 -0.1337
 7326W        W50264  23.083  21.796  17.930  0.0127 -0.2717 -0.0853
 7327W        W50265  24.730  19.150  22.078 -0.1186 -0.0362 -0.0589
 7328W        W50266  24.013  18.883  20.280 -0.5494  0.0708 -0.0349
 7329W        W50267  25.346  17.077  22.051  0.0457 -0.0094  0.0546
 7330W        W50268  25.669  20.146  22.757  0.2737 -0.2543  0.0554
 7331W        W50269  26.682  20.913  20.042  0.2250  0.0851 -0.3781
 7332W        W50270  24.907  20.016  22.547 -0.0926 -0.1407 -0.1139
 7333W        W50271  23.807  19.988  18.441  0.1227 -0.0905 -0.0518
 7334W        W50272  24.925  17.511  22.344 -0.0982 -0.4027 -0.0796
 7335W        W50273  23.107  19.913  22.330  0.0912 -0.0534  0.3898
 7336W        W50274  22.071  22.114  22.096 -0.0304 -0.0591  0.2382
 7337W        W50275  24.613  21.040  22.797 -0.0062  0.1069 -0.1834
 7338W        W50276  25.216  20.350  21.565  0.1588 -0.4041 -0.1184
 7339W        W50277  23.180  18.248  25.030 -0.0348 -0.0305 -0.4606
 7340W        W50278  24.772  20.006  19.856 -0.1718 -0.2139 -0.2649
 7341W        W50279  22.425  22.061  20.166 -0.6569  0.1889 -0.0521
 7342W        W50280  22.434  20.704  20.770  0.2870 -0.2854  0.1062
 7343W        W50281  23.931  19.400  21.610 -0.1574 -0.1096 -0.1036
 7344W        W50282  24.271  21.102  22.359  0.1517  0.0418 -0.0511
 7345W        W50283  24.614  20.674  17.950 -0.0071 -0.3344 -0.1848
 7346W        W50284  25.413  20.706  23.671  0.0423 -0.1007 -0.0084
 7347W        W50285  23.462  21.934  19.740  0.5202  0.1626  0.3613
 7348W        W50286  26.057  19.456  22.447  0.1721 -0.2500 -0.1910
 7349W        W50287  22.117  21.611  21.872 -0.0074  0.2574 -0.0484
 7350W        W50288  23.353  20.434  19.602 -0.1305  0.0987 -0.0159
 7351W        W50289  22.288  20.390  19.383 -0.4017 -0.0041 -0.2965
 7352W        W50290  24.106  19.572  20.934 -0.4668  0.0792  0.1846
 7353W        W50291  26.707  20.286  20.137 -0.1130  0.0006  0.0665
 7354W        W50292  24.023  21.466  22.101  0.1906 -0.2022 -0.1830
 7355W        W50293  25.433  18.607  19.398  0.1700  0.1646 -0.0638
 7356W        W50294  22.808  22.521  21.138 -0.0316 -0.1103  0.2412
 7357W        W50295  24.476  19.388  21.770  0.1129 -0.1784 -0.3126
 7358W        W50296  25.061  19.831  19.320  0.0383 -0.0277 -0.1039
 7359W        W50297  25.236  21.234  22.219 -0.1123  0.0692  0.0977
 7360W        W50298  23.312  20.970  22.257  0.6729  0.1834 -0.0731
 7361W        W50299  22.779  19.188  20.056  0.3465  0.1451 -0.1109
 7362W        W50300  25.244  20.063  24.554 -0.0663 -0.2634 -0.2565
 7363W        W50301  24.588  19.582  20.969  0.0709  0.0842  0.0714
 7364W        W50302  22.711  21.750  21.975  0.0720  0.1439  0.2633
 7365W        W50303  23.644  23.680  21.686  0.0585  0.2693 -0.2351
 7366W        W50304  22.293  19.994  19.692 -0.1500 -0.1297 -0.2325
 7367W        W50305  24.337  21.804  20.748 -0.1163 -0.3306  0.1556
 7368W        W50306  24.588  18.884  21.643  0.2443  0.0663  0.2249
 7369W        W50307  24.471  20.585  22.979 -0.2077 -0.1342  0.1807
 7370W        W50308  24.145  18.915  21.806  0.0367 -0.3109  0.2202
 7371W        W50309  24.236  18.555  18.622 -0.1060  0.0407 -0.1118
 7372W        W50310  25.362  20.063  21.997  0.3492 -0.3032  0.2151
 7373W        W50311  25.727  20.520  21.956  0.2706 -0.0551 -0.1407
 7374W        W50312  25.623  19.279  22.442 -0.1666  0.1012 -0.2084
 7375W        W50313  22.582  22.164  23.837  0.0600 -0.1030  0.0231
 7376W        W50314  25.275  18.944  21.217 -0.0721 -0.4279  0.0298
 7377W        W50315  24.986  21.839  21.267 -0.4293  0.0881 -0.0489
 7378W        W50316  24.108  20.144  23.709  0.0798 -0.0182  0.2811
 7379W        W50317  23.773  20.770  20.435  0.0847 -0.0655 -0.0129
 7380W        W50318  22.690  21.012  21.487  0.2710  0.2047 -0.1640
 7381W        W50319  23.890  20.397  22.390 -0.3718  0.2450 -0.1236
 7382W        W50320  24.874  19.220  20.807 -0.0501  0.0917 -0.0349
 7383W        W50321  23.968  21.106  21.815  0.3274  0.2653 -0.0239
 7384W        W50322  23.772  21.435  19.520  0.1130  0.2361  0.2878
 7385W        W50323  21.670  22.169  21.273 -0.0317  0.2604 -0.0595
 7386W        W50324  26.839  18.876  20.817 -0.4077  0.1819  0.0644
 7387W        W50325  24.528  21.866  19.642 -0.0055 -0.1541  0.2384
 7388W        W50326  23.686  19.626  19.776  0.0457  0.0916  0.0592
 7389W        W50327  25.489  20.150  23.665  0.1512  0.1516  0.0588
 7390W        W50328  24.306  20.562  21.085  0.0684 -0.2281  0.4262
 7391W        W50329  24.613  18.777  24.877 -0.1011 -0.0715 -0.0550
 7392W        W50330  24.053  17.393  22.733 -0.1682  0.0550  0.1592
 7393W        W50331  23.510  20.324  22.721  0.1422 -0.1476  0.1564
 7394W        W50332  22.449  19.932  21.923  0.1359 -0.2466 -0.0603
 7395W        W50333  24.629  20.223  25.136 -0.2135  0.0731 -0.0096
 7396W        W50334  24.734  20.933  22.326  0.1810 -0.4653  0.1294
 7397W        W50335  25.132  20.265  20.714 -0.1103 -0.2293  0.1855
 7398W        W50336  23.981  19.302  19.511  0.0060 -0.0237 -0.2179
 7399W        W50337  23.765  20.729  22.020  0.1161  0.2119  0.2317
 7400W        W50338  24.481  21.834  21.221  0.0969  0.2347  0.3336
 7401W        W50339  24.136  21.492  21.526  0.2591 -0.1055  0.0041
 7402W        W50340  25.185  19.475  21.021  0.1484 -0.1615  0.1454
 7403W        W50341  23.181  19.766  20.720  0.1183  0.0287 -0.2013
 7404W        W50342  24.936  20.543  19.907  0.2098  0.0488 -0.3154
 7405W        W50343  23.724  20.170  19.131 -0.1532  0.2816  0.0706
 7406W        W50344  23.493  20.379  21.762 -0.1627 -0.1082 -0.0873
 7407W        W50345  24.274  18.642  22.606  0.1093  0.0130 -0.1526
 7408W        W50346  24.608  21.458  21.436 -0.0008  0.1300 -0.0604
 7409W        W50347  25.304  18.912  20.194 -0.0843  0.3166 -0.0885
 7410W        W50348  24.761  20.157  22.983  0.3195 -0.4156  0.0871
 7411W        W50349  25.655  21.008  22.141 -0.2370  0.0532 -0.1178
 7412W        W50350  22.909  20.310  22.769 -0.0015  0.2187 -0.0113
 7413W        W50351  23.428  19.291  21.415  0.2064  0.2488  0.2208
 7414W        W50352  24.547  21.839  24.075 -0.0228 -0.0187  0.2222
 7415W        W50353  25.310  20.806  18.397  0.2882 -0.2604 -0.3366
 7416W        W50354  25.881  19.119  22.795  0.0225 -0.0613  0.0061
 7417W        W50355  24.345  20.225  21.400  0.1758 -0.0689  0.0298
 7418W        W50356  25.094  19.933  21.121 -0.0564 -0.0239  0.1054
 7419W        W50357  23.263  19.099  20.085 -0.1846 -0.2175 -0.2158
 7420W        W50358  26.247  20.256  24.363 -0.1705  0.1630  0.0766
 7421W        W50359  24.268  19.421  19.132  0.0829  0.3201  0.2906
 7422W        W50360  24.900  18.568  22.430  0.1578 -0.0302  0.2236
 7423W        W50361  24.131  21.287  19.882 -0.1865  0.2700 -0.0488
 7424W        W50362  23.412  21.525  22.199 -0.0672 -0.1669 -0.1080
 7425W        W50363  24.197  20.473  20.571 -0.0976  0.0362  0.0392
 7426W        W50364  22.457  21.152  19.733 -0.2738  0.0667 -0.0631
 7427W        W50365  22.244  21.724  23.662 -0.0603 -0.0029 -0.1763
 7428W        W50366  22.621  21.970  18.700  0.0292  0.1589  0.1918
 7429W        W50367  24.119  21.075  21.276  0.1678 -0.3035  0.3541
 7430W        W50368  24.128  20.627  23.292 -0.3908  0.0973  0.0860
 7431W        W50369  25.266  21.478  23.104  0.1991 -0.0690 -0.1587
 7432W        W50370  24.479  19.520  18.700 -0.1402 -0.0357  0.2773
 7433W        W50371  27.033  20.530  22.346  0.1081 -0.0483  0.0044
 7434W        W50372  23.440  22.203  20.772 -0.2163  0.1156 -0.1129
 7435W        W50373  25.275  19.361  20.496 -0.0991  0.0834  0.0456
 7436W        W50374  23.348  21.874  20.399 -0.0623  0.3030  0.0490
 7437W        W50375  22.390  21.662  22.681  0.0688 -0.0818  0.0809
 7438W        W50376  23.135  20.832  21.755 -0.2396 -0.1067  0.2708
 7439W        W50377  25.648  19.549  21.983 -0.2977  0.0078 -0.3770
 7440W        W50378  24.812  20.544  22.631  0.0363 -0.0339  0.2557
 7441W        W50379  23.224  20.566  20.644  0.0922 -0.1315  0.0863
 7442W        W50380  25.707  19.648  22.911 -0.3106  0.0902  0.0663
 7443W        W50381  23.863  20.845  22.503 -0.2386  0.0466  0.0445
 7444W        W50382  23.380  22.015  21.534 -0.0907 -0.0836  0.1414
 7445W        W50383  23.554  21.893  23.752 -0.0025  0.0867  0.1626
 7446W        W50384  24.039  22.785  21.662  0.1777 -0.0643  0.2902
 7447W        W50385  23.404  20.195  20.945  0.2089  0.2444 -0.1302
 7448W        W50386  21.897  19.526  21.184 -0.0935 -0.0803 -0.3937
 7449W        W50387  24.259  19.485  23.228  0.0670  0.2200  0.1878
 7450W        W50388  24.589  20.072  20.921 -0.1270  0.2140 -0.0008
 7451W        W50389  24.861  19.911  22.036 -0.0149 -0.2709  0.2300
 7452W        W50390  24.919  20.294  19.219 -0.0473  0.0922  0.0354
 7453W        W50391  21.578  21.160  24.177  0.2044  0.3656 -0.0212
 7454W        W50392  22.950  21.267  22.373  0.2416  0.0322 -0.0424
 7455W        W50393  23.876  21.829  21.332 -0.0319  0.0458 -0.1148
 7456W        W50394  24.680  22.045  22.123  0.4220 -0.0957 -0.0919
 7457W        W50395  24.863  20.347  21.222 -0.3189  0.3122  0.0743
 7458W        W50396  23.627  22.866  22.161  0.2635 -0.1443  0.2988
 7459W        W50397  24.343  20.191  19.944  0.1833  0.0968 -0.2066
 7460W        W50398  22.829  21.783  20.185  0.2387  0.0163  0.0891
 7461W        W50399  22.660  22.030  19.331  0.1669  0.2147 -0.0677
 7462W        W50400  24.585  22.599  21.370  0.4077 -0.0418 -0.0319
 7463W        W50401  23.954  21.572  20.959 -0.2831  0.0152  0.0617
 7464W        W50402  26.147  21.917  21.895  0.4669  0.0551 -0.3759
 7465W        W50403  26.192  19.677  19.412  0.2481 -0.1200 -0.0417
 7466W        W50404  25.632  21.492  22.242 -0.0527 -0.0148  0.0351
 7467W        W50405  26.469  20.353  20.892  0.1331  0.0066 -0.0173
 7468W        W50406  25.716  21.625  23.164  0.2969  0.1508 -0.0608
 7469W        W50407  23.782  19.904  21.749  0.1650  0.0344  0.2295
 7470W        W50408  24.870  18.818  19.270  0.0660  0.0121 -0.0054
 7471W        W50409  25.119  20.839  21.341 -0.0001 -0.1149 -0.0752
 7472W        W50410  26.154  18.932  23.638  0.2853 -0.0909  0.2853
 7473W        W50411  23.942  21.610  23.495  0.0312 -0.1651  0.2655
 7474W        W50412  25.615  21.412  20.267 -0.1982  0.1770 -0.1687
 7475W        W50413  22.754  19.772  19.608 -0.2892  0.1362 -0.0697
 7476W        W50414  23.675  18.804  21.525 -0.3264  0.0160  0.0874
 7477W        W50415  24.701  19.812  21.446  0.1438 -0.1596 -0.1607
 7478W        W50416  24.033  20.357  18.145 -0.0026  0.0078  0.0998
 7479W        W50417  25.310  19.814  21.575  0.1556  0.3657  0.1362
 7480W        W50418  23.506  22.337  22.198 -0.1759  0.0614 -0.3159
 7481W        W50419  21.979  20.254  20.643 -0.0102  0.0197  0.3185
 7482W        W50420  23.601  21.630  21.712  0.1897  0.0975 -0.0683
 7483W        W50421  21.136  18.167  17.516 -0.0052  0.1928 -0.0180
 7484W        W50422  24.633  20.721  21.512 -0.2405 -0.0688 -0.0157
 7485W        W50423  23.168  20.186  21.405  0.0701  0.0281  0.0263
 7486W        W50424  26.158  17.931  21.440 -0.0135  0.1312 -0.0415
 7487W        W50425  24.080  18.695  19.664 -0.0543  0.0835  0.0160
 7488W        W50426  25.498  19.779  20.125 -0.0180  0.2616 -0.0478
 7489W        W50427  24.212  22.375  22.401  0.0893  0.2811  0.1948
 7490W        W50428  23.173  20.467  22.364 -0.1165  0.0265  0.1122
 7491W        W50429  24.082  20.521  19.285 -0.0354 -0.2368  0.2560
 7492W        W50430  25.319  20.136  23.129  0.0828 -0.1083  0.0796
 7493W        W50431  24.048  19.980  20.348 -0.3757  0.1560 -0.1883
 7494W        W50432  24.466  20.284  24.001  0.0734  0.2527  0.1032
 7495W        W50433  23.050  20.230  19.901 -0.0133  0.0696  0.1407
 7496W        W50434  24.394  19.218  19.920 -0.1979  0.2880  0.0326
 7497W        W50435  23.829  20.638  20.918  0.0907 -0.4045 -0.0112
 7498W        W50436  24.328  19.859  21.850 -0.1036  0.0839  0.1456
 7499W        W50437  23.747  20.998  24.068  0.2824 -0.1862  0.4284
 7500W        W50438  23.015  19.244  20.529  0.2891 -0.0607  0.1044
 7501W        W50439  25.100  21.385  20.215 -0.1850 -0.3459  0.0446
 7502W        W50440  26.093  20.378  22.566  0.0282 -0.1064  0.2457
 7503W        W50441  23.387  22.795  17.983  0.0599 -0.1271  0.3427
 7504W        W50442  24.653  20.553  20.738 -0.1517  0.0321  0.0842
 7505W        W50443  24.685  22.569  22.445  0.0454  0.1701  0.0742
 7506W        W50444  22.367  19.470  21.811  0.0055 -0.1234  0.0697
 7507W        W50445  24.798  23.277  23.337 -0.0019 -0.2015  0.0822
 7508W        W50446  26.022  22.446  22.102 -0.1501  0.0725  0.0069
 7509W        W50447  25.651  18.341  20.638 -0.1965 -0.0843 -0.0836
 7510W        W50448  24.473  20.664  21.995  0.0021 -0.0543 -0.0143
 7511W        W50449  23.934  22.143  20.805 -0.1742 -0.3293 -0.1869
 7512W        W50450  25.473  21.150  22.679 -0.3651 -0.2482  0.0885
 7513W        W50451  25.349  20.339  22.435 -0.2218 -0.2224  0.1745
 7514W        W50452  24.317  21.414  20.412 -0.0195 -0.0696  0.2131
 7515W        W50453  27.212  18.840  23.468  0.2794 -0.1692 -0.0710
 7516W        W50454  23.110  23.671  22.317 -0.1223 -0.0148  0.1329
 7517W        W50455  23.197  22.173  22.710 -0.2663  0.1441 -0.0890
 7518W        W50456  22.634  21.349  20.199 -0.1891 -0.0115  0.2108
 7519W        W50457  24.038  21.058  23.453 -0.1121 -0.0018  0.0268
 7520W        W50458  24.729  20.290  21.736 -0.1299 -0.0513 -0.2342
 7521W        W50459  23.657  21.748  22.784 -0.0488  0.1921 -0.1636
 7522W        W50460  24.241  21.476  23.165 -0.1135 -0.2288 -0.2103
 7523W        W50461  24.357  19.444  20.499  0.1048  0.1808 -0.1343
 7524W        W50462  25.534  20.652  20.634  0.0159 -0.1125 -0.4924
 7525W        W50463  23.886  20.107  19.656  0.0772 -0.1128 -0.1678
 7526W        W50464  25.756  19.408  20.307 -0.1818  0.1626 -0.3187
 7527W        W50465  26.085  19.456  20.903 -0.4592 -0.3290  0.0830
 7528W        W50466  23.970  20.536  22.859  0.0048  0.1878 -0.1727
 7529W        W50467  23.188  20.090  20.357  0.3646 -0.0292  0.1688
 7530W        W50468  24.712  21.053  20.566  0.0329  0.3403  0.4849
 7531W        W50469  23.323  21.274  21.360  0.0652  0.0317 -0.0305
 7532W        W50470  24.633  18.995  22.856  0.0308 -0.0633  0.1028
 7533W        W50471  24.058  19.430  22.103 -0.0391 -0.1512 -0.0905
 7534W        W50472  23.384  20.552  20.090  0.2191  0.0237  0.0535
 7535W        W50473  22.548  19.048  20.753  0.1900  0.0517  0.0437
 7536W        W50474  25.849  20.783  20.302  0.1272 -0.3960  0.2875
 7537W        W50475  23.270  18.508  20.833  0.1294  0.3264 -0.1037
 7538W        W50476  22.494  18.451  20.413 -0.2155  0.2074  0.2005
 7539W        W50477  25.579  20.895  21.465 -0.1807  0.1408 -0.0044
 7540W        W50478  25.116  20.852  20.832 -0.0006 -0.0559  0.0928
 7541W        W50479  25.166  19.843  18.752 -0.2943  0.1377  0.1587
 7542W        W50480  24.165  21.874  22.573  0.1398 -0.2352  0.2371
 7543W        W50481  23.083  20.699  19.219  0.0455  0.2410  0.4807
 7544W        W50482  24.327  19.233  22.503 -0.0702  0.1449 -0.0596
 7545W        W50483  24.010  18.315  24.289 -0.0665  0.1572 -0.1003
 7546W        W50484  22.595  18.391  18.843 -0.3158 -0.0164 -0.0015
 7547W        W50485  24.209  19.732  21.401  0.2715  0.0392 -0.2077
 7548W        W50486  23.833  21.767  20.491 -0.2509  0.2310 -0.1565
 7549W        W50487  24.656  21.593  20.110 -0.5893 -0.2639 -0.1655
 7550W        W50488  24.584  19.686  22.841 -0.1000 -0.0070 -0.3163
 7551W        W50489  23.900  23.952  22.691 -0.0044  0.3898  0.1786
 7552W        W50490  22.729  17.854  19.946  0.4229 -0.0284  0.0709
 7553W        W50491  24.892  19.736  20.561  0.3375 -0.1462 -0.0134
 7554W        W50492  25.101  21.108  23.467  0.1872  0.1336 -0.2765
 7555W        W50493  27.039  19.944  19.826  0.0705  0.0181 -0.3321
 7556W        W50494  26.327  19.880  22.403  0.0904  0.0567  0.4111
 7557W        W50495  23.965  20.890  18.859  0.0657  0.1725  0.3900
 7558W        W50496  24.534  18.241  22.740 -0.2172 -0.0116  0.1659
 7559W        W50497  23.001  22.989  24.242 -0.0890  0.3676 -0.0296
 7560W        W50498  26.143  20.777  22.256  0.2339  0.1491  0.1995
 7561W        W50499  22.783  18.542  20.838 -0.1892 -0.1038  0.1477
 7562W        W50500  25.772  18.751  19.823  0.1087  0.1645  0.2785
 7563W        W50501  25.296  22.541  21.579 -0.0752  0.1186  0.1990
 7564W        W50502  23.863  19.231  21.175  0.1601  0.0301  0.0965
 7565W        W50503  23.858  19.314  20.582 -0.0287 -0.0679 -0.2259
 7566W        W50504  24.098  18.490  23.571  0.0315 -0.2827  0.1502
 7567W        W50505  23.827  20.234  21.336  0.1180 -0.1042 -0.1451
 7568W        W50506  24.559  20.954  23.422  0.1056  0.0294 -0.3224
 7569W        W50507  23.679  21.162  21.012 -0.1275 -0.0335  0.0555
 7570W        W50508  26.804  19.798  20.265  0.0989 -0.2070 -0.1714
 7571W        W50509  23.329  21.082  23.294 -0.2266 -0.1895  0.0615
 7572W        W50510  24.210  21.361  24.249  0.2207 -0.1640 -0.1033
 7573W        W50511  24.631  20.940  21.088 -0.0648 -0.4090 -0.3250
 7574W        W50512  24.961  21.253  21.188 -0.1560  0.1343  0.2752
 7575W        W50513  24.163  17.764  22.456  0.0606  0.2160  0.0189
 7576W        W50514  25.058  20.128  20.222  0.0603 -0.2340 -0.0525
 7577W        W50515  22.992  21.733  21.571  0.2994 -0.0333 -0.0989
 7578W        W50516  25.182  20.800  22.498 -0.4238 -0.1771  0.0191
 7579W        W50517  23.731  19.750  21.255  0.0330  0.1410 -0.1448
 7580W        W50518  24.943  18.555  20.128  0.4241  0.0253  0.1883
 7581W        W50519  22.725  22.734  23.869  0.1159 -0.0403  0.0115
 7582W        W50520  24.356  20.635  22.498 -0.1332  0.1601  0.1688
 7583W        W50521  22.672  19.266  26.305 -0.2746 -0.0465  0.2345
 7584W        W50522  23.338  21.122  24.483 -0.2710 -0.1295 -0.0535
 7585W        W50523  24.715  18.459  23.710 -0.1337 -0.1794  0.1756
 7586W        W50524  25.379  19.226  25.227 -0.0533 -0.0290 -0.1033
 7587W        W50525  22.604  18.691  23.997 -0.1005  0.0436 -0.0727
 7588W        W50526  24.515  20.832  25.374 -0.1095 -0.1266 -0.0675
 7589W        W50527  22.608  18.452  26.425  0.0833  0.0571  0.3593
 7590W        W50528  23.097  22.235  24.674  0.2378 -0.1070 -0.0326
 7591W        W50529  23.521  21.456  26.008  0.0723 -0.0080  0.0528
 7592W        W50530  24.012  18.974  23.668 -0.2216  0.1057 -0.0264
 7593W        W50531  22.868  19.800  26.436  0.3397 -0.2497  0.1597
 7594W        W50532  23.076  19.152  25.112 -0.2118  0.0533  0.0557
 7595W        W50533  23.170  17.895  22.587 -0.0351 -0.2811  0.4502
 7596W        W50534  22.449  17.242  22.241 -0.0872 -0.1151  0.1862
 7597W        W50535  25.098  18.819  26.672  0.2316 -0.1373 -0.2128
 7598W        W50536  24.731  19.508  24.071 -0.1803 -0.0334 -0.3443
 7599W        W50537  22.576  19.138  25.207  0.0502  0.1914  0.0310
 7600W        W50538  25.447  21.245  24.532 -0.0535  0.1563  0.0563
 7601W        W50539  24.484  21.034  25.895  0.1578 -0.1546  0.4276
 7602W        W50540  22.799  17.964  26.024  0.2054 -0.1066  0.1839
 7603W        W50541  22.981  18.610  27.446  0.1590  0.1826  0.1795
 7604W        W50542  24.111  19.528  23.771  0.0780  0.3465  0.1189
 7605W        W50543  23.983  17.861  21.998 -0.1088  0.0646 -0.1765
 7606W        W50544  22.743  19.610  24.106 -0.1947  0.0516 -0.2609
 7607W        W50545  23.394  19.881  27.286 -0.0027  0.0361  0.0025
 7608W        W50546  24.928  19.348  26.459  0.0373  0.5432 -0.0308
 7609W        W50547  25.929  20.670  25.708 -0.1929 -0.0632 -0.1108
 7610W        W50548  23.039  19.485  26.091 -0.2479 -0.4209 -0.2313
 7611W        W50549  24.283  21.993  25.219 -0.1698 -0.0836  0.1545
 7612W        W50550  23.917  19.497  26.974 -0.2100 -0.0212 -0.0018
 7613W        W50551  23.154  19.855  24.478  0.1990 -0.2046 -0.0131
 7614W        W50552  22.771  21.229  24.322  0.0324  0.0154 -0.0499
 7615W        W50553  23.347  19.925  25.818 -0.1694  0.1322 -0.0336
 7616W        W50554  24.057  20.535  25.336 -0.0453  0.0858  0.0501
 7617W        W50555  22.039  20.562  26.442  0.1974  0.2468  0.1237
 7618W        W50556  23.843  20.989  28.895  0.1964 -0.2750 -0.3166
 7619W        W50557  23.093  20.393  24.575 -0.0267 -0.0366 -0.2148
 7620W        W50558  22.206  21.155  27.337 -0.1530 -0.2335 -0.3853
 7621W        W50559  22.602  19.538  24.593 -0.2581 -0.2195  0.1674
 7622W        W50560  23.482  19.243  26.281 -0.1402  0.2776  0.0604
 7623W        W50561  22.616  20.339  24.562  0.2569 -0.1984 -0.0006
 7624W        W50562  24.105  19.165  25.167  0.2686  0.0013 -0.0229
 7625W        W50563  24.654  20.158  25.936 -0.0718 -0.0233 -0.1717
 7626W        W50564  23.474  20.197  28.238  0.0735 -0.0363  0.2954
 7627W        W50565  21.426  19.291  24.455 -0.1710 -0.0653 -0.0700
 7628W        W50566  26.281  19.149  27.731 -0.1973  0.1695  0.2427
 7629W        W50567  22.502  20.751  23.956  0.0053  0.0969  0.1655
 7630W        W50568  24.852  19.100  24.541 -0.1865 -0.0918  0.0318
 7631W        W50569  24.033  18.679  24.882 -0.1387 -0.2986 -0.0988
 7632W        W50570  24.978  20.123  23.510  0.4879  0.3487 -0.4068
 7633W        W50571  22.747  17.039  24.743 -0.1394 -0.0042 -0.0614
 7634W        W50572  21.302  20.629  24.908 -0.0228 -0.0425 -0.0882
 7635W        W50573  23.137  19.177  26.616 -0.1160  0.1086 -0.2494
 7636W        W50574  26.147  20.445  27.230  0.1679 -0.1560  0.1655
 7637W        W50575  24.626  19.801  25.478 -0.4953 -0.0369 -0.2813
 7638W        W50576  24.197  18.694  26.604  0.1451 -0.1527 -0.1781
 7639W        W50577  23.139  19.709  25.359  0.0495 -0.2235 -0.0418
 7640W        W50578  23.169  18.810  26.268  0.0076 -0.2460  0.2920
 7641W        W50579  24.886  22.317  23.005  0.2184 -0.0096 -0.3784
 7642W        W50580  24.999  22.106  24.921 -0.1300  0.4166 -0.2776
 7643W        W50581  23.520  21.612  24.972 -0.0567 -0.0700  0.0145
 7644W        W50582  23.779  19.346  23.416  0.0198  0.1591 -0.0156
 7645W        W50583  21.929  20.457  26.998 -0.0957 -0.5100  0.2851
 7646W        W50584  22.067  17.186  24.810  0.0584  0.0089 -0.0291
 7647W        W50585  22.944  20.845  23.473 -0.0328  0.0212 -0.0893
 7648W        W50586  26.456  20.101  27.536  0.0588  0.1032  0.1623
 7649W        W50587  23.013  21.533  24.610  0.2002  0.2694 -0.0111
 7650W        W50588  23.918  19.905  25.955 -0.1516  0.5032  0.1012
 7651W        W50589  22.689  18.841  26.078  0.4562  0.3947 -0.2339
 7652W        W50590  24.475  21.064  26.645  0.3032 -0.0797  0.0683
 7653W        W50591  25.478  20.732  24.530  0.0938 -0.2259 -0.0395
 7654W        W50592  25.577  19.410  25.955 -0.0694 -0.4550 -0.1688
 7655W        W50593  24.628  18.230  25.811  0.0266  0.0489 -0.2518
 7656W        W50594  23.669  20.093  24.635  0.1073  0.1110  0.3970
 7657W        W50595  22.870  21.247  23.126  0.1470 -0.0652  0.5513
 7658W        W50596  23.745  20.389  27.062 -0.1884 -0.0785 -0.0571
 7659W        W50597  26.191  19.838  23.779  0.1459  0.0981  0.0193
 7660W        W50598  21.561  19.618  25.493 -0.2510 -0.1223  0.0240
 7661W        W50599  23.549  18.899  25.903 -0.1935 -0.0763 -0.2291
 7662W        W50600  22.263  21.710  28.738 -0.4577 -0.0351 -0.0913
 7663W        W50601  22.787  22.276  25.247 -0.1104 -0.0336  0.1089
 7664W        W50602  21.234  19.618  24.808  0.0343 -0.2209  0.1247
 7665W        W50603  22.331  20.540  22.554  0.0156 -0.0640  0.1115
 7666W        W50604  21.611  17.660  23.995  0.0565 -0.0540 -0.0401
 7667W        W50605  22.796  20.319  26.734  0.0601 -0.0093  0.3242
 7668W        W50606  24.133  19.660  25.014 -0.2384 -0.1845  0.3833
 7669W        W50607  23.086  17.963  23.586  0.0296  0.1169  0.1643
 7670W        W50608  23.639  18.441  26.788 -0.0962 -0.0949 -0.2407
 7671W        W50609  22.640  21.956  24.705  0.0390 -0.2954  0.0888
 7672W        W50610  25.128  21.517  24.825 -0.0335  0.0401  0.1228
 7673W        W50611  26.566  19.073  25.019  0.2661 -0.1130  0.5206
 7674W        W50612  27.205  21.990  22.756  0.0047  0.1782 -0.0376
 7675W        W50613  23.009  18.836  25.601 -0.1279  0.0789  0.0313
 7676W        W50614  23.653  19.876  23.564  0.1404  0.3742  0.1646
 7677W        W50615  22.357  18.594  25.402 -0.3063 -0.1928 -0.0821
 7678W        W50616  22.465  19.683  23.688  0.1408 -0.1883  0.1624
 7679W        W50617  26.100  19.175  25.825 -0.0850 -0.3174  0.0837
 7680W        W50618  23.089  18.911  22.367  0.0901 -0.0861 -0.1395
 7681W        W50619  23.453  19.670  24.798  0.1487  0.0075 -0.0040
 7682W        W50620  22.520  17.609  24.650 -0.3499  0.2409 -0.1892
 7683W        W50621  21.216  19.862  23.697 -0.2535  0.0797  0.1790
 7684W        W50622  25.416  18.204  28.582  0.1094  0.0438 -0.0826
 7685W        W50623  24.147  21.895  25.706 -0.0209  0.1604  0.2101
 7686W        W50624  26.793  21.531  27.198  0.1130 -0.0061  0.0600
 7687W        W50625  25.300  21.987  27.275 -0.0934  0.1654  0.2757
 7688W        W50626  22.311  18.058  25.403  0.0440  0.2300 -0.0586
 7689W        W50627  23.981  18.191  22.759 -0.2080 -0.0831 -0.1790
 7690W        W50628  22.680  22.267  25.916 -0.0539 -0.1138 -0.2642
 7691W        W50629  24.196  20.131  25.595  0.0556  0.1779 -0.0171
 7692W        W50630  24.303  18.600  23.980 -0.2652  0.1553 -0.0528
 7693W        W50631  24.812  21.167  25.008  0.1634 -0.1260 -0.0046
 7694W        W50632  23.713  19.163  25.468 -0.1354  0.1094  0.0072
 7695W        W50633  21.657  19.450  25.043  0.2299  0.2014  0.0586
 7696W        W50634  24.474  17.820  26.988 -0.1695  0.0957  0.1501
 7697W        W50635  24.817  20.167  26.999  0.0904  0.1298  0.1683
 7698W        W50636  23.711  18.756  26.409 -0.0742  0.0724  0.2695
 7699W        W50637  23.789  18.655  22.823  0.1267  0.1836  0.1558
 7700W        W50638  23.982  21.873  26.200  0.2636  0.0104 -0.0159
 7701W        W50639  22.798  20.515  26.124  0.0606  0.0114  0.1130
 7702W        W50640  21.989  20.321  23.660 -0.1500 -0.5196 -0.0174
 7703W        W50641  23.441  21.052  26.740  0.1193 -0.1050  0.2466
 7704W        W50642  25.318  18.598  25.382 -0.1451  0.2233  0.2346
 7705W        W50643  22.977  19.965  28.299 -0.1061 -0.0125  0.1483
 7706W        W50644  24.480  19.410  27.998 -0.0072 -0.1275  0.1619
 7707W        W50645  23.294  20.965  23.883 -0.3500 -0.0695 -0.0717
 7708W        W50646  23.840  21.609  27.348  0.1409 -0.1367  0.0327
 7709W        W50647  24.375  18.388  25.031  0.2372  0.0359 -0.2128
 7710W        W50648  25.104  19.450  25.993  0.1614 -0.1195  0.0890
 7711W        W50649  24.918  21.157  27.204 -0.1212 -0.0430  0.1741
 7712W        W50650  25.261  20.934  24.889  0.0645  0.0279 -0.0324
 7713W        W50651  25.041  18.335  22.889 -0.0084 -0.1146  0.2655
 7714W        W50652  24.276  19.406  24.343  0.0149 -0.1469  0.1173
 7715W        W50653  22.250  21.296  26.419  0.3365  0.5079  0.1514
 7716W        W50654  24.722  20.037  24.618  0.3387 -0.0291 -0.2152
 7717W        W50655  22.708  19.713  25.101  0.2464 -0.0070 -0.0186
 7718W        W50656  25.334  17.483  22.946  0.3322  0.0525  0.0433
 7719W        W50657  25.616  22.326  25.507 -0.3328  0.0179 -0.0296
 7720W        W50658  22.628  20.057  25.426  0.1668 -0.0314  0.1752
 7721W        W50659  22.702  19.861  27.058  0.1870 -0.1558  0.1018
 7722W        W50660  24.121  20.907  26.176  0.1983 -0.1977  0.0023
 7723W        W50661  23.865  17.547  25.237  0.0202 -0.1152  0.1157
 7724W        W50662  24.373  18.938  24.481  0.0096  0.0945  0.0850
 7725W        W50663  23.575  19.226  24.961 -0.0854  0.2480  0.4010
 7726W        W50664  22.322  21.300  24.048  0.0576  0.1189  0.2897
 7727W        W50665  23.650  17.718  27.265  0.1228 -0.2304 -0.0008
 7728W        W50666  24.166  18.372  27.040 -0.0989  0.1631  0.0966
 7729W        W50667  23.266  18.049  25.826  0.2037  0.0438 -0.0358
 7730W        W50668  25.896  19.294  26.892 -0.1881  0.1842  0.1200
 7731W        W50669  24.414  20.690  24.335  0.0784 -0.1036  0.1474
 7732W        W50670  24.814  20.221  26.462  0.0983  0.0845  0.0624
 7733W        W50671  23.642  20.249  23.206  0.1953 -0.1558  0.1462
 7734W        W50672  23.227  17.836  27.502  0.0842 -0.0216 -0.0081
 7735W        W50673  22.264  20.404  27.377  0.0405  0.1718  0.1198
 7736W        W50674  22.741  20.839  26.996  0.1607  0.0360  0.0822
 7737W        W50675  23.459  22.357  27.308 -0.4145 -0.0927 -0.0896
 7738W        W50676  24.595  19.881  23.712  0.2194 -0.2554 -0.0751
 7739W        W50677  22.760  19.373  26.880  0.0448 -0.2824 -0.4650
 7740W        W50678  22.691  19.162  23.833 -0.0670 -0.0339 -0.2342
 7741W        W50679  22.995  21.467  25.895  0.0957  0.1462  0.0348
 7742W        W50680  24.030  20.134  25.028 -0.0972  0.0135 -0.0612
 7743W        W50681  24.386  18.346  26.277  0.0952 -0.0925 -0.0102
 7744W        W50682  24.783  21.213  25.550 -0.1225 -0.0548  0.0243
 7745W        W50683  23.366  21.690  23.265  0.2548  0.3150 -0.1004
 7746W        W50684  25.166  21.528  25.789 -0.1136  0.2530 -0.1131
 7747W        W50685  23.049  21.915  24.188  0.0249 -0.1789 -0.1032
 7748W        W50686  23.970  18.751  25.449  0.1429  0.0776  0.1303
 7749W        W50687  22.587  20.569  25.024 -0.1718 -0.0454  0.0332
 7750W        W50688  23.316  19.442  23.554  0.1773  0.0686  0.0287
 7751W        W50689  23.504  18.281  24.691 -0.0335  0.1220  0.1765
 7752W        W50690  26.963  18.256  25.134 -0.2031 -0.2754 -0.1302
 7753W        W50691  24.775  21.338  23.125 -0.1086 -0.0688 -0.4302
 7754W        W50692  21.585  17.845  24.629  0.1165 -0.0980 -0.0633
 7755W        W50693  23.753  18.197  25.807 -0.2301  0.1869  0.1309
 7756W        W50694  21.711  20.769  25.237 -0.3762 -0.1180  0.1635
 7757W        W50695  24.464  20.562  26.275 -0.0607  0.2484 -0.0507
 7758W        W50696  24.093  19.031  22.916 -0.0875 -0.5911  0.0095
 7759W        W50697  24.861  20.939  26.322  0.0689  0.1106  0.0208
 7760W        W50698  23.009  21.300  26.796 -0.0176 -0.0990  0.0725
 7761W        W50699  23.234  20.546  23.088 -0.0963 -0.0916 -0.1254
 7762W        W50700  23.750  18.216  27.328 -0.0523  0.0211 -0.1555
 7763W        W50701  23.560  19.853  26.296  0.2655  0.3900  0.1242
 7764W        W50702  21.541  20.216  24.634  0.0644  0.3814 -0.3882
 7765W        W50703  24.436  20.436  26.774  0.1225  0.0013  0.4267
 7766W        W50704  22.885  21.257  21.871 -0.3625  0.0107 -0.0518
 7767W        W50705  23.810  20.563  24.887  0.1191 -0.0349  0.2264
 7768W        W50706  23.018  19.992  27.628  0.1574 -0.2518  0.1802
 7769W        W50707  26.058  20.589  26.745 -0.2055 -0.1944 -0.0743
 7770W        W50708  23.958  20.514  24.136 -0.1250  0.1290  0.4677
 7771W        W50709  24.607  19.726  24.950  0.1697  0.0090 -0.0380
 7772W        W50710  23.488  20.457  26.654  0.0239 -0.3769  0.3841
 7773W        W50711  23.882  19.526  26.465 -0.0942  0.2074  0.0854
 7774W        W50712  23.895  18.243  26.316 -0.0606 -0.0789  0.1972
 7775W        W50713  22.340  20.130  27.874 -0.0454 -0.0384 -0.0861
 7776W        W50714  23.670  18.171  25.198  0.3570 -0.2067  0.2044
 7777W        W50715  25.156  23.457  25.159 -0.2320  0.1224  0.1645
 7778W        W50716  24.212  19.175  26.719  0.1222 -0.3542 -0.0173
 7779W        W50717  22.865  21.832  22.409 -0.0865  0.1051 -0.3429
 7780W        W50718  21.957  19.811  24.849 -0.1014 -0.0524  0.0900
 7781W        W50719  23.068  19.777  22.810  0.0749  0.1890 -0.2938
 7782W        W50720  23.959  18.884  27.001 -0.1280  0.1249 -0.1535
 7783W        W50721  22.248  20.812  27.751  0.3883 -0.2029 -0.2124
 7784W        W50722  24.193  21.961  23.071  0.1215 -0.2197  0.0403
 7785W        W50723  21.818  19.360  26.384  0.2917  0.0632  0.0476
 7786W        W50724  24.520  20.316  23.420  0.0554  0.0650 -0.2453
 7787W        W50725  25.098  20.898  24.104  0.1220 -0.2120  0.0907
 7788W        W50726  23.608  19.640  25.311  0.0169 -0.1795 -0.1439
 7789W        W50727  25.953  19.534  29.339 -0.1586  0.1680 -0.0101
 7790W        W50728  24.418  19.073  23.984 -0.0235 -0.0805  0.0212
 7791W        W50729  22.700  19.000  27.520  0.4298  0.1290  0.1130
 7792W        W50730  22.586  18.519  24.656  0.4051 -0.0397 -0.0847
 7793W        W50731  25.179  21.778  25.309 -0.3543 -0.2909  0.2397
 7794W        W50732  22.270  19.201  26.578  0.1808  0.0160 -0.0743
 7795W        W50733  24.598  21.091  28.390 -0.0217  0.1288 -0.2221
 7796W        W50734  22.274  18.959  28.339 -0.2390  0.1740  0.3402
 7797W        W50735  23.351  17.723  25.176  0.0410  0.1363  0.0341
 7798W        W50736  23.735  18.616  21.982 -0.1172  0.1333  0.2333
 7799W        W50737  23.177  20.195  26.340 -0.0592  0.1770  0.1131
 7800W        W50738  24.154  21.664  26.721 -0.1283 -0.0099 -0.2774
 7801W        W50739  23.528  20.288  24.061 -0.0516  0.1864 -0.1574
 7802W        W50740  25.086  19.910  25.761 -0.2775  0.0356  0.0494
 7803W        W50741  22.742  19.223  25.784 -0.4081  0.2929  0.1828
 7804W        W50742  24.092  20.934  25.581  0.0047 -0.2243  0.3132
 7805W        W50743  24.489  19.286  24.830 -0.2203 -0.0452  0.1063
 7806W        W50744  23.031  20.766  24.241  0.5194 -0.0924 -0.0117
 7807W        W50745  21.393  18.191  25.447 -0.0056 -0.0301  0.0620
 7808W        W50746  25.570  19.455  27.225  0.0889  0.1510 -0.1801
 7809W        W50747  24.068  19.095  26.250  0.2982 -0.4293  0.1509
 7810W        W50748  25.434  19.124  24.648  0.2346 -0.0937 -0.2382
 7811W        W50749  24.476  18.831  26.010  0.0074 -0.1860 -0.1537
 7812W        W50750  23.425  19.439  27.679  0.2890  0.1771  0.2057
 7813W        W50751  21.412  18.359  24.210  0.2701  0.0377 -0.3534
 7814W        W50752  23.726  20.030  28.650 -0.3761 -0.1382  0.0859
 7815W        W50753  26.034  21.144  22.502  0.2103 -0.0871 -0.0957
 7816W        W50754  25.818  17.842  27.811 -0.0898 -0.1954 -0.2593
 7817W        W50755  24.340  19.858  26.384 -0.0154  0.2348  0.1893
 7818W        W50756  25.435  18.831  24.178 -0.0887  0.0231  0.2649
 7819W        W50757  23.490  19.129  24.328  0.3394  0.4125 -0.0810
 7820W        W50758  23.237  19.298  27.221 -0.0568 -0.2693  0.0524
 7821W        W50759  23.878  19.912  24.059 -0.0706  0.3221 -0.1970
 7822W        W50760  24.710  19.218  27.548 -0.0502 -0.0062  0.0555
 7823W        W50761  23.640  21.029  24.881  0.0425  0.0413 -0.0301
 7824W        W50762  24.890  20.599  25.977  0.1077 -0.0999  0.1309
 7825W        W50763  23.239  19.276  25.618 -0.1493 -0.2644 -0.3542
 7826W        W50764  22.108  19.675  22.802 -0.0855 -0.0380  0.0744
 7827W        W50765  22.757  21.807  27.569 -0.1259 -0.0216  0.0590
 7828W        W50766  23.464  18.999  23.780  0.0103  0.1791  0.0126
 7829W        W50767  23.691  19.410  23.931 -0.3227 -0.0329  0.0110
 7830W        W50768  23.839  20.464  25.878  0.1919  0.2300  0.0888
 7831W        W50769  24.730  20.235  28.535 -0.0852  0.4238 -0.3393
 7832W        W50770  23.551  17.217  22.786 -0.0552 -0.2829  0.0988
 7833W        W50771  23.398  18.240  27.682  0.1514  0.1656  0.0291
 7834W        W50772  22.200  22.370  25.147  0.0588  0.0781  0.2324
 7835W        W50773  24.114  17.963  25.182  0.0833  0.0787  0.0116
 7836W        W50774  22.375  20.149  24.976  0.1444  0.0926 -0.0120
 7837W        W50775  22.820  20.324  27.197  0.0366 -0.0212 -0.0650
 7838W        W50776  23.254  21.157  25.661 -0.2795 -0.0698 -0.0066
 7839W        W50777  24.177  18.329  25.552 -0.1351  0.1549  0.0166
 7840W        W50778  24.159  19.156  25.722  0.1332 -0.2090  0.2201
 7841W        W50779  23.676  20.716  26.308  0.3837  0.2792 -0.2026
 7842W        W50780  26.077  18.923  27.265 -0.0947  0.0299 -0.0534
 7843W        W50781  24.860  19.736  27.466  0.0820  0.1628 -0.2314
 7844W        W50782  23.629  19.160  26.751 -0.5212  0.1921  0.0457
 7845W        W50783  22.155  20.869  26.829 -0.2184  0.0689 -0.3871
 7846W        W50784  25.577  21.870  25.766  0.1613 -0.2099  0.0006
 7847W        W50785  23.301  20.699  24.855 -0.3051  0.2274 -0.0812
 7848W        W50786  22.962  18.412  26.045 -0.0239  0.0034  0.1907
 7849W        W50787  24.186  19.695  27.698  0.0823  0.1565  0.0218
 7850W        W50788  24.692  18.311  26.856  0.2316  0.0308  0.1499
 7851W        W50789  24.421  18.982  23.328 -0.0018  0.0205 -0.0644
 7852W        W50790  23.656  21.488  24.183  0.0790  0.1934 -0.0392
 7853W        W50791  22.644  21.912  27.001  0.2442 -0.0441 -0.1580
 7854W        W50792  22.840  18.677  25.084 -0.0941  0.2241  0.2233
 7855W        W50793  23.007  23.354  25.076 -0.2089 -0.2232  0.1445
 7856W        W50794  25.534  21.460  23.613  0.1181 -0.2273  0.1075
 7857W        W50795  24.878  20.020  24.087 -0.0159 -0.1956 -0.1752
 7858W        W50796  23.697  21.001  25.922  0.3808  0.0716 -0.1743
 7859W        W50797  24.113  19.629  25.528  0.0197 -0.0052 -0.0611
 7860W        W50798  23.331  20.497  25.960  0.2863 -0.3284  0.0232
 7861W        W50799  22.920  20.213  25.043 -0.0644  0.3522 -0.0404
 7862W        W50800  24.793  21.061  24.459  0.3644  0.0425 -0.3434
 7863W        W50801  23.939  21.876  24.862 -0.1658 -0.2294 -0.2391
 7864W        W50802  23.809  21.075  27.959  0.1415  0.0195  0.0824
 7865W        W50803  25.573  17.672  24.364 -0.1701  0.1099  0.0389
 7866W        W50804  25.558  20.880  25.276 -0.1435 -0.0694 -0.0465
 7867W        W50805  24.450  18.760  25.466 -0.2595  0.2066 -0.3310
 7868W        W50806  25.480  21.721  28.239 -0.2342 -0.2439  0.1187
 7869W        W50807  25.706  20.025  26.375  0.0972  0.3327 -0.2405
 7870W        W50808  23.208  18.848  24.751  0.2040  0.1891  0.2527
 7871W        W50809  23.395  18.357  26.323 -0.1241 -0.1202  0.0940
 7872W        W50810  24.374  18.333  28.049 -0.0709  0.1009 -0.1664
 7873W        W50811  22.054  19.890  25.366  0.0954 -0.1021 -0.1996
 7874W        W50812  25.306  21.836  24.337  0.0436 -0.3001  0.0850
 7875W        W50813  23.294  19.805  23.994  0.3761  0.2986  0.1891
 7876W        W50814  23.674  20.214  25.501  0.2491 -0.1868 -0.0404
 7877W        W50815  25.802  19.231  27.626 -0.2071 -0.1594  0.1657
 7878W        W50816  23.481  21.166  21.836  0.0928 -0.2029  0.1128
 7879W        W50817  22.998  18.110  26.473  0.1459 -0.1064  0.1468
 7880W        W50818  23.483  21.863  24.514 -0.2376 -0.0252 -0.2175
 7881W        W50819  22.335  19.674  26.657  0.1873 -0.4964  0.1158
 7882W        W50820  22.083  19.907  26.341 -0.1562 -0.0533  0.0298
 7883W        W50821  23.064  19.397  22.472  0.3745 -0.0369  0.1553
 7884W        W50822  25.218  20.183  26.182  0.2129 -0.0191 -0.2712
 7885W        W50823  21.784  18.379  24.548  0.0017  0.0029  0.1129
 7886W        W50824  25.800  18.878  26.138  0.1028  0.2455  0.3319
 7887W        W50825  22.206  20.220  23.231  0.2003 -0.1092 -0.0768
 7888W        W50826  25.223  19.051  25.699 -0.2016  0.2117  0.3702
 7889W        W50827  25.503  21.488  26.471 -0.1270 -0.3155  0.1257
 7890W        W50828  23.921  19.872  27.255 -0.0118  0.2035  0.0500
 7891W        W50829  24.904  19.165  23.228 -0.0771  0.1964  0.2257
 7892W        W50830  25.257  20.421  27.165  0.0196  0.1575 -0.2853
 7893W        W50831  24.183  19.954  23.280 -0.1317  0.1245 -0.0732
 7894W        W50832  23.560  20.643  28.026 -0.0013  0.1199 -0.2166
 7895W        W50833  23.851  18.089  23.778 -0.2591 -0.1418  0.0732
 7896W        W50834  23.122  19.356  24.579  0.1474  0.1227 -0.0690
 7897W        W50835  23.545  20.622  24.410 -0.0152 -0.1080  0.2480
 7898W        W50836  23.736  19.914  26.790 -0.2165 -0.1807  0.1239
 7899W        W50837  23.934  21.231  26.966  0.0815  0.1285  0.0012
 7900W        W50838  23.094  18.385  22.668  0.0398 -0.0373  0.1767
 7901W        W50839  25.734  21.949  23.617 -0.3555 -0.1951  0.0361
 7902W        W50840  25.241  20.842  27.458 -0.1761  0.1932  0.0611
 7903W        W50841  24.019  22.223  23.624 -0.2208  0.1650 -0.1523
 7904W        W50842  26.229  21.064  26.495 -0.1329 -0.0059  0.2010
 7905W        W50843  23.612  21.800  26.516 -0.1893  0.0911  0.1960
 7906W        W50844  22.961  19.837  23.656  0.1207 -0.0922  0.4480
 7907W        W50845  24.301  21.452  26.305 -0.0617  0.1979  0.1517
 7908W        W50846  25.082  21.233  26.707  0.1228  0.0339  0.0577
 7909W        W50847  23.930  17.768  23.402  0.3396  0.0320  0.1799
 7910W        W50848  23.968  19.177  24.661 -0.0886  0.2478  0.0408
 7911W        W50849  23.189  21.304  25.114  0.0559 -0.1580  0.0089
 7912W        W50850  24.913  18.394  24.612  0.1524 -0.0692  0.2000
 7913W        W50851  25.478  18.631  25.880 -0.1848  0.0428  0.1598
 7914W        W50852  24.223  20.856  23.868 -0.1718 -0.0254 -0.2446
 7915W        W50853  24.122  17.724  27.383 -0.1504  0.0519 -0.1830
 7916W        W50854  23.996  20.234  26.472 -0.2074  0.5122  0.1206
 7917W        W50855  21.912  22.060  27.510 -0.0356 -0.0885 -0.0617
 7918W        W50856  23.646  20.755  23.459 -0.0111  0.1411  0.2916
 7919W        W50857  24.773  20.555  28.050  0.0579  0.0710 -0.2245
 7920W        W50858  23.038  20.271  24.095 -0.0836  0.1165  0.1262
 7921W        W50859  24.421  21.870  23.535  0.0048  0.3916  0.1434
 7922W        W50860  24.416  21.328  24.707 -0.2915  0.1378 -0.3841
 7923W        W50861  23.729  18.707  24.506  0.2319  0.2619  0.0240
 7924W        W50862  26.411  21.933  26.003 -0.1077  0.2170 -0.2567
 7925W        W50863  23.843  16.929  24.590 -0.0251 -0.0942 -0.2229
 7926W        W50864  24.874  20.498  23.784 -0.3782  0.3310 -0.0668
 7927W        W50865  24.701  19.226  25.770 -0.0557  0.0972  0.0725
 7928W        W50866  23.342  19.638  26.707 -0.2185 -0.0291  0.0669
 7929W        W50867  23.758  21.329  22.514 -0.2137  0.0224 -0.0562
 7930W        W50868  22.986  20.932  22.766  0.0458  0.0706 -0.1583
 7931W        W50869  23.409  20.104  25.100  0.0386  0.0631  0.1151
 7932W        W50870  25.096  18.651  27.146 -0.0274  0.0745  0.1716
 7933W        W50871  23.099  17.654  25.586 -0.2292 -0.1392 -0.1860
 7934W        W50872  23.804  19.601  24.438  0.0632 -0.0769  0.3609
 7935W        W50873  22.747  18.417  23.474 -0.4446 -0.3645  0.2591
 7936W        W50874  24.538  19.345  25.339 -0.1847 -0.0702  0.1748
 7937W        W50875  22.851  17.721  25.166  0.3021 -0.1818  0.2172
 7938W        W50876  23.606  18.526  23.967 -0.0465 -0.0194  0.1350
 7939W        W50877  23.961  20.867  24.519 -0.1595  0.1846  0.1221
 7940W        W50878  24.393  21.531  25.466  0.0912  0.0704 -0.0087
 7941W        W50879  24.067  17.131  25.411  0.1126 -0.1704 -0.0881
 7942W        W50880  25.183  20.953  27.982  0.0205  0.0127  0.0744
 7943W        W50881  21.359  20.193  21.247  0.1065  0.0041 -0.1251
 7944W        W50882  22.950  18.918  27.083  0.3177 -0.0139  0.2922
 7945W        W50883  23.138  18.582  26.735  0.3716 -0.0458  0.0599
 7946W        W50884  22.541  16.801  21.415 -0.3029  0.1794 -0.2272
 7947W        W50885  24.381  19.690  25.910  0.3102 -0.3506 -0.0493
 7948W        W50886  23.176  21.449  24.093 -0.2988  0.2423  0.1989
 7949W        W50887  23.085  22.159  23.267  0.2234 -0.3681 -0.3172
 7950W        W50888  23.038  20.819  27.486 -0.2249 -0.0464 -0.0874
 7951W        W50889  22.456  20.211  26.317 -0.0091 -0.1918  0.2608
 7952W        W50890  22.389  17.101  24.457  0.0231  0.0273  0.0526
 7953W        W50891  25.225  21.386  24.071  0.0825  0.0493  0.0359
 7954W        W50892  24.874  20.393  27.454  0.1756 -0.0158 -0.0029
 7955W        W50893  26.258  21.558  25.044  0.1853  0.1112  0.0130
 7956W        W50894  25.516  20.538  26.584 -0.3580  0.1798  0.0279
 7957W        W50895  25.031  19.473  25.458  0.0315  0.0781  0.0686
 7958W        W50896  22.897  18.232  25.504  0.2273 -0.0787  0.2398
 7959W        W50897  23.685  20.906  27.196 -0.0360 -0.0680  0.1484
 7960W        W50898  25.318  20.906  26.956 -0.2862 -0.2126 -0.3149
 7961W        W50899  22.984  18.362  24.460 -0.1375 -0.0070 -0.3662
 7962W        W50900  25.511  19.715  25.480 -0.2036  0.1595  0.1304
 7963W        W50901  25.422  21.701  21.807 -0.1769  0.0018  0.0115
 7964W        W50902  23.396  18.378  25.497 -0.0745 -0.1075  0.0886
 7965W        W50903  24.921  18.194  24.136  0.1772  0.0165 -0.0620
 7966W        W50904  25.664  20.106  27.944 -0.0010 -0.1073  0.1845
 7967W        W50905  23.232  20.570  27.059  0.0650 -0.1677  0.2457
 7968W        W50906  25.182  20.415  28.315 -0.1686 -0.2075 -0.2314
 7969W        W50907  25.379  18.362  24.411  0.1646  0.2568  0.0313
 7970W        W50908  26.556  20.581  24.021  0.0971 -0.0021  0.1770
 7971W        W50909  23.645  19.951  27.842  0.1450 -0.0529 -0.0749
 7972W        W50910  24.742  20.701  28.737 -0.0442  0.3431 -0.2059
 7973W        W50911  23.540  18.724  25.132 -0.0242  0.1940 -0.3333
 7974W        W50912  27.432  20.946  26.989 -0.1890  0.0916  0.3390
 7975W        W50913  21.790  18.421  26.017 -0.2300  0.1824  0.2064
 7976W        W50914  24.409  18.446  24.548 -0.0274 -0.0679  0.0339
 7977W        W50915  23.610  19.488  25.835 -0.3491 -0.1727 -0.2970
 7978W        W50916  24.494  19.318  26.205 -0.2609 -0.1140  0.2816
 7979W        W50917  24.024  18.648  25.974 -0.0511  0.2014  0.1093
 7980W        W50918  24.290  18.559  23.102  0.0378 -0.0832 -0.1201
 7981W        W50919  22.542  19.706  26.057 -0.1145 -0.1034 -0.0724
 7982W        W50920  24.666  20.740  24.865  0.1241 -0.2181 -0.2406
 7983W        W50921  22.059  20.678  29.946  0.0021  0.2125  0.1040
 7984W        W50922  21.691  17.794  28.614 -0.1687  0.0293  0.2681
 7985W        W50923  23.338  18.919  27.665 -0.0038  0.1779 -0.3285
 7986W        W50924  25.232  19.369  29.411  0.2364 -0.0290  0.3299
 7987W        W50925  21.606  18.907  27.208 -0.1818  0.1641  0.2560
 7988W        W50926  24.263  21.214  28.829 -0.1269  0.2251  0.2489
 7989W        W50927  21.722  18.245  29.980  0.0641 -0.1029  0.2145
 7990W        W50928  24.554  19.666  28.471 -0.1141  0.3265 -0.0063
 7991W        W50929  26.860  21.513  30.314  0.0725 -0.1237  0.1853
 7992W        W50930  23.025  20.758  28.333 -0.0385  0.4153 -0.1141
 7993W        W50931  21.945  17.687  31.222 -0.0200 -0.2080  0.0018
 7994W        W50932  23.710  20.685  31.560  0.0340 -0.0915 -0.0707
 7995W        W50933  22.609  17.770  27.846 -0.0525 -0.2278 -0.2106
 7996W        W50934  20.250  15.848  29.348  0.0321  0.2129  0.4665
 7997W        W50935  23.502  19.093  28.903  0.0274 -0.0694 -0.1613
 7998W        W50936  22.751  19.418  28.281 -0.0014 -0.0956 -0.0568
 7999W        W50937  22.423  18.152  28.193  0.3564 -0.1627  0.1893
 8000W        W50938  22.438  19.850  27.490 -0.0195 -0.0412  0.1811
 8001W        W50939  22.852  22.357  29.106 -0.1427 -0.0635 -0.1839
 8002W        W50940  22.947  17.379  30.811  0.2299 -0.3673 -0.0536
 8003W        W50941  23.427  18.231  30.980  0.1252 -0.0263  0.1230
 8004W        W50942  23.975  19.742  28.169  0.1819  0.0765 -0.2332
 8005W        W50943  23.438  20.370  27.528 -0.0939 -0.2284 -0.0832
 8006W        W50944  21.600  19.719  27.790 -0.2383 -0.4552 -0.1384
 8007W        W50945  23.151  17.699  29.079  0.1222 -0.3678 -0.0745
 8008W        W50946  24.557  18.805  28.864  0.0256  0.2953 -0.1226
 8009W        W50947  23.866  18.477  30.943 -0.0361  0.0755 -0.3545
 8010W        W50948  23.920  20.990  29.721  0.1537 -0.0308 -0.0644
 8011W        W50949  23.139  20.892  29.244 -0.0126  0.2122 -0.0599
 8012W        W50950  22.736  19.825  30.122  0.1497 -0.2579  0.0586
 8013W        W50951  21.106  19.656  26.421  0.0814 -0.0761  0.4275
 8014W        W50952  20.797  20.725  28.469  0.3770  0.3203 -0.1757
 8015W        W50953  22.823  21.576  28.654  0.0808 -0.1827  0.3395
 8016W        W50954  26.224  21.355  28.975  0.1099 -0.0859 -0.0534
 8017W        W50955  25.727  20.570  30.716  0.0087  0.0439  0.2600
 8018W        W50956  22.827  21.824  31.382  0.2303  0.0896 -0.1358
 8019W        W50957  22.801  21.309  27.326  0.4795 -0.0666  0.2312
 8020W        W50958  23.935  20.561  29.902 -0.0005  0.0366  0.3751
 8021W        W50959  22.489  20.032  30.871  0.0606 -0.4311  0.0913
 8022W        W50960  23.745  19.205  29.770 -0.1788  0.1233  0.1383
 8023W        W50961  24.313  17.921  27.837 -0.2025 -0.1593  0.0744
 8024W        W50962  21.947  21.339  28.518  0.1065  0.2093  0.1069
 8025W        W50963  21.867  21.165  30.196 -0.0542 -0.0553 -0.1374
 8026W        W50964  22.945  19.497  30.998  0.1982  0.0636  0.1407
 8027W        W50965  22.460  21.468  30.634 -0.1662 -0.3463  0.2758
 8028W        W50966  25.578  18.837  31.831 -0.4058  0.0822  0.1097
 8029W        W50967  22.822  20.993  28.791 -0.3554 -0.3041  0.3227
 8030W        W50968  24.343  19.423  27.207 -0.3168 -0.2596  0.1022
 8031W        W50969  24.023  17.879  28.270 -0.0710 -0.1962  0.2791
 8032W        W50970  24.094  19.019  28.826 -0.1637  0.1202  0.2631
 8033W        W50971  24.225  18.687  28.451  0.0541  0.3507  0.0974
 8034W        W50972  24.089  20.677  29.323  0.1162 -0.0548 -0.2384
 8035W        W50973  22.142  18.594  28.033  0.1882  0.0821 -0.0064
 8036W        W50974  24.482  19.932  28.992  0.1403  0.0022  0.1596
 8037W        W50975  23.896  19.214  27.781  0.1845  0.3654  0.1175
 8038W        W50976  23.487  18.029  31.450 -0.1417  0.1842 -0.2772
 8039W        W50977  21.699  21.087  29.257  0.0152  0.2703 -0.2826
 8040W        W50978  21.354  19.833  27.401 -0.0751 -0.0281 -0.2440
 8041W        W50979  25.712  20.305  28.377 -0.0287  0.0951  0.0475
 8042W        W50980  25.697  20.377  27.467  0.0437 -0.1762 -0.0509
 8043W        W50981  24.772  21.176  28.885  0.3559 -0.0888 -0.0868
 8044W        W50982  23.417  19.182  28.133 -0.1616  0.0417  0.0633
 8045W        W50983  20.805  19.538  29.876  0.1069  0.1826  0.1713
 8046W        W50984  22.545  19.792  31.887 -0.0993  0.3175 -0.0762
 8047W        W50985  22.548  17.354  27.362  0.4174  0.0665  0.0336
 8048W        W50986  24.830  20.549  30.111 -0.0400 -0.1434 -0.1721
 8049W        W50987  20.068  18.540  29.323  0.1410 -0.1161 -0.1142
 8050W        W50988  24.140  19.566  28.700  0.0852 -0.1964  0.0747
 8051W        W50989  21.630  20.324  29.916  0.1489  0.0073 -0.0407
 8052W        W50990  25.830  21.022  28.827 -0.2480  0.1243  0.1899
 8053W        W50991  25.584  21.257  28.417 -0.1871 -0.0564 -0.0367
 8054W        W50992  22.515  18.070  30.271 -0.0658 -0.0441 -0.1023
 8055W        W50993  23.457  18.174  30.013 -0.0926  0.1628 -0.1971
 8056W        W50994  22.831  19.474  27.445 -0.3493  0.0233  0.0929
 8057W        W50995  23.841  18.353  28.451 -0.3551  0.2195  0.0949
 8058W        W50996  25.375  21.915  30.521 -0.0652 -0.1662 -0.0567
 8059W        W50997  25.287  20.500  27.838  0.0575 -0.0435  0.0259
 8060W        W50998  22.820  20.800  30.171 -0.2690 -0.0635 -0.1787
 8061W        W50999  23.353  18.825   0.177 -0.0049 -0.0849 -0.3578
 8062W        W51000  23.025  20.819  30.922 -0.0786 -0.1389  0.0938
 8063W        W51001  21.877  19.827  25.889  0.2702  0.3368 -0.1756
 8064W        W51002  21.045  19.813  27.869 -0.0514  0.1107  0.1484
 8065W        W51003  21.416  19.967  28.223 -0.0269  0.0812 -0.0462
 8066W        W51004  21.835  17.818  29.095 -0.0521  0.2928 -0.0256
 8067W        W51005  23.636  20.604  30.464 -0.0442  0.1311 -0.0087
 8068W        W51006  24.521  19.176  29.208  0.2059 -0.1306 -0.2660
 8069W        W51007  20.924  17.841  28.951 -0.0729  0.0202 -0.2361
 8070W        W51008  25.454  18.255  27.463 -0.1080 -0.3157 -0.2755
 8071W        W51009  22.227  21.017  29.018 -0.3194  0.0704 -0.1050
 8072W        W51010  24.407  22.057  28.123  0.0563 -0.0281  0.1532
 8073W        W51011  24.878  19.731  28.094  0.2338  0.0205  0.1513
 8074W        W51012  25.173  19.983  27.740  0.1456 -0.0783  0.0146
 8075W        W51013  22.395  18.963  29.363  0.0807 -0.3775  0.1131
 8076W        W51014  21.782  19.457  27.431  0.0644  0.2054  0.0277
 8077W        W51015  22.593  18.440  31.338  0.1883  0.0155 -0.1575
 8078W        W51016  22.966  17.714  29.713  0.2222  0.3071  0.0981
 8079W        W51017  23.541  19.416  31.170  0.1421  0.2477  0.2029
 8080W        W51018  21.781  17.997  26.962  0.1615 -0.0672 -0.0894
 8081W        W51019  23.707  18.019  31.877  0.2752 -0.2512  0.3875
 8082W        W51020  23.175  18.765  29.242  0.0639  0.1252 -0.0087
 8083W        W51021  20.754  19.663  28.286  0.0618 -0.1983  0.0736
 8084W        W51022  24.407  18.162  28.538 -0.2619  0.0483 -0.3645
 8085W        W51023  22.705  22.446  28.552  0.0405  0.1541 -0.1729
 8086W        W51024  25.455  21.160  29.533 -0.2877  0.2473 -0.1237
 8087W        W51025  23.544  19.636  28.954 -0.0294  0.2426  0.0096
 8088W        W51026  23.385  17.137  31.159 -0.3021  0.2310  0.4038
 8089W        W51027  21.718  17.396  25.711  0.1307  0.1578  0.2958
 8090W        W51028  21.655  21.518  28.142 -0.1399  0.0542  0.0350
 8091W        W51029  23.718  20.122  29.858  0.0399  0.4657 -0.1512
 8092W        W51030  22.190  18.160  27.775  0.1912 -0.3402  0.0548
 8093W        W51031  24.919  21.277  29.394  0.0019  0.3257  0.3157
 8094W        W51032  22.262  19.560  27.128 -0.0894  0.2337  0.0834
 8095W        W51033  21.187  20.164  29.047  0.1467  0.0055  0.1556
 8096W        W51034  24.629  18.743  31.721 -0.1445 -0.2699 -0.2454
 8097W        W51035  23.462  18.793  30.825  0.2274 -0.0134 -0.0734
 8098W        W51036  23.107  18.252  29.026 -0.0299 -0.0141 -0.1595
 8099W        W51037  22.466  18.401  25.916  0.1606 -0.1010 -0.0880
 8100W        W51038  23.888  20.482  28.448 -0.2689 -0.0218 -0.5324
 8101W        W51039  22.412  22.125  26.350 -0.0252  0.3692 -0.0452
 8102W        W51040  21.446  18.450  27.162  0.1576  0.0373 -0.0872
 8103W        W51041  22.941  21.396  28.021 -0.0588 -0.1924 -0.0393
 8104W        W51042  24.781  17.281  29.666  0.1787 -0.1775 -0.1264
 8105W        W51043  20.360  18.395  31.097 -0.1478  0.3080  0.1194
 8106W        W51044  23.219  18.606  30.409 -0.1997 -0.1677  0.2237
 8107W        W51045  20.945  19.060  26.536  0.1695 -0.1098 -0.1639
 8108W        W51046  21.914  20.261  29.549  0.0017 -0.4193  0.2060
 8109W        W51047  23.222  17.194  28.977 -0.1232  0.2139 -0.1094
 8110W        W51048  25.780  17.968  28.291  0.0528  0.1471  0.2147
 8111W        W51049  24.354  20.997   0.143  0.5813  0.2524 -0.0628
 8112W        W51050  25.644  20.815  27.805 -0.2534 -0.1306 -0.1689
 8113W        W51051  25.385  19.964  27.182 -0.2915  0.3686 -0.1292
 8114W        W51052  23.746  19.167  27.308  0.2031 -0.3479  0.2086
 8115W        W51053  21.289  19.470  29.558 -0.0251  0.0144 -0.1416
 8116W        W51054  21.814  20.903  28.300 -0.2595  0.0669  0.0743
 8117W        W51055  22.708  20.297  29.184 -0.0825 -0.0779  0.1591
 8118W        W51056  23.758  17.857  27.752  0.1952  0.2701 -0.2086
 8119W        W51057  26.086  21.268  28.399  0.1236  0.4480  0.2966
 8120W        W51058  21.687  20.894  29.708  0.0607  0.3984 -0.2590
 8121W        W51059  23.978  19.416  30.722 -0.3447 -0.0622 -0.3077
 8122W        W51060  25.512  21.311  27.900 -0.0806  0.0823  0.2145
 8123W        W51061  22.750  18.394  30.524  0.1476 -0.0916  0.0043
 8124W        W51062  24.436  19.973  27.325 -0.0627 -0.3075 -0.3817
 8125W        W51063  22.632  18.636  28.365 -0.0156  0.1780  0.2295
 8126W        W51064  22.116  22.599  27.483 -0.1108 -0.2932  0.1081
 8127W        W51065  25.654  18.502  31.023  0.0472 -0.1827 -0.3074
 8128W        W51066  23.611  18.563  28.965 -0.2044 -0.0667 -0.1264
 8129W        W51067  23.834  18.920  31.166  0.2272  0.0131  0.0056
 8130W        W51068  25.081  18.193  30.330  0.0876  0.1051  0.0357
 8131W        W51069  24.536  21.354  27.735  0.5835  0.1659  0.1441
 8132W        W51070  23.086  18.382  29.678 -0.2658  0.0827  0.1560
 8133W        W51071  22.287  20.138  26.885  0.0341  0.2405 -0.0225
 8134W        W51072  24.083  20.715  30.596 -0.2150 -0.0775 -0.1820
 8135W        W51073  21.101  19.838  28.639  0.0960 -0.2110  0.0960
 8136W        W51074  20.898  21.043  30.685 -0.0483  0.1761 -0.0736
 8137W        W51075  24.805  20.392  30.602  0.3276  0.0222  0.3548
 8138W        W51076  22.952  19.846  29.198 -0.1450  0.2905  0.0457
 8139W        W51077  22.993  18.137  31.549  0.0386 -0.0514 -0.0631
 8140W        W51078  24.532  19.074  28.444  0.0306 -0.0712  0.0266
 8141W        W51079  23.404  21.960  27.591  0.4039  0.2527  0.1745
 8142W        W51080  23.495  21.474  28.065 -0.0890 -0.0853  0.3326
 8143W        W51081  21.188  17.998  28.525 -0.0756 -0.0030 -0.0900
 8144W        W51082  23.344  20.450  30.065  0.0814 -0.0846  0.1979
 8145W        W51083  21.912  20.194  27.694  0.2849 -0.2022 -0.2295
 8146W        W51084  23.042  20.135  29.606  0.2012  0.2145 -0.1668
 8147W        W51085  21.974  21.511  29.308  0.0559 -0.1035 -0.0714
 8148W        W51086  23.378  17.645  28.567 -0.2995 -0.3787  0.1696
 8149W        W51087  22.165  21.706  28.170  0.2524  0.0016 -0.0368
 8150W        W51088  21.636  17.544  26.703 -0.0173  0.0563 -0.3944
 8151W        W51089  20.070  20.575  27.115  0.0190  0.0923  0.0207
 8152W        W51090  25.584  18.914  27.223  0.2265 -0.2998 -0.1022
 8153W        W51091  24.121  21.712  27.831  0.4017  0.3238 -0.1846
 8154W        W51092  21.862  18.299  29.456 -0.1959  0.0865 -0.4303
 8155W        W51093  22.787  18.628  30.052  0.2026 -0.0465  0.0819
 8156W        W51094  22.191  19.602  29.346  0.1507 -0.1506  0.0429
 8157W        W51095  24.069  18.398  28.940 -0.4753 -0.3721 -0.1417
 8158W        W51096  24.430  18.865  27.938 -0.0724 -0.0910  0.1549
 8159W        W51097  22.620  19.450  29.134  0.0674 -0.1686  0.1173
 8160W        W51098  23.119  19.522  30.522 -0.1548 -0.1104 -0.1569
 8161W        W51099  22.755  18.873  26.655  0.0591  0.0151  0.2239
 8162W        W51100  23.908  18.311  30.088 -0.0981 -0.3480 -0.1355
 8163W        W51101  22.723  18.352  26.955  0.0590 -0.0557  0.0862
 8164W        W51102  21.820  20.827  28.804  0.2717 -0.0124 -0.0679
 8165W        W51103  24.463  20.664  29.720  0.2775 -0.0502  0.0889
 8166W        W51104  21.611  19.046  27.677 -0.0938  0.2586 -0.5804
 8167W        W51105  21.140  19.638  29.104  0.1282 -0.2437  0.0963
 8168W        W51106  24.050  19.537  31.197 -0.1044 -0.0177 -0.0093
 8169W        W51107  24.002  19.333  29.210 -0.0919 -0.2380  0.5512
 8170W        W51108  23.781  18.417  29.516 -0.0461  0.4744  0.1410
 8171W        W51109  20.987  18.419  28.851  0.0634 -0.0061  0.0078
 8172W        W51110  23.397  17.149  28.399  0.2882  0.2170 -0.2694
 8173W        W51111  24.459  19.726  29.495  0.3432 -0.3029  0.2629
 8174W        W51112  23.126  18.966  30.060 -0.0857  0.0680  0.1018
 8175W        W51113  21.555  21.059  31.325  0.0350  0.0700  0.0679
 8176W        W51114  23.474  17.933  29.586  0.0887  0.1092  0.2718
 8177W        W51115  26.138  22.966  28.683  0.0534 -0.2302  0.2529
 8178W        W51116  23.260  19.185  29.523  0.0515  0.1066  0.2006
 8179W        W51117  20.353  19.713  28.542  0.0010  0.3100  0.0580
 8180W        W51118  21.962  18.881  30.231 -0.0176  0.3837 -0.0088
 8181W        W51119  22.550  19.954  29.455  0.2948 -0.1501  0.1482
 8182W        W51120  23.431  19.662  29.429  0.2003 -0.1498  0.2255
 8183W        W51121  22.255  19.574  28.381  0.0666  0.2663  0.5090
 8184W        W51122  21.922  20.002  28.131 -0.3863  0.1869 -0.1352
 8185W        W51123  20.299  19.763  30.028 -0.2217 -0.0796 -0.1102
 8186W        W51124  24.138  16.967  28.903  0.2955  0.2452 -0.0362
 8187W        W51125  24.689  20.775  26.997  0.0123  0.0722  0.0711
 8188W        W51126  22.495  17.839  28.936  0.1764  0.1022 -0.0621
 8189W        W51127  25.160  19.058  31.535 -0.1792  0.1788  0.0940
 8190W        W51128  23.977  20.333  27.973  0.0553 -0.0930 -0.2377
 8191W        W51129  22.325  18.547  29.649 -0.0857 -0.1460 -0.0854
 8192W        W51130  21.794  18.319  28.929  0.2114  0.0298  0.1305
 8193W        W51131  24.097  20.985  28.443 -0.4516  0.2427  0.0999
 8194W        W51132  21.878  18.682  28.520 -0.2183 -0.1993  0.3390
 8195W        W51133  24.315  22.465   0.582  0.0085 -0.1077  0.2107
 8196W        W51134  20.786  19.904  30.244  0.1187 -0.4472 -0.1155
 8197W        W51135  23.904  17.902  28.798 -0.1079  0.2634  0.0522
 8198W        W51136  22.556  18.522  27.802  0.0074 -0.1471  0.0123
 8199W        W51137  22.557  20.672  29.697 -0.4356  0.0772  0.1716
 8200W        W51138  24.916  21.440  30.373  0.0798  0.3018 -0.0567
 8201W        W51139  23.691  22.027  28.829  0.1321 -0.1074 -0.2968
 8202W        W51140  24.074  19.171  28.293  0.0892 -0.1764  0.0472
 8203W        W51141  22.822  18.865  28.896 -0.0792  0.1988  0.0635
 8204W        W51142  23.371  19.685  28.162 -0.1448  0.0282 -0.1221
 8205W        W51143  23.422  20.593  28.595 -0.1142  0.0816  0.0449
 8206W        W51144  21.324  20.411  29.499 -0.1378  0.2299  0.1146
 8207W        W51145  21.483  18.019  29.395 -0.1300  0.4934 -0.1159
 8208W        W51146  22.626  19.715  28.704  0.0282  0.2490 -0.2505
 8209W        W51147  23.430  18.716  29.702  0.2763  0.2274 -0.2280
 8210W        W51148  23.648  18.770  30.163  0.1076 -0.1591 -0.2432
 8211W        W51149  23.816  17.774  30.671 -0.0679 -0.4052  0.2463
 8212W        W51150  22.244  19.160  30.609 -0.2562 -0.1552  0.0953
 8213W        W51151  20.540  18.415  29.445  0.1838  0.1410  0.0631
 8214W        W51152  24.192  20.940  30.126  0.3646  0.1635 -0.1420
 8215W        W51153  23.795  18.686  27.466  0.2003  0.2738 -0.0648
 8216W        W51154  24.307  18.420  29.640  0.2993 -0.1176 -0.2177
 8217W        W51155  26.892  19.021  28.192  0.2377  0.1244 -0.3015
 8218W        W51156  25.035  19.740  28.724 -0.3395 -0.0497 -0.1689
 8219W        W51157  22.348  18.726  28.834 -0.0982 -0.1784 -0.1319
 8220W        W51158  24.374  18.473  30.877  0.2999  0.1393  0.1696
 8221W        W51159  22.103  18.267  26.578  0.1913 -0.0466  0.0008
 8222W        W51160  25.541  17.610  31.130  0.0495  0.3294  0.4119
 8223W        W51161  23.753  21.949  28.019 -0.3610  0.1267  0.1264
 8224W        W51162  25.076  20.825  29.329  0.0046  0.0857  0.1865
 8225W        W51163  24.437  20.551  27.569  0.0032  0.0699  0.2258
 8226W        W51164  21.590  18.632  27.913  0.1153  0.1274 -0.1871
 8227W        W51165  21.976  20.371  30.358  0.0610 -0.1100  0.4041
 8228W        W51166  22.316  18.689  26.796 -0.0913  0.1397  0.0592
 8229W        W51167  23.888  20.682  27.573  0.1292  0.0818  0.1067
 8230W        W51168  23.103  19.296  29.077 -0.0177 -0.0703  0.0730
 8231W        W51169  24.052  18.898  31.644  0.1263  0.0676 -0.0629
 8232W        W51170  23.109  17.567  26.807  0.0874  0.1565 -0.1926
 8233W        W51171  24.525  20.068  29.821  0.1413  0.0453  0.2902
 8234W        W51172  21.831  21.095  27.835  0.1600  0.0659 -0.3133
 8235W        W51173  25.017  18.421  29.385 -0.0481  0.4046 -0.1953
 8236W        W51174  22.411  22.391  30.961  0.0963  0.1714 -0.1538
 8237W        W51175  21.265  20.999  29.514  0.4632 -0.2205 -0.0509
 8238W        W51176  23.197  20.334  29.080 -0.3745  0.0277  0.1678
 8239W        W51177  24.955  16.981  29.156 -0.2097  0.0579  0.3326
 8240W        W51178  23.763  17.278  30.341 -0.1006 -0.1457  0.0277
 8241W        W51179  22.658  20.918  29.277  0.0184 -0.0839  0.4396
 8242W        W51180  25.832  19.968  31.193 -0.1728 -0.1720  0.1339
 8243W        W51181  23.882  21.187  30.506 -0.0714  0.1219  0.3938
 8244W        W51182  21.882  19.336  29.620  0.0711 -0.1612 -0.2058
 8245W        W51183  24.410  20.059  30.421 -0.0644  0.0358  0.0629
 8246W        W51184  24.236  20.117  28.589 -0.0948  0.1954  0.1566
 8247W        W51185  22.072  20.708  29.418 -0.0504  0.3669  0.2072
 8248W        W51186  21.006  19.112  30.170 -0.1060 -0.1445  0.1040
 8249W        W51187  24.107  20.183  29.512  0.0229 -0.0867  0.0864
 8250W        W51188  23.026  18.139  30.160 -0.2596  0.1387 -0.2477
 8251W        W51189  23.230  18.496  28.616  0.2504 -0.0465  0.1419
 8252W        W51190  22.047  20.480  28.107 -0.0887  0.1289  0.4431
 8253W        W51191  22.081  20.422  30.872  0.1409  0.0060  0.0441
 8254W        W51192  20.594  19.797  27.792  0.0855 -0.0480  0.0032
 8255W        W51193  21.309  19.834  25.891  0.0932  0.1192 -0.1178
 8256W        W51194  24.831  19.594  29.159  0.0689  0.0582  0.0859
 8257W        W51195  24.221  20.578  28.838 -0.0767 -0.1639  0.2127
 8258W        W51196  24.593  22.140  29.820 -0.0425 -0.2133 -0.2017
 8259W        W51197  22.987  18.675  27.955 -0.0404  0.1579  0.1127
 8260W        W51198  23.248  21.179  29.939 -0.0807  0.3365 -0.2116
 8261W        W51199  21.883  20.565  25.631 -0.3232 -0.0637  0.1937
 8262W        W51200  26.120  22.116  28.096 -0.1265 -0.0270  0.0294
 8263W        W51201  23.386  21.124  28.835  0.1050  0.0785  0.2960
 8264W        W51202  24.577  21.809  30.501  0.1824 -0.2745 -0.0866
 8265W        W51203  24.510  19.652  26.822 -0.0161 -0.3109 -0.3267
 8266W        W51204  24.460  18.159  30.178 -0.0398 -0.0819  0.0545
 8267W        W51205  24.242  18.350  27.574 -0.1985  0.0993 -0.1881
 8268W        W51206  23.824  20.335  30.835 -0.0654 -0.2333  0.1416
 8269W        W51207  23.071  18.931  28.441  0.6411 -0.0625  0.1390
 8270W        W51208  22.948  17.086  27.027  0.0233 -0.0977 -0.1706
 8271W        W51209  22.156  18.112  29.820  0.0049  0.0278 -0.1431
 8272W        W51210  24.821  18.899  31.129  0.0181  0.4830 -0.1965
 8273W        W51211  22.568  20.608  30.863 -0.4412  0.0239  0.0498
 8274W        W51212  26.266  21.551  28.066 -0.0791 -0.0521  0.1795
 8275W        W51213  22.413  18.566  27.305 -0.0023  0.1234  0.2342
 8276W        W51214  24.123  18.870  29.300 -0.0179 -0.1173 -0.2021
 8277W        W51215  23.845  17.647  29.434 -0.0544 -0.3033  0.0085
 8278W        W51216  24.054  20.728  26.641 -0.1760  0.3435 -0.2634
 8279W        W51217  22.854  18.915  29.607  0.2008  0.1176  0.2268
 8280W        W51218  22.393  20.803  28.252 -0.0808  0.4415  0.1495
 8281W        W51219  23.560  20.689  29.620  0.1575  0.0820  0.1039
 8282W        W51220  24.040  21.398  30.970  0.1964 -0.0323  0.1493
 8283W        W51221  21.195  18.182  26.800  0.0752 -0.0690 -0.2139
 8284W        W51222  25.252  18.879  29.707 -0.0868  0.0184 -0.0181
 8285W        W51223  22.961  18.663  31.024  0.3520 -0.1814  0.0172
 8286W        W51224  24.786  18.116  29.727 -0.0942 -0.2545  0.1990
 8287W        W51225  23.678  19.419  28.485  0.1781 -0.1741 -0.1536
 8288W        W51226  23.623  18.895  29.328  0.0343 -0.2954 -0.0418
 8289W        W51227  22.318  20.174  29.832 -0.1732 -0.3637 -0.2881
 8290W        W51228  23.059  19.031  30.679 -0.1060 -0.3362 -0.1888
 8291W        W51229  22.764  20.219  28.678 -0.1128  0.3392 -0.2302
 8292W        W51230  24.390  20.471  30.892  0.0293  0.0478  0.2826
 8293W        W51231  25.166  19.465  27.794  0.0251 -0.2576  0.2791
 8294W        W51232  23.917  20.191  30.381  0.1965 -0.1675  0.0368
 8295W        W51233  21.135  18.831  28.631 -0.1135 -0.1928  0.3568
 8296W        W51234  22.727  17.722  27.137  0.2105  0.1800  0.1310
 8297W        W51235  21.526  19.032  28.249 -0.1263 -0.1177  0.3178
 8298W        W51236  20.978  18.842  31.173 -0.3975  0.2406  0.3028
 8299W        W51237  24.895  20.192   0.486  0.3309 -0.0011  0.0629
 8300W        W51238  21.812  17.647  27.713 -0.1941  0.2105 -0.0551
 8301W        W51239  25.731  20.211  26.860  0.1222  0.3000  0.0421
 8302W        W51240  23.198  19.401  28.563 -0.1170  0.4726 -0.3657
 8303W        W51241  23.515  21.594  26.942 -0.1063 -0.0921 -0.2399
 8304W        W51242  25.284  19.926  28.221  0.0285 -0.0496 -0.0069
 8305W        W51243  24.736  21.739  29.551 -0.1512  0.1608 -0.2667
 8306W        W51244  21.470  19.467  28.651  0.0780 -0.1066  0.0351
 8307W        W51245  22.270  20.045  29.015  0.0835  0.2775  0.1816
 8308W        W51246  25.506  19.650  29.075 -0.1755  0.0327  0.2100
 8309W        W51247  24.771  17.907  28.347 -0.2667 -0.3867  0.1437
 8310W        W51248  22.067  19.257  29.040  0.3628 -0.2606 -0.0411
 8311W        W51249  21.993  21.912  26.949  0.2125  0.0811  0.0858
 8312W        W51250  25.353  19.549  30.811  0.2203 -0.1653 -0.0548
 8313W        W51251  24.204  18.638  30.368  0.0806  0.0266  0.0988
 8314W        W51252  23.516  22.366  27.875 -0.0239  0.2366  0.1295
 8315W        W51253  25.519  18.082  30.747  0.1347 -0.1098 -0.1115
 8316W        W51254  23.707  19.841  30.898 -0.1046 -0.2149 -0.0736
 8317W        W51255  23.106  21.708  30.521 -0.4430  0.2113 -0.0385
 8318W        W51256  21.786  18.876  26.656  0.0129  0.0052  0.1431
 8319W        W51257  23.726  20.868  30.926  0.1253  0.1682 -0.2562
 8320W        W51258  24.998  20.855  29.781 -0.0168 -0.1488 -0.3127
 8321W        W51259  24.700  21.826  27.854  0.1468 -0.1612  0.0224
 8322W        W51260  25.436  22.518  27.822  0.1621  0.5313 -0.2063
 8323W        W51261  23.678  18.859  28.458  0.2470  0.0132  0.2208
 8324W        W51262  25.543  19.657  28.518  0.0186  0.0936 -0.4493
 8325W        W51263  22.417  18.971  29.922  0.1488  0.2619  0.1820
 8326W        W51264  25.732  18.171  29.651  0.1894 -0.1953 -0.1101
 8327W        W51265  23.457  16.590  29.572  0.0697  0.0301  0.3471
 8328W        W51266  23.268  19.888  31.218  0.3075 -0.1023  0.1409
 8329W        W51267  20.589  18.238  26.317 -0.0908  0.2235 -0.0058
 8330W        W51268  23.120  20.469  27.906 -0.1532 -0.1409  0.0959
 8331W        W51269  22.718  19.737  27.897 -0.0895  0.0416  0.0103
 8332W        W51270  23.762  18.518   0.017 -0.1033  0.1756  0.0810
 8333W        W51271  21.384  18.624  30.915 -0.3143  0.0151 -0.0126
 8334W        W51272  20.771  19.505  28.758 -0.1962 -0.0466 -0.0016
 8335W        W51273  22.292  18.151  27.082 -0.0722 -0.2112  0.1250
 8336W        W51274  24.621  21.851  26.504 -0.0618  0.1676 -0.0806
 8337W        W51275  23.469  18.099  28.676 -0.0443 -0.2036  0.0204
 8338W        W51276  20.280  17.697  26.911  0.1064  0.0631  0.1918
 8339W        W51277  22.482  19.467  29.728 -0.1871 -0.1522 -0.0337
 8340W        W51278  23.959  19.910  29.095  0.0318  0.1122 -0.2079
 8341W        W51279  21.850  19.725  26.756 -0.0687  0.0620 -0.0715
 8342W        W51280  23.615  20.911  30.094 -0.2591 -0.1934  0.1586
 8343W        W51281  21.499  20.262  27.210 -0.3565 -0.0682  0.1894
 8344W        W51282  21.876  18.706  29.762 -0.2689  0.0441 -0.0556
 8345W        W51283  23.774  16.368  31.297 -0.0346  0.0872 -0.1056
 8346W        W51284  21.798  18.121  25.025  0.0980 -0.1620  0.1338
 8347W        W51285  21.937  19.235  28.538 -0.0638  0.3518 -0.2633
 8348W        W51286  22.698  20.358  28.152 -0.0606 -0.1634 -0.2321
 8349W        W51287  24.430  22.154  27.621  0.2035 -0.1358 -0.1328
 8350W        W51288  23.202  19.955  30.048 -0.3865 -0.1203  0.2879
 8351W        W51289  24.077  20.619  31.204 -0.0999 -0.1629  0.4477
 8352W        W51290  19.347  15.798  29.092  0.0423  0.1707  0.0075
 8353W        W51291  25.227  19.876  29.391  0.0494  0.1970  0.0635
 8354W        W51292  22.564  19.642  30.539  0.1568  0.0819 -0.1736
 8355W        W51293  26.025  21.104  27.915 -0.1726 -0.0958  0.0581
 8356W        W51294  25.700  18.644  29.582  0.0872 -0.0708  0.1667
 8357W        W51295  21.404  18.434  28.587 -0.1228 -0.2486 -0.0621
 8358W        W51296  20.532  17.233  30.268  0.0913  0.2654 -0.1586
 8359W        W51297  21.296  19.933  29.737  0.4007  0.2410  0.0286
 8360W        W51298  24.612  20.456  29.288  0.3063  0.0550  0.0955
 8361W        W51299  22.449  19.053  27.080  0.4034  0.0766 -0.2783
 8362W        W51300  23.242  19.916  28.697  0.0345  0.1037  0.0448
 8363W        W51301  24.553  20.098  27.882 -0.0758 -0.1168 -0.1845
 8364W        W51302  21.987  19.479  30.148 -0.1591 -0.2626  0.0413
 8365W        W51303  23.581  18.108  29.145  0.1516  0.0341 -0.0659
 8366W        W51304  24.493  18.934  29.954  0.3796 -0.2342  0.2584
 8367W        W51305  22.605  19.344  30.173 -0.1977 -0.1472 -0.1500
 8368W        W51306  24.437  19.548  30.572  0.1823 -0.1820 -0.3321
 8369W        W51307  23.423  18.832  27.169 -0.0258  0.1589  0.0006
 8370W        W51308  25.639  19.604  27.968  0.3148  0.2118  0.3237
 8371W        W51309  25.069  19.585  29.862 -0.0146 -0.2820  0.1361
 8372W        W51310  24.046  19.697  30.132 -0.3526 -0.0011  0.1259
 8373W        W51311  24.065  22.800  31.437  0.2856  0.0382  0.3296
 8374W        W51312  22.987  19.590  29.662 -0.2382  0.1304  0.0185
 8375W        W51313  20.372  16.609  28.302 -0.0330 -0.2638 -0.1429
 8376W        W51314  22.531  19.175  28.696  0.0311 -0.0321 -0.0781
 8377W        W51315  21.953  19.770  28.717 -0.1909  0.2624  0.3227
 8378W        W51316  24.483  17.749  30.491  0.3253 -0.0867  0.4414
 8379W        W51317  21.842  18.253  28.338  0.1721 -0.2010  0.1008
 8380W        W51318  24.880  18.242  28.690  0.0356 -0.1601  0.1079
 8381W        W51319  21.088  22.556  30.463  0.1143  0.0050  0.1234
 8382W        W51320  25.867  21.491  29.288 -0.1394  0.0632 -0.0902
 8383W        W51321  24.732  18.108  30.701 -0.2116 -0.1596  0.3254
 8384W        W51322  22.965  20.339  31.013 -0.1653  0.1257 -0.1663
 8385W        W51323  22.506  20.262  31.316  0.0076 -0.1468  0.1220
 8386W        W51324  22.059  19.742  30.700 -0.1102  0.0218  0.1961
 8387W        W51325  21.924  20.449   0.275  0.0911 -0.2990 -0.1563
 8388W        W51326  23.230  20.682  31.327  0.2573 -0.0498  0.2585
 8389W        W51327  23.568  20.134  29.336 -0.0207  0.0703  0.3777
 8390W        W51328  22.288  18.727  30.895  0.0426  0.1222 -0.1152
 8391W        W51329  23.875  19.031   0.174  0.3835  0.0410 -0.2241
 8392W        W51330  24.786  20.807  30.966  0.2263 -0.4043 -0.1214
 8393W        W51331  22.732  22.674   0.076  0.1276  0.1420  0.0413
 8394W        W51332  21.884  17.675  29.603  0.2518  0.1086  0.0486
 8395W        W51333  25.098  19.563  31.291 -0.1517 -0.1759 -0.4306
 8396W        W51334  22.995  20.452  30.529 -0.0475  0.3511 -0.1221
 8397W        W51335  24.740  18.749   0.759  0.3057 -0.4362  0.5121
 8398W        W51336  21.937  21.376  30.836  0.1578 -0.3609  0.3433
 8399W        W51337  20.041  20.958  31.278 -0.0790  0.2119 -0.0698
 8400W        W51338  23.923  19.681  29.533 -0.0929  0.2012 -0.2190
 8401W        W51339  20.855  18.701  29.924 -0.2566  0.0669 -0.1039
 8402W        W51340  22.796  18.878   0.237  0.1054  0.1806 -0.0094
 8403W        W51341  21.785  18.114  27.440  0.2328 -0.1976 -0.0547
 8404W        W51342  22.076  20.905  30.639 -0.1025 -0.1010  0.0148
 8405W        W51343  25.554  18.396  31.540 -0.2013  0.1947  0.1284
 8406W        W51344  25.097  19.972   0.963  0.1050 -0.0070  0.0776
 8407W        W51345  24.042  19.180  30.226 -0.1538  0.2383 -0.1027
 8408W        W51346  23.611  19.718  30.438 -0.2199  0.1970 -0.1029
 8409W        W51347  21.503  19.052  29.361  0.0705  0.0521 -0.0985
 8410W        W51348  21.120  20.771  30.378 -0.0653  0.2964  0.1224
 8411W        W51349  22.809  20.328  30.090 -0.3383  0.2311 -0.0401
 8412W        W51350  24.544  19.669  31.186 -0.1361  0.2011  0.3768
 8413W        W51351  22.718  20.696  31.369  0.0820  0.1095  0.1044
 8414W        W51352  22.292  20.010  30.411 -0.0965  0.0454  0.1704
 8415W        W51353  24.432  20.182   0.105 -0.1003 -0.2414 -0.2018
 8416W        W51354  25.214  19.643  31.907  0.1856  0.1966 -0.1690
 8417W        W51355  21.717  20.030  30.973  0.0825  0.0026 -0.3240
 8418W        W51356  21.816  19.926   0.413  0.0918 -0.4740  0.0090
 8419W        W51357  22.025  21.302  31.456 -0.1387 -0.1647  0.0446
 8420W        W51358  23.074  19.251  31.430  0.0593  0.0301  0.3854
 8421W        W51359  24.610  18.813   1.281  0.0946  0.1839  0.1343
 8422W        W51360  25.050  18.656   2.740 -0.2608 -0.1696  0.0241
 8423W        W51361  24.865  19.266  31.916 -0.2381 -0.1602  0.1748
 8424W        W51362  23.318  19.474  30.054 -0.1554 -0.2701 -0.0703
 8425W        W51363  24.289  19.766  31.654  0.0825 -0.0411 -0.3306
 8426W        W51364  22.744  21.671   0.271  0.0755  0.1781  0.0185
 8427W        W51365  21.092  19.139  29.051 -0.2752 -0.1077  0.2083
 8428W        W51366  23.390  18.409  31.731  0.1474 -0.1248 -0.1996
 8429W        W51367  24.713  18.383  31.241  0.0335 -0.2130 -0.1569
 8430W        W51368  24.165  19.973  30.861 -0.0435  0.2741 -0.0167
 8431W        W51369  24.195  20.146  31.333  0.2722  0.2206 -0.4600
 8432W        W51370  21.288  20.675  29.909  0.0740 -0.1621 -0.1212
 8433W        W51371  24.428  22.434  31.427 -0.1042  0.4117  0.1215
 8434W        W51372  26.042  18.888  31.652  0.0601 -0.0823  0.0139
 8435W        W51373  24.234  18.670   0.120  0.0772 -0.1067  0.0004
 8436W        W51374  23.393  20.395  31.762  0.3220  0.1247  0.3230
 8437W        W51375  23.519  19.203  30.465 -0.1464 -0.1234  0.2605
 8438W        W51376  23.822  18.419  31.482 -0.1892  0.1428 -0.0078
 8439W        W51377  24.645  19.164  31.495  0.5095  0.1095  0.3634
 8440W        W51378  22.850  22.413  31.281 -0.1941 -0.1085  0.1945
 8441W        W51379  22.639  21.873  30.360  0.2220  0.0659  0.0166
 8442W        W51380  21.868  19.311  31.588  0.1753  0.0596 -0.0661
 8443W        W51381  22.074  19.134  31.189  0.2941 -0.0356 -0.0714
 8444W        W51382  21.491  19.097  30.424 -0.6957 -0.0203 -0.1435
 8445W        W51383  21.296  20.322  30.268 -0.1915 -0.0478 -0.0237
 8446W        W51384  20.745  18.157  30.133  0.2179  0.0937  0.0301
 8447W        W51385  23.636  20.245  31.317  0.1037  0.3973 -0.1842
 8448W        W51386  24.567  21.545  31.563  0.2116  0.0485 -0.3570
 8449W        W51387  25.242  20.551  30.796 -0.2616 -0.0168 -0.0863
 8450W        W51388  24.212  26.288  18.915  0.0187  0.2390 -0.0925
 8451W        W51389  22.218  23.234  16.052 -0.2825  0.0446 -0.0411
 8452W        W51390  25.634  23.178  16.381  0.0639 -0.1844 -0.1242
 8453W        W51391  24.636  24.351  17.420  0.0602  0.1812  0.0726
 8454W        W51392  23.100  23.220  16.107 -0.3409  0.0342  0.1026
 8455W        W51393  25.365  25.672  17.341 -0.4781  0.0270 -0.1744
 8456W        W51394  23.480  22.932  19.212  0.1087 -0.0568 -0.0875
 8457W        W51395  24.760  24.865  17.699  0.2312  0.2447  0.3871
 8458W        W51396  25.528  25.248  18.895  0.0019  0.0771  0.2434
 8459W        W51397  22.274  24.775  15.490  0.1527  0.1333  0.1187
 8460W        W51398  24.432  23.695  17.866  0.2713  0.2522  0.0596
 8461W        W51399  22.406  26.444  17.934  0.2416  0.0475 -0.1170
 8462W        W51400  24.223  22.345  17.132 -0.1652 -0.2182 -0.0560
 8463W        W51401  22.281  22.555  17.011 -0.0071 -0.0860  0.2055
 8464W        W51402  25.077  22.962  18.137 -0.3233  0.0187  0.1264
 8465W        W51403  22.328  22.917  15.064 -0.3215  0.0583 -0.1652
 8466W        W51404  23.429  22.246  16.818  0.0328  0.1152  0.0465
 8467W        W51405  22.982  23.713  16.062 -0.1709  0.1709 -0.1616
 8468W        W51406  24.222  25.329  17.253  0.0244 -0.1355 -0.0370
 8469W        W51407  23.839  22.029  17.035  0.1379 -0.2134  0.2343
 8470W        W51408  24.779  22.185  20.012 -0.1869 -0.0798  0.4751
 8471W        W51409  22.438  24.947  16.312 -0.2292  0.0605 -0.2501
 8472W        W51410  23.830  21.789  15.507 -0.1789 -0.0245 -0.0026
 8473W        W51411  23.157  24.220  16.814  0.0986 -0.0412  0.1001
 8474W        W51412  22.504  23.760  16.243 -0.0558  0.0317  0.2405
 8475W        W51413  25.783  23.170  18.776  0.0764  0.1135  0.2904
 8476W        W51414  24.101  23.363  16.858 -0.1012  0.1360 -0.3841
 8477W        W51415  23.031  25.370  17.107  0.0356 -0.3188  0.0659
 8478W        W51416  23.721  25.674  17.282  0.0067  0.1397 -0.0778
 8479W        W51417  25.432  23.775  18.390 -0.3193 -0.0132  0.3546
 8480W        W51418  22.903  23.792  17.653 -0.0178 -0.0398 -0.1668
 8481W        W51419  23.402  25.123  17.229 -0.1351 -0.2018  0.1291
 8482W        W51420  22.411  24.439  15.821 -0.1227  0.0235 -0.2813
 8483W        W51421  25.766  23.640  16.257 -0.1253  0.0644 -0.1138
 8484W        W51422  26.066  22.753  19.114  0.1431  0.0603 -0.1509
 8485W        W51423  23.381  24.552  19.153 -0.0881 -0.0080 -0.0124
 8486W        W51424  22.027  25.163  16.924  0.1007 -0.0738 -0.3072
 8487W        W51425  25.137  24.893  18.838  0.4345  0.0773  0.1833
 8488W        W51426  24.084  26.435  19.453 -0.3285 -0.0676  0.0129
 8489W        W51427  22.991  22.644  19.230  0.0623  0.0367 -0.3832
 8490W        W51428  25.195  24.716  18.320 -0.4390 -0.3688 -0.1373
 8491W        W51429  22.950  25.074  16.279 -0.3992 -0.0852 -0.1929
 8492W        W51430  24.677  25.106  17.116 -0.3740  0.2468  0.0168
 8493W        W51431  24.015  24.482  17.770  0.2510  0.0220 -0.1422
 8494W        W51432  22.361  25.412  18.299  0.0894  0.1115  0.0102
 8495W        W51433  23.448  22.939  18.494 -0.1968  0.0005  0.0638
 8496W        W51434  23.292  27.325  16.379  0.0943  0.3192 -0.0359
 8497W        W51435  25.163  22.313  16.207  0.3517  0.0640  0.3309
 8498W        W51436  23.292  21.871  15.351 -0.1480 -0.1136 -0.1759
 8499W        W51437  25.646  22.483  16.926  0.3870 -0.2086  0.2097
 8500W        W51438  22.705  20.784  18.022 -0.0304  0.0409  0.0917
 8501W        W51439  23.381  27.745  18.331 -0.2283 -0.1280 -0.1036
 8502W        W51440  23.321  23.301  16.608 -0.0753 -0.3309 -0.0404
 8503W        W51441  26.190  24.458  18.068  0.4927 -0.0155 -0.0503
 8504W        W51442  24.741  24.715  18.169  0.0361 -0.1022 -0.0180
 8505W        W51443  24.674  22.999  19.463  0.0567 -0.1757  0.0976
 8506W        W51444  22.709  26.906  19.282  0.3472 -0.1093 -0.0956
 8507W        W51445  24.299  24.433  16.616 -0.4584 -0.0170 -0.1464
 8508W        W51446  25.420  25.431  16.245  0.0007 -0.0986 -0.1413
 8509W        W51447  26.601  26.385  16.397  0.0562 -0.1949 -0.1904
 8510W        W51448  24.501  24.936  15.765 -0.0916  0.1957  0.0502
 8511W        W51449  21.300  22.580  17.665 -0.1014  0.1203  0.2746
 8512W        W51450  23.344  25.186  19.952 -0.0529  0.1431  0.1283
 8513W        W51451  25.259  24.391  19.560  0.4026 -0.0049  0.0470
 8514W        W51452  22.814  21.030  15.753 -0.1009  0.0282 -0.0221
 8515W        W51453  26.670  25.063  19.298  0.2339  0.0206 -0.0255
 8516W        W51454  22.817  25.942  20.784 -0.1395 -0.1451 -0.0330
 8517W        W51455  24.802  22.630  16.452  0.2334  0.0981 -0.1281
 8518W        W51456  23.553  24.867  17.834  0.4271  0.0106  0.2430
 8519W        W51457  26.358  24.347  18.543  0.1216 -0.0370 -0.3628
 8520W        W51458  25.074  24.044  16.425 -0.3227  0.1036 -0.0920
 8521W        W51459  24.997  21.440  18.630  0.2599 -0.2788  0.0582
 8522W        W51460  24.706  21.665  18.070  0.0356  0.2397 -0.1153
 8523W        W51461  22.670  23.099  15.855 -0.1404  0.2300 -0.2377
 8524W        W51462  23.672  23.095  15.414 -0.2338 -0.1381  0.1512
 8525W        W51463  25.787  25.654  18.216  0.1519  0.3264  0.3725
 8526W        W51464  24.585  24.917  16.582  0.2324  0.0331  0.0950
 8527W        W51465  22.644  25.784  19.137  0.2479  0.0625 -0.0698
 8528W        W51466  23.494  25.292  18.488  0.0310  0.0668  0.0733
 8529W        W51467  25.659  24.565  18.117 -0.0652 -0.1735 -0.1594
 8530W        W51468  21.768  25.289  15.958  0.2557  0.0858  0.2376
 8531W        W51469  23.985  25.740  16.770  0.3287 -0.1529  0.2991
 8532W        W51470  22.823  23.947  15.304  0.1493  0.0642  0.0594
 8533W        W51471  24.059  22.941  17.255  0.1772  0.1770  0.0866
 8534W        W51472  22.711  25.780  17.329 -0.1366 -0.3519  0.1468
 8535W        W51473  25.854  22.702  18.644  0.1365  0.0129  0.1190
 8536W        W51474  22.890  23.617  18.130 -0.1379 -0.1067 -0.1308
 8537W        W51475  25.542  22.040  16.386 -0.1173 -0.1847 -0.2110
 8538W        W51476  24.234  24.235  17.092 -0.2038  0.3052 -0.2347
 8539W        W51477  25.177  26.336  16.548 -0.2136 -0.2149 -0.0189
 8540W        W51478  25.307  24.240  16.855 -0.2738 -0.1056  0.1534
 8541W        W51479  24.983  24.780  15.822  0.0118 -0.3318  0.2006
 8542W        W51480  22.784  23.835  20.128  0.2872  0.0471 -0.2078
 8543W        W51481  23.774  25.287  16.976 -0.0742 -0.1115 -0.0175
 8544W        W51482  23.333  22.362  19.863 -0.1794  0.1444 -0.1316
 8545W        W51483  23.361  23.865  17.230  0.0639  0.1078 -0.1674
 8546W        W51484  25.869  24.428  18.778  0.0071  0.0749 -0.1902
 8547W        W51485  22.048  21.291  15.842  0.4307  0.0590 -0.0577
 8548W        W51486  25.096  21.256  17.502 -0.1201 -0.1289 -0.0045
 8549W        W51487  23.827  23.990  16.397 -0.1613  0.1614  0.2144
 8550W        W51488  23.317  23.757  16.449  0.2675  0.0246  0.2097
 8551W        W51489  24.807  23.439  19.045 -0.0175 -0.4194 -0.1415
 8552W        W51490  23.485  25.744  15.605  0.1032  0.0488 -0.2899
 8553W        W51491  25.740  25.111  18.124 -0.1805  0.1644  0.2547
 8554W        W51492  24.239  25.987  18.421 -0.0794  0.1666 -0.3130
 8555W        W51493  23.076  23.556  16.957  0.1801  0.0202 -0.2354
 8556W        W51494  22.722  22.827  15.413 -0.2227 -0.0843  0.1907
 8557W        W51495  21.645  24.541  18.677 -0.1059 -0.3268 -0.1241
 8558W        W51496  22.634  25.069  18.060 -0.1693  0.3175 -0.3350
 8559W        W51497  22.884  22.785  16.324  0.2287  0.0185  0.3598
 8560W        W51498  25.148  25.818  18.221  0.0781 -0.2288 -0.0309
 8561W        W51499  24.713  24.557  16.254 -0.1371  0.0864  0.0609
 8562W        W51500  23.711  25.305  20.461  0.3398 -0.2409 -0.0627
 8563W        W51501  25.690  23.014  19.310  0.3230  0.0712 -0.0873
 8564W        W51502  26.480  23.772  19.964 -0.2864  0.0782  0.0313
 8565W        W51503  24.887  23.581  15.715  0.1135  0.0417 -0.0145
 8566W        W51504  22.507  22.439  15.812  0.0427 -0.1611 -0.3487
 8567W        W51505  24.940  25.983  17.353  0.0048  0.0921 -0.1720
 8568W        W51506  22.068  23.794  16.548 -0.2981  0.1081 -0.2687
 8569W        W51507  21.813  24.269  16.616 -0.1434  0.3106 -0.0735
 8570W        W51508  22.664  24.939  15.822  0.1171 -0.0684  0.0013
 8571W        W51509  25.056  24.138  18.151 -0.1655  0.2688 -0.4022
 8572W        W51510  22.650  24.263  18.461  0.1760  0.2470  0.1263
 8573W        W51511  23.035  22.064  18.950 -0.1039 -0.2130  0.0152
 8574W        W51512  21.574  23.075  15.904  0.1078  0.0540  0.2285
 8575W        W51513  23.856  25.078  19.102 -0.1537  0.1567 -0.0274
 8576W        W51514  24.534  21.899  17.226  0.0841 -0.0166  0.2542
 8577W        W51515  26.151  22.476  15.618 -0.2145 -0.1857  0.0064
 8578W        W51516  25.053  24.391  19.077 -0.3366  0.1861  0.3162
 8579W        W51517  24.855  24.028  15.412 -0.0015 -0.1138  0.0347
 8580W        W51518  24.101  21.633  16.554 -0.0818  0.0006  0.0395
 8581W        W51519  24.027  21.718  15.037 -0.0234 -0.1891 -0.0908
 8582W        W51520  23.329  24.995  19.387  0.0157 -0.0720  0.0261
 8583W        W51521  23.763  24.763  15.785 -0.0852 -0.1340 -0.2955
 8584W        W51522  25.553  26.119  18.176 -0.0537  0.0630  0.1478
 8585W        W51523  23.137  23.028  15.620  0.0707  0.0568  0.1295
 8586W        W51524  26.193  25.847  18.616 -0.0086  0.1089 -0.2680
 8587W        W51525  23.826  25.957  19.123 -0.1670  0.1668  0.0300
 8588W        W51526  24.672  24.459  18.702  0.0513  0.1765  0.2208
 8589W        W51527  24.424  25.763  17.091 -0.2204 -0.1411 -0.1129
 8590W        W51528  23.576  21.520  17.151 -0.3337  0.1530 -0.0521
 8591W        W51529  23.152  22.703  15.061  0.2280 -0.2858  0.2585
 8592W        W51530  24.237  24.063  17.583 -0.1025  0.0180  0.0828
 8593W        W51531  22.418  22.768  16.229  0.2405 -0.3512  0.1058
 8594W        W51532  25.800  21.367  18.852 -0.0454  0.1293  0.1172
 8595W        W51533  24.082  21.573  17.089 -0.0521  0.0737 -0.0515
 8596W        W51534  23.088  22.286  17.333  0.2101  0.1165 -0.2375
 8597W        W51535  25.173  22.619  19.464  0.0028 -0.2906 -0.0210
 8598W        W51536  24.309  24.087  15.918  0.0971  0.0286 -0.2663
 8599W        W51537  25.453  23.841  17.574 -0.0983 -0.3175  0.1463
 8600W        W51538  21.138  22.680  15.155 -0.0580 -0.0483  0.3489
 8601W        W51539  23.346  21.067  18.151 -0.0427 -0.0071  0.1279
 8602W        W51540  23.639  25.410  19.434 -0.1880 -0.2207 -0.3557
 8603W        W51541  21.636  25.528  19.128 -0.1102 -0.0936  0.0500
 8604W        W51542  25.461  24.068  18.922  0.2692 -0.0031  0.1624
 8605W        W51543  24.309  22.809  16.836 -0.1557  0.0243 -0.0039
 8606W        W51544  23.589  22.064  18.680 -0.0410  0.0892  0.2221
 8607W        W51545  24.037  21.258  15.691  0.0047 -0.2931 -0.0210
 8608W        W51546  23.576  25.927  16.126 -0.1586 -0.1669 -0.0882
 8609W        W51547  23.472  23.886  15.981 -0.0179 -0.1780 -0.0980
 8610W        W51548  23.734  21.157  16.754 -0.4391 -0.1600  0.2010
 8611W        W51549  22.855  24.783  18.478 -0.0333  0.2808  0.4394
 8612W        W51550  22.730  24.035  15.850  0.0869 -0.0764  0.2612
 8613W        W51551  25.212  24.516  20.462 -0.1532 -0.2395  0.0304
 8614W        W51552  22.153  24.709  16.686  0.3826  0.2000 -0.0476
 8615W        W51553  25.071  24.487  17.792  0.0901 -0.1635  0.2721
 8616W        W51554  23.871  24.500  16.418 -0.0642  0.1310  0.0628
 8617W        W51555  22.960  21.719  14.973 -0.2300 -0.0552 -0.1357
 8618W        W51556  23.723  23.618  16.782  0.2445  0.1462 -0.0026
 8619W        W51557  24.425  22.022  17.856 -0.1601 -0.2110  0.2532
 8620W        W51558  23.997  22.604  15.490  0.3070  0.2659 -0.0340
 8621W        W51559  23.948  22.928  16.468 -0.0198 -0.0971 -0.5565
 8622W        W51560  24.293  21.371  18.258 -0.2981 -0.1855  0.1849
 8623W        W51561  23.225  26.594  18.618 -0.0386 -0.4152  0.1179
 8624W        W51562  25.391  24.333  18.498 -0.1158  0.1423 -0.2303
 8625W        W51563  24.632  21.615  16.291  0.1324  0.0194  0.0834
 8626W        W51564  23.841  25.350  18.121 -0.0185 -0.1282  0.0458
 8627W        W51565  22.497  23.342  18.259  0.1098 -0.1352 -0.1279
 8628W        W51566  21.249  21.650  17.090 -0.3791  0.3233 -0.0758
 8629W        W51567  25.657  23.542  17.980  0.1532 -0.0469 -0.2109
 8630W        W51568  23.872  23.711  17.842 -0.1383  0.3527 -0.0926
 8631W        W51569  21.012  24.178  16.489 -0.0686 -0.1773 -0.3368
 8632W        W51570  23.070  24.832  16.974  0.0779  0.2455 -0.1750
 8633W        W51571  24.565  23.987  16.372 -0.1369  0.1162 -0.3672
 8634W        W51572  24.405  26.487  18.076 -0.1492  0.0063 -0.1922
 8635W        W51573  24.117  22.734  19.425 -0.0471 -0.1133  0.1727
 8636W        W51574  23.919  22.691  15.989  0.1430  0.0623  0.3228
 8637W        W51575  23.551  24.020  18.164 -0.3405  0.0659 -0.1973
 8638W        W51576  24.241  22.472  18.172 -0.0330 -0.0030  0.2869
 8639W        W51577  24.549  23.897  18.349  0.0564 -0.1755 -0.0696
 8640W        W51578  25.163  24.238  17.348 -0.4621  0.2744  0.1750
 8641W        W51579  23.031  22.869  18.760 -0.1334 -0.0283 -0.3313
 8642W        W51580  24.299  25.859  20.157  0.1435  0.5357  0.3337
 8643W        W51581  22.893  22.603  16.976 -0.0607  0.3431  0.0882
 8644W        W51582  25.930  25.573  16.383  0.1309 -0.0893 -0.3280
 8645W        W51583  25.345  23.181  17.820 -0.0832  0.1440 -0.3193
 8646W        W51584  23.211  24.643  16.542  0.0546  0.0524 -0.0712
 8647W        W51585  21.801  25.601  16.911  0.1513  0.0436 -0.0844
 8648W        W51586  23.434  24.523  16.063  0.1180  0.0746  0.0445
 8649W        W51587  23.846  22.801  18.182 -0.1960 -0.0336  0.0180
 8650W        W51588  23.397  25.399  18.989  0.1313 -0.0937 -0.1514
 8651W        W51589  22.743  23.287  16.461 -0.1554  0.0490 -0.2094
 8652W        W51590  21.997  25.313  18.669 -0.2297 -0.1672 -0.3475
 8653W        W51591  25.920  20.691  15.319  0.0997  0.1395  0.1604
 8654W        W51592  24.626  24.574  17.013 -0.0479 -0.0269 -0.1427
 8655W        W51593  24.775  24.142  16.836  0.1554 -0.3385 -0.1652
 8656W        W51594  24.712  22.772  19.018  0.0265 -0.0536  0.0106
 8657W        W51595  24.345  24.817  17.444  0.4100  0.0466 -0.3357
 8658W        W51596  24.833  22.124  19.347 -0.0392  0.1043  0.0053
 8659W        W51597  24.127  23.427  17.547 -0.0999  0.0341 -0.3739
 8660W        W51598  24.898  25.273  16.670  0.2811  0.0414  0.1095
 8661W        W51599  23.795  24.048  17.387  0.0624 -0.0198 -0.1087
 8662W        W51600  24.191  25.343  19.645 -0.0671  0.0455 -0.0105
 8663W        W51601  22.951  24.797  20.205 -0.1139 -0.3953 -0.2315
 8664W        W51602  24.657  22.947  18.514 -0.3230  0.1067 -0.0273
 8665W        W51603  23.803  22.206  15.808 -0.0026  0.2540 -0.4534
 8666W        W51604  22.858  24.601  18.007  0.1866 -0.3088 -0.0602
 8667W        W51605  24.906  23.423  18.391  0.1806 -0.3178  0.0661
 8668W        W51606  24.217  24.661  16.109  0.1428 -0.2902 -0.0300
 8669W        W51607  25.815  22.991  16.898 -0.0998 -0.1731 -0.1962
 8670W        W51608  22.455  25.301  17.682 -0.2120 -0.1795 -0.0199
 8671W        W51609  24.307  22.463  16.423  0.2287  0.0600  0.2689
 8672W        W51610  23.711  23.496  16.258  0.0056  0.0840 -0.1264
 8673W        W51611  23.756  25.817  18.255  0.0765 -0.0065  0.1494
 8674W        W51612  23.287  23.344  18.861  0.0450  0.1700 -0.0498
 8675W        W51613  25.192  23.470  17.391 -0.1241 -0.0138  0.2504
 8676W        W51614  25.125  23.667  17.988  0.1794 -0.1107 -0.2393
 8677W        W51615  24.549  23.277  18.104  0.6230  0.0621 -0.0013
 8678W        W51616  25.495  24.616  17.497  0.1557  0.0591  0.0978
 8679W        W51617  23.342  23.590  18.365 -0.0223  0.3019 -0.0032
 8680W        W51618  21.257  23.844  18.394 -0.1240  0.1554 -0.0859
 8681W        W51619  24.661  26.052  18.060  0.1297  0.2604 -0.1016
 8682W        W51620  26.445  23.061  16.780  0.1916  0.1778 -0.2555
 8683W        W51621  24.523  22.732  17.379  0.0677 -0.1642  0.0604
 8684W        W51622  26.339  23.819  18.512  0.1689 -0.4026 -0.3664
 8685W        W51623  23.446  21.742  15.839 -0.1435  0.3560  0.0533
 8686W        W51624  24.850  23.976  17.692 -0.2293  0.0594 -0.0820
 8687W        W51625  24.697  24.438  19.783  0.0188  0.2862 -0.0823
 8688W        W51626  22.018  22.278  15.785 -0.3238  0.2285 -0.1400
 8689W        W51627  25.387  23.474  18.822  0.0634  0.2676  0.1084
 8690W        W51628  23.818  24.684  17.317 -0.1301  0.1780 -0.1622
 8691W        W51629  24.118  24.954  17.861 -0.3186  0.0076 -0.0115
 8692W        W51630  23.338  24.513  18.186 -0.0941 -0.3543  0.4320
 8693W        W51631  21.686  22.641  17.284  0.1932  0.2387  0.0118
 8694W        W51632  24.360  24.906  19.468 -0.2938 -0.0120  0.2606
 8695W        W51633  23.642  24.205  16.789  0.0367  0.1887  0.0688
 8696W        W51634  23.609  22.264  15.284 -0.1505 -0.1164  0.0660
 8697W        W51635  25.480  24.629  19.085  0.1451  0.0505  0.1774
 8698W        W51636  24.944  23.978  20.484  0.2054 -0.0184  0.0216
 8699W        W51637  23.001  22.322  15.463  0.0372 -0.3948  0.0733
 8700W        W51638  24.374  23.445  18.728 -0.0937 -0.3440 -0.0221
 8701W        W51639  23.389  25.220  16.639  0.0639 -0.2013 -0.2691
 8702W        W51640  24.651  21.235  17.725  0.4071 -0.0781 -0.0491
 8703W        W51641  22.838  26.187  18.865 -0.1199  0.0653  0.1312
 8704W        W51642  22.247  24.566  18.543  0.0245 -0.0377  0.2286
 8705W        W51643  22.617  26.699  16.676  0.2163 -0.0634 -0.0312
 8706W        W51644  24.248  21.534  17.765  0.1390  0.1296 -0.2270
 8707W        W51645  25.030  22.849  16.893  0.1983 -0.4967 -0.0633
 8708W        W51646  25.867  24.155  18.345  0.0332 -0.0624 -0.2922
 8709W        W51647  24.237  22.119  18.556 -0.1151 -0.0393  0.0494
 8710W        W51648  24.185  24.717  18.744 -0.0162 -0.0752  0.4308
 8711W        W51649  23.039  25.740  18.779  0.1187  0.0641 -0.0115
 8712W        W51650  24.585  24.258  17.978  0.0523 -0.1167  0.0434
 8713W        W51651  24.926  25.550  17.099  0.1473  0.1787 -0.1609
 8714W        W51652  23.141  24.180  16.285 -0.4121  0.0137 -0.0771
 8715W        W51653  22.945  23.186  18.355 -0.0850 -0.3350 -0.1399
 8716W        W51654  25.063  23.821  19.149 -0.0381 -0.0148 -0.1271
 8717W        W51655  24.041  24.155  18.286 -0.0659 -0.1584 -0.1181
 8718W        W51656  22.978  21.304  15.387  0.0116 -0.3597  0.0017
 8719W        W51657  23.915  23.829  15.807  0.2848 -0.0633  0.2382
 8720W        W51658  23.300  25.941  19.317 -0.3775 -0.1519  0.0810
 8721W        W51659  24.136  24.986  21.128 -0.0863  0.1679 -0.3841
 8722W        W51660  22.697  24.460  17.073  0.0260  0.1680 -0.2734
 8723W        W51661  24.353  25.081  18.300  0.2940  0.0808 -0.2137
 8724W        W51662  25.717  24.228  17.133 -0.0244 -0.0223  0.3224
 8725W        W51663  23.900  26.403  17.669 -0.1714  0.0802 -0.0387
 8726W        W51664  22.328  21.590  15.061 -0.1804 -0.1896 -0.0533
 8727W        W51665  22.142  25.046  17.961  0.2034 -0.1810  0.0244
 8728W        W51666  22.603  25.051  16.760  0.0389 -0.1942 -0.0817
 8729W        W51667  24.063  25.152  15.696  0.1526  0.1010  0.0621
 8730W        W51668  22.020  25.141  16.401  0.1052 -0.1384 -0.2714
 8731W        W51669  24.581  23.910  18.945 -0.2590  0.1610  0.1988
 8732W        W51670  25.804  20.735  16.004 -0.3286  0.0233 -0.0865
 8733W        W51671  25.453  22.617  16.492  0.1193  0.1772 -0.1505
 8734W        W51672  25.542  22.135  17.240  0.2063 -0.1408  0.3755
 8735W        W51673  24.655  25.623  20.445 -0.0269  0.0056 -0.1019
 8736W        W51674  23.648  24.719  16.843  0.2095  0.0595  0.0221
 8737W        W51675  22.693  20.806  15.209  0.2255  0.0118 -0.4311
 8738W        W51676  23.675  24.357  18.558 -0.0231  0.1160 -0.2958
 8739W        W51677  24.219  21.404  19.254 -0.3921 -0.2978 -0.2348
 8740W        W51678  21.538  25.981  21.053  0.1706 -0.0192 -0.1385
 8741W        W51679  23.552  26.819  17.098  0.1163 -0.1110 -0.0248
 8742W        W51680  23.032  24.812  17.536 -0.1168  0.3287 -0.0071
 8743W        W51681  22.254  23.298  16.545 -0.1174  0.0186  0.1520
 8744W        W51682  25.954  21.620  19.875  0.4212 -0.2124  0.0381
 8745W        W51683  23.115  22.180  14.967  0.0373 -0.0218 -0.0757
 8746W        W51684  24.535  23.245  17.260  0.0465 -0.1795 -0.1785
 8747W        W51685  23.887  24.744  18.244 -0.0226  0.2936  0.3890
 8748W        W51686  24.462  25.398  19.184 -0.0181 -0.2262 -0.1134
 8749W        W51687  22.352  25.442  16.608  0.1295  0.0877 -0.3942
 8750W        W51688  22.045  22.791  16.537 -0.1027  0.0428 -0.2842
 8751W        W51689  26.167  23.086  17.236 -0.0755 -0.0503  0.0575
 8752W        W51690  23.729  24.167  19.019  0.1665 -0.1697  0.2714
 8753W        W51691  24.905  22.511  18.489  0.2982  0.4043 -0.3154
 8754W        W51692  22.170  24.004  18.455  0.2912 -0.2499 -0.0727
 8755W        W51693  26.336  22.665  17.547  0.2479  0.4889  0.0136
 8756W        W51694  23.083  24.371  18.782  0.0311 -0.5486 -0.0670
 8757W        W51695  22.600  24.587  18.907 -0.2735  0.0114  0.1469
 8758W        W51696  23.787  23.883  15.333 -0.2652  0.2234  0.1533
 8759W        W51697  24.590  26.284  18.550 -0.0646  0.0051 -0.1130
 8760W        W51698  23.284  22.220  15.931 -0.2336 -0.0640 -0.0448
 8761W        W51699  25.958  25.383  18.664 -0.0940 -0.0615 -0.1214
 8762W        W51700  22.336  21.859  16.355 -0.1564  0.2318 -0.3271
 8763W        W51701  23.589  22.473  16.295 -0.3117 -0.0312 -0.1259
 8764W        W51702  22.939  22.660  15.860  0.2609 -0.2573 -0.3665
 8765W        W51703  24.048  23.037  18.535 -0.1708  0.4238 -0.0852
 8766W        W51704  24.843  25.749  19.249  0.1825 -0.0052 -0.0910
 8767W        W51705  23.006  21.717  16.425 -0.0343 -0.1074 -0.1028
 8768W        W51706  23.545  25.251  15.779  0.3782  0.1439 -0.0996
 8769W        W51707  25.761  23.656  19.196 -0.1018  0.0909 -0.0061
 8770W        W51708  23.820  25.226  17.533 -0.3705  0.2382  0.1054
 8771W        W51709  24.504  23.554  16.722  0.4182  0.3164 -0.3307
 8772W        W51710  24.706  25.644  18.426 -0.1861  0.1574  0.2142
 8773W        W51711  23.641  23.085  17.650 -0.0371 -0.3110 -0.0204
 8774W        W51712  23.329  26.739  18.155 -0.2297 -0.1057 -0.1359
 8775W        W51713  25.008  25.200  17.495  0.0196  0.0153  0.3955
 8776W        W51714  24.539  21.468  16.808  0.0934  0.3152 -0.1723
 8777W        W51715  24.329  24.531  18.335 -0.0920  0.0680  0.0038
 8778W        W51716  22.123  24.422  16.218 -0.1162  0.0334  0.1774
 8779W        W51717  25.932  22.991  17.648 -0.0698  0.1530 -0.1456
 8780W        W51718  25.362  23.458  19.380  0.2062 -0.0060 -0.1802
 8781W        W51719  24.400  23.845  15.496 -0.1756 -0.0118  0.2244
 8782W        W51720  25.081  22.009  17.138 -0.1831  0.1113  0.1947
 8783W        W51721  25.169  26.513  18.783  0.1384 -0.2277 -0.0446
 8784W        W51722  22.959  24.197  19.776 -0.2346 -0.2243  0.0712
 8785W        W51723  23.550  23.446  15.729  0.0695 -0.0891  0.0789
 8786W        W51724  23.782  23.816  18.607  0.0926  0.1898 -0.1009
 8787W        W51725  23.527  24.977  16.198 -0.0986 -0.1179  0.2102
 8788W        W51726  22.949  27.003  16.148  0.0436 -0.0703 -0.0284
 8789W        W51727  25.019  24.712  17.278  0.1152  0.1779  0.1416
 8790W        W51728  25.087  23.834  17.069 -0.4571 -0.0303 -0.0839
 8791W        W51729  25.632  24.185  16.465  0.2555  0.3382  0.1556
 8792W        W51730  24.184  22.913  17.770 -0.0043 -0.1927 -0.0981
 8793W        W51731  24.610  23.090  16.544  0.1086 -0.1161  0.1528
 8794W        W51732  26.386  20.158  16.492  0.0751 -0.1907 -0.0187
 8795W        W51733  22.176  24.827  19.021 -0.3533 -0.1725 -0.0911
 8796W        W51734  21.003  23.251  15.984  0.1816 -0.1467 -0.0564
 8797W        W51735  23.161  26.606  19.152  0.0757  0.1152 -0.1897
 8798W        W51736  22.845  26.080  17.841  0.1781  0.1683 -0.0796
 8799W        W51737  24.000  21.880  19.535  0.1595  0.0802  0.2150
 8800W        W51738  22.704  22.438  19.617 -0.1608 -0.0600 -0.1821
 8801W        W51739  23.113  24.846  18.905  0.1855 -0.1702  0.2004
 8802W        W51740  23.861  24.274  16.006  0.0020 -0.1510 -0.1822
 8803W        W51741  25.516  25.132  17.408  0.3982 -0.0741  0.1828
 8804W        W51742  23.740  23.446  17.249 -0.0804 -0.2253  0.2189
 8805W        W51743  22.196  22.756  17.488  0.2114 -0.0325 -0.0022
 8806W        W51744  24.180  24.766  16.991  0.1023  0.0016  0.1420
 8807W        W51745  24.257  25.271  16.775  0.2178 -0.0061 -0.1673
 8808W        W51746  25.112  21.808  16.272  0.2975  0.0735 -0.0504
 8809W        W51747  25.044  25.351  20.280 -0.3102  0.1799  0.2746
 8810W        W51748  22.463  23.532  15.782 -0.2148 -0.1979  0.4886
 8811W        W51749  24.738  23.104  20.002  0.2068  0.0216  0.0221
 8812W        W51750  23.741  23.335  18.733  0.0702  0.2920  0.3132
 8813W        W51751  21.778  22.410  16.853  0.3443  0.1037 -0.1777
 8814W        W51752  24.129  23.544  18.306 -0.2690  0.3023 -0.0883
 8815W        W51753  23.695  25.930  17.712  0.3620  0.5801 -0.1267
 8816W        W51754  24.565  26.290  17.142 -0.1573  0.0549 -0.0675
 8817W        W51755  23.987  25.493  18.942  0.2213 -0.1467  0.0906
 8818W        W51756  25.633  24.820  18.608 -0.0033  0.1212 -0.0341
 8819W        W51757  22.951  23.093  17.839  0.1601 -0.0440 -0.1316
 8820W        W51758  25.079  24.650  16.736 -0.1109  0.0973  0.0805
 8821W        W51759  25.212  25.985  17.783  0.1396  0.1358 -0.1867
 8822W        W51760  25.478  24.006  16.003  0.0555 -0.1735 -0.2472
 8823W        W51761  23.900  21.691  18.470 -0.0112  0.0370 -0.1490
 8824W        W51762  24.363  23.580  15.878 -0.0788 -0.0733 -0.0384
 8825W        W51763  22.104  23.781  18.860 -0.0536 -0.1264 -0.2332
 8826W        W51764  24.999  24.792  19.377  0.1488 -0.2226  0.3166
 8827W        W51765  24.940  25.179  18.078 -0.2699  0.1190 -0.1099
 8828W        W51766  23.436  22.565  15.607  0.1873 -0.0167 -0.0683
 8829W        W51767  26.011  21.924  16.190  0.3217 -0.0627 -0.1846
 8830W        W51768  25.240  22.826  16.044  0.0762  0.1650  0.1254
 8831W        W51769  20.656  23.181  16.466  0.2081  0.3665  0.0039
 8832W        W51770  24.348  22.070  16.762 -0.4979  0.0783 -0.1951
 8833W        W51771  24.987  23.872  18.592  0.5877 -0.0702 -0.0106
 8834W        W51772  24.864  25.603  17.767 -0.1425  0.1712 -0.2041
 8835W        W51773  24.105  24.826  20.138 -0.2295  0.0370  0.0462
 8836W        W51774  23.986  23.195  15.932 -0.2909  0.2033  0.2942
 8837W        W51775  25.350  23.811  15.551  0.1781 -0.1893 -0.1075
 8838W        W51776  22.385  26.339  19.097 -0.1446 -0.0475 -0.0619
 8839W        W51777  25.692  25.404  19.630  0.1647 -0.0844  0.1556
 8840W        W51778  23.619  24.838  18.743  0.1604 -0.1849 -0.0129
 8841W        W51779  24.862  21.909  16.721 -0.0292 -0.1966  0.1404
 8842W        W51780  23.692  21.606  19.997  0.3115  0.1819  0.1322
 8843W        W51781  25.179  24.484  16.128 -0.2915 -0.3355 -0.0200
 8844W        W51782  23.642  23.065  16.935  0.0805  0.0975 -0.2190
 8845W        W51783  24.676  24.073  19.461  0.1226 -0.1764 -0.1001
 8846W        W51784  24.320  21.286  16.132 -0.0853 -0.0308 -0.1657
 8847W        W51785  24.914  24.034  15.936  0.3191 -0.1293 -0.2349
 8848W        W51786  22.652  27.370  19.117 -0.1684  0.0518  0.1347
 8849W        W51787  25.309  25.459  17.850  0.1341  0.2555  0.2406
 8850W        W51788  23.151  24.850  22.517  0.2276 -0.0567  0.2061
 8851W        W51789  21.999  24.427  20.197  0.2224 -0.2392  0.1903
 8852W        W51790  25.584  23.353  19.771  0.1372  0.3505  0.0197
 8853W        W51791  26.225  22.750  21.735 -0.0110 -0.2013 -0.0695
 8854W        W51792  22.386  22.538  20.116  0.2530  0.0108 -0.0165
 8855W        W51793  23.544  24.872  21.164  0.3407  0.1510 -0.0509
 8856W        W51794  23.053  22.854  21.473 -0.4148 -0.1535  0.4133
 8857W        W51795  24.572  23.768  22.061  0.2445  0.1526 -0.0562
 8858W        W51796  25.687  25.598  22.054 -0.2799 -0.3888  0.1940
 8859W        W51797  25.520  24.030  19.405  0.0345  0.0442  0.2510
 8860W        W51798  23.982  23.247  22.446 -0.2216  0.1988  0.2311
 8861W        W51799  24.263  24.201  22.077  0.0480  0.1427 -0.3066
 8862W        W51800  25.178  23.081  19.685 -0.4263 -0.4149 -0.0370
 8863W        W51801  22.084  22.030  21.582  0.3216  0.0198  0.1385
 8864W        W51802  24.766  24.985  23.562 -0.0135 -0.1599  0.1349
 8865W        W51803  21.687  24.216  19.745  0.6284 -0.0368 -0.1225
 8866W        W51804  21.509  23.255  24.455  0.2796  0.2693 -0.1331
 8867W        W51805  22.875  23.196  21.863 -0.3401  0.2934 -0.0552
 8868W        W51806  24.964  24.336  20.941  0.2621  0.1424 -0.1153
 8869W        W51807  23.494  23.557  22.844  0.1497  0.2069  0.0941
 8870W        W51808  24.467  21.483  22.718  0.0930  0.1032  0.1194
 8871W        W51809  22.437  23.747  20.600 -0.2487 -0.1910 -0.0124
 8872W        W51810  21.668  25.274  19.592  0.0288 -0.0028 -0.1629
 8873W        W51811  22.868  23.452  20.399  0.4548  0.0996  0.1927
 8874W        W51812  22.342  23.195  21.978 -0.2232 -0.0762 -0.2767
 8875W        W51813  24.201  23.643  21.234  0.1653 -0.1036  0.2708
 8876W        W51814  24.899  23.238  22.637  0.0304  0.0034  0.0649
 8877W        W51815  23.603  24.944  22.292  0.1118  0.0433 -0.1314
 8878W        W51816  24.638  24.229  22.435  0.0265 -0.0065 -0.1538
 8879W        W51817  23.834  24.665  23.832  0.1137  0.2092  0.2002
 8880W        W51818  22.347  23.384  22.750 -0.3017  0.0170  0.4412
 8881W        W51819  21.794  26.093  21.835 -0.2075 -0.2223  0.2085
 8882W        W51820  24.453  23.748  20.409  0.4298  0.0086  0.0585
 8883W        W51821  26.098  24.148  21.031 -0.2949 -0.4031 -0.2454
 8884W        W51822  24.705  24.954  23.070 -0.0349 -0.3625  0.1099
 8885W        W51823  23.297  25.405  24.706  0.0423  0.2815  0.1350
 8886W        W51824  22.886  25.357  20.818  0.0641  0.2062 -0.3417
 8887W        W51825  23.143  25.453  22.427 -0.2139  0.1670  0.1773
 8888W        W51826  24.018  25.759  22.367  0.0312  0.2321  0.0702
 8889W        W51827  24.884  24.194  22.016  0.2405  0.1052 -0.1987
 8890W        W51828  25.275  23.007  21.866 -0.1733  0.1312 -0.1530
 8891W        W51829  23.869  23.489  19.651  0.3049 -0.1555  0.1184
 8892W        W51830  23.657  24.450  22.272  0.5047 -0.0400 -0.2217
 8893W        W51831  22.514  23.661  23.164  0.0235 -0.0008 -0.0447
 8894W        W51832  22.578  23.556  21.575 -0.1366 -0.1368 -0.0988
 8895W        W51833  26.280  21.785  23.260  0.0940 -0.1196  0.0694
 8896W        W51834  24.363  23.611  19.368  0.0461  0.2136 -0.1559
 8897W        W51835  24.223  24.210  20.172 -0.0400 -0.0996 -0.0384
 8898W        W51836  24.695  23.712  17.268  0.0578  0.2049  0.0135
 8899W        W51837  25.365  24.024  20.808  0.1549 -0.2497  0.5763
 8900W        W51838  24.284  21.854  21.819 -0.1842  0.0665  0.2148
 8901W        W51839  22.868  23.321  22.897  0.0024 -0.2411 -0.0828
 8902W        W51840  23.580  23.096  22.711 -0.0043 -0.2373  0.2292
 8903W        W51841  25.351  25.013  23.940 -0.2987 -0.0403  0.0584
 8904W        W51842  23.958  23.195  21.968  0.0590 -0.1632  0.1646
 8905W        W51843  24.429  24.122  22.885  0.0612 -0.5179 -0.0662
 8906W        W51844  25.478  25.116  22.897 -0.1114 -0.1867 -0.0671
 8907W        W51845  21.986  22.988  20.947 -0.0002 -0.0436  0.1132
 8908W        W51846  25.118  25.861  20.214  0.0586  0.2481 -0.2875
 8909W        W51847  25.344  25.568  21.285  0.1238  0.2837  0.3305
 8910W        W51848  24.021  24.614  19.185 -0.2261 -0.0046  0.1057
 8911W        W51849  23.880  23.257  20.150  0.1198  0.1525 -0.1131
 8912W        W51850  22.705  24.483  23.350 -0.1131  0.1624 -0.0354
 8913W        W51851  23.280  24.384  23.317  0.0913  0.0698  0.1287
 8914W        W51852  23.410  21.699  21.149  0.0264 -0.1532  0.0750
 8915W        W51853  27.209  25.152  23.345 -0.0344  0.1394 -0.1139
 8916W        W51854  21.538  23.745  22.973 -0.0036 -0.3929  0.1270
 8917W        W51855  23.937  23.272  21.435 -0.0255  0.0787 -0.1354
 8918W        W51856  22.701  23.657  21.053 -0.1329  0.0485  0.4695
 8919W        W51857  25.978  23.962  21.954 -0.2828 -0.1665 -0.0569
 8920W        W51858  24.182  24.464  19.649 -0.1592  0.0054  0.1801
 8921W        W51859  23.954  22.764  22.677  0.0752  0.0063  0.2544
 8922W        W51860  24.678  23.165  23.808 -0.4245 -0.0946  0.1852
 8923W        W51861  24.194  24.216  18.764 -0.2100 -0.0798 -0.0226
 8924W        W51862  24.326  23.072  19.048  0.2431 -0.4149 -0.1831
 8925W        W51863  25.892  25.088  23.253  0.0906 -0.1627  0.1823
 8926W        W51864  26.077  24.294  20.457 -0.0519  0.1799 -0.0982
 8927W        W51865  22.278  26.307  23.329  0.0549 -0.0983 -0.1912
 8928W        W51866  24.782  23.671  23.700 -0.1820 -0.3382 -0.2839
 8929W        W51867  24.000  24.820  25.244  0.3737 -0.3030 -0.3333
 8930W        W51868  23.631  24.112  20.941 -0.0464 -0.0732 -0.3015
 8931W        W51869  22.723  24.942  21.624 -0.4433  0.5111 -0.1016
 8932W        W51870  23.556  23.867  20.496 -0.1743  0.1410  0.2464
 8933W        W51871  21.798  23.083  22.190 -0.2804  0.4846 -0.0033
 8934W        W51872  22.893  25.138  22.041  0.1417 -0.0074 -0.1278
 8935W        W51873  24.430  22.348  20.937  0.0906 -0.0370  0.0446
 8936W        W51874  22.324  22.967  22.402  0.0700  0.2976 -0.1075
 8937W        W51875  24.880  22.991  21.034 -0.2207  0.0921  0.0591
 8938W        W51876  22.456  24.236  20.472 -0.1587 -0.0920  0.0442
 8939W        W51877  25.487  24.822  19.688 -0.0087 -0.2637 -0.1231
 8940W        W51878  24.776  23.356  20.669 -0.2356 -0.0854  0.0859
 8941W        W51879  26.014  24.776  19.596 -0.0618 -0.0791 -0.0870
 8942W        W51880  21.936  23.215  23.651 -0.0581 -0.3308 -0.3551
 8943W        W51881  22.505  23.709  22.090  0.3365  0.1909 -0.2429
 8944W        W51882  22.420  23.301  23.907  0.2207  0.1804  0.3889
 8945W        W51883  22.630  22.730  21.980  0.1322 -0.0384  0.2892
 8946W        W51884  24.475  22.493  24.295  0.0810 -0.2849  0.0054
 8947W        W51885  22.681  22.941  19.569 -0.1219  0.1784  0.4449
 8948W        W51886  25.761  22.860  21.680  0.1342 -0.2366  0.0177
 8949W        W51887  23.917  22.686  20.121 -0.0972  0.3084  0.2749
 8950W        W51888  22.882  22.251  20.314  0.0481  0.2713 -0.3248
 8951W        W51889  25.656  21.009  23.204  0.0982  0.2919 -0.2342
 8952W        W51890  24.580  24.563  22.007 -0.1651 -0.0621  0.0755
 8953W        W51891  24.951  26.681  22.672 -0.1113  0.0506 -0.1811
 8954W        W51892  25.148  24.786  21.855  0.0635 -0.2671  0.0564
 8955W        W51893  23.206  23.822  23.708 -0.2065 -0.0581  0.0735
 8956W        W51894  22.355  21.665  19.812 -0.0011 -0.2308  0.0247
 8957W        W51895  23.130  25.668  22.867  0.0237  0.0927  0.0863
 8958W        W51896  23.831  24.249  21.850 -0.0176  0.0441  0.0076
 8959W        W51897  23.592  22.401  19.339 -0.1542 -0.2707  0.0976
 8960W        W51898  25.578  24.858  21.534  0.1556 -0.0577 -0.0481
 8961W        W51899  24.745  23.392  21.228 -0.2707  0.1526  0.2345
 8962W        W51900  23.025  24.340  23.727 -0.3302  0.2092  0.0549
 8963W        W51901  24.347  21.391  23.752  0.1020  0.0016  0.0180
 8964W        W51902  25.607  24.606  24.083  0.2353 -0.0743  0.1216
 8965W        W51903  25.774  23.150  21.084 -0.0981 -0.0837 -0.0616
 8966W        W51904  22.369  22.412  18.378 -0.1766  0.2027  0.0034
 8967W        W51905  24.213  24.953  22.431  0.1344 -0.2718  0.2945
 8968W        W51906  22.277  24.785  21.734  0.0847 -0.1178  0.0411
 8969W        W51907  22.625  22.675  20.666 -0.4250  0.2728  0.3522
 8970W        W51908  23.416  24.056  21.397  0.0067 -0.1489  0.0913
 8971W        W51909  25.451  21.988  21.252 -0.3159 -0.0069  0.1590
 8972W        W51910  22.281  24.647  24.113  0.1016  0.3244 -0.0461
 8973W        W51911  25.342  23.628  24.280  0.0462  0.0476  0.0855
 8974W        W51912  22.896  22.005  19.798  0.2653  0.0230 -0.2016
 8975W        W51913  21.743  24.740  24.222 -0.0215  0.0185  0.1275
 8976W        W51914  23.353  23.079  21.759 -0.2438 -0.1238 -0.1278
 8977W        W51915  25.106  22.648  19.965 -0.0677  0.0029 -0.1052
 8978W        W51916  25.184  24.453  23.824 -0.0944 -0.0304 -0.2051
 8979W        W51917  25.402  24.398  21.749  0.3296 -0.0471 -0.3180
 8980W        W51918  24.889  23.556  20.263  0.0675 -0.2170  0.0492
 8981W        W51919  24.229  22.172  20.389 -0.0578 -0.0228 -0.2442
 8982W        W51920  21.898  25.210  24.215  0.3280 -0.1263 -0.3039
 8983W        W51921  23.391  25.093  21.681  0.1716  0.0028 -0.2061
 8984W        W51922  23.411  25.130  23.513 -0.0936 -0.2725 -0.3732
 8985W        W51923  25.892  23.147  20.069 -0.4702 -0.0808 -0.1310
 8986W        W51924  25.126  23.986  21.281 -0.2182  0.0003  0.0223
 8987W        W51925  21.610  23.837  21.569 -0.0553  0.2144  0.1734
 8988W        W51926  24.405  24.600  24.344 -0.2446 -0.1726  0.0752
 8989W        W51927  24.601  25.142  20.452  0.0031 -0.2619 -0.3979
 8990W        W51928  24.364  23.101  22.709 -0.2292 -0.2227 -0.4122
 8991W        W51929  22.568  24.663  19.705  0.0850 -0.2579  0.1208
 8992W        W51930  23.166  23.342  21.344 -0.0974 -0.2164 -0.2841
 8993W        W51931  23.293  25.070  20.465 -0.0337 -0.0835  0.0754
 8994W        W51932  25.099  21.721  22.241 -0.0579 -0.4317 -0.0062
 8995W        W51933  23.979  22.708  23.386  0.0107  0.3116  0.0988
 8996W        W51934  24.119  23.476  23.404 -0.0628  0.1221 -0.1238
 8997W        W51935  26.082  22.560  22.888  0.4500  0.2228 -0.3687
 8998W        W51936  25.296  23.083  20.823  0.1786  0.0766 -0.1291
 8999W        W51937  25.180  23.808  21.855  0.1407 -0.1005 -0.0024
 9000W        W51938  23.280  23.877  18.853 -0.3066 -0.0830  0.1784
 9001W        W51939  22.196  23.245  23.201 -0.1781 -0.3603 -0.2875
 9002W        W51940  23.331  24.741  23.844 -0.0165  0.2690  0.3040
 9003W        W51941  22.105  25.901  23.711 -0.3704 -0.0585 -0.2456
 9004W        W51942  24.718  24.924  24.558 -0.1046 -0.3698  0.0709
 9005W        W51943  23.371  23.073  20.846 -0.1428  0.1994 -0.1107
 9006W        W51944  25.179  23.155  23.891 -0.3251 -0.0790 -0.0781
 9007W        W51945  24.661  22.535  19.616  0.1586  0.0690 -0.0273
 9008W        W51946  23.756  24.175  19.527 -0.0607  0.0580 -0.0739
 9009W        W51947  23.226  24.025  19.378  0.2692 -0.0314  0.0961
 9010W        W51948  23.216  23.145  22.255  0.1514  0.2835 -0.2264
 9011W        W51949  24.534  24.495  23.240 -0.2291 -0.0699  0.3591
 9012W        W51950  23.872  24.919  20.691  0.2532 -0.3246  0.0146
 9013W        W51951  24.105  23.049  25.061  0.0173 -0.1809  0.0515
 9014W        W51952  23.405  22.963  20.152  0.1057 -0.1996 -0.0807
 9015W        W51953  27.257  21.530  21.251 -0.2337  0.2153  0.1818
 9016W        W51954  21.627  25.976  22.519 -0.4039  0.2897  0.1345
 9017W        W51955  24.330  22.199  19.284  0.3410  0.1012 -0.1353
 9018W        W51956  20.807  24.294  20.573 -0.0323 -0.0310  0.0012
 9019W        W51957  24.743  22.886  22.952  0.3301 -0.0108  0.1659
 9020W        W51958  25.655  24.475  20.727 -0.0162 -0.1728 -0.0525
 9021W        W51959  21.862  23.203  22.742 -0.1411 -0.1874  0.1773
 9022W        W51960  24.755  21.544  24.417 -0.2851  0.1708 -0.3570
 9023W        W51961  21.832  24.830  22.749 -0.1709  0.1796  0.1991
 9024W        W51962  23.761  22.001  23.240 -0.2561  0.1414 -0.6323
 9025W        W51963  24.502  22.694  20.195 -0.1744 -0.2734  0.1383
 9026W        W51964  23.951  23.824  24.337 -0.1453  0.2128  0.2114
 9027W        W51965  25.295  23.714  22.644 -0.0122  0.2473  0.4412
 9028W        W51966  21.915  24.616  19.417  0.1442 -0.0325 -0.2460
 9029W        W51967  26.841  22.110  23.080  0.0123  0.1084  0.3776
 9030W        W51968  23.573  22.548  21.754  0.0238  0.1086  0.0061
 9031W        W51969  22.445  25.484  21.489  0.0668  0.1458 -0.2261
 9032W        W51970  24.974  24.879  20.779 -0.1683 -0.0706 -0.2608
 9033W        W51971  23.787  23.434  20.663 -0.2673  0.1217 -0.1335
 9034W        W51972  23.233  24.351  20.221  0.3016 -0.2360 -0.1404
 9035W        W51973  23.299  22.638  22.536  0.1370 -0.1843  0.2573
 9036W        W51974  24.768  26.195  23.256 -0.0271 -0.3686 -0.1685
 9037W        W51975  22.839  23.055  20.953  0.3085 -0.3225 -0.0281
 9038W        W51976  23.046  23.263  19.932  0.0172 -0.1924 -0.0210
 9039W        W51977  23.554  23.616  21.148  0.1475 -0.0431 -0.1350
 9040W        W51978  25.330  25.215  22.296 -0.1052 -0.1684  0.0356
 9041W        W51979  23.445  24.026  22.361 -0.2004  0.0520  0.1404
 9042W        W51980  22.386  24.931  23.456 -0.1147  0.2709 -0.3447
 9043W        W51981  23.572  23.498  22.232 -0.1978  0.0712  0.2298
 9044W        W51982  26.484  25.496  21.151  0.3064  0.0670  0.0113
 9045W        W51983  26.158  22.936  23.210 -0.1830  0.1198  0.0017
 9046W        W51984  23.709  22.919  19.712  0.0373 -0.1654 -0.0624
 9047W        W51985  22.277  24.477  20.886  0.0138  0.2550  0.0052
 9048W        W51986  25.392  23.660  20.511  0.1814  0.0768  0.1549
 9049W        W51987  22.255  21.948  23.060  0.0171 -0.2087  0.1482
 9050W        W51988  22.803  25.656  21.198 -0.0225 -0.0641  0.2003
 9051W        W51989  23.546  24.798  20.209 -0.0470  0.1701  0.1456
 9052W        W51990  21.935  24.682  21.230  0.0001 -0.2335  0.2433
 9053W        W51991  26.361  23.305  19.903 -0.1883  0.0560 -0.0708
 9054W        W51992  25.098  24.241  20.094  0.2396  0.1410  0.1034
 9055W        W51993  23.904  24.030  21.376  0.0755  0.0873  0.0533
 9056W        W51994  24.539  23.639  22.949 -0.4205 -0.1423  0.1346
 9057W        W51995  24.066  23.731  18.995 -0.0521 -0.3131 -0.0164
 9058W        W51996  24.358  20.551  25.764 -0.3342 -0.0834  0.0340
 9059W        W51997  22.148  22.755  20.511  0.0710  0.1959 -0.3376
 9060W        W51998  25.372  24.972  20.323  0.0410  0.2024  0.1615
 9061W        W51999  22.114  23.502  22.351  0.1750  0.4605 -0.1906
 9062W        W52000  24.378  25.463  23.874  0.1400 -0.2271 -0.2230
 9063W        W52001  22.688  23.157  23.403 -0.2360 -0.0531 -0.0400
 9064W        W52002  23.726  22.608  20.869 -0.3041 -0.0385 -0.1180
 9065W        W52003  22.862  21.473  19.790  0.1147 -0.0752 -0.0288
 9066W        W52004  23.491  24.540  21.539 -0.0157 -0.0279 -0.0133
 9067W        W52005  24.385  23.069  21.290  0.0501  0.2168 -0.2112
 9068W        W52006  23.180  24.366  21.085  0.3373 -0.0414 -0.0536
 9069W        W52007  24.921  22.714  23.613  0.0302  0.1359 -0.1861
 9070W        W52008  22.595  23.744  23.709 -0.3780  0.3081  0.0832
 9071W        W52009  24.791  23.825  20.887 -0.0118  0.1035 -0.2351
 9072W        W52010  25.262  23.771  19.843  0.1426  0.2247 -0.0819
 9073W        W52011  23.241  24.684  22.032 -0.2999  0.0228 -0.1214
 9074W        W52012  22.956  22.630  22.968  0.1202 -0.1826 -0.1879
 9075W        W52013  25.646  23.975  22.898  0.1153 -0.1670  0.0640
 9076W        W52014  24.126  22.652  21.146  0.3104  0.2769 -0.0818
 9077W        W52015  23.458  23.900  23.311  0.0822  0.5086 -0.2193
 9078W        W52016  25.180  22.833  22.701  0.1763 -0.1774  0.1570
 9079W        W52017  24.233  22.720  24.646  0.0286 -0.1551 -0.1410
 9080W        W52018  22.143  22.479  23.116  0.2263  0.4086 -0.0373
 9081W        W52019  24.971  25.625  22.947  0.0005 -0.2646 -0.0219
 9082W        W52020  24.972  21.647  19.522 -0.1087  0.2515  0.2423
 9083W        W52021  26.366  22.373  22.489 -0.2086 -0.0156 -0.0296
 9084W        W52022  25.568  23.811  22.202 -0.1991  0.1672 -0.1756
 9085W        W52023  23.941  23.750  20.236  0.2822 -0.0397  0.0106
 9086W        W52024  23.325  24.233  21.879 -0.0582 -0.1085 -0.2606
 9087W        W52025  24.362  24.489  24.886 -0.1015 -0.3211  0.3425
 9088W        W52026  23.322  24.604  19.739 -0.2481 -0.0936 -0.0131
 9089W        W52027  24.685  21.044  23.924  0.1909 -0.1465 -0.2466
 9090W        W52028  25.604  25.991  20.400 -0.1905  0.2267 -0.0938
 9091W        W52029  25.592  25.851  21.632  0.2353  0.2119  0.2485
 9092W        W52030  25.787  23.322  20.588  0.2750 -0.1193  0.1851
 9093W        W52031  21.164  24.010  21.376  0.2252  0.1866  0.3839
 9094W        W52032  22.430  25.150  23.914 -0.0914  0.1931 -0.1919
 9095W        W52033  23.421  23.347  19.525  0.1618 -0.4966 -0.2255
 9096W        W52034  24.363  23.213  20.264  0.0542  0.3648  0.1189
 9097W        W52035  24.593  24.314  21.600 -0.1767  0.2017 -0.0346
 9098W        W52036  23.933  24.378  24.597 -0.4654  0.1543 -0.2477
 9099W        W52037  24.747  21.969  20.484  0.2366 -0.1568 -0.3576
 9100W        W52038  24.398  22.516  22.891  0.1953  0.3248 -0.2546
 9101W        W52039  23.057  23.973  20.527  0.1722 -0.0223  0.0742
 9102W        W52040  24.525  22.905  20.725  0.0791 -0.1603  0.0433
 9103W        W52041  21.509  24.666  23.175 -0.2613 -0.0565 -0.2827
 9104W        W52042  20.996  24.168  23.609 -0.0505  0.1362 -0.3089
 9105W        W52043  24.070  23.864  20.800  0.0024 -0.1688  0.2968
 9106W        W52044  23.069  23.679  21.717 -0.1693 -0.0221 -0.1230
 9107W        W52045  25.329  22.993  21.350 -0.1021 -0.2576  0.1167
 9108W        W52046  23.405  23.399  20.336  0.2559  0.1967  0.0344
 9109W        W52047  27.080  22.541  22.909  0.0740 -0.1211  0.1799
 9110W        W52048  25.078  23.477  22.204  0.2871  0.1701 -0.2317
 9111W        W52049  24.260  23.932  21.698 -0.0307 -0.0985  0.0875
 9112W        W52050  25.101  25.193  23.186 -0.3553  0.0299 -0.2182
 9113W        W52051  25.881  24.377  21.576  0.2494 -0.1502 -0.1084
 9114W        W52052  23.784  24.427  19.990  0.0992  0.2780 -0.0868
 9115W        W52053  22.508  24.098  22.862  0.5179  0.0622  0.1240
 9116W        W52054  24.729  24.303  25.680  0.0808  0.1127 -0.0525
 9117W        W52055  25.843  23.872  20.665  0.2126  0.0807 -0.0896
 9118W        W52056  23.298  22.586  21.072 -0.0857  0.0564  0.0194
 9119W        W52057  24.786  25.289  19.534  0.1058  0.0105  0.0848
 9120W        W52058  20.894  25.518  22.834 -0.3158 -0.0920 -0.0384
 9121W        W52059  22.000  23.294  24.242 -0.1381  0.1472  0.0912
 9122W        W52060  24.401  26.241  22.104  0.3799 -0.1084 -0.1101
 9123W        W52061  25.346  25.162  19.383 -0.0323 -0.0796 -0.1360
 9124W        W52062  24.587  24.520  19.179  0.2674 -0.2882  0.0326
 9125W        W52063  24.265  24.737  23.564  0.0872 -0.3066 -0.1521
 9126W        W52064  24.144  22.619  20.603  0.1582  0.1453  0.0132
 9127W        W52065  22.678  24.141  20.980  0.0693  0.0849 -0.3094
 9128W        W52066  22.802  26.431  20.794 -0.2214 -0.0814  0.1964
 9129W        W52067  24.685  26.505  20.766 -0.0883  0.2041  0.0715
 9130W        W52068  22.632  26.846  22.102 -0.1127  0.1452  0.0891
 9131W        W52069  24.181  25.735  24.488  0.0236  0.3925  0.1597
 9132W        W52070  26.057  22.178  19.379 -0.1637 -0.0180  0.0973
 9133W        W52071  25.791  24.533  23.072  0.1224 -0.1343  0.0889
 9134W        W52072  25.647  22.446  19.513 -0.1275 -0.0586 -0.0828
 9135W        W52073  25.428  24.673  22.720  0.2826 -0.1277  0.1214
 9136W        W52074  24.164  24.386  22.557  0.0719  0.2221  0.0510
 9137W        W52075  25.696  23.718  20.115  0.0457  0.2949 -0.0239
 9138W        W52076  25.103  23.787  23.103 -0.3062  0.0136 -0.1665
 9139W        W52077  25.496  19.147  23.773 -0.0232  0.5463  0.3103
 9140W        W52078  22.162  25.151  22.420 -0.1547 -0.0343 -0.2510
 9141W        W52079  24.212  24.098  19.262  0.4049  0.0122  0.0249
 9142W        W52080  22.119  23.028  21.463  0.1558  0.0026  0.0677
 9143W        W52081  23.729  22.950  20.524  0.0638  0.2462  0.3714
 9144W        W52082  24.482  23.345  22.325 -0.1600  0.2738 -0.1825
 9145W        W52083  25.996  25.350  19.205  0.0390  0.0485 -0.1811
 9146W        W52084  24.373  23.421  21.648  0.1704  0.1246  0.2770
 9147W        W52085  23.012  26.708  21.144  0.1381 -0.2731  0.3201
 9148W        W52086  22.627  26.125  23.080 -0.2460  0.1409 -0.1598
 9149W        W52087  24.099  25.899  21.928  0.1626  0.0834  0.2126
 9150W        W52088  21.377  23.091  20.962 -0.0544  0.1426  0.0146
 9151W        W52089  26.242  23.105  20.419 -0.1386  0.0097  0.0377
 9152W        W52090  23.931  25.182  21.607  0.0013  0.0164  0.1070
 9153W        W52091  25.632  22.683  22.575 -0.0261  0.0625 -0.0732
 9154W        W52092  23.709  22.228  20.289  0.5606  0.0734  0.0283
 9155W        W52093  26.062  21.512  20.447 -0.2419  0.0824 -0.0382
 9156W        W52094  23.917  23.949  23.244 -0.1822  0.0454 -0.2831
 9157W        W52095  21.850  22.845  23.304 -0.1404  0.0773  0.0071
 9158W        W52096  23.887  22.787  18.941 -0.1027 -0.1213 -0.1938
 9159W        W52097  25.206  23.066  23.198 -0.1038  0.0240  0.1572
 9160W        W52098  23.929  22.121  18.976 -0.0842  0.2808 -0.2452
 9161W        W52099  23.696  24.665  23.313  0.3576  0.0332 -0.2007
 9162W        W52100  22.421  22.816  21.095 -0.1576  0.3715 -0.0488
 9163W        W52101  23.486  21.925  19.135 -0.3907  0.1155  0.2877
 9164W        W52102  23.187  23.535  20.796  0.1838  0.1897  0.1487
 9165W        W52103  23.965  25.302  22.641 -0.1012  0.2052  0.2759
 9166W        W52104  23.556  23.606  24.028  0.0435 -0.1657 -0.3218
 9167W        W52105  22.543  23.033  20.038  0.1601 -0.0830  0.2244
 9168W        W52106  26.261  24.702  20.118  0.0071 -0.0594 -0.2936
 9169W        W52107  24.796  23.748  22.528  0.1259 -0.1707 -0.4447
 9170W        W52108  24.015  26.817  19.922 -0.2183  0.2850  0.1216
 9171W        W52109  24.883  25.671  21.413  0.1139 -0.1516 -0.2341
 9172W        W52110  24.378  24.200  20.723 -0.0138  0.0087  0.0874
 9173W        W52111  23.112  22.066  21.140 -0.0655 -0.0636  0.3442
 9174W        W52112  24.279  23.861  22.436  0.1107  0.4346  0.1666
 9175W        W52113  25.879  25.027  24.114  0.0205  0.1962  0.0422
 9176W        W52114  24.296  22.405  21.924 -0.0190 -0.0187  0.2387
 9177W        W52115  22.900  23.495  24.039 -0.0604  0.0367 -0.3904
 9178W        W52116  22.461  26.433  22.355 -0.1719  0.2261 -0.0916
 9179W        W52117  25.908  22.907  22.195 -0.1135  0.2434 -0.2266
 9180W        W52118  25.808  22.128  23.114 -0.0362 -0.2373  0.1540
 9181W        W52119  24.156  23.928  19.750 -0.1676 -0.1096 -0.1654
 9182W        W52120  25.191  21.959  20.784 -0.2320  0.3390  0.3165
 9183W        W52121  24.224  24.815  22.975  0.1589  0.0855  0.0745
 9184W        W52122  23.227  23.465  25.509 -0.0405  0.0654  0.1026
 9185W        W52123  22.973  25.225  21.260 -0.3179 -0.1034 -0.0944
 9186W        W52124  23.606  24.332  22.946 -0.1167  0.1198 -0.0240
 9187W        W52125  23.564  22.951  21.322  0.1717 -0.1840 -0.0992
 9188W        W52126  23.520  25.460  22.140  0.0411  0.1906  0.1689
 9189W        W52127  24.926  24.279  22.908 -0.1724 -0.0796  0.2643
 9190W        W52128  25.160  25.051  21.375 -0.1410 -0.1634  0.1280
 9191W        W52129  25.052  24.667  22.408  0.0370  0.0321 -0.0541
 9192W        W52130  22.105  21.853  21.144  0.4242  0.1665  0.0183
 9193W        W52131  23.956  23.097  20.982  0.2010  0.0361  0.2027
 9194W        W52132  24.988  22.883  20.454  0.1023  0.4285  0.0101
 9195W        W52133  24.147  24.279  23.570  0.3493  0.1856 -0.0145
 9196W        W52134  22.461  23.211  20.557  0.2344 -0.2537 -0.0270
 9197W        W52135  23.907  25.740  19.793  0.0219 -0.2358  0.0608
 9198W        W52136  22.982  24.214  22.606  0.0825  0.0322 -0.0421
 9199W        W52137  24.267  19.959  24.384  0.4140 -0.2433  0.1842
 9200W        W52138  21.849  24.162  23.060  0.2248  0.0765 -0.1609
 9201W        W52139  22.036  23.506  20.762  0.0863  0.0318 -0.0755
 9202W        W52140  23.372  22.533  20.426  0.3028  0.0231 -0.1192
 9203W        W52141  25.330  25.223  20.818  0.1276  0.0714  0.3896
 9204W        W52142  23.009  21.683  22.938  0.3972 -0.2170 -0.0296
 9205W        W52143  24.297  22.285  19.940 -0.0598 -0.2276 -0.0042
 9206W        W52144  23.976  24.453  21.084 -0.0747 -0.0203 -0.1046
 9207W        W52145  23.917  24.436  20.544 -0.0120  0.0643 -0.0753
 9208W        W52146  22.280  21.152  21.697  0.3926  0.1899 -0.0662
 9209W        W52147  24.363  24.121  24.203  0.1857  0.0780  0.1043
 9210W        W52148  23.720  25.857  20.807 -0.0680  0.0157  0.3423
 9211W        W52149  24.732  23.140  24.724  0.3480  0.1309  0.2081
 9212W        W52150  23.533  23.087  24.146  0.0785  0.0294  0.0502
 9213W        W52151  22.474  23.906  19.465  0.1477  0.0634 -0.0765
 9214W        W52152  22.887  24.039  22.025 -0.0416  0.2242  0.0155
 9215W        W52153  24.511  24.594  21.141  0.1876  0.1776  0.1396
 9216W        W52154  23.804  25.413  21.187  0.2503  0.0265  0.2515
 9217W        W52155  23.924  24.275  24.110  0.1197  0.1818 -0.1073
 9218W        W52156  23.750  25.100  23.172 -0.1640  0.0776  0.0404
 9219W        W52157  20.471  22.539  22.737  0.0390  0.0291 -0.1049
 9220W        W52158  25.526  24.149  20.353 -0.2010 -0.0627 -0.2187
 9221W        W52159  24.865  24.390  24.308  0.0893  0.3104 -0.1564
 9222W        W52160  25.022  24.473  21.405 -0.0357 -0.2459 -0.3260
 9223W        W52161  24.843  22.505  21.949 -0.0917  0.1609  0.1936
 9224W        W52162  23.743  24.828  19.565  0.0257  0.2494  0.2821
 9225W        W52163  22.427  22.827  22.897  0.1025 -0.2580  0.4557
 9226W        W52164  23.075  23.512  23.354 -0.0485  0.1814  0.2640
 9227W        W52165  25.765  25.322  22.449  0.0751 -0.1579 -0.4427
 9228W        W52166  21.387  24.450  21.593  0.0653  0.1950 -0.0664
 9229W        W52167  25.320  23.534  21.074  0.2361 -0.0148 -0.3164
 9230W        W52168  24.661  24.940  21.511 -0.0779 -0.2970 -0.1784
 9231W        W52169  22.729  23.312  22.336  0.0022  0.0516 -0.0982
 9232W        W52170  25.148  23.028  19.192  0.3119  0.1994 -0.1428
 9233W        W52171  25.288  23.953  23.833 -0.2138 -0.0798  0.2203
 9234W        W52172  25.956  24.873  20.560 -0.1715 -0.0707  0.2505
 9235W        W52173  25.759  24.236  23.665  0.1717  0.0017 -0.1927
 9236W        W52174  24.669  23.919  19.941 -0.2083  0.2962  0.0851
 9237W        W52175  26.137  23.630  20.267 -0.0179  0.0179 -0.0724
 9238W        W52176  25.421  25.696  23.771  0.0024 -0.0854 -0.3625
 9239W        W52177  25.870  26.582  24.935  0.0355  0.0274  0.0183
 9240W        W52178  23.455  25.169  22.744 -0.1010  0.1088 -0.0359
 9241W        W52179  25.902  22.561  23.362  0.1179  0.0866  0.0459
 9242W        W52180  21.674  22.066  22.930 -0.2362 -0.0316  0.0411
 9243W        W52181  23.121  22.212  19.400 -0.1077 -0.0955 -0.1294
 9244W        W52182  24.794  23.504  19.707 -0.2534 -0.1287  0.2519
 9245W        W52183  25.619  22.814  23.064 -0.2397  0.0946 -0.0394
 9246W        W52184  23.001  22.942  20.442 -0.5353  0.0432 -0.4521
 9247W        W52185  24.715  22.437  20.528 -0.1915  0.2352  0.0446
 9248W        W52186  23.616  25.565  23.284  0.1509  0.0917 -0.1120
 9249W        W52187  24.854  23.326  21.763  0.1581 -0.1994 -0.1333
 9250W        W52188  22.665  25.715  29.129 -0.3494  0.1693  0.1311
 9251W        W52189  23.686  22.678  25.090 -0.2333 -0.1417  0.3289
 9252W        W52190  23.604  23.017  23.598 -0.2647 -0.1802  0.1965
 9253W        W52191  25.391  24.190  23.382  0.1408  0.1329  0.2773
 9254W        W52192  22.756  23.679  25.577  0.0357  0.2266  0.2478
 9255W        W52193  23.925  24.814  24.292  0.3038  0.0435 -0.1853
 9256W        W52194  23.590  22.909  27.298  0.2118  0.1814 -0.1497
 9257W        W52195  24.231  24.171  26.421  0.2192 -0.1461 -0.0778
 9258W        W52196  25.257  24.981  26.707 -0.0031 -0.1181  0.1732
 9259W        W52197  26.533  23.474  24.299  0.1296  0.1145 -0.1276
 9260W        W52198  22.636  22.637  26.259 -0.2575  0.0634  0.0817
 9261W        W52199  23.527  24.878  26.972 -0.2669  0.0164  0.1565
 9262W        W52200  24.015  22.265  24.433  0.1450 -0.1947 -0.1298
 9263W        W52201  21.089  19.418  25.545  0.2959  0.0367 -0.0677
 9264W        W52202  24.597  24.416  23.807 -0.0910  0.1735  0.0707
 9265W        W52203  23.593  23.492  23.542 -0.2778  0.1369  0.0500
 9266W        W52204  23.845  23.255  27.031  0.0930  0.1071 -0.1523
 9267W        W52205  24.909  22.957  25.889  0.1570  0.2632 -0.1342
 9268W        W52206  24.003  25.410  25.312 -0.0092  0.1542  0.4438
 9269W        W52207  23.224  24.020  26.910  0.6505  0.2191 -0.0765
 9270W        W52208  24.335  21.743  27.403  0.4192 -0.3076  0.1490
 9271W        W52209  23.149  25.659  25.914 -0.0101 -0.1261  0.1458
 9272W        W52210  23.434  22.662  24.490  0.2595 -0.1576  0.2928
 9273W        W52211  21.466  22.012  23.901  0.0793 -0.1031  0.3043
 9274W        W52212  22.282  23.579  26.321  0.1693  0.4488  0.1987
 9275W        W52213  25.376  23.311  25.661 -0.1000  0.1455 -0.2295
 9276W        W52214  24.605  23.677  26.225 -0.1517  0.2779 -0.4034
 9277W        W52215  23.497  24.747  25.922  0.5812  0.2258 -0.1055
 9278W        W52216  24.673  25.039  26.603 -0.0995  0.0978  0.0586
 9279W        W52217  26.341  21.962  27.651 -0.1428 -0.0143  0.4214
 9280W        W52218  22.059  23.574  25.438  0.3054 -0.0180 -0.1080
 9281W        W52219  22.601  24.822  24.817 -0.1343  0.1486 -0.0232
 9282W        W52220  23.035  24.502  24.208 -0.0085  0.5301 -0.1556
 9283W        W52221  26.357  25.022  24.179 -0.0290  0.2602  0.0697
 9284W        W52222  24.458  25.093  27.090 -0.0211 -0.0851 -0.3376
 9285W        W52223  23.525  25.596  29.628 -0.3410  0.1091  0.2085
 9286W        W52224  22.870  23.688  24.582 -0.2132  0.2067  0.1166
 9287W        W52225  22.132  25.056  27.446  0.0559  0.3569 -0.0957
 9288W        W52226  22.645  25.015  27.325  0.0722  0.0875  0.0384
 9289W        W52227  24.096  23.235  26.163 -0.0027 -0.0239  0.0643
 9290W        W52228  24.438  23.925  25.114  0.0804 -0.1975  0.0317
 9291W        W52229  24.938  23.893  24.123  0.1184  0.1215  0.1141
 9292W        W52230  23.577  24.674  26.441 -0.1739 -0.0262 -0.0262
 9293W        W52231  23.049  24.957  28.337  0.1905 -0.1138  0.0852
 9294W        W52232  20.946  24.097  26.064 -0.1184 -0.2618 -0.1411
 9295W        W52233  24.552  22.029  27.047  0.2835 -0.0172  0.2072
 9296W        W52234  21.984  24.251  24.251  0.0700 -0.2426  0.0054
 9297W        W52235  25.420  22.389  23.705  0.0763  0.0318 -0.1028
 9298W        W52236  24.395  23.917  23.366 -0.1078  0.0720  0.0945
 9299W        W52237  23.982  23.828  23.801 -0.0062  0.0063  0.1186
 9300W        W52238  23.817  21.809  25.344 -0.3315  0.2758  0.0205
 9301W        W52239  22.429  25.516  26.436  0.0425  0.4290 -0.0921
 9302W        W52240  22.459  19.610  25.543  0.2672  0.2169  0.1457
 9303W        W52241  24.750  24.599  28.382 -0.0344  0.0654  0.2524
 9304W        W52242  24.498  22.979  24.218  0.1058 -0.0817  0.1392
 9305W        W52243  24.459  23.133  26.606 -0.2499 -0.1005 -0.0895
 9306W        W52244  23.113  24.855  26.249 -0.1471  0.2674  0.0874
 9307W        W52245  23.106  20.340  25.493 -0.2076 -0.0369  0.1104
 9308W        W52246  24.828  25.907  24.929  0.2436  0.0280 -0.0822
 9309W        W52247  24.695  25.447  26.324  0.2053  0.3268  0.1846
 9310W        W52248  25.102  26.290  24.465  0.0335  0.0506 -0.1874
 9311W        W52249  23.210  21.492  26.377 -0.1908 -0.0763 -0.1942
 9312W        W52250  23.616  22.957  26.645 -0.2220 -0.0079 -0.1918
 9313W        W52251  20.735  23.612  28.994  0.1895 -0.2559  0.3202
 9314W        W52252  21.978  22.038  22.577  0.2005 -0.1150 -0.1883
 9315W        W52253  24.757  23.396  28.507  0.1099 -0.1136 -0.0937
 9316W        W52254  22.641  25.771  26.053 -0.0146  0.4711 -0.0808
 9317W        W52255  25.744  21.591  24.132 -0.0961 -0.1101 -0.1983
 9318W        W52256  22.673  24.380  26.531  0.0546 -0.2216 -0.1714
 9319W        W52257  25.113  24.660  26.373  0.0739  0.2015 -0.0374
 9320W        W52258  24.874  24.144  23.481 -0.4271  0.0606 -0.0574
 9321W        W52259  23.895  22.613  27.460  0.2760 -0.1889 -0.0403
 9322W        W52260  24.791  23.051  26.969  0.1419 -0.0616  0.1060
 9323W        W52261  23.653  24.778  24.789 -0.0298 -0.0560 -0.2268
 9324W        W52262  24.394  22.823  26.059  0.0519 -0.2089 -0.0101
 9325W        W52263  25.088  24.991  28.202 -0.2637 -0.0600 -0.1376
 9326W        W52264  25.532  23.477  23.157  0.0137  0.1270 -0.1059
 9327W        W52265  22.561  26.320  26.105 -0.0760 -0.0562  0.0449
 9328W        W52266  22.872  23.611  28.114  0.1673  0.1817  0.5275
 9329W        W52267  23.489  24.858  27.532  0.0493 -0.2847 -0.2491
 9330W        W52268  23.519  24.460  24.325 -0.0128  0.1622  0.1438
 9331W        W52269  22.067  24.080  27.481  0.0474 -0.2678 -0.0562
 9332W        W52270  21.151  23.546  24.825  0.0768  0.0173  0.1020
 9333W        W52271  22.378  23.301  28.173 -0.1364 -0.4468 -0.1814
 9334W        W52272  24.769  23.558  26.967 -0.1019 -0.0583 -0.2504
 9335W        W52273  24.476  22.050  26.010  0.2280  0.0925  0.0024
 9336W        W52274  22.655  22.733  27.506 -0.0342  0.0067  0.0594
 9337W        W52275  25.415  23.562  27.469 -0.0250 -0.1963  0.2171
 9338W        W52276  22.542  24.017  24.942  0.0150 -0.2167 -0.0444
 9339W        W52277  24.414  26.700  25.324  0.2456  0.0354 -0.1735
 9340W        W52278  24.817  23.400  25.586 -0.0002 -0.1996 -0.3289
 9341W        W52279  24.786  25.762  24.305  0.2303  0.1555 -0.2219
 9342W        W52280  22.540  23.466  25.904 -0.1115  0.0561  0.2273
 9343W        W52281  22.761  21.006  25.660 -0.0890 -0.0648  0.0740
 9344W        W52282  23.577  21.254  27.558 -0.0248 -0.0807 -0.0693
 9345W        W52283  22.794  22.674  26.787 -0.0564  0.1365 -0.2246
 9346W        W52284  25.076  22.713  26.665 -0.1441  0.0343  0.0148
 9347W        W52285  22.411  22.376  24.315  0.3306  0.0113  0.0173
 9348W        W52286  25.623  22.372  26.970 -0.0841  0.0595 -0.3465
 9349W        W52287  22.597  23.919  26.062 -0.0040 -0.1796  0.0565
 9350W        W52288  22.746  24.192  25.640 -0.0730 -0.0377  0.3727
 9351W        W52289  23.844  23.565  27.836  0.0562 -0.0383 -0.0363
 9352W        W52290  24.269  25.836  25.313 -0.0297 -0.0919 -0.1021
 9353W        W52291  26.275  25.180  27.459 -0.0135  0.1388  0.0156
 9354W        W52292  25.006  25.291  27.071  0.1337  0.0036 -0.0842
 9355W        W52293  22.766  21.818  26.128  0.1475 -0.1623 -0.0475
 9356W        W52294  23.565  22.227  24.133  0.0807  0.1147 -0.2924
 9357W        W52295  21.923  25.188  26.069 -0.0930 -0.4630 -0.1393
 9358W        W52296  22.134  24.241  27.002 -0.0329  0.3495 -0.1347
 9359W        W52297  23.385  21.682  25.509 -0.1501 -0.1145 -0.2732
 9360W        W52298  25.061  24.242  26.698  0.0457 -0.3415 -0.0566
 9361W        W52299  23.532  24.261  25.718 -0.5415 -0.1929  0.1931
 9362W        W52300  22.128  23.589  27.527 -0.1855 -0.2682  0.2917
 9363W        W52301  22.706  20.943  27.888 -0.1276 -0.1789  0.0783
 9364W        W52302  24.844  24.148  26.225 -0.0042  0.0348  0.3463
 9365W        W52303  24.788  24.090  24.713  0.1221 -0.3227  0.0591
 9366W        W52304  21.337  23.288  22.700 -0.0435  0.0878 -0.0994
 9367W        W52305  25.006  25.106  26.274  0.1597 -0.1439  0.3231
 9368W        W52306  21.489  24.201  24.417  0.0619 -0.0538 -0.1046
 9369W        W52307  21.311  23.757  24.431  0.1688  0.2551 -0.2646
 9370W        W52308  23.926  24.567  25.733 -0.2061  0.0583 -0.1938
 9371W        W52309  25.673  22.974  25.376  0.2176  0.1036 -0.0245
 9372W        W52310  23.083  23.345  27.458  0.2235  0.1606 -0.1528
 9373W        W52311  24.702  23.225  27.865 -0.1719 -0.1810  0.1842
 9374W        W52312  22.204  23.632  24.835  0.1674 -0.1174  0.2825
 9375W        W52313  24.400  25.831  26.449  0.0257 -0.1654 -0.1326
 9376W        W52314  24.604  22.561  26.775 -0.0860  0.3050  0.1603
 9377W        W52315  24.076  22.952  25.653 -0.0389 -0.0551 -0.2134
 9378W        W52316  23.833  22.562  26.982  0.0516  0.0915 -0.0699
 9379W        W52317  25.122  25.298  25.432 -0.1437  0.2827 -0.4222
 9380W        W52318  25.231  22.555  23.271  0.3042  0.1879  0.0274
 9381W        W52319  24.799  22.043  24.459  0.2940  0.3465 -0.2123
 9382W        W52320  22.456  24.791  27.914  0.1787  0.0152  0.0840
 9383W        W52321  23.579  25.241  25.104 -0.2461 -0.0405  0.2127
 9384W        W52322  24.085  23.955  27.669 -0.1290 -0.4112  0.1926
 9385W        W52323  23.788  23.192  23.137 -0.0249  0.0946 -0.2289
 9386W        W52324  24.811  24.778  25.474 -0.3829 -0.0207 -0.1837
 9387W        W52325  22.756  23.420  26.526 -0.0412 -0.0311 -0.3182
 9388W        W52326  23.395  24.444  27.247  0.0129  0.5028 -0.1800
 9389W        W52327  23.932  24.413  27.291  0.0834 -0.2046  0.0491
 9390W        W52328  23.594  20.810  25.392 -0.1694  0.1389  0.0762
 9391W        W52329  23.689  23.456  24.527  0.0539 -0.1566 -0.0600
 9392W        W52330  24.562  22.278  23.842 -0.0936  0.2724  0.4366
 9393W        W52331  22.792  24.376  24.618  0.2075  0.0768 -0.0252
 9394W        W52332  24.099  22.692  26.587 -0.2548 -0.1211  0.4963
 9395W        W52333  23.162  21.513  27.568  0.1982  0.1356 -0.1431
 9396W        W52334  23.091  21.768  27.163  0.0954  0.2636  0.1616
 9397W        W52335  24.611  23.970  26.684 -0.2554  0.0134  0.2467
 9398W        W52336  24.977  22.592  24.700  0.0821  0.1874 -0.1642
 9399W        W52337  24.507  23.836  25.655 -0.3846 -0.2065 -0.2995
 9400W        W52338  23.214  23.402  24.443  0.0062  0.0405 -0.0387
 9401W        W52339  22.867  20.017  25.900  0.1885 -0.1938  0.0177
 9402W        W52340  23.101  22.814  27.318 -0.2580 -0.0006 -0.1758
 9403W        W52341  22.855  25.305  26.984 -0.1933 -0.2310  0.0626
 9404W        W52342  24.058  24.056  28.604  0.2865  0.2265  0.0123
 9405W        W52343  23.720  23.285  25.713  0.1700 -0.1877 -0.2670
 9406W        W52344  22.405  23.073  28.631 -0.3996 -0.0718 -0.0717
 9407W        W52345  25.157  23.009  24.396  0.2425  0.0168 -0.0675
 9408W        W52346  24.412  26.253  25.714  0.0614 -0.3533 -0.0912
 9409W        W52347  24.207  23.259  24.564 -0.1914  0.2523 -0.2097
 9410W        W52348  23.261  21.221  27.200  0.3059 -0.0416  0.0898
 9411W        W52349  24.227  24.466  26.872  0.0818 -0.1146 -0.0688
 9412W        W52350  24.177  25.335  25.775 -0.1202 -0.2054 -0.0347
 9413W        W52351  23.955  23.648  27.281 -0.2915 -0.2607 -0.3299
 9414W        W52352  24.299  24.393  25.395 -0.1023  0.0734 -0.1029
 9415W        W52353  24.191  22.170  26.694  0.2779  0.0496  0.0683
 9416W        W52354  21.959  24.965  24.726 -0.3646 -0.0227  0.0836
 9417W        W52355  24.366  23.524  24.081 -0.2255  0.0214  0.0102
 9418W        W52356  21.832  23.056  25.116  0.2053  0.0469  0.2912
 9419W        W52357  24.264  22.515  25.153  0.1781 -0.0561 -0.1276
 9420W        W52358  24.581  23.351  25.172  0.1342 -0.2002  0.0809
 9421W        W52359  22.324  23.062  26.569  0.3894 -0.1425  0.3155
 9422W        W52360  23.243  21.046  26.183 -0.0393 -0.2492  0.0249
 9423W        W52361  23.132  24.613  25.584  0.1312 -0.2782 -0.2658
 9424W        W52362  24.172  23.169  28.860  0.1422  0.0826 -0.0011
 9425W        W52363  24.587  22.801  25.053 -0.3575 -0.0835  0.0081
 9426W        W52364  24.828  24.651  27.895 -0.0553 -0.0189  0.3443
 9427W        W52365  23.427  23.766  28.877 -0.0598 -0.1918  0.2054
 9428W        W52366  22.025  22.306  24.624  0.1321  0.2810  0.0909
 9429W        W52367  25.785  22.772  25.833  0.2573 -0.2632  0.2048
 9430W        W52368  24.058  24.016  25.546  0.1778  0.0659 -0.0250
 9431W        W52369  23.163  24.716  24.724  0.3469 -0.1658  0.1262
 9432W        W52370  24.170  25.460  27.914 -0.2290  0.1069  0.0337
 9433W        W52371  23.276  24.321  26.176 -0.2136 -0.1453  0.3365
 9434W        W52372  22.479  25.276  25.877 -0.0026 -0.0887  0.0366
 9435W        W52373  22.833  23.151  27.868  0.0252 -0.3248 -0.3459
 9436W        W52374  24.573  24.104  27.684 -0.2362  0.1886  0.0084
 9437W        W52375  23.345  22.989  25.893 -0.0737 -0.0549  0.0911
 9438W        W52376  23.455  22.146  24.999 -0.0473 -0.2272 -0.0436
 9439W        W52377  23.686  21.967  25.810  0.2334  0.0027 -0.1134
 9440W        W52378  23.922  25.567  26.164 -0.3533 -0.2247  0.1254
 9441W        W52379  23.291  22.613  26.883 -0.2095  0.2681  0.2305
 9442W        W52380  22.145  24.616  26.695  0.0411 -0.0929  0.0984
 9443W        W52381  22.199  19.471  25.138 -0.0014 -0.2066 -0.1087
 9444W        W52382  25.754  25.565  25.974 -0.2595  0.3728 -0.0983
 9445W        W52383  24.955  23.394  27.419 -0.0763  0.3029 -0.0777
 9446W        W52384  22.258  24.717  25.143 -0.2637  0.3518 -0.3737
 9447W        W52385  21.511  22.738  24.510 -0.2288 -0.1070 -0.1052
 9448W        W52386  22.979  23.914  25.193 -0.0286  0.1249 -0.1976
 9449W        W52387  23.704  21.277  25.408 -0.1274  0.0419 -0.2421
 9450W        W52388  22.893  23.800  27.546 -0.1551 -0.3516 -0.2017
 9451W        W52389  22.435  24.034  24.438 -0.1227 -0.2158  0.1043
 9452W        W52390  23.066  25.653  26.624  0.4575  0.0342 -0.2575
 9453W        W52391  25.228  23.505  23.533 -0.2195  0.0338  0.2757
 9454W        W52392  24.062  26.571  24.908 -0.1004 -0.4198  0.2429
 9455W        W52393  23.161  22.602  25.052  0.1688 -0.2196  0.1878
 9456W        W52394  24.770  22.485  27.251 -0.0160 -0.2188  0.1301
 9457W        W52395  26.327  22.933  24.050  0.1452 -0.0188  0.0136
 9458W        W52396  24.143  21.173  27.494 -0.1284  0.0123  0.2256
 9459W        W52397  22.845  21.864  25.569  0.0525 -0.1068  0.0238
 9460W        W52398  25.174  24.383  25.369  0.1937 -0.1548  0.0635
 9461W        W52399  21.736  23.620  26.577 -0.0651 -0.0756 -0.2372
 9462W        W52400  24.119  25.738  27.370  0.3017 -0.0310 -0.0104
 9463W        W52401  23.689  22.423  26.468  0.4057  0.1232 -0.0665
 9464W        W52402  24.697  21.954  25.548 -0.0735  0.0690  0.1303
 9465W        W52403  23.852  21.401  24.610  0.0886 -0.2294  0.0844
 9466W        W52404  24.210  24.661  26.394 -0.0010  0.0158  0.1272
 9467W        W52405  26.196  25.371  26.960 -0.4069  0.0137  0.1086
 9468W        W52406  23.682  23.722  25.324 -0.0803  0.2483  0.3874
 9469W        W52407  24.627  21.689  25.035 -0.1274 -0.0109 -0.1087
 9470W        W52408  23.147  23.456  25.989 -0.0868 -0.2377  0.1055
 9471W        W52409  25.063  23.678  26.530 -0.1864  0.0466  0.0015
 9472W        W52410  24.081  23.504  22.921  0.0920 -0.2374 -0.0868
 9473W        W52411  23.655  24.419  26.854 -0.1043 -0.2327 -0.3729
 9474W        W52412  23.056  21.888  25.081 -0.0317  0.0231 -0.3571
 9475W        W52413  24.643  24.306  27.037  0.3956 -0.0964 -0.1081
 9476W        W52414  24.512  22.285  24.770  0.0241 -0.0988  0.1409
 9477W        W52415  23.501  22.443  25.987  0.2713  0.0000 -0.2178
 9478W        W52416  24.295  23.342  28.326 -0.0507 -0.1029 -0.1754
 9479W        W52417  24.431  23.617  27.588 -0.3297 -0.0251 -0.1405
 9480W        W52418  23.363  23.328  27.029  0.1835 -0.1250 -0.1147
 9481W        W52419  24.667  26.135  28.259  0.1811 -0.0301 -0.1679
 9482W        W52420  25.927  22.652  23.885  0.0272 -0.0521 -0.0311
 9483W        W52421  25.446  22.387  26.001 -0.1499 -0.0790  0.3646
 9484W        W52422  25.334  24.109  26.245 -0.0896  0.1487 -0.1930
 9485W        W52423  24.291  24.036  24.673  0.1465  0.0366  0.1839
 9486W        W52424  22.669  21.329  25.238 -0.1332  0.2978  0.3541
 9487W        W52425  23.982  22.362  27.931  0.1898 -0.2462 -0.0539
 9488W        W52426  24.389  23.013  23.319 -0.1635  0.4112 -0.1640
 9489W        W52427  23.099  21.816  28.102  0.0343 -0.0918  0.0760
 9490W        W52428  23.640  25.516  25.728 -0.0470 -0.0852  0.0159
 9491W        W52429  25.147  25.205  24.479  0.0741 -0.0009  0.3116
 9492W        W52430  23.771  23.882  24.795  0.2929 -0.0652  0.2404
 9493W        W52431  22.524  21.482  25.739  0.2929  0.0196  0.0528
 9494W        W52432  22.960  23.658  27.062 -0.2385  0.0290  0.0684
 9495W        W52433  22.109  22.649  22.104 -0.1341  0.1974 -0.0897
 9496W        W52434  24.010  23.243  23.834  0.0517 -0.4339 -0.1025
 9497W        W52435  23.804  23.646  26.612 -0.0733 -0.0537  0.1642
 9498W        W52436  23.917  22.962  28.407 -0.1734 -0.0153 -0.0044
 9499W        W52437  23.956  22.610  24.066  0.2786  0.3788  0.2592
 9500W        W52438  23.687  22.862  28.850 -0.3383 -0.0080 -0.3014
 9501W        W52439  21.454  23.953  24.902  0.0241 -0.0963  0.1058
 9502W        W52440  24.230  22.378  27.172 -0.2903  0.2582 -0.3061
 9503W        W52441  22.317  24.859  26.125 -0.0013 -0.1758  0.0075
 9504W        W52442  21.250  24.385  28.111 -0.2465 -0.0542  0.1195
 9505W        W52443  23.442  26.671  25.102 -0.1266  0.5093 -0.3069
 9506W        W52444  23.225  20.111  26.853 -0.0201  0.0281  0.1443
 9507W        W52445  24.313  24.184  25.953  0.1613 -0.4070 -0.2019
 9508W        W52446  23.836  22.806  26.108 -0.0902  0.1416 -0.0618
 9509W        W52447  25.771  23.028  26.830 -0.1867  0.2781  0.1836
 9510W        W52448  23.068  24.831  27.187 -0.2604 -0.0338 -0.0436
 9511W        W52449  22.732  24.144  27.859  0.0126  0.0221  0.0323
 9512W        W52450  24.112  25.831  26.836  0.0849 -0.2590 -0.1937
 9513W        W52451  24.837  25.271  24.964 -0.1754  0.1657  0.0594
 9514W        W52452  22.349  24.314  25.961 -0.1259  0.0344  0.0451
 9515W        W52453  22.296  21.775  26.625 -0.0978  0.0592 -0.0100
 9516W        W52454  24.111  23.860  28.148 -0.2667  0.3873  0.0680
 9517W        W52455  24.652  24.729  26.122 -0.0097 -0.1308  0.0557
 9518W        W52456  23.328  22.712  23.940 -0.0058  0.2645 -0.0506
 9519W        W52457  25.631  26.106  24.826 -0.3634  0.2051  0.1339
 9520W        W52458  20.780  24.597  26.991  0.0582 -0.0018 -0.0670
 9521W        W52459  23.131  24.632  26.678 -0.1495  0.3537 -0.0661
 9522W        W52460  23.826  24.365  26.144  0.1933 -0.1355 -0.3055
 9523W        W52461  24.478  24.947  25.124 -0.1840  0.1049 -0.1754
 9524W        W52462  24.190  23.439  25.495  0.2871  0.0566  0.0191
 9525W        W52463  25.503  26.594  26.311  0.1332  0.1184  0.0030
 9526W        W52464  23.204  23.010  24.804 -0.3090  0.2205  0.1052
 9527W        W52465  23.446  24.311  24.859 -0.1041 -0.1087  0.1268
 9528W        W52466  21.981  23.665  23.266 -0.3672 -0.2035  0.1830
 9529W        W52467  23.200  25.017  24.255  0.3703  0.1426 -0.0670
 9530W        W52468  24.988  25.677  25.819  0.1955  0.0498  0.0798
 9531W        W52469  24.554  24.036  28.428 -0.1850 -0.2248 -0.0412
 9532W        W52470  25.066  21.843  22.731  0.0979 -0.2383 -0.1344
 9533W        W52471  25.332  24.224  24.826 -0.0106 -0.1862  0.1071
 9534W        W52472  25.700  23.790  24.675  0.1504 -0.0624  0.1575
 9535W        W52473  24.371  25.060  27.646 -0.0818 -0.1470 -0.1878
 9536W        W52474  22.777  24.229  27.076  0.0159 -0.1228 -0.1822
 9537W        W52475  24.352  22.720  23.764  0.1976 -0.0073 -0.1418
 9538W        W52476  24.330  23.588  26.662 -0.2821  0.2208  0.2124
 9539W        W52477  24.943  21.381  28.094 -0.0063 -0.1216 -0.1156
 9540W        W52478  22.662  24.913  26.528  0.0361  0.1868  0.1643
 9541W        W52479  25.337  25.196  25.894  0.1600 -0.3490  0.1193
 9542W        W52480  22.810  23.174  25.625  0.1641  0.1990  0.0716
 9543W        W52481  23.507  24.038  26.482  0.2014 -0.1687  0.2710
 9544W        W52482  25.690  21.683  24.638 -0.3243  0.0261  0.2908
 9545W        W52483  23.293  24.789  23.069 -0.0877  0.0005 -0.1498
 9546W        W52484  25.089  23.974  25.751  0.0241 -0.3184  0.0292
 9547W        W52485  25.179  24.647  25.891  0.0637 -0.1393  0.3008
 9548W        W52486  23.339  25.349  27.030  0.1784  0.0619 -0.0814
 9549W        W52487  24.019  24.472  27.788  0.4297 -0.1304 -0.0676
 9550W        W52488  21.702  22.011  24.366 -0.1138  0.2810  0.2371
 9551W        W52489  25.754  23.223  25.997 -0.0914 -0.1931 -0.3530
 9552W        W52490  23.157  22.014  25.964  0.0512  0.0028 -0.0509
 9553W        W52491  24.965  21.940  25.977  0.0836 -0.0826 -0.1689
 9554W        W52492  23.268  22.980  25.348  0.0612  0.0560 -0.0401
 9555W        W52493  25.239  22.599  25.084  0.1526  0.3634  0.1954
 9556W        W52494  22.558  24.886  28.488 -0.2391 -0.4122 -0.2029
 9557W        W52495  22.351  22.771  27.031  0.5083  0.1599  0.2021
 9558W        W52496  23.568  22.435  23.547 -0.0800 -0.1310  0.3908
 9559W        W52497  25.044  23.707  28.314 -0.0111 -0.1354  0.2355
 9560W        W52498  25.637  23.340  23.880  0.2048  0.4056  0.1976
 9561W        W52499  24.447  24.923  28.151 -0.0034 -0.0768  0.0383
 9562W        W52500  23.135  22.618  26.263 -0.1674  0.0765 -0.4059
 9563W        W52501  24.961  23.044  25.255  0.0178  0.0798  0.1954
 9564W        W52502  24.341  24.838  25.660  0.0773 -0.0449 -0.1123
 9565W        W52503  22.983  22.642  25.701  0.1122  0.0346 -0.1390
 9566W        W52504  25.107  25.725  27.593  0.1286  0.2908  0.0804
 9567W        W52505  23.363  22.257  25.484  0.1568  0.0802 -0.0475
 9568W        W52506  26.444  24.544  24.505  0.0533 -0.0453  0.3624
 9569W        W52507  26.042  23.988  25.737 -0.2669  0.1175 -0.1753
 9570W        W52508  23.656  24.191  23.627  0.0034 -0.2111  0.0743
 9571W        W52509  25.355  23.411  24.706 -0.4260  0.1358 -0.2341
 9572W        W52510  24.916  23.883  25.218  0.0498 -0.0576  0.0223
 9573W        W52511  22.175  21.690  26.091 -0.0196 -0.0454 -0.0628
 9574W        W52512  25.363  25.733  27.119  0.1028  0.0951 -0.3093
 9575W        W52513  25.038  26.185  27.436  0.1193 -0.0921 -0.2461
 9576W        W52514  23.989  21.810  24.072 -0.0134  0.1250  0.0017
 9577W        W52515  23.542  23.297  27.552 -0.1454  0.3840  0.1939
 9578W        W52516  22.253  25.231  25.008  0.2774  0.0259 -0.4409
 9579W        W52517  24.982  23.194  26.508  0.1265 -0.0796  0.3009
 9580W        W52518  24.507  23.308  25.931 -0.2808 -0.3205 -0.0519
 9581W        W52519  24.545  25.375  25.407  0.0098 -0.0754  0.3332
 9582W        W52520  23.784  22.033  26.996 -0.1389  0.0091 -0.0028
 9583W        W52521  23.295  25.189  26.567  0.0576  0.0820 -0.2694
 9584W        W52522  22.246  25.786  28.108  0.1049 -0.0256  0.2153
 9585W        W52523  22.214  24.505  24.632  0.1689  0.1676 -0.1867
 9586W        W52524  23.410  23.087  29.166  0.1418 -0.2018  0.1078
 9587W        W52525  24.636  24.489  26.557  0.0600  0.3087  0.0121
 9588W        W52526  24.325  25.108  26.193  0.3198 -0.0610  0.2212
 9589W        W52527  26.208  24.661  24.969  0.1334  0.4518  0.2419
 9590W        W52528  23.554  23.758  25.799 -0.0076  0.0461  0.3080
 9591W        W52529  25.619  25.421  25.481 -0.2675  0.0352  0.1950
 9592W        W52530  23.118  23.052  26.582  0.1535  0.2317 -0.2230
 9593W        W52531  26.078  22.651  25.399  0.2508  0.0456  0.0746
 9594W        W52532  23.823  22.969  24.520  0.3944 -0.3573 -0.0476
 9595W        W52533  23.762  25.045  25.630 -0.0312  0.1441  0.1753
 9596W        W52534  21.275  22.339  24.269  0.2677 -0.0990 -0.5572
 9597W        W52535  21.366  24.877  25.004 -0.1424 -0.0840  0.1871
 9598W        W52536  23.513  24.678  25.267 -0.0925  0.5245 -0.0387
 9599W        W52537  24.171  20.726  27.170 -0.1866  0.1100 -0.3843
 9600W        W52538  23.262  22.788  27.822  0.2390  0.0858 -0.0023
 9601W        W52539  22.008  24.071  24.712 -0.0634 -0.2076 -0.3490
 9602W        W52540  23.184  23.181  23.759  0.0097 -0.0929 -0.1352
 9603W        W52541  24.502  25.801  25.939  0.0041  0.1042  0.1895
 9604W        W52542  24.463  22.414  26.310  0.2145  0.0572 -0.1976
 9605W        W52543  22.223  21.747  24.350  0.1399  0.1627  0.0662
 9606W        W52544  24.744  24.352  25.167  0.0638  0.1329  0.0484
 9607W        W52545  25.136  25.480  26.618  0.2420  0.0635  0.3253
 9608W        W52546  23.641  23.260  24.958 -0.2082  0.0706 -0.0366
 9609W        W52547  25.225  24.608  28.647 -0.0720 -0.4209 -0.1467
 9610W        W52548  23.378  23.930  24.507 -0.0343  0.0360 -0.0373
 9611W        W52549  24.209  22.900  27.012 -0.1779  0.0317 -0.0672
 9612W        W52550  23.733  22.912  27.866  0.1602 -0.0182  0.1250
 9613W        W52551  22.894  22.460  24.229 -0.1548  0.4463  0.0152
 9614W        W52552  23.048  23.906  26.339 -0.3028  0.3699  0.0171
 9615W        W52553  24.250  25.404  26.634 -0.0313 -0.2796  0.0148
 9616W        W52554  24.109  26.979  23.860  0.5195  0.0234  0.0313
 9617W        W52555  20.718  22.466  29.010  0.0418  0.0542  0.2135
 9618W        W52556  22.372  25.212  26.884  0.2255 -0.1999  0.1466
 9619W        W52557  22.275  20.900  25.275 -0.1076  0.4111  0.2192
 9620W        W52558  25.339  24.180  24.268  0.2556 -0.2675  0.1427
 9621W        W52559  23.218  23.524  26.629 -0.0008 -0.0399  0.1801
 9622W        W52560  25.615  25.529  24.181 -0.0425  0.1442 -0.1973
 9623W        W52561  24.669  21.559  25.961 -0.3252 -0.0619  0.0510
 9624W        W52562  24.104  23.536  25.014  0.1489  0.1037  0.1559
 9625W        W52563  22.353  22.359  26.762 -0.2044  0.2460  0.1589
 9626W        W52564  22.029  24.654  28.347 -0.1846  0.1120 -0.0039
 9627W        W52565  23.802  24.499  28.713  0.0861  0.0408 -0.0864
 9628W        W52566  22.635  21.678  24.063  0.0032  0.0141 -0.1115
 9629W        W52567  24.356  22.409  25.679 -0.0456 -0.0418  0.4493
 9630W        W52568  25.029  24.808  24.996  0.0309  0.1866 -0.3407
 9631W        W52569  22.006  22.602  25.539  0.1205  0.3944 -0.0468
 9632W        W52570  23.634  22.718  25.600  0.3564 -0.1086 -0.2850
 9633W        W52571  24.489  22.833  27.430 -0.1360  0.2993 -0.1252
 9634W        W52572  24.612  23.718  28.082  0.1147  0.1112 -0.0797
 9635W        W52573  25.352  24.149  27.577  0.1083  0.0102  0.0479
 9636W        W52574  23.096  23.962  25.867  0.0650  0.3362  0.1000
 9637W        W52575  25.552  24.695  24.920  0.0518  0.3205 -0.2079
 9638W        W52576  23.872  24.911  27.930  0.2967 -0.0270  0.1344
 9639W        W52577  24.991  25.716  28.196  0.1314  0.1239  0.1618
 9640W        W52578  24.601  26.126  26.764  0.3137 -0.3474  0.2337
 9641W        W52579  24.017  24.014  26.873 -0.0361 -0.2635 -0.1095
 9642W        W52580  22.636  20.520  25.627 -0.0408  0.1061  0.0820
 9643W        W52581  22.812  24.497  26.010  0.0391 -0.1375  0.1230
 9644W        W52582  23.790  25.212  26.507 -0.1945  0.1060  0.0430
 9645W        W52583  24.419  23.884  27.175 -0.3387 -0.4138  0.0051
 9646W        W52584  22.496  22.607  25.471 -0.0211  0.1436  0.0457
 9647W        W52585  24.334  21.820  24.555  0.0331 -0.1457  0.0166
 9648W        W52586  23.467  25.283  26.118  0.4460 -0.0587  0.0638
 9649W        W52587  24.070  23.757  26.126  0.3049  0.0468  0.4292
 9650W        W52588  21.736  23.055  31.380  0.1256 -0.2279 -0.0154
 9651W        W52589  22.201  23.076  29.227  0.1346 -0.3660 -0.2730
 9652W        W52590  23.884  21.532  28.865 -0.1213  0.0078 -0.0917
 9653W        W52591  25.562  23.810  29.024  0.1091 -0.3438 -0.1485
 9654W        W52592  21.858  22.071  28.047 -0.0041 -0.2447 -0.2493
 9655W        W52593  22.496  25.000  29.685  0.0698 -0.0451 -0.0756
 9656W        W52594  23.270  22.423  30.333 -0.1351 -0.1964 -0.0822
 9657W        W52595  24.268  22.795  30.605 -0.3615  0.3095 -0.1365
 9658W        W52596  24.588  25.252  30.279 -0.0705 -0.0550 -0.3141
 9659W        W52597  24.227  24.609  29.552  0.0778  0.0844  0.1690
 9660W        W52598  22.556  22.976  31.219 -0.1050  0.0721  0.0353
 9661W        W52599  22.579  23.259  30.389 -0.2033 -0.2406 -0.0728
 9662W        W52600  22.588  22.375  27.902 -0.0598  0.1681  0.0743
 9663W        W52601  21.730  22.174  30.385 -0.1507  0.1424  0.0202
 9664W        W52602  24.292  23.588  30.833  0.1238  0.2120  0.0579
 9665W        W52603  22.060  23.464  28.536 -0.2125 -0.0059  0.0261
 9666W        W52604  22.781  23.276  29.865  0.1578 -0.1009 -0.1360
 9667W        W52605  23.340  22.467  28.805 -0.3741 -0.0770  0.6247
 9668W        W52606  23.447  25.116  31.526 -0.0302  0.2228 -0.1579
 9669W        W52607  24.365  21.264  30.472  0.1587  0.2724  0.3116
 9670W        W52608  23.326  20.846   0.110  0.1529 -0.0683 -0.4100
 9671W        W52609  23.691  24.085  27.958 -0.0986  0.0073  0.0220
 9672W        W52610  21.672  23.194  26.917  0.0796  0.1576  0.0201
 9673W        W52611  22.953  23.666  29.394  0.0481  0.0148 -0.1495
 9674W        W52612  22.162  23.039  30.149 -0.0828 -0.1513  0.0399
 9675W        W52613  24.283  22.523  30.104 -0.1668 -0.1245  0.3194
 9676W        W52614  23.980  23.139  27.512  0.2100  0.2216 -0.2227
 9677W        W52615  23.738  25.320  30.416 -0.0208  0.0103 -0.0726
 9678W        W52616  23.962  24.502  30.616  0.1346  0.0952  0.0019
 9679W        W52617  23.990  21.711  30.494  0.0076  0.0025  0.2626
 9680W        W52618  21.359  22.016  27.725 -0.0825 -0.0755 -0.0712
 9681W        W52619  21.911  23.379  28.037  0.1661  0.1118 -0.1032
 9682W        W52620  23.789  24.251  29.556  0.3482  0.2729 -0.2253
 9683W        W52621  26.159  24.257  28.916 -0.2077 -0.3398 -0.0250
 9684W        W52622  23.754  24.087  31.152 -0.2428 -0.1001 -0.0600
 9685W        W52623  22.083  27.181  31.400  0.0490  0.4859 -0.2756
 9686W        W52624  22.177  24.563  27.437 -0.1571 -0.2584 -0.1051
 9687W        W52625  24.097  24.654  31.682 -0.0162  0.0110  0.1733
 9688W        W52626  23.365  24.941   0.035  0.1652  0.1631  0.2114
 9689W        W52627  24.447  23.673  29.894 -0.1594  0.0980 -0.0414
 9690W        W52628  24.190  22.657  28.921 -0.1565 -0.1717  0.1195
 9691W        W52629  23.127  25.212  28.808 -0.0900  0.1650 -0.2028
 9692W        W52630  24.009  23.927  30.652 -0.1671  0.0459  0.0476
 9693W        W52631  23.513  22.893  30.521 -0.2473 -0.3010  0.0472
 9694W        W52632  22.385  24.660  30.169 -0.1392  0.2051  0.1530
 9695W        W52633  25.876  22.070  29.381  0.1569  0.0040  0.1141
 9696W        W52634  21.231  24.973  29.173  0.0086 -0.2705  0.0544
 9697W        W52635  22.501  22.672  29.102 -0.4013  0.1248 -0.0783
 9698W        W52636  23.975  22.322  26.011 -0.2531 -0.0637 -0.2072
 9699W        W52637  23.720  22.436  29.172  0.0573 -0.0170  0.0397
 9700W        W52638  23.614  20.681  29.130 -0.2343 -0.3204 -0.1509
 9701W        W52639  24.065  25.083  29.584  0.2291  0.1268 -0.0234
 9702W        W52640  22.560  21.476  29.495  0.0577 -0.0163  0.0563
 9703W        W52641  24.988  21.836  30.795 -0.2071 -0.2061 -0.3031
 9704W        W52642  23.442  23.581  29.405  0.2310  0.0422 -0.1501
 9705W        W52643  22.758  21.132  29.814  0.2497  0.4675 -0.0130
 9706W        W52644  23.287  24.468  29.599 -0.0549  0.0432  0.1569
 9707W        W52645  21.676  21.761  29.035  0.2375 -0.0844  0.1691
 9708W        W52646  24.233  26.391  28.300 -0.0448 -0.1573  0.1455
 9709W        W52647  25.626  25.817  29.326  0.0007  0.0375  0.0283
 9710W        W52648  24.631  25.542  27.400  0.1400 -0.0913 -0.4051
 9711W        W52649  21.080  21.762  27.425 -0.3525 -0.1566 -0.3488
 9712W        W52650  22.155  22.055  30.688 -0.3953  0.0615  0.1425
 9713W        W52651  23.232  23.459  29.791 -0.2508 -0.0074  0.3775
 9714W        W52652  22.308  21.026  26.032 -0.0942  0.2128  0.0279
 9715W        W52653  23.889  23.511  31.084 -0.1246 -0.3525 -0.1736
 9716W        W52654  21.572  24.692   0.606 -0.0871  0.0827  0.0615
 9717W        W52655  23.920  21.434  28.361  0.2665  0.0100  0.0172
 9718W        W52656  23.155  23.024  29.605  0.2230 -0.1285  0.0443
 9719W        W52657  24.430  23.965  30.395  0.0033  0.0999  0.0688
 9720W        W52658  23.577  24.101  28.500 -0.2049  0.0595  0.3703
 9721W        W52659  24.402  21.295  29.644 -0.0607 -0.0612  0.0309
 9722W        W52660  24.500  20.926  29.218  0.0617 -0.0484 -0.1559
 9723W        W52661  22.557  23.363  27.473 -0.2579 -0.0195  0.1447
 9724W        W52662  25.137  23.140  29.649 -0.0175 -0.2982 -0.0049
 9725W        W52663  24.468  22.729  31.035 -0.0264  0.0465  0.0255
 9726W        W52664  25.174  22.156  28.130 -0.1499 -0.0638  0.0930
 9727W        W52665  23.077  24.491  29.063 -0.1117  0.1234 -0.0208
 9728W        W52666  22.245  22.998   0.135  0.0326 -0.1101 -0.0683
 9729W        W52667  24.099  25.160   0.281 -0.1924  0.0324 -0.2419
 9730W        W52668  21.998  24.578  29.264 -0.1368  0.3166  0.0074
 9731W        W52669  22.144  24.078  29.289  0.1689 -0.0201  0.1019
 9732W        W52670  22.692  24.554  27.511  0.1802 -0.1744  0.0209
 9733W        W52671  21.567  20.927  30.717  0.0205 -0.0131  0.0156
 9734W        W52672  23.089  24.098  30.222  0.0055  0.0637  0.0357
 9735W        W52673  24.145  22.144  28.890  0.1805  0.0342  0.2132
 9736W        W52674  20.604  20.978  30.301 -0.1698  0.2434  0.2955
 9737W        W52675  25.433  22.415  30.476  0.0823  0.0405  0.0112
 9738W        W52676  21.548  23.399  28.396 -0.0764 -0.2055  0.0634
 9739W        W52677  24.401  25.320  28.797 -0.0327  0.0959  0.2275
 9740W        W52678  25.179  24.138  28.556  0.0548 -0.1803  0.2489
 9741W        W52679  23.841  23.712  29.721  0.2341 -0.1569 -0.1886
 9742W        W52680  22.495  23.412  29.494  0.2475 -0.1579  0.3349
 9743W        W52681  22.801  22.583  29.541  0.0432 -0.0108 -0.1115
 9744W        W52682  22.990  22.401  31.754  0.1120  0.3138 -0.1115
 9745W        W52683  22.441  21.422  30.052 -0.0254 -0.0669  0.0567
 9746W        W52684  24.976  24.732  29.844  0.0992  0.0900  0.0543
 9747W        W52685  21.505  21.683  26.620 -0.0524 -0.0676 -0.0725
 9748W        W52686  24.244  22.530  28.354  0.1220  0.1243  0.1503
 9749W        W52687  22.454  23.828  27.228  0.3015 -0.2029  0.0108
 9750W        W52688  21.747  22.994  27.729  0.3228 -0.3730 -0.0988
 9751W        W52689  24.156  21.968  30.914  0.0476 -0.0106  0.1018
 9752W        W52690  23.803  25.317  27.518  0.0221  0.0903 -0.0752
 9753W        W52691  26.676  23.922  30.700  0.2664  0.2719 -0.0322
 9754W        W52692  25.653  24.897  29.279 -0.0178 -0.0716  0.0398
 9755W        W52693  22.058  22.551  30.202  0.2177  0.0355 -0.0410
 9756W        W52694  21.401  21.876  28.363 -0.0048  0.0163  0.3847
 9757W        W52695  21.568  25.248  29.769 -0.3380 -0.1767  0.3116
 9758W        W52696  25.184  25.052  29.463  0.0580 -0.3109  0.2789
 9759W        W52697  21.694  22.272  29.173  0.4178  0.0576  0.0691
 9760W        W52698  25.300  25.511  29.647  0.2587  0.0724 -0.1271
 9761W        W52699  23.064  22.877  28.803 -0.0752 -0.2593 -0.1174
 9762W        W52700  22.486  23.390  28.999 -0.2447  0.2068  0.0534
 9763W        W52701  24.218  21.214  31.408 -0.1543 -0.0954  0.1866
 9764W        W52702  24.766  24.337  30.549 -0.2898 -0.1787  0.2833
 9765W        W52703  25.506  23.986  29.516  0.0247  0.0214 -0.3424
 9766W        W52704  20.986  21.082  27.197 -0.1589 -0.5133 -0.1838
 9767W        W52705  22.344  25.068  29.207 -0.0029  0.2192  0.2942
 9768W        W52706  22.709  25.278  27.788  0.1832 -0.3175  0.2580
 9769W        W52707  21.953  22.936  28.509  0.2516  0.3242 -0.0299
 9770W        W52708  24.514  24.627  29.197 -0.1417 -0.3012  0.0821
 9771W        W52709  24.261  22.501  29.445  0.0087  0.0584 -0.0465
 9772W        W52710  22.938  22.090  29.522 -0.1435 -0.2659 -0.0050
 9773W        W52711  24.837  22.240  30.528 -0.1081  0.0897 -0.1560
 9774W        W52712  20.229  22.525  28.940  0.0796  0.1541 -0.1303
 9775W        W52713  22.158  24.348  31.809 -0.2448  0.2645  0.2783
 9776W        W52714  23.831  22.404  28.556 -0.0769 -0.2516 -0.0339
 9777W        W52715  25.453  22.396  26.515 -0.0842  0.0153  0.0506
 9778W        W52716  23.609  23.714  30.469 -0.1053 -0.1281 -0.2747
 9779W        W52717  25.160  24.096  29.139 -0.1743  0.0187 -0.3237
 9780W        W52718  23.426  23.098  28.543 -0.3240 -0.1967 -0.2531
 9781W        W52719  23.022  22.048  28.678 -0.0642  0.2271  0.1059
 9782W        W52720  21.381  23.022  31.824 -0.1885 -0.3188  0.0780
 9783W        W52721  24.062  24.886  29.076 -0.2254  0.0689 -0.0730
 9784W        W52722  24.913  23.987  29.740  0.1938 -0.1669  0.1065
 9785W        W52723  23.070  22.312  27.671  0.1996  0.1043 -0.2552
 9786W        W52724  25.668  24.395  29.112 -0.0270  0.0274 -0.3063
 9787W        W52725  23.089  23.378  28.898  0.3198  0.0635 -0.0782
 9788W        W52726  22.930  22.824  31.490 -0.1890 -0.1485  0.2255
 9789W        W52727  24.785  24.376  28.894 -0.2394  0.0926 -0.0627
 9790W        W52728  23.234  20.900  30.401  0.0670 -0.0507  0.3137
 9791W        W52729  23.814  23.598  28.524 -0.0423 -0.0360  0.0482
 9792W        W52730  22.335  20.109  28.409 -0.0491 -0.0352 -0.1607
 9793W        W52731  20.374  23.297  28.781 -0.2040  0.3857  0.1272
 9794W        W52732  25.079  22.116  29.622  0.1031 -0.1679 -0.0885
 9795W        W52733  24.232  21.791  29.636 -0.2276  0.1403  0.0561
 9796W        W52734  22.836  22.403  30.724 -0.0505  0.2569 -0.0367
 9797W        W52735  25.973  23.304  30.515  0.1875  0.2087 -0.1861
 9798W        W52736  24.991  22.263  27.683 -0.0303 -0.0883 -0.0041
 9799W        W52737  24.482  22.978  29.344  0.2593 -0.1836 -0.1925
 9800W        W52738  23.344  23.762  27.875  0.0398  0.1060  0.3744
 9801W        W52739  22.881  21.398  30.889  0.2179 -0.3118 -0.3118
 9802W        W52740  23.317  24.640  30.121 -0.5342 -0.1192 -0.0780
 9803W        W52741  22.546  24.370  30.696  0.0292  0.1345  0.0232
 9804W        W52742  22.109  23.442   0.365 -0.0403  0.0930  0.0679
 9805W        W52743  23.455  22.131  28.376 -0.2267 -0.0131 -0.0191
 9806W        W52744  23.260  21.108  31.605  0.0189  0.1145  0.0890
 9807W        W52745  22.247  22.242  28.332 -0.1830 -0.1629 -0.2353
 9808W        W52746  22.620  24.611  29.389  0.2079 -0.1736 -0.3509
 9809W        W52747  23.286  24.474  28.520  0.1560 -0.0783  0.0467
 9810W        W52748  23.715  21.214  31.350  0.0713  0.1831 -0.1049
 9811W        W52749  24.247  24.326  30.082 -0.0557  0.0521  0.0698
 9812W        W52750  22.300  25.530  27.592  0.0137  0.2341  0.2842
 9813W        W52751  25.069  23.373  31.669  0.2107  0.2373  0.0499
 9814W        W52752  22.617  24.195  30.141  0.2437 -0.1009 -0.4342
 9815W        W52753  24.738  22.416  28.346  0.2247 -0.1063 -0.0752
 9816W        W52754  22.984  24.212  30.758  0.1329  0.3561  0.0296
 9817W        W52755  21.041  22.308  27.406  0.0480  0.5760  0.1068
 9818W        W52756  21.201  22.351  29.199 -0.1181  0.2413  0.0816
 9819W        W52757  25.177  21.471  28.569  0.0896 -0.0422 -0.1096
 9820W        W52758  25.457  23.984  28.087  0.0973  0.1986  0.2459
 9821W        W52759  22.753  21.783  29.866  0.2258  0.2859  0.0110
 9822W        W52760  23.263  21.640  28.961  0.3012  0.4029  0.2287
 9823W        W52761  20.669  23.922  31.115  0.0635  0.0238 -0.0048
 9824W        W52762  23.183  22.033  30.982 -0.0811  0.3305 -0.2496
 9825W        W52763  25.130  21.811  26.656 -0.0570 -0.1329 -0.0054
 9826W        W52764  24.316  25.106  31.811 -0.1391  0.1703 -0.0692
 9827W        W52765  22.566  23.925  31.923  0.1848  0.0696 -0.1567
 9828W        W52766  20.584  22.107  28.653  0.1340 -0.1321 -0.1387
 9829W        W52767  25.415  23.461  29.877  0.4701  0.2120 -0.1143
 9830W        W52768  23.691  21.507  29.658  0.2970  0.2168 -0.1080
 9831W        W52769  21.757  25.661  29.556 -0.2689  0.1296 -0.1538
 9832W        W52770  23.502  24.235  30.684 -0.5057 -0.1843  0.0657
 9833W        W52771  22.047  23.136  27.244 -0.2527 -0.0880  0.1015
 9834W        W52772  21.772  23.274  28.882  0.1429  0.2636 -0.0780
 9835W        W52773  22.323  22.379  29.784  0.1340  0.3547 -0.2428
 9836W        W52774  26.660  24.439  30.559 -0.1027  0.0830 -0.1115
 9837W        W52775  23.604  21.057  28.359 -0.1627  0.4013 -0.2249
 9838W        W52776  21.840  21.530  27.239 -0.0540 -0.1294  0.2784
 9839W        W52777  23.727  23.384  28.960  0.1033  0.3560 -0.0131
 9840W        W52778  24.698  23.229  28.962 -0.1533 -0.2690  0.3459
 9841W        W52779  21.826  22.979  30.480  0.0134  0.2443 -0.2516
 9842W        W52780  21.903  24.848  31.774 -0.7366 -0.1555 -0.1752
 9843W        W52781  23.558  21.283  29.237 -0.0356 -0.7579 -0.0349
 9844W        W52782  23.881  25.542  29.956 -0.1498 -0.1607 -0.1704
 9845W        W52783  23.866  22.844  30.127  0.1304  0.0753  0.1245
 9846W        W52784  23.005  22.791  28.257  0.1238  0.1169 -0.1795
 9847W        W52785  21.054  23.223  29.762  0.5097  0.0968  0.0950
 9848W        W52786  22.068  23.602  29.272 -0.1925  0.2337  0.0933
 9849W        W52787  24.618  20.829  30.474 -0.0264 -0.2420  0.1162
 9850W        W52788  22.841  23.691  30.067 -0.1143 -0.1015  0.0528
 9851W        W52789  24.070  24.977  28.494  0.0878  0.3233  0.0876
 9852W        W52790  22.201  23.110  31.547 -0.1892 -0.2198  0.0920
 9853W        W52791  25.009  21.431  26.265 -0.0343 -0.2127  0.2283
 9854W        W52792  24.415  24.549  27.426 -0.1832  0.0060 -0.2464
 9855W        W52793  21.474  21.879  29.475  0.0052 -0.0741  0.0617
 9856W        W52794  23.946  22.176  29.689 -0.0036 -0.1130 -0.1655
 9857W        W52795  25.582  24.958  28.093  0.0135 -0.2688 -0.2719
 9858W        W52796  24.559  21.662  30.024 -0.1175  0.1199 -0.0094
 9859W        W52797  22.364  20.971  30.154 -0.0780 -0.0310 -0.0202
 9860W        W52798  24.877  23.414  30.036 -0.0196  0.2741 -0.3099
 9861W        W52799  21.757  22.227  29.858  0.1369  0.1296 -0.1280
 9862W        W52800  21.934  25.003   0.394 -0.2571 -0.0554 -0.0950
 9863W        W52801  23.120  23.728  30.516 -0.0189  0.0152 -0.1472
 9864W        W52802  24.421  21.550  28.192  0.3688  0.0855  0.1856
 9865W        W52803  22.493  21.272  28.407  0.1032 -0.1565  0.0238
 9866W        W52804  23.257  22.558  29.824  0.1226  0.1923  0.2573
 9867W        W52805  25.942  24.342  30.505  0.2093  0.3665 -0.3714
 9868W        W52806  23.492  24.876  28.956  0.0657 -0.1009  0.0170
 9869W        W52807  25.694  23.533  29.456  0.0098 -0.1523 -0.2340
 9870W        W52808  22.585  23.891  30.495 -0.5010 -0.1517  0.3656
 9871W        W52809  23.944  22.919  29.251 -0.0976  0.3052  0.0612
 9872W        W52810  24.175  23.464  29.454  0.1681  0.1426 -0.0344
 9873W        W52811  22.949  23.219  28.452 -0.0173 -0.0250  0.0553
 9874W        W52812  22.185  21.193  29.707  0.1010 -0.1692  0.1920
 9875W        W52813  26.970  23.072  29.577 -0.1488 -0.2438 -0.0479
 9876W        W52814  24.064  21.946  28.447  0.1087 -0.0569  0.3166
 9877W        W52815  24.174  22.039  30.111  0.2237  0.3332 -0.1647
 9878W        W52816  24.692  22.680  28.899 -0.0075  0.1232  0.0862
 9879W        W52817  23.228  21.456  31.269 -0.2301 -0.2576 -0.1964
 9880W        W52818  23.226  21.911  30.085 -0.1757 -0.0109  0.1866
 9881W        W52819  23.283  25.093  30.358 -0.0008 -0.1673  0.0723
 9882W        W52820  25.345  22.958  27.072 -0.3208  0.0979 -0.1063
 9883W        W52821  24.639  22.161  30.972  0.1695  0.0284  0.1295
 9884W        W52822  25.220  23.455  29.306  0.1038  0.1847  0.0811
 9885W        W52823  24.257  22.951  27.991  0.1548 -0.2258  0.0988
 9886W        W52824  23.227  24.046  29.250  0.1959  0.2127  0.0480
 9887W        W52825  23.939  22.461  30.502  0.4038 -0.1656 -0.0503
 9888W        W52826  23.293  22.080  26.816 -0.0098 -0.2767 -0.1546
 9889W        W52827  24.732  22.726  30.472 -0.1412 -0.1713 -0.0696
 9890W        W52828  23.752  25.729  27.968 -0.0827 -0.1054 -0.0808
 9891W        W52829  24.711  24.878  28.819 -0.3678 -0.0762 -0.1883
 9892W        W52830  23.243  23.674  28.405 -0.2312 -0.1162 -0.0490
 9893W        W52831  21.011  21.376  30.332 -0.0408  0.0997  0.0378
 9894W        W52832  23.300  24.334  31.209 -0.1682 -0.0471  0.1722
 9895W        W52833  22.792  22.340  27.232 -0.2516 -0.1532 -0.2746
 9896W        W52834  22.492  23.644  27.850 -0.1314 -0.2725  0.2602
 9897W        W52835  23.387  23.936  29.793 -0.0993 -0.2341 -0.0493
 9898W        W52836  23.702  22.357  30.080 -0.0276  0.0040 -0.0888
 9899W        W52837  22.361  21.989  27.768  0.1361  0.0058  0.1201
 9900W        W52838  25.065  23.352  31.010 -0.0644 -0.0232 -0.0887
 9901W        W52839  21.759  24.332  28.002  0.0525 -0.1065  0.0898
 9902W        W52840  22.432  20.511  28.783 -0.0266 -0.0578  0.2047
 9903W        W52841  22.489  25.347  31.765 -0.0342  0.0664  0.1410
 9904W        W52842  21.829  23.438  30.142 -0.0031 -0.1135 -0.0305
 9905W        W52843  22.554  25.260  28.806  0.0324 -0.3272  0.2148
 9906W        W52844  24.049  21.242  29.299  0.3148 -0.0715  0.1167
 9907W        W52845  23.224  21.661  29.513 -0.1124  0.3487  0.0889
 9908W        W52846  25.404  24.475  29.682  0.1213 -0.0908 -0.2790
 9909W        W52847  25.058  22.847  30.911  0.3186  0.3844 -0.1920
 9910W        W52848  24.760  23.662  30.742  0.3124  0.0401 -0.2362
 9911W        W52849  22.781  24.854  29.008  0.2744 -0.4199  0.2068
 9912W        W52850  23.328  23.725  31.118 -0.2179  0.0186  0.1324
 9913W        W52851  24.372  24.124  29.628  0.1097 -0.1666 -0.2309
 9914W        W52852  24.080  23.315  29.999 -0.0244  0.0952  0.0640
 9915W        W52853  20.962  22.641  31.357 -0.1570  0.2765 -0.0527
 9916W        W52854  23.747  22.173  31.260  0.1676 -0.3219  0.0889
 9917W        W52855  22.786  23.051  29.229  0.2206 -0.0599 -0.2484
 9918W        W52856  21.746  20.341  29.080  0.0346  0.2609 -0.1821
 9919W        W52857  23.190  24.271  27.667 -0.3341 -0.2408  0.1542
 9920W        W52858  21.985  25.364  31.750  0.1761 -0.3490 -0.0452
 9921W        W52859  21.977  21.634  30.377 -0.0421  0.2867  0.1228
 9922W        W52860  21.200  25.376  28.783 -0.0328 -0.1822  0.3959
 9923W        W52861  24.755  23.439  29.476 -0.1193 -0.0113  0.1721
 9924W        W52862  25.217  24.626  29.181 -0.1937  0.1171  0.2948
 9925W        W52863  25.601  25.012  30.867 -0.0075  0.1188 -0.3249
 9926W        W52864  22.310  22.260  27.219 -0.0311  0.2489  0.0722
 9927W        W52865  22.254  25.412  29.968 -0.0188 -0.0014 -0.0907
 9928W        W52866  23.092  25.548  28.025 -0.6907 -0.1073  0.0991
 9929W        W52867  24.052  24.353  29.154 -0.0247 -0.0212  0.0969
 9930W        W52868  22.049  24.987  28.857 -0.2892  0.0702 -0.1591
 9931W        W52869  24.433  24.674  30.511  0.1132 -0.0136  0.0414
 9932W        W52870  24.107  21.390  25.818  0.1680  0.0559  0.0200
 9933W        W52871  24.436  23.410  30.381 -0.3436 -0.1481 -0.1966
 9934W        W52872  26.960  23.563  29.152 -0.1109 -0.0510  0.1883
 9935W        W52873  22.524  24.606  31.542 -0.2568 -0.0200 -0.1412
 9936W        W52874  23.308  22.104  29.109 -0.0164  0.1110 -0.1360
 9937W        W52875  23.027  22.290  28.201  0.1132 -0.1782 -0.0334
 9938W        W52876  23.307  22.588   0.465  0.1481  0.0033  0.0354
 9939W        W52877  24.717  22.109  31.716 -0.0399  0.2705  0.2676
 9940W        W52878  21.409  24.148  29.774 -0.0569 -0.2607  0.1642
 9941W        W52879  24.911  25.319  29.035 -0.2792  0.1302  0.1080
 9942W        W52880  22.421  22.172  28.818 -0.0643 -0.0421  0.1259
 9943W        W52881  23.508  21.666  28.553  0.1020 -0.0007 -0.2541
 9944W        W52882  25.310  21.248  28.991  0.1546  0.0264 -0.1684
 9945W        W52883  23.105  25.199  27.502 -0.0122  0.0925 -0.2233
 9946W        W52884  23.644  23.171  29.671  0.1721  0.0370  0.0162
 9947W        W52885  22.116  24.239  30.350 -0.1785 -0.1532  0.1716
 9948W        W52886  23.066  25.235  30.899 -0.0174  0.0323  0.0765
 9949W        W52887  22.956  25.607  29.630  0.2959 -0.3082  0.1703
 9950W        W52888  22.583  20.695  26.554 -0.3782  0.0611  0.1284
 9951W        W52889  25.893  21.738  28.537  0.0374 -0.2750 -0.1899
 9952W        W52890  23.704  22.640  29.643  0.0586 -0.1299  0.0321
 9953W        W52891  25.102  22.985  29.057  0.1596 -0.0509  0.1864
 9954W        W52892  23.438  23.285  28.068  0.2062  0.0109 -0.1499
 9955W        W52893  25.003  22.870  28.583  0.1373 -0.1742 -0.1848
 9956W        W52894  25.200  22.668  29.444 -0.2114  0.1564  0.0304
 9957W        W52895  22.803  22.261  29.976  0.0132  0.0851  0.1320
 9958W        W52896  24.545  22.961  28.519  0.1261 -0.0653  0.4557
 9959W        W52897  23.910  23.275  30.567  0.3134  0.0145  0.2904
 9960W        W52898  24.390  23.339  27.164 -0.3835 -0.0711  0.2255
 9961W        W52899  23.608  24.616  31.564 -0.0693 -0.1849 -0.1959
 9962W        W52900  23.275  21.026  27.852 -0.0547 -0.0234  0.0965
 9963W        W52901  25.085  22.254  26.884  0.0450 -0.2278 -0.0484
 9964W        W52902  21.803  22.478  28.314 -0.1416 -0.0136 -0.1724
 9965W        W52903  23.407  21.274  30.727  0.0814  0.0146 -0.2511
 9966W        W52904  25.017  23.737  31.235  0.1376 -0.2646  0.0908
 9967W        W52905  22.759  21.817  29.119 -0.0057 -0.0168  0.2429
 9968W        W52906  26.340  25.649  28.999 -0.0100  0.3082 -0.5533
 9969W        W52907  24.901  24.398  29.497 -0.0315  0.3564  0.1277
 9970W        W52908  22.323  26.153  28.922 -0.0293 -0.1584 -0.4221
 9971W        W52909  24.528  22.991  30.112 -0.2296 -0.3380 -0.2865
 9972W        W52910  23.218  25.538  29.197  0.0639 -0.1005  0.0021
 9973W        W52911  22.169  22.017  30.157 -0.2976  0.0218  0.1587
 9974W        W52912  24.735  26.158  29.868 -0.0088 -0.4684  0.2521
 9975W        W52913  24.427  24.061  30.928 -0.4741  0.3303 -0.0428
 9976W        W52914  23.275  22.611  29.306 -0.0541  0.1003  0.0212
 9977W        W52915  21.882  21.960  28.538 -0.0992 -0.2095  0.1399
 9978W        W52916  21.792  25.083  28.232 -0.0413  0.0033  0.1782
 9979W        W52917  24.777  22.382  29.323 -0.4881 -0.0575 -0.0494
 9980W        W52918  25.462  23.550  31.367 -0.1353  0.2977  0.2503
 9981W        W52919  22.559  24.662  27.000 -0.3978  0.0080  0.0771
 9982W        W52920  24.494  22.024  29.236 -0.3903 -0.1719  0.2100
 9983W        W52921  24.684  24.977  29.531  0.1385 -0.0921  0.2012
 9984W        W52922  20.971  22.727   0.021  0.0918 -0.0199 -0.3069
 9985W        W52923  22.708  24.035  28.391  0.0933 -0.1107  0.0263
 9986W        W52924  23.724  21.862  29.985 -0.0281  0.1767 -0.0928
 9987W        W52925  23.552  24.361  29.109  0.1648 -0.0634  0.1813
 9988W        W52926  21.415  24.840  27.920  0.0643  0.1761 -0.2306
 9989W        W52927  24.697  24.357  30.032  0.0588  0.0109  0.1776
 9990W        W52928  21.687  22.946  29.219 -0.1297  0.1744  0.6156
 9991W        W52929  26.158  24.673  29.204  0.1093 -0.0135  0.3774
 9992W        W52930  23.413  22.135  29.645 -0.0467  0.0625  0.3934
 9993W        W52931  25.386  22.968  27.636 -0.0130  0.0824 -0.0579
 9994W        W52932  24.280  20.905  27.941 -0.0144  0.3570 -0.1874
 9995W        W52933  24.950  23.935  30.283  0.1779  0.0201  0.2561
 9996W        W52934  21.516  21.943  27.189 -0.0454 -0.2663  0.1132
 9997W        W52935  22.800  24.525  28.209  0.1498 -0.3321  0.2544
 9998W        W52936  22.895  22.905  30.495 -0.1804  0.0424 -0.0553
 9999W        W52937  24.351  20.487  30.166  0.1005  0.0349 -0.1176
10000W        W52938  24.383  22.300  30.564  0.0161  0.5397  0.1766
10001W        W52939  21.840  22.774  29.701 -0.1428  0.4624 -0.3107
10002W        W52940  20.023  22.327  28.481 -0.0658 -0.0025  0.1536
10003W        W52941  24.291  24.559  28.705 -0.1235 -0.0635 -0.1669
10004W        W52942  21.651  20.720  30.281  0.0209 -0.2192 -0.0834
10005W        W52943  21.452  22.495  31.233  0.3332 -0.1797 -0.0082
10006W        W52944  23.848  23.831  29.175 -0.0293  0.1615 -0.0664
10007W        W52945  25.306  26.033  28.429  0.3791  0.1716  0.3287
10008W        W52946  22.071  22.578  28.821  0.0949 -0.1595  0.0236
10009W        W52947  25.311  25.660   0.126  0.3719  0.2102 -0.1105
10010W        W52948  21.933  25.944  27.637  0.1098  0.4527 -0.1215
10011W        W52949  26.157  21.546  30.753 -0.0060  0.2758  0.1091
10012W        W52950  23.592  21.722  30.931  0.1226 -0.0685  0.1421
10013W        W52951  21.295  20.658  26.970  0.0099  0.1240  0.1354
10014W        W52952  23.519  21.498  30.282  0.1475  0.3381 -0.2064
10015W        W52953  23.080  24.088  28.753  0.0605  0.3090  0.1920
10016W        W52954  23.819  26.053  28.584 -0.3234 -0.1192  0.0550
10017W        W52955  24.058  25.000  30.900 -0.3475 -0.0673  0.2717
10018W        W52956  22.277  24.957   0.022 -0.0888  0.0442 -0.1276
10019W        W52957  20.689  20.400  30.441  0.3966 -0.2564  0.2288
10020W        W52958  24.270  23.617  28.793 -0.2317  0.2107 -0.1375
10021W        W52959  22.799  23.525  30.840  0.1321 -0.1776  0.0077
10022W        W52960  26.709  23.765  29.662  0.1024  0.0032  0.0321
10023W        W52961  24.940  20.203  28.985 -0.1449  0.3164 -0.0741
10024W        W52962  22.665  21.923  28.359 -0.4755 -0.1870  0.3773
10025W        W52963  21.125  21.498  30.862 -0.0614 -0.0111 -0.2899
10026W        W52964  22.692  23.953  31.419 -0.0120  0.1635 -0.1278
10027W        W52965  26.645  23.979  31.335  0.0289  0.3241  0.2639
10028W        W52966  21.578  21.357  29.641  0.3229 -0.2098 -0.1039
10029W        W52967  23.479  22.700  28.300  0.0046 -0.0076  0.2308
10030W        W52968  23.687  24.746  29.461  0.0289 -0.0796  0.0501
10031W        W52969  22.733  22.759  30.000 -0.5082  0.5292 -0.2437
10032W        W52970  22.239  23.056  27.784  0.0058 -0.0396  0.2934
10033W        W52971  23.218  23.047  30.115 -0.0394 -0.0980  0.5115
10034W        W52972  25.406  24.833  30.098  0.2973  0.3036 -0.0560
10035W        W52973  24.145  24.421  31.121 -0.2503  0.2702  0.0963
10036W        W52974  21.964  21.449  26.786  0.1279  0.1771  0.2624
10037W        W52975  25.883  23.933  29.826  0.0149  0.2071 -0.0963
10038W        W52976  22.987  25.934  30.475  0.0389  0.2517 -0.1136
10039W        W52977  25.693  25.768   0.513  0.0144 -0.1061  0.0223
10040W        W52978  23.564  25.082  31.021 -0.0986 -0.0733  0.1986
10041W        W52979  26.336  24.951  28.569 -0.0964 -0.2214 -0.1281
10042W        W52980  20.772  22.623  29.636 -0.1004  0.0634  0.4314
10043W        W52981  23.184  24.113  28.164 -0.0284  0.0214  0.0487
10044W        W52982  22.627  23.565  28.564  0.3353  0.2879 -0.1920
10045W        W52983  24.789  22.744  29.671 -0.3122  0.0778  0.1214
10046W        W52984  23.577  22.032  30.494  0.1385 -0.3608 -0.1522
10047W        W52985  24.417  24.086  28.971 -0.1026 -0.0091  0.0531
10048W        W52986  23.426  23.918   0.880  0.0202  0.0243  0.1638
10049W        W52987  25.397  22.137  29.209  0.0383 -0.0210  0.0538
10050W        W52988  23.330  21.943  31.416 -0.0919 -0.0908 -0.1857
10051W        W52989  23.610  23.681  31.976 -0.0456 -0.0613 -0.0364
10052W        W52990  21.462  22.342  30.750 -0.1932  0.0545  0.2564
10053W        W52991  22.486  24.853   0.447  0.3301 -0.3104  0.1831
10054W        W52992  21.595  24.263   0.046 -0.0578 -0.0352  0.1044
10055W        W52993  24.100  24.516   0.567 -0.0748  0.0226  0.0515
10056W        W52994  24.553  23.217  31.964 -0.0186 -0.1624 -0.0872
10057W        W52995  23.882  22.874  31.876 -0.0823 -0.0613  0.0151
10058W        W52996  23.510  21.406  31.861  0.0826 -0.0544 -0.2123
10059W        W52997  24.778  24.692   1.078  0.0159 -0.0838 -0.0767
10060W        W52998  22.484  23.898  30.982  0.0934  0.0229  0.1167
10061W        W52999  20.600  22.476  30.558  0.0017  0.1488  0.3973
10062W        W53000  23.734  24.236  30.122 -0.0363 -0.2925  0.0000
10063W        W53001  21.861  23.864  31.914  0.2047 -0.2584  0.1066
10064W        W53002  25.138  21.920   0.499 -0.3823 -0.0764 -0.1032
10065W        W53003  22.242  24.678  31.121  0.0244  0.0981  0.3198
10066W        W53004  22.100  24.114   0.314  0.0046  0.1723  0.3327
10067W        W53005  25.195  23.673   0.640  0.2317 -0.0262  0.3110
10068W        W53006  19.943  21.676  30.452 -0.1179  0.2043 -0.1168
10069W        W53007  21.425  22.526  31.739  0.0442  0.1049  0.0558
10070W        W53008  22.647  21.941  30.939  0.0792 -0.0920  0.4955
10071W        W53009  21.634  24.021   0.552  0.0639  0.1117 -0.0782
10072W        W53010  23.611  23.411  30.094  0.2655  0.2683  0.2172
10073W        W53011  22.961  20.721  31.774  0.2264 -0.0046 -0.1260
10074W        W53012  22.813  21.183  31.372 -0.0075  0.2057 -0.0382
10075W        W53013  23.634  19.914  31.786  0.0280  0.0035 -0.1575
10076W        W53014  23.400  22.697   0.011  0.2382 -0.0549  0.0504
10077W        W53015  20.888  26.897  31.781 -0.5143 -0.0925 -0.0109
10078W        W53016  22.101  23.573  31.406  0.0291  0.0363  0.0832
10079W        W53017  23.045  22.106   0.193  0.1754  0.3472  0.1262
10080W        W53018  23.205  23.667  31.627 -0.0863  0.1868 -0.0067
10081W        W53019  21.247  23.268  31.359  0.2011 -0.1703  0.0686
10082W        W53020  25.789  23.809  31.749 -0.1134 -0.1098  0.0816
10083W        W53021  24.583  22.900  31.571 -0.0663  0.1075  0.2291
10084W        W53022  21.093  23.361  30.791 -0.1292  0.0407  0.0089
10085W        W53023  23.074  24.543  31.651  0.3582 -0.0741 -0.1177
10086W        W53024  21.280  23.682  30.380  0.0919  0.5592 -0.0947
10087W        W53025  23.487  24.094  31.618 -0.0173 -0.0805 -0.0074
10088W        W53026  23.593  23.116  31.438 -0.0953  0.2627  0.1409
10089W        W53027  24.948  22.467  31.316  0.3971  0.1721  0.0710
10090W        W53028  25.747  22.588  31.928 -0.0631  0.1714 -0.1236
10091W        W53029  23.097  22.767  30.993  0.1359  0.3072  0.3161
10092W        W53030  24.211  23.137  31.058 -0.3665 -0.0326 -0.2288
10093W        W53031  22.266  25.144   0.830  0.1333  0.3242  0.1069
10094W        W53032  21.615  23.635  31.518  0.2497 -0.0478 -0.2528
10095W        W53033  23.998  22.350  31.690 -0.2324  0.3326  0.1774
10096W        W53034  21.258  21.991  31.061  0.0119  0.0978 -0.1708
10097W        W53035  20.520  24.703  31.838  0.0234  0.4058 -0.1099
10098W        W53036  25.360  24.196   0.589 -0.0095  0.2681  0.1667
10099W        W53037  21.092  22.860  30.877 -0.0414  0.2331 -0.1095
10100W        W53038  22.319  25.696  31.329  0.0633  0.2215 -0.0728
10101W        W53039  25.135  21.481   1.197 -0.2510  0.2876  0.1423
10102W        W53040  21.516  21.516  31.183 -0.2695  0.1328  0.1905
10103W        W53041  22.766  23.443  31.421  0.1587  0.2432  0.1538
10104W        W53042  24.018  23.346   0.127 -0.1310 -0.0537  0.2182
10105W        W53043  23.771  22.770   0.400  0.0926 -0.3295 -0.1193
10106W        W53044  24.095  23.294  31.542  0.4776 -0.0123  0.1834
10107W        W53045  21.510  25.165  31.858 -0.0244  0.0186 -0.0875
10108W        W53046  24.176  24.234   1.757  0.0299 -0.1301  0.1797
10109W        W53047  22.577  23.343   0.355 -0.0029 -0.4149 -0.3721
10110W        W53048  22.271  22.404   0.066 -0.3013 -0.0817 -0.1182
10111W        W53049  22.272  23.449  30.806 -0.2484  0.3926 -0.1199
10112W        W53050  21.896  23.788  30.542 -0.2675  0.1230 -0.1333
10113W        W53051  21.713  21.843  30.813 -0.2396 -0.3677  0.5026
10114W        W53052  25.077  23.836  31.712 -0.2454  0.0782 -0.4160
10115W        W53053  25.269  25.400   1.926 -0.2228  0.2334  0.1221
10116W        W53054  25.586  23.369   0.454  0.0341  0.3189  0.1397
10117W        W53055  22.923  27.396  19.549 -0.1861 -0.0096 -0.2180
10118W        W53056  21.762  26.126  16.988 -0.0674 -0.0635  0.0226
10119W        W53057  25.792  26.663  15.786  0.1073  0.3043 -0.1518
10120W        W53058  25.279  27.859  16.857  0.2079  0.3613  0.3412
10121W        W53059  22.263  26.064  18.666  0.0512  0.0799  0.3265
10122W        W53060  23.879  27.839  17.976 -0.1466 -0.0751 -0.1894
10123W        W53061  23.803  25.788  20.265 -0.4987  0.0836 -0.0197
10124W        W53062  24.564  28.010  19.843 -0.0225 -0.3215 -0.0390
10125W        W53063  24.438  28.445  19.549  0.0847  0.4428 -0.0440
10126W        W53064  24.492  28.066  16.388 -0.3367 -0.1084  0.0356
10127W        W53065  23.591  28.241  17.690  0.1530  0.1315  0.0269
10128W        W53066  22.178  28.531  18.996 -0.0311  0.1722 -0.0251
10129W        W53067  23.575  26.321  17.243  0.1134 -0.0684  0.0368
10130W        W53068  21.630  25.283  20.085  0.2418 -0.2674 -0.0034
10131W        W53069  24.352  27.593  18.519  0.2823  0.1283  0.2542
10132W        W53070  22.538  27.691  17.215 -0.0387 -0.1052  0.1801
10133W        W53071  23.245  25.245  17.706 -0.1472 -0.0935 -0.0155
10134W        W53072  23.376  26.214  17.978  0.1050  0.2901 -0.1552
10135W        W53073  25.081  29.267  16.344  0.2050 -0.0552  0.0538
10136W        W53074  25.031  26.013  19.702 -0.3735 -0.3046  0.1968
10137W        W53075  25.046  25.534  18.812 -0.3197 -0.1684  0.0754
10138W        W53076  23.962  29.170  17.366  0.1725  0.2568 -0.1912
10139W        W53077  21.275  26.903  16.421  0.2994 -0.1416  0.1953
10140W        W53078  22.371  26.801  18.269 -0.2623 -0.1494 -0.0580
10141W        W53079  22.981  27.954  18.481  0.1092  0.3119  0.1109
10142W        W53080  25.626  26.849  17.721  0.1467 -0.4160  0.0666
10143W        W53081  25.088  29.729  19.047  0.2597  0.0300  0.3132
10144W        W53082  24.195  28.734  17.058  0.0352 -0.2755 -0.1495
10145W        W53083  24.087  28.247  17.848 -0.0672 -0.1196  0.0243
10146W        W53084  25.103  26.025  21.053  0.1317  0.1224 -0.0152
10147W        W53085  22.141  29.781  19.688  0.4152  0.3171  0.0489
10148W        W53086  20.445  29.538  18.065  0.3062 -0.1943 -0.0126
10149W        W53087  24.100  27.969  16.617  0.3243  0.0095  0.0345
10150W        W53088  25.741  27.641  16.792  0.0413 -0.1694  0.2841
10151W        W53089  24.097  29.551  18.778 -0.0134  0.1338 -0.0484
10152W        W53090  22.386  28.298  19.668  0.1309 -0.0141  0.3501
10153W        W53091  23.187  28.341  18.719 -0.4650  0.1071 -0.1866
10154W        W53092  23.898  29.387  19.292  0.1738  0.2057 -0.0065
10155W        W53093  23.526  29.073  19.234  0.1540  0.2458  0.1053
10156W        W53094  23.618  28.283  18.180  0.1691 -0.1539  0.2042
10157W        W53095  23.609  29.001  18.279  0.1816 -0.0132  0.1841
10158W        W53096  22.969  27.997  17.011 -0.2913  0.1313 -0.0123
10159W        W53097  24.423  28.174  16.980  0.1708  0.3060  0.0936
10160W        W53098  23.030  27.168  19.974  0.2048 -0.0656  0.2291
10161W        W53099  21.921  28.954  18.830  0.1948 -0.2193  0.2026
10162W        W53100  25.598  26.138  19.262 -0.0020  0.1224  0.0271
10163W        W53101  22.682  28.352  17.205 -0.2741 -0.3280  0.1438
10164W        W53102  23.661  27.924  16.916 -0.0586 -0.1933 -0.0933
10165W        W53103  23.689  28.676  16.582  0.0501 -0.1200 -0.5452
10166W        W53104  24.825  26.083  16.780  0.1387 -0.0272 -0.0870
10167W        W53105  23.954  26.152  16.389  0.1046 -0.1218 -0.2085
10168W        W53106  23.112  29.466  17.705 -0.2313  0.0235 -0.0611
10169W        W53107  24.101  27.550  19.151  0.1051 -0.2433 -0.0680
10170W        W53108  24.720  27.185  18.693  0.4811  0.1194 -0.0643
10171W        W53109  24.597  28.955  16.836  0.2085  0.0282  0.4924
10172W        W53110  25.036  28.929  18.318  0.1667  0.0389  0.3614
10173W        W53111  23.219  29.438  18.584  0.1224  0.3841  0.2466
10174W        W53112  23.278  27.129  18.516 -0.2059 -0.0926 -0.0071
10175W        W53113  24.614  29.846  17.094  0.1159  0.2355  0.1815
10176W        W53114  24.913  29.128  19.056 -0.2949 -0.2025 -0.4672
10177W        W53115  23.407  29.555  19.182  0.0502  0.1447 -0.1600
10178W        W53116  22.202  28.623  17.439  0.1049 -0.1663  0.4047
10179W        W53117  21.641  26.621  20.362  0.0910  0.1287  0.1845
10180W        W53118  21.154  25.840  19.372 -0.3373 -0.2074  0.0116
10181W        W53119  22.705  26.181  15.362 -0.0882  0.1304 -0.3652
10182W        W53120  24.240  28.222  20.305 -0.2920 -0.0448 -0.1850
10183W        W53121  23.365  28.670  18.046  0.0015  0.0807  0.0946
10184W        W53122  26.145  26.532  17.345 -0.0123  0.3633  0.1217
10185W        W53123  21.536  25.257  16.425 -0.0915  0.0088 -0.0974
10186W        W53124  25.074  28.044  19.944  0.2759 -0.0331  0.1244
10187W        W53125  24.602  27.097  16.707  0.0032 -0.3967  0.4323
10188W        W53126  24.414  25.361  18.699  0.0278 -0.0571 -0.0922
10189W        W53127  23.864  26.379  18.179  0.0969  0.3054  0.0959
10190W        W53128  22.723  27.406  16.511  0.1957  0.0228 -0.0920
10191W        W53129  23.862  28.360  16.899  0.0256  0.0517 -0.1294
10192W        W53130  24.523  28.271  19.036 -0.1938  0.2006  0.0988
10193W        W53131  24.672  28.251  17.741  0.2385 -0.1611 -0.0810
10194W        W53132  22.893  28.694  18.971  0.2268  0.2221 -0.0052
10195W        W53133  23.220  27.833  19.674  0.0629  0.0075 -0.0829
10196W        W53134  23.232  28.711  20.074  0.0586  0.0278  0.3174
10197W        W53135  22.383  27.970  16.506  0.1692 -0.1445 -0.2801
10198W        W53136  22.378  25.811  17.785 -0.2333 -0.0983 -0.1095
10199W        W53137  22.871  28.377  16.736 -0.1404 -0.2015 -0.1644
10200W        W53138  21.933  25.800  17.391 -0.1726 -0.2117 -0.2644
10201W        W53139  23.329  27.885  18.847 -0.1645  0.0296  0.1318
10202W        W53140  25.522  26.758  17.221 -0.2804  0.2425 -0.1633
10203W        W53141  23.286  25.650  20.598  0.1724 -0.3433 -0.1236
10204W        W53142  25.861  26.332  17.725 -0.1094  0.2320 -0.1080
10205W        W53143  21.099  27.042  17.965  0.1087 -0.0123 -0.1384
10206W        W53144  24.866  29.619  16.654  0.1587  0.1120 -0.0477
10207W        W53145  25.321  26.031  16.921 -0.2014  0.0470 -0.1632
10208W        W53146  24.766  29.719  18.245 -0.0595 -0.2393 -0.0557
10209W        W53147  22.033  25.801  18.304  0.2636 -0.0735 -0.0570
10210W        W53148  22.134  27.031  17.530 -0.0024 -0.2580 -0.2301
10211W        W53149  22.834  26.713  20.264 -0.2666  0.0871  0.2742
10212W        W53150  22.005  25.202  17.385 -0.2944  0.1982  0.1944
10213W        W53151  24.902  27.225  18.243 -0.0540  0.3410  0.3457
10214W        W53152  21.932  24.436  15.744 -0.0854  0.1593 -0.3276
10215W        W53153  25.686  27.273  18.408 -0.0195 -0.0434  0.1350
10216W        W53154  23.045  27.010  17.719  0.0008 -0.0832 -0.0204
10217W        W53155  22.567  27.266  17.474 -0.2139 -0.0530  0.0971
10218W        W53156  24.728  26.159  20.325 -0.2920  0.1093 -0.1399
10219W        W53157  23.385  29.545  16.174 -0.3895 -0.3019 -0.0625
10220W        W53158  24.925  30.065  18.601 -0.0361 -0.1274 -0.0241
10221W        W53159  24.256  28.712  17.705  0.0603 -0.1324 -0.0243
10222W        W53160  22.629  26.402  18.450 -0.2675  0.2453 -0.2352
10223W        W53161  22.841  25.675  15.294 -0.0842  0.2152  0.0453
10224W        W53162  22.149  27.524  17.553  0.0776 -0.0853 -0.0222
10225W        W53163  22.306  28.065  17.047  0.1848 -0.0248  0.1030
10226W        W53164  23.211  25.992  17.063  0.2832 -0.2155 -0.2957
10227W        W53165  24.636  28.889  18.737 -0.0477  0.0951 -0.1868
10228W        W53166  24.919  28.150  17.318  0.1907  0.3146 -0.1225
10229W        W53167  22.484  28.339  22.149 -0.0532  0.0772 -0.0487
10230W        W53168  24.489  26.725  18.863  0.0904 -0.1460 -0.1737
10231W        W53169  25.145  28.949  20.164 -0.2139  0.0770  0.1755
10232W        W53170  24.164  27.506  17.545 -0.4279 -0.1480  0.0965
10233W        W53171  23.468  26.841  16.532  0.0298 -0.3157  0.2187
10234W        W53172  22.892  29.175  17.310  0.0965 -0.3425 -0.1149
10235W        W53173  22.046  29.887  18.415  0.1520 -0.1162 -0.0436
10236W        W53174  22.609  27.733  18.769 -0.1947 -0.0041 -0.0924
10237W        W53175  23.769  28.703  17.617  0.2386 -0.1257  0.1473
10238W        W53176  25.688  27.280  16.362  0.3025  0.1590 -0.1873
10239W        W53177  23.740  28.102  21.946  0.2021 -0.1743 -0.1416
10240W        W53178  23.795  27.231  19.409 -0.0063  0.2026  0.2816
10241W        W53179  22.740  26.218  15.976  0.0211 -0.0421 -0.1989
10242W        W53180  22.804  27.599  20.021  0.1299  0.0184 -0.2276
10243W        W53181  23.272  25.517  16.118  0.2689  0.0510  0.0548
10244W        W53182  24.831  26.694  16.551  0.0644  0.2914 -0.2112
10245W        W53183  23.453  27.249  20.854  0.1954  0.1498  0.0299
10246W        W53184  25.051  28.401  18.237 -0.0105 -0.0464  0.4625
10247W        W53185  24.564  27.410  16.083  0.0779  0.1000 -0.1505
10248W        W53186  23.080  26.502  16.726  0.1019  0.1072  0.0757
10249W        W53187  22.954  27.424  21.059  0.0896 -0.2044 -0.0407
10250W        W53188  24.870  27.987  16.715  0.2617  0.1482 -0.0798
10251W        W53189  22.611  27.229  18.405 -0.0024  0.0185 -0.0306
10252W        W53190  23.107  26.039  16.315 -0.0462 -0.1491 -0.1828
10253W        W53191  25.221  28.448  16.539 -0.2212 -0.2110  0.0489
10254W        W53192  21.616  26.835  19.417  0.0398  0.1396  0.1443
10255W        W53193  24.155  27.934  18.838  0.0755  0.0013 -0.1426
10256W        W53194  23.668  28.638  18.550  0.1647  0.0571  0.0040
10257W        W53195  23.694  26.745  18.600  0.2667  0.0469  0.2766
10258W        W53196  22.957  27.861  16.459  0.2078  0.0667 -0.1465
10259W        W53197  24.581  26.771  17.205 -0.1022  0.1458  0.0642
10260W        W53198  21.218  28.707  16.322  0.0943 -0.0629  0.0372
10261W        W53199  23.059  26.111  18.373  0.1400 -0.1405  0.3822
10262W        W53200  25.433  27.838  19.140 -0.0499  0.0194 -0.2270
10263W        W53201  23.798  26.197  18.642 -0.0480 -0.0034  0.0021
10264W        W53202  24.424  25.762  19.569 -0.1290 -0.3563 -0.1042
10265W        W53203  24.324  26.600  16.770  0.1598  0.2553 -0.6605
10266W        W53204  24.056  26.654  17.205 -0.2306  0.0152  0.0378
10267W        W53205  22.585  26.952  17.860  0.2796 -0.2110 -0.1411
10268W        W53206  24.458  25.849  18.885  0.0650 -0.1020 -0.2168
10269W        W53207  23.914  26.376  20.840 -0.0985  0.0845 -0.0228
10270W        W53208  23.047  28.256  19.332 -0.0555 -0.0868  0.1288
10271W        W53209  23.977  29.188  19.782 -0.1638  0.1438  0.0962
10272W        W53210  23.612  28.783  17.151 -0.2262 -0.0796 -0.2024
10273W        W53211  24.196  25.392  20.202 -0.1295  0.2068 -0.1635
10274W        W53212  23.477  26.218  16.650  0.0356 -0.0294  0.0871
10275W        W53213  22.567  28.882  18.059  0.0315 -0.1713 -0.0348
10276W        W53214  22.989  28.713  17.158  0.1133 -0.8056  0.2200
10277W        W53215  24.361  27.052  18.273  0.1244 -0.0411  0.0476
10278W        W53216  24.450  29.288  18.437 -0.0162 -0.4915  0.1397
10279W        W53217  22.995  27.486  16.043 -0.0683  0.0609  0.0537
10280W        W53218  24.553  28.063  18.597 -0.1794 -0.0669 -0.0667
10281W        W53219  22.249  29.332  18.771  0.0054  0.2221 -0.2272
10282W        W53220  26.368  27.478  19.626  0.0300 -0.2726 -0.0205
10283W        W53221  21.749  28.436  18.265  0.2561 -0.0613 -0.4137
10284W        W53222  22.591  25.087  17.234  0.1064  0.0700 -0.2729
10285W        W53223  22.195  27.045  16.677 -0.0495 -0.0798 -0.0771
10286W        W53224  24.614  25.655  16.577 -0.1203  0.3726 -0.2714
10287W        W53225  25.542  28.308  16.168  0.0627 -0.1817  0.0711
10288W        W53226  23.654  26.666  19.584  0.2092 -0.0468 -0.0721
10289W        W53227  24.292  25.560  18.126  0.1533 -0.1207  0.0662
10290W        W53228  22.167  30.476  18.283 -0.1131  0.2735  0.2290
10291W        W53229  24.703  27.685  17.455 -0.0105 -0.2353 -0.3597
10292W        W53230  24.905  25.452  16.139 -0.2566 -0.1532  0.1290
10293W        W53231  24.945  30.245  21.490  0.0848  0.0456 -0.1925
10294W        W53232  22.663  27.156  20.323 -0.1114 -0.2306  0.0260
10295W        W53233  22.092  25.679  16.326 -0.4864  0.0268  0.0818
10296W        W53234  24.776  26.725  18.412  0.0792 -0.0042 -0.2339
10297W        W53235  23.431  27.307  18.067 -0.0756  0.2124 -0.1726
10298W        W53236  20.552  27.392  17.450 -0.0286 -0.0582  0.2632
10299W        W53237  23.470  28.605  20.580  0.0961 -0.3335  0.0171
10300W        W53238  23.790  27.148  16.399  0.2276 -0.2368  0.3570
10301W        W53239  22.652  29.359  17.877  0.0330 -0.2154 -0.1019
10302W        W53240  23.881  27.675  19.615  0.1098  0.3778  0.0556
10303W        W53241  25.937  26.134  19.981 -0.3265  0.2474 -0.1767
10304W        W53242  22.958  27.457  17.143  0.0881 -0.2348 -0.0407
10305W        W53243  24.203  26.068  17.901 -0.1299  0.2092 -0.0208
10306W        W53244  23.374  27.822  17.792  0.1140  0.0803  0.1987
10307W        W53245  24.098  28.185  18.358  0.0651 -0.1663  0.0676
10308W        W53246  22.881  25.951  19.804  0.1211  0.2466  0.1353
10309W        W53247  22.731  28.123  20.456  0.2344 -0.0245 -0.0429
10310W        W53248  24.823  25.114  18.559 -0.1360 -0.0161 -0.1658
10311W        W53249  25.011  27.949  18.845  0.1789 -0.0364  0.0930
10312W        W53250  24.513  27.752  20.390 -0.1544 -0.2837 -0.2376
10313W        W53251  23.815  27.196  18.373 -0.3197 -0.0684 -0.4410
10314W        W53252  22.575  27.228  16.933 -0.3520 -0.2278 -0.0387
10315W        W53253  22.919  27.926  17.510 -0.1187  0.1646 -0.0044
10316W        W53254  25.234  27.525  18.656 -0.0682 -0.0229  0.1673
10317W        W53255  22.892  27.976  20.947 -0.0972 -0.2862  0.0662
10318W        W53256  22.668  28.821  17.563  0.1298  0.2197 -0.0230
10319W        W53257  22.203  28.582  17.935  0.1955  0.1303 -0.2862
10320W        W53258  24.555  25.925  15.909  0.1872  0.1905  0.0682
10321W        W53259  24.949  28.189  16.248  0.0411 -0.3832 -0.0126
10322W        W53260  25.609  24.727  17.010  0.4131  0.0132  0.3088
10323W        W53261  25.943  24.923  19.019 -0.3296  0.1639 -0.1452
10324W        W53262  24.820  27.438  16.999 -0.4312 -0.0451  0.2342
10325W        W53263  25.629  26.225  20.847 -0.0384  0.0988  0.0408
10326W        W53264  21.717  25.977  19.347  0.0309  0.1924  0.2594
10327W        W53265  25.063  28.473  16.987 -0.0004 -0.2745 -0.0021
10328W        W53266  22.670  26.767  18.789  0.0644 -0.0907 -0.2506
10329W        W53267  23.383  30.057  20.224  0.1031 -0.0682  0.0107
10330W        W53268  22.869  26.752  19.735  0.1321 -0.3899 -0.2386
10331W        W53269  23.532  25.796  18.679  0.1611 -0.1297 -0.1808
10332W        W53270  23.105  26.141  15.654 -0.1185  0.2115 -0.0241
10333W        W53271  23.230  27.147  20.405  0.2431  0.0772  0.0416
10334W        W53272  24.786  28.708  17.866  0.0400 -0.0904  0.4166
10335W        W53273  24.368  29.812  16.405 -0.0294 -0.1902 -0.1388
10336W        W53274  25.466  26.215  17.390 -0.0287 -0.0371  0.0276
10337W        W53275  22.548  27.719  18.319  0.0672  0.0892  0.0370
10338W        W53276  23.913  27.389  17.159 -0.0500 -0.0388  0.1321
10339W        W53277  23.324  28.286  16.739  0.0523 -0.0667  0.0888
10340W        W53278  21.913  27.048  18.467  0.1330 -0.0310  0.1077
10341W        W53279  23.355  27.764  17.244  0.2585 -0.2117 -0.3032
10342W        W53280  23.863  28.669  19.448 -0.2549 -0.2374 -0.0069
10343W        W53281  24.501  25.885  17.564 -0.2215 -0.0735  0.0946
10344W        W53282  25.766  26.543  18.205 -0.1062 -0.3579 -0.3677
10345W        W53283  24.162  26.641  18.495  0.0154  0.2619  0.2717
10346W        W53284  24.337  27.524  19.598  0.2946 -0.2270  0.0797
10347W        W53285  24.527  26.733  19.953  0.1867  0.0430 -0.0097
10348W        W53286  23.103  29.229  19.020  0.0681  0.5426 -0.2789
10349W        W53287  24.730  26.737  16.051  0.0457  0.1831 -0.0700
10350W        W53288  24.327  27.031  19.563 -0.0405 -0.0185  0.1623
10351W        W53289  25.698  28.441  17.675  0.0519  0.1057  0.1652
10352W        W53290  24.600  29.048  17.348  0.1870 -0.1191  0.1630
10353W        W53291  22.865  26.843  18.290  0.1011 -0.2736  0.2209
10354W        W53292  25.209  27.000  18.647  0.1965  0.2231 -0.0957
10355W        W53293  22.219  26.596  16.216  0.0669  0.2176 -0.1218
10356W        W53294  25.142  26.160  20.598 -0.0535 -0.1903 -0.0848
10357W        W53295  23.696  29.154  16.725  0.1411 -0.2078 -0.0647
10358W        W53296  23.032  29.051  18.207 -0.1042 -0.3759 -0.2778
10359W        W53297  24.011  26.989  16.851 -0.0924  0.0537  0.4138
10360W        W53298  22.442  26.229  16.543  0.3947 -0.1121 -0.1229
10361W        W53299  22.505  29.587  18.315 -0.2792 -0.3387  0.0621
10362W        W53300  23.188  26.527  16.230 -0.0338  0.4451 -0.0877
10363W        W53301  24.058  26.078  17.352  0.0410  0.0836  0.1120
10364W        W53302  24.817  27.692  18.396 -0.0229 -0.0792  0.1209
10365W        W53303  27.042  27.518  21.163  0.2594  0.1165  0.1396
10366W        W53304  23.934  26.647  16.489 -0.0053 -0.3377 -0.3563
10367W        W53305  25.396  26.839  20.030  0.2022 -0.1957  0.1975
10368W        W53306  21.853  27.275  18.019 -0.1656  0.1480 -0.0996
10369W        W53307  25.364  26.438  17.861  0.0672  0.0539 -0.0643
10370W        W53308  20.813  29.944  19.251 -0.2887 -0.1981  0.1431
10371W        W53309  22.981  28.501  20.665  0.2515 -0.1332  0.2616
10372W        W53310  23.424  29.034  17.656 -0.0759 -0.0735  0.0035
10373W        W53311  22.956  26.572  17.875 -0.1589 -0.1357  0.2479
10374W        W53312  26.679  27.483  18.258 -0.2143 -0.0394  0.2612
10375W        W53313  23.822  27.886  17.432  0.3408  0.1197  0.3459
10376W        W53314  24.793  26.793  17.894  0.3148  0.0739  0.1495
10377W        W53315  24.118  27.139  18.727 -0.1387 -0.2143  0.0507
10378W        W53316  22.964  27.554  18.103 -0.1675  0.1019 -0.1795
10379W        W53317  24.927  28.962  19.646 -0.5015  0.1483  0.0589
10380W        W53318  24.063  28.942  18.530 -0.0239 -0.0691  0.0257
10381W        W53319  22.853  28.560  18.383  0.0259 -0.1036 -0.1681
10382W        W53320  22.393  26.893  21.643 -0.0245 -0.1447 -0.0637
10383W        W53321  24.560  26.649  19.385  0.0582 -0.0690 -0.0624
10384W        W53322  24.027  28.361  19.089 -0.1547  0.1943  0.0015
10385W        W53323  22.520  25.335  15.550 -0.1689  0.1893 -0.0568
10386W        W53324  23.493  29.420  18.119  0.3498  0.1429  0.0331
10387W        W53325  21.518  28.794  20.718 -0.2289 -0.1857 -0.1346
10388W        W53326  22.091  26.937  19.596  0.1947 -0.0037 -0.2175
10389W        W53327  21.830  28.286  17.794 -0.2407  0.4536 -0.3522
10390W        W53328  24.997  29.348  18.583 -0.4397  0.1591 -0.2157
10391W        W53329  25.036  28.921  17.204 -0.0751 -0.2988  0.0153
10392W        W53330  24.588  28.531  17.321 -0.1294 -0.1220  0.0147
10393W        W53331  23.670  27.635  16.491 -0.0722  0.0485 -0.0694
10394W        W53332  22.971  29.877  18.591 -0.3814 -0.0876  0.0778
10395W        W53333  21.279  28.375  15.996 -0.3997 -0.0734 -0.0263
10396W        W53334  24.342  30.551  17.441  0.0773  0.1129  0.0384
10397W        W53335  22.199  28.038  18.562 -0.2505 -0.0703 -0.1079
10398W        W53336  24.335  29.208  19.031 -0.0978 -0.2055  0.1722
10399W        W53337  25.490  26.240  15.899  0.0720  0.2395 -0.2261
10400W        W53338  24.468  27.859  18.001 -0.1899 -0.0128  0.0102
10401W        W53339  25.170  25.673  16.621 -0.4966  0.0615 -0.4858
10402W        W53340  24.303  28.687  20.407  0.0633 -0.1235 -0.2322
10403W        W53341  22.553  27.115  19.729 -0.2425 -0.0461  0.1234
10404W        W53342  23.008  27.061  16.723  0.1541  0.1126  0.0741
10405W        W53343  24.066  26.831  19.115 -0.1492  0.0704 -0.2428
10406W        W53344  26.297  26.130  21.139 -0.0090 -0.3810  0.0427
10407W        W53345  20.835  29.032  19.091  0.1739 -0.0822  0.2414
10408W        W53346  25.536  29.799  17.117 -0.0384  0.1538  0.0040
10409W        W53347  23.435  26.667  17.607 -0.0002  0.0473 -0.3745
10410W        W53348  22.624  28.993  18.617  0.0546 -0.0503  0.1216
10411W        W53349  24.806  27.157  19.575  0.0274  0.1833 -0.2073
10412W        W53350  23.283  28.882  16.784  0.0369 -0.1678 -0.0579
10413W        W53351  25.117  26.772  17.518  0.0666  0.2102 -0.1742
10414W        W53352  23.990  28.355  17.352  0.0648 -0.1904 -0.2497
10415W        W53353  22.248  28.551  18.526 -0.1412 -0.1468 -0.0366
10416W        W53354  22.487  28.255  18.224  0.0319 -0.2388  0.1599
10417W        W53355  22.866  26.702  15.772 -0.0682 -0.0886  0.0715
10418W        W53356  25.240  28.136  17.800 -0.1371  0.0148 -0.1901
10419W        W53357  23.666  27.493  18.923 -0.0844 -0.0429 -0.0939
10420W        W53358  23.939  26.837  18.009 -0.1946  0.1203 -0.1708
10421W        W53359  23.206  28.505  17.558 -0.1764 -0.1291  0.0414
10422W        W53360  24.855  26.340  17.667  0.0862 -0.2658  0.1428
10423W        W53361  23.891  28.228  19.657 -0.3350 -0.2351  0.0661
10424W        W53362  22.142  26.730  19.167 -0.3310 -0.0643  0.1060
10425W        W53363  24.362  27.183  17.171 -0.0215 -0.1010  0.1879
10426W        W53364  25.628  29.318  20.268  0.1799 -0.1585  0.1295
10427W        W53365  25.544  27.011  15.508  0.1883  0.4322  0.0130
10428W        W53366  23.979  30.063  18.661 -0.0666  0.0631 -0.1722
10429W        W53367  22.908  24.578  16.118  0.0629 -0.0536  0.0245
10430W        W53368  25.653  26.587  16.283 -0.3685 -0.2217 -0.2408
10431W        W53369  23.350  27.198  17.383 -0.2469  0.1170 -0.1251
10432W        W53370  23.348  27.512  19.301 -0.1340 -0.2791 -0.0183
10433W        W53371  25.122  29.113  17.848  0.0077  0.1817 -0.2817
10434W        W53372  22.029  24.878  15.940 -0.0876  0.1667 -0.0403
10435W        W53373  25.619  27.498  15.867 -0.1329  0.0649 -0.1593
10436W        W53374  25.183  27.670  17.466 -0.0315  0.1416 -0.3508
10437W        W53375  24.346  29.333  17.900 -0.1712  0.1504  0.0344
10438W        W53376  24.561  27.375  17.905 -0.0271 -0.2346 -0.0920
10439W        W53377  24.215  29.630  17.391 -0.0122  0.0901  0.2794
10440W        W53378  22.352  26.048  19.521 -0.0483 -0.0504 -0.0836
10441W        W53379  24.105  28.661  19.858  0.0468  0.0768  0.1867
10442W        W53380  25.861  28.499  18.725  0.0939 -0.3669 -0.0382
10443W        W53381  24.909  25.925  16.238  0.3196  0.0892 -0.4208
10444W        W53382  24.196  27.412  16.661  0.6085 -0.3704  0.1760
10445W        W53383  20.949  27.803  17.454 -0.1194 -0.0270  0.0585
10446W        W53384  24.940  27.730  19.410  0.1101  0.2597 -0.0990
10447W        W53385  25.784  26.920  20.789  0.0013 -0.0319  0.1290
10448W        W53386  22.831  29.590  16.937 -0.0434 -0.0093  0.0104
10449W        W53387  24.924  26.048  18.876  0.1599 -0.0340 -0.5140
10450W        W53388  23.205  28.726  19.441 -0.0209 -0.1166  0.2392
10451W        W53389  21.734  28.197  20.523  0.0082  0.0993 -0.1658
10452W        W53390  23.070  26.832  17.150  0.0013  0.1396  0.0236
10453W        W53391  23.487  26.942  19.045  0.2262 -0.3867  0.0494
10454W        W53392  22.275  27.102  18.862 -0.0943 -0.0988  0.2662
10455W        W53393  24.850  29.367  17.050 -0.0080  0.0954 -0.1251
10456W        W53394  25.314  28.653  17.919  0.1202  0.2910  0.1382
10457W        W53395  24.066  27.375  17.984  0.1199  0.1117  0.2790
10458W        W53396  25.296  28.756  18.808 -0.0378 -0.0888  0.1890
10459W        W53397  24.377  26.427  17.580 -0.2031 -0.2013 -0.3179
10460W        W53398  24.198  25.700  16.282 -0.1370 -0.1979  0.0918
10461W        W53399  23.914  25.028  16.510 -0.2676  0.1331  0.0386
10462W        W53400  23.078  28.081  20.105 -0.3956  0.1982 -0.0580
10463W        W53401  22.770  26.341  17.050  0.2276 -0.0371 -0.0719
10464W        W53402  22.563  27.726  16.139 -0.0849  0.1978 -0.0754
10465W        W53403  22.591  27.762  17.802 -0.2429  0.2151 -0.1689
10466W        W53404  24.541  26.139  19.288  0.1486 -0.2361 -0.3397
10467W        W53405  23.670  28.169  18.654 -0.0072 -0.0641 -0.1226
10468W        W53406  22.148  26.616  18.691 -0.1333  0.0823  0.0639
10469W        W53407  23.198  25.741  17.526 -0.0968  0.3101  0.1375
10470W        W53408  24.119  28.955  16.597 -0.0707  0.2945  0.2168
10471W        W53409  22.389  26.240  17.499  0.2871  0.2660 -0.1982
10472W        W53410  21.721  25.403  18.230  0.3243 -0.2291 -0.4445
10473W        W53411  23.013  28.140  17.992 -0.1373 -0.0603 -0.1216
10474W        W53412  25.510  28.703  18.338  0.0093  0.0493 -0.5340
10475W        W53413  22.794  25.902  16.675  0.0739  0.2961  0.2287
10476W        W53414  25.361  28.964  21.127 -0.1255 -0.1059 -0.0808
10477W        W53415  21.051  27.583  16.211  0.3237 -0.0213 -0.0561
10478W        W53416  24.434  26.694  22.559 -0.2071 -0.0887  0.0897
10479W        W53417  25.065  24.944  19.944  0.0587 -0.0574  0.2727
10480W        W53418  22.005  26.137  15.592 -0.2029  0.0162 -0.4595
10481W        W53419  24.340  27.013  17.686 -0.0101 -0.1476 -0.2009
10482W        W53420  25.197  30.492  18.683  0.0414 -0.1698 -0.1014
10483W        W53421  25.268  29.356  16.831 -0.2934  0.1222  0.1453
10484W        W53422  22.333  27.575  19.578  0.1775  0.2122 -0.1122
10485W        W53423  23.796  28.421  20.188 -0.2041  0.4216  0.2285
10486W        W53424  23.522  26.135  20.039  0.1641 -0.0030 -0.1645
10487W        W53425  25.105  26.443  17.092  0.1076 -0.0996 -0.3663
10488W        W53426  23.608  27.979  19.338 -0.2925 -0.0202  0.0869
10489W        W53427  24.786  27.183  17.461  0.4735 -0.1147 -0.2034
10490W        W53428  27.930  25.802  18.488 -0.0122 -0.2906 -0.0129
10491W        W53429  23.013  27.081  18.941 -0.0153  0.1191 -0.1779
10492W        W53430  23.253  26.067  21.550 -0.2145  0.5339  0.0467
10493W        W53431  22.492  28.470  20.130  0.1497  0.4239 -0.4355
10494W        W53432  25.835  28.999  19.440 -0.3718 -0.0377 -0.0433
10495W        W53433  22.844  25.560  17.864  0.5252  0.2488  0.0941
10496W        W53434  24.074  25.633  17.650 -0.1313  0.0615  0.2258
10497W        W53435  24.700  28.499  16.618 -0.0097  0.0688 -0.0294
10498W        W53436  22.356  27.954  20.041 -0.0759 -0.1398 -0.2459
10499W        W53437  24.297  27.968  17.460  0.0791 -0.0349 -0.0934
10500W        W53438  23.668  27.450  17.668  0.0754  0.0453 -0.0243
10501W        W53439  23.062  27.478  17.628  0.0839 -0.1452 -0.0189
10502W        W53440  23.573  28.025  20.023  0.2056  0.0470 -0.2423
10503W        W53441  23.416  26.953  16.023 -0.3885 -0.1069  0.3667
10504W        W53442  24.376  27.690  17.060 -0.0657  0.0033 -0.1290
10505W        W53443  23.626  26.824  21.961  0.1863  0.1144 -0.2711
10506W        W53444  24.636  29.319  19.931 -0.0329  0.1020  0.2053
10507W        W53445  24.219  27.994  19.415  0.2437 -0.0921  0.1783
10508W        W53446  23.827  27.718  18.496  0.0890  0.1631  0.2514
10509W        W53447  23.336  26.170  18.890 -0.2766 -0.2104 -0.2612
10510W        W53448  23.006  25.465  16.587  0.0157 -0.1261 -0.1025
10511W        W53449  23.587  27.277  16.808 -0.1024  0.0738  0.0507
10512W        W53450  25.086  26.350  18.256  0.1407 -0.1075 -0.3583
10513W        W53451  23.882  27.004  17.549  0.0460 -0.2089  0.1937
10514W        W53452  23.431  25.741  16.692 -0.1920 -0.2345  0.1403
10515W        W53453  22.767  29.695  19.911  0.1557 -0.1821  0.2638
10516W        W53454  24.524  28.407  18.235 -0.0246  0.0328  0.0836
10517W        W53455  22.945  26.631  22.412 -0.0892 -0.1233 -0.1142
10518W        W53456  22.911  27.231  22.231  0.0534 -0.0043  0.0702
10519W        W53457  26.978  26.591  19.539 -0.1197 -0.5328  0.1302
10520W        W53458  26.285  29.686  21.730 -0.1012 -0.0827  0.0316
10521W        W53459  24.178  26.753  22.047  0.2400 -0.0705 -0.4153
10522W        W53460  23.450  30.173  21.824 -0.0309 -0.0805  0.0024
10523W        W53461  20.895  27.220  23.917 -0.2134  0.0062  0.0663
10524W        W53462  22.790  28.320  21.333 -0.3090  0.0819 -0.4658
10525W        W53463  25.834  29.393  21.749 -0.1523  0.1839 -0.0979
10526W        W53464  24.351  26.870  21.014 -0.1192  0.0672 -0.0451
10527W        W53465  24.256  26.108  23.422 -0.1425 -0.0688  0.1361
10528W        W53466  22.396  29.339  23.086 -0.0245 -0.2650 -0.0208
10529W        W53467  22.653  25.937  21.670 -0.0666  0.0423  0.1491
10530W        W53468  21.040  26.326  20.833 -0.0191  0.3676  0.1398
10531W        W53469  24.373  27.892  23.077  0.2020 -0.1089  0.1499
10532W        W53470  23.311  26.665  20.064  0.2127 -0.1153 -0.1621
10533W        W53471  20.736  28.069  23.229  0.0417 -0.3385 -0.1733
10534W        W53472  23.822  26.746  21.485  0.2647 -0.1712  0.6103
10535W        W53473  23.506  28.832  21.815  0.0002 -0.0120 -0.1749
10536W        W53474  23.755  24.757  22.798 -0.2173  0.1651  0.5341
10537W        W53475  23.901  26.110  23.847 -0.1708 -0.0787 -0.0354
10538W        W53476  23.292  28.078  20.558 -0.0494 -0.1558  0.2071
10539W        W53477  22.460  26.789  20.677 -0.2241 -0.0932  0.0971
10540W        W53478  22.578  27.222  23.012 -0.2288 -0.1129 -0.1210
10541W        W53479  22.395  28.496  22.894  0.0094 -0.2867 -0.3272
10542W        W53480  24.086  24.376  23.088 -0.0167 -0.2578  0.3666
10543W        W53481  25.372  27.254  20.344 -0.1350 -0.1567  0.0487
10544W        W53482  21.127  28.240  22.191 -0.0226  0.0111 -0.2033
10545W        W53483  24.358  27.877  22.610  0.2385  0.0701  0.1820
10546W        W53484  24.898  26.762  23.288  0.0603  0.0824  0.0496
10547W        W53485  19.787  28.813  22.437 -0.2241  0.0776 -0.1550
10548W        W53486  22.349  29.671  21.978  0.0257 -0.1970 -0.0200
10549W        W53487  23.370  27.971  21.406 -0.0077 -0.0982 -0.1825
10550W        W53488  25.734  29.126  22.149 -0.0260  0.1064  0.1501
10551W        W53489  24.830  29.819  24.342  0.0309  0.1513  0.1659
10552W        W53490  21.307  29.641  23.311 -0.0345 -0.2657 -0.0222
10553W        W53491  22.583  28.806  20.587 -0.0301 -0.1579 -0.3268
10554W        W53492  23.908  29.901  22.842 -0.2006 -0.0952  0.0198
10555W        W53493  23.838  28.563  23.806 -0.2325 -0.1966 -0.0440
10556W        W53494  24.344  26.632  23.132 -0.0726 -0.2904  0.3929
10557W        W53495  23.725  26.674  23.068 -0.1028  0.3475  0.2614
10558W        W53496  23.395  28.332  19.693 -0.1006 -0.0692 -0.0862
10559W        W53497  22.738  28.521  21.773 -0.0720 -0.0279  0.3254
10560W        W53498  23.533  28.086  23.147 -0.1959  0.0456 -0.0750
10561W        W53499  21.931  28.216  21.429  0.3468  0.2394 -0.3270
10562W        W53500  25.528  27.672  24.187  0.0648 -0.0149 -0.1997
10563W        W53501  21.213  30.082  19.618 -0.1581  0.1073  0.2431
10564W        W53502  26.234  26.528  21.444  0.1754  0.3329 -0.3674
10565W        W53503  24.064  26.230  19.881 -0.1006 -0.0749  0.1992
10566W        W53504  25.392  26.581  20.478 -0.1478 -0.2046  0.1834
10567W        W53505  24.168  25.450  20.684 -0.0300 -0.0904 -0.1122
10568W        W53506  22.005  28.335  21.975 -0.1516  0.1241  0.0899
10569W        W53507  22.885  26.268  22.017 -0.3558  0.0321  0.2911
10570W        W53508  23.615  27.683  22.358  0.0426  0.0102  0.1194
10571W        W53509  23.659  28.702  21.062  0.0891 -0.2438  0.0434
10572W        W53510  25.701  27.335  23.285  0.3364  0.2426 -0.0547
10573W        W53511  21.842  28.794  21.253 -0.3841  0.2849  0.3937
10574W        W53512  21.884  28.457  20.944  0.1253  0.2145 -0.3126
10575W        W53513  24.359  29.206  20.722  0.3623  0.2126 -0.0791
10576W        W53514  25.088  29.069  22.931 -0.1286  0.1721  0.3740
10577W        W53515  24.618  32.035  19.970  0.1599 -0.0836 -0.1428
10578W        W53516  21.897  27.223  21.558  0.2775  0.2199  0.1173
10579W        W53517  22.134  27.057  22.752  0.3623 -0.2024  0.2423
10580W        W53518  21.254  27.282  22.755 -0.0693  0.1535 -0.1895
10581W        W53519  23.493  23.829  19.908  0.1214  0.2242  0.0505
10582W        W53520  25.837  28.027  22.777 -0.3317 -0.2673 -0.0772
10583W        W53521  22.146  29.227  23.532  0.2989 -0.1932  0.0701
10584W        W53522  24.997  26.238  21.887 -0.0518 -0.1216  0.1311
10585W        W53523  22.219  27.547  22.844  0.4794 -0.0097 -0.0267
10586W        W53524  24.636  29.193  22.587 -0.0398  0.0162  0.0277
10587W        W53525  25.712  27.223  21.203  0.4208  0.3425  0.2766
10588W        W53526  24.569  25.661  23.210 -0.2866 -0.0297  0.2573
10589W        W53527  25.967  26.971  21.648 -0.0533 -0.3805 -0.0631
10590W        W53528  22.747  29.385  21.936  0.3548 -0.1455  0.1072
10591W        W53529  24.981  27.124  20.083 -0.0798  0.1413  0.0048
10592W        W53530  24.263  29.950  24.230 -0.0265  0.1877 -0.2680
10593W        W53531  24.589  26.219  19.780 -0.1147 -0.0071  0.3377
10594W        W53532  21.176  28.355  20.524  0.0791 -0.0067  0.1195
10595W        W53533  23.928  26.262  22.342 -0.0416  0.3796 -0.0859
10596W        W53534  23.980  28.219  23.344 -0.0488  0.2619  0.2792
10597W        W53535  21.067  29.446  21.397 -0.2249  0.1035 -0.0516
10598W        W53536  20.114  29.311  22.017  0.2098  0.0434  0.0924
10599W        W53537  20.746  28.170  20.356 -0.0839 -0.1185 -0.1184
10600W        W53538  23.342  26.640  21.529 -0.2601 -0.1542  0.1959
10601W        W53539  22.052  28.420  22.516 -0.3136  0.0366 -0.2764
10602W        W53540  24.978  26.617  19.761 -0.2258  0.0628  0.0669
10603W        W53541  22.700  25.899  23.535 -0.1093 -0.1076  0.0078
10604W        W53542  25.894  25.069  20.000 -0.1609  0.0225 -0.2106
10605W        W53543  22.835  27.737  22.292  0.0399 -0.0034 -0.0299
10606W        W53544  25.741  29.355  21.158  0.3081 -0.0197  0.1842
10607W        W53545  24.787  26.760  21.297  0.0068 -0.0825 -0.0276
10608W        W53546  23.674  29.210  18.762 -0.0198  0.0979 -0.4089
10609W        W53547  21.062  29.020  24.852  0.1588 -0.0174  0.3994
10610W        W53548  23.529  26.803  21.014 -0.0457  0.1608  0.0927
10611W        W53549  23.288  25.547  24.257 -0.1838  0.0003 -0.0960
10612W        W53550  22.622  25.646  23.022 -0.0970 -0.2181 -0.0641
10613W        W53551  23.976  27.570  22.723  0.2950  0.1350  0.1745
10614W        W53552  23.402  27.139  21.433  0.1791  0.3417  0.2704
10615W        W53553  25.302  27.346  23.603  0.1995  0.0579 -0.0095
10616W        W53554  22.788  28.889  20.135 -0.0038 -0.0302 -0.3353
10617W        W53555  22.096  27.883  20.665  0.0670 -0.1682  0.1239
10618W        W53556  25.551  27.641  22.551  0.1015 -0.3675 -0.0745
10619W        W53557  23.566  28.949  19.726 -0.0359  0.1252 -0.2514
10620W        W53558  24.751  29.171  25.016  0.0632 -0.1069  0.1433
10621W        W53559  25.143  27.888  21.938  0.0380 -0.3742 -0.0320
10622W        W53560  23.845  25.651  24.033 -0.1407  0.1329 -0.1520
10623W        W53561  22.188  27.298  20.539 -0.0633  0.0837 -0.1145
10624W        W53562  22.874  29.459  23.112  0.1149 -0.2226  0.1725
10625W        W53563  24.236  27.570  21.785 -0.0342 -0.1855  0.0209
10626W        W53564  24.376  25.028  21.896  0.0751 -0.1015 -0.0106
10627W        W53565  24.350  30.815  22.520  0.0050 -0.0074 -0.0957
10628W        W53566  23.309  27.944  22.134  0.2123  0.0736 -0.1023
10629W        W53567  22.821  28.179  22.738 -0.1081 -0.3916  0.1149
10630W        W53568  23.463  26.039  24.119  0.0878 -0.0931 -0.3680
10631W        W53569  24.433  27.377  22.627 -0.1108  0.1157 -0.3868
10632W        W53570  24.216  25.993  20.669  0.1719  0.3333  0.1454
10633W        W53571  23.009  26.167  20.301 -0.3018 -0.0016  0.0483
10634W        W53572  23.237  28.647  21.356  0.2408 -0.1888  0.1015
10635W        W53573  21.148  28.382  20.037 -0.4076 -0.2759 -0.0581
10636W        W53574  20.688  27.895  22.031  0.1417  0.0340 -0.1026
10637W        W53575  22.031  27.638  22.253 -0.3371 -0.1188 -0.2965
10638W        W53576  25.443  25.606  22.744 -0.2710 -0.2162  0.0816
10639W        W53577  20.740  28.531  25.398  0.0225  0.0298 -0.0211
10640W        W53578  24.381  24.964  23.969 -0.1004 -0.0502  0.0976
10641W        W53579  22.934  27.575  20.593 -0.1338  0.2947  0.2093
10642W        W53580  21.509  28.826  24.052 -0.1020  0.2104  0.0416
10643W        W53581  24.726  23.768  21.555  0.1578 -0.0157  0.1843
10644W        W53582  25.776  25.359  20.545  0.1070 -0.1626  0.1274
10645W        W53583  25.198  27.757  23.414 -0.1367  0.2006  0.3265
10646W        W53584  25.286  27.535  20.757  0.3185  0.0591 -0.2588
10647W        W53585  24.561  25.639  20.943  0.2391  0.0605 -0.2122
10648W        W53586  23.423  25.689  19.876  0.1329 -0.0081  0.1235
10649W        W53587  22.385  28.821  23.658  0.0628  0.0678 -0.0188
10650W        W53588  22.946  26.924  20.732 -0.2511  0.0892  0.0013
10651W        W53589  23.082  29.623  22.702 -0.1117  0.0816 -0.1057
10652W        W53590  23.961  26.903  20.701  0.1967  0.1380  0.2571
10653W        W53591  23.922  28.829  21.505 -0.1372 -0.0599  0.0345
10654W        W53592  20.444  28.391  22.270  0.0443  0.0774 -0.0688
10655W        W53593  24.549  28.720  24.219  0.2812 -0.0632  0.0814
10656W        W53594  23.596  27.488  20.365  0.0163  0.0539  0.2171
10657W        W53595  23.876  26.749  22.446  0.0344  0.3396  0.1034
10658W        W53596  23.180  26.992  19.502 -0.0141  0.2988  0.0260
10659W        W53597  24.579  24.713  22.626 -0.0363  0.0964 -0.0787
10660W        W53598  21.405  29.722  20.213  0.5378 -0.0096  0.2580
10661W        W53599  25.010  25.143  22.707  0.1439  0.2284  0.1884
10662W        W53600  24.470  25.301  22.740 -0.0434  0.2157 -0.4155
10663W        W53601  23.937  25.129  23.637  0.0704 -0.1211  0.1189
10664W        W53602  25.547  28.156  24.478 -0.0780  0.2236 -0.0800
10665W        W53603  24.694  28.327  20.225 -0.2471 -0.1057 -0.2032
10666W        W53604  23.090  28.740  22.212  0.3029  0.4704  0.0518
10667W        W53605  23.429  27.408  19.798 -0.0671 -0.2887  0.1811
10668W        W53606  22.966  25.193  22.855  0.0421  0.0265 -0.1387
10669W        W53607  23.393  27.258  22.007 -0.1554 -0.0157  0.0105
10670W        W53608  21.836  29.212  22.667  0.1801  0.8033 -0.0543
10671W        W53609  24.193  27.819  24.562 -0.0900 -0.1031 -0.1920
10672W        W53610  24.066  27.809  20.051  0.1456 -0.1380  0.0195
10673W        W53611  23.149  26.854  22.878  0.0328  0.5021 -0.3852
10674W        W53612  24.211  26.505  20.442 -0.0849  0.0503  0.2167
10675W        W53613  22.744  29.011  19.599 -0.0682  0.1276 -0.3405
10676W        W53614  23.831  26.391  21.833  0.0261 -0.1856  0.1377
10677W        W53615  25.096  25.359  23.674  0.0004  0.0014  0.0357
10678W        W53616  22.413  27.946  22.560  0.1377  0.0540 -0.0416
10679W        W53617  22.211  28.713  21.698  0.1917  0.0458 -0.0298
10680W        W53618  24.059  27.820  22.165  0.1831 -0.2198 -0.0132
10681W        W53619  21.902  27.779  20.229 -0.1367 -0.2655  0.1187
10682W        W53620  24.713  25.077  22.311 -0.0431  0.0006 -0.2330
10683W        W53621  21.602  28.517  22.179 -0.0351 -0.0679 -0.2894
10684W        W53622  23.812  26.215  21.355  0.2174 -0.0180 -0.2684
10685W        W53623  22.629  27.035  21.127  0.0762 -0.1736 -0.1170
10686W        W53624  24.382  25.471  22.155 -0.0196 -0.1676 -0.1202
10687W        W53625  25.936  29.352  18.096  0.1273 -0.3011 -0.0605
10688W        W53626  22.022  25.448  22.853  0.0401 -0.1121 -0.2279
10689W        W53627  25.021  26.387  23.686 -0.0410  0.2366  0.3620
10690W        W53628  22.472  29.829  23.873 -0.0974  0.3183  0.1538
10691W        W53629  24.710  28.117  22.265  0.1053  0.0926  0.0328
10692W        W53630  25.018  25.646  20.772 -0.0103 -0.1719 -0.1076
10693W        W53631  23.839  26.567  24.060 -0.2034 -0.1275 -0.2634
10694W        W53632  23.438  27.617  23.974  0.1673  0.5640 -0.0153
10695W        W53633  23.394  26.155  20.603 -0.0479  0.1532 -0.0412
10696W        W53634  24.838  27.336  23.311 -0.3236  0.1335 -0.0671
10697W        W53635  23.909  27.190  21.750 -0.1313  0.0624 -0.5318
10698W        W53636  21.027  27.759  20.288 -0.1354 -0.4213 -0.3212
10699W        W53637  23.313  29.100  23.012  0.1969 -0.1405  0.3260
10700W        W53638  22.981  28.261  22.289 -0.3208  0.1902  0.1936
10701W        W53639  22.172  29.178  21.831 -0.0919  0.0419 -0.0790
10702W        W53640  22.373  27.158  23.498 -0.3936  0.1439 -0.1275
10703W        W53641  24.925  28.211  23.333 -0.0606  0.0234  0.1464
10704W        W53642  23.511  25.999  22.026  0.1237  0.1327  0.2966
10705W        W53643  24.745  26.956  22.286  0.0990 -0.0138 -0.4694
10706W        W53644  24.626  27.572  22.189  0.2254 -0.2138  0.0824
10707W        W53645  23.696  28.073  20.980 -0.1499  0.4472 -0.3042
10708W        W53646  24.869  26.732  24.424  0.1488  0.0998  0.4388
10709W        W53647  22.629  29.281  23.522 -0.1013 -0.1213  0.0849
10710W        W53648  24.428  25.404  21.397 -0.3304  0.2132  0.1643
10711W        W53649  24.134  29.156  20.275 -0.1330 -0.1770  0.0625
10712W        W53650  23.929  27.921  21.488  0.0218  0.1934 -0.2936
10713W        W53651  24.022  28.293  22.357 -0.1468 -0.1777  0.1271
10714W        W53652  22.940  27.133  21.552  0.3018 -0.1988 -0.2371
10715W        W53653  24.229  27.955  20.792  0.2348  0.0531  0.0562
10716W        W53654  23.640  26.137  23.410  0.1403  0.0710  0.0049
10717W        W53655  23.027  29.232  22.354  0.2151 -0.0517  0.1742
10718W        W53656  22.011  29.563  21.518 -0.1543 -0.3594  0.5088
10719W        W53657  21.869  28.264  23.060 -0.1257 -0.0071  0.1352
10720W        W53658  23.655  25.711  21.606 -0.1504 -0.0646  0.2144
10721W        W53659  22.840  28.475  19.729  0.0427  0.0104 -0.1402
10722W        W53660  24.727  27.669  21.747 -0.4926 -0.2469  0.3674
10723W        W53661  25.490  25.461  23.285 -0.0460 -0.3232  0.1103
10724W        W53662  24.871  26.626  20.316 -0.0100  0.4129  0.0489
10725W        W53663  22.237  25.754  22.567  0.1804  0.2403 -0.0463
10726W        W53664  22.137  26.280  22.758  0.0564  0.0648  0.0227
10727W        W53665  25.305  28.076  23.008 -0.1636  0.0895  0.2446
10728W        W53666  23.396  26.436  22.186  0.0592 -0.1201 -0.0534
10729W        W53667  24.325  28.348  23.675  0.1094  0.2943 -0.2259
10730W        W53668  23.367  27.097  23.939  0.1687 -0.0410 -0.1941
10731W        W53669  24.373  24.127  21.215 -0.0901 -0.3206  0.0299
10732W        W53670  24.760  24.637  20.251  0.0402 -0.0618  0.0776
10733W        W53671  22.432  27.333  22.370  0.1896  0.2474 -0.0080
10734W        W53672  24.895  27.128  21.795  0.2673  0.2674 -0.2648
10735W        W53673  25.541  28.320  21.122  0.0790 -0.1267 -0.3506
10736W        W53674  25.061  27.822  22.447  0.2555 -0.1865 -0.0465
10737W        W53675  22.359  26.762  23.126  0.0137  0.1390  0.0649
10738W        W53676  24.522  25.834  21.687 -0.0127 -0.1045 -0.0692
10739W        W53677  24.483  27.175  19.109  0.0407 -0.0417  0.1322
10740W        W53678  23.980  27.262  22.245  0.0377 -0.0555 -0.0493
10741W        W53679  22.597  25.438  22.550 -0.0846 -0.2421  0.0106
10742W        W53680  23.889  27.578  20.775  0.1427 -0.0243  0.0620
10743W        W53681  24.053  27.044  22.841  0.2614 -0.1610  0.1485
10744W        W53682  25.879  26.186  21.375 -0.0917 -0.0722  0.0819
10745W        W53683  24.958  27.365  22.583  0.1685 -0.0805  0.0952
10746W        W53684  23.504  26.022  22.893 -0.1852 -0.3273 -0.0783
10747W        W53685  22.114  25.844  24.273  0.0132  0.2944 -0.2149
10748W        W53686  23.605  28.574  23.151 -0.0338  0.3163 -0.0364
10749W        W53687  26.671  27.053  20.451 -0.0459 -0.2975  0.0048
10750W        W53688  25.520  25.997  23.041 -0.1330 -0.2124 -0.2788
10751W        W53689  25.031  27.587  21.231 -0.4711  0.1437 -0.0852
10752W        W53690  23.699  26.624  20.321 -0.0595 -0.1361  0.4534
10753W        W53691  23.228  26.249  23.707  0.1785  0.2415 -0.1675
10754W        W53692  24.220  28.753  22.365 -0.0288 -0.2312 -0.0823
10755W        W53693  25.545  25.705  20.841  0.1734 -0.2753  0.0300
10756W        W53694  25.822  26.554  24.068  0.2951  0.3689  0.3548
10757W        W53695  23.982  29.968  20.262  0.0326 -0.0513 -0.1283
10758W        W53696  23.666  28.359  21.510 -0.1932  0.2157 -0.0738
10759W        W53697  24.644  26.659  21.770 -0.1628 -0.1032  0.3020
10760W        W53698  23.039  25.251  23.835  0.2786  0.0137 -0.2955
10761W        W53699  22.065  29.761  23.139  0.1401 -0.0757 -0.1422
10762W        W53700  24.794  26.219  21.376  0.1812 -0.2049 -0.0725
10763W        W53701  23.857  28.920  20.604 -0.4981 -0.2124 -0.0133
10764W        W53702  23.549  29.039  22.503  0.1006 -0.0003  0.4876
10765W        W53703  24.799  27.377  25.245  0.2890  0.2746 -0.0719
10766W        W53704  24.356  24.692  20.613  0.2084  0.3443 -0.0456
10767W        W53705  24.967  28.534  22.192 -0.1274  0.3041 -0.1007
10768W        W53706  21.747  27.493  20.606 -0.0993  0.2417  0.0330
10769W        W53707  23.342  25.752  21.157 -0.0300  0.0426  0.1929
10770W        W53708  23.061  27.860  23.101  0.2846 -0.0436 -0.1639
10771W        W53709  21.105  28.406  23.217 -0.1078 -0.0000  0.2322
10772W        W53710  21.834  28.652  23.661 -0.3894 -0.1704  0.2073
10773W        W53711  24.163  26.718  24.377 -0.1970  0.2615 -0.0291
10774W        W53712  24.307  26.892  21.507  0.1451 -0.1820 -0.1526
10775W        W53713  23.719  28.039  23.714 -0.0266 -0.0481 -0.0199
10776W        W53714  23.967  28.570  22.828  0.0095  0.0666  0.1203
10777W        W53715  23.162  27.406  22.575  0.2480 -0.0597 -0.2440
10778W        W53716  22.663  26.539  22.827 -0.0717 -0.0427  0.1218
10779W        W53717  23.515  27.684  22.922  0.0550 -0.0565 -0.1840
10780W        W53718  23.782  29.168  22.076 -0.0860  0.2202 -0.0206
10781W        W53719  21.174  28.693  22.832 -0.0114  0.0893  0.1425
10782W        W53720  23.305  26.483  23.267  0.0822 -0.1710 -0.1258
10783W        W53721  24.331  25.910  24.026 -0.2161 -0.1491  0.0818
10784W        W53722  23.817  27.155  21.184 -0.1041 -0.0149  0.1984
10785W        W53723  24.305  26.194  21.127 -0.1794  0.2193 -0.1804
10786W        W53724  24.765  29.187  20.385  0.1321 -0.4262  0.1639
10787W        W53725  22.546  28.035  23.181  0.1042  0.1773  0.2246
10788W        W53726  21.557  28.323  23.428  0.1773  0.1848 -0.0739
10789W        W53727  22.486  29.539  21.328  0.0344  0.0714 -0.2368
10790W        W53728  25.145  28.074  21.428  0.0466  0.1982  0.3748
10791W        W53729  23.624  27.539  21.359 -0.0080 -0.1640  0.0363
10792W        W53730  22.797  30.816  22.325 -0.0331  0.0874  0.0026
10793W        W53731  23.955  27.307  19.900  0.1210  0.2526  0.1346
10794W        W53732  21.882  29.239  20.718 -0.0049  0.0359  0.2383
10795W        W53733  22.172  27.575  18.982  0.0606  0.0406  0.1833
10796W        W53734  24.741  28.966  21.083 -0.0797 -0.3935 -0.0163
10797W        W53735  23.236  29.637  20.586  0.0981 -0.0061  0.1046
10798W        W53736  23.387  28.070  25.597  0.2996 -0.2506 -0.0730
10799W        W53737  25.426  25.622  19.252  0.0996 -0.1328  0.0749
10800W        W53738  24.512  28.558  21.983  0.0862 -0.0802 -0.0285
10801W        W53739  26.516  26.287  20.649 -0.0059 -0.1515 -0.0081
10802W        W53740  22.906  30.110  23.182  0.0933  0.1801  0.0879
10803W        W53741  23.259  26.047  22.461  0.2748  0.1680 -0.1539
10804W        W53742  24.091  25.810  21.355 -0.2878 -0.1929 -0.1045
10805W        W53743  24.643  27.979  23.993 -0.2893 -0.2836 -0.0982
10806W        W53744  25.548  26.333  25.348  0.0097  0.0453  0.1186
10807W        W53745  22.850  28.057  24.337  0.0416 -0.1598 -0.2547
10808W        W53746  24.103  28.318  21.160  0.1208 -0.0934  0.0279
10809W        W53747  23.657  26.144  19.595 -0.0545 -0.1296 -0.1126
10810W        W53748  23.107  26.839  21.877 -0.0354  0.1633 -0.2549
10811W        W53749  25.833  25.131  21.929 -0.2190  0.0881 -0.2850
10812W        W53750  22.735  28.815  21.355 -0.1313  0.1203  0.1703
10813W        W53751  24.324  25.152  23.330  0.1968 -0.1519  0.0054
10814W        W53752  23.237  28.393  21.842 -0.0193 -0.2295  0.0545
10815W        W53753  22.627  28.539  23.382  0.1712  0.0754  0.1440
10816W        W53754  23.575  28.575  22.251  0.0359  0.3570  0.4097
10817W        W53755  21.879  26.728  21.705 -0.0721 -0.1213  0.0904
10818W        W53756  26.184  26.988  21.209  0.1047 -0.3166  0.0565
10819W        W53757  23.941  25.743  22.933  0.0213  0.2770 -0.1852
10820W        W53758  26.207  27.121  23.208  0.1468 -0.0932  0.1888
10821W        W53759  24.670  27.749  23.429 -0.0473 -0.2368  0.0009
10822W        W53760  25.276  26.463  22.375  0.1678 -0.2259 -0.1176
10823W        W53761  23.694  27.601  21.861  0.1799  0.2144  0.0368
10824W        W53762  23.134  25.971  23.237 -0.0631  0.2271 -0.0430
10825W        W53763  24.085  24.665  22.110  0.2272  0.3636  0.0273
10826W        W53764  24.854  28.853  24.626 -0.0666 -0.0761  0.1743
10827W        W53765  24.880  27.420  20.451 -0.0330  0.1727 -0.0277
10828W        W53766  23.439  28.363  22.705  0.0065 -0.1742  0.2200
10829W        W53767  21.665  28.029  22.160 -0.0463  0.1080 -0.1422
10830W        W53768  25.169  25.759  21.868  0.4538 -0.1117 -0.1877
10831W        W53769  23.022  29.123  21.048  0.2008 -0.0048  0.2731
10832W        W53770  21.063  28.184  22.787  0.0844  0.2014 -0.2798
10833W        W53771  24.150  27.339  24.462 -0.0193 -0.2042  0.2621
10834W        W53772  22.470  25.385  22.051 -0.0339 -0.3281  0.0906
10835W        W53773  23.867  28.426  20.719  0.2809 -0.0312  0.0775
10836W        W53774  25.326  26.570  23.160 -0.3694  0.3156 -0.1142
10837W        W53775  22.945  30.136  20.002 -0.1904  0.2086  0.2160
10838W        W53776  23.601  27.040  20.059  0.0918 -0.2128  0.4274
10839W        W53777  24.284  28.943  23.877  0.1299 -0.0849  0.0262
10840W        W53778  22.626  26.952  22.572  0.1517  0.1442 -0.3130
10841W        W53779  23.942  28.097  22.839  0.0823  0.1150 -0.1113
10842W        W53780  25.363  28.335  21.912  0.2617 -0.1764  0.1360
10843W        W53781  23.958  25.211  22.103 -0.1371 -0.0943 -0.1421
10844W        W53782  22.368  28.243  21.652 -0.1007 -0.2068  0.0879
10845W        W53783  21.049  30.085  21.875  0.1529  0.0231  0.0355
10846W        W53784  26.021  26.103  22.111 -0.0934  0.3115 -0.2498
10847W        W53785  24.764  25.295  24.094 -0.0231 -0.1448 -0.1960
10848W        W53786  23.257  28.314  20.991  0.3955  0.0003  0.1062
10849W        W53787  26.027  27.533  24.087  0.1569 -0.1017  0.3119
10850W        W53788  23.780  29.022  22.982  0.1162  0.2296 -0.0405
10851W        W53789  23.454  30.016  22.732  0.0195  0.1104 -0.2712
10852W        W53790  22.485  27.676  20.411 -0.1117  0.0662  0.1650
10853W        W53791  23.584  27.063  22.781  0.3587 -0.0065 -0.1606
10854W        W53792  23.795  27.970  20.505  0.0701 -0.2286  0.0950
10855W        W53793  23.846  29.212  21.049 -0.1719  0.0913 -0.2240
10856W        W53794  22.854  28.932  23.077  0.0562  0.2097  0.1391
10857W        W53795  24.339  27.329  20.827  0.0034  0.3325  0.4610
10858W        W53796  24.226  28.768  20.946 -0.0385  0.0578  0.0785
10859W        W53797  22.812  26.559  21.589  0.0955  0.0321 -0.0884
10860W        W53798  26.132  26.538  21.955 -0.0229  0.1880  0.1660
10861W        W53799  25.956  25.692  21.140 -0.0487 -0.3038  0.0445
10862W        W53800  23.213  27.934  22.620  0.0383 -0.2030 -0.1788
10863W        W53801  20.991  26.097  21.305 -0.1752  0.1634 -0.1998
10864W        W53802  22.607  27.843  21.419  0.2660  0.0686 -0.0498
10865W        W53803  20.399  28.496  21.590 -0.1584  0.2284  0.0223
10866W        W53804  23.796  26.941  24.776  0.2758 -0.1875  0.2072
10867W        W53805  23.355  26.945  22.379  0.0289 -0.0131  0.0372
10868W        W53806  23.534  26.500  22.652 -0.1952  0.0742 -0.0096
10869W        W53807  22.667  27.462  21.826 -0.1712 -0.0001  0.2002
10870W        W53808  24.392  27.712  21.310 -0.2424  0.0711  0.1177
10871W        W53809  22.933  24.455  20.608  0.2996  0.2845 -0.0955
10872W        W53810  21.945  26.296  22.311 -0.1526 -0.1148 -0.1555
10873W        W53811  23.338  27.717  20.925 -0.2555 -0.0692 -0.1541
10874W        W53812  24.320  29.360  22.219  0.0205 -0.1506 -0.1862
10875W        W53813  22.947  25.750  22.153 -0.0024  0.2755 -0.4326
10876W        W53814  24.411  29.445  24.136 -0.0405  0.0946 -0.0372
10877W        W53815  22.132  26.469  20.873  0.3047  0.2190  0.0525
10878W        W53816  24.442  26.483  23.905 -0.1047  0.0628  0.3371
10879W        W53817  22.237  27.840  23.641  0.3840 -0.0110  0.1698
10880W        W53818  22.695  26.375  19.975 -0.1225  0.1376 -0.2129
10881W        W53819  24.761  26.346  22.365  0.2302  0.1045 -0.1005
10882W        W53820  23.780  29.716  21.145  0.0421 -0.1042  0.2757
10883W        W53821  25.208  29.762  21.504 -0.0230 -0.0521  0.1789
10884W        W53822  22.646  28.728  22.530  0.0527  0.2662 -0.0496
10885W        W53823  22.960  29.424  21.445 -0.3019 -0.1409  0.2062
10886W        W53824  22.676  24.585  22.145  0.0536 -0.1680  0.2074
10887W        W53825  25.263  27.030  20.755  0.0785 -0.0248  0.3171
10888W        W53826  23.392  27.693  23.429 -0.3133 -0.1717 -0.1125
10889W        W53827  24.620  28.146  21.187  0.1241 -0.3335  0.0252
10890W        W53828  24.898  25.527  22.420 -0.0083  0.1452  0.1783
10891W        W53829  24.753  27.582  19.988  0.0188 -0.0621  0.2955
10892W        W53830  22.919  24.457  21.604  0.2262  0.0756  0.2029
10893W        W53831  22.803  26.914  23.290  0.3587 -0.0914  0.0373
10894W        W53832  24.838  27.138  20.936 -0.4701 -0.0013  0.2976
10895W        W53833  23.308  26.637  20.585 -0.0579 -0.1697  0.3912
10896W        W53834  24.393  26.124  22.625 -0.3084 -0.3568 -0.4815
10897W        W53835  23.439  29.692  21.534 -0.1529  0.2615 -0.0722
10898W        W53836  22.458  27.544  20.889  0.0189 -0.1671 -0.0407
10899W        W53837  25.361  28.994  19.274  0.1581  0.2199  0.1019
10900W        W53838  23.984  26.321  22.830 -0.3022 -0.1309 -0.0478
10901W        W53839  23.655  29.570  20.191  0.1003  0.1082 -0.1255
10902W        W53840  22.987  25.875  24.039  0.0722  0.0733  0.1564
10903W        W53841  22.900  27.820  19.141  0.0601  0.2282 -0.0040
10904W        W53842  25.847  27.499  21.618  0.2232 -0.1445  0.0345
10905W        W53843  25.477  29.003  23.777  0.0396  0.4130  0.3385
10906W        W53844  25.167  30.275  24.156 -0.2339  0.3273 -0.4196
10907W        W53845  22.360  28.516  21.172 -0.0462  0.3844 -0.1194
10908W        W53846  24.033  28.536  21.906 -0.3920 -0.0788  0.1173
10909W        W53847  22.227  26.339  21.786  0.0810  0.1316 -0.5816
10910W        W53848  24.533  26.940  20.549 -0.1885 -0.2961  0.1729
10911W        W53849  22.041  27.667  21.694  0.3041  0.0924  0.1567
10912W        W53850  25.082  26.237  22.806 -0.0177  0.0502 -0.1854
10913W        W53851  23.575  25.635  22.592  0.0470  0.0300  0.3473
10914W        W53852  24.073  24.592  21.570 -0.1094 -0.0998 -0.2582
10915W        W53853  20.410  28.860  22.124  0.1687  0.3534  0.4157
10916W        W53854  25.289  27.532  22.974  0.2203 -0.1030  0.1392
10917W        W53855  23.080  27.061  26.466  0.1320  0.2347 -0.2753
10918W        W53856  23.566  26.183  24.974 -0.2095 -0.2448  0.0867
10919W        W53857  24.830  26.823  23.881  0.0904  0.3146  0.3410
10920W        W53858  25.186  28.492  25.640 -0.0304 -0.1046  0.0524
10921W        W53859  21.250  25.707  25.676 -0.2410 -0.0200  0.1080
10922W        W53860  24.859  29.663  25.782  0.0095 -0.4953 -0.0756
10923W        W53861  20.574  24.810  26.557 -0.2430  0.1329  0.1724
10924W        W53862  23.855  28.480  25.907 -0.4402  0.0388 -0.3921
10925W        W53863  24.954  29.181  26.812 -0.3231 -0.1104  0.2347
10926W        W53864  24.076  28.694  23.347  0.0349  0.0692 -0.3470
10927W        W53865  23.291  26.387  26.017 -0.0045 -0.0268 -0.4325
10928W        W53866  22.292  28.849  26.277 -0.1986  0.2285  0.0547
10929W        W53867  22.788  25.514  24.275  0.2966  0.1023 -0.2599
10930W        W53868  22.586  26.252  26.912  0.2053  0.1223 -0.0085
10931W        W53869  23.471  26.864  26.692  0.1010  0.0067 -0.0362
10932W        W53870  22.052  27.638  24.835 -0.2090  0.0515  0.4103
10933W        W53871  22.767  25.624  25.587 -0.0798 -0.0383 -0.0230
10934W        W53872  22.567  27.717  24.049 -0.2254  0.0052  0.3406
10935W        W53873  22.662  29.700  25.033 -0.4220 -0.0167  0.2881
10936W        W53874  22.836  27.099  27.733 -0.0858 -0.1426  0.0471
10937W        W53875  24.175  26.379  27.039 -0.2621  0.0542 -0.1921
10938W        W53876  24.020  27.724  24.061 -0.0143 -0.2722 -0.3028
10939W        W53877  22.443  26.726  23.709  0.3496  0.0551 -0.2024
10940W        W53878  22.713  25.893  28.138 -0.3307 -0.0956  0.0499
10941W        W53879  23.153  25.788  27.134  0.1105 -0.0887 -0.0806
10942W        W53880  24.330  27.403  24.956 -0.2160 -0.3574 -0.2044
10943W        W53881  24.228  26.765  25.774 -0.3322 -0.0302 -0.0089
10944W        W53882  22.245  27.746  25.651 -0.0629  0.0447  0.0734
10945W        W53883  24.367  27.722  25.847 -0.3451 -0.0794  0.4569
10946W        W53884  25.337  27.684  28.665 -0.0871  0.1349 -0.1054
10947W        W53885  23.825  28.299  24.742  0.4989  0.2405 -0.3511
10948W        W53886  22.529  28.875  25.849  0.1512  0.0030 -0.1398
10949W        W53887  22.836  28.445  25.969  0.3751  0.5204  0.1123
10950W        W53888  25.029  28.330  24.210 -0.3105  0.0632 -0.1886
10951W        W53889  24.585  29.197  27.545 -0.1173  0.0091 -0.1308
10952W        W53890  22.592  27.332  26.431  0.1953 -0.0652  0.2115
10953W        W53891  21.525  28.854  23.218 -0.2145 -0.2575  0.0289
10954W        W53892  22.886  29.885  27.230 -0.1347  0.2199  0.2269
10955W        W53893  22.158  29.135  26.791  0.0094  0.0624  0.1177
10956W        W53894  24.060  26.221  27.582 -0.0652  0.0412  0.1287
10957W        W53895  23.528  27.744  25.990 -0.1838  0.0655 -0.2255
10958W        W53896  23.418  29.882  23.220 -0.2529 -0.0852  0.1889
10959W        W53897  23.179  26.345  24.752 -0.3250 -0.0479  0.0773
10960W        W53898  22.805  28.358  27.468 -0.0456 -0.2216 -0.4282
10961W        W53899  22.238  27.839  27.048  0.0604 -0.0481  0.1867
10962W        W53900  26.227  26.068  28.649  0.0442  0.0692  0.4226
10963W        W53901  21.405  28.711  25.166  0.0593  0.2615 -0.2356
10964W        W53902  25.521  28.363  24.005 -0.3658 -0.0199  0.1949
10965W        W53903  22.883  24.619  22.906 -0.2239  0.4717  0.3270
10966W        W53904  25.738  29.135  24.469 -0.1015 -0.0499 -0.0565
10967W        W53905  23.660  26.499  24.531 -0.1680 -0.2428 -0.0769
10968W        W53906  22.431  28.397  24.535 -0.2348 -0.0865 -0.3996
10969W        W53907  23.010  25.988  26.275  0.0315 -0.3626  0.0562
10970W        W53908  25.133  29.038  27.788 -0.0026 -0.1563  0.1035
10971W        W53909  23.617  27.695  25.444 -0.0928  0.1294  0.0890
10972W        W53910  23.498  27.240  25.681  0.1882 -0.1942  0.0347
10973W        W53911  23.003  28.336  26.439  0.0314  0.0571  0.1315
10974W        W53912  21.993  26.045  24.904  0.0561 -0.0747  0.0651
10975W        W53913  25.300  29.081  24.673  0.3771  0.2669  0.1212
10976W        W53914  25.723  28.830  26.035 -0.0135 -0.2549  0.0086
10977W        W53915  22.922  28.130  23.476 -0.1232  0.2130  0.1916
10978W        W53916  22.535  27.903  24.696 -0.1700 -0.2760  0.2677
10979W        W53917  22.524  27.418  26.959 -0.0302 -0.0591  0.1197
10980W        W53918  22.672  26.590  28.244  0.0893  0.1356  0.1825
10981W        W53919  23.787  25.317  24.446  0.1448  0.0067 -0.0586
10982W        W53920  24.636  28.671  26.129 -0.1657 -0.0921  0.0956
10983W        W53921  22.227  28.540  27.542  0.0595 -0.0826 -0.2146
10984W        W53922  25.242  26.223  26.199  0.1526 -0.2388  0.0604
10985W        W53923  22.926  28.223  24.813  0.0114  0.0305  0.0699
10986W        W53924  24.563  28.662  25.657 -0.1665  0.2454  0.0208
10987W        W53925  25.866  27.071  24.856 -0.0607  0.0749 -0.1187
10988W        W53926  25.155  26.924  26.519 -0.3902  0.1809  0.0627
10989W        W53927  24.776  26.852  26.830  0.1243  0.2629 -0.0979
10990W        W53928  22.037  28.800  23.236  0.1543 -0.0552  0.0191
10991W        W53929  23.098  26.754  23.685  0.1197  0.1188  0.3225
10992W        W53930  26.505  28.564  25.437 -0.1372  0.1975  0.1891
10993W        W53931  25.657  27.705  23.699  0.2027  0.1889  0.4600
10994W        W53932  22.665  27.198  24.381  0.3724 -0.0169 -0.0922
10995W        W53933  23.000  28.009  28.257 -0.1571  0.2818 -0.1732
10996W        W53934  24.050  28.575  27.162  0.0098  0.4403 -0.1333
10997W        W53935  21.417  29.275  25.116  0.0794  0.2430  0.3664
10998W        W53936  22.115  26.590  25.253 -0.1758 -0.1193 -0.0931
10999W        W53937  21.153  29.198  24.324  0.3702  0.1683  0.2095
11000W        W53938  21.954  26.790  26.839  0.1533  0.0243 -0.1208
11001W        W53939  22.686  27.312  25.301 -0.2068  0.0619 -0.1032
11002W        W53940  24.058  26.218  24.389  0.1699 -0.4564 -0.0607
11003W        W53941  23.165  26.314  28.038 -0.2037 -0.1394 -0.1876
11004W        W53942  24.392  26.597  26.624  0.3183  0.1449 -0.0948
11005W        W53943  23.586  26.725  23.641  0.2013 -0.0639 -0.0280
11006W        W53944  24.767  29.776  26.291 -0.0573 -0.3944 -0.0179
11007W        W53945  25.749  27.210  24.400  0.0027  0.1074 -0.2545
11008W        W53946  22.963  27.706  23.694 -0.0079 -0.1428 -0.2864
11009W        W53947  22.186  27.293  25.882 -0.1167  0.0385 -0.0399
11010W        W53948  22.370  25.189  24.539  0.2798  0.2944  0.0685
11011W        W53949  22.142  25.247  27.947 -0.1464 -0.1427  0.1457
11012W        W53950  22.497  26.309  25.086 -0.1751 -0.2629  0.0896
11013W        W53951  24.723  28.501  28.239  0.1214  0.2159  0.0237
11014W        W53952  22.332  24.071  23.325  0.2990 -0.4118 -0.1853
11015W        W53953  22.773  26.640  24.680  0.1679 -0.0920  0.2001
11016W        W53954  22.977  27.425  26.094  0.2640  0.1516 -0.4396
11017W        W53955  21.291  27.742  25.285 -0.3646 -0.1819  0.1767
11018W        W53956  24.427  26.796  27.315  0.1353 -0.1641 -0.2112
11019W        W53957  23.011  29.049  25.159  0.4170  0.1429 -0.2011
11020W        W53958  24.618  28.286  26.437  0.2715 -0.0490 -0.2284
11021W        W53959  22.511  28.631  25.442 -0.2261  0.2191 -0.0924
11022W        W53960  23.009  25.933  27.745 -0.0523 -0.0009 -0.2312
11023W        W53961  22.800  26.414  23.457 -0.1716 -0.1237  0.0120
11024W        W53962  23.056  29.087  24.268 -0.1324 -0.1226 -0.0204
11025W        W53963  23.267  27.806  26.398  0.0224  0.0775  0.2861
11026W        W53964  24.579  27.568  24.412 -0.2910 -0.0894 -0.1896
11027W        W53965  24.089  29.049  26.380 -0.1374 -0.0742 -0.0972
11028W        W53966  23.348  27.350  24.672  0.0333  0.1538 -0.0229
11029W        W53967  22.242  26.601  25.777  0.1307 -0.0279  0.0315
11030W        W53968  23.995  24.912  27.359 -0.2085 -0.4544 -0.1812
11031W        W53969  24.245  28.624  26.627 -0.2035  0.0902 -0.1966
11032W        W53970  23.783  26.256  25.944 -0.0453  0.2821 -0.2013
11033W        W53971  21.744  25.581  23.905 -0.2807 -0.0626 -0.0014
11034W        W53972  24.453  29.091  25.441 -0.0140 -0.1747 -0.0942
11035W        W53973  22.856  29.625  24.112 -0.5324 -0.2294 -0.0022
11036W        W53974  22.818  25.716  25.131 -0.2040 -0.2793 -0.0242
11037W        W53975  22.834  27.906  26.173  0.0480 -0.2259  0.0555
11038W        W53976  24.743  26.632  25.896  0.0949  0.2624  0.1723
11039W        W53977  21.407  26.297  27.793 -0.1563 -0.1263  0.3187
11040W        W53978  23.213  28.491  27.278  0.0774  0.0514 -0.1007
11041W        W53979  22.445  25.640  23.955 -0.1884  0.2858  0.1722
11042W        W53980  23.350  28.606  25.976  0.0367  0.0425 -0.1334
11043W        W53981  23.907  27.480  25.789 -0.2522  0.1567 -0.0583
11044W        W53982  26.208  26.301  23.798 -0.0258  0.0195  0.0643
11045W        W53983  24.178  27.678  25.395 -0.0639 -0.0895  0.0198
11046W        W53984  24.384  27.215  25.505  0.1112  0.1214  0.1827
11047W        W53985  24.111  25.579  23.469 -0.1462  0.0562 -0.4231
11048W        W53986  26.580  26.425  24.076  0.1801  0.0048 -0.0103
11049W        W53987  21.913  28.192  27.767  0.0724 -0.2634 -0.0227
11050W        W53988  23.331  27.846  24.554 -0.0888 -0.3955 -0.3083
11051W        W53989  22.446  26.957  25.527  0.4513 -0.0090 -0.0203
11052W        W53990  24.106  25.126  24.831 -0.1552 -0.1926  0.2246
11053W        W53991  26.082  30.135  24.630  0.2081 -0.1048  0.1804
11054W        W53992  22.102  27.997  26.545  0.1490 -0.2313  0.2212
11055W        W53993  24.096  29.047  27.366  0.2090  0.1644  0.1972
11056W        W53994  24.439  27.792  26.348  0.1762  0.1256  0.3521
11057W        W53995  22.999  24.797  27.808 -0.1579 -0.2211 -0.3523
11058W        W53996  22.541  26.229  23.838 -0.0029  0.1712  0.1465
11059W        W53997  23.584  25.727  26.667 -0.0171 -0.2523 -0.1700
11060W        W53998  21.407  28.894  24.572  0.1901 -0.0130  0.1855
11061W        W53999  24.849  26.548  27.212  0.1082  0.0064  0.0996
11062W        W54000  25.048  27.372  25.634  0.1783  0.0724 -0.5224
11063W        W54001  22.752  25.619  27.353  0.1592 -0.2630 -0.1224
11064W        W54002  25.400  28.600  27.360 -0.2580 -0.2044  0.0176
11065W        W54003  25.048  27.854  24.420  0.1573  0.1273  0.1378
11066W        W54004  24.430  27.227  26.678  0.0416  0.3026 -0.0632
11067W        W54005  21.893  25.097  23.162  0.1451  0.1497 -0.2686
11068W        W54006  24.215  25.926  28.129 -0.3473  0.1339 -0.1579
11069W        W54007  21.806  26.219  28.958  0.0584 -0.4178  0.0514
11070W        W54008  23.605  28.757  25.496  0.2484  0.2314 -0.0834
11071W        W54009  25.089  28.474  26.325 -0.0483  0.1223 -0.2678
11072W        W54010  23.364  26.579  24.064 -0.2659 -0.2121 -0.1395
11073W        W54011  21.689  24.801  26.587 -0.1288 -0.0211 -0.0780
11074W        W54012  23.159  27.284  23.531 -0.0212 -0.0668 -0.1791
11075W        W54013  21.704  28.969  25.431 -0.0300  0.0698  0.4444
11076W        W54014  23.354  29.088  23.897  0.2583  0.2135 -0.2439
11077W        W54015  24.626  26.017  27.258  0.1795  0.1365 -0.0449
11078W        W54016  23.213  28.059  23.917 -0.1924 -0.1879  0.0388
11079W        W54017  24.452  27.455  23.930 -0.5457 -0.0860  0.1000
11080W        W54018  23.622  27.853  26.805  0.3345 -0.0977 -0.1119
11081W        W54019  22.972  29.788  23.639 -0.0742  0.1411 -0.2297
11082W        W54020  25.330  25.225  27.419 -0.0546 -0.1317  0.2581
11083W        W54021  20.045  29.783  25.473 -0.0090 -0.2297  0.2675
11084W        W54022  23.053  25.457  23.332  0.2117 -0.1003 -0.1364
11085W        W54023  23.078  27.370  23.078 -0.1824 -0.1145  0.4209
11086W        W54024  24.782  27.790  24.848  0.0604  0.1005  0.1487
11087W        W54025  25.346  29.580  24.673  0.2114 -0.0887 -0.0517
11088W        W54026  24.568  26.260  26.219 -0.2459  0.0625 -0.2224
11089W        W54027  22.976  26.106  25.730 -0.2608  0.0618 -0.1227
11090W        W54028  21.565  28.549  25.720 -0.0605 -0.2831  0.0286
11091W        W54029  24.681  27.802  25.507 -0.2349  0.2796  0.0727
11092W        W54030  24.974  26.845  24.993 -0.1145 -0.1127  0.0959
11093W        W54031  23.902  29.290  24.795  0.1839  0.0369 -0.1191
11094W        W54032  22.359  28.033  27.622 -0.1167  0.3503  0.0157
11095W        W54033  23.086  24.956  25.191  0.0209 -0.2282  0.0651
11096W        W54034  25.280  26.708  26.963  0.1813 -0.2257  0.1704
11097W        W54035  22.268  25.460  23.407 -0.1047  0.2464  0.2216
11098W        W54036  22.343  27.791  26.175  0.1033  0.0404  0.4288
11099W        W54037  24.210  29.547  25.101  0.0499  0.2198  0.0036
11100W        W54038  23.078  28.430  23.070  0.1575  0.0895 -0.0167
11101W        W54039  21.587  27.811  23.506  0.3200  0.3447  0.0171
11102W        W54040  23.287  27.681  27.148 -0.1449  0.1560 -0.1736
11103W        W54041  24.435  28.835  27.027  0.1741 -0.0879 -0.2329
11104W        W54042  22.737  25.366  24.786 -0.2721  0.3846 -0.1930
11105W        W54043  22.743  26.586  25.665  0.1298 -0.3072  0.3867
11106W        W54044  23.945  26.002  26.430 -0.0371  0.1141  0.1441
11107W        W54045  25.036  28.752  25.176 -0.1131 -0.1265  0.0842
11108W        W54046  24.009  27.141  27.788  0.0102  0.1359  0.0963
11109W        W54047  23.147  28.035  27.670  0.2466 -0.0450 -0.0185
11110W        W54048  24.975  25.876  26.918 -0.2362  0.0612  0.0493
11111W        W54049  25.916  29.960  24.154 -0.0876 -0.1748 -0.0914
11112W        W54050  23.979  29.028  26.913 -0.2442  0.1520  0.1926
11113W        W54051  23.014  26.897  24.226  0.2553  0.0558 -0.1461
11114W        W54052  22.040  27.063  26.392  0.1377  0.0304 -0.1630
11115W        W54053  23.846  27.443  23.661  0.0694  0.0165  0.1258
11116W        W54054  23.513  25.824  26.176 -0.1510 -0.0153 -0.4682
11117W        W54055  23.388  27.376  26.702  0.0474  0.1327  0.0034
11118W        W54056  24.619  28.259  24.476  0.1692 -0.1667 -0.1253
11119W        W54057  22.836  29.209  27.953  0.0814  0.1161 -0.2630
11120W        W54058  25.832  25.456  25.026 -0.2142  0.1491 -0.0172
11121W        W54059  24.442  27.007  23.481 -0.2337  0.2986  0.2339
11122W        W54060  24.041  25.845  25.746  0.3860 -0.2271 -0.2268
11123W        W54061  24.650  25.852  27.839 -0.1875  0.1142 -0.1547
11124W        W54062  23.772  27.486  24.949 -0.1005  0.0267  0.0385
11125W        W54063  24.535  26.376  27.655  0.0375 -0.0808  0.1239
11126W        W54064  23.428  25.670  27.518 -0.0935 -0.0848  0.3914
11127W        W54065  25.374  27.006  25.539 -0.1892 -0.1778 -0.1596
11128W        W54066  21.990  24.683  25.678 -0.0308 -0.2347  0.1037
11129W        W54067  23.482  28.215  26.263  0.3366 -0.3576 -0.2668
11130W        W54068  21.616  26.837  27.647 -0.2284  0.0129 -0.2213
11131W        W54069  24.005  26.996  25.220  0.1249 -0.0987 -0.0433
11132W        W54070  22.755  24.724  23.839  0.0398 -0.2712  0.3668
11133W        W54071  23.278  28.826  26.430 -0.4692 -0.1399  0.0285
11134W        W54072  24.347  28.283  25.988 -0.0358 -0.0962  0.1245
11135W        W54073  24.277  28.577  24.632  0.1281  0.0693  0.1386
11136W        W54074  25.252  26.577  25.803 -0.0983 -0.4616 -0.0903
11137W        W54075  23.496  26.839  27.267  0.1577  0.0486 -0.2705
11138W        W54076  23.548  25.860  24.567 -0.2595 -0.0862  0.2882
11139W        W54077  23.238  27.482  25.158  0.2267  0.1388 -0.2685
11140W        W54078  22.621  27.617  23.356  0.0371  0.0091  0.0465
11141W        W54079  22.854  25.307  26.233  0.0640 -0.0926 -0.0442
11142W        W54080  25.008  25.953  25.403  0.0601  0.1562  0.1344
11143W        W54081  24.913  26.174  25.822  0.4170 -0.1576 -0.0018
11144W        W54082  23.967  27.514  26.825  0.4605 -0.3443 -0.2050
11145W        W54083  24.166  26.660  27.893  0.2567  0.0851 -0.0710
11146W        W54084  23.379  26.196  27.527 -0.3071 -0.0342 -0.0515
11147W        W54085  21.882  26.669  28.045 -0.0471  0.0743  0.2577
11148W        W54086  23.113  29.898  26.729  0.0248 -0.0895 -0.2178
11149W        W54087  23.729  27.070  24.235 -0.1249 -0.1825 -0.0843
11150W        W54088  26.172  27.188  25.715 -0.0900  0.2151  0.0905
11151W        W54089  25.440  26.793  25.048 -0.4113 -0.0187  0.0717
11152W        W54090  24.168  27.839  23.620  0.1492  0.2360 -0.4538
11153W        W54091  23.500  26.227  26.466  0.0585  0.2294  0.2143
11154W        W54092  23.646  27.523  27.940 -0.0284  0.4483 -0.0444
11155W        W54093  23.347  25.741  23.679 -0.3511  0.0807  0.2703
11156W        W54094  24.009  27.396  28.268 -0.0384  0.1866  0.2516
11157W        W54095  24.584  29.800  23.823 -0.2164  0.0669 -0.2731
11158W        W54096  23.673  28.059  24.243 -0.0486 -0.2047 -0.0823
11159W        W54097  25.203  26.371  24.980  0.0695 -0.0925  0.1405
11160W        W54098  21.951  25.620  25.738  0.0224  0.0743 -0.0635
11161W        W54099  22.181  28.570  26.672 -0.2141  0.2752  0.1931
11162W        W54100  23.130  26.327  22.844  0.2794  0.4407  0.2685
11163W        W54101  23.277  26.891  24.636  0.2168  0.2432 -0.2363
11164W        W54102  24.165  29.087  25.859  0.1388  0.0539 -0.0052
11165W        W54103  24.774  28.774  26.609 -0.2152 -0.1966 -0.2292
11166W        W54104  23.697  25.899  25.389  0.2218  0.0322 -0.0214
11167W        W54105  24.918  26.685  27.693  0.1658 -0.2348  0.1055
11168W        W54106  22.834  28.062  25.655 -0.0141 -0.0416 -0.0397
11169W        W54107  23.875  24.957  26.079  0.1935 -0.1044  0.0901
11170W        W54108  22.053  30.544  27.149  0.0774  0.2140 -0.1487
11171W        W54109  21.438  27.934  27.260  0.2131 -0.1475  0.2059
11172W        W54110  22.588  28.209  25.172  0.2607  0.3435 -0.1295
11173W        W54111  23.874  25.416  26.962  0.0616 -0.3236 -0.0883
11174W        W54112  24.809  26.940  25.526  0.0736  0.0053  0.2940
11175W        W54113  24.681  26.912  26.327 -0.0791 -0.0353  0.2644
11176W        W54114  25.607  27.921  27.328 -0.0645  0.0914 -0.0723
11177W        W54115  24.529  29.298  26.485  0.0045 -0.0749  0.1057
11178W        W54116  22.965  26.414  26.521  0.2011  0.0541 -0.0015
11179W        W54117  22.798  28.894  26.339  0.0153  0.0012 -0.0017
11180W        W54118  25.287  27.478  24.607 -0.5136 -0.1295 -0.0841
11181W        W54119  22.556  28.055  26.670 -0.2676  0.0290  0.3189
11182W        W54120  21.891  26.331  26.441  0.1603  0.2274 -0.1271
11183W        W54121  23.469  27.975  28.024  0.1704  0.2333 -0.4150
11184W        W54122  23.859  27.151  26.561  0.1588 -0.0176  0.2475
11185W        W54123  23.232  25.316  25.515 -0.1854 -0.0974  0.1478
11186W        W54124  23.413  27.023  23.252  0.3682  0.2750 -0.2038
11187W        W54125  22.086  27.208  27.066  0.1893  0.1019 -0.0566
11188W        W54126  22.653  27.450  28.915 -0.3922  0.0226  0.0894
11189W        W54127  23.348  28.385  23.532  0.0895  0.0480 -0.3151
11190W        W54128  23.887  28.077  25.209  0.0851  0.0390 -0.3171
11191W        W54129  23.465  29.083  25.044 -0.2001 -0.1149  0.1040
11192W        W54130  22.902  28.901  24.697  0.0197 -0.4950 -0.0015
11193W        W54131  23.211  28.853  23.495  0.2166 -0.3142 -0.2905
11194W        W54132  22.490  28.807  24.212 -0.0863 -0.1411  0.0449
11195W        W54133  21.600  29.300  24.114  0.0184  0.0438 -0.1078
11196W        W54134  22.998  29.834  24.539 -0.0678  0.2745  0.0451
11197W        W54135  22.899  28.542  24.365  0.0564 -0.0102  0.1045
11198W        W54136  25.214  29.625  26.675  0.0816  0.1043 -0.0265
11199W        W54137  24.405  26.955  24.808  0.2493  0.1990 -0.1607
11200W        W54138  26.438  28.296  24.552  0.1146  0.2936  0.0145
11201W        W54139  26.947  26.716  24.140  0.2626  0.3955 -0.0598
11202W        W54140  24.620  29.687  27.598  0.2342 -0.0510 -0.0652
11203W        W54141  23.537  27.099  25.231  0.2605  0.0356  0.0196
11204W        W54142  23.881  25.683  24.932 -0.0890 -0.1267 -0.0828
11205W        W54143  22.935  27.651  26.770 -0.1777 -0.0683  0.2670
11206W        W54144  26.375  25.584  27.791 -0.0761  0.1254  0.0380
11207W        W54145  22.240  29.528  27.771  0.0685 -0.0176  0.0702
11208W        W54146  24.035  29.835  23.759  0.2326  0.0801 -0.1524
11209W        W54147  21.852  27.308  23.462  0.4533  0.0542 -0.1113
11210W        W54148  22.516  26.661  24.247 -0.2104 -0.3228 -0.0694
11211W        W54149  25.738  26.135  26.293 -0.0769  0.2261 -0.0452
11212W        W54150  22.762  27.581  22.752 -0.0971  0.1921 -0.0876
11213W        W54151  22.893  27.147  24.886 -0.2901 -0.0458 -0.1940
11214W        W54152  22.967  30.564  24.097  0.0259 -0.0769 -0.3616
11215W        W54153  22.614  29.847  26.535  0.0177  0.3301 -0.2316
11216W        W54154  22.137  29.685  26.815  0.0739 -0.1235 -0.2063
11217W        W54155  21.807  24.934  25.208 -0.0136  0.1038  0.0361
11218W        W54156  26.064  27.485  25.215 -0.2602  0.0819  0.0798
11219W        W54157  22.966  26.698  27.365  0.1404 -0.2738  0.1358
11220W        W54158  25.532  26.062  27.552 -0.0459  0.1175 -0.0059
11221W        W54159  22.716  24.887  24.300 -0.1476  0.0620 -0.1873
11222W        W54160  25.261  27.268  25.065  0.0118 -0.0779 -0.2162
11223W        W54161  24.394  27.610  27.068 -0.0146  0.0520  0.0967
11224W        W54162  23.684  26.424  27.036  0.1430 -0.2900 -0.0334
11225W        W54163  24.055  26.547  23.567 -0.2942  0.0753  0.1028
11226W        W54164  24.805  27.788  27.866 -0.1842  0.2063  0.1515
11227W        W54165  23.600  25.110  24.004 -0.0767 -0.0468 -0.2651
11228W        W54166  23.024  29.000  26.861 -0.0645  0.0530 -0.1157
11229W        W54167  24.182  26.882  26.304  0.2612  0.0002 -0.1283
11230W        W54168  24.576  26.225  25.256  0.0310  0.0589 -0.1942
11231W        W54169  22.510  26.892  25.013 -0.0958 -0.0342 -0.1454
11232W        W54170  24.083  26.883  26.893  0.2460 -0.1292 -0.1191
11233W        W54171  23.229  29.612  27.443  0.1034 -0.1296 -0.1208
11234W        W54172  23.422  24.094  25.268  0.0533  0.0745  0.0370
11235W        W54173  25.224  27.957  23.886  0.3421  0.0464 -0.0896
11236W        W54174  25.178  27.720  25.280 -0.3230 -0.1234 -0.1619
11237W        W54175  23.717  29.740  24.730 -0.1456 -0.1493 -0.1510
11238W        W54176  27.053  28.488  25.489  0.0893 -0.0603  0.0780
11239W        W54177  24.929  29.126  25.559 -0.0255  0.1836 -0.2561
11240W        W54178  21.514  25.408  24.999  0.2417 -0.1388 -0.4011
11241W        W54179  23.828  29.670  26.375  0.1138 -0.0599  0.0503
11242W        W54180  27.262  29.568  25.271  0.2184 -0.0985 -0.2582
11243W        W54181  24.407  25.539  24.903  0.0915 -0.1138 -0.1395
11244W        W54182  22.368  27.514  27.415 -0.3689  0.0591  0.0262
11245W        W54183  21.812  29.999  25.167 -0.0455 -0.2001 -0.3222
11246W        W54184  24.792  27.214  28.250 -0.1172  0.1279  0.1716
11247W        W54185  24.795  27.425  26.356 -0.0302 -0.2601 -0.2540
11248W        W54186  23.984  29.364  23.795 -0.0102  0.0376 -0.1989
11249W        W54187  25.337  26.237  27.083  0.2871 -0.0181  0.0330
11250W        W54188  23.361  28.486  26.788  0.3220  0.3481  0.2460
11251W        W54189  23.784  28.817  28.420  0.2847 -0.0344 -0.1707
11252W        W54190  22.033  27.779  23.223  0.0319 -0.0599 -0.2968
11253W        W54191  22.144  27.515  26.635 -0.0312 -0.0783  0.0503
11254W        W54192  21.353  27.687  24.799  0.1094  0.1421 -0.0756
11255W        W54193  23.537  29.670  23.797  0.2280  0.2608 -0.0168
11256W        W54194  25.740  29.205  25.613 -0.0447 -0.1936 -0.1841
11257W        W54195  22.953  26.310  24.306 -0.2650 -0.0787 -0.1130
11258W        W54196  23.844  28.785  24.861 -0.2249  0.1423  0.0103
11259W        W54197  23.112  26.978  25.466  0.3534  0.1425 -0.2992
11260W        W54198  24.153  27.341  26.184 -0.0260 -0.0433  0.0896
11261W        W54199  23.704  26.764  25.579 -0.1248 -0.0609 -0.0319
11262W        W54200  23.193  26.761  27.943  0.0170 -0.0804  0.2355
11263W        W54201  22.927  26.631  25.160 -0.0511  0.0800 -0.0174
11264W        W54202  24.272  27.394  23.153  0.1730  0.2599 -0.1317
11265W        W54203  23.125  26.854  25.989  0.0173 -0.1551  0.0346
11266W        W54204  22.761  26.461  27.771  0.1310  0.4637  0.0251
11267W        W54205  23.670  25.924  27.169 -0.1050  0.0162 -0.2226
11268W        W54206  23.563  26.771  26.173  0.0432  0.0981 -0.1280
11269W        W54207  21.187  25.665  23.307  0.0918  0.2230 -0.1693
11270W        W54208  23.809  28.616  24.376 -0.0989  0.1335  0.0040
11271W        W54209  24.013  26.351  25.360 -0.1117  0.0310 -0.3732
11272W        W54210  21.501  24.877  25.954 -0.2627  0.1934 -0.0979
11273W        W54211  24.156  29.022  24.409 -0.1174  0.0227  0.0280
11274W        W54212  24.444  28.166  24.972  0.2014 -0.1567  0.1168
11275W        W54213  24.492  27.007  24.194 -0.2617  0.3811 -0.2573
11276W        W54214  24.441  28.257  28.563  0.2104 -0.1801 -0.2352
11277W        W54215  22.205  28.265  23.432 -0.1937 -0.0095  0.2200
11278W        W54216  23.938  26.735  27.407 -0.1025  0.0101  0.0498
11279W        W54217  21.449  26.007  27.375 -0.1947  0.4700  0.1891
11280W        W54218  21.393  24.194  23.251 -0.2850 -0.2879  0.1229
11281W        W54219  23.306  26.470  25.514 -0.3756  0.0079 -0.2472
11282W        W54220  23.347  28.524  25.049 -0.0112 -0.2783 -0.2392
11283W        W54221  24.323  29.001  24.891 -0.0431 -0.1947 -0.1100
11284W        W54222  23.867  27.723  26.342  0.0489  0.2930 -0.0654
11285W        W54223  22.401  29.778  27.306 -0.0155 -0.0569 -0.0839
11286W        W54224  20.998  24.738  25.314  0.1540 -0.3490 -0.4797
11287W        W54225  23.008  27.933  25.229 -0.0189 -0.1001  0.0066
11288W        W54226  24.058  28.191  26.366  0.1773  0.3327  0.0900
11289W        W54227  25.544  27.122  26.268 -0.0355  0.2962  0.1015
11290W        W54228  25.370  25.962  26.637  0.2363  0.0027  0.3590
11291W        W54229  25.289  26.982  24.604 -0.0615 -0.2701 -0.0134
11292W        W54230  20.919  25.783  27.590  0.3551  0.2182  0.1427
11293W        W54231  20.984  28.022  27.860  0.0806  0.3294 -0.0275
11294W        W54232  25.109  28.003  26.261 -0.0454 -0.1045  0.2055
11295W        W54233  23.916  26.589  26.517 -0.3235 -0.1349 -0.1610
11296W        W54234  25.590  26.512  24.510  0.0748  0.2828  0.0665
11297W        W54235  23.392  28.547  24.021  0.2719  0.0786  0.0428
11298W        W54236  22.190  26.996  24.506  0.0630 -0.0794  0.3928
11299W        W54237  23.336  25.742  25.050 -0.1260  0.4469  0.0305
11300W        W54238  25.007  26.424  26.611 -0.1822 -0.0681  0.1447
11301W        W54239  24.310  28.131  25.482  0.5171  0.0955 -0.0947
11302W        W54240  23.977  28.372  28.075 -0.1477 -0.1008  0.1056
11303W        W54241  22.451  26.201  24.411  0.0590 -0.3173  0.1889
11304W        W54242  25.545  28.789  25.370  0.1430 -0.1130  0.0388
11305W        W54243  24.314  29.630  25.625 -0.3791 -0.1434  0.0185
11306W        W54244  23.955  30.944  28.353  0.0200 -0.1218 -0.0327
11307W        W54245  24.509  29.968  25.187  0.2745 -0.2005  0.0375
11308W        W54246  25.252  28.834  25.958 -0.0428 -0.0918 -0.0126
11309W        W54247  22.496  26.082  25.689  0.1220 -0.1629 -0.1834
11310W        W54248  22.476  27.378  24.849  0.1893  0.0295 -0.0347
11311W        W54249  22.937  27.654  24.830 -0.1023 -0.1357 -0.1940
11312W        W54250  24.922  27.347  26.924  0.1050  0.1271  0.3698
11313W        W54251  21.644  26.297  25.288 -0.3062  0.0929 -0.0189
11314W        W54252  24.250  26.092  24.853 -0.0606  0.0027 -0.0391
11315W        W54253  23.330  28.355  24.509 -0.0173  0.2370  0.2730
11316W        W54254  23.567  27.288  26.212  0.5108 -0.3946  0.0384
11317W        W54255  22.350  27.534  30.159 -0.2900  0.0518 -0.1319
11318W        W54256  22.442  26.627  28.720 -0.3057 -0.1565 -0.3918
11319W        W54257  25.062  26.245  27.949  0.1073 -0.1870  0.3043
11320W        W54258  24.037  27.064  28.675  0.0377 -0.2401  0.3949
11321W        W54259  21.756  23.934  28.417  0.0843  0.1308  0.1693
11322W        W54260  24.273  30.650  28.658 -0.0999  0.0019 -0.0313
11323W        W54261  22.786  25.572  31.159 -0.1661 -0.0984  0.1731
11324W        W54262  23.898  27.165  29.586  0.2780  0.3009  0.0008
11325W        W54263  24.887  28.136  30.746 -0.2911 -0.0222 -0.1322
11326W        W54264  23.965  27.950  25.869  0.3497 -0.0478  0.1681
11327W        W54265  23.107  26.022  29.312 -0.2571 -0.0344  0.1385
11328W        W54266  24.305  27.348  29.935 -0.0829  0.1252  0.4210
11329W        W54267  23.466  24.565  27.981 -0.1181 -0.1622 -0.3453
11330W        W54268  22.864  24.195  29.542  0.0964 -0.0232 -0.1118
11331W        W54269  24.614  26.348  29.329  0.1323  0.0482 -0.2206
11332W        W54270  23.429  28.302  28.413  0.0637 -0.1766 -0.3277
11333W        W54271  23.589  25.913  29.281  0.0530 -0.2102 -0.1971
11334W        W54272  22.328  26.227  28.404 -0.0506 -0.2909 -0.0331
11335W        W54273  22.824  29.335  29.898  0.1794 -0.2173  0.1233
11336W        W54274  22.787  24.398  31.142  0.0447 -0.0859 -0.6576
11337W        W54275  23.301  25.509  31.188 -0.0533  0.1722  0.0760
11338W        W54276  23.820  30.130  27.271  0.1346  0.2372  0.4037
11339W        W54277  23.235  25.903  28.295 -0.0377 -0.0134  0.1083
11340W        W54278  21.910  27.038  29.716  0.0530 -0.0031  0.2629
11341W        W54279  23.735  26.404  29.446  0.0373 -0.0437  0.0735
11342W        W54280  24.546  25.569  31.882 -0.1443 -0.3299  0.4289
11343W        W54281  23.848  25.871  30.519  0.4095  0.1996  0.0237
11344W        W54282  23.212  27.004  29.112  0.2500 -0.0110 -0.0137
11345W        W54283  21.880  28.179  29.705  0.1764 -0.3509  0.0651
11346W        W54284  24.945  25.281   0.038 -0.3180  0.1395  0.0503
11347W        W54285  23.043  29.381  28.448  0.1846 -0.1501 -0.3007
11348W        W54286  21.426  30.049  29.676  0.0272  0.0051 -0.1898
11349W        W54287  24.378  29.531  29.476  0.1209 -0.1516 -0.1299
11350W        W54288  24.433  28.699  27.541 -0.4220  0.1192  0.1044
11351W        W54289  25.177  28.399  30.437 -0.0639  0.1873  0.0555
11352W        W54290  23.556  28.404  29.878 -0.2079 -0.4105 -0.3372
11353W        W54291  22.703  27.855  27.241  0.1417  0.1472 -0.2085
11354W        W54292  24.145  27.723  31.371  0.0284 -0.0374  0.3091
11355W        W54293  23.836  28.196  30.876  0.0932  0.0404 -0.3678
11356W        W54294  23.855  25.493  30.897 -0.2806 -0.0230  0.2949
11357W        W54295  24.645  26.642  31.100  0.0403  0.2500  0.1203
11358W        W54296  22.833  29.107  29.321 -0.2846  0.1584  0.1654
11359W        W54297  24.214  26.354  29.616  0.1305 -0.2082  0.1443
11360W        W54298  23.417  26.583  30.750 -0.2888 -0.0580 -0.0864
11361W        W54299  22.692  28.687  29.502  0.2991 -0.0020 -0.0883
11362W        W54300  25.320  25.133  30.494 -0.3380  0.0889 -0.0168
11363W        W54301  23.340  29.851  28.246  0.2156 -0.1423  0.1813
11364W        W54302  23.583  28.251  27.677  0.0560 -0.2523  0.0044
11365W        W54303  22.974  27.064  28.254 -0.0422  0.3911 -0.0563
11366W        W54304  23.539  27.127  28.247 -0.0705  0.2565 -0.1120
11367W        W54305  24.419  24.867  29.955  0.0674 -0.0967  0.2372
11368W        W54306  22.221  28.645  29.218 -0.1373  0.4324 -0.1224
11369W        W54307  23.246  26.019  29.769 -0.3464 -0.1268 -0.3199
11370W        W54308  25.715  27.636  30.227 -0.4064 -0.0582 -0.2090
11371W        W54309  24.818  27.609  28.458 -0.1875 -0.0212  0.0678
11372W        W54310  24.512  26.476  30.209 -0.0333  0.3017 -0.1458
11373W        W54311  22.842  27.199  30.208  0.2063 -0.0262 -0.0709
11374W        W54312  20.468  25.863  28.701  0.2519  0.3645  0.1532
11375W        W54313  25.078  29.568  27.796  0.1745  0.0698  0.2940
11376W        W54314  25.297  26.629  30.330 -0.0869  0.2091  0.1227
11377W        W54315  23.521  29.182  27.405 -0.1375 -0.1857 -0.5642
11378W        W54316  22.712  26.930  29.086 -0.1027  0.0217  0.1038
11379W        W54317  21.849  24.929  31.009 -0.2050  0.1820 -0.0056
11380W        W54318  21.836  25.561  30.169  0.0842  0.0459 -0.4236
11381W        W54319  20.784  25.422  28.482 -0.0402 -0.3052  0.2074
11382W        W54320  24.293  28.178  30.760 -0.1187  0.0776 -0.0926
11383W        W54321  20.934  28.474  30.212 -0.0820 -0.2021 -0.0118
11384W        W54322  24.930  25.287  29.903 -0.0840 -0.2412 -0.3124
11385W        W54323  23.660  27.156  29.146  0.1470 -0.2481 -0.1600
11386W        W54324  24.721  28.165  29.904  0.0885 -0.0553  0.1677
11387W        W54325  23.581  28.193  27.194  0.1934  0.1365 -0.2564
11388W        W54326  25.178  24.429  30.203 -0.0716 -0.0449  0.0663
11389W        W54327  23.050  25.493  30.206 -0.0984  0.2033 -0.0420
11390W        W54328  21.852  26.420  28.458  0.4039 -0.0690 -0.1061
11391W        W54329  23.319  27.715  28.471  0.0451 -0.0709 -0.1594
11392W        W54330  25.992  27.655  29.809  0.0501  0.0250  0.3905
11393W        W54331  24.423  27.849  28.285  0.1278  0.0878 -0.2046
11394W        W54332  23.011  26.894  30.568 -0.2014  0.6593 -0.0723
11395W        W54333  22.704  26.713  30.200 -0.0610  0.2513 -0.1887
11396W        W54334  23.929  27.837   0.329 -0.0781 -0.1870  0.0655
11397W        W54335  21.351  29.341  27.964  0.2184 -0.2291  0.0072
11398W        W54336  22.142  27.309  28.821 -0.0607 -0.0928  0.0320
11399W        W54337  21.946  27.825  27.426 -0.0469  0.5157  0.0038
11400W        W54338  22.017  25.202  29.561 -0.1665  0.1074 -0.0005
11401W        W54339  22.822  28.378  31.042  0.1917 -0.0198 -0.3651
11402W        W54340  24.356  25.890  29.502 -0.2873 -0.0434  0.3795
11403W        W54341  21.223  25.209  30.190  0.1117  0.0365 -0.2932
11404W        W54342  25.550  25.893  29.907  0.1253  0.0345  0.1514
11405W        W54343  23.557  28.748  27.952 -0.0623 -0.1312  0.2448
11406W        W54344  24.260  28.697  28.516  0.0293 -0.3216  0.0028
11407W        W54345  23.754  26.296  28.023 -0.1175 -0.0665  0.0245
11408W        W54346  24.800  30.056  27.290 -0.2403  0.0239 -0.2020
11409W        W54347  21.789  27.973  31.956  0.1759 -0.0036  0.0290
11410W        W54348  22.128  25.797  29.265  0.2326 -0.0817  0.1939
11411W        W54349  24.446  26.583  31.554  0.1282  0.0231  0.2296
11412W        W54350  22.257  25.171  30.894 -0.0247 -0.1520 -0.2898
11413W        W54351  24.310  26.214  31.144 -0.4217 -0.0567  0.0134
11414W        W54352  22.445  25.447  29.503  0.0633 -0.2956 -0.0083
11415W        W54353  24.332  25.405  29.835 -0.1975  0.2295  0.0294
11416W        W54354  23.373  27.927  29.934 -0.0771  0.1899 -0.0518
11417W        W54355  20.830  26.798  28.969  0.2658 -0.1415 -0.0740
11418W        W54356  23.442  23.363  30.786  0.2098  0.1228  0.2642
11419W        W54357  23.933  29.221  29.341  0.0880  0.3744  0.2843
11420W        W54358  24.629  30.330  28.853 -0.0009 -0.1862 -0.0418
11421W        W54359  23.198  28.865  29.655 -0.2576 -0.1423 -0.0024
11422W        W54360  23.293  26.511  29.236  0.0083 -0.0904  0.2345
11423W        W54361  23.376  26.608  28.365  0.3332 -0.1555  0.0065
11424W        W54362  22.366  27.906  29.820 -0.0868  0.1595  0.1756
11425W        W54363  23.712  27.151  30.064 -0.0096 -0.0460 -0.0936
11426W        W54364  23.826  24.713  30.029  0.1926 -0.0373 -0.0188
11427W        W54365  24.094  28.708  29.388  0.1667  0.2498 -0.0952
11428W        W54366  23.389  28.004  29.376 -0.1277 -0.2637  0.1958
11429W        W54367  23.163  26.992  31.028  0.2352 -0.2190  0.2622
11430W        W54368  23.494  26.881  29.612 -0.0790  0.0506  0.0243
11431W        W54369  25.225  26.249  31.016  0.0945  0.0532 -0.2536
11432W        W54370  23.946  25.724  28.938  0.0026 -0.0381 -0.1853
11433W        W54371  20.920  24.886  28.338  0.0677 -0.0729 -0.2444
11434W        W54372  22.900  28.773  30.028  0.1796 -0.0544 -0.1891
11435W        W54373  21.289  29.847  28.110  0.0453  0.0717 -0.1164
11436W        W54374  22.800  27.517  28.376 -0.1369 -0.1256 -0.0801
11437W        W54375  23.259  29.424  27.912 -0.0187 -0.1284 -0.5041
11438W        W54376  25.959  26.102  31.302  0.0541 -0.0029 -0.0905
11439W        W54377  21.108  26.545   0.543  0.4035 -0.2856  0.0670
11440W        W54378  25.342  26.752  30.811 -0.0032 -0.1443  0.2470
11441W        W54379  23.110  27.182  27.136 -0.1788  0.0996 -0.0730
11442W        W54380  21.960  27.915  30.122  0.0454 -0.0233 -0.3802
11443W        W54381  23.987  25.533  28.450  0.0692  0.3165  0.0025
11444W        W54382  24.587  26.947  28.676 -0.0090  0.0602  0.2113
11445W        W54383  24.042  27.245   0.251  0.3778 -0.0796  0.0075
11446W        W54384  23.199  29.442  29.103 -0.1770 -0.0145  0.1657
11447W        W54385  23.173  26.318  26.945  0.2232 -0.1534 -0.2569
11448W        W54386  24.442  27.687  28.776 -0.2692 -0.0318 -0.0824
11449W        W54387  21.996  27.581  31.673  0.2071 -0.0458  0.2148
11450W        W54388  23.752  29.207  27.834 -0.0859 -0.0450 -0.2981
11451W        W54389  23.883  26.709  29.982 -0.1652  0.1065 -0.0752
11452W        W54390  22.990  25.694  28.683  0.3027 -0.1413  0.1005
11453W        W54391  26.704  28.412  28.500  0.0702  0.2894  0.0679
11454W        W54392  22.498  27.556  30.696  0.0668 -0.1563 -0.1120
11455W        W54393  24.430  26.373  30.681  0.0962  0.1689  0.1990
11456W        W54394  23.506  29.161  28.804  0.1238  0.4642  0.1384
11457W        W54395  22.695  24.946  30.668  0.0232  0.1642 -0.1412
11458W        W54396  23.698  27.749  27.424 -0.0000 -0.0456  0.2325
11459W        W54397  23.842  26.021  29.777 -0.0090 -0.0320 -0.0429
11460W        W54398  22.434  28.444  28.494 -0.1078 -0.0210  0.2809
11461W        W54399  24.769  25.106  30.791 -0.1389 -0.0047  0.1869
11462W        W54400  24.228  25.867  30.801 -0.0916 -0.0922  0.0489
11463W        W54401  22.637  25.044  31.170 -0.2689 -0.1756  0.0458
11464W        W54402  24.482  25.849  31.465 -0.2376 -0.1593  0.0586
11465W        W54403  24.228  28.109  29.101 -0.2242 -0.1963 -0.1431
11466W        W54404  24.504  26.463  28.770 -0.1225  0.0262 -0.4381
11467W        W54405  21.785  26.376  27.453  0.2423 -0.1625 -0.2188
11468W        W54406  21.767  25.937  31.229  0.1468  0.2471  0.5035
11469W        W54407  22.097  27.804  31.215  0.1727 -0.1597 -0.1772
11470W        W54408  22.966  27.832  29.730  0.0735  0.2531  0.2085
11471W        W54409  25.696  27.613  30.845  0.0190  0.0799 -0.0735
11472W        W54410  24.796  29.434  28.435  0.0515 -0.0314  0.1900
11473W        W54411  24.639  25.490   0.398  0.1871 -0.1481 -0.0372
11474W        W54412  23.201  26.241  28.864 -0.2266 -0.0542  0.2733
11475W        W54413  23.066  28.595  29.171  0.0993 -0.0787 -0.0068
11476W        W54414  23.141  27.466  27.991 -0.0673  0.0796 -0.0249
11477W        W54415  22.939  25.209  31.607 -0.1559 -0.2028  0.3031
11478W        W54416  23.175  28.020  31.207  0.0888  0.0651 -0.2133
11479W        W54417  23.078  28.506  28.017  0.1125  0.2541 -0.0653
11480W        W54418  24.615  26.784   0.054 -0.1900  0.2458  0.2907
11481W        W54419  21.905  27.363  30.466  0.2573  0.0202  0.0554
11482W        W54420  23.172  26.017  30.980 -0.2348 -0.2520 -0.1938
11483W        W54421  22.426  28.062  30.874  0.0037  0.2178 -0.2208
11484W        W54422  22.183  26.954  29.196  0.2287  0.0086 -0.0227
11485W        W54423  20.860  25.787  28.958 -0.1060 -0.0201  0.1070
11486W        W54424  24.882  24.811  30.334 -0.0767  0.1772 -0.1467
11487W        W54425  24.587  28.237  26.966 -0.2835  0.2205 -0.0778
11488W        W54426  22.949  26.721  28.636  0.0354  0.0665 -0.0885
11489W        W54427  22.329  24.439  29.699  0.3871 -0.0140 -0.2595
11490W        W54428  21.943  28.245  30.960  0.0097  0.0611 -0.0717
11491W        W54429  24.770  26.653  29.727  0.0196  0.1214  0.2124
11492W        W54430  23.482  25.413  28.366  0.0009 -0.0983  0.2449
11493W        W54431  24.289  28.514  29.968 -0.1021  0.3301  0.2138
11494W        W54432  23.880  27.145  31.442 -0.1705 -0.2130  0.0521
11495W        W54433  21.340  24.010  27.733 -0.0485 -0.1050  0.1400
11496W        W54434  24.944  26.423  30.622 -0.2649 -0.1794 -0.0352
11497W        W54435  23.438  27.113  30.624 -0.1280 -0.0208 -0.2754
11498W        W54436  22.376  30.800  26.727 -0.0801 -0.2078  0.2131
11499W        W54437  24.643  28.589  30.327 -0.0270 -0.0790 -0.0054
11500W        W54438  22.837  26.141  27.351 -0.2963 -0.1841 -0.0090
11501W        W54439  23.586  29.411  28.341  0.1238 -0.0217 -0.0210
11502W        W54440  20.830  25.757  30.224 -0.0843  0.0312  0.0585
11503W        W54441  24.137  26.662  30.964 -0.0557 -0.0781  0.1211
11504W        W54442  21.894  25.871  28.532 -0.1469  0.2642 -0.1235
11505W        W54443  21.919  26.389  29.815 -0.3256 -0.1692 -0.1671
11506W        W54444  23.503  26.838  28.749 -0.2726  0.1375  0.1455
11507W        W54445  24.264  27.918  29.846 -0.2302  0.2470 -0.3490
11508W        W54446  24.192  27.877  30.346 -0.0413  0.1700  0.0694
11509W        W54447  22.652  27.897  31.257  0.0173  0.1808  0.0848
11510W        W54448  24.381  24.863  31.318 -0.0932  0.1966  0.0652
11511W        W54449  25.899  29.680  27.308 -0.2908 -0.0364  0.2214
11512W        W54450  23.717  27.494  30.545  0.2889  0.1957  0.0616
11513W        W54451  23.380  27.146  27.688  0.0727  0.1737  0.1372
11514W        W54452  22.415  27.053  29.963 -0.2126 -0.1296 -0.0097
11515W        W54453  23.616  28.501  29.246 -0.1859  0.1094  0.0623
11516W        W54454  22.240  26.217  30.877  0.2177  0.3268 -0.0542
11517W        W54455  22.103  28.351  30.516 -0.3154  0.0096  0.0686
11518W        W54456  23.050  28.969  28.769 -0.1991 -0.0142 -0.0991
11519W        W54457  22.292  28.377  31.348  0.1418  0.0268  0.1487
11520W        W54458  24.411  25.246  29.260  0.0189 -0.4413 -0.0082
11521W        W54459  24.215  27.759  27.506  0.1141 -0.3543 -0.1327
11522W        W54460  22.821  25.181  29.351  0.3093 -0.1212  0.0479
11523W        W54461  25.800  24.439  31.359 -0.1637  0.0162  0.0209
11524W        W54462  23.763  28.618  26.430 -0.1413  0.2346 -0.2173
11525W        W54463  25.157  24.874  31.736  0.0590  0.3013  0.1056
11526W        W54464  22.283  25.187  30.402 -0.4008 -0.2839 -0.1370
11527W        W54465  23.734  28.035  29.042 -0.0452 -0.2323  0.0856
11528W        W54466  22.672  25.468  30.669 -0.0353  0.1386 -0.1155
11529W        W54467  22.560  28.190   0.132  0.0437 -0.1212 -0.1897
11530W        W54468  22.512  26.626  30.716  0.3498  0.0404 -0.0551
11531W        W54469  23.640  27.314  28.665 -0.0090  0.1777 -0.0147
11532W        W54470  23.662  25.310  29.257  0.2093  0.1511 -0.3134
11533W        W54471  23.506  27.353  31.075 -0.2070 -0.0556 -0.0411
11534W        W54472  24.956  29.117  29.517 -0.0707 -0.0067 -0.2246
11535W        W54473  23.725  28.925  29.728 -0.1098  0.0329  0.1869
11536W        W54474  24.235  25.596  30.325  0.1437  0.1227  0.1384
11537W        W54475  24.109  27.761  30.862  0.0353  0.0847 -0.0073
11538W        W54476  24.761  25.705  29.983  0.3329  0.2465 -0.2552
11539W        W54477  23.710  28.725  27.448  0.0224  0.0651 -0.2926
11540W        W54478  22.277  27.786  28.784  0.0469  0.1707 -0.2174
11541W        W54479  22.210  25.106  31.387 -0.0431 -0.0692 -0.0550
11542W        W54480  25.028  27.009  30.445  0.1099 -0.2749  0.0985
11543W        W54481  24.778  25.539  29.436  0.2530  0.0416 -0.0596
11544W        W54482  24.247  26.011  30.059 -0.0318  0.2134 -0.0935
11545W        W54483  24.111  25.053  30.314 -0.0657  0.0305  0.0715
11546W        W54484  23.641  26.839  31.119 -0.3886  0.0909 -0.0212
11547W        W54485  23.223  26.135  31.954  0.0364 -0.5380  0.3157
11548W        W54486  24.711  27.160  30.085  0.3747  0.1032 -0.2458
11549W        W54487  25.226  27.160  28.492 -0.1776  0.2924  0.1860
11550W        W54488  25.952  26.666  31.578 -0.0359 -0.5979  0.1509
11551W        W54489  25.091  26.835  28.832  0.2060 -0.0151  0.3429
11552W        W54490  22.831  24.611  29.859 -0.1558  0.1222 -0.1027
11553W        W54491  22.088  27.184  30.870 -0.0871  0.2706 -0.0813
11554W        W54492  24.214  26.939  30.285  0.2386 -0.3290 -0.0582
11555W        W54493  23.700  26.789  27.867  0.0206 -0.0294  0.1049
11556W        W54494  24.718  24.543  31.021 -0.3065 -0.3920  0.3693
11557W        W54495  22.862  30.004  28.314 -0.4925  0.0799  0.0716
11558W        W54496  24.428  28.304  29.500 -0.2605 -0.1416 -0.2088
11559W        W54497  24.302  25.971  28.621  0.2282 -0.1673  0.2937
11560W        W54498  21.640  25.689  28.983  0.0496 -0.4003 -0.0616
11561W        W54499  21.150  28.108  29.957 -0.1767  0.3033 -0.1531
11562W        W54500  21.322  25.812  27.867 -0.1120  0.1644 -0.1710
11563W        W54501  23.624  27.313  27.135  0.2371 -0.0287  0.1547
11564W        W54502  24.320  26.869  29.721 -0.0756  0.0053 -0.3206
11565W        W54503  23.616  27.981  30.395  0.1864 -0.0431 -0.0084
11566W        W54504  23.457  25.171  27.926  0.2296  0.0601  0.1551
11567W        W54505  25.146  25.342  30.890  0.1099 -0.0201  0.1232
11568W        W54506  22.907  29.242  27.283  0.1348  0.0174 -0.2286
11569W        W54507  24.018  23.814  30.181 -0.0523  0.1473 -0.0843
11570W        W54508  21.711  28.545  31.856 -0.2869  0.2179  0.0709
11571W        W54509  21.514  27.603  30.560 -0.1119 -0.1263  0.3805
11572W        W54510  23.927  28.788  28.946  0.0233  0.1658 -0.0505
11573W        W54511  23.728  25.523  31.432 -0.2792 -0.3149  0.1475
11574W        W54512  23.220  24.913  29.369  0.2511 -0.1827 -0.1088
11575W        W54513  22.818  27.898  28.829  0.2583  0.0937 -0.1539
11576W        W54514  24.995  27.091  30.967  0.0383  0.1269 -0.0459
11577W        W54515  23.675  27.960  31.267  0.2163  0.3332  0.0893
11578W        W54516  21.754  26.913  30.237  0.4092  0.0191  0.0598
11579W        W54517  23.922  28.228  30.163 -0.2637  0.0699  0.0713
11580W        W54518  24.636  26.825  29.201 -0.1577 -0.1125  0.4028
11581W        W54519  23.340  27.657  28.975 -0.1048 -0.0672  0.0929
11582W        W54520  22.350  27.083  30.478 -0.2688 -0.3087 -0.1740
11583W        W54521  23.379  27.583  31.484 -0.2439  0.0472 -0.0392
11584W        W54522  24.458  28.582  29.025 -0.0514  0.0158  0.2557
11585W        W54523  21.790  25.435  27.611  0.0252 -0.0223 -0.3077
11586W        W54524  24.071  28.822  27.865 -0.0631  0.0827  0.0340
11587W        W54525  21.898  28.860  31.550  0.2703 -0.0938 -0.0777
11588W        W54526  21.722  26.530  31.482  0.1742  0.1708  0.0326
11589W        W54527  23.124  28.923  27.650  0.2003 -0.3496  0.1369
11590W        W54528  23.422  28.645  28.743  0.2573  0.1276  0.1905
11591W        W54529  24.467  28.205  27.888 -0.1065 -0.0086  0.3558
11592W        W54530  24.105  28.611  30.497  0.3329  0.0649  0.1555
11593W        W54531  23.664  26.332  28.972  0.2690 -0.1424  0.3771
11594W        W54532  21.701  27.764  29.528 -0.1679 -0.0384 -0.0245
11595W        W54533  22.057  28.117  29.093  0.1760 -0.1990 -0.0264
11596W        W54534  25.356  28.963  26.439 -0.0863  0.2381 -0.0434
11597W        W54535  22.731  28.801  28.244 -0.0636 -0.2534  0.1401
11598W        W54536  25.064  28.823  29.982  0.0905  0.1789  0.0199
11599W        W54537  24.878  25.302  28.542  0.1522  0.2686 -0.0819
11600W        W54538  25.170  25.863  30.710  0.0671 -0.2409  0.2020
11601W        W54539  25.020  26.429  28.438  0.2585 -0.0110  0.2697
11602W        W54540  24.666  29.337  30.880 -0.3986  0.1346 -0.1920
11603W        W54541  24.093  26.733  29.275  0.0149  0.0120 -0.0375
11604W        W54542  22.875  26.204  28.503 -0.0452 -0.3031  0.1372
11605W        W54543  23.958  25.863  31.219 -0.0884  0.1212  0.0761
11606W        W54544  25.792  25.787   0.018  0.0894 -0.0526 -0.0176
11607W        W54545  21.493  27.661  31.739  0.1441 -0.0063  0.0098
11608W        W54546  24.290  29.931  27.095 -0.0099 -0.2229  0.1908
11609W        W54547  20.701  25.399  27.955 -0.2724  0.3144  0.5634
11610W        W54548  23.851  27.658  29.963 -0.0613 -0.2580 -0.1393
11611W        W54549  26.258  24.197  30.873 -0.2953  0.2521  0.1886
11612W        W54550  23.087  28.104  26.953  0.4797  0.2475 -0.3655
11613W        W54551  23.544  25.173  29.967  0.0120 -0.0714  0.1101
11614W        W54552  22.568  28.924  28.713 -0.1837 -0.2381  0.1593
11615W        W54553  20.672  28.703  29.312  0.0697  0.1055 -0.1586
11616W        W54554  23.297  27.405  29.928  0.2812  0.0005  0.2722
11617W        W54555  22.262  24.247  28.551 -0.1712 -0.1521 -0.3957
11618W        W54556  25.722  26.734  29.605  0.1065  0.2525 -0.0917
11619W        W54557  22.748  26.406  29.083  0.2565 -0.0685 -0.0859
11620W        W54558  25.954  25.431  31.566  0.1536  0.1229  0.0282
11621W        W54559  22.719  27.793  27.856 -0.2594 -0.1009  0.2094
11622W        W54560  25.470  25.320  29.137  0.2657  0.0557  0.2551
11623W        W54561  24.045  26.366  30.326  0.2751  0.0495 -0.0528
11624W        W54562  23.227  28.764  30.621  0.0561  0.1089  0.2183
11625W        W54563  24.139  27.231  27.269 -0.0853  0.0378  0.0913
11626W        W54564  25.289  28.756  31.207 -0.1261 -0.3381  0.0937
11627W        W54565  23.452  25.793  28.789  0.0442  0.3425 -0.0061
11628W        W54566  25.677  28.463  30.430 -0.0865 -0.0599 -0.0033
11629W        W54567  22.312  24.578  28.921 -0.0843  0.3499 -0.0493
11630W        W54568  23.053  25.135  29.801  0.2799 -0.0645  0.3252
11631W        W54569  22.508  27.070  28.554 -0.2886 -0.0706 -0.4069
11632W        W54570  25.041  26.128  29.458 -0.2067 -0.0451 -0.1169
11633W        W54571  24.401  28.971  30.200  0.2705  0.0110 -0.2724
11634W        W54572  21.734  25.569  28.073  0.0981 -0.0168 -0.2606
11635W        W54573  24.592  29.833  28.099  0.1043  0.0631  0.1367
11636W        W54574  25.792  27.105  30.756  0.3446 -0.0749 -0.0934
11637W        W54575  22.295  29.055  28.211 -0.0817  0.0621  0.0979
11638W        W54576  25.798  26.666  30.082 -0.1193 -0.0417  0.2782
11639W        W54577  25.365  26.486  29.852 -0.0052  0.0244  0.2056
11640W        W54578  22.056  26.136  30.445  0.0591  0.1334  0.0211
11641W        W54579  25.051  27.875  30.258  0.0947  0.2511  0.6475
11642W        W54580  24.225  28.237  31.283  0.1044  0.3634 -0.1837
11643W        W54581  22.961  26.392  29.662 -0.1242  0.1468  0.0963
11644W        W54582  23.854  26.715  28.319  0.2083 -0.1028  0.0122
11645W        W54583  22.308  29.025  29.635 -0.0307 -0.1098 -0.0419
11646W        W54584  24.981  25.546  30.407 -0.5238 -0.2636 -0.2072
11647W        W54585  24.335  24.914   0.774  0.0331  0.0912  0.0235
11648W        W54586  23.170  30.380  28.129  0.1356  0.2022 -0.2860
11649W        W54587  24.762  24.438   0.451 -0.2272  0.0903 -0.2288
11650W        W54588  24.801  27.478  30.533  0.1147 -0.2965 -0.2020
11651W        W54589  22.056  28.294   0.194 -0.1323 -0.0243  0.1070
11652W        W54590  22.902  28.165  29.287  0.4182  0.0020 -0.0196
11653W        W54591  23.414  27.788  30.849 -0.0144 -0.0555  0.0351
11654W        W54592  23.934  28.267  29.582 -0.1824  0.0670 -0.0083
11655W        W54593  22.495  30.204  29.505 -0.5714  0.0574  0.0427
11656W        W54594  23.099  28.374  29.697 -0.1996 -0.2084  0.0189
11657W        W54595  22.507  27.375  27.939  0.0328 -0.0567 -0.0484
11658W        W54596  25.461  26.181  30.413  0.1140 -0.2597  0.0588
11659W        W54597  22.151  26.324  29.363  0.2412 -0.1403  0.3433
11660W        W54598  25.949  26.199  30.296  0.2524 -0.3891 -0.1702
11661W        W54599  25.569  26.756  27.721  0.2335  0.1874 -0.0264
11662W        W54600  22.425  26.293  29.943  0.0564 -0.0124 -0.1336
11663W        W54601  22.475  27.890  28.318  0.1066  0.0873 -0.1662
11664W        W54602  22.936  26.777  26.867 -0.1502 -0.0132  0.3382
11665W        W54603  22.687  27.450  29.745 -0.1738  0.0605  0.2218
11666W        W54604  23.023  25.858  31.504 -0.2407 -0.2077  0.3785
11667W        W54605  20.911  26.361  31.469 -0.2760  0.4010  0.0093
11668W        W54606  21.818  27.249  28.009  0.0116 -0.1336  0.1296
11669W        W54607  22.123  25.528  28.873  0.0924 -0.2187  0.0148
11670W        W54608  24.063  29.627  28.570  0.2293 -0.0924 -0.0477
11671W        W54609  22.528  26.019  29.527  0.1518 -0.0539  0.0417
11672W        W54610  22.526  26.209  30.461 -0.0376  0.0184 -0.1494
11673W        W54611  23.875  28.309  28.677 -0.3445  0.0805 -0.1077
11674W        W54612  24.901  28.604  27.701  0.1858  0.3206 -0.0617
11675W        W54613  21.287  25.234  28.287  0.0560 -0.2238 -0.0830
11676W        W54614  24.816  26.262  31.382 -0.3770  0.0687  0.0154
11677W        W54615  21.990  27.295  27.567 -0.3353  0.0667 -0.1062
11678W        W54616  23.436  26.132  30.581 -0.0229  0.0699  0.1866
11679W        W54617  23.815  26.234  30.912 -0.0776 -0.2070 -0.1344
11680W        W54618  20.267  25.286  27.164 -0.4150  0.1498 -0.1494
11681W        W54619  22.686  25.117  30.146 -0.0450  0.1533 -0.0332
11682W        W54620  24.636  29.015  28.760 -0.0408  0.2993  0.4061
11683W        W54621  26.067  29.431  28.146 -0.0885  0.0688 -0.1202
11684W        W54622  23.052  26.363  30.223  0.0302  0.2568 -0.1684
11685W        W54623  24.530  27.395  31.002 -0.1742  0.3790  0.0195
11686W        W54624  23.673  24.600  30.988 -0.2394  0.0792  0.2599
11687W        W54625  23.963  27.892  27.914  0.1385  0.0533  0.2115
11688W        W54626  24.233  27.380  30.482 -0.0751  0.2665  0.1822
11689W        W54627  23.616  29.734  27.657 -0.1674  0.2087  0.1138
11690W        W54628  26.255  26.561  30.539  0.0027  0.2642 -0.0935
11691W        W54629  23.246  29.035  28.222  0.1323  0.2056  0.2157
11692W        W54630  21.006  25.334  30.746  0.0664 -0.1828  0.1279
11693W        W54631  22.336  27.965  31.705  0.3010  0.2578  0.4062
11694W        W54632  24.525  25.786  29.044  0.2751  0.2772  0.2634
11695W        W54633  22.141  25.881  29.773 -0.1399  0.1359 -0.0385
11696W        W54634  25.118  25.759  29.163  0.0114  0.2069 -0.2140
11697W        W54635  24.094  29.272  28.256 -0.1398 -0.0566 -0.2722
11698W        W54636  22.170  26.640  30.171  0.0074 -0.0346  0.0587
11699W        W54637  23.140  27.239  28.660 -0.3351 -0.0785  0.3923
11700W        W54638  24.165  26.180  29.110 -0.2462 -0.2123 -0.1459
11701W        W54639  24.538  27.762  29.311  0.3859 -0.0885  0.1512
11702W        W54640  24.780  26.051  30.914 -0.0347  0.4749  0.0186
11703W        W54641  24.007  27.543  28.929 -0.2501  0.0201  0.0854
11704W        W54642  24.099  28.020  26.987 -0.1648 -0.2176  0.2976
11705W        W54643  23.682  29.520  30.872 -0.1057 -0.0071  0.1100
11706W        W54644  25.203  28.980  28.748 -0.2709  0.1025 -0.2070
11707W        W54645  23.377  28.822  30.124 -0.0376 -0.0148 -0.3748
11708W        W54646  24.365  27.229  29.227  0.4622  0.1357 -0.0340
11709W        W54647  21.558  27.229  28.726  0.1633  0.0631 -0.1870
11710W        W54648  23.818  25.264  28.827 -0.1215 -0.1366 -0.2192
11711W        W54649  24.018  27.731  29.421  0.0931 -0.0067 -0.2945
11712W        W54650  24.031  26.551  28.742 -0.0102 -0.4172 -0.0267
11713W        W54651  23.238  28.179  28.890 -0.1238  0.1081 -0.2055
11714W        W54652  25.301  25.589  28.735 -0.0429 -0.2953  0.0067
11715W        W54653  22.232  27.220   0.132  0.0535 -0.1367  0.1959
11716W        W54654  23.830  26.807  30.556  0.0472 -0.1716 -0.2046
11717W        W54655  24.688  24.672  31.799 -0.2346 -0.0865  0.0072
11718W        W54656  24.589  25.896  30.462 -0.3166  0.0115 -0.1659
11719W        W54657  22.405  25.682  30.365 -0.0324 -0.0637 -0.1898
11720W        W54658  22.477  27.473  31.180 -0.2301  0.1759  0.2941
11721W        W54659  22.350  29.091  31.019 -0.0232  0.2465  0.2193
11722W        W54660  24.038  29.718  30.499  0.1428 -0.0493  0.0623
11723W        W54661  23.543  26.325  30.142  0.1636  0.1737  0.1163
11724W        W54662  22.860  25.665  31.888  0.1373  0.2114 -0.2169
11725W        W54663  24.123  26.307  31.794  0.0686  0.2002 -0.3452
11726W        W54664  25.066  29.609  30.538 -0.0709 -0.3768 -0.1309
11727W        W54665  23.765  27.850  31.738  0.1974 -0.2450 -0.5130
11728W        W54666  20.681  23.849  31.941 -0.1452 -0.2115 -0.0467
11729W        W54667  26.282  28.240  30.324 -0.2198 -0.2257  0.0550
11730W        W54668  21.652  26.963  31.078 -0.2428 -0.1517  0.1584
11731W        W54669  25.053  26.762   0.824 -0.1525  0.1852  0.2435
11732W        W54670  22.278  28.553  31.829  0.1920  0.1099 -0.2513
11733W        W54671  23.088  26.837  29.976 -0.6280  0.0323  0.1141
11734W        W54672  24.677  28.151  31.542 -0.1079  0.1804  0.1699
11735W        W54673  23.611  25.570   0.307  0.0208  0.2593  0.1100
11736W        W54674  21.420  26.419   1.354 -0.1824 -0.0014 -0.1778
11737W        W54675  21.624  25.977  31.828  0.1858 -0.3785  0.0897
11738W        W54676  20.671  27.859  31.364 -0.0061 -0.1743 -0.0805
11739W        W54677  25.002  25.838  31.704  0.1506  0.0513 -0.2558
11740W        W54678  23.643  26.415   0.003  0.1593 -0.1199 -0.0806
11741W        W54679  24.837  25.891   0.274 -0.3464 -0.4570  0.1766
11742W        W54680  24.595  26.194   0.590 -0.0574 -0.2579 -0.3289
11743W        W54681  22.026  26.157   0.147  0.2044 -0.2483  0.0129
11744W        W54682  21.904  29.238  30.883 -0.2625 -0.2668 -0.1178
11745W        W54683  22.214  26.723   0.173  0.0086 -0.0022 -0.2465
11746W        W54684  21.872  27.445  29.940 -0.2532 -0.2020 -0.2212
11747W        W54685  22.420  29.333  31.680 -0.0938  0.0039  0.1221
11748W        W54686  22.774  25.913  30.000  0.0052 -0.4039 -0.0707
11749W        W54687  25.300  26.938  31.945 -0.2178 -0.1754 -0.0379
11750W        W54688  23.458  25.767  30.193  0.0333 -0.3829 -0.2576
11751W        W54689  20.741  27.434  30.982 -0.0470 -0.2533 -0.1421
11752W        W54690  23.097  28.601  31.390 -0.1759  0.6313  0.2073
11753W        W54691  21.726  28.664  30.611  0.2906 -0.0255  0.4019
11754W        W54692  21.280  26.707  31.566  0.2185  0.0802  0.2919
11755W        W54693  22.997  27.892  31.667 -0.1570 -0.0830  0.0106
11756W        W54694  22.842  27.239   0.309  0.3285 -0.4934 -0.0372
11757W        W54695  27.292  26.675  31.041  0.0643 -0.3041 -0.0517
11758W        W54696  25.205  27.095   1.383 -0.0758  0.1345  0.0314
11759W        W54697  22.953  26.377  30.748 -0.0546 -0.0696  0.3298
11760W        W54698  23.343  27.749   0.011 -0.1588  0.4071 -0.1199
11761W        W54699  23.112  24.836  31.215  0.0748  0.3593  0.0241
11762W        W54700  23.189  27.229  31.946 -0.1947  0.0849 -0.1343
11763W        W54701  23.506  24.429   0.009 -0.0368 -0.3367  0.1129
11764W        W54702  22.989  27.406  30.632  0.1966  0.4527 -0.2121
11765W        W54703  24.619  26.788   0.621 -0.2550 -0.0551 -0.0588
11766W        W54704  20.879  28.014  31.824  0.0047  0.2940  0.0363
11767W        W54705  24.203  27.572  31.859 -0.1130 -0.2512 -0.1870
11768W        W54706  25.049  24.144  30.931 -0.0974 -0.1635 -0.1944
11769W        W54707  23.788  25.311  31.892 -0.1352  0.2040 -0.0224
11770W        W54708  22.875  26.878  29.557  0.4991  0.1500  0.2067
11771W        W54709  21.353  25.544   0.163 -0.4415  0.0989  0.1113
11772W        W54710  25.208  25.334  31.473  0.1686 -0.1025  0.1538
11773W        W54711  24.059  27.201  30.965 -0.3944 -0.2136 -0.1723
11774W        W54712  23.080  30.741  31.067 -0.0055  0.1390 -0.1094
11775W        W54713  22.610  28.753  31.380 -0.2408  0.2083 -0.0373
11776W        W54714  23.345  25.636  30.707 -0.2608 -0.0847 -0.1472
11777W        W54715  20.733  26.331  30.970  0.4458 -0.2868  0.0370
11778W        W54716  23.545  26.785  31.620  0.0639  0.3116 -0.0007
11779W        W54717  21.237  26.658  30.885  0.0870 -0.0265  0.3669
11780W        W54718  21.433  25.156   0.463  0.3810 -0.0855 -0.0713
11781W        W54719  23.393  28.244  31.631  0.3016  0.0106  0.0082
11782W        W54720  25.872  28.060  31.119  0.2868  0.0387 -0.2542
11783W        W54721  24.039  28.416   0.475  0.0910 -0.2117  0.0879
11784W        W54722  23.169  31.840  19.303  0.5734 -0.0414  0.1478
11785W        W54723  22.557  29.695  16.207 -0.0623  0.1895  0.3011
11786W        W54724  24.483  31.057  16.617  0.0046  0.2799 -0.0021
11787W        W54725  24.941  30.866  16.766 -0.2237 -0.0434  0.1701
11788W        W54726  21.564  29.093  16.303 -0.1173  0.0218 -0.1433
11789W        W54727  24.875  32.152  17.250 -0.2972 -0.0526  0.2011
11790W        W54728  20.766  31.710  20.459  0.0484  0.0594  0.2193
11791W        W54729  26.699  31.345  17.997 -0.1051  0.0699  0.0979
11792W        W54730  24.759  32.107  17.968 -0.0620 -0.2908  0.2000
11793W        W54731  23.555  31.828  16.691  0.1421  0.2842 -0.0188
11794W        W54732  23.602  29.092  20.233 -0.0502 -0.0351  0.1108
11795W        W54733  22.409  33.171  18.289 -0.4688  0.0072  0.1893
11796W        W54734  22.210  29.312  17.608  0.0504  0.0441 -0.1383
11797W        W54735  22.006  29.780  19.231  0.3492 -0.0089  0.1992
11798W        W54736  25.683  31.135  18.189  0.0630 -0.2130 -0.4043
11799W        W54737  22.225  31.663  17.253  0.0301 -0.1283  0.1811
11800W        W54738  23.984  30.784  19.691 -0.1860  0.1433  0.3085
11801W        W54739  22.320  31.232  17.794 -0.2783 -0.0329 -0.0516
11802W        W54740  22.996  33.085  17.480 -0.3120 -0.0947  0.0275
11803W        W54741  22.405  29.519  19.278 -0.1323  0.0286  0.0331
11804W        W54742  22.729  29.434  18.727 -0.0912  0.1080 -0.1399
11805W        W54743  23.051  32.783  17.034  0.0339  0.0474 -0.0773
11806W        W54744  21.369  30.604  16.797  0.3259 -0.1429 -0.0116
11807W        W54745  23.224  29.682  17.257 -0.3967  0.1049 -0.0264
11808W        W54746  22.600  31.364  18.822 -0.1270 -0.0612  0.1763
11809W        W54747  23.418  30.350  17.936  0.1758 -0.0708  0.0801
11810W        W54748  24.956  31.351  17.779  0.1218 -0.1493 -0.0136
11811W        W54749  22.189  33.160  17.868 -0.1097  0.1979 -0.1842
11812W        W54750  24.174  31.778  17.361  0.0868 -0.2264 -0.0907
11813W        W54751  24.686  31.028  20.998  0.1328 -0.2726  0.2385
11814W        W54752  21.899  30.848  17.999 -0.0649 -0.1364 -0.2436
11815W        W54753  21.710  34.213  19.018 -0.0403  0.4634  0.1913
11816W        W54754  24.398  33.569  16.850 -0.2357  0.1646  0.3932
11817W        W54755  25.376  32.209  17.266  0.0702  0.0898  0.0867
11818W        W54756  23.533  31.926  17.510  0.1246 -0.1372  0.1540
11819W        W54757  21.096  34.503  17.527  0.1681  0.0327  0.0368
11820W        W54758  21.672  32.902  17.314 -0.0050  0.0857 -0.1660
11821W        W54759  22.979  32.302  18.582  0.0115 -0.0408  0.0676
11822W        W54760  22.137  31.335  19.482 -0.0241 -0.1723  0.1349
11823W        W54761  24.866  31.193  18.251  0.3900  0.4215  0.2383
11824W        W54762  24.655  30.591  16.469  0.0009  0.1531  0.1009
11825W        W54763  23.132  34.062  17.708 -0.0448 -0.0502 -0.0911
11826W        W54764  23.401  33.732  16.984  0.0251  0.0953 -0.0678
11827W        W54765  21.674  30.090  19.389 -0.2697 -0.2497  0.1300
11828W        W54766  21.987  32.902  16.918 -0.1505  0.1736  0.2157
11829W        W54767  25.855  28.654  20.887  0.2632 -0.0279 -0.2280
11830W        W54768  23.181  32.365  17.410  0.3908 -0.0950  0.0802
11831W        W54769  23.637  30.853  16.496 -0.0253  0.2166 -0.5355
11832W        W54770  24.289  28.502  18.667 -0.0310  0.1254  0.1051
11833W        W54771  24.756  31.340  16.961  0.3370  0.1142  0.3154
11834W        W54772  23.187  30.005  17.658  0.0815 -0.2175  0.0354
11835W        W54773  22.924   0.156  18.262 -0.2331 -0.1563 -0.1883
11836W        W54774  22.332  30.145  18.726  0.0451 -0.0744 -0.0020
11837W        W54775  24.043  31.016  19.091  0.2036  0.2045 -0.0661
11838W        W54776  25.076  31.303  16.448  0.1888  0.1478  0.1681
11839W        W54777  23.124  29.324  19.961 -0.1791  0.0264  0.0949
11840W        W54778  21.739  32.213  19.279  0.0462  0.3239 -0.2487
11841W        W54779  23.217  31.964  17.144 -0.1571 -0.0796 -0.3810
11842W        W54780  25.303  32.091  16.718  0.0726 -0.3765 -0.2258
11843W        W54781  24.168  32.775  17.449 -0.2780 -0.0066 -0.2108
11844W        W54782  25.589  31.760  16.993 -0.1004 -0.0208  0.5064
11845W        W54783  22.724  29.892  17.879  0.1155 -0.0058  0.2997
11846W        W54784  21.274  31.592  20.381 -0.2869  0.2325  0.0227
11847W        W54785  20.086  31.110  19.636  0.1241 -0.0072  0.2802
11848W        W54786  22.904  28.766  16.414  0.2964  0.0131 -0.0386
11849W        W54787  23.291  32.853  18.679 -0.1852 -0.0090 -0.2872
11850W        W54788  21.110  32.344  18.412 -0.3320  0.1051 -0.0283
11851W        W54789  26.183  30.541  18.897 -0.0109 -0.2756 -0.0190
11852W        W54790  22.928  31.945  17.536  0.0033 -0.4219 -0.2209
11853W        W54791  24.221  30.368  19.062 -0.1152 -0.0276  0.0119
11854W        W54792  23.699  31.612  17.149 -0.0965 -0.1560  0.0512
11855W        W54793  25.563  29.468  17.772  0.1435 -0.0900  0.0996
11856W        W54794  23.575  29.504  17.534  0.2229 -0.0294  0.5564
11857W        W54795  23.065  31.588  16.833  0.2137  0.0373 -0.2043
11858W        W54796  22.527  30.924  16.402 -0.3181  0.2101 -0.1382
11859W        W54797  24.689  31.682  17.537 -0.1250  0.2186 -0.0517
11860W        W54798  24.889  31.519  16.014  0.1108  0.0045 -0.0094
11861W        W54799  22.821  30.987  18.485  0.1526 -0.1464  0.3979
11862W        W54800  23.916  31.272  18.657  0.3217 -0.2314 -0.1766
11863W        W54801  23.608  32.937  19.437 -0.2293  0.2976 -0.0438
11864W        W54802  21.480  32.540  15.762 -0.0121 -0.0051 -0.0386
11865W        W54803  23.071  31.237  19.071 -0.2259  0.0251 -0.0470
11866W        W54804  22.487  33.549  17.172 -0.0769 -0.0849 -0.1104
11867W        W54805  20.317  29.858  18.997  0.0586  0.0805 -0.1372
11868W        W54806  22.906  31.676  18.595  0.2135 -0.1567  0.0769
11869W        W54807  24.191  30.103  17.657  0.0298 -0.0213 -0.1133
11870W        W54808  21.058  29.329  18.652 -0.3499 -0.1609 -0.5447
11871W        W54809  24.636  29.597  18.814  0.3914  0.0175 -0.1076
11872W        W54810  23.320  31.212  18.608  0.2102  0.4321 -0.2590
11873W        W54811  25.449  33.895  16.964 -0.0380  0.0000  0.1237
11874W        W54812  25.733  30.564  17.505 -0.1056 -0.0413  0.1306
11875W        W54813  23.968  32.928  16.532 -0.2141  0.1386  0.1245
11876W        W54814  21.342  31.577  18.010 -0.0494 -0.1148  0.2551
11877W        W54815  22.932  30.633  17.183 -0.3266 -0.0878 -0.2497
11878W        W54816  20.911  29.612  19.797 -0.0458 -0.0376  0.0557
11879W        W54817  23.283  30.572  18.958 -0.0170  0.2289 -0.3262
11880W        W54818  25.357  31.404  18.397  0.1744 -0.1826 -0.0334
11881W        W54819  22.012  29.756  16.922  0.2930  0.1292 -0.2968
11882W        W54820  24.795  29.446  17.597  0.1507  0.2376 -0.1324
11883W        W54821  24.195  30.767  16.288  0.1499 -0.1271 -0.1175
11884W        W54822  21.912  32.445  16.700 -0.1254  0.1097 -0.0742
11885W        W54823  25.894  30.829  19.605  0.0194  0.4966  0.0517
11886W        W54824  25.031  33.813  16.703  0.1485  0.1120 -0.2512
11887W        W54825  24.689  33.419  18.565  0.0355  0.0412  0.1140
11888W        W54826  24.156  33.366  16.504  0.3276 -0.2908 -0.0367
11889W        W54827  21.236  30.148  19.136  0.4032  0.0431  0.1140
11890W        W54828  21.595  29.194  19.605  0.0939  0.0030 -0.0875
11891W        W54829  22.301  32.479  19.118  0.0607  0.0156  0.3514
11892W        W54830  23.431  32.241  17.864 -0.1323  0.0773 -0.1002
11893W        W54831  24.337  30.317  16.763  0.0675 -0.2656  0.0267
11894W        W54832  24.645  32.472  18.833  0.0710  0.2621  0.4454
11895W        W54833  22.829  32.531  16.622  0.0563  0.1095 -0.0723
11896W        W54834  21.011  31.525  18.624  0.0763 -0.2779  0.3078
11897W        W54835  23.930  28.826  18.967  0.1159 -0.2657  0.0591
11898W        W54836  26.126  30.413  18.386  0.0881  0.0356 -0.1593
11899W        W54837  25.012  30.636  17.370 -0.0984  0.3714 -0.0317
11900W        W54838  22.338  28.457  16.743  0.0697  0.2216  0.1191
11901W        W54839  24.632  32.673  18.193 -0.2812 -0.1482  0.2691
11902W        W54840  21.586  32.440  16.277  0.1238  0.2392 -0.0413
11903W        W54841  23.564  29.887  18.150  0.2981 -0.0863 -0.2295
11904W        W54842  23.029  31.053  17.630 -0.2875  0.0128  0.0644
11905W        W54843  25.917  29.980  18.498 -0.1933  0.1963 -0.0261
11906W        W54844  20.662  32.171  20.185  0.0020  0.1706  0.0227
11907W        W54845  23.766  30.518  19.248  0.0360  0.1795  0.2486
11908W        W54846  21.562  30.888  16.419 -0.1414 -0.1829 -0.0013
11909W        W54847  20.772  32.131  18.760  0.0070  0.0115 -0.0243
11910W        W54848  25.642  30.293  18.828  0.1706 -0.2085 -0.0471
11911W        W54849  26.132  28.293  16.350  0.0523 -0.0623 -0.1213
11912W        W54850  23.716  30.943  20.129 -0.5333  0.2082  0.3815
11913W        W54851  24.962  31.726  16.782  0.1262  0.2313  0.0439
11914W        W54852  23.966  29.921  16.693 -0.0584 -0.0285  0.0670
11915W        W54853  24.516  30.805  17.042  0.0470  0.0164  0.1942
11916W        W54854  22.896  30.824  19.670 -0.1365 -0.1170 -0.0987
11917W        W54855  24.354  32.493  16.629  0.2604  0.3179  0.2638
11918W        W54856  22.231  32.471  18.599 -0.5086 -0.2139  0.2440
11919W        W54857  23.920  29.797  16.055 -0.1888 -0.2995  0.1954
11920W        W54858  25.140  33.161  16.428 -0.3053 -0.1794 -0.2693
11921W        W54859  22.700  31.785  17.145  0.4217 -0.0925 -0.0946
11922W        W54860  23.585  33.267  18.824 -0.0461  0.3753  0.3121
11923W        W54861  24.214  31.270  16.918 -0.2774  0.0529  0.0954
11924W        W54862  21.519  30.804  19.005 -0.1487  0.1297 -0.2473
11925W        W54863  21.441  30.106  17.610 -0.1754 -0.0715 -0.1524
11926W        W54864  23.485  30.112  17.028 -0.1761  0.1709  0.0700
11927W        W54865  20.993  33.608  16.417 -0.1484  0.1287 -0.1989
11928W        W54866  23.886  30.227  18.070 -0.2074  0.3767  0.0833
11929W        W54867  23.828  30.497  17.625 -0.0605  0.1743  0.1464
11930W        W54868  24.381  28.759  19.179 -0.3750  0.0762 -0.2349
11931W        W54869  25.008  29.925  21.079  0.0737 -0.1269  0.1297
11932W        W54870  24.567  29.815  17.779  0.0908 -0.1064  0.2947
11933W        W54871  23.963  29.365  18.263  0.2642 -0.1217 -0.0261
11934W        W54872  21.092  30.498  17.557 -0.2064 -0.1986  0.1887
11935W        W54873  23.407  30.215  18.616 -0.0957 -0.3561  0.0718
11936W        W54874  21.058  30.962  18.830 -0.1221  0.1297  0.1414
11937W        W54875  21.939  32.092  18.762  0.0049  0.0422 -0.1053
11938W        W54876  23.786  31.972  19.048  0.1014  0.0771 -0.3631
11939W        W54877  23.885  32.255  17.609 -0.0707 -0.1442 -0.0901
11940W        W54878  24.187  29.844  18.248 -0.0178  0.1350  0.1265
11941W        W54879  21.909  29.393  18.076 -0.1121  0.2052  0.0434
11942W        W54880  22.941  33.651  16.881  0.4113  0.1312 -0.2215
11943W        W54881  22.429  32.671  17.081 -0.0653 -0.2895  0.2081
11944W        W54882  22.465  30.358  17.250  0.2276  0.1351 -0.2594
11945W        W54883  24.095  31.799  18.392  0.3858 -0.1150 -0.2223
11946W        W54884  21.775  33.268  16.630 -0.1315 -0.1722  0.0444
11947W        W54885  23.955  31.316  20.394 -0.3116 -0.1366  0.1175
11948W        W54886  22.212  32.022  18.243  0.0105 -0.1005 -0.1778
11949W        W54887  24.961  30.625  19.723  0.0467 -0.1274  0.0363
11950W        W54888  22.005  32.478  17.165  0.1631 -0.2313  0.0243
11951W        W54889  22.894  31.305  16.405 -0.2213  0.1921  0.0435
11952W        W54890  22.892  30.512  16.722  0.2512  0.2155 -0.1739
11953W        W54891  26.255  30.532  17.811 -0.1582  0.0561 -0.3560
11954W        W54892  25.507  31.017  16.552 -0.0472  0.3388 -0.4008
11955W        W54893  22.471  30.648  19.437  0.3568  0.0096 -0.0237
11956W        W54894  23.867  29.152  17.832 -0.2715 -0.0960  0.0536
11957W        W54895  22.997  33.934  18.564  0.1426  0.0292 -0.2858
11958W        W54896  23.596  31.630  18.534 -0.0743 -0.0786 -0.1202
11959W        W54897  24.184  28.476  16.503 -0.0484  0.0350 -0.1428
11960W        W54898  23.957  31.361  17.591 -0.3061  0.0063 -0.0514
11961W        W54899  21.025  31.172  18.291 -0.0194  0.2244 -0.2007
11962W        W54900  22.061  30.152  16.530 -0.3820  0.1923  0.0756
11963W        W54901  24.419  30.057  18.739  0.0028 -0.0045  0.0770
11964W        W54902  24.332  29.380  16.975  0.1597  0.1791 -0.1105
11965W        W54903  23.409  30.555  16.839  0.0577  0.0422  0.0049
11966W        W54904  23.437  33.080  18.243 -0.2384  0.0326 -0.0182
11967W        W54905  23.830  30.708  15.582 -0.1820 -0.1010 -0.0028
11968W        W54906  22.731  31.868  18.164 -0.3661 -0.5290  0.2587
11969W        W54907  21.940  30.581  18.728  0.0150  0.5589 -0.2738
11970W        W54908  25.833  30.331  19.386 -0.1330  0.2306  0.0290
11971W        W54909  24.864  28.441  18.674 -0.2328 -0.1046 -0.0440
11972W        W54910  23.825  30.630  18.734 -0.1358 -0.1600 -0.1411
11973W        W54911  24.034  30.922  17.303 -0.1687  0.1608 -0.4457
11974W        W54912  25.558  31.826  17.465  0.2596 -0.2149 -0.1013
11975W        W54913  23.306  31.991  18.803 -0.0171 -0.1012 -0.1208
11976W        W54914  22.579  32.581  19.741  0.0580  0.0917  0.0104
11977W        W54915  23.523  28.436  19.111 -0.0685  0.4288 -0.1891
11978W        W54916  24.366  32.852  16.203  0.0427  0.2823 -0.1827
11979W        W54917  24.591  31.772  18.741 -0.0193  0.1507 -0.0650
11980W        W54918  22.423  31.502  16.364 -0.2949 -0.0894  0.0237
11981W        W54919  20.642  30.165  19.739  0.0639  0.3439  0.2285
11982W        W54920  22.360  30.462  16.773  0.0424  0.2795  0.1513
11983W        W54921  23.572  29.765  18.739 -0.1358  0.2541 -0.0086
11984W        W54922  22.014  32.180  17.702 -0.1509 -0.0770 -0.2077
11985W        W54923  22.176  31.127  16.772  0.2580 -0.2102  0.1363
11986W        W54924  21.411  30.941  19.767 -0.2454 -0.1816 -0.0221
11987W        W54925  25.648  28.118  16.603 -0.1890 -0.2364 -0.0926
11988W        W54926  24.052  31.691  16.589  0.2301  0.0270 -0.0978
11989W        W54927  23.889  30.845  18.268  0.2862  0.3054 -0.1841
11990W        W54928  24.808  29.769  20.493 -0.0054 -0.0747  0.3148
11991W        W54929  22.027  28.813  16.969  0.2338  0.1817  0.3659
11992W        W54930  25.797  30.709  20.138 -0.0718 -0.0120  0.1839
11993W        W54931  21.643  29.831  18.155 -0.0975 -0.0875  0.1355
11994W        W54932  24.817  31.675  18.276  0.2581 -0.2737  0.0199
11995W        W54933  20.521  30.673  19.596 -0.1503  0.0898  0.0735
11996W        W54934  23.917  33.921  19.648 -0.0270 -0.1008  0.2166
11997W        W54935  21.159  31.490  19.773  0.0296  0.1112 -0.1277
11998W        W54936  25.064  28.594  17.514 -0.2594 -0.0933  0.2391
11999W        W54937  22.371  29.518  16.653  0.1147 -0.2384 -0.2529
12000W        W54938  24.276  31.856  17.932  0.0735  0.3386  0.1282
12001W        W54939  23.510  31.453  17.660 -0.0916 -0.0966  0.0715
12002W        W54940  22.224  32.665  17.586 -0.0445 -0.0094  0.0995
12003W        W54941  25.957  31.147  17.707 -0.1994  0.0911  0.0711
12004W        W54942  22.362  31.894  18.715  0.2299  0.0084 -0.2222
12005W        W54943  24.989  31.126  17.349 -0.1372 -0.0136 -0.3108
12006W        W54944  23.964  31.237  16.363 -0.3083  0.0847 -0.0557
12007W        W54945  24.416  31.400  18.469  0.2027  0.0568  0.2036
12008W        W54946  22.249  30.105  20.044  0.0128  0.0427  0.0298
12009W        W54947  24.416  30.876  18.211 -0.2011  0.1737 -0.0750
12010W        W54948  23.413  30.755  18.450  0.1676 -0.1324 -0.2491
12011W        W54949  25.594  29.068  19.860  0.1108  0.0186  0.1346
12012W        W54950  24.171  30.479  18.417 -0.1519  0.1969  0.0841
12013W        W54951  22.829  30.826  18.976  0.2195 -0.0588 -0.1345
12014W        W54952  21.062  31.138  20.178 -0.0755 -0.1984 -0.2759
12015W        W54953  22.265  33.439  19.386  0.1468  0.2007  0.0589
12016W        W54954  25.158  30.505  16.435  0.1310  0.1940 -0.0755
12017W        W54955  25.418  31.295  19.388  0.1568 -0.1881 -0.0647
12018W        W54956  26.463  31.454  17.418 -0.2904  0.1180 -0.0948
12019W        W54957  24.375  29.900  15.819 -0.1523  0.0088 -0.0765
12020W        W54958  21.505  29.664  19.445 -0.1674  0.0677  0.4666
12021W        W54959  24.137  32.085  20.316 -0.2204  0.0700 -0.2416
12022W        W54960  23.415  29.234  17.164 -0.1193  0.0507 -0.3887
12023W        W54961  23.936  29.525  20.630  0.1872  0.1635  0.0418
12024W        W54962  23.260  33.232  16.963  0.1432  0.0029  0.3701
12025W        W54963  24.463  31.769  16.975  0.1217  0.1211 -0.3413
12026W        W54964  24.964  29.870  17.436  0.2033  0.0294  0.1459
12027W        W54965  22.625  30.660  18.170  0.1115 -0.0952 -0.2018
12028W        W54966  20.446  32.317  19.790  0.2541  0.2999  0.0822
12029W        W54967  22.583  28.885  16.935 -0.0897 -0.0610  0.0759
12030W        W54968  23.783  31.235  15.920 -0.0264 -0.0953  0.2758
12031W        W54969  23.526  31.282  18.163 -0.3125  0.0791 -0.2129
12032W        W54970  25.002  31.423  19.073 -0.2497 -0.1025 -0.2479
12033W        W54971  23.371  30.424  16.401  0.0109 -0.1160 -0.0381
12034W        W54972  24.511  29.850  19.677  0.4271 -0.3171 -0.1968
12035W        W54973  21.237  31.275  16.769 -0.4469 -0.2932 -0.2540
12036W        W54974  23.105  30.095  16.708  0.0091  0.0333  0.2801
12037W        W54975  22.719  32.669  19.273  0.2390  0.1662  0.1520
12038W        W54976  20.659  30.852  18.083 -0.0285 -0.1887  0.2349
12039W        W54977  22.951  31.354  18.179  0.1751  0.3054 -0.1421
12040W        W54978  23.392  30.078  19.106 -0.1935  0.2783  0.1333
12041W        W54979  24.690  30.935  17.686  0.1173 -0.1399  0.0014
12042W        W54980  22.699  31.506  17.767  0.0102 -0.1334  0.0997
12043W        W54981  24.287  30.929  18.678  0.1514  0.2214 -0.1261
12044W        W54982  24.079  33.035  18.961 -0.0624  0.2522  0.0689
12045W        W54983  24.052  30.826  16.748  0.0354  0.1489  0.0546
12046W        W54984  24.150  32.510  19.081 -0.2369  0.0651 -0.2634
12047W        W54985  27.680  31.269  17.639  0.1929  0.0032 -0.0960
12048W        W54986  23.367  30.474  17.388  0.1081 -0.0427 -0.3608
12049W        W54987  20.176  29.394  19.138 -0.1459  0.0455  0.0081
12050W        W54988  21.662  31.240  20.316 -0.2783  0.2388  0.2441
12051W        W54989  25.380  30.874  17.708  0.0699  0.2354 -0.0554
12052W        W54990  22.263  29.046  16.585  0.0790  0.1622 -0.1425
12053W        W54991  23.731  32.316  16.590  0.1476 -0.2697 -0.2293
12054W        W54992  21.347  32.644  19.395 -0.0611  0.3295 -0.0077
12055W        W54993  22.085  30.451  19.737  0.0113  0.4769  0.0559
12056W        W54994  23.024  33.258  18.009 -0.0630 -0.1108  0.1403
12057W        W54995  24.535  31.540  16.504 -0.1981 -0.0728 -0.1427
12058W        W54996  25.146  31.618  17.251 -0.2483 -0.1471  0.2285
12059W        W54997  23.391  32.172  19.795 -0.1624 -0.0246 -0.0688
12060W        W54998  23.020  30.324  18.234 -0.2976  0.0355  0.0944
12061W        W54999  22.708  32.500  17.581 -0.0405  0.2805  0.4012
12062W        W55000  22.384  32.194  16.830  0.1661 -0.1261  0.0949
12063W        W55001  25.784  30.684  17.995 -0.0650  0.2074  0.4875
12064W        W55002  22.576  33.614  18.147 -0.0392  0.0391 -0.2930
12065W        W55003  23.359  32.591  18.296  0.0777  0.0300  0.0811
12066W        W55004  23.794  29.581  17.063 -0.2052 -0.0979 -0.2624
12067W        W55005  25.870  29.497  19.214 -0.2130 -0.0397 -0.0870
12068W        W55006  25.267  29.847  16.298 -0.1074 -0.3084  0.0891
12069W        W55007  23.667  32.630  19.895  0.0394  0.0870 -0.1108
12070W        W55008  23.108  31.528  17.390  0.0363 -0.1464  0.2715
12071W        W55009  21.798  29.371  17.280 -0.2307 -0.1739 -0.3574
12072W        W55010  21.785  30.774  20.052  0.1747 -0.0990  0.0818
12073W        W55011  26.709  29.689  19.696  0.1055  0.0238 -0.0211
12074W        W55012  20.073  31.737  20.665  0.0752 -0.1857 -0.0661
12075W        W55013  24.866  32.863  16.166 -0.0723 -0.0192 -0.1641
12076W        W55014  22.620  30.872  16.890 -0.1772  0.0814  0.0503
12077W        W55015  23.535  30.869  17.834 -0.0028 -0.1854 -0.0707
12078W        W55016  25.511  29.776  18.762  0.0417 -0.0706  0.1510
12079W        W55017  23.554  32.770  16.763 -0.1376  0.0721  0.0396
12080W        W55018  22.987  29.568  18.192  0.0384 -0.0123  0.1445
12081W        W55019  22.792   0.286  16.737  0.0644 -0.1040  0.0417
12082W        W55020  24.017  31.379  18.187  0.0831  0.2201  0.0687
12083W        W55021  22.399  32.110  17.377 -0.1159  0.2583 -0.2773
12084W        W55022  21.969  28.627  16.482  0.0515 -0.0429  0.0583
12085W        W55023  26.357  29.938  18.250 -0.1169  0.0542 -0.2350
12086W        W55024  23.572  31.002  19.032  0.0939 -0.2016 -0.2826
12087W        W55025  24.391  29.746  19.204  0.1086 -0.1935 -0.4081
12088W        W55026  23.185  30.886  16.144  0.0923  0.2743 -0.0104
12089W        W55027  25.479  30.861  17.160 -0.2232 -0.1186  0.0908
12090W        W55028  24.233  30.911  20.065  0.2587 -0.1125  0.0289
12091W        W55029  22.214  31.707  17.769 -0.2278  0.1422  0.2114
12092W        W55030  23.696  30.714  16.021  0.2145  0.0883 -0.1402
12093W        W55031  24.701  30.506  18.655 -0.0455  0.0115 -0.1059
12094W        W55032  23.621  30.222  16.007 -0.2801 -0.1173  0.2130
12095W        W55033  23.323  33.060  19.799 -0.2472  0.0797 -0.2694
12096W        W55034  21.681  29.440  18.630 -0.0873 -0.0561  0.3480
12097W        W55035  24.027  29.428  16.468 -0.0896  0.2566 -0.1715
12098W        W55036  23.180  31.773  17.926  0.0585  0.3371  0.2898
12099W        W55037  21.789  31.789  18.110 -0.1563  0.2976 -0.0091
12100W        W55038  23.151  32.608  19.602  0.1181 -0.0502 -0.0246
12101W        W55039  21.879  28.919  17.810 -0.1278 -0.1774 -0.1161
12102W        W55040  25.318  32.256  17.824  0.2712 -0.1147 -0.0012
12103W        W55041  26.197  30.923  18.173 -0.1607  0.1904  0.0682
12104W        W55042  22.644  33.545  16.384  0.1096 -0.3069  0.1244
12105W        W55043  25.769  31.326  16.874 -0.0740 -0.0029 -0.0870
12106W        W55044  23.980  32.635  16.965 -0.0408  0.1989  0.1314
12107W        W55045  21.568  30.446  19.786 -0.3447 -0.1155 -0.0949
12108W        W55046  24.916  33.054  18.916 -0.1237 -0.1010  0.0395
12109W        W55047  24.879  30.601  18.168  0.2298 -0.0948  0.3649
12110W        W55048  23.527  29.942  16.559 -0.1070 -0.0983  0.0010
12111W        W55049  23.686  30.053  17.537 -0.0165 -0.2485 -0.0399
12112W        W55050  22.141  33.710  16.730 -0.0979  0.3705  0.1845
12113W        W55051  24.746  30.299  17.734  0.0770 -0.0238  0.1164
12114W        W55052  23.236  28.871  18.622 -0.0300 -0.1078 -0.3063
12115W        W55053  22.811  32.223  16.283 -0.0331 -0.1871 -0.1911
12116W        W55054  24.552  30.183  18.244  0.0342 -0.1552 -0.0406
12117W        W55055  23.286  32.053  18.303  0.0428 -0.2427 -0.1674
12118W        W55056  22.046  30.413  19.227 -0.1197 -0.1157 -0.5515
12119W        W55057  22.021  32.493  16.087  0.0954 -0.2270  0.2521
12120W        W55058  23.471  31.551  19.040  0.0378 -0.0319 -0.1952
12121W        W55059  23.525  32.854  17.389  0.2037 -0.1081  0.1019
12122W        W55060  23.136  33.363  16.473 -0.1481 -0.0188 -0.4759
12123W        W55061  24.855  33.338  16.875 -0.1819  0.1330  0.3476
12124W        W55062  24.268  30.487  17.906  0.0904 -0.0068  0.1020
12125W        W55063  25.486  31.508  17.904 -0.1814 -0.2104  0.0089
12126W        W55064  23.971  29.680  17.806  0.0648  0.1265 -0.1599
12127W        W55065  25.957  28.645  17.304  0.0503 -0.1485  0.0406
12128W        W55066  25.442  29.276  18.334 -0.0482 -0.1666 -0.0161
12129W        W55067  22.838  30.343  18.688 -0.1440 -0.1771  0.0122
12130W        W55068  20.923  29.895  17.772  0.1616 -0.2879 -0.1487
12131W        W55069  22.845  32.270  17.046 -0.0737 -0.2809 -0.0071
12132W        W55070  24.504  31.384  17.945  0.1598  0.0958 -0.0543
12133W        W55071  22.279  29.947  20.533  0.0752 -0.1830 -0.3802
12134W        W55072  21.607  30.850  18.429 -0.0875  0.1691  0.0157
12135W        W55073  21.898  30.189  17.954 -0.1750  0.1548  0.6341
12136W        W55074  23.321  29.511  16.783 -0.0115 -0.0790 -0.0869
12137W        W55075  25.532  31.252  17.414 -0.0209 -0.1384  0.2921
12138W        W55076  22.092  27.904  18.024 -0.2825 -0.1856 -0.0293
12139W        W55077  22.211  29.837  17.380 -0.2336 -0.1476 -0.1521
12140W        W55078  24.125  32.109  16.872 -0.1724 -0.0790 -0.1494
12141W        W55079  25.292  31.261  16.943 -0.1970 -0.1908 -0.1459
12142W        W55080  22.379  29.361  17.102  0.2571 -0.1140 -0.0385
12143W        W55081  25.624  32.452  19.120  0.2258 -0.0116  0.2718
12144W        W55082  21.982  32.615  15.601 -0.1837  0.0027  0.0204
12145W        W55083  24.059  30.802  20.564  0.2046 -0.2421  0.2456
12146W        W55084  22.949  29.208  20.506  0.1178 -0.1511  0.5352
12147W        W55085  22.309  30.398  16.069  0.1246  0.1465  0.0734
12148W        W55086  24.195  31.000  17.793 -0.1927 -0.1441 -0.3644
12149W        W55087  24.446  32.163  17.547  0.0399  0.2476  0.2317
12150W        W55088  24.643  33.937  17.042 -0.0618  0.2450 -0.2292
12151W        W55089  25.679  31.729  18.715  0.0489 -0.1372  0.0057
12152W        W55090  23.161  34.636  18.698  0.3234  0.0110 -0.2058
12153W        W55091  21.822  30.810  19.485 -0.1275  0.0966 -0.0593
12154W        W55092  22.931  30.500  17.788 -0.1353  0.1269 -0.2270
12155W        W55093  22.722  32.695  18.772 -0.2984  0.0816 -0.0470
12156W        W55094  26.048  31.749  16.851  0.2132 -0.1008  0.2169
12157W        W55095  24.513  30.465  19.940 -0.1169 -0.0689  0.0062
12158W        W55096  23.471  31.114  17.249 -0.1469 -0.0898  0.2860
12159W        W55097  21.710  29.975  19.879  0.1156 -0.2297  0.3976
12160W        W55098  21.440  32.307  19.826  0.2018  0.2422 -0.2072
12161W        W55099  26.371  31.911  17.130  0.1708  0.3960 -0.0628
12162W        W55100  23.943  28.664  18.101 -0.1377  0.0809 -0.2603
12163W        W55101  23.833  30.475  17.090 -0.1123 -0.1974 -0.1038
12164W        W55102  24.660  33.313  15.904  0.0979  0.1097 -0.2321
12165W        W55103  22.554  31.217  17.357 -0.1659  0.1213  0.2120
12166W        W55104  22.861  29.185  16.675  0.1801 -0.0941 -0.3572
12167W        W55105  23.717  31.781  18.005 -0.0209  0.1592 -0.0510
12168W        W55106  24.472  31.247  17.390 -0.0227 -0.1516 -0.3113
12169W        W55107  24.822  31.007  18.736 -0.0229  0.4211  0.0961
12170W        W55108  23.685  32.215  17.108 -0.2878 -0.1348  0.2015
12171W        W55109  25.953  30.942  16.326 -0.4893  0.0179  0.0097
12172W        W55110  23.177  33.587  18.934  0.0524 -0.2971  0.1655
12173W        W55111  26.549  31.702  20.273 -0.0671 -0.2763  0.1142
12174W        W55112  23.120  31.798  19.869  0.0005 -0.0269 -0.3533
12175W        W55113  25.375  30.987  18.931  0.2719 -0.4079 -0.0138
12176W        W55114  21.357  29.943  18.579  0.1644  0.0007 -0.1995
12177W        W55115  23.154  30.944  16.663 -0.0966  0.0489 -0.2614
12178W        W55116  25.101  32.585  17.459 -0.3765 -0.0731 -0.1706
12179W        W55117  24.941  30.363  20.161  0.0109  0.3223  0.1973
12180W        W55118  22.159  27.487  18.465 -0.0319  0.2213  0.1006
12181W        W55119  24.129  30.066  17.160  0.2152 -0.0762  0.0792
12182W        W55120  23.657  34.481  18.453  0.0930  0.2382  0.2588
12183W        W55121  24.739  31.969  19.355  0.1974  0.2114 -0.2744
12184W        W55122  23.503  30.787  22.803  0.1932 -0.1765  0.3199
12185W        W55123  22.273  31.013  19.852 -0.0237 -0.1951  0.1991
12186W        W55124  24.507  30.822  19.588 -0.0354  0.3826  0.0942
12187W        W55125  25.249  30.667  21.309  0.1231  0.0108 -0.0075
12188W        W55126  22.372  29.296  22.280 -0.0564 -0.0871  0.2712
12189W        W55127  23.686  32.887  20.344  0.2374 -0.1299  0.1967
12190W        W55128  21.232  28.693  21.905 -0.1319  0.0924 -0.3181
12191W        W55129  23.832  33.847  21.472 -0.0332  0.4410 -0.1358
12192W        W55130  23.891  34.231  21.811  0.0202  0.0038  0.1720
12193W        W55131  23.929  32.154  19.803 -0.0444 -0.1383  0.1213
12194W        W55132  23.127  31.153  22.635 -0.1138 -0.0231 -0.0533
12195W        W55133  22.944  33.318  23.720  0.1468  0.0880  0.0231
12196W        W55134  23.664  30.066  20.736 -0.1097  0.0888 -0.0205
12197W        W55135  21.908  27.931  22.652  0.2812 -0.2540 -0.1417
12198W        W55136  25.253  31.187  21.430  0.1780  0.0269  0.2950
12199W        W55137  21.181  31.211  21.252  0.0152  0.0594 -0.1881
12200W        W55138  22.996  30.101  22.535  0.0845 -0.0965 -0.0911
12201W        W55139  22.653  31.176  19.338 -0.2659  0.0897  0.3308
12202W        W55140  23.516  32.722  20.913 -0.0358  0.0988 -0.1392
12203W        W55141  22.334  30.584  22.587 -0.3040  0.2104 -0.1392
12204W        W55142  24.204  30.458  24.522  0.2547  0.0554 -0.2271
12205W        W55143  22.267  32.963  21.413  0.4662 -0.4270 -0.0665
12206W        W55144  21.827  29.700  20.513 -0.0441  0.1373  0.1121
12207W        W55145  22.193  28.858  20.905 -0.3029  0.1895 -0.1239
12208W        W55146  23.552  31.746  21.257  0.0452  0.0231 -0.2807
12209W        W55147  24.106  30.677  23.017  0.2454 -0.1419  0.0028
12210W        W55148  22.897  31.066  20.929 -0.1200 -0.0211  0.1509
12211W        W55149  24.364  32.517  21.147 -0.0505 -0.1964  0.0022
12212W        W55150  24.045  33.777  22.795 -0.0143 -0.5882  0.0587
12213W        W55151  23.927  31.466  24.123  0.3132 -0.1711  0.1293
12214W        W55152  22.263  30.062  22.239  0.0351  0.0598  0.0346
12215W        W55153  19.369  31.541  21.072 -0.1598  0.4787  0.1912
12216W        W55154  23.581  31.042  20.604  0.1038 -0.3581 -0.0480
12217W        W55155  25.052  31.444  20.971 -0.0899 -0.0975 -0.4102
12218W        W55156  25.005  31.950  22.693  0.2057  0.2433  0.2805
12219W        W55157  22.056  31.476  22.438  0.3292 -0.0675 -0.2549
12220W        W55158  22.806  32.084  20.389  0.3557 -0.0891  0.0650
12221W        W55159  24.218  33.076  24.050 -0.2221 -0.0313  0.0360
12222W        W55160  22.949  31.863  22.183 -0.0346 -0.1987  0.0734
12223W        W55161  23.605  31.132  21.927 -0.1414  0.2028  0.1744
12224W        W55162  22.656  31.047  20.156 -0.2188 -0.1098 -0.0390
12225W        W55163  22.494  30.812  21.069  0.3713 -0.2986 -0.0951
12226W        W55164  23.322  30.806  21.038 -0.1338  0.0037  0.0590
12227W        W55165  23.168  31.304  22.111  0.1372  0.1218 -0.2574
12228W        W55166  23.177  31.473  20.999 -0.0053 -0.1521 -0.2877
12229W        W55167  25.443  30.727  25.162 -0.0958  0.2780 -0.1085
12230W        W55168  22.401  31.761  20.422 -0.0269 -0.1119  0.0290
12231W        W55169  24.169  30.301  19.584  0.1938  0.1648  0.0360
12232W        W55170  22.594  31.955  19.906 -0.1129  0.0470  0.1160
12233W        W55171  24.542  30.406  22.765  0.0283 -0.2722 -0.1512
12234W        W55172  23.304  29.868  22.213  0.1566 -0.0164  0.2684
12235W        W55173  20.476  32.086  20.621  0.1317 -0.0269 -0.3039
12236W        W55174  23.992  30.828  21.830 -0.0988 -0.1596  0.0858
12237W        W55175  23.889  32.246  22.912 -0.0159 -0.1407 -0.1844
12238W        W55176  24.019  30.962  21.032 -0.1750 -0.1701  0.1026
12239W        W55177  23.127  30.420  22.106  0.0636  0.1730 -0.1277
12240W        W55178  21.758  32.315  21.451 -0.1556 -0.1763  0.0163
12241W        W55179  21.735  30.110  20.899 -0.0931 -0.2024 -0.2144
12242W        W55180  24.934  31.090  19.511  0.1514 -0.0184  0.3640
12243W        W55181  24.809  33.754  21.208 -0.0043  0.0636 -0.0952
12244W        W55182  23.698  32.660  18.983 -0.1833 -0.3960  0.0413
12245W        W55183  22.817  29.568  20.935  0.4172  0.1495  0.1038
12246W        W55184  21.783  30.774  22.877  0.0669  0.2108  0.0473
12247W        W55185  21.508  29.983  23.676 -0.0577  0.1323  0.2193
12248W        W55186  22.702  29.637  20.417  0.1379  0.1214  0.1588
12249W        W55187  25.440  31.366  23.365  0.1410  0.0656 -0.1062
12250W        W55188  22.084  31.201  21.905 -0.1572 -0.2026  0.0322
12251W        W55189  24.799  30.420  21.962 -0.1075 -0.0460  0.4093
12252W        W55190  22.920  30.422  21.059  0.0013  0.1835  0.1621
12253W        W55191  23.737  33.041  21.994 -0.2359 -0.0047 -0.0616
12254W        W55192  26.685  30.978  20.707 -0.1198  0.1145 -0.1033
12255W        W55193  23.277  29.546  21.078  0.0613 -0.1539  0.0395
12256W        W55194  24.165  29.172  23.408 -0.0613  0.1904 -0.3039
12257W        W55195  22.705  31.636  19.391 -0.0116 -0.2953  0.2073
12258W        W55196  23.552  30.492  20.408  0.1101  0.1226  0.2859
12259W        W55197  23.819  34.290  23.272 -0.1721 -0.0389  0.0613
12260W        W55198  25.200  30.965  20.933 -0.0348 -0.1355  0.1733
12261W        W55199  22.549  32.177  22.025  0.1162 -0.3343  0.1267
12262W        W55200  23.945  29.627  22.400  0.0200 -0.3904  0.1029
12263W        W55201  23.941  32.877  22.479  0.1444 -0.1197  0.2024
12264W        W55202  21.608  31.854  20.042  0.0621  0.1183  0.2829
12265W        W55203  21.623  31.500  20.727  0.0165  0.0325 -0.1973
12266W        W55204  20.501  31.394  20.025  0.4218  0.0305  0.3672
12267W        W55205  20.538  29.519  23.134  0.4496 -0.2578 -0.1114
12268W        W55206  23.505  30.687  21.851 -0.0747  0.0427  0.2671
12269W        W55207  24.341  30.609  20.971 -0.1852  0.0038 -0.2729
12270W        W55208  22.924  30.265  23.692  0.0856 -0.0166 -0.0142
12271W        W55209  25.053  29.322  21.331  0.3953 -0.0667 -0.2250
12272W        W55210  23.799  31.421  21.582 -0.1275  0.1413  0.1344
12273W        W55211  25.525  33.081  19.951 -0.0256  0.1798  0.0655
12274W        W55212  24.498  30.015  20.235 -0.1292 -0.0315 -0.0023
12275W        W55213  22.140  33.044  18.668 -0.0340 -0.3327 -0.3296
12276W        W55214  21.766  28.747  22.788 -0.0156 -0.1650 -0.0877
12277W        W55215  22.786  30.212  20.476  0.2197  0.0968  0.0717
12278W        W55216  23.124  31.094  23.140  0.3822 -0.1140 -0.1017
12279W        W55217  20.918  29.687  22.143  0.0347  0.0420 -0.1495
12280W        W55218  24.203  31.366  23.152 -0.2659  0.1248  0.1387
12281W        W55219  21.981  28.846  19.988 -0.1614  0.3044  0.1909
12282W        W55220  24.449  28.565  21.484 -0.2016 -0.2040  0.2026
12283W        W55221  23.842  31.300  19.798  0.0192  0.0544  0.2651
12284W        W55222  22.530  31.671  21.174  0.0787  0.0033 -0.0424
12285W        W55223  26.103  30.370  22.461 -0.1063  0.0258  0.1055
12286W        W55224  23.201  32.588  20.432 -0.0972 -0.0941 -0.2579
12287W        W55225  24.932  33.767  22.342 -0.0374 -0.0967 -0.0392
12288W        W55226  23.087  33.465  22.527 -0.1850  0.0507 -0.0147
12289W        W55227  21.686  28.813  21.734  0.0263  0.0988 -0.3263
12290W        W55228  21.997  28.295  20.083  0.0707 -0.1211  0.1578
12291W        W55229  23.956  32.543  20.828  0.1546  0.5016  0.2784
12292W        W55230  23.388  31.936  22.972  0.1400  0.2925 -0.0086
12293W        W55231  22.590  28.901  22.083  0.2352  0.1869 -0.1095
12294W        W55232  22.502  34.417  21.889  0.1308  0.1474 -0.0882
12295W        W55233  24.214  31.744  19.915 -0.1211  0.1507  0.0793
12296W        W55234  22.484  31.622  23.760 -0.0560 -0.0369 -0.0328
12297W        W55235  24.394  29.428  24.646 -0.1989 -0.3154  0.0602
12298W        W55236  23.936  32.771  21.531 -0.0305  0.1137  0.3026
12299W        W55237  24.766  31.186  21.488 -0.2775  0.2515  0.0537
12300W        W55238  21.252  30.286  20.980 -0.2788 -0.1070  0.4413
12301W        W55239  23.133  33.333  21.427  0.5082  0.1348  0.0479
12302W        W55240  21.823  31.419  21.248  0.2094 -0.2039  0.3368
12303W        W55241  21.308  31.139  20.683 -0.0964 -0.1488 -0.1709
12304W        W55242  21.971  30.987  20.747  0.2717 -0.0095  0.0424
12305W        W55243  23.129  30.577  20.637  0.2264  0.4864  0.1066
12306W        W55244  22.061  30.335  23.121  0.0437  0.1198 -0.2176
12307W        W55245  23.812  30.392  22.805 -0.2204  0.3283  0.0357
12308W        W55246  22.168  30.738  20.337 -0.1704  0.1391  0.0111
12309W        W55247  22.199  31.719  23.242  0.1003 -0.2562  0.0755
12310W        W55248  22.602  30.180  19.655  0.1109 -0.0782  0.0165
12311W        W55249  24.526  30.588  20.464  0.0092  0.4067 -0.0920
12312W        W55250  23.305  31.642  22.481 -0.3741  0.1792 -0.1573
12313W        W55251  24.994  31.209  20.455 -0.1826  0.1555 -0.3666
12314W        W55252  24.062  30.448  20.111  0.3081 -0.0594  0.0112
12315W        W55253  24.967  30.661  20.642 -0.0542 -0.2168 -0.0962
12316W        W55254  21.466  30.716  22.509 -0.1755 -0.0820  0.0874
12317W        W55255  24.238  33.001  23.328 -0.0442 -0.2568 -0.1409
12318W        W55256  24.103  32.406  23.303  0.0197  0.0896 -0.0489
12319W        W55257  23.900  29.978  19.167  0.2046  0.2679  0.1793
12320W        W55258  23.647  33.065  21.216  0.0521  0.0908 -0.0686
12321W        W55259  22.118  31.876  21.209 -0.1647  0.2244 -0.1302
12322W        W55260  23.495  32.067  22.191  0.2196 -0.1730  0.0245
12323W        W55261  23.376  31.492  20.482  0.1656  0.0541  0.0313
12324W        W55262  24.265  30.290  22.381 -0.0685  0.2251  0.2683
12325W        W55263  24.035  31.471  19.387 -0.1641  0.0402  0.3173
12326W        W55264  23.755  30.537  20.920  0.1109  0.0440 -0.0836
12327W        W55265  21.587  31.192  21.652 -0.2189  0.2625  0.1518
12328W        W55266  24.857  29.404  21.784 -0.1593 -0.0225  0.3611
12329W        W55267  23.897  27.714  23.203 -0.1778  0.0565  0.0086
12330W        W55268  23.454  29.102  21.421  0.0167 -0.1010  0.0280
12331W        W55269  24.489  30.630  24.922 -0.0606  0.2322  0.0239
12332W        W55270  25.327  31.812  20.602 -0.2343 -0.1583  0.0600
12333W        W55271  24.789  31.363  22.035  0.0714 -0.1171  0.3309
12334W        W55272  22.546  30.529  20.039  0.0455 -0.2071  0.5757
12335W        W55273  24.127  29.430  23.000  0.0074 -0.0644 -0.1001
12336W        W55274  21.783  31.031  23.460 -0.2536  0.0643  0.0548
12337W        W55275  23.095  32.687  22.625 -0.0156 -0.0377  0.0753
12338W        W55276  23.734  32.759  23.990  0.1639  0.4701 -0.0739
12339W        W55277  24.296  33.624  19.890 -0.2039 -0.1750  0.0903
12340W        W55278  23.750  31.009  23.254  0.2999 -0.0962  0.4395
12341W        W55279  23.159  30.383  19.517  0.2884 -0.4177 -0.0808
12342W        W55280  23.387  33.070  22.331 -0.2316  0.2083  0.1817
12343W        W55281  23.184  32.437  19.072  0.1246  0.0371 -0.2757
12344W        W55282  21.817  29.443  22.134 -0.1816 -0.0670 -0.1406
12345W        W55283  23.099  31.981  21.208  0.1607  0.0744  0.0963
12346W        W55284  22.501  31.427  19.887  0.1617 -0.0937  0.1077
12347W        W55285  24.480  32.250  23.616  0.0925  0.3099  0.1160
12348W        W55286  21.529  32.042  21.781  0.1484 -0.0522  0.0878
12349W        W55287  24.874  29.342  24.525 -0.1586  0.1708  0.1426
12350W        W55288  19.881  31.561  21.518  0.2688 -0.0869 -0.3125
12351W        W55289  23.386  30.913  19.763  0.0612 -0.1795 -0.2537
12352W        W55290  22.229  31.263  20.343  0.1008 -0.0612 -0.4229
12353W        W55291  24.664  30.051  22.297  0.1700 -0.0027  0.3357
12354W        W55292  25.263  30.363  20.941 -0.0338  0.0919 -0.2362
12355W        W55293  22.222  29.584  22.637  0.0524 -0.1907 -0.5567
12356W        W55294  23.974  30.375  21.961  0.4071  0.0821 -0.0362
12357W        W55295  22.004  32.498  22.772  0.2724  0.1249 -0.0404
12358W        W55296  23.317  30.850  22.325  0.0191  0.0284 -0.1664
12359W        W55297  24.351  29.173  21.355  0.2433 -0.1507 -0.2518
12360W        W55298  24.636  32.099  23.203 -0.2730  0.1415 -0.1346
12361W        W55299  22.396  31.524  22.821  0.1452  0.2277  0.1376
12362W        W55300  20.581  31.169  20.511 -0.2253  0.1596  0.0125
12363W        W55301  25.453  30.883  22.160  0.0049  0.2708 -0.1867
12364W        W55302  24.779  31.017  22.404  0.0340 -0.0486 -0.3131
12365W        W55303  23.364  31.877  20.780  0.1407  0.2755  0.0217
12366W        W55304  22.865  33.771  22.045 -0.1768 -0.0266  0.0128
12367W        W55305  21.275  30.642  19.405  0.2901 -0.3285  0.2897
12368W        W55306  22.276  32.069  21.609  0.1189  0.1662 -0.0815
12369W        W55307  22.937  29.822  21.841  0.0758  0.0335  0.0809
12370W        W55308  24.580  32.190  22.651  0.1773  0.1015  0.1307
12371W        W55309  24.410  30.342  21.364  0.1153 -0.1291  0.1623
12372W        W55310  21.943  29.927  21.866 -0.1661  0.0074 -0.1643
12373W        W55311  24.019  30.133  21.063 -0.1130  0.1381 -0.0663
12374W        W55312  23.481  32.243  23.962 -0.1506  0.0254  0.0705
12375W        W55313  23.032  31.562  23.614 -0.0966  0.3207 -0.1077
12376W        W55314  22.274  31.300  24.090  0.4050 -0.0196  0.0637
12377W        W55315  23.467  30.083  21.188 -0.0978 -0.1899 -0.1303
12378W        W55316  24.145  31.613  18.938 -0.1661 -0.2613 -0.4233
12379W        W55317  23.604  31.261  22.427  0.0219 -0.1515 -0.0459
12380W        W55318  21.835  31.792  19.596  0.2704 -0.3343 -0.0876
12381W        W55319  22.073  30.061  22.727  0.1334  0.0733 -0.3133
12382W        W55320  22.687  30.753  20.508 -0.0727  0.0251 -0.2952
12383W        W55321  24.003  29.827  21.586  0.1850 -0.3142 -0.1580
12384W        W55322  23.589  31.458  22.932  0.2261  0.3599  0.0213
12385W        W55323  22.072  32.160  19.892 -0.3273  0.2294  0.2234
12386W        W55324  21.822  31.900  22.219 -0.3142  0.2029  0.0358
12387W        W55325  24.103  30.361  20.625 -0.2217 -0.1261 -0.3178
12388W        W55326  24.067  32.606  20.250  0.0245  0.0831 -0.1220
12389W        W55327  23.794  29.578  23.371  0.2931 -0.0329  0.2304
12390W        W55328  25.009  29.023  23.432 -0.1259 -0.0154  0.0989
12391W        W55329  24.790  30.117  19.097 -0.1278 -0.1894 -0.2619
12392W        W55330  25.514  29.592  23.234 -0.0512  0.2409 -0.1628
12393W        W55331  21.453  28.935  22.442 -0.0717 -0.1089 -0.1589
12394W        W55332  26.063  32.622  20.472 -0.2569 -0.1038 -0.0644
12395W        W55333  21.842  29.230  23.151 -0.2332  0.0947 -0.2493
12396W        W55334  24.122  30.910  25.217 -0.0426  0.1607 -0.1214
12397W        W55335  21.137  31.736  23.471 -0.0699 -0.0324 -0.0677
12398W        W55336  22.448  29.262  19.903  0.1161 -0.0267 -0.2436
12399W        W55337  22.623  30.221  19.122 -0.0592 -0.0237  0.0817
12400W        W55338  23.618  32.182  21.045 -0.0726  0.1706 -0.2055
12401W        W55339  23.608  32.380  21.705 -0.0474  0.1206  0.0092
12402W        W55340  23.570  30.454  19.914 -0.2202 -0.0252 -0.1643
12403W        W55341  24.267  31.728  21.688 -0.0828 -0.0195  0.1359
12404W        W55342  22.948  30.835  21.364  0.2652  0.0654  0.2940
12405W        W55343  23.614  31.239  21.103  0.0413 -0.6096  0.0585
12406W        W55344  22.977  31.327  19.704  0.4875  0.2514 -0.2062
12407W        W55345  21.464  30.683  21.832 -0.1718 -0.1803 -0.0100
12408W        W55346  23.518  31.394  23.469 -0.0019  0.2033  0.1445
12409W        W55347  23.665  32.322  20.451  0.0469  0.2503 -0.3988
12410W        W55348  23.678  29.658  21.937 -0.2779  0.1337 -0.1225
12411W        W55349  23.921  30.156  23.337  0.0322 -0.1354 -0.1237
12412W        W55350  24.000  31.106  22.790 -0.1518 -0.3528  0.2792
12413W        W55351  22.633  30.362  22.201 -0.2786  0.2541 -0.1426
12414W        W55352  21.103  30.351  24.463  0.0267  0.0262  0.4639
12415W        W55353  23.718  33.892  22.399  0.3060  0.1238 -0.2159
12416W        W55354  26.670  29.944  19.143 -0.0190  0.0793 -0.2035
12417W        W55355  25.692  30.757  22.579 -0.0551  0.2010  0.2925
12418W        W55356  25.623  30.947  21.119 -0.0002  0.0427  0.2682
12419W        W55357  25.293  30.780  20.064  0.0287  0.2509  0.0902
12420W        W55358  22.637  31.044  22.769 -0.0592  0.2746 -0.2089
12421W        W55359  23.994  31.919  23.666  0.1154  0.0916 -0.1662
12422W        W55360  21.946  30.292  20.439  0.2203  0.1233 -0.2520
12423W        W55361  23.125  30.031  24.090 -0.1562  0.1804 -0.1447
12424W        W55362  22.984  33.455  19.813 -0.0859  0.1655 -0.0913
12425W        W55363  23.128  32.207  21.744 -0.1069  0.1367  0.0301
12426W        W55364  24.281  31.258  21.819 -0.2191  0.0915  0.0347
12427W        W55365  21.546  30.544  20.693  0.0329  0.1593  0.1500
12428W        W55366  22.687  32.685  21.177  0.2583  0.2729  0.0270
12429W        W55367  23.533  29.436  19.651  0.1006  0.0578  0.0040
12430W        W55368  21.127  31.735  20.900 -0.2877 -0.0138 -0.0208
12431W        W55369  24.246  31.293  21.307 -0.0504  0.1199 -0.1888
12432W        W55370  25.165  31.838  24.190 -0.3585  0.0463 -0.0953
12433W        W55371  23.224  29.847  19.552  0.0687  0.3856  0.0101
12434W        W55372  24.178  30.873  23.516 -0.0957 -0.2796 -0.1985
12435W        W55373  20.999  30.886  21.622 -0.0818 -0.0074 -0.0203
12436W        W55374  23.880  29.314  21.561 -0.2543  0.0006 -0.2635
12437W        W55375  23.737  33.358  21.581  0.1615  0.3133 -0.0987
12438W        W55376  21.604  30.284  22.738 -0.1900  0.0954  0.4004
12439W        W55377  23.251  33.726  21.678 -0.1038 -0.2027 -0.1123
12440W        W55378  23.406  30.420  23.218 -0.2895  0.0819 -0.2946
12441W        W55379  23.885  31.732  23.230 -0.0818  0.3434 -0.2097
12442W        W55380  22.864  31.785  20.799 -0.1883  0.1501 -0.0505
12443W        W55381  24.542  31.240  23.484  0.0419 -0.0802  0.0976
12444W        W55382  24.669  33.861  22.828  0.0062  0.1776  0.3046
12445W        W55383  22.432  30.971  21.554  0.0322 -0.2719 -0.0604
12446W        W55384  24.697   0.730  23.657  0.1597  0.1421 -0.1399
12447W        W55385  24.029  31.723  21.219  0.3683 -0.3839  0.1591
12448W        W55386  22.257  31.219  21.117  0.4101  0.0063 -0.3189
12449W        W55387  22.795  30.654  23.231  0.0943  0.0030  0.0160
12450W        W55388  23.113  31.948  23.941  0.1445  0.0866 -0.1803
12451W        W55389  24.006  33.417  21.023  0.2390 -0.1817  0.3331
12452W        W55390  23.383  29.165  20.706 -0.0654  0.0302  0.0381
12453W        W55391  23.382  31.339  20.005  0.1947  0.4096 -0.1436
12454W        W55392  22.839  32.386  24.175 -0.1354 -0.5091  0.0886
12455W        W55393  21.882  30.427  22.352  0.0266 -0.1880 -0.0757
12456W        W55394  22.078  31.580  20.801  0.0123 -0.0752  0.2941
12457W        W55395  23.398  34.033  19.740 -0.0420 -0.0574 -0.1972
12458W        W55396  24.468  31.700  20.450 -0.3400  0.1409  0.2276
12459W        W55397  23.087  32.304  20.829 -0.0475 -0.0405  0.0793
12460W        W55398  23.649  31.782  19.482  0.3154  0.0763  0.0330
12461W        W55399  21.973  30.542  20.978 -0.0958 -0.1913  0.0370
12462W        W55400  22.223  33.208  20.299 -0.1351  0.1987 -0.2790
12463W        W55401  25.666  32.670  20.749 -0.2951  0.1172 -0.2164
12464W        W55402  23.034  33.316  21.905  0.0598 -0.2656 -0.0535
12465W        W55403  24.292  34.028  23.167  0.2676 -0.1598  0.1154
12466W        W55404  24.819  30.459  21.098 -0.0594  0.0710  0.3038
12467W        W55405  25.603  31.919  21.016 -0.1734  0.0122 -0.1190
12468W        W55406  24.534  30.089  21.759  0.2695 -0.5488  0.1700
12469W        W55407  23.391  31.903  23.470 -0.0630  0.0529  0.0888
12470W        W55408  23.877  30.739  22.455  0.0440  0.0708  0.1868
12471W        W55409  22.961  29.809  19.090  0.1887  0.1616  0.5567
12472W        W55410  22.024  30.963  24.425  0.2654  0.0071 -0.0701
12473W        W55411  23.274  29.368  21.929 -0.0003 -0.3022 -0.0328
12474W        W55412  21.919  31.943  25.223  0.0631 -0.1547 -0.2320
12475W        W55413  24.573  33.018  19.808 -0.0889 -0.1845 -0.2326
12476W        W55414  22.839  31.538  20.294  0.2435 -0.2596 -0.0823
12477W        W55415  23.697  31.906  22.597 -0.1514 -0.1005 -0.1763
12478W        W55416  24.527  28.820  23.447 -0.1178  0.1251  0.0994
12479W        W55417  23.075  30.598  20.140 -0.2003 -0.0788 -0.3807
12480W        W55418  23.018  28.974  21.765 -0.1542  0.1179  0.0025
12481W        W55419  21.823  32.743  21.146  0.1215  0.2408  0.1156
12482W        W55420  22.052  31.649  20.040  0.0368 -0.2600  0.0367
12483W        W55421  22.072  31.251  23.092  0.1088 -0.1130 -0.0514
12484W        W55422  22.297  29.108  21.328  0.1897 -0.1214  0.3211
12485W        W55423  25.660  31.419  21.165  0.0555  0.0795  0.0747
12486W        W55424  21.907  31.771  21.619  0.0389 -0.1900  0.2120
12487W        W55425  24.828  29.554  22.288 -0.2815 -0.0964  0.1449
12488W        W55426  22.860  30.405  21.612 -0.0661  0.2252 -0.0899
12489W        W55427  24.354  28.999  21.817  0.0481  0.0434  0.0008
12490W        W55428  23.769  30.110  22.351  0.0709  0.2492  0.2120
12491W        W55429  22.515  30.294  22.912  0.0219  0.1588  0.0809
12492W        W55430  24.507  31.250  19.014 -0.0954  0.2328 -0.2221
12493W        W55431  24.558  30.219  23.536 -0.0453  0.1452  0.1741
12494W        W55432  23.443  31.342  19.493  0.0160 -0.0296 -0.0553
12495W        W55433  22.470  32.286  24.480 -0.2899 -0.3706  0.0825
12496W        W55434  21.377  28.428  21.030  0.1764 -0.1122  0.1398
12497W        W55435  24.687  29.730  21.382  0.0562  0.0572 -0.0174
12498W        W55436  21.124  32.100  20.149  0.2170  0.3285 -0.0497
12499W        W55437  22.553  31.200  24.534 -0.3529 -0.0283 -0.2339
12500W        W55438  23.719  31.221  24.729  0.0344 -0.0755 -0.1278
12501W        W55439  22.229  29.516  20.870 -0.2956  0.0954 -0.0201
12502W        W55440  25.379  32.573  20.116 -0.3964 -0.1169  0.1369
12503W        W55441  24.397  32.973  22.660 -0.0658 -0.2394  0.0451
12504W        W55442  22.528  31.342  20.727 -0.0250  0.1335 -0.3353
12505W        W55443  25.456  31.504  20.251 -0.4286  0.2814  0.0716
12506W        W55444  24.341  34.077  22.423 -0.0982  0.1999 -0.0055
12507W        W55445  21.957  28.912  22.204 -0.2661  0.2066 -0.0627
12508W        W55446  22.448  33.636  23.534 -0.0867  0.0730 -0.0575
12509W        W55447  25.320  32.273  20.797 -0.2947  0.0696 -0.0468
12510W        W55448  22.797  31.312  21.369  0.0733 -0.1290  0.5198
12511W        W55449  22.213  29.218  20.343 -0.3267 -0.2076 -0.0162
12512W        W55450  21.097  32.231  21.102  0.1296 -0.1835 -0.4194
12513W        W55451  24.886  29.614  23.381  0.1033 -0.1494  0.0183
12514W        W55452  24.081  31.117  22.246 -0.0769 -0.0408 -0.0871
12515W        W55453  23.634  32.400  19.406 -0.0208 -0.1517 -0.0353
12516W        W55454  23.755  30.607  23.590 -0.1187 -0.3234  0.0604
12517W        W55455  23.577  32.530  22.635  0.2009  0.1367 -0.0689
12518W        W55456  23.396  32.475  23.081 -0.1223 -0.2151  0.0359
12519W        W55457  22.279  31.492  21.560 -0.2259 -0.1310  0.0573
12520W        W55458  22.068  30.483  23.645  0.2114  0.4216  0.0946
12521W        W55459  23.083  31.034  20.483  0.3120  0.2194 -0.0870
12522W        W55460  23.081  33.547  20.899 -0.0660  0.5438  0.1394
12523W        W55461  23.812  31.888  21.697  0.1543  0.1924 -0.1441
12524W        W55462  23.905  31.870  20.727  0.0176  0.0018  0.3471
12525W        W55463  24.346  32.143  20.874  0.2135  0.1625  0.1584
12526W        W55464  21.997  30.095  21.306 -0.1466  0.0436  0.1799
12527W        W55465  24.768  29.456  20.804 -0.2814 -0.3011 -0.3692
12528W        W55466  24.635  30.351  19.466  0.0071 -0.0071  0.2176
12529W        W55467  22.829  31.536  22.520 -0.2020  0.2923 -0.1556
12530W        W55468  21.647  30.458  21.357 -0.4026  0.1062 -0.0043
12531W        W55469  21.024  31.805  19.105  0.0580 -0.2026 -0.1250
12532W        W55470  23.323  30.480  21.416  0.0742  0.1418 -0.0278
12533W        W55471  23.460  31.908  24.326 -0.2144  0.2088 -0.2200
12534W        W55472  22.086  31.009  22.567 -0.0886  0.0029  0.0052
12535W        W55473  21.142  30.735  21.115  0.0458  0.3050  0.1836
12536W        W55474  21.554  29.322  21.533  0.1402  0.0560  0.2911
12537W        W55475  24.521  32.123  21.417 -0.0103  0.0792 -0.2502
12538W        W55476  22.476  30.062  21.700 -0.0817 -0.1929 -0.1095
12539W        W55477  21.250  29.351  20.514  0.0146 -0.0995  0.2569
12540W        W55478  24.078  32.630  19.603 -0.0154 -0.1705 -0.0158
12541W        W55479  23.822  33.441  19.765  0.1160 -0.0236  0.3255
12542W        W55480  23.732  30.829  21.403 -0.0105 -0.0228  0.1314
12543W        W55481  24.066  31.408  23.634 -0.1088  0.0443 -0.0296
12544W        W55482  19.885  32.722  20.553  0.0737 -0.0191 -0.0034
12545W        W55483  24.756  29.731  24.842  0.2982  0.0429 -0.0306
12546W        W55484  23.543  29.533  22.736 -0.1298 -0.0001 -0.0833
12547W        W55485  22.246  28.342  20.617 -0.2604 -0.1420  0.1403
12548W        W55486  24.509  30.824  21.957  0.0050  0.1301 -0.2526
12549W        W55487  24.404  33.326  21.936 -0.1833 -0.2503  0.0892
12550W        W55488  24.464  32.504  19.884 -0.0053 -0.0620 -0.1717
12551W        W55489  22.331  31.709  22.036 -0.0102  0.2641 -0.1667
12552W        W55490  22.734  33.065  22.451  0.0493 -0.2214 -0.4979
12553W        W55491  20.018  28.541  22.075  0.1382 -0.0899 -0.3156
12554W        W55492  26.218  32.097  20.291  0.2089  0.1335 -0.3285
12555W        W55493  24.600  32.633  23.148 -0.1567  0.0604 -0.1466
12556W        W55494  25.784  30.453  20.653  0.0267  0.2481 -0.0255
12557W        W55495  24.759  29.059  22.127  0.0604 -0.1531  0.0718
12558W        W55496  24.456  31.108  20.575  0.4427  0.1795  0.0921
12559W        W55497  20.837  29.620  24.118 -0.1266 -0.0784  0.0844
12560W        W55498  22.758  31.269  21.868  0.0014 -0.1732 -0.1803
12561W        W55499  24.875  31.175  22.939  0.2043  0.0443  0.1467
12562W        W55500  22.695  29.849  22.285 -0.0693  0.0182 -0.0441
12563W        W55501  24.385  28.377  22.666  0.0512  0.1459 -0.1343
12564W        W55502  24.576  32.346  20.424 -0.1641  0.1446  0.2646
12565W        W55503  22.880  29.973  21.337  0.2614 -0.2200 -0.0571
12566W        W55504  24.832  32.145  20.858  0.2411  0.0840 -0.0920
12567W        W55505  23.208  30.728  23.585 -0.2690  0.4963 -0.0487
12568W        W55506  23.454  32.831  21.655 -0.3267 -0.2037  0.4650
12569W        W55507  24.850  30.513  22.408 -0.1867 -0.0060  0.3438
12570W        W55508  23.109  30.046  20.799  0.0410  0.0057  0.2871
12571W        W55509  27.170  32.758  21.146 -0.2048  0.1147 -0.0329
12572W        W55510  23.890  32.750  23.013  0.2714 -0.0709  0.0305
12573W        W55511  25.435  32.153  24.503 -0.1068  0.1078 -0.1148
12574W        W55512  22.311  33.874  21.953  0.2432 -0.2218 -0.0645
12575W        W55513  24.913  31.593  23.400 -0.2212 -0.2215  0.0795
12576W        W55514  21.460  29.700  21.895  0.0964 -0.0844 -0.0628
12577W        W55515  21.705  31.359  19.844 -0.0308 -0.1804  0.1093
12578W        W55516  23.730  31.577  22.107 -0.2458 -0.0047 -0.0205
12579W        W55517  23.432  30.169  23.671  0.0137  0.0414  0.0313
12580W        W55518  22.628  29.781  22.882 -0.1044 -0.2964  0.3820
12581W        W55519  24.467  29.047  19.543 -0.3866  0.0721  0.1948
12582W        W55520  23.132  32.142  22.592  0.0378  0.3476 -0.4835
12583W        W55521  23.461  30.426  22.479  0.2668 -0.1195 -0.1197
12584W        W55522  22.442  30.847  26.162 -0.3529  0.1310  0.0329
12585W        W55523  22.688  30.113  25.424 -0.1028 -0.1227 -0.1578
12586W        W55524  24.207  29.869  22.077 -0.2131 -0.1810 -0.0740
12587W        W55525  24.073  30.409  24.999 -0.4559  0.0170 -0.0279
12588W        W55526  21.524  31.430  23.447 -0.0971 -0.2365 -0.1878
12589W        W55527  24.343  32.541  25.416  0.0216  0.3843 -0.1330
12590W        W55528  21.986  29.235  26.297 -0.1105 -0.0227  0.0099
12591W        W55529  25.159  30.886  26.173  0.0372  0.0602  0.3500
12592W        W55530  26.387  33.576  27.803  0.2163  0.1017 -0.0170
12593W        W55531  23.789  32.511  22.182  0.0574 -0.2980 -0.0866
12594W        W55532  23.244  31.329  26.780 -0.0753 -0.2401 -0.0979
12595W        W55533  23.115  31.572  27.471  0.1816 -0.0798  0.2029
12596W        W55534  23.301  29.429  23.408  0.1814 -0.0119  0.1516
12597W        W55535  21.639  30.222  24.355 -0.3241 -0.2013 -0.0300
12598W        W55536  25.618  31.121  26.052  0.2253 -0.0773 -0.0578
12599W        W55537  21.382  30.383  23.979 -0.2971  0.0853  0.0591
12600W        W55538  22.299  30.084  25.031 -0.1917 -0.1690 -0.0177
12601W        W55539  22.798  30.931  24.898  0.2194 -0.0459 -0.0511
12602W        W55540  23.534  32.951  25.205  0.0996  0.0126  0.2614
12603W        W55541  21.965  30.856  26.109  0.1752 -0.2389  0.2599
12604W        W55542  23.411  29.996  27.111  0.0526  0.1135 -0.0764
12605W        W55543  21.397  32.356  24.453  0.3968 -0.0120  0.0412
12606W        W55544  21.311  30.833  23.662 -0.0617  0.0027  0.4495
12607W        W55545  21.426  31.487  25.792  0.1200  0.2490  0.1475
12608W        W55546  22.976  31.167  25.709 -0.0354 -0.0802 -0.0173
12609W        W55547  23.767  30.180  27.965  0.3453  0.1150 -0.0533
12610W        W55548  25.384  32.285  25.452 -0.2355 -0.2009  0.1502
12611W        W55549  22.944  31.359  25.190 -0.0718  0.2482  0.2446
12612W        W55550  24.211  32.020  25.081  0.0433 -0.2257  0.0120
12613W        W55551  25.627  31.233  27.592  0.3471  0.1932  0.2227
12614W        W55552  21.076  31.456  22.390  0.0524  0.2534 -0.0263
12615W        W55553  22.002  33.621  26.063 -0.0443 -0.2446 -0.1163
12616W        W55554  23.196  30.542  24.836  0.3532 -0.0888 -0.1371
12617W        W55555  22.932  32.061  24.533  0.3061 -0.2976 -0.0751
12618W        W55556  25.411  32.478  25.896  0.0126  0.5303  0.0731
12619W        W55557  22.428  33.264  27.521  0.0191  0.2340 -0.1903
12620W        W55558  21.912  30.810  21.508  0.2427  0.0757  0.2860
12621W        W55559  24.047  32.837  27.788  0.1924  0.3445  0.0176
12622W        W55560  22.840  32.399  26.966 -0.1381  0.2462 -0.0395
12623W        W55561  24.012  32.114  26.068  0.1680 -0.0861  0.2160
12624W        W55562  22.944  31.436  24.659 -0.0181  0.2503  0.1747
12625W        W55563  22.154  31.506  24.578 -0.2241 -0.0018  0.2606
12626W        W55564  23.089  32.068  27.327 -0.3129 -0.0315  0.0399
12627W        W55565  22.836  31.560  27.080 -0.0540 -0.4148  0.0804
12628W        W55566  22.664  32.154  25.919  0.0524 -0.0087 -0.1752
12629W        W55567  24.149  29.963  27.715  0.2826 -0.0833 -0.0797
12630W        W55568  22.115  31.926  24.346  0.1957  0.0442  0.2168
12631W        W55569  23.756  31.093  23.795 -0.0662  0.0814 -0.1968
12632W        W55570  22.976  28.465  25.377 -0.2558 -0.2154  0.1040
12633W        W55571  24.246  31.345  24.452 -0.0355 -0.0894 -0.0154
12634W        W55572  22.091  29.659  24.369 -0.2415  0.1172 -0.0820
12635W        W55573  22.523  32.667  26.142 -0.1881 -0.0269 -0.0091
12636W        W55574  22.220  29.144  25.586 -0.1324 -0.0409  0.0567
12637W        W55575  24.560  31.875  25.408  0.3056 -0.0803 -0.0721
12638W        W55576  24.573  30.895  26.169  0.3970  0.0603 -0.2501
12639W        W55577  24.842  31.731  25.768 -0.1199  0.2520  0.0213
12640W        W55578  21.751  32.017  26.857 -0.0819  0.4876  0.6081
12641W        W55579  21.437  32.069  25.879  0.2704  0.0716  0.0223
12642W        W55580  23.362  31.607  24.955  0.1289 -0.3923 -0.0681
12643W        W55581  25.297  31.338  25.289 -0.1239  0.1486 -0.0457
12644W        W55582  22.292  31.278  25.030 -0.2432 -0.1853 -0.4448
12645W        W55583  22.182  32.157  24.824  0.3432 -0.0441  0.1710
12646W        W55584  22.805  29.720  27.857  0.3658  0.2287 -0.3351
12647W        W55585  21.797  30.015  28.148  0.3460  0.0573  0.0575
12648W        W55586  23.038  30.623  22.775 -0.0969 -0.2215  0.3597
12649W        W55587  25.422  32.193  26.321  0.1209  0.3045 -0.0064
12650W        W55588  21.960  31.923  25.846  0.1210 -0.0046 -0.0695
12651W        W55589  25.072  30.098  24.715 -0.0827 -0.0757  0.0173
12652W        W55590  23.670  31.124  26.673  0.0684  0.2523  0.0795
12653W        W55591  25.392  31.482  25.767  0.0692  0.1078 -0.3547
12654W        W55592  24.026  31.538  22.497  0.0401  0.1272  0.0027
12655W        W55593  24.126  29.504  26.734 -0.0083  0.0797 -0.0844
12656W        W55594  21.776  29.652  27.730  0.0916 -0.0312 -0.0053
12657W        W55595  21.156  31.572  24.981 -0.2457  0.2002  0.0550
12658W        W55596  21.435  31.909  23.124  0.3033  0.0811 -0.0621
12659W        W55597  24.835  33.083  26.413 -0.0432  0.3089  0.2053
12660W        W55598  22.566  31.328  23.255  0.2402  0.2922  0.2057
12661W        W55599  22.040  33.186  24.648  0.3979 -0.0223 -0.2207
12662W        W55600  22.693  29.494  26.888 -0.2811 -0.3441 -0.1518
12663W        W55601  24.478  32.543  27.257 -0.0310 -0.3054  0.1434
12664W        W55602  22.283  32.657  22.220  0.1655  0.2110 -0.0313
12665W        W55603  22.008  30.910  25.297 -0.2188 -0.0925  0.1003
12666W        W55604  21.764  31.885  23.457  0.0785  0.0869  0.1648
12667W        W55605  22.583  30.739  27.806  0.1851 -0.0285  0.0499
12668W        W55606  23.832  32.215  24.755  0.2411  0.0687 -0.0572
12669W        W55607  25.014  30.012  23.768 -0.1793 -0.0897 -0.1490
12670W        W55608  22.374  28.361  27.101  0.0772  0.2198 -0.0782
12671W        W55609  25.265  29.693  26.117 -0.2180 -0.0939 -0.0623
12672W        W55610  21.979  33.792  25.436  0.3787  0.1760  0.2033
12673W        W55611  23.959  31.965  24.202  0.0496  0.0328  0.0791
12674W        W55612  23.380  29.222  25.527 -0.0132 -0.1485 -0.5073
12675W        W55613  23.531  33.505  22.067 -0.1457  0.1449  0.2717
12676W        W55614  22.203  31.674  27.187 -0.1769 -0.1088  0.2555
12677W        W55615  22.149  30.406  24.539  0.2305 -0.4942  0.0661
12678W        W55616  22.653  28.778  27.715  0.1117 -0.0594 -0.0408
12679W        W55617  22.292  31.289  25.861 -0.2024 -0.1147  0.2967
12680W        W55618  25.910  31.587  27.357 -0.2925 -0.2080  0.4384
12681W        W55619  21.589  30.709  24.585 -0.0359 -0.0660  0.1471
12682W        W55620  23.013  29.407  26.509 -0.2925  0.1782  0.1034
12683W        W55621  23.217  31.073  23.908 -0.0683 -0.1269  0.1450
12684W        W55622  22.109  29.560  24.939 -0.2132  0.1807 -0.1197
12685W        W55623  24.069  30.428  26.869  0.1518  0.1895 -0.0047
12686W        W55624  23.520  33.236  24.753  0.1485 -0.0326  0.1054
12687W        W55625  24.455  32.398  27.898 -0.0751  0.0776 -0.2048
12688W        W55626  24.620  31.679  24.963  0.0078 -0.5159 -0.0547
12689W        W55627  23.534  29.255  26.478 -0.1337 -0.0277 -0.2005
12690W        W55628  21.854  29.288  24.618 -0.2106  0.0704  0.1296
12691W        W55629  20.635  33.834  26.679  0.2538  0.2281 -0.0243
12692W        W55630  23.622  30.551  26.012 -0.1158  0.0472  0.1025
12693W        W55631  22.766  29.369  24.587  0.1269  0.0877 -0.1936
12694W        W55632  24.411  32.607  25.900 -0.1041  0.0332  0.3075
12695W        W55633  22.966  31.541  22.997 -0.3048 -0.1770 -0.2501
12696W        W55634  22.771  30.237  27.862 -0.2933  0.1221 -0.0186
12697W        W55635  23.146  30.274  25.333  0.0721  0.0239 -0.2056
12698W        W55636  25.796  30.175  26.904  0.0724 -0.4644 -0.0608
12699W        W55637  23.731  31.347  26.251 -0.0851 -0.1245 -0.0203
12700W        W55638  22.024  29.537  23.910  0.1722  0.0433  0.2712
12701W        W55639  24.079  32.552  26.374  0.1672  0.0753  0.0039
12702W        W55640  21.925  31.772  22.830 -0.2542 -0.2855 -0.2544
12703W        W55641  22.026  32.369  25.494  0.2541  0.0010  0.1052
12704W        W55642  23.380  32.434  24.403  0.0841 -0.1183 -0.1121
12705W        W55643  23.372  28.821  24.641 -0.2152 -0.0879  0.2292
12706W        W55644  22.803  31.526  26.580  0.0332 -0.2016 -0.1682
12707W        W55645  24.336  30.626  26.502 -0.2680  0.1575 -0.2266
12708W        W55646  22.829  30.195  24.920  0.0816  0.0275 -0.1002
12709W        W55647  22.135  31.948  27.731 -0.1642 -0.1683  0.1044
12710W        W55648  23.079  29.797  25.351 -0.1407  0.0363 -0.3236
12711W        W55649  24.498  31.190  24.982 -0.1243 -0.1592 -0.1382
12712W        W55650  24.889  30.682  26.567 -0.1239 -0.1799 -0.1130
12713W        W55651  24.418  31.117  23.956  0.1127 -0.1862  0.0143
12714W        W55652  23.669  29.009  23.462 -0.0393  0.1187  0.1680
12715W        W55653  24.052  29.159  22.566  0.0903  0.0358  0.2672
12716W        W55654  23.468  31.131  28.133  0.2563  0.2359 -0.0228
12717W        W55655  23.697  32.045  25.199 -0.0613 -0.0652  0.1813
12718W        W55656  23.258  30.630  25.704  0.0464  0.3358  0.0440
12719W        W55657  24.062  30.329  23.782  0.0693 -0.0459  0.0009
12720W        W55658  25.267  31.704  23.735 -0.1327 -0.1562  0.4806
12721W        W55659  21.428  31.501  26.650  0.1731  0.0700  0.1956
12722W        W55660  24.829  31.875  26.358 -0.1721 -0.1382 -0.2218
12723W        W55661  24.275  31.818  24.619 -0.0864 -0.5148  0.3831
12724W        W55662  23.516  28.971  26.967 -0.1399 -0.0146 -0.4167
12725W        W55663  23.675  29.058  24.298 -0.2061  0.1656  0.3206
12726W        W55664  23.468  27.935  24.981 -0.0013 -0.2091 -0.1004
12727W        W55665  21.286  33.177  22.753 -0.0637  0.0557 -0.0416
12728W        W55666  23.285  30.196  26.020  0.1805 -0.2810 -0.0035
12729W        W55667  22.907  30.613  26.107 -0.0578  0.1055  0.1964
12730W        W55668  22.815  28.469  26.942 -0.2949 -0.0196 -0.2451
12731W        W55669  25.857  30.570  28.179 -0.2702  0.0519  0.1492
12732W        W55670  23.539  30.574  23.995 -0.1585  0.2548  0.0934
12733W        W55671  23.312  30.917  25.309  0.1321  0.1545  0.1332
12734W        W55672  22.263  28.589  24.960  0.0292 -0.1676  0.0077
12735W        W55673  22.431  29.654  25.544  0.0039 -0.3678 -0.2447
12736W        W55674  22.317  31.279  28.441 -0.1723 -0.1651  0.0633
12737W        W55675  22.675  31.695  27.803 -0.0757  0.3186  0.2540
12738W        W55676  24.902  33.131  27.241 -0.1751  0.2313 -0.2429
12739W        W55677  22.667  32.360  24.998  0.2419 -0.0741 -0.2194
12740W        W55678  24.604  30.369  26.842 -0.0742  0.1572  0.1306
12741W        W55679  25.426  30.550  24.612 -0.0987  0.1525  0.0244
12742W        W55680  22.580  32.554  25.468 -0.1107  0.0494  0.0932
12743W        W55681  24.013  32.536  24.345 -0.0087 -0.0215  0.2644
12744W        W55682  21.374  30.875  24.146  0.1716  0.1460 -0.0337
12745W        W55683  22.553  31.863  26.791  0.0256 -0.4738  0.1416
12746W        W55684  23.283  31.678  21.705 -0.0447  0.0666 -0.3187
12747W        W55685  24.136  32.023  25.612 -0.1944  0.0600 -0.3474
12748W        W55686  22.129  32.599  25.050 -0.2913  0.0136 -0.1633
12749W        W55687  23.922  29.162  25.354  0.0254  0.0541  0.1216
12750W        W55688  22.205  32.353  25.924 -0.0004  0.1018  0.2896
12751W        W55689  22.078  30.133  24.107 -0.2534 -0.0131  0.5908
12752W        W55690  21.204  33.343  26.016  0.1423  0.3267 -0.2154
12753W        W55691  24.482  30.026  25.943  0.0481 -0.0205 -0.1139
12754W        W55692  22.154  33.193  23.291 -0.0255  0.2358 -0.2019
12755W        W55693  22.524  29.388  26.000 -0.1267 -0.0481 -0.0411
12756W        W55694  21.975  29.005  25.016  0.0691 -0.0126 -0.1624
12757W        W55695  21.436  33.406  26.694 -0.0497  0.2226 -0.0682
12758W        W55696  23.968  30.943  26.088  0.1005  0.1265  0.3708
12759W        W55697  24.603  29.299  23.661  0.2375  0.0526 -0.3281
12760W        W55698  24.427  32.111  26.328 -0.0188 -0.0898  0.2275
12761W        W55699  22.058  29.821  28.628 -0.1043 -0.1949 -0.1668
12762W        W55700  19.628  31.389  22.797 -0.1923 -0.2312 -0.1898
12763W        W55701  25.766  29.695  26.236  0.1060 -0.1439 -0.0216
12764W        W55702  21.851  32.405  24.271  0.0406  0.2228  0.1444
12765W        W55703  22.698  33.755  24.413 -0.0473 -0.0975 -0.0585
12766W        W55704  23.190  31.449  26.142  0.2269  0.2685 -0.0293
12767W        W55705  21.710  31.154  23.959  0.0451  0.1889 -0.1300
12768W        W55706  21.850  32.517  27.147 -0.4377  0.0791  0.0865
12769W        W55707  22.196  30.602  25.761 -0.0526  0.0856 -0.1776
12770W        W55708  24.488  31.950  26.909 -0.1010 -0.1252 -0.3137
12771W        W55709  21.788  30.647  26.722 -0.0554 -0.0217 -0.0003
12772W        W55710  22.818  31.078  26.926 -0.0192  0.4320 -0.2957
12773W        W55711  22.943  31.904  26.291  0.0584 -0.2490  0.1615
12774W        W55712  23.558  32.230  27.365 -0.1483  0.0754 -0.1807
12775W        W55713  22.735  29.869  26.049  0.1651 -0.0323 -0.0774
12776W        W55714  22.663  32.565  28.667 -0.1653 -0.2494  0.3433
12777W        W55715  24.586  28.610  25.060 -0.1163 -0.3661  0.1332
12778W        W55716  25.725  32.640  24.564  0.2514  0.0411 -0.0320
12779W        W55717  25.314  31.167  27.157 -0.1419  0.1261  0.2504
12780W        W55718  22.562  30.232  24.113 -0.0421  0.0216 -0.1540
12781W        W55719  20.980  32.275  26.225 -0.2128 -0.2873  0.5123
12782W        W55720  22.526  31.730  24.832 -0.2745  0.3996 -0.1322
12783W        W55721  24.088  30.967  26.920 -0.3242 -0.0746  0.1351
12784W        W55722  20.658  32.266  24.851 -0.0943  0.2216 -0.2002
12785W        W55723  22.253  30.943  23.563 -0.3025 -0.0691  0.0717
12786W        W55724  21.329  33.005  26.416  0.0097  0.3814  0.3438
12787W        W55725  24.640  29.214  25.957  0.0283  0.0081 -0.2857
12788W        W55726  24.598  30.182  24.574  0.1487  0.0983  0.0203
12789W        W55727  22.621  30.353  25.829 -0.0139 -0.0855 -0.1347
12790W        W55728  26.371  29.738  26.101  0.1939  0.2737  0.1512
12791W        W55729  23.448  30.849  24.422 -0.1469 -0.0484  0.1092
12792W        W55730  23.698  30.185  26.352 -0.0030  0.0812  0.3135
12793W        W55731  21.963  30.189  26.801 -0.0855  0.0702 -0.0402
12794W        W55732  22.920  32.660  24.637 -0.4288 -0.1212  0.1354
12795W        W55733  23.046  29.602  25.821 -0.1614 -0.2056  0.0156
12796W        W55734  24.500  33.015  28.029  0.1901  0.0071  0.2547
12797W        W55735  22.327  32.179  28.558  0.1009  0.0034 -0.0773
12798W        W55736  23.651  28.982  26.025  0.0244 -0.0657 -0.4516
12799W        W55737  22.176  28.506  24.007 -0.0430  0.0211 -0.1467
12800W        W55738  22.285  33.242  26.331  0.0980 -0.1958 -0.0143
12801W        W55739  25.284  31.962  25.924 -0.0382 -0.2501  0.0525
12802W        W55740  21.843  31.505  25.003 -0.2095  0.2043 -0.1169
12803W        W55741  23.110  29.511  24.920 -0.2408  0.1150 -0.2103
12804W        W55742  21.760  31.994  27.379 -0.1299  0.1071 -0.0164
12805W        W55743  23.394  30.938  26.242  0.0872  0.2715 -0.2634
12806W        W55744  24.374  31.693  26.022 -0.1952 -0.2883  0.1015
12807W        W55745  22.390  31.753  25.761  0.1769 -0.0132 -0.3415
12808W        W55746  21.799  29.102  28.004 -0.2758 -0.0405  0.0345
12809W        W55747  25.513  29.258  26.081 -0.2504 -0.0160  0.0258
12810W        W55748  23.005  28.877  25.726 -0.1552 -0.1455  0.2087
12811W        W55749  25.678  31.178  24.359  0.0149  0.3107  0.1108
12812W        W55750  26.773  31.154  26.993  0.0425 -0.0857 -0.0812
12813W        W55751  22.437  30.148  26.965  0.0508  0.0069 -0.0323
12814W        W55752  23.731  29.515  27.108  0.0855  0.1576  0.0029
12815W        W55753  23.832  32.654  27.233 -0.0327 -0.2137  0.1836
12816W        W55754  23.903  29.554  24.288  0.2360 -0.0348 -0.0141
12817W        W55755  24.272  29.956  26.436 -0.1121  0.2817  0.0837
12818W        W55756  24.648  30.895  25.340  0.0405 -0.1729  0.1964
12819W        W55757  24.160  30.170  25.536 -0.0677 -0.0206 -0.3681
12820W        W55758  22.152  30.105  25.577 -0.0185 -0.0992 -0.0211
12821W        W55759  25.016  30.088  26.605  0.2353  0.0622 -0.0512
12822W        W55760  21.570  30.455  23.452  0.0652 -0.1444  0.3084
12823W        W55761  24.387  30.345  27.417  0.0335 -0.2179  0.1246
12824W        W55762  22.209  33.491  24.240  0.0069 -0.0033 -0.2692
12825W        W55763  25.226  30.406  26.272 -0.4580  0.0106 -0.0321
12826W        W55764  23.272  29.780  26.253 -0.2918  0.0068  0.0000
12827W        W55765  21.873  31.392  26.080  0.1774  0.2254  0.3592
12828W        W55766  22.437  32.818  27.674  0.0424  0.0151  0.1337
12829W        W55767  22.475  30.278  23.437  0.0724 -0.1452  0.2663
12830W        W55768  24.673  30.287  24.049 -0.0975 -0.3176 -0.1813
12831W        W55769  24.059  31.718  26.479  0.0310 -0.3312 -0.0748
12832W        W55770  24.269  31.655  27.380  0.1231 -0.1363 -0.5006
12833W        W55771  22.650  30.671  23.713  0.1487  0.1912  0.1773
12834W        W55772  25.279  29.967  27.066  0.0016  0.0701 -0.0873
12835W        W55773  22.018  31.408  23.701  0.2726  0.0375 -0.0594
12836W        W55774  24.656  29.535  25.301  0.1735 -0.0463 -0.5318
12837W        W55775  22.250  32.165  27.045 -0.0947  0.1937  0.2657
12838W        W55776  21.116  32.746  25.248  0.1303 -0.1664 -0.0882
12839W        W55777  23.061  32.809  25.211  0.2032 -0.0826  0.1963
12840W        W55778  23.283  29.472  26.961  0.0999 -0.2999 -0.2989
12841W        W55779  22.839  30.679  25.476  0.0137 -0.0342  0.0954
12842W        W55780  24.275  31.269  25.518  0.0342 -0.0284 -0.0814
12843W        W55781  24.814  31.114  27.423  0.1079 -0.2138  0.0655
12844W        W55782  23.827  32.198  26.680  0.0676  0.1322  0.0065
12845W        W55783  22.535  31.073  25.445  0.2854  0.1915 -0.1042
12846W        W55784  23.562  31.816  26.148 -0.3089 -0.1228  0.2913
12847W        W55785  24.682  30.299  25.607 -0.2891 -0.1402  0.0520
12848W        W55786  23.476  31.770  27.094 -0.1689  0.0423 -0.1974
12849W        W55787  20.769  30.695  27.590 -0.1051 -0.1251 -0.1923
12850W        W55788  24.245  31.272  26.291 -0.1093 -0.0308  0.2809
12851W        W55789  24.335  30.741  25.753 -0.1125 -0.2158  0.2530
12852W        W55790  21.423  29.519  25.579  0.0084 -0.1104 -0.1157
12853W        W55791  22.588  33.381  25.017 -0.0450 -0.1052 -0.2412
12854W        W55792  20.510  30.454  28.526  0.0686  0.0600 -0.0825
12855W        W55793  22.350  31.744  26.313  0.3621  0.3376 -0.0110
12856W        W55794  22.188  33.159  25.157  0.2457  0.1561 -0.0049
12857W        W55795  23.504  32.775  23.506  0.0639  0.0618  0.0833
12858W        W55796  23.028  31.505  24.131 -0.3345  0.3237  0.2550
12859W        W55797  23.498  33.491  26.518 -0.2225  0.2414 -0.1155
12860W        W55798  23.763  30.215  24.713 -0.1823  0.1701  0.2729
12861W        W55799  22.613  32.756  26.723  0.2312  0.1905  0.1926
12862W        W55800  22.150  32.192  23.520 -0.0671 -0.2987  0.0029
12863W        W55801  23.750  30.107  24.148 -0.0999  0.1522  0.2329
12864W        W55802  21.574  33.562  25.822 -0.0454  0.3814  0.0838
12865W        W55803  25.488  32.381  27.365  0.0223 -0.0854  0.0547
12866W        W55804  24.979  31.048  23.445  0.0488 -0.2123 -0.0956
12867W        W55805  23.365  30.337  24.425  0.1644  0.0221 -0.0234
12868W        W55806  24.135  30.932  24.708  0.2170  0.0327 -0.1638
12869W        W55807  24.811  32.746  27.727 -0.2616  0.0007 -0.0474
12870W        W55808  22.238  31.229  26.368 -0.5238 -0.1394  0.3680
12871W        W55809  22.287  30.835  23.071 -0.1102 -0.1560 -0.1772
12872W        W55810  21.612  29.992  25.658 -0.1331  0.1043 -0.0685
12873W        W55811  25.766  30.725  27.669  0.2350 -0.0566 -0.1164
12874W        W55812  21.402  32.035  27.753  0.3150 -0.1638  0.1343
12875W        W55813  23.549  33.894  24.617  0.0219  0.0119 -0.1065
12876W        W55814  23.505  31.351  24.295  0.0685  0.2248 -0.0052
12877W        W55815  22.256  30.484  26.437  0.0135  0.0637  0.2430
12878W        W55816  26.577  29.311  26.177  0.0614 -0.2416  0.2108
12879W        W55817  24.321  30.808  21.514 -0.1448 -0.1264  0.0541
12880W        W55818  23.011  31.049  24.378  0.3894  0.1021 -0.1469
12881W        W55819  22.728  33.117  26.156 -0.0044 -0.2595  0.4876
12882W        W55820  22.183  32.544  26.668  0.0118  0.1659  0.2113
12883W        W55821  23.676  32.722  26.731 -0.0275 -0.1300 -0.2242
12884W        W55822  22.039  29.983  23.616  0.3770  0.1100 -0.0847
12885W        W55823  26.437  29.912  24.882  0.1343 -0.2582 -0.0433
12886W        W55824  21.686  31.856  26.300  0.0720  0.0830  0.0967
12887W        W55825  22.468  29.371  26.477  0.0370 -0.2789 -0.0729
12888W        W55826  23.490  29.853  25.634  0.1218 -0.1074  0.0975
12889W        W55827  25.075  29.895  25.211  0.2220 -0.1127  0.1059
12890W        W55828  22.565  31.943  27.390  0.0826  0.0513  0.1945
12891W        W55829  21.757  31.528  27.103  0.2221 -0.1364 -0.0833
12892W        W55830  22.736  31.172  23.870  0.3938  0.1882  0.1542
12893W        W55831  25.342  30.407  26.799  0.5376 -0.0197  0.3051
12894W        W55832  24.357  31.704  24.019 -0.2425  0.1344 -0.2015
12895W        W55833  24.786  33.506  28.286 -0.0137  0.0448 -0.0582
12896W        W55834  23.014  27.518  24.284 -0.3036  0.1235  0.1989
12897W        W55835  23.658  30.350  25.523  0.1578 -0.0920 -0.1576
12898W        W55836  21.803  32.477  23.735 -0.0847 -0.1258 -0.0018
12899W        W55837  22.187  30.493  28.077  0.0682  0.0126  0.3146
12900W        W55838  24.494  31.135  28.217  0.0582  0.0714  0.1129
12901W        W55839  21.857  28.496  25.263 -0.1079  0.4382 -0.3436
12902W        W55840  24.792  31.897  23.792 -0.2344  0.3486 -0.1375
12903W        W55841  23.219  30.782  26.782 -0.0085  0.1093 -0.1678
12904W        W55842  23.840  33.025  24.407 -0.0083 -0.0872  0.0026
12905W        W55843  23.379  32.139  26.470 -0.1711 -0.1501  0.1665
12906W        W55844  24.057  31.486  24.946  0.0488  0.2983 -0.0829
12907W        W55845  22.673  30.521  24.551 -0.0169  0.1173  0.0525
12908W        W55846  24.699  32.572  24.622 -0.0485  0.0916  0.0485
12909W        W55847  24.930  32.621  25.986 -0.2928  0.1219 -0.1695
12910W        W55848  24.213  28.191  24.183 -0.2844 -0.0663 -0.0046
12911W        W55849  22.321  30.862  24.774 -0.0211  0.0147 -0.1906
12912W        W55850  21.484  33.899  25.477  0.0428 -0.0423  0.1264
12913W        W55851  23.953  29.970  25.931 -0.0544  0.1061 -0.0235
12914W        W55852  24.103  30.438  26.117  0.0819 -0.1251  0.0951
12915W        W55853  22.159  32.711  24.554  0.0071 -0.1948 -0.1343
12916W        W55854  25.406  30.605  25.844 -0.2486 -0.0086  0.2995
12917W        W55855  25.181  31.926  26.737 -0.3021 -0.0609 -0.0362
12918W        W55856  23.005  32.840  27.768  0.3701 -0.0163  0.1435
12919W        W55857  21.849  31.047  24.861  0.0721  0.0379  0.0398
12920W        W55858  24.189  31.115  27.374 -0.1496  0.0312  0.0396
12921W        W55859  23.636  31.264  25.252 -0.0729  0.0517 -0.1353
12922W        W55860  22.917  31.884  25.037 -0.3067 -0.0091 -0.0380
12923W        W55861  26.028  33.491  27.081  0.1329  0.1215  0.1962
12924W        W55862  23.315  30.013  24.920 -0.1065 -0.1717 -0.0977
12925W        W55863  25.224  32.648  26.419 -0.1645  0.2922 -0.4199
12926W        W55864  22.515  30.025  24.537 -0.1044  0.1152  0.1218
12927W        W55865  26.787  30.705  26.665 -0.2632 -0.2940 -0.1007
12928W        W55866  24.906  29.441  24.045  0.1272  0.2656  0.4940
12929W        W55867  22.517  32.243  26.432 -0.1412  0.0206  0.2868
12930W        W55868  19.607  32.174  24.276  0.0872  0.1066 -0.1127
12931W        W55869  21.349  30.601  23.027 -0.1629  0.2220 -0.3341
12932W        W55870  20.970  32.063  25.347 -0.3154 -0.1214 -0.2143
12933W        W55871  22.398  31.306  26.894  0.0076  0.0658 -0.1947
12934W        W55872  21.448  30.477  28.030  0.0658  0.0125 -0.0748
12935W        W55873  22.452  32.059  25.381  0.0363  0.1855 -0.0817
12936W        W55874  23.171  29.180  26.102 -0.1763  0.2022  0.2305
12937W        W55875  24.630  31.251  25.849  0.2060 -0.2019 -0.0026
12938W        W55876  21.690  30.163  26.373  0.1914  0.0531 -0.0980
12939W        W55877  22.537  29.161  25.125  0.1614  0.2362  0.0504
12940W        W55878  23.863  29.937  25.203  0.1363 -0.2433  0.3907
12941W        W55879  24.886  32.370  25.501 -0.1583 -0.2716 -0.1076
12942W        W55880  22.410  30.743  24.199 -0.1801 -0.1591 -0.4714
12943W        W55881  24.551  31.417  27.085 -0.0990  0.0546  0.0638
12944W        W55882  21.410  31.828  24.371  0.0633 -0.0969 -0.1742
12945W        W55883  23.945  30.676  27.317  0.4783  0.0490 -0.1414
12946W        W55884  23.793  29.494  25.846  0.1097 -0.0650  0.1835
12947W        W55885  20.596  30.111  24.161  0.0095  0.6161 -0.1547
12948W        W55886  22.717  31.409  26.108 -0.1689 -0.0960  0.0401
12949W        W55887  23.948  30.920  24.211 -0.1836  0.2751  0.1475
12950W        W55888  23.247  31.103  24.854 -0.0714 -0.1595  0.2642
12951W        W55889  23.749  30.649  26.561 -0.1666 -0.0847 -0.0617
12952W        W55890  22.279  31.740  28.172  0.3530  0.3686  0.0854
12953W        W55891  21.744  27.710  26.957 -0.5826  0.0972  0.1999
12954W        W55892  24.670  32.215  24.999 -0.0914  0.0563 -0.0159
12955W        W55893  23.978  32.273  27.658 -0.0259 -0.0708 -0.2578
12956W        W55894  24.132  32.693  23.730 -0.1137 -0.1096  0.2356
12957W        W55895  24.916  30.619  25.878 -0.2228 -0.2933 -0.0330
12958W        W55896  23.682  30.753  24.971 -0.2593  0.0722  0.1614
12959W        W55897  22.941  30.392  27.052  0.0315 -0.1363  0.3985
12960W        W55898  22.623  32.168  27.883 -0.2414 -0.1242 -0.1654
12961W        W55899  26.428  32.667  25.609  0.1049  0.1989 -0.1468
12962W        W55900  23.343  29.492  24.271 -0.0097  0.2355 -0.2219
12963W        W55901  23.541  29.532  25.210  0.2007 -0.2587  0.3962
12964W        W55902  21.715  32.423  24.885 -0.0502  0.0494  0.0521
12965W        W55903  21.785  31.152  26.564 -0.1502 -0.0077  0.0518
12966W        W55904  23.505  31.656  23.897 -0.0799 -0.1245  0.1512
12967W        W55905  22.517  30.298  27.412 -0.2110 -0.1150  0.1370
12968W        W55906  25.144  31.042  25.674  0.1679  0.1835  0.1142
12969W        W55907  25.303  31.714  27.243  0.1582 -0.1235 -0.0861
12970W        W55908  22.013  29.019  23.975 -0.2227  0.0363  0.0080
12971W        W55909  25.894  30.661  25.932 -0.1151 -0.4526 -0.1889
12972W        W55910  25.035  33.988  27.398 -0.0465 -0.1104  0.1459
12973W        W55911  25.300  32.681  28.076  0.2127  0.4412  0.1608
12974W        W55912  22.968  32.436  26.206  0.0979 -0.0405 -0.0568
12975W        W55913  26.341  31.464  26.155  0.1463 -0.0703  0.0684
12976W        W55914  21.159  28.818  25.586  0.0106  0.1351  0.0913
12977W        W55915  22.560  31.694  24.261 -0.3953 -0.0489  0.1303
12978W        W55916  21.766  31.896  24.702  0.2077 -0.1575 -0.1525
12979W        W55917  23.837  29.949  26.803  0.0003  0.0705 -0.2699
12980W        W55918  22.473  30.575  25.180 -0.1213  0.2004  0.3167
12981W        W55919  24.196  29.901  24.753  0.1067 -0.3663 -0.1425
12982W        W55920  23.378  32.326  26.920 -0.1628 -0.1638 -0.0913
12983W        W55921  24.972  31.451  26.801  0.0144  0.1120  0.0014
12984W        W55922  21.083  34.254  30.360 -0.3103  0.4763  0.2122
12985W        W55923  22.006  29.536  28.221 -0.0619  0.1632  0.0999
12986W        W55924  25.272  31.476  28.237 -0.3101  0.0352  0.0194
12987W        W55925  24.870  30.802  28.491  0.0112  0.0300  0.1426
12988W        W55926  20.491  29.208  29.360 -0.2588 -0.1443  0.0341
12989W        W55927  24.932  33.254  29.124  0.1028  0.2733  0.0563
12990W        W55928  23.609  28.522  30.518 -0.1110 -0.0132 -0.4399
12991W        W55929  23.050  30.868  29.384 -0.0588  0.1859  0.0782
12992W        W55930  25.737  32.644  31.215 -0.0124  0.0839 -0.1431
12993W        W55931  22.977  30.525  27.502  0.1472 -0.0687 -0.0233
12994W        W55932  22.994  32.003  29.565  0.0775  0.1270  0.2076
12995W        W55933  23.502  33.763  31.579  0.0927  0.1550  0.0131
12996W        W55934  22.343  29.171  29.113  0.0113  0.0237 -0.0327
12997W        W55935  20.988  29.052  29.525  0.0148 -0.1211 -0.0128
12998W        W55936  24.098  30.967  29.523 -0.0908  0.0118  0.1501
12999W        W55937  20.521  30.126  28.951 -0.0105 -0.0777  0.0691
13000W        W55938  22.315  29.473  29.947 -0.2427 -0.1915  0.2125
13001W        W55939  23.579  31.323  27.627  0.0173  0.0246 -0.1111
13002W        W55940  23.783  33.267  29.667 -0.0250 -0.1348 -0.2186
13003W        W55941  23.496  27.505  29.459  0.2733  0.0719 -0.2203
13004W        W55942  24.492  29.087  31.517  0.0842  0.1643  0.0835
13005W        W55943  22.623  33.176  28.631  0.2391 -0.3535  0.1029
13006W        W55944  20.317  29.590  27.126 -0.0852  0.4106 -0.0578
13007W        W55945  21.485  30.756  31.078  0.0023 -0.1631  0.0849
13008W        W55946  22.270  29.415  30.574  0.1549 -0.1226  0.0504
13009W        W55947  24.106  30.525  27.785  0.0624  0.1120  0.0470
13010W        W55948  23.555  31.699  28.835 -0.0468  0.2791 -0.3704
13011W        W55949  23.926  33.212  30.469  0.1368 -0.1273  0.2053
13012W        W55950  23.170  33.960  29.005  0.1324 -0.2410 -0.2235
13013W        W55951  24.485  29.981  31.341  0.0675  0.2202  0.2657
13014W        W55952  22.423  31.669  28.718  0.1441  0.1018  0.0434
13015W        W55953  23.130  33.418  29.394 -0.2494  0.0071 -0.0572
13016W        W55954  23.436  33.209  26.981  0.2512  0.0184 -0.0118
13017W        W55955  24.899  31.383  28.524  0.0032 -0.1531 -0.1532
13018W        W55956  25.446  32.274  30.818 -0.0145 -0.0631 -0.0207
13019W        W55957  22.756  32.182   0.281  0.0229  0.1285 -0.4021
13020W        W55958  23.134  32.486  28.743  0.1390  0.0443 -0.0040
13021W        W55959  22.741  32.525  30.290 -0.0982  0.0834  0.0342
13022W        W55960  23.135  31.710  31.287 -0.3260 -0.2628  0.2126
13023W        W55961  24.910  31.018  30.594  0.0333 -0.0528 -0.0252
13024W        W55962  22.839  30.660  29.816  0.2208 -0.0189  0.1007
13025W        W55963  25.323  33.450  27.500  0.1603  0.0587 -0.1699
13026W        W55964  23.935  31.947  28.470 -0.1684 -0.0939 -0.1278
13027W        W55965  22.434  32.498   0.424 -0.0677 -0.0129 -0.0162
13028W        W55966  22.722  31.576  29.656 -0.1472 -0.3495 -0.1025
13029W        W55967  24.433  30.022  31.897  0.0336 -0.1562  0.0254
13030W        W55968  22.041  32.957  27.403  0.1333  0.0335  0.1314
13031W        W55969  25.410  30.357  28.180 -0.0065 -0.0977  0.0316
13032W        W55970  23.114  30.799  28.458 -0.0800 -0.1304 -0.0829
13033W        W55971  23.862  30.134  29.407 -0.0292  0.0123 -0.0151
13034W        W55972  22.699  28.839  30.576 -0.1046  0.2313 -0.0746
13035W        W55973  22.883  32.143  28.323 -0.2033  0.4761  0.2035
13036W        W55974  23.197  28.353  30.236  0.4868  0.0730 -0.0325
13037W        W55975  25.544  30.957  30.121  0.0502  0.0314 -0.2491
13038W        W55976  22.835  30.288  26.520  0.3775 -0.0956 -0.1202
13039W        W55977  23.289  30.214  28.584 -0.4473  0.0299 -0.2458
13040W        W55978  22.392  32.936  30.887  0.3734  0.2603  0.0322
13041W        W55979  20.906  30.172  29.427 -0.0197  0.0730  0.3967
13042W        W55980  24.342  31.928  28.932  0.1705  0.0394 -0.1025
13043W        W55981  26.344  33.431  29.722 -0.0921  0.0777  0.0691
13044W        W55982  23.479  32.606  27.881 -0.0367  0.0637 -0.2934
13045W        W55983  21.215  30.496  30.629  0.1405 -0.0186  0.2688
13046W        W55984  22.960  31.202  30.950 -0.0841 -0.0400  0.0008
13047W        W55985  23.011  30.181  30.224  0.0803  0.2321 -0.0293
13048W        W55986  23.112  29.775  28.732 -0.4650  0.2645 -0.1518
13049W        W55987  25.120  30.562  30.335 -0.0651  0.1397 -0.1639
13050W        W55988  22.234  32.435  31.145  0.2961  0.3381  0.0199
13051W        W55989  24.212  30.226  28.246 -0.0055 -0.1850 -0.1270
13052W        W55990  24.487  31.950  30.046  0.0800  0.0915  0.2350
13053W        W55991  26.054  32.627  29.960  0.0097 -0.0552  0.0034
13054W        W55992  23.916  31.453  27.014  0.0937 -0.0800 -0.1039
13055W        W55993  22.729  29.851  29.230  0.0623  0.5043  0.0111
13056W        W55994  24.518  30.123  30.253  0.1160  0.0679 -0.1314
13057W        W55995  23.592  31.204  28.684 -0.0240 -0.0962  0.0412
13058W        W55996  22.774  31.653  28.353  0.1005 -0.1661  0.0903
13059W        W55997  26.362  32.645  30.398 -0.2069 -0.1693 -0.0915
13060W        W55998  26.032  31.721  26.503  0.1212  0.2537 -0.3776
13061W        W55999  21.947  33.511  29.220 -0.1087  0.1442 -0.3096
13062W        W56000  22.757  29.374  30.786  0.1954  0.0067 -0.4851
13063W        W56001  23.646  32.274  30.555  0.0643  0.1738  0.0762
13064W        W56002  22.649  33.101  27.999  0.1799 -0.3459  0.1066
13065W        W56003  21.730  30.897  30.604 -0.0620 -0.1627  0.1655
13066W        W56004  22.354  31.931  29.580  0.2299  0.0609  0.3787
13067W        W56005  21.810  28.957  29.144 -0.2221  0.2247 -0.2232
13068W        W56006  21.722  32.858  30.265 -0.0639 -0.0383 -0.0369
13069W        W56007  24.414  31.422  27.834  0.6120  0.0420 -0.1022
13070W        W56008  25.268  29.098  30.755  0.1102  0.0044 -0.2635
13071W        W56009  24.011  29.762  29.711 -0.2710  0.1934  0.0339
13072W        W56010  22.739  31.059  28.239  0.1032 -0.3564 -0.2349
13073W        W56011  25.368  33.880  28.525  0.1293 -0.1600 -0.0144
13074W        W56012  25.217  30.979  27.663  0.0509 -0.1752 -0.2285
13075W        W56013  25.258  31.598  27.739  0.2665  0.1141 -0.1583
13076W        W56014  21.939  29.773  30.848  0.1091  0.1880  0.3862
13077W        W56015  22.731  29.412  28.914 -0.1542 -0.1626 -0.2085
13078W        W56016  24.064  28.688  31.157  0.0751  0.3921 -0.0593
13079W        W56017  23.196  29.612  30.570 -0.0968  0.3812  0.2755
13080W        W56018  25.272  28.328  29.974  0.2364 -0.2987  0.0162
13081W        W56019  22.784  30.323  28.699 -0.3154  0.1566  0.1532
13082W        W56020  24.465  30.655  28.186  0.3175  0.1793 -0.2793
13083W        W56021  22.706  31.263  29.237  0.1225  0.1651 -0.2575
13084W        W56022  22.184  30.953  27.487  0.1505  0.1088 -0.1604
13085W        W56023  24.386  30.535   0.464 -0.0319  0.1714  0.0804
13086W        W56024  24.822  32.747  28.308  0.1712  0.2897  0.1924
13087W        W56025  25.288  33.094  31.442  0.1942 -0.1457 -0.0999
13088W        W56026  24.018  32.061  30.333  0.0305 -0.0094 -0.1111
13089W        W56027  23.367  30.494  29.932  0.3037  0.0373 -0.4077
13090W        W56028  21.518  30.054  27.674 -0.0532  0.0150 -0.0947
13091W        W56029  22.649  32.355  29.549  0.3284  0.2233 -0.0342
13092W        W56030  23.576  32.306  28.613  0.4300 -0.0074 -0.1596
13093W        W56031  22.367  30.143  29.007  0.0036 -0.2648 -0.1567
13094W        W56032  25.012  33.082  27.957 -0.5145  0.0280  0.0722
13095W        W56033  23.045  31.334  27.923 -0.1158 -0.0880  0.1190
13096W        W56034  22.689  32.171  31.521 -0.4372  0.1184  0.0988
13097W        W56035  24.640  29.414  31.891  0.0195  0.0100  0.0729
13098W        W56036  24.725  31.325  30.210 -0.0201 -0.0771 -0.1246
13099W        W56037  23.639  31.756  29.587  0.0841  0.0709 -0.4009
13100W        W56038  21.300  30.616  27.529  0.1877  0.1632  0.1631
13101W        W56039  24.023  32.480  28.710 -0.2273  0.1662 -0.2120
13102W        W56040  22.750  32.861  29.004 -0.4268 -0.0502 -0.0225
13103W        W56041  21.870  30.422  31.003 -0.2811  0.1730  0.0866
13104W        W56042  22.797  32.015  28.770 -0.1257  0.4611 -0.1901
13105W        W56043  24.299  30.181  29.241  0.1427  0.0311 -0.1135
13106W        W56044  20.974  30.020  30.442 -0.0280  0.4417 -0.2118
13107W        W56045  23.250  31.631  29.908  0.2377  0.0559  0.1365
13108W        W56046  21.964  30.409  28.848  0.0136 -0.2120  0.2577
13109W        W56047  22.321  31.990  30.845 -0.0514 -0.1070 -0.1987
13110W        W56048  23.570  29.671  29.424  0.1952 -0.0493  0.3608
13111W        W56049  25.039  30.788  27.087 -0.1045  0.0497  0.1166
13112W        W56050  24.438  31.079  29.824  0.0249 -0.0422 -0.0258
13113W        W56051  23.991  31.502  28.728 -0.3058  0.1743 -0.2674
13114W        W56052  24.303  29.564  26.143  0.0657 -0.0980 -0.0960
13115W        W56053  24.186  29.553  27.401  0.2692  0.1844  0.0888
13116W        W56054  23.563  31.463  31.554  0.0908 -0.1047 -0.4352
13117W        W56055  23.900  31.619  27.789 -0.0906 -0.3003 -0.0464
13118W        W56056  24.046  31.548  30.631  0.4509  0.0022 -0.1128
13119W        W56057  22.760  30.778  28.937 -0.3812  0.3416 -0.2618
13120W        W56058  25.467  33.673  28.978 -0.1210 -0.2901  0.4752
13121W        W56059  23.221  32.922  31.055 -0.0753 -0.1239  0.0095
13122W        W56060  24.523  31.866  31.649  0.2201 -0.0128  0.1266
13123W        W56061  23.630  32.014  30.055 -0.0913  0.0037  0.1555
13124W        W56062  24.838  29.089  30.446  0.0158 -0.1773 -0.0236
13125W        W56063  23.074  30.819  27.892 -0.0907  0.2784 -0.3894
13126W        W56064  22.641  28.471  28.955  0.1266  0.0936 -0.1757
13127W        W56065  22.364  32.230  29.023 -0.0099  0.1137 -0.0391
13128W        W56066  23.249  29.945  29.148  0.2288 -0.1915  0.0070
13129W        W56067  23.372  29.282  29.892  0.1063  0.1404 -0.1487
13130W        W56068  23.903  30.223  29.996 -0.1955 -0.3293 -0.2809
13131W        W56069  25.354  30.090  31.736 -0.0228  0.0996 -0.3553
13132W        W56070  24.415  32.194  28.516  0.0634  0.1670 -0.0275
13133W        W56071  23.173  31.111  28.952 -0.1241 -0.0564 -0.1077
13134W        W56072  22.723  31.201  28.702 -0.1464  0.0527 -0.2215
13135W        W56073  25.436  28.907  30.329 -0.0505  0.0515 -0.1006
13136W        W56074  21.822  32.083  31.134  0.1748 -0.2380 -0.4518
13137W        W56075  21.669  31.695  29.538 -0.0062  0.3057 -0.3194
13138W        W56076  24.312  32.633  30.908  0.4798 -0.1360 -0.0416
13139W        W56077  24.073  31.417  28.239 -0.0795 -0.0412 -0.1456
13140W        W56078  23.848  31.311   0.028 -0.0956  0.0264  0.1010
13141W        W56079  22.673  29.547  30.303  0.0860  0.3038  0.2219
13142W        W56080  23.604  33.096  29.263 -0.1117  0.1435 -0.0718
13143W        W56081  22.581  31.273  27.484  0.1070  0.3166  0.0972
13144W        W56082  22.913  28.467  28.559  0.1934  0.0669  0.0953
13145W        W56083  23.503  31.093  29.588  0.3226  0.1637 -0.0857
13146W        W56084  23.147  32.216  27.882  0.3018 -0.2329  0.5323
13147W        W56085  24.083  32.551  30.423  0.2335  0.1704  0.1601
13148W        W56086  23.159  31.340  28.466 -0.1515  0.1440 -0.2091
13149W        W56087  24.499  28.924  28.097 -0.0923  0.1426 -0.0494
13150W        W56088  21.104  32.351  29.782 -0.0164 -0.1863  0.0876
13151W        W56089  22.314  30.229  28.483 -0.1189  0.0705  0.1623
13152W        W56090  21.512  29.616  29.342  0.1655  0.2631 -0.0569
13153W        W56091  24.975  29.519  27.178  0.0114  0.0150  0.1879
13154W        W56092  24.163  31.928  28.011  0.1959  0.0906 -0.1242
13155W        W56093  21.528  29.182  31.486 -0.2118  0.0673 -0.1328
13156W        W56094  21.961  28.670  30.151  0.1645  0.0049 -0.0530
13157W        W56095  23.242  32.015  29.097 -0.0774  0.1626 -0.1381
13158W        W56096  25.036  30.805  31.143  0.0967 -0.3132 -0.2702
13159W        W56097  25.366  30.443  27.673 -0.0213 -0.3213 -0.1307
13160W        W56098  24.716  30.788  30.120 -0.0834 -0.2594 -0.4249
13161W        W56099  23.832  31.182  31.007  0.3957  0.0679  0.0085
13162W        W56100  20.777  29.772  27.778  0.1944 -0.0272 -0.1200
13163W        W56101  23.503  29.067  29.300  0.1556  0.1334  0.0540
13164W        W56102  22.874  30.415  29.266  0.1455 -0.0237  0.1457
13165W        W56103  21.414  32.166  29.420 -0.1931  0.0040 -0.0473
13166W        W56104  24.588  32.803  29.304 -0.2152  0.0825 -0.2798
13167W        W56105  22.362  29.950  28.098  0.1730 -0.1341  0.2353
13168W        W56106  23.650  32.128  28.055  0.1132 -0.0830 -0.2404
13169W        W56107  24.052  29.200  31.095  0.0721 -0.0674  0.1352
13170W        W56108  24.918  30.069  30.513  0.2253  0.1894  0.1858
13171W        W56109  21.822  30.424  28.415  0.1903  0.1025 -0.2344
13172W        W56110  21.613  29.643  29.844  0.0511  0.3925 -0.1158
13173W        W56111  25.778  31.094  29.062  0.0763  0.0312  0.0701
13174W        W56112  25.125  32.486  30.507  0.2149 -0.2762  0.0374
13175W        W56113  24.334  31.035  30.404  0.1517 -0.2149 -0.2179
13176W        W56114  21.970  30.913  31.023 -0.1809  0.0354 -0.0007
13177W        W56115  24.715  29.227  29.919  0.0719 -0.2149 -0.0765
13178W        W56116  26.734  33.913  28.632  0.2817  0.1467  0.0762
13179W        W56117  24.278  30.556  30.239 -0.0751  0.2494  0.0788
13180W        W56118  21.176  30.993  27.870 -0.0226 -0.0047 -0.3271
13181W        W56119  21.481  30.575  30.242  0.0950  0.1776  0.0573
13182W        W56120  23.723  33.127  27.427  0.4767 -0.0924 -0.0171
13183W        W56121  24.822  29.825  30.938  0.0675 -0.1272 -0.1056
13184W        W56122  22.066  33.184  30.378 -0.0753  0.1177 -0.2185
13185W        W56123  21.810  32.222  27.962 -0.1213 -0.3582  0.3632
13186W        W56124  22.718  32.054  30.537  0.0939 -0.0686 -0.0581
13187W        W56125  25.742  29.666  26.751 -0.3674 -0.0752  0.1752
13188W        W56126  23.168  31.747  28.063 -0.0252  0.0359 -0.2284
13189W        W56127  22.057  30.101  27.706 -0.0982  0.4228  0.1708
13190W        W56128  26.892  30.770  29.781 -0.3168  0.0182  0.2338
13191W        W56129  23.596  31.074  27.199 -0.2979 -0.0703  0.1665
13192W        W56130  25.797  28.037  31.624  0.0893  0.3166  0.0437
13193W        W56131  23.332  29.187  30.774 -0.0440  0.1314 -0.1684
13194W        W56132  24.527  32.359  30.493  0.2179  0.1068  0.0139
13195W        W56133  23.593  29.288  30.354 -0.2883  0.4739  0.0471
13196W        W56134  24.100  33.055  31.612 -0.3318 -0.0057 -0.1176
13197W        W56135  22.236  32.088   0.199 -0.1266 -0.1411 -0.0335
13198W        W56136  23.752  30.048  28.474  0.0493 -0.1479  0.0931
13199W        W56137  22.070  28.870  28.718 -0.0896 -0.1397 -0.0484
13200W        W56138  22.835  32.359  29.094 -0.0346  0.1541 -0.1204
13201W        W56139  24.713  32.651  30.139 -0.0980  0.0776 -0.2589
13202W        W56140  24.593  32.021  27.606  0.1561 -0.0797 -0.1584
13203W        W56141  23.907  29.687  28.084  0.0908  0.1406  0.0264
13204W        W56142  22.058  31.728  29.195 -0.0701 -0.1908 -0.0835
13205W        W56143  23.645  30.908  29.171 -0.0606  0.0796 -0.3199
13206W        W56144  23.514  30.533  27.067 -0.2371 -0.3174  0.1418
13207W        W56145  23.496  32.491  30.103  0.3536  0.0444 -0.1631
13208W        W56146  23.631  29.731  30.125  0.1365 -0.0111 -0.0212
13209W        W56147  23.598  31.644  28.271 -0.0729 -0.0804  0.1789
13210W        W56148  23.470  30.098  30.454 -0.2411  0.1517  0.0538
13211W        W56149  23.037  29.550  29.532 -0.0081  0.1104 -0.5123
13212W        W56150  24.554  29.649  30.527 -0.1374  0.2892  0.0625
13213W        W56151  25.246  30.430  30.773 -0.1222 -0.1533 -0.0501
13214W        W56152  22.346  30.649  31.186  0.4796 -0.2164  0.2388
13215W        W56153  24.372  33.459  31.944 -0.0091  0.3110  0.2471
13216W        W56154  25.567  30.684  28.729  0.0172  0.2303 -0.1383
13217W        W56155  24.839  29.580  29.553  0.0887  0.2894  0.0024
13218W        W56156  25.272  31.046  28.541 -0.0816  0.0934  0.0568
13219W        W56157  23.236  30.588  28.951  0.1985  0.0846 -0.0993
13220W        W56158  22.145  31.455  29.672  0.2090 -0.0426  0.0176
13221W        W56159  24.890  31.444   0.883 -0.0236  0.1421  0.0492
13222W        W56160  23.387  30.283  27.675  0.2090 -0.1078 -0.0981
13223W        W56161  23.541  30.011  29.765 -0.3126 -0.3422 -0.1611
13224W        W56162  23.986  33.351  28.591  0.0069 -0.1427  0.0240
13225W        W56163  24.458  31.785  30.552 -0.0706  0.0247  0.0136
13226W        W56164  23.179  31.449  29.410 -0.2647  0.1098  0.2667
13227W        W56165  21.400  30.434  29.278  0.0465 -0.0485 -0.0236
13228W        W56166  22.653  33.130  31.733 -0.4468 -0.0223 -0.5794
13229W        W56167  22.316  30.822  28.478 -0.0722 -0.1020  0.1237
13230W        W56168  24.030  31.074  27.871  0.0142 -0.0176  0.0233
13231W        W56169  23.617  32.791  30.551  0.1640  0.0360  0.0396
13232W        W56170  24.372  30.879  31.648  0.1929  0.0226  0.0699
13233W        W56171  24.705  30.188  27.760 -0.1333  0.1103 -0.3023
13234W        W56172  24.784  30.349  31.038  0.1529  0.2476  0.0598
13235W        W56173  21.925  31.485  28.767  0.2847  0.2294 -0.2545
13236W        W56174  22.278  28.512  29.799  0.0172  0.1048 -0.1467
13237W        W56175  22.671  31.865  29.237 -0.2579  0.0998 -0.0604
13238W        W56176  21.896  31.046  30.160 -0.1422 -0.2738  0.0915
13239W        W56177  24.020  32.419  28.211 -0.2617 -0.0784  0.0882
13240W        W56178  24.491  28.879  30.810 -0.2449  0.0729  0.2555
13241W        W56179  23.995  30.209  30.474  0.1556  0.1441 -0.1541
13242W        W56180  24.671  31.514  29.718  0.2793 -0.4099 -0.1099
13243W        W56181  23.981  30.877  30.032 -0.1167 -0.0301  0.2028
13244W        W56182  24.231  31.508  30.103 -0.1459  0.0752 -0.1942
13245W        W56183  23.321  31.118  30.223  0.0034 -0.0161 -0.0928
13246W        W56184  24.336  33.489  30.712 -0.1111  0.0015  0.1575
13247W        W56185  24.093  32.897  28.395  0.1627 -0.0354  0.0897
13248W        W56186  22.124  31.679  30.144  0.2083  0.1297  0.0338
13249W        W56187  22.632  30.194  31.376  0.1218 -0.1053  0.2890
13250W        W56188  24.714  30.917   0.005  0.2208 -0.1993  0.0051
13251W        W56189  24.915  32.147  30.175  0.1076 -0.2140  0.1077
13252W        W56190  23.075  27.798  30.321 -0.0764  0.1679 -0.0803
13253W        W56191  23.980  33.422  27.780 -0.0676  0.0870  0.0548
13254W        W56192  21.575  32.156  30.686 -0.2023  0.0749 -0.1264
13255W        W56193  22.795  32.097  31.011 -0.3945  0.0124 -0.4998
13256W        W56194  23.503  33.683  29.463 -0.0159  0.1284  0.0182
13257W        W56195  23.950  31.767  29.154  0.0170  0.1764  0.1345
13258W        W56196  23.480  31.861  27.653  0.2133 -0.4759  0.0188
13259W        W56197  23.285  32.961  29.746 -0.0508  0.1202  0.1477
13260W        W56198  22.577  30.767  27.257 -0.0860  0.1329  0.2827
13261W        W56199  21.891  32.016  29.842 -0.0098 -0.3277  0.0013
13262W        W56200  21.335  31.895  28.237  0.0118  0.1328 -0.0638
13263W        W56201  25.270  32.853  27.536  0.1080 -0.0237  0.0176
13264W        W56202  24.169  32.939  28.906 -0.0347 -0.1079 -0.2456
13265W        W56203  24.020  32.119  31.308 -0.0066 -0.0585  0.0396
13266W        W56204  24.518  30.786  27.168  0.0000 -0.1422  0.0878
13267W        W56205  23.751  32.222  29.114 -0.2818  0.0112  0.1513
13268W        W56206  24.038  32.070  27.145 -0.2419  0.2223  0.1733
13269W        W56207  23.010  32.558  29.893  0.1243  0.0516  0.0432
13270W        W56208  22.450  29.481  29.453  0.0064  0.0829  0.1197
13271W        W56209  23.789  30.603  28.712 -0.2816  0.2043 -0.0716
13272W        W56210  23.131  30.644  30.445 -0.1777 -0.1936 -0.1368
13273W        W56211  25.276  27.438  30.569 -0.0445 -0.0661  0.2009
13274W        W56212  21.484  32.132  31.576 -0.3439  0.1295 -0.0235
13275W        W56213  24.224  32.487  29.272  0.3965  0.0422  0.0105
13276W        W56214  21.543  28.873  28.648  0.1483  0.4242 -0.0495
13277W        W56215  21.854  29.399  28.916  0.0098 -0.1306 -0.0138
13278W        W56216  24.486  30.004  29.763  0.4863  0.1303  0.3421
13279W        W56217  23.573  31.694  26.635 -0.5408  0.0465 -0.0214
13280W        W56218  24.828  31.274  29.220  0.1304 -0.2008 -0.0241
13281W        W56219  22.928  33.359  27.656 -0.2183 -0.1045  0.2423
13282W        W56220  23.172  32.870  30.293 -0.0034 -0.1713  0.1798
13283W        W56221  23.282  33.464  29.865 -0.0426  0.0065  0.0620
13284W        W56222  21.990  28.596  28.176 -0.0195  0.1202 -0.2020
13285W        W56223  24.449  31.678  28.437  0.0662 -0.0102  0.0063
13286W        W56224  22.963  31.180  29.788 -0.0220 -0.4904  0.0080
13287W        W56225  25.978  29.576  29.803 -0.1709  0.1400 -0.3069
13288W        W56226  23.035  31.588  28.932  0.0643 -0.0447  0.3136
13289W        W56227  24.525  30.886  27.725  0.1231  0.0586  0.2335
13290W        W56228  23.682  31.926  30.945  0.1789 -0.0211 -0.1720
13291W        W56229  22.538  30.392  30.522  0.1554 -0.0997  0.0382
13292W        W56230  23.543  30.802  27.709  0.1384  0.2341 -0.1024
13293W        W56231  25.499  32.123  31.326  0.0281  0.0439  0.1412
13294W        W56232  25.695  31.877  26.919  0.2886 -0.1067 -0.2884
13295W        W56233  24.501  32.303  29.716  0.2367  0.1974 -0.2128
13296W        W56234  22.169  28.911  30.592  0.0429  0.1239  0.1738
13297W        W56235  21.373  28.724  29.431  0.1508  0.0025 -0.0108
13298W        W56236  22.687  31.763  30.144  0.1000  0.1485  0.0165
13299W        W56237  22.127  29.863  29.687 -0.2069 -0.1220  0.0691
13300W        W56238  25.817  33.852  30.338 -0.0810 -0.1843 -0.1717
13301W        W56239  21.834  28.726  29.628 -0.1296 -0.1972  0.1514
13302W        W56240  25.146  31.835  28.606  0.0982 -0.1882  0.0756
13303W        W56241  24.552  30.747  29.144  0.0366 -0.0410 -0.0019
13304W        W56242  23.492  34.470  28.086 -0.0353  0.0659  0.2660
13305W        W56243  23.850  30.581  29.642 -0.2942  0.1251  0.2977
13306W        W56244  25.063  31.692  29.954 -0.0771  0.1147  0.1927
13307W        W56245  21.016  31.347  31.348  0.0792  0.3571  0.2856
13308W        W56246  23.292  32.331  31.009  0.0706  0.0855  0.3196
13309W        W56247  25.483  32.531  30.201 -0.4054  0.1338 -0.0435
13310W        W56248  22.961  28.917  31.039 -0.2545  0.0977 -0.0226
13311W        W56249  22.583  30.788  30.194  0.2949  0.1290  0.0143
13312W        W56250  22.562  32.746  29.860  0.1417  0.0582 -0.2350
13313W        W56251  26.301  32.151  29.582 -0.1890 -0.0053 -0.0988
13314W        W56252  24.629  28.779  29.728 -0.0133  0.0553 -0.0606
13315W        W56253  24.318  33.782  27.678  0.2411  0.2821  0.2806
13316W        W56254  25.482  27.861  29.150  0.0007  0.4542 -0.0534
13317W        W56255  22.652  31.569  30.780 -0.1174 -0.5316 -0.1420
13318W        W56256  23.904  31.003  31.583 -0.1290  0.0040  0.3849
13319W        W56257  21.677  31.277  29.228  0.1662  0.1303  0.1032
13320W        W56258  21.936  30.267  29.399 -0.0226  0.0101 -0.0532
13321W        W56259  23.329  32.634  29.224 -0.1056  0.0039  0.2627
13322W        W56260  25.002  32.959  28.699  0.1447  0.0729  0.0788
13323W        W56261  24.928  32.954  30.582 -0.2937 -0.1814 -0.0728
13324W        W56262  23.615  30.562  28.224  0.2876 -0.0989  0.0219
13325W        W56263  24.906  32.573  29.653  0.3413  0.0566 -0.0185
13326W        W56264  21.944  28.761  31.059 -0.2441  0.0116  0.0347
13327W        W56265  24.330  29.540  30.033  0.1088  0.1880 -0.0983
13328W        W56266  25.239  29.870  28.218  0.3256  0.0898  0.0178
13329W        W56267  23.634  30.570  30.436  0.0834  0.2038  0.3049
13330W        W56268  21.354  32.374  27.071 -0.0336 -0.2031 -0.2527
13331W        W56269  22.873  33.542  28.192 -0.2163 -0.1591  0.0647
13332W        W56270  22.358  31.078  30.609 -0.1369  0.1848 -0.0654
13333W        W56271  23.608  29.815  31.313 -0.0144  0.1239  0.1710
13334W        W56272  22.807  29.823  31.061  0.0521  0.0162 -0.1647
13335W        W56273  21.830  30.130  29.993 -0.1179  0.1544  0.2973
13336W        W56274  22.288  29.371  28.646  0.0854  0.0961 -0.2026
13337W        W56275  25.584  33.253  28.036  0.2235 -0.3791  0.0274
13338W        W56276  22.543  27.934  30.396 -0.1981 -0.2070  0.0259
13339W        W56277  20.590  30.973  29.972  0.0959  0.1468  0.1742
13340W        W56278  24.846  32.213  28.191 -0.0636  0.4007 -0.2173
13341W        W56279  25.268  33.316  28.466  0.2617  0.0900  0.0330
13342W        W56280  21.529  29.877  28.625  0.0498  0.3322 -0.1155
13343W        W56281  24.815  32.617  30.901 -0.0143 -0.0917  0.4102
13344W        W56282  20.646  31.131  27.966 -0.2152  0.1621 -0.2259
13345W        W56283  24.223  30.454  31.288 -0.1325 -0.1512 -0.1386
13346W        W56284  23.886  28.878  30.163  0.2464  0.0321  0.1261
13347W        W56285  22.500  28.890  27.036  0.1705  0.0949  0.1299
13348W        W56286  21.985  30.962  28.872  0.0272 -0.3443  0.1319
13349W        W56287  24.019  33.467  29.172  0.1791 -0.1968 -0.1582
13350W        W56288  24.595  32.631  28.821  0.1140  0.1857  0.1977
13351W        W56289  22.471  32.255  29.966 -0.2091  0.0226 -0.0264
13352W        W56290  23.154  32.400  30.511 -0.1944 -0.0464  0.2629
13353W        W56291  21.388  29.097  31.035 -0.2289 -0.0587 -0.0286
13354W        W56292  23.120  29.666  30.074  0.0145  0.0883 -0.2712
13355W        W56293  23.709  31.385  30.024 -0.0025 -0.0398  0.0898
13356W        W56294  25.033  31.401  26.167  0.3329 -0.0154 -0.1285
13357W        W56295  24.555  31.129  28.726 -0.1509 -0.0378 -0.0126
13358W        W56296  23.016  30.992  27.367  0.1398  0.2808 -0.0712
13359W        W56297  24.124  30.662  30.724  0.1283 -0.3061  0.1758
13360W        W56298  22.524  31.280  30.058 -0.0429 -0.1909 -0.3381
13361W        W56299  25.701  31.638  28.943  0.2761 -0.1133  0.2016
13362W        W56300  21.459  29.198  29.619 -0.1517  0.0903 -0.3448
13363W        W56301  23.378  30.401  29.376  0.0731 -0.2183 -0.1568
13364W        W56302  23.235  31.976  28.552 -0.3500 -0.2775 -0.0834
13365W        W56303  23.098  31.531  30.404  0.1589  0.1078  0.0480
13366W        W56304  22.893  31.020  26.457 -0.1233  0.2100  0.2791
13367W        W56305  25.144  31.527  29.451  0.3127  0.2948 -0.1003
13368W        W56306  23.534  32.823  28.424 -0.0133 -0.2135  0.0841
13369W        W56307  26.464  30.892  31.063 -0.2127 -0.2737 -0.1291
13370W        W56308  21.816  30.555  27.642  0.2729  0.2896  0.1314
13371W        W56309  26.031  32.544  28.729  0.2258 -0.2320  0.2697
13372W        W56310  23.519  33.528  28.986  0.0785 -0.0624 -0.5269
13373W        W56311  25.537  31.567  31.363  0.2171 -0.0338  0.1138
13374W        W56312  23.673  32.741  28.896 -0.0378  0.0262 -0.3105
13375W        W56313  22.680  29.834  29.795 -0.0521  0.0833  0.2202
13376W        W56314  22.003  27.840  30.659  0.1718  0.0653 -0.0220
13377W        W56315  22.676  30.547  28.260 -0.1016 -0.1910 -0.3403
13378W        W56316  23.673  31.381  29.207  0.2639  0.0225  0.0551
13379W        W56317  23.086  30.101  29.672  0.0117  0.3209 -0.1494
13380W        W56318  22.263  30.658  29.236 -0.2805 -0.0386 -0.0668
13381W        W56319  23.652  30.176  28.980  0.1671  0.0772  0.1509
13382W        W56320  21.821  34.051  31.574  0.0568 -0.2032  0.1065
13383W        W56321  25.072  32.448  31.285  0.0266 -0.4002 -0.3468
13384W        W56322  24.029  30.456   0.829 -0.3163  0.3817 -0.1016
13385W        W56323  24.835  30.358  29.769  0.1688 -0.0551  0.4101
13386W        W56324  21.487  30.323  31.668  0.3927  0.0710  0.0633
13387W        W56325  21.840  31.165   0.324 -0.3222  0.5188 -0.1593
13388W        W56326  22.892  33.137  31.318 -0.1271  0.2143  0.1311
13389W        W56327  21.988  32.440  30.676  0.3645 -0.2039 -0.0407
13390W        W56328  23.262  29.944  30.924 -0.0020  0.0026  0.0050
13391W        W56329  23.813  31.108  30.454  0.1488  0.0055 -0.2717
13392W        W56330  23.445  30.956  30.781  0.1308 -0.0103 -0.2582
13393W        W56331  25.496  32.260  31.819 -0.0150  0.1347 -0.0023
13394W        W56332  23.138  32.028  30.137 -0.0687 -0.1253  0.0931
13395W        W56333  22.835  28.368  30.554  0.2485 -0.3173 -0.2838
13396W        W56334  24.644  30.549  30.597 -0.0418 -0.0734 -0.0815
13397W        W56335  24.029  31.665  31.099  0.1135  0.1848  0.3682
13398W        W56336  24.662  30.446  31.588 -0.2134 -0.0219 -0.1265
13399W        W56337  22.672  31.098  31.848 -0.0295  0.1636  0.0838
13400W        W56338  22.340  31.559  31.808  0.1582  0.5193  0.0475
13401W        W56339  24.155  32.102  30.807 -0.0150 -0.1196  0.1628
13402W        W56340  22.402  28.555  30.907  0.2762 -0.0472 -0.1405
13403W        W56341  24.101  31.612  31.631  0.2226 -0.1249 -0.1484
13404W        W56342  23.300  28.358  30.865  0.0514 -0.0878  0.2590
13405W        W56343  21.122  32.444  31.535  0.2306 -0.0435  0.1275
13406W        W56344  24.843  29.017  31.183 -0.4819 -0.2150  0.0736
13407W        W56345  24.861  29.838  31.797  0.2268 -0.1420  0.3564
13408W        W56346  24.194  29.240  30.576  0.1518 -0.1916 -0.0584
13409W        W56347  24.636  28.457  31.016  0.0509 -0.4104  0.2358
13410W        W56348  24.775  31.131  31.493  0.2783  0.0122  0.0710
13411W        W56349  22.133  31.534  30.720 -0.0026 -0.1628 -0.1670
13412W        W56350  22.144  30.638  30.672  0.1574 -0.0454 -0.0573
13413W        W56351  22.457  31.205   0.377  0.1410 -0.2197  0.2253
13414W        W56352  23.854  32.514  30.960  0.2360  0.1618  0.0013
13415W        W56353  24.541  30.846  31.007  0.2184 -0.0349 -0.0967
13416W        W56354  24.928  31.610  30.633  0.1954  0.0663  0.2043
13417W        W56355  25.116  30.139   0.248  0.0797  0.2722 -0.1065
13418W        W56356  21.828  30.417   0.867 -0.0590  0.2799 -0.2542
13419W        W56357  23.441  32.905   0.066 -0.0153  0.1681  0.0737
13420W        W56358  22.527  32.961   0.259 -0.1028  0.1395  0.1603
13421W        W56359  24.396  32.809  29.755 -0.0135 -0.0754 -0.0939
13422W        W56360  24.204  30.993   0.231  0.0679  0.0099  0.1045
13423W        W56361  24.952  31.979  31.328 -0.3145 -0.2149 -0.1104
13424W        W56362  25.694  28.806  30.866  0.0073  0.0054  0.4276
13425W        W56363  25.138  31.330  31.924 -0.0464  0.0038  0.1295
13426W        W56364  21.879  29.555  31.342 -0.0425  0.0321  0.1879
13427W        W56365  23.177  31.928  30.711  0.2044 -0.3816 -0.3167
13428W        W56366  23.532  30.376  30.865  0.0830  0.0290  0.0507
13429W        W56367  22.540  32.896   0.762 -0.0412 -0.0302  0.1170
13430W        W56368  22.891  27.893  30.777  0.2622  0.2577  0.1951
13431W        W56369  24.303  31.266  31.294 -0.0165  0.0627  0.1361
13432W        W56370  25.383  33.210   0.523 -0.0627  0.1634 -0.2661
13433W        W56371  21.874  32.911  30.757  0.3494  0.2024 -0.1043
13434W        W56372  24.120  32.608  31.421  0.0164  0.0740  0.3190
13435W        W56373  26.093  29.622  29.152  0.0789 -0.4096  0.2683
13436W        W56374  23.695  29.354  31.403  0.1851 -0.2178 -0.0522
13437W        W56375  23.373  31.453  30.851  0.1564 -0.1238  0.1313
13438W        W56376  23.199  31.751  31.793 -0.1981  0.2775  0.5205
13439W        W56377  25.947  31.072  31.035 -0.2220 -0.2398 -0.1881
13440W        W56378  25.283  31.800  30.951  0.3683  0.0271  0.0143
13441W        W56379  23.575  33.676  30.447 -0.1460  0.0549  0.0662
13442W        W56380  21.948  33.324   0.131  0.1211 -0.1530  0.1297
13443W        W56381  21.329  30.230   0.630  0.0634 -0.1966 -0.2953
13444W        W56382  22.720  30.940  31.360  0.0935 -0.1173 -0.2188
13445W        W56383  22.347  31.244  31.079  0.1811 -0.0931 -0.1593
13446W        W56384  22.416  30.204  30.024  0.1437 -0.4962 -0.1087
13447W        W56385  21.983  31.499  31.233 -0.1390 -0.1917  0.1491
13448W        W56386  25.803  34.504   0.073 -0.1007  0.0168  0.0046
13449W        W56387  25.549  32.940  30.500  0.2380  0.0119 -0.1582
13450W        W56388  26.452  31.056  31.542  0.2197  0.0617 -0.2665
13451W        W56389  23.280   0.761  16.483  0.0601 -0.0509  0.0632
13452W        W56390  24.230  34.111  15.722 -0.0074  0.0187  0.2789
13453W        W56391  24.408   0.906  16.599 -0.0071 -0.0416 -0.1486
13454W        W56392  22.326  32.658  18.118 -0.0915 -0.1451  0.1905
13455W        W56393  22.711  32.515  20.571  0.0825 -0.1002  0.1181
13456W        W56394  22.571  34.065  17.090 -0.1115  0.1838  0.1236
13457W        W56395  23.222  34.298  18.257 -0.2029  0.3127 -0.0668
13458W        W56396  24.342  33.025  16.803 -0.1255  0.1359 -0.1154
13459W        W56397  23.110  33.926  19.355 -0.1177  0.3804 -0.0882
13460W        W56398  25.148  34.557  19.378 -0.2391  0.0480 -0.2070
13461W        W56399  20.435   1.159  16.438  0.0815 -0.0160  0.0382
13462W        W56400  23.552   0.413  17.784 -0.0383 -0.2359 -0.2323
13463W        W56401  23.973  34.047  17.628 -0.0119 -0.0878  0.2045
13464W        W56402  21.832  32.638  19.074  0.0982  0.0022  0.0569
13465W        W56403  22.313  32.048  19.454  0.0290  0.0528  0.2434
13466W        W56404  21.754  33.266  17.612 -0.0269 -0.1201  0.1160
13467W        W56405  21.593  34.404  17.301  0.2423 -0.0006 -0.1775
13468W        W56406  20.928  34.427  18.021  0.2248 -0.2176  0.0066
13469W        W56407  24.978   0.098  17.028  0.1631  0.2249 -0.4901
13470W        W56408  25.656   1.140  19.773  0.1508  0.2255  0.2169
13471W        W56409  24.442  33.676  19.429 -0.1000 -0.0743  0.0033
13472W        W56410  23.828  33.464  18.394  0.0897 -0.2922 -0.2728
13473W        W56411  24.516   2.447  17.835  0.0903 -0.0748  0.1612
13474W        W56412  24.927  32.592  20.664  0.1536 -0.0589 -0.4137
13475W        W56413  24.485  34.125  17.477 -0.0279  0.4835  0.1283
13476W        W56414  22.710  34.135  16.594 -0.1422  0.1598 -0.1694
13477W        W56415  23.853  33.620  16.865 -0.2070 -0.0471  0.1653
13478W        W56416  22.633  33.751  18.958 -0.1988  0.1339  0.3001
13479W        W56417  22.804  33.245  18.653  0.0291 -0.0171  0.0641
13480W        W56418  23.144  34.351  16.572  0.2220  0.0323  0.1027
13481W        W56419  24.164  33.988  19.171 -0.1284  0.0134 -0.0203
13482W        W56420  22.080   0.453  16.990 -0.1713  0.0020  0.0690
13483W        W56421  23.101   0.003  16.981 -0.0681 -0.4135  0.2609
13484W        W56422  20.801   0.198  19.387  0.0698 -0.0781 -0.0422
13485W        W56423  22.398  33.658  20.327 -0.1505  0.2657 -0.0275
13486W        W56424  22.774  33.167  16.805 -0.1686 -0.0093 -0.3678
13487W        W56425  25.250  34.138  18.074  0.1601 -0.3322  0.1040
13488W        W56426  24.138  32.802  18.100 -0.1026 -0.0167 -0.3215
13489W        W56427  22.921  34.382  19.653  0.1185  0.0360  0.1930
13490W        W56428  22.987   0.193  17.478 -0.1734  0.0849 -0.0997
13491W        W56429  22.839  33.946  19.945  0.4269 -0.3382 -0.3808
13492W        W56430  20.545  33.418  18.398  0.1122 -0.1213  0.2171
13493W        W56431  25.521  33.809  16.438  0.1392 -0.3000  0.0316
13494W        W56432  21.539  33.443  19.345 -0.1333 -0.0112 -0.0531
13495W        W56433  23.290  32.363  16.832  0.0016  0.0957 -0.0257
13496W        W56434  25.864  33.401  17.759  0.3646 -0.0508  0.1431
13497W        W56435  20.531  34.188  17.288  0.1680  0.1864 -0.1338
13498W        W56436  20.967  33.809  18.163  0.3600  0.0026  0.0207
13499W        W56437  22.233  32.939  19.478  0.1664  0.2610 -0.2347
13500W        W56438  21.162  32.679  19.955  0.2338 -0.0070  0.0865
13501W        W56439  25.873  33.609  20.069 -0.0757 -0.0490 -0.2326
13502W        W56440  21.426  32.564  16.987 -0.5551  0.2239  0.0256
13503W        W56441  26.389   0.459  17.215 -0.1039 -0.1846  0.4084
13504W        W56442  23.225   1.784  16.265  0.0470 -0.0411  0.2765
13505W        W56443  23.414  33.492  19.471 -0.0371  0.1022 -0.1887
13506W        W56444  21.652   0.065  18.940  0.0975 -0.2148 -0.1959
13507W        W56445  22.100  34.121  17.276 -0.0359  0.2679 -0.2406
13508W        W56446  22.254  34.309  16.648 -0.0522 -0.1109 -0.0970
13509W        W56447  22.823  32.207  19.508 -0.0440  0.1726 -0.0970
13510W        W56448  23.033  33.722  17.361 -0.0159  0.1053 -0.1312
13511W        W56449  21.385  34.171  16.503  0.1946  0.1705 -0.2591
13512W        W56450  21.717   1.914  16.812  0.4540  0.3277 -0.0977
13513W        W56451  25.425  33.304  18.622  0.0058  0.1368 -0.3021
13514W        W56452  22.029  34.405  18.621 -0.0688 -0.1480  0.1213
13515W        W56453  21.901  33.948  19.406 -0.1741  0.0124 -0.1202
13516W        W56454  23.150   0.634  16.981  0.1276  0.0297  0.1845
13517W        W56455  24.159  33.830  17.252 -0.2308  0.1134  0.1205
13518W        W56456  25.730  34.274  17.208 -0.1072  0.0372 -0.2519
13519W        W56457  24.796   0.985  16.119 -0.0027  0.1567 -0.1016
13520W        W56458  23.522   0.107  15.787  0.0840  0.2584 -0.1093
13521W        W56459  23.603  33.298  16.531 -0.1172  0.0664  0.4581
13522W        W56460  21.888  33.546  19.667  0.0262  0.0277  0.1383
13523W        W56461  22.896  33.269  15.932 -0.3358  0.4221 -0.1951
13524W        W56462  23.452  34.499  16.258  0.1761  0.1817 -0.2054
13525W        W56463  23.398  33.376  17.403  0.1556  0.1773  0.0273
13526W        W56464  23.670  32.327  18.634  0.0432  0.2903  0.0898
13527W        W56465  22.586  32.897  20.275 -0.3969 -0.1447 -0.2333
13528W        W56466  24.174  33.120  19.456 -0.1024  0.2940 -0.3528
13529W        W56467  24.213   0.376  18.726 -0.1832 -0.0092  0.1281
13530W        W56468  24.402  33.993  17.949  0.0509  0.0422  0.0466
13531W        W56469  22.872  34.243  16.039  0.3785  0.1780 -0.0577
13532W        W56470  22.086  34.061  17.927  0.3207  0.1713 -0.1968
13533W        W56471  24.236  32.994  21.149  0.0587 -0.1276  0.2154
13534W        W56472  23.103  33.883  16.428 -0.0569 -0.1590 -0.0427
13535W        W56473  22.370   0.293  18.497  0.3661  0.1284 -0.2684
13536W        W56474  23.336  33.515  18.446 -0.2978  0.0225  0.0917
13537W        W56475  21.863  34.646  17.674 -0.1604 -0.0485  0.0803
13538W        W56476  22.753   0.440  15.837 -0.2396 -0.0431  0.0637
13539W        W56477  24.673  33.055  17.316 -0.1551  0.1632 -0.2500
13540W        W56478  21.520  33.692  17.819 -0.2006  0.2270  0.0304
13541W        W56479  23.422   0.143  18.203 -0.1577  0.1029 -0.2233
13542W        W56480  23.723  33.776  18.842 -0.0593 -0.0857  0.0296
13543W        W56481  25.210  33.315  15.938 -0.0140  0.0900  0.0006
13544W        W56482  24.702   0.084  19.083 -0.2179 -0.0649 -0.3437
13545W        W56483  21.045  33.564  17.672  0.2996 -0.0109  0.3041
13546W        W56484  24.648  34.694  18.578 -0.1854  0.1529  0.1900
13547W        W56485  23.885  34.586  17.883 -0.0998 -0.4165 -0.2108
13548W        W56486  21.705   0.309  16.765  0.0602  0.2456 -0.1322
13549W        W56487  22.606  33.217  21.156  0.1605  0.1037  0.2307
13550W        W56488  22.461  34.510  17.466  0.2528 -0.0147 -0.2204
13551W        W56489  22.609   1.295  16.887  0.0215 -0.2937  0.2774
13552W        W56490  24.447  34.239  18.481 -0.1105  0.1257 -0.0024
13553W        W56491  22.833  33.020  19.629  0.0239 -0.0378 -0.0167
13554W        W56492  22.932  32.338  18.053  0.1401 -0.0187  0.3035
13555W        W56493  24.758  34.047  19.963  0.1947  0.1559  0.3293
13556W        W56494  23.627  34.015  19.272  0.1883 -0.3070  0.2325
13557W        W56495  24.676  32.362  16.221 -0.1779 -0.0027  0.0241
13558W        W56496  24.077  33.814  16.376  0.0300  0.0242 -0.1532
13559W        W56497  23.094  33.030  19.192  0.0655  0.2031  0.0477
13560W        W56498  23.563  34.588  16.771  0.2717  0.4056 -0.0251
13561W        W56499  22.823  33.465  19.309 -0.1232 -0.1809 -0.1101
13562W        W56500  21.369  34.458  19.243  0.1178  0.3184  0.0638
13563W        W56501  20.935  32.288  19.678 -0.1594 -0.1566 -0.1246
13564W        W56502  22.403   0.484  18.997 -0.0027 -0.0953  0.0563
13565W        W56503  24.041   0.117  16.937 -0.1111  0.2635  0.0049
13566W        W56504  24.191  32.524  18.558  0.0338  0.0380 -0.1365
13567W        W56505  22.065  34.632  19.114  0.0878 -0.2126  0.0254
13568W        W56506  24.758  34.374  18.029 -0.1780  0.0186 -0.2725
13569W        W56507  22.892   0.951  17.901 -0.1698  0.1227  0.0783
13570W        W56508  24.564   1.412  19.304 -0.0004 -0.3927 -0.0576
13571W        W56509  23.289  34.168  18.920 -0.1423 -0.0113 -0.2944
13572W        W56510  24.666  33.564  18.072 -0.3047 -0.1942 -0.0267
13573W        W56511  25.063  32.415  18.271  0.2733  0.3898 -0.0742
13574W        W56512  24.911  34.250  18.678  0.1530 -0.1786  0.0931
13575W        W56513  22.667   0.526  20.213  0.2555  0.1568  0.2565
13576W        W56514  21.902  33.197  19.102 -0.0654 -0.0170  0.1718
13577W        W56515  24.551   0.291  16.738  0.0087 -0.0404  0.1812
13578W        W56516  25.044  33.597  18.859 -0.1340  0.0554 -0.4127
13579W        W56517  25.635   0.118  18.719  0.0617 -0.2855 -0.1384
13580W        W56518  23.520  34.019  17.329 -0.1884  0.1829 -0.3501
13581W        W56519  22.063  31.685  19.097  0.0902  0.2800 -0.0733
13582W        W56520  24.852  33.580  19.769 -0.0090  0.0071  0.1084
13583W        W56521  22.425  33.309  15.839  0.0131 -0.0816 -0.3110
13584W        W56522  23.927  33.140  17.703  0.0496  0.0940  0.0083
13585W        W56523  24.681  33.564  17.387  0.0408 -0.1421 -0.0065
13586W        W56524  22.202   0.317  17.518 -0.1951 -0.1557 -0.0310
13587W        W56525  22.591   0.390  17.146 -0.0538 -0.3287  0.0405
13588W        W56526  24.178   0.614  16.969  0.3881  0.0063  0.1217
13589W        W56527  22.598   0.131  17.845 -0.2059 -0.2976 -0.2042
13590W        W56528  25.614  33.179  20.933  0.1231  0.1402  0.4537
13591W        W56529  23.679  32.729  17.887  0.2290  0.1350  0.1834
13592W        W56530  22.882  32.785  18.324  0.0735 -0.0651  0.1301
13593W        W56531  24.405   1.222  17.023  0.0536  0.0260  0.0719
13594W        W56532  23.624   0.465  16.769 -0.2397  0.0158 -0.1057
13595W        W56533  24.091  34.427  19.408  0.0491  0.2497  0.1519
13596W        W56534  21.659  34.159  17.703 -0.0856 -0.1770  0.0665
13597W        W56535  21.717  32.706  19.916 -0.1153 -0.0676  0.0352
13598W        W56536  22.986  34.403  17.404  0.1473  0.2534  0.0882
13599W        W56537  23.359  33.464  15.587  0.0415 -0.1821  0.1011
13600W        W56538  24.435  34.266  16.219  0.0360 -0.0410  0.1749
13601W        W56539  24.754   0.100  17.745  0.0395 -0.1688  0.2812
13602W        W56540  25.615  33.191  16.350  0.0832  0.1271 -0.2868
13603W        W56541  24.049  34.225  18.152 -0.0677 -0.0145 -0.2505
13604W        W56542  23.824  32.246  18.156  0.0684 -0.1486 -0.1124
13605W        W56543  22.510  33.863  19.508 -0.4078  0.2182 -0.0904
13606W        W56544  25.817  30.799  18.603 -0.2247 -0.0390  0.1650
13607W        W56545  23.087  33.771  18.134  0.1156 -0.2958  0.1364
13608W        W56546  22.520  34.051  17.608  0.2225 -0.0807 -0.2128
13609W        W56547  24.573  32.651  17.722  0.2579  0.0666 -0.0501
13610W        W56548  24.033  34.121  18.681 -0.1569  0.5581 -0.0380
13611W        W56549  21.778  33.721  18.913 -0.3251  0.1508 -0.1868
13612W        W56550  25.307   0.653  18.710 -0.3478 -0.1142 -0.0235
13613W        W56551  22.836  34.321  19.098 -0.3667 -0.0159 -0.0339
13614W        W56552  24.564  32.128  18.416  0.1786  0.3612  0.3027
13615W        W56553  23.584  34.176  17.926  0.2218 -0.0443  0.1894
13616W        W56554  22.394  33.923  16.311 -0.2394  0.0199  0.0116
13617W        W56555  21.605   0.048  19.843  0.0376  0.0143  0.3488
13618W        W56556  22.637   0.808  16.815  0.1220  0.1868 -0.2157
13619W        W56557  25.475  34.379  18.436 -0.0543 -0.2768  0.3563
13620W        W56558  25.405   1.552  16.349 -0.0344 -0.0847 -0.0634
13621W        W56559  23.476  33.714  17.864  0.1868 -0.3497  0.2054
13622W        W56560  25.562  33.859  17.659  0.0388  0.3057  0.0817
13623W        W56561  21.074   0.552  19.018  0.2661  0.2449  0.0198
13624W        W56562  21.402  33.875  18.586 -0.0157  0.0557 -0.0958
13625W        W56563  21.570  33.883  17.312 -0.2105 -0.0722 -0.0009
13626W        W56564  25.672  33.800  19.461 -0.1922 -0.0015 -0.2883
13627W        W56565  25.152   0.516  16.472 -0.3530  0.2658 -0.2781
13628W        W56566  21.261  33.483  18.889  0.0278 -0.0870 -0.1919
13629W        W56567  22.835  34.361  17.960  0.0882  0.3753 -0.0906
13630W        W56568  21.070  34.058  17.226  0.2704 -0.0838 -0.2685
13631W        W56569  24.828   1.211  18.126  0.1138  0.2362  0.1371
13632W        W56570  23.864  32.886  18.513  0.1029 -0.1457  0.0998
13633W        W56571  24.598  32.444  19.383  0.0094  0.2459 -0.0249
13634W        W56572  23.882   0.599  15.970 -0.1314 -0.0449  0.0038
13635W        W56573  22.661  32.943  17.898 -0.1023 -0.1520 -0.2590
13636W        W56574  25.487  33.339  17.355  0.3870  0.0462  0.4662
13637W        W56575  24.843  33.963  17.761  0.2161 -0.0789 -0.0735
13638W        W56576  21.219   0.455  20.404  0.1772 -0.1688  0.5758
13639W        W56577  22.091  33.494  16.253 -0.1777  0.1064  0.2680
13640W        W56578  23.671  31.781  20.054  0.0266 -0.3520  0.1568
13641W        W56579  21.822  34.360  20.023  0.3394 -0.1905 -0.1462
13642W        W56580  23.252   0.622  17.459  0.1942 -0.2245 -0.1446
13643W        W56581  22.236  33.130  17.320  0.0223 -0.0687  0.1012
13644W        W56582  22.994  31.181  17.090  0.0401  0.0032 -0.2190
13645W        W56583  23.146  32.778  17.841 -0.0105  0.2054  0.0344
13646W        W56584  23.444  33.564  16.057  0.0894 -0.1983 -0.0647
13647W        W56585  23.949  33.534  19.276 -0.3677  0.1147 -0.3485
13648W        W56586  22.965  32.353  20.013  0.3144 -0.0439 -0.2569
13649W        W56587  22.125  33.854  15.846 -0.2097 -0.0698 -0.0336
13650W        W56588  23.566  33.930  18.344 -0.0835  0.0322 -0.0963
13651W        W56589  21.204  31.171  19.339 -0.0443 -0.2880 -0.0671
13652W        W56590  24.511  33.128  17.785 -0.0593 -0.0822 -0.0144
13653W        W56591  23.921   1.031  18.254 -0.0266 -0.2493 -0.0353
13654W        W56592  22.041  32.491  19.551 -0.1245 -0.4844 -0.0170
13655W        W56593  21.893  33.964  18.412 -0.0197 -0.1031  0.0760
13656W        W56594  21.711   0.294  17.343  0.0400 -0.0802 -0.1188
13657W        W56595  22.322  34.463  18.097 -0.0690  0.1257 -0.1146
13658W        W56596  23.408  34.062  16.021 -0.0658  0.2477  0.3156
13659W        W56597  23.055   0.731  18.389 -0.2238 -0.1238  0.3011
13660W        W56598  23.868  33.829  15.854  0.3104  0.2758 -0.0879
13661W        W56599  25.347   0.536  17.050 -0.2216 -0.2123 -0.3512
13662W        W56600  22.444  34.068  18.532  0.2072 -0.2006 -0.0305
13663W        W56601  22.676  33.467  17.699  0.3342 -0.1102 -0.0357
13664W        W56602  23.590  33.851  16.434 -0.0416 -0.2834 -0.1137
13665W        W56603  25.196  33.674  17.919 -0.0206  0.1190 -0.1115
13666W        W56604  24.281  33.281  18.303 -0.1315  0.1269 -0.1506
13667W        W56605  23.120  34.133  16.992 -0.1200  0.0522  0.0057
13668W        W56606  22.112   0.158  21.394  0.2681 -0.1014  0.0008
13669W        W56607  23.258  34.131  20.279 -0.1011 -0.4421 -0.0195
13670W        W56608  25.262   0.290  21.197 -0.0913  0.3684  0.0207
13671W        W56609  21.485  33.282  21.825  0.0038 -0.3398  0.0316
13672W        W56610  22.781  31.903  23.293  0.1724  0.0172  0.2309
13673W        W56611  24.206  34.567  19.922  0.2535  0.0088  0.0319
13674W        W56612  22.581  34.658  22.369  0.0229  0.1110  0.1206
13675W        W56613  22.477  34.537  18.812 -0.0502  0.1953 -0.0815
13676W        W56614  21.791  32.997  22.461 -0.1151 -0.2519  0.0822
13677W        W56615  25.858  34.486  23.855 -0.1525  0.1692 -0.0741
13678W        W56616  22.496  34.356  20.076  0.1069  0.0601  0.1743
13679W        W56617  22.308  33.880  21.359  0.0537 -0.0387  0.0456
13680W        W56618  22.884  33.765  20.445 -0.0446  0.1576 -0.0986
13681W        W56619  21.998  33.332  23.782 -0.0205 -0.1639  0.1384
13682W        W56620  25.448  33.521  24.126 -0.2116  0.0761 -0.1592
13683W        W56621  21.043  33.894  19.777  0.0838 -0.0057 -0.1184
13684W        W56622  20.798  34.186  22.469 -0.0816  0.1472  0.0136
13685W        W56623  21.965  34.358  23.126  0.4085 -0.2226 -0.1952
13686W        W56624  24.776  34.683  22.324 -0.0063  0.0215  0.0120
13687W        W56625  24.026  34.258  21.295  0.1777 -0.2315 -0.0032
13688W        W56626  24.709  34.260  24.140  0.0380 -0.0634 -0.1528
13689W        W56627  23.879  34.160  23.743  0.2622 -0.1255 -0.2517
13690W        W56628  23.590  34.528  21.211 -0.0575 -0.2990  0.2325
13691W        W56629  25.789  33.605  23.634 -0.0504 -0.1350 -0.0216
13692W        W56630  24.468  34.500  20.354 -0.1638 -0.1654 -0.2273
13693W        W56631  23.769  34.346  19.860 -0.0150 -0.1978  0.1942
13694W        W56632  22.213  33.576  18.679  0.1220  0.2000 -0.0408
13695W        W56633  22.286  32.926  20.888 -0.0244 -0.2006 -0.1251
13696W        W56634  20.854  32.575  21.878  0.2055 -0.0507  0.1192
13697W        W56635  22.912  33.847  21.327 -0.0298 -0.1178 -0.1163
13698W        W56636  25.190  33.937  22.752  0.0440  0.1764  0.1969
13699W        W56637  22.116  33.748  20.765  0.2858  0.2199 -0.0370
13700W        W56638  20.158  33.139  20.576 -0.0838  0.0800  0.0511
13701W        W56639  22.031  33.470  22.863  0.1843  0.1195 -0.1319
13702W        W56640  21.525   0.207  24.500 -0.4357 -0.0645  0.2205
13703W        W56641  23.313  32.030  20.251  0.1561 -0.1540 -0.0811
13704W        W56642  23.843  33.413  22.452 -0.1826  0.4213 -0.1362
13705W        W56643  24.201  34.281  20.806 -0.0755  0.1365 -0.2454
13706W        W56644  23.469  33.241  23.303  0.0680  0.3316  0.0054
13707W        W56645  25.772   0.831  21.496  0.1073 -0.2938 -0.1958
13708W        W56646  22.805   0.393  23.254 -0.1224  0.0466 -0.0665
13709W        W56647  21.459  32.679  21.963  0.0158 -0.1437 -0.2637
13710W        W56648  24.870  34.195  20.868 -0.0636 -0.4814 -0.1892
13711W        W56649  22.354  30.453  20.670  0.1472  0.1482 -0.2736
13712W        W56650  25.465  33.614  21.921 -0.1598  0.0903  0.0790
13713W        W56651  25.234  34.530  20.946  0.1209  0.2322  0.1736
13714W        W56652  23.410  33.230  23.881  0.0207 -0.1489 -0.1024
13715W        W56653  21.803  33.297  20.659 -0.3277 -0.0061 -0.0155
13716W        W56654  23.243  32.708  23.990  0.2758  0.2044  0.4480
13717W        W56655  20.985  33.671  19.296 -0.0078 -0.0670 -0.1702
13718W        W56656  25.634  34.191  22.797 -0.0937  0.1075 -0.1246
13719W        W56657  21.731  33.132  21.445 -0.2777 -0.2210 -0.0905
13720W        W56658  24.651  34.026  23.509 -0.2616  0.2906 -0.1446
13721W        W56659  23.453  34.595  20.374 -0.1033  0.1813 -0.0987
13722W        W56660  24.768  33.429  25.229  0.0052  0.1252  0.0304
13723W        W56661  22.853  33.727  23.281  0.1903  0.0213  0.0879
13724W        W56662  20.967  32.286  20.598  0.0408 -0.3419 -0.1230
13725W        W56663  22.697  33.343  20.596  0.1204  0.2484 -0.3448
13726W        W56664  24.831  33.109  23.009 -0.4064 -0.0344  0.3181
13727W        W56665  23.089   0.308  22.268  0.0860 -0.1091  0.1509
13728W        W56666  22.427  34.138  20.729  0.1970 -0.2927 -0.2409
13729W        W56667  21.435  34.275  20.758 -0.3700 -0.2822 -0.1930
13730W        W56668  23.407  34.125  22.004  0.2040  0.0949 -0.1781
13731W        W56669  21.223  34.510  22.479 -0.0692  0.2682  0.2651
13732W        W56670  23.716  33.786  23.316  0.0606  0.2473 -0.2010
13733W        W56671  21.341  33.334  20.555 -0.1183  0.0381 -0.1251
13734W        W56672  22.748  33.876  22.789 -0.1005 -0.1049  0.1859
13735W        W56673  24.978  32.428  19.824 -0.0474 -0.1156  0.1142
13736W        W56674  24.031  33.041  20.017 -0.3089 -0.1267  0.1372
13737W        W56675  23.387  33.623  20.103 -0.0002 -0.1731  0.3725
13738W        W56676  22.548  33.108  19.038 -0.0875 -0.1701 -0.1020
13739W        W56677  22.902  34.171  21.745  0.0442  0.2221 -0.6248
13740W        W56678  24.715  34.602  19.919 -0.0657  0.0507  0.2439
13741W        W56679  23.502  33.767  20.566 -0.1294 -0.0549 -0.1491
13742W        W56680  24.022  33.725  22.027  0.3745  0.0029 -0.0858
13743W        W56681  23.491  33.640  22.861  0.2729 -0.2612  0.1995
13744W        W56682  21.502  34.105  24.646 -0.0257 -0.1250 -0.1794
13745W        W56683  25.216   1.339  24.741  0.1187 -0.0390  0.1805
13746W        W56684  24.420   0.990  21.004 -0.1958 -0.2123  0.0571
13747W        W56685  24.963   0.337  25.145  0.0908 -0.1192 -0.0247
13748W        W56686  22.321   0.115  20.318 -0.0010  0.2975 -0.3190
13749W        W56687  23.667  33.691  23.856 -0.0327  0.0533 -0.2768
13750W        W56688  22.688  34.219  23.203 -0.0099 -0.2598 -0.1620
13751W        W56689  22.032  33.323  21.118 -0.0342  0.1397 -0.2765
13752W        W56690  23.334  31.182  21.474  0.3462 -0.0652 -0.2078
13753W        W56691  24.692  33.320  21.455  0.0412 -0.2088  0.0758
13754W        W56692  21.449  33.462  20.088 -0.1124 -0.1879 -0.3588
13755W        W56693  20.765  34.007  20.911 -0.1676  0.2455  0.1603
13756W        W56694  24.064  33.730  20.607 -0.0224  0.2236 -0.1601
13757W        W56695  22.806  32.708  22.167  0.0851  0.0373 -0.2793
13758W        W56696  22.112  33.440  21.649  0.3408  0.1810 -0.0872
13759W        W56697  25.339  34.201  24.689 -0.0184 -0.0852 -0.0427
13760W        W56698  22.127  33.994  19.852 -0.1681  0.0454 -0.1873
13761W        W56699  23.517  34.604  23.537 -0.2883 -0.2718  0.0543
13762W        W56700  20.648  33.672  20.482  0.3067  0.5269  0.1168
13763W        W56701  25.405  32.436  23.313  0.0454 -0.2854 -0.0402
13764W        W56702  21.753  34.295  22.653 -0.2060  0.0728  0.0404
13765W        W56703  22.215  34.350  21.463 -0.2701 -0.4246 -0.0853
13766W        W56704  22.121   0.129  23.330 -0.2450 -0.0254  0.0841
13767W        W56705  23.054  33.342  23.035 -0.0733 -0.4552  0.0504
13768W        W56706  22.666  34.262  21.161 -0.2877 -0.1012  0.0598
13769W        W56707  24.323  33.959  21.627 -0.2080  0.2887 -0.1512
13770W        W56708  22.863  34.383  22.743 -0.1895  0.0118 -0.0311
13771W        W56709  23.229  32.560  21.264  0.0241  0.2378 -0.1428
13772W        W56710  25.452   0.407  24.836  0.1048 -0.1033  0.0155
13773W        W56711  22.933  32.271  23.031 -0.1348 -0.1783 -0.0113
13774W        W56712  25.310  31.867  19.069  0.0100 -0.2392  0.3386
13775W        W56713  23.125  34.426  21.243  0.0758  0.0193  0.1861
13776W        W56714  24.581  32.049  21.997  0.0051  0.0040  0.0228
13777W        W56715  24.378  34.102  19.655 -0.0625 -0.2705 -0.2506
13778W        W56716  23.904  33.178  23.677  0.1276  0.2812 -0.1043
13779W        W56717  22.706  31.906  22.760  0.0944 -0.0967 -0.2321
13780W        W56718  20.840  33.193  22.538  0.0588 -0.2610  0.0453
13781W        W56719  22.588  32.834  24.198  0.1472  0.0021 -0.2908
13782W        W56720  23.779  33.395  20.381 -0.4214  0.4450  0.1555
13783W        W56721  22.197  32.716  19.993  0.2832  0.0222 -0.1488
13784W        W56722  21.318  33.950  22.354  0.2146 -0.1322 -0.0957
13785W        W56723  24.211   0.809  22.624  0.0332 -0.4317 -0.2320
13786W        W56724  21.597  34.332  22.135 -0.2766 -0.1229  0.1506
13787W        W56725  23.790  34.011  20.938 -0.1511  0.2878 -0.2339
13788W        W56726  23.093  32.887  23.230  0.1156  0.0931 -0.3502
13789W        W56727  22.463  33.074  21.890  0.1756 -0.2289  0.1311
13790W        W56728  24.828  33.419  24.270 -0.1215 -0.0074  0.0827
13791W        W56729  22.922   0.158  24.176 -0.0660 -0.2258  0.3514
13792W        W56730  22.278  34.232  23.538  0.0925 -0.1549 -0.2417
13793W        W56731  22.337  33.880  23.100  0.2540 -0.2314  0.0908
13794W        W56732  24.613   0.134  21.830 -0.2273 -0.2431 -0.1442
13795W        W56733  24.460  32.817  20.696 -0.2346  0.0207 -0.3023
13796W        W56734  24.240  33.851  21.138  0.1293  0.1433 -0.2020
13797W        W56735  23.810  34.611  20.774  0.0619 -0.0191  0.1196
13798W        W56736  20.967  33.519  21.009  0.0800  0.1357 -0.4062
13799W        W56737  25.614  34.009  26.259 -0.0905 -0.1354  0.2678
13800W        W56738  21.525  31.595  18.893  0.0819 -0.1031 -0.2041
13801W        W56739  23.980  33.499  24.681  0.1632 -0.0904  0.0289
13802W        W56740  23.955  33.027  20.704  0.2572  0.0146  0.1162
13803W        W56741  21.344  34.124  22.889  0.1082 -0.2179 -0.0835
13804W        W56742  21.736   0.215  18.367 -0.1143 -0.0362 -0.0458
13805W        W56743  23.101  34.602  20.737  0.3421 -0.0213 -0.1194
13806W        W56744  21.922  33.137  19.925 -0.1405 -0.0265  0.0033
13807W        W56745  24.741  33.958  25.191 -0.2011  0.4100  0.2061
13808W        W56746  23.986  32.302  21.335  0.4098  0.2939  0.2344
13809W        W56747  22.973  34.057  20.832  0.2718  0.2684 -0.2012
13810W        W56748  24.052   0.108  21.986 -0.3336 -0.1717 -0.3280
13811W        W56749  23.050  34.480  22.218 -0.0267  0.0449  0.1718
13812W        W56750  25.335  32.198  23.785  0.1019 -0.2560  0.0230
13813W        W56751  21.391  34.188  21.581  0.3234  0.0924 -0.0761
13814W        W56752  21.978   0.840  24.028 -0.1021 -0.4130  0.1720
13815W        W56753  22.554  32.153  20.946  0.2524  0.0291  0.3472
13816W        W56754  22.571  33.693  20.960  0.2431  0.0863  0.2289
13817W        W56755  24.166  33.531  18.765 -0.4050 -0.1366 -0.0923
13818W        W56756  24.574   0.655  21.843  0.0214 -0.1221 -0.1306
13819W        W56757  25.016  33.906  21.729 -0.1991 -0.2883  0.3163
13820W        W56758  22.371  34.291  22.714 -0.2289  0.1583  0.0583
13821W        W56759  22.451  33.285  19.889 -0.0428 -0.0477  0.2779
13822W        W56760  22.754  34.056  23.725 -0.0548 -0.1229  0.0882
13823W        W56761  23.789  31.704  24.630 -0.1841  0.0841  0.1975
13824W        W56762  22.772  34.286  20.431  0.3400  0.0073  0.1555
13825W        W56763  24.560  34.365  21.179  0.4118 -0.0254  0.0437
13826W        W56764  25.224  33.425  22.952  0.1702 -0.0144  0.0198
13827W        W56765  25.234  34.411  22.459  0.0587  0.1444 -0.2328
13828W        W56766  21.085  32.836  20.602 -0.1278 -0.1726  0.1156
13829W        W56767  24.298  34.073  20.146 -0.0893  0.2536 -0.0223
13830W        W56768  22.355   0.375  22.420  0.2505 -0.1667  0.0639
13831W        W56769  22.477  32.585  23.399  0.0882  0.1389  0.1235
13832W        W56770  24.405  34.400  22.028 -0.0644  0.5002 -0.3729
13833W        W56771  25.167  34.460  19.956  0.0598  0.2633 -0.0552
13834W        W56772  21.830  31.593  24.129 -0.1242  0.0666  0.4990
13835W        W56773  23.201  33.147  20.381  0.1243  0.0586 -0.3133
13836W        W56774  26.102  33.768  23.190  0.0464  0.2837  0.0230
13837W        W56775  23.847  33.852  20.117  0.3983 -0.0809  0.4734
13838W        W56776  21.897  33.128  22.029 -0.1496 -0.4187 -0.1593
13839W        W56777  24.246  33.319  20.316 -0.3929 -0.1897 -0.1686
13840W        W56778  22.865   0.045  20.318 -0.2818 -0.2183  0.0433
13841W        W56779  23.317  34.110  23.053 -0.3268 -0.3870  0.0872
13842W        W56780  22.897  32.851  21.679 -0.1686  0.0172  0.1411
13843W        W56781  24.284   0.510  20.974  0.0428 -0.3115  0.2120
13844W        W56782  25.149   0.010  21.878  0.0601 -0.1536 -0.0305
13845W        W56783  20.784  32.065  21.543  0.0506  0.1559  0.0970
13846W        W56784  23.498  33.223  20.778 -0.1140  0.4090 -0.0972
13847W        W56785  21.681  33.750  21.538  0.1363 -0.3257  0.0110
13848W        W56786  24.603  33.796  22.014  0.0395  0.0018  0.0510
13849W        W56787  24.341  33.532  22.375 -0.2970  0.1620 -0.0938
13850W        W56788  22.784  31.741  21.654  0.1956 -0.0986 -0.0529
13851W        W56789  22.493   0.615  22.968  0.1097 -0.2484 -0.3946
13852W        W56790  22.654  33.465  21.608  0.1471  0.1466  0.1747
13853W        W56791  26.062  33.850  21.035 -0.0177 -0.0259 -0.0520
13854W        W56792  25.015  33.652  20.638 -0.2285  0.2346 -0.0626
13855W        W56793  23.293   0.846  21.841  0.0411 -0.4024 -0.0996
13856W        W56794  21.927  33.555  20.189 -0.2084 -0.2699 -0.1061
13857W        W56795  22.558  32.412  22.624  0.2873 -0.0150 -0.4701
13858W        W56796  22.094  34.680  24.000  0.1763  0.2456  0.2988
13859W        W56797  21.570  34.505  21.201  0.2260  0.2109  0.0039
13860W        W56798  21.989  32.290  21.943  0.1370 -0.0979 -0.0557
13861W        W56799  22.385  32.162  23.031  0.1565 -0.0257  0.0540
13862W        W56800  21.400  32.969  21.054  0.2119  0.3218 -0.2418
13863W        W56801  23.411  34.019  21.250  0.2636  0.0029 -0.1137
13864W        W56802  24.351  34.242  25.085  0.1722  0.1953  0.2221
13865W        W56803  22.636  33.106  23.387 -0.0443 -0.2899  0.1146
13866W        W56804  21.031  33.097  20.195 -0.2386 -0.1013 -0.0807
13867W        W56805  21.947   0.061  22.449 -0.1494  0.2762  0.1464
13868W        W56806  21.255  32.422  21.553 -0.3841  0.1249 -0.1573
13869W        W56807  24.209   0.362  22.818  0.0282 -0.1522 -0.0190
13870W        W56808  23.447  34.254  20.750 -0.0302  0.1329 -0.1497
13871W        W56809  22.658  32.210  23.705  0.1151  0.3460  0.1939
13872W        W56810  22.405  32.566  21.769  0.0331 -0.0128  0.1151
13873W        W56811  23.852  34.273  20.376 -0.0014  0.2810  0.1010
13874W        W56812  21.781  33.053  22.992 -0.0122  0.1129 -0.1836
13875W        W56813  22.165  34.688  19.856 -0.3292 -0.1023  0.1520
13876W        W56814  22.312   0.101  22.866 -0.1482  0.0119  0.0177
13877W        W56815  24.359   0.231  20.567 -0.4153 -0.2752 -0.0397
13878W        W56816  25.210   0.844  21.413 -0.2582 -0.0154  0.0592
13879W        W56817  21.815  32.200  20.920 -0.0188  0.0913 -0.0724
13880W        W56818  20.843  34.395  21.538  0.0505 -0.1317  0.0574
13881W        W56819  23.617   0.162  19.959  0.2637  0.2538 -0.1829
13882W        W56820  22.655  34.176  22.307  0.0751 -0.1190 -0.0114
13883W        W56821  22.127  34.280  22.302  0.1847  0.3353  0.0291
13884W        W56822  23.027  33.034  20.938  0.0037  0.0227  0.0603
13885W        W56823  22.266   1.031  24.475  0.2105  0.0056 -0.0401
13886W        W56824  25.929  32.718  23.417 -0.0399 -0.1157 -0.2899
13887W        W56825  24.531  33.732  25.622  0.2717 -0.2133  0.0064
13888W        W56826  22.413  34.480  25.246 -0.0788  0.1381  0.3473
13889W        W56827  21.697  31.719  27.919 -0.0759  0.0949 -0.3200
13890W        W56828  26.202   0.269  25.592 -0.1300  0.2206 -0.2406
13891W        W56829  24.069  33.717  26.306 -0.0337 -0.0605 -0.2760
13892W        W56830  23.521  31.314  25.750  0.0915  0.0590  0.2604
13893W        W56831  22.004  32.813  26.216  0.0697 -0.0784 -0.2636
13894W        W56832  25.211  34.233  26.051 -0.1157 -0.4333  0.0025
13895W        W56833  21.778   0.414  24.004  0.0481  0.0025 -0.0327
13896W        W56834  23.299  34.025  26.380 -0.1128 -0.1089 -0.3874
13897W        W56835  23.461  34.113  24.159  0.1413 -0.1476 -0.0907
13898W        W56836  23.939  33.391  26.774 -0.2291 -0.0383 -0.1166
13899W        W56837  23.075  31.871  26.828  0.0507  0.1670 -0.0727
13900W        W56838  22.583  32.740  22.994 -0.3105  0.0858 -0.2093
13901W        W56839  21.049  34.500  27.097  0.1376  0.1174 -0.1025
13902W        W56840  22.355  33.375  27.028  0.1893  0.3227  0.0975
13903W        W56841  24.005  32.919  25.427 -0.0977 -0.2069 -0.0017
13904W        W56842  23.695   0.302  26.602 -0.1781  0.0445 -0.2313
13905W        W56843  24.917  34.532  28.004 -0.0412 -0.0569  0.0167
13906W        W56844  23.900  33.908  25.384 -0.1658  0.1523  0.0078
13907W        W56845  23.655   0.720  26.214  0.0601 -0.0788 -0.2126
13908W        W56846  24.371  34.612  27.743 -0.0212 -0.3139  0.3053
13909W        W56847  25.979   0.239  24.088  0.1346  0.3745  0.1120
13910W        W56848  22.971  34.296  24.195  0.2464 -0.3626  0.1474
13911W        W56849  25.056  34.582  24.854  0.0719  0.2998 -0.1867
13912W        W56850  23.973  31.550  25.779  0.1102  0.1066 -0.0362
13913W        W56851  21.475  32.536  27.551  0.1086 -0.0661 -0.0030
13914W        W56852  23.289  34.052  25.135 -0.1135 -0.3638  0.2702
13915W        W56853  24.040  34.352  26.923 -0.2642 -0.0088  0.0626
13916W        W56854  22.835  34.266  25.134  0.0208  0.1302 -0.1032
13917W        W56855  22.854   1.199  23.631 -0.1307 -0.0192  0.3166
13918W        W56856  22.521  33.938  26.996 -0.3257  0.2299  0.1825
13919W        W56857  22.936  33.609  26.271  0.3514 -0.0774  0.1018
13920W        W56858  23.019  33.105  24.811  0.0311  0.0873 -0.0320
13921W        W56859  25.365  32.767  25.432 -0.1631 -0.0775 -0.0867
13922W        W56860  24.443  32.896  25.090  0.0177 -0.0455 -0.2881
13923W        W56861  24.904  33.409  25.738 -0.0712 -0.1301 -0.1091
13924W        W56862  26.191  34.588  23.528 -0.4011  0.1908  0.1307
13925W        W56863  23.740  33.919  26.690 -0.2158 -0.1897  0.1461
13926W        W56864  21.648   0.018  27.199  0.1599 -0.0157  0.1352
13927W        W56865  24.387  33.350  24.488 -0.0228  0.1865 -0.3005
13928W        W56866  22.537  34.179  27.480  0.1319  0.3118  0.0127
13929W        W56867  23.918  32.520  25.781 -0.2985  0.1093  0.3417
13930W        W56868  25.623  33.740  24.592 -0.2472  0.1584  0.1271
13931W        W56869  22.076   0.648  25.991  0.0973  0.0825  0.1038
13932W        W56870  23.441   0.374  25.264 -0.0132  0.1214  0.4458
13933W        W56871  22.859  34.371  26.838 -0.1848  0.1892  0.0339
13934W        W56872  22.468  33.972  25.324 -0.2043 -0.0787  0.0476
13935W        W56873  24.648   0.912  27.214 -0.1941  0.1069 -0.0086
13936W        W56874  22.670  33.306  26.663  0.3039 -0.1284 -0.0488
13937W        W56875  24.032  34.422  25.425 -0.1778  0.1740 -0.0338
13938W        W56876  24.488   0.042  25.056 -0.1002 -0.3954 -0.0471
13939W        W56877  24.544  33.238  26.787  0.2128  0.4074  0.1170
13940W        W56878  24.046   1.014  26.202  0.1334 -0.1474  0.3192
13941W        W56879  22.546  34.642  23.629  0.3661  0.3725  0.0986
13942W        W56880  22.734  33.047  25.465 -0.1897 -0.1226  0.2509
13943W        W56881  23.906  34.190  26.264  0.2697  0.1933  0.2541
13944W        W56882  24.894  34.565  25.359 -0.0951 -0.0663  0.1468
13945W        W56883  22.513  33.142  24.525  0.1695  0.0513 -0.1320
13946W        W56884  22.948   0.195  25.956  0.0087  0.1486  0.0243
13947W        W56885  25.412  33.003  24.904 -0.1578 -0.1149  0.0078
13948W        W56886  23.825  34.682  27.741 -0.0360  0.0898 -0.1673
13949W        W56887  24.480  33.401  26.239 -0.0962 -0.0997 -0.1406
13950W        W56888  21.205  34.457  24.438  0.2099 -0.0648  0.1195
13951W        W56889  22.629  33.842  24.862  0.1313 -0.0877  0.0362
13952W        W56890  24.085  33.476  25.194  0.1270  0.0428  0.2148
13953W        W56891  25.180  33.776  24.909 -0.0801 -0.0952  0.1507
13954W        W56892  25.623  33.704  23.181 -0.0011 -0.2436 -0.3639
13955W        W56893  23.432  34.591  24.003 -0.1202 -0.0754  0.0585
13956W        W56894  21.507  32.900  27.165  0.0900  0.0847 -0.0062
13957W        W56895  23.555   0.261  24.700 -0.0772 -0.1848  0.2259
13958W        W56896  23.106  33.626  24.931  0.1637  0.0236 -0.1343
13959W        W56897  24.615  33.064  25.946 -0.0424 -0.2532 -0.0583
13960W        W56898  23.315  32.408  24.959  0.0815 -0.2706 -0.2676
13961W        W56899  22.766  32.462  27.445  0.1601 -0.2677 -0.0143
13962W        W56900  24.317   0.651  27.541  0.0331 -0.2639 -0.0344
13963W        W56901  24.458  33.840  24.416  0.1525  0.1628  0.0806
13964W        W56902  24.157   0.187  27.418  0.2742 -0.1034  0.0071
13965W        W56903  24.608  33.645  23.928  0.0184  0.0779 -0.1212
13966W        W56904  24.274  33.998  27.244  0.2145  0.0459  0.1019
13967W        W56905  24.380   0.758  28.029  0.0942  0.0851  0.0805
13968W        W56906  23.548  33.044  22.870 -0.4067 -0.2992  0.0161
13969W        W56907  23.173  32.802  26.834 -0.0068 -0.0914 -0.0099
13970W        W56908  24.726  33.951  26.041  0.0909  0.3228  0.3925
13971W        W56909  23.269  33.610  23.555  0.4526 -0.1252  0.0932
13972W        W56910  23.050   0.597  25.624  0.0715 -0.1998 -0.0628
13973W        W56911  23.869  32.493  25.201  0.0092 -0.1016 -0.1085
13974W        W56912  21.235   0.281  27.247 -0.3016 -0.0367 -0.2811
13975W        W56913  24.291  32.356  24.703 -0.0480 -0.0629 -0.1809
13976W        W56914  25.311   0.734  26.453  0.0941 -0.0403 -0.0904
13977W        W56915  23.721  30.860  25.600  0.0878  0.1776  0.1509
13978W        W56916  23.888   0.739  28.164  0.3243  0.2177 -0.3597
13979W        W56917  21.468   0.527  23.608  0.0344 -0.1924 -0.0017
13980W        W56918  25.121  34.622  26.397 -0.0376 -0.2597  0.3193
13981W        W56919  23.714  34.494  26.602  0.1124  0.2039 -0.2511
13982W        W56920  22.026   1.323  24.060 -0.0393 -0.1907 -0.3649
13983W        W56921  22.882  33.541  27.068 -0.0025 -0.1024 -0.0272
13984W        W56922  22.997  33.410  25.739 -0.1501  0.1401 -0.1027
13985W        W56923  23.182  32.056  25.897  0.0888 -0.1077  0.1013
13986W        W56924  24.170  34.621  26.396 -0.0317 -0.0804  0.0990
13987W        W56925  25.517   0.966  27.985 -0.0222 -0.0707  0.1459
13988W        W56926  22.916  31.681  25.729  0.1952  0.1644 -0.0896
13989W        W56927  24.030   0.591  27.155 -0.3196 -0.0107  0.0158
13990W        W56928  23.208  32.995  26.363 -0.3623 -0.1897  0.4113
13991W        W56929  25.069  33.895  23.841 -0.4144 -0.3037 -0.1208
13992W        W56930  23.477  32.470  26.038  0.0890 -0.1587  0.0041
13993W        W56931  25.915  33.806  27.966 -0.3698 -0.0056  0.0002
13994W        W56932  23.943   1.357  25.187 -0.4211  0.0096  0.1205
13995W        W56933  24.235  32.989  26.484 -0.2955  0.1210  0.2233
13996W        W56934  23.350  33.771  26.916  0.1243  0.1711  0.4371
13997W        W56935  21.605  34.013  26.656  0.1329 -0.2550  0.2538
13998W        W56936  22.579   0.912  27.198 -0.0601  0.1891  0.1445
13999W        W56937  25.138  33.952  24.300 -0.1819 -0.2329 -0.1969
14000W        W56938  23.368  34.156  23.534 -0.0631  0.0211 -0.1026
14001W        W56939  24.162   0.223  26.816 -0.0396 -0.0120  0.0704
14002W        W56940  24.662  34.547  26.628 -0.1548 -0.1336  0.0527
14003W        W56941  23.129   2.522  27.643  0.3274  0.1765 -0.1284
14004W        W56942  24.441   1.322  26.191  0.0151 -0.0301  0.3015
14005W        W56943  22.825  33.826  27.701 -0.0404  0.1483  0.0511
14006W        W56944  23.462  32.541  25.528 -0.1837 -0.0599 -0.0674
14007W        W56945  24.118  33.400  27.250  0.2830 -0.3441 -0.1910
14008W        W56946  25.643   1.230  27.574  0.0459 -0.2685  0.1118
14009W        W56947  24.487   0.833  26.191 -0.2494  0.0357 -0.1436
14010W        W56948  21.727  33.790  28.260  0.0909  0.1876  0.1488
14011W        W56949  26.967  34.200  23.594  0.2269 -0.2396 -0.2411
14012W        W56950  26.094  33.727  26.634 -0.2312  0.3230  0.2194
14013W        W56951  24.040  33.597  25.786  0.0272 -0.3247 -0.1693
14014W        W56952  24.712   0.788  25.248 -0.4101  0.0388 -0.0730
14015W        W56953  22.413   0.320  25.142 -0.1697  0.0639  0.2053
14016W        W56954  24.671   1.065  27.783  0.1581  0.0890 -0.1065
14017W        W56955  22.518   0.436  24.538  0.1700 -0.1155  0.0867
14018W        W56956  23.826  33.800  27.158  0.0269  0.1395 -0.2461
14019W        W56957  23.092   0.427  24.586  0.0812  0.0088 -0.2197
14020W        W56958  21.275   0.356  25.010  0.1801  0.1144  0.1193
14021W        W56959  22.111  33.595  24.982 -0.0295  0.2362  0.0625
14022W        W56960  22.769   0.571  24.119  0.2284  0.0975 -0.0572
14023W        W56961  22.778  32.767  23.724 -0.1797  0.3287 -0.1456
14024W        W56962  24.428  34.566  27.158  0.0486 -0.2753 -0.2924
14025W        W56963  24.566  32.638  26.373 -0.0888  0.5015 -0.0911
14026W        W56964  23.280  32.591  27.383 -0.1339 -0.4501  0.1713
14027W        W56965  23.890   0.827  26.718 -0.1366  0.2242  0.0336
14028W        W56966  23.540  34.335  25.508  0.1256  0.1453 -0.5126
14029W        W56967  24.340  34.143  26.531 -0.0101 -0.0255  0.2307
14030W        W56968  22.383  32.655  27.147  0.0604  0.0482  0.1465
14031W        W56969  21.339  34.602  27.617 -0.3535 -0.0153 -0.0269
14032W        W56970  23.473  33.758  25.541 -0.2431 -0.0878 -0.0109
14033W        W56971  22.541  32.876  24.946  0.1860  0.1104  0.0969
14034W        W56972  23.947  33.045  24.963  0.0971  0.1033 -0.5235
14035W        W56973  25.083   0.013  25.895  0.0390  0.1128 -0.0618
14036W        W56974  25.835  33.977  25.113 -0.2613 -0.1162  0.2176
14037W        W56975  23.588  33.939  25.937 -0.1820  0.2782 -0.1734
14038W        W56976  23.588  33.428  24.314 -0.0226 -0.1645  0.0957
14039W        W56977  22.311  34.530  26.983  0.1334 -0.0454  0.1592
14040W        W56978  25.544  33.368  27.014 -0.3506 -0.0046  0.0391
14041W        W56979  21.028  33.692  25.098  0.0917 -0.2131  0.2371
14042W        W56980  23.622  34.490  25.989 -0.0686 -0.1549 -0.1207
14043W        W56981  25.802  32.931  27.319  0.1413  0.0561 -0.0853
14044W        W56982  23.718  32.877  26.265 -0.4512 -0.0257 -0.1850
14045W        W56983  22.510  34.368  24.023 -0.1092  0.1094 -0.0438
14046W        W56984  24.999  34.110  26.526  0.2936  0.0696  0.2940
14047W        W56985  23.109  33.917  25.836  0.2534  0.1515 -0.0490
14048W        W56986  24.804  33.686  26.671  0.3847 -0.1154 -0.1563
14049W        W56987  22.909  33.796  25.342 -0.1476  0.1997 -0.2678
14050W        W56988  25.573  33.432  24.986  0.2057 -0.1260  0.0751
14051W        W56989  23.052   1.112  26.286  0.1632 -0.2613 -0.0471
14052W        W56990  23.912  34.102  24.870 -0.1903  0.1661  0.0554
14053W        W56991  24.976   0.243  26.987 -0.1152  0.2658 -0.0753
14054W        W56992  25.036   0.790  24.889  0.1799  0.0033 -0.0603
14055W        W56993  22.951   0.236  25.133  0.0051  0.1331 -0.2317
14056W        W56994  25.410   0.309  25.627  0.0501  0.1369 -0.2508
14057W        W56995  23.615   0.479  23.667 -0.2028 -0.0784 -0.0847
14058W        W56996  22.757  34.214  25.674  0.3048  0.0022  0.0364
14059W        W56997  21.217  33.075  24.437 -0.0725  0.1622  0.3401
14060W        W56998  26.574  34.639  25.741 -0.5962 -0.0140 -0.1029
14061W        W56999  25.020  33.180  23.700  0.0263 -0.1807 -0.0308
14062W        W57000  21.527  33.696  26.306  0.3084 -0.0340 -0.1219
14063W        W57001  23.317  31.762  25.433  0.1950  0.1665  0.0845
14064W        W57002  23.046   0.482  27.099 -0.0423  0.0945  0.1004
14065W        W57003  26.216  32.911  25.244 -0.4570 -0.0583  0.1978
14066W        W57004  24.118  32.999  25.947  0.0067  0.0782 -0.0140
14067W        W57005  24.734  32.766  26.875  0.0417 -0.0676  0.3081
14068W        W57006  23.006  32.609  25.752 -0.0343  0.0974 -0.0912
14069W        W57007  24.920  33.105  24.681 -0.2162  0.4457 -0.1622
14070W        W57008  24.777  32.909  25.509  0.1251  0.0181 -0.0985
14071W        W57009  23.628  31.993  25.717  0.1907 -0.0399 -0.0900
14072W        W57010  23.465  34.335  28.772 -0.1953 -0.1134  0.0612
14073W        W57011  21.436   0.822  24.778  0.0769 -0.2226 -0.1220
14074W        W57012  24.484  33.087  27.523  0.0276  0.0526  0.0505
14075W        W57013  22.507   0.641  25.709 -0.0951  0.2560 -0.6085
14076W        W57014  22.640   0.852  26.236  0.1090  0.2374  0.0729
14077W        W57015  22.399  33.508  25.471 -0.0699 -0.1748 -0.2167
14078W        W57016  22.381  33.704  26.487  0.1047  0.0589 -0.0329
14079W        W57017  21.022  32.697  27.236 -0.1543  0.2075 -0.1360
14080W        W57018  23.113  33.724  24.071 -0.4149 -0.1234 -0.1249
14081W        W57019  25.037   0.723  26.943  0.0630  0.1619  0.1813
14082W        W57020  22.291  33.712  27.444 -0.0417 -0.2937  0.0567
14083W        W57021  22.584  34.245  24.531 -0.1056 -0.2825  0.3588
14084W        W57022  23.137  34.398  25.968  0.2566  0.1145 -0.2010
14085W        W57023  21.387  34.067  28.022  0.1686  0.0253 -0.3354
14086W        W57024  24.971  32.462  27.280  0.1298 -0.1238 -0.0491
14087W        W57025  24.797   0.344  25.594 -0.0802 -0.0392  0.0875
14088W        W57026  21.447  31.541  27.495  0.0994  0.0223 -0.0281
14089W        W57027  22.997  32.189  25.482 -0.1810  0.3360  0.2077
14090W        W57028  23.279  33.012  24.401  0.0105  0.2039  0.0486
14091W        W57029  23.216  33.339  25.286  0.2224  0.0116  0.0623
14092W        W57030  23.128  34.197  24.683 -0.1156  0.0019  0.1678
14093W        W57031  22.690  34.072  26.170  0.1753  0.1320  0.1209
14094W        W57032  24.316   0.174  25.574  0.2404  0.0711 -0.0544
14095W        W57033  24.766  33.602  24.727  0.1116 -0.3853 -0.2524
14096W        W57034  22.491  34.502  26.040  0.1373 -0.0614 -0.0577
14097W        W57035  23.707  34.620  25.077  0.4180 -0.1162 -0.0200
14098W        W57036  23.837   0.966  24.755  0.3372 -0.1165 -0.0312
14099W        W57037  25.066   0.723  27.861 -0.0846  0.1130  0.1581
14100W        W57038  22.115   0.004  24.912 -0.1847  0.2487 -0.3583
14101W        W57039  24.056  33.542  24.122  0.0339 -0.1821 -0.1102
14102W        W57040  24.144   0.327  27.903 -0.5502 -0.0851  0.1227
14103W        W57041  24.615  34.277  27.494  0.0164 -0.0703  0.1123
14104W        W57042  25.903   1.173  28.802  0.0154  0.1275 -0.1963
14105W        W57043  22.321  33.597  29.614 -0.2422 -0.2119  0.1661
14106W        W57044  21.293  32.208  30.302  0.2362  0.0068  0.1177
14107W        W57045  24.814   0.892  28.335 -0.4142 -0.0632  0.0017
14108W        W57046  23.932   0.874  28.902 -0.5352 -0.0318 -0.0141
14109W        W57047  23.562  33.156  28.077 -0.0288 -0.1632  0.0622
14110W        W57048  22.807  33.665  28.800 -0.0059 -0.1721  0.0437
14111W        W57049  24.342  34.206  30.249  0.1242  0.2074 -0.1130
14112W        W57050  22.314  34.579  27.573 -0.0255 -0.1377 -0.3029
14113W        W57051  22.040  34.182  30.103 -0.0138  0.1192  0.1612
14114W        W57052  24.337   0.547  28.977  0.2542 -0.0460 -0.0812
14115W        W57053  22.009  34.535  29.501 -0.1401  0.4446  0.1628
14116W        W57054  23.807  34.345  29.533 -0.1071  0.1889 -0.2137
14117W        W57055  21.756  34.336  28.207 -0.2005 -0.0603 -0.1603
14118W        W57056  20.534  33.715  30.102 -0.2435 -0.0889 -0.1139
14119W        W57057  23.694   0.517  30.449  0.0111  0.2997 -0.0592
14120W        W57058  23.414  33.400  28.520  0.2663 -0.0031  0.2147
14121W        W57059  24.192  33.300  29.978 -0.1864  0.1918 -0.3477
14122W        W57060  26.352  34.389  29.411  0.1021  0.0851  0.1061
14123W        W57061  23.893  34.186  30.049  0.0286  0.1336  0.1982
14124W        W57062  23.178   0.651  30.924  0.0796 -0.1087  0.0967
14125W        W57063  25.724  33.871   0.670  0.1410  0.0520 -0.1437
14126W        W57064  25.573   0.829  29.105 -0.0802 -0.1803 -0.0986
14127W        W57065  23.659  33.328  26.007 -0.0101  0.0280  0.0533
14128W        W57066  25.550   0.355  29.583  0.1674 -0.0170  0.1231
14129W        W57067  24.361  31.895  29.454  0.0999 -0.1338  0.0098
14130W        W57068  23.141  34.476  30.999 -0.2274 -0.1044  0.1218
14131W        W57069  23.852   1.295  28.514  0.0953  0.0969  0.0456
14132W        W57070  24.186   0.401  29.973  0.3038  0.2718 -0.0868
14133W        W57071  23.217   0.167  28.858 -0.0623  0.0711  0.3080
14134W        W57072  23.000  34.119  27.235 -0.0483  0.2784 -0.0304
14135W        W57073  23.545   0.413  31.915 -0.2226 -0.1283  0.3944
14136W        W57074  21.251  32.924  30.484  0.1425 -0.0067  0.0462
14137W        W57075  23.109  33.065  28.243 -0.2023 -0.0131 -0.0799
14138W        W57076  24.651  33.202  30.234  0.1245  0.1813 -0.0844
14139W        W57077  24.586  33.714  29.830  0.1385 -0.3413 -0.1951
14140W        W57078  24.025  32.274  29.876 -0.3292 -0.2061 -0.0531
14141W        W57079  24.153  34.531  28.284  0.1643 -0.0267 -0.0017
14142W        W57080  23.677  33.783  29.983  0.0901  0.0353  0.0006
14143W        W57081  22.480  32.475  30.728  0.1899  0.1431 -0.1862
14144W        W57082  25.088  33.673  29.333 -0.0698  0.1074 -0.2445
14145W        W57083  22.197  32.985  31.791 -0.2552  0.3601 -0.1029
14146W        W57084  25.065  34.071  29.096  0.3086 -0.2306 -0.1002
14147W        W57085  25.051   0.152  28.438  0.0320  0.0202 -0.0338
14148W        W57086  22.747   0.250  28.903  0.1094 -0.1510  0.1687
14149W        W57087  23.212  33.019  28.816  0.6982 -0.1368  0.1386
14150W        W57088  22.739  34.379  30.660  0.1011  0.0705  0.2987
14151W        W57089  21.008  32.277  30.719  0.0769 -0.1608  0.2120
14152W        W57090  26.734   1.101  31.648 -0.1063  0.1628  0.1616
14153W        W57091  22.000  32.295  29.339  0.1560  0.1678 -0.2640
14154W        W57092  24.774  34.141  30.041 -0.1846 -0.1393 -0.0170
14155W        W57093  25.633  34.554  29.775  0.1183  0.2222 -0.0311
14156W        W57094  25.688  33.063  30.003 -0.2521 -0.0725 -0.0132
14157W        W57095  20.113  33.464  30.061  0.0380 -0.2643  0.0806
14158W        W57096  22.236  34.349  28.130  0.4921 -0.0736 -0.2076
14159W        W57097  22.214  33.390  28.331 -0.2512  0.0725  0.0738
14160W        W57098  26.003  33.822  31.371 -0.1501 -0.1632 -0.0884
14161W        W57099  23.656  34.618  30.390 -0.4345  0.0975 -0.2864
14162W        W57100  22.725  32.633  28.144 -0.0804 -0.1954 -0.2185
14163W        W57101  22.251  32.929  29.387 -0.1314 -0.2093  0.0369
14164W        W57102  24.375  33.132  31.161  0.0989 -0.1035 -0.0141
14165W        W57103  21.697   0.023  31.897 -0.3429  0.0366  0.2891
14166W        W57104  22.391  34.054  29.772  0.2266 -0.1344 -0.2885
14167W        W57105  23.148   0.132  27.886 -0.3416 -0.1580 -0.0632
14168W        W57106  25.043   0.061  28.977  0.0713 -0.0847 -0.1250
14169W        W57107  26.219  33.724  29.379 -0.0470  0.0086  0.2161
14170W        W57108  24.299  33.897  28.451 -0.1535 -0.1694 -0.1222
14171W        W57109  24.556  34.332  28.406  0.1805  0.0236 -0.2893
14172W        W57110  25.294  34.440  27.660 -0.1531 -0.0387  0.1039
14173W        W57111  23.680  32.360  31.661  0.0461  0.3452 -0.2353
14174W        W57112  23.532   0.528  26.996  0.0556  0.3527 -0.0657
14175W        W57113  24.251  34.185  29.120  0.0054 -0.1788 -0.3769
14176W        W57114  23.093  34.642  29.810  0.1854 -0.3678  0.2481
14177W        W57115  24.145  33.029  29.398  0.4982  0.2991 -0.1367
14178W        W57116  23.352  33.270  30.741  0.0396 -0.1826 -0.0032
14179W        W57117  24.737  33.763  31.537  0.1313 -0.2271  0.2341
14180W        W57118  23.546   0.048  28.483  0.0376 -0.1817 -0.2496
14181W        W57119  25.127  34.457  30.040  0.1164 -0.2941 -0.1308
14182W        W57120  24.209   1.088  27.064  0.4593  0.1231 -0.0575
14183W        W57121  22.240  33.651  30.070  0.1247  0.0646 -0.0345
14184W        W57122  23.350  34.117  31.872 -0.0728 -0.0315 -0.2181
14185W        W57123  24.318  33.497  28.134  0.0282 -0.4252 -0.1043
14186W        W57124  22.810  33.295  30.830 -0.3106 -0.0637 -0.2488
14187W        W57125  25.262  33.353  30.176  0.2045  0.2672 -0.2294
14188W        W57126  23.782  34.182  28.420  0.1238 -0.0728  0.1712
14189W        W57127  23.244   1.105  29.208  0.2803  0.0077  0.0316
14190W        W57128  25.693  34.220  28.782 -0.1847  0.1800  0.3045
14191W        W57129  21.551  32.540  29.817 -0.1565 -0.0588  0.0142
14192W        W57130  23.331  33.977  28.121 -0.0875  0.0654  0.0620
14193W        W57131  23.257  33.546  31.152  0.1371  0.3965 -0.1287
14194W        W57132  24.886  33.972  28.323 -0.3134 -0.3572  0.2360
14195W        W57133  21.290   2.680  31.518 -0.3772 -0.3654  0.1015
14196W        W57134  22.035   0.818  27.655  0.1142 -0.0830 -0.1925
14197W        W57135  24.834  33.627  30.817 -0.0264 -0.1168 -0.3205
14198W        W57136  23.445  34.332  29.927  0.0246  0.2628  0.1956
14199W        W57137  21.845  33.461  28.655  0.5775 -0.0199 -0.1318
14200W        W57138  22.474  33.492  30.530 -0.1800  0.0204  0.2618
14201W        W57139  24.613  33.675  30.353  0.0493 -0.0225 -0.1161
14202W        W57140  22.805  33.018  27.218  0.2691 -0.0894 -0.3088
14203W        W57141  23.313   0.827  30.236  0.2132 -0.3538 -0.0091
14204W        W57142  23.943  32.981  30.901 -0.1374  0.1281  0.2740
14205W        W57143  22.756  33.721  29.363  0.2608 -0.0978 -0.1256
14206W        W57144  24.639   0.396  30.726  0.0364  0.0110  0.0711
14207W        W57145  23.136  33.927  29.707  0.1200  0.0777  0.0931
14208W        W57146  24.384  34.161  27.987  0.1010 -0.1097  0.1253
14209W        W57147  23.277  34.268  29.349 -0.0873 -0.3084 -0.5452
14210W        W57148  25.527  33.230  29.473 -0.2517 -0.0642 -0.1143
14211W        W57149  25.483   0.262  28.776  0.3203 -0.0209  0.0990
14212W        W57150  23.035  33.382  30.296 -0.0388 -0.0159  0.2024
14213W        W57151  22.892  32.802  30.726 -0.2316  0.0222 -0.1103
14214W        W57152  21.490  33.829  30.599  0.1193 -0.0224 -0.0366
14215W        W57153  22.970   1.933   1.341  0.0607  0.0043 -0.1807
14216W        W57154  24.376  33.647  28.897  0.1230 -0.1338  0.2963
14217W        W57155  23.408  33.548  27.879  0.0946  0.3362 -0.1269
14218W        W57156  23.666   0.660  31.084  0.2333  0.1340 -0.2634
14219W        W57157  25.347  33.611  29.777  0.2149 -0.0352  0.1241
14220W        W57158  22.347   0.802  28.090 -0.1145  0.1209 -0.0452
14221W        W57159  25.441   1.490  29.475 -0.0545 -0.2949  0.1271
14222W        W57160  21.645  31.736  30.331  0.3743  0.2960 -0.0164
14223W        W57161  24.519  33.383  29.389  0.0814 -0.1133  0.1100
14224W        W57162  24.636  33.874  29.340  0.1028 -0.1908  0.3982
14225W        W57163  22.473  34.041  30.410  0.2113  0.2947  0.0384
14226W        W57164  21.652   0.702  30.689 -0.0179  0.2137  0.1788
14227W        W57165  21.359  34.309  30.772  0.0009  0.1116 -0.0106
14228W        W57166  23.924  34.213  27.912 -0.3100  0.0120 -0.0311
14229W        W57167  25.251  33.256  30.765  0.0677 -0.0767  0.3494
14230W        W57168  25.825  34.292  29.346 -0.1793  0.3975 -0.2957
14231W        W57169  24.231   1.008  28.411 -0.0901  0.1230  0.2769
14232W        W57170  24.090  33.778  30.332  0.1729  0.1855 -0.2416
14233W        W57171  23.197  34.569  30.315  0.0328 -0.0404  0.0933
14234W        W57172  22.898  33.973  28.437 -0.1007 -0.1837 -0.1945
14235W        W57173  25.908  34.242  31.091 -0.1595  0.0847 -0.0600
14236W        W57174  24.004  34.444  27.392 -0.1875 -0.2540  0.0991
14237W        W57175  21.694  33.391  28.007  0.3202  0.1114 -0.0721
14238W        W57176  21.768  33.767  27.125 -0.0302  0.0823  0.1965
14239W        W57177  23.456  34.438  27.402  0.0910  0.1178 -0.0529
14240W        W57178  24.568  33.210  28.697  0.1173  0.1274 -0.3607
14241W        W57179  24.651  34.165  31.147  0.2545 -0.0998 -0.2692
14242W        W57180  24.171   0.055  29.140 -0.1193 -0.1292 -0.0601
14243W        W57181  24.717  34.398  29.234 -0.0374  0.1733 -0.1461
14244W        W57182  25.213  34.617  29.525 -0.0324 -0.1909  0.0105
14245W        W57183  25.034   0.497  29.641 -0.2737 -0.1924 -0.1994
14246W        W57184  24.829  34.128  30.569  0.1649  0.0383  0.0137
14247W        W57185  21.402   0.371  29.824 -0.2596 -0.0156 -0.2377
14248W        W57186  21.651  34.288  30.370  0.0461 -0.2595  0.3215
14249W        W57187  23.250  32.446  28.275 -0.1833  0.0670  0.2193
14250W        W57188  23.149  34.412  28.456 -0.0359 -0.1342  0.0339
14251W        W57189  24.132  32.962  26.959 -0.0380  0.0627 -0.2276
14252W        W57190  24.763   1.092  29.689 -0.2155  0.3615  0.2348
14253W        W57191  26.088  34.342  30.296  0.1256  0.2795  0.3669
14254W        W57192  23.241   0.741  29.663  0.2294 -0.2963 -0.2578
14255W        W57193  23.363  33.520  27.382 -0.1077  0.1108  0.0558
14256W        W57194  23.078  32.823  31.757  0.0406 -0.0330 -0.0894
14257W        W57195  25.599  32.872  28.564  0.0436 -0.2196 -0.0537
14258W        W57196  22.185  33.140  28.888 -0.3582 -0.1998  0.0386
14259W        W57197  25.688   1.401  28.106  0.3878  0.1402 -0.3807
14260W        W57198  25.197  32.878  30.008 -0.1567 -0.2346  0.2816
14261W        W57199  23.426  33.858  28.574 -0.1557  0.1725  0.0406
14262W        W57200  21.426  31.720  29.044  0.2009  0.0360  0.0042
14263W        W57201  25.955  33.822  28.990  0.0914 -0.2024 -0.0232
14264W        W57202  23.526  33.213  30.174  0.0207 -0.2384 -0.5604
14265W        W57203  24.341  32.963  30.567 -0.0738 -0.1249  0.1754
14266W        W57204  22.252  33.656  28.851  0.1790 -0.2594 -0.2057
14267W        W57205  24.694  33.640  27.190  0.2546 -0.0265 -0.2170
14268W        W57206  22.330   0.036  31.152 -0.0867  0.1841  0.1286
14269W        W57207  24.550   0.151  28.321  0.1338 -0.0756 -0.0873
14270W        W57208  24.514  34.650  31.543 -0.1804 -0.0726 -0.3514
14271W        W57209  24.062   1.121  27.649  0.0616  0.3564  0.1350
14272W        W57210  22.824  33.203  29.832  0.2031 -0.1054 -0.3574
14273W        W57211  24.536  34.643  28.793 -0.2132 -0.3158 -0.3546
14274W        W57212  22.526   0.443  27.670 -0.0884 -0.0985  0.1424
14275W        W57213  23.940  34.064  31.239 -0.0134  0.2262  0.2505
14276W        W57214  22.408  33.887  28.381  0.0006 -0.1777  0.2299
14277W        W57215  25.381  33.752  30.737  0.1975  0.0118 -0.1077
14278W        W57216  25.349   0.766  30.070  0.1415 -0.1091  0.2945
14279W        W57217  20.990  33.408  29.223  0.0657  0.0481  0.3286
14280W        W57218  23.917  33.800  28.770  0.0916  0.0088  0.0180
14281W        W57219  22.337  34.124  29.251 -0.0449  0.0331 -0.2484
14282W        W57220  24.855  33.178  31.140  0.1580  0.2217  0.3115
14283W        W57221  25.163  33.569  31.174  0.3696 -0.2074  0.0808
14284W        W57222  25.218  32.849  31.036  0.1842  0.1105 -0.3687
14285W        W57223  23.839  33.719  28.134 -0.1466  0.1070 -0.1618
14286W        W57224  23.950  32.892  30.063  0.1848 -0.0330  0.1312
14287W        W57225  26.828  34.306  28.221 -0.0406 -0.1164  0.0533
14288W        W57226  25.685  33.726  29.427 -0.0390 -0.0050 -0.1479
14289W        W57227  22.737   0.612  29.927 -0.1307 -0.0995  0.3099
14290W        W57228  22.634   0.044  27.946 -0.0037 -0.0078 -0.5159
14291W        W57229  23.592  31.674  30.442 -0.0483  0.2057  0.0147
14292W        W57230  22.665  33.024  30.332  0.0968 -0.2308 -0.0653
14293W        W57231  22.637  33.296  29.127 -0.0051  0.1742  0.0109
14294W        W57232  22.858  32.837  29.488  0.1654 -0.1288  0.1556
14295W        W57233  22.206  32.118  30.343  0.1393 -0.0207 -0.3483
14296W        W57234  22.188  33.175  29.820  0.0313  0.2166  0.2087
14297W        W57235  22.794  34.280  29.515  0.2120 -0.2566  0.0872
14298W        W57236  23.940  33.713   0.079  0.0747  0.0082  0.2357
14299W        W57237  22.635  34.308  31.139 -0.1438 -0.0257 -0.1324
14300W        W57238  21.165  33.971  29.026 -0.1942  0.3534 -0.0456
14301W        W57239  23.127   0.376  30.032 -0.2655 -0.1036  0.1127
14302W        W57240  21.756  32.333  30.247  0.0199 -0.1766 -0.0582
14303W        W57241  26.425  34.031  30.475  0.0374  0.1247  0.3091
14304W        W57242  24.591   2.191  27.089 -0.1415 -0.2025 -0.2174
14305W        W57243  22.240  32.372  31.667  0.0933  0.1775 -0.0488
14306W        W57244  22.770  33.697  29.930 -0.1353 -0.0679  0.2287
14307W        W57245  24.721   0.759  29.198 -0.1641  0.0832 -0.2021
14308W        W57246  22.084  32.580  29.778 -0.1157 -0.0506 -0.0073
14309W        W57247  23.615   0.365  28.060  0.0242  0.1066 -0.0277
14310W        W57248  23.024  34.530   0.048  0.0908 -0.0504 -0.0852
14311W        W57249  22.675  34.217  28.052 -0.1922 -0.1082  0.1612
14312W        W57250  25.398   0.387  27.732 -0.0638 -0.3637 -0.1236
14313W        W57251  22.441  34.569  29.814  0.1024 -0.0928  0.3116
14314W        W57252  22.039   0.245  27.419  0.1806 -0.1423 -0.2423
14315W        W57253  22.293   0.818  29.814 -0.0581 -0.0020  0.2813
14316W        W57254  23.042   0.167  31.255 -0.0164 -0.1701 -0.0002
14317W        W57255  23.307  34.089  30.366 -0.0651 -0.4250  0.3597
14318W        W57256  23.948  34.414  28.782  0.0025  0.0891 -0.2964
14319W        W57257  25.475  32.725  31.753  0.1246  0.1662  0.0009
14320W        W57258  23.403   1.080  31.386 -0.2140  0.1656  0.1249
14321W        W57259  22.040  34.249   0.278 -0.1143  0.1363  0.0141
14322W        W57260  23.743  34.445  31.012  0.0805 -0.1213 -0.5736
14323W        W57261  24.363  34.184  29.745 -0.1872 -0.1649 -0.1710
14324W        W57262  24.199  33.962   0.453  0.1087 -0.1801  0.2583
14325W        W57263  22.046  33.881  30.641  0.0158  0.0189 -0.0384
14326W        W57264  26.277  34.258  31.963 -0.0233 -0.1900 -0.4487
14327W        W57265  21.276  33.331  31.384 -0.2874 -0.2270  0.1066
14328W        W57266  22.850  34.277  30.113 -0.1932  0.0702  0.0292
14329W        W57267  20.900  32.349   0.357 -0.0542 -0.3199 -0.3078
14330W        W57268  24.390  33.663  31.196  0.2568  0.0091  0.1212
14331W        W57269  24.264  34.517  30.957  0.2514  0.0568 -0.0336
14332W        W57270  23.541  31.951  31.458  0.1075 -0.1406 -0.2092
14333W        W57271  23.815  34.226   0.015  0.0904  0.0122  0.0040
14334W        W57272  23.091  34.428  31.541 -0.1975  0.1305 -0.1754
14335W        W57273  23.710   0.715  31.559  0.3403 -0.1426  0.1819
14336W        W57274  22.431  33.317  31.239 -0.0845 -0.0863 -0.3275
14337W        W57275  24.282  34.026  30.755  0.4773 -0.2080  0.4682
14338W        W57276  21.639  33.931  31.077  0.1701 -0.1855 -0.0619
14339W        W57277  23.526   1.044  31.935 -0.1249 -0.0707  0.1201
14340W        W57278  24.892   0.697   0.070  0.0626  0.0343  0.0760
14341W        W57279  23.862  33.225   0.066 -0.2350 -0.0578  0.0056
14342W        W57280  23.823  34.211  30.602  0.0548  0.0532  0.2427
14343W        W57281  22.631   0.224   0.058  0.1435 -0.0580 -0.2703
14344W        W57282  22.655   1.591   0.186  0.0425 -0.2814 -0.2374
14345W        W57283  24.542  32.277  31.141  0.1130 -0.0698  0.0008
14346W        W57284  23.549  33.203  31.606 -0.0536 -0.0745 -0.0611
14347W        W57285  24.057  33.669  31.566 -0.1259  0.4254 -0.1435
14348W        W57286  23.851   0.140   0.745 -0.0605  0.0590 -0.0343
14349W        W57287  23.735   0.013   0.258  0.1919 -0.0400 -0.1511
14350W        W57288  22.019   2.347   0.409 -0.0127  0.3848  0.1047
14351W        W57289  20.072   0.150   0.231 -0.0809 -0.2688  0.1073
14352W        W57290  24.001   1.099  31.693  0.1560 -0.0078 -0.0944
14353W        W57291  26.586   2.444  19.246  0.0116 -0.2083 -0.0203
14354W        W57292  27.324   0.837  17.425 -0.2673  0.0521  0.0258
14355W        W57293  28.446   1.328  16.020  0.2205  0.0521 -0.2083
14356W        W57294  29.338   1.458  16.918  0.4481  0.0203  0.1545
14357W        W57295  25.964  34.545  16.912 -0.1859  0.2141 -0.1354
14358W        W57296  26.702   4.273  17.099 -0.1222  0.0661  0.1915
14359W        W57297  25.517   0.460  18.275  0.1286 -0.1548 -0.0583
14360W        W57298  28.504   3.419  19.303 -0.3500  0.2108  0.2135
14361W        W57299  27.696   4.441  19.885 -0.1395 -0.1926  0.0127
14362W        W57300  27.531   2.821  16.673 -0.0842 -0.1204  0.0365
14363W        W57301  26.410   0.421  18.687 -0.0242  0.1500  0.1743
14364W        W57302  26.613   2.895  20.532  0.1719  0.2983  0.0889
14365W        W57303  28.129   0.891  16.848  0.2531 -0.2815  0.1657
14366W        W57304  25.135  33.871  17.347  0.0864 -0.1499  0.0114
14367W        W57305  28.203   1.668  17.486  0.2569 -0.0591  0.2682
14368W        W57306  26.187   1.466  16.918 -0.0395  0.3476 -0.0935
14369W        W57307  28.362   1.285  19.371 -0.1840  0.2065 -0.0806
14370W        W57308  25.873   1.260  17.210 -0.0025 -0.0616  0.0533
14371W        W57309  27.752   2.528  18.122  0.0682 -0.0595 -0.0899
14372W        W57310  26.752   0.783  18.470  0.0944  0.0662  0.0256
14373W        W57311  27.265   0.363  21.544 -0.0181 -0.1818  0.2229
14374W        W57312  28.551   3.458  16.403  0.3511 -0.0192  0.0777
14375W        W57313  25.607   1.664  16.900 -0.1060  0.0511 -0.1123
14376W        W57314  24.888   3.568  18.935 -0.0456 -0.2010  0.0103
14377W        W57315  26.130   0.954  18.853 -0.0909  0.0850 -0.0115
14378W        W57316  28.157  33.814  17.740  0.3565 -0.1890  0.2238
14379W        W57317  27.813   1.227  18.165 -0.3987  0.3679  0.0701
14380W        W57318  26.672   4.063  19.444  0.4678 -0.0522  0.4275
14381W        W57319  27.692   2.952  17.683  0.3240  0.0447 -0.3541
14382W        W57320  28.202   1.106  18.513  0.1665  0.2921 -0.0746
14383W        W57321  27.096   2.385  17.795  0.1101  0.1869 -0.0221
14384W        W57322  24.902   3.390  17.615  0.0819  0.1947  0.2249
14385W        W57323  26.795   3.795  17.407 -0.3799  0.0584  0.3140
14386W        W57324  29.853   2.343  17.379 -0.0060 -0.0735 -0.1761
14387W        W57325  27.666   2.239  19.404  0.2609 -0.0650  0.2506
14388W        W57326  27.083   3.184  19.292  0.1097 -0.0033 -0.1273
14389W        W57327  25.858   3.634  17.342  0.0239 -0.2198 -0.1522
14390W        W57328  27.716   3.850  18.551 -0.0924  0.0700 -0.2437
14391W        W57329  27.194   2.544  21.053 -0.0398 -0.1346  0.1302
14392W        W57330  28.639   2.429  18.856 -0.3972  0.2690 -0.1068
14393W        W57331  26.277   3.329  17.556 -0.0362  0.0722  0.1723
14394W        W57332  26.769   2.027  17.094 -0.0584  0.0998 -0.2685
14395W        W57333  26.325   1.864  17.486 -0.2050 -0.1487  0.3111
14396W        W57334  26.019   1.406  19.118  0.2725  0.3569 -0.0711
14397W        W57335  25.818   2.963  19.572  0.0174  0.0863 -0.0393
14398W        W57336  28.752   1.541  21.047  0.3025 -0.0046 -0.2188
14399W        W57337  26.388   3.637  16.411 -0.0071 -0.1322 -0.1895
14400W        W57338  27.539   0.710  16.513  0.0676  0.0433  0.3643
14401W        W57339  27.180   0.841  16.216  0.0055 -0.1567 -0.1341
14402W        W57340  27.372   1.446  16.786 -0.3246 -0.5283  0.0824
14403W        W57341  26.826   0.379  17.479 -0.0458  0.1346  0.1432
14404W        W57342  26.305   3.500  18.149 -0.2009  0.1420 -0.1055
14405W        W57343  27.627  34.581  18.740 -0.2842 -0.2033 -0.2536
14406W        W57344  27.990   2.578  20.275 -0.0338  0.1605  0.2585
14407W        W57345  26.647   1.270  16.751  0.1103 -0.1014 -0.3538
14408W        W57346  27.934   1.661  18.467 -0.0863  0.0987 -0.0499
14409W        W57347  27.017   3.267  18.392 -0.0374 -0.0629  0.1672
14410W        W57348  26.024   1.359  18.576 -0.3357 -0.0353  0.1478
14411W        W57349  28.331   3.617  17.319 -0.3416 -0.1401  0.1298
14412W        W57350  28.965   3.131  19.342 -0.1626  0.3727  0.2800
14413W        W57351  28.248   2.485  16.791  0.2104  0.1489  0.2469
14414W        W57352  25.886   2.599  17.197 -0.1012 -0.1354 -0.1016
14415W        W57353  23.890   3.167  21.473  0.1045 -0.0227 -0.0200
14416W        W57354  25.946   1.842  20.507 -0.2642  0.2107  0.3253
14417W        W57355  25.300   0.075  16.666 -0.1489  0.0285 -0.2272
14418W        W57356  29.034   1.249  20.148  0.3358 -0.0755  0.2994
14419W        W57357  24.395   2.795  20.718  0.0163  0.1349  0.2587
14420W        W57358  28.474  34.224  17.444  0.1758 -0.0509 -0.3183
14421W        W57359  27.675   1.840  17.461  0.0664  0.0535  0.4051
14422W        W57360  28.505   2.277  18.077 -0.0115  0.1210 -0.0131
14423W        W57361  28.029   2.463  19.059 -0.1492  0.5537 -0.3284
14424W        W57362  28.180   0.592  18.357  0.0128  0.0340  0.2597
14425W        W57363  28.691   0.929  19.802  0.0137 -0.0665 -0.1114
14426W        W57364  25.437   1.102  16.921 -0.0153 -0.2173 -0.0487
14427W        W57365  26.781   1.651  16.336  0.2158  0.1189  0.0557
14428W        W57366  28.602   1.738  20.155 -0.0756  0.2361 -0.0116
14429W        W57367  28.139   2.027  17.108 -0.5301 -0.1123  0.0378
14430W        W57368  26.386   2.787  18.344  0.0642 -0.0127  0.1077
14431W        W57369  27.234   1.047  19.429  0.0537  0.0751 -0.2443
14432W        W57370  28.215   4.345  19.982  0.0454 -0.2118  0.0500
14433W        W57371  26.282   3.292  16.887 -0.1216 -0.0034  0.1082
14434W        W57372  25.898   2.829  17.675  0.0970 -0.0174  0.2062
14435W        W57373  26.675   3.220  17.294  0.3652  0.0732 -0.0930
14436W        W57374  24.124  34.610  18.645 -0.0580 -0.1280 -0.4006
14437W        W57375  28.387   0.883  17.966 -0.0115  0.0484  0.0726
14438W        W57376  30.196  34.682  17.206 -0.1630  0.1136  0.1835
14439W        W57377  26.619   0.767  18.995 -0.0045 -0.1755 -0.1229
14440W        W57378  27.818   0.731  18.801  0.0681  0.0733  0.1905
14441W        W57379  26.535   0.582  18.024  0.0274  0.0675  0.3133
14442W        W57380  31.034   3.569  18.427  0.0184  0.0102 -0.3356
14443W        W57381  27.764   0.441  16.869  0.4200  0.1840 -0.2342
14444W        W57382  27.595   3.440  17.492 -0.1652 -0.0415  0.0287
14445W        W57383  26.375   2.041  17.938  0.1627  0.1074  0.3926
14446W        W57384  26.001   0.735  17.014  0.1319  0.0130 -0.1520
14447W        W57385  26.708   0.372  20.534  0.3639  0.2174  0.1746
14448W        W57386  26.678   0.121  17.884  0.2055 -0.2061  0.0015
14449W        W57387  29.666   2.082  17.752 -0.1658  0.1227 -0.0520
14450W        W57388  25.833   1.352  16.557 -0.3370  0.4129  0.5812
14451W        W57389  26.447   1.892  16.752  0.2103  0.3381  0.0556
14452W        W57390  27.454   1.680  18.400 -0.0817  0.2713 -0.2821
14453W        W57391  26.937   2.545  17.373 -0.1226 -0.0719 -0.2455
14454W        W57392  26.425   1.976  19.735 -0.0650  0.0285  0.1692
14455W        W57393  28.693   2.702  18.384  0.0096 -0.2484 -0.3016
14456W        W57394  29.121   3.923  20.035  0.3226 -0.1503  0.1192
14457W        W57395  28.070   5.120  18.908 -0.0983  0.0457 -0.1811
14458W        W57396  26.245   0.785  18.351  0.1350  0.0209  0.2661
14459W        W57397  26.257   0.976  16.643  0.3166  0.0598  0.0559
14460W        W57398  26.335   3.222  18.725  0.4723 -0.0654  0.1010
14461W        W57399  27.117   3.332  17.890 -0.0905 -0.1559 -0.1020
14462W        W57400  26.309   1.531  16.389 -0.1736  0.0817  0.1705
14463W        W57401  29.722   3.811  18.536 -0.2851  0.1907 -0.1003
14464W        W57402  27.887   3.071  18.301 -0.1022 -0.1397  0.3236
14465W        W57403  25.698   3.132  19.997  0.2743 -0.2761 -0.1743
14466W        W57404  28.214   0.213  20.305 -0.1605  0.1200 -0.1747
14467W        W57405  29.277   2.063  18.981 -0.0026 -0.2599  0.0750
14468W        W57406  28.010   0.541  17.689  0.0616  0.0416 -0.1841
14469W        W57407  25.864   1.130  17.724  0.3582  0.0729  0.0033
14470W        W57408  27.101   2.458  19.765 -0.1668  0.3718 -0.3423
14471W        W57409  26.128   1.968  16.038 -0.1057 -0.0587 -0.1923
14472W        W57410  25.603   2.580  18.254 -0.0553 -0.1964  0.1849
14473W        W57411  29.552   2.788  17.258  0.0652 -0.2964  0.1117
14474W        W57412  27.999   0.502  19.243  0.3474  0.0088  0.2790
14475W        W57413  26.023   1.863  21.018  0.2441  0.2526  0.0744
14476W        W57414  27.503   0.589  21.149  0.4478  0.0309  0.2459
14477W        W57415  25.870   1.549  16.071  0.2064  0.0163 -0.1567
14478W        W57416  26.918   3.850  20.466 -0.1156 -0.2500  0.2902
14479W        W57417  28.296   1.450  18.123  0.1026  0.1433 -0.2067
14480W        W57418  29.937   0.465  17.220 -0.0425  0.0727 -0.1912
14481W        W57419  26.289   2.632  21.016 -0.0095 -0.0646  0.2403
14482W        W57420  29.074   2.034  17.025 -0.1244  0.0496  0.1573
14483W        W57421  26.431   1.022  17.131  0.0854 -0.0238 -0.0984
14484W        W57422  27.567   0.081  16.555  0.0715  0.1078 -0.1237
14485W        W57423  27.045   4.013  20.972 -0.0246  0.0515  0.1342
14486W        W57424  27.690   3.008  17.195  0.1517  0.1863  0.1058
14487W        W57425  27.502   2.140  18.750 -0.0267  0.1592  0.1262
14488W        W57426  28.067   1.104  17.667  0.1250 -0.1645  0.2783
14489W        W57427  30.243   3.647  18.729 -0.0536 -0.0451 -0.1905
14490W        W57428  26.291   3.434  19.292 -0.3093 -0.1721  0.0426
14491W        W57429  27.797   2.923  19.837 -0.1729 -0.0752 -0.1636
14492W        W57430  29.064   1.990  18.119 -0.2318 -0.2734  0.1699
14493W        W57431  29.063   0.065  18.218  0.1276  0.1344 -0.0166
14494W        W57432  26.771   0.668  16.961  0.0874  0.0382 -0.1246
14495W        W57433  27.576   1.372  17.655 -0.0114  0.2881  0.0878
14496W        W57434  25.921   4.419  16.206 -0.2879 -0.2666  0.0738
14497W        W57435  27.962   2.211  18.543 -0.0682  0.0054  0.1792
14498W        W57436  27.438   1.246  19.050  0.0281 -0.0125 -0.0334
14499W        W57437  27.140   0.753  18.793  0.2582 -0.1313 -0.1066
14500W        W57438  28.392   1.979  18.836 -0.2806  0.1188 -0.0500
14501W        W57439  28.352   1.514  16.856  0.0518 -0.1090 -0.0635
14502W        W57440  29.597   1.861  18.209 -0.0123  0.0552 -0.0694
14503W        W57441  25.800   3.086  16.082 -0.3090 -0.4125  0.1175
14504W        W57442  25.673   1.748  19.202 -0.3928  0.0005  0.0718
14505W        W57443  26.542   2.526  19.752  0.1499  0.0240 -0.0188
14506W        W57444  26.399   3.244  20.994 -0.0506 -0.6722  0.1986
14507W        W57445  26.912   2.056  19.512 -0.0250  0.0955  0.2588
14508W        W57446  27.258   3.814  17.719  0.2750 -0.2992  0.0919
14509W        W57447  27.189   2.262  20.277 -0.1730 -0.0488  0.0975
14510W        W57448  27.496   0.964  16.961 -0.1151 -0.4555 -0.1444
14511W        W57449  28.339   3.387  16.856 -0.0773  0.1065 -0.0990
14512W        W57450  27.213   2.044  17.414 -0.3785 -0.1458  0.1795
14513W        W57451  27.622  34.484  18.071  0.2597  0.1105 -0.1461
14514W        W57452  27.501   3.085  19.042 -0.1235  0.3235  0.0972
14515W        W57453  27.442   2.573  17.175  0.1691 -0.2505  0.1756
14516W        W57454  27.594   3.323  19.473 -0.0854  0.1099 -0.2131
14517W        W57455  25.871   1.930  16.520  0.0679 -0.0240  0.3777
14518W        W57456  27.667   1.231  18.647 -0.1598 -0.2683  0.2013
14519W        W57457  25.844   3.648  18.347 -0.0948 -0.1195  0.2749
14520W        W57458  26.338   1.358  17.510  0.3394  0.0552  0.0973
14521W        W57459  24.000   1.259  16.635  0.0063 -0.0224 -0.1070
14522W        W57460  26.986   0.599  19.296 -0.3279  0.2605 -0.2024
14523W        W57461  28.808   2.187  17.445 -0.0726 -0.1589 -0.2773
14524W        W57462  26.407   1.573  19.364 -0.0498 -0.0333  0.0502
14525W        W57463  27.328   1.189  18.046  0.0423 -0.0199  0.0204
14526W        W57464  25.937   3.482  18.863 -0.3679 -0.1886  0.3855
14527W        W57465  27.767   2.681  18.630 -0.0305 -0.1617  0.2082
14528W        W57466  28.469  34.625  17.019 -0.0078 -0.1242 -0.0880
14529W        W57467  28.793   3.064  19.898 -0.2902 -0.1734 -0.1758
14530W        W57468  27.262   3.241  20.346 -0.3214  0.4379 -0.1565
14531W        W57469  25.081   0.594  15.925  0.0403 -0.0713  0.1043
14532W        W57470  29.133   1.752  17.623  0.2815 -0.2990 -0.2763
14533W        W57471  27.501   2.095  18.098  0.2657 -0.2584 -0.1217
14534W        W57472  25.250   3.866  16.857 -0.0990 -0.1046 -0.1191
14535W        W57473  27.137   3.349  17.363  0.0674  0.1185 -0.0099
14536W        W57474  25.947   1.937  17.143 -0.0028  0.0399  0.1859
14537W        W57475  27.012   2.914  17.640 -0.0572  0.0900 -0.0450
14538W        W57476  25.969   1.790  19.671 -0.1452 -0.4235 -0.5877
14539W        W57477  27.342   2.842  19.542 -0.1487  0.2247 -0.2769
14540W        W57478  27.036   0.359  18.391 -0.2346  0.0171 -0.3080
14541W        W57479  25.019   1.877  18.827 -0.0130  0.1987 -0.2429
14542W        W57480  27.474   1.743  19.340 -0.1988 -0.0019  0.2056
14543W        W57481  28.259   2.867  18.826  0.0583 -0.0254  0.0197
14544W        W57482  27.485   0.596  19.632 -0.0180  0.1259 -0.2814
14545W        W57483  25.081   3.890  20.241 -0.0231  0.0542 -0.0515
14546W        W57484  27.728   0.245  18.238  0.0585  0.3126 -0.2325
14547W        W57485  26.729   3.575  18.585  0.1288 -0.0579  0.0240
14548W        W57486  27.166   1.210  18.577 -0.2067 -0.1827  0.2800
14549W        W57487  26.126   2.468  16.267 -0.0109 -0.3547 -0.4176
14550W        W57488  26.397   2.705  18.904  0.0876 -0.0804 -0.0326
14551W        W57489  26.528   1.868  18.409  0.2325 -0.1527  0.0354
14552W        W57490  27.674   1.105  19.650 -0.0685 -0.0148 -0.3102
14553W        W57491  25.456   3.761  18.806 -0.0149  0.1229  0.0647
14554W        W57492  26.429   2.396  17.149  0.2471  0.1646 -0.0870
14555W        W57493  27.535   2.605  19.105  0.1662  0.2797  0.0831
14556W        W57494  28.424   1.180  16.509  0.1666 -0.2384  0.2479
14557W        W57495  27.754   2.249  16.863  0.0268  0.1511  0.1338
14558W        W57496  27.020   2.024  18.221  0.2141  0.0480  0.2095
14559W        W57497  29.007   1.390  19.388  0.3218 -0.0044  0.0203
14560W        W57498  28.604   1.364  17.680 -0.0234 -0.1502  0.1322
14561W        W57499  28.477   2.194  19.280 -0.0167 -0.1534  0.2203
14562W        W57500  27.473   0.374  18.690 -0.1107 -0.1717 -0.1717
14563W        W57501  29.078   3.414  17.383  0.1051 -0.0241  0.0005
14564W        W57502  24.997   2.019  20.278 -0.2189 -0.0240  0.2549
14565W        W57503  26.816   2.875  19.572  0.2713 -0.0056  0.1332
14566W        W57504  26.412   3.729  20.677 -0.0706  0.0296 -0.2372
14567W        W57505  25.875  34.080  18.894 -0.1256  0.0021  0.0450
14568W        W57506  25.618   2.239  17.367  0.2428  0.0535  0.2698
14569W        W57507  26.481   1.260  18.962 -0.0698 -0.1574  0.0542
14570W        W57508  29.042   3.051  18.388 -0.3247  0.1767 -0.2244
14571W        W57509  26.660   1.648  17.871 -0.1437 -0.1334 -0.0201
14572W        W57510  29.611   1.330  18.309  0.1845 -0.1722  0.0380
14573W        W57511  26.003   2.592  19.174  0.3232 -0.2253 -0.1732
14574W        W57512  28.420   1.226  17.256 -0.1043 -0.3402 -0.0179
14575W        W57513  27.195   1.721  17.836  0.2583  0.0138  0.2351
14576W        W57514  26.131   2.078  19.244  0.1630  0.2768 -0.1463
14577W        W57515  26.165   0.553  20.438 -0.0224 -0.5251  0.0731
14578W        W57516  29.959   0.986  17.177 -0.0541 -0.2700 -0.1731
14579W        W57517  28.694   1.708  17.191  0.1419 -0.0801  0.0220
14580W        W57518  27.732   1.263  21.045 -0.2833  0.1186  0.0350
14581W        W57519  26.798   1.100  17.971 -0.1579 -0.2209  0.1036
14582W        W57520  27.668   1.610  20.060 -0.2948  0.2414 -0.0099
14583W        W57521  23.627   1.650  19.538 -0.1888 -0.3730  0.0298
14584W        W57522  28.190   3.740  18.875  0.3522 -0.0107  0.0068
14585W        W57523  29.431   1.639  16.463 -0.0612  0.1608  0.3378
14586W        W57524  28.770   2.994  18.869 -0.2632 -0.1113  0.2020
14587W        W57525  28.801   0.576  18.183  0.0737 -0.1328  0.1215
14588W        W57526  26.921   1.662  16.853  0.5192  0.1442  0.0098
14589W        W57527  25.374   2.181  18.623  0.0227 -0.0549 -0.0081
14590W        W57528  28.034   3.317  19.659  0.0160 -0.0620  0.0158
14591W        W57529  27.114   0.470  16.600  0.0774  0.2165 -0.4496
14592W        W57530  27.689   0.885  20.690  0.0543  0.3076  0.2208
14593W        W57531  28.248   2.956  17.020 -0.0932  0.2547  0.1418
14594W        W57532  29.220   3.460  17.863 -0.2877  0.0558 -0.0726
14595W        W57533  27.449   0.821  18.427  0.0785  0.0551  0.2363
14596W        W57534  25.400   1.452  17.336  0.0951  0.1386 -0.2737
14597W        W57535  24.134   3.682  19.939 -0.1636 -0.0710  0.2735
14598W        W57536  26.128   1.136  16.199 -0.2885 -0.0535 -0.0309
14599W        W57537  26.996   2.413  16.881 -0.2220  0.0460  0.0466
14600W        W57538  26.727   3.505  19.050 -0.2954 -0.4461 -0.0031
14601W        W57539  27.954   2.157  21.359  0.3559 -0.0111 -0.0309
14602W        W57540  27.608   0.545  16.023  0.1653 -0.0574  0.1881
14603W        W57541  29.834   0.809  19.080  0.1145  0.2240 -0.0108
14604W        W57542  26.296   2.855  17.397 -0.1776  0.0116  0.0470
14605W        W57543  27.528  34.400  17.605  0.2246 -0.0143 -0.3050
14606W        W57544  27.469   4.349  18.600  0.2274 -0.2322 -0.2928
14607W        W57545  24.856   3.232  19.346  0.2493  0.0025 -0.0387
14608W        W57546  27.222   2.449  18.387  0.0761 -0.1602  0.3054
14609W        W57547  28.107   0.978  19.044 -0.1180  0.1028 -0.2829
14610W        W57548  27.598   2.427  17.687  0.0802  0.1457 -0.1373
14611W        W57549  29.179   1.612  18.426 -0.1251  0.1473  0.0632
14612W        W57550  29.262   0.849  18.346 -0.0418 -0.0543  0.2423
14613W        W57551  26.992   2.653  19.143  0.2678 -0.1275 -0.0696
14614W        W57552  26.503   0.679  19.531  0.0606  0.0030  0.3242
14615W        W57553  27.478   3.551  19.913  0.3761 -0.0663  0.1599
14616W        W57554  28.750   1.069  18.291  0.1143  0.0670  0.0627
14617W        W57555  26.476   3.047  17.902 -0.0401 -0.0119 -0.2319
14618W        W57556  25.531   3.692  20.759 -0.0959 -0.1034 -0.3046
14619W        W57557  26.521   1.195  18.440  0.0888  0.0470  0.0370
14620W        W57558  27.994   2.103  17.967 -0.0011 -0.1504  0.1346
14621W        W57559  27.198  34.060  17.673  0.0766  0.1198  0.0842
14622W        W57560  27.348   2.322  16.473 -0.2598 -0.0502  0.2917
14623W        W57561  25.595   6.292  18.898 -0.0503 -0.0168 -0.0924
14624W        W57562  25.772   1.523  20.108 -0.1203  0.0853  0.0203
14625W        W57563  27.438   3.391  16.948  0.2583  0.0431 -0.4610
14626W        W57564  28.224   2.625  18.329  0.0247 -0.0367  0.1433
14627W        W57565  29.960   3.061  17.509 -0.0376 -0.3302  0.0139
14628W        W57566  28.257   3.401  17.934 -0.3470 -0.0648 -0.3334
14629W        W57567  26.822  34.543  15.816  0.0387  0.2874  0.2011
14630W        W57568  26.363   3.834  18.811  0.0002 -0.1490 -0.2016
14631W        W57569  25.910   3.296  17.890  0.1240 -0.0388  0.0114
14632W        W57570  27.930   3.110  16.642 -0.0808  0.0771 -0.0286
14633W        W57571  27.386   3.820  17.187 -0.1975 -0.1577  0.1941
14634W        W57572  27.874   3.101  20.419 -0.3125  0.0748  0.2247
14635W        W57573  31.035   0.727  16.481  0.1588  0.1633  0.1472
14636W        W57574  29.232   3.955  17.737  0.1369 -0.2843 -0.0217
14637W        W57575  30.106   0.243  18.386  0.1048 -0.0059 -0.0111
14638W        W57576  29.423   3.486  20.829  0.3376  0.1968  0.1211
14639W        W57577  28.578   1.671  19.222  0.1270 -0.1465 -0.2039
14640W        W57578  27.568   0.416  17.511  0.1472 -0.1768 -0.4914
14641W        W57579  26.535   1.095  19.959 -0.0362 -0.1945  0.0824
14642W        W57580  28.645   0.343  20.478 -0.1585 -0.0972  0.1027
14643W        W57581  25.330   3.686  19.266 -0.1080  0.1454  0.0490
14644W        W57582  29.373   2.971  16.816  0.1154 -0.1203  0.1219
14645W        W57583  24.762   1.282  16.641  0.0632  0.2500  0.0533
14646W        W57584  27.731   1.672  18.032 -0.0749  0.0120  0.2132
14647W        W57585  30.155   0.981  18.681 -0.1458  0.0986 -0.0372
14648W        W57586  26.545   2.587  16.463  0.1497  0.1958  0.0767
14649W        W57587  27.616   0.779  17.976 -0.1519  0.0399  0.1549
14650W        W57588  26.848   1.597  17.381 -0.2738  0.2829 -0.0437
14651W        W57589  27.515   4.435  17.035  0.0434  0.2668  0.3182
14652W        W57590  26.142   4.291  19.154 -0.1567  0.1416 -0.1744
14653W        W57591  25.940   0.289  17.177  0.0996 -0.0820  0.2854
14654W        W57592  29.045   1.138  18.697 -0.1781  0.1002  0.2980
14655W        W57593  26.876   1.522  18.265 -0.1567  0.0470 -0.2109
14656W        W57594  29.236  33.572  18.885 -0.1254  0.0592  0.1186
14657W        W57595  26.730   0.893  17.488  0.1493 -0.2607 -0.3296
14658W        W57596  27.886   0.068  17.703  0.1813  0.2603  0.0228
14659W        W57597  26.962   1.151  19.036 -0.1296 -0.2743  0.0987
14660W        W57598  25.099   1.465  20.645  0.0916  0.2517  0.3872
14661W        W57599  27.255   1.994  16.892 -0.2242  0.0302  0.3541
14662W        W57600  27.689   1.667  18.896 -0.0408  0.0806  0.1114
14663W        W57601  28.761   2.584  16.769  0.0174 -0.5050  0.3296
14664W        W57602  27.722   2.086  20.275  0.3011  0.2941 -0.3460
14665W        W57603  25.549   1.215  19.309 -0.2538  0.0448  0.1297
14666W        W57604  28.313   2.591  16.266 -0.1684  0.0652 -0.1194
14667W        W57605  26.201   1.591  18.112  0.1108 -0.0231  0.2155
14668W        W57606  28.218   1.522  18.876  0.1045 -0.2270  0.0348
14669W        W57607  28.425   3.319  18.801  0.1202  0.2504 -0.0283
14670W        W57608  25.753   0.370  19.115  0.1202  0.0092 -0.1279
14671W        W57609  27.963   2.463  17.351 -0.1242  0.0387  0.1836
14672W        W57610  29.034   1.559  18.936  0.2264 -0.4504  0.0660
14673W        W57611  27.484   3.497  18.227 -0.3822  0.2433 -0.4254
14674W        W57612  28.604   1.813  17.841  0.1337  0.0605  0.0201
14675W        W57613  28.699   2.550  19.591 -0.2121  0.0885  0.0911
14676W        W57614  25.931   3.048  18.381  0.2920 -0.0411  0.1075
14677W        W57615  27.099   3.648  19.424 -0.0106  0.0255 -0.4616
14678W        W57616  28.601   3.403  20.441  0.0902  0.2740 -0.1202
14679W        W57617  25.999  34.585  17.485 -0.0885  0.0644 -0.2198
14680W        W57618  26.058   2.418  18.128 -0.2026  0.0867 -0.2720
14681W        W57619  26.387   3.043  16.390  0.0630  0.2817 -0.2915
14682W        W57620  28.589   1.457  18.554 -0.0702  0.0030  0.1040
14683W        W57621  27.358   2.035  19.817  0.0810 -0.0125  0.0861
14684W        W57622  27.910   3.919  16.332  0.2749  0.3252 -0.1504
14685W        W57623  27.652  34.507  20.616  0.2450 -0.0139 -0.2600
14686W        W57624  27.066   1.234  17.599 -0.3963  0.1876  0.1374
14687W        W57625  26.838   3.952  18.975 -0.1183  0.0222 -0.2577
14688W        W57626  26.318   1.545  15.895  0.1594 -0.0031  0.0607
14689W        W57627  25.463   1.624  19.655 -0.0114 -0.0231 -0.0605
14690W        W57628  26.796   1.547  18.747  0.0658 -0.1028  0.1004
14691W        W57629  27.699   4.149  17.513 -0.3084 -0.1927 -0.0312
14692W        W57630  28.310   3.802  19.786  0.1072 -0.0586 -0.0817
14693W        W57631  26.269   1.751  18.808  0.1436  0.2045 -0.0213
14694W        W57632  30.247   2.670  17.602 -0.0539  0.0054  0.2240
14695W        W57633  27.085   0.665  17.845  0.0512 -0.0074  0.1315
14696W        W57634  28.812   0.023  17.452 -0.2399 -0.5055 -0.0943
14697W        W57635  25.750  34.620  18.076 -0.1421  0.0255  0.0195
14698W        W57636  26.329   2.865  19.430  0.1668 -0.1843  0.2743
14699W        W57637  24.934   0.057  16.179  0.3546 -0.2866 -0.1430
14700W        W57638  26.876   2.081  18.708 -0.1652  0.1465  0.0798
14701W        W57639  26.647   2.418  18.190  0.1058  0.0982  0.0392
14702W        W57640  27.344   0.491  20.163 -0.1965 -0.1927 -0.1768
14703W        W57641  25.312   0.807  19.510 -0.0185  0.1501 -0.3479
14704W        W57642  25.180   0.439  17.611  0.1677  0.0332 -0.1877
14705W        W57643  24.971  34.423  17.472  0.2228  0.0762  0.0726
14706W        W57644  29.733   2.415  16.897 -0.0125  0.1681 -0.1332
14707W        W57645  26.127   0.240  18.227 -0.2277  0.0923  0.0938
14708W        W57646  26.024   0.690  17.944  0.2660 -0.1561 -0.0636
14709W        W57647  27.789   3.355  17.901  0.0104 -0.0380 -0.0061
14710W        W57648  29.885   4.045  17.905 -0.1722 -0.0563  0.0633
14711W        W57649  26.498  34.356  17.504  0.2124  0.2304 -0.1359
14712W        W57650  27.868   2.830  19.374  0.0292 -0.1533 -0.0929
14713W        W57651  24.891   4.559  15.752 -0.1882  0.2261 -0.1990
14714W        W57652  26.860   1.321  20.257 -0.2641 -0.1652 -0.0359
14715W        W57653  28.074   1.453  19.820  0.1304 -0.1535 -0.1808
14716W        W57654  25.616   1.099  16.181 -0.0710  0.0711  0.2349
14717W        W57655  26.730   1.151  19.479  0.0825 -0.3281  0.2058
14718W        W57656  29.233   2.363  17.796 -0.0529  0.0060  0.3689
14719W        W57657  27.874   3.815  18.010  0.2264  0.0238 -0.1694
14720W        W57658  27.961   1.804  20.704 -0.0941 -0.2305  0.1407
14721W        W57659  25.965   2.535  19.711 -0.2670 -0.1057 -0.1121
14722W        W57660  24.752   0.529  20.595 -0.1431 -0.2392 -0.1280
14723W        W57661  28.443   2.967  16.515 -0.1281 -0.1286  0.1613
14724W        W57662  26.607   1.995  19.075  0.0235  0.2537  0.0072
14725W        W57663  28.711   2.635  17.707 -0.1215 -0.0396  0.1327
14726W        W57664  28.689   0.443  17.739  0.0406 -0.2663  0.1773
14727W        W57665  27.347   1.534  17.249 -0.0701 -0.2130 -0.0553
14728W        W57666  25.598  33.479  19.079  0.0424 -0.2471 -0.3747
14729W        W57667  26.639   3.522  19.647 -0.1819 -0.1884  0.4019
14730W        W57668  27.882   1.411  19.237  0.0206 -0.1793 -0.4825
14731W        W57669  25.258   0.942  17.408 -0.4397  0.1324 -0.2162
14732W        W57670  29.037   1.303  16.424  0.2532 -0.1194 -0.0599
14733W        W57671  28.439   3.121  18.320  0.0082  0.3321 -0.0698
14734W        W57672  26.188   3.303  19.805  0.3344  0.0196  0.0850
14735W        W57673  27.007   1.181  17.130  0.0124  0.2041  0.1366
14736W        W57674  27.372   2.793  20.029  0.2485  0.1054  0.0082
14737W        W57675  26.804   2.605  18.632 -0.1924  0.1659  0.1092
14738W        W57676  29.839   3.347  20.583 -0.2385  0.0073  0.1026
14739W        W57677  25.841   1.595  17.567 -0.1838 -0.0919 -0.0329
14740W        W57678  30.847   1.832  17.270 -0.1934 -0.1695 -0.0237
14741W        W57679  26.946   1.585  19.249  0.3029 -0.1056 -0.1438
14742W        W57680  29.836   3.309  19.999 -0.0538  0.0442  0.4102
14743W        W57681  25.712   3.357  19.287 -0.2753 -0.0169 -0.2982
14744W        W57682  29.061   2.925  17.523 -0.0795  0.3573 -0.0459
14745W        W57683  24.365  34.665  18.201  0.0979  0.1521  0.5030
14746W        W57684  26.289   0.475  16.653 -0.1635  0.0470 -0.0148
14747W        W57685  26.789   2.069  17.603 -0.2759 -0.1718  0.0590
14748W        W57686  29.168   2.640  18.723  0.1123  0.0995 -0.0702
14749W        W57687  25.895   1.084  18.182 -0.0096  0.0668  0.2094
14750W        W57688  27.940  34.655  16.911 -0.1800  0.0402 -0.0630
14751W        W57689  24.998   4.620  19.532 -0.0406 -0.0368 -0.1133
14752W        W57690  28.463   2.935  19.299 -0.2094  0.5939 -0.1163
14753W        W57691  25.110   1.435  24.206  0.0496 -0.1502 -0.1199
14754W        W57692  25.591   2.062  20.828 -0.1230 -0.1023  0.0462
14755W        W57693  27.894   0.232  20.916 -0.2244  0.2176  0.1223
14756W        W57694  27.320   1.450  19.695 -0.0775 -0.1470  0.1447
14757W        W57695  25.726   0.324  21.381  0.0799  0.0541 -0.1997
14758W        W57696  28.300   3.806  20.338 -0.0798  0.4023  0.5915
14759W        W57697  26.279  32.452  22.963 -0.4389  0.1188  0.1317
14760W        W57698  26.166   2.965  22.033  0.0393 -0.1059  0.1370
14761W        W57699  27.682   1.724  22.789  0.1341 -0.3044 -0.6232
14762W        W57700  28.841   1.946  18.591 -0.0588 -0.2255  0.0818
14763W        W57701  25.408  34.290  21.824  0.0536  0.0177  0.1006
14764W        W57702  27.863   1.661  24.575 -0.1921 -0.2789  0.2062
14765W        W57703  27.450  33.064  20.590 -0.0128 -0.0557  0.1074
14766W        W57704  23.408  34.388  22.594 -0.0402 -0.0620  0.4504
14767W        W57705  27.147   1.381  22.314 -0.2422  0.1972 -0.2726
14768W        W57706  25.634   2.168  19.480 -0.2366 -0.3409  0.1494
14769W        W57707  25.658   1.692  23.161 -0.0919 -0.1753  0.0151
14770W        W57708  26.322   0.011  22.229 -0.0082 -0.2203 -0.2254
14771W        W57709  26.585   4.130  20.884  0.0437  0.0354  0.1537
14772W        W57710  25.810   0.636  22.618 -0.1323  0.3404  0.0655
14773W        W57711  26.840  33.783  23.175  0.0985  0.2945  0.6006
14774W        W57712  27.561   2.467  20.653 -0.0161 -0.0022  0.0015
14775W        W57713  25.225   2.428  20.173  0.1492 -0.0027  0.1518
14776W        W57714  25.743   1.175  22.460  0.0668 -0.4546 -0.1834
14777W        W57715  26.886   2.082  23.039 -0.3065 -0.2115 -0.0173
14778W        W57716  26.601   1.270  23.053 -0.1751  0.1373 -0.2402
14779W        W57717  28.842   1.766  21.769 -0.0743  0.0518 -0.1782
14780W        W57718  27.305   3.337  22.182  0.0140  0.0590 -0.3208
14781W        W57719  26.156   2.507  22.793 -0.0634 -0.1894  0.1128
14782W        W57720  26.350   1.833  22.168  0.5363 -0.1251 -0.1313
14783W        W57721  24.739   2.495  21.953  0.0877  0.1939  0.1644
14784W        W57722  25.190   3.187  22.168 -0.1019 -0.0893  0.3923
14785W        W57723  25.928   4.166  21.382 -0.1339  0.1320 -0.3252
14786W        W57724  28.425   2.675  22.163  0.2077  0.1893 -0.3011
14787W        W57725  28.688   3.554  23.166 -0.0089 -0.3062  0.0182
14788W        W57726  26.296   3.799  25.141 -0.3114 -0.2183 -0.1069
14789W        W57727  24.956   2.347  21.521 -0.0285  0.0036  0.0464
14790W        W57728  26.977   3.651  24.494 -0.1373  0.2598 -0.1188
14791W        W57729  25.189   3.973  23.376 -0.1891 -0.1160  0.0158
14792W        W57730  27.394   1.333  22.841 -0.0372 -0.1191 -0.0969
14793W        W57731  27.288   2.441  22.418  0.0489 -0.0687  0.3032
14794W        W57732  25.515   4.273  19.063  0.0075  0.2868 -0.0952
14795W        W57733  26.109   2.726  21.545 -0.3470 -0.0168 -0.1363
14796W        W57734  26.217   3.032  22.609 -0.0260 -0.0510 -0.1084
14797W        W57735  25.721   3.349  22.977  0.1458  0.1106  0.0044
14798W        W57736  29.322   1.890  24.056 -0.3503  0.2142 -0.2628
14799W        W57737  24.175   2.583  21.174 -0.0775 -0.0905 -0.2042
14800W        W57738  28.190   2.420  19.711 -0.2586  0.3574 -0.1581
14801W        W57739  26.221   1.181  22.206 -0.0268 -0.0813  0.3655
14802W        W57740  29.257   1.000  19.668  0.0871 -0.1978 -0.2193
14803W        W57741  26.078  34.491  22.632  0.0633 -0.1748 -0.0593
14804W        W57742  26.909   3.344  22.512  0.2129  0.1820  0.2709
14805W        W57743  24.994   0.445  22.101 -0.1719  0.0476  0.0839
14806W        W57744  28.650   2.901  22.616 -0.3988  0.0846 -0.1354
14807W        W57745  26.239   2.288  21.343 -0.1554  0.2579  0.3925
14808W        W57746  25.668   2.361  21.569  0.2450  0.0770  0.3665
14809W        W57747  26.118   3.311  23.683  0.0688 -0.0557 -0.3203
14810W        W57748  26.242   0.273  22.656 -0.0022 -0.1841 -0.1896
14811W        W57749  28.810   3.857  20.423  0.0363  0.4546  0.1242
14812W        W57750  29.104   3.635  21.855 -0.1493  0.5696 -0.0571
14813W        W57751  28.282   2.895  19.860  0.2190  0.3591  0.1329
14814W        W57752  26.793   3.388  20.427  0.1273 -0.0126 -0.0153
14815W        W57753  23.970   1.825  22.105 -0.2219  0.0875  0.1642
14816W        W57754  24.171   0.499  23.544  0.0640 -0.1762  0.1723
14817W        W57755  25.608  34.608  19.155  0.3477  0.1410 -0.0762
14818W        W57756  28.378   2.556  24.526 -0.3952 -0.0451 -0.1154
14819W        W57757  24.597   2.717  23.644 -0.0682  0.0955 -0.2457
14820W        W57758  27.899   1.609  21.446 -0.1529  0.2485  0.0519
14821W        W57759  25.902   2.524  21.979 -0.0322  0.1837  0.1311
14822W        W57760  26.525   2.891  21.358 -0.2074 -0.2634  0.0641
14823W        W57761  28.731   3.555  19.969 -0.0914  0.1329  0.0853
14824W        W57762  26.576  34.530  22.616 -0.0011 -0.0792 -0.1816
14825W        W57763  27.142   0.949  23.174 -0.3487  0.1490 -0.1829
14826W        W57764  26.319   1.058  17.939 -0.0059 -0.3090  0.3947
14827W        W57765  26.797   3.411  21.402  0.1123 -0.1423  0.1575
14828W        W57766  28.217   4.951  22.811 -0.0234 -0.1075 -0.1022
14829W        W57767  28.229   1.290  21.133  0.0158  0.2178  0.1356
14830W        W57768  24.692   4.333  22.855 -0.2337  0.0946 -0.0337
14831W        W57769  26.396  34.668  23.082 -0.1108  0.0715 -0.1531
14832W        W57770  27.183   1.759  23.630 -0.0754 -0.0938  0.0780
14833W        W57771  27.076   4.214  19.625 -0.1469  0.2904 -0.1260
14834W        W57772  25.987   1.454  22.832 -0.0638  0.2450  0.0868
14835W        W57773  25.917   3.011  21.160  0.1479  0.1443 -0.1504
14836W        W57774  23.979  34.296  22.750 -0.0626 -0.0759  0.1746
14837W        W57775  27.761   2.656  21.123 -0.2648  0.1405  0.0237
14838W        W57776  27.589   1.419  20.611 -0.1707 -0.2614 -0.0576
14839W        W57777  25.227   0.273  22.804  0.1241 -0.1946  0.0593
14840W        W57778  28.922   1.009  22.461  0.1553 -0.0090  0.1384
14841W        W57779  26.283   0.681  22.327 -0.3110 -0.0256  0.2749
14842W        W57780  27.690   4.644  21.524 -0.2336  0.0059 -0.1602
14843W        W57781  28.447   1.193  20.174 -0.0228  0.1705  0.0992
14844W        W57782  29.498   4.118  19.730  0.0658 -0.2181 -0.1049
14845W        W57783  25.945   1.608  22.335 -0.0126 -0.2784  0.1126
14846W        W57784  26.179   2.262  20.705  0.4947 -0.1063  0.1738
14847W        W57785  25.633   0.689  24.054  0.1313  0.0096  0.0187
14848W        W57786  25.421   0.487  21.733 -0.4073  0.0947  0.2681
14849W        W57787  28.572   2.735  23.408  0.1836  0.4530 -0.1530
14850W        W57788  25.340  34.157  19.080 -0.0241 -0.0313 -0.0817
14851W        W57789  28.027   1.216  20.591  0.1913 -0.3357  0.2622
14852W        W57790  26.420   1.768  20.669 -0.0200  0.0047 -0.0998
14853W        W57791  25.474   2.778  21.341 -0.3193  0.1083 -0.1933
14854W        W57792  28.690   0.803  23.410 -0.1243 -0.1051 -0.0034
14855W        W57793  27.982   3.952  20.717  0.0714  0.2952 -0.0026
14856W        W57794  27.844   3.893  23.997  0.2473 -0.0549 -0.3482
14857W        W57795  29.023   4.086  21.591  0.3824 -0.0495  0.0766
14858W        W57796  26.172   1.127  23.219  0.1595 -0.0671  0.2142
14859W        W57797  25.341   1.141  21.015 -0.2709 -0.2818  0.0651
14860W        W57798  24.611   2.769  21.467 -0.4021  0.4270  0.0712
14861W        W57799  26.158   2.518  23.328  0.0688 -0.3590  0.1623
14862W        W57800  26.827   1.649  19.770  0.0201  0.0253 -0.2077
14863W        W57801  28.007   3.595  21.149 -0.2258 -0.0195 -0.0174
14864W        W57802  28.472   3.743  20.845  0.3809  0.1346 -0.0179
14865W        W57803  25.305   2.088  21.754 -0.0059  0.3837 -0.2019
14866W        W57804  27.926   0.916  22.104 -0.1492  0.2119  0.0266
14867W        W57805  28.693   1.919  23.578 -0.1868 -0.2483  0.0117
14868W        W57806  27.033   1.842  22.070 -0.0581 -0.1226  0.2410
14869W        W57807  26.898   0.299  18.891  0.0226 -0.1534  0.1445
14870W        W57808  27.051   5.424  21.364 -0.3461  0.1576  0.1076
14871W        W57809  25.428   4.317  21.399  0.0025 -0.3130 -0.3617
14872W        W57810  25.572   1.589  21.934 -0.2795  0.1364 -0.0674
14873W        W57811  27.956   4.280  20.389 -0.1292 -0.0123  0.0825
14874W        W57812  27.213   0.849  21.595  0.2637 -0.2633  0.0166
14875W        W57813  25.373   1.846  24.450  0.5954  0.0671 -0.4067
14876W        W57814  27.190   0.145  23.710  0.2272  0.1135  0.0432
14877W        W57815  25.809   2.452  20.266 -0.1057  0.1777  0.0681
14878W        W57816  24.813   3.652  23.190  0.0770 -0.1469 -0.3077
14879W        W57817  26.636   0.748  21.514  0.0197  0.0776  0.2702
14880W        W57818  29.186   0.656  20.054 -0.0328  0.2220 -0.1945
14881W        W57819  26.315   2.809  24.424 -0.1842  0.2159 -0.0653
14882W        W57820  28.499   4.214  20.574  0.1425 -0.1665 -0.3128
14883W        W57821  27.987   3.247  19.101  0.0726 -0.3865  0.1554
14884W        W57822  26.616  34.521  21.208  0.1301 -0.0179 -0.3019
14885W        W57823  25.348   2.872  23.317  0.2263 -0.0118  0.1131
14886W        W57824  26.839   3.844  22.427 -0.1113  0.4228 -0.0388
14887W        W57825  27.084   2.755  22.802 -0.2246  0.1420  0.4739
14888W        W57826  27.179   2.720  20.536 -0.1567  0.1910 -0.1567
14889W        W57827  29.491   3.206  21.534 -0.0728  0.0345  0.0504
14890W        W57828  25.305   1.995  22.916  0.0346  0.0556 -0.1059
14891W        W57829  27.703   1.999  24.971 -0.0081 -0.3222 -0.0575
14892W        W57830  28.563   3.045  20.810 -0.1557  0.0339  0.2507
14893W        W57831  25.829   0.744  23.431 -0.0717 -0.1968  0.3215
14894W        W57832  26.941   0.777  19.764 -0.0315 -0.1109  0.0040
14895W        W57833  26.895   0.191  22.835 -0.1783  0.0004  0.0749
14896W        W57834  23.832   2.695  19.868  0.0776 -0.1748 -0.0633
14897W        W57835  27.041   1.688  22.747 -0.0531  0.0604 -0.0422
14898W        W57836  25.948   0.138  23.132 -0.3213 -0.3700 -0.1979
14899W        W57837  27.396   0.030  24.485  0.4494 -0.1903 -0.0946
14900W        W57838  27.976   3.016  23.100 -0.1795  0.0348  0.2016
14901W        W57839  26.083   3.205  20.326  0.2882  0.1833  0.0354
14902W        W57840  26.763   2.410  21.340 -0.1656 -0.0412 -0.1243
14903W        W57841  25.447   4.223  19.986  0.2052 -0.1133 -0.1417
14904W        W57842  27.727   0.048  23.689 -0.0839 -0.2241 -0.0786
14905W        W57843  25.142   0.461  23.652 -0.2119 -0.0998  0.0361
14906W        W57844  24.698   3.056  21.979  0.0945 -0.0734 -0.0746
14907W        W57845  27.554   3.028  23.430  0.1508 -0.2180  0.2934
14908W        W57846  28.373   1.854  19.690 -0.0882 -0.2332 -0.0257
14909W        W57847  27.097   0.713  22.726 -0.0047 -0.1930 -0.2970
14910W        W57848  25.753   0.973  22.938 -0.2459  0.1810 -0.2701
14911W        W57849  26.770   4.671  19.639 -0.0226  0.1974  0.1946
14912W        W57850  25.913   3.686  20.454  0.0208  0.1177  0.0963
14913W        W57851  26.409  33.512  21.153  0.1716  0.2723 -0.1013
14914W        W57852  27.685   3.692  22.362  0.2380 -0.1849 -0.0254
14915W        W57853  26.186   2.797  20.100 -0.0118  0.0800  0.3450
14916W        W57854  27.841   1.958  22.321  0.0761  0.2456  0.1087
14917W        W57855  24.638   2.795  20.261 -0.0960 -0.1468  0.0168
14918W        W57856  26.903   0.464  21.901  0.1212 -0.1406  0.1479
14919W        W57857  26.595   2.633  21.763  0.0042  0.1188 -0.1499
14920W        W57858  27.200   0.570  20.714  0.1307  0.5195  0.3857
14921W        W57859  25.849   2.432  21.105  0.3022 -0.2259  0.0801
14922W        W57860  28.350   0.450  20.836 -0.0365  0.0890 -0.1837
14923W        W57861  27.280   1.124  21.047 -0.0267 -0.1224 -0.0366
14924W        W57862  25.882   0.617  21.995  0.1409 -0.1868  0.1333
14925W        W57863  25.686   0.039  22.714 -0.0990 -0.0092 -0.0838
14926W        W57864  26.374   3.941  22.626 -0.2671  0.1587 -0.0832
14927W        W57865  26.733   2.212  22.132  0.0821  0.0180 -0.1049
14928W        W57866  27.392   1.385  21.517 -0.3001  0.2347  0.1202
14929W        W57867  25.825   2.866  23.052  0.1382 -0.1410  0.1284
14930W        W57868  25.279   1.496  23.413  0.0117  0.1760  0.1575
14931W        W57869  26.335   1.598  20.220  0.1062  0.0769  0.2189
14932W        W57870  29.019   2.108  22.728  0.1580 -0.1935  0.1121
14933W        W57871  25.410   0.716  22.158 -0.1605  0.0038 -0.2728
14934W        W57872  25.769   3.173  22.285  0.1602 -0.0588  0.2060
14935W        W57873  28.275   2.163  22.237 -0.0117 -0.0298 -0.1994
14936W        W57874  26.884   2.959  21.021 -0.4042 -0.2106 -0.1485
14937W        W57875  26.296   2.425  22.267  0.2589  0.0436 -0.0066
14938W        W57876  25.991   1.714  23.623  0.1856 -0.0990 -0.0390
14939W        W57877  27.395   2.887  21.937 -0.2840  0.1721 -0.2522
14940W        W57878  26.439   1.456  21.147  0.0532 -0.3517 -0.3637
14941W        W57879  25.888   0.228  22.311  0.5344 -0.0062 -0.0189
14942W        W57880  27.439   0.738  23.599  0.1698  0.0636  0.0335
14943W        W57881  26.559   2.002  21.101 -0.1966 -0.0460  0.0223
14944W        W57882  25.290   1.047  23.110  0.0661 -0.1225 -0.0375
14945W        W57883  27.103   3.402  24.007  0.0936  0.3031  0.2680
14946W        W57884  26.947  33.667  21.089  0.0369  0.1021 -0.0918
14947W        W57885  29.769   3.819  20.722  0.2556 -0.2740 -0.1367
14948W        W57886  27.898   1.403  22.342  0.0016  0.2119 -0.1716
14949W        W57887  25.575   4.724  20.368  0.1471 -0.1905 -0.2100
14950W        W57888  26.918   2.206  23.496  0.1004 -0.2771  0.2743
14951W        W57889  25.407   3.117  20.924  0.2326  0.2699 -0.2098
14952W        W57890  26.262   1.807  21.518  0.1820  0.0667 -0.0674
14953W        W57891  26.976   2.429  23.920 -0.2030  0.4720 -0.1035
14954W        W57892  25.363   1.641  21.117 -0.1212  0.2822 -0.0312
14955W        W57893  26.833   3.566  21.921  0.2161  0.0754  0.0050
14956W        W57894  28.086   0.663  20.459 -0.0651  0.1432 -0.4081
14957W        W57895  26.513   2.427  20.396 -0.3569  0.4297  0.0306
14958W        W57896  26.831   2.073  20.554 -0.3005  0.2346  0.2886
14959W        W57897  27.758   1.019  23.259  0.2425  0.3026  0.2628
14960W        W57898  28.293   2.151  20.132 -0.2295 -0.4380 -0.2420
14961W        W57899  27.283  34.154  23.205 -0.0625 -0.4332 -0.0335
14962W        W57900  26.344   0.384  24.829  0.1811  0.1895 -0.0238
14963W        W57901  29.358   3.065  20.550  0.2007  0.0507 -0.0454
14964W        W57902  24.959   0.160  23.279  0.1627 -0.0764 -0.0059
14965W        W57903  27.895   3.335  24.957  0.2079 -0.0446 -0.2331
14966W        W57904  26.039   1.773  24.590  0.2366  0.1880 -0.4658
14967W        W57905  26.520   1.344  21.633  0.5559  0.1150  0.3292
14968W        W57906  26.902   0.742  20.280  0.3742 -0.1496  0.1601
14969W        W57907  26.304   2.043  22.939  0.0763 -0.2227 -0.1163
14970W        W57908  26.722   1.812  21.686  0.0001 -0.1749 -0.1528
14971W        W57909  26.515   4.036  21.636  0.1127 -0.0366  0.0462
14972W        W57910  27.451   2.153  22.057  0.2908 -0.1811 -0.0532
14973W        W57911  26.039   2.080  22.482  0.1015  0.0763  0.0494
14974W        W57912  28.954   1.190  20.698  0.0369 -0.1783 -0.2197
14975W        W57913  27.420   1.635  21.072 -0.2837  0.4307  0.0681
14976W        W57914  26.039   2.724  20.603 -0.0171 -0.2833 -0.2963
14977W        W57915  26.538   0.375  23.938 -0.0108 -0.2309  0.0983
14978W        W57916  27.631   3.539  21.529 -0.4611  0.2372 -0.0842
14979W        W57917  28.435   1.502  20.669  0.0728  0.1031  0.1242
14980W        W57918  27.234   0.379  23.159  0.1144 -0.2844 -0.0261
14981W        W57919  26.893   1.173  23.543 -0.0183 -0.0864 -0.0596
14982W        W57920  26.094   1.111  23.686  0.0434 -0.0134 -0.0794
14983W        W57921  26.498  34.198  23.767 -0.2262  0.0832 -0.0250
14984W        W57922  29.178   2.902  22.548 -0.1263 -0.0389  0.0237
14985W        W57923  27.688   2.434  19.874  0.0894  0.0216  0.1881
14986W        W57924  27.933   0.917  22.661 -0.1888 -0.2671 -0.5904
14987W        W57925  28.489   2.559  20.661  0.1499 -0.2006 -0.0597
14988W        W57926  27.186   1.044  20.523  0.2435  0.2260 -0.1082
14989W        W57927  26.140   1.369  19.810 -0.4152 -0.2045 -0.2366
14990W        W57928  26.460   2.473  24.827 -0.2892 -0.0283  0.0249
14991W        W57929  26.772   0.794  20.789  0.1425 -0.1835  0.0549
14992W        W57930  27.412   1.318  23.517  0.1878 -0.0753 -0.0909
14993W        W57931  25.502   3.286  18.386 -0.0011 -0.0185 -0.0068
14994W        W57932  26.849   3.501  20.887  0.1696  0.1535  0.1379
14995W        W57933  26.758   1.124  22.588 -0.4298  0.1401  0.1189
14996W        W57934  26.533   0.442  21.025 -0.0028 -0.1323 -0.0432
14997W        W57935  26.508   3.202  24.265 -0.0731 -0.3437  0.2415
14998W        W57936  26.794   2.138  20.017  0.0474 -0.2016  0.0893
14999W        W57937  27.299   3.385  21.186  0.0456 -0.0082  0.0308
15000W        W57938  27.788   2.039  23.164  0.3347  0.2690 -0.0395
15001W        W57939  28.472   3.124  23.056  0.2710 -0.1031 -0.3709
15002W        W57940  26.920   0.639  23.650 -0.0199  0.0040  0.1702
15003W        W57941  28.665   2.158  23.102 -0.2499  0.3377  0.0117
15004W        W57942  25.183   2.994  20.192  0.1166 -0.0286  0.1628
15005W        W57943  26.360  34.099  22.723  0.1722 -0.1357  0.1938
15006W        W57944  26.980   4.063  21.987  0.1686 -0.3025  0.1989
15007W        W57945  24.063   1.442  22.464 -0.3863  0.2132  0.2292
15008W        W57946  27.018   2.899  22.343 -0.3994 -0.2729 -0.0147
15009W        W57947  27.750  34.104  23.352  0.1690  0.0388 -0.0526
15010W        W57948  26.921   1.594  21.304 -0.2694 -0.0331  0.0447
15011W        W57949  26.687   1.462  22.168 -0.1523 -0.0511  0.0714
15012W        W57950  27.077   2.056  21.019 -0.1528 -0.2499 -0.3053
15013W        W57951  27.410   2.198  23.449  0.0261 -0.1772  0.1610
15014W        W57952  26.765   2.431  20.860  0.0527  0.3224  0.0467
15015W        W57953  28.290   3.339  22.142  0.0199  0.0331  0.0529
15016W        W57954  27.625   3.026  22.368 -0.0433  0.0161 -0.0476
15017W        W57955  26.375   2.212  21.808  0.1589  0.0760 -0.3344
15018W        W57956  25.462   0.392  23.296 -0.0090  0.1871 -0.0231
15019W        W57957  26.569   2.543  23.090 -0.1677 -0.0613  0.2309
15020W        W57958  27.204   1.671  20.204 -0.2808  0.1715 -0.0330
15021W        W57959  25.728   0.086  21.882 -0.0913  0.0028 -0.3098
15022W        W57960  27.843   3.145  21.220  0.0530 -0.3577  0.1595
15023W        W57961  24.274   2.340  23.998  0.2941 -0.1003 -0.2268
15024W        W57962  24.299   1.509  24.475  0.1566 -0.3279 -0.2304
15025W        W57963  25.031   3.379  20.621 -0.1479  0.0429 -0.0505
15026W        W57964  28.821   4.021  20.994 -0.1923 -0.0526  0.0169
15027W        W57965  27.332   1.108  20.050  0.2115  0.0282 -0.1027
15028W        W57966  27.447   2.418  21.441  0.0228 -0.3441  0.2318
15029W        W57967  25.324  34.073  20.688  0.1604  0.2176  0.1115
15030W        W57968  25.467   2.981  22.694 -0.3506 -0.0219 -0.2110
15031W        W57969  24.329   3.184  20.234 -0.2088  0.0817 -0.1616
15032W        W57970  28.561   3.924  21.429  0.0951  0.1833  0.1218
15033W        W57971  26.410   3.778  22.116 -0.0175  0.1242 -0.2039
15034W        W57972  28.022   2.872  24.740 -0.1123 -0.0493 -0.1684
15035W        W57973  28.371   0.683  20.099 -0.2793  0.0911  0.0557
15036W        W57974  28.380   2.948  20.345  0.1229  0.0582  0.0349
15037W        W57975  27.310   1.923  21.527 -0.1857  0.0015 -0.0238
15038W        W57976  27.307   2.067  23.998 -0.1260 -0.0541 -0.2431
15039W        W57977  26.269   1.629  23.273 -0.0272 -0.1170  0.5710
15040W        W57978  26.585   1.247  20.686  0.4194 -0.0782  0.0385
15041W        W57979  25.734   1.246  23.420  0.1037  0.1150 -0.1022
15042W        W57980  29.467  34.298  23.808 -0.1881 -0.0731 -0.1520
15043W        W57981  23.529   2.997  24.203  0.0052 -0.0454  0.3434
15044W        W57982  27.778   3.361  21.965 -0.0564 -0.1720  0.0520
15045W        W57983  25.242   1.249  22.294 -0.1694  0.0485 -0.2613
15046W        W57984  26.435   2.059  23.521  0.2203  0.2159 -0.2107
15047W        W57985  28.133  34.289  22.098 -0.1526 -0.0143 -0.1061
15048W        W57986  27.179   2.176  19.082  0.1627  0.2705  0.1557
15049W        W57987  26.750   1.882  23.902  0.0621  0.0547 -0.1298
15050W        W57988  25.788   3.100  21.710  0.0325 -0.0452  0.2017
15051W        W57989  27.414   1.906  20.628 -0.3858  0.1287  0.2155
15052W        W57990  27.353   3.837  23.178 -0.1974 -0.0036 -0.1818
15053W        W57991  25.544  34.366  17.667  0.0034 -0.0037 -0.1108
15054W        W57992  28.328   1.804  21.133  0.2400 -0.2530 -0.2409
15055W        W57993  25.988   2.071  23.302  0.2596  0.0273  0.3609
15056W        W57994  27.603  34.599  22.393  0.2617 -0.1354 -0.0542
15057W        W57995  26.580   0.697  22.737  0.2477 -0.2506  0.0057
15058W        W57996  27.899   1.937  19.758 -0.2659 -0.1117 -0.0170
15059W        W57997  26.691   2.194  24.434 -0.5868  0.1875 -0.1813
15060W        W57998  24.042   1.364  23.783 -0.1027  0.1057  0.0002
15061W        W57999  26.850   2.677  20.115  0.1245 -0.0017  0.1337
15062W        W58000  27.680   3.493  22.874 -0.0141 -0.0373  0.0555
15063W        W58001  27.229   1.721  18.891  0.2527  0.0446  0.1793
15064W        W58002  27.374   3.870  23.672  0.1018  0.3375 -0.3409
15065W        W58003  25.421   0.689  20.987  0.0400  0.2759  0.3121
15066W        W58004  27.089   1.507  20.721 -0.1112  0.0191  0.2192
15067W        W58005  26.179   1.113  20.390 -0.1745  0.1199  0.0725
15068W        W58006  27.009   0.758  22.252 -0.0056 -0.1320 -0.1474
15069W        W58007  27.611   2.618  23.846 -0.3170  0.1533 -0.1457
15070W        W58008  26.067   0.872  19.926  0.1266  0.1303 -0.1294
15071W        W58009  30.030   2.924  20.804  0.3259  0.1202  0.1402
15072W        W58010  28.411   0.040  21.747 -0.0638 -0.2661 -0.4712
15073W        W58011  26.660   4.172  19.893  0.0730  0.2829 -0.1556
15074W        W58012  28.690   2.240  21.966  0.0617  0.1864 -0.3765
15075W        W58013  27.394   2.215  22.859  0.1538  0.3116  0.3236
15076W        W58014  25.193   0.771  24.400 -0.0677 -0.0223  0.1306
15077W        W58015  29.253   4.261  22.580  0.0071  0.3577  0.5853
15078W        W58016  27.849   1.925  21.837  0.2598  0.1691 -0.1793
15079W        W58017  27.564  33.502  20.797 -0.2106  0.2559 -0.0978
15080W        W58018  25.134  34.498  22.951  0.1972 -0.2446  0.3043
15081W        W58019  26.321   3.227  21.612  0.2900  0.2146 -0.0382
15082W        W58020  27.424   1.067  21.991 -0.0536  0.2380 -0.0472
15083W        W58021  27.696   0.208  21.384 -0.2420 -0.4135 -0.1564
15084W        W58022  25.918   3.834  19.257 -0.1241 -0.0348 -0.0947
15085W        W58023  27.794  34.666  24.175 -0.3914 -0.2541  0.2484
15086W        W58024  26.655   2.979  22.777 -0.1569  0.2754 -0.2144
15087W        W58025  26.750   2.927  23.954 -0.1962  0.3474 -0.1889
15088W        W58026  26.194   2.102  20.152  0.1138 -0.0578 -0.0527
15089W        W58027  26.224   1.052  22.687  0.1499 -0.1988 -0.0703
15090W        W58028  25.737   2.301  22.930 -0.1168 -0.3278  0.2160
15091W        W58029  27.543   4.160  21.581 -0.0829 -0.0566  0.2403
15092W        W58030  26.887   3.055  21.864  0.1910  0.1313 -0.2466
15093W        W58031  27.040   0.628  21.186  0.0325 -0.1636  0.2844
15094W        W58032  28.306   1.990  21.726 -0.0221 -0.0647  0.0042
15095W        W58033  26.757   0.512  23.203 -0.3329  0.1287 -0.3114
15096W        W58034  29.113   1.274  22.937 -0.0720  0.0191 -0.2518
15097W        W58035  27.375  34.034  21.660 -0.0264 -0.2446 -0.0918
15098W        W58036  26.711   3.401  23.702  0.3519  0.0907  0.1574
15099W        W58037  25.355   1.324  21.567 -0.1314  0.4161 -0.0239
15100W        W58038  24.797   3.070  21.024  0.0610  0.1575 -0.1484
15101W        W58039  25.389   0.015  23.752  0.0425 -0.2740 -0.1738
15102W        W58040  26.000  34.410  24.323  0.0100 -0.0058 -0.2027
15103W        W58041  24.950  34.383  23.708 -0.1965  0.2360 -0.1063
15104W        W58042  24.636   2.364  21.017  0.0558 -0.3033 -0.1154
15105W        W58043  27.194   0.016  20.507  0.3178 -0.1656 -0.0825
15106W        W58044  28.878   2.846  20.405 -0.2432 -0.2236 -0.0143
15107W        W58045  25.703  34.445  22.274 -0.0344 -0.1396  0.0987
15108W        W58046  25.641   0.154  20.896 -0.0087  0.1826 -0.3460
15109W        W58047  27.547   4.007  19.568 -0.0492 -0.2061  0.1591
15110W        W58048  28.489   3.023  21.699  0.0800 -0.1345 -0.0515
15111W        W58049  26.625   0.933  21.963 -0.0079 -0.1390 -0.2264
15112W        W58050  28.442   3.155  25.424 -0.1970 -0.0695  0.0044
15113W        W58051  25.511   2.626  20.829  0.2879  0.1481  0.0204
15114W        W58052  26.720   0.898  24.024  0.2419  0.0423  0.0873
15115W        W58053  28.458   1.694  23.201  0.0333 -0.2978 -0.0247
15116W        W58054  25.593   1.406  20.614  0.0225 -0.0433  0.1460
15117W        W58055  26.137   0.629  23.054  0.1749  0.0714 -0.1295
15118W        W58056  26.423   3.614  20.180  0.0570  0.1634  0.0742
15119W        W58057  29.535   3.793  21.625  0.1111  0.0295  0.4833
15120W        W58058  26.700   2.355  22.593 -0.1102  0.0657  0.3359
15121W        W58059  25.831   2.706  22.438 -0.0922  0.3145  0.2914
15122W        W58060  26.331  33.327  22.155  0.0004 -0.1456 -0.3009
15123W        W58061  28.189   3.381  20.666 -0.1115 -0.0314 -0.1750
15124W        W58062  26.554   2.971  24.886  0.3528 -0.2168  0.0835
15125W        W58063  28.992   4.668  21.812  0.0904 -0.1674 -0.0170
15126W        W58064  27.468   0.974  22.458 -0.0549 -0.1332 -0.3127
15127W        W58065  27.464   2.967  20.912  0.0117  0.0548  0.0121
15128W        W58066  26.309  32.937  22.883 -0.3104 -0.1196 -0.0605
15129W        W58067  24.984   3.423  22.668 -0.0258 -0.1177 -0.2888
15130W        W58068  28.496   1.746  22.334  0.2541 -0.5265  0.1065
15131W        W58069  26.619  34.203  22.188 -0.0129  0.1618  0.1371
15132W        W58070  29.061  34.115  21.737 -0.1514  0.2937  0.1354
15133W        W58071  25.950   3.373  20.811  0.0847 -0.2213 -0.1120
15134W        W58072  24.852   1.159  23.855  0.3178 -0.0335 -0.0028
15135W        W58073  28.338   0.076  21.250  0.2623 -0.1152 -0.1771
15136W        W58074  26.530   2.654  23.594  0.1751  0.0334 -0.1488
15137W        W58075  27.095   2.334  21.789 -0.1880  0.0399  0.1468
15138W        W58076  27.656   2.604  23.164 -0.3491 -0.0522 -0.2410
15139W        W58077  26.809   1.112  21.210 -0.0150  0.2846 -0.2618
15140W        W58078  29.262   2.402  21.202 -0.0008 -0.0749 -0.0453
15141W        W58079  28.158   4.476  22.765 -0.0013 -0.0348 -0.0425
15142W        W58080  29.429   4.533  25.753 -0.4328 -0.1052 -0.1047
15143W        W58081  26.878   4.591  23.211  0.1822  0.0192  0.3245
15144W        W58082  28.964   2.535  22.975 -0.3661 -0.0672 -0.2621
15145W        W58083  25.507  33.556  20.517  0.0598 -0.0288  0.1304
15146W        W58084  26.202   0.501  21.405 -0.1431 -0.2342  0.1021
15147W        W58085  28.855   2.306  20.403 -0.3390 -0.0944  0.1495
15148W        W58086  27.208   0.374  22.414  0.1492 -0.2739 -0.2082
15149W        W58087  26.414   0.421  21.939  0.1440 -0.1623 -0.2185
15150W        W58088  26.675   0.346  22.362 -0.1317 -0.0396  0.0232
15151W        W58089  25.567   3.859  23.112  0.0608 -0.0672 -0.1411
15152W        W58090  27.226   2.901  21.457 -0.0118  0.0056 -0.0852
15153W        W58091  25.345   2.072  26.919  0.2906 -0.0418  0.1934
15154W        W58092  25.870   0.045  27.045 -0.2072 -0.0731  0.2314
15155W        W58093  28.675   0.262  23.595  0.2540  0.0624  0.0058
15156W        W58094  28.560   2.575  25.150  0.0010  0.0527  0.1423
15157W        W58095  26.831   0.613  25.098 -0.2708  0.0492 -0.1218
15158W        W58096  27.132   2.528  25.773 -0.1104 -0.2070 -0.0857
15159W        W58097  27.250  32.887  26.447  0.1199  0.1155 -0.1197
15160W        W58098  27.479   1.668  25.259 -0.1177 -0.2040  0.0232
15161W        W58099  28.830   3.916  27.082 -0.0555 -0.1433  0.0159
15162W        W58100  28.108   2.775  22.689  0.0773  0.0328 -0.3165
15163W        W58101  27.297   2.188  25.380  0.1624 -0.0459  0.1114
15164W        W58102  26.026   2.911  26.630 -0.1759  0.1682 -0.0080
15165W        W58103  26.595  34.297  24.903  0.1508  0.0456  0.3739
15166W        W58104  24.941   1.623  26.160  0.1591  0.1378  0.2910
15167W        W58105  28.862   1.465  27.342 -0.0715 -0.1283  0.3655
15168W        W58106  25.811   3.050  24.248 -0.1788  0.0875 -0.1304
15169W        W58107  24.951   0.484  26.094 -0.1195 -0.2184 -0.1607
15170W        W58108  24.746   0.657  24.187 -0.0951  0.1101  0.1374
15171W        W58109  27.819   3.257  26.690 -0.1687  0.0571  0.3709
15172W        W58110  25.014   1.072  26.037  0.3188  0.1484  0.2592
15173W        W58111  28.744   0.774  27.455  0.1801  0.2540 -0.1093
15174W        W58112  27.789   3.654  26.042 -0.1822 -0.2817 -0.3610
15175W        W58113  25.814   0.450  24.512  0.4240 -0.0014  0.1078
15176W        W58114  27.097   1.696  27.375 -0.1084  0.0484 -0.0072
15177W        W58115  25.067   3.038  27.013 -0.2061 -0.0655  0.0069
15178W        W58116  28.017   1.947  26.230 -0.1087  0.1025 -0.2657
15179W        W58117  26.530   0.878  24.823  0.3469  0.0005 -0.2506
15180W        W58118  26.830   3.108  27.169 -0.2916 -0.1743 -0.1706
15181W        W58119  29.066   3.563  26.802 -0.1515 -0.0689  0.0272
15182W        W58120  29.585   2.063  27.006 -0.2860 -0.0639 -0.1857
15183W        W58121  24.765   2.569  25.728  0.0579  0.0105  0.1057
15184W        W58122  25.466   4.315  26.161  0.2544  0.0655  0.1840
15185W        W58123  26.188   3.271  26.255 -0.2706 -0.0273 -0.3728
15186W        W58124  28.349   4.009  24.031 -0.1440 -0.0135 -0.1417
15187W        W58125  29.639   3.538  26.204 -0.0733 -0.2449 -0.4179
15188W        W58126  26.526   2.637  28.172  0.0090  0.1190 -0.1446
15189W        W58127  25.778   2.532  24.221 -0.1035  0.2280 -0.1543
15190W        W58128  27.114   2.834  28.170 -0.0928  0.1702 -0.0939
15191W        W58129  26.477   3.570  27.833 -0.1060  0.0118  0.2590
15192W        W58130  27.445   3.458  26.340  0.0543 -0.0140  0.4363
15193W        W58131  28.261   1.855  23.799 -0.1427 -0.0390  0.1088
15194W        W58132  26.835   4.597  24.500 -0.0885  0.3653  0.0197
15195W        W58133  27.243   2.815  24.216  0.3583  0.3888 -0.1462
15196W        W58134  28.406   2.488  26.896 -0.2183 -0.1749  0.2666
15197W        W58135  26.195   3.291  25.112  0.1446  0.3083  0.0953
15198W        W58136  28.597   0.297  28.589  0.3148  0.0888 -0.0744
15199W        W58137  25.439   2.322  23.857 -0.1025  0.2581  0.0185
15200W        W58138  28.406   2.865  23.901 -0.1837 -0.1119 -0.0028
15201W        W58139  26.514   1.461  25.180  0.1477 -0.5276  0.1399
15202W        W58140  29.209   1.539  25.286 -0.1594  0.2122  0.1406
15203W        W58141  26.050  33.829  25.971  0.1694 -0.1501 -0.1638
15204W        W58142  27.212   4.088  27.478 -0.2242  0.0683 -0.1034
15205W        W58143  26.654   1.568  25.752  0.1309  0.1661 -0.0320
15206W        W58144  28.754   2.721  25.572 -0.0273  0.0699  0.0110
15207W        W58145  26.090   1.518  24.035 -0.0829 -0.2202  0.0730
15208W        W58146  27.298   2.351  24.869  0.1927 -0.0379 -0.0026
15209W        W58147  25.789   4.174  27.241 -0.0760  0.1679 -0.1476
15210W        W58148  25.366   2.606  26.600 -0.1723  0.0772 -0.1791
15211W        W58149  27.599   3.443  23.861  0.1261 -0.0172  0.1086
15212W        W58150  28.378   3.746  27.255  0.0668 -0.0071 -0.0996
15213W        W58151  27.436   2.928  24.708  0.1775  0.2368  0.3085
15214W        W58152  26.019   3.281  25.555 -0.2834  0.2438 -0.0183
15215W        W58153  25.458   2.517  27.140 -0.2104  0.0830  0.2253
15216W        W58154  26.350   2.017  25.888 -0.2197 -0.0729  0.2046
15217W        W58155  25.481  34.157  23.630  0.0635 -0.3264 -0.0985
15218W        W58156  29.944   2.047  26.574 -0.0782 -0.2120 -0.0231
15219W        W58157  25.517   4.820  26.481  0.1166 -0.0364  0.1022
15220W        W58158  28.371   1.197  26.218  0.1048 -0.0673 -0.0755
15221W        W58159  26.870   2.116  25.665  0.0270 -0.2033 -0.1350
15222W        W58160  29.006   2.507  25.996  0.0621  0.0127 -0.0831
15223W        W58161  28.608   2.377  22.591 -0.3473  0.0656 -0.2899
15224W        W58162  27.647   0.671  26.309 -0.0870  0.0834 -0.0469
15225W        W58163  27.910   2.293  26.910  0.1421 -0.0160 -0.1670
15226W        W58164  24.189   2.531  22.327  0.0624 -0.0637 -0.1272
15227W        W58165  27.668   1.784  23.715 -0.2392 -0.4527  0.1454
15228W        W58166  29.274   2.888  25.657 -0.1103  0.0373 -0.0419
15229W        W58167  28.151   1.810  24.954  0.1426  0.1907  0.0819
15230W        W58168  25.716   4.412  26.772  0.1862 -0.1834 -0.2184
15231W        W58169  26.416   1.132  25.898 -0.5358 -0.0049  0.1859
15232W        W58170  26.983   3.570  27.837  0.2149 -0.3417 -0.0968
15233W        W58171  24.684   3.888  22.620 -0.1833 -0.0263 -0.0945
15234W        W58172  25.395   3.924  25.452  0.0817 -0.0423  0.1128
15235W        W58173  25.164   2.911  25.991 -0.2620  0.2086  0.3515
15236W        W58174  26.515   0.353  27.067 -0.0249  0.1774  0.2187
15237W        W58175  26.480   2.441  25.482  0.1714  0.2148  0.0625
15238W        W58176  27.488   0.930  26.820  0.0721  0.1307  0.1738
15239W        W58177  24.957   0.001  27.426 -0.0676  0.0159 -0.0092
15240W        W58178  28.025   0.573  26.693 -0.2171 -0.0473  0.3620
15241W        W58179  27.756   2.482  25.325 -0.0590  0.0990  0.1173
15242W        W58180  28.555   3.522  26.750 -0.0635  0.3396  0.3940
15243W        W58181  28.129   2.121  24.557 -0.0319 -0.1835  0.0991
15244W        W58182  28.178   3.538  23.016  0.1464  0.1578 -0.2659
15245W        W58183  26.607   2.353  27.360 -0.0684  0.1312 -0.0479
15246W        W58184  24.781   3.111  25.308 -0.4999 -0.0640  0.0315
15247W        W58185  26.427   2.283  27.806 -0.2519 -0.0067  0.3030
15248W        W58186  24.331  33.695  26.839 -0.0867 -0.0106 -0.2152
15249W        W58187  29.096   2.641  26.479 -0.0767 -0.0011 -0.1814
15250W        W58188  25.527  34.527  24.226 -0.0388  0.2654  0.2254
15251W        W58189  27.684   1.232  24.377  0.0021 -0.0034 -0.2321
15252W        W58190  27.404   1.519  24.107  0.0281 -0.3673  0.2088
15253W        W58191  24.719   1.322  24.904  0.1363 -0.0256  0.0787
15254W        W58192  28.849   1.391  26.136 -0.1827 -0.0629  0.0935
15255W        W58193  27.718   2.405  24.589  0.1279  0.1148 -0.1611
15256W        W58194  29.311   3.502  27.290 -0.1715  0.2816 -0.2584
15257W        W58195  28.257   2.767  27.865 -0.0549  0.3118 -0.0733
15258W        W58196  25.853  34.639  27.579 -0.0422 -0.4016  0.0029
15259W        W58197  25.245   1.254  25.197  0.2455 -0.4144  0.1669
15260W        W58198  26.523   3.880  25.811 -0.0142  0.0430 -0.2337
15261W        W58199  28.538   4.308  26.314 -0.1632 -0.2517 -0.0149
15262W        W58200  24.998   1.703  25.235  0.3850  0.3340  0.0124
15263W        W58201  29.808   3.370  27.456 -0.0204  0.0491 -0.0054
15264W        W58202  25.463   2.116  23.366 -0.0354  0.4170 -0.2538
15265W        W58203  27.012   3.546  26.037 -0.2682  0.1502  0.3320
15266W        W58204  27.892  34.644  26.978 -0.1068 -0.1051 -0.0474
15267W        W58205  29.903   2.821  27.308 -0.0869  0.0005 -0.4365
15268W        W58206  28.133   1.401  25.417  0.1548 -0.2022 -0.1165
15269W        W58207  25.828   0.228  23.634  0.0140  0.1251 -0.2527
15270W        W58208  28.165   3.403  26.389  0.2660  0.0054  0.2618
15271W        W58209  25.722   4.607  24.177  0.3393  0.2882  0.0928
15272W        W58210  24.368   3.037  24.634 -0.0750 -0.2036  0.0573
15273W        W58211  27.487   3.186  27.108  0.0943  0.1367 -0.0355
15274W        W58212  28.670   1.054  27.025 -0.1377 -0.2352  0.2607
15275W        W58213  24.636   3.212  26.827  0.1685 -0.1706  0.3976
15276W        W58214  29.087   1.697  27.757 -0.0382  0.2892 -0.1825
15277W        W58215  26.196   2.878  23.915  0.2913  0.0636  0.0259
15278W        W58216  25.868   4.040  26.446 -0.2622 -0.0296 -0.0987
15279W        W58217  27.063  33.629  25.413 -0.5015  0.0580  0.0117
15280W        W58218  28.264   0.980  23.642  0.3714  0.4220 -0.4594
15281W        W58219  27.324   1.276  27.630  0.0172 -0.1062 -0.1206
15282W        W58220  27.962   3.091  23.914  0.1718  0.0694  0.3211
15283W        W58221  27.327   1.786  23.184  0.0618 -0.1659 -0.0425
15284W        W58222  27.038   0.516  24.128 -0.2043  0.1456 -0.0284
15285W        W58223  25.278   3.542  28.132  0.1635 -0.2343  0.1697
15286W        W58224  26.921   2.559  24.679  0.1192 -0.0619  0.0056
15287W        W58225  26.387   1.179  24.243  0.0474  0.2609  0.0287
15288W        W58226  27.991   1.575  24.113  0.0606 -0.1149  0.0779
15289W        W58227  27.767   2.769  24.289 -0.0389  0.1866  0.0352
15290W        W58228  25.393   2.425  25.786  0.0880  0.0150  0.3990
15291W        W58229  27.790   2.715  26.613 -0.0704  0.0112  0.1404
15292W        W58230  27.977   2.512  26.015  0.0160  0.0690  0.0605
15293W        W58231  27.055   0.964  25.794  0.2359 -0.2910  0.0143
15294W        W58232  26.488   1.488  23.677 -0.1840 -0.1326  0.0463
15295W        W58233  26.481   0.417  26.155  0.2281 -0.0738  0.3246
15296W        W58234  25.324   3.846  26.432  0.2900 -0.2782 -0.4257
15297W        W58235  27.339   0.750  27.574  0.2409 -0.0444  0.4552
15298W        W58236  26.090   0.719  26.047  0.0085  0.0208  0.1704
15299W        W58237  27.080  34.350  27.528 -0.0579  0.1724  0.0094
15300W        W58238  29.031   0.022  28.534  0.2447  0.0066  0.2054
15301W        W58239  29.468   2.166  24.479  0.1409 -0.0727  0.1963
15302W        W58240  27.392   1.231  26.007  0.3184  0.1788 -0.0133
15303W        W58241  25.660   1.201  23.948 -0.1228  0.1769 -0.0969
15304W        W58242  27.095   0.438  27.064  0.0016 -0.0819 -0.0246
15305W        W58243  26.878   2.094  27.000 -0.2298 -0.1120 -0.0223
15306W        W58244  26.642   4.289  29.034  0.0553  0.0255  0.1389
15307W        W58245  29.312   3.070  26.746 -0.0061 -0.0516  0.3748
15308W        W58246  28.995   2.857  23.959  0.1485 -0.0079  0.1161
15309W        W58247  28.295   1.914  26.723  0.0635  0.0661  0.0212
15310W        W58248  26.347   0.664  24.325 -0.0374 -0.1982 -0.0600
15311W        W58249  26.002   3.748  24.738 -0.1950  0.1977  0.0812
15312W        W58250  26.592   3.841  24.284  0.0860  0.0687  0.0395
15313W        W58251  25.275   1.169  26.969 -0.0263  0.0409 -0.0518
15314W        W58252  27.267   3.001  26.056  0.1079 -0.2613 -0.4593
15315W        W58253  25.603   2.848  23.798  0.0290  0.2663  0.2449
15316W        W58254  28.206   2.847  26.299  0.1319  0.0083  0.0304
15317W        W58255  26.945   3.178  24.565  0.0408  0.0487 -0.0092
15318W        W58256  28.302   0.691  26.190 -0.0371 -0.3546 -0.1911
15319W        W58257  25.327   4.409  25.037  0.1619  0.0041  0.2525
15320W        W58258  25.562   2.614  25.148  0.4007 -0.1267  0.1931
15321W        W58259  24.343   0.975  24.499  0.1872  0.1429  0.1374
15322W        W58260  27.547   0.309  25.611 -0.1293  0.0695 -0.2721
15323W        W58261  28.304   2.261  24.077 -0.0637  0.3143 -0.0097
15324W        W58262  26.310   0.095  27.408  0.2560  0.4393 -0.0854
15325W        W58263  26.287   1.273  26.773  0.0917 -0.3996 -0.2726
15326W        W58264  25.655   4.285  24.591 -0.1518  0.1558 -0.3772
15327W        W58265  27.496   2.581  26.133 -0.1826 -0.0006 -0.2811
15328W        W58266  28.295   2.481  23.011  0.0037  0.0084 -0.1000
15329W        W58267  28.499   2.546  26.036 -0.1326  0.4952 -0.3039
15330W        W58268  26.036   3.271  27.009  0.0305 -0.2119 -0.0257
15331W        W58269  24.998   0.643  23.115  0.0860  0.0984 -0.2023
15332W        W58270  29.371   2.071  26.173  0.1215 -0.1828  0.1754
15333W        W58271  26.489   1.685  24.413 -0.0773 -0.3945 -0.2592
15334W        W58272  24.588   2.499  24.406 -0.2303  0.3001 -0.4890
15335W        W58273  28.621   3.564  26.157 -0.1176  0.0848  0.0630
15336W        W58274  27.184   2.323  24.360 -0.2154  0.2537  0.0092
15337W        W58275  26.878   3.132  26.375 -0.1097  0.0069 -0.2807
15338W        W58276  26.222   2.910  28.571  0.0357  0.1739 -0.0244
15339W        W58277  28.172   2.374  26.479  0.0957  0.2359 -0.0205
15340W        W58278  27.174   1.248  27.151 -0.1129  0.2066  0.2260
15341W        W58279  26.218  34.667  26.156  0.1416 -0.1397  0.0020
15342W        W58280  27.297   1.454  24.683 -0.0064  0.0838 -0.0495
15343W        W58281  28.479   1.991  25.247 -0.1169  0.1967  0.2993
15344W        W58282  25.806   0.922  26.567  0.1457  0.0463  0.0748
15345W        W58283  25.893   2.652  27.248 -0.2353 -0.0043  0.0206
15346W        W58284  27.442   0.420  26.681 -0.1262 -0.2631  0.0327
15347W        W58285  28.099   4.441  24.773  0.0917 -0.0824  0.0613
15348W        W58286  28.863   3.157  26.634 -0.0245  0.3369  0.3366
15349W        W58287  25.628   3.254  23.494  0.0747 -0.0858  0.1191
15350W        W58288  25.539   3.347  25.600  0.1757 -0.1653 -0.2246
15351W        W58289  26.606   3.045  25.436 -0.1638  0.1453  0.0339
15352W        W58290  25.833   2.168  25.998  0.0319 -0.2400 -0.2030
15353W        W58291  26.708   4.238  27.107  0.3131 -0.3454 -0.0698
15354W        W58292  26.641   3.074  23.386 -0.1861  0.0353 -0.0558
15355W        W58293  26.245   4.250  26.786  0.0767 -0.0351 -0.2439
15356W        W58294  28.076   0.964  24.189 -0.2244  0.0679  0.0481
15357W        W58295  26.843   1.385  24.014 -0.1035  0.2395 -0.0698
15358W        W58296  26.750   1.414  24.742  0.2006  0.1161 -0.0551
15359W        W58297  29.050   2.998  26.170  0.0678 -0.0227  0.0862
15360W        W58298  27.031   1.808  24.288  0.1381  0.1854  0.3353
15361W        W58299  28.510   1.174  27.518 -0.0131  0.2600 -0.0515
15362W        W58300  26.649   0.885  26.878  0.4407 -0.0218  0.0526
15363W        W58301  28.101   2.960  25.827  0.0294 -0.0372 -0.2973
15364W        W58302  25.671   2.041  27.335 -0.1280  0.1738 -0.0556
15365W        W58303  27.827   4.687  27.856 -0.1107 -0.0192  0.3774
15366W        W58304  25.714   3.482  26.425 -0.2631  0.0743 -0.2248
15367W        W58305  27.232   0.462  24.821  0.0666  0.3351 -0.2383
15368W        W58306  25.066  34.163  25.567  0.1194 -0.2652  0.3195
15369W        W58307  27.212   2.438  26.744  0.0441  0.0948  0.1301
15370W        W58308  29.121   3.604  26.265  0.1570  0.2860 -0.1745
15371W        W58309  27.359   2.753  25.274 -0.1985  0.2935  0.2185
15372W        W58310  28.805   0.889  26.235 -0.1386 -0.0154  0.1082
15373W        W58311  26.479   2.838  26.357  0.1464 -0.0507  0.1755
15374W        W58312  28.983   2.050  25.266  0.0452  0.0618  0.1280
15375W        W58313  27.874   2.359  22.791  0.1423  0.4506 -0.0227
15376W        W58314  26.689   3.559  25.329  0.3695 -0.3868 -0.1433
15377W        W58315  26.965   1.154  26.632  0.1626 -0.1341  0.3207
15378W        W58316  28.109   1.477  26.553 -0.1999  0.1247 -0.1575
15379W        W58317  26.945   0.567  26.620 -0.0196 -0.1935  0.0819
15380W        W58318  27.657   1.594  25.706 -0.1609  0.2061 -0.1086
15381W        W58319  26.965   1.467  26.217  0.1165 -0.1494 -0.1481
15382W        W58320  27.750   3.130  28.459 -0.2226  0.0672  0.0034
15383W        W58321  25.959   0.994  28.302  0.1009  0.2386  0.0079
15384W        W58322  28.048   3.869  27.687 -0.1083 -0.1052 -0.0544
15385W        W58323  28.956   1.694  23.197 -0.0379 -0.0426 -0.1506
15386W        W58324  28.980   1.779  26.450  0.1484  0.0318 -0.1696
15387W        W58325  28.702   1.488  25.340  0.0295 -0.2034 -0.1050
15388W        W58326  28.081   1.441  23.631 -0.4877  0.0505 -0.2749
15389W        W58327  26.661   1.895  26.244 -0.2805 -0.0522  0.1388
15390W        W58328  28.861   2.533  28.504 -0.1129 -0.1176 -0.1307
15391W        W58329  26.460   0.819  23.491 -0.0480  0.1483  0.0818
15392W        W58330  28.280   1.081  28.045  0.4066  0.2781  0.2383
15393W        W58331  27.128   4.822  23.638 -0.3295  0.0075 -0.0804
15394W        W58332  26.998   3.124  25.072 -0.2380 -0.1479  0.0968
15395W        W58333  26.189   2.875  25.933  0.0104 -0.1274 -0.0329
15396W        W58334  25.062  34.450  26.911  0.2200 -0.0335  0.4283
15397W        W58335  26.599   3.552  26.312 -0.4652 -0.3559 -0.0561
15398W        W58336  25.639  34.024  24.101 -0.0151  0.1547  0.0574
15399W        W58337  26.171   1.303  24.722  0.1375 -0.1277 -0.1749
15400W        W58338  27.742   3.005  26.158  0.1688  0.4074 -0.0408
15401W        W58339  28.681   2.597  27.467  0.3018 -0.1711 -0.1048
15402W        W58340  28.445   1.320  24.046 -0.0888  0.0944  0.2882
15403W        W58341  29.488   3.061  27.230 -0.4212 -0.1424  0.0946
15404W        W58342  24.858   2.953  24.249  0.0162  0.0354 -0.1124
15405W        W58343  27.141   1.651  25.661 -0.0861 -0.0988  0.0082
15406W        W58344  26.769   4.318  26.620 -0.3079 -0.3386 -0.0353
15407W        W58345  25.184   4.003  25.898 -0.0577  0.3154  0.1227
15408W        W58346  25.843   4.124  25.213  0.3393  0.0674  0.1327
15409W        W58347  27.708   1.832  26.754 -0.0347  0.0119 -0.3307
15410W        W58348  27.779   1.391  24.939  0.1547 -0.0342  0.1008
15411W        W58349  26.152   2.803  25.304 -0.1595  0.1731  0.1334
15412W        W58350  29.351   1.398  27.422 -0.4432 -0.1530 -0.2372
15413W        W58351  27.819   4.480  28.492 -0.2639  0.0018 -0.1421
15414W        W58352  26.922   2.667  25.372 -0.3526  0.1040  0.4772
15415W        W58353  28.579   3.052  25.947  0.3543  0.0735  0.2437
15416W        W58354  29.711   1.285  26.322  0.0374  0.0247  0.0035
15417W        W58355  25.775   3.144  26.019  0.0887 -0.2022  0.1127
15418W        W58356  26.029   1.925  26.398  0.0386 -0.2572 -0.0278
15419W        W58357  26.313   2.256  26.855 -0.0797 -0.1341  0.0531
15420W        W58358  27.196   2.965  23.762  0.2294 -0.3135  0.3699
15421W        W58359  26.063   1.681  25.121  0.3167  0.1780 -0.1127
15422W        W58360  27.010   4.354  23.820  0.0442 -0.0145 -0.2274
15423W        W58361  26.173   3.717  28.197 -0.0182  0.1223 -0.1537
15424W        W58362  24.711   3.682  25.920 -0.0513  0.1546 -0.2046
15425W        W58363  24.773   3.263  23.816  0.4360 -0.0559 -0.0659
15426W        W58364  26.490   2.506  24.077  0.1535 -0.2610  0.3979
15427W        W58365  27.510   3.033  22.857  0.0122  0.1554 -0.0481
15428W        W58366  27.304   2.923  26.634  0.0540  0.1020  0.1454
15429W        W58367  25.035  34.560  24.339 -0.0342 -0.0637  0.1688
15430W        W58368  25.278   2.906  25.476 -0.3407 -0.1135 -0.1506
15431W        W58369  25.629   3.399  24.687  0.2655 -0.2294  0.0705
15432W        W58370  27.394   3.401  24.789 -0.0958 -0.1357  0.0015
15433W        W58371  26.830   4.055  25.234  0.3449 -0.1433  0.1592
15434W        W58372  29.337   3.996  26.922  0.0573  0.0196 -0.4379
15435W        W58373  27.445  34.294  23.725 -0.1897  0.0650 -0.1244
15436W        W58374  27.382   1.436  26.691  0.0907  0.1064  0.0146
15437W        W58375  28.439   0.817  24.568 -0.0851 -0.1516  0.0635
15438W        W58376  26.022   2.647  27.742  0.0529 -0.3817  0.0536
15439W        W58377  25.712   2.815  25.673  0.2258 -0.0961 -0.0446
15440W        W58378  28.404  34.624  24.249 -0.0422  0.1897 -0.1885
15441W        W58379  26.796   2.741  26.761  0.1017  0.0631  0.1390
15442W        W58380  29.342   0.381  28.114 -0.0868 -0.4546 -0.3306
15443W        W58381  24.706   4.859  26.720 -0.1342 -0.0532 -0.2642
15444W        W58382  27.505   4.289  23.995  0.0127  0.0950 -0.0920
15445W        W58383  26.006   2.313  23.773 -0.2908  0.2132 -0.0617
15446W        W58384  25.802   2.021  25.428 -0.1189  0.2300 -0.2651
15447W        W58385  28.299   0.235  26.936 -0.2047 -0.4024 -0.1176
15448W        W58386  25.786   2.031  24.108 -0.0452 -0.3101  0.1305
15449W        W58387  27.912   1.020  26.003  0.2395 -0.0346 -0.0108
15450W        W58388  26.006   3.793  25.557  0.0709 -0.1379  0.0454
15451W        W58389  26.480   3.343  25.811  0.2627  0.0812  0.0735
15452W        W58390  26.757   2.285  26.530 -0.0665 -0.0008 -0.0524
15453W        W58391  26.289   0.764  25.212 -0.2076  0.1358  0.1927
15454W        W58392  29.273   0.997  24.609  0.2373 -0.0887  0.0076
15455W        W58393  25.622   0.813  26.068  0.1141 -0.0152 -0.0014
15456W        W58394  29.447   1.823  26.587 -0.1058 -0.2748 -0.1369
15457W        W58395  26.131   2.306  24.510 -0.2124  0.1435  0.1110
15458W        W58396  28.864   0.886  24.867 -0.1056  0.1837 -0.1793
15459W        W58397  26.532   3.154  26.743 -0.2015 -0.0607 -0.0572
15460W        W58398  27.613   1.534  27.215  0.2100  0.2591  0.5252
15461W        W58399  26.926  34.570  23.218  0.1423  0.1179 -0.0825
15462W        W58400  30.726   0.636  27.022 -0.0286 -0.1574 -0.2885
15463W        W58401  26.788   1.683  23.292 -0.3056 -0.1505 -0.0625
15464W        W58402  28.632   2.188  26.541  0.0047  0.0324 -0.1094
15465W        W58403  26.544   0.222  26.596  0.1058  0.2617  0.1262
15466W        W58404  27.977   0.585  23.728 -0.2267  0.1093 -0.0094
15467W        W58405  25.506   2.417  24.706 -0.2458 -0.0262  0.3345
15468W        W58406  26.830   0.031  27.236 -0.1768 -0.0635  0.0693
15469W        W58407  27.292   3.113  27.669 -0.0715 -0.1225 -0.1003
15470W        W58408  26.304  34.253  25.896  0.4115 -0.0366  0.0735
15471W        W58409  27.804   2.009  24.167  0.0913 -0.2133 -0.2314
15472W        W58410  27.641   2.113  25.744  0.3318  0.1526 -0.1525
15473W        W58411  26.861   3.646  22.972 -0.5302  0.0552  0.0808
15474W        W58412  28.008   2.005  25.384 -0.0147  0.1468 -0.1493
15475W        W58413  29.878   4.147  25.580  0.3667 -0.1342 -0.3348
15476W        W58414  24.830   0.310  27.879  0.0926  0.3347 -0.0486
15477W        W58415  30.140   3.833  26.004  0.2110  0.1381 -0.1086
15478W        W58416  29.578   2.479  24.863 -0.6373  0.0580 -0.1340
15479W        W58417  26.929   0.372  25.609  0.2936  0.1047  0.1307
15480W        W58418  25.884   2.435  26.781 -0.1873  0.0334  0.2936
15481W        W58419  24.407   3.962  24.076  0.0225 -0.0431  0.0135
15482W        W58420  29.158   1.157  27.005  0.1469  0.5498 -0.0219
15483W        W58421  29.110   2.198  26.772 -0.0045  0.2085  0.0037
15484W        W58422  27.026   3.654  24.974 -0.0620 -0.0627 -0.0815
15485W        W58423  28.656  34.281  27.928  0.0702  0.1476  0.1250
15486W        W58424  27.455   2.063  27.097  0.0257  0.1870  0.0285
15487W        W58425  25.811   3.826  27.867 -0.1234 -0.1447 -0.1448
15488W        W58426  26.008   2.413  25.630  0.0290  0.2246  0.4028
15489W        W58427  27.073   3.476  26.763  0.0278  0.4486 -0.2855
15490W        W58428  25.584   4.350  25.713 -0.0834 -0.2994  0.0766
15491W        W58429  26.366   4.322  25.007  0.3077 -0.2604 -0.1271
15492W        W58430  28.087   3.878  26.378 -0.0416 -0.3660  0.1587
15493W        W58431  26.794   2.253  25.110  0.2110 -0.0231  0.2535
15494W        W58432  27.463   1.694  26.267  0.1983 -0.1511  0.1645
15495W        W58433  25.944  34.623  26.577 -0.1323 -0.1781  0.0466
15496W        W58434  27.932   0.562  25.833 -0.1272  0.0053 -0.1956
15497W        W58435  27.720   0.430  24.622  0.0682  0.2168 -0.0777
15498W        W58436  26.433   1.746  26.761  0.0588  0.2269  0.1409
15499W        W58437  25.325   2.756  24.385  0.1681 -0.0711  0.3197
15500W        W58438  25.678   2.552  23.433 -0.0687 -0.3175  0.1156
15501W        W58439  26.659   3.779  26.780 -0.1947 -0.0084  0.1464
15502W        W58440  26.668  33.977  27.754  0.1529 -0.1554  0.0866
15503W        W58441  26.577   1.775  27.252 -0.1203 -0.0606  0.2037
15504W        W58442  24.392   3.472  25.223  0.0858 -0.1118 -0.0725
15505W        W58443  25.381   2.967  24.833  0.0440  0.1588 -0.1979
15506W        W58444  28.856   3.334  25.652  0.1128  0.0104 -0.1764
15507W        W58445  26.753   1.392  27.578  0.2078  0.3668 -0.3182
15508W        W58446  24.670  34.438  26.109  0.3552  0.1146  0.0559
15509W        W58447  26.426   1.995  24.838 -0.0796  0.4783 -0.3368
15510W        W58448  29.982   3.409  25.901  0.2307 -0.1823  0.1268
15511W        W58449  27.006   1.536  25.127 -0.0107  0.2117  0.0207
15512W        W58450  30.190   3.985  27.862  0.0771  0.2391 -0.0244
15513W        W58451  24.603   2.409  22.628  0.1057 -0.0703  0.0906
15514W        W58452  28.748   3.278  27.195 -0.0251 -0.0751  0.1116
15515W        W58453  27.970   1.919  27.214  0.0287  0.0190 -0.2010
15516W        W58454  25.555   0.979  24.787 -0.3462  0.1259  0.0905
15517W        W58455  27.807   1.233  28.193  0.2710  0.2668 -0.1616
15518W        W58456  27.010   3.257  25.620  0.0646  0.0229  0.0881
15519W        W58457  28.060   2.749  23.532  0.4704 -0.3955 -0.0947
15520W        W58458  26.391   1.929  25.370  0.4529  0.0083  0.0812
15521W        W58459  26.211   3.090  27.996 -0.0579  0.2622 -0.0762
15522W        W58460  25.532   0.625  26.926 -0.1951 -0.0650  0.2735
15523W        W58461  27.730   1.539  23.245 -0.2569 -0.1181 -0.3086
15524W        W58462  25.670   2.685  26.192  0.4444 -0.1676  0.0760
15525W        W58463  28.535   3.266  24.218  0.0701  0.1122  0.0765
15526W        W58464  28.172   1.504  27.026  0.0405  0.0706  0.0915
15527W        W58465  26.992   1.956  24.815 -0.3236  0.0061 -0.4115
15528W        W58466  26.231  34.260  27.733  0.3516 -0.2415 -0.1692
15529W        W58467  26.434   2.890  27.545 -0.1190  0.0492  0.2232
15530W        W58468  30.786   2.703  25.992  0.1569 -0.0253  0.1344
15531W        W58469  26.792   0.039  26.145 -0.5554 -0.2275 -0.1581
15532W        W58470  27.205   0.171  25.230  0.1520  0.2629  0.1330
15533W        W58471  27.513   3.226  24.296 -0.0548  0.0802 -0.0254
15534W        W58472  24.615   3.282  26.347 -0.0195  0.3849 -0.2346
15535W        W58473  27.105  34.579  25.777 -0.1837  0.0674  0.3773
15536W        W58474  26.246   2.354  26.360 -0.0740  0.0719  0.1070
15537W        W58475  26.360   0.871  26.481  0.2143 -0.0130  0.0454
15538W        W58476  29.384   1.930  27.455 -0.1679 -0.0797 -0.0623
15539W        W58477  27.433   1.938  24.549  0.2468  0.4414  0.1321
15540W        W58478  28.998   1.811  24.451  0.3634 -0.0832 -0.0940
15541W        W58479  28.241   4.322  27.700  0.1666 -0.2294 -0.1718
15542W        W58480  28.354   3.072  26.813  0.0443 -0.0318 -0.1468
15543W        W58481  26.623   2.469  25.994 -0.2314 -0.4944  0.1277
15544W        W58482  29.312   3.442  25.845  0.0486  0.2199 -0.2058
15545W        W58483  26.174  33.836  27.436 -0.2559  0.2370  0.0983
15546W        W58484  25.358   1.933  25.834  0.1856 -0.0299  0.2374
15547W        W58485  25.313   0.301  24.221  0.1539 -0.2257 -0.2575
15548W        W58486  26.196   1.515  25.599  0.0571 -0.0039  0.5437
15549W        W58487  25.458   1.295  26.014 -0.2479 -0.3155 -0.0171
15550W        W58488  28.202   1.296  24.554  0.0698  0.1452  0.1226
15551W        W58489  27.910   2.869  27.051  0.0345 -0.2235  0.2304
15552W        W58490  27.075   2.200  26.121  0.2042 -0.1336 -0.3037
15553W        W58491  27.293   1.870  29.795 -0.0024 -0.2902 -0.1986
15554W        W58492  26.633   1.548  29.640 -0.3896 -0.1541 -0.3666
15555W        W58493  29.536   2.405  26.480 -0.0850  0.1226 -0.3170
15556W        W58494  29.283   2.503  29.049  0.1423  0.1968 -0.0814
15557W        W58495  25.917   1.606  28.540 -0.2060  0.0814 -0.1620
15558W        W58496  29.878   2.535  29.159 -0.0718  0.0781  0.1162
15559W        W58497  28.381   0.428  30.833 -0.0291  0.0652 -0.0510
15560W        W58498  28.177   4.438  30.282 -0.0070  0.0270  0.2250
15561W        W58499  30.243   4.600  30.672 -0.4113 -0.0471  0.2228
15562W        W58500  28.926   1.964  27.348  0.1291  0.0688  0.0177
15563W        W58501  25.644   1.606  29.952  0.1830 -0.3468 -0.2181
15564W        W58502  26.739   3.986  29.517  0.0899 -0.0021  0.1629
15565W        W58503  27.485   0.879  28.082  0.3270  0.2950  0.0276
15566W        W58504  26.956  33.940  29.176 -0.1445  0.0708 -0.2093
15567W        W58505  27.692   1.683  29.598  0.1498  0.2193  0.2819
15568W        W58506  26.481   2.455  28.662 -0.1462  0.1032  0.1705
15569W        W58507  25.275   0.848  30.695 -0.0598  0.1081 -0.0754
15570W        W58508  26.955   2.318  27.956  0.0362 -0.1588 -0.2007
15571W        W58509  28.279   4.098  29.757  0.2133 -0.3475 -0.0615
15572W        W58510  27.909   2.188  29.387  0.2329 -0.1466 -0.0956
15573W        W58511  26.580  34.582  31.632 -0.0242  0.0404  0.2730
15574W        W58512  26.062   2.398  28.998  0.1765  0.0125 -0.1522
15575W        W58513  25.372   1.255  26.467  0.1097 -0.2030 -0.1536
15576W        W58514  25.722   1.144  29.783  0.2945 -0.1696  0.2215
15577W        W58515  26.781   2.158  31.016 -0.5144  0.0320  0.1769
15578W        W58516  28.213   1.512  29.021  0.1217  0.1808 -0.3291
15579W        W58517  27.478   2.565  30.497 -0.2889  0.0101  0.2258
15580W        W58518  27.091   4.334  29.249  0.1088  0.1524 -0.0610
15581W        W58519  29.440   3.803  29.611  0.2323  0.1341  0.0636
15582W        W58520  28.955   2.316  30.416  0.0064 -0.0659 -0.1206
15583W        W58521  25.154   3.583  29.497 -0.0954  0.1205 -0.0901
15584W        W58522  24.354   5.302  29.910  0.4549 -0.0899 -0.0703
15585W        W58523  26.812   2.784  28.878  0.3024  0.0702 -0.0699
15586W        W58524  27.894   2.436  28.817  0.1182 -0.0899  0.5207
15587W        W58525  28.252   2.787  30.389 -0.0712  0.1270 -0.3191
15588W        W58526  28.337   4.772  30.745  0.2045  0.2313 -0.3607
15589W        W58527  25.124   1.711  29.135 -0.0616  0.0321  0.0408
15590W        W58528  28.409   3.013  31.437  0.1226  0.0886 -0.0012
15591W        W58529  26.606   4.064  30.875 -0.0869 -0.3569 -0.1206
15592W        W58530  27.998   3.176  29.712  0.0741 -0.1512 -0.1521
15593W        W58531  26.181   3.386  28.614 -0.1267  0.0152 -0.1958
15594W        W58532  25.923   3.791  29.805  0.2179  0.2030  0.0110
15595W        W58533  27.457   3.813  30.032 -0.2834  0.0352  0.0509
15596W        W58534  26.607   3.374  30.132  0.3093 -0.0946  0.1409
15597W        W58535  25.051   1.977  28.735 -0.2552 -0.3463  0.2488
15598W        W58536  29.487  33.603  29.487  0.1047 -0.1559 -0.1137
15599W        W58537  26.020   2.959  29.604  0.0581 -0.0683  0.0262
15600W        W58538  28.696   2.446  28.082  0.2645 -0.1351  0.0075
15601W        W58539  27.017   1.845  26.625 -0.1107  0.1468 -0.1475
15602W        W58540  27.943   2.084  28.324 -0.0416 -0.0528  0.0516
15603W        W58541  27.222   1.076  30.486  0.0026  0.1570 -0.1706
15604W        W58542  24.981   4.424  31.210  0.0640  0.2524  0.0254
15605W        W58543  26.679   2.024  30.517  0.1526  0.1680  0.0373
15606W        W58544  28.383   2.216  30.652 -0.0509  0.1275 -0.0229
15607W        W58545  28.261   3.303  29.217 -0.2463  0.1500 -0.0033
15608W        W58546  28.240   1.027  29.169 -0.0679 -0.2028 -0.2837
15609W        W58547  25.800   2.944  30.375 -0.1289  0.1669  0.0382
15610W        W58548  26.077   1.536  29.025 -0.0819 -0.2081  0.0534
15611W        W58549  29.575   2.318  29.518 -0.0739  0.0796  0.0964
15612W        W58550  30.390   4.084  29.565 -0.2669  0.0160 -0.0084
15613W        W58551  27.781   3.903  28.813 -0.1105 -0.0139 -0.0805
15614W        W58552  26.347   2.014  29.325  0.1518 -0.0335  0.1916
15615W        W58553  25.973   2.981  31.624  0.2697 -0.2583 -0.0052
15616W        W58554  25.784   1.968  30.909 -0.1548  0.0988  0.2061
15617W        W58555  27.859   1.415  27.642  0.1907 -0.1351 -0.0843
15618W        W58556  29.092   1.720  31.246 -0.0741  0.1753 -0.1632
15619W        W58557  24.675   2.564  29.316  0.3576  0.0810 -0.1781
15620W        W58558  28.559   0.838  28.733 -0.1518 -0.0587  0.1025
15621W        W58559  25.394   3.675  29.939 -0.0068  0.0966  0.4555
15622W        W58560  28.224   3.816  30.396  0.1427  0.0233 -0.1597
15623W        W58561  28.941   2.983  28.274 -0.0276 -0.1677  0.2048
15624W        W58562  28.188   0.521  29.245 -0.0809  0.1909 -0.2181
15625W        W58563  29.499  34.375  30.549  0.1805 -0.1406  0.4172
15626W        W58564  25.393   2.800  28.450 -0.4891 -0.0284  0.1605
15627W        W58565  27.573   2.818  28.878  0.2917 -0.0214  0.3005
15628W        W58566  28.416   3.813  30.890 -0.2483  0.1455  0.0359
15629W        W58567  28.356   1.470  28.556  0.2400 -0.1035 -0.3625
15630W        W58568  25.265   3.707  30.486 -0.0085 -0.4502 -0.3433
15631W        W58569  25.180   1.340  31.294 -0.0786 -0.3208 -0.0725
15632W        W58570  28.092   1.867   0.393  0.0640 -0.2801  0.1020
15633W        W58571  26.348   2.782  27.066  0.0089 -0.1910 -0.0273
15634W        W58572  25.315   2.037  29.597  0.0569  0.0274  0.1766
15635W        W58573  23.795   3.356  28.239 -0.0133 -0.2660 -0.0786
15636W        W58574  26.219  34.306  28.697  0.1050 -0.2214 -0.3062
15637W        W58575  26.708   2.462  29.895 -0.1930  0.0095 -0.1357
15638W        W58576  27.641   1.724  28.074 -0.1347  0.1474 -0.1046
15639W        W58577  25.848   1.910  29.509  0.0637  0.1278  0.0027
15640W        W58578  27.910   0.706  28.297  0.2093  0.2145  0.0468
15641W        W58579  26.737   1.762  29.189  0.5206 -0.1781 -0.4422
15642W        W58580  29.163   4.299  29.708  0.2805  0.0164 -0.0559
15643W        W58581  28.803   2.686  28.973 -0.0443  0.0058  0.2288
15644W        W58582  27.602   3.672  28.351 -0.3624 -0.0512  0.1088
15645W        W58583  25.585   2.761  29.048 -0.1171 -0.0893  0.0916
15646W        W58584  26.335   0.176  28.633 -0.1452 -0.1429 -0.2662
15647W        W58585  25.750   0.636  30.941 -0.0486 -0.0547  0.0066
15648W        W58586  27.088   0.282  30.794 -0.0119 -0.1671 -0.0502
15649W        W58587  27.738   1.801  31.114 -0.3099  0.2752 -0.1362
15650W        W58588  25.946   0.440  29.069 -0.1655 -0.2475 -0.1840
15651W        W58589  27.894   1.301  29.431  0.1243 -0.0445  0.0903
15652W        W58590  26.765   3.876  27.470 -0.1090  0.1285 -0.0913
15653W        W58591  25.805   1.684  27.682 -0.0192 -0.1486 -0.1163
15654W        W58592  27.165  34.687  31.230 -0.2537  0.0037 -0.2573
15655W        W58593  29.083   2.959  29.761  0.4134  0.1843 -0.1579
15656W        W58594  28.641   4.095  30.469  0.0792 -0.2667  0.1057
15657W        W58595  30.034   4.242  30.368  0.1458 -0.2168 -0.1046
15658W        W58596  25.874   2.473  30.393  0.0340  0.2714  0.2647
15659W        W58597  26.241   1.952  28.792  0.0108 -0.1041 -0.0198
15660W        W58598  25.303   3.821  28.540  0.0117 -0.0253 -0.0868
15661W        W58599  26.623   4.541  29.499 -0.1539  0.2882 -0.1360
15662W        W58600  27.516   2.607  28.404  0.0540  0.0704 -0.0256
15663W        W58601  30.236   5.382  29.302 -0.2937  0.0283 -0.2869
15664W        W58602  27.228   3.014  28.590  0.1881 -0.0904  0.0545
15665W        W58603  26.529   3.018  29.714 -0.0511 -0.0142  0.0679
15666W        W58604  29.965   0.632  29.146 -0.0354  0.1083  0.3516
15667W        W58605  28.804   1.411  31.004  0.0141  0.2544  0.0779
15668W        W58606  27.210   3.123  29.675 -0.0819  0.2218  0.1410
15669W        W58607  26.438  33.990  28.209 -0.1864 -0.0508  0.3823
15670W        W58608  27.990   5.426  31.001  0.1167  0.2779 -0.0265
15671W        W58609  24.486   2.875  28.989  0.1071  0.1453 -0.4603
15672W        W58610  25.000   2.506  29.816 -0.1722 -0.1117  0.0851
15673W        W58611  28.013   3.392  28.772  0.3637 -0.0990 -0.0856
15674W        W58612  26.969   0.417  27.538 -0.1603  0.2441  0.3689
15675W        W58613  24.315   2.289  30.300 -0.3750  0.1842 -0.1574
15676W        W58614  27.925   0.151  31.385  0.2070 -0.0561  0.0207
15677W        W58615  25.541   3.017  26.864 -0.0366 -0.3678  0.4506
15678W        W58616  27.013   2.978  30.593  0.2068 -0.0827 -0.0824
15679W        W58617  26.979   1.130  30.008  0.0029 -0.0044  0.0907
15680W        W58618  28.721   1.113  28.304  0.3717 -0.0126  0.0621
15681W        W58619  27.388   2.132  30.190  0.3505 -0.1318  0.2584
15682W        W58620  29.577   2.991  29.953 -0.1821  0.2397 -0.1775
15683W        W58621  28.331   1.701  27.506 -0.2022 -0.0862 -0.1498
15684W        W58622  26.340   0.848  27.260  0.0807  0.1995 -0.0425
15685W        W58623  26.039   3.446   0.002  0.1877 -0.3265  0.2053
15686W        W58624  28.718   1.812  29.648  0.2984 -0.4034  0.1324
15687W        W58625  26.775   3.343  29.351 -0.3928  0.1325 -0.0160
15688W        W58626  27.698   2.214  26.462  0.1153  0.4185 -0.0621
15689W        W58627  29.520   3.219  29.535  0.2663  0.1304  0.0333
15690W        W58628  24.977   3.386  30.096 -0.1383 -0.0544  0.6609
15691W        W58629  28.894   2.291  30.932  0.1270 -0.0292  0.1261
15692W        W58630  30.416   3.861  30.516  0.1188 -0.1665  0.0301
15693W        W58631  27.756   1.076  30.044 -0.1786 -0.0927 -0.3360
15694W        W58632  25.688   4.345  28.418 -0.1675  0.0413 -0.0888
15695W        W58633  27.123   0.977  28.783  0.2888 -0.1989  0.1385
15696W        W58634  25.098   3.521  27.159  0.0073  0.1190 -0.0828
15697W        W58635  28.867   1.012  29.671 -0.2281  0.3163  0.1446
15698W        W58636  27.805   0.813  29.350 -0.2204  0.0536 -0.0293
15699W        W58637  27.255   2.048  30.765  0.0140 -0.2556  0.1063
15700W        W58638  28.531   0.287  31.269  0.1312  0.0925  0.1379
15701W        W58639  28.925   2.560  29.466 -0.2298  0.0491 -0.0055
15702W        W58640  28.595   1.380  29.417  0.2134 -0.0335 -0.2796
15703W        W58641  25.477   2.885  27.585  0.0119  0.3014 -0.1947
15704W        W58642  26.719   1.535  31.902  0.2056 -0.1367  0.3250
15705W        W58643  25.888   1.539  31.206 -0.2647  0.1636 -0.0847
15706W        W58644  25.072   4.707  30.013  0.0654 -0.0830 -0.2984
15707W        W58645  26.406   2.332  30.260  0.1213 -0.1850  0.3009
15708W        W58646  28.582   3.361  28.359  0.0527  0.1989  0.2876
15709W        W58647  28.418  34.463  29.528 -0.1123 -0.2544  0.0942
15710W        W58648  26.308   1.746  27.653 -0.0437 -0.1118 -0.1415
15711W        W58649  25.304   2.741  29.539 -0.0811 -0.0059  0.2757
15712W        W58650  27.494   3.786  27.880  0.2417  0.1112 -0.2716
15713W        W58651  26.369   1.171  29.297 -0.0735 -0.0347  0.2603
15714W        W58652  27.537   4.545  29.550 -0.0757 -0.0421 -0.0561
15715W        W58653  26.141   2.181  27.300  0.1897 -0.2139  0.0441
15716W        W58654  27.050   3.310  30.240  0.1800 -0.1442  0.1060
15717W        W58655  25.716   3.398  28.279  0.1940  0.1954 -0.0407
15718W        W58656  29.613  34.683  29.637 -0.0664  0.0907  0.1141
15719W        W58657  25.691   3.721  29.254 -0.1705 -0.3505  0.2552
15720W        W58658  27.239   3.060  29.119  0.0053  0.1681  0.1215
15721W        W58659  25.098   2.370  29.135  0.0489  0.1889 -0.1008
15722W        W58660  27.351   1.253  29.679  0.0426  0.2350  0.1809
15723W        W58661  29.586   2.116  29.014  0.3117  0.0870 -0.1063
15724W        W58662  26.516   0.958  30.242 -0.0308  0.2302 -0.1045
15725W        W58663  27.312   1.464  30.140  0.2924  0.0983  0.0909
15726W        W58664  25.400   2.616  30.467 -0.0540 -0.0552 -0.3970
15727W        W58665  28.617   1.961  30.098 -0.0112  0.3280  0.3809
15728W        W58666  26.960   0.938  27.835 -0.3479  0.0296 -0.0080
15729W        W58667  28.063   3.678  29.927 -0.1437 -0.2953 -0.1068
15730W        W58668  26.242   2.281  29.723  0.3412 -0.1303  0.1225
15731W        W58669  25.743   1.409  26.756 -0.1529  0.1043  0.1560
15732W        W58670  28.773   0.664  29.977  0.4369 -0.1561 -0.2072
15733W        W58671  26.113   1.875  30.422  0.0706  0.1549 -0.0624
15734W        W58672  25.552   4.467  29.182 -0.1237  0.1588 -0.1273
15735W        W58673  27.400   4.682  28.267  0.1572 -0.2043  0.1124
15736W        W58674  26.816   1.983  28.743  0.1939 -0.2001 -0.2603
15737W        W58675  25.424   5.103  29.991 -0.1055  0.1569  0.0879
15738W        W58676  26.090   4.269   0.205 -0.0037  0.2113 -0.0621
15739W        W58677  28.178   2.358  30.120  0.1413  0.1103 -0.2174
15740W        W58678  27.240   0.913  29.271  0.1953  0.0672 -0.2327
15741W        W58679  27.376   2.164  29.339 -0.0352  0.0256 -0.0500
15742W        W58680  26.213   3.011  29.068 -0.1470  0.1017 -0.2679
15743W        W58681  28.223   3.330  30.739  0.1025 -0.0660  0.1378
15744W        W58682  27.735   2.177  31.406  0.1222  0.3200  0.1923
15745W        W58683  26.006   5.210  30.791  0.1674 -0.1393 -0.0138
15746W        W58684  27.783   0.800  30.865 -0.0201  0.0011  0.0767
15747W        W58685  28.398   2.430  28.576  0.0545 -0.3001 -0.1515
15748W        W58686  27.920   2.939  30.835 -0.0800 -0.0440  0.2712
15749W        W58687  26.098   4.216  28.132  0.0821  0.2897  0.1317
15750W        W58688  26.273   0.967  29.759  0.2626 -0.0115 -0.1833
15751W        W58689  25.774   4.022  28.791 -0.2111 -0.1139 -0.2011
15752W        W58690  28.110   1.414  29.855  0.0520  0.1552  0.0951
15753W        W58691  26.863   1.997  30.053  0.1423  0.0947 -0.2621
15754W        W58692  26.723   3.057  28.453 -0.0327 -0.0862 -0.0720
15755W        W58693  25.301   2.950  30.017  0.1734  0.1834  0.1323
15756W        W58694  27.798   2.524  27.857 -0.3158 -0.0184  0.1909
15757W        W58695  27.937   2.707  29.319  0.1086  0.1106 -0.1580
15758W        W58696  27.669   3.277  29.152 -0.2207 -0.1634 -0.1398
15759W        W58697  30.620  34.345  29.757  0.2603 -0.3825 -0.1350
15760W        W58698  27.091   2.235  27.484  0.1238 -0.1220 -0.0955
15761W        W58699  28.785  33.336  29.757 -0.0721 -0.0280 -0.2250
15762W        W58700  27.593   0.731  30.360  0.1546  0.1258 -0.1500
15763W        W58701  29.011   3.828  29.945  0.0961 -0.0281  0.1757
15764W        W58702  26.033   1.420  30.278  0.3427  0.0472  0.0340
15765W        W58703  28.372   4.363  31.698  0.1942  0.0004 -0.2072
15766W        W58704  27.422  34.047  31.112 -0.0563  0.0576  0.0891
15767W        W58705  28.337   2.437  29.083 -0.3042  0.1102  0.0292
15768W        W58706  26.930   0.967  28.291 -0.1460 -0.1956 -0.3305
15769W        W58707  26.448   3.621  29.721 -0.2050  0.0142  0.3384
15770W        W58708  26.925   3.372  28.860  0.0993 -0.2808  0.3498
15771W        W58709  26.631   3.549  28.459  0.4699 -0.1828  0.2554
15772W        W58710  28.159   2.039  28.770 -0.1123  0.0300 -0.1181
15773W        W58711  26.230   2.201  30.786 -0.2825 -0.0055  0.0137
15774W        W58712  28.479   2.858  29.310 -0.2345  0.1559  0.0370
15775W        W58713  27.637   2.211  27.502  0.3534 -0.3450 -0.1837
15776W        W58714  26.309   3.915  28.624  0.3405  0.0132 -0.1490
15777W        W58715  25.324   0.806  31.303  0.1699  0.0905 -0.2057
15778W        W58716  27.869   3.202  31.464  0.1146 -0.1899  0.1340
15779W        W58717  28.077   1.046  28.623 -0.1727 -0.1836  0.2078
15780W        W58718  27.553   1.684  30.535 -0.3175  0.0635 -0.0186
15781W        W58719  27.709   1.206  30.537  0.0702 -0.1323 -0.1195
15782W        W58720  27.041   1.649  30.512 -0.1395 -0.4055  0.0649
15783W        W58721  26.171   0.903  30.662 -0.0711  0.2764  0.1058
15784W        W58722  29.516   4.062  30.047  0.1253 -0.1483  0.0496
15785W        W58723  29.204   0.004  26.993 -0.0095 -0.2795 -0.1249
15786W        W58724  29.887   1.065  30.072 -0.2744 -0.1999  0.0821
15787W        W58725  29.110   1.151  30.584 -0.0931  0.1731  0.0084
15788W        W58726  27.831   3.040  27.998 -0.0370 -0.1185  0.2742
15789W        W58727  25.981   0.949  30.188 -0.0748 -0.2708  0.2971
15790W        W58728  27.847   1.533  31.604  0.5630  0.2575  0.1187
15791W        W58729  26.781   1.917  27.664 -0.0149 -0.1069 -0.1680
15792W        W58730  29.632  34.469  29.134 -0.1076 -0.0812 -0.3158
15793W        W58731  26.582   3.779  29.061  0.0664 -0.0376  0.1009
15794W        W58732  27.651   3.202  30.094  0.1946  0.3044 -0.2819
15795W        W58733  28.643   1.590  28.099 -0.0051  0.1928 -0.0921
15796W        W58734  26.574   1.544  28.608 -0.1840  0.1481 -0.2230
15797W        W58735  25.616   3.747  30.834  0.0689  0.1380 -0.3515
15798W        W58736  25.954   2.124  27.770 -0.0922  0.1296  0.0618
15799W        W58737  26.828   2.703  27.719 -0.1687  0.2350  0.3083
15800W        W58738  27.951   3.732  29.245 -0.1930  0.3319  0.0909
15801W        W58739  28.805   2.141  31.549 -0.1086  0.0490  0.1069
15802W        W58740  26.752  34.624  28.767 -0.0988 -0.2814 -0.6225
15803W        W58741  29.390   2.184  30.656  0.1030 -0.1174  0.2384
15804W        W58742  24.604   4.518  28.127 -0.0870 -0.1636  0.0025
15805W        W58743  28.736   0.170  29.622 -0.0836 -0.3379 -0.1532
15806W        W58744  27.113   5.287  29.868 -0.0804 -0.3508 -0.0567
15807W        W58745  25.734   2.697  29.976 -0.0338 -0.1510 -0.0278
15808W        W58746  26.178   3.931  29.313 -0.1622 -0.2127  0.2859
15809W        W58747  29.240  33.921  29.842  0.2549 -0.2988  0.2088
15810W        W58748  29.185   1.421  29.661  0.0632  0.3112  0.1314
15811W        W58749  26.447   2.597  29.371 -0.1603  0.0693 -0.3419
15812W        W58750  28.688   1.827  30.621 -0.1145  0.0774  0.1157
15813W        W58751  27.515   3.983  29.333  0.0105 -0.2558 -0.0725
15814W        W58752  26.315   1.896  31.261  0.0104 -0.0442  0.1186
15815W        W58753  28.368   4.093  29.236 -0.0951 -0.1205 -0.0094
15816W        W58754  28.599   3.178  29.747 -0.0626 -0.2060 -0.0216
15817W        W58755  25.514   3.196  29.682  0.2019  0.1265  0.1123
15818W        W58756  24.741  34.533  30.826 -0.0025  0.0282  0.0366
15819W        W58757  27.902   1.300  31.138 -0.0744  0.1484  0.1670
15820W        W58758  25.496   3.286  29.123  0.0462  0.3823 -0.2752
15821W        W58759  26.810   2.070  29.551  0.3251  0.2982 -0.0384
15822W        W58760  28.239   2.325  28.048  0.2474  0.2926 -0.4040
15823W        W58761  25.204   4.058  30.909 -0.0903  0.1502  0.2613
15824W        W58762  24.522   2.538  29.781  0.0810  0.0411 -0.0218
15825W        W58763  24.363   4.837  27.882  0.0898  0.0145  0.2089
15826W        W58764  28.478   3.097  28.817  0.1517 -0.0928  0.0562
15827W        W58765  28.739   3.477  29.155  0.0595  0.1063 -0.1562
15828W        W58766  27.424   4.975  30.242 -0.0640  0.1739 -0.0527
15829W        W58767  28.462   2.087  27.151 -0.1576  0.2019  0.1004
15830W        W58768  25.792   4.223  29.612  0.1363 -0.1709  0.0936
15831W        W58769  25.011   2.427  26.892  0.2939  0.0845  0.2255
15832W        W58770  28.947   3.932  28.904  0.1562 -0.1520  0.0825
15833W        W58771  25.264   4.245  28.771 -0.0260  0.1637 -0.2879
15834W        W58772  29.588   1.822  29.731 -0.1480  0.4319  0.0321
15835W        W58773  28.094   2.412  27.402 -0.1549 -0.0117  0.1171
15836W        W58774  28.665   1.286  28.958  0.1178  0.2520 -0.0775
15837W        W58775  28.617   1.413  29.980 -0.1734  0.0814  0.0659
15838W        W58776  28.738   3.018  30.234 -0.0057  0.3119 -0.3169
15839W        W58777  28.370   2.213  29.631  0.0373 -0.0287  0.1405
15840W        W58778  27.249   1.851  27.827 -0.1677 -0.0752 -0.1342
15841W        W58779  26.651   3.004  31.063  0.1857  0.0544 -0.1090
15842W        W58780  30.491  34.310  30.276 -0.1495 -0.2676 -0.1485
15843W        W58781  26.671   5.652  29.747 -0.2007  0.3301 -0.0129
15844W        W58782  29.034   2.046  29.335 -0.0582 -0.0275  0.4230
15845W        W58783  26.713   1.321  27.095  0.0976 -0.1657  0.2409
15846W        W58784  27.286   2.341  28.885 -0.2507  0.2946  0.2067
15847W        W58785  27.088   0.545  30.267 -0.0104 -0.0499 -0.2511
15848W        W58786  26.988   2.404  28.489 -0.1394 -0.0539  0.4991
15849W        W58787  28.053   2.910  28.847 -0.0160  0.0303 -0.0152
15850W        W58788  28.590   5.256  29.718  0.2389 -0.1408 -0.0273
15851W        W58789  25.556   3.369  30.270  0.0871 -0.0788  0.0409
15852W        W58790  28.212   4.528  29.521  0.2885 -0.0317 -0.0028
15853W        W58791  25.917   0.148  28.403 -0.0770  0.1570  0.1314
15854W        W58792  29.018   1.626  30.247  0.2360  0.0508 -0.1439
15855W        W58793  26.230   2.813  30.101  0.1244  0.0813  0.0640
15856W        W58794  28.678   1.315  30.484 -0.0147  0.2138 -0.1167
15857W        W58795  26.588   2.601  30.741 -0.0547 -0.1118 -0.2769
15858W        W58796  28.700   2.518  30.031 -0.2453 -0.1093  0.1599
15859W        W58797  27.217   1.993  31.241 -0.2273 -0.1526  0.4430
15860W        W58798  25.332   2.310  30.095 -0.1624  0.3437  0.0449
15861W        W58799  27.336   2.614  27.708  0.2093 -0.1120  0.2445
15862W        W58800  30.008   3.665  30.747  0.0442  0.4508  0.1745
15863W        W58801  26.758   3.148  27.893  0.3509  0.1347 -0.0453
15864W        W58802  27.567   3.511  29.585 -0.1560  0.0380  0.0251
15865W        W58803  25.476  34.197  30.377 -0.4518 -0.0703  0.1843
15866W        W58804  28.791   1.677  28.638  0.0412  0.2951  0.0337
15867W        W58805  26.404   1.876  29.942  0.0172  0.1475 -0.1999
15868W        W58806  25.925   2.626  31.257 -0.0766  0.0637 -0.5758
15869W        W58807  27.421   3.281  30.565 -0.4105  0.0636 -0.0665
15870W        W58808  25.352   2.443  28.739  0.1286 -0.0613  0.0980
15871W        W58809  29.198   2.401  27.390  0.3955 -0.1224  0.2156
15872W        W58810  27.327   0.794  29.890  0.1476  0.0245  0.0856
15873W        W58811  25.363   4.094  28.044 -0.2093  0.0860  0.3187
15874W        W58812  29.001   3.064  29.272 -0.2802 -0.2505 -0.2480
15875W        W58813  29.026   4.151  30.726 -0.3993 -0.0272  0.2182
15876W        W58814  26.141   0.042  30.010 -0.3260 -0.2883 -0.1241
15877W        W58815  28.221   4.224  30.700  0.0371  0.1232 -0.0504
15878W        W58816  30.568   3.080  29.780 -0.0914 -0.0093 -0.0557
15879W        W58817  26.814   0.787  29.699 -0.0554  0.1588  0.3563
15880W        W58818  26.809   2.347  29.158 -0.0133  0.1514 -0.2740
15881W        W58819  24.952   3.848  29.847 -0.2631  0.1944 -0.3576
15882W        W58820  29.511   0.784  29.032 -0.1138  0.3159 -0.1312
15883W        W58821  27.818   0.632  29.789  0.2228  0.0091  0.0936
15884W        W58822  26.857   4.073  28.569 -0.1354  0.3506 -0.1519
15885W        W58823  28.220  34.639  30.501 -0.0002  0.1294 -0.2145
15886W        W58824  27.191   4.170  29.746 -0.3346 -0.0645  0.3525
15887W        W58825  25.586   3.358  31.164 -0.1499  0.1855  0.0462
15888W        W58826  26.156   2.369  28.296  0.2801 -0.4267 -0.0688
15889W        W58827  27.229   1.656  29.352  0.1449 -0.0001 -0.0837
15890W        W58828  26.559   3.957  30.178  0.0511  0.0525  0.3454
15891W        W58829  27.193   4.914  29.258 -0.1623  0.0978  0.1159
15892W        W58830  27.863   3.900  30.851 -0.1106  0.0728 -0.1413
15893W        W58831  27.462   2.229  28.055  0.0690  0.3642 -0.0833
15894W        W58832  30.121   3.723  29.429  0.0676  0.1418 -0.2420
15895W        W58833  26.883   1.286  29.256  0.0046 -0.0230 -0.2775
15896W        W58834  28.946   0.674  28.453  0.0187  0.1515  0.2587
15897W        W58835  27.992   2.705  28.352  0.0824 -0.3759 -0.2399
15898W        W58836  26.167   3.067  31.138 -0.1395  0.1002 -0.0060
15899W        W58837  25.066   2.816  28.920  0.1243  0.0313  0.3085
15900W        W58838  25.557   3.430  27.762  0.1877 -0.0711  0.0737
15901W        W58839  25.839   2.574  28.629  0.2030  0.0775  0.1654
15902W        W58840  27.946  34.270   0.245  0.0904  0.1782  0.0012
15903W        W58841  26.702   1.536  30.155  0.1729  0.1580 -0.1447
15904W        W58842  25.555   2.158  29.117  0.1291 -0.3454  0.2378
15905W        W58843  27.008   2.637  27.234 -0.0922 -0.0176  0.0464
15906W        W58844  28.624   2.687  26.484 -0.1565  0.1178 -0.1917
15907W        W58845  27.562   2.053  28.600  0.2580  0.1873  0.1121
15908W        W58846  25.883   0.749  29.515  0.1472 -0.0957 -0.3435
15909W        W58847  27.431   2.684  29.442  0.2040  0.0018 -0.2217
15910W        W58848  29.134   4.344  30.275  0.1336  0.1676  0.1761
15911W        W58849  27.044   1.413  28.564 -0.0816  0.0960 -0.0021
15912W        W58850  29.567   3.427  31.234 -0.2099 -0.2324 -0.1346
15913W        W58851  25.782   2.875  28.105 -0.1984 -0.0425 -0.0494
15914W        W58852  27.391   1.962  31.751 -0.0658  0.1601 -0.0473
15915W        W58853  28.190   1.735  30.351 -0.2087 -0.2717 -0.0917
15916W        W58854  26.458   1.458  26.278  0.0865  0.0555 -0.0975
15917W        W58855  27.791   2.683  30.149  0.0545 -0.1491  0.1011
15918W        W58856  27.125   3.684  29.310  0.1499  0.0789  0.0730
15919W        W58857  28.686   3.105  27.739  0.0653  0.0117  0.1836
15920W        W58858  26.731   5.015  29.597  0.1122 -0.1188  0.1788
15921W        W58859  25.720   3.545  28.777  0.0845 -0.2473  0.0108
15922W        W58860  26.748   0.182  30.209  0.1099 -0.0242 -0.2848
15923W        W58861  29.011   1.951  28.224  0.3103 -0.1145  0.1882
15924W        W58862  26.207   1.482  30.749 -0.2906 -0.0070  0.3375
15925W        W58863  28.909   2.177  28.868 -0.2375  0.0769 -0.1130
15926W        W58864  30.423  32.987  29.936  0.0419  0.1329 -0.0531
15927W        W58865  28.419   1.953  28.376 -0.0165 -0.2449  0.0003
15928W        W58866  26.071   1.087  31.149 -0.3001  0.1211  0.0311
15929W        W58867  26.061   2.739  30.777  0.2458 -0.0002 -0.0668
15930W        W58868  28.652   3.038  30.758 -0.1471  0.0586 -0.2080
15931W        W58869  25.824   1.229  29.304 -0.0032 -0.1569 -0.1285
15932W        W58870  27.672   2.265  29.820 -0.0228 -0.2022 -0.0976
15933W        W58871  28.358   2.924  27.370  0.1224  0.0113 -0.0077
15934W        W58872  26.720   1.223  30.660  0.3350  0.3676  0.0186
15935W        W58873  27.157   1.873  28.341 -0.2258  0.0688  0.0746
15936W        W58874  27.670   1.870  29.080  0.1154 -0.2457 -0.1172
15937W        W58875  27.447   5.810  29.105 -0.0795 -0.1410 -0.2739
15938W        W58876  28.452   1.324  31.362  0.2681 -0.3415 -0.0626
15939W        W58877  27.416   3.602  28.814 -0.2343 -0.1252  0.0133
15940W        W58878  29.242   2.222  27.846 -0.0019  0.3167  0.2089
15941W        W58879  26.103   4.788  30.242 -0.0510  0.2990 -0.0564
15942W        W58880  29.440   2.006  31.526  0.1179  0.3322 -0.0729
15943W        W58881  26.079   3.289  30.066 -0.3235 -0.0767  0.0308
15944W        W58882  28.287   2.703  29.805 -0.1627 -0.2791 -0.1736
15945W        W58883  26.921   0.268  29.343  0.0050  0.0729  0.0626
15946W        W58884  25.743   2.132  28.594 -0.3584  0.1042 -0.0888
15947W        W58885  27.000   3.561  29.781  0.1311 -0.2637 -0.0532
15948W        W58886  29.340   1.957  30.161  0.1706  0.5363 -0.0150
15949W        W58887  27.176   2.376  29.787  0.1775  0.1089 -0.0527
15950W        W58888  27.267   0.470  29.021  0.0835  0.0508  0.2151
15951W        W58889  26.177   3.432  29.317  0.1845  0.4037 -0.1309
15952W        W58890  28.211   2.312  31.105  0.3637 -0.1159  0.3054
15953W        W58891  28.374  34.215  30.783 -0.0905 -0.2140 -0.0615
15954W        W58892  28.782   0.733  31.281  0.1466  0.3311 -0.1205
15955W        W58893  25.698   1.142  30.839 -0.2115 -0.1768  0.2847
15956W        W58894  23.298   5.536  31.238  0.3698 -0.0411 -0.3321
15957W        W58895  28.072   4.046  31.276  0.2646 -0.0563 -0.0632
15958W        W58896  25.947   4.116  31.261  0.0515 -0.0184  0.1919
15959W        W58897  28.877   0.454  30.768  0.4301  0.0852 -0.0212
15960W        W58898  27.481   1.069  31.462  0.3917  0.2783 -0.1526
15961W        W58899  29.153   0.338  31.156  0.0342 -0.2011 -0.1142
15962W        W58900  28.042   2.868  31.809  0.1763  0.2971  0.3930
15963W        W58901  28.424   2.661  30.841 -0.0988 -0.4799  0.3553
15964W        W58902  26.918   0.306  31.652  0.0392  0.2927  0.0737
15965W        W58903  27.397   1.523  31.323 -0.3999  0.1102  0.0556
15966W        W58904  26.811   2.241  31.572 -0.0440  0.4214  0.4495
15967W        W58905  28.903   1.292  31.655  0.0729  0.0352 -0.2693
15968W        W58906  26.479   5.001  30.588 -0.3007 -0.0353 -0.0671
15969W        W58907  24.571   0.930  31.737 -0.0092  0.1873  0.0499
15970W        W58908  27.645   3.448  31.035 -0.0543  0.0145 -0.0687
15971W        W58909  26.909  34.399  30.409 -0.0948 -0.2592  0.0070
15972W        W58910  24.789   1.356   0.161  0.3691 -0.0380 -0.2229
15973W        W58911  26.201  34.445  30.772 -0.0882  0.0585 -0.0386
15974W        W58912  26.550   4.210   0.948  0.1398 -0.1191  0.0795
15975W        W58913  29.529  33.875  30.800  0.0425 -0.2614 -0.2767
15976W        W58914  26.994   0.765  30.771  0.0921 -0.1963 -0.4478
15977W        W58915  28.571   0.982  30.856  0.0313  0.1300 -0.2403
15978W        W58916  26.961   1.536  31.007 -0.0007 -0.0734 -0.0181
15979W        W58917  26.518   2.529  31.262 -0.1844  0.1108  0.3454
15980W        W58918  25.953   5.217   0.169 -0.0439 -0.1483 -0.1484
15981W        W58919  26.732   3.148  31.592  0.0559  0.4363  0.1866
15982W        W58920  25.569   2.525  31.773 -0.1764 -0.0698  0.0983
15983W        W58921  27.049   3.933  30.345 -0.3825 -0.1571  0.1704
15984W        W58922  28.212   0.636  31.268 -0.3282 -0.0646 -0.3738
15985W        W58923  28.558   2.565  31.880 -0.2669 -0.0659 -0.1594
15986W        W58924  27.585   0.283   0.230 -0.0287 -0.2199  0.0806
15987W        W58925  25.793   0.280   0.582 -0.0343  0.1976  0.0844
15988W        W58926  25.062   2.630  30.810  0.1701  0.0367  0.0412
15989W        W58927  25.869   3.606  31.519  0.1037  0.1026 -0.0319
15990W        W58928  26.934   2.731  29.413  0.0754 -0.1985 -0.1294
15991W        W58929  26.500   2.080   0.800  0.2115  0.0704  0.0427
15992W        W58930  27.191   2.374   0.093 -0.0167 -0.1428 -0.0135
15993W        W58931  29.382   0.988  31.711 -0.1701 -0.1210 -0.0952
15994W        W58932  27.949  34.048  30.346 -0.2259 -0.1511  0.3133
15995W        W58933  25.833   0.303   0.126  0.0551 -0.1228 -0.2588
15996W        W58934  27.099   4.152   0.150  0.0739  0.0161 -0.0389
15997W        W58935  27.256   0.070  30.368  0.2525 -0.3011 -0.3443
15998W        W58936  28.317   1.467  30.855 -0.1375 -0.1766  0.0670
15999W        W58937  27.237   0.584  31.277  0.4474  0.1374  0.0398
16000W        W58938  27.583   2.463  30.998  0.0894  0.1708 -0.0230
16001W        W58939  29.370   2.432  31.203 -0.0242 -0.0087 -0.1005
16002W        W58940  25.180   3.455  31.445  0.0784  0.1341 -0.4085
16003W        W58941  28.859   2.766  31.216 -0.0195  0.3078  0.3127
16004W        W58942  27.746  34.406  30.921  0.2868 -0.2456 -0.1602
16005W        W58943  25.990   0.185  30.748  0.0117 -0.1530 -0.0134
16006W        W58944  25.826   3.290  30.734  0.1844  0.2227  0.3463
16007W        W58945  27.634   1.179  31.973 -0.0297 -0.2171 -0.1191
16008W        W58946  28.927   0.963   0.078 -0.0547  0.2771  0.1894
16009W        W58947  29.549   1.532  31.730 -0.1423 -0.0681 -0.4289
16010W        W58948  26.770   4.750  30.928 -0.0234  0.5152 -0.2544
16011W        W58949  26.748   4.369  29.981 -0.2503  0.1105  0.1557
16012W        W58950  25.073   1.032  31.697  0.1760 -0.2282  0.0499
16013W        W58951  24.538   1.982  31.366  0.2924 -0.2092 -0.0784
16014W        W58952  25.126   2.621  31.621 -0.2303  0.0922  0.0977
16015W        W58953  25.030   3.570  30.929  0.1099 -0.1341  0.1010
16016W        W58954  25.146   0.318  31.783  0.4877 -0.2481 -0.1898
16017W        W58955  27.871   2.099  30.727  0.1086 -0.0622 -0.0879
16018W        W58956  28.096   2.831   0.431 -0.1114  0.3667  0.2608
16019W        W58957  29.250   0.600  30.387 -0.2104 -0.3612 -0.0775
16020W        W58958  27.695   7.915  18.233  0.0383  0.1432  0.0348
16021W        W58959  26.690   4.772  18.474  0.3169 -0.0906 -0.3138
16022W        W58960  29.536   4.983  16.012 -0.0839  0.2846  0.1768
16023W        W58961  27.807   4.708  18.502  0.1271 -0.4538  0.1645
16024W        W58962  25.474   4.236  17.546  0.0739  0.2236  0.0554
16025W        W58963  27.883   6.542  17.743  0.1841 -0.3526  0.0398
16026W        W58964  26.454   4.597  20.126  0.0720 -0.1894  0.1070
16027W        W58965  28.820   7.437  18.577 -0.1389 -0.0042 -0.1358
16028W        W58966  28.105   7.006  20.084 -0.4716 -0.0460  0.5020
16029W        W58967  28.540   5.998  16.441 -0.1627  0.2333  0.1977
16030W        W58968  27.087   6.263  17.353 -0.0532 -0.0638  0.4200
16031W        W58969  26.219   7.219  18.601  0.1900 -0.2219  0.6440
16032W        W58970  28.347   4.277  16.318 -0.2011  0.0572  0.1031
16033W        W58971  26.406   4.350  18.564  0.0910  0.0100 -0.3902
16034W        W58972  28.587   5.998  19.279 -0.1721 -0.0254  0.0043
16035W        W58973  27.059   4.604  17.120 -0.0544 -0.0794 -0.1741
16036W        W58974  26.168   5.846  17.883 -0.0630 -0.4890  0.0916
16037W        W58975  26.990   5.684  16.667 -0.0123  0.2004 -0.0933
16038W        W58976  26.104   7.748  17.602  0.0216  0.5151  0.1473
16039W        W58977  27.403   4.012  18.147 -0.2272 -0.0361 -0.3274
16040W        W58978  27.302   4.119  19.134  0.0114  0.0845  0.0547
16041W        W58979  25.880   7.096  16.104  0.0932 -0.0905  0.0159
16042W        W58980  26.848   4.424  15.913 -0.1037  0.1217 -0.5180
16043W        W58981  26.070   5.395  18.147 -0.0700 -0.0888  0.0797
16044W        W58982  25.939   6.296  19.576  0.0963  0.0753 -0.0733
16045W        W58983  27.472   5.609  18.040  0.2809 -0.3871  0.0510
16046W        W58984  29.598   6.999  18.045 -0.0943  0.0354  0.1161
16047W        W58985  26.501   9.479  17.877  0.1533  0.0677  0.0024
16048W        W58986  27.513   7.483  18.024  0.3572 -0.0447 -0.1238
16049W        W58987  28.405   4.942  19.452 -0.2087 -0.1764  0.0680
16050W        W58988  24.911   5.500  17.271  0.2297  0.0246 -0.2704
16051W        W58989  24.482   6.581  17.974 -0.2244  0.3018 -0.1983
16052W        W58990  26.366   8.046  16.092 -0.0733  0.0653 -0.3205
16053W        W58991  29.569   6.420  17.976  0.0247 -0.0820 -0.4085
16054W        W58992  27.687   6.882  19.347 -0.0876  0.1477 -0.1431
16055W        W58993  26.360   8.435  19.849 -0.1958  0.3236  0.1448
16056W        W58994  25.381   7.091  15.962  0.1928  0.0018  0.3037
16057W        W58995  28.369   6.009  18.758  0.1377  0.2355 -0.1507
16058W        W58996  26.738   6.870  18.442 -0.1105  0.0126  0.1900
16059W        W58997  26.274   6.225  18.220 -0.0777  0.0709 -0.0063
16060W        W58998  27.482   5.933  17.545 -0.1661  0.0959  0.0002
16061W        W58999  26.215   7.214  16.541 -0.0068 -0.1908 -0.0169
16062W        W59000  27.980   7.126  18.181 -0.1451  0.0196  0.1848
16063W        W59001  26.000   6.020  19.154  0.0366  0.0098 -0.2918
16064W        W59002  26.420   6.524  16.836 -0.0184 -0.1877 -0.0350
16065W        W59003  28.028   4.708  19.209 -0.2618 -0.0425  0.0720
16066W        W59004  26.122   7.571  16.217 -0.1095  0.1234 -0.2959
16067W        W59005  28.685   5.452  16.859 -0.3027 -0.1538  0.1939
16068W        W59006  27.411   5.357  16.179 -0.1485 -0.1360  0.2608
16069W        W59007  27.533   5.054  16.538 -0.1014  0.0591  0.1930
16070W        W59008  26.343   3.700  17.273  0.1308 -0.1731 -0.0196
16071W        W59009  26.070   8.679  18.305 -0.2227  0.0204  0.2008
16072W        W59010  26.360   4.748  19.346  0.1867 -0.0553 -0.0395
16073W        W59011  27.656   6.996  19.860 -0.2208 -0.1068 -0.2949
16074W        W59012  26.972   7.450  17.842  0.0616 -0.0879  0.4065
16075W        W59013  27.099   4.212  17.437  0.0689  0.0392 -0.3061
16076W        W59014  27.170   7.127  18.660 -0.2097  0.0077 -0.1887
16077W        W59015  24.793   6.332  17.662 -0.1871 -0.1221 -0.3621
16078W        W59016  28.972   7.111  16.002  0.1766 -0.2327 -0.1468
16079W        W59017  28.543   7.028  18.278  0.1626  0.0510 -0.2513
16080W        W59018  27.714   7.763  16.491 -0.2820  0.0057  0.0071
16081W        W59019  24.202   5.502  17.033  0.0718  0.2088 -0.2788
16082W        W59020  25.465   6.746  18.169 -0.0827 -0.0288  0.0450
16083W        W59021  25.726   6.111  17.831 -0.0192 -0.0179  0.1107
16084W        W59022  28.346   5.061  16.698  0.1062  0.1148  0.4061
16085W        W59023  29.311   7.000  18.621  0.1528  0.1297 -0.2037
16086W        W59024  26.297   6.870  17.649 -0.1121 -0.0528  0.0622
16087W        W59025  28.785   3.568  17.000 -0.0414 -0.0009  0.2795
16088W        W59026  26.493   5.716  17.514  0.2041 -0.1557 -0.1035
16089W        W59027  27.156   7.954  17.983  0.0109  0.0639 -0.1687
16090W        W59028  28.931   7.144  16.536  0.1063 -0.0829  0.2203
16091W        W59029  28.966   4.385  17.541  0.1018  0.2139 -0.0490
16092W        W59030  27.653   3.330  18.682 -0.1868 -0.1763  0.2795
16093W        W59031  26.211   5.640  16.976  0.0028 -0.2035 -0.0288
16094W        W59032  26.638   6.479  17.403  0.0724  0.2229  0.2705
16095W        W59033  28.764   6.514  18.986 -0.0164  0.1699 -0.1035
16096W        W59034  28.975   6.054  17.302  0.1964  0.0650 -0.3041
16097W        W59035  26.299   8.194  17.703 -0.0107 -0.0422  0.1611
16098W        W59036  27.659   4.897  20.230  0.4861  0.1225 -0.0724
16099W        W59037  27.470   5.364  21.071  0.0545 -0.0485  0.2502
16100W        W59038  24.172   7.151  16.590 -0.2045 -0.0275 -0.0507
16101W        W59039  24.519   5.295  18.365  0.1599 -0.2837 -0.3005
16102W        W59040  25.037   5.683  17.688  0.0902  0.0904  0.1877
16103W        W59041  26.585   4.478  18.999  0.2781 -0.2161  0.0596
16104W        W59042  26.311   6.649  18.581 -0.1227  0.2170 -0.1483
16105W        W59043  28.727   2.993  17.130 -0.1907 -0.4152  0.5993
16106W        W59044  26.029   5.298  19.805 -0.2567 -0.0750 -0.0031
16107W        W59045  29.854   2.851  20.293 -0.1416 -0.0266  0.2884
16108W        W59046  26.922   6.281  16.719 -0.2114  0.0432 -0.2726
16109W        W59047  28.740   8.236  16.332  0.1303 -0.2643  0.0114
16110W        W59048  28.853   4.983  17.167 -0.1703 -0.1956  0.3228
16111W        W59049  28.133   7.649  15.695 -0.0943 -0.0668 -0.0415
16112W        W59050  25.673   5.057  20.033  0.2971 -0.2721 -0.0981
16113W        W59051  25.717   5.463  16.992 -0.2696  0.0100  0.0251
16114W        W59052  25.975   4.095  18.233 -0.0152  0.0925  0.0796
16115W        W59053  26.725   3.986  17.833 -0.2503 -0.1626  0.4365
16116W        W59054  27.962   5.185  19.456 -0.1064  0.2817  0.3354
16117W        W59055  25.286   3.425  17.979 -0.0042 -0.6626 -0.0239
16118W        W59056  27.982   5.548  18.108 -0.1447  0.0580  0.3686
16119W        W59057  27.803   5.147  17.441  0.0515  0.0193 -0.0257
16120W        W59058  26.242   5.212  17.240 -0.0118  0.4207  0.2174
16121W        W59059  27.514   4.532  19.426 -0.0003 -0.0066  0.0132
16122W        W59060  28.044   7.758  17.057  0.2004  0.1737 -0.0708
16123W        W59061  28.801   7.548  19.660 -0.1352 -0.2666 -0.0373
16124W        W59062  28.976   7.002  17.657 -0.2792  0.1664 -0.0114
16125W        W59063  26.472   6.138  19.355  0.2291  0.1048  0.1891
16126W        W59064  27.429   4.586  16.595  0.0609  0.1145  0.3676
16127W        W59065  25.402   8.128  18.125 -0.1653 -0.3155  0.2061
16128W        W59066  26.806   6.221  18.305 -0.2738 -0.0514 -0.0587
16129W        W59067  26.349   4.381  18.084  0.2878 -0.2816  0.4099
16130W        W59068  30.011   6.764  18.112  0.2680  0.1777 -0.0082
16131W        W59069  27.674   7.195  16.366 -0.1522 -0.0951  0.1514
16132W        W59070  26.503   6.643  18.054  0.1442 -0.0109  0.1737
16133W        W59071  28.384   4.164  18.951  0.2792  0.1159  0.0885
16134W        W59072  27.732   6.338  19.546  0.0406  0.1183 -0.0668
16135W        W59073  28.222   4.931  17.248 -0.1310  0.0718  0.0305
16136W        W59074  26.720   4.221  16.595 -0.1270 -0.2592  0.2020
16137W        W59075  27.146   7.041  16.420 -0.0114 -0.1642  0.0090
16138W        W59076  26.007   7.572  16.754 -0.0665 -0.4096 -0.2207
16139W        W59077  27.480   5.003  17.051  0.2845 -0.1338  0.0475
16140W        W59078  26.680   6.215  17.789 -0.1716 -0.0457  0.1603
16141W        W59079  27.802   4.328  18.202  0.0279  0.0900  0.1947
16142W        W59080  26.737   5.943  19.734  0.2152 -0.0142  0.0454
16143W        W59081  26.981   4.969  18.822 -0.1325  0.1345 -0.1506
16144W        W59082  27.842   5.953  17.829 -0.1866  0.1112 -0.2712
16145W        W59083  26.174   7.057  18.086  0.0045 -0.1134  0.1428
16146W        W59084  28.833   4.345  16.040  0.0504  0.0045  0.2558
16147W        W59085  29.793   4.209  16.113  0.1708 -0.1460 -0.1903
16148W        W59086  26.860   4.854  20.143 -0.1003  0.0090 -0.0129
16149W        W59087  28.019   6.120  17.387 -0.0632 -0.0892  0.1077
16150W        W59088  27.317   5.733  17.092 -0.4229 -0.0449  0.1271
16151W        W59089  28.328   4.475  15.861  0.1739  0.3856 -0.0375
16152W        W59090  26.659   6.164  20.230 -0.0676 -0.1669 -0.1885
16153W        W59091  25.881   5.821  17.331  0.3398  0.4546 -0.2998
16154W        W59092  27.195   6.564  18.419  0.1038  0.0672 -0.2638
16155W        W59093  28.088   4.350  17.119  0.0313 -0.1577 -0.1138
16156W        W59094  29.233   6.858  16.992 -0.0043 -0.1568  0.1765
16157W        W59095  24.561   5.697  18.719  0.0624  0.0656  0.2164
16158W        W59096  26.720   5.054  19.217 -0.0680 -0.0883  0.0978
16159W        W59097  27.429   6.042  16.653  0.0865 -0.1999  0.2416
16160W        W59098  27.287   2.857  18.659 -0.1199 -0.0890  0.4641
16161W        W59099  27.877   6.379  16.188  0.0357 -0.1493  0.3941
16162W        W59100  27.805   3.582  16.689  0.1700 -0.1162  0.1624
16163W        W59101  25.459   7.530  16.162 -0.0408  0.2369  0.0316
16164W        W59102  28.384   3.007  17.549 -0.1004  0.0763  0.0477
16165W        W59103  28.078   3.539  18.420 -0.1332 -0.1926  0.0360
16166W        W59104  28.017   3.733  19.384  0.0391  0.1635  0.3947
16167W        W59105  29.093   4.814  19.960  0.1377 -0.0447 -0.0099
16168W        W59106  27.921   4.779  16.847 -0.1954  0.2197  0.0758
16169W        W59107  27.489   5.077  18.106  0.1467  0.3850  0.2649
16170W        W59108  26.369   5.683  15.845 -0.0220 -0.0346  0.0732
16171W        W59109  27.116   3.226  19.899  0.1949  0.2359  0.0451
16172W        W59110  25.695   6.316  17.383 -0.1133  0.0158  0.0124
16173W        W59111  25.377   8.007  20.364  0.1173  0.2504  0.2143
16174W        W59112  27.254   7.054  19.216 -0.1597 -0.1948  0.1629
16175W        W59113  28.670   5.893  17.855 -0.4023 -0.0988  0.0517
16176W        W59114  27.290   4.119  20.100  0.2282  0.0555  0.0575
16177W        W59115  29.333   4.318  16.155 -0.0060  0.2134  0.0252
16178W        W59116  26.514   8.549  17.965 -0.3083  0.1274  0.0543
16179W        W59117  27.417   6.271  15.912 -0.1557  0.1563  0.1608
16180W        W59118  27.286   4.706  18.389  0.0643 -0.2130  0.1371
16181W        W59119  27.115   8.288  19.069  0.1649  0.1025 -0.0655
16182W        W59120  26.363   6.095  16.642  0.0871  0.0642  0.2326
16183W        W59121  27.593   4.920  19.720 -0.1969 -0.1570 -0.2313
16184W        W59122  25.912   7.282  17.585 -0.5289 -0.2972 -0.4563
16185W        W59123  29.285   3.888  18.806  0.1256 -0.1677 -0.1903
16186W        W59124  25.097   7.050  17.418 -0.2223  0.2465  0.1065
16187W        W59125  27.647   5.921  16.181 -0.2234  0.0460  0.0875
16188W        W59126  24.199   4.161  18.450  0.3439 -0.1281 -0.1892
16189W        W59127  27.407   2.946  18.128  0.0363 -0.0335  0.1709
16190W        W59128  28.935   5.031  16.619  0.1856 -0.1014  0.0300
16191W        W59129  25.420   3.838  18.242  0.1841  0.0336 -0.2620
16192W        W59130  27.183   3.410  18.864 -0.2460 -0.2306  0.1722
16193W        W59131  26.110   6.567  17.268 -0.0802 -0.0759 -0.2123
16194W        W59132  27.823   5.669  17.212  0.0695  0.0152 -0.1757
16195W        W59133  28.485   4.077  17.498  0.0258 -0.1150  0.2813
16196W        W59134  28.902   7.118  19.173 -0.2257  0.3044  0.0374
16197W        W59135  27.331   6.535  19.194  0.2474 -0.1158 -0.2451
16198W        W59136  26.021   4.843  16.431  0.4360 -0.0858  0.1458
16199W        W59137  27.346   6.331  20.388  0.1215  0.3644 -0.1599
16200W        W59138  27.201   3.908  18.629 -0.1384  0.1297 -0.0141
16201W        W59139  24.594   6.471  17.123  0.0539  0.0704  0.2239
16202W        W59140  27.635   7.277  18.869 -0.2590 -0.1656 -0.0014
16203W        W59141  27.007   5.205  16.772 -0.0943 -0.1989  0.0794
16204W        W59142  25.003   5.812  18.300 -0.1198  0.2476  0.3000
16205W        W59143  27.164   5.348  19.221  0.1499  0.1871  0.1677
16206W        W59144  28.825   6.226  20.034  0.2627  0.0930 -0.0750
16207W        W59145  27.322   5.748  18.999  0.2404 -0.0256 -0.0968
16208W        W59146  27.202   4.353  17.879  0.2676  0.1266 -0.0976
16209W        W59147  26.613   4.859  17.140 -0.0702 -0.2199  0.0474
16210W        W59148  27.398   4.859  17.562  0.1398 -0.1222  0.0066
16211W        W59149  27.128   4.966  19.545 -0.3231 -0.0962  0.1342
16212W        W59150  25.376   7.525  20.507 -0.0857  0.0999 -0.1312
16213W        W59151  26.494   3.950  18.322  0.0773  0.3206 -0.2176
16214W        W59152  29.086   7.707  18.091  0.2289  0.0796  0.1264
16215W        W59153  27.038   4.597  19.158 -0.4175  0.0517  0.0098
16216W        W59154  26.653   5.430  17.095  0.1767  0.1995 -0.2403
16217W        W59155  26.301   5.677  19.555  0.0020  0.1094 -0.2202
16218W        W59156  26.825   7.248  16.820 -0.0495  0.2708  0.0537
16219W        W59157  28.271   4.610  18.756  0.0846  0.0555 -0.0342
16220W        W59158  25.012   6.985  17.896  0.3472  0.2140 -0.0694
16221W        W59159  26.775   5.921  17.067  0.1323  0.0018  0.2183
16222W        W59160  25.939   6.872  19.406  0.0174 -0.2951 -0.1842
16223W        W59161  28.687   4.614  17.904  0.5677  0.1507  0.3380
16224W        W59162  28.271   6.339  16.996 -0.1431  0.1602 -0.0102
16225W        W59163  27.847   2.516  16.434 -0.0494 -0.0708  0.1944
16226W        W59164  29.277   5.486  21.564 -0.0186  0.1668  0.0044
16227W        W59165  28.072   6.866  16.381  0.2198  0.2868  0.0740
16228W        W59166  27.481   3.897  20.638 -0.1853  0.1402 -0.0719
16229W        W59167  25.512   4.275  18.018 -0.1118  0.0118  0.0891
16230W        W59168  28.528   6.791  17.851  0.0338  0.1232  0.0592
16231W        W59169  25.606   4.199  18.564 -0.2873 -0.1268 -0.0569
16232W        W59170  27.923   7.973  20.339  0.2654 -0.0509 -0.2433
16233W        W59171  26.466   6.912  18.974  0.1623  0.1768  0.0726
16234W        W59172  26.541   3.800  16.821  0.1004  0.2654  0.0560
16235W        W59173  27.961   4.323  16.636  0.2064 -0.1150 -0.1486
16236W        W59174  26.781   5.926  18.749  0.1261 -0.0501 -0.1060
16237W        W59175  28.183   6.598  18.164 -0.3155 -0.0860 -0.1412
16238W        W59176  26.480   6.966  17.043  0.0455 -0.0240  0.0587
16239W        W59177  27.954   3.382  17.103 -0.0830 -0.3209 -0.0934
16240W        W59178  27.593   6.180  18.315  0.2542  0.2608 -0.1866
16241W        W59179  27.776   4.747  17.854  0.1569  0.2272  0.1679
16242W        W59180  28.701   5.353  16.348  0.0677  0.1108  0.0282
16243W        W59181  25.044   6.568  18.256 -0.0676 -0.1005  0.1704
16244W        W59182  27.234   5.108  20.011 -0.2187 -0.1509 -0.1655
16245W        W59183  26.964   6.591  17.964  0.0952  0.2510  0.1042
16246W        W59184  28.423   5.399  17.302 -0.1397 -0.0326 -0.2776
16247W        W59185  27.105   5.893  19.475 -0.0562  0.1307  0.2676
16248W        W59186  28.546   6.590  19.607 -0.1853 -0.0779  0.2894
16249W        W59187  26.958   5.402  19.750 -0.1405 -0.1338 -0.0536
16250W        W59188  25.309   3.050  19.621 -0.1545 -0.3027  0.0299
16251W        W59189  27.555   7.145  18.401 -0.2126 -0.0053  0.1222
16252W        W59190  29.220   5.313  16.263  0.0433 -0.0501  0.2177
16253W        W59191  28.103   6.116  18.231  0.0599  0.3203  0.0208
16254W        W59192  29.759   5.088  17.352  0.2625  0.1228 -0.2152
16255W        W59193  27.723   6.895  16.843  0.0278 -0.0428 -0.1352
16256W        W59194  25.571   5.566  17.861  0.1831 -0.0596 -0.3537
16257W        W59195  27.123   4.899  20.542 -0.0449 -0.3970  0.4035
16258W        W59196  27.975   3.871  17.174 -0.0454  0.0613 -0.0776
16259W        W59197  27.711   5.407  19.063 -0.1059 -0.0350 -0.0402
16260W        W59198  27.650   8.388  15.850  0.2104  0.0246 -0.0942
16261W        W59199  26.872   4.628  17.607 -0.2422  0.1314 -0.1153
16262W        W59200  29.388   4.230  17.089  0.1161  0.0494 -0.2531
16263W        W59201  25.454   2.953  17.906  0.0937 -0.1069  0.1966
16264W        W59202  27.132   7.075  18.111  0.0032  0.1273  0.0338
16265W        W59203  27.409   5.415  17.583  0.5878 -0.1438  0.2882
16266W        W59204  26.663   6.810  16.504  0.0690 -0.0241  0.1151
16267W        W59205  27.714   6.665  18.330 -0.1609  0.0586 -0.1956
16268W        W59206  28.194   6.131  19.701 -0.1583  0.0970 -0.0427
16269W        W59207  28.488   2.555  17.276  0.2476  0.0312  0.1737
16270W        W59208  29.202   3.773  18.313 -0.2545 -0.2577 -0.1383
16271W        W59209  25.905   6.192  16.895  0.0961  0.2179 -0.1192
16272W        W59210  28.532   3.783  18.509  0.3808 -0.0067 -0.0275
16273W        W59211  26.903   7.240  17.303 -0.2028 -0.1151 -0.1553
16274W        W59212  26.372   5.074  18.753  0.1501 -0.1607  0.2519
16275W        W59213  25.878   5.951  18.323 -0.1127 -0.2177  0.2824
16276W        W59214  27.640   3.635  19.037  0.2447  0.1674  0.3341
16277W        W59215  28.593   5.729  19.700 -0.0478 -0.1623 -0.0618
16278W        W59216  26.934   5.150  17.400 -0.1669 -0.1952  0.1476
16279W        W59217  28.987   4.355  19.639  0.0247 -0.1516  0.3147
16280W        W59218  28.315   6.227  17.815  0.1949  0.0793  0.0246
16281W        W59219  27.101   5.710  18.383 -0.0538 -0.0630 -0.0243
16282W        W59220  27.897   6.348  18.701  0.2213  0.1213  0.0472
16283W        W59221  28.474   6.007  17.395 -0.0662 -0.0979 -0.1101
16284W        W59222  25.743   7.219  18.254  0.0688 -0.1086 -0.0047
16285W        W59223  25.928   4.590  18.778  0.3622 -0.1216  0.1815
16286W        W59224  26.868   5.422  20.378  0.2247  0.0335 -0.2929
16287W        W59225  26.809   6.992  17.783 -0.1943 -0.0718 -0.2318
16288W        W59226  27.171   4.147  16.814  0.0491  0.0435  0.0630
16289W        W59227  28.307   6.431  16.493 -0.3865  0.2129 -0.3160
16290W        W59228  26.733   8.455  21.276  0.0631 -0.0378 -0.1293
16291W        W59229  25.290   6.090  17.509  0.0503 -0.0345 -0.2141
16292W        W59230  25.652   6.664  16.303  0.3028 -0.0297 -0.0464
16293W        W59231  28.267   5.555  16.581 -0.0548 -0.0986 -0.1619
16294W        W59232  27.956   7.363  16.745  0.2342  0.1979 -0.0216
16295W        W59233  27.317   7.255  17.605  0.0452  0.1957 -0.0502
16296W        W59234  26.966   4.378  18.729 -0.2102 -0.0610  0.1691
16297W        W59235  25.973   6.899  16.906 -0.0360  0.0253 -0.1437
16298W        W59236  26.141   6.709  16.421  0.2332  0.0639  0.0641
16299W        W59237  28.487   7.509  16.926  0.0672 -0.2389 -0.3419
16300W        W59238  26.180   6.290  17.709  0.1422 -0.0909  0.1505
16301W        W59239  28.683   7.079  19.704 -0.0966  0.0056 -0.0124
16302W        W59240  27.737   1.773  16.980  0.0488 -0.0886 -0.1731
16303W        W59241  28.983   5.513  18.092 -0.2946 -0.0605  0.0746
16304W        W59242  28.926   4.189  16.910  0.0438  0.2320  0.3329
16305W        W59243  27.585   7.263  20.809  0.0965 -0.3213 -0.0747
16306W        W59244  27.775   6.010  19.060 -0.1507 -0.0340 -0.1722
16307W        W59245  26.426   4.318  17.541  0.2744  0.1050 -0.2444
16308W        W59246  26.278   6.064  19.865  0.0810 -0.1828  0.0425
16309W        W59247  27.779   4.265  19.019  0.0911  0.2218 -0.2107
16310W        W59248  24.662   7.502  19.346  0.1531  0.1498 -0.0524
16311W        W59249  28.128   7.216  17.181  0.2600  0.0989  0.2247
16312W        W59250  26.767   4.972  17.917  0.1289 -0.0986  0.0809
16313W        W59251  24.939   5.334  18.048  0.3011  0.0611 -0.1202
16314W        W59252  28.916   4.882  19.481  0.2430  0.1147  0.2316
16315W        W59253  27.891   6.449  16.740 -0.3906  0.1921 -0.0388
16316W        W59254  28.554   7.112  17.427  0.1085 -0.1360 -0.2788
16317W        W59255  26.691   8.401  16.402 -0.3847  0.2978  0.1072
16318W        W59256  26.416   7.340  17.603 -0.2945  0.3598  0.1412
16319W        W59257  26.820   6.697  19.377 -0.0720  0.0995  0.1107
16320W        W59258  26.475   5.335  17.825  0.1039  0.1457  0.1537
16321W        W59259  28.810   3.503  18.182  0.1404 -0.2208  0.2690
16322W        W59260  26.402   5.702  19.004 -0.1343  0.2073  0.0129
16323W        W59261  28.740   3.948  17.948  0.3132 -0.1315  0.4439
16324W        W59262  26.997   5.458  17.895  0.1041 -0.4015 -0.0801
16325W        W59263  28.184   4.157  18.455  0.2860  0.0914  0.0479
16326W        W59264  28.198   6.417  19.163  0.4524  0.1648  0.0360
16327W        W59265  26.532   5.138  19.700  0.1923  0.1907 -0.0031
16328W        W59266  27.131   6.667  15.716 -0.1187  0.3471 -0.1089
16329W        W59267  29.432   6.168  19.760 -0.2920  0.0711  0.5324
16330W        W59268  27.925   5.508  16.010 -0.2236  0.2684  0.0547
16331W        W59269  27.395   7.967  19.329 -0.1462 -0.0333 -0.3517
16332W        W59270  25.850   4.562  18.240  0.1859  0.3821  0.3625
16333W        W59271  28.247   4.563  17.652 -0.2004 -0.3234 -0.1015
16334W        W59272  26.820   5.426  18.758  0.1916  0.1041  0.0241
16335W        W59273  26.861   7.981  18.738 -0.2679 -0.0616  0.3461
16336W        W59274  27.587   7.468  19.433  0.2399  0.1342 -0.0303
16337W        W59275  26.006   3.717  16.829  0.0430  0.0774  0.1918
16338W        W59276  28.420   7.142  16.573  0.1420  0.0768  0.2096
16339W        W59277  27.691   5.712  18.550 -0.0139 -0.0029  0.4115
16340W        W59278  27.143   6.055  16.278  0.0256 -0.1303 -0.0555
16341W        W59279  28.533   4.750  16.224  0.0765  0.1416 -0.0408
16342W        W59280  28.070   7.043  17.693 -0.1710 -0.1849 -0.3258
16343W        W59281  25.847   4.971  17.446 -0.2363  0.1479  0.0241
16344W        W59282  26.886   8.214  18.243  0.5068 -0.1483  0.1391
16345W        W59283  28.337   7.247  18.820  0.1387  0.1922  0.1958
16346W        W59284  28.347   2.199  17.586 -0.1386 -0.0996  0.1024
16347W        W59285  25.912   4.416  16.782  0.0546  0.2722 -0.0565
16348W        W59286  24.310   6.947  16.994  0.1497  0.1498  0.0027
16349W        W59287  28.087   5.549  17.613  0.1394  0.0574  0.0423
16350W        W59288  27.534   4.726  18.969 -0.0279  0.0808  0.1153
16351W        W59289  27.834   6.547  17.247 -0.2711 -0.1576 -0.0798
16352W        W59290  29.051   4.397  20.789  0.1141  0.0241 -0.0095
16353W        W59291  26.390   6.960  19.484  0.0595 -0.0346 -0.2475
16354W        W59292  25.687   7.108  20.573 -0.1451 -0.1973  0.0766
16355W        W59293  27.670   5.620  16.588 -0.0232 -0.3329  0.1866
16356W        W59294  28.217   4.707  20.336 -0.0226 -0.1785  0.0915
16357W        W59295  26.617   5.764  18.108 -0.4917 -0.1164  0.1063
16358W        W59296  27.683   6.989  17.356 -0.1123  0.0017 -0.0641
16359W        W59297  27.353   8.038  18.659 -0.0678  0.1985 -0.0800
16360W        W59298  27.935   5.282  16.917  0.0498 -0.2248  0.1845
16361W        W59299  28.348   6.551  18.699 -0.0496  0.0813  0.2228
16362W        W59300  26.970   3.755  18.157 -0.0565  0.0020 -0.1119
16363W        W59301  28.257   4.612  18.238  0.1738  0.0658  0.1502
16364W        W59302  28.797   3.075  17.918 -0.0880 -0.0704  0.0721
16365W        W59303  27.035   5.187  18.345 -0.0572  0.0703  0.3647
16366W        W59304  25.968   4.099  17.452 -0.0057  0.1913 -0.0111
16367W        W59305  25.181   6.773  16.397  0.1266 -0.2852  0.1509
16368W        W59306  26.325   6.109  17.265  0.0277 -0.1255  0.6331
16369W        W59307  27.682   3.457  20.772  0.0502  0.0238  0.4108
16370W        W59308  25.329   6.330  20.444 -0.1839 -0.3857  0.1749
16371W        W59309  24.617   5.763  17.970 -0.0427  0.0855 -0.0883
16372W        W59310  26.181   3.891  17.823  0.1129 -0.0567 -0.0187
16373W        W59311  28.472   5.464  18.031  0.1144 -0.0717  0.0789
16374W        W59312  26.639   6.368  18.850 -0.3417  0.1571 -0.2186
16375W        W59313  26.191   4.135  17.024 -0.0231 -0.0211  0.0366
16376W        W59314  28.143   7.486  16.259 -0.2528  0.2494 -0.2188
16377W        W59315  28.939   6.570  17.248  0.0580 -0.2831  0.1188
16378W        W59316  26.795   4.363  18.223  0.0708 -0.2075 -0.1177
16379W        W59317  27.524   6.760  18.808 -0.1678  0.1665  0.0172
16380W        W59318  26.171   5.759  16.327  0.0349 -0.0885 -0.1551
16381W        W59319  28.009   4.211  19.463  0.0009  0.0908 -0.0101
16382W        W59320  26.024   4.781  19.748  0.2183  0.1586  0.0737
16383W        W59321  26.935   4.735  16.659  0.0345 -0.2718  0.2566
16384W        W59322  28.281   5.839  17.018  0.0586  0.2341  0.1692
16385W        W59323  26.652   5.914  16.292  0.2713  0.0145  0.1034
16386W        W59324  28.317   7.588  17.523 -0.1201 -0.1055  0.0317
16387W        W59325  25.510   6.743  18.668 -0.1421 -0.0339 -0.0767
16388W        W59326  26.389   6.519  19.684 -0.1291 -0.3189 -0.3396
16389W        W59327  25.646   3.806  17.800 -0.0537 -0.2409  0.1367
16390W        W59328  26.938   6.742  17.003 -0.0510  0.0170  0.1887
16391W        W59329  28.781   6.932  18.736 -0.1250 -0.0756 -0.0462
16392W        W59330  28.036   5.944  16.538 -0.2798 -0.3075  0.0572
16393W        W59331  28.208   4.150  17.964  0.0831 -0.1812 -0.1561
16394W        W59332  27.658   4.040  16.806  0.2025 -0.1185 -0.0995
16395W        W59333  26.540   4.153  20.395  0.0532  0.2327 -0.0986
16396W        W59334  26.013   7.283  19.601 -0.2431  0.1194 -0.0947
16397W        W59335  28.996   6.216  19.542  0.0879 -0.1410 -0.2498
16398W        W59336  27.005   3.621  16.969 -0.0718 -0.0702 -0.0538
16399W        W59337  27.791   5.204  18.493 -0.0710 -0.0725 -0.0289
16400W        W59338  27.306   7.120  17.037  0.1587 -0.0462  0.0121
16401W        W59339  25.947   5.039  18.477 -0.0016  0.0217  0.0938
16402W        W59340  26.386   4.573  16.795  0.1015  0.0869  0.0338
16403W        W59341  26.730   5.569  19.328 -0.0861 -0.3832 -0.0146
16404W        W59342  27.541   6.939  17.904  0.0444 -0.1079  0.0676
16405W        W59343  27.847   6.595  20.542 -0.1596  0.2634 -0.1785
16406W        W59344  27.379   6.524  16.898  0.1928  0.0824 -0.0410
16407W        W59345  29.570   6.450  17.071 -0.1276 -0.2665 -0.0373
16408W        W59346  26.952   8.158  19.523 -0.0503  0.0373 -0.2374
16409W        W59347  29.866   7.786  19.220 -0.0053  0.1735 -0.0805
16410W        W59348  27.341   6.191  18.722 -0.2530  0.2741 -0.1803
16411W        W59349  29.198   6.444  20.401  0.1207 -0.0111  0.2163
16412W        W59350  26.808   3.062  18.825 -0.1539 -0.1248 -0.1846
16413W        W59351  27.559   6.714  16.427 -0.3144  0.4029 -0.1977
16414W        W59352  27.254   6.747  17.487  0.1018  0.0980  0.1840
16415W        W59353  27.074   5.936  17.876 -0.1967  0.0769 -0.1504
16416W        W59354  26.537   5.282  18.355  0.1863  0.0494 -0.1572
16417W        W59355  27.816   4.671  17.365 -0.1465 -0.3988 -0.0597
16418W        W59356  26.121   6.554  19.085 -0.1554  0.0374 -0.0348
16419W        W59357  28.597   6.263  18.279  0.3174 -0.3130 -0.0123
16420W        W59358  26.347   6.819  22.171  0.0520 -0.0526 -0.0427
16421W        W59359  27.595   5.889  21.321 -0.0638  0.2658 -0.0137
16422W        W59360  29.402   5.275  21.032  0.0406  0.1139  0.2353
16423W        W59361  28.612   6.352  21.184  0.1012 -0.1560 -0.1035
16424W        W59362  25.600   5.324  20.449 -0.0733  0.0650 -0.2327
16425W        W59363  28.526   7.941  22.629  0.2683  0.1336 -0.0299
16426W        W59364  25.984   4.184  23.238  0.0766 -0.2575 -0.1293
16427W        W59365  28.813   6.815  23.503 -0.2949  0.1417  0.0204
16428W        W59366  28.143   7.565  23.313 -0.2632  0.1523 -0.0397
16429W        W59367  27.642   5.407  19.849 -0.3137 -0.1626  0.3063
16430W        W59368  27.746   3.560  23.374 -0.1829  0.2329 -0.2403
16431W        W59369  28.261   7.099  23.003 -0.0252  0.2117  0.0446
16432W        W59370  27.608   3.841  21.075 -0.1592  0.2193  0.0727
16433W        W59371  25.881   3.553  22.025  0.3289  0.0068  0.1144
16434W        W59372  28.488   5.387  21.613  0.0877  0.3069  0.0083
16435W        W59373  25.654   5.502  22.222 -0.3583  0.1433  0.1311
16436W        W59374  25.894   4.775  21.231  0.0026  0.1701 -0.1314
16437W        W59375  26.342   5.777  21.729 -0.3569  0.5457  0.1016
16438W        W59376  27.465   6.381  21.910  0.0527  0.3001 -0.4653
16439W        W59377  26.407   3.627  23.327  0.2769 -0.3455  0.1288
16440W        W59378  27.864   3.932  21.954  0.1205 -0.0160  0.2249
16441W        W59379  28.100   6.613  21.023 -0.4434 -0.1737  0.3387
16442W        W59380  25.146   5.109  20.435 -0.0606  0.2956  0.1053
16443W        W59381  25.643   6.701  21.569  0.0409 -0.2354  0.1673
16444W        W59382  26.181   5.438  22.098 -0.2166  0.0732  0.4235
16445W        W59383  28.984   6.360  20.837 -0.3011  0.0288  0.0547
16446W        W59384  29.853   3.607  23.091  0.1317 -0.1913  0.2378
16447W        W59385  28.027   7.089  22.515  0.0403 -0.1349  0.1478
16448W        W59386  26.767   6.816  22.481 -0.0317 -0.1122 -0.1138
16449W        W59387  28.529   4.231  23.574  0.2682  0.0375  0.2111
16450W        W59388  25.977   6.369  22.216  0.0950  0.0393  0.0572
16451W        W59389  24.030   7.137  20.439  0.2713 -0.0851 -0.3794
16452W        W59390  26.628   5.994  20.785  0.2303  0.1768  0.1354
16453W        W59391  28.965   6.846  20.487  0.3470  0.2900 -0.1308
16454W        W59392  28.443   6.455  23.322 -0.0623  0.2319  0.1749
16455W        W59393  28.181   8.273  24.691 -0.0125  0.0034 -0.1175
16456W        W59394  26.053   7.310  19.095  0.1956  0.0014  0.0598
16457W        W59395  27.437   7.798  23.674  0.0743  0.1183  0.0351
16458W        W59396  26.520   7.227  22.770 -0.0721  0.1595  0.1149
16459W        W59397  27.233   6.742  22.717 -0.2202  0.1061  0.0969
16460W        W59398  27.953   5.765  21.652 -0.1873  0.0404  0.1501
16461W        W59399  27.952   7.601  20.815  0.2792 -0.0795  0.3018
16462W        W59400  27.724   7.271  22.106 -0.0294  0.0271  0.0133
16463W        W59401  27.697   5.423  23.100  0.1677 -0.1988 -0.3644
16464W        W59402  25.031   5.967  21.349  0.2399 -0.0481  0.1782
16465W        W59403  29.232   3.887  24.194 -0.0868  0.2061  0.0507
16466W        W59404  26.585   7.946  19.781  0.0313  0.1417 -0.1278
16467W        W59405  29.072   5.354  20.231  0.0102  0.0104  0.0339
16468W        W59406  26.964   3.773  19.997 -0.1295 -0.0913 -0.1830
16469W        W59407  27.247   4.441  21.195 -0.3582 -0.0266 -0.2094
16470W        W59408  26.565   2.816  22.329  0.1263  0.3362  0.1785
16471W        W59409  26.705   6.659  21.486 -0.0566  0.1876  0.3038
16472W        W59410  26.464   3.487  22.732  0.0069 -0.0298  0.2504
16473W        W59411  27.967   4.294  23.706 -0.0800 -0.3900 -0.3257
16474W        W59412  26.855   6.472  20.621 -0.0122 -0.1222  0.0173
16475W        W59413  27.371   5.819  21.755 -0.0719  0.3156 -0.2560
16476W        W59414  26.247   6.816  22.722  0.0541  0.1163 -0.0107
16477W        W59415  25.635   4.623  21.717  0.1234 -0.2143 -0.0056
16478W        W59416  28.229   7.328  19.684  0.0433  0.0045 -0.1409
16479W        W59417  28.131   6.110  20.710 -0.1814 -0.2062  0.1329
16480W        W59418  27.556   6.799  21.059 -0.1458  0.0148 -0.0937
16481W        W59419  25.570   4.964  20.824 -0.1732  0.1392 -0.0358
16482W        W59420  25.654   6.509  22.618 -0.0403 -0.1899 -0.1489
16483W        W59421  26.837   7.094  21.752 -0.1022 -0.0599 -0.3976
16484W        W59422  25.860   4.186  19.697 -0.1192  0.2279 -0.1351
16485W        W59423  28.904   4.288  24.058 -0.0757  0.0531 -0.3402
16486W        W59424  24.762   6.555  24.187  0.1653  0.0135  0.1665
16487W        W59425  29.896   4.133  20.359 -0.0656  0.3165  0.0539
16488W        W59426  25.226   4.939  21.177 -0.1713  0.2011 -0.0815
16489W        W59427  29.034   6.129  21.392  0.0011  0.1847  0.4399
16490W        W59428  28.144   5.618  19.712  0.0851 -0.0035 -0.0887
16491W        W59429  28.238   3.506  21.666 -0.1081  0.1018  0.0645
16492W        W59430  28.542   5.047  22.112 -0.0177 -0.0688  0.1719
16493W        W59431  25.074   5.639  19.359  0.2292 -0.1501  0.0767
16494W        W59432  27.558   7.119  20.318  0.0436 -0.0352 -0.1707
16495W        W59433  27.844   6.713  23.913  0.1724 -0.3318  0.2242
16496W        W59434  28.381   6.005  20.182  0.0995 -0.2123 -0.0830
16497W        W59435  27.521   7.219  22.555  0.0366 -0.0630 -0.0947
16498W        W59436  27.352   5.834  23.030 -0.0704 -0.0824 -0.0312
16499W        W59437  26.915   6.322  22.489 -0.1283  0.1060 -0.1417
16500W        W59438  26.071   8.014  19.856 -0.1115  0.0674  0.0670
16501W        W59439  25.145   6.591  19.947  0.0761 -0.1446  0.4151
16502W        W59440  27.211   6.837  20.139 -0.3391 -0.2965 -0.0028
16503W        W59441  25.246   3.800  21.655  0.2671  0.2061  0.1159
16504W        W59442  27.658   6.252  22.909 -0.0562 -0.0692  0.0392
16505W        W59443  29.573   4.445  20.631 -0.0935 -0.2255 -0.1252
16506W        W59444  24.953   3.352  21.617 -0.0371  0.1123 -0.1149
16507W        W59445  28.039   4.271  21.590 -0.0993  0.0559 -0.0286
16508W        W59446  26.334   6.396  20.878 -0.1930 -0.1649  0.2276
16509W        W59447  30.177   6.607  21.227 -0.2261  0.1028 -0.0725
16510W        W59448  28.783   5.424  20.719 -0.2416 -0.1830  0.3382
16511W        W59449  28.240   6.891  20.564  0.0852  0.2702 -0.0682
16512W        W59450  25.888   5.242  22.633  0.1636 -0.1124  0.2246
16513W        W59451  26.154   4.411  21.821  0.0898 -0.0420 -0.2653
16514W        W59452  27.095   3.148  23.125  0.0191 -0.1979  0.0424
16515W        W59453  25.932   3.839  23.631 -0.0244  0.1709 -0.3011
16516W        W59454  28.590   6.110  22.691 -0.1688 -0.2362 -0.1904
16517W        W59455  24.131   4.258  20.525  0.1932  0.3109  0.3977
16518W        W59456  28.884   4.236  22.064 -0.1466  0.0808  0.0430
16519W        W59457  27.702   5.615  22.018 -0.0757  0.1777  0.2228
16520W        W59458  25.313   6.094  19.747  0.1503 -0.0875 -0.2991
16521W        W59459  28.879   3.550  24.667 -0.1001  0.1301  0.0871
16522W        W59460  26.375   6.113  21.345 -0.2257 -0.0021  0.0188
16523W        W59461  28.652   8.021  23.498  0.0682 -0.1344  0.1335
16524W        W59462  28.184   6.889  23.483  0.2741 -0.1384  0.1339
16525W        W59463  27.008   4.161  24.284 -0.0186  0.7361  0.0181
16526W        W59464  25.523   5.497  19.796 -0.0800 -0.1452 -0.2413
16527W        W59465  26.200   7.292  20.922 -0.1304 -0.1901 -0.1093
16528W        W59466  25.794   4.591  19.332  0.0481  0.3003 -0.1709
16529W        W59467  25.968   4.485  20.171 -0.0510  0.4327  0.0267
16530W        W59468  28.831   6.494  22.425  0.1440 -0.4328 -0.0046
16531W        W59469  26.813   5.215  20.909 -0.1506  0.1072 -0.3178
16532W        W59470  26.389   4.480  22.896 -0.2218 -0.0430 -0.4602
16533W        W59471  26.671   4.109  23.035 -0.3386  0.1127 -0.3884
16534W        W59472  28.866   5.647  22.862  0.0411 -0.2377  0.0139
16535W        W59473  27.197   5.193  21.810  0.1734  0.0572 -0.1280
16536W        W59474  25.287   4.161  19.480 -0.1852 -0.0719  0.1684
16537W        W59475  27.817   6.075  22.005  0.1637  0.2189  0.1232
16538W        W59476  26.730   7.874  21.455 -0.0320 -0.3548 -0.1992
16539W        W59477  25.408   8.237  21.778  0.1906  0.0502  0.3442
16540W        W59478  27.852   7.497  22.825 -0.2474 -0.2836  0.0226
16541W        W59479  29.928   4.314  21.938 -0.0182 -0.2770  0.0150
16542W        W59480  24.033   4.585  22.526 -0.2468 -0.1491 -0.3046
16543W        W59481  27.347   5.029  22.384  0.3169  0.1893  0.0133
16544W        W59482  26.516   5.503  19.994  0.3476  0.1618  0.0818
16545W        W59483  24.853   5.748  23.375 -0.0922  0.0062  0.0432
16546W        W59484  27.844   5.273  20.730  0.1541  0.1029 -0.0665
16547W        W59485  28.947   4.994  20.904 -0.1119  0.2383 -0.0693
16548W        W59486  28.013   5.234  23.688  0.3865  0.0856 -0.3453
16549W        W59487  28.097   7.220  21.478 -0.1167  0.3975 -0.3603
16550W        W59488  28.571   4.410  21.528 -0.0982 -0.2052  0.0512
16551W        W59489  28.612   4.587  20.930 -0.5115 -0.3034  0.2902
16552W        W59490  26.598   5.921  22.182 -0.3653 -0.0496 -0.1709
16553W        W59491  27.823   7.421  23.662  0.0182 -0.2399  0.0610
16554W        W59492  28.565   5.899  23.491 -0.0052 -0.1886 -0.2578
16555W        W59493  26.572   3.101  19.996 -0.1961 -0.1091  0.1583
16556W        W59494  28.997   7.277  20.236  0.2607 -0.1761 -0.0294
16557W        W59495  26.424   6.421  21.914 -0.0598  0.1360  0.1207
16558W        W59496  27.591   6.140  24.410 -0.1295  0.2633  0.1690
16559W        W59497  28.090   5.817  22.322 -0.1176  0.0745  0.0925
16560W        W59498  27.367   1.910  22.455 -0.0909 -0.0064 -0.1725
16561W        W59499  26.168   5.167  20.309 -0.0090 -0.0932  0.0161
16562W        W59500  26.796   4.939  21.367 -0.2268 -0.1824 -0.1907
16563W        W59501  25.878   5.927  21.428  0.2527  0.1635  0.1959
16564W        W59502  27.594   4.508  22.035  0.0220  0.2022  0.2308
16565W        W59503  27.034   3.846  21.508 -0.2354 -0.0896  0.3776
16566W        W59504  27.164   2.610  23.381  0.1764  0.1174  0.0241
16567W        W59505  28.395   5.296  24.074 -0.5789 -0.0025 -0.2186
16568W        W59506  29.956   4.101  21.396  0.2181  0.1215  0.0164
16569W        W59507  29.010   5.243  21.871  0.0680  0.2380  0.2374
16570W        W59508  26.368   6.596  20.227 -0.0200 -0.0635 -0.2116
16571W        W59509  27.903   5.582  24.410  0.1034 -0.0644 -0.0362
16572W        W59510  24.110   5.282  21.923 -0.0833 -0.0746 -0.1611
16573W        W59511  26.196   6.464  23.194  0.0229 -0.1175  0.0884
16574W        W59512  28.110   6.298  23.678 -0.1264  0.3504  0.4753
16575W        W59513  27.986   5.540  21.152 -0.4433 -0.1769 -0.3759
16576W        W59514  27.199   4.252  22.899  0.1476 -0.3035  0.0009
16577W        W59515  26.587   4.943  20.570  0.3058 -0.0681  0.0259
16578W        W59516  25.648   7.793  21.675  0.0835  0.1571  0.0549
16579W        W59517  28.197   5.628  19.233 -0.0758  0.1662  0.1178
16580W        W59518  26.088   3.740  22.986 -0.0143 -0.0561  0.1534
16581W        W59519  26.368   5.236  22.508 -0.2211  0.0804 -0.1246
16582W        W59520  28.017   6.826  18.981  0.2204  0.3103 -0.2250
16583W        W59521  28.392   4.035  23.071 -0.0385 -0.1621  0.1315
16584W        W59522  25.781   7.230  20.122 -0.4106 -0.0195  0.0359
16585W        W59523  28.104   2.854  20.780 -0.0788  0.1569  0.0258
16586W        W59524  24.404   7.822  22.351  0.0396  0.0754  0.0356
16587W        W59525  26.224   6.076  20.483 -0.2464  0.3763  0.0732
16588W        W59526  26.171   5.396  21.270  0.2822  0.1629  0.2929
16589W        W59527  27.419   3.780  21.887 -0.0410  0.2238 -0.1242
16590W        W59528  27.680   5.948  19.874 -0.2041  0.0734 -0.0334
16591W        W59529  27.370   4.326  23.396  0.0602  0.1625  0.2231
16592W        W59530  27.659   5.001  22.830 -0.1387  0.5229  0.1103
16593W        W59531  26.759   7.426  21.362 -0.2846  0.1055  0.3483
16594W        W59532  26.800   4.932  21.878 -0.0373  0.2002  0.1238
16595W        W59533  28.215   3.380  20.078 -0.2750 -0.1413 -0.2799
16596W        W59534  27.730   6.719  22.708 -0.3462 -0.0000 -0.1017
16597W        W59535  27.696   5.309  24.861  0.0383 -0.2305 -0.0367
16598W        W59536  24.907   4.163  19.837 -0.1342  0.1751  0.0465
16599W        W59537  29.159   4.738  22.815  0.3404 -0.1010  0.1232
16600W        W59538  25.088   4.600  20.659  0.0531  0.0522 -0.2595
16601W        W59539  25.800   7.191  21.991  0.0161 -0.1926  0.4385
16602W        W59540  26.865   7.995  22.159 -0.0498 -0.1516  0.0748
16603W        W59541  25.814   5.504  21.698  0.1612  0.1694 -0.2306
16604W        W59542  26.376   6.843  20.703 -0.1782  0.0300  0.3280
16605W        W59543  27.480   5.211  23.518  0.0638  0.1014  0.2791
16606W        W59544  28.912   5.593  23.365 -0.2662  0.0972 -0.0673
16607W        W59545  26.306   5.003  21.027  0.3638 -0.1073 -0.0117
16608W        W59546  25.699   4.011  21.781 -0.0549 -0.2685 -0.0811
16609W        W59547  26.010   5.000  21.669 -0.2554 -0.1627 -0.0772
16610W        W59548  29.475   7.592  19.569  0.1221 -0.0137 -0.1270
16611W        W59549  29.061   4.805  24.098  0.1286  0.2128 -0.4208
16612W        W59550  27.293   6.795  24.799 -0.1561 -0.3200  0.3117
16613W        W59551  27.306   3.672  22.671 -0.1934  0.0158  0.1755
16614W        W59552  29.949   7.533  21.082  0.0707  0.4874  0.1034
16615W        W59553  27.737   4.593  24.375  0.1289  0.3704  0.0571
16616W        W59554  26.453   7.490  19.539 -0.1348 -0.1459 -0.0236
16617W        W59555  25.008   6.113  21.790  0.3055  0.0798 -0.2788
16618W        W59556  26.769   6.987  20.410  0.0413 -0.1750  0.1775
16619W        W59557  26.290   4.402  22.392 -0.2241 -0.0498  0.2029
16620W        W59558  26.389   6.954  23.261  0.1916 -0.0066  0.1897
16621W        W59559  26.384   7.031  19.993  0.2774 -0.1267 -0.2307
16622W        W59560  25.142   6.930  21.313 -0.1594  0.2481 -0.0365
16623W        W59561  28.846   3.828  19.573 -0.1450  0.1725 -0.1721
16624W        W59562  27.083   5.661  20.932 -0.2193  0.2667 -0.1963
16625W        W59563  26.806   4.397  21.373  0.1115  0.1811  0.1473
16626W        W59564  29.629   4.105  23.931 -0.0285 -0.1020  0.3222
16627W        W59565  28.659   5.061  20.338 -0.2335 -0.0830 -0.2415
16628W        W59566  28.181   3.581  23.896  0.1989  0.0155 -0.3264
16629W        W59567  27.433   5.691  23.558  0.3124  0.0648 -0.1847
16630W        W59568  28.597   7.263  20.569  0.0436  0.0759 -0.1201
16631W        W59569  25.211   3.923  22.723  0.2932 -0.3274 -0.0947
16632W        W59570  28.570   7.546  25.580  0.1595  0.0266 -0.3299
16633W        W59571  25.860   5.724  24.238 -0.3022  0.3237 -0.0246
16634W        W59572  27.646   5.076  21.968 -0.1995 -0.0864 -0.0806
16635W        W59573  26.279   4.348  19.629 -0.2618  0.1190  0.2411
16636W        W59574  26.676   5.354  22.139 -0.0040 -0.3100 -0.0918
16637W        W59575  28.245   6.040  23.137 -0.0701  0.2538  0.0317
16638W        W59576  28.195   7.104  21.013  0.1578 -0.1619 -0.2322
16639W        W59577  28.134   4.800  21.792 -0.2140 -0.0494 -0.0226
16640W        W59578  26.980   5.795  22.541  0.0902 -0.0009 -0.1613
16641W        W59579  26.228   4.456  21.017  0.3494 -0.2390  0.0957
16642W        W59580  27.020   5.920  20.489  0.0510 -0.0601  0.1061
16643W        W59581  25.934   5.851  22.007  0.0811  0.0311 -0.4445
16644W        W59582  26.035   2.311  25.070 -0.0874  0.0739  0.5993
16645W        W59583  27.147   5.464  22.219 -0.0432  0.2069 -0.0674
16646W        W59584  27.845   5.400  22.483  0.1600 -0.1092  0.3187
16647W        W59585  27.379   4.056  22.269 -0.0455  0.0422  0.3260
16648W        W59586  27.579   4.476  22.587 -0.1179  0.0980  0.4485
16649W        W59587  26.475   4.281  24.076 -0.2469  0.0818 -0.2659
16650W        W59588  24.717   3.111  23.333 -0.0011  0.1196  0.1043
16651W        W59589  28.971   7.592  22.726  0.0233 -0.2744 -0.2254
16652W        W59590  28.623   4.127  20.030 -0.3479 -0.3473  0.0990
16653W        W59591  27.702   4.018  22.735  0.1681  0.0013 -0.1893
16654W        W59592  28.568   5.875  21.298  0.3983  0.2596  0.4170
16655W        W59593  27.789   4.867  21.092  0.0566  0.0441  0.1487
16656W        W59594  25.692   5.327  21.216  0.2559  0.2414 -0.1985
16657W        W59595  27.511   3.279  25.272 -0.1024 -0.1131  0.0627
16658W        W59596  28.089   4.556  20.790  0.0552 -0.3245 -0.1014
16659W        W59597  26.754   4.843  22.334  0.0699  0.0395 -0.3067
16660W        W59598  26.186   7.204  20.439 -0.0677 -0.0671  0.1176
16661W        W59599  28.990   7.565  24.032  0.0232 -0.1815  0.3742
16662W        W59600  28.287   5.548  20.690 -0.1943 -0.1345 -0.2670
16663W        W59601  25.389   5.714  21.797 -0.0327 -0.2078  0.0615
16664W        W59602  26.342   7.253  21.917  0.3149 -0.0315 -0.0897
16665W        W59603  25.886   5.519  19.343 -0.1624 -0.0453  0.0413
16666W        W59604  26.974   4.368  20.327 -0.0726  0.1114 -0.3322
16667W        W59605  27.384   6.401  22.434 -0.4264  0.1596  0.0312
16668W        W59606  29.815   5.443  22.763 -0.0143  0.1407  0.0025
16669W        W59607  29.322   4.006  20.595 -0.0224 -0.1466  0.1061
16670W        W59608  28.693   3.893  24.340 -0.1625  0.2166  0.0637
16671W        W59609  26.055   5.726  20.179 -0.1936 -0.1998 -0.0366
16672W        W59610  27.858   2.556  22.240  0.1497  0.0263 -0.3110
16673W        W59611  24.356   7.288  22.368 -0.4182  0.2502 -0.0375
16674W        W59612  24.908   7.315  21.704  0.2412 -0.0167 -0.1825
16675W        W59613  28.714   6.611  21.741  0.1165  0.0326  0.1541
16676W        W59614  26.944   3.958  23.453 -0.2301 -0.0231  0.2437
16677W        W59615  27.135   4.746  22.735  0.2157 -0.0845  0.1814
16678W        W59616  27.382   5.415  22.681  0.1434 -0.0068  0.1494
16679W        W59617  30.109   4.240  24.012 -0.0940  0.0532 -0.1216
16680W        W59618  27.138   5.396  24.902  0.1285 -0.0602 -0.2796
16681W        W59619  25.293   5.353  20.859 -0.1780  0.0728 -0.0928
16682W        W59620  28.220   7.153  23.924  0.0144 -0.3294 -0.1213
16683W        W59621  28.389   5.793  21.950  0.0177  0.0788  0.0717
16684W        W59622  26.978   6.561  21.991 -0.0162  0.0810 -0.0076
16685W        W59623  25.212   5.727  22.370 -0.0976  0.2202  0.0907
16686W        W59624  27.229   4.657  24.182  0.2141  0.3869  0.1553
16687W        W59625  27.997   4.283  22.238  0.1885  0.2091  0.2588
16688W        W59626  25.961   4.024  22.190 -0.0652 -0.0990  0.3920
16689W        W59627  27.590   5.771  20.748  0.0604 -0.0261  0.1896
16690W        W59628  25.682   7.149  24.422 -0.1463 -0.1387 -0.0122
16691W        W59629  24.705   6.019  22.228 -0.1186 -0.1266  0.5304
16692W        W59630  27.190   7.589  20.962 -0.1817 -0.0690  0.4243
16693W        W59631  27.654   6.319  20.989  0.0881 -0.0116 -0.1843
16694W        W59632  27.595   5.415  21.543 -0.1901  0.0496 -0.0146
16695W        W59633  27.071   6.829  23.667  0.3300  0.2115 -0.0108
16696W        W59634  26.157   3.993  20.150  0.2603 -0.3063  0.3588
16697W        W59635  26.764   7.531  21.867  0.0922  0.4264 -0.2487
16698W        W59636  25.972   7.772  19.463 -0.1712  0.1035  0.4016
16699W        W59637  27.648   7.445  21.324  0.1871 -0.0136 -0.2906
16700W        W59638  27.232   7.383  22.060 -0.1127  0.0222  0.1123
16701W        W59639  28.948   5.275  24.253 -0.0254 -0.4427 -0.2013
16702W        W59640  27.798   3.951  19.981  0.1088  0.0951  0.0521
16703W        W59641  29.327   5.911  21.748 -0.2494 -0.0472 -0.3464
16704W        W59642  29.403   4.698  21.054 -0.1162  0.1708  0.3747
16705W        W59643  28.454   7.329  25.071  0.2590 -0.0772  0.0417
16706W        W59644  26.792   4.340  22.579 -0.0708 -0.0967 -0.0427
16707W        W59645  26.755   4.623  20.903  0.1296 -0.1556  0.0149
16708W        W59646  24.991   4.682  22.687 -0.0858  0.1039  0.0887
16709W        W59647  27.894   3.383  25.579  0.0767 -0.4177 -0.1050
16710W        W59648  26.071   7.330  22.882 -0.0997 -0.2333  0.1731
16711W        W59649  28.460   6.881  21.405 -0.2370 -0.0272 -0.0338
16712W        W59650  26.088   4.221  20.601  0.3929 -0.3090 -0.0468
16713W        W59651  26.471   3.288  22.185  0.0570 -0.0150  0.0624
16714W        W59652  28.344   2.509  21.678 -0.3555  0.0608  0.3176
16715W        W59653  27.024   6.178  19.109  0.1573  0.2649  0.1626
16716W        W59654  26.651   4.458  22.030  0.3832  0.0051 -0.0696
16717W        W59655  26.702   7.293  22.308 -0.2742 -0.1646  0.1832
16718W        W59656  25.473   6.758  22.153  0.0234 -0.2330 -0.1934
16719W        W59657  26.636   8.946  22.521 -0.2758  0.0189 -0.1434
16720W        W59658  25.360   4.213  20.525 -0.3106 -0.1141  0.0607
16721W        W59659  29.562   4.671  21.892 -0.0285  0.0813  0.3331
16722W        W59660  26.056   6.185  22.735  0.0042 -0.0876 -0.1317
16723W        W59661  29.124   4.248  23.123 -0.0267  0.2087  0.3244
16724W        W59662  26.381   4.684  21.453 -0.0078  0.2139  0.0070
16725W        W59663  28.644   4.910  21.458 -0.1010  0.2611  0.0898
16726W        W59664  27.047   5.456  23.898  0.3679 -0.0656  0.2656
16727W        W59665  25.833   4.559  22.262  0.3866  0.2838  0.2534
16728W        W59666  27.482   4.551  20.767 -0.2371  0.2124  0.0419
16729W        W59667  28.929   5.266  23.748 -0.0660 -0.0051  0.0290
16730W        W59668  27.363   5.329  18.722  0.1140 -0.1127 -0.1210
16731W        W59669  27.438   7.149  23.087 -0.0314  0.4774 -0.0858
16732W        W59670  26.108   3.755  21.662  0.0724 -0.4221  0.1384
16733W        W59671  27.323   4.935  21.242  0.0917 -0.1121 -0.3072
16734W        W59672  26.402   5.596  20.492  0.0427  0.1388  0.2065
16735W        W59673  26.644   4.899  22.854  0.0631 -0.1213 -0.3388
16736W        W59674  28.100   6.098  24.419 -0.2328  0.2355  0.2755
16737W        W59675  26.446   3.770  21.229  0.2678 -0.0639 -0.0058
16738W        W59676  29.403   6.909  19.164  0.0090 -0.1783 -0.3045
16739W        W59677  28.909   5.356  21.266  0.2519  0.2899 -0.2297
16740W        W59678  26.973   7.635  19.528  0.0454  0.1342 -0.4113
16741W        W59679  27.086   4.494  21.752 -0.0730 -0.2690 -0.0533
16742W        W59680  27.938   7.022  24.359 -0.0995  0.2047 -0.0247
16743W        W59681  26.231   4.581  23.315  0.0014 -0.1342 -0.1402
16744W        W59682  27.135   6.114  23.499 -0.0362  0.2830 -0.1546
16745W        W59683  30.929   6.530  22.375  0.0246 -0.0529 -0.3746
16746W        W59684  27.133   4.498  22.265 -0.0625  0.0470  0.2702
16747W        W59685  26.387   4.086  23.443  0.0059  0.2233  0.2113
16748W        W59686  25.344   7.074  21.777  0.3034 -0.1437 -0.2448
16749W        W59687  28.641   3.670  22.077 -0.2479 -0.1575 -0.0263
16750W        W59688  27.865   5.803  22.814  0.1406 -0.2018  0.0285
16751W        W59689  27.749   6.043  20.414  0.0196 -0.0801  0.1466
16752W        W59690  27.372   3.800  24.203 -0.3048 -0.0920 -0.0035
16753W        W59691  27.150   5.244  23.134 -0.2142 -0.1317 -0.1162
16754W        W59692  27.085   8.696  23.497 -0.0608 -0.1832 -0.0920
16755W        W59693  25.666   5.857  18.738  0.0397 -0.0824 -0.1993
16756W        W59694  25.954   6.316  21.678 -0.1725 -0.1523 -0.1305
16757W        W59695  27.348   5.751  20.147  0.2011 -0.0232  0.4443
16758W        W59696  26.670   7.313  20.790 -0.4124  0.0826 -0.0665
16759W        W59697  29.387   6.658  22.790 -0.0928 -0.2159 -0.2386
16760W        W59698  28.063   5.176  21.498  0.2263 -0.1313 -0.3882
16761W        W59699  28.838   7.120  21.216 -0.0722 -0.1205 -0.1063
16762W        W59700  26.644   5.658  21.250 -0.0788  0.1158  0.0238
16763W        W59701  30.696   3.726  20.615 -0.0523 -0.1960 -0.0497
16764W        W59702  28.107   1.588  20.304  0.1947  0.0661  0.3022
16765W        W59703  26.108   4.784  22.629  0.0758  0.0044  0.0765
16766W        W59704  27.170   6.168  20.860  0.2377  0.3961 -0.1286
16767W        W59705  26.733   7.516  19.962  0.0280 -0.2883  0.3264
16768W        W59706  26.119   5.712  22.518 -0.2442 -0.1237  0.2400
16769W        W59707  26.506   3.574  24.715 -0.3856 -0.2421  0.0031
16770W        W59708  26.421   6.379  22.431  0.0391  0.2663 -0.0593
16771W        W59709  25.818   6.873  21.077 -0.0797  0.0090  0.1689
16772W        W59710  25.705   5.013  22.058 -0.2422  0.1611  0.0144
16773W        W59711  28.421   6.934  19.250 -0.2333  0.1761  0.2019
16774W        W59712  25.778   4.189  22.708 -0.1324 -0.1043 -0.0393
16775W        W59713  25.479   6.127  22.096  0.0109 -0.3000 -0.1817
16776W        W59714  27.871   6.750  21.454 -0.2543 -0.0237  0.1087
16777W        W59715  28.159   7.436  22.175 -0.4635  0.2266  0.3209
16778W        W59716  26.036   4.725  20.639  0.1650 -0.3228  0.1985
16779W        W59717  29.443   5.874  24.543  0.1435 -0.0188  0.0376
16780W        W59718  26.335   5.296  19.251  0.0195  0.0017 -0.0947
16781W        W59719  27.640   4.712  23.676 -0.1279 -0.1500 -0.0693
16782W        W59720  26.924   3.821  23.925 -0.1153  0.1901 -0.1594
16783W        W59721  24.501   3.318  19.743 -0.1821  0.0267  0.1387
16784W        W59722  25.961   4.405  23.782 -0.1991  0.1917  0.0323
16785W        W59723  28.413   6.167  21.659  0.0154 -0.0382  0.3575
16786W        W59724  28.491   7.804  20.874 -0.1232 -0.1574  0.2279
16787W        W59725  27.203   6.883  22.235  0.4025  0.0045 -0.2837
16788W        W59726  28.473   5.398  23.595  0.1734 -0.0835  0.0317
16789W        W59727  24.670   4.249  23.428 -0.0322  0.1752 -0.2579
16790W        W59728  26.517   5.320  21.633 -0.4555  0.4078  0.1028
16791W        W59729  26.597   6.476  22.911 -0.0437 -0.0389 -0.1054
16792W        W59730  28.641   6.754  20.897  0.1230 -0.4101  0.0750
16793W        W59731  29.167   5.008  21.449  0.1022 -0.1027  0.0065
16794W        W59732  27.171   6.506  21.252  0.0361 -0.1169  0.1981
16795W        W59733  25.067   3.837  22.184  0.3887 -0.1968  0.0439
16796W        W59734  25.450   6.654  23.052 -0.0355  0.0069 -0.0733
16797W        W59735  27.929   6.318  22.489 -0.2387  0.2548  0.2377
16798W        W59736  27.659   4.467  23.084 -0.0902  0.1070 -0.0865
16799W        W59737  27.229   3.341  21.663  0.1902 -0.0580 -0.0701
16800W        W59738  26.870   5.706  21.814  0.0596 -0.0661  0.4211
16801W        W59739  24.864   5.138  22.850 -0.1136  0.0867  0.1791
16802W        W59740  27.831   4.293  21.080  0.0929  0.0207  0.0663
16803W        W59741  25.450   5.145  21.642  0.0047 -0.0870 -0.1859
16804W        W59742  27.137   6.002  22.135 -0.0611  0.1686 -0.0509
16805W        W59743  27.893   4.915  23.272  0.4194  0.4028 -0.1268
16806W        W59744  27.216   6.221  19.876 -0.0368  0.0287 -0.5658
16807W        W59745  29.234   4.805  20.492 -0.1956  0.0796  0.1307
16808W        W59746  28.170   6.518  24.241  0.1576 -0.1904 -0.0192
16809W        W59747  28.520   6.055  25.193  0.0747 -0.0268 -0.0971
16810W        W59748  26.756   6.852  21.021 -0.3047 -0.3870  0.1821
16811W        W59749  28.616   5.952  20.796 -0.0037  0.3334 -0.1768
16812W        W59750  24.822   4.692  22.050 -0.1782  0.3706 -0.1126
16813W        W59751  27.083   5.960  21.358  0.2047  0.1404 -0.1846
16814W        W59752  27.735   6.724  22.200  0.1236  0.3358  0.2348
16815W        W59753  28.323   5.470  23.080 -0.1445 -0.1311  0.1013
16816W        W59754  25.996   3.611  22.508 -0.0919 -0.0016  0.0284
16817W        W59755  27.855   3.639  20.317 -0.0496 -0.2575 -0.1024
16818W        W59756  25.373   7.738  23.258  0.2682 -0.0082  0.0631
16819W        W59757  28.447   5.008  23.285  0.2397 -0.5268  0.0478
16820W        W59758  26.364   6.114  25.257 -0.3366 -0.2100 -0.2079
16821W        W59759  26.757   4.082  24.764  0.1136 -0.0452 -0.2685
16822W        W59760  28.244   3.764  23.472 -0.3312  0.0990  0.0211
16823W        W59761  28.351   4.906  24.827  0.0507  0.2579  0.0637
16824W        W59762  25.045   3.332  24.546  0.0010 -0.2459 -0.0770
16825W        W59763  27.942   7.455  24.172 -0.1603  0.0400 -0.0787
16826W        W59764  26.594   4.075  28.137  0.3868  0.1266 -0.0505
16827W        W59765  28.151   7.907  26.650 -0.0460  0.2747  0.2113
16828W        W59766  28.926   5.234  26.887  0.0974 -0.0545  0.1924
16829W        W59767  25.943   5.199  23.968 -0.0802 -0.1876  0.0321
16830W        W59768  27.820   5.685  26.015 -0.0959 -0.1288 -0.1832
16831W        W59769  26.939   8.075  25.857 -0.3631  0.0961  0.0452
16832W        W59770  26.995   4.952  25.727  0.1571 -0.0950  0.0930
16833W        W59771  26.205   3.589  26.648  0.0147  0.3127 -0.1453
16834W        W59772  27.306   6.116  26.416  0.0117  0.1086  0.3535
16835W        W59773  25.845   5.615  23.445  0.2081 -0.0858 -0.2175
16836W        W59774  26.340   6.353  26.297 -0.1996  0.1059  0.0537
16837W        W59775  26.549   4.802  24.890  0.0479 -0.0942  0.0599
16838W        W59776  27.125   7.079  25.560  0.3720 -0.1473 -0.0411
16839W        W59777  27.307   3.297  28.171 -0.4191 -0.1814 -0.1348
16840W        W59778  26.505   4.914  28.632  0.4611  0.1169  0.0620
16841W        W59779  27.073   6.535  24.344  0.1307  0.5577  0.0752
16842W        W59780  24.155   5.990  22.447 -0.1093  0.1471 -0.2363
16843W        W59781  25.856   5.583  25.356 -0.3052  0.0650 -0.1903
16844W        W59782  26.187   5.382  25.946  0.1120  0.3839 -0.0143
16845W        W59783  29.652   4.826  26.565 -0.1678  0.2026 -0.2312
16846W        W59784  26.823   4.724  26.942  0.1369  0.0790  0.1277
16847W        W59785  27.629   6.404  26.103 -0.0902  0.1989  0.1796
16848W        W59786  28.178   5.682  26.408 -0.0163  0.0226 -0.4278
16849W        W59787  26.948   5.427  26.974  0.0720 -0.2539  0.3939
16850W        W59788  25.677   6.080  24.543  0.1440  0.0933 -0.0165
16851W        W59789  24.784   7.006  25.400  0.0307 -0.1436  0.2038
16852W        W59790  26.371   7.611  25.285  0.3581  0.1018 -0.1609
16853W        W59791  29.868   7.036  25.296  0.2265  0.0791 -0.3241
16854W        W59792  28.707   5.686  27.498 -0.0838  0.2790 -0.2102
16855W        W59793  27.112   7.605  27.707 -0.2360 -0.1374 -0.0082
16856W        W59794  26.225   6.139  24.096 -0.3088  0.1495  0.2121
16857W        W59795  27.327   6.727  26.464 -0.3046 -0.3551  0.1968
16858W        W59796  25.549   6.273  26.892 -0.0675 -0.1749  0.0069
16859W        W59797  27.533   4.395  27.087  0.2432 -0.2869  0.0187
16860W        W59798  27.242   5.609  24.409 -0.1641 -0.2217  0.0288
16861W        W59799  27.124   7.359  24.675  0.0256 -0.0542 -0.1640
16862W        W59800  27.622   4.351  25.060 -0.2880 -0.0329  0.1748
16863W        W59801  26.301   6.529  27.554  0.3315 -0.0638 -0.0068
16864W        W59802  25.829   6.723  25.232  0.1611  0.4326 -0.0723
16865W        W59803  29.874   3.793  28.841  0.2404  0.0640  0.1833
16866W        W59804  26.134   7.036  23.677 -0.0734  0.0352 -0.2270
16867W        W59805  28.245   3.661  24.513 -0.0722  0.1697  0.2668
16868W        W59806  27.382   3.989  24.786  0.3888  0.0109 -0.1660
16869W        W59807  29.423   4.045  25.482 -0.0956 -0.2618 -0.0088
16870W        W59808  27.495   2.531  27.116 -0.0896  0.0090  0.0796
16871W        W59809  27.785   8.018  25.365 -0.0232  0.2426 -0.0518
16872W        W59810  27.722   4.310  27.522  0.2802  0.2089  0.2411
16873W        W59811  28.121   6.182  26.028  0.2400 -0.1080  0.1901
16874W        W59812  27.448   7.184  25.088 -0.0362  0.2076 -0.1260
16875W        W59813  27.702   5.334  25.660  0.0571  0.1430 -0.4078
16876W        W59814  26.060   6.823  26.435 -0.3122 -0.5300 -0.0042
16877W        W59815  26.650   4.948  23.458  0.0522 -0.1922 -0.2450
16878W        W59816  29.089   5.946  23.625 -0.2592 -0.4267  0.0105
16879W        W59817  28.534   6.641  25.240 -0.0490  0.0136 -0.1662
16880W        W59818  28.119   8.026  23.530  0.1454  0.2810  0.1191
16881W        W59819  25.968   4.639  24.922 -0.0545 -0.0662  0.1499
16882W        W59820  26.479   5.046  24.386 -0.1168 -0.1995 -0.1955
16883W        W59821  26.392   6.286  26.864  0.1852  0.0904  0.3430
16884W        W59822  25.510   4.723  22.641  0.0183  0.0033 -0.2268
16885W        W59823  29.171   5.816  27.479 -0.0043 -0.3575  0.0075
16886W        W59824  25.017   7.039  26.652 -0.1446 -0.1405 -0.0136
16887W        W59825  28.674   4.074  27.586 -0.0641  0.1421 -0.0724
16888W        W59826  26.247   5.545  24.414 -0.1603 -0.0324  0.2703
16889W        W59827  28.860   6.280  26.227  0.1205  0.1058  0.0242
16890W        W59828  27.556   5.901  22.465  0.0847  0.0448 -0.0514
16891W        W59829  27.684   3.465  27.576 -0.0240  0.1579 -0.2608
16892W        W59830  27.092   4.545  27.319 -0.1240 -0.1693  0.1829
16893W        W59831  26.952   5.201  22.662  0.1512 -0.1281  0.2305
16894W        W59832  26.803   6.949  24.652  0.2057 -0.1354 -0.3936
16895W        W59833  29.947   6.134  26.451  0.1018  0.3305  0.2736
16896W        W59834  28.990   4.861  24.614  0.2350  0.1224 -0.0041
16897W        W59835  25.457   8.308  25.605 -0.2313 -0.0889  0.1514
16898W        W59836  26.881   5.967  27.077 -0.2110  0.1387  0.2636
16899W        W59837  27.818   6.004  27.049 -0.1865  0.2340  0.1769
16900W        W59838  26.070   5.987  23.214  0.1251  0.0215  0.2478
16901W        W59839  26.340   5.515  24.930 -0.0954 -0.0076  0.1212
16902W        W59840  26.751   5.669  24.517  0.0619 -0.4337 -0.1764
16903W        W59841  25.602   3.744  25.859 -0.2366 -0.0005  0.2738
16904W        W59842  27.658   6.976  25.522 -0.1768  0.3405 -0.1607
16905W        W59843  27.980   2.961  25.310  0.3367  0.1317 -0.0404
16906W        W59844  25.419   4.492  27.249  0.1083 -0.2471 -0.0112
16907W        W59845  28.066   3.344  27.129  0.0943  0.3119  0.0081
16908W        W59846  26.480   6.646  24.366  0.0577 -0.0534 -0.2395
16909W        W59847  28.101   6.947  24.932 -0.1512  0.1813 -0.2005
16910W        W59848  29.882   4.377  26.710 -0.1621  0.2188  0.1338
16911W        W59849  29.486   6.846  23.748  0.2197  0.3439  0.1543
16912W        W59850  26.889   5.960  25.979  0.3323 -0.1163 -0.2894
16913W        W59851  25.418   5.350  25.562 -0.0062 -0.2198  0.2394
16914W        W59852  26.750   4.385  27.711 -0.0111  0.0116 -0.1981
16915W        W59853  25.293   4.133  26.874  0.1380 -0.1933 -0.0483
16916W        W59854  29.001   5.393  27.817 -0.1667 -0.0182  0.0556
16917W        W59855  26.145   3.224  24.619  0.0970  0.2928 -0.0078
16918W        W59856  27.542   4.865  25.775 -0.0265 -0.1799 -0.2618
16919W        W59857  26.764   5.567  25.244  0.0871  0.5099 -0.0868
16920W        W59858  25.481   3.773  24.367  0.1207  0.0253 -0.3144
16921W        W59859  29.010   3.270  28.751 -0.1252 -0.2257 -0.0736
16922W        W59860  27.461   7.761  24.946 -0.1351 -0.0804 -0.1564
16923W        W59861  29.522   6.993  26.480  0.1834  0.2515  0.2085
16924W        W59862  28.240   5.741  25.595 -0.1882  0.0131  0.0668
16925W        W59863  26.548   4.698  27.346 -0.1059  0.2379  0.1319
16926W        W59864  27.178   3.464  23.523  0.2724  0.2557 -0.0825
16927W        W59865  26.148   7.184  25.313  0.2145 -0.0785 -0.3128
16928W        W59866  27.183   6.387  25.724  0.0466  0.1331  0.2757
16929W        W59867  27.258   4.153  25.445  0.2085 -0.0257 -0.0489
16930W        W59868  27.913   8.177  27.045 -0.0145  0.0110 -0.1881
16931W        W59869  27.398   5.767  25.380 -0.0544 -0.0135  0.1324
16932W        W59870  26.311   5.714  25.604  0.0710 -0.1534  0.0578
16933W        W59871  27.145   3.689  28.417 -0.1138 -0.0269 -0.0306
16934W        W59872  28.792   5.276  26.429  0.1969  0.1799  0.1933
16935W        W59873  27.741   6.637  25.145  0.0167  0.0976 -0.2135
16936W        W59874  25.569   4.752  24.637 -0.0151 -0.2102  0.0135
16937W        W59875  26.706   7.462  24.433 -0.0383  0.0626  0.0548
16938W        W59876  26.501   6.053  23.375  0.0447  0.3260  0.2072
16939W        W59877  26.319   4.819  23.878 -0.1050  0.1460 -0.0903
16940W        W59878  28.509   4.481  25.367  0.0329 -0.1814 -0.0610
16941W        W59879  28.379   4.040  26.782 -0.0674 -0.2957  0.0709
16942W        W59880  25.750   5.944  27.324 -0.0238  0.2783 -0.2725
16943W        W59881  27.747   4.843  27.102  0.0427  0.0548 -0.1080
16944W        W59882  24.591   3.420  24.299  0.0209 -0.1613  0.0024
16945W        W59883  25.509   6.755  26.571 -0.0891 -0.0084 -0.1349
16946W        W59884  27.660   3.880  25.556  0.0067 -0.0281 -0.2206
16947W        W59885  29.365   4.972  25.405  0.1686  0.1178 -0.3522
16948W        W59886  26.814   6.896  26.462 -0.3057 -0.1641 -0.0617
16949W        W59887  28.679   6.512  24.322  0.0962 -0.0825  0.0031
16950W        W59888  28.020   3.259  24.424 -0.0324  0.1533  0.0383
16951W        W59889  27.747   3.631  24.548 -0.0334 -0.0749 -0.0990
16952W        W59890  26.792   7.692  28.570  0.1668 -0.2640 -0.2144
16953W        W59891  27.082   6.087  24.512  0.2056 -0.0201  0.0524
16954W        W59892  28.252   5.977  26.855  0.1876  0.3586 -0.2832
16955W        W59893  28.078   4.265  25.338 -0.1531  0.1233 -0.0994
16956W        W59894  28.518   7.686  24.739 -0.2723  0.0618 -0.1363
16957W        W59895  25.205   4.889  24.284 -0.0889 -0.0504 -0.0113
16958W        W59896  27.223   4.860  26.172 -0.0624  0.0884  0.3142
16959W        W59897  28.102   4.924  25.827 -0.3415  0.2047  0.1378
16960W        W59898  27.107   3.864  26.464 -0.0777 -0.1894  0.2106
16961W        W59899  27.547   5.077  24.382 -0.0752 -0.2493 -0.0562
16962W        W59900  26.470   3.460  27.161 -0.2767 -0.1263  0.0416
16963W        W59901  25.118   6.223  23.269 -0.1907 -0.2079 -0.1293
16964W        W59902  27.202   4.509  25.840  0.2315 -0.0386 -0.1483
16965W        W59903  25.920   5.118  24.473 -0.0183  0.1509 -0.3280
16966W        W59904  27.021   4.775  27.803  0.2294 -0.1103  0.0871
16967W        W59905  28.576   5.533  27.020 -0.1860 -0.4236 -0.2641
16968W        W59906  28.687   4.801  26.574 -0.5219 -0.2679  0.0306
16969W        W59907  28.206   5.402  25.982 -0.0981  0.1441  0.1837
16970W        W59908  25.813   4.074  24.183  0.0980  0.0939  0.3215
16971W        W59909  29.909   3.697  28.274 -0.1192 -0.0245  0.3690
16972W        W59910  25.597   5.731  26.745  0.0709  0.2864  0.1394
16973W        W59911  24.892   8.394  26.683  0.1915 -0.0395  0.3163
16974W        W59912  29.170   4.347  29.194  0.2171  0.2465  0.0148
16975W        W59913  27.315   4.703  25.300  0.3988 -0.0298 -0.1329
16976W        W59914  27.754   5.632  27.449 -0.2175  0.0740 -0.5489
16977W        W59915  27.346   3.992  25.954  0.0488 -0.2329 -0.4565
16978W        W59916  27.467   7.581  24.139  0.0161  0.1467  0.1108
16979W        W59917  27.646   6.146  23.433  0.1764  0.0975  0.0157
16980W        W59918  27.008   2.631  26.301 -0.0200 -0.1791 -0.0125
16981W        W59919  28.313   4.549  26.794 -0.1693  0.2355 -0.2513
16982W        W59920  27.889   7.333  25.323  0.1830  0.0112  0.0336
16983W        W59921  26.379   6.756  26.038 -0.0959 -0.2410 -0.0048
16984W        W59922  27.227   5.901  23.972 -0.1074 -0.1307  0.0752
16985W        W59923  29.040   4.341  28.367 -0.4409 -0.0784 -0.1873
16986W        W59924  25.915   7.091  25.768 -0.0480  0.6610 -0.2427
16987W        W59925  26.991   4.514  24.982 -0.0040  0.0810  0.0069
16988W        W59926  24.271   5.103  24.374  0.1491  0.3109 -0.2070
16989W        W59927  29.678   3.805  25.113  0.4122  0.2335  0.1051
16990W        W59928  27.972   5.687  23.412 -0.0419  0.0341 -0.0104
16991W        W59929  26.033   4.550  26.383 -0.2661  0.0180  0.2011
16992W        W59930  26.386   5.151  26.340 -0.2370  0.0195 -0.2822
16993W        W59931  25.435   6.300  25.337  0.0719  0.1536  0.4439
16994W        W59932  26.724   5.521  25.767  0.0382  0.2000 -0.4136
16995W        W59933  28.219   2.555  25.532  0.1707  0.0764 -0.0257
16996W        W59934  28.200   7.017  25.482 -0.2730 -0.0498  0.1134
16997W        W59935  26.651   5.226  27.883  0.1569 -0.1490  0.1916
16998W        W59936  25.199   4.404  23.076  0.0321 -0.2526  0.0196
16999W        W59937  29.354   4.866  26.969  0.0477  0.0820  0.1106
17000W        W59938  26.874   4.159  26.072 -0.1536  0.0950 -0.0526
17001W        W59939  26.618   6.188  24.457 -0.0605  0.1764  0.1042
17002W        W59940  27.807   6.018  25.552  0.0871  0.0240  0.0003
17003W        W59941  25.313   4.842  23.300 -0.3650 -0.1718  0.2117
17004W        W59942  26.569   6.877  25.083 -0.3031 -0.0413  0.1270
17005W        W59943  26.946   4.522  28.222 -0.0210  0.3514 -0.0916
17006W        W59944  29.114   5.457  25.442  0.2367 -0.0559  0.2940
17007W        W59945  26.890   5.990  25.481  0.4410 -0.1432 -0.1798
17008W        W59946  26.434   4.486  25.922 -0.1047  0.1854 -0.3383
17009W        W59947  26.515   5.577  26.613  0.1152  0.2004 -0.1386
17010W        W59948  28.663   6.065  24.555  0.1993  0.1104 -0.0439
17011W        W59949  25.085   5.315  26.002 -0.1056  0.2358 -0.0782
17012W        W59950  25.419   6.736  26.090 -0.1441  0.0018  0.0099
17013W        W59951  28.554   5.005  26.046 -0.0107 -0.0722 -0.3095
17014W        W59952  27.733   8.549  24.589  0.1952  0.2728 -0.2762
17015W        W59953  27.265   4.969  27.017  0.0927  0.0776  0.1578
17016W        W59954  24.651   4.765  23.622  0.2661 -0.0285 -0.0498
17017W        W59955  26.670   5.932  24.911 -0.1093  0.1723  0.1683
17018W        W59956  25.781   4.634  23.058 -0.0504 -0.2364 -0.2524
17019W        W59957  27.588   3.883  26.566  0.1611  0.1010 -0.1642
17020W        W59958  26.971   6.411  24.884 -0.1907  0.0415  0.1209
17021W        W59959  26.586   4.493  23.628 -0.0408 -0.0843  0.1025
17022W        W59960  24.546   6.125  26.674  0.0579  0.0630  0.1713
17023W        W59961  29.495   5.354  25.711 -0.1041  0.1596 -0.4238
17024W        W59962  28.154   4.780  23.640 -0.2098  0.0005  0.0685
17025W        W59963  28.571   4.448  24.882 -0.2434 -0.0716 -0.1088
17026W        W59964  28.557   4.500  28.511 -0.2997 -0.0660 -0.0313
17027W        W59965  29.110   6.275  24.275 -0.3501 -0.0512  0.2406
17028W        W59966  27.441   4.186  28.354 -0.0123 -0.3698  0.3890
17029W        W59967  27.621   4.567  26.235  0.0954  0.0382 -0.0703
17030W        W59968  28.844   4.956  25.154  0.1283 -0.3324 -0.2126
17031W        W59969  27.231   5.430  25.888 -0.4710 -0.2445  0.0882
17032W        W59970  28.541   6.260  28.290 -0.3140 -0.0104 -0.0841
17033W        W59971  25.890   6.155  26.567  0.0252 -0.3065 -0.0210
17034W        W59972  27.203   3.664  25.463  0.0547  0.0897  0.0547
17035W        W59973  26.381   3.793  23.846 -0.2894  0.0594  0.0219
17036W        W59974  26.992   7.555  25.714  0.0825 -0.0397 -0.0491
17037W        W59975  29.181   5.650  25.960 -0.3206  0.2768  0.1615
17038W        W59976  27.423   6.485  23.762  0.1085  0.0114 -0.0007
17039W        W59977  26.773   6.018  26.579 -0.1592 -0.1440 -0.1635
17040W        W59978  26.230   7.892  26.396  0.2469  0.1007  0.2169
17041W        W59979  27.123   3.942  26.945 -0.0047 -0.1145 -0.0492
17042W        W59980  26.640   5.532  22.990 -0.0363 -0.0402  0.0033
17043W        W59981  25.802   8.158  25.194  0.1114 -0.1693 -0.2796
17044W        W59982  25.862   4.659  27.415  0.1596  0.2151  0.2069
17045W        W59983  28.714   7.121  25.441 -0.1270  0.1026  0.0583
17046W        W59984  28.793   3.892  26.509 -0.2242  0.2775 -0.0536
17047W        W59985  27.851   4.219  28.011  0.2480  0.1304 -0.3544
17048W        W59986  27.331   7.008  27.050  0.2118  0.0827  0.1374
17049W        W59987  26.777   6.741  25.714  0.1251 -0.2814 -0.5389
17050W        W59988  25.220   5.374  26.993 -0.1134  0.1429  0.2560
17051W        W59989  28.422   9.373  25.933  0.0941  0.2282 -0.0284
17052W        W59990  28.793   6.157  23.149 -0.0937  0.3766 -0.0188
17053W        W59991  29.119   4.440  27.882 -0.1530 -0.0504  0.0049
17054W        W59992  29.152   4.213  25.938  0.0059  0.1031 -0.1341
17055W        W59993  29.457   5.857  25.639 -0.0199 -0.0236 -0.1561
17056W        W59994  26.469   4.675  26.613 -0.0290  0.2907  0.2676
17057W        W59995  28.235   5.484  27.823  0.2212 -0.0414  0.0988
17058W        W59996  27.733   4.113  24.461  0.0527  0.1059  0.1452
17059W        W59997  28.070   5.527  26.945 -0.2717 -0.3998  0.2347
17060W        W59998  27.507   7.092  24.522 -0.0439 -0.2096  0.1521
17061W        W59999  30.082   5.778  26.148  0.2580  0.1678 -0.1097
17062W        W60000  28.614   5.468  25.269 -0.1602 -0.1724  0.2062
17063W        W60001  25.895   4.635  25.422  0.0252 -0.2205  0.4514
17064W        W60002  27.419   6.544  27.748  0.1618  0.1444  0.0226
17065W        W60003  27.331   4.817  23.208  0.3128 -0.1503  0.3215
17066W        W60004  26.215   5.046  23.118  0.1372 -0.0032  0.0242
17067W        W60005  27.150   6.666  25.256 -0.1325  0.1997  0.0390
17068W        W60006  27.740   5.048  28.625  0.1847  0.1290 -0.0492
17069W        W60007  26.769   4.782  24.031  0.2089  0.2214  0.0270
17070W        W60008  29.489   5.134  28.335 -0.0282  0.2794  0.1006
17071W        W60009  25.753   5.550  24.694  0.3271 -0.0955 -0.1143
17072W        W60010  28.688   4.608  27.541 -0.0362  0.2161  0.0993
17073W        W60011  25.447   7.696  26.880 -0.0351 -0.0662  0.1784
17074W        W60012  24.980   6.579  26.484 -0.1407  0.0086  0.2151
17075W        W60013  24.716   5.699  23.873 -0.0624  0.1199 -0.0089
17076W        W60014  27.982   4.198  27.093  0.2177  0.0001  0.2215
17077W        W60015  26.980   5.634  26.374 -0.2257  0.0657 -0.2561
17078W        W60016  27.413   5.948  25.862  0.3491  0.1211 -0.0987
17079W        W60017  29.093   5.319  27.367 -0.5901 -0.0809 -0.1569
17080W        W60018  28.534   5.083  25.549 -0.1372 -0.3797  0.2006
17081W        W60019  26.833   4.975  25.266 -0.0713  0.0564  0.1861
17082W        W60020  27.731   7.350  26.772  0.1869 -0.0243 -0.1542
17083W        W60021  29.595   5.309  25.131  0.1364 -0.0565 -0.1848
17084W        W60022  26.697   5.238  24.806  0.0856 -0.0379  0.1436
17085W        W60023  26.423   5.835  26.223  0.1980 -0.1271  0.0772
17086W        W60024  27.488   5.787  26.727 -0.1386 -0.4362 -0.0933
17087W        W60025  28.047   4.757  25.193 -0.3647  0.1855 -0.1152
17088W        W60026  26.812   4.527  25.512 -0.0472 -0.2196 -0.2674
17089W        W60027  27.314   6.561  23.244 -0.0533  0.0723  0.0507
17090W        W60028  26.216   7.062  29.231  0.1916  0.1029  0.2049
17091W        W60029  26.918   5.042  26.631  0.3215 -0.0858 -0.1752
17092W        W60030  25.666   6.202  24.071  0.0426 -0.0385 -0.1538
17093W        W60031  27.073   6.251  22.929 -0.3131 -0.1604  0.1626
17094W        W60032  27.673   4.797  24.853 -0.0800  0.4089 -0.2703
17095W        W60033  28.165   7.340  24.670  0.0722 -0.2003  0.0279
17096W        W60034  24.862   6.019  24.249  0.1233  0.1468  0.2921
17097W        W60035  25.410   7.485  25.871  0.2469 -0.0671  0.0838
17098W        W60036  25.355   6.358  24.854  0.1053 -0.0917 -0.1483
17099W        W60037  29.103   7.288  23.589  0.3130 -0.0923  0.1190
17100W        W60038  27.065   7.532  25.218  0.0558 -0.0075  0.3352
17101W        W60039  28.753   6.944  27.304 -0.2689  0.0409  0.4276
17102W        W60040  28.142   4.004  25.795 -0.0195 -0.2132  0.1492
17103W        W60041  28.647   5.327  24.674 -0.0157 -0.2015  0.0777
17104W        W60042  29.034   5.390  24.956 -0.1967  0.1022 -0.2045
17105W        W60043  28.113   7.426  26.490  0.2298  0.4063  0.0602
17106W        W60044  26.394   5.288  25.377 -0.0395 -0.3415 -0.1414
17107W        W60045  26.247   3.194  23.142  0.0938 -0.2608  0.0258
17108W        W60046  26.079   4.692  26.978  0.2328 -0.0728 -0.1596
17109W        W60047  28.871   3.652  27.541 -0.2324  0.0618 -0.1858
17110W        W60048  25.886   7.309  24.851 -0.1791 -0.2164 -0.4007
17111W        W60049  29.412   7.203  24.678  0.0405 -0.1338 -0.1959
17112W        W60050  26.144   5.665  23.860 -0.2766  0.0253  0.1304
17113W        W60051  26.176   5.959  24.658 -0.0833  0.1019 -0.1237
17114W        W60052  28.876   4.011  28.017  0.5147  0.0735 -0.0764
17115W        W60053  27.773   6.054  23.929  0.0442 -0.0551  0.0913
17116W        W60054  26.787   4.664  26.194 -0.2148  0.2356 -0.2585
17117W        W60055  27.494   7.580  25.481  0.0494  0.0255 -0.2367
17118W        W60056  26.074   5.822  26.866 -0.3019 -0.4007 -0.2902
17119W        W60057  27.648   6.481  25.627 -0.0348  0.0566 -0.0540
17120W        W60058  24.005   4.479  24.340 -0.1255  0.0520 -0.0478
17121W        W60059  28.734   5.456  25.806  0.0849  0.1975 -0.4424
17122W        W60060  26.036   5.583  26.444  0.0402 -0.2851 -0.2330
17123W        W60061  28.252   3.344  27.610  0.1007 -0.1029  0.2486
17124W        W60062  26.200   4.609  24.349  0.0719 -0.1023  0.2831
17125W        W60063  27.684   5.141  26.149 -0.0764 -0.2207  0.0589
17126W        W60064  25.890   6.060  26.087  0.2243  0.1704 -0.1548
17127W        W60065  25.742   5.166  26.225  0.1192 -0.0536 -0.1225
17128W        W60066  28.719   4.759  23.583  0.3872 -0.1637  0.0568
17129W        W60067  30.759   4.938  27.589 -0.1233 -0.1257  0.2109
17130W        W60068  29.922   4.784  25.698  0.0675 -0.2544 -0.0749
17131W        W60069  27.762   6.699  27.330  0.0649  0.1776 -0.0014
17132W        W60070  26.215   4.279  25.485 -0.4059  0.2914  0.2632
17133W        W60071  27.920   3.921  24.914  0.1824 -0.1304  0.0133
17134W        W60072  26.354   5.461  23.394 -0.1294  0.0394  0.1108
17135W        W60073  26.594   6.781  26.961 -0.3487  0.1471 -0.0480
17136W        W60074  28.260   6.000  27.856 -0.1740 -0.0300  0.2540
17137W        W60075  25.381   5.850  25.048  0.1597 -0.2384 -0.0829
17138W        W60076  27.344   4.435  24.622  0.0774 -0.1415  0.1428
17139W        W60077  28.650   5.788  26.597  0.2563 -0.0725 -0.0550
17140W        W60078  27.497   8.494  23.763 -0.1928 -0.0362  0.0646
17141W        W60079  28.496   4.585  25.889 -0.1624 -0.0985  0.0564
17142W        W60080  28.963   6.711  25.802  0.1253  0.2883  0.2927
17143W        W60081  24.606   5.660  25.906  0.1059 -0.0015 -0.1924
17144W        W60082  30.097   7.292  25.770  0.2115 -0.2636  0.1621
17145W        W60083  29.350   6.405  26.277 -0.2168  0.1867 -0.0611
17146W        W60084  27.603   3.797  27.197  0.1748 -0.2067 -0.0889
17147W        W60085  24.258   5.009  25.414 -0.2703  0.1463  0.0495
17148W        W60086  24.778   6.935  24.744  0.0747  0.2603  0.0093
17149W        W60087  30.001   5.307  25.954  0.3085  0.3389  0.2132
17150W        W60088  27.670   4.929  26.600 -0.0318  0.0230  0.0964
17151W        W60089  27.215   7.317  23.486 -0.1964  0.0213 -0.1043
17152W        W60090  29.314   2.801  28.536 -0.0690 -0.0754  0.0804
17153W        W60091  27.259   6.597  27.271  0.0353  0.0521 -0.1050
17154W        W60092  26.300   6.761  25.500 -0.5234  0.0843 -0.3216
17155W        W60093  24.534   5.639  24.395  0.2396 -0.0591  0.0974
17156W        W60094  26.859   5.227  26.137 -0.0643 -0.2174  0.0728
17157W        W60095  27.747   6.915  26.168  0.0274 -0.2251 -0.0271
17158W        W60096  26.162   7.019  24.205 -0.0711 -0.3392 -0.0510
17159W        W60097  28.087   6.588  26.377  0.1496  0.1357 -0.2607
17160W        W60098  29.103   5.184  25.989  0.1543  0.1490 -0.0040
17161W        W60099  28.953   5.896  24.950 -0.0987 -0.1763 -0.0114
17162W        W60100  27.189   4.909  24.786  0.5040 -0.0521 -0.0659
17163W        W60101  28.346   3.591  25.754 -0.0451  0.1919 -0.0871
17164W        W60102  28.006   3.755  26.866 -0.3384 -0.0268 -0.1188
17165W        W60103  27.665   4.446  25.554  0.0403 -0.0940 -0.1372
17166W        W60104  24.447   3.935  23.161 -0.1727 -0.2569 -0.1558
17167W        W60105  26.926   5.689  23.347  0.0570  0.0260  0.1214
17168W        W60106  25.862   5.145  25.562 -0.1882  0.1811 -0.0947
17169W        W60107  26.307   4.016  27.657 -0.2067 -0.1249 -0.3119
17170W        W60108  26.532   5.627  27.191 -0.0630  0.3242  0.1516
17171W        W60109  26.512   5.006  25.855 -0.1965  0.1694 -0.1732
17172W        W60110  24.777   3.824  23.725 -0.2239  0.0706  0.1249
17173W        W60111  28.175   5.778  24.783  0.3486  0.1168  0.1207
17174W        W60112  26.310   4.093  26.288  0.2447 -0.1462  0.1864
17175W        W60113  26.087   3.694  26.087  0.1447 -0.1886  0.2284
17176W        W60114  27.361   5.256  25.303  0.2325  0.3202  0.0545
17177W        W60115  28.846   6.378  24.894  0.0083 -0.2257 -0.1268
17178W        W60116  26.743   3.000  25.946 -0.2979  0.0756  0.4228
17179W        W60117  29.052   6.511  27.169 -0.2562  0.1362  0.1306
17180W        W60118  26.988   5.145  24.397  0.2511 -0.2708  0.0167
17181W        W60119  26.800   5.164  27.398  0.1053  0.3007 -0.1220
17182W        W60120  26.463   5.712  27.878  0.2993  0.1698 -0.2214
17183W        W60121  25.208   3.304  23.142  0.3479  0.1091  0.0540
17184W        W60122  27.962   4.420  25.913  0.0189 -0.2715  0.1498
17185W        W60123  26.121   6.942  24.700 -0.1443  0.0519  0.0092
17186W        W60124  28.362   7.600  23.765  0.1778  0.1343  0.0719
17187W        W60125  25.583   6.845  24.810 -0.0900  0.0469 -0.1331
17188W        W60126  27.930   6.665  27.775  0.1436  0.2857  0.1154
17189W        W60127  26.267   4.350  27.289 -0.0977  0.1229 -0.1013
17190W        W60128  28.721   7.126  23.959  0.0369 -0.0244  0.3655
17191W        W60129  27.284   6.808  25.950 -0.0916  0.0342  0.1001
17192W        W60130  29.343   6.380  23.786 -0.3218  0.1253  0.2070
17193W        W60131  30.078   3.447  27.854  0.1503  0.1547  0.2168
17194W        W60132  28.192   5.711  23.833  0.1630 -0.0228  0.3968
17195W        W60133  24.614   5.011  25.945  0.2383  0.0400  0.1010
17196W        W60134  26.401   7.255  26.598  0.2646  0.1442 -0.2306
17197W        W60135  29.980   5.627  26.651 -0.1289  0.2006 -0.0037
17198W        W60136  27.123   3.512  27.317  0.3745  0.0781 -0.0640
17199W        W60137  27.661   2.868  27.504  0.0366 -0.1697  0.1613
17200W        W60138  28.003   4.906  24.131  0.1466  0.2779 -0.2091
17201W        W60139  25.120   5.775  25.853  0.1329 -0.0762  0.2065
17202W        W60140  27.463   3.363  25.796 -0.0088 -0.1074 -0.0119
17203W        W60141  28.230   4.981  27.839 -0.3288 -0.1532  0.1871
17204W        W60142  27.876   5.680  25.198 -0.0779  0.2653 -0.0256
17205W        W60143  28.079   6.480  26.947 -0.0494  0.1112 -0.0723
17206W        W60144  26.409   6.582  23.662 -0.2347  0.1385 -0.1324
17207W        W60145  27.950   6.463  23.241 -0.1195  0.2126  0.1246
17208W        W60146  28.407   8.121  26.244  0.1160 -0.1086 -0.0293
17209W        W60147  28.441   6.927  27.705  0.0490  0.0396  0.0958
17210W        W60148  26.905   7.215  26.831  0.2840 -0.0028  0.0540
17211W        W60149  28.160   5.214  25.256  0.1033 -0.0345  0.0597
17212W        W60150  27.073   4.062  28.002  0.2018 -0.0278 -0.0252
17213W        W60151  26.601   5.885  23.851  0.3531 -0.0111 -0.0897
17214W        W60152  27.120   5.930  24.973  0.0287 -0.1395  0.1819
17215W        W60153  27.844   4.478  26.684 -0.1705 -0.1335  0.3093
17216W        W60154  26.006   4.821  25.912 -0.2794 -0.3221  0.4052
17217W        W60155  28.195   3.698  25.237  0.0651  0.0571 -0.1558
17218W        W60156  26.797   7.518  26.400  0.0380 -0.0533  0.0683
17219W        W60157  27.739   6.820  26.780  0.3403  0.3308  0.0428
17220W        W60158  25.983   7.124  31.192  0.2301  0.1174 -0.0397
17221W        W60159  25.842   6.002  28.277  0.0445  0.0837 -0.1194
17222W        W60160  28.248   4.842  28.344  0.2306 -0.2102  0.2371
17223W        W60161  26.797   6.433  27.373  0.2525  0.1665  0.2392
17224W        W60162  23.682   4.353  28.074 -0.1465 -0.2499  0.3254
17225W        W60163  28.149   7.230  28.742  0.1816  0.1360  0.1355
17226W        W60164  26.449   4.398  30.530 -0.2321  0.0296 -0.1984
17227W        W60165  28.622   6.237  30.220  0.1924  0.0875 -0.3150
17228W        W60166  26.964   8.255  30.006  0.1647 -0.2855 -0.0156
17229W        W60167  26.917   6.500  26.796  0.4084 -0.3846  0.4740
17230W        W60168  26.237   5.785  29.917 -0.0614  0.3608 -0.0190
17231W        W60169  27.627   6.469  30.260 -0.2133  0.0252 -0.0443
17232W        W60170  26.533   4.428  28.477  0.0553 -0.2749 -0.1907
17233W        W60171  26.347   4.688  29.856 -0.1157 -0.0998 -0.0876
17234W        W60172  27.663   6.435  31.843  0.0270  0.2426  0.2916
17235W        W60173  25.892   5.076  28.573 -0.1018 -0.1174 -0.0225
17236W        W60174  25.084   5.607  27.899  0.1678 -0.0089 -0.2577
17237W        W60175  25.065   6.011  30.051 -0.0430 -0.1739  0.1076
17238W        W60176  29.034   6.602  29.103 -0.0340 -0.1438 -0.0817
17239W        W60177  26.831   6.587  30.330  0.0932  0.3139  0.0951
17240W        W60178  28.194   4.516  31.149  0.0516  0.2775 -0.0960
17241W        W60179  26.596   7.329  28.896  0.0297  0.0214 -0.0419
17242W        W60180  26.289   5.141  27.520  0.1566 -0.0345  0.0434
17243W        W60181  25.861   5.710  30.456 -0.3565 -0.2591 -0.1691
17244W        W60182  27.153   6.801  29.741 -0.0965  0.0349  0.0266
17245W        W60183  27.803   4.815  29.230 -0.4447 -0.3237 -0.0294
17246W        W60184  27.994   5.186  27.414 -0.1552 -0.0632  0.1151
17247W        W60185  26.057   8.562  28.975 -0.0154  0.1805  0.0554
17248W        W60186  27.034   7.203  30.238  0.1553 -0.3714 -0.0835
17249W        W60187  27.244   4.627   0.770 -0.0171  0.0574  0.0825
17250W        W60188  25.227   5.967  29.074 -0.1168 -0.2923  0.0652
17251W        W60189  25.393   6.673  28.947  0.0459 -0.1297  0.0368
17252W        W60190  25.923   6.750  28.970 -0.2157 -0.1819  0.0765
17253W        W60191  29.557   7.118  28.826  0.1663  0.1173 -0.4813
17254W        W60192  29.030   6.788  30.408 -0.0034 -0.0164 -0.0973
17255W        W60193  26.319   7.545  31.098 -0.1925 -0.1881  0.2606
17256W        W60194  27.611   6.281  29.196 -0.0568 -0.0027  0.1384
17257W        W60195  28.169   8.555  31.274 -0.0561 -0.1638  0.1237
17258W        W60196  26.293   5.798   0.783 -0.4276  0.3211  0.2000
17259W        W60197  26.916   6.590  30.937  0.0099 -0.1577 -0.0138
17260W        W60198  26.821   5.318  28.814 -0.3084  0.1254 -0.4779
17261W        W60199  27.177   6.957  28.461 -0.1424 -0.2363  0.2099
17262W        W60200  29.046   3.886  29.399  0.2229 -0.3778 -0.1050
17263W        W60201  26.521   6.224  31.834  0.0217  0.3078  0.2353
17264W        W60202  25.346   8.053  29.552 -0.0431  0.2780  0.0403
17265W        W60203  30.295   3.691  31.592 -0.0158  0.1756 -0.0981
17266W        W60204  26.672   7.437  27.219 -0.4792  0.0769  0.0977
17267W        W60205  27.298   5.314  26.541 -0.3678  0.1487 -0.2265
17268W        W60206  27.487   4.869  27.513 -0.0404 -0.2021 -0.1668
17269W        W60207  28.043   5.138  29.000  0.0525 -0.0529 -0.2418
17270W        W60208  27.639   6.951  29.261 -0.0542 -0.1222  0.2448
17271W        W60209  26.495   8.313  29.714  0.1845  0.2202  0.1928
17272W        W60210  27.206   6.201  28.891  0.1249  0.0350  0.2271
17273W        W60211  27.876   5.955  31.135  0.1908 -0.3697 -0.0228
17274W        W60212  28.963   5.345  28.816 -0.2461 -0.2319  0.2276
17275W        W60213  28.131   5.024  29.543 -0.1173 -0.1040 -0.2277
17276W        W60214  25.917   6.431  31.229  0.1707 -0.1740 -0.0776
17277W        W60215  25.332   6.248  28.582  0.0137  0.3163 -0.1117
17278W        W60216  28.194   5.753  29.218  0.0563  0.0757 -0.0629
17279W        W60217  30.779   6.573  29.519  0.1806  0.0404 -0.0112
17280W        W60218  26.652   7.023  28.497 -0.0761  0.1292  0.2633
17281W        W60219  25.080   5.271  28.310 -0.0597 -0.1156 -0.0775
17282W        W60220  24.745   6.417  31.259  0.1508  0.1037  0.0605
17283W        W60221  24.353   4.928   0.382 -0.2321 -0.0015  0.0878
17284W        W60222  25.803   3.070  28.763 -0.2499 -0.2332  0.1595
17285W        W60223  29.655   4.486  31.902  0.0923 -0.2651 -0.1268
17286W        W60224  25.101   7.483  30.142 -0.2184  0.0114  0.2218
17287W        W60225  28.911   5.189  29.336  0.1338 -0.0810  0.1030
17288W        W60226  26.944   5.654  27.536  0.2740 -0.0562  0.0498
17289W        W60227  29.739   5.925  31.015  0.0517  0.0733 -0.1360
17290W        W60228  28.731   5.802  28.022 -0.1316 -0.1269 -0.1345
17291W        W60229  27.493   5.259  31.203  0.3116  0.4150  0.1931
17292W        W60230  26.611   5.401  28.370 -0.0483 -0.0333  0.0530
17293W        W60231  25.893   5.313  27.768 -0.0214 -0.1973  0.0381
17294W        W60232  26.649   7.864  26.837 -0.0971 -0.1023  0.0985
17295W        W60233  28.086   6.764   0.175  0.0643 -0.1192 -0.1069
17296W        W60234  28.156   5.159  26.516 -0.0654 -0.0861  0.0238
17297W        W60235  26.130   8.991  28.700  0.1763 -0.1817  0.3290
17298W        W60236  26.761   5.931   0.708 -0.0517  0.0615  0.2807
17299W        W60237  28.167   6.850   1.547  0.1728 -0.1802  0.0519
17300W        W60238  26.279   7.326  28.246 -0.2434 -0.0971  0.0439
17301W        W60239  25.669   5.547  31.112 -0.1346  0.0648  0.1258
17302W        W60240  25.654   6.674  28.500 -0.0078  0.1311 -0.1181
17303W        W60241  26.372   5.218  29.893  0.1125  0.0823 -0.1548
17304W        W60242  25.684   5.185  30.384 -0.2283 -0.3678  0.5201
17305W        W60243  27.994   5.253  28.203  0.2292  0.0978 -0.3476
17306W        W60244  26.894   5.720  30.729 -0.1879 -0.1192 -0.1004
17307W        W60245  29.259   4.820  30.452  0.1271 -0.1781 -0.2897
17308W        W60246  26.412   6.634  28.854  0.2310 -0.0292  0.0378
17309W        W60247  28.474   7.070  29.149  0.1249  0.1374 -0.0305
17310W        W60248  29.082   5.516  28.307 -0.0093 -0.0599  0.1528
17311W        W60249  28.291   5.103  27.014  0.0465 -0.2780 -0.0684
17312W        W60250  25.967   6.138  30.203  0.1168  0.0884 -0.0346
17313W        W60251  24.613   5.032  28.398 -0.0454 -0.0760  0.0323
17314W        W60252  26.750   4.931  30.120  0.2670  0.1072 -0.2194
17315W        W60253  24.648   4.996  29.671 -0.0096 -0.0467 -0.0723
17316W        W60254  27.872   4.675  29.908  0.0833  0.1736  0.3509
17317W        W60255  26.524   4.810  28.108 -0.5029  0.0046  0.0008
17318W        W60256  28.108   6.297  27.421 -0.1457  0.0045  0.0574
17319W        W60257  25.143   6.648  28.401 -0.1637  0.0183 -0.1108
17320W        W60258  26.884   6.395  29.613  0.2514  0.1601 -0.1592
17321W        W60259  29.583   3.922  31.072 -0.0764  0.2646  0.0413
17322W        W60260  30.068   7.660  29.073  0.0215  0.1017  0.0080
17323W        W60261  28.831   5.987  31.146 -0.5124  0.2267 -0.2764
17324W        W60262  29.204   6.299  30.255  0.2934  0.0100  0.2231
17325W        W60263  27.427   5.619  29.591  0.0733 -0.0322 -0.1176
17326W        W60264  25.796   5.497  28.220  0.0570  0.0708 -0.2975
17327W        W60265  25.675   8.264  29.227 -0.0460 -0.0909 -0.2482
17328W        W60266  27.013   7.081  28.979 -0.0038 -0.1321  0.0683
17329W        W60267  25.578   6.426  28.018 -0.0963 -0.0703  0.1793
17330W        W60268  28.836   6.922  29.500  0.2403 -0.0802  0.0758
17331W        W60269  26.080   5.738  28.664  0.3823  0.3492 -0.3248
17332W        W60270  24.570   6.704  30.101  0.0393  0.0206 -0.0508
17333W        W60271  28.990   3.419  29.630  0.1002 -0.0484  0.1289
17334W        W60272  29.848   6.637  31.812 -0.0951 -0.3058  0.3180
17335W        W60273  28.155   5.966  30.236 -0.3316  0.0003  0.1036
17336W        W60274  24.821   4.160  28.453 -0.2134  0.0938  0.1623
17337W        W60275  28.839   7.438  29.468 -0.1624 -0.0117 -0.0059
17338W        W60276  26.246   7.520  27.028 -0.0838  0.1393  0.2030
17339W        W60277  24.778   5.680  30.278 -0.0015  0.0860  0.0350
17340W        W60278  28.130   7.261  30.309  0.0934 -0.2494  0.1660
17341W        W60279  28.316   5.753  30.771  0.0203  0.1688 -0.2934
17342W        W60280  25.550   4.962  31.627  0.2442 -0.0853 -0.1588
17343W        W60281  27.310   6.569  31.277  0.1143 -0.0731 -0.1072
17344W        W60282  25.582   5.422  27.379 -0.3652  0.0513 -0.0026
17345W        W60283  26.700   5.414   0.650 -0.0512 -0.1511 -0.0784
17346W        W60284  29.711   3.453  29.182  0.1111  0.2473  0.1122
17347W        W60285  29.579   4.662  29.314  0.0730 -0.0127 -0.1007
17348W        W60286  27.468   6.375  30.743  0.1438 -0.3803 -0.0481
17349W        W60287  28.511   6.080  28.833 -0.0195 -0.0175  0.1527
17350W        W60288  27.382   5.826  27.843 -0.0996  0.0857 -0.2643
17351W        W60289  27.996   3.521  28.019 -0.1106  0.2655 -0.0790
17352W        W60290  23.564   4.940  30.572  0.1312  0.0266 -0.0369
17353W        W60291  27.855   5.595  28.861  0.1922  0.3401  0.0187
17354W        W60292  25.964   6.018  29.546  0.0069 -0.3334  0.0517
17355W        W60293  28.448   4.155  28.148 -0.0805  0.1084  0.1003
17356W        W60294  27.939   6.374  29.888 -0.1925  0.2103  0.0614
17357W        W60295  26.617   7.882  30.045 -0.1399  0.1716  0.2176
17358W        W60296  27.860   6.870  31.536  0.0469  0.2516  0.2646
17359W        W60297  26.882   7.395  29.384  0.1706 -0.0220 -0.0893
17360W        W60298  26.993   5.855  29.413  0.1236  0.1244 -0.0985
17361W        W60299  25.376   5.134  27.812  0.0929  0.1083 -0.0046
17362W        W60300  28.118   5.669  29.814 -0.0864  0.0389 -0.0644
17363W        W60301  25.744   7.577  28.065  0.2274  0.0026 -0.1879
17364W        W60302  31.020   3.769  30.464 -0.5033 -0.2786  0.1200
17365W        W60303  27.491   5.307  29.040 -0.0353 -0.4958  0.2537
17366W        W60304  27.366   4.415  30.154  0.1088 -0.1722 -0.0676
17367W        W60305  28.235   5.702  31.847  0.0764  0.0745  0.1076
17368W        W60306  28.195   3.785  28.383  0.2723  0.1067  0.0281
17369W        W60307  27.424   6.149  31.452 -0.0980 -0.0671 -0.0409
17370W        W60308  26.889   6.383  26.154  0.3093  0.1485  0.2511
17371W        W60309  26.143   5.356  30.318  0.0778  0.2993 -0.0403
17372W        W60310  24.200   7.682  30.643 -0.1056 -0.1994  0.4156
17373W        W60311  26.058   7.432  29.774 -0.0823  0.2150 -0.0245
17374W        W60312  27.121   6.449  31.783  0.0287  0.1241  0.1443
17375W        W60313  27.849   5.461  29.455  0.0030  0.4159 -0.0371
17376W        W60314  27.055   3.934  30.973  0.0135 -0.0455 -0.0771
17377W        W60315  27.589   5.949  28.392 -0.0855  0.0074  0.0018
17378W        W60316  27.965   6.794  28.969 -0.1399 -0.1705 -0.1975
17379W        W60317  26.690   6.418  25.349  0.3631  0.2746  0.0997
17380W        W60318  27.692   4.144  29.792  0.0077 -0.0941 -0.1859
17381W        W60319  27.131   7.773  30.143 -0.2485  0.1186 -0.1948
17382W        W60320  26.166   7.191  26.167  0.0255  0.0226 -0.1413
17383W        W60321  27.936   6.057  31.622  0.1952  0.1466  0.2377
17384W        W60322  27.079   6.204  28.329 -0.2284 -0.1283  0.0489
17385W        W60323  27.622   5.292  30.629  0.2582  0.0440 -0.0014
17386W        W60324  25.101   8.306  29.891 -0.0800  0.1866  0.0741
17387W        W60325  26.103   5.623  27.437  0.2169  0.1165 -0.4046
17388W        W60326  24.383   6.403  27.403 -0.0632  0.0284  0.2850
17389W        W60327  28.352   5.076  30.139  0.0672 -0.1371 -0.0398
17390W        W60328  29.141   5.644  26.433  0.2379 -0.2090 -0.0070
17391W        W60329  26.594   6.571  28.380  0.1299  0.0381 -0.4442
17392W        W60330  27.721   6.345  28.701 -0.2085  0.2913 -0.0385
17393W        W60331  23.750   7.371  30.786  0.0009 -0.1433 -0.1558
17394W        W60332  26.837   6.143  30.494 -0.0463  0.0886 -0.0053
17395W        W60333  28.134   4.675  28.831  0.3711 -0.1073 -0.2344
17396W        W60334  28.952   5.929   0.055 -0.0549 -0.2435  0.1247
17397W        W60335  26.404   4.617   0.088 -0.1009 -0.1978  0.1462
17398W        W60336  25.159   4.874  26.837 -0.1295  0.0589  0.1701
17399W        W60337  29.053   5.434  29.835  0.0581  0.2318  0.5014
17400W        W60338  25.213   4.510  28.243  0.0995  0.2017  0.3063
17401W        W60339  25.456   7.482  29.330  0.0878 -0.0046  0.2807
17402W        W60340  28.393   6.541  29.870  0.1410 -0.1066 -0.2057
17403W        W60341  26.281   7.117  27.293 -0.0761 -0.0206  0.0464
17404W        W60342  26.677   7.313  29.823  0.2647  0.0640 -0.2653
17405W        W60343  26.317   4.466  31.087 -0.0193 -0.0130 -0.1426
17406W        W60344  28.983   6.329  30.787  0.0778  0.1533 -0.0085
17407W        W60345  26.416   5.484  29.399 -0.0609  0.0944 -0.0402
17408W        W60346  27.086   5.373  27.921  0.0209  0.1203 -0.2334
17409W        W60347  27.459   4.584  28.997 -0.0003  0.0357 -0.1869
17410W        W60348  28.066   5.453  30.330  0.0996 -0.0912 -0.0341
17411W        W60349  25.881   7.483  30.652  0.1216 -0.1331  0.0769
17412W        W60350  26.027   7.878  31.461  0.2741  0.0293  0.0386
17413W        W60351  27.743   4.441  30.877 -0.2198  0.1094  0.3172
17414W        W60352  29.889   6.709  28.812 -0.0651  0.3167  0.1247
17415W        W60353  26.501   5.442  30.849  0.3576 -0.2269  0.0124
17416W        W60354  25.802   7.183  28.329 -0.2070  0.2813  0.2763
17417W        W60355  24.786   5.562  30.766 -0.2567 -0.3173 -0.0478
17418W        W60356  27.421   6.723  28.877  0.0108  0.3026  0.1297
17419W        W60357  27.624   5.417  30.033  0.0953  0.2165  0.2975
17420W        W60358  24.620   6.064  30.838 -0.3488  0.0629  0.1825
17421W        W60359  26.574   6.094  30.049 -0.1665 -0.1713  0.3035
17422W        W60360  25.525   7.193  29.875  0.2058 -0.3564 -0.0491
17423W        W60361  28.475   2.854  28.325 -0.0270 -0.2292 -0.1848
17424W        W60362  27.389   6.106  29.594  0.0972 -0.0258 -0.0387
17425W        W60363  27.497   5.394  28.353  0.1797 -0.1857  0.1357
17426W        W60364  28.525   4.796  29.282  0.0035 -0.1249  0.1383
17427W        W60365  27.843   5.722  28.050 -0.0128  0.2235  0.2034
17428W        W60366  29.656   4.050  30.578  0.0093  0.1465 -0.1712
17429W        W60367  25.436   4.611  29.659 -0.2794  0.1475 -0.2237
17430W        W60368  29.287   5.886  27.950  0.1615  0.0656 -0.2430
17431W        W60369  26.308   5.312  28.868 -0.1029 -0.0701 -0.4821
17432W        W60370  28.662   8.352  31.230  0.3255  0.0490 -0.0844
17433W        W60371  25.197   5.570  30.100  0.0952  0.0592  0.1877
17434W        W60372  26.698   4.886  29.067  0.0620  0.0144  0.5896
17435W        W60373  25.349   3.968  27.509  0.1139 -0.2214 -0.1097
17436W        W60374  27.225   6.322  30.050 -0.0676 -0.0929 -0.2205
17437W        W60375  27.843   5.788  30.689 -0.5943 -0.1002 -0.0417
17438W        W60376  27.825   5.945  29.473 -0.0893  0.4507 -0.0472
17439W        W60377  28.509   3.677  29.548  0.0938  0.2021 -0.1847
17440W        W60378  25.952   7.168  30.238 -0.0381  0.0826  0.0060
17441W        W60379  28.352   5.546  28.808 -0.1426  0.1662 -0.1183
17442W        W60380  26.376   6.038  27.379 -0.1209 -0.0316 -0.1164
17443W        W60381  26.217   6.199  29.076  0.4246  0.1368  0.1298
17444W        W60382  26.544   4.800  31.627  0.1125 -0.0238  0.0889
17445W        W60383  29.341   5.492  29.103  0.2373 -0.2262  0.1387
17446W        W60384  29.394   5.065  28.910 -0.1602 -0.1537  0.3402
17447W        W60385  26.917   5.980  31.750  0.0929 -0.0785  0.1110
17448W        W60386  27.112   6.113  30.998  0.0739 -0.3101  0.0687
17449W        W60387  26.937   6.802  31.496 -0.3089 -0.0949  0.2165
17450W        W60388  25.958   4.757   0.335  0.2668  0.0565 -0.2968
17451W        W60389  28.599   7.281  30.514  0.2492  0.3999 -0.3019
17452W        W60390  30.011   5.593  27.942 -0.0135  0.3454  0.2815
17453W        W60391  27.305   4.860  30.730 -0.0737  0.1818 -0.0807
17454W        W60392  27.331   5.287  27.435 -0.1800 -0.1834  0.3813
17455W        W60393  26.082   6.178  27.770 -0.1715 -0.0943 -0.2724
17456W        W60394  25.143   6.506  27.874  0.0407  0.1273 -0.2503
17457W        W60395  27.984   6.292  30.702  0.1475  0.2500  0.0453
17458W        W60396  26.221   4.559  27.759  0.0021  0.1516 -0.0173
17459W        W60397  28.875   4.388  31.752  0.0437  0.0239 -0.2317
17460W        W60398  27.929   6.428  28.222  0.3810 -0.1481 -0.3718
17461W        W60399  27.738   5.923  30.008  0.0782 -0.0311 -0.1595
17462W        W60400  27.608   5.294  27.893 -0.1114  0.2725  0.0287
17463W        W60401  24.981   4.669  29.496 -0.1046  0.0773  0.4290
17464W        W60402  25.880   8.738  30.476 -0.1515 -0.1838 -0.0825
17465W        W60403  26.459   5.099  26.914  0.0223 -0.1793 -0.0264
17466W        W60404  26.531   6.329  25.820  0.1541  0.0517  0.0622
17467W        W60405  27.821   6.919  30.489  0.2024  0.1883  0.1220
17468W        W60406  29.661   4.730  30.719  0.1629 -0.2100  0.1252
17469W        W60407  26.936   5.005  28.332 -0.0504 -0.0086 -0.2677
17470W        W60408  28.363   5.036  31.269 -0.2857  0.2687 -0.1889
17471W        W60409  25.641   7.199  28.962 -0.1650 -0.2180  0.1528
17472W        W60410  28.706   4.363  29.472 -0.1224 -0.0481  0.1271
17473W        W60411  26.328   7.879  30.703  0.0568 -0.1343  0.1265
17474W        W60412  24.859   4.818  30.475 -0.0339  0.1079 -0.0411
17475W        W60413  26.288   7.245  30.736  0.1873 -0.1378  0.2482
17476W        W60414  28.230   3.298  30.248 -0.2423 -0.1091  0.1132
17477W        W60415  27.392   5.705  30.873  0.0463  0.2004 -0.0118
17478W        W60416  27.065   5.817  30.033  0.2969  0.1806  0.0629
17479W        W60417  29.232   4.611  31.471  0.1554 -0.1392 -0.2334
17480W        W60418  28.734   6.528  31.153  0.2313 -0.0936 -0.5236
17481W        W60419  25.894   6.520  29.452 -0.1745  0.0950 -0.0731
17482W        W60420  27.057   6.935   0.042  0.0902 -0.2723 -0.0185
17483W        W60421  28.788   5.142  30.448  0.0501 -0.1468  0.1510
17484W        W60422  25.436   6.423  29.397  0.4225  0.0711 -0.0451
17485W        W60423  25.509   5.045  30.879  0.0731  0.4013  0.1504
17486W        W60424  26.515   5.797   0.248 -0.1145  0.0346 -0.2056
17487W        W60425  27.285   7.088  31.058  0.1337 -0.0314  0.0543
17488W        W60426  26.251   3.630  30.545  0.1369 -0.0970  0.0044
17489W        W60427  26.579   6.178  28.715 -0.0289 -0.1601 -0.0176
17490W        W60428  26.216   8.066  29.259 -0.1892  0.1416 -0.1033
17491W        W60429  23.803   5.505  31.164  0.1893  0.2307 -0.1830
17492W        W60430  27.183   7.401  28.659  0.2487  0.1820 -0.0675
17493W        W60431  28.065   6.192  29.055 -0.0904  0.1198 -0.4439
17494W        W60432  27.883   6.165  26.557 -0.4179  0.0887  0.1440
17495W        W60433  28.240   7.571  29.563  0.1877 -0.2107 -0.4298
17496W        W60434  26.820   5.824  28.192  0.1063  0.0372  0.1636
17497W        W60435  25.414   7.872  29.008 -0.3754  0.0965 -0.2821
17498W        W60436  25.398   7.176  27.010  0.2840 -0.2959  0.0887
17499W        W60437  28.741   5.637  29.154 -0.0638  0.0902 -0.2466
17500W        W60438  26.784   6.887  29.364 -0.0985 -0.0963 -0.0724
17501W        W60439  27.526   7.861  30.619  0.0621 -0.1452  0.1655
17502W        W60440  28.723   4.262  29.994  0.0455  0.0420  0.1684
17503W        W60441  29.183   6.283  29.413  0.2179  0.0481  0.1415
17504W        W60442  28.954   4.889  30.005 -0.1842  0.2924 -0.0669
17505W        W60443  28.952   7.981  31.105 -0.0929  0.0346  0.0971
17506W        W60444  26.650   5.460  30.257  0.0615 -0.1857 -0.0243
17507W        W60445  26.207   5.186  28.156 -0.2184 -0.0611 -0.2579
17508W        W60446  25.363   5.754  31.439  0.0277 -0.2407 -0.1867
17509W        W60447  28.663   3.370  31.100  0.0219 -0.0436  0.0126
17510W        W60448  24.227   8.058  30.982 -0.0788 -0.3699  0.2049
17511W        W60449  29.250   7.780  29.395 -0.1956  0.1391 -0.0066
17512W        W60450  24.928   5.472  27.395 -0.2496 -0.0110  0.1495
17513W        W60451  27.506   6.984  30.105 -0.2231 -0.2119  0.1057
17514W        W60452  30.232   3.835  30.028  0.0002  0.0453  0.2047
17515W        W60453  27.288   6.241  26.890  0.0872 -0.4966 -0.1872
17516W        W60454  28.537   4.744  29.800 -0.3428  0.0420  0.1421
17517W        W60455  27.725   7.815  29.660 -0.1677  0.2208 -0.0984
17518W        W60456  26.733   7.000  30.709  0.2261 -0.0868 -0.2690
17519W        W60457  26.374   6.385  30.402 -0.1627  0.0206 -0.5128
17520W        W60458  25.624   5.013  27.035  0.1108 -0.0900  0.1923
17521W        W60459  30.558   5.109  28.556  0.0982 -0.1448 -0.3601
17522W        W60460  26.337   5.845  30.446 -0.2921 -0.1978  0.2060
17523W        W60461  29.105   4.211  31.202  0.0666 -0.0105 -0.0240
17524W        W60462  26.150   6.926  29.780 -0.1025  0.0568 -0.0438
17525W        W60463  28.743   4.967  30.902 -0.1085  0.0241 -0.2318
17526W        W60464  26.615   6.762  29.955 -0.1376 -0.0885 -0.0442
17527W        W60465  25.565   5.713  29.520 -0.0971 -0.2184  0.2105
17528W        W60466  27.298   5.743  27.202  0.1616 -0.1389  0.0969
17529W        W60467  28.133   4.705   0.433 -0.0011  0.0208  0.1081
17530W        W60468  28.146   4.688  27.382  0.0244 -0.0936 -0.2051
17531W        W60469  28.428   6.246  30.897 -0.1412 -0.0167  0.1200
17532W        W60470  24.230   6.199  29.289  0.1557  0.2662  0.1484
17533W        W60471  28.269   4.222  28.739 -0.1497 -0.0427 -0.0122
17534W        W60472  25.202   5.481  29.058  0.2599 -0.1038  0.0055
17535W        W60473  25.810   7.822  29.519 -0.4185  0.1066 -0.0232
17536W        W60474  28.552   6.054  31.646 -0.2206 -0.0366  0.0175
17537W        W60475  25.433   4.705  28.724  0.2462  0.0111  0.2821
17538W        W60476  28.846   6.205  27.771  0.1889  0.1181 -0.3182
17539W        W60477  28.925   4.802  28.993  0.2102 -0.0568  0.0427
17540W        W60478  26.730   7.935  25.406  0.1536 -0.0980 -0.0944
17541W        W60479  27.172   6.614  29.255 -0.1177  0.1857  0.3523
17542W        W60480  27.101   7.825  29.656 -0.1170 -0.1890  0.0101
17543W        W60481  27.060   4.668  29.703  0.1029 -0.2036  0.4162
17544W        W60482  28.710   8.209  30.272 -0.1518 -0.0175  0.3276
17545W        W60483  28.731   7.023  30.913  0.1241 -0.1437  0.1044
17546W        W60484  26.964   4.528  28.733  0.1769  0.3261 -0.2733
17547W        W60485  26.221   6.378  29.825  0.1981 -0.0762 -0.1662
17548W        W60486  24.942   7.746  29.203  0.0359 -0.2298 -0.0080
17549W        W60487  29.217   5.531  30.409 -0.2357  0.0186 -0.1550
17550W        W60488  29.330   5.627  31.068  0.0672 -0.0946 -0.4686
17551W        W60489  28.629   6.439  27.354  0.2091  0.0594 -0.2088
17552W        W60490  28.700   4.472  30.884 -0.1821  0.1958  0.1644
17553W        W60491  27.788   7.245   0.303 -0.2344  0.0708 -0.0717
17554W        W60492  26.507   8.079   0.460  0.0330 -0.1636 -0.0467
17555W        W60493  25.483   5.805  26.252  0.0749  0.2253 -0.3399
17556W        W60494  26.921   6.192   0.251  0.2794  0.3164 -0.0707
17557W        W60495  28.081   6.574  29.474 -0.1171  0.1924 -0.0014
17558W        W60496  27.292   8.004  28.765 -0.0803  0.2242  0.2149
17559W        W60497  28.194   7.591  30.690 -0.0259  0.4188  0.0756
17560W        W60498  27.602   5.370  26.993  0.1543 -0.1839 -0.2589
17561W        W60499  29.469   7.620  28.068 -0.0585 -0.3448 -0.1657
17562W        W60500  27.066   5.788  28.725 -0.0909  0.3744  0.1486
17563W        W60501  28.499   5.032  28.740  0.0729  0.2829 -0.0410
17564W        W60502  27.323   4.093  28.896  0.3381 -0.3702 -0.0631
17565W        W60503  25.826   5.101  31.269  0.0182 -0.1830  0.0304
17566W        W60504  25.600   5.718  27.820  0.1894  0.1999 -0.0191
17567W        W60505  26.714   6.326  29.140  0.0413  0.0684  0.0349
17568W        W60506  24.640   6.164  30.293  0.2065  0.0146 -0.0462
17569W        W60507  26.892   4.622  30.447  0.3427  0.1184 -0.0422
17570W        W60508  25.490   4.935  28.269  0.0192  0.0725 -0.2107
17571W        W60509  24.883   6.477  28.857 -0.0290 -0.2406  0.0707
17572W        W60510  26.016   5.357  27.022 -0.0613 -0.0120 -0.0409
17573W        W60511  27.391   7.361  29.640  0.1097 -0.3971  0.2507
17574W        W60512  25.769   5.367  29.203  0.0021  0.0313 -0.2025
17575W        W60513  24.082   4.371  27.756  0.1445  0.1031 -0.1475
17576W        W60514  27.869   7.343  29.850 -0.1744  0.2113 -0.1288
17577W        W60515  27.986   6.843  29.894  0.0750  0.0677  0.3087
17578W        W60516  28.403   3.715  28.853 -0.1487  0.0398 -0.0092
17579W        W60517  29.411   7.474   1.073 -0.1062  0.0665 -0.0578
17580W        W60518  25.922   6.888  27.045 -0.0158 -0.1603  0.0739
17581W        W60519  27.297   5.130   0.697  0.1108 -0.0385 -0.0800
17582W        W60520  27.373   4.577  31.239 -0.2922 -0.0596  0.0439
17583W        W60521  26.091   4.671  28.358  0.0037 -0.1361  0.1522
17584W        W60522  26.811   6.303  31.385 -0.3571 -0.2318  0.3263
17585W        W60523  26.382   6.600  29.373  0.1603 -0.1697  0.2107
17586W        W60524  28.230   5.798  27.341  0.2211  0.3699  0.0707
17587W        W60525  25.490   6.121  30.368 -0.1876  0.1066  0.0241
17588W        W60526  26.440   7.023  31.786 -0.1056  0.0002  0.1613
17589W        W60527  24.756   3.841  29.221 -0.0807  0.2614  0.0794
17590W        W60528  27.294   6.537   0.225  0.1344 -0.0352 -0.2148
17591W        W60529  26.496   6.203   1.153  0.3028  0.0400  0.2379
17592W        W60530  28.986   4.893  28.514 -0.1486 -0.0341 -0.0180
17593W        W60531  28.396   5.260  30.700 -0.0094 -0.0222 -0.0190
17594W        W60532  27.511   5.106  29.652 -0.4028 -0.1285 -0.0816
17595W        W60533  26.975   5.242  30.534 -0.1201 -0.0181  0.2334
17596W        W60534  27.232   8.209  30.496 -0.0540  0.1001  0.2425
17597W        W60535  29.698   7.396  29.224  0.1758 -0.2629 -0.1378
17598W        W60536  27.377   4.402  27.872  0.2141 -0.0020  0.1067
17599W        W60537  28.451   3.667  27.943  0.3053  0.1316  0.1627
17600W        W60538  28.435   6.478  27.883 -0.0082 -0.0668  0.1412
17601W        W60539  26.466   5.997  29.450 -0.1897  0.4082  0.1869
17602W        W60540  27.741   6.133  27.863 -0.0089 -0.1810  0.1721
17603W        W60541  25.799   6.915  30.697  0.1125  0.0965  0.0933
17604W        W60542  26.356   6.912  30.330 -0.1295 -0.0097 -0.1841
17605W        W60543  30.812   4.833   0.395 -0.2336 -0.0214  0.1566
17606W        W60544  27.527   6.233  27.388 -0.2178  0.0111 -0.0412
17607W        W60545  29.445   5.618  28.620 -0.1604 -0.0148  0.1113
17608W        W60546  27.398   8.346  29.797 -0.3282  0.3267 -0.0800
17609W        W60547  28.885   6.393  31.781  0.1534 -0.0635  0.0492
17610W        W60548  27.371   7.539  31.386  0.0911  0.1924 -0.3459
17611W        W60549  27.367   5.942  30.432  0.2938  0.0702  0.3780
17612W        W60550  27.044   5.363  29.332  0.0928 -0.1106  0.1368
17613W        W60551  25.909   6.807  27.477  0.0248  0.0739 -0.2648
17614W        W60552  26.563   6.285  27.836 -0.2868  0.3035 -0.0710
17615W        W60553  28.771   5.805  30.586  0.0630  0.1135 -0.1216
17616W        W60554  26.316   6.030  28.264 -0.0196 -0.1388 -0.2000
17617W        W60555  27.243   5.007  28.726  0.0576 -0.1685  0.0039
17618W        W60556  25.691   7.613  30.177  0.1537 -0.1019 -0.2989
17619W        W60557  27.315   4.323  30.667  0.1254  0.1794  0.2270
17620W        W60558  28.621   4.113  31.291 -0.2812 -0.1285 -0.0363
17621W        W60559  26.853   6.755   0.562 -0.2028  0.3075  0.0247
17622W        W60560  25.127   4.392   0.574  0.0324  0.2988 -0.0325
17623W        W60561  25.157   6.938  30.137 -0.1740 -0.1853  0.1078
17624W        W60562  26.366   8.652  31.167  0.0410 -0.1512  0.0363
17625W        W60563  27.128   6.400   0.790  0.1281  0.0124  0.0838
17626W        W60564  27.755   5.510  31.897  0.1023 -0.0177  0.0539
17627W        W60565  26.642   5.755  31.225  0.0418  0.3419  0.0055
17628W        W60566  28.523   3.905  31.699  0.3297  0.0484  0.1905
17629W        W60567  29.492   5.358   0.633  0.0587  0.0398  0.0550
17630W        W60568  28.658   7.709  30.784 -0.0380  0.1041 -0.0653
17631W        W60569  26.023   4.258  30.162  0.1108  0.2983  0.2154
17632W        W60570  27.931   5.244  31.501 -0.1149 -0.0908 -0.0218
17633W        W60571  25.476   4.820   0.528  0.1324 -0.0967 -0.0643
17634W        W60572  28.565   5.963   0.794  0.0928  0.2448  0.3140
17635W        W60573  26.484   7.094  31.317 -0.0368  0.0403 -0.0451
17636W        W60574  26.319   5.635   1.364 -0.1316 -0.2265 -0.3689
17637W        W60575  29.408   6.125   0.548 -0.0189 -0.0650  0.0922
17638W        W60576  27.064   4.828  31.559 -0.0415  0.2844  0.0658
17639W        W60577  26.743   4.648   0.565  0.0953  0.2228  0.1084
17640W        W60578  24.701   5.520  31.341  0.3153 -0.0850 -0.1187
17641W        W60579  26.040   8.390  29.613 -0.2019  0.1231 -0.0695
17642W        W60580  29.307   3.409  31.773 -0.1196  0.3191  0.1234
17643W        W60581  29.209   3.809  30.418  0.2591  0.0019 -0.1509
17644W        W60582  28.600   3.640  30.019 -0.3552 -0.5607 -0.1748
17645W        W60583  28.632   4.621  31.317  0.2318 -0.0449 -0.2522
17646W        W60584  27.169   5.702   0.574 -0.1138 -0.0895 -0.1789
17647W        W60585  25.404   8.681  30.685 -0.1726 -0.2858 -0.0833
17648W        W60586  23.788   4.721  30.957 -0.0808 -0.1530  0.0693
17649W        W60587  26.918   7.309  31.567 -0.5616 -0.0986  0.1655
17650W        W60588  26.393   6.704   0.128  0.0858  0.1400  0.1471
17651W        W60589  25.730   6.025  31.300 -0.2053  0.1663  0.1917
17652W        W60590  28.958   5.195   0.306  0.0384  0.3023  0.0629
17653W        W60591  27.520   3.860   0.072 -0.4294  0.1460  0.0069
17654W        W60592  25.718   5.469  31.607 -0.3144  0.0898  0.1395
17655W        W60593  25.247   5.663   0.951  0.0151  0.1203  0.0317
17656W        W60594  26.316   5.312   1.000 -0.0895  0.1131 -0.0701
17657W        W60595  27.358   5.859   0.042 -0.3655  0.2729 -0.1952
17658W        W60596  27.563   4.271   0.642  0.0565  0.1989 -0.0315
17659W        W60597  27.613   6.884   0.020  0.0013  0.1359  0.3018
17660W        W60598  27.818   4.920  31.013 -0.0410  0.2923  0.1776
17661W        W60599  27.126   5.662  31.347 -0.0735  0.0074  0.3001
17662W        W60600  26.711   3.984  31.735  0.0176  0.1371 -0.3493
17663W        W60601  26.409   7.159   0.385 -0.2256  0.1107 -0.1831
17664W        W60602  25.251   5.375  31.104  0.3043 -0.0080  0.1972
17665W        W60603  27.722   5.872   0.776  0.0954 -0.0432 -0.3327
17666W        W60604  29.316   2.980   0.278 -0.3553  0.1788 -0.1089
17667W        W60605  27.699   7.384  31.793 -0.2383 -0.1662 -0.1393
17668W        W60606  26.262   6.651   0.895  0.1791  0.2414 -0.1696
17669W        W60607  26.061   6.693   0.461 -0.0611  0.0686 -0.0492
17670W        W60608  28.725   7.161   0.007  0.2190 -0.2310 -0.0131
17671W        W60609  28.166   4.215   0.464 -0.1185  0.1337  0.0949
17672W        W60610  27.786   3.586  30.414  0.2971 -0.0042  0.3544
17673W        W60611  27.669   6.855  30.930  0.0989  0.3523 -0.0792
17674W        W60612  25.463   4.713  30.287 -0.2121 -0.0333 -0.0477
17675W        W60613  27.605   5.718  31.458 -0.4815  0.0780  0.0935
17676W        W60614  29.628   5.957  31.517  0.2044 -0.0924  0.2442
17677W        W60615  25.368   5.797   0.006 -0.0922  0.1321  0.0117
17678W        W60616  28.911   7.031  31.497  0.1461 -0.1164 -0.2731
17679W        W60617  26.518   6.357   0.490  0.2675  0.0673 -0.0735
17680W        W60618  24.259   4.996  31.029  0.1764 -0.1314 -0.1744
17681W        W60619  26.202   7.183   1.464  0.2151  0.2345  0.1249
17682W        W60620  25.600   6.551  31.635 -0.1924 -0.1651 -0.0731
17683W        W60621  25.966   4.625  31.402  0.2939 -0.1197  0.0590
17684W        W60622  29.171   6.530   0.812 -0.2990  0.0858 -0.1327
17685W        W60623  28.763   6.264   0.452  0.0327  0.0432 -0.2832
17686W        W60624  29.485   4.742   0.290 -0.1707  0.1616  0.1605
17687W        W60625  27.032  10.258  19.590  0.2482 -0.0274  0.3330
17688W        W60626  27.134   8.293  17.224  0.1868 -0.3277 -0.2296
17689W        W60627  28.656   8.354  15.830 -0.1234 -0.0561 -0.0000
17690W        W60628  30.522   6.953  16.936  0.1707  0.0251  0.0455
17691W        W60629  25.118   7.972  17.624 -0.3045  0.2204  0.0890
17692W        W60630  28.923   9.475  16.881 -0.3376  0.4212 -0.0405
17693W        W60631  26.252   7.770  18.909 -0.0060  0.0466  0.0852
17694W        W60632  27.483  11.288  18.574  0.1693 -0.1283  0.0968
17695W        W60633  29.218  10.327  18.930 -0.3102 -0.3741  0.1791
17696W        W60634  27.748   8.329  16.384  0.1627  0.1597  0.1773
17697W        W60635  25.906   8.530  17.620 -0.1705 -0.2625 -0.1729
17698W        W60636  25.423   8.375  17.679 -0.1893 -0.3543 -0.0904
17699W        W60637  26.715   8.894  16.505 -0.2549  0.2332  0.2374
17700W        W60638  25.560   6.835  17.345 -0.0662  0.1212  0.2251
17701W        W60639  28.275   8.510  19.350 -0.1317  0.1651 -0.2561
17702W        W60640  26.206  10.633  16.757 -0.2246  0.1423  0.3566
17703W        W60641  24.507   8.481  18.118 -0.0705  0.3515 -0.1357
17704W        W60642  26.264   7.980  16.565 -0.1531  0.1494 -0.1472
17705W        W60643  27.159  10.465  17.084 -0.1497 -0.0345 -0.1268
17706W        W60644  25.666   8.114  18.633  0.2404  0.0981  0.4254
17707W        W60645  25.464   8.696  19.979  0.1733 -0.1487  0.0618
17708W        W60646  26.576  10.473  16.524  0.0392  0.3746  0.0719
17709W        W60647  24.963   8.152  16.613  0.1768  0.1584 -0.0356
17710W        W60648  25.611   8.794  17.299  0.0715 -0.1492  0.0735
17711W        W60649  26.603   8.851  18.450 -0.0799 -0.1202 -0.0294
17712W        W60650  28.989   7.976  19.515  0.1167  0.1816 -0.1511
17713W        W60651  27.413   8.612  18.775 -0.0040 -0.2735  0.1984
17714W        W60652  27.552  10.738  19.542 -0.1212  0.0477  0.2344
17715W        W60653  26.403   9.875  17.192 -0.4913 -0.1221 -0.3184
17716W        W60654  27.393   8.984  19.602  0.3210  0.0197  0.0747
17717W        W60655  25.515   9.438  17.309  0.2294  0.0682 -0.0473
17718W        W60656  25.364  11.663  16.730 -0.2564  0.0912 -0.1952
17719W        W60657  25.304   8.880  17.797 -0.1660 -0.2135 -0.2400
17720W        W60658  29.467   9.797  17.427 -0.1136 -0.1391  0.0048
17721W        W60659  29.462   9.635  18.302 -0.1162 -0.0659  0.0668
17722W        W60660  27.065  11.211  19.954  0.0893 -0.0858 -0.1142
17723W        W60661  26.019   9.176  15.832 -0.1249  0.0432  0.0885
17724W        W60662  28.256  10.986  20.378  0.2310  0.0551 -0.1333
17725W        W60663  25.611  10.442  20.348  0.0122 -0.3151 -0.1691
17726W        W60664  24.969   9.271  17.352  0.1300  0.3246 -0.1191
17727W        W60665  26.414   9.439  18.745 -0.2670 -0.0147 -0.0116
17728W        W60666  26.731   9.984  17.600  0.1516  0.1610  0.3046
17729W        W60667  27.139   8.988  17.132 -0.1507  0.3283  0.0433
17730W        W60668  26.119   9.820  19.353 -0.0976 -0.1123 -0.1633
17731W        W60669  26.576   9.876  19.043 -0.3136 -0.1100 -0.0356
17732W        W60670  28.451   8.714  19.877  0.2036  0.0816  0.1912
17733W        W60671  27.992  11.998  16.870  0.3428 -0.0059  0.0255
17734W        W60672  28.957   7.508  17.004 -0.1559  0.1576 -0.1052
17735W        W60673  26.437   9.279  16.434 -0.1282 -0.1229  0.0951
17736W        W60674  29.002   9.078  16.425 -0.2243  0.0298  0.0586
17737W        W60675  26.298   9.007  17.839 -0.2562 -0.1122 -0.0421
17738W        W60676  27.754  10.131  17.671  0.0988  0.0953 -0.0084
17739W        W60677  26.832   8.704  19.316 -0.4095 -0.0565 -0.0304
17740W        W60678  29.670  10.050  18.975  0.1059 -0.0679 -0.1488
17741W        W60679  27.379   8.042  16.160 -0.0087  0.0810 -0.2150
17742W        W60680  26.971   8.587  18.616 -0.2441  0.1414 -0.0457
17743W        W60681  25.378   9.357  19.916 -0.1020 -0.2333 -0.1020
17744W        W60682  26.898   9.889  18.063 -0.2803 -0.0234 -0.0100
17745W        W60683  28.317  10.222  17.036  0.0148 -0.0575 -0.2435
17746W        W60684  27.864  10.267  17.185  0.3197 -0.2790  0.2275
17747W        W60685  29.720  10.519  16.881 -0.2416 -0.0158  0.2977
17748W        W60686  25.989   9.597  18.052 -0.0864 -0.0469  0.1622
17749W        W60687  26.860   9.834  18.566 -0.1948  0.1095  0.0375
17750W        W60688  24.857   7.574  18.340 -0.0151  0.1481  0.2067
17751W        W60689  26.501   7.595  16.645 -0.1231 -0.2222  0.3953
17752W        W60690  28.362   9.580  19.128  0.0150  0.0856 -0.1705
17753W        W60691  24.966   9.310  20.365  0.3964 -0.0045 -0.3644
17754W        W60692  28.898   8.071  17.685 -0.3285  0.3074  0.1140
17755W        W60693  26.973   9.949  17.140  0.1631 -0.1285 -0.0172
17756W        W60694  29.238  11.269  18.885 -0.0193 -0.3059  0.0613
17757W        W60695  28.049   8.730  16.352 -0.1721 -0.1896 -0.0669
17758W        W60696  28.366   8.317  18.801 -0.1495 -0.0792 -0.3527
17759W        W60697  27.715   7.763  19.015  0.0885  0.0070  0.0619
17760W        W60698  24.322   8.766  17.712 -0.0815  0.2162  0.5968
17761W        W60699  29.346   8.797  17.033  0.0076 -0.3224  0.0980
17762W        W60700  29.330   9.708  16.944  0.0878 -0.2453  0.0527
17763W        W60701  29.067   8.379  16.722  0.0368  0.0007  0.1203
17764W        W60702  26.906  10.452  18.400 -0.0380  0.3080  0.1349
17765W        W60703  27.700   8.791  19.242  0.0277 -0.0507 -0.1160
17766W        W60704  27.342  10.755  20.007 -0.0980 -0.1938 -0.0153
17767W        W60705  25.522  10.673  16.357 -0.4640 -0.5281  0.0593
17768W        W60706  26.566  10.575  19.748  0.3983 -0.0008  0.2743
17769W        W60707  24.248   9.692  16.558  0.2254 -0.0444  0.1261
17770W        W60708  25.949   6.917  18.818  0.0655  0.1736  0.1732
17771W        W60709  27.627  11.692  18.831 -0.2651 -0.1228  0.0443
17772W        W60710  28.920   8.780  17.423 -0.0618  0.2228  0.2819
17773W        W60711  23.983   7.592  20.093 -0.1269  0.0207  0.0117
17774W        W60712  29.260   7.268  17.248  0.4077 -0.2244 -0.2552
17775W        W60713  25.215  10.521  16.937  0.0473 -0.0723 -0.0211
17776W        W60714  29.290  10.274  18.153  0.3229  0.1582 -0.1357
17777W        W60715  29.944   9.725  16.683  0.1239  0.0035 -0.0287
17778W        W60716  28.097   9.949  16.680  0.2502  0.0378  0.0566
17779W        W60717  24.891   8.009  18.110 -0.1512  0.1011 -0.2171
17780W        W60718  26.170   7.584  18.054 -0.0282  0.0944  0.0780
17781W        W60719  25.988   9.363  19.153 -0.2173  0.1245  0.1113
17782W        W60720  26.667   7.468  18.696  0.1277  0.0770  0.1833
17783W        W60721  28.961   9.820  18.136  0.2532 -0.1310  0.0619
17784W        W60722  25.455   7.596  16.680  0.0472  0.1297  0.1724
17785W        W60723  27.420   8.405  18.307 -0.1760  0.1094 -0.0879
17786W        W60724  27.046   9.611  15.941  0.4153  0.2146  0.1403
17787W        W60725  24.830   9.781  17.423 -0.0139 -0.0774  0.0966
17788W        W60726  27.446   8.827  20.887 -0.1445  0.0680 -0.0344
17789W        W60727  28.476   9.683  16.886 -0.0143  0.2024  0.0368
17790W        W60728  30.084  11.730  19.094  0.0467 -0.2621 -0.1314
17791W        W60729  28.381  10.163  18.304 -0.1581  0.0381  0.3021
17792W        W60730  26.162   8.285  19.395 -0.1536 -0.0523 -0.1345
17793W        W60731  27.104   8.989  16.157  0.0689  0.1239  0.0588
17794W        W60732  24.917  11.279  16.904  0.2297  0.2074  0.2394
17795W        W60733  27.127  10.522  16.549  0.1471 -0.0556 -0.3497
17796W        W60734  26.906   7.870  16.498  0.3049 -0.0373  0.0057
17797W        W60735  29.064  10.817  19.026 -0.0804 -0.0117  0.1838
17798W        W60736  27.502   9.481  17.491  0.0224  0.0373  0.0470
17799W        W60737  24.566   8.970  20.261 -0.2549  0.0037  0.2709
17800W        W60738  27.088   9.494  18.957  0.0162  0.1408 -0.1122
17801W        W60739  28.507  11.621  18.885 -0.3839  0.2979  0.1686
17802W        W60740  28.253   8.352  16.206 -0.2765 -0.1047  0.0633
17803W        W60741  25.114   6.540  17.251 -0.2264 -0.1837 -0.0467
17804W        W60742  27.406  11.125  16.907  0.3196 -0.1422 -0.2640
17805W        W60743  25.167  10.071  16.411 -0.0169  0.2158  0.0649
17806W        W60744  26.302   8.933  16.822  0.1201  0.1398  0.1659
17807W        W60745  27.463   9.949  17.170  0.1348  0.3893 -0.2329
17808W        W60746  26.793   8.220  17.656  0.0904 -0.0184  0.1318
17809W        W60747  26.448   8.982  19.002  0.0883  0.1696  0.1946
17810W        W60748  26.925   8.726  19.789 -0.0380  0.0174  0.3193
17811W        W60749  26.250   8.894  16.141  0.0524 -0.1156 -0.0799
17812W        W60750  26.008  11.068  18.732 -0.0587  0.0598 -0.0321
17813W        W60751  28.292   8.813  17.214 -0.0233  0.1512 -0.1678
17814W        W60752  29.295   7.956  16.781 -0.0086  0.1808  0.1535
17815W        W60753  26.893  10.258  18.969 -0.2666 -0.1939  0.3490
17816W        W60754  28.487   9.627  18.303 -0.0786  0.1959  0.0010
17817W        W60755  28.909   7.453  15.608 -0.1916  0.0220  0.1231
17818W        W60756  28.245   7.894  16.613 -0.1384 -0.0698  0.1778
17819W        W60757  26.219  10.067  19.792 -0.0916 -0.0593 -0.2378
17820W        W60758  27.018   9.562  17.717  0.2529  0.2460  0.1374
17821W        W60759  28.101   9.385  18.696 -0.2671  0.1826  0.1615
17822W        W60760  28.247   9.247  16.864 -0.0533 -0.1645  0.1742
17823W        W60761  28.360   9.840  17.375  0.1910 -0.0100 -0.0649
17824W        W60762  24.998   9.816  19.953  0.1384  0.1112  0.3270
17825W        W60763  25.753   9.124  20.092 -0.0594 -0.1217 -0.1807
17826W        W60764  28.681   9.011  16.864 -0.1508  0.1357  0.1193
17827W        W60765  27.780   7.548  19.896  0.0344 -0.4233  0.2702
17828W        W60766  26.345   9.434  16.983  0.2523 -0.3814  0.1415
17829W        W60767  27.024   7.709  16.993 -0.2839  0.1109  0.0914
17830W        W60768  25.932  11.505  16.191  0.0509  0.0307  0.2068
17831W        W60769  28.561   7.781  17.947 -0.4017  0.1546 -0.0845
17832W        W60770  27.300   7.593  18.536  0.1716 -0.0200  0.0737
17833W        W60771  28.084   6.689  19.640  0.0139 -0.0005 -0.2292
17834W        W60772  26.994   9.696  19.477 -0.0609 -0.0776 -0.0551
17835W        W60773  29.267   9.519  16.306  0.0116  0.0719  0.0784
17836W        W60774  28.215   8.088  17.832  0.0721 -0.3248 -0.1725
17837W        W60775  26.247   8.432  16.748  0.0352 -0.1255  0.0510
17838W        W60776  26.776   7.234  19.202 -0.1980  0.1183 -0.2369
17839W        W60777  25.069   8.506  19.743 -0.0786 -0.1621 -0.0509
17840W        W60778  27.106  11.187  17.839 -0.0269  0.1104 -0.0422
17841W        W60779  28.841  10.425  19.288 -0.1851 -0.0396  0.1121
17842W        W60780  26.681   8.103  16.902 -0.1635  0.1261  0.0397
17843W        W60781  27.086   7.836  20.028 -0.2830  0.0559  0.1549
17844W        W60782  26.855   8.461  15.550  0.1630 -0.0642  0.0468
17845W        W60783  26.388  10.152  16.210 -0.0600  0.1185 -0.2170
17846W        W60784  26.229  11.155  15.893  0.0755  0.2766  0.3943
17847W        W60785  26.592   7.766  17.848  0.2867 -0.4025  0.4867
17848W        W60786  26.820   9.462  17.268 -0.0161 -0.1921  0.0134
17849W        W60787  25.476  10.570  15.790 -0.2747  0.1219 -0.0453
17850W        W60788  27.430   8.670  20.015  0.0374 -0.0544 -0.3343
17851W        W60789  25.610  10.372  18.245 -0.0829 -0.1829 -0.0395
17852W        W60790  27.553   7.526  16.979 -0.2615 -0.4551  0.0711
17853W        W60791  25.315   9.879  17.480 -0.1943  0.4552  0.0900
17854W        W60792  24.753   8.617  16.720  0.0531  0.0265  0.0063
17855W        W60793  26.338   9.347  17.446  0.2339 -0.0954 -0.0664
17856W        W60794  27.995   7.573  17.955  0.4381 -0.0520  0.1544
17857W        W60795  28.137   9.111  18.268 -0.2311  0.0675  0.0962
17858W        W60796  25.644   7.603  17.995 -0.0209 -0.1081 -0.2655
17859W        W60797  28.385   7.475  18.333  0.3160 -0.1927  0.1357
17860W        W60798  23.852  10.605  18.822 -0.3307  0.0998 -0.0664
17861W        W60799  27.481   9.843  18.074 -0.1293  0.0352 -0.1881
17862W        W60800  27.934   8.861  15.807 -0.0816  0.2091  0.0688
17863W        W60801  28.834  10.042  19.595  0.0475 -0.1307 -0.2184
17864W        W60802  26.185   9.275  19.605  0.0874  0.0326 -0.1412
17865W        W60803  25.277   9.604  16.869  0.2387 -0.0778  0.0666
17866W        W60804  29.876   7.256  18.369 -0.0030  0.3000  0.0716
17867W        W60805  25.875   8.155  18.112 -0.1726 -0.0376  0.0620
17868W        W60806  26.222   9.944  17.769 -0.3018 -0.0122  0.1519
17869W        W60807  27.149  10.960  18.304  0.0442 -0.3746  0.0463
17870W        W60808  25.925   9.701  17.074  0.1251 -0.1240 -0.2073
17871W        W60809  26.675  10.648  19.244 -0.2413 -0.1616 -0.0558
17872W        W60810  25.181   7.566  17.983 -0.4869 -0.2173  0.2486
17873W        W60811  28.503   9.090  19.415  0.2103  0.0252  0.1256
17874W        W60812  26.815   6.584  19.963  0.1182 -0.1199  0.1293
17875W        W60813  26.359   8.032  18.207  0.3205 -0.1028 -0.3259
17876W        W60814  27.207   8.476  16.278  0.3322 -0.1193  0.4023
17877W        W60815  28.985   9.767  17.636  0.0007 -0.0521 -0.3154
17878W        W60816  27.279   9.048  18.608  0.0172  0.2044 -0.2277
17879W        W60817  26.290  11.106  20.153 -0.0935  0.1488  0.1950
17880W        W60818  26.621   8.513  17.212  0.2628 -0.3623 -0.1374
17881W        W60819  29.664  10.663  16.403  0.4124 -0.0642  0.1716
17882W        W60820  28.004   9.706  18.108 -0.0314 -0.1127  0.3302
17883W        W60821  25.699  10.820  17.408  0.4052 -0.1710 -0.1141
17884W        W60822  25.729   9.147  18.278  0.0907  0.0980 -0.1348
17885W        W60823  25.982  10.456  16.387 -0.0810  0.0026 -0.1827
17886W        W60824  27.722   8.344  17.863  0.1078  0.2761 -0.1149
17887W        W60825  26.569  10.145  19.431  0.0825  0.0571 -0.0705
17888W        W60826  27.195   9.749  16.582 -0.0569  0.0529  0.2674
17889W        W60827  25.075   9.273  18.165 -0.1935 -0.1386  0.0716
17890W        W60828  28.937   7.554  17.525  0.0032 -0.1794  0.1344
17891W        W60829  29.187   9.148  15.813 -0.3073  0.1009  0.0023
17892W        W60830  26.568   7.304  18.183  0.0540 -0.0275 -0.2393
17893W        W60831  28.019   7.285  19.222  0.1255 -0.1313  0.1419
17894W        W60832  29.027   9.935  16.652 -0.0537  0.0972 -0.0172
17895W        W60833  27.994   7.744  19.467  0.1369  0.1654  0.1930
17896W        W60834  26.833   7.713  18.283 -0.0158  0.0003  0.2268
17897W        W60835  27.735  10.905  17.561 -0.1327 -0.1548  0.0372
17898W        W60836  24.628   8.162  19.727 -0.3009 -0.0657 -0.0330
17899W        W60837  25.990  10.098  20.308 -0.1332  0.1459 -0.0868
17900W        W60838  25.665   7.754  18.952 -0.4399  0.0500 -0.1220
17901W        W60839  26.792   8.679  16.006 -0.2487  0.1553  0.2055
17902W        W60840  26.349   8.585  15.677 -0.2681  0.3206  0.1844
17903W        W60841  27.090   8.605  17.632  0.2098 -0.1187  0.0756
17904W        W60842  29.244  10.189  17.622  0.0402 -0.3446 -0.1667
17905W        W60843  27.899   9.827  16.184 -0.2473  0.1646  0.2413
17906W        W60844  26.876   9.305  18.491  0.0298  0.0652 -0.0014
17907W        W60845  25.817   9.718  17.574 -0.1186 -0.1567 -0.0846
17908W        W60846  27.549   7.861  17.696 -0.0380  0.2572 -0.0294
17909W        W60847  26.926  10.053  16.217 -0.1322  0.1767  0.2528
17910W        W60848  25.320   9.432  17.766  0.0297  0.0854 -0.1412
17911W        W60849  26.217   7.697  20.632 -0.0147 -0.0086  0.0028
17912W        W60850  28.607  10.816  19.428 -0.1503  0.0612 -0.0310
17913W        W60851  27.109   7.823  17.521  0.0378  0.0456  0.3135
17914W        W60852  28.402   8.093  19.597  0.0851  0.0743 -0.2241
17915W        W60853  28.380   9.225  20.068  0.2803 -0.0072 -0.0197
17916W        W60854  27.787   8.982  18.665  0.1328 -0.3229  0.0060
17917W        W60855  25.094   7.622  18.929 -0.2689  0.2018 -0.0860
17918W        W60856  27.628  11.296  17.885  0.0382  0.1217  0.0250
17919W        W60857  28.941   7.870  16.015 -0.0766 -0.3157  0.0717
17920W        W60858  29.719   7.994  18.768 -0.2046 -0.0495 -0.0045
17921W        W60859  28.912   8.341  17.185  0.2259 -0.1356  0.1987
17922W        W60860  27.222  10.013  17.650  0.0690 -0.1291  0.2437
17923W        W60861  25.100   8.768  17.342  0.1238 -0.0805  0.0173
17924W        W60862  26.400   9.815  20.255 -0.3888  0.2519  0.1473
17925W        W60863  26.176   8.697  17.244  0.0661 -0.1176 -0.0077
17926W        W60864  27.186   8.963  19.122 -0.1532 -0.2200 -0.0586
17927W        W60865  27.419   9.968  16.205  0.3275  0.0877 -0.0452
17928W        W60866  27.660   8.823  18.087  0.3399  0.1077 -0.0068
17929W        W60867  26.532   7.792  17.350  0.0052  0.3647  0.0153
17930W        W60868  25.016   9.032  16.939  0.0478  0.2771  0.2288
17931W        W60869  26.083  10.923  19.773  0.1313  0.0722 -0.3268
17932W        W60870  25.343   7.506  17.536  0.0682 -0.1684 -0.2999
17933W        W60871  26.931   9.397  16.374 -0.3947 -0.1953 -0.1229
17934W        W60872  28.163  10.852  18.091 -0.1194  0.1308  0.0322
17935W        W60873  27.917   8.850  19.647 -0.0062  0.1622 -0.0808
17936W        W60874  27.290   8.161  15.615 -0.2249 -0.0449 -0.2747
17937W        W60875  27.221   7.655  21.468  0.1860 -0.2922 -0.2765
17938W        W60876  26.862  10.872  16.270 -0.1114  0.0207 -0.1128
17939W        W60877  28.529   7.316  17.884  0.1385 -0.3828 -0.2869
17940W        W60878  25.546   9.975  18.713  0.2528  0.0878  0.0295
17941W        W60879  24.856   8.850  18.404 -0.1004  0.0028  0.0301
17942W        W60880  26.862  10.422  17.474 -0.0549  0.1288  0.1142
17943W        W60881  26.587   7.908  19.250  0.0588 -0.1024  0.0813
17944W        W60882  27.551   9.451  19.424 -0.2465  0.0486 -0.1752
17945W        W60883  26.805   9.060  17.717 -0.1800 -0.2929 -0.4757
17946W        W60884  28.861   8.487  19.652 -0.2283 -0.2148 -0.3516
17947W        W60885  27.079   9.907  19.974  0.0206 -0.2212  0.1762
17948W        W60886  27.202  10.588  19.251 -0.0090  0.1539  0.2220
17949W        W60887  28.616  11.088  19.017  0.2933  0.0646  0.0250
17950W        W60888  29.191  10.686  18.492 -0.0024 -0.0556 -0.1127
17951W        W60889  26.101  10.547  18.245 -0.2106  0.1243 -0.0309
17952W        W60890  23.287   8.344  19.865  0.1142 -0.1388  0.0209
17953W        W60891  27.955   8.507  18.376 -0.1344  0.0516 -0.0395
17954W        W60892  28.837   7.898  16.774  0.1920 -0.0203 -0.2058
17955W        W60893  26.162   7.305  17.164 -0.0412 -0.0361  0.0913
17956W        W60894  27.473   9.176  15.857 -0.3869  0.0957  0.1954
17957W        W60895  27.386  10.247  21.344 -0.2038 -0.1557 -0.1967
17958W        W60896  25.336   9.004  18.557 -0.1680 -0.2303 -0.1420
17959W        W60897  26.714  10.993  15.790 -0.4230 -0.0871 -0.4026
17960W        W60898  28.256  10.694  19.135  0.0655 -0.2467  0.0172
17961W        W60899  28.664   9.310  17.318 -0.0047  0.6235  0.0423
17962W        W60900  27.210   9.291  18.072  0.2833 -0.1590  0.3140
17963W        W60901  24.916  10.523  16.544 -0.2092 -0.2884  0.1754
17964W        W60902  25.759  10.409  16.922 -0.0112  0.3839  0.0386
17965W        W60903  24.815   9.000  16.248  0.1655 -0.1264  0.2276
17966W        W60904  30.134  10.225  16.798  0.5090  0.3374 -0.0331
17967W        W60905  26.483  11.204  16.384  0.3147  0.0458  0.2525
17968W        W60906  27.926   8.356  19.788  0.0521  0.1895 -0.1403
17969W        W60907  28.239   6.825  16.905 -0.1050  0.0415 -0.2769
17970W        W60908  28.596   8.299  18.095  0.1031  0.2681 -0.1721
17971W        W60909  29.431   9.225  16.729  0.1863  0.0288  0.1804
17972W        W60910  28.881  11.078  19.925  0.2880  0.0781  0.0711
17973W        W60911  26.753   9.226  16.881  0.1939 -0.0855  0.0074
17974W        W60912  25.999   8.346  16.305  0.2941  0.1381 -0.0418
17975W        W60913  26.315   9.227  18.305 -0.0547  0.0334 -0.1012
17976W        W60914  27.168   7.613  19.025 -0.0149  0.3148  0.2533
17977W        W60915  27.315  11.050  19.012 -0.1398  0.3415  0.4030
17978W        W60916  29.403  10.210  17.087  0.1224  0.0934 -0.2680
17979W        W60917  24.910   9.245  18.809  0.0965 -0.0005  0.0007
17980W        W60918  27.267   9.124  16.652  0.3305 -0.4460 -0.1317
17981W        W60919  27.517   7.981  17.178 -0.0613 -0.0602 -0.0478
17982W        W60920  25.596   9.594  16.272  0.0435  0.2506 -0.1259
17983W        W60921  28.593   9.928  18.674  0.0138 -0.2293 -0.3567
17984W        W60922  26.646  10.840  17.631 -0.3507  0.0137 -0.0086
17985W        W60923  27.334  10.157  18.635  0.4516  0.0540  0.0941
17986W        W60924  27.285   9.486  16.979  0.1342  0.2206 -0.3716
17987W        W60925  24.135   7.588  17.869 -0.1854 -0.0635 -0.0375
17988W        W60926  29.460  10.211  16.551  0.4312  0.3410 -0.1634
17989W        W60927  28.089   9.097  19.106  0.0147  0.4825  0.2188
17990W        W60928  27.973   8.873  20.154  0.1648  0.2567  0.0077
17991W        W60929  25.305   8.932  16.497 -0.0575  0.2956  0.2781
17992W        W60930  27.470   8.611  16.704  0.3221  0.2576 -0.0894
17993W        W60931  25.367   9.482  18.795  0.1959  0.1282  0.2017
17994W        W60932  24.886   8.491  18.787 -0.2573 -0.2685  0.1311
17995W        W60933  28.046   8.331  17.439 -0.2413 -0.3239 -0.0424
17996W        W60934  28.695   8.019  19.109  0.1452  0.1120  0.0978
17997W        W60935  27.590   8.758  16.141 -0.0360  0.1433 -0.0107
17998W        W60936  29.176  10.904  19.525 -0.0443 -0.1685 -0.1803
17999W        W60937  23.501   7.809  17.200 -0.1191 -0.0397  0.2215
18000W        W60938  25.963   9.268  16.624 -0.3999 -0.2467 -0.3078
18001W        W60939  26.710   9.772  16.767  0.2888  0.1396  0.0747
18002W        W60940  26.511   8.388  18.554 -0.1078  0.2848  0.0300
18003W        W60941  28.950   9.091  19.680  0.0863  0.0992  0.0134
18004W        W60942  24.546   5.790  17.467 -0.0447  0.0772 -0.0296
18005W        W60943  29.387   9.908  16.036  0.1307  0.2405 -0.1265
18006W        W60944  29.359   7.880  19.117  0.1493  0.2893  0.0554
18007W        W60945  26.769  10.404  15.943  0.0551  0.1369  0.2264
18008W        W60946  27.888   9.250  17.821  0.0625 -0.0765 -0.0766
18009W        W60947  27.295  11.523  18.163 -0.1137 -0.2234  0.0867
18010W        W60948  24.174   9.799  20.202  0.3716  0.0609 -0.0739
18011W        W60949  28.039  10.321  19.873 -0.1879 -0.2597  0.1012
18012W        W60950  30.261   9.599  18.743 -0.0404 -0.3592 -0.0709
18013W        W60951  26.188   8.092  17.192 -0.0628  0.1538 -0.0119
18014W        W60952  25.999   9.085  18.747 -0.3138 -0.2778  0.2658
18015W        W60953  26.348  10.771  16.155  0.1629 -0.1545  0.0697
18016W        W60954  28.688   8.523  18.548  0.0753 -0.3471  0.2019
18017W        W60955  28.222   7.802  19.929  0.6080 -0.0813  0.0997
18018W        W60956  26.131  10.108  16.796 -0.6696  0.1106  0.2708
18019W        W60957  29.869   6.987  20.308 -0.1068  0.1249  0.0670
18020W        W60958  27.815  10.319  19.467  0.0572  0.1153  0.1069
18021W        W60959  27.938  10.813  20.088  0.0690  0.1676 -0.1352
18022W        W60960  25.248   8.544  16.870 -0.1340 -0.2882  0.1111
18023W        W60961  27.272   9.553  18.476 -0.0137  0.2322 -0.2969
18024W        W60962  26.615  10.857  17.131  0.0804 -0.3116  0.1785
18025W        W60963  29.233  10.742  16.622  0.2364  0.0055 -0.0839
18026W        W60964  27.633  10.806  18.107  0.1061  0.1203 -0.2375
18027W        W60965  28.514   7.970  17.162 -0.1056 -0.0362 -0.1826
18028W        W60966  28.393  10.689  18.520 -0.2710  0.3236  0.1894
18029W        W60967  26.624   8.990  17.292 -0.0563  0.1433  0.0116
18030W        W60968  28.549   8.454  17.532  0.1459 -0.2376 -0.1040
18031W        W60969  27.828   8.245  16.873  0.3419 -0.0938 -0.2590
18032W        W60970  24.961   8.342  17.217  0.1051 -0.0164  0.0434
18033W        W60971  25.178   7.907  16.287  0.2687  0.0876  0.5182
18034W        W60972  25.689  10.069  16.575 -0.4102 -0.0029 -0.0384
18035W        W60973  24.855   9.673  18.428 -0.0337 -0.1652 -0.4227
18036W        W60974  27.522   8.221  20.749  0.3847  0.0012  0.4650
18037W        W60975  26.581   9.713  19.755 -0.0338 -0.0591 -0.1762
18038W        W60976  26.423   9.762  18.258 -0.1212 -0.0676 -0.1104
18039W        W60977  25.781   9.190  17.726 -0.0129 -0.0176 -0.0715
18040W        W60978  27.668   9.629  16.702 -0.3709  0.2633 -0.0245
18041W        W60979  25.875   7.642  18.487 -0.2641 -0.2062  0.1529
18042W        W60980  25.586   6.589  16.895  0.1180  0.0600  0.0357
18043W        W60981  28.195  10.346  16.331  0.1281 -0.0079 -0.1523
18044W        W60982  27.803  10.253  18.176 -0.1083  0.1296  0.1710
18045W        W60983  28.271   8.664  18.047 -0.0624 -0.3126 -0.0183
18046W        W60984  28.848   9.801  20.071 -0.2963 -0.0358  0.0697
18047W        W60985  24.606  10.555  15.860  0.0904  0.2349  0.4279
18048W        W60986  26.243   8.568  20.873 -0.0949  0.0896  0.3021
18049W        W60987  25.743   8.329  19.086  0.0238 -0.0329 -0.1048
18050W        W60988  25.650   7.306  17.057  0.0018  0.3612  0.1016
18051W        W60989  25.675   8.691  18.686 -0.1291 -0.1358 -0.4031
18052W        W60990  27.880  11.029  19.139  0.1303  0.3311 -0.0758
18053W        W60991  27.951   8.822  16.863  0.0794  0.2581 -0.1162
18054W        W60992  25.858   9.523  18.567 -0.3134 -0.0693 -0.0069
18055W        W60993  26.891  11.384  18.741  0.3984 -0.0505 -0.1372
18056W        W60994  25.166   6.183  17.966  0.4184  0.0257  0.1639
18057W        W60995  27.903   9.665  17.621 -0.2134  0.1858 -0.2477
18058W        W60996  27.090   8.750  18.156 -0.3493  0.1443  0.1239
18059W        W60997  30.434   9.799  16.814  0.2710 -0.0337 -0.0781
18060W        W60998  27.807   8.217  19.334  0.2334  0.0386 -0.2178
18061W        W60999  27.718   9.235  17.081  0.0870  0.0983 -0.0288
18062W        W61000  26.001   8.192  21.038  0.2112  0.1342  0.0183
18063W        W61001  27.546   9.907  18.991  0.0005 -0.2192 -0.1280
18064W        W61002  29.275   8.701  18.371  0.1792  0.0891  0.1729
18065W        W61003  25.247   7.111  18.405 -0.1789  0.0716 -0.0078
18066W        W61004  27.269   8.092  16.775  0.0609 -0.0863  0.3557
18067W        W61005  28.359   9.604  16.150  0.0310 -0.0465  0.0794
18068W        W61006  24.545   8.227  16.892  0.0165 -0.0026  0.0771
18069W        W61007  27.787   9.172  16.558 -0.1632 -0.1356  0.1834
18070W        W61008  28.117   9.883  18.748 -0.4540  0.2896 -0.1117
18071W        W61009  28.221  10.062  17.804  0.0339  0.2294 -0.0385
18072W        W61010  29.380   9.178  19.439  0.2511  0.1551 -0.4274
18073W        W61011  25.703  11.295  17.164 -0.0649  0.3045 -0.3498
18074W        W61012  28.174   8.320  15.682  0.1550  0.2624  0.3708
18075W        W61013  26.501  12.285  18.325 -0.1045  0.2055  0.2227
18076W        W61014  28.322  12.363  21.239  0.4920  0.2373 -0.1975
18077W        W61015  26.829  11.305  18.225  0.2340  0.3900  0.1734
18078W        W61016  27.688   9.321  18.298 -0.0068 -0.3257  0.2542
18079W        W61017  25.942   6.585  18.270 -0.0801  0.2645 -0.0319
18080W        W61018  26.549  10.376  17.064  0.2644  0.0471 -0.0220
18081W        W61019  27.425   9.417  16.276 -0.3981 -0.3997 -0.0100
18082W        W61020  29.656   7.999  20.443  0.0165 -0.0139  0.0973
18083W        W61021  24.785   8.910  17.818  0.0232 -0.3003  0.1203
18084W        W61022  26.846   8.130  15.915 -0.0124 -0.0187  0.1331
18085W        W61023  26.498  10.168  18.519 -0.0320 -0.1201 -0.4407
18086W        W61024  26.038   9.861  18.864 -0.2708  0.1801 -0.0494
18087W        W61025  25.986   9.623  22.347 -0.2910 -0.0784 -0.1695
18088W        W61026  28.460   8.759  21.881  0.2578  0.2824  0.3754
18089W        W61027  28.476   7.833  20.397  0.1309  0.3561 -0.0910
18090W        W61028  29.201   8.447  20.472  0.1405  0.1342 -0.0736
18091W        W61029  26.394   7.748  22.151  0.1275  0.2540 -0.1057
18092W        W61030  29.266  10.633  20.095 -0.2934 -0.0409 -0.2752
18093W        W61031  25.860   7.644  22.165  0.0112  0.0042  0.0149
18094W        W61032  28.467  11.134  22.513  0.1844  0.0386 -0.2834
18095W        W61033  29.177  10.314  21.630  0.0764  0.1790  0.0017
18096W        W61034  25.209   8.182  19.049  0.1263 -0.0340 -0.2062
18097W        W61035  27.646   8.752  22.594 -0.0725  0.1950 -0.2295
18098W        W61036  27.268  10.675  24.069  0.2647  0.1903 -0.1444
18099W        W61037  27.359   6.743  20.648  0.1860 -0.0851  0.0440
18100W        W61038  25.846   8.002  22.465  0.0244 -0.0581  0.1284
18101W        W61039  28.755   8.339  21.594  0.1044  0.0705  0.0466
18102W        W61040  24.979   8.327  20.846 -0.1196 -0.1325  0.0045
18103W        W61041  24.636   8.651  20.678 -0.2512 -0.2812 -0.0951
18104W        W61042  28.002  10.002  20.264 -0.3836  0.1722  0.0319
18105W        W61043  27.100  10.595  20.518 -0.1242  0.1074  0.0336
18106W        W61044  27.322   8.765  24.909  0.1531 -0.0277 -0.4433
18107W        W61045  27.323   7.676  22.541  0.0075  0.2115 -0.1337
18108W        W61046  26.437  10.232  21.160  0.1589  0.1574 -0.0902
18109W        W61047  25.809   7.622  21.168 -0.0251 -0.2446 -0.0662
18110W        W61048  25.836   8.685  21.955  0.1157 -0.1318 -0.1426
18111W        W61049  26.389   8.570  22.715 -0.3013 -0.2447 -0.1073
18112W        W61050  27.092   8.090  21.110 -0.1942  0.1230  0.0617
18113W        W61051  28.415   8.355  20.779 -0.0052 -0.1767  0.0370
18114W        W61052  27.081  10.439  21.803  0.1173  0.0214 -0.2468
18115W        W61053  27.015  11.431  22.900 -0.0975  0.3445 -0.0109
18116W        W61054  29.549   7.981  22.825  0.0854 -0.0470 -0.0873
18117W        W61055  25.733  11.052  21.839  0.2225 -0.2490  0.0416
18118W        W61056  25.199  11.107  21.151 -0.1651 -0.4912  0.0554
18119W        W61057  25.864  10.725  20.777 -0.0712 -0.1132 -0.0972
18120W        W61058  29.219   9.080  21.146 -0.1737 -0.0202  0.0877
18121W        W61059  26.636  10.310  24.757 -0.3449  0.0621 -0.1342
18122W        W61060  28.247  11.411  22.940  0.1803 -0.0781 -0.2476
18123W        W61061  25.203  10.517  19.326 -0.0965  0.1112 -0.1512
18124W        W61062  27.061  10.257  23.848  0.2506  0.2037  0.1953
18125W        W61063  25.986   9.454  23.627  0.0739  0.0675 -0.4089
18126W        W61064  27.006   9.806  23.600  0.3340 -0.0987  0.1340
18127W        W61065  27.127   8.260  21.663 -0.0365 -0.3257 -0.2217
18128W        W61066  27.477   9.937  19.482  0.0327  0.3297  0.2469
18129W        W61067  26.522   9.289  20.580  0.0705  0.1585  0.0219
18130W        W61068  27.399  10.500  24.909  0.3703 -0.0739 -0.1564
18131W        W61069  25.898   8.852  22.904 -0.5595  0.0585  0.1810
18132W        W61070  30.122   7.090  22.664  0.0076 -0.0573 -0.2486
18133W        W61071  26.669  10.978  20.706 -0.1298  0.1096 -0.0833
18134W        W61072  27.489   9.681  20.637 -0.2647 -0.0392 -0.0487
18135W        W61073  26.165   8.904  19.925  0.1494 -0.1416  0.0156
18136W        W61074  30.432   7.942  21.092  0.0771 -0.1847 -0.1674
18137W        W61075  27.334   7.642  23.085  0.1907 -0.1648 -0.4226
18138W        W61076  27.118  10.075  20.863 -0.1598  0.0231  0.1380
18139W        W61077  26.556   8.336  23.294 -0.0577 -0.0631 -0.2316
18140W        W61078  27.774  10.393  23.433 -0.0813 -0.2411  0.3563
18141W        W61079  27.750   8.597  21.648  0.1958 -0.2783 -0.0643
18142W        W61080  28.819   8.775  21.373  0.1481 -0.1560 -0.3228
18143W        W61081  26.970  10.781  23.658 -0.1499 -0.0867  0.3628
18144W        W61082  28.273   9.770  22.331 -0.2338 -0.0962 -0.0468
18145W        W61083  28.477   9.754  20.423  0.0527 -0.3918  0.4903
18146W        W61084  27.655   9.777  21.134  0.0634 -0.0246  0.0874
18147W        W61085  26.355   8.773  19.471  0.0836  0.1582 -0.2687
18148W        W61086  26.392   8.304  22.283 -0.2388  0.0358 -0.1445
18149W        W61087  25.621   8.159  23.318 -0.0072 -0.0873  0.0574
18150W        W61088  25.473   8.685  23.218 -0.2591  0.4296 -0.0569
18151W        W61089  24.890   7.829  20.418  0.1520  0.1895 -0.1336
18152W        W61090  29.002   9.783  21.737 -0.1098 -0.2326  0.0041
18153W        W61091  26.139   9.957  22.919 -0.1490  0.1095  0.0450
18154W        W61092  29.511   7.409  20.287 -0.0808 -0.1498  0.0516
18155W        W61093  27.119   9.033  22.283 -0.0395  0.0199 -0.0424
18156W        W61094  29.288  10.773  22.666 -0.0811  0.0078 -0.0951
18157W        W61095  27.966   8.483  18.949  0.1382 -0.0857 -0.2558
18158W        W61096  28.514   6.953  22.588 -0.1612 -0.0715 -0.1866
18159W        W61097  27.834   8.817  23.096  0.0469  0.0857  0.2892
18160W        W61098  25.677   9.037  19.620  0.0622 -0.0376 -0.0017
18161W        W61099  26.896  10.234  21.352  0.0197  0.3846  0.4855
18162W        W61100  28.159  10.131  23.649 -0.2680 -0.1894 -0.2627
18163W        W61101  28.786   8.184  21.071  0.0040  0.1326  0.2912
18164W        W61102  26.433  10.769  22.916 -0.1279 -0.2224 -0.3643
18165W        W61103  26.601   8.879  23.452  0.0859 -0.2098 -0.0326
18166W        W61104  27.694   9.662  23.068 -0.0094 -0.3204 -0.1470
18167W        W61105  27.397  10.807  21.983 -0.0446 -0.0414  0.2858
18168W        W61106  25.570   9.502  22.142  0.1387 -0.3953 -0.0949
18169W        W61107  26.286  10.307  20.725  0.1663  0.1320 -0.1118
18170W        W61108  25.250   8.783  22.157 -0.1185  0.4858 -0.4461
18171W        W61109  26.147   9.267  24.196 -0.0270  0.1290 -0.0818
18172W        W61110  27.756   7.723  22.335  0.0745 -0.0176  0.2712
18173W        W61111  25.442   8.302  22.461 -0.4112 -0.0890  0.1397
18174W        W61112  28.633   7.395  22.246  0.4790 -0.0119 -0.0313
18175W        W61113  26.672   8.909  20.178  0.3187 -0.1047  0.1876
18176W        W61114  28.116   9.982  21.291  0.1381  0.3741  0.0542
18177W        W61115  30.690   7.752  20.676  0.0131 -0.3792  0.0834
18178W        W61116  27.584   9.421  18.871 -0.1933 -0.0369  0.1270
18179W        W61117  24.345  11.687  24.279  0.0192  0.1106 -0.0120
18180W        W61118  26.569   8.236  21.839  0.1131  0.1385 -0.3001
18181W        W61119  26.452   7.657  23.072 -0.0568 -0.0183  0.0827
18182W        W61120  25.272   7.474  22.042 -0.1240 -0.1888 -0.0530
18183W        W61121  26.563  10.571  23.896 -0.1406  0.1237 -0.0699
18184W        W61122  26.197   8.711  21.550 -0.1182  0.1575  0.4225
18185W        W61123  28.327   8.684  20.446 -0.2762  0.0934  0.1509
18186W        W61124  27.143   8.699  21.355  0.0407  0.1029 -0.2956
18187W        W61125  25.750   8.631  21.049 -0.0910 -0.0456  0.0604
18188W        W61126  29.841   8.377  23.240 -0.2526 -0.2057 -0.1374
18189W        W61127  26.630  10.868  18.140  0.0838  0.1641 -0.0282
18190W        W61128  27.920  11.152  23.912 -0.0319 -0.3163 -0.2867
18191W        W61129  28.119  11.070  21.997  0.1189  0.0639  0.3374
18192W        W61130  26.823   6.473  23.403  0.2130 -0.3195 -0.0296
18193W        W61131  27.134   9.240  20.577 -0.0487  0.0732 -0.0930
18194W        W61132  24.913  10.209  22.198 -0.0297  0.2873 -0.2666
18195W        W61133  25.668  11.216  22.365 -0.2316 -0.0713  0.2780
18196W        W61134  26.459   8.008  20.236  0.0998 -0.1517 -0.0349
18197W        W61135  30.166  10.004  21.371  0.3039  0.1854  0.0982
18198W        W61136  27.192  11.328  21.969  0.0974  0.1891  0.2051
18199W        W61137  25.879   9.530  22.999  0.1202  0.1132  0.1167
18200W        W61138  28.786   8.474  23.290 -0.2078  0.2129  0.4786
18201W        W61139  29.114   9.044  23.236  0.0928  0.0529 -0.0206
18202W        W61140  26.725   7.780  20.932  0.0479 -0.2110 -0.2281
18203W        W61141  25.156   8.864  19.057 -0.2675 -0.1272 -0.0029
18204W        W61142  27.930  11.502  21.380 -0.2113  0.3723 -0.3164
18205W        W61143  24.833   9.944  19.355 -0.1898 -0.0108  0.1947
18206W        W61144  26.778   8.574  22.102 -0.1271  0.0776 -0.2398
18207W        W61145  26.445   9.715  21.345 -0.5268 -0.1347 -0.3251
18208W        W61146  28.382   7.518  21.767 -0.1695 -0.1286  0.1237
18209W        W61147  25.152   9.548  23.180 -0.1282 -0.1647 -0.0613
18210W        W61148  27.682   8.925  23.859  0.2932  0.0338 -0.0846
18211W        W61149  26.425   8.499  20.331  0.0028 -0.2117 -0.0643
18212W        W61150  26.521   9.404  24.826 -0.1645 -0.1326 -0.2154
18213W        W61151  28.068   6.029  21.193 -0.1726 -0.0212  0.1432
18214W        W61152  29.466   7.125  21.157 -0.0502 -0.0868  0.0798
18215W        W61153  26.144  10.686  24.636 -0.1873  0.2688 -0.1872
18216W        W61154  28.605  10.213  21.797 -0.5065 -0.1191 -0.0465
18217W        W61155  27.501   7.648  20.377  0.1587 -0.0421  0.1356
18218W        W61156  27.576   7.971  19.773 -0.1658 -0.0801 -0.3458
18219W        W61157  25.536  10.310  22.882  0.0970  0.2062  0.0270
18220W        W61158  26.653   9.378  21.100  0.1504  0.0899 -0.0916
18221W        W61159  26.907   9.521  22.647 -0.0838 -0.1235  0.0234
18222W        W61160  27.420   8.198  20.253  0.3116  0.0461  0.3540
18223W        W61161  29.232  10.331  21.093 -0.4706 -0.0094 -0.0736
18224W        W61162  25.369  10.773  22.095 -0.1463  0.2273 -0.3763
18225W        W61163  26.170  10.381  25.074  0.0157  0.1295 -0.0878
18226W        W61164  28.430  10.674  20.715  0.1687  0.0862 -0.0434
18227W        W61165  28.251   7.974  23.048  0.1848  0.1714  0.2579
18228W        W61166  26.137   8.992  20.538  0.3242 -0.0383  0.1778
18229W        W61167  28.296   6.989  21.878  0.1124  0.1684 -0.0954
18230W        W61168  25.998   9.631  19.913  0.0083  0.1285 -0.0974
18231W        W61169  28.608   7.628  23.073  0.1083  0.1326  0.4214
18232W        W61170  27.543   8.201  22.457  0.0479  0.4891  0.0363
18233W        W61171  27.608   6.873  23.464 -0.0502  0.3209 -0.0806
18234W        W61172  29.637   9.404  22.698  0.2042  0.1767 -0.1920
18235W        W61173  28.908   9.328  20.123 -0.4179 -0.0216 -0.0948
18236W        W61174  28.359   9.275  22.682  0.1312 -0.0020  0.1404
18237W        W61175  27.380   8.475  19.540 -0.2005  0.2499 -0.0135
18238W        W61176  26.065   7.924  23.399 -0.2345  0.0736 -0.1263
18239W        W61177  25.746  10.502  24.313 -0.2755  0.1113 -0.1107
18240W        W61178  23.741   8.508  21.893  0.1048  0.1077  0.0876
18241W        W61179  26.087  10.381  23.529  0.0955 -0.1450  0.0536
18242W        W61180  27.568   9.047  20.465  0.4201  0.0629  0.4437
18243W        W61181  27.797   8.412  23.396  0.1176  0.1779 -0.0479
18244W        W61182  28.431   8.951  20.975 -0.2650 -0.3032  0.1142
18245W        W61183  26.602  11.472  20.748  0.1475  0.0906 -0.1170
18246W        W61184  25.460  10.440  19.742 -0.2127  0.0335 -0.2766
18247W        W61185  27.359   7.858  22.024 -0.0160  0.0999 -0.4900
18248W        W61186  27.264  10.863  22.866  0.2448  0.3392  0.2211
18249W        W61187  26.943  10.365  20.025 -0.0281 -0.0064 -0.0494
18250W        W61188  28.160   9.764  22.791  0.1456  0.1835 -0.2130
18251W        W61189  26.097  11.176  21.295 -0.0961 -0.1302 -0.1979
18252W        W61190  29.501   7.625  21.347 -0.2160 -0.0663 -0.0689
18253W        W61191  24.772   9.662  21.995 -0.2761  0.0227 -0.3927
18254W        W61192  26.230   8.511  18.941 -0.0707  0.1608  0.3169
18255W        W61193  25.323   8.652  21.434 -0.3676  0.3595  0.1416
18256W        W61194  27.591   7.927  21.165 -0.0127 -0.0278 -0.2275
18257W        W61195  28.052   9.411  19.625 -0.2196 -0.0845  0.0222
18258W        W61196  25.441   8.729  22.696  0.0039  0.2281 -0.1413
18259W        W61197  28.736   7.870  22.092 -0.0695  0.0064 -0.1739
18260W        W61198  26.737   8.798  21.637  0.2475 -0.1246  0.1078
18261W        W61199  27.777   8.126  22.016  0.0364  0.0810  0.0158
18262W        W61200  28.275   8.313  21.840  0.0129 -0.1259 -0.0655
18263W        W61201  27.781  10.022  22.170  0.1130 -0.0908 -0.1779
18264W        W61202  26.653   9.383  24.260 -0.4065  0.2677  0.0680
18265W        W61203  27.068   8.749  20.404  0.0370  0.2422  0.0453
18266W        W61204  28.769   8.939  22.906  0.1555  0.3674  0.0306
18267W        W61205  26.167   7.799  21.685 -0.0913 -0.0026 -0.1959
18268W        W61206  24.430  10.432  22.074  0.0736  0.0852  0.1587
18269W        W61207  28.347  10.259  22.688 -0.0522  0.0225 -0.0531
18270W        W61208  27.802   9.763  19.827  0.2727  0.1375 -0.1142
18271W        W61209  27.632   9.050  21.346  0.3208  0.1311  0.1869
18272W        W61210  26.814   7.657  22.604  0.2047 -0.1138  0.0333
18273W        W61211  27.922   9.546  22.070 -0.2468  0.0842  0.0644
18274W        W61212  27.326  10.627  23.366  0.2114 -0.1562  0.0418
18275W        W61213  27.818   8.509  20.454  0.1955 -0.0563  0.0908
18276W        W61214  26.611   8.092  22.671 -0.2874 -0.1345 -0.0881
18277W        W61215  26.732  10.463  20.828  0.1140  0.1521 -0.1742
18278W        W61216  28.426   9.203  22.155  0.0245 -0.0548  0.1451
18279W        W61217  27.855  10.624  22.990  0.0168  0.3719  0.0034
18280W        W61218  26.867   6.877  23.069 -0.0936 -0.0510 -0.1624
18281W        W61219  28.883  11.570  19.795  0.0673  0.0043  0.4182
18282W        W61220  27.284   9.727  24.178  0.3239  0.3205 -0.1398
18283W        W61221  26.660   9.398  19.258  0.1831 -0.0789 -0.1749
18284W        W61222  26.531   9.583  23.031  0.0620 -0.4149 -0.0677
18285W        W61223  26.885   9.577  20.327 -0.1592 -0.2534 -0.0917
18286W        W61224  26.369   8.591  23.773  0.2407 -0.0843 -0.3461
18287W        W61225  26.272   9.205  23.240 -0.0113  0.0375 -0.1039
18288W        W61226  24.069  10.106  19.757 -0.1817 -0.0709  0.2274
18289W        W61227  25.770   9.549  24.110  0.2062 -0.0407 -0.0806
18290W        W61228  30.331   7.485  21.635 -0.1390  0.2702  0.1619
18291W        W61229  27.703   9.241  19.953 -0.2048 -0.1266 -0.0986
18292W        W61230  28.980   9.341  21.983  0.3201  0.0244 -0.0961
18293W        W61231  27.374   8.550  23.014 -0.2661  0.1434 -0.1017
18294W        W61232  27.984   9.441  20.338  0.0043  0.0741  0.2970
18295W        W61233  28.812   6.337  23.728 -0.0898  0.1183 -0.1588
18296W        W61234  26.153   7.251  22.405  0.2341 -0.2269  0.0701
18297W        W61235  28.018   9.735  20.709  0.2802  0.2112 -0.2369
18298W        W61236  25.545   7.233  23.017  0.3984  0.3962  0.1322
18299W        W61237  26.954  11.613  24.273 -0.1213  0.3667 -0.3478
18300W        W61238  26.314   8.931  24.698 -0.0926  0.2890 -0.0609
18301W        W61239  27.508   8.398  21.245  0.0520 -0.1982 -0.1812
18302W        W61240  26.901   7.107  19.716  0.6863  0.1212  0.3156
18303W        W61241  25.070   9.305  22.219  0.1248  0.2729 -0.1641
18304W        W61242  28.723   9.365  23.170  0.0689  0.1998 -0.1525
18305W        W61243  28.281  10.178  20.716  0.1536 -0.0325 -0.0282
18306W        W61244  29.154   9.100  20.550  0.1931 -0.2157 -0.0748
18307W        W61245  26.379   9.880  25.018 -0.0554  0.2545  0.0745
18308W        W61246  27.091   8.507  20.863  0.1058  0.2370 -0.0254
18309W        W61247  28.026   8.993  20.659 -0.2692  0.0366  0.1015
18310W        W61248  27.767   9.859  21.660 -0.2744 -0.0975 -0.0949
18311W        W61249  26.141   7.409  23.346  0.1549  0.0714 -0.0832
18312W        W61250  28.761  10.116  21.228 -0.1622  0.1308 -0.0112
18313W        W61251  27.837   7.647  21.782  0.2608  0.4667 -0.0744
18314W        W61252  26.741   7.680  23.489  0.2846 -0.3644 -0.0979
18315W        W61253  28.016   8.996  21.903 -0.0953 -0.0760 -0.4232
18316W        W61254  28.522  10.656  22.093  0.4592  0.0733 -0.3173
18317W        W61255  24.760   7.274  24.338 -0.2027  0.1200  0.1006
18318W        W61256  27.970  11.786  23.348  0.2367 -0.0451  0.2736
18319W        W61257  28.857   8.127  20.574 -0.0174  0.3313 -0.0187
18320W        W61258  28.631   8.795  22.435  0.0768 -0.0593 -0.0432
18321W        W61259  28.306   8.296  21.296 -0.3831  0.0817  0.2579
18322W        W61260  27.890   8.155  21.509  0.0059 -0.2235  0.0073
18323W        W61261  24.594   8.046  21.926  0.0322  0.0473  0.0344
18324W        W61262  29.253   9.928  23.070  0.2506 -0.0263  0.0445
18325W        W61263  26.703   9.163  19.694  0.0902 -0.3451  0.1061
18326W        W61264  27.056   7.243  22.653 -0.0836  0.1353  0.1411
18327W        W61265  28.522  11.312  20.154 -0.0211  0.2627 -0.0222
18328W        W61266  27.502  10.856  20.533  0.0758 -0.0152  0.0561
18329W        W61267  28.021   8.103  20.926 -0.1940  0.1062 -0.2822
18330W        W61268  25.932   8.122  22.002 -0.2713 -0.1231  0.1811
18331W        W61269  26.126  11.472  24.137  0.2531  0.2516 -0.1156
18332W        W61270  25.867   8.580  19.718  0.3976  0.0098  0.0622
18333W        W61271  27.568  10.304  21.787  0.3900  0.2082  0.0344
18334W        W61272  26.969  10.548  22.458 -0.2000  0.1128  0.3227
18335W        W61273  28.676  10.136  23.564  0.0123  0.0154 -0.0812
18336W        W61274  27.720   6.510  20.015 -0.2029  0.4847 -0.1543
18337W        W61275  28.129   9.435  23.941  0.0389 -0.1341  0.0170
18338W        W61276  26.755  11.416  21.626  0.1663 -0.0396 -0.1024
18339W        W61277  27.325   9.074  21.803 -0.2404 -0.1684 -0.2568
18340W        W61278  27.408   9.474  22.587  0.0336 -0.2904  0.1234
18341W        W61279  25.876   8.940  23.557  0.1284  0.1707  0.0650
18342W        W61280  27.155   9.905  22.450  0.1433  0.1735 -0.1506
18343W        W61281  26.876   7.910  23.101  0.1126  0.0473 -0.2498
18344W        W61282  29.186   8.382  21.341  0.1174  0.2636  0.0562
18345W        W61283  26.985   9.012  21.006  0.0115  0.0814 -0.1789
18346W        W61284  29.924   7.844  23.491  0.0370  0.0381  0.1507
18347W        W61285  26.796  10.023  22.879 -0.0713  0.0077  0.2400
18348W        W61286  24.676   8.701  22.031 -0.3652  0.2791  0.0106
18349W        W61287  27.375  10.300  22.734 -0.0663 -0.0342  0.0611
18350W        W61288  27.945   9.789  19.268 -0.2142 -0.2209  0.1856
18351W        W61289  25.621   9.148  22.493  0.0849  0.1693  0.2781
18352W        W61290  24.590   8.404  23.381  0.2334  0.0524  0.1384
18353W        W61291  28.284   8.447  23.302 -0.3717  0.1243  0.1735
18354W        W61292  28.469  10.866  22.986  0.0201 -0.3454  0.0565
18355W        W61293  26.890   7.378  23.054 -0.3417  0.0763 -0.1716
18356W        W61294  25.974  10.499  19.975  0.1815 -0.1074  0.2501
18357W        W61295  25.774  10.026  23.233  0.1238  0.2342 -0.0127
18358W        W61296  26.227   9.792  23.365 -0.3454  0.3761 -0.0366
18359W        W61297  26.642   9.928  21.787  0.1015 -0.5287  0.0891
18360W        W61298  27.454  10.288  19.838  0.2023 -0.0886 -0.2619
18361W        W61299  27.647  10.780  21.491  0.0685 -0.3694  0.0680
18362W        W61300  26.878  10.553  22.935 -0.0488  0.1790  0.2788
18363W        W61301  27.152   9.237  19.977 -0.0190 -0.2460 -0.0642
18364W        W61302  26.203   9.663  21.866 -0.0525 -0.1937 -0.2128
18365W        W61303  25.778  10.477  22.018 -0.1020  0.1697 -0.2035
18366W        W61304  28.882  10.497  19.801  0.0531 -0.2713 -0.2809
18367W        W61305  24.963   9.859  21.364 -0.0910  0.0209  0.0934
18368W        W61306  28.032  10.306  24.164 -0.5170 -0.3663 -0.1464
18369W        W61307  28.597   6.377  20.466  0.0527  0.0731  0.5244
18370W        W61308  28.849   8.734  20.821 -0.3265 -0.1433 -0.3496
18371W        W61309  30.316   9.170  20.868  0.2938  0.1172 -0.0123
18372W        W61310  28.194  10.269  22.189  0.4957 -0.0533 -0.1074
18373W        W61311  26.238   9.389  22.705 -0.2997 -0.0551  0.1110
18374W        W61312  27.249   6.689  19.651  0.0331 -0.0211 -0.2613
18375W        W61313  27.278  10.070  23.217 -0.2149  0.1703 -0.1100
18376W        W61314  29.925   8.330  23.720  0.2790  0.2328 -0.4956
18377W        W61315  27.292  11.255  23.910 -0.1325  0.1209 -0.2052
18378W        W61316  28.261   9.723  19.946  0.1678 -0.0665 -0.2129
18379W        W61317  25.172   8.449  20.306  0.1679 -0.0281  0.1149
18380W        W61318  25.050   7.882  21.757 -0.0998  0.4171 -0.0287
18381W        W61319  29.016   8.077  22.526  0.1361  0.0683 -0.2503
18382W        W61320  26.517  10.541  21.647  0.1813  0.0017  0.0537
18383W        W61321  28.545   8.440  22.845  0.1975 -0.2234  0.1014
18384W        W61322  26.588   9.346  21.717 -0.3839 -0.0046 -0.0387
18385W        W61323  26.014  10.147  22.468 -0.2390  0.0337 -0.2641
18386W        W61324  28.048  10.293  21.682 -0.0009 -0.1292  0.2693
18387W        W61325  25.677   7.191  21.471  0.1764 -0.3226 -0.1606
18388W        W61326  28.028   8.004  22.635 -0.1337 -0.2248  0.0674
18389W        W61327  27.091   8.570  22.531  0.0685 -0.1759 -0.0742
18390W        W61328  29.326   6.689  22.206  0.0599 -0.1077 -0.2023
18391W        W61329  27.710   9.337  20.974  0.0714 -0.1867  0.1923
18392W        W61330  28.086   7.743  21.283  0.3541 -0.0361 -0.0874
18393W        W61331  27.389   8.442  22.068  0.1188  0.3484 -0.0696
18394W        W61332  25.850   8.318  21.519  0.2636 -0.1391  0.1263
18395W        W61333  26.168  10.172  21.629  0.0815  0.0788  0.2152
18396W        W61334  28.793  10.289  23.043 -0.0881 -0.2682  0.1841
18397W        W61335  26.943   8.343  20.074 -0.0744 -0.1736 -0.2970
18398W        W61336  27.499  10.182  24.071 -0.0827  0.1648 -0.2535
18399W        W61337  26.649   8.757  20.743  0.2112  0.2230  0.0658
18400W        W61338  27.123   7.326  20.516 -0.3683  0.1798 -0.0871
18401W        W61339  27.355  10.316  22.252 -0.1163  0.0309 -0.1908
18402W        W61340  26.101   9.007  22.424  0.1354  0.0819  0.2104
18403W        W61341  27.317  11.254  23.288 -0.2176  0.0267 -0.1346
18404W        W61342  25.552   8.299  20.718  0.1006 -0.0527  0.0222
18405W        W61343  28.765   8.471  20.197  0.1722  0.0859  0.0800
18406W        W61344  28.474   7.456  21.227  0.1424 -0.1524 -0.2663
18407W        W61345  26.144  11.171  20.677 -0.1861  0.2564  0.1207
18408W        W61346  27.786  10.456  21.165 -0.2209 -0.1945  0.0538
18409W        W61347  27.870  11.662  22.783 -0.1809 -0.0301 -0.0035
18410W        W61348  25.743   7.857  20.741  0.0724  0.1921 -0.0770
18411W        W61349  28.135  11.266  23.462  0.1572 -0.0783  0.3259
18412W        W61350  29.161  10.277  23.413 -0.5553  0.0094  0.2621
18413W        W61351  28.246   7.906  22.127  0.0087  0.0558 -0.0248
18414W        W61352  24.996   7.902  22.426 -0.3763 -0.0320  0.0476
18415W        W61353  25.820  10.395  21.216  0.0163 -0.2254 -0.0201
18416W        W61354  29.815   6.476  20.816  0.1603 -0.2583 -0.0638
18417W        W61355  28.050   9.219  23.238  0.2010  0.1963 -0.3049
18418W        W61356  26.748  10.818  20.216 -0.0994 -0.1379 -0.1970
18419W        W61357  30.325   5.435  22.657  0.2432  0.1358  0.1081
18420W        W61358  25.388   9.095  23.470  0.1504 -0.0895 -0.3166
18421W        W61359  26.533   9.849  22.509  0.0827  0.0456  0.0267
18422W        W61360  25.932   8.816  19.227 -0.0506 -0.2546 -0.1401
18423W        W61361  27.130   9.203  24.068  0.5361 -0.1541  0.2087
18424W        W61362  27.254  10.152  20.369  0.0343  0.0970  0.2777
18425W        W61363  27.020  11.466  21.070  0.2424  0.1753  0.1079
18426W        W61364  27.882  10.574  20.696  0.0510  0.1720 -0.0391
18427W        W61365  28.660   9.520  19.678 -0.0187 -0.0580 -0.3436
18428W        W61366  28.657  10.229  22.315 -0.0410  0.0399 -0.1910
18429W        W61367  28.380   8.324  22.367  0.0474  0.1009 -0.1388
18430W        W61368  28.453   6.190  22.194  0.1647 -0.4095 -0.1601
18431W        W61369  29.273   7.171  22.248  0.3361 -0.0085  0.0520
18432W        W61370  27.182   9.026  22.845 -0.0951  0.0035  0.2671
18433W        W61371  26.780  10.080  20.495 -0.1319  0.1695  0.2693
18434W        W61372  25.385   9.630  18.303  0.0709  0.0683 -0.0963
18435W        W61373  25.746   8.860  21.474  0.1725 -0.1348 -0.2799
18436W        W61374  27.601   5.352  23.982 -0.0205 -0.1710 -0.1006
18437W        W61375  25.292   8.405  24.279 -0.0119 -0.1525 -0.0951
18438W        W61376  25.250   9.839  22.281  0.1057 -0.0835  0.0296
18439W        W61377  26.264   7.773  21.103 -0.2212  0.1313 -0.1400
18440W        W61378  28.401   9.311  20.646  0.0454 -0.2225 -0.3828
18441W        W61379  27.028   8.039  20.488  0.1136 -0.0177 -0.0820
18442W        W61380  25.503   8.143  21.173  0.0046  0.1182 -0.2568
18443W        W61381  27.639  11.147  21.130  0.2072 -0.0943  0.4335
18444W        W61382  29.416   9.919  20.802 -0.0434  0.0575  0.1499
18445W        W61383  27.300   6.963  21.686  0.0003 -0.1437 -0.1016
18446W        W61384  28.747  11.521  22.949  0.0497  0.1035  0.0787
18447W        W61385  26.229   9.826  20.781  0.2662 -0.0663 -0.0720
18448W        W61386  27.884  10.101  23.003  0.4168  0.1291 -0.2735
18449W        W61387  26.114   7.745  24.082  0.0758  0.4432  0.3028
18450W        W61388  25.640   8.139  19.554  0.1222 -0.0830 -0.0786
18451W        W61389  27.111   8.167  22.774 -0.1505 -0.1721  0.1168
18452W        W61390  26.663  11.415  20.237  0.1444 -0.0496  0.0479
18453W        W61391  27.673  12.998  19.251 -0.1252 -0.1295  0.1331
18454W        W61392  26.566   9.437  23.566 -0.2826 -0.2708  0.1295
18455W        W61393  26.432  10.294  23.145  0.0102  0.1636 -0.2988
18456W        W61394  25.209   5.342  23.166 -0.0424 -0.2398 -0.0841
18457W        W61395  28.339   9.946  19.542 -0.0420  0.1188 -0.0730
18458W        W61396  27.444  10.108  24.552  0.1845  0.1327 -0.1505
18459W        W61397  28.172   9.444  21.097 -0.2805 -0.1441 -0.1626
18460W        W61398  26.322   8.193  21.409 -0.2478 -0.0008 -0.0104
18461W        W61399  27.952   9.399  21.509 -0.1471 -0.0436  0.3435
18462W        W61400  26.696   7.195  23.554  0.0218 -0.0974  0.2806
18463W        W61401  26.203   9.785  24.052  0.2651 -0.2310 -0.4185
18464W        W61402  28.749   8.391  22.096 -0.1130  0.0828 -0.1364
18465W        W61403  27.174   7.117  21.254  0.4365 -0.1305 -0.2695
18466W        W61404  28.602   6.862  20.106  0.1079  0.1648 -0.1171
18467W        W61405  27.012  10.810  19.663  0.0196 -0.0253  0.0443
18468W        W61406  25.762   8.362  22.856  0.2159 -0.0176 -0.0930
18469W        W61407  27.290   7.405  19.933  0.1502  0.0357  0.0336
18470W        W61408  26.889   8.542  22.979 -0.0921  0.2091  0.1401
18471W        W61409  28.896  11.028  22.153 -0.2201 -0.3043  0.3141
18472W        W61410  27.624   9.145  22.274  0.0130 -0.2117 -0.1678
18473W        W61411  27.640   9.910  22.615 -0.1075  0.2146  0.1331
18474W        W61412  28.688   8.993  20.403 -0.1583  0.0610 -0.0754
18475W        W61413  27.960  11.073  22.734 -0.1358  0.2448 -0.1298
18476W        W61414  27.056  10.275  24.339  0.1817  0.0994  0.0901
18477W        W61415  27.071  12.129  23.122 -0.0913  0.0285  0.0753
18478W        W61416  28.178   8.823  21.425  0.1684  0.1269 -0.0529
18479W        W61417  25.149   6.426  21.221  0.1412 -0.2054 -0.3251
18480W        W61418  26.855  10.189  22.202  0.0350  0.2506 -0.1808
18481W        W61419  27.175   9.968  21.793 -0.2832  0.0219 -0.0092
18482W        W61420  27.926   8.416  22.884 -0.0350 -0.1576  0.0651
18483W        W61421  26.170   7.738  22.633  0.1095 -0.0496 -0.0882
18484W        W61422  28.101   7.448  20.383  0.2079 -0.2079  0.4178
18485W        W61423  26.937  10.895  21.841  0.0365  0.1710  0.0722
18486W        W61424  26.949   9.646  22.136  0.2492 -0.1094  0.1782
18487W        W61425  26.665   9.459  25.848  0.0385  0.0681 -0.4332
18488W        W61426  25.487   8.863  23.968 -0.0886  0.1420  0.2615
18489W        W61427  28.443   9.444  23.568  0.4216 -0.0000  0.0210
18490W        W61428  28.685   8.149  24.885  0.0012  0.2315  0.1665
18491W        W61429  25.524   5.822  23.820 -0.0541  0.0060  0.2781
18492W        W61430  29.479  11.132  25.083  0.0591  0.1231 -0.2968
18493W        W61431  25.664   7.143  26.263 -0.0776  0.1351 -0.0382
18494W        W61432  28.183  10.660  25.878  0.1257 -0.1308  0.4247
18495W        W61433  29.112  10.933  25.904  0.2706  0.1785 -0.0642
18496W        W61434  28.551   9.850  23.164  0.0551  0.1227  0.0863
18497W        W61435  26.714   8.370  27.244  0.3188  0.0435 -0.2633
18498W        W61436  28.112  10.100  27.158  0.0817  0.1926  0.2039
18499W        W61437  27.482   7.105  23.965  0.2455  0.1105  0.0060
18500W        W61438  25.779   7.638  26.203 -0.0230 -0.2190  0.5467
18501W        W61439  27.972   7.852  27.568 -0.2007 -0.3253  0.0154
18502W        W61440  25.737   8.678  25.813 -0.1433  0.0023  0.4409
18503W        W61441  27.433   8.623  26.734 -0.1618  0.1166 -0.2244
18504W        W61442  26.145   9.358  25.198 -0.4209 -0.2450 -0.1195
18505W        W61443  28.157  10.187  26.032 -0.1912 -0.1202  0.1299
18506W        W61444  27.104   8.638  27.078  0.0438  0.1220  0.2666
18507W        W61445  28.285   6.816  27.253 -0.0313 -0.2288 -0.0038
18508W        W61446  26.788  11.860  27.055 -0.0130  0.1125 -0.0446
18509W        W61447  24.680   8.831  24.704  0.0612 -0.1220  0.1132
18510W        W61448  25.998   8.330  24.623  0.1433 -0.0085 -0.2012
18511W        W61449  25.079   9.204  25.929 -0.0294  0.2595 -0.1398
18512W        W61450  28.072   9.859  25.158 -0.1789 -0.0779 -0.2683
18513W        W61451  29.194   9.278  27.228  0.0254 -0.1489  0.0908
18514W        W61452  27.834  11.628  25.701  0.2714  0.1873  0.0989
18515W        W61453  27.430  10.210  26.879 -0.0228 -0.0750 -0.0472
18516W        W61454  27.879   7.338  28.325 -0.1512 -0.2561 -0.0481
18517W        W61455  26.916   8.849  26.607  0.0290  0.1279 -0.2234
18518W        W61456  25.866   9.961  24.916  0.1896 -0.0624 -0.0884
18519W        W61457  25.614  11.120  24.764  0.1455 -0.0245  0.1743
18520W        W61458  27.239   9.773  25.880  0.0526 -0.0323 -0.3330
18521W        W61459  28.080  10.855  26.340 -0.0298  0.1091 -0.1419
18522W        W61460  26.731  10.985  28.302 -0.1286 -0.3206  0.1271
18523W        W61461  24.664  10.435  25.221  0.1062 -0.3208 -0.1977
18524W        W61462  24.883   9.729  27.598 -0.2662 -0.1449 -0.0079
18525W        W61463  26.817   9.854  27.838 -0.0274 -0.0646  0.2872
18526W        W61464  27.848  10.807  26.812  0.0621 -0.0759  0.2061
18527W        W61465  27.893   9.581  26.172 -0.0105 -0.1647 -0.0918
18528W        W61466  26.593   9.139  25.443 -0.0616  0.3942  0.2797
18529W        W61467  26.926   9.565  26.320 -0.1163 -0.3818 -0.2600
18530W        W61468  25.758  10.254  26.530 -0.1519 -0.0920 -0.1359
18531W        W61469  26.048   8.967  27.055  0.0018  0.0710  0.2399
18532W        W61470  28.434   6.220  26.434  0.0160 -0.1189 -0.1225
18533W        W61471  25.408  10.259  24.567  0.2956  0.2064  0.0610
18534W        W61472  28.981   8.443  24.113 -0.2867 -0.2429 -0.0116
18535W        W61473  28.388   8.985  23.948 -0.3086  0.1477 -0.1785
18536W        W61474  28.406   8.519  24.326 -0.2080 -0.0939  0.0906
18537W        W61475  26.849   8.322  26.723  0.1137  0.1925 -0.3390
18538W        W61476  27.722  11.188  26.405  0.1597 -0.2215  0.0167
18539W        W61477  27.222   7.960  25.367  0.0594 -0.0868  0.0820
18540W        W61478  29.574   8.378  27.433 -0.1938 -0.0711  0.1360
18541W        W61479  26.957   8.286  25.029 -0.2278 -0.3034  0.0954
18542W        W61480  27.006   8.859  25.918 -0.0370  0.3543 -0.3329
18543W        W61481  27.379  11.211  26.894  0.0269  0.0895  0.1365
18544W        W61482  26.460   8.326  25.956  0.1285  0.0312  0.1349
18545W        W61483  28.005  12.401  24.001 -0.0166  0.1243 -0.2459
18546W        W61484  28.447  10.453  24.460 -0.1205 -0.2232  0.2030
18547W        W61485  28.017  10.424  26.627  0.0921  0.0988  0.1082
18548W        W61486  25.846   9.570  26.295 -0.0758 -0.0333 -0.2951
18549W        W61487  24.450  10.355  27.557  0.0684  0.1452  0.1235
18550W        W61488  25.626   8.716  27.143 -0.2364 -0.2000 -0.1444
18551W        W61489  26.774   6.405  23.939  0.1435  0.1870 -0.1972
18552W        W61490  29.599  10.622  27.553 -0.0040 -0.0456 -0.1252
18553W        W61491  25.310  10.041  27.400 -0.1607 -0.0036  0.4405
18554W        W61492  27.934   7.667  24.969 -0.0492 -0.2300 -0.0764
18555W        W61493  26.402   9.885  25.790 -0.1319 -0.0211  0.1811
18556W        W61494  29.242  10.770  25.445  0.0702  0.1606 -0.0728
18557W        W61495  27.653  10.658  22.469 -0.6529  0.1187 -0.0908
18558W        W61496  29.594   7.080  25.957 -0.1768  0.2596  0.1257
18559W        W61497  28.407   8.150  25.675 -0.0831  0.1699 -0.2784
18560W        W61498  26.516  10.116  23.715  0.3182 -0.0196  0.1390
18561W        W61499  25.154   8.577  24.726 -0.0069 -0.0289 -0.0362
18562W        W61500  28.410   9.620  27.916  0.2210 -0.1114  0.0604
18563W        W61501  29.600   7.752  21.881 -0.0489 -0.1254  0.2278
18564W        W61502  26.230   8.007  25.584 -0.0277 -0.2941  0.0976
18565W        W61503  27.528   8.069  27.489 -0.0419 -0.1687 -0.0339
18566W        W61504  27.213  10.711  26.961 -0.2528  0.1115  0.2592
18567W        W61505  26.756  11.122  24.061  0.1924  0.0720 -0.0059
18568W        W61506  25.598  10.922  26.250  0.0906 -0.1408  0.0070
18569W        W61507  27.265   9.754  25.305 -0.0048  0.0620  0.0365
18570W        W61508  25.362   9.446  26.356  0.0283 -0.3569 -0.1769
18571W        W61509  26.918  10.052  25.676  0.1487 -0.0050 -0.1040
18572W        W61510  27.547   9.881  23.672  0.2556  0.1533 -0.1339
18573W        W61511  26.983   7.851  27.200 -0.2612  0.3389 -0.2126
18574W        W61512  28.836   7.156  24.419 -0.1715  0.2334  0.0497
18575W        W61513  25.461  10.166  25.046  0.0491 -0.0069 -0.2563
18576W        W61514  27.987  11.405  24.397 -0.0203 -0.2183 -0.0537
18577W        W61515  29.116   9.273  24.445  0.0014 -0.0443  0.1002
18578W        W61516  27.954  10.229  24.667  0.2542  0.0868 -0.1011
18579W        W61517  24.579   8.466  26.065 -0.0953  0.1124  0.3202
18580W        W61518  26.297   7.864  24.574 -0.1701 -0.0223 -0.1753
18581W        W61519  26.997   8.199  28.356 -0.1210 -0.2992  0.4958
18582W        W61520  24.375   8.351  25.464  0.1391 -0.0644 -0.0695
18583W        W61521  27.964   7.147  27.682  0.2313 -0.0026 -0.2763
18584W        W61522  26.071   6.435  24.529 -0.1002  0.1210 -0.0933
18585W        W61523  28.297   8.160  24.008  0.2297 -0.2377 -0.0844
18586W        W61524  27.580   9.508  25.667  0.1511  0.1576 -0.1765
18587W        W61525  24.923   9.742  25.993 -0.1359  0.2488 -0.0847
18588W        W61526  28.364   7.766  27.115 -0.0265  0.1143  0.1155
18589W        W61527  27.843  10.585  25.215 -0.0104 -0.1922 -0.1112
18590W        W61528  29.844  10.013  26.487  0.1164  0.1263  0.0523
18591W        W61529  29.470  11.305  25.659  0.0108  0.2763 -0.0323
18592W        W61530  26.735   8.065  26.311  0.1114  0.1452 -0.4567
18593W        W61531  26.173   8.113  22.927  0.2633 -0.1421 -0.1524
18594W        W61532  25.151  10.423  25.431  0.1605 -0.0682  0.0281
18595W        W61533  28.034   9.295  25.604  0.0580 -0.2997 -0.1002
18596W        W61534  26.771   9.824  24.047 -0.4492  0.0431  0.3257
18597W        W61535  28.571  11.923  27.078 -0.1949  0.2124  0.1073
18598W        W61536  26.832  10.604  25.629  0.0926 -0.1322  0.2038
18599W        W61537  26.534  10.793  25.951 -0.0581 -0.0778 -0.0842
18600W        W61538  26.742   6.977  27.477 -0.1378 -0.0261 -0.3842
18601W        W61539  28.725   8.289  28.462 -0.4021 -0.2326 -0.0429
18602W        W61540  28.031   9.240  24.991 -0.1176  0.1880  0.0467
18603W        W61541  25.725   7.007  22.575  0.1568  0.2432 -0.2165
18604W        W61542  28.838  11.707  27.427  0.0818 -0.0651  0.1140
18605W        W61543  26.682  10.689  24.397 -0.1172 -0.1201  0.0908
18606W        W61544  24.767   7.911  25.372  0.3465  0.1236 -0.2572
18607W        W61545  28.439  10.487  26.877 -0.1013 -0.1626  0.1186
18608W        W61546  28.652   7.995  26.752 -0.1494 -0.0369  0.2511
18609W        W61547  24.309   9.362  27.062  0.1685  0.0215  0.3762
18610W        W61548  27.513   8.984  27.787  0.0370  0.2831  0.3834
18611W        W61549  26.431   8.754  25.174  0.0093  0.0039  0.0898
18612W        W61550  25.686  10.693  27.287 -0.0359  0.0625 -0.0136
18613W        W61551  27.909   8.404  24.185  0.1067 -0.2885 -0.0271
18614W        W61552  28.568   8.454  23.749 -0.1467 -0.0844  0.0072
18615W        W61553  28.672   8.556  26.665 -0.3654 -0.4334  0.1818
18616W        W61554  28.562   9.885  26.108  0.2750 -0.3284  0.2758
18617W        W61555  27.964   8.554  22.222  0.1757 -0.0760  0.1069
18618W        W61556  27.855   7.872  23.969 -0.0375 -0.1568 -0.3261
18619W        W61557  26.567  11.138  27.504  0.1901 -0.1507  0.0297
18620W        W61558  26.449   9.757  24.500 -0.1438  0.0096  0.1562
18621W        W61559  28.661  10.109  28.010  0.2110  0.4114 -0.1452
18622W        W61560  27.583   8.256  24.967 -0.2649 -0.1882 -0.0004
18623W        W61561  28.327   9.793  24.232 -0.3014 -0.1162 -0.2110
18624W        W61562  26.578   9.542  26.748  0.0202  0.0052  0.0446
18625W        W61563  27.072   9.657  28.190  0.2051 -0.2433  0.1981
18626W        W61564  28.487  10.457  26.404 -0.2541  0.2806  0.0993
18627W        W61565  26.884   7.107  26.048  0.2001  0.0243  0.0031
18628W        W61566  25.902   8.639  24.172 -0.1654 -0.2857  0.1035
18629W        W61567  28.007   6.148  25.072  0.0599 -0.0249 -0.1284
18630W        W61568  25.797  10.834  23.787 -0.1443 -0.0598 -0.1740
18631W        W61569  27.914   8.257  25.785 -0.0856  0.0204  0.1581
18632W        W61570  28.271   9.147  27.077  0.0636 -0.2039 -0.3085
18633W        W61571  27.326   8.163  26.989 -0.2406  0.0558  0.2546
18634W        W61572  29.299   7.105  27.521 -0.0835  0.0157 -0.2726
18635W        W61573  28.043   8.914  24.283  0.0250 -0.2079  0.1900
18636W        W61574  25.971   8.384  26.347 -0.1325 -0.1020  0.0279
18637W        W61575  26.717   8.951  23.939 -0.0214 -0.0138  0.0056
18638W        W61576  27.733   8.569  28.015  0.1161 -0.2175 -0.1627
18639W        W61577  27.247   9.596  27.136 -0.2549 -0.2233 -0.1117
18640W        W61578  25.612  11.376  26.503  0.1391 -0.0718  0.4385
18641W        W61579  28.872   9.822  26.654 -0.1268  0.1987  0.1643
18642W        W61580  27.760  11.084  25.544 -0.2150 -0.2114  0.0339
18643W        W61581  26.385   8.275  26.696  0.2510  0.3312 -0.2134
18644W        W61582  27.606   8.016  22.941  0.0199 -0.0739  0.1644
18645W        W61583  26.356  10.741  25.471  0.2088 -0.1351 -0.1194
18646W        W61584  28.038   9.734  25.796  0.0922 -0.1014  0.2298
18647W        W61585  27.433   8.386  25.905  0.2587 -0.2979  0.0898
18648W        W61586  26.017  10.047  25.447 -0.2961 -0.0548 -0.1265
18649W        W61587  26.905  10.351  23.425 -0.0831  0.0838 -0.2461
18650W        W61588  27.655   7.700  28.624  0.1237 -0.0890  0.0299
18651W        W61589  26.780   9.625  27.338 -0.3028 -0.1374  0.2418
18652W        W61590  28.329   7.167  25.954  0.2732  0.0792  0.1702
18653W        W61591  27.727  10.461  25.689 -0.0647  0.0570 -0.3733
18654W        W61592  26.742   9.155  23.046 -0.2362 -0.3349 -0.0345
18655W        W61593  24.955   7.964  23.905 -0.1350  0.1308 -0.1668
18656W        W61594  28.073   7.734  25.701 -0.0319 -0.2607 -0.1167
18657W        W61595  29.940   9.696  25.267  0.1078  0.0780  0.2358
18658W        W61596  26.506   7.359  24.916  0.0100 -0.1233 -0.2803
18659W        W61597  27.600   7.830  25.832  0.0168  0.0707 -0.2572
18660W        W61598  25.091  11.604  26.473  0.1847 -0.3439 -0.1753
18661W        W61599  27.310   9.189  26.691 -0.0842  0.2000 -0.2233
18662W        W61600  27.768   9.757  24.190 -0.1392  0.0713 -0.0507
18663W        W61601  28.836  11.186  27.538 -0.0401  0.3064 -0.0862
18664W        W61602  28.878  10.308  26.819  0.1121 -0.0503 -0.0719
18665W        W61603  25.756   7.710  22.961 -0.4480  0.0175 -0.1474
18666W        W61604  27.419   8.768  26.283 -0.0775 -0.0159 -0.1231
18667W        W61605  27.176   7.891  24.549  0.3411  0.1386 -0.0769
18668W        W61606  26.154  10.208  26.297  0.0964  0.0100 -0.0864
18669W        W61607  28.078  11.160  25.936  0.0677  0.2138  0.0495
18670W        W61608  25.940   8.638  25.036  0.0341 -0.0821  0.0739
18671W        W61609  25.722   9.206  25.829  0.4113 -0.2433 -0.1156
18672W        W61610  27.136   7.754  26.749  0.2304  0.1505  0.3832
18673W        W61611  27.405   9.113  28.395  0.1292  0.1431  0.0249
18674W        W61612  27.918   8.372  27.537  0.0369  0.0579 -0.3264
18675W        W61613  25.702   8.153  24.216 -0.2051 -0.0388  0.1579
18676W        W61614  27.032   8.453  26.218  0.2438 -0.3060  0.0273
18677W        W61615  29.089   8.309  27.056  0.1007 -0.1566  0.1919
18678W        W61616  28.654   9.158  27.476  0.2627 -0.0348 -0.0836
18679W        W61617  25.803  12.273  26.893  0.1348 -0.3008 -0.5910
18680W        W61618  27.365   7.300  25.953  0.1770 -0.1618 -0.1303
18681W        W61619  28.730  11.530  23.824  0.0239  0.3039 -0.4043
18682W        W61620  27.727  10.503  27.190 -0.0925  0.1260  0.3927
18683W        W61621  26.164   8.472  25.526  0.1062  0.1883  0.0665
18684W        W61622  26.103   9.839  26.623 -0.1278  0.1583  0.1372
18685W        W61623  26.508  10.189  25.402  0.1291  0.0434 -0.3288
18686W        W61624  27.133  11.062  25.618 -0.1468 -0.1854  0.0895
18687W        W61625  25.472   9.023  26.177  0.0336  0.0145  0.1045
18688W        W61626  26.476  10.783  25.006 -0.1972  0.3472  0.2563
18689W        W61627  26.513  11.075  26.962  0.2661  0.0489  0.0003
18690W        W61628  27.666   9.364  23.630  0.0690  0.2833  0.0174
18691W        W61629  29.639   9.691  24.323  0.2424  0.1552  0.2688
18692W        W61630  27.104   8.572  24.018  0.0899  0.2406  0.0959
18693W        W61631  29.232   6.966  27.072 -0.0654 -0.3328  0.1176
18694W        W61632  27.912   9.679  24.676 -0.1938 -0.1320  0.0596
18695W        W61633  27.589   7.444  27.894 -0.2600  0.1090  0.1489
18696W        W61634  27.758   8.687  25.080  0.0623  0.0311 -0.3714
18697W        W61635  29.447  11.592  26.622 -0.2640 -0.0231 -0.3621
18698W        W61636  26.652   7.381  27.745  0.2002  0.1338  0.2446
18699W        W61637  27.290  11.539  27.332 -0.2029 -0.0394 -0.0668
18700W        W61638  26.353   9.836  27.144 -0.1351  0.2533  0.2577
18701W        W61639  27.574   5.783  24.764 -0.0933 -0.1637 -0.2018
18702W        W61640  26.002   6.624  23.925 -0.0661  0.2231 -0.0282
18703W        W61641  26.996   9.155  27.100 -0.0940  0.3757 -0.4178
18704W        W61642  28.939  11.746  26.746  0.2469  0.0344 -0.0116
18705W        W61643  26.098   9.011  25.518  0.1287  0.0206 -0.2211
18706W        W61644  28.802   9.034  25.973 -0.2119 -0.0437 -0.0749
18707W        W61645  26.520   8.788  25.769 -0.1830 -0.1209 -0.2161
18708W        W61646  28.155   7.814  24.444 -0.0130 -0.1219  0.4231
18709W        W61647  28.712   9.412  24.007  0.2694 -0.1219 -0.0736
18710W        W61648  26.679   8.402  25.482 -0.0441 -0.2224  0.1371
18711W        W61649  27.157   7.837  26.203 -0.2424  0.3250 -0.1816
18712W        W61650  28.706  10.919  25.583 -0.1244  0.1441 -0.2092
18713W        W61651  27.160   8.435  24.537 -0.1413 -0.0712  0.0723
18714W        W61652  26.978   8.148  27.612  0.1863  0.0324  0.0948
18715W        W61653  28.340   8.646  27.019 -0.2443  0.2845 -0.0684
18716W        W61654  27.516   9.449  27.960  0.1701  0.1939  0.1202
18717W        W61655  26.325   7.742  28.795 -0.0286 -0.2740  0.1952
18718W        W61656  29.741   9.800  26.039  0.1899 -0.0411  0.2192
18719W        W61657  26.924   9.736  24.645 -0.2257  0.0083 -0.0426
18720W        W61658  30.526   8.649  27.482 -0.1389 -0.0075  0.1903
18721W        W61659  27.499   9.165  23.213  0.0799 -0.0861  0.0735
18722W        W61660  26.358   8.777  24.244  0.1016 -0.0802 -0.0230
18723W        W61661  25.418   7.997  26.030 -0.2299 -0.0028  0.0861
18724W        W61662  29.224   7.170  29.325  0.1167  0.0128 -0.0539
18725W        W61663  27.543   6.654  24.296 -0.0669 -0.3097  0.1850
18726W        W61664  27.857   7.293  25.849 -0.4190  0.1377 -0.0140
18727W        W61665  27.579  11.246  25.104 -0.2273  0.0676 -0.4313
18728W        W61666  29.129   9.827  25.981  0.1762  0.4136 -0.2466
18729W        W61667  27.462   8.100  24.130 -0.1710 -0.2394  0.0557
18730W        W61668  24.913   8.343  25.571  0.3341 -0.0797 -0.2518
18731W        W61669  25.159  10.539  27.541  0.1582  0.1933  0.0558
18732W        W61670  25.646   7.114  23.958  0.2181 -0.0560  0.2502
18733W        W61671  26.770   7.918  24.259 -0.2373 -0.2396 -0.1036
18734W        W61672  27.957   9.949  26.571  0.2037  0.0884 -0.0208
18735W        W61673  29.023   8.889  26.395 -0.1001 -0.0330 -0.1345
18736W        W61674  26.650   6.874  23.966  0.1295 -0.4171  0.0105
18737W        W61675  28.630   7.798  27.680 -0.1034 -0.0872  0.0133
18738W        W61676  26.009  11.131  25.530 -0.1738  0.0129 -0.4580
18739W        W61677  27.322   7.226  26.446  0.0564 -0.1766 -0.0100
18740W        W61678  26.083  10.869  26.108  0.1754 -0.0714  0.2130
18741W        W61679  25.390   9.628  27.227  0.2063  0.3247  0.4090
18742W        W61680  27.017  10.463  26.508  0.2621 -0.1298  0.0515
18743W        W61681  27.662   7.855  26.740 -0.2792 -0.1940 -0.2125
18744W        W61682  29.241  10.401  25.780 -0.0456 -0.0245 -0.0671
18745W        W61683  27.690   9.963  25.469 -0.0284  0.0180 -0.2290
18746W        W61684  29.989   7.775  26.819  0.1595 -0.0103 -0.3568
18747W        W61685  29.100   9.188  27.724 -0.0758 -0.1687  0.1263
18748W        W61686  26.158   8.985  26.037  0.1938 -0.2168  0.0645
18749W        W61687  27.183  10.321  27.315 -0.0886 -0.2179 -0.2181
18750W        W61688  29.154   9.737  24.680  0.0838 -0.1771 -0.3945
18751W        W61689  26.684   9.687  25.381  0.0177  0.0406  0.1437
18752W        W61690  26.351   9.633  26.232 -0.1244  0.2688  0.1345
18753W        W61691  26.968   9.018  28.082 -0.0481 -0.2934  0.2012
18754W        W61692  27.092   9.321  25.588 -0.1325  0.1879  0.2873
18755W        W61693  27.482   6.247  24.942  0.3032 -0.0291 -0.3752
18756W        W61694  27.095  10.148  24.979  0.4530 -0.2132  0.0364
18757W        W61695  25.590  11.039  28.316  0.1414  0.1904  0.1347
18758W        W61696  27.395   9.753  26.564 -0.0968 -0.0764  0.0934
18759W        W61697  25.107  10.835  26.060  0.1411 -0.0214  0.2079
18760W        W61698  27.730  10.922  23.464  0.2451 -0.2792 -0.4284
18761W        W61699  27.719   9.520  25.177 -0.3727 -0.0522  0.1896
18762W        W61700  29.047  10.994  26.918  0.0979  0.2480 -0.3156
18763W        W61701  26.820   8.793  24.463  0.2206  0.0650 -0.1052
18764W        W61702  24.567  10.119  25.911  0.1382  0.1451 -0.0356
18765W        W61703  24.240  10.416  23.901  0.1580  0.2735 -0.0273
18766W        W61704  27.652   9.111  24.673  0.1131 -0.4120  0.4848
18767W        W61705  26.877  11.825  26.564  0.1466 -0.2521 -0.3059
18768W        W61706  28.526  10.472  27.386 -0.2969  0.2860  0.1495
18769W        W61707  28.581   8.040  24.421 -0.3982 -0.1249 -0.0749
18770W        W61708  28.311   9.691  26.920  0.0936  0.2287 -0.0495
18771W        W61709  28.834   8.936  24.186 -0.2046  0.2668 -0.0963
18772W        W61710  29.312   9.368  26.059 -0.3339 -0.0242 -0.0732
18773W        W61711  27.468   8.228  26.449 -0.0390  0.0972 -0.1731
18774W        W61712  27.309   8.156  23.290 -0.1169  0.3052  0.0797
18775W        W61713  24.732  10.538  27.905  0.1378 -0.3393 -0.2640
18776W        W61714  27.946   7.473  27.197 -0.1682  0.0045  0.3022
18777W        W61715  26.502  10.703  27.776 -0.4432 -0.1516  0.0759
18778W        W61716  28.456  10.555  23.846 -0.4112 -0.2922  0.0108
18779W        W61717  25.134   7.079  23.792 -0.0076 -0.2020 -0.0707
18780W        W61718  26.931   8.816  25.416  0.0568 -0.0322  0.1042
18781W        W61719  28.119   6.410  25.461  0.1667  0.2474 -0.1791
18782W        W61720  27.643   9.281  24.200  0.0804 -0.0938  0.0658
18783W        W61721  29.115   8.440  25.616  0.1474 -0.3545 -0.1191
18784W        W61722  26.385  11.273  25.154  0.0293  0.2945  0.1257
18785W        W61723  28.122  11.292  26.717  0.0844 -0.0460  0.0671
18786W        W61724  26.949   9.873  26.836 -0.2592  0.1190  0.2919
18787W        W61725  25.339   7.819  24.360  0.2138 -0.1484  0.3747
18788W        W61726  29.579   8.032  24.727 -0.0023 -0.1459  0.1347
18789W        W61727  26.622   7.859  28.085 -0.2619  0.0556  0.1840
18790W        W61728  29.782   8.498  26.375  0.0612  0.0980 -0.1404
18791W        W61729  26.784   7.789  24.849  0.0755  0.0947 -0.2959
18792W        W61730  29.007   7.553  25.346  0.1451 -0.1765 -0.3894
18793W        W61731  27.789   9.041  25.998  0.0139 -0.1895  0.3164
18794W        W61732  26.290   8.849  26.516 -0.1093 -0.0905 -0.0115
18795W        W61733  27.119   9.236  24.588  0.1791 -0.2064 -0.0644
18796W        W61734  29.486   8.947  27.940 -0.2675  0.0483 -0.0413
18797W        W61735  27.817   9.255  22.754 -0.0312 -0.1560  0.0213
18798W        W61736  28.923  10.116  27.574 -0.3109 -0.0805  0.2856
18799W        W61737  25.524   5.301  24.231 -0.1938  0.0749 -0.2833
18800W        W61738  27.171   9.310  23.589  0.4095 -0.3881 -0.1773
18801W        W61739  25.886   9.132  24.854  0.0446 -0.3041 -0.3277
18802W        W61740  26.494   9.236  27.155 -0.1546  0.1109 -0.2731
18803W        W61741  28.993  10.658  26.443  0.0835 -0.0774 -0.1076
18804W        W61742  24.940   8.772  26.135  0.1340  0.4588 -0.0210
18805W        W61743  30.006   9.023  23.963  0.1348 -0.1287 -0.3010
18806W        W61744  28.673   9.641  27.451  0.3561  0.1114 -0.0466
18807W        W61745  25.545  10.315  23.840 -0.2200 -0.0432  0.1603
18808W        W61746  28.882  10.223  26.283 -0.2330 -0.0192  0.0810
18809W        W61747  28.111  10.062  28.107  0.2135 -0.0728  0.0570
18810W        W61748  24.590   7.989  25.816 -0.2836 -0.1006  0.0643
18811W        W61749  29.458  10.692  26.216  0.0069  0.0190 -0.1671
18812W        W61750  29.423  10.165  26.213  0.0905 -0.2023 -0.3820
18813W        W61751  28.308   6.457  24.710 -0.0737 -0.0464 -0.3653
18814W        W61752  26.198   7.380  24.500  0.1064 -0.1235  0.2097
18815W        W61753  25.937  11.487  25.109  0.1364 -0.3720 -0.0172
18816W        W61754  27.897   8.590  26.142 -0.0180 -0.1450 -0.0486
18817W        W61755  28.176   9.517  27.378  0.2139 -0.1518  0.0194
18818W        W61756  28.846   9.492  26.201  0.2996  0.0070  0.0042
18819W        W61757  28.802   7.624  26.421  0.0922 -0.0762  0.3886
18820W        W61758  27.312   9.221  26.064  0.1066  0.4270 -0.3069
18821W        W61759  27.261  11.835  28.517 -0.2216 -0.0588  0.1025
18822W        W61760  24.991   8.811  23.621  0.0754  0.1032 -0.1561
18823W        W61761  27.937   9.690  27.767 -0.3442 -0.1180  0.0934
18824W        W61762  28.170  11.962  26.223 -0.1249  0.1439 -0.1867
18825W        W61763  26.690  11.585  23.798 -0.0917  0.1118 -0.1788
18826W        W61764  30.167   8.781  25.593  0.0702 -0.1010 -0.1033
18827W        W61765  28.940   7.272  24.870  0.3742  0.1681 -0.1266
18828W        W61766  28.749   9.795  25.039 -0.1730 -0.1008  0.0533
18829W        W61767  26.824   8.916  24.927  0.0556 -0.2780 -0.0945
18830W        W61768  29.099   6.736  24.482 -0.0059  0.0129  0.1107
18831W        W61769  28.362   7.647  26.085  0.0327 -0.1298 -0.1002
18832W        W61770  28.726   9.442  26.946 -0.0567  0.0640 -0.1600
18833W        W61771  24.675   9.122  24.058  0.0266 -0.0692 -0.1187
18834W        W61772  25.666  11.274  23.880 -0.2997  0.0409  0.0720
18835W        W61773  27.873   8.064  26.207 -0.0945  0.0038 -0.0882
18836W        W61774  27.431   7.182  27.496 -0.1186 -0.1269 -0.1824
18837W        W61775  26.542   8.877  27.932 -0.2183  0.0719 -0.3217
18838W        W61776  25.016   9.931  27.024  0.2574  0.1078  0.2673
18839W        W61777  26.019   7.780  25.008 -0.2615  0.2638 -0.0659
18840W        W61778  28.439   8.974  25.235  0.6243 -0.1132  0.2924
18841W        W61779  24.942   7.894  26.539  0.4100 -0.0705 -0.1982
18842W        W61780  25.426   6.275  25.849 -0.0073 -0.0349 -0.0323
18843W        W61781  27.240   9.298  25.078 -0.1231 -0.0781 -0.1362
18844W        W61782  28.385   9.956  24.723  0.1630 -0.3538 -0.0454
18845W        W61783  25.508   8.168  24.703  0.0634 -0.0249  0.3327
18846W        W61784  29.440   9.189  28.922  0.0687 -0.2149 -0.0611
18847W        W61785  24.907  10.047  24.996 -0.1033 -0.3871  0.0418
18848W        W61786  28.093   8.481  26.597 -0.2954 -0.0708 -0.2435
18849W        W61787  26.866   7.377  28.198 -0.2573 -0.0646  0.0642
18850W        W61788  26.431   7.371  23.959 -0.2054 -0.2030 -0.1444
18851W        W61789  25.318   9.256  25.426  0.3790  0.1672 -0.2711
18852W        W61790  29.770  10.543  26.540  0.0304  0.0684  0.2105
18853W        W61791  28.101  10.849  24.353  0.0129  0.0780  0.1705
18854W        W61792  26.627   9.161  26.280  0.1366 -0.0086  0.2078
18855W        W61793  27.437  10.461  27.726 -0.0780 -0.0516 -0.0064
18856W        W61794  25.657   8.029  26.549  0.0746  0.1808 -0.0195
18857W        W61795  28.191   8.747  24.798  0.2169 -0.3224 -0.1511
18858W        W61796  26.588  10.026  26.515  0.1101  0.1543  0.0928
18859W        W61797  28.852  10.169  24.532  0.0065 -0.1073  0.0778
18860W        W61798  27.730   9.023  26.911  0.0104  0.1828 -0.0920
18861W        W61799  28.190   8.460  25.197  0.2358  0.1990  0.2898
18862W        W61800  26.944   6.598  28.745  0.3307  0.1567 -0.0591
18863W        W61801  24.888   8.754  28.189 -0.0071 -0.3409 -0.2860
18864W        W61802  28.142   9.088  26.374 -0.2477 -0.2942 -0.1485
18865W        W61803  24.988   7.547  24.673 -0.1444 -0.1078 -0.1238
18866W        W61804  28.448   7.481  24.248 -0.0530 -0.1214  0.0258
18867W        W61805  27.426   9.623  24.772  0.2351  0.1224 -0.4843
18868W        W61806  24.987   9.531  24.992  0.3027 -0.3695  0.0233
18869W        W61807  26.552   8.370  24.661 -0.0093 -0.0375  0.1787
18870W        W61808  27.734   9.355  27.506 -0.2194 -0.0195 -0.3780
18871W        W61809  27.576  10.044  26.030  0.4200  0.3853  0.2201
18872W        W61810  27.357   7.592  29.127 -0.2437 -0.0861  0.3916
18873W        W61811  27.655   8.543  27.163 -0.2469  0.0608  0.0322
18874W        W61812  28.299   7.836  25.237  0.1016  0.1490  0.2452
18875W        W61813  27.838  10.191  27.688 -0.3784 -0.0648 -0.0290
18876W        W61814  29.266  11.033  27.659 -0.2416  0.0489 -0.1985
18877W        W61815  27.667   9.800  27.200  0.0511  0.0789 -0.3739
18878W        W61816  28.270  10.759  25.389 -0.4066 -0.2116  0.0647
18879W        W61817  25.585   7.774  25.404  0.3386 -0.1268  0.0819
18880W        W61818  26.359   8.241  24.188  0.0354  0.1474 -0.1340
18881W        W61819  27.489   8.988  25.409 -0.1335 -0.2013  0.2260
18882W        W61820  28.461  10.048  26.592 -0.0400  0.3511  0.0209
18883W        W61821  27.735   8.016  24.560 -0.1514 -0.1172 -0.0489
18884W        W61822  27.846   6.511  24.656  0.0909 -0.1773 -0.1352
18885W        W61823  26.894  12.700  27.326 -0.2320  0.1346 -0.1707
18886W        W61824  27.107  10.039  26.280  0.0179 -0.0758  0.2734
18887W        W61825  26.558  11.148  30.684  0.0083 -0.2425 -0.3648
18888W        W61826  25.859   9.616  27.592 -0.0737 -0.4390  0.3115
18889W        W61827  28.070   6.029  28.474 -0.2172  0.2498 -0.0238
18890W        W61828  28.224   8.197  27.993  0.0282 -0.1425  0.0489
18891W        W61829  25.717   9.003  28.457 -0.0867  0.0704 -0.2162
18892W        W61830  29.432   9.641  29.643  0.0826  0.1961  0.0939
18893W        W61831  28.102   8.044  30.532 -0.1586  0.1597 -0.3496
18894W        W61832  28.502   9.690  28.837  0.1335  0.1527 -0.1863
18895W        W61833  28.415   9.350  29.918  0.2144  0.0020  0.0596
18896W        W61834  25.584  10.326  27.793 -0.3761  0.0165  0.0147
18897W        W61835  28.226   9.011  30.453  0.0368  0.1822 -0.1000
18898W        W61836  26.395  10.542  29.071  0.1250 -0.1177 -0.1346
18899W        W61837  26.568   8.746  28.770  0.1171 -0.0532  0.2086
18900W        W61838  25.727   8.711  30.011 -0.1178  0.0926 -0.0056
18901W        W61839  29.097   8.804  30.507 -0.0566  0.0491 -0.0565
18902W        W61840  24.816   9.291  27.250 -0.0934  0.1549 -0.1632
18903W        W61841  27.912   8.534  30.088 -0.0256 -0.0926  0.1150
18904W        W61842  28.982   7.854  28.531  0.1810 -0.0040  0.2686
18905W        W61843  28.543   9.202  29.085 -0.1152  0.0177 -0.2652
18906W        W61844  27.682   7.402  30.793  0.0784  0.2178 -0.0492
18907W        W61845  28.468   7.422   0.912 -0.0361  0.0684  0.2485
18908W        W61846  27.572  11.393  28.524 -0.0316 -0.2511 -0.0884
18909W        W61847  26.371   8.766  27.481  0.1982  0.1519  0.0032
18910W        W61848  26.187   8.796  29.858  0.0308  0.0649  0.4931
18911W        W61849  26.092  10.329  30.735 -0.0983 -0.7397  0.3877
18912W        W61850  29.978   7.975  28.573 -0.0930  0.1082  0.2730
18913W        W61851  27.935   9.513  30.060 -0.0918 -0.2621  0.3059
18914W        W61852  27.838  10.474  28.212 -0.0176 -0.3355  0.1109
18915W        W61853  27.736  10.030  28.640  0.2761 -0.1178 -0.3091
18916W        W61854  27.779   7.309  31.306  0.1957  0.3161  0.0144
18917W        W61855  26.192   9.207  27.571 -0.0111  0.1029 -0.3145
18918W        W61856  25.888  12.472  29.561 -0.0700 -0.0769  0.2312
18919W        W61857  26.937  10.789  27.442 -0.0540  0.1747 -0.0122
18920W        W61858  29.807   9.583  28.745  0.1431 -0.0720 -0.2253
18921W        W61859  27.950  10.704  29.614 -0.1511  0.0272  0.0501
18922W        W61860  27.097  10.058  30.457  0.0929 -0.0758 -0.0355
18923W        W61861  25.858  11.920  27.827 -0.1603 -0.0434 -0.3556
18924W        W61862  27.129  10.081  29.920 -0.3236 -0.1064  0.1259
18925W        W61863  26.308  10.509  30.238 -0.1134  0.0899  0.1884
18926W        W61864  27.386   8.633  30.284 -0.0208  0.4361 -0.1042
18927W        W61865  26.701  10.023  28.307 -0.2100  0.1476 -0.0571
18928W        W61866  26.819  10.363  26.931  0.0766 -0.3660 -0.0411
18929W        W61867  28.042   9.578  29.054  0.1577 -0.0179 -0.0377
18930W        W61868  25.241  10.719  30.843 -0.0450  0.0295 -0.1831
18931W        W61869  24.960  10.359  29.332 -0.0864 -0.1962 -0.1245
18932W        W61870  30.135   6.867   0.140 -0.1584  0.1747 -0.0413
18933W        W61871  26.370  11.463  28.455 -0.3154  0.0799  0.1729
18934W        W61872  27.612   6.959  28.048  0.1744  0.1866  0.1907
18935W        W61873  27.730   8.144  28.412 -0.1959  0.0427 -0.1837
18936W        W61874  28.685   6.795  28.157  0.0154 -0.0614  0.2306
18937W        W61875  27.641   7.221  28.839  0.0654 -0.0574  0.1533
18938W        W61876  27.194  11.059  28.986 -0.0004 -0.1283  0.0126
18939W        W61877  26.995   8.788  28.514 -0.4039  0.0076 -0.2828
18940W        W61878  27.313  10.128  29.328  0.1512 -0.0336  0.0639
18941W        W61879  27.159   9.537  28.986 -0.1727  0.2109  0.4327
18942W        W61880  27.747   8.969  29.214  0.0498 -0.1635 -0.1920
18943W        W61881  25.634  12.112  29.982 -0.1248  0.0872  0.1641
18944W        W61882  25.413   9.084  29.314  0.0409  0.2784  0.0374
18945W        W61883  28.973   9.516  29.115 -0.0477 -0.2103 -0.2115
18946W        W61884  28.871  10.455  28.409  0.0731 -0.2603 -0.0152
18947W        W61885  28.350  10.929  27.614 -0.1498  0.5317  0.1786
18948W        W61886  26.364   8.724  29.308 -0.0966  0.0678 -0.2196
18949W        W61887  25.824  10.505  31.234  0.1076  0.2140 -0.0707
18950W        W61888  26.807   9.578  30.357 -0.0104 -0.0454 -0.0886
18951W        W61889  27.103   6.184  27.753 -0.0785  0.1426  0.1100
18952W        W61890  27.917  10.348  31.961  0.2026 -0.0333 -0.1553
18953W        W61891  25.759  10.534  30.169 -0.0484  0.1091  0.3859
18954W        W61892  29.854   7.671  29.622  0.1300 -0.2376  0.3746
18955W        W61893  25.839  10.623  29.685  0.0989  0.2424 -0.1190
18956W        W61894  27.970   9.904  29.472 -0.2655  0.2661  0.3069
18957W        W61895  29.107   9.788  27.102  0.4023  0.3063  0.0149
18958W        W61896  28.668   8.352  27.941  0.1098 -0.0186 -0.1459
18959W        W61897  30.208   7.616  30.445 -0.1108 -0.1747 -0.1036
18960W        W61898  26.685  10.147  27.440 -0.1409 -0.1247  0.0457
18961W        W61899  26.128   9.970  28.402  0.3274 -0.0831  0.0080
18962W        W61900  27.743   8.903  31.406 -0.1680 -0.2459 -0.4175
18963W        W61901  29.150   7.609  27.670 -0.2170 -0.0743  0.2235
18964W        W61902  26.901  10.347  27.818  0.2733 -0.2466 -0.0110
18965W        W61903  26.818   8.586  30.573 -0.0556 -0.0851 -0.2668
18966W        W61904  27.239  10.986  31.972  0.0694  0.1202  0.1056
18967W        W61905  27.895  10.824  27.559  0.0207  0.1756 -0.2321
18968W        W61906  25.528  10.555  29.359 -0.2842 -0.0315 -0.1150
18969W        W61907  26.315  10.316  26.818 -0.3095 -0.1260  0.0896
18970W        W61908  25.645   9.543  30.402  0.0313  0.3476  0.1831
18971W        W61909  25.349  10.097  29.071 -0.2224  0.1305 -0.0447
18972W        W61910  28.532   6.916  30.205 -0.0223  0.0050 -0.1982
18973W        W61911  26.024   9.145  30.742 -0.0808 -0.2240 -0.2151
18974W        W61912  27.833   7.457  29.265 -0.0332  0.1013 -0.0590
18975W        W61913  26.810  11.360  29.203 -0.2793  0.0919 -0.1069
18976W        W61914  29.895  10.998  29.420 -0.2183 -0.0755 -0.0267
18977W        W61915  28.925   8.593  28.793  0.3284 -0.0123  0.1032
18978W        W61916  29.015  10.583  27.824 -0.1170  0.1805 -0.2797
18979W        W61917  24.989  10.771  29.817 -0.1305  0.1984  0.0759
18980W        W61918  25.500   8.329  28.767 -0.1368 -0.1161 -0.0203
18981W        W61919  26.407   9.859  31.499  0.0579  0.0451 -0.0784
18982W        W61920  25.750   9.409  28.871  0.5144  0.2102 -0.0443
18983W        W61921  28.791   7.499  31.249  0.2502 -0.1461  0.0214
18984W        W61922  26.109   8.285  27.473 -0.1412 -0.0775 -0.1339
18985W        W61923  29.325   7.492  28.509 -0.4001  0.0333 -0.3742
18986W        W61924  27.897   8.611  28.505  0.1331 -0.1425  0.0276
18987W        W61925  25.099  10.118  27.833 -0.3341 -0.1856  0.0239
18988W        W61926  28.991   7.236  29.896 -0.0469  0.3050 -0.1665
18989W        W61927  27.989   9.624  28.310 -0.0663 -0.3468 -0.0111
18990W        W61928  29.594   9.921  30.079 -0.0317 -0.1111  0.2266
18991W        W61929  28.978  11.429  28.557 -0.0322  0.0373  0.3300
18992W        W61930  25.288   8.579  29.170 -0.0281 -0.2962 -0.1422
18993W        W61931  26.120   7.951  27.890  0.0601  0.1274  0.2611
18994W        W61932  27.125  11.762  29.465  0.4419 -0.1892 -0.0309
18995W        W61933  27.860   9.034  28.133  0.1559 -0.2070 -0.0467
18996W        W61934  26.876   8.791  27.510  0.1046  0.0832  0.2162
18997W        W61935  29.500  10.420  29.888 -0.1142  0.1849 -0.2026
18998W        W61936  27.593   9.278  28.858 -0.0826  0.3278 -0.0578
18999W        W61937  26.059  11.201  30.928 -0.1559 -0.3538 -0.0611
19000W        W61938  27.897   8.236  30.986 -0.2224  0.0169  0.1214
19001W        W61939  28.563  10.017  29.246 -0.0517  0.0011  0.0628
19002W        W61940  28.677   8.158  28.902 -0.0507 -0.0264 -0.1326
19003W        W61941  27.906   7.824  28.134  0.0448  0.3152  0.3399
19004W        W61942  28.245  10.411  29.346 -0.3048 -0.3577 -0.1148
19005W        W61943  25.263  10.627  28.072 -0.0208  0.2644  0.1442
19006W        W61944  24.160  10.053  28.396  0.2346  0.0656 -0.1374
19007W        W61945  27.165  10.865  28.559 -0.1046  0.1356 -0.1587
19008W        W61946  28.290   7.677  28.554  0.1920 -0.2872  0.1164
19009W        W61947  24.915   8.920  31.971  0.3296 -0.2271  0.1381
19010W        W61948  26.745  10.182  29.493  0.1040  0.0659  0.1203
19011W        W61949  27.572   9.975  28.136  0.0606 -0.2189  0.1558
19012W        W61950  26.351  10.760  30.905  0.0497 -0.4541 -0.0093
19013W        W61951  28.526   6.917  28.610 -0.1419 -0.0908  0.1387
19014W        W61952  29.172   7.992  27.969 -0.0905  0.1817  0.4375
19015W        W61953  27.122   8.770  29.813  0.0155  0.1996  0.2326
19016W        W61954  28.402   8.666  27.657  0.2889  0.0378  0.0585
19017W        W61955  28.999   7.404  27.251 -0.2160  0.4897  0.3904
19018W        W61956  28.502   7.330  28.245  0.1763  0.0564  0.1301
19019W        W61957  24.747  10.674  31.140  0.0317 -0.1161 -0.0856
19020W        W61958  29.232   8.781  27.319  0.2134 -0.1447 -0.4672
19021W        W61959  27.516   9.266  30.017  0.0904  0.1735  0.0668
19022W        W61960  29.563   6.706  27.778 -0.0471  0.0237 -0.0933
19023W        W61961  28.867   9.172  28.683 -0.0594 -0.0301  0.0875
19024W        W61962  26.237   9.452  29.744 -0.6375 -0.4283  0.2066
19025W        W61963  27.487  11.764  31.570  0.0258  0.0741 -0.1464
19026W        W61964  28.388   9.549  29.456 -0.0022  0.2299 -0.0088
19027W        W61965  26.522   8.285  30.293 -0.1187  0.0868  0.0372
19028W        W61966  27.410   8.179  27.956  0.0642 -0.1564  0.0344
19029W        W61967  28.577   7.709  30.276  0.0349 -0.0710 -0.0588
19030W        W61968  26.447  11.597  28.885 -0.1490 -0.2103  0.0844
19031W        W61969  28.035   8.723  30.824  0.1232  0.1567 -0.1139
19032W        W61970  27.639   8.809  29.789  0.2424  0.1692  0.0621
19033W        W61971  25.720   7.010  29.402 -0.1882 -0.4490 -0.2113
19034W        W61972  28.170   6.298  31.963  0.0484 -0.3537  0.3157
19035W        W61973  29.176   8.001  30.292  0.0490  0.2379  0.3327
19036W        W61974  28.079   9.036  29.954  0.2563  0.0045  0.0151
19037W        W61975  25.378   8.860  27.619 -0.0908  0.1447 -0.4265
19038W        W61976  27.561   7.484  30.284 -0.1297 -0.0554  0.3073
19039W        W61977  26.704   9.778  29.848 -0.0505 -0.1679  0.1038
19040W        W61978  24.304  11.453  30.010 -0.0457 -0.2221 -0.1626
19041W        W61979  26.666  10.729  30.412 -0.0882  0.1774  0.0189
19042W        W61980  28.243   7.511  27.836 -0.1156 -0.1282  0.0439
19043W        W61981  26.580   7.794  31.442 -0.0122 -0.2739 -0.0904
19044W        W61982  26.947   6.630  27.952 -0.0728  0.0076  0.0142
19045W        W61983  26.862  11.926  28.935  0.2526 -0.0090  0.2955
19046W        W61984  28.324   9.955  27.541 -0.3389 -0.1149  0.1359
19047W        W61985  28.146   6.563  30.334 -0.0070  0.2520 -0.0085
19048W        W61986  26.746   9.918  29.051  0.0367  0.1651 -0.0598
19049W        W61987  28.187   9.165  27.759  0.2284  0.0730  0.1734
19050W        W61988  27.647  10.261  29.658  0.2807 -0.1345 -0.0400
19051W        W61989  26.637  10.840  28.738 -0.0006  0.2638  0.3200
19052W        W61990  28.712   9.078  30.318  0.0654  0.1405 -0.1398
19053W        W61991  26.273  10.972  28.212 -0.0536  0.0256 -0.2240
19054W        W61992  26.537   8.338  27.810 -0.0132 -0.2645 -0.0350
19055W        W61993  24.327   8.649  28.172 -0.0129  0.0016 -0.4607
19056W        W61994  29.312   6.899  29.806  0.0587 -0.0621 -0.0668
19057W        W61995  28.373   8.248  27.380  0.1403  0.4206  0.3098
19058W        W61996  26.869   8.737  29.336  0.1756 -0.1449 -0.1082
19059W        W61997  27.601   8.093  30.158 -0.1397  0.0453  0.0166
19060W        W61998  25.856  11.929  29.615 -0.0144  0.2144  0.2049
19061W        W61999  27.590   9.640  29.218 -0.1476  0.1303  0.0543
19062W        W62000  28.523   7.420  27.419  0.0613  0.3517  0.1262
19063W        W62001  27.385   9.674  30.188  0.2981 -0.0354 -0.1899
19064W        W62002  26.334   9.459  30.570 -0.0078  0.0560  0.1990
19065W        W62003  26.262   8.067  28.449  0.0742  0.0482 -0.1496
19066W        W62004  27.813   9.546   0.152  0.2457 -0.2946  0.1522
19067W        W62005  26.538   8.473  28.358  0.0337 -0.0928  0.1513
19068W        W62006  26.913  12.251  29.361  0.1645  0.0412  0.0161
19069W        W62007  26.655  10.316  28.718 -0.1926 -0.0884  0.0986
19070W        W62008  27.396   8.989  27.328 -0.2513  0.2351  0.2747
19071W        W62009  26.157  11.024  28.691 -0.0240 -0.0665  0.1623
19072W        W62010  27.339   8.447  30.982  0.0137 -0.2023  0.1081
19073W        W62011  27.321   9.835  31.376  0.0875  0.1596 -0.2829
19074W        W62012  28.101   7.081  29.444  0.0142 -0.1004 -0.1194
19075W        W62013  26.947   8.279  29.456  0.0974  0.0354  0.1058
19076W        W62014  26.643   8.725  29.996  0.0270  0.1248 -0.1771
19077W        W62015  27.792   9.321  29.607  0.4143 -0.0122  0.0071
19078W        W62016  26.843   9.631  31.337  0.0973  0.2009 -0.0616
19079W        W62017  26.916  11.155  31.080 -0.1593 -0.1378  0.0738
19080W        W62018  26.405   7.500  29.312  0.1211 -0.1126 -0.0518
19081W        W62019  28.790  10.872  28.689 -0.0094  0.0205 -0.2468
19082W        W62020  27.380   9.704  30.861 -0.1729 -0.1561 -0.0378
19083W        W62021  25.669  10.390  28.608 -0.0226 -0.0324  0.0581
19084W        W62022  25.573  11.251  29.227  0.4237 -0.1435  0.0888
19085W        W62023  25.989   9.932  27.947  0.1212  0.0218 -0.2429
19086W        W62024  26.307   8.444  30.711 -0.2099 -0.6390  0.0271
19087W        W62025  25.990  10.174  29.976  0.1478  0.1317  0.0766
19088W        W62026  25.083  10.297  28.381 -0.0548 -0.0043 -0.0724
19089W        W62027  26.337  12.291  28.945  0.0705 -0.1671  0.2181
19090W        W62028  29.379   8.613  29.054 -0.1314 -0.0206 -0.0824
19091W        W62029  28.669   9.199  28.034 -0.1219  0.0710 -0.2777
19092W        W62030  27.399   8.517  28.373  0.1263  0.1684 -0.1233
19093W        W62031  28.590   6.674   0.192 -0.0446 -0.1384  0.2251
19094W        W62032  27.322   9.880  27.673 -0.1347  0.1805 -0.0277
19095W        W62033  28.575   7.910   0.627  0.1097  0.0866  0.1576
19096W        W62034  27.281   6.840  30.507  0.2410 -0.2934 -0.1449
19097W        W62035  28.319   9.826  29.867  0.0900  0.1617  0.1032
19098W        W62036  24.423  10.462  30.731 -0.1934  0.3975  0.1767
19099W        W62037  27.760  11.089  30.945 -0.0738  0.2528 -0.2663
19100W        W62038  27.354   9.346  31.655 -0.0871  0.0481  0.5919
19101W        W62039  28.143   7.898  29.002  0.0667 -0.1044 -0.2933
19102W        W62040  27.142   7.089  27.925 -0.2136  0.0469  0.0172
19103W        W62041  26.919   8.939  31.538 -0.3685  0.2161  0.0785
19104W        W62042  28.237   9.083  29.486  0.1689 -0.0167 -0.2058
19105W        W62043  27.066  10.777  27.969 -0.0687 -0.2649 -0.0802
19106W        W62044  29.538   8.354  30.050  0.0363 -0.0084 -0.0996
19107W        W62045  26.228   9.818  30.178 -0.2347  0.0038 -0.2990
19108W        W62046  28.192   8.227  28.637 -0.0067 -0.2819  0.4562
19109W        W62047  27.097   9.998  28.730 -0.0265 -0.1883 -0.0978
19110W        W62048  26.987  10.472  29.167 -0.0869 -0.1673  0.0753
19111W        W62049  26.830   7.451  31.068  0.2481 -0.1455 -0.5184
19112W        W62050  28.969   8.734  27.824  0.0456 -0.1603  0.0844
19113W        W62051  28.556   7.864  28.187  0.0600 -0.3058 -0.0539
19114W        W62052  28.311   8.221  29.343 -0.1921 -0.2666 -0.2680
19115W        W62053  27.781   9.003   0.458  0.1332  0.3513 -0.1571
19116W        W62054  27.750   8.424  30.548  0.1618 -0.0871  0.0363
19117W        W62055  25.725   7.382  31.627  0.0647  0.0275  0.0352
19118W        W62056  28.433  10.768  29.837 -0.0537 -0.1596 -0.0666
19119W        W62057  29.903   6.976  27.467  0.3141  0.0479  0.2728
19120W        W62058  30.455   8.414  30.263  0.0487 -0.2371  0.1746
19121W        W62059  28.979   9.383  29.976 -0.1445  0.0384  0.2430
19122W        W62060  27.653   7.613  26.301 -0.0618  0.0558 -0.2341
19123W        W62061  25.623   8.677  28.057 -0.1309  0.0598 -0.1029
19124W        W62062  28.726   7.982  31.701  0.2723 -0.1564 -0.2421
19125W        W62063  25.991   7.969  27.058  0.3016 -0.0653  0.1815
19126W        W62064  28.369   7.001  31.614  0.2664 -0.2563  0.0478
19127W        W62065  28.253  10.467  27.842  0.1327 -0.0004 -0.0813
19128W        W62066  27.738   9.970  30.049 -0.4062  0.0316 -0.1794
19129W        W62067  27.233   7.711  28.203 -0.3681 -0.1195 -0.1070
19130W        W62068  25.685   8.859  28.946  0.0458  0.2315 -0.2896
19131W        W62069  24.720  11.108  30.046  0.1462 -0.0066  0.2505
19132W        W62070  27.154   9.354  27.582  0.0972 -0.2111 -0.0980
19133W        W62071  26.639   9.480  28.108 -0.0741 -0.1217 -0.2940
19134W        W62072  27.391  10.442  28.805  0.3290 -0.0720 -0.0134
19135W        W62073  28.271   8.716   0.303  0.0652  0.2085  0.3527
19136W        W62074  27.428   6.548  28.266  0.2176  0.0286  0.0461
19137W        W62075  29.398   7.106  31.400  0.2117 -0.2665  0.1359
19138W        W62076  25.822  10.192  27.314 -0.1109 -0.2822 -0.2582
19139W        W62077  29.922   7.532  30.071 -0.2253  0.2724 -0.1310
19140W        W62078  26.610  11.259  29.669 -0.0503  0.2344 -0.1003
19141W        W62079  25.748  11.595  29.930  0.5216 -0.0027  0.2202
19142W        W62080  25.979  10.500  28.138  0.2509 -0.1698 -0.1677
19143W        W62081  29.105   7.478  30.300  0.1350 -0.0628  0.3453
19144W        W62082  29.495   7.914  29.860 -0.0500 -0.2775 -0.1251
19145W        W62083  26.129   9.477  28.512  0.0617 -0.0813  0.4448
19146W        W62084  27.191   8.933   0.031  0.3519  0.0574  0.0581
19147W        W62085  27.353   9.337  30.532 -0.2055 -0.1057 -0.0056
19148W        W62086  25.073  10.025  29.811  0.2450  0.2062  0.1294
19149W        W62087  26.497   9.635  29.391 -0.2224 -0.1061  0.0239
19150W        W62088  29.654   9.240  28.446 -0.0808  0.3809 -0.1135
19151W        W62089  26.179  10.479  28.575 -0.0324  0.1601 -0.0767
19152W        W62090  26.024   8.683  31.967  0.0062 -0.1469  0.1445
19153W        W62091  26.646   9.817   0.497  0.0234  0.0244  0.4071
19154W        W62092  28.246   8.093  29.807  0.1250  0.2900 -0.1142
19155W        W62093  27.386   8.111  29.287 -0.1143  0.0870  0.2028
19156W        W62094  27.242  10.390  28.264  0.3908 -0.1730 -0.2730
19157W        W62095  25.613  10.355  31.945 -0.2540  0.1285  0.0206
19158W        W62096  26.112   9.214  31.397 -0.3267  0.1040 -0.2940
19159W        W62097  26.604  12.060  28.389  0.0854 -0.0568  0.1693
19160W        W62098  28.752   8.591  27.302  0.2274 -0.2695 -0.1101
19161W        W62099  26.165   9.428  27.998 -0.1764 -0.2303 -0.4157
19162W        W62100  28.138  10.307  29.875  0.0562 -0.1915  0.0020
19163W        W62101  26.919   8.550  27.995 -0.1882 -0.1925  0.0533
19164W        W62102  25.410   9.704  27.777 -0.2020  0.1083  0.3336
19165W        W62103  24.847  10.818  28.343 -0.0804 -0.2065  0.1789
19166W        W62104  29.413   9.820  29.105  0.1122 -0.2047  0.1476
19167W        W62105  26.142  10.913  30.028  0.1983 -0.1285  0.2883
19168W        W62106  26.564   9.341  31.676  0.2708  0.0051 -0.0055
19169W        W62107  28.181   6.954  28.164  0.0180  0.0371  0.1753
19170W        W62108  28.771   9.250  29.534  0.4257  0.1133 -0.0072
19171W        W62109  29.157   9.199  28.295  0.1832  0.0475 -0.1148
19172W        W62110  26.400   9.979  30.609 -0.0568  0.0052  0.1382
19173W        W62111  25.323   9.198  28.779 -0.0842 -0.1173  0.0170
19174W        W62112  27.421   7.620  27.236 -0.0310  0.1646 -0.2221
19175W        W62113  26.743   8.138  30.761  0.0048  0.1261 -0.0275
19176W        W62114  29.390   6.589  31.484 -0.0916  0.3138  0.0379
19177W        W62115  26.310  10.862  29.545 -0.1244 -0.2285  0.3193
19178W        W62116  28.660  10.901  28.035 -0.1060 -0.0359  0.1411
19179W        W62117  24.099   8.511  27.756  0.0947 -0.1495  0.2290
19180W        W62118  27.055   8.426  28.880  0.0401  0.0452 -0.1766
19181W        W62119  29.455   7.353  29.700  0.3703 -0.1858 -0.1896
19182W        W62120  25.612   9.731  26.754  0.0321  0.3734 -0.1722
19183W        W62121  27.775   8.237  28.944  0.1165 -0.0255  0.0987
19184W        W62122  26.563  10.532  28.242 -0.1099 -0.2953 -0.2130
19185W        W62123  26.383  10.394  29.798  0.2912  0.1157 -0.0869
19186W        W62124  26.577   9.637  28.603 -0.0114 -0.1330  0.2349
19187W        W62125  26.058   8.952  28.138  0.1503  0.4247  0.0197
19188W        W62126  30.474   8.038  28.401  0.0469 -0.1735  0.1193
19189W        W62127  26.371   8.123  31.101  0.3405  0.0678  0.1317
19190W        W62128  29.016   7.742  29.836  0.1777 -0.0028 -0.0538
19191W        W62129  25.798   9.961  30.622  0.0468  0.2321 -0.0455
19192W        W62130  29.315   8.798  28.590 -0.0669  0.0023 -0.1072
19193W        W62131  27.565   9.337  31.184  0.0981  0.1181  0.1382
19194W        W62132  26.734   9.583  30.828 -0.0032  0.0630  0.1157
19195W        W62133  27.452   9.603  28.557  0.1054 -0.1200  0.2996
19196W        W62134  28.728   9.678  30.238  0.0857 -0.0224  0.1511
19197W        W62135  27.908   8.902  27.401  0.3451  0.4198 -0.0858
19198W        W62136  27.254  10.543  30.635 -0.1483 -0.3679  0.1915
19199W        W62137  27.155   9.011  28.950 -0.0580  0.2756 -0.2467
19200W        W62138  28.239   6.484  28.669 -0.1429 -0.4672  0.0895
19201W        W62139  25.568   9.576  28.240  0.1159  0.1370  0.0550
19202W        W62140  27.975   7.800  30.102 -0.0083 -0.1415  0.0227
19203W        W62141  28.195  10.894  30.650  0.0719  0.1804  0.1749
19204W        W62142  25.500   7.868  28.479  0.1889  0.1915  0.3007
19205W        W62143  29.030  10.647  27.293 -0.1706 -0.0606  0.0600
19206W        W62144  28.342  10.472  30.365 -0.0108  0.1548 -0.1943
19207W        W62145  26.858  11.317  28.661  0.0723  0.1802  0.3352
19208W        W62146  28.241   8.666  28.168  0.0946  0.0253  0.0251
19209W        W62147  28.266  11.950  30.880  0.2461  0.0470 -0.1139
19210W        W62148  26.140   9.195  29.291 -0.0290 -0.2454 -0.1980
19211W        W62149  27.753   8.930  30.344  0.3032  0.3710 -0.3203
19212W        W62150  28.113   9.611  31.004  0.1032  0.2636  0.1222
19213W        W62151  26.480   6.869  27.975  0.1273  0.1335  0.3335
19214W        W62152  26.038   8.571  28.467  0.2331  0.1156 -0.1097
19215W        W62153  26.766  10.845  29.356 -0.2628  0.4183  0.0435
19216W        W62154  28.530   8.938  30.848 -0.1346  0.1400  0.1376
19217W        W62155  26.979   8.499  31.872 -0.3230  0.0651 -0.0189
19218W        W62156  26.777  11.669  27.567 -0.0570 -0.0513 -0.1374
19219W        W62157  29.227   6.938  31.887  0.0501 -0.2296  0.1276
19220W        W62158  26.616   9.026  29.645  0.5098  0.1590 -0.2221
19221W        W62159  25.494  10.871  31.227 -0.0912 -0.0586  0.0435
19222W        W62160  25.706  11.467  27.732 -0.0099  0.3203  0.2454
19223W        W62161  26.351   8.844  30.389  0.0618  0.1873  0.1401
19224W        W62162  26.434  10.187  27.858  0.2961 -0.3742 -0.2362
19225W        W62163  27.463  10.598  29.342  0.3027  0.0488 -0.1808
19226W        W62164  27.049   9.707  29.436 -0.2080 -0.2468  0.1476
19227W        W62165  27.838   8.290  29.535 -0.2931  0.0803 -0.1508
19228W        W62166  28.869  10.689  30.429  0.1358  0.1897  0.0457
19229W        W62167  26.533   9.324  30.087  0.1238 -0.1115 -0.0544
19230W        W62168  30.205   8.433  28.703 -0.1301 -0.0169 -0.4124
19231W        W62169  29.959   5.325  27.480 -0.1526 -0.1375 -0.2136
19232W        W62170  26.924   8.661  31.084  0.2372  0.1718  0.0607
19233W        W62171  27.319   8.517  27.548  0.6464  0.1285 -0.1926
19234W        W62172  26.272  10.063  28.913  0.3465 -0.1640  0.0676
19235W        W62173  25.822  10.320  29.063  0.1523 -0.2367 -0.0391
19236W        W62174  26.850   7.832  29.047 -0.0547  0.0807  0.1090
19237W        W62175  25.279   9.215   0.288 -0.3045  0.1094 -0.2137
19238W        W62176  26.100  10.054  29.404 -0.1559 -0.1730  0.0209
19239W        W62177  25.917   7.595  29.088 -0.1154  0.3334  0.0320
19240W        W62178  29.540   9.647  26.939 -0.1208  0.1272 -0.3734
19241W        W62179  25.877   8.801  29.459 -0.1960 -0.0771  0.0987
19242W        W62180  25.130   9.178  29.837 -0.0176 -0.1173  0.1322
19243W        W62181  29.024  10.052  28.804  0.1721  0.5064 -0.1194
19244W        W62182  31.148  10.525  28.477 -0.3838  0.1888 -0.2073
19245W        W62183  27.812   6.886  28.526  0.0428  0.1574  0.1349
19246W        W62184  28.206  10.447  31.534 -0.3573 -0.1334 -0.1325
19247W        W62185  24.815  10.368  27.185 -0.0826  0.2336 -0.0635
19248W        W62186  27.695   9.088  31.962  0.1308 -0.1029 -0.0558
19249W        W62187  25.634   9.198  29.751 -0.3301 -0.2006 -0.1107
19250W        W62188  26.035   8.495  26.926 -0.0131  0.0317 -0.0554
19251W        W62189  27.386   8.593  29.365 -0.1049 -0.0266  0.1991
19252W        W62190  29.471  11.014  29.661 -0.0177  0.0202  0.3133
19253W        W62191  29.212  11.454  27.029  0.0394 -0.0082 -0.1178
19254W        W62192  26.559   9.248  28.897  0.1951 -0.6136  0.1697
19255W        W62193  25.542  10.078  30.093  0.0742 -0.2506 -0.3178
19256W        W62194  25.761   9.545  31.035 -0.0079  0.2978  0.1566
19257W        W62195  28.771   8.819  28.319 -0.0218 -0.0540 -0.0333
19258W        W62196  26.067  10.195   1.072 -0.1584  0.2156  0.0130
19259W        W62197  28.548  11.068  30.238  0.0724 -0.2907 -0.2071
19260W        W62198  28.479   7.578  29.082 -0.2529  0.1691  0.2716
19261W        W62199  28.082   8.630  29.089  0.1433  0.1817 -0.0305
19262W        W62200  26.738   7.683  30.516  0.1140 -0.2481 -0.2211
19263W        W62201  25.441   9.774  31.322 -0.1495  0.4363 -0.1267
19264W        W62202  29.183   7.498  30.907 -0.0636  0.1099  0.2194
19265W        W62203  26.556   8.305  28.953 -0.2593 -0.0284  0.1614
19266W        W62204  29.571   7.771  28.880 -0.0537  0.0348  0.4708
19267W        W62205  28.046   9.084  28.794 -0.1900  0.0766 -0.1198
19268W        W62206  26.033   9.162  30.227  0.1614  0.1249 -0.0900
19269W        W62207  26.962   9.293  28.528 -0.1192 -0.0079  0.1522
19270W        W62208  29.004   8.582  30.081 -0.0091 -0.1697 -0.0078
19271W        W62209  27.025   8.986  30.270 -0.2306  0.3149  0.1234
19272W        W62210  27.614   8.920  30.935 -0.1419  0.1018 -0.1229
19273W        W62211  26.139   7.282  28.728  0.0661  0.1272 -0.0754
19274W        W62212  29.421  10.238  27.318 -0.1819  0.0339  0.2555
19275W        W62213  27.328  10.213  30.990  0.0879 -0.0879  0.0670
19276W        W62214  28.299  11.432  30.515 -0.2103  0.1634  0.0060
19277W        W62215  27.158  10.582  30.094 -0.0948 -0.0909  0.2158
19278W        W62216  27.904   9.321  30.619  0.2008 -0.0522 -0.3507
19279W        W62217  26.296   6.748  30.907 -0.2846 -0.3506  0.4554
19280W        W62218  27.523   8.761  28.803  0.0350 -0.1148  0.3507
19281W        W62219  28.430   8.659  28.689  0.1094 -0.1700 -0.0027
19282W        W62220  27.208   8.854  30.705  0.1582  0.1795 -0.1095
19283W        W62221  26.516   9.031  28.355 -0.1659 -0.2682  0.0341
19284W        W62222  28.997   7.037  28.893 -0.1107 -0.0862  0.2370
19285W        W62223  26.700  10.198  30.188 -0.1780  0.3876  0.0024
19286W        W62224  28.161   8.619  29.685  0.1692 -0.1343 -0.0312
19287W        W62225  29.398   7.949   0.466  0.0334  0.2447 -0.0082
19288W        W62226  27.680   9.987  30.515 -0.2051  0.1842 -0.1470
19289W        W62227  24.979   9.339   1.408  0.0942 -0.0527  0.1353
19290W        W62228  24.909   9.826  31.556 -0.0202  0.1734  0.0728
19291W        W62229  26.077  11.275   1.447 -0.0894  0.0841  0.4120
19292W        W62230  23.872  11.806  31.901 -0.1673  0.1404 -0.2358
19293W        W62231  29.346   8.095   1.062  0.2789  0.0939  0.1723
19294W        W62232  25.588   6.783  31.182  0.1693 -0.0332 -0.1474
19295W        W62233  26.523  10.726  31.918  0.1482  0.0912  0.0031
19296W        W62234  28.157  10.153  30.892  0.2883  0.0662  0.2160
19297W        W62235  26.076  10.069   0.509 -0.0378 -0.0563  0.1160
19298W        W62236  25.244   6.856  30.777  0.0286  0.0618  0.0091
19299W        W62237  27.340   9.316   0.346 -0.0114 -0.0947 -0.3097
19300W        W62238  25.636   9.290  31.473 -0.0395  0.1770 -0.0325
19301W        W62239  29.057   8.723  31.536 -0.1421  0.1623  0.0084
19302W        W62240  26.402  11.166  31.298  0.0543 -0.1493 -0.3472
19303W        W62241  25.464   9.590   0.687 -0.0234 -0.1207  0.2072
19304W        W62242  29.062   9.962  31.920 -0.1322  0.3543  0.0416
19305W        W62243  25.208   8.262  30.546  0.2978  0.0827 -0.3128
19306W        W62244  26.080   8.174   0.212  0.0425  0.1940 -0.2453
19307W        W62245  26.192   7.701   0.158 -0.1482 -0.0835 -0.1159
19308W        W62246  26.026  10.251  31.588  0.0346  0.1374 -0.1074
19309W        W62247  28.208   7.391  31.974  0.3111 -0.2210 -0.1486
19310W        W62248  27.166   7.870  31.042  0.3053  0.1425  0.1218
19311W        W62249  27.494   8.159   0.672 -0.0532  0.0409  0.0639
19312W        W62250  26.890   8.244  31.408 -0.1133 -0.0513 -0.0738
19313W        W62251  27.305   8.733   0.447  0.0757 -0.0061  0.0712
19314W        W62252  25.460  11.674   0.332  0.2277 -0.0237 -0.2082
19315W        W62253  25.467  10.266  31.457  0.0025  0.3960  0.1194
19316W        W62254  26.969   9.994  31.657  0.2074 -0.2506 -0.0526
19317W        W62255  28.821  10.755  31.180  0.0598 -0.3371 -0.2191
19318W        W62256  27.244   9.099   0.796  0.2200 -0.2243 -0.1691
19319W        W62257  29.541   8.721  31.384 -0.0475  0.0458 -0.1756
19320W        W62258  29.355   7.939  31.917 -0.0277 -0.0704 -0.1740
19321W        W62259  25.598   8.333   0.278 -0.1826  0.0549 -0.0266
19322W        W62260  26.252   7.487  31.663  0.0521 -0.1615 -0.0595
19323W        W62261  25.235   9.754   1.182  0.0571 -0.0258  0.1229
19324W        W62262  27.182  10.575   0.291  0.2569 -0.2460  0.1764
19325W        W62263  29.368   9.026  31.862  0.0952  0.1141  0.1960
19326W        W62264  26.272   9.641  31.084  0.1138 -0.0972  0.2016
19327W        W62265  28.908   7.798   0.171  0.1588 -0.1240  0.4214
19328W        W62266  27.397   8.143  31.472 -0.0817 -0.2744 -0.1240
19329W        W62267  25.482   7.269  31.000  0.1821  0.0319 -0.1991
19330W        W62268  27.662  10.712   0.258  0.0602 -0.2269  0.0717
19331W        W62269  28.263   8.123  31.552 -0.0225  0.0927 -0.1352
19332W        W62270  26.699   8.110  31.843 -0.0017 -0.0471 -0.2968
19333W        W62271  27.189   7.476  30.700  0.0022  0.0870  0.0714
19334W        W62272  25.678   9.459   0.016  0.1554 -0.0534 -0.1215
19335W        W62273  28.836  10.187  30.409 -0.1427 -0.1632 -0.2873
19336W        W62274  25.848  12.176  31.030  0.0840  0.0734  0.0587
19337W        W62275  27.789  10.013  31.594 -0.1092  0.0875 -0.1154
19338W        W62276  29.967   6.196  31.799  0.1087 -0.2101  0.0860
19339W        W62277  27.933   7.685   1.428  0.1938 -0.1078  0.1261
19340W        W62278  27.812   8.413  31.557 -0.2011 -0.2219  0.0161
19341W        W62279  25.792   8.314  31.748 -0.2259 -0.0132 -0.0560
19342W        W62280  26.337   8.359  31.628  0.3125  0.0412  0.0053
19343W        W62281  28.645   9.664  31.825 -0.1108 -0.3009 -0.0518
19344W        W62282  26.697   9.113  30.647  0.2423 -0.0219 -0.0291
19345W        W62283  26.218  11.262  29.219 -0.0271  0.3464  0.0856
19346W        W62284  25.980   8.482   0.586  0.1057 -0.3966  0.2694
19347W        W62285  24.590   8.680   1.059  0.1406  0.3768  0.2601
19348W        W62286  25.330   9.604  30.798 -0.0120  0.0919  0.3032
19349W        W62287  26.509  10.320  31.180  0.0353  0.2158  0.0623
19350W        W62288  25.637   8.971  31.933 -0.1283  0.0303  0.0707
19351W        W62289  27.328   9.235  29.507 -0.3106  0.2809 -0.2758
19352W        W62290  29.845   8.004  31.761  0.1513 -0.1275  0.1753
19353W        W62291  28.970   8.708  30.981 -0.2051  0.0063  0.1486
19354W        W62292  26.268  12.917  19.397  0.0215  0.0134  0.1327
19355W        W62293  25.712  11.892  17.070 -0.1178 -0.1894 -0.3197
19356W        W62294  29.000  11.686  16.736 -0.2076  0.3972 -0.0285
19357W        W62295  28.812  11.942  18.418  0.1497 -0.1602  0.0358
19358W        W62296  26.002  10.997  16.450 -0.1205 -0.0392  0.1266
19359W        W62297  26.952  14.538  18.644  0.2213 -0.0912  0.1541
19360W        W62298  25.623   9.685  19.181  0.0557 -0.2045  0.2916
19361W        W62299  27.399  14.210  18.044  0.0907 -0.1514 -0.1145
19362W        W62300  28.495  14.107  16.942 -0.0005  0.1768 -0.0095
19363W        W62301  28.123  12.708  15.424 -0.1802 -0.0471 -0.1217
19364W        W62302  26.546  12.219  17.306  0.1981  0.2866 -0.2078
19365W        W62303  27.021  13.060  18.695 -0.1711 -0.1946 -0.1614
19366W        W62304  25.914  11.195  17.715  0.3731 -0.2952  0.1085
19367W        W62305  25.635  10.815  19.446  0.2611  0.0846 -0.0013
19368W        W62306  27.809  13.603  18.394 -0.0141 -0.0053 -0.0040
19369W        W62307  26.446  12.575  16.920 -0.1882  0.3842 -0.0826
19370W        W62308  27.614  11.825  17.793  0.1806 -0.2273  0.1143
19371W        W62309  27.568  11.939  15.826 -0.2262 -0.1143  0.4195
19372W        W62310  26.824  13.684  16.757 -0.2011 -0.2455  0.3216
19373W        W62311  27.677  12.868  18.664  0.1180  0.1896  0.1628
19374W        W62312  27.711  10.552  19.082  0.0520 -0.0692  0.2567
19375W        W62313  27.027  14.499  16.372  0.2865 -0.2967  0.0545
19376W        W62314  24.624  12.171  16.533  0.2161 -0.1926  0.0842
19377W        W62315  24.159  10.488  17.694 -0.0770  0.0686 -0.2783
19378W        W62316  27.144  11.919  16.721  0.0236 -0.0844 -0.1443
19379W        W62317  28.028  10.535  16.783 -0.2029 -0.1977  0.0909
19380W        W62318  27.549  11.345  17.310 -0.2437  0.0597 -0.1974
19381W        W62319  26.043  14.211  18.528 -0.1364  0.0825 -0.2655
19382W        W62320  26.504  13.822  18.586 -0.2636 -0.1952  0.1514
19383W        W62321  29.683  12.525  19.284  0.2480 -0.1987  0.1679
19384W        W62322  25.509  12.365  16.626 -0.0283 -0.2468 -0.0448
19385W        W62323  25.216  14.815  17.064  0.1463 -0.2899 -0.1854
19386W        W62324  27.305  14.278  17.116  0.4614 -0.0020  0.3347
19387W        W62325  29.054  13.559  18.553  0.0570 -0.0110 -0.2289
19388W        W62326  26.988  14.043  18.865  0.1381  0.2196  0.2053
19389W        W62327  27.268  14.713  20.703  0.2239 -0.0480 -0.0273
19390W        W62328  27.017  12.643  15.330 -0.0087  0.1105  0.1161
19391W        W62329  26.668  14.915  20.038  0.0409 -0.2386  0.2620
19392W        W62330  25.810  12.671  19.386  0.0862  0.0300 -0.0557
19393W        W62331  28.255  13.724  18.243 -0.1008  0.0025 -0.0931
19394W        W62332  26.656  11.765  17.017 -0.0072 -0.0998  0.0136
19395W        W62333  26.344  13.928  16.221 -0.1136  0.0580  0.2973
19396W        W62334  26.909  14.568  17.267 -0.0437 -0.2431  0.1090
19397W        W62335  26.507  14.262  18.897 -0.2680  0.1678  0.2760
19398W        W62336  26.325  13.306  17.103 -0.2716 -0.1210 -0.0602
19399W        W62337  28.202  11.381  19.256  0.7364  0.1514 -0.0528
19400W        W62338  26.861  14.519  15.841  0.3868  0.2324 -0.3630
19401W        W62339  27.628  13.224  16.623  0.1997 -0.3882  0.0392
19402W        W62340  27.111  11.547  17.051 -0.2605 -0.0769  0.4447
19403W        W62341  27.557  11.450  16.044  0.2137 -0.1641 -0.4039
19404W        W62342  27.315  12.368  16.913  0.1574 -0.2305  0.0274
19405W        W62343  25.472  14.901  17.479  0.0769 -0.1925 -0.3595
19406W        W62344  27.065  10.708  17.935  0.1885 -0.3269  0.0364
19407W        W62345  28.160  13.350  18.612 -0.1709  0.0483 -0.1234
19408W        W62346  27.431  12.798  16.541 -0.0117  0.2092 -0.1275
19409W        W62347  28.107  11.916  17.497  0.1001 -0.0248 -0.3111
19410W        W62348  25.764  14.671  18.480  0.0978 -0.0401 -0.1727
19411W        W62349  25.244  11.673  17.802 -0.0418 -0.0281  0.3452
19412W        W62350  29.712  13.457  16.405 -0.0859  0.0701 -0.1473
19413W        W62351  29.351  12.928  17.388 -0.2492  0.2387 -0.4509
19414W        W62352  27.801  13.247  17.799  0.0649 -0.0419  0.1658
19415W        W62353  26.355  11.966  16.321 -0.0264  0.2384 -0.1061
19416W        W62354  26.070  11.855  19.584 -0.1442  0.1467 -0.1870
19417W        W62355  25.786  12.164  19.315  0.0411 -0.1057  0.0923
19418W        W62356  27.302  11.019  15.836 -0.0495 -0.0380  0.0248
19419W        W62357  28.981  13.665  19.023 -0.2701  0.0355 -0.0469
19420W        W62358  25.310  14.690  20.607 -0.0555  0.2424 -0.0086
19421W        W62359  29.113  11.254  16.852  0.0217  0.3276 -0.1487
19422W        W62360  26.119  12.534  18.098 -0.0203 -0.0375 -0.2812
19423W        W62361  29.621  12.179  20.031 -0.1003  0.1653 -0.0206
19424W        W62362  28.693  13.351  17.347 -0.2019  0.3871  0.1170
19425W        W62363  27.568  10.668  16.816  0.1572 -0.0420 -0.1412
19426W        W62364  27.267  10.918  17.439  0.3307 -0.0637 -0.2603
19427W        W62365  26.444  11.882  15.673  0.0773 -0.0799 -0.0571
19428W        W62366  27.504  12.540  17.535  0.0775  0.0716 -0.2239
19429W        W62367  27.235  13.264  19.136  0.1086  0.2012  0.1393
19430W        W62368  27.961  11.542  17.131  0.1379 -0.0860 -0.0974
19431W        W62369  26.712  13.884  19.724 -0.1056 -0.2386 -0.3557
19432W        W62370  26.361  12.169  20.021  0.0107 -0.0119 -0.0237
19433W        W62371  28.112  13.027  19.032 -0.0872  0.0290 -0.0354
19434W        W62372  25.610  13.825  17.412  0.0734  0.1543  0.2815
19435W        W62373  25.198  14.373  17.925 -0.0381  0.1506  0.0077
19436W        W62374  26.352  12.929  16.337 -0.1162  0.4811 -0.2681
19437W        W62375  24.705   9.980  18.822 -0.0521 -0.3004 -0.1623
19438W        W62376  26.176  13.588  18.855 -0.2780 -0.0426  0.1177
19439W        W62377  28.636  10.661  16.161  0.2073 -0.1423  0.0366
19440W        W62378  26.358  11.381  19.397 -0.2820  0.2199 -0.1318
19441W        W62379  29.642  10.549  18.816  0.1599 -0.0899  0.2654
19442W        W62380  25.933  15.053  17.743  0.1022  0.0743 -0.2363
19443W        W62381  28.463  13.080  16.413  0.0033  0.0656  0.0869
19444W        W62382  30.121  12.706  16.760 -0.2218  0.0763 -0.1902
19445W        W62383  27.379  13.824  17.069 -0.2693  0.2265  0.1687
19446W        W62384  25.649  11.164  20.850  0.0546  0.3082  0.0906
19447W        W62385  26.016  11.886  15.934  0.3702  0.0562  0.3542
19448W        W62386  25.292  10.741  20.140 -0.0821 -0.1020 -0.0022
19449W        W62387  25.259  11.607  17.194 -0.2132  0.1672  0.1496
19450W        W62388  27.275  12.315  19.476 -0.1550  0.1317  0.3573
19451W        W62389  26.066  10.855  15.446 -0.0316  0.0088 -0.0351
19452W        W62390  27.967   9.757  17.144  0.1577  0.0249  0.0020
19453W        W62391  27.215  12.688  18.435 -0.0881  0.3266  0.0769
19454W        W62392  25.879  13.667  16.325 -0.1588 -0.0432 -0.2472
19455W        W62393  28.962  11.400  19.326  0.0790  0.0044 -0.2083
19456W        W62394  27.873  14.270  16.238  0.1615  0.2708 -0.0289
19457W        W62395  28.460  13.729  17.552 -0.2993 -0.0840 -0.2433
19458W        W62396  28.201  14.830  18.314 -0.1831 -0.1466 -0.0114
19459W        W62397  24.546  10.910  18.955 -0.1076 -0.3241  0.2820
19460W        W62398  25.982  11.139  18.215 -0.1614  0.1663 -0.5543
19461W        W62399  25.834  13.170  18.484  0.0929 -0.2388 -0.0618
19462W        W62400  26.797  13.495  18.910  0.0746 -0.2876  0.2212
19463W        W62401  26.113  11.080  16.918 -0.3007 -0.0426 -0.0443
19464W        W62402  28.190  13.140  18.100 -0.1544 -0.2695 -0.0277
19465W        W62403  28.684  12.656  16.635  0.0033  0.0656 -0.1412
19466W        W62404  25.023  10.963  19.211 -0.1849 -0.2124 -0.1043
19467W        W62405  27.656  12.085  19.193 -0.2964 -0.0309  0.1350
19468W        W62406  28.201  13.222  19.489  0.0325 -0.0384  0.1227
19469W        W62407  28.761  10.872  18.126 -0.2116 -0.0385 -0.2265
19470W        W62408  28.220  10.733  15.898 -0.3253  0.1309  0.0532
19471W        W62409  27.003  12.967  17.517  0.6586 -0.3156  0.0050
19472W        W62410  25.676  15.064  15.982  0.0993  0.0224  0.2216
19473W        W62411  26.181  11.597  18.088 -0.0133 -0.2003 -0.0937
19474W        W62412  27.964  13.755  17.837  0.2822  0.1639  0.0159
19475W        W62413  27.795  10.953  16.097 -0.1715 -0.1911 -0.3055
19476W        W62414  26.575  12.723  18.770 -0.2084 -0.0588 -0.1563
19477W        W62415  28.430  11.792  19.706 -0.0897  0.1925  0.1052
19478W        W62416  26.770  13.291  15.435  0.2205  0.0635  0.1078
19479W        W62417  27.004  13.023  19.862  0.0611  0.0303  0.0417
19480W        W62418  28.463  10.900  17.457  0.1911 -0.2741  0.0757
19481W        W62419  29.145  10.803  16.110 -0.2488 -0.0920 -0.2232
19482W        W62420  26.717  13.049  19.229 -0.0752 -0.2328 -0.1146
19483W        W62421  28.633  13.717  16.568  0.1814  0.0425 -0.1291
19484W        W62422  27.623  12.361  16.099  0.3698 -0.4119 -0.0253
19485W        W62423  28.521  10.614  15.511 -0.0211  0.1173  0.1018
19486W        W62424  27.622  12.794  21.184 -0.0447  0.1069  0.1885
19487W        W62425  27.742  14.162  16.952 -0.3438  0.0025 -0.1934
19488W        W62426  28.419  15.149  17.245  0.3303 -0.1305 -0.3861
19489W        W62427  28.823  10.836  16.953 -0.2155  0.1510 -0.0059
19490W        W62428  26.925  13.897  18.341  0.0960  0.0629 -0.0025
19491W        W62429  25.627  11.691  18.199  0.2720  0.1050 -0.1997
19492W        W62430  27.440  13.746  18.021  0.3867  0.0823  0.2567
19493W        W62431  28.954  13.781  17.633  0.4258 -0.1796 -0.1746
19494W        W62432  26.162  11.885  20.884 -0.4063  0.0603  0.0898
19495W        W62433  27.656  10.144  16.729  0.3148  0.3161  0.0438
19496W        W62434  26.290  11.207  17.357  0.1964  0.3657 -0.2652
19497W        W62435  23.978  13.304  15.627  0.0046  0.1622 -0.3077
19498W        W62436  29.209  10.999  18.089  0.2354 -0.0984 -0.0070
19499W        W62437  27.341  12.957  17.929  0.1581 -0.4820 -0.2968
19500W        W62438  28.133  11.245  17.540  0.2617 -0.2471 -0.0887
19501W        W62439  29.329  12.785  18.978  0.2092  0.2428 -0.0334
19502W        W62440  28.736  12.610  17.171  0.1261 -0.1480 -0.0773
19503W        W62441  27.594  11.621  16.783 -0.0344  0.0697  0.0894
19504W        W62442  28.131  11.524  16.548 -0.0719  0.0363  0.0341
19505W        W62443  27.529  12.272  18.633  0.1073  0.1917 -0.2715
19506W        W62444  26.281  10.271  19.061 -0.0326 -0.1524  0.1660
19507W        W62445  26.538  12.775  19.829  0.3463 -0.0305 -0.1048
19508W        W62446  27.014  11.616  20.547 -0.2939 -0.1748 -0.1514
19509W        W62447  27.421  12.084  18.148 -0.1590  0.1596 -0.1435
19510W        W62448  27.704  11.568  19.358 -0.1192  0.0338 -0.1388
19511W        W62449  26.372  10.353  17.543  0.0106 -0.1428  0.1084
19512W        W62450  26.466  14.451  16.245 -0.1982 -0.0877  0.2550
19513W        W62451  26.250  14.536  15.698 -0.0457  0.1560  0.0344
19514W        W62452  26.595  11.081  19.773  0.1377  0.2269 -0.2608
19515W        W62453  27.430  13.992  17.557  0.0171 -0.0831 -0.4260
19516W        W62454  27.789  12.420  16.637 -0.0330 -0.1549  0.1354
19517W        W62455  28.989  12.522  17.595 -0.1168  0.0705  0.0028
19518W        W62456  26.950  13.486  17.255 -0.0758 -0.0319 -0.0319
19519W        W62457  26.132  10.606  17.244 -0.0054 -0.3360 -0.0563
19520W        W62458  26.042  14.018  17.625 -0.1798 -0.0596  0.0299
19521W        W62459  26.975  10.908  16.822  0.0886  0.0245  0.0477
19522W        W62460  26.013  12.957  16.773  0.1577 -0.0633  0.3129
19523W        W62461  28.339  10.862  16.969  0.0879  0.0765 -0.2816
19524W        W62462  28.208  12.784  16.720 -0.1409 -0.3507 -0.0658
19525W        W62463  25.276  11.034  17.140  0.0045 -0.0136 -0.1731
19526W        W62464  26.412  11.177  18.496  0.1807  0.1542 -0.0447
19527W        W62465  25.075  13.956  17.579 -0.2865  0.0421 -0.0672
19528W        W62466  26.826  13.376  18.379  0.0833  0.1198  0.2060
19529W        W62467  27.991  11.146  15.695  0.2170  0.3257 -0.0714
19530W        W62468  25.954  13.675  17.053  0.1211 -0.1499  0.0178
19531W        W62469  27.424  12.694  19.872  0.1841 -0.1341  0.0179
19532W        W62470  26.257  11.556  16.635  0.1377 -0.3526  0.2842
19533W        W62471  28.324  11.744  18.399  0.2707  0.0941 -0.1940
19534W        W62472  26.761  12.229  16.793  0.1168  0.1421  0.1746
19535W        W62473  25.653  13.336  16.616  0.0957 -0.1245 -0.0794
19536W        W62474  28.164  14.463  17.955 -0.0485 -0.1227 -0.0731
19537W        W62475  26.734  11.694  16.525  0.0920  0.0965 -0.1107
19538W        W62476  25.999  12.448  16.680 -0.2516 -0.1889 -0.2004
19539W        W62477  26.923  13.147  20.371  0.0218 -0.0235  0.0712
19540W        W62478  27.761  11.709  18.315  0.2866 -0.3973 -0.2084
19541W        W62479  29.030  10.384  16.865  0.0102  0.3234  0.0240
19542W        W62480  24.160  11.181  17.453 -0.1382 -0.2590  0.1348
19543W        W62481  27.163  11.625  17.567 -0.1519 -0.0106  0.0381
19544W        W62482  28.803  12.547  18.561 -0.0133  0.1557  0.3606
19545W        W62483  27.808  11.908  20.693  0.0433  0.0281  0.0860
19546W        W62484  26.446  13.116  20.167 -0.0473 -0.0485 -0.2769
19547W        W62485  27.286  10.300  18.114 -0.0665  0.0336  0.2338
19548W        W62486  29.035  13.236  18.102  0.0879 -0.0116  0.1432
19549W        W62487  28.876  13.038  19.095  0.3703  0.0483  0.1267
19550W        W62488  26.558  12.844  15.557 -0.0753  0.4607  0.1480
19551W        W62489  26.294  12.971  18.095 -0.0772  0.0055  0.0338
19552W        W62490  26.610  13.493  16.280 -0.1302 -0.1606  0.0468
19553W        W62491  27.117  11.091  20.448 -0.1897  0.0604 -0.0616
19554W        W62492  26.008  12.305  17.229 -0.2927 -0.3396 -0.0909
19555W        W62493  26.240  13.390  16.599 -0.2095  0.1653 -0.0861
19556W        W62494  26.094  12.794  17.237  0.1817  0.0078 -0.0243
19557W        W62495  29.992  11.034  16.469  0.0303 -0.0647 -0.0702
19558W        W62496  27.571  11.897  17.293  0.0373 -0.0156  0.0637
19559W        W62497  26.840  11.226  17.372  0.1075 -0.0981  0.0803
19560W        W62498  28.707  10.376  18.804 -0.4605  0.0040 -0.0600
19561W        W62499  27.018  11.965  17.217  0.2503 -0.2761  0.3868
19562W        W62500  28.005  11.417  18.746 -0.0702  0.2608 -0.0037
19563W        W62501  25.502  10.357  17.505 -0.1675  0.1465 -0.2108
19564W        W62502  28.714  12.899  18.174  0.2045 -0.2059 -0.0639
19565W        W62503  25.218  12.523  20.679 -0.3799  0.0733 -0.0491
19566W        W62504  27.805  15.105  21.359 -0.0407  0.1184 -0.2146
19567W        W62505  25.602  12.609  20.382 -0.0258  0.0575  0.1206
19568W        W62506  28.334  12.300  16.427 -0.1256  0.3089 -0.2035
19569W        W62507  25.152  12.254  16.019 -0.1774 -0.1082  0.0908
19570W        W62508  26.914  13.508  17.875  0.2756 -0.2669 -0.0390
19571W        W62509  30.115  11.968  17.641 -0.0498  0.0495 -0.0135
19572W        W62510  27.523  13.186  16.108 -0.0788  0.1042 -0.2698
19573W        W62511  29.817  10.889  17.254  0.1167  0.0453  0.2709
19574W        W62512  24.774  11.919  18.300 -0.0485 -0.4882 -0.0088
19575W        W62513  28.321  12.352  16.986  0.3174  0.4279  0.3423
19576W        W62514  28.016  13.291  16.159  0.0828  0.0293  0.1446
19577W        W62515  26.725  13.181  16.848 -0.3024 -0.0750  0.0199
19578W        W62516  26.858  11.152  19.311 -0.1276 -0.0797 -0.3581
19579W        W62517  28.871  11.792  17.915 -0.0295  0.0221  0.0986
19580W        W62518  28.119  12.793  17.209  0.2663  0.0630 -0.1628
19581W        W62519  27.298  11.209  19.491  0.1579 -0.2094 -0.4688
19582W        W62520  27.357  14.196  19.344  0.3420  0.1041 -0.0109
19583W        W62521  29.122  12.677  19.418 -0.3032 -0.0884  0.1253
19584W        W62522  24.678  10.683  20.977 -0.3086 -0.0388 -0.0770
19585W        W62523  27.265  13.578  18.565 -0.3418 -0.1475 -0.1382
19586W        W62524  28.969  12.478  16.315  0.0639  0.0032  0.0481
19587W        W62525  26.749  12.835  18.232  0.1095  0.0927  0.0068
19588W        W62526  27.982  11.257  18.272 -0.0512 -0.1544  0.1427
19589W        W62527  27.919  11.860  16.204  0.0057 -0.0118  0.4115
19590W        W62528  25.349  11.197  17.706 -0.0012 -0.2220  0.0834
19591W        W62529  28.196  12.749  20.011 -0.0612  0.4451 -0.1223
19592W        W62530  27.031  11.126  15.388  0.1159 -0.1993 -0.1394
19593W        W62531  26.569  12.169  18.770 -0.0787 -0.1106  0.1162
19594W        W62532  27.783  13.632  17.398  0.0439 -0.0884 -0.0398
19595W        W62533  29.578  14.830  16.623 -0.3346 -0.0507 -0.3434
19596W        W62534  27.310  10.980  16.336  0.3196  0.0408 -0.0337
19597W        W62535  26.173  11.662  17.240 -0.0055 -0.2820  0.1148
19598W        W62536  26.639  16.268  19.168 -0.1288  0.2281 -0.0286
19599W        W62537  26.971  12.864  16.432 -0.4657  0.1142  0.1157
19600W        W62538  26.940  11.942  15.944 -0.0409 -0.2041  0.0784
19601W        W62539  27.829  13.225  17.085 -0.1607  0.1930  0.4644
19602W        W62540  29.496  12.713  20.287 -0.1903  0.0497  0.0822
19603W        W62541  27.570   9.725  15.819 -0.0030  0.1845  0.0654
19604W        W62542  28.998  11.406  20.265  0.3067  0.0906  0.0809
19605W        W62543  25.824  13.606  15.843  0.0063 -0.2066  0.3007
19606W        W62544  26.588  10.335  17.983 -0.0775 -0.1685 -0.0828
19607W        W62545  26.020  15.598  18.347 -0.1359 -0.1170  0.0079
19608W        W62546  25.857  11.462  20.412  0.1923  0.1301 -0.0168
19609W        W62547  26.007  13.869  18.100  0.1817 -0.0744 -0.2616
19610W        W62548  27.308  10.655  18.675  0.2058 -0.1601  0.4173
19611W        W62549  28.455  12.277  18.407 -0.1810  0.2213  0.2552
19612W        W62550  26.564  11.275  17.808  0.0494 -0.2597 -0.0313
19613W        W62551  28.102  12.343  19.267  0.0983  0.0282  0.1070
19614W        W62552  26.863  14.248  19.352  0.3589  0.0743 -0.1373
19615W        W62553  26.279  12.596  17.643  0.3186  0.0463  0.0713
19616W        W62554  27.909  13.971  19.201  0.0389  0.0509 -0.1329
19617W        W62555  28.683  12.478  17.999  0.3670  0.1388  0.3149
19618W        W62556  26.649  14.340  16.790 -0.0016 -0.0926 -0.2404
19619W        W62557  25.336  12.197  20.014 -0.2883  0.1394  0.0234
19620W        W62558  27.940  11.979  19.627 -0.3040 -0.0202  0.0159
19621W        W62559  27.922  12.750  17.720 -0.0493  0.2122  0.1997
19622W        W62560  25.889  10.332  17.825 -0.0122  0.1179 -0.3588
19623W        W62561  27.712  13.816  16.268 -0.0481  0.0116  0.0967
19624W        W62562  26.582  13.853  21.324  0.0189 -0.1816 -0.1358
19625W        W62563  25.504  11.849  19.539 -0.2627  0.0013  0.0239
19626W        W62564  26.728  12.709  16.001 -0.0611 -0.2810 -0.0995
19627W        W62565  28.527  13.099  16.943  0.0716  0.5037 -0.1374
19628W        W62566  27.665  12.762  16.992 -0.2192  0.1131 -0.1480
19629W        W62567  27.882  14.735  16.692  0.1030 -0.3277 -0.0859
19630W        W62568  26.669  11.308  16.866 -0.1712  0.1005  0.0657
19631W        W62569  25.729  12.728  18.871 -0.2907 -0.0140 -0.0439
19632W        W62570  26.183  12.805  15.894 -0.4325 -0.3369 -0.1690
19633W        W62571  27.980  15.233  17.638 -0.0278  0.0081  0.0830
19634W        W62572  26.007  14.624  17.561  0.2643 -0.0837 -0.3291
19635W        W62573  29.150  11.852  19.443  0.1645  0.0519 -0.2230
19636W        W62574  28.859  12.657  15.845 -0.2353  0.4226  0.0409
19637W        W62575  28.427  12.322  17.509  0.0417  0.1302 -0.1251
19638W        W62576  29.835  11.524  16.585  0.1336 -0.1308 -0.0745
19639W        W62577  28.205  13.299  17.472  0.3010 -0.0415  0.2518
19640W        W62578  26.817  12.508  17.561  0.1298  0.0775  0.3471
19641W        W62579  27.304  11.507  15.620 -0.0947 -0.0390  0.0684
19642W        W62580  26.480  14.709  20.566 -0.1330 -0.1299 -0.0118
19643W        W62581  29.640  10.926  19.121 -0.2700  0.1573 -0.0057
19644W        W62582  25.757  13.655  19.569  0.4867  0.0558  0.1871
19645W        W62583  28.697  14.691  16.411 -0.2122 -0.0142 -0.2363
19646W        W62584  26.506  12.474  16.426 -0.1406 -0.1901 -0.0998
19647W        W62585  27.263  13.220  16.949  0.1429 -0.2430 -0.2723
19648W        W62586  28.400  11.238  18.520 -0.1778 -0.2444 -0.3596
19649W        W62587  27.157  11.369  16.556 -0.3639  0.1533 -0.1363
19650W        W62588  28.846  10.971  16.479  0.2691 -0.0124 -0.1690
19651W        W62589  25.709  13.149  17.133 -0.0525  0.1637  0.1536
19652W        W62590  26.396  14.204  19.892 -0.0189  0.0138 -0.0541
19653W        W62591  26.517  14.296  18.327 -0.0018  0.0944 -0.0554
19654W        W62592  25.223  12.073  17.018 -0.1122  0.2336 -0.2709
19655W        W62593  29.669  11.000  16.784  0.0042 -0.4034 -0.1868
19656W        W62594  25.607  11.967  18.595  0.3011  0.0843 -0.0439
19657W        W62595  28.045  11.657  17.915 -0.0818 -0.1881 -0.1298
19658W        W62596  26.629  13.735  17.548 -0.2853  0.4097  0.0485
19659W        W62597  28.956  12.230  16.767 -0.1820 -0.2321 -0.2188
19660W        W62598  26.538  12.212  17.841 -0.1697  0.0020 -0.1405
19661W        W62599  26.034  12.138  18.790  0.2545 -0.1968  0.1680
19662W        W62600  27.149  13.562  16.336  0.0728 -0.0885 -0.3472
19663W        W62601  30.384  12.970  19.021 -0.0526 -0.1435 -0.2947
19664W        W62602  28.952  13.355  16.747 -0.0674 -0.0571  0.3415
19665W        W62603  27.847  13.241  20.390 -0.0296 -0.0077  0.5066
19666W        W62604  25.763  11.374  16.660 -0.0247  0.1038 -0.2245
19667W        W62605  28.204  11.646  15.767 -0.1313 -0.0951 -0.1686
19668W        W62606  25.595  14.278  17.635 -0.0551 -0.0066  0.1809
19669W        W62607  27.021  12.750  16.960 -0.0830  0.1623  0.0843
19670W        W62608  28.425  14.729  19.117  0.1565 -0.2674 -0.0351
19671W        W62609  23.964  11.413  17.019  0.4045  0.3560  0.1722
19672W        W62610  28.449  13.463  16.036  0.2922 -0.2222 -0.1384
19673W        W62611  27.773  11.216  16.586 -0.2095  0.0132  0.0414
19674W        W62612  26.781  14.924  16.327 -0.1357  0.0516  0.0048
19675W        W62613  27.880  12.324  17.298 -0.0205  0.0692  0.2899
19676W        W62614  27.212  15.062  17.872 -0.1904 -0.0324  0.0423
19677W        W62615  26.224  12.509  19.050  0.2450  0.1198 -0.0904
19678W        W62616  28.510  14.251  18.259 -0.0380  0.0306 -0.0274
19679W        W62617  30.668  12.443  18.719 -0.0702 -0.1908 -0.1316
19680W        W62618  28.504   8.945  17.681 -0.1449  0.0521 -0.0764
19681W        W62619  26.654  12.592  19.340  0.3459  0.1212 -0.2496
19682W        W62620  24.467  14.470  16.265  0.1291 -0.3497 -0.3029
19683W        W62621  28.164  11.839  19.178  0.1192 -0.3561 -0.1521
19684W        W62622  27.153  12.045  18.996  0.3457  0.0158  0.0440
19685W        W62623  27.694  14.752  16.095  0.1611  0.0171 -0.1057
19686W        W62624  29.562  11.782  18.883 -0.3513  0.2069  0.3526
19687W        W62625  27.438  13.167  18.368  0.2641  0.1137 -0.0904
19688W        W62626  26.925  14.932  20.449 -0.0667 -0.1539 -0.0011
19689W        W62627  27.063  12.340  16.367 -0.1570  0.0357  0.1823
19690W        W62628  25.649  12.430  18.433 -0.0149 -0.0361 -0.5097
19691W        W62629  27.883  12.267  17.786 -0.1485 -0.0555 -0.2623
19692W        W62630  26.266  13.706  15.779  0.1897  0.3929  0.3026
19693W        W62631  29.288  13.667  18.087 -0.2586 -0.3321  0.0196
19694W        W62632  28.543  11.913  16.659 -0.0314 -0.1656  0.1778
19695W        W62633  28.494  12.839  17.703  0.2752 -0.0547 -0.1523
19696W        W62634  26.538  11.582  16.060 -0.2599 -0.1143 -0.1896
19697W        W62635  28.206  10.929  16.441 -0.0171  0.0341 -0.5558
19698W        W62636  28.132   9.302  17.338 -0.0388 -0.0161  0.1086
19699W        W62637  27.009  12.205  18.514  0.2676  0.2138  0.1461
19700W        W62638  25.608  12.153  16.152 -0.0348 -0.1471  0.1473
19701W        W62639  27.352  13.951  16.553  0.1072 -0.1856  0.1731
19702W        W62640  26.021  13.059  17.663 -0.0711 -0.0124  0.1884
19703W        W62641  26.740  11.611  19.171  0.3747  0.0009 -0.0637
19704W        W62642  26.667  11.831  17.550  0.0085 -0.0209 -0.0759
19705W        W62643  26.453  13.769  17.063 -0.1984 -0.3584 -0.4274
19706W        W62644  25.371  11.692  16.227  0.0162 -0.3927 -0.3306
19707W        W62645  28.143  13.286  16.676 -0.1225 -0.0927 -0.0618
19708W        W62646  27.434  10.517  17.632 -0.0827 -0.1982 -0.1195
19709W        W62647  25.379  10.485  18.810  0.1851  0.0447 -0.1694
19710W        W62648  28.178  13.929  16.502 -0.2054 -0.2071 -0.3180
19711W        W62649  29.598  13.837  17.752 -0.0923  0.0292  0.3863
19712W        W62650  27.369  11.794  16.289  0.1801 -0.1609  0.1602
19713W        W62651  28.978  13.038  18.559 -0.2530 -0.0986 -0.0564
19714W        W62652  25.538  13.375  16.122  0.2516  0.1069  0.2641
19715W        W62653  28.667  11.854  19.242 -0.4113 -0.0099  0.0043
19716W        W62654  24.742  11.962  21.248  0.0850 -0.0812 -0.2332
19717W        W62655  24.858  12.222  15.560  0.3049  0.0836 -0.1418
19718W        W62656  27.684  12.614  18.146  0.1137 -0.1308  0.0093
19719W        W62657  26.895  13.965  16.302  0.0731 -0.2668  0.2449
19720W        W62658  28.401  13.589  17.003 -0.2651  0.0610 -0.4337
19721W        W62659  26.991  12.381  18.031  0.0625 -0.1166 -0.1549
19722W        W62660  27.428  13.294  19.664  0.0672 -0.4553  0.0651
19723W        W62661  25.665  10.884  21.262 -0.1757 -0.2941 -0.2511
19724W        W62662  27.931  10.907  18.605 -0.0006  0.1309 -0.0360
19725W        W62663  27.091  14.611  19.147 -0.0033 -0.2483 -0.0748
19726W        W62664  28.489  11.890  17.176  0.2121 -0.2408 -0.2010
19727W        W62665  27.962  12.199  18.299  0.0967 -0.1618 -0.0953
19728W        W62666  27.175  12.177  17.614 -0.3509 -0.1828  0.0324
19729W        W62667  24.670  10.182  21.152 -0.1399 -0.0570  0.2668
19730W        W62668  25.177  11.779  19.141 -0.0631  0.2975 -0.1261
19731W        W62669  28.369  12.908  18.562  0.1574 -0.2940 -0.4072
19732W        W62670  25.285  11.902  15.665 -0.0159 -0.0377 -0.3142
19733W        W62671  28.534  10.519  16.658 -0.1270  0.0483  0.1292
19734W        W62672  28.908  14.256  17.319 -0.2086  0.2592  0.0804
19735W        W62673  25.724  11.670  17.634  0.0625  0.1794 -0.2337
19736W        W62674  27.870  11.064  17.095 -0.2630  0.4890 -0.0232
19737W        W62675  26.231  12.379  19.555 -0.0234 -0.2739 -0.4228
19738W        W62676  28.623  14.580  16.954 -0.0610  0.1454  0.1809
19739W        W62677  27.719  12.220  20.030 -0.4537  0.2229  0.2277
19740W        W62678  28.097  12.270  15.936 -0.4265 -0.1237  0.2663
19741W        W62679  28.355  12.094  17.953  0.4114  0.0864 -0.0258
19742W        W62680  26.727  14.955  18.817 -0.0063  0.0022 -0.2933
19743W        W62681  28.436  13.688  20.032 -0.1358 -0.1846  0.1911
19744W        W62682  26.279  14.304  19.411 -0.1684 -0.0836  0.2653
19745W        W62683  28.530  14.203  17.685  0.1164 -0.1323 -0.1939
19746W        W62684  25.647  11.694  18.993  0.0172  0.1427 -0.0043
19747W        W62685  26.597  12.958  17.283  0.0991  0.1262 -0.1283
19748W        W62686  27.794  13.690  16.846 -0.3201  0.0043 -0.0331
19749W        W62687  28.688  11.460  16.424  0.3474 -0.3000 -0.2015
19750W        W62688  26.860  10.809  18.828 -0.1152 -0.2685 -0.0573
19751W        W62689  27.858  10.218  15.879 -0.0265  0.1445  0.0322
19752W        W62690  25.498  14.648  18.910  0.1489  0.0146  0.1744
19753W        W62691  28.500  12.120  18.863  0.1372  0.2288  0.0879
19754W        W62692  27.650  12.005  22.455 -0.1409  0.1577 -0.2442
19755W        W62693  25.530  12.825  20.908 -0.3333 -0.0709  0.2478
19756W        W62694  28.811  11.529  20.708 -0.1851 -0.3970  0.0805
19757W        W62695  30.034  11.772  20.183  0.0281  0.0151  0.0418
19758W        W62696  25.403  12.485  21.734  0.3355  0.3221 -0.2414
19759W        W62697  28.148  14.247  21.308 -0.2858  0.1490 -0.1846
19760W        W62698  25.404  10.324  22.407  0.0025 -0.2487 -0.0486
19761W        W62699  27.914  12.157  21.877 -0.0075  0.0352 -0.0133
19762W        W62700  28.674  13.829  21.746  0.2255  0.0265 -0.0253
19763W        W62701  28.435  12.647  18.978 -0.0949  0.1010 -0.2048
19764W        W62702  25.858  12.401  22.730  0.3056 -0.2119  0.3620
19765W        W62703  27.845  13.242  21.614  0.2525 -0.1204  0.1588
19766W        W62704  26.647  11.117  21.196 -0.1025 -0.0830 -0.0499
19767W        W62705  26.393   8.934  21.989 -0.0079  0.2332  0.2332
19768W        W62706  28.224  12.904  22.947  0.0837 -0.0148  0.2024
19769W        W62707  26.394  12.855  21.186  0.1458 -0.1306  0.1644
19770W        W62708  25.985  11.589  22.475 -0.1919  0.1257 -0.0389
19771W        W62709  26.374  11.542  21.256  0.1328 -0.1570 -0.3270
19772W        W62710  28.890  13.803  20.265  0.0220  0.1242  0.1640
19773W        W62711  27.189  11.760  23.737  0.2482 -0.1372  0.1346
19774W        W62712  26.747  11.685  25.180  0.3600  0.0368 -0.1147
19775W        W62713  26.792  11.757  21.995  0.0559  0.1552  0.1153
19776W        W62714  26.263  12.635  20.261 -0.0840 -0.0161 -0.0486
19777W        W62715  26.628  13.593  22.517  0.3672 -0.0243  0.0605
19778W        W62716  25.799  12.876  22.606 -0.2323 -0.1828 -0.3238
19779W        W62717  27.211  11.976  22.104  0.0262  0.1587  0.0173
19780W        W62718  28.117  12.355  20.386 -0.0108 -0.2584 -0.2551
19781W        W62719  28.560  13.811  21.201 -0.2615  0.0668 -0.0578
19782W        W62720  28.288  13.004  21.607 -0.1418  0.1184  0.0283
19783W        W62721  28.636  12.328  23.466  0.2241  0.2220 -0.0012
19784W        W62722  24.580  12.033  21.733  0.0871  0.3052 -0.0519
19785W        W62723  26.341  15.235  21.220 -0.0532 -0.2711  0.1269
19786W        W62724  28.305  13.235  22.186  0.1650 -0.0747 -0.0667
19787W        W62725  29.060  14.944  20.837 -0.1145 -0.0105  0.1098
19788W        W62726  27.861  13.596  22.024 -0.2435 -0.1461  0.1099
19789W        W62727  26.798  14.192  23.589 -0.0006  0.0202  0.1780
19790W        W62728  27.381  13.180  20.178  0.0072  0.2083 -0.0177
19791W        W62729  28.979  15.189  22.815 -0.1164 -0.3127 -0.0165
19792W        W62730  28.231  13.858  23.495 -0.0444 -0.0071  0.2218
19793W        W62731  28.704  13.387  21.925  0.0157 -0.0706 -0.0546
19794W        W62732  26.456  13.416  21.451 -0.3021 -0.0765  0.0738
19795W        W62733  27.326  13.275  20.743 -0.1441 -0.0831  0.0996
19796W        W62734  25.634  12.272  23.194 -0.0969 -0.2434  0.0950
19797W        W62735  27.124  13.003  23.169  0.0583 -0.2572 -0.1830
19798W        W62736  25.583  13.924  21.776 -0.2716 -0.3301  0.0864
19799W        W62737  29.685  11.154  24.015  0.0085 -0.0373  0.0569
19800W        W62738  27.035  14.073  21.155  0.1328 -0.2156 -0.0424
19801W        W62739  28.603  12.786  20.341 -0.0598  0.0175 -0.0290
19802W        W62740  26.116  12.697  18.532 -0.0230 -0.0861  0.0653
19803W        W62741  28.231  11.919  21.579 -0.2675  0.1024  0.2310
19804W        W62742  26.933  12.266  21.804  0.2598  0.1291 -0.0267
19805W        W62743  25.456  14.094  24.022  0.0249  0.2214 -0.1675
19806W        W62744  25.796  11.524  21.977  0.2012 -0.3699 -0.0351
19807W        W62745  28.412  12.485  21.760  0.1126  0.0835 -0.3333
19808W        W62746  28.591  12.270  20.193 -0.0769  0.0643 -0.1312
19809W        W62747  27.366  12.308  22.674 -0.1744  0.3160  0.0008
19810W        W62748  27.597  12.987  23.154  0.1375 -0.1789 -0.0224
19811W        W62749  26.409  12.284  22.039 -0.0599  0.1396  0.0279
19812W        W62750  27.881  14.445  19.253  0.1113 -0.0580 -0.2266
19813W        W62751  29.141  14.447  21.244  0.3330  0.0833 -0.1275
19814W        W62752  27.661  14.054  20.688  0.2262 -0.2608 -0.2332
19815W        W62753  25.658  12.215  20.832 -0.0550  0.1194 -0.2932
19816W        W62754  26.024  12.863  23.068  0.0144  0.4951  0.2129
19817W        W62755  26.072  12.379  23.840  0.3882  0.3227  0.3485
19818W        W62756  26.449  10.351  20.157 -0.2014  0.2369 -0.2275
19819W        W62757  30.716  13.791  23.501  0.1323  0.1915 -0.0062
19820W        W62758  25.233  14.387  23.647  0.3253 -0.1983  0.0407
19821W        W62759  30.446  10.758  22.044 -0.0469  0.3221 -0.2140
19822W        W62760  27.799  12.513  22.320 -0.1278 -0.3134  0.0603
19823W        W62761  28.377  12.008  20.664 -0.0872 -0.1592  0.1762
19824W        W62762  28.667  13.424  19.334 -0.0506  0.3896 -0.0286
19825W        W62763  28.780  10.637  21.601  0.0358  0.1591  0.1692
19826W        W62764  28.769  10.665  22.619  0.2384 -0.0748  0.0587
19827W        W62765  26.637  13.336  19.733  0.2774 -0.0049  0.1898
19828W        W62766  27.276  11.963  20.793  0.1030  0.1603 -0.0830
19829W        W62767  29.494  13.528  23.726  0.2913  0.4380  0.0025
19830W        W62768  30.054  12.527  20.037 -0.1407  0.1651  0.0703
19831W        W62769  25.316  13.620  23.316 -0.1140  0.5395 -0.0849
19832W        W62770  27.357  10.826  25.259  0.2482 -0.2738 -0.1567
19833W        W62771  28.037  12.815  22.003  0.3298 -0.2947  0.2556
19834W        W62772  26.102  14.395  20.254 -0.4953 -0.0849  0.3147
19835W        W62773  25.749  13.401  22.665  0.5670  0.0452  0.3295
19836W        W62774  27.862  13.614  19.592  0.0575 -0.3074 -0.1780
19837W        W62775  27.469  11.768  23.275  0.0809 -0.0514 -0.1061
19838W        W62776  26.547  14.329  21.305  0.1067 -0.0980 -0.2506
19839W        W62777  28.413  11.312  21.504 -0.0088 -0.0161  0.4096
19840W        W62778  22.914  12.187  24.736 -0.1974  0.0681 -0.1057
19841W        W62779  29.966  10.534  22.160  0.0671  0.3626  0.1538
19842W        W62780  27.025  13.612  20.481 -0.1759  0.1603 -0.0161
19843W        W62781  29.307  14.142  19.013  0.2683  0.0100  0.2042
19844W        W62782  27.920  12.595  21.527  0.2636 -0.2536 -0.1004
19845W        W62783  27.193  12.588  18.946 -0.1052  0.2749 -0.2730
19846W        W62784  24.602  12.528  23.211  0.2635 -0.3647 -0.4374
19847W        W62785  26.775  12.740  22.402 -0.2907  0.1343 -0.4197
19848W        W62786  26.371  12.650  22.725  0.0402  0.1536 -0.1550
19849W        W62787  26.506  10.756  22.143 -0.0485  0.2900 -0.2506
19850W        W62788  28.099  12.866  22.481  0.0733  0.1298 -0.0920
19851W        W62789  26.943   9.708  21.486  0.0486  0.1092  0.1054
19852W        W62790  27.463  12.323  21.041  0.0206  0.1680 -0.2430
19853W        W62791  27.476  11.383  20.742  0.2544  0.3021  0.0448
19854W        W62792  24.996  12.246  22.409  0.3560 -0.0295 -0.0345
19855W        W62793  28.045  11.361  24.870 -0.2722 -0.0708  0.1398
19856W        W62794  27.609  14.614  21.160  0.2071 -0.2483 -0.1327
19857W        W62795  28.562  14.220  22.614  0.2509  0.1056 -0.0758
19858W        W62796  29.392  14.081  21.381  0.0947  0.2300  0.2659
19859W        W62797  28.513  12.494  22.799 -0.3677  0.0433 -0.2709
19860W        W62798  25.787  10.922  20.320  0.0839  0.0282  0.0002
19861W        W62799  26.349  14.750  22.464  0.1424  0.0890  0.0082
19862W        W62800  26.051  13.237  21.297  0.0759  0.3006 -0.0670
19863W        W62801  26.710  11.940  20.858  0.0373  0.0425  0.2001
19864W        W62802  28.877  13.235  21.494  0.2787  0.0121 -0.1993
19865W        W62803  27.573  12.303  20.526  0.0501 -0.2480 -0.2366
19866W        W62804  25.486  12.800  23.171 -0.1867  0.2426  0.0895
19867W        W62805  28.422  11.922  22.881 -0.1429 -0.0178  0.0373
19868W        W62806  29.098  12.388  23.759  0.2774 -0.0229 -0.0980
19869W        W62807  26.923  13.458  21.710 -0.0145  0.0643  0.1897
19870W        W62808  26.300  10.726  21.051  0.1642  0.1046  0.2210
19871W        W62809  27.440  13.703  19.295  0.1926  0.0774  0.1929
19872W        W62810  27.186  14.135  20.658  0.0667 -0.1270 -0.1260
19873W        W62811  26.735  13.770  20.838  0.0877 -0.1997 -0.0630
19874W        W62812  27.663  12.915  20.700  0.0421 -0.1833  0.1330
19875W        W62813  28.779  11.654  21.617  0.0963 -0.1484 -0.3709
19876W        W62814  25.524  12.126  23.632  0.2098 -0.0855 -0.5351
19877W        W62815  27.785  12.547  24.865 -0.2181  0.0779 -0.0335
19878W        W62816  26.832  12.459  20.099  0.2068 -0.2653  0.0039
19879W        W62817  27.231  14.156  24.306 -0.2760  0.0415 -0.0549
19880W        W62818  28.199  10.463  20.277 -0.0750 -0.1063  0.1970
19881W        W62819  28.219  13.412  20.727  0.2487 -0.1737  0.2175
19882W        W62820  27.548  13.884  22.888  0.2732 -0.2868  0.3931
19883W        W62821  30.034  13.232  22.932 -0.0432 -0.3108  0.0122
19884W        W62822  27.528  11.294  20.029  0.3434  0.2289  0.1158
19885W        W62823  28.149  11.902  20.131  0.1143 -0.0618  0.0233
19886W        W62824  26.392  12.770  23.984 -0.0585 -0.3095  0.1619
19887W        W62825  28.133  11.592  20.817 -0.2393  0.2427  0.1824
19888W        W62826  27.437  12.260  21.693  0.3137  0.1239  0.1965
19889W        W62827  26.425  12.278  20.626  0.3236 -0.0861 -0.2309
19890W        W62828  30.053  13.807  20.386 -0.1261 -0.1728  0.1125
19891W        W62829  26.819  14.634  23.263  0.2012  0.2053 -0.0254
19892W        W62830  28.536  12.310  23.929 -0.3671 -0.1896  0.3381
19893W        W62831  28.635  12.801  21.312 -0.0955 -0.4310  0.1555
19894W        W62832  26.753  11.337  24.652  0.1484  0.1495  0.0119
19895W        W62833  27.663  12.554  19.077  0.0697 -0.0686 -0.2021
19896W        W62834  27.485  12.772  21.768  0.0026  0.0262 -0.2555
19897W        W62835  26.203  15.900  20.609 -0.0758 -0.1159 -0.1622
19898W        W62836  28.161  10.778  21.589  0.0335  0.2408 -0.0097
19899W        W62837  27.118   9.482  23.071  0.0664 -0.2808 -0.0212
19900W        W62838  27.068  10.812  24.723 -0.1849  0.4334  0.1547
19901W        W62839  28.318  13.166  24.372  0.0723  0.2393 -0.1960
19902W        W62840  29.370  13.272  20.120 -0.1994 -0.2371  0.0454
19903W        W62841  28.128  11.877  22.346  0.0006  0.0285  0.1614
19904W        W62842  25.943  13.070  20.341 -0.0824 -0.3701 -0.1273
19905W        W62843  27.649  11.481  23.651  0.2794  0.1877  0.1496
19906W        W62844  27.367  13.384  22.911  0.0936  0.1406 -0.3107
19907W        W62845  26.292  14.160  23.450  0.0254  0.1040 -0.3333
19908W        W62846  29.824  13.080  23.777  0.0758  0.2261  0.0184
19909W        W62847  26.847  13.027  21.375  0.1913  0.1847 -0.2082
19910W        W62848  27.449  11.321  22.676 -0.4461 -0.1557  0.1080
19911W        W62849  26.535  11.694  19.791 -0.0865  0.2901 -0.1378
19912W        W62850  27.017  13.494  21.191 -0.0743  0.1512  0.0504
19913W        W62851  27.202  12.844  19.430 -0.1315 -0.2418 -0.1082
19914W        W62852  27.901  10.603  22.050  0.2677 -0.2037  0.1942
19915W        W62853  26.963  13.153  22.633 -0.0436 -0.1376  0.0361
19916W        W62854  25.997  14.456  18.969 -0.1668 -0.1274 -0.0508
19917W        W62855  27.337  12.821  22.663  0.2401  0.0768 -0.4221
19918W        W62856  27.325  12.732  20.421 -0.0202 -0.1911 -0.0256
19919W        W62857  30.336  10.180  22.126  0.3035 -0.2490  0.3431
19920W        W62858  25.926  13.967  23.886 -0.1657 -0.1250 -0.1160
19921W        W62859  27.804  12.719  20.262 -0.2075  0.2866 -0.0176
19922W        W62860  25.223  11.508  20.673  0.1777  0.0168  0.3347
19923W        W62861  27.928   8.608  21.050  0.1290  0.1725 -0.0726
19924W        W62862  28.154  12.857  20.605  0.0452  0.1129 -0.1720
19925W        W62863  26.381  11.819  23.230  0.1637 -0.2353 -0.2348
19926W        W62864  26.475  11.273  23.041 -0.1468  0.1252 -0.1415
19927W        W62865  25.690  15.135  21.984  0.4554 -0.5189  0.1138
19928W        W62866  27.328  12.269  23.537  0.2536 -0.2542 -0.1942
19929W        W62867  28.369  10.445  19.544 -0.0550 -0.2759  0.1780
19930W        W62868  27.292  13.851  21.574  0.2048  0.4283 -0.0238
19931W        W62869  26.841  12.750  21.874 -0.1693  0.1718 -0.0694
19932W        W62870  27.226  12.228  20.002 -0.1221 -0.2005  0.2000
19933W        W62871  29.063  12.749  24.081 -0.1327 -0.4134  0.2105
19934W        W62872  27.136  11.740  21.639 -0.2277  0.0982 -0.3290
19935W        W62873  27.233  14.161  22.026  0.1195 -0.1951  0.0350
19936W        W62874  28.197  14.359  22.250  0.1468  0.3237  0.1812
19937W        W62875  26.837  14.044  21.708  0.3090 -0.0470  0.2055
19938W        W62876  27.453  13.394  21.914  0.4546 -0.1975 -0.4183
19939W        W62877  26.026  10.663  21.619  0.1597 -0.3743 -0.2440
19940W        W62878  29.031  13.112  22.629 -0.0665 -0.1963 -0.2407
19941W        W62879  27.167  10.986  22.379  0.3506  0.0961 -0.3001
19942W        W62880  28.094  10.900  21.113  0.1630  0.0628 -0.1752
19943W        W62881  26.846  12.181  22.442 -0.2000  0.1768  0.2912
19944W        W62882  29.217  12.201  21.613 -0.0851  0.0104  0.0282
19945W        W62883  27.632  11.101  22.253  0.5931 -0.1060  0.0631
19946W        W62884  26.984  12.098  24.099  0.0311  0.3474  0.2635
19947W        W62885  27.965  12.356  20.858 -0.0332 -0.0186  0.0291
19948W        W62886  29.350  14.886  20.138 -0.1448  0.1820 -0.1016
19949W        W62887  26.629  13.037  23.039 -0.1621 -0.1812  0.0476
19950W        W62888  27.703  13.335  18.854 -0.0927 -0.2362 -0.0372
19951W        W62889  26.220  12.809  22.281  0.0721 -0.2184  0.0600
19952W        W62890  26.794  12.481  21.078  0.0507 -0.2740  0.1373
19953W        W62891  27.000  11.548  22.409 -0.1291  0.0439 -0.2797
19954W        W62892  27.044  15.131  22.983  0.1092  0.2888 -0.0291
19955W        W62893  28.133  12.822  21.114 -0.0582  0.1730  0.1885
19956W        W62894  25.613  13.514  22.154  0.1507 -0.0436  0.1300
19957W        W62895  28.720  12.598  19.879 -0.2648  0.0379  0.2299
19958W        W62896  28.828  13.328  20.406 -0.0550 -0.0375  0.2143
19959W        W62897  26.357  11.027  21.700  0.0158 -0.1075 -0.0082
19960W        W62898  30.033  11.502  23.420 -0.1457  0.2282 -0.1289
19961W        W62899  30.129  12.790  19.405  0.1765 -0.1375 -0.1255
19962W        W62900  27.564  12.042  25.542  0.0011 -0.1425 -0.4048
19963W        W62901  25.431  11.842  21.823 -0.1896 -0.0165 -0.1456
19964W        W62902  28.899  12.632  22.376 -0.0917 -0.1807 -0.2188
19965W        W62903  26.520  10.679  23.422 -0.0918  0.1311  0.0493
19966W        W62904  29.213  16.733  24.072  0.1461  0.1007  0.2637
19967W        W62905  26.508  12.908  24.567 -0.1589 -0.3609 -0.0546
19968W        W62906  27.999  11.374  19.846 -0.0482  0.1640 -0.0682
19969W        W62907  26.251  11.845  22.136 -0.2088 -0.1500  0.5553
19970W        W62908  26.127  12.394  23.150 -0.3086  0.0727 -0.0283
19971W        W62909  28.552  11.924  21.973 -0.3282 -0.1696 -0.0449
19972W        W62910  27.500  13.832  19.880  0.1533 -0.1247 -0.0871
19973W        W62911  28.958  12.386  21.118 -0.0025  0.0875 -0.1035
19974W        W62912  26.386  13.043  21.758  0.2931 -0.2834 -0.2854
19975W        W62913  27.799  12.116  21.325 -0.1111  0.0965  0.0959
19976W        W62914  29.022  12.924  20.013 -0.1422  0.1557 -0.1817
19977W        W62915  26.773  12.008  20.305 -0.1325 -0.0760 -0.1545
19978W        W62916  26.771  11.853  22.832  0.1463  0.4432  0.1861
19979W        W62917  28.187  13.588  21.652  0.0846 -0.0105  0.2746
19980W        W62918  27.524  11.604  22.204  0.0883  0.1870 -0.0248
19981W        W62919  28.540  11.400  22.013  0.0947  0.2302 -0.1491
19982W        W62920  26.560  12.288  23.012 -0.0694 -0.0287  0.0476
19983W        W62921  26.766  12.029  23.493  0.2642  0.2459  0.1167
19984W        W62922  27.739  11.323  23.128 -0.0240  0.0574 -0.4538
19985W        W62923  29.700  13.762  23.225  0.0613 -0.0277  0.0182
19986W        W62924  29.884  12.538  21.187 -0.2910 -0.0135 -0.1376
19987W        W62925  29.558  12.624  23.766  0.0961 -0.0242 -0.2263
19988W        W62926  29.961  13.978  21.325 -0.0874  0.0300 -0.1476
19989W        W62927  28.604  13.023  20.810  0.0078  0.0859 -0.1089
19990W        W62928  25.341  11.358  22.021 -0.0889  0.1527  0.3566
19991W        W62929  28.584  13.282  22.957 -0.0402 -0.1226 -0.1387
19992W        W62930  27.475  11.778  20.364  0.3793 -0.2649  0.1121
19993W        W62931  27.327  12.807  23.563 -0.3810  0.1655  0.0093
19994W        W62932  27.346  13.109  21.453  0.2300 -0.0632 -0.0050
19995W        W62933  28.601  14.306  20.368  0.0790  0.1751  0.2727
19996W        W62934  26.562  11.942  21.523 -0.0887  0.1358  0.0812
19997W        W62935  26.332  10.257  22.108  0.1765  0.0118 -0.1176
19998W        W62936  26.392  14.080  22.679 -0.2017  0.0214  0.1846
19999W        W62937  26.466  11.175  18.968  0.1418 -0.0835  0.0882
20000W        W62938  27.820  13.041  19.891  0.0209  0.0189 -0.1252
20001W        W62939  26.832  13.519  23.005  0.2059 -0.1288 -0.0431
20002W        W62940  27.776  13.566  22.635 -0.0859  0.4312 -0.2503
20003W        W62941  26.734  12.170  19.669 -0.2699 -0.0736  0.1367
20004W        W62942  27.801  12.787  23.745 -0.1889  0.1505 -0.2516
20005W        W62943  26.671  12.750  20.582  0.0315 -0.1688 -0.0946
20006W        W62944  27.686  11.236  21.760 -0.0043  0.1722  0.1531
20007W        W62945  27.287  14.507  23.404  0.2056  0.2400 -0.1203
20008W        W62946  26.388  13.158  22.634  0.0146  0.0810  0.0752
20009W        W62947  27.784  13.891  21.572 -0.1294 -0.0258 -0.3645
20010W        W62948  27.619  11.772  21.679  0.0235  0.1971  0.0131
20011W        W62949  28.022  11.607  21.944  0.0991 -0.3144  0.0363
20012W        W62950  26.564  12.524  21.519  0.0840 -0.0997 -0.3624
20013W        W62951  29.532  11.748  23.321  0.0661  0.1412 -0.2316
20014W        W62952  28.491  13.781  22.778  0.0689 -0.0907 -0.1828
20015W        W62953  26.707  14.110  23.075 -0.0399 -0.1701  0.1557
20016W        W62954  27.857  14.642  23.571 -0.0862  0.5081  0.0274
20017W        W62955  29.110  13.081  22.115 -0.0662 -0.0367  0.0655
20018W        W62956  27.547  13.534  21.259  0.2428  0.1360  0.0050
20019W        W62957  26.141  12.569  24.379  0.2439  0.2387  0.1130
20020W        W62958  28.389  12.675  24.245  0.1649  0.1520 -0.2821
20021W        W62959  27.110  12.804  20.966 -0.0821  0.0791 -0.0057
20022W        W62960  25.481  11.799  22.384 -0.2628  0.1218 -0.3078
20023W        W62961  27.129  14.311  19.808  0.1704 -0.1882 -0.0064
20024W        W62962  27.731  14.290  22.596 -0.0458  0.1858 -0.2390
20025W        W62963  24.904  12.856  23.572  0.0478 -0.0775 -0.2048
20026W        W62964  26.141  14.662  19.745  0.0478  0.1928  0.0482
20027W        W62965  29.402  13.560  19.699  0.1960 -0.1063 -0.1886
20028W        W62966  26.966  13.583  19.427 -0.2109  0.1356 -0.0062
20029W        W62967  28.391  15.093  22.725  0.1065  0.1938  0.0199
20030W        W62968  28.288  12.265  19.770 -0.1274 -0.0282  0.1707
20031W        W62969  27.226  14.443  22.879 -0.1967  0.0040  0.0787
20032W        W62970  26.205  13.466  20.461  0.1071 -0.2593  0.2943
20033W        W62971  28.905  13.507  19.839  0.1807  0.0265 -0.0284
20034W        W62972  27.508  15.017  23.120  0.0635 -0.0785 -0.0966
20035W        W62973  27.846  12.580  22.874  0.1152 -0.1687 -0.0654
20036W        W62974  28.445  10.784  19.918  0.1571 -0.1099  0.0248
20037W        W62975  29.005  11.832  21.198 -0.0279 -0.5741 -0.2576
20038W        W62976  28.639  10.919  21.148  0.2123 -0.0999 -0.0085
20039W        W62977  27.286  13.942  24.791 -0.1468 -0.2156 -0.2654
20040W        W62978  25.938  11.936  22.847  0.1351 -0.0568  0.0259
20041W        W62979  26.477  12.072  19.228 -0.4395 -0.1273  0.1222
20042W        W62980  28.090  12.243  22.651  0.2366 -0.0580  0.2840
20043W        W62981  28.847  11.418  24.567  0.2973  0.1008  0.1118
20044W        W62982  26.001  14.611  24.388  0.0160  0.2386 -0.1255
20045W        W62983  29.852  13.284  20.349 -0.0584 -0.1303  0.0079
20046W        W62984  25.909  11.868  21.386  0.1039 -0.1253  0.0816
20047W        W62985  27.072  11.676  20.009  0.1709 -0.1933 -0.0155
20048W        W62986  28.000  11.394  22.383 -0.1388 -0.0030  0.0008
20049W        W62987  28.312  12.731  19.524 -0.0052 -0.2882  0.0028
20050W        W62988  29.079  11.204  21.607  0.1090 -0.1522  0.0584
20051W        W62989  27.300  13.760  20.896 -0.1094 -0.0699  0.1044
20052W        W62990  27.967  14.974  22.896  0.1008 -0.3211  0.0171
20053W        W62991  26.401  14.267  21.798 -0.0144 -0.1850  0.2092
20054W        W62992  25.939  12.236  20.415  0.2656 -0.0011 -0.1939
20055W        W62993  28.432  11.787  21.167 -0.0025 -0.0419  0.1382
20056W        W62994  25.671  13.271  23.204  0.1223  0.1284  0.3992
20057W        W62995  28.456  11.720  23.375  0.1155  0.1738  0.1913
20058W        W62996  25.094  10.441  21.359 -0.2272 -0.2227  0.0900
20059W        W62997  27.942  11.521  20.339 -0.3911  0.0656 -0.0804
20060W        W62998  26.102  13.729  23.437 -0.2857  0.0181  0.2151
20061W        W62999  25.116  12.586  22.754  0.0692  0.1289 -0.0005
20062W        W63000  29.043  12.516  20.564  0.0347  0.1222  0.0272
20063W        W63001  29.250  12.231  23.306  0.0936  0.3751 -0.0744
20064W        W63002  29.348  12.264  19.634  0.0156  0.2440 -0.1726
20065W        W63003  27.757  14.081  23.352 -0.5672  0.1147  0.2629
20066W        W63004  26.464  11.519  22.508  0.1130  0.1195 -0.0465
20067W        W63005  27.659  10.162  20.746 -0.1062 -0.0827 -0.0408
20068W        W63006  26.325  14.764  21.097  0.1113  0.1191  0.1215
20069W        W63007  27.657  13.038  22.210 -0.3869 -0.0715  0.1001
20070W        W63008  26.886  13.615  23.825  0.1492 -0.1196 -0.1926
20071W        W63009  25.534  10.467  21.585 -0.1036  0.1669  0.0661
20072W        W63010  28.524  13.290  18.874 -0.0127 -0.0551 -0.2574
20073W        W63011  29.137  11.460  22.213  0.3191 -0.1798 -0.0910
20074W        W63012  28.199  14.719  21.157 -0.1404 -0.2376  0.1340
20075W        W63013  26.722  13.149  20.875 -0.3932 -0.0159 -0.0698
20076W        W63014  28.984  14.004  20.874 -0.1007 -0.1496  0.1075
20077W        W63015  25.016  12.039  21.980  0.4937 -0.1131  0.0576
20078W        W63016  27.799  13.113  22.741  0.4446  0.1657  0.0686
20079W        W63017  29.446  12.866  22.373  0.2429 -0.1474 -0.0048
20080W        W63018  27.092  10.705  21.389 -0.0821 -0.1644 -0.3789
20081W        W63019  26.724  11.108  22.601  0.1092  0.0384 -0.1359
20082W        W63020  26.513  14.058  20.476 -0.0999  0.2734 -0.0156
20083W        W63021  29.482  11.142  21.218  0.2473 -0.1379 -0.0812
20084W        W63022  29.086  11.912  22.032  0.1593 -0.1609  0.2255
20085W        W63023  28.320  13.237  20.266  0.2336  0.0152  0.0838
20086W        W63024  29.476  11.744  21.714  0.2800 -0.1459 -0.3685
20087W        W63025  26.932  12.578  22.838 -0.2675 -0.1947  0.0169
20088W        W63026  27.690  15.762  23.022  0.1345 -0.1223 -0.0916
20089W        W63027  27.542  11.746  19.856  0.3143  0.0087 -0.0692
20090W        W63028  27.768  14.115  23.967  0.0482 -0.0313 -0.0928
20091W        W63029  27.155  12.951  22.194 -0.1160 -0.0623 -0.0133
20092W        W63030  26.118  13.318  19.835  0.0549 -0.3899 -0.2469
20093W        W63031  29.884  14.485  21.380  0.2445  0.0783  0.0704
20094W        W63032  26.350  12.189  21.203 -0.1650  0.2846  0.2179
20095W        W63033  28.550  12.953  22.579  0.2167 -0.2626  0.5133
20096W        W63034  27.280  11.857  22.812 -0.0992 -0.0331  0.3087
20097W        W63035  29.561  11.308  20.718 -0.2360 -0.1387  0.0045
20098W        W63036  27.907  11.154  20.691  0.3149  0.1909 -0.0586
20099W        W63037  26.647  13.222  22.140  0.0532 -0.1905  0.2598
20100W        W63038  26.052  12.620  20.741  0.1320  0.1935 -0.1161
20101W        W63039  26.405  13.386  19.276  0.3455  0.0687 -0.2583
20102W        W63040  26.361  11.785  20.464 -0.5653 -0.0702  0.1192
20103W        W63041  27.607  10.065  25.027  0.0548 -0.0118  0.2118
20104W        W63042  26.005  11.447  23.085  0.1890 -0.1578  0.0632
20105W        W63043  25.810  12.532  22.102 -0.2303 -0.1483  0.0770
20106W        W63044  27.153  12.604  21.437 -0.2590 -0.1649 -0.1540
20107W        W63045  30.139  12.987  20.093  0.0414 -0.0641  0.0863
20108W        W63046  24.635  11.375  23.445  0.1023  0.0939 -0.0020
20109W        W63047  25.564  11.351  21.466 -0.0726 -0.0993  0.1483
20110W        W63048  29.481  12.739  19.810 -0.1754  0.0358 -0.1248
20111W        W63049  29.622  14.692  20.577 -0.0806 -0.1676 -0.3820
20112W        W63050  27.134  10.963  20.995 -0.1442 -0.3516  0.1374
20113W        W63051  29.194  14.834  24.062  0.0042 -0.0400  0.1582
20114W        W63052  25.336  12.799  19.211 -0.0172  0.2239 -0.1002
20115W        W63053  26.906  12.537  23.326  0.2923  0.1839  0.1442
20116W        W63054  28.727  12.147  22.475  0.2086  0.1457  0.0571
20117W        W63055  26.233  10.710  20.457 -0.0710  0.1315 -0.1169
20118W        W63056  28.215  13.366  22.650 -0.0808 -0.4500  0.0314
20119W        W63057  25.981  13.462  21.790  0.0785 -0.0619 -0.0937
20120W        W63058  27.819  12.628  19.602 -0.3209  0.0573 -0.2650
20121W        W63059  25.852  13.875  22.504 -0.0358  0.0499 -0.2444
20122W        W63060  27.714  14.582  22.988 -0.1457  0.0670 -0.2947
20123W        W63061  24.664  11.768  24.779 -0.0152 -0.0432 -0.1477
20124W        W63062  28.671  11.797  20.232  0.0446  0.2514 -0.0642
20125W        W63063  28.185  14.552  22.715 -0.2437 -0.1150 -0.1254
20126W        W63064  30.335  13.453  20.220  0.0191  0.4663  0.0290
20127W        W63065  29.118  12.689  22.899 -0.1346 -0.3151  0.4099
20128W        W63066  27.759  13.565  20.756  0.2461  0.2607  0.3037
20129W        W63067  25.319  11.680  24.039  0.1658 -0.0438 -0.1295
20130W        W63068  27.166  13.523  23.387 -0.1413  0.0788 -0.3070
20131W        W63069  29.966  11.135  21.488 -0.0882 -0.5499 -0.2690
20132W        W63070  26.164  11.205  22.186  0.0104  0.4922 -0.0152
20133W        W63071  29.674  10.672  21.485  0.2635  0.1597 -0.1207
20134W        W63072  27.337  13.391  22.429 -0.1686  0.2142  0.2166
20135W        W63073  25.621  12.652  23.661  0.0039  0.4839 -0.0754
20136W        W63074  27.366  10.534  20.924  0.0032  0.0815 -0.2733
20137W        W63075  28.598  12.994  24.751 -0.2069 -0.1114  0.1870
20138W        W63076  27.044  12.071  21.308  0.2510 -0.3725 -0.3104
20139W        W63077  28.137  13.431  23.153  0.1353  0.2163  0.1853
20140W        W63078  27.431  11.718  21.190 -0.0534 -0.0965  0.1814
20141W        W63079  28.452  11.167  20.804 -0.1351  0.1829 -0.4705
20142W        W63080  27.905  15.670  21.373 -0.4475  0.1781 -0.1694
20143W        W63081  29.093  13.863  23.876  0.2045 -0.1330 -0.0012
20144W        W63082  27.167  15.744  23.671 -0.1164 -0.1927  0.2728
20145W        W63083  28.462  12.504  22.217  0.2192 -0.3423 -0.1916
20146W        W63084  26.502  11.172  23.600  0.2465 -0.1223 -0.0662
20147W        W63085  25.179  11.975  20.941  0.1599 -0.1814  0.2119
20148W        W63086  26.999  12.360  20.621 -0.1489  0.0568 -0.5465
20149W        W63087  27.297  12.498  22.160 -0.1134  0.0558  0.0452
20150W        W63088  26.552  12.291  24.090 -0.2775  0.0031  0.1795
20151W        W63089  26.573   9.398  22.273 -0.1227  0.0046 -0.0596
20152W        W63090  28.313  14.899  23.252  0.0624 -0.1287 -0.1058
20153W        W63091  28.640  12.887  21.912  0.3690 -0.0744  0.1022
20154W        W63092  27.769  15.366  26.434 -0.2895 -0.1146 -0.1307
20155W        W63093  27.394  12.557  23.084 -0.0053  0.2443  0.1909
20156W        W63094  28.256  13.016  23.882 -0.2687  0.0412  0.0005
20157W        W63095  29.246  12.328  24.331 -0.1405 -0.2432  0.2521
20158W        W63096  27.313  11.643  26.351  0.3059  0.1222  0.0288
20159W        W63097  28.698  13.399  26.118 -0.2319  0.2515  0.4139
20160W        W63098  26.556  11.138  26.334  0.2066  0.0510 -0.2905
20161W        W63099  28.952  13.843  26.554 -0.1682 -0.1085 -0.2656
20162W        W63100  27.424  15.416  26.895  0.1066 -0.2497  0.2655
20163W        W63101  28.693  13.238  24.029 -0.0170 -0.1447  0.0330
20164W        W63102  26.277  11.844  27.560  0.1856  0.2097 -0.2162
20165W        W63103  27.508  13.883  27.667  0.0686 -0.1108  0.0764
20166W        W63104  26.594  12.433  25.832  0.0008 -0.1744  0.0887
20167W        W63105  25.908  11.350  25.996  0.0795  0.0570 -0.3644
20168W        W63106  28.401  13.535  25.626  0.1619  0.3214 -0.0098
20169W        W63107  26.480  11.707  24.421  0.0583 -0.0681 -0.3544
20170W        W63108  26.699  11.869  25.658 -0.1757 -0.2649  0.3267
20171W        W63109  27.318  12.137  26.458  0.2614  0.3239  0.1037
20172W        W63110  28.188  13.303  26.109  0.1473  0.1027 -0.0717
20173W        W63111  28.297  10.968  27.089  0.0893 -0.0645  0.3541
20174W        W63112  26.962  11.028  26.721 -0.3002 -0.1180  0.1932
20175W        W63113  28.778  12.451  25.028  0.1877 -0.2198 -0.0565
20176W        W63114  25.428  12.140  22.760 -0.3341 -0.1818 -0.2961
20177W        W63115  26.265  12.269  26.179 -0.1725  0.0325 -0.3741
20178W        W63116  27.340  13.853  25.706 -0.0256  0.1777  0.3263
20179W        W63117  29.440  12.490  27.488 -0.2950  0.1582  0.1141
20180W        W63118  28.973  13.703  27.463  0.1467 -0.3072  0.0533
20181W        W63119  27.519  14.685  25.392  0.0673 -0.2094 -0.1646
20182W        W63120  27.922  15.882  26.360 -0.1512 -0.1308  0.1934
20183W        W63121  28.808  13.256  27.465 -0.0199  0.0248  0.1367
20184W        W63122  26.074  12.139  25.223  0.1398 -0.1208 -0.1079
20185W        W63123  26.772  13.882  26.049  0.0073  0.0177 -0.1220
20186W        W63124  28.269  13.911  25.184 -0.2208  0.1650 -0.0998
20187W        W63125  29.369  12.659  25.231  0.0498  0.2244 -0.0705
20188W        W63126  28.711  14.760  27.909  0.0047 -0.1900 -0.0258
20189W        W63127  28.786  15.517  27.632 -0.2663  0.3122  0.0749
20190W        W63128  26.728  12.742  25.004  0.1337 -0.0337 -0.0892
20191W        W63129  27.972  15.569  28.382  0.2268  0.6434  0.1587
20192W        W63130  26.763  14.234  27.735  0.0013  0.1007  0.4228
20193W        W63131  27.613  12.145  28.121  0.3097 -0.3234 -0.0877
20194W        W63132  27.402  12.505  25.331 -0.3961 -0.0393 -0.0648
20195W        W63133  29.300  14.016  24.742 -0.0396 -0.0999  0.4771
20196W        W63134  28.207  13.144  28.235 -0.1722  0.0560  0.1366
20197W        W63135  25.812  13.996  29.146  0.2100 -0.0652  0.1046
20198W        W63136  26.405  13.728  24.721  0.0620  0.0844  0.3331
20199W        W63137  29.477  11.679  28.336 -0.0168  0.0544  0.0195
20200W        W63138  26.790  14.389  24.051 -0.1086 -0.1180  0.0623
20201W        W63139  27.807  11.708  25.255 -0.0829  0.3390  0.0766
20202W        W63140  27.289  11.945  24.500  0.0930  0.2078 -0.0008
20203W        W63141  29.266  12.339  24.823  0.1630  0.2015  0.0928
20204W        W63142  27.262  10.355  25.433  0.0636 -0.0093 -0.1047
20205W        W63143  28.385  14.384  24.991 -0.1589 -0.1185  0.2582
20206W        W63144  26.937  12.254  26.792  0.4316 -0.4709  0.0008
20207W        W63145  28.944  13.788  28.071  0.5136 -0.1305 -0.0265
20208W        W63146  27.795  12.386  23.402  0.0196 -0.1050  0.0139
20209W        W63147  27.709  13.093  27.247 -0.0891 -0.2804  0.2114
20210W        W63148  25.671  14.387  28.328 -0.1975 -0.0207 -0.2336
20211W        W63149  25.849  12.868  24.060  0.0145  0.0842 -0.1193
20212W        W63150  28.544  13.529  24.633 -0.4518 -0.2443  0.2595
20213W        W63151  28.996  12.160  25.334 -0.2375 -0.0273 -0.1627
20214W        W63152  28.067  13.940  22.432  0.2346 -0.0965 -0.3398
20215W        W63153  25.836  12.400  24.769  0.2426 -0.5582 -0.1731
20216W        W63154  25.432  14.308  25.731  0.1590  0.2170 -0.1215
20217W        W63155  26.194  11.939  27.018  0.1371 -0.0746 -0.0637
20218W        W63156  27.581  11.033  24.284  0.3279  0.1524  0.0114
20219W        W63157  30.031  14.405  28.148 -0.0756 -0.0997 -0.0452
20220W        W63158  25.115  14.223  26.197  0.0257  0.0123 -0.1619
20221W        W63159  27.674  10.888  24.768  0.1397  0.1410  0.0044
20222W        W63160  27.696  12.869  26.287  0.0722 -0.0639  0.0541
20223W        W63161  29.354  13.033  28.482  0.1833  0.1693 -0.2709
20224W        W63162  28.931  12.035  24.081 -0.4394  0.3024 -0.0698
20225W        W63163  28.269  11.260  25.464  0.1575 -0.0322  0.4523
20226W        W63164  27.427  10.807  26.488 -0.3354 -0.0206 -0.0824
20227W        W63165  28.513  13.238  23.508  0.0572 -0.5307  0.1980
20228W        W63166  27.328  14.518  24.829  0.4442  0.0111 -0.0901
20229W        W63167  28.112  15.029  26.257  0.2781 -0.1963  0.2088
20230W        W63168  28.654  11.998  25.712 -0.2655 -0.0373  0.0758
20231W        W63169  27.311  15.035  26.572  0.0906 -0.2656 -0.0895
20232W        W63170  26.668  11.370  27.922 -0.3465 -0.1279 -0.1231
20233W        W63171  26.945  15.087  28.360 -0.2521 -0.1434 -0.0637
20234W        W63172  27.339  15.471  24.992  0.0230 -0.3163 -0.2879
20235W        W63173  26.884  14.051  25.583  0.1271 -0.0712 -0.0368
20236W        W63174  26.336  12.367  24.792 -0.1141  0.0978  0.1260
20237W        W63175  26.082  10.997  27.173  0.0193 -0.1213 -0.1881
20238W        W63176  26.719  14.332  27.264  0.1516  0.2201 -0.0580
20239W        W63177  29.610   9.103  24.661 -0.0505  0.2188  0.0817
20240W        W63178  27.412  10.928  27.430 -0.1150 -0.6960  0.1632
20241W        W63179  28.006  11.855  24.153  0.1210 -0.0489  0.1594
20242W        W63180  27.660  14.400  24.427 -0.0767  0.0106 -0.0416
20243W        W63181  29.225  14.336  24.243  0.2308  0.0116  0.1253
20244W        W63182  29.149  11.800  24.504 -0.1163  0.1950 -0.2430
20245W        W63183  27.696  13.601  23.266  0.0344  0.0661 -0.3003
20246W        W63184  26.534  13.452  26.658 -0.0309 -0.4332  0.1809
20247W        W63185  25.809  12.624  25.429  0.0351 -0.2382 -0.1972
20248W        W63186  25.289  11.850  27.185 -0.1978  0.2539 -0.0427
20249W        W63187  27.043  10.992  26.205  0.0520 -0.2961 -0.0712
20250W        W63188  29.410  12.125  28.619 -0.2856 -0.1025  0.3226
20251W        W63189  26.704  11.261  25.513 -0.1872 -0.0194 -0.2121
20252W        W63190  28.092  12.611  25.377  0.3991 -0.3115 -0.1354
20253W        W63191  27.786  12.217  24.423  0.1797  0.2240 -0.2801
20254W        W63192  25.917  14.007  25.852 -0.1517 -0.4089 -0.0244
20255W        W63193  28.019  11.384  28.189  0.4137 -0.1006  0.4235
20256W        W63194  29.519  16.737  24.611  0.1181 -0.1773  0.0236
20257W        W63195  29.145  14.355  26.720 -0.0291 -0.3615  0.1858
20258W        W63196  28.816  13.863  24.344  0.0165 -0.1309  0.0271
20259W        W63197  26.575  12.592  26.854  0.0865 -0.3067 -0.2000
20260W        W63198  26.902  11.509  23.342 -0.1479  0.0184 -0.3312
20261W        W63199  26.114  14.501  26.029 -0.1229  0.0745  0.1547
20262W        W63200  28.449  14.568  25.460  0.2323 -0.2339 -0.1060
20263W        W63201  26.906  12.938  26.578 -0.0033  0.0933  0.1554
20264W        W63202  28.211  15.020  25.746 -0.1245  0.1855 -0.3738
20265W        W63203  27.903  12.812  24.423  0.5052  0.1452 -0.2507
20266W        W63204  27.985  14.014  27.234  0.0324 -0.0373  0.1620
20267W        W63205  28.322  11.439  27.360 -0.1827  0.5055 -0.0394
20268W        W63206  29.839  12.332  28.087 -0.2984  0.0050 -0.1704
20269W        W63207  27.345  12.440  25.856 -0.1044  0.0961 -0.1660
20270W        W63208  26.220  10.905  24.155 -0.0222 -0.0715 -0.0667
20271W        W63209  28.298  14.603  26.577  0.0192 -0.3242 -0.1537
20272W        W63210  27.122  13.582  24.258 -0.1172 -0.0182  0.0345
20273W        W63211  26.095  11.440  23.610 -0.1315 -0.3295 -0.1914
20274W        W63212  28.269  13.969  24.564 -0.4238  0.0386 -0.1394
20275W        W63213  28.300  12.855  26.394 -0.1159 -0.0900  0.0143
20276W        W63214  24.847  13.106  26.488  0.1063 -0.1912  0.0634
20277W        W63215  29.178  12.529  28.802 -0.0028 -0.2373 -0.3776
20278W        W63216  25.545  11.967  24.455  0.0969  0.1782  0.0335
20279W        W63217  27.357  14.827  27.063  0.0790  0.0512  0.0019
20280W        W63218  26.499  12.764  26.248 -0.2774 -0.0369  0.0548
20281W        W63219  29.394  11.451  24.744  0.0911  0.0687 -0.0165
20282W        W63220  26.613  13.878  28.577  0.0528 -0.1084  0.2142
20283W        W63221  28.521  12.476  25.639  0.1033 -0.1463  0.1848
20284W        W63222  28.214  12.055  23.685  0.2694  0.0898  0.0120
20285W        W63223  27.284  11.563  25.576 -0.2512  0.2037 -0.1602
20286W        W63224  24.755  13.699  27.219  0.0873 -0.0931 -0.4119
20287W        W63225  28.955  12.984  25.102 -0.2900 -0.3673 -0.1180
20288W        W63226  28.046  12.776  26.905 -0.1476  0.2597  0.2120
20289W        W63227  26.092  12.028  24.438 -0.0114  0.4581  0.1386
20290W        W63228  28.385  14.639  26.035 -0.0886 -0.1432 -0.1925
20291W        W63229  26.320  13.617  26.212  0.1143  0.0072 -0.0373
20292W        W63230  28.742  14.536  27.456  0.0908 -0.0013 -0.0355
20293W        W63231  28.035  15.171  26.785 -0.2349 -0.0734 -0.2888
20294W        W63232  27.618  10.867  25.949 -0.3456  0.1862 -0.2455
20295W        W63233  27.651  12.077  23.848 -0.1549  0.1423 -0.2235
20296W        W63234  26.806  12.067  24.658  0.1253 -0.1549  0.1677
20297W        W63235  26.525  13.926  23.916 -0.1154  0.2590  0.2118
20298W        W63236  29.823  12.371  26.112  0.0566  0.1415 -0.0538
20299W        W63237  27.679  12.251  26.823  0.2479 -0.1544 -0.2087
20300W        W63238  27.431  12.794  27.983 -0.2407 -0.3073  0.4763
20301W        W63239  29.207  13.495  28.510 -0.0786 -0.2037  0.0280
20302W        W63240  28.542  12.032  25.134  0.2993 -0.0987 -0.2640
20303W        W63241  27.858  13.583  27.365  0.0347  0.1805  0.1962
20304W        W63242  26.847  12.531  24.444  0.0972 -0.1171 -0.2090
20305W        W63243  25.475  12.799  26.682 -0.2202  0.2140  0.0369
20306W        W63244  27.701  12.611  27.532  0.1358  0.0542 -0.2279
20307W        W63245  26.416  15.364  25.953 -0.0255  0.1638  0.0646
20308W        W63246  29.189  15.042  28.025 -0.1043  0.1607  0.0393
20309W        W63247  27.659  15.864  26.758 -0.3585 -0.0368  0.0427
20310W        W63248  27.171  11.309  28.204 -0.3821  0.0413 -0.1540
20311W        W63249  28.603  11.068  25.100 -0.1058  0.0842 -0.0313
20312W        W63250  27.416  13.342  25.427 -0.0657 -0.2512  0.1987
20313W        W63251  27.403  14.475  23.937 -0.0002  0.6751 -0.0836
20314W        W63252  27.776  11.870  26.495 -0.3014 -0.0061  0.3641
20315W        W63253  29.229  13.970  27.049  0.1502  0.2465 -0.1781
20316W        W63254  26.331  11.946  23.780  0.1037  0.1950  0.0710
20317W        W63255  28.322  14.321  27.863 -0.4063  0.0182  0.1904
20318W        W63256  26.780  12.995  24.169 -0.1569  0.1682  0.3997
20319W        W63257  27.820  12.162  27.641  0.0071  0.1153  0.3037
20320W        W63258  26.509  13.262  24.918 -0.2879 -0.1598  0.1211
20321W        W63259  27.721  12.073  23.000  0.2615 -0.0046  0.0289
20322W        W63260  23.856  11.738  23.891 -0.2725 -0.2645 -0.1018
20323W        W63261  28.309  11.611  25.847 -0.1154 -0.2646  0.3363
20324W        W63262  30.587  13.185  24.576 -0.0789 -0.0885  0.1918
20325W        W63263  27.179  12.635  26.260  0.1457  0.0959 -0.3649
20326W        W63264  26.430  12.092  26.634 -0.0316 -0.1365  0.1228
20327W        W63265  26.576  14.016  26.860 -0.0456 -0.0580 -0.0921
20328W        W63266  28.386  13.406  27.711  0.3073  0.1321  0.0219
20329W        W63267  29.039  11.068  24.886  0.2995 -0.2491 -0.2108
20330W        W63268  27.752  14.755  26.706 -0.0689  0.4323  0.2151
20331W        W63269  26.204  14.326  28.214  0.2345 -0.0167 -0.0972
20332W        W63270  25.970  10.532  22.978 -0.1653 -0.0183 -0.1439
20333W        W63271  29.933  11.715  27.452  0.0114 -0.4530  0.1560
20334W        W63272  26.312  11.746  24.876 -0.1480  0.0702  0.0227
20335W        W63273  26.350  12.569  25.372  0.2452 -0.2393 -0.2534
20336W        W63274  26.890  13.861  26.515 -0.3324  0.0053 -0.0012
20337W        W63275  27.415  13.162  24.414  0.1435 -0.1922  0.0908
20338W        W63276  27.185  13.245  23.852 -0.2267 -0.5125 -0.0405
20339W        W63277  26.801  13.476  28.243 -0.2628  0.3598  0.0647
20340W        W63278  29.225  13.480  27.787 -0.4637 -0.1091  0.0713
20341W        W63279  27.017  12.916  25.906  0.1194 -0.0807 -0.0264
20342W        W63280  26.267  11.203  24.661  0.0483  0.1071  0.0718
20343W        W63281  26.478  11.751  26.232  0.0938 -0.2686  0.0547
20344W        W63282  27.453  12.024  27.370 -0.2682 -0.1085  0.1192
20345W        W63283  27.707  12.392  26.305 -0.1372 -0.0177 -0.0279
20346W        W63284  26.900  14.639  26.919  0.1468  0.2486 -0.1512
20347W        W63285  28.164  12.246  26.612 -0.0278  0.2481 -0.1549
20348W        W63286  29.152  13.545  24.625  0.0102  0.0814  0.0421
20349W        W63287  29.514  13.219  28.074 -0.3039  0.1607 -0.3246
20350W        W63288  27.605  13.834  25.199 -0.2028  0.0645  0.0159
20351W        W63289  25.863  13.859  26.343  0.2598 -0.1377 -0.3957
20352W        W63290  27.085  12.073  25.426 -0.3589 -0.0763  0.4041
20353W        W63291  27.949  13.146  26.618 -0.2092 -0.3085 -0.2952
20354W        W63292  26.847  14.544  24.534  0.5616 -0.2943 -0.1367
20355W        W63293  27.267  12.704  24.141 -0.2001  0.2910 -0.4783
20356W        W63294  27.300  13.201  26.239 -0.0346 -0.2661  0.0036
20357W        W63295  27.657  10.600  24.407 -0.1448  0.2465 -0.2348
20358W        W63296  27.175  14.024  23.243 -0.3235  0.3580 -0.2204
20359W        W63297  25.675  12.350  26.357 -0.0706  0.4359  0.6338
20360W        W63298  29.700  12.250  27.084  0.1280  0.1585 -0.1612
20361W        W63299  27.689  12.856  25.205  0.0207  0.0561  0.0430
20362W        W63300  27.745  11.662  27.261  0.3496 -0.0022 -0.1063
20363W        W63301  25.793  11.732  27.341 -0.1781  0.0043 -0.4341
20364W        W63302  28.133  12.054  25.730  0.2422  0.2000 -0.0574
20365W        W63303  26.512  12.258  27.246  0.0440 -0.0629  0.3504
20366W        W63304  27.817  14.184  27.981 -0.0804 -0.0462 -0.0260
20367W        W63305  25.558  13.177  27.064  0.2641 -0.3131 -0.3620
20368W        W63306  27.984  12.140  25.149  0.0663  0.0455 -0.0050
20369W        W63307  26.496  12.444  23.595  0.0179  0.0827 -0.3836
20370W        W63308  27.281  14.228  25.279 -0.2486 -0.1239 -0.0187
20371W        W63309  28.563  15.033  25.334  0.3860 -0.0396  0.0769
20372W        W63310  29.159  13.424  24.126 -0.0102  0.2871  0.0048
20373W        W63311  27.925  13.708  26.764 -0.1010 -0.1897 -0.1734
20374W        W63312  27.466  14.003  27.135  0.1065  0.0205 -0.2727
20375W        W63313  27.434  12.702  26.678 -0.0836 -0.0646  0.0143
20376W        W63314  28.753  12.733  23.215  0.0036 -0.1470  0.2376
20377W        W63315  26.061  13.025  25.537  0.3221 -0.0117 -0.4281
20378W        W63316  25.488  12.114  27.546  0.0225 -0.1410 -0.1620
20379W        W63317  29.836  13.229  27.090 -0.1265 -0.2216 -0.0519
20380W        W63318  28.648  11.581  25.475 -0.2687  0.1918  0.2701
20381W        W63319  28.238  12.312  27.765 -0.0814 -0.0675  0.0404
20382W        W63320  28.617  12.292  28.039  0.2744  0.2719  0.2230
20383W        W63321  26.762  13.575  27.760 -0.0026 -0.1424  0.3547
20384W        W63322  25.537  12.583  27.771 -0.1058 -0.0158  0.1635
20385W        W63323  28.806  16.435  27.122 -0.0909 -0.0974 -0.0780
20386W        W63324  29.185  13.945  26.102 -0.0361 -0.3115  0.0554
20387W        W63325  29.689  13.189  27.612 -0.2843 -0.0636 -0.0071
20388W        W63326  29.054  11.778  24.974  0.0371  0.0954 -0.3541
20389W        W63327  27.810  12.417  25.775 -0.2094 -0.1321  0.1016
20390W        W63328  26.738  13.288  26.134  0.2213 -0.0146 -0.0124
20391W        W63329  28.470  13.654  28.216  0.1524 -0.0282 -0.0836
20392W        W63330  28.170  10.757  23.505 -0.3823  0.0422  0.1405
20393W        W63331  27.343  12.355  27.753 -0.0011 -0.0651  0.0959
20394W        W63332  28.245  14.936  23.814 -0.0884 -0.1171 -0.1085
20395W        W63333  27.610  13.660  24.367  0.0106  0.0077 -0.0676
20396W        W63334  27.678  13.464  26.374  0.0037  0.1337 -0.1761
20397W        W63335  26.481  12.687  27.725  0.4895 -0.2475 -0.0765
20398W        W63336  27.029  13.899  28.023  0.1824 -0.1915  0.1821
20399W        W63337  27.057  12.326  25.009  0.0576 -0.2720  0.0740
20400W        W63338  27.602  13.232  23.612  0.0858 -0.1225 -0.0451
20401W        W63339  28.852  14.676  26.928 -0.2658  0.0509  0.1233
20402W        W63340  30.059  13.366  28.733 -0.0774 -0.0213 -0.0023
20403W        W63341  26.880  10.567  25.162  0.4597  0.0238 -0.0955
20404W        W63342  28.787  12.853  28.294 -0.0932 -0.0802 -0.1973
20405W        W63343  25.716  13.041  25.102  0.1092 -0.0014 -0.2054
20406W        W63344  28.856  11.931  26.177  0.2084  0.1765  0.1182
20407W        W63345  26.529  15.006  26.802  0.1955  0.0078  0.1870
20408W        W63346  26.432  13.511  25.670 -0.2184 -0.0499 -0.1969
20409W        W63347  27.190  14.208  26.138 -0.3170 -0.3189  0.0554
20410W        W63348  30.174  10.094  26.094 -0.2847  0.0307 -0.1966
20411W        W63349  27.504  12.109  25.079 -0.0040  0.2355 -0.1543
20412W        W63350  28.681  12.720  27.749  0.1690  0.1476 -0.2118
20413W        W63351  30.597  11.821  26.384 -0.1601  0.1775  0.2062
20414W        W63352  27.743  13.935  26.209  0.0945  0.2415  0.3165
20415W        W63353  27.192  13.404  27.331 -0.0595 -0.0002  0.0117
20416W        W63354  27.353  14.325  27.866 -0.0282  0.2529 -0.0834
20417W        W63355  28.917  12.373  26.447  0.3086  0.1828  0.2748
20418W        W63356  26.833  14.021  24.947  0.1208  0.2459  0.0255
20419W        W63357  25.047  12.446  28.105 -0.3973 -0.1124  0.3220
20420W        W63358  27.994  13.136  27.801  0.4085  0.1055 -0.0946
20421W        W63359  27.156  13.050  28.344 -0.0905  0.1047 -0.1551
20422W        W63360  25.504  11.833  26.743  0.0763  0.3075  0.0140
20423W        W63361  28.435  13.369  25.162  0.0944  0.0225  0.1386
20424W        W63362  25.347  14.692  28.698  0.0216  0.2862 -0.1697
20425W        W63363  25.643  14.075  25.289  0.1751  0.0256  0.0352
20426W        W63364  26.737  14.540  25.080 -0.0541 -0.1101 -0.4126
20427W        W63365  27.908  13.271  24.633 -0.1312 -0.0624  0.0544
20428W        W63366  28.539  12.813  27.098  0.1205  0.0008 -0.1765
20429W        W63367  27.999  17.073  25.722 -0.0426  0.2755  0.0519
20430W        W63368  28.196  12.220  23.174 -0.1278 -0.0695  0.1008
20431W        W63369  27.217  12.806  25.021  0.1533 -0.0974  0.2968
20432W        W63370  25.220  12.695  24.046  0.0194 -0.1158 -0.3623
20433W        W63371  29.017  13.571  25.144 -0.1624 -0.1180  0.0257
20434W        W63372  26.770  13.972  24.384  0.2674  0.1489 -0.3768
20435W        W63373  28.767  14.212  27.001  0.3076  0.0177  0.2242
20436W        W63374  28.497  11.759  24.194  0.0794  0.1811  0.2343
20437W        W63375  30.391  12.474  25.962 -0.2022  0.2583  0.1534
20438W        W63376  28.330  12.187  24.386  0.0101  0.1794 -0.0529
20439W        W63377  28.577  14.270  28.280  0.1843  0.2866 -0.5716
20440W        W63378  26.851  12.250  26.301 -0.2766  0.0712 -0.0801
20441W        W63379  26.931  11.139  25.110  0.0205  0.1778  0.0751
20442W        W63380  27.815  13.602  27.910 -0.1710  0.3501 -0.3073
20443W        W63381  29.424  12.093  27.897  0.2023 -0.3277 -0.0526
20444W        W63382  26.682  14.309  28.269  0.3069 -0.1650 -0.1322
20445W        W63383  30.205  13.706  24.366  0.0681 -0.0729  0.0756
20446W        W63384  25.836  11.527  24.600 -0.1348  0.2642  0.0945
20447W        W63385  28.043  13.130  25.620  0.3663 -0.1143 -0.1940
20448W        W63386  29.778  11.986  26.380  0.1157 -0.0968  0.4184
20449W        W63387  28.495  12.827  25.224 -0.0005 -0.0672  0.1252
20450W        W63388  28.497  11.913  26.614 -0.0527 -0.1152  0.0035
20451W        W63389  28.067  14.673  24.637  0.1063 -0.0451 -0.1848
20452W        W63390  27.264  13.686  26.162  0.0857  0.0753 -0.0273
20453W        W63391  27.307  14.377  26.762  0.0554 -0.2340 -0.2334
20454W        W63392  27.081  11.928  26.001  0.1108 -0.1346  0.0222
20455W        W63393  28.828  10.527  25.327 -0.0495  0.2474  0.1360
20456W        W63394  27.946  12.648  27.960  0.1880 -0.0795  0.3785
20457W        W63395  27.171  12.972  26.989  0.1121 -0.0010  0.0222
20458W        W63396  26.205  12.844  24.944  0.1759 -0.0482 -0.2487
20459W        W63397  28.771  10.978  24.270  0.1711  0.2105  0.4772
20460W        W63398  27.280  12.982  27.494  0.2885  0.0625 -0.3704
20461W        W63399  26.711  13.083  27.030  0.1321 -0.3926  0.0055
20462W        W63400  28.208  12.572  23.601 -0.0746 -0.3277 -0.3288
20463W        W63401  29.077  14.457  28.178 -0.0447  0.1722  0.1612
20464W        W63402  29.552  12.635  23.271 -0.0157  0.1054 -0.3038
20465W        W63403  28.737  14.791  28.556 -0.0084  0.2491 -0.0442
20466W        W63404  25.989  10.959  25.077 -0.3874  0.2531  0.0930
20467W        W63405  28.137  11.828  24.715 -0.4063  0.0219  0.4979
20468W        W63406  26.871  12.713  25.456 -0.0187  0.1861 -0.1655
20469W        W63407  27.123  13.398  26.620 -0.1700 -0.2620  0.0842
20470W        W63408  28.785  15.633  28.475 -0.1832 -0.1044  0.2629
20471W        W63409  25.990  11.846  26.077 -0.0598  0.2244 -0.1725
20472W        W63410  29.403  13.234  24.962 -0.1507  0.0311 -0.3828
20473W        W63411  29.862  14.912  26.620 -0.1773  0.1560  0.1942
20474W        W63412  28.382  14.067  24.040  0.1033 -0.3368 -0.1018
20475W        W63413  27.839  13.382  25.130  0.0571 -0.2950  0.0146
20476W        W63414  28.206  13.781  26.116  0.0241  0.1745  0.0188
20477W        W63415  26.937  13.255  25.228  0.2057 -0.3339  0.4647
20478W        W63416  27.532  14.303  25.750  0.0928  0.3921  0.1223
20479W        W63417  28.807  12.887  26.532  0.3607 -0.2152 -0.0374
20480W        W63418  27.696  10.475  26.239 -0.1231  0.2025  0.1441
20481W        W63419  26.549  13.007  25.679 -0.0696  0.2238  0.0643
20482W        W63420  27.026  13.434  25.704  0.1608  0.0313  0.3683
20483W        W63421  28.234  10.795  24.854 -0.0078 -0.2425 -0.0291
20484W        W63422  28.091  11.803  26.876  0.0295  0.0146  0.3996
20485W        W63423  29.003  13.455  23.647  0.1024  0.1430  0.1076
20486W        W63424  28.736   9.569  28.385 -0.2651  0.1016 -0.3374
20487W        W63425  27.888  14.484  27.613  0.0310 -0.0201 -0.1531
20488W        W63426  26.978  14.834  27.557 -0.0399 -0.0532 -0.0010
20489W        W63427  27.008  12.980  24.628 -0.0969 -0.0375  0.1078
20490W        W63428  27.284  13.449  27.846  0.0427 -0.2122  0.1757
20491W        W63429  28.738  13.167  25.542 -0.3544  0.0002  0.1506
20492W        W63430  28.462  14.411  24.451 -0.2021 -0.0516  0.0669
20493W        W63431  29.289  14.217  25.694 -0.4031 -0.0965  0.1336
20494W        W63432  26.890  11.413  25.961  0.2417  0.2054 -0.0269
20495W        W63433  27.613  13.357  25.891  0.1020  0.0911  0.1729
20496W        W63434  26.111  11.300  26.466 -0.1509 -0.3932  0.2703
20497W        W63435  28.965  11.122  23.826  0.2271 -0.0175 -0.1616
20498W        W63436  28.619  10.839  26.065  0.0366 -0.0754  0.0776
20499W        W63437  27.389  14.603  26.357  0.0219 -0.0694  0.5172
20500W        W63438  26.896  12.595  23.882  0.0427  0.1841  0.2994
20501W        W63439  27.822  13.211  24.123  0.1094  0.0983 -0.3546
20502W        W63440  26.417  14.138  26.395 -0.0294 -0.0220 -0.0694
20503W        W63441  27.855  11.180  27.172  0.1716  0.1206 -0.0152
20504W        W63442  25.624  12.649  27.277  0.1024  0.0873  0.3513
20505W        W63443  26.614  12.176  25.210 -0.1770  0.0357  0.1534
20506W        W63444  26.355  11.517  27.177  0.0371  0.3143 -0.1585
20507W        W63445  28.687  11.950  24.660  0.1236  0.1129  0.0585
20508W        W63446  26.955  11.219  27.159  0.1024 -0.2085 -0.1472
20509W        W63447  25.776  11.884  25.481 -0.0136 -0.1202 -0.2460
20510W        W63448  28.930  12.444  25.925 -0.1297  0.2014  0.3263
20511W        W63449  28.010  14.740  25.158 -0.0587  0.2141  0.3241
20512W        W63450  27.622  11.624  24.680  0.1551 -0.0372 -0.0365
20513W        W63451  29.899  13.792  28.962 -0.0446  0.1902 -0.4590
20514W        W63452  26.124  12.856  23.558  0.4500  0.0073  0.1476
20515W        W63453  27.338  12.428  27.123 -0.4144 -0.2753 -0.1530
20516W        W63454  27.021  13.919  27.447 -0.1968 -0.1176 -0.3259
20517W        W63455  25.347  13.135  24.795  0.7103  0.1907  0.2684
20518W        W63456  28.143  12.801  25.923 -0.3147  0.3502 -0.0337
20519W        W63457  28.660  12.846  26.052 -0.0031 -0.1013  0.1556
20520W        W63458  28.800  16.418  23.304 -0.1520  0.3390  0.1624
20521W        W63459  25.468  15.578  26.969  0.3387  0.1399 -0.1181
20522W        W63460  26.240  13.521  28.646  0.2877 -0.0539 -0.2530
20523W        W63461  24.473  10.915  27.068 -0.1461 -0.1388 -0.2126
20524W        W63462  28.138  12.897  24.930 -0.2814  0.1937  0.1049
20525W        W63463  27.853  14.953  27.207 -0.0216 -0.0117 -0.2116
20526W        W63464  29.102  12.975  24.535  0.0998  0.1422 -0.0173
20527W        W63465  29.832  12.405  26.621 -0.1044  0.1309 -0.2524
20528W        W63466  28.309  12.397  24.858  0.0989  0.4936  0.1991
20529W        W63467  27.406  11.722  26.839  0.0999 -0.1958 -0.2368
20530W        W63468  27.307  14.054  28.458  0.1006  0.0743  0.2010
20531W        W63469  28.520  13.618  27.245 -0.1560  0.0351  0.4405
20532W        W63470  27.636  11.972  26.025 -0.3428 -0.2423 -0.0754
20533W        W63471  27.450  11.346  25.987 -0.0034  0.0371  0.1662
20534W        W63472  28.599  13.693  23.829  0.0082 -0.0480  0.0021
20535W        W63473  25.987  13.349  26.581  0.1729 -0.1920 -0.0246
20536W        W63474  27.141  11.808  24.928 -0.0765 -0.0687 -0.5176
20537W        W63475  28.870  13.320  28.129 -0.1637  0.0893  0.0176
20538W        W63476  27.812  14.725  25.757 -0.0574  0.0147 -0.1167
20539W        W63477  29.839  12.861  28.410  0.0744  0.1311 -0.1889
20540W        W63478  27.850  14.263  25.397  0.0293  0.1927 -0.2523
20541W        W63479  28.056  13.477  23.759 -0.2742 -0.0502 -0.0493
20542W        W63480  28.358  16.259  27.064  0.1680  0.0114  0.0270
20543W        W63481  29.695  15.648  27.376 -0.3368 -0.0963 -0.0448
20544W        W63482  27.840  15.169  27.673  0.3316 -0.0151  0.0844
20545W        W63483  29.834  13.318  26.577 -0.0605 -0.1365 -0.5666
20546W        W63484  25.843  10.565  25.390 -0.3993  0.1542 -0.0059
20547W        W63485  27.532  11.649  24.170  0.0700  0.2712  0.0606
20548W        W63486  27.595  12.889  25.677 -0.2176  0.1406  0.0088
20549W        W63487  28.489  11.472  26.307 -0.4479 -0.1059 -0.2733
20550W        W63488  26.337  12.968  26.669  0.3942  0.0510 -0.4149
20551W        W63489  27.295  11.280  24.670 -0.0697 -0.1071 -0.1222
20552W        W63490  28.316  14.477  27.166 -0.1042 -0.0693  0.1582
20553W        W63491  27.401  13.845  26.608  0.2828 -0.1184  0.1928
20554W        W63492  26.779  13.646  30.814  0.1580  0.0307  0.2067
20555W        W63493  26.613  12.749  29.213 -0.0454  0.1570  0.1980
20556W        W63494  28.091  11.440  28.794 -0.1198  0.1057 -0.2719
20557W        W63495  28.625  12.183  29.037 -0.0348 -0.2251 -0.0038
20558W        W63496  27.356  13.049  28.801 -0.1371  0.0398 -0.1886
20559W        W63497  27.626  14.619  30.017  0.0872 -0.2286 -0.0148
20560W        W63498  26.045  10.831  30.484 -0.2693  0.2575 -0.0322
20561W        W63499  28.220  13.490  31.019  0.0436  0.1458 -0.0741
20562W        W63500  28.494  14.785  31.201  0.0802 -0.1875  0.0935
20563W        W63501  28.241  13.864  27.813 -0.0484  0.1652 -0.2367
20564W        W63502  27.800  13.968  28.744  0.1639  0.2692 -0.1312
20565W        W63503  26.242  13.595  30.821 -0.4749 -0.0071  0.1719
20566W        W63504  27.661  10.880  28.611  0.4151 -0.2305  0.0207
20567W        W63505  25.936  12.540  28.628 -0.2214  0.1270  0.1326
20568W        W63506  29.163  11.492  31.674 -0.0031 -0.2188  0.1241
20569W        W63507  24.663  13.210  28.866 -0.0936 -0.0514 -0.2051
20570W        W63508  26.420  11.545  30.982  0.1281  0.1989  0.2860
20571W        W63509  28.296  12.145  29.435 -0.0417  0.0818 -0.0899
20572W        W63510  25.632  14.465  29.549  0.0152  0.3330 -0.0279
20573W        W63511  26.677  10.761  29.945 -0.2995 -0.0024  0.3223
20574W        W63512  27.500  12.669  31.785 -0.0177  0.2462 -0.3784
20575W        W63513  28.969  12.099  30.037  0.1091  0.3347 -0.2055
20576W        W63514  27.030  13.751  26.986 -0.0302  0.1793  0.1942
20577W        W63515  26.036  12.694  29.983 -0.1491  0.0565 -0.1257
20578W        W63516  26.559  13.345  29.440  0.2612  0.0388  0.0247
20579W        W63517  28.965  11.166  30.392 -0.2946 -0.0829  0.1093
20580W        W63518  28.773  12.613  29.201  0.1893  0.1381 -0.1711
20581W        W63519  27.512  15.351  29.423 -0.1597 -0.1939  0.1201
20582W        W63520  27.936  13.973  29.520  0.0812  0.0883 -0.1018
20583W        W63521  28.233  11.990  30.227  0.1979  0.0145  0.0143
20584W        W63522  25.678  15.000  29.845  0.0278  0.2945 -0.0099
20585W        W63523  24.664  15.542  29.035 -0.2696 -0.0163 -0.2761
20586W        W63524  28.106  14.157  29.128 -0.0720  0.1966 -0.2212
20587W        W63525  28.896  13.954  29.162 -0.0583 -0.0209 -0.2620
20588W        W63526  30.845  12.725   0.367  0.1856  0.1950  0.2229
20589W        W63527  26.838  14.592  31.912  0.1027  0.0672  0.1123
20590W        W63528  25.170  13.032  28.831 -0.1332  0.1009  0.3004
20591W        W63529  26.716  13.865  31.244  0.3001  0.4228  0.1320
20592W        W63530  26.153  13.254  31.185 -0.1863  0.3451 -0.1835
20593W        W63531  26.957  12.790  30.638  0.1877  0.0426  0.0910
20594W        W63532  26.769  13.718  29.120 -0.2205  0.1736  0.3261
20595W        W63533  26.601  13.832  29.594  0.0852  0.0091 -0.0831
20596W        W63534  26.824  14.280  30.421  0.1988  0.0179 -0.1723
20597W        W63535  25.304  13.637   0.701  0.0657 -0.1994 -0.1795
20598W        W63536  25.219  14.930  29.635  0.2501  0.0642  0.5038
20599W        W63537  29.335  10.832   0.948 -0.3325 -0.1075  0.1309
20600W        W63538  27.487  15.579  27.748  0.0003 -0.2135 -0.0118
20601W        W63539  28.677  14.297  28.833 -0.0103 -0.0645 -0.2176
20602W        W63540  26.678  12.107  27.883 -0.1659  0.1833 -0.1875
20603W        W63541  28.216  12.809  27.481 -0.2747 -0.1037 -0.2616
20604W        W63542  28.514  10.430  28.844  0.4790  0.2630 -0.0476
20605W        W63543  26.176  15.204  29.779  0.0626  0.0318 -0.1259
20606W        W63544  26.739  11.652  30.007  0.4013  0.3667  0.1623
20607W        W63545  28.576  13.830  30.910 -0.1237 -0.0854 -0.1130
20608W        W63546  27.184  12.480  28.499 -0.0284  0.0676 -0.2798
20609W        W63547  27.898  12.852  30.926 -0.5012 -0.1613 -0.0573
20610W        W63548  26.550  13.870  30.385 -0.2328  0.1583 -0.0333
20611W        W63549  24.093  11.198  29.466  0.0277  0.2479  0.2634
20612W        W63550  29.086  15.176  28.504 -0.0343 -0.0494 -0.3706
20613W        W63551  28.462  13.039  30.811  0.1792  0.3053 -0.0406
20614W        W63552  26.414  14.468  28.698  0.1148  0.2405 -0.0039
20615W        W63553  24.535  13.551  29.806  0.1717 -0.2430 -0.0929
20616W        W63554  25.547  12.568  30.460 -0.1408  0.0901 -0.0963
20617W        W63555  23.861  11.220  30.292  0.0824 -0.0172 -0.1283
20618W        W63556  26.259  12.716  27.243  0.1360  0.0413  0.1805
20619W        W63557  27.822  12.250  30.447 -0.0823 -0.1784 -0.0190
20620W        W63558  27.150  13.788   0.203 -0.1200 -0.2425 -0.0028
20621W        W63559  28.530  11.239  28.963  0.3188  0.2109 -0.1086
20622W        W63560  26.574  14.632  29.530  0.1651 -0.4985 -0.0285
20623W        W63561  28.841  11.789  31.418  0.0002  0.2537  0.2231
20624W        W63562  27.677  13.177  28.235 -0.1794 -0.0414  0.2410
20625W        W63563  27.856  10.699  29.053 -0.1521  0.0123 -0.1151
20626W        W63564  28.014  10.903  30.097 -0.0107 -0.1913  0.0503
20627W        W63565  26.374  14.621  26.466  0.0742  0.0374 -0.3998
20628W        W63566  26.156  12.756  28.221  0.2076  0.0415  0.0908
20629W        W63567  29.929  14.040  31.074 -0.2669 -0.0118 -0.1212
20630W        W63568  27.896  11.784  28.452  0.2420  0.1184  0.2050
20631W        W63569  25.708  15.009  30.794 -0.2410  0.1094  0.3729
20632W        W63570  27.415  11.374  30.335  0.1560 -0.0398  0.0198
20633W        W63571  28.425  13.334   1.263 -0.0356  0.0921 -0.1762
20634W        W63572  25.973  13.973  28.634 -0.0423 -0.1524  0.2634
20635W        W63573  25.057  14.270  28.830 -0.1256  0.0146 -0.0511
20636W        W63574  25.670  13.587  28.824 -0.2303 -0.1238  0.2737
20637W        W63575  25.422  11.594  29.596 -0.3407 -0.1372  0.1328
20638W        W63576  27.126  14.519  29.940 -0.0939  0.1042 -0.0044
20639W        W63577  28.563  11.697  28.800 -0.0685  0.0910 -0.0193
20640W        W63578  25.072  11.189  30.496 -0.0525  0.2434  0.1267
20641W        W63579  29.325  11.764  29.962  0.1049 -0.0224 -0.0155
20642W        W63580  25.981  13.075  28.538  0.0259 -0.2380  0.1390
20643W        W63581  30.559  15.185  29.127 -0.2117  0.2691  0.0807
20644W        W63582  28.130  11.078  29.247  0.3005 -0.1711  0.0424
20645W        W63583  27.622  14.399  28.368 -0.1447 -0.1149  0.0936
20646W        W63584  24.459  13.524  29.276  0.0484 -0.1158 -0.4041
20647W        W63585  26.520  12.071  30.249 -0.0296  0.0654 -0.0814
20648W        W63586  25.993  12.716  30.786 -0.0006  0.1851 -0.0129
20649W        W63587  23.782  12.730  31.046 -0.1458 -0.0847  0.1957
20650W        W63588  29.649  12.291  30.806  0.1389 -0.1334  0.2104
20651W        W63589  27.688  12.660  30.170  0.1870 -0.1213  0.0608
20652W        W63590  28.864  11.779  29.233  0.3921 -0.0718 -0.0459
20653W        W63591  26.971  12.148  27.424  0.1587 -0.2562 -0.0650
20654W        W63592  24.978  13.246  28.375 -0.1954  0.0688  0.1515
20655W        W63593  28.189   9.946  30.382 -0.1333  0.1838  0.0800
20656W        W63594  27.741  16.190  29.242 -0.0455 -0.1178 -0.1313
20657W        W63595  30.063  14.905  31.319  0.0162 -0.0450  0.1233
20658W        W63596  29.305  14.352  30.360  0.2590  0.0261  0.1367
20659W        W63597  27.556  10.423  31.365  0.0493 -0.3169  0.2271
20660W        W63598  24.814  12.323  29.231  0.3724  0.2617  0.0387
20661W        W63599  25.348  14.610  29.992  0.1175 -0.0772 -0.1313
20662W        W63600  27.858  14.046  30.077 -0.0311  0.0671 -0.0533
20663W        W63601  26.580  13.735  27.251  0.1323  0.2908  0.1552
20664W        W63602  28.525  14.889  30.671  0.2782 -0.0318 -0.0322
20665W        W63603  26.316  14.106  27.541 -0.0297 -0.5832  0.2183
20666W        W63604  25.206  12.358  30.725 -0.2414  0.0425  0.2161
20667W        W63605  28.366  11.634  31.333 -0.0149 -0.2330  0.2976
20668W        W63606  30.303  13.302  30.029  0.0273 -0.3032 -0.0876
20669W        W63607  29.259  13.349  31.523 -0.0776 -0.0319  0.0021
20670W        W63608  25.888  12.876  26.413 -0.0480  0.1551 -0.0050
20671W        W63609  28.495  13.446  30.562  0.2047  0.2102 -0.1261
20672W        W63610  26.504  14.769  28.298  0.1305  0.0750 -0.4033
20673W        W63611  25.406  13.966  27.960 -0.1044 -0.0964  0.0961
20674W        W63612  28.892  13.716  30.270  0.1279  0.0651 -0.0130
20675W        W63613  29.374  12.461  29.926  0.1302  0.0711 -0.2217
20676W        W63614  26.290  12.081  30.830  0.0436 -0.4245 -0.1304
20677W        W63615  27.788  12.712  31.358  0.4447  0.3096  0.2581
20678W        W63616  25.967  12.741  27.725 -0.0134  0.0767  0.3524
20679W        W63617  25.769  14.789  30.334 -0.1040 -0.1501  0.0918
20680W        W63618  28.927   9.604  27.893  0.0110 -0.1487 -0.2333
20681W        W63619  27.630  11.112  29.467  0.1003 -0.0936 -0.1587
20682W        W63620  26.740  12.859  31.114  0.1573  0.1757  0.0595
20683W        W63621  27.967  13.502  28.432  0.1153 -0.0168  0.2611
20684W        W63622  27.679  11.221  28.982  0.0876  0.1365 -0.1736
20685W        W63623  28.231  10.905  28.742 -0.2121  0.1781 -0.4499
20686W        W63624  26.136  13.297  31.766  0.2341  0.1037  0.0330
20687W        W63625  27.385  14.851  28.375 -0.1897  0.0413 -0.0359
20688W        W63626  27.745  13.252  30.100  0.0507  0.2227 -0.2481
20689W        W63627  28.039  12.383  27.212  0.1537 -0.2286  0.1813
20690W        W63628  29.760  14.225  29.113  0.1832  0.0039 -0.3131
20691W        W63629  26.131  13.416  29.163 -0.1701 -0.0602 -0.1244
20692W        W63630  27.275  14.149  31.305 -0.1385 -0.6409  0.0320
20693W        W63631  27.178  12.270  30.986 -0.1219  0.0541  0.2425
20694W        W63632  27.640  10.926  30.483  0.2087 -0.0532 -0.0966
20695W        W63633  28.075  12.209  28.239 -0.1869 -0.2584 -0.2134
20696W        W63634  28.530  11.210  29.540  0.0510  0.2402 -0.3066
20697W        W63635  24.963  14.388  27.862 -0.0945 -0.1459 -0.0264
20698W        W63636  30.113  12.447  30.706 -0.0790  0.0671 -0.0843
20699W        W63637  27.561  12.071  29.556 -0.0625  0.2191  0.0680
20700W        W63638  26.869  10.662  30.920  0.1869 -0.0630 -0.1243
20701W        W63639  28.707  12.673  31.064  0.1104 -0.0341  0.0041
20702W        W63640  30.618  13.047  29.023  0.3155  0.1386  0.1247
20703W        W63641  28.706  11.656  30.932  0.3678  0.2182 -0.1461
20704W        W63642  25.890  12.830  26.926 -0.0973 -0.1126 -0.4313
20705W        W63643  27.621  11.567  30.754  0.1765  0.5478  0.2060
20706W        W63644  25.574  13.573  29.946 -0.0622  0.0765  0.1806
20707W        W63645  25.929  12.865  31.597  0.3458  0.1002 -0.1314
20708W        W63646  28.746  14.119  31.717 -0.0699 -0.2327 -0.0307
20709W        W63647  28.419  12.638  29.576 -0.3955  0.1659 -0.1205
20710W        W63648  27.874  10.833  31.360 -0.2074  0.0193  0.0309
20711W        W63649  28.130  10.902  28.150 -0.0566  0.2330 -0.1002
20712W        W63650  26.198  14.396  29.319  0.3011 -0.0785  0.0829
20713W        W63651  26.798  13.067  27.894 -0.0677 -0.2576  0.0481
20714W        W63652  26.858   9.228  29.294  0.3289 -0.2689  0.0808
20715W        W63653  27.310  14.129  30.352 -0.0051 -0.4005  0.0003
20716W        W63654  28.471  14.088  27.401 -0.1330  0.0627 -0.6312
20717W        W63655  28.909  13.796  31.401 -0.0304  0.2602 -0.1585
20718W        W63656  26.468  14.075  30.838 -0.2755 -0.1182 -0.0092
20719W        W63657  27.354  12.146  30.002 -0.3168 -0.2305  0.0511
20720W        W63658  25.968  14.784  29.409  0.0429  0.0077 -0.2438
20721W        W63659  26.015  12.795  29.071  0.1416  0.0540  0.0962
20722W        W63660  24.927  14.088  28.350  0.0872 -0.4188 -0.0577
20723W        W63661  27.768  11.703  29.027 -0.0629  0.0553 -0.1859
20724W        W63662  28.203  14.021  28.457  0.1822 -0.1736 -0.0178
20725W        W63663  25.106  13.593  29.742 -0.1157  0.1718 -0.2079
20726W        W63664  28.554  10.796  29.235  0.1970  0.4254 -0.2429
20727W        W63665  25.449  14.838  29.226  0.1147  0.0422  0.2276
20728W        W63666  27.307  13.610   0.652 -0.2169 -0.3922  0.2980
20729W        W63667  28.190  11.907  27.425 -0.3636 -0.1078  0.0128
20730W        W63668  27.604  14.144  30.747 -0.0834 -0.1977 -0.2952
20731W        W63669  26.363  14.240   0.252  0.1667 -0.2795  0.1684
20732W        W63670  25.515  13.548  29.264  0.2360  0.0695 -0.3802
20733W        W63671  28.813  11.546  30.103 -0.5711 -0.1029  0.0458
20734W        W63672  26.488  13.189  27.479 -0.0880 -0.0858 -0.0243
20735W        W63673  27.256  13.530  28.990  0.1449 -0.1989 -0.1129
20736W        W63674  27.974  13.825  30.771 -0.0638 -0.0882  0.0829
20737W        W63675  27.781  13.333  28.873 -0.1206  0.1844 -0.0479
20738W        W63676  25.443  14.365  29.115  0.1352  0.2477  0.0901
20739W        W63677  26.830  12.106  29.839  0.1992 -0.1241  0.0775
20740W        W63678  29.235  13.785  31.801  0.2068 -0.1533 -0.0172
20741W        W63679  25.896  11.470  28.782  0.0194  0.4835  0.1404
20742W        W63680  26.873  12.937  28.741 -0.2350  0.1204  0.2462
20743W        W63681  27.850  13.010  29.628  0.1550  0.0674 -0.3790
20744W        W63682  28.702  13.302  31.137  0.1615  0.2436  0.3037
20745W        W63683  27.076  13.254  30.902  0.1162 -0.0744 -0.0281
20746W        W63684  27.425  14.618  31.067 -0.0121 -0.1486 -0.1093
20747W        W63685  27.985  10.454  28.668 -0.1521 -0.0417 -0.1072
20748W        W63686  31.158  14.836  26.799  0.2041  0.2314  0.1112
20749W        W63687  28.006  12.755  31.780 -0.1066 -0.1047 -0.0041
20750W        W63688  26.493  13.131  28.392 -0.0560  0.0233  0.0011
20751W        W63689  26.137  14.076  29.695 -0.0153  0.0976 -0.2048
20752W        W63690  26.742  13.421  28.730  0.1521  0.0909 -0.0860
20753W        W63691  27.837  12.198  29.143  0.1556  0.0720  0.1153
20754W        W63692  26.238  13.864  31.301 -0.0796  0.0986  0.1995
20755W        W63693  26.363  13.070  28.887 -0.0234  0.0306  0.2237
20756W        W63694  25.135  14.406  29.583 -0.0599  0.1108  0.0688
20757W        W63695  29.802   9.833  27.839 -0.3192 -0.1921  0.0886
20758W        W63696  25.224  13.965  29.202  0.2794 -0.0201 -0.0770
20759W        W63697  27.143  11.188  29.524 -0.0131  0.0146 -0.2939
20760W        W63698  29.035  11.605   0.162  0.0044 -0.0629  0.6237
20761W        W63699  28.186  13.647  28.904  0.2560 -0.1422 -0.0246
20762W        W63700  27.796  10.553  30.808 -0.1119 -0.2602  0.0017
20763W        W63701  25.513  12.593  29.861  0.2992 -0.2605  0.1290
20764W        W63702  29.426  13.881  28.666 -0.1060 -0.2590  0.0038
20765W        W63703  25.505  12.558  28.820 -0.1453  0.1340  0.0898
20766W        W63704  28.391  13.043   0.862  0.2162 -0.0088 -0.1376
20767W        W63705  26.047  11.896  30.262  0.1156 -0.0934 -0.5016
20768W        W63706  29.511  12.602  29.485 -0.1240 -0.0734  0.2169
20769W        W63707  26.227  12.273  27.935  0.3184 -0.4504 -0.1852
20770W        W63708  26.216  12.953  30.414  0.0845 -0.1157 -0.0265
20771W        W63709  29.372  13.668  30.371 -0.1590  0.0913 -0.1053
20772W        W63710  27.549  13.681  29.760 -0.1729  0.0783 -0.0847
20773W        W63711  28.352  12.667  28.222 -0.0950 -0.0117  0.2737
20774W        W63712  27.370  13.061  29.780  0.0360  0.0860 -0.0220
20775W        W63713  27.424  12.001  30.597  0.0158  0.5852 -0.0610
20776W        W63714  27.333  11.541  29.028 -0.0189 -0.2077  0.1155
20777W        W63715  26.314  13.882  29.043 -0.2357 -0.0309  0.1139
20778W        W63716  25.914  11.198  31.449 -0.2294  0.1176 -0.0687
20779W        W63717  27.321  13.743  30.801 -0.2762  0.1446  0.3396
20780W        W63718  28.401  10.518  28.327  0.1449 -0.1724 -0.3729
20781W        W63719  27.929  11.535  29.485  0.2154  0.0540  0.0655
20782W        W63720  27.534  11.884  31.097  0.1156  0.1023 -0.2059
20783W        W63721  27.497  13.266  30.616 -0.0955 -0.0813  0.1508
20784W        W63722  24.469  12.948  30.112 -0.2188  0.1738 -0.0227
20785W        W63723  28.592  14.829  31.848 -0.0421 -0.3883  0.0885
20786W        W63724  29.222  11.637  27.864  0.1857 -0.4041 -0.1813
20787W        W63725  29.388  13.272  29.422 -0.1886 -0.1921  0.1768
20788W        W63726  28.601  13.288  28.561  0.1156  0.0899  0.0483
20789W        W63727  28.124  12.982  28.696  0.1498  0.3080  0.1788
20790W        W63728  23.946  13.674  29.286 -0.0656 -0.1075 -0.0044
20791W        W63729  29.054  12.896  30.624  0.4443 -0.0013  0.2299
20792W        W63730  27.106  12.150  28.157  0.1712  0.2418 -0.2945
20793W        W63731  27.522  13.176  31.519 -0.0226 -0.2189 -0.2556
20794W        W63732  27.018  14.446  28.629 -0.0795 -0.1580  0.2484
20795W        W63733  27.017  13.997  29.926  0.1870 -0.0602 -0.0199
20796W        W63734  28.997  10.932  29.440  0.1307  0.0066  0.0190
20797W        W63735  27.184  11.836  27.798 -0.1382  0.1836 -0.0138
20798W        W63736  27.318  14.590  30.513  0.2118  0.2024 -0.3190
20799W        W63737  24.493  11.807  28.451  0.0348 -0.1678  0.2787
20800W        W63738  29.477  13.430  28.919 -0.1603  0.0246 -0.4343
20801W        W63739  28.237  12.555  30.437 -0.1313 -0.1306  0.1746
20802W        W63740  29.704  12.848  30.937  0.1781 -0.2991 -0.0136
20803W        W63741  27.993  11.773  27.863 -0.3882 -0.0943 -0.0275
20804W        W63742  30.110  11.864  30.799  0.4033 -0.3251  0.2724
20805W        W63743  26.401  15.135  29.267 -0.3663  0.1431 -0.1811
20806W        W63744  27.860  11.334  27.683  0.0068  0.4838 -0.0804
20807W        W63745  26.483  14.929  31.414  0.3636  0.0443 -0.0663
20808W        W63746  26.456  14.928  30.015 -0.0966  0.1630  0.1094
20809W        W63747  27.049  13.525  29.595  0.0273  0.1289  0.0003
20810W        W63748  27.308  11.571  29.867  0.1414 -0.0504 -0.4281
20811W        W63749  28.189  11.964  28.926  0.1493  0.0425 -0.0537
20812W        W63750  27.898  12.499  29.723 -0.0595 -0.1112  0.0842
20813W        W63751  29.444  12.193  30.324 -0.0234 -0.0507  0.1394
20814W        W63752  28.241  14.608   0.120  0.1736  0.1297  0.0340
20815W        W63753  24.775  13.850  29.448 -0.0588 -0.1904 -0.0326
20816W        W63754  27.778  13.234  31.958 -0.1092 -0.0171  0.1881
20817W        W63755  28.175  12.952  30.090  0.1749 -0.0939  0.0614
20818W        W63756  26.983  14.065  29.446  0.2396  0.2530 -0.0050
20819W        W63757  25.169  13.037  31.274 -0.0302 -0.1625  0.1938
20820W        W63758  26.597  12.414   0.240  0.0848 -0.0796 -0.0029
20821W        W63759  28.779  12.383  30.565  0.2017  0.2081 -0.0907
20822W        W63760  26.175  13.015  29.511 -0.0185  0.1100 -0.0584
20823W        W63761  26.845  12.882  29.614  0.1482 -0.1038  0.0362
20824W        W63762  26.113  15.280  31.906 -0.0608  0.1712 -0.0583
20825W        W63763  24.627  14.599  29.615 -0.1054  0.1213 -0.0735
20826W        W63764  25.644  15.742  28.740 -0.1183  0.2849  0.0401
20827W        W63765  28.434  14.124  29.559  0.2470  0.0025 -0.2055
20828W        W63766  27.711  12.732  28.430  0.1304 -0.2344  0.1364
20829W        W63767  28.622  14.236  30.675 -0.1534 -0.0036  0.3764
20830W        W63768  24.864  13.177  27.806  0.0162  0.1066  0.1863
20831W        W63769  27.485  14.190  29.740 -0.1165  0.2374  0.2256
20832W        W63770  25.139  13.540  28.849 -0.0887 -0.1555 -0.3458
20833W        W63771  27.494  13.939  29.270  0.3968 -0.1952  0.0461
20834W        W63772  26.194  13.530  29.720  0.2308 -0.1632 -0.2906
20835W        W63773  29.361  14.723  31.235  0.0250 -0.0760 -0.2185
20836W        W63774  28.343  11.745  28.220  0.2422  0.1863  0.1484
20837W        W63775  28.582  13.085  29.104 -0.1205  0.3053 -0.2802
20838W        W63776  29.791  10.935  28.455 -0.0508 -0.1877 -0.4431
20839W        W63777  27.746  14.302  31.427  0.1042  0.0460 -0.0516
20840W        W63778  25.216  13.159  29.964  0.0173  0.1746  0.0755
20841W        W63779  26.843  12.423  28.866  0.2534  0.2317  0.2001
20842W        W63780  26.478  12.615  30.708 -0.3858  0.3059  0.0295
20843W        W63781  27.758   9.909  31.119  0.0054 -0.0582 -0.1009
20844W        W63782  25.338  14.730  30.927 -0.2913  0.1026  0.2913
20845W        W63783  28.881  14.731  29.001  0.3700  0.0368 -0.0282
20846W        W63784  25.479  12.736  29.268 -0.2816 -0.3153  0.0085
20847W        W63785  25.947  13.161  30.029 -0.0025  0.1967  0.1127
20848W        W63786  28.338  10.841  31.125  0.3474  0.0037 -0.0434
20849W        W63787  27.630  12.230  28.637 -0.0855 -0.1457 -0.0270
20850W        W63788  28.516  12.688  28.718  0.0586  0.2933 -0.4405
20851W        W63789  26.642  15.509  29.600  0.0304  0.1279 -0.2204
20852W        W63790  26.093  14.041  30.424 -0.1061 -0.1682  0.1895
20853W        W63791  26.007  14.628  29.904  0.0317  0.1557  0.0043
20854W        W63792  26.333  11.795  28.068  0.0367  0.1881 -0.0091
20855W        W63793  28.798  12.230  29.533  0.2492 -0.0591 -0.1035
20856W        W63794  28.010  12.969  29.146 -0.1405  0.4155 -0.0925
20857W        W63795  27.077  11.102  30.012 -0.1955 -0.1238  0.1434
20858W        W63796  26.383  12.582  29.617 -0.1728 -0.3886 -0.0611
20859W        W63797  30.334  13.123  29.519 -0.2889 -0.0402  0.0912
20860W        W63798  26.076  14.526  30.678  0.3563 -0.1199  0.1408
20861W        W63799  24.809  13.071  29.655 -0.0422 -0.3349 -0.2252
20862W        W63800  27.649  12.666  28.962  0.3169 -0.1873  0.5468
20863W        W63801  28.728  11.276  31.279  0.0622 -0.1860  0.0245
20864W        W63802  28.441  12.187  28.545 -0.0189  0.0604 -0.0962
20865W        W63803  26.554  14.624  30.799  0.1633 -0.0099 -0.1488
20866W        W63804  25.187  11.335  29.974  0.0231 -0.0172 -0.0616
20867W        W63805  28.606  11.832  27.802  0.0036 -0.0530  0.1007
20868W        W63806  26.369  13.449  30.346  0.0965  0.1365  0.1921
20869W        W63807  27.698  13.821  31.181  0.2805  0.1157 -0.1209
20870W        W63808  28.596  15.492   0.464 -0.1957  0.1031  0.3307
20871W        W63809  27.251  12.547  29.757 -0.1007 -0.1642 -0.0471
20872W        W63810  28.098  13.485  29.753 -0.0340  0.0027 -0.3456
20873W        W63811  28.496  12.426  30.015 -0.0305 -0.3012  0.0576
20874W        W63812  27.776  14.486  27.093 -0.0631  0.1764  0.0002
20875W        W63813  29.989  12.929  30.506  0.1656  0.2938 -0.1213
20876W        W63814  27.008  13.727  30.390  0.1798 -0.0668 -0.0468
20877W        W63815  25.611  13.170  29.590 -0.0619 -0.0249  0.0999
20878W        W63816  29.079  12.803  31.863 -0.2872  0.0873 -0.2453
20879W        W63817  29.059  14.470  30.779  0.4282 -0.3321  0.0477
20880W        W63818  27.739  10.232  29.100  0.1336 -0.0055 -0.0004
20881W        W63819  25.795  13.536  28.232  0.1527 -0.0445  0.1867
20882W        W63820  23.797  15.907  28.966 -0.0520  0.0163  0.2393
20883W        W63821  30.292  12.235  29.901 -0.1500 -0.0519 -0.0014
20884W        W63822  29.183  11.090  31.322 -0.0541 -0.2195  0.1490
20885W        W63823  27.457  15.228  27.347 -0.3012  0.0878  0.0363
20886W        W63824  29.084   9.787  30.797  0.1527 -0.0279 -0.1034
20887W        W63825  27.033  14.840  31.323  0.0015  0.2736  0.1481
20888W        W63826  27.026  14.815  30.820  0.1381  0.1747  0.0327
20889W        W63827  26.110  12.062  28.505  0.0849  0.0289  0.0596
20890W        W63828  26.008  13.743   0.125  0.1375  0.1188 -0.1133
20891W        W63829  27.187  13.395  30.088  0.2127  0.3854  0.1896
20892W        W63830  27.817  13.542  29.357  0.1146  0.0057  0.2661
20893W        W63831  28.889  13.305  29.687  0.0477 -0.1780 -0.0731
20894W        W63832  28.273  12.524  29.128  0.4507  0.2850 -0.0641
20895W        W63833  28.359  13.116  29.621  0.0100  0.0915  0.2624
20896W        W63834  27.186  12.660  29.255  0.1264  0.2289  0.1926
20897W        W63835  28.920  11.988  28.685 -0.0283  0.1655  0.3808
20898W        W63836  28.838  11.351  28.069  0.0942 -0.1712  0.1958
20899W        W63837  26.803  13.171  30.417  0.0266 -0.0136 -0.0585
20900W        W63838  25.316  13.378  28.053 -0.1173 -0.0899 -0.0850
20901W        W63839  25.665  13.616  27.704  0.0039  0.2090  0.0592
20902W        W63840  26.995  13.124  29.186  0.2148 -0.0914  0.2034
20903W        W63841  27.772  11.750  30.287 -0.0653 -0.1733 -0.1601
20904W        W63842  26.613  11.773  29.504  0.1067 -0.2369  0.0821
20905W        W63843  24.351  15.310  28.707 -0.0985 -0.0748 -0.1036
20906W        W63844  25.000  11.910  28.342 -0.2147  0.0167 -0.2124
20907W        W63845  29.324  13.007  29.854  0.1704  0.1557  0.0954
20908W        W63846  27.001  10.572  29.648 -0.0362 -0.2631 -0.1662
20909W        W63847  27.577  11.620  28.022 -0.2985 -0.1345  0.1776
20910W        W63848  29.300  14.718  28.612  0.0809  0.0689  0.1748
20911W        W63849  28.026  13.607  30.269 -0.3169 -0.3724  0.0872
20912W        W63850  27.595  11.017  28.014  0.2493 -0.1878 -0.3719
20913W        W63851  30.639  13.066  31.170 -0.2738 -0.0715  0.1337
20914W        W63852  25.385  13.062  27.507  0.3028  0.1360 -0.0270
20915W        W63853  29.383  12.765  31.405  0.0130 -0.1491  0.0045
20916W        W63854  26.940  12.403  30.248 -0.1847 -0.0235 -0.0301
20917W        W63855  25.364  11.378  26.940 -0.4913 -0.1828  0.1450
20918W        W63856  26.206  12.194  29.882 -0.1971 -0.2478 -0.0212
20919W        W63857  27.904  15.067  28.353 -0.1361 -0.1109  0.0467
20920W        W63858  28.395  15.309  28.419 -0.3334  0.1751 -0.0010
20921W        W63859  27.574  13.726  30.356 -0.0915 -0.1633  0.1248
20922W        W63860  27.067  15.231  30.576  0.3296  0.2588 -0.3274
20923W        W63861  25.365  11.492  28.730  0.1363 -0.3028  0.0749
20924W        W63862  27.473  13.549  28.484 -0.2599  0.2837 -0.0202
20925W        W63863  25.473  16.510  31.903  0.0917 -0.2419  0.2898
20926W        W63864  29.711  13.468  28.435 -0.2172 -0.1801  0.1948
20927W        W63865  28.262  11.424  29.918 -0.1912 -0.0336 -0.3585
20928W        W63866  28.056  12.460  28.710 -0.1939  0.2629  0.0461
20929W        W63867  27.062  11.904  31.311 -0.0433 -0.0399  0.0564
20930W        W63868  27.961  15.902  31.853  0.1476  0.0977 -0.2614
20931W        W63869  31.109  14.314  31.738 -0.1408  0.0302  0.1289
20932W        W63870  27.785  11.369  29.939  0.3707  0.2967  0.0386
20933W        W63871  28.382  11.667  29.342 -0.1242 -0.0164  0.1137
20934W        W63872  27.043  14.058  28.897  0.4049 -0.1376 -0.1218
20935W        W63873  25.571  13.854  30.608 -0.1741 -0.1563  0.0981
20936W        W63874  27.465  13.176  29.302 -0.3660  0.5157  0.3160
20937W        W63875  26.904  13.944   0.648  0.1052 -0.4983  0.2276
20938W        W63876  27.368  12.864  30.927  0.0053 -0.4528  0.3714
20939W        W63877  27.663  12.382  30.940  0.1442 -0.0809  0.1879
20940W        W63878  27.296  12.186  29.014  0.3978 -0.0332  0.0894
20941W        W63879  29.886  12.388  28.642 -0.1889 -0.0350 -0.0010
20942W        W63880  26.480  15.105  30.546 -0.4331  0.0151  0.2256
20943W        W63881  29.315  14.369  31.599 -0.2339  0.0164  0.0343
20944W        W63882  26.122  15.392  30.323 -0.2402  0.0981 -0.4676
20945W        W63883  27.399  12.507  30.556  0.2603  0.3066  0.0218
20946W        W63884  26.838  11.678  28.259  0.2191  0.0552 -0.1698
20947W        W63885  24.598  12.222  28.072  0.0254 -0.1908  0.2231
20948W        W63886  28.077  13.213  30.587 -0.0333  0.1251 -0.1027
20949W        W63887  29.039  12.353  31.583 -0.1335 -0.0698 -0.0703
20950W        W63888  27.211  12.905  30.258  0.2320 -0.1640 -0.0654
20951W        W63889  29.130  10.960  28.166 -0.1893  0.2091 -0.0442
20952W        W63890  26.871  15.277  31.511 -0.2583 -0.0161 -0.0049
20953W        W63891  27.031  14.159  30.850  0.1865 -0.1249 -0.1565
20954W        W63892  27.891  11.579  31.800 -0.2163 -0.2382 -0.2627
20955W        W63893  26.501  12.924   0.435 -0.1791 -0.1826 -0.1455
20956W        W63894  25.598  12.098  30.601  0.1282 -0.1219  0.1874
20957W        W63895  26.231  13.056   0.875 -0.0416  0.1777  0.1438
20958W        W63896  28.032  16.323  31.458 -0.1753 -0.0731  0.0989
20959W        W63897  27.132  13.623  31.223  0.3303  0.0703  0.4362
20960W        W63898  26.812  12.774   0.016 -0.3149  0.2251 -0.0754
20961W        W63899  28.516  11.889  29.821 -0.2238 -0.2479  0.3090
20962W        W63900  28.740  10.894   0.251 -0.0910 -0.1983  0.2441
20963W        W63901  28.914  14.712   1.172  0.0105 -0.1715  0.4425
20964W        W63902  28.498  15.904   0.752  0.0531 -0.1176 -0.1192
20965W        W63903  25.635  11.196   0.153 -0.2439 -0.3264  0.0033
20966W        W63904  28.921  13.308  31.893  0.0303 -0.1174 -0.2633
20967W        W63905  26.991  10.623  31.794 -0.1639 -0.0244 -0.2807
20968W        W63906  26.706  13.280   0.069  0.2421  0.0809 -0.0249
20969W        W63907  25.438  15.332  31.793 -0.2094  0.4063 -0.1149
20970W        W63908  24.989  13.678   0.062  0.2509  0.0792 -0.1237
20971W        W63909  28.929  15.068  31.014 -0.1368  0.1898  0.0943
20972W        W63910  24.339  12.154   0.013  0.0756 -0.2914 -0.0439
20973W        W63911  26.253  10.689  31.523 -0.1172 -0.0643  0.0018
20974W        W63912  27.838  11.547  31.280 -0.1864  0.2073 -0.2207
20975W        W63913  25.545  14.422   0.786  0.4424 -0.1799 -0.1876
20976W        W63914  27.011  10.397  31.350  0.1981  0.0542 -0.2232
20977W        W63915  29.346  12.027  31.704 -0.2405 -0.0008  0.0194
20978W        W63916  27.352  11.394  31.159  0.1504 -0.1516  0.2466
20979W        W63917  27.978  11.993  31.348  0.0971  0.5249  0.0650
20980W        W63918  27.473  12.267  31.428  0.0998  0.0893 -0.3881
20981W        W63919  25.896  14.691   1.009  0.0761 -0.1626  0.0947
20982W        W63920  26.697  12.377  31.162 -0.0033  0.1109  0.1187
20983W        W63921  27.022  13.132  31.504  0.0040 -0.2338  0.0127
20984W        W63922  28.247  15.583  31.313  0.0596  0.0596 -0.3687
20985W        W63923  27.047  11.877  30.306  0.0084  0.0991  0.1522
20986W        W63924  29.055  14.076   0.549  0.2237 -0.0551  0.0253
20987W        W63925  27.110  10.993  31.517  0.0023 -0.0373  0.2335
20988W        W63926  26.237  12.469  31.822 -0.1407  0.2695  0.1247
20989W        W63927  26.565  11.205  30.183 -0.2713 -0.1521  0.1035
20990W        W63928  26.987  13.076   1.381 -0.2041  0.0461 -0.3124
20991W        W63929  28.314  14.027  31.881 -0.1228  0.2070 -0.0021
20992W        W63930  29.942  13.788   0.284 -0.3588 -0.1807  0.2067
20993W        W63931  27.050  13.113   0.508  0.0181  0.0016 -0.0044
20994W        W63932  28.529  12.531  31.605  0.2785  0.1137 -0.1388
20995W        W63933  27.922  12.738   0.318 -0.2873 -0.3251  0.1680
20996W        W63934  25.614  11.016  30.160 -0.3477 -0.0901 -0.3855
20997W        W63935  27.038  14.825   0.699  0.3756 -0.0302  0.0749
20998W        W63936  28.193  11.315  30.962 -0.1500  0.1058  0.1294
20999W        W63937  27.079  10.969  30.512 -0.1550  0.1620 -0.0960
21000W        W63938  27.562  10.859  29.954  0.1680  0.1117  0.2340
21001W        W63939  27.650  13.654   0.162 -0.1934  0.0916 -0.0733
21002W        W63940  28.830  13.547   1.864 -0.1607 -0.2922 -0.0435
21003W        W63941  25.483  13.592   0.191 -0.3587  0.0296  0.0328
21004W        W63942  27.960  14.002   0.349  0.3069  0.0294  0.1604
21005W        W63943  29.420  10.678  31.160 -0.1106  0.3852 -0.2128
21006W        W63944  27.706  10.892   0.841  0.0242  0.0679 -0.0121
21007W        W63945  26.496  12.904  31.614  0.1291 -0.1245  0.2569
21008W        W63946  28.336  11.203   0.027 -0.1162 -0.1547  0.3755
21009W        W63947  27.182  13.153  31.974  0.0713 -0.1932  0.1511
21010W        W63948  30.275  14.575  31.684  0.0019  0.0256  0.2907
21011W        W63949  26.824  15.284   1.698  0.0749  0.0930  0.2143
21012W        W63950  28.252  15.140  31.466 -0.0701  0.1471 -0.1752
21013W        W63951  25.690  12.030   0.111 -0.2882  0.0883 -0.0433
21014W        W63952  27.356  10.829  31.124 -0.2398  0.1802  0.0924
21015W        W63953  26.221  12.524  31.141  0.0578 -0.3839 -0.1947
21016W        W63954  25.872  13.723  31.639  0.1576 -0.2114 -0.1336
21017W        W63955  23.392  11.588   0.097  0.2050  0.1007  0.1572
21018W        W63956  27.685  15.412  29.900 -0.0526 -0.3244  0.1788
21019W        W63957  29.179  12.541  31.005 -0.0700 -0.0261 -0.3802
21020W        W63958  30.871  13.898   0.000 -0.0795  0.0260  0.0311
21021W        W63959  26.428  18.463  19.512  0.0549  0.0772 -0.2224
21022W        W63960  26.490  15.485  16.186 -0.0853  0.3715  0.2424
21023W        W63961  27.759  16.545  16.802  0.2677  0.0666  0.2094
21024W        W63962  28.372  16.361  17.321  0.1073 -0.3715 -0.0528
21025W        W63963  26.991  15.301  17.464  0.0624 -0.0259 -0.0770
21026W        W63964  27.436  18.665  17.388  0.2367 -0.3513  0.0959
21027W        W63965  25.176  12.990  17.804  0.2515  0.0457  0.0144
21028W        W63966  27.712  17.894  18.640  0.2087  0.3768 -0.0469
21029W        W63967  28.712  17.021  18.573 -0.3092  0.1443 -0.0941
21030W        W63968  28.297  15.408  16.743  0.0532  0.0034  0.0556
21031W        W63969  26.422  15.882  18.064  0.0385  0.0854 -0.1363
21032W        W63970  26.814  18.909  19.280  0.0178 -0.2930 -0.0133
21033W        W63971  26.927  14.781  16.762 -0.0863 -0.3076 -0.1298
21034W        W63972  24.721  12.158  18.712  0.2248 -0.2899 -0.3683
21035W        W63973  27.899  14.940  19.088  0.1044 -0.0590  0.0338
21036W        W63974  25.890  15.591  16.699 -0.1324 -0.1322 -0.0184
21037W        W63975  25.648  14.218  18.191  0.4397  0.0752 -0.1151
21038W        W63976  26.822  14.784  17.703 -0.1661 -0.1956  0.1483
21039W        W63977  26.912  18.648  18.316 -0.0327 -0.0518 -0.0311
21040W        W63978  27.782  16.102  18.315  0.1153 -0.0570 -0.0614
21041W        W63979  27.950  15.446  18.988  0.2210 -0.2107  0.0351
21042W        W63980  27.445  17.556  17.029 -0.1926  0.0607  0.3553
21043W        W63981  24.163  16.037  16.249 -0.2782 -0.1118  0.0339
21044W        W63982  26.491  13.782  18.033 -0.1467 -0.0579 -0.1143
21045W        W63983  26.244  17.320  16.828 -0.0085  0.0062  0.1841
21046W        W63984  29.200  14.613  17.612 -0.0809  0.0398  0.2799
21047W        W63985  27.798  16.383  17.314  0.0354  0.3149  0.4082
21048W        W63986  27.205  16.172  17.062 -0.1281  0.2541  0.4122
21049W        W63987  26.414  18.783  18.284 -0.3209 -0.2679 -0.0463
21050W        W63988  28.088  16.563  19.544  0.2452  0.4094  0.0123
21051W        W63989  24.939  17.220  16.125 -0.0523  0.0471 -0.0881
21052W        W63990  25.354  18.626  17.524  0.1184  0.1228  0.0435
21053W        W63991  26.372  17.309  16.215 -0.1701 -0.3474 -0.2617
21054W        W63992  29.757  17.691  19.018  0.0967  0.0094  0.2901
21055W        W63993  26.652  17.571  19.716 -0.1140  0.0684 -0.1113
21056W        W63994  26.765  18.468  19.156  0.1858 -0.0144  0.0327
21057W        W63995  24.728  17.151  16.611 -0.0314 -0.3465  0.2285
21058W        W63996  27.148  17.695  19.759 -0.0147  0.0013  0.0990
21059W        W63997  26.356  17.919  17.822  0.0166  0.3737  0.3019
21060W        W63998  26.276  16.803  18.042 -0.1772 -0.0736  0.2461
21061W        W63999  27.245  15.395  18.679  0.1548  0.0393 -0.1820
21062W        W64000  26.722  17.233  16.567  0.1097  0.0079 -0.0390
21063W        W64001  27.229  16.965  17.904 -0.0653 -0.2440 -0.1901
21064W        W64002  26.182  16.952  19.415  0.1756 -0.0914 -0.1799
21065W        W64003  25.576  16.325  16.598 -0.0685  0.0483 -0.1032
21066W        W64004  28.642  14.855  19.591  0.0932  0.0168  0.1383
21067W        W64005  26.314  17.257  15.674  0.0844  0.3182  0.4113
21068W        W64006  29.325  15.059  17.451  0.0080 -0.3915 -0.2974
21069W        W64007  27.855  15.190  16.510 -0.0701 -0.1745 -0.1634
21070W        W64008  27.783  16.205  17.757  0.1116  0.0181  0.0676
21071W        W64009  26.976  14.036  17.770 -0.0754 -0.2238 -0.0446
21072W        W64010  26.710  18.111  17.465 -0.2359 -0.1671  0.3014
21073W        W64011  26.254  14.648  18.562  0.0522 -0.1662  0.0309
21074W        W64012  28.364  16.715  19.914  0.2386 -0.0674 -0.2767
21075W        W64013  25.571  16.317  17.858  0.0373  0.2216 -0.2688
21076W        W64014  27.826  15.657  16.682  0.0724  0.4657  0.2436
21077W        W64015  26.845  17.646  18.776  0.0482  0.2760 -0.0247
21078W        W64016  25.667  16.316  19.222 -0.0643 -0.3929  0.2101
21079W        W64017  29.978  17.846  17.610 -0.2355 -0.1042  0.0070
21080W        W64018  27.946  17.323  17.108  0.0122  0.1670  0.0175
21081W        W64019  26.854  16.814  16.752 -0.1329 -0.2031 -0.1141
21082W        W64020  25.110  14.835  17.806 -0.0446  0.3227 -0.1141
21083W        W64021  27.911  16.198  19.780  0.0241 -0.3500  0.0472
21084W        W64022  26.372  15.817  19.068  0.0423  0.0980 -0.0678
21085W        W64023  26.023  14.684  16.141 -0.1023  0.0512 -0.0189
21086W        W64024  27.443  16.327  19.004  0.0070  0.2433 -0.1739
21087W        W64025  24.875  18.054  18.673 -0.3607  0.0085  0.1485
21088W        W64026  29.879  15.295  17.798  0.2013  0.3289 -0.0748
21089W        W64027  28.036  17.942  17.881 -0.1687 -0.2614  0.3480
21090W        W64028  28.925  17.924  17.827 -0.1745  0.1976 -0.0051
21091W        W64029  27.909  17.515  16.580  0.1266 -0.0548 -0.0051
21092W        W64030  27.543  13.875  18.839 -0.3731  0.0689 -0.2403
21093W        W64031  28.113  14.019  18.655 -0.1966 -0.3430  0.0659
21094W        W64032  27.170  17.575  16.009  0.3392 -0.0938 -0.0320
21095W        W64033  26.802  15.305  18.467 -0.0301 -0.1714  0.1854
21096W        W64034  27.888  18.280  20.051 -0.3211 -0.1065  0.1167
21097W        W64035  29.159  17.449  16.350  0.3801  0.0853 -0.1728
21098W        W64036  24.912  17.777  16.165 -0.0397  0.3685 -0.1713
21099W        W64037  27.205  14.934  17.156  0.2047 -0.2756 -0.2205
21100W        W64038  29.033  16.449  17.927  0.2069 -0.1751  0.1898
21101W        W64039  26.120  18.586  16.537 -0.0229  0.5169  0.0463
21102W        W64040  25.293  18.448  17.021  0.0650 -0.3436  0.2630
21103W        W64041  24.434  17.041  17.009  0.1518 -0.0679  0.0964
21104W        W64042  26.828  15.470  18.910 -0.1634  0.0923 -0.0008
21105W        W64043  27.774  17.019  18.086 -0.1239  0.2433  0.0872
21106W        W64044  28.029  15.620  17.117  0.0594 -0.0936  0.1809
21107W        W64045  25.945  15.134  19.741  0.0251 -0.2094  0.0379
21108W        W64046  29.841  14.358  17.065 -0.2494  0.0687  0.0648
21109W        W64047  26.896  17.641  16.801 -0.0383  0.1404  0.0092
21110W        W64048  30.885  18.587  17.125  0.0319 -0.2581 -0.3669
21111W        W64049  28.955  15.031  17.841 -0.3156 -0.0311 -0.0444
21112W        W64050  26.859  18.084  15.801 -0.0703  0.0746  0.0007
21113W        W64051  25.602  16.561  18.642 -0.3583 -0.1615  0.3746
21114W        W64052  25.839  14.931  17.162 -0.2221 -0.0345 -0.2186
21115W        W64053  26.852  15.256  19.758  0.1447 -0.2463  0.0151
21116W        W64054  26.174  13.539  17.691  0.1853 -0.0122 -0.0522
21117W        W64055  27.759  15.156  18.646 -0.1669  0.1212 -0.0609
21118W        W64056  24.702  14.945  16.219  0.0775  0.0963 -0.3367
21119W        W64057  28.189  15.518  16.275 -0.3335  0.2912 -0.0198
21120W        W64058  26.324  16.489  17.265 -0.1942  0.1200 -0.1458
21121W        W64059  26.433  16.352  17.751  0.1049 -0.0499 -0.0529
21122W        W64060  28.335  15.174  19.281  0.1492 -0.1561 -0.0881
21123W        W64061  27.526  18.223  17.261 -0.0526 -0.0685  0.2127
21124W        W64062  29.550  17.714  19.537 -0.3209  0.0266  0.2733
21125W        W64063  27.945  18.745  17.411 -0.3232  0.0579 -0.1187
21126W        W64064  26.349  15.296  19.040 -0.0758 -0.1076 -0.0777
21127W        W64065  25.243  15.808  17.796 -0.2241  0.1903 -0.0746
21128W        W64066  26.593  17.779  16.279 -0.1582  0.2787 -0.1055
21129W        W64067  28.033  16.912  16.587 -0.0444 -0.0628  0.4535
21130W        W64068  26.468  14.910  15.843 -0.2945 -0.2369  0.3212
21131W        W64069  28.702  19.126  19.275  0.2015 -0.1265  0.0403
21132W        W64070  26.706  15.997  17.077 -0.0854  0.2111 -0.1643
21133W        W64071  26.833  17.139  18.940  0.0858 -0.0359 -0.1813
21134W        W64072  27.421  13.269  17.439  0.1582  0.3449 -0.1317
21135W        W64073  27.391  15.813  18.454 -0.0559 -0.3294  0.1149
21136W        W64074  28.210  16.080  18.665  0.5426  0.0539 -0.0191
21137W        W64075  25.917  14.179  15.956  0.2827  0.0722  0.1196
21138W        W64076  28.600  17.759  17.507  0.0833 -0.0572  0.0143
21139W        W64077  24.881  17.612  18.386 -0.3784  0.1313 -0.0398
21140W        W64078  25.430  15.823  16.421  0.0848  0.1215  0.2590
21141W        W64079  27.636  18.069  18.175 -0.2648  0.4265 -0.2165
21142W        W64080  29.983  16.512  18.206 -0.1971 -0.1565 -0.0411
21143W        W64081  25.620  16.056  18.397  0.0894 -0.2028  0.0450
21144W        W64082  27.279  15.822  19.989 -0.0104  0.3099 -0.0468
21145W        W64083  26.936  14.431  18.064 -0.0145 -0.0070  0.0045
21146W        W64084  25.127  18.446  18.490 -0.3024 -0.0304  0.0148
21147W        W64085  27.984  14.748  17.498 -0.2855 -0.1480  0.1664
21148W        W64086  28.195  16.162  16.061 -0.0302  0.2180  0.1379
21149W        W64087  27.181  17.639  20.729 -0.0495 -0.2287 -0.0809
21150W        W64088  28.979  17.405  17.300 -0.1336  0.2595  0.0831
21151W        W64089  27.346  15.290  15.732 -0.0934  0.0319 -0.0001
21152W        W64090  27.423  15.514  17.740 -0.0846  0.0481 -0.0585
21153W        W64091  26.658  17.198  17.078  0.0050  0.1118  0.3364
21154W        W64092  27.940  18.495  18.617 -0.1628  0.1594 -0.0811
21155W        W64093  27.751  15.911  18.848 -0.2347 -0.1385  0.0616
21156W        W64094  26.451  14.866  16.701 -0.4676  0.0108  0.4643
21157W        W64095  29.046  17.734  18.286 -0.0134  0.3815  0.0730
21158W        W64096  26.196  15.989  17.504 -0.3051 -0.1465 -0.0352
21159W        W64097  27.562  16.398  20.412  0.1832  0.1836  0.2043
21160W        W64098  28.409  18.605  17.429 -0.0309 -0.1702 -0.1953
21161W        W64099  26.090  14.842  19.253 -0.3759 -0.3196 -0.2177
21162W        W64100  26.023  14.541  16.722  0.2470  0.0982  0.3226
21163W        W64101  28.099  14.476  17.070  0.3018  0.1195 -0.1357
21164W        W64102  24.730  17.637  16.904 -0.3651 -0.2890 -0.0772
21165W        W64103  27.005  15.131  19.270 -0.5390  0.0416  0.0075
21166W        W64104  27.336  14.951  18.896  0.5246  0.1889 -0.3081
21167W        W64105  26.676  14.563  19.670 -0.4217  0.2514  0.0927
21168W        W64106  27.834  16.842  19.099 -0.0917  0.1962  0.1586
21169W        W64107  28.469  15.927  16.949 -0.3070  0.2705 -0.2338
21170W        W64108  28.177  15.981  17.431  0.2964 -0.0417  0.0035
21171W        W64109  25.361  15.041  15.560 -0.2477  0.4881  0.0790
21172W        W64110  26.940  15.642  19.426 -0.0008  0.2695 -0.2710
21173W        W64111  27.429  15.409  18.208 -0.1074 -0.1249 -0.2648
21174W        W64112  24.383  18.245  19.354  0.0853 -0.4071 -0.1207
21175W        W64113  27.290  16.754  18.806  0.1800  0.0190 -0.0651
21176W        W64114  29.199  16.945  17.534 -0.1013 -0.1189 -0.1000
21177W        W64115  28.236  13.623  19.081  0.2253  0.2381  0.1035
21178W        W64116  27.931  15.145  17.059 -0.0759  0.0517  0.1148
21179W        W64117  27.665  17.823  17.511 -0.1195 -0.0352  0.1502
21180W        W64118  27.667  17.402  16.168 -0.1851 -0.0903 -0.1119
21181W        W64119  26.552  14.280  17.603  0.0544  0.0773  0.1854
21182W        W64120  27.443  17.596  17.926  0.4506 -0.0570  0.0246
21183W        W64121  24.565  15.968  16.788 -0.1417 -0.2630  0.1802
21184W        W64122  26.767  16.500  18.756  0.1987  0.1739 -0.0945
21185W        W64123  25.995  16.461  16.906 -0.2643 -0.1929  0.0993
21186W        W64124  29.294  14.596  18.807  0.1274  0.0938  0.1359
21187W        W64125  25.584  17.390  17.323  0.1923 -0.1964  0.0995
21188W        W64126  24.867  14.814  15.738  0.0716  0.3881  0.1548
21189W        W64127  25.014  15.505  16.347 -0.0460 -0.1198  0.2423
21190W        W64128  28.351  15.464  17.847  0.1014 -0.1081  0.0234
21191W        W64129  27.845  17.900  17.003 -0.0127  0.1219  0.4537
21192W        W64130  26.529  15.613  17.359  0.0735 -0.1077 -0.3899
21193W        W64131  27.587  14.460  18.774  0.0424  0.4261  0.4314
21194W        W64132  26.945  17.748  17.805  0.0577 -0.2871 -0.0632
21195W        W64133  28.683  15.030  18.278 -0.2717  0.0568 -0.1328
21196W        W64134  28.874  15.000  17.129  0.0586  0.0475  0.3569
21197W        W64135  27.517  17.248  20.417 -0.1203  0.0166  0.1050
21198W        W64136  27.082  16.507  19.267  0.0602 -0.0314 -0.1794
21199W        W64137  26.061  14.176  17.150  0.1739  0.0828 -0.1446
21200W        W64138  27.507  15.341  19.085  0.1539  0.4146  0.3091
21201W        W64139  26.256  15.096  16.240 -0.1753  0.1735  0.1584
21202W        W64140  27.041  17.973  16.360 -0.2863 -0.1022 -0.1132
21203W        W64141  27.299  18.005  19.419 -0.0965  0.0281  0.0163
21204W        W64142  25.330  15.407  15.952  0.1463 -0.4457  0.1860
21205W        W64143  25.516  16.820  17.771 -0.3317  0.0015  0.2734
21206W        W64144  27.866  15.307  19.495  0.2710  0.0696 -0.0998
21207W        W64145  27.949  16.527  18.214  0.2000 -0.0017 -0.0781
21208W        W64146  27.477  15.220  16.856 -0.2685 -0.1839 -0.2428
21209W        W64147  26.485  15.393  18.023 -0.0590 -0.2571 -0.2674
21210W        W64148  26.112  15.957  17.018  0.1768 -0.0928 -0.0513
21211W        W64149  27.416  17.152  18.351  0.1736 -0.5083  0.1787
21212W        W64150  27.875  15.623  17.964  0.1454 -0.0199 -0.1951
21213W        W64151  26.507  15.556  19.444 -0.2783 -0.1242  0.1020
21214W        W64152  25.879  15.344  19.284  0.1495 -0.1731  0.0116
21215W        W64153  29.915  18.958  16.272  0.1564 -0.0964  0.3000
21216W        W64154  25.896  16.762  17.273  0.5816  0.0729  0.1181
21217W        W64155  26.523  16.327  16.765 -0.0162 -0.1979  0.0588
21218W        W64156  25.272  17.000  17.415 -0.1332 -0.1525 -0.2688
21219W        W64157  24.894  16.330  17.889 -0.2264 -0.0034 -0.1209
21220W        W64158  26.514  16.900  17.527  0.1994 -0.0465 -0.0008
21221W        W64159  25.420  19.080  18.475  0.1338 -0.2855 -0.1872
21222W        W64160  24.983  15.662  16.811  0.1860  0.0469  0.2574
21223W        W64161  25.100  18.529  18.030 -0.1821 -0.1773  0.0388
21224W        W64162  28.832  15.597  16.920 -0.2367  0.0675 -0.2289
21225W        W64163  26.010  16.926  16.471  0.1265  0.0461  0.0958
21226W        W64164  26.484  16.112  18.609 -0.2689 -0.0647 -0.0253
21227W        W64165  28.349  14.714  20.005 -0.2153  0.0503  0.0196
21228W        W64166  27.287  16.656  16.875  0.1302  0.0574 -0.0951
21229W        W64167  28.393  14.366  19.534  0.0992 -0.0805  0.3561
21230W        W64168  27.348  15.376  19.683 -0.0732 -0.0624 -0.0306
21231W        W64169  27.118  15.795  17.400  0.1506  0.2302  0.0263
21232W        W64170  24.992  14.649  18.955  0.2906  0.1482  0.0184
21233W        W64171  27.359  17.333  18.842 -0.2873  0.1457  0.4459
21234W        W64172  26.517  16.918  18.488 -0.2254 -0.1824 -0.1053
21235W        W64173  27.397  15.660  16.445 -0.3036 -0.1192 -0.0249
21236W        W64174  26.563  13.180  15.883  0.0665 -0.0134 -0.0075
21237W        W64175  26.926  15.636  17.859 -0.1422 -0.0314  0.0594
21238W        W64176  27.589  17.097  16.717 -0.0622 -0.5135  0.1183
21239W        W64177  27.025  16.316  16.611  0.3543  0.1648  0.0386
21240W        W64178  28.709  14.612  17.925  0.2749 -0.2422 -0.1105
21241W        W64179  25.782  17.073  16.954 -0.0527 -0.0918 -0.1691
21242W        W64180  28.719  16.736  17.525 -0.2232  0.0072 -0.1473
21243W        W64181  25.918  16.087  16.393 -0.1704  0.3144  0.0915
21244W        W64182  25.752  16.273  17.329 -0.0444 -0.1003  0.2339
21245W        W64183  26.839  14.475  20.318  0.1885  0.4148  0.0989
21246W        W64184  27.939  16.094  16.914  0.2945  0.0208  0.1150
21247W        W64185  29.119  15.992  17.753  0.2237  0.2391 -0.2575
21248W        W64186  26.857  16.671  17.777  0.0619  0.1708 -0.0261
21249W        W64187  27.366  14.885  18.375  0.1168  0.0559 -0.0847
21250W        W64188  29.178  14.949  19.653  0.7057 -0.1619  0.0587
21251W        W64189  25.988  15.590  18.836  0.2060  0.0700  0.1713
21252W        W64190  29.128  17.862  19.712  0.2593 -0.1112 -0.1501
21253W        W64191  28.053  15.715  15.836  0.0722 -0.1638  0.0429
21254W        W64192  30.030  15.500  19.546  0.1510 -0.4812  0.2678
21255W        W64193  29.466  17.320  17.195 -0.0150 -0.1218 -0.1480
21256W        W64194  27.310  16.384  17.507  0.1608  0.2279 -0.0121
21257W        W64195  27.660  18.338  17.736 -0.1918  0.3206  0.2540
21258W        W64196  28.284  16.753  20.451  0.1942  0.0532  0.1329
21259W        W64197  26.698  15.017  17.174  0.0419  0.1601 -0.2020
21260W        W64198  27.852  15.134  18.089 -0.0783  0.0670  0.0669
21261W        W64199  28.796  17.749  16.492  0.0501 -0.0499  0.3114
21262W        W64200  27.825  17.322  17.714 -0.1075  0.2085  0.0252
21263W        W64201  25.487  15.335  16.934  0.1328  0.2502  0.1884
21264W        W64202  26.771  18.089  19.569 -0.2554 -0.1365 -0.1071
21265W        W64203  26.231  17.880  19.515  0.3358  0.2612  0.0339
21266W        W64204  27.039  15.265  16.570 -0.1785  0.1265  0.0667
21267W        W64205  25.520  15.213  16.472  0.0451  0.0801 -0.2109
21268W        W64206  27.715  16.551  18.683 -0.2705  0.1576 -0.0948
21269W        W64207  28.435  14.991  17.699 -0.3195  0.3439  0.1315
21270W        W64208  27.656  14.678  17.150  0.1646  0.0883 -0.0623
21271W        W64209  27.914  15.630  18.462 -0.4299 -0.4318  0.1442
21272W        W64210  25.651  17.815  15.486  0.0086  0.2653  0.1309
21273W        W64211  27.486  15.920  17.969 -0.0464 -0.2156  0.0934
21274W        W64212  26.329  18.487  17.750  0.2394 -0.2226  0.2109
21275W        W64213  25.118  15.112  18.691 -0.2439  0.1450  0.3090
21276W        W64214  25.512  17.193  16.493  0.0193  0.5023 -0.1212
21277W        W64215  26.985  14.006  20.210 -0.0032 -0.1453 -0.0297
21278W        W64216  29.402  15.547  17.774 -0.0327  0.0368  0.2077
21279W        W64217  27.591  16.877  17.202 -0.3019 -0.0596 -0.1154
21280W        W64218  30.208  16.273  18.633  0.2442 -0.2045 -0.0285
21281W        W64219  28.248  15.160  18.698  0.2774  0.0533 -0.0726
21282W        W64220  24.812  16.497  18.325  0.0118  0.0224 -0.1318
21283W        W64221  28.325  17.505  17.900 -0.2410  0.1573 -0.2144
21284W        W64222  29.306  15.762  18.275  0.1875  0.1983 -0.2692
21285W        W64223  26.407  16.835  16.896 -0.4244 -0.0076 -0.1817
21286W        W64224  26.217  16.877  19.923 -0.1027 -0.1593  0.0319
21287W        W64225  27.638  14.940  19.867  0.1990 -0.0663  0.0360
21288W        W64226  28.219  16.015  16.542 -0.0201  0.2582  0.3000
21289W        W64227  26.103  14.341  17.994  0.0895 -0.4683  0.1351
21290W        W64228  26.818  17.148  16.014 -0.2710  0.2048 -0.0155
21291W        W64229  26.297  16.909  20.422 -0.0786 -0.0235  0.0718
21292W        W64230  26.651  16.736  19.210  0.3096 -0.0277 -0.1545
21293W        W64231  26.118  16.909  15.984 -0.0611 -0.1296  0.0242
21294W        W64232  28.925  17.305  16.734 -0.2359 -0.1413 -0.0406
21295W        W64233  28.080  17.003  16.092  0.3781  0.1049  0.2387
21296W        W64234  28.480  18.269  17.766  0.1021 -0.1339 -0.0439
21297W        W64235  27.558  15.427  17.263 -0.3503  0.0543 -0.0252
21298W        W64236  25.564  18.213  18.231 -0.0431  0.0187  0.2144
21299W        W64237  24.505  17.381  16.222 -0.1832 -0.0967 -0.2502
21300W        W64238  27.169  17.072  16.458  0.1838 -0.0163  0.0209
21301W        W64239  26.037  17.678  17.038  0.1638  0.3176  0.2078
21302W        W64240  28.538  17.348  19.057  0.1211  0.2582  0.2305
21303W        W64241  28.117  14.002  17.337  0.0428  0.0806 -0.1538
21304W        W64242  29.116  16.145  18.589  0.0308  0.2441  0.0727
21305W        W64243  28.409  15.306  15.742 -0.0728  0.1250  0.3479
21306W        W64244  27.696  18.478  21.106  0.3901  0.0971 -0.2675
21307W        W64245  25.599  15.930  16.963  0.3277  0.2762 -0.0813
21308W        W64246  27.442  15.154  16.283  0.3427  0.0179 -0.0594
21309W        W64247  27.782  15.922  20.146  0.0587  0.0187 -0.0388
21310W        W64248  27.909  14.977  21.845  0.0998  0.2255 -0.0146
21311W        W64249  25.988  18.752  19.304  0.0225 -0.2849 -0.0487
21312W        W64250  28.121  17.701  17.416 -0.0260  0.2448  0.0918
21313W        W64251  26.445  15.094  17.587  0.2010 -0.0374 -0.2785
21314W        W64252  26.869  16.507  17.176 -0.3690  0.0067  0.0844
21315W        W64253  28.484  14.585  17.423 -0.1631 -0.1778  0.2558
21316W        W64254  27.249  16.082  16.181  0.1303  0.1053 -0.0394
21317W        W64255  28.839  15.511  17.856  0.4505 -0.1782 -0.3416
21318W        W64256  27.308  17.996  16.805  0.2243  0.0365  0.0307
21319W        W64257  26.182  18.984  17.823 -0.4509  0.2194 -0.0022
21320W        W64258  25.944  19.043  18.335  0.4574 -0.0471 -0.2464
21321W        W64259  26.015  15.098  16.643  0.1177 -0.0874 -0.1731
21322W        W64260  29.835  14.682  17.532 -0.1652 -0.0174  0.0087
21323W        W64261  25.142  16.335  18.645 -0.3357  0.5663 -0.2105
21324W        W64262  28.904  14.832  19.151 -0.0327 -0.1458 -0.1640
21325W        W64263  26.939  15.776  16.480 -0.0727  0.1723 -0.0026
21326W        W64264  27.603  15.915  17.393 -0.4860 -0.0026  0.0254
21327W        W64265  26.947  16.174  19.610  0.1219  0.2114  0.1761
21328W        W64266  28.223  16.410  19.027  0.0035 -0.3509  0.1592
21329W        W64267  26.380  15.869  16.491  0.1479 -0.3145  0.0081
21330W        W64268  28.921  16.498  18.913  0.1359  0.1895 -0.1364
21331W        W64269  26.432  15.412  16.648  0.0813 -0.0273  0.0761
21332W        W64270  27.496  17.386  19.937  0.3188 -0.0248 -0.0370
21333W        W64271  27.270  14.536  17.598 -0.0171 -0.0906 -0.2529
21334W        W64272  28.259  16.046  18.006 -0.1126 -0.0356 -0.0917
21335W        W64273  26.190  17.272  18.261  0.3194 -0.0863  0.1715
21336W        W64274  27.791  14.550  18.372  0.0132 -0.0181 -0.0476
21337W        W64275  28.260  17.124  19.640 -0.1794 -0.2053 -0.1622
21338W        W64276  26.102  15.562  17.723  0.2496 -0.1054 -0.0639
21339W        W64277  27.366  17.510  16.551 -0.1442 -0.0490  0.0990
21340W        W64278  28.988  15.625  19.149 -0.2446 -0.1101 -0.2771
21341W        W64279  25.986  17.556  16.035 -0.0023  0.3810  0.0459
21342W        W64280  27.474  16.643  18.211  0.0624  0.1359  0.3371
21343W        W64281  28.335  17.042  17.564  0.1847  0.3108  0.0558
21344W        W64282  26.032  16.144  18.828  0.1682  0.1754  0.1406
21345W        W64283  28.978  16.644  18.395 -0.0307  0.1883  0.0052
21346W        W64284  30.037  18.099  19.012 -0.2000  0.1212  0.0929
21347W        W64285  28.269  14.575  16.045 -0.0162  0.1690  0.1859
21348W        W64286  26.100  15.397  17.139  0.2077  0.1687  0.1091
21349W        W64287  25.764  17.365  15.654 -0.2431  0.0797  0.0062
21350W        W64288  29.027  14.416  20.579 -0.0216 -0.0545  0.1558
21351W        W64289  29.241  15.169  19.172  0.2778 -0.0795  0.1546
21352W        W64290  25.882  16.354  15.941 -0.1310 -0.0265 -0.0268
21353W        W64291  27.498  13.663  20.397  0.0448  0.1127  0.3374
21354W        W64292  27.637  17.906  19.765 -0.1590  0.0085 -0.2297
21355W        W64293  26.220  17.384  20.483 -0.1282  0.0815 -0.1885
21356W        W64294  25.358  14.427  15.032 -0.0393 -0.0257 -0.0280
21357W        W64295  26.961  16.136  18.006 -0.1759 -0.0138 -0.1197
21358W        W64296  26.265  16.387  16.335  0.0324  0.1003  0.0547
21359W        W64297  26.719  18.833  16.635 -0.0208 -0.1609 -0.0921
21360W        W64298  27.636  16.689  17.719 -0.3658  0.1318  0.1395
21361W        W64299  26.795  16.113  17.519  0.0890  0.0689  0.1657
21362W        W64300  30.393  17.533  17.967  0.2003  0.2872  0.0779
21363W        W64301  25.788  16.746  18.178 -0.3945 -0.1354 -0.2235
21364W        W64302  29.581  15.227  16.182 -0.3690 -0.0857 -0.1170
21365W        W64303  29.224  13.406  16.190 -0.5263 -0.0043 -0.0630
21366W        W64304  23.888  18.930  18.358  0.1433  0.1111 -0.0024
21367W        W64305  25.457  14.669  16.582 -0.2054  0.3106 -0.3632
21368W        W64306  26.278  15.961  16.011 -0.0234 -0.1704  0.2116
21369W        W64307  27.129  17.200  16.964  0.1394 -0.1542  0.0856
21370W        W64308  26.880  14.909  18.207 -0.2344  0.1802 -0.0001
21371W        W64309  26.680  16.800  20.093 -0.1935  0.0051 -0.0980
21372W        W64310  26.537  17.663  17.134  0.0202  0.0792 -0.0443
21373W        W64311  26.584  14.652  19.176 -0.0913 -0.2421 -0.2377
21374W        W64312  28.760  18.845  17.064  0.2597 -0.1619 -0.0083
21375W        W64313  25.684  15.837  17.947  0.0332  0.1262  0.5299
21376W        W64314  24.594  15.041  18.595 -0.2140 -0.0926  0.1932
21377W        W64315  28.577  16.900  18.041  0.0471  0.0939  0.2006
21378W        W64316  28.786  18.676  17.769 -0.0700  0.0217 -0.1202
21379W        W64317  26.334  14.805  17.994  0.1160  0.2032  0.0342
21380W        W64318  29.673  18.895  19.431  0.0397  0.0559 -0.1103
21381W        W64319  24.088  15.972  16.983 -0.4277  0.0551  0.1011
21382W        W64320  28.369  14.108  19.057 -0.0271  0.1146  0.1966
21383W        W64321  27.111  15.914  18.876  0.1042  0.1242  0.2716
21384W        W64322  25.266  14.201  16.515  0.1461  0.2492  0.0216
21385W        W64323  25.557  15.284  18.614  0.0508 -0.2226  0.0772
21386W        W64324  28.621  18.216  18.645  0.0004 -0.3898 -0.0630
21387W        W64325  28.380  18.424  18.204  0.0367  0.1112  0.0230
21388W        W64326  27.236  17.696  18.381 -0.0774 -0.1868  0.1550
21389W        W64327  26.341  17.875  18.462  0.3411  0.3155  0.1271
21390W        W64328  26.257  13.729  19.627 -0.3880 -0.3124 -0.0514
21391W        W64329  28.465  17.057  16.903  0.0107  0.0571 -0.0628
21392W        W64330  26.061  16.611  20.960 -0.0268 -0.1523  0.1139
21393W        W64331  29.700  16.961  17.588  0.2136  0.0727 -0.1109
21394W        W64332  28.189  14.494  18.717 -0.1811  0.0384  0.0171
21395W        W64333  27.508  16.117  16.648  0.2131 -0.1172  0.1132
21396W        W64334  25.917  15.872  19.281  0.1526 -0.0959  0.0273
21397W        W64335  26.201  17.384  19.731 -0.0163  0.2287 -0.0235
21398W        W64336  27.416  15.747  16.958  0.2207  0.3780 -0.0963
21399W        W64337  26.154  13.927  16.670  0.0289  0.0640  0.2636
21400W        W64338  27.547  14.979  17.521 -0.1926 -0.0402  0.1457
21401W        W64339  28.379  18.063  17.163  0.1217 -0.0973  0.0806
21402W        W64340  26.647  16.399  18.226 -0.0408  0.0168 -0.0478
21403W        W64341  28.306  14.904  16.839 -0.0282 -0.1812 -0.1419
21404W        W64342  26.702  17.102  18.055  0.0422  0.1515 -0.0938
21405W        W64343  26.351  17.828  16.700 -0.3491 -0.0374 -0.0467
21406W        W64344  27.734  15.390  20.069  0.0394 -0.2027  0.2053
21407W        W64345  26.364  14.597  17.130 -0.2043  0.0906  0.1553
21408W        W64346  29.309  16.854  16.033  0.0397  0.1575 -0.0093
21409W        W64347  27.156  16.283  18.529  0.0956 -0.0785  0.1379
21410W        W64348  28.556  17.460  18.415  0.0033  0.0976 -0.2032
21411W        W64349  26.900  17.221  18.476 -0.1097 -0.3137  0.0936
21412W        W64350  29.686  15.703  19.965 -0.4279  0.3138 -0.1004
21413W        W64351  25.667  13.227  17.913  0.2471  0.2416 -0.2032
21414W        W64352  25.237  15.862  17.246  0.0035 -0.0530  0.2266
21415W        W64353  28.248  16.448  16.779  0.0761  0.2015 -0.0852
21416W        W64354  28.898  15.688  18.628  0.0892  0.0108  0.0091
21417W        W64355  24.356  14.805  19.623  0.1999  0.0456  0.2607
21418W        W64356  27.453  14.509  16.651  0.0551  0.0811 -0.2260
21419W        W64357  24.954  18.951  18.352 -0.1733  0.2860  0.0962
21420W        W64358  28.072  16.784  17.125  0.0565  0.3456  0.1486
21421W        W64359  26.887  17.451  23.512  0.1453 -0.0467 -0.3486
21422W        W64360  27.536  15.794  22.404  0.0858  0.0049  0.1718
21423W        W64361  27.519  14.757  19.393 -0.1447  0.0591  0.0404
21424W        W64362  29.645  16.322  20.579  0.1113  0.0183  0.0070
21425W        W64363  26.512  14.858  21.666 -0.2960 -0.2498  0.1683
21426W        W64364  28.735  18.411  21.363  0.2555  0.1104  0.1751
21427W        W64365  26.705  14.545  22.149  0.0909 -0.2269 -0.4426
21428W        W64366  29.004  18.075  22.320  0.0880  0.0299  0.0342
21429W        W64367  30.103  17.169  22.444  0.2114 -0.2549 -0.0620
21430W        W64368  27.768  15.740  19.685 -0.0657 -0.0305 -0.1865
21431W        W64369  27.222  16.258  23.731  0.0336 -0.1953 -0.1654
21432W        W64370  28.269  17.988  22.792 -0.2091  0.0461 -0.0155
21433W        W64371  27.994  14.981  20.235 -0.0149 -0.2740  0.3321
21434W        W64372  26.559  14.932  22.903  0.1084 -0.2051 -0.3327
21435W        W64373  29.233  16.203  23.005 -0.2781  0.0101 -0.1155
21436W        W64374  26.753  17.046  21.920  0.1166 -0.2809  0.2336
21437W        W64375  27.613  15.546  23.463 -0.0094 -0.4836 -0.1096
21438W        W64376  27.297  15.649  21.922 -0.3751  0.1135  0.1122
21439W        W64377  27.402  18.077  21.046 -0.2024 -0.0082  0.1118
21440W        W64378  29.683  16.537  23.246  0.2851 -0.0135 -0.0482
21441W        W64379  28.558  14.859  24.805  0.0499  0.0770  0.1147
21442W        W64380  27.402  17.754  20.254  0.0566  0.1063  0.0200
21443W        W64381  26.513  16.562  19.656  0.0942 -0.2042  0.0156
21444W        W64382  26.024  16.551  23.084 -0.0415  0.1240 -0.0637
21445W        W64383  27.831  16.135  22.678  0.0668 -0.0558  0.3582
21446W        W64384  28.969  15.501  21.899  0.3247 -0.2617  0.1379
21447W        W64385  28.119  16.801  20.922 -0.1482 -0.3514 -0.2469
21448W        W64386  26.246  18.967  23.075 -0.0543 -0.2065 -0.0946
21449W        W64387  28.236  19.108  21.610 -0.4509  0.0935 -0.4027
21450W        W64388  28.226  16.666  23.771  0.3763 -0.2287  0.1187
21451W        W64389  25.912  17.047  20.709  0.0277  0.0249 -0.2618
21452W        W64390  25.631  19.399  20.809 -0.2410  0.2009 -0.1807
21453W        W64391  26.903  18.265  20.918 -0.1174  0.3487  0.1400
21454W        W64392  27.006  17.236  19.899  0.0968 -0.0851 -0.1032
21455W        W64393  29.006  18.697  23.054 -0.2003 -0.0192 -0.1925
21456W        W64394  26.018  18.545  23.330 -0.1492  0.2120 -0.0386
21457W        W64395  26.466  17.185  20.912 -0.0992 -0.2499  0.2617
21458W        W64396  28.406  17.635  21.768  0.0669  0.1660  0.1243
21459W        W64397  27.252  17.061  24.565 -0.2024  0.1755  0.2028
21460W        W64398  28.640  16.048  20.823  0.1088  0.0221  0.3055
21461W        W64399  27.353  16.078  22.806 -0.1202 -0.0214  0.0069
21462W        W64400  25.705  17.281  18.171  0.2015 -0.0540  0.1012
21463W        W64401  27.074  17.578  21.472 -0.0475 -0.0123 -0.3486
21464W        W64402  27.659  18.479  22.063 -0.4834 -0.0977 -0.0828
21465W        W64403  25.859  18.082  21.924  0.2453  0.2244  0.3443
21466W        W64404  31.075  16.116  23.402 -0.0885  0.1537  0.3052
21467W        W64405  26.619  17.447  22.197 -0.1210 -0.2604  0.1601
21468W        W64406  28.774  16.888  20.636 -0.0235  0.0274 -0.2965
21469W        W64407  27.261  16.287  20.062 -0.2674  0.1996  0.0313
21470W        W64408  28.606  13.743  20.647 -0.0717  0.1796  0.3797
21471W        W64409  27.476  14.880  22.605 -0.0672  0.0562 -0.0497
21472W        W64410  26.826  17.892  22.162 -0.0714  0.0850  0.2720
21473W        W64411  27.931  15.135  23.489  0.3616  0.0394  0.1818
21474W        W64412  29.683  18.078  23.014  0.4689  0.0767  0.1190
21475W        W64413  27.414  16.455  21.376 -0.1483 -0.4550 -0.1987
21476W        W64414  28.692  17.236  21.732  0.0126 -0.1735 -0.1887
21477W        W64415  26.703  18.626  23.332  0.0320  0.3827  0.2431
21478W        W64416  26.921  15.708  21.611 -0.4209 -0.2779 -0.0525
21479W        W64417  26.805  18.052  20.476 -0.0435 -0.1496  0.1805
21480W        W64418  29.484  17.397  20.833 -0.1386  0.0826 -0.1513
21481W        W64419  27.599  17.162  20.873 -0.0137  0.1003  0.2860
21482W        W64420  26.533  15.402  21.674  0.0137 -0.1062  0.2482
21483W        W64421  25.229  18.158  23.412  0.2310  0.0271  0.0144
21484W        W64422  26.836  17.256  22.992 -0.4491  0.2287 -0.1633
21485W        W64423  26.765  14.352  20.866 -0.1087  0.3103  0.1101
21486W        W64424  29.389  15.519  23.562 -0.0588  0.2325  0.2419
21487W        W64425  27.426  17.908  23.278 -0.0147 -0.2013  0.0190
21488W        W64426  29.462  14.606  21.615 -0.0624  0.2539 -0.1422
21489W        W64427  28.886  16.391  21.379  0.0895  0.1309 -0.0058
21490W        W64428  29.519  17.549  22.991  0.3830  0.4047 -0.2450
21491W        W64429  29.747  16.981  19.563 -0.0680 -0.2043  0.0479
21492W        W64430  28.318  16.129  22.842  0.0062  0.1622 -0.0403
21493W        W64431  28.574  14.165  23.137  0.1440  0.0952 -0.1996
21494W        W64432  26.772  15.780  19.950  0.0989  0.3112 -0.2293
21495W        W64433  27.417  15.436  21.419  0.3078  0.1624 -0.2656
21496W        W64434  29.098  16.857  23.311  0.3711 -0.1630  0.0074
21497W        W64435  28.511  17.367  20.440 -0.0091 -0.2492 -0.0462
21498W        W64436  28.000  17.297  21.134 -0.0911 -0.0551 -0.0614
21499W        W64437  28.509  16.063  24.223 -0.0141 -0.2593  0.2807
21500W        W64438  29.339  18.188  23.803  0.1397 -0.0485  0.3191
21501W        W64439  25.956  18.652  20.925 -0.1827  0.0229  0.0764
21502W        W64440  26.069  17.921  22.912 -0.0495  0.0671 -0.0902
21503W        W64441  26.343  16.544  21.977  0.4070 -0.0412 -0.0575
21504W        W64442  26.561  15.055  22.101  0.1186 -0.0290 -0.1825
21505W        W64443  27.195  17.774  23.773 -0.3336  0.1075  0.3072
21506W        W64444  27.720  15.991  20.733 -0.0970  0.2606  0.0307
21507W        W64445  27.085  15.736  24.186 -0.3153 -0.0963 -0.0871
21508W        W64446  27.707  14.569  20.512 -0.1165  0.1374  0.0900
21509W        W64447  27.080  18.364  23.486  0.3326 -0.4139 -0.1568
21510W        W64448  28.941  18.844  21.200  0.2307 -0.2693  0.0272
21511W        W64449  29.205  15.900  19.983 -0.2721 -0.3338  0.1794
21512W        W64450  28.252  16.988  18.850  0.1095  0.0642 -0.0617
21513W        W64451  28.077  15.645  22.101 -0.4770  0.1940  0.0117
21514W        W64452  27.463  15.214  22.138  0.1912 -0.1235 -0.1422
21515W        W64453  26.543  17.002  23.806  0.0399 -0.2849 -0.0068
21516W        W64454  25.973  15.039  21.571 -0.1157 -0.1803 -0.3532
21517W        W64455  29.090  15.663  23.074  0.3020 -0.1589 -0.4137
21518W        W64456  25.637  15.427  21.259  0.4101  0.2941  0.0896
21519W        W64457  28.844  15.483  21.412  0.3382  0.0155  0.1299
21520W        W64458  27.687  15.470  20.982  0.0367  0.2046 -0.1172
21521W        W64459  26.399  17.381  21.394  0.0192  0.2289 -0.4704
21522W        W64460  28.756  14.393  23.991 -0.2072  0.1511  0.3579
21523W        W64461  28.425  17.639  19.909 -0.1009 -0.2781 -0.4393
21524W        W64462  29.810  17.673  25.270  0.0169 -0.1494 -0.0506
21525W        W64463  28.952  18.576  22.099  0.0183  0.4574  0.0604
21526W        W64464  28.055  16.547  21.814  0.1793  0.1568  0.0089
21527W        W64465  26.078  15.127  20.771 -0.1661  0.2993 -0.0689
21528W        W64466  25.461  18.419  22.595  0.0025  0.1379  0.1719
21529W        W64467  28.597  18.665  20.847  0.0561 -0.6425 -0.3090
21530W        W64468  27.519  15.998  21.255  0.1381  0.1866 -0.0151
21531W        W64469  29.134  16.887  21.613  0.1937 -0.3874  0.3510
21532W        W64470  27.628  16.014  21.938 -0.2357  0.1150  0.3786
21533W        W64471  27.231  17.265  22.521 -0.0006 -0.0377  0.0056
21534W        W64472  29.019  14.988  21.413  0.4732  0.1898  0.0820
21535W        W64473  30.088  15.987  23.025  0.0198  0.0153  0.0366
21536W        W64474  28.183  17.493  22.683  0.0585 -0.0583  0.0790
21537W        W64475  26.307  15.872  20.095 -0.1253 -0.0781 -0.0106
21538W        W64476  28.198  18.332  21.972 -0.2054 -0.0776  0.4417
21539W        W64477  26.025  17.806  19.077  0.0517  0.0316  0.2437
21540W        W64478  25.956  15.814  21.994 -0.0197 -0.0750  0.0084
21541W        W64479  26.947  18.122  21.782 -0.0902  0.0654  0.1452
21542W        W64480  29.144  14.311  22.395  0.1105 -0.1394  0.0134
21543W        W64481  26.395  18.407  23.623 -0.1796  0.0060  0.1110
21544W        W64482  28.733  16.863  23.660 -0.2226  0.4085 -0.0686
21545W        W64483  27.621  15.107  20.576  0.4042  0.1447  0.0568
21546W        W64484  25.261  16.847  24.114 -0.4357  0.2264  0.0719
21547W        W64485  28.765  15.011  23.224 -0.1994 -0.2870 -0.3762
21548W        W64486  28.218  15.031  20.764 -0.1401 -0.1247 -0.0295
21549W        W64487  28.624  16.392  23.799  0.1227  0.0296 -0.0971
21550W        W64488  30.061  17.315  19.306 -0.1818  0.5417  0.1669
21551W        W64489  27.686  14.388  19.781  0.0489  0.0314  0.0532
21552W        W64490  27.534  14.090  21.216 -0.0377  0.2615  0.3373
21553W        W64491  25.623  18.236  23.047 -0.1078 -0.0050  0.0949
21554W        W64492  28.782  17.779  20.571  0.0512 -0.0417  0.2801
21555W        W64493  27.643  16.635  22.816 -0.2752 -0.2051 -0.1089
21556W        W64494  27.072  15.869  20.412 -0.2289  0.1778  0.1245
21557W        W64495  29.204  16.383  20.347 -0.0447  0.3233 -0.2362
21558W        W64496  27.021  17.725  22.589  0.0487 -0.2274 -0.1530
21559W        W64497  29.449  16.392  23.730  0.0379 -0.1021  0.2669
21560W        W64498  27.713  17.649  20.823 -0.0335  0.0270  0.1347
21561W        W64499  27.214  15.623  23.172  0.0411  0.1103 -0.2581
21562W        W64500  26.615  17.059  19.647 -0.2890 -0.0929  0.0819
21563W        W64501  28.481  15.889  22.128 -0.1298  0.0539  0.4773
21564W        W64502  25.935  17.228  19.046 -0.0097  0.0476  0.2237
21565W        W64503  28.352  14.669  21.848  0.2053  0.1321 -0.1746
21566W        W64504  28.312  16.964  21.343 -0.1424  0.0048  0.3329
21567W        W64505  27.305  15.322  23.920 -0.1955 -0.1516  0.0520
21568W        W64506  28.981  17.371  21.318  0.0615  0.1198  0.0549
21569W        W64507  27.574  16.595  19.717  0.1860 -0.1228  0.0406
21570W        W64508  29.798  17.429  22.119  0.2297 -0.0579  0.0651
21571W        W64509  26.443  15.608  18.616 -0.5400 -0.2274  0.0051
21572W        W64510  27.716  14.853  24.040 -0.0606  0.1350  0.1019
21573W        W64511  27.836  16.776  23.235  0.2868 -0.3935  0.0878
21574W        W64512  26.112  18.546  22.835 -0.0734 -0.2525  0.0490
21575W        W64513  28.187  17.941  24.199  0.0583  0.2503 -0.2054
21576W        W64514  28.565  16.507  20.886 -0.1662 -0.2845 -0.0714
21577W        W64515  29.160  16.002  23.519  0.1507 -0.1474  0.1317
21578W        W64516  28.403  15.504  21.698 -0.0126 -0.2629  0.2356
21579W        W64517  27.076  17.072  19.437 -0.1054 -0.0389  0.1669
21580W        W64518  26.510  17.821  20.169 -0.0826 -0.0317  0.0480
21581W        W64519  28.054  15.424  23.120 -0.0440  0.0029 -0.0338
21582W        W64520  27.670  18.341  21.559  0.0696 -0.1163 -0.2096
21583W        W64521  26.656  18.333  20.045 -0.1318 -0.0835 -0.2457
21584W        W64522  29.404  16.720  22.162 -0.5224  0.1689 -0.0928
21585W        W64523  25.683  17.587  21.342  0.1271  0.0098  0.3067
21586W        W64524  27.892  14.470  21.706 -0.3402  0.1816 -0.0222
21587W        W64525  26.961  18.248  22.726  0.0892 -0.1117  0.1730
21588W        W64526  27.360  15.104  21.021  0.1872  0.0790 -0.0921
21589W        W64527  25.302  16.263  20.448  0.0645 -0.1083  0.0665
21590W        W64528  28.810  15.963  20.312 -0.0009 -0.3545 -0.1660
21591W        W64529  28.680  16.437  20.357 -0.2399  0.1271 -0.0977
21592W        W64530  28.598  15.501  23.035 -0.0524 -0.3254 -0.0991
21593W        W64531  27.549  14.614  22.051  0.0815  0.2282 -0.3932
21594W        W64532  26.463  18.225  22.610  0.1823 -0.2286  0.1969
21595W        W64533  28.096  17.193  21.740 -0.0736 -0.0805  0.1384
21596W        W64534  28.017  14.060  19.730  0.2086 -0.3008 -0.3484
21597W        W64535  28.752  18.078  22.763 -0.0133  0.0040 -0.2055
21598W        W64536  27.447  17.842  24.902  0.2328  0.0113  0.0248
21599W        W64537  26.406  17.408  19.278  0.2327 -0.3238  0.3492
21600W        W64538  29.374  16.337  22.418  0.2627 -0.1660  0.1572
21601W        W64539  27.752  15.426  21.790  0.4200 -0.2662  0.0832
21602W        W64540  25.420  17.459  22.467  0.0234 -0.1067  0.3359
21603W        W64541  29.135  17.381  23.369  0.1019  0.0627  0.1172
21604W        W64542  27.028  15.244  21.786  0.0740 -0.1814 -0.1340
21605W        W64543  26.651  18.277  21.378  0.1081 -0.1313  0.0084
21606W        W64544  27.322  15.294  24.457  0.1065 -0.3115 -0.0141
21607W        W64545  29.574  15.135  23.887  0.2451 -0.1492  0.2251
21608W        W64546  28.659  15.072  21.841 -0.0434  0.1176  0.0643
21609W        W64547  28.493  15.350  22.228 -0.0605 -0.0182  0.0226
21610W        W64548  28.056  16.307  20.619 -0.1352  0.2829 -0.1354
21611W        W64549  28.778  16.879  21.225 -0.2804 -0.3044  0.5022
21612W        W64550  28.397  15.642  22.603 -0.1235 -0.1326  0.1129
21613W        W64551  28.144  17.183  23.037 -0.1332 -0.2166 -0.1742
21614W        W64552  26.980  13.598  22.189  0.0801 -0.0640  0.0743
21615W        W64553  28.791  15.937  18.216 -0.2427 -0.3184  0.1398
21616W        W64554  27.983  17.712  21.387  0.1100  0.0064  0.1908
21617W        W64555  28.324  15.893  20.411 -0.0694  0.0456  0.0069
21618W        W64556  26.265  17.100  21.782  0.2615  0.1364  0.1344
21619W        W64557  26.309  17.870  22.316 -0.0340 -0.1455  0.0271
21620W        W64558  27.990  14.810  22.309 -0.0449  0.0251 -0.0938
21621W        W64559  28.059  18.739  23.755 -0.1088 -0.1463  0.0590
21622W        W64560  27.212  16.131  21.660  0.5156  0.0002  0.5964
21623W        W64561  27.318  18.288  24.106  0.1140  0.3030  0.3477
21624W        W64562  28.934  13.454  20.965 -0.1377 -0.1755 -0.2686
21625W        W64563  26.754  16.396  21.550  0.1355 -0.0389 -0.0262
21626W        W64564  28.570  15.607  20.718 -0.2476 -0.3650  0.1869
21627W        W64565  28.884  15.752  24.003  0.0108 -0.0629 -0.1139
21628W        W64566  27.275  15.786  20.888 -0.2529  0.2012  0.3631
21629W        W64567  29.145  15.932  24.410 -0.0541  0.3137  0.0560
21630W        W64568  26.367  14.493  23.065 -0.3012  0.0222 -0.1549
21631W        W64569  28.519  18.108  21.018  0.0791  0.1021  0.2430
21632W        W64570  26.363  16.031  23.602 -0.1508  0.0238 -0.1878
21633W        W64571  29.307  19.186  22.830 -0.1659  0.0212  0.2326
21634W        W64572  25.491  17.340  23.497  0.2566 -0.2944  0.1183
21635W        W64573  28.191  15.675  19.960 -0.1703 -0.1120  0.0497
21636W        W64574  27.117  14.682  21.173 -0.3813 -0.0370 -0.1422
21637W        W64575  28.317  16.903  22.053 -0.1509  0.2977 -0.1741
21638W        W64576  29.527  16.161  21.049  0.1172 -0.0249 -0.1520
21639W        W64577  27.251  16.285  20.823  0.1717  0.2594  0.4386
21640W        W64578  29.117  16.472  20.830  0.0742  0.0152  0.1321
21641W        W64579  26.867  15.436  22.224  0.3123  0.2940 -0.0775
21642W        W64580  28.488  17.504  21.277 -0.2171 -0.2156 -0.2046
21643W        W64581  27.899  16.592  20.105 -0.2176  0.3628  0.0473
21644W        W64582  27.181  18.537  21.852 -0.1421  0.0891  0.1420
21645W        W64583  27.468  16.064  23.350 -0.1524 -0.1813 -0.0777
21646W        W64584  28.349  17.833  22.296  0.1739 -0.0289  0.0566
21647W        W64585  28.085  16.046  21.057  0.2779  0.0287 -0.1147
21648W        W64586  28.858  16.513  22.356  0.1190  0.0314  0.2562
21649W        W64587  27.854  16.278  23.128  0.0874  0.1060 -0.0277
21650W        W64588  27.163  16.425  23.167 -0.1614 -0.1865  0.1729
21651W        W64589  26.924  14.768  23.719  0.1167 -0.0161  0.1581
21652W        W64590  28.905  17.703  23.078  0.2421 -0.0590  0.2865
21653W        W64591  28.594  17.152  20.027 -0.0892 -0.0844  0.2325
21654W        W64592  28.720  15.962  21.730 -0.0142  0.1875  0.1710
21655W        W64593  28.283  18.110  21.483 -0.0181  0.0812 -0.2183
21656W        W64594  28.847  17.052  19.444 -0.2150 -0.0317 -0.3421
21657W        W64595  26.561  16.202  22.985  0.0746 -0.0486  0.1246
21658W        W64596  29.511  16.147  21.940  0.0306 -0.3244  0.0120
21659W        W64597  27.726  14.161  22.057 -0.3494  0.1331 -0.0921
21660W        W64598  28.840  15.900  24.926  0.5232  0.1178  0.1791
21661W        W64599  25.844  16.627  19.722  0.1316  0.1020  0.1376
21662W        W64600  27.707  16.552  20.998  0.1516  0.0196  0.1451
21663W        W64601  28.922  14.604  21.809 -0.0603  0.0861  0.0278
21664W        W64602  26.907  15.834  22.762 -0.0397 -0.0805  0.4287
21665W        W64603  27.525  19.106  22.615 -0.0881 -0.1080 -0.0669
21666W        W64604  27.047  15.357  20.703  0.1820  0.1110 -0.0744
21667W        W64605  26.654  15.995  20.778  0.0669 -0.0217 -0.0454
21668W        W64606  28.027  17.219  20.614 -0.0172 -0.1201  0.0546
21669W        W64607  28.635  18.031  24.399  0.1842  0.2095 -0.2340
21670W        W64608  26.775  14.936  20.885 -0.4122 -0.3879 -0.1167
21671W        W64609  29.473  15.620  22.121  0.0542  0.0563 -0.0338
21672W        W64610  26.144  17.562  21.908  0.0208 -0.3441  0.1719
21673W        W64611  28.515  14.232  20.930  0.0089  0.1464 -0.2890
21674W        W64612  27.957  18.183  23.853 -0.0373 -0.1283  0.2862
21675W        W64613  26.374  16.922  23.339  0.4787  0.2173  0.1104
21676W        W64614  27.239  18.199  22.303  0.1341  0.1317 -0.4212
21677W        W64615  28.168  14.019  21.841  0.2963  0.1172 -0.2887
21678W        W64616  29.420  17.188  21.886 -0.1133 -0.3083 -0.1695
21679W        W64617  27.975  15.517  20.514  0.0528  0.1486  0.3755
21680W        W64618  28.365  16.264  23.312  0.2658 -0.1508 -0.1908
21681W        W64619  28.667  18.790  21.697  0.3238 -0.1667  0.1147
21682W        W64620  26.786  16.733  22.967 -0.1078  0.0658  0.1177
21683W        W64621  29.101  19.044  21.887 -0.2089 -0.1243 -0.1059
21684W        W64622  29.857  16.945  22.036  0.1033  0.0819  0.0574
21685W        W64623  27.545  17.877  21.495  0.1679  0.0378 -0.3904
21686W        W64624  26.616  15.581  23.611  0.1902  0.1915  0.0439
21687W        W64625  27.359  16.339  22.307 -0.0885 -0.2004  0.0792
21688W        W64626  27.745  16.986  22.022  0.4414  0.0435 -0.0729
21689W        W64627  27.295  14.698  20.199  0.0700  0.3650  0.0802
21690W        W64628  27.544  17.269  19.455  0.3989  0.0455 -0.1393
21691W        W64629  25.797  19.492  25.115 -0.2774 -0.0675 -0.0397
21692W        W64630  27.446  13.839  22.297 -0.0213 -0.0984 -0.0917
21693W        W64631  27.734  19.909  21.646 -0.1482  0.0048  0.0944
21694W        W64632  27.800  16.794  20.530  0.0840 -0.2586 -0.1509
21695W        W64633  27.308  16.955  21.314  0.1053 -0.3042  0.0633
21696W        W64634  29.806  19.305  22.732  0.0676 -0.2840 -0.7208
21697W        W64635  28.061  14.749  19.581  0.0505  0.1700 -0.2170
21698W        W64636  26.285  18.251  20.964 -0.1195 -0.0313  0.1709
21699W        W64637  26.267  16.652  18.971  0.2317  0.0908  0.0339
21700W        W64638  29.109  17.559  21.756 -0.1539  0.0214 -0.0736
21701W        W64639  27.011  16.622  21.190  0.1579 -0.0340  0.2200
21702W        W64640  27.858  17.600  23.131  0.3010 -0.3441  0.0028
21703W        W64641  29.556  16.729  20.257 -0.1569  0.2475  0.0199
21704W        W64642  28.562  16.359  22.039  0.2339  0.0477 -0.0477
21705W        W64643  28.554  14.810  22.301 -0.1206 -0.0102 -0.4751
21706W        W64644  28.628  16.748  24.145  0.1092 -0.1288 -0.2140
21707W        W64645  27.487  15.599  20.468  0.3703 -0.2383 -0.1985
21708W        W64646  26.733  15.375  20.236  0.2763  0.3809  0.3352
21709W        W64647  27.433  16.610  24.519  0.0098  0.2687  0.0992
21710W        W64648  28.374  15.386  23.488  0.5263 -0.1222 -0.1364
21711W        W64649  26.785  18.918  22.210  0.0266  0.2540 -0.2801
21712W        W64650  29.227  17.595  20.277  0.1591  0.1075 -0.0038
21713W        W64651  27.279  15.366  22.591  0.4983  0.0995  0.1677
21714W        W64652  27.887  16.267  21.416 -0.1430 -0.1794 -0.1277
21715W        W64653  28.660  14.238  21.524 -0.2261  0.1871  0.4429
21716W        W64654  26.688  16.720  20.728  0.2881  0.0666 -0.0749
21717W        W64655  29.356  16.283  21.458 -0.1291  0.1228  0.0130
21718W        W64656  27.603  19.393  21.652 -0.0156 -0.1526 -0.0546
21719W        W64657  27.025  17.475  21.939  0.2061  0.4257 -0.0288
21720W        W64658  27.391  17.651  22.216  0.2980 -0.0913  0.0248
21721W        W64659  26.489  15.747  22.062 -0.2806  0.0927  0.2934
21722W        W64660  29.457  15.272  20.747 -0.0486 -0.1937 -0.3451
21723W        W64661  27.815  16.609  22.347  0.1396  0.1421  0.0562
21724W        W64662  28.064  14.059  22.946  0.0813  0.2586 -0.1122
21725W        W64663  27.796  16.803  21.446  0.0207 -0.1740 -0.0962
21726W        W64664  29.040  15.925  21.099  0.0527  0.0070 -0.1617
21727W        W64665  28.759  16.075  22.596 -0.6545 -0.1728  0.0503
21728W        W64666  27.239  13.978  23.805  0.1873  0.0879 -0.0184
21729W        W64667  28.830  15.545  20.054  0.3115 -0.2944 -0.0733
21730W        W64668  30.212  16.388  22.680 -0.0396 -0.0152 -0.2968
21731W        W64669  27.226  15.202  20.126  0.1518 -0.2484 -0.1093
21732W        W64670  29.177  18.788  23.753  0.1156  0.0800  0.0362
21733W        W64671  26.144  14.780  22.010 -0.3744  0.1074 -0.0150
21734W        W64672  28.056  14.303  20.219 -0.0580 -0.0509  0.0775
21735W        W64673  26.339  16.852  21.322  0.4201  0.1749  0.0332
21736W        W64674  27.967  17.400  22.216 -0.0821 -0.0226 -0.3288
21737W        W64675  29.557  18.034  24.435 -0.0406  0.2577 -0.1124
21738W        W64676  26.411  15.807  22.656  0.0144  0.0467 -0.0503
21739W        W64677  28.158  18.441  20.547  0.1329 -0.2659  0.3026
21740W        W64678  29.940  16.394  21.302 -0.0739 -0.0652  0.0169
21741W        W64679  27.666  18.579  20.436  0.0604  0.1913  0.2050
21742W        W64680  28.470  15.812  21.282  0.2849 -0.5369 -0.4134
21743W        W64681  29.960  18.478  22.142 -0.0484 -0.2598 -0.1202
21744W        W64682  26.015  16.696  22.384  0.1332  0.0459 -0.0335
21745W        W64683  28.993  16.964  22.060 -0.3824 -0.0245 -0.1215
21746W        W64684  29.576  17.035  23.154  0.1784 -0.2172  0.2184
21747W        W64685  27.951  13.805  20.243 -0.1174 -0.0724 -0.3916
21748W        W64686  27.549  16.505  21.854 -0.1796  0.0101  0.0220
21749W        W64687  25.707  16.811  19.210 -0.0110  0.0974 -0.0651
21750W        W64688  29.873  14.086  22.434 -0.1559  0.2409  0.0450
21751W        W64689  27.989  15.875  23.424 -0.1573 -0.0194  0.0395
21752W        W64690  27.989  18.064  21.060 -0.2015 -0.0363  0.0373
21753W        W64691  29.222  15.464  24.589 -0.4005 -0.1840  0.0161
21754W        W64692  28.622  17.058  23.057 -0.1668  0.0794  0.0555
21755W        W64693  26.581  18.718  22.804 -0.1776 -0.0542  0.2092
21756W        W64694  26.858  15.820  18.393 -0.0289 -0.0438 -0.2519
21757W        W64695  26.986  17.919  23.091 -0.2056  0.2717  0.3707
21758W        W64696  26.581  17.745  21.691  0.4034  0.2674 -0.0262
21759W        W64697  27.766  19.893  21.161 -0.0206 -0.1549 -0.1731
21760W        W64698  29.845  18.169  20.310  0.0325  0.3058 -0.3338
21761W        W64699  27.044  15.888  22.265 -0.1573  0.0845 -0.0929
21762W        W64700  28.457  17.335  22.237 -0.0385  0.0266 -0.0474
21763W        W64701  27.932  15.292  22.481 -0.2523 -0.1228 -0.2899
21764W        W64702  28.995  14.459  19.602 -0.0568  0.2514  0.1780
21765W        W64703  28.021  13.711  21.166 -0.3149  0.3078  0.0511
21766W        W64704  27.189  16.776  22.660  0.0675  0.1467  0.0239
21767W        W64705  26.152  16.332  19.980 -0.0269 -0.0280  0.1012
21768W        W64706  25.382  16.708  19.609 -0.0389 -0.4103  0.3266
21769W        W64707  26.211  17.620  21.001  0.1967  0.0585 -0.1878
21770W        W64708  28.538  15.892  23.611  0.1524 -0.0427  0.0114
21771W        W64709  26.772  15.932  23.336 -0.2701 -0.0125 -0.2167
21772W        W64710  25.306  16.647  21.545 -0.1296 -0.1366 -0.1651
21773W        W64711  28.178  16.012  21.704 -0.2954 -0.1591 -0.1704
21774W        W64712  28.393  16.349  21.461 -0.1083  0.0742  0.0553
21775W        W64713  26.692  15.493  23.123  0.0334 -0.0383 -0.0484
21776W        W64714  25.980  15.581  22.532 -0.4740 -0.1584 -0.1989
21777W        W64715  27.261  16.825  20.695  0.2582 -0.1880 -0.2571
21778W        W64716  28.981  17.365  20.677 -0.0040  0.4502  0.3956
21779W        W64717  27.424  14.882  21.589  0.0049 -0.0752  0.0745
21780W        W64718  27.577  17.285  23.434 -0.1876  0.0463  0.6059
21781W        W64719  26.138  16.355  19.350 -0.1776 -0.2528 -0.2849
21782W        W64720  29.009  16.241  24.039  0.0863 -0.0093  0.1857
21783W        W64721  26.196  14.376  23.954  0.0686  0.3203  0.0178
21784W        W64722  25.749  15.871  20.209 -0.2288  0.1977 -0.3378
21785W        W64723  28.441  15.270  20.324 -0.1962  0.0834 -0.2042
21786W        W64724  27.045  16.699  19.753  0.0385 -0.1027 -0.1245
21787W        W64725  28.188  19.903  21.945  0.0986  0.0945  0.1629
21788W        W64726  27.272  16.872  22.165 -0.3932  0.1243  0.0808
21789W        W64727  26.944  17.965  24.167 -0.0417 -0.1464 -0.1352
21790W        W64728  26.759  14.491  22.712 -0.3533 -0.2009  0.3768
21791W        W64729  28.381  15.628  19.513  0.0270  0.0564  0.4357
21792W        W64730  27.923  17.524  23.994 -0.2251 -0.1961  0.3856
21793W        W64731  29.526  17.175  20.374 -0.2499 -0.5262 -0.0816
21794W        W64732  27.478  14.216  20.257 -0.2685  0.1046 -0.0965
21795W        W64733  28.876  16.693  19.921 -0.0322  0.0688  0.0751
21796W        W64734  26.089  14.916  23.302  0.1463 -0.0462 -0.0100
21797W        W64735  25.478  16.634  24.504 -0.2533 -0.1283 -0.1008
21798W        W64736  29.728  15.932  21.476  0.1550 -0.3166  0.0505
21799W        W64737  27.116  14.850  22.076  0.0708 -0.1479  0.0688
21800W        W64738  28.340  15.202  19.859  0.0423 -0.2570 -0.1971
21801W        W64739  27.016  17.177  20.920 -0.1263 -0.2586  0.1059
21802W        W64740  25.841  16.378  22.037  0.1512  0.0147  0.2629
21803W        W64741  27.137  14.894  19.660 -0.0473 -0.0148  0.0228
21804W        W64742  28.659  16.715  21.694  0.1362 -0.1528  0.0407
21805W        W64743  27.512  18.042  21.929 -0.1661 -0.0275  0.2035
21806W        W64744  29.068  17.344  23.974  0.1029  0.0193  0.2509
21807W        W64745  27.005  16.552  20.357 -0.2152 -0.0045 -0.2989
21808W        W64746  28.846  15.889  19.621  0.2014  0.1046  0.2122
21809W        W64747  27.546  18.712  23.885  0.3235  0.0420 -0.1344
21810W        W64748  30.316  19.580  24.304 -0.3088 -0.1092  0.0187
21811W        W64749  27.546  19.012  23.136  0.1483 -0.3060  0.1163
21812W        W64750  29.060  16.022  22.165  0.2566  0.3524 -0.0148
21813W        W64751  27.206  14.802  24.236  0.1291  0.1834 -0.1424
21814W        W64752  26.977  16.070  21.215 -0.0503 -0.0827  0.0899
21815W        W64753  27.101  16.770  21.719  0.2260 -0.0514  0.0265
21816W        W64754  28.920  15.548  22.380 -0.0551 -0.2387 -0.0397
21817W        W64755  27.351  14.353  21.576 -0.3856  0.1696  0.0502
21818W        W64756  28.166  14.003  20.652 -0.0937  0.0715  0.0014
21819W        W64757  27.752  19.551  22.504 -0.1840  0.2788  0.1555
21820W        W64758  28.204  16.620  22.914  0.0005 -0.0183 -0.0509
21821W        W64759  27.016  19.501  25.613 -0.3306  0.0799  0.3244
21822W        W64760  27.096  14.715  25.945 -0.0908 -0.2943  0.0260
21823W        W64761  29.014  17.836  25.381  0.0181  0.0816  0.0811
21824W        W64762  28.469  16.993  24.725 -0.0208 -0.1406 -0.1233
21825W        W64763  26.787  15.647  26.104 -0.0426  0.0618 -0.3884
21826W        W64764  27.865  17.276  25.256 -0.1020  0.0108 -0.3418
21827W        W64765  27.173  16.469  25.308  0.0672 -0.0750  0.1687
21828W        W64766  28.268  17.321  27.953  0.1874 -0.2154 -0.2035
21829W        W64767  29.575  18.022  26.789  0.2696  0.1003 -0.2748
21830W        W64768  27.765  15.340  24.118 -0.1824 -0.3111  0.0223
21831W        W64769  28.068  15.822  27.051 -0.1635 -0.1816 -0.1570
21832W        W64770  25.952  19.589  25.625 -0.1518 -0.1914  0.1010
21833W        W64771  28.087  14.522  24.084 -0.2276  0.0288  0.1271
21834W        W64772  28.280  15.844  24.745  0.0179  0.2285  0.0175
21835W        W64773  27.879  17.770  26.473 -0.2254  0.0302 -0.0418
21836W        W64774  25.667  16.941  26.166 -0.0024  0.1291  0.0940
21837W        W64775  25.663  14.364  26.219  0.0798  0.0773  0.1185
21838W        W64776  26.331  14.278  24.588 -0.2226  0.1774  0.0615
21839W        W64777  27.941  18.768  24.322  0.0703  0.3987 -0.0211
21840W        W64778  27.001  16.873  28.367  0.0313 -0.2132  0.0099
21841W        W64779  28.421  15.777  27.362  0.4546 -0.1375 -0.0314
21842W        W64780  27.747  17.743  25.326 -0.1529  0.0414 -0.0338
21843W        W64781  25.840  17.602  23.736 -0.0064  0.0645  0.0724
21844W        W64782  25.226  16.160  25.751  0.1332  0.2008  0.1254
21845W        W64783  28.221  18.190  26.452 -0.0761  0.0007 -0.0854
21846W        W64784  28.856  15.336  25.694 -0.2150 -0.2216 -0.0134
21847W        W64785  28.822  16.656  25.588 -0.3304 -0.0280 -0.4636
21848W        W64786  28.270  18.536  25.128 -0.1116  0.3850 -0.0994
21849W        W64787  29.176  18.535  25.193  0.0734  0.1048 -0.1509
21850W        W64788  27.247  16.789  26.500 -0.0589  0.0983 -0.0705
21851W        W64789  25.896  17.661  25.632  0.0650 -0.0826 -0.0175
21852W        W64790  24.901  18.447  25.205 -0.2372  0.1504  0.1221
21853W        W64791  27.294  18.735  24.948  0.0583  0.0350  0.0339
21854W        W64792  28.997  18.228  24.156  0.1241 -0.0503 -0.3737
21855W        W64793  27.871  19.131  25.500  0.1745 -0.1659  0.3437
21856W        W64794  27.353  18.319  28.831 -0.1913  0.2921  0.1234
21857W        W64795  25.671  17.834  23.308 -0.0149  0.0745 -0.0300
21858W        W64796  27.234  18.714  27.138  0.1741 -0.2287 -0.3465
21859W        W64797  27.976  19.117  26.611 -0.0632  0.2839  0.0186
21860W        W64798  26.931  16.761  25.993 -0.2474  0.0159  0.0467
21861W        W64799  28.151  16.249  25.147  0.3463  0.1452 -0.1714
21862W        W64800  27.006  18.103  24.637 -0.0904 -0.3281  0.0779
21863W        W64801  28.370  17.075  25.240  0.2017  0.2584  0.1057
21864W        W64802  26.357  16.697  26.706  0.1350  0.2404  0.2774
21865W        W64803  26.132  18.866  25.301 -0.0416 -0.1622 -0.0140
21866W        W64804  30.271  16.269  28.987  0.1761 -0.2480  0.2144
21867W        W64805  25.667  17.264  25.122 -0.2077 -0.1162  0.0226
21868W        W64806  28.308  16.844  23.366  0.1306 -0.0325 -0.0916
21869W        W64807  27.639  14.938  24.589 -0.0014  0.3126 -0.3105
21870W        W64808  28.398  15.817  26.117 -0.3592  0.0418 -0.1918
21871W        W64809  27.946  15.564  25.929  0.0929 -0.0348  0.2433
21872W        W64810  27.476  17.751  26.120  0.1609  0.0207  0.1447
21873W        W64811  28.959  15.560  27.140  0.1357  0.0067  0.0741
21874W        W64812  27.976  17.693  27.268  0.0706  0.0792  0.1007
21875W        W64813  27.322  16.980  23.046 -0.1951 -0.0740  0.1669
21876W        W64814  27.834  16.383  26.394 -0.0897 -0.2856  0.1891
21877W        W64815  27.120  17.093  25.629  0.0056 -0.0964 -0.2181
21878W        W64816  26.757  15.293  25.043 -0.1187  0.0870  0.1699
21879W        W64817  29.497  19.576  24.239 -0.1042 -0.0858  0.1636
21880W        W64818  29.270  17.391  25.142  0.3035 -0.0664 -0.0847
21881W        W64819  28.330  18.467  24.129 -0.0564  0.0702  0.2602
21882W        W64820  27.017  16.748  24.863 -0.0937 -0.0315  0.0392
21883W        W64821  27.853  16.810  26.779  0.2468 -0.1335 -0.2556
21884W        W64822  26.578  16.984  27.974  0.2019 -0.0563 -0.2798
21885W        W64823  28.143  15.026  24.285 -0.1605 -0.0854  0.2978
21886W        W64824  28.599  18.697  28.217  0.0550  0.1594  0.1256
21887W        W64825  26.092  17.878  26.110  0.0844  0.0898  0.0805
21888W        W64826  28.763  14.183  25.605 -0.0335  0.1227  0.2513
21889W        W64827  27.051  17.242  24.951 -0.0454 -0.0610 -0.0482
21890W        W64828  27.530  19.438  25.793  0.0860 -0.0252  0.1922
21891W        W64829  27.320  18.526  23.041 -0.0380  0.2478 -0.0379
21892W        W64830  28.208  15.198  24.934  0.1085  0.2158  0.2473
21893W        W64831  29.102  15.320  26.147  0.0298 -0.0959 -0.1320
21894W        W64832  27.761  17.057  22.605  0.1085  0.0450  0.0562
21895W        W64833  26.215  17.131  25.067  0.0823  0.2627  0.1179
21896W        W64834  28.584  18.678  27.240  0.0222 -0.1257 -0.1355
21897W        W64835  28.402  17.983  26.847  0.0175  0.2482  0.1578
21898W        W64836  27.613  17.443  25.755  0.1496  0.1163  0.1262
21899W        W64837  26.400  16.482  28.106  0.3230  0.0377 -0.4602
21900W        W64838  27.376  17.860  26.631  0.1577 -0.1935  0.1063
21901W        W64839  25.702  18.697  23.684 -0.0175  0.3414  0.0311
21902W        W64840  24.810  18.036  26.228 -0.1036  0.1776  0.0225
21903W        W64841  27.038  17.200  24.087  0.3108 -0.0728 -0.0123
21904W        W64842  25.664  15.041  27.037 -0.2785  0.0229 -0.2278
21905W        W64843  25.484  18.452  26.934  0.0449  0.1672  0.0051
21906W        W64844  28.778  15.501  26.536 -0.1588 -0.2792  0.0252
21907W        W64845  25.352  14.705  27.847  0.3833  0.2033 -0.1138
21908W        W64846  29.803  13.419  24.194  0.3523  0.3610 -0.0768
21909W        W64847  26.606  18.271  25.997  0.2123  0.2893  0.0467
21910W        W64848  27.100  18.140  25.987 -0.2113  0.1008  0.1593
21911W        W64849  29.954  17.134  25.319  0.0976 -0.2685  0.0822
21912W        W64850  29.268  17.962  22.744  0.0298  0.4041 -0.2131
21913W        W64851  27.159  15.978  27.604  0.2950 -0.2002 -0.0851
21914W        W64852  26.390  14.169  25.094  0.1834  0.0980  0.0098
21915W        W64853  26.281  15.212  26.442 -0.0716  0.1545  0.1792
21916W        W64854  27.874  15.483  24.719  0.0286 -0.0824 -0.0973
21917W        W64855  28.559  17.148  25.695 -0.1575  0.1484 -0.1635
21918W        W64856  27.459  14.932  23.650  0.0592  0.1592  0.0015
21919W        W64857  29.188  16.584  25.083  0.0175  0.1386  0.3833
21920W        W64858  27.969  16.863  24.797  0.1512 -0.1055 -0.1891
21921W        W64859  24.074  16.364  23.738  0.3613 -0.2395 -0.0817
21922W        W64860  29.621  16.376  26.479 -0.1283 -0.4259 -0.1385
21923W        W64861  28.429  19.008  24.264 -0.0622  0.1743 -0.0626
21924W        W64862  29.185  18.482  28.159  0.0285  0.0639  0.0519
21925W        W64863  28.735  16.281  26.120 -0.0286 -0.1182  0.1850
21926W        W64864  27.548  16.871  25.601 -0.0864  0.0483  0.1173
21927W        W64865  26.438  14.774  24.664 -0.0255 -0.0408  0.0920
21928W        W64866  26.220  19.946  25.301  0.1963  0.2159 -0.0073
21929W        W64867  26.607  18.021  24.931  0.1032 -0.0132  0.1154
21930W        W64868  25.922  16.913  24.788 -0.0806  0.0821 -0.1852
21931W        W64869  29.412  17.461  27.490 -0.0399 -0.3621  0.0685
21932W        W64870  27.714  16.413  23.657 -0.2487  0.0776  0.2928
21933W        W64871  26.227  16.395  25.462 -0.2574  0.0238 -0.2824
21934W        W64872  28.879  15.055  27.411  0.0511  0.3523 -0.2049
21935W        W64873  29.793  16.743  26.777  0.2190 -0.1099  0.2867
21936W        W64874  29.572  16.939  25.716 -0.1912  0.0406  0.0837
21937W        W64875  26.628  14.985  25.433  0.0250 -0.0561  0.0030
21938W        W64876  28.663  17.624  24.043 -0.1344  0.2044  0.3257
21939W        W64877  27.775  18.597  24.846 -0.0400 -0.0928  0.1184
21940W        W64878  26.252  15.876  25.292  0.3172  0.1763  0.3497
21941W        W64879  28.333  17.239  26.135 -0.3018 -0.1635  0.2407
21942W        W64880  29.657  14.089  26.066  0.1622 -0.1015 -0.2483
21943W        W64881  26.058  17.480  27.419 -0.2822 -0.0716 -0.0779
21944W        W64882  26.752  16.907  25.245  0.3452  0.1533  0.0384
21945W        W64883  24.797  16.655  24.262  0.0304  0.1313  0.0498
21946W        W64884  25.860  18.516  27.315  0.1024 -0.0067  0.0535
21947W        W64885  28.565  15.301  24.517  0.2794 -0.1651  0.0526
21948W        W64886  29.443  14.472  25.263  0.1406 -0.0225 -0.2751
21949W        W64887  28.349  16.870  27.007  0.0873  0.1576  0.1752
21950W        W64888  29.522  16.268  24.361 -0.1350  0.0270  0.0855
21951W        W64889  29.600  15.784  24.576 -0.0691 -0.1251  0.1201
21952W        W64890  29.778  16.477  26.013  0.2142  0.0738 -0.1348
21953W        W64891  26.087  17.006  27.080 -0.0401  0.1230  0.0739
21954W        W64892  27.646  18.186  24.520 -0.2897  0.2291  0.0784
21955W        W64893  28.529  17.941  25.049  0.3714 -0.1014 -0.3122
21956W        W64894  27.576  15.787  24.518 -0.1586  0.0115  0.0571
21957W        W64895  29.067  17.719  24.421  0.1927  0.3120  0.3520
21958W        W64896  26.489  17.306  26.278  0.0977  0.1298 -0.0984
21959W        W64897  27.268  17.592  27.586 -0.0636  0.1590  0.0602
21960W        W64898  28.993  17.614  25.806  0.1511 -0.0101  0.1759
21961W        W64899  28.216  16.580  25.680  0.1689 -0.0684  0.1196
21962W        W64900  25.991  16.069  23.949  0.1048 -0.2850 -0.0928
21963W        W64901  27.761  15.931  25.025  0.0017  0.3186  0.0362
21964W        W64902  25.691  18.168  23.674  0.1164 -0.2217 -0.0610
21965W        W64903  28.456  14.945  27.012  0.2185 -0.1978 -0.1872
21966W        W64904  28.441  15.531  26.901  0.2932 -0.1404  0.3619
21967W        W64905  27.221  14.367  27.331  0.4228 -0.1294 -0.3051
21968W        W64906  28.555  17.073  27.404 -0.1380 -0.0371 -0.1640
21969W        W64907  27.822  17.668  24.459 -0.3164 -0.2203  0.1929
21970W        W64908  28.697  17.434  25.304  0.5906  0.3271 -0.1117
21971W        W64909  27.888  16.526  24.152  0.2988  0.0969 -0.2934
21972W        W64910  26.461  17.246  26.835 -0.1462  0.0090 -0.1260
21973W        W64911  25.151  13.461  27.520 -0.2702 -0.0353  0.1084
21974W        W64912  26.345  17.908  27.602  0.1605 -0.0244 -0.2719
21975W        W64913  26.108  17.123  26.488  0.1105  0.0341  0.2502
21976W        W64914  27.579  16.962  26.095 -0.2241  0.2803  0.1411
21977W        W64915  27.295  16.489  27.444 -0.1899  0.0944  0.0901
21978W        W64916  29.723  16.632  24.097  0.0378 -0.1019  0.1026
21979W        W64917  28.195  17.554  24.922  0.0837  0.3286  0.0114
21980W        W64918  28.264  16.969  22.597  0.1704  0.1891  0.0840
21981W        W64919  27.623  15.145  25.534  0.0846 -0.3629  0.0557
21982W        W64920  26.969  18.170  26.476 -0.1883  0.3822  0.2324
21983W        W64921  26.965  18.541  24.351  0.0340  0.0894  0.0196
21984W        W64922  26.782  16.899  27.017 -0.1646  0.2460  0.1703
21985W        W64923  28.285  17.480  24.421  0.3744  0.0039  0.0602
21986W        W64924  29.569  14.903  26.054 -0.2432 -0.0024  0.1044
21987W        W64925  27.462  18.004  25.662  0.1200  0.2892  0.0509
21988W        W64926  27.116  14.977  24.896  0.0972 -0.1687 -0.0231
21989W        W64927  26.441  14.490  25.535  0.3767 -0.0786  0.3820
21990W        W64928  27.865  14.579  26.184  0.1315  0.1842  0.0134
21991W        W64929  29.132  15.015  25.044  0.3347  0.0869  0.0850
21992W        W64930  26.946  15.231  26.964 -0.1443  0.1607 -0.0485
21993W        W64931  27.269  15.127  27.922  0.0633  0.2917  0.2308
21994W        W64932  25.715  18.139  25.763 -0.0664 -0.0624  0.2886
21995W        W64933  28.591  17.386  26.986 -0.0020 -0.3218 -0.0815
21996W        W64934  28.726  15.954  23.092 -0.0888  0.0885 -0.0222
21997W        W64935  26.519  17.739  25.964  0.0358  0.1126  0.3594
21998W        W64936  26.315  15.864  26.292 -0.0484  0.0123  0.0439
21999W        W64937  25.645  15.806  23.685 -0.0747  0.1777  0.3317
22000W        W64938  28.081  16.838  26.198  0.0200  0.0799  0.0911
22001W        W64939  27.107  15.525  25.456  0.1810 -0.1051  0.2165
22002W        W64940  25.282  17.925  23.909 -0.3345 -0.1574 -0.4374
22003W        W64941  27.798  18.823  25.903  0.0915  0.3274  0.0714
22004W        W64942  26.980  16.727  23.861 -0.0748  0.1398  0.2240
22005W        W64943  28.146  17.297  23.535  0.2432 -0.3859  0.0701
22006W        W64944  26.356  16.507  27.175  0.1672  0.1589 -0.0030
22007W        W64945  27.518  18.465  26.770  0.0171 -0.0975  0.2437
22008W        W64946  27.900  16.300  24.715  0.3799  0.0734 -0.0113
22009W        W64947  27.566  15.026  26.104 -0.0018 -0.0196  0.0697
22010W        W64948  27.708  17.098  24.334  0.4286  0.1710 -0.2219
22011W        W64949  27.513  17.896  27.296  0.0472  0.0262  0.1693
22012W        W64950  27.440  15.679  26.254 -0.1092 -0.4611  0.0427
22013W        W64951  25.970  18.358  27.969  0.0221  0.3359  0.0196
22014W        W64952  27.757  14.165  26.638  0.0202  0.0863 -0.0374
22015W        W64953  29.559  18.110  25.954  0.0015 -0.0741 -0.0370
22016W        W64954  26.645  18.312  26.819 -0.0224 -0.2840 -0.0156
22017W        W64955  26.592  17.477  24.970 -0.0670  0.5902  0.0474
22018W        W64956  26.794  16.316  26.107 -0.1020  0.3204 -0.0942
22019W        W64957  28.130  16.130  23.824  0.1627  0.0773  0.1361
22020W        W64958  27.958  16.778  25.312 -0.1952  0.1118  0.1568
22021W        W64959  27.005  17.622  25.736  0.2654 -0.0015 -0.0350
22022W        W64960  26.497  17.557  24.474  0.0619 -0.1743  0.0113
22023W        W64961  25.603  16.985  26.742  0.2234 -0.0258  0.1744
22024W        W64962  29.983  14.848  25.522  0.0867  0.1616 -0.2056
22025W        W64963  27.415  17.823  24.269 -0.0627  0.2958  0.2890
22026W        W64964  27.361  16.210  24.823  0.3352  0.0312  0.2930
22027W        W64965  30.168  15.711  27.578 -0.3258 -0.0551  0.1106
22028W        W64966  28.958  17.815  23.568  0.1076 -0.2292 -0.0251
22029W        W64967  27.714  14.790  28.032 -0.2523 -0.0833  0.1926
22030W        W64968  28.585  15.820  27.978 -0.1733 -0.0800 -0.3036
22031W        W64969  29.420  18.083  25.236  0.1771 -0.3381  0.0788
22032W        W64970  24.970  15.659  26.173 -0.3714 -0.1727  0.0527
22033W        W64971  27.108  18.225  26.963 -0.0681  0.0914  0.0602
22034W        W64972  27.018  16.258  29.213 -0.2039 -0.1550  0.0931
22035W        W64973  27.859  13.827  25.716 -0.1019  0.0042 -0.1889
22036W        W64974  28.079  15.602  23.828 -0.0935 -0.1066 -0.2581
22037W        W64975  26.913  17.360  26.659 -0.5171 -0.0307 -0.2704
22038W        W64976  28.912  17.529  27.307 -0.1495 -0.1020  0.2760
22039W        W64977  28.562  18.144  23.841  0.1101 -0.2028  0.2254
22040W        W64978  29.279  16.589  25.724  0.1201 -0.1485  0.0878
22041W        W64979  25.178  17.408  25.571 -0.1898 -0.0046 -0.3160
22042W        W64980  28.515  16.103  25.697  0.0734 -0.2790 -0.1936
22043W        W64981  26.760  17.948  23.582  0.1632  0.0354 -0.4129
22044W        W64982  27.493  18.253  25.113 -0.2514  0.3067 -0.2191
22045W        W64983  25.875  16.036  27.131 -0.0538 -0.1004  0.1541
22046W        W64984  28.713  16.352  25.194 -0.1756  0.0368 -0.2868
22047W        W64985  27.640  15.605  25.365 -0.1012 -0.0762 -0.0581
22048W        W64986  27.113  15.005  25.398 -0.1900 -0.2438 -0.1235
22049W        W64987  27.847  17.379  26.143 -0.0269 -0.0581 -0.1894
22050W        W64988  28.106  16.077  27.485 -0.0280  0.1887  0.1450
22051W        W64989  26.841  16.273  27.164 -0.1607  0.1293 -0.1309
22052W        W64990  28.990  17.887  26.780 -0.0268  0.0118 -0.1694
22053W        W64991  27.752  17.812  23.576  0.1755 -0.0626  0.1291
22054W        W64992  29.515  15.438  26.846  0.0664  0.0194 -0.1677
22055W        W64993  28.690  13.924  24.865  0.1208 -0.5241 -0.2911
22056W        W64994  27.945  17.813  25.886 -0.2710 -0.1033  0.1743
22057W        W64995  26.967  14.510  25.537 -0.1090  0.2277 -0.0909
22058W        W64996  28.739  16.301  29.327 -0.0914 -0.0129 -0.1327
22059W        W64997  26.927  13.550  24.772 -0.0035  0.1207  0.1483
22060W        W64998  27.679  16.668  27.791 -0.0746  0.0068 -0.0238
22061W        W64999  27.612  20.115  23.741 -0.0967 -0.0626  0.1226
22062W        W65000  26.960  17.692  26.290  0.1445  0.0014  0.0464
22063W        W65001  29.471  15.664  25.577  0.0016 -0.1390 -0.1308
22064W        W65002  27.341  16.004  25.373 -0.0371  0.0924  0.2165
22065W        W65003  26.828  17.870  27.937  0.1178  0.2694 -0.0022
22066W        W65004  26.989  16.320  24.224 -0.1798  0.1695 -0.1803
22067W        W65005  27.488  16.226  24.173 -0.0141  0.2829 -0.2045
22068W        W65006  27.278  18.956  26.040  0.0499  0.0498 -0.0462
22069W        W65007  26.577  17.412  27.746 -0.5027  0.1594  0.0774
22070W        W65008  28.638  15.476  25.012  0.2635  0.2458 -0.2099
22071W        W65009  28.225  16.593  27.417 -0.1167 -0.2057 -0.0020
22072W        W65010  25.964  18.374  26.219  0.1173 -0.1126  0.0748
22073W        W65011  28.068  15.311  25.376  0.1637  0.1646 -0.3326
22074W        W65012  26.186  18.115  25.606 -0.0975 -0.2326  0.1743
22075W        W65013  25.587  15.897  27.768  0.0203  0.1802  0.1386
22076W        W65014  27.570  19.141  25.072  0.0648  0.0085 -0.1451
22077W        W65015  29.135  15.590  28.017 -0.0669  0.2853  0.2164
22078W        W65016  28.470  15.904  25.257 -0.0614 -0.2213 -0.0244
22079W        W65017  27.392  17.417  25.300 -0.1035 -0.0992  0.1481
22080W        W65018  29.341  15.857  27.595  0.0899  0.2828  0.3132
22081W        W65019  28.603  17.653  26.525  0.0681 -0.1982 -0.0122
22082W        W65020  26.525  16.522  25.073 -0.0152 -0.4806  0.0937
22083W        W65021  27.005  17.937  27.374  0.0490  0.0563  0.0504
22084W        W65022  28.745  17.242  24.360  0.1138 -0.0720 -0.3179
22085W        W65023  26.673  17.237  25.847  0.1946 -0.1250 -0.2995
22086W        W65024  26.438  16.799  26.148  0.2297  0.1129  0.1886
22087W        W65025  28.460  17.535  27.508 -0.0516 -0.3248 -0.0793
22088W        W65026  29.571  17.742  24.841  0.1206 -0.0982 -0.3523
22089W        W65027  27.604  15.044  25.062  0.0769  0.0656  0.0155
22090W        W65028  28.223  17.762  23.617  0.1012  0.2172  0.0218
22091W        W65029  25.559  17.100  27.253 -0.1178 -0.3665  0.2711
22092W        W65030  26.109  15.911  25.793  0.2173  0.1323 -0.1573
22093W        W65031  26.968  18.980  24.068  0.3331  0.1415  0.2326
22094W        W65032  28.393  17.653  23.137  0.0314  0.0908  0.0051
22095W        W65033  28.720  18.748  23.939 -0.1590 -0.0239  0.0566
22096W        W65034  27.648  18.196  26.078  0.0985  0.1107  0.0903
22097W        W65035  28.195  15.536  24.294 -0.2351  0.1132 -0.3009
22098W        W65036  26.980  18.679  26.695 -0.2075  0.1890 -0.1093
22099W        W65037  26.648  17.549  24.001 -0.1051  0.0274  0.1364
22100W        W65038  29.005  19.241  24.018 -0.4384 -0.1172  0.0194
22101W        W65039  28.736  18.552  24.428  0.0610  0.0454 -0.3765
22102W        W65040  28.779  18.148  27.172 -0.1965  0.1156 -0.5063
22103W        W65041  27.879  13.774  24.777  0.1186  0.0789 -0.2788
22104W        W65042  29.636  17.256  24.883 -0.1029  0.3710 -0.0241
22105W        W65043  30.010  15.740  25.643 -0.2247  0.0317  0.1445
22106W        W65044  28.463  18.733  26.470  0.2587  0.1168 -0.0270
22107W        W65045  27.122  15.883  25.846 -0.1209  0.4090  0.1219
22108W        W65046  27.452  16.910  25.093  0.0846  0.0243  0.0470
22109W        W65047  27.197  17.581  27.046  0.2422  0.1960  0.1297
22110W        W65048  30.040  15.197  28.222 -0.2599 -0.1054  0.2314
22111W        W65049  25.709  17.450  26.456  0.1529 -0.5524 -0.0457
22112W        W65050  28.985  17.875  24.877 -0.2464 -0.0192  0.0707
22113W        W65051  26.138  14.927  25.498 -0.1114 -0.0839  0.2781
22114W        W65052  27.434  16.816  23.533 -0.0445  0.3579  0.0103
22115W        W65053  29.703  14.467  26.397 -0.0453  0.0062 -0.0627
22116W        W65054  28.857  17.003  22.528 -0.1534 -0.0787  0.0914
22117W        W65055  28.621  17.091  26.596 -0.1508 -0.0657 -0.2521
22118W        W65056  28.710  18.386  24.900  0.4330 -0.1433  0.0330
22119W        W65057  26.830  18.659  26.206 -0.1842  0.0342  0.1812
22120W        W65058  25.914  18.102  26.786  0.4799  0.0732  0.1502
22121W        W65059  26.828  15.174  24.480  0.0567  0.0895  0.1439
22122W        W65060  30.764  14.844  26.460  0.0261 -0.0587 -0.1676
22123W        W65061  26.119  14.628  27.349 -0.1852 -0.1270 -0.0123
22124W        W65062  28.271  14.803  27.509 -0.0983  0.0174 -0.1057
22125W        W65063  26.999  17.736  25.211  0.0441  0.2162 -0.2848
22126W        W65064  28.436  15.542  25.647  0.0798 -0.0541  0.0069
22127W        W65065  27.785  18.030  26.918 -0.3202  0.1901 -0.2196
22128W        W65066  26.078  14.820  26.846  0.4140  0.0306  0.2317
22129W        W65067  27.964  15.987  24.279 -0.0556  0.1088 -0.1155
22130W        W65068  29.432  16.310  27.414  0.1613  0.2082 -0.2612
22131W        W65069  28.868  16.331  24.554 -0.0857 -0.0634 -0.2766
22132W        W65070  28.474  19.103  27.415 -0.1419  0.2744  0.0563
22133W        W65071  27.688  16.309  25.436  0.0644 -0.0385  0.1814
22134W        W65072  29.724  16.380  25.512 -0.2513 -0.1615 -0.0969
22135W        W65073  26.527  16.895  24.727 -0.0274  0.2564 -0.0053
22136W        W65074  27.066  17.210  26.173  0.2622  0.0015 -0.3153
22137W        W65075  27.816  17.563  28.255 -0.0128  0.0141 -0.0769
22138W        W65076  28.854  16.993  25.109 -0.4176  0.2937  0.0721
22139W        W65077  29.688  17.492  24.414  0.0327  0.3736  0.0940
22140W        W65078  27.902  16.313  26.863 -0.0302 -0.0819 -0.2622
22141W        W65079  27.091  19.318  23.518 -0.1606  0.2007 -0.1149
22142W        W65080  29.888  17.053  24.482 -0.0800  0.1585 -0.1841
22143W        W65081  29.041  18.202  25.773  0.0748 -0.3608  0.1228
22144W        W65082  26.548  14.825  27.292  0.1224 -0.0561  0.2280
22145W        W65083  28.268  18.854  26.913  0.1610 -0.1795  0.0568
22146W        W65084  30.998  16.109  25.163  0.1850 -0.1894  0.0982
22147W        W65085  27.838  14.314  24.890 -0.3527 -0.0978 -0.0567
22148W        W65086  27.007  15.675  24.657 -0.0216  0.0401  0.2060
22149W        W65087  26.346  18.335  25.175  0.0802  0.1173  0.0156
22150W        W65088  29.559  13.620  26.218  0.0065  0.0059 -0.1835
22151W        W65089  27.350  16.554  26.991  0.2828 -0.0721  0.1387
22152W        W65090  27.394  19.168  23.904 -0.2602 -0.5001 -0.2982
22153W        W65091  29.682  15.154  27.731  0.2308 -0.1340 -0.1216
22154W        W65092  28.023  18.603  27.426  0.1034  0.1533  0.0860
22155W        W65093  26.355  17.219  28.434 -0.0554 -0.2452 -0.1134
22156W        W65094  26.775  16.021  23.841 -0.1933 -0.0319 -0.1169
22157W        W65095  27.348  15.355  25.883  0.0960  0.3069  0.1674
22158W        W65096  27.477  17.355  23.886  0.0050 -0.0849 -0.0777
22159W        W65097  28.234  17.537  25.511 -0.2477  0.2695 -0.0608
22160W        W65098  30.126  16.605  26.383  0.0555 -0.2740 -0.2921
22161W        W65099  28.415  16.511  24.749  0.3749 -0.1633  0.1755
22162W        W65100  30.486  16.910  26.146  0.0474 -0.1244  0.2138
22163W        W65101  27.202  16.050  26.858 -0.1230 -0.4623 -0.0371
22164W        W65102  29.800  15.340  24.270 -0.3037  0.2007  0.3054
22165W        W65103  29.240  16.166  24.840  0.1293  0.1110 -0.1717
22166W        W65104  26.754  18.299  27.659 -0.3111  0.0061  0.1704
22167W        W65105  26.326  15.178  24.357  0.1435  0.4038 -0.0906
22168W        W65106  27.970  17.970  24.834 -0.0643 -0.2344 -0.2419
22169W        W65107  27.638  17.370  24.844 -0.0806  0.0510 -0.2991
22170W        W65108  26.310  14.912  28.851  0.1327  0.0380  0.4571
22171W        W65109  26.805  16.426  26.664 -0.1486  0.0370  0.0515
22172W        W65110  27.322  16.518  25.850 -0.1175 -0.0589  0.0522
22173W        W65111  25.886  15.906  24.912  0.0872 -0.0355 -0.0373
22174W        W65112  28.057  18.162  23.345  0.1181  0.1302  0.1433
22175W        W65113  26.226  13.109  27.887  0.0898 -0.1318  0.3632
22176W        W65114  26.860  16.253  24.677  0.1068  0.2052  0.1813
22177W        W65115  26.497  18.560  25.607 -0.1857  0.0543 -0.0464
22178W        W65116  29.898  18.324  25.268 -0.1081  0.3896  0.2272
22179W        W65117  27.476  16.777  24.052 -0.1493  0.2347  0.5521
22180W        W65118  28.401  18.679  29.202  0.3088  0.0087  0.0286
22181W        W65119  26.079  17.500  24.170  0.0535 -0.0098 -0.0924
22182W        W65120  28.756  17.481  27.894  0.4957 -0.2363  0.0288
22183W        W65121  28.233  16.278  26.104  0.0333  0.2005  0.1175
22184W        W65122  25.735  15.425  24.689  0.1099  0.3158  0.1675
22185W        W65123  27.785  16.500  25.932 -0.3577 -0.1554  0.1104
22186W        W65124  27.638  18.681  25.378 -0.1945 -0.1408 -0.2925
22187W        W65125  28.656  17.421  22.725  0.0185 -0.0553  0.1646
22188W        W65126  26.776  18.655  27.250  0.2445  0.2275 -0.1898
22189W        W65127  26.892  19.178  26.460 -0.1225  0.0870  0.1671
22190W        W65128  25.826  15.603  26.140 -0.1547 -0.2005 -0.2636
22191W        W65129  28.188  16.948  24.322 -0.1221  0.1599 -0.0434
22192W        W65130  26.618  17.676  28.427 -0.0553  0.1144  0.5003
22193W        W65131  28.743  16.609  22.833 -0.1295  0.0683 -0.2674
22194W        W65132  28.938  15.738  25.392  0.0783 -0.0360 -0.0105
22195W        W65133  27.901  16.990  23.884 -0.0818  0.0229 -0.1217
22196W        W65134  26.746  14.949  26.350  0.1112 -0.0440  0.0566
22197W        W65135  27.292  17.060  26.942  0.2423 -0.1586 -0.1010
22198W        W65136  30.224  16.206  25.706 -0.0494 -0.2763  0.2137
22199W        W65137  26.837  14.409  26.498  0.3359  0.1502  0.3712
22200W        W65138  28.075  15.873  25.577  0.0507  0.0249  0.0570
22201W        W65139  29.667  18.373  24.822 -0.0562  0.1434 -0.2596
22202W        W65140  25.915  15.795  26.672  0.3041  0.1869  0.3701
22203W        W65141  27.362  16.234  26.399 -0.1285  0.1280  0.1858
22204W        W65142  25.453  16.722  25.564  0.3791 -0.1488 -0.2496
22205W        W65143  28.256  18.642  25.634 -0.1463  0.4288 -0.1336
22206W        W65144  27.962  17.099  27.139 -0.1408 -0.0522  0.1146
22207W        W65145  26.060  17.111  23.853  0.1692 -0.2977  0.1027
22208W        W65146  29.713  15.954  25.204  0.0789  0.1967 -0.1760
22209W        W65147  28.418  19.123  25.670  0.3307 -0.0022 -0.0614
22210W        W65148  29.045  19.009  28.217  0.0339 -0.1993  0.1014
22211W        W65149  27.214  18.554  27.612 -0.2304 -0.3256 -0.4634
22212W        W65150  30.636  15.797  25.499  0.0081 -0.1421 -0.0712
22213W        W65151  26.504  15.514  26.779 -0.1200 -0.0602 -0.2580
22214W        W65152  27.651  15.927  23.815  0.1587 -0.1678  0.2082
22215W        W65153  25.616  19.372  24.210  0.1819  0.1432 -0.0019
22216W        W65154  28.599  15.152  26.094 -0.2655 -0.2155  0.3410
22217W        W65155  27.616  15.945  25.811  0.0546 -0.0672  0.0162
22218W        W65156  28.303  13.632  24.210 -0.1874 -0.1685 -0.0631
22219W        W65157  27.342  19.930  26.507  0.2812  0.3406 -0.1114
22220W        W65158  28.496  16.478  26.541 -0.1746  0.0537  0.0124
22221W        W65159  25.758  17.055  29.305 -0.1771  0.0072 -0.1384
22222W        W65160  26.635  15.734  27.667 -0.2326  0.3256  0.0011
22223W        W65161  29.235  16.444  26.192  0.1068  0.2429 -0.0498
22224W        W65162  27.839  17.248  28.665  0.0149 -0.0183  0.0219
22225W        W65163  26.569  15.983  28.316  0.0783 -0.1525  0.1836
22226W        W65164  28.338  18.803  27.829 -0.1247 -0.0534 -0.4369
22227W        W65165  27.293  15.601  30.252  0.0027 -0.1384 -0.3560
22228W        W65166  27.712  17.307  30.137  0.0011 -0.1812  0.2818
22229W        W65167  28.470  19.337  30.479 -0.0200  0.0181  0.0234
22230W        W65168  26.841  17.335  28.220 -0.2450 -0.2679 -0.0221
22231W        W65169  27.463  16.383  29.588  0.4013  0.2481  0.1340
22232W        W65170  26.860  17.803  30.236  0.1734 -0.0416 -0.0547
22233W        W65171  27.015  14.641  28.150  0.3570 -0.2591 -0.0521
22234W        W65172  24.417  15.739  29.540  0.5065 -0.2434 -0.0614
22235W        W65173  28.146  17.128  30.818 -0.2895 -0.2602 -0.3078
22236W        W65174  25.645  17.653  28.747  0.0901 -0.4231  0.0791
22237W        W65175  26.885  15.037  29.329 -0.0467  0.0807  0.1373
22238W        W65176  26.267  15.838  29.773 -0.0082  0.2468  0.2013
22239W        W65177  28.595  18.347  30.302 -0.0876  0.2910  0.5306
22240W        W65178  28.545  15.436  30.810  0.0192  0.2405  0.0302
22241W        W65179  26.791  14.371  31.342 -0.3676  0.2544  0.0680
22242W        W65180  26.439  17.830  28.911  0.1232 -0.2263 -0.3028
22243W        W65181  27.046  15.439  27.461  0.1359 -0.1429 -0.2031
22244W        W65182  26.208  16.823  29.387 -0.2155 -0.1891 -0.4811
22245W        W65183  27.558  16.176  30.082  0.1966 -0.1364 -0.0363
22246W        W65184  27.582  14.863  29.081  0.2898  0.1672  0.1455
22247W        W65185  28.281  16.172  30.511  0.0446 -0.0617 -0.1190
22248W        W65186  27.946  17.692  29.868  0.2301 -0.2165 -0.1046
22249W        W65187  28.519  16.989  29.900  0.1561  0.1839 -0.4087
22250W        W65188  27.589  16.408  31.605  0.3440  0.1645 -0.0531
22251W        W65189  26.225  17.012  28.884  0.1312  0.2529 -0.0755
22252W        W65190  25.046  16.888  28.602  0.1444  0.0268 -0.0303
22253W        W65191  27.390  17.266  28.405  0.1719 -0.3358 -0.0035
22254W        W65192  28.181  18.299  27.922 -0.1314  0.1522 -0.0739
22255W        W65193  28.419  17.395  31.123 -0.0856 -0.1978 -0.3376
22256W        W65194  28.045  20.087  31.688 -0.0412  0.1568 -0.1027
22257W        W65195  25.573  16.914  27.974  0.3692  0.1421  0.1382
22258W        W65196  26.919  18.696   0.056  0.1226 -0.0675  0.0201
22259W        W65197  25.686  16.457  30.924  0.3360 -0.0078 -0.3264
22260W        W65198  26.307  17.734  31.868  0.2383 -0.1753  0.5461
22261W        W65199  27.562  16.973  29.553 -0.2063  0.2551 -0.1865
22262W        W65200  26.907  18.477  28.117  0.2270  0.1188  0.2233
22263W        W65201  27.198  16.392  30.291 -0.0660  0.0390 -0.1812
22264W        W65202  26.053  18.281  31.590 -0.1793  0.1285  0.1349
22265W        W65203  25.857  16.871  29.753  0.1916  0.3769 -0.0541
22266W        W65204  29.449  16.245  31.806 -0.0917 -0.0296 -0.1779
22267W        W65205  25.644  18.692  27.728 -0.0290 -0.1577 -0.1093
22268W        W65206  29.722  16.199  27.015  0.1729 -0.0654  0.1749
22269W        W65207  27.786  16.837  28.322 -0.2207  0.3445 -0.0351
22270W        W65208  26.496  16.685  28.605 -0.2826 -0.1302  0.3113
22271W        W65209  28.131  16.291  30.940 -0.0379  0.0321 -0.0591
22272W        W65210  26.081  18.796  29.905 -0.1523  0.1804 -0.0370
22273W        W65211  27.720  16.711  30.849 -0.1355  0.1298 -0.1062
22274W        W65212  29.014  16.829  30.083  0.2152 -0.1713 -0.4058
22275W        W65213  27.297  15.676  28.751  0.3460 -0.0741  0.0120
22276W        W65214  26.751  17.582  29.811 -0.0914  0.1113 -0.1512
22277W        W65215  26.437  18.584  31.427  0.2949 -0.2808  0.0622
22278W        W65216  26.169  16.236  28.591  0.0618 -0.1806  0.1733
22279W        W65217  28.701  18.045  27.634 -0.3220  0.2584 -0.1036
22280W        W65218  28.248  17.811  30.799  0.0575  0.0724 -0.2478
22281W        W65219  28.163  17.865  28.476  0.1528 -0.0515  0.0099
22282W        W65220  26.851  15.733  27.119  0.1114 -0.2705 -0.0964
22283W        W65221  25.840  17.916  31.887 -0.0765 -0.0683  0.1878
22284W        W65222  26.310  16.407  29.952 -0.1430 -0.1493  0.1171
22285W        W65223  26.168  15.078  27.518 -0.1688 -0.0385 -0.1000
22286W        W65224  29.289  18.524  30.907 -0.3419 -0.1242  0.0413
22287W        W65225  25.579  17.072  31.018 -0.3548  0.1660  0.1662
22288W        W65226  29.523  15.852  28.280  0.0464 -0.0500  0.2052
22289W        W65227  25.916  17.700  30.287 -0.0002  0.4172 -0.1391
22290W        W65228  27.967  17.594  31.138  0.4039  0.0090 -0.0007
22291W        W65229  27.899  16.282  28.280  0.0283 -0.1845  0.1332
22292W        W65230  28.081  14.470  29.743 -0.1743 -0.1039  0.0482
22293W        W65231  28.950  15.328  30.557  0.1328  0.2970  0.0093
22294W        W65232  27.012  17.210  27.350  0.1489 -0.1087  0.0240
22295W        W65233  27.742  15.345  28.807  0.2048 -0.0602  0.1139
22296W        W65234  30.057  17.695  29.670 -0.0355  0.1781  0.0503
22297W        W65235  27.468  16.665  29.166  0.1333  0.1101  0.1061
22298W        W65236  25.087  17.236  30.660  0.0771 -0.3224  0.0024
22299W        W65237  26.471  16.321  31.291 -0.1396 -0.1501  0.1052
22300W        W65238  28.336  17.197   0.464  0.0477  0.0294 -0.2555
22301W        W65239  25.600  18.673  28.280  0.1074 -0.1669 -0.2710
22302W        W65240  24.844  17.923  29.289  0.1834 -0.0153 -0.0841
22303W        W65241  26.049  15.478  28.964  0.0139 -0.1289  0.2793
22304W        W65242  25.605  15.284  30.339  0.2229  0.0421 -0.2829
22305W        W65243  27.272  17.683  31.352 -0.0258 -0.2909 -0.1294
22306W        W65244  28.222  15.543  28.882 -0.5796  0.0866 -0.0142
22307W        W65245  26.252  14.426  31.209 -0.1145 -0.1068 -0.3402
22308W        W65246  28.148  13.997  31.294  0.0782 -0.4157 -0.0588
22309W        W65247  25.299  17.262  28.916  0.0995  0.1754 -0.1653
22310W        W65248  30.371  18.310  29.265 -0.0011  0.0523 -0.2200
22311W        W65249  28.799  16.670  27.586 -0.0289 -0.1178  0.1930
22312W        W65250  27.776  17.597  27.705  0.2074  0.0994  0.2455
22313W        W65251  25.279  16.019  30.788  0.2448  0.0372 -0.2432
22314W        W65252  27.867  15.576  27.439 -0.0153 -0.2353  0.0753
22315W        W65253  25.932  16.495   0.775  0.1579  0.1198  0.1819
22316W        W65254  25.128  15.376  29.252  0.2259 -0.0878 -0.2459
22317W        W65255  28.542  16.404  31.312  0.0491 -0.1126  0.2825
22318W        W65256  24.858  15.120  28.872  0.4114 -0.3646  0.1744
22319W        W65257  28.886  15.443  29.284  0.2339 -0.3969 -0.3430
22320W        W65258  27.122  15.480  29.159 -0.0234 -0.0766  0.0549
22321W        W65259  25.490  16.599  28.352 -0.3604  0.4313 -0.2089
22322W        W65260  28.125  14.432  30.962  0.2147 -0.0183  0.1552
22323W        W65261  27.273  18.225  30.182 -0.2275 -0.0684 -0.3258
22324W        W65262  27.839  17.507  30.632  0.3655 -0.2724 -0.0078
22325W        W65263  28.982  18.767  29.164  0.1196 -0.2032  0.2167
22326W        W65264  27.197  16.440  30.803  0.0895 -0.1936 -0.2065
22327W        W65265  26.708  15.277  27.860  0.0826  0.0362  0.2153
22328W        W65266  26.085  17.485  29.012  0.0891 -0.0487 -0.1391
22329W        W65267  27.553  17.430  29.573  0.0600  0.1104  0.3680
22330W        W65268  28.212  15.426  27.882  0.0170  0.0960  0.0184
22331W        W65269  29.074  17.895  30.451  0.3443 -0.0487 -0.0877
22332W        W65270  26.976  16.650  28.905 -0.2511  0.0771 -0.2510
22333W        W65271  26.606  17.267  30.954  0.0737  0.4516  0.1225
22334W        W65272  28.601  14.216  31.189 -0.0009 -0.3779  0.3194
22335W        W65273  28.329  16.611  30.162  0.2495  0.1628 -0.5644
22336W        W65274  28.065  16.214  30.011  0.2935  0.1512  0.1726
22337W        W65275  26.799  14.862  28.852  0.2298 -0.5433  0.2861
22338W        W65276  27.964  18.518  30.392 -0.1416 -0.0216 -0.0784
22339W        W65277  26.261  16.281  29.431 -0.1505 -0.0394 -0.4109
22340W        W65278  25.142  15.243  27.141 -0.0328 -0.1201  0.4999
22341W        W65279  26.724  18.403  29.483  0.4493 -0.0425 -0.0157
22342W        W65280  29.026  14.072  28.503  0.2218 -0.0300  0.1723
22343W        W65281  25.895  17.582  31.512 -0.0242 -0.0531  0.0093
22344W        W65282  28.024  14.901  30.672  0.1396  0.0992  0.1670
22345W        W65283  26.798  15.545  28.460 -0.3088 -0.0502  0.1878
22346W        W65284  26.763  17.269  31.769  0.1854 -0.1791  0.1563
22347W        W65285  28.262  15.275  27.335  0.0649 -0.1961 -0.2623
22348W        W65286  29.599  14.559  26.893 -0.1998 -0.0151 -0.3734
22349W        W65287  27.585  16.900   0.841  0.1032 -0.2624 -0.1432
22350W        W65288  29.621  15.958  28.809  0.0007  0.3172  0.2663
22351W        W65289  28.049  17.065  27.621  0.0757  0.2107  0.1155
22352W        W65290  28.352  14.572  29.270 -0.0230  0.1046  0.1335
22353W        W65291  23.992  17.343  29.909  0.0776  0.0074 -0.0726
22354W        W65292  27.422  16.390  28.352 -0.0972 -0.1272 -0.3908
22355W        W65293  29.389  15.987  29.822 -0.1371  0.0765  0.0576
22356W        W65294  27.453  15.396  28.320  0.1720  0.3010  0.0995
22357W        W65295  28.782  17.381  30.627 -0.3111 -0.0264 -0.0385
22358W        W65296  25.818  16.820  30.247  0.3758 -0.6538  0.0878
22359W        W65297  28.529  16.944  31.379 -0.1095  0.1524  0.2289
22360W        W65298  28.168  17.573  30.320 -0.0484 -0.1587 -0.4503
22361W        W65299  27.531  16.246  31.119 -0.2465  0.1874  0.0620
22362W        W65300  27.600  17.179  27.957 -0.2068  0.2845 -0.1191
22363W        W65301  28.095  14.529  28.286  0.0488 -0.1692  0.3122
22364W        W65302  25.921  17.989  27.332 -0.3819 -0.0229  0.0634
22365W        W65303  29.126  16.121  28.917 -0.1919 -0.1210  0.0135
22366W        W65304  28.370  14.660  30.185 -0.2742  0.4457  0.2504
22367W        W65305  27.635  15.454  30.658 -0.1594  0.0333  0.0969
22368W        W65306  28.219  15.586   0.101 -0.2098  0.0837 -0.2081
22369W        W65307  28.694  15.299  28.847  0.1411  0.2714 -0.1236
22370W        W65308  27.537  15.988  30.582  0.1120  0.1055 -0.3156
22371W        W65309  26.032  16.807  28.337  0.1228  0.0733  0.2012
22372W        W65310  26.391  14.526  30.305 -0.0361 -0.0578  0.0616
22373W        W65311  27.200  17.001  30.036  0.2899 -0.0295 -0.1114
22374W        W65312  26.074  17.819  30.738  0.1988 -0.4454  0.0186
22375W        W65313  29.053  16.763  30.576 -0.0187  0.3048  0.6097
22376W        W65314  27.363  16.193  28.848  0.0085  0.0366 -0.1244
22377W        W65315  27.106  15.325  31.061  0.2706 -0.0135  0.4524
22378W        W65316  26.381  15.248  28.459 -0.1377 -0.1524  0.1973
22379W        W65317  27.120  16.865  29.426 -0.3300  0.2636  0.2432
22380W        W65318  26.112  17.681  28.551  0.2323 -0.2557  0.2643
22381W        W65319  27.256  15.851  30.995  0.1943 -0.0506  0.2398
22382W        W65320  25.959  16.826  30.744 -0.0165 -0.4472  0.3119
22383W        W65321  26.657  17.587  27.301  0.1233 -0.2162 -0.2059
22384W        W65322  28.974  17.235  31.140  0.1727 -0.3475  0.0615
22385W        W65323  25.693  17.550  29.749 -0.0085  0.1342 -0.1536
22386W        W65324  28.170  12.424  31.116 -0.2634 -0.1580 -0.1765
22387W        W65325  24.585  17.256  28.884 -0.3793 -0.2402  0.1066
22388W        W65326  27.644  16.108  27.280  0.1328 -0.2701  0.1393
22389W        W65327  27.582  16.120  27.815  0.0697 -0.0113  0.1729
22390W        W65328  30.281  15.179  28.707  0.1640 -0.4939  0.1516
22391W        W65329  28.621  16.965  27.961  0.0849  0.1487  0.0577
22392W        W65330  27.493  14.993  30.706  0.1261 -0.3711  0.1555
22393W        W65331  28.079  15.293  30.944 -0.0466  0.1424  0.0289
22394W        W65332  22.300  18.143  29.313 -0.0300  0.0565  0.0290
22395W        W65333  28.158  16.010   0.347 -0.2751 -0.0339 -0.3254
22396W        W65334  28.666  15.836  29.077  0.2576  0.1465  0.2083
22397W        W65335  27.849  18.104  30.671 -0.1019 -0.1273 -0.2135
22398W        W65336  27.001  16.174  31.309  0.0440 -0.2257  0.2053
22399W        W65337  26.183  16.040  28.021 -0.0928  0.2304  0.1184
22400W        W65338  28.895  16.000  31.211 -0.1632  0.2060 -0.1006
22401W        W65339  25.129  16.679  27.971 -0.1466  0.1195 -0.2183
22402W        W65340  26.484  16.348  28.994  0.1682 -0.2220  0.3224
22403W        W65341  26.920  18.555  31.445  0.0458 -0.0389 -0.2097
22404W        W65342  27.929  15.833  29.722 -0.0908  0.0604  0.0549
22405W        W65343  27.896  16.891  29.005 -0.4196  0.1447  0.1473
22406W        W65344  27.210  16.157   0.746 -0.1562 -0.1828 -0.0522
22407W        W65345  28.981  16.731  31.199  0.2365  0.1117  0.1282
22408W        W65346  28.423  17.104  30.372  0.0621 -0.0590  0.2683
22409W        W65347  26.026  15.636  29.442  0.2036 -0.2426 -0.1423
22410W        W65348  27.820  16.405  30.458 -0.0175  0.0494  0.2179
22411W        W65349  27.600  16.711  29.988 -0.0543 -0.0921  0.1304
22412W        W65350  27.849  14.440  30.442  0.3288  0.1217  0.0667
22413W        W65351  26.540  18.156  31.649  0.0181  0.1187 -0.0039
22414W        W65352  26.653  13.355  31.226 -0.2343  0.0036 -0.0839
22415W        W65353  29.457  18.619  29.450  0.0701  0.0808 -0.2870
22416W        W65354  27.653  16.168   0.526 -0.0844 -0.0679 -0.2161
22417W        W65355  26.202  17.576  28.028 -0.1079  0.1083  0.1341
22418W        W65356  25.222  16.354  28.746  0.0943  0.1017 -0.0036
22419W        W65357  27.503  17.211  29.137  0.0214  0.2018 -0.1262
22420W        W65358  28.179  15.527  29.990 -0.3165 -0.0521  0.2271
22421W        W65359  25.814  17.153  28.715 -0.3146  0.0041  0.1599
22422W        W65360  26.858  16.362  28.338  0.1427  0.0064 -0.0378
22423W        W65361  25.697  17.347  30.632  0.0377 -0.1029  0.0157
22424W        W65362  27.726  16.666  27.313 -0.0523 -0.0050  0.0568
22425W        W65363  28.130  17.384  26.742 -0.0909 -0.1593  0.2087
22426W        W65364  26.527  14.270  29.859 -0.3431 -0.4627  0.0671
22427W        W65365  30.661  16.307  30.408 -0.0623  0.1468  0.0499
22428W        W65366  27.562  18.362  27.308 -0.0590  0.0009  0.2246
22429W        W65367  28.531  15.726  30.314  0.0541  0.2675 -0.0303
22430W        W65368  27.538  15.490  31.140  0.4095 -0.3476  0.1200
22431W        W65369  30.152  18.274  30.454  0.2444 -0.0462 -0.3415
22432W        W65370  26.143  15.347  30.853  0.1470  0.1100 -0.0026
22433W        W65371  27.434  18.656  30.312 -0.0139  0.1943  0.1055
22434W        W65372  25.613  16.864   0.593  0.0849  0.1004 -0.1141
22435W        W65373  27.831  15.721  29.141  0.1581  0.0082  0.4998
22436W        W65374  27.082  15.582  28.044 -0.0552  0.2333  0.1477
22437W        W65375  26.922  17.747  31.054  0.2653  0.1604 -0.1577
22438W        W65376  28.662  15.422  29.789 -0.1702  0.1420  0.1674
22439W        W65377  27.106  17.129  27.863 -0.1282  0.0787  0.4128
22440W        W65378  29.665  15.148  28.750  0.1185 -0.2272  0.0537
22441W        W65379  25.233  16.266  29.617  0.1246  0.2971  0.0258
22442W        W65380  27.961  14.569  28.852  0.0319 -0.0991 -0.1761
22443W        W65381  26.475  15.804  29.146 -0.1243  0.1980  0.1988
22444W        W65382  26.233  18.724  28.752  0.0876  0.1793  0.0390
22445W        W65383  26.580  15.070  31.932  0.1771  0.3002  0.0142
22446W        W65384  27.572  16.840  31.349 -0.1530 -0.0059 -0.1175
22447W        W65385  27.362  14.896  29.651  0.5237  0.0652 -0.2798
22448W        W65386  28.458  14.105  30.128  0.0734  0.0183  0.0207
22449W        W65387  28.620  15.116  30.152 -0.1519 -0.0956  0.1067
22450W        W65388  27.593  16.157   0.037 -0.2925  0.1161 -0.3329
22451W        W65389  25.797  14.570  31.114 -0.0171  0.1346  0.1340
22452W        W65390  28.160  18.981  30.776  0.0104 -0.0311  0.1315
22453W        W65391  28.250  17.055  28.393  0.0970 -0.0619  0.0950
22454W        W65392  29.040  14.895  30.344 -0.0755  0.1124  0.1404
22455W        W65393  28.954  14.973  29.775 -0.1223  0.0657 -0.2146
22456W        W65394  27.753  17.602  28.987  0.0037  0.0534 -0.3080
22457W        W65395  26.428  16.907  30.617 -0.0708  0.1214 -0.0978
22458W        W65396  28.804  15.106  31.479 -0.4980 -0.1529  0.0294
22459W        W65397  26.627  16.215  27.699  0.1527  0.0843 -0.1610
22460W        W65398  28.473  16.275   0.007  0.1876 -0.0719  0.5089
22461W        W65399  27.334  17.891  29.103  0.2248 -0.4184 -0.1461
22462W        W65400  28.052  18.968  28.939  0.3242 -0.0598  0.0756
22463W        W65401  27.841  14.898  29.588 -0.2534  0.0389  0.0916
22464W        W65402  25.775  16.413  29.482  0.3082 -0.0149 -0.1780
22465W        W65403  26.885  18.072   0.053 -0.0517 -0.0014 -0.2232
22466W        W65404  28.381  15.626  29.433 -0.4844  0.0743 -0.2036
22467W        W65405  27.504  17.148  27.409  0.2393 -0.1841 -0.2244
22468W        W65406  28.018  17.219  29.711  0.0657  0.0679 -0.0442
22469W        W65407  29.766  17.476   0.057  0.2706  0.1630  0.1232
22470W        W65408  27.810  15.976  28.710 -0.1283  0.0262 -0.0051
22471W        W65409  28.859  15.854  30.700  0.2759  0.0697 -0.0265
22472W        W65410  25.520  18.240  28.001  0.3944 -0.1170 -0.2218
22473W        W65411  26.898  14.996  29.830 -0.2749  0.0862 -0.1930
22474W        W65412  26.219  16.865  31.125  0.4992 -0.1510 -0.0267
22475W        W65413  26.302  16.463  30.792  0.1250 -0.3143 -0.0071
22476W        W65414  25.694  18.575  30.103  0.4621  0.0688 -0.0914
22477W        W65415  28.020  15.757  30.481  0.1413  0.1510 -0.0656
22478W        W65416  28.638  16.397  30.834  0.0693 -0.1576 -0.1542
22479W        W65417  27.882  15.869  30.979 -0.1171  0.0214 -0.2954
22480W        W65418  28.959  15.753  31.679  0.0355 -0.0401  0.0807
22481W        W65419  27.925  18.504  30.991 -0.1911  0.0418  0.3335
22482W        W65420  26.093  17.934  29.311  0.0110  0.1729  0.1408
22483W        W65421  26.592  17.863  30.698  0.1085 -0.2534  0.1426
22484W        W65422  29.308  15.575  28.655 -0.0918 -0.3310 -0.0312
22485W        W65423  27.047  18.033  30.678  0.0151  0.0334  0.0532
22486W        W65424  24.967  16.761  29.778 -0.0441 -0.0841 -0.0880
22487W        W65425  26.315  17.782  31.279 -0.1088  0.1604  0.1499
22488W        W65426  26.776  17.238  30.208 -0.0563 -0.0212 -0.2204
22489W        W65427  26.715  15.362  28.895 -0.2484  0.0290 -0.2066
22490W        W65428  27.095  17.144  28.804 -0.3599  0.0324  0.0407
22491W        W65429  23.957  16.872  30.672 -0.3019  0.2100 -0.0148
22492W        W65430  26.074  17.306  30.020 -0.0407 -0.2607  0.0984
22493W        W65431  26.873  15.991  28.786  0.0209 -0.1449  0.1173
22494W        W65432  28.316  17.498  28.793  0.2171  0.2133  0.0830
22495W        W65433  27.264  17.675  28.089 -0.0425  0.0136 -0.0523
22496W        W65434  27.147  19.175  31.161 -0.0353  0.1918  0.2961
22497W        W65435  27.238  15.886  29.381  0.0202 -0.3513 -0.0613
22498W        W65436  25.939  18.075  28.893  0.3221 -0.1494 -0.4495
22499W        W65437  25.824  17.298  28.202  0.1353  0.3915  0.1174
22500W        W65438  28.326  18.161  27.385 -0.1900  0.1965 -0.0578
22501W        W65439  25.959  18.930  28.111  0.3203  0.1006  0.1728
22502W        W65440  28.886  16.289  31.665 -0.0494 -0.2150  0.2273
22503W        W65441  28.535  16.198  27.666  0.0708 -0.0225 -0.0143
22504W        W65442  28.658  17.491  30.131  0.0276  0.2629  0.0026
22505W        W65443  29.025  16.162  28.390  0.2299  0.4471 -0.3330
22506W        W65444  27.247  18.380   0.067  0.1225 -0.2939 -0.1081
22507W        W65445  27.279  17.538  30.106  0.0710  0.1413  0.1496
22508W        W65446  25.340  13.711  28.371  0.2300 -0.2655  0.3548
22509W        W65447  27.725  15.939  31.444 -0.2545 -0.0810  0.0724
22510W        W65448  30.585  14.421   0.150  0.0492 -0.0063  0.1086
22511W        W65449  25.718  18.844   0.306  0.0154  0.1321  0.0465
22512W        W65450  27.489  19.258  27.858 -0.0010  0.1098 -0.1683
22513W        W65451  25.827  15.305  28.473 -0.0054 -0.0946 -0.0155
22514W        W65452  27.183  15.945  29.882  0.2164  0.0457  0.3425
22515W        W65453  28.971  15.858  30.040 -0.0254 -0.1484  0.0689
22516W        W65454  26.896  16.718  27.539 -0.1262  0.1002  0.1895
22517W        W65455  27.503  14.763  27.598  0.0794 -0.0217 -0.1462
22518W        W65456  28.086  17.325  29.205 -0.1151  0.2266 -0.0882
22519W        W65457  25.194  18.706  30.277 -0.0182 -0.1089  0.3453
22520W        W65458  24.557  17.706  29.974  0.3023  0.2395  0.0131
22521W        W65459  24.745  14.290  29.283 -0.2919  0.1942 -0.0659
22522W        W65460  29.340  15.895  27.022 -0.3258  0.1346  0.0643
22523W        W65461  27.419  17.128  30.547 -0.0046  0.2455 -0.3464
22524W        W65462  29.606  16.246  30.625  0.1860  0.1477 -0.5179
22525W        W65463  27.022  15.958  30.435  0.0501 -0.2100 -0.2257
22526W        W65464  28.193  16.695  27.950 -0.3247  0.1520 -0.1048
22527W        W65465  28.088  16.746  31.163  0.0975  0.1194  0.0597
22528W        W65466  25.629  15.956  29.579 -0.2294 -0.1451  0.0314
22529W        W65467  27.648  17.488  26.927  0.1100  0.0694  0.0447
22530W        W65468  29.533  17.065  31.730  0.3618  0.1169 -0.1185
22531W        W65469  28.345  15.896  28.527  0.1941 -0.0832  0.0662
22532W        W65470  28.185  18.140  31.945 -0.1214 -0.0560 -0.1200
22533W        W65471  25.846  15.004  28.928  0.1113 -0.2293  0.0338
22534W        W65472  28.309  14.947  28.851  0.4149  0.2240 -0.1854
22535W        W65473  24.356  16.385  28.170 -0.0346  0.2142 -0.1032
22536W        W65474  26.448  17.600  30.244 -0.3070  0.1586 -0.1507
22537W        W65475  27.231  19.144   0.167 -0.1289 -0.2558  0.1156
22538W        W65476  26.656  14.375  29.106  0.0530 -0.3870 -0.0976
22539W        W65477  29.065  17.875  28.030 -0.0436 -0.0580  0.2157
22540W        W65478  29.356  15.375  30.239  0.1157  0.0480  0.2159
22541W        W65479  27.610  17.905  28.618 -0.1547 -0.3019  0.0883
22542W        W65480  27.465  16.833  28.693 -0.2531 -0.0528 -0.1477
22543W        W65481  28.074  19.344  28.594 -0.1198  0.2344 -0.3344
22544W        W65482  25.655  15.557  30.861  0.0026 -0.0536  0.1145
22545W        W65483  28.387  18.292  31.164  0.1300  0.0641 -0.3675
22546W        W65484  29.160  17.608  30.015  0.2683 -0.0462 -0.0851
22547W        W65485  27.447  14.398  28.892 -0.3685  0.0743  0.0638
22548W        W65486  26.765  15.973  29.532  0.0452  0.0627  0.0098
22549W        W65487  26.241  18.111  30.270  0.0148  0.2120 -0.1636
22550W        W65488  29.264  15.463  29.705  0.0654 -0.1442  0.4431
22551W        W65489  28.063  16.045   0.864  0.1234 -0.0725 -0.0842
22552W        W65490  29.303  17.938  27.252 -0.2441  0.3174  0.1342
22553W        W65491  28.432  15.931  31.037 -0.1958  0.2034  0.0514
22554W        W65492  27.619  17.297  31.153  0.1009 -0.0211  0.0330
22555W        W65493  27.827  18.461  31.948 -0.0455 -0.1432 -0.0156
22556W        W65494  26.353  16.659  27.637  0.0918 -0.1839  0.2764
22557W        W65495  26.166  15.961  30.813 -0.2199  0.0799 -0.1731
22558W        W65496  26.974  16.588  29.905  0.0810  0.1800 -0.1914
22559W        W65497  26.939  18.585  28.981  0.4231 -0.4249 -0.0591
22560W        W65498  28.440  16.504  29.711 -0.0314 -0.2838 -0.0667
22561W        W65499  27.106  15.941  28.326 -0.0930 -0.0633 -0.0991
22562W        W65500  29.417  17.432  29.404  0.1883 -0.0977  0.4531
22563W        W65501  27.368  14.986  30.197  0.0310 -0.4180  0.0268
22564W        W65502  29.644  14.754  29.055 -0.0883  0.0150 -0.1858
22565W        W65503  30.007  14.749  28.527  0.2000  0.1002 -0.5130
22566W        W65504  26.603  15.842  31.687 -0.1718  0.0170 -0.0111
22567W        W65505  26.110  15.801  27.593 -0.1585 -0.4711 -0.0258
22568W        W65506  26.779  16.884  26.472 -0.1883 -0.1749 -0.1778
22569W        W65507  26.322  16.902  30.124  0.2011  0.1769  0.2190
22570W        W65508  27.322  14.609  31.670  0.1426  0.2645 -0.0642
22571W        W65509  27.300  15.454  31.957  0.0185  0.3823  0.2154
22572W        W65510  24.839  15.171  28.312 -0.0772 -0.0874  0.2243
22573W        W65511  26.210  15.734  28.558 -0.0626  0.0013  0.2102
22574W        W65512  27.686  18.195  29.538  0.0526 -0.1366  0.2376
22575W        W65513  25.895  15.674  29.971 -0.2689 -0.1108  0.1018
22576W        W65514  26.693  15.369  30.151  0.1219 -0.0298  0.2823
22577W        W65515  27.892  16.622  29.455 -0.1865 -0.0798  0.1594
22578W        W65516  28.199  17.810  29.400 -0.1300 -0.2691  0.0161
22579W        W65517  27.134  15.413  29.780  0.0082 -0.1632 -0.0432
22580W        W65518  30.446  17.411  30.442  0.2075 -0.0721  0.0548
22581W        W65519  25.799  16.750  27.468 -0.0826  0.2378 -0.0930
22582W        W65520  27.255  16.891  30.959 -0.0657  0.1680 -0.4387
22583W        W65521  25.123  15.714  31.890  0.0929 -0.2240  0.3042
22584W        W65522  24.357  15.827  28.620 -0.3180 -0.0139  0.0785
22585W        W65523  27.091  15.884  31.951  0.0911  0.0157  0.1639
22586W        W65524  28.121  18.453  28.880 -0.3566  0.0945  0.1822
22587W        W65525  27.086  17.614  28.633 -0.3570 -0.1255  0.1398
22588W        W65526  26.983  17.479  30.621  0.0760 -0.4460 -0.0484
22589W        W65527  25.897  18.325  30.583 -0.0519  0.1102 -0.0003
22590W        W65528  26.881  14.771  30.341  0.1846  0.2073  0.2215
22591W        W65529  28.543  15.952  29.799 -0.0956 -0.2830 -0.2075
22592W        W65530  26.158  17.331  30.545 -0.0846 -0.3616  0.1637
22593W        W65531  28.305  16.946  29.433 -0.3471 -0.2337 -0.0023
22594W        W65532  27.928  15.000  30.180  0.1550 -0.0954  0.1886
22595W        W65533  27.301  15.184  28.753  0.1183  0.4231  0.0990
22596W        W65534  24.536  15.472  30.601  0.1710  0.0484  0.0110
22597W        W65535  26.780  15.749  31.208 -0.2812  0.1515 -0.1524
22598W        W65536  27.359  17.209  31.677 -0.0038  0.1234 -0.0095
22599W        W65537  25.002  15.904  29.328  0.1212 -0.1840 -0.2392
22600W        W65538  29.906  16.146  27.493  0.2644 -0.2263 -0.0687
22601W        W65539  26.453  18.203  28.242 -0.0237 -0.3967 -0.0413
22602W        W65540  26.641  17.053  29.720  0.0382 -0.1131 -0.0968
22603W        W65541  27.135  16.544  27.960  0.1300  0.1063 -0.1976
22604W        W65542  26.725  16.673  31.009 -0.1254  0.2025 -0.0981
22605W        W65543  27.719  18.282  30.034 -0.0560  0.1213 -0.1982
22606W        W65544  28.587  18.134  31.586  0.1326  0.1367  0.1652
22607W        W65545  27.593  15.918  28.255  0.2009  0.2138  0.0470
22608W        W65546  28.234  14.903  28.033 -0.1148  0.2065  0.3441
22609W        W65547  29.122  18.539  30.336 -0.2093 -0.0710 -0.0788
22610W        W65548  29.654  18.771  30.398 -0.2881 -0.0791 -0.0930
22611W        W65549  29.481  18.242  30.534  0.0579 -0.0115 -0.1897
22612W        W65550  28.775  16.788  29.221  0.0195  0.2885  0.1180
22613W        W65551  26.234  15.919  30.292 -0.2331  0.6428  0.0731
22614W        W65552  25.982  18.401  28.489 -0.1578  0.1377  0.2118
22615W        W65553  24.433  17.713  28.674  0.0559 -0.1899  0.1435
22616W        W65554  28.310  14.925  29.764 -0.0308 -0.3128 -0.2494
22617W        W65555  25.789  16.282  29.971 -0.0906  0.2341  0.0202
22618W        W65556  29.317  15.331  27.438 -0.1687 -0.0279  0.1218
22619W        W65557  25.783  18.106  30.109  0.1668 -0.2265 -0.0720
22620W        W65558  27.969  15.257  29.270 -0.2400  0.0475  0.0045
22621W        W65559  28.669  14.991   0.394 -0.2353  0.1109 -0.2033
22622W        W65560  26.727  17.124   0.374 -0.4114 -0.1474 -0.1027
22623W        W65561  24.933  16.695   0.068  0.2046 -0.0334  0.0374
22624W        W65562  26.411  16.978   1.425  0.0983  0.1502 -0.2356
22625W        W65563  26.309  16.491   1.687  0.2002 -0.3459  0.4994
22626W        W65564  26.697  17.580   0.143  0.2412 -0.2142  0.1764
22627W        W65565  27.727  14.416   0.056  0.2020 -0.3502 -0.1549
22628W        W65566  27.930  14.759  31.615  0.2128 -0.0089  0.1440
22629W        W65567  28.773  16.200   0.459  0.1543  0.2149  0.0224
22630W        W65568  29.461  18.003  31.831  0.0015 -0.0769 -0.1299
22631W        W65569  27.281  19.530  31.561 -0.2740 -0.3303 -0.1967
22632W        W65570  26.701  15.835  30.029  0.0104  0.0136  0.2494
22633W        W65571  29.494  18.029  30.999 -0.2466 -0.0899  0.0661
22634W        W65572  27.269  18.144  31.095  0.1719 -0.3913 -0.4324
22635W        W65573  27.699  15.736   0.242 -0.1869 -0.1516 -0.0716
22636W        W65574  26.455  18.590  30.465  0.4311 -0.0394  0.1350
22637W        W65575  26.179  15.961  31.352 -0.0125  0.3056 -0.0008
22638W        W65576  28.801  17.562  31.556  0.1297 -0.1225 -0.0966
22639W        W65577  25.866  14.183  31.420 -0.3428 -0.2001  0.2341
22640W        W65578  24.564  16.275  30.574 -0.1652 -0.0694 -0.2205
22641W        W65579  25.184  14.892   0.258 -0.0843 -0.0506  0.0286
22642W        W65580  25.075  17.453  31.290  0.1839 -0.1426  0.3519
22643W        W65581  29.476  16.637  30.901  0.1093  0.0296 -0.1252
22644W        W65582  27.137  14.519  29.369 -0.3150 -0.2481  0.1327
22645W        W65583  27.855  13.825  31.683 -0.2044 -0.2428  0.1748
22646W        W65584  26.980  17.256  31.287 -0.0670 -0.2309  0.1062
22647W        W65585  26.919  16.358  31.775 -0.0413  0.5904  0.0511
22648W        W65586  25.311  16.512   0.358 -0.3081 -0.1407  0.4030
22649W        W65587  26.288  16.867   0.354 -0.2401 -0.4657  0.2340
22650W        W65588  26.761  17.693  31.512 -0.1750  0.1187  0.0455
22651W        W65589  26.741  18.185  31.180 -0.1433 -0.0710  0.1583
22652W        W65590  25.971  15.303   0.428  0.0595 -0.2568 -0.1897
22653W        W65591  29.242  16.888   0.121  0.1772 -0.0662 -0.0213
22654W        W65592  28.903  15.254   0.028 -0.2505 -0.2848  0.2401
22655W        W65593  25.004  14.333  30.267 -0.1569 -0.0302 -0.1385
22656W        W65594  25.889  16.080   1.021 -0.2627 -0.1131 -0.0527
22657W        W65595  24.511  16.718   0.514 -0.1643  0.0893  0.0249
22658W        W65596  28.499  17.654   0.116 -0.2522  0.2854 -0.0917
22659W        W65597  27.321  16.757   0.471 -0.2476  0.3165 -0.0273
22660W        W65598  28.771  18.693  30.994  0.0934  0.0415 -0.0067
22661W        W65599  28.637  15.853   0.135 -0.1700 -0.2686  0.1417
22662W        W65600  27.784  16.643   0.447 -0.1821 -0.2332 -0.2975
22663W        W65601  26.931  14.984   2.115  0.2611  0.2026  0.1175
22664W        W65602  27.368  17.980   0.790  0.2219 -0.1430  0.0989
22665W        W65603  26.766  16.193  30.801  0.0067 -0.1660  0.1416
22666W        W65604  24.797  15.873  30.313  0.1910  0.3371  0.2072
22667W        W65605  27.696  14.407   1.053  0.0219  0.1433  0.0114
22668W        W65606  28.871  17.311   0.145 -0.2552 -0.2215 -0.1143
22669W        W65607  28.760  16.255  30.385 -0.1379 -0.0236 -0.1392
22670W        W65608  23.665  15.922  31.649 -0.0647  0.1739  0.3497
22671W        W65609  29.358  19.543  31.970  0.1478  0.2982 -0.3439
22672W        W65610  29.448  15.195   0.882 -0.0352 -0.1444  0.0472
22673W        W65611  28.097  16.620   0.966  0.0522  0.1210 -0.1632
22674W        W65612  28.169  16.704  31.699  0.1158  0.2814 -0.1742
22675W        W65613  28.426  17.259  31.788  0.1819 -0.2937 -0.1539
22676W        W65614  27.769  17.218   0.437 -0.3893 -0.1130 -0.1729
22677W        W65615  29.023  16.424  29.729  0.3760 -0.1101  0.0188
22678W        W65616  27.174  17.610   1.056 -0.1529  0.0841  0.0857
22679W        W65617  26.651  18.649   0.442 -0.2888 -0.0034 -0.1757
22680W        W65618  25.093  17.064  30.152  0.1877 -0.1882 -0.2330
22681W        W65619  24.592  16.718   1.024  0.0380 -0.1401 -0.1069
22682W        W65620  26.377  17.317  31.392  0.0018  0.0315 -0.0016
22683W        W65621  25.965  17.062  31.492  0.3112 -0.1642  0.2285
22684W        W65622  24.251  15.891  30.490  0.2892 -0.1159 -0.1097
22685W        W65623  28.210  18.559  31.630 -0.0165 -0.2989 -0.0279
22686W        W65624  29.774  17.175  30.259 -0.1975  0.0192  0.3137
22687W        W65625  30.015  18.432  31.028  0.1875 -0.2147  0.0530
22688W        W65626  26.976  19.696  20.797 -0.1191 -0.0135 -0.1282
22689W        W65627  28.707  19.264  17.876 -0.0063  0.0420  0.3292
22690W        W65628  27.473  18.429  16.356  0.1731 -0.1369  0.0073
22691W        W65629  28.015  20.355  18.200  0.1125 -0.4181 -0.2170
22692W        W65630  25.480  17.813  16.375  0.3336 -0.2691 -0.0323
22693W        W65631  28.294  21.328  17.415  0.0301 -0.0188  0.0079
22694W        W65632  26.212  18.296  19.098 -0.0700 -0.1061  0.0952
22695W        W65633  29.336  20.805  19.047  0.0136 -0.0017  0.3185
22696W        W65634  28.377  21.545  18.826 -0.2430 -0.1303 -0.3405
22697W        W65635  26.850  20.084  16.741  0.0541 -0.3536  0.2714
22698W        W65636  27.473  18.562  19.874  0.0372 -0.2104  0.2269
22699W        W65637  28.313  20.955  18.862 -0.0893  0.0003  0.0520
22700W        W65638  27.597  18.305  18.975 -0.1804  0.3142 -0.1295
22701W        W65639  24.636  19.659  16.896 -0.2501 -0.0560 -0.0226
22702W        W65640  28.997  20.290  20.217  0.1036 -0.1395 -0.0415
22703W        W65641  26.105  20.609  16.519 -0.1045  0.0152  0.0416
22704W        W65642  25.680  19.911  18.113 -0.0336 -0.1399  0.3363
22705W        W65643  27.907  18.554  18.115 -0.2017 -0.1150  0.2555
22706W        W65644  26.587  22.032  17.583 -0.1139 -0.0068 -0.2209
22707W        W65645  26.205  20.734  19.189  0.1665 -0.2549  0.1902
22708W        W65646  28.067  17.172  20.164 -0.0716  0.0469  0.1869
22709W        W65647  27.843  22.151  17.673  0.1733 -0.1086  0.0847
22710W        W65648  23.814  18.270  15.390  0.3335  0.1134  0.1099
22711W        W65649  26.117  18.735  18.781 -0.0985 -0.0402 -0.0041
22712W        W65650  25.409  21.622  19.820  0.0613  0.0544 -0.0710
22713W        W65651  27.696  18.866  19.452  0.2388  0.1289 -0.0313
22714W        W65652  29.522  18.907  17.303  0.0923 -0.3639 -0.2151
22715W        W65653  27.822  22.108  18.291 -0.1584 -0.1218  0.0552
22716W        W65654  28.748  21.003  17.429  0.3426 -0.1181  0.0140
22717W        W65655  30.086  20.696  19.973  0.0706  0.2290 -0.2706
22718W        W65656  26.544  21.703  17.955  0.2565 -0.1635 -0.2328
22719W        W65657  25.357  20.923  16.070 -0.0562 -0.1835  0.2651
22720W        W65658  27.165  21.548  16.786  0.1500  0.1056  0.0180
22721W        W65659  27.923  21.730  17.879  0.0326  0.1181 -0.0728
22722W        W65660  27.937  21.152  20.516 -0.0263 -0.1838  0.0501
22723W        W65661  27.158  20.903  20.285 -0.0675  0.2436  0.0805
22724W        W65662  26.760  21.515  15.852  0.0098 -0.0484  0.0408
22725W        W65663  26.961  20.836  20.853 -0.1837 -0.2592  0.2477
22726W        W65664  28.627  21.160  20.199 -0.0534  0.0688 -0.3037
22727W        W65665  29.029  18.948  20.423  0.0669  0.1600 -0.2064
22728W        W65666  27.493  20.991  19.268  0.1296 -0.2580  0.3355
22729W        W65667  26.733  22.464  16.321  0.1026 -0.2607  0.1286
22730W        W65668  27.206  21.141  18.329  0.2458 -0.1689 -0.0667
22731W        W65669  26.639  20.102  18.664 -0.0789  0.2283 -0.4234
22732W        W65670  25.417  21.022  17.890 -0.0785 -0.0067 -0.0231
22733W        W65671  29.561  18.162  19.188 -0.1621 -0.0990  0.2918
22734W        W65672  27.212  21.619  17.305 -0.1394  0.1353  0.1609
22735W        W65673  26.956  19.494  17.184 -0.1570  0.0608 -0.0339
22736W        W65674  25.873  19.862  16.030 -0.1599  0.1186 -0.2025
22737W        W65675  26.595  19.160  17.078  0.1411  0.2850  0.3869
22738W        W65676  26.636  17.538  18.211  0.2868 -0.3498 -0.0482
22739W        W65677  26.031  22.517  17.905  0.2631 -0.3819  0.1368
22740W        W65678  26.327  20.180  19.127 -0.1919 -0.0987 -0.3727
22741W        W65679  27.924  20.705  19.389 -0.0921  0.3094  0.0158
22742W        W65680  27.132  20.365  16.988  0.0604 -0.0438  0.2887
22743W        W65681  28.177  17.745  19.272  0.1371 -0.0530 -0.0725
22744W        W65682  27.826  21.600  18.799 -0.1990  0.0453 -0.3726
22745W        W65683  26.443  20.255  18.228 -0.0012  0.1906 -0.1961
22746W        W65684  27.802  21.795  17.291  0.0638 -0.3359 -0.1417
22747W        W65685  27.817  20.128  17.657 -0.0562 -0.4491 -0.1463
22748W        W65686  27.868  22.260  16.383 -0.0859  0.1684  0.2219
22749W        W65687  25.857  18.116  16.706  0.1591  0.1313  0.0656
22750W        W65688  25.130  21.634  19.073 -0.1311  0.1643 -0.2125
22751W        W65689  27.178  19.111  19.556 -0.0272 -0.1006 -0.0278
22752W        W65690  28.015  18.212  17.484 -0.1575  0.1867 -0.0632
22753W        W65691  27.383  21.909  18.552 -0.1371  0.1999  0.3319
22754W        W65692  24.358  21.223  18.778  0.0488 -0.4239  0.0797
22755W        W65693  28.155  18.091  18.891 -0.1310  0.2170 -0.0323
22756W        W65694  27.181  19.546  17.618  0.3500  0.0852 -0.1161
22757W        W65695  28.693  22.010  17.795  0.3087  0.2245 -0.0129
22758W        W65696  26.986  19.949  17.336  0.0574  0.0016 -0.1466
22759W        W65697  29.201  18.769  19.113 -0.1113  0.3585  0.1905
22760W        W65698  28.146  18.055  18.381 -0.2948  0.1800 -0.0957
22761W        W65699  26.356  20.422  16.104 -0.3116  0.0570 -0.1983
22762W        W65700  27.193  19.256  18.631 -0.1119 -0.2531  0.0344
22763W        W65701  28.375  22.442  17.643 -0.2517  0.0034  0.2519
22764W        W65702  28.644  19.572  19.042  0.0478 -0.2217 -0.1391
22765W        W65703  26.128  21.809  18.958 -0.0712 -0.0290  0.2137
22766W        W65704  26.615  18.879  18.748 -0.1219  0.0853 -0.1604
22767W        W65705  27.483  20.476  19.140 -0.0163 -0.1573 -0.2222
22768W        W65706  26.668  21.973  16.152  0.1333 -0.1788 -0.2726
22769W        W65707  25.854  19.151  16.556 -0.1803  0.0287 -0.2911
22770W        W65708  26.603  20.654  16.469 -0.1873  0.0316  0.2154
22771W        W65709  26.410  19.346  18.128  0.0254 -0.2558 -0.3104
22772W        W65710  26.835  21.024  19.596 -0.2202  0.1413  0.2539
22773W        W65711  28.749  19.170  16.529  0.1584  0.3098  0.0544
22774W        W65712  26.216  20.423  19.546  0.2236  0.1277  0.0491
22775W        W65713  27.414  18.868  18.405 -0.1301  0.0612 -0.1351
22776W        W65714  26.574  21.071  17.660  0.0520  0.0187 -0.1027
22777W        W65715  29.054  21.373  18.414 -0.3915  0.1861  0.0639
22778W        W65716  27.994  20.512  17.039  0.0263 -0.0191 -0.0673
22779W        W65717  28.846  22.154  16.832 -0.5210  0.2162  0.1246
22780W        W65718  25.311  20.429  17.884 -0.1464  0.1043 -0.0599
22781W        W65719  26.222  18.082  17.356  0.1607 -0.1884  0.1292
22782W        W65720  27.094  18.665  18.781  0.2307 -0.0541 -0.0403
22783W        W65721  25.675  19.372  17.170  0.0766 -0.2197 -0.0215
22784W        W65722  28.335  19.725  18.607  0.0353 -0.1670  0.0751
22785W        W65723  25.458  18.905  16.234  0.0370 -0.0745 -0.0072
22786W        W65724  27.388  18.349  18.525 -0.0455  0.3855 -0.1119
22787W        W65725  27.141  19.047  18.022  0.1661  0.1519 -0.1405
22788W        W65726  24.843  19.767  17.452  0.4505 -0.3648 -0.2082
22789W        W65727  29.641  17.036  19.038  0.0509 -0.1940  0.0981
22790W        W65728  27.434  22.106  18.014  0.3432 -0.2487  0.1062
22791W        W65729  28.856  22.293  19.175 -0.0735 -0.2134 -0.1170
22792W        W65730  29.138  22.664  17.061 -0.1720 -0.1001  0.1690
22793W        W65731  25.759  18.430  18.977 -0.0563  0.1805  0.2225
22794W        W65732  24.768  18.433  16.929  0.1229 -0.2017 -0.0948
22795W        W65733  24.972  23.401  16.956  0.3436  0.2982 -0.1055
22796W        W65734  25.819  21.694  19.364 -0.1407  0.0119  0.1099
22797W        W65735  27.461  19.892  17.913  0.0801  0.2234  0.1549
22798W        W65736  28.839  21.099  18.855  0.0979 -0.1766  0.0398
22799W        W65737  26.830  21.230  18.097 -0.0709  0.1152 -0.0824
22800W        W65738  27.111  21.714  19.219  0.2456 -0.3643  0.2579
22801W        W65739  28.421  16.532  18.517  0.2636  0.1394  0.4574
22802W        W65740  29.249  21.216  19.938  0.1134  0.1606 -0.0746
22803W        W65741  26.698  18.958  17.935  0.0778  0.1404  0.1317
22804W        W65742  25.232  18.225  16.016  0.3285  0.0275  0.2358
22805W        W65743  26.590  21.021  19.149 -0.1930 -0.2105 -0.3295
22806W        W65744  25.752  21.018  16.465 -0.1252  0.1604 -0.2778
22807W        W65745  27.062  20.747  17.892  0.0464  0.1741 -0.1523
22808W        W65746  27.112  22.124  17.390 -0.2548 -0.0001 -0.3525
22809W        W65747  27.106  18.083  20.030 -0.0329  0.2480  0.3139
22810W        W65748  26.250  19.812  18.320  0.0447  0.0433  0.1899
22811W        W65749  30.400  18.658  19.278 -0.1609  0.0994  0.0912
22812W        W65750  25.965  19.799  17.366 -0.0731 -0.2102 -0.0549
22813W        W65751  27.509  21.182  20.116 -0.3510 -0.2953 -0.0770
22814W        W65752  27.000  18.066  18.319  0.0745 -0.0513 -0.0975
22815W        W65753  28.271  18.843  16.908 -0.0619 -0.1366 -0.2708
22816W        W65754  28.153  19.984  20.078 -0.0927 -0.0999  0.3517
22817W        W65755  29.133  19.573  16.580  0.2866 -0.1623  0.2117
22818W        W65756  27.438  19.403  16.204  0.1782 -0.2213 -0.0641
22819W        W65757  28.883  17.054  16.254  0.1593  0.2405 -0.3077
22820W        W65758  26.954  19.392  21.265  0.1947 -0.3383 -0.1952
22821W        W65759  27.893  20.991  16.785  0.0134 -0.1261  0.0781
22822W        W65760  27.569  20.437  18.583 -0.1322  0.1615 -0.2495
22823W        W65761  26.996  18.968  17.491  0.0620 -0.2418 -0.1490
22824W        W65762  28.380  20.978  17.884  0.2061 -0.1239 -0.4841
22825W        W65763  25.938  20.770  17.806 -0.1086 -0.0981 -0.1668
22826W        W65764  28.139  19.796  19.142  0.1999  0.0306 -0.0514
22827W        W65765  28.026  22.546  16.809  0.3499  0.0233  0.0997
22828W        W65766  27.263  19.413  19.129 -0.2465 -0.0170 -0.0116
22829W        W65767  25.542  20.668  15.597  0.1537 -0.0750 -0.1986
22830W        W65768  27.518  18.870  18.886  0.3891  0.1277  0.2296
22831W        W65769  26.714  20.364  17.275 -0.0208  0.3554 -0.1824
22832W        W65770  30.212  17.913  19.857  0.2321 -0.0849  0.0448
22833W        W65771  27.055  17.556  19.305 -0.3502 -0.2096  0.3301
22834W        W65772  26.504  19.583  19.974  0.0717  0.3582  0.0766
22835W        W65773  29.318  17.956  20.570  0.0578  0.1105 -0.2898
22836W        W65774  27.037  19.412  16.524  0.1188 -0.0177 -0.0500
22837W        W65775  27.805  19.254  18.589  0.1576 -0.2411 -0.3764
22838W        W65776  26.052  19.359  16.108 -0.2924 -0.0903  0.3960
22839W        W65777  26.900  17.050  20.424 -0.1830 -0.0529 -0.2056
22840W        W65778  25.385  21.414  19.372  0.0624  0.1692  0.2287
22841W        W65779  25.131  21.186  19.716 -0.2683  0.3287  0.1671
22842W        W65780  28.869  22.031  19.836 -0.1493  0.1377 -0.1561
22843W        W65781  29.016  20.093  18.149 -0.1972 -0.1792  0.0886
22844W        W65782  27.926  17.532  19.701  0.1117  0.1747  0.2621
22845W        W65783  26.537  18.231  16.495 -0.1518 -0.2668 -0.3292
22846W        W65784  27.052  21.268  17.655 -0.2870  0.1199  0.5330
22847W        W65785  27.046  20.165  18.179 -0.0591 -0.0062  0.0503
22848W        W65786  25.673  18.613  18.503  0.0585 -0.2056 -0.0504
22849W        W65787  27.693  21.555  18.302  0.3417  0.1519 -0.1643
22850W        W65788  26.912  21.202  17.142  0.0571  0.1941  0.1707
22851W        W65789  28.884  20.454  19.201  0.1379  0.0003  0.1131
22852W        W65790  26.873  20.736  16.914 -0.3351  0.0166  0.1428
22853W        W65791  28.663  18.611  19.085  0.2419  0.0414  0.0944
22854W        W65792  25.074  22.072  18.624  0.0420  0.1479  0.0986
22855W        W65793  27.005  19.513  16.018 -0.2621  0.1444  0.1492
22856W        W65794  26.178  19.373  17.472  0.0061  0.1674  0.0704
22857W        W65795  28.919  19.323  17.319  0.1805  0.2451  0.0395
22858W        W65796  28.645  21.118  16.533 -0.3200  0.1047  0.0767
22859W        W65797  26.809  19.541  19.435 -0.4142  0.1977  0.3183
22860W        W65798  26.572  18.260  18.136 -0.4212 -0.3333  0.0074
22861W        W65799  25.423  21.655  17.266  0.2144  0.2387  0.0076
22862W        W65800  27.817  18.028  20.553 -0.0921 -0.0854 -0.1743
22863W        W65801  27.684  18.948  17.061 -0.0403 -0.0161  0.1102
22864W        W65802  28.475  20.224  18.436  0.4098 -0.3159  0.1240
22865W        W65803  28.074  19.564  20.869  0.2302  0.0173 -0.0476
22866W        W65804  25.070  19.223  16.181 -0.0781 -0.0962 -0.2019
22867W        W65805  28.779  19.017  19.967 -0.0471 -0.3352 -0.1081
22868W        W65806  26.758  20.673  18.287 -0.0167  0.0373  0.1920
22869W        W65807  26.478  20.570  18.834  0.0890 -0.1957  0.0192
22870W        W65808  27.803  23.028  18.454 -0.1227  0.1733 -0.0973
22871W        W65809  26.628  21.170  16.201 -0.1928  0.3473 -0.1099
22872W        W65810  25.621  22.262  17.950  0.2296  0.1432 -0.1531
22873W        W65811  26.511  18.425  18.649  0.1857  0.0843  0.2642
22874W        W65812  27.299  19.431  20.102 -0.1045 -0.1355 -0.0622
22875W        W65813  26.584  19.746  19.051 -0.0233 -0.1317  0.1170
22876W        W65814  27.137  18.865  16.994  0.1242 -0.3326 -0.0330
22877W        W65815  26.919  20.075  19.272 -0.0062 -0.0531 -0.1719
22878W        W65816  28.659  20.636  18.735  0.1205  0.3142  0.1615
22879W        W65817  28.350  19.210  18.906 -0.0775 -0.0312  0.0491
22880W        W65818  27.397  19.624  19.560  0.0452  0.0156  0.2386
22881W        W65819  28.943  17.366  17.978  0.4057  0.1219 -0.1042
22882W        W65820  28.561  21.859  17.173 -0.0554 -0.1843 -0.0170
22883W        W65821  29.128  18.425  19.919  0.0237  0.1129 -0.3345
22884W        W65822  27.693  20.960  15.959 -0.0439  0.1397 -0.0754
22885W        W65823  25.285  20.927  16.585 -0.1359 -0.2686 -0.0047
22886W        W65824  26.639  21.576  17.500  0.0679 -0.2696 -0.0672
22887W        W65825  27.574  17.670  19.121  0.0315  0.3666 -0.1411
22888W        W65826  26.182  22.055  17.981 -0.0174 -0.0714 -0.1123
22889W        W65827  26.204  21.082  16.377  0.1128 -0.0833  0.4674
22890W        W65828  25.720  22.039  19.725  0.3136 -0.0918 -0.2649
22891W        W65829  27.469  18.522  16.874 -0.2177  0.1522  0.2974
22892W        W65830  28.058  20.621  16.021  0.1407  0.2919  0.0316
22893W        W65831  26.072  18.278  18.229 -0.0650 -0.0936 -0.0171
22894W        W65832  30.353  17.873  21.164 -0.2349 -0.1395 -0.2393
22895W        W65833  27.471  19.632  17.214  0.0669 -0.0520 -0.1742
22896W        W65834  28.010  17.300  19.205 -0.3811  0.2649  0.0774
22897W        W65835  26.726  19.777  18.149 -0.0965  0.1613  0.1789
22898W        W65836  28.124  20.471  18.968  0.1101  0.1485  0.0226
22899W        W65837  25.915  19.499  18.090  0.0109  0.1211 -0.0670
22900W        W65838  27.141  21.537  20.518  0.0802 -0.1119  0.1287
22901W        W65839  25.851  20.396  19.099  0.1348  0.1608 -0.1731
22902W        W65840  27.799  17.544  18.290  0.0975  0.1205 -0.0740
22903W        W65841  26.722  18.774  15.975  0.2298 -0.1492  0.1973
22904W        W65842  27.098  21.612  18.225  0.0284  0.4952  0.1646
22905W        W65843  29.363  20.102  17.805 -0.0898 -0.0176 -0.0986
22906W        W65844  27.563  20.307  16.726  0.1661 -0.0694 -0.2638
22907W        W65845  28.612  19.723  18.101 -0.1130  0.3273 -0.0815
22908W        W65846  26.517  21.454  18.968  0.0488 -0.2777  0.0584
22909W        W65847  28.121  19.255  16.555  0.1469  0.0629  0.1136
22910W        W65848  27.311  18.544  18.015  0.0236 -0.0166  0.3008
22911W        W65849  28.449  20.394  17.976  0.0303  0.1931 -0.2447
22912W        W65850  26.941  18.626  19.766 -0.0335  0.0450  0.0307
22913W        W65851  29.740  21.016  18.640  0.1891  0.0949  0.0566
22914W        W65852  26.273  19.758  17.815  0.0816  0.1875  0.0644
22915W        W65853  28.185  17.588  18.706 -0.0948 -0.2614 -0.2605
22916W        W65854  28.411  18.727  18.684  0.3986  0.0705  0.0862
22917W        W65855  29.305  18.500  20.377 -0.0044 -0.0722  0.0047
22918W        W65856  25.631  20.519  19.929 -0.1180  0.1725 -0.3698
22919W        W65857  28.229  22.425  18.521 -0.1944 -0.1795  0.1376
22920W        W65858  29.191  17.884  17.313  0.2887  0.1707  0.1261
22921W        W65859  30.188  19.966  19.630 -0.0071  0.3968  0.3233
22922W        W65860  28.490  19.544  17.521  0.2181 -0.0745 -0.1190
22923W        W65861  27.100  17.753  17.320  0.1845  0.3540  0.3601
22924W        W65862  27.172  19.579  18.198  0.0841 -0.3433  0.1325
22925W        W65863  29.398  18.232  21.236 -0.1910 -0.1318  0.2023
22926W        W65864  26.836  20.107  16.222 -0.0944  0.0320  0.1088
22927W        W65865  28.411  18.509  20.016 -0.1803  0.0378 -0.0315
22928W        W65866  27.488  20.157  17.284  0.0509  0.1199  0.1423
22929W        W65867  27.796  19.950  16.959 -0.2844  0.3920 -0.0524
22930W        W65868  26.913  18.528  17.752 -0.3447 -0.0224  0.0460
22931W        W65869  26.507  18.759  17.385  0.1135 -0.1403 -0.0261
22932W        W65870  27.140  23.422  20.292  0.2263 -0.2121 -0.1548
22933W        W65871  24.531  17.445  15.308 -0.2862  0.1564 -0.1731
22934W        W65872  27.731  20.515  15.673  0.1472 -0.0854  0.2211
22935W        W65873  26.542  21.484  18.379  0.3225  0.1270 -0.0645
22936W        W65874  28.442  21.394  20.691  0.0466 -0.0971 -0.0396
22937W        W65875  26.072  18.914  17.009  0.1629 -0.0523  0.0382
22938W        W65876  29.488  17.336  19.916 -0.3305  0.3536 -0.0224
22939W        W65877  27.432  21.583  17.855  0.2882  0.0642 -0.2158
22940W        W65878  27.133  18.074  18.947 -0.0503 -0.2259  0.3666
22941W        W65879  26.904  22.323  19.787  0.1138 -0.1497  0.0267
22942W        W65880  24.492  20.481  18.471  0.0021 -0.2025 -0.2661
22943W        W65881  26.597  21.178  16.702  0.0296  0.1763 -0.0062
22944W        W65882  27.807  18.141  19.364  0.1803  0.1368 -0.1516
22945W        W65883  28.059  18.880  20.283  0.3336  0.0996 -0.1542
22946W        W65884  28.368  20.315  19.337 -0.2285  0.1605 -0.2889
22947W        W65885  28.510  18.954  20.382 -0.1595  0.2998 -0.3156
22948W        W65886  27.916  22.094  18.804 -0.2688 -0.0703 -0.0200
22949W        W65887  27.581  19.315  18.074  0.0118 -0.0617  0.1401
22950W        W65888  27.201  20.428  20.123  0.0088  0.1388 -0.3941
22951W        W65889  29.367  19.517  17.528 -0.1324  0.2488  0.1350
22952W        W65890  26.120  20.244  18.601 -0.0182 -0.0535 -0.1137
22953W        W65891  25.376  18.985  17.877  0.0982 -0.0177 -0.1915
22954W        W65892  27.874  17.603  20.317 -0.1427  0.1760  0.0950
22955W        W65893  27.907  19.358  16.975 -0.3129 -0.5045 -0.0680
22956W        W65894  24.503  18.539  16.031 -0.0161  0.0582 -0.0862
22957W        W65895  28.031  21.061  16.314 -0.1642  0.0595  0.0665
22958W        W65896  25.412  22.006  19.304  0.0220  0.1974 -0.4096
22959W        W65897  25.641  20.126  18.663  0.0591 -0.1232 -0.0764
22960W        W65898  26.374  21.321  17.198 -0.2107 -0.2224 -0.2334
22961W        W65899  27.701  21.734  16.505 -0.0346  0.2748  0.0357
22962W        W65900  27.070  21.014  16.487 -0.0803  0.3382  0.3727
22963W        W65901  27.687  21.545  20.674 -0.0237 -0.1370  0.0049
22964W        W65902  28.002  19.756  18.212 -0.1116 -0.3111  0.3862
22965W        W65903  27.250  20.712  19.681 -0.0553 -0.1619  0.0085
22966W        W65904  25.559  21.651  16.008 -0.2747  0.1774 -0.2355
22967W        W65905  28.309  20.885  17.021  0.0093 -0.1172 -0.2985
22968W        W65906  25.255  22.131  17.626  0.0620 -0.2837  0.2917
22969W        W65907  29.075  19.981  19.019 -0.0813 -0.1858  0.1281
22970W        W65908  28.918  19.932  16.262  0.0334  0.1650 -0.1591
22971W        W65909  28.353  19.084  17.415 -0.1972 -0.1669 -0.1111
22972W        W65910  28.994  20.105  17.274 -0.1002 -0.1704  0.2256
22973W        W65911  28.971  20.839  20.056  0.2493  0.1588  0.0723
22974W        W65912  28.529  17.883  18.135  0.0113 -0.1903  0.0654
22975W        W65913  26.191  19.503  16.991 -0.2540  0.2567  0.2002
22976W        W65914  26.807  19.318  18.996 -0.0668  0.2439 -0.1379
22977W        W65915  29.447  18.490  19.552  0.0834  0.1383 -0.0527
22978W        W65916  26.334  20.906  19.698  0.1349 -0.3615 -0.0695
22979W        W65917  29.086  21.257  17.193  0.1120 -0.2942  0.0664
22980W        W65918  25.808  19.847  16.897  0.0409 -0.1837 -0.0169
22981W        W65919  28.028  18.830  19.037  0.1844  0.3989  0.3305
22982W        W65920  29.773  16.448  19.581  0.2715  0.1691  0.0917
22983W        W65921  27.447  21.026  17.829 -0.2165 -0.0669  0.0246
22984W        W65922  28.211  18.057  19.729 -0.1101 -0.3762 -0.1382
22985W        W65923  25.372  22.413  18.473 -0.2189 -0.0565 -0.0325
22986W        W65924  26.254  21.174  18.085  0.2167  0.0054  0.1718
22987W        W65925  28.262  20.778  18.331 -0.0309  0.1580 -0.1485
22988W        W65926  24.906  18.387  15.653 -0.0505  0.1147 -0.0884
22989W        W65927  28.012  20.096  18.693 -0.1439 -0.2565 -0.0888
22990W        W65928  26.317  20.579  20.042  0.1844 -0.1695  0.0046
22991W        W65929  29.608  18.845  20.462  0.3601 -0.1864  0.3378
22992W        W65930  26.764  18.084  16.912 -0.0681 -0.1942 -0.0057
22993W        W65931  27.130  20.422  16.478  0.0197  0.0521  0.0503
22994W        W65932  27.620  20.858  18.263 -0.3226 -0.0288 -0.0222
22995W        W65933  26.243  20.719  18.338 -0.1402  0.1428 -0.0480
22996W        W65934  27.413  19.304  16.859 -0.2351 -0.0630  0.1288
22997W        W65935  30.236  18.788  21.254 -0.1154 -0.1261 -0.0126
22998W        W65936  26.372  19.307  16.603 -0.2513  0.1650 -0.2815
22999W        W65937  27.989  22.230  19.677  0.1352 -0.1162 -0.1079
23000W        W65938  26.371  18.467  17.007 -0.0957 -0.2421 -0.0646
23001W        W65939  26.992  20.806  17.431 -0.2282  0.1238  0.3293
23002W        W65940  26.672  19.399  17.630 -0.0718  0.3053  0.1708
23003W        W65941  25.949  20.720  18.771 -0.1021 -0.2825 -0.0257
23004W        W65942  28.781  20.931  18.279  0.2564 -0.1018  0.0298
23005W        W65943  26.088  18.037  16.264 -0.2028 -0.0028  0.2465
23006W        W65944  29.093  21.372  16.512 -0.0554  0.0297 -0.0826
23007W        W65945  29.527  20.343  18.858  0.0449  0.1777 -0.3582
23008W        W65946  26.536  22.569  16.810  0.3146  0.0678 -0.2736
23009W        W65947  29.475  20.025  17.350  0.2448 -0.1189  0.2323
23010W        W65948  29.385  23.743  17.682  0.1864  0.1428 -0.0808
23011W        W65949  26.623  20.189  17.762 -0.2442  0.2553 -0.0541
23012W        W65950  29.155  22.862  18.735 -0.0269 -0.0050  0.0524
23013W        W65951  28.978  20.322  18.640 -0.2079 -0.3995  0.3010
23014W        W65952  26.971  17.313  17.514 -0.2546  0.1183 -0.1457
23015W        W65953  25.617  17.931  17.157 -0.1251 -0.2858  0.0067
23016W        W65954  26.363  22.048  17.067 -0.2848  0.1120  0.3440
23017W        W65955  29.622  19.844  19.824 -0.0216  0.0224  0.0131
23018W        W65956  27.900  19.543  19.623 -0.1309 -0.0331  0.2240
23019W        W65957  26.949  22.285  16.864 -0.2304 -0.1293 -0.3117
23020W        W65958  29.254  17.738  19.125  0.0294  0.1603  0.0047
23021W        W65959  27.200  20.831  18.831 -0.2860  0.3634  0.0914
23022W        W65960  27.958  21.167  18.553 -0.3279  0.0804 -0.2170
23023W        W65961  25.863  21.253  16.027 -0.2149  0.1582  0.1321
23024W        W65962  28.745  18.499  20.352  0.1203 -0.2011  0.1851
23025W        W65963  27.921  20.916  17.382  0.0718 -0.2262 -0.1212
23026W        W65964  26.696  21.096  18.593 -0.0961  0.6224 -0.1890
23027W        W65965  28.237  22.678  18.105 -0.1927 -0.0897 -0.0855
23028W        W65966  28.621  17.961  19.181  0.3642  0.2115  0.0604
23029W        W65967  28.486  19.280  16.962  0.1383  0.1405  0.3136
23030W        W65968  27.243  18.086  17.738  0.0484 -0.1615 -0.1382
23031W        W65969  28.125  18.954  18.321  0.3474  0.3607 -0.1710
23032W        W65970  28.227  19.679  16.841 -0.0635  0.1381  0.0101
23033W        W65971  25.637  20.230  20.356 -0.1686  0.1070  0.0965
23034W        W65972  24.966  19.968  15.773  0.0032 -0.0610  0.2604
23035W        W65973  26.825  21.017  15.737 -0.3687  0.0640  0.0159
23036W        W65974  26.203  21.144  18.637  0.0250 -0.0708 -0.3280
23037W        W65975  27.328  18.212  20.539 -0.0920  0.0511  0.1829
23038W        W65976  25.574  19.241  19.877  0.3028 -0.1975  0.1465
23039W        W65977  26.101  21.097  17.493 -0.2959  0.0531  0.0227
23040W        W65978  25.955  18.868  16.070 -0.0800  0.0492  0.0984
23041W        W65979  28.856  20.895  16.935  0.3302  0.2716  0.0008
23042W        W65980  25.211  19.120  17.448  0.0188  0.0249 -0.0589
23043W        W65981  25.559  18.901  17.142 -0.1914 -0.2025  0.1023
23044W        W65982  27.447  19.172  17.485  0.0459  0.4060  0.2349
23045W        W65983  27.510  20.607  17.558 -0.0325 -0.1178 -0.0646
23046W        W65984  26.671  19.644  16.849 -0.0330 -0.2235 -0.1958
23047W        W65985  28.651  20.398  21.483 -0.0683  0.1165  0.0030
23048W        W65986  25.503  21.274  15.678 -0.0496  0.0519  0.2507
23049W        W65987  28.328  18.024  20.231  0.3621 -0.0586 -0.1421
23050W        W65988  26.040  20.273  17.856  0.0435  0.4008  0.0570
23051W        W65989  24.577  18.702  16.548 -0.0180  0.1682 -0.0991
23052W        W65990  26.821  19.216  18.364 -0.0786  0.1049 -0.0939
23053W        W65991  27.037  21.217  19.121  0.0050 -0.1365  0.0093
23054W        W65992  27.506  20.775  16.417  0.3466 -0.0233  0.1293
23055W        W65993  26.947  20.607  19.272  0.3459 -0.0027  0.4370
23056W        W65994  28.485  21.674  19.320 -0.0760  0.0686  0.2804
23057W        W65995  25.084  18.036  18.244  0.0954 -0.4287 -0.2485
23058W        W65996  27.581  21.236  16.438  0.2274  0.0945 -0.0814
23059W        W65997  26.703  20.542  19.653 -0.2344  0.3409  0.0902
23060W        W65998  29.119  20.462  16.886 -0.0280  0.1454  0.0452
23061W        W65999  29.132  19.465  19.012 -0.2457  0.2043  0.0163
23062W        W66000  27.771  20.849  18.888 -0.0204  0.0473 -0.0407
23063W        W66001  25.857  18.332  19.546 -0.3585 -0.2455  0.1079
23064W        W66002  26.236  21.371  19.590  0.0965  0.3657  0.0571
23065W        W66003  28.561  20.091  18.928  0.0733  0.2258  0.0445
23066W        W66004  27.775  19.371  19.163  0.0909  0.2078  0.2409
23067W        W66005  28.709  18.861  18.244  0.1402 -0.0610 -0.0761
23068W        W66006  28.172  21.500  16.512  0.0510  0.3001  0.0133
23069W        W66007  24.922  20.395  18.198  0.1338 -0.1285 -0.0983
23070W        W66008  27.776  18.946  17.819  0.0283 -0.1444  0.0719
23071W        W66009  27.573  19.057  19.963  0.0626  0.4094 -0.3893
23072W        W66010  27.366  19.959  18.469  0.1835 -0.1561 -0.2582
23073W        W66011  28.807  20.720  17.846  0.1229  0.2125 -0.0073
23074W        W66012  27.403  21.106  17.360 -0.0438 -0.2194  0.0056
23075W        W66013  28.592  20.446  17.035  0.1222  0.3193  0.2263
23076W        W66014  27.374  22.461  20.463  0.0740 -0.0813 -0.0193
23077W        W66015  29.007  22.344  20.184  0.1616  0.0781  0.4500
23078W        W66016  27.485  22.078  19.027 -0.0971  0.1017 -0.0196
23079W        W66017  29.225  19.003  17.691 -0.0443  0.0423  0.0322
23080W        W66018  25.066  17.611  17.365  0.0353  0.0970  0.2112
23081W        W66019  27.530  20.408  18.028  0.0878 -0.0149 -0.2722
23082W        W66020  28.485  19.277  18.402 -0.0232  0.1144  0.1989
23083W        W66021  29.627  19.827  18.996 -0.0545  0.3155 -0.1751
23084W        W66022  28.361  18.897  17.878 -0.1040  0.0968 -0.0434
23085W        W66023  29.225  19.123  16.944 -0.0928 -0.5034  0.0258
23086W        W66024  27.282  21.304  19.634  0.3683 -0.1423  0.3268
23087W        W66025  28.848  21.285  17.926 -0.2179  0.1080 -0.3196
23088W        W66026  26.024  21.677  22.384 -0.0755 -0.0938 -0.1485
23089W        W66027  26.044  18.612  21.410  0.2041  0.0468  0.0632
23090W        W66028  29.718  17.161  18.538 -0.0675  0.0754  0.1033
23091W        W66029  30.144  20.608  22.214  0.3569  0.2338 -0.1161
23092W        W66030  27.319  18.883  22.174  0.0634  0.2140 -0.2630
23093W        W66031  28.407  21.581  22.222  0.3262 -0.1273  0.2031
23094W        W66032  27.475  19.599  23.271  0.3790  0.2841  0.0608
23095W        W66033  29.105  20.088  22.978  0.2063 -0.1697  0.1755
23096W        W66034  28.274  21.693  22.727  0.1934  0.1449 -0.0168
23097W        W66035  28.542  19.460  20.870 -0.3124 -0.1373  0.0603
23098W        W66036  26.276  20.872  23.275  0.1525  0.0208 -0.0588
23099W        W66037  26.611  21.181  21.834  0.0482 -0.0555 -0.2628
23100W        W66038  28.204  19.086  20.727  0.0636  0.0156  0.1760
23101W        W66039  25.329  19.237  22.817  0.0333 -0.0366 -0.0584
23102W        W66040  29.533  20.685  22.970  0.2555 -0.0702  0.2914
23103W        W66041  26.541  19.957  19.651  0.2073  0.0847 -0.3237
23104W        W66042  27.987  20.130  22.500  0.0767  0.0112  0.0585
23105W        W66043  27.348  19.685  21.359  0.0963 -0.1054  0.0437
23106W        W66044  27.093  21.069  21.333  0.0734 -0.2285  0.2698
23107W        W66045  28.412  19.695  22.869 -0.2129  0.0354 -0.0479
23108W        W66046  25.987  19.144  24.780 -0.4674  0.0607  0.0811
23109W        W66047  26.982  20.391  21.210  0.1757  0.1176  0.0827
23110W        W66048  27.348  16.871  20.123  0.0845  0.3115  0.1094
23111W        W66049  25.149  19.693  22.888 -0.0156 -0.0496 -0.4644
23112W        W66050  26.215  19.507  21.925  0.2389 -0.0381 -0.1609
23113W        W66051  28.367  18.923  22.716 -0.4325  0.1936 -0.0607
23114W        W66052  29.096  20.733  21.237  0.0303  0.3832  0.0437
23115W        W66053  28.817  22.529  23.361 -0.2390  0.1392  0.3913
23116W        W66054  28.581  21.050  23.330 -0.3574  0.1401  0.1276
23117W        W66055  27.809  18.061  22.440 -0.1489 -0.0126  0.0267
23118W        W66056  26.703  20.805  21.381  0.1771  0.2205  0.0517
23119W        W66057  25.154  21.291  21.625 -0.1068 -0.0389  0.0577
23120W        W66058  26.008  20.804  20.810  0.1527  0.5307 -0.1588
23121W        W66059  29.639  18.742  21.514 -0.3826 -0.0146 -0.3438
23122W        W66060  29.339  21.635  22.391  0.0335  0.0744  0.0867
23123W        W66061  27.269  21.737  23.750  0.0235  0.1217 -0.0583
23124W        W66062  24.399  20.901  19.128  0.0718  0.1655 -0.1193
23125W        W66063  28.181  21.773  23.547 -0.0961 -0.2205 -0.0087
23126W        W66064  25.981  20.798  22.894 -0.3696 -0.0998 -0.0353
23127W        W66065  28.210  20.458  23.258  0.0247  0.0026 -0.1243
23128W        W66066  29.187  19.747  23.407  0.1132  0.0204 -0.1655
23129W        W66067  28.615  20.253  19.887 -0.4475  0.2930 -0.1384
23130W        W66068  28.000  20.526  22.809  0.1147  0.1788 -0.0844
23131W        W66069  27.011  21.865  21.936 -0.0009 -0.2089 -0.2770
23132W        W66070  24.758  22.208  21.566  0.1765 -0.1720 -0.0769
23133W        W66071  29.860  20.442  23.984 -0.1203  0.0663 -0.2458
23134W        W66072  26.977  21.311  20.056 -0.1650 -0.1290  0.0805
23135W        W66073  29.877  19.159  21.446  0.0756  0.1664  0.0125
23136W        W66074  27.253  18.628  20.847  0.2591 -0.0601 -0.0797
23137W        W66075  29.393  19.717  20.845  0.0459 -0.0430 -0.0147
23138W        W66076  27.951  18.972  22.367  0.3651  0.1735 -0.3948
23139W        W66077  28.760  22.001  20.754  0.0488  0.2113 -0.1991
23140W        W66078  27.865  19.175  23.505 -0.2348 -0.0581 -0.0011
23141W        W66079  27.921  21.094  24.409  0.0768  0.0596 -0.0176
23142W        W66080  29.036  19.497  21.721 -0.1849  0.1365 -0.0797
23143W        W66081  29.610  19.360  23.227  0.1172  0.0261 -0.0725
23144W        W66082  27.177  22.328  20.906  0.1063 -0.0970  0.3700
23145W        W66083  25.774  20.057  22.240  0.0007  0.3360 -0.0143
23146W        W66084  28.319  19.530  20.382  0.2899  0.0529  0.1394
23147W        W66085  29.501  21.867  21.106  0.2626  0.1790  0.0142
23148W        W66086  28.063  21.289  19.175 -0.2545 -0.0520 -0.1480
23149W        W66087  25.905  19.836  20.480 -0.0183  0.0007 -0.3204
23150W        W66088  26.143  21.240  22.012 -0.0053 -0.0411 -0.2772
23151W        W66089  25.086  20.986  23.004  0.1523  0.2082  0.0449
23152W        W66090  26.311  17.914  20.619  0.0165 -0.0066 -0.0120
23153W        W66091  29.774  21.667  22.041 -0.0726 -0.1149  0.0485
23154W        W66092  24.345  20.364  24.713  0.1195  0.4138 -0.0665
23155W        W66093  29.384  19.415  22.404 -0.0078 -0.2350 -0.1082
23156W        W66094  27.519  20.682  22.088 -0.2655 -0.2510  0.0575
23157W        W66095  28.706  21.588  23.528  0.1991 -0.0402 -0.2030
23158W        W66096  27.876  20.221  19.490  0.0680  0.1464 -0.0417
23159W        W66097  29.322  17.759  21.376  0.0234  0.0101 -0.1829
23160W        W66098  28.918  18.394  23.565 -0.0028 -0.4410  0.2202
23161W        W66099  27.448  21.315  18.818  0.3791 -0.0002  0.0535
23162W        W66100  27.283  19.809  22.485  0.1188  0.2472  0.0510
23163W        W66101  29.902  21.789  23.672 -0.1945 -0.1127 -0.2215
23164W        W66102  29.678  20.117  20.748  0.0416 -0.0853 -0.1748
23165W        W66103  27.943  22.493  22.735 -0.2207 -0.0966  0.1649
23166W        W66104  27.255  20.093  24.138  0.1155 -0.0380 -0.2203
23167W        W66105  27.207  20.565  23.025  0.1887  0.0570  0.1711
23168W        W66106  27.606  19.832  19.968  0.1356 -0.0566 -0.1661
23169W        W66107  26.365  19.497  22.864 -0.1016 -0.4165  0.1301
23170W        W66108  25.768  21.183  20.696 -0.0284 -0.0780  0.3101
23171W        W66109  26.949  19.794  24.335  0.0151 -0.2191  0.1024
23172W        W66110  26.144  20.375  23.099  0.1647  0.2363 -0.0118
23173W        W66111  28.782  17.851  21.444 -0.1898  0.1474  0.1433
23174W        W66112  26.051  19.403  23.262 -0.1453  0.0024 -0.2820
23175W        W66113  29.400  18.357  22.360 -0.2915  0.0346 -0.0491
23176W        W66114  25.778  20.226  20.842 -0.0624 -0.2008 -0.0017
23177W        W66115  30.352  23.604  21.380  0.0247  0.2512  0.0597
23178W        W66116  29.704  21.047  20.331 -0.1635 -0.2842  0.2306
23179W        W66117  27.603  20.689  20.522 -0.0002  0.2084 -0.1863
23180W        W66118  26.946  21.378  22.288 -0.0335  0.1617 -0.0254
23181W        W66119  26.816  19.252  22.678 -0.2098 -0.1268  0.1146
23182W        W66120  26.700  19.050  23.678 -0.0452  0.2053  0.0925
23183W        W66121  26.922  18.829  21.412 -0.4787 -0.2954  0.0279
23184W        W66122  28.937  19.546  22.239  0.4166  0.3759  0.0318
23185W        W66123  27.542  17.462  21.239  0.0855 -0.2473  0.0027
23186W        W66124  30.203  19.092  22.468  0.0582  0.0230  0.1623
23187W        W66125  28.210  20.226  21.459  0.0712 -0.2243 -0.2824
23188W        W66126  24.640  21.482  22.216  0.0460  0.0698 -0.2330
23189W        W66127  28.167  19.556  23.981  0.0266  0.2016 -0.0210
23190W        W66128  28.064  21.336  21.003  0.0976 -0.3982  0.1806
23191W        W66129  29.517  22.027  22.813 -0.0038 -0.0574 -0.0952
23192W        W66130  29.064  23.284  20.877  0.0563 -0.3315  0.6921
23193W        W66131  26.527  20.098  22.784 -0.1039 -0.0330  0.2301
23194W        W66132  26.241  18.152  19.926  0.1194  0.2103 -0.1385
23195W        W66133  25.757  21.299  21.723  0.2340 -0.1716 -0.2486
23196W        W66134  28.239  20.718  21.761  0.2608  0.1462  0.0336
23197W        W66135  26.143  19.971  21.075  0.1429 -0.0894 -0.0460
23198W        W66136  29.561  23.071  23.908  0.0807  0.3264 -0.1554
23199W        W66137  29.504  21.214  22.298  0.2031 -0.1647 -0.1050
23200W        W66138  25.791  19.608  21.475  0.0639 -0.2001  0.0142
23201W        W66139  28.529  19.658  24.271  0.3942  0.1920  0.1121
23202W        W66140  29.758  19.802  23.878  0.1297 -0.3330  0.2967
23203W        W66141  28.665  19.349  21.372  0.0864 -0.3285  0.0061
23204W        W66142  27.229  18.689  19.283  0.0236  0.0132 -0.1527
23205W        W66143  27.677  22.142  21.322 -0.0321  0.1503 -0.2004
23206W        W66144  26.683  21.228  20.593 -0.2843 -0.1513  0.1903
23207W        W66145  26.529  20.272  21.407 -0.0734 -0.0912 -0.0081
23208W        W66146  27.645  21.141  21.377 -0.0434 -0.2530 -0.2282
23209W        W66147  27.453  18.897  21.412 -0.1180 -0.1333 -0.1855
23210W        W66148  24.147  20.926  25.014 -0.2575  0.0370  0.1355
23211W        W66149  27.121  20.341  23.584  0.1195  0.1341 -0.0778
23212W        W66150  25.961  19.600  19.826  0.0835 -0.0692 -0.1455
23213W        W66151  27.677  22.247  23.244 -0.1481 -0.1822  0.0680
23214W        W66152  28.169  18.616  21.566  0.0104  0.1698 -0.0171
23215W        W66153  28.705  19.754  19.992 -0.1761  0.1428 -0.0786
23216W        W66154  27.462  20.543  24.019 -0.0564 -0.0800  0.0016
23217W        W66155  30.763  20.523  21.429  0.1457  0.1864 -0.1721
23218W        W66156  29.036  19.271  20.843  0.0638  0.0271  0.0588
23219W        W66157  28.240  18.497  19.432  0.2634 -0.0178  0.3002
23220W        W66158  25.030  20.780  25.275  0.1249  0.2020 -0.0382
23221W        W66159  28.516  21.525  21.742  0.0525  0.0557  0.1960
23222W        W66160  27.824  20.419  21.776  0.3633 -0.0286 -0.0001
23223W        W66161  27.848  19.293  20.447 -0.1348  0.2247  0.0973
23224W        W66162  29.204  22.896  22.645 -0.1979 -0.1303 -0.1212
23225W        W66163  26.656  20.926  22.305 -0.1087 -0.0685  0.0830
23226W        W66164  27.403  21.137  23.737  0.2029 -0.0860  0.1970
23227W        W66165  29.224  22.161  21.446  0.0327 -0.0722  0.0664
23228W        W66166  28.763  19.179  22.897  0.0005  0.1188 -0.1200
23229W        W66167  27.461  20.252  20.787 -0.0073  0.3485  0.1233
23230W        W66168  27.322  19.067  20.441  0.1071  0.1037 -0.0024
23231W        W66169  25.814  21.109  19.930  0.0412 -0.3669 -0.0895
23232W        W66170  29.653  18.254  21.692 -0.1727  0.0720 -0.1483
23233W        W66171  28.783  17.658  22.143  0.4233 -0.1262  0.0491
23234W        W66172  27.911  19.155  23.990 -0.0976  0.0106 -0.1051
23235W        W66173  28.790  21.316  24.444 -0.1753 -0.1676 -0.2394
23236W        W66174  29.510  19.251  20.898  0.0363  0.3384 -0.1126
23237W        W66175  29.618  17.713  23.893  0.1130 -0.2163 -0.0271
23238W        W66176  28.002  18.738  19.809 -0.0212  0.1824  0.4406
23239W        W66177  26.505  19.515  23.567 -0.0521  0.0242  0.0496
23240W        W66178  25.448  21.415  21.260  0.3667  0.1956  0.2068
23241W        W66179  26.527  20.458  22.354  0.0255  0.0452  0.4790
23242W        W66180  29.191  22.308  23.582 -0.1345  0.0971 -0.0075
23243W        W66181  28.950  19.655  21.143 -0.0583  0.0043 -0.0721
23244W        W66182  26.251  20.387  23.569 -0.2486 -0.0833 -0.4508
23245W        W66183  28.685  18.147  19.656 -0.0146 -0.4116 -0.1150
23246W        W66184  26.155  20.086  19.979  0.1491 -0.2754 -0.0221
23247W        W66185  27.519  19.931  19.124 -0.3188  0.0006 -0.0248
23248W        W66186  27.422  18.045  22.804  0.0131  0.2127  0.2326
23249W        W66187  27.405  21.161  22.240 -0.2716 -0.0982 -0.0692
23250W        W66188  28.213  20.962  20.114 -0.0742 -0.0569  0.1821
23251W        W66189  29.032  20.566  22.776 -0.1423 -0.0682 -0.0889
23252W        W66190  27.400  20.201  19.616 -0.4065  0.1942 -0.0894
23253W        W66191  29.116  18.962  24.442 -0.1275 -0.0855  0.1180
23254W        W66192  28.465  20.309  23.857 -0.0828  0.2332  0.1627
23255W        W66193  29.500  20.457  21.087 -0.1717  0.0471  0.3929
23256W        W66194  26.574  19.312  20.960  0.0954 -0.0192  0.0217
23257W        W66195  27.555  18.568  22.538  0.0056 -0.1662  0.0517
23258W        W66196  29.125  20.931  19.534 -0.2783  0.2420 -0.1272
23259W        W66197  27.319  17.465  22.982 -0.1002 -0.0724 -0.2711
23260W        W66198  28.560  18.081  23.255 -0.0779 -0.1303 -0.1318
23261W        W66199  26.167  21.438  22.958  0.0133 -0.0476 -0.1440
23262W        W66200  28.442  20.273  21.980 -0.1636  0.1645 -0.1696
23263W        W66201  28.804  18.026  20.143  0.1670  0.2410  0.1668
23264W        W66202  30.756  21.743  23.720 -0.2504  0.2020 -0.1873
23265W        W66203  26.856  20.787  23.346 -0.1239  0.1029 -0.3756
23266W        W66204  24.439  19.011  19.341  0.2770  0.2224  0.1175
23267W        W66205  28.908  19.652  22.784 -0.1084  0.2433  0.0795
23268W        W66206  26.423  19.084  21.533  0.2960  0.1925  0.2466
23269W        W66207  26.863  20.234  20.690 -0.0619 -0.1015  0.1062
23270W        W66208  28.658  20.887  22.727 -0.2882 -0.0946  0.0092
23271W        W66209  26.407  19.923  20.647  0.0941  0.0343  0.0266
23272W        W66210  27.713  18.937  20.785  0.0113  0.1953  0.2670
23273W        W66211  26.351  19.530  21.336 -0.1834 -0.1407  0.0029
23274W        W66212  28.634  20.933  24.842  0.0598  0.2915 -0.2441
23275W        W66213  27.293  20.220  22.027  0.1388  0.2353  0.1394
23276W        W66214  27.150  19.148  21.765  0.1462  0.4418 -0.0416
23277W        W66215  27.317  21.337  22.702 -0.0118  0.3272 -0.1419
23278W        W66216  28.403  20.488  22.573  0.1229 -0.2971  0.2163
23279W        W66217  29.402  19.715  22.865 -0.3438 -0.0464  0.3362
23280W        W66218  26.167  22.031  22.785  0.0166 -0.0417 -0.1338
23281W        W66219  28.542  18.599  22.995  0.2013 -0.1731  0.2449
23282W        W66220  30.380  23.111  20.154  0.1400  0.0641  0.0471
23283W        W66221  28.705  19.145  24.673  0.1575  0.0942 -0.2387
23284W        W66222  26.462  18.702  21.180  0.1117  0.2892  0.0828
23285W        W66223  24.577  19.369  23.599  0.0832  0.1019 -0.1691
23286W        W66224  27.919  22.655  21.492  0.1312 -0.0300 -0.1731
23287W        W66225  27.517  20.304  22.428  0.1984  0.2360  0.1983
23288W        W66226  27.277  19.973  20.335 -0.0140 -0.1810 -0.1421
23289W        W66227  27.722  20.815  19.905  0.2505  0.1364  0.0757
23290W        W66228  26.185  21.537  21.603  0.0181  0.0588 -0.2264
23291W        W66229  29.728  18.089  19.779  0.1323  0.3300  0.0354
23292W        W66230  28.636  20.422  20.600 -0.1782  0.1307 -0.1387
23293W        W66231  28.775  19.505  23.291 -0.1592  0.1722 -0.0613
23294W        W66232  29.275  18.827  22.396  0.1880  0.0242  0.0126
23295W        W66233  29.736  20.022  21.583  0.3260 -0.0762 -0.1431
23296W        W66234  27.192  20.005  23.133 -0.0180 -0.0376  0.1959
23297W        W66235  27.563  19.264  22.115  0.0990  0.3799 -0.2074
23298W        W66236  28.026  20.618  22.191  0.2645 -0.1073 -0.1301
23299W        W66237  26.470  18.939  24.572 -0.2180 -0.0517 -0.1175
23300W        W66238  27.574  22.310  24.863  0.0349 -0.0016  0.4812
23301W        W66239  26.441  20.949  22.776  0.2784 -0.1602 -0.1163
23302W        W66240  28.592  19.423  21.887 -0.2019 -0.0427 -0.4513
23303W        W66241  26.859  19.293  19.877 -0.0025  0.1038 -0.2163
23304W        W66242  26.784  19.750  22.999 -0.1833  0.2195 -0.2840
23305W        W66243  29.150  21.015  21.832 -0.0327  0.3285  0.3458
23306W        W66244  27.356  20.184  21.502 -0.1590  0.0188 -0.1602
23307W        W66245  30.495  19.545  21.542 -0.2008 -0.3428 -0.1700
23308W        W66246  26.178  19.958  21.625 -0.1277  0.1225  0.0414
23309W        W66247  28.618  20.740  22.196  0.1779  0.0333  0.0958
23310W        W66248  27.936  18.904  21.261 -0.2786  0.1942 -0.0767
23311W        W66249  27.586  20.032  22.819  0.2810  0.3952 -0.0047
23312W        W66250  26.085  18.428  23.991 -0.0527  0.2968 -0.4316
23313W        W66251  28.872  20.229  21.059  0.1973  0.3669  0.0540
23314W        W66252  28.546  19.352  22.517 -0.0163 -0.0611  0.1584
23315W        W66253  28.386  19.201  23.681 -0.0164  0.2397 -0.1055
23316W        W66254  29.130  18.205  23.138  0.2012  0.0383 -0.1152
23317W        W66255  26.753  20.270  23.301  0.0345  0.0757  0.0387
23318W        W66256  25.295  18.746  23.382 -0.3095 -0.0869  0.2551
23319W        W66257  29.767  22.360  24.009  0.1291  0.3536  0.1535
23320W        W66258  29.902  20.484  21.529  0.1240  0.0537  0.0356
23321W        W66259  29.534  19.042  24.103  0.0500  0.2481 -0.1826
23322W        W66260  30.218  19.935  21.566 -0.2113  0.2011 -0.2096
23323W        W66261  27.967  20.366  20.665 -0.0354  0.0399  0.2991
23324W        W66262  26.110  19.929  22.865  0.0950 -0.1807 -0.1342
23325W        W66263  29.835  21.756  23.171 -0.0700 -0.0352 -0.2219
23326W        W66264  26.989  19.718  18.764  0.0215  0.2216  0.0635
23327W        W66265  29.151  19.073  23.346 -0.0087 -0.1813  0.0622
23328W        W66266  28.149  20.471  19.765  0.3099  0.1035  0.1807
23329W        W66267  28.492  19.879  22.342 -0.1146 -0.0565  0.0265
23330W        W66268  29.499  18.679  21.986 -0.0237 -0.1337  0.0922
23331W        W66269  25.591  18.547  22.043  0.0925  0.0860 -0.1192
23332W        W66270  26.162  21.659  23.820 -0.1586  0.1290  0.1530
23333W        W66271  27.115  20.236  18.828  0.0084 -0.0112 -0.1089
23334W        W66272  27.055  20.901  22.010  0.1933  0.2912  0.0117
23335W        W66273  26.850  21.490  22.800 -0.1191  0.3661  0.0599
23336W        W66274  31.071  20.327  24.747 -0.0292 -0.1324 -0.0608
23337W        W66275  26.613  19.479  22.274  0.0452 -0.2917 -0.0689
23338W        W66276  30.361  18.351  24.801  0.1296 -0.0812  0.4230
23339W        W66277  25.900  21.671  21.022  0.2262  0.1184 -0.2575
23340W        W66278  28.260  17.644  20.837 -0.1449  0.1057 -0.1355
23341W        W66279  27.388  21.675  22.307  0.0170 -0.1497 -0.3255
23342W        W66280  25.804  20.500  23.872  0.1166  0.1190  0.1335
23343W        W66281  27.689  19.897  22.109  0.0727  0.0900 -0.2009
23344W        W66282  28.092  18.885  23.102 -0.4021  0.0238 -0.3203
23345W        W66283  29.685  20.089  24.314 -0.0073 -0.2436 -0.0759
23346W        W66284  28.094  19.592  21.397  0.3413  0.2321 -0.0229
23347W        W66285  30.240  20.097  24.027  0.0871  0.0688 -0.2028
23348W        W66286  27.785  21.966  24.155  0.1038  0.0909 -0.3120
23349W        W66287  26.459  20.681  21.867  0.0907  0.1737  0.0860
23350W        W66288  27.650  20.894  23.044 -0.3193 -0.2818 -0.2971
23351W        W66289  29.683  19.619  21.268  0.1153  0.0416  0.1456
23352W        W66290  26.757  19.965  21.730 -0.2328  0.2232  0.3568
23353W        W66291  25.437  20.661  22.946  0.1053  0.0201 -0.0792
23354W        W66292  29.199  19.806  23.906 -0.1058  0.2433 -0.0176
23355W        W66293  28.615  19.836  21.627  0.2654  0.1475  0.0498
23356W        W66294  27.544  17.399  21.830  0.3401 -0.1510  0.0536
23357W        W66295  27.391  20.696  21.033 -0.0451  0.1614  0.0645
23358W        W66296  24.868  21.559  23.585  0.1659 -0.0921 -0.1100
23359W        W66297  25.857  19.947  23.313 -0.2328  0.3019  0.0902
23360W        W66298  26.551  23.022  20.856 -0.1243  0.1907 -0.4203
23361W        W66299  28.638  21.024  21.065  0.0560  0.3613  0.1665
23362W        W66300  29.283  21.511  21.894  0.0500  0.0916  0.0567
23363W        W66301  28.426  22.580  23.120 -0.0982  0.0151  0.0072
23364W        W66302  29.990  20.185  21.132 -0.0007 -0.0418  0.2763
23365W        W66303  26.112  20.475  21.218 -0.1394  0.0792  0.0597
23366W        W66304  25.656  20.934  19.099 -0.0578 -0.0098 -0.0139
23367W        W66305  26.233  22.252  21.479 -0.0818 -0.2064 -0.0251
23368W        W66306  25.892  22.075  20.226 -0.2179 -0.2141  0.3133
23369W        W66307  28.904  20.695  23.669 -0.0057  0.2864 -0.3873
23370W        W66308  28.620  17.504  19.521  0.2336 -0.0732  0.1905
23371W        W66309  30.211  19.710  21.082 -0.0449 -0.2876  0.1274
23372W        W66310  29.871  18.347  21.276 -0.0265  0.1414 -0.0006
23373W        W66311  28.253  20.901  22.961 -0.2597 -0.1731  0.1970
23374W        W66312  26.827  20.003  22.322 -0.1342 -0.0597 -0.0318
23375W        W66313  27.073  18.562  20.270  0.1876  0.0812  0.1670
23376W        W66314  26.476  21.227  21.342  0.1564  0.2711 -0.0331
23377W        W66315  29.945  19.356  24.019 -0.2289  0.1209  0.0461
23378W        W66316  26.307  22.190  24.161 -0.0638  0.0111  0.3641
23379W        W66317  29.597  21.663  19.788 -0.1547 -0.2240  0.1555
23380W        W66318  26.165  18.486  20.498 -0.3274  0.1131  0.1075
23381W        W66319  27.164  18.401  21.326  0.0006  0.5275 -0.0406
23382W        W66320  29.426  17.850  23.395  0.2022  0.3264  0.0529
23383W        W66321  28.022  19.435  21.992 -0.0355  0.0874  0.2354
23384W        W66322  28.877  20.314  22.360 -0.1283  0.2369  0.0241
23385W        W66323  26.705  22.162  20.741 -0.3031  0.0568 -0.0338
23386W        W66324  27.890  21.489  22.343  0.2921 -0.3833  0.1929
23387W        W66325  27.436  20.777  22.591 -0.2354 -0.0331 -0.0587
23388W        W66326  27.654  19.331  21.162 -0.0210  0.0160 -0.0508
23389W        W66327  28.766  18.924  22.417  0.0218 -0.0294 -0.0226
23390W        W66328  28.243  21.382  23.176 -0.2997  0.3945 -0.1084
23391W        W66329  29.677  18.899  23.125  0.0501 -0.2445 -0.2005
23392W        W66330  25.009  19.612  20.106 -0.1869 -0.0139 -0.1595
23393W        W66331  30.345  19.240  21.969  0.0228  0.0483  0.1364
23394W        W66332  26.887  19.778  23.494  0.1377  0.0492  0.1227
23395W        W66333  27.839  19.417  22.925 -0.0787 -0.0443 -0.3585
23396W        W66334  26.918  17.583  20.231 -0.2500 -0.2231 -0.0181
23397W        W66335  28.165  20.788  24.747 -0.0210  0.0718  0.2125
23398W        W66336  28.779  20.006  19.430 -0.0242 -0.0899  0.0557
23399W        W66337  28.158  22.218  23.264  0.1386 -0.3682  0.0117
23400W        W66338  26.636  18.692  21.784  0.2420 -0.0513  0.2605
23401W        W66339  28.451  18.965  21.196 -0.0931 -0.2014 -0.0762
23402W        W66340  27.227  19.149  20.901 -0.0646 -0.1999  0.0235
23403W        W66341  27.935  19.950  23.199  0.0284 -0.1096 -0.3559
23404W        W66342  27.685  21.814  22.700 -0.2853 -0.0854 -0.1951
23405W        W66343  26.556  17.256  20.128  0.0729 -0.1311  0.1132
23406W        W66344  28.309  20.715  21.299 -0.0641 -0.1050  0.0236
23407W        W66345  30.214  19.000  22.963 -0.1303  0.1706  0.1722
23408W        W66346  26.775  19.885  21.217 -0.4027  0.2439 -0.0735
23409W        W66347  30.170  21.394  21.707 -0.0379 -0.3604  0.2322
23410W        W66348  28.309  22.152  22.750  0.2008  0.1779 -0.3411
23411W        W66349  26.469  18.739  24.055  0.1895  0.0189  0.1824
23412W        W66350  29.123  21.283  22.641  0.1132 -0.1998 -0.2615
23413W        W66351  28.838  22.023  24.066  0.0587  0.1354  0.0113
23414W        W66352  28.125  19.249  19.983 -0.1288  0.0927 -0.1238
23415W        W66353  26.684  19.263  23.177 -0.1278  0.2228 -0.3662
23416W        W66354  27.464  21.936  20.809  0.0857 -0.2822  0.2062
23417W        W66355  30.484  18.346  21.105  0.0629 -0.0932 -0.1763
23418W        W66356  28.658  20.106  22.776  0.1590  0.1767 -0.2879
23419W        W66357  26.406  22.247  20.256  0.0680 -0.1020  0.2655
23420W        W66358  28.874  20.134  24.160 -0.0344  0.1182  0.1866
23421W        W66359  28.119  19.924  23.693  0.1916  0.0554  0.0763
23422W        W66360  28.665  20.442  23.111  0.3138 -0.1755 -0.0000
23423W        W66361  25.839  19.049  21.134  0.0327 -0.0459  0.2346
23424W        W66362  29.375  20.806  23.781  0.0507 -0.0375  0.0199
23425W        W66363  26.801  21.556  21.537  0.3198  0.1962 -0.1066
23426W        W66364  27.702  20.345  19.978 -0.1601  0.0511 -0.1926
23427W        W66365  27.844  20.981  22.465 -0.4791  0.1449 -0.1250
23428W        W66366  27.650  17.522  22.607 -0.0128 -0.0853  0.1006
23429W        W66367  28.800  19.849  20.709 -0.1324 -0.0083  0.0599
23430W        W66368  27.705  18.475  23.457 -0.0591 -0.2353  0.1431
23431W        W66369  27.461  19.595  20.724 -0.1767 -0.3101  0.0632
23432W        W66370  29.977  18.434  19.423 -0.2933  0.1904  0.1005
23433W        W66371  26.669  20.100  23.789 -0.1181 -0.3586 -0.2731
23434W        W66372  26.840  19.289  20.447 -0.1057  0.1155  0.2393
23435W        W66373  25.420  20.497  21.116  0.3895  0.2125 -0.0147
23436W        W66374  26.291  19.488  20.426  0.1006  0.1741 -0.2460
23437W        W66375  27.409  18.716  24.410  0.1023 -0.0297 -0.0401
23438W        W66376  27.395  20.754  23.455  0.0844  0.1900 -0.0109
23439W        W66377  26.387  19.086  22.504 -0.0285  0.0036  0.0409
23440W        W66378  28.167  18.554  21.063 -0.0311 -0.2147  0.0033
23441W        W66379  28.940  21.363  20.901 -0.1258 -0.1505  0.0661
23442W        W66380  28.527  18.348  22.343  0.3102 -0.1664 -0.2307
23443W        W66381  26.331  19.025  22.018  0.3473 -0.0609 -0.4252
23444W        W66382  28.837  21.168  22.168  0.4596 -0.4040  0.1052
23445W        W66383  29.131  20.830  22.351  0.1543  0.0006  0.0147
23446W        W66384  27.879  19.856  20.463  0.1882  0.0690  0.3028
23447W        W66385  28.252  23.132  24.214 -0.0465 -0.0535 -0.2960
23448W        W66386  25.839  20.791  19.525  0.1284  0.0644 -0.0166
23449W        W66387  27.831  20.600  25.064 -0.1596  0.1360  0.1417
23450W        W66388  28.075  19.826  24.673 -0.2183  0.0366  0.0411
23451W        W66389  26.476  19.039  19.642  0.0139 -0.1292 -0.0026
23452W        W66390  27.056  20.189  22.709 -0.3356  0.0759  0.1545
23453W        W66391  28.530  21.587  21.214  0.1759 -0.0457  0.2677
23454W        W66392  28.914  20.828  20.628  0.0612  0.2907 -0.2428
23455W        W66393  26.726  20.575  22.845 -0.1800 -0.1054  0.0109
23456W        W66394  27.724  20.582  24.486 -0.0458 -0.0150  0.2681
23457W        W66395  26.758  19.422  24.042  0.0170  0.1382 -0.1451
23458W        W66396  29.348  20.378  21.617 -0.1089 -0.0016  0.1901
23459W        W66397  27.888  21.257  22.878  0.2598 -0.0778 -0.1383
23460W        W66398  30.523  21.017  22.323  0.1915 -0.3029  0.0545
23461W        W66399  29.450  18.508  23.390  0.0058  0.0901 -0.2620
23462W        W66400  29.296  19.197  21.344 -0.0975 -0.2353  0.2545
23463W        W66401  25.002  20.565  23.199  0.0322 -0.2929  0.2473
23464W        W66402  28.255  19.518  23.310  0.2879  0.0850 -0.2853
23465W        W66403  28.772  21.476  22.978 -0.0394 -0.2414 -0.0767
23466W        W66404  27.790  18.317  22.944 -0.0520  0.0020 -0.0529
23467W        W66405  28.981  17.738  21.029 -0.0798 -0.1420 -0.1972
23468W        W66406  28.704  20.896  21.661 -0.1057 -0.1034  0.0842
23469W        W66407  27.099  19.358  22.224 -0.1242 -0.1297 -0.3197
23470W        W66408  27.805  18.963  21.812 -0.4727  0.3147 -0.1830
23471W        W66409  27.682  20.386  23.227 -0.0245  0.3065 -0.1809
23472W        W66410  28.684  22.993  22.914  0.1101  0.2244  0.0514
23473W        W66411  29.130  21.646  24.368  0.1030  0.3751  0.1164
23474W        W66412  28.098  18.490  22.561 -0.1320 -0.1350  0.1162
23475W        W66413  28.949  21.773  21.624  0.1774  0.0884 -0.0924
23476W        W66414  27.872  22.308  23.803  0.1070  0.1024  0.1579
23477W        W66415  29.236  22.656  24.227 -0.4299  0.1314  0.1576
23478W        W66416  27.798  21.011  21.828  0.0543 -0.0348  0.1837
23479W        W66417  27.773  20.420  21.271  0.0928 -0.2297  0.0087
23480W        W66418  26.684  17.579  20.666 -0.2478 -0.0072 -0.2174
23481W        W66419  28.341  21.828  20.470  0.0350  0.4603  0.4767
23482W        W66420  28.446  19.954  21.103 -0.0871  0.0577  0.1211
23483W        W66421  28.408  18.482  23.483 -0.1289 -0.1736  0.0619
23484W        W66422  27.016  18.953  22.973  0.0391 -0.1162 -0.0385
23485W        W66423  27.172  19.749  21.888 -0.2359 -0.1709 -0.1485
23486W        W66424  28.014  22.050  22.285 -0.1588 -0.0972  0.2380
23487W        W66425  29.007  20.028  21.968  0.1334  0.0664 -0.1909
23488W        W66426  26.959  20.878  27.688 -0.0948 -0.2935  0.1223
23489W        W66427  27.213  20.106  24.618  0.2801 -0.3961 -0.0108
23490W        W66428  29.430  19.390  23.726 -0.0519  0.0335 -0.2667
23491W        W66429  28.955  20.109  23.650  0.2380  0.3910 -0.1007
23492W        W66430  26.318  20.754  25.967 -0.0119 -0.0355 -0.1546
23493W        W66431  26.043  22.067  25.053  0.0995  0.0169 -0.1791
23494W        W66432  25.746  19.372  26.424 -0.0943  0.2856  0.0624
23495W        W66433  28.388  21.529  25.435 -0.0868  0.1598  0.2426
23496W        W66434  29.054  21.265  25.749  0.0203  0.0539 -0.2391
23497W        W66435  28.140  20.609  24.178 -0.0657  0.0364  0.3030
23498W        W66436  27.283  20.010  25.067  0.0275  0.0432  0.0986
23499W        W66437  26.006  22.307  25.924 -0.2474 -0.2821 -0.3529
23500W        W66438  26.664  19.745  25.224  0.2724  0.0156  0.1350
23501W        W66439  24.978  18.587  26.250  0.1767  0.0218  0.3821
23502W        W66440  28.879  20.303  26.512 -0.2164  0.0496 -0.1299
23503W        W66441  26.443  20.879  25.261  0.0660  0.2485  0.2237
23504W        W66442  24.910  18.620  25.759 -0.2322  0.4107  0.0213
23505W        W66443  28.666  18.322  25.407  0.3014  0.1787  0.0611
23506W        W66444  27.145  21.177  24.572  0.2003  0.1801 -0.2133
23507W        W66445  27.900  18.611  26.352 -0.0862 -0.2366  0.0473
23508W        W66446  28.325  18.487  26.074  0.1191  0.0457 -0.2052
23509W        W66447  28.337  20.827  23.722  0.0530  0.2233 -0.2815
23510W        W66448  25.646  20.456  23.313  0.1758  0.0883  0.4587
23511W        W66449  25.004  19.670  27.006  0.4697 -0.2917  0.1826
23512W        W66450  26.722  21.070  25.998 -0.3102  0.0008 -0.1164
23513W        W66451  28.254  20.554  25.298  0.0831 -0.0749 -0.2100
23514W        W66452  28.476  19.582  24.868 -0.1462  0.0304 -0.3377
23515W        W66453  27.232  22.199  25.708  0.2537  0.0397  0.4691
23516W        W66454  27.482  21.956  26.925  0.0149  0.0444 -0.0548
23517W        W66455  29.485  20.190  25.846  0.1480  0.0759 -0.0844
23518W        W66456  26.087  19.941  27.049 -0.2157 -0.0825  0.0069
23519W        W66457  24.963  22.493  25.939 -0.0689 -0.2099  0.0518
23520W        W66458  26.732  21.769  23.978  0.1011  0.2639 -0.1352
23521W        W66459  29.521  22.406  26.276 -0.1925 -0.0886 -0.1262
23522W        W66460  28.132  21.833  26.172 -0.1455 -0.2046  0.1504
23523W        W66461  26.613  21.542  26.274  0.0159 -0.0535  0.1621
23524W        W66462  25.132  19.807  24.940  0.2728 -0.3369  0.0441
23525W        W66463  27.893  21.106  26.411 -0.1433 -0.2558 -0.3046
23526W        W66464  26.975  20.074  27.529  0.2332  0.1292  0.1171
23527W        W66465  27.896  19.813  27.226 -0.2742 -0.4958  0.0287
23528W        W66466  27.813  20.031  24.284 -0.0857  0.3775  0.1155
23529W        W66467  24.871  20.330  25.536 -0.4049 -0.0667  0.1364
23530W        W66468  27.836  21.287  24.871  0.0142 -0.1321  0.0438
23531W        W66469  27.341  19.850  28.466 -0.1722  0.3397  0.2122
23532W        W66470  26.362  21.968  26.554 -0.0273 -0.3560 -0.2890
23533W        W66471  29.397  19.392  28.093  0.0800 -0.2600 -0.2107
23534W        W66472  26.025  21.311  23.505  0.0698  0.5390  0.0141
23535W        W66473  29.463  20.465  24.670  0.1766  0.0719  0.2024
23536W        W66474  26.388  19.932  23.287  0.1585  0.2372 -0.1214
23537W        W66475  28.137  21.385  25.883  0.1326  0.1389 -0.0009
23538W        W66476  28.170  19.358  24.522 -0.2612  0.0694  0.2107
23539W        W66477  28.543  21.974  25.617 -0.0300  0.2311  0.1244
23540W        W66478  27.473  19.750  27.447  0.0530  0.2280 -0.1140
23541W        W66479  28.396  20.414  27.380  0.0809 -0.0041 -0.3078
23542W        W66480  26.811  20.249  24.345  0.0539  0.2819 -0.1608
23543W        W66481  26.827  19.719  26.015  0.2842  0.1331 -0.1316
23544W        W66482  25.958  21.742  26.202  0.2689  0.3775  0.0298
23545W        W66483  26.844  20.201  26.478  0.1064 -0.1227 -0.2221
23546W        W66484  30.013  20.885  23.828  0.1722 -0.2041 -0.1736
23547W        W66485  29.063  20.870  24.620 -0.0255  0.1694  0.0536
23548W        W66486  28.367  22.404  23.652 -0.3665 -0.1785 -0.3003
23549W        W66487  26.083  20.191  24.829  0.4469  0.0419 -0.0037
23550W        W66488  26.188  19.702  27.891 -0.0767  0.2357  0.1051
23551W        W66489  26.801  19.927  28.002  0.1283 -0.0467 -0.1323
23552W        W66490  26.862  18.781  25.327  0.1765 -0.0821  0.0324
23553W        W66491  30.172  21.991  27.581  0.2365  0.0152  0.1286
23554W        W66492  24.729  20.918  27.708 -0.1376  0.1524 -0.0932
23555W        W66493  29.571  18.855  25.156  0.0380  0.0418  0.1262
23556W        W66494  25.985  21.491  26.692  0.2188  0.0538  0.1119
23557W        W66495  28.204  20.847  26.059 -0.1171 -0.1753 -0.4241
23558W        W66496  28.520  22.002  25.037 -0.3572  0.1169 -0.0931
23559W        W66497  29.228  18.634  27.425 -0.0326 -0.1375 -0.1204
23560W        W66498  29.720  18.585  27.046  0.0255 -0.1289  0.3037
23561W        W66499  28.072  20.071  25.184 -0.0017  0.1340  0.1127
23562W        W66500  26.566  20.604  24.568 -0.1020 -0.1435 -0.1246
23563W        W66501  29.735  22.064  27.228 -0.1494 -0.2239  0.0411
23564W        W66502  29.419  20.238  23.802  0.0221  0.2489 -0.2905
23565W        W66503  25.842  21.862  27.158  0.0931 -0.0039  0.0344
23566W        W66504  26.539  20.959  28.000  0.0434 -0.0458 -0.0548
23567W        W66505  27.038  20.317  28.415  0.0068  0.1585  0.1144
23568W        W66506  26.630  21.193  23.155  0.1042 -0.0699  0.0744
23569W        W66507  25.745  21.211  26.134  0.1336  0.1056 -0.2835
23570W        W66508  26.174  21.688  25.654  0.0508  0.1900 -0.0127
23571W        W66509  26.041  19.710  26.111 -0.1120 -0.1292  0.0425
23572W        W66510  25.382  20.761  26.176  0.1693  0.0135  0.0895
23573W        W66511  29.879  19.354  24.561  0.0639 -0.0202 -0.2256
23574W        W66512  26.618  19.588  27.579 -0.0352 -0.1681  0.0087
23575W        W66513  27.441  17.377  26.494 -0.2271 -0.0882 -0.0780
23576W        W66514  25.666  21.283  25.588  0.0414  0.2410 -0.0822
23577W        W66515  27.352  22.034  24.470 -0.1108 -0.1379  0.0631
23578W        W66516  29.728  19.867  25.336 -0.0759 -0.1363 -0.1942
23579W        W66517  27.923  22.772  23.938  0.2052  0.1574  0.2017
23580W        W66518  24.232  20.015  26.865  0.0222 -0.3565 -0.2019
23581W        W66519  26.151  19.364  24.342  0.1042 -0.3727 -0.2312
23582W        W66520  27.367  18.433  28.346 -0.1555 -0.0763  0.2146
23583W        W66521  25.312  19.355  26.708  0.2759  0.0804 -0.1251
23584W        W66522  29.200  19.296  26.112 -0.3344  0.0401 -0.2635
23585W        W66523  25.705  18.864  25.076 -0.1464  0.0979  0.2108
23586W        W66524  31.077  19.792  25.008  0.3614  0.1828  0.1798
23587W        W66525  26.982  19.029  24.563  0.1824 -0.1705 -0.1455
23588W        W66526  25.916  20.685  26.274  0.2759  0.0681  0.0712
23589W        W66527  28.644  20.195  26.949  0.1038 -0.0086 -0.0906
23590W        W66528  27.540  21.770  24.953 -0.0654 -0.0515 -0.0331
23591W        W66529  28.338  21.553  26.965  0.1301 -0.1817 -0.1523
23592W        W66530  28.375  21.719  23.966  0.0408  0.1706 -0.2703
23593W        W66531  25.631  19.729  26.796 -0.1954 -0.0669  0.0814
23594W        W66532  27.026  20.819  23.807 -0.1181  0.3182 -0.0686
23595W        W66533  25.055  23.463  26.037 -0.1417 -0.0254  0.0571
23596W        W66534  27.221  20.447  25.634 -0.1218 -0.0354 -0.0510
23597W        W66535  26.111  20.954  23.982 -0.1692 -0.2067 -0.1257
23598W        W66536  28.979  22.394  24.834 -0.0629  0.1888  0.4180
23599W        W66537  27.404  21.328  25.201  0.0883 -0.4192  0.0447
23600W        W66538  26.804  21.348  28.268  0.1559 -0.3895  0.3806
23601W        W66539  27.943  20.564  26.656  0.0973 -0.0423 -0.1844
23602W        W66540  28.069  21.108  26.906  0.2419 -0.1691 -0.0776
23603W        W66541  27.352  19.550  25.240  0.2626 -0.0707 -0.2265
23604W        W66542  25.123  19.243  24.099 -0.1303  0.2329 -0.3672
23605W        W66543  28.734  20.028  25.164  0.0044  0.0029  0.2835
23606W        W66544  25.149  22.294  24.131  0.2766 -0.2424  0.1208
23607W        W66545  25.222  20.887  25.754 -0.1110 -0.1086 -0.0166
23608W        W66546  26.745  21.785  25.572  0.0877 -0.0643  0.0178
23609W        W66547  30.465  18.874  26.721  0.1975  0.0850  0.2532
23610W        W66548  25.204  18.945  27.612  0.0993  0.1011 -0.0412
23611W        W66549  27.794  20.117  26.692 -0.1191 -0.0779  0.0921
23612W        W66550  25.321  20.143  25.303 -0.0494  0.3973 -0.0779
23613W        W66551  26.732  20.497  27.315 -0.1532  0.1624 -0.0249
23614W        W66552  28.828  18.496  26.138 -0.4409 -0.3392 -0.1081
23615W        W66553  31.285  17.829  24.755  0.3079  0.0077 -0.3349
23616W        W66554  28.110  20.683  27.669  0.0440  0.1273 -0.0850
23617W        W66555  27.958  21.594  24.397 -0.6251  0.2452 -0.0930
23618W        W66556  28.642  20.640  24.244 -0.0985 -0.1442  0.1042
23619W        W66557  27.704  19.519  24.288  0.1450 -0.0821 -0.0082
23620W        W66558  25.926  19.498  28.742 -0.0273  0.1504  0.0940
23621W        W66559  26.351  22.064  24.675  0.0665  0.1832  0.1199
23622W        W66560  27.135  20.634  24.417 -0.0228 -0.0470  0.0325
23623W        W66561  28.409  20.288  24.862  0.2055  0.0291 -0.1170
23624W        W66562  30.313  22.608  24.740  0.1504  0.4393 -0.0355
23625W        W66563  25.463  21.964  26.260 -0.1200 -0.0906 -0.1075
23626W        W66564  27.482  20.448  26.871  0.0168  0.5129  0.1677
23627W        W66565  28.125  22.116  24.694  0.0939 -0.2111  0.0791
23628W        W66566  28.977  19.653  24.943  0.0428 -0.3557  0.2187
23629W        W66567  25.591  20.449  24.976  0.0938 -0.2236 -0.1662
23630W        W66568  28.763  18.954  26.884 -0.1565 -0.4393  0.1851
23631W        W66569  25.624  22.081  22.059  0.0399  0.1912 -0.0123
23632W        W66570  27.827  19.862  25.702 -0.0634  0.0839  0.4602
23633W        W66571  30.107  19.903  25.637 -0.0167  0.1462  0.0408
23634W        W66572  27.761  18.932  27.020  0.0025  0.1110  0.0582
23635W        W66573  28.256  20.056  27.689 -0.1213  0.0967 -0.0156
23636W        W66574  29.604  20.944  24.543 -0.1240 -0.3143 -0.1489
23637W        W66575  26.879  20.375  25.198  0.2301  0.3158 -0.0522
23638W        W66576  24.923  20.437  24.421  0.0566 -0.0505  0.4002
23639W        W66577  27.223  19.938  25.581 -0.0820 -0.1139 -0.0726
23640W        W66578  26.123  19.983  28.435  0.0605 -0.0860 -0.0977
23641W        W66579  25.339  22.957  26.220  0.1481 -0.0168 -0.1728
23642W        W66580  27.976  20.964  25.611 -0.2198 -0.0255  0.0400
23643W        W66581  26.715  21.389  25.106 -0.1277  0.1649 -0.2388
23644W        W66582  27.713  18.032  28.076  0.2464  0.4259 -0.2896
23645W        W66583  28.144  19.484  25.379 -0.1394 -0.1614 -0.0125
23646W        W66584  26.760  20.965  24.210 -0.2172  0.2676  0.0684
23647W        W66585  27.059  21.603  24.315  0.2227  0.1305  0.1117
23648W        W66586  27.781  19.723  26.211 -0.0129 -0.2719 -0.0287
23649W        W66587  27.036  20.624  26.244 -0.1746  0.0826 -0.0152
23650W        W66588  25.567  20.960  24.092  0.0900 -0.2097 -0.2729
23651W        W66589  28.056  19.137  25.010  0.0087  0.1035  0.2835
23652W        W66590  26.243  21.329  26.041 -0.0129  0.1117  0.0764
23653W        W66591  28.755  19.358  26.434 -0.1857  0.2780 -0.0590
23654W        W66592  25.512  22.042  24.981 -0.0412  0.1911  0.2786
23655W        W66593  25.810  19.707  24.621 -0.1295 -0.1196  0.1601
23656W        W66594  25.993  20.213  26.001 -0.1543 -0.3789  0.1205
23657W        W66595  28.767  18.393  26.632  0.4821  0.1946  0.1575
23658W        W66596  29.071  20.302  25.455  0.0873 -0.0119  0.0328
23659W        W66597  26.807  19.154  25.896  0.0765  0.0563 -0.2552
23660W        W66598  27.344  18.524  25.754 -0.1641 -0.2517 -0.0189
23661W        W66599  26.469  21.446  26.787  0.2242 -0.4953 -0.2497
23662W        W66600  26.501  20.623  26.434 -0.2876  0.0342  0.0891
23663W        W66601  30.024  18.003  24.610  0.2446 -0.0129  0.0267
23664W        W66602  28.301  20.212  26.526 -0.1868 -0.1447 -0.1674
23665W        W66603  28.560  19.481  25.991 -0.0068  0.0656  0.0326
23666W        W66604  26.404  19.841  24.217 -0.2636  0.0538  0.3686
23667W        W66605  28.969  19.916  25.856 -0.1294 -0.0028  0.0470
23668W        W66606  27.693  19.632  23.761 -0.2111  0.0882  0.1774
23669W        W66607  25.224  21.298  25.325  0.2713  0.1225  0.1161
23670W        W66608  28.521  20.638  26.684  0.0831 -0.2437 -0.1977
23671W        W66609  25.858  20.003  24.084  0.0398  0.0648 -0.0265
23672W        W66610  25.589  21.305  24.973 -0.0981  0.0975 -0.1201
23673W        W66611  27.850  18.311  25.689  0.0066 -0.0211 -0.2108
23674W        W66612  29.385  21.964  26.444  0.2859  0.3350  0.0380
23675W        W66613  26.618  19.478  24.548 -0.0418 -0.2463  0.0458
23676W        W66614  26.420  19.395  25.472 -0.1597  0.0540 -0.1947
23677W        W66615  26.626  19.816  27.105 -0.0756 -0.2906  0.2048
23678W        W66616  27.989  20.435  25.736 -0.0632 -0.0099  0.0875
23679W        W66617  28.162  20.172  27.032  0.0048 -0.1484 -0.1345
23680W        W66618  26.942  21.017  27.135  0.2764 -0.0199 -0.0299
23681W        W66619  26.332  18.746  26.109 -0.2749 -0.1741 -0.0102
23682W        W66620  29.189  22.168  24.433 -0.0755  0.2878  0.2686
23683W        W66621  29.285  22.011  26.951  0.0744  0.0663  0.1160
23684W        W66622  25.867  20.965  24.861 -0.0111  0.0776 -0.0064
23685W        W66623  26.535  19.838  26.380  0.4527 -0.1938 -0.1370
23686W        W66624  27.319  20.493  25.054 -0.0416 -0.2899  0.0831
23687W        W66625  29.089  19.775  25.389  0.2509  0.0292  0.2291
23688W        W66626  25.720  20.981  26.633 -0.0131  0.1656  0.0622
23689W        W66627  26.701  21.905  25.022 -0.0514 -0.2981 -0.3964
23690W        W66628  26.899  22.168  27.058 -0.0742 -0.0591  0.1519
23691W        W66629  29.127  17.190  22.917  0.0947  0.0186 -0.0241
23692W        W66630  27.849  20.978  23.855  0.2788 -0.0274 -0.2361
23693W        W66631  28.055  19.384  25.869 -0.3376 -0.1707 -0.4834
23694W        W66632  29.521  19.347  27.605 -0.0804  0.2341 -0.3457
23695W        W66633  27.944  20.485  23.749  0.4629  0.3325 -0.2561
23696W        W66634  27.806  18.900  27.986  0.0083  0.2496  0.0005
23697W        W66635  27.036  19.690  27.240 -0.3360  0.0002  0.0817
23698W        W66636  30.030  20.732  24.941 -0.1240  0.5281  0.1097
23699W        W66637  26.468  20.293  26.834 -0.0337  0.2984 -0.1461
23700W        W66638  27.729  21.583  26.255  0.3539  0.0335 -0.3151
23701W        W66639  27.084  18.040  28.336 -0.0857 -0.1677  0.1771
23702W        W66640  29.412  18.539  24.308 -0.0442  0.0728  0.1098
23703W        W66641  25.704  19.066  25.589  0.3074  0.0447  0.1692
23704W        W66642  27.517  20.910  25.435 -0.1670 -0.0504 -0.2092
23705W        W66643  29.751  21.056  25.423  0.1669 -0.0324  0.3668
23706W        W66644  25.726  20.247  24.488 -0.0752  0.1268  0.1299
23707W        W66645  27.646  20.197  25.365  0.2846 -0.3448  0.0121
23708W        W66646  25.583  19.980  25.901  0.1192  0.0558  0.1731
23709W        W66647  28.621  21.496  24.977 -0.0727  0.1057 -0.1830
23710W        W66648  26.943  21.315  23.874  0.2483  0.0863  0.2506
23711W        W66649  27.033  20.635  26.797  0.0331 -0.0236  0.0801
23712W        W66650  27.675  18.670  28.680  0.0573 -0.0675 -0.1297
23713W        W66651  27.223  21.010  25.914  0.0614  0.0693  0.2726
23714W        W66652  28.924  18.682  25.687  0.0580 -0.1329 -0.2155
23715W        W66653  29.292  19.769  27.834 -0.0607 -0.0037  0.1021
23716W        W66654  27.753  21.466  26.795 -0.2604 -0.2242 -0.1736
23717W        W66655  28.180  19.854  28.622  0.2415 -0.1382 -0.0935
23718W        W66656  25.604  18.907  26.634 -0.0884 -0.0811  0.2902
23719W        W66657  28.138  22.232  25.872 -0.2699  0.2456 -0.0755
23720W        W66658  28.739  19.941  24.607  0.2671 -0.1735 -0.0829
23721W        W66659  28.668  19.884  26.283 -0.1635 -0.0753 -0.2450
23722W        W66660  31.128  20.403  25.672 -0.0174  0.0862 -0.0454
23723W        W66661  29.905  19.323  25.091 -0.0423 -0.0246 -0.2678
23724W        W66662  26.332  20.333  25.587 -0.1853 -0.2369 -0.1370
23725W        W66663  27.538  20.826  27.739  0.0806  0.0979  0.4197
23726W        W66664  27.191  19.482  22.908  0.1749 -0.2083  0.5521
23727W        W66665  26.939  19.200  27.015 -0.1763  0.0337  0.0154
23728W        W66666  28.161  21.295  23.664 -0.1163  0.0867 -0.1210
23729W        W66667  26.927  20.915  25.490  0.2734  0.2809  0.0237
23730W        W66668  29.255  20.053  24.502 -0.1994  0.3216 -0.1572
23731W        W66669  26.283  19.519  25.015  0.0744 -0.3449  0.0644
23732W        W66670  26.194  20.166  26.468  0.4329  0.3589  0.1958
23733W        W66671  25.074  20.355  24.940 -0.0163 -0.2693 -0.2629
23734W        W66672  26.078  20.706  24.449 -0.0750 -0.1526 -0.0521
23735W        W66673  27.512  19.776  26.934  0.0323 -0.2771  0.1626
23736W        W66674  28.446  20.920  27.171 -0.1505  0.0730 -0.1521
23737W        W66675  27.228  19.391  24.349  0.1829 -0.1216 -0.3382
23738W        W66676  28.551  19.767  25.527 -0.1327  0.1954 -0.1053
23739W        W66677  26.757  20.562  25.769  0.0131  0.1874  0.1828
23740W        W66678  29.443  19.675  25.783 -0.0278  0.1165  0.1402
23741W        W66679  24.631  21.523  26.872 -0.2086  0.2538 -0.2151
23742W        W66680  26.495  20.850  26.907  0.1852 -0.2671 -0.2671
23743W        W66681  27.095  21.605  24.878 -0.2467 -0.1086  0.1740
23744W        W66682  27.432  19.309  26.783  0.0216 -0.0510 -0.1684
23745W        W66683  27.836  19.587  25.053 -0.3161  0.0365  0.1589
23746W        W66684  27.144  21.920  25.296 -0.1180  0.1337 -0.1032
23747W        W66685  29.242  20.390  27.006  0.0457  0.0389 -0.1422
23748W        W66686  27.227  21.676  27.834 -0.0154 -0.2181 -0.2584
23749W        W66687  26.145  20.655  27.775  0.3437  0.0023  0.0739
23750W        W66688  27.911  20.276  26.201 -0.0088 -0.0789  0.1848
23751W        W66689  29.576  21.243  25.837  0.0476 -0.3124  0.0770
23752W        W66690  28.001  21.820  25.705  0.1186  0.2126  0.0972
23753W        W66691  25.300  19.017  26.194 -0.0622 -0.1929 -0.3665
23754W        W66692  27.730  21.502  27.823  0.3582 -0.2937 -0.2080
23755W        W66693  27.516  21.500  24.516  0.0281 -0.1535 -0.1062
23756W        W66694  26.625  20.033  24.761  0.0210 -0.1341 -0.3846
23757W        W66695  29.054  21.585  23.876 -0.2217  0.0780  0.1088
23758W        W66696  26.724  20.791  28.432  0.3563  0.1117 -0.0761
23759W        W66697  26.146  19.674  26.600 -0.1155 -0.0723  0.1135
23760W        W66698  25.877  22.177  24.581  0.0928  0.3651 -0.0563
23761W        W66699  28.948  20.465  24.883  0.2419  0.0404  0.0087
23762W        W66700  28.446  21.776  24.591  0.3618 -0.1131 -0.1972
23763W        W66701  27.073  21.411  25.569  0.2311  0.3278 -0.1872
23764W        W66702  27.552  19.720  24.686  0.1370  0.0914 -0.1077
23765W        W66703  25.435  22.396  24.560 -0.0186 -0.0310 -0.2151
23766W        W66704  24.927  22.158  23.529  0.0705 -0.4330 -0.2205
23767W        W66705  29.417  21.968  23.921 -0.0389 -0.0689 -0.1431
23768W        W66706  26.650  21.530  24.604 -0.1352  0.0044  0.0930
23769W        W66707  27.743  22.522  26.153 -0.0823  0.0216  0.0293
23770W        W66708  29.617  18.636  23.885  0.1050  0.1397  0.0141
23771W        W66709  29.393  20.698  25.665  0.0174 -0.1956  0.2048
23772W        W66710  29.385  20.145  25.087 -0.0159 -0.2982  0.1283
23773W        W66711  27.695  22.314  25.586 -0.1251  0.2586  0.2387
23774W        W66712  26.925  19.690  26.693 -0.0875  0.1296  0.0386
23775W        W66713  28.301  18.322  24.630 -0.0454  0.1150 -0.2814
23776W        W66714  27.942  20.627  27.125 -0.1464 -0.0435  0.0455
23777W        W66715  28.745  17.737  28.901 -0.2902  0.1219 -0.0259
23778W        W66716  25.550  21.564  27.444  0.2910  0.5214 -0.3563
23779W        W66717  29.460  22.577  24.722  0.1515 -0.0529  0.1678
23780W        W66718  26.502  20.284  26.047 -0.2509 -0.3235  0.0432
23781W        W66719  28.250  21.104  25.101  0.4446 -0.0957  0.0384
23782W        W66720  29.283  18.922  27.815  0.0804 -0.0891  0.2446
23783W        W66721  28.526  21.859  23.110 -0.4599  0.1029 -0.0539
23784W        W66722  27.316  18.467  26.323  0.0666 -0.1775 -0.2709
23785W        W66723  26.444  21.391  24.063 -0.1740  0.2428 -0.3930
23786W        W66724  27.134  23.087  25.940  0.1767 -0.0866  0.0406
23787W        W66725  26.533  21.269  25.574 -0.0577  0.1212 -0.2415
23788W        W66726  25.701  19.974  25.039  0.0215 -0.0860 -0.0067
23789W        W66727  29.921  18.928  25.488 -0.1105  0.2641 -0.0583
23790W        W66728  27.633  20.237  27.288 -0.0362 -0.1098  0.0835
23791W        W66729  28.175  18.988  26.142 -0.0010 -0.3744 -0.1027
23792W        W66730  25.284  19.716  26.396 -0.2326 -0.4115  0.2231
23793W        W66731  29.713  20.494  25.315  0.0712  0.0487 -0.3639
23794W        W66732  28.256  22.472  25.439  0.2048  0.0900 -0.0096
23795W        W66733  25.222  20.094  26.722  0.0057 -0.0241 -0.4836
23796W        W66734  28.313  21.309  24.635 -0.3046 -0.0015 -0.0615
23797W        W66735  29.190  20.328  27.872  0.0550 -0.0419  0.0494
23798W        W66736  28.576  20.000  23.331 -0.0341 -0.1149 -0.0023
23799W        W66737  28.794  21.862  27.077  0.1203 -0.2209 -0.1127
23800W        W66738  25.836  20.184  25.513 -0.0861 -0.3528  0.1180
23801W        W66739  28.356  18.789  24.710 -0.1530  0.4293  0.0976
23802W        W66740  27.621  21.297  25.842 -0.0743 -0.1924 -0.1842
23803W        W66741  26.680  20.412  27.864 -0.2915 -0.1604 -0.0598
23804W        W66742  28.822  21.794  26.235 -0.2531 -0.2716  0.0506
23805W        W66743  25.629  18.215  25.228  0.1825 -0.1794  0.0477
23806W        W66744  30.595  20.674  25.213 -0.0863 -0.0490  0.1269
23807W        W66745  28.262  19.969  25.972  0.0680 -0.0595 -0.2306
23808W        W66746  27.431  21.603  23.125  0.0882 -0.1371  0.0602
23809W        W66747  29.235  20.642  24.218  0.2622  0.2795  0.1982
23810W        W66748  27.489  20.937  24.791  0.0523 -0.3847 -0.0387
23811W        W66749  24.816  19.766  26.184  0.0001 -0.0224  0.3070
23812W        W66750  28.268  21.452  26.470  0.2584 -0.1726  0.1812
23813W        W66751  28.952  22.175  25.303 -0.2461  0.0227 -0.1549
23814W        W66752  27.968  20.882  23.387 -0.1336  0.3181 -0.0354
23815W        W66753  27.529  20.232  25.946  0.0681  0.0536 -0.0210
23816W        W66754  25.978  21.204  24.439  0.1200 -0.0926 -0.0592
23817W        W66755  29.132  18.946  26.523 -0.2687  0.4078 -0.1262
23818W        W66756  28.907  20.121  27.423 -0.0096  0.2380 -0.0719
23819W        W66757  27.722  21.334  23.413  0.2094 -0.2632 -0.0470
23820W        W66758  28.447  18.345  28.526 -0.1378  0.3053 -0.2729
23821W        W66759  27.950  21.916  27.767 -0.1950 -0.0704  0.0881
23822W        W66760  26.180  21.474  27.437 -0.0742  0.1728  0.2322
23823W        W66761  25.631  19.629  23.807 -0.0762  0.0286  0.0502
23824W        W66762  27.490  20.393  26.415  0.1992 -0.1406 -0.1123
23825W        W66763  25.939  22.199  26.387 -0.1456 -0.2849 -0.0519
23826W        W66764  26.982  20.985  22.706 -0.2506  0.1189  0.3206
23827W        W66765  28.261  22.175  24.162 -0.2449  0.2552  0.2166
23828W        W66766  29.038  19.547  24.480  0.1675 -0.1223 -0.0487
23829W        W66767  29.022  21.672  25.315  0.1455 -0.1507 -0.0279
23830W        W66768  27.343  18.946  26.494  0.1767 -0.1623 -0.1134
23831W        W66769  30.180  18.997  25.975  0.0364 -0.2311  0.1308
23832W        W66770  28.903  19.152  25.623  0.2560  0.1205 -0.0882
23833W        W66771  26.835  21.038  26.551 -0.0550 -0.1778 -0.2786
23834W        W66772  26.557  21.640  22.009 -0.1940 -0.1133 -0.1724
23835W        W66773  26.993  19.602  24.866  0.2392 -0.0849  0.2398
23836W        W66774  26.062  21.156  27.026 -0.2939 -0.4247  0.1003
23837W        W66775  26.004  18.669  26.868  0.1144 -0.0467  0.1435
23838W        W66776  25.065  20.571  26.715 -0.1454 -0.2367 -0.2245
23839W        W66777  26.738  20.065  25.563 -0.0275 -0.0187  0.4899
23840W        W66778  25.892  18.512  24.491 -0.0111 -0.1530  0.2025
23841W        W66779  29.418  21.746  23.470 -0.2386  0.1862  0.3304
23842W        W66780  27.032  20.214  26.007  0.0359 -0.1971 -0.2355
23843W        W66781  27.269  19.498  26.259 -0.1047  0.0637  0.1249
23844W        W66782  29.300  20.822  25.198  0.0423 -0.1042  0.0249
23845W        W66783  29.142  21.343  24.843  0.0290  0.1900  0.1732
23846W        W66784  28.558  17.866  25.649  0.3188 -0.2513 -0.0095
23847W        W66785  30.023  22.481  27.635  0.2085 -0.2583  0.2110
23848W        W66786  27.187  21.122  23.222 -0.1484 -0.2648 -0.3112
23849W        W66787  26.549  19.121  27.275 -0.0461 -0.2032 -0.0018
23850W        W66788  26.159  19.071  26.505 -0.2144 -0.0579  0.0491
23851W        W66789  24.920  18.941  25.308  0.1316 -0.2074 -0.3647
23852W        W66790  28.459  20.411  26.085  0.4734  0.1124  0.0032
23853W        W66791  26.827  22.003  24.484  0.0811  0.2348  0.2637
23854W        W66792  28.235  22.587  24.412 -0.2812 -0.0062  0.1220
23855W        W66793  27.113  21.778  25.973  0.1225 -0.3758 -0.1579
23856W        W66794  26.829  22.274  26.515 -0.1381  0.1664 -0.1330
23857W        W66795  26.246  18.594  27.666  0.3505 -0.0973  0.0755
23858W        W66796  27.265  19.023  25.506  0.1242  0.0322 -0.1514
23859W        W66797  27.220  20.396  27.801  0.1451  0.1638  0.2164
23860W        W66798  29.669  21.168  24.978 -0.1126  0.1943 -0.0041
23861W        W66799  28.933  19.565  27.505  0.2731 -0.0931  0.1608
23862W        W66800  29.434  18.982  25.698  0.0341 -0.0317  0.1589
23863W        W66801  24.870  19.098  28.052  0.0499 -0.4850  0.2137
23864W        W66802  26.794  17.954  29.334 -0.2274 -0.0342  0.1343
23865W        W66803  28.953  19.850  26.914  0.0955  0.0418 -0.3339
23866W        W66804  27.668  19.112  24.601 -0.0580  0.3377 -0.0266
23867W        W66805  29.399  19.340  25.361  0.0106 -0.2524  0.0996
23868W        W66806  28.752  22.091  23.602  0.1546  0.0982  0.1102
23869W        W66807  26.414  19.815  25.778  0.0132  0.0739 -0.0517
23870W        W66808  28.739  20.663  25.277 -0.1308  0.0560  0.5345
23871W        W66809  26.479  21.015  27.434 -0.1179 -0.0382 -0.0475
23872W        W66810  27.852  21.445  25.342  0.1506  0.1051  0.1326
23873W        W66811  28.554  21.389  28.262 -0.0329  0.5610  0.0099
23874W        W66812  27.674  20.221  24.799  0.0806  0.1540 -0.0159
23875W        W66813  28.342  20.177  24.328  0.0756 -0.2438 -0.0154
23876W        W66814  28.143  21.650  24.987  0.1455  0.0950 -0.2876
23877W        W66815  29.428  23.936  28.032  0.1092  0.0379  0.0213
23878W        W66816  27.124  21.399  26.295  0.1202  0.1362  0.1726
23879W        W66817  28.589  20.316  25.618 -0.0157  0.0270  0.0409
23880W        W66818  26.524  19.382  26.820  0.2067  0.0163  0.0712
23881W        W66819  25.445  20.453  25.705 -0.0503  0.0284 -0.1507
23882W        W66820  27.436  20.975  24.237 -0.0448  0.0478 -0.2006
23883W        W66821  27.719  20.733  26.094  0.1845  0.0385  0.1855
23884W        W66822  27.043  19.203  25.102 -0.1136 -0.0985 -0.1627
23885W        W66823  28.622  18.862  25.213  0.1300 -0.2570 -0.1801
23886W        W66824  27.393  20.919  26.488  0.1685 -0.0563 -0.2728
23887W        W66825  27.800  21.039  27.396  0.0680 -0.0076  0.1080
23888W        W66826  26.239  20.890  30.919 -0.1538  0.0510  0.1003
23889W        W66827  27.001  19.516  28.285  0.0341 -0.1261  0.1023
23890W        W66828  28.156  18.818  28.381  0.0520 -0.2137  0.0859
23891W        W66829  28.190  20.896  29.083  0.3121  0.0465 -0.0458
23892W        W66830  24.537  19.482  30.087 -0.1862  0.1515  0.2218
23893W        W66831  28.799  22.675  28.702 -0.0707  0.0259  0.1258
23894W        W66832  25.845  17.992  31.145  0.2301 -0.1444 -0.0060
23895W        W66833  27.703  21.584  30.199 -0.1317 -0.0916 -0.2158
23896W        W66834  29.430  21.961  30.557 -0.0497 -0.1189 -0.0230
23897W        W66835  27.228  21.211  28.512 -0.2706 -0.0983 -0.3479
23898W        W66836  27.480  19.888  30.598  0.3067 -0.0104  0.0599
23899W        W66837  26.093  20.722  29.915  0.1762  0.2423  0.0906
23900W        W66838  25.299  17.936  29.429 -0.2267 -0.1425 -0.1021
23901W        W66839  24.641  17.212  30.848 -0.1239  0.0835 -0.0468
23902W        W66840  29.307  19.036  30.107 -0.0384  0.0821 -0.1655
23903W        W66841  25.345  19.225  28.854  0.1435  0.1238  0.0422
23904W        W66842  26.152  19.862  29.717 -0.1877  0.3562 -0.1117
23905W        W66843  27.245  18.911  28.510  0.2176 -0.1217  0.1873
23906W        W66844  26.526  21.168  29.449 -0.1657 -0.1758 -0.0502
23907W        W66845  25.928  19.351  31.419 -0.4606  0.1263  0.4372
23908W        W66846  27.135  18.959  30.702  0.0959 -0.0925 -0.0139
23909W        W66847  28.116  19.638  30.161 -0.3245 -0.1279 -0.1581
23910W        W66848  26.283  19.490  27.241 -0.1711  0.2444  0.2870
23911W        W66849  24.866  18.642  29.885  0.1388  0.2111  0.0013
23912W        W66850  27.382  19.717  29.727 -0.0257 -0.5700 -0.0644
23913W        W66851  29.929  18.654  29.181 -0.3198  0.0335  0.0640
23914W        W66852  28.263  21.033  30.066  0.0843 -0.4501  0.3300
23915W        W66853  27.235  21.754  30.243  0.0703 -0.1796 -0.0702
23916W        W66854  28.707  22.116  30.988  0.4040  0.0350  0.2454
23917W        W66855  27.065  19.269  29.947  0.1138 -0.2580  0.1073
23918W        W66856  25.863  19.981  28.831 -0.1514  0.0926  0.2965
23919W        W66857  26.163  22.186  28.596 -0.0688  0.2442  0.0789
23920W        W66858  26.987  21.535  29.377 -0.1739  0.1266  0.1096
23921W        W66859  28.942  20.393  29.776 -0.3090  0.0810 -0.1532
23922W        W66860  30.388  21.155  31.166 -0.3077 -0.1724 -0.3564
23923W        W66861  25.985  22.464  30.665  0.1880  0.2879  0.0040
23924W        W66862  26.152  20.197  27.943  0.0166 -0.1949  0.0660
23925W        W66863  28.971  21.299  31.405 -0.1347  0.0389 -0.1308
23926W        W66864  26.616  21.217  30.934 -0.0281 -0.0941  0.0543
23927W        W66865  28.180  20.333  29.024  0.2904  0.2574 -0.0486
23928W        W66866  28.356  21.543  29.148  0.1271  0.2017  0.2518
23929W        W66867  27.257  20.822  30.583 -0.2613  0.1701  0.2210
23930W        W66868  28.370  21.377  28.711  0.0462 -0.1208 -0.0439
23931W        W66869  25.242  20.030  31.033 -0.5975  0.0329  0.0614
23932W        W66870  25.786  20.439  30.213  0.2194 -0.2433 -0.2199
23933W        W66871  29.974  17.904   1.083 -0.0759  0.0169 -0.3599
23934W        W66872  27.067  20.093  29.860  0.0364  0.1170  0.1895
23935W        W66873  28.723  19.426  27.045 -0.2520 -0.0801 -0.0310
23936W        W66874  28.239  19.512  26.348 -0.3752 -0.2373  0.0752
23937W        W66875  28.048  18.787  29.828 -0.1213  0.0325 -0.4303
23938W        W66876  28.619  18.780  28.718  0.0780 -0.1356  0.0593
23939W        W66877  26.463  22.584  28.733  0.1743  0.0906  0.0509
23940W        W66878  26.755  18.696  31.035  0.0023 -0.1784  0.3242
23941W        W66879  29.079  20.328  31.331  0.0943  0.0711 -0.0411
23942W        W66880  27.712  19.765  28.905  0.1707  0.0333 -0.2347
23943W        W66881  28.064  19.689  30.719 -0.0850  0.1883  0.0505
23944W        W66882  25.351  21.665  29.437 -0.0385 -0.2460  0.1828
23945W        W66883  26.199  18.931  29.442 -0.2462 -0.2351  0.3873
23946W        W66884  28.968  20.917  28.007  0.0183 -0.0175  0.0071
23947W        W66885  28.969  21.381  28.598  0.4236  0.0178  0.0435
23948W        W66886  27.611  21.887  28.160 -0.2464 -0.2511  0.3084
23949W        W66887  25.704  19.969  29.483 -0.0643 -0.3373  0.0282
23950W        W66888  25.432  19.840  31.495  0.0981  0.0291  0.2664
23951W        W66889  25.334  19.102  31.052 -0.0342 -0.0674  0.3431
23952W        W66890  27.080  17.455  29.164  0.1500 -0.0728  0.1261
23953W        W66891  30.505  20.708  31.372  0.0005  0.1473 -0.1602
23954W        W66892  24.125  22.921  29.726 -0.4671  0.2488 -0.1811
23955W        W66893  30.399  20.681  28.869 -0.2733 -0.1399 -0.1387
23956W        W66894  24.634  18.791  29.488 -0.2120  0.4508 -0.1156
23957W        W66895  28.956  21.357  30.346  0.0319  0.2832  0.0548
23958W        W66896  27.683  22.336  27.956  0.1736  0.0699  0.1091
23959W        W66897  26.978  19.372  29.459  0.1845 -0.0600 -0.2934
23960W        W66898  28.086  19.760  31.282  0.1274  0.0368 -0.2595
23961W        W66899  26.392  19.070  28.424  0.0296 -0.1287  0.2084
23962W        W66900  27.852  19.741  28.251  0.0949  0.2947  0.0252
23963W        W66901  28.919  21.612  29.581 -0.2038 -0.1759 -0.1247
23964W        W66902  28.293  20.413  28.073  0.2099  0.1417  0.2202
23965W        W66903  27.559  20.014  29.331  0.0284 -0.2962 -0.0510
23966W        W66904  27.967  20.444  31.322  0.3187  0.2575 -0.0027
23967W        W66905  27.011  21.962  31.141 -0.0500 -0.0903 -0.0461
23968W        W66906  26.252  20.859  29.122 -0.0098 -0.0394  0.1813
23969W        W66907  24.935  20.325  29.638 -0.4191  0.0970  0.0462
23970W        W66908  25.397  20.164  28.825 -0.2024  0.1105  0.2729
23971W        W66909  24.019  18.886  30.710  0.0329  0.0361 -0.2714
23972W        W66910  25.862  21.177  29.970  0.0577  0.0538  0.0377
23973W        W66911  30.067  20.501  30.175 -0.2998 -0.1541  0.0193
23974W        W66912  25.513  18.920  30.605  0.1672  0.0459 -0.1331
23975W        W66913  28.882  18.262  30.730 -0.0733 -0.0556  0.3511
23976W        W66914  25.868  20.338  29.742 -0.4534  0.1063  0.0250
23977W        W66915  28.883  21.784  27.543  0.4196  0.1520 -0.4224
23978W        W66916  28.117  19.257  28.057 -0.1706 -0.2060 -0.0125
23979W        W66917  28.414  22.610  27.835 -0.0377 -0.4205 -0.3587
23980W        W66918  24.003  18.806  29.800  0.0856  0.1821 -0.2593
23981W        W66919  25.256  20.419  30.268 -0.1026 -0.1159 -0.0081
23982W        W66920  26.553  19.000  31.801 -0.0716  0.4115  0.1549
23983W        W66921  26.438  18.359  29.005  0.0838 -0.3719 -0.1330
23984W        W66922  29.992  19.130  30.379 -0.0822 -0.0966 -0.0702
23985W        W66923  27.061  19.582  27.792 -0.3705 -0.3337 -0.1407
23986W        W66924  27.870  19.339  29.272 -0.2619  0.1967 -0.1192
23987W        W66925  26.239  20.418  28.805 -0.3199 -0.1574  0.2589
23988W        W66926  26.086  20.361  29.250  0.0718  0.1336  0.1717
23989W        W66927  29.258  18.988  30.670 -0.0049 -0.0564  0.2096
23990W        W66928  28.035  19.228  27.531 -0.1040 -0.0449  0.1043
23991W        W66929  29.875  21.270  31.585 -0.0623 -0.0285 -0.0934
23992W        W66930  27.879  20.666  28.144 -0.0602 -0.1059 -0.2162
23993W        W66931  24.531  19.012  30.533 -0.2009  0.0520 -0.3751
23994W        W66932  26.349  19.304  28.919  0.0508  0.2964 -0.2787
23995W        W66933  26.261  21.244  30.393 -0.2749  0.1734 -0.1452
23996W        W66934  26.359  22.298  29.593 -0.1648 -0.1112 -0.2908
23997W        W66935  27.898  19.700  27.718 -0.0831 -0.1897  0.2383
23998W        W66936  28.440  22.046  27.883 -0.0181  0.0442  0.0376
23999W        W66937  27.474  20.245  28.743  0.0608  0.0820  0.5396
24000W        W66938  25.037  21.339  29.902  0.1614  0.1538  0.1665
24001W        W66939  28.729  17.823  31.156  0.0633 -0.2667  0.1287
24002W        W66940  29.539  20.066  30.324 -0.1683 -0.0301 -0.0204
24003W        W66941  28.398  19.435  28.945  0.0813  0.2779  0.0166
24004W        W66942  26.394  18.671  28.135 -0.1579  0.0341  0.0467
24005W        W66943  28.975  21.746  31.172 -0.0675 -0.0772 -0.0200
24006W        W66944  25.183  20.634  28.858  0.0078 -0.0298 -0.3908
24007W        W66945  24.393  20.576  28.325  0.0876 -0.0163  0.1056
24008W        W66946  28.585  22.977  30.973 -0.1264  0.3050  0.2684
24009W        W66947  28.626  19.808  29.919 -0.0789 -0.0764 -0.0169
24010W        W66948  24.683  21.002  31.450 -0.0383 -0.2120 -0.3852
24011W        W66949  27.614  19.898  31.483 -0.1829 -0.2130  0.0387
24012W        W66950  27.301  18.109  27.793 -0.0725 -0.1268 -0.0191
24013W        W66951  24.110  21.486  30.051 -0.5386  0.0132 -0.1025
24014W        W66952  28.587  18.190  29.326  0.1848 -0.3893 -0.2005
24015W        W66953  28.734  19.071  29.694 -0.2605 -0.2339 -0.4619
24016W        W66954  28.729  22.303  31.817 -0.3137 -0.0923  0.3165
24017W        W66955  27.663  21.166  28.823 -0.1089  0.2865 -0.3131
24018W        W66956  27.688  19.205  26.211 -0.1307 -0.0792 -0.0133
24019W        W66957  27.481  18.722  29.114 -0.0697  0.0604  0.0859
24020W        W66958  24.845  21.290  30.820 -0.1482  0.2144 -0.1046
24021W        W66959  27.083  20.695  28.760 -0.2100 -0.1622  0.2206
24022W        W66960  27.543  20.827  29.141 -0.0350  0.0485 -0.1382
24023W        W66961  26.177  18.360  29.572  0.3162  0.2814  0.1949
24024W        W66962  29.387  21.656  27.368  0.0786 -0.1975  0.2812
24025W        W66963  25.409  20.554  29.814  0.2595  0.1325  0.1042
24026W        W66964  29.396  20.633   0.288 -0.2349 -0.1888 -0.0526
24027W        W66965  29.656  21.770  29.999 -0.1399  0.3148  0.1590
24028W        W66966  26.270  18.270  31.047 -0.0984  0.0554  0.2466
24029W        W66967  27.518  19.264  27.333 -0.0764 -0.1205 -0.2205
24030W        W66968  28.931  20.129  29.299 -0.1077 -0.0837  0.3176
24031W        W66969  25.149  21.558  27.099 -0.2114  0.0918 -0.2278
24032W        W66970  27.905  20.801  29.509  0.3479 -0.4668 -0.1407
24033W        W66971  27.500  17.724  30.891  0.2172 -0.1106 -0.3439
24034W        W66972  25.409  17.791  30.251 -0.3269  0.2463 -0.1951
24035W        W66973  28.542  18.982  31.706 -0.0972  0.0228 -0.2422
24036W        W66974  29.081  18.625  29.813  0.4738 -0.2383  0.1880
24037W        W66975  29.300  19.520  29.988 -0.1854  0.2122 -0.1095
24038W        W66976  26.793  19.124  28.678  0.0590 -0.0862  0.2162
24039W        W66977  27.641  19.598  30.237  0.2910 -0.3226  0.1726
24040W        W66978  25.642  20.922  30.355  0.1626  0.2716  0.1048
24041W        W66979  26.818  20.754  29.250  0.1053 -0.0798 -0.0475
24042W        W66980  29.275  20.851  30.260  0.1638  0.1125  0.0170
24043W        W66981  27.546  20.747  28.548  0.0555  0.2222 -0.1113
24044W        W66982  27.702  19.893  31.955 -0.2676  0.1342 -0.2153
24045W        W66983  27.715  18.486  27.814 -0.1343  0.1428 -0.1009
24046W        W66984  26.015  21.073  29.485  0.0250  0.1344  0.2818
24047W        W66985  26.658  20.243  29.204  0.2539  0.0188  0.1888
24048W        W66986  26.102  19.326  29.865 -0.3373  0.1515 -0.3370
24049W        W66987  28.222  21.958  30.135  0.1493 -0.0613  0.4704
24050W        W66988  26.632  19.353  28.005 -0.1183  0.1051 -0.2986
24051W        W66989  28.275  20.132  30.084 -0.2709 -0.1219  0.1465
24052W        W66990  28.105  20.590  29.950 -0.2690 -0.0919  0.0041
24053W        W66991  28.402  18.593  30.680  0.0179 -0.1386 -0.2057
24054W        W66992  25.899  21.564  30.306  0.1168 -0.1461 -0.0187
24055W        W66993  27.073  18.808  29.513 -0.0936  0.0494  0.0908
24056W        W66994  25.364  20.055  29.857  0.3131 -0.1148  0.0281
24057W        W66995  27.607  20.115  29.997  0.1374 -0.1309 -0.0912
24058W        W66996  28.492  22.195  28.876 -0.0910 -0.3639  0.2260
24059W        W66997  25.123  17.671  29.845  0.1355 -0.1510 -0.0741
24060W        W66998  26.541  18.611  29.966  0.0431  0.4027 -0.4580
24061W        W66999  24.924  21.717  28.988 -0.3464 -0.0670  0.0943
24062W        W67000  27.299  20.448  31.237  0.0551 -0.1067  0.1004
24063W        W67001  27.902  18.616  29.357  0.2130 -0.1405 -0.2776
24064W        W67002  28.631  20.363  30.420 -0.4120 -0.0144 -0.3681
24065W        W67003  28.445  20.828   0.636  0.2216  0.2561  0.3192
24066W        W67004  26.507  18.842  26.864 -0.1531 -0.0775 -0.1856
24067W        W67005  30.640  18.372  30.376 -0.3352  0.0282 -0.2671
24068W        W67006  26.685  17.085  29.250 -0.0170 -0.0545 -0.1721
24069W        W67007  27.255  20.727  29.954  0.4993 -0.0233 -0.0722
24070W        W67008  28.157  22.770  30.184 -0.7209 -0.3560  0.1523
24071W        W67009  27.571  19.221  28.334  0.1135 -0.1437 -0.1494
24072W        W67010  25.694  20.669  29.380  0.5048 -0.0071 -0.0792
24073W        W67011  24.948  19.462  30.387 -0.1362 -0.1449 -0.1614
24074W        W67012  27.941  20.114  30.454  0.3613 -0.0119 -0.1619
24075W        W67013  26.575  18.137  29.898 -0.0319 -0.2026 -0.4144
24076W        W67014  25.110  18.886  28.438 -0.2574 -0.0937  0.0374
24077W        W67015  27.189  19.732  30.166 -0.1343  0.1434  0.0921
24078W        W67016  27.509  20.516  29.584 -0.1516 -0.0670 -0.0829
24079W        W67017  27.663  19.080  30.816  0.0202 -0.1078 -0.2635
24080W        W67018  25.059  21.860  30.111  0.1037 -0.1551 -0.1457
24081W        W67019  27.644  17.849  30.293  0.1160  0.1163 -0.1885
24082W        W67020  28.515  21.051  27.652  0.1597  0.1471  0.1036
24083W        W67021  28.544  19.212  31.019  0.0304  0.2352 -0.0361
24084W        W67022  26.364  19.926  28.949 -0.0328 -0.1674 -0.1917
24085W        W67023  25.398  19.728  30.262 -0.0616  0.2443  0.5388
24086W        W67024  27.010  19.871  29.383  0.1165 -0.2609 -0.0347
24087W        W67025  24.637  21.098  30.032  0.0110  0.1268  0.0125
24088W        W67026  25.015  19.029  30.592 -0.2243  0.2767 -0.0507
24089W        W67027  27.045  19.969  28.818  0.3525  0.0501  0.0877
24090W        W67028  26.740  20.615  29.943  0.3684  0.2232 -0.0280
24091W        W67029  28.145  18.307  29.677  0.0662 -0.1767 -0.0394
24092W        W67030  28.346  22.722  28.510 -0.3226  0.4985 -0.2954
24093W        W67031  26.831  21.006  30.389  0.0743 -0.1407 -0.0781
24094W        W67032  30.514  19.348   0.239  0.1417  0.0181 -0.1061
24095W        W67033  27.829  20.209  27.872 -0.0250 -0.0367 -0.4233
24096W        W67034  27.287  19.408  30.572  0.0855 -0.0274  0.6292
24097W        W67035  26.671  19.049  29.669  0.1770 -0.0383 -0.1719
24098W        W67036  28.191  20.756  30.490  0.2609 -0.0852 -0.0772
24099W        W67037  24.249  19.282  29.670  0.1411  0.0895  0.0504
24100W        W67038  28.240  21.272  31.904  0.0575  0.0064 -0.1905
24101W        W67039  26.103  19.338   0.583  0.0727 -0.2692 -0.1305
24102W        W67040  27.425  19.162  29.475 -0.1343 -0.1590 -0.2196
24103W        W67041  25.152  19.165  27.194 -0.1985 -0.0272 -0.0918
24104W        W67042  28.004  19.841  29.715 -0.0465  0.1086  0.0012
24105W        W67043  28.468  21.818  28.503 -0.2357  0.2891 -0.0299
24106W        W67044  28.357  21.829  27.401 -0.0025  0.1718 -0.0784
24107W        W67045  28.857  19.722  28.589 -0.1279 -0.1631  0.1579
24108W        W67046  26.078  20.207  30.592  0.0846  0.1428 -0.3167
24109W        W67047  28.429  19.515  27.743  0.1852 -0.2002  0.1043
24110W        W67048  29.480  20.397  28.526 -0.0362  0.2453  0.2267
24111W        W67049  25.271  20.374  29.301  0.2866 -0.0492  0.0180
24112W        W67050  26.953  18.499  30.494 -0.0772 -0.0251  0.0198
24113W        W67051  26.340  19.597  30.197  0.1030  0.0199  0.0344
24114W        W67052  27.642  20.541  30.835  0.0080 -0.1796 -0.3384
24115W        W67053  26.736  19.982  30.297  0.1178 -0.0560  0.0812
24116W        W67054  28.821  19.420  30.146  0.1606  0.1472 -0.0705
24117W        W67055  26.790  19.409  31.865  0.0970  0.3300  0.0599
24118W        W67056  26.328  19.471  31.061 -0.1210  0.1022  0.0036
24119W        W67057  29.452  22.641  30.915  0.0433  0.0525 -0.3373
24120W        W67058  27.601  18.850  27.520 -0.1544  0.4446 -0.0040
24121W        W67059  29.538  19.391  30.448 -0.0950 -0.1075  0.1322
24122W        W67060  28.451  20.168  29.474 -0.0975  0.0716  0.0799
24123W        W67061  28.067  21.163  27.821  0.1292 -0.0173  0.0880
24124W        W67062  25.301  18.300  29.832  0.2644  0.1038  0.0126
24125W        W67063  28.993  19.793  31.192 -0.3803  0.1964 -0.0596
24126W        W67064  27.060  20.133  26.949 -0.2422  0.1643 -0.0644
24127W        W67065  25.960  19.722  30.741  0.0103 -0.1151  0.4510
24128W        W67066  26.741  21.351  27.666  0.1739  0.0617  0.0977
24129W        W67067  28.084  21.291  31.322  0.2692  0.2285 -0.1099
24130W        W67068  27.136  19.063  29.060 -0.0359  0.0642 -0.0344
24131W        W67069  24.998  18.981  29.190 -0.1264 -0.0305  0.1833
24132W        W67070  26.848  22.043  30.424  0.1106 -0.0946  0.3311
24133W        W67071  25.669  19.140  28.484  0.1352  0.1318 -0.1118
24134W        W67072  27.466  23.035  28.276  0.1706 -0.4290 -0.0625
24135W        W67073  29.496  21.334  30.322  0.1001 -0.3241 -0.0127
24136W        W67074  30.369  19.913   0.136 -0.2231  0.0517  0.0539
24137W        W67075  28.475  17.446  29.608 -0.0371  0.0385  0.2214
24138W        W67076  30.220  19.563  30.545  0.2264 -0.0796 -0.1175
24139W        W67077  25.121  21.000  28.473  0.2001  0.2653 -0.2479
24140W        W67078  28.275  19.105  29.393  0.1168  0.1908  0.1200
24141W        W67079  26.885  21.107  29.872 -0.3439  0.0116  0.2556
24142W        W67080  24.739  19.317  29.625  0.1288 -0.0877  0.0576
24143W        W67081  26.721  21.688  29.761  0.1189 -0.0350  0.1552
24144W        W67082  26.067  18.932  30.391  0.3259 -0.0481 -0.1152
24145W        W67083  27.205  20.291  30.753  0.0562  0.0558 -0.3514
24146W        W67084  25.714  20.532  28.868 -0.1409 -0.3654 -0.0561
24147W        W67085  29.747  19.822  30.674  0.0931  0.1874  0.0839
24148W        W67086  27.993  21.936  30.630  0.1918  0.1348 -0.1481
24149W        W67087  25.640  19.136  29.544 -0.1977 -0.2136 -0.1885
24150W        W67088  28.341  21.679  29.636  0.0413 -0.0635  0.2419
24151W        W67089  28.840  22.106  29.231  0.0568  0.1783  0.2854
24152W        W67090  26.503  19.572  29.398  0.0436  0.0551 -0.1026
24153W        W67091  24.930  19.104  30.044 -0.0181 -0.2831  0.1037
24154W        W67092  27.035  20.413  30.302 -0.1258  0.2114 -0.3118
24155W        W67093  28.059  19.842  29.236  0.3421 -0.1033  0.2052
24156W        W67094  25.868  19.096  28.966 -0.2034 -0.1563  0.2541
24157W        W67095  27.219  20.579  27.282  0.2022  0.0907 -0.1349
24158W        W67096  25.463  21.528  30.826  0.0842  0.0983 -0.3039
24159W        W67097  24.802  20.381  31.206 -0.0174 -0.0972  0.2000
24160W        W67098  26.090  22.260  27.295 -0.6103 -0.0494  0.3750
24161W        W67099  27.481  21.589  28.651  0.0101  0.1469 -0.1610
24162W        W67100  28.616  20.112  28.351 -0.2643 -0.0141 -0.0834
24163W        W67101  28.524  21.605  30.312 -0.0454  0.1652  0.1297
24164W        W67102  27.202  18.325  29.379 -0.0162 -0.0445 -0.0916
24165W        W67103  24.486  21.520  29.189 -0.3077  0.1291 -0.1002
24166W        W67104  25.563  20.774  28.338 -0.0963  0.0362 -0.1454
24167W        W67105  28.127  22.301  28.176  0.0231 -0.0477  0.1467
24168W        W67106  27.279  21.192  28.014 -0.3418 -0.3845  0.2116
24169W        W67107  29.018  21.629   0.456 -0.0634 -0.0709 -0.1171
24170W        W67108  28.942  20.227  28.746 -0.0346  0.2441  0.0012
24171W        W67109  28.708  21.159  29.105  0.0881 -0.1812  0.1190
24172W        W67110  29.578  20.143  27.653 -0.0934 -0.0120  0.1287
24173W        W67111  29.429  20.560  31.703 -0.0040  0.2855 -0.3302
24174W        W67112  26.630  20.161  29.698  0.1400  0.0228 -0.0578
24175W        W67113  26.880  18.092  28.771  0.1709 -0.0366 -0.0094
24176W        W67114  26.131  20.745  30.437 -0.0744  0.0175  0.0506
24177W        W67115  29.881  19.310  30.928  0.0303  0.4002 -0.2106
24178W        W67116  27.696  21.682  31.281 -0.2839 -0.0262 -0.2122
24179W        W67117  29.191  21.186  27.518 -0.0147  0.1509 -0.4021
24180W        W67118  27.399  19.966  27.897 -0.1942  0.0280 -0.0670
24181W        W67119  27.089  18.706  29.990  0.3823 -0.1711 -0.1327
24182W        W67120  27.951  19.161  30.389 -0.2518  0.0913  0.0396
24183W        W67121  27.872  19.574  26.682  0.1095 -0.0728 -0.1552
24184W        W67122  26.654  18.529  28.582  0.0351  0.0816 -0.0818
24185W        W67123  26.532  21.737  29.255 -0.4501 -0.0679 -0.2056
24186W        W67124  26.412  21.149  29.944 -0.0828  0.0042  0.1891
24187W        W67125  26.106  21.271  31.333 -0.1209  0.0945 -0.2380
24188W        W67126  25.141  18.615  28.852  0.0386 -0.0396 -0.1955
24189W        W67127  29.136  20.015  28.280  0.0302  0.2804 -0.2432
24190W        W67128  25.913  19.896  30.174 -0.0152 -0.1114  0.0279
24191W        W67129  31.321  20.064  31.247  0.0848 -0.0735 -0.3471
24192W        W67130  25.428  19.171  30.125 -0.0848  0.0503 -0.0293
24193W        W67131  29.104  19.609  29.078 -0.1380  0.1407  0.0277
24194W        W67132  28.711  20.959  28.594  0.1418  0.0544 -0.2070
24195W        W67133  25.807  19.421  30.337  0.1113 -0.2062 -0.3676
24196W        W67134  27.512  18.638  29.768 -0.1077 -0.0119  0.2833
24197W        W67135  29.448  20.025  31.187  0.2837 -0.2521  0.1229
24198W        W67136  28.350  21.938  26.603 -0.1597 -0.0529 -0.0887
24199W        W67137  28.435  20.639  29.517 -0.3373  0.1092 -0.0957
24200W        W67138  25.341  16.684  29.312 -0.2203  0.0305  0.1083
24201W        W67139  28.132  18.382  26.961 -0.0075 -0.0512  0.3687
24202W        W67140  25.973  18.561  29.178  0.0597  0.1730 -0.0567
24203W        W67141  27.165  20.355  29.222 -0.4823  0.2104  0.1801
24204W        W67142  30.632  22.201  30.905 -0.1102  0.0739  0.2568
24205W        W67143  26.032  19.390  28.244  0.0684 -0.0084 -0.0867
24206W        W67144  27.748  21.578  27.371 -0.0129  0.1091 -0.2514
24207W        W67145  29.218  19.061  29.576 -0.2459 -0.3160  0.4376
24208W        W67146  27.039  21.605  28.884  0.1170  0.0857 -0.2392
24209W        W67147  27.966  20.338  28.541 -0.0952  0.1669  0.0673
24210W        W67148  29.166  21.694  30.025 -0.0256 -0.1958  0.0135
24211W        W67149  24.183  17.933  29.231  0.2417 -0.5170  0.1802
24212W        W67150  28.349  22.161  29.572 -0.0796 -0.3209 -0.1128
24213W        W67151  30.325  21.587  30.851  0.1509 -0.2069  0.1488
24214W        W67152  28.348  19.272  29.979 -0.2234 -0.1733 -0.0352
24215W        W67153  25.529  20.045  30.637 -0.2669  0.0486 -0.2101
24216W        W67154  27.296  21.219  30.223  0.2171  0.1443 -0.5097
24217W        W67155  28.143  18.077  30.216 -0.0709 -0.2690  0.2303
24218W        W67156  27.545  19.116  30.052 -0.1895  0.1055 -0.1337
24219W        W67157  27.025  21.725  28.409 -0.1709 -0.1968 -0.1402
24220W        W67158  29.217  17.833  31.418 -0.1475 -0.0747 -0.1551
24221W        W67159  26.756  19.294  30.861 -0.0696  0.0456 -0.1715
24222W        W67160  25.778  20.861  31.170  0.1360 -0.0097 -0.2485
24223W        W67161  25.163  19.396  28.313 -0.0829 -0.0094 -0.2405
24224W        W67162  27.718  20.875  30.060 -0.1972 -0.0980  0.1237
24225W        W67163  25.715  21.617  29.832 -0.1407  0.0259 -0.2689
24226W        W67164  27.211  19.429  28.722 -0.1452  0.0128 -0.1264
24227W        W67165  28.348  22.935  29.066  0.4295 -0.0376 -0.0013
24228W        W67166  27.506  20.341  28.221 -0.2171  0.1798 -0.2630
24229W        W67167  29.218  21.122  29.395  0.0994  0.1117 -0.0670
24230W        W67168  26.464  17.592  29.399 -0.0481 -0.0708 -0.2881
24231W        W67169  29.446  18.034  29.118 -0.2869 -0.4603 -0.0866
24232W        W67170  29.407  19.190  29.045 -0.1229 -0.4875  0.0622
24233W        W67171  26.741  19.669  29.837 -0.1059 -0.3637  0.2740
24234W        W67172  25.817  19.822  27.570 -0.0149  0.0599  0.0425
24235W        W67173  25.739  20.682  27.073 -0.2054  0.1066 -0.0501
24236W        W67174  26.572  19.582  28.513 -0.0949 -0.1022 -0.1965
24237W        W67175  27.759  18.848   0.269  0.2835 -0.1086  0.0124
24238W        W67176  26.735  18.939  30.370  0.2872 -0.0583  0.0396
24239W        W67177  25.437  19.090  28.078  0.1184 -0.1419 -0.0081
24240W        W67178  24.228  18.995  27.440 -0.0360 -0.0213  0.0121
24241W        W67179  30.848  21.178  30.260 -0.0226 -0.2727  0.1444
24242W        W67180  26.185  17.741  29.825 -0.0806  0.0282  0.0185
24243W        W67181  25.653  17.591  29.236  0.2998 -0.0292 -0.1359
24244W        W67182  27.826  21.293  29.738  0.2053  0.1901  0.1553
24245W        W67183  29.354  21.805  27.875  0.2198  0.2955 -0.0860
24246W        W67184  27.181  17.756  29.662  0.0418 -0.0469 -0.0883
24247W        W67185  28.235  22.086   0.031  0.1721  0.1386 -0.1201
24248W        W67186  25.615  19.537  29.842 -0.2610 -0.0636 -0.1513
24249W        W67187  26.494  19.034  31.251 -0.3593  0.0743 -0.1962
24250W        W67188  26.208  18.787  30.913 -0.1570  0.0795  0.2136
24251W        W67189  24.846  19.262  28.776 -0.0123  0.1892  0.1388
24252W        W67190  26.810  19.567  29.004 -0.1215  0.0590  0.1047
24253W        W67191  26.388  20.581  29.533 -0.0678  0.2378  0.4276
24254W        W67192  27.351  21.241  27.493 -0.1322 -0.6995 -0.3541
24255W        W67193  26.255  20.266  30.060  0.2045  0.1096  0.1135
24256W        W67194  27.741  21.037  30.559 -0.0435 -0.1029  0.1566
24257W        W67195  25.201  18.632  31.299 -0.0205 -0.0441 -0.2466
24258W        W67196  28.930  19.856  30.295  0.0350  0.0370  0.3270
24259W        W67197  26.243  19.929   0.007 -0.1481  0.0595 -0.1424
24260W        W67198  29.352  21.273  28.115 -0.0449  0.1189  0.0513
24261W        W67199  28.581  18.587  29.771 -0.1652 -0.0697  0.5118
24262W        W67200  28.426  19.669  28.242  0.0535 -0.1062 -0.1865
24263W        W67201  26.862  18.067   0.998  0.2487  0.2664 -0.2040
24264W        W67202  25.795  19.254  30.881  0.2878 -0.1014 -0.1830
24265W        W67203  29.828  20.181  31.514 -0.2086  0.1888 -0.0876
24266W        W67204  25.162  18.528  30.834 -0.1167 -0.1417 -0.1003
24267W        W67205  27.614  19.190  28.867  0.0877  0.0842 -0.3007
24268W        W67206  28.008  21.568  28.359 -0.0282 -0.4049 -0.1674
24269W        W67207  24.568  18.332  29.190  0.0004  0.0672 -0.0818
24270W        W67208  28.515  19.992  28.926  0.0598 -0.2070 -0.1644
24271W        W67209  26.990  19.814  30.723  0.1354 -0.1119  0.2423
24272W        W67210  28.620  20.734  30.783 -0.1148  0.0653  0.2395
24273W        W67211  28.552  20.521  31.323  0.2044  0.0407  0.0785
24274W        W67212  27.297  18.806  28.023 -0.0800  0.1303  0.0220
24275W        W67213  28.738  20.503  27.774  0.1727 -0.0995  0.1871
24276W        W67214  29.722  22.067  31.018  0.2831  0.2191  0.0262
24277W        W67215  28.917  23.749  30.427 -0.1490 -0.0312  0.1791
24278W        W67216  27.394  22.905  28.738  0.4012 -0.0280  0.1602
24279W        W67217  29.709  18.937  29.788 -0.0099  0.0068  0.0035
24280W        W67218  25.462  18.833  29.186  0.1018  0.1858  0.0690
24281W        W67219  27.363  19.553  29.210 -0.2504  0.1460  0.4955
24282W        W67220  26.643  18.994  29.173 -0.1260 -0.7102 -0.1038
24283W        W67221  29.127  20.361  30.325  0.1238  0.0659 -0.3363
24284W        W67222  25.414  17.832  31.614 -0.1756 -0.1728  0.1462
24285W        W67223  27.079  19.027  27.515  0.1540  0.1500 -0.1792
24286W        W67224  28.114  21.416  30.395  0.0428 -0.0772  0.2995
24287W        W67225  27.144  21.193  31.790 -0.1222  0.1199  0.2451
24288W        W67226  28.499  19.879  30.561 -0.2439  0.0645  0.1828
24289W        W67227  27.535  20.483  30.333 -0.0173 -0.2984  0.1638
24290W        W67228  24.914  20.022  30.105 -0.3005  0.1012 -0.1258
24291W        W67229  26.689  23.162  31.437  0.1495  0.0453  0.0731
24292W        W67230  26.353  19.431   0.117 -0.1606 -0.0808  0.2089
24293W        W67231  26.418  21.826  30.268 -0.1657  0.1379  0.2983
24294W        W67232  29.846  19.556  30.070  0.0075  0.2298 -0.1631
24295W        W67233  28.764  19.430  31.488  0.0604 -0.0147  0.1100
24296W        W67234  27.689  20.086  30.986  0.2489 -0.1281 -0.1156
24297W        W67235  27.073  20.105   0.472 -0.0702 -0.1862 -0.0834
24298W        W67236  28.308  20.848   0.179 -0.0144 -0.0289  0.0117
24299W        W67237  27.113  18.096  31.597  0.1225 -0.0637 -0.5498
24300W        W67238  30.107  20.431  31.175  0.0116  0.2575 -0.0175
24301W        W67239  27.863  20.643   0.434  0.1358  0.1083 -0.0703
24302W        W67240  29.345  19.542  30.915  0.0649  0.0706  0.2239
24303W        W67241  26.202  21.583   0.011 -0.3257  0.0157  0.1422
24304W        W67242  26.574  22.220  31.317 -0.0732 -0.1791  0.1035
24305W        W67243  28.592  20.980  31.657 -0.1712  0.1093  0.1144
24306W        W67244  27.263  17.906   0.316 -0.2155 -0.0462 -0.0505
24307W        W67245  25.103  18.621  31.759 -0.0768  0.4457 -0.0237
24308W        W67246  26.330  19.282  30.630  0.3172 -0.1557  0.2142
24309W        W67247  24.313  20.991  30.951 -0.2220  0.2202  0.1485
24310W        W67248  27.308  20.715   0.680  0.0504 -0.0541 -0.1940
24311W        W67249  27.991  21.425  30.814 -0.0864 -0.3251  0.3443
24312W        W67250  28.968  19.758  31.849  0.4379 -0.2060 -0.0437
24313W        W67251  28.197  20.158  30.906  0.2463 -0.0390  0.1822
24314W        W67252  26.828  20.485   0.668  0.0101  0.1423 -0.2529
24315W        W67253  25.798  21.652  31.285  0.0884 -0.1182 -0.0264
24316W        W67254  25.859  19.762  31.805 -0.1082  0.0012  0.3489
24317W        W67255  27.593  19.826   0.621 -0.1920  0.0086  0.3575
24318W        W67256  26.387  19.574  31.579  0.0389 -0.0048  0.0461
24319W        W67257  25.682  18.888  31.331 -0.1640 -0.1028 -0.3326
24320W        W67258  29.685  19.277  31.722  0.0921  0.0389  0.0144
24321W        W67259  28.625  19.485   0.466 -0.2107 -0.5241  0.1678
24322W        W67260  25.362  18.344   0.755  0.0504  0.4011  0.0705
24323W        W67261  25.098  20.921  30.305  0.0478  0.1065  0.1722
24324W        W67262  26.808  20.250  31.301 -0.0837  0.3216 -0.1959
24325W        W67263  27.984  20.849  31.047 -0.0156  0.0868 -0.2585
24326W        W67264  28.117  20.251   0.243  0.1628 -0.2018  0.1032
24327W        W67265  26.806  19.473  30.346  0.1037  0.1656 -0.3608
24328W        W67266  28.938  18.260  31.253 -0.1579 -0.1136  0.0338
24329W        W67267  27.056  19.050  31.662 -0.1691 -0.0958  0.0544
24330W        W67268  27.491  18.783  31.803  0.1180 -0.2655 -0.0215
24331W        W67269  28.095  21.723  31.665 -0.1875  0.0334 -0.0082
24332W        W67270  25.362  19.190   0.106 -0.2723  0.1995 -0.1667
24333W        W67271  27.215  19.807  31.970  0.2055 -0.1918 -0.1696
24334W        W67272  27.651  18.849  31.352  0.0628 -0.1084 -0.1763
24335W        W67273  27.040  20.926  31.205 -0.0822  0.0922 -0.1236
24336W        W67274  28.536  19.851   0.053  0.1412  0.0933  0.0484
24337W        W67275  25.812  21.169  30.810 -0.1725  0.0584 -0.2984
24338W        W67276  29.619  20.997  31.968 -0.0231 -0.1118  0.0592
24339W        W67277  28.953  19.532  29.549  0.1618  0.0900 -0.1849
24340W        W67278  28.700  19.347  31.973  0.1663 -0.0653  0.0041
24341W        W67279  27.540  21.203  31.099 -0.2687 -0.0064 -0.1803
24342W        W67280  26.239  19.825   0.942  0.3282 -0.2847  0.2168
24343W        W67281  28.538  20.006  31.487 -0.0384  0.0664 -0.3424
24344W        W67282  28.355  20.432  31.737 -0.0883 -0.1904 -0.1132
24345W        W67283  27.534  20.329   0.265  0.0472  0.0280 -0.0790
24346W        W67284  27.403  22.704  31.554  0.2412  0.0536 -0.1947
24347W        W67285  24.155  21.446  31.876 -0.4918 -0.1864 -0.0209
24348W        W67286  24.805  19.375  30.915  0.0346 -0.1014  0.0284
24349W        W67287  26.470  19.776  30.660 -0.2872 -0.2566 -0.2595
24350W        W67288  24.745  19.949  30.872  0.0477  0.0324 -0.0531
24351W        W67289  26.204  17.680   0.839  0.0313  0.3368 -0.2242
24352W        W67290  28.620  21.516  30.819 -0.0079  0.1673 -0.0592
24353W        W67291  29.037  21.086   0.617  0.2344  0.2244  0.3871
24354W        W67292  29.524  18.795  31.786  0.3060  0.1965  0.1490
24355W        W67293  26.610  25.024  18.451  0.1064  0.1557  0.4001
24356W        W67294  26.643  22.980  16.337  0.2397  0.0584  0.0725
24357W        W67295  28.541  22.307  15.919  0.0891  0.0074 -0.0698
24358W        W67296  28.799  23.879  17.789  0.0848 -0.0370  0.2062
24359W        W67297  25.066  23.180  16.461 -0.0091  0.0602  0.0156
24360W        W67298  27.476  25.787  17.038  0.1520  0.0401 -0.0800
24361W        W67299  25.794  20.990  18.284  0.0741 -0.0635 -0.1936
24362W        W67300  27.634  23.072  17.624  0.0236 -0.0609 -0.0155
24363W        W67301  28.596  25.494  18.875 -0.1161  0.0233 -0.1693
24364W        W67302  26.024  23.947  16.739 -0.0884  0.1693  0.2876
24365W        W67303  26.048  23.375  16.720 -0.2798  0.2352 -0.3512
24366W        W67304  27.056  24.723  18.564 -0.5160  0.1168  0.0771
24367W        W67305  26.538  22.394  18.023 -0.0972  0.1909  0.3969
24368W        W67306  25.477  22.863  17.232 -0.2256  0.0168  0.0134
24369W        W67307  27.380  24.516  19.843 -0.0432  0.0858  0.0166
24370W        W67308  26.005  23.385  15.895 -0.0511 -0.3383  0.0439
24371W        W67309  26.112  23.302  19.295 -0.0415  0.1070  0.1379
24372W        W67310  27.299  22.709  16.190 -0.1671 -0.0919 -0.1286
24373W        W67311  28.103  24.222  17.735 -0.1808 -0.0160 -0.1782
24374W        W67312  27.870  21.528  20.059  0.3210 -0.0640 -0.0654
24375W        W67313  27.794  22.002  20.425 -0.0518 -0.3395 -0.1091
24376W        W67314  27.980  25.030  16.538 -0.6032  0.1371  0.0689
24377W        W67315  24.759  23.545  16.266 -0.2732 -0.0664  0.2032
24378W        W67316  25.506  22.754  18.978 -0.0826 -0.1716  0.4075
24379W        W67317  25.359  25.251  18.442  0.2129 -0.1403  0.0137
24380W        W67318  28.225  21.801  17.534  0.0728 -0.0338  0.1572
24381W        W67319  28.931  24.484  17.207 -0.2338 -0.1028  0.0786
24382W        W67320  26.492  23.518  18.040 -0.1875  0.1383  0.0318
24383W        W67321  28.116  25.639  18.919 -0.2848 -0.2420  0.2679
24384W        W67322  27.918  23.323  19.132  0.0318  0.1316 -0.1889
24385W        W67323  26.015  24.474  16.681 -0.2396  0.0472  0.0082
24386W        W67324  23.920  26.210  16.868  0.3392  0.0188 -0.1495
24387W        W67325  26.468  24.770  16.381 -0.3297 -0.0474 -0.0718
24388W        W67326  28.084  25.036  17.055  0.1247  0.0254  0.2772
24389W        W67327  27.992  24.091  19.217 -0.0795  0.2344 -0.0780
24390W        W67328  26.590  25.502  18.731  0.2220 -0.4025 -0.0753
24391W        W67329  25.771  25.049  16.116  0.0172 -0.2528 -0.0719
24392W        W67330  26.729  22.479  19.138  0.3070  0.0259 -0.0572
24393W        W67331  26.359  25.146  18.902 -0.2401  0.0453 -0.2192
24394W        W67332  27.176  23.410  18.335  0.1955 -0.1923 -0.0124
24395W        W67333  26.996  24.661  16.528 -0.3054 -0.1449 -0.1106
24396W        W67334  26.836  25.749  16.014 -0.1383  0.1611 -0.0775
24397W        W67335  28.496  22.657  16.763 -0.1376  0.0366 -0.0496
24398W        W67336  27.393  25.284  19.099 -0.1582 -0.0489  0.0543
24399W        W67337  25.267  24.930  17.813 -0.0069 -0.0475 -0.0280
24400W        W67338  28.864  23.383  19.404  0.4133 -0.1766 -0.1940
24401W        W67339  25.680  24.497  16.034 -0.3246 -0.2377 -0.0061
24402W        W67340  28.456  23.755  17.405  0.0296  0.0454  0.0767
24403W        W67341  27.307  23.090  15.760 -0.3948 -0.3153 -0.0209
24404W        W67342  28.955  23.531  16.769  0.1434 -0.1499 -0.2285
24405W        W67343  26.984  22.313  17.833 -0.2918  0.0002  0.0412
24406W        W67344  25.876  25.398  17.677 -0.2585 -0.1757  0.0144
24407W        W67345  27.583  21.535  19.290  0.1524 -0.3195 -0.3694
24408W        W67346  27.199  22.520  18.305 -0.4137 -0.3452 -0.1916
24409W        W67347  27.360  23.594  17.240  0.0101 -0.1495  0.0976
24410W        W67348  26.915  23.751  17.968  0.0704  0.2764  0.1478
24411W        W67349  27.083  25.249  16.678  0.0578 -0.3091 -0.0692
24412W        W67350  26.259  23.653  16.340  0.0431 -0.2578  0.0809
24413W        W67351  27.650  24.915  17.556  0.1443  0.1558  0.0566
24414W        W67352  27.307  25.173  17.186 -0.0538  0.0103  0.1061
24415W        W67353  27.350  25.454  16.032 -0.2491  0.0612 -0.0139
24416W        W67354  26.139  22.761  16.523  0.1796  0.3598  0.2279
24417W        W67355  25.694  24.157  19.844 -0.0746 -0.0714  0.1042
24418W        W67356  26.538  23.014  19.295  0.1027 -0.0478 -0.1350
24419W        W67357  26.305  21.551  16.223 -0.2021  0.0612  0.0163
24420W        W67358  29.090  24.787  20.314 -0.0458 -0.1460 -0.1112
24421W        W67359  26.592  26.247  18.570  0.2223 -0.0729  0.1256
24422W        W67360  29.783  24.219  18.793 -0.0582 -0.1996 -0.2478
24423W        W67361  26.016  25.009  16.739  0.2674 -0.0468 -0.1625
24424W        W67362  29.031  23.665  18.545 -0.1544  0.0608  0.2054
24425W        W67363  27.982  23.557  16.619 -0.2842  0.1214 -0.1605
24426W        W67364  28.088  22.279  17.218 -0.1543  0.0217  0.3317
24427W        W67365  27.707  22.555  18.178 -0.4450  0.0606  0.3205
24428W        W67366  25.853  24.697  15.621  0.0002 -0.0706  0.0111
24429W        W67367  27.510  23.950  16.890 -0.0808 -0.0182  0.2901
24430W        W67368  29.559  25.520  18.145 -0.3871 -0.2146  0.1240
24431W        W67369  28.711  23.948  17.020  0.2363 -0.1046  0.1192
24432W        W67370  26.088  26.124  18.215  0.2616  0.3076  0.0731
24433W        W67371  27.290  22.935  20.442 -0.0891 -0.4328  0.1382
24434W        W67372  27.619  23.828  19.056 -0.3361  0.1886 -0.4396
24435W        W67373  25.738  25.133  15.527  0.0959 -0.0877 -0.3602
24436W        W67374  24.453  25.281  17.763  0.2012 -0.1861 -0.0226
24437W        W67375  26.903  25.265  16.239  0.3084 -0.0787 -0.0566
24438W        W67376  24.356  23.485  19.892 -0.0566 -0.1832 -0.2190
24439W        W67377  26.719  25.261  17.977 -0.0013 -0.2501 -0.0398
24440W        W67378  27.900  23.367  15.776  0.0203 -0.1652  0.1477
24441W        W67379  26.233  22.634  18.357 -0.1111 -0.1316  0.0689
24442W        W67380  29.958  22.354  17.035 -0.1863 -0.1528  0.1685
24443W        W67381  26.775  24.956  16.917 -0.1275 -0.0518  0.2538
24444W        W67382  29.048  25.660  16.653 -0.0065 -0.2437  0.2497
24445W        W67383  29.737  23.185  17.570  0.0672  0.1865 -0.1693
24446W        W67384  27.050  23.908  15.761  0.1298 -0.4257  0.0576
24447W        W67385  26.653  24.600  18.155  0.1921 -0.2735 -0.1838
24448W        W67386  26.134  22.535  17.092 -0.0362  0.0029 -0.0103
24449W        W67387  27.942  22.959  20.133 -0.1913  0.2000 -0.0511
24450W        W67388  24.657  22.214  18.906 -0.1012 -0.0804 -0.2882
24451W        W67389  28.428  22.238  20.080  0.3215  0.2044 -0.1054
24452W        W67390  26.695  22.354  17.266  0.0100  0.1032  0.1269
24453W        W67391  28.718  23.096  16.903 -0.3298 -0.0308  0.0858
24454W        W67392  27.442  22.466  16.595 -0.1403 -0.2246  0.0135
24455W        W67393  26.570  24.089  18.169  0.0560 -0.0384  0.0003
24456W        W67394  29.316  22.004  19.511  0.3402 -0.0155 -0.1421
24457W        W67395  27.764  25.387  16.293  0.3797 -0.1253 -0.0532
24458W        W67396  29.088  25.943  17.791 -0.1588  0.2738 -0.1359
24459W        W67397  28.249  24.366  18.575  0.0351  0.0197 -0.2468
24460W        W67398  26.900  24.319  19.182  0.0439  0.0365 -0.4690
24461W        W67399  25.890  20.276  15.657 -0.3997 -0.0062 -0.0708
24462W        W67400  25.824  26.090  16.731  0.0119 -0.1534 -0.0191
24463W        W67401  26.763  24.869  17.677  0.1781 -0.1251  0.1006
24464W        W67402  26.220  23.583  17.119  0.1726  0.1237  0.0450
24465W        W67403  27.576  24.965  18.058  0.1531  0.1923 -0.3967
24466W        W67404  26.427  24.243  16.374  0.3063 -0.0843 -0.3812
24467W        W67405  26.134  23.876  18.012  0.0062 -0.3577 -0.1556
24468W        W67406  28.500  20.777  19.267 -0.0719 -0.2606 -0.1328
24469W        W67407  28.594  22.776  18.506 -0.1121 -0.0012  0.3047
24470W        W67408  28.638  23.303  17.625  0.0450 -0.0640 -0.3066
24471W        W67409  25.425  23.271  16.775 -0.2603 -0.1359 -0.1282
24472W        W67410  28.453  22.003  18.931 -0.1072 -0.0202 -0.0896
24473W        W67411  26.183  24.543  16.055 -0.1332  0.0738 -0.2256
24474W        W67412  26.123  24.912  18.530  0.1005  0.0977  0.0121
24475W        W67413  27.307  25.653  16.489 -0.1088  0.1051  0.1440
24476W        W67414  29.185  21.689  17.955  0.1688  0.0347 -0.1633
24477W        W67415  25.971  24.425  19.259 -0.0157  0.2644  0.2163
24478W        W67416  27.756  24.447  18.782  0.1836  0.1289  0.0587
24479W        W67417  26.738  23.431  16.590  0.0965  0.1311 -0.0614
24480W        W67418  26.179  24.226  19.901  0.0669 -0.1246 -0.2016
24481W        W67419  26.100  22.201  17.454 -0.2258  0.2237  0.1169
24482W        W67420  28.071  23.069  16.785  0.0794 -0.1371  0.0753
24483W        W67421  27.997  23.796  18.237 -0.0627 -0.0733  0.1588
24484W        W67422  28.703  24.211  18.687  0.0099 -0.0824  0.0182
24485W        W67423  27.199  21.937  16.436  0.2415  0.3613  0.2393
24486W        W67424  27.414  22.244  16.118 -0.1249  0.0763 -0.0727
24487W        W67425  25.919  23.556  18.424 -0.3153  0.2754  0.1054
24488W        W67426  27.951  26.820  18.018 -0.0442 -0.1433  0.1118
24489W        W67427  26.521  24.467  16.826  0.1821 -0.1914  0.1043
24490W        W67428  27.459  23.444  16.739 -0.3178  0.0118  0.0142
24491W        W67429  28.208  25.837  15.725  0.0387  0.2265 -0.0591
24492W        W67430  26.266  24.939  18.045  0.1159 -0.1546  0.0571
24493W        W67431  28.281  24.563  19.279  0.0925 -0.1581 -0.2016
24494W        W67432  28.014  24.725  17.901 -0.0117 -0.2780 -0.0224
24495W        W67433  27.767  21.381  17.549  0.3147 -0.0112  0.3354
24496W        W67434  28.413  23.189  16.454  0.2497  0.5456  0.0259
24497W        W67435  27.461  21.889  16.910  0.4491 -0.0056  0.0142
24498W        W67436  25.245  25.262  15.778 -0.2006 -0.0389 -0.0081
24499W        W67437  27.512  22.899  19.338  0.1152 -0.0899  0.1594
24500W        W67438  28.174  23.616  17.787  0.2350 -0.1702  0.1193
24501W        W67439  26.867  22.104  18.315  0.1885 -0.0206  0.1122
24502W        W67440  27.365  23.556  20.764  0.2802 -0.2723  0.2522
24503W        W67441  27.544  24.820  16.792  0.1445  0.1334  0.1844
24504W        W67442  28.586  23.124  18.991 -0.1470  0.1960 -0.2659
24505W        W67443  25.687  23.736  16.980  0.2643 -0.0198 -0.0893
24506W        W67444  28.934  21.625  19.022  0.1481  0.0840 -0.0507
24507W        W67445  26.320  22.935  18.759 -0.2076  0.1016 -0.1882
24508W        W67446  26.674  24.765  20.350  0.0589  0.2008 -0.0919
24509W        W67447  28.170  23.445  19.883 -0.4633 -0.1938  0.0859
24510W        W67448  28.501  24.763  17.733  0.2409 -0.2084  0.1418
24511W        W67449  28.443  22.167  19.459 -0.4316  0.0499 -0.0286
24512W        W67450  28.362  22.796  17.223  0.2241 -0.0172 -0.2864
24513W        W67451  27.285  26.560  16.953  0.1038  0.2061 -0.3718
24514W        W67452  25.893  23.845  15.646 -0.2065  0.1015  0.0479
24515W        W67453  28.199  22.853  19.325  0.3892  0.3374 -0.3511
24516W        W67454  27.368  25.916  19.132  0.1175  0.0535 -0.1303
24517W        W67455  26.936  24.128  16.537  0.0476 -0.2394  0.0059
24518W        W67456  27.069  22.972  18.512 -0.0501 -0.0123  0.2084
24519W        W67457  27.406  26.148  16.664 -0.0599 -0.1908 -0.2371
24520W        W67458  28.341  23.184  18.555 -0.2840 -0.0516 -0.1282
24521W        W67459  25.838  25.781  19.007  0.3710 -0.0614  0.0608
24522W        W67460  26.507  23.337  15.986 -0.2449 -0.1084 -0.1275
24523W        W67461  24.072  23.420  15.439 -0.1069 -0.0741  0.1160
24524W        W67462  28.475  21.608  17.973  0.0702  0.0128  0.0873
24525W        W67463  28.512  25.289  17.816  0.1265 -0.1871 -0.3262
24526W        W67464  26.426  22.891  17.979 -0.0350 -0.1258  0.1417
24527W        W67465  26.981  21.806  17.780 -0.1113  0.0602 -0.1036
24528W        W67466  28.599  24.221  17.529 -0.0199 -0.1881  0.2993
24529W        W67467  27.489  22.999  18.848 -0.0057  0.1319  0.0257
24530W        W67468  27.687  22.991  16.501 -0.3218 -0.0371 -0.1232
24531W        W67469  27.571  25.572  18.724 -0.0212 -0.1114 -0.2549
24532W        W67470  26.589  24.951  19.817  0.0538  0.1315 -0.1004
24533W        W67471  25.696  23.007  15.857  0.0690  0.0332  0.1725
24534W        W67472  28.863  22.901  17.412  0.0930 -0.0988  0.0446
24535W        W67473  26.940  22.739  19.478  0.1938 -0.0333 -0.0293
24536W        W67474  25.494  25.959  16.339  0.0554 -0.0618  0.0114
24537W        W67475  29.081  24.706  18.479  0.0822  0.0773 -0.0093
24538W        W67476  27.784  24.044  16.476 -0.0747  0.1621 -0.3000
24539W        W67477  26.713  24.569  17.281 -0.3015 -0.3445 -0.0668
24540W        W67478  26.783  23.660  19.052 -0.0331  0.0975  0.1410
24541W        W67479  27.660  23.825  20.455  0.1949  0.1006 -0.0048
24542W        W67480  26.525  21.984  19.206  0.0635 -0.1756  0.0709
24543W        W67481  26.684  22.622  18.478 -0.1245 -0.1506  0.2366
24544W        W67482  26.976  22.142  18.808 -0.0921  0.0720  0.0358
24545W        W67483  26.517  24.580  19.434 -0.1349  0.0368  0.0856
24546W        W67484  27.105  24.525  20.264 -0.1307  0.1237 -0.2587
24547W        W67485  26.810  24.446  21.583  0.1708  0.1892  0.1563
24548W        W67486  27.972  21.802  19.275 -0.1084 -0.0477  0.1431
24549W        W67487  28.790  25.189  16.869 -0.3060 -0.0128 -0.1270
24550W        W67488  28.169  22.839  20.565  0.0482 -0.1305 -0.1050
24551W        W67489  27.411  23.552  15.707  0.1514  0.0723  0.3255
24552W        W67490  24.145  23.938  16.718  0.1033  0.1945  0.1553
24553W        W67491  25.993  23.881  17.524 -0.0028  0.0333  0.3849
24554W        W67492  26.590  23.222  17.598 -0.0104  0.0555 -0.1228
24555W        W67493  25.196  25.113  17.016 -0.0636  0.3934  0.1164
24556W        W67494  27.420  26.954  16.345 -0.0696 -0.0021  0.2807
24557W        W67495  26.776  26.082  17.925 -0.0446  0.0728 -0.0889
24558W        W67496  28.785  21.508  17.484 -0.2502 -0.0680  0.0092
24559W        W67497  27.066  23.721  16.841  0.1306 -0.2861 -0.1769
24560W        W67498  28.509  21.827  16.657 -0.2079  0.1562 -0.1040
24561W        W67499  29.258  22.759  20.357  0.0483 -0.0086  0.1475
24562W        W67500  27.953  23.773  16.127 -0.2716  0.2948 -0.0825
24563W        W67501  27.412  20.758  21.610  0.2181 -0.0682  0.3161
24564W        W67502  27.912  21.182  19.659 -0.0704 -0.0364  0.1147
24565W        W67503  28.736  25.104  18.539 -0.0183 -0.0903  0.0164
24566W        W67504  25.932  22.176  18.427  0.2356 -0.2004 -0.1192
24567W        W67505  27.245  25.575  21.415 -0.0957  0.4263 -0.2069
24568W        W67506  27.457  23.897  19.652  0.1923  0.0933 -0.3012
24569W        W67507  28.128  21.396  16.961  0.3332  0.3521  0.0413
24570W        W67508  26.804  22.711  17.655 -0.1325  0.0909  0.1752
24571W        W67509  26.359  24.578  17.611 -0.0238  0.0917  0.1164
24572W        W67510  28.909  24.993  17.532 -0.0396  0.1422  0.0827
24573W        W67511  27.864  26.384  17.199 -0.1213  0.2486 -0.0858
24574W        W67512  29.480  23.307  18.545 -0.0079 -0.0204  0.0248
24575W        W67513  25.932  24.866  17.700  0.0164  0.0773  0.2004
24576W        W67514  27.784  23.364  17.200 -0.0584  0.1620  0.3005
24577W        W67515  27.383  22.976  18.061 -0.0127 -0.2474 -0.0461
24578W        W67516  26.813  24.822  16.031 -0.3209  0.1337 -0.2438
24579W        W67517  27.870  22.694  19.696 -0.4704  0.1533  0.1172
24580W        W67518  27.617  22.465  18.672 -0.1216  0.4264  0.1674
24581W        W67519  27.001  22.764  16.661 -0.0533 -0.4283  0.1060
24582W        W67520  27.206  22.682  19.929  0.5255 -0.2710  0.1879
24583W        W67521  26.258  23.478  18.867 -0.0575 -0.0210  0.2286
24584W        W67522  27.190  24.790  19.028 -0.1553 -0.0432  0.0606
24585W        W67523  26.012  23.584  19.737  0.0248  0.0687 -0.1387
24586W        W67524  27.859  25.070  18.974  0.1826  0.1036 -0.2083
24587W        W67525  28.356  24.037  16.656  0.4001  0.2380 -0.2964
24588W        W67526  29.149  23.350  18.910 -0.0931 -0.0346 -0.1402
24589W        W67527  29.337  24.600  18.090 -0.4210 -0.1311 -0.0190
24590W        W67528  28.099  23.826  17.093  0.0450  0.0916  0.4528
24591W        W67529  25.573  24.065  17.991 -0.0102 -0.1365 -0.1204
24592W        W67530  27.086  23.200  19.482 -0.3531  0.0782 -0.1910
24593W        W67531  26.294  22.328  16.112  0.1660  0.1359  0.1068
24594W        W67532  27.365  21.700  20.045  0.1852  0.0709  0.0276
24595W        W67533  27.382  25.019  16.348  0.1764 -0.0741 -0.0008
24596W        W67534  28.123  23.187  18.093 -0.3421 -0.3520  0.2985
24597W        W67535  27.611  22.270  17.216  0.1090 -0.0238 -0.0541
24598W        W67536  25.668  23.329  17.303 -0.1024 -0.0156 -0.1682
24599W        W67537  25.785  24.605  20.066  0.3482  0.1405 -0.0291
24600W        W67538  27.796  24.052  17.406  0.0202  0.2210  0.1840
24601W        W67539  26.881  25.028  15.454  0.1795 -0.1137  0.0567
24602W        W67540  27.656  23.589  17.612  0.1849  0.2909  0.2095
24603W        W67541  28.454  23.935  20.041 -0.1889  0.1458  0.1441
24604W        W67542  27.396  22.550  17.733  0.2891 -0.3564 -0.0801
24605W        W67543  28.450  21.317  18.340  0.4640  0.1157  0.0576
24606W        W67544  26.363  26.214  17.654  0.3332 -0.0337  0.4538
24607W        W67545  28.606  21.344  17.040  0.1190  0.0370 -0.0771
24608W        W67546  26.836  25.241  17.377  0.2816 -0.0303 -0.1640
24609W        W67547  26.101  24.619  17.137 -0.0832 -0.0674  0.0083
24610W        W67548  26.853  24.324  18.655  0.1245  0.1818  0.1346
24611W        W67549  28.199  21.782  18.405  0.1878 -0.1964 -0.1877
24612W        W67550  28.844  24.771  19.399 -0.2029 -0.0242  0.0200
24613W        W67551  28.237  22.114  18.033  0.1070  0.1828 -0.2679
24614W        W67552  28.750  23.599  20.472 -0.0671  0.2090  0.1530
24615W        W67553  27.539  23.944  18.437 -0.1973 -0.2706  0.0745
24616W        W67554  25.604  24.809  16.555 -0.2734 -0.1639  0.1363
24617W        W67555  27.236  23.420  18.883 -0.2140 -0.0971 -0.2871
24618W        W67556  29.097  22.751  16.564 -0.1894 -0.0111 -0.1143
24619W        W67557  26.336  27.094  17.409 -0.1448 -0.1249 -0.0558
24620W        W67558  26.055  22.473  19.860  0.0344 -0.2392 -0.0938
24621W        W67559  26.801  25.460  19.624 -0.0254 -0.1635 -0.1778
24622W        W67560  27.899  22.662  17.676  0.0494 -0.1365  0.2821
24623W        W67561  26.732  21.642  16.545  0.0856  0.1553  0.0542
24624W        W67562  27.537  23.443  16.236  0.1284 -0.1510 -0.3784
24625W        W67563  26.528  24.219  20.261 -0.0349  0.0298 -0.1569
24626W        W67564  26.021  23.086  18.260 -0.0926  0.0176  0.1004
24627W        W67565  27.047  26.113  16.996  0.1348  0.1356 -0.1563
24628W        W67566  27.626  25.392  18.262  0.2743 -0.2992  0.3471
24629W        W67567  28.995  24.043  18.184 -0.2442 -0.1711  0.1660
24630W        W67568  27.917  24.783  18.424  0.1358 -0.0403  0.0290
24631W        W67569  27.229  23.863  16.247 -0.0440 -0.0540  0.0354
24632W        W67570  26.915  25.613  17.017 -0.2164 -0.2078 -0.0403
24633W        W67571  25.421  24.811  15.732  0.1522 -0.1555  0.1859
24634W        W67572  27.633  25.333  16.779  0.0149 -0.4506 -0.1456
24635W        W67573  26.714  26.566  16.870  0.4109  0.0641  0.1853
24636W        W67574  27.720  24.691  19.254  0.3770 -0.0731 -0.2040
24637W        W67575  28.044  21.961  16.785 -0.1727 -0.1718 -0.2912
24638W        W67576  30.432  23.497  18.342 -0.3574  0.0958  0.1272
24639W        W67577  28.899  22.301  16.399 -0.1971  0.0918  0.0456
24640W        W67578  27.084  24.190  19.648  0.3505  0.1769  0.2512
24641W        W67579  26.330  24.083  17.179 -0.2446 -0.1295 -0.2424
24642W        W67580  27.524  22.219  15.595 -0.1868  0.1252 -0.1871
24643W        W67581  24.811  23.389  17.700  0.0075  0.1238  0.1714
24644W        W67582  29.095  22.755  20.865 -0.0821  0.0022  0.0312
24645W        W67583  26.335  27.102  19.195 -0.4016  0.0136 -0.0025
24646W        W67584  27.964  25.355  15.862 -0.1193 -0.0457  0.0011
24647W        W67585  26.738  22.862  17.139  0.3123  0.1364  0.4284
24648W        W67586  26.472  23.820  17.646 -0.1071 -0.2548  0.2051
24649W        W67587  29.813  21.969  19.234  0.4495  0.2935 -0.0449
24650W        W67588  27.596  24.230  16.013  0.3630 -0.1755 -0.2191
24651W        W67589  27.210  23.087  17.014 -0.2239 -0.2086 -0.0947
24652W        W67590  26.600  25.300  15.814 -0.0113 -0.0358  0.0129
24653W        W67591  25.980  27.716  19.362  0.0754 -0.1468  0.1135
24654W        W67592  26.986  25.056  20.572  0.1934  0.1776  0.0629
24655W        W67593  25.757  22.542  17.498 -0.0566 -0.2888  0.0417
24656W        W67594  30.191  23.330  17.978 -0.0082  0.0100 -0.0476
24657W        W67595  26.667  23.269  18.656  0.1216  0.4302 -0.1694
24658W        W67596  29.125  21.497  19.511 -0.0228  0.1473 -0.0064
24659W        W67597  26.880  24.245  17.736  0.1596  0.0812  0.0941
24660W        W67598  28.083  24.610  17.374  0.0947 -0.0209  0.1404
24661W        W67599  27.688  23.464  18.110 -0.2532  0.1083  0.1518
24662W        W67600  26.896  23.807  18.541  0.2203  0.0900  0.1538
24663W        W67601  28.576  22.788  16.222 -0.1781  0.0185  0.2305
24664W        W67602  28.710  23.352  19.875 -0.1292 -0.3079  0.2644
24665W        W67603  28.088  22.757  16.344 -0.0741  0.1086 -0.2729
24666W        W67604  27.336  25.135  19.658 -0.0839  0.1228 -0.2421
24667W        W67605  25.090  22.333  18.050  0.0369  0.0237  0.0631
24668W        W67606  27.620  21.377  16.940 -0.1690  0.0146 -0.0842
24669W        W67607  26.029  24.051  16.089  0.2943 -0.3174  0.4562
24670W        W67608  26.898  23.621  17.475  0.0447 -0.1093 -0.4014
24671W        W67609  27.038  24.892  19.960 -0.2009  0.0888 -0.2703
24672W        W67610  25.451  22.129  15.386  0.1031 -0.1105 -0.1713
24673W        W67611  27.133  24.420  16.989  0.1112 -0.2038  0.0021
24674W        W67612  28.893  24.564  18.917 -0.0808  0.1841 -0.2263
24675W        W67613  26.018  25.575  15.343 -0.0636 -0.2131 -0.2571
24676W        W67614  29.305  23.149  17.158  0.0912  0.0334 -0.3000
24677W        W67615  28.631  26.237  17.673  0.0526 -0.0373  0.0372
24678W        W67616  24.667  22.120  18.254  0.0873 -0.1914 -0.0609
24679W        W67617  27.916  24.344  18.228 -0.0524 -0.0283  0.0098
24680W        W67618  28.887  24.899  18.058 -0.1435  0.0248 -0.2197
24681W        W67619  26.775  21.752  17.023  0.2217 -0.0646  0.1871
24682W        W67620  25.107  25.004  16.309  0.1352 -0.3011 -0.1115
24683W        W67621  25.988  25.153  17.218  0.1761 -0.3264 -0.0440
24684W        W67622  29.061  22.140  18.228  0.2181 -0.0810 -0.2777
24685W        W67623  28.952  22.836  19.262  0.0036  0.2879 -0.3449
24686W        W67624  26.843  26.746  17.904  0.2940 -0.1088 -0.2104
24687W        W67625  28.402  22.526  19.024  0.1006 -0.3046 -0.0492
24688W        W67626  27.821  25.271  19.520  0.0448  0.0797 -0.0109
24689W        W67627  24.532  25.039  19.942  0.0236  0.2823  0.2221
24690W        W67628  26.197  24.298  15.606  0.0136  0.3432  0.3270
24691W        W67629  27.845  23.502  18.677 -0.0276 -0.1647 -0.1887
24692W        W67630  25.882  24.353  17.635  0.0988  0.2084 -0.0969
24693W        W67631  27.238  25.165  17.707 -0.1907  0.0552 -0.1348
24694W        W67632  28.580  24.816  17.208 -0.0742  0.1002 -0.1462
24695W        W67633  29.373  22.717  17.581  0.0987 -0.0347  0.0906
24696W        W67634  29.203  23.244  17.618  0.1007  0.2408  0.1551
24697W        W67635  27.001  21.536  18.740 -0.1068  0.0074 -0.2241
24698W        W67636  29.867  22.613  17.471  0.3610  0.0825  0.2815
24699W        W67637  29.477  22.386  16.769  0.1576  0.1953 -0.0048
24700W        W67638  27.428  24.479  18.356 -0.1381 -0.0167 -0.2342
24701W        W67639  25.914  22.045  15.688  0.1040  0.0432  0.3408
24702W        W67640  25.402  23.717  16.554  0.0087  0.1289 -0.2145
24703W        W67641  25.437  25.869  18.623  0.0828 -0.1330  0.1932
24704W        W67642  27.358  21.164  20.821  0.3005  0.2971 -0.0784
24705W        W67643  27.508  22.423  19.444  0.0432 -0.0638 -0.1555
24706W        W67644  25.166  22.470  17.283  0.2366 -0.1621 -0.1496
24707W        W67645  26.707  23.386  17.077  0.0369 -0.0589  0.0567
24708W        W67646  26.504  26.143  15.980 -0.0150 -0.3498  0.0382
24709W        W67647  27.887  22.463  19.177 -0.2528 -0.4481 -0.4071
24710W        W67648  26.563  23.843  16.817  0.2348 -0.0865 -0.0408
24711W        W67649  27.275  24.011  17.497 -0.1277  0.4472 -0.0552
24712W        W67650  28.494  25.316  17.238 -0.3387 -0.0601 -0.2213
24713W        W67651  27.172  22.609  17.245  0.2392 -0.2856 -0.1648
24714W        W67652  27.748  23.315  20.519  0.0576  0.3627  0.1196
24715W        W67653  24.695  22.416  16.996 -0.3179  0.2430  0.0141
24716W        W67654  28.095  23.124  17.590 -0.3771 -0.1676 -0.1089
24717W        W67655  26.973  23.636  19.850 -0.0280  0.0746  0.1943
24718W        W67656  25.160  22.482  15.611  0.0763 -0.2415  0.2553
24719W        W67657  27.083  23.109  17.491  0.1287  0.0622 -0.1976
24720W        W67658  27.759  25.325  17.315  0.1145  0.0927  0.1985
24721W        W67659  28.096  25.772  16.191 -0.0850 -0.0425 -0.1251
24722W        W67660  29.284  24.399  19.573  0.1511 -0.2259  0.2310
24723W        W67661  27.143  27.144  19.195  0.2608 -0.1338 -0.1190
24724W        W67662  26.331  22.372  18.763  0.0973 -0.1395 -0.0370
24725W        W67663  27.403  24.327  16.493 -0.1318 -0.0874 -0.0014
24726W        W67664  27.099  25.068  18.212  0.1697  0.0364 -0.4076
24727W        W67665  28.146  24.531  16.645 -0.0613  0.1137  0.0385
24728W        W67666  29.452  22.594  18.058 -0.1432  0.0090 -0.0680
24729W        W67667  27.696  24.397  17.001 -0.1657  0.3131 -0.0204
24730W        W67668  26.454  22.667  20.551 -0.1215  0.0363 -0.0927
24731W        W67669  27.490  25.007  18.593  0.0583  0.2303 -0.1478
24732W        W67670  28.241  24.917  19.650 -0.1596  0.0762 -0.0700
24733W        W67671  26.530  22.130  16.584  0.1222 -0.2080 -0.0584
24734W        W67672  29.258  22.197  17.781 -0.2319 -0.1838 -0.1863
24735W        W67673  27.635  25.400  17.784 -0.1444  0.0267  0.2862
24736W        W67674  26.103  23.450  17.685  0.0176 -0.0766  0.1448
24737W        W67675  26.860  24.062  17.192 -0.1396 -0.2975 -0.2256
24738W        W67676  26.579  23.509  19.494 -0.0169 -0.1049  0.0671
24739W        W67677  27.257  24.079  18.829  0.0772  0.0026  0.1257
24740W        W67678  27.413  24.027  20.090  0.4235 -0.4358  0.3461
24741W        W67679  27.595  23.962  17.916 -0.0421 -0.2016  0.2107
24742W        W67680  29.081  23.632  16.236  0.0571 -0.1515 -0.0802
24743W        W67681  27.721  24.457  20.268 -0.0537 -0.2496  0.1499
24744W        W67682  28.584  26.073  20.727 -0.0373 -0.0598  0.1498
24745W        W67683  29.090  25.052  18.956  0.2085  0.1804 -0.0335
24746W        W67684  28.847  23.773  19.025 -0.0926  0.1202  0.2199
24747W        W67685  26.419  21.510  20.031  0.1966 -0.3524  0.2322
24748W        W67686  26.439  25.325  16.929 -0.1559 -0.1986  0.1388
24749W        W67687  27.104  24.143  18.202  0.1168 -0.1957  0.0284
24750W        W67688  28.310  23.310  17.184 -0.1013 -0.1539 -0.4597
24751W        W67689  26.885  23.156  18.037 -0.2356 -0.0523  0.3236
24752W        W67690  27.429  20.881  16.918  0.2478 -0.0933  0.1244
24753W        W67691  27.999  23.948  18.755 -0.1543 -0.0160  0.2604
24754W        W67692  27.256  24.586  17.432  0.1065  0.2190 -0.1403
24755W        W67693  26.556  26.206  24.552 -0.0233  0.3840  0.1262
24756W        W67694  27.017  22.523  21.341  0.1013 -0.2383 -0.0274
24757W        W67695  27.967  22.863  18.866  0.1017  0.0306 -0.0386
24758W        W67696  29.872  24.509  21.726  0.0891 -0.1840 -0.0925
24759W        W67697  25.280  22.488  20.575 -0.1461  0.3416  0.0707
24760W        W67698  27.947  25.010  20.979  0.1498  0.0190  0.3908
24761W        W67699  26.818  21.523  20.992 -0.2439  0.3142  0.1461
24762W        W67700  27.881  23.935  21.398 -0.1481  0.2712  0.2933
24763W        W67701  28.538  24.973  20.954 -0.1974 -0.0731 -0.4115
24764W        W67702  26.430  26.632  18.952  0.1946 -0.0467 -0.4229
24765W        W67703  29.441  23.589  22.057  0.1857  0.0627 -0.2334
24766W        W67704  26.465  25.015  20.776  0.0253 -0.3935  0.1898
24767W        W67705  26.934  20.480  21.782 -0.0193 -0.0741  0.0772
24768W        W67706  26.921  22.359  22.430 -0.0171  0.2788 -0.1343
24769W        W67707  27.547  23.374  23.411  0.0692  0.1349  0.2182
24770W        W67708  25.960  22.695  21.244  0.0281  0.0258  0.2176
24771W        W67709  27.272  22.254  23.520  0.3286  0.1611 -0.1413
24772W        W67710  26.710  22.052  21.589 -0.2542 -0.0697 -0.0781
24773W        W67711  27.370  24.239  20.556 -0.0179 -0.1006  0.3474
24774W        W67712  26.404  23.414  23.308 -0.0821 -0.1672 -0.1993
24775W        W67713  28.428  22.912  23.776  0.2093  0.1469  0.2585
24776W        W67714  27.938  24.636  21.286  0.0673  0.2824  0.1287
24777W        W67715  27.079  22.186  19.345 -0.0166  0.1170 -0.0342
24778W        W67716  24.907  23.016  22.204 -0.1295  0.0385  0.0878
24779W        W67717  26.591  22.705  22.833  0.2964  0.2684 -0.2031
24780W        W67718  29.010  23.389  22.909  0.0344  0.3637  0.0820
24781W        W67719  28.043  23.085  21.085  0.0272  0.0757  0.0761
24782W        W67720  26.475  24.752  21.873 -0.0457  0.0576  0.1767
24783W        W67721  26.199  25.004  22.272 -0.3312  0.2968 -0.0417
24784W        W67722  28.052  23.551  23.930  0.2619  0.3047 -0.1790
24785W        W67723  26.464  24.120  21.797 -0.2254  0.0065  0.1704
24786W        W67724  26.058  25.768  21.718  0.2066 -0.0289  0.3871
24787W        W67725  27.122  23.586  21.217 -0.0901 -0.0379  0.1302
24788W        W67726  28.677  24.354  20.484  0.4450  0.0656 -0.0094
24789W        W67727  27.684  25.356  23.186 -0.3441  0.2191  0.3258
24790W        W67728  28.497  26.618  24.273  0.0772 -0.4849 -0.2090
24791W        W67729  26.374  24.445  21.364  0.0806  0.4662  0.1045
24792W        W67730  27.731  24.811  21.753  0.2134 -0.4383 -0.0780
24793W        W67731  26.066  26.272  24.408 -0.0487 -0.1252 -0.1543
24794W        W67732  27.314  23.750  22.049 -0.0230  0.0193  0.1396
24795W        W67733  26.291  22.967  22.478  0.0837  0.1025 -0.1878
24796W        W67734  25.407  24.768  21.051 -0.2172 -0.1520 -0.0450
24797W        W67735  26.444  23.630  22.301 -0.1815  0.2038  0.1608
24798W        W67736  28.022  24.521  24.035  0.1809  0.0549  0.3638
24799W        W67737  25.548  24.299  21.190 -0.0571  0.3242 -0.0384
24800W        W67738  27.893  22.724  24.740  0.1905 -0.0216 -0.0190
24801W        W67739  26.141  22.954  19.626 -0.6461  0.2432  0.2045
24802W        W67740  27.663  21.639  21.506 -0.0500 -0.0053  0.2211
24803W        W67741  26.982  21.929  21.149  0.0079  0.1179  0.1632
24804W        W67742  28.297  23.673  19.109  0.0596 -0.2112 -0.0047
24805W        W67743  28.273  21.176  21.530 -0.0386 -0.0843  0.1353
24806W        W67744  26.545  25.700  22.032  0.3966  0.1491 -0.0724
24807W        W67745  27.560  23.535  22.401 -0.3155 -0.1658  0.1352
24808W        W67746  28.754  25.057  21.460  0.3011 -0.2417  0.0344
24809W        W67747  28.440  23.909  22.562  0.2272  0.1827 -0.0144
24810W        W67748  28.243  23.884  23.130 -0.0645 -0.3627 -0.1372
24811W        W67749  26.321  25.419  23.426 -0.1263  0.1457  0.2062
24812W        W67750  26.245  23.079  21.351 -0.0526 -0.0781 -0.0980
24813W        W67751  26.850  24.649  20.960 -0.0181  0.0414 -0.1638
24814W        W67752  29.535  24.666  20.783 -0.3752  0.0583  0.0331
24815W        W67753  27.304  26.209  19.685 -0.0573 -0.0172 -0.0529
24816W        W67754  26.683  23.790  21.492 -0.1144  0.3304  0.0976
24817W        W67755  25.944  23.299  22.894  0.0755  0.1003 -0.0851
24818W        W67756  26.626  23.962  23.416  0.0570 -0.2748  0.3484
24819W        W67757  27.504  22.210  19.968  0.0215 -0.2632 -0.0810
24820W        W67758  27.272  25.202  21.764  0.0541  0.2735  0.2055
24821W        W67759  25.741  26.894  23.066 -0.1862 -0.1671 -0.0592
24822W        W67760  29.167  22.298  20.626 -0.3440  0.0804 -0.1154
24823W        W67761  27.573  24.039  21.000 -0.0205 -0.0246  0.2905
24824W        W67762  27.615  24.351  21.516 -0.0903  0.0114 -0.0043
24825W        W67763  29.275  24.392  21.280  0.1656 -0.2679 -0.0221
24826W        W67764  28.010  22.170  21.752  0.1627 -0.1945  0.3163
24827W        W67765  27.920  21.831  23.123  0.2698 -0.0303  0.1680
24828W        W67766  26.211  23.946  19.347  0.1118  0.0923 -0.3330
24829W        W67767  26.316  22.046  19.810 -0.0460 -0.1937 -0.0416
24830W        W67768  27.813  24.671  22.610 -0.1760  0.1204  0.1580
24831W        W67769  27.939  23.725  19.559  0.1907  0.2555  0.0353
24832W        W67770  26.237  27.043  22.108 -0.1995  0.1909 -0.3570
24833W        W67771  27.074  23.324  23.561 -0.2155  0.0488  0.0814
24834W        W67772  26.479  24.049  24.082  0.3951  0.2742 -0.0752
24835W        W67773  26.376  23.904  20.643 -0.1269 -0.1182  0.1179
24836W        W67774  27.126  23.392  21.705 -0.0393 -0.1764  0.1940
24837W        W67775  26.180  22.061  20.639 -0.0892 -0.1473  0.0552
24838W        W67776  26.376  21.780  21.164  0.3697  0.0664 -0.1466
24839W        W67777  26.406  25.719  24.373  0.2502 -0.0707  0.2203
24840W        W67778  27.823  23.233  21.528 -0.0913  0.0138 -0.0520
24841W        W67779  27.425  22.225  22.397  0.4204 -0.1738 -0.0344
24842W        W67780  28.039  21.667  21.895 -0.0978 -0.3658 -0.2082
24843W        W67781  26.748  24.449  19.918 -0.2520  0.0563  0.0194
24844W        W67782  28.304  25.526  22.273  0.2979 -0.0197 -0.3062
24845W        W67783  28.778  21.517  19.852  0.0450 -0.1162 -0.1629
24846W        W67784  27.108  23.874  19.288  0.2480  0.1979  0.0620
24847W        W67785  24.919  22.883  21.580 -0.1560 -0.4708  0.0898
24848W        W67786  25.365  23.440  21.537  0.0951  0.3380  0.0848
24849W        W67787  26.065  24.500  24.143 -0.2457  0.1062  0.2307
24850W        W67788  24.935  22.358  21.038  0.5031  0.1599  0.0552
24851W        W67789  26.843  23.447  23.010  0.1654  0.0056 -0.1525
24852W        W67790  26.599  23.463  20.480  0.1317 -0.0609 -0.1110
24853W        W67791  28.383  22.501  22.107  0.1676  0.1312  0.0409
24854W        W67792  27.100  24.229  21.033 -0.2718  0.0530  0.0021
24855W        W67793  25.871  23.429  21.495 -0.0634 -0.0484  0.1368
24856W        W67794  28.564  22.293  24.575  0.0810  0.0468 -0.3120
24857W        W67795  27.752  25.875  20.587  0.2052  0.1516  0.0196
24858W        W67796  27.796  25.706  25.540  0.2070 -0.2216 -0.0535
24859W        W67797  26.904  26.151  22.402  0.2122 -0.1578  0.1163
24860W        W67798  26.811  22.524  23.403 -0.0741  0.0561 -0.1013
24861W        W67799  26.639  23.505  21.041  0.1142  0.0778 -0.3128
24862W        W67800  24.762  25.876  22.132 -0.0275  0.2199  0.1768
24863W        W67801  26.633  25.425  22.453 -0.0366  0.0677 -0.0745
24864W        W67802  27.368  22.810  22.083  0.2726  0.2093 -0.0527
24865W        W67803  27.454  24.459  22.002  0.1905  0.1891  0.0522
24866W        W67804  28.146  23.581  22.759  0.2820  0.1169  0.0699
24867W        W67805  26.627  24.577  23.979  0.0230  0.2895 -0.0027
24868W        W67806  30.184  22.856  23.418  0.1160 -0.0113 -0.0748
24869W        W67807  28.029  23.879  22.325  0.0183 -0.0874  0.3366
24870W        W67808  27.320  23.808  22.797  0.0825  0.1556  0.0810
24871W        W67809  25.254  21.901  20.247 -0.0126  0.2134 -0.2223
24872W        W67810  26.884  25.335  22.885  0.1163  0.1766  0.2308
24873W        W67811  27.033  25.159  18.762 -0.0944 -0.0103  0.0674
24874W        W67812  26.142  23.492  20.978 -0.2279 -0.0081  0.1481
24875W        W67813  26.962  25.247  21.125 -0.1320 -0.0573  0.0353
24876W        W67814  29.291  24.061  22.322 -0.1803  0.0176 -0.0434
24877W        W67815  25.906  24.767  23.667 -0.1121  0.3781 -0.1514
24878W        W67816  28.460  22.586  22.608 -0.1128 -0.0526 -0.0101
24879W        W67817  27.038  23.014  21.224 -0.2213 -0.1033  0.0828
24880W        W67818  25.717  27.327  22.032 -0.4687  0.1030 -0.0066
24881W        W67819  28.146  21.861  21.425 -0.0451  0.1807 -0.0509
24882W        W67820  28.666  22.533  20.617  0.1029 -0.2039  0.0783
24883W        W67821  27.069  24.304  23.155 -0.2244 -0.1413 -0.2258
24884W        W67822  28.500  23.974  20.788 -0.1288  0.1680 -0.0285
24885W        W67823  28.400  22.746  21.024 -0.1590  0.0315 -0.2003
24886W        W67824  28.459  23.782  18.596 -0.2754  0.4417  0.2236
24887W        W67825  25.501  26.271  23.763 -0.0488  0.1830 -0.1028
24888W        W67826  26.978  24.241  22.042 -0.2040  0.1011  0.0697
24889W        W67827  26.391  24.949  21.271  0.1367  0.4827 -0.2277
24890W        W67828  27.745  22.351  20.819 -0.2076 -0.0044 -0.2837
24891W        W67829  29.391  23.774  18.865  0.0059  0.3114 -0.1925
24892W        W67830  26.655  24.100  21.081 -0.3407 -0.0832 -0.2373
24893W        W67831  28.916  24.488  23.398 -0.1097 -0.1228 -0.0570
24894W        W67832  27.923  24.024  20.053  0.0495 -0.1717 -0.2052
24895W        W67833  27.692  23.427  22.846  0.1347  0.1917  0.1310
24896W        W67834  27.257  23.418  17.823 -0.2554  0.2820  0.1958
24897W        W67835  27.895  20.843  20.963  0.0429 -0.0023  0.1799
24898W        W67836  26.225  25.253  19.640 -0.1311 -0.0782  0.2165
24899W        W67837  28.928  22.191  21.919 -0.0522 -0.0716 -0.2790
24900W        W67838  29.000  23.188  22.277 -0.1011 -0.1374 -0.0759
24901W        W67839  28.179  22.930  22.849  0.4128  0.0802  0.0690
24902W        W67840  28.281  23.871  24.813 -0.0129 -0.0556 -0.1616
24903W        W67841  27.840  23.177  19.597 -0.3328  0.0343 -0.4017
24904W        W67842  26.405  23.593  22.806  0.2106 -0.0158 -0.1909
24905W        W67843  27.044  24.711  19.491 -0.0530  0.1563 -0.3657
24906W        W67844  28.290  23.788  23.602  0.0824  0.1681 -0.0389
24907W        W67845  26.031  23.902  22.490 -0.0838  0.3338 -0.1115
24908W        W67846  26.215  25.299  22.675 -0.0235 -0.1485 -0.0237
24909W        W67847  27.155  24.025  21.657  0.0931 -0.2379  0.1453
24910W        W67848  27.498  24.316  22.899  0.1217 -0.0638  0.0766
24911W        W67849  25.789  22.222  22.495 -0.0658  0.1207 -0.2347
24912W        W67850  28.232  22.291  20.648  0.2798 -0.0693 -0.0332
24913W        W67851  25.557  25.428  20.112  0.0017 -0.0266 -0.3801
24914W        W67852  27.701  23.595  20.021 -0.0099 -0.1023  0.0326
24915W        W67853  26.560  22.131  22.059 -0.3331 -0.0989  0.1286
24916W        W67854  27.278  24.471  24.044 -0.0076  0.1871 -0.1468
24917W        W67855  27.448  24.611  21.122 -0.1680  0.1789  0.0725
24918W        W67856  27.452  24.072  23.386 -0.1040 -0.3458  0.4259
24919W        W67857  26.435  24.426  20.788 -0.2134  0.1739  0.1050
24920W        W67858  29.368  21.618  22.984 -0.2432  0.2438  0.1449
24921W        W67859  25.581  26.059  24.279 -0.0169  0.1867 -0.3087
24922W        W67860  26.431  22.527  19.535 -0.1097  0.2348  0.0996
24923W        W67861  26.341  22.435  20.962 -0.1625 -0.4422 -0.1338
24924W        W67862  28.310  23.011  22.328  0.1790  0.1283 -0.0356
24925W        W67863  28.457  23.795  19.574  0.0263 -0.3188  0.2421
24926W        W67864  24.796  21.758  21.730  0.0537  0.0200 -0.3753
24927W        W67865  26.411  22.778  20.029  0.1316  0.5163 -0.0250
24928W        W67866  26.428  25.792  23.808 -0.0450  0.0239  0.0595
24929W        W67867  29.051  23.853  23.675 -0.2977 -0.0812 -0.0674
24930W        W67868  28.378  22.908  21.479 -0.0344  0.1597 -0.0406
24931W        W67869  26.672  24.533  23.414  0.0992  0.0458  0.0074
24932W        W67870  26.992  27.021  23.404 -0.0751  0.1564 -0.1154
24933W        W67871  25.969  22.587  20.317 -0.1098  0.2269 -0.4095
24934W        W67872  28.809  24.240  23.928  0.0211  0.2329  0.1956
24935W        W67873  27.101  23.242  22.156 -0.3563  0.0962  0.1317
24936W        W67874  26.835  25.186  22.010 -0.0601 -0.1177  0.0614
24937W        W67875  26.614  24.474  22.913  0.0355 -0.0837  0.1387
24938W        W67876  25.740  24.321  22.529 -0.1025 -0.0269 -0.0647
24939W        W67877  26.892  24.257  20.609  0.1648  0.0674 -0.1061
24940W        W67878  26.692  22.447  24.456  0.1066 -0.5029  0.2179
24941W        W67879  27.493  24.120  22.378  0.3134  0.0913 -0.0991
24942W        W67880  26.960  23.710  22.470 -0.0857  0.3792  0.3579
24943W        W67881  26.535  22.667  22.101  0.1391  0.1365  0.3669
24944W        W67882  26.316  23.473  21.842 -0.1739 -0.1748 -0.2025
24945W        W67883  27.352  24.641  22.455  0.0950 -0.3200  0.2441
24946W        W67884  27.958  23.415  22.193 -0.0845  0.0963  0.1028
24947W        W67885  27.101  25.146  23.825  0.0723  0.2725  0.1000
24948W        W67886  28.574  23.410  22.640 -0.0587 -0.3267  0.0525
24949W        W67887  28.820  25.474  19.714  0.1745 -0.1133 -0.2646
24950W        W67888  28.012  24.187  22.716  0.0423  0.0725 -0.0883
24951W        W67889  26.934  23.890  20.269  0.1347 -0.3358 -0.1261
24952W        W67890  25.594  24.673  22.147  0.0832 -0.1419 -0.1463
24953W        W67891  26.120  23.888  21.467  0.0715  0.2430 -0.1673
24954W        W67892  27.823  22.503  22.233 -0.1652 -0.0602 -0.2941
24955W        W67893  26.133  25.390  23.903 -0.0682 -0.1214  0.1041
24956W        W67894  27.540  23.055  21.072 -0.1290 -0.1950  0.0057
24957W        W67895  25.181  27.029  22.991  0.0894  0.2332 -0.0127
24958W        W67896  29.771  22.039  22.377  0.1143 -0.1403  0.3845
24959W        W67897  28.020  23.947  20.864  0.0741  0.0331 -0.0567
24960W        W67898  28.224  21.108  22.145 -0.1085 -0.2776 -0.5544
24961W        W67899  29.658  23.320  21.638  0.0216  0.2251 -0.1047
24962W        W67900  28.629  23.038  20.722  0.0258  0.1322 -0.1133
24963W        W67901  27.268  22.539  24.447 -0.0440 -0.0086  0.0119
24964W        W67902  27.031  22.162  24.052  0.0452 -0.2439 -0.2245
24965W        W67903  28.263  25.785  20.905  0.2317  0.1974 -0.1419
24966W        W67904  27.214  22.929  23.179  0.0527 -0.0845 -0.3674
24967W        W67905  27.612  25.628  24.421 -0.1618 -0.3749  0.1216
24968W        W67906  27.909  24.289  24.441  0.0651  0.0787 -0.2242
24969W        W67907  28.304  23.319  21.717  0.1608  0.1085 -0.0611
24970W        W67908  28.068  21.872  20.868  0.0395  0.0999  0.0830
24971W        W67909  25.430  23.219  22.769  0.0251  0.0234  0.0275
24972W        W67910  28.029  22.724  23.392 -0.0707 -0.2002  0.4035
24973W        W67911  26.944  22.716  20.726 -0.2273 -0.4860  0.1813
24974W        W67912  29.567  22.925  21.983  0.0367  0.0312 -0.0298
24975W        W67913  26.374  22.719  23.581 -0.1351 -0.0364 -0.0193
24976W        W67914  28.929  21.818  22.653 -0.1311 -0.0485  0.2703
24977W        W67915  26.866  22.866  22.416 -0.0082  0.0885 -0.2629
24978W        W67916  26.290  24.823  23.240 -0.2150 -0.3585 -0.3087
24979W        W67917  27.150  23.179  22.704  0.0489  0.0091  0.2656
24980W        W67918  28.398  24.112  21.249  0.0462 -0.0032 -0.3381
24981W        W67919  27.011  22.373  21.869  0.2444  0.0002 -0.0711
24982W        W67920  28.892  23.082  24.148  0.3452 -0.1943  0.0148
24983W        W67921  28.136  24.233  23.632 -0.0651 -0.1354 -0.0358
24984W        W67922  28.853  23.064  23.396 -0.1680  0.2173  0.2111
24985W        W67923  26.667  21.908  22.590 -0.2818 -0.0460 -0.0791
24986W        W67924  26.849  25.442  23.503 -0.1405  0.2205 -0.0574
24987W        W67925  26.623  23.148  22.057  0.0726  0.0925 -0.1377
24988W        W67926  29.558  22.521  22.349 -0.0100  0.0264  0.1665
24989W        W67927  30.538  23.683  20.791  0.1832 -0.0066  0.1064
24990W        W67928  26.808  23.756  21.974 -0.1873 -0.3457 -0.1165
24991W        W67929  25.776  23.469  21.949 -0.4093  0.3058  0.1202
24992W        W67930  27.615  24.476  23.682 -0.0306 -0.0306  0.1589
24993W        W67931  26.942  23.024  19.016  0.3201  0.2689 -0.1601
24994W        W67932  27.525  22.771  23.528  0.2423 -0.3474  0.2356
24995W        W67933  26.997  23.225  20.784  0.0401  0.0315 -0.1789
24996W        W67934  27.759  23.568  21.059 -0.2424  0.1191  0.1664
24997W        W67935  28.926  22.649  21.558  0.0403 -0.2211 -0.0492
24998W        W67936  24.314  23.382  20.735  0.1918  0.1666  0.2251
24999W        W67937  27.046  26.410  24.518 -0.0854 -0.0224  0.1199
25000W        W67938  26.619  24.721  18.945 -0.1053  0.0317 -0.0871
25001W        W67939  28.109  23.749  21.787  0.1058 -0.0643 -0.4515
25002W        W67940  27.189  24.713  22.947  0.3178  0.0798  0.2874
25003W        W67941  29.009  25.439  23.660 -0.0217  0.2335  0.1133
25004W        W67942  26.214  21.094  20.272 -0.0354  0.0176 -0.1522
25005W        W67943  29.740  24.148  24.502 -0.0413  0.0758 -0.0632
25006W        W67944  25.629  23.948  21.599 -0.0063 -0.1802 -0.1707
25007W        W67945  28.453  23.619  22.125  0.1475 -0.0205  0.0339
25008W        W67946  26.886  26.403  23.665 -0.1001  0.2615  0.0538
25009W        W67947  24.885  24.786  23.995  0.0250  0.1992 -0.2029
25010W        W67948  28.175  23.503  21.270  0.0634 -0.1703  0.2722
25011W        W67949  27.391  22.525  23.977 -0.0756 -0.1929 -0.0109
25012W        W67950  29.339  23.835  22.751 -0.0618  0.2812 -0.2807
25013W        W67951  26.962  22.903  21.733 -0.4170 -0.1407  0.1923
25014W        W67952  29.720  22.937  22.612  0.4456 -0.2040  0.3518
25015W        W67953  27.850  23.875  23.543  0.2615 -0.0761 -0.1125
25016W        W67954  25.723  22.354  21.627  0.1323  0.1255 -0.1312
25017W        W67955  25.468  24.867  23.453 -0.0111  0.2925 -0.0645
25018W        W67956  28.391  24.098  22.039  0.0166  0.3366 -0.1280
25019W        W67957  25.972  25.145  21.056 -0.0141  0.2104  0.0219
25020W        W67958  25.543  21.695  22.729 -0.2288 -0.0526  0.1750
25021W        W67959  27.055  23.954  24.143 -0.3286 -0.0059  0.1135
25022W        W67960  28.180  25.000  21.604 -0.2896 -0.1291  0.0160
25023W        W67961  26.286  21.366  20.887 -0.0792  0.1922  0.2341
25024W        W67962  28.103  24.677  20.082 -0.3085 -0.3945 -0.0601
25025W        W67963  26.808  25.988  24.128 -0.1275  0.0834 -0.3962
25026W        W67964  25.634  25.164  24.566  0.1624 -0.3417 -0.0634
25027W        W67965  25.245  26.297  20.031  0.2550 -0.2295 -0.0788
25028W        W67966  28.489  25.804  19.897 -0.0933  0.2945 -0.0789
25029W        W67967  27.434  24.729  20.550 -0.1537  0.0889 -0.2754
25030W        W67968  27.249  25.624  23.148 -0.3274  0.2381  0.0151
25031W        W67969  27.444  23.122  19.971  0.1508  0.0973  0.0782
25032W        W67970  25.351  25.252  21.766  0.2417 -0.1036  0.1492
25033W        W67971  26.867  26.116  21.914 -0.1452 -0.3084  0.1562
25034W        W67972  28.471  25.055  19.235 -0.0762  0.0125  0.3861
25035W        W67973  27.244  24.735  21.557 -0.0355  0.0275  0.1419
25036W        W67974  28.769  26.362  23.807  0.0657 -0.0071 -0.2470
25037W        W67975  29.000  21.819  21.140 -0.0384  0.0444 -0.2932
25038W        W67976  29.845  23.260  22.227  0.0590 -0.2785  0.1419
25039W        W67977  27.541  22.601  21.200  0.0410 -0.3905 -0.0220
25040W        W67978  28.985  26.590  24.199  0.1476 -0.3020 -0.0485
25041W        W67979  25.115  24.110  22.442  0.0211  0.0453 -0.1119
25042W        W67980  26.873  22.538  20.281 -0.0181  0.2648 -0.1020
25043W        W67981  26.779  23.919  22.916  0.1642 -0.0510  0.0957
25044W        W67982  29.649  22.039  24.435  0.0642 -0.2129  0.0168
25045W        W67983  24.568  26.273  24.376 -0.0862 -0.1133  0.0083
25046W        W67984  27.030  25.678  22.176 -0.0157 -0.1072  0.1506
25047W        W67985  25.710  22.277  20.652 -0.1065  0.0229  0.2498
25048W        W67986  26.643  23.293  21.515  0.3307 -0.0722 -0.1618
25049W        W67987  28.778  21.059  23.970 -0.0734  0.2352 -0.1600
25050W        W67988  26.484  25.517  19.229  0.1917 -0.0397  0.3657
25051W        W67989  28.882  23.733  22.424  0.0557 -0.2262  0.2594
25052W        W67990  26.021  25.669  20.238  0.2860 -0.4802  0.1091
25053W        W67991  26.009  25.858  22.608  0.1048  0.0176  0.2595
25054W        W67992  25.884  25.681  23.422  0.1524  0.0256 -0.0305
25055W        W67993  25.559  22.386  20.105 -0.0614  0.2795  0.0737
25056W        W67994  30.533  22.159  23.503 -0.0395  0.1361 -0.1790
25057W        W67995  26.408  22.307  23.212  0.2947 -0.0533 -0.0563
25058W        W67996  29.135  22.834  23.757  0.1607  0.0044 -0.0771
25059W        W67997  26.137  24.427  22.783 -0.0449 -0.0657 -0.1233
25060W        W67998  28.622  22.058  21.357 -0.0403  0.1594  0.2161
25061W        W67999  27.502  23.190  23.924  0.0672 -0.0255  0.2133
25062W        W68000  25.937  23.336  23.481  0.2100  0.0031 -0.2658
25063W        W68001  28.807  23.404  21.609  0.0199 -0.2634 -0.0175
25064W        W68002  28.738  23.606  23.358 -0.0543 -0.2484 -0.0796
25065W        W68003  28.186  24.349  20.453 -0.0785 -0.1522 -0.0779
25066W        W68004  27.789  25.439  24.015 -0.2706 -0.0197 -0.0268
25067W        W68005  25.518  22.557  22.061 -0.0509 -0.1995  0.1018
25068W        W68006  27.958  22.443  20.181  0.0383  0.1823 -0.1693
25069W        W68007  25.718  23.813  21.135  0.1076 -0.1899  0.0943
25070W        W68008  26.760  23.028  23.279 -0.0034 -0.2729 -0.0885
25071W        W68009  28.365  27.279  23.781 -0.1100  0.2821 -0.0022
25072W        W68010  26.625  21.717  20.492  0.2435 -0.0932 -0.0885
25073W        W68011  28.104  23.595  20.349 -0.0343  0.0187 -0.1570
25074W        W68012  29.775  23.965  21.732 -0.0047  0.4372 -0.2316
25075W        W68013  25.505  25.897  19.752 -0.1316 -0.2051 -0.1690
25076W        W68014  28.525  24.595  21.870 -0.0384  0.1749 -0.0421
25077W        W68015  27.591  25.036  21.339 -0.1894  0.1999 -0.0215
25078W        W68016  26.102  24.438  22.216 -0.1258  0.0730 -0.2249
25079W        W68017  27.077  24.760  22.011  0.0597  0.0722  0.1232
25080W        W68018  28.549  23.806  21.605 -0.1104  0.0172  0.2274
25081W        W68019  26.464  20.886  20.948  0.2902  0.1211 -0.0508
25082W        W68020  25.925  22.741  20.769 -0.0734 -0.4060 -0.0320
25083W        W68021  26.573  25.917  20.342  0.1891  0.1947 -0.0867
25084W        W68022  29.668  23.398  22.987 -0.0590  0.1476  0.3239
25085W        W68023  28.916  24.485  24.428 -0.1089 -0.2977 -0.1003
25086W        W68024  27.448  26.626  18.244 -0.0217  0.0822 -0.1093
25087W        W68025  28.460  22.006  21.903 -0.1916  0.2095  0.1557
25088W        W68026  26.798  24.957  23.214 -0.1188  0.3963  0.1224
25089W        W68027  26.700  25.416  23.995 -0.0553 -0.1634  0.1836
25090W        W68028  27.453  23.467  19.355 -0.0155  0.2169 -0.0923
25091W        W68029  25.100  24.650  23.239  0.1823  0.3105 -0.0792
25092W        W68030  26.265  24.296  23.309 -0.0544 -0.0298 -0.1777
25093W        W68031  27.784  25.702  21.555  0.0487 -0.3410 -0.3174
25094W        W68032  27.819  24.416  20.756  0.1963 -0.2811 -0.0555
25095W        W68033  27.970  22.938  21.940  0.1281  0.1451 -0.0011
25096W        W68034  29.834  24.300  22.162 -0.0475 -0.1488  0.2393
25097W        W68035  25.926  21.125  21.220 -0.0750  0.1257 -0.0840
25098W        W68036  30.021  22.670  22.218 -0.1665  0.2952 -0.1022
25099W        W68037  28.659  22.160  22.344 -0.1698 -0.0855 -0.0876
25100W        W68038  25.945  24.862  22.722  0.1899 -0.1990  0.1032
25101W        W68039  26.653  24.052  19.564  0.0935  0.0406  0.1303
25102W        W68040  26.493  24.081  18.966 -0.1067 -0.0610 -0.2354
25103W        W68041  24.797  25.341  21.763  0.3081 -0.0286 -0.1301
25104W        W68042  26.794  22.281  25.379 -0.0916 -0.1349  0.0491
25105W        W68043  25.758  21.662  25.230  0.0535 -0.3456 -0.1972
25106W        W68044  25.987  23.405  22.459  0.1754  0.3195 -0.1605
25107W        W68045  25.866  22.220  21.113 -0.0168  0.0844 -0.0947
25108W        W68046  27.886  24.313  19.633  0.2647  0.2010 -0.1620
25109W        W68047  25.861  21.873  21.481 -0.1003 -0.1308  0.1149
25110W        W68048  24.502  22.924  21.847 -0.3370 -0.0224  0.1017
25111W        W68049  27.559  23.313  21.970  0.2462 -0.0960 -0.1238
25112W        W68050  28.560  25.634  21.404  0.0636 -0.0412  0.0167
25113W        W68051  27.262  21.378  21.749 -0.1982 -0.0206  0.2454
25114W        W68052  28.193  25.329  23.630  0.0685  0.0768  0.0216
25115W        W68053  26.002  23.913  18.860  0.0383  0.3329  0.1713
25116W        W68054  27.774  23.909  23.028  0.2127 -0.1648 -0.0398
25117W        W68055  26.542  21.051  23.649  0.0351  0.1864 -0.0858
25118W        W68056  25.131  22.417  18.974 -0.1655 -0.2689 -0.0523
25119W        W68057  27.388  22.924  21.568 -0.1784 -0.0954  0.1119
25120W        W68058  26.512  26.306  22.775 -0.2043 -0.2228  0.0243
25121W        W68059  27.712  26.053  19.551  0.1092 -0.1666  0.0765
25122W        W68060  26.184  25.213  24.795 -0.3062 -0.2474 -0.1305
25123W        W68061  25.528  26.661  22.725 -0.2989  0.3690  0.0866
25124W        W68062  27.267  22.038  21.552  0.1303 -0.2727  0.0517
25125W        W68063  28.111  24.332  21.693  0.3266  0.1938  0.1965
25126W        W68064  26.523  24.930  22.672  0.1340  0.1011  0.2173
25127W        W68065  28.811  25.433  20.941  0.3638  0.0508  0.0748
25128W        W68066  30.033  22.403  20.947  0.0671 -0.0385 -0.0604
25129W        W68067  27.523  23.684  21.542 -0.4120  0.1804  0.2565
25130W        W68068  27.610  21.969  21.965  0.0719  0.1323  0.1907
25131W        W68069  26.486  25.866  22.471 -0.0108  0.1299  0.0597
25132W        W68070  27.837  25.402  21.945 -0.3893 -0.1133  0.0200
25133W        W68071  26.581  22.714  21.345 -0.1972 -0.0162  0.1244
25134W        W68072  28.202  22.274  21.170  0.0861  0.1184 -0.4015
25135W        W68073  27.378  25.081  20.226 -0.0091 -0.0025 -0.0150
25136W        W68074  26.054  23.746  23.115  0.0654  0.3971 -0.0381
25137W        W68075  28.406  22.438  21.593  0.0850 -0.3143 -0.1090
25138W        W68076  27.109  22.868  23.791 -0.1040  0.0728 -0.0770
25139W        W68077  27.062  24.263  22.531  0.4832  0.2397 -0.2096
25140W        W68078  28.238  25.174  23.129 -0.2583  0.1374 -0.1272
25141W        W68079  27.758  23.001  22.467 -0.2083  0.1107 -0.0968
25142W        W68080  29.025  23.210  20.294  0.0966  0.0147  0.0167
25143W        W68081  26.539  24.967  23.638 -0.2537  0.2142 -0.3245
25144W        W68082  28.071  25.838  24.245 -0.1586  0.0810  0.0208
25145W        W68083  26.296  25.209  21.697 -0.3414 -0.1186 -0.1111
25146W        W68084  30.597  23.486  21.934 -0.0417 -0.0159  0.0253
25147W        W68085  26.448  21.438  22.475 -0.1317  0.3255  0.2866
25148W        W68086  27.503  22.413  21.759  0.1111 -0.1951  0.1053
25149W        W68087  26.835  21.775  19.967  0.0211  0.2191 -0.1337
25150W        W68088  28.940  23.866  21.926  0.0291 -0.1815  0.1020
25151W        W68089  27.436  22.707  22.640 -0.1806  0.0380  0.0069
25152W        W68090  26.762  21.499  19.570  0.0390  0.0762 -0.1880
25153W        W68091  26.884  26.515  23.212  0.0497 -0.0012  0.0893
25154W        W68092  26.562  24.114  22.344  0.2250  0.0882 -0.0877
25155W        W68093  25.563  24.782  27.111 -0.3547  0.1372 -0.0585
25156W        W68094  26.058  23.266  24.395 -0.1235 -0.1471  0.0438
25157W        W68095  28.327  23.336  23.326 -0.0249  0.2891  0.0586
25158W        W68096  28.178  25.746  24.868 -0.2674 -0.0190  0.1748
25159W        W68097  25.868  23.694  26.257 -0.2268  0.2517  0.0402
25160W        W68098  27.374  25.248  25.118  0.0144 -0.1930  0.0415
25161W        W68099  26.291  20.600  28.278 -0.0128 -0.0565  0.0590
25162W        W68100  28.023  24.663  26.905 -0.4474 -0.1754  0.0079
25163W        W68101  28.924  25.052  25.285 -0.0520 -0.1483 -0.0695
25164W        W68102  26.231  24.237  25.309 -0.0132  0.1929  0.0428
25165W        W68103  27.261  24.221  25.665 -0.1495  0.0283 -0.4263
25166W        W68104  25.767  24.481  27.518 -0.0217  0.1507 -0.0015
25167W        W68105  25.634  23.041  24.342  0.0075  0.0220 -0.0993
25168W        W68106  25.778  21.889  27.856 -0.1148  0.5376  0.0131
25169W        W68107  27.259  23.719  27.567 -0.0552 -0.2308 -0.1133
25170W        W68108  27.758  24.090  24.038 -0.2591  0.1399 -0.1370
25171W        W68109  27.520  21.795  25.599  0.0580  0.5460 -0.0536
25172W        W68110  26.692  22.036  23.545 -0.0715 -0.1215  0.1850
25173W        W68111  28.382  25.023  26.829 -0.0979 -0.1873  0.0614
25174W        W68112  27.536  22.399  26.628  0.2742  0.0527 -0.0605
25175W        W68113  27.237  21.785  27.297  0.0862 -0.0272 -0.0105
25176W        W68114  26.935  25.049  25.385  0.1332 -0.3372  0.0507
25177W        W68115  25.846  22.091  24.079 -0.1007 -0.1406  0.2172
25178W        W68116  24.908  24.748  27.004 -0.0728  0.1788 -0.0391
25179W        W68117  25.916  22.911  27.795 -0.2755 -0.3983 -0.1355
25180W        W68118  28.264  23.302  26.491  0.0097 -0.0513  0.0110
25181W        W68119  28.381  24.090  25.281  0.1865 -0.1267 -0.0576
25182W        W68120  27.210  25.732  25.078 -0.0001 -0.2250 -0.1773
25183W        W68121  25.678  24.715  26.157 -0.2779  0.2686 -0.0560
25184W        W68122  27.413  24.178  27.030 -0.0224  0.1199  0.2498
25185W        W68123  25.882  25.001  25.204 -0.2648 -0.0256  0.0969
25186W        W68124  25.524  25.209  26.382  0.2167 -0.0111 -0.1862
25187W        W68125  26.818  23.414  25.433  0.1407  0.1378  0.0371
25188W        W68126  27.990  23.184  23.644  0.1848 -0.1544  0.1069
25189W        W68127  27.153  25.170  26.899  0.0628  0.1577 -0.1554
25190W        W68128  27.003  26.647  28.068  0.1786 -0.0524 -0.1199
25191W        W68129  25.878  25.869  23.914  0.0385  0.0324 -0.1946
25192W        W68130  26.332  26.407  27.107  0.1619  0.1981 -0.0598
25193W        W68131  24.005  24.921  26.830  0.0643  0.1405 -0.0456
25194W        W68132  27.926  24.166  26.979  0.0664 -0.1101 -0.0810
25195W        W68133  26.156  23.219  25.307 -0.0152  0.0170  0.1126
25196W        W68134  25.696  25.259  23.695 -0.2276  0.1577 -0.1303
25197W        W68135  26.594  24.478  26.303 -0.1468  0.0381 -0.4564
25198W        W68136  26.335  23.391  28.487 -0.1012  0.1418  0.0654
25199W        W68137  25.713  25.606  26.653  0.1693  0.4153  0.3296
25200W        W68138  27.865  22.830  28.479 -0.1960  0.4729  0.0516
25201W        W68139  27.442  25.147  24.219  0.3815  0.1494  0.0900
25202W        W68140  28.498  24.637  23.818 -0.1895  0.1191  0.0330
25203W        W68141  26.831  22.948  24.218  0.0583  0.1510 -0.0989
25204W        W68142  27.468  22.783  25.713 -0.0002  0.0461  0.2828
25205W        W68143  26.596  21.555  23.570  0.0691  0.1586  0.0056
25206W        W68144  25.853  25.057  25.751  0.1734 -0.2155 -0.1231
25207W        W68145  25.671  22.292  27.482 -0.1907 -0.1816  0.0553
25208W        W68146  28.232  24.657  27.880  0.3593 -0.1872  0.3653
25209W        W68147  27.731  22.492  24.324  0.0204  0.1532  0.2644
25210W        W68148  27.571  23.930  24.783  0.2406 -0.2984 -0.1467
25211W        W68149  26.964  25.903  26.757  0.0441 -0.0561  0.1758
25212W        W68150  25.505  22.991  24.913  0.0670  0.0052 -0.0692
25213W        W68151  28.658  25.099  23.587 -0.0158  0.3208  0.1752
25214W        W68152  28.735  25.786  26.379  0.5956 -0.3643 -0.3334
25215W        W68153  28.396  24.926  25.576  0.1728  0.1210 -0.1960
25216W        W68154  26.104  23.886  24.394 -0.0273  0.0960 -0.0196
25217W        W68155  26.307  24.064  29.722 -0.2411 -0.4599 -0.0270
25218W        W68156  25.271  24.515  28.085 -0.0795 -0.1075  0.1875
25219W        W68157  25.764  22.530  25.033 -0.0070 -0.1598  0.1627
25220W        W68158  28.683  25.156  28.161 -0.3076  0.4459  0.2038
25221W        W68159  24.430  24.371  28.060 -0.0850 -0.0035 -0.1895
25222W        W68160  28.276  22.694  25.945 -0.0676 -0.1994  0.2970
25223W        W68161  26.231  23.091  25.740  0.0789 -0.1973 -0.4875
25224W        W68162  27.801  24.464  27.848  0.1876  0.4019 -0.0023
25225W        W68163  27.658  24.759  23.149  0.0047 -0.1783 -0.1425
25226W        W68164  26.705  23.665  26.286 -0.0788  0.0445  0.0080
25227W        W68165  28.724  22.381  25.762 -0.0072 -0.2665 -0.0606
25228W        W68166  26.699  23.292  22.566  0.0733  0.0357 -0.3855
25229W        W68167  25.717  24.323  25.214 -0.0948 -0.1579 -0.0672
25230W        W68168  27.183  25.139  26.056 -0.2451  0.4734 -0.3265
25231W        W68169  28.355  25.219  24.703 -0.3136  0.1529  0.1032
25232W        W68170  24.689  25.342  27.958 -0.0445 -0.2066 -0.0178
25233W        W68171  27.072  23.158  26.480  0.1425 -0.1442  0.2062
25234W        W68172  26.680  24.190  27.758 -0.0000 -0.0033  0.3626
25235W        W68173  24.656  26.464  24.832 -0.0414 -0.4075  0.0809
25236W        W68174  24.736  25.198  25.842 -0.0116  0.0081 -0.1237
25237W        W68175  23.925  24.334  25.086  0.0532 -0.2390 -0.1610
25238W        W68176  25.288  22.714  25.577  0.1623  0.0521 -0.1137
25239W        W68177  26.496  24.074  26.711 -0.0143  0.0305  0.0890
25240W        W68178  30.041  23.070  26.381 -0.2032 -0.2646  0.1370
25241W        W68179  25.226  21.816  27.736  0.2806  0.2129 -0.3624
25242W        W68180  27.647  22.041  26.010  0.3426  0.0093 -0.2892
25243W        W68181  27.523  24.412  24.796  0.2578  0.0954 -0.4406
25244W        W68182  29.274  25.034  25.674  0.1407 -0.0031 -0.0828
25245W        W68183  27.988  23.111  25.075  0.1919 -0.1046 -0.0507
25246W        W68184  27.337  23.716  23.743 -0.0424  0.0546  0.1409
25247W        W68185  25.792  24.361  26.981 -0.0583 -0.2498 -0.1175
25248W        W68186  27.500  23.577  24.310  0.0376  0.3779  0.0920
25249W        W68187  25.586  21.340  26.962 -0.2764 -0.0003 -0.0882
25250W        W68188  26.120  22.292  26.820  0.3752 -0.0275  0.0658
25251W        W68189  28.767  23.209  28.589  0.0113  0.0713 -0.1473
25252W        W68190  24.892  22.729  24.095 -0.4146 -0.0662 -0.2137
25253W        W68191  29.782  24.371  25.699  0.1591 -0.0399  0.0529
25254W        W68192  26.191  24.170  24.826 -0.3215 -0.2552  0.1432
25255W        W68193  25.746  24.335  24.559  0.4029  0.1702 -0.1642
25256W        W68194  28.302  23.258  28.285 -0.2549  0.2972 -0.2947
25257W        W68195  27.149  24.825  24.534 -0.0137 -0.1890 -0.2769
25258W        W68196  28.306  25.567  26.464  0.0670 -0.1381 -0.1170
25259W        W68197  27.582  24.711  24.371 -0.0211 -0.1766  0.2680
25260W        W68198  26.479  22.898  27.285 -0.0486  0.1017  0.0522
25261W        W68199  24.853  23.398  24.228  0.1802  0.1595 -0.1283
25262W        W68200  25.776  25.264  27.155  0.1217 -0.0351  0.2911
25263W        W68201  27.235  24.512  26.568 -0.0216  0.0897 -0.0626
25264W        W68202  25.992  23.216  26.419  0.1091 -0.0559  0.1750
25265W        W68203  28.632  25.414  27.297  0.1331 -0.2135 -0.1508
25266W        W68204  26.971  21.611  23.279  0.1345  0.0788 -0.2293
25267W        W68205  26.978  22.826  28.391 -0.0203 -0.2701 -0.1199
25268W        W68206  27.994  21.931  27.044 -0.3290  0.1761  0.2157
25269W        W68207  29.482  24.472  27.719  0.0137  0.1459  0.0961
25270W        W68208  26.664  23.175  25.947  0.1189  0.3290 -0.0706
25271W        W68209  25.335  21.982  23.249  0.2219 -0.1996 -0.0119
25272W        W68210  29.049  25.945  25.164  0.1377  0.0466  0.3120
25273W        W68211  25.891  25.764  24.567  0.1563 -0.4127 -0.0278
25274W        W68212  24.572  22.972  25.556  0.3353 -0.2220 -0.2632
25275W        W68213  27.931  25.371  26.241  0.0156 -0.1779 -0.2311
25276W        W68214  27.604  23.261  25.905  0.0863 -0.1011  0.0076
25277W        W68215  25.857  23.656  28.106  0.0312  0.0406  0.1722
25278W        W68216  28.070  23.681  28.353  0.0024  0.0417  0.1522
25279W        W68217  26.173  22.599  24.548  0.4669 -0.1857 -0.2526
25280W        W68218  24.864  25.019  27.439  0.0431  0.2129 -0.5113
25281W        W68219  27.640  23.016  24.351 -0.1225  0.0379 -0.1961
25282W        W68220  28.661  22.520  24.127  0.2180  0.0109  0.2875
25283W        W68221  26.699  23.122  28.684  0.3176  0.1497 -0.2058
25284W        W68222  27.556  24.552  25.262 -0.1098 -0.3541 -0.0641
25285W        W68223  26.940  22.819  24.793 -0.0673  0.3299  0.0070
25286W        W68224  27.270  22.485  25.253 -0.1357 -0.0858  0.1958
25287W        W68225  25.786  24.458  28.012 -0.0809  0.2401 -0.1126
25288W        W68226  27.669  21.883  23.544  0.0029  0.0214 -0.0342
25289W        W68227  27.524  25.142  26.496  0.0142  0.3228  0.0422
25290W        W68228  28.639  24.579  25.255  0.3134 -0.1098  0.7602
25291W        W68229  29.561  25.670  26.070  0.2921 -0.2258  0.0706
25292W        W68230  25.475  25.787  28.000  0.1154  0.1011 -0.4803
25293W        W68231  26.762  24.509  26.847  0.1774 -0.0732 -0.0792
25294W        W68232  26.698  25.464  26.906  0.0722 -0.2346 -0.1278
25295W        W68233  27.119  22.344  27.596  0.1750  0.0214  0.2931
25296W        W68234  26.305  23.572  24.754  0.0847 -0.1474  0.0824
25297W        W68235  26.762  22.255  25.874  0.1807 -0.0628 -0.0709
25298W        W68236  26.830  25.713  24.603 -0.1033 -0.1206 -0.2889
25299W        W68237  27.929  22.832  26.638 -0.1984 -0.0555 -0.2113
25300W        W68238  27.229  21.391  26.951 -0.2466 -0.0275 -0.1063
25301W        W68239  27.596  22.149  27.403 -0.0598 -0.2150  0.0691
25302W        W68240  28.084  22.998  27.597 -0.1684  0.2656 -0.2542
25303W        W68241  28.790  24.988  24.800 -0.0186 -0.1500  0.0049
25304W        W68242  26.510  23.143  26.466 -0.0172 -0.1090 -0.1230
25305W        W68243  26.474  22.983  24.562 -0.0472  0.0292 -0.0948
25306W        W68244  27.512  22.506  28.441  0.2878 -0.1206  0.2024
25307W        W68245  25.030  23.773  27.763  0.4247  0.0868  0.3517
25308W        W68246  25.189  27.011  27.422 -0.1631 -0.0091 -0.0803
25309W        W68247  26.906  24.901  26.520 -0.3897 -0.1016  0.0154
25310W        W68248  29.750  24.930  25.473  0.1859 -0.0634 -0.3193
25311W        W68249  26.677  22.062  28.800 -0.0886  0.0460  0.2242
25312W        W68250  27.393  24.151  24.404 -0.2042  0.0341  0.1219
25313W        W68251  25.401  25.666  24.667 -0.0020  0.1882 -0.2740
25314W        W68252  26.228  23.863  23.695  0.1787 -0.1819 -0.0774
25315W        W68253  25.259  22.531  27.292  0.2595 -0.0742 -0.0176
25316W        W68254  28.149  23.879  26.250  0.1237  0.2700  0.2208
25317W        W68255  26.719  23.704  23.827 -0.1690 -0.1474  0.1906
25318W        W68256  27.362  24.147  26.198 -0.3447 -0.3357  0.0785
25319W        W68257  26.117  25.570  25.455 -0.1440  0.1571 -0.0726
25320W        W68258  27.957  22.090  25.179 -0.3496  0.4716 -0.0290
25321W        W68259  25.964  25.160  26.188 -0.3605 -0.2375  0.0202
25322W        W68260  26.584  22.993  25.120 -0.0195  0.2267 -0.0273
25323W        W68261  25.507  22.903  23.540  0.0723  0.0672 -0.3554
25324W        W68262  28.311  22.512  24.948  0.1649  0.0445 -0.1341
25325W        W68263  27.864  24.957  24.016 -0.2603  0.0624 -0.0148
25326W        W68264  26.827  22.994  26.928 -0.1670  0.0193 -0.1355
25327W        W68265  26.353  21.818  27.097  0.2598  0.0644  0.3732
25328W        W68266  25.488  24.795  25.457 -0.2398 -0.1502  0.1598
25329W        W68267  27.519  23.939  26.598  0.1701 -0.0007 -0.2936
25330W        W68268  27.934  23.313  24.576 -0.1423  0.1529  0.2685
25331W        W68269  28.591  24.527  25.780 -0.0610 -0.2925  0.4862
25332W        W68270  25.849  24.024  27.665  0.1656 -0.1170 -0.2100
25333W        W68271  25.770  23.829  23.997 -0.1399 -0.0032 -0.1165
25334W        W68272  26.960  24.069  26.505 -0.2367  0.0719  0.1696
25335W        W68273  27.957  23.810  24.431  0.0768  0.3076 -0.3009
25336W        W68274  25.528  24.236  25.730 -0.3117 -0.0885 -0.2665
25337W        W68275  27.385  25.593  26.684 -0.1630  0.1544 -0.1760
25338W        W68276  25.716  23.742  23.519 -0.2310  0.3392 -0.2482
25339W        W68277  25.893  24.555  25.654  0.2893 -0.0741 -0.1164
25340W        W68278  26.242  23.536  27.482 -0.0354 -0.1452 -0.0839
25341W        W68279  27.437  24.047  27.956 -0.0398  0.0117 -0.0775
25342W        W68280  27.253  22.119  26.328  0.4368 -0.2620 -0.0686
25343W        W68281  26.128  23.497  23.971 -0.0911 -0.0200  0.2626
25344W        W68282  26.210  22.811  26.805  0.1258 -0.0934 -0.0877
25345W        W68283  27.008  22.324  24.842  0.1253  0.1471 -0.2544
25346W        W68284  27.430  22.942  26.832 -0.0272  0.1180 -0.1747
25347W        W68285  26.509  23.745  29.208 -0.0393  0.0182  0.1723
25348W        W68286  27.006  20.991  25.008  0.0133  0.4074 -0.0660
25349W        W68287  29.258  25.484  25.478 -0.0315 -0.0677 -0.1612
25350W        W68288  28.366  24.252  26.547 -0.0695 -0.1761  0.2905
25351W        W68289  27.061  23.358  24.076 -0.1817 -0.2794 -0.2509
25352W        W68290  24.343  25.226  24.385  0.0321 -0.1285  0.1386
25353W        W68291  26.115  24.440  26.520  0.1127 -0.1230 -0.2682
25354W        W68292  27.322  23.301  27.170  0.0963 -0.0981  0.2663
25355W        W68293  26.375  23.996  26.198  0.2381 -0.0696 -0.1817
25356W        W68294  25.789  26.404  23.359  0.0862 -0.2128 -0.3540
25357W        W68295  26.410  24.776  25.446  0.1740  0.0373  0.1037
25358W        W68296  28.977  22.848  25.658  0.1673  0.0613 -0.0012
25359W        W68297  27.282  25.400  24.646  0.0728 -0.2446 -0.0452
25360W        W68298  27.260  23.617  26.195 -0.0110  0.0963 -0.0525
25361W        W68299  28.401  22.667  27.332  0.2299  0.0456 -0.1680
25362W        W68300  28.417  24.544  23.371  0.0023  0.1866  0.2122
25363W        W68301  28.580  22.499  26.717 -0.0949  0.1286  0.0591
25364W        W68302  26.714  22.261  27.907  0.3913  0.0927  0.0408
25365W        W68303  28.987  24.469  26.099  0.0150  0.2171 -0.1334
25366W        W68304  25.617  21.906  26.727  0.2125 -0.1105 -0.0020
25367W        W68305  27.769  25.657  28.555  0.0856  0.2252  0.0451
25368W        W68306  25.081  23.642  28.867 -0.2431 -0.0509 -0.0015
25369W        W68307  28.133  23.982  25.675  0.0274  0.1937 -0.0351
25370W        W68308  26.306  22.180  25.558  0.1066  0.0652  0.2633
25371W        W68309  26.853  24.145  25.997 -0.3725 -0.0289  0.1125
25372W        W68310  27.622  25.250  25.801 -0.1034 -0.1080 -0.0116
25373W        W68311  27.107  24.347  25.135 -0.1695  0.0418 -0.0407
25374W        W68312  28.914  24.332  26.615 -0.2647  0.1960  0.0210
25375W        W68313  25.510  23.749  25.953  0.1096 -0.1000 -0.2255
25376W        W68314  26.360  23.668  25.436 -0.0742 -0.1820 -0.0545
25377W        W68315  27.638  24.893  24.804  0.1413 -0.0828  0.1540
25378W        W68316  26.609  23.885  25.042 -0.0896 -0.1919  0.4299
25379W        W68317  27.059  22.747  27.339 -0.1370  0.0720  0.1915
25380W        W68318  28.554  24.574  26.966  0.3982 -0.0098  0.0795
25381W        W68319  27.728  22.606  27.500 -0.2134  0.0410  0.2920
25382W        W68320  27.922  22.973  25.649 -0.0062  0.0663  0.2774
25383W        W68321  27.770  24.367  26.468  0.0931  0.2505 -0.0015
25384W        W68322  26.278  23.296  26.975 -0.1612  0.1676  0.0553
25385W        W68323  25.719  22.231  28.813 -0.1223 -0.1873  0.2649
25386W        W68324  27.805  25.842  26.414  0.0968 -0.3172  0.1124
25387W        W68325  27.682  22.964  23.042  0.1006  0.0864 -0.0458
25388W        W68326  29.638  22.583  28.023 -0.0491  0.0803 -0.2713
25389W        W68327  28.379  25.213  26.085  0.4115  0.0484 -0.0067
25390W        W68328  27.058  23.778  23.302 -0.3168 -0.2278  0.0391
25391W        W68329  26.334  23.616  26.628 -0.0628 -0.0091 -0.0182
25392W        W68330  27.959  22.461  27.015 -0.2292 -0.1358  0.0570
25393W        W68331  26.033  21.137  25.277  0.1736 -0.0682  0.1120
25394W        W68332  28.964  22.598  29.258 -0.2830 -0.2745  0.0780
25395W        W68333  26.667  24.904  24.791  0.2402  0.2649 -0.1044
25396W        W68334  27.888  24.946  25.374 -0.2550  0.0118 -0.0622
25397W        W68335  27.126  24.604  26.091  0.1710  0.0741 -0.1710
25398W        W68336  25.926  23.559  25.635 -0.1397  0.1123  0.1543
25399W        W68337  23.576  24.910  28.394  0.3086  0.0920 -0.1449
25400W        W68338  26.143  22.216  23.641 -0.0336 -0.0163  0.3430
25401W        W68339  26.955  24.199  23.695  0.1344  0.0639  0.1980
25402W        W68340  26.556  26.509  26.210 -0.0955  0.1661 -0.2060
25403W        W68341  28.717  24.481  28.083 -0.0199 -0.1078 -0.2356
25404W        W68342  26.487  22.443  25.021 -0.1855 -0.0452 -0.0486
25405W        W68343  29.024  22.463  27.909  0.0918  0.1455  0.0559
25406W        W68344  25.396  25.724  25.167 -0.0316 -0.1285  0.2440
25407W        W68345  26.428  22.618  25.781 -0.2007  0.3377  0.2555
25408W        W68346  26.120  26.295  28.219  0.0895  0.0553 -0.0704
25409W        W68347  26.177  24.425  28.387  0.0419 -0.0152  0.3284
25410W        W68348  26.477  25.255  25.283 -0.0988  0.0681 -0.0469
25411W        W68349  26.422  22.399  26.290  0.3497 -0.0993  0.0694
25412W        W68350  29.066  24.231  25.254 -0.0558 -0.0245  0.0464
25413W        W68351  28.106  24.856  26.344  0.0327  0.2079 -0.0107
25414W        W68352  27.747  23.033  27.206 -0.3767  0.3046  0.2163
25415W        W68353  26.692  24.877  25.940 -0.3289  0.0129  0.1331
25416W        W68354  25.845  23.359  24.911  0.0348  0.0456  0.0386
25417W        W68355  26.169  25.665  27.326 -0.1646 -0.1486 -0.1673
25418W        W68356  30.750  24.603  23.956  0.2114 -0.3137  0.2142
25419W        W68357  25.843  24.901  26.668  0.1144 -0.3885  0.0842
25420W        W68358  24.732  22.817  26.331 -0.1032 -0.1866  0.1824
25421W        W68359  27.175  24.288  27.586  0.2630  0.2049  0.2905
25422W        W68360  27.695  24.125  27.517  0.1636 -0.0852 -0.3066
25423W        W68361  26.039  22.915  24.883  0.0392  0.1405 -0.1155
25424W        W68362  28.319  26.140  23.955  0.0723  0.0281  0.0996
25425W        W68363  22.691  25.397  28.292 -0.2896 -0.0860 -0.0968
25426W        W68364  24.965  23.955  27.318  0.3234 -0.1122 -0.2290
25427W        W68365  26.569  25.766  26.466  0.1100 -0.0082  0.1230
25428W        W68366  28.825  24.956  25.931  0.0935 -0.1493 -0.0051
25429W        W68367  28.529  23.390  23.804  0.1802  0.0937 -0.1339
25430W        W68368  27.381  26.085  27.305  0.0657 -0.1017  0.1990
25431W        W68369  26.753  23.365  24.765 -0.4267  0.1173 -0.2163
25432W        W68370  27.651  24.760  26.214  0.3485 -0.1592 -0.1645
25433W        W68371  24.796  25.797  23.733 -0.1987  0.2235  0.1113
25434W        W68372  28.613  24.889  24.357  0.2285  0.1077  0.0332
25435W        W68373  26.946  24.396  24.652 -0.0475  0.0367 -0.4143
25436W        W68374  27.579  26.036  28.090 -0.1893 -0.0855 -0.0314
25437W        W68375  27.400  23.650  25.627 -0.4198  0.0494 -0.1230
25438W        W68376  28.375  23.500  25.900  0.1106 -0.2254 -0.0178
25439W        W68377  27.900  23.660  25.076  0.0445 -0.0449 -0.2287
25440W        W68378  27.826  24.916  27.592 -0.0401 -0.1429  0.1934
25441W        W68379  26.217  23.857  27.109 -0.2711 -0.2269 -0.3178
25442W        W68380  27.665  21.464  24.033  0.1320  0.0626  0.0672
25443W        W68381  26.035  23.174  28.206 -0.0952  0.1157  0.3145
25444W        W68382  30.479  23.820  27.214 -0.0732 -0.1507  0.1841
25445W        W68383  26.689  25.091  27.780  0.0392  0.0857  0.0071
25446W        W68384  29.704  26.146  25.972  0.0868  0.3387 -0.2363
25447W        W68385  25.934  24.804  24.574  0.0889  0.3620  0.1687
25448W        W68386  26.173  24.747  26.006 -0.0313  0.0604 -0.5123
25449W        W68387  28.399  22.824  26.398 -0.0968  0.0078  0.3029
25450W        W68388  26.505  26.518  24.942 -0.2929 -0.1579  0.1204
25451W        W68389  27.254  22.583  26.194  0.0347 -0.1984  0.1181
25452W        W68390  26.567  25.285  26.254 -0.0144 -0.5449  0.1004
25453W        W68391  25.420  25.215  25.005 -0.1989 -0.1508 -0.2102
25454W        W68392  28.222  25.890  27.318 -0.1255  0.2105 -0.0662
25455W        W68393  24.734  22.506  25.373  0.3109  0.0470  0.0099
25456W        W68394  28.900  23.725  25.170  0.0927  0.1133 -0.1284
25457W        W68395  28.117  22.329  27.573 -0.0634  0.2209 -0.0247
25458W        W68396  27.565  23.167  25.367  0.3719  0.0021 -0.2183
25459W        W68397  26.187  22.839  26.156  0.3195 -0.0282 -0.0305
25460W        W68398  27.793  22.644  25.247  0.0911 -0.2377  0.1588
25461W        W68399  28.404  24.175  28.440 -0.2422  0.0192 -0.0179
25462W        W68400  25.732  22.806  27.324 -0.2087 -0.1765 -0.0943
25463W        W68401  27.055  23.778  24.649  0.1586  0.1129  0.3009
25464W        W68402  26.761  23.628  27.846  0.4905  0.1371  0.1245
25465W        W68403  28.136  24.714  22.960  0.2163 -0.3070  0.1534
25466W        W68404  26.774  26.302  27.394 -0.0297 -0.0616 -0.2631
25467W        W68405  26.787  22.757  26.253  0.1036  0.0672  0.0014
25468W        W68406  28.048  24.711  24.972  0.2931  0.0793  0.0811
25469W        W68407  25.469  23.826  25.415 -0.0563 -0.2348 -0.2349
25470W        W68408  25.316  24.290  27.085  0.0448 -0.0223  0.0434
25471W        W68409  27.895  24.155  28.252 -0.0144  0.5307  0.0401
25472W        W68410  26.195  21.686  24.422  0.0007 -0.2010  0.0916
25473W        W68411  29.472  25.650  24.235  0.1371 -0.2103 -0.3122
25474W        W68412  27.598  24.582  27.265 -0.3758 -0.0477  0.0089
25475W        W68413  27.187  26.298  24.038  0.0242  0.0204  0.0343
25476W        W68414  28.151  25.384  25.647 -0.1669 -0.3688  0.1565
25477W        W68415  29.161  25.996  26.146 -0.0315 -0.0649  0.0072
25478W        W68416  25.806  22.715  26.412  0.0866  0.1009  0.1790
25479W        W68417  26.338  25.219  25.796  0.1128  0.0716  0.0425
25480W        W68418  28.533  24.649  26.254  0.0946  0.2615  0.0741
25481W        W68419  26.400  21.067  24.753 -0.3846  0.0982  0.0918
25482W        W68420  25.456  23.417  26.413  0.0531 -0.2757 -0.1409
25483W        W68421  26.871  24.584  25.529 -0.2069  0.2564 -0.3326
25484W        W68422  27.351  23.471  26.729 -0.0968 -0.1130 -0.2013
25485W        W68423  25.469  23.898  26.685 -0.0284 -0.1394 -0.1206
25486W        W68424  27.604  24.982  23.575  0.0817  0.3039  0.1293
25487W        W68425  29.012  21.622  26.727  0.0438 -0.0312 -0.0387
25488W        W68426  26.068  24.826  27.172 -0.2055 -0.2183  0.0566
25489W        W68427  26.580  26.397  27.953 -0.0476 -0.1676 -0.1281
25490W        W68428  26.400  24.309  25.789 -0.0064 -0.1490 -0.3444
25491W        W68429  27.717  24.534  25.773  0.2718  0.1920  0.0034
25492W        W68430  27.961  26.505  24.963 -0.1155  0.3235  0.0731
25493W        W68431  27.525  25.946  25.914  0.0730 -0.0145  0.0219
25494W        W68432  28.287  26.923  24.704 -0.1197 -0.0598 -0.1115
25495W        W68433  27.748  23.876  25.943  0.0379 -0.1932  0.4831
25496W        W68434  27.295  24.778  25.629 -0.2880  0.1542 -0.1270
25497W        W68435  26.994  22.674  25.687  0.1003  0.0856  0.1811
25498W        W68436  27.956  23.458  25.587 -0.3686  0.0853 -0.0803
25499W        W68437  27.151  23.879  25.216  0.1064  0.0678 -0.0210
25500W        W68438  27.190  25.169  27.891  0.1294  0.1030  0.1457
25501W        W68439  24.908  23.594  24.750 -0.3539 -0.0396 -0.0499
25502W        W68440  26.630  23.197  23.757  0.0993  0.3114  0.1884
25503W        W68441  24.586  25.599  26.888  0.4327 -0.2695 -0.0171
25504W        W68442  27.381  22.421  27.100  0.1104  0.0834 -0.1162
25505W        W68443  25.831  23.508  26.750 -0.3775 -0.2195 -0.0545
25506W        W68444  26.235  22.491  27.768  0.1115 -0.1548  0.2131
25507W        W68445  25.097  22.245  25.522  0.1316  0.2456  0.0597
25508W        W68446  28.179  24.363  25.992  0.1882  0.3418  0.0225
25509W        W68447  25.884  23.868  25.111  0.1116  0.0002  0.1998
25510W        W68448  24.106  21.397  25.077 -0.0147 -0.0934 -0.0647
25511W        W68449  27.167  24.665  23.480  0.0308  0.1719  0.0810
25512W        W68450  27.001  25.497  26.396  0.2479  0.0511  0.2376
25513W        W68451  27.152  23.227  24.529  0.0526  0.2154  0.1003
25514W        W68452  28.281  25.531  26.954  0.1134  0.0542  0.3887
25515W        W68453  26.599  23.985  24.526  0.0297  0.0882  0.2039
25516W        W68454  26.611  20.085  28.471  0.2325 -0.1091 -0.0313
25517W        W68455  27.677  23.740  27.077  0.1532  0.0804 -0.0791
25518W        W68456  25.371  22.298  22.830  0.1165  0.1419  0.2310
25519W        W68457  28.093  22.381  26.469 -0.0079  0.4240  0.0299
25520W        W68458  27.200  24.810  25.014 -0.1480  0.2945 -0.3486
25521W        W68459  28.944  25.886  25.715  0.0196 -0.0389  0.2046
25522W        W68460  26.219  24.630  27.684  0.0340 -0.2310  0.1197
25523W        W68461  26.327  24.392  27.251  0.0778 -0.0019 -0.1122
25524W        W68462  26.679  21.134  28.805 -0.2035 -0.0801 -0.2190
25525W        W68463  27.971  24.205  25.027  0.0502  0.1232  0.0412
25526W        W68464  25.704  23.892  27.197 -0.1847 -0.0080 -0.2679
25527W        W68465  29.637  25.704  25.157 -0.3068  0.1039 -0.1050
25528W        W68466  27.763  23.507  26.418  0.1729  0.0647  0.5347
25529W        W68467  28.008  24.917  25.867 -0.0609 -0.3242 -0.0286
25530W        W68468  26.450  22.899  28.276 -0.1120 -0.0219  0.1089
25531W        W68469  25.787  24.225  26.201 -0.1917  0.1017 -0.0899
25532W        W68470  29.201  25.030  26.258  0.0784  0.0400  0.1709
25533W        W68471  27.093  22.639  26.672 -0.0143  0.0606  0.0336
25534W        W68472  29.483  22.957  26.282  0.1024 -0.3683  0.2313
25535W        W68473  28.117  25.729  25.980  0.0879  0.1449  0.1806
25536W        W68474  25.970  24.011  26.677  0.2131  0.2551 -0.0350
25537W        W68475  29.659  24.749  24.853 -0.3425 -0.0087 -0.1368
25538W        W68476  26.189  25.552  28.473  0.1559 -0.0412 -0.0982
25539W        W68477  27.432  25.533  26.160 -0.1462 -0.0658  0.0345
25540W        W68478  29.299  23.273  28.485 -0.0587 -0.1952  0.0426
25541W        W68479  26.694  22.499  23.911  0.1072  0.0219 -0.2215
25542W        W68480  28.742  24.255  24.845  0.0559 -0.0591  0.1960
25543W        W68481  27.973  25.416  27.398  0.0395 -0.0589  0.1009
25544W        W68482  27.124  24.667  27.139 -0.2060 -0.2492  0.0675
25545W        W68483  28.581  25.617  25.912  0.3284 -0.2975 -0.1161
25546W        W68484  28.969  24.816  26.627  0.0758 -0.0739 -0.4852
25547W        W68485  24.842  21.809  27.357 -0.0542  0.2517  0.2504
25548W        W68486  25.264  24.682  24.495 -0.0427 -0.2334 -0.1154
25549W        W68487  26.940  23.673  25.839 -0.1145 -0.0521  0.0873
25550W        W68488  29.447  24.651  25.912  0.0058  0.0652  0.1530
25551W        W68489  26.280  23.503  26.063  0.4055 -0.1558  0.0807
25552W        W68490  27.417  23.471  24.891  0.1258  0.2386  0.1608
25553W        W68491  27.358  27.177  27.480  0.2049  0.0936  0.1096
25554W        W68492  27.621  24.067  25.421  0.0382  0.0695  0.1656
25555W        W68493  26.122  23.245  31.946  0.1228 -0.4198 -0.0640
25556W        W68494  26.801  23.290  28.223  0.4658  0.0450 -0.2803
25557W        W68495  28.242  23.282  29.917  0.0679  0.4295  0.2841
25558W        W68496  26.885  24.085  29.089 -0.2112 -0.1834  0.1131
25559W        W68497  26.218  21.601  29.617  0.1833 -0.2446  0.0803
25560W        W68498  27.783  25.869  27.646  0.1014  0.0513 -0.0446
25561W        W68499  26.522  20.478  30.377 -0.2543 -0.2243  0.2441
25562W        W68500  28.520  23.774  29.966  0.0103  0.2283  0.1859
25563W        W68501  28.725  26.285  29.647 -0.1513  0.2274 -0.2492
25564W        W68502  28.393  24.770  29.464  0.0946  0.1469  0.2120
25565W        W68503  26.207  23.011  31.388  0.1385  0.0296  0.0068
25566W        W68504  27.480  23.830  31.626 -0.3263 -0.2028  0.2249
25567W        W68505  27.141  21.130  29.101 -0.1749 -0.1548 -0.1603
25568W        W68506  25.707  21.053  27.371 -0.0204  0.1218 -0.2663
25569W        W68507  28.708  23.915  31.307  0.2667 -0.0063 -0.2007
25570W        W68508  24.952  22.276  26.386  0.2994  0.1209  0.0586
25571W        W68509  26.208  23.816  30.566 -0.1437 -0.2992  0.0255
25572W        W68510  27.163  23.384  28.567  0.2714  0.4728  0.0272
25573W        W68511  27.882  26.664  28.491  0.0593  0.0433 -0.1139
25574W        W68512  25.478  21.980   0.093  0.0747 -0.3331  0.1693
25575W        W68513  28.094  22.658  31.375  0.1949  0.1119  0.0605
25576W        W68514  27.705  24.921  28.036  0.0472 -0.3113 -0.0930
25577W        W68515  25.225  23.341  27.984 -0.1601  0.0222 -0.0150
25578W        W68516  25.002  23.001  31.367 -0.1536  0.0252  0.1827
25579W        W68517  25.481  23.266  30.709 -0.0045 -0.0571 -0.0043
25580W        W68518  28.921  23.143  29.215 -0.0762 -0.0556 -0.1655
25581W        W68519  27.705  24.437  29.860  0.0193 -0.0561  0.0513
25582W        W68520  27.572  25.201  30.635  0.2095 -0.2961 -0.0327
25583W        W68521  28.525  24.092  29.341 -0.0990  0.3973  0.1639
25584W        W68522  29.082  23.992  30.973 -0.0529 -0.2099 -0.3187
25585W        W68523  26.376  24.856  30.279  0.1709  0.0625 -0.0225
25586W        W68524  25.864  25.521  29.801 -0.0892  0.2685 -0.0505
25587W        W68525  26.617  24.940  29.400 -0.0782 -0.2224 -0.0603
25588W        W68526  29.407  25.421  28.715  0.2827  0.1002  0.0509
25589W        W68527  28.252  27.297  30.097  0.1235 -0.0017  0.3351
25590W        W68528  25.966  24.307  31.936  0.0473 -0.4141  0.1090
25591W        W68529  25.956  25.958  27.859  0.1013  0.1606  0.0197
25592W        W68530  27.266  24.237  30.126  0.0609 -0.4814 -0.0153
25593W        W68531  26.188  25.258  30.645 -0.3609  0.1372  0.1014
25594W        W68532  27.546  23.818  29.263  0.0978 -0.1806  0.1925
25595W        W68533  25.316  25.325  27.890  0.2478  0.2387  0.1990
25596W        W68534  27.210  24.576  29.793 -0.0510 -0.0533  0.2254
25597W        W68535  27.294  25.032  28.385  0.3096  0.1601 -0.0635
25598W        W68536  27.181  23.998  31.221  0.0592 -0.1330 -0.0864
25599W        W68537  27.491  23.655  30.388 -0.0003 -0.3095  0.0340
25600W        W68538  29.162  22.602  31.709  0.2627 -0.2056 -0.1054
25601W        W68539  27.090  25.552  28.841  0.0960 -0.1615 -0.0254
25602W        W68540  26.820  24.124  27.215  0.0521  0.2042  0.4073
25603W        W68541  27.847  22.405  30.500 -0.1980 -0.0468  0.0836
25604W        W68542  27.416  22.999  27.604  0.0380  0.2477 -0.2408
25605W        W68543  26.407  23.100  27.773 -0.0125  0.0612 -0.2655
25606W        W68544  27.109  23.769  29.951  0.0914  0.1373 -0.1830
25607W        W68545  26.814  22.084  29.450  0.3410 -0.0719 -0.2120
25608W        W68546  29.470  24.769  29.305  0.1340  0.0752  0.0471
25609W        W68547  27.557  23.957  29.789  0.3015 -0.0741 -0.1136
25610W        W68548  26.609  22.778  30.022  0.1384  0.0309 -0.1248
25611W        W68549  27.640  24.226  30.934 -0.2536 -0.2123  0.2480
25612W        W68550  25.296  23.258  28.525 -0.0320  0.0076  0.3462
25613W        W68551  28.927  24.836  27.199 -0.3928  0.2949 -0.4607
25614W        W68552  28.141  26.184  29.442  0.2936  0.0107 -0.0914
25615W        W68553  27.471  25.813  29.026  0.2696 -0.0427  0.3449
25616W        W68554  27.893  24.742  29.518  0.1868  0.3326  0.5268
25617W        W68555  24.688  23.134  30.782  0.0492 -0.0884 -0.0875
25618W        W68556  25.792  24.130  30.930 -0.2429  0.2143  0.1446
25619W        W68557  25.678  22.271  28.315  0.1606  0.0714  0.0882
25620W        W68558  29.172  25.476  29.638 -0.2033  0.1100  0.0236
25621W        W68559  24.471  24.309   0.855 -0.2314 -0.2266 -0.0433
25622W        W68560  28.944  21.747  28.237  0.1734 -0.0068 -0.3234
25623W        W68561  27.429  24.639  29.230  0.0754 -0.1353 -0.2159
25624W        W68562  29.531  24.429  31.350  0.1121  0.4584  0.0460
25625W        W68563  26.958  24.518  29.376 -0.2868  0.0304 -0.3260
25626W        W68564  25.981  22.646  28.253  0.2933 -0.1688 -0.1707
25627W        W68565  27.843  23.016  28.987 -0.0125 -0.3749 -0.0749
25628W        W68566  27.162  23.807  27.031  0.1177 -0.0884  0.2125
25629W        W68567  26.686  24.949  26.994 -0.0895 -0.0487 -0.5207
25630W        W68568  30.328  24.880  30.449  0.0949  0.1596 -0.0194
25631W        W68569  28.224  24.741  28.397  0.0219  0.1358  0.0508
25632W        W68570  25.637  25.053  31.397 -0.2079 -0.1331 -0.0176
25633W        W68571  26.553  21.669  31.211  0.1927  0.1073 -0.0996
25634W        W68572  28.575  24.443  30.121 -0.2932  0.0454 -0.4848
25635W        W68573  26.651  25.949  29.504  0.2832  0.1274 -0.1287
25636W        W68574  25.094  24.724  30.773 -0.0725  0.3440 -0.0164
25637W        W68575  25.570  23.721  28.498 -0.1327 -0.2251  0.0045
25638W        W68576  24.810  21.890  28.410  0.0263 -0.1145  0.0712
25639W        W68577  26.571  24.698  28.951  0.0228 -0.2570 -0.1942
25640W        W68578  29.319  22.382  28.768 -0.0414  0.3597 -0.0179
25641W        W68579  26.689  21.703  30.701 -0.0698  0.0429  0.0144
25642W        W68580  27.471  21.542  29.164  0.3071 -0.0170  0.2119
25643W        W68581  24.935  22.919  27.489 -0.0141  0.1418 -0.2514
25644W        W68582  27.939  25.153  28.482 -0.2393  0.0794  0.0055
25645W        W68583  28.963  22.031  28.660  0.0141  0.1017 -0.5015
25646W        W68584  26.545  26.354  26.679 -0.2261  0.3197 -0.0953
25647W        W68585  25.576  22.871  29.684 -0.0951  0.2448  0.4399
25648W        W68586  26.634  23.526  27.183  0.0907 -0.2572  0.0470
25649W        W68587  25.461  23.099  31.229 -0.2570  0.1815  0.2445
25650W        W68588  26.135  21.908  29.016  0.0499  0.3111  0.0761
25651W        W68589  27.182  23.475   0.001  0.0271  0.1073  0.2445
25652W        W68590  26.476  23.281  29.281 -0.0416  0.0145 -0.1594
25653W        W68591  28.743  21.956  29.979 -0.1887  0.0205 -0.0485
25654W        W68592  27.365  23.593  30.974  0.0943 -0.1537 -0.1583
25655W        W68593  25.805  23.320  28.607 -0.1022 -0.0191  0.1869
25656W        W68594  28.508  22.539  30.742 -0.3579  0.3046  0.1251
25657W        W68595  28.440  26.479  29.150  0.1621 -0.2890  0.0582
25658W        W68596  29.854  24.765  30.562 -0.1194  0.1918 -0.0352
25659W        W68597  28.579  24.258  30.953  0.1238  0.0785 -0.1128
25660W        W68598  26.550  22.880  29.553 -0.1055  0.1995  0.2498
25661W        W68599  28.353  21.100  29.570  0.2243 -0.1151 -0.1911
25662W        W68600  25.631  25.974  30.884 -0.0470 -0.0957  0.2695
25663W        W68601  26.421  23.773  30.105  0.3031 -0.0192 -0.0184
25664W        W68602  28.624  23.043  27.617  0.0980  0.1699  0.4208
25665W        W68603  27.884  26.000  30.375  0.2668  0.1478  0.2624
25666W        W68604  26.978  24.280  28.233  0.1194  0.2691  0.1475
25667W        W68605  28.081  25.012  30.609 -0.1917 -0.1913 -0.2139
25668W        W68606  27.508  21.702  30.655  0.1179  0.0220  0.1460
25669W        W68607  28.639  23.395  29.618  0.2653  0.0021  0.0134
25670W        W68608  28.380  25.026  28.799  0.3041  0.0811  0.1488
25671W        W68609  26.286  23.576  27.951  0.2587 -0.1766  0.3058
25672W        W68610  26.736  25.503  29.215 -0.1317 -0.2033 -0.2186
25673W        W68611  25.527  26.649  28.964 -0.2606  0.4867 -0.2435
25674W        W68612  25.655  23.032  29.054 -0.1514 -0.2817  0.2553
25675W        W68613  28.489  25.420  29.725  0.1215  0.0777  0.1203
25676W        W68614  29.061  22.822  30.612 -0.0318  0.1103  0.0588
25677W        W68615  25.440  22.637  31.507 -0.1012  0.1587 -0.1138
25678W        W68616  27.106  22.642  29.782 -0.2967  0.0253 -0.0673
25679W        W68617  25.551  24.435  26.552 -0.1241  0.2801  0.3008
25680W        W68618  25.530  23.414  31.944  0.2326 -0.0589 -0.2862
25681W        W68619  27.208  22.467  29.314  0.0997  0.0320 -0.0232
25682W        W68620  28.768  22.759  28.176 -0.0310  0.1981 -0.0058
25683W        W68621  28.475  23.810  31.774 -0.0978  0.0224  0.1579
25684W        W68622  28.801  24.734  28.617 -0.0523  0.1607  0.0779
25685W        W68623  27.809  22.794  28.004  0.2670 -0.1247 -0.1565
25686W        W68624  27.253  23.405  27.959 -0.3717  0.0855  0.2616
25687W        W68625  25.625  25.269   0.603 -0.0871  0.2616 -0.0810
25688W        W68626  27.668  24.644  30.492  0.0341 -0.3976  0.1845
25689W        W68627  27.718  24.854  30.967 -0.1692  0.0940 -0.0404
25690W        W68628  27.263  22.089  28.674  0.0698 -0.3509 -0.1014
25691W        W68629  29.850  26.199  29.254  0.0787 -0.0366  0.1134
25692W        W68630  25.979  23.519  31.375 -0.1576 -0.0617 -0.0318
25693W        W68631  27.014  25.544  31.274 -0.2955  0.3429 -0.0811
25694W        W68632  28.085  24.735  30.137  0.1795  0.2402  0.1512
25695W        W68633  26.338  22.038  30.725 -0.1897 -0.3052 -0.3001
25696W        W68634  25.831  23.277  27.241  0.2004  0.0099  0.1358
25697W        W68635  27.738  22.677  29.370 -0.0237 -0.1185 -0.4098
25698W        W68636  27.380  25.480  28.268  0.0287  0.1299 -0.1517
25699W        W68637  28.167  22.280  31.002 -0.1039 -0.1047  0.2487
25700W        W68638  27.710  22.907  30.366  0.0982 -0.0163 -0.1292
25701W        W68639  27.949  22.356  29.851  0.0297  0.0375 -0.0590
25702W        W68640  29.016  23.701  29.875  0.0438 -0.0083 -0.0079
25703W        W68641  28.264  23.342  28.752 -0.1048 -0.2393 -0.1458
25704W        W68642  29.292  23.439  27.968 -0.0904 -0.4078 -0.1337
25705W        W68643  25.327  23.506  26.949 -0.0511 -0.0607  0.0042
25706W        W68644  27.964  23.760  30.621  0.0344  0.3579  0.2677
25707W        W68645  26.905  23.534  30.842  0.1226 -0.1482 -0.0118
25708W        W68646  25.984  23.538  30.080  0.3805  0.4076  0.1369
25709W        W68647  28.168  23.659  29.568  0.1281 -0.3796 -0.0955
25710W        W68648  27.767  25.472  29.767  0.2034 -0.1829  0.0431
25711W        W68649  27.101  21.279  30.830 -0.0486 -0.2561 -0.0567
25712W        W68650  26.745  21.797  27.807 -0.1713 -0.0836 -0.1196
25713W        W68651  28.116  26.018  28.527 -0.0199  0.2275 -0.1638
25714W        W68652  24.913  24.139  28.083  0.2526 -0.1124  0.1261
25715W        W68653  25.690  22.542  29.346 -0.1914  0.0429  0.2419
25716W        W68654  28.134  25.100  29.794  0.2789  0.1316  0.2845
25717W        W68655  26.800  24.805  28.478 -0.0478  0.1840  0.0092
25718W        W68656  28.950  23.278  30.686  0.0185  0.0651  0.1196
25719W        W68657  25.822  25.662  28.838 -0.0641 -0.0090  0.0036
25720W        W68658  28.530  21.133  30.522  0.0053  0.0052 -0.0054
25721W        W68659  25.458  24.515  31.046  0.1377 -0.0062  0.0153
25722W        W68660  25.491  22.735  28.692  0.0719 -0.1939 -0.0458
25723W        W68661  24.647  22.595  27.855 -0.1679  0.1871 -0.2002
25724W        W68662  27.700  22.039  29.313 -0.2128 -0.3101  0.0394
25725W        W68663  29.035  25.452  29.099  0.4633  0.0001  0.0112
25726W        W68664  25.607  23.213  30.230 -0.2582 -0.3503 -0.1703
25727W        W68665  26.484  23.416  30.509 -0.0480  0.0341  0.3914
25728W        W68666  25.182  24.904  31.209 -0.0253  0.3793 -0.0660
25729W        W68667  27.956  23.943  31.531 -0.0078  0.0040  0.0510
25730W        W68668  27.291  22.685  27.949  0.1068  0.2268  0.4488
25731W        W68669  27.395  23.013  31.102  0.0481  0.5566 -0.0254
25732W        W68670  25.725  23.023  31.631 -0.0606  0.0290  0.0476
25733W        W68671  25.151  21.326  27.564  0.3631 -0.2110 -0.0058
25734W        W68672  28.390  24.376  31.980 -0.0985  0.3284  0.0273
25735W        W68673  26.718  22.978  30.440  0.1092 -0.0086 -0.0089
25736W        W68674  25.893  24.369  29.550  0.0307 -0.1201 -0.2355
25737W        W68675  28.184  25.292  30.985 -0.2813 -0.1539  0.0097
25738W        W68676  26.753  23.678  28.719 -0.2682 -0.0167 -0.0860
25739W        W68677  26.460  24.276  29.301  0.0529  0.2240 -0.1790
25740W        W68678  26.106  22.905  30.226  0.0811  0.0161  0.1475
25741W        W68679  28.521  21.104  31.129  0.0675  0.2888  0.2810
25742W        W68680  27.260  22.958  30.178 -0.0049 -0.1303 -0.1880
25743W        W68681  26.604  22.404  27.372 -0.0281  0.1702 -0.0181
25744W        W68682  26.299  24.280  30.191  0.1407  0.3170  0.2201
25745W        W68683  28.398  24.503  28.853 -0.2589  0.0081  0.1404
25746W        W68684  27.515  22.563  30.071 -0.1924  0.0548 -0.1670
25747W        W68685  25.686  24.732   1.146  0.2599  0.1140 -0.0818
25748W        W68686  27.200  21.949  29.181  0.0608  0.2184 -0.0651
25749W        W68687  28.639  25.015  27.606  0.1835 -0.3693  0.0792
25750W        W68688  27.219  25.089  30.975  0.0806  0.2417 -0.0750
25751W        W68689  25.764  24.174  28.517 -0.1457 -0.2196  0.0688
25752W        W68690  25.406  23.931  30.037 -0.1992 -0.2368  0.3677
25753W        W68691  26.153  23.800  28.666  0.0686 -0.0644 -0.2311
25754W        W68692  27.317  21.105  29.587  0.4173 -0.0950  0.2774
25755W        W68693  25.308  23.712  30.842 -0.2681 -0.3638 -0.1415
25756W        W68694  26.077  24.946  28.115 -0.3149  0.0811 -0.1819
25757W        W68695  25.441  24.016  31.252  0.3002  0.0451 -0.0484
25758W        W68696  28.826  21.631  28.992 -0.1720 -0.0668 -0.2743
25759W        W68697  28.442  22.166  27.060 -0.2949  0.3619  0.0360
25760W        W68698  26.726  22.224  29.928  0.0475 -0.0882 -0.1301
25761W        W68699  28.995  23.466  31.283 -0.2765  0.2620 -0.4239
25762W        W68700  29.113  23.008  27.835  0.1507  0.1722 -0.2086
25763W        W68701  28.125  20.855  31.608  0.1344 -0.1562  0.0445
25764W        W68702  26.540  21.619  28.660  0.0795 -0.1195 -0.1562
25765W        W68703  29.134  24.942  28.341 -0.1081 -0.1340 -0.0251
25766W        W68704  25.660  22.668  30.125  0.0733  0.1544 -0.4014
25767W        W68705  26.962  24.345  31.610 -0.3306  0.0814  0.1943
25768W        W68706  26.114  22.198  31.196 -0.0701 -0.0902 -0.1007
25769W        W68707  28.111  23.149  29.465 -0.2542 -0.0873  0.0486
25770W        W68708  26.623  22.519  26.876  0.3092  0.1589 -0.0812
25771W        W68709  27.960  24.317  28.766 -0.0214 -0.0773  0.1098
25772W        W68710  29.608  25.858  30.535 -0.0392  0.3852 -0.1126
25773W        W68711  26.839  24.234  29.821  0.0139 -0.2863  0.0555
25774W        W68712  28.611  22.938  30.410  0.0548  0.3070  0.3790
25775W        W68713  27.685  23.461  29.605  0.2101  0.0474 -0.1456
25776W        W68714  28.045  22.859  30.863 -0.3220  0.1619  0.0191
25777W        W68715  26.822  24.641  27.540 -0.0407 -0.0569  0.0896
25778W        W68716  26.602  24.326  28.590  0.0916  0.0068  0.1860
25779W        W68717  27.470  23.371  29.083  0.1972 -0.2098  0.3188
25780W        W68718  28.520  23.567  29.159 -0.0094 -0.2591  0.1395
25781W        W68719  27.795  22.965  29.894 -0.0592 -0.1902  0.2182
25782W        W68720  27.861  23.097  31.263 -0.2306 -0.0696  0.2114
25783W        W68721  28.512  22.057  30.587 -0.2814 -0.2244  0.1521
25784W        W68722  26.272  22.294  30.186  0.2708  0.4358  0.2324
25785W        W68723  25.711  22.854  30.587 -0.1977 -0.2531 -0.5211
25786W        W68724  27.374  25.431  30.156  0.0000  0.1459 -0.1565
25787W        W68725  29.267  22.705  28.334 -0.1983  0.0646 -0.5326
25788W        W68726  31.599  21.254  31.026  0.0870 -0.0433 -0.0762
25789W        W68727  27.854  21.831  29.745 -0.3475  0.1270 -0.2050
25790W        W68728  28.050  22.491  28.965 -0.1324  0.0677  0.1530
25791W        W68729  27.029  22.878  29.142 -0.3025  0.3030  0.0774
25792W        W68730  28.697  24.661  31.675  0.1157  0.3270  0.0995
25793W        W68731  27.186  20.750  28.173 -0.0387  0.0782  0.0176
25794W        W68732  27.369  22.653  30.669 -0.3056  0.1696 -0.2106
25795W        W68733  26.981  25.148  27.357 -0.1539 -0.0511 -0.0541
25796W        W68734  27.052  25.057  29.013 -0.0401  0.0788 -0.4909
25797W        W68735  28.274  23.278  30.750 -0.2760 -0.1258  0.1493
25798W        W68736  24.382  21.719  28.728 -0.3193 -0.1417  0.0269
25799W        W68737  25.261  22.202  31.669 -0.1116 -0.2944  0.0750
25800W        W68738  26.871  23.568  26.723  0.2857  0.1184 -0.1818
25801W        W68739  26.812  22.776  27.940 -0.2257  0.2385 -0.0694
25802W        W68740  27.912  24.128  29.254 -0.3071 -0.1507 -0.1874
25803W        W68741  27.722  23.297  30.762  0.2277  0.1541 -0.1735
25804W        W68742  27.951  21.703  28.948 -0.4224 -0.3162  0.0633
25805W        W68743  29.368  23.919   0.060  0.2741  0.0850 -0.1931
25806W        W68744  26.246  24.129  27.968  0.0603 -0.1308 -0.1123
25807W        W68745  26.765  22.397  28.378 -0.0261  0.2593 -0.3452
25808W        W68746  26.545  24.746  30.899 -0.5180 -0.2459  0.1351
25809W        W68747  24.271  23.820  31.335 -0.1442 -0.1987 -0.2208
25810W        W68748  25.668  24.362  30.082  0.1006  0.0886  0.0654
25811W        W68749  26.666  22.479  29.198 -0.2478 -0.1831 -0.0686
25812W        W68750  27.670  22.080  30.193  0.0319  0.6280 -0.2976
25813W        W68751  28.438  23.439  30.324 -0.1658 -0.2141 -0.2369
25814W        W68752  29.355  24.398  30.872  0.1580  0.0015 -0.0378
25815W        W68753  28.356  24.047  30.399  0.0733 -0.0245 -0.0514
25816W        W68754  26.017  23.067  29.687 -0.2119  0.0922 -0.0768
25817W        W68755  28.999  24.253  30.521  0.0586 -0.0771  0.0795
25818W        W68756  29.593  24.307  29.011  0.1572 -0.0358 -0.4395
25819W        W68757  26.406  24.575  29.761 -0.1858  0.0768 -0.2496
25820W        W68758  25.416  21.363  30.331 -0.2195 -0.0781 -0.2871
25821W        W68759  26.845  22.710  31.479  0.1938  0.2686 -0.2901
25822W        W68760  28.665  22.916  29.550 -0.1249  0.3285 -0.0946
25823W        W68761  27.124  22.177  28.119 -0.1268  0.0903  0.3460
25824W        W68762  27.024  26.034  28.956  0.0065  0.3961 -0.2878
25825W        W68763  26.129  25.418   0.881  0.4658 -0.1112 -0.1549
25826W        W68764  25.748  23.866  30.371 -0.1719 -0.2501  0.0851
25827W        W68765  27.416  26.873  28.715  0.0328  0.0369  0.3944
25828W        W68766  29.193  24.982  28.944 -0.0640 -0.0960  0.2180
25829W        W68767  27.540  23.657  28.301  0.0036 -0.2790  0.1470
25830W        W68768  27.737  24.172  30.360 -0.1133 -0.1082  0.2262
25831W        W68769  27.726  21.155  28.265  0.1907  0.1852  0.1562
25832W        W68770  27.495  24.206  28.935  0.2737 -0.1327 -0.0360
25833W        W68771  24.012  24.416  28.286 -0.5203 -0.1290 -0.0846
25834W        W68772  27.282  24.820  27.588 -0.2482 -0.2156  0.1597
25835W        W68773  25.809  25.900  28.323  0.2773 -0.1723  0.1486
25836W        W68774  27.342  26.813   0.034  0.3863 -0.2763  0.2024
25837W        W68775  29.402  21.769  28.603 -0.0104 -0.3708 -0.1942
25838W        W68776  29.353  23.455  29.526 -0.0549 -0.1690 -0.2293
25839W        W68777  28.526  22.438  30.133 -0.1850  0.3534  0.0940
25840W        W68778  28.433  25.866  30.354  0.3642 -0.2095 -0.1821
25841W        W68779  26.401  23.291  29.962 -0.0919  0.1518  0.1182
25842W        W68780  27.770  21.968  26.504  0.0547  0.3066  0.1657
25843W        W68781  25.780  22.069  31.600  0.0242 -0.1336 -0.1462
25844W        W68782  29.148  23.041  31.105 -0.0042  0.0750  0.1591
25845W        W68783  24.893  24.065   0.748  0.1499  0.0231  0.0035
25846W        W68784  27.625  27.024  26.857  0.1457 -0.0248  0.0368
25847W        W68785  25.495  22.168  29.817  0.5858  0.0560 -0.2828
25848W        W68786  26.082  22.580  29.828 -0.0515  0.1406  0.1078
25849W        W68787  29.815  21.410  31.011  0.0639 -0.0791 -0.0030
25850W        W68788  26.540  23.872  28.337  0.0488  0.1457  0.2678
25851W        W68789  27.769  23.321  28.570 -0.0921 -0.0512 -0.0306
25852W        W68790  26.697  25.873  28.618  0.1435 -0.1372  0.0725
25853W        W68791  26.843  24.356  31.049 -0.0780  0.3179 -0.2014
25854W        W68792  28.253  24.286  29.739 -0.1722  0.1747  0.4087
25855W        W68793  26.529  21.906  28.271 -0.0519 -0.2121  0.2577
25856W        W68794  30.506  23.573  29.319  0.0637 -0.3031 -0.1350
25857W        W68795  26.863  23.326  30.068  0.1413 -0.0231 -0.0210
25858W        W68796  29.471  21.696  31.313  0.1895 -0.2284 -0.1249
25859W        W68797  25.541  22.978  28.204  0.0941 -0.2791 -0.0543
25860W        W68798  29.860  21.435  29.250 -0.2376 -0.1789 -0.1483
25861W        W68799  28.742  24.001  28.853 -0.2269 -0.2223 -0.0039
25862W        W68800  25.280  23.607  30.393 -0.1517  0.0758 -0.2673
25863W        W68801  27.961  23.507  29.150 -0.2910 -0.1437 -0.2025
25864W        W68802  29.020  24.395  31.290  0.1611 -0.1576  0.2420
25865W        W68803  27.855  23.363  28.050 -0.2382  0.1886 -0.1093
25866W        W68804  28.703  25.840  29.918 -0.0214  0.1065 -0.3405
25867W        W68805  26.045  23.387  29.053 -0.2303 -0.0760  0.4313
25868W        W68806  28.239  22.677  29.629  0.2139  0.1451 -0.0137
25869W        W68807  27.201  23.526  29.548 -0.3379  0.1780 -0.2600
25870W        W68808  27.043  24.516  28.816  0.0120 -0.1431 -0.0968
25871W        W68809  28.429  24.567  30.551 -0.1150 -0.1424  0.0277
25872W        W68810  23.901  22.072  27.545 -0.1640 -0.1785 -0.3358
25873W        W68811  28.233  23.903  28.874 -0.1021 -0.0064  0.0103
25874W        W68812  28.932  22.322  30.487  0.0449  0.0140  0.1161
25875W        W68813  26.872  25.527  27.612 -0.1958 -0.0973  0.0517
25876W        W68814  29.123  24.368  28.890 -0.0341  0.1055  0.3732
25877W        W68815  27.351  26.394  29.059 -0.0453  0.0399 -0.0549
25878W        W68816  26.145  22.399  29.090 -0.0958  0.7286 -0.2026
25879W        W68817  29.202  24.356  29.471 -0.0653  0.1774  0.2717
25880W        W68818  30.121  25.275  29.042  0.0087 -0.2031 -0.0084
25881W        W68819  27.508  23.020  26.326  0.1796 -0.3221  0.0402
25882W        W68820  23.744  21.862  29.317 -0.3322 -0.0283  0.2921
25883W        W68821  25.343  25.090  28.755 -0.0572 -0.1316  0.0848
25884W        W68822  28.385  23.281  31.933  0.3832 -0.1574 -0.3212
25885W        W68823  27.224  22.102  29.881 -0.2893 -0.0691 -0.0814
25886W        W68824  26.649  25.814  27.196 -0.4291  0.2767 -0.2210
25887W        W68825  28.996  22.182  31.404  0.1763  0.0378  0.0104
25888W        W68826  27.437  23.339  30.005  0.0847 -0.0301  0.0619
25889W        W68827  26.325  25.750  31.634 -0.2239 -0.0673  0.1746
25890W        W68828  26.950  23.187  27.564 -0.3317  0.1910 -0.1726
25891W        W68829  26.974  23.663  30.382  0.2394  0.2736 -0.0502
25892W        W68830  26.012  23.952  29.296  0.0037  0.2618 -0.3278
25893W        W68831  26.801  24.620  30.101  0.1382 -0.2082 -0.0291
25894W        W68832  29.238  25.918  29.036 -0.0577  0.0031 -0.0461
25895W        W68833  27.044  22.532  28.825  0.4478 -0.0940 -0.0629
25896W        W68834  29.378  23.871  28.928 -0.1400 -0.0473  0.1425
25897W        W68835  27.126  24.035  29.486 -0.1247  0.0215  0.2237
25898W        W68836  27.349  21.646  29.666  0.1166 -0.0918  0.2552
25899W        W68837  27.952  21.303  29.286 -0.1334  0.0632  0.3544
25900W        W68838  27.418  24.396  31.832 -0.2635 -0.2989 -0.1813
25901W        W68839  26.654  25.317  28.654  0.3041 -0.0646  0.0058
25902W        W68840  25.351  24.779  27.631  0.1728  0.2504 -0.0122
25903W        W68841  25.525  24.599  30.510 -0.1701  0.1384 -0.0281
25904W        W68842  28.316  21.828  31.045 -0.0410 -0.2170 -0.0354
25905W        W68843  25.886  23.004  30.994 -0.1123  0.0777 -0.3156
25906W        W68844  26.187  23.560  29.568  0.1175  0.0463 -0.1049
25907W        W68845  24.698  22.169  28.812 -0.2286 -0.2115  0.3070
25908W        W68846  28.925  25.693  28.703  0.2067 -0.1668  0.0930
25909W        W68847  25.624  21.775  28.944  0.0853 -0.0641 -0.0597
25910W        W68848  23.189  21.291  28.438  0.2374 -0.1418  0.2177
25911W        W68849  27.523  24.745  28.751 -0.5246  0.4265 -0.1170
25912W        W68850  28.155  26.850  29.448  0.1160 -0.3508 -0.1110
25913W        W68851  26.178  22.923  29.164  0.0320 -0.1440  0.0958
25914W        W68852  29.072  26.645  29.939 -0.0272  0.3817  0.0814
25915W        W68853  25.061  22.739  28.089 -0.0685 -0.0318 -0.2483
25916W        W68854  27.201  22.524  31.159 -0.0379  0.3545 -0.0095
25917W        W68855  26.709  21.233  31.479 -0.1112  0.1032  0.1306
25918W        W68856  23.785  21.331  26.430 -0.2802 -0.0723  0.1632
25919W        W68857  27.423  23.083  29.514 -0.1246  0.1977  0.4597
25920W        W68858  27.526  25.252  28.795 -0.1551  0.2352 -0.1841
25921W        W68859  27.286  25.721  27.760 -0.0292 -0.2494  0.2211
25922W        W68860  27.416  24.963  31.447  0.1670  0.0060 -0.1426
25923W        W68861  27.233  25.440  29.300 -0.0268 -0.0970  0.2200
25924W        W68862  25.832  22.110  30.369 -0.0553  0.1860 -0.1400
25925W        W68863  27.408  24.083  28.422 -0.1167 -0.1668 -0.1068
25926W        W68864  25.498  24.464   0.192 -0.1341 -0.0081 -0.0420
25927W        W68865  28.662  23.715  28.437 -0.0491 -0.1953 -0.0744
25928W        W68866  29.396  22.500  30.460  0.1791 -0.0804  0.0572
25929W        W68867  27.035  23.772  28.224 -0.1440 -0.0348  0.0808
25930W        W68868  25.464  22.063  31.200  0.1725  0.1382  0.1759
25931W        W68869  26.029  23.456   0.611  0.3103  0.2045 -0.3479
25932W        W68870  29.164  23.777  28.474  0.5408  0.0906 -0.2167
25933W        W68871  26.006  22.062  29.840 -0.1150  0.4009  0.1575
25934W        W68872  27.576  22.380  28.977 -0.2031  0.0325  0.2920
25935W        W68873  28.594  25.639  28.221 -0.0630  0.0576  0.0850
25936W        W68874  27.218  24.085  30.681  0.4323 -0.0532  0.4196
25937W        W68875  28.680  22.256  28.239  0.2225 -0.1304  0.0533
25938W        W68876  27.129  22.213  31.607  0.0990  0.1545 -0.1695
25939W        W68877  28.930  24.849  30.373  0.0043 -0.2387  0.1523
25940W        W68878  27.915  25.049  31.404 -0.2059 -0.0930 -0.1651
25941W        W68879  27.795  23.509  27.525 -0.2083 -0.0625 -0.0008
25942W        W68880  28.841  25.237  28.671  0.0134 -0.0343  0.2284
25943W        W68881  28.064  25.561  30.569  0.1186  0.1016  0.0414
25944W        W68882  29.236  27.427  31.217  0.0712  0.0685  0.0632
25945W        W68883  27.577  24.888  29.816 -0.0209  0.1525 -0.0802
25946W        W68884  29.018  23.277  30.196  0.3065  0.0142 -0.0231
25947W        W68885  26.882  22.905  30.992  0.2140  0.1006  0.1825
25948W        W68886  25.136  22.461  28.966 -0.3288  0.0329  0.0801
25949W        W68887  27.981  23.784  30.052  0.1098  0.1944 -0.1508
25950W        W68888  27.213  23.280  30.536 -0.1433  0.1989 -0.0857
25951W        W68889  25.310  22.032  28.626 -0.1871  0.0389 -0.4356
25952W        W68890  28.489  21.535  27.786 -0.0786  0.0952 -0.1333
25953W        W68891  26.833  24.943  30.548 -0.0048 -0.4768 -0.2112
25954W        W68892  27.246  23.795  28.809  0.3662 -0.0035 -0.2121
25955W        W68893  29.326  22.769   0.196  0.2112 -0.0037  0.1624
25956W        W68894  26.676  22.572   0.426  0.0351  0.0947 -0.2558
25957W        W68895  27.183  23.014   1.299  0.4183 -0.3407  0.1711
25958W        W68896  26.047  25.129  31.128  0.2325  0.0721  0.0335
25959W        W68897  28.559  24.903   0.196 -0.1049 -0.3039  0.0254
25960W        W68898  25.461  24.209  31.729 -0.3404 -0.5756 -0.3632
25961W        W68899  28.947  23.573   0.379  0.0493  0.3373 -0.2768
25962W        W68900  25.832  21.945  30.836  0.0552 -0.1054 -0.3629
25963W        W68901  27.576  22.122  30.900  0.2404  0.0068  0.2438
25964W        W68902  28.527  25.100  31.349  0.3099 -0.3764 -0.3482
25965W        W68903  27.953  24.472  31.783 -0.1332 -0.0442 -0.2541
25966W        W68904  25.025  21.799  31.981 -0.0504  0.5427  0.1243
25967W        W68905  27.328  23.994   0.092  0.1343 -0.1297  0.0157
25968W        W68906  28.197  24.021  31.129  0.1515 -0.2151  0.1306
25969W        W68907  28.977  25.126  31.762 -0.3330  0.1894  0.0877
25970W        W68908  24.977  24.561   1.561 -0.2420  0.2434 -0.2268
25971W        W68909  25.833  23.638  30.871 -0.2025  0.0683 -0.2152
25972W        W68910  27.357  26.375  31.468  0.1076 -0.1576 -0.0637
25973W        W68911  25.329  20.998  30.796  0.2983  0.0595 -0.1471
25974W        W68912  25.352  21.688  31.559  0.2822 -0.0920 -0.0179
25975W        W68913  26.078  21.095   0.314  0.0169 -0.0965 -0.0008
25976W        W68914  26.496  24.848   0.919  0.0681 -0.0816  0.2069
25977W        W68915  28.558  23.303   0.416  0.0381 -0.1727  0.1305
25978W        W68916  26.934  22.556  30.300 -0.0999 -0.1223 -0.2846
25979W        W68917  27.301  22.214  30.459  0.0535  0.1022  0.1585
25980W        W68918  26.562  20.866  31.936 -0.0806 -0.0674  0.3814
25981W        W68919  26.102  22.461  31.652 -0.1984 -0.2976 -0.1367
25982W        W68920  23.228  25.456   0.721  0.2263  0.1518  0.1752
25983W        W68921  26.457  22.626  31.072 -0.0624 -0.0134  0.4307
25984W        W68922  26.457  22.787  31.810 -0.0596 -0.1597  0.1866
25985W        W68923  26.081  23.985  31.369 -0.0258 -0.2511 -0.4037
25986W        W68924  25.120  22.301  30.876  0.0141 -0.1118 -0.0009
25987W        W68925  28.860  24.521   0.326  0.1382 -0.2755  0.0634
25988W        W68926  26.852  20.970   0.503  0.3739  0.0737 -0.0004
25989W        W68927  24.055  22.462  31.019  0.2190  0.1326 -0.0623
25990W        W68928  26.425  23.564  31.583 -0.4241 -0.1454 -0.2584
25991W        W68929  27.150  24.496   0.328  0.1268 -0.0184 -0.1991
25992W        W68930  27.958  23.598  31.098 -0.0238 -0.1004 -0.0175
25993W        W68931  28.417  24.284  31.466  0.0066 -0.1080 -0.0004
25994W        W68932  27.003  24.399   0.979 -0.1935 -0.1670 -0.0948
25995W        W68933  28.400  22.692  31.899 -0.1459 -0.2370 -0.0458
25996W        W68934  27.942  22.543   0.049 -0.0757  0.1817 -0.1964
25997W        W68935  26.929  21.566   0.034  0.2005 -0.0166  0.0164
25998W        W68936  26.603  24.732  31.759 -0.1377  0.0923  0.0720
25999W        W68937  26.186  22.208   0.599  0.3375 -0.0184  0.3427
26000W        W68938  26.384  23.159  30.915  0.0741  0.2921  0.1565
26001W        W68939  25.736  21.606  31.841  0.3498  0.1517 -0.0393
26002W        W68940  26.522  25.109  31.372 -0.2272  0.1049  0.0296
26003W        W68941  27.557  25.885  31.362  0.0052  0.3184  0.0926
26004W        W68942  25.369  24.987   0.211  0.0888  0.1049  0.1366
26005W        W68943  26.984  23.510  31.402  0.0539 -0.0698 -0.1082
26006W        W68944  28.723  22.881  31.521 -0.0737 -0.2569  0.2377
26007W        W68945  26.853  22.296  30.855 -0.4912 -0.1263 -0.1248
26008W        W68946  27.385  25.490  31.570 -0.3833 -0.0429  0.4883
26009W        W68947  26.764  20.671  30.788 -0.1657 -0.0735 -0.1218
26010W        W68948  28.273  24.762  31.031 -0.1762 -0.2695  0.2917
26011W        W68949  28.202  23.765   0.703  0.0476  0.2502  0.0501
26012W        W68950  27.285  24.586  30.829  0.2702  0.0894 -0.3664
26013W        W68951  26.317  25.130  31.930  0.2468 -0.2401  0.0110
26014W        W68952  25.708  22.990   0.900 -0.1509 -0.3266  0.0310
26015W        W68953  24.507  23.077   1.091  0.1676  0.4564  0.3712
26016W        W68954  26.308  23.692  31.022 -0.0131 -0.0795  0.2073
26017W        W68955  24.431  22.503  31.945  0.1119  0.1077 -0.0934
26018W        W68956  24.483  21.595  31.072 -0.0537 -0.0928 -0.4371
26019W        W68957  28.646  25.925  31.621  0.0875 -0.1171 -0.2611
26020W        W68958  28.374  25.292   0.496  0.0217 -0.1696  0.0729
26021W        W68959  28.520  23.908   0.277  0.0890 -0.0933  0.1691
26022W        W68960  25.873  28.125  19.080  0.0895 -0.2182 -0.1718
26023W        W68961  26.751  27.720  16.671 -0.3782 -0.1094 -0.1137
26024W        W68962  27.277  25.873  15.814  0.0808 -0.2189  0.3508
26025W        W68963  29.594  25.723  17.647  0.0291  0.6246 -0.1842
26026W        W68964  26.454  26.410  18.107 -0.1221  0.4106  0.0786
26027W        W68965  28.753  28.988  17.065 -0.4723  0.3113  0.2772
26028W        W68966  27.057  25.530  18.428 -0.1081  0.3378  0.0198
26029W        W68967  27.883  27.813  17.780 -0.1515  0.2764  0.1606
26030W        W68968  28.357  26.909  19.421 -0.2133 -0.3000 -0.0644
26031W        W68969  27.788  28.151  15.953 -0.0288  0.3273 -0.2722
26032W        W68970  27.882  28.545  19.346 -0.0249 -0.2317 -0.1901
26033W        W68971  26.347  28.872  19.442  0.0073 -0.0626 -0.1170
26034W        W68972  27.232  26.372  17.771  0.0335 -0.0726 -0.2283
26035W        W68973  26.113  26.415  18.652  0.1005  0.1051  0.1781
26036W        W68974  28.224  27.824  18.177 -0.0779  0.4443  0.2740
26037W        W68975  25.592  27.795  17.235  0.1218 -0.6171  0.1980
26038W        W68976  26.309  28.113  19.384  0.0557  0.2221 -0.1071
26039W        W68977  27.556  27.248  18.819  0.0216  0.1318 -0.1764
26040W        W68978  27.489  28.065  17.782 -0.1238  0.1571 -0.0822
26041W        W68979  26.208  26.851  18.317  0.0936  0.2311  0.2475
26042W        W68980  27.980  24.833  20.516  0.2821 -0.1717  0.0029
26043W        W68981  27.211  28.415  16.841 -0.2124 -0.0917 -0.2419
26044W        W68982  26.401  27.854  16.264 -0.3967 -0.3497 -0.0917
26045W        W68983  25.643  26.750  18.645 -0.0080 -0.2873 -0.0457
26046W        W68984  26.745  27.456  17.692  0.0564 -0.2370 -0.1681
26047W        W68985  28.354  27.686  18.671  0.2280  0.0810 -0.1127
26048W        W68986  28.212  27.008  17.578  0.2135  0.1366  0.1531
26049W        W68987  26.335  29.462  18.306 -0.0467 -0.1971  0.0747
26050W        W68988  27.449  28.586  17.875 -0.0327 -0.1926  0.1239
26051W        W68989  27.638  27.058  20.006  0.4019  0.1107 -0.2267
26052W        W68990  25.852  27.149  17.319  0.3046  0.2386  0.2006
26053W        W68991  25.040  28.905  16.673 -0.0501  0.1229  0.0904
26054W        W68992  27.288  28.875  16.439 -0.1110 -0.0952 -0.1223
26055W        W68993  28.627  27.328  16.650  0.0278  0.0453 -0.1425
26056W        W68994  27.681  28.049  20.058 -0.0308  0.0228 -0.1378
26057W        W68995  28.138  29.932  20.207  0.0595 -0.2069  0.0182
26058W        W68996  26.087  28.420  16.870 -0.0715  0.0842 -0.1187
26059W        W68997  27.548  29.576  19.095 -0.0779  0.2018 -0.0353
26060W        W68998  26.060  28.986  19.951 -0.0337 -0.4822 -0.3043
26061W        W68999  29.493  26.188  17.501  0.1085 -0.1996 -0.0389
26062W        W69000  25.276  26.829  16.590  0.2521 -0.4271  0.0123
26063W        W69001  27.576  29.435  16.624  0.0887 -0.1418 -0.0091
26064W        W69002  27.554  27.629  17.389  0.1181 -0.0168 -0.0674
26065W        W69003  27.157  28.969  19.052 -0.1356 -0.1527 -0.3425
26066W        W69004  26.683  28.816  17.633 -0.0896 -0.1664  0.2297
26067W        W69005  29.225  24.928  21.098 -0.1780  0.0353 -0.0026
26068W        W69006  27.309  27.217  17.526 -0.1204 -0.1020  0.0577
26069W        W69007  29.148  26.967  18.167 -0.4062 -0.0205 -0.3057
26070W        W69008  27.544  26.455  16.256 -0.1591  0.1509 -0.0456
26071W        W69009  27.873  26.813  16.302 -0.1047  0.2477 -0.2425
26072W        W69010  28.040  25.221  18.053  0.0521  0.0759  0.0437
26073W        W69011  25.254  28.387  19.127  0.1203 -0.1831  0.1148
26074W        W69012  27.462  26.507  19.179  0.2130  0.0879 -0.2177
26075W        W69013  28.784  28.797  18.090 -0.0702  0.0112 -0.0079
26076W        W69014  25.925  27.752  16.235  0.2359  0.0853  0.1774
26077W        W69015  28.872  25.527  18.192  0.0854  0.5255  0.3506
26078W        W69016  26.753  29.809  18.622 -0.1688 -0.0333  0.0406
26079W        W69017  26.515  29.042  18.097  0.3280  0.0968  0.1218
26080W        W69018  28.239  29.125  16.996  0.2434  0.5526 -0.4577
26081W        W69019  28.301  28.236  17.025  0.1060  0.0447 -0.2208
26082W        W69020  27.390  29.762  16.257 -0.2552  0.1992 -0.2662
26083W        W69021  24.388  26.077  16.651 -0.1092 -0.1555 -0.0679
26084W        W69022  25.749  27.798  18.741  0.4047  0.0075 -0.0255
26085W        W69023  26.880  27.624  19.652  0.2269 -0.0805  0.1125
26086W        W69024  26.995  26.399  15.978 -0.0792  0.1262  0.2849
26087W        W69025  27.468  28.073  20.517 -0.0438 -0.0600 -0.2973
26088W        W69026  25.653  28.995  17.945  0.1796  0.1462  0.2546
26089W        W69027  28.077  25.578  16.990  0.0697 -0.0911 -0.4813
26090W        W69028  25.721  28.585  19.217  0.0471 -0.0780 -0.0688
26091W        W69029  27.216  27.711  19.057  0.0139 -0.0272  0.1391
26092W        W69030  28.264  27.257  16.986 -0.1717  0.0816 -0.1381
26093W        W69031  28.680  26.350  18.745 -0.5513  0.3905  0.3849
26094W        W69032  29.027  26.353  19.294 -0.2651 -0.1748  0.2547
26095W        W69033  26.203  27.468  16.569  0.0107  0.1232 -0.0035
26096W        W69034  26.362  29.077  17.307  0.0480 -0.1977  0.1055
26097W        W69035  29.108  28.039  18.799  0.1142 -0.1025  0.2775
26098W        W69036  28.422  25.870  17.221 -0.5513 -0.0271 -0.1118
26099W        W69037  25.440  27.843  19.636 -0.1529  0.1331  0.1251
26100W        W69038  25.539  26.659  19.146  0.4033  0.1857 -0.4042
26101W        W69039  26.562  29.230  19.669 -0.0171  0.0830 -0.1611
26102W        W69040  26.641  28.961  16.220  0.0728 -0.0832  0.1052
26103W        W69041  25.950  28.550  18.078  0.2000  0.1030 -0.0321
26104W        W69042  26.012  27.628  17.508  0.1663 -0.0182  0.1446
26105W        W69043  25.160  27.242  17.778 -0.1931 -0.0171  0.0573
26106W        W69044  26.310  27.997  18.894  0.4270  0.0545 -0.1051
26107W        W69045  28.290  26.536  17.804 -0.0995 -0.1051  0.3911
26108W        W69046  26.252  26.040  19.082  0.1783 -0.1579 -0.3128
26109W        W69047  29.412  24.830  16.546  0.2497 -0.1388  0.1993
26110W        W69048  26.381  27.800  18.487 -0.2062 -0.1202  0.1150
26111W        W69049  28.474  29.842  17.231  0.0476  0.1243  0.1910
26112W        W69050  27.671  28.071  16.823 -0.0084  0.0750  0.0648
26113W        W69051  28.876  28.616  16.535 -0.1894  0.1629  0.0785
26114W        W69052  25.159  27.342  19.121 -0.1110 -0.0130 -0.1191
26115W        W69053  26.068  27.029  18.775  0.0694 -0.2268 -0.0987
26116W        W69054  25.680  26.260  18.786  0.0662 -0.2137 -0.0641
26117W        W69055  26.240  25.695  17.906  0.0093  0.0159  0.0231
26118W        W69056  27.684  28.039  19.349  0.1548  0.4060  0.0925
26119W        W69057  26.340  25.247  16.336  0.1558 -0.1221  0.1235
26120W        W69058  28.208  27.274  18.122  0.1986  0.2759  0.1848
26121W        W69059  25.952  27.412  15.484 -0.1974 -0.0538 -0.3025
26122W        W69060  25.988  27.153  17.890 -0.0290 -0.0406 -0.0363
26123W        W69061  28.107  27.208  18.626 -0.2341  0.2217 -0.3044
26124W        W69062  26.984  28.384  17.714  0.0210 -0.4546  0.0402
26125W        W69063  29.438  30.457  19.018  0.1481  0.0399 -0.1651
26126W        W69064  28.206  28.993  17.610 -0.0583 -0.0498  0.0070
26127W        W69065  26.232  28.449  19.763 -0.0938 -0.1074  0.2344
26128W        W69066  25.197  27.375  16.698  0.1020  0.0002 -0.0569
26129W        W69067  26.092  28.113  17.910 -0.0521 -0.0589  0.2715
26130W        W69068  27.907  27.633  18.470 -0.1930 -0.5115 -0.0121
26131W        W69069  26.368  25.204  17.565 -0.0725  0.1737  0.0491
26132W        W69070  27.841  29.875  18.019 -0.2322 -0.0793 -0.0150
26133W        W69071  27.849  27.174  17.263 -0.0432 -0.1379 -0.0577
26134W        W69072  24.641  28.814  20.038  0.2683  0.1036 -0.2059
26135W        W69073  28.242  26.047  19.522 -0.1121  0.0463  0.2727
26136W        W69074  29.492  28.068  19.106 -0.1205  0.1142 -0.1914
26137W        W69075  27.746  26.707  17.522  0.2133  0.0445 -0.1258
26138W        W69076  25.371  27.045  16.067  0.0402  0.1927 -0.0696
26139W        W69077  26.687  28.884  19.074  0.1480 -0.2534 -0.0606
26140W        W69078  26.678  29.456  16.981 -0.0656 -0.3586  0.1735
26141W        W69079  25.333  27.253  17.268  0.0761  0.0723  0.0498
26142W        W69080  26.761  26.747  18.485 -0.0914  0.3665  0.4145
26143W        W69081  29.518  26.102  18.128  0.0832  0.0054 -0.1220
26144W        W69082  24.856  28.267  21.705 -0.1066  0.0998  0.1383
26145W        W69083  26.772  26.233  19.137 -0.1299  0.0620 -0.0586
26146W        W69084  26.210  26.749  17.801 -0.1055  0.1454  0.1334
26147W        W69085  27.459  28.780  19.373  0.3209  0.0787  0.0985
26148W        W69086  28.194  26.298  16.863  0.1061 -0.3070  0.1733
26149W        W69087  28.721  25.568  16.281  0.0954 -0.4170 -0.0481
26150W        W69088  27.308  28.041  18.667 -0.3215  0.4758  0.0277
26151W        W69089  28.059  27.640  17.275 -0.0334  0.2152  0.0895
26152W        W69090  29.026  25.381  15.870  0.1609  0.0185  0.0036
26153W        W69091  27.109  26.664  17.417  0.2819 -0.1032  0.5952
26154W        W69092  24.664  28.268  20.697  0.2271  0.1935 -0.0797
26155W        W69093  27.994  28.423  16.558 -0.0207  0.4948  0.0297
26156W        W69094  28.563  28.824  18.545  0.1233 -0.0317 -0.2377
26157W        W69095  27.744  25.765  15.619  0.2396 -0.0592  0.2932
26158W        W69096  28.847  28.487  17.178 -0.1627  0.1915  0.1149
26159W        W69097  25.842  29.428  18.618  0.0072  0.0322 -0.0876
26160W        W69098  28.508  27.755  19.658  0.2779 -0.1373 -0.2066
26161W        W69099  27.480  28.503  17.323 -0.1473 -0.1522  0.0599
26162W        W69100  27.577  24.485  17.801 -0.0484  0.0046 -0.2387
26163W        W69101  26.926  25.984  16.540  0.0392 -0.1625  0.1457
26164W        W69102  26.860  26.106  17.449 -0.0441  0.0441  0.1180
26165W        W69103  25.641  29.631  16.621 -0.2019  0.0867  0.3698
26166W        W69104  28.176  26.698  18.883 -0.2737  0.0520  0.0692
26167W        W69105  29.965  25.877  18.074  0.1054  0.1326  0.0838
26168W        W69106  27.087  26.264  18.277  0.2430  0.0073  0.0896
26169W        W69107  28.341  28.559  20.267 -0.0882  0.1065  0.0194
26170W        W69108  27.266  27.478  16.172  0.1104  0.0724 -0.0360
26171W        W69109  27.403  27.613  18.470  0.1109 -0.3530  0.0179
26172W        W69110  24.893  27.154  16.331 -0.1152  0.0403  0.3313
26173W        W69111  26.438  25.634  19.941 -0.4480  0.1504 -0.4333
26174W        W69112  25.768  27.485  20.608 -0.0676  0.1771  0.1923
26175W        W69113  25.265  30.401  19.187 -0.2723 -0.1577 -0.1988
26176W        W69114  28.322  27.468  20.033 -0.0268 -0.1015 -0.0125
26177W        W69115  27.769  27.180  17.776  0.0993 -0.1588  0.1967
26178W        W69116  28.335  26.102  18.015 -0.0437 -0.1626 -0.3643
26179W        W69117  26.763  26.869  16.243 -0.0761  0.2916 -0.2344
26180W        W69118  26.462  28.476  17.165 -0.2618  0.3274 -0.0722
26181W        W69119  26.058  28.872  17.755  0.0971 -0.0405 -0.1060
26182W        W69120  27.395  25.883  18.415  0.1263 -0.0063  0.2235
26183W        W69121  26.614  26.678  17.419 -0.1810  0.1885  0.3104
26184W        W69122  26.809  28.113  17.070 -0.2214 -0.0776 -0.0311
26185W        W69123  27.345  28.904  18.322  0.0611  0.1616  0.0164
26186W        W69124  25.619  27.083  16.832 -0.0930 -0.1623 -0.2134
26187W        W69125  27.015  25.914  18.736 -0.1410  0.4861  0.1058
26188W        W69126  25.496  28.834  16.878 -0.2456 -0.0025 -0.1561
26189W        W69127  25.371  27.819  16.315 -0.2218  0.0354  0.1310
26190W        W69128  25.031  26.937  17.000  0.2828  0.0296  0.1497
26191W        W69129  28.694  26.628  18.046  0.2473 -0.0043 -0.1325
26192W        W69130  28.399  27.732  16.847  0.0180 -0.1811 -0.0450
26193W        W69131  26.714  27.109  19.519  0.1276  0.0157 -0.1527
26194W        W69132  28.366  25.584  18.229 -0.1815 -0.2900  0.1636
26195W        W69133  25.421  29.262  18.850  0.3280 -0.0219  0.0276
26196W        W69134  27.639  26.780  19.566 -0.2635  0.1750 -0.2507
26197W        W69135  26.542  27.083  16.856  0.0497  0.0206  0.0960
26198W        W69136  28.500  28.209  18.765  0.0859  0.1983 -0.3163
26199W        W69137  26.721  28.417  18.898 -0.1881  0.3174  0.0573
26200W        W69138  26.838  27.317  16.436 -0.0813 -0.4234  0.2311
26201W        W69139  28.269  26.564  18.320 -0.0307  0.2418  0.4538
26202W        W69140  25.574  25.436  16.779 -0.1916  0.3046 -0.2754
26203W        W69141  25.541  28.941  17.441  0.0102 -0.0786  0.3478
26204W        W69142  27.013  27.994  20.329 -0.0105  0.1465  0.0147
26205W        W69143  25.796  25.725  17.126 -0.4228 -0.2313  0.0525
26206W        W69144  26.019  28.962  18.379 -0.2764  0.0212  0.2107
26207W        W69145  25.939  26.421  19.466  0.0743 -0.1860 -0.3456
26208W        W69146  29.207  27.548  18.302 -0.0933  0.0275 -0.0599
26209W        W69147  26.171  27.523  18.909 -0.0723 -0.2823 -0.1717
26210W        W69148  27.877  25.777  17.996  0.0866  0.0361  0.1257
26211W        W69149  27.019  27.389  18.710 -0.1108 -0.2358  0.1847
26212W        W69150  27.484  28.333  16.365  0.0662  0.1895 -0.0200
26213W        W69151  28.063  28.115  18.519 -0.0494  0.0142  0.1254
26214W        W69152  26.514  28.797  19.970 -0.3603 -0.1165 -0.1252
26215W        W69153  28.733  24.464  18.284 -0.2225  0.1403 -0.1028
26216W        W69154  29.220  29.089  17.289  0.0023 -0.0231 -0.2110
26217W        W69155  26.830  28.028  19.314 -0.1389  0.0495 -0.1685
26218W        W69156  26.037  26.938  16.450 -0.0656 -0.2081  0.1640
26219W        W69157  25.635  27.312  18.890 -0.3039 -0.1736 -0.1308
26220W        W69158  27.376  27.356  16.677  0.0039  0.2658  0.0247
26221W        W69159  27.186  26.989  19.722 -0.1181 -0.0286 -0.2332
26222W        W69160  26.895  29.331  18.344 -0.2551 -0.1752  0.0377
26223W        W69161  25.993  29.753  17.761 -0.0971 -0.1724  0.0951
26224W        W69162  26.034  29.427  19.707 -0.4549  0.0512 -0.1606
26225W        W69163  27.812  26.326  17.898  0.1850  0.0590  0.1674
26226W        W69164  27.721  27.398  16.310  0.0415 -0.0278  0.1959
26227W        W69165  27.421  26.217  17.314  0.2257 -0.1172 -0.1605
26228W        W69166  28.601  26.618  20.634 -0.1403  0.2919  0.2242
26229W        W69167  27.535  27.831  16.281 -0.1139  0.0379 -0.2062
26230W        W69168  27.957  26.441  19.299 -0.0703  0.0052 -0.1915
26231W        W69169  26.963  25.557  19.131 -0.3400  0.0879  0.3491
26232W        W69170  27.127  27.747  17.634 -0.3007 -0.2205 -0.1001
26233W        W69171  26.417  26.588  19.602 -0.2452  0.0418  0.1242
26234W        W69172  27.929  27.771  21.218  0.0228  0.2826 -0.1430
26235W        W69173  26.783  27.297  20.018 -0.0708  0.1792  0.1344
26236W        W69174  27.790  27.067  16.732  0.0502 -0.0918 -0.0117
26237W        W69175  26.800  27.160  17.286 -0.0956 -0.0083 -0.0002
26238W        W69176  27.831  27.555  20.119 -0.0225 -0.2202  0.3192
26239W        W69177  27.296  28.335  19.192  0.0674 -0.1912  0.0081
26240W        W69178  26.520  28.191  16.671 -0.0414 -0.0657  0.1432
26241W        W69179  28.712  27.473  18.318 -0.0942 -0.1516 -0.1520
26242W        W69180  25.624  27.401  19.417 -0.1709 -0.1229 -0.3522
26243W        W69181  27.635  27.147  18.265  0.1507 -0.0295 -0.4094
26244W        W69182  27.260  27.900  15.887  0.0841 -0.0870 -0.1729
26245W        W69183  25.646  28.183  18.275  0.1150 -0.1854 -0.1528
26246W        W69184  26.622  25.827  18.304 -0.0105  0.0246  0.0548
26247W        W69185  29.276  27.263  19.134  0.1102  0.1610 -0.0916
26248W        W69186  28.129  25.615  17.608  0.3050  0.2358 -0.1315
26249W        W69187  28.819  26.166  18.170 -0.4500 -0.0685  0.0055
26250W        W69188  26.109  25.762  19.499 -0.1358  0.2281  0.0594
26251W        W69189  27.627  25.502  21.014  0.2235 -0.1367  0.1349
26252W        W69190  24.928  26.851  19.054 -0.3756  0.2676 -0.2355
26253W        W69191  28.034  29.082  18.467 -0.3132  0.2853 -0.0947
26254W        W69192  28.029  26.233  16.379 -0.2550  0.0191 -0.0867
26255W        W69193  29.316  26.889  18.724 -0.2387  0.2434  0.0974
26256W        W69194  28.984  27.225  18.626  0.0306 -0.2048 -0.4384
26257W        W69195  26.469  28.059  17.473  0.0348 -0.1535  0.3241
26258W        W69196  26.080  26.870  16.944 -0.3529  0.0559 -0.1975
26259W        W69197  29.731  29.075  19.284 -0.1069 -0.0278  0.1183
26260W        W69198  26.256  27.616  15.811 -0.2057  0.2267 -0.2632
26261W        W69199  28.311  25.433  19.540  0.0762 -0.0923  0.0893
26262W        W69200  28.491  28.648  16.805  0.0438 -0.1408 -0.0624
26263W        W69201  27.123  27.099  18.155 -0.0975 -0.0651  0.0143
26264W        W69202  27.745  26.488  16.718  0.3336 -0.0713  0.0529
26265W        W69203  26.293  25.638  17.353  0.2581 -0.0545  0.0471
26266W        W69204  26.342  27.951  19.839  0.0983  0.2727  0.2845
26267W        W69205  26.175  26.902  15.592 -0.0418 -0.1084 -0.0672
26268W        W69206  26.236  26.056  16.394  0.1037 -0.2434 -0.0466
26269W        W69207  27.274  27.922  19.545 -0.1003  0.6083 -0.0589
26270W        W69208  28.202  26.542  21.242 -0.0577 -0.0230 -0.1044
26271W        W69209  26.565  25.648  16.443 -0.3017  0.0100 -0.1184
26272W        W69210  27.547  25.461  20.010 -0.1687  0.1440 -0.1363
26273W        W69211  25.543  28.332  17.099  0.0549  0.0774  0.2313
26274W        W69212  27.236  26.934  18.702 -0.4946 -0.0952  0.0157
26275W        W69213  26.330  29.404  17.753  0.2709  0.1583 -0.1354
26276W        W69214  24.370  29.542  20.300 -0.1819  0.0070 -0.1863
26277W        W69215  25.932  29.293  17.481  0.1619  0.0718 -0.0999
26278W        W69216  28.409  24.806  18.719 -0.1948 -0.1418 -0.0633
26279W        W69217  28.091  26.134  17.550 -0.2442 -0.3923  0.2294
26280W        W69218  28.597  26.930  18.444  0.0968 -0.1993 -0.2497
26281W        W69219  28.362  28.358  19.312  0.1418  0.0903 -0.1570
26282W        W69220  27.611  28.450  19.718  0.1871 -0.1319  0.1042
26283W        W69221  26.135  27.349  18.321  0.1306  0.5000  0.1163
26284W        W69222  26.334  28.654  18.625  0.2091 -0.1106  0.1429
26285W        W69223  27.671  27.836  18.906 -0.0292  0.0928 -0.4664
26286W        W69224  27.645  27.987  18.246  0.0837  0.1619  0.3244
26287W        W69225  25.354  28.385  20.177 -0.0094  0.0582  0.1025
26288W        W69226  26.596  27.773  20.203  0.0285  0.0585 -0.0611
26289W        W69227  27.176  25.575  17.969  0.0244 -0.1704  0.0045
26290W        W69228  26.279  25.432  18.320 -0.2625  0.0948  0.0844
26291W        W69229  27.320  28.867  16.994 -0.0092 -0.0241  0.0803
26292W        W69230  25.708  28.177  21.577  0.1136  0.1250  0.1398
26293W        W69231  25.378  26.985  19.543  0.3341  0.1984  0.2145
26294W        W69232  24.842  28.618  19.173  0.4667 -0.2093 -0.2437
26295W        W69233  28.015  27.952  16.438  0.2164  0.1890 -0.3281
26296W        W69234  26.580  27.657  17.220  0.1058  0.0721  0.1448
26297W        W69235  27.715  29.022  17.496 -0.0876  0.1459 -0.4513
26298W        W69236  25.710  26.566  16.779 -0.1807  0.1197  0.4710
26299W        W69237  25.396  30.369  17.890 -0.1436  0.2459 -0.0266
26300W        W69238  24.950  28.676  16.182  0.1619  0.1270 -0.0594
26301W        W69239  28.537  27.784  16.340 -0.1208  0.1814 -0.1800
26302W        W69240  26.411  30.131  18.732 -0.1230 -0.0795 -0.1164
26303W        W69241  28.545  26.381  19.199 -0.0793 -0.1098  0.0184
26304W        W69242  29.417  25.104  16.129 -0.0630  0.3320  0.0387
26305W        W69243  28.633  27.123  17.907 -0.1289 -0.2538  0.3326
26306W        W69244  29.615  26.194  16.220 -0.4229  0.2011 -0.0957
26307W        W69245  27.643  28.818  18.766 -0.1916  0.0343  0.0178
26308W        W69246  26.832  27.861  18.755  0.0313 -0.1759 -0.1174
26309W        W69247  26.694  25.696  17.656  0.3299  0.0192  0.2870
26310W        W69248  27.758  26.793  18.583  0.0919  0.0690  0.0135
26311W        W69249  27.373  25.600  19.520 -0.2789 -0.1958 -0.0928
26312W        W69250  25.515  29.760  19.913 -0.0225 -0.4733 -0.1816
26313W        W69251  28.677  27.921  17.227  0.0495 -0.0737  0.1302
26314W        W69252  25.008  27.465  15.840  0.0691  0.0874  0.0922
26315W        W69253  27.171  27.553  17.094  0.1848 -0.1087  0.1695
26316W        W69254  28.251  26.146  18.683 -0.1420  0.1548  0.0917
26317W        W69255  26.269  26.660  16.055  0.1893  0.1319 -0.1643
26318W        W69256  27.803  26.337  18.426 -0.0024  0.0074 -0.1029
26319W        W69257  26.903  29.083  17.207  0.1478  0.1880 -0.1683
26320W        W69258  26.627  28.042  17.955 -0.0664 -0.1031  0.0605
26321W        W69259  26.826  29.370  18.910  0.3599 -0.0961  0.1455
26322W        W69260  26.296  25.688  15.949  0.2001 -0.1894  0.1398
26323W        W69261  28.644  27.396  17.350  0.1271  0.0170  0.0274
26324W        W69262  28.375  26.643  20.200  0.0597 -0.1510  0.1562
26325W        W69263  29.187  24.387  20.555  0.2408 -0.0605  0.0118
26326W        W69264  26.486  27.120  17.994 -0.1154 -0.0389  0.2093
26327W        W69265  29.237  27.269  16.796  0.1159  0.2883  0.0616
26328W        W69266  26.754  28.219  18.467  0.3075  0.0623 -0.2584
26329W        W69267  25.402  27.672  18.165  0.0404 -0.0465  0.1076
26330W        W69268  27.204  27.439  15.678 -0.2023 -0.0669 -0.0954
26331W        W69269  28.862  26.816  19.544  0.0497 -0.0464  0.0731
26332W        W69270  27.065  26.932  16.762 -0.2370  0.0749 -0.0338
26333W        W69271  28.818  30.095  19.094  0.0303 -0.0850  0.1478
26334W        W69272  25.709  25.862  17.669 -0.0384 -0.0524  0.6053
26335W        W69273  26.203  27.441  17.057  0.3898 -0.4539 -0.1015
26336W        W69274  25.593  27.404  17.732 -0.1528 -0.2571 -0.0432
26337W        W69275  26.476  28.314  20.224 -0.2596 -0.1329 -0.3531
26338W        W69276  27.782  29.030  19.633 -0.0855  0.2151 -0.3038
26339W        W69277  26.184  25.756  16.829 -0.1232  0.1796  0.1436
26340W        W69278  28.088  28.994  15.887  0.4537  0.0594  0.1182
26341W        W69279  29.240  28.333  18.111 -0.0212  0.1297  0.1409
26342W        W69280  27.930  29.773  16.444  0.2024  0.1486  0.0173
26343W        W69281  27.304  28.052  17.259 -0.0176 -0.2117  0.2397
26344W        W69282  26.350  29.374  19.243 -0.0201  0.1334 -0.0775
26345W        W69283  25.731  27.191  19.895  0.1915  0.1865 -0.3515
26346W        W69284  28.261  28.875  19.347 -0.2522  0.0287  0.0757
26347W        W69285  27.631  28.475  18.405  0.1703 -0.0505 -0.1291
26348W        W69286  28.154  25.063  17.554 -0.0596  0.0321 -0.2351
26349W        W69287  25.908  26.907  19.500  0.1741 -0.1157 -0.2729
26350W        W69288  26.353  28.462  17.708 -0.4102  0.2340 -0.2331
26351W        W69289  28.494  27.044  19.896  0.1012 -0.1310 -0.1187
26352W        W69290  28.716  25.703  20.337 -0.1992  0.1599  0.3171
26353W        W69291  26.589  29.401  16.484  0.2090  0.0466  0.0778
26354W        W69292  27.275  25.537  20.450  0.1484 -0.0956 -0.3676
26355W        W69293  27.005  26.934  20.772 -0.2485  0.0221  0.0171
26356W        W69294  26.228  29.744  21.088 -0.0573 -0.0500  0.0987
26357W        W69295  26.138  27.908  16.939  0.2949  0.0555 -0.4417
26358W        W69296  26.131  28.213  18.453 -0.2241  0.0047  0.0384
26359W        W69297  25.362  28.270  18.654 -0.0512 -0.1076  0.1359
26360W        W69298  26.493  28.502  18.182  0.0075  0.1728 -0.0345
26361W        W69299  26.852  28.836  18.532  0.0241 -0.2319 -0.1434
26362W        W69300  26.519  27.206  18.640 -0.0514  0.1554  0.2945
26363W        W69301  28.381  28.616  17.897 -0.0172  0.1750  0.3920
26364W        W69302  25.400  26.486  19.606  0.3529 -0.1979 -0.0354
26365W        W69303  27.809  25.763  16.599  0.0774  0.1846 -0.0327
26366W        W69304  25.899  27.764  18.256  0.1840 -0.1314  0.4288
26367W        W69305  27.271  27.690  20.039  0.2551  0.0216  0.0090
26368W        W69306  25.904  27.116  15.968 -0.2779  0.1584 -0.3079
26369W        W69307  26.540  29.019  16.809 -0.1313  0.1145 -0.1396
26370W        W69308  26.467  29.160  18.651 -0.0749 -0.2658 -0.1917
26371W        W69309  29.057  25.516  19.282  0.1719  0.0505  0.2074
26372W        W69310  24.928  27.685  17.917 -0.0340  0.0365 -0.3715
26373W        W69311  26.292  27.635  17.920  0.2629 -0.3379  0.2421
26374W        W69312  26.159  26.448  16.715 -0.0442  0.4670  0.1620
26375W        W69313  28.269  28.094  15.985  0.0855 -0.2649 -0.1885
26376W        W69314  28.025  25.256  18.577  0.1068 -0.3833  0.2344
26377W        W69315  26.069  26.102  17.218 -0.1078 -0.0919 -0.3139
26378W        W69316  27.929  28.540  17.541  0.1040  0.0294 -0.1762
26379W        W69317  28.410  30.224  16.879  0.1321 -0.0950  0.0079
26380W        W69318  27.400  26.851  17.822  0.2928  0.0075  0.0897
26381W        W69319  28.322  28.860  19.884  0.2172 -0.4384 -0.1396
26382W        W69320  25.931  28.134  17.392 -0.1683  0.2591 -0.3021
26383W        W69321  27.064  26.629  22.139 -0.0576  0.0518  0.2255
26384W        W69322  26.908  25.902  19.485 -0.1193  0.1597  0.2811
26385W        W69323  27.190  25.699  17.456 -0.1351  0.0945 -0.0810
26386W        W69324  28.048  26.833  19.836  0.1383 -0.0026  0.1663
26387W        W69325  27.825  28.102  17.390  0.4584 -0.0836  0.0243
26388W        W69326  28.200  28.590  18.397  0.1784 -0.1672  0.0731
26389W        W69327  26.978  26.648  19.041 -0.2416  0.0264 -0.0571
26390W        W69328  25.946  28.387  20.502 -0.0317  0.3233  0.3552
26391W        W69329  27.135  24.687  17.903 -0.2933  0.2571  0.1455
26392W        W69330  27.466  27.554  17.955 -0.0411 -0.0135  0.2070
26393W        W69331  25.369  28.499  20.693 -0.2286 -0.0882 -0.1153
26394W        W69332  28.026  27.994  15.522 -0.0710  0.0991  0.0319
26395W        W69333  28.807  27.623  18.839  0.0968  0.3542 -0.0088
26396W        W69334  27.261  27.844  16.698 -0.2012  0.1676  0.0182
26397W        W69335  26.493  26.105  19.637 -0.0824 -0.2656  0.0824
26398W        W69336  26.375  26.327  20.090 -0.1609 -0.1887 -0.0221
26399W        W69337  28.925  27.983  18.346 -0.0508 -0.0899  0.1016
26400W        W69338  26.495  26.108  16.857 -0.0402 -0.2286  0.2014
26401W        W69339  27.083  26.485  16.496  0.3487 -0.0810 -0.2363
26402W        W69340  27.783  27.572  16.772 -0.0720 -0.2807 -0.1217
26403W        W69341  25.368  27.737  20.340  0.1461 -0.1355  0.1405
26404W        W69342  27.406  27.041  17.119 -0.0636 -0.0329  0.1490
26405W        W69343  26.883  26.187  19.964 -0.2384  0.1274  0.0967
26406W        W69344  27.712  28.335  18.878  0.0212 -0.2938  0.1404
26407W        W69345  27.857  27.502  19.246 -0.0961 -0.0679 -0.1036
26408W        W69346  26.423  27.243  16.103  0.1885 -0.1425  0.0868
26409W        W69347  28.673  26.848  17.023  0.0188  0.0040 -0.0931
26410W        W69348  27.223  29.859  19.779  0.0073 -0.0447  0.0241
26411W        W69349  27.917  29.433  18.782  0.1506  0.1265 -0.2172
26412W        W69350  25.661  28.025  20.065 -0.1221 -0.0362 -0.0918
26413W        W69351  28.585  28.264  18.263  0.0534 -0.0778 -0.3684
26414W        W69352  27.432  24.250  19.288 -0.3002 -0.2593 -0.1074
26415W        W69353  25.658  27.925  17.758 -0.4147 -0.1319 -0.3198
26416W        W69354  28.314  28.183  17.562 -0.2131 -0.1376 -0.0602
26417W        W69355  26.665  27.496  19.127 -0.1633 -0.3805  0.1442
26418W        W69356  25.274  26.799  18.199 -0.0022  0.2070 -0.2767
26419W        W69357  27.381  25.927  15.315  0.0376 -0.0019  0.2347
26420W        W69358  28.084  30.358  18.880 -0.0762 -0.1011  0.1615
26421W        W69359  27.185  28.322  18.198  0.3547 -0.3018  0.1331
26422W        W69360  26.179  28.389  21.823 -0.0694  0.1251 -0.2278
26423W        W69361  26.540  26.489  22.246  0.1418  0.2016  0.1513
26424W        W69362  29.236  26.470  17.878 -0.2811 -0.1888 -0.0487
26425W        W69363  28.494  28.435  21.689  0.0136 -0.2582  0.3121
26426W        W69364  26.037  26.073  20.548 -0.2748  0.0737 -0.1390
26427W        W69365  25.746  29.613  22.191 -0.0974  0.1377  0.2734
26428W        W69366  27.181  27.465  23.202 -0.0542  0.1760 -0.1322
26429W        W69367  28.908  29.866  21.967 -0.2217  0.1105  0.0015
26430W        W69368  28.764  29.151  22.919 -0.1247  0.0891  0.2422
26431W        W69369  27.485  27.648  20.947  0.2372  0.0575 -0.0131
26432W        W69370  26.852  28.245  22.641 -0.2122 -0.2086 -0.1745
26433W        W69371  27.442  30.615  21.296 -0.0068  0.1057  0.1169
26434W        W69372  26.898  23.771  20.752 -0.3383  0.0667  0.1491
26435W        W69373  25.971  24.643  21.100  0.1536 -0.2503  0.4812
26436W        W69374  29.647  28.223  21.029  0.0312 -0.0623 -0.2511
26437W        W69375  24.464  27.190  20.085 -0.1108 -0.2011  0.1508
26438W        W69376  25.258  26.966  22.345 -0.1422 -0.2116  0.3130
26439W        W69377  27.235  26.892  21.751  0.0920 -0.0852  0.0418
26440W        W69378  27.426  30.062  21.362 -0.3681 -0.0398 -0.0882
26441W        W69379  25.928  27.489  22.837 -0.2363  0.2923 -0.1785
26442W        W69380  26.827  25.883  22.999 -0.2622  0.2705 -0.2245
26443W        W69381  25.502  29.960  21.068 -0.1935  0.0072  0.0141
26444W        W69382  27.360  27.437  19.578  0.2960 -0.0278  0.2620
26445W        W69383  24.057  27.222  20.353 -0.0908 -0.2121  0.0780
26446W        W69384  26.199  28.436  21.339  0.2333  0.0978  0.1816
26447W        W69385  27.345  26.851  23.782 -0.2306 -0.1568 -0.1591
26448W        W69386  28.703  27.885  22.656 -0.2622 -0.0056 -0.2169
26449W        W69387  27.905  28.977  22.022 -0.1182 -0.0591 -0.2510
26450W        W69388  27.022  30.522  22.103  0.0799  0.0368 -0.3286
26451W        W69389  27.721  26.198  24.481 -0.3392  0.2331 -0.2395
26452W        W69390  25.338  27.490  21.643 -0.1393 -0.3236  0.0675
26453W        W69391  26.255  30.124  20.748  0.0269 -0.0336  0.0138
26454W        W69392  25.224  30.024  20.595  0.0833 -0.1713  0.0233
26455W        W69393  28.463  27.883  21.720 -0.3611  0.2437  0.2935
26456W        W69394  29.201  28.837  23.613 -0.1109 -0.1439 -0.1491
26457W        W69395  26.476  29.806  22.986  0.1163 -0.1705  0.2554
26458W        W69396  25.174  29.508  20.348 -0.0252  0.0044 -0.2024
26459W        W69397  28.392  28.355  23.061  0.0131 -0.2047 -0.0253
26460W        W69398  27.423  28.145  23.608  0.1410  0.1189  0.0740
26461W        W69399  26.495  26.262  23.378 -0.0183 -0.0969 -0.2407
26462W        W69400  26.185  27.185  20.719 -0.1247 -0.1421 -0.0772
26463W        W69401  26.347  27.017  19.863 -0.0407 -0.0402  0.2605
26464W        W69402  26.300  26.735  20.397  0.0623 -0.0032  0.1806
26465W        W69403  25.376  28.582  24.799 -0.0010 -0.1434 -0.0179
26466W        W69404  24.789  28.874  21.667 -0.0926 -0.1247 -0.0363
26467W        W69405  27.916  28.838  24.139 -0.0700 -0.0930 -0.2451
26468W        W69406  26.167  27.867  20.441 -0.1200  0.0669  0.0895
26469W        W69407  28.325  27.222  22.204  0.1881  0.2686 -0.1383
26470W        W69408  27.212  26.597  20.073  0.2048  0.0536 -0.3267
26471W        W69409  27.745  26.525  20.964  0.2743 -0.0881 -0.0879
26472W        W69410  27.479  25.823  21.893  0.3638  0.3430  0.0345
26473W        W69411  26.658  28.583  21.583 -0.0283  0.2175  0.1982
26474W        W69412  27.196  27.069  22.420 -0.1935 -0.2206  0.0550
26475W        W69413  28.119  29.942  24.692 -0.0658 -0.0327 -0.0558
26476W        W69414  27.023  27.522  20.594 -0.1384 -0.1506 -0.0346
26477W        W69415  26.669  28.368  22.147 -0.1687  0.1438  0.1310
26478W        W69416  26.199  29.368  22.084  0.1535 -0.3289 -0.1084
26479W        W69417  26.395  26.190  21.771 -0.2105 -0.0224 -0.2017
26480W        W69418  28.116  28.334  19.732 -0.3015  0.0587 -0.2751
26481W        W69419  29.244  29.575  22.247  0.0891  0.1209  0.0644
26482W        W69420  27.637  29.967  20.042  0.3572  0.1988 -0.3800
26483W        W69421  25.961  27.660  19.992 -0.1970 -0.0046 -0.1539
26484W        W69422  24.973  27.565  24.041  0.2165  0.1381  0.1751
26485W        W69423  24.448  28.362  23.198 -0.0324  0.2181  0.3110
26486W        W69424  25.214  25.469  19.750 -0.0743  0.1181  0.0399
26487W        W69425  28.037  30.397  24.183 -0.0938 -0.0871 -0.0741
26488W        W69426  25.257  28.616  23.213  0.3453  0.0784 -0.3203
26489W        W69427  28.065  26.054  22.290 -0.1648  0.1385 -0.2351
26490W        W69428  26.885  28.779  22.030  0.3306 -0.1582 -0.1386
26491W        W69429  27.728  26.878  23.010 -0.1541  0.0094 -0.0111
26492W        W69430  27.622  27.011  20.800  0.0961  0.1987  0.0508
26493W        W69431  27.430  25.108  22.799 -0.2280  0.0611  0.0167
26494W        W69432  27.183  25.923  23.563  0.2826 -0.0395  0.5480
26495W        W69433  27.028  28.507  21.279 -0.0233 -0.0629  0.2276
26496W        W69434  25.457  29.187  21.547 -0.2480  0.1396  0.1589
26497W        W69435  28.486  27.678  21.130 -0.0750 -0.1439  0.1337
26498W        W69436  28.864  26.792  20.094 -0.2952  0.1755 -0.1534
26499W        W69437  25.293  30.259  22.407 -0.3257 -0.1875 -0.2440
26500W        W69438  28.499  27.394  23.158 -0.2918 -0.0627  0.2527
26501W        W69439  25.826  28.499  22.661  0.0909 -0.2616  0.1672
26502W        W69440  25.695  28.032  20.762 -0.2380  0.0500 -0.0977
26503W        W69441  26.053  27.583  22.356  0.2313  0.0950  0.3870
26504W        W69442  25.217  29.025  20.671  0.1342  0.0332 -0.3005
26505W        W69443  26.014  27.333  23.633 -0.0598 -0.0882 -0.3311
26506W        W69444  26.992  29.513  20.904 -0.1379 -0.0401 -0.0588
26507W        W69445  27.592  26.826  22.119 -0.0055  0.3094  0.1164
26508W        W69446  24.637  27.039  22.954 -0.0864  0.1766 -0.0210
26509W        W69447  28.924  26.006  21.084 -0.1693  0.1624 -0.0217
26510W        W69448  26.624  29.510  21.276  0.2067 -0.3725 -0.0554
26511W        W69449  28.223  28.637  20.757  0.0411  0.4044 -0.1208
26512W        W69450  28.166  26.890  20.812  0.1903  0.1081 -0.0456
26513W        W69451  26.702  28.474  19.458  0.1602  0.1746  0.1120
26514W        W69452  25.249  26.659  24.126 -0.0342  0.0717 -0.2046
26515W        W69453  25.783  26.315  22.496  0.0748  0.2082 -0.0172
26516W        W69454  26.216  26.626  23.176  0.1054  0.1015 -0.0560
26517W        W69455  26.070  26.527  20.913 -0.1074 -0.2564 -0.1236
26518W        W69456  28.085  28.740  23.313  0.1171  0.2387  0.0008
26519W        W69457  25.224  26.499  21.438 -0.2810  0.1861 -0.0190
26520W        W69458  26.220  25.611  20.716  0.3754  0.2195 -0.0510
26521W        W69459  27.125  25.740  19.919  0.0468  0.0884  0.0312
26522W        W69460  24.966  28.491  21.095 -0.0881  0.1545 -0.2056
26523W        W69461  30.446  25.618  24.906  0.0392 -0.0915  0.0985
26524W        W69462  27.446  29.399  19.576  0.1222  0.2203  0.0505
26525W        W69463  28.009  29.498  23.532  0.0988 -0.1649 -0.0740
26526W        W69464  28.308  28.720  22.084  0.2250  0.3338  0.3017
26527W        W69465  25.870  27.102  22.488  0.3319  0.0475  0.0447
26528W        W69466  25.684  26.734  21.280 -0.0303  0.0333  0.3207
26529W        W69467  24.847  28.239  22.826 -0.0898  0.0738  0.0704
26530W        W69468  27.376  31.901  22.494 -0.0114  0.2153  0.3003
26531W        W69469  27.405  25.093  20.853  0.2172 -0.1660 -0.3374
26532W        W69470  28.377  30.609  21.833 -0.2170 -0.0612  0.0191
26533W        W69471  26.307  28.536  20.853  0.0158 -0.2559  0.0950
26534W        W69472  26.212  27.710  23.218  0.0303 -0.3365  0.0367
26535W        W69473  27.294  26.240  24.960 -0.0368  0.1292  0.0417
26536W        W69474  29.050  27.501  24.128  0.4549  0.1320  0.0231
26537W        W69475  28.364  29.244  22.004  0.0674  0.0549 -0.0815
26538W        W69476  27.359  26.388  18.717  0.0723 -0.0912 -0.2159
26539W        W69477  27.927  29.193  20.785 -0.0573 -0.4390 -0.1577
26540W        W69478  26.431  28.865  20.467  0.3094  0.1328 -0.2102
26541W        W69479  24.296  28.107  21.788 -0.4019  0.0871  0.1255
26542W        W69480  26.343  29.640  20.524  0.1622  0.0091  0.0414
26543W        W69481  27.487  26.346  23.541 -0.1347 -0.2113 -0.2087
26544W        W69482  24.833  27.195  24.633 -0.2648 -0.4635  0.0846
26545W        W69483  27.334  26.678  23.251 -0.0128 -0.0096  0.0803
26546W        W69484  26.729  26.684  19.956 -0.1219 -0.0239 -0.1408
26547W        W69485  25.468  28.675  22.291  0.2716  0.2469  0.3579
26548W        W69486  26.954  26.359  20.975 -0.0052  0.1962  0.0656
26549W        W69487  27.754  26.028  22.788  0.2092  0.1598  0.1048
26550W        W69488  26.471  27.217  21.617 -0.3106 -0.0163 -0.0596
26551W        W69489  28.890  28.594  21.406  0.0136 -0.0604 -0.1316
26552W        W69490  27.783  25.995  21.127  0.0046 -0.0305 -0.1710
26553W        W69491  27.736  25.353  20.542 -0.0911 -0.3515 -0.0555
26554W        W69492  25.391  29.294  24.204 -0.2790 -0.0361  0.0292
26555W        W69493  28.039  28.582  21.557  0.1047  0.0380  0.3782
26556W        W69494  26.678  29.191  20.740  0.4214 -0.0519  0.2184
26557W        W69495  25.797  26.992  20.330  0.1762 -0.1309  0.1309
26558W        W69496  29.049  29.096  21.450  0.0016 -0.1534 -0.0403
26559W        W69497  24.721  28.715  22.591 -0.0296  0.2868  0.0113
26560W        W69498  27.474  28.703  23.331  0.0497  0.1386  0.0391
26561W        W69499  28.326  28.554  22.588  0.1177 -0.1849  0.2711
26562W        W69500  26.643  27.367  23.006  0.3031 -0.1769 -0.0416
26563W        W69501  27.949  27.284  19.650  0.1457  0.1049  0.3182
26564W        W69502  27.585  27.141  23.395  0.1030  0.2132 -0.0853
26565W        W69503  24.051  29.668  19.861  0.1124  0.1179  0.0556
26566W        W69504  26.799  27.103  22.049  0.0668  0.3929 -0.0551
26567W        W69505  26.528  27.648  21.348  0.2051  0.0176  0.0977
26568W        W69506  27.084  28.268  23.193 -0.0257 -0.1269 -0.0736
26569W        W69507  28.919  28.269  24.931 -0.0941 -0.2174  0.0873
26570W        W69508  28.339  26.488  19.721 -0.0872  0.0327  0.1236
26571W        W69509  27.492  28.512  21.431 -0.1876 -0.1953 -0.0645
26572W        W69510  25.553  27.715  21.197  0.1120  0.0001  0.2177
26573W        W69511  27.385  27.555  21.975  0.3880  0.1464  0.0064
26574W        W69512  26.990  27.895  24.456  0.1157  0.1214 -0.1240
26575W        W69513  25.849  29.860  21.507 -0.0132  0.3395 -0.1723
26576W        W69514  28.554  28.266  24.507 -0.2259  0.1516 -0.2442
26577W        W69515  27.126  27.069  20.274 -0.0291 -0.2848 -0.1554
26578W        W69516  26.463  28.325  23.516 -0.1949 -0.0039 -0.0266
26579W        W69517  27.811  26.211  21.638 -0.2616 -0.1904  0.5625
26580W        W69518  26.915  28.878  19.509  0.0669  0.1152  0.0989
26581W        W69519  24.861  28.199  19.500 -0.4248  0.0756  0.1613
26582W        W69520  26.314  27.625  21.933 -0.2461 -0.0230 -0.0414
26583W        W69521  25.157  29.184  22.414 -0.0838 -0.0575  0.0091
26584W        W69522  26.261  28.486  19.110  0.0243 -0.0286 -0.2868
26585W        W69523  26.448  28.948  22.255  0.0316 -0.3899  0.0191
26586W        W69524  25.037  28.514  19.880  0.0566  0.2176 -0.1665
26587W        W69525  27.159  25.768  22.676  0.0230  0.1519  0.1400
26588W        W69526  25.452  28.157  22.388  0.0441 -0.2864  0.1882
26589W        W69527  25.261  27.418  19.809 -0.1237 -0.2100  0.1553
26590W        W69528  25.200  27.056  21.310 -0.3069  0.1030 -0.2695
26591W        W69529  27.707  26.348  22.067  0.0824  0.0880 -0.5396
26592W        W69530  28.211  27.482  21.616 -0.0720  0.1465 -0.3597
26593W        W69531  25.766  25.367  21.501 -0.1246  0.2666  0.1644
26594W        W69532  25.865  25.567  22.969 -0.0397 -0.1418  0.2172
26595W        W69533  25.261  28.965  21.958  0.2090  0.2190  0.0782
26596W        W69534  26.521  30.401  22.125 -0.1817  0.0099  0.2075
26597W        W69535  26.560  26.714  21.766  0.0211 -0.1203 -0.0179
26598W        W69536  27.179  28.402  21.833  0.2962 -0.1960  0.1426
26599W        W69537  24.957  28.959  23.981 -0.0389 -0.2565  0.0752
26600W        W69538  25.230  26.556  20.905  0.4165  0.0164  0.3624
26601W        W69539  27.920  28.075  23.307  0.2433 -0.0944 -0.0023
26602W        W69540  26.581  26.848  22.951  0.1372  0.1412  0.0984
26603W        W69541  25.287  29.757  22.391  0.0925  0.1218 -0.0134
26604W        W69542  28.418  28.931  21.527  0.0623 -0.0057  0.1240
26605W        W69543  25.175  28.006  20.931 -0.0757 -0.2603 -0.2989
26606W        W69544  25.045  29.976  21.971  0.2830 -0.1835  0.0007
26607W        W69545  26.405  27.031  25.031 -0.2748  0.0512 -0.3241
26608W        W69546  29.680  29.058  22.387 -0.2668  0.0140  0.2782
26609W        W69547  26.675  28.138  21.155  0.0605 -0.2439  0.0489
26610W        W69548  26.745  25.455  21.600  0.0646  0.0725  0.2046
26611W        W69549  27.435  27.695  21.486 -0.1457 -0.2585 -0.0242
26612W        W69550  28.815  26.952  23.239  0.0187  0.4423 -0.1847
26613W        W69551  27.078  28.763  23.054  0.2012  0.3691  0.2947
26614W        W69552  27.514  28.856  22.657  0.2452  0.2147 -0.3114
26615W        W69553  26.664  24.568  22.367 -0.3045  0.2807 -0.1558
26616W        W69554  29.630  28.849  19.733 -0.0066  0.0360  0.2836
26617W        W69555  28.029  27.474  23.504  0.1269  0.2161  0.0636
26618W        W69556  24.811  28.701  20.570 -0.0000 -0.0699  0.3080
26619W        W69557  25.706  28.723  21.834  0.2326  0.0336  0.5403
26620W        W69558  26.069  27.502  21.080  0.1495  0.0141  0.1902
26621W        W69559  26.556  26.827  23.575  0.2004 -0.1163  0.0058
26622W        W69560  25.972  28.789  23.080  0.3026  0.2274 -0.0275
26623W        W69561  26.028  30.146  19.826  0.0306  0.0407 -0.1326
26624W        W69562  26.064  28.120  22.258  0.1931  0.0545 -0.1424
26625W        W69563  28.086  27.017  21.747 -0.2207 -0.0889  0.1570
26626W        W69564  28.229  29.804  19.672  0.0626 -0.3091 -0.3595
26627W        W69565  26.130  26.665  22.647  0.1978 -0.2950 -0.0194
26628W        W69566  28.624  25.896  22.393  0.3235 -0.1544 -0.0147
26629W        W69567  28.542  27.161  18.901 -0.1422  0.1812 -0.0083
26630W        W69568  28.676  27.059  24.176 -0.0747 -0.2623 -0.2114
26631W        W69569  26.301  27.161  22.718 -0.2721  0.0850 -0.2436
26632W        W69570  26.931  27.867  21.776 -0.2276  0.4096  0.1819
26633W        W69571  25.954  28.180  23.612 -0.0784  0.0107 -0.1194
26634W        W69572  28.539  30.310  24.818  0.0946 -0.0691 -0.1412
26635W        W69573  25.709  27.853  23.217 -0.0814  0.0185 -0.0217
26636W        W69574  26.120  25.556  22.203 -0.0112  0.2759 -0.0049
26637W        W69575  26.425  25.319  20.359 -0.2379  0.0677  0.3611
26638W        W69576  26.931  29.851  21.496  0.1814  0.2823  0.1095
26639W        W69577  27.145  27.918  22.360 -0.3738  0.1145 -0.0224
26640W        W69578  28.166  26.507  21.799 -0.1390  0.3092  0.0257
26641W        W69579  27.575  27.703  23.359  0.4522  0.1065 -0.1956
26642W        W69580  24.580  27.256  21.352 -0.1379  0.1780 -0.0561
26643W        W69581  27.844  27.109  21.257 -0.1111 -0.1120  0.0154
26644W        W69582  27.383  27.187  21.264  0.2594  0.1325  0.0353
26645W        W69583  25.864  28.871  21.343  0.2091 -0.1631  0.1151
26646W        W69584  26.725  27.901  23.147  0.1130 -0.1079 -0.1375
26647W        W69585  28.281  28.099  21.320  0.2392 -0.3015 -0.0931
26648W        W69586  26.983  27.496  22.633 -0.0300  0.2553 -0.1554
26649W        W69587  28.629  25.990  24.901 -0.1889 -0.1010 -0.1484
26650W        W69588  28.620  28.209  22.208 -0.3127 -0.2516  0.0395
26651W        W69589  26.381  28.491  22.636  0.1195 -0.0400  0.0378
26652W        W69590  25.195  27.446  22.168 -0.1102  0.1233 -0.1974
26653W        W69591  29.347  29.621  22.996  0.0669 -0.1133 -0.2155
26654W        W69592  28.357  27.056  21.310  0.1365 -0.1186  0.0237
26655W        W69593  27.625  25.881  23.333 -0.0980  0.1305  0.0982
26656W        W69594  26.857  26.948  21.390  0.1181 -0.0340 -0.1825
26657W        W69595  27.369  26.657  20.567  0.0836  0.0341  0.1290
26658W        W69596  26.312  27.027  24.024 -0.1568 -0.0222  0.2243
26659W        W69597  28.869  28.281  23.202  0.0739  0.1289  0.1152
26660W        W69598  25.048  26.324  19.270 -0.0952  0.0061 -0.2396
26661W        W69599  28.706  26.114  24.373 -0.1626  0.1041 -0.1991
26662W        W69600  26.832  28.103  19.856 -0.0624  0.3217 -0.1377
26663W        W69601  28.888  27.791  23.193  0.1611  0.2468  0.2179
26664W        W69602  27.380  26.362  21.729  0.0547 -0.0291  0.1638
26665W        W69603  26.618  26.709  20.945 -0.2299  0.0067  0.1606
26666W        W69604  25.539  29.894  23.656  0.1498  0.1986 -0.4064
26667W        W69605  25.947  26.701  19.974 -0.1813 -0.3086 -0.0049
26668W        W69606  27.509  27.384  20.461 -0.1281  0.0045 -0.1645
26669W        W69607  27.416  29.683  21.818 -0.2703 -0.2199  0.0211
26670W        W69608  28.716  28.911  23.788  0.0627  0.0882  0.0587
26671W        W69609  27.453  26.009  20.203  0.0805 -0.0583 -0.1627
26672W        W69610  28.267  26.771  23.869 -0.2273  0.0325  0.1332
26673W        W69611  26.615  30.064  21.798  0.1142  0.1672 -0.0620
26674W        W69612  26.425  25.646  22.951 -0.0474  0.0228 -0.2988
26675W        W69613  26.403  27.726  22.777 -0.1399 -0.3666  0.3007
26676W        W69614  26.091  27.939  21.467  0.1044  0.0879  0.0780
26677W        W69615  25.707  29.090  20.698 -0.5081  0.0690  0.1121
26678W        W69616  27.574  25.940  24.014 -0.0010 -0.1307  0.0792
26679W        W69617  28.430  26.702  23.020  0.0068 -0.2571 -0.2673
26680W        W69618  25.496  27.002  21.685 -0.0657 -0.0324 -0.1546
26681W        W69619  28.148  26.999  23.353 -0.1186  0.1221 -0.2143
26682W        W69620  26.890  29.208  22.361 -0.3960 -0.1134 -0.1353
26683W        W69621  26.529  27.426  22.371  0.2917 -0.0625 -0.1764
26684W        W69622  27.923  29.348  23.965  0.0185 -0.0897  0.1606
26685W        W69623  27.613  27.182  21.752  0.0912 -0.1976  0.2241
26686W        W69624  26.906  29.019  21.157 -0.3583  0.0940 -0.0074
26687W        W69625  24.840  28.441  23.785 -0.0804 -0.1492  0.2502
26688W        W69626  27.458  28.379  22.920 -0.1030  0.0135 -0.1904
26689W        W69627  27.361  29.165  23.269 -0.0022  0.2920 -0.2579
26690W        W69628  27.164  25.737  20.949  0.1533  0.3097 -0.3380
26691W        W69629  27.029  28.502  20.388 -0.1426  0.1259  0.4192
26692W        W69630  26.622  29.193  21.778 -0.0914  0.0525 -0.3570
26693W        W69631  24.809  27.701  22.957  0.1442  0.1198 -0.3096
26694W        W69632  26.143  29.165  20.893 -0.0703  0.0292  0.2829
26695W        W69633  28.016  25.206  20.123 -0.3572  0.0467 -0.0696
26696W        W69634  26.924  26.589  22.694 -0.1389  0.0490 -0.0861
26697W        W69635  27.914  28.583  22.344  0.1620  0.2581 -0.2415
26698W        W69636  26.239  27.371  20.253  0.2398  0.0481 -0.1555
26699W        W69637  25.258  28.630  21.523 -0.3552  0.1960  0.0801
26700W        W69638  25.589  28.792  20.331  0.0758  0.2015 -0.0096
26701W        W69639  27.999  28.153  20.777 -0.3493 -0.2581  0.1250
26702W        W69640  25.307  29.474  21.963  0.5573 -0.1703  0.1188
26703W        W69641  28.735  29.557  24.117  0.1283  0.0557  0.0945
26704W        W69642  28.629  26.266  22.025  0.1077  0.0555  0.2070
26705W        W69643  28.164  27.737  23.013 -0.0432  0.1277 -0.3295
26706W        W69644  27.589  25.691  22.362  0.4319  0.1512 -0.4569
26707W        W69645  27.612  28.146  22.349  0.2146 -0.3375 -0.0553
26708W        W69646  27.011  26.051  20.525  0.3057 -0.0683  0.3028
26709W        W69647  27.665  26.384  19.942 -0.2539 -0.3253  0.2851
26710W        W69648  25.938  28.065  24.147 -0.3019  0.1888 -0.1175
26711W        W69649  27.976  24.381  22.176  0.3603  0.0876  0.2433
26712W        W69650  25.221  28.511  22.727  0.0264  0.2899  0.2518
26713W        W69651  28.521  28.101  20.869  0.1062 -0.1744  0.0362
26714W        W69652  25.856  26.463  20.375  0.1597  0.1366  0.3276
26715W        W69653  26.202  28.046  20.940 -0.1729 -0.0564  0.0167
26716W        W69654  29.074  24.306  22.765 -0.4404  0.0009 -0.0872
26717W        W69655  26.869  26.567  20.441 -0.0253 -0.1593  0.1880
26718W        W69656  27.750  26.405  23.160  0.2583  0.1780  0.0880
26719W        W69657  26.611  30.680  21.179 -0.0588  0.0273 -0.1397
26720W        W69658  26.924  29.746  22.778  0.0838  0.1108 -0.2770
26721W        W69659  28.672  29.046  22.384  0.0312  0.1381 -0.1075
26722W        W69660  26.722  26.450  21.406  0.4025 -0.0450 -0.1445
26723W        W69661  27.939  27.905  21.666 -0.0154  0.3221  0.2638
26724W        W69662  25.754  28.637  23.645 -0.0609 -0.2699 -0.1429
26725W        W69663  27.438  25.496  23.629  0.2551  0.0893 -0.1735
26726W        W69664  26.860  25.378  20.197 -0.1322 -0.0715  0.2101
26727W        W69665  27.539  28.072  21.843 -0.0432  0.3671  0.0162
26728W        W69666  26.696  29.585  22.061 -0.3126 -0.0104 -0.1727
26729W        W69667  24.441  27.160  21.920 -0.0901  0.0601 -0.0818
26730W        W69668  27.297  26.162  21.343 -0.1537  0.2123  0.0159
26731W        W69669  28.430  27.808  23.485 -0.0037  0.0956  0.2011
26732W        W69670  27.842  26.795  20.416  0.1766 -0.1851  0.0536
26733W        W69671  26.913  28.977  23.477 -0.1355 -0.0454 -0.0623
26734W        W69672  25.527  26.123  22.013  0.0635 -0.2214  0.1799
26735W        W69673  26.794  25.487  20.654 -0.2105 -0.4416  0.2094
26736W        W69674  25.204  27.131  24.153 -0.0136  0.1524  0.0073
26737W        W69675  27.246  28.504  22.372  0.0114 -0.0812  0.0485
26738W        W69676  27.077  29.173  25.098 -0.1282  0.2030  0.2106
26739W        W69677  25.682  26.535  21.748 -0.2450 -0.1660  0.4377
26740W        W69678  28.004  27.825  19.619 -0.0349  0.4153  0.1012
26741W        W69679  28.977  25.818  23.227 -0.2935  0.1609  0.1973
26742W        W69680  27.760  29.055  19.146 -0.1413 -0.1433  0.1558
26743W        W69681  27.474  28.111  21.183 -0.1535 -0.1037  0.2422
26744W        W69682  29.761  28.812  22.852  0.0426 -0.0343  0.2479
26745W        W69683  25.702  26.734  22.179 -0.0430 -0.1039 -0.1287
26746W        W69684  29.312  28.350  23.946  0.1095  0.1626 -0.0665
26747W        W69685  29.072  28.017  22.341 -0.0241  0.0413 -0.2872
26748W        W69686  28.038  25.366  21.299 -0.2461 -0.0271  0.0020
26749W        W69687  26.820  24.965  21.502 -0.0667  0.0239 -0.0081
26750W        W69688  26.202  29.748  20.049  0.2705  0.1947  0.0032
26751W        W69689  29.960  27.551  23.286  0.0309 -0.4442  0.1296
26752W        W69690  28.495  25.931  23.543 -0.0062 -0.0820 -0.1323
26753W        W69691  27.023  29.343  19.810 -0.1312  0.0428 -0.2190
26754W        W69692  29.141  26.230  22.366 -0.0969 -0.0698 -0.3572
26755W        W69693  28.581  30.144  21.688  0.0050 -0.3462 -0.0332
26756W        W69694  26.352  30.020  23.448 -0.2625 -0.0920 -0.0508
26757W        W69695  24.579  27.723  19.042  0.1160  0.0473 -0.0393
26758W        W69696  26.591  27.425  23.495  0.1785  0.0540  0.3521
26759W        W69697  26.197  28.915  21.750 -0.0654  0.1491 -0.0835
26760W        W69698  27.621  29.083  21.644 -0.0389 -0.3464 -0.2576
26761W        W69699  27.993  27.592  22.548  0.3554  0.3049 -0.0096
26762W        W69700  27.272  26.704  21.246 -0.0769  0.1530 -0.4542
26763W        W69701  29.876  28.733  21.299  0.1279 -0.0613  0.1797
26764W        W69702  27.399  26.188  20.816 -0.1571  0.0841 -0.1133
26765W        W69703  28.152  26.295  20.752 -0.4440 -0.0114 -0.2283
26766W        W69704  27.497  26.737  22.627  0.2354 -0.1843  0.0269
26767W        W69705  26.239  28.258  23.047  0.2233  0.0096  0.0233
26768W        W69706  24.704  27.644  20.865  0.1372  0.3181  0.2093
26769W        W69707  25.378  28.344  19.585 -0.3464  0.0719 -0.2145
26770W        W69708  25.670  27.828  21.991 -0.1904 -0.1181  0.0045
26771W        W69709  27.866  27.188  23.895  0.2724 -0.0974  0.3007
26772W        W69710  25.618  27.097  23.883  0.0297  0.0463  0.2434
26773W        W69711  25.112  26.738  21.968  0.4028  0.0564  0.0409
26774W        W69712  26.711  25.896  20.903 -0.3044 -0.0299 -0.2498
26775W        W69713  28.085  29.399  19.974 -0.4997 -0.0719  0.3532
26776W        W69714  26.526  28.098  21.635  0.0987 -0.3896  0.2533
26777W        W69715  25.239  25.969  22.428 -0.1884 -0.0363 -0.0366
26778W        W69716  25.747  28.535  19.884 -0.1366  0.0691  0.2246
26779W        W69717  28.916  29.285  21.990 -0.1975 -0.6149  0.0154
26780W        W69718  26.992  24.993  22.516 -0.1033  0.2734 -0.3020
26781W        W69719  29.827  27.636  24.103 -0.1790 -0.3302  0.1251
26782W        W69720  24.951  27.914  20.533 -0.1991 -0.2324  0.1426
26783W        W69721  28.215  27.162  24.299 -0.0843 -0.2006 -0.1196
26784W        W69722  26.102  26.815  24.555  0.1884 -0.0312  0.1172
26785W        W69723  24.734  25.711  19.946 -0.1140 -0.0097 -0.2197
26786W        W69724  26.637  24.440  25.010 -0.1462 -0.1614 -0.1407
26787W        W69725  28.010  29.830  21.457 -0.0934  0.1151  0.0021
26788W        W69726  26.770  28.687  20.845 -0.0776 -0.2918 -0.0423
26789W        W69727  25.766  28.624  24.415  0.3389  0.2049  0.0427
26790W        W69728  26.139  29.723  22.593  0.1330 -0.3426 -0.1774
26791W        W69729  26.592  26.915  24.542 -0.1520 -0.3384  0.0308
26792W        W69730  27.370  28.542  20.907 -0.1143 -0.0160 -0.2555
26793W        W69731  26.717  26.958  22.514 -0.0118 -0.0262  0.2384
26794W        W69732  28.929  28.022  20.572  0.1507  0.1023  0.0066
26795W        W69733  27.784  27.150  22.513 -0.2040  0.2720 -0.2854
26796W        W69734  28.057  27.277  20.488  0.2644 -0.1420  0.0071
26797W        W69735  25.130  26.022  24.075  0.0723  0.1239  0.0664
26798W        W69736  25.260  28.757  24.314  0.0301  0.2488  0.3147
26799W        W69737  28.806  28.829  21.855 -0.2050  0.2072 -0.0912
26800W        W69738  26.074  26.069  23.142 -0.0865  0.1829  0.4708
26801W        W69739  27.266  26.201  23.034  0.2637  0.1914  0.1696
26802W        W69740  28.151  26.889  22.617  0.0050 -0.0604 -0.1978
26803W        W69741  26.549  27.943  22.294 -0.2340  0.0473 -0.3321
26804W        W69742  26.658  25.932  21.439 -0.2481  0.3512 -0.2073
26805W        W69743  28.040  28.345  24.153  0.2814 -0.3121  0.1817
26806W        W69744  27.188  28.866  21.645  0.0330 -0.0023  0.1152
26807W        W69745  28.326  28.916  22.881  0.1064 -0.5156  0.0155
26808W        W69746  25.864  28.146  19.582  0.0153 -0.0955 -0.2430
26809W        W69747  28.773  27.225  21.184 -0.0774  0.0318 -0.1126
26810W        W69748  27.631  28.613  23.805 -0.2755 -0.2276 -0.1314
26811W        W69749  28.653  29.171  25.093 -0.0838  0.2771 -0.3012
26812W        W69750  26.161  29.320  21.393  0.0934  0.0519  0.0643
26813W        W69751  28.654  26.304  22.669  0.0247 -0.0171  0.2465
26814W        W69752  27.472  27.537  22.438  0.0817  0.0092  0.0631
26815W        W69753  27.020  27.334  21.623  0.1491  0.0673  0.0623
26816W        W69754  27.492  29.425  20.793 -0.1179  0.1433  0.0508
26817W        W69755  27.076  27.049  22.913  0.2029 -0.4137 -0.1860
26818W        W69756  26.616  27.250  21.055  0.0538  0.0060 -0.1371
26819W        W69757  27.754  26.701  21.525 -0.1631  0.3831 -0.0800
26820W        W69758  26.535  30.122  22.573 -0.1587  0.0215 -0.2418
26821W        W69759  28.640  29.325  21.358  0.2270  0.1586  0.0827
26822W        W69760  26.247  27.903  27.096 -0.2344 -0.1217  0.1105
26823W        W69761  25.888  25.957  25.274 -0.1096 -0.1216  0.1513
26824W        W69762  30.468  26.113  25.118 -0.1242  0.0278  0.0070
26825W        W69763  27.470  27.261  24.191  0.2664 -0.2103  0.0778
26826W        W69764  24.940  25.896  26.392  0.2542 -0.0155 -0.3416
26827W        W69765  28.857  29.046  25.632 -0.0445 -0.0214  0.1713
26828W        W69766  25.760  24.999  27.636  0.1923  0.0844  0.0258
26829W        W69767  27.354  27.815  26.192 -0.0931  0.0284 -0.2337
26830W        W69768  28.650  28.900  26.118  0.0400  0.1157  0.0021
26831W        W69769  28.750  28.802  23.304  0.1233  0.2553 -0.1101
26832W        W69770  26.105  26.539  26.523  0.0347  0.0746 -0.1216
26833W        W69771  27.103  29.448  27.000 -0.1519  0.0724 -0.0260
26834W        W69772  26.870  25.350  24.954  0.0828 -0.1024 -0.3188
26835W        W69773  25.008  26.465  25.403  0.1745  0.1911  0.0020
26836W        W69774  28.285  27.441  28.718 -0.2768 -0.1566 -0.2378
26837W        W69775  27.575  27.468  22.892  0.0739  0.1509 -0.1108
26838W        W69776  26.994  27.954  28.560  0.0135 -0.1042 -0.0186
26839W        W69777  28.169  27.875  24.463  0.1245 -0.1880 -0.1586
26840W        W69778  27.418  30.076  25.766 -0.1780  0.3501  0.1114
26841W        W69779  26.817  27.364  27.425 -0.0567  0.0662  0.2641
26842W        W69780  27.854  26.253  27.280  0.0568 -0.4405 -0.1337
26843W        W69781  26.115  29.001  22.644 -0.3691  0.0899 -0.0912
26844W        W69782  26.421  26.011  25.290 -0.1075 -0.2792  0.0318
26845W        W69783  24.832  27.720  25.982 -0.3123  0.1132 -0.4739
26846W        W69784  27.328  27.400  26.968 -0.1455 -0.0914  0.1037
26847W        W69785  28.057  26.037  26.825 -0.0458  0.1653 -0.3001
26848W        W69786  27.985  28.290  24.753  0.1849 -0.1958 -0.0139
26849W        W69787  27.437  29.498  24.066  0.2371 -0.0014  0.0648
26850W        W69788  28.383  29.179  24.257 -0.4508  0.0165 -0.0791
26851W        W69789  27.725  27.440  26.288  0.0888  0.0175 -0.0797
26852W        W69790  27.161  28.347  24.652  0.1590 -0.0686  0.1187
26853W        W69791  26.488  28.372  26.425 -0.2260 -0.0467  0.0573
26854W        W69792  27.004  29.167  26.019  0.0188 -0.2080 -0.0599
26855W        W69793  27.792  29.611  24.426 -0.3526  0.1632  0.0618
26856W        W69794  28.417  27.981  26.486  0.0845 -0.3610  0.1682
26857W        W69795  26.569  29.265  28.350  0.1747 -0.0615  0.1466
26858W        W69796  25.964  28.518  25.285 -0.4055 -0.0891 -0.0425
26859W        W69797  27.117  30.318  26.693  0.1461 -0.0445  0.0447
26860W        W69798  27.270  29.071  27.810  0.1048  0.0694 -0.0649
26861W        W69799  27.110  27.763  26.672  0.1609 -0.0444  0.1546
26862W        W69800  28.090  26.736  25.731  0.1874  0.2609  0.2208
26863W        W69801  27.306  29.536  23.557  0.3228  0.0464 -0.2287
26864W        W69802  26.876  26.999  25.350  0.1215  0.0040 -0.1003
26865W        W69803  26.141  29.784  27.792 -0.0661  0.1166  0.2954
26866W        W69804  25.690  28.394  25.680 -0.1638  0.2809 -0.2370
26867W        W69805  29.776  27.319  27.567 -0.0411  0.0969 -0.0955
26868W        W69806  25.742  29.517  23.945 -0.0134  0.1328 -0.2775
26869W        W69807  28.526  25.632  24.454 -0.0394 -0.0557 -0.2314
26870W        W69808  26.901  28.078  23.606  0.0249 -0.1258 -0.1949
26871W        W69809  27.203  25.549  24.133  0.0161 -0.2062  0.0825
26872W        W69810  26.487  26.240  25.737  0.0212 -0.0348  0.1646
26873W        W69811  26.300  29.637  23.855 -0.2126  0.0802  0.0520
26874W        W69812  27.307  26.671  26.588 -0.0333  0.0793  0.1778
26875W        W69813  28.177  27.613  25.564  0.0775  0.2825 -0.0642
26876W        W69814  27.812  27.125  24.714  0.0160  0.0488 -0.1637
26877W        W69815  26.877  27.791  25.856  0.0434 -0.1392  0.0683
26878W        W69816  25.990  29.273  26.056 -0.1764 -0.1608  0.1014
26879W        W69817  26.129  26.412  25.382 -0.2196 -0.0067  0.4329
26880W        W69818  28.803  28.406  23.761  0.0267  0.0388  0.0548
26881W        W69819  28.157  28.850  26.153 -0.2014 -0.0199 -0.0252
26882W        W69820  26.428  29.443  23.384 -0.1174 -0.0457 -0.0270
26883W        W69821  26.427  27.689  24.971  0.0141 -0.3614  0.0510
26884W        W69822  24.783  27.797  26.770  0.0510  0.0230  0.3607
26885W        W69823  25.290  27.812  26.848 -0.2361  0.2041  0.0313
26886W        W69824  27.351  26.608  25.342  0.0337 -0.0104  0.1357
26887W        W69825  28.115  29.217  27.544  0.0620  0.1635 -0.0355
26888W        W69826  25.953  29.665  25.708 -0.1690 -0.2554 -0.4716
26889W        W69827  29.726  26.612  25.627  0.0818  0.2470 -0.0825
26890W        W69828  27.521  28.358  25.029  0.0217  0.2859  0.0259
26891W        W69829  28.968  29.302  26.298 -0.1153 -0.0863  0.3330
26892W        W69830  28.324  30.027  23.273  0.3870 -0.2617 -0.0113
26893W        W69831  28.653  26.680  26.541 -0.2895 -0.0111  0.0527
26894W        W69832  27.573  25.221  27.290  0.0051  0.2043 -0.2279
26895W        W69833  25.945  27.670  24.617  0.1380  0.0880  0.1115
26896W        W69834  27.552  28.143  26.615 -0.0548  0.2877  0.0096
26897W        W69835  27.286  28.337  28.365  0.0848 -0.0916 -0.3511
26898W        W69836  28.838  26.880  23.754 -0.4382  0.3873 -0.3236
26899W        W69837  26.266  28.842  24.434 -0.0040  0.0264 -0.1314
26900W        W69838  26.812  25.971  27.785 -0.0850  0.2977 -0.0802
26901W        W69839  26.682  27.994  27.505 -0.2163  0.1954  0.1705
26902W        W69840  24.625  29.254  23.070 -0.1602  0.2117  0.2280
26903W        W69841  24.807  28.233  25.328 -0.0695  0.0088  0.1542
26904W        W69842  26.385  28.694  24.903 -0.2851 -0.3345  0.3184
26905W        W69843  26.003  26.421  27.621 -0.1911 -0.0213  0.0115
26906W        W69844  25.420  27.282  26.765 -0.0891 -0.0946  0.2759
26907W        W69845  28.523  26.491  24.855  0.3193  0.2651  0.1560
26908W        W69846  25.670  25.509  27.592 -0.1175 -0.1730 -0.0064
26909W        W69847  28.230  26.434  26.599  0.1033  0.0160 -0.0280
26910W        W69848  24.942  28.327  24.820 -0.1298 -0.2117  0.2985
26911W        W69849  29.654  29.537  24.563  0.1391 -0.0332 -0.1185
26912W        W69850  27.772  27.613  24.541  0.0642  0.1558 -0.2496
26913W        W69851  27.328  29.003  23.781  0.0797  0.0706 -0.2286
26914W        W69852  25.857  27.447  26.090  0.0838 -0.1033  0.3005
26915W        W69853  25.741  26.401  25.883  0.1059 -0.0148  0.1896
26916W        W69854  25.909  25.423  28.024  0.1379 -0.0806  0.0436
26917W        W69855  25.667  26.463  26.761 -0.1546  0.0313  0.0755
26918W        W69856  28.283  27.531  27.771  0.2078 -0.2137  0.1600
26919W        W69857  25.321  26.808  23.591  0.2198 -0.0510 -0.2184
26920W        W69858  27.890  26.280  25.647 -0.2168  0.1329 -0.0478
26921W        W69859  27.346  27.564  25.218  0.1977  0.0720  0.1648
26922W        W69860  24.620  27.257  25.924  0.3473  0.1657  0.0226
26923W        W69861  28.992  26.478  28.067 -0.1719  0.1559  0.0614
26924W        W69862  27.856  29.783  25.383 -0.1876 -0.1768  0.3086
26925W        W69863  28.039  28.483  26.976 -0.1899 -0.0561 -0.2462
26926W        W69864  28.152  29.045  25.012 -0.0512 -0.1136 -0.1715
26927W        W69865  26.567  27.049  26.273  0.1390  0.1378 -0.3304
26928W        W69866  27.187  28.033  25.336 -0.4579 -0.1768  0.0761
26929W        W69867  27.247  28.960  26.980  0.4104  0.3328  0.2334
26930W        W69868  27.139  29.030  25.575 -0.1704  0.0886  0.2434
26931W        W69869  26.814  26.058  24.949 -0.0850 -0.1813  0.1511
26932W        W69870  28.961  27.927  25.947 -0.2542 -0.2520 -0.0032
26933W        W69871  26.287  29.271  24.802 -0.5261 -0.1045  0.1438
26934W        W69872  27.011  28.186  26.803 -0.0762  0.0904 -0.1153
26935W        W69873  26.270  27.662  27.509 -0.0082  0.0867 -0.2270
26936W        W69874  28.761  27.171  27.261 -0.0353  0.3280 -0.4002
26937W        W69875  28.105  27.145  26.140 -0.5020 -0.1354  0.2159
26938W        W69876  26.139  26.155  24.878  0.0841  0.1411 -0.2717
26939W        W69877  26.573  30.096  26.511  0.0808 -0.1143 -0.0646
26940W        W69878  26.421  29.793  24.362 -0.0706 -0.0921  0.1796
26941W        W69879  25.629  27.620  24.982  0.0478  0.1792 -0.1194
26942W        W69880  28.060  27.884  25.967  0.2142  0.3093  0.0753
26943W        W69881  28.732  27.341  24.932 -0.2208  0.0176 -0.1561
26944W        W69882  24.660  27.231  27.363  0.0419  0.0473  0.2075
26945W        W69883  27.438  26.401  26.115 -0.2214 -0.2317  0.0289
26946W        W69884  26.271  27.280  24.665 -0.0317  0.1440 -0.2685
26947W        W69885  25.513  28.333  26.675  0.3440  0.1308  0.0434
26948W        W69886  28.370  26.140  25.788  0.1116 -0.1118  0.0908
26949W        W69887  28.200  27.060  25.153  0.0255 -0.0735  0.2610
26950W        W69888  26.619  26.800  27.072  0.0637 -0.0323 -0.2805
26951W        W69889  28.880  27.654  25.572 -0.0928  0.0139 -0.0202
26952W        W69890  26.776  27.582  24.060  0.1327 -0.2881 -0.0301
26953W        W69891  27.801  26.719  23.619 -0.0960  0.0558  0.0941
26954W        W69892  24.672  29.813  26.823  0.2239 -0.1013  0.2471
26955W        W69893  28.080  27.887  25.059  0.0987  0.0738  0.1865
26956W        W69894  27.580  28.699  26.775  0.3090 -0.0684  0.0807
26957W        W69895  27.404  26.692  24.272  0.0298 -0.0214 -0.0436
26958W        W69896  28.155  30.267  25.485  0.1593 -0.0769  0.2078
26959W        W69897  26.013  28.345  26.209  0.1317 -0.0580  0.0594
26960W        W69898  28.410  27.424  26.522 -0.1649 -0.4671 -0.2822
26961W        W69899  28.426  29.410  25.480 -0.0191 -0.1385  0.1150
26962W        W69900  26.209  26.127  26.184  0.0036  0.0235 -0.0707
26963W        W69901  26.793  28.742  22.611  0.0133 -0.1492 -0.4361
26964W        W69902  25.974  26.006  25.752  0.0571 -0.0873 -0.3326
26965W        W69903  25.913  29.613  24.737 -0.3125  0.0165  0.0823
26966W        W69904  28.691  26.687  27.113  0.3275  0.1744  0.1099
26967W        W69905  26.909  26.211  26.365  0.0051 -0.2001  0.3024
26968W        W69906  26.139  26.061  26.734 -0.0485  0.3255 -0.0262
26969W        W69907  28.594  26.883  27.665 -0.0785  0.2181  0.2035
26970W        W69908  27.991  29.181  24.518 -0.0218  0.1073 -0.3582
26971W        W69909  27.558  26.043  26.862  0.0145 -0.1914  0.3536
26972W        W69910  25.732  28.373  23.155 -0.0691  0.0478  0.3209
26973W        W69911  26.361  24.892  26.460 -0.0972 -0.2488 -0.1411
26974W        W69912  26.150  28.269  26.750 -0.0531  0.2001  0.0098
26975W        W69913  26.034  29.252  27.019 -0.1445 -0.0234  0.2634
26976W        W69914  29.120  28.822  26.152 -0.0532 -0.1121 -0.1279
26977W        W69915  27.079  26.861  26.127  0.1690  0.0226 -0.1007
26978W        W69916  27.073  26.347  27.000 -0.0716  0.0075  0.0642
26979W        W69917  27.300  27.417  23.717  0.0817 -0.0451 -0.2131
26980W        W69918  26.959  29.732  24.138  0.1685 -0.1841  0.2874
26981W        W69919  27.354  28.754  24.254  0.2863  0.0977 -0.3189
26982W        W69920  27.504  24.838  26.886  0.1076 -0.0899  0.2752
26983W        W69921  26.701  28.431  25.939  0.2878 -0.1140  0.0322
26984W        W69922  27.678  28.578  21.875 -0.0027 -0.4541  0.1942
26985W        W69923  28.089  28.384  26.010  0.0519  0.0852  0.1702
26986W        W69924  25.806  30.462  24.272 -0.0988 -0.0822  0.1771
26987W        W69925  29.165  26.903  26.431  0.2751  0.2442  0.1428
26988W        W69926  25.177  29.391  25.058  0.2190  0.0633  0.0143
26989W        W69927  26.912  27.151  23.913  0.0099  0.1627  0.1031
26990W        W69928  25.890  26.821  25.391  0.0166 -0.3769  0.0428
26991W        W69929  29.342  26.470  26.259  0.0236  0.2091  0.0098
26992W        W69930  28.196  28.765  24.592 -0.0531 -0.0003  0.3142
26993W        W69931  25.756  26.941  26.685  0.2793  0.3851 -0.2590
26994W        W69932  28.737  25.529  25.439 -0.0290  0.1547  0.1207
26995W        W69933  25.280  29.494  25.658 -0.0248 -0.0796  0.2613
26996W        W69934  28.042  26.762  27.066 -0.1078 -0.2230 -0.2073
26997W        W69935  27.521  26.654  24.809 -0.0266  0.0914  0.3143
26998W        W69936  29.140  29.260  26.806  0.0609 -0.1854  0.0533
26999W        W69937  25.790  27.913  26.873 -0.1160  0.2310 -0.0060
27000W        W69938  26.032  26.756  23.652  0.1642 -0.2093 -0.1393
27001W        W69939  29.587  27.818  27.894 -0.2577  0.3310 -0.3031
27002W        W69940  26.870  27.362  24.909  0.1101 -0.0845  0.1737
27003W        W69941  26.688  29.466  25.002 -0.0420  0.1613  0.1235
27004W        W69942  27.670  30.509  25.487  0.0579  0.1191  0.2715
27005W        W69943  27.319  27.474  24.670 -0.1889 -0.1038  0.3628
27006W        W69944  26.363  27.766  24.374 -0.0304 -0.0549  0.1363
27007W        W69945  25.812  27.628  27.677  0.1864 -0.2743  0.3101
27008W        W69946  28.578  28.518  25.723 -0.1073  0.0326 -0.0001
27009W        W69947  26.226  28.106  25.242 -0.2301  0.3336 -0.2164
27010W        W69948  25.894  28.225  24.890 -0.0250  0.4303  0.2821
27011W        W69949  26.701  26.752  25.812 -0.0434 -0.1985  0.1465
27012W        W69950  27.901  28.750  25.715  0.1279  0.1006 -0.1077
27013W        W69951  26.488  27.621  27.920 -0.0903 -0.0140 -0.1513
27014W        W69952  26.599  28.934  25.791  0.4248 -0.0916  0.0464
27015W        W69953  27.125  25.639  27.180 -0.0777 -0.0420 -0.0215
27016W        W69954  28.684  30.677  25.971  0.0074  0.2878  0.1386
27017W        W69955  27.554  26.769  25.783 -0.0560  0.1165 -0.0675
27018W        W69956  26.791  28.578  24.338  0.0463  0.1813  0.2468
27019W        W69957  24.100  28.616  25.263 -0.2435 -0.3666 -0.0896
27020W        W69958  26.398  27.868  23.798  0.0349  0.0627  0.1030
27021W        W69959  27.385  26.597  27.306 -0.1786 -0.0277  0.0784
27022W        W69960  27.196  28.183  25.865  0.0578  0.1317 -0.0940
27023W        W69961  25.959  29.675  23.400 -0.0469 -0.4467  0.0505
27024W        W69962  25.270  28.002  25.735 -0.0431  0.0321 -0.1911
27025W        W69963  28.351  25.879  25.361  0.2005  0.0716 -0.1861
27026W        W69964  26.996  27.817  24.927 -0.2774 -0.1419  0.0590
27027W        W69965  27.322  27.184  25.559 -0.1217  0.0113  0.1956
27028W        W69966  28.977  26.277  27.179 -0.2938  0.1328  0.0463
27029W        W69967  27.077  28.581  23.659 -0.1097 -0.1392  0.0205
27030W        W69968  27.668  25.662  27.081 -0.2808  0.1107 -0.1336
27031W        W69969  25.878  26.042  27.221 -0.1363  0.3472 -0.2908
27032W        W69970  29.533  29.530  25.160  0.1318  0.1037  0.3049
27033W        W69971  26.057  26.802  27.199  0.2442  0.2241 -0.1020
27034W        W69972  26.473  28.531  27.380  0.1012  0.2114  0.0148
27035W        W69973  25.725  27.941  25.367  0.0432 -0.0386 -0.0230
27036W        W69974  27.811  27.459  25.182  0.0988  0.0927  0.1505
27037W        W69975  27.513  26.063  25.390  0.1599 -0.0560  0.1802
27038W        W69976  25.554  27.638  26.406 -0.0897 -0.1620 -0.1624
27039W        W69977  28.528  29.538  24.712 -0.2206  0.1538 -0.1068
27040W        W69978  26.965  29.054  24.132 -0.0059  0.0190 -0.0329
27041W        W69979  28.226  27.456  24.824 -0.2679  0.2658  0.0644
27042W        W69980  26.432  27.993  26.111 -0.2407 -0.0441 -0.0181
27043W        W69981  28.981  25.934  27.975  0.2292  0.1023  0.0692
27044W        W69982  26.626  28.792  23.852 -0.0592  0.2979  0.3030
27045W        W69983  28.788  28.131  25.431  0.0373  0.1311 -0.0229
27046W        W69984  24.940  24.464  27.416 -0.0493 -0.0539  0.0831
27047W        W69985  27.806  29.132  26.382 -0.0758  0.0702 -0.2349
27048W        W69986  27.219  25.563  25.586  0.0505 -0.1330  0.0217
27049W        W69987  28.257  27.222  27.332  0.0345 -0.2774  0.4628
27050W        W69988  27.747  27.895  27.008 -0.0338  0.2692 -0.0678
27051W        W69989  28.235  27.996  26.952 -0.1486  0.2268 -0.0998
27052W        W69990  24.542  25.623  28.380 -0.1259 -0.3324 -0.1685
27053W        W69991  29.065  29.802  27.192  0.0669 -0.3052  0.2894
27054W        W69992  28.865  27.366  23.544  0.0567  0.1868 -0.1237
27055W        W69993  29.116  26.770  27.684  0.4674 -0.2015 -0.0667
27056W        W69994  29.687  27.187  25.757 -0.0282 -0.0029 -0.1458
27057W        W69995  27.551  29.332  24.905 -0.0702 -0.0162  0.4489
27058W        W69996  26.161  26.674  25.940  0.1789 -0.2016 -0.0754
27059W        W69997  27.671  26.971  29.128 -0.2805 -0.2537 -0.1890
27060W        W69998  27.189  28.220  24.110 -0.2791 -0.2326 -0.2613
27061W        W69999  26.445  27.153  27.668 -0.0261  0.4135 -0.0824
27062W        W70000  26.847  29.804  23.509  0.2050 -0.1451  0.2191
27063W        W70001  28.217  28.168  25.509  0.2638  0.1217  0.1218
27064W        W70002  26.774  25.656  25.325 -0.3178 -0.2602 -0.2490
27065W        W70003  25.634  27.456  25.567 -0.1015 -0.3395 -0.0301
27066W        W70004  25.430  29.249  26.950  0.2469  0.1041 -0.1192
27067W        W70005  27.259  27.885  22.888  0.0516  0.2527  0.3339
27068W        W70006  26.659  28.478  23.065 -0.2538 -0.2151 -0.0430
27069W        W70007  26.562  28.261  26.989 -0.0070  0.2003 -0.0937
27070W        W70008  28.749  27.738  28.486  0.0702  0.0321  0.2771
27071W        W70009  28.322  25.323  25.209 -0.0236  0.3558 -0.0965
27072W        W70010  29.296  27.129  27.348  0.0912 -0.0891  0.4692
27073W        W70011  25.502  28.359  26.144  0.1538 -0.0034 -0.1282
27074W        W70012  27.907  26.316  26.119 -0.2116 -0.1432 -0.2293
27075W        W70013  27.831  31.049  25.802  0.1062  0.2640  0.2176
27076W        W70014  25.789  29.191  26.601  0.0921  0.1268 -0.0651
27077W        W70015  26.396  28.828  23.447 -0.0450  0.2750 -0.0021
27078W        W70016  26.254  26.955  26.768 -0.3811 -0.1774 -0.1208
27079W        W70017  27.768  26.501  26.759  0.1526  0.1157 -0.1501
27080W        W70018  27.710  26.843  26.299  0.3187 -0.1918 -0.1375
27081W        W70019  28.681  27.727  27.348  0.4913 -0.1048 -0.0358
27082W        W70020  27.258  27.845  27.143 -0.1880  0.1760  0.1020
27083W        W70021  26.192  28.221  25.704 -0.0844  0.1101 -0.0856
27084W        W70022  27.064  27.688  27.777 -0.3303  0.0817  0.0845
27085W        W70023  27.750  26.895  25.339  0.3042  0.1111  0.0957
27086W        W70024  25.822  27.905  25.837  0.0488  0.1541  0.2225
27087W        W70025  24.855  27.675  27.330 -0.0920  0.0741  0.1342
27088W        W70026  27.359  27.701  25.705 -0.1299  0.1001  0.1590
27089W        W70027  27.348  27.271  26.026 -0.0568  0.0958 -0.1112
27090W        W70028  27.324  25.981  26.401 -0.0567 -0.0099 -0.3230
27091W        W70029  27.603  28.288  24.388 -0.1110 -0.0523  0.2295
27092W        W70030  24.057  28.366  27.586  0.2262  0.0246 -0.1521
27093W        W70031  25.277  28.493  28.207  0.1153  0.1721  0.2268
27094W        W70032  25.596  30.054  24.577  0.3504  0.1568  0.2233
27095W        W70033  28.721  28.708  24.685  0.1558  0.0352  0.2931
27096W        W70034  27.505  27.763  24.051  0.2722 -0.0482  0.1550
27097W        W70035  28.477  30.211  25.929 -0.0105  0.1247 -0.2778
27098W        W70036  26.859  26.517  25.358 -0.1179 -0.2539  0.1100
27099W        W70037  25.704  29.243  25.116  0.0461 -0.1428 -0.0561
27100W        W70038  25.277  27.949  24.824 -0.1101 -0.2500 -0.1178
27101W        W70039  27.632  29.872  24.850  0.0281  0.1454 -0.4578
27102W        W70040  25.921  28.885  24.859  0.0082  0.3834 -0.1133
27103W        W70041  27.809  29.716  27.125 -0.0742  0.3058 -0.1052
27104W        W70042  28.192  26.330  24.494  0.2093  0.0475  0.2401
27105W        W70043  28.404  27.153  25.688 -0.1562 -0.4973 -0.0777
27106W        W70044  30.138  25.938  26.377 -0.1529 -0.2934 -0.0767
27107W        W70045  27.498  29.589  25.744  0.0313 -0.1490 -0.1775
27108W        W70046  26.781  26.759  26.580 -0.2076 -0.0309 -0.1255
27109W        W70047  27.812  26.419  24.004  0.0755 -0.0172  0.0252
27110W        W70048  25.626  27.067  27.168  0.1677  0.1173  0.1884
27111W        W70049  29.119  26.008  26.746 -0.2459  0.2093  0.0709
27112W        W70050  25.574  30.145  26.061  0.0235  0.2536  0.2151
27113W        W70051  28.992  30.196  25.182  0.0682  0.2683  0.0641
27114W        W70052  26.866  27.580  25.396 -0.0696 -0.0759  0.0269
27115W        W70053  27.949  27.800  26.514 -0.2398  0.1046  0.1322
27116W        W70054  28.361  26.094  26.310 -0.1667 -0.3268  0.2542
27117W        W70055  25.426  28.221  23.524 -0.0040  0.0838 -0.2910
27118W        W70056  26.387  25.691  24.907  0.3490  0.0749  0.1279
27119W        W70057  26.979  29.832  26.006  0.0027 -0.1594 -0.2151
27120W        W70058  26.141  28.771  25.673 -0.3192  0.2354 -0.3109
27121W        W70059  26.761  31.242  26.039 -0.0878 -0.0808  0.0554
27122W        W70060  26.904  25.269  24.387  0.5959  0.1598  0.2720
27123W        W70061  27.722  28.698  24.627 -0.0037  0.0696 -0.1723
27124W        W70062  26.728  27.337  26.830  0.0520  0.0067 -0.1562
27125W        W70063  28.365  26.331  27.260  0.0934 -0.0584  0.2452
27126W        W70064  27.913  27.222  25.690  0.4689  0.0253 -0.1330
27127W        W70065  28.565  27.560  24.311  0.1671  0.1973 -0.0191
27128W        W70066  27.036  26.346  25.860 -0.0772  0.1871 -0.0533
27129W        W70067  24.823  28.266  25.889  0.0975  0.4309  0.0454
27130W        W70068  27.689  27.885  25.366 -0.2325 -0.1504 -0.3430
27131W        W70069  27.624  28.185  26.117  0.2882  0.1964 -0.1153
27132W        W70070  27.382  28.970  22.149 -0.0766 -0.1708 -0.0149
27133W        W70071  28.401  29.825  26.221 -0.0629 -0.3812 -0.0243
27134W        W70072  25.058  27.018  26.029 -0.1301  0.1973  0.0744
27135W        W70073  27.984  26.753  24.371  0.2580  0.1801  0.1251
27136W        W70074  27.130  27.015  24.503 -0.0060 -0.1789  0.1231
27137W        W70075  25.149  28.111  27.239 -0.2948  0.1185  0.0099
27138W        W70076  29.254  28.305  27.642 -0.0555  0.1264 -0.0483
27139W        W70077  25.302  25.678  26.184  0.1434 -0.1954  0.4276
27140W        W70078  28.245  29.041  23.778  0.2322  0.2002 -0.1001
27141W        W70079  29.335  26.940  25.988  0.2989  0.0874 -0.0777
27142W        W70080  26.585  29.030  22.940  0.1865 -0.0222  0.2245
27143W        W70081  28.018  28.601  25.190 -0.2162  0.1636  0.1615
27144W        W70082  28.909  29.809  26.028 -0.3051  0.6209 -0.2600
27145W        W70083  25.732  26.912  25.832 -0.2007  0.0790  0.2564
27146W        W70084  27.657  28.630  26.273 -0.0764 -0.0459  0.0897
27147W        W70085  27.266  28.968  26.378  0.1055 -0.3900  0.0423
27148W        W70086  26.497  25.743  25.856 -0.1680 -0.0909  0.1102
27149W        W70087  26.031  26.966  26.301 -0.2202  0.2144  0.1595
27150W        W70088  25.591  29.675  25.224  0.0390  0.0298 -0.1105
27151W        W70089  28.796  26.289  26.169 -0.0519 -0.1344  0.1524
27152W        W70090  27.431  26.887  27.883 -0.1090 -0.0749  0.1030
27153W        W70091  28.212  28.071  22.606  0.2521  0.1724  0.0746
27154W        W70092  26.997  24.729  28.027 -0.1681  0.1894 -0.3195
27155W        W70093  27.965  28.297  26.487  0.0089  0.1811 -0.0700
27156W        W70094  26.288  28.778  26.993  0.2531 -0.0218  0.0067
27157W        W70095  25.905  28.925  24.060 -0.4388  0.0533 -0.0398
27158W        W70096  26.892  28.117  28.073  0.0436 -0.5704 -0.0589
27159W        W70097  27.458  27.937  24.809 -0.2820 -0.0339  0.1753
27160W        W70098  27.318  28.781  24.901  0.0217  0.0796  0.1299
27161W        W70099  29.797  29.106  25.398 -0.2764 -0.0148  0.0763
27162W        W70100  27.684  25.895  24.958 -0.0350  0.0580  0.4006
27163W        W70101  29.494  27.953  25.947  0.0709 -0.2402 -0.1226
27164W        W70102  26.805  25.348  25.786 -0.1036  0.0880  0.1040
27165W        W70103  30.193  24.641  25.622 -0.0157  0.0478 -0.1499
27166W        W70104  29.033  25.461  26.006 -0.1767 -0.2023  0.1707
27167W        W70105  27.217  28.488  26.427 -0.0660 -0.2238 -0.1556
27168W        W70106  25.362  28.268  25.203 -0.0207  0.0092 -0.1017
27169W        W70107  26.562  28.290  23.994 -0.1474 -0.3280  0.0944
27170W        W70108  25.032  28.266  26.764  0.1538 -0.1345 -0.1938
27171W        W70109  28.475  27.048  26.867 -0.1658 -0.2501  0.0592
27172W        W70110  25.310  27.479  26.013  0.0244  0.3508  0.0648
27173W        W70111  26.662  28.091  25.454 -0.0054  0.0949  0.0872
27174W        W70112  25.442  25.998  25.759 -0.2191  0.0738 -0.2350
27175W        W70113  29.347  28.085  26.458 -0.1391  0.1620 -0.1380
27176W        W70114  26.102  25.674  26.348 -0.2696  0.1651  0.4894
27177W        W70115  26.394  27.685  25.646  0.1598  0.0214 -0.0144
27178W        W70116  27.567  28.801  25.396  0.0253 -0.1319 -0.3418
27179W        W70117  27.498  29.184  24.458 -0.1939  0.0296  0.2898
27180W        W70118  26.965  25.815  26.005  0.0333 -0.0271 -0.2690
27181W        W70119  29.036  28.845  27.846 -0.0203  0.0253  0.2924
27182W        W70120  26.650  28.240  24.996 -0.1076 -0.0336 -0.1905
27183W        W70121  27.232  27.388  28.524 -0.1714  0.3348  0.0708
27184W        W70122  25.970  27.170  27.541 -0.2068  0.0773  0.0174
27185W        W70123  25.131  25.773  23.367  0.0230  0.1626  0.5576
27186W        W70124  28.132  26.940  26.562  0.1068 -0.2854  0.0260
27187W        W70125  27.120  29.480  24.678  0.2134  0.2178  0.1897
27188W        W70126  28.418  28.607  24.063  0.0922 -0.0093  0.0760
27189W        W70127  26.938  29.268  26.548 -0.1103 -0.1887 -0.1658
27190W        W70128  26.750  29.910  27.083  0.2708 -0.1066 -0.1611
27191W        W70129  26.411  25.944  28.127 -0.0026  0.2619  0.0743
27192W        W70130  28.773  26.842  24.641 -0.0702  0.4027  0.1464
27193W        W70131  26.394  29.075  25.231  0.0909 -0.1811  0.1175
27194W        W70132  27.860  29.897  24.041  0.1500  0.1441  0.2808
27195W        W70133  28.760  27.391  27.727 -0.2458 -0.2653 -0.3616
27196W        W70134  27.349  27.090  25.003  0.0390 -0.0237  0.0349
27197W        W70135  25.855  25.133  28.743 -0.1127 -0.1823 -0.0498
27198W        W70136  26.964  28.099  26.311  0.0270 -0.0474  0.0989
27199W        W70137  26.334  27.488  26.135 -0.2050 -0.0476  0.0136
27200W        W70138  28.706  26.886  25.175  0.3258  0.4253  0.2059
27201W        W70139  28.348  26.450  25.411 -0.3240 -0.0680 -0.0354
27202W        W70140  26.842  29.036  24.631 -0.0291 -0.0196 -0.2422
27203W        W70141  26.395  26.795  25.470 -0.3199  0.2775 -0.2647
27204W        W70142  28.087  27.637  24.043  0.4388  0.0438  0.0233
27205W        W70143  26.046  27.840  26.370  0.1860 -0.2400 -0.0315
27206W        W70144  27.799  29.246  25.380 -0.3394 -0.2392  0.1128
27207W        W70145  28.354  29.192  26.461  0.0149 -0.0560 -0.1374
27208W        W70146  27.001  26.754  24.923  0.1259 -0.0228  0.0422
27209W        W70147  29.088  27.165  25.551 -0.1814  0.1776 -0.1609
27210W        W70148  28.142  29.581  26.595  0.0037  0.3457 -0.0407
27211W        W70149  30.033  28.592  28.878 -0.2009 -0.2153 -0.0739
27212W        W70150  28.713  29.957  25.528  0.3299  0.0473  0.1137
27213W        W70151  28.510  28.071  25.918 -0.1260  0.1013  0.4838
27214W        W70152  26.085  27.449  26.635  0.1655  0.4303 -0.2223
27215W        W70153  27.591  28.369  25.593 -0.1740  0.1743  0.0753
27216W        W70154  26.783  27.301  25.819  0.1154 -0.0785 -0.0575
27217W        W70155  28.769  26.247  25.396 -0.0313  0.1728  0.0583
27218W        W70156  27.044  26.026  25.480 -0.0732 -0.2227  0.1319
27219W        W70157  27.847  25.412  24.989  0.1333 -0.2256  0.1116
27220W        W70158  26.069  30.135  25.949 -0.1872 -0.0816 -0.1922
27221W        W70159  26.843  27.493  26.340 -0.1825  0.2723 -0.1291
27222W        W70160  27.333  27.256  29.588 -0.0818 -0.1648 -0.0977
27223W        W70161  25.090  28.329  29.150  0.0507  0.2435  0.1286
27224W        W70162  27.524  26.497  28.214 -0.0050 -0.1576 -0.4531
27225W        W70163  30.444  28.216  28.919 -0.2110 -0.0522  0.0432
27226W        W70164  27.500  25.895  30.020 -0.1288 -0.0405 -0.3798
27227W        W70165  26.633  29.046  29.223  0.3744 -0.2086 -0.0405
27228W        W70166  26.062  24.697  30.805 -0.1409 -0.0022  0.1533
27229W        W70167  24.875  27.287  27.766  0.0460  0.1294 -0.2351
27230W        W70168  28.595  28.524  31.018 -0.0885  0.1623 -0.0833
27231W        W70169  27.118  26.877  27.009 -0.1408 -0.1771  0.2032
27232W        W70170  26.874  25.779  30.786  0.1726  0.0308 -0.0446
27233W        W70171  26.798  28.084  29.716 -0.2041  0.0848 -0.2536
27234W        W70172  27.654  25.383  27.772  0.1694 -0.2319  0.0299
27235W        W70173  24.337  25.398  30.756  0.1208 -0.3237 -0.0150
27236W        W70174  29.133  28.144  28.646  0.0655  0.0165 -0.0066
27237W        W70175  25.027  28.424  28.634  0.0070 -0.1878  0.2091
27238W        W70176  26.329  25.741  30.547  0.1535  0.1031 -0.1172
27239W        W70177  27.211  26.291  27.744  0.3829  0.0683  0.1704
27240W        W70178  26.456  26.844  29.218  0.0171  0.2848  0.1671
27241W        W70179  26.366  26.350  30.072  0.2017  0.3734  0.0808
27242W        W70180  26.440  25.463  29.631 -0.5607  0.2450 -0.0968
27243W        W70181  27.142  28.561  27.897 -0.1645  0.1652  0.0713
27244W        W70182  24.491  27.002  27.777  0.0733  0.0939 -0.0574
27245W        W70183  26.343  27.219  29.982  0.0615 -0.1377 -0.0444
27246W        W70184  26.024  27.119  31.285 -0.0369  0.0519  0.0454
27247W        W70185  26.685  25.841  30.020 -0.1511 -0.2451  0.0216
27248W        W70186  28.299  29.124  30.573  0.2901  0.1393 -0.0116
27249W        W70187  25.075  27.992  29.576 -0.3327 -0.2571  0.0843
27250W        W70188  26.767  28.571  29.449 -0.1428  0.1247  0.0227
27251W        W70189  26.310  28.736  30.496  0.1730  0.1015 -0.2358
27252W        W70190  25.087  26.714  29.347 -0.1850  0.1557 -0.0487
27253W        W70191  24.801  30.298  28.235 -0.1862  0.1602  0.0825
27254W        W70192  25.576  27.959  28.051  0.1601  0.0508 -0.0900
27255W        W70193  30.186  29.224  29.339 -0.1297  0.3139 -0.2293
27256W        W70194  28.270  29.162  29.770  0.3454 -0.1538  0.0815
27257W        W70195  25.666  28.865  29.423  0.2480 -0.2369  0.0262
27258W        W70196  25.403  29.359  27.493 -0.0318 -0.0391 -0.0768
27259W        W70197  27.003  28.043  30.759 -0.1277 -0.2659 -0.1166
27260W        W70198  25.728  27.518  29.439  0.1237  0.0855 -0.1395
27261W        W70199  27.680  28.607  29.241 -0.2829  0.0028  0.1272
27262W        W70200  26.754  27.462  29.010  0.0381  0.1097  0.2203
27263W        W70201  24.968  28.968  28.288 -0.2342  0.0710 -0.2132
27264W        W70202  27.456  27.399  27.967 -0.1586 -0.0067  0.0900
27265W        W70203  26.135  28.367  28.374  0.0248  0.2074 -0.3231
27266W        W70204  24.686  27.656  29.930 -0.5037  0.3769 -0.3391
27267W        W70205  29.436  26.962  29.847  0.2450  0.0055 -0.1678
27268W        W70206  26.002  29.319  27.606  0.0537  0.2662  0.3257
27269W        W70207  27.992  27.478  28.277 -0.4646 -0.0222  0.2180
27270W        W70208  26.372  27.233  27.187 -0.1118  0.1421  0.1249
27271W        W70209  29.577  26.691  28.013  0.1811  0.0978  0.0293
27272W        W70210  28.833  24.677  30.817 -0.1329 -0.0327  0.1951
27273W        W70211  25.822  27.515  28.917  0.3980 -0.1585 -0.1864
27274W        W70212  25.618  27.511  28.300 -0.1081 -0.0625 -0.2392
27275W        W70213  28.212  28.534  31.699  0.1517 -0.0812  0.2082
27276W        W70214  26.992  27.167  27.905  0.0891 -0.2229 -0.2303
27277W        W70215  27.850  27.253  29.745 -0.0365 -0.3287 -0.2680
27278W        W70216  25.719  30.258  29.036 -0.2353 -0.0974 -0.0238
27279W        W70217  25.103  25.990  30.145  0.1358  0.1511  0.0315
27280W        W70218  28.613  27.933  27.905 -0.1415  0.0408 -0.2192
27281W        W70219  29.202  27.644  27.567  0.0160  0.2244  0.0191
27282W        W70220  27.789  28.261  27.427 -0.2305  0.1914  0.3092
27283W        W70221  26.316  26.087  27.508 -0.0065  0.0298 -0.1387
27284W        W70222  24.541  27.019  30.639 -0.1627 -0.0321  0.0370
27285W        W70223  25.583  25.563  30.660  0.0808  0.1808 -0.0620
27286W        W70224  25.649  26.553  27.266 -0.3900  0.2055 -0.2725
27287W        W70225  28.316  29.020   0.048  0.1325  0.1321  0.1235
27288W        W70226  23.875  29.357  29.932 -0.1145 -0.1426 -0.2593
27289W        W70227  29.339  27.072  28.337  0.2512 -0.0978 -0.4020
27290W        W70228  26.323  28.155  29.261  0.2741 -0.2946 -0.0216
27291W        W70229  27.543  27.719  29.617  0.1713 -0.2474  0.0876
27292W        W70230  29.150  27.891  28.083 -0.1695  0.0926  0.0337
27293W        W70231  27.918  23.377  30.308 -0.1130  0.0908 -0.0052
27294W        W70232  27.721  26.818  30.417  0.1449 -0.1954 -0.0340
27295W        W70233  25.376  27.457  27.252  0.3077 -0.2398  0.0825
27296W        W70234  26.531  27.780  26.563 -0.3765 -0.0192 -0.4278
27297W        W70235  28.639  29.024  30.941  0.2716 -0.2087 -0.0454
27298W        W70236  30.077  27.270  28.054 -0.0376 -0.1572  0.1794
27299W        W70237  24.934  28.779  29.087  0.0751  0.4145 -0.0532
27300W        W70238  26.465  26.374  29.558  0.0669  0.3171 -0.3040
27301W        W70239  26.084  28.565  30.053  0.0850  0.2484  0.0870
27302W        W70240  25.621  28.926  27.625 -0.1848 -0.1115 -0.1786
27303W        W70241  27.176  27.852  29.931 -0.2118  0.0560 -0.3555
27304W        W70242  25.293  27.372  28.993  0.2846 -0.3441 -0.1611
27305W        W70243  24.789  25.213   1.019 -0.1156  0.1067  0.0738
27306W        W70244  27.434  28.743  29.860 -0.3226  0.2057 -0.1469
27307W        W70245  28.554  26.010  29.008 -0.1676 -0.0309  0.1496
27308W        W70246  26.487  26.366  31.633 -0.4577  0.2484  0.3025
27309W        W70247  28.607  27.414  29.222  0.1777 -0.3158  0.0027
27310W        W70248  25.574  28.302  27.710  0.3198  0.1246 -0.3367
27311W        W70249  27.555  27.756  28.345 -0.5058 -0.1926  0.1629
27312W        W70250  29.987  27.943  28.764  0.3359  0.0609 -0.0887
27313W        W70251  27.460  28.313  27.077  0.0899 -0.0362  0.1507
27314W        W70252  25.630  27.096  28.733 -0.0484  0.1358  0.1869
27315W        W70253  25.991  26.766  28.433 -0.2525 -0.0873 -0.0378
27316W        W70254  28.109  26.001  31.414  0.2055  0.1072  0.0094
27317W        W70255  26.001  25.650  30.993  0.0605 -0.2024  0.1424
27318W        W70256  28.534  27.667   0.125 -0.1784 -0.2388 -0.0842
27319W        W70257  26.838  26.662  28.871  0.0938  0.1288  0.1388
27320W        W70258  27.840  27.266  27.727 -0.2069  0.0265  0.4262
27321W        W70259  26.733  27.527  28.494 -0.0750 -0.2075 -0.0082
27322W        W70260  24.609  28.133  27.397 -0.0122  0.2618 -0.1670
27323W        W70261  28.437  26.891  31.858 -0.1247 -0.1554 -0.3407
27324W        W70262  27.212  30.179  28.366  0.1541 -0.1915  0.0828
27325W        W70263  28.570  30.044  30.937 -0.0201 -0.0311 -0.2296
27326W        W70264  25.743  29.220  28.939 -0.2618  0.1760 -0.1589
27327W        W70265  25.947  24.759  29.883  0.0983  0.1767 -0.0485
27328W        W70266  26.109  27.735  28.350  0.3109 -0.0476 -0.2442
27329W        W70267  25.652  29.770  28.923  0.0294 -0.0790  0.1199
27330W        W70268  28.080  27.295  29.191  0.0249 -0.1190  0.1397
27331W        W70269  26.254  25.280  30.101  0.0250 -0.0595 -0.1265
27332W        W70270  27.961  28.498  29.820  0.2895  0.1114  0.0974
27333W        W70271  26.046  28.747  27.429 -0.0259  0.1541 -0.0830
27334W        W70272  25.846  28.006  29.489  0.0956 -0.1756 -0.0543
27335W        W70273  28.291  26.241  29.966  0.0844  0.1000  0.1405
27336W        W70274  27.981  28.093  31.012 -0.0066  0.0728  0.1330
27337W        W70275  27.945  26.495  29.042 -0.0447 -0.0720  0.0182
27338W        W70276  24.397  27.490  27.901  0.1092  0.2261  0.1447
27339W        W70277  26.314  27.548  28.918 -0.2189 -0.1625 -0.1841
27340W        W70278  23.551  29.646  28.805  0.0049  0.0522  0.0085
27341W        W70279  24.724  27.204  29.626 -0.0900 -0.1413  0.0399
27342W        W70280  26.096  27.987  28.768 -0.1055 -0.1687 -0.0488
27343W        W70281  27.927  25.501  29.042  0.0522 -0.1253 -0.0207
27344W        W70282  25.589  26.449  31.891  0.3280 -0.1344  0.0708
27345W        W70283  28.350  27.231  29.622 -0.0899 -0.0853  0.1627
27346W        W70284  26.410  26.666  27.577 -0.0736  0.0939 -0.0007
27347W        W70285  26.043  28.472  29.518 -0.1052 -0.1907 -0.1158
27348W        W70286  28.931  26.289  29.168 -0.0661 -0.4075 -0.1139
27349W        W70287  29.922  26.826  29.275 -0.0986  0.1249 -0.1184
27350W        W70288  27.121  28.493  30.770 -0.0967 -0.1569  0.3682
27351W        W70289  27.719  28.466  27.810 -0.1527  0.1244 -0.1004
27352W        W70290  29.303  27.193  27.838 -0.2112  0.1660  0.0890
27353W        W70291  27.843  27.973  27.834 -0.3182  0.0269  0.2666
27354W        W70292  25.427  27.869  29.903 -0.2608 -0.3433 -0.1663
27355W        W70293  27.385  28.036  28.014 -0.0263  0.0316  0.0763
27356W        W70294  26.421  30.435  29.408  0.1088  0.1423  0.0595
27357W        W70295  28.304  26.429  28.678  0.2427  0.0318  0.1968
27358W        W70296  28.444  28.785  27.854 -0.1053  0.1089 -0.1021
27359W        W70297  24.221  29.031  29.789  0.0829  0.0145 -0.2089
27360W        W70298  27.204  30.424  29.990 -0.3207  0.1872  0.2138
27361W        W70299  26.121  29.068  29.306 -0.1180  0.1931 -0.2209
27362W        W70300  26.282  25.149  29.023  0.1884  0.1663 -0.2392
27363W        W70301  25.094  28.153  27.877  0.0409  0.3921  0.2050
27364W        W70302  26.795  25.123  29.882  0.0253  0.0969 -0.2493
27365W        W70303  25.081  29.026  27.291  0.0381  0.1254 -0.2564
27366W        W70304  26.218  25.874  29.935 -0.5250  0.3311 -0.1571
27367W        W70305  27.188  24.943  29.473 -0.1594 -0.1123  0.1012
27368W        W70306  26.973  26.714  30.498  0.1458 -0.1225 -0.2021
27369W        W70307  28.556  28.243   0.122  0.3534  0.0331 -0.2242
27370W        W70308  28.774  27.248  28.709  0.1757 -0.2671  0.1659
27371W        W70309  27.930  27.755  29.959  0.1408  0.1089  0.0899
27372W        W70310  26.126  27.259  28.550 -0.0738  0.0209  0.4005
27373W        W70311  27.142  25.411  30.576 -0.0187  0.0509  0.2010
27374W        W70312  25.140  25.801  31.242 -0.1338 -0.0839  0.1554
27375W        W70313  26.353  29.431  29.541 -0.1223 -0.0018  0.2053
27376W        W70314  26.472  28.979  31.143 -0.2879 -0.0331  0.0038
27377W        W70315  27.859  27.672  28.846 -0.3102  0.0817  0.1101
27378W        W70316  28.303  26.487  31.353 -0.1012 -0.1453 -0.0777
27379W        W70317  26.556  26.443  28.473 -0.0478 -0.1532 -0.1066
27380W        W70318  26.641  29.216  26.877 -0.1711  0.4582  0.0463
27381W        W70319  25.496  28.648  28.982 -0.2064  0.1501 -0.0599
27382W        W70320  28.294  25.517  28.644  0.0899 -0.0731 -0.2270
27383W        W70321  25.694  29.348  29.471  0.4485 -0.1154  0.1688
27384W        W70322  25.716  30.125  27.851  0.1199 -0.0047  0.1158
27385W        W70323  27.591  29.065  29.120 -0.2533  0.0475 -0.1604
27386W        W70324  25.286  29.389  28.418 -0.0896  0.0788  0.0618
27387W        W70325  28.011  26.876  30.016 -0.0169  0.1852 -0.1191
27388W        W70326  24.884  30.536  27.425 -0.2289 -0.0966 -0.2330
27389W        W70327  24.657  26.632  28.107 -0.1411 -0.1481 -0.0530
27390W        W70328  24.320  26.949  28.273  0.0121 -0.3709  0.0336
27391W        W70329  29.025  24.826  29.838  0.1813 -0.0596 -0.0409
27392W        W70330  28.470  28.164  27.387 -0.2462  0.1436 -0.0499
27393W        W70331  27.137  25.908  30.388  0.0522 -0.0041  0.0378
27394W        W70332  25.856  25.695  30.286  0.0110 -0.1588  0.1821
27395W        W70333  25.303  29.162  29.203 -0.0498 -0.0855 -0.2778
27396W        W70334  26.941  28.078  29.272  0.0566 -0.0674  0.4938
27397W        W70335  27.801  27.329  27.235 -0.0272 -0.1932 -0.2951
27398W        W70336  28.636  28.951  28.837 -0.0885 -0.2343 -0.0280
27399W        W70337  26.667  26.566  30.911 -0.0217  0.1377 -0.2863
27400W        W70338  25.653  27.027  28.138  0.2325 -0.1069 -0.1842
27401W        W70339  27.942  27.306  31.079 -0.1472  0.0034 -0.0774
27402W        W70340  25.486  26.075  28.896 -0.3036 -0.0406 -0.1382
27403W        W70341  25.142  27.477  29.487  0.0254 -0.0683 -0.0411
27404W        W70342  27.020  29.788  30.207  0.0505 -0.0311  0.0445
27405W        W70343  27.987  25.649  28.108  0.0861  0.0704  0.1086
27406W        W70344  25.777  27.155  29.876  0.0763  0.0219  0.2309
27407W        W70345  26.693  25.437  30.328 -0.0736 -0.2685  0.0941
27408W        W70346  27.305  29.063  30.833 -0.0457  0.1488  0.0263
27409W        W70347  27.211  26.783  29.402 -0.3175  0.1653  0.0292
27410W        W70348  25.597  25.145  29.722  0.1476  0.2296  0.0847
27411W        W70349  26.040  27.029  30.298  0.2238  0.1872  0.0506
27412W        W70350  27.652  28.471  30.278  0.0593  0.4413  0.4833
27413W        W70351  27.259  28.131  30.331 -0.3062  0.1808  0.0230
27414W        W70352  25.063  28.225  31.187 -0.3432  0.1236  0.0489
27415W        W70353  28.221  26.251  30.846 -0.2499  0.0488  0.1059
27416W        W70354  28.458  29.582  28.252  0.0558 -0.0289 -0.1810
27417W        W70355  27.666  27.558  31.427 -0.0390  0.1167 -0.4353
27418W        W70356  23.788  27.817  28.421  0.0575 -0.1536  0.2198
27419W        W70357  24.807  27.326  28.883 -0.0867 -0.0717  0.2216
27420W        W70358  25.540  26.335  29.322  0.1361  0.1421 -0.0019
27421W        W70359  27.406  24.505  31.310  0.4489  0.0145  0.0625
27422W        W70360  26.438  28.639  29.046  0.2267 -0.0215 -0.2742
27423W        W70361  25.897  28.571  27.979  0.2346  0.0424 -0.0637
27424W        W70362  25.239  27.445  30.060 -0.1371 -0.0001 -0.1087
27425W        W70363  28.125  25.759  29.918  0.2911  0.0156 -0.2408
27426W        W70364  26.978  28.401  27.271 -0.0321 -0.0524 -0.0520
27427W        W70365  27.723  26.350  30.731  0.1744  0.0117 -0.0144
27428W        W70366  28.261  26.609  30.376 -0.1243 -0.1638 -0.3240
27429W        W70367  28.732  27.867  26.881 -0.1129  0.1485 -0.2771
27430W        W70368  28.287  27.098  30.802  0.0690 -0.0121 -0.2737
27431W        W70369  26.621  26.172  30.565  0.0591  0.2946  0.1862
27432W        W70370  28.313  29.134  28.521  0.3154 -0.1129  0.4403
27433W        W70371  25.625  26.503  31.270 -0.1210 -0.1515 -0.1733
27434W        W70372  25.670  29.353  30.110 -0.3644 -0.0908  0.0703
27435W        W70373  25.002  26.553  31.771 -0.0079  0.1153  0.3864
27436W        W70374  26.521  26.085  29.048  0.2063  0.2739 -0.1482
27437W        W70375  27.112  26.375  28.450  0.1224  0.2704  0.2832
27438W        W70376  27.060  27.064  29.058 -0.1369  0.0127  0.1491
27439W        W70377  28.035  26.408  28.120 -0.1711  0.0841 -0.2155
27440W        W70378  27.511  27.648  27.501 -0.0934 -0.2394  0.0572
27441W        W70379  28.830  27.802  29.475  0.3062 -0.2580  0.2045
27442W        W70380  26.516  27.860  30.628  0.0863  0.1279  0.1029
27443W        W70381  27.303  26.789  29.986  0.0819  0.2107  0.1423
27444W        W70382  26.064  28.081  27.970  0.0031 -0.2360  0.1643
27445W        W70383  26.124  27.199  29.503 -0.1483 -0.0082 -0.3220
27446W        W70384  26.417  25.572  31.203  0.0752 -0.1685  0.2783
27447W        W70385  26.913  26.388  29.342  0.0455 -0.1647  0.0329
27448W        W70386  27.647  25.164  29.341 -0.3020 -0.1434  0.2243
27449W        W70387  28.690  28.434  28.770  0.0841  0.1525 -0.1535
27450W        W70388  27.719  28.779  30.658  0.3136  0.2722 -0.0962
27451W        W70389  27.118  26.280  30.733 -0.1843 -0.0943  0.0170
27452W        W70390  25.316  26.218  31.511  0.3127  0.2102  0.0100
27453W        W70391  27.886  28.950  29.561 -0.1189  0.0097  0.1379
27454W        W70392  28.809  26.379  27.622  0.1817  0.0231 -0.0966
27455W        W70393  27.519  27.650  30.868 -0.1335 -0.0619  0.3367
27456W        W70394  27.662  26.687  29.510 -0.1714  0.1968  0.0793
27457W        W70395  27.461  26.073  28.600 -0.1029  0.2825 -0.0925
27458W        W70396  26.127  25.073  29.576 -0.1503 -0.1300 -0.3289
27459W        W70397  27.862  28.144  31.564 -0.1367  0.2924 -0.2393
27460W        W70398  25.832  24.639  28.731  0.0386 -0.2094  0.0116
27461W        W70399  27.012  27.176  30.056  0.1049 -0.1231  0.0963
27462W        W70400  27.848  28.225  28.266  0.1312 -0.0100 -0.0461
27463W        W70401  25.091  30.386  28.672 -0.0887 -0.0911  0.1199
27464W        W70402  28.466  26.637  28.114 -0.1780 -0.0215 -0.1458
27465W        W70403  25.802  25.124  30.422 -0.0671 -0.0847  0.1315
27466W        W70404  25.631  28.724  29.922  0.1663 -0.1348  0.0407
27467W        W70405  26.023  28.106  27.479  0.1442  0.1712 -0.3407
27468W        W70406  28.157  26.654  27.625 -0.0082 -0.2248  0.1804
27469W        W70407  27.482  29.117  30.308  0.1917 -0.1161 -0.1316
27470W        W70408  27.184  28.274  31.700  0.0405 -0.1474 -0.1107
27471W        W70409  27.680  26.401  27.734 -0.1402  0.1453 -0.2776
27472W        W70410  27.924  26.746  31.007 -0.0461 -0.2748  0.2724
27473W        W70411  25.266  28.729  26.894  0.0456 -0.0381  0.0961
27474W        W70412  29.301  26.234  29.552 -0.0126  0.0854  0.1754
27475W        W70413  25.131  28.009  28.315 -0.1683  0.0772 -0.2498
27476W        W70414  26.534  27.685  29.461 -0.1630  0.2966 -0.1165
27477W        W70415  24.930  29.933  28.575 -0.2636  0.0502  0.0249
27478W        W70416  26.731  26.769  29.736 -0.0018  0.1853  0.1125
27479W        W70417  27.814  26.380  29.870  0.1030  0.0563 -0.2074
27480W        W70418  27.029  27.620  29.449 -0.3021  0.0803  0.0011
27481W        W70419  27.969  27.642  31.861 -0.0145 -0.0386 -0.2428
27482W        W70420  27.484  28.084  31.281  0.2431 -0.1897  0.1630
27483W        W70421  24.892  25.822  28.739  0.1450  0.0729 -0.1235
27484W        W70422  28.264  29.335  31.038 -0.3089  0.0746 -0.0274
27485W        W70423  27.572  27.316  30.142 -0.2657 -0.1024 -0.0650
27486W        W70424  27.433  26.403  30.270 -0.0564  0.0826  0.1143
27487W        W70425  25.416  27.297  31.172 -0.3035 -0.1799 -0.0821
27488W        W70426  25.799  28.570  31.313  0.2469 -0.2954  0.1793
27489W        W70427  28.788  27.020  28.107  0.3914 -0.0671 -0.1956
27490W        W70428  26.149  25.889  29.460  0.2931 -0.0891  0.1410
27491W        W70429  26.767  27.788  27.073 -0.1148 -0.0958 -0.1447
27492W        W70430  24.641  26.148  31.855  0.0527  0.0366  0.4286
27493W        W70431  24.994  27.645  30.993 -0.0434 -0.1868  0.2536
27494W        W70432  26.795  28.922  27.917  0.2725 -0.1985  0.1352
27495W        W70433  28.223  27.054  27.948 -0.2520  0.2245 -0.1378
27496W        W70434  25.988  27.023  29.062  0.0265  0.4326  0.0762
27497W        W70435  27.310  30.353  30.763 -0.3638  0.1847  0.0111
27498W        W70436  26.525  26.988  28.659 -0.1207  0.0631  0.1391
27499W        W70437  25.463  26.666  28.401  0.2882  0.2598 -0.2709
27500W        W70438  24.911  28.555  27.202  0.0196  0.1511 -0.0773
27501W        W70439  26.654  27.969  28.878  0.1385 -0.0863 -0.1423
27502W        W70440  23.975  29.762  29.073 -0.0534 -0.1076 -0.1284
27503W        W70441  27.931  28.859  30.157 -0.2106  0.2359 -0.1260
27504W        W70442  28.777  25.901  27.489 -0.0452 -0.2113 -0.0695
27505W        W70443  29.142  28.387  29.080  0.1338 -0.0663 -0.0018
27506W        W70444  29.641  27.525  28.791 -0.2680 -0.1073 -0.0261
27507W        W70445  26.102  30.071  31.120 -0.3204 -0.0481  0.1217
27508W        W70446  27.491  28.078  29.304 -0.0156  0.0579  0.0856
27509W        W70447  26.937  26.799  27.598 -0.3463  0.3521  0.1788
27510W        W70448  26.789  28.115  31.398 -0.0724 -0.2956 -0.1586
27511W        W70449  28.345  26.992  31.293  0.1053 -0.0576 -0.2672
27512W        W70450  25.372  29.137  29.777  0.1122 -0.2188 -0.0078
27513W        W70451  26.862  28.873  27.264  0.0340 -0.3797  0.1451
27514W        W70452  25.136  26.836  28.072  0.0152 -0.2247  0.1482
27515W        W70453  26.557  26.831  30.281  0.0908 -0.0550  0.0037
27516W        W70454  29.975  26.446  30.074 -0.0667 -0.0252  0.0035
27517W        W70455  25.196  27.567  28.122  0.0417  0.0641  0.0077
27518W        W70456  26.287  26.518  28.861  0.0111  0.1033 -0.1110
27519W        W70457  26.579  29.612  29.942  0.1544  0.0681 -0.0707
27520W        W70458  26.530  27.964  28.307  0.1893  0.1075  0.0756
27521W        W70459  27.003  28.359  28.883 -0.1434 -0.3193  0.1451
27522W        W70460  25.581  25.378  28.356  0.1423 -0.0552 -0.2406
27523W        W70461  28.828  28.296  29.463 -0.0537 -0.1453 -0.1686
27524W        W70462  26.903  26.272  29.930  0.2625 -0.0630 -0.0082
27525W        W70463  29.121  27.569  30.471 -0.0739  0.0470 -0.0080
27526W        W70464  24.964  27.885  28.898 -0.1540  0.0020  0.0672
27527W        W70465  28.804  26.690  28.476  0.0149 -0.2243  0.2166
27528W        W70466  25.784  26.553  30.661  0.3757  0.0664 -0.0709
27529W        W70467  27.546  27.157  30.720  0.1849 -0.1982 -0.0002
27530W        W70468  27.246  27.203  26.490 -0.1623 -0.2346 -0.0934
27531W        W70469  28.799  26.422  31.439  0.0201 -0.3002  0.1775
27532W        W70470  28.519  27.569  25.977 -0.0091 -0.0117 -0.0643
27533W        W70471  26.852  30.219  31.155  0.1815  0.6864  0.2095
27534W        W70472  25.307  27.715  27.677 -0.0297 -0.0345  0.5132
27535W        W70473  28.535  27.417  28.155 -0.0090  0.0000 -0.0395
27536W        W70474  25.379  28.159  28.775 -0.2959 -0.2300 -0.0150
27537W        W70475  25.512  25.680  31.557 -0.0167  0.1965  0.0015
27538W        W70476  28.809  28.744  29.323 -0.0749 -0.3423  0.0902
27539W        W70477  25.822  26.356  28.617 -0.2401 -0.3184 -0.3474
27540W        W70478  26.731  27.217  29.500 -0.1320  0.2152  0.0250
27541W        W70479  28.434  27.968  29.751 -0.2826 -0.1808 -0.2108
27542W        W70480  27.418  28.713  27.370  0.0944 -0.2284  0.0109
27543W        W70481  29.190  29.009  29.551 -0.1207  0.1182 -0.2156
27544W        W70482  28.330  28.093  28.693  0.0013 -0.3230  0.1283
27545W        W70483  25.373  24.098  30.539 -0.1906 -0.0507 -0.0347
27546W        W70484  27.799  30.489  30.532  0.1192  0.1539 -0.5321
27547W        W70485  28.210  28.293  27.858  0.1576  0.1144 -0.2781
27548W        W70486  26.846  25.455  28.181  0.0350  0.0791 -0.0029
27549W        W70487  24.601  27.943  31.104 -0.0893  0.4301 -0.1553
27550W        W70488  24.987  30.921  28.959 -0.2903  0.1894 -0.3142
27551W        W70489  27.970  27.369  30.489 -0.0908  0.0289  0.4339
27552W        W70490  27.316  25.815  30.938  0.0958 -0.1576  0.1973
27553W        W70491  27.237  28.128  27.559 -0.2919  0.1780  0.2025
27554W        W70492  26.843  27.209  31.251 -0.0067 -0.1021  0.0737
27555W        W70493  26.945  30.142  31.655 -0.2963 -0.1597  0.4391
27556W        W70494  26.307  28.014  31.555  0.1498  0.1879  0.0303
27557W        W70495  25.918  27.501  27.179  0.1395 -0.1807 -0.1286
27558W        W70496  27.868  27.873  30.508 -0.2375 -0.0787 -0.0049
27559W        W70497  26.052  27.320  28.040 -0.0205  0.1886  0.0040
27560W        W70498  24.487  29.723  28.854 -0.2775  0.2279 -0.1352
27561W        W70499  27.644  29.262  29.867  0.0930 -0.0315 -0.1745
27562W        W70500  27.360  26.309  29.681 -0.0356  0.1294  0.0835
27563W        W70501  30.557  29.983  28.208  0.1820  0.0971 -0.2168
27564W        W70502  25.486  25.438  30.147  0.1316  0.0469  0.0106
27565W        W70503  27.178  25.944  29.395 -0.1575 -0.2178 -0.0691
27566W        W70504  27.848  25.813  30.928  0.1068 -0.0578 -0.1780
27567W        W70505  26.186  27.400  30.592  0.0810 -0.0479  0.3214
27568W        W70506  25.669  26.389  27.951 -0.0437  0.2486 -0.1305
27569W        W70507  25.764  28.346  27.108 -0.1000  0.0750  0.0328
27570W        W70508  25.813  28.253  29.081  0.1018 -0.2412 -0.0863
27571W        W70509  27.951  25.507  31.665  0.1136  0.3081  0.0066
27572W        W70510  25.555  25.464  31.143 -0.0901 -0.0188 -0.2705
27573W        W70511  25.397  27.253  27.774 -0.2041 -0.0144  0.0563
27574W        W70512  25.519  27.108  29.307 -0.0208  0.0862 -0.2384
27575W        W70513  27.460  27.487  29.141 -0.0430 -0.0185 -0.1672
27576W        W70514  26.041  26.582  29.293 -0.0279  0.0428 -0.1832
27577W        W70515  25.966  25.472  29.296 -0.0009 -0.0584  0.0468
27578W        W70516  27.429  28.007  28.773  0.1092  0.3403 -0.0425
27579W        W70517  27.464  28.568  28.729 -0.1684  0.1425 -0.0659
27580W        W70518  25.899  26.286  29.741 -0.0351 -0.1073 -0.2550
27581W        W70519  26.856  30.674  30.809 -0.1853  0.2519 -0.0587
27582W        W70520  24.475  29.379  27.103 -0.2434  0.3257 -0.0068
27583W        W70521  26.446  28.059  31.064  0.1680 -0.1630 -0.1171
27584W        W70522  27.550  25.717  30.536  0.0928  0.2739 -0.2996
27585W        W70523  25.065  26.355  28.993 -0.0823 -0.0149  0.2150
27586W        W70524  26.495  28.733  29.859 -0.1044  0.2283 -0.0794
27587W        W70525  26.489  27.110  28.179 -0.0278  0.2261 -0.2652
27588W        W70526  27.145  29.557  27.876 -0.1281  0.2885 -0.0526
27589W        W70527  27.184  29.341  29.987 -0.1965 -0.1808 -0.4168
27590W        W70528  26.267  28.056  29.841  0.3083  0.0018  0.1292
27591W        W70529  25.095  24.386  31.425 -0.1903  0.1537 -0.1502
27592W        W70530  29.472  27.976  28.992 -0.1888 -0.0276 -0.0419
27593W        W70531  26.623  27.326  30.409  0.0830 -0.1812 -0.0574
27594W        W70532  29.189  27.625  28.693 -0.1592  0.1267 -0.1517
27595W        W70533  30.211  26.421  29.473 -0.2732  0.0362 -0.0618
27596W        W70534  27.767  27.054  28.262  0.3793  0.2079 -0.0164
27597W        W70535  26.979  25.570  29.686  0.0755 -0.0872 -0.4127
27598W        W70536  24.576  27.525  31.484 -0.0294 -0.0453  0.0030
27599W        W70537  28.222  28.592  30.631  0.2141  0.0544  0.0946
27600W        W70538  25.958  26.125  29.095 -0.0008 -0.0456 -0.0985
27601W        W70539  28.532  24.939  30.017 -0.0978  0.3265 -0.2087
27602W        W70540  26.486  28.439  27.977  0.0123 -0.0663  0.1610
27603W        W70541  25.511  27.061  30.289 -0.2419 -0.0814  0.1283
27604W        W70542  27.077  25.959  28.204 -0.0283 -0.0540  0.1690
27605W        W70543  28.136  27.683  31.393 -0.0129  0.3691  0.3058
27606W        W70544  25.467  28.286  29.463  0.3119 -0.2331  0.0207
27607W        W70545  27.767  29.651  31.263 -0.1193  0.2790 -0.1135
27608W        W70546  26.941  27.007  28.392  0.1699 -0.1557 -0.0542
27609W        W70547  30.585  28.681  28.677 -0.1767  0.4104 -0.1009
27610W        W70548  25.158  28.666  29.553 -0.0463  0.1503 -0.0123
27611W        W70549  26.966  29.761  31.314  0.0434 -0.1016  0.0603
27612W        W70550  26.487  30.541  30.105 -0.1869 -0.4058 -0.2259
27613W        W70551  28.659  27.498  31.193  0.0195  0.2378 -0.1570
27614W        W70552  26.777  24.074  30.242 -0.3516  0.2042  0.3024
27615W        W70553  25.674  28.536  28.491 -0.0705 -0.0792  0.1347
27616W        W70554  26.050  26.798  27.917 -0.1686 -0.1886  0.2239
27617W        W70555  28.581  26.846  29.889  0.2632 -0.1617 -0.2931
27618W        W70556  26.210  26.788  29.860  0.2013  0.4887  0.0623
27619W        W70557  28.003  25.994  29.028 -0.1140  0.3299 -0.0659
27620W        W70558  26.040  29.031  29.869 -0.1513  0.1959  0.0434
27621W        W70559  27.965  28.143  29.399  0.0392 -0.1716 -0.1874
27622W        W70560  28.603  26.646  30.965 -0.1788 -0.0327  0.2355
27623W        W70561  27.796  29.232  30.747 -0.3904  0.1213 -0.2263
27624W        W70562  27.056  27.366  30.788 -0.1449  0.1035 -0.1670
27625W        W70563  26.107  27.606  31.824  0.0622 -0.1778  0.1446
27626W        W70564  26.451  29.988  31.441 -0.0558  0.4590 -0.0426
27627W        W70565  26.068  29.872  30.647  0.3877  0.2232  0.2146
27628W        W70566  27.630  28.284  30.742  0.1299  0.0921  0.0348
27629W        W70567  26.026  26.176  31.807 -0.1888 -0.1713 -0.4329
27630W        W70568  26.886  26.576   1.026 -0.1035  0.2543 -0.0017
27631W        W70569  26.395  30.809   0.199 -0.3386 -0.2773  0.0322
27632W        W70570  27.830  31.196   0.247  0.2707 -0.3532 -0.1888
27633W        W70571  26.959  25.776  31.699  0.2623  0.1766 -0.0725
27634W        W70572  27.598  29.059  31.235 -0.1404  0.0770  0.2401
27635W        W70573  26.008  27.151  31.790  0.2053  0.2524  0.0459
27636W        W70574  27.409  26.871  31.557 -0.1697 -0.0109  0.1313
27637W        W70575  27.237  28.445  29.463 -0.0388  0.2075 -0.1352
27638W        W70576  27.075  27.638  30.370  0.1796  0.0788  0.4313
27639W        W70577  26.998  29.812  30.739  0.0909 -0.3179 -0.3810
27640W        W70578  26.933  24.791  31.344  0.1693  0.0249 -0.3144
27641W        W70579  24.831  27.468   1.360 -0.0928  0.0819  0.1728
27642W        W70580  26.014  24.894   0.814 -0.1626  0.4017 -0.1596
27643W        W70581  25.604  30.035  31.293 -0.2469 -0.0505  0.3191
27644W        W70582  26.920  28.585   0.026  0.0823  0.1118 -0.5311
27645W        W70583  27.292  24.936  30.250 -0.2462 -0.3850 -0.1459
27646W        W70584  27.397  26.440   1.000 -0.1383 -0.1384  0.1931
27647W        W70585  27.653  24.917  31.932 -0.0134  0.1984 -0.0971
27648W        W70586  28.347  27.710  30.281 -0.2505  0.1071  0.0402
27649W        W70587  26.385  29.346  31.889  0.0600  0.0293 -0.0448
27650W        W70588  26.181  25.526   0.176 -0.1504  0.4034  0.1140
27651W        W70589  26.825  26.714   0.155  0.1419 -0.0003  0.2147
27652W        W70590  26.800  28.908  30.697  0.0273  0.2712 -0.0004
27653W        W70591  25.435  26.618   0.479 -0.1049 -0.0965  0.0279
27654W        W70592  27.086  28.919   0.331  0.0174  0.1798  0.2848
27655W        W70593  27.364  27.243  31.191  0.3276 -0.0615 -0.1011
27656W        W70594  24.708  25.194  31.495  0.0030  0.0903  0.1981
27657W        W70595  26.887  29.357  30.948  0.1659  0.2588  0.1423
27658W        W70596  26.080  29.909  30.155 -0.0936  0.3579 -0.3436
27659W        W70597  26.922  29.366  30.468 -0.0574  0.0258 -0.2531
27660W        W70598  27.157  27.705  31.246 -0.0759  0.0589 -0.2289
27661W        W70599  27.675  25.397  31.096 -0.0218  0.3964  0.0387
27662W        W70600  26.421  26.947  30.887 -0.0320 -0.1582 -0.2053
27663W        W70601  27.004  26.381  31.825  0.2353  0.0181 -0.3111
27664W        W70602  27.763  26.314  31.202  0.0886  0.0915  0.1016
27665W        W70603  26.101  29.705  31.524  0.2404 -0.0693  0.4771
27666W        W70604  26.372  26.646   0.056 -0.0492  0.0573 -0.2829
27667W        W70605  27.195  28.857  31.672  0.1715 -0.0015 -0.0897
27668W        W70606  26.531  25.601   0.607  0.1465  0.2411  0.2510
27669W        W70607  27.963  29.224   0.936  0.1346  0.0133 -0.0407
27670W        W70608  28.398  29.828  30.166  0.2343  0.1304  0.3314
27671W        W70609  26.074  28.468  31.762 -0.2458  0.0912 -0.2995
27672W        W70610  27.379  29.502   1.593 -0.2448  0.0324 -0.1599
27673W        W70611  26.734  26.042   0.772 -0.0559  0.0540  0.1318
27674W        W70612  27.050  27.559  31.815 -0.2377 -0.3730 -0.0109
27675W        W70613  25.100  26.669  31.277  0.2073 -0.0957  0.0620
27676W        W70614  26.729  27.591  29.871  0.2054 -0.0253  0.2971
27677W        W70615  26.103  26.099  30.804 -0.2297  0.0633  0.0468
27678W        W70616  28.729  28.567  30.515  0.1506 -0.0285 -0.0678
27679W        W70617  25.172  29.987  29.007  0.0946 -0.0121  0.0616
27680W        W70618  28.592  30.529  30.738  0.0822  0.0362  0.1013
27681W        W70619  24.338  27.025  31.427 -0.1421 -0.0453  0.2238
27682W        W70620  24.862  26.262   0.977  0.0219  0.1090 -0.3857
27683W        W70621  26.225  27.728  30.225 -0.0957  0.1634 -0.4216
27684W        W70622  24.978  28.673  30.790  0.0437 -0.2796  0.3703
27685W        W70623  25.567  25.291  31.824  0.1092  0.0532 -0.0600
27686W        W70624  28.741  31.501  30.886 -0.1834 -0.2203 -0.0972
27687W        W70625  27.181  29.338  31.433  0.1433  0.3560  0.2637
27688W        W70626  28.080  29.549  31.810  0.0623  0.0076  0.1636
27689W        W70627  26.153  31.500  17.955  0.1473  0.0579  0.0014
27690W        W70628  26.714  30.079  17.159 -0.0289  0.0851  0.2247
27691W        W70629  28.970  30.407  17.059 -0.2084 -0.1092 -0.0593
27692W        W70630  28.101  31.573  17.685 -0.1063 -0.2386  0.2230
27693W        W70631  26.331  30.283  19.342 -0.0272 -0.2539  0.2626
27694W        W70632  28.288  32.891  17.809 -0.2064  0.2763  0.3342
27695W        W70633  26.745  30.214  19.882  0.2429 -0.0068  0.0185
27696W        W70634  28.639  32.654  16.869 -0.1442  0.0941 -0.0932
27697W        W70635  28.334  32.185  17.757  0.0272  0.0961  0.3119
27698W        W70636  27.772  31.215  16.400 -0.2285 -0.2389  0.1783
27699W        W70637  27.157  30.032  19.270  0.0319  0.0330  0.2344
27700W        W70638  26.012  32.664  18.925 -0.0037 -0.4628 -0.1355
27701W        W70639  26.293  29.657  17.256  0.1952 -0.0605  0.2063
27702W        W70640  25.149  29.348  19.860 -0.0132 -0.0697  0.2047
27703W        W70641  28.320  30.933  18.717  0.1541  0.1617 -0.0361
27704W        W70642  26.300  30.341  17.031 -0.2048 -0.0327 -0.2155
27705W        W70643  26.410  30.982  17.633 -0.1084 -0.1441 -0.0699
27706W        W70644  25.749  29.329  17.016 -0.0955  0.0604 -0.2737
27707W        W70645  26.774  33.455  16.641 -0.2290  0.4270 -0.1706
27708W        W70646  28.337  29.687  17.722  0.0017  0.2634 -0.0764
27709W        W70647  27.434  29.442  20.145  0.2404 -0.5237 -0.1550
27710W        W70648  27.344  32.069  16.578  0.1337  0.2458  0.0033
27711W        W70649  25.302  30.229  17.285 -0.1540  0.0128 -0.0403
27712W        W70650  24.742  30.877  20.098 -0.4091 -0.1405  0.1620
27713W        W70651  27.192  30.563  19.040 -0.0853  0.2317  0.2781
27714W        W70652  30.005  31.832  19.458  0.0124  0.0489  0.0748
27715W        W70653  29.620  30.975  17.074 -0.0388 -0.2785 -0.2006
27716W        W70654  27.553  32.882  16.965 -0.1091 -0.1087  0.2074
27717W        W70655  25.537  32.874  17.555  0.0604 -0.1817  0.0610
27718W        W70656  29.325  30.972  21.388 -0.0689  0.0941  0.0384
27719W        W70657  25.323  31.898  18.171 -0.1270 -0.1125  0.1800
27720W        W70658  25.727  32.003  17.960  0.0589  0.2389  0.0270
27721W        W70659  27.803  33.313  17.095  0.1572  0.0334  0.1202
27722W        W70660  29.595  31.639  17.912 -0.0256  0.0278 -0.0362
27723W        W70661  28.009  32.209  18.484 -0.0573 -0.0983 -0.0202
27724W        W70662  26.028  32.598  19.545 -0.0698 -0.0009  0.0881
27725W        W70663  24.836  32.874  16.685  0.2667 -0.3004 -0.0009
27726W        W70664  27.477  33.779  18.951 -0.0437 -0.0116  0.2773
27727W        W70665  26.767  33.287  18.940 -0.0787 -0.2348  0.0130
27728W        W70666  26.888  30.462  17.822  0.0037 -0.0644 -0.2094
27729W        W70667  27.962  29.369  17.830  0.3874  0.0380 -0.0458
27730W        W70668  26.360  32.572  16.389  0.0681 -0.2129 -0.0042
27731W        W70669  27.668  31.900  16.903 -0.1205  0.2739  0.0811
27732W        W70670  26.051  31.143  20.134 -0.2450 -0.0164 -0.0972
27733W        W70671  27.044  31.662  17.700  0.1289 -0.0044  0.1170
27734W        W70672  27.947  30.335  19.824 -0.3540  0.1884  0.2887
27735W        W70673  26.056  32.836  16.742 -0.0274 -0.0755 -0.1314
27736W        W70674  27.568  31.450  16.754 -0.3807 -0.2853  0.1236
27737W        W70675  26.448  29.914  16.771  0.1842  0.0527  0.0532
27738W        W70676  28.676  30.271  17.353  0.2068  0.2585  0.0529
27739W        W70677  27.206  28.874  17.554  0.1131 -0.0024 -0.0108
27740W        W70678  26.601  31.948  16.575 -0.3110 -0.4812 -0.0485
27741W        W70679  26.228  29.832  19.479  0.3354  0.2268  0.0686
27742W        W70680  29.020  32.406  20.029  0.2570  0.0017 -0.1583
27743W        W70681  28.031  31.619  16.644 -0.0917  0.0435 -0.0231
27744W        W70682  27.416  30.790  17.653 -0.0046  0.1662  0.0074
27745W        W70683  26.636  30.490  18.449 -0.3011 -0.0569  0.0620
27746W        W70684  27.686  30.993  17.257  0.0326 -0.2342  0.1744
27747W        W70685  28.436  33.094  17.288  0.1516 -0.0208  0.2593
27748W        W70686  29.172  33.140  19.147 -0.0019  0.0064  0.1523
27749W        W70687  28.357  33.012  18.304 -0.0178  0.1178 -0.0301
27750W        W70688  27.087  32.104  17.933  0.1331  0.3548  0.0012
27751W        W70689  24.200  32.031  19.340 -0.0039 -0.0154 -0.2346
27752W        W70690  27.110  31.248  20.609  0.3094 -0.1730 -0.3256
27753W        W70691  26.155  29.392  16.792 -0.0130  0.2219 -0.1362
27754W        W70692  30.052  31.388  20.692  0.1873 -0.0209 -0.1840
27755W        W70693  26.576  31.938  18.688 -0.0490 -0.2042 -0.3242
27756W        W70694  28.345  29.225  18.965  0.0978  0.1091  0.1464
27757W        W70695  26.674  32.818  17.554  0.1025 -0.1040  0.2281
27758W        W70696  29.907  32.743  19.419 -0.1455 -0.0191 -0.3948
27759W        W70697  26.785  33.927  16.446  0.0344 -0.0823 -0.1100
27760W        W70698  28.417  29.107  18.052 -0.1598 -0.1964 -0.0734
27761W        W70699  28.562  29.334  18.533  0.0856  0.1294 -0.3824
27762W        W70700  26.429  30.780  16.114 -0.0208  0.2112  0.0230
27763W        W70701  27.077  29.931  17.586 -0.0997 -0.2060 -0.0521
27764W        W70702  27.225  33.547  17.840 -0.1701  0.3670 -0.0111
27765W        W70703  27.388  30.916  16.243 -0.1802 -0.1961  0.0585
27766W        W70704  25.221  32.983  17.130 -0.0086 -0.0310  0.1918
27767W        W70705  28.054  29.924  19.142 -0.1422 -0.3271 -0.1037
27768W        W70706  28.199  32.468  20.217  0.1918 -0.1829  0.1036
27769W        W70707  24.843  32.270  16.676 -0.2077 -0.3402  0.0836
27770W        W70708  25.846  31.282  18.681 -0.1136  0.1428  0.3231
27771W        W70709  25.753  32.266  16.695  0.2107 -0.3013 -0.1309
27772W        W70710  25.282  29.482  20.889  0.1256 -0.3684  0.0798
27773W        W70711  26.682  32.323  18.188 -0.1901  0.0486  0.1360
27774W        W70712  28.903  29.916  16.928 -0.1438 -0.2214  0.0402
27775W        W70713  24.786  29.455  19.469  0.3717 -0.2081  0.0249
27776W        W70714  28.402  28.634  17.354 -0.1754 -0.0139  0.0585
27777W        W70715  26.190  32.687  17.376  0.3154  0.0736 -0.0576
27778W        W70716  30.186  33.194  18.658  0.1115 -0.2145  0.0180
27779W        W70717  27.678  31.386  15.865  0.1325 -0.0753 -0.0238
27780W        W70718  27.212  33.291  16.997  0.0744  0.1418  0.1922
27781W        W70719  25.673  31.723  19.851 -0.3011  0.1177  0.0959
27782W        W70720  25.276  30.880  18.385  0.0690  0.1284 -0.0820
27783W        W70721  28.114  30.743  19.197 -0.0401 -0.0726 -0.3308
27784W        W70722  25.999  29.970  19.008 -0.0551 -0.1497  0.0279
27785W        W70723  28.607  31.425  19.572  0.2024  0.0753  0.0050
27786W        W70724  25.740  29.143  16.543 -0.0405  0.2754 -0.2140
27787W        W70725  27.740  30.458  17.391 -0.0352  0.2934  0.0365
27788W        W70726  27.176  30.477  17.295  0.0016  0.1021  0.0541
27789W        W70727  25.365  33.398  16.820 -0.0472  0.0074 -0.1430
27790W        W70728  27.136  30.820  20.913  0.2815 -0.0049  0.0021
27791W        W70729  28.655  30.955  18.328 -0.1381 -0.1169  0.1213
27792W        W70730  28.395  31.604  20.029  0.0285  0.1542 -0.1398
27793W        W70731  27.745  33.511  17.912 -0.1459  0.3074 -0.1420
27794W        W70732  27.573  31.225  19.656 -0.4538 -0.0062  0.1798
27795W        W70733  25.572  29.841  18.116  0.2575  0.1479  0.0267
27796W        W70734  26.568  32.887  16.790  0.1738  0.3659  0.0594
27797W        W70735  27.170  31.041  18.032 -0.2747  0.1905  0.1207
27798W        W70736  25.943  29.939  16.915 -0.1103  0.0225  0.0638
27799W        W70737  28.461  33.692  18.429 -0.0491  0.0446  0.1478
27800W        W70738  27.434  31.515  17.270  0.3718  0.0186  0.0218
27801W        W70739  25.787  31.539  19.155 -0.4376 -0.1173 -0.0730
27802W        W70740  28.706  28.498  20.621 -0.0160 -0.3431 -0.0837
27803W        W70741  29.032  31.599  19.873  0.1093 -0.1351 -0.0064
27804W        W70742  27.892  32.112  17.946 -0.0270 -0.0485  0.1043
27805W        W70743  26.578  29.839  16.204  0.0547  0.1606 -0.2759
27806W        W70744  27.909  32.545  17.720  0.2546 -0.0506 -0.3222
27807W        W70745  26.599  32.422  17.122 -0.2185  0.3017 -0.1575
27808W        W70746  27.558  31.721  17.698 -0.0456  0.1297 -0.0995
27809W        W70747  26.403  34.102  18.302 -0.0408  0.0196 -0.2541
27810W        W70748  28.111  29.635  16.900  0.0307 -0.0852  0.0519
27811W        W70749  25.352  32.102  19.876  0.0222 -0.0353 -0.1504
27812W        W70750  27.924  31.679  19.153 -0.1070  0.2226  0.1223
27813W        W70751  25.742  30.402  17.041 -0.1178 -0.3023  0.0594
27814W        W70752  26.451  31.193  19.800  0.1122 -0.0863 -0.1975
27815W        W70753  27.876  28.835  18.042 -0.4041 -0.0203  0.1551
27816W        W70754  29.824  30.213  16.398 -0.0024 -0.1113  0.1771
27817W        W70755  27.899  33.468  18.746  0.2268 -0.0950  0.0978
27818W        W70756  28.837  31.951  18.045  0.2799 -0.1928 -0.0669
27819W        W70757  28.601  30.392  16.430 -0.0748 -0.2694  0.0197
27820W        W70758  28.287  28.803  16.299  0.4475 -0.0734  0.2471
27821W        W70759  25.840  31.595  18.278 -0.0584  0.2724 -0.0444
27822W        W70760  27.545  32.984  16.464 -0.1036 -0.0986 -0.0335
27823W        W70761  27.047  32.669  18.328 -0.0689  0.0603  0.0885
27824W        W70762  26.954  29.810  16.583 -0.0922  0.1471  0.0692
27825W        W70763  30.527  32.037  18.065  0.0748  0.3487 -0.0612
27826W        W70764  25.935  31.547  17.385  0.0038  0.2385 -0.1432
27827W        W70765  27.705  31.787  18.256 -0.0819 -0.0094 -0.2516
27828W        W70766  29.337  31.859  17.503  0.0130 -0.0339  0.2211
27829W        W70767  27.488  30.469  18.641 -0.2294  0.1877  0.0502
27830W        W70768  26.376  30.635  16.597 -0.0371 -0.0948  0.1064
27831W        W70769  26.966  28.750  18.033 -0.1264 -0.0012  0.4192
27832W        W70770  24.585  33.894  16.525  0.3596  0.1187 -0.1533
27833W        W70771  27.056  30.234  18.658 -0.0478  0.1390  0.1475
27834W        W70772  28.555  31.507  19.056 -0.1789 -0.5775  0.5170
27835W        W70773  27.827  30.806  19.610  0.2931 -0.1884  0.0461
27836W        W70774  28.175  31.197  19.764 -0.2317 -0.1220  0.2421
27837W        W70775  27.966  31.084  16.861  0.0246 -0.4412  0.0452
27838W        W70776  28.179  31.247  18.376 -0.0311  0.1022 -0.0002
27839W        W70777  25.252  30.524  16.910  0.0742  0.1800 -0.1110
27840W        W70778  29.047  30.726  19.197  0.2577 -0.0292  0.1170
27841W        W70779  27.261  31.964  18.461 -0.0638 -0.1602 -0.2685
27842W        W70780  25.369  33.593  19.789 -0.1904 -0.1279  0.0841
27843W        W70781  27.737  33.352  19.217  0.2152 -0.0210  0.0195
27844W        W70782  27.274  32.452  16.988  0.3047 -0.0167 -0.0617
27845W        W70783  27.090  31.677  20.262  0.0326  0.0384  0.0796
27846W        W70784  27.060  29.276  16.656  0.0723 -0.1852  0.0233
27847W        W70785  26.372  34.127  16.575  0.0414  0.0175  0.1945
27848W        W70786  26.531  32.334  17.652 -0.2280  0.3184  0.1598
27849W        W70787  27.683  30.492  19.256 -0.2891  0.1247 -0.0149
27850W        W70788  26.723  33.523  17.140  0.1075  0.1350 -0.2057
27851W        W70789  26.911  32.060  16.925 -0.2023 -0.0662  0.2825
27852W        W70790  28.721  29.372  17.758 -0.2393 -0.4000  0.0926
27853W        W70791  27.932  32.007  17.386  0.2692  0.2235 -0.2797
27854W        W70792  27.663  29.337  18.300 -0.1350 -0.2193  0.0196
27855W        W70793  25.086  32.778  17.917 -0.0087  0.0344 -0.1269
27856W        W70794  26.111  30.748  17.248  0.0350  0.0841  0.0660
27857W        W70795  24.750  30.329  17.129  0.0441 -0.0594 -0.0774
27858W        W70796  28.996  29.240  18.193 -0.2065 -0.0816 -0.2629
27859W        W70797  28.958  33.331  17.240 -0.0835  0.2716  0.1796
27860W        W70798  27.366  30.369  20.164 -0.1719  0.0797  0.3138
27861W        W70799  27.211  28.547  18.721 -0.0424 -0.2750  0.1643
27862W        W70800  25.489  32.246  18.538 -0.0930  0.0017  0.0709
27863W        W70801  28.596  32.098  17.311 -0.0770 -0.0802 -0.0940
27864W        W70802  28.703  30.026  17.777  0.0484  0.0166 -0.0011
27865W        W70803  26.713  33.309  19.409  0.0615 -0.1940 -0.1071
27866W        W70804  26.175  30.359  20.268 -0.1492 -0.1537  0.3199
27867W        W70805  25.605  30.406  18.346  0.1619  0.1100 -0.1023
27868W        W70806  26.397  31.384  18.425  0.1260 -0.1050  0.1157
27869W        W70807  26.691  30.856  18.095 -0.1365  0.1441 -0.2421
27870W        W70808  26.231  31.901  18.257  0.3227  0.0051  0.0353
27871W        W70809  28.220  33.887  18.868  0.1214  0.1099  0.0474
27872W        W70810  26.639  31.058  17.080 -0.1856  0.0171  0.1952
27873W        W70811  25.579  32.746  16.578 -0.2760  0.0489 -0.1814
27874W        W70812  27.940  31.814  21.485 -0.0623 -0.0884  0.2327
27875W        W70813  28.746  33.421  19.335 -0.2594  0.0651  0.1099
27876W        W70814  26.513  30.072  17.686 -0.0723  0.1244 -0.1206
27877W        W70815  26.897  30.117  18.195  0.0294 -0.0596  0.4030
27878W        W70816  27.675  31.202  18.163  0.0549 -0.2479 -0.1816
27879W        W70817  27.272  31.973  17.259  0.1135 -0.2132  0.0918
27880W        W70818  27.352  30.978  18.617 -0.1815 -0.0473  0.0604
27881W        W70819  26.109  32.151  19.092  0.0444 -0.1901 -0.0939
27882W        W70820  28.117  30.466  20.266  0.0780  0.0885 -0.1217
27883W        W70821  29.974  33.710  17.254  0.2117 -0.0545  0.0412
27884W        W70822  28.542  32.027  19.427 -0.0224  0.0634  0.0809
27885W        W70823  26.592  31.830  17.870 -0.0558 -0.0785 -0.1113
27886W        W70824  24.842  30.661  19.125  0.0044  0.2384 -0.0810
27887W        W70825  27.855  32.601  16.260  0.0684  0.3382 -0.2402
27888W        W70826  27.523  29.712  17.642 -0.0860  0.0088 -0.3118
27889W        W70827  26.855  31.727  18.356  0.1773 -0.0365 -0.1046
27890W        W70828  27.076  31.275  16.740  0.0648 -0.3239 -0.0272
27891W        W70829  26.883  32.348  18.661 -0.0122 -0.3085 -0.3034
27892W        W70830  28.889  28.132  16.086 -0.2899  0.2526 -0.0464
27893W        W70831  29.364  32.732  17.128 -0.2752 -0.0567  0.2537
27894W        W70832  26.997  32.824  18.929  0.0167  0.1432 -0.0322
27895W        W70833  28.872  31.057  19.893  0.2608 -0.0499 -0.0192
27896W        W70834  27.956  30.839  17.707  0.3273  0.2599 -0.0074
27897W        W70835  27.968  29.489  19.344  0.0742  0.3240  0.0825
27898W        W70836  26.669  30.675  19.003 -0.2461  0.0172 -0.1145
27899W        W70837  28.769  31.068  18.904 -0.1646  0.0398 -0.0137
27900W        W70838  25.541  30.406  19.821  0.1603  0.1474  0.1468
27901W        W70839  28.233  33.478  19.116 -0.1760  0.0623  0.0260
27902W        W70840  26.290  31.294  20.505  0.4873 -0.4426  0.1848
27903W        W70841  27.860  30.359  17.894 -0.0780  0.0969  0.1121
27904W        W70842  27.070  30.241  16.810 -0.1463 -0.0678  0.2629
27905W        W70843  26.483  32.404  18.981 -0.0564  0.1393 -0.1215
27906W        W70844  28.953  32.175  19.210  0.1377  0.1651  0.1893
27907W        W70845  27.201  31.602  15.822  0.1687 -0.0454  0.3018
27908W        W70846  28.018  30.611  16.986 -0.0818  0.0626  0.3893
27909W        W70847  26.295  31.028  18.783  0.1100  0.2524  0.2115
27910W        W70848  27.896  32.921  17.376 -0.0617 -0.0695  0.3754
27911W        W70849  27.529  30.457  16.877 -0.2164  0.1181  0.3267
27912W        W70850  25.649  32.580  17.054 -0.2705 -0.3906 -0.0609
27913W        W70851  27.714  29.893  19.532  0.0208 -0.0443  0.0738
27914W        W70852  29.050  31.718  18.937 -0.0813  0.0747 -0.4124
27915W        W70853  27.350  30.290  17.821  0.1142  0.3117  0.3626
27916W        W70854  27.270  31.612  19.770 -0.3001 -0.0787  0.1798
27917W        W70855  27.694  30.142  20.499  0.1246  0.1103  0.1034
27918W        W70856  26.818  33.026  19.827 -0.1824  0.1102 -0.2567
27919W        W70857  27.034  30.847  21.447 -0.0731  0.0530  0.1066
27920W        W70858  28.821  34.086  19.486 -0.3545 -0.0229 -0.1937
27921W        W70859  29.654  28.724  16.582 -0.2751 -0.2194  0.2383
27922W        W70860  29.560  30.995  19.319  0.3145 -0.1085 -0.1585
27923W        W70861  28.621  29.662  18.174 -0.0143 -0.0221 -0.1787
27924W        W70862  28.067  31.074  15.992  0.1510 -0.1875  0.3122
27925W        W70863  26.901  31.201  18.445 -0.1777  0.2579 -0.1085
27926W        W70864  30.226  31.607  19.820  0.1413  0.4089 -0.0495
27927W        W70865  27.528  29.903  16.732 -0.1157 -0.2767  0.2869
27928W        W70866  27.662  30.832  18.942 -0.0742 -0.3501  0.0731
27929W        W70867  27.756  32.176  16.098 -0.1706  0.0685 -0.0982
27930W        W70868  26.941  31.500  17.165 -0.0656 -0.0843 -0.2122
27931W        W70869  27.607  29.576  17.166  0.0126 -0.0750  0.4660
27932W        W70870  25.548  29.946  19.386 -0.4807 -0.2601 -0.2984
27933W        W70871  25.866  32.204  19.845 -0.2218  0.0661 -0.0554
27934W        W70872  26.617  30.505  17.397 -0.0305 -0.1584  0.0942
27935W        W70873  26.758  30.580  16.902  0.2076 -0.1972 -0.0943
27936W        W70874  27.599  32.778  18.637 -0.1991 -0.2044  0.0266
27937W        W70875  29.459  31.384  20.234  0.1340  0.1102  0.2975
27938W        W70876  26.921  28.616  17.180 -0.0303 -0.2819  0.2887
27939W        W70877  29.307  29.764  19.916 -0.1368 -0.3059  0.2206
27940W        W70878  27.109  32.891  16.681  0.1701 -0.2347  0.0409
27941W        W70879  27.946  29.920  17.426 -0.2644 -0.0696 -0.1734
27942W        W70880  26.719  31.488  18.852 -0.1855  0.1351  0.1379
27943W        W70881  24.331  32.357  17.978  0.1078  0.4150 -0.1670
27944W        W70882  26.858  31.290  15.992  0.0925 -0.1415 -0.2846
27945W        W70883  27.242  29.747  18.629 -0.1656  0.2100 -0.1223
27946W        W70884  28.995  32.186  17.592 -0.0436  0.5896  0.4001
27947W        W70885  27.491  31.851  19.305 -0.0258  0.3362  0.2401
27948W        W70886  29.746  31.935  18.858 -0.1167 -0.0970  0.2931
27949W        W70887  27.645  32.021  18.859 -0.0786  0.1830  0.1182
27950W        W70888  26.899  31.005  17.605  0.2394  0.2211  0.0023
27951W        W70889  28.623  32.877  19.234  0.4555  0.0951 -0.1077
27952W        W70890  27.471  32.159  19.722 -0.2170  0.0164 -0.2887
27953W        W70891  26.804  32.410  16.599  0.1562  0.0852  0.2071
27954W        W70892  24.179  31.451  20.817  0.2899 -0.3991  0.2632
27955W        W70893  27.210  31.463  18.658 -0.0199 -0.0578  0.2936
27956W        W70894  26.797  31.967  17.410 -0.1351  0.1082  0.1432
27957W        W70895  25.588  29.937  17.577 -0.0121  0.0489 -0.2952
27958W        W70896  27.509  30.936  16.711 -0.1458 -0.1801  0.2304
27959W        W70897  25.729  32.013  19.417 -0.1507  0.0730 -0.1299
27960W        W70898  25.924  31.086  20.731  0.1909 -0.0448  0.1716
27961W        W70899  26.751  33.947  17.371  0.0507  0.1702 -0.0387
27962W        W70900  27.603  31.754  16.272 -0.0667 -0.0203  0.2173
27963W        W70901  27.695  32.487  16.708  0.1677  0.2659 -0.2995
27964W        W70902  26.820  33.133  18.468  0.1542 -0.0570  0.1040
27965W        W70903  27.086  29.739  17.071 -0.0277 -0.2916  0.1321
27966W        W70904  28.285  32.559  17.369 -0.0601  0.1115 -0.2042
27967W        W70905  24.681  33.390  16.394 -0.3352  0.1022 -0.4255
27968W        W70906  27.294  33.881  16.710  0.1710 -0.1391 -0.1064
27969W        W70907  25.915  33.922  16.679 -0.3246  0.1148 -0.1183
27970W        W70908  27.385  31.649  20.903 -0.2415 -0.1952 -0.1301
27971W        W70909  28.924  29.585  16.339 -0.0112 -0.0021 -0.2387
27972W        W70910  29.580  30.807  18.341 -0.1445  0.0796  0.1232
27973W        W70911  29.533  29.696  17.598 -0.2996 -0.0137  0.3315
27974W        W70912  27.792  32.757  19.551 -0.0633 -0.1749  0.0639
27975W        W70913  27.469  30.183  18.237  0.2245 -0.0545 -0.0799
27976W        W70914  26.928  29.202  17.814 -0.2943 -0.0133 -0.2586
27977W        W70915  26.988  31.453  19.347  0.1640 -0.2522  0.2416
27978W        W70916  28.142  29.547  18.257 -0.0763 -0.0987  0.0942
27979W        W70917  26.048  32.294  18.569 -0.1414  0.2431 -0.0820
27980W        W70918  28.835  32.640  17.387  0.0584 -0.0642 -0.1610
27981W        W70919  25.387  30.794  19.577  0.3356  0.0190 -0.1658
27982W        W70920  27.004  32.647  17.840  0.2531 -0.4039  0.2945
27983W        W70921  29.286  29.994  18.928  0.0929 -0.1264 -0.2600
27984W        W70922  27.131  31.613  16.364  0.1091  0.2348  0.0527
27985W        W70923  27.452  29.249  17.892 -0.1228  0.1754  0.0856
27986W        W70924  27.251  34.246  17.210  0.2594  0.3059  0.1563
27987W        W70925  27.628  33.813  17.537 -0.1154  0.5255  0.3780
27988W        W70926  25.862  32.965  19.270  0.4062 -0.5394  0.2326
27989W        W70927  25.256  29.455  17.337 -0.6134 -0.1090 -0.1247
27990W        W70928  30.440  30.624  17.197  0.0513  0.1992 -0.4011
27991W        W70929  27.767  31.695  19.663 -0.1464  0.0545 -0.2139
27992W        W70930  29.794  31.062  18.797 -0.0372 -0.1619  0.0232
27993W        W70931  25.912  32.176  17.196 -0.3449 -0.2659 -0.0928
27994W        W70932  28.107  29.310  16.557 -0.0980 -0.3044  0.3068
27995W        W70933  26.324  30.778  19.309  0.0612  0.2079  0.1018
27996W        W70934  25.872  31.054  19.104 -0.1254 -0.0581 -0.0451
27997W        W70935  26.081  30.152  17.384  0.2504  0.0543  0.0073
27998W        W70936  29.460  32.003  19.203 -0.0125  0.1295  0.0559
27999W        W70937  27.988  28.684  17.112 -0.3991 -0.0659  0.1198
28000W        W70938  27.416  33.198  19.629 -0.1276 -0.0745 -0.2076
28001W        W70939  26.723  29.663  18.035  0.3818 -0.4129 -0.1086
28002W        W70940  27.387  29.277  18.696  0.3338 -0.0796 -0.2664
28003W        W70941  27.275  31.553  18.123  0.3520  0.1513  0.3407
28004W        W70942  27.344  32.413  18.864 -0.0318  0.1870  0.1089
28005W        W70943  26.935  32.663  20.112  0.3508  0.1507 -0.3262
28006W        W70944  26.029  28.923  16.875  0.1405  0.1448 -0.2692
28007W        W70945  28.770  32.369  16.413  0.2077 -0.3418 -0.1321
28008W        W70946  28.719  30.600  17.757 -0.0304  0.1088 -0.2381
28009W        W70947  27.315  32.480  16.317  0.0998  0.0792  0.0718
28010W        W70948  29.828  32.125  17.891 -0.0866 -0.2493  0.0222
28011W        W70949  29.454  32.737  18.563  0.3495  0.0819  0.1177
28012W        W70950  24.387  28.874  18.110  0.0617  0.0121 -0.2234
28013W        W70951  28.458  33.174  18.808 -0.2368  0.0347 -0.2486
28014W        W70952  28.966  32.638  18.893  0.2837 -0.0001 -0.2562
28015W        W70953  27.238  29.663  18.130 -0.0169  0.5896  0.3321
28016W        W70954  27.953  30.380  18.394  0.1722 -0.1457 -0.1687
28017W        W70955  25.421  32.770  16.114  0.1174 -0.0620 -0.0985
28018W        W70956  30.695  30.642  18.450 -0.0356  0.0767  0.1837
28019W        W70957  29.418  29.374  19.623 -0.0186 -0.1717  0.2771
28020W        W70958  27.590  34.682  17.192 -0.0479  0.0560 -0.1983
28021W        W70959  28.466  29.290  19.707 -0.1180 -0.1031  0.1814
28022W        W70960  27.468  32.735  18.019  0.1945  0.1497  0.1003
28023W        W70961  26.021  31.412  19.580 -0.3588  0.1713 -0.1372
28024W        W70962  26.249  32.307  16.842  0.2044 -0.2329 -0.2906
28025W        W70963  27.260  33.169  18.681 -0.2339 -0.0061  0.1504
28026W        W70964  28.277  30.108  18.159 -0.0734  0.2540  0.0346
28027W        W70965  29.188  33.053  17.572 -0.1810  0.0691  0.2102
28028W        W70966  28.333  32.731  19.777  0.0547 -0.1573  0.2596
28029W        W70967  27.495  30.049  17.250  0.1116 -0.1562 -0.0859
28030W        W70968  29.039  31.013  17.700 -0.0710 -0.0073  0.1129
28031W        W70969  27.024  29.516  19.306  0.0861 -0.0986  0.2460
28032W        W70970  28.621  29.146  16.567 -0.1033  0.0475 -0.3554
28033W        W70971  27.759  29.866  18.554  0.0405 -0.0568  0.4093
28034W        W70972  27.049  31.164  19.782  0.3320  0.0649  0.0041
28035W        W70973  25.156  29.707  17.905 -0.1922  0.5330  0.0502
28036W        W70974  26.000  30.866  16.793 -0.0617 -0.2987  0.1006
28037W        W70975  27.033  32.374  17.417  0.0041 -0.1434 -0.1712
28038W        W70976  27.893  28.721  21.111  0.0148 -0.1003  0.3685
28039W        W70977  26.391  29.268  20.191 -0.1296 -0.0150 -0.3684
28040W        W70978  26.168  31.225  17.097  0.2642 -0.0242  0.1304
28041W        W70979  26.939  31.048  18.927  0.1121 -0.3760 -0.0746
28042W        W70980  28.768  33.093  17.860 -0.0714 -0.4675  0.3787
28043W        W70981  26.521  30.626  19.784  0.1215 -0.2510  0.1782
28044W        W70982  25.064  29.915  19.541 -0.0795 -0.2092  0.3980
28045W        W70983  28.098  32.801  16.952 -0.1860 -0.1054  0.0385
28046W        W70984  28.783  32.162  18.721 -0.0363 -0.2880 -0.0040
28047W        W70985  26.717  29.547  17.478  0.0852  0.3185 -0.0725
28048W        W70986  27.870  32.493  18.954  0.0750  0.2281 -0.0181
28049W        W70987  25.175  32.560  16.896  0.0043 -0.1400 -0.1531
28050W        W70988  27.720  29.827  20.996 -0.0133 -0.0435  0.1136
28051W        W70989  25.867  30.330  21.138  0.1049  0.0139 -0.1155
28052W        W70990  23.092  30.856  18.079 -0.2287 -0.0845  0.1312
28053W        W70991  26.544  32.689  18.577 -0.1427 -0.0492 -0.0676
28054W        W70992  26.314  33.687  17.374 -0.0653 -0.1180 -0.1683
28055W        W70993  28.947  31.685  17.019 -0.0462  0.0615  0.0552
28056W        W70994  26.759  30.943  19.465  0.1216 -0.2663  0.2576
28057W        W70995  27.571  32.891  19.099 -0.1631 -0.0301 -0.0043
28058W        W70996  24.670  30.186  20.704  0.0794 -0.3750  0.1980
28059W        W70997  28.189  32.237  17.023 -0.3743  0.0247 -0.0025
28060W        W70998  27.564  32.589  20.889 -0.0916  0.2721  0.3208
28061W        W70999  28.638  31.465  18.050  0.1813 -0.2424 -0.5401
28062W        W71000  29.008  28.974  18.944  0.0431 -0.1655 -0.0203
28063W        W71001  28.271  31.772  18.161  0.2518 -0.0446 -0.2373
28064W        W71002  27.023  30.650  19.782 -0.2978  0.1883 -0.2403
28065W        W71003  26.683  31.836  21.134 -0.0089  0.3223 -0.2599
28066W        W71004  27.482  32.353  18.322  0.2256  0.0734 -0.0070
28067W        W71005  25.939  30.222  17.985 -0.0652  0.0867  0.0408
28068W        W71006  28.167  31.047  17.302  0.1506  0.1702  0.0008
28069W        W71007  28.918  33.807  18.561  0.0608 -0.0765  0.2270
28070W        W71008  24.597  31.490  19.517 -0.2694  0.1606  0.1289
28071W        W71009  27.233  29.390  17.413 -0.0868  0.0832  0.0266
28072W        W71010  27.161  32.785  19.441 -0.0534  0.2545  0.2827
28073W        W71011  27.073  33.078  17.651  0.1939 -0.1807 -0.0034
28074W        W71012  28.192  31.793  20.908 -0.2132  0.2128  0.3826
28075W        W71013  28.565  30.506  19.025  0.0117 -0.0253 -0.1489
28076W        W71014  27.819  31.250  18.762 -0.2036  0.4184 -0.0770
28077W        W71015  26.539  34.593  18.316  0.0383  0.0085  0.2648
28078W        W71016  29.474  33.674  20.142  0.1924  0.0397 -0.2623
28079W        W71017  28.446  32.383  18.313  0.2095  0.0045  0.3058
28080W        W71018  27.105  30.572  18.282 -0.1309  0.0291  0.1947
28081W        W71019  26.026  28.969  18.991  0.1186  0.2930 -0.1538
28082W        W71020  27.207  30.993  17.158 -0.2344  0.1101  0.2498
28083W        W71021  27.406  32.746  17.461 -0.1786  0.1109  0.2800
28084W        W71022  28.998  30.409  18.725  0.1118  0.1279 -0.2226
28085W        W71023  25.371  30.455  20.401  0.0749  0.0902  0.2141
28086W        W71024  28.024  29.431  17.350 -0.1121  0.1529 -0.1488
28087W        W71025  27.698  33.018  20.056 -0.2270 -0.0310  0.2479
28088W        W71026  27.842  30.847  18.483 -0.0725  0.2609 -0.0369
28089W        W71027  25.453  31.372  20.715  0.0534 -0.1741  0.4284
28090W        W71028  26.056  30.271  21.634  0.2086 -0.1666  0.0955
28091W        W71029  27.593  30.085  18.963 -0.2245 -0.0711 -0.0730
28092W        W71030  31.036  30.931  20.977 -0.1327 -0.2493  0.0406
28093W        W71031  25.935  32.251  21.997 -0.1958 -0.1466  0.1784
28094W        W71032  27.898  33.310  20.492  0.0485  0.0614  0.1356
28095W        W71033  26.156  28.494  23.939 -0.1732  0.0214 -0.0234
28096W        W71034  26.412  32.560  21.228 -0.2647  0.2159 -0.2057
28097W        W71035  26.771  32.070  21.601 -0.0663  0.0899 -0.0713
28098W        W71036  27.352  31.065  20.189  0.1269  0.1014  0.2864
28099W        W71037  26.560  31.295  23.801  0.3286 -0.1433  0.0228
28100W        W71038  28.105  32.320  23.622  0.1211 -0.3730 -0.0981
28101W        W71039  27.458  30.451  20.804 -0.0541  0.0235 -0.1806
28102W        W71040  25.479  29.087  23.263 -0.0239  0.2585  0.4658
28103W        W71041  28.636  29.621  23.166  0.0450  0.1726  0.0239
28104W        W71042  25.975  31.640  20.213  0.3060 -0.0326 -0.0775
28105W        W71043  26.410  31.325  22.220  0.2114  0.1268 -0.2196
28106W        W71044  27.765  30.999  21.428 -0.2289  0.0499  0.1786
28107W        W71045  28.219  31.979  20.275 -0.2025 -0.1405 -0.1609
28108W        W71046  27.258  29.804  23.124 -0.1884  0.0695 -0.0368
28109W        W71047  26.054  28.666  22.210 -0.0360  0.0209 -0.0552
28110W        W71048  26.462  33.266  20.605 -0.0076 -0.1816 -0.4112
28111W        W71049  27.019  30.741  20.389  0.0846  0.1954  0.5814
28112W        W71050  24.642  30.748  23.625  0.0310 -0.1854  0.1649
28113W        W71051  27.579  31.890  22.951 -0.1520  0.2545 -0.0064
28114W        W71052  28.235  28.354  23.602  0.1520  0.1243  0.1011
28115W        W71053  29.535  31.899  20.963  0.0453  0.1897  0.0125
28116W        W71054  26.568  32.557  20.569  0.0446  0.3197  0.3539
28117W        W71055  28.896  32.878  19.894 -0.1295  0.1743  0.2898
28118W        W71056  29.515  30.157  22.971 -0.1319 -0.1262  0.1565
28119W        W71057  26.055  31.199  23.152 -0.0694  0.0491  0.0914
28120W        W71058  25.559  33.103  21.483 -0.1208  0.0629 -0.2226
28121W        W71059  28.339  33.086  20.124  0.1918  0.0625  0.0041
28122W        W71060  30.900  31.958  21.018  0.2165 -0.1989 -0.1371
28123W        W71061  28.782  33.041  23.372 -0.3653 -0.1102 -0.1675
28124W        W71062  25.896  32.349  23.725 -0.0319  0.1558  0.1219
28125W        W71063  25.067  32.200  20.351  0.1146  0.1573 -0.1531
28126W        W71064  27.551  33.077  24.230  0.0311 -0.2400 -0.0954
28127W        W71065  25.571  32.187  22.907 -0.2557  0.0478  0.0532
28128W        W71066  28.605  31.917  22.322  0.0039  0.3363  0.1522
28129W        W71067  25.736  31.736  22.629 -0.3213  0.1827 -0.2142
28130W        W71068  26.626  32.866  19.257  0.0606 -0.1213 -0.0352
28131W        W71069  26.483  31.334  19.319  0.2849  0.0943  0.0765
28132W        W71070  26.859  30.837  23.763 -0.2190 -0.0665  0.3005
28133W        W71071  24.861  33.298  22.514  0.2551  0.0789  0.0645
28134W        W71072  28.497  30.094  24.286  0.1323  0.2099 -0.1652
28135W        W71073  26.661  32.141  19.958  0.0802 -0.1551  0.3134
28136W        W71074  27.714  30.678  20.476  0.0793  0.3441 -0.1013
28137W        W71075  26.274  29.639  18.812  0.3648  0.2126  0.1595
28138W        W71076  28.637  31.406  21.193  0.0963  0.5435  0.0785
28139W        W71077  27.610  29.423  22.240 -0.2447 -0.1100  0.0596
28140W        W71078  27.441  33.535  21.322 -0.0903 -0.1487 -0.2044
28141W        W71079  27.048  30.376  21.090  0.0283  0.1630  0.1680
28142W        W71080  28.587  32.146  23.607  0.4486 -0.2932  0.0927
28143W        W71081  27.355  32.675  19.870 -0.0136  0.0007  0.0878
28144W        W71082  27.174  29.687  22.359  0.0689  0.1763  0.2230
28145W        W71083  24.959  32.172  21.633  0.0252  0.0168 -0.0584
28146W        W71084  24.878  30.665  23.010 -0.2490 -0.0510  0.2395
28147W        W71085  27.866  32.233  20.526  0.0659 -0.2480  0.0766
28148W        W71086  27.879  32.312  21.767 -0.2506 -0.1259 -0.3050
28149W        W71087  28.274  32.493  19.372  0.1509  0.3114 -0.0022
28150W        W71088  25.741  31.292  21.654 -0.0242  0.1005 -0.2240
28151W        W71089  24.096  31.909  22.071  0.0259  0.1328  0.0137
28152W        W71090  25.894  30.553  24.939  0.0905  0.1494  0.2129
28153W        W71091  25.002  29.928  20.015 -0.1362 -0.1953 -0.0271
28154W        W71092  27.264  31.545  22.179 -0.1575 -0.0759  0.2886
28155W        W71093  24.519  33.319  23.530  0.1400 -0.3255 -0.2127
28156W        W71094  27.418  29.018  21.194  0.2070  0.1821  0.2872
28157W        W71095  25.031  31.829  22.082  0.1326  0.1115 -0.1009
28158W        W71096  29.571  32.691  23.260 -0.1055  0.0675  0.3982
28159W        W71097  27.519  32.228  17.598  0.3581  0.2677  0.0528
28160W        W71098  29.452  29.143  21.897  0.0394 -0.0869  0.1101
28161W        W71099  28.445  29.381  22.666  0.2632  0.2032 -0.0756
28162W        W71100  26.836  30.369  19.433  0.2248  0.2902  0.0699
28163W        W71101  25.804  31.321  22.332  0.0185 -0.0274  0.2887
28164W        W71102  29.837  32.445  24.308  0.0017 -0.1497 -0.1476
28165W        W71103  29.211  31.988  20.217  0.1429 -0.4107  0.1143
28166W        W71104  25.224  32.997  22.327  0.1312 -0.0445 -0.0193
28167W        W71105  27.024  30.157  22.470  0.1372 -0.0714  0.3621
28168W        W71106  26.043  32.176  23.274 -0.0502 -0.0835 -0.4408
28169W        W71107  26.522  32.937  20.255 -0.0358  0.1491  0.0784
28170W        W71108  24.888  32.435  21.222 -0.2220  0.0752 -0.1298
28171W        W71109  24.951  31.728  20.240 -0.0220  0.0452 -0.0064
28172W        W71110  25.588  29.510  22.745  0.3721  0.2703  0.1195
28173W        W71111  24.660  31.647  23.005  0.0643 -0.0080  0.2706
28174W        W71112  28.573  29.676  20.067 -0.2106  0.2010  0.3441
28175W        W71113  27.203  29.325  22.773 -0.0263  0.0597  0.1521
28176W        W71114  29.380  30.450  22.631 -0.1698  0.1200  0.0635
28177W        W71115  25.869  31.588  20.694 -0.3722  0.0651 -0.2412
28178W        W71116  28.378  32.594  21.667 -0.1912 -0.1425  0.0687
28179W        W71117  28.289  29.544  20.556  0.4837  0.0346  0.2606
28180W        W71118  28.729  32.751  18.481  0.1282 -0.2223  0.2918
28181W        W71119  25.436  30.831  23.145  0.0457  0.3580  0.1760
28182W        W71120  26.100  30.839  21.887 -0.2239  0.1215 -0.2147
28183W        W71121  25.784  29.663  20.623 -0.3240  0.0724 -0.1102
28184W        W71122  23.842  30.334  21.498 -0.5098 -0.1392  0.0983
28185W        W71123  27.754  31.767  23.458  0.2308 -0.0556  0.0688
28186W        W71124  25.808  30.012  20.238  0.1073 -0.2522 -0.3671
28187W        W71125  28.907  30.903  21.128  0.1292  0.0007  0.0308
28188W        W71126  27.284  32.116  21.065 -0.4119 -0.2957  0.0171
28189W        W71127  26.265  31.829  19.856 -0.1300  0.3574  0.0409
28190W        W71128  27.915  30.320  23.561 -0.2289  0.2955 -0.2234
28191W        W71129  27.915  32.148  19.346  0.0950  0.1933  0.4657
28192W        W71130  30.494  32.901  23.666  0.0239 -0.0983  0.0725
28193W        W71131  28.428  32.786  21.145  0.3519  0.0589  0.0233
28194W        W71132  25.571  30.384  22.877  0.0102 -0.0149  0.1429
28195W        W71133  27.841  30.908  20.077 -0.2150  0.0471  0.0946
28196W        W71134  25.303  33.587  21.423  0.0966  0.4073  0.1734
28197W        W71135  26.174  31.427  21.818 -0.0325  0.0563 -0.1783
28198W        W71136  26.232  31.287  21.049  0.2549  0.1461 -0.0803
28199W        W71137  27.625  33.257  21.747  0.0908  0.2795  0.0091
28200W        W71138  26.484  31.891  21.928 -0.3055  0.0159  0.2559
28201W        W71139  25.732  31.905  23.572  0.2168 -0.0769  0.1422
28202W        W71140  27.933  28.536  22.904  0.4930 -0.1837 -0.0488
28203W        W71141  28.476  30.859  22.354  0.1308  0.4343 -0.0338
28204W        W71142  27.246  32.883  21.640  0.0418 -0.0413 -0.2296
28205W        W71143  24.791  30.689  21.580 -0.0515 -0.0473  0.0454
28206W        W71144  28.376  32.329  20.664 -0.1413  0.0246 -0.1666
28207W        W71145  24.215  33.463  21.487  0.0711  0.0019  0.0128
28208W        W71146  25.843  31.824  21.610  0.0328  0.0389  0.0168
28209W        W71147  26.421  32.201  20.864 -0.0456 -0.2126 -0.1782
28210W        W71148  29.068  29.368  20.942  0.1915 -0.1501 -0.1214
28211W        W71149  25.694  31.672  24.637 -0.2854 -0.1090  0.2787
28212W        W71150  28.068  31.597  24.608 -0.0959  0.0325  0.0303
28213W        W71151  25.903  32.292  21.456 -0.1877  0.1669  0.3665
28214W        W71152  25.103  31.479  22.485  0.2502 -0.0267 -0.0816
28215W        W71153  27.653  28.944  20.467  0.1913  0.3386  0.1152
28216W        W71154  28.496  30.577  20.900  0.1073 -0.0585  0.1078
28217W        W71155  28.540  31.403  24.127 -0.0771 -0.1620  0.2441
28218W        W71156  29.592  32.334  19.573  0.1055  0.0525  0.2124
28219W        W71157  27.494  30.947  22.225  0.1683  0.2883 -0.0229
28220W        W71158  27.380  30.338  19.655  0.1255  0.1471  0.3728
28221W        W71159  24.665  32.028  24.314 -0.2921  0.1052 -0.1193
28222W        W71160  27.734  32.395  20.040  0.1660 -0.0513 -0.1013
28223W        W71161  25.627  31.254  22.865 -0.2525 -0.1471 -0.3047
28224W        W71162  29.565  32.343  20.115 -0.0413 -0.1740  0.1525
28225W        W71163  28.804  32.574  20.767  0.2241 -0.1140 -0.2851
28226W        W71164  26.190  30.916  22.489 -0.0650  0.2019  0.2030
28227W        W71165  26.378  32.211  22.503  0.1559  0.0667  0.0714
28228W        W71166  28.785  32.915  21.522  0.0871 -0.3709 -0.1141
28229W        W71167  28.596  31.529  21.779 -0.0889  0.0982 -0.0760
28230W        W71168  27.632  31.272  20.539  0.1077 -0.1883 -0.0999
28231W        W71169  27.915  30.244  21.261  0.1670  0.0607  0.2332
28232W        W71170  24.174  32.081  18.772  0.3731  0.0370  0.0200
28233W        W71171  27.902  29.161  23.083  0.1930  0.1345  0.0460
28234W        W71172  28.156  30.644  21.379 -0.2002 -0.4213 -0.2313
28235W        W71173  28.391  29.632  21.691 -0.1167 -0.0628 -0.1986
28236W        W71174  27.935  30.004  22.839 -0.1404  0.0839 -0.3338
28237W        W71175  26.809  31.731  22.757 -0.0999  0.1072 -0.1656
28238W        W71176  28.079  31.589  22.094 -0.1577  0.1302 -0.4244
28239W        W71177  27.118  28.502  19.794  0.1109 -0.1163 -0.1799
28240W        W71178  28.021  29.050  22.530  0.1698  0.0840  0.0165
28241W        W71179  25.128  30.970  24.527  0.0266 -0.0835  0.1916
28242W        W71180  24.252  32.838  21.915  0.1694  0.1788 -0.0815
28243W        W71181  28.360  32.287  22.458 -0.0145 -0.4467  0.1334
28244W        W71182  28.251  31.125  21.991 -0.1210 -0.2579  0.1371
28245W        W71183  28.166  29.580  23.019  0.0153  0.1273 -0.1081
28246W        W71184  28.167  29.569  21.087 -0.1987 -0.1396 -0.1287
28247W        W71185  25.814  32.779  21.246 -0.0524 -0.0855 -0.1959
28248W        W71186  25.067  33.335  20.137 -0.2819  0.1243 -0.2441
28249W        W71187  26.170  30.726  21.352 -0.0408 -0.0184 -0.0436
28250W        W71188  26.183  31.904  22.882  0.0695  0.0814 -0.0138
28251W        W71189  26.990  31.992  19.569 -0.2745 -0.0174 -0.0635
28252W        W71190  27.589  31.500  21.445  0.0159  0.0880 -0.0840
28253W        W71191  25.293  33.100  20.517 -0.1569  0.3751 -0.0764
28254W        W71192  28.010  29.164  21.348  0.1978  0.1903 -0.1381
28255W        W71193  25.124  33.653  19.311 -0.0484 -0.0068  0.1718
28256W        W71194  28.180  31.396  20.472  0.1742 -0.2150 -0.0525
28257W        W71195  24.529  31.294  20.132 -0.0996  0.2383  0.0704
28258W        W71196  27.580  29.521  21.367  0.2598  0.0940  0.1826
28259W        W71197  28.021  30.451  20.851  0.0360 -0.0674 -0.1272
28260W        W71198  26.919  29.402  23.196  0.0459 -0.2849 -0.0785
28261W        W71199  27.280  31.241  21.686 -0.2047  0.1701 -0.1381
28262W        W71200  24.902  32.291  22.291 -0.2094  0.0043 -0.1417
28263W        W71201  27.983  31.487  22.977 -0.1532  0.2120 -0.0461
28264W        W71202  28.416  29.140  20.951 -0.1666  0.3053  0.1239
28265W        W71203  26.025  33.441  21.701  0.3118  0.0267 -0.2392
28266W        W71204  27.287  30.431  22.824 -0.1637 -0.1659  0.1343
28267W        W71205  24.317  29.600  21.079  0.1694  0.0210 -0.1639
28268W        W71206  29.413  29.894  23.415  0.4569  0.2434 -0.2628
28269W        W71207  27.156  31.646  21.333  0.3888  0.0424  0.2417
28270W        W71208  24.740  32.922  22.166  0.0908  0.0621  0.1269
28271W        W71209  26.199  32.987  21.447  0.0724 -0.0791 -0.4536
28272W        W71210  25.505  30.982  20.458  0.1555  0.0544  0.2278
28273W        W71211  25.331  31.695  21.647 -0.1741 -0.0886  0.1487
28274W        W71212  26.455  30.499  23.353  0.1050  0.0351 -0.1214
28275W        W71213  27.610  31.487  23.839 -0.0289 -0.0747 -0.4217
28276W        W71214  27.046  30.398  21.647  0.0097  0.3071 -0.2061
28277W        W71215  26.566  30.649  21.694  0.0834  0.2035  0.2845
28278W        W71216  26.731  31.245  22.586 -0.0090  0.2257  0.2106
28279W        W71217  25.418  32.048  22.384 -0.1233 -0.3903 -0.3150
28280W        W71218  27.048  29.999  21.984  0.3691 -0.0119  0.1715
28281W        W71219  24.949  32.295  23.537  0.0712 -0.1963 -0.0854
28282W        W71220  28.587  31.033  21.590 -0.1653  0.1029  0.3970
28283W        W71221  29.282  32.309  20.632 -0.0841 -0.1183 -0.2898
28284W        W71222  28.212  31.793  22.626 -0.3320  0.0437  0.2206
28285W        W71223  26.753  31.140  20.265  0.1454 -0.3305 -0.1154
28286W        W71224  24.387  29.503  21.744  0.1604  0.1424  0.1205
28287W        W71225  26.468  30.740  20.284  0.1335 -0.1520 -0.0692
28288W        W71226  26.939  31.337  23.009  0.0559 -0.0597  0.1872
28289W        W71227  24.892  30.898  24.072  0.4046  0.1712 -0.0869
28290W        W71228  25.706  32.238  20.344  0.2035 -0.1230 -0.0274
28291W        W71229  24.778  31.682  21.621  0.0227  0.0691  0.0886
28292W        W71230  26.655  28.132  20.632 -0.2340 -0.1242 -0.6276
28293W        W71231  27.066  31.872  19.048  0.2017  0.2419  0.1902
28294W        W71232  26.394  31.602  21.439  0.1169  0.0196 -0.3027
28295W        W71233  28.973  30.351  23.523  0.0190 -0.0992  0.0800
28296W        W71234  26.811  31.201  21.224 -0.0110 -0.2209 -0.1585
28297W        W71235  28.929  30.842  23.481 -0.1367  0.1506 -0.1093
28298W        W71236  26.139  29.955  22.116 -0.2306 -0.1284 -0.2964
28299W        W71237  29.647  31.834  20.417 -0.2607 -0.1806 -0.0657
28300W        W71238  25.766  30.390  25.543 -0.2779 -0.0501 -0.1061
28301W        W71239  28.252  34.242  23.198 -0.1273  0.1956 -0.0199
28302W        W71240  25.879  30.888  23.895  0.0372 -0.0163  0.1091
28303W        W71241  27.575  32.504  21.377  0.0815 -0.0032  0.1088
28304W        W71242  27.304  30.871  19.436  0.0974  0.1623 -0.1567
28305W        W71243  26.943  31.198  22.093 -0.0123 -0.0538 -0.0529
28306W        W71244  28.606  30.901  22.880 -0.2597 -0.1264 -0.2290
28307W        W71245  26.946  32.336  19.218  0.3180 -0.1122  0.1304
28308W        W71246  28.386  31.988  21.910 -0.4260  0.1396 -0.2638
28309W        W71247  25.383  30.357  23.332 -0.1114 -0.0345 -0.0552
28310W        W71248  28.173  31.369  21.508 -0.1930 -0.3709 -0.2332
28311W        W71249  27.494  32.449  19.325 -0.3114 -0.1032  0.1450
28312W        W71250  25.303  30.428  21.934  0.0457 -0.1799 -0.3294
28313W        W71251  25.349  29.809  24.165 -0.0728  0.0997  0.2298
28314W        W71252  29.355  31.641  21.674  0.0783 -0.5156 -0.4209
28315W        W71253  28.659  29.614  20.927 -0.3638  0.1331 -0.3448
28316W        W71254  27.949  29.545  21.867 -0.0421  0.1217 -0.3076
28317W        W71255  28.310  29.904  23.779  0.1009 -0.3008  0.0796
28318W        W71256  26.036  29.330  23.001 -0.0308  0.2563  0.0477
28319W        W71257  24.629  30.940  24.503  0.0050 -0.0372  0.0924
28320W        W71258  28.047  33.457  22.704 -0.3313 -0.1924 -0.0242
28321W        W71259  28.214  30.919  20.598  0.1885  0.3172 -0.1504
28322W        W71260  29.762  30.769  22.476 -0.0981  0.0082 -0.2018
28323W        W71261  29.081  32.039  21.855 -0.0423  0.0162  0.1285
28324W        W71262  28.052  31.232  19.222 -0.1304  0.0139 -0.5119
28325W        W71263  25.370  29.925  22.871  0.3257 -0.0767  0.2266
28326W        W71264  28.358  30.389  22.752 -0.2303  0.0601  0.1871
28327W        W71265  27.302  29.992  20.815  0.3204 -0.1249  0.0580
28328W        W71266  27.822  30.489  22.789 -0.3391 -0.0882 -0.1272
28329W        W71267  27.848  32.739  20.519  0.2104 -0.0769 -0.1125
28330W        W71268  26.234  31.754  22.329  0.1138 -0.1682 -0.0982
28331W        W71269  27.590  29.901  22.495  0.3241  0.0063  0.0657
28332W        W71270  25.601  31.127  19.879  0.1921 -0.1996 -0.0634
28333W        W71271  26.567  31.845  23.639 -0.0778 -0.0248  0.0237
28334W        W71272  26.639  30.059  20.384  0.3444  0.0101  0.1322
28335W        W71273  27.141  32.217  20.086  0.0489 -0.0844 -0.0399
28336W        W71274  26.952  33.009  20.487 -0.0976 -0.1798  0.2328
28337W        W71275  27.806  31.982  24.460 -0.0593 -0.2557 -0.0928
28338W        W71276  26.952  28.989  20.199  0.1189  0.1936  0.2333
28339W        W71277  27.966  30.813  23.918  0.1736 -0.1739 -0.0527
28340W        W71278  26.345  33.031  19.688 -0.2104  0.1868  0.2220
28341W        W71279  26.496  27.612  20.708  0.4214  0.0876  0.0621
28342W        W71280  26.074  32.690  22.553  0.2178  0.0273 -0.0549
28343W        W71281  24.092  32.161  22.488 -0.1289 -0.0278  0.1647
28344W        W71282  24.541  31.702  21.109 -0.0350  0.0731 -0.0595
28345W        W71283  28.638  29.633  22.230  0.1352 -0.0388 -0.2552
28346W        W71284  27.300  31.339  22.634  0.2653  0.0744 -0.0627
28347W        W71285  26.404  30.202  21.282 -0.2748 -0.4453  0.0754
28348W        W71286  29.056  32.772  23.835 -0.0500 -0.0782  0.1603
28349W        W71287  27.003  31.735  23.340  0.0024 -0.1341  0.2103
28350W        W71288  25.576  29.999  21.954  0.1559  0.0323 -0.0045
28351W        W71289  28.835  32.382  22.559  0.2379 -0.0988  0.0466
28352W        W71290  29.736  30.365  22.109 -0.1183  0.2237 -0.2610
28353W        W71291  25.113  31.921  21.205  0.0970 -0.0516  0.1543
28354W        W71292  24.910  30.073  22.668 -0.1515  0.0959 -0.0613
28355W        W71293  26.795  29.377  23.755  0.1379 -0.1606  0.0142
28356W        W71294  28.798  32.152  20.431  0.1392  0.1061  0.0265
28357W        W71295  25.298  29.491  19.416 -0.1518  0.2029 -0.3055
28358W        W71296  26.513  31.853  19.249 -0.1880 -0.0483  0.0845
28359W        W71297  24.566  31.754  22.406 -0.0087  0.0323  0.0101
28360W        W71298  25.727  30.447  22.136 -0.0805  0.1988 -0.1877
28361W        W71299  25.832  32.673  20.046 -0.3043 -0.2259  0.0249
28362W        W71300  26.034  31.797  21.147  0.0528 -0.0479  0.1023
28363W        W71301  26.720  31.506  20.733 -0.0442 -0.0999 -0.0185
28364W        W71302  26.242  33.966  21.599  0.0284 -0.0918 -0.1091
28365W        W71303  26.480  31.153  21.612  0.1143  0.1407  0.2101
28366W        W71304  25.195  32.595  21.890 -0.0820  0.3941 -0.1212
28367W        W71305  24.828  33.184  20.594 -0.0103  0.0434 -0.0490
28368W        W71306  27.343  32.075  20.559  0.0909  0.1740 -0.0816
28369W        W71307  24.142  32.346  21.848  0.1488 -0.0524  0.3448
28370W        W71308  27.582  32.476  24.286  0.1362 -0.2006 -0.1215
28371W        W71309  27.912  28.727  20.029  0.2658  0.0699 -0.1029
28372W        W71310  27.207  31.192  23.431  0.0447 -0.0211  0.1969
28373W        W71311  28.629  30.045  20.520 -0.0976 -0.2951 -0.2347
28374W        W71312  27.941  32.955  22.848 -0.2586  0.2166 -0.2270
28375W        W71313  26.627  31.718  24.086  0.2893  0.2113 -0.0600
28376W        W71314  27.399  30.749  21.786 -0.1121  0.1796 -0.0008
28377W        W71315  27.212  31.514  24.721  0.2614 -0.1064 -0.3608
28378W        W71316  27.720  29.862  23.317 -0.1399 -0.0829 -0.0351
28379W        W71317  25.176  31.557  22.999 -0.2351  0.0624  0.1734
28380W        W71318  28.193  32.179  19.806  0.4701  0.1073  0.0003
28381W        W71319  25.146  31.731  19.574  0.1133  0.3231  0.2813
28382W        W71320  26.482  30.932  22.994 -0.1324 -0.0687 -0.1402
28383W        W71321  29.433  29.271  23.576  0.0075 -0.1595 -0.0333
28384W        W71322  27.418  31.208  21.140  0.0892  0.2199  0.2055
28385W        W71323  27.555  30.163  22.000 -0.0519 -0.1218  0.1908
28386W        W71324  26.144  32.967  20.878  0.1402 -0.1620  0.1553
28387W        W71325  25.419  32.163  21.834 -0.0378  0.1761 -0.0517
28388W        W71326  25.724  33.137  22.524  0.0269 -0.1225  0.0160
28389W        W71327  25.304  31.349  22.022 -0.0910  0.2966  0.0226
28390W        W71328  28.989  31.291  21.597 -0.0306 -0.1895 -0.0037
28391W        W71329  26.566  30.584  22.663 -0.0914 -0.1000  0.2476
28392W        W71330  28.387  29.185  23.285  0.1300  0.0059 -0.2478
28393W        W71331  26.280  31.455  22.713  0.0955 -0.1558  0.2396
28394W        W71332  28.100  29.964  20.707 -0.0010  0.1956 -0.3000
28395W        W71333  28.484  29.877  22.709 -0.2501  0.0730  0.0151
28396W        W71334  27.118  29.361  21.401  0.3401  0.0369  0.1265
28397W        W71335  27.885  31.533  20.115  0.2781 -0.4104  0.0150
28398W        W71336  28.852  31.828  22.713  0.1958 -0.0968 -0.1265
28399W        W71337  27.414  31.302  19.129  0.0921  0.1314 -0.1281
28400W        W71338  27.258  32.442  22.634 -0.2859  0.2903  0.1973
28401W        W71339  25.492  30.196  21.517 -0.1001 -0.0308 -0.1461
28402W        W71340  28.383  29.966  21.210 -0.0156  0.3289 -0.0778
28403W        W71341  24.474  30.965  23.103 -0.2229  0.0985 -0.2126
28404W        W71342  27.541  31.363  23.074  0.2935 -0.0360  0.1223
28405W        W71343  28.342  33.125  23.103  0.0375  0.0583 -0.1296
28406W        W71344  25.645  30.639  21.667 -0.0183 -0.0847  0.0191
28407W        W71345  29.942  31.401  20.148 -0.1045 -0.1056 -0.5517
28408W        W71346  28.299  31.041  21.066  0.2122 -0.1407 -0.2252
28409W        W71347  28.029  32.617  20.945  0.0033 -0.2893  0.0504
28410W        W71348  29.239  32.551  21.784  0.0337 -0.1342 -0.1925
28411W        W71349  27.473  32.237  22.102 -0.5309  0.0360  0.0360
28412W        W71350  26.272  30.246  22.961 -0.1163  0.0978  0.0582
28413W        W71351  26.337  32.100  21.382  0.0700 -0.0971  0.0538
28414W        W71352  28.711  33.210  23.923  0.0563 -0.0731 -0.0851
28415W        W71353  27.204  29.071  20.624  0.0713  0.2889  0.1759
28416W        W71354  26.822  31.560  21.679 -0.0712  0.2713 -0.3317
28417W        W71355  25.092  33.061  21.617 -0.4386 -0.0669 -0.0086
28418W        W71356  29.642  28.552  22.143  0.3266 -0.2042 -0.0736
28419W        W71357  29.884  30.305  22.594 -0.0417 -0.0546 -0.1131
28420W        W71358  27.172  33.304  19.206  0.2678  0.0668  0.0600
28421W        W71359  29.971  28.239  24.259 -0.1380  0.0246 -0.4147
28422W        W71360  26.175  31.665  23.407 -0.2211  0.0070  0.0302
28423W        W71361  25.601  33.174  23.286 -0.1321  0.2016  0.2459
28424W        W71362  26.271  30.656  20.771 -0.0479 -0.1177 -0.1091
28425W        W71363  27.985  30.262  22.341  0.1787  0.2103 -0.1362
28426W        W71364  26.757  32.571  19.646  0.2732 -0.1284 -0.1352
28427W        W71365  25.952  33.378  21.190  0.0701 -0.2624  0.2211
28428W        W71366  27.133  32.367  21.664  0.0050  0.4858 -0.1743
28429W        W71367  27.408  32.557  20.405  0.2689  0.0166  0.1873
28430W        W71368  28.315  32.869  22.481 -0.2391 -0.1429 -0.1611
28431W        W71369  26.611  30.879  22.208 -0.0193 -0.2143  0.1792
28432W        W71370  29.498  28.739  20.862  0.1785  0.2739  0.0165
28433W        W71371  27.401  28.940  19.991 -0.2789  0.1386 -0.0352
28434W        W71372  26.047  30.924  24.549  0.2448  0.0715  0.3306
28435W        W71373  24.986  30.915  21.928 -0.0618 -0.2702 -0.3328
28436W        W71374  26.697  31.612  19.754 -0.1356  0.0963 -0.1636
28437W        W71375  25.176  30.816  22.661 -0.0446 -0.0365  0.1961
28438W        W71376  27.335  29.837  24.418 -0.2197 -0.0599 -0.0243
28439W        W71377  24.479  31.297  22.658  0.1468  0.3562 -0.0591
28440W        W71378  24.301  30.062  23.052 -0.2543 -0.1517  0.1412
28441W        W71379  25.686  31.775  22.072  0.0471 -0.1099  0.1240
28442W        W71380  27.808  31.780  20.561  0.1375 -0.0077 -0.0456
28443W        W71381  26.396  28.887  21.242 -0.3073 -0.1476  0.0494
28444W        W71382  24.343  28.894  22.906 -0.0137  0.0543  0.0233
28445W        W71383  27.765  32.065  21.003  0.1415 -0.1842  0.0952
28446W        W71384  28.966  31.409  20.307  0.1115 -0.0220  0.0115
28447W        W71385  26.683  29.913  20.881  0.1590 -0.0201  0.2290
28448W        W71386  29.093  31.699  23.176 -0.0423  0.1719  0.1271
28449W        W71387  25.024  32.026  18.578 -0.1029  0.2246 -0.1555
28450W        W71388  27.695  31.054  22.724  0.0436 -0.2036  0.1250
28451W        W71389  27.045  30.906  22.782  0.3534  0.1557 -0.1701
28452W        W71390  26.897  29.498  20.362 -0.3143 -0.0269 -0.0063
28453W        W71391  27.679  29.476  22.789  0.1169 -0.0548 -0.3115
28454W        W71392  25.940  32.340  20.983 -0.0586 -0.2096 -0.0356
28455W        W71393  28.168  34.304  20.303  0.2409  0.3107 -0.1603
28456W        W71394  25.412  32.326  21.292  0.0385  0.0636 -0.1738
28457W        W71395  26.700  32.373  22.000 -0.1126 -0.1587 -0.2342
28458W        W71396  24.807  28.666  23.063  0.2592 -0.0249  0.3034
28459W        W71397  29.163  31.427  21.139  0.0633 -0.1412 -0.0425
28460W        W71398  27.469  32.650  23.437 -0.1555 -0.1784  0.1148
28461W        W71399  30.624  31.360  20.001  0.0237  0.2723  0.0120
28462W        W71400  27.753  27.953  22.854  0.0100  0.2142 -0.3046
28463W        W71401  28.377  30.733  19.913  0.0005  0.2580 -0.1038
28464W        W71402  25.234  29.439  23.677  0.0076 -0.2713  0.4465
28465W        W71403  25.243  32.822  21.048 -0.1046  0.3084 -0.0004
28466W        W71404  29.289  31.599  22.676  0.1020 -0.0401  0.0320
28467W        W71405  25.010  29.598  22.741 -0.0798 -0.4063  0.0176
28468W        W71406  27.484  30.497  22.336 -0.1380  0.2212 -0.0496
28469W        W71407  28.835  33.088  21.007 -0.0142 -0.2420  0.0556
28470W        W71408  25.435  30.886  23.627  0.0831 -0.2251 -0.1876
28471W        W71409  26.780  31.684  22.264  0.0940 -0.0694 -0.2867
28472W        W71410  25.742  30.030  22.457  0.0789  0.1707 -0.0272
28473W        W71411  28.841  32.430  21.429 -0.0196  0.1814  0.0646
28474W        W71412  28.106  32.480  22.840  0.2465 -0.2331 -0.0041
28475W        W71413  26.701  30.455  20.679 -0.1175 -0.0245  0.0291
28476W        W71414  29.952  32.129  22.453  0.2397  0.1024 -0.3096
28477W        W71415  26.594  32.048  23.153  0.5019  0.0848 -0.1068
28478W        W71416  27.592  33.589  22.917  0.1219  0.0588  0.0726
28479W        W71417  26.762  32.539  23.165 -0.0569  0.0358 -0.0372
28480W        W71418  30.112  31.689  22.093  0.2024 -0.0010 -0.3394
28481W        W71419  25.617  28.975  22.725 -0.4180  0.0557 -0.0572
28482W        W71420  25.123  31.352  19.941 -0.2058 -0.2953 -0.2119
28483W        W71421  27.230  29.904  20.358  0.1149 -0.0019 -0.2577
28484W        W71422  27.772  31.290  21.855  0.2493 -0.2203 -0.1612
28485W        W71423  26.471  29.361  22.593 -0.1709 -0.0537 -0.2677
28486W        W71424  27.828  29.640  20.407 -0.0013  0.1732  0.1413
28487W        W71425  27.469  33.147  23.791  0.0129  0.0274  0.1517
28488W        W71426  26.507  33.517  21.691 -0.2405  0.3934 -0.3871
28489W        W71427  26.457  32.036  26.478 -0.2000  0.3853 -0.1263
28490W        W71428  26.409  30.500  26.137  0.0184  0.1298 -0.0515
28491W        W71429  28.029  30.875  23.086  0.0403  0.2422  0.1437
28492W        W71430  28.985  30.522  23.950  0.0672 -0.1679 -0.2465
28493W        W71431  26.210  29.555  25.223  0.1736  0.1228 -0.1326
28494W        W71432  28.984  31.783  24.530  0.1003 -0.0070 -0.2181
28495W        W71433  26.406  29.569  27.382 -0.0203  0.0540  0.0984
28496W        W71434  29.142  32.893  25.704 -0.1220  0.0925  0.0293
28497W        W71435  29.248  31.457  27.625  0.0265 -0.0581 -0.1915
28498W        W71436  27.804  31.141  23.488 -0.0412  0.0853 -0.1692
28499W        W71437  27.379  30.906  27.683  0.1811 -0.0047 -0.2107
28500W        W71438  26.120  33.407  25.137 -0.0857  0.1435 -0.0527
28501W        W71439  26.260  29.130  23.810  0.2090  0.1560 -0.0411
28502W        W71440  26.780  28.778  26.290 -0.0718 -0.2816  0.2520
28503W        W71441  28.385  31.366  26.622  0.2411  0.0917 -0.4185
28504W        W71442  25.848  32.172  24.728  0.1215  0.0924  0.0943
28505W        W71443  25.943  31.199  26.444 -0.0435 -0.2313 -0.0933
28506W        W71444  26.795  29.428  25.520 -0.0628  0.0700  0.3241
28507W        W71445  28.235  32.918  25.327 -0.1085  0.2443  0.0495
28508W        W71446  27.652  30.340  26.711 -0.4176  0.0270  0.1594
28509W        W71447  26.878  29.330  27.452 -0.2521  0.1499  0.0248
28510W        W71448  27.347  31.884  24.260  0.2059 -0.1831 -0.0596
28511W        W71449  24.861  30.180  23.149  0.0752  0.0726 -0.2053
28512W        W71450  25.534  31.164  24.877 -0.0672 -0.1272 -0.3152
28513W        W71451  26.981  31.128  26.437  0.2675 -0.0099 -0.1413
28514W        W71452  27.779  30.608  26.082  0.0827 -0.2021 -0.0255
28515W        W71453  28.230  31.202  26.127  0.3131  0.1070 -0.3313
28516W        W71454  27.570  32.149  25.407  0.0782 -0.0103 -0.0777
28517W        W71455  29.415  33.296  25.792 -0.1514 -0.3796 -0.0827
28518W        W71456  28.773  30.851  28.416  0.1111 -0.0018 -0.0236
28519W        W71457  26.638  29.340  24.333 -0.3294  0.2220  0.2067
28520W        W71458  25.727  32.595  25.125 -0.1101 -0.0256  0.3403
28521W        W71459  25.193  32.686  23.746  0.3064 -0.2121  0.2232
28522W        W71460  29.270  30.440  25.531  0.1082  0.2560  0.1335
28523W        W71461  28.494  33.427  25.499 -0.2416 -0.1965 -0.2245
28524W        W71462  26.383  33.407  26.165 -0.0125  0.1406 -0.0973
28525W        W71463  25.304  31.247  24.018 -0.0585  0.1292 -0.1161
28526W        W71464  27.177  32.420  26.603 -0.3042  0.1551 -0.1412
28527W        W71465  24.897  31.976  27.196 -0.4354 -0.1078 -0.0429
28528W        W71466  27.944  30.677  26.899 -0.0877 -0.0561  0.1464
28529W        W71467  26.801  30.173  24.536 -0.1096 -0.3900  0.0507
28530W        W71468  28.187  32.002  24.994 -0.1439 -0.0278 -0.1394
28531W        W71469  27.693  32.302  26.297  0.0167 -0.2883  0.2801
28532W        W71470  26.768  32.704  27.759 -0.2190 -0.0882  0.1269
28533W        W71471  25.220  32.669  24.513  0.2106  0.0173 -0.2296
28534W        W71472  28.102  29.671  27.852 -0.2783 -0.1008  0.0151
28535W        W71473  26.524  31.487  23.144 -0.1876 -0.0200  0.3073
28536W        W71474  28.035  31.315  24.210  0.0977  0.0922 -0.3942
28537W        W71475  26.804  30.155  23.124  0.4049  0.2030 -0.0711
28538W        W71476  27.588  30.406  23.948  0.1776  0.3778  0.0736
28539W        W71477  26.822  30.761  26.120 -0.0748  0.1466  0.1433
28540W        W71478  26.614  32.495  25.143 -0.2381 -0.0653 -0.1311
28541W        W71479  26.334  30.758  25.696 -0.0764 -0.0498 -0.1114
28542W        W71480  28.904  33.426  26.494 -0.2050  0.2191  0.4128
28543W        W71481  25.638  30.335  23.813  0.0353  0.0685 -0.2573
28544W        W71482  28.913  30.782  24.891 -0.1343 -0.0308  0.1536
28545W        W71483  25.249  32.992  25.843  0.2154  0.2215  0.1147
28546W        W71484  25.064  30.113  25.876  0.0261  0.0437  0.3387
28547W        W71485  28.433   0.057  25.118 -0.2999  0.1525 -0.2025
28548W        W71486  29.451  34.110  25.519  0.0882 -0.1186  0.0179
28549W        W71487  28.234  31.486  23.674 -0.1810 -0.0248 -0.1711
28550W        W71488  26.780  31.734  24.538  0.2692 -0.3033  0.4131
28551W        W71489  25.501  31.673  26.418  0.2706  0.0647 -0.3703
28552W        W71490  25.773  30.444  26.403  0.1924  0.0044 -0.2784
28553W        W71491  25.857  29.949  22.961  0.0664  0.1104  0.0300
28554W        W71492  29.300  31.869  28.602  0.1493 -0.0926  0.0472
28555W        W71493  26.182  31.648  25.464 -0.1307  0.0951  0.1603
28556W        W71494  27.933  30.238  25.068  0.0693  0.2696  0.0224
28557W        W71495  26.527  32.001  25.446 -0.0208  0.3747 -0.1164
28558W        W71496  29.495  32.785  26.836  0.2151  0.0877 -0.0000
28559W        W71497  27.111  32.094  22.984  0.2283  0.2319 -0.1325
28560W        W71498  28.123  29.327  27.013  0.0577 -0.0423  0.2132
28561W        W71499  27.554  29.070  25.928  0.2396 -0.0031  0.2439
28562W        W71500  24.335  29.644  23.334 -0.1976 -0.0065 -0.1764
28563W        W71501  26.804  31.209  24.380  0.0429  0.0809 -0.1000
28564W        W71502  28.819  33.184  27.248 -0.1790 -0.0008  0.2101
28565W        W71503  28.594  31.702  23.354 -0.2877  0.1004  0.2696
28566W        W71504  24.702  32.926  24.248 -0.0737 -0.0461 -0.0362
28567W        W71505  27.418  31.400  28.197 -0.0512 -0.2146  0.1114
28568W        W71506  26.511  32.907  26.065 -0.0223 -0.0766 -0.1251
28569W        W71507  25.372  32.550  22.513 -0.1122  0.1532 -0.0178
28570W        W71508  24.588  32.131  25.883 -0.0314 -0.3354  0.0667
28571W        W71509  26.183  32.602  24.867  0.2604  0.2831  0.2404
28572W        W71510  25.989  30.086  28.444 -0.1106 -0.3542 -0.1338
28573W        W71511  27.437  32.802  25.533 -0.0400  0.0404  0.1347
28574W        W71512  29.062  30.522  26.360 -0.1413 -0.2513 -0.1092
28575W        W71513  25.905  31.594  25.941  0.0526 -0.0293  0.0241
28576W        W71514  28.246  29.806  25.733  0.0875 -0.0196  0.1617
28577W        W71515  26.933  32.769  25.442  0.0760  0.3860  0.0120
28578W        W71516  29.388   0.015  24.811 -0.1094  0.2421 -0.0274
28579W        W71517  29.597  29.943  25.862 -0.2633 -0.3171  0.1237
28580W        W71518  28.107  32.350  24.163  0.0255 -0.0365 -0.3224
28581W        W71519  24.605  31.030  26.677  0.0100  0.5013  0.2528
28582W        W71520  25.000  29.253  26.269 -0.3850  0.0475 -0.1658
28583W        W71521  26.443  30.820  27.253 -0.1296  0.4196 -0.1395
28584W        W71522  26.213  30.460  25.260 -0.3416  0.1752 -0.1822
28585W        W71523  28.392  31.877  27.276  0.0165  0.1061 -0.0859
28586W        W71524  26.958  29.900  25.385  0.1271 -0.1433  0.2972
28587W        W71525  26.735  30.680  24.386  0.0346  0.2552  0.0378
28588W        W71526  26.050  31.325  24.825 -0.0079  0.1722 -0.1328
28589W        W71527  24.952  31.221  24.906 -0.0721  0.2238 -0.3277
28590W        W71528  28.027  30.113  26.419 -0.0076 -0.1276  0.3374
28591W        W71529  29.506  32.851  26.121 -0.0376 -0.0457 -0.1232
28592W        W71530  28.839  33.304  28.076 -0.2757 -0.0168 -0.0234
28593W        W71531  28.371  33.871  25.259 -0.1686 -0.0091  0.0127
28594W        W71532  26.245  30.510  26.695  0.1952  0.2564  0.0604
28595W        W71533  26.575  30.806  25.283  0.1562  0.1025  0.0813
28596W        W71534  25.198  32.346  24.934  0.3400  0.1908 -0.1025
28597W        W71535  26.741  32.020  24.998 -0.0713  0.0900 -0.1572
28598W        W71536  25.891  30.214  23.367  0.1222 -0.1237  0.0192
28599W        W71537  30.129  33.598  25.103 -0.2869 -0.0173  0.2472
28600W        W71538  26.357  31.335  24.399  0.1169 -0.0686 -0.2776
28601W        W71539  25.754  32.637  26.247 -0.0291 -0.3340 -0.0781
28602W        W71540  26.630  29.658  26.692 -0.2862  0.0435 -0.1344
28603W        W71541  28.997  32.666  28.146 -0.1281 -0.2338  0.3006
28604W        W71542  28.395  30.684  25.121  0.1688  0.2927  0.0752
28605W        W71543  24.534  29.702  22.763 -0.2989 -0.2907 -0.1652
28606W        W71544  28.064  33.547  25.727  0.0461 -0.0071  0.1438
28607W        W71545  25.733  31.736  23.113 -0.0451  0.1998 -0.0242
28608W        W71546  25.534  31.922  25.072 -0.1450 -0.2603 -0.2637
28609W        W71547  27.224  32.351  26.084 -0.2486 -0.0553 -0.1035
28610W        W71548  27.387  29.499  26.248 -0.1051 -0.1960  0.0412
28611W        W71549  25.361  31.150  26.571 -0.0760 -0.6588  0.0700
28612W        W71550  26.377  29.826  28.223 -0.1421 -0.0690  0.1086
28613W        W71551  26.079  29.979  26.519  0.0358  0.0151  0.1178
28614W        W71552  25.767  32.225  28.190  0.2123  0.0847 -0.3569
28615W        W71553  28.253  29.665  24.220  0.0645 -0.0451 -0.1480
28616W        W71554  28.921  30.688  24.390 -0.3903 -0.2108 -0.2422
28617W        W71555  27.055  30.901  28.207  0.1541 -0.0236  0.0746
28618W        W71556  28.280  31.696  26.199 -0.1124 -0.2929 -0.0122
28619W        W71557  27.542  30.726  23.133  0.0687  0.0856 -0.1127
28620W        W71558  27.762  29.058  23.554 -0.3798 -0.1321 -0.1776
28621W        W71559  25.696  32.146  28.804 -0.1089  0.2046  0.0556
28622W        W71560  27.203  31.888  25.123 -0.0428 -0.2227  0.0303
28623W        W71561  27.741  31.754  24.972  0.1289 -0.2759  0.0988
28624W        W71562  27.736  31.492  22.451  0.0270 -0.0651  0.0536
28625W        W71563  29.570  33.333  23.873  0.0521  0.0897 -0.0965
28626W        W71564  24.892  32.760  25.069 -0.0896 -0.1138  0.0039
28627W        W71565  28.351  32.529  26.713  0.4803 -0.0819 -0.2190
28628W        W71566  29.625  33.752  25.896  0.0571  0.4009 -0.0928
28629W        W71567  27.335  30.129  26.231 -0.1322  0.1762 -0.0075
28630W        W71568  26.945  30.807  23.260  0.1477 -0.0094  0.2868
28631W        W71569  27.313  30.620  25.899 -0.1722  0.3155  0.2690
28632W        W71570  24.231  32.540  22.717 -0.2224  0.2280  0.3687
28633W        W71571  27.590  30.935  26.642 -0.2700  0.2026 -0.2103
28634W        W71572  28.224  30.513  26.230  0.0387  0.0986  0.2195
28635W        W71573  27.211  30.665  26.408 -0.0828  0.2192 -0.3426
28636W        W71574  30.494  31.181  27.228 -0.2648  0.0143 -0.2073
28637W        W71575  27.898  29.669  26.140  0.1975  0.0115 -0.2230
28638W        W71576  27.542  31.289  24.975 -0.2015 -0.0973 -0.1624
28639W        W71577  26.186  31.810  25.009  0.1393  0.0408 -0.2969
28640W        W71578  27.739  28.936  27.727 -0.3099 -0.1949 -0.0575
28641W        W71579  26.258  32.734  26.607  0.2686  0.3426  0.1649
28642W        W71580  24.279  32.447  26.780 -0.0154  0.0913 -0.2482
28643W        W71581  29.259  32.908  27.308 -0.0431 -0.3095 -0.3048
28644W        W71582  27.676  31.775  26.347 -0.0319  0.0845 -0.2443
28645W        W71583  26.592  29.424  27.862  0.1012  0.1549 -0.1677
28646W        W71584  27.344  29.984  23.882 -0.0466  0.0840 -0.1029
28647W        W71585  25.766  32.648  22.943  0.2610 -0.2911 -0.0443
28648W        W71586  26.872  32.242  23.601 -0.1436  0.1055 -0.1779
28649W        W71587  27.587  31.181  27.268  0.4876  0.3627 -0.3242
28650W        W71588  28.593  32.456  25.773 -0.1892 -0.4172 -0.1140
28651W        W71589  26.365  30.911  24.061  0.0093  0.0933 -0.0642
28652W        W71590  26.601  32.037  27.769  0.4594  0.1032 -0.0810
28653W        W71591  25.655  31.590  24.031  0.1510 -0.1459 -0.1975
28654W        W71592  26.094  30.262  27.561 -0.0739  0.0016  0.3988
28655W        W71593  24.829  32.306  26.699 -0.2928 -0.1856  0.2474
28656W        W71594  27.014  30.282  24.060  0.0405 -0.0730 -0.1010
28657W        W71595  24.864  30.541  24.428 -0.0232 -0.2541 -0.0440
28658W        W71596  27.993  29.538  24.957  0.1068 -0.1459  0.0071
28659W        W71597  29.811  31.867  25.196 -0.0414 -0.1871  0.4284
28660W        W71598  26.378  31.391  26.647  0.0754  0.1218  0.2379
28661W        W71599  27.472  30.074  25.267  0.2663  0.0910 -0.1448
28662W        W71600  25.371  33.614  26.516 -0.0960 -0.0212  0.0168
28663W        W71601  29.790  31.978  25.957  0.1847  0.1014 -0.0626
28664W        W71602  29.272  29.100  23.184 -0.0299  0.0465  0.1957
28665W        W71603  28.475  32.032  26.834 -0.0324 -0.0816  0.0776
28666W        W71604  26.690  31.238  27.524  0.3817  0.1280 -0.1069
28667W        W71605  24.412  30.663  24.092 -0.0284 -0.0296  0.0803
28668W        W71606  29.098  31.066  27.312 -0.1109  0.0232  0.0601
28669W        W71607  27.372  31.066  26.139 -0.1028  0.2665  0.3032
28670W        W71608  25.854  32.147  26.029  0.0467  0.2460 -0.0083
28671W        W71609  27.707  32.522  26.760  0.1782 -0.2265 -0.1474
28672W        W71610  25.128  30.544  23.731  0.0557 -0.1581 -0.0128
28673W        W71611  27.369  32.118  23.401  0.2634 -0.1991 -0.0058
28674W        W71612  26.806  31.639  27.006 -0.1686 -0.1726 -0.2564
28675W        W71613  28.526  33.455  25.977 -0.2158 -0.1622 -0.3007
28676W        W71614  27.416  30.946  25.457 -0.0992 -0.2373  0.2331
28677W        W71615  26.316  29.321  25.656  0.1533 -0.2975 -0.1770
28678W        W71616  27.578  31.412  24.395  0.2025  0.1180 -0.1062
28679W        W71617  28.862  32.310  26.543  0.0621 -0.2716  0.0650
28680W        W71618  27.132  31.362  27.336  0.0020  0.2686 -0.2050
28681W        W71619  25.461  32.350  26.790  0.0913 -0.3206 -0.1548
28682W        W71620  27.140  28.653  25.975 -0.2423 -0.0300 -0.2225
28683W        W71621  29.043  32.793  24.950  0.0801  0.0908 -0.1565
28684W        W71622  29.326  32.128  27.606  0.0441 -0.1561 -0.1841
28685W        W71623  24.772  31.385  25.380  0.1095  0.2417  0.1517
28686W        W71624  25.067  31.918  25.309  0.4561 -0.0222 -0.2667
28687W        W71625  26.487  30.589  24.807  0.1606 -0.3672 -0.0385
28688W        W71626  27.563  29.364  26.861  0.0040 -0.0257 -0.2171
28689W        W71627  27.221  33.142  25.152  0.0298  0.0995 -0.0835
28690W        W71628  24.222  31.841  22.799  0.0317 -0.1430 -0.0005
28691W        W71629  25.311  32.801  27.042 -0.2166 -0.1024 -0.0150
28692W        W71630  29.446  30.034  24.278 -0.1547 -0.0754  0.0523
28693W        W71631  26.372  32.357  23.636 -0.1563 -0.1589 -0.2342
28694W        W71632  26.839  31.980  26.190  0.2324 -0.0855  0.1405
28695W        W71633  28.621  29.566  27.540 -0.2390 -0.1256 -0.2234
28696W        W71634  28.704  31.312  23.669  0.0381  0.0590  0.3678
28697W        W71635  28.119  28.533  28.662  0.1193  0.1992  0.1022
28698W        W71636  26.396  29.085  27.454 -0.0467  0.3336 -0.1298
28699W        W71637  28.550  32.180  24.626 -0.0966  0.1007 -0.0256
28700W        W71638  26.200  29.752  26.944  0.0857 -0.0441  0.0572
28701W        W71639  28.382  33.090  27.760  0.1936 -0.0304  0.0412
28702W        W71640  26.372  32.343  26.871 -0.1937  0.3161 -0.2607
28703W        W71641  27.109  30.356  25.485  0.0228 -0.0483  0.0152
28704W        W71642  26.832  30.296  25.127 -0.0511 -0.1657  0.2647
28705W        W71643  27.155  31.524  26.148  0.1680 -0.3116 -0.0273
28706W        W71644  29.108  31.627  26.450 -0.2138  0.0718 -0.0094
28707W        W71645  28.628  32.995  25.694  0.4000 -0.1421  0.0957
28708W        W71646  29.522  30.042  25.347  0.1273 -0.0310  0.0529
28709W        W71647  26.153  33.105  25.743  0.0286  0.1589  0.1800
28710W        W71648  27.607  31.411  25.417  0.0143 -0.4755 -0.0248
28711W        W71649  27.188  30.444  24.762  0.0483 -0.3236  0.3337
28712W        W71650  26.531  31.121  24.881  0.0218  0.2113 -0.0441
28713W        W71651  25.652  30.158  27.389  0.2727 -0.0598  0.0689
28714W        W71652  28.742  31.568  25.492  0.1241 -0.3033  0.0260
28715W        W71653  28.368  30.446  26.990  0.5329  0.1999  0.0114
28716W        W71654  27.273  31.803  27.170 -0.1555 -0.1685 -0.2312
28717W        W71655  27.171  30.841  26.936 -0.3078  0.2270 -0.1708
28718W        W71656  25.755  31.922  25.584  0.1382 -0.0563 -0.2029
28719W        W71657  25.582  29.054  28.101  0.0437  0.0057 -0.4357
28720W        W71658  29.298  33.408  27.344  0.0151  0.0388  0.0246
28721W        W71659  28.083  31.380  25.097  0.2999 -0.1392 -0.1076
28722W        W71660  29.359  31.788  27.239  0.1305  0.0203  0.1558
28723W        W71661  28.799  31.066  25.329  0.1142 -0.0340  0.3655
28724W        W71662  26.154  30.424  23.859 -0.1590  0.1994  0.4030
28725W        W71663  26.056  31.204  25.655 -0.1894  0.1272  0.2220
28726W        W71664  27.880  31.597  27.251 -0.1886 -0.0793 -0.0322
28727W        W71665  26.611  29.991  23.921 -0.0531  0.0310  0.3156
28728W        W71666  27.343  30.004  27.026  0.2290 -0.0597  0.1748
28729W        W71667  28.422  32.584  23.322 -0.1945 -0.0201 -0.0299
28730W        W71668  27.677  31.540  25.924 -0.2187  0.1095  0.3170
28731W        W71669  27.861  31.083  24.658 -0.0750 -0.0693 -0.0709
28732W        W71670  26.650  30.384  25.623 -0.3106 -0.0334 -0.0404
28733W        W71671  26.108  31.764  28.633  0.0271 -0.1066 -0.0580
28734W        W71672  26.079  32.228  25.424  0.0001 -0.0786  0.0540
28735W        W71673  26.130  31.866  23.853 -0.1037  0.3784 -0.2534
28736W        W71674  28.738  31.294  27.036  0.0059 -0.1181 -0.1385
28737W        W71675  28.138  32.071  28.216 -0.2206 -0.0848  0.0355
28738W        W71676  27.654  30.253  24.471  0.0556  0.2948 -0.4739
28739W        W71677  28.606  30.532  28.099  0.1822  0.0883 -0.1478
28740W        W71678  26.123  32.477  24.291 -0.0524  0.2430  0.2005
28741W        W71679  27.034  29.827  26.481 -0.1201 -0.0174  0.1043
28742W        W71680  26.379  32.189  24.647  0.1305  0.0845  0.1845
28743W        W71681  26.729  32.350  25.887  0.0949  0.0677  0.1847
28744W        W71682  27.403  32.090  24.712 -0.2080 -0.3333  0.2608
28745W        W71683  28.015  30.099  26.931  0.1027 -0.0921  0.2795
28746W        W71684  28.861  31.644  26.018  0.0853 -0.2365  0.1610
28747W        W71685  26.785  31.587  26.491  0.0249  0.0140  0.3158
28748W        W71686  30.205  30.795  26.356 -0.2481  0.0749  0.0703
28749W        W71687  29.018  32.479  27.412 -0.0556 -0.0678 -0.3426
28750W        W71688  26.887  31.729  25.747  0.1386 -0.0292 -0.0901
28751W        W71689  26.739  32.542  26.352  0.2000  0.0069  0.2594
28752W        W71690  29.182  30.860  25.703 -0.1981 -0.0986 -0.0987
28753W        W71691  26.633  33.194  25.345  0.1948 -0.1180  0.0120
28754W        W71692  24.685  30.328  26.233 -0.0843 -0.2999 -0.1506
28755W        W71693  27.819  31.300  26.343  0.2065 -0.2729 -0.1861
28756W        W71694  28.251  30.731  25.793  0.0018  0.1506 -0.1928
28757W        W71695  26.443  30.013  25.424 -0.1042  0.1258  0.0750
28758W        W71696  27.394  32.745  24.795  0.1032  0.1362  0.2721
28759W        W71697  25.784  32.262  29.790 -0.1340  0.0533  0.2758
28760W        W71698  25.784  31.387  26.886 -0.2677  0.1026  0.2000
28761W        W71699  26.117  32.848  23.872  0.2343  0.0159 -0.2275
28762W        W71700  28.359  31.873  24.310 -0.0096  0.1916 -0.0530
28763W        W71701  27.150  31.406  24.073 -0.1554  0.0511 -0.0566
28764W        W71702  28.098  32.841  25.879  0.0165  0.0217  0.0676
28765W        W71703  26.321  30.461  24.337 -0.0489 -0.0381 -0.2719
28766W        W71704  26.149  31.820  24.438  0.1054  0.1234  0.1809
28767W        W71705  24.690  31.490  24.504 -0.2045 -0.1508  0.0134
28768W        W71706  27.938  32.742  23.354  0.0492  0.0133 -0.0758
28769W        W71707  26.668  32.676  23.935  0.1078  0.1404  0.1706
28770W        W71708  28.030  32.818  27.012 -0.2443 -0.0826  0.0365
28771W        W71709  29.363  29.939  24.846 -0.2370 -0.5195 -0.1577
28772W        W71710  27.879  30.087  25.900  0.0522  0.2896  0.0320
28773W        W71711  30.333  30.295  23.764 -0.1127  0.0062 -0.1259
28774W        W71712  27.239  31.946  26.476 -0.2347  0.1360 -0.3023
28775W        W71713  28.172  32.311  26.036  0.2872 -0.1071  0.2275
28776W        W71714  25.899  30.767  23.416  0.1207  0.0589 -0.1152
28777W        W71715  25.871  32.539  26.955  0.2142  0.1421  0.1871
28778W        W71716  29.801  30.367  27.122  0.2765 -0.0204  0.0214
28779W        W71717  25.101  32.220  27.661  0.0555 -0.2127  0.0108
28780W        W71718  28.931  32.597  23.240 -0.3689 -0.1981 -0.1770
28781W        W71719  25.493  29.969  25.615  0.1130  0.1898  0.3442
28782W        W71720  27.315  30.950  24.698 -0.0719  0.1971  0.1446
28783W        W71721  29.420  29.607  26.120 -0.0674 -0.0542 -0.1043
28784W        W71722  26.035  30.725  22.943  0.4643 -0.0035  0.1096
28785W        W71723  29.220  31.206  26.141 -0.0173 -0.1815  0.4515
28786W        W71724  27.041  32.743  24.353  0.0477 -0.1909  0.0387
28787W        W71725  26.271  32.467  26.154 -0.2042  0.1202 -0.3540
28788W        W71726  27.025  32.790  25.974  0.2959 -0.0143 -0.1079
28789W        W71727  25.187  31.440  24.475  0.1585 -0.0057 -0.1485
28790W        W71728  29.405  30.557  24.219  0.0540  0.2829  0.0622
28791W        W71729  28.049  30.852  26.460  0.3953  0.1352 -0.3396
28792W        W71730  28.636  31.193  25.801 -0.1015 -0.0711 -0.2615
28793W        W71731  25.770  31.494  25.251  0.2427  0.1307 -0.2558
28794W        W71732  28.026  30.629  24.695  0.3179 -0.0427  0.1394
28795W        W71733  26.818  32.606  27.278  0.1991 -0.0921  0.1686
28796W        W71734  26.388  31.885  25.981 -0.0798  0.0403  0.0138
28797W        W71735  26.367  30.986  23.481 -0.1654 -0.0261  0.1166
28798W        W71736  28.888  30.296  27.189  0.1374  0.2873 -0.0156
28799W        W71737  28.926  31.253  24.458 -0.1022 -0.0647 -0.3968
28800W        W71738  28.320  33.070  26.242  0.0048 -0.1907 -0.0283
28801W        W71739  26.457  30.987  26.339 -0.0930  0.2379 -0.1744
28802W        W71740  27.449  30.313  23.395  0.1141  0.0589  0.3283
28803W        W71741  27.351  31.909  25.817  0.1178  0.1131  0.2170
28804W        W71742  26.186  30.980  26.846 -0.2885  0.1362  0.1191
28805W        W71743  28.836  33.098  26.166 -0.1700  0.2143  0.1279
28806W        W71744  26.112  29.323  24.251 -0.0556  0.1419  0.3821
28807W        W71745  27.871  34.083  25.695  0.0785  0.1830  0.3984
28808W        W71746  29.060  32.566  26.071  0.1624  0.3010 -0.1187
28809W        W71747  27.592  32.197  23.917 -0.3852  0.2141 -0.2101
28810W        W71748  29.018  31.229  23.003  0.1076  0.1271 -0.0127
28811W        W71749  28.894  34.082  25.961  0.3034  0.1691 -0.1614
28812W        W71750  25.034  30.567  25.367 -0.0391  0.0671  0.0237
28813W        W71751  29.562  33.984  26.629  0.3249  0.1098  0.5318
28814W        W71752  27.759  32.677  25.204 -0.2890 -0.2804 -0.1762
28815W        W71753  27.194  30.872  24.155 -0.1070 -0.0972  0.0008
28816W        W71754  26.068  31.010  25.211 -0.1816 -0.0556  0.4566
28817W        W71755  24.948  32.491  24.109 -0.2045  0.2532  0.2461
28818W        W71756  29.647  31.351  27.968 -0.1376 -0.1512 -0.0454
28819W        W71757  27.464  29.234  27.335 -0.0579  0.1879 -0.0979
28820W        W71758  26.552  32.220  24.183  0.0905 -0.2388 -0.1055
28821W        W71759  27.980  31.171  26.902  0.1949  0.3112 -0.0774
28822W        W71760  27.106  32.228  27.704 -0.0524 -0.2262 -0.2140
28823W        W71761  26.921  33.655  28.089  0.1331  0.4246  0.0049
28824W        W71762  24.969  31.930  24.764 -0.1171  0.1731 -0.0216
28825W        W71763  26.357  32.849  27.104  0.0600  0.1182 -0.4190
28826W        W71764  26.661  31.549  25.096 -0.1223 -0.5061 -0.0467
28827W        W71765  28.454  32.985  24.798 -0.0174  0.1758 -0.1215
28828W        W71766  28.530  34.464  25.819 -0.1520  0.2076 -0.4006
28829W        W71767  27.123  31.272  25.221  0.1926  0.0729  0.5149
28830W        W71768  29.352  32.385  25.733 -0.2004  0.0413  0.0296
28831W        W71769  27.218  31.329  25.708 -0.0354 -0.0063 -0.3251
28832W        W71770  30.639  30.919  24.510  0.1067 -0.0485 -0.1057
28833W        W71771  29.327  29.017  25.396  0.1613  0.0910  0.0557
28834W        W71772  26.866  32.851  24.856  0.0880 -0.1186  0.2490
28835W        W71773  24.957  30.691  24.892 -0.2452  0.0275 -0.0410
28836W        W71774  24.812  31.441  24.036 -0.1560 -0.1528 -0.4640
28837W        W71775  26.584  32.634  24.499 -0.0874 -0.0230  0.0640
28838W        W71776  27.822  28.947  27.115 -0.0536 -0.1148 -0.1493
28839W        W71777  25.458  30.007  26.502 -0.0922  0.4310  0.1536
28840W        W71778  25.843  32.583  25.641  0.1067 -0.5731 -0.0991
28841W        W71779  25.414  30.259  25.042 -0.0734  0.3366  0.2294
28842W        W71780  27.921  31.796  25.400  0.0405 -0.1705  0.1826
28843W        W71781  26.270  28.855  28.506  0.0988 -0.2457  0.0865
28844W        W71782  26.397  30.229  27.111 -0.0135  0.1541  0.1924
28845W        W71783  27.842  31.990  25.886  0.0024  0.3511  0.1754
28846W        W71784  28.883  32.348  24.036  0.2669 -0.0772 -0.2031
28847W        W71785  26.848  28.685  25.063 -0.1302 -0.0759  0.1332
28848W        W71786  28.811  32.665  26.915 -0.0501  0.2035 -0.1211
28849W        W71787  25.410  30.735  24.138  0.2165 -0.0700  0.0216
28850W        W71788  27.294  29.706  27.427 -0.1879 -0.0640 -0.5430
28851W        W71789  27.143  29.248  28.263 -0.0454  0.0050 -0.0895
28852W        W71790  25.865  29.236  23.543  0.1102 -0.1478 -0.1391
28853W        W71791  26.951  30.826  27.421 -0.1592 -0.2041 -0.1160
28854W        W71792  27.073  31.806  23.839 -0.2421  0.0227  0.0115
28855W        W71793  28.798  33.480  25.064  0.0279  0.2292 -0.1749
28856W        W71794  28.520  32.602  26.277  0.0304  0.0423  0.1192
28857W        W71795  26.017  33.046  26.327 -0.0878  0.3212  0.3532
28858W        W71796  25.833  28.686  26.599  0.0941  0.1497 -0.1677
28859W        W71797  29.994  32.588  26.423  0.0583  0.0659 -0.2352
28860W        W71798  26.861  32.099  26.853  0.1651  0.0362  0.2986
28861W        W71799  28.474  32.593  23.825 -0.1333  0.0566  0.1223
28862W        W71800  28.999  30.250  25.934  0.1209 -0.1315  0.1323
28863W        W71801  27.357  30.723  23.600 -0.0350 -0.0723 -0.0652
28864W        W71802  25.642  30.851  26.827  0.1130 -0.0462  0.3736
28865W        W71803  25.974  32.202  27.337 -0.0729 -0.0961  0.2094
28866W        W71804  28.595  32.095  26.114  0.0463  0.1733  0.3074
28867W        W71805  26.843  30.256  26.150 -0.1906  0.1738  0.2219
28868W        W71806  26.889  30.910  25.669  0.0860 -0.0337 -0.1549
28869W        W71807  27.033  32.206  25.513 -0.0668  0.0954  0.0434
28870W        W71808  25.619  30.954  25.556 -0.2401 -0.1784  0.0941
28871W        W71809  27.113  29.922  24.915 -0.1085  0.3965  0.0075
28872W        W71810  28.093  32.121  26.469  0.1987 -0.1439 -0.1357
28873W        W71811  27.810  32.496  25.761 -0.2359  0.2355 -0.1318
28874W        W71812  28.932  32.268  27.872 -0.2200 -0.2276  0.2340
28875W        W71813  26.953  30.291  23.565 -0.1041 -0.1458 -0.1350
28876W        W71814  28.613  31.630  24.830 -0.0984 -0.0394  0.2747
28877W        W71815  27.737  34.084  26.722 -0.0670 -0.1717 -0.0270
28878W        W71816  28.226  33.901  26.721 -0.0700  0.1040  0.3212
28879W        W71817  27.785  33.162  25.672 -0.0097  0.1569  0.1479
28880W        W71818  28.643  33.595  26.891 -0.0229  0.3925 -0.2228
28881W        W71819  25.907  30.052  25.117  0.0066  0.0994  0.0565
28882W        W71820  26.595  31.314  25.538  0.4737 -0.3068  0.1859
28883W        W71821  27.193  32.437  25.131 -0.0474  0.0109 -0.0872
28884W        W71822  28.828  31.188  26.485 -0.1459  0.0877 -0.1118
28885W        W71823  26.817  30.471  27.087 -0.1356 -0.2728  0.0244
28886W        W71824  27.629  30.666  25.010 -0.3419  0.1714 -0.2214
28887W        W71825  27.867  33.246  26.139 -0.1372 -0.0870 -0.2615
28888W        W71826  28.665  31.789  26.465 -0.1455  0.0534  0.0689
28889W        W71827  26.877  32.794  30.199 -0.0108  0.2276 -0.1850
28890W        W71828  27.251  29.788  29.176 -0.0979 -0.2784 -0.1687
28891W        W71829  28.609  29.394  26.965  0.2411  0.1872 -0.0236
28892W        W71830  28.697  32.003  28.238  0.0918 -0.0613  0.0626
28893W        W71831  24.087  31.471  29.589 -0.3036 -0.0259  0.1664
28894W        W71832  28.201  33.803  28.536 -0.1625  0.0972  0.2544
28895W        W71833  25.296  26.997  29.794 -0.1799  0.3584  0.3543
28896W        W71834  28.731  31.467  30.122 -0.0078 -0.1258  0.0528
28897W        W71835  29.436  31.816  29.899 -0.3655  0.0429 -0.1923
28898W        W71836  27.706  32.063  27.350 -0.0524  0.1358  0.2021
28899W        W71837  27.554  30.169  29.692  0.2987 -0.0288  0.0207
28900W        W71838  25.898  33.575  29.880 -0.0064  0.2858  0.3414
28901W        W71839  26.165  28.977  27.910  0.0513  0.2344 -0.0288
28902W        W71840  24.177  29.201  28.795  0.2282 -0.0786  0.0152
28903W        W71841  28.740  30.957  30.151  0.0159  0.1738 -0.0110
28904W        W71842  25.606  31.997  27.672 -0.2986  0.0409  0.3706
28905W        W71843  26.779  32.156  29.786  0.1775  0.1637 -0.2166
28906W        W71844  26.860  30.580  28.551 -0.0065 -0.1486 -0.1309
28907W        W71845  27.155  33.215  27.795  0.1918  0.0265  0.1304
28908W        W71846  25.983  28.686  28.873  0.2111  0.4393  0.0797
28909W        W71847  27.475  29.717  29.925 -0.0518  0.1349  0.2942
28910W        W71848  26.461  32.452  28.117  0.2460 -0.2776  0.3159
28911W        W71849  26.026  30.571  27.126  0.0403 -0.2568 -0.0365
28912W        W71850  24.831  30.892  29.570 -0.0520 -0.0357 -0.0227
28913W        W71851  26.496  31.685  29.713 -0.1516  0.2128 -0.0041
28914W        W71852  28.086  30.168  27.858 -0.0187  0.0363  0.0204
28915W        W71853  29.966  31.836  28.661  0.0299  0.3731  0.1250
28916W        W71854  27.025  32.601  29.752  0.0244 -0.0395  0.0259
28917W        W71855  28.247  32.851  28.632 -0.1351  0.0936  0.1766
28918W        W71856  28.144  30.478  30.934 -0.0553  0.0243 -0.1725
28919W        W71857  25.359  32.363  28.488  0.0696  0.0997  0.1819
28920W        W71858  25.725  33.425  28.611 -0.1056  0.0062 -0.0752
28921W        W71859  27.250  33.210  28.897 -0.0788  0.1169  0.0491
28922W        W71860  28.897  31.980  27.440 -0.0114  0.0758  0.1219
28923W        W71861  29.023  33.598  30.804  0.0335 -0.0844 -0.0146
28924W        W71862  27.323  32.627   0.009  0.1456  0.0731  0.1149
28925W        W71863  26.298  31.317  28.334  0.1256 -0.1919  0.1757
28926W        W71864  29.393  33.353  29.889 -0.0983 -0.4894 -0.2565
28927W        W71865  27.871  33.154   0.695  0.2423  0.2352  0.2758
28928W        W71866  27.101  31.528  30.874  0.2300  0.1374 -0.0281
28929W        W71867  27.223  30.513  27.923  0.0477 -0.1067  0.1710
28930W        W71868  26.656  32.491  28.595 -0.1737 -0.0489 -0.0297
28931W        W71869  29.196  30.881  28.047 -0.0871  0.0276  0.2456
28932W        W71870  26.849  31.255  31.212  0.1307  0.3667  0.1600
28933W        W71871  25.331  32.440  28.950  0.0572 -0.0983 -0.0457
28934W        W71872  27.973  30.142  31.330 -0.0301  0.0686 -0.1573
28935W        W71873  26.297  32.869  28.383 -0.1450 -0.0569  0.1838
28936W        W71874  27.667  29.208  28.152  0.0331 -0.1180  0.0831
28937W        W71875  25.253  29.960  27.629 -0.2118  0.3046  0.1636
28938W        W71876  28.337  29.684  28.783  0.0380  0.0992 -0.2227
28939W        W71877  26.598  29.621  28.767 -0.2131  0.0288  0.0630
28940W        W71878  26.617  33.096  28.666 -0.1517  0.0445  0.1417
28941W        W71879  27.033  30.610  31.761 -0.0988  0.4011 -0.0678
28942W        W71880  27.941  32.104  31.716  0.0597 -0.0967  0.1059
28943W        W71881  27.018  29.633  29.632 -0.3261  0.0589  0.0203
28944W        W71882  28.095  30.603  28.204  0.1163  0.0222 -0.3148
28945W        W71883  26.565  32.551  29.892 -0.0758 -0.0469  0.1291
28946W        W71884  25.714  31.403  29.449  0.1480  0.1739  0.1283
28947W        W71885  28.124  32.192  27.624  0.1474  0.0485 -0.0662
28948W        W71886  30.572  32.746  28.294  0.1149  0.1571 -0.1557
28949W        W71887  28.003  33.150  27.415 -0.2087  0.0970 -0.0412
28950W        W71888  25.495  31.486  29.879  0.0141 -0.0494  0.1445
28951W        W71889  26.022  32.550  31.856  0.0397  0.0814  0.3134
28952W        W71890  26.560  30.945  29.215 -0.0723 -0.0391  0.0882
28953W        W71891  26.236  28.949  26.391 -0.1344 -0.1597  0.0711
28954W        W71892  28.323  31.697  31.042 -0.0603 -0.0340 -0.1393
28955W        W71893  26.320  33.428  30.826 -0.0867  0.1629  0.0633
28956W        W71894  27.548  29.472  28.875 -0.2075 -0.0055  0.1348
28957W        W71895  26.698  32.510  29.374 -0.0892  0.1318 -0.0998
28958W        W71896  28.462  31.035  29.715 -0.2232  0.2859 -0.1246
28959W        W71897  27.592  31.996  26.817 -0.0666 -0.2384  0.0302
28960W        W71898  27.857  29.949  29.197  0.0059  0.2793  0.0548
28961W        W71899  27.115  29.311  29.127 -0.2968  0.0513 -0.0992
28962W        W71900  27.577  30.504  27.214 -0.2862  0.0471 -0.2872
28963W        W71901  26.477  32.173  27.326 -0.1251 -0.5432 -0.0307
28964W        W71902  29.719  32.958  31.772 -0.1363  0.0033 -0.1710
28965W        W71903  28.534  32.345  27.421 -0.2188 -0.1162  0.0109
28966W        W71904  25.476  33.164  28.969  0.1088  0.1669 -0.0576
28967W        W71905  27.835  30.419  30.023  0.0319  0.1854  0.2222
28968W        W71906  27.378  31.743  31.334  0.4377 -0.2090  0.1819
28969W        W71907  25.810  32.327  29.274  0.1548  0.3023 -0.0183
28970W        W71908  24.815  32.322  29.190 -0.0081 -0.1076  0.1266
28971W        W71909  24.771  33.476  27.644 -0.0015 -0.0015  0.2972
28972W        W71910  26.004  30.674  30.065  0.0770  0.1868  0.1739
28973W        W71911  26.336  32.082  30.094  0.2987  0.0119  0.2113
28974W        W71912  28.730  31.069  27.954  0.0702  0.3435 -0.1888
28975W        W71913  25.647  30.409  29.843  0.2979  0.1861 -0.1332
28976W        W71914  28.712  28.915  28.328  0.1554 -0.1054 -0.1987
28977W        W71915  25.967  32.296  26.553 -0.0994  0.0478  0.2317
28978W        W71916  28.620  32.128  29.378  0.2000 -0.1699  0.2257
28979W        W71917  28.578  30.832  27.277  0.1251  0.1082 -0.1286
28980W        W71918  28.557  33.077  26.837 -0.0102  0.0521  0.0510
28981W        W71919  24.398  30.563  29.654 -0.1403 -0.2313 -0.0287
28982W        W71920  26.242  30.304  28.049  0.4028  0.2042  0.3259
28983W        W71921  25.502  30.667  29.215 -0.1519  0.1573  0.1443
28984W        W71922  24.038  30.615  29.136 -0.0826  0.0293 -0.0998
28985W        W71923  29.127  31.684  30.528 -0.0182  0.0192 -0.0929
28986W        W71924  27.043  30.123  28.860  0.2070 -0.1917 -0.1925
28987W        W71925  29.653  29.665  29.578  0.0995 -0.0769 -0.1035
28988W        W71926  27.490  28.746  28.195  0.0407 -0.0938 -0.2065
28989W        W71927  24.104  30.208  28.760  0.3606  0.3414  0.0419
28990W        W71928  27.460  31.088  31.107  0.1738  0.0473 -0.2128
28991W        W71929  27.987  32.684  26.325 -0.0248 -0.1737 -0.1087
28992W        W71930  28.631  32.516  31.369  0.1413 -0.1391  0.1288
28993W        W71931  29.201  31.866  29.239 -0.1433  0.2002  0.0613
28994W        W71932  25.306  29.641  29.323  0.2420  0.5956 -0.2686
28995W        W71933  26.454  30.222  28.550 -0.0514  0.1519 -0.1518
28996W        W71934  25.896  33.335  29.158 -0.1134 -0.0713  0.3871
28997W        W71935  27.729  32.407  29.264 -0.1991 -0.1526  0.1963
28998W        W71936  24.960  30.663  27.906  0.2822  0.3170 -0.0358
28999W        W71937  31.180  32.029  29.044 -0.0198  0.1373 -0.0634
29000W        W71938  28.064  31.735  26.794  0.0954  0.1280 -0.0409
29001W        W71939  26.258  31.525  30.174 -0.0897 -0.1570  0.1192
29002W        W71940  27.393  31.402  29.884 -0.1067 -0.0394 -0.1999
29003W        W71941  28.354  30.515  29.481  0.0231  0.0203 -0.4389
29004W        W71942  28.074  31.157  29.330 -0.2373  0.1351  0.1198
29005W        W71943  24.296  29.409  27.846 -0.0913 -0.0674 -0.3738
29006W        W71944  27.672  33.281  29.165 -0.1420  0.0686  0.2677
29007W        W71945  26.327  32.208  28.978  0.2853 -0.1376 -0.0801
29008W        W71946  25.306  31.112  29.266 -0.0279 -0.0026 -0.0446
29009W        W71947  28.010  33.502  29.974  0.1497  0.0831 -0.2993
29010W        W71948  28.950  29.699  27.957 -0.0308  0.0889 -0.3370
29011W        W71949  25.982  31.185  29.919  0.1646  0.3106  0.3042
29012W        W71950  28.027  31.248  31.205  0.0451  0.1029  0.2394
29013W        W71951  26.222  29.469  26.526  0.0418  0.0068 -0.2538
29014W        W71952  25.659  33.453  31.134 -0.1260  0.1294  0.0911
29015W        W71953  25.692  29.677  28.406  0.1509  0.4983  0.0634
29016W        W71954  27.676  29.786  26.606 -0.2020  0.0358 -0.1071
29017W        W71955  27.586  31.339  30.702 -0.2957 -0.1561 -0.1316
29018W        W71956  28.096  32.137  29.115  0.0708  0.0687  0.1848
29019W        W71957  28.404  28.855  27.105 -0.1347  0.1800  0.2870
29020W        W71958  26.821  28.657  26.787 -0.1233 -0.1309 -0.0184
29021W        W71959  25.250  31.958  30.431  0.2916 -0.0963  0.0914
29022W        W71960  26.361  32.736  29.019 -0.1633 -0.2463 -0.0300
29023W        W71961  27.669  32.327  28.239 -0.3511  0.0017  0.2480
29024W        W71962  28.223  29.924  27.460  0.0937  0.0819  0.1402
29025W        W71963  30.329  32.533  27.793 -0.3919  0.2714  0.1492
29026W        W71964  25.195  30.681  29.870  0.2014  0.0096  0.1308
29027W        W71965  27.420  32.079   0.582  0.2613  0.0797 -0.0498
29028W        W71966  27.440  32.740  29.553  0.1073 -0.0838 -0.0684
29029W        W71967  24.965  29.514  28.916  0.0533  0.0353  0.0260
29030W        W71968  26.203  31.864  26.960 -0.1604  0.2130  0.1781
29031W        W71969  26.029  30.613  29.256  0.2505 -0.3706 -0.2955
29032W        W71970  26.056  34.350  27.230 -0.0704  0.0739 -0.2728
29033W        W71971  28.202  30.071  28.385 -0.1170  0.2029  0.0848
29034W        W71972  27.666  29.944  28.666 -0.0029 -0.0530 -0.1345
29035W        W71973  26.915  30.286  30.415 -0.1253  0.0874 -0.2820
29036W        W71974  27.871  31.785   0.967 -0.1851  0.2763  0.0003
29037W        W71975  28.569  31.594  28.363  0.1285  0.0899 -0.0573
29038W        W71976  28.920  30.809  28.919 -0.1430  0.2605 -0.2683
29039W        W71977  27.092  30.304  27.445  0.0288  0.0148  0.0809
29040W        W71978  27.881  29.942  30.168 -0.1629 -0.0000  0.1946
29041W        W71979  26.369  30.729  30.570  0.0658 -0.0465 -0.2063
29042W        W71980  25.653  34.021  29.885 -0.4479  0.1051  0.0764
29043W        W71981  27.228  32.377  30.612 -0.0860  0.1226 -0.0037
29044W        W71982  26.983  31.713  29.688  0.0300  0.1556  0.2680
29045W        W71983  26.128  30.311  29.816 -0.1827  0.2206  0.2737
29046W        W71984  27.162  28.737  30.313  0.1089 -0.2317  0.0531
29047W        W71985  26.838  31.350  28.391  0.0501 -0.1402  0.3497
29048W        W71986  25.932  31.076  28.029 -0.0174  0.2155  0.2523
29049W        W71987  26.969  28.828  28.414 -0.0316  0.1248  0.1047
29050W        W71988  27.428  31.837  30.700 -0.1408 -0.2003  0.1702
29051W        W71989  25.880  32.479  27.746  0.0079 -0.0604  0.1506
29052W        W71990  27.514  32.815  31.564 -0.0766  0.2685 -0.3883
29053W        W71991  24.916  32.270  28.732 -0.2419  0.3371  0.0183
29054W        W71992  27.861  28.208  28.923  0.1954 -0.1887 -0.0971
29055W        W71993  27.196  32.368  29.316 -0.1331  0.0063 -0.0278
29056W        W71994  26.612  30.454  27.614  0.0068 -0.1525 -0.1351
29057W        W71995  25.448  30.921  28.079  0.0254 -0.0330 -0.1437
29058W        W71996  28.056  30.397  27.362 -0.3775  0.3196 -0.1725
29059W        W71997  27.465  33.139  27.410 -0.3300  0.1030 -0.1163
29060W        W71998  26.694  30.111  29.928 -0.1222 -0.0869  0.2630
29061W        W71999  27.231  31.125  28.619 -0.0357 -0.0603 -0.1142
29062W        W72000  24.852  31.998  29.619 -0.1794 -0.3006  0.0573
29063W        W72001  28.129  32.470  31.294 -0.1276 -0.0797  0.1567
29064W        W72002  26.340  29.931  29.603 -0.1588  0.0212  0.0418
29065W        W72003  28.674  32.468  30.371  0.0401 -0.1110 -0.0472
29066W        W72004  27.192  31.265  30.436  0.2420 -0.0679 -0.0211
29067W        W72005  26.319  30.722  28.356 -0.0829 -0.2026 -0.3331
29068W        W72006  29.238  30.892  30.158 -0.4870 -0.2809  0.0767
29069W        W72007  27.845  32.529  29.744 -0.0463  0.2033 -0.2747
29070W        W72008  26.448  33.503  28.355  0.0555 -0.0987 -0.0745
29071W        W72009  25.244  32.275  29.440  0.1852 -0.1689 -0.0356
29072W        W72010  28.378  31.399  27.835  0.0735 -0.0450  0.0551
29073W        W72011  26.220  32.605  29.505  0.0843  0.1332  0.0619
29074W        W72012  26.777  29.114  29.721 -0.2539  0.3396  0.3120
29075W        W72013  27.663  32.392  31.289  0.0269 -0.1464  0.0087
29076W        W72014  28.128  31.076  28.829 -0.0963  0.0550 -0.0370
29077W        W72015  27.669  31.821  28.086 -0.4003  0.2003 -0.0145
29078W        W72016  27.853  31.085  27.933 -0.0596 -0.0485 -0.2061
29079W        W72017  28.162  32.090  29.769 -0.0625 -0.2665  0.2233
29080W        W72018  27.949  31.436   1.289  0.0237 -0.1094 -0.1887
29081W        W72019  26.041  32.188  31.465  0.2072 -0.0200  0.0567
29082W        W72020  25.620  29.609  27.884 -0.2772 -0.2518 -0.1493
29083W        W72021  29.948  31.598  29.545 -0.0361  0.3966 -0.1077
29084W        W72022  28.256  31.663  29.989 -0.0813  0.0120 -0.2144
29085W        W72023  25.203  31.464  28.944 -0.1957 -0.1047 -0.0179
29086W        W72024  25.025  30.494  29.241 -0.2505  0.0410 -0.1767
29087W        W72025  26.044  30.510  28.716 -0.2461  0.2102 -0.2545
29088W        W72026  27.663  30.931  29.455 -0.2982  0.1595  0.2879
29089W        W72027  25.331  32.000  28.143  0.0493  0.2764  0.2641
29090W        W72028  27.811  31.187  28.467 -0.2476 -0.0576 -0.0989
29091W        W72029  25.857  32.540  30.551 -0.3015  0.0112  0.0785
29092W        W72030  27.993  27.781  27.387  0.0793  0.1221 -0.0050
29093W        W72031  27.202  31.671  28.569  0.1191 -0.0924 -0.0516
29094W        W72032  26.058  31.865  29.247 -0.0339 -0.0261  0.1014
29095W        W72033  29.310  30.326  31.274 -0.1257 -0.1486 -0.0507
29096W        W72034  30.246  31.415  28.929  0.0004 -0.1000 -0.1870
29097W        W72035  27.884  30.428  29.385  0.0410  0.3483  0.2818
29098W        W72036  27.177  28.994  29.485  0.1534 -0.0587  0.1765
29099W        W72037  27.820  33.759  28.948 -0.2772 -0.2848 -0.0412
29100W        W72038  25.237  30.417  31.315  0.0427 -0.0431 -0.0539
29101W        W72039  28.020  33.838  31.937  0.4576 -0.1396 -0.3200
29102W        W72040  24.277  32.339   0.977  0.1721 -0.2143  0.2359
29103W        W72041  26.588  30.936  28.718 -0.0016 -0.0297  0.2006
29104W        W72042  26.772  29.169  28.766 -0.0189  0.2182  0.1937
29105W        W72043  26.837  32.319  30.267  0.2739  0.0370 -0.3727
29106W        W72044  28.619  32.197  29.896 -0.1239 -0.2142 -0.0843
29107W        W72045  26.216  31.249  27.693  0.0376 -0.0740 -0.1472
29108W        W72046  27.963  30.280  28.806 -0.0905 -0.1954  0.3593
29109W        W72047  27.139  33.205  31.396  0.0565  0.1075  0.3040
29110W        W72048  28.058  29.262  29.229 -0.2478  0.0396 -0.0995
29111W        W72049  27.158  31.801  28.042 -0.1143 -0.4660  0.1352
29112W        W72050  26.418  31.667  27.463 -0.0855  0.0446 -0.3790
29113W        W72051  25.800  28.153  30.050  0.0557 -0.0682 -0.2119
29114W        W72052  28.061  31.512  28.175 -0.0713  0.2231  0.1826
29115W        W72053  27.386  30.797  29.063  0.0646 -0.0648 -0.0564
29116W        W72054  27.540  29.463  29.421 -0.0726 -0.1284  0.1927
29117W        W72055  27.894  32.832  31.012  0.3050 -0.0470  0.1157
29118W        W72056  27.629  31.688  31.922  0.0859 -0.1472  0.0173
29119W        W72057  25.327  29.922  30.835 -0.0252  0.1647  0.1314
29120W        W72058  29.532  33.111  31.041  0.0022 -0.2123 -0.0757
29121W        W72059  29.653  31.451  28.570 -0.2047  0.0155  0.0309
29122W        W72060  27.843  30.728  28.632  0.3246 -0.1637 -0.1772
29123W        W72061  28.545  28.265  28.270  0.2244  0.1532 -0.2444
29124W        W72062  27.336  31.356  26.797  0.0111  0.1573  0.0414
29125W        W72063  24.799  31.828  29.097 -0.1782  0.2076  0.0295
29126W        W72064  26.963  31.915  31.643 -0.0663 -0.2089  0.0332
29127W        W72065  25.487  30.117  28.598 -0.1729 -0.0698 -0.0940
29128W        W72066  28.538  29.130  29.405 -0.1482  0.0865  0.0658
29129W        W72067  26.564  33.543  27.077  0.0988 -0.4392  0.0068
29130W        W72068  28.038  32.389  28.622  0.0879  0.0021 -0.0419
29131W        W72069  28.534  30.016  27.988 -0.0356 -0.0790 -0.0288
29132W        W72070  26.687  31.996  29.290  0.1106 -0.0647 -0.0393
29133W        W72071  26.763  33.474  31.194  0.0133  0.0022 -0.0533
29134W        W72072  25.948  31.062  27.293 -0.0385  0.3034  0.0157
29135W        W72073  29.048  31.400  28.144  0.0768 -0.2835  0.0749
29136W        W72074  27.501  32.374  28.839 -0.2994 -0.1563 -0.0599
29137W        W72075  28.543  31.078  30.623  0.1614 -0.2446 -0.0665
29138W        W72076  27.298  29.070  28.703 -0.1342 -0.0549 -0.0930
29139W        W72077  28.581  30.967  29.242  0.1817  0.1540 -0.2884
29140W        W72078  23.735  32.682  29.492  0.1662 -0.0532  0.1065
29141W        W72079  29.002  29.484  30.200  0.1481 -0.1004  0.0677
29142W        W72080  26.903  32.239  28.953  0.2498  0.3129  0.1068
29143W        W72081  26.494  32.492  31.671  0.0579  0.0126 -0.1034
29144W        W72082  25.782  31.556  27.911  0.0375 -0.2118 -0.2431
29145W        W72083  25.801  29.929  29.532  0.1451 -0.1520 -0.1613
29146W        W72084  27.385  30.505  28.669  0.0082  0.0108 -0.0808
29147W        W72085  27.467  30.233  29.074 -0.2083 -0.0153 -0.2099
29148W        W72086  28.086  30.110  29.732 -0.0085  0.1158  0.1343
29149W        W72087  27.185  33.691  31.335 -0.1645  0.1591  0.3453
29150W        W72088  26.323  30.810  29.700 -0.0554  0.0752 -0.0214
29151W        W72089  25.737  32.770  29.100 -0.0031 -0.0752  0.1307
29152W        W72090  29.764  31.045  28.893 -0.2290  0.1945 -0.4243
29153W        W72091  25.329  32.200  29.916  0.1028 -0.0678  0.0827
29154W        W72092  25.371  30.897  30.645 -0.2088  0.0556 -0.1556
29155W        W72093  26.518  31.425   0.977 -0.5356 -0.1265 -0.3066
29156W        W72094  28.038  32.680  29.051  0.5001 -0.1385 -0.0899
29157W        W72095  26.310  29.206  28.911  0.1590 -0.7745  0.0742
29158W        W72096  27.440  31.500  27.699  0.0524  0.3766  0.3200
29159W        W72097  26.119  33.515  31.866 -0.2694  0.0019  0.1127
29160W        W72098  25.863  31.882  31.841 -0.0691  0.1210 -0.0541
29161W        W72099  26.028  33.030  28.756  0.0175  0.2063  0.2812
29162W        W72100  27.746  31.964  28.577  0.0462 -0.2547 -0.1359
29163W        W72101  26.935  32.734  29.013 -0.1428 -0.0890 -0.1773
29164W        W72102  28.693  33.322  29.250 -0.0951  0.0667  0.1485
29165W        W72103  26.106  29.683  28.689  0.3403 -0.3088 -0.0404
29166W        W72104  26.784  32.090  28.275 -0.0981 -0.1344 -0.0708
29167W        W72105  25.104  33.215  26.827 -0.1605 -0.1913 -0.1004
29168W        W72106  27.021  31.280  27.860 -0.1063  0.3660 -0.2045
29169W        W72107  24.324  31.441  29.155 -0.2567 -0.1409 -0.1320
29170W        W72108  29.072  32.714  31.062 -0.3355  0.0382 -0.0368
29171W        W72109  28.850  29.784  28.796  0.2151 -0.2114  0.1297
29172W        W72110  28.393  30.137  29.009  0.1363 -0.1156  0.0983
29173W        W72111  28.215  29.214  28.048 -0.1368  0.0227  0.0147
29174W        W72112  28.289  32.634  31.788  0.1761  0.2950 -0.1825
29175W        W72113  26.909  30.804  30.280 -0.2838 -0.0577  0.3114
29176W        W72114  26.574  30.475  28.929  0.4109 -0.0787 -0.3706
29177W        W72115  24.728  30.015  29.307 -0.0677  0.3280 -0.1717
29178W        W72116  27.751  30.180   0.431 -0.0698 -0.0794 -0.2408
29179W        W72117  26.924  34.079  30.823 -0.0766  0.0136 -0.0950
29180W        W72118  30.267  31.945  29.063  0.2281  0.1181  0.0522
29181W        W72119  25.303  31.915  29.050 -0.1964 -0.0681  0.1742
29182W        W72120  26.585  29.948  27.670  0.1679  0.1780  0.1468
29183W        W72121  28.524  29.350  30.153 -0.2694  0.1017  0.0734
29184W        W72122  26.222  32.138  28.387 -0.2007 -0.3848  0.1215
29185W        W72123  28.083  31.588  28.675  0.1181 -0.1224 -0.0929
29186W        W72124  28.787  32.585  29.618  0.2836  0.2511 -0.2576
29187W        W72125  26.688  31.812  28.672 -0.0998 -0.4082  0.0371
29188W        W72126  25.868  32.143  30.262 -0.0187  0.1679 -0.2397
29189W        W72127  25.862  31.243  28.522  0.1968  0.1940 -0.1596
29190W        W72128  28.483  29.632  29.718  0.0307 -0.2048  0.1812
29191W        W72129  26.888  31.315  30.004 -0.1468 -0.0460  0.0409
29192W        W72130  26.552  30.245  30.772  0.1583  0.0571  0.2947
29193W        W72131  27.919  30.871  27.342 -0.1143  0.3071  0.1517
29194W        W72132  28.845  29.407  28.481 -0.1606  0.0729 -0.2954
29195W        W72133  26.512  33.120  30.497 -0.2361  0.1036  0.2087
29196W        W72134  27.672  31.890  29.856  0.4200 -0.2599 -0.0900
29197W        W72135  26.850  29.672  28.250  0.1468  0.0475  0.0426
29198W        W72136  27.690  31.366  31.575 -0.1700  0.0498 -0.2943
29199W        W72137  28.283  31.269  27.356 -0.0508 -0.0506  0.1918
29200W        W72138  26.940  33.118  30.933  0.4618 -0.0120 -0.0272
29201W        W72139  27.162  31.114  29.469  0.0021  0.0252  0.0549
29202W        W72140  27.723  30.082  27.453 -0.0589  0.2722  0.0649
29203W        W72141  26.720  30.265  28.129 -0.0476 -0.2414 -0.2551
29204W        W72142  28.766  31.956  30.351 -0.1886 -0.1057 -0.0445
29205W        W72143  28.925  31.742  29.715 -0.1697 -0.6328 -0.4444
29206W        W72144  25.142  29.364  30.114  0.1746  0.0164  0.2199
29207W        W72145  30.627  31.233  28.291  0.4121  0.0332  0.4186
29208W        W72146  27.576  31.420  28.819  0.1778 -0.1268  0.0096
29209W        W72147  28.064  32.694  27.655 -0.1014  0.5827  0.0492
29210W        W72148  28.491  31.889  27.797 -0.3921  0.0469 -0.1771
29211W        W72149  29.602  31.977  29.450  0.0445  0.1098  0.2586
29212W        W72150  27.310  32.200  29.833  0.2608 -0.0568  0.1550
29213W        W72151  28.302  32.562  29.507 -0.3473  0.0799  0.1030
29214W        W72152  28.566  31.474  29.497  0.1052 -0.1213  0.0341
29215W        W72153  26.254  30.752  27.738  0.0774 -0.7877  0.0672
29216W        W72154  27.835  31.540  30.207  0.2694  0.3446  0.0066
29217W        W72155  25.349  33.771  27.847 -0.3884 -0.1653  0.0009
29218W        W72156  29.347  29.391  29.842 -0.0088 -0.1358  0.0119
29219W        W72157  28.230  30.194  30.543  0.0646  0.2238 -0.3307
29220W        W72158  26.935  33.097  27.273  0.0065  0.1652  0.1953
29221W        W72159  27.561  29.704  28.215 -0.0465 -0.1815 -0.0393
29222W        W72160  27.580  33.129  30.192  0.0851 -0.0433 -0.3031
29223W        W72161  26.920  34.151  31.341  0.0575  0.3207  0.2085
29224W        W72162  26.291  32.549  27.528 -0.1205 -0.1170  0.4320
29225W        W72163  25.994  31.720  29.801 -0.0501 -0.0478 -0.4062
29226W        W72164  26.314  31.344  27.124 -0.1698  0.0670  0.2300
29227W        W72165  27.650  32.376  27.747 -0.2925 -0.2466 -0.0310
29228W        W72166  28.496  32.395  28.926 -0.1205 -0.2143 -0.2612
29229W        W72167  26.802  30.144  29.390 -0.1305  0.0424 -0.5100
29230W        W72168  29.414  31.479  29.020  0.0420  0.0889  0.0129
29231W        W72169  25.772  30.875  29.602  0.1277 -0.3052  0.0034
29232W        W72170  27.060  28.792  29.034 -0.1549  0.1367  0.0702
29233W        W72171  27.848  28.924  28.571 -0.0319  0.1830  0.1690
29234W        W72172  27.490  33.153  31.084  0.1201 -0.0107 -0.3411
29235W        W72173  24.518  31.557  26.611 -0.0511 -0.1357 -0.2658
29236W        W72174  24.929  31.184  27.985 -0.0534 -0.1706  0.1221
29237W        W72175  25.612  31.901  29.528 -0.1409 -0.1303 -0.1848
29238W        W72176  26.719  30.659  31.385  0.0340  0.3672 -0.2392
29239W        W72177  26.170  31.380  28.972  0.1294 -0.1685  0.0003
29240W        W72178  26.357  33.044  30.014 -0.1550  0.3239  0.1664
29241W        W72179  27.207  29.711  28.614 -0.1418  0.1531 -0.3992
29242W        W72180  28.327  31.016  28.362 -0.3501  0.1566  0.2221
29243W        W72181  25.275  30.119  29.580  0.2107  0.1176  0.1374
29244W        W72182  24.784  31.678  28.084  0.1496  0.3408 -0.1696
29245W        W72183  27.933  31.700  27.691  0.0511  0.2502 -0.0275
29246W        W72184  29.166  32.224  29.682 -0.1968 -0.1211 -0.2418
29247W        W72185  26.648  29.704  29.250  0.0707  0.2813 -0.0830
29248W        W72186  28.216  31.223  30.211 -0.1757 -0.3253 -0.3955
29249W        W72187  25.560  30.612  27.260  0.0527  0.0360  0.1360
29250W        W72188  27.278  30.620  29.514 -0.1039  0.1263  0.2945
29251W        W72189  26.176  31.219  30.660  0.1682 -0.0662 -0.3493
29252W        W72190  25.764  28.871  27.059  0.0582 -0.1753  0.0035
29253W        W72191  27.615  31.920  29.031 -0.2050 -0.2134  0.0647
29254W        W72192  27.584  33.435  27.032  0.0534  0.0983 -0.0234
29255W        W72193  29.821  32.307  28.537  0.0172 -0.0769 -0.1274
29256W        W72194  26.863  32.047  30.762 -0.2949 -0.3532 -0.0872
29257W        W72195  27.704  32.065  30.348 -0.1572 -0.1210  0.0981
29258W        W72196  26.656  29.070  30.216 -0.1731  0.2016  0.0552
29259W        W72197  28.625  31.189  28.793  0.0621  0.1126 -0.2120
29260W        W72198  28.014  33.012  30.028 -0.1605 -0.1731 -0.2580
29261W        W72199  28.458  30.651  28.835  0.1072  0.0177 -0.1953
29262W        W72200  28.616  29.428  29.049 -0.1359  0.3352 -0.2075
29263W        W72201  27.598  30.762  28.207 -0.0552  0.1111 -0.0432
29264W        W72202  25.561  29.507  30.677 -0.1528 -0.0800  0.0402
29265W        W72203  27.419  30.064  30.305  0.1418  0.2032 -0.1696
29266W        W72204  28.839  32.213  30.781 -0.0796  0.2096 -0.0255
29267W        W72205  26.225  30.123  29.057 -0.2563 -0.3587 -0.1843
29268W        W72206  28.762  28.594  27.442 -0.1149  0.0978  0.2006
29269W        W72207  26.417  33.207  27.458 -0.3390  0.1129  0.0596
29270W        W72208  27.143  31.656  29.163 -0.1365 -0.0584  0.2813
29271W        W72209  27.415  30.033  27.883 -0.1380  0.0300  0.1539
29272W        W72210  27.994  30.844  29.828 -0.1775 -0.1054  0.1393
29273W        W72211  26.663  31.461  29.264 -0.3744  0.0293 -0.0041
29274W        W72212  28.071  32.725   0.830  0.0975  0.2936 -0.3667
29275W        W72213  26.091  31.916  27.795 -0.0980  0.0511 -0.1642
29276W        W72214  29.774  30.564  28.610  0.1110  0.2708 -0.1865
29277W        W72215  26.847  33.467  29.111  0.1154  0.4226 -0.2022
29278W        W72216  27.614  34.457   0.528  0.1633  0.0827  0.3887
29279W        W72217  27.672  33.293  28.662  0.0913 -0.0565  0.1606
29280W        W72218  27.255  31.789  30.175 -0.0958  0.4496  0.1259
29281W        W72219  24.043  31.056  28.902  0.2372 -0.0216 -0.4050
29282W        W72220  25.630  31.740  28.476  0.0108 -0.2244 -0.0239
29283W        W72221  27.616  31.511  29.433  0.0108 -0.0374  0.1024
29284W        W72222  27.488  32.900  30.636  0.2430 -0.1019  0.0018
29285W        W72223  26.607  31.035  28.031 -0.0296  0.1014  0.0191
29286W        W72224  28.247  27.871  28.237 -0.0664 -0.6391 -0.0419
29287W        W72225  26.403  32.187  30.549  0.0954 -0.3126 -0.2068
29288W        W72226  28.165  32.093  30.289  0.4160 -0.1592 -0.1214
29289W        W72227  27.178  30.759  31.324 -0.0776 -0.0644  0.1607
29290W        W72228  27.563  32.219   1.050  0.0058 -0.1707 -0.2878
29291W        W72229  24.613  32.235   0.562  0.0369  0.0453 -0.4171
29292W        W72230  25.085  31.161  29.867  0.0458  0.0822  0.2225
29293W        W72231  26.757  31.476  31.669 -0.0470  0.0615  0.2048
29294W        W72232  25.741  33.538   1.544  0.0752  0.0766 -0.1123
29295W        W72233  28.577  30.762   0.052 -0.6318 -0.2429 -0.0012
29296W        W72234  26.518  29.795  30.944 -0.1886  0.2505 -0.0736
29297W        W72235  26.463  29.350  30.712  0.2091 -0.0788  0.0481
29298W        W72236  28.182  32.834  30.493  0.1496  0.0341 -0.1471
29299W        W72237  26.092  32.131   0.319  0.3086 -0.1187 -0.2011
29300W        W72238  26.201  31.221  29.449 -0.0236  0.4309  0.2468
29301W        W72239  27.334  31.268   0.015  0.0417 -0.0807 -0.3364
29302W        W72240  25.972  31.767  31.343  0.1638 -0.0585  0.0202
29303W        W72241  28.102  30.878  31.798 -0.1371  0.1238  0.2858
29304W        W72242  26.036  33.041  30.426  0.0308  0.4512 -0.1852
29305W        W72243  25.869  33.029  31.556  0.2151  0.0324 -0.0864
29306W        W72244  27.773  32.408  30.757  0.1848  0.0512  0.1826
29307W        W72245  25.195  29.500  31.049 -0.0162 -0.2223  0.0749
29308W        W72246  24.818  29.751  30.060  0.4698  0.2804  0.4004
29309W        W72247  25.375  27.960  30.649  0.4526 -0.4512 -0.1789
29310W        W72248  27.338  32.627  30.203 -0.0886 -0.0355 -0.2327
29311W        W72249  28.143  29.629  30.608  0.0158 -0.1520 -0.1759
29312W        W72250  27.678  30.287  28.307  0.0896  0.1375 -0.0229
29313W        W72251  26.230  29.412  30.246 -0.3192  0.0055  0.0069
29314W        W72252  26.550  29.496  31.424 -0.3444  0.2026  0.0214
29315W        W72253  26.714  31.836  30.325 -0.0773 -0.1199  0.4125
29316W        W72254  26.197  33.492  30.344 -0.2244 -0.1315  0.1025
29317W        W72255  26.591  31.948   0.083  0.2943 -0.1656  0.1443
29318W        W72256  25.629  31.427  31.870  0.2972 -0.1113 -0.0725
29319W        W72257  26.787  32.891  31.335 -0.0386 -0.0259  0.2236
29320W        W72258  27.322  30.851  30.696 -0.2689  0.6397 -0.1181
29321W        W72259  26.703  32.673  30.770 -0.0923 -0.0704  0.1920
29322W        W72260  25.625  31.346   0.414 -0.4485  0.0128  0.5273
29323W        W72261  26.189  30.621  31.431  0.0229 -0.0033 -0.2156
29324W        W72262  26.211  32.564  30.930  0.2513  0.0603  0.2022
29325W        W72263  27.174  32.149  31.118 -0.0165  0.1068 -0.2220
29326W        W72264  26.457  31.321   0.084  0.0138 -0.0323  0.0112
29327W        W72265  29.429  31.748  31.867  0.3093 -0.3821  0.3123
29328W        W72266  27.014  31.832   0.720  0.1945 -0.0307  0.1945
29329W        W72267  28.179  31.362  31.909 -0.0901 -0.1550 -0.1974
29330W        W72268  27.215  31.249  31.540 -0.3729 -0.2173  0.2118
29331W        W72269  24.474  29.001  29.281  0.1129  0.1443 -0.1698
29332W        W72270  26.783  31.141  30.647  0.1489  0.0508 -0.0155
29333W        W72271  25.612  30.483  30.334  0.0205  0.0317 -0.0777
29334W        W72272  27.870  30.885  30.849 -0.0014  0.1522 -0.3207
29335W        W72273  28.259  31.676   0.352  0.2616 -0.0574 -0.3119
29336W        W72274  26.396  31.465  31.212 -0.1265 -0.0308 -0.1074
29337W        W72275  28.375  32.955  31.093  0.1131 -0.0195  0.3949
29338W        W72276  25.070  33.728  31.940  0.1828 -0.2745 -0.5211
29339W        W72277  28.157  32.486   0.283 -0.0476  0.1759 -0.1714
29340W        W72278  27.833  30.042  30.827  0.2055  0.0662  0.0724
29341W        W72279  26.786  29.345   0.290 -0.0375 -0.2273  0.1113
29342W        W72280  27.417  31.612   0.862 -0.0838 -0.3038 -0.0635
29343W        W72281  25.714  30.314  30.870  0.1809  0.0207 -0.1996
29344W        W72282  28.074  31.372  30.675  0.0628 -0.2955 -0.0015
29345W        W72283  27.811  32.592  30.250  0.0291 -0.1534  0.3368
29346W        W72284  25.624  31.547   1.391  0.1390 -0.0434 -0.4828
29347W        W72285  26.820  32.858  31.921  0.1017  0.1782 -0.0299
29348W        W72286  25.822  31.535  30.849 -0.0677 -0.1156  0.3743
29349W        W72287  25.178  30.157  30.081  0.0701 -0.1141  0.0901
29350W        W72288  26.603  31.595  30.726  0.2610  0.3378  0.0608
29351W        W72289  24.592  32.686  31.531 -0.2670 -0.1785 -0.0157
29352W        W72290  26.476  31.035  30.195  0.0940  0.2394 -0.0372
29353W        W72291  28.766  33.666  31.218  0.1157 -0.1734  0.0618
29354W        W72292  27.948  32.005  31.183  0.0809  0.1632 -0.0486
29355W        W72293  29.231  31.914  30.966 -0.0000  0.0064 -0.0559
29356W        W72294  27.143   0.044  16.200  0.0328  0.2535 -0.0034
29357W        W72295  28.791  33.416  16.638 -0.2923 -0.3421 -0.0444
29358W        W72296  29.002  34.103  18.140  0.2952 -0.3723 -0.0690
29359W        W72297  24.233  34.224  16.725  0.0829 -0.0472 -0.0805
29360W        W72298  26.232  31.518  18.897  0.0868 -0.0018 -0.2453
29361W        W72299  28.676   0.854  17.026  0.0489 -0.0651 -0.0387
29362W        W72300  25.058  32.920  19.897 -0.0325  0.1430 -0.0293
29363W        W72301  26.531  31.507  16.880 -0.0909 -0.1770 -0.0019
29364W        W72302  23.727  34.079  16.833 -0.0138 -0.0788 -0.0486
29365W        W72303  28.213  34.431  18.858 -0.0434 -0.1339  0.0142
29366W        W72304  24.038  34.360  17.219 -0.0265 -0.1944  0.1950
29367W        W72305  26.198  32.336  18.019  0.0647 -0.0796 -0.0794
29368W        W72306  25.866  33.772  17.185 -0.1441 -0.1310  0.1893
29369W        W72307  26.466  33.627  18.692 -0.2919 -0.0227 -0.4130
29370W        W72308  27.001  33.671  18.683  0.1734  0.1308 -0.0580
29371W        W72309  26.777  34.510  16.487 -0.1533 -0.3446  0.0889
29372W        W72310  26.811  34.335  17.907 -0.2270  0.0877  0.1254
29373W        W72311  26.439  34.103  18.815  0.1729  0.0176 -0.1012
29374W        W72312  26.111  34.654  18.857 -0.5520 -0.0512  0.1590
29375W        W72313  25.481   0.286  19.554 -0.0526  0.0517  0.0027
29376W        W72314  29.024  33.429  20.763  0.1978 -0.2975  0.0422
29377W        W72315  28.002   0.269  18.700  0.0816 -0.1820 -0.1170
29378W        W72316  27.978  33.773  18.283  0.1734 -0.2380  0.0788
29379W        W72317  27.654   0.383  20.505  0.2136  0.0647  0.0102
29380W        W72318  28.918  34.271  17.116 -0.2339 -0.2647  0.1571
29381W        W72319  26.410  32.873  15.948 -0.2315  0.1585 -0.3690
29382W        W72320  28.048  33.365  17.492  0.1335  0.0540 -0.0564
29383W        W72321  26.557  33.755  19.192 -0.0492 -0.0037  0.3174
29384W        W72322  25.987   0.348  19.846  0.0045 -0.0627 -0.1147
29385W        W72323  27.150  34.689  17.503 -0.0853 -0.1489  0.0210
29386W        W72324  28.310   0.633  18.823  0.1405 -0.3733 -0.2897
29387W        W72325  26.161   0.831  17.488  0.0480  0.1525 -0.1248
29388W        W72326  25.515   0.015  17.178  0.2166  0.3382  0.0264
29389W        W72327  24.431   1.895  20.698  0.3549  0.2242 -0.0945
29390W        W72328  26.164   0.565  19.139 -0.1229  0.1157 -0.1200
29391W        W72329  25.907  32.671  16.176  0.2437 -0.3150  0.3032
29392W        W72330  28.408  34.124  18.278  0.1335  0.3025 -0.0257
29393W        W72331  27.762  34.134  19.115 -0.1664 -0.0203  0.2308
29394W        W72332  29.132  34.202  18.770 -0.1198  0.3710 -0.0060
29395W        W72333  28.771  34.650  16.542  0.1155  0.0188  0.1860
29396W        W72334  27.271  33.904  20.757  0.3418  0.0187  0.0544
29397W        W72335  25.456  33.815  18.666  0.0911 -0.0551 -0.2079
29398W        W72336  27.337  34.106  18.334 -0.0354  0.1844 -0.1556
29399W        W72337  25.939  32.910  17.894 -0.0610 -0.0001  0.4261
29400W        W72338  29.152  32.520  16.752  0.0475  0.0823  0.2358
29401W        W72339  29.510   0.707  17.334 -0.1075  0.3029 -0.0953
29402W        W72340  24.340  34.496  17.748  0.0114 -0.1286 -0.2127
29403W        W72341  25.806  33.059  17.176  0.0464  0.1640  0.1093
29404W        W72342  26.087  33.666  19.099  0.0376 -0.3492  0.1877
29405W        W72343  24.208  33.299  17.248 -0.2670 -0.2546 -0.3271
29406W        W72344  29.928  34.018  18.660  0.1444  0.3092 -0.2207
29407W        W72345  26.054  32.178  16.301  0.0129  0.0959  0.0825
29408W        W72346  26.595  33.910  17.852  0.0499  0.1126  0.0419
29409W        W72347  27.243   0.480  17.068 -0.1020 -0.2539 -0.2208
29410W        W72348  28.688  34.277  19.038 -0.0368  0.1832  0.1323
29411W        W72349  26.368  33.126  18.670  0.0675  0.3227 -0.2167
29412W        W72350  27.601  33.879  16.313  0.0760  0.0231  0.1275
29413W        W72351  25.567  34.360  16.667 -0.0884 -0.0443 -0.1598
29414W        W72352  25.908  33.223  18.381 -0.2422 -0.0674  0.0389
29415W        W72353  26.939   0.296  19.974  0.1604 -0.2329  0.1357
29416W        W72354  26.190  31.974  17.619 -0.1108 -0.0164  0.0506
29417W        W72355  24.648  34.515  16.592  0.0694  0.0004  0.3748
29418W        W72356  28.097  34.536  18.301  0.0503 -0.0778 -0.1938
29419W        W72357  25.160   0.452  19.153 -0.3540 -0.1306  0.0514
29420W        W72358  28.925   0.466  19.102 -0.2347 -0.1101 -0.0786
29421W        W72359  26.023   0.243  16.190  0.0514  0.2080  0.2519
29422W        W72360  27.982  32.669  18.244  0.1789  0.0899  0.1527
29423W        W72361  29.315   0.219  17.396  0.2095 -0.3814  0.0176
29424W        W72362  30.022  33.384  16.907  0.0050 -0.1756 -0.1874
29425W        W72363  28.498  33.830  16.756  0.2904 -0.0468  0.1359
29426W        W72364  27.523  33.264  17.502  0.0552 -0.3058 -0.1258
29427W        W72365  26.583  32.835  18.053  0.2342  0.1191  0.2013
29428W        W72366  27.087   0.979  16.692 -0.1719  0.0123  0.0965
29429W        W72367  27.666  34.264  16.739 -0.0021 -0.1436 -0.0704
29430W        W72368  30.394  32.581  19.268 -0.3146  0.4256 -0.0098
29431W        W72369  27.803  33.028  17.851 -0.0131 -0.1839 -0.3964
29432W        W72370  27.206  33.168  18.135  0.0395  0.1072  0.1150
29433W        W72371  28.854   0.932  17.833  0.2085  0.0552  0.0577
29434W        W72372  27.780  34.106  18.625 -0.0167 -0.2790 -0.1552
29435W        W72373  28.147  34.289  17.879 -0.4875 -0.1584  0.1942
29436W        W72374  26.832  32.829  16.299  0.1180  0.1770 -0.0902
29437W        W72375  26.974  34.019  19.117  0.1531  0.3908 -0.0328
29438W        W72376  26.262  34.490  19.788 -0.1197  0.3586  0.0584
29439W        W72377  26.252  34.148  17.084  0.4795  0.2249  0.3031
29440W        W72378  26.763  33.494  17.656 -0.1430  0.0173  0.0251
29441W        W72379  29.400  33.309  18.515 -0.2252 -0.0146  0.1774
29442W        W72380  26.220  34.464  17.917 -0.2832  0.2341 -0.2423
29443W        W72381  25.016  34.330  16.886  0.1545 -0.1015 -0.1308
29444W        W72382  28.941  33.194  18.615 -0.1684 -0.5615 -0.0225
29445W        W72383  23.808  33.606  17.482 -0.1180 -0.4176  0.0418
29446W        W72384  25.524   0.705  17.869  0.1676  0.0110 -0.2258
29447W        W72385  28.975  34.206  20.849  0.0081  0.0594  0.3358
29448W        W72386  28.319  34.428  16.599 -0.0644  0.0047 -0.4610
29449W        W72387  26.685  34.364  19.457 -0.1481  0.0799 -0.0230
29450W        W72388  26.039  34.079  17.600 -0.2036  0.5185  0.2218
29451W        W72389  29.174  34.419  19.249 -0.0040  0.0041  0.3543
29452W        W72390  26.094  34.039  19.856  0.0572 -0.2313  0.2561
29453W        W72391  26.736   0.169  16.842  0.4192 -0.1267  0.2779
29454W        W72392  26.151   0.064  21.176  0.0863 -0.2112 -0.1329
29455W        W72393  25.733  34.095  18.120 -0.1477 -0.1231  0.0369
29456W        W72394  25.057  33.237  17.631  0.2905 -0.0996  0.1504
29457W        W72395  25.613  33.574  18.177  0.1949  0.1860  0.1652
29458W        W72396  28.480   0.423  19.634  0.0568 -0.0778  0.0014
29459W        W72397  26.279  33.236  19.149 -0.0183 -0.2986  0.0699
29460W        W72398  26.732   0.293  21.457  0.1044  0.0295  0.1276
29461W        W72399  27.102  34.413  18.887 -0.0804 -0.0866 -0.1511
29462W        W72400  28.773  32.502  17.910  0.1351 -0.1219  0.1651
29463W        W72401  26.329  33.351  18.204  0.3271  0.0064  0.1084
29464W        W72402  29.639  33.195  19.890  0.0990  0.0434  0.0203
29465W        W72403  29.160   0.407  18.597  0.0537 -0.0823 -0.0464
29466W        W72404  26.530   0.227  19.710  0.0295 -0.0232  0.2687
29467W        W72405  25.844  33.279  19.669  0.1128 -0.1410  0.2054
29468W        W72406  24.497  32.931  18.638 -0.0218  0.2494  0.1092
29469W        W72407  25.706   1.012  20.266  0.2423  0.0077 -0.0622
29470W        W72408  28.205  33.772  17.255  0.4378  0.1079 -0.1558
29471W        W72409  27.190  34.569  16.841 -0.1627  0.2421 -0.1494
29472W        W72410  26.873  34.118  18.510 -0.1295 -0.1263 -0.3161
29473W        W72411  27.866  34.355  19.565 -0.0904  0.1912  0.0774
29474W        W72412  25.306   0.931  20.539 -0.0306 -0.1546 -0.0485
29475W        W72413  27.067  34.558  18.312 -0.3533  0.0562  0.2740
29476W        W72414  26.871  31.938  20.638  0.1890 -0.3564  0.0459
29477W        W72415  27.420  33.633  18.427 -0.1156  0.1574  0.1569
29478W        W72416  27.663  33.998  17.988  0.1394  0.2127 -0.0216
29479W        W72417  28.021   0.164  19.728 -0.2579  0.3223 -0.2025
29480W        W72418  28.020  33.198  19.668 -0.2286 -0.2432  0.1472
29481W        W72419  25.274  32.269  19.414  0.5739 -0.1775 -0.2435
29482W        W72420  29.223   0.446  16.946  0.0387 -0.0502 -0.2802
29483W        W72421  30.243  33.129  19.284  0.0809 -0.3145 -0.0704
29484W        W72422  27.568  34.371  16.253  0.1321 -0.0206 -0.1645
29485W        W72423  28.335  34.688  17.556 -0.0139 -0.1041  0.1738
29486W        W72424  25.361  33.195  19.495  0.1377 -0.3077 -0.0683
29487W        W72425  26.708   0.017  21.885 -0.2184  0.0217  0.0503
29488W        W72426  24.549  34.458  17.075 -0.0817  0.0830 -0.1538
29489W        W72427  29.903  34.459  18.434  0.2708  0.0159  0.1905
29490W        W72428  28.176  34.218  16.981 -0.0446 -0.2370  0.0659
29491W        W72429  25.869  33.180  18.864  0.0129 -0.1713  0.0205
29492W        W72430  24.273  33.619  17.692  0.2290  0.2632 -0.1456
29493W        W72431  28.024   0.127  16.282  0.1056  0.0060  0.0758
29494W        W72432  26.989  32.551  15.949 -0.0660  0.7120 -0.3378
29495W        W72433  28.633  33.975  17.834 -0.0313  0.2697  0.2325
29496W        W72434  27.018  32.868  17.196  0.0645  0.1911  0.1193
29497W        W72435  28.388  34.551  19.480  0.1978  0.0006 -0.1394
29498W        W72436  27.918  34.187  17.379 -0.2880  0.1163 -0.0757
29499W        W72437  26.651  34.547  18.936  0.0267 -0.0177  0.0100
29500W        W72438  29.176  33.838  19.328 -0.1665  0.3062  0.2555
29501W        W72439  26.823  34.518  17.160  0.1328  0.1059  0.4098
29502W        W72440  25.680   0.557  20.515  0.1278  0.2360  0.0288
29503W        W72441  27.181  33.641  17.340  0.0228 -0.3515 -0.0496
29504W        W72442  28.360  33.299  16.848 -0.0799  0.0253 -0.1001
29505W        W72443  28.774  33.178  16.042  0.1741 -0.1059  0.1456
29506W        W72444  27.266   0.114  19.126  0.2757 -0.0725 -0.1031
29507W        W72445  28.538  33.463  17.582 -0.2344  0.0272 -0.1092
29508W        W72446  25.591   0.661  19.899  0.0134  0.1926 -0.1805
29509W        W72447  27.365  34.469  15.770  0.0734  0.0359 -0.1882
29510W        W72448  26.238  34.158  19.375  0.0016  0.0667 -0.1998
29511W        W72449  28.558  31.197  20.233 -0.0183  0.3344 -0.4643
29512W        W72450  25.039  33.748  18.386  0.1522 -0.1794 -0.0952
29513W        W72451  25.901  33.467  16.806  0.0402 -0.1223 -0.0228
29514W        W72452  29.542  31.763  19.813 -0.1544  0.0918 -0.0563
29515W        W72453  26.283  33.209  17.604  0.0897 -0.2108  0.2215
29516W        W72454  24.568  32.639  17.044 -0.2702  0.2774  0.0483
29517W        W72455  29.849  33.460  18.900 -0.0793 -0.1343  0.2235
29518W        W72456  25.917  33.702  18.564  0.1842  0.0048 -0.0565
29519W        W72457  28.711  33.720  18.992  0.3605  0.0721  0.0462
29520W        W72458  25.800   0.245  16.623 -0.1458  0.3466  0.1468
29521W        W72459  25.627  32.501  18.121  0.1599 -0.0662  0.1096
29522W        W72460  25.109  32.413  18.936  0.0042 -0.0523  0.1364
29523W        W72461  28.377   0.254  16.654  0.3981 -0.3069 -0.0786
29524W        W72462  28.506   0.759  19.268 -0.0729 -0.1798 -0.0797
29525W        W72463  28.799   0.417  16.763 -0.1370 -0.0447  0.1391
29526W        W72464  26.342  33.200  17.130  0.1023 -0.3339 -0.0764
29527W        W72465  27.732  32.393  17.182 -0.1655 -0.0098  0.2149
29528W        W72466  24.709   0.515  16.291  0.0200 -0.0252  0.4921
29529W        W72467  27.073  34.232  19.894  0.1776 -0.1797  0.3211
29530W        W72468  26.355  33.682  16.875 -0.1717 -0.3068  0.1345
29531W        W72469  27.548   0.106  19.522 -0.1609  0.0803 -0.0322
29532W        W72470  28.590   0.277  18.589  0.0060 -0.1788  0.1256
29533W        W72471  25.459  33.140  17.970 -0.0460  0.1521 -0.0373
29534W        W72472  27.682  33.820  17.057 -0.0076  0.3193  0.0357
29535W        W72473  26.278   0.313  17.654  0.2786  0.3804 -0.2255
29536W        W72474  29.225  33.639  18.167 -0.1382  0.1700  0.0605
29537W        W72475  30.204  34.191  18.077  0.0881  0.1449  0.0337
29538W        W72476  28.611  33.610  20.276  0.2189  0.0419  0.0895
29539W        W72477  25.796  32.461  17.615 -0.1805 -0.0432 -0.2780
29540W        W72478  26.108  33.768  18.056  0.0013 -0.6187  0.2420
29541W        W72479  29.813  33.622  18.382 -0.0032 -0.1406 -0.3984
29542W        W72480  28.744  33.821  17.215  0.1308 -0.0306  0.2233
29543W        W72481  26.125   0.121  19.367  0.0907  0.0551  0.1223
29544W        W72482  24.943  34.222  16.267 -0.3956 -0.3570 -0.2319
29545W        W72483  28.363  32.511  18.794  0.1369  0.1391  0.0431
29546W        W72484  24.937  33.165  18.155 -0.0167  0.2727  0.2589
29547W        W72485  26.609   0.291  19.246 -0.2339  0.0330 -0.2153
29548W        W72486  26.375  33.147  16.391 -0.0965 -0.0585  0.1657
29549W        W72487  25.410  32.988  19.078  0.0385 -0.2074 -0.1182
29550W        W72488  23.839  33.134  16.968 -0.0505 -0.2264 -0.1191
29551W        W72489  26.822  34.124  16.907  0.2083 -0.1465  0.0027
29552W        W72490  28.780  34.509  20.382  0.3544  0.0397  0.0057
29553W        W72491  27.307  34.307  19.433  0.4128 -0.0213  0.0649
29554W        W72492  26.071  34.032  16.175  0.1814 -0.0915  0.1159
29555W        W72493  25.986  34.413  18.435  0.1866 -0.0774  0.0436
29556W        W72494  24.634  33.658  20.286 -0.0482 -0.1099 -0.1397
29557W        W72495  28.640  31.722  18.608 -0.0844 -0.1255 -0.3119
29558W        W72496  27.332   0.205  17.960 -0.0758  0.0381  0.3101
29559W        W72497  26.995  33.662  19.810  0.0561  0.3295 -0.0371
29560W        W72498  26.914  33.667  18.199 -0.2058 -0.3342 -0.3645
29561W        W72499  28.032  32.960  18.669 -0.1374  0.0714  0.0029
29562W        W72500  26.909  33.940  20.292  0.4265  0.0700  0.2276
29563W        W72501  28.007  33.921  16.610 -0.1401 -0.0502 -0.3093
29564W        W72502  26.298   0.120  20.174 -0.2754  0.1027 -0.1141
29565W        W72503  28.037  33.074  16.553  0.0327 -0.1331  0.0805
29566W        W72504  30.268  34.146  17.274 -0.1997  0.0368 -0.0020
29567W        W72505  25.144  31.829  17.697 -0.0118  0.2588 -0.1140
29568W        W72506  25.203  34.687  17.925 -0.0003  0.0274  0.4048
29569W        W72507  26.361   0.005  17.096  0.0319 -0.2014  0.0923
29570W        W72508  28.303  34.110  19.340 -0.0986  0.0341  0.0271
29571W        W72509  25.065  32.833  18.495  0.0882  0.1388  0.0755
29572W        W72510  28.029   0.273  17.287  0.1473  0.1599  0.3519
29573W        W72511  24.952  34.267  20.393  0.2178 -0.0146  0.0475
29574W        W72512  28.454  34.657  19.985  0.1189  0.0345  0.2212
29575W        W72513  27.496  34.021  21.154 -0.2299  0.4811  0.2454
29576W        W72514  26.045  34.046  23.673 -0.1192  0.0240  0.4573
29577W        W72515  25.906  32.221  22.505  0.0366 -0.2186  0.0421
29578W        W72516  27.408   0.167  20.928 -0.4239  0.2289  0.0925
29579W        W72517  26.363  33.676  23.721  0.1142  0.0347  0.1205
29580W        W72518  25.839  33.065  20.488  0.0996  0.0933 -0.0771
29581W        W72519  25.501  32.656  19.606  0.0356  0.0112  0.2028
29582W        W72520  28.142  33.802  23.466 -0.1645  0.3272  0.1785
29583W        W72521  24.594   0.365  19.570  0.1024 -0.2079 -0.1393
29584W        W72522  26.355  34.619  24.040  0.3003  0.0245  0.0890
29585W        W72523  27.012  34.251  21.338  0.2006 -0.0161  0.1292
29586W        W72524  24.973  33.368  22.034  0.0788 -0.4474 -0.0424
29587W        W72525  28.229  33.000  23.661  0.2024  0.0293 -0.1795
29588W        W72526  26.712  34.504  20.467  0.3286 -0.0143  0.0972
29589W        W72527  25.223  34.085  21.283  0.1468  0.3102 -0.2006
29590W        W72528  27.385  33.650  23.373  0.2878  0.2090  0.1614
29591W        W72529  27.985  34.497  21.545 -0.0691  0.1629  0.2844
29592W        W72530  27.557   0.700  22.922 -0.1185  0.2531 -0.0909
29593W        W72531  27.339  34.446  24.960  0.2397 -0.0522 -0.1106
29594W        W72532  26.865  34.211  22.895  0.0517  0.0724  0.1505
29595W        W72533  27.331  33.919  22.164  0.0230 -0.2720  0.0857
29596W        W72534  28.488  32.651  24.369  0.2806  0.1521  0.3163
29597W        W72535  27.285  34.288  20.372  0.1017  0.1637  0.0638
29598W        W72536  28.140  34.059  19.848 -0.2118 -0.0841 -0.1501
29599W        W72537  28.477  33.415  21.328 -0.0677  0.1278  0.2094
29600W        W72538  27.459  31.987  21.518 -0.4023 -0.4382  0.1584
29601W        W72539  27.410  34.225  24.258 -0.0898  0.0060 -0.0147
29602W        W72540  25.791  34.014  21.926 -0.1337  0.0969 -0.1554
29603W        W72541  26.640  33.219  22.539  0.1983 -0.1911 -0.1763
29604W        W72542  24.483   0.423  22.378 -0.1189 -0.0203 -0.0803
29605W        W72543  26.581  34.283  21.677  0.1449 -0.4272  0.4728
29606W        W72544  25.947  34.251  23.197  0.0463 -0.0065 -0.0154
29607W        W72545  25.364  32.924  22.889  0.1535 -0.1077 -0.0367
29608W        W72546  26.344  32.516  20.065 -0.5307 -0.1284 -0.1191
29609W        W72547  28.629  34.111  20.045  0.3337 -0.0419 -0.2248
29610W        W72548  27.047  32.428  20.758  0.1498 -0.1265 -0.2624
29611W        W72549  28.379  33.727  23.035 -0.2398 -0.0457  0.0002
29612W        W72550  27.516   0.577  22.018  0.0288 -0.0778  0.0156
29613W        W72551  26.575  34.019  21.236  0.0760 -0.4097  0.0018
29614W        W72552  24.427  32.526  22.281 -0.2088  0.2481  0.1151
29615W        W72553  29.379  32.750  19.880 -0.1868 -0.1910 -0.2483
29616W        W72554  25.595  33.132  22.008 -0.1871 -0.0282  0.0142
29617W        W72555  29.156  32.676  19.420  0.0544 -0.1260 -0.0931
29618W        W72556  27.981  33.887  20.894  0.1332 -0.1448  0.1579
29619W        W72557  25.727  33.679  22.657  0.0330  0.0047 -0.4202
29620W        W72558  24.609  32.831  21.512  0.1143  0.1313  0.0770
29621W        W72559  25.423  33.965  22.310 -0.2091 -0.1125  0.1751
29622W        W72560  24.758  32.974  21.066  0.4222  0.1961  0.1862
29623W        W72561  29.047  33.557  23.662 -0.1483  0.1662 -0.1443
29624W        W72562  24.530  33.933  20.659  0.2199  0.1027 -0.3085
29625W        W72563  27.887  33.985  21.453  0.0567 -0.2772  0.2722
29626W        W72564  26.703  34.550  19.925 -0.1879  0.1050 -0.2813
29627W        W72565  28.922  34.578  24.165 -0.0528  0.0703  0.4428
29628W        W72566  27.060  33.129  24.029 -0.0315  0.2033 -0.1734
29629W        W72567  26.953   0.127  20.992 -0.1714 -0.2122 -0.0052
29630W        W72568  25.768  34.260  20.981  0.1350 -0.3826 -0.0001
29631W        W72569  27.665  32.721  21.852 -0.0728 -0.0199  0.4200
29632W        W72570  27.070  34.546  22.350  0.0640 -0.0159 -0.1432
29633W        W72571  26.295  33.558  19.673 -0.2345  0.0012 -0.2241
29634W        W72572  26.165   0.933  21.714 -0.0320 -0.1362 -0.0850
29635W        W72573  27.100  31.973  21.977  0.1700 -0.0971  0.1025
29636W        W72574  25.316  33.541  23.527  0.3314  0.1368 -0.0014
29637W        W72575  27.106  33.435  22.948  0.0540  0.2179 -0.0023
29638W        W72576  26.285  34.313  20.875  0.0891 -0.0602 -0.0895
29639W        W72577  28.182  32.227  21.196 -0.2344 -0.4371  0.0868
29640W        W72578  29.158  32.059  19.650 -0.2061 -0.0726  0.3118
29641W        W72579  27.803   0.597  20.007  0.2937  0.2081 -0.3539
29642W        W72580  27.392  33.764  19.454  0.0857  0.0047 -0.0195
29643W        W72581  29.060  33.698  19.806 -0.0119  0.2193  0.1416
29644W        W72582  26.766  32.629  22.543  0.2663 -0.1116  0.2714
29645W        W72583  28.114   0.831  19.603 -0.1215  0.1626  0.2090
29646W        W72584  26.888  32.343  21.191  0.0166 -0.5068  0.0262
29647W        W72585  28.533  31.427  22.285 -0.0170  0.1631  0.1806
29648W        W72586  29.499  34.000  21.943 -0.1679 -0.1771 -0.2532
29649W        W72587  27.786  32.258  23.224  0.0971  0.2251  0.2288
29650W        W72588  28.870  34.078  24.356  0.2153  0.2098  0.0190
29651W        W72589  29.179  34.329  21.281 -0.2355  0.0171 -0.1857
29652W        W72590  27.161  33.424  22.459  0.0862  0.0365 -0.2592
29653W        W72591  25.864   0.696  19.475  0.2298 -0.2046  0.0864
29654W        W72592  27.529  32.660  22.982  0.0426  0.1083 -0.1434
29655W        W72593  27.731  33.774  23.747  0.2733 -0.0558  0.1619
29656W        W72594  26.581  33.956  19.798  0.0950 -0.0202 -0.0434
29657W        W72595  25.670  32.644  21.708 -0.3993  0.1930  0.2600
29658W        W72596  27.683  31.822  22.007 -0.0085  0.1059 -0.2193
29659W        W72597  25.850   0.042  20.419  0.0477 -0.0987  0.0293
29660W        W72598  26.461   0.548  20.057 -0.2106  0.0114  0.1257
29661W        W72599  28.079  33.658  20.126 -0.1733  0.2343 -0.1002
29662W        W72600  26.237  33.610  22.585 -0.1184 -0.1599  0.0632
29663W        W72601  27.146  32.620  22.102 -0.2436 -0.2627 -0.0866
29664W        W72602  28.013  33.435  23.206 -0.1306 -0.1106  0.4651
29665W        W72603  27.298  34.650  19.979  0.0383  0.0250 -0.0026
29666W        W72604  26.893   0.006  24.157 -0.1213  0.1763 -0.1445
29667W        W72605  25.195  33.850  20.132  0.1757 -0.2511 -0.0348
29668W        W72606  27.607  34.580  23.247 -0.1375  0.0946 -0.0607
29669W        W72607  27.345  33.688  20.182  0.2776 -0.2110  0.0481
29670W        W72608  25.991  34.342  21.432 -0.1240 -0.3082  0.0448
29671W        W72609  25.858  33.536  22.174  0.3926  0.1238 -0.0381
29672W        W72610  25.706  32.696  22.194 -0.3619  0.1311  0.3238
29673W        W72611  24.894  34.267  22.132 -0.0660 -0.1266 -0.0516
29674W        W72612  27.746  33.937  20.416  0.0958 -0.2569  0.0418
29675W        W72613  27.784  34.215  24.956 -0.1065 -0.1661 -0.0263
29676W        W72614  26.528  33.750  20.778 -0.1107 -0.1759 -0.0360
29677W        W72615  27.430   0.812  24.365  0.0636 -0.0082  0.0123
29678W        W72616  26.295  33.867  22.124  0.0970  0.3357  0.0449
29679W        W72617  28.291  32.840  20.546  0.0964  0.1788  0.0659
29680W        W72618  26.670  33.451  20.208 -0.2030 -0.0741 -0.3595
29681W        W72619  28.702  34.038  23.293 -0.2248  0.5270 -0.1682
29682W        W72620  26.780  34.172  20.818 -0.1372 -0.0795 -0.0144
29683W        W72621  27.932  33.124  22.322 -0.2022 -0.1508 -0.3238
29684W        W72622  26.560  33.410  22.965  0.3266  0.1525 -0.3233
29685W        W72623  25.264  31.939  23.285  0.2412  0.2154 -0.0835
29686W        W72624  26.097  33.213  23.452  0.0826  0.2027  0.2037
29687W        W72625  28.417  33.592  20.760  0.1012  0.0573  0.0792
29688W        W72626  25.110  33.344  21.046 -0.0773  0.1000 -0.2087
29689W        W72627  26.159  34.335  21.976 -0.1910 -0.0966 -0.1371
29690W        W72628  28.150  33.803  22.277  0.0572  0.3441 -0.1190
29691W        W72629  25.548  34.570  21.383  0.0848  0.0252  0.1047
29692W        W72630  28.275  34.620  20.729  0.3443 -0.0886 -0.1089
29693W        W72631  25.019  32.414  22.937 -0.0241  0.1524  0.0379
29694W        W72632  27.163  33.240  20.962  0.0479  0.2111  0.2757
29695W        W72633  28.570  34.320  21.439 -0.0069 -0.1603  0.1345
29696W        W72634  26.865  33.258  21.361  0.1615  0.1597 -0.1201
29697W        W72635  27.556  33.122  23.220  0.0817 -0.3155 -0.0766
29698W        W72636  24.400  34.585  23.994  0.1217  0.3078 -0.4121
29699W        W72637  29.463  33.231  20.536 -0.2530 -0.3203  0.0164
29700W        W72638  27.442  34.369  22.792  0.1049  0.0546 -0.3066
29701W        W72639  27.746   0.450  22.428 -0.2032 -0.0710 -0.0847
29702W        W72640  27.556  34.199  19.992  0.1161 -0.0811  0.2848
29703W        W72641  24.852  33.560  23.269 -0.1236 -0.0573  0.1426
29704W        W72642  27.583   0.500  23.996 -0.2832  0.1299  0.0735
29705W        W72643  25.597   0.081  20.028 -0.1321  0.0666  0.1756
29706W        W72644  26.899  34.355  25.365  0.1988  0.2867 -0.3099
29707W        W72645  27.985  32.819  21.388 -0.2483 -0.2459 -0.2755
29708W        W72646  23.917  33.330  23.090 -0.2341 -0.1398 -0.0223
29709W        W72647  25.387  34.601  20.450  0.1806  0.1061 -0.0593
29710W        W72648  27.807  34.636  20.169  0.1348 -0.2085 -0.1404
29711W        W72649  26.164  34.303  20.354  0.3336  0.0593 -0.1358
29712W        W72650  28.552  34.478  23.665  0.3711 -0.0414 -0.0014
29713W        W72651  26.674  32.761  21.680  0.0751 -0.2662  0.1951
29714W        W72652  27.251  33.532  21.905 -0.3012  0.1371 -0.1103
29715W        W72653  27.679  33.601  22.413 -0.4205 -0.1824  0.2816
29716W        W72654  27.771  34.126  22.487  0.0905  0.0561 -0.0058
29717W        W72655  27.424  33.060  22.151 -0.1489  0.0480 -0.0770
29718W        W72656  25.729  33.871  21.446 -0.0918 -0.0560  0.3684
29719W        W72657  25.108  34.015  23.277 -0.1065  0.0460 -0.1788
29720W        W72658  26.359   0.090  20.742 -0.1765 -0.1723 -0.0668
29721W        W72659  26.412  32.270  19.518 -0.0786 -0.1298  0.3399
29722W        W72660  28.127  32.924  19.139  0.2916 -0.3762  0.0655
29723W        W72661  28.294  33.129  21.684  0.1901 -0.0944 -0.1235
29724W        W72662  27.756  33.766  21.886  0.2199 -0.0926  0.0039
29725W        W72663  27.118  34.369  21.890 -0.1231  0.1968 -0.2103
29726W        W72664  25.561  32.764  18.554 -0.2492  0.0200  0.1606
29727W        W72665  27.963  33.328  24.030  0.3044  0.1673 -0.4018
29728W        W72666  29.185  34.296  25.106 -0.1211 -0.1967  0.0686
29729W        W72667  25.052  32.730  19.354  0.0040 -0.0755  0.0015
29730W        W72668  26.813  33.640  22.058  0.1813  0.3682  0.4068
29731W        W72669  29.303  32.562  22.777  0.2634 -0.1092 -0.3586
29732W        W72670  26.879  33.146  22.049  0.2754 -0.0036  0.2858
29733W        W72671  25.698  34.213  20.106 -0.2558  0.0887 -0.3191
29734W        W72672  29.242   0.052  20.486  0.4093  0.1399  0.4268
29735W        W72673  26.558  33.173  23.786 -0.3242  0.0044  0.1200
29736W        W72674  27.715  32.222  22.565  0.2995  0.0262 -0.1107
29737W        W72675  26.300  33.826  20.254 -0.1909 -0.0248  0.0818
29738W        W72676  27.280   0.141  21.956  0.0093 -0.2437  0.0831
29739W        W72677  24.384  33.435  23.065 -0.3288  0.0055 -0.0961
29740W        W72678  27.718  33.546  19.815 -0.0695  0.1209 -0.0661
29741W        W72679  27.268  33.836  23.918  0.0248  0.4064 -0.1018
29742W        W72680  27.235  34.381  20.891 -0.2914  0.1390  0.0782
29743W        W72681  24.542  33.442  20.897 -0.0572  0.2828  0.2261
29744W        W72682  27.758  34.436  21.101  0.1849  0.2526  0.1255
29745W        W72683  26.218   0.057  21.691  0.0101  0.1519  0.1173
29746W        W72684  25.855  34.483  25.174  0.0181 -0.1327 -0.0622
29747W        W72685  24.736  32.834  20.266 -0.1500 -0.0518 -0.1261
29748W        W72686  27.990  34.467  22.818 -0.0252  0.2667  0.4396
29749W        W72687  28.633   0.494  23.013 -0.2965 -0.2035  0.1973
29750W        W72688  26.459  32.826  22.212 -0.2709  0.0470  0.0389
29751W        W72689  25.946  33.479  20.717 -0.1048  0.1116 -0.1285
29752W        W72690  26.046  32.975  21.974  0.0773  0.2114 -0.0283
29753W        W72691  27.675  34.290  21.912  0.2029 -0.0728 -0.3436
29754W        W72692  28.781  34.058  23.789  0.0723  0.1336  0.0444
29755W        W72693  29.897  32.976  23.577  0.0958 -0.0732 -0.2115
29756W        W72694  26.875  33.836  21.614 -0.0440 -0.1345  0.3669
29757W        W72695  26.332  32.453  21.702 -0.0094 -0.1447 -0.2960
29758W        W72696  30.150  33.164  21.008 -0.2476 -0.2508 -0.4486
29759W        W72697  28.754  33.792  21.533 -0.0994 -0.2219  0.1165
29760W        W72698  26.087   0.641  23.835  0.2701  0.5231 -0.1322
29761W        W72699  24.593  33.401  19.063 -0.0393 -0.0854 -0.0069
29762W        W72700  27.080  32.272  24.069 -0.0437 -0.2447  0.2874
29763W        W72701  28.012  33.825  24.195  0.2197  0.1397  0.1988
29764W        W72702  25.996   0.463  20.871  0.0978 -0.3185  0.0216
29765W        W72703  25.200  34.064  19.617 -0.0750  0.2710  0.0058
29766W        W72704  24.780  32.705  22.665 -0.2098 -0.0005 -0.1182
29767W        W72705  24.695  34.288  21.686  0.2150 -0.2745  0.0514
29768W        W72706  27.059  33.510  20.562 -0.2417 -0.2635 -0.2619
29769W        W72707  26.460  32.832  23.335  0.2616  0.1725 -0.0869
29770W        W72708  27.838  32.731  23.817  0.1642 -0.1057 -0.1161
29771W        W72709  26.105  32.731  18.412 -0.0512  0.0202  0.0648
29772W        W72710  26.665  34.655  23.654  0.3491 -0.2064 -0.0498
29773W        W72711  24.605  32.477  21.809  0.0417  0.1019 -0.2455
29774W        W72712  27.641  32.694  22.388  0.0197  0.1074 -0.1557
29775W        W72713  26.493  34.191  23.250  0.3992  0.2290  0.0089
29776W        W72714  24.387  31.774  23.454  0.2863  0.3900  0.4219
29777W        W72715  26.739  32.917  20.955 -0.3471 -0.1915 -0.1421
29778W        W72716  27.580  33.051  21.113 -0.0224  0.0158 -0.1596
29779W        W72717  25.980  34.059  22.414  0.2648 -0.3779 -0.0365
29780W        W72718  25.867  33.973  20.533  0.2887 -0.1351 -0.2762
29781W        W72719  26.937   1.094  24.420 -0.0827 -0.0860 -0.0388
29782W        W72720  27.025   0.064  19.552 -0.0355 -0.1220 -0.1926
29783W        W72721  29.748   0.216  20.138  0.2271 -0.0441  0.1865
29784W        W72722  27.095  32.932  22.887  0.2402 -0.0039 -0.2869
29785W        W72723  27.210  33.184  20.121  0.4331 -0.1378 -0.1171
29786W        W72724  26.734  33.774  22.599  0.1985  0.4258  0.1697
29787W        W72725  28.224  33.644  21.723 -0.1420  0.0719 -0.0365
29788W        W72726  25.552  33.690  20.990 -0.1931  0.2298  0.0257
29789W        W72727  26.150  33.215  20.130  0.1056  0.1178 -0.2114
29790W        W72728  25.578  33.044  23.776  0.0200 -0.0605  0.1018
29791W        W72729  28.059  34.316  23.818 -0.0403 -0.3009 -0.0638
29792W        W72730  27.544   0.920  24.847 -0.3696 -0.1366  0.0595
29793W        W72731  26.389  33.127  24.807 -0.2923 -0.3093  0.2029
29794W        W72732  25.560  32.922  26.658 -0.1208 -0.0416  0.1647
29795W        W72733  27.267   1.220  25.461  0.2623 -0.2170  0.0571
29796W        W72734  25.772  34.034  26.946  0.0690 -0.3386 -0.0226
29797W        W72735  25.785  32.120  24.118 -0.0074  0.2075 -0.0024
29798W        W72736  25.205  33.227  25.401 -0.1147 -0.2401  0.0723
29799W        W72737  28.642   1.333  26.596 -0.4062  0.2608 -0.4940
29800W        W72738  26.277   2.018  24.087 -0.1345  0.0540 -0.0827
29801W        W72739  26.380  33.551  25.631  0.1870  0.0008 -0.3007
29802W        W72740  26.351  34.438  25.370  0.0517  0.1239  0.3227
29803W        W72741  26.575  33.912  26.214  0.1513  0.0411 -0.2066
29804W        W72742  27.719  34.211  26.200 -0.0560 -0.3714 -0.3285
29805W        W72743  24.270  32.883  24.559 -0.3868  0.1609  0.2771
29806W        W72744  25.485  34.280  26.678 -0.0708 -0.1029  0.1690
29807W        W72745  26.812  34.336  26.850  0.0484 -0.0062  0.1106
29808W        W72746  28.416   1.315  25.002 -0.1455 -0.0641 -0.4622
29809W        W72747  28.029   0.071  26.515 -0.1518  0.1687  0.0718
29810W        W72748  28.032  34.170  27.138  0.1095  0.1317 -0.0025
29811W        W72749  28.229   0.204  26.052  0.1600 -0.0949  0.0047
29812W        W72750  27.546  33.695  26.024  0.0500 -0.1144  0.1055
29813W        W72751  28.396   0.881  26.636 -0.2050 -0.3792 -0.2731
29814W        W72752  28.986  33.577  24.168 -0.3212  0.1508 -0.1798
29815W        W72753  26.788   0.072  24.778 -0.0504  0.0095  0.3229
29816W        W72754  28.431   0.617  25.686 -0.0274  0.2278  0.0474
29817W        W72755  27.808  32.939  24.750 -0.0064 -0.1669  0.0487
29818W        W72756  26.866  32.870  26.756  0.0021 -0.1912  0.2349
29819W        W72757  26.700   1.048  25.378  0.3212 -0.1448  0.5265
29820W        W72758  28.201  34.335  26.221  0.1527 -0.2076  0.0257
29821W        W72759  25.619  34.544  26.163  0.0655  0.3466 -0.0473
29822W        W72760  25.396  33.532  25.887  0.1755 -0.1426  0.1840
29823W        W72761  26.054  34.183  26.472  0.0381 -0.0636 -0.0734
29824W        W72762  25.274  33.902  26.972  0.0134 -0.0233  0.1409
29825W        W72763  26.998  32.280  24.568 -0.1350  0.0405  0.0708
29826W        W72764  28.896   0.105  25.108  0.0535  0.0960  0.1555
29827W        W72765  26.824  33.190  26.384 -0.0021 -0.1653 -0.0611
29828W        W72766  30.373  33.902  26.848  0.1273 -0.0175  0.0404
29829W        W72767  27.336  33.992  25.262  0.2851 -0.1956  0.5146
29830W        W72768  25.425   0.169  26.726  0.0832  0.1906 -0.3896
29831W        W72769  26.353  34.049  26.962 -0.0955 -0.0956  0.1031
29832W        W72770  28.578   0.503  25.150 -0.0584  0.1571 -0.1046
29833W        W72771  24.977  33.573  26.195  0.1521 -0.2131  0.3988
29834W        W72772  29.052  33.593  26.050 -0.2906 -0.2656 -0.0186
29835W        W72773  27.779   0.503  23.273 -0.0991  0.0250 -0.0361
29836W        W72774  25.705  33.023  25.915 -0.1331  0.2542 -0.0558
29837W        W72775  24.365  33.774  24.873  0.0884  0.0936 -0.0722
29838W        W72776  27.320  33.429  26.363  0.0478  0.1184 -0.3458
29839W        W72777  26.550  33.807  24.602 -0.3219  0.4014 -0.2307
29840W        W72778  28.389   0.670  27.728 -0.1157 -0.1915 -0.0976
29841W        W72779  26.961  32.120  22.414 -0.2512 -0.0680  0.0109
29842W        W72780  27.907  34.631  25.745 -0.0433  0.1043 -0.2975
29843W        W72781  26.026  33.355  23.985  0.1207 -0.1768  0.0672
29844W        W72782  29.163   0.249  26.557 -0.0656  0.0822 -0.0585
29845W        W72783  26.854  34.241  26.042  0.1416  0.0254  0.2566
29846W        W72784  24.181  33.680  23.629  0.1876  0.1583 -0.1473
29847W        W72785  25.958   1.101  25.734  0.0369 -0.2720 -0.2427
29848W        W72786  28.136  32.362  27.139  0.2239 -0.0011 -0.2135
29849W        W72787  27.098   0.026  26.782  0.2579  0.1690 -0.1459
29850W        W72788  25.092  32.867  23.320 -0.1274  0.1602 -0.1780
29851W        W72789  25.111   1.485  25.683  0.0627  0.0711  0.0849
29852W        W72790  29.837   0.389  24.944  0.2162 -0.2410 -0.0343
29853W        W72791  24.979  34.353  28.609  0.0312  0.0347 -0.0648
29854W        W72792  28.518  33.940  26.326  0.1879  0.0040 -0.0281
29855W        W72793  25.741  34.691  24.728 -0.3586 -0.1082  0.0143
29856W        W72794  26.917  33.561  23.705  0.1998 -0.3051 -0.2931
29857W        W72795  29.216   1.388  24.293 -0.0315  0.0155 -0.2175
29858W        W72796  27.753   0.551  25.158  0.1179  0.1416 -0.3017
29859W        W72797  26.071  33.873  24.287  0.2292 -0.2945  0.0367
29860W        W72798  27.267  33.899  22.685 -0.0527  0.0376 -0.2442
29861W        W72799  25.328  33.173  26.294  0.0307  0.3406 -0.1875
29862W        W72800  27.191   1.072  23.945  0.0346 -0.1519  0.2297
29863W        W72801  27.834  33.214  25.184  0.1101 -0.1473 -0.0534
29864W        W72802  27.506  33.549  24.282 -0.0987 -0.0181  0.3494
29865W        W72803  28.399  33.957  25.784 -0.2393  0.3720  0.0946
29866W        W72804  27.776  33.569  26.560  0.3754 -0.2815 -0.2979
29867W        W72805  27.391   0.229  27.651 -0.2227 -0.1540  0.1565
29868W        W72806  27.925  34.256  24.448 -0.2199  0.3061  0.1513
29869W        W72807  28.257   0.895  25.283  0.1753 -0.1201 -0.0682
29870W        W72808  26.994  34.354  24.540 -0.0984  0.1182  0.1747
29871W        W72809  28.015  33.805  26.212  0.0296  0.1142  0.0689
29872W        W72810  27.543  34.024  27.263  0.2024 -0.2234 -0.4658
29873W        W72811  27.091  33.104  23.452 -0.0313  0.0782 -0.0248
29874W        W72812  27.026  33.729  25.913  0.2209 -0.1931  0.0907
29875W        W72813  28.507   0.292  26.509 -0.1225  0.0834 -0.2344
29876W        W72814  25.376  33.738  25.453  0.0250 -0.2094 -0.0246
29877W        W72815  23.582  33.672  25.043 -0.1448  0.0555 -0.2175
29878W        W72816  27.749   0.078  25.185 -0.2837 -0.1416 -0.1442
29879W        W72817  27.579  32.818  26.037  0.1751  0.1830  0.1682
29880W        W72818  26.803  33.902  24.018 -0.1642 -0.1359  0.1050
29881W        W72819  29.614   1.027  27.884 -0.0556 -0.1351 -0.1711
29882W        W72820  27.897  33.741  25.317  0.0393 -0.6549  0.2141
29883W        W72821  27.247   0.910  26.307  0.0201  0.4398 -0.2079
29884W        W72822  24.439  32.417  24.107  0.2059 -0.0850  0.0568
29885W        W72823  29.993  34.202  26.221 -0.0886 -0.2029 -0.3237
29886W        W72824  27.263  33.268  24.653  0.0322  0.1238 -0.0131
29887W        W72825  25.684  33.118  24.307  0.1090  0.1062 -0.2406
29888W        W72826  27.335  33.789  26.816  0.0756  0.0669 -0.0435
29889W        W72827  25.763  33.427  26.182  0.2543 -0.4677  0.0413
29890W        W72828  26.240  32.964  24.334 -0.0257  0.0664  0.1343
29891W        W72829  26.407  33.783  25.091  0.2863 -0.0864 -0.1823
29892W        W72830  28.099   0.480  28.703 -0.2998  0.0057  0.0713
29893W        W72831  27.495  33.551  24.995  0.0190  0.2388  0.3353
29894W        W72832  27.978   1.089  26.905  0.2686 -0.0746 -0.0620
29895W        W72833  26.138  33.961  25.525 -0.0697  0.0785  0.1736
29896W        W72834  28.751  33.414  24.552 -0.1759 -0.1734  0.1453
29897W        W72835  26.574  33.509  24.144 -0.0448 -0.2472  0.2174
29898W        W72836  31.276   0.453  25.550  0.0975 -0.1828 -0.0309
29899W        W72837  27.509  33.573  25.576  0.2340 -0.3036  0.5505
29900W        W72838  28.691  34.427  26.414 -0.0007  0.2189  0.0369
29901W        W72839  27.366  34.286  26.912  0.1495  0.1047  0.1489
29902W        W72840  24.798   0.284  26.495  0.0857 -0.1464 -0.2546
29903W        W72841  26.734  34.637  27.731 -0.1801 -0.0340 -0.0193
29904W        W72842  27.446  34.434  25.461  0.1879  0.2888 -0.1326
29905W        W72843  27.326  32.713  23.957  0.1005  0.0946  0.1468
29906W        W72844  27.665   1.030  27.308  0.0736 -0.1467 -0.0319
29907W        W72845  29.226  33.774  25.190  0.0514  0.2744  0.0020
29908W        W72846  26.505  34.419  26.457 -0.2841 -0.0178 -0.0946
29909W        W72847  28.055   1.516  26.028 -0.2592 -0.2232  0.0333
29910W        W72848  28.231  34.410  27.717  0.1201  0.1953 -0.1734
29911W        W72849  27.281  32.313  27.151 -0.0787  0.1136 -0.3037
29912W        W72850  26.424   0.519  27.660 -0.1107 -0.3285 -0.4801
29913W        W72851  29.280   0.526  26.992 -0.1304  0.0209  0.1031
29914W        W72852  26.885   0.853  27.347  0.2236 -0.0800  0.1299
29915W        W72853  25.719  34.176  27.643 -0.0901  0.0001 -0.0012
29916W        W72854  28.758  34.576  24.674 -0.0465  0.2256 -0.0143
29917W        W72855  28.749  34.391  25.349 -0.0366 -0.1794 -0.0090
29918W        W72856  27.479   0.762  25.821 -0.0297  0.0983 -0.2286
29919W        W72857  27.324  34.163  25.871 -0.2955  0.1015  0.1309
29920W        W72858  26.767  33.289  25.837 -0.2684 -0.0162 -0.2867
29921W        W72859  29.161   1.483  28.201 -0.2986  0.2190 -0.3683
29922W        W72860  25.976  33.350  22.949  0.0573 -0.1490  0.2120
29923W        W72861  28.881  33.710  27.388 -0.2428 -0.1519 -0.3180
29924W        W72862  26.960  33.910  24.957 -0.1320 -0.1343  0.1236
29925W        W72863  24.659  34.062  26.944  0.1018  0.1013  0.1645
29926W        W72864  26.460  34.164  24.284  0.1104 -0.0278 -0.0488
29927W        W72865  25.398   0.055  25.196 -0.0551 -0.1443 -0.4398
29928W        W72866  28.000  32.797  24.287  0.1984  0.1343 -0.0915
29929W        W72867  28.301   0.184  27.824 -0.0023  0.3542  0.0077
29930W        W72868  28.141  32.343  25.379  0.0099 -0.3065 -0.2193
29931W        W72869  26.662  33.952  25.625  0.0444 -0.1750 -0.2795
29932W        W72870  28.751   0.501  26.950  0.0446  0.2587  0.1113
29933W        W72871  27.757   1.029  25.454 -0.0579  0.1551  0.1031
29934W        W72872  28.888   0.157  28.026  0.1042 -0.1206  0.0670
29935W        W72873  25.430   0.233  27.194 -0.1465 -0.1184  0.0754
29936W        W72874  25.657  34.563  28.042 -0.1362  0.3622  0.0231
29937W        W72875  26.040  33.448  24.605  0.1199 -0.2344 -0.2061
29938W        W72876  27.236  33.212  25.854 -0.3950 -0.1015  0.1294
29939W        W72877  28.544  33.494  23.476 -0.1931  0.1026 -0.1424
29940W        W72878  29.356   0.597  24.905  0.1032  0.1857  0.0897
29941W        W72879  28.796   0.980  25.332 -0.0137  0.0112  0.1642
29942W        W72880  25.528  34.363  27.202 -0.2037  0.1554  0.0815
29943W        W72881  27.931  33.807  24.770  0.1315 -0.1856  0.1726
29944W        W72882  27.265   1.353  28.136  0.3430 -0.0110  0.1900
29945W        W72883  29.076  34.657  26.156  0.0688 -0.0596  0.1305
29946W        W72884  25.300  33.361  24.571 -0.0217 -0.1864  0.0882
29947W        W72885  26.206  34.586  24.798  0.1104 -0.1191 -0.0931
29948W        W72886  29.461  32.440  26.483  0.2326  0.2495  0.3332
29949W        W72887  26.789   0.503  24.533  0.1860 -0.0584 -0.1234
29950W        W72888  25.889  33.030  24.880 -0.2705 -0.0031 -0.2041
29951W        W72889  27.736   1.088  23.814  0.1269 -0.0656 -0.1011
29952W        W72890  26.753  33.725  26.643  0.1261 -0.0599 -0.3960
29953W        W72891  30.475  33.573  26.453 -0.1768 -0.4871  0.3831
29954W        W72892  25.834   0.313  25.148 -0.1053 -0.0397  0.1366
29955W        W72893  27.715   1.126  26.423  0.0797 -0.2538 -0.1394
29956W        W72894  26.415  33.200  26.711 -0.1577 -0.0110 -0.1028
29957W        W72895  26.600   0.182  25.289 -0.0534  0.0204 -0.2829
29958W        W72896  30.267   1.174  26.325  0.0888  0.0295 -0.0059
29959W        W72897  27.864  34.663  24.739 -0.1094  0.2832 -0.0562
29960W        W72898  24.661  32.858  23.686  0.2010  0.1458  0.0139
29961W        W72899  28.090  32.518  24.748  0.0326  0.1520  0.1624
29962W        W72900  26.523   0.682  25.646 -0.0024 -0.1375  0.1529
29963W        W72901  28.150   1.573  28.092 -0.3218  0.0106 -0.1633
29964W        W72902  25.214  33.014  24.127 -0.2116 -0.1375 -0.0112
29965W        W72903  29.508  34.530  24.206 -0.1566  0.2977 -0.1792
29966W        W72904  28.607   1.902  24.174 -0.1116 -0.1363 -0.0570
29967W        W72905  26.172  34.067  24.777  0.2068  0.1300 -0.0060
29968W        W72906  27.046  33.685  24.433  0.2248  0.1676  0.0201
29969W        W72907  25.949  33.077  26.836  0.0343  0.0256  0.0587
29970W        W72908  29.586   0.696  25.544  0.0701  0.1019  0.0559
29971W        W72909  29.129  34.492  25.633  0.0578  0.0029 -0.2918
29972W        W72910  27.923  34.015  27.678  0.1965  0.2897  0.2885
29973W        W72911  25.614  34.038  25.773  0.2310 -0.3214  0.2011
29974W        W72912  27.959  33.398  24.553  0.1487  0.0848  0.2657
29975W        W72913  28.737  34.057  24.951  0.0365 -0.0896  0.2092
29976W        W72914  28.289  33.420  25.027  0.1883  0.3840  0.1498
29977W        W72915  27.067   0.453  28.100  0.0075  0.1464  0.2383
29978W        W72916  24.394  33.255  25.515 -0.0017  0.3087  0.2703
29979W        W72917  26.938  31.718  27.604  0.0912 -0.0049 -0.1687
29980W        W72918  26.367  34.574  26.924  0.2579  0.0935  0.0909
29981W        W72919  25.909  34.560  25.689 -0.2874  0.0084  0.0869
29982W        W72920  25.880  33.519  25.629 -0.0084  0.1778  0.0065
29983W        W72921  26.790  33.443  24.927  0.2914  0.0844 -0.2300
29984W        W72922  23.753  33.311  25.528  0.0932 -0.0507  0.0606
29985W        W72923  26.736  33.117  24.437 -0.1271 -0.0040 -0.5590
29986W        W72924  27.545  33.526  27.734 -0.0320  0.2164  0.0772
29987W        W72925  26.809  33.507  27.566 -0.1412 -0.1260  0.0523
29988W        W72926  25.932  31.331  23.647 -0.1174 -0.0949 -0.1358
29989W        W72927  27.638   0.140  26.081 -0.1244 -0.3025 -0.0412
29990W        W72928  26.377  32.970  27.902  0.3216  0.2486  0.0350
29991W        W72929  29.145  34.402  26.567 -0.4037 -0.1585  0.1820
29992W        W72930  27.431  33.989  24.688 -0.0998  0.0956  0.1746
29993W        W72931  27.030  33.360  26.873 -0.2255  0.0929  0.2870
29994W        W72932  25.622  32.604  24.082  0.2408 -0.2666  0.1116
29995W        W72933  28.142   0.365  24.812  0.2180  0.1124  0.0220
29996W        W72934  27.230  33.983  26.313  0.1968  0.0911  0.1046
29997W        W72935  27.320   0.683  25.369  0.3168  0.2597 -0.2146
29998W        W72936  27.616   0.440  27.142 -0.1544 -0.0422 -0.2379
29999W        W72937  25.423  34.468  25.614 -0.0883 -0.2104  0.3264
30000W        W72938  29.279   1.879  24.864  0.1496 -0.2118 -0.1833
30001W        W72939  26.943  33.967  27.197  0.1224 -0.0655  0.0260
30002W        W72940  27.186   0.340  26.201  0.1586 -0.1104 -0.1700
30003W        W72941  27.037   1.053  24.925 -0.0082  0.2994  0.2774
30004W        W72942  28.242  34.336  25.378 -0.0303  0.0347  0.1822
30005W        W72943  28.391  33.161  24.361 -0.0354  0.2089 -0.1085
30006W        W72944  28.335  34.312  24.755  0.1257 -0.1410  0.1690
30007W        W72945  25.833   0.489  29.934 -0.3785  0.1017  0.3330
30008W        W72946  30.660  33.014  26.789  0.0123  0.1563  0.1483
30009W        W72947  28.631   1.999  27.844  0.1597  0.5337  0.1526
30010W        W72948  26.070  34.337  29.782  0.0143 -0.1508  0.1004
30011W        W72949  26.717  32.985  29.663  0.2154  0.3874  0.0647
30012W        W72950  27.528   0.300  28.143  0.1191 -0.1361  0.2240
30013W        W72951  26.125   0.495  30.321 -0.1828  0.0030  0.1644
30014W        W72952  27.331  32.853  26.993  0.3324  0.0817 -0.3460
30015W        W72953  24.829  33.240  29.762  0.2912 -0.0166 -0.1464
30016W        W72954  28.803  33.319  30.424  0.4084 -0.1378  0.1414
30017W        W72955  25.600   0.490  28.155  0.0004 -0.2250 -0.1252
30018W        W72956  28.107  34.448  29.990  0.0845 -0.0889 -0.2884
30019W        W72957  27.230   1.730  28.845  0.0067 -0.4681  0.0377
30020W        W72958  27.448  34.116  29.019  0.0403  0.3357  0.3494
30021W        W72959  26.718  34.526  30.904 -0.0750  0.2775 -0.2258
30022W        W72960  25.820  34.227  28.329  0.0606  0.5354 -0.0204
30023W        W72961  26.539   0.091  29.622 -0.2782 -0.1339 -0.1372
30024W        W72962  26.562  34.406  30.044 -0.1288 -0.1619  0.3513
30025W        W72963  28.966  32.827  29.170  0.1948  0.0518 -0.1808
30026W        W72964  27.418  33.886  28.169  0.0939 -0.2948  0.0011
30027W        W72965  27.957  33.369  31.078 -0.1626  0.0317  0.2100
30028W        W72966  28.515  34.634  28.292 -0.1199  0.1396 -0.4104
30029W        W72967  27.763   0.769  28.829 -0.0158 -0.1204  0.1382
30030W        W72968  29.199  31.715  31.408 -0.0140 -0.1626  0.1478
30031W        W72969  27.327  34.696  27.248 -0.1833 -0.0807  0.1920
30032W        W72970  27.511  32.744  28.060 -0.0020 -0.0994 -0.2117
30033W        W72971  28.250  33.922  28.047 -0.1605 -0.2172  0.0123
30034W        W72972  25.903  33.408  27.673 -0.0060  0.0616  0.0862
30035W        W72973  27.342  33.612  29.232  0.2190 -0.0510  0.0445
30036W        W72974  27.385   0.622  28.516  0.0442 -0.1744 -0.1121
30037W        W72975  27.537   0.248  31.067 -0.1279 -0.0491  0.3884
30038W        W72976  27.284  34.612  28.942  0.1392  0.2247 -0.0909
30039W        W72977  26.644   2.023  28.318  0.1090  0.0067  0.4335
30040W        W72978  26.933   1.622  31.491 -0.0456 -0.0207  0.1961
30041W        W72979  26.440  34.298  31.263 -0.0604 -0.1485  0.0048
30042W        W72980  25.752  33.112  25.353  0.0744  0.0478 -0.4632
30043W        W72981  27.586  33.306  29.727  0.3124  0.1935 -0.0064
30044W        W72982  27.032  32.532  28.206  0.0179 -0.2956 -0.1610
30045W        W72983  27.916  32.940  29.509  0.1442 -0.1375  0.0697
30046W        W72984  28.694  34.672  26.853  0.0287 -0.0095  0.1216
30047W        W72985  26.934  33.500  29.597  0.3447 -0.1460  0.0398
30048W        W72986  25.772  34.004   0.068 -0.0088  0.2742  0.0354
30049W        W72987  28.716   0.125  29.084 -0.5290 -0.2350  0.1298
30050W        W72988  27.289  34.161  30.108 -0.1446 -0.0092 -0.1382
30051W        W72989  28.651  33.175  28.743 -0.0929  0.1835  0.0046
30052W        W72990  28.549  32.818  27.392 -0.0417 -0.1170  0.0642
30053W        W72991  26.310   0.666  28.760  0.0894  0.0703  0.1555
30054W        W72992  24.638  34.051  28.834 -0.0749 -0.1429  0.0608
30055W        W72993  27.987  32.950  31.460  0.0660  0.1198  0.0586
30056W        W72994  27.100  33.233  30.495 -0.1410 -0.2310 -0.1858
30057W        W72995  28.826  34.184  31.604 -0.2510 -0.2522  0.0286
30058W        W72996  27.788  33.148  27.899  0.2439 -0.0124 -0.2327
30059W        W72997  26.727   0.421  28.940 -0.0787  0.1886 -0.2107
30060W        W72998  27.457  34.442  28.342  0.1178 -0.1154 -0.1732
30061W        W72999  29.807  33.522  31.027 -0.0845 -0.0199 -0.0828
30062W        W73000  26.713  33.422  30.069 -0.1054 -0.0837 -0.0044
30063W        W73001  27.176  34.209  28.616  0.0349 -0.2583  0.2384
30064W        W73002  26.623  33.897  29.590  0.0062 -0.3785 -0.0045
30065W        W73003  28.683  32.859  30.726 -0.0127 -0.3048 -0.1536
30066W        W73004  28.711  34.082  29.781  0.4489  0.2764 -0.1794
30067W        W73005  26.963  33.487  28.592 -0.0863  0.0165  0.1578
30068W        W73006  26.010   0.122  29.461  0.3035  0.0649  0.2044
30069W        W73007  28.410  33.611  29.563 -0.1780 -0.1294 -0.1623
30070W        W73008  26.248   0.576  31.026 -0.0027 -0.0667  0.0914
30071W        W73009  25.283  34.391  30.940 -0.1124 -0.3208  0.0533
30072W        W73010  26.585   0.287  28.061  0.2063 -0.0061 -0.1030
30073W        W73011  29.046  34.144  27.609 -0.0310  0.0491  0.0637
30074W        W73012  29.712  31.843  28.114 -0.0988 -0.1091  0.0940
30075W        W73013  28.649  33.694  27.823  0.2267 -0.3718 -0.4511
30076W        W73014  27.238  32.691  27.614 -0.1321  0.1395  0.0478
30077W        W73015  27.901   0.478  27.834  0.0520  0.0711  0.1964
30078W        W73016  28.553  33.348  30.862 -0.3944 -0.1214  0.3023
30079W        W73017  27.233  33.572  27.364 -0.1997 -0.0410  0.2868
30080W        W73018  28.480  33.746  28.965  0.2730 -0.2593  0.1934
30081W        W73019  28.185  33.245  29.240  0.0785 -0.3906 -0.1825
30082W        W73020  28.533  33.699  30.052  0.1103  0.0341 -0.3775
30083W        W73021  28.266  32.567  30.048  0.1950 -0.1070  0.1856
30084W        W73022  29.135  33.767  31.641  0.2567 -0.1662 -0.0203
30085W        W73023  28.374   0.593  28.257  0.3390 -0.1853 -0.0324
30086W        W73024  29.059  34.499  29.817 -0.0396 -0.2215  0.2654
30087W        W73025  27.199  34.458  26.344  0.1032 -0.3000  0.0347
30088W        W73026  27.615  34.467  29.808 -0.0154 -0.1790 -0.0474
30089W        W73027  27.238  34.446  30.842 -0.0631 -0.0250  0.1173
30090W        W73028  28.081  33.529  27.806 -0.0547 -0.2140  0.3260
30091W        W73029  27.222  32.182  28.486  0.0383  0.3425 -0.1046
30092W        W73030  29.319  32.487  28.627 -0.0373 -0.1314 -0.0377
30093W        W73031  27.135   0.152  28.521 -0.3278 -0.0167 -0.0354
30094W        W73032  26.304   1.340  28.071 -0.2292  0.2427 -0.0521
30095W        W73033  28.888  32.925  27.759  0.1608  0.2762 -0.1497
30096W        W73034  26.319  33.487  28.852  0.4067  0.0200 -0.2248
30097W        W73035  27.368  33.749  28.643 -0.0486 -0.1850 -0.0406
30098W        W73036  27.405  33.583  30.890 -0.3045 -0.1821 -0.1197
30099W        W73037  28.067  33.419  26.913  0.0275 -0.3194  0.4031
30100W        W73038  26.497   1.436  31.264 -0.1897  0.2541 -0.0010
30101W        W73039  27.190  33.940  27.732  0.2752  0.2627  0.4783
30102W        W73040  29.633  33.036  29.480 -0.3907  0.0489 -0.1052
30103W        W73041  27.818   0.356  30.592  0.4049 -0.1929  0.0535
30104W        W73042  27.536  34.647  26.613 -0.0914  0.0658 -0.2054
30105W        W73043  27.139  34.521  31.701 -0.0665  0.1026 -0.1862
30106W        W73044  27.308  33.632  29.970 -0.1087  0.0007 -0.0835
30107W        W73045  26.463  34.066  29.064  0.0690 -0.0215  0.0603
30108W        W73046  27.519   0.285  29.989 -0.1981  0.2682  0.2800
30109W        W73047  28.597  34.607  30.011 -0.3095  0.0500  0.3351
30110W        W73048  27.820  33.587  28.256 -0.0553  0.1583 -0.1498
30111W        W73049  28.240  34.010  29.787  0.1080 -0.2891 -0.3194
30112W        W73050  28.067   0.039  29.232  0.1274 -0.1902 -0.2985
30113W        W73051  30.112  33.585  27.316  0.1109 -0.0814  0.0431
30114W        W73052  27.732  34.050  28.528 -0.1312  0.1472 -0.1343
30115W        W73053  29.078  34.152  30.769  0.2367  0.3153  0.2804
30116W        W73054  27.603   1.269  28.992  0.2423 -0.0077  0.0750
30117W        W73055  28.583  32.914  30.159  0.1109  0.3463  0.2437
30118W        W73056  25.966  33.038  29.546  0.2417 -0.1823 -0.0992
30119W        W73057  25.189  33.865  30.188  0.0599 -0.1535  0.0781
30120W        W73058  26.764   0.318  31.148  0.2570 -0.0826  0.0496
30121W        W73059  27.099  33.136  29.948  0.0663 -0.0147 -0.2199
30122W        W73060  27.104  32.917  28.545  0.0703 -0.1497 -0.2703
30123W        W73061  27.763   1.609  28.590  0.1401 -0.2293  0.0458
30124W        W73062  28.018  33.169  28.318 -0.0728  0.0354  0.2560
30125W        W73063  26.402   0.578  29.344  0.2401 -0.0228  0.0279
30126W        W73064  27.988   0.277  30.143  0.0301  0.0454 -0.0106
30127W        W73065  26.751  33.563  30.610 -0.1452  0.0084  0.0351
30128W        W73066  26.522  31.566  27.971 -0.0153  0.1182  0.0740
30129W        W73067  27.887  34.202  29.447  0.1543 -0.1472  0.0864
30130W        W73068  28.674   0.014  30.766  0.3783 -0.1813  0.0159
30131W        W73069  27.732  33.632  30.383  0.0271 -0.1270 -0.1852
30132W        W73070  26.239   0.070  31.198  0.0212 -0.2066 -0.0864
30133W        W73071  29.731  34.324  27.724  0.1170  0.0182 -0.1750
30134W        W73072  30.044  33.361  29.615 -0.0293 -0.0815 -0.0617
30135W        W73073  29.174  34.371  28.934  0.0153 -0.2303  0.2340
30136W        W73074  28.173   0.703  27.225  0.1599  0.2470 -0.1386
30137W        W73075  25.516  32.731  29.613 -0.2216  0.2094 -0.0025
30138W        W73076  29.040  34.375  30.293 -0.1193  0.1143  0.0083
30139W        W73077  27.682  32.664  27.318  0.1752 -0.1036  0.3220
30140W        W73078  28.337  33.887   0.383  0.2918  0.4824 -0.1844
30141W        W73079  27.403   0.431  29.540  0.1110  0.0154 -0.3248
30142W        W73080  26.263  33.895  29.973  0.0351 -0.1086  0.0143
30143W        W73081  25.659  33.801  27.346 -0.0236  0.0971  0.1892
30144W        W73082  26.786   1.507  28.107 -0.1122 -0.1592  0.2482
30145W        W73083  26.770  33.097  28.118 -0.0407  0.1148 -0.0756
30146W        W73084  29.470  32.996  30.338  0.1638 -0.4112 -0.2076
30147W        W73085  27.542  32.800  29.062  0.1061 -0.1302  0.3251
30148W        W73086  27.148  33.130  29.411 -0.2684 -0.0306  0.1442
30149W        W73087  28.208   0.941  29.669 -0.0887 -0.0037  0.3050
30150W        W73088  26.725   0.562  28.489  0.0033 -0.1304 -0.0249
30151W        W73089  29.657  34.120  29.639  0.0011 -0.0278 -0.0213
30152W        W73090  26.376   0.150  29.139 -0.1883  0.3926  0.0911
30153W        W73091  25.702  33.408  30.589 -0.0162 -0.0943  0.1391
30154W        W73092  28.302  33.486  26.460  0.4424  0.2374  0.1356
30155W        W73093  26.326  34.502  28.184  0.0267  0.3105 -0.1294
30156W        W73094  29.384  33.105  27.780  0.1357  0.0349  0.2857
30157W        W73095  30.002  34.560  28.787  0.3419 -0.1195 -0.2837
30158W        W73096  28.644  33.956  28.327  0.2501 -0.1785  0.2134
30159W        W73097  26.679   0.946  28.952 -0.0557 -0.0809  0.0096
30160W        W73098  27.850  34.440  28.007  0.0823  0.1363 -0.0208
30161W        W73099  26.755  34.547   0.080 -0.1037  0.1792 -0.1258
30162W        W73100  28.252  33.360  30.390 -0.0883 -0.2093 -0.0844
30163W        W73101  27.362  33.355  28.264 -0.1616  0.3188  0.0991
30164W        W73102  25.793   0.693  28.661  0.2297  0.1493 -0.2691
30165W        W73103  28.368  33.091  29.634 -0.1618  0.2257  0.1134
30166W        W73104  27.737   0.333  29.104  0.2503 -0.1565  0.2293
30167W        W73105  25.306  34.207  28.116  0.1082  0.2415  0.0045
30168W        W73106  28.164  33.368  28.779 -0.0991  0.2819  0.0677
30169W        W73107  27.247  33.961  29.578  0.1134  0.0266  0.0127
30170W        W73108  29.627  32.473  30.341  0.1832 -0.1155 -0.0915
30171W        W73109  25.546   0.016  29.192  0.0385 -0.1449  0.2330
30172W        W73110  27.691  32.764  28.599  0.0564 -0.1552  0.4073
30173W        W73111  25.247  34.029  31.355  0.3180  0.0727  0.3165
30174W        W73112  27.690  34.467  27.528  0.0225 -0.1713 -0.1734
30175W        W73113  28.512  34.153  30.309 -0.0510  0.0012 -0.2057
30176W        W73114  27.505   1.103  28.529  0.1169 -0.2652 -0.0419
30177W        W73115  27.651   0.165  28.624 -0.3039 -0.1821  0.4153
30178W        W73116  28.070  32.648  28.213 -0.0739 -0.0327 -0.0557
30179W        W73117  26.359   0.493  29.858  0.1193 -0.1362 -0.0091
30180W        W73118  27.385   1.216  30.944  0.0637 -0.1230  0.1807
30181W        W73119  27.840   0.164  29.643 -0.1113  0.0096 -0.0904
30182W        W73120  28.821  32.742  28.704 -0.0772 -0.0962  0.0054
30183W        W73121  29.933   1.550  28.760  0.3122 -0.1053  0.0745
30184W        W73122  27.119   0.065  29.817 -0.0389  0.2578  0.0239
30185W        W73123  28.002   0.171  28.289 -0.0213  0.1915  0.0649
30186W        W73124  26.902  34.253  29.761  0.2183 -0.2379 -0.0211
30187W        W73125  28.096  34.203  31.197 -0.0758 -0.1986  0.1395
30188W        W73126  29.409  33.490  30.486  0.1589 -0.0751 -0.2192
30189W        W73127  28.119  33.497  31.575  0.0589  0.1915  0.1396
30190W        W73128  27.987   1.964  27.802  0.0996  0.2000  0.0764
30191W        W73129  28.673  34.378  28.818 -0.1047  0.1382 -0.0694
30192W        W73130  29.456  32.871  28.317  0.0219 -0.0013 -0.1985
30193W        W73131  29.311  32.601  27.762  0.4028 -0.0007 -0.0500
30194W        W73132  25.117   0.485  30.967  0.2701  0.1632  0.1695
30195W        W73133  25.101  34.099  29.567  0.2552  0.1528 -0.2270
30196W        W73134  25.960  33.055  30.970 -0.2651  0.2099  0.0426
30197W        W73135  27.167  33.742  30.458 -0.0799 -0.2512  0.1892
30198W        W73136  24.978  33.654  28.780  0.1727  0.0126 -0.0684
30199W        W73137  27.184  34.621  27.992  0.2357 -0.1290  0.0970
30200W        W73138  26.028  33.809  28.463 -0.0686 -0.0262 -0.0188
30201W        W73139  26.454  33.176  29.231 -0.0953  0.1177 -0.1619
30202W        W73140  28.236  34.245  29.000  0.2512  0.0888  0.1313
30203W        W73141  27.733  34.492  30.354 -0.2972  0.0430  0.1333
30204W        W73142  26.706   0.395   0.516  0.3638 -0.1982 -0.1187
30205W        W73143  24.824  33.928  27.838  0.0375 -0.1689  0.2642
30206W        W73144  27.801  34.462  28.881  0.1405 -0.0183 -0.0361
30207W        W73145  25.704  34.504  30.659  0.2019  0.1525  0.2398
30208W        W73146  27.932  33.685  29.471 -0.1912 -0.2747 -0.2810
30209W        W73147  28.273   0.470  29.711 -0.2240  0.1478 -0.3388
30210W        W73148  26.023  33.310  28.243 -0.1375  0.2889  0.2425
30211W        W73149  27.781  33.062  26.633 -0.0170  0.0215 -0.0787
30212W        W73150  28.432  33.515  27.376 -0.0773  0.0172  0.0975
30213W        W73151  25.156  32.826  29.260  0.2184  0.0514 -0.2079
30214W        W73152  26.473   1.049  28.485 -0.0449  0.2277  0.0383
30215W        W73153  27.728  33.923  29.895 -0.2657  0.0751 -0.0288
30216W        W73154  26.860  34.501  29.229  0.1448 -0.1914  0.1671
30217W        W73155  28.719   1.698  26.902 -0.1152  0.1390 -0.5021
30218W        W73156  25.867  32.772  28.142 -0.0989  0.0167 -0.3596
30219W        W73157  25.917  34.673  28.870  0.3156 -0.1634 -0.3469
30220W        W73158  26.069   0.218  27.915  0.0796 -0.1716 -0.3181
30221W        W73159  27.836  33.846  30.808  0.1584 -0.1253 -0.0997
30222W        W73160  27.580  34.572  29.317 -0.0546 -0.3319  0.0734
30223W        W73161  27.882  33.697  27.318  0.1476  0.1359 -0.1285
30224W        W73162  28.285  34.335   0.784 -0.1913  0.0915 -0.2673
30225W        W73163  27.542   0.735   1.306  0.1184  0.3157 -0.1411
30226W        W73164  24.996   0.097  31.269  0.0260 -0.0364  0.0689
30227W        W73165  28.477  33.507   0.031 -0.0848 -0.1909 -0.0743
30228W        W73166  25.251  34.538  31.684 -0.1375  0.0701  0.0661
30229W        W73167  30.418  33.573   0.837 -0.0241  0.1871  0.1029
30230W        W73168  27.286  33.063   0.508 -0.1765 -0.0483 -0.3042
30231W        W73169  28.766  34.382  31.112  0.2667  0.0869  0.0817
30232W        W73170  24.768  33.648   1.526 -0.0145  0.0502  0.1146
30233W        W73171  25.187  33.259   0.036  0.0228 -0.3771 -0.0790
30234W        W73172  27.911  34.254  31.682 -0.3695 -0.0609 -0.2844
30235W        W73173  28.660  32.975   0.066 -0.1020 -0.3552  0.0909
30236W        W73174  25.916   0.683  31.467 -0.0325  0.4206  0.1265
30237W        W73175  27.399  34.047   0.775  0.1653  0.0960 -0.0950
30238W        W73176  27.479  34.478   0.035 -0.1378 -0.1398  0.2114
30239W        W73177  27.519   0.672   0.820  0.0486  0.0654  0.1721
30240W        W73178  27.039  33.614  31.782  0.0197 -0.1051 -0.2478
30241W        W73179  26.326  33.579   0.936  0.2419  0.0738  0.5288
30242W        W73180  28.434  33.914  31.666 -0.2059 -0.2224  0.1610
30243W        W73181  24.799  33.468   0.278 -0.1802 -0.2559 -0.1943
30244W        W73182  29.708  33.969  31.440 -0.0120  0.0977  0.5371
30245W        W73183  29.078  33.207   0.539 -0.1980 -0.1213  0.0497
30246W        W73184  28.572  33.783  30.604  0.3444  0.0621 -0.0561
30247W        W73185  26.444  32.992  31.009 -0.0551 -0.1128 -0.3192
30248W        W73186  25.365  34.121   0.418 -0.3329 -0.0171  0.0944
30249W        W73187  26.659   0.618   0.001  0.1223 -0.0792 -0.5456
30250W        W73188  27.867  33.172  30.628  0.1452  0.1418  0.4457
30251W        W73189  28.988  32.796  31.575  0.2240 -0.1391  0.0437
30252W        W73190  26.947  34.077  31.879  0.0791 -0.1409 -0.3568
30253W        W73191  26.778  33.901  30.137  0.1421 -0.1143  0.2196
30254W        W73192  27.241   0.662   0.294  0.3266 -0.1433 -0.0429
30255W        W73193  26.977  33.769   0.382  0.1984  0.0605  0.1202
30256W        W73194  23.849  33.359  31.203  0.0257  0.0919 -0.4005
30257W        W73195  29.873  34.404  30.945 -0.2733  0.0343 -0.0369
30258W        W73196  28.596   2.568  20.052 -0.2504  0.3640 -0.0135
30259W        W73197  30.268   0.796  17.553 -0.0747 -0.2557 -0.0422
30260W        W73198  33.578   1.015  17.605  0.3142 -0.1204 -0.2193
30261W        W73199  32.569   0.733  17.831  0.0920 -0.0329 -0.1221
30262W        W73200  29.556   0.311  18.183  0.0653 -0.0431 -0.0330
30263W        W73201  32.013   2.990  17.297  0.1391 -0.2276 -0.1934
30264W        W73202  30.137   0.409  20.440 -0.0706  0.1060  0.0158
30265W        W73203  31.527   3.254  17.966 -0.1793  0.0989 -0.3171
30266W        W73204  32.920   2.434  18.265 -0.2647 -0.2700  0.0465
30267W        W73205  32.572   3.926  16.555  0.1943 -0.2702 -0.0404
30268W        W73206  31.031   0.542  20.343 -0.0597 -0.0460  0.0385
30269W        W73207  30.251   4.733  19.896 -0.0655 -0.0928  0.0403
30270W        W73208  30.296   0.291  17.808  0.0598  0.1903  0.0315
30271W        W73209  29.435  34.663  17.802 -0.1346  0.2264 -0.3259
30272W        W73210  31.128   2.304  18.061  0.2182 -0.4211 -0.1328
30273W        W73211  28.576   2.100  16.857 -0.0033 -0.0868 -0.0058
30274W        W73212  29.840   1.033  19.550  0.2254 -0.0624 -0.1407
30275W        W73213  30.585   1.165  17.821 -0.0155 -0.2714  0.0543
30276W        W73214  31.602   4.014  17.816 -0.0176 -0.1176  0.0574
30277W        W73215  30.489   2.501  18.722  0.0075  0.1810  0.0954
30278W        W73216  30.779   0.941  20.480  0.0051 -0.0508  0.2027
30279W        W73217  30.123   3.332  17.993  0.0169  0.1354 -0.2431
30280W        W73218  28.446   0.424  17.106 -0.0199 -0.0154  0.0227
30281W        W73219  29.796   0.799  18.271  0.0494  0.1869 -0.1603
30282W        W73220  30.530   2.354  19.213  0.0344 -0.1562  0.1053
30283W        W73221  32.163   0.011  18.784 -0.1024 -0.1604 -0.1589
30284W        W73222  32.026   0.235  18.327  0.1084 -0.1027  0.0283
30285W        W73223  30.206   2.145  17.749  0.2822 -0.2055  0.0219
30286W        W73224  31.198   3.488  17.251 -0.2379 -0.3007  0.1305
30287W        W73225  32.557   1.719  19.869 -0.2116  0.3338  0.0202
30288W        W73226  30.006   1.728  17.549 -0.0975 -0.2098  0.1277
30289W        W73227  29.257   3.042  18.899 -0.0809  0.2399  0.2925
30290W        W73228  32.103   2.823  18.842 -0.0188  0.1072  0.1878
30291W        W73229  33.478   3.920  17.052 -0.1858 -0.0973  0.0656
30292W        W73230  32.470   2.403  18.261 -0.1175  0.1346 -0.2498
30293W        W73231  31.060   4.666  19.287 -0.3241  0.0563 -0.2331
30294W        W73232  29.691   2.299  16.383 -0.0953 -0.1412 -0.4059
30295W        W73233  30.761   2.853  20.617  0.2007 -0.2714 -0.3150
30296W        W73234  31.247   3.931  19.083  0.1068  0.0682  0.1114
30297W        W73235  31.276   2.288  19.937 -0.0382 -0.1102 -0.1115
30298W        W73236  30.954   2.784  19.297  0.0249 -0.0117  0.0822
30299W        W73237  30.259   3.593  17.131  0.0435  0.0089  0.1985
30300W        W73238  31.686   3.010  18.918 -0.2946  0.0775  0.0912
30301W        W73239  32.395   3.118  20.144 -0.4496 -0.3115 -0.1149
30302W        W73240  29.962   2.883  18.196  0.1323  0.0866  0.1060
30303W        W73241  32.103   1.931  20.107  0.1006  0.0576 -0.0287
30304W        W73242  30.589   3.568  18.163 -0.1151  0.0403 -0.0572
30305W        W73243  33.185   1.176  16.445  0.0904  0.1449  0.0826
30306W        W73244  30.363   1.665  16.055 -0.0953 -0.2616  0.1053
30307W        W73245  31.506   0.495  16.653 -0.1135 -0.1124 -0.1887
30308W        W73246  31.822   1.759  18.626  0.1628  0.0471  0.1045
30309W        W73247  31.809   2.987  18.427  0.2390  0.4799  0.0658
30310W        W73248  30.696   2.999  19.706  0.0009  0.0727 -0.2130
30311W        W73249  33.386   1.901  18.750 -0.1763  0.3065  0.1060
30312W        W73250  30.574   0.396  18.334 -0.0380  0.3335  0.2854
30313W        W73251  31.397   0.880  19.524 -0.1910  0.0367  0.0252
30314W        W73252  29.127   3.458  19.717 -0.1888  0.1542 -0.2176
30315W        W73253  29.468   1.199  17.380  0.0629  0.0476 -0.2197
30316W        W73254  33.022   3.141  16.695  0.1062 -0.0587  0.0491
30317W        W73255  33.203   2.572  17.348  0.0097  0.0074  0.0818
30318W        W73256  30.903   2.954  16.436  0.0537  0.0958 -0.1278
30319W        W73257  28.414   0.768  17.477 -0.0110  0.1821 -0.0814
30320W        W73258  29.407   2.358  18.306  0.1776 -0.1614  0.3840
30321W        W73259  28.908   1.775  20.617  0.1512  0.1138  0.0243
30322W        W73260  30.295  34.518  17.714  0.1593  0.2199 -0.3327
30323W        W73261  32.958   3.659  19.054 -0.1195  0.0017 -0.0393
30324W        W73262  29.926   2.964  19.699  0.0313 -0.0330  0.0739
30325W        W73263  31.673   0.380  18.678  0.1436 -0.1819 -0.2510
30326W        W73264  31.075   0.583  17.354 -0.0621 -0.0928 -0.1504
30327W        W73265  33.208   4.058  18.854  0.0458  0.3764 -0.0306
30328W        W73266  32.428   1.993  16.286  0.1668 -0.2308 -0.0958
30329W        W73267  31.505   0.194  18.197 -0.2991  0.3392  0.0344
30330W        W73268  32.497  34.579  18.349 -0.0318  0.2069  0.1188
30331W        W73269  31.078   2.129  18.546  0.1134 -0.4255 -0.0692
30332W        W73270  30.005   1.931  17.107 -0.1439  0.3131 -0.1020
30333W        W73271  32.130   4.184  17.816  0.2779  0.0725 -0.1080
30334W        W73272  32.101   1.908  15.906  0.0157  0.0257  0.2050
30335W        W73273  28.926   3.469  18.664 -0.1963 -0.1511 -0.3460
30336W        W73274  29.874   1.655  20.181 -0.1644 -0.1543  0.2564
30337W        W73275  30.275   3.001  20.087 -0.1507 -0.3382 -0.1912
30338W        W73276  30.665   4.081  17.510 -0.1125  0.0029 -0.1450
30339W        W73277  29.390   2.204  17.344  0.1675 -0.1900 -0.0288
30340W        W73278  29.849   1.461  16.972 -0.1158  0.0588  0.0254
30341W        W73279  29.901   1.077  17.861  0.1256 -0.5361  0.0057
30342W        W73280  30.881   1.599  19.654 -0.0207  0.1263 -0.2101
30343W        W73281  31.395   0.136  17.652 -0.0069 -0.2563 -0.1105
30344W        W73282  28.843   0.048  19.358 -0.4661  0.1912 -0.2069
30345W        W73283  32.847   0.946  19.087  0.1329  0.1728  0.0026
30346W        W73284  29.263   2.335  16.664 -0.3277  0.0771 -0.2224
30347W        W73285  32.609   4.417  16.881  0.0617  0.2284  0.3031
30348W        W73286  32.389   1.542  16.066 -0.5290 -0.0968 -0.1284
30349W        W73287  31.537   3.005  16.283 -0.0626  0.0816 -0.1653
30350W        W73288  29.913   2.280  18.190  0.1954 -0.0698 -0.0067
30351W        W73289  29.044   0.692  17.356 -0.0493  0.0521  0.1731
30352W        W73290  29.346   0.454  21.205 -0.2853  0.0410 -0.0383
30353W        W73291  28.618   1.237  19.002 -0.2505 -0.1893  0.1316
30354W        W73292  31.238   1.756  19.979  0.3002  0.2179  0.4047
30355W        W73293  30.568   0.188  16.767 -0.0299  0.1466  0.4416
30356W        W73294  31.858   1.272  18.359 -0.1519 -0.1802  0.1284
30357W        W73295  29.925   3.317  18.487  0.0880 -0.4136 -0.2800
30358W        W73296  27.831   1.295  17.135 -0.0487 -0.2061 -0.0108
30359W        W73297  32.477   1.403  21.313  0.4291 -0.0299  0.1147
30360W        W73298  31.976   4.180  16.381  0.0682  0.2644  0.0261
30361W        W73299  32.450   4.066  20.435 -0.0984 -0.2252  0.0548
30362W        W73300  32.245   3.498  17.312 -0.0676 -0.3021  0.0811
30363W        W73301  30.037   2.498  19.486 -0.1504 -0.0148 -0.1735
30364W        W73302  29.235   0.480  17.823  0.0913  0.3254  0.0321
30365W        W73303  30.339   3.761  17.684 -0.3585 -0.3080  0.0723
30366W        W73304  30.441   3.195  18.525 -0.4450 -0.1500 -0.1312
30367W        W73305  29.637   1.066  18.712 -0.0696 -0.0548 -0.0695
30368W        W73306  33.345   3.213  18.635 -0.0834 -0.3866 -0.1580
30369W        W73307  30.904   3.112  18.188 -0.0511  0.2746  0.0522
30370W        W73308  29.257   2.222  19.650 -0.0203  0.2128 -0.0525
30371W        W73309  32.585   1.254  19.684  0.1627  0.0795 -0.0406
30372W        W73310  31.982   2.384  18.624  0.1575  0.0447 -0.0747
30373W        W73311  32.827   1.461  18.245 -0.2873  0.0311  0.1851
30374W        W73312  30.269  34.471  16.338  0.1960 -0.2469  0.0996
30375W        W73313  30.776   4.315  17.065  0.1952  0.1996  0.3161
30376W        W73314  29.880   3.529  17.483  0.0699  0.0749 -0.1573
30377W        W73315  29.688   2.081  18.660  0.0846  0.0947 -0.0888
30378W        W73316  32.139   3.215  16.852  0.1870 -0.0688  0.0674
30379W        W73317  32.266   1.025  18.106 -0.0091  0.1380  0.2481
30380W        W73318  29.619   1.936  19.852  0.5661  0.1604  0.0910
30381W        W73319  31.423   0.550  19.069 -0.1215 -0.1225 -0.0766
30382W        W73320  29.573   1.959  16.778  0.1945 -0.3103  0.0555
30383W        W73321  29.341   4.401  18.626 -0.2121 -0.0380  0.3287
30384W        W73322  31.046   0.208  16.727  0.2498 -0.2015 -0.0783
30385W        W73323  32.439   0.552  16.184 -0.1274 -0.0547  0.0239
30386W        W73324  30.529   4.068  17.970  0.0445  0.2251 -0.3740
30387W        W73325  32.944   2.720  16.425 -0.3691  0.1652  0.0278
30388W        W73326  32.014   2.258  16.244  0.1453 -0.0450 -0.1148
30389W        W73327  31.447   0.967  17.401  0.2030 -0.2939 -0.0025
30390W        W73328  30.649   2.933  18.944 -0.0232  0.0859  0.0000
30391W        W73329  31.751   3.483  17.013  0.1333  0.3126 -0.3625
30392W        W73330  29.791   1.913  19.155  0.0911  0.2460 -0.1443
30393W        W73331  30.516   2.016  16.338 -0.1555 -0.1165  0.0364
30394W        W73332  32.788   3.260  18.546  0.0009 -0.2897  0.3255
30395W        W73333  29.698   3.422  18.972 -0.0908  0.1290 -0.2595
30396W        W73334  31.246   2.017  20.799  0.1536  0.1627  0.0081
30397W        W73335  32.623   3.414  16.914 -0.2656 -0.3647  0.0565
30398W        W73336  29.977   1.597  19.561  0.1243 -0.1344 -0.3086
30399W        W73337  31.478   1.969  17.914  0.2181 -0.1317 -0.1432
30400W        W73338  32.286   0.938  18.568 -0.1157  0.1383  0.3326
30401W        W73339  28.673   3.483  17.649 -0.0501  0.1955 -0.1342
30402W        W73340  31.994   0.466  19.804 -0.2398  0.2490  0.2155
30403W        W73341  29.959   0.539  19.468  0.1609  0.0144  0.0833
30404W        W73342  30.554   0.297  19.338  0.1562 -0.0546  0.2898
30405W        W73343  32.503   1.446  19.147  0.1519  0.1743 -0.0378
30406W        W73344  31.736   2.953  16.750 -0.1231 -0.1676 -0.0282
30407W        W73345  31.823   0.578  17.560  0.3311 -0.1523  0.0207
30408W        W73346  30.568   1.975  16.850  0.1044  0.0158 -0.1046
30409W        W73347  30.349   1.560  18.884  0.2320  0.1222 -0.2082
30410W        W73348  30.938   2.901  21.917 -0.1139  0.0034 -0.2168
30411W        W73349  31.368   4.474  18.964 -0.1123  0.1725 -0.2923
30412W        W73350  31.609   3.165  19.677 -0.2464  0.0687 -0.1780
30413W        W73351  31.920   1.773  16.348  0.1781 -0.1811  0.0663
30414W        W73352  31.182   1.254  19.917 -0.1821 -0.2473  0.1768
30415W        W73353  31.019   1.341  17.361 -0.0806  0.0482  0.0470
30416W        W73354  31.060   3.477  17.858  0.0384  0.4954  0.1146
30417W        W73355  31.262   1.992  17.400 -0.1738  0.0967  0.1566
30418W        W73356  30.315   0.768  18.107  0.1301 -0.0019 -0.0391
30419W        W73357  30.984   1.393  18.163  0.1718 -0.0159  0.4868
30420W        W73358  30.098   3.577  16.630  0.0253  0.0300 -0.1560
30421W        W73359  32.104   2.930  19.723 -0.2371  0.0315  0.3246
30422W        W73360  30.063   2.749  17.116  0.0024 -0.0263  0.1014
30423W        W73361  31.932  33.614  19.197 -0.0532  0.2006  0.1072
30424W        W73362  29.277   2.700  19.461 -0.0787 -0.0780  0.2259
30425W        W73363  30.310   0.682  16.999  0.1917 -0.1017  0.0130
30426W        W73364  28.939   1.407  18.036 -0.0820 -0.0513  0.3784
30427W        W73365  31.498   0.397  17.211 -0.1308 -0.0268  0.1101
30428W        W73366  32.711   2.267  16.668 -0.1500  0.2397  0.0914
30429W        W73367  29.407   1.228  19.142  0.2127  0.2079 -0.1386
30430W        W73368  30.536   1.708  17.704  0.0092 -0.1596 -0.1566
30431W        W73369  29.641   2.623  18.842  0.3986  0.3030  0.2422
30432W        W73370  31.819   2.295  17.930  0.1083  0.0532 -0.0288
30433W        W73371  32.172   0.964  17.458 -0.2150 -0.0476  0.1695
30434W        W73372  33.653   3.408  19.247 -0.1607  0.0964  0.1077
30435W        W73373  30.947   2.063  19.337  0.1337  0.1636 -0.1647
30436W        W73374  27.845   0.768  17.230 -0.1457  0.2404  0.0914
30437W        W73375  32.150   2.287  17.289  0.0785 -0.2367 -0.0246
30438W        W73376  31.311   2.026  18.978  0.3894  0.2007 -0.0288
30439W        W73377  31.106   3.300  18.938  0.0777  0.2736 -0.0971
30440W        W73378  32.761   4.374  17.509 -0.1899 -0.1432 -0.2609
30441W        W73379  29.207   0.934  16.957  0.0676 -0.0529 -0.0339
30442W        W73380  30.054   2.854  18.656  0.1542 -0.3805 -0.1621
30443W        W73381  30.502   1.833  19.345  0.2984  0.0189 -0.0743
30444W        W73382  31.635   1.229  19.732  0.3690  0.1481 -0.2219
30445W        W73383  31.033   1.767  17.812  0.2649  0.0408 -0.0381
30446W        W73384  29.375   1.080  17.906 -0.4300  0.1884 -0.0049
30447W        W73385  31.716   1.957  17.184 -0.0214 -0.2564  0.0966
30448W        W73386  32.839   2.331  17.633  0.1786  0.1345 -0.0637
30449W        W73387  30.926   1.498  19.154 -0.0683 -0.0600  0.0487
30450W        W73388  29.926   3.404  19.528  0.2857  0.2326 -0.2910
30451W        W73389  29.861  34.511  19.790 -0.2297  0.2868 -0.0703
30452W        W73390  32.801   3.521  17.343 -0.2030 -0.1086  0.0583
30453W        W73391  33.054   1.631  19.062 -0.0297 -0.4181  0.0749
30454W        W73392  30.420   1.565  17.223 -0.1214 -0.0273 -0.1172
30455W        W73393  30.700   3.519  17.357 -0.0930  0.0509 -0.0458
30456W        W73394  30.604   3.154  17.833 -0.0856 -0.1021  0.0521
30457W        W73395  30.258   2.012  18.581 -0.1040 -0.2679  0.0425
30458W        W73396  30.736   3.713  18.940 -0.0473 -0.0073 -0.0175
30459W        W73397  29.070   2.553  17.221 -0.1820 -0.0342  0.0855
30460W        W73398  29.567   1.535  17.785 -0.0759  0.1336  0.3939
30461W        W73399  32.727   0.287  17.670  0.4551  0.1925 -0.1245
30462W        W73400  32.684   2.798  17.985  0.1514 -0.1493 -0.2903
30463W        W73401  31.387   0.604  17.792  0.3613 -0.0680 -0.2396
30464W        W73402  33.396   0.116  20.285 -0.0010 -0.2402  0.0293
30465W        W73403  31.623   1.107  16.702 -0.0422  0.0714 -0.0162
30466W        W73404  31.082   1.153  18.597 -0.1327 -0.1590 -0.0379
30467W        W73405  31.016  33.128  18.335  0.2556  0.0229  0.0842
30468W        W73406  32.099   1.587  17.120 -0.0245 -0.0327 -0.1723
30469W        W73407  29.575   2.345  19.296  0.0796  0.3436 -0.2874
30470W        W73408  33.214   3.043  19.458  0.1498 -0.0292  0.1861
30471W        W73409  28.791   2.105  19.853  0.0410  0.1895  0.0542
30472W        W73410  31.915   0.674  17.071 -0.0035 -0.3890  0.1950
30473W        W73411  29.845   0.065  17.495 -0.0471  0.0123 -0.2083
30474W        W73412  29.770   0.498  18.718 -0.0236  0.1832 -0.0915
30475W        W73413  31.529   3.627  18.739 -0.0444 -0.1181  0.0898
30476W        W73414  30.248   1.291  18.176  0.2946  0.3037  0.2597
30477W        W73415  32.077   1.358  18.870  0.0036 -0.3716  0.2483
30478W        W73416  31.758   1.693  19.798 -0.0422 -0.0527  0.3169
30479W        W73417  31.540   2.023  16.672 -0.3656  0.0959  0.1134
30480W        W73418  31.707   1.545  16.856  0.1687 -0.2556  0.0752
30481W        W73419  30.034   2.307  18.985  0.1622 -0.1673  0.2542
30482W        W73420  31.103   0.690  19.828 -0.1265 -0.0636  0.0389
30483W        W73421  31.642   2.447  17.386 -0.0842 -0.2443 -0.2567
30484W        W73422  31.936   1.909  17.631  0.1985  0.0403 -0.0189
30485W        W73423  31.763   0.890  20.119  0.1915 -0.0660 -0.1436
30486W        W73424  32.082   0.563  20.374  0.3374  0.5361 -0.2216
30487W        W73425  30.654   3.456  19.344  0.1564 -0.1540 -0.0874
30488W        W73426  29.017   2.444  19.170 -0.3412  0.1460 -0.1438
30489W        W73427  33.187   3.895  20.042 -0.0263 -0.0129  0.3379
30490W        W73428  31.880   1.283  16.292  0.0751 -0.2012  0.0072
30491W        W73429  32.178   1.475  19.531  0.0589 -0.0759 -0.1986
30492W        W73430  32.473   3.016  17.208 -0.0993  0.1362  0.0318
30493W        W73431  33.563   1.383  16.707  0.0864 -0.0410 -0.1879
30494W        W73432  29.838   2.875  19.184 -0.1809  0.0015 -0.1493
30495W        W73433  32.952   3.037  18.953  0.0659 -0.0699 -0.1088
30496W        W73434  30.583   0.291  17.307  0.1910 -0.0606 -0.3148
30497W        W73435  32.095   0.972  19.603  0.0227  0.0849  0.3813
30498W        W73436  32.499   3.248  17.673  0.1188 -0.1428 -0.0144
30499W        W73437  31.559   2.144  18.441 -0.1245  0.2021  0.1014
30500W        W73438  31.789   2.392  16.898  0.0648 -0.0738  0.1978
30501W        W73439  30.469  34.626  18.196 -0.0279  0.0302  0.2778
30502W        W73440  30.249   3.735  19.303 -0.2695 -0.2229  0.0361
30503W        W73441  30.301   1.227  16.910  0.0873  0.1285 -0.0185
30504W        W73442  31.210   2.223  16.968 -0.2273 -0.1760  0.0301
30505W        W73443  31.747   1.648  19.275 -0.2695 -0.2705  0.0671
30506W        W73444  33.114   2.612  18.692 -0.2681 -0.1008 -0.2900
30507W        W73445  31.265   0.751  16.950  0.0587 -0.1669  0.0317
30508W        W73446  31.115   0.825  21.348 -0.0597 -0.4885  0.3127
30509W        W73447  29.548   1.697  17.276 -0.1625 -0.1150  0.1304
30510W        W73448  31.408   1.038  18.195  0.1684  0.3072 -0.1040
30511W        W73449  31.954   4.626  18.101  0.1194  0.1097 -0.0405
30512W        W73450  29.493   2.908  18.432  0.1269 -0.0250 -0.0333
30513W        W73451  29.466   3.768  17.339 -0.0135 -0.1208  0.2199
30514W        W73452  30.155  34.638  19.448 -0.0375 -0.2681 -0.1029
30515W        W73453  33.346   1.664  17.132  0.1952  0.2291  0.1630
30516W        W73454  32.723   2.178  18.800 -0.1245  0.1624 -0.4351
30517W        W73455  33.110   2.097  17.967 -0.1932  0.2820 -0.1888
30518W        W73456  31.820   2.166  19.089  0.0979 -0.0333 -0.0488
30519W        W73457  31.043   4.014  18.039  0.1536  0.0859  0.2633
30520W        W73458  31.719   2.692  19.809  0.1560  0.1654  0.1519
30521W        W73459  32.371   2.269  17.778 -0.0100  0.0916 -0.2626
30522W        W73460  29.522   3.136  17.615 -0.0079  0.0782 -0.0272
30523W        W73461  28.663   1.430  19.764  0.1707  0.1640  0.1337
30524W        W73462  31.628   1.957  20.228 -0.1333  0.1690 -0.0199
30525W        W73463  30.795   1.658  20.212 -0.3083  0.2623 -0.0180
30526W        W73464  29.467  34.347  18.230  0.1355  0.2285 -0.0345
30527W        W73465  30.659   2.703  17.260  0.0064  0.1335 -0.2550
30528W        W73466  30.056   2.364  20.710 -0.0364 -0.0120  0.2496
30529W        W73467  28.035   1.908  19.217  0.2059 -0.0333  0.0182
30530W        W73468  29.818   3.843  16.978  0.1200  0.2135 -0.3566
30531W        W73469  32.549   1.314  17.335  0.1403 -0.0342 -0.1044
30532W        W73470  32.341   3.083  18.334  0.1195  0.2284  0.1273
30533W        W73471  31.386   3.233  18.487  0.6424 -0.1512 -0.1312
30534W        W73472  31.282   1.741  16.996 -0.0505 -0.2846 -0.1977
30535W        W73473  30.125   3.773  18.253  0.0905  0.2087 -0.2558
30536W        W73474  29.202   4.711  17.981  0.0732  0.2341 -0.0690
30537W        W73475  33.161   2.708  16.011  0.1462  0.0350 -0.2235
30538W        W73476  29.478   4.410  17.678  0.0516 -0.1471  0.0610
30539W        W73477  32.306   2.268  19.054 -0.0371 -0.3791 -0.0653
30540W        W73478  32.521  33.672  16.481 -0.0206  0.1079 -0.1970
30541W        W73479  33.470   2.930  17.519 -0.0357 -0.1653  0.0640
30542W        W73480  32.712   1.003  18.201 -0.1070 -0.0301 -0.0531
30543W        W73481  32.336   1.898  20.622 -0.1455  0.2149  0.0582
30544W        W73482  30.786   0.615  18.740 -0.0235  0.1247  0.0242
30545W        W73483  30.797   0.596  16.901  0.2087 -0.3581 -0.0500
30546W        W73484  29.080   1.686  19.862  0.1536  0.0502  0.2732
30547W        W73485  32.057   0.123  20.751  0.3247 -0.1506 -0.2185
30548W        W73486  29.406   4.132  21.133 -0.3713  0.0829 -0.4768
30549W        W73487  31.769   3.431  16.465  0.3876  0.1234 -0.0987
30550W        W73488  29.230   2.840  17.981  0.0610 -0.1585 -0.2788
30551W        W73489  31.474   2.597  18.211  0.1802 -0.0616 -0.1002
30552W        W73490  33.615   0.711  20.922 -0.0030  0.1537  0.0118
30553W        W73491  33.121   3.129  17.175 -0.0803  0.1240 -0.2108
30554W        W73492  31.805   0.690  18.259  0.0144 -0.0402  0.0548
30555W        W73493  32.337   3.695  18.255  0.3199  0.1209  0.0707
30556W        W73494  31.048   4.534  18.529  0.1260  0.1812  0.3312
30557W        W73495  30.583   4.833  18.707 -0.3319  0.2954  0.1097
30558W        W73496  28.702  34.514  17.897 -0.2211 -0.1266  0.0929
30559W        W73497  32.983   0.133  18.569  0.0226 -0.3197 -0.2453
30560W        W73498  31.038   2.023  20.361 -0.1269 -0.1055  0.1140
30561W        W73499  30.709   0.025  18.685 -0.0712  0.0710 -0.1368
30562W        W73500  30.209   1.253  17.508  0.0552 -0.2176 -0.2625
30563W        W73501  32.318   1.481  18.427 -0.1080  0.1663  0.3370
30564W        W73502  31.581   0.716  21.120 -0.4363 -0.0412 -0.0015
30565W        W73503  30.384   2.853  19.369  0.0346  0.1165  0.4174
30566W        W73504  31.114   2.431  17.548  0.2298 -0.2298 -0.0269
30567W        W73505  32.536   1.476  20.347 -0.2778  0.2066  0.0977
30568W        W73506  31.615   3.559  17.575 -0.2118 -0.1122 -0.0571
30569W        W73507  32.207   1.807  19.030 -0.0813 -0.2280  0.0867
30570W        W73508  29.872   0.008  18.024 -0.3395  0.1948 -0.1120
30571W        W73509  32.569   1.328  17.845 -0.2283 -0.0820 -0.1517
30572W        W73510  30.587   2.252  18.174  0.3186 -0.1228 -0.1916
30573W        W73511  30.705   2.644  17.806  0.0425 -0.0626  0.4132
30574W        W73512  31.493   2.497  18.897 -0.1607 -0.1078  0.2227
30575W        W73513  29.275  33.920  17.304  0.1653  0.1148  0.1014
30576W        W73514  30.838   3.029  16.929  0.0191 -0.1670  0.4508
30577W        W73515  31.766   1.152  19.199 -0.1706 -0.0182 -0.0140
30578W        W73516  30.321   4.021  16.900  0.1748 -0.0406 -0.0133
30579W        W73517  33.383   2.783  16.756 -0.1862 -0.0791 -0.3931
30580W        W73518  31.837   3.462  18.346 -0.0013 -0.0783  0.0551
30581W        W73519  29.430   0.005  18.535  0.2137  0.2574  0.2898
30582W        W73520  31.032   1.654  18.656  0.0286 -0.3607  0.1907
30583W        W73521  33.911   2.700  16.619  0.1252 -0.1563 -0.5344
30584W        W73522  31.300   1.242  16.994 -0.2391 -0.0415 -0.4185
30585W        W73523  30.102   1.767  18.097  0.2709  0.0266  0.0680
30586W        W73524  29.742   2.640  17.794 -0.0331 -0.0355  0.1520
30587W        W73525  33.542   1.181  18.480  0.0139  0.2235 -0.0900
30588W        W73526  31.724   0.948  18.770  0.0342  0.0600 -0.0373
30589W        W73527  30.730   2.523  16.797 -0.0783  0.2632 -0.0085
30590W        W73528  33.275   0.749  19.347 -0.2208 -0.1314  0.3097
30591W        W73529  32.069   3.197  17.931  0.0360  0.1748 -0.1134
30592W        W73530  31.167   3.223  21.561 -0.0828 -0.0482  0.1037
30593W        W73531  29.937   1.413  16.416  0.0608 -0.2035 -0.5220
30594W        W73532  31.440   1.601  18.382  0.0009 -0.1675  0.4473
30595W        W73533  30.741   2.160  17.645 -0.2259 -0.1562 -0.1999
30596W        W73534  32.565   3.900  17.101 -0.3404  0.0850  0.3249
30597W        W73535  32.149   4.493  16.059  0.1034 -0.1478  0.0329
30598W        W73536  31.445   1.461  18.840 -0.0682 -0.2628 -0.1258
30599W        W73537  33.711   3.586  18.242 -0.0378  0.1763  0.3414
30600W        W73538  31.039   2.794  18.556 -0.1875 -0.0569  0.2069
30601W        W73539  32.642  34.346  18.865 -0.0921 -0.1912  0.0513
30602W        W73540  32.161   0.534  17.913 -0.2394  0.0348  0.0722
30603W        W73541  30.754   2.524  19.655 -0.0091  0.0266  0.4257
30604W        W73542  28.848   1.297  16.858  0.1494 -0.3655  0.0905
30605W        W73543  30.419   2.191  17.299 -0.2467  0.0382  0.0180
30606W        W73544  30.481   2.773  18.297  0.0636  0.0938  0.0487
30607W        W73545  30.120   1.149  19.973 -0.3146 -0.0504 -0.4163
30608W        W73546  29.280   2.140  20.137 -0.1549 -0.0664 -0.0329
30609W        W73547  29.977   1.550  18.557 -0.1100  0.1389 -0.1945
30610W        W73548  31.093   0.441  18.132 -0.1717  0.2923  0.2354
30611W        W73549  33.521   2.367  17.048  0.0520  0.2934 -0.0257
30612W        W73550  30.658   1.765  18.336  0.2184 -0.1466  0.0033
30613W        W73551  29.796  34.277  17.569 -0.3151 -0.0694 -0.0795
30614W        W73552  33.157   2.168  19.343  0.0870 -0.0202  0.0626
30615W        W73553  33.273   4.545  17.565 -0.0591  0.2904  0.2928
30616W        W73554  31.048   0.985  17.780  0.1245  0.2596  0.0304
30617W        W73555  32.326   2.751  19.288  0.2845  0.4149  0.1353
30618W        W73556  28.902   2.213  16.349  0.0979  0.0737 -0.2564
30619W        W73557  31.359   1.421  19.374  0.4293 -0.0718 -0.2775
30620W        W73558  30.728   0.484  21.064 -0.0054  0.0522  0.2259
30621W        W73559  27.866   1.388  16.648 -0.0958 -0.0093  0.3294
30622W        W73560  31.391   1.939  19.539 -0.2393 -0.1818 -0.4016
30623W        W73561  31.316   3.173  16.778  0.0097 -0.0386 -0.1950
30624W        W73562  32.165   3.675  16.757 -0.0865  0.1435 -0.0906
30625W        W73563  30.251   3.256  19.047  0.1229  0.0102 -0.2371
30626W        W73564  32.442   3.185  18.997 -0.1626 -0.1543  0.1160
30627W        W73565  27.473   0.575  19.160  0.1513  0.1929  0.0245
30628W        W73566  31.567   2.047  16.133 -0.0296 -0.1348 -0.1000
30629W        W73567  31.372   2.431  19.447 -0.1973 -0.3014  0.1458
30630W        W73568  33.035   3.179  17.642 -0.0083 -0.0804  0.3017
30631W        W73569  32.229   0.933  19.136  0.2336 -0.0959  0.1221
30632W        W73570  31.428   1.586  16.359 -0.1974 -0.0365  0.2303
30633W        W73571  28.407   1.860  18.288 -0.1393  0.0623 -0.0830
30634W        W73572  29.538   1.563  18.789 -0.4715  0.0038 -0.1186
30635W        W73573  33.155   2.778  17.871 -0.3108 -0.1329  0.2401
30636W        W73574  30.738   1.953  18.909 -0.0934 -0.0526  0.0531
30637W        W73575  32.573   1.705  16.951 -0.1149 -0.0949 -0.0518
30638W        W73576  31.205   2.866  17.798  0.0694 -0.0256 -0.0507
30639W        W73577  28.142   2.596  17.796 -0.2582 -0.3220 -0.0164
30640W        W73578  32.083   1.407  17.679  0.0663  0.1098  0.0137
30641W        W73579  31.929   2.732  20.320  0.1944  0.1804 -0.0638
30642W        W73580  31.587   4.681  18.547  0.0141 -0.1692  0.0669
30643W        W73581  32.099   2.012  19.498  0.2718 -0.2020 -0.2633
30644W        W73582  30.860   1.068  16.841 -0.3414 -0.0252 -0.0808
30645W        W73583  33.222   2.308  16.638 -0.2539  0.2007  0.5268
30646W        W73584  33.531   3.227  19.841  0.2275  0.0868 -0.0191
30647W        W73585  33.480   2.382  18.903  0.0878 -0.0087  0.2561
30648W        W73586  32.305   3.359  19.608 -0.0341 -0.0963 -0.2089
30649W        W73587  32.296   2.756  17.666 -0.3051  0.0827 -0.2065
30650W        W73588  29.370   0.150  19.052 -0.2018  0.0180  0.0633
30651W        W73589  28.981   1.218  17.384 -0.1748  0.1122  0.2274
30652W        W73590  31.572   1.522  17.357 -0.1625 -0.1215 -0.0891
30653W        W73591  34.100   0.975  17.957 -0.1688 -0.0653 -0.2932
30654W        W73592  32.093   2.723  18.139  0.2309 -0.1546 -0.0821
30655W        W73593  32.349   0.455  17.460 -0.2615 -0.0949 -0.2612
30656W        W73594  31.197   2.788  19.807 -0.5437 -0.0450  0.0221
30657W        W73595  32.829   2.560  19.132  0.0059 -0.0209  0.0015
30658W        W73596  30.014   3.260  21.833  0.2105  0.0164 -0.2311
30659W        W73597  29.730   0.117  20.632  0.0494  0.0238  0.1657
30660W        W73598  32.895   2.128  19.769 -0.2131 -0.0545  0.2991
30661W        W73599  32.061   1.333  20.044  0.0389 -0.0929  0.2353
30662W        W73600  28.255   1.051  21.680 -0.0200  0.1093 -0.4727
30663W        W73601  30.629   4.025  21.145  0.1264  0.1993 -0.2824
30664W        W73602  30.105   0.935  23.423 -0.1201  0.0135  0.1691
30665W        W73603  29.600   2.339  21.557 -0.1164 -0.3219 -0.3604
30666W        W73604  33.008   4.651  21.068  0.2283  0.1540 -0.0081
30667W        W73605  31.569   1.415  20.197  0.0437 -0.0756  0.1828
30668W        W73606  29.695   2.116  20.969  0.0686  0.0715  0.2253
30669W        W73607  29.611   3.494  22.030  0.4003  0.0164  0.2535
30670W        W73608  29.410   1.742  22.923  0.1185 -0.0614 -0.1044
30671W        W73609  28.494   0.004  23.044 -0.0214 -0.0616  0.0848
30672W        W73610  31.068   0.076  22.563 -0.0056 -0.0764 -0.3197
30673W        W73611  29.347   3.063  19.928 -0.3242 -0.0329 -0.0721
30674W        W73612  30.518   3.679  21.886 -0.1930  0.0680 -0.4062
30675W        W73613  30.414   2.275  21.430  0.0412 -0.2383  0.1102
30676W        W73614  28.842   2.159  20.989  0.0101  0.2607  0.2085
30677W        W73615  30.980   2.413  21.497  0.2253 -0.0722 -0.0203
30678W        W73616  29.738   0.807  23.010 -0.1170  0.3469 -0.3252
30679W        W73617  31.355   2.835  21.185  0.2311  0.0680 -0.0720
30680W        W73618  29.325   1.686  20.416 -0.1355  0.0326 -0.1144
30681W        W73619  26.990   1.327  21.807  0.0282 -0.0856  0.0917
30682W        W73620  29.659   2.704  23.467 -0.0256  0.0402 -0.1682
30683W        W73621  29.670  34.617  22.866  0.1198 -0.0721  0.2365
30684W        W73622  32.510   1.541  21.910  0.2530  0.1673 -0.0832
30685W        W73623  31.139   3.611  22.528  0.2740 -0.1596  0.0894
30686W        W73624  31.217   4.106  22.455 -0.0806 -0.2371  0.0556
30687W        W73625  31.600   2.092  23.312 -0.1786 -0.0668 -0.2036
30688W        W73626  27.698   0.964  21.535  0.0608  0.2216  0.2513
30689W        W73627  30.010   3.572  22.283 -0.3167  0.2874 -0.2326
30690W        W73628  29.961   2.460  21.190  0.0633 -0.1106 -0.1689
30691W        W73629  32.269   2.803  21.360 -0.0029  0.1127 -0.1915
30692W        W73630  33.224   2.707  23.267 -0.1723  0.1448  0.1808
30693W        W73631  31.318   3.814  25.748 -0.4242 -0.2305 -0.4436
30694W        W73632  28.982   1.931  19.349  0.3582 -0.1668 -0.0472
30695W        W73633  30.328   3.743  23.209  0.0368  0.2798  0.0601
30696W        W73634  29.660   4.407  23.510  0.2534  0.4660  0.2564
30697W        W73635  30.885   1.331  23.190  0.0358 -0.5049 -0.2577
30698W        W73636  31.139   1.713  22.125  0.1327  0.3874 -0.1064
30699W        W73637  30.206   3.624  20.955  0.3258 -0.1805  0.3825
30700W        W73638  31.384   2.897  20.700  0.0735 -0.3187  0.0783
30701W        W73639  31.123   2.877  23.350 -0.5565  0.1535 -0.0423
30702W        W73640  28.060   4.874  22.353  0.1911  0.1321 -0.3649
30703W        W73641  31.730  33.969  22.837 -0.3178  0.1027 -0.1882
30704W        W73642  29.512   3.670  19.523  0.4111  0.0288 -0.0150
30705W        W73643  32.217   2.440  19.850  0.2507 -0.1623  0.1109
30706W        W73644  29.722   0.714  20.883  0.0943  0.0548 -0.1662
30707W        W73645  32.868   1.390  20.995 -0.3014 -0.0837 -0.0953
30708W        W73646  28.938   0.592  21.474  0.1003 -0.0371  0.0392
30709W        W73647  30.838   4.438  21.538  0.2748 -0.0965 -0.0228
30710W        W73648  27.824   1.323  21.819 -0.0720  0.1573  0.0631
30711W        W73649  31.779   2.263  22.504 -0.1205 -0.2326  0.1270
30712W        W73650  30.369   1.016  21.174 -0.0054 -0.2854  0.0959
30713W        W73651  32.566   1.937  21.072  0.1578 -0.0086  0.2139
30714W        W73652  30.325   3.631  21.441 -0.1750  0.0129 -0.1240
30715W        W73653  29.431   2.615  20.268 -0.0158  0.0286  0.2448
30716W        W73654  33.033   2.575  19.621  0.0045 -0.2633 -0.2606
30717W        W73655  32.006   2.676  21.789  0.1685  0.0400 -0.0076
30718W        W73656  32.660   4.761  19.546 -0.0554  0.2431  0.0400
30719W        W73657  28.442   0.936  22.141 -0.1331  0.1793 -0.1549
30720W        W73658  29.411   3.936  23.355 -0.0260 -0.0898 -0.2687
30721W        W73659  28.280   1.443  22.000  0.4760 -0.3971  0.0049
30722W        W73660  29.618   2.625  19.818  0.1641  0.2115  0.0293
30723W        W73661  32.271   2.373  24.090  0.3741  0.2031 -0.1831
30724W        W73662  28.747   3.204  23.574  0.2600 -0.3074 -0.0454
30725W        W73663  31.870   1.188  22.544 -0.2987 -0.2421 -0.2189
30726W        W73664  30.741   2.563  23.250 -0.1034  0.0519  0.1210
30727W        W73665  30.794   3.173  22.548  0.0849 -0.0905  0.2674
30728W        W73666  32.008   2.282  20.442  0.1858  0.2068  0.0081
30729W        W73667  30.970   0.943  22.515  0.0870 -0.0058  0.1215
30730W        W73668  30.464   0.079  23.196 -0.3997  0.0759  0.2365
30731W        W73669  30.268   2.110  19.763  0.1227  0.3901  0.1788
30732W        W73670  31.509   0.475  20.021  0.1925  0.1130 -0.0040
30733W        W73671  32.533   2.627  23.267 -0.1506  0.2519 -0.1224
30734W        W73672  33.458   2.925  19.054  0.1159 -0.0362  0.0376
30735W        W73673  30.513   2.555  21.823  0.0086 -0.0983  0.0594
30736W        W73674  31.211   1.328  23.578  0.0234 -0.1055 -0.2963
30737W        W73675  30.320   2.916  23.914 -0.0042 -0.0679 -0.3540
30738W        W73676  29.722   3.714  21.185  0.4253  0.1917  0.1696
30739W        W73677  26.102   1.515  21.859  0.2361  0.3086 -0.0283
30740W        W73678  31.019   3.338  20.578 -0.0898 -0.2040  0.0162
30741W        W73679  29.906   1.429  23.600  0.2827 -0.0541  0.3044
30742W        W73680  29.454   3.419  22.475  0.0916 -0.0216  0.1774
30743W        W73681  31.316   0.949  20.294 -0.1980 -0.0456 -0.2507
30744W        W73682  29.087   2.170  23.513 -0.0053  0.2674 -0.0158
30745W        W73683  32.264  33.948  20.955  0.2097 -0.0805 -0.0412
30746W        W73684  29.579   2.647  20.719 -0.0200 -0.2329 -0.2432
30747W        W73685  32.124   3.396  21.035 -0.0774 -0.0385 -0.3049
30748W        W73686  32.617   2.672  20.063  0.0972 -0.1055 -0.3570
30749W        W73687  32.773   3.398  19.903  0.1963  0.1498 -0.2673
30750W        W73688  28.018   2.303  20.828 -0.1276  0.0084 -0.0326
30751W        W73689  28.958   0.446  22.605  0.0111 -0.0523  0.1086
30752W        W73690  29.418   2.292  23.068 -0.0282  0.2606 -0.3806
30753W        W73691  29.299   1.738  23.536 -0.0906  0.2138 -0.2633
30754W        W73692  31.420   0.898  22.677 -0.0788  0.0227  0.1655
30755W        W73693  28.328  33.902  21.233 -0.4423 -0.1618  0.0205
30756W        W73694  32.831   0.793  20.179  0.0819 -0.0326  0.2523
30757W        W73695  28.790   0.997  21.173 -0.1129 -0.0155  0.0419
30758W        W73696  28.984   2.625  20.815  0.3272  0.0230  0.1987
30759W        W73697  29.332   1.023  22.035 -0.2312 -0.1561  0.4275
30760W        W73698  31.155   4.191  21.876 -0.1102  0.0701 -0.0883
30761W        W73699  31.666   3.011  24.103  0.1304  0.0849 -0.0607
30762W        W73700  32.514   3.946  22.346 -0.2320  0.0026  0.1354
30763W        W73701  28.378   1.204  22.517  0.1665 -0.2431  0.2940
30764W        W73702  28.682   1.498  22.754 -0.1002  0.0354 -0.2765
30765W        W73703  31.464   3.508  22.136 -0.1250 -0.0545  0.0628
30766W        W73704  29.765   2.805  21.781  0.0497 -0.0863  0.5140
30767W        W73705  30.198   0.885  20.678 -0.1368 -0.1527 -0.0025
30768W        W73706  32.242   5.166  20.784 -0.0720 -0.1840 -0.2059
30769W        W73707  30.518   1.762  21.398  0.1572 -0.2516  0.3355
30770W        W73708  30.565   2.491  23.890  0.1591  0.0968 -0.3008
30771W        W73709  30.614   0.759  22.217  0.1280 -0.1338  0.3873
30772W        W73710  33.264   1.865  22.969  0.4860  0.2653 -0.0509
30773W        W73711  31.778  34.299  21.785  0.2099  0.2754 -0.1301
30774W        W73712  29.875   0.431  21.357 -0.1910  0.0850 -0.0273
30775W        W73713  30.302   2.018  20.971  0.2211 -0.1074 -0.1839
30776W        W73714  29.137   3.479  20.342 -0.3173  0.0619 -0.1550
30777W        W73715  28.781   2.673  21.300  0.1214  0.1453 -0.0951
30778W        W73716  30.346   5.206  21.586 -0.1279  0.0120  0.1227
30779W        W73717  32.323   1.414  20.877  0.2221  0.2358 -0.0538
30780W        W73718  29.307   3.372  25.234 -0.1441 -0.0502  0.0628
30781W        W73719  31.298   1.677  23.170 -0.1392  0.1670  0.2461
30782W        W73720  28.909   3.569  20.854 -0.0767 -0.0859 -0.1130
30783W        W73721  29.487   4.174  24.885 -0.2797  0.0225  0.3020
30784W        W73722  30.221   1.304  21.546  0.0494  0.1980  0.2147
30785W        W73723  33.124   0.339  19.876  0.2205  0.2158 -0.1040
30786W        W73724  31.178   1.892  23.603  0.0512  0.0844 -0.2021
30787W        W73725  31.802   3.149  22.259  0.1487 -0.0705  0.2126
30788W        W73726  31.153   1.426  20.521 -0.2198 -0.2939  0.0512
30789W        W73727  29.648  34.386  20.291  0.2727 -0.1688  0.0360
30790W        W73728  29.923   4.104  23.086 -0.2069  0.1054  0.2379
30791W        W73729  31.614   2.370  20.751  0.3525  0.3366  0.0902
30792W        W73730  29.614   2.666  22.764 -0.1255 -0.0366 -0.1169
30793W        W73731  32.789   0.722  19.671  0.1957  0.1492 -0.1569
30794W        W73732  32.225   3.670  20.084 -0.0356 -0.1688  0.2530
30795W        W73733  27.747   2.490  21.787  0.2415 -0.3873  0.1048
30796W        W73734  30.514   2.766  22.703 -0.1365 -0.1307  0.0643
30797W        W73735  31.989   3.592  22.246 -0.3869 -0.3510  0.4363
30798W        W73736  29.756   0.511  22.517  0.1505  0.3212 -0.3162
30799W        W73737  30.439   0.715  20.130 -0.0907  0.1037  0.0291
30800W        W73738  29.920   1.777  21.799 -0.0257 -0.1134  0.2078
30801W        W73739  29.500   4.150  18.172  0.0613 -0.1331 -0.1732
30802W        W73740  31.790   0.353  22.203 -0.2298  0.2085 -0.1270
30803W        W73741  30.056   1.417  22.459  0.1248  0.0336  0.0433
30804W        W73742  29.310   0.763  24.062  0.2680 -0.0195  0.1605
30805W        W73743  32.711   0.559  22.697 -0.3218  0.0388 -0.1617
30806W        W73744  32.634   2.929  19.616 -0.0163 -0.1133  0.3094
30807W        W73745  32.035   1.657  22.646 -0.1713  0.2394 -0.5120
30808W        W73746  28.410   2.013  20.669  0.1894  0.0454  0.2181
30809W        W73747  30.275   0.336  22.375  0.1605 -0.2549  0.0175
30810W        W73748  30.121   2.816  23.017  0.3287 -0.1260 -0.3173
30811W        W73749  29.376   3.539  22.996  0.0755 -0.2385 -0.0056
30812W        W73750  30.944   2.583  24.310 -0.1448  0.1562  0.1582
30813W        W73751  32.433   2.144  23.054  0.0465 -0.2321  0.0950
30814W        W73752  29.568   0.560  23.412  0.0887  0.4003  0.0924
30815W        W73753  29.946   1.689  21.284 -0.0458 -0.0731  0.1149
30816W        W73754  29.127   3.663  21.308 -0.0026 -0.0023 -0.0216
30817W        W73755  30.345   3.297  20.537  0.2800  0.1662  0.1536
30818W        W73756  28.912  34.655  21.828 -0.0536 -0.1021 -0.0632
30819W        W73757  29.721   3.026  22.268  0.1415  0.3313 -0.1459
30820W        W73758  30.955   3.461  19.813  0.2106  0.0218  0.0946
30821W        W73759  31.778   2.073  23.810 -0.0394  0.2618  0.2771
30822W        W73760  30.368   4.044  22.241 -0.1348  0.1340 -0.2580
30823W        W73761  32.571  34.307  21.302 -0.0124  0.0255 -0.0019
30824W        W73762  28.155   3.914  22.558 -0.1472  0.2021 -0.1078
30825W        W73763  30.364   1.618  19.949 -0.1080 -0.3643  0.2979
30826W        W73764  28.969   0.461  19.638 -0.3046  0.1256  0.0051
30827W        W73765  30.799   1.681  21.766  0.0933  0.0028 -0.2857
30828W        W73766  31.836   2.585  21.184  0.0411  0.3242  0.0052
30829W        W73767  27.969   0.591  21.747  0.0175 -0.2234  0.2037
30830W        W73768  30.987   1.523  22.706  0.2188 -0.2286 -0.0387
30831W        W73769  29.263   3.130  21.988 -0.0749  0.0118  0.3470
30832W        W73770  30.958   2.756  22.386  0.0080  0.2930 -0.4660
30833W        W73771  32.229   0.967  21.600  0.2852  0.1338 -0.1780
30834W        W73772  31.300   3.126  22.435  0.0224  0.1456  0.0284
30835W        W73773  30.922   2.111  24.040 -0.1703  0.0435  0.1900
30836W        W73774  28.752   0.751  18.691 -0.0216 -0.2348  0.0485
30837W        W73775  32.385   1.350  22.806 -0.0240 -0.2486 -0.1193
30838W        W73776  29.644   0.597  19.838 -0.1469  0.1924 -0.0638
30839W        W73777  28.631   4.025  22.464  0.0889  0.0332  0.2742
30840W        W73778  30.904   3.055  20.164  0.2059 -0.1877  0.1179
30841W        W73779  29.459   1.810  21.546 -0.0427 -0.0852  0.1870
30842W        W73780  29.469   3.221  19.420 -0.2629  0.4576 -0.2285
30843W        W73781  29.618   1.778  22.455 -0.1322  0.2385  0.0172
30844W        W73782  31.199   2.269  22.387  0.1520  0.1762  0.0657
30845W        W73783  31.945   1.578  20.500 -0.1398 -0.1027  0.2978
30846W        W73784  29.588   1.203  19.996  0.3657  0.0253 -0.0021
30847W        W73785  29.698   1.407  22.111 -0.1074 -0.0423  0.1753
30848W        W73786  32.354   1.205  22.276  0.1968 -0.0531  0.2165
30849W        W73787  30.387   1.472  23.269  0.2208  0.1056 -0.0073
30850W        W73788  30.000   3.790  24.739  0.3463  0.2219 -0.0348
30851W        W73789  30.451  32.967  23.140  0.0947 -0.2984  0.0502
30852W        W73790  32.604   3.501  20.362  0.1846  0.2522 -0.0676
30853W        W73791  30.455   1.610  22.195 -0.2238  0.2446 -0.0057
30854W        W73792  30.808   1.259  20.894  0.1288  0.0239 -0.0079
30855W        W73793  27.471   1.620  22.050  0.1345 -0.1522  0.0496
30856W        W73794  31.711   2.202  19.800  0.1813  0.0598  0.2594
30857W        W73795  31.056  34.497  21.785  0.0254 -0.2528 -0.1679
30858W        W73796  30.030   1.951  22.299 -0.1662  0.0045 -0.0920
30859W        W73797  30.441   3.045  21.032 -0.0709 -0.3615 -0.3623
30860W        W73798  29.494   3.440  24.259 -0.0320  0.0589 -0.0186
30861W        W73799  32.127   1.089  20.515 -0.0837  0.0274  0.0157
30862W        W73800  30.733   1.755  20.714  0.1809  0.1388 -0.1712
30863W        W73801  29.408   1.430  20.814 -0.0194  0.0405 -0.3989
30864W        W73802  32.975  34.142  22.414  0.3234 -0.1501 -0.1506
30865W        W73803  30.589   0.797  21.635 -0.0021  0.0449 -0.0707
30866W        W73804  31.577   1.634  23.599  0.0659  0.1389 -0.3708
30867W        W73805  30.598   0.769  24.287 -0.1635  0.3209  0.1862
30868W        W73806  32.125   2.651  22.324  0.1199  0.1965  0.1432
30869W        W73807  28.135   1.853  22.721 -0.2254 -0.0890 -0.4907
30870W        W73808  32.483   3.733  25.546 -0.1949  0.0431  0.1588
30871W        W73809  28.444   3.196  24.750  0.0747 -0.1978  0.0377
30872W        W73810  30.295   1.492  20.900 -0.0619  0.1957 -0.2353
30873W        W73811  29.782   1.269  20.467 -0.1169 -0.2071 -0.0203
30874W        W73812  29.483   2.570  22.070 -0.2058 -0.2205 -0.0127
30875W        W73813  32.020   1.668  22.169  0.2587 -0.1780 -0.1312
30876W        W73814  31.204   0.854  20.827 -0.1509  0.0891 -0.0676
30877W        W73815  32.715   1.862  21.539  0.0732  0.0839 -0.4418
30878W        W73816  27.602   2.149  21.031 -0.2496  0.0226 -0.0262
30879W        W73817  31.262   1.956  21.618  0.0025  0.0532  0.1758
30880W        W73818  33.041   2.376  20.161  0.1830 -0.0987  0.4330
30881W        W73819  30.454   2.564  20.967 -0.1300  0.0003 -0.0389
30882W        W73820  29.567   1.318  22.652 -0.2520  0.0898  0.1546
30883W        W73821  30.928   2.169  21.916 -0.1749  0.2717  0.2162
30884W        W73822  30.393   0.333  21.447  0.0135 -0.1899  0.1462
30885W        W73823  30.389   1.254  23.744  0.1330 -0.2496  0.1233
30886W        W73824  30.531   3.571  22.403 -0.2670 -0.3845  0.3050
30887W        W73825  29.563   2.080  22.064 -0.2502  0.0442 -0.2224
30888W        W73826  29.838   1.858  23.969  0.0153 -0.0027  0.1301
30889W        W73827  30.192   3.092  22.449 -0.2117 -0.0511  0.0935
30890W        W73828  33.661   1.885  18.352 -0.1105  0.1626  0.1931
30891W        W73829  31.534   1.807  22.376 -0.4895 -0.2240 -0.1850
30892W        W73830  33.061   1.521  21.610  0.4981  0.2614 -0.1585
30893W        W73831  32.121   2.624  20.786 -0.3146  0.0811  0.3735
30894W        W73832  28.669   0.996  22.907  0.2077  0.1656  0.1421
30895W        W73833  32.308   1.290  24.761  0.0086  0.3242 -0.0297
30896W        W73834  30.293   1.849  20.391 -0.2908  0.0982 -0.0906
30897W        W73835  31.256   1.219  22.193 -0.0508  0.1957  0.0313
30898W        W73836  30.572   3.860  19.712 -0.0112 -0.2784 -0.0369
30899W        W73837  30.759   2.121  21.120 -0.3904 -0.0054  0.0499
30900W        W73838  31.664   1.156  20.646 -0.0390 -0.1745  0.3659
30901W        W73839  29.705   0.941  23.777 -0.0484 -0.0382  0.0745
30902W        W73840  30.068   4.784  26.227 -0.0386 -0.1555  0.1323
30903W        W73841  29.453   1.531  19.552  0.1695 -0.1205 -0.0347
30904W        W73842  30.194   2.422  20.089  0.1859  0.0969 -0.0667
30905W        W73843  30.166   2.872  21.529 -0.0902  0.0477  0.2771
30906W        W73844  33.075   1.577  22.512 -0.0655 -0.1534  0.0563
30907W        W73845  31.640  34.214  21.166 -0.0921 -0.1952 -0.0036
30908W        W73846  33.380   1.385  22.984  0.2608 -0.0564  0.1210
30909W        W73847  28.796   1.385  22.175  0.0801  0.0010  0.2536
30910W        W73848  29.756   0.292  22.092  0.1720  0.1836 -0.0076
30911W        W73849  29.338   4.226  21.913 -0.0452 -0.0824 -0.2387
30912W        W73850  28.020   3.276  22.554 -0.2259  0.0546 -0.1682
30913W        W73851  28.948   3.216  21.512  0.1142 -0.3377 -0.1381
30914W        W73852  31.199   0.799  23.487 -0.2085 -0.2283  0.1776
30915W        W73853  31.637   1.579  21.366  0.2145 -0.2427  0.0140
30916W        W73854  29.104   1.438  21.430  0.0084  0.1091 -0.0830
30917W        W73855  33.839   1.177  23.888 -0.0403 -0.1005  0.0018
30918W        W73856  29.289   2.459  24.108 -0.0672 -0.2585 -0.1527
30919W        W73857  31.259   1.413  21.622  0.0114 -0.0344  0.0811
30920W        W73858  30.603   2.395  22.292 -0.1162 -0.0272 -0.0555
30921W        W73859  32.218   3.196  23.486 -0.0909 -0.0750 -0.0094
30922W        W73860  30.031   3.775  21.823  0.0990 -0.0031  0.0923
30923W        W73861  28.708   2.068  24.805  0.3342  0.1583  0.0144
30924W        W73862  30.310   2.197  22.613  0.3270 -0.0288  0.2662
30925W        W73863  30.818   1.973  22.506  0.0742  0.0763 -0.0529
30926W        W73864  29.517   1.308  23.228  0.0551  0.0189 -0.4145
30927W        W73865  31.418   3.447  20.029  0.2302 -0.1572  0.2714
30928W        W73866  28.748   3.111  22.132  0.1737 -0.1939 -0.0250
30929W        W73867  28.754   2.349  23.892 -0.2644  0.0685 -0.0147
30930W        W73868  30.260   4.713  20.769  0.0991  0.0489 -0.0256
30931W        W73869  32.469   2.299  21.520  0.0324 -0.1808  0.0422
30932W        W73870  32.001   1.456  21.630  0.2164  0.0980  0.2203
30933W        W73871  32.439   4.581  22.411 -0.2494  0.0868 -0.4309
30934W        W73872  29.275   1.837  21.085 -0.0065 -0.0624 -0.0427
30935W        W73873  30.020   3.252  21.190  0.1410 -0.0335 -0.2359
30936W        W73874  29.387   3.406  18.537 -0.1087 -0.0759 -0.1007
30937W        W73875  31.050   2.531  20.871  0.0885 -0.2703  0.3225
30938W        W73876  28.543   3.350  21.197  0.1084  0.0004 -0.1890
30939W        W73877  31.918   2.425  23.065 -0.0855 -0.3291 -0.0888
30940W        W73878  31.083   0.261  20.722  0.1144 -0.0287 -0.1199
30941W        W73879  30.703   1.235  21.907  0.1099 -0.2510 -0.1366
30942W        W73880  33.519   2.132  20.870  0.0851  0.2684  0.1574
30943W        W73881  30.949   3.765  21.504  0.0103  0.0641  0.0647
30944W        W73882  29.709   1.895  23.340 -0.0995 -0.0235  0.0211
30945W        W73883  28.438   0.694  21.337  0.0540  0.2970 -0.1296
30946W        W73884  29.525   2.202  23.726 -0.2832  0.2582 -0.3371
30947W        W73885  32.125  34.661  22.958  0.2225  0.1411 -0.1329
30948W        W73886  28.262   3.179  23.495  0.0987 -0.3096  0.1414
30949W        W73887  31.844   3.601  19.723  0.1854  0.0670  0.1739
30950W        W73888  29.126   1.564  22.469  0.2370 -0.3010 -0.1622
30951W        W73889  29.160   2.257  21.797 -0.1856  0.2219 -0.1694
30952W        W73890  33.041  34.615  22.640  0.2616 -0.0175  0.3489
30953W        W73891  31.489   2.994  20.171  0.1760 -0.0503 -0.0900
30954W        W73892  30.729   1.841  23.013  0.0545 -0.3275 -0.0359
30955W        W73893  30.734   4.013  20.218  0.1104 -0.1702 -0.0481
30956W        W73894  30.243   3.851  22.734 -0.1223  0.1636 -0.0376
30957W        W73895  30.566   2.255  20.578 -0.1723  0.0499 -0.0930
30958W        W73896  28.514   0.499  21.806  0.0065 -0.1060 -0.0065
30959W        W73897  32.247   1.894  21.685 -0.2061 -0.1287 -0.0962
30960W        W73898  30.704   2.128  23.555 -0.0620  0.0243  0.0435
30961W        W73899  30.670  34.692  22.191 -0.2125  0.1596 -0.0509
30962W        W73900  29.246   2.745  21.592 -0.3690  0.0963  0.1546
30963W        W73901  33.520   1.358  21.748 -0.3892  0.2482 -0.0045
30964W        W73902  31.726   3.139  23.575 -0.3218 -0.1026 -0.0106
30965W        W73903  29.064   1.265  23.501 -0.1637 -0.3670  0.2605
30966W        W73904  28.485   1.507  21.529 -0.2751 -0.0153  0.0330
30967W        W73905  32.092   1.856  23.457 -0.0108  0.2761  0.0133
30968W        W73906  33.527   2.082  19.812  0.0419  0.1199  0.0080
30969W        W73907  31.212   3.308  24.280 -0.3687 -0.1500  0.2015
30970W        W73908  30.230   2.726  22.176 -0.4652 -0.0548 -0.0125
30971W        W73909  30.236   0.410  20.933  0.2373  0.4468  0.2001
30972W        W73910  30.670   3.539  21.060  0.1678 -0.1618  0.1080
30973W        W73911  29.774   2.541  24.400  0.0608  0.0480  0.1817
30974W        W73912  30.394   2.211  23.114  0.3156  0.5316 -0.0297
30975W        W73913  29.417   0.518  20.464 -0.0388 -0.0455  0.0388
30976W        W73914  32.852   2.032  20.566  0.0229  0.0621 -0.0202
30977W        W73915  33.184   0.941  21.691  0.1162 -0.0408  0.0537
30978W        W73916  30.711   2.587  20.156  0.0153 -0.0940 -0.2260
30979W        W73917  31.398   3.021  21.892 -0.0179 -0.3778 -0.0908
30980W        W73918  31.621   1.655  21.887  0.0277  0.1374  0.0960
30981W        W73919  28.978   2.466  22.307  0.3372 -0.1429 -0.0528
30982W        W73920  32.458   3.772  23.805  0.2516  0.0600 -0.0424
30983W        W73921  30.406   2.054  21.933  0.1763  0.1339 -0.1031
30984W        W73922  31.981  33.980  21.421 -0.0652  0.1036 -0.0998
30985W        W73923  28.803   2.687  21.804  0.0522  0.2740  0.0610
30986W        W73924  28.284   2.811  21.267  0.4021 -0.1533 -0.2763
30987W        W73925   0.107   1.308  21.265  0.1332 -0.0876  0.1213
30988W        W73926  32.140  34.190  22.575  0.1007 -0.1049  0.3704
30989W        W73927  31.762   4.252  18.741  0.0256  0.0842 -0.1032
30990W        W73928  32.285   0.887  22.704 -0.0228  0.2720  0.1097
30991W        W73929  31.508   2.197  22.028  0.0804  0.3761 -0.1528
30992W        W73930  30.307   3.063  24.769 -0.1509  0.1754 -0.0857
30993W        W73931  28.020   2.947  21.833  0.3004 -0.1958  0.1250
30994W        W73932  30.018   2.341  21.872  0.1149  0.0857  0.4387
30995W        W73933  29.879   1.703  20.692  0.2759 -0.0472  0.1587
30996W        W73934  30.823   2.052  19.854  0.1138  0.0588  0.2684
30997W        W73935  31.496   2.560  21.596 -0.1321  0.0985 -0.0016
30998W        W73936  31.675   1.074  21.486  0.2261  0.3398 -0.2340
30999W        W73937  31.238   2.570  20.332  0.1441 -0.0835  0.2027
31000W        W73938  31.052   0.897  21.880  0.2876  0.1021  0.0241
31001W        W73939  33.022   1.483  20.518  0.1272  0.1166 -0.1913
31002W        W73940  32.379   0.413  20.979 -0.0073  0.2064 -0.1189
31003W        W73941  28.964   3.815  22.858  0.1365 -0.1472  0.3218
31004W        W73942  28.481   0.939  20.697 -0.0963  0.0905  0.1840
31005W        W73943  29.618   3.116  21.008  0.2739  0.0286 -0.0179
31006W        W73944  30.827   3.656  23.153  0.2834 -0.2850  0.0978
31007W        W73945  31.338  34.447  23.326  0.1104  0.2030 -0.1483
31008W        W73946  29.824   2.684  23.906 -0.0172 -0.2591  0.1919
31009W        W73947  29.098   3.133  20.995 -0.3451  0.0660 -0.0437
31010W        W73948  28.861   0.485  21.011  0.1515 -0.4001  0.0260
31011W        W73949  31.657   3.349  22.731  0.1675  0.3374 -0.0431
31012W        W73950  28.961   0.687  22.024 -0.2054  0.0969 -0.2513
31013W        W73951  27.955   0.760  21.185  0.0567  0.0007 -0.0451
31014W        W73952  33.156   3.529  19.692 -0.0271  0.2816  0.1547
31015W        W73953  32.611   0.654  21.570  0.0311  0.0984  0.2695
31016W        W73954  30.436   1.348  20.374 -0.1627  0.1550  0.3429
31017W        W73955  31.076   2.482  23.756  0.2960  0.2276 -0.1198
31018W        W73956  30.321   2.695  20.481 -0.0174  0.1762  0.0963
31019W        W73957  28.743  34.629  22.595 -0.0768  0.2226  0.1084
31020W        W73958  28.071   1.350  22.912 -0.1098 -0.1405 -0.0960
31021W        W73959  28.987   0.939  19.233 -0.1359 -0.0304 -0.3274
31022W        W73960  30.003   0.868  21.569  0.1502  0.2316 -0.1930
31023W        W73961  31.589   2.677  22.202  0.1719  0.1518  0.0967
31024W        W73962  31.468   4.478  20.808  0.1880  0.3317 -0.0569
31025W        W73963  31.738   1.976  22.882 -0.2486 -0.3371 -0.1708
31026W        W73964  30.342   3.842  23.792  0.0241  0.2327 -0.1015
31027W        W73965  27.940  33.940  22.904 -0.0647  0.0449  0.1626
31028W        W73966  31.634   1.682  20.856 -0.0700  0.0588 -0.2842
31029W        W73967  30.605   4.001  25.634  0.1407  0.1347  0.0441
31030W        W73968  31.421   3.947  20.599  0.0896  0.0832 -0.3908
31031W        W73969  33.179   0.865  22.237 -0.1382 -0.1449  0.1781
31032W        W73970  31.211   2.010  22.816  0.2182 -0.0830 -0.0255
31033W        W73971  29.840   2.175  22.879  0.1545  0.2860  0.0591
31034W        W73972  28.894   2.293  24.352  0.1327  0.1334 -0.1168
31035W        W73973  33.669   2.470  23.342  0.0918 -0.1886 -0.1393
31036W        W73974  29.269   0.891  20.864  0.0221 -0.1886  0.0006
31037W        W73975  31.434   2.214  21.221  0.1442  0.0795  0.1943
31038W        W73976  29.777   2.244  20.311  0.0868  0.0522  0.3029
31039W        W73977  29.094   1.981  22.160  0.0885 -0.1081  0.0346
31040W        W73978  30.194   0.567  21.910  0.1335 -0.0250 -0.2280
31041W        W73979  31.431   2.448  22.884  0.0492 -0.1685 -0.0085
31042W        W73980  30.882   3.849  22.159 -0.0267 -0.1174  0.0473
31043W        W73981  32.066   1.407  23.676  0.0990  0.0107  0.1693
31044W        W73982  29.298   2.187  20.691  0.0521 -0.0198  0.1969
31045W        W73983  34.020   3.329  19.673  0.4097 -0.0098 -0.0104
31046W        W73984  32.884   4.097  24.169 -0.1589  0.0598 -0.1054
31047W        W73985  32.706   3.907  25.144  0.1039 -0.3252 -0.1151
31048W        W73986  30.619   3.247  21.531  0.1656 -0.1046 -0.1694
31049W        W73987  31.679   1.177  21.985  0.3552 -0.1181  0.2476
31050W        W73988  29.066  34.391  22.296 -0.1294  0.5417 -0.4200
31051W        W73989  28.370   2.354  21.149 -0.1451 -0.0626 -0.2486
31052W        W73990  28.761   2.216  21.476 -0.0791  0.1149 -0.1988
31053W        W73991  30.155   0.836  22.541 -0.1107  0.1533 -0.0963
31054W        W73992  30.601   0.136  22.698  0.1457 -0.0777 -0.0896
31055W        W73993  31.823   0.156  21.223 -0.1405 -0.1824 -0.1481
31056W        W73994  28.467   4.529  22.068  0.0534  0.1378  0.1332
31057W        W73995  32.050   2.181  21.098 -0.0128  0.2666 -0.1571
31058W        W73996  31.011   1.285  26.489  0.1264 -0.1102 -0.1595
31059W        W73997  29.923   1.504  25.253 -0.2937  0.0180 -0.1222
31060W        W73998  31.437   0.387  22.538  0.0664  0.2820  0.1554
31061W        W73999  32.552   2.111  23.586 -0.0165 -0.2556  0.1067
31062W        W74000  28.132   0.304  25.416 -0.2128 -0.0604  0.0943
31063W        W74001  31.469   4.501  25.032 -0.3229  0.0872 -0.0622
31064W        W74002  30.195   0.668  26.631  0.2651  0.2592 -0.0909
31065W        W74003  31.391   2.267  26.206 -0.2337  0.0877  0.4815
31066W        W74004  32.981   3.099  26.600 -0.1923 -0.2120 -0.1676
31067W        W74005  30.751   1.562  23.610  0.2356  0.1100  0.0993
31068W        W74006  29.371   0.993  25.160 -0.2934 -0.1275 -0.1266
31069W        W74007  29.579   1.769  25.763 -0.0620  0.0566 -0.0372
31070W        W74008  29.526   0.373  22.980 -0.0314  0.2623 -0.3630
31071W        W74009  28.767   0.154  25.564 -0.2491  0.0510  0.3369
31072W        W74010  31.742   1.001  26.264 -0.0958 -0.1915 -0.0151
31073W        W74011  30.426   3.506  24.635  0.2382  0.0138  0.3549
31074W        W74012  29.063   0.819  26.643  0.2373  0.0797  0.2248
31075W        W74013  29.828   1.811  24.888  0.1254 -0.1014  0.1334
31076W        W74014  30.580   2.578  24.678 -0.0613  0.3818 -0.1848
31077W        W74015  28.522   0.305  27.341 -0.0423 -0.0620  0.1461
31078W        W74016  30.628   0.932  27.795  0.0233 -0.1206  0.0093
31079W        W74017  30.691   3.176  25.717 -0.4365 -0.1257  0.0242
31080W        W74018  30.193   2.684  23.497 -0.1293 -0.2758 -0.0294
31081W        W74019  29.186   1.730  26.997  0.0343 -0.1738  0.1268
31082W        W74020  29.995   1.435  25.780  0.0909  0.1345 -0.0744
31083W        W74021  32.246   1.221  26.204 -0.3056 -0.1637 -0.1163
31084W        W74022  31.686   1.898  26.101  0.0368  0.1220 -0.1596
31085W        W74023  33.005   3.048  25.507  0.1457  0.2396 -0.0882
31086W        W74024  31.388   3.250  25.444  0.0292  0.2356  0.1223
31087W        W74025  31.601   1.175  27.724  0.0669  0.1308 -0.0997
31088W        W74026  29.081   2.452  25.025 -0.3477 -0.2375 -0.1442
31089W        W74027  27.310   4.501  26.632 -0.1212  0.1382  0.0054
31090W        W74028  30.556   2.474  26.646 -0.1075 -0.1226 -0.0760
31091W        W74029  33.221   2.619  25.601 -0.2874 -0.0045  0.3621
31092W        W74030  32.411   1.919  25.979 -0.0979  0.2932  0.1410
31093W        W74031  31.988   3.721  26.942 -0.1931  0.0610 -0.2292
31094W        W74032  28.976   3.309  22.676  0.1895 -0.0376 -0.1410
31095W        W74033  31.676   3.000  26.537 -0.0810  0.0401  0.2102
31096W        W74034  29.532   3.069  26.323  0.3390  0.2142 -0.2295
31097W        W74035  30.383   2.020  26.246  0.0371 -0.2118 -0.4070
31098W        W74036  32.383   2.962  25.368 -0.1277  0.0692 -0.1025
31099W        W74037  31.402   2.579  25.269 -0.1451  0.2097 -0.0746
31100W        W74038  29.869   2.754  26.258 -0.1352 -0.3012  0.0072
31101W        W74039  29.679   2.095  28.050 -0.0208  0.0208 -0.1382
31102W        W74040  29.606   3.579  26.816 -0.0473 -0.3350 -0.2479
31103W        W74041  33.252   1.746  27.270 -0.1435  0.1564  0.1827
31104W        W74042  29.033   3.479  23.938 -0.0826 -0.0246 -0.1736
31105W        W74043  31.785   0.659  24.831  0.0669 -0.0874 -0.2342
31106W        W74044  29.112   0.688  23.593 -0.3167 -0.0707  0.0854
31107W        W74045  32.229   1.189  23.272  0.0575 -0.1650 -0.0535
31108W        W74046  32.491  33.807  25.215 -0.0376  0.0445 -0.2022
31109W        W74047  29.250   3.967  27.608  0.2834 -0.1286  0.0104
31110W        W74048  30.492   1.044  25.524 -0.1753 -0.2444 -0.0838
31111W        W74049  33.111   1.482  26.243 -0.1745 -0.1739  0.0270
31112W        W74050  32.121   2.482  25.506 -0.0235 -0.4602 -0.1480
31113W        W74051  31.399   1.144  25.609  0.0221 -0.0090 -0.1750
31114W        W74052  30.478   2.023  26.784 -0.0131 -0.0614  0.0894
31115W        W74053  28.146   2.355  24.987 -0.1845 -0.1489 -0.1368
31116W        W74054  30.741   3.058  23.084 -0.2287 -0.1149 -0.0852
31117W        W74055  34.219   1.743  25.214  0.0978 -0.4734  0.1761
31118W        W74056  31.737   4.226  25.484  0.0634  0.0983 -0.3839
31119W        W74057  28.251   2.098  25.807  0.3350  0.0553 -0.0849
31120W        W74058  29.308   1.035  28.291  0.1357 -0.3120 -0.0263
31121W        W74059  29.121   1.277  28.738 -0.1000 -0.1905  0.1040
31122W        W74060  28.049   0.465  22.882  0.1108 -0.2044  0.0079
31123W        W74061  32.019   2.054  28.100 -0.0886 -0.0004  0.0997
31124W        W74062  29.311   3.243  27.717 -0.1169 -0.3398 -0.0986
31125W        W74063  31.806   1.167  25.010  0.5310  0.1240  0.1890
31126W        W74064  29.511   2.565  25.985 -0.0338 -0.0677 -0.0407
31127W        W74065  32.120   2.644  26.464  0.2662 -0.3666 -0.1557
31128W        W74066  31.472   2.372  24.796 -0.0212  0.0076 -0.1309
31129W        W74067  32.007  33.388  26.919 -0.0306 -0.0287  0.3161
31130W        W74068  31.806  34.677  26.432 -0.2580  0.0375 -0.0266
31131W        W74069  30.292   2.538  25.607 -0.1660  0.0417 -0.0853
31132W        W74070  29.629   2.897  25.287  0.2436 -0.2177  0.0716
31133W        W74071  31.702   3.496  25.955 -0.2074 -0.0140 -0.0896
31134W        W74072  30.250   1.112  22.074  0.2393  0.1035  0.4470
31135W        W74073  31.215   3.371  27.177 -0.0351 -0.2254  0.2427
31136W        W74074  30.581   0.198  26.566 -0.0071 -0.2004  0.2322
31137W        W74075  32.849   3.574  26.838  0.1216 -0.0532 -0.1215
31138W        W74076  30.146   3.886  25.245 -0.0287 -0.1684  0.0960
31139W        W74077  29.815   2.996  26.850 -0.1843 -0.0132 -0.0713
31140W        W74078  30.242   0.814  23.967 -0.2052 -0.2263  0.2389
31141W        W74079  28.410   1.635  25.714  0.1920  0.0474  0.2385
31142W        W74080  30.044   2.531  26.680 -0.0618 -0.0320  0.1432
31143W        W74081  31.672   0.313  25.176 -0.2738 -0.0308 -0.2518
31144W        W74082  29.600  34.609  25.818 -0.1151 -0.0596  0.0435
31145W        W74083  33.098   2.037  26.423  0.0066  0.1444  0.1356
31146W        W74084  29.563   3.906  25.903 -0.2725  0.0352  0.0561
31147W        W74085  31.914   3.669  24.727 -0.0253  0.1729 -0.0766
31148W        W74086  32.308   1.809  24.440  0.1053 -0.0646 -0.1566
31149W        W74087  30.865   2.394  22.776  0.0182  0.4996  0.1966
31150W        W74088  30.627   3.514  27.594 -0.1061 -0.1741 -0.2434
31151W        W74089  30.770   0.973  24.744  0.0964 -0.0035 -0.2012
31152W        W74090  30.761  33.878  27.109  0.0234  0.1816  0.3111
31153W        W74091  29.855  34.374  24.614 -0.2786  0.0387  0.1347
31154W        W74092  32.885   1.413  27.071 -0.1182 -0.2633 -0.3186
31155W        W74093  28.244   0.885  23.089 -0.0943  0.3280 -0.0580
31156W        W74094  31.101   0.117  25.120 -0.3108 -0.1166 -0.3315
31157W        W74095  30.945   1.763  24.899  0.1626 -0.2018 -0.1547
31158W        W74096  29.032   3.830  25.681 -0.1297  0.1216  0.1188
31159W        W74097  31.565   0.514  26.714  0.1787 -0.0306  0.3384
31160W        W74098  31.409   3.873  24.555 -0.0601  0.0470  0.0183
31161W        W74099  33.013   2.682  27.013  0.0533  0.0384 -0.0214
31162W        W74100  33.290   3.472  26.065 -0.1000  0.2356 -0.0661
31163W        W74101  29.329   1.530  26.136  0.2451  0.0418  0.0225
31164W        W74102  30.413   1.714  22.673  0.0081  0.2132  0.3188
31165W        W74103  30.315   3.833  27.357  0.1690 -0.2408  0.0306
31166W        W74104  30.299   2.505  26.189  0.0525 -0.0957  0.0905
31167W        W74105  30.090   1.400  24.132 -0.0755 -0.1876 -0.3275
31168W        W74106  32.490   4.010  26.016 -0.0964 -0.0520 -0.1132
31169W        W74107  31.003   2.607  24.919  0.2523 -0.1382 -0.2460
31170W        W74108  29.453   2.578  26.982 -0.0866  0.1226 -0.1083
31171W        W74109  31.211   0.848  28.046 -0.1524 -0.0010 -0.0171
31172W        W74110  32.654   2.754  25.878  0.3433 -0.1364  0.0509
31173W        W74111  32.652   0.077  25.519  0.2250  0.1502  0.0161
31174W        W74112  29.436   2.318  22.491  0.2207  0.0296 -0.1403
31175W        W74113  32.384   4.804  25.703  0.2567 -0.0289  0.0498
31176W        W74114  29.041   3.186  24.352 -0.0800 -0.0265  0.1519
31177W        W74115  27.887   2.222  23.629  0.1760  0.1012 -0.2970
31178W        W74116  31.182   3.979  26.298 -0.6490 -0.0851  0.0681
31179W        W74117  32.559   0.892  24.848 -0.2434  0.3567 -0.3312
31180W        W74118  29.970   1.274  28.184 -0.0902 -0.0495  0.0792
31181W        W74119  32.597   1.004  26.644  0.0901 -0.1259 -0.2558
31182W        W74120  29.395   1.367  23.854 -0.2616 -0.1223 -0.1303
31183W        W74121  30.447   1.751  27.401  0.1365  0.0952  0.0422
31184W        W74122  30.902   0.409  24.008 -0.1499  0.0664 -0.0584
31185W        W74123  31.487   0.737  22.152 -0.3657 -0.2347 -0.0267
31186W        W74124  31.468   2.038  26.623  0.1667 -0.1602 -0.2969
31187W        W74125  32.177   2.307  25.002 -0.2185  0.1618  0.2618
31188W        W74126  31.379   2.351  24.257  0.1959 -0.1492  0.0623
31189W        W74127  30.886   1.014  23.858  0.2339  0.2200  0.1216
31190W        W74128  29.051   2.707  27.876  0.1464  0.2856 -0.1330
31191W        W74129  29.390   3.655  24.700  0.0720  0.1682 -0.1847
31192W        W74130  31.000   0.836  25.860  0.1576  0.1098 -0.2006
31193W        W74131  30.049   1.374  24.717  0.0735 -0.0921 -0.0577
31194W        W74132  33.147   3.311  24.505  0.1495 -0.0288  0.1227
31195W        W74133  29.812   2.297  27.476  0.0031  0.1757 -0.0570
31196W        W74134  31.319   1.317  28.184  0.0812 -0.2652 -0.2602
31197W        W74135  31.814   2.695  25.034 -0.0632 -0.1213  0.1309
31198W        W74136  30.915  33.887  25.727 -0.1422 -0.3394  0.0552
31199W        W74137  30.330   0.601  23.101 -0.1967 -0.1067  0.1515
31200W        W74138  30.050   0.798  25.368 -0.2153  0.2597 -0.0420
31201W        W74139  29.733   3.474  25.474  0.2883  0.2294 -0.0083
31202W        W74140  32.780   0.069  26.235  0.0758  0.1029 -0.1237
31203W        W74141  30.582   0.043  26.023 -0.0005  0.0049  0.0893
31204W        W74142  29.863   0.189  27.343 -0.3145  0.3110  0.0610
31205W        W74143  32.134   1.260  27.626 -0.1572 -0.1316 -0.0687
31206W        W74144  31.769   1.440  25.978  0.2416 -0.2938 -0.0147
31207W        W74145  30.297   0.857  27.188 -0.0785 -0.0479 -0.3752
31208W        W74146  30.123   1.890  24.426  0.1933 -0.0255  0.1938
31209W        W74147  29.984   1.163  26.771 -0.0837  0.1052  0.2329
31210W        W74148  29.744   1.167  27.289  0.2269 -0.1202 -0.1641
31211W        W74149  28.974   3.490  28.025  0.0643  0.0163 -0.3126
31212W        W74150  32.011   2.076  27.494  0.2975  0.0076 -0.0748
31213W        W74151  32.436   3.412  25.160 -0.0537  0.1792  0.2513
31214W        W74152  30.079   0.089  25.998 -0.1908  0.1421 -0.2694
31215W        W74153  31.111  34.618  23.867  0.4012  0.1454 -0.4063
31216W        W74154  29.826   3.245  23.860  0.0213  0.0640  0.0531
31217W        W74155  30.628   3.395  23.605  0.0449 -0.0282  0.0546
31218W        W74156  31.007   1.029  26.890  0.0627 -0.1123  0.0245
31219W        W74157  30.817   3.134  26.318  0.0700  0.3039 -0.0276
31220W        W74158  30.179   3.227  23.497 -0.1395 -0.2600 -0.1613
31221W        W74159  32.492   2.686  26.835  0.2495 -0.2384 -0.2585
31222W        W74160  31.274   3.745  25.260 -0.0670  0.1129 -0.0397
31223W        W74161  32.157   0.869  25.190 -0.4082 -0.0494 -0.0001
31224W        W74162  30.037   3.308  26.472  0.2265 -0.0256  0.0487
31225W        W74163  30.606   1.733  24.545  0.0930  0.1458  0.0827
31226W        W74164  28.566   1.660  24.606  0.4179 -0.3296  0.0286
31227W        W74165  32.705   1.747  26.441 -0.1521  0.3521 -0.1900
31228W        W74166  33.161   2.306  24.649 -0.0910  0.2032 -0.0187
31229W        W74167  29.249   0.317  25.753 -0.2136  0.1107 -0.2287
31230W        W74168  31.399   0.224  26.310  0.1670 -0.1952  0.0708
31231W        W74169  29.881   2.208  26.133  0.0240 -0.0449  0.0715
31232W        W74170  31.881   1.203  27.184 -0.5276  0.0945 -0.0758
31233W        W74171  32.209   1.400  24.213 -0.2082  0.2681  0.3198
31234W        W74172  32.224   3.599  26.061 -0.0310 -0.0185  0.0796
31235W        W74173  30.702   0.450  27.505 -0.0322  0.2476 -0.2497
31236W        W74174  28.039   0.408  24.262 -0.3707  0.0088  0.1300
31237W        W74175  33.554   1.540  27.636 -0.3472  0.2740 -0.1763
31238W        W74176  31.010   1.370  24.537 -0.0893  0.0113  0.0355
31239W        W74177  30.469   3.406  26.070  0.2658  0.1105  0.1492
31240W        W74178  30.826   2.274  26.254 -0.0153 -0.1636  0.2027
31241W        W74179  30.503   2.196  24.301 -0.1322  0.3136  0.0051
31242W        W74180  30.265   2.925  25.947  0.1140 -0.2846  0.1659
31243W        W74181  30.258   0.311  27.041 -0.0462 -0.0353  0.0835
31244W        W74182  33.655   2.792  25.943 -0.2071 -0.1993 -0.2010
31245W        W74183  28.923   0.757  24.377 -0.1777 -0.0627 -0.0387
31246W        W74184  30.970   0.816  23.048  0.0725 -0.1324  0.2830
31247W        W74185  28.767   1.258  24.435  0.2082  0.3197 -0.1226
31248W        W74186  31.472   2.951  27.041 -0.1424  0.0404  0.1397
31249W        W74187  31.870   0.368  27.222 -0.0387 -0.1712 -0.1530
31250W        W74188  30.170   3.292  28.395 -0.1819 -0.1618 -0.1014
31251W        W74189  30.952  34.320  26.039  0.2091  0.1017 -0.1035
31252W        W74190  32.772   3.591  24.279  0.0207 -0.1129  0.0722
31253W        W74191  32.444   1.469  26.780 -0.2095 -0.0155 -0.3940
31254W        W74192  29.532   2.975  24.300  0.0258  0.0074  0.3605
31255W        W74193  28.822   2.064  26.054 -0.0384  0.2701  0.0954
31256W        W74194  29.933   1.652  22.953  0.1531 -0.0895 -0.2434
31257W        W74195  30.613  33.959  27.990 -0.1237 -0.2220  0.0341
31258W        W74196  30.298   4.118  26.847 -0.0740 -0.2515  0.0692
31259W        W74197  30.336   3.539  25.596  0.0689 -0.0748 -0.1623
31260W        W74198  28.969   2.908  25.154  0.0109 -0.3423  0.0677
31261W        W74199  31.734  34.389  23.036  0.1738  0.5589  0.1897
31262W        W74200  29.583   3.229  23.327 -0.1062 -0.2086 -0.0263
31263W        W74201  31.359   1.818  24.609 -0.1067  0.1736 -0.0855
31264W        W74202  31.933   1.647  26.453  0.0361 -0.0769 -0.1039
31265W        W74203  32.084   1.982  25.570 -0.0970 -0.1594 -0.1877
31266W        W74204  32.003  34.485  28.072  0.2282 -0.0622  0.2675
31267W        W74205  29.064   1.174  27.722  0.0360  0.0795  0.4002
31268W        W74206  32.657   1.489  25.998  0.3509  0.0550 -0.1969
31269W        W74207  30.733   0.824  26.417  0.1789 -0.0752  0.0593
31270W        W74208  31.493   3.978  26.666 -0.0201 -0.1267  0.1176
31271W        W74209  29.028   2.190  29.872 -0.0621  0.3346 -0.1653
31272W        W74210  30.909   1.316  25.629  0.3258  0.0941  0.0302
31273W        W74211  28.552   1.339  23.580  0.1748  0.0750 -0.2432
31274W        W74212  31.296   2.638  25.785 -0.1435  0.1521  0.0439
31275W        W74213  32.567   2.219  25.677  0.2011  0.1624 -0.1954
31276W        W74214  31.766   3.160  24.665 -0.2793 -0.2348  0.0116
31277W        W74215  32.594   1.663  25.495  0.0958 -0.1923 -0.0871
31278W        W74216  31.582   3.428  26.865  0.2011  0.0237  0.1374
31279W        W74217  31.341   0.836  24.001  0.0977 -0.3758  0.1469
31280W        W74218  31.931   2.088  24.335  0.0803 -0.0378  0.4589
31281W        W74219  29.540   2.013  25.308 -0.3253 -0.1669 -0.0006
31282W        W74220  30.445   1.317  28.538  0.0644  0.1733 -0.1525
31283W        W74221  31.024   0.878  25.282 -0.0075  0.2010  0.0414
31284W        W74222  31.278   0.731  24.860 -0.0248  0.0404  0.4709
31285W        W74223  30.976  34.564  26.419 -0.3399  0.2374  0.0017
31286W        W74224  33.523   0.712  26.834  0.0896 -0.1176 -0.0554
31287W        W74225  30.046   1.640  26.249 -0.2020 -0.2135  0.3925
31288W        W74226  30.443   1.441  27.980 -0.2113 -0.1723  0.0513
31289W        W74227  32.806   2.834  27.500  0.2714  0.0066 -0.1780
31290W        W74228  31.165   0.305  22.084 -0.3160  0.1026  0.1959
31291W        W74229  32.141  32.929  26.189 -0.1053 -0.0779 -0.5012
31292W        W74230  32.597   2.702  23.802  0.3987 -0.0345  0.1358
31293W        W74231  31.758   2.216  25.256  0.2528  0.1660 -0.2286
31294W        W74232  28.910   1.568  23.931  0.2499 -0.0876  0.2086
31295W        W74233  31.116   2.107  28.162  0.2016  0.1823 -0.0621
31296W        W74234  30.379   1.679  24.985 -0.0765 -0.0973  0.0292
31297W        W74235  31.854   0.445  26.262  0.2499  0.0125 -0.0793
31298W        W74236  29.768   2.947  24.751  0.0459 -0.3002  0.1048
31299W        W74237  31.753   2.807  25.594  0.1112 -0.2870  0.2253
31300W        W74238  30.962   2.168  24.601 -0.0611  0.0172  0.1653
31301W        W74239  29.114   0.518  25.307 -0.1858  0.0469  0.0943
31302W        W74240  31.006   2.199  29.326 -0.0436 -0.0031  0.1966
31303W        W74241  29.649   1.648  24.416  0.0943 -0.2570  0.0129
31304W        W74242  31.204   2.139  25.150 -0.2339  0.0097 -0.2569
31305W        W74243  31.733   3.667  25.393  0.3120  0.1712 -0.0851
31306W        W74244  31.850   3.735  28.431  0.1764  0.1623  0.0524
31307W        W74245  31.439   0.258  24.650  0.0916 -0.0560  0.0376
31308W        W74246  32.469   1.086  25.667  0.0744  0.1171  0.1083
31309W        W74247  28.493   3.902  24.870 -0.2063  0.2032 -0.2602
31310W        W74248  30.677   1.224  26.057 -0.0848  0.0745  0.1614
31311W        W74249  31.003   4.692  26.738 -0.0465  0.0333 -0.1024
31312W        W74250  30.358   2.892  26.467 -0.1056 -0.1370 -0.1642
31313W        W74251  31.141   2.166  25.733 -0.0476  0.1906 -0.1813
31314W        W74252  31.888  34.575  27.185  0.1865 -0.2889  0.1004
31315W        W74253  33.029   2.421  26.064  0.1544  0.0283 -0.1765
31316W        W74254  30.698   2.333  27.155  0.1906 -0.2630  0.1393
31317W        W74255  32.565   0.638  27.019  0.1589  0.1408 -0.0643
31318W        W74256  30.642   2.703  27.585  0.3751  0.1541  0.1813
31319W        W74257  29.831   2.431  25.579 -0.5514  0.2130  0.2300
31320W        W74258  29.868   1.759  27.398 -0.1835  0.1603 -0.1173
31321W        W74259  31.292   1.650  25.470  0.1074  0.0676  0.2848
31322W        W74260  30.784   1.900  25.380 -0.2938  0.1927 -0.1225
31323W        W74261  29.680   1.542  26.951  0.3456  0.3707 -0.2059
31324W        W74262  31.893   1.017  25.682 -0.1096 -0.0542 -0.3042
31325W        W74263  31.412   2.980  24.999  0.2233  0.0136 -0.1549
31326W        W74264  29.695   1.171  24.287  0.0901  0.0074 -0.1528
31327W        W74265  30.239   2.739  24.377 -0.0422 -0.0223 -0.0252
31328W        W74266  31.520   2.311  28.016  0.2395  0.1768 -0.1087
31329W        W74267  30.471   1.673  25.915  0.0003 -0.1323  0.2942
31330W        W74268  29.554   4.377  26.215  0.0892 -0.0640  0.0500
31331W        W74269  33.029   2.156  23.781  0.1090 -0.2148 -0.1738
31332W        W74270  31.271   1.241  25.045  0.1046  0.0606 -0.0550
31333W        W74271  32.653   4.073  28.194  0.3618  0.0795  0.1375
31334W        W74272  30.124   2.255  23.872 -0.1915 -0.2612 -0.0264
31335W        W74273  30.916   2.928  26.949  0.2183 -0.0365  0.1790
31336W        W74274  30.166   3.078  25.465  0.4982  0.2792 -0.1469
31337W        W74275  31.903   3.186  25.150 -0.0187 -0.2397 -0.0290
31338W        W74276  30.436   3.247  26.801 -0.0973  0.1072  0.0372
31339W        W74277  33.389   1.996  29.052  0.3960  0.4587 -0.0328
31340W        W74278  32.240   1.835  23.915 -0.1078 -0.0590  0.0541
31341W        W74279  33.008   1.886  24.834  0.0930  0.2560  0.0899
31342W        W74280  31.544   1.107  24.556  0.0113  0.0186  0.2333
31343W        W74281  32.151   2.928  25.814 -0.0601  0.2129  0.1251
31344W        W74282  29.779   2.931  25.763 -0.0225  0.2081  0.0049
31345W        W74283  30.511   1.209  22.464 -0.2975  0.0737 -0.1913
31346W        W74284  30.308   0.502  27.776 -0.0778  0.1864  0.3467
31347W        W74285  31.547   0.136  28.144 -0.1934 -0.0700 -0.0094
31348W        W74286  29.494   3.486  28.681  0.0407  0.1649 -0.3074
31349W        W74287  32.311   4.260  25.450  0.1640  0.3115  0.1339
31350W        W74288  28.495   1.110  25.716 -0.1028 -0.0443  0.2547
31351W        W74289  29.277   2.333  25.565 -0.0477 -0.3543 -0.0530
31352W        W74290  31.648  34.191  26.979 -0.3584  0.2510 -0.0961
31353W        W74291  30.884   1.606  24.091 -0.0189 -0.2529 -0.0988
31354W        W74292  31.473   0.034  26.914  0.0898 -0.3239 -0.0140
31355W        W74293  31.252   3.087  26.020  0.1176  0.1251 -0.0300
31356W        W74294  31.846   2.804  27.282  0.2018 -0.0975 -0.2767
31357W        W74295  31.735   2.770  26.057 -0.0300 -0.1185  0.0390
31358W        W74296  28.031   0.970  24.879 -0.0894 -0.0077  0.0354
31359W        W74297  32.725   2.613  25.405 -0.0808  0.1997  0.0820
31360W        W74298  29.070   1.286  25.723 -0.0350  0.1358 -0.1443
31361W        W74299  33.042   0.308  25.013  0.2195  0.1110 -0.0926
31362W        W74300  28.741   2.784  24.747 -0.1017  0.3058  0.2460
31363W        W74301  30.265  34.609  25.412 -0.1603 -0.3046 -0.1477
31364W        W74302  31.248   1.520  26.858  0.1661 -0.1403 -0.0768
31365W        W74303  29.096   1.857  25.721 -0.0628 -0.0744 -0.0348
31366W        W74304  30.551   2.109  24.957  0.0617  0.0515 -0.0506
31367W        W74305  32.141   2.476  26.006  0.2548 -0.2495  0.0007
31368W        W74306  30.103   2.022  25.221 -0.0543  0.2087  0.2063
31369W        W74307  34.111   4.524  27.298 -0.1049  0.1409  0.0089
31370W        W74308  29.521   1.409  24.935 -0.0509  0.1374 -0.2883
31371W        W74309  31.280   1.328  24.137 -0.1988  0.2089  0.1272
31372W        W74310  28.445   1.740  26.264 -0.2723  0.4375  0.0676
31373W        W74311  30.528   1.113  26.780  0.0543 -0.2170  0.1413
31374W        W74312  31.565   3.848  27.282 -0.3193 -0.1039  0.0224
31375W        W74313  29.056   0.797  25.757 -0.1023 -0.1182  0.1208
31376W        W74314  31.725   1.565  24.205  0.0952 -0.1249  0.1894
31377W        W74315  33.159   1.443  25.725 -0.2926  0.0175 -0.0751
31378W        W74316  30.801   3.099  24.678  0.0691  0.0791 -0.0346
31379W        W74317  31.588   1.751  25.048  0.4980 -0.0144 -0.2213
31380W        W74318  31.505   3.492  24.938 -0.1069  0.0028 -0.0700
31381W        W74319  28.532   0.673  23.938  0.1807  0.1550 -0.0109
31382W        W74320  31.878   3.553  26.465  0.0760 -0.0597  0.0318
31383W        W74321  32.129   3.859  25.116  0.0312 -0.0740  0.1671
31384W        W74322  31.680   0.659  24.325 -0.0616  0.3971  0.1408
31385W        W74323  30.292   0.347  25.233  0.1151 -0.0468 -0.0482
31386W        W74324  28.557   3.987  25.426 -0.1970  0.4426 -0.1822
31387W        W74325  32.546   1.684  24.857  0.2151 -0.0406  0.1809
31388W        W74326  30.378   0.583  26.157 -0.1909  0.1956 -0.1340
31389W        W74327  31.767   2.778  22.695  0.1378 -0.0494  0.0137
31390W        W74328  32.293  32.363  26.945 -0.0956  0.0417  0.1439
31391W        W74329  31.075   2.492  26.755  0.2009  0.0966 -0.3101
31392W        W74330  30.968   3.724  28.049  0.0999 -0.0579  0.1132
31393W        W74331  29.845   3.148  22.751  0.0869  0.4889  0.0860
31394W        W74332  30.157   1.645  26.804  0.1003 -0.0802  0.1479
31395W        W74333  30.084   1.988  25.769 -0.1481  0.0323  0.4015
31396W        W74334  30.309   3.706  26.625  0.2176  0.1451  0.1752
31397W        W74335  33.472   2.637  25.168  0.2170  0.0434  0.1182
31398W        W74336  32.267   1.323  25.256 -0.0600  0.0237 -0.3568
31399W        W74337  32.361   3.320  24.685  0.3994 -0.1769  0.0238
31400W        W74338  30.413   1.537  25.436 -0.1212  0.1342  0.0094
31401W        W74339  32.623  34.099  24.811  0.2277  0.0306  0.2531
31402W        W74340  31.563  34.092  23.595 -0.3281 -0.2724 -0.0453
31403W        W74341  30.656   0.046  28.075  0.0840  0.3610  0.1245
31404W        W74342  29.057   2.737  23.461 -0.1152 -0.1523 -0.1742
31405W        W74343  30.556   2.790  25.215  0.1810 -0.0394 -0.6897
31406W        W74344  28.670   2.223  25.635 -0.1218 -0.1250 -0.0640
31407W        W74345  31.109   0.782  27.502  0.0877 -0.1487  0.2564
31408W        W74346  30.104   0.983  28.738  0.1007  0.0408 -0.1166
31409W        W74347  30.305   1.011  24.990  0.1777 -0.2568  0.3382
31410W        W74348  29.228   2.646  24.551 -0.1122 -0.1325 -0.4965
31411W        W74349  32.880   2.987  23.505  0.0856  0.0633  0.0162
31412W        W74350  30.089   0.981  25.894 -0.0592 -0.0518  0.1447
31413W        W74351  29.138   1.326  26.553  0.0821  0.1816  0.1179
31414W        W74352  30.838   3.083  24.091 -0.0683 -0.1494  0.0851
31415W        W74353  32.299   2.818  24.869  0.2327  0.4536 -0.0616
31416W        W74354  29.876   0.288  25.574  0.2071  0.2738 -0.4060
31417W        W74355  32.155   3.152  26.282 -0.1483  0.1114  0.0462
31418W        W74356  28.725   3.508  25.177 -0.2091  0.1228  0.1515
31419W        W74357  29.625   1.534  27.825 -0.4327 -0.2363  0.2449
31420W        W74358  29.109   0.378  27.573  0.1126 -0.1813 -0.2265
31421W        W74359  28.289   0.501  23.383  0.2266 -0.0668  0.3477
31422W        W74360  30.551   2.203  25.829  0.2244 -0.1075  0.0481
31423W        W74361  32.878   3.494  24.836 -0.1314 -0.2537 -0.2813
31424W        W74362  32.195   3.618  24.284  0.2715  0.0126 -0.0581
31425W        W74363  32.076   2.940  26.859  0.1948 -0.0771  0.2303
31426W        W74364  32.748   3.200  28.491  0.2204  0.1158 -0.0543
31427W        W74365  30.100   0.138  26.516 -0.1523 -0.1695  0.0096
31428W        W74366  30.900   2.467  25.431 -0.0548  0.0715 -0.2602
31429W        W74367  30.110   0.979  27.746 -0.1846  0.0914 -0.2000
31430W        W74368  33.750   3.785  24.277  0.0414  0.0234  0.0261
31431W        W74369  33.214   1.125  26.694  0.1922 -0.0893  0.0416
31432W        W74370  32.094   1.809  25.073  0.3560 -0.0662  0.2856
31433W        W74371  29.252   1.048  26.128 -0.2597  0.0700 -0.1239
31434W        W74372  29.378   1.736  28.743  0.0042  0.4934 -0.4000
31435W        W74373  31.452   2.217  27.127 -0.2594  0.0931 -0.1769
31436W        W74374  30.417   0.266  23.994 -0.2256 -0.2218  0.3606
31437W        W74375  31.958   0.085  24.786 -0.1576 -0.1256  0.2762
31438W        W74376  31.792   4.649  25.681  0.2599  0.1885  0.2663
31439W        W74377  29.560   1.189  25.654 -0.1309  0.1255 -0.4886
31440W        W74378  30.034   1.157  22.867 -0.1579 -0.3317  0.1281
31441W        W74379  31.732   1.565  29.141  0.2727 -0.0188 -0.1155
31442W        W74380  31.364   2.814  24.505 -0.2014 -0.0066 -0.0678
31443W        W74381  31.969   2.178  26.419  0.1859  0.2679 -0.1898
31444W        W74382  30.393   1.760  23.994  0.0871  0.1144  0.2563
31445W        W74383  33.005   2.444  24.195 -0.0943  0.4170 -0.0591
31446W        W74384  32.729   3.041  24.987  0.0576  0.0095 -0.0225
31447W        W74385  32.721   3.588  28.167 -0.0673  0.1546 -0.0537
31448W        W74386  31.188   2.724  27.453  0.0367  0.0160  0.3027
31449W        W74387  32.991   1.958  25.820  0.0738  0.0820  0.1445
31450W        W74388  29.440  34.136  26.179  0.2461  0.0994  0.2278
31451W        W74389  29.239   3.180  24.782  0.2942  0.1728  0.0139
31452W        W74390  30.739   0.509  24.918 -0.0603  0.0381  0.2673
31453W        W74391  31.263   0.837  26.415  0.2316  0.3266  0.0428
31454W        W74392  29.533   0.940  26.767 -0.4779  0.1590  0.1724
31455W        W74393  32.109   0.760  23.431 -0.1707 -0.0040  0.2338
31456W        W74394  31.534   3.179  27.525  0.3717  0.2826 -0.1680
31457W        W74395  30.046   2.680  25.113 -0.1911 -0.1405 -0.0942
31458W        W74396  30.798   3.291  30.406  0.2561  0.2820 -0.0942
31459W        W74397  30.014   1.913  29.151  0.1120 -0.3342 -0.0027
31460W        W74398  31.452   0.775  27.143  0.1804 -0.0573  0.3982
31461W        W74399  30.600   1.934  28.307  0.0795 -0.2139  0.0150
31462W        W74400  30.201   2.149  28.034  0.2491 -0.0373 -0.1640
31463W        W74401  31.947   3.956  28.880 -0.0431  0.1918  0.0790
31464W        W74402  30.223   0.951  30.526 -0.1672  0.0624  0.3183
31465W        W74403  30.324   1.750  29.652  0.0440  0.0306 -0.2059
31466W        W74404  33.208   3.331  29.484 -0.0089 -0.0363 -0.1358
31467W        W74405  30.761   1.543  26.928 -0.2644 -0.3268  0.1910
31468W        W74406  29.536   1.536  30.332 -0.3040  0.0636  0.0066
31469W        W74407  31.811   4.063  29.796 -0.1707 -0.0598 -0.2414
31470W        W74408  29.637   0.137  27.791 -0.1933 -0.0646  0.0605
31471W        W74409  30.617  33.253  29.019 -0.0421 -0.4947  0.0548
31472W        W74410  32.572   2.048  29.980  0.0693 -0.1336 -0.0626
31473W        W74411  29.292   2.250  28.560  0.0831  0.1383 -0.0766
31474W        W74412  31.578   1.181  31.363  0.0081  0.2556 -0.2139
31475W        W74413  29.179  34.190  29.415 -0.0807  0.0961  0.1001
31476W        W74414  30.801   4.310  29.138  0.2249  0.0319  0.0461
31477W        W74415  31.745   0.002  30.446  0.0433 -0.2065  0.1945
31478W        W74416  31.394   0.391  30.423 -0.0490  0.0028 -0.0881
31479W        W74417  31.205   3.427  29.077  0.1554 -0.1622  0.3145
31480W        W74418  29.444  33.885  29.046 -0.0666  0.4176 -0.1556
31481W        W74419  29.068   1.775  31.733 -0.0528  0.1571  0.2846
31482W        W74420  31.572   2.319  30.701 -0.3574 -0.3132 -0.0110
31483W        W74421  32.533   1.467  30.762  0.3449  0.1148  0.3451
31484W        W74422  31.121   3.057  28.717  0.1569  0.3722 -0.1454
31485W        W74423  31.073   2.904  29.249 -0.1468 -0.1428  0.0963
31486W        W74424  32.122   3.091  29.689 -0.1957  0.2296  0.2394
31487W        W74425  33.152   0.310  30.268 -0.1889 -0.0260  0.5250
31488W        W74426  30.197   4.130  28.421 -0.1447  0.4444 -0.1543
31489W        W74427  27.902   4.269  29.204 -0.0253 -0.1728 -0.2579
31490W        W74428  31.441   3.707  28.111  0.2751  0.0335  0.0843
31491W        W74429  31.808   3.441  27.967 -0.0437  0.0143 -0.0885
31492W        W74430  32.328   4.206  30.704  0.1188 -0.0717 -0.0185
31493W        W74431  33.461   2.155  30.422  0.0467 -0.0219 -0.3934
31494W        W74432  30.499   2.465  28.479  0.3007  0.0228  0.3831
31495W        W74433  32.008   3.771  30.189 -0.0981 -0.2111  0.1982
31496W        W74434  30.263   3.389  30.399  0.0310 -0.1523 -0.0673
31497W        W74435  30.298   2.799  29.287 -0.1619 -0.1663  0.0285
31498W        W74436  30.998   1.864  29.717 -0.0613  0.2747 -0.1273
31499W        W74437  32.005   2.531  27.890 -0.1418  0.1657 -0.0757
31500W        W74438  32.051   3.280  30.153  0.1212  0.2644  0.0617
31501W        W74439  30.873   2.266  30.863  0.2332 -0.1770 -0.0410
31502W        W74440  30.080   3.137  29.928  0.0939 -0.0775  0.1551
31503W        W74441  32.899  34.657  29.908 -0.2551 -0.1311 -0.2476
31504W        W74442  29.225   3.546  29.121 -0.1701  0.0224  0.2277
31505W        W74443  30.679   0.549  28.131 -0.1981 -0.1018 -0.0702
31506W        W74444  30.079  34.367  26.782  0.0364 -0.0992  0.1356
31507W        W74445  30.782   1.025  28.285  0.3465 -0.1704  0.2259
31508W        W74446  30.467  34.448  28.856 -0.0907  0.1256 -0.0305
31509W        W74447  31.539   3.122  30.394  0.0183 -0.3194  0.3661
31510W        W74448  32.180   1.128  30.636 -0.1001  0.2159 -0.1158
31511W        W74449  33.800   2.505  30.242  0.0967 -0.1111  0.0657
31512W        W74450  30.992   1.297  27.754 -0.2230  0.0048  0.2252
31513W        W74451  31.949   1.556  30.800  0.0580  0.1627 -0.2448
31514W        W74452  30.697   3.248  29.071  0.1032 -0.0475  0.2811
31515W        W74453  30.246   2.349  29.415 -0.2399  0.2750 -0.0362
31516W        W74454  32.690   2.393  28.881  0.1951 -0.0058 -0.0610
31517W        W74455  32.230   3.648  29.146  0.1646 -0.1336  0.1257
31518W        W74456  33.669   3.564  28.697 -0.1794  0.1302  0.2884
31519W        W74457  29.599   1.645  29.250 -0.0834  0.4411 -0.4538
31520W        W74458  29.181   2.657  30.123  0.2450 -0.1155  0.2402
31521W        W74459  29.753   3.085  30.487 -0.0310 -0.0005 -0.2370
31522W        W74460  29.982  33.903  27.748 -0.0336  0.0072  0.2882
31523W        W74461  33.812   2.453  31.443 -0.0192  0.1403 -0.2090
31524W        W74462  31.344   3.838  30.866  0.1264 -0.0513  0.1476
31525W        W74463  32.445   2.796  29.543  0.3090 -0.2321  0.0081
31526W        W74464  30.706   4.482  29.660  0.1063  0.1755  0.0982
31527W        W74465  31.914   2.500  28.381 -0.0161 -0.2001 -0.0728
31528W        W74466  31.281   1.273  27.298  0.1562  0.0328 -0.1488
31529W        W74467  31.793   0.328  29.911  0.0181  0.3210 -0.1099
31530W        W74468  32.464   0.161  30.029  0.1379  0.1223 -0.0054
31531W        W74469  30.871   0.302  29.518  0.1758 -0.3330  0.1254
31532W        W74470  31.411   2.164  28.537  0.0967  0.1655  0.1655
31533W        W74471  32.728   2.276  29.496 -0.0974 -0.0638 -0.0266
31534W        W74472  31.612   1.666  27.275  0.0177  0.0247  0.1791
31535W        W74473  29.655   4.512  30.200  0.0287  0.4527  0.0849
31536W        W74474  31.344   0.076  30.812  0.2096  0.2153 -0.1441
31537W        W74475  31.279   2.719   0.885 -0.0106 -0.2665  0.2801
31538W        W74476  28.683   3.928  28.505  0.1413  0.3687  0.0781
31539W        W74477  28.799   3.547  30.462 -0.1666  0.1993 -0.4752
31540W        W74478  29.054   0.981  29.139 -0.1054 -0.0979 -0.3500
31541W        W74479  28.734  34.092  29.252  0.0351  0.0053  0.1759
31542W        W74480  31.272   2.756  29.772 -0.1745  0.0730  0.3066
31543W        W74481  32.719  33.976  28.662  0.1637  0.4841 -0.0268
31544W        W74482  30.700   1.430  31.018 -0.0191  0.0214  0.0935
31545W        W74483  34.105   0.577  28.084 -0.2014 -0.3731  0.0814
31546W        W74484  29.417   3.084  28.998 -0.1526  0.1164 -0.0519
31547W        W74485  32.945   4.950  30.440 -0.0704  0.2047  0.0618
31548W        W74486  32.897   1.793  29.658 -0.0318  0.2549 -0.2546
31549W        W74487  31.319   1.701  27.810 -0.0964  0.2272  0.3813
31550W        W74488  30.064  34.413  29.608  0.4066  0.3079 -0.2700
31551W        W74489  30.281   0.724  30.019  0.0670 -0.1645  0.2081
31552W        W74490  30.332   1.301  30.103 -0.1383  0.2206  0.0881
31553W        W74491  29.224   0.051  29.312  0.0206  0.0883  0.1361
31554W        W74492  33.269   2.258  30.908  0.1633 -0.1219 -0.1697
31555W        W74493  28.477  34.086  27.361 -0.0577  0.0275  0.0402
31556W        W74494  33.308   0.528  28.767 -0.3746  0.0279  0.2903
31557W        W74495  31.525   2.773  28.496 -0.2138 -0.0350 -0.2743
31558W        W74496  30.053   2.920  28.820  0.3301 -0.0636 -0.2791
31559W        W74497  31.483  33.963  31.125  0.0734  0.1551 -0.0348
31560W        W74498  32.485   2.349  28.140 -0.0634  0.3519  0.1479
31561W        W74499  32.015   4.269  30.304 -0.0272  0.0876  0.2784
31562W        W74500  33.102   3.322  28.847 -0.1437 -0.3046  0.2227
31563W        W74501  29.858   0.926  30.945 -0.0293  0.2071  0.2378
31564W        W74502  29.594   0.674  29.952 -0.2359  0.1716  0.2595
31565W        W74503  30.140   5.088  29.794  0.2686  0.1676  0.2278
31566W        W74504  31.319   1.608  29.940  0.1836  0.0232  0.1517
31567W        W74505  30.435   0.927  29.189 -0.1320  0.0169  0.0957
31568W        W74506  33.553   3.272  29.113  0.1023 -0.2597  0.1637
31569W        W74507  30.729   0.979  30.219  0.0661 -0.0330 -0.5359
31570W        W74508  30.795   3.711  30.026 -0.1419 -0.1795  0.1650
31571W        W74509  32.260   0.629  30.916  0.0256  0.0918 -0.1884
31572W        W74510  34.230   1.167  29.958  0.1072  0.2271  0.4154
31573W        W74511  32.720   0.929  29.533 -0.0570  0.0263  0.0202
31574W        W74512  29.658   1.144  28.647 -0.1861 -0.2363  0.0803
31575W        W74513  33.676   4.254  28.738 -0.2055 -0.0276  0.3493
31576W        W74514  30.161   2.829  28.333  0.1692 -0.1537  0.1025
31577W        W74515  28.574   1.897  29.078  0.2678 -0.0208  0.3779
31578W        W74516  32.025   4.784  30.819  0.1725 -0.0981 -0.0884
31579W        W74517  31.614   1.172  30.440  0.2067 -0.0905 -0.1024
31580W        W74518  28.417   0.972  30.149  0.0358  0.1271  0.4057
31581W        W74519  31.079   0.966  31.655  0.0613  0.0373 -0.0320
31582W        W74520  29.094   0.572  29.455 -0.0759 -0.1844  0.2479
31583W        W74521  28.776   4.664  30.424  0.3390 -0.0915  0.0507
31584W        W74522  31.356   1.229  29.614 -0.0268  0.0167 -0.3407
31585W        W74523  31.901   0.878  28.904 -0.0893  0.3153 -0.3426
31586W        W74524  32.889   2.474  31.187 -0.2418  0.0316  0.1169
31587W        W74525  33.540   1.100  28.585 -0.0265 -0.2119  0.2146
31588W        W74526  31.601   2.550  26.685 -0.1367  0.1339 -0.1272
31589W        W74527  31.058  34.332  27.975  0.4033  0.0058  0.5583
31590W        W74528  29.355   2.171   0.118  0.0949 -0.0153 -0.0781
31591W        W74529  30.301   2.605  29.927 -0.1322  0.0186  0.2925
31592W        W74530  30.987   1.560  30.374  0.1769  0.0622 -0.3441
31593W        W74531  31.750   1.576  30.176 -0.1837  0.0767 -0.1003
31594W        W74532  32.867   3.605  29.223 -0.0560  0.3173  0.3970
31595W        W74533  31.301   3.945  29.047 -0.1929 -0.0095 -0.0340
31596W        W74534  33.176   3.703  30.881  0.1313 -0.0784  0.1482
31597W        W74535  31.243   4.948  30.286  0.2319  0.0741 -0.1992
31598W        W74536  30.766  33.651  30.463  0.3060 -0.0650  0.1190
31599W        W74537  30.768   1.176  27.338  0.1886  0.1115 -0.0108
31600W        W74538  29.755   0.617  27.563  0.3702  0.1112  0.0378
31601W        W74539  29.884   4.345  28.089  0.1098  0.0652  0.4043
31602W        W74540  32.284   0.697  29.851  0.0924  0.1257 -0.0530
31603W        W74541  31.199  34.356  30.961  0.1296 -0.1023  0.0477
31604W        W74542  29.264   1.637  30.755 -0.4409  0.0029  0.2094
31605W        W74543  32.614   1.335  31.235 -0.0510 -0.1438  0.1462
31606W        W74544  32.055   3.132  29.136  0.1015  0.1693 -0.0188
31607W        W74545  32.650   1.054  30.046  0.0921 -0.1666 -0.3585
31608W        W74546  30.061   0.203  28.133 -0.1915  0.2510  0.2256
31609W        W74547  30.572   0.488  30.538 -0.2373 -0.0104  0.0865
31610W        W74548  30.628   2.351  30.373  0.4275  0.1139 -0.1385
31611W        W74549  30.616   4.158  30.012  0.1374 -0.2875 -0.1554
31612W        W74550  31.892   1.481  31.811 -0.0986  0.0051 -0.3055
31613W        W74551  30.595   0.706  28.627  0.0601  0.2434  0.0600
31614W        W74552  30.539   0.396  31.093 -0.3015 -0.0316 -0.1748
31615W        W74553  30.864  33.649  27.644  0.0639  0.2833  0.3011
31616W        W74554  31.216   4.488  28.669  0.3302  0.0947 -0.0627
31617W        W74555  30.066   1.728  27.859  0.2775 -0.1906  0.1693
31618W        W74556  30.906  34.595  29.122 -0.0928  0.0501  0.0208
31619W        W74557  30.970   3.949  29.465 -0.1142 -0.1141  0.4628
31620W        W74558  31.112   2.208  27.630 -0.1898 -0.0225 -0.4426
31621W        W74559  32.957   2.966  30.250 -0.3929  0.1246 -0.4344
31622W        W74560  29.496   2.709  27.627 -0.4102 -0.3319 -0.0351
31623W        W74561  31.365   0.214  29.340  0.1825  0.2076  0.0979
31624W        W74562  29.995   4.230  29.858  0.1969 -0.1361 -0.0460
31625W        W74563  29.572   0.473  29.461 -0.0968  0.2875  0.2487
31626W        W74564  30.420   2.864  30.299  0.1267 -0.3659  0.0709
31627W        W74565  32.151   1.190  29.639  0.1807  0.0631 -0.4506
31628W        W74566  30.874   2.004  28.746 -0.2427 -0.0169 -0.0846
31629W        W74567  30.375   0.074  29.845  0.1814 -0.2902 -0.1221
31630W        W74568  31.297   0.285  29.866  0.1092  0.2072 -0.0811
31631W        W74569  30.243   4.659  29.958  0.0829  0.0337  0.2482
31632W        W74570  32.346   2.325  31.299  0.0621  0.1074 -0.0783
31633W        W74571  31.643   1.341  28.712 -0.0992  0.1622  0.1915
31634W        W74572  32.695   2.544  29.940 -0.0516 -0.2268  0.1903
31635W        W74573  32.289   2.290  30.266  0.2713 -0.1830 -0.0856
31636W        W74574  28.822   0.755  27.950  0.0656 -0.1787  0.0799
31637W        W74575  31.437   1.625  30.602 -0.0829 -0.4204  0.2470
31638W        W74576  31.505   2.010  30.180 -0.0511 -0.0324 -0.0726
31639W        W74577  29.797   5.540  30.503 -0.2376  0.3219 -0.0989
31640W        W74578  31.599   2.363  29.820 -0.1047 -0.0651 -0.2006
31641W        W74579  30.917   0.796  29.066 -0.2763 -0.3177  0.1669
31642W        W74580  31.073   3.297  29.550  0.1220  0.0340  0.1614
31643W        W74581  29.898   0.569  30.300 -0.1462  0.3848  0.3158
31644W        W74582  31.940   2.004  29.941 -0.0164  0.0386 -0.0135
31645W        W74583  31.040   0.777  29.878  0.1666  0.0964 -0.0033
31646W        W74584  29.871   1.163  29.150  0.1206 -0.1579 -0.3357
31647W        W74585  31.135   2.075  30.445  0.0663 -0.0696  0.1170
31648W        W74586  33.118   3.180  30.681 -0.0563  0.4361 -0.1355
31649W        W74587  31.468   0.691  31.389 -0.2328  0.2132  0.0449
31650W        W74588  30.417   3.188  30.832  0.0414 -0.0111 -0.0290
31651W        W74589  32.060  34.568  30.046 -0.1823  0.1970 -0.1886
31652W        W74590   0.076   3.637  27.470 -0.0100  0.0184 -0.0849
31653W        W74591  32.992   0.979  31.241 -0.1555 -0.2068  0.1719
31654W        W74592  29.736   2.531  28.664  0.0864 -0.3054 -0.0476
31655W        W74593  28.257   1.723  29.494 -0.0949 -0.2118 -0.1469
31656W        W74594  30.256   3.488  28.869  0.1946 -0.2474  0.0199
31657W        W74595  30.887   2.785  30.083  0.1456 -0.0165  0.1773
31658W        W74596  31.280   3.571  31.296  0.1087 -0.1398 -0.2045
31659W        W74597  30.313   2.263  27.500  0.3704  0.2089 -0.0862
31660W        W74598  30.613   4.369  30.941 -0.1476 -0.2011 -0.0539
31661W        W74599  31.585  34.235  27.898  0.1142  0.4149  0.0435
31662W        W74600  32.264   1.677  28.437  0.2650  0.1544 -0.0446
31663W        W74601  31.543   0.772  29.903 -0.2966  0.2152  0.1501
31664W        W74602  33.581   0.584  29.571 -0.1233 -0.0533 -0.0357
31665W        W74603  31.020   2.044  26.923  0.2424  0.0582 -0.1194
31666W        W74604  32.804   0.485  31.549 -0.4505 -0.0153 -0.1909
31667W        W74605  30.786   0.294  30.093 -0.4735  0.0948  0.2728
31668W        W74606  32.918   2.890  29.303 -0.0916  0.0318 -0.0175
31669W        W74607  30.091  34.340   0.010  0.0921 -0.1019 -0.1121
31670W        W74608  33.073   1.862  31.926  0.2415 -0.3427  0.1929
31671W        W74609  29.776   2.452  30.817  0.2185 -0.2224 -0.1660
31672W        W74610  30.382   1.798  28.772 -0.2142 -0.2860 -0.2355
31673W        W74611  29.535   0.106  28.465  0.0344 -0.1396  0.0705
31674W        W74612  32.909   3.793  29.809 -0.1682  0.1649 -0.0569
31675W        W74613  32.314   2.307  29.179 -0.3411  0.0954  0.2181
31676W        W74614  30.145   1.744  28.331  0.3330  0.0293  0.1355
31677W        W74615  32.183   0.758  28.442  0.0590 -0.1689 -0.0441
31678W        W74616  30.068   2.082  30.001 -0.0305  0.2117 -0.0034
31679W        W74617  31.524   2.824  29.024 -0.3636  0.1863 -0.0835
31680W        W74618  30.087   2.100  27.082 -0.1468 -0.1062  0.3010
31681W        W74619  29.349   3.468  29.971 -0.2990 -0.0379 -0.4871
31682W        W74620  29.481  34.389  30.037  0.1408 -0.1823  0.1144
31683W        W74621  31.783   2.483  30.286  0.1283 -0.1143 -0.2253
31684W        W74622  32.160   2.367  29.680  0.0609  0.0335 -0.1663
31685W        W74623  32.488   0.800  31.267  0.2084 -0.0269  0.0496
31686W        W74624  32.159   1.121  30.126  0.0973  0.0130 -0.1492
31687W        W74625  31.166   0.814  30.460  0.0043  0.2240 -0.0751
31688W        W74626  30.198   1.346  30.913 -0.0884  0.0164 -0.1562
31689W        W74627  33.611   3.645  31.585  0.3342 -0.1388 -0.2532
31690W        W74628  31.739   0.455  28.582 -0.4020 -0.1907  0.0896
31691W        W74629  32.182   2.008  30.929  0.0344 -0.1755 -0.0055
31692W        W74630  31.820   1.525  29.674 -0.0654  0.0455  0.1258
31693W        W74631  29.550   2.614  28.143 -0.0723 -0.3748  0.2107
31694W        W74632  29.383   0.957  29.577  0.0402 -0.3094 -0.0491
31695W        W74633  33.531   1.969  31.821  0.3121  0.1978 -0.2251
31696W        W74634  29.785   2.051  28.573 -0.4173  0.0178  0.1034
31697W        W74635  33.287   0.586  31.382 -0.0818  0.1560  0.1877
31698W        W74636  30.677   2.322  27.917  0.5792  0.2369  0.0643
31699W        W74637  32.465   3.543  30.011  0.0132  0.0785 -0.1664
31700W        W74638  31.626   0.936  28.371  0.1257 -0.1773 -0.3457
31701W        W74639  31.062  34.555  29.690 -0.0517  0.1798 -0.0539
31702W        W74640  29.774   3.660  30.332 -0.1482  0.2274 -0.0988
31703W        W74641  28.964   0.166  30.338 -0.1024  0.0520 -0.0317
31704W        W74642  30.811   1.785  27.823  0.0493 -0.0379 -0.1658
31705W        W74643  31.201   4.453  30.192 -0.2213  0.2053 -0.1166
31706W        W74644  32.584   2.789  31.419  0.1045  0.1682  0.1112
31707W        W74645  30.279   1.181  29.596 -0.0183  0.4707 -0.1128
31708W        W74646  34.161   1.363  30.461  0.2891  0.1031  0.2103
31709W        W74647  29.858   3.617  29.825 -0.2202 -0.2066  0.0231
31710W        W74648  32.319   0.613  29.327 -0.1162 -0.0428  0.1103
31711W        W74649  31.504   4.902  29.342  0.2086  0.0160 -0.3558
31712W        W74650  29.542   2.991  30.920 -0.3861 -0.0889  0.2107
31713W        W74651  30.713   2.813  28.178 -0.1124  0.0711  0.1043
31714W        W74652  31.530  34.313  30.640  0.1366  0.0281 -0.2097
31715W        W74653  31.956   2.833  28.746 -0.1722 -0.1924  0.1462
31716W        W74654  30.282   0.905  28.211 -0.2099 -0.3012 -0.1160
31717W        W74655  32.923   2.259  30.329 -0.0800 -0.0733  0.0501
31718W        W74656  30.667   2.716  30.734  0.3408  0.0831  0.1367
31719W        W74657  31.265   1.150  30.127  0.0240  0.1378  0.0132
31720W        W74658  31.267   2.530  31.069  0.5236 -0.1905  0.2300
31721W        W74659  32.383   0.745  30.376  0.0693 -0.0420 -0.1064
31722W        W74660  31.265   3.971  29.972 -0.2247 -0.1172  0.0698
31723W        W74661  30.026   1.465  30.454  0.1981  0.1464  0.1328
31724W        W74662  31.058   1.389  31.342 -0.0775 -0.1019 -0.2475
31725W        W74663  30.808   2.568  29.651 -0.3075  0.0940  0.1260
31726W        W74664  29.823   0.589  28.056  0.0824  0.0241 -0.2050
31727W        W74665  30.359   3.062  27.866 -0.1806 -0.0591  0.1168
31728W        W74666  29.275   3.142  30.315  0.0611 -0.2846 -0.3990
31729W        W74667  30.592   1.911  29.280  0.0603 -0.2135 -0.0193
31730W        W74668  29.114   3.710  28.465 -0.0569  0.0579 -0.2318
31731W        W74669  31.212   3.548  28.612  0.2162 -0.1052 -0.0198
31732W        W74670  30.189   2.280  28.795 -0.0161  0.2321 -0.3477
31733W        W74671  32.448   4.266  29.924  0.0275 -0.1562  0.1203
31734W        W74672  30.417  34.285  28.410  0.0515 -0.1118  0.0739
31735W        W74673  30.308   4.534  29.183  0.2999 -0.0385  0.0850
31736W        W74674  30.554   1.574  26.473 -0.2851  0.1832 -0.0684
31737W        W74675  32.505   2.212  27.581  0.5197 -0.0253  0.0342
31738W        W74676  30.148   3.243  29.449  0.0085 -0.1789  0.0359
31739W        W74677  33.747   3.546  30.743  0.2806 -0.3068 -0.0471
31740W        W74678  31.846  34.622  28.636 -0.1372  0.3459  0.0762
31741W        W74679  33.217   0.829  29.864  0.3060 -0.2741  0.4092
31742W        W74680  32.339   1.888  28.963 -0.0592 -0.1315  0.0267
31743W        W74681  32.017   2.901  30.529 -0.4104  0.0267  0.2495
31744W        W74682  30.584   2.161  29.765 -0.2005  0.2153 -0.1572
31745W        W74683  30.771  34.179  27.524  0.0231  0.0347 -0.0581
31746W        W74684  30.144   0.606  31.429 -0.0515 -0.1200  0.2807
31747W        W74685  32.949   0.522  31.020 -0.0251 -0.2238 -0.1737
31748W        W74686  29.528   2.650  30.470 -0.3800 -0.2331 -0.0920
31749W        W74687  32.695   1.795  27.366  0.0773 -0.0855 -0.1561
31750W        W74688  29.061   1.548  29.144 -0.2462 -0.1308  0.3036
31751W        W74689  31.732   2.409  31.246 -0.0933 -0.0727  0.2030
31752W        W74690  33.313  33.956  29.395 -0.2335 -0.0524 -0.0116
31753W        W74691  30.886   3.092  27.705 -0.1182  0.0115 -0.1201
31754W        W74692  30.508   1.870  30.151 -0.0335  0.1776 -0.3015
31755W        W74693  30.539   4.275  28.738  0.0445 -0.1291 -0.1886
31756W        W74694  31.098   4.288  30.677 -0.0754 -0.1353 -0.0706
31757W        W74695  31.161   3.356  30.049  0.0114 -0.3759  0.1168
31758W        W74696  29.978   0.121  29.288 -0.0067  0.0483  0.1069
31759W        W74697  32.727   1.447  29.277 -0.1074 -0.0892 -0.2909
31760W        W74698  29.622   0.562  31.380 -0.1444  0.0553  0.0780
31761W        W74699  32.987   1.347  30.672  0.0316 -0.0272  0.1665
31762W        W74700  28.656   0.683  29.299  0.0206  0.1540  0.1146
31763W        W74701  31.248   2.434  28.915  0.1648 -0.2603 -0.1806
31764W        W74702  30.834   1.401  29.939  0.0239  0.2041  0.1654
31765W        W74703  31.408   3.671  29.512  0.2734  0.0539 -0.3547
31766W        W74704  31.820   1.623  27.803  0.1817  0.2183 -0.0282
31767W        W74705  34.388   2.181  30.866 -0.0167  0.0300  0.0299
31768W        W74706  31.870   1.956  26.947 -0.0534  0.0180  0.3308
31769W        W74707  32.575   3.988  30.290  0.3033  0.4561  0.0104
31770W        W74708  29.581   0.282  28.930  0.0808 -0.1225  0.2145
31771W        W74709  31.196   1.047  28.616 -0.2918 -0.3112 -0.2878
31772W        W74710  27.255   2.746  30.104 -0.1487 -0.0453 -0.0537
31773W        W74711  31.077   2.295  29.951  0.4512  0.0775  0.1540
31774W        W74712  32.794   2.916  30.966 -0.0269 -0.1821 -0.0314
31775W        W74713  29.494   0.595  28.563  0.0205 -0.0059  0.1021
31776W        W74714  32.073   2.455  26.939  0.0135  0.0734 -0.1366
31777W        W74715  31.873   1.913  31.357 -0.2134  0.1117  0.2623
31778W        W74716  32.314   3.352  28.112 -0.1714  0.3856  0.0160
31779W        W74717  31.327   2.563  30.286  0.1391  0.2186  0.0421
31780W        W74718  33.196   5.358  30.689  0.4114  0.1525 -0.0427
31781W        W74719  28.130   0.757  30.540 -0.0474  0.4431 -0.2697
31782W        W74720  31.640   4.683  30.461  0.1035 -0.3614  0.1101
31783W        W74721  31.449   1.912  29.509  0.0666 -0.0809  0.0724
31784W        W74722  31.206   1.694  28.568  0.1522 -0.3280  0.0014
31785W        W74723  29.240   1.048  30.130 -0.3213 -0.0830  0.1303
31786W        W74724  29.827   4.144  29.334  0.1917 -0.0843 -0.1146
31787W        W74725  32.254   1.612  29.334  0.0461  0.0699  0.1892
31788W        W74726  32.154   0.290  30.418 -0.1448 -0.0214  0.1061
31789W        W74727  30.907   3.592  26.053  0.0088  0.1823 -0.3044
31790W        W74728  31.947   0.186  30.906 -0.0054 -0.1384  0.4412
31791W        W74729  33.789   4.727  31.319  0.0865 -0.0411  0.1976
31792W        W74730  31.078   2.478  31.976 -0.0324 -0.1691  0.0721
31793W        W74731  29.635   1.592  28.320 -0.0405 -0.1102  0.1732
31794W        W74732  30.131   0.507  30.822 -0.2475  0.4218 -0.1860
31795W        W74733  31.546   3.125  29.400 -0.2176 -0.0238 -0.2035
31796W        W74734  29.501   3.444  28.183  0.3971 -0.1158 -0.4382
31797W        W74735  32.515   3.214  27.613  0.0082  0.1891 -0.0704
31798W        W74736  31.474   2.001  28.983 -0.1186 -0.2815  0.0266
31799W        W74737  33.058   2.091  28.201  0.0953 -0.0867  0.2219
31800W        W74738  30.519   0.579  29.594  0.1751  0.0963 -0.0691
31801W        W74739  31.819   2.376  28.896  0.1340  0.1675 -0.2869
31802W        W74740  31.810   0.545  29.421  0.1832  0.0284  0.0435
31803W        W74741  31.639   3.420  29.901  0.4380 -0.0817  0.6166
31804W        W74742  30.856   1.531  28.249 -0.0414 -0.0968  0.2611
31805W        W74743  30.207   1.341  27.293  0.2681  0.0056 -0.1847
31806W        W74744  27.777   1.791  30.023  0.2306 -0.1977 -0.3827
31807W        W74745  31.667  34.487  31.129 -0.0174 -0.1319 -0.1760
31808W        W74746  28.514   0.316  30.331  0.3730 -0.0826  0.1635
31809W        W74747  29.637   2.373  30.055  0.1978  0.3523 -0.0473
31810W        W74748  29.921   0.322  29.884 -0.3340 -0.0938 -0.3892
31811W        W74749  31.508   4.053  28.600 -0.0502  0.4235  0.1553
31812W        W74750  30.348   0.331  28.997  0.1403  0.0440  0.2243
31813W        W74751  28.978  33.937  28.812  0.2534 -0.3023 -0.1201
31814W        W74752  31.922   2.945  28.214  0.0059  0.0413  0.4244
31815W        W74753  31.005   2.522  28.472  0.0355  0.0023  0.0055
31816W        W74754  30.900   0.338  28.890  0.1504 -0.1144  0.1113
31817W        W74755  33.003   4.280  29.991 -0.1182  0.1354 -0.0836
31818W        W74756  29.444   2.765  29.435 -0.2092 -0.4145  0.2644
31819W        W74757  30.390   0.929  31.136 -0.1871  0.1223 -0.1191
31820W        W74758  29.633   0.481  30.719  0.0420 -0.1924  0.0245
31821W        W74759  29.968  33.949  28.508  0.0972  0.4329  0.1170
31822W        W74760  32.767   1.616  30.222  0.1100 -0.0430  0.0988
31823W        W74761  30.630   2.969  28.664  0.5009 -0.2213  0.3126
31824W        W74762  32.456   3.161  26.685 -0.2610 -0.3062 -0.0624
31825W        W74763  33.919   2.203  30.958  0.0659 -0.2237 -0.1444
31826W        W74764  31.098   2.945  30.518  0.0016  0.3583 -0.0558
31827W        W74765  29.257   0.308  29.899  0.0081  0.1342 -0.1497
31828W        W74766  32.392   2.817  28.513 -0.0551  0.3652 -0.0729
31829W        W74767  31.507   3.634  30.399  0.1490  0.0519  0.0996
31830W        W74768  31.594   2.821  27.874 -0.0383  0.0065  0.0033
31831W        W74769  32.639   0.456  30.616 -0.3124  0.0956 -0.0250
31832W        W74770  31.508   2.362  29.360  0.2457 -0.3836  0.0642
31833W        W74771  30.341   0.134  30.321  0.2039 -0.3145 -0.1009
31834W        W74772  30.325   2.317  30.955 -0.0192 -0.1879  0.3300
31835W        W74773  33.290   1.519  29.343  0.0036 -0.0219  0.1171
31836W        W74774  31.383  33.803  29.198  0.1106  0.0394  0.1716
31837W        W74775  31.587   1.779  28.236  0.2806 -0.1540 -0.1364
31838W        W74776  31.031   4.766  29.269  0.1859  0.1576  0.0256
31839W        W74777  29.007   0.463  28.897 -0.1683  0.0856 -0.0676
31840W        W74778  30.423   0.145  28.494  0.2075 -0.2658 -0.0042
31841W        W74779  30.129   2.459  30.461  0.3675 -0.0956 -0.0783
31842W        W74780  30.083   2.599  27.843  0.2522  0.0778 -0.2713
31843W        W74781  32.488   2.775  30.383 -0.0168 -0.0655 -0.2815
31844W        W74782  31.059   1.704  29.196  0.1509 -0.1491 -0.1228
31845W        W74783  32.649   2.066  28.541 -0.3752  0.0688 -0.0788
31846W        W74784  32.379   3.866  29.585  0.0613 -0.3436 -0.1589
31847W        W74785  31.966   2.904   0.117  0.0584  0.4158  0.1338
31848W        W74786  31.221   3.360  30.767  0.1364 -0.0118  0.1154
31849W        W74787  32.402   1.822  31.354  0.0503  0.3135 -0.0916
31850W        W74788  28.486  32.877  29.091  0.0165 -0.2221 -0.0038
31851W        W74789  29.926   2.691  29.624 -0.0133  0.0575  0.0617
31852W        W74790  30.309   1.441  29.127 -0.1712 -0.0751  0.2771
31853W        W74791  33.005   1.309  29.704 -0.1489 -0.0755 -0.1243
31854W        W74792  31.850   1.989  30.513 -0.1499 -0.1720  0.3823
31855W        W74793  31.067   0.370  27.908 -0.2397  0.1316  0.0430
31856W        W74794  30.767   3.540  30.858  0.0770 -0.4780 -0.0121
31857W        W74795  31.740   4.422  28.834  0.0483  0.1160 -0.2490
31858W        W74796  32.919  34.152  29.790 -0.0145  0.0130  0.0336
31859W        W74797  32.792   3.536  31.066  0.2548 -0.0963  0.2797
31860W        W74798  29.872   1.007  31.930  0.0056 -0.1678 -0.1694
31861W        W74799  30.416   3.269  31.888  0.2256  0.0011 -0.0520
31862W        W74800  30.478   2.828  31.216 -0.0742 -0.0155  0.0586
31863W        W74801  31.039   1.922  31.898 -0.0959  0.3811 -0.2352
31864W        W74802  31.407   2.080  31.092  0.1855 -0.1163  0.0909
31865W        W74803  30.278  34.553  31.250 -0.3902 -0.1107  0.0336
31866W        W74804  32.762  34.198  30.669  0.1915 -0.2596  0.0453
31867W        W74805  31.529   4.237  31.543  0.0500  0.1433 -0.1771
31868W        W74806  31.335   4.073   0.074  0.1315  0.2352 -0.1264
31869W        W74807  31.133  34.162  30.020 -0.0421 -0.0571  0.0811
31870W        W74808  32.063   2.465  30.782  0.1208  0.0930 -0.3088
31871W        W74809  30.042   1.893  30.886 -0.0837 -0.4820  0.2177
31872W        W74810  33.933   1.321  31.468 -0.1003  0.1081 -0.0808
31873W        W74811  30.880   3.719  31.567 -0.2094  0.0511 -0.2587
31874W        W74812  29.918   1.555  31.304  0.0946 -0.0958 -0.0000
31875W        W74813  32.389   3.294  31.140  0.1666 -0.1173  0.1164
31876W        W74814  31.132   1.254  30.816  0.1220 -0.0365  0.2160
31877W        W74815  29.357   0.836  30.941  0.2743  0.0933 -0.3003
31878W        W74816  29.905   0.201  31.186  0.1317  0.0127  0.2034
31879W        W74817  30.075   2.820  30.842  0.3934  0.0500 -0.2415
31880W        W74818  32.540  34.524  30.388 -0.3677 -0.0550  0.0809
31881W        W74819  32.114   1.356  31.215 -0.0455 -0.0733 -0.0228
31882W        W74820  33.127   0.283   0.438  0.1250 -0.1875 -0.2100
31883W        W74821  30.793  34.455  31.533 -0.0092 -0.1323 -0.1185
31884W        W74822  30.741   0.928  30.729 -0.1067  0.1663  0.1099
31885W        W74823  31.022   1.993  31.386 -0.2682 -0.0513 -0.2718
31886W        W74824  29.733   1.263  29.613  0.0999 -0.1062 -0.1823
31887W        W74825  31.411   2.180  31.610 -0.0447 -0.2757  0.1020
31888W        W74826  32.128   2.715  30.024  0.1329  0.2230 -0.6058
31889W        W74827  31.025   1.782  30.909 -0.4209 -0.3504 -0.1231
31890W        W74828  32.405   2.153   0.120  0.1993 -0.1057 -0.1064
31891W        W74829  30.699   1.557  31.585 -0.0962 -0.1515  0.4652
31892W        W74830  29.326   1.281  31.117  0.3465 -0.4364  0.1014
31893W        W74831  29.329   1.374   0.126 -0.3344 -0.2938  0.2596
31894W        W74832  31.260   2.953   0.139  0.1063  0.0491 -0.1120
31895W        W74833  31.079   1.179   0.978  0.0751 -0.1646 -0.3909
31896W        W74834  32.133   1.889   1.243 -0.3229  0.0551  0.0315
31897W        W74835  31.558   2.762  31.665  0.1440 -0.0153  0.2505
31898W        W74836  32.229   1.305   0.594 -0.1543 -0.0325 -0.0944
31899W        W74837  32.558   0.344   1.435  0.0233  0.1892 -0.1253
31900W        W74838  29.913   1.584  29.946 -0.0832 -0.1784  0.0965
31901W        W74839  29.439   3.815   0.106  0.0075  0.0189  0.1021
31902W        W74840  30.257   1.735  31.631  0.0867 -0.3336 -0.2116
31903W        W74841  31.526   3.060  31.283 -0.0441  0.0125 -0.4685
31904W        W74842  31.026   0.444  30.812  0.0552  0.2582  0.0750
31905W        W74843  31.177   1.164   0.443 -0.2821 -0.1954  0.0461
31906W        W74844  32.051   3.574  31.918  0.0172 -0.1878 -0.1394
31907W        W74845  29.483   3.549  30.756  0.2837  0.0477  0.0132
31908W        W74846  34.450   3.952  31.751  0.2451 -0.5651  0.1607
31909W        W74847  32.942   0.093  30.757 -0.2537  0.1595 -0.1334
31910W        W74848  30.501  33.247  30.344 -0.3330  0.2596  0.2691
31911W        W74849  31.633   1.938  31.970  0.1190 -0.2127 -0.1349
31912W        W74850  31.566   1.594  31.092 -0.1321 -0.3091  0.0996
31913W        W74851  32.854   1.513  31.704 -0.0426 -0.2423  0.2959
31914W        W74852  30.913   3.084  31.061 -0.0474  0.1688 -0.0228
31915W        W74853  32.806   4.234  31.676  0.0658 -0.0522  0.3805
31916W        W74854  32.140   2.744  31.644  0.1814  0.4243  0.1177
31917W        W74855  29.877   1.963  30.450  0.1314  0.0340  0.3869
31918W        W74856  29.695   1.779   0.220  0.1466  0.3106  0.0196
31919W        W74857  29.931   2.635  31.328 -0.2766  0.3271 -0.0113
31920W        W74858  30.709   2.807  31.825 -0.0834 -0.0011 -0.1232
31921W        W74859  28.955   0.468   0.212  0.0661  0.2371  0.0458
31922W        W74860  32.591   2.489  30.767 -0.1247  0.1132 -0.0880
31923W        W74861  32.723   2.922  31.871  0.0813 -0.4012 -0.0204
31924W        W74862  33.212   2.800   0.024 -0.0287 -0.1347 -0.0722
31925W        W74863  30.807   6.083  19.498 -0.2806 -0.4639 -0.0148
31926W        W74864  29.582   5.530  19.147 -0.1775  0.0202  0.1245
31927W        W74865  32.476   4.403  16.367 -0.0823 -0.0337 -0.1650
31928W        W74866  32.868   6.690  16.898 -0.0038 -0.2526 -0.0835
31929W        W74867  29.275   5.184  16.877 -0.1302  0.0763 -0.0745
31930W        W74868  32.657   6.690  18.169 -0.0939  0.0601  0.0005
31931W        W74869  29.082   2.619  19.910 -0.0973 -0.1826 -0.0477
31932W        W74870  31.393   6.654  18.766  0.0355  0.0737  0.2293
31933W        W74871  31.314   5.178  19.956 -0.0334  0.0918  0.2701
31934W        W74872  31.274   6.526  16.566 -0.2444 -0.2786  0.0801
31935W        W74873  29.341   4.802  17.324 -0.0650  0.1009  0.0819
31936W        W74874  29.564   6.597  18.448  0.2592  0.0147  0.1242
31937W        W74875  30.337   4.370  17.243 -0.1645  0.0448  0.2653
31938W        W74876  28.676   4.631  18.447 -0.0925 -0.0417  0.0884
31939W        W74877  31.513   5.638  19.772  0.2226 -0.0065 -0.4055
31940W        W74878  28.766   5.974  16.891 -0.5324  0.1724 -0.3950
31941W        W74879  28.679   5.343  19.328 -0.2076 -0.2087  0.1281
31942W        W74880  30.231   5.026  17.535  0.0369  0.0214  0.1445
31943W        W74881  31.972   8.726  16.684 -0.1012 -0.1029  0.2933
31944W        W74882  29.884   4.321  18.537 -0.1390  0.4230 -0.0262
31945W        W74883  32.020   3.573  19.113 -0.0784  0.0760  0.0951
31946W        W74884  30.064   5.913  16.794 -0.1258  0.2177  0.1269
31947W        W74885  30.437   6.070  16.514 -0.2485  0.0178 -0.2385
31948W        W74886  28.297   5.062  18.424  0.1999  0.1002  0.1553
31949W        W74887  29.923   6.075  18.556 -0.1805  0.0878 -0.2201
31950W        W74888  31.515   3.430  19.196  0.1095 -0.0250 -0.0179
31951W        W74889  32.972   6.332  17.867 -0.0098  0.1004 -0.0816
31952W        W74890  30.611   7.128  17.565 -0.3366  0.2377 -0.2510
31953W        W74891  30.118   8.650  17.846  0.3138  0.0201 -0.0975
31954W        W74892  31.824   4.221  21.122 -0.2498  0.1351 -0.1143
31955W        W74893  30.463   7.545  18.413 -0.1510 -0.2572 -0.1011
31956W        W74894  28.208   8.029  19.133  0.0140  0.3255  0.4378
31957W        W74895  30.383   7.507  16.759  0.0134 -0.0024  0.0741
31958W        W74896  32.325   7.560  16.443  0.1709 -0.2274 -0.0006
31959W        W74897  31.954   7.537  18.566 -0.4285 -0.1189  0.1005
31960W        W74898  30.003   7.721  18.503  0.1262  0.0071 -0.0692
31961W        W74899  29.617   6.860  16.624 -0.1395  0.0216  0.0774
31962W        W74900  31.738   7.868  20.645 -0.2501  0.0278 -0.0534
31963W        W74901  30.438   7.506  19.193  0.2469 -0.0012 -0.1431
31964W        W74902  30.483   5.506  17.984  0.0433  0.2472  0.0191
31965W        W74903  30.929   6.169  17.399  0.0367  0.1505 -0.0573
31966W        W74904  29.142   6.288  16.842 -0.2836  0.3227 -0.0521
31967W        W74905  30.458   6.440  18.209 -0.0802 -0.1143 -0.1791
31968W        W74906  30.965   6.943  19.088 -0.2795 -0.0231 -0.1318
31969W        W74907  28.878   7.568  19.093  0.0667  0.5830  0.1364
31970W        W74908  33.196   4.693  20.536  0.0337  0.0238 -0.0860
31971W        W74909  29.827   7.387  16.787  0.1712 -0.3447  0.2813
31972W        W74910  32.236   5.401  16.449 -0.2009  0.1082  0.2534
31973W        W74911  30.399   4.544  16.751  0.3506  0.0465 -0.0231
31974W        W74912  33.507   3.391  16.992  0.1693  0.0418 -0.0201
31975W        W74913  30.194   5.050  18.006 -0.1299  0.1941  0.4019
31976W        W74914  29.440   5.845  17.145 -0.1555 -0.0699  0.0271
31977W        W74915  29.091   6.616  19.847  0.0754 -0.2617  0.1602
31978W        W74916  30.823   6.488  16.796  0.0797  0.2653  0.1627
31979W        W74917  30.833   5.243  18.510 -0.0775  0.0474 -0.2206
31980W        W74918  31.663   4.551  17.608 -0.2927  0.0676  0.1770
31981W        W74919  29.951   7.235  19.209 -0.1281 -0.1151 -0.1546
31982W        W74920  29.139   5.547  18.593 -0.1127  0.2883 -0.2004
31983W        W74921  31.199   6.906  18.228 -0.0162 -0.0816  0.2302
31984W        W74922  30.856   7.570  16.928 -0.3081  0.1010  0.3338
31985W        W74923  31.340   7.502  16.831  0.0659  0.1699  0.3757
31986W        W74924  30.320   5.234  18.449 -0.0907  0.0187 -0.1775
31987W        W74925  29.038   5.770  19.972 -0.1814  0.1339  0.2524
31988W        W74926  28.961   6.701  19.383  0.0933  0.1923  0.1458
31989W        W74927  30.118   4.155  16.453  0.0691  0.0147  0.1993
31990W        W74928  31.463   6.073  18.934  0.2886 -0.2081  0.0111
31991W        W74929  28.428   7.598  19.288  0.3378  0.0089  0.1953
31992W        W74930  31.738   4.372  17.087 -0.1201 -0.0365 -0.2216
31993W        W74931  29.892   5.933  18.993 -0.0217 -0.0047 -0.1026
31994W        W74932  31.814   5.166  19.823  0.0800 -0.1001  0.0497
31995W        W74933  30.845   5.056  16.338 -0.0699  0.1956  0.3190
31996W        W74934  30.636   3.940  18.495 -0.2496 -0.0034  0.2100
31997W        W74935  32.772   3.369  19.398  0.0135 -0.0639 -0.1802
31998W        W74936  30.170   6.326  16.086  0.0734  0.0692 -0.0354
31999W        W74937  28.458   6.550  17.417  0.0301 -0.3344  0.1443
32000W        W74938  31.006   7.079  17.023  0.0523  0.0089  0.2045
32001W        W74939  31.284   5.694  16.735 -0.2436 -0.2198  0.1035
32002W        W74940  29.196   7.657  19.992  0.4276  0.0856  0.0361
32003W        W74941  30.957   4.149  20.639  0.2443  0.0264  0.1409
32004W        W74942  31.476   4.843  19.411  0.1192  0.1813  0.2122
32005W        W74943  27.968   7.194  15.895  0.1177 -0.1244 -0.0126
32006W        W74944  27.433   6.331  17.830 -0.2328 -0.2961  0.0949
32007W        W74945  29.453   6.361  16.425  0.3382  0.1185  0.1866
32008W        W74946  28.673   5.779  18.413  0.0762  0.3430 -0.0787
32009W        W74947  30.292   6.857  18.928 -0.0014  0.0476 -0.2777
32010W        W74948  32.128   4.156  16.879 -0.0064  0.1583 -0.0314
32011W        W74949  28.609   5.606  18.933  0.1883 -0.3516  0.4325
32012W        W74950  30.102   4.765  18.526 -0.0777 -0.3918 -0.2796
32013W        W74951  29.708   7.023  17.123 -0.2865  0.0434 -0.1339
32014W        W74952  32.927   8.141  17.205  0.0794 -0.0336 -0.0539
32015W        W74953  33.056   5.167  16.840  0.1054  0.1619  0.0157
32016W        W74954  31.019   6.057  16.425  0.3209 -0.1412 -0.1035
32017W        W74955  29.240   4.758  19.027  0.2780  0.0666  0.0129
32018W        W74956  30.352   5.364  17.007  0.1048 -0.4596  0.1929
32019W        W74957  29.743   4.999  19.217 -0.1135 -0.1508 -0.0001
32020W        W74958  29.123   5.097  17.656 -0.1567 -0.1946 -0.3424
32021W        W74959  31.275   5.309  19.222 -0.1069 -0.3966  0.1391
32022W        W74960  29.292   3.636  16.868 -0.0304  0.0034  0.0904
32023W        W74961  32.128   4.790  17.011  0.0096 -0.1370 -0.1887
32024W        W74962  30.058   5.728  18.190  0.0031  0.0979 -0.0998
32025W        W74963  27.628   6.130  17.103 -0.1896 -0.0047  0.4717
32026W        W74964  32.222   4.420  19.550 -0.2113 -0.1790 -0.2339
32027W        W74965  32.302   7.644  17.466 -0.0015 -0.2704 -0.1550
32028W        W74966  32.738   5.113  18.379  0.2041  0.1840  0.0668
32029W        W74967  33.059   7.579  16.981  0.1647  0.1296  0.0620
32030W        W74968  29.622   4.815  18.372  0.2327  0.0973  0.0076
32031W        W74969  29.652   5.108  16.523 -0.0519 -0.2418 -0.1322
32032W        W74970  29.365   7.887  17.743  0.0638  0.0324  0.0254
32033W        W74971  29.987   6.246  18.102 -0.2136 -0.1450  0.2305
32034W        W74972  30.657   4.624  17.538 -0.1465  0.0059  0.3566
32035W        W74973  33.660   7.475  18.953 -0.0521  0.0488 -0.0108
32036W        W74974  31.745   5.627  18.739  0.0290  0.1427 -0.0084
32037W        W74975  30.489   5.285  18.979  0.2461 -0.1378 -0.2245
32038W        W74976  32.708   4.171  18.715  0.2284  0.0901  0.0757
32039W        W74977  33.502   5.181  18.756 -0.2628 -0.0733  0.0950
32040W        W74978  31.759   5.601  18.204  0.4353  0.2171 -0.2574
32041W        W74979  29.868   5.942  16.331 -0.4230  0.0412  0.1962
32042W        W74980  32.799   7.704  17.383 -0.6777 -0.3744  0.1050
32043W        W74981  29.159   5.771  16.716 -0.1937 -0.0449 -0.1896
32044W        W74982  28.401   4.523  16.769  0.1688  0.1475  0.0055
32045W        W74983  30.176   6.541  18.596  0.0696  0.0104 -0.1766
32046W        W74984  30.895   4.474  17.965  0.0789  0.0917 -0.0830
32047W        W74985  28.568   4.679  19.884  0.2378  0.0725 -0.3004
32048W        W74986  32.247   4.291  18.582  0.0407 -0.1585  0.1810
32049W        W74987  28.796   5.473  17.603  0.1294 -0.0553 -0.4334
32050W        W74988  29.376   6.908  20.171  0.1614 -0.3884  0.1230
32051W        W74989  31.721   2.820  17.702 -0.0610  0.0207  0.2268
32052W        W74990  32.994   4.630  17.055  0.4730  0.1807 -0.3412
32053W        W74991  30.762   5.446  20.119 -0.0520  0.1026  0.1345
32054W        W74992  31.419   6.984  16.654 -0.1880  0.1720 -0.0838
32055W        W74993  30.872   4.699  16.700 -0.0391  0.1635 -0.1400
32056W        W74994  31.113   3.837  17.531  0.2674 -0.0528 -0.0928
32057W        W74995  30.047   6.076  21.125 -0.1835 -0.3652 -0.0140
32058W        W74996  31.727   8.104  17.018 -0.1452 -0.1189  0.0489
32059W        W74997  30.535   6.629  19.745 -0.3416  0.1916  0.1944
32060W        W74998  31.556   5.020  17.306  0.2561 -0.0492  0.1978
32061W        W74999  31.536   6.372  18.280  0.0266 -0.0324 -0.1012
32062W        W75000  28.377   7.740  18.754 -0.0356 -0.0646 -0.1461
32063W        W75001  31.358   5.908  18.412 -0.0190  0.0513 -0.0436
32064W        W75002  30.986   6.438  18.264 -0.1338 -0.0143  0.1115
32065W        W75003  32.637   2.756  18.603 -0.0749  0.1619  0.0477
32066W        W75004  30.329   4.574  17.906 -0.3037  0.1920 -0.1010
32067W        W75005  29.010   5.701  19.282 -0.2932 -0.0109 -0.0040
32068W        W75006  30.061   6.951  16.749  0.2990 -0.1040  0.0324
32069W        W75007  32.216   4.088  19.137 -0.0198 -0.2280  0.0784
32070W        W75008  30.629   4.955  17.136  0.2791 -0.1733 -0.0417
32071W        W75009  30.253   4.100  18.854 -0.0091  0.1917  0.2988
32072W        W75010  30.561   5.289  21.131  0.1008  0.0554  0.1197
32073W        W75011  32.578   5.173  16.897 -0.0924 -0.3254  0.0864
32074W        W75012  31.604   5.049  18.972  0.1277  0.0425  0.2644
32075W        W75013  30.078   5.506  16.511  0.2213 -0.0297  0.2933
32076W        W75014  31.406   3.817  19.645 -0.0530  0.3097 -0.0728
32077W        W75015  29.494   5.414  20.037 -0.0492 -0.1936  0.0140
32078W        W75016  29.376   7.373  19.150 -0.2010  0.1817  0.2011
32079W        W75017  32.247   5.178  19.031 -0.0262  0.3041 -0.2378
32080W        W75018  30.929   5.197  16.795  0.1312  0.1279  0.4186
32081W        W75019  30.263   4.566  18.991  0.1350  0.0646 -0.1276
32082W        W75020  31.493   3.907  17.254 -0.0834 -0.1631 -0.3274
32083W        W75021  30.338   6.758  17.700  0.0902 -0.0910  0.0701
32084W        W75022  29.619   6.059  16.735  0.3099 -0.1497 -0.0097
32085W        W75023  29.517   5.176  18.726 -0.0533 -0.0857 -0.0901
32086W        W75024  31.834   7.849  18.111 -0.1595 -0.1764  0.0739
32087W        W75025  28.995   6.212  16.371  0.3670 -0.3399 -0.2333
32088W        W75026  30.432   5.182  19.777 -0.4716 -0.1512 -0.0761
32089W        W75027  29.891   7.091  17.633 -0.0293  0.0785  0.0917
32090W        W75028  31.926   3.166  19.311 -0.2068 -0.0473  0.1647
32091W        W75029  29.158   8.211  20.022  0.0944  0.0866 -0.0887
32092W        W75030  29.693   4.981  17.816  0.1073  0.0214  0.0976
32093W        W75031  28.613   4.480  17.208 -0.1216 -0.1536 -0.0821
32094W        W75032  32.506   3.446  16.436  0.3286  0.0820  0.0402
32095W        W75033  32.133   5.854  16.685 -0.1201  0.0337 -0.2182
32096W        W75034  28.151   5.575  18.640 -0.0592 -0.2941  0.2567
32097W        W75035  31.219   4.049  18.499  0.1785  0.1460 -0.0585
32098W        W75036  27.817   7.543  18.516  0.0668 -0.3099 -0.3517
32099W        W75037  32.463   5.778  19.872  0.2530 -0.0970 -0.0383
32100W        W75038  33.042   3.661  16.940  0.6947  0.1179 -0.2991
32101W        W75039  33.359   5.940  17.482  0.2076  0.0357  0.5547
32102W        W75040  31.110   4.944  18.831  0.0548 -0.0973  0.2235
32103W        W75041  29.102   5.484  17.209 -0.1220  0.0176  0.1275
32104W        W75042  32.979   4.726  19.121 -0.2727 -0.2665  0.2096
32105W        W75043  30.433   5.997  18.407 -0.2007 -0.0033 -0.1080
32106W        W75044  29.369   6.337  17.482  0.2442  0.0491 -0.1675
32107W        W75045  31.334   8.150  18.523  0.0745  0.2893 -0.1402
32108W        W75046  29.320   5.162  18.191 -0.0216  0.2337 -0.1775
32109W        W75047  30.170   7.626  17.534 -0.0779 -0.0485  0.1538
32110W        W75048  29.123   4.132  19.201 -0.0921  0.4470  0.4097
32111W        W75049  31.636   6.678  17.454 -0.0346 -0.0318  0.1135
32112W        W75050  30.724   5.168  17.624  0.0805  0.0203 -0.1594
32113W        W75051  29.865   5.261  16.919 -0.0568 -0.0739  0.0927
32114W        W75052  29.631   4.812  16.930  0.1254 -0.1290 -0.1594
32115W        W75053  31.998   5.511  17.751  0.3520 -0.4807  0.0446
32116W        W75054  30.716   5.088  19.381 -0.2904  0.1546 -0.4196
32117W        W75055  30.901   6.381  20.786  0.2123 -0.0393  0.1404
32118W        W75056  30.987   4.103  19.529 -0.1069 -0.1802  0.0212
32119W        W75057  33.388   6.528  18.185  0.1320  0.0725 -0.0678
32120W        W75058  31.757   3.953  19.279 -0.2126 -0.4174 -0.1751
32121W        W75059  29.622   5.593  16.656 -0.0400  0.1462  0.0106
32122W        W75060  28.827   6.354  17.820  0.0263  0.1210  0.3032
32123W        W75061  30.190   7.263  17.972 -0.2534 -0.1549 -0.0694
32124W        W75062  29.564   4.868  20.134  0.0277 -0.2633  0.0800
32125W        W75063  29.427   7.438  18.302  0.2013 -0.1306  0.0811
32126W        W75064  29.130   6.718  16.555  0.2826 -0.1438 -0.1089
32127W        W75065  29.229   7.158  19.663 -0.1050 -0.0180  0.1284
32128W        W75066  32.193   4.363  17.312 -0.1724  0.2156 -0.3708
32129W        W75067  29.960   6.175  17.236  0.2636 -0.0567  0.3608
32130W        W75068  30.515   5.986  17.905 -0.1197  0.0699  0.2288
32131W        W75069  32.897   5.519  20.616 -0.3313 -0.1611  0.0099
32132W        W75070  32.408   4.918  16.508 -0.2827 -0.0549  0.3240
32133W        W75071  31.445   3.365  21.055  0.1530  0.1700 -0.0936
32134W        W75072  29.981   3.776  19.870  0.2829 -0.0032  0.1617
32135W        W75073  31.497   6.197  17.446  0.4701 -0.1278 -0.1251
32136W        W75074  28.693   4.510  19.135 -0.1839 -0.0267 -0.3678
32137W        W75075  32.629   7.716  22.178  0.0354  0.1922 -0.1949
32138W        W75076  29.018   5.952  20.457  0.0449 -0.2191  0.0172
32139W        W75077  30.529   4.411  18.406 -0.3227 -0.2762 -0.0541
32140W        W75078  28.935   3.233  16.661 -0.1264  0.1937  0.3028
32141W        W75079  31.363   6.700  19.902 -0.2316 -0.0982 -0.0181
32142W        W75080  31.560   5.523  17.508 -0.4073 -0.0002  0.0439
32143W        W75081  31.591   6.387  17.005 -0.4895  0.0994 -0.0197
32144W        W75082  31.738   5.746  16.979 -0.2277 -0.1160 -0.0561
32145W        W75083  29.421   6.017  19.221 -0.0361  0.2098  0.1234
32146W        W75084  32.277   6.251  18.295  0.1504  0.0081  0.0313
32147W        W75085  29.928   5.604  17.273 -0.2125  0.0591 -0.1818
32148W        W75086  29.395   6.019  18.609 -0.3447 -0.3161  0.1379
32149W        W75087  31.252   4.626  19.771 -0.2668  0.4452 -0.0743
32150W        W75088  31.297   5.791  17.218  0.0732  0.0780  0.3097
32151W        W75089  32.077   5.934  18.023 -0.2001 -0.2597  0.0450
32152W        W75090  32.073   4.736  18.640 -0.2347  0.2866  0.0144
32153W        W75091  31.790   4.636  19.735  0.1898 -0.1470  0.0612
32154W        W75092  31.173   4.877  18.173 -0.1442  0.0766  0.0319
32155W        W75093  29.413   5.154  19.584  0.4992 -0.0670  0.0946
32156W        W75094  31.490   7.783  19.545  0.0400 -0.1185 -0.0960
32157W        W75095  32.922   4.304  16.277 -0.2563  0.2047 -0.0672
32158W        W75096  33.471   4.237  19.688 -0.0098 -0.0803  0.1633
32159W        W75097  34.006   6.429  18.927  0.1288  0.1084  0.0416
32160W        W75098  31.358   5.791  16.189  0.0725 -0.0536  0.1681
32161W        W75099  27.610   5.708  19.459 -0.0548 -0.3640  0.1727
32162W        W75100  32.182   5.041  18.005 -0.5663 -0.1009  0.1879
32163W        W75101  29.557   4.251  16.632 -0.0326  0.0339  0.1178
32164W        W75102  29.826   4.023  19.074 -0.0815  0.0150 -0.3854
32165W        W75103  31.572   6.077  16.596  0.0016 -0.2589 -0.2725
32166W        W75104  31.117   6.139  16.932 -0.2174 -0.2209 -0.1352
32167W        W75105  31.651   5.128  17.814 -0.1570  0.1126  0.1686
32168W        W75106  28.168   5.024  17.902 -0.2138 -0.2183 -0.5059
32169W        W75107  28.270   8.277  20.188  0.0936  0.0962 -0.0739
32170W        W75108  29.886   4.145  17.368  0.2802 -0.0542  0.5159
32171W        W75109  29.815   6.010  17.665 -0.1643  0.0917  0.3947
32172W        W75110  30.529   7.031  19.376 -0.2882  0.2041  0.3958
32173W        W75111  31.227   5.667  20.168  0.1521  0.0186  0.2308
32174W        W75112  30.956   3.080  17.423 -0.1145  0.1020 -0.1118
32175W        W75113  31.507   3.444  20.540 -0.3083 -0.1324  0.1067
32176W        W75114  29.346   7.273  16.735  0.0824 -0.0845 -0.1453
32177W        W75115  31.859   4.002  18.272 -0.0446  0.0836  0.0755
32178W        W75116  29.569   8.586  17.935 -0.1228 -0.3345  0.0259
32179W        W75117  29.073   6.499  18.506  0.1745  0.1330 -0.0961
32180W        W75118  30.342   6.585  16.529  0.0970  0.2471 -0.2055
32181W        W75119  32.974   4.233  19.729  0.3115  0.2729 -0.2528
32182W        W75120  32.281   5.589  19.372 -0.0259  0.3236 -0.2324
32183W        W75121  31.602   6.496  19.172 -0.3321  0.0698 -0.0384
32184W        W75122  31.469   6.174  19.958 -0.2599  0.1636 -0.1680
32185W        W75123  31.159   5.937  20.579  0.4636 -0.1022  0.2055
32186W        W75124  30.188   6.381  19.041 -0.1325 -0.3397  0.1261
32187W        W75125  30.937   6.434  19.977 -0.0388 -0.1435 -0.0679
32188W        W75126  31.150   5.633  18.764 -0.0395 -0.1240  0.1529
32189W        W75127  29.403   7.419  17.825 -0.0847 -0.1297  0.1828
32190W        W75128  28.713   5.293  18.521 -0.0210  0.0393 -0.3457
32191W        W75129  32.612   5.443  21.077  0.1840  0.1781 -0.1978
32192W        W75130  31.784   5.046  18.259  0.4149  0.0960  0.1380
32193W        W75131  31.184   2.695  17.148  0.1448 -0.0416  0.1205
32194W        W75132  30.859   7.363  15.552 -0.0173  0.1522 -0.1976
32195W        W75133  30.683   6.424  20.373  0.1384  0.1221  0.3582
32196W        W75134  28.626   4.972  18.926 -0.1917 -0.0281 -0.0604
32197W        W75135  30.195   8.724  17.268 -0.0761 -0.1033 -0.1150
32198W        W75136  31.162   7.390  17.402 -0.0556 -0.1558 -0.0904
32199W        W75137  29.743   5.631  18.614 -0.0269 -0.2132 -0.2022
32200W        W75138  32.201   6.698  18.685  0.0019 -0.2340  0.0858
32201W        W75139  31.489   3.083  17.320  0.0382 -0.3371  0.2791
32202W        W75140  29.245   6.432  18.970 -0.0708  0.1257 -0.1448
32203W        W75141  28.644   7.545  16.395  0.1486 -0.2760 -0.0313
32204W        W75142  30.992   7.185  16.536 -0.1892  0.0568  0.1142
32205W        W75143  29.408   6.815  17.470  0.3308  0.1266 -0.1852
32206W        W75144  30.827   5.621  19.128 -0.1138  0.0321 -0.1599
32207W        W75145  33.080   4.045  15.835  0.0926 -0.2505  0.0853
32208W        W75146  32.247   6.026  17.134  0.2991  0.1853 -0.2140
32209W        W75147  32.726   6.048  16.862  0.1111  0.0636  0.1737
32210W        W75148  31.091   6.691  21.066 -0.0067  0.1269 -0.1793
32211W        W75149  30.332   6.104  20.141  0.0184 -0.0139 -0.1344
32212W        W75150  30.446   3.149  17.265  0.0644 -0.0421  0.0586
32213W        W75151  28.956   5.320  19.746 -0.0379 -0.1754  0.0478
32214W        W75152  32.288   4.999  21.344 -0.3258  0.0176 -0.1567
32215W        W75153  29.024   7.915  21.467 -0.1055 -0.3840 -0.0975
32216W        W75154  31.478   7.072  17.145 -0.0414 -0.1547  0.2255
32217W        W75155  29.768   4.597  18.936  0.1871 -0.2605 -0.1590
32218W        W75156  30.394   5.529  17.497 -0.2033 -0.2525 -0.0216
32219W        W75157  32.869   4.250  19.222  0.5022 -0.1919  0.0724
32220W        W75158  30.648   6.076  15.982  0.1030  0.2260 -0.0513
32221W        W75159  30.841   5.728  18.289  0.1602  0.0807 -0.1105
32222W        W75160  30.751   6.668  18.673 -0.1234  0.0129  0.2906
32223W        W75161  30.438   7.795  18.789 -0.0309 -0.1927  0.2736
32224W        W75162  30.660   8.160  17.255  0.0580  0.0547  0.2453
32225W        W75163  28.892   4.223  18.760  0.1362 -0.2779  0.2073
32226W        W75164  32.594   5.517  18.870  0.0348  0.0550  0.0749
32227W        W75165  30.292   6.221  19.511 -0.1552 -0.0427  0.3262
32228W        W75166  32.053   4.916  17.544 -0.0047  0.3037 -0.3388
32229W        W75167  30.160   8.295  18.791 -0.4418  0.0528  0.0510
32230W        W75168  31.220   5.340  18.086 -0.0179 -0.0667  0.0406
32231W        W75169  31.025   6.325  19.076 -0.1174  0.2949 -0.4646
32232W        W75170  28.886   6.073  18.859 -0.2509  0.0338  0.0145
32233W        W75171  30.126   4.856  17.027 -0.1586  0.0085 -0.0211
32234W        W75172  32.563   6.356  18.778  0.0736 -0.0109 -0.3084
32235W        W75173  30.677   6.620  17.300 -0.2060  0.2661 -0.2287
32236W        W75174  31.603   6.941  20.363 -0.2662  0.0328 -0.1259
32237W        W75175  29.004   4.240  18.222 -0.0505 -0.3762 -0.1017
32238W        W75176  32.581   3.859  16.040 -0.0582 -0.0774  0.0704
32239W        W75177  29.089   6.059  18.220  0.1653  0.1412 -0.1373
32240W        W75178  29.722   6.383  19.367 -0.0193 -0.0836  0.1308
32241W        W75179  31.360   7.524  19.151  0.3771 -0.0326  0.1113
32242W        W75180  29.640   3.560  18.086  0.0167 -0.0342  0.1072
32243W        W75181  31.726   6.591  16.367 -0.1521 -0.1020 -0.0498
32244W        W75182  31.930   5.965  17.509 -0.3168 -0.1270 -0.1230
32245W        W75183  30.727   5.739  17.169 -0.1656  0.1501 -0.3987
32246W        W75184  32.024   5.390  17.172 -0.2502 -0.3537  0.1995
32247W        W75185  32.171   7.193  18.918 -0.1442 -0.0278 -0.0058
32248W        W75186  28.563   5.042  17.632  0.0036 -0.1458 -0.0098
32249W        W75187  33.930   6.702  18.364 -0.0783 -0.2515 -0.1816
32250W        W75188  32.310   6.869  17.066 -0.0845 -0.2165 -0.3319
32251W        W75189  29.842   4.504  18.055  0.0441 -0.1827  0.2712
32252W        W75190  30.190   5.620  18.714 -0.1599 -0.1188  0.0049
32253W        W75191  28.724   7.014  16.987  0.4063  0.1396  0.0554
32254W        W75192  32.797   3.794  18.385 -0.1194  0.4265  0.0462
32255W        W75193  32.039   3.817  18.701 -0.3046 -0.2963 -0.0917
32256W        W75194  28.677   6.537  16.847  0.2870  0.0447  0.0545
32257W        W75195  31.803   2.648  19.303  0.2745  0.0310  0.3193
32258W        W75196  31.044   5.406  19.641 -0.1492  0.3936 -0.2218
32259W        W75197  30.606   5.983  20.565 -0.1288 -0.0189 -0.0564
32260W        W75198  29.503   5.495  17.525  0.0204 -0.1583  0.0838
32261W        W75199  30.352   4.420  21.232 -0.1393 -0.0967 -0.0684
32262W        W75200  30.999   5.619  17.681  0.2794 -0.1698 -0.4958
32263W        W75201  30.881   7.906  17.709  0.0690  0.2652 -0.0402
32264W        W75202  32.790   6.215  18.364  0.0955 -0.1448 -0.0817
32265W        W75203  31.110   4.699  17.140  0.3525  0.1249 -0.1444
32266W        W75204  32.313   7.006  18.285  0.3354  0.2104  0.1700
32267W        W75205  29.820   5.275  18.270 -0.0532  0.0543  0.0341
32268W        W75206  33.448   4.828  16.868  0.2626 -0.3372  0.3522
32269W        W75207  32.524   2.961  16.623 -0.2760  0.0463 -0.1975
32270W        W75208  29.201   5.801  17.683 -0.2612 -0.0288 -0.2422
32271W        W75209  28.842   4.528  16.545  0.0575  0.1132 -0.2257
32272W        W75210  29.949   6.400  16.701  0.2324 -0.0805  0.3366
32273W        W75211  30.409   6.229  17.031 -0.1488  0.1319  0.4359
32274W        W75212  31.153   3.169  19.446  0.1243  0.0925  0.0419
32275W        W75213  30.318   5.609  19.354  0.0588  0.3306 -0.3757
32276W        W75214  29.503   5.654  18.108  0.0197 -0.0537 -0.1617
32277W        W75215  29.922   4.643  17.460 -0.1185  0.0614  0.2029
32278W        W75216  31.925   7.175  16.529  0.0143 -0.1063  0.0528
32279W        W75217  29.147   3.533  19.138  0.0229  0.3167  0.0619
32280W        W75218  28.903   3.911  17.358  0.0543  0.0312 -0.2323
32281W        W75219  31.021   6.070  17.939 -0.1846 -0.1424 -0.2333
32282W        W75220  30.155   6.639  17.136 -0.0772  0.0644  0.2083
32283W        W75221  28.511   4.272  19.588  0.0956  0.5453  0.1184
32284W        W75222  31.791   5.883  19.329  0.0840 -0.0444 -0.0356
32285W        W75223  29.164   6.142  15.914 -0.0842 -0.1402 -0.3588
32286W        W75224  31.593   4.863  20.203 -0.0056 -0.0701 -0.1571
32287W        W75225  30.749   4.378  18.872 -0.2987  0.3150 -0.1686
32288W        W75226  29.114   4.640  16.920 -0.0139 -0.2550  0.3020
32289W        W75227  31.448   4.436  18.117  0.1304  0.3403  0.3422
32290W        W75228  30.726   8.839  17.107 -0.4805  0.0880 -0.1682
32291W        W75229  31.153   7.940  17.113 -0.0057 -0.1792 -0.1719
32292W        W75230  30.953   6.113  18.642  0.1194  0.0849  0.1890
32293W        W75231  29.196   7.754  18.691  0.1797  0.0799 -0.1857
32294W        W75232  30.030   5.216  18.894  0.2237  0.2187  0.0694
32295W        W75233  31.681   5.542  16.540  0.1468 -0.1751  0.0504
32296W        W75234  30.021   6.764  19.371 -0.0596 -0.0445  0.0764
32297W        W75235  32.083   6.742  15.993 -0.1132  0.3884 -0.0713
32298W        W75236  31.217   4.872  17.657  0.0203  0.2906  0.1787
32299W        W75237  31.895   5.042  16.620  0.2475  0.2703 -0.0381
32300W        W75238  29.092   4.922  18.592  0.2729  0.0335  0.3739
32301W        W75239  29.674   6.512  20.271  0.0510  0.0158 -0.2044
32302W        W75240  31.846   5.368  19.252  0.0713  0.0860 -0.0659
32303W        W75241  28.742   3.810  19.057 -0.1303 -0.0637 -0.1826
32304W        W75242  31.974   3.919  17.385  0.0735 -0.0143 -0.2833
32305W        W75243  31.116   5.296  17.248  0.0471 -0.1555  0.3679
32306W        W75244  29.042   6.748  18.049 -0.1531  0.2329 -0.0842
32307W        W75245  29.967   5.435  17.756 -0.0792 -0.2145 -0.2910
32308W        W75246  31.825   6.432  19.696  0.3457 -0.1615  0.2134
32309W        W75247  30.581   6.073  18.994  0.0609 -0.1335 -0.0414
32310W        W75248  31.878   6.353  20.148 -0.4498 -0.0846 -0.3045
32311W        W75249  31.452   5.217  16.839  0.0067 -0.2661 -0.2088
32312W        W75250  32.777   5.529  16.554  0.1050 -0.0327 -0.0686
32313W        W75251  31.288   8.367  18.054 -0.0620 -0.0428  0.1069
32314W        W75252  32.837   6.465  21.587 -0.1295  0.1259 -0.1086
32315W        W75253  31.373   6.127  19.448 -0.1518  0.0361 -0.3034
32316W        W75254  31.551   5.991  21.860 -0.0887 -0.0508  0.0295
32317W        W75255  31.434   3.709  18.131 -0.0006  0.0586 -0.5454
32318W        W75256  29.868   6.540  17.609 -0.2913 -0.1385 -0.0882
32319W        W75257  30.356   6.277  17.560  0.3932 -0.4494 -0.0055
32320W        W75258  32.074   5.116  20.222  0.0662 -0.0888 -0.2564
32321W        W75259  28.816   5.056  18.097 -0.0411  0.1481 -0.4264
32322W        W75260  31.266   4.257  17.022 -0.0374 -0.2668 -0.0161
32323W        W75261  31.429   6.446  20.362 -0.0920  0.0705 -0.1170
32324W        W75262  30.794   8.118  18.867 -0.0025  0.0128  0.0511
32325W        W75263  30.878   5.883  23.206 -0.1333  0.0336 -0.2407
32326W        W75264  29.624   3.934  22.290 -0.2443 -0.1315  0.1562
32327W        W75265  32.704   3.887  20.055  0.0662 -0.0089  0.1052
32328W        W75266  31.954   4.656  20.995  0.2102 -0.0626 -0.1174
32329W        W75267  30.229   4.194  20.032  0.2085 -0.0071 -0.1550
32330W        W75268  32.136   5.953  20.367 -0.0311  0.0433  0.0560
32331W        W75269  29.297   2.930  23.011 -0.0914  0.0831 -0.3560
32332W        W75270  29.989   4.829  22.668  0.1243  0.1938  0.2538
32333W        W75271  31.002   5.598  22.761 -0.2337 -0.1281 -0.0613
32334W        W75272  30.627   5.682  19.732 -0.2308 -0.0061 -0.2352
32335W        W75273  30.419   4.141  21.716  0.0870 -0.1855 -0.0761
32336W        W75274  31.476   6.164  23.937 -0.0480  0.0428 -0.0042
32337W        W75275  29.774   4.970  20.873  0.2234 -0.0119 -0.3476
32338W        W75276  30.409   4.221  23.033 -0.2288  0.2246 -0.0189
32339W        W75277  31.102   5.759  21.769 -0.1460 -0.2805 -0.0186
32340W        W75278  28.430   5.286  21.154  0.0893  0.1152  0.1826
32341W        W75279  28.619   4.573  22.545 -0.0981 -0.0391 -0.0645
32342W        W75280  29.742   5.104  21.363  0.0199  0.2087 -0.0319
32343W        W75281  30.644   7.880  22.143 -0.2783 -0.3338  0.2193
32344W        W75282  30.814   3.966  22.715  0.4205 -0.0544 -0.1688
32345W        W75283  30.090   2.268  24.774  0.1529  0.0559  0.0689
32346W        W75284  32.593   7.343  19.934  0.0891 -0.0457 -0.2966
32347W        W75285  28.915   4.408  20.315  0.1280 -0.0517  0.0192
32348W        W75286  27.867   5.578  20.284 -0.1033 -0.0038 -0.5307
32349W        W75287  30.597   4.409  24.299 -0.4256 -0.0106  0.0673
32350W        W75288  31.649   3.453  21.657 -0.0230  0.0223  0.3041
32351W        W75289  31.208   6.747  21.713  0.1171  0.0210 -0.0016
32352W        W75290  31.220   7.809  22.774  0.3511 -0.3453 -0.1322
32353W        W75291  30.505   6.436  22.134  0.3033 -0.3790  0.2146
32354W        W75292  31.611   4.437  22.312  0.0973 -0.0769 -0.0688
32355W        W75293  29.619   5.784  21.202  0.0472 -0.3338  0.2604
32356W        W75294  28.388   7.456  22.715  0.0082 -0.3518  0.1385
32357W        W75295  30.338   6.344  20.746 -0.0990  0.0194  0.1886
32358W        W75296  33.226   6.357  21.899  0.1547  0.1826  0.2350
32359W        W75297  31.897   7.053  24.015  0.0039  0.0644  0.1003
32360W        W75298  30.158   6.016  23.625 -0.0208  0.1547  0.0273
32361W        W75299  29.428   6.074  20.708  0.1219 -0.4529 -0.0396
32362W        W75300  30.372   7.520  22.412 -0.2377  0.1722 -0.4094
32363W        W75301  29.961   8.299  22.658  0.0193  0.2894 -0.2091
32364W        W75302  31.024   4.754  22.928  0.3472  0.1600  0.0594
32365W        W75303  31.722   4.982  20.698  0.0026  0.1406 -0.0535
32366W        W75304  30.228   5.286  20.729 -0.0343 -0.1903  0.1866
32367W        W75305  30.109   7.100  21.195  0.0692  0.1093 -0.1259
32368W        W75306  30.516   6.762  22.810  0.0310  0.0313  0.0588
32369W        W75307  29.186   5.906  23.106 -0.1912 -0.3251  0.1772
32370W        W75308  32.396   4.146  24.279  0.1264 -0.2807  0.2080
32371W        W75309  29.519   5.927  20.214 -0.1313 -0.3381  0.2049
32372W        W75310  32.874   5.002  20.788  0.0062 -0.0230 -0.0492
32373W        W75311  30.645   5.012  20.752  0.0048  0.0376  0.0993
32374W        W75312  32.260   4.227  20.013 -0.0671  0.3283  0.2304
32375W        W75313  29.128   3.820  22.352 -0.0318  0.1990 -0.0013
32376W        W75314  31.688   7.254  23.376  0.0745 -0.0262 -0.0796
32377W        W75315  30.709   4.498  23.388  0.1306 -0.0086 -0.1157
32378W        W75316  31.574   5.149  23.064 -0.1259  0.5141 -0.1517
32379W        W75317  30.231   4.904  21.232  0.1171  0.2507  0.0988
32380W        W75318  30.978   5.310  21.449 -0.1531  0.0793 -0.0272
32381W        W75319  29.253   5.272  22.718 -0.2594  0.0123  0.2396
32382W        W75320  29.713   5.775  23.086  0.1740 -0.0476  0.0272
32383W        W75321  31.422   6.332  20.903 -0.0858 -0.0441  0.1056
32384W        W75322  32.632   7.069  22.335 -0.1847  0.2996 -0.0512
32385W        W75323  31.682   6.830  21.995 -0.2708 -0.0680  0.3204
32386W        W75324  27.398   5.342  20.544 -0.2548  0.3719  0.1617
32387W        W75325  30.721   5.142  22.725  0.0537 -0.1197 -0.1090
32388W        W75326  29.986   4.959  21.821  0.0903  0.0119 -0.2800
32389W        W75327  31.841   3.292  20.142  0.1643  0.0196  0.5040
32390W        W75328  33.212   5.414  24.523 -0.3001  0.1919  0.0197
32391W        W75329  29.159   6.190  22.652  0.0585 -0.0045  0.1814
32392W        W75330  31.761   4.897  21.546 -0.1140  0.3479 -0.1271
32393W        W75331  29.531   6.225  22.936 -0.0385 -0.3841 -0.1534
32394W        W75332  31.356   6.326  23.202  0.0097 -0.0671 -0.1170
32395W        W75333  30.170   5.797  21.525 -0.3097 -0.0412 -0.0526
32396W        W75334  32.245   3.698  22.706  0.1725 -0.3898 -0.0273
32397W        W75335  31.502   3.530  23.804 -0.1644 -0.1359 -0.1160
32398W        W75336  29.895   5.905  19.595 -0.3114  0.0595 -0.1696
32399W        W75337  31.091   6.244  21.893  0.1650 -0.2414 -0.1251
32400W        W75338  31.613   5.718  24.214 -0.1216 -0.0928  0.1308
32401W        W75339  32.048   4.566  22.684  0.2991 -0.0312  0.2564
32402W        W75340  30.559   7.037  21.553  0.1918 -0.1942 -0.0706
32403W        W75341  31.696   4.654  24.607 -0.0001 -0.4376  0.1823
32404W        W75342  31.912   7.180  25.039  0.0271 -0.2386 -0.1220
32405W        W75343  30.658   6.966  20.323  0.0858  0.0553  0.3472
32406W        W75344  27.840   6.297  21.550  0.0371  0.1386 -0.1613
32407W        W75345  30.991   7.317  21.502 -0.0513 -0.0168  0.0598
32408W        W75346  28.377   4.512  24.010 -0.1082  0.1978 -0.0040
32409W        W75347  31.614   6.265  24.428  0.2061 -0.0730 -0.0147
32410W        W75348  30.639   3.523  20.158  0.0221 -0.0152  0.0645
32411W        W75349  30.124   4.339  22.648  0.2153 -0.1218  0.2922
32412W        W75350  32.771   4.790  22.093 -0.0049 -0.1849 -0.0673
32413W        W75351  29.873   7.267  21.617  0.0970  0.2725  0.4490
32414W        W75352  32.333   6.188  21.738  0.2021 -0.0542  0.1901
32415W        W75353  31.445   5.847  21.287  0.0160 -0.0166  0.1101
32416W        W75354  31.776   7.126  21.097  0.0600  0.2650  0.1040
32417W        W75355  30.709   5.405  21.852  0.1559  0.1431  0.1871
32418W        W75356  29.664   4.456  22.379  0.1042 -0.3283  0.1121
32419W        W75357  30.963   5.093  22.244 -0.2156  0.0815 -0.0188
32420W        W75358  28.364   4.034  21.870 -0.1343  0.2531  0.1147
32421W        W75359  31.930   4.904  24.072 -0.0447  0.0481 -0.2691
32422W        W75360  30.145   4.717  22.204 -0.0554  0.1454  0.1521
32423W        W75361  32.683   5.574  22.090 -0.1078 -0.0136  0.1753
32424W        W75362  30.639   5.747  21.442  0.1158 -0.1572 -0.3430
32425W        W75363  28.119   6.483  21.888  0.2800 -0.1696 -0.1249
32426W        W75364  30.344   3.325  22.896  0.1962 -0.0028 -0.1436
32427W        W75365  32.279   7.129  21.310 -0.3000 -0.2156  0.0761
32428W        W75366  32.551   6.645  24.892  0.1029 -0.4629  0.0862
32429W        W75367  32.809   5.892  21.086  0.0613 -0.2448 -0.2346
32430W        W75368  28.379   5.445  22.565  0.0031  0.3769 -0.0393
32431W        W75369  29.473   4.643  19.493 -0.0824  0.2987  0.1021
32432W        W75370  30.575   7.478  23.409 -0.4259 -0.2453 -0.2173
32433W        W75371  32.353   6.143  22.286  0.1167 -0.0638  0.3048
32434W        W75372  31.445   4.297  19.482 -0.0963  0.2568  0.1311
32435W        W75373  33.064   7.375  23.425  0.1488  0.1666  0.0186
32436W        W75374  31.882   6.381  21.878  0.0218  0.1910  0.1051
32437W        W75375  30.090   4.746  23.661 -0.1542 -0.2336 -0.0121
32438W        W75376  31.141   4.206  21.205 -0.0634  0.3118 -0.2201
32439W        W75377  33.314   5.849  24.465 -0.1864  0.1283  0.0251
32440W        W75378  30.929   5.958  21.047  0.0072  0.0590  0.1259
32441W        W75379  29.890   5.392  19.537 -0.4804 -0.0775 -0.0219
32442W        W75380  30.411   7.984  21.687  0.0729  0.0144  0.2103
32443W        W75381  29.721   7.741  20.012  0.0278 -0.2578 -0.0289
32444W        W75382  28.221   4.692  21.313 -0.0772 -0.0601 -0.0273
32445W        W75383  31.464   7.274  20.689 -0.0481 -0.0680  0.2872
32446W        W75384  31.089   2.829  22.862 -0.1385 -0.1868  0.0234
32447W        W75385  28.429   5.692  24.347  0.0931 -0.2429  0.3414
32448W        W75386  30.852   5.367  24.195 -0.0824 -0.1426 -0.1330
32449W        W75387  30.441   5.795  20.969  0.0637 -0.1315 -0.2729
32450W        W75388  30.418   4.722  21.733 -0.1892 -0.1223 -0.1596
32451W        W75389  30.374   3.328  19.736  0.2467 -0.2404 -0.0279
32452W        W75390  32.019   4.631  20.474  0.0826  0.2926 -0.2377
32453W        W75391  30.819   6.838  23.855 -0.0880  0.2371 -0.0307
32454W        W75392  31.921   6.905  19.828  0.0426  0.0006 -0.0821
32455W        W75393  30.305   5.616  20.367  0.1102  0.0770  0.2155
32456W        W75394  30.072   6.249  22.306  0.0502 -0.2009  0.1628
32457W        W75395  29.280   6.469  21.714 -0.2443  0.0941  0.0293
32458W        W75396  32.129   5.479  21.534  0.2338 -0.1076 -0.0683
32459W        W75397  30.844   7.974  21.395  0.1839 -0.0651  0.1563
32460W        W75398  32.068   4.937  19.446 -0.1108  0.1599  0.0217
32461W        W75399  32.167   6.040  19.597 -0.0011  0.1723  0.0711
32462W        W75400  30.041   4.797  24.243 -0.1361  0.1239 -0.1050
32463W        W75401  32.204   6.203  24.925 -0.1126  0.2238  0.0568
32464W        W75402  31.837   5.459  22.192 -0.2092 -0.1477  0.1260
32465W        W75403  29.140   3.429  23.418  0.1801  0.1062  0.0493
32466W        W75404  31.384   5.252  18.527  0.0616  0.0004 -0.1404
32467W        W75405  31.062   4.596  20.277  0.0581  0.0574  0.0500
32468W        W75406  30.285   6.651  20.184  0.1454  0.5179 -0.1066
32469W        W75407  31.162   3.392  23.496  0.0847  0.1141  0.2012
32470W        W75408  31.680   2.609  23.808 -0.1087 -0.1272  0.0161
32471W        W75409  31.919   3.989  21.718 -0.1016 -0.4161  0.2200
32472W        W75410  30.681   3.992  23.427  0.0240  0.1379 -0.0252
32473W        W75411  32.332   4.263  20.933  0.3112  0.2074  0.1694
32474W        W75412  31.941   5.687  21.078  0.2469  0.1640  0.0098
32475W        W75413  29.086   5.241  19.026  0.1648 -0.3837 -0.0143
32476W        W75414  31.598   2.764  23.282  0.1099  0.3005 -0.1719
32477W        W75415  30.498   6.331  22.651 -0.0341  0.1050  0.4424
32478W        W75416  29.880   6.474  23.833 -0.0503 -0.0212 -0.2036
32479W        W75417  32.371   5.719  24.262  0.0645  0.1152  0.0937
32480W        W75418  30.232   6.270  21.631 -0.1751 -0.0972 -0.1288
32481W        W75419  30.707   4.189  23.866  0.4865 -0.1622  0.0249
32482W        W75420  29.975   4.673  20.351 -0.0266 -0.0551  0.0122
32483W        W75421  30.301   7.330  20.728 -0.0831 -0.1246  0.1593
32484W        W75422  31.040   5.497  20.985 -0.1298  0.1374  0.2968
32485W        W75423  29.834   4.446  19.893 -0.3721  0.1125  0.4875
32486W        W75424  31.027   6.179  22.877 -0.1953  0.0341 -0.0064
32487W        W75425  30.881   4.979  19.923  0.3133  0.2736  0.2206
32488W        W75426  30.809   4.549  20.864  0.1819  0.1341  0.0629
32489W        W75427  30.527   7.275  19.802 -0.1534 -0.1683  0.1145
32490W        W75428  32.882   4.326  22.386 -0.0869  0.0055  0.3015
32491W        W75429  29.399   6.326  21.158  0.3609  0.1248 -0.0877
32492W        W75430  29.423   5.665  19.580 -0.2023  0.1699 -0.0269
32493W        W75431  29.171   5.711  21.052 -0.1660  0.0250  0.0741
32494W        W75432  32.845   3.971  22.844 -0.0778  0.0381 -0.0196
32495W        W75433  33.150   5.786  22.031 -0.0562  0.1041 -0.0855
32496W        W75434  29.146   5.159  23.195 -0.0791 -0.2309  0.2213
32497W        W75435  30.941   3.083  21.136  0.1110 -0.1683 -0.1456
32498W        W75436  29.718   6.867  22.488 -0.3536  0.0998 -0.0446
32499W        W75437  31.775   4.296  23.682  0.4885 -0.1416 -0.2973
32500W        W75438  31.826   3.748  20.935 -0.3271 -0.1061 -0.0743
32501W        W75439  31.208   7.015  22.225  0.0569  0.1302  0.2555
32502W        W75440  29.460   5.794  25.055  0.0219 -0.0206  0.1440
32503W        W75441  28.331   4.229  21.067  0.0626  0.0946  0.2108
32504W        W75442  31.094   4.270  23.191  0.0080 -0.0166 -0.3334
32505W        W75443  30.429   5.911  22.856 -0.0499 -0.0918  0.0494
32506W        W75444  29.832   5.269  22.202  0.4007  0.0937 -0.2682
32507W        W75445  30.748   6.830  22.032  0.1701 -0.1461  0.1269
32508W        W75446  28.466   5.266  19.847  0.1079  0.2307  0.3375
32509W        W75447  29.944   6.399  19.862 -0.1424 -0.1315  0.0795
32510W        W75448  30.672   5.128  24.895  0.2441  0.0031 -0.2634
32511W        W75449  31.917   4.806  23.145  0.1656 -0.3090  0.1754
32512W        W75450  31.107   4.645  22.460 -0.1340 -0.1326 -0.0634
32513W        W75451  31.956   5.094  22.727  0.1780  0.0186  0.1807
32514W        W75452  30.911   5.527  23.685 -0.0329  0.4320  0.0934
32515W        W75453  31.581   5.089  24.403 -0.1900  0.0704  0.1089
32516W        W75454  31.022   4.737  24.162  0.3205  0.0869 -0.0230
32517W        W75455  29.862   6.127  24.843  0.0064 -0.2124 -0.2167
32518W        W75456  30.671   2.748  21.355  0.3495 -0.1735  0.0744
32519W        W75457  32.203   7.875  21.964  0.0060 -0.3933 -0.0638
32520W        W75458  31.101   5.003  23.617  0.0418  0.1743  0.2277
32521W        W75459  30.220   6.799  20.701  0.0849 -0.0454 -0.2302
32522W        W75460  31.240   5.917  23.580 -0.0763 -0.1707  0.1619
32523W        W75461  30.082   5.446  21.207  0.2581  0.3821 -0.0264
32524W        W75462  30.396   4.107  20.684 -0.2263  0.1972  0.0919
32525W        W75463  30.520   4.754  23.036 -0.0603  0.0456  0.0779
32526W        W75464  29.272   8.117  20.884  0.2368 -0.0329  0.0927
32527W        W75465  30.416   6.431  23.191  0.1808 -0.1187  0.3338
32528W        W75466  30.495   3.173  22.092  0.0789 -0.0583  0.0058
32529W        W75467  31.921   6.882  19.242 -0.3199 -0.1254  0.3456
32530W        W75468  31.170   4.940  20.942  0.3019 -0.1173 -0.0144
32531W        W75469  34.104   4.248  22.841  0.0802 -0.1401 -0.0089
32532W        W75470  32.580   5.731  21.587  0.2377  0.1926 -0.0200
32533W        W75471  31.953   3.056  23.099  0.2560  0.3803  0.2745
32534W        W75472  29.650   4.524  22.912  0.2725  0.2276  0.0494
32535W        W75473  32.881   8.205  22.515  0.1380 -0.0901  0.0729
32536W        W75474  29.152   4.697  23.327  0.0626  0.0902  0.1291
32537W        W75475  31.663   8.668  24.546 -0.2220 -0.0072 -0.1395
32538W        W75476  30.621   4.459  22.602  0.2497  0.3906 -0.4357
32539W        W75477  32.211   3.872  21.306  0.1210  0.0479 -0.2978
32540W        W75478  29.505   5.134  21.834 -0.0817  0.0227 -0.2252
32541W        W75479  31.136   5.271  23.124  0.0276 -0.0915  0.0191
32542W        W75480  31.992   6.485  23.117  0.1021  0.1538  0.3128
32543W        W75481  31.611   6.851  17.934 -0.0006 -0.0909 -0.1146
32544W        W75482  32.901   6.006  22.601 -0.0932  0.0165 -0.0360
32545W        W75483  28.508   6.677  23.901  0.1923  0.1078 -0.2298
32546W        W75484  31.428   5.352  21.241  0.0497  0.0673 -0.1667
32547W        W75485  31.288   5.454  22.102  0.1725 -0.0037 -0.0148
32548W        W75486  29.780   5.521  21.696  0.0738  0.0038  0.0768
32549W        W75487  29.565   4.524  25.249 -0.0037  0.0458 -0.0231
32550W        W75488  31.467   5.381  22.638 -0.3090  0.4269  0.2012
32551W        W75489  29.592   4.986  23.012  0.0247  0.0141  0.1689
32552W        W75490  31.322   4.659  21.411  0.0680  0.2483 -0.0653
32553W        W75491  31.940   3.937  23.051  0.2656  0.1612  0.0358
32554W        W75492  29.593   3.918  22.794 -0.0687 -0.0328 -0.0548
32555W        W75493  29.752   4.583  24.572  0.0237  0.0377  0.1003
32556W        W75494  31.678   6.620  23.969  0.2529  0.1088  0.0737
32557W        W75495  33.355   4.379  19.223 -0.0035  0.4682 -0.0890
32558W        W75496  31.613   3.833  22.595  0.1179  0.0956  0.0381
32559W        W75497  31.530   4.264  22.848  0.2460  0.0324 -0.0621
32560W        W75498  31.968   5.553  20.576 -0.0154  0.3193  0.1346
32561W        W75499  28.854   5.732  21.710 -0.1349 -0.1850 -0.2107
32562W        W75500  31.432   5.427  23.551 -0.0966 -0.1817  0.0221
32563W        W75501  29.604   5.222  20.460  0.1540  0.0004 -0.0955
32564W        W75502  31.293   2.955  23.799  0.1886 -0.0195  0.3031
32565W        W75503  30.838   5.937  20.090  0.0911  0.0971  0.4344
32566W        W75504  31.885   5.573  22.812 -0.3567 -0.0190  0.1091
32567W        W75505  29.973   4.528  19.388  0.1028 -0.1929  0.2786
32568W        W75506  29.514   4.402  21.515  0.1624  0.0686 -0.1877
32569W        W75507  29.596   6.833  24.903 -0.0227  0.0260  0.1396
32570W        W75508  29.017   4.546  21.344 -0.0176  0.3846 -0.0376
32571W        W75509  31.092   6.797  20.563 -0.0468  0.0360 -0.1149
32572W        W75510  30.882   6.644  23.107 -0.2649 -0.0075  0.1004
32573W        W75511  32.346   5.047  23.559 -0.1406  0.1624 -0.1129
32574W        W75512  31.848   3.064  20.797 -0.0923 -0.0332  0.3769
32575W        W75513  32.336   5.189  24.130 -0.0239 -0.2252  0.4160
32576W        W75514  29.931   5.963  20.458 -0.1399 -0.0800 -0.1815
32577W        W75515  31.186   4.176  20.095 -0.1424 -0.0718 -0.0448
32578W        W75516  30.706   7.973  22.664  0.2794  0.1690 -0.1335
32579W        W75517  28.832   5.870  22.337  0.2208 -0.1303  0.2268
32580W        W75518  30.581   6.247  21.208  0.1123  0.0356  0.1593
32581W        W75519  30.952   3.369  22.011  0.1260 -0.0437  0.0288
32582W        W75520  32.425   4.759  22.892 -0.1439  0.1173 -0.0081
32583W        W75521  30.972   6.910  22.689  0.2385 -0.1399 -0.0510
32584W        W75522  32.470   4.565  23.332 -0.3913  0.1370  0.0344
32585W        W75523  29.726   6.138  21.586 -0.1126 -0.0881  0.2710
32586W        W75524  29.953   5.909  22.631  0.0926 -0.1594 -0.5156
32587W        W75525  31.944   7.134  24.573  0.1345  0.0480  0.1784
32588W        W75526  33.194   6.785  21.637  0.3249  0.3685 -0.2281
32589W        W75527  30.266   5.640  22.074  0.0062  0.1466  0.0477
32590W        W75528  29.188   4.302  23.673 -0.0345  0.1978  0.3559
32591W        W75529  30.187   5.088  23.120 -0.0138  0.2659 -0.1408
32592W        W75530  32.150   5.736  21.937 -0.1428  0.0004  0.0387
32593W        W75531  30.696   4.544  19.881  0.1617 -0.0175 -0.2248
32594W        W75532  30.460   5.097  20.284  0.0666  0.4090 -0.3179
32595W        W75533  29.677   6.582  23.243  0.2651  0.0840 -0.0229
32596W        W75534  30.545   4.741  23.905 -0.1097  0.0185 -0.1921
32597W        W75535  29.823   5.600  20.802  0.0447 -0.1747  0.0910
32598W        W75536  31.937   5.978  21.520 -0.1056 -0.0031 -0.0279
32599W        W75537  31.610   6.484  21.376 -0.3299 -0.0670 -0.2151
32600W        W75538  31.215   8.426  21.318 -0.0663  0.0347 -0.0830
32601W        W75539  29.998   5.160  19.952  0.3230 -0.1515  0.3744
32602W        W75540  28.328   6.567  22.853  0.0931  0.2334 -0.2285
32603W        W75541  28.250   6.507  20.080 -0.1765 -0.1971 -0.1825
32604W        W75542  30.911   8.108  19.820  0.0674  0.1966  0.1666
32605W        W75543  30.213   6.723  21.801 -0.1585  0.1823  0.3155
32606W        W75544  30.217   6.739  24.734 -0.0689  0.0084 -0.3608
32607W        W75545  33.362   5.694  20.651 -0.3879  0.1365 -0.2203
32608W        W75546  31.493   4.779  22.773  0.1047 -0.0093 -0.0822
32609W        W75547  33.124   5.241  22.027  0.1273  0.1480  0.0417
32610W        W75548  31.252   8.147  23.140  0.0012  0.0415 -0.0007
32611W        W75549  28.819   5.348  22.408  0.2195  0.0476 -0.0706
32612W        W75550  30.392   4.235  19.458 -0.0406  0.3002  0.2406
32613W        W75551  30.781   5.145  25.399  0.2005 -0.0541  0.1196
32614W        W75552  31.166   3.284  22.963  0.0579 -0.1243  0.0807
32615W        W75553  28.549   7.273  23.478 -0.0201  0.2249 -0.1128
32616W        W75554  31.305   8.025  21.065  0.2420 -0.1964 -0.1307
32617W        W75555  29.959   4.600  21.546 -0.2970 -0.0545 -0.0649
32618W        W75556  30.677   5.541  22.301 -0.2748  0.2187  0.0834
32619W        W75557  32.285   3.661  23.278  0.1605 -0.0718 -0.1146
32620W        W75558  30.721   6.587  21.548  0.0246 -0.2684 -0.1296
32621W        W75559  32.451   5.740  20.719 -0.0061 -0.2473  0.2373
32622W        W75560  30.408   8.308  22.867 -0.1806 -0.0200 -0.0135
32623W        W75561  31.395   7.674  23.323 -0.1803 -0.0011 -0.3439
32624W        W75562  30.419   7.099  23.735 -0.2942 -0.1424  0.0274
32625W        W75563  29.338   5.604  20.580  0.1203 -0.0409 -0.0680
32626W        W75564  33.419   5.839  21.245 -0.2371 -0.2669  0.2855
32627W        W75565  29.439   4.938  22.385  0.1980  0.0733  0.0175
32628W        W75566  31.990   4.096  22.580 -0.3173 -0.2548  0.1127
32629W        W75567  29.394   4.413  20.144  0.4583  0.1757 -0.0631
32630W        W75568  32.531   4.542  20.376 -0.2244  0.0513 -0.3225
32631W        W75569  30.612   5.978  21.871 -0.0445 -0.2732  0.1567
32632W        W75570  30.179   4.401  24.556 -0.1281 -0.0807 -0.0729
32633W        W75571  32.245   4.815  19.894  0.2686  0.5443 -0.1711
32634W        W75572  33.333   4.329  22.818  0.2626 -0.1623  0.0408
32635W        W75573  31.917   6.222  20.801  0.3464  0.0644 -0.1094
32636W        W75574  31.236   6.601  24.285 -0.4998 -0.2829 -0.0458
32637W        W75575  30.387   5.155  22.151  0.0769 -0.2209 -0.0790
32638W        W75576  31.797   4.098  19.806 -0.0696 -0.0581  0.1624
32639W        W75577  29.331   6.747  20.855 -0.1335 -0.2274 -0.6935
32640W        W75578  28.631   4.589  23.052  0.2056  0.1464 -0.0291
32641W        W75579  32.182   7.279  23.676  0.1675 -0.0380  0.1161
32642W        W75580  30.583   4.554  20.368 -0.1168  0.0567  0.2674
32643W        W75581  32.362   6.267  20.021 -0.0646 -0.3045 -0.2820
32644W        W75582  33.540   4.267  22.306  0.0175 -0.0645  0.3165
32645W        W75583  30.262   7.309  20.239  0.1280  0.2502  0.0870
32646W        W75584  33.160   5.503  21.580  0.2693  0.0516 -0.0238
32647W        W75585  32.904   8.562  21.640  0.0963  0.1738  0.0657
32648W        W75586  28.147   5.299  22.021  0.2098  0.0642  0.3325
32649W        W75587  31.941   5.313  23.443 -0.0713 -0.1503  0.0304
32650W        W75588  32.480   7.778  23.040  0.1791  0.3784  0.0656
32651W        W75589  32.127   3.534  20.553 -0.0137  0.2194  0.0010
32652W        W75590  30.879   4.916  21.738 -0.1350 -0.1610 -0.1583
32653W        W75591  29.248   6.137  22.183  0.0911 -0.5943 -0.1589
32654W        W75592  32.443   4.221  21.758  0.1318  0.0819  0.1630
32655W        W75593  32.465   3.239  23.944 -0.3150 -0.0124 -0.2856
32656W        W75594  31.068   6.667  19.526 -0.0035 -0.1308  0.1350
32657W        W75595  31.262   3.831  22.946 -0.2068 -0.1536 -0.0041
32658W        W75596  31.465   7.998  24.335  0.0632  0.0981 -0.1012
32659W        W75597  30.164   6.118  25.349  0.0426 -0.3019  0.1224
32660W        W75598  28.075   4.844  19.849  0.1960 -0.3607  0.1543
32661W        W75599  30.021   4.594  23.205 -0.0116 -0.4414 -0.1172
32662W        W75600  31.471   6.393  22.250 -0.4397  0.0666 -0.0546
32663W        W75601  32.028   7.634  21.037  0.2529  0.0879  0.0920
32664W        W75602  33.363   6.807  22.095  0.0225 -0.4280 -0.1382
32665W        W75603  32.707   5.224  21.701  0.2698  0.0437 -0.1107
32666W        W75604  33.095   7.192  21.934 -0.0054 -0.0223  0.0445
32667W        W75605  31.566   5.472  21.698 -0.1142 -0.1613 -0.0015
32668W        W75606  31.578   4.010  22.079 -0.0495 -0.1823  0.2759
32669W        W75607  31.594   4.385  21.721 -0.1581  0.0991  0.1748
32670W        W75608  31.355   6.846  23.202  0.1163  0.0098  0.0130
32671W        W75609  29.558   3.829  20.220 -0.2625  0.0296  0.0280
32672W        W75610  30.652   6.789  21.001  0.0303  0.2416  0.1433
32673W        W75611  30.231   4.970  19.313  0.2646 -0.0558  0.1773
32674W        W75612  30.363   3.384  24.082 -0.2877 -0.0838  0.2333
32675W        W75613  28.986   4.834  22.283 -0.0551  0.1019 -0.0046
32676W        W75614  30.786   6.281  23.525  0.1145  0.2764  0.2463
32677W        W75615  30.732   4.829  21.268  0.2177  0.3100  0.2352
32678W        W75616  31.475   5.501  20.752 -0.0529 -0.0009  0.2150
32679W        W75617  31.223   4.678  21.961  0.0491  0.2152 -0.2865
32680W        W75618  31.111   3.690  20.292 -0.1362 -0.2024  0.0283
32681W        W75619  31.714   6.724  20.798  0.0739  0.1587  0.1577
32682W        W75620  32.343   6.016  21.183  0.3983  0.1736  0.0682
32683W        W75621  30.216   3.768  20.365 -0.2173  0.1419 -0.0299
32684W        W75622  31.876   7.894  23.818 -0.0972  0.4480 -0.0669
32685W        W75623  28.155   5.204  20.228 -0.1298  0.2784  0.2513
32686W        W75624  30.233   4.259  23.554 -0.0161 -0.3048  0.1762
32687W        W75625  29.865   3.879  23.519 -0.1683 -0.1909  0.1383
32688W        W75626  28.282   5.010  20.688  0.0291  0.1469 -0.1494
32689W        W75627  32.039   3.995  23.981 -0.1974 -0.0124  0.1062
32690W        W75628  32.621   7.025  21.749  0.0776  0.1846 -0.1725
32691W        W75629  31.027   7.655  19.703 -0.1557  0.0856  0.0652
32692W        W75630  30.648   5.451  23.133  0.0476  0.0581 -0.0679
32693W        W75631  29.550   7.636  23.867 -0.0557 -0.0191 -0.1502
32694W        W75632  28.761   5.095  22.837  0.0480 -0.2654 -0.3499
32695W        W75633  33.041   6.009  21.526  0.1674  0.2841  0.3628
32696W        W75634  31.344   5.844  22.488  0.1564 -0.4306 -0.1985
32697W        W75635  31.401   6.654  22.715  0.1273  0.0863 -0.2587
32698W        W75636  33.344   3.818  22.733 -0.4084  0.0765  0.1725
32699W        W75637  30.717   5.471  20.596  0.2197  0.1855 -0.1235
32700W        W75638  28.872   3.847  23.521  0.1397  0.0282 -0.1302
32701W        W75639  29.639   4.597  24.054 -0.3621 -0.2750  0.1310
32702W        W75640  31.871   5.997  23.162 -0.0709  0.1889 -0.2065
32703W        W75641  31.343   5.056  21.659  0.2389  0.1488  0.3704
32704W        W75642  31.482   3.824  21.395  0.1541  0.0191  0.0696
32705W        W75643  31.485   6.994  21.444  0.0019  0.0756  0.0874
32706W        W75644  28.544   5.546  20.208 -0.0409  0.1623 -0.1571
32707W        W75645  31.755   3.764  20.217 -0.1415  0.0860 -0.2273
32708W        W75646  29.961   4.323  20.926  0.0675 -0.0044  0.0454
32709W        W75647  31.671   7.063  22.500  0.0189 -0.3866  0.0343
32710W        W75648  31.834   5.773  23.649 -0.0779  0.1317 -0.0842
32711W        W75649  30.134   5.689  19.927 -0.0143 -0.1093 -0.0947
32712W        W75650  32.308   5.550  23.732  0.0118  0.0106 -0.3690
32713W        W75651  31.469   7.476  23.819 -0.0988 -0.1807  0.3218
32714W        W75652  31.592   7.654  25.365 -0.2992  0.0008 -0.0335
32715W        W75653  30.052   8.338  24.211  0.1472 -0.0484 -0.3441
32716W        W75654  30.857   7.486  22.441  0.0248  0.0249  0.1503
32717W        W75655  28.533   3.478  22.571 -0.0424  0.2436 -0.1028
32718W        W75656  29.458   5.831  22.547  0.1413 -0.1926 -0.1399
32719W        W75657  29.269   5.594  22.110  0.0033  0.2113  0.1470
32720W        W75658  31.503   4.542  23.265  0.1213 -0.1071 -0.2685
32721W        W75659  31.123   3.725  20.969  0.0638  0.1471 -0.2099
32722W        W75660  31.631   4.351  20.210  0.5532  0.1283 -0.0672
32723W        W75661  29.547   8.165  22.334  0.0511  0.1170 -0.0609
32724W        W75662  31.836   5.982  22.286  0.3948 -0.0150 -0.2429
32725W        W75663  30.867   6.448  27.752  0.1407  0.0770  0.2105
32726W        W75664  29.466   4.974  24.388  0.0756  0.1137  0.0370
32727W        W75665  30.803   3.647  24.171  0.1225 -0.1790 -0.2163
32728W        W75666  31.862   5.842  25.082 -0.2525 -0.0805  0.1138
32729W        W75667  28.835   4.369  26.791  0.0059 -0.3639  0.0536
32730W        W75668  33.090   6.971  25.756  0.2426  0.2723 -0.2837
32731W        W75669  31.367   4.322  27.066  0.0711 -0.0856 -0.0229
32732W        W75670  30.655   5.890  27.054 -0.0882  0.2019 -0.0741
32733W        W75671  32.614   5.797  26.248  0.1723  0.1829  0.0553
32734W        W75672  32.587   5.312  24.560 -0.1984  0.2977  0.1453
32735W        W75673  29.931   5.739  25.614  0.1248 -0.1841  0.1397
32736W        W75674  30.377   6.933  27.301 -0.0953  0.0316  0.0833
32737W        W75675  29.594   4.916  26.087  0.0388  0.0793 -0.1011
32738W        W75676  28.665   4.106  25.849  0.3249  0.0698  0.3252
32739W        W75677  30.901   5.436  27.653  0.1845 -0.0485  0.2263
32740W        W75678  28.914   4.789  25.669  0.2029  0.1629  0.0105
32741W        W75679  30.553   5.505  26.031 -0.2220 -0.0049  0.1702
32742W        W75680  30.996   4.220  26.709  0.3965  0.3128 -0.0605
32743W        W75681  31.531   7.831  26.107 -0.0724 -0.0796  0.0634
32744W        W75682  30.467   3.634  28.162 -0.1398  0.2777 -0.1830
32745W        W75683  32.431   4.353  26.441 -0.3310 -0.1185 -0.0135
32746W        W75684  30.188   5.911  24.186 -0.0720  0.1438  0.1201
32747W        W75685  29.115   3.916  25.130  0.0239  0.0904 -0.1009
32748W        W75686  29.325   4.410  26.627  0.0503 -0.0971 -0.2960
32749W        W75687  29.591   6.348  26.721  0.0808  0.2201 -0.0928
32750W        W75688  31.483   4.976  25.279  0.1290 -0.3089  0.0055
32751W        W75689  30.898   5.355  26.418 -0.1230 -0.1564 -0.0805
32752W        W75690  31.594   7.535  26.844 -0.1982  0.2139 -0.3170
32753W        W75691  30.730   7.013  24.333  0.3520  0.0957 -0.2459
32754W        W75692  31.659   4.952  28.087  0.0008  0.0906  0.0978
32755W        W75693  28.573   4.845  24.328 -0.1277 -0.0880 -0.4638
32756W        W75694  28.590   6.722  26.218  0.1395 -0.0176  0.2114
32757W        W75695  29.788   7.311  24.333  0.1922  0.1143 -0.1435
32758W        W75696  32.586   5.806  25.707 -0.0680 -0.3697 -0.0522
32759W        W75697  32.769   6.700  25.987 -0.3908  0.0530 -0.0598
32760W        W75698  32.039   7.630  28.492 -0.1286  0.0516 -0.3500
32761W        W75699  30.011   6.543  22.741  0.2626 -0.3029  0.0197
32762W        W75700  32.987   6.637  26.485 -0.0660  0.0222 -0.2570
32763W        W75701  30.567   7.404  27.532 -0.2660 -0.1495 -0.0493
32764W        W75702  31.901   4.507  26.556  0.1860  0.1900 -0.1229
32765W        W75703  30.256   6.986  26.711 -0.3119  0.2272 -0.2512
32766W        W75704  30.379   6.886  25.203 -0.1446  0.1098  0.3822
32767W        W75705  30.582   7.325  25.361 -0.1204 -0.2740  0.1136
32768W        W75706  29.928   6.602  26.527  0.2129 -0.2316  0.1942
32769W        W75707  29.289   6.285  25.788 -0.1905  0.0725 -0.1405
32770W        W75708  31.877   3.315  27.211 -0.0278  0.2422  0.0075
32771W        W75709  29.036   6.373  25.349 -0.3446 -0.1753  0.0814
32772W        W75710  32.186   5.552  24.891 -0.1840  0.2793  0.2187
32773W        W75711  30.764   4.507  22.048 -0.2248 -0.0878  0.0371
32774W        W75712  31.285   5.229  24.023  0.2676 -0.0283  0.1650
32775W        W75713  31.049   3.356  25.035 -0.3083  0.1670 -0.1131
32776W        W75714  29.721   7.643  24.996 -0.1899 -0.1795 -0.2447
32777W        W75715  30.987   4.483  27.479  0.0794 -0.2986  0.0186
32778W        W75716  33.047   6.451  27.086  0.3609  0.0453  0.1598
32779W        W75717  31.162   4.500  23.747 -0.0246 -0.1752 -0.0669
32780W        W75718  32.817   4.633  26.863  0.1245 -0.0613 -0.1620
32781W        W75719  30.143   7.008  26.238 -0.1189 -0.1134  0.0209
32782W        W75720  30.512   6.003  25.809 -0.1455  0.3475 -0.1940
32783W        W75721  31.479   5.936  24.737  0.1228 -0.2473 -0.1904
32784W        W75722  32.189   7.269  26.024 -0.1717 -0.2090 -0.2533
32785W        W75723  30.116   6.735  23.502  0.2277  0.2040  0.3113
32786W        W75724  28.923   5.667  24.503 -0.0137 -0.1434  0.2164
32787W        W75725  30.066   4.571  27.154  0.0102  0.3077 -0.0702
32788W        W75726  30.195   4.781  26.754  0.1954  0.2680  0.2117
32789W        W75727  29.092   4.488  24.970 -0.2271 -0.1030  0.0315
32790W        W75728  32.693   5.883  27.587 -0.2056  0.0601 -0.0664
32791W        W75729  28.111   6.710  25.868  0.0323 -0.0037  0.1154
32792W        W75730  31.281   5.307  25.551 -0.0922  0.0080  0.2368
32793W        W75731  31.911   6.238  27.078 -0.1796  0.1120  0.1177
32794W        W75732  32.995   7.507  26.255  0.1599 -0.0613 -0.1266
32795W        W75733  31.943   6.592  24.348 -0.0344  0.0278 -0.1250
32796W        W75734  32.753   4.220  25.567  0.4256 -0.0815 -0.2511
32797W        W75735  32.117   3.386  25.554  0.1362  0.0033  0.1581
32798W        W75736  30.526   5.140  23.574 -0.0558 -0.2455  0.1895
32799W        W75737  30.579   5.920  25.165 -0.0692 -0.0351 -0.0779
32800W        W75738  34.117   6.498  27.864 -0.1807  0.3532 -0.2380
32801W        W75739  33.789   4.800  23.514 -0.1393 -0.0416  0.1695
32802W        W75740  29.120   6.994  26.184 -0.1772 -0.0483  0.2752
32803W        W75741  29.537   5.037  27.427  0.2785  0.1118 -0.3474
32804W        W75742  30.909   5.579  28.209  0.1726  0.4417  0.0064
32805W        W75743  29.548   8.281  24.353  0.0360  0.0830  0.0001
32806W        W75744  28.644   5.158  28.234  0.0844 -0.1880  0.3838
32807W        W75745  30.009   6.130  23.131  0.2036 -0.2257  0.3245
32808W        W75746  29.597   4.637  27.747 -0.1629 -0.1500 -0.0133
32809W        W75747  29.895   4.880  25.156 -0.1643  0.0298  0.0372
32810W        W75748  31.589   4.049  25.022  0.0455 -0.0385  0.1631
32811W        W75749  30.629   4.584  27.081  0.0804  0.2344  0.1406
32812W        W75750  33.109   2.947  26.047  0.1816 -0.1304  0.0550
32813W        W75751  29.406   4.898  24.838  0.1855 -0.1067 -0.1192
32814W        W75752  33.087   7.531  24.659  0.1707 -0.2543 -0.0353
32815W        W75753  31.117   5.792  24.109  0.1999 -0.1148 -0.2382
32816W        W75754  33.033   6.481  24.827 -0.0140  0.1661  0.0592
32817W        W75755  28.435   4.287  27.231 -0.0841 -0.1095 -0.2496
32818W        W75756  28.626   5.864  26.096 -0.0060 -0.1184 -0.2694
32819W        W75757  30.288   4.615  27.949 -0.0102  0.0845  0.2199
32820W        W75758  29.389   4.064  28.137  0.1823 -0.2402  0.0214
32821W        W75759  32.523   5.750  28.090 -0.0844 -0.0537  0.1102
32822W        W75760  30.434   4.681  25.310 -0.1952 -0.1902 -0.0782
32823W        W75761  33.341   3.981  25.831  0.2065  0.0670  0.3500
32824W        W75762  31.547   6.777  24.772 -0.0565 -0.1939  0.0994
32825W        W75763  28.163   4.391  23.264  0.3679  0.0888  0.2063
32826W        W75764  32.009   4.324  26.029 -0.1364  0.1992  0.2571
32827W        W75765  31.231   7.749  24.671 -0.1193  0.0258  0.1628
32828W        W75766  33.179   7.016  26.214 -0.2427  0.1045 -0.1798
32829W        W75767  32.309   8.473  25.270 -0.1443 -0.0172  0.3108
32830W        W75768  31.650   4.854  27.088 -0.1987 -0.0583 -0.0373
32831W        W75769  29.322   4.392  24.345 -0.2000  0.0580  0.0722
32832W        W75770  29.017   6.758  23.969  0.3087  0.1802 -0.0526
32833W        W75771  30.278   8.172  24.755 -0.1653 -0.2240  0.1370
32834W        W75772  30.471   3.965  24.805 -0.2967 -0.1363 -0.1677
32835W        W75773  31.612   8.327  25.317 -0.1179  0.1084 -0.2959
32836W        W75774  30.248   7.667  24.791 -0.2693  0.2397 -0.0771
32837W        W75775  29.479   6.106  27.112  0.0544  0.1217 -0.1252
32838W        W75776  32.317   2.672  27.313 -0.2394  0.1783 -0.4857
32839W        W75777  34.350   5.688  28.045 -0.0399  0.0487 -0.0304
32840W        W75778  30.681   4.288  25.231 -0.1244 -0.0862  0.0760
32841W        W75779  30.950   3.659  24.669 -0.3397 -0.2034  0.2656
32842W        W75780  32.026   8.157  25.665 -0.0208 -0.2237  0.2848
32843W        W75781  28.405   6.921  24.354 -0.1712 -0.1634 -0.1837
32844W        W75782  29.206   4.968  26.475  0.2655  0.3506 -0.2736
32845W        W75783  30.223   5.600  27.100 -0.1627 -0.1816  0.1021
32846W        W75784  32.284   5.203  26.050  0.3687 -0.0296  0.2500
32847W        W75785  29.870   6.434  27.562  0.1407  0.1673  0.0776
32848W        W75786  31.789   4.874  27.568  0.0039  0.2497 -0.3928
32849W        W75787  28.437   6.119  24.052 -0.2287 -0.1878 -0.0268
32850W        W75788  28.623   6.380  26.887 -0.1830 -0.1214 -0.1840
32851W        W75789  31.511   4.588  24.133  0.1082 -0.2651  0.0407
32852W        W75790  31.624   4.930  23.643 -0.0715  0.2876 -0.2476
32853W        W75791  30.479   6.929  25.795  0.2049  0.1372 -0.0353
32854W        W75792  30.601   5.912  23.819 -0.0605 -0.3492  0.0249
32855W        W75793  31.510   4.047  23.335 -0.3628  0.4965 -0.1974
32856W        W75794  29.359   3.093  23.740  0.2523  0.1079  0.0122
32857W        W75795  29.624   6.021  26.105 -0.2547 -0.0943  0.3094
32858W        W75796  30.647   6.517  24.466  0.1917 -0.1433  0.0380
32859W        W75797  30.305   6.547  26.025  0.1056 -0.2001  0.1710
32860W        W75798  29.996   4.311  25.081  0.2857 -0.1040 -0.1465
32861W        W75799  32.599   6.972  23.940 -0.1432  0.0823 -0.0213
32862W        W75800  31.296   6.462  25.093  0.0190  0.1337 -0.0557
32863W        W75801  32.172   5.208  27.560  0.2600  0.1484 -0.2861
32864W        W75802  32.345   7.380  26.580  0.1266 -0.2267  0.0075
32865W        W75803  31.198   2.713  26.306  0.1158  0.2712 -0.2370
32866W        W75804  29.502   3.608  23.732 -0.1943 -0.0808 -0.0032
32867W        W75805  31.831   4.095  24.520  0.0514  0.1134  0.2182
32868W        W75806  29.634   7.234  23.482 -0.0758  0.1940 -0.1258
32869W        W75807  33.140   4.820  26.115 -0.0413 -0.1955  0.1522
32870W        W75808  32.474   4.613  28.288  0.1058 -0.0130 -0.0738
32871W        W75809  31.177   3.811  26.969 -0.2653 -0.1911  0.1986
32872W        W75810  32.647   5.152  26.819  0.0702  0.2243  0.1147
32873W        W75811  31.997   4.420  24.210  0.1143  0.5124 -0.1622
32874W        W75812  31.027   5.631  26.775 -0.2071  0.1247 -0.1102
32875W        W75813  29.087   4.087  24.653  0.0246 -0.0391 -0.3230
32876W        W75814  30.331   2.650  27.059 -0.0259  0.0154 -0.0191
32877W        W75815  31.749   5.971  27.451  0.0441  0.2500  0.2230
32878W        W75816  29.219   7.450  26.178  0.0786 -0.3156  0.1630
32879W        W75817  32.143   7.126  27.481  0.0712  0.1303  0.1910
32880W        W75818  30.828   5.887  26.218  0.2814  0.2541  0.0777
32881W        W75819  29.952   4.368  28.866 -0.0621 -0.0177 -0.0473
32882W        W75820  30.443   3.952  24.302 -0.0946  0.1239  0.0700
32883W        W75821  29.079   7.819  24.954  0.1161  0.0122  0.3609
32884W        W75822  29.916   5.548  23.570  0.1564  0.1000  0.1361
32885W        W75823  29.142   4.791  27.464 -0.2786 -0.3022  0.0528
32886W        W75824  29.761   7.620  26.014 -0.0563 -0.1379  0.1547
32887W        W75825  30.368   6.386  23.948 -0.0418  0.0773 -0.1226
32888W        W75826  31.997   6.307  26.204  0.0592 -0.1176  0.0357
32889W        W75827  29.797   5.464  24.309 -0.4659 -0.1236 -0.0375
32890W        W75828  32.958   3.993  27.708 -0.0606 -0.2840 -0.0140
32891W        W75829  28.978   5.966  25.608  0.3167  0.1649  0.0374
32892W        W75830  29.866   5.250  24.721  0.1603 -0.1614 -0.3444
32893W        W75831  30.635   4.498  24.776 -0.0065  0.1096  0.4384
32894W        W75832  31.808   5.076  24.839  0.0524 -0.2995 -0.2688
32895W        W75833  33.414   6.118  24.880 -0.2408  0.0347  0.1908
32896W        W75834  31.177   4.672  26.142 -0.4424  0.2634  0.1986
32897W        W75835  29.562   5.845  26.598  0.2727  0.0152  0.1758
32898W        W75836  29.215   5.658  27.028  0.1057  0.0298  0.2126
32899W        W75837  32.062   4.007  26.524  0.0534 -0.1260  0.1482
32900W        W75838  32.003   5.364  24.441  0.0671  0.2142  0.1201
32901W        W75839  33.182   6.170  27.571 -0.1402 -0.2994  0.2308
32902W        W75840  31.045   6.127  26.678 -0.1688 -0.0715  0.0575
32903W        W75841  27.829   4.055  23.278 -0.2704 -0.0148  0.0198
32904W        W75842  31.673   5.336  27.744  0.1430  0.1596 -0.0099
32905W        W75843  30.182   4.254  26.264 -0.2261 -0.0557  0.0086
32906W        W75844  29.994   6.542  25.122 -0.0160  0.1455 -0.1844
32907W        W75845  30.680   7.571  26.465 -0.0461  0.2514  0.1502
32908W        W75846  29.953   5.229  25.493  0.0329  0.2333  0.0961
32909W        W75847  29.651   5.977  23.554 -0.1423 -0.3468  0.3292
32910W        W75848  31.281   5.299  28.027 -0.0348  0.0488 -0.2913
32911W        W75849  31.502   5.880  26.896  0.1535 -0.1426  0.0008
32912W        W75850  32.384   4.136  26.864 -0.0972 -0.1295 -0.3273
32913W        W75851  29.030   4.329  27.249 -0.3648  0.3212  0.1217
32914W        W75852  31.131   5.555  26.029 -0.0921  0.0730 -0.0282
32915W        W75853  31.359   6.449  26.896  0.0805 -0.0675  0.3302
32916W        W75854  32.407   4.025  27.409 -0.1124  0.0228  0.2237
32917W        W75855  29.600   6.595  27.161 -0.3161  0.0347 -0.2035
32918W        W75856  30.811   3.735  26.591  0.1574  0.1336  0.0663
32919W        W75857  32.786   7.558  25.405  0.1063  0.1215 -0.1100
32920W        W75858  31.413   5.094  26.050 -0.2233  0.1330 -0.2168
32921W        W75859  30.299   5.281  24.424 -0.0430 -0.0843  0.1455
32922W        W75860  28.122   4.699  26.286 -0.0105  0.1968 -0.2984
32923W        W75861  30.558   4.451  26.551  0.0490  0.1680 -0.0170
32924W        W75862  31.363   4.426  26.510 -0.0038 -0.1288  0.2977
32925W        W75863  30.474   7.371  26.060  0.1729 -0.1694  0.0870
32926W        W75864  29.418   5.474  23.457 -0.0299 -0.0100  0.1987
32927W        W75865  28.809   7.305  25.945 -0.1062 -0.1660  0.0459
32928W        W75866  32.073   4.851  25.345  0.0428 -0.1328 -0.0830
32929W        W75867  29.990   5.623  25.141 -0.1002 -0.2423 -0.2981
32930W        W75868  30.708   4.141  26.124 -0.0750 -0.0260 -0.0789
32931W        W75869  33.499   4.863  27.536 -0.3199 -0.4338 -0.2345
32932W        W75870  30.643   6.032  24.388 -0.2194 -0.0696  0.0163
32933W        W75871  30.877   4.596  27.958 -0.0071  0.1808  0.0944
32934W        W75872  29.690   3.733  27.815  0.0593 -0.1953  0.1756
32935W        W75873  32.817   7.026  26.819  0.1175  0.0870  0.1739
32936W        W75874  29.996   4.854  27.565 -0.0850  0.1378  0.1456
32937W        W75875  31.363   6.626  27.815  0.0167  0.0414  0.2252
32938W        W75876  30.323   6.638  27.661 -0.1860  0.0209 -0.0798
32939W        W75877  30.763   3.783  25.169 -0.0896 -0.0609 -0.2329
32940W        W75878  29.856   3.930  26.482  0.0916 -0.2478 -0.0224
32941W        W75879  31.602   6.180  25.415  0.1288 -0.2129 -0.1824
32942W        W75880  32.611   5.683  25.230 -0.0451  0.2245 -0.2004
32943W        W75881  29.669   6.984  21.994 -0.0059  0.0976  0.3197
32944W        W75882  31.821   5.159  25.766  0.1603 -0.0260  0.1927
32945W        W75883  30.985   4.731  25.165  0.0378 -0.3131 -0.0700
32946W        W75884  30.781   5.598  24.621  0.1398  0.1211  0.0259
32947W        W75885  31.163   4.580  24.635 -0.1124 -0.1121 -0.0108
32948W        W75886  29.444   5.200  23.960  0.2194  0.0655 -0.0730
32949W        W75887  31.098   2.611  27.938  0.0847 -0.5085  0.3178
32950W        W75888  32.396   6.028  27.134  0.1553  0.3457  0.4833
32951W        W75889  31.243   4.724  25.607  0.0991 -0.1969  0.0869
32952W        W75890  31.370   4.271  25.902 -0.1965  0.1613  0.0837
32953W        W75891  32.182   3.573  27.630  0.1691  0.0610 -0.1536
32954W        W75892  30.434   6.301  27.269  0.0325 -0.0964 -0.1221
32955W        W75893  29.852   3.016  27.952  0.1047 -0.0024 -0.2481
32956W        W75894  32.631   6.985  26.368 -0.0160  0.0715 -0.2239
32957W        W75895  32.206   4.888  24.498  0.1533  0.0165 -0.1539
32958W        W75896  31.862   5.181  26.327  0.1545  0.0516 -0.1257
32959W        W75897  32.221   6.740  25.320  0.2613 -0.0733 -0.2647
32960W        W75898  31.571   3.504  23.183  0.1790 -0.0832 -0.1275
32961W        W75899  30.418   4.425  27.507  0.2535  0.0326  0.0996
32962W        W75900  33.590   4.700  26.506 -0.0525  0.0228 -0.0429
32963W        W75901  30.579   3.271  25.127 -0.1320 -0.3235  0.3457
32964W        W75902  32.148   3.317  28.659 -0.0969  0.0759  0.2653
32965W        W75903  30.799   6.465  25.146  0.1894  0.3118  0.0539
32966W        W75904  31.085   6.118  25.431 -0.2484 -0.1039  0.0280
32967W        W75905  30.269   5.544  23.893 -0.2906 -0.2517  0.0211
32968W        W75906  27.759   5.457  26.488 -0.2885  0.0223 -0.0344
32969W        W75907  30.450   7.971  28.928 -0.0230 -0.1236 -0.0284
32970W        W75908  30.017   3.394  25.079  0.2206 -0.0641  0.2051
32971W        W75909  30.018   6.777  24.237  0.2824 -0.1968 -0.0049
32972W        W75910  31.314   6.529  25.609  0.2377 -0.2851  0.1834
32973W        W75911  31.523   7.455  27.720 -0.1628 -0.0381 -0.0972
32974W        W75912  31.202   4.246  25.366 -0.1939  0.1747  0.0782
32975W        W75913  33.397   5.166  27.885 -0.0261  0.2000  0.1686
32976W        W75914  30.126   7.283  23.319 -0.0005 -0.4030  0.0455
32977W        W75915  31.004   2.949  25.430  0.0769 -0.0311 -0.0606
32978W        W75916  30.038   6.714  25.645  0.1637  0.3144 -0.0597
32979W        W75917  28.981   4.598  26.195 -0.0166 -0.0317 -0.1337
32980W        W75918  29.660   7.426  25.569  0.3471  0.1347 -0.1762
32981W        W75919  33.370   3.861  26.770 -0.0871 -0.0267 -0.2317
32982W        W75920  32.732   4.759  25.337  0.1012 -0.1657  0.0907
32983W        W75921  31.365   5.924  26.390 -0.1057 -0.1379 -0.1361
32984W        W75922  33.180   4.886  27.123  0.0386  0.1711 -0.0744
32985W        W75923  31.723   6.505  27.495  0.0069  0.0919  0.0334
32986W        W75924  30.780   4.561  25.679  0.0030 -0.2390  0.1193
32987W        W75925  32.167   6.576  26.661 -0.1946 -0.0542  0.1112
32988W        W75926  32.950   7.215  25.007 -0.1914  0.2464  0.1221
32989W        W75927  30.510   6.459  25.545 -0.0714 -0.1455  0.1487
32990W        W75928  30.316   5.149  27.841  0.0469  0.1332  0.1238
32991W        W75929  32.211   5.714  27.594 -0.1675 -0.0914  0.0049
32992W        W75930  31.307   6.967  25.945 -0.1026 -0.0993  0.3892
32993W        W75931  30.201   4.858  24.719  0.0720 -0.1482  0.0981
32994W        W75932  30.560   7.254  24.873  0.3985  0.3850 -0.1331
32995W        W75933  30.085   7.432  27.226 -0.2412 -0.2551  0.0990
32996W        W75934  29.370   5.370  24.628 -0.2203 -0.2361  0.2504
32997W        W75935  29.007   7.622  24.509  0.1510  0.2320 -0.1376
32998W        W75936  30.056   6.164  25.845 -0.1303 -0.1401 -0.0265
32999W        W75937  30.306   5.806  24.643 -0.1534  0.1269  0.1205
33000W        W75938  30.881   7.841  27.404 -0.1568  0.2170  0.0773
33001W        W75939  30.744   4.855  26.300  0.0569 -0.0222 -0.2134
33002W        W75940  29.070   6.808  25.039 -0.0117 -0.0097 -0.0593
33003W        W75941  29.174   6.401  23.318 -0.0291  0.3215 -0.0934
33004W        W75942  30.109   6.346  24.439 -0.1661 -0.0606 -0.1654
33005W        W75943  30.581   8.244  24.135 -0.2249 -0.1754  0.0868
33006W        W75944  31.866   8.142  27.637 -0.0869 -0.3146  0.0907
33007W        W75945  29.978   3.257  24.429  0.3195  0.0052 -0.1474
33008W        W75946  31.425   6.369  26.243 -0.1296  0.2326 -0.1039
33009W        W75947  31.447   5.598  25.146 -0.5834 -0.1557  0.0556
33010W        W75948  32.399   7.662  28.106 -0.2712  0.1287 -0.2809
33011W        W75949  31.689   4.681  26.185 -0.2382 -0.0644  0.1587
33012W        W75950  31.037   4.119  24.256  0.2202  0.1649 -0.0162
33013W        W75951  31.577   4.417  27.533  0.1975  0.0765 -0.1874
33014W        W75952  33.081   4.149  29.079 -0.0692  0.0774 -0.1814
33015W        W75953  28.585   7.427  26.911 -0.1494  0.0578  0.0394
33016W        W75954  32.427   6.425  24.361 -0.3964 -0.1410 -0.0039
33017W        W75955  28.713   5.720  23.942 -0.0760 -0.1451 -0.1517
33018W        W75956  30.868   5.630  25.583 -0.1483  0.0370  0.0445
33019W        W75957  33.533   3.073  28.625 -0.4400  0.3794 -0.0930
33020W        W75958  30.193   6.814  22.259 -0.1840  0.0677 -0.3103
33021W        W75959  32.219   4.733  26.250  0.0523 -0.0304 -0.0026
33022W        W75960  30.030   7.201  24.837  0.1624  0.1440 -0.2033
33023W        W75961  30.543   8.978  26.669 -0.0469 -0.1157 -0.0378
33024W        W75962  29.458   7.505  27.014  0.0696  0.1442  0.0760
33025W        W75963  30.936   5.096  25.886  0.1061  0.3466  0.0141
33026W        W75964  31.935   5.787  26.407 -0.2643  0.0006  0.2712
33027W        W75965  29.126   6.130  26.710 -0.0136 -0.0842  0.1119
33028W        W75966  32.706   3.163  27.091  0.0378 -0.2129 -0.0885
33029W        W75967  29.705   3.894  27.266 -0.1291 -0.1835  0.4145
33030W        W75968  31.720   6.711  25.962 -0.2221  0.4396 -0.1098
33031W        W75969  31.011   6.672  24.760 -0.1378 -0.2157  0.1315
33032W        W75970  31.894   4.174  27.055  0.0773  0.2599  0.0694
33033W        W75971  29.644   4.971  23.556 -0.0158 -0.2077 -0.1171
33034W        W75972  31.459   5.416  26.618 -0.2117  0.0352  0.0279
33035W        W75973  31.554   4.083  24.102 -0.2684  0.0659  0.2771
33036W        W75974  31.890   7.137  26.710  0.2036  0.2511  0.2189
33037W        W75975  29.670   5.526  26.226 -0.0532 -0.1046 -0.0556
33038W        W75976  30.678   4.905  24.485 -0.2292  0.1261 -0.1349
33039W        W75977  29.628   6.323  24.272 -0.0153 -0.3528 -0.0525
33040W        W75978  30.784   5.336  27.177 -0.2187  0.0210 -0.0005
33041W        W75979  31.339   7.012  26.906 -0.0848 -0.2074 -0.1871
33042W        W75980  29.950   4.306  27.562 -0.0594 -0.0371 -0.1236
33043W        W75981  31.306   5.526  24.553 -0.3069  0.2452  0.2066
33044W        W75982  31.619   5.579  26.116  0.1222 -0.2597 -0.6156
33045W        W75983  32.453   7.127  25.011  0.2204  0.0154  0.1825
33046W        W75984  30.988   5.988  24.926 -0.2054 -0.2442 -0.1224
33047W        W75985  31.658   7.137  26.278 -0.2463 -0.1374  0.2002
33048W        W75986  28.743   4.788  27.076  0.0991 -0.2795  0.1332
33049W        W75987  30.877   6.817  25.476  0.0061 -0.0334 -0.0410
33050W        W75988  32.316   6.979  26.924  0.1075  0.2303 -0.1598
33051W        W75989  30.290   4.485  25.817 -0.1271 -0.2697 -0.0184
33052W        W75990  29.598   4.493  27.254  0.0561  0.0160 -0.0741
33053W        W75991  29.498   6.762  25.535  0.2155  0.3326 -0.1517
33054W        W75992  32.325   4.761  26.905  0.1473  0.1856  0.1112
33055W        W75993  32.285   6.060  26.637 -0.3265 -0.0357 -0.4517
33056W        W75994  30.889   7.386  23.849 -0.0227 -0.0835  0.0545
33057W        W75995  32.940   3.218  27.894  0.2944  0.0123  0.1681
33058W        W75996  29.805   6.540  26.063 -0.2430  0.2420 -0.0487
33059W        W75997  32.200   8.147  28.160 -0.1161  0.4958 -0.0781
33060W        W75998  30.022   5.173  23.901  0.1698  0.0155 -0.1348
33061W        W75999  31.298   6.160  27.553  0.4211 -0.1562  0.0077
33062W        W76000  29.214   5.755  24.085 -0.2575  0.1142  0.0919
33063W        W76001  31.304   7.066  25.386 -0.1287  0.0702 -0.2331
33064W        W76002  33.608   6.329  27.759 -0.0266  0.3069 -0.4016
33065W        W76003  30.926   5.506  25.074 -0.2404 -0.0531 -0.0721
33066W        W76004  32.291   6.813  25.827  0.1774 -0.0351 -0.0251
33067W        W76005  30.367   3.114  27.373  0.1171  0.1524 -0.1043
33068W        W76006  32.451   4.389  24.989  0.0589  0.0397  0.2319
33069W        W76007  31.016   4.195  24.898 -0.1333 -0.1747 -0.1142
33070W        W76008  31.314   5.400  27.108  0.0467 -0.0149  0.0840
33071W        W76009  29.727   4.073  24.437 -0.0766  0.0645 -0.1291
33072W        W76010  29.930   7.040  23.820 -0.0585  0.0193 -0.1680
33073W        W76011  30.379   6.253  24.911  0.0150 -0.0277  0.3514
33074W        W76012  30.351   5.080  27.287  0.1423 -0.0831  0.0195
33075W        W76013  30.716   3.569  27.042 -0.0254  0.0845  0.0996
33076W        W76014  30.389   5.512  25.418  0.2120  0.2041  0.0350
33077W        W76015  29.712   5.660  27.107  0.0569  0.0284 -0.1747
33078W        W76016  32.424   6.307  25.341 -0.3425  0.1365  0.2456
33079W        W76017  29.372   3.991  26.438  0.0231 -0.1202 -0.2083
33080W        W76018  27.633   2.851  25.708 -0.2667 -0.3096 -0.0559
33081W        W76019  31.993   6.111  24.052  0.0638  0.2826  0.1854
33082W        W76020  31.127   6.186  24.463  0.0928  0.0994  0.1355
33083W        W76021  30.965   3.548  25.541 -0.1245 -0.1754  0.1755
33084W        W76022  33.818   6.333  28.259  0.0036  0.4708 -0.0571
33085W        W76023  30.184   5.623  23.186 -0.4626  0.0329  0.1922
33086W        W76024  32.176   3.906  28.055 -0.0231  0.0576 -0.3156
33087W        W76025  31.178   3.625  27.599  0.1035  0.0150  0.0182
33088W        W76026  28.990   4.335  25.445 -0.0695 -0.0403  0.3315
33089W        W76027  31.692   3.942  26.165  0.1655 -0.0424 -0.1458
33090W        W76028  32.103   6.734  24.793 -0.0811 -0.0577  0.0216
33091W        W76029  30.545   7.009  23.253  0.0793  0.3760 -0.1066
33092W        W76030  30.308   6.194  26.805  0.0001  0.1980 -0.0372
33093W        W76031  30.184   7.442  26.559  0.2766  0.2217  0.1749
33094W        W76032  29.518   5.503  27.741 -0.1170 -0.1104 -0.0122
33095W        W76033  32.873   5.261  25.042  0.0894  0.5809 -0.1943
33096W        W76034  32.624   5.333  27.753  0.2915 -0.3154 -0.0890
33097W        W76035  32.060   6.859  26.303  0.3811 -0.0255  0.1319
33098W        W76036  32.111   5.689  25.949  0.0036  0.1495 -0.0592
33099W        W76037  30.964   6.305  24.010  0.0562  0.2321 -0.1467
33100W        W76038  31.359   3.497  26.337 -0.0116 -0.1109 -0.1612
33101W        W76039  30.589   6.654  26.919  0.1299 -0.5025  0.3185
33102W        W76040  33.970   6.025  27.826 -0.2728  0.0461 -0.4261
33103W        W76041  31.040   3.345  26.703  0.0511  0.0792  0.1865
33104W        W76042  31.214   5.107  24.851  0.0484  0.2453  0.2108
33105W        W76043  30.111   7.525  23.799 -0.0207  0.0950 -0.0641
33106W        W76044  30.318   6.048  27.645 -0.1937 -0.0361 -0.1339
33107W        W76045  31.690   6.015  25.957 -0.4668  0.0630  0.0052
33108W        W76046  30.422   6.105  26.306 -0.2219  0.2029 -0.0367
33109W        W76047  30.847   6.336  25.911 -0.0839 -0.1869 -0.4825
33110W        W76048  32.085   5.713  26.949  0.0226  0.1068 -0.2810
33111W        W76049  29.896   5.108  26.964 -0.1785 -0.0791  0.0801
33112W        W76050  31.553   5.713  25.570 -0.0704  0.0828  0.1436
33113W        W76051  31.210   6.837  26.407 -0.0149  0.0686 -0.0398
33114W        W76052  31.294   6.710  27.330 -0.0130 -0.0236  0.2296
33115W        W76053  31.134   4.877  27.219  0.0709 -0.1534 -0.1870
33116W        W76054  32.181   5.232  26.948 -0.0642  0.0951  0.0410
33117W        W76055  28.861   2.712  26.936  0.1534  0.1354 -0.0480
33118W        W76056  30.405   5.050  25.730  0.2526  0.2187  0.1321
33119W        W76057  31.209   3.929  23.707  0.0622  0.0043  0.0655
33120W        W76058  32.333   5.476  26.489 -0.0422  0.2469 -0.1557
33121W        W76059  30.035   3.478  27.022 -0.2970 -0.0227  0.1849
33122W        W76060  29.974   3.716  24.105 -0.2800 -0.1653 -0.1689
33123W        W76061  30.374   8.032  26.628 -0.2113 -0.0936  0.1230
33124W        W76062  31.734   6.741  27.057 -0.1488 -0.0401  0.1420
33125W        W76063  28.175   6.852  31.137 -0.0643  0.2672  0.0848
33126W        W76064  31.045   6.844  28.159 -0.0773 -0.1430 -0.3265
33127W        W76065  31.407   3.224  28.124  0.1685  0.0236  0.1406
33128W        W76066  32.382   7.612  27.523  0.1019 -0.1486 -0.0885
33129W        W76067  28.511   5.165  27.457  0.1182 -0.2154  0.1369
33130W        W76068  31.819   7.708  27.365 -0.0698  0.3311 -0.2645
33131W        W76069  31.565   4.346  30.949 -0.0361  0.0668 -0.0489
33132W        W76070  31.165   6.545  29.224  0.0488 -0.0302  0.0129
33133W        W76071  32.130   6.550   0.110 -0.0303 -0.4332  0.0368
33134W        W76072  32.169   4.515  27.380 -0.1563 -0.1150  0.2595
33135W        W76073  29.473   6.477  30.803 -0.1003 -0.0023  0.1236
33136W        W76074  30.580   7.369  30.718  0.0539 -0.0977  0.5345
33137W        W76075  30.692   3.549  28.604 -0.0992  0.1481  0.0797
33138W        W76076  29.768   5.339  28.860  0.3159 -0.1277  0.0217
33139W        W76077  32.286   5.791  29.350 -0.1993 -0.0567 -0.0108
33140W        W76078  27.580   6.574  29.660  0.3135  0.3228  0.1890
33141W        W76079  29.584   4.916  31.269 -0.0226 -0.0879  0.2348
33142W        W76080  31.193   6.208  28.078  0.1606  0.1037  0.2563
33143W        W76081  31.954   8.295  29.919 -0.3707 -0.0668  0.0926
33144W        W76082  31.474   5.490  29.612  0.0187  0.2090  0.0015
33145W        W76083  31.560   4.136  30.387 -0.0671 -0.1409  0.1455
33146W        W76084  30.490   6.086  28.105 -0.0386 -0.0670  0.1866
33147W        W76085  31.266   4.841  27.694 -0.1489 -0.1189 -0.2016
33148W        W76086  30.874   5.657  29.618 -0.2043  0.0861  0.0044
33149W        W76087  30.439   4.600   0.008  0.1271  0.0658 -0.0246
33150W        W76088  32.291   4.478  28.825  0.0903  0.2419 -0.0859
33151W        W76089  32.091   5.321  28.025  0.2662  0.2182 -0.2246
33152W        W76090  30.966   7.435  31.110  0.2363  0.1096  0.2318
33153W        W76091  31.845   7.585  29.494  0.0724 -0.0589  0.3308
33154W        W76092  33.010   4.386  30.560  0.0150 -0.1456 -0.3164
33155W        W76093  29.323   5.946  30.716 -0.0019 -0.1013  0.2814
33156W        W76094  29.540   6.758  29.167  0.1438 -0.1966 -0.0191
33157W        W76095  30.307   6.305  29.480  0.1286 -0.0041  0.0903
33158W        W76096  33.353   6.403  29.982  0.1608  0.0466  0.1912
33159W        W76097  31.693   7.060   0.521 -0.3380 -0.0209 -0.1321
33160W        W76098  30.434   6.895  30.607 -0.1132 -0.0456 -0.3458
33161W        W76099  29.324   6.294  27.531 -0.0245 -0.2786  0.3494
33162W        W76100  30.607   5.763  30.588 -0.1765 -0.0925 -0.3274
33163W        W76101  30.353   6.118   0.568 -0.0085 -0.0865  0.1623
33164W        W76102  31.381   6.040  29.366  0.0427 -0.2816 -0.0562
33165W        W76103  31.528   5.289  29.024 -0.0369 -0.2958  0.1708
33166W        W76104  29.622   6.989  28.355  0.0943  0.0309  0.0458
33167W        W76105  31.301   7.705  30.327  0.1454  0.1098 -0.1313
33168W        W76106  31.668   5.215  31.150  0.2925  0.0780 -0.0699
33169W        W76107  29.135   5.967  29.002 -0.2335  0.0925 -0.1429
33170W        W76108  32.417   5.173  30.543  0.0748  0.2152 -0.2797
33171W        W76109  32.004   6.901  30.249 -0.4538 -0.0142  0.2179
33172W        W76110  32.753   3.662  28.695  0.1198  0.0676 -0.0821
33173W        W76111  32.400   3.591  27.175 -0.0652 -0.1422 -0.1242
33174W        W76112  32.808   4.325  28.612  0.0544 -0.1611  0.1747
33175W        W76113  31.752   3.544  29.067  0.2750  0.0177 -0.0084
33176W        W76114  30.444   7.640  29.948 -0.1444  0.0399 -0.1619
33177W        W76115  28.681   5.497  31.504 -0.0535  0.0986 -0.2012
33178W        W76116  32.924   5.170  29.714 -0.2647  0.0027 -0.2017
33179W        W76117  31.084   5.785  27.306 -0.0544  0.2175  0.2309
33180W        W76118  32.569   4.643  30.503  0.0933  0.0946  0.1684
33181W        W76119  29.942   6.328  30.790  0.0788 -0.1438 -0.2573
33182W        W76120  30.173   6.411  29.055  0.1172 -0.1519  0.0220
33183W        W76121  33.510   7.080  28.603  0.2961 -0.0142 -0.0632
33184W        W76122  31.585   7.406  31.127  0.0480 -0.0446 -0.2029
33185W        W76123  31.568   7.590  28.228  0.2536 -0.2037 -0.0559
33186W        W76124  30.548   4.936  29.429  0.0528 -0.0701  0.1296
33187W        W76125  30.026   4.133  30.864 -0.1593  0.2252 -0.0941
33188W        W76126  29.202   4.665  30.924  0.2820 -0.0072  0.0969
33189W        W76127  29.049   2.903  27.372  0.0627 -0.0695  0.0123
33190W        W76128  31.727   5.874  31.719  0.0232 -0.0796 -0.0371
33191W        W76129  27.821   6.432  31.237 -0.2511 -0.0587  0.4091
33192W        W76130  34.062   5.121  28.990 -0.1076  0.2404 -0.1892
33193W        W76131  30.731   5.227  30.770  0.0284  0.2601 -0.3050
33194W        W76132  32.165   6.802  31.564  0.2817 -0.0483 -0.1818
33195W        W76133  32.949   6.404  28.426 -0.3701 -0.0158  0.2595
33196W        W76134  33.737   3.863  30.371 -0.1750  0.0104  0.2038
33197W        W76135  32.620   4.895  31.036 -0.3790 -0.2261 -0.0974
33198W        W76136  30.767   5.870  27.712 -0.1283  0.0193 -0.1833
33199W        W76137  31.337   5.754  27.823  0.1863 -0.0207  0.1162
33200W        W76138  33.493   5.874  29.165 -0.3645  0.0875 -0.1211
33201W        W76139  32.578   5.549  29.071 -0.1932 -0.1267  0.0947
33202W        W76140  30.024   7.001  30.312  0.2079  0.2603  0.3232
33203W        W76141  30.072   5.728  30.072 -0.0457 -0.2583  0.1268
33204W        W76142  32.203   5.237  31.153 -0.1774 -0.1334  0.2927
33205W        W76143  28.532   7.166  26.408 -0.0603 -0.3456 -0.3443
33206W        W76144  28.550   6.609  30.625 -0.3453 -0.1315 -0.0775
33207W        W76145  28.835   6.479  28.678 -0.0251  0.0795 -0.1130
33208W        W76146  28.572   5.543  30.165  0.3375 -0.3454 -0.1044
33209W        W76147  28.454   7.177  29.774 -0.0392 -0.1547 -0.1227
33210W        W76148  32.013   4.251  28.437 -0.0324 -0.1833  0.0441
33211W        W76149  31.388   4.808  30.881 -0.1120 -0.1545 -0.0927
33212W        W76150  34.211   3.976  30.737 -0.0062  0.0499  0.3424
33213W        W76151  28.812   5.986  27.078 -0.3396  0.0681 -0.0973
33214W        W76152  31.980   7.145  29.796 -0.1525 -0.2970 -0.0828
33215W        W76153  30.740   4.030  27.228  0.1968 -0.1798 -0.0735
33216W        W76154  31.604   6.178  28.433 -0.0748  0.1444  0.1698
33217W        W76155  28.964   3.846  31.889 -0.4582 -0.2355 -0.3035
33218W        W76156  29.677   6.173  30.349  0.4291 -0.3213 -0.2020
33219W        W76157  31.623   3.818  31.761  0.1331  0.3199  0.0402
33220W        W76158  28.844   5.527  30.985  0.1830  0.0990 -0.0357
33221W        W76159  33.235   6.171  31.567 -0.1070  0.0712 -0.0406
33222W        W76160  28.652   5.728  29.668 -0.0285  0.1609 -0.0013
33223W        W76161  33.944   5.367  28.579  0.1763  0.3882  0.0015
33224W        W76162  29.477   6.162  28.629  0.2074  0.3457 -0.1708
33225W        W76163  28.903   6.468  29.779 -0.0544 -0.0285 -0.0093
33226W        W76164  32.440   6.553  30.357  0.0927  0.1378  0.2266
33227W        W76165  31.468   6.359  28.922  0.0812 -0.2266 -0.0599
33228W        W76166  33.577   6.754  30.455  0.1911 -0.1157  0.0008
33229W        W76167  32.430   6.843  28.846  0.2148 -0.1559  0.2263
33230W        W76168  29.079   5.885  29.970 -0.1330 -0.0885  0.0305
33231W        W76169  29.081   4.757  29.490 -0.3010  0.0875 -0.1607
33232W        W76170  30.449   6.906  29.376 -0.0290  0.1331  0.0636
33233W        W76171  30.916   6.119  30.892 -0.3334 -0.2111 -0.1147
33234W        W76172  28.667   4.676  28.069 -0.1070 -0.0036 -0.1509
33235W        W76173  32.184   7.887  29.676 -0.0243  0.0767  0.1725
33236W        W76174  31.987   4.592  27.965 -0.0427 -0.2327 -0.0658
33237W        W76175  29.795   6.530  31.205  0.1292 -0.2038 -0.1112
33238W        W76176  33.259   3.978  30.458 -0.1552 -0.1578 -0.1606
33239W        W76177  33.692   6.698  31.603  0.1513 -0.1620  0.1337
33240W        W76178  32.046   5.775  28.398  0.1692  0.0553  0.0238
33241W        W76179  29.683   4.139  28.499 -0.3561 -0.0641  0.2970
33242W        W76180  31.297   7.533  28.727 -0.1677  0.2815 -0.1848
33243W        W76181  30.168   7.022  28.513 -0.1692  0.0776 -0.1116
33244W        W76182  30.188   5.904  29.174 -0.0360 -0.1287  0.0067
33245W        W76183  30.140   6.530  30.390 -0.1242 -0.1186 -0.2224
33246W        W76184  32.859   4.750  29.952  0.0214 -0.2538 -0.0321
33247W        W76185  28.416   5.162   0.262 -0.3539  0.2680  0.0678
33248W        W76186  30.931   5.442  31.534  0.1641 -0.0859  0.1401
33249W        W76187  29.821   5.041  27.963  0.0633  0.2094 -0.2333
33250W        W76188  28.247   6.476  31.515 -0.2886  0.1164 -0.0427
33251W        W76189  32.303   4.325  29.365 -0.1121 -0.0297  0.0711
33252W        W76190  32.904   4.481  28.089  0.3544 -0.1270 -0.1736
33253W        W76191  32.357   5.055  31.742  0.1696 -0.2226 -0.0440
33254W        W76192  33.550   6.688  28.915  0.1244 -0.0391  0.1870
33255W        W76193  31.213   5.345  28.540  0.1938  0.1468 -0.0927
33256W        W76194  30.936   3.275  28.280 -0.3081  0.4779 -0.1089
33257W        W76195  29.230   5.747  31.601  0.0121 -0.2406 -0.1129
33258W        W76196  30.419   6.786  28.874 -0.4173  0.0196  0.2205
33259W        W76197  30.686   6.675  30.220  0.2187  0.3714  0.2574
33260W        W76198  33.357   4.383  26.772  0.0695 -0.1326 -0.3558
33261W        W76199  33.923   7.146  29.868  0.0252 -0.1232  0.0911
33262W        W76200  29.420   6.290  29.825 -0.0918  0.0017  0.0967
33263W        W76201  31.756   6.513  31.638 -0.1213  0.1028 -0.0463
33264W        W76202  31.207   5.833  28.476 -0.1429  0.0140 -0.1061
33265W        W76203  30.933   5.374  30.385 -0.0590  0.2006  0.1890
33266W        W76204  30.508   5.687  26.585 -0.2395 -0.1615  0.0861
33267W        W76205  32.048   4.770  28.450 -0.1997  0.1070  0.0830
33268W        W76206  28.325   5.664  28.297  0.0514  0.0316 -0.1275
33269W        W76207  33.069   5.201  31.168  0.1560 -0.0230  0.0315
33270W        W76208  31.840   4.554  29.338  0.1549 -0.0504  0.0978
33271W        W76209  31.209   4.879  29.743  0.3766  0.2629 -0.2783
33272W        W76210  32.740   5.514  30.937  0.1607  0.4007 -0.0824
33273W        W76211  33.835   4.082  29.532  0.0194  0.1192 -0.0221
33274W        W76212  31.387   6.197  31.832 -0.2195 -0.1491 -0.1622
33275W        W76213  30.796   5.636  28.688 -0.1985 -0.1888  0.0050
33276W        W76214  31.048   5.024  31.217 -0.0173  0.2329  0.1172
33277W        W76215  29.538   5.135  30.036  0.2684  0.0767 -0.0999
33278W        W76216  30.339   6.638  29.860  0.0344 -0.1829  0.1111
33279W        W76217  31.816   5.690  31.201  0.1252 -0.0755  0.1508
33280W        W76218  31.174   5.644  29.197  0.0147 -0.0971 -0.2573
33281W        W76219  31.634   3.036   0.495  0.1035  0.1108  0.0822
33282W        W76220  31.215   4.260  28.226  0.1250  0.0843  0.1041
33283W        W76221  30.923   7.003  29.173 -0.2432 -0.1939 -0.4114
33284W        W76222  29.787   7.172  27.890 -0.0511  0.1971  0.1195
33285W        W76223  31.888   4.916  28.995  0.0895  0.1753  0.3294
33286W        W76224  29.767   6.374  29.301 -0.2304 -0.1365 -0.2459
33287W        W76225  30.736   8.111  29.343 -0.1698  0.0517 -0.1118
33288W        W76226  31.718   5.182   0.005  0.1163  0.1390 -0.0580
33289W        W76227  29.335   6.681  28.711 -0.1370 -0.0970  0.0669
33290W        W76228  33.226   2.514  30.056 -0.1492  0.1674  0.1093
33291W        W76229  29.575   8.175  29.343 -0.0998 -0.0165  0.1015
33292W        W76230  30.254   5.025  28.968  0.4641 -0.0578  0.1618
33293W        W76231  29.061   6.200  28.328 -0.0148  0.1771 -0.0852
33294W        W76232  32.664   6.197  27.977 -0.0068 -0.0828 -0.0963
33295W        W76233  32.551   5.437  27.231  0.3477  0.2218 -0.2296
33296W        W76234  30.489   4.919  30.387 -0.0233 -0.1308 -0.0283
33297W        W76235  31.345   5.293  30.736  0.0272 -0.0370 -0.0575
33298W        W76236  29.507   6.718  30.343  0.0523 -0.1735  0.0129
33299W        W76237  31.172   6.397  29.726 -0.1537  0.1633 -0.0654
33300W        W76238  32.377   3.984  28.650  0.1377  0.1842  0.0932
33301W        W76239  31.130   5.849  30.493 -0.3010  0.3049 -0.1576
33302W        W76240  31.593   4.730  31.397  0.1823  0.3336  0.0302
33303W        W76241  29.262   4.959  27.912 -0.2397  0.2624  0.0774
33304W        W76242  31.937   5.073  29.601  0.0350 -0.0270  0.0941
33305W        W76243  30.905   6.105  29.463  0.1041  0.2091  0.0291
33306W        W76244  30.075   7.152  28.963  0.1750  0.1435 -0.0854
33307W        W76245  30.411   5.444  31.718 -0.2186 -0.2309 -0.3024
33308W        W76246  30.353   5.165  26.380 -0.2409  0.0520 -0.3546
33309W        W76247  29.697   6.034  28.162 -0.2793  0.0568 -0.1836
33310W        W76248  29.361   4.103  31.637  0.1293  0.1333  0.1504
33311W        W76249  31.828   6.484  31.138  0.0059  0.0128 -0.2588
33312W        W76250  30.668   5.779  29.150 -0.1269  0.1004  0.3163
33313W        W76251  30.791   4.665  28.428 -0.0546 -0.0141  0.1577
33314W        W76252  30.026   6.807  28.075  0.0976 -0.1425 -0.0590
33315W        W76253  31.648   5.708  30.750 -0.1324 -0.1885 -0.1246
33316W        W76254  32.171   5.800  28.873 -0.1657  0.0286  0.0205
33317W        W76255  30.188   5.732  30.910  0.1675 -0.1122  0.0336
33318W        W76256  31.062   5.233  29.428 -0.0018 -0.0590  0.4968
33319W        W76257  31.689   7.435  29.022  0.2540  0.2850 -0.5259
33320W        W76258  31.803   6.203   0.151 -0.0679  0.1357 -0.0924
33321W        W76259  30.403   5.521  27.540  0.0556 -0.2534 -0.2998
33322W        W76260  29.673   5.871  29.009 -0.2409 -0.2921 -0.2603
33323W        W76261  30.641   6.304  31.283  0.1794 -0.1048 -0.3248
33324W        W76262  30.014   5.634  31.347  0.0425 -0.1104 -0.1282
33325W        W76263  29.192   6.635  28.139  0.0280 -0.0047  0.0015
33326W        W76264  30.091   6.338  28.010  0.0046 -0.0600 -0.0168
33327W        W76265  29.335   5.743  29.546 -0.1172  0.3337 -0.1938
33328W        W76266  33.363   3.767  29.322  0.1990  0.0335  0.1083
33329W        W76267  31.030   6.091  28.947 -0.1681  0.2001 -0.0245
33330W        W76268  32.158   5.309  29.130 -0.3505 -0.1769 -0.2804
33331W        W76269  33.599   4.202  31.364  0.1201  0.5386 -0.0388
33332W        W76270  31.794   5.426  27.289  0.2340  0.0123 -0.0303
33333W        W76271  32.574   3.279  30.625  0.1434  0.1225 -0.0144
33334W        W76272  32.794   4.041  30.989  0.2968  0.0776  0.1500
33335W        W76273  32.087   6.705  30.715  0.2746  0.1398  0.2551
33336W        W76274  28.281   5.716  31.317 -0.2000 -0.0820 -0.0622
33337W        W76275  31.696   7.493   0.968 -0.2962 -0.2998  0.1360
33338W        W76276  31.044   3.268   0.644  0.1726 -0.0324 -0.1209
33339W        W76277  32.546   5.099  28.228  0.0092  0.1628  0.2303
33340W        W76278  29.496   4.551  28.219  0.1285  0.1180  0.1369
33341W        W76279  31.097   6.875  30.602  0.0264 -0.1044 -0.1381
33342W        W76280  33.073   6.263  30.361  0.0862 -0.1689  0.2723
33343W        W76281  31.840   6.696  28.862  0.1619 -0.2278 -0.1232
33344W        W76282  33.033   5.251  28.717 -0.2735 -0.1714 -0.1570
33345W        W76283  29.811   6.565  30.012  0.1104 -0.0256  0.0990
33346W        W76284  32.556   5.465  28.552  0.2477  0.1792 -0.0104
33347W        W76285  32.108   5.261  28.657  0.0093 -0.0674  0.0307
33348W        W76286  31.218   5.880  29.974  0.2539 -0.0268  0.0923
33349W        W76287  30.109   4.239  31.316 -0.0315  0.0138 -0.0406
33350W        W76288  33.640   6.824  30.972 -0.0223  0.1251 -0.1134
33351W        W76289  31.852   4.594  29.895 -0.2369 -0.1795  0.3151
33352W        W76290  31.893   3.852  30.751 -0.1185 -0.0435 -0.0153
33353W        W76291  32.122   5.217  30.146  0.0178  0.0738 -0.2159
33354W        W76292  32.103   3.895  31.538 -0.1708 -0.1079  0.0961
33355W        W76293  29.637   4.373  31.146  0.2598 -0.6019  0.1944
33356W        W76294  33.081   7.913  30.401 -0.0937  0.1030  0.3099
33357W        W76295  32.517   5.040  28.867  0.0798  0.2235 -0.3581
33358W        W76296  33.540   6.147  30.525  0.0622  0.2228  0.2289
33359W        W76297  33.499   5.243  28.804  0.0626  0.0871  0.2825
33360W        W76298  30.697   4.773  28.911 -0.0177  0.3391 -0.4283
33361W        W76299  29.940   4.994  29.317 -0.0124  0.1701  0.0704
33362W        W76300  31.891   6.040  29.663 -0.1187  0.1894 -0.0488
33363W        W76301  30.652   5.047  26.795  0.1650 -0.2399  0.0953
33364W        W76302  31.412   5.527  30.295  0.1500  0.1423 -0.0270
33365W        W76303  31.606   6.511  29.421  0.1512  0.1653  0.1332
33366W        W76304  31.406   6.626  28.479  0.1527 -0.3097 -0.1225
33367W        W76305  32.671   4.588  29.087 -0.0228 -0.0661 -0.0645
33368W        W76306  29.796   5.474  29.597  0.1111 -0.0812 -0.2078
33369W        W76307  29.589   5.333   0.111 -0.0570 -0.0591  0.0426
33370W        W76308  30.248   4.635  28.484  0.0353  0.1118 -0.0501
33371W        W76309  30.930   7.005  27.213 -0.0609 -0.1378 -0.0808
33372W        W76310  31.777   6.172  30.542  0.0661  0.2981 -0.0606
33373W        W76311  31.250   5.682  31.889  0.1213  0.1055  0.0067
33374W        W76312  30.616   3.546  29.551 -0.0957 -0.2435 -0.0272
33375W        W76313  32.260   3.790  31.083 -0.0171  0.2571 -0.1330
33376W        W76314  29.488   7.070  30.800  0.1517  0.2848 -0.0501
33377W        W76315  30.294   3.999  29.070 -0.0151 -0.0237  0.0116
33378W        W76316  28.270   6.963  30.683  0.1937  0.0999 -0.0271
33379W        W76317  28.299   6.372   0.498 -0.3986 -0.0831  0.0698
33380W        W76318  31.590   6.330  30.011  0.2878  0.2927  0.0301
33381W        W76319  31.684   4.083  29.294  0.0906 -0.0640 -0.3868
33382W        W76320  32.023   5.654  30.386 -0.0767  0.0972  0.3121
33383W        W76321  30.894   6.643  28.789 -0.0292  0.0769 -0.2412
33384W        W76322  33.562   5.163  31.233 -0.0947 -0.0928  0.2212
33385W        W76323  31.025   5.512  31.045 -0.4620 -0.1419  0.0782
33386W        W76324  28.676   6.100  29.345 -0.1734 -0.1480  0.1056
33387W        W76325  31.281   6.741  31.661  0.1732  0.0777  0.0200
33388W        W76326  34.459   5.054  29.387  0.0528  0.1747  0.0018
33389W        W76327  30.646   6.350  29.138 -0.2461 -0.1903  0.0831
33390W        W76328  30.553   3.294  31.369  0.2551  0.0202 -0.0373
33391W        W76329  30.566   4.467  31.534 -0.0285 -0.0562  0.1711
33392W        W76330  32.240   6.219  27.610  0.1390  0.0864  0.0291
33393W        W76331  30.757   2.430  28.924  0.0227 -0.0197  0.1556
33394W        W76332  30.681   5.283  29.077  0.0854  0.2599  0.1997
33395W        W76333  30.743   7.842  31.895 -0.2557 -0.2862 -0.2123
33396W        W76334  28.689   4.192   0.206  0.2155  0.1861 -0.0457
33397W        W76335  30.741   6.968  27.732 -0.2580  0.0276 -0.1295
33398W        W76336  31.752   6.930  27.767  0.1059  0.0545 -0.5030
33399W        W76337  32.795   5.975  29.209  0.1000 -0.1500 -0.2351
33400W        W76338  31.764   7.577  30.575  0.1382  0.0100 -0.6730
33401W        W76339  31.612   4.542  28.384 -0.1321 -0.0863  0.1849
33402W        W76340  30.442   6.072  28.783  0.0410 -0.0717 -0.0128
33403W        W76341  29.419   5.342  26.726  0.0114  0.0534 -0.3723
33404W        W76342  32.234   6.600  27.251  0.0002 -0.1986  0.0221
33405W        W76343  30.569   7.240  28.905  0.2252  0.2584 -0.2941
33406W        W76344  32.655   5.646  29.644 -0.2474 -0.4203  0.0349
33407W        W76345  33.334   4.393  27.440 -0.2826 -0.1749 -0.1100
33408W        W76346  32.814   6.304  31.301 -0.0105  0.1210  0.0402
33409W        W76347  33.158   6.165  28.864  0.0121 -0.2092 -0.3560
33410W        W76348  31.379   5.600  31.440 -0.1281 -0.3132  0.1902
33411W        W76349  29.806   5.382  30.950 -0.1186  0.1065 -0.5354
33412W        W76350  29.373   4.559  28.770  0.0665  0.0234 -0.0880
33413W        W76351  32.510   4.407  31.192  0.2095 -0.0697  0.0056
33414W        W76352  33.298   4.014  31.791  0.1640  0.2762 -0.1547
33415W        W76353  29.921   5.671  31.832  0.2142  0.1145 -0.1031
33416W        W76354  32.149   6.237  28.154  0.3924 -0.0106 -0.1351
33417W        W76355  31.627   5.048  28.558 -0.0208 -0.0503  0.1853
33418W        W76356  30.711   6.231  29.931  0.0745  0.0632 -0.0214
33419W        W76357  32.556   4.031  29.111  0.0782  0.4148  0.2871
33420W        W76358  30.441   5.540  28.247 -0.2359  0.3368 -0.2013
33421W        W76359  31.713   5.762  28.760  0.1531  0.0537 -0.1078
33422W        W76360  32.244   7.351  29.279  0.1532 -0.0985  0.0984
33423W        W76361  30.163   7.305  29.439  0.0727 -0.2168  0.1253
33424W        W76362  29.816   6.001  29.670  0.0831  0.0219 -0.2609
33425W        W76363  28.700   4.353  28.974 -0.0909 -0.0523  0.0479
33426W        W76364  34.446   3.980  28.364  0.1373 -0.0033 -0.1761
33427W        W76365  30.601   5.264  29.929 -0.0728 -0.0837  0.0324
33428W        W76366  32.437   5.194  29.583  0.0007 -0.0709  0.0916
33429W        W76367  30.312   5.517  28.807 -0.1293 -0.0802 -0.0303
33430W        W76368  33.875   4.180  30.045 -0.1223  0.0365  0.0811
33431W        W76369  32.103   6.160  30.147 -0.1283 -0.2279 -0.0865
33432W        W76370  30.838   4.798  30.036  0.0968 -0.1075 -0.2114
33433W        W76371  31.201   4.953  28.862  0.2617 -0.0982  0.0731
33434W        W76372  33.308   6.332  29.377  0.2855 -0.3142 -0.2037
33435W        W76373  32.898   4.926  27.888  0.1558 -0.0017 -0.0386
33436W        W76374  31.216   6.376  31.316  0.0897 -0.3737 -0.0136
33437W        W76375  29.781   4.746  28.601  0.0339 -0.2483 -0.0224
33438W        W76376  30.656   3.984  27.741  0.3032 -0.0984  0.0264
33439W        W76377  30.286   6.516  28.493  0.3083 -0.0006  0.0930
33440W        W76378  30.377   5.439  30.387  0.2035  0.0868  0.3549
33441W        W76379  32.731   6.504  30.813  0.1758  0.0839  0.1630
33442W        W76380  29.433   5.196  29.479 -0.2011 -0.0544 -0.1122
33443W        W76381  34.618   6.793  27.793  0.1062  0.4033  0.0627
33444W        W76382  31.640   5.083  30.012  0.2148  0.0106 -0.1214
33445W        W76383  30.871   6.293  28.437 -0.1400  0.2056  0.0524
33446W        W76384  31.416   7.008  28.976  0.0199 -0.3944 -0.3366
33447W        W76385  32.269   6.945  31.125 -0.2549 -0.3483  0.1346
33448W        W76386  30.167   6.110  31.283 -0.2317  0.0048 -0.0484
33449W        W76387  31.577   6.644  30.393  0.1322 -0.1560  0.2241
33450W        W76388  32.589   6.140  30.082  0.3387  0.0745 -0.2598
33451W        W76389  31.354   4.442  29.143 -0.1672 -0.4056  0.1365
33452W        W76390  31.994   4.339  31.131  0.2241 -0.0409 -0.4040
33453W        W76391  28.811   5.758  28.648 -0.2406  0.1510 -0.0018
33454W        W76392  32.715   4.492  29.558 -0.0598  0.3958  0.2553
33455W        W76393  32.290   4.796  29.290 -0.3096 -0.0942 -0.0738
33456W        W76394  31.960   7.734  27.890 -0.2138 -0.1408 -0.0925
33457W        W76395  31.665   3.441  30.953 -0.0842  0.2437  0.0383
33458W        W76396  31.221   7.383  30.672 -0.0530 -0.1184  0.3420
33459W        W76397  31.020   6.873   0.045 -0.3237 -0.1745  0.0105
33460W        W76398  29.933   5.641  28.455  0.1622  0.3167 -0.1544
33461W        W76399  30.028   4.647  31.105 -0.1097 -0.0917 -0.0978
33462W        W76400  30.580   8.186  29.864  0.0514  0.3882  0.0568
33463W        W76401  30.468   8.933  29.402  0.1218 -0.0748  0.2389
33464W        W76402  33.313   6.497  30.756  0.4465  0.0671 -0.1451
33465W        W76403  30.396   5.845  29.674  0.2306 -0.1315  0.1905
33466W        W76404  33.130   5.552  29.615  0.0486  0.0742  0.0362
33467W        W76405  31.817   5.647  29.298  0.0860 -0.1305 -0.3184
33468W        W76406  33.180   4.818  28.949 -0.1601  0.2235  0.1701
33469W        W76407  32.844   4.516  27.611 -0.3636 -0.0464  0.1623
33470W        W76408  29.531   5.371  31.486  0.1199 -0.1019  0.0323
33471W        W76409  30.644   4.219  28.218  0.4253  0.0934 -0.4497
33472W        W76410  30.100   6.629  27.043  0.1748  0.0175 -0.0460
33473W        W76411  29.966   6.135  28.640  0.2178 -0.0775 -0.1995
33474W        W76412  31.649   3.243  31.772  0.0355 -0.0958  0.0751
33475W        W76413  30.605   4.370  30.440  0.0088  0.0980 -0.4819
33476W        W76414  29.588   5.715  30.016 -0.0364 -0.0445  0.1175
33477W        W76415  30.964   3.981  28.652  0.1105 -0.0909  0.1675
33478W        W76416  32.060   6.891  28.435 -0.0639 -0.0856  0.2383
33479W        W76417  31.410   4.410  29.704  0.2974 -0.0614  0.0502
33480W        W76418  30.733   5.706  30.114  0.0168  0.2812 -0.3430
33481W        W76419  32.983   5.353  28.202  0.3260  0.4224  0.1272
33482W        W76420  32.143   6.640  27.773  0.1540 -0.1290 -0.0404
33483W        W76421  31.109   5.359  29.919 -0.3359 -0.0617 -0.3438
33484W        W76422  32.329   6.428  31.133  0.2033 -0.2594  0.3078
33485W        W76423  28.276   6.108  29.589  0.1429 -0.0371  0.0393
33486W        W76424  31.347   4.213   0.861 -0.1052 -0.0317 -0.2833
33487W        W76425  30.940   3.986  31.106 -0.0449  0.1868  0.3784
33488W        W76426  29.711   3.036  28.424  0.1072  0.0390  0.1575
33489W        W76427  31.692   5.850  30.089  0.3553  0.1720  0.1633
33490W        W76428  32.479   6.912  28.107  0.2589 -0.3460 -0.1182
33491W        W76429  32.834   6.907  27.283  0.0681 -0.1033  0.1095
33492W        W76430  29.812   4.691  29.748  0.1151 -0.1081  0.1632
33493W        W76431  29.914   7.014  31.234 -0.0526  0.3911 -0.0007
33494W        W76432  28.994   3.704  30.916 -0.0285  0.2354  0.0509
33495W        W76433  30.798   5.095  28.097 -0.0949 -0.0991 -0.2216
33496W        W76434  29.976   4.730   0.221 -0.0199 -0.1650 -0.0297
33497W        W76435  32.080   6.309  28.658  0.0623  0.2047 -0.0537
33498W        W76436  33.812   5.175  30.258  0.1103  0.1400  0.0152
33499W        W76437  31.590   5.635  28.273  0.3391  0.1167 -0.1186
33500W        W76438  29.724   3.198  31.966 -0.0564 -0.0190 -0.0191
33501W        W76439  30.055   4.143  31.792 -0.3536 -0.0626  0.0000
33502W        W76440  32.022   6.504  29.777 -0.0136  0.1107 -0.0207
33503W        W76441  30.713   3.761  29.031 -0.2601 -0.1045 -0.1119
33504W        W76442  33.715   4.915  29.340  0.0012 -0.1548 -0.1286
33505W        W76443  31.870   5.751  27.905  0.0714 -0.0367  0.1361
33506W        W76444  29.316   6.180  31.169 -0.1337 -0.3348  0.0712
33507W        W76445  31.151   4.091  27.726  0.2955 -0.3403  0.4064
33508W        W76446  31.576   6.794  29.909 -0.0711  0.0923 -0.3756
33509W        W76447  30.209   5.083  30.837  0.0104 -0.1127  0.3155
33510W        W76448  30.799   5.956   0.026 -0.2229 -0.0505  0.1524
33511W        W76449  31.670   4.202  27.984 -0.2402 -0.1599 -0.0115
33512W        W76450  32.877   7.364  28.095 -0.0686  0.0936 -0.1550
33513W        W76451  30.817   7.362  30.277  0.0250 -0.2311 -0.3386
33514W        W76452  32.769   7.676   0.403  0.1483 -0.1748 -0.2611
33515W        W76453  30.758   7.019  29.819  0.2591 -0.0948 -0.1678
33516W        W76454  32.479   6.555  28.422 -0.0781 -0.0574 -0.2036
33517W        W76455  31.727   3.881  31.207 -0.2306  0.0856  0.1909
33518W        W76456  30.087   5.124  28.364 -0.0645 -0.1445 -0.1417
33519W        W76457  29.755   5.907  27.573  0.1273 -0.0515 -0.3087
33520W        W76458  32.313   4.756  29.799 -0.0220 -0.0890 -0.0948
33521W        W76459  29.475   4.068  28.974  0.0454 -0.1403  0.1642
33522W        W76460  31.939   3.583  29.532  0.0899 -0.2948 -0.1912
33523W        W76461  30.334   5.584   0.245 -0.3039  0.0387 -0.0820
33524W        W76462  30.227   6.192  30.033 -0.3500  0.1058 -0.0846
33525W        W76463  32.241   5.695  31.491  0.1705 -0.2518 -0.0359
33526W        W76464  30.549   5.334  31.226 -0.3159  0.1276  0.1032
33527W        W76465  28.356   5.172  31.764  0.3304  0.0941  0.2113
33528W        W76466  30.983   5.948  31.452  0.0089  0.2051  0.3386
33529W        W76467  28.388   5.858   0.332 -0.1382 -0.1134 -0.0328
33530W        W76468  30.063   4.671  31.614 -0.3641  0.0816  0.2222
33531W        W76469  31.935   5.302  31.556 -0.0305  0.1209 -0.0808
33532W        W76470  32.140   4.783  30.353 -0.0657  0.0925  0.1827
33533W        W76471  32.245   4.367  31.652 -0.3580 -0.0923  0.0629
33534W        W76472  31.744   6.960  31.342 -0.0028  0.0786  0.1023
33535W        W76473  30.644   5.814  31.120  0.1793 -0.3523 -0.1651
33536W        W76474  30.059   3.809   0.713 -0.1364 -0.2453  0.0451
33537W        W76475  32.676   5.904   0.303 -0.0923 -0.2609  0.0102
33538W        W76476  30.117   5.960  30.486 -0.1924  0.2552 -0.1632
33539W        W76477  34.163   6.385   0.111 -0.0362 -0.2696  0.0080
33540W        W76478  30.596   6.680   0.217 -0.0351 -0.2162  0.1579
33541W        W76479  29.077   4.741  31.978 -0.0148  0.1439  0.2673
33542W        W76480  32.731   6.484   0.347  0.0879  0.0835 -0.0434
33543W        W76481  29.117   3.185  31.054  0.3731 -0.1371 -0.1434
33544W        W76482  30.008   3.305  31.606  0.1010  0.1083  0.0059
33545W        W76483  31.095   4.519  31.201 -0.0044  0.0005  0.0900
33546W        W76484  30.222   5.138   0.976  0.0420 -0.3555 -0.3832
33547W        W76485  32.721   4.810  31.517  0.0264  0.3877  0.2046
33548W        W76486  32.282   3.211  31.693 -0.1554  0.0000  0.1404
33549W        W76487  32.037   2.897  31.146  0.0068  0.1842 -0.1381
33550W        W76488  32.222   4.020   0.864  0.1283  0.0105  0.1663
33551W        W76489  31.425   4.676  31.888 -0.0938  0.1986 -0.3084
33552W        W76490  29.871   6.121   0.874  0.1243  0.0386  0.0447
33553W        W76491  29.747   3.772  31.663  0.2684 -0.0342  0.2501
33554W        W76492  30.201   7.436   0.786  0.2317  0.3277  0.0845
33555W        W76493  29.874   4.975  30.351 -0.1995 -0.1418 -0.3217
33556W        W76494  30.049   3.006   0.977 -0.2034 -0.3422  0.1266
33557W        W76495  32.902   5.635  31.413 -0.2641  0.0704  0.3462
33558W        W76496  32.227   5.653  29.875 -0.0213  0.1118  0.1108
33559W        W76497  30.721   3.076   0.291 -0.1780 -0.1809 -0.0001
33560W        W76498  29.160   5.646   0.442 -0.0830 -0.3405 -0.2232
33561W        W76499  28.800   5.009  31.628 -0.0752 -0.0290  0.4397
33562W        W76500  30.489   4.953  31.645 -0.1197  0.1429  0.0233
33563W        W76501  31.936   4.787  31.801  0.0915 -0.0711  0.1137
33564W        W76502  30.826   6.184   0.646 -0.0219 -0.1034  0.1161
33565W        W76503  33.936   5.636   0.410 -0.1046 -0.0743  0.1259
33566W        W76504  30.808   4.746  30.773  0.0144 -0.5619 -0.0704
33567W        W76505  30.578   4.072  31.838  0.2575  0.0089  0.2198
33568W        W76506  31.348   7.292  31.631 -0.0864 -0.0367 -0.2955
33569W        W76507  28.159   1.860  31.411  0.1676 -0.0555  0.4650
33570W        W76508  31.781   6.136   0.917 -0.1378 -0.0707 -0.0513
33571W        W76509  31.602   2.854  30.824 -0.0160  0.1119  0.0303
33572W        W76510  31.668   4.451   1.162 -0.1008 -0.0724  0.1747
33573W        W76511  33.410   6.234   1.511 -0.0419  0.2403  0.4265
33574W        W76512  29.572   5.909   0.137 -0.3803 -0.1742  0.3902
33575W        W76513  31.145   6.867   0.632 -0.0422 -0.2246  0.0643
33576W        W76514  33.000   4.085   0.169  0.1309  0.1810  0.5218
33577W        W76515  31.934   3.453  31.424  0.1313 -0.2485  0.1681
33578W        W76516  30.297   6.692  31.066  0.1285 -0.0445 -0.2414
33579W        W76517  32.251   5.603  30.843 -0.1835 -0.2122 -0.0052
33580W        W76518  32.154   5.033   0.320 -0.2120 -0.0441  0.0490
33581W        W76519  32.418   7.294  31.506  0.0279  0.3329 -0.2136
33582W        W76520  30.917   8.523  31.258  0.5181 -0.1333 -0.0196
33583W        W76521  30.103   7.165  31.702 -0.0029  0.1011  0.1258
33584W        W76522  27.952   4.897  30.440 -0.0098  0.1120 -0.1150
33585W        W76523  30.275   3.778   0.093  0.0900  0.0396  0.1426
33586W        W76524  30.411   3.860  31.009 -0.1260  0.1131  0.2238
33587W        W76525  29.924   6.804  30.762 -0.0485 -0.0027  0.1362
33588W        W76526  31.100   2.959  31.582  0.2823  0.3162  0.1769
33589W        W76527  30.995   7.430  31.946 -0.0946  0.2335  0.0201
33590W        W76528  31.656   5.727   0.236  0.4286 -0.3118  0.0151
33591W        W76529  31.352   5.115  31.669 -0.2817 -0.0736  0.0277
33592W        W76530  30.802   9.452  20.062 -0.2909 -0.1632 -0.1705
33593W        W76531  28.863   9.303  18.071 -0.0880  0.0134  0.1435
33594W        W76532  32.483   9.252  16.187 -0.0321 -0.0551 -0.0934
33595W        W76533  32.042  10.325  18.215 -0.1561 -0.0931  0.0782
33596W        W76534  29.722   7.557  17.310 -0.0692 -0.0651 -0.2878
33597W        W76535  32.036   9.829  18.119 -0.0701  0.0401 -0.0769
33598W        W76536  28.811   7.932  18.452 -0.1013  0.0632  0.2622
33599W        W76537  31.491  11.311  17.617 -0.3277  0.0084  0.0982
33600W        W76538  32.337  10.853  19.360  0.0414 -0.1093  0.0748
33601W        W76539  31.794   8.760  16.103  0.1524 -0.1261  0.0874
33602W        W76540  31.806   8.179  19.774  0.1127 -0.0335 -0.0240
33603W        W76541  30.622  10.270  18.085  0.1235  0.2294 -0.0663
33604W        W76542  30.702   8.008  16.776  0.0031  0.0925  0.1660
33605W        W76543  28.716   7.972  19.999  0.3109 -0.2212  0.1163
33606W        W76544  31.157   8.902  16.727  0.4544  0.1322 -0.0244
33607W        W76545  29.544   8.707  16.609  0.2228  0.0894 -0.1100
33608W        W76546  31.619   8.750  17.879  0.0047  0.0780 -0.1517
33609W        W76547  31.379   7.927  16.156  0.0158  0.1654  0.1496
33610W        W76548  32.541  10.369  17.755  0.1034  0.1379  0.2103
33611W        W76549  31.690   8.220  17.641 -0.0371 -0.0630 -0.1085
33612W        W76550  30.981   7.560  18.841 -0.1127  0.3930 -0.3116
33613W        W76551  30.787  10.225  16.332  0.1864 -0.0891  0.1879
33614W        W76552  30.204  10.395  17.270  0.0311 -0.3305 -0.2044
33615W        W76553  29.010   9.547  18.605  0.1467 -0.1593 -0.2386
33616W        W76554  30.510   9.096  19.216 -0.2108 -0.1258 -0.0190
33617W        W76555  30.730   9.340  17.800  0.0178 -0.1809 -0.0894
33618W        W76556  33.189  11.364  17.183 -0.0747  0.1275 -0.0022
33619W        W76557  30.458  11.193  16.568 -0.0629 -0.1834  0.0466
33620W        W76558  31.115  10.921  17.409 -0.0785 -0.1702 -0.5292
33621W        W76559  31.626   8.433  18.917 -0.5398 -0.1485 -0.0174
33622W        W76560  29.735   9.048  17.928 -0.0764 -0.3110 -0.1422
33623W        W76561  28.066  10.573  17.749 -0.1037  0.0323  0.2917
33624W        W76562  29.389  10.368  16.070  0.1988  0.1525  0.2027
33625W        W76563  33.031  10.774  16.235  0.1923  0.1199 -0.0942
33626W        W76564  31.327  11.783  17.602 -0.0822  0.0462 -0.1299
33627W        W76565  30.718  10.601  19.608  0.1434 -0.3666  0.2761
33628W        W76566  29.838  10.102  16.264  0.2092 -0.0476  0.2331
33629W        W76567  30.770   9.565  18.836 -0.0827 -0.2144 -0.0758
33630W        W76568  29.729   8.335  19.209  0.1993 -0.0541  0.0936
33631W        W76569  30.762   9.486  18.304  0.2473  0.2571 -0.2859
33632W        W76570  30.994   7.659  16.401  0.3942 -0.0209 -0.0308
33633W        W76571  30.489   9.657  15.995  0.1202 -0.2487 -0.2167
33634W        W76572  31.199   9.506  17.928  0.0039  0.2444  0.1679
33635W        W76573  29.684   9.563  18.767 -0.0295  0.1370 -0.2091
33636W        W76574  30.631   9.916  18.504  0.5352 -0.1106 -0.1616
33637W        W76575  32.265   8.416  20.019 -0.0004  0.2471  0.2927
33638W        W76576  30.172  10.773  16.849 -0.2690  0.0397  0.2998
33639W        W76577  31.690   9.361  16.180  0.0983 -0.0014 -0.0750
33640W        W76578  29.769   8.040  17.503  0.1827 -0.0361 -0.0088
33641W        W76579  32.979   7.858  16.222  0.2324  0.2086  0.0793
33642W        W76580  31.163   6.563  17.217  0.0746 -0.3184 -0.1052
33643W        W76581  30.312  10.933  17.264  0.0714 -0.3071  0.0936
33644W        W76582  30.812   8.586  19.304  0.0576  0.0616 -0.1083
33645W        W76583  29.904   9.252  18.387 -0.3281 -0.1220  0.1858
33646W        W76584  31.248   8.764  17.206 -0.2464  0.0696 -0.0075
33647W        W76585  31.375   7.821  17.559  0.0165 -0.2108  0.0662
33648W        W76586  30.726  11.058  19.247 -0.1331 -0.3683 -0.4330
33649W        W76587  30.190   8.686  19.158 -0.0821  0.0067  0.0338
33650W        W76588  31.724  11.505  17.241 -0.1971  0.2133  0.2621
33651W        W76589  32.745   9.706  18.414 -0.4917  0.0439 -0.3741
33652W        W76590  31.772   9.473  16.674 -0.2866  0.1091 -0.0602
33653W        W76591  28.263   8.818  18.704 -0.0677  0.4608 -0.0750
33654W        W76592  28.848   9.938  19.097  0.2704 -0.0129 -0.0677
33655W        W76593  28.612   9.263  18.812 -0.3201 -0.0667 -0.0214
33656W        W76594  30.459   7.117  16.457  0.1276 -0.1342  0.0392
33657W        W76595  33.301   9.520  17.540 -0.0370  0.1429 -0.1325
33658W        W76596  28.802  11.442  18.250 -0.1321 -0.1424  0.0032
33659W        W76597  32.549   8.389  16.878  0.0888 -0.3693  0.0231
33660W        W76598  30.862   9.790  17.601  0.2227 -0.1756 -0.0819
33661W        W76599  31.442  11.473  18.107 -0.1322  0.1203 -0.0225
33662W        W76600  31.399   9.834  15.746  0.1842 -0.2120  0.0208
33663W        W76601  32.120   6.867  17.815 -0.1304  0.1919  0.1025
33664W        W76602  31.420   7.647  18.550 -0.3595 -0.2378 -0.1489
33665W        W76603  29.475   9.048  16.186 -0.2911  0.1658  0.0826
33666W        W76604  29.751   7.871  16.916  0.1624  0.0187 -0.0201
33667W        W76605  31.522  10.721  18.743 -0.2080 -0.1358 -0.2800
33668W        W76606  32.010  10.393  15.689 -0.1587 -0.0834  0.1407
33669W        W76607  30.618  11.106  18.676 -0.2815 -0.0017  0.0262
33670W        W76608  31.095   9.123  19.048  0.2273  0.4877  0.0594
33671W        W76609  32.139  10.431  19.318 -0.0799  0.0417  0.0223
33672W        W76610  30.063  11.245  16.949  0.2343 -0.0712 -0.2895
33673W        W76611  30.234   9.135  18.028  0.1415  0.1518  0.2535
33674W        W76612  29.947   8.285  17.053  0.0677 -0.1231 -0.0517
33675W        W76613  29.917   8.185  20.048 -0.3048  0.0054  0.1578
33676W        W76614  30.677  10.595  17.151  0.2239  0.2128 -0.1184
33677W        W76615  32.385   8.750  16.011  0.0999 -0.3093 -0.0752
33678W        W76616  29.810   6.997  18.793  0.2965  0.1339  0.0009
33679W        W76617  33.794   7.564  16.296 -0.3530  0.3454  0.4399
33680W        W76618  30.935  10.664  18.021 -0.1839 -0.3356 -0.1178
33681W        W76619  32.574  10.005  17.131  0.0091 -0.2490 -0.1963
33682W        W76620  30.476   9.005  16.334 -0.0698 -0.0688 -0.0763
33683W        W76621  31.510   8.597  15.512 -0.3341  0.1660 -0.1315
33684W        W76622  30.063   8.760  18.326 -0.3828  0.1776 -0.0151
33685W        W76623  27.906   8.104  18.685  0.0385 -0.2590  0.1983
33686W        W76624  29.622   6.756  19.708  0.2610  0.0396 -0.0349
33687W        W76625  28.019   8.779  17.663 -0.0537 -0.1023  0.1472
33688W        W76626  31.685   7.184  18.939  0.0964 -0.1262 -0.0352
33689W        W76627  29.131   7.593  16.485 -0.1991  0.0956  0.1935
33690W        W76628  32.045   8.698  18.633 -0.1403 -0.0441 -0.0930
33691W        W76629  30.316   9.111  17.561  0.0850  0.1018 -0.1001
33692W        W76630  28.694   9.458  16.466 -0.0789 -0.1255 -0.4848
33693W        W76631  31.420   7.926  20.035 -0.4264 -0.1808  0.1840
33694W        W76632  31.783  10.837  15.717  0.1237 -0.2706 -0.0607
33695W        W76633  33.583  10.576  18.808  0.1047  0.1170 -0.0784
33696W        W76634  32.623  10.485  18.327 -0.3208  0.0439  0.1512
33697W        W76635  28.554   7.472  20.108  0.1277  0.1426  0.0048
33698W        W76636  30.132   7.256  17.194  0.0059 -0.1699  0.0468
33699W        W76637  29.785  10.427  18.003  0.2350  0.1037 -0.1477
33700W        W76638  30.920   9.736  16.908 -0.4417 -0.2321  0.3649
33701W        W76639  29.832   7.629  15.938  0.0369 -0.1091 -0.1982
33702W        W76640  31.646  11.530  19.532  0.1063  0.2113  0.0008
33703W        W76641  30.902   8.149  16.294  0.1574 -0.4925 -0.0686
33704W        W76642  29.227   9.657  19.609  0.0345  0.1748  0.0025
33705W        W76643  32.004   7.858  19.322  0.2315  0.2955  0.2162
33706W        W76644  32.174   9.629  18.892 -0.3806  0.1901 -0.2560
33707W        W76645  32.284   9.286  16.873  0.0636 -0.1927 -0.0255
33708W        W76646  30.465   8.497  16.806  0.0107 -0.0426 -0.0166
33709W        W76647  31.308  10.127  16.606  0.0631 -0.1771 -0.1662
33710W        W76648  28.362   9.131  16.363  0.0507  0.0472  0.3215
33711W        W76649  29.820   9.136  17.441  0.2891 -0.1434 -0.2045
33712W        W76650  31.518  10.939  17.108 -0.2630  0.1968 -0.2318
33713W        W76651  31.864   8.381  18.167  0.0161  0.0556 -0.0299
33714W        W76652  29.112   8.856  19.189  0.1795 -0.0668 -0.1927
33715W        W76653  31.656   8.317  20.255 -0.4397 -0.0504  0.0708
33716W        W76654  27.914   9.316  16.023 -0.2198  0.0346  0.0279
33717W        W76655  29.143   9.995  18.566 -0.0946 -0.0693 -0.1309
33718W        W76656  31.313   7.903  18.074  0.3469 -0.0244  0.3232
33719W        W76657  33.428   8.395  16.593  0.0668 -0.0415  0.1572
33720W        W76658  30.188  10.114  17.721  0.0249  0.2112 -0.3002
33721W        W76659  31.521  10.630  16.678  0.0417  0.2809 -0.0730
33722W        W76660  31.768   9.438  17.334  0.0280 -0.0563 -0.1299
33723W        W76661  31.516   7.666  15.722  0.1393 -0.0234  0.1611
33724W        W76662  29.018   7.577  21.043 -0.3636  0.0281  0.0864
33725W        W76663  31.380  10.197  16.060 -0.2554  0.0811  0.0647
33726W        W76664  31.961  10.843  18.988 -0.1893  0.1228  0.2539
33727W        W76665  31.856   7.566  16.143  0.0895 -0.0569 -0.1524
33728W        W76666  32.929  11.899  17.120  0.0610 -0.2505 -0.0810
33729W        W76667  30.750  10.251  18.844 -0.0454  0.3751 -0.0282
33730W        W76668  30.435  11.010  20.757  0.1229 -0.2887  0.1770
33731W        W76669  31.424  10.992  18.312 -0.0959 -0.0810 -0.1384
33732W        W76670  30.186   7.873  20.573 -0.1694  0.1167  0.0230
33733W        W76671  30.638   8.214  15.865  0.1542 -0.1526  0.1317
33734W        W76672  30.966   8.781  18.376  0.1168  0.0161  0.0944
33735W        W76673  29.647  12.865  16.888 -0.0767  0.1644 -0.1082
33736W        W76674  31.592   7.370  18.115 -0.2382  0.1216  0.2684
33737W        W76675  31.584   7.924  18.953  0.0164  0.2586  0.1729
33738W        W76676  29.539   8.140  19.635  0.1103 -0.3688  0.0626
33739W        W76677  32.714   8.748  19.960 -0.0829 -0.1581 -0.2681
33740W        W76678  31.127   8.970  16.237  0.1679 -0.2367  0.2347
33741W        W76679  30.309   9.461  16.438 -0.0688  0.0107 -0.2888
33742W        W76680  29.233   8.984  17.701 -0.0454 -0.0886  0.1514
33743W        W76681  31.458   6.952  19.410  0.1355 -0.1553  0.1744
33744W        W76682  30.437   8.728  19.586  0.1672  0.3151 -0.0022
33745W        W76683  29.672  11.003  19.595  0.0085  0.0747 -0.1469
33746W        W76684  32.205   9.933  19.946  0.2715  0.2481 -0.0152
33747W        W76685  30.269   7.861  17.123 -0.4708 -0.3468 -0.0454
33748W        W76686  31.926   7.648  19.837 -0.0738 -0.0701  0.0685
33749W        W76687  30.487   7.877  16.273 -0.1154 -0.0202 -0.1724
33750W        W76688  31.983  10.785  16.605  0.2782  0.3130 -0.1101
33751W        W76689  28.723  10.144  15.472 -0.3180 -0.0580 -0.1935
33752W        W76690  31.805   7.045  18.454 -0.1156  0.3848 -0.1681
33753W        W76691  31.096   8.792  17.672 -0.0750 -0.0109  0.3042
33754W        W76692  29.743  10.773  15.919  0.0158 -0.2715 -0.0807
33755W        W76693  30.160   9.446  19.249 -0.4905 -0.1588  0.1776
33756W        W76694  29.980   9.870  17.153 -0.0283  0.0368  0.0055
33757W        W76695  32.092   7.412  17.966  0.0566  0.3048 -0.2260
33758W        W76696  29.658  10.186  18.480 -0.0099  0.1725 -0.2346
33759W        W76697  28.360   9.448  17.764 -0.2899 -0.0074 -0.2620
33760W        W76698  30.349   9.659  17.461 -0.0555  0.1204 -0.1841
33761W        W76699  32.482   8.148  17.390  0.1192  0.1578 -0.0366
33762W        W76700  31.706  10.655  16.165  0.2876 -0.2086 -0.1256
33763W        W76701  29.640   7.505  18.764  0.1663 -0.1373  0.0253
33764W        W76702  31.246   7.134  18.736 -0.1999 -0.0191 -0.1409
33765W        W76703  30.276  11.307  18.998  0.1508  0.1643  0.0550
33766W        W76704  31.273   9.045  18.107  0.1001 -0.2632 -0.0414
33767W        W76705  30.373   7.781  15.754 -0.1083  0.1249  0.2486
33768W        W76706  31.098   8.616  18.815 -0.1448  0.2640  0.1815
33769W        W76707  30.011   9.889  19.567  0.1106  0.0835 -0.5689
33770W        W76708  29.702   8.262  16.553 -0.0059 -0.0823 -0.1956
33771W        W76709  32.168   8.890  19.222 -0.0747 -0.0215  0.2943
33772W        W76710  29.471   7.969  18.311 -0.0225 -0.0057 -0.1628
33773W        W76711  28.663  10.426  17.350 -0.0269 -0.1590 -0.0676
33774W        W76712  31.375  10.445  17.975 -0.2812  0.2608  0.2863
33775W        W76713  29.606   9.372  15.824  0.2397 -0.1319 -0.1020
33776W        W76714  29.932   9.727  18.294 -0.0412  0.0417 -0.2440
33777W        W76715  30.471   8.916  20.096  0.1054 -0.0392  0.1541
33778W        W76716  31.674   9.214  18.426 -0.2079 -0.1407 -0.0972
33779W        W76717  31.293   9.816  20.050  0.2599 -0.1141  0.0964
33780W        W76718  30.472   8.264  19.870  0.0042  0.0226 -0.2752
33781W        W76719  29.348   8.418  17.523  0.2766 -0.1011  0.0649
33782W        W76720  31.115  10.605  16.342 -0.1075 -0.3798 -0.1895
33783W        W76721  32.450   8.559  19.543  0.3462 -0.1626  0.2336
33784W        W76722  29.573   9.012  19.886 -0.0696  0.2912 -0.1974
33785W        W76723  30.613   6.561  19.253 -0.0020  0.2985 -0.3900
33786W        W76724  33.483  10.400  17.210 -0.3781  0.1283 -0.2788
33787W        W76725  31.189   8.825  19.564 -0.0604  0.1590  0.2389
33788W        W76726  30.320   9.982  16.365 -0.1570  0.3530  0.0962
33789W        W76727  29.657   9.954  17.962 -0.1827  0.2834  0.0627
33790W        W76728  30.048   8.637  16.590 -0.2753  0.2460  0.0279
33791W        W76729  32.067   9.381  19.672 -0.0609 -0.2034  0.0612
33792W        W76730  29.906   9.616  17.723  0.1078 -0.0552  0.0485
33793W        W76731  29.714  10.308  17.548  0.0580 -0.1823  0.0448
33794W        W76732  30.015   9.142  18.868 -0.2295  0.3031  0.0715
33795W        W76733  32.276   8.440  16.335  0.1575  0.3296 -0.0311
33796W        W76734  29.903   9.117  16.497 -0.1520 -0.2730  0.1425
33797W        W76735  30.297   8.121  17.644  0.0124  0.5121  0.0921
33798W        W76736  32.869   9.025  20.472  0.0636 -0.1406  0.0559
33799W        W76737  32.080   9.125  16.438 -0.2176 -0.1281  0.0676
33800W        W76738  32.033   7.949  20.206 -0.2099  0.1937 -0.0530
33801W        W76739  29.827   8.010  20.952  0.0380  0.0619 -0.1320
33802W        W76740  31.566   9.488  18.833 -0.0928  0.1321  0.1405
33803W        W76741  28.644   8.659  19.055  0.2794  0.1751 -0.1771
33804W        W76742  29.562  10.481  19.666  0.1485  0.2607 -0.6289
33805W        W76743  29.353   8.664  19.559 -0.0658 -0.0633  0.2207
33806W        W76744  30.675   8.904  18.031 -0.0190  0.0175 -0.0744
33807W        W76745  31.131   7.361  17.902  0.1061 -0.0024 -0.2423
33808W        W76746  31.245   9.810  18.598  0.1000  0.1782  0.3331
33809W        W76747  31.943   9.047  17.590 -0.1281 -0.1034  0.1988
33810W        W76748  30.773  10.240  16.834  0.2577 -0.0554  0.1463
33811W        W76749  32.668   7.469  18.844  0.2531 -0.1853  0.0980
33812W        W76750  29.487   9.116  18.681 -0.2871 -0.1495  0.1757
33813W        W76751  32.097   9.113  15.836  0.1354 -0.0471 -0.0452
33814W        W76752  30.816   8.665  16.479 -0.4492 -0.0806  0.1446
33815W        W76753  30.558   9.360  17.148 -0.0440  0.0277  0.1365
33816W        W76754  30.652   7.136  18.772 -0.0741 -0.0976  0.1064
33817W        W76755  31.145  10.069  17.214 -0.2685  0.1495 -0.1249
33818W        W76756  31.724   8.663  17.389 -0.0768  0.0250 -0.0644
33819W        W76757  30.428   8.199  19.349  0.1389 -0.1097 -0.0439
33820W        W76758  33.312   9.651  18.792  0.4407  0.1490 -0.0485
33821W        W76759  32.038   8.354  19.302 -0.0151 -0.0393  0.0750
33822W        W76760  28.522   7.916  21.486 -0.1537  0.3569  0.1164
33823W        W76761  31.686  11.061  19.322  0.1414 -0.1868 -0.3085
33824W        W76762  33.028   8.086  15.729 -0.0179  0.2685  0.1514
33825W        W76763  32.344   7.898  18.811 -0.0923  0.2165  0.0351
33826W        W76764  31.372   9.758  16.312  0.0816  0.2157  0.3841
33827W        W76765  31.275   9.402  16.604  0.0904  0.2486 -0.2097
33828W        W76766  30.160   7.326  18.789 -0.5469 -0.1961 -0.0656
33829W        W76767  31.428   9.178  20.793 -0.0321 -0.2687  0.4595
33830W        W76768  29.993   8.015  16.164  0.2290  0.1853  0.0254
33831W        W76769  31.990   7.076  17.385  0.3025 -0.1131  0.0002
33832W        W76770  30.888   9.585  15.632 -0.2722 -0.0449 -0.1573
33833W        W76771  31.480   9.716  16.958  0.0068 -0.1072 -0.1352
33834W        W76772  31.762   8.188  16.405  0.2183  0.2805  0.0786
33835W        W76773  29.227   7.900  17.256 -0.1396 -0.0923 -0.1056
33836W        W76774  30.132   9.937  19.067 -0.0437  0.2216 -0.1163
33837W        W76775  30.111   7.452  16.339 -0.3301 -0.1236  0.0299
33838W        W76776  30.217   8.073  16.624 -0.0162  0.1763  0.1134
33839W        W76777  32.793  10.136  18.697  0.0829  0.2965  0.2111
33840W        W76778  32.662  10.453  19.222 -0.2035 -0.4393 -0.0792
33841W        W76779  30.469   6.830  16.049  0.0910 -0.0468  0.0405
33842W        W76780  32.502   8.098  19.248  0.0313  0.0380 -0.0162
33843W        W76781  30.426   9.804  18.051 -0.0912 -0.0369 -0.1689
33844W        W76782  32.510   7.208  17.604 -0.1814 -0.1429 -0.0325
33845W        W76783  30.699  11.565  19.107 -0.3019  0.0064  0.0636
33846W        W76784  27.722   9.767  18.510  0.2444  0.2208 -0.3703
33847W        W76785  28.577  12.361  19.392 -0.1188 -0.1178 -0.1845
33848W        W76786  30.938   7.390  18.404  0.1952 -0.0487 -0.1815
33849W        W76787  33.929   8.557  19.550 -0.1419  0.0738 -0.1352
33850W        W76788  28.831   8.810  18.032  0.2091  0.2858  0.0551
33851W        W76789  31.476   8.665  18.414  0.0935 -0.1631 -0.2485
33852W        W76790  32.264   9.426  18.410  0.0561 -0.3173  0.1653
33853W        W76791  29.124   8.343  19.204 -0.1963 -0.1268 -0.1192
33854W        W76792  31.712   9.918  19.086 -0.2373 -0.0985 -0.0651
33855W        W76793  31.662   9.920  17.389  0.0239 -0.2411  0.1219
33856W        W76794  30.451   9.140  18.609 -0.0346 -0.0794  0.0190
33857W        W76795  29.120   8.806  20.086  0.0544 -0.0144 -0.2030
33858W        W76796  31.120   9.542  19.420 -0.0079 -0.1291 -0.3935
33859W        W76797  30.602  10.076  17.306 -0.2995 -0.0814  0.1737
33860W        W76798  30.699   7.616  17.353  0.2890  0.5092  0.0575
33861W        W76799  30.968   9.926  15.957 -0.0954  0.1805 -0.1285
33862W        W76800  29.033   9.561  20.540  0.1691 -0.0919 -0.0565
33863W        W76801  30.567   8.711  18.801  0.2970  0.0462  0.0824
33864W        W76802  30.838   9.733  16.458  0.0187 -0.0641  0.1085
33865W        W76803  31.094  10.973  16.736 -0.0183  0.2211 -0.0272
33866W        W76804  31.429  10.339  15.538  0.1001 -0.0102 -0.2200
33867W        W76805  31.480  11.696  18.536  0.0326 -0.1254  0.1223
33868W        W76806  30.787   8.556  15.412  0.0632  0.1122  0.2769
33869W        W76807  28.494  11.606  17.618  0.1302 -0.0688 -0.0912
33870W        W76808  27.450   8.993  17.508  0.0616  0.0922 -0.0650
33871W        W76809  32.194  10.241  17.327  0.2405  0.2002 -0.2283
33872W        W76810  31.167  10.512  17.001  0.0209  0.2207 -0.2930
33873W        W76811  31.297  10.165  20.480 -0.0524  0.3842 -0.2374
33874W        W76812  32.611   8.045  16.442 -0.1015  0.0907 -0.2023
33875W        W76813  33.299   7.770  17.346 -0.0880 -0.2728 -0.0952
33876W        W76814  32.341   8.864  17.090  0.2477 -0.0135 -0.0551
33877W        W76815  31.725  10.434  20.553  0.2978 -0.0798  0.3166
33878W        W76816  29.925   8.234  18.311 -0.3696 -0.1325  0.2643
33879W        W76817  31.337   8.520  16.301 -0.3103  0.2279  0.2573
33880W        W76818  29.722   9.460  19.750  0.1219  0.2370 -0.2414
33881W        W76819  33.560   7.444  22.181  0.1170  0.3612  0.2650
33882W        W76820  29.281   9.708  19.025 -0.0062  0.1162  0.1731
33883W        W76821  33.953  10.541  16.973  0.0448  0.1234 -0.1045
33884W        W76822  29.844   8.870  16.986 -0.1504  0.0818  0.3841
33885W        W76823  27.595   8.540  17.242 -0.1683 -0.2705 -0.0724
33886W        W76824  32.670   7.042  19.296  0.2288  0.0528 -0.0427
33887W        W76825  29.885   9.602  16.228 -0.0539  0.0326  0.0862
33888W        W76826  30.605   8.695  17.592 -0.0515 -0.0405  0.0300
33889W        W76827  31.290   9.619  17.442 -0.2315 -0.0691 -0.0799
33890W        W76828  30.447  10.875  18.032  0.0122  0.1920 -0.1659
33891W        W76829  30.165  10.183  18.235  0.1490  0.1813  0.0657
33892W        W76830  28.680   8.708  16.469 -0.1448 -0.0414 -0.0480
33893W        W76831  33.545   7.732  16.805 -0.2868 -0.1035 -0.2136
33894W        W76832  30.091   7.977  19.657  0.0260  0.0611 -0.1634
33895W        W76833  31.873   6.373  17.787 -0.0147  0.1497  0.0690
33896W        W76834  29.294   9.513  17.853 -0.1342 -0.1691 -0.0104
33897W        W76835  32.523   8.908  16.625  0.2603 -0.4088 -0.1199
33898W        W76836  32.320  10.058  18.497  0.1469  0.0709  0.1426
33899W        W76837  29.204   8.275  18.692 -0.0081 -0.1312 -0.0302
33900W        W76838  31.581   9.023  16.548 -0.1268 -0.0010 -0.2781
33901W        W76839  32.289   9.465  20.132  0.0545 -0.0772 -0.0690
33902W        W76840  30.914   7.729  15.905 -0.0998 -0.2844 -0.0667
33903W        W76841  30.927  10.146  20.813  0.0349 -0.3016 -0.1747
33904W        W76842  29.453   8.352  17.038 -0.0037  0.3477 -0.0869
33905W        W76843  32.072   8.354  17.228 -0.1386 -0.2586 -0.2297
33906W        W76844  28.838  10.040  17.114 -0.1604 -0.1878 -0.3210
33907W        W76845  31.356  10.237  18.844 -0.1181  0.0175 -0.1215
33908W        W76846  31.788  10.038  20.294  0.0146  0.0058  0.1788
33909W        W76847  30.307   7.039  18.436 -0.2037 -0.0787  0.0893
33910W        W76848  32.971  10.301  17.153  0.1334 -0.2793 -0.0075
33911W        W76849  33.469   9.308  18.014 -0.0703  0.1762 -0.3004
33912W        W76850  31.658  11.076  15.213  0.1846  0.0042 -0.1924
33913W        W76851  30.745   9.234  16.683 -0.0170  0.4081  0.2570
33914W        W76852  32.326  10.981  18.380  0.1815  0.0416 -0.1083
33915W        W76853  30.382   7.789  20.102  0.1509  0.2185  0.1834
33916W        W76854  31.616  10.441  19.190  0.1197  0.3538 -0.2894
33917W        W76855  32.135   8.594  17.765 -0.1047 -0.0637  0.2700
33918W        W76856  29.796   7.664  18.016 -0.0229  0.2141 -0.1603
33919W        W76857  30.426   8.351  18.380 -0.2264 -0.1340 -0.1178
33920W        W76858  31.069   9.253  17.112 -0.2478 -0.0701 -0.0199
33921W        W76859  33.043   8.728  19.595  0.1294 -0.6733  0.0169
33922W        W76860  32.105   8.917  18.167  0.1693 -0.0922  0.1658
33923W        W76861  30.528  10.621  16.100  0.0589 -0.3340 -0.0465
33924W        W76862  31.457   7.338  19.797 -0.1074  0.2113 -0.4582
33925W        W76863  31.593  10.353  18.417 -0.3197  0.0117 -0.1635
33926W        W76864  30.447  10.471  21.109 -0.1602  0.2405  0.3115
33927W        W76865  29.660   7.694  16.440 -0.1068  0.0317 -0.0970
33928W        W76866  31.034  10.765  18.666  0.0568  0.1829  0.0091
33929W        W76867  29.760   8.657  17.451  0.1308 -0.0717 -0.0615
33930W        W76868  31.230  11.331  17.076 -0.3316  0.0187 -0.0651
33931W        W76869  33.005   8.572  16.950 -0.0228  0.1063  0.3081
33932W        W76870  31.495   8.536  16.802  0.0332  0.1379  0.0707
33933W        W76871  31.882   9.285  19.168 -0.3799 -0.0306 -0.0922
33934W        W76872  29.997   9.355  17.030 -0.2045  0.0309  0.1001
33935W        W76873  32.565   7.346  17.104 -0.0255 -0.0298 -0.1378
33936W        W76874  31.558   9.129  17.024  0.2212 -0.3101  0.0496
33937W        W76875  30.574   9.794  19.248  0.1485 -0.1719 -0.2650
33938W        W76876  29.336   8.031  16.276  0.0334 -0.0356 -0.2187
33939W        W76877  29.642  10.284  15.590 -0.1911  0.1009  0.1477
33940W        W76878  31.056   9.964  19.249 -0.0145 -0.1839  0.0034
33941W        W76879  31.658   7.561  20.268 -0.4060 -0.2253  0.1209
33942W        W76880  30.225   8.780  20.574 -0.2737  0.0735 -0.1826
33943W        W76881  28.909   9.382  19.255 -0.0852  0.2387  0.3613
33944W        W76882  28.275   8.070  18.364  0.2154  0.1257 -0.0515
33945W        W76883  32.735  10.858  15.846  0.1742 -0.0782 -0.0941
33946W        W76884  30.847   7.957  18.276 -0.1254 -0.0591  0.0889
33947W        W76885  27.760   7.458  17.459 -0.1101  0.3081  0.1182
33948W        W76886  31.883  10.004  15.947  0.0024  0.0694  0.0964
33949W        W76887  31.832  10.175  17.784  0.1010 -0.0098 -0.2058
33950W        W76888  30.771   8.361  17.949  0.0493 -0.1540 -0.0776
33951W        W76889  33.417   9.953  20.625  0.1148  0.2515  0.1820
33952W        W76890  28.599   8.500  16.864 -0.0715  0.0243  0.0913
33953W        W76891  31.120   9.247  18.515 -0.0583  0.2710 -0.2093
33954W        W76892  30.042   7.514  19.710 -0.0714 -0.2239  0.1759
33955W        W76893  29.364   7.544  15.989 -0.0777 -0.0039 -0.1263
33956W        W76894  30.951   9.909  18.074 -0.0248  0.0681  0.2319
33957W        W76895  31.024  10.565  15.788  0.0463  0.1534 -0.1464
33958W        W76896  31.545  10.424  17.402 -0.1486  0.2670 -0.2187
33959W        W76897  31.472  10.055  20.956 -0.1556  0.2804  0.0351
33960W        W76898  30.380   9.922  19.967  0.0693  0.0937  0.1019
33961W        W76899  28.999   7.211  18.149  0.3251  0.2271  0.1351
33962W        W76900  32.100  10.360  16.805  0.3491  0.1332  0.0402
33963W        W76901  30.776   9.890  20.303 -0.0440 -0.1152  0.1530
33964W        W76902  32.843   9.487  16.575 -0.1183  0.0363 -0.2866
33965W        W76903  32.280   7.808  18.302  0.0677 -0.1971 -0.0131
33966W        W76904  31.815   9.957  16.517 -0.0478 -0.0550 -0.1054
33967W        W76905  29.140   7.713  20.555 -0.2275 -0.0580  0.0312
33968W        W76906  29.698   8.875  19.202 -0.0265 -0.0116  0.2602
33969W        W76907  32.538   8.968  17.732  0.0793  0.0349  0.0680
33970W        W76908  29.712   8.638  18.732 -0.3226  0.2029  0.2373
33971W        W76909  31.213   8.296  17.489 -0.1704 -0.2641  0.3296
33972W        W76910  30.910  11.050  15.689  0.1667 -0.1467  0.0524
33973W        W76911  29.294   9.147  18.189  0.1405  0.2982  0.0822
33974W        W76912  31.804   7.656  16.614 -0.0952  0.0983 -0.0850
33975W        W76913  30.750   9.167  19.622  0.0117  0.0785 -0.1523
33976W        W76914  31.631  10.206  16.931  0.0493 -0.2599 -0.0571
33977W        W76915  31.603   8.660  19.356 -0.1126 -0.3172  0.5203
33978W        W76916  31.332   8.013  16.662 -0.0278  0.0011 -0.2356
33979W        W76917  31.783   9.530  15.743  0.1149  0.3403  0.2381
33980W        W76918  32.170  11.910  18.633  0.0994  0.0207 -0.3004
33981W        W76919  31.550   9.703  20.564  0.1212 -0.1411 -0.5045
33982W        W76920  30.389  11.465  19.962 -0.0321  0.2480  0.1310
33983W        W76921  33.457   8.207  17.578 -0.0270 -0.0065 -0.3063
33984W        W76922  29.531   8.480  20.030  0.1242 -0.1557 -0.1861
33985W        W76923  28.592   9.078  18.373 -0.2554 -0.1387  0.0343
33986W        W76924  30.311   9.047  16.819  0.2017  0.1803  0.2397
33987W        W76925  32.191   8.108  17.867 -0.0358 -0.6045  0.0070
33988W        W76926  29.128   8.383  17.961 -0.1636 -0.2182  0.0352
33989W        W76927  30.255   7.826  18.052 -0.0786 -0.0007  0.1159
33990W        W76928  30.148  11.230  18.370 -0.2750 -0.3840  0.1324
33991W        W76929  31.441   9.158  17.620  0.2757 -0.2457 -0.2895
33992W        W76930  30.184   9.584  22.022  0.2689  0.2627  0.0420
33993W        W76931  31.261   9.379  19.843 -0.0448  0.0083  0.4105
33994W        W76932  31.190   8.470  20.221  0.1608 -0.4428  0.0226
33995W        W76933  33.655   8.292  21.508  0.3410  0.2865 -0.0737
33996W        W76934  28.866   6.136  21.916  0.0647 -0.1553  0.0218
33997W        W76935  31.949  11.908  20.773  0.0046 -0.2130  0.0165
33998W        W76936  29.439   7.338  22.732  0.2245 -0.4214  0.0680
33999W        W76937  32.131   9.230  22.247 -0.2761 -0.0484 -0.0738
34000W        W76938  33.664   9.820  22.596 -0.0428  0.0812 -0.1787
34001W        W76939  31.118   9.867  21.484 -0.1896  0.2492  0.2146
34002W        W76940  29.397   8.676  23.909 -0.1872 -0.3568 -0.3148
34003W        W76941  29.527  10.527  23.097  0.2907 -0.0372  0.0572
34004W        W76942  30.988   7.639  21.086  0.1628  0.1470  0.1021
34005W        W76943  28.250   6.631  22.331  0.1402  0.1809  0.2426
34006W        W76944  31.365   7.598  22.340 -0.0628  0.0826  0.1642
34007W        W76945  31.316   8.136  21.864 -0.1318  0.0365  0.4628
34008W        W76946  29.165   8.145  22.002 -0.1264  0.3467 -0.0927
34009W        W76947  29.254   8.946  22.713  0.3754 -0.0993 -0.1660
34010W        W76948  31.262  11.920  23.125 -0.0252 -0.1518  0.4145
34011W        W76949  30.098   7.989  23.039  0.1685 -0.0081  0.1712
34012W        W76950  29.156   8.306  23.630 -0.0394  0.0246 -0.1532
34013W        W76951  30.307   9.474  19.721 -0.0158  0.1025 -0.0273
34014W        W76952  29.987   8.487  19.587  0.1258 -0.0973 -0.1717
34015W        W76953  29.459   9.421  20.817  0.1451 -0.0479  0.2678
34016W        W76954  29.029   8.509  22.858 -0.0089  0.3114 -0.2858
34017W        W76955  31.806   8.705  22.175 -0.2991  0.0177  0.0125
34018W        W76956  31.969   9.973  21.368  0.1426  0.4094  0.1855
34019W        W76957  30.963  10.843  23.061 -0.0908  0.3155  0.0647
34020W        W76958  31.195  10.025  22.563  0.1233 -0.2039  0.1010
34021W        W76959  32.071   9.670  25.141 -0.0019 -0.0832  0.0521
34022W        W76960  29.626   9.931  22.757 -0.1111 -0.1086  0.0017
34023W        W76961  30.591  10.230  21.605  0.1328 -0.4107 -0.0692
34024W        W76962  27.677  10.381  20.305 -0.1357 -0.0508 -0.2573
34025W        W76963  31.986  10.536  22.238 -0.2334  0.2027  0.1276
34026W        W76964  31.191  10.514  22.591 -0.0241 -0.2130  0.1310
34027W        W76965  30.415  11.548  22.721 -0.0398 -0.2860  0.2522
34028W        W76966  28.356  10.176  19.102  0.1365 -0.2015  0.0759
34029W        W76967  31.285  11.311  23.765  0.0588  0.0689 -0.0184
34030W        W76968  30.057  10.220  23.515 -0.1941 -0.0697  0.1413
34031W        W76969  31.540   8.108  22.505  0.2163  0.0046 -0.1339
34032W        W76970  32.145   9.157  21.285 -0.0669  0.1129 -0.2331
34033W        W76971  29.572   9.942  19.763  0.0378  0.2737 -0.2778
34034W        W76972  30.407  10.927  21.270  0.0553 -0.0599 -0.0080
34035W        W76973  30.875   9.637  22.492 -0.0220 -0.0079  0.0915
34036W        W76974  29.092  10.095  22.091 -0.0342 -0.1967  0.0517
34037W        W76975  32.503   9.771  25.328  0.3042 -0.1016  0.4588
34038W        W76976  29.725  10.774  20.121 -0.0384  0.0274 -0.0940
34039W        W76977  31.649   9.671  19.461 -0.3108  0.1856  0.0192
34040W        W76978  31.320   8.192  20.591  0.1760 -0.0073 -0.0635
34041W        W76979  32.322   8.238  21.179  0.2925 -0.1277  0.1708
34042W        W76980  29.859   8.282  21.795  0.2010 -0.2189 -0.1464
34043W        W76981  28.377  10.469  21.233 -0.0936  0.0543 -0.0690
34044W        W76982  30.092   7.700  22.038  0.3167 -0.0412 -0.1560
34045W        W76983  31.510  10.160  24.088 -0.2179  0.0818  0.0383
34046W        W76984  31.802  10.139  19.700 -0.1566 -0.1173 -0.1452
34047W        W76985  31.302   7.356  21.876  0.3488  0.0534  0.0150
34048W        W76986  29.632  10.444  23.572 -0.1057 -0.0644 -0.1576
34049W        W76987  29.227   8.538  22.323  0.3455  0.1763 -0.1884
34050W        W76988  32.020  11.287  21.647 -0.0175  0.1484 -0.1494
34051W        W76989  32.756  10.259  23.360 -0.1728 -0.2137  0.1417
34052W        W76990  31.771  10.863  20.180 -0.0811 -0.0071  0.0029
34053W        W76991  30.902   8.384  21.772 -0.0350  0.1902  0.0167
34054W        W76992  29.416   9.437  23.251  0.1076 -0.0249 -0.3832
34055W        W76993  28.849   9.272  22.436  0.1179  0.2831  0.0265
34056W        W76994  29.741   6.475  18.884 -0.0645 -0.0008  0.1259
34057W        W76995  33.853   9.763  24.035  0.0778 -0.1099 -0.1003
34058W        W76996  29.372  10.105  23.828  0.3613 -0.2284 -0.0846
34059W        W76997  33.273   8.066  22.856  0.0576  0.0015  0.0647
34060W        W76998  29.129  10.220  22.594 -0.4040  0.3133 -0.2797
34061W        W76999  31.277  10.069  23.460  0.2797 -0.1403 -0.0246
34062W        W77000  31.769   9.636  19.953  0.0313 -0.0911 -0.0236
34063W        W77001  31.684   7.800  22.952 -0.1358 -0.1313 -0.0165
34064W        W77002  31.020   7.741  21.845  0.2274  0.2757  0.0962
34065W        W77003  29.991   9.030  19.617 -0.0278  0.0380 -0.0766
34066W        W77004  30.597   8.410  21.336 -0.1044  0.0057  0.1914
34067W        W77005  31.812   9.084  22.577 -0.0440  0.2274  0.1096
34068W        W77006  33.272   7.750  20.696 -0.0305  0.0071  0.0632
34069W        W77007  30.635  10.835  22.628 -0.0086 -0.3572  0.3626
34070W        W77008  30.498   8.779  23.333  0.1181  0.1381  0.2419
34071W        W77009  30.515  10.042  24.352  0.0238 -0.1698  0.0712
34072W        W77010  29.953  10.404  19.266 -0.1950 -0.0094 -0.0221
34073W        W77011  28.907   9.324  21.484  0.1677  0.1222  0.1644
34074W        W77012  29.513   9.371  20.270  0.3654 -0.1709 -0.0661
34075W        W77013  30.470   7.907  23.716 -0.1499 -0.0347 -0.5162
34076W        W77014  28.957   8.843  21.853 -0.2648 -0.0542  0.0920
34077W        W77015  32.032   7.676  23.349  0.1065  0.0233  0.1104
34078W        W77016  29.807   7.544  22.978 -0.0184  0.0982 -0.0048
34079W        W77017  31.154   8.967  21.816  0.1102  0.1594  0.2674
34080W        W77018  29.861   9.210  21.092 -0.1634 -0.1681 -0.0061
34081W        W77019  31.301  10.521  20.872 -0.1917  0.1219  0.0170
34082W        W77020  32.133   8.185  20.644 -0.0214 -0.0058  0.3061
34083W        W77021  32.336  10.129  20.435 -0.1389 -0.0857 -0.1011
34084W        W77022  29.282   7.667  22.346  0.2888 -0.1435 -0.0488
34085W        W77023  29.743   6.410  22.013  0.0003 -0.3452 -0.0608
34086W        W77024  29.572   6.828  24.222  0.1207  0.2745  0.1187
34087W        W77025  29.017   6.602  21.311  0.1417 -0.0934 -0.0611
34088W        W77026  30.216   9.235  23.102  0.2620 -0.0239  0.2686
34089W        W77027  29.267   7.214  20.657  0.2581 -0.3088  0.2958
34090W        W77028  31.715   7.781  21.839  0.2746  0.1515 -0.1256
34091W        W77029  30.250   8.579  21.738  0.4123  0.1417  0.1119
34092W        W77030  30.237   9.963  20.875 -0.0704 -0.2190 -0.2670
34093W        W77031  32.253   7.211  23.113  0.3531  0.0664  0.1229
34094W        W77032  30.472  10.481  20.583  0.4180  0.2285 -0.0546
34095W        W77033  32.800  11.435  21.775 -0.1586  0.0972 -0.0474
34096W        W77034  32.389   9.988  21.976 -0.2055  0.0070 -0.1015
34097W        W77035  29.251   8.005  24.033 -0.3441  0.2284 -0.2977
34098W        W77036  30.120   6.964  19.825 -0.1924 -0.0413 -0.1140
34099W        W77037  29.545  10.716  20.888 -0.1631  0.2034 -0.1336
34100W        W77038  30.230  10.056  20.426  0.0655 -0.0198  0.1616
34101W        W77039  30.620   7.295  21.151  0.1074 -0.1361  0.0678
34102W        W77040  32.028  10.416  21.574 -0.0904 -0.2870  0.2555
34103W        W77041  31.206   8.897  21.247  0.2176 -0.0598 -0.2383
34104W        W77042  30.289  10.454  22.507 -0.3119  0.0109 -0.0802
34105W        W77043  31.038   9.177  23.795 -0.0668 -0.2377 -0.0580
34106W        W77044  32.069  10.726  23.981  0.1392  0.0900  0.1333
34107W        W77045  31.908   8.255  21.963  0.3094  0.3669  0.0394
34108W        W77046  30.847   7.792  19.272  0.0204  0.2670  0.2259
34109W        W77047  31.416  10.067  22.079 -0.0576  0.1499 -0.1545
34110W        W77048  29.465   9.942  21.394 -0.2125  0.0870  0.2727
34111W        W77049  29.852   8.689  20.949 -0.4469  0.1429  0.0290
34112W        W77050  30.008  10.510  20.626 -0.1419  0.0096 -0.1672
34113W        W77051  32.081   8.158  23.160  0.0087  0.0891 -0.0886
34114W        W77052  29.455   8.722  25.340 -0.2451 -0.0122 -0.0452
34115W        W77053  31.722   8.315  24.000 -0.1985 -0.0895 -0.0390
34116W        W77054  31.818   7.415  21.536 -0.3698  0.2805 -0.1456
34117W        W77055  30.219  11.050  23.528 -0.0834 -0.2797 -0.0704
34118W        W77056  32.672   7.969  21.444  0.1838  0.2174  0.1626
34119W        W77057  32.208   7.312  22.344 -0.1874  0.0439  0.0062
34120W        W77058  30.103   9.281  22.623  0.0876 -0.0948 -0.1929
34121W        W77059  31.035   9.005  20.107 -0.2010 -0.0682 -0.3014
34122W        W77060  31.903   9.116  20.085  0.1160  0.0434  0.0398
34123W        W77061  32.263   7.131  19.573 -0.2260  0.3887  0.0472
34124W        W77062  28.939   9.671  23.526  0.0041  0.0033 -0.1988
34125W        W77063  30.411  11.679  22.141 -0.0795  0.7468  0.0982
34126W        W77064  31.016   9.084  22.382  0.1608 -0.2499 -0.0894
34127W        W77065  31.616   9.117  19.549  0.1932  0.1368  0.0256
34128W        W77066  32.867  10.059  21.209  0.1611 -0.0473  0.0280
34129W        W77067  28.255   9.795  21.815 -0.2843  0.0416  0.0902
34130W        W77068  30.552   9.686  22.931 -0.2710 -0.1602 -0.2099
34131W        W77069  30.669   9.429  22.029  0.2185  0.0607  0.1284
34132W        W77070  30.715   7.383  21.945  0.0804 -0.1655  0.0618
34133W        W77071  28.978   8.920  18.663  0.1951 -0.1847  0.1165
34134W        W77072  31.849   7.798  22.323 -0.1384  0.1008 -0.0680
34135W        W77073  29.280  10.169  19.430  0.0330 -0.0084 -0.0339
34136W        W77074  30.769   8.425  23.218 -0.1506 -0.1628  0.0652
34137W        W77075  32.436   8.257  22.246 -0.2187 -0.1570 -0.2878
34138W        W77076  29.750   7.463  22.297 -0.1310 -0.0092 -0.1654
34139W        W77077  32.353   9.401  23.664 -0.2632 -0.2799  0.1129
34140W        W77078  30.622   8.697  20.929  0.4884  0.0567 -0.1632
34141W        W77079  29.403   8.996  22.241  0.1605 -0.1443 -0.2510
34142W        W77080  30.617   9.159  20.518  0.0770 -0.0004  0.0810
34143W        W77081  31.661   9.276  23.488  0.1146 -0.0385 -0.0690
34144W        W77082  29.774   8.866  22.599 -0.0355  0.2463  0.0168
34145W        W77083  29.678   9.953  23.329 -0.0967 -0.0175 -0.1704
34146W        W77084  29.896  10.585  23.949 -0.2611 -0.0423  0.3141
34147W        W77085  31.346  10.029  19.628  0.2048 -0.1043 -0.0483
34148W        W77086  30.767   8.657  24.411  0.3044  0.2000  0.5373
34149W        W77087  31.230   7.230  21.081 -0.2719 -0.0154 -0.1982
34150W        W77088  29.977  10.840  21.065 -0.0247 -0.2986  0.1247
34151W        W77089  28.486  10.163  19.966 -0.1733 -0.0760 -0.0254
34152W        W77090  29.476   7.624  20.862 -0.0160 -0.0276 -0.0492
34153W        W77091  29.941   9.641  23.022 -0.0586 -0.1806  0.0242
34154W        W77092  29.779   9.693  21.106 -0.0489  0.2455 -0.1855
34155W        W77093  29.736  10.220  21.700  0.1760 -0.0613  0.2061
34156W        W77094  27.982  10.415  18.606 -0.0433 -0.4408  0.0843
34157W        W77095  30.867   7.450  23.022  0.1747  0.1442 -0.3124
34158W        W77096  29.450   9.737  21.887  0.0275 -0.4415 -0.0839
34159W        W77097  30.898   8.583  19.842  0.2319 -0.1868  0.1557
34160W        W77098  28.774   9.312  21.029  0.1404  0.1531 -0.1728
34161W        W77099  31.074   8.022  22.320  0.2016 -0.2423 -0.1349
34162W        W77100  31.502   9.663  21.717  0.2116 -0.1310  0.3503
34163W        W77101  29.994   7.840  21.466  0.4817 -0.1369  0.0730
34164W        W77102  31.964   6.941  21.601 -0.0389 -0.0350 -0.0020
34165W        W77103  29.162  10.754  21.329 -0.1391  0.1649  0.0489
34166W        W77104  32.902  10.293  21.731  0.0066  0.0002 -0.2773
34167W        W77105  32.624   7.469  21.416  0.2899 -0.0712 -0.0411
34168W        W77106  30.577   9.230  22.568 -0.1855  0.4093  0.1865
34169W        W77107  30.016   8.850  23.435  0.0350  0.0010  0.1548
34170W        W77108  28.729   7.209  21.714 -0.4172 -0.3132 -0.3831
34171W        W77109  31.361   7.251  22.897  0.0568 -0.1603 -0.0563
34172W        W77110  30.817   8.063  20.346 -0.1662 -0.0778 -0.3894
34173W        W77111  27.391   9.512  21.989  0.1389 -0.3180  0.1861
34174W        W77112  32.228   9.617  21.166 -0.1140 -0.0427 -0.0482
34175W        W77113  30.803   8.647  20.434 -0.0012  0.2018 -0.0093
34176W        W77114  30.754   9.927  22.003 -0.0765  0.3784 -0.0679
34177W        W77115  29.759   7.004  22.970 -0.0039 -0.0912 -0.2478
34178W        W77116  32.472  10.581  23.610 -0.2965  0.1676 -0.1488
34179W        W77117  30.234   8.215  22.181  0.0025 -0.0581 -0.2664
34180W        W77118  30.948   7.291  19.376  0.0964  0.0355 -0.0136
34181W        W77119  31.151   6.282  21.368  0.4423 -0.1560 -0.3195
34182W        W77120  32.188   9.510  22.920 -0.1849 -0.0211  0.0648
34183W        W77121  30.873  10.419  23.470 -0.1790 -0.1156  0.1335
34184W        W77122  28.112   9.702  23.362 -0.3129 -0.1857 -0.1786
34185W        W77123  32.257   8.710  23.300 -0.1740 -0.0769  0.1876
34186W        W77124  32.451   9.938  20.838 -0.0248 -0.0901 -0.0719
34187W        W77125  31.074  11.204  21.994  0.4166 -0.1724 -0.1073
34188W        W77126  31.426   9.360  21.360  0.0240 -0.1231  0.1632
34189W        W77127  29.564   8.086  21.479  0.0208  0.0654 -0.0562
34190W        W77128  29.621   8.852  20.467  0.1189 -0.0418  0.2907
34191W        W77129  32.434   8.521  22.822 -0.1691 -0.2707 -0.0122
34192W        W77130  28.534   9.755  20.940  0.1859 -0.0414 -0.0433
34193W        W77131  29.680   9.558  19.267 -0.3113  0.1179  0.0448
34194W        W77132  29.786  10.510  22.629 -0.2311  0.1871  0.1857
34195W        W77133  32.604   8.843  21.278  0.1530  0.1718  0.2205
34196W        W77134  30.224  10.851  20.271 -0.0576  0.1920  0.0247
34197W        W77135  29.691   9.406  22.155 -0.0774  0.2931 -0.0746
34198W        W77136  31.109   7.238  23.411  0.2996 -0.0224  0.0527
34199W        W77137  31.007  10.307  21.254  0.2142 -0.1048  0.0436
34200W        W77138  31.918   6.861  23.542 -0.0381  0.3475 -0.0860
34201W        W77139  28.698   9.755  22.138  0.1855  0.0776  0.0065
34202W        W77140  32.492  11.292  21.359  0.2275  0.0002  0.1111
34203W        W77141  28.786   7.186  23.008  0.1003  0.0463 -0.2796
34204W        W77142  31.986  10.483  24.428 -0.0923 -0.0209 -0.2098
34205W        W77143  29.156   9.626  24.102 -0.0309 -0.0448 -0.0872
34206W        W77144  32.273   7.361  21.817 -0.1224 -0.1956 -0.0392
34207W        W77145  31.313   8.349  19.646  0.2402 -0.1352  0.3237
34208W        W77146  30.347   8.299  20.378  0.1805  0.1257 -0.4001
34209W        W77147  32.763   9.823  22.446 -0.0301 -0.0215 -0.0313
34210W        W77148  29.974   8.699  20.041 -0.0121  0.0231 -0.1162
34211W        W77149  31.765   9.111  21.695 -0.1362  0.0285 -0.2432
34212W        W77150  29.635   8.737  21.379 -0.1672  0.1440  0.3586
34213W        W77151  31.714   9.603  20.993 -0.1477 -0.2782  0.0197
34214W        W77152  31.040  10.520  19.161 -0.0099  0.5857 -0.0600
34215W        W77153  29.238   9.728  22.326 -0.0417 -0.1816 -0.1602
34216W        W77154  29.142   7.530  21.792  0.3222  0.0884 -0.0053
34217W        W77155  30.241   8.350  20.871  0.0592  0.1269  0.3364
34218W        W77156  31.940   7.409  22.762  0.2303 -0.0827 -0.2386
34219W        W77157  29.953   7.809  22.547  0.0142 -0.1843 -0.0613
34220W        W77158  32.604   8.760  22.039 -0.0116 -0.0741  0.1088
34221W        W77159  31.276   8.608  22.203 -0.1304 -0.2462  0.0538
34222W        W77160  29.245   6.913  23.187 -0.0270  0.0982  0.3391
34223W        W77161  33.887  10.760  23.733  0.0895 -0.0874 -0.1780
34224W        W77162  33.354   9.289  20.341  0.1595 -0.0764 -0.0643
34225W        W77163  32.276   7.828  22.530  0.1094  0.0951  0.1430
34226W        W77164  31.513   9.335  20.270  0.1549 -0.0118 -0.2673
34227W        W77165  32.584   9.562  20.508  0.3396  0.1096  0.2468
34228W        W77166  30.775   8.832  21.493 -0.4033  0.0760  0.2031
34229W        W77167  31.172   9.512  23.447  0.1917  0.0287  0.0155
34230W        W77168  30.969   7.063  19.836  0.1592  0.0849  0.0105
34231W        W77169  30.688   7.928  23.215  0.1954 -0.1533 -0.1156
34232W        W77170  29.999  11.666  21.567 -0.1327  0.0048 -0.0949
34233W        W77171  30.676   9.910  21.185 -0.1897  0.0905  0.1875
34234W        W77172  31.506   9.095  22.188 -0.0792 -0.0037 -0.2229
34235W        W77173  29.036   6.936  22.645 -0.0207 -0.0327  0.0127
34236W        W77174  30.818  11.271  22.858 -0.0801  0.1095 -0.1181
34237W        W77175  31.211   8.219  19.182 -0.4212  0.1439 -0.1210
34238W        W77176  31.148   8.686  20.760  0.1328 -0.0470  0.1097
34239W        W77177  30.352   9.893  23.777 -0.2997 -0.1039 -0.0147
34240W        W77178  31.204   9.633  23.952 -0.0173 -0.1346 -0.1994
34241W        W77179  30.824   7.435  20.142  0.0752 -0.1909 -0.1478
34242W        W77180  31.320   8.596  23.619  0.0295  0.2013 -0.0201
34243W        W77181  28.892  10.036  20.764 -0.0739 -0.2319  0.1647
34244W        W77182  32.187   6.850  22.138  0.0297 -0.0036  0.0862
34245W        W77183  30.026  10.974  22.521  0.0923  0.0017 -0.1119
34246W        W77184  28.713  10.717  23.449  0.0301 -0.0495  0.2178
34247W        W77185  29.439   9.869  20.271 -0.0926 -0.3279  0.2569
34248W        W77186  31.222   8.376  24.146  0.1568  0.0491 -0.3437
34249W        W77187  32.124   8.625  20.921  0.2203  0.1027  0.1198
34250W        W77188  30.284   8.870  21.276 -0.1421 -0.2012  0.0049
34251W        W77189  31.639   9.343  22.968 -0.1036  0.0212 -0.2419
34252W        W77190  31.243  10.865  23.466 -0.0278  0.0544  0.0061
34253W        W77191  29.067   9.743  21.176  0.0166  0.2605  0.0372
34254W        W77192  31.663  11.169  23.474  0.0446  0.0386  0.2389
34255W        W77193  33.496   8.428  19.817 -0.0454 -0.0981 -0.1306
34256W        W77194  31.055  10.306  21.840 -0.1110 -0.0292  0.1648
34257W        W77195  28.402   9.240  21.633 -0.0950  0.0667 -0.3036
34258W        W77196  31.468   9.292  25.822 -0.0516 -0.0846 -0.4107
34259W        W77197  31.390   7.700  21.497  0.0720 -0.0707 -0.2173
34260W        W77198  30.039   8.331  21.312  0.0149 -0.1643 -0.0430
34261W        W77199  30.684   9.300  21.304 -0.0227  0.1698  0.0361
34262W        W77200  28.392  11.062  23.926  0.0718 -0.1077 -0.0087
34263W        W77201  30.335   9.699  22.476  0.0833  0.0478 -0.2342
34264W        W77202  30.618  12.320  20.805 -0.2270  0.1509 -0.2058
34265W        W77203  31.910  10.527  22.832 -0.0573  0.0750  0.2209
34266W        W77204  30.537   9.683  21.614 -0.4740  0.0351  0.2675
34267W        W77205  31.431   9.510  22.525  0.3152  0.1428 -0.0937
34268W        W77206  31.535   7.604  21.037  0.2892  0.0125  0.0218
34269W        W77207  29.516  10.292  22.207  0.0723  0.2089  0.0293
34270W        W77208  30.604   9.582  20.759  0.0714 -0.2121 -0.0349
34271W        W77209  31.975   8.463  21.452 -0.1156 -0.0447  0.0785
34272W        W77210  29.512  10.390  20.467  0.2220  0.0693 -0.2480
34273W        W77211  32.791  12.106  25.377 -0.1347 -0.1804 -0.2773
34274W        W77212  32.430   8.344  21.786  0.0945 -0.0813  0.0519
34275W        W77213  33.440   9.732  21.647  0.4081  0.1609 -0.3423
34276W        W77214  32.955   8.111  21.967  0.1995  0.1866 -0.1010
34277W        W77215  30.986   9.307  24.342 -0.2534 -0.2462  0.0707
34278W        W77216  31.844   9.729  22.227  0.1228  0.1746  0.2476
34279W        W77217  31.508   8.845  20.405  0.0842 -0.0701  0.1765
34280W        W77218  29.529   9.195  24.139 -0.1595  0.0139  0.0997
34281W        W77219  32.244   8.289  24.130  0.0663 -0.0821 -0.1438
34282W        W77220  29.242  10.792  23.568 -0.2171 -0.0131  0.0059
34283W        W77221  31.936  10.073  20.837 -0.0934  0.0274 -0.1478
34284W        W77222  29.386   8.608  21.765 -0.3090 -0.2447 -0.0165
34285W        W77223  31.178   7.716  20.498  0.2772  0.1125 -0.0596
34286W        W77224  33.570   6.850  25.561 -0.1777  0.1185 -0.0140
34287W        W77225  30.368   9.550  20.285 -0.2248  0.1443 -0.0202
34288W        W77226  31.237   7.231  20.240 -0.0719 -0.1218  0.0444
34289W        W77227  29.864   9.906  22.225 -0.2420  0.3396 -0.1959
34290W        W77228  28.571   9.690  21.416  0.0513 -0.0752 -0.1632
34291W        W77229  31.488  10.554  22.189 -0.0457  0.2051  0.1303
34292W        W77230  29.880   7.526  20.569  0.1544  0.1811 -0.0806
34293W        W77231  33.118   8.545  22.185 -0.0978 -0.2805  0.0092
34294W        W77232  29.839   9.941  23.904  0.1553 -0.0918 -0.0482
34295W        W77233  31.988   8.088  24.518  0.0635  0.0533  0.0956
34296W        W77234  30.827   7.301  20.688  0.2635  0.2015  0.2484
34297W        W77235  32.490   9.105  20.853 -0.0694 -0.0197 -0.1566
34298W        W77236  30.117  10.051  22.808  0.0948 -0.1399 -0.2062
34299W        W77237  29.263   7.528  23.205 -0.1824  0.2198  0.4481
34300W        W77238  30.498   7.753  19.618  0.0524  0.2017  0.1141
34301W        W77239  30.897  10.049  23.811 -0.1933  0.0370  0.1055
34302W        W77240  31.109   9.633  20.986  0.0704  0.4605 -0.0760
34303W        W77241  31.822  10.990  24.395  0.0228  0.0128 -0.4887
34304W        W77242  29.595   6.301  22.469 -0.1039 -0.1284 -0.1594
34305W        W77243  31.663   8.102  21.443 -0.2437  0.3647 -0.0169
34306W        W77244  29.954   9.582  20.627 -0.0059 -0.0540 -0.1860
34307W        W77245  29.755   8.603  22.160  0.0633 -0.0656  0.2239
34308W        W77246  31.967   9.782  23.336 -0.2982  0.1089  0.2624
34309W        W77247  29.793   7.067  20.768  0.1418  0.3072  0.1136
34310W        W77248  33.886   9.156  19.319 -0.3748  0.0194  0.0618
34311W        W77249  30.676   8.891  22.037 -0.1160 -0.1976  0.0452
34312W        W77250  29.803  10.267  20.108 -0.2244  0.0150  0.1099
34313W        W77251  31.057   8.387  22.719  0.0851 -0.1967  0.3629
34314W        W77252  32.815  10.462  22.260 -0.0418 -0.1346 -0.1533
34315W        W77253  28.840   6.900  22.137 -0.3012  0.0915  0.0817
34316W        W77254  31.279  10.396  23.085  0.2054  0.5998 -0.1157
34317W        W77255  32.405  10.913  23.304 -0.0297  0.1062  0.1417
34318W        W77256  32.348   6.569  21.391 -0.2419 -0.0604 -0.3528
34319W        W77257  29.396   9.479  21.423  0.0119 -0.2154  0.2411
34320W        W77258  30.159  10.584  21.609 -0.1306 -0.2170  0.1890
34321W        W77259  32.836   8.019  20.569 -0.1278  0.1181  0.1610
34322W        W77260  32.708   9.729  24.053  0.1507 -0.0142 -0.2185
34323W        W77261  31.512  10.194  21.509  0.1594 -0.3712  0.0249
34324W        W77262  31.308   8.966  22.788 -0.0786  0.1512  0.0807
34325W        W77263  30.937   9.953  23.043 -0.1808  0.0661 -0.0177
34326W        W77264  30.266  10.494  24.313 -0.0172 -0.0855 -0.0927
34327W        W77265  29.930   9.696  20.116  0.0320  0.0436  0.0001
34328W        W77266  30.225   9.098  22.176 -0.1971 -0.5528  0.1952
34329W        W77267  30.266   9.564  21.229  0.1502 -0.0270 -0.2342
34330W        W77268  29.303  10.897  20.495 -0.1573  0.1357  0.1878
34331W        W77269  32.364  10.245  22.389  0.1349 -0.1459  0.2756
34332W        W77270  30.358   8.740  22.503 -0.3347 -0.1026 -0.1893
34333W        W77271  32.272   9.696  22.468 -0.0957  0.0887  0.1616
34334W        W77272  30.549   7.085  22.450  0.0831  0.1620  0.0294
34335W        W77273  31.620   8.572  22.844  0.1504  0.0759  0.0015
34336W        W77274  32.210   6.931  22.648 -0.1695 -0.0367  0.1952
34337W        W77275  31.059   9.378  21.650  0.3234 -0.3591 -0.4209
34338W        W77276  29.865   8.444  20.476 -0.1559  0.0318 -0.0058
34339W        W77277  30.012   9.183  20.169  0.1562  0.1121  0.0907
34340W        W77278  29.438   9.153  21.780  0.1056  0.2914 -0.3986
34341W        W77279  30.901   7.894  24.004  0.0689 -0.0085 -0.0832
34342W        W77280  28.934   8.792  23.692 -0.1158  0.0198  0.1349
34343W        W77281  28.739   9.824  22.693  0.0971 -0.1752 -0.0023
34344W        W77282  29.759   5.909  22.114  0.0286 -0.0192  0.1419
34345W        W77283  31.065   9.468  20.456  0.1686  0.5056 -0.0419
34346W        W77284  30.266   7.220  22.024 -0.0940  0.0842 -0.3195
34347W        W77285  26.728   7.652  20.431  0.2044  0.0030 -0.1404
34348W        W77286  31.539   8.592  21.716  0.0048  0.4321 -0.0002
34349W        W77287  32.560  10.866  21.025  0.2061  0.1891  0.4496
34350W        W77288  29.403   8.652  20.881 -0.0541 -0.1616  0.0675
34351W        W77289  32.670  10.167  22.815  0.0883  0.3393 -0.3059
34352W        W77290  26.359   9.337  20.108  0.0466  0.1501 -0.1903
34353W        W77291  29.590   9.110  23.608  0.1087 -0.1204 -0.3812
34354W        W77292  30.822   8.295  23.684  0.1211  0.1448 -0.1362
34355W        W77293  29.707   7.208  19.895 -0.0801  0.0064  0.2044
34356W        W77294  30.833   8.783  22.892 -0.3964  0.0154 -0.3181
34357W        W77295  30.933  10.359  20.128  0.1031  0.1673 -0.1018
34358W        W77296  31.441  10.317  20.026  0.1265 -0.3001  0.2416
34359W        W77297  30.682  10.110  22.518 -0.1984  0.2595 -0.1821
34360W        W77298  31.963  10.238  23.782 -0.3011 -0.0078  0.1161
34361W        W77299  29.473   8.073  23.346 -0.0529  0.0700 -0.0103
34362W        W77300  32.188   8.882  21.782  0.3709  0.0370 -0.0287
34363W        W77301  30.658  10.425  22.883  0.2295 -0.3681 -0.1212
34364W        W77302  32.069   9.698  20.525  0.3992 -0.1608 -0.0329
34365W        W77303  32.956   7.729  23.027 -0.1651 -0.2200  0.1011
34366W        W77304  29.922   8.978  21.772 -0.1465 -0.1164 -0.2691
34367W        W77305  28.066   8.571  23.771 -0.0545  0.1487  0.2028
34368W        W77306  29.478   9.579  23.729 -0.1332 -0.2535 -0.1341
34369W        W77307  32.556  12.010  23.455  0.1042  0.0056 -0.0352
34370W        W77308  29.712   6.643  21.442  0.1516 -0.0037  0.0428
34371W        W77309  33.161   7.735  22.218  0.0019 -0.1091  0.1237
34372W        W77310  30.934   9.121  20.899  0.2221  0.0362  0.2366
34373W        W77311  29.162   9.523  22.819 -0.2553 -0.0757  0.8083
34374W        W77312  31.571   8.747  19.938  0.1713 -0.0740 -0.1716
34375W        W77313  32.173   9.489  21.695  0.0520 -0.0433 -0.1493
34376W        W77314  31.151   9.562  22.089 -0.2994  0.0449  0.0166
34377W        W77315  31.842  10.045  24.516 -0.0261 -0.3022 -0.2321
34378W        W77316  31.643   8.761  20.882 -0.3942  0.0355  0.0863
34379W        W77317  32.728   9.972  20.031  0.2910  0.0040 -0.3242
34380W        W77318  32.272  10.275  23.220  0.1020 -0.1922  0.0151
34381W        W77319  32.416  10.022  23.670 -0.2893  0.1750  0.1027
34382W        W77320  31.185  10.990  22.619 -0.0354 -0.0633  0.0044
34383W        W77321  31.426  10.677  21.670  0.1290  0.1876  0.2508
34384W        W77322  28.790   6.602  22.988  0.0949  0.0453 -0.1307
34385W        W77323  30.874   8.208  20.905 -0.0542  0.0825 -0.4502
34386W        W77324  29.854   9.497  21.598  0.0678  0.0930  0.0266
34387W        W77325  32.560   9.263  23.179  0.1462  0.0957  0.2340
34388W        W77326  29.206   7.039  21.571 -0.0658 -0.0938 -0.1335
34389W        W77327  32.221   6.656  20.913  0.1969  0.0552  0.1981
34390W        W77328  30.498  11.200  22.338  0.2978  0.0275 -0.0751
34391W        W77329  30.350   9.234  21.652  0.1995  0.0924 -0.0708
34392W        W77330  30.908   9.846  26.497 -0.1394  0.1318 -0.0193
34393W        W77331  29.128   9.209  23.829 -0.1492  0.4274  0.0081
34394W        W77332  31.698   9.173  24.955 -0.2153 -0.1117 -0.0691
34395W        W77333  32.307   8.721  25.716 -0.1803  0.0663  0.0147
34396W        W77334  30.496   7.716  25.696  0.3031 -0.2142  0.2571
34397W        W77335  31.068  10.167  24.375  0.0388  0.1718  0.1942
34398W        W77336  29.661   6.481  28.345  0.2084  0.5053 -0.0276
34399W        W77337  31.564   9.712  26.116 -0.1727  0.1514  0.1671
34400W        W77338  33.462  11.282  27.805  0.0933 -0.1085  0.3298
34401W        W77339  30.689   8.392  22.258  0.0260 -0.1425 -0.1159
34402W        W77340  30.928   8.685  26.939 -0.0598  0.0983  0.0106
34403W        W77341  30.742   9.440  26.265  0.3431 -0.0658 -0.1892
34404W        W77342  29.311   7.249  24.099 -0.0060  0.2204  0.0345
34405W        W77343  28.650   6.823  24.810  0.0436 -0.3896 -0.1788
34406W        W77344  32.460   8.248  26.422 -0.4809  0.0934 -0.1352
34407W        W77345  29.212   8.936  24.981 -0.1893  0.3077  0.1148
34408W        W77346  29.582   8.971  26.381  0.3419  0.2959 -0.0147
34409W        W77347  31.026   7.536  25.386  0.2680  0.4268  0.1129
34410W        W77348  30.946  11.347  24.665  0.3301 -0.3452  0.0735
34411W        W77349  31.780   7.130  25.568 -0.2945 -0.0929  0.1441
34412W        W77350  31.236   7.854  26.526 -0.0655  0.2345  0.0897
34413W        W77351  30.568  10.842  26.299  0.1711  0.0760 -0.0876
34414W        W77352  28.879   8.032  23.070 -0.1742 -0.3699 -0.1415
34415W        W77353  29.309   7.912  26.351  0.0556 -0.3540 -0.0093
34416W        W77354  29.953  10.203  25.146  0.0551 -0.2854  0.1094
34417W        W77355  31.359   7.473  25.761  0.0475  0.0615 -0.0515
34418W        W77356  31.275  10.421  26.212  0.2025 -0.2173 -0.1888
34419W        W77357  30.256  10.036  28.006 -0.1424  0.1234  0.2482
34420W        W77358  30.948   8.914  26.135  0.1077 -0.2314 -0.1822
34421W        W77359  31.466   8.829  27.917  0.0724  0.0060  0.0979
34422W        W77360  29.147   8.365  25.112 -0.0697 -0.0807 -0.0417
34423W        W77361  29.235  10.663  25.005  0.0555  0.0717  0.3519
34424W        W77362  30.472  10.948  24.601  0.0229  0.4347 -0.0522
34425W        W77363  31.893  10.700  25.874 -0.1525  0.0642 -0.0420
34426W        W77364  30.918   9.416  26.818  0.1580 -0.1273 -0.0559
34427W        W77365  30.962  11.445  26.508 -0.2833 -0.0212  0.1345
34428W        W77366  28.696  11.199  23.412 -0.0488 -0.1128  0.0847
34429W        W77367  30.369   9.891  27.367  0.1149  0.2627  0.1929
34430W        W77368  30.275  11.290  27.566  0.2155  0.0585 -0.1938
34431W        W77369  29.973  10.199  27.558  0.1792  0.2785  0.0258
34432W        W77370  29.810   9.268  26.006  0.0733  0.2375 -0.0910
34433W        W77371  29.402  10.700  24.061 -0.2205 -0.0087 -0.0735
34434W        W77372  30.564   8.284  26.182 -0.1815  0.1382 -0.0156
34435W        W77373  29.873   8.695  27.797 -0.3788  0.0904 -0.1665
34436W        W77374  28.414  10.330  25.046 -0.3298  0.1852 -0.2025
34437W        W77375  34.019   7.772  27.199 -0.0856  0.0577 -0.0594
34438W        W77376  29.810  11.471  24.367 -0.1019 -0.0572  0.2283
34439W        W77377  31.144   8.056  25.069 -0.1878  0.2976 -0.1220
34440W        W77378  28.817   7.990  25.432 -0.2263 -0.1694  0.0535
34441W        W77379  31.604   8.178  24.804  0.1347 -0.1761 -0.3141
34442W        W77380  31.719   6.727  25.268 -0.0301 -0.1479 -0.0341
34443W        W77381  30.189  11.985  25.880 -0.1926  0.2989 -0.2080
34444W        W77382  29.841   7.969  27.237  0.1044  0.3783  0.1831
34445W        W77383  31.358   9.043  28.790  0.0779 -0.0607 -0.2253
34446W        W77384  29.963   9.290  27.070 -0.1936  0.1113  0.1984
34447W        W77385  32.349   8.503  27.253  0.1666  0.0689 -0.0770
34448W        W77386  29.016  11.214  25.381 -0.4644 -0.0277 -0.1280
34449W        W77387  30.089   9.635  25.761 -0.0264 -0.2354  0.1819
34450W        W77388  32.860  10.022  24.488 -0.2790 -0.0813  0.1457
34451W        W77389  32.945   9.435  26.277 -0.1436 -0.0780  0.0982
34452W        W77390  30.465   9.198  25.454 -0.2632 -0.0276  0.1600
34453W        W77391  28.727   9.629  24.439  0.0016 -0.0308 -0.0319
34454W        W77392  29.818   9.455  26.492  0.0415 -0.0481  0.0750
34455W        W77393  31.235   7.110  27.643  0.2668 -0.0141 -0.1456
34456W        W77394  30.100   8.736  22.935  0.0769 -0.0311  0.0377
34457W        W77395  32.012  11.367  27.428 -0.4186 -0.0094  0.1497
34458W        W77396  28.330   9.543  26.452 -0.1506 -0.0438  0.4189
34459W        W77397  32.340   8.756  26.258  0.0644  0.2696  0.1766
34460W        W77398  31.503  10.640  24.361 -0.2358  0.2592  0.1020
34461W        W77399  34.061   9.928  25.576  0.0975 -0.1698 -0.0036
34462W        W77400  31.868  10.112  21.895  0.2787  0.0747 -0.0626
34463W        W77401  32.344   7.852  26.733 -0.1167 -0.2761  0.2427
34464W        W77402  32.672   7.825  27.211 -0.1914 -0.1143  0.0951
34465W        W77403  30.643   9.681  23.434  0.3195  0.3082  0.1758
34466W        W77404  29.795   8.725  24.299  0.1550  0.1345 -0.1890
34467W        W77405  31.772   9.821  27.076  0.0778 -0.0556  0.0538
34468W        W77406  31.168   9.146  24.772  0.3535  0.0663  0.1175
34469W        W77407  30.439   9.959  26.503  0.2342  0.3152 -0.0757
34470W        W77408  32.383   8.122  27.669  0.0048  0.4527  0.1277
34471W        W77409  30.205   9.563  27.782  0.0015  0.3265  0.0412
34472W        W77410  30.347  11.482  24.461 -0.2808  0.4066  0.0126
34473W        W77411  28.678   9.192  26.526  0.1236  0.3650  0.2325
34474W        W77412  29.609   9.922  24.778 -0.4773  0.2184  0.1446
34475W        W77413  30.106   7.549  25.281  0.2628 -0.2529 -0.2007
34476W        W77414  30.413  10.238  25.648 -0.2823  0.1677  0.1332
34477W        W77415  32.147   8.923  25.253 -0.0873  0.2383 -0.2010
34478W        W77416  29.146   7.307  26.680  0.2185 -0.0398 -0.0621
34479W        W77417  32.510   8.183  24.851 -0.1601 -0.0303  0.0079
34480W        W77418  29.992   9.040  25.035 -0.2014  0.3309 -0.3122
34481W        W77419  30.919  11.011  24.010  0.0321 -0.2690  0.1573
34482W        W77420  32.135   9.012  24.503  0.2041  0.2896 -0.1862
34483W        W77421  31.093   8.969  23.306  0.0309  0.1162 -0.1325
34484W        W77422  28.453   8.731  26.215  0.1556  0.0173  0.0404
34485W        W77423  28.902   8.580  24.743  0.1538 -0.1472 -0.0196
34486W        W77424  28.836   7.161  27.795 -0.0839 -0.0484 -0.4055
34487W        W77425  29.197   7.149  25.667 -0.1531 -0.1969 -0.0936
34488W        W77426  33.452   8.265  26.517  0.4411 -0.0836 -0.0663
34489W        W77427  28.783   7.998  23.947 -0.0655  0.1854  0.0167
34490W        W77428  31.222   8.659  24.918  0.3667  0.1063  0.0371
34491W        W77429  29.935   9.191  25.523  0.0255  0.0393  0.2461
34492W        W77430  29.274   9.716  25.153 -0.2205 -0.1554 -0.0307
34493W        W77431  32.880   7.696  27.652  0.0309 -0.0152  0.1818
34494W        W77432  29.560  10.894  24.598 -0.1393  0.1658 -0.0361
34495W        W77433  32.891   9.716  28.250  0.1205 -0.0274 -0.1227
34496W        W77434  32.392  10.679  26.999 -0.0006 -0.0658 -0.0277
34497W        W77435  29.500   8.003  26.812 -0.1792 -0.0989  0.0106
34498W        W77436  30.309   8.295  23.438  0.1660 -0.1286  0.1219
34499W        W77437  28.824  11.383  25.921 -0.1795 -0.1779 -0.0077
34500W        W77438  31.547  10.263  25.796  0.1669 -0.2327 -0.1416
34501W        W77439  30.453   9.573  26.807 -0.0231  0.2018  0.1256
34502W        W77440  32.028  10.682  27.395  0.2865 -0.1225 -0.3925
34503W        W77441  30.668  10.444  24.601  0.0917 -0.0351 -0.0933
34504W        W77442  29.753  10.715  25.170 -0.1893  0.0093  0.4445
34505W        W77443  31.405   7.956  28.004  0.2277  0.1439  0.3588
34506W        W77444  31.768  10.229  27.396 -0.2989 -0.0241 -0.1958
34507W        W77445  30.913   7.891  26.034 -0.0798 -0.2731 -0.1426
34508W        W77446  28.700   8.431  25.302 -0.0620  0.3957  0.1822
34509W        W77447  31.362  10.911  25.845 -0.0612 -0.0290  0.0785
34510W        W77448  30.186  10.571  24.828  0.0342  0.0808 -0.0037
34511W        W77449  28.012   8.720  25.614 -0.0308  0.0614 -0.1608
34512W        W77450  32.251  10.508  26.158  0.0164 -0.0206  0.1669
34513W        W77451  33.446   7.881  26.022 -0.0806  0.0218 -0.2682
34514W        W77452  29.215   9.315  26.651  0.0351  0.3868  0.1667
34515W        W77453  32.517   8.517  27.958  0.2484  0.1725 -0.0865
34516W        W77454  28.596   8.991  24.626 -0.2151  0.0233 -0.3208
34517W        W77455  30.700  10.282  26.053  0.2494  0.0293  0.2880
34518W        W77456  30.718   7.985  24.551  0.3557 -0.0008  0.1268
34519W        W77457  32.473   7.996  25.327 -0.1172 -0.1625 -0.0926
34520W        W77458  29.798  10.306  28.040  0.0153 -0.1007  0.2574
34521W        W77459  31.193   8.429  25.490 -0.0720 -0.1731  0.1786
34522W        W77460  30.537   9.463  24.521 -0.5156  0.1171  0.2090
34523W        W77461  30.534   9.045  24.160  0.0411 -0.0056  0.0019
34524W        W77462  29.720   8.646  28.349  0.0722  0.0273  0.2799
34525W        W77463  31.797  10.061  25.304  0.0047  0.0863 -0.2318
34526W        W77464  29.496  11.209  26.185 -0.1397  0.0578 -0.0547
34527W        W77465  30.990   7.773  23.539  0.0605 -0.0330 -0.0046
34528W        W77466  32.436  11.567  25.099  0.1734  0.0722 -0.1149
34529W        W77467  28.106  10.279  25.489 -0.1376 -0.0310 -0.2247
34530W        W77468  29.772   9.755  27.361  0.1788  0.2352  0.1841
34531W        W77469  31.158   9.725  24.613 -0.0414 -0.2382 -0.0923
34532W        W77470  31.085   7.368  28.275  0.3047 -0.2586 -0.1284
34533W        W77471  29.564   8.493  22.819 -0.3238  0.2875 -0.1796
34534W        W77472  31.481   8.393  27.700 -0.1439  0.1693 -0.1239
34535W        W77473  28.433  11.208  24.621  0.0547 -0.0784 -0.0861
34536W        W77474  33.233   8.517  27.295  0.1438  0.0123  0.3749
34537W        W77475  31.875   8.583  25.024 -0.1129 -0.0045  0.5502
34538W        W77476  30.898   6.298  27.211  0.2020 -0.1498  0.0184
34539W        W77477  31.687   9.018  28.288  0.2375  0.2529 -0.2033
34540W        W77478  32.439   9.308  25.499  0.0845 -0.4439  0.1755
34541W        W77479  31.385   9.941  27.390  0.0742  0.1946  0.2908
34542W        W77480  29.613   8.973  23.073 -0.1044  0.0653  0.2530
34543W        W77481  30.901   8.216  26.540 -0.0580 -0.3382 -0.1579
34544W        W77482  29.761   8.846  27.284  0.1101  0.0040 -0.0614
34545W        W77483  28.991  11.195  26.358 -0.0680 -0.0547 -0.1657
34546W        W77484  31.234   9.180  28.239 -0.1024  0.0308  0.1724
34547W        W77485  31.918   9.126  26.487 -0.1415 -0.0549  0.0843
34548W        W77486  29.482  11.029  26.632  0.2076 -0.0848  0.0361
34549W        W77487  29.539   7.715  24.327 -0.0535  0.2528 -0.2271
34550W        W77488  29.713  10.436  24.790  0.1148 -0.1269 -0.4058
34551W        W77489  30.369   9.142  23.662 -0.1127 -0.2839 -0.0035
34552W        W77490  30.284   7.286  24.424 -0.2375  0.0357 -0.0944
34553W        W77491  30.091  10.924  26.397  0.0596 -0.2928 -0.3032
34554W        W77492  29.916   9.530  24.720  0.0045 -0.0620 -0.2788
34555W        W77493  31.517   9.449  27.383  0.2453 -0.1220 -0.0170
34556W        W77494  30.423  10.328  25.145 -0.2054 -0.0098 -0.0123
34557W        W77495  32.687   6.398  27.412  0.2377  0.3289  0.0949
34558W        W77496  30.406   9.196  25.986  0.0059 -0.1241 -0.0418
34559W        W77497  29.448   8.647  23.394  0.3046 -0.0052  0.0699
34560W        W77498  30.111   9.165  24.434 -0.1160  0.0016 -0.0262
34561W        W77499  31.006   8.403  26.006 -0.1622 -0.1548 -0.1667
34562W        W77500  31.993   9.733  25.656  0.2860  0.0812  0.1055
34563W        W77501  29.508   8.475  26.943 -0.1862  0.1711 -0.2434
34564W        W77502  32.033   8.429  26.553  0.0841 -0.0409 -0.2397
34565W        W77503  28.641  10.313  25.780  0.1333  0.1163  0.3772
34566W        W77504  31.800   9.327  27.007  0.3385  0.0440 -0.0081
34567W        W77505  31.234   7.958  25.614 -0.1438 -0.0110  0.6350
34568W        W77506  29.652   9.253  27.549 -0.0267  0.1447  0.2633
34569W        W77507  30.624   7.557  28.191  0.2963 -0.1134  0.0685
34570W        W77508  28.507   8.630  25.724 -0.3125  0.0409  0.0996
34571W        W77509  32.873   8.585  26.497  0.1156 -0.0271 -0.2544
34572W        W77510  30.286   8.244  25.485  0.0406 -0.2708  0.0324
34573W        W77511  28.958  10.019  25.476  0.2512 -0.1748  0.0902
34574W        W77512  31.820  10.564  27.925  0.0661  0.0803 -0.1323
34575W        W77513  29.630   8.611  24.775 -0.0987  0.1577 -0.1473
34576W        W77514  29.463   9.158  25.641  0.0673 -0.0524  0.2385
34577W        W77515  29.785   7.066  26.954  0.0197  0.0761  0.0022
34578W        W77516  32.944   8.155  27.514  0.0409  0.0577 -0.0427
34579W        W77517  30.739   7.068  26.486  0.1424 -0.4363  0.0921
34580W        W77518  30.403   8.520  26.699 -0.1700 -0.0015  0.3320
34581W        W77519  30.117   8.300  25.951  0.1547  0.1530 -0.1972
34582W        W77520  31.368   8.740  27.234  0.0434 -0.0796 -0.2346
34583W        W77521  30.460   9.333  27.226  0.0460 -0.0867  0.2616
34584W        W77522  29.426  10.344  28.872  0.2343  0.1459  0.1114
34585W        W77523  31.721   6.224  26.624 -0.1437  0.0990  0.1347
34586W        W77524  32.028  11.097  26.172  0.2925 -0.1383  0.2118
34587W        W77525  30.589   9.264  27.684 -0.3258  0.0781  0.1232
34588W        W77526  29.958   8.023  25.157 -0.1669  0.2013 -0.1082
34589W        W77527  28.595   9.997  27.111  0.1786  0.2699 -0.0824
34590W        W77528  30.867  11.513  24.239 -0.0073  0.0689  0.1884
34591W        W77529  31.336   8.333  26.821 -0.3463 -0.0920 -0.1187
34592W        W77530  28.839   9.274  24.999  0.2921  0.1266 -0.1017
34593W        W77531  29.112  10.566  22.249  0.0760  0.1225 -0.1866
34594W        W77532  29.225   8.837  25.944  0.1725 -0.0436 -0.0004
34595W        W77533  31.272   7.195  24.699 -0.0047 -0.1752 -0.1170
34596W        W77534  30.312   8.683  23.826  0.0097  0.2635  0.0854
34597W        W77535  30.254   7.785  26.116  0.0523  0.2494 -0.0768
34598W        W77536  33.445   7.181  28.128 -0.1385 -0.1457 -0.0687
34599W        W77537  30.989   9.133  25.681  0.0669  0.2401 -0.0449
34600W        W77538  31.225   7.494  27.305 -0.0704  0.0719  0.0739
34601W        W77539  30.003   8.294  26.841  0.2258 -0.0049 -0.0309
34602W        W77540  31.018  11.730  26.059  0.1896  0.1769 -0.3192
34603W        W77541  29.689   7.926  27.710  0.2066 -0.1171 -0.3153
34604W        W77542  31.053  10.456  29.953  0.0647 -0.0494  0.0422
34605W        W77543  28.921   8.933  26.946  0.0527  0.2766  0.1730
34606W        W77544  30.776   8.459  24.880  0.2825  0.2605 -0.0652
34607W        W77545  29.067   8.129  24.507 -0.0824 -0.1705  0.0800
34608W        W77546  31.206   8.657  26.490 -0.2101 -0.0591 -0.1528
34609W        W77547  31.845   9.693  27.644 -0.0597  0.1423 -0.1893
34610W        W77548  31.553   8.905  26.209 -0.1028 -0.0664 -0.0535
34611W        W77549  31.985   8.528  26.055 -0.2124 -0.3665 -0.2367
34612W        W77550  29.821  10.481  25.956 -0.2284  0.0003 -0.1574
34613W        W77551  30.915   9.108  27.210  0.0334 -0.1910 -0.1225
34614W        W77552  28.832   8.417  26.020  0.1013  0.1099 -0.0039
34615W        W77553  30.873  10.141  25.570  0.2020 -0.1788  0.1779
34616W        W77554  29.014   6.714  27.629  0.0038 -0.0499 -0.1898
34617W        W77555  32.929   9.880  25.989 -0.0113  0.1258 -0.4230
34618W        W77556  30.874   6.819  26.026 -0.3779 -0.2978  0.1572
34619W        W77557  32.413   8.653  26.750 -0.1373 -0.1396 -0.0870
34620W        W77558  31.714   8.132  27.137 -0.1198  0.0494 -0.0392
34621W        W77559  30.968   8.141  27.774 -0.2053  0.3216 -0.1346
34622W        W77560  28.477   6.590  29.109 -0.2325  0.1451  0.3973
34623W        W77561  32.707  10.163  26.356 -0.1387  0.1482 -0.0651
34624W        W77562  31.611   9.703  24.276  0.4041  0.2213  0.2202
34625W        W77563  32.183   8.005  27.192 -0.1541 -0.3909  0.1061
34626W        W77564  31.832   8.686  25.606  0.4715 -0.0601  0.2815
34627W        W77565  30.666   9.962  24.845 -0.1164  0.1437 -0.2796
34628W        W77566  29.521   7.958  25.339  0.0632  0.3052 -0.0398
34629W        W77567  34.199   9.186  28.042 -0.2118  0.1177  0.0270
34630W        W77568  29.404   7.191  25.178  0.2032 -0.2963  0.0360
34631W        W77569  32.087   7.823  29.070 -0.1437  0.0769 -0.1597
34632W        W77570  30.801   9.525  25.040 -0.0922  0.0737  0.1389
34633W        W77571  31.363   9.132  26.912 -0.3802 -0.2586 -0.0020
34634W        W77572  33.597   9.346  25.299  0.0883  0.1785 -0.0055
34635W        W77573  29.190   8.450  26.486  0.0509 -0.0615  0.1148
34636W        W77574  28.568  10.061  28.533  0.0394 -0.0896  0.1803
34637W        W77575  30.395   7.575  22.925 -0.2661 -0.2550  0.1291
34638W        W77576  30.312   9.403  25.035 -0.1117  0.0858 -0.1979
34639W        W77577  30.596   8.279  27.117  0.0329 -0.2310  0.0198
34640W        W77578  32.106  10.096  27.944 -0.3674 -0.2097  0.1308
34641W        W77579  30.222   7.855  24.313  0.3973 -0.1593 -0.0326
34642W        W77580  32.537   8.047  28.490 -0.2030 -0.2314  0.1957
34643W        W77581  30.172   9.984  24.726  0.0397 -0.1185  0.2210
34644W        W77582  31.653   6.712  26.573 -0.2753 -0.1119 -0.0001
34645W        W77583  30.231  10.417  26.454 -0.1228 -0.1208  0.1223
34646W        W77584  29.495   9.723  25.630  0.2175  0.2364  0.1460
34647W        W77585  31.026  10.902  25.382  0.0617  0.0296 -0.1941
34648W        W77586  29.803   7.975  26.376  0.1665  0.0253  0.0054
34649W        W77587  32.093   8.950  27.085 -0.3527 -0.2514 -0.2372
34650W        W77588  31.462   8.867  25.272  0.0046 -0.0141 -0.0657
34651W        W77589  33.146   7.388  27.240  0.1210  0.0666  0.0712
34652W        W77590  30.790   9.951  26.994  0.0451 -0.2177  0.1711
34653W        W77591  29.528   8.178  25.961  0.2821  0.2928  0.0516
34654W        W77592  31.296   9.751  26.932  0.0044  0.0512 -0.0857
34655W        W77593  32.662   9.653  27.294 -0.0174 -0.3244 -0.0592
34656W        W77594  30.307  10.606  25.988 -0.0042 -0.0168  0.3686
34657W        W77595  29.340   7.913  27.312  0.1356 -0.1285  0.0957
34658W        W77596  30.614   8.434  27.944  0.2804  0.4124 -0.1888
34659W        W77597  31.604   8.417  26.351 -0.0529  0.2721 -0.1486
34660W        W77598  29.732   5.822  23.990 -0.3358  0.0800 -0.1384
34661W        W77599  30.959  10.850  24.520 -0.0889  0.0186  0.1263
34662W        W77600  29.362  10.601  26.907 -0.1773 -0.0226 -0.2804
34663W        W77601  29.935   8.825  26.759  0.2182 -0.3054 -0.1053
34664W        W77602  29.102  10.679  24.506 -0.0213 -0.3417  0.1384
34665W        W77603  31.155   9.939  25.957  0.0789 -0.2598 -0.0978
34666W        W77604  30.053   9.598  23.528 -0.0278  0.2209 -0.2603
34667W        W77605  31.342   9.713  28.276  0.2212  0.0311 -0.1384
34668W        W77606  30.654   9.248  23.211 -0.0790  0.2396  0.0208
34669W        W77607  30.565   9.775  25.923  0.2011  0.6377  0.2912
34670W        W77608  28.231  10.722  22.500 -0.0262  0.0498  0.0508
34671W        W77609  31.648  10.230  22.577  0.0040  0.1236  0.0444
34672W        W77610  29.105  10.153  24.983  0.0793  0.1368 -0.0642
34673W        W77611  31.611  10.133  27.835 -0.4381  0.4105 -0.1922
34674W        W77612  31.121   8.261  24.624  0.0754  0.0391  0.0379
34675W        W77613  32.774   8.063  28.048 -0.0549 -0.1437  0.0885
34676W        W77614  32.439  10.373  24.601  0.0690  0.0673 -0.4675
34677W        W77615  31.664   9.471  28.660 -0.3081 -0.1955 -0.0493
34678W        W77616  31.000   8.678  27.576  0.0321  0.2523  0.3641
34679W        W77617  30.697   9.062  24.758 -0.0296 -0.2246  0.2008
34680W        W77618  30.159   9.094  27.590  0.1017 -0.1447 -0.1918
34681W        W77619  32.064   7.519  26.980  0.0212 -0.0642  0.0987
34682W        W77620  28.514  10.985  26.527 -0.0393  0.2266 -0.0228
34683W        W77621  30.086   9.532  24.063  0.1636  0.0835 -0.1383
34684W        W77622  27.384   8.817  24.347  0.1631 -0.1957  0.2488
34685W        W77623  30.693   8.685  25.612  0.2604 -0.0511 -0.0153
34686W        W77624  31.001   7.403  26.830 -0.2770 -0.2508  0.0473
34687W        W77625  29.579   9.332  25.163 -0.0189 -0.3127 -0.0666
34688W        W77626  30.786   7.875  26.898 -0.0316  0.1195 -0.0281
34689W        W77627  29.911  11.117  25.390 -0.1249  0.2780  0.0660
34690W        W77628  29.644  10.826  25.678  0.2417 -0.0180  0.0956
34691W        W77629  29.275   9.789  27.544  0.1852  0.0773  0.0698
34692W        W77630  29.262   8.783  24.396 -0.0876 -0.3451 -0.0316
34693W        W77631  32.045   9.167  25.800  0.0105 -0.1104  0.3205
34694W        W77632  30.582   6.617  26.408 -0.1543 -0.1195 -0.1147
34695W        W77633  32.640   6.591  26.885  0.0457  0.4609 -0.4357
34696W        W77634  28.512   9.539  25.449  0.2135  0.2068 -0.0721
34697W        W77635  31.736   7.701  24.863 -0.2077  0.3654 -0.0278
34698W        W77636  30.030   9.824  26.950  0.0985  0.0207  0.1399
34699W        W77637  29.783   8.672  25.923  0.2975 -0.0060  0.0893
34700W        W77638  30.944   8.949  25.208 -0.1583  0.2049  0.1106
34701W        W77639  31.536   9.351  27.900  0.1625 -0.0070  0.5530
34702W        W77640  32.050   9.355  24.071 -0.0257  0.0081  0.0914
34703W        W77641  32.078  10.378  28.385 -0.0051  0.0319 -0.0869
34704W        W77642  29.260   7.759  25.720 -0.0728 -0.1884 -0.1528
34705W        W77643  30.520   7.525  24.104  0.0818 -0.0964  0.0235
34706W        W77644  28.289   9.331  24.443 -0.0323 -0.0207  0.0422
34707W        W77645  30.427   8.908  28.202 -0.3068  0.2809 -0.2692
34708W        W77646  31.952   9.952  26.610  0.0352 -0.3256 -0.3542
34709W        W77647  29.382   6.358  24.789  0.0132  0.0151  0.0405
34710W        W77648  33.209  11.231  23.935 -0.2364  0.2195 -0.1386
34711W        W77649  33.130   9.045  27.135  0.2535  0.2192  0.0204
34712W        W77650  30.729  10.445  24.083 -0.0485 -0.5977 -0.1848
34713W        W77651  31.791   9.357  25.435 -0.0410 -0.3198  0.2683
34714W        W77652  30.353  10.193  26.946  0.1991  0.0610  0.2047
34715W        W77653  29.838   8.308  25.540  0.0823 -0.1686 -0.0320
34716W        W77654  32.529   9.673  26.417 -0.0393 -0.1801  0.0548
34717W        W77655  32.265  10.245  27.222 -0.1148 -0.0706 -0.3708
34718W        W77656  30.164   8.700  24.638  0.1266 -0.0195 -0.0451
34719W        W77657  28.858   7.945  27.286  0.3383 -0.0142 -0.0496
34720W        W77658  29.853  10.215  24.328 -0.2556  0.0296  0.0845
34721W        W77659  31.884   7.559  26.400 -0.2938 -0.1707  0.0495
34722W        W77660  33.725   8.292  28.015  0.0528  0.0478  0.1228
34723W        W77661  31.168  10.576  23.981 -0.5187  0.1996  0.0942
34724W        W77662  31.826   7.995  26.681  0.1064  0.2181 -0.0846
34725W        W77663  31.442  10.020  26.450  0.2107 -0.2066  0.0875
34726W        W77664  29.131   9.934  28.280  0.2279 -0.1859 -0.0602
34727W        W77665  30.507  10.141  23.271  0.2433  0.0148 -0.4571
34728W        W77666  29.828  10.280  26.940  0.2670  0.0650  0.0680
34729W        W77667  30.213   9.579  26.248 -0.1098 -0.0493  0.2384
34730W        W77668  29.267  11.212  24.315 -0.1473  0.0385 -0.0536
34731W        W77669  32.885  10.808  27.269 -0.0872  0.0415 -0.0687
34732W        W77670  29.983   7.855  25.678  0.0730  0.0907  0.2372
34733W        W77671  31.848  10.388  26.942 -0.3079 -0.1226  0.1669
34734W        W77672  31.164   7.399  26.207  0.0637  0.2416  0.0272
34735W        W77673  31.679   7.182  27.339 -0.0118  0.0059  0.3174
34736W        W77674  30.605   7.837  25.176  0.0968 -0.0691 -0.1034
34737W        W77675  29.516  10.280  25.316 -0.0851  0.2700 -0.1739
34738W        W77676  28.494   8.889  23.432  0.1149 -0.0546  0.4582
34739W        W77677  28.061   8.991  22.411  0.1193  0.0560 -0.0510
34740W        W77678  29.989   8.537  25.145 -0.2967 -0.0162  0.1252
34741W        W77679  29.836   7.389  28.539  0.0158 -0.1283  0.2568
34742W        W77680  30.506   6.679  28.111 -0.0535  0.0422  0.0839
34743W        W77681  28.956   9.006  25.433  0.0009  0.1047 -0.1036
34744W        W77682  28.802   7.895  25.945 -0.0646  0.0320  0.2242
34745W        W77683  31.607  10.714  25.381  0.4060  0.0982 -0.0728
34746W        W77684  29.535   6.339  25.284 -0.1058 -0.0120 -0.0808
34747W        W77685  29.075   7.771  26.840  0.1208  0.0087  0.0481
34748W        W77686  32.134  10.563  25.257 -0.0231  0.2160 -0.1008
34749W        W77687  31.296  10.766  24.919 -0.0686 -0.0592 -0.0807
34750W        W77688  30.784   8.192  25.510  0.1025 -0.1143  0.0181
34751W        W77689  33.205   9.315  27.962  0.0576  0.1935  0.0963
34752W        W77690  27.716  10.635  23.886 -0.1184  0.2253  0.3542
34753W        W77691  30.862   8.891  27.954 -0.1480 -0.1260 -0.0900
34754W        W77692  31.106   8.292  27.239  0.1621  0.2077 -0.0603
34755W        W77693  29.115   7.825  23.554  0.1601 -0.1040 -0.0967
34756W        W77694  31.190   9.126  27.648  0.0258 -0.0694 -0.0558
34757W        W77695  31.271  10.307  25.356 -0.1469  0.3089 -0.0008
34758W        W77696  31.606  10.918  23.895  0.3761  0.3959 -0.2965
34759W        W77697  29.884  10.082  25.630  0.0874 -0.0797 -0.5312
34760W        W77698  29.976  11.394  26.522 -0.0807 -0.0432 -0.2171
34761W        W77699  29.679   7.511  26.508 -0.0083 -0.2706 -0.0619
34762W        W77700  31.693   8.682  26.814  0.1573 -0.4297 -0.2117
34763W        W77701  29.269  11.653  26.144 -0.1428  0.2117 -0.0984
34764W        W77702  32.544  10.253  25.188  0.2312  0.0989  0.0940
34765W        W77703  32.819   8.388  25.295  0.0335  0.0219 -0.0264
34766W        W77704  31.586  10.283  24.845 -0.1115  0.0758  0.0287
34767W        W77705  29.062   6.673  26.607 -0.0237  0.2274  0.2309
34768W        W77706  29.018   9.480  25.576  0.2114  0.4549 -0.0052
34769W        W77707  32.870   8.653  26.997 -0.1078 -0.0556 -0.2003
34770W        W77708  30.559   7.400  27.029  0.0273 -0.1942  0.2255
34771W        W77709  31.565   9.177  24.464 -0.2014  0.2029 -0.0313
34772W        W77710  30.941  10.341  24.993  0.1110  0.0304  0.0423
34773W        W77711  29.471   8.942  26.873  0.0233 -0.1112  0.0364
34774W        W77712  30.882   7.252  25.756  0.3981  0.2079 -0.0563
34775W        W77713  29.921   9.165  27.990  0.0807  0.0494  0.0238
34776W        W77714  32.012   9.598  26.300 -0.1107  0.0270 -0.0057
34777W        W77715  32.507   9.916  26.920  0.2290  0.0089 -0.1115
34778W        W77716  30.678   9.635  24.074  0.0612 -0.0518  0.1496
34779W        W77717  31.562  10.495  23.687 -0.1901 -0.2169 -0.0624
34780W        W77718  30.848  11.203  25.968 -0.0029 -0.1457  0.1125
34781W        W77719  32.086  10.960  27.819 -0.2579  0.0235  0.1227
34782W        W77720  31.232  11.053  27.168  0.2845 -0.0351  0.1137
34783W        W77721  31.243   9.351  26.337 -0.2532 -0.1382  0.4434
34784W        W77722  28.524   6.428  25.782  0.3394  0.1306  0.2972
34785W        W77723  30.446   8.730  25.137 -0.2257  0.0167 -0.2607
34786W        W77724  31.639   9.613  26.602 -0.1106 -0.0146 -0.2175
34787W        W77725  31.394   8.772  25.770  0.0702 -0.4510  0.0662
34788W        W77726  30.206   8.743  26.245  0.0381  0.2925  0.2106
34789W        W77727  30.805   8.717  23.900  0.1152 -0.2358  0.0460
34790W        W77728  30.266  11.491  27.099 -0.0575 -0.1527  0.0493
34791W        W77729  31.720  10.416  26.489  0.3940  0.2126  0.0033
34792W        W77730  28.798   9.787  29.699 -0.1969 -0.2379  0.0458
34793W        W77731  31.253   8.628  28.549  0.0162  0.0722 -0.3523
34794W        W77732  32.449   7.682  28.748  0.0092  0.0533 -0.0264
34795W        W77733  33.817   9.732  27.839  0.1570  0.0207  0.0282
34796W        W77734  30.076   8.166  29.685  0.0290 -0.0120 -0.1212
34797W        W77735  32.567  10.136  28.313  0.2004 -0.0706 -0.0413
34798W        W77736  29.623   7.487  31.684 -0.1105  0.0011 -0.0452
34799W        W77737  32.785  10.418  28.776 -0.1223  0.2511  0.0638
34800W        W77738  32.973  10.447  30.379 -0.1389 -0.1967 -0.2683
34801W        W77739  31.926   9.232  29.095 -0.0215  0.0758 -0.2459
34802W        W77740  31.137   9.288  29.759 -0.0131 -0.2573 -0.2220
34803W        W77741  31.771   9.758  30.209 -0.2267  0.3656  0.4818
34804W        W77742  30.056   8.220  29.167  0.1445 -0.2547 -0.1226
34805W        W77743  28.404   8.575  30.195  0.2535 -0.2631 -0.2616
34806W        W77744  32.430   9.199  30.905  0.1049  0.0787  0.3193
34807W        W77745  29.927   8.746  29.819 -0.1273  0.0808  0.2723
34808W        W77746  28.968   8.316  30.718 -0.2630  0.3549  0.3644
34809W        W77747  30.293   8.967  30.105 -0.1053  0.1703 -0.1819
34810W        W77748  32.653  10.783  28.480 -0.0416  0.0806 -0.2498
34811W        W77749  30.867   8.763  29.628 -0.0725  0.1142 -0.0617
34812W        W77750  32.083   7.392   0.458 -0.4669 -0.1647  0.0834
34813W        W77751  32.542   9.511  27.923  0.3136 -0.1182  0.0296
34814W        W77752  29.030   8.261  27.567  0.0568 -0.1143 -0.0953
34815W        W77753  29.944   8.533  30.331  0.0510  0.1300  0.2740
34816W        W77754  30.190   9.434  31.248  0.0875 -0.3053  0.1199
34817W        W77755  32.830   8.502  29.838  0.2919 -0.1261  0.1260
34818W        W77756  32.694   8.184  30.526 -0.1475 -0.2385  0.1815
34819W        W77757  30.547  10.474  29.949 -0.1223 -0.2655 -0.0930
34820W        W77758  32.116  10.105  29.025  0.2846  0.1246 -0.0829
34821W        W77759  32.207   8.258  30.702 -0.1528  0.1246 -0.2110
34822W        W77760  29.130  10.138  29.408 -0.2595  0.1898 -0.0471
34823W        W77761  29.955  12.367  29.563 -0.0761 -0.1780 -0.0570
34824W        W77762  32.142   8.848  29.418 -0.0676  0.0771 -0.0630
34825W        W77763  33.731   9.355  28.228 -0.1455 -0.1084 -0.0836
34826W        W77764  32.528   9.749  31.037 -0.2151 -0.1900  0.0164
34827W        W77765  29.008  10.559  29.982  0.1242 -0.1407 -0.1241
34828W        W77766  29.868  10.037  29.045 -0.0359  0.1167 -0.1718
34829W        W77767  30.058  11.353  31.463  0.1716  0.0947 -0.1260
34830W        W77768  29.885  11.814  31.237 -0.1934 -0.0060 -0.0203
34831W        W77769  32.549   9.491  31.450  0.0862  0.1811 -0.0725
34832W        W77770  31.729  10.385  29.798  0.1318  0.0051  0.1126
34833W        W77771  30.955   9.635  29.435 -0.0180  0.2340  0.0026
34834W        W77772  32.124   9.469  29.460 -0.1654  0.4346 -0.1276
34835W        W77773  29.830   9.056  30.340 -0.3412  0.1537 -0.1224
34836W        W77774  27.722  10.454  30.244 -0.4337  0.0051  0.0750
34837W        W77775  33.117   7.443   0.997  0.2855  0.2969 -0.1213
34838W        W77776  31.585  10.722  28.362 -0.0223  0.0016  0.2631
34839W        W77777  31.661   7.176  28.562  0.0030  0.0472  0.1000
34840W        W77778  31.373   7.904  27.518 -0.2444 -0.3308 -0.0412
34841W        W77779  32.031   8.614  28.949 -0.0689  0.3587 -0.0465
34842W        W77780  31.255   8.394  29.234 -0.0900 -0.2412 -0.1100
34843W        W77781  28.934  11.028  29.919  0.0068 -0.1535 -0.1440
34844W        W77782  29.915   7.832  30.858 -0.3069 -0.1067  0.0002
34845W        W77783  32.694   8.653  30.899 -0.0247  0.0675 -0.0481
34846W        W77784  31.688   8.323  28.146  0.0062  0.0319  0.2717
34847W        W77785  31.871   8.340  31.278  0.0846  0.3769  0.0233
34848W        W77786  29.350  10.371  30.416  0.1110 -0.3223 -0.2740
34849W        W77787  28.589   8.897  29.886  0.2299  0.0450  0.0446
34850W        W77788  32.207  11.155  26.975  0.3617 -0.3933 -0.0786
34851W        W77789  32.996   9.508  29.105 -0.2872 -0.1345 -0.0802
34852W        W77790  30.084   9.189  29.064 -0.1110  0.0387  0.0235
34853W        W77791  30.750   7.358  29.455 -0.0025 -0.2443  0.1743
34854W        W77792  27.483   9.733  29.720 -0.1451 -0.2343  0.0663
34855W        W77793  29.421   7.941  30.837  0.2240 -0.2533 -0.2197
34856W        W77794  30.072   7.641  28.160  0.1271 -0.0850 -0.2473
34857W        W77795  33.866  10.555  30.403  0.1020 -0.4549  0.0455
34858W        W77796  28.118   9.137  31.080 -0.2540 -0.2657 -0.2111
34859W        W77797  33.349   7.943  27.888 -0.0270 -0.0193 -0.0643
34860W        W77798  31.403   8.794  31.131  0.2097  0.1877  0.2176
34861W        W77799  32.165  10.741  30.676 -0.0222 -0.1085 -0.1729
34862W        W77800  32.862   8.441  28.355 -0.1722  0.2343 -0.1823
34863W        W77801  30.925   7.755  30.632 -0.0285  0.3157 -0.0947
34864W        W77802  32.974   7.444  30.635 -0.2587 -0.0717 -0.2506
34865W        W77803  30.316   7.511  28.595 -0.0217 -0.0490  0.2867
34866W        W77804  30.740   8.487  28.404 -0.0981 -0.2278 -0.1168
34867W        W77805  34.595   8.901  30.284  0.1927 -0.0722 -0.0641
34868W        W77806  33.820   8.926  28.550 -0.0004  0.0445  0.0967
34869W        W77807  29.390  11.288  30.125  0.2317 -0.1051  0.3785
34870W        W77808  30.967   9.776   0.909 -0.0915  0.2670 -0.0203
34871W        W77809  29.746   8.220  31.324  0.1263 -0.2329  0.0770
34872W        W77810  30.655  10.244  28.330  0.2619  0.1149 -0.1534
34873W        W77811  30.166   9.512  30.198  0.6569 -0.3456 -0.4666
34874W        W77812  29.811   9.567  29.258 -0.1085 -0.0526 -0.2999
34875W        W77813  29.881   8.282   0.199 -0.3021  0.2266  0.2801
34876W        W77814  31.384   7.904  29.672 -0.1284 -0.0608 -0.1683
34877W        W77815  33.044   7.248  28.682 -0.0416  0.1626  0.1850
34878W        W77816  30.279   7.119  29.923 -0.0616 -0.0452 -0.1442
34879W        W77817  31.581   7.950  29.050  0.0943  0.2684 -0.2824
34880W        W77818  30.127   9.958  28.546 -0.0063  0.1768  0.0178
34881W        W77819  32.095  12.208  29.368 -0.0095 -0.1612 -0.0662
34882W        W77820  31.152   9.974  28.588 -0.0673 -0.0193  0.2516
34883W        W77821  30.952   9.663  27.381  0.0941  0.3882  0.1603
34884W        W77822  29.150   8.193  31.536  0.1916  0.1051 -0.0824
34885W        W77823  30.843   9.027  28.436  0.2077  0.3693  0.1558
34886W        W77824  29.672   7.480  31.101  0.0406 -0.1652  0.2913
34887W        W77825  29.928   6.779  29.590 -0.0739 -0.1717  0.0083
34888W        W77826  33.325   8.475  30.189  0.2704 -0.0188  0.1979
34889W        W77827  28.209   6.941  26.738  0.2206  0.2396 -0.1945
34890W        W77828  32.185   7.910  30.339  0.0814 -0.1597  0.3375
34891W        W77829  30.860   8.231  28.832  0.0336 -0.0779  0.1601
34892W        W77830  29.706   9.051  29.410 -0.1078  0.3159 -0.2896
34893W        W77831  32.993   7.254  31.237 -0.1337 -0.1538 -0.2422
34894W        W77832  30.747  10.537  29.490  0.0888  0.0126 -0.1370
34895W        W77833  31.389  10.813  31.253 -0.4614  0.1914 -0.2121
34896W        W77834  32.810  10.604  29.937 -0.0381  0.0834 -0.0798
34897W        W77835  30.233   8.165  30.608  0.2656 -0.0890 -0.1357
34898W        W77836  29.480   7.962  28.432 -0.0395  0.1139 -0.1246
34899W        W77837  30.565  10.445  31.164 -0.1165  0.0065  0.1093
34900W        W77838  30.561  10.126  30.306  0.0083 -0.1433 -0.2902
34901W        W77839  31.437   8.702  30.505  0.2189  0.0035 -0.0822
34902W        W77840  32.855   9.675  29.956 -0.1165 -0.1231  0.2466
34903W        W77841  31.547   8.012  28.494 -0.1165 -0.1689 -0.0346
34904W        W77842  29.244   9.145  31.122 -0.2846 -0.0426 -0.0792
34905W        W77843  32.542   6.757  31.886 -0.0530 -0.1658  0.0202
34906W        W77844  33.340   7.952  29.926  0.0277  0.0219  0.0816
34907W        W77845  32.328   9.137  29.793  0.3675  0.1593  0.0207
34908W        W77846  31.462   7.101  28.124 -0.1397  0.0190 -0.1723
34909W        W77847  32.474  10.393  29.172  0.2037 -0.0702 -0.1324
34910W        W77848  30.817   9.229  29.148 -0.4073  0.3330  0.0925
34911W        W77849  28.548   8.706  29.301 -0.1132  0.0877 -0.0114
34912W        W77850  31.137  10.199  29.483  0.0528  0.2414 -0.0576
34913W        W77851  32.783   6.553  29.870 -0.0466 -0.2199 -0.0371
34914W        W77852  29.723   7.994  30.394 -0.0371  0.1143 -0.0874
34915W        W77853  30.942   8.570  30.136  0.1552 -0.4187 -0.3757
34916W        W77854  29.117   7.546  29.005  0.0073  0.1137  0.0149
34917W        W77855  29.659   9.569  30.966 -0.6010 -0.1675  0.0834
34918W        W77856  30.516   7.872  27.822 -0.0224  0.2370 -0.0830
34919W        W77857  32.387   6.883  29.896 -0.2321  0.1303 -0.0168
34920W        W77858  31.581  10.011  31.258  0.0064 -0.1250 -0.2046
34921W        W77859  32.088  10.905  28.330  0.0485 -0.1382  0.0351
34922W        W77860  32.357   8.494  28.496 -0.0170  0.3278  0.4092
34923W        W77861  30.306   7.186  28.059  0.0306 -0.1266 -0.1666
34924W        W77862  28.247   7.840  31.128  0.1054 -0.1029 -0.0030
34925W        W77863  31.799   9.725  29.182 -0.1268 -0.2042 -0.3080
34926W        W77864  32.372   9.118  30.358  0.1520 -0.2110  0.0278
34927W        W77865  31.269   7.882  27.037  0.2830 -0.0132 -0.1958
34928W        W77866  32.036   9.319  27.949  0.0528 -0.1774 -0.0214
34929W        W77867  29.418   8.882  30.079  0.0733 -0.2710 -0.1388
34930W        W77868  31.546   9.236  31.452 -0.1163  0.0425 -0.1326
34931W        W77869  32.053  11.452  28.298 -0.1365 -0.2362  0.0197
34932W        W77870  31.157   8.456  30.839  0.1606 -0.0555  0.3773
34933W        W77871  29.221   8.438  28.217 -0.0148  0.2665  0.1609
34934W        W77872  32.137   6.810  29.273 -0.2259  0.0880 -0.3168
34935W        W77873  29.451  11.629  27.408  0.0588 -0.1677 -0.1112
34936W        W77874  32.671   8.193  31.052  0.3939 -0.1060 -0.1368
34937W        W77875  32.199   8.769  30.718 -0.1297 -0.0316 -0.0196
34938W        W77876  31.493   8.411  30.041 -0.2137 -0.0533 -0.0515
34939W        W77877  33.450   9.867   0.081  0.0317 -0.0599  0.0059
34940W        W77878  32.871   8.921  28.562 -0.1247  0.1253 -0.1870
34941W        W77879  32.337   8.661  29.898 -0.4436  0.0555 -0.1362
34942W        W77880  30.141   7.570  27.685 -0.1397 -0.1271 -0.1005
34943W        W77881  31.705   7.066  30.734  0.0465  0.3672 -0.0214
34944W        W77882  28.660   8.971  31.286  0.1347 -0.1548 -0.1351
34945W        W77883  28.783   9.830  31.308  0.0762 -0.3959  0.2941
34946W        W77884  31.643   9.726  31.651  0.1506 -0.1135  0.0449
34947W        W77885  31.558   9.942  29.746 -0.1100 -0.0164  0.1070
34948W        W77886  30.385   7.755  30.938  0.1718 -0.3031  0.2314
34949W        W77887  30.915   8.784  28.878  0.0105  0.2896 -0.0807
34950W        W77888  30.400  10.716  28.676 -0.2152  0.1434 -0.0644
34951W        W77889  28.714   7.396  28.712  0.1954  0.2385 -0.1216
34952W        W77890  29.482   8.602  29.598 -0.1371  0.0496 -0.2950
34953W        W77891  29.943   9.697  29.764 -0.0039 -0.2014 -0.0559
34954W        W77892  30.212   8.471  28.182  0.3607  0.0548 -0.2682
34955W        W77893  32.978   9.581  30.892 -0.3223  0.0404 -0.1758
34956W        W77894  30.023  10.672  27.787 -0.1757  0.0325 -0.0616
34957W        W77895  31.502   7.200  30.270 -0.3996 -0.0258 -0.0734
34958W        W77896  29.154  10.349  30.917  0.1278  0.1848  0.2437
34959W        W77897  31.001   7.654  27.819 -0.0963  0.3739  0.4514
34960W        W77898  27.799   9.488  26.817  0.2446  0.1680  0.0652
34961W        W77899  33.332   8.127  29.040 -0.0944  0.2147  0.4753
34962W        W77900  33.106  10.158  28.429  0.1083 -0.2181  0.0639
34963W        W77901  30.730   8.224  30.747 -0.0364 -0.2633 -0.0399
34964W        W77902  31.066   9.081  30.328 -0.1905  0.0552 -0.1523
34965W        W77903  29.663  10.210  30.928  0.1348  0.0555  0.0380
34966W        W77904  32.638  10.255  31.204 -0.1572 -0.1287 -0.0941
34967W        W77905  32.059   7.226  28.093  0.1366  0.1342 -0.1802
34968W        W77906  31.933  10.346  30.486 -0.2420 -0.0824 -0.0456
34969W        W77907  29.915   8.985  31.586  0.1192 -0.0982 -0.2403
34970W        W77908  29.616   7.510  27.494  0.2048 -0.1221  0.0371
34971W        W77909  32.352   8.362  29.460 -0.3617  0.1660  0.2288
34972W        W77910  31.172   8.897  29.237 -0.0477 -0.2778  0.2058
34973W        W77911  29.307   9.158  29.659  0.1096 -0.2006  0.0633
34974W        W77912  31.754  10.349  28.785  0.3294  0.0861  0.2626
34975W        W77913  31.409   9.399  29.217  0.1780  0.1590  0.1370
34976W        W77914  29.055  10.072  29.946  0.2350  0.0691  0.3549
34977W        W77915  31.304   7.233   0.289  0.0850 -0.1593  0.0793
34978W        W77916  33.065   9.827  29.474 -0.3165  0.4850  0.1565
34979W        W77917  30.470   8.513  29.097 -0.0368  0.0371  0.0700
34980W        W77918  30.048   8.710  29.316  0.0532  0.3275  0.0379
34981W        W77919  32.655   8.635  30.321 -0.0996 -0.0991  0.0895
34982W        W77920  33.684   9.886  29.668  0.0686  0.0610 -0.1714
34983W        W77921  31.357   8.310  31.288  0.1038 -0.2542  0.2569
34984W        W77922  29.452   9.725  31.816 -0.0864 -0.0477 -0.0774
34985W        W77923  31.150   8.209  30.377 -0.0144  0.2915 -0.1622
34986W        W77924  32.774  11.288  29.800 -0.1680 -0.2497  0.1546
34987W        W77925  32.769   8.590  31.404  0.3153 -0.2259  0.1792
34988W        W77926  30.311  11.173  28.523  0.0629  0.3203  0.1635
34989W        W77927  27.117   9.256  31.051 -0.0393 -0.2116  0.0020
34990W        W77928  29.232   9.576  28.631  0.0559  0.3506  0.1999
34991W        W77929  29.578   7.507  30.551 -0.0785  0.0220 -0.2395
34992W        W77930  28.158  10.046  28.924  0.1119 -0.2714  0.2711
34993W        W77931  29.408   9.563  28.022 -0.3180 -0.2191  0.0410
34994W        W77932  30.207  10.687  30.891 -0.0590 -0.2033 -0.2426
34995W        W77933  32.910   6.907  28.348  0.1761 -0.1611 -0.0463
34996W        W77934  31.786   8.976  27.617 -0.0849  0.0120  0.1167
34997W        W77935  31.789   7.992  30.902 -0.1132 -0.1386  0.5026
34998W        W77936  34.437   7.105  31.033  0.2547  0.1667 -0.2304
34999W        W77937  32.050   8.757  28.038  0.1731 -0.0202  0.0903
35000W        W77938  31.391   6.605  30.906 -0.1150 -0.1983  0.0674
35001W        W77939  30.589   7.108  31.121  0.2474  0.0214 -0.1789
35002W        W77940  33.229   9.746  28.704 -0.1596 -0.1379 -0.1155
35003W        W77941  29.310   7.694  31.378 -0.1310 -0.0994  0.1644
35004W        W77942  31.950  11.122  30.115 -0.0309 -0.0742 -0.1937
35005W        W77943  28.194   9.044  31.629 -0.1806 -0.2585 -0.1536
35006W        W77944  31.757   8.465  30.846 -0.3312 -0.0093 -0.1811
35007W        W77945  31.225   6.893  29.620 -0.2170  0.1315 -0.0547
35008W        W77946  31.747   8.792  31.680 -0.0558  0.0174  0.1609
35009W        W77947  32.659   9.362  29.539  0.1183 -0.0313  0.2264
35010W        W77948  30.954   9.958  29.856  0.0983  0.0672 -0.0064
35011W        W77949  32.573   8.680  29.056 -0.2680  0.2832 -0.2323
35012W        W77950  30.110   9.255  29.728  0.1915  0.1776  0.2963
35013W        W77951  32.514   9.772  29.237  0.3224 -0.1441 -0.0979
35014W        W77952  31.050   9.464  28.650 -0.1974  0.1081  0.0336
35015W        W77953  31.301   9.645  30.078  0.1498  0.1200 -0.0087
35016W        W77954  30.950   7.797  29.848  0.1055 -0.0931 -0.1346
35017W        W77955  31.777   9.548  31.150  0.2534 -0.3492  0.2417
35018W        W77956  31.142   7.012  28.598  0.1772  0.1347 -0.1610
35019W        W77957  31.261   7.933  30.967  0.0730 -0.4963  0.1928
35020W        W77958  33.437   9.723  30.111  0.1509 -0.1725 -0.1264
35021W        W77959  30.466   8.800  31.465  0.3635  0.1563  0.1258
35022W        W77960  27.353   7.043  31.560 -0.0928  0.4760 -0.1206
35023W        W77961  31.849  11.086  30.935 -0.1964  0.0014  0.2391
35024W        W77962  33.870   7.308  27.235 -0.3728  0.1783  0.2056
35025W        W77963  33.900   9.235  31.019  0.0935  0.2270 -0.2959
35026W        W77964  33.138   7.905  29.417  0.0028  0.3392 -0.0598
35027W        W77965  32.430   8.243  30.100  0.5064 -0.1576 -0.2676
35028W        W77966  30.357   7.771  29.450  0.0467 -0.3007  0.0322
35029W        W77967  32.743   7.626  30.199 -0.1164  0.1145  0.0699
35030W        W77968  30.107   8.120  27.796 -0.2097  0.1034 -0.0160
35031W        W77969  32.229   7.256  30.645  0.1102  0.5366 -0.0506
35032W        W77970  30.999   9.488  27.906  0.3184 -0.0499  0.1499
35033W        W77971  32.376   9.632  28.339 -0.4198 -0.0985 -0.2016
35034W        W77972  32.302   8.533  31.212 -0.0813  0.0154  0.1296
35035W        W77973  28.637   8.378  29.771  0.1730  0.2292  0.1478
35036W        W77974  29.312  11.820  31.254 -0.2304  0.0407  0.0433
35037W        W77975  29.317   7.152  28.005  0.0191 -0.0679  0.1924
35038W        W77976  32.452   8.230  28.951  0.2198  0.1350  0.0324
35039W        W77977  30.801  10.898  30.021  0.1525 -0.2313 -0.0988
35040W        W77978  34.272  10.272  31.849 -0.0558  0.2913  0.0944
35041W        W77979  30.000   6.047  27.143  0.1962 -0.1399  0.3291
35042W        W77980  31.604   8.223  31.758 -0.1412  0.1009 -0.2324
35043W        W77981  29.095   9.007  29.245 -0.0186 -0.0653  0.0156
35044W        W77982  31.338   9.305  30.949  0.1815  0.1451  0.1046
35045W        W77983  30.080  10.414  30.465 -0.1547 -0.0113 -0.1631
35046W        W77984  29.703  10.754  30.770  0.0057  0.1410  0.5486
35047W        W77985  30.707  10.153  30.796 -0.1047 -0.2733 -0.0413
35048W        W77986  31.090   8.307  29.731 -0.2310  0.0082  0.1271
35049W        W77987  32.257   9.585  30.004 -0.0357 -0.1894 -0.1753
35050W        W77988  31.776   9.016  30.836  0.0670  0.4893 -0.1201
35051W        W77989  32.642   9.628  30.495  0.1623 -0.0756  0.2128
35052W        W77990  31.117  10.448  31.377  0.2527 -0.1409 -0.1362
35053W        W77991  30.586  10.057  29.353  0.0345 -0.1537 -0.1845
35054W        W77992  30.432   9.885  29.843  0.0478 -0.3325 -0.0945
35055W        W77993  32.127   9.231  28.521  0.3546  0.0961 -0.3085
35056W        W77994  33.286   8.654  28.900  0.3007 -0.1047 -0.0748
35057W        W77995  30.155   8.021  30.125  0.1044 -0.0881 -0.0837
35058W        W77996  30.626  10.817  31.830  0.2378  0.0348 -0.0792
35059W        W77997  31.817   8.743  29.786 -0.1478 -0.0913 -0.2017
35060W        W77998  30.639   7.902  30.297  0.0625  0.0188  0.1587
35061W        W77999  31.148   8.456  28.102  0.3063 -0.3754  0.0370
35062W        W78000  29.052  10.243  31.479  0.0586 -0.0010  0.1059
35063W        W78001  28.718   7.910  29.455 -0.2016 -0.2114 -0.5276
35064W        W78002  30.747  12.060  29.661  0.1116  0.0090  0.0353
35065W        W78003  32.937   9.027  29.077 -0.0036 -0.1866 -0.0962
35066W        W78004  29.915   9.605  28.213 -0.2424  0.1175 -0.5492
35067W        W78005  32.101  10.100  30.002  0.2943 -0.0629  0.0621
35068W        W78006  31.218   7.401  29.296 -0.2919 -0.1299  0.0952
35069W        W78007  29.809  10.656  29.031  0.0168  0.1004  0.3329
35070W        W78008  28.966  10.548  29.022 -0.1898  0.3068  0.4426
35071W        W78009  31.823   9.705  28.151 -0.0734  0.1034  0.0777
35072W        W78010  30.401  10.971  29.683  0.3023  0.3113 -0.0113
35073W        W78011  32.950  10.004   0.006  0.0508  0.0043  0.0395
35074W        W78012  33.992   6.467  26.858  0.2786  0.0445  0.2664
35075W        W78013  33.645   8.430  29.296  0.0982  0.0819  0.0855
35076W        W78014  32.961   7.820  28.868  0.0120 -0.0387  0.1154
35077W        W78015  32.412  11.045  30.982 -0.0782 -0.1271 -0.3317
35078W        W78016  30.752   9.613  30.197 -0.0437  0.1137  0.1537
35079W        W78017  30.703   7.008  28.449  0.2685 -0.0449 -0.0186
35080W        W78018  31.008   8.993  30.887 -0.1057  0.1908 -0.0312
35081W        W78019  33.084   7.621  31.505 -0.0030 -0.1911  0.1483
35082W        W78020  29.309   9.824  31.285 -0.1038  0.3275 -0.1488
35083W        W78021  32.371  11.173  28.588  0.2289  0.3049 -0.2148
35084W        W78022  29.627   9.981  28.389  0.1613 -0.0417 -0.3159
35085W        W78023  31.035   8.044  28.371  0.1128 -0.3117 -0.0523
35086W        W78024  32.733   6.029  31.736 -0.0470 -0.2798  0.2655
35087W        W78025  29.375   9.736  26.430  0.0564  0.2649  0.1541
35088W        W78026  32.016   9.410  30.646 -0.2452 -0.0857 -0.3102
35089W        W78027  30.835  10.325  28.798 -0.1912  0.0986  0.2265
35090W        W78028  29.497  11.314  28.724  0.0441  0.0612 -0.4154
35091W        W78029  31.065   9.525  30.565  0.1312  0.0366  0.1515
35092W        W78030  29.229   8.152  28.863 -0.0837 -0.1107  0.2307
35093W        W78031  33.643   7.999  29.576 -0.2378  0.1777 -0.2269
35094W        W78032  29.852   8.430  30.882  0.1549 -0.0731 -0.0698
35095W        W78033  31.427   6.011  31.062 -0.1610 -0.2458 -0.1918
35096W        W78034  31.805   8.389  29.357 -0.0129 -0.0916 -0.0787
35097W        W78035  33.279   9.219  28.457  0.2152  0.2769  0.0641
35098W        W78036  32.203   9.866  30.455  0.2253 -0.3236  0.1348
35099W        W78037  28.969   8.351  29.248 -0.0886  0.2128 -0.2152
35100W        W78038  30.306   8.830  27.057 -0.0057  0.0948  0.0574
35101W        W78039  34.229   9.042  29.767  0.3053  0.1464 -0.0998
35102W        W78040  31.250   9.888  29.046 -0.1491 -0.0794 -0.1272
35103W        W78041  33.020  11.444  31.769 -0.0382 -0.1482 -0.0083
35104W        W78042  29.189   8.213  29.674  0.0319 -0.0047 -0.1985
35105W        W78043  31.837   8.612  28.470  0.1245 -0.1054 -0.0400
35106W        W78044  29.719   8.302  28.824  0.1850 -0.2921  0.0262
35107W        W78045  30.401   8.566  31.028  0.2089  0.3489  0.0535
35108W        W78046  31.704  10.796  30.519  0.0480  0.0708 -0.2001
35109W        W78047  31.250   7.371  29.815  0.2703 -0.1509  0.0842
35110W        W78048  31.051  10.914  27.895 -0.2281  0.0955 -0.3437
35111W        W78049  33.928   7.607  29.514 -0.0468 -0.1806  0.0687
35112W        W78050  31.008  10.241  27.465  0.0997  0.1272  0.0096
35113W        W78051  31.681   9.416  29.743  0.1477 -0.0557  0.2074
35114W        W78052  31.813  11.170  29.222  0.0892 -0.0755  0.0032
35115W        W78053  29.457  10.574  29.391  0.6306  0.1630 -0.2600
35116W        W78054  32.118  10.130  29.507  0.0557  0.1521 -0.1658
35117W        W78055  32.492   9.897  29.718  0.2994 -0.2034  0.1035
35118W        W78056  30.833   6.618  30.948  0.0806 -0.3273 -0.1887
35119W        W78057  30.234  10.314  28.976  0.1337 -0.1241  0.0716
35120W        W78058  29.343  11.738  29.157  0.1586 -0.1768  0.0079
35121W        W78059  32.338   7.379  30.174  0.0547  0.3708  0.1294
35122W        W78060  31.732   8.064  30.359 -0.1017 -0.0548  0.0148
35123W        W78061  30.790   9.808  28.938 -0.1915 -0.0372  0.0233
35124W        W78062  32.583   7.289  30.998 -0.2376  0.1928 -0.1270
35125W        W78063  29.954  10.201  29.916 -0.4462 -0.1788  0.2604
35126W        W78064  31.978  10.033  30.857 -0.3667 -0.0286  0.2447
35127W        W78065  29.690   8.229  28.084 -0.0751 -0.0576 -0.0405
35128W        W78066  31.895   9.161  30.125  0.1574 -0.3475  0.4280
35129W        W78067  30.656   9.745  28.346 -0.1037 -0.1522 -0.2378
35130W        W78068  31.077  10.120  28.079  0.0353 -0.1246 -0.3556
35131W        W78069  31.861   9.900  28.584  0.2028  0.2791  0.1077
35132W        W78070  32.649   8.852  29.517 -0.3367 -0.1564 -0.1652
35133W        W78071  32.909   8.396  28.823  0.0638  0.3193 -0.3396
35134W        W78072  30.423   8.937  28.749  0.0750  0.2361  0.1729
35135W        W78073  32.934   6.908  29.033  0.0915 -0.0465  0.2074
35136W        W78074  32.828   8.266  29.326 -0.0143  0.0916  0.1421
35137W        W78075  29.355   8.423  31.047  0.3669 -0.0771  0.3045
35138W        W78076  30.099   8.439  27.361 -0.1980 -0.0123 -0.1119
35139W        W78077  29.863   8.835  28.870  0.2834  0.2325  0.4625
35140W        W78078  29.019  11.516  29.620  0.1787 -0.1757  0.0494
35141W        W78079  30.750   7.056  31.638  0.0424 -0.0145 -0.1698
35142W        W78080  28.313   7.308  31.093  0.1519  0.1784  0.0592
35143W        W78081  28.717  10.396  29.501 -0.1863 -0.3368  0.1567
35144W        W78082  28.939   7.129  28.411 -0.4904 -0.1529 -0.0103
35145W        W78083  32.374  10.482  29.728  0.1645  0.1472  0.2599
35146W        W78084  31.121   6.901  30.139  0.1846  0.1942  0.0023
35147W        W78085  29.004   8.740  29.627 -0.2722  0.0848  0.0813
35148W        W78086  32.899   8.934  27.936 -0.0973 -0.0190 -0.1779
35149W        W78087  33.475  10.128  29.236 -0.2195 -0.1257 -0.0398
35150W        W78088  31.314   8.874  29.895 -0.0469 -0.0479 -0.0759
35151W        W78089  31.686  11.746  30.596 -0.0773  0.3483  0.0163
35152W        W78090  30.344   7.817  27.247 -0.0112 -0.0527  0.1374
35153W        W78091  31.031   8.219  31.667 -0.0029 -0.1261  0.4265
35154W        W78092  30.720   8.763  30.515  0.0156 -0.0616  0.2308
35155W        W78093  28.989   7.520  28.144  0.2124 -0.2626 -0.0763
35156W        W78094  31.950   8.686  30.314 -0.0580 -0.0977 -0.3281
35157W        W78095  31.609   9.004  29.438 -0.3082 -0.0238  0.0354
35158W        W78096  31.619  10.217  29.280  0.0462 -0.0996  0.3452
35159W        W78097  30.746   9.167  30.011 -0.0697  0.1160  0.0514
35160W        W78098  30.726   9.932  31.219 -0.3133 -0.1242 -0.1208
35161W        W78099  30.100   5.106  31.355  0.0424 -0.0783  0.1461
35162W        W78100  33.596   9.308  28.885 -0.1475 -0.0971 -0.0329
35163W        W78101  30.059  11.356  30.935  0.0042  0.2591  0.2356
35164W        W78102  32.335  10.545  28.015 -0.2480  0.2642 -0.1033
35165W        W78103  33.071   7.510  29.770  0.0151 -0.0734 -0.0100
35166W        W78104  32.066   7.200  28.813 -0.0542 -0.1877  0.0160
35167W        W78105  29.148   6.804  31.051  0.1365  0.1570  0.3370
35168W        W78106  30.632   9.259  30.496 -0.2543 -0.1623 -0.0870
35169W        W78107  32.919  11.127  30.881  0.0364  0.0481  0.2024
35170W        W78108  30.657   6.200  30.415 -0.0553  0.0816 -0.3528
35171W        W78109  31.895   6.129  29.156 -0.1267 -0.2857  0.2319
35172W        W78110  31.567   8.413  28.839 -0.3866  0.0152 -0.1580
35173W        W78111  30.392   8.566  29.697 -0.0934 -0.1998 -0.0170
35174W        W78112  32.003   8.165  28.662  0.0951  0.1460  0.4810
35175W        W78113  31.152   9.876  30.956  0.1318  0.2839 -0.0389
35176W        W78114  32.184   9.592  28.869  0.1095 -0.1904 -0.2366
35177W        W78115  32.737   6.776  31.302  0.0332 -0.1378 -0.0164
35178W        W78116  30.811   7.663  28.695 -0.2008  0.0446  0.0067
35179W        W78117  33.572  10.214  27.808  0.1237 -0.0655 -0.2145
35180W        W78118  29.717  11.676  31.700  0.1187  0.1196 -0.1184
35181W        W78119  31.496  10.291  31.695  0.0457  0.0339 -0.1870
35182W        W78120  31.707  10.536  30.953  0.0835 -0.1255  0.1429
35183W        W78121  33.783   9.402  29.824  0.0844  0.1171 -0.1130
35184W        W78122  29.468   7.163  30.165 -0.2423 -0.0118 -0.0103
35185W        W78123  30.466   9.482  29.359  0.0146  0.1361  0.0969
35186W        W78124  30.415   9.499  28.719 -0.0465  0.2587 -0.0162
35187W        W78125  32.618   7.248  28.962  0.0763  0.1259 -0.0407
35188W        W78126  31.713   7.081  29.362 -0.0041 -0.1105  0.3463
35189W        W78127  31.081   7.836  29.128 -0.3824 -0.1067 -0.1174
35190W        W78128  30.217  11.492  30.439  0.2333 -0.1401  0.2791
35191W        W78129  33.244   8.932  30.089 -0.0687 -0.3499 -0.1545
35192W        W78130  32.206   7.986  31.201 -0.4983 -0.0712  0.1548
35193W        W78131  30.912   9.056  31.493  0.1318  0.3120  0.0255
35194W        W78132  32.038   8.271   0.664  0.2354  0.1679 -0.1038
35195W        W78133  29.657  10.675  31.731 -0.1755 -0.0933 -0.1205
35196W        W78134  30.433   9.094   0.452  0.0832 -0.1749 -0.0081
35197W        W78135  29.961  10.451  31.289  0.0223 -0.3149  0.1791
35198W        W78136  30.802   7.987  31.163 -0.2968 -0.0046 -0.0775
35199W        W78137  29.996   8.474  31.664 -0.1843 -0.0503  0.0165
35200W        W78138  33.165   8.326  30.706  0.3860 -0.1444  0.0868
35201W        W78139  33.026  10.952  31.609  0.0078 -0.1125 -0.0018
35202W        W78140  33.369  10.565  31.693  0.0970 -0.0343  0.4130
35203W        W78141  30.525   5.882  31.604 -0.1167 -0.2771 -0.0763
35204W        W78142  32.534   8.176  31.585 -0.0523  0.4701  0.0252
35205W        W78143  29.328  10.847  30.321 -0.0552  0.0342  0.3346
35206W        W78144  32.938   9.914  31.464  0.1889 -0.0498 -0.0166
35207W        W78145  29.084  11.364  30.916  0.0971  0.1345  0.3296
35208W        W78146  29.109   9.788   0.827 -0.1278 -0.2175  0.0674
35209W        W78147  33.653  11.371  31.155 -0.1153 -0.3435  0.2571
35210W        W78148  29.304   6.332   0.013  0.0623  0.1808 -0.4831
35211W        W78149  29.460   9.399   0.666 -0.1203  0.1464 -0.0251
35212W        W78150  30.677   5.365   1.036  0.0396  0.0717 -0.0114
35213W        W78151  30.958  11.120   1.122  0.1582  0.2852  0.0029
35214W        W78152  33.920   6.340   0.625  0.1839  0.0147  0.0052
35215W        W78153  30.507   7.214   0.077 -0.2543  0.1276  0.2037
35216W        W78154  32.702   8.653  31.911  0.1416 -0.0580  0.2874
35217W        W78155  30.067   8.644   0.566 -0.1983  0.0250  0.0490
35218W        W78156  28.849   9.728   0.406 -0.3778 -0.1438  0.1566
35219W        W78157  27.613  11.208  31.593 -0.1242  0.1135  0.0034
35220W        W78158  29.221   9.705  30.292  0.1026  0.1193 -0.2434
35221W        W78159  31.058  10.099   0.019  0.0252 -0.0360 -0.1573
35222W        W78160  29.872   9.034  31.127  0.4252 -0.0268 -0.0468
35223W        W78161  29.432   8.394  30.549 -0.0440  0.0957  0.2471
35224W        W78162  32.991  10.068  30.906  0.3282  0.0526  0.2997
35225W        W78163  31.772   6.906   1.025  0.3713  0.0725  0.0842
35226W        W78164  28.421   8.386   0.683 -0.0539  0.1623 -0.0758
35227W        W78165  28.445   9.429  30.589  0.1750  0.3931  0.3916
35228W        W78166  29.374   9.287  30.549  0.2967  0.0288  0.1907
35229W        W78167  34.457  10.309  31.128  0.0066 -0.2107  0.2419
35230W        W78168  31.162   7.803  31.515  0.2734  0.2431 -0.0915
35231W        W78169  32.940   9.127  31.606 -0.1293  0.0539 -0.3026
35232W        W78170  32.113   7.050   0.021 -0.1072  0.2965  0.1423
35233W        W78171  31.240   8.317   1.137 -0.0762  0.1995 -0.2517
35234W        W78172  31.135   6.971  31.226  0.1180  0.0948 -0.1719
35235W        W78173  30.316  10.042  31.966 -0.0116  0.1489 -0.2094
35236W        W78174  30.176   8.104  31.180 -0.2123 -0.1113 -0.1564
35237W        W78175  30.480   9.050  31.022 -0.2071 -0.4062  0.1399
35238W        W78176  30.593   7.661  31.463 -0.0653  0.0392 -0.3298
35239W        W78177  32.198  10.458  31.103 -0.2223  0.0176 -0.0036
35240W        W78178  32.068   9.310  31.537  0.0619  0.0204  0.0227
35241W        W78179  28.637  10.139  31.703  0.0540  0.1229 -0.0195
35242W        W78180  32.181   9.948  31.299 -0.0074  0.1834  0.5262
35243W        W78181  32.156   7.749  31.654 -0.0750  0.1978  0.0011
35244W        W78182  31.901   7.341  31.569  0.0714 -0.0046  0.2357
35245W        W78183  32.484   8.986  31.361 -0.1242  0.4368 -0.2054
35246W        W78184  30.768   9.469  31.003  0.0608  0.1731  0.1885
35247W        W78185  31.784   7.586  31.974 -0.0451 -0.2292  0.2871
35248W        W78186  31.545  10.503   0.204 -0.0966  0.0021  0.2530
35249W        W78187  29.968   9.691  31.809 -0.0544 -0.0095 -0.0118
35250W        W78188  30.477   9.726  30.653  0.0208 -0.3826 -0.0911
35251W        W78189  30.857   9.276   0.004 -0.4634  0.2509  0.0175
35252W        W78190  30.244   7.646  31.875  0.0477  0.2064  0.3508
35253W        W78191  28.611  10.258  29.987 -0.0289 -0.1156  0.4277
35254W        W78192  30.413   8.188   0.127 -0.1250  0.1505 -0.3316
35255W        W78193  30.073   7.273  30.803 -0.0480  0.0886 -0.1023
35256W        W78194  30.838  10.887  31.321 -0.0169  0.3090 -0.5154
35257W        W78195  32.302  10.037   0.283  0.1151  0.1745  0.2572
35258W        W78196  31.567   9.863  30.621  0.2180  0.1510  0.0613
35259W        W78197  30.302  13.857  19.876  0.1694 -0.0597  0.0014
35260W        W78198  30.284  12.932  17.172  0.0887 -0.3140  0.0884
35261W        W78199  33.143  11.601  16.703  0.0565 -0.0246  0.1412
35262W        W78200  32.975  13.402  18.837  0.5609 -0.0358 -0.3079
35263W        W78201  28.562  10.024  16.535 -0.1063 -0.2092  0.3470
35264W        W78202  32.520  15.201  18.331 -0.0672  0.1750 -0.1489
35265W        W78203  29.525  12.068  18.489  0.2548  0.3471 -0.1375
35266W        W78204  32.017  13.307  17.856  0.0638 -0.2875 -0.2118
35267W        W78205  32.223  14.110  18.593  0.0356  0.0193  0.2224
35268W        W78206  31.633  14.394  16.729  0.1095  0.0108  0.0200
35269W        W78207  29.299  12.569  18.466  0.0139 -0.0182  0.1433
35270W        W78208  29.188  14.701  18.184  0.0915  0.1483 -0.1445
35271W        W78209  32.226  12.075  16.550 -0.1278 -0.3257  0.0083
35272W        W78210  28.813  10.430  18.306  0.0263 -0.4312  0.0115
35273W        W78211  31.694  12.891  17.925  0.1878 -0.2555 -0.2589
35274W        W78212  29.428  12.131  16.109  0.1270  0.2367 -0.2705
35275W        W78213  31.176  10.841  19.472  0.0740  0.0016  0.2545
35276W        W78214  30.600  11.375  18.062 -0.3172 -0.0164  0.0811
35277W        W78215  30.857  15.630  17.016  0.0281  0.1205 -0.0207
35278W        W78216  29.990  12.219  19.028  0.1836  0.3253  0.0039
35279W        W78217  30.810  10.929  20.363 -0.0593  0.2131  0.1220
35280W        W78218  30.877  13.752  16.536  0.2639 -0.3207  0.3876
35281W        W78219  30.173  11.563  16.135 -0.2575 -0.2237  0.0237
35282W        W78220  28.614  11.368  16.964 -0.3290  0.3679  0.1300
35283W        W78221  31.622  12.490  19.158  0.0799 -0.0514  0.1479
35284W        W78222  32.667  11.636  17.488  0.2667 -0.0967 -0.0453
35285W        W78223  30.350  11.667  17.154 -0.3195 -0.0799  0.2174
35286W        W78224  29.793  14.109  18.224 -0.3417  0.1893  0.0526
35287W        W78225  31.608  15.543  18.524 -0.3331  0.0472  0.1586
35288W        W78226  31.060  11.242  18.870  0.0666 -0.0001  0.1062
35289W        W78227  29.993  14.171  17.711  0.0978  0.1863 -0.2345
35290W        W78228  29.455  13.299  17.784  0.0834 -0.1657 -0.1006
35291W        W78229  30.981  14.685  17.267  0.2271  0.2611 -0.0265
35292W        W78230  32.524  12.157  16.186  0.1045  0.1625  0.2319
35293W        W78231  31.937  14.930  19.457  0.2030  0.3822  0.2439
35294W        W78232  31.421  14.109  20.163 -0.0780 -0.1100 -0.0965
35295W        W78233  28.293  14.426  16.612 -0.1426  0.1330 -0.0140
35296W        W78234  32.889  12.264  19.877 -0.0665  0.0151 -0.0483
35297W        W78235  30.786  14.223  17.563 -0.0011 -0.0310  0.1918
35298W        W78236  29.469  14.442  20.050 -0.1987  0.0367  0.0432
35299W        W78237  31.473  12.064  18.113  0.0514 -0.0613  0.1363
35300W        W78238  29.973  14.524  16.574  0.2509  0.0881  0.1763
35301W        W78239  30.296  12.863  17.691  0.0696  0.0217  0.1418
35302W        W78240  30.842  13.965  21.571 -0.2431 -0.1610  0.0536
35303W        W78241  28.803  13.815  18.119 -0.0121 -0.1396 -0.1861
35304W        W78242  30.804  11.827  19.917  0.2741  0.2659 -0.2099
35305W        W78243  29.460  14.677  17.125 -0.0611 -0.0660  0.1116
35306W        W78244  31.928  12.591  15.562 -0.5092  0.0300 -0.2432
35307W        W78245  29.162  13.391  17.283  0.2222 -0.0414 -0.1454
35308W        W78246  32.695  12.130  17.526 -0.1404  0.0692 -0.1935
35309W        W78247  32.053  11.909  17.409 -0.1881 -0.3178  0.2151
35310W        W78248  30.162  13.762  18.052 -0.2187 -0.2525  0.1620
35311W        W78249  29.755  11.396  19.252 -0.0131  0.0821  0.1827
35312W        W78250  31.040  13.603  18.902  0.2178 -0.0420 -0.3156
35313W        W78251  32.106  12.329  17.070 -0.1061 -0.0078  0.0336
35314W        W78252  31.491  12.137  18.800  0.1799 -0.1547 -0.0664
35315W        W78253  29.008  13.872  19.497 -0.1585 -0.2463  0.0326
35316W        W78254  29.401  11.898  17.623 -0.2652  0.1638  0.0400
35317W        W78255  31.991  14.022  16.657  0.3044 -0.1458  0.3175
35318W        W78256  32.262  15.745  17.495 -0.0774  0.0326 -0.0640
35319W        W78257  30.406  13.395  17.717 -0.1505  0.0092  0.2190
35320W        W78258  29.624  12.485  18.136  0.1885  0.0170 -0.0505
35321W        W78259  29.575  13.005  19.351  0.0584  0.0736  0.0056
35322W        W78260  30.051  12.275  19.563  0.2969  0.1338 -0.0580
35323W        W78261  29.435  10.888  15.543 -0.3916 -0.0539  0.0543
35324W        W78262  33.142  13.228  19.323  0.0030  0.1434 -0.2278
35325W        W78263  29.148  13.263  19.409  0.0514  0.0266  0.1489
35326W        W78264  33.496  11.801  17.122 -0.1758 -0.3733 -0.1420
35327W        W78265  29.454  13.654  19.193 -0.0705  0.1746 -0.3204
35328W        W78266  31.787  12.769  18.372 -0.2074  0.0834  0.0253
35329W        W78267  31.132  15.069  16.962 -0.0197  0.0099 -0.0941
35330W        W78268  31.033  10.412  17.555  0.2150 -0.1283  0.2999
35331W        W78269  30.787  12.054  17.537  0.1001  0.0292  0.2859
35332W        W78270  29.512  12.067  16.601  0.0326 -0.3329  0.2586
35333W        W78271  30.612  12.693  16.865 -0.0052 -0.0346 -0.0900
35334W        W78272  32.228  13.046  18.255  0.2861  0.1680 -0.2067
35335W        W78273  33.300  14.503  16.581 -0.0736  0.1403 -0.0832
35336W        W78274  29.359  13.885  17.019  0.3405 -0.0929  0.0158
35337W        W78275  31.047  12.006  18.501 -0.0260 -0.1978  0.1006
35338W        W78276  32.012  11.866  19.465  0.1481 -0.1024  0.1752
35339W        W78277  29.744  14.682  16.151  0.1715  0.0374  0.0776
35340W        W78278  30.214  12.596  18.692 -0.3448  0.1230  0.1565
35341W        W78279  30.020  13.732  17.484  0.0689 -0.2232  0.1022
35342W        W78280  28.101  10.886  19.600  0.2942  0.1293  0.1777
35343W        W78281  32.030  14.364  18.198  0.0166  0.2558 -0.1416
35344W        W78282  32.076  11.685  15.935  0.0733  0.2794 -0.2978
35345W        W78283  28.973  10.391  16.394 -0.1695 -0.3796  0.0691
35346W        W78284  32.417  10.873  17.902 -0.0956 -0.1470 -0.0593
35347W        W78285  29.738  12.373  16.906  0.1377  0.2158  0.0820
35348W        W78286  33.393  14.656  18.360  0.1625 -0.2646 -0.0449
35349W        W78287  33.343  12.014  16.549 -0.2312 -0.0078 -0.2426
35350W        W78288  32.253  13.613  17.477  0.2939 -0.1119  0.0592
35351W        W78289  27.199  11.573  19.076  0.1928  0.0126 -0.0047
35352W        W78290  30.662  10.699  16.620 -0.2922  0.1209 -0.1434
35353W        W78291  29.751  12.031  17.928  0.0457 -0.3580  0.0694
35354W        W78292  28.864  11.137  18.608  0.1421  0.0737 -0.0007
35355W        W78293  32.649  11.295  20.142  0.3396  0.0071  0.1578
35356W        W78294  30.143  11.717  18.128  0.1964 -0.2606 -0.0941
35357W        W78295  33.004  11.953  16.144  0.2872 -0.2591 -0.1227
35358W        W78296  29.429  11.221  17.641  0.2929  0.0219 -0.1429
35359W        W78297  28.611  13.331  17.822  0.1244 -0.0257  0.1247
35360W        W78298  30.394  11.682  20.834  0.0710  0.2767 -0.2080
35361W        W78299  33.042  14.215  16.914  0.1629  0.0080 -0.2324
35362W        W78300  32.480  13.513  19.123  0.1421  0.0091  0.2216
35363W        W78301  32.512  14.954  17.483 -0.1726  0.0104 -0.1769
35364W        W78302  29.977  11.928  18.589 -0.2342 -0.0406 -0.1414
35365W        W78303  30.322  11.671  16.606  0.0150 -0.0995 -0.1995
35366W        W78304  30.003  15.255  17.288 -0.2828  0.3013  0.2786
35367W        W78305  29.192  12.767  18.018 -0.1779  0.0070  0.0450
35368W        W78306  31.042  11.916  16.593  0.0772  0.3259  0.2423
35369W        W78307  33.877  14.681  18.570 -0.0443 -0.1605 -0.0345
35370W        W78308  31.159  13.034  17.118 -0.1012 -0.2183  0.0260
35371W        W78309  29.817  12.692  17.307  0.1291  0.2173  0.0356
35372W        W78310  31.108  10.796  19.926 -0.1707  0.2555  0.0205
35373W        W78311  32.700  11.031  19.072  0.0649 -0.2692  0.3374
35374W        W78312  30.718  12.030  17.029  0.1018 -0.3893  0.1958
35375W        W78313  29.460  11.642  16.261  0.1718  0.0894 -0.0985
35376W        W78314  32.261  14.964  18.680  0.0199  0.0662 -0.3054
35377W        W78315  29.133  13.919  16.479  0.0264  0.0507 -0.0477
35378W        W78316  28.981  11.885  16.243  0.0387 -0.2553 -0.2785
35379W        W78317  31.282  13.495  17.203 -0.2313 -0.2172 -0.1635
35380W        W78318  31.947  11.314  18.551 -0.3695 -0.4095 -0.0966
35381W        W78319  28.778  10.943  20.441 -0.0421 -0.1144 -0.0175
35382W        W78320  30.481  10.634  19.126 -0.0508 -0.3019  0.2584
35383W        W78321  31.530  12.667  16.984 -0.0388 -0.0716  0.1322
35384W        W78322  29.500  14.083  19.510 -0.1507  0.0758  0.1522
35385W        W78323  32.420  12.472  16.757 -0.1816  0.0220  0.4061
35386W        W78324  31.322  11.875  15.526  0.0510  0.1549  0.1034
35387W        W78325  29.995  13.255  19.401  0.3249 -0.2024  0.1024
35388W        W78326  32.699  12.643  17.610 -0.0607  0.1382 -0.0997
35389W        W78327  31.304  11.023  16.077  0.1260  0.2740 -0.0891
35390W        W78328  32.169  12.667  16.358 -0.3603  0.2408  0.1030
35391W        W78329  28.040  12.539  18.665  0.0239  0.0324  0.2699
35392W        W78330  30.634  12.490  17.403 -0.0002 -0.0836 -0.0436
35393W        W78331  30.671  13.118  18.040  0.0180 -0.2615  0.1970
35394W        W78332  30.190  11.037  15.959  0.0996 -0.2678  0.0003
35395W        W78333  33.613  13.896  17.518 -0.1729  0.0416 -0.3074
35396W        W78334  28.984  14.097  18.616 -0.2637  0.0600 -0.1991
35397W        W78335  32.751  12.755  18.571 -0.1000 -0.0115 -0.0506
35398W        W78336  31.044  12.366  16.766  0.0045 -0.0240 -0.1998
35399W        W78337  29.461  12.234  18.990  0.0055 -0.0558 -0.2028
35400W        W78338  31.622  11.121  16.492  0.1426 -0.0730 -0.3092
35401W        W78339  31.039  10.273  18.431  0.2349  0.0386 -0.1305
35402W        W78340  28.982  14.263  16.803  0.3797 -0.2226 -0.0710
35403W        W78341  31.856  11.733  18.993  0.1739 -0.0938  0.1682
35404W        W78342  32.575  11.946  18.348 -0.2270 -0.3071  0.0939
35405W        W78343  29.712  11.606  18.305  0.1662  0.1061  0.3333
35406W        W78344  33.673  12.632  18.688  0.0674  0.1446  0.0053
35407W        W78345  32.533  13.372  17.115 -0.2941  0.0427 -0.0392
35408W        W78346  31.721  13.835  18.507 -0.0588 -0.0089 -0.1210
35409W        W78347  29.963  11.951  16.853 -0.0656  0.1431  0.2708
35410W        W78348  31.675  10.634  19.621  0.1301  0.0205  0.0548
35411W        W78349  29.886  11.624  17.262 -0.0920 -0.0435  0.2324
35412W        W78350  30.092  15.016  19.111  0.1791  0.0485 -0.1674
35413W        W78351  31.971  12.445  18.800  0.0913 -0.0314  0.0557
35414W        W78352  33.118  10.652  19.057  0.1598 -0.2158 -0.2304
35415W        W78353  30.732  12.978  21.474 -0.0751 -0.2991 -0.1020
35416W        W78354  31.531  12.392  15.936 -0.0846 -0.0972  0.1373
35417W        W78355  30.245  14.115  16.721  0.0053 -0.3726 -0.0028
35418W        W78356  28.932  12.999  17.597 -0.0103 -0.2477 -0.1074
35419W        W78357  29.326  10.723  17.229 -0.1504  0.1915  0.1429
35420W        W78358  31.297  12.956  19.441 -0.0492 -0.1454 -0.2493
35421W        W78359  29.905  13.808  16.958 -0.2246 -0.2773 -0.1381
35422W        W78360  32.671  12.466  19.001 -0.0131 -0.2656 -0.1395
35423W        W78361  30.434  14.164  17.910  0.0117  0.3455  0.1868
35424W        W78362  32.027  10.369  20.126  0.0641 -0.3384  0.3330
35425W        W78363  30.379  14.577  17.447  0.0920  0.0170 -0.2063
35426W        W78364  29.434  11.786  16.998  0.0542 -0.0316 -0.2332
35427W        W78365  29.809  11.128  17.979  0.0358  0.0541  0.0741
35428W        W78366  31.706  12.167  16.773 -0.1080  0.0250 -0.0218
35429W        W78367  32.751  13.935  16.598 -0.1919 -0.0330  0.2451
35430W        W78368  29.465  11.516  19.725  0.0173  0.1298  0.1213
35431W        W78369  30.971  11.486  18.430  0.0391 -0.1447 -0.1665
35432W        W78370  27.830  14.080  18.233 -0.2049  0.0591  0.0095
35433W        W78371  32.365  10.581  18.775  0.1670 -0.0777  0.0348
35434W        W78372  32.367  11.147  16.438 -0.3207  0.1515  0.2784
35435W        W78373  32.532  13.261  18.570  0.1946  0.1375 -0.3790
35436W        W78374  31.125  13.225  20.782 -0.0290 -0.0828 -0.1460
35437W        W78375  29.541  11.293  17.160  0.1490  0.1276 -0.1773
35438W        W78376  32.484  10.417  20.013  0.2160  0.1741 -0.5116
35439W        W78377  29.717  10.783  18.393  0.2675  0.2293  0.1075
35440W        W78378  29.679  14.528  17.985 -0.1697 -0.2496  0.3214
35441W        W78379  31.717  13.397  19.183  0.0498  0.0394  0.4319
35442W        W78380  30.707  13.193  17.330  0.2732 -0.0959 -0.0650
35443W        W78381  29.469  12.477  17.586 -0.1038 -0.0973  0.0132
35444W        W78382  29.263  13.033  20.540 -0.0781  0.3319 -0.1673
35445W        W78383  31.846  11.754  18.239 -0.0472 -0.2392 -0.3609
35446W        W78384  29.985  12.492  17.764 -0.2833 -0.1484  0.0369
35447W        W78385  31.050  11.520  15.797 -0.1291  0.0927 -0.0979
35448W        W78386  30.847  12.334  18.164  0.1811  0.0842 -0.1572
35449W        W78387  30.914  13.365  18.430  0.1156 -0.0174  0.0382
35450W        W78388  30.510  12.674  18.274  0.1692  0.4111 -0.0429
35451W        W78389  29.291  13.267  18.886 -0.1864 -0.0817 -0.2260
35452W        W78390  31.802  12.256  17.789 -0.0168 -0.0645 -0.1068
35453W        W78391  34.390  13.867  19.074  0.2016  0.0555  0.1965
35454W        W78392  32.085  12.541  18.069  0.1568  0.0747  0.0570
35455W        W78393  28.993  11.989  17.322 -0.0619 -0.0568  0.1841
35456W        W78394  29.123  11.558  17.271 -0.1364 -0.0155  0.0750
35457W        W78395  30.931  13.520  17.576 -0.0498  0.1810  0.0505
35458W        W78396  30.035  10.597  19.741  0.0721 -0.1657  0.0411
35459W        W78397  30.312  13.444  17.123  0.2904 -0.0742 -0.1273
35460W        W78398  30.004  13.297  16.742 -0.3238 -0.0912  0.3199
35461W        W78399  29.368  14.280  18.392 -0.1066 -0.2251 -0.2276
35462W        W78400  32.348  10.968  16.924  0.2083 -0.1576  0.2223
35463W        W78401  31.630  13.166  16.909  0.0711 -0.4455  0.3478
35464W        W78402  31.051  11.212  17.955  0.0500  0.1506 -0.2203
35465W        W78403  30.859  11.228  21.481  0.1383 -0.4452  0.1653
35466W        W78404  31.978  12.812  16.880 -0.0133 -0.1167  0.0003
35467W        W78405  31.318  10.669  20.348  0.0511 -0.3920  0.1709
35468W        W78406  28.929  11.232  17.634  0.1825  0.0264 -0.0652
35469W        W78407  31.664  13.096  17.404 -0.1893 -0.0983 -0.0028
35470W        W78408  28.750  10.228  17.827  0.0051  0.2841  0.3868
35471W        W78409  32.246  14.671  19.902  0.0855  0.1092 -0.2797
35472W        W78410  31.452  12.881  20.480 -0.1822  0.1998  0.1400
35473W        W78411  32.516  11.518  16.769 -0.0717  0.1301  0.0791
35474W        W78412  30.058  10.702  17.656  0.1045 -0.1634  0.0373
35475W        W78413  30.518  13.397  18.799  0.0688 -0.0236 -0.1378
35476W        W78414  33.242  11.281  17.899  0.2287  0.1035 -0.1649
35477W        W78415  30.534  12.973  16.401 -0.1311 -0.3795 -0.0579
35478W        W78416  31.992  11.152  17.480  0.3288  0.2618 -0.0392
35479W        W78417  29.925  13.758  19.499 -0.1526  0.3091 -0.0470
35480W        W78418  32.767  12.424  17.116  0.0965  0.5503  0.0816
35481W        W78419  31.599  12.939  18.999  0.1534  0.3404  0.1762
35482W        W78420  29.684  12.857  17.817 -0.0899 -0.1656  0.0961
35483W        W78421  29.065  11.953  18.850  0.0040  0.0341  0.2174
35484W        W78422  30.965  11.505  17.479 -0.2106  0.0065  0.1858
35485W        W78423  30.467  11.573  18.586 -0.2525  0.1409 -0.0248
35486W        W78424  31.209  11.722  18.956 -0.0415 -0.0693 -0.0767
35487W        W78425  29.947  13.225  17.939  0.1734 -0.2317 -0.0658
35488W        W78426  30.391  12.076  19.948 -0.1066 -0.0693 -0.2546
35489W        W78427  30.417  10.400  20.082  0.0786 -0.1098 -0.1003
35490W        W78428  31.817  14.477  19.291 -0.1990 -0.0559  0.0567
35491W        W78429  33.173  11.131  15.949 -0.0383  0.1265 -0.1101
35492W        W78430  31.542  11.209  18.861  0.2160  0.2417  0.0385
35493W        W78431  33.547  11.635  18.569  0.1253 -0.0261 -0.0199
35494W        W78432  30.191  12.639  16.159  0.0905  0.2629 -0.0349
35495W        W78433  30.453  11.535  17.621 -0.1830 -0.0057  0.1204
35496W        W78434  31.823  12.214  18.396  0.2106  0.2459  0.4143
35497W        W78435  30.120  10.565  16.334 -0.0271  0.4416  0.0243
35498W        W78436  30.402  11.963  19.416 -0.0137  0.1796  0.3955
35499W        W78437  31.963  13.598  16.259 -0.0948 -0.3573  0.0079
35500W        W78438  31.331  13.027  18.500  0.1145  0.3226 -0.4370
35501W        W78439  31.161  12.297  17.761  0.0157  0.0779 -0.3625
35502W        W78440  29.212   9.324  17.299 -0.0491 -0.1217 -0.0690
35503W        W78441  28.957  14.535  20.101  0.1243  0.1853  0.0997
35504W        W78442  32.345  11.857  17.891  0.0648 -0.1069  0.1771
35505W        W78443  31.836  11.593  16.362  0.3510 -0.3626 -0.0394
35506W        W78444  31.270  13.658  18.243 -0.1103  0.1288  0.0891
35507W        W78445  32.317  11.689  19.779 -0.3239  0.2935 -0.2219
35508W        W78446  31.954  10.353  18.814  0.0397  0.1635  0.1758
35509W        W78447  30.977  12.236  19.055 -0.1499  0.1978 -0.0997
35510W        W78448  29.537  13.340  16.930 -0.0179  0.0529  0.0487
35511W        W78449  31.180  11.943  17.154 -0.1036  0.2707 -0.0164
35512W        W78450  29.777  13.950  19.072 -0.0126 -0.1039  0.3251
35513W        W78451  28.595  13.777  18.659 -0.0056  0.0874 -0.2740
35514W        W78452  29.106  12.222  18.006 -0.0826  0.1036 -0.1708
35515W        W78453  31.213  12.539  18.666  0.1701 -0.0613 -0.1572
35516W        W78454  32.490  10.796  17.394  0.1419  0.0616 -0.0763
35517W        W78455  30.708  13.745  18.004  0.1562  0.0839  0.0762
35518W        W78456  33.544  11.390  17.501  0.3020 -0.2150 -0.0015
35519W        W78457  31.220  12.411  19.457 -0.0822  0.2239  0.2859
35520W        W78458  30.735  12.948  18.657  0.0431  0.1196 -0.2779
35521W        W78459  29.815  13.420  18.880 -0.3604  0.4023  0.1608
35522W        W78460  32.717  13.704  17.589 -0.1977  0.0753 -0.2182
35523W        W78461  29.783  14.247  18.694  0.2933 -0.1111  0.0626
35524W        W78462  29.868  12.955  18.909  0.0923  0.0045 -0.1146
35525W        W78463  31.465  13.030  19.965 -0.2111 -0.0805  0.1600
35526W        W78464  31.543  14.163  18.087  0.0060 -0.0717  0.0095
35527W        W78465  30.837  11.465  16.665  0.3439  0.1174  0.1391
35528W        W78466  30.949  13.242  16.228 -0.3151  0.0152  0.1592
35529W        W78467  29.099  12.896  21.058 -0.0143  0.0702 -0.2376
35530W        W78468  27.206  11.772  18.576 -0.0619 -0.0265 -0.1141
35531W        W78469  30.261  14.144  17.254 -0.0848 -0.0396 -0.4217
35532W        W78470  31.847  12.749  16.025 -0.1660  0.0390  0.2518
35533W        W78471  33.038  12.386  16.391  0.0078  0.1148 -0.0252
35534W        W78472  31.799  15.347  17.415 -0.2105  0.1159  0.0040
35535W        W78473  30.236  12.320  17.134 -0.3303  0.0452  0.1713
35536W        W78474  28.601  13.401  18.376  0.3025 -0.1716  0.1588
35537W        W78475  29.800  13.191  17.409  0.1563 -0.2252  0.2357
35538W        W78476  32.269  13.914  17.049 -0.1414 -0.2467 -0.3352
35539W        W78477  30.698  13.830  18.526  0.0842  0.2098  0.3536
35540W        W78478  31.997  13.725  18.894  0.0446  0.1565  0.0277
35541W        W78479  31.854  10.594  15.279  0.0821 -0.0255  0.0673
35542W        W78480  32.241  12.884  17.752 -0.0854 -0.0771 -0.0612
35543W        W78481  33.068  11.840  18.468  0.2860  0.2933 -0.1374
35544W        W78482  33.663  13.612  19.879  0.3716  0.0553  0.0529
35545W        W78483  30.479  12.076  18.413  0.0784  0.1905 -0.0800
35546W        W78484  30.532  10.718  15.599 -0.1313 -0.2403  0.1946
35547W        W78485  30.613  12.899  19.533  0.1045 -0.0500  0.1490
35548W        W78486  32.536  11.248  19.655  0.2670 -0.0993 -0.2178
35549W        W78487  30.048  13.235  18.499  0.2096  0.4132  0.0627
35550W        W78488  33.205  14.571  17.211  0.1045  0.0628 -0.1311
35551W        W78489  31.250  11.483  16.305 -0.3073  0.1558 -0.1793
35552W        W78490  30.799  12.277  20.194 -0.0412 -0.2867  0.3425
35553W        W78491  31.681  10.482  21.162 -0.4041  0.3239  0.2726
35554W        W78492  31.224  13.897  17.774 -0.0755  0.3809  0.3783
35555W        W78493  30.496  10.584  18.500  0.0554 -0.1348  0.3041
35556W        W78494  29.528  14.259  16.598 -0.1008  0.0334 -0.0594
35557W        W78495  30.056  15.637  16.931 -0.0495  0.0318  0.1050
35558W        W78496  30.444  13.460  18.300  0.2435 -0.1937  0.0255
35559W        W78497  29.783  11.581  17.765  0.0865  0.2729  0.1177
35560W        W78498  32.235  11.219  19.037 -0.0408  0.1482  0.1750
35561W        W78499  30.153  13.727  18.701  0.2170 -0.1811  0.1319
35562W        W78500  31.296  11.641  19.864 -0.2896  0.1489  0.2317
35563W        W78501  31.179  13.170  18.023 -0.1401 -0.0948 -0.1142
35564W        W78502  30.744  11.203  17.105  0.1622 -0.0104 -0.0256
35565W        W78503  30.854  12.738  17.790  0.2266  0.1281 -0.0311
35566W        W78504  28.788  13.014  19.583 -0.2816  0.1970 -0.1030
35567W        W78505  31.945  12.178  16.162 -0.1038  0.2678 -0.1942
35568W        W78506  33.256  12.660  18.360 -0.1887  0.0253  0.0158
35569W        W78507  31.976  11.740  16.876  0.1679 -0.2757 -0.0631
35570W        W78508  32.338  15.971  20.386 -0.0069  0.3578  0.0620
35571W        W78509  30.077  11.227  17.557  0.1698  0.4000  0.1369
35572W        W78510  30.765  11.117  16.192  0.1652  0.4049  0.1356
35573W        W78511  29.294  11.537  18.038  0.1598  0.0179  0.2220
35574W        W78512  31.945  13.212  18.738 -0.0550  0.1037  0.2219
35575W        W78513  31.772  14.907  20.357  0.1605  0.2776  0.0298
35576W        W78514  30.532  10.515  17.636  0.0705  0.3120 -0.1125
35577W        W78515  31.942  13.110  16.472 -0.1275 -0.2967 -0.3274
35578W        W78516  32.833  10.813  19.509 -0.0618 -0.0758 -0.1117
35579W        W78517  30.767  13.233  16.818 -0.0392 -0.1464  0.0635
35580W        W78518  31.077  12.455  17.215  0.0496  0.0392 -0.1447
35581W        W78519  33.285  15.101  19.405 -0.0173  0.0086  0.2632
35582W        W78520  29.162  11.610  18.538  0.1596  0.1715 -0.0898
35583W        W78521  32.638  14.930  17.969  0.0912  0.0733  0.1485
35584W        W78522  33.768  14.928  19.546 -0.0027  0.2424  0.1191
35585W        W78523  31.894  11.192  16.924  0.0914 -0.0644  0.1284
35586W        W78524  28.985  12.394  19.068 -0.1024 -0.3146  0.0248
35587W        W78525  27.798  14.310  17.605 -0.0505  0.3294  0.0045
35588W        W78526  31.070  11.813  18.039  0.0950 -0.0276  0.2757
35589W        W78527  33.210  11.042  18.811  0.1417 -0.0523 -0.0991
35590W        W78528  30.467  12.293  16.543 -0.5233  0.2524 -0.0433
35591W        W78529  30.839   9.909  19.771 -0.0926  0.1539 -0.2313
35592W        W78530  31.026  14.200  18.662 -0.1645 -0.0797 -0.3390
35593W        W78531  29.476  13.835  18.648  0.0574 -0.1529  0.1572
35594W        W78532  29.759  12.098  17.345  0.2686 -0.2356  0.1596
35595W        W78533  30.411  13.067  20.547 -0.4384  0.0718  0.1552
35596W        W78534  31.452  13.422  17.711 -0.2588 -0.0937  0.1878
35597W        W78535  31.344  12.761  17.507  0.0136  0.0195  0.0693
35598W        W78536  32.251  13.947  17.885 -0.1118 -0.2052  0.2499
35599W        W78537  30.115  12.354  18.264 -0.3120 -0.1157 -0.2333
35600W        W78538  32.105  13.116  17.242 -0.0817 -0.0279 -0.2130
35601W        W78539  29.872  11.413  18.738  0.1206  0.0620  0.3367
35602W        W78540  32.681  11.197  17.192 -0.1228  0.2031  0.0219
35603W        W78541  31.989  10.725  17.201  0.2561  0.2525 -0.2520
35604W        W78542  30.390  13.405  19.662 -0.0582 -0.2848 -0.0317
35605W        W78543  29.241  12.476  17.102  0.2240  0.1672 -0.2351
35606W        W78544  29.133  11.364  15.489  0.3001 -0.1408  0.1590
35607W        W78545  29.999  12.811  18.262 -0.2217  0.2934  0.1439
35608W        W78546  31.488  11.131  19.866  0.2907 -0.1309 -0.0864
35609W        W78547  29.656  11.969  19.343  0.0685 -0.1982  0.0326
35610W        W78548  29.742  12.529  18.697  0.1115  0.0199 -0.1189
35611W        W78549  29.308  11.187  16.398  0.0672 -0.0139 -0.0991
35612W        W78550  32.653  14.965  19.412  0.1516 -0.0606  0.0400
35613W        W78551  29.473  10.724  17.737 -0.0959  0.1906 -0.0686
35614W        W78552  28.286  11.255  16.060 -0.3427  0.1855 -0.2895
35615W        W78553  32.499  14.122  17.454 -0.2435  0.3018  0.0816
35616W        W78554  31.686  13.292  18.266  0.0812 -0.2409 -0.0598
35617W        W78555  31.893  11.175  16.088  0.1832  0.3679  0.1061
35618W        W78556  33.427  12.492  19.802 -0.0622  0.3218  0.2047
35619W        W78557  29.122  12.940  16.975  0.0824 -0.1570  0.2039
35620W        W78558  29.918  13.480  21.276 -0.0677  0.4140 -0.0353
35621W        W78559  30.438  11.983  20.437 -0.0668  0.2531  0.4397
35622W        W78560  29.801  11.732  15.864  0.0185 -0.1303 -0.0986
35623W        W78561  30.581  11.859  18.001  0.0823 -0.2231 -0.0276
35624W        W78562  32.169  14.830  18.047 -0.1022 -0.4544 -0.0383
35625W        W78563  31.680  13.640  16.770 -0.2609  0.1612 -0.1579
35626W        W78564  30.530  13.824  17.492  0.0055  0.0460  0.1460
35627W        W78565  31.987  14.346  20.173  0.2963 -0.1459 -0.3657
35628W        W78566  28.363  11.299  17.999  0.3242  0.1690  0.4329
35629W        W78567  32.553  12.320  17.970  0.0501 -0.0851  0.2025
35630W        W78568  30.301  14.093  21.914  0.1342  0.1243 -0.3069
35631W        W78569  32.115  14.459  17.102 -0.0070  0.2996  0.0740
35632W        W78570  33.140  11.719  17.590  0.0570  0.1145 -0.0397
35633W        W78571  31.607  12.157  17.278 -0.1137 -0.1999 -0.0183
35634W        W78572  29.896  11.221  19.948 -0.1662  0.3090 -0.2356
35635W        W78573  29.541  13.731  20.164 -0.2812 -0.0619  0.0638
35636W        W78574  32.448  14.410  17.929  0.0178  0.1386  0.1331
35637W        W78575  32.754  10.924  18.582  0.0643 -0.0176 -0.0623
35638W        W78576  32.269  11.488  17.249  0.3082 -0.0674 -0.1832
35639W        W78577  31.457  13.439  18.686 -0.1657 -0.1136 -0.2189
35640W        W78578  28.958  10.734  17.604 -0.0102  0.4084 -0.1650
35641W        W78579  31.882  12.616  17.413  0.3553  0.2868 -0.2482
35642W        W78580  31.445  11.969  16.370 -0.0804  0.0316 -0.0548
35643W        W78581  30.698  14.465  18.406  0.1974 -0.0735 -0.0037
35644W        W78582  32.907  12.308  18.416 -0.0409  0.0357  0.0532
35645W        W78583  30.663  11.052  17.626  0.0232 -0.2211  0.1129
35646W        W78584  32.313  12.789  15.835 -0.5436  0.0360 -0.0799
35647W        W78585  31.483  13.812  19.003 -0.1701 -0.0806  0.1754
35648W        W78586  32.153  15.262  19.731  0.1549 -0.0792  0.0838
35649W        W78587  29.906  13.481  19.884  0.2013  0.2517 -0.1268
35650W        W78588  30.435  12.344  17.844  0.3256  0.1169  0.2781
35651W        W78589  30.108  10.303  18.738  0.0867 -0.0320 -0.4256
35652W        W78590  29.760  13.580  18.285  0.1756  0.3369 -0.1047
35653W        W78591  31.466  11.743  16.795  0.0304  0.0204  0.1071
35654W        W78592  30.121  10.849  18.747  0.2667  0.1526 -0.0200
35655W        W78593  31.915  11.055  18.003  0.3925 -0.0045  0.0215
35656W        W78594  32.558  10.519  16.974 -0.0930  0.1282  0.2856
35657W        W78595  30.106  15.051  19.646 -0.3381  0.2231 -0.0141
35658W        W78596  32.357  12.324  18.522 -0.2192  0.2417 -0.0190
35659W        W78597  29.973  14.316  22.948 -0.0127  0.1072  0.2126
35660W        W78598  29.854  10.963  20.598  0.1426  0.3591 -0.4072
35661W        W78599  33.193  12.846  18.875 -0.1200  0.1164 -0.1089
35662W        W78600  31.750  14.435  20.565  0.1373  0.3115 -0.0302
35663W        W78601  28.464  11.252  19.701 -0.0637  0.1410 -0.1765
35664W        W78602  31.719  14.130  21.559 -0.2772  0.3229 -0.0099
35665W        W78603  30.503  11.361  23.209 -0.1196 -0.2541  0.0577
35666W        W78604  30.495  13.842  21.199  0.1523  0.4398 -0.0079
35667W        W78605  33.493  12.549  24.060 -0.2009 -0.1145  0.2965
35668W        W78606  31.402  13.313  21.652 -0.2553 -0.3018 -0.1569
35669W        W78607  29.475  11.238  21.920  0.0588 -0.1626  0.0276
35670W        W78608  30.339  13.840  22.389 -0.1738  0.3339  0.1495
35671W        W78609  30.366  10.241  19.499 -0.0345 -0.1121  0.1380
35672W        W78610  29.084  11.729  23.520 -0.2225 -0.0180  0.0230
35673W        W78611  31.353  12.509  22.514 -0.0965 -0.0541 -0.0976
35674W        W78612  28.416  13.344  21.216  0.2008 -0.0483 -0.2227
35675W        W78613  30.839  11.744  22.923  0.1997 -0.2747  0.2662
35676W        W78614  29.181  11.892  20.052  0.3454 -0.0513  0.0044
35677W        W78615  31.267  15.546  22.555  0.2063 -0.1291  0.1107
35678W        W78616  30.741  11.006  23.529 -0.1611 -0.2047 -0.0001
35679W        W78617  31.311  11.220  23.077 -0.2923 -0.0323 -0.2927
35680W        W78618  31.320  14.076  20.750 -0.2395 -0.1225  0.0043
35681W        W78619  29.108  12.373  20.101  0.0194  0.0126  0.1045
35682W        W78620  29.591  10.851  22.249  0.1479 -0.0997  0.0153
35683W        W78621  30.416  13.895  23.900  0.0049 -0.1804 -0.5006
35684W        W78622  32.406  10.805  22.342 -0.0771 -0.2748 -0.0241
35685W        W78623  32.456  12.249  21.502 -0.1216  0.1001  0.0089
35686W        W78624  31.197  14.251  21.856  0.1368  0.0187 -0.0997
35687W        W78625  32.437  13.492  21.825 -0.1477  0.1981  0.0217
35688W        W78626  32.091  12.146  23.307  0.0298  0.5033  0.1492
35689W        W78627  29.089  12.768  21.625 -0.1648 -0.0396 -0.3416
35690W        W78628  28.662  14.682  20.902 -0.1449 -0.1760 -0.3440
35691W        W78629  30.247  13.232  22.380  0.0537  0.1580  0.1262
35692W        W78630  31.718  13.632  22.003 -0.3829  0.1852 -0.0823
35693W        W78631  33.086  12.783  23.755  0.0438 -0.1084  0.2014
35694W        W78632  28.990  14.863  25.546 -0.1161 -0.0737  0.0177
35695W        W78633  29.354  13.266  21.651  0.1653  0.0157 -0.2577
35696W        W78634  29.171  14.368  23.713 -0.0540 -0.0709 -0.2221
35697W        W78635  29.465  13.448  22.914  0.4276 -0.0544  0.2648
35698W        W78636  30.864  12.466  22.453 -0.2132  0.4162  0.2551
35699W        W78637  30.401  12.765  20.953 -0.0018 -0.0144  0.1174
35700W        W78638  31.111  13.108  18.947  0.1275 -0.4492  0.2473
35701W        W78639  31.180  12.299  20.568  0.0041  0.1003 -0.0561
35702W        W78640  30.483  12.706  24.185 -0.2471 -0.1474  0.1566
35703W        W78641  29.607  13.723  21.664  0.1056  0.2451  0.2342
35704W        W78642  32.803  11.176  23.531 -0.0528 -0.1617  0.0656
35705W        W78643  29.578  14.267  20.954 -0.1269  0.2962 -0.0316
35706W        W78644  30.911  12.799  20.512 -0.2726  0.2574  0.2937
35707W        W78645  29.971  12.772  20.597  0.0988  0.0284  0.0513
35708W        W78646  32.664  12.488  20.632 -0.0520  0.0810 -0.0657
35709W        W78647  30.854  11.659  21.867 -0.1094  0.1701 -0.0224
35710W        W78648  30.072  14.012  23.464  0.1546  0.2490  0.0754
35711W        W78649  29.808  11.977  22.007 -0.0945 -0.0435  0.2235
35712W        W78650  31.936  11.532  22.066  0.1474 -0.0384 -0.1032
35713W        W78651  31.258  13.050  21.223  0.2044 -0.0647  0.0553
35714W        W78652  28.993  11.738  22.587  0.2037 -0.1013 -0.1989
35715W        W78653  30.269  12.290  24.424 -0.1707 -0.2236 -0.1936
35716W        W78654  29.399  12.215  20.465  0.8642  0.0772  0.1432
35717W        W78655  33.205  13.855  18.971  0.3126 -0.1732 -0.0234
35718W        W78656  32.201  12.159  19.125  0.3847  0.0037  0.4308
35719W        W78657  30.577  13.961  18.979  0.0549  0.0172 -0.1054
35720W        W78658  29.422  12.572  21.329 -0.4350 -0.1277 -0.2029
35721W        W78659  30.028  12.718  23.015  0.0509  0.0599 -0.2263
35722W        W78660  30.395  12.333  23.858  0.1909  0.2162 -0.0181
35723W        W78661  29.941  11.798  19.695  0.2628  0.2476 -0.2150
35724W        W78662  31.513  12.681  23.923  0.1121  0.0939  0.1352
35725W        W78663  28.715  12.806  23.739  0.1530 -0.1218  0.0129
35726W        W78664  32.950  11.015  21.476  0.0246 -0.2348  0.0625
35727W        W78665  29.798  13.607  22.519 -0.2529  0.0437  0.0473
35728W        W78666  31.822  12.688  20.831  0.0242 -0.0074  0.1179
35729W        W78667  30.987  12.777  18.282 -0.1836  0.1540  0.2575
35730W        W78668  31.857  12.361  22.562 -0.1881  0.2859 -0.2611
35731W        W78669  32.611  11.514  23.234  0.0921  0.2588  0.2717
35732W        W78670  29.494  13.134  18.280 -0.1165 -0.0553 -0.0952
35733W        W78671  29.167  14.142  21.832 -0.1197 -0.0558 -0.0733
35734W        W78672  32.487  13.607  23.707 -0.1283 -0.1964 -0.1716
35735W        W78673  31.996  12.402  19.470 -0.0696  0.2387  0.0055
35736W        W78674  31.260  14.283  22.372  0.0785  0.2156 -0.1023
35737W        W78675  31.483  11.160  25.270  0.0624 -0.1605 -0.1630
35738W        W78676  30.690  13.011  22.557 -0.1420  0.0616 -0.3652
35739W        W78677  29.460  14.599  19.467  0.0154 -0.0040  0.2762
35740W        W78678  28.685  12.164  21.483  0.0108 -0.1590 -0.0631
35741W        W78679  29.403  12.176  20.941  0.0091  0.3640 -0.1053
35742W        W78680  30.073  10.490  23.116  0.2487 -0.0718 -0.0376
35743W        W78681  31.784  14.220  22.233  0.0647 -0.0585  0.1319
35744W        W78682  31.753  10.190  23.219  0.0999 -0.0941  0.0229
35745W        W78683  29.505  12.942  24.165 -0.2357  0.1653 -0.3299
35746W        W78684  32.083  11.800  21.296 -0.2272  0.1742 -0.0977
35747W        W78685  29.256  11.730  20.608 -0.0057 -0.0805  0.0656
35748W        W78686  32.875  14.834  21.398 -0.0083  0.2374  0.1640
35749W        W78687  31.247  11.034  20.793 -0.0574  0.1997 -0.0310
35750W        W78688  33.325  12.117  19.438  0.2910  0.1748  0.0383
35751W        W78689  29.349  11.322  23.503  0.2162  0.1572  0.0611
35752W        W78690  30.827  12.065  22.143  0.0055  0.2018 -0.0419
35753W        W78691  30.819  12.198  23.586  0.0892  0.3145  0.0573
35754W        W78692  29.552  11.024  23.059 -0.0229  0.0282  0.6860
35755W        W78693  31.028  13.359  22.726 -0.1679  0.1693  0.1993
35756W        W78694  29.478  11.197  18.411  0.1063 -0.1112  0.2787
35757W        W78695  32.159  12.295  20.522 -0.2182 -0.1340  0.0642
35758W        W78696  31.097  11.659  21.320 -0.0673  0.4968 -0.1831
35759W        W78697  30.146  14.261  20.792 -0.0217  0.1207  0.0906
35760W        W78698  32.129  11.338  23.312  0.0247 -0.1817  0.0519
35761W        W78699  31.460  14.849  20.687 -0.0888  0.1053  0.2428
35762W        W78700  32.840  14.013  23.139  0.1536  0.0217  0.1167
35763W        W78701  34.054  14.523  19.953  0.0521 -0.0771 -0.0746
35764W        W78702  29.579  11.899  24.270 -0.0345  0.1606  0.1298
35765W        W78703  29.752  11.769  20.720  0.2232 -0.0133  0.1709
35766W        W78704  29.418  14.612  22.121  0.0686  0.0611  0.0472
35767W        W78705  32.123  13.285  22.189 -0.1978 -0.0128  0.3411
35768W        W78706  30.426  12.462  19.134  0.0973  0.0607  0.0494
35769W        W78707  32.007  14.163  23.077 -0.2578  0.1864 -0.0015
35770W        W78708  31.675  12.673  21.575  0.3682 -0.0142 -0.0666
35771W        W78709  30.537  14.030  23.133 -0.0977 -0.1452 -0.0043
35772W        W78710  32.451  10.809  24.253  0.2736 -0.1303 -0.1529
35773W        W78711  32.820  11.492  22.610 -0.0180  0.2219  0.0624
35774W        W78712  32.849  13.098  21.219  0.0638  0.0417 -0.1234
35775W        W78713  30.802  11.465  19.568  0.0097 -0.0730 -0.0872
35776W        W78714  32.518  14.651  20.988  0.3490 -0.0046 -0.1494
35777W        W78715  29.966  13.771  20.861  0.1269  0.1265  0.1610
35778W        W78716  29.247  13.511  20.585  0.0624  0.1547  0.0179
35779W        W78717  31.297  13.027  22.508 -0.0125  0.3050  0.0036
35780W        W78718  31.697  11.546  22.985 -0.2302  0.0743  0.0572
35781W        W78719  28.985  12.687  25.529 -0.0409 -0.0275 -0.2260
35782W        W78720  31.583  10.857  26.323  0.1724  0.1621  0.1717
35783W        W78721  28.729  10.430  20.308  0.1085  0.0050  0.0658
35784W        W78722  29.887  13.856  23.999 -0.1840  0.1318 -0.3369
35785W        W78723  31.514  11.812  21.099 -0.2301  0.2160 -0.1431
35786W        W78724  31.513  11.977  19.315 -0.1537  0.1021  0.1833
35787W        W78725  32.429  12.135  23.941 -0.1101 -0.2041  0.0731
35788W        W78726  33.944  13.431  21.285 -0.1131  0.0720  0.5059
35789W        W78727  30.761  11.419  20.983  0.0616  0.1541  0.0533
35790W        W78728  30.139  12.111  20.923  0.0868  0.0935 -0.3893
35791W        W78729  30.645  13.577  24.184  0.1801  0.1711 -0.2188
35792W        W78730  32.097  13.785  21.646 -0.0816 -0.3753  0.0607
35793W        W78731  30.819  13.889  22.574 -0.1694  0.0969  0.0378
35794W        W78732  30.877  12.840  21.021  0.2124  0.3542  0.1338
35795W        W78733  32.926  14.168  21.413  0.0208  0.1407 -0.1088
35796W        W78734  29.661  12.479  22.806  0.0243  0.2179  0.1524
35797W        W78735  31.418  11.401  24.823 -0.1998  0.1888  0.0715
35798W        W78736  31.159  13.572  21.297  0.3960 -0.2091 -0.0464
35799W        W78737  29.275  10.782  21.829  0.0234  0.0985 -0.0482
35800W        W78738  30.649  13.132  20.063 -0.0683  0.0264  0.0970
35801W        W78739  31.187  10.863  21.286  0.0931 -0.0170 -0.0894
35802W        W78740  28.681  14.129  19.890 -0.0175 -0.2909  0.0003
35803W        W78741  33.605  10.506  22.851  0.0460  0.2038 -0.1706
35804W        W78742  32.414  11.076  21.940  0.0566 -0.1797  0.2084
35805W        W78743  29.687  12.085  21.384 -0.0314 -0.2186  0.1557
35806W        W78744  32.917  13.276  23.975 -0.0289  0.0429 -0.0917
35807W        W78745  31.717  11.892  20.282 -0.0719 -0.0774  0.0025
35808W        W78746  31.054  12.789  22.870 -0.1761 -0.0684  0.1432
35809W        W78747  30.560  12.638  19.963 -0.3126  0.0640  0.1620
35810W        W78748  32.347  11.073  23.783 -0.1557 -0.1265  0.1791
35811W        W78749  29.760  12.170  23.236 -0.0906 -0.1344 -0.0110
35812W        W78750  29.706  14.948  22.483 -0.1798  0.2100 -0.0376
35813W        W78751  31.617  12.958  22.881 -0.3995 -0.2702  0.1250
35814W        W78752  31.654  13.339  20.377  0.3845  0.0157  0.3566
35815W        W78753  30.580  12.116  22.719 -0.0546  0.0113  0.1689
35816W        W78754  31.500  11.213  21.765  0.1890  0.0147 -0.2160
35817W        W78755  30.231  14.515  22.226  0.0417 -0.2410 -0.2214
35818W        W78756  29.456  14.969  21.158 -0.1902 -0.1755 -0.3555
35819W        W78757  30.056  11.035  21.972  0.1287  0.3689  0.2881
35820W        W78758  32.063  15.032  22.629  0.1061 -0.1467  0.1606
35821W        W78759  28.825  14.305  19.071  0.2032 -0.1698  0.0971
35822W        W78760  31.777  12.910  22.384  0.0833 -0.1756 -0.2015
35823W        W78761  29.825  14.781  21.874 -0.0139 -0.2041 -0.0622
35824W        W78762  31.917  10.759  23.401  0.0004 -0.2360 -0.2004
35825W        W78763  28.750  14.066  23.573  0.1544  0.1588 -0.3762
35826W        W78764  29.517  11.604  20.235 -0.1836  0.1611  0.2349
35827W        W78765  28.775  11.382  21.180  0.1273  0.2682  0.0703
35828W        W78766  32.131  10.032  22.789 -0.0311 -0.1596 -0.0744
35829W        W78767  32.955  12.327  21.744  0.0951  0.1105 -0.1061
35830W        W78768  29.235  11.410  23.035  0.2566 -0.1462 -0.0312
35831W        W78769  30.210  12.893  21.452 -0.1881 -0.2105 -0.1792
35832W        W78770  28.672  13.692  23.245  0.1545  0.1427  0.3338
35833W        W78771  32.225  11.637  22.943  0.0266 -0.4017 -0.0173
35834W        W78772  32.004  11.004  22.980 -0.0954  0.0795  0.0184
35835W        W78773  31.628  13.093  23.636  0.2159  0.0650 -0.0280
35836W        W78774  31.412  12.473  23.033  0.0795 -0.0718  0.0078
35837W        W78775  29.126  11.108  20.877 -0.0862 -0.3073 -0.2302
35838W        W78776  32.699  11.905  22.912 -0.1754  0.1842  0.1844
35839W        W78777  28.587  12.478  20.748 -0.2014 -0.1337 -0.2129
35840W        W78778  27.845  13.213  21.071 -0.3866 -0.3234 -0.0770
35841W        W78779  32.314  13.113  21.470  0.1007  0.1344 -0.0627
35842W        W78780  30.008  13.240  20.864  0.2585 -0.0812  0.0788
35843W        W78781  29.128  13.659  21.917 -0.0797 -0.2723  0.1987
35844W        W78782  31.967  11.722  23.551 -0.4260 -0.1187 -0.1364
35845W        W78783  32.360  12.849  20.924  0.1408  0.1452  0.1421
35846W        W78784  29.750  10.229  21.057  0.4076  0.1146  0.0766
35847W        W78785  30.227  11.350  20.391  0.1848  0.2397 -0.0888
35848W        W78786  30.427  11.953  21.711  0.1158  0.1506 -0.0846
35849W        W78787  32.081  13.160  22.706  0.1595  0.2028 -0.2476
35850W        W78788  29.506  11.811  22.433  0.0204  0.0065  0.0865
35851W        W78789  31.302  12.975  23.306  0.0204  0.1439  0.1367
35852W        W78790  31.282  11.523  22.675  0.0362 -0.0237  0.0576
35853W        W78791  33.926  15.824  20.902 -0.2101 -0.1754 -0.1626
35854W        W78792  30.966  12.020  21.613  0.2618 -0.1052  0.2525
35855W        W78793  30.465  13.635  21.944 -0.1422  0.1085 -0.2354
35856W        W78794  30.051  11.129  23.024 -0.2215 -0.0357 -0.1147
35857W        W78795  29.367  13.292  21.133  0.2032 -0.1930  0.2970
35858W        W78796  31.507  12.244  24.733  0.0538 -0.0292 -0.1659
35859W        W78797  28.977  13.603  22.896 -0.1376  0.2435  0.1665
35860W        W78798  30.155  14.681  20.391  0.1031 -0.0153 -0.1700
35861W        W78799  29.029  14.189  22.850  0.2316 -0.2957  0.1890
35862W        W78800  31.740  10.961  21.394  0.1946  0.0454  0.0437
35863W        W78801  32.479  12.741  19.448  0.0231 -0.3985  0.1482
35864W        W78802  30.604  12.562  21.866  0.0391  0.0490 -0.2329
35865W        W78803  32.908  11.877  23.841  0.0179  0.2528 -0.2537
35866W        W78804  31.140  13.225  20.235  0.1795 -0.1821  0.0384
35867W        W78805  31.792  12.082  22.928  0.2821  0.3457 -0.0384
35868W        W78806  30.520  11.274  24.965  0.0912 -0.2284 -0.2712
35869W        W78807  32.712  14.371  20.456 -0.0808  0.1125 -0.4159
35870W        W78808  28.065  13.013  23.392  0.0724  0.0882  0.0637
35871W        W78809  31.279  12.504  23.502  0.0911 -0.2082 -0.0841
35872W        W78810  29.957  12.649  24.073  0.0755 -0.0425 -0.2124
35873W        W78811  30.465  11.353  21.729  0.2226 -0.1250  0.1531
35874W        W78812  29.194  10.155  19.969  0.2239  0.1179  0.1905
35875W        W78813  30.786  13.470  22.292  0.1962  0.0123  0.1488
35876W        W78814  34.397  13.388  21.507  0.1026  0.2548  0.3150
35877W        W78815  30.944  13.205  19.683 -0.1424 -0.0490  0.0553
35878W        W78816  31.149  12.110  21.133  0.1763 -0.0067 -0.3361
35879W        W78817  29.277  13.522  22.413 -0.2182 -0.2241 -0.2870
35880W        W78818  31.188  12.043  22.661  0.1415  0.1958 -0.0513
35881W        W78819  30.993  11.927  19.402  0.0697 -0.2831  0.2246
35882W        W78820  29.811  12.396  22.264 -0.0599  0.1026  0.1152
35883W        W78821  29.911  11.449  22.252  0.1169 -0.0535 -0.4694
35884W        W78822  32.011  13.179  20.802 -0.0350 -0.0562 -0.3266
35885W        W78823  32.325  11.663  21.772 -0.0322  0.1620  0.3465
35886W        W78824  31.053  11.773  23.758  0.2074  0.0364 -0.0593
35887W        W78825  32.398  11.580  22.276 -0.0666 -0.2566 -0.0853
35888W        W78826  30.126  13.787  22.859 -0.2579 -0.0205 -0.0370
35889W        W78827  28.872  11.991  23.057  0.1715  0.1410  0.0295
35890W        W78828  31.893  13.907  23.999  0.3373 -0.1027 -0.1154
35891W        W78829  32.278  12.789  18.779 -0.2077 -0.0957  0.7205
35892W        W78830  33.006  12.691  23.235 -0.0066  0.0598  0.1424
35893W        W78831  30.852  11.863  20.706  0.3033 -0.0770 -0.0510
35894W        W78832  30.329  12.258  22.268 -0.1992 -0.2576 -0.3851
35895W        W78833  29.742  12.948  21.515  0.0816  0.1797  0.0046
35896W        W78834  32.285  12.171  22.792  0.1889 -0.0275 -0.2076
35897W        W78835  29.346  11.162  20.022  0.1413  0.0099  0.0079
35898W        W78836  31.856  12.610  23.395  0.0568  0.1335  0.4881
35899W        W78837  30.530  11.955  18.870  0.0717  0.3300 -0.1097
35900W        W78838  31.671  13.401  19.666  0.2122 -0.1373 -0.2680
35901W        W78839  31.424  11.298  21.208  0.0357  0.0929 -0.2307
35902W        W78840  28.978  11.194  22.642  0.1845 -0.0620 -0.0757
35903W        W78841  29.289  13.026  23.700 -0.1254 -0.2957 -0.3247
35904W        W78842  30.327  11.340  19.481 -0.1140  0.2114  0.0254
35905W        W78843  30.408  12.615  20.398  0.1594  0.1166 -0.1098
35906W        W78844  31.496  12.971  22.009 -0.2554  0.1155 -0.1235
35907W        W78845  33.873  13.557  24.856 -0.3083 -0.0117  0.2225
35908W        W78846  30.438  10.959  19.793 -0.0063  0.1743 -0.0517
35909W        W78847  32.059  12.589  22.938  0.2832 -0.0923 -0.2868
35910W        W78848  29.961  14.715  20.962 -0.2168 -0.2090  0.1232
35911W        W78849  31.935  10.995  22.036  0.1867 -0.0216  0.1011
35912W        W78850  30.140  13.074  23.396 -0.0298 -0.0043  0.0660
35913W        W78851  28.876  12.463  21.923 -0.0259  0.1872 -0.4067
35914W        W78852  29.473  13.957  22.742 -0.1558 -0.1254 -0.2577
35915W        W78853  30.905  10.696  22.198 -0.1659  0.0654 -0.1685
35916W        W78854  31.463  12.173  21.652  0.0453  0.0880 -0.0159
35917W        W78855  30.913  12.318  23.042  0.0458 -0.1061 -0.0241
35918W        W78856  33.049  12.329  24.878 -0.2981 -0.0761 -0.0576
35919W        W78857  31.305  13.799  21.754 -0.0201 -0.1733 -0.1686
35920W        W78858  29.546  12.968  22.870 -0.1405 -0.3191  0.2827
35921W        W78859  30.921  13.987  23.932 -0.1017 -0.1780 -0.4695
35922W        W78860  33.518  12.302  21.549  0.0625  0.3258  0.1803
35923W        W78861  31.019  14.254  22.887  0.1971  0.0918 -0.1730
35924W        W78862  28.748  10.718  24.825 -0.3363  0.0848  0.0804
35925W        W78863  31.596  12.143  23.394  0.1099 -0.0915  0.1222
35926W        W78864  30.614  11.969  21.243  0.2502 -0.1730  0.0450
35927W        W78865  30.715  11.466  20.440 -0.1911  0.2244 -0.1551
35928W        W78866  32.215  13.642  18.416  0.2884 -0.1428 -0.0008
35929W        W78867  30.849  14.368  23.359  0.1088  0.0400 -0.1377
35930W        W78868  28.508  11.622  22.507  0.1366  0.2425  0.3751
35931W        W78869  28.643  14.691  21.408  0.0963  0.3309 -0.1095
35932W        W78870  31.217  12.168  19.908  0.0129 -0.0037  0.1533
35933W        W78871  32.218  13.109  19.195  0.0252 -0.1668  0.0172
35934W        W78872  32.936  13.558  21.022  0.0652  0.2481 -0.3759
35935W        W78873  30.960  11.320  20.010 -0.1249 -0.1414 -0.0884
35936W        W78874  29.567  13.205  23.320  0.4801  0.1744  0.1036
35937W        W78875  29.349  13.999  20.518 -0.0541 -0.3418 -0.1513
35938W        W78876  32.354  13.748  19.878 -0.1385  0.3638  0.1557
35939W        W78877  31.600  14.652  22.397 -0.2567  0.1142 -0.2150
35940W        W78878  32.208  12.621  24.108  0.2291 -0.3536  0.0659
35941W        W78879  31.998  10.926  20.867  0.3032  0.0684  0.0610
35942W        W78880  32.605  13.000  22.596 -0.0649  0.0679  0.1466
35943W        W78881  32.002  12.289  21.728 -0.0624  0.0422 -0.0013
35944W        W78882  31.483  14.445  23.281 -0.1023  0.2395 -0.3965
35945W        W78883  31.207  12.215  23.946  0.0706 -0.0126  0.2396
35946W        W78884  31.224  11.318  19.395  0.2076  0.0482 -0.0079
35947W        W78885  30.407  10.580  23.599  0.1228  0.0255 -0.2019
35948W        W78886  33.038  11.998  23.326 -0.1632  0.1221  0.0912
35949W        W78887  29.195  13.909  23.346 -0.2061 -0.0032 -0.0302
35950W        W78888  32.889  11.551  19.462  0.0597 -0.0492  0.0593
35951W        W78889  29.984  11.366  21.007 -0.2657 -0.2433  0.0590
35952W        W78890  30.171  11.889  23.074 -0.1971  0.0369 -0.1137
35953W        W78891  32.871  10.550  21.300  0.1406 -0.0425 -0.0301
35954W        W78892  31.165  11.847  20.300 -0.0244 -0.1576  0.2458
35955W        W78893  31.718  11.699  21.601  0.0507  0.0253 -0.0838
35956W        W78894  29.785  14.266  21.808 -0.1326 -0.0629  0.1293
35957W        W78895  32.142  13.815  22.199 -0.0489 -0.1926  0.3091
35958W        W78896  30.302  14.471  23.413 -0.0073  0.1172 -0.0987
35959W        W78897  28.829  12.094  19.793  0.3317  0.1284  0.3542
35960W        W78898  30.808  10.706  20.918  0.1553  0.1144 -0.0330
35961W        W78899  29.499  11.272  22.577 -0.1014  0.1139 -0.1152
35962W        W78900  32.832  12.111  20.851  0.0250  0.1300 -0.0497
35963W        W78901  29.470  12.560  21.923 -0.3060 -0.2084 -0.3208
35964W        W78902  32.883  11.769  19.981 -0.3043 -0.2667 -0.1607
35965W        W78903  31.359  11.634  22.173  0.2565  0.1885  0.1338
35966W        W78904  29.030  10.949  23.138  0.1285  0.0304  0.1746
35967W        W78905  31.350  13.663  19.972  0.1498 -0.3911 -0.0524
35968W        W78906  32.614  12.820  23.903  0.0396  0.2215 -0.0723
35969W        W78907  31.204  12.833  21.647  0.2190 -0.0181  0.3509
35970W        W78908  30.866  13.199  23.481  0.0944 -0.4531 -0.0801
35971W        W78909  29.403  11.999  22.866 -0.1199 -0.0522  0.0941
35972W        W78910  30.901  12.491  21.494 -0.0029 -0.1533 -0.2759
35973W        W78911  29.975  13.744  22.057 -0.0009 -0.2649 -0.0796
35974W        W78912  30.435  12.338  23.295  0.2957  0.1875  0.2164
35975W        W78913  32.123  14.125  23.600  0.2184 -0.4134  0.1882
35976W        W78914  30.813  11.609  22.407 -0.0500  0.3655 -0.3461
35977W        W78915  32.466  12.281  19.613  0.0179 -0.0307 -0.0049
35978W        W78916  31.687  11.988  22.127 -0.0349 -0.0747  0.1049
35979W        W78917  30.664  14.257  22.229 -0.0030 -0.0813 -0.2616
35980W        W78918  32.176  12.131  22.207  0.0552  0.2352 -0.1201
35981W        W78919  32.151  13.415  20.379  0.0350 -0.6609  0.0982
35982W        W78920  29.790  11.574  22.812 -0.1577 -0.1980 -0.0109
35983W        W78921  32.521  12.994  22.051  0.1340  0.1163  0.0555
35984W        W78922  33.295  14.902  21.655  0.0270  0.2628  0.0396
35985W        W78923  32.129  11.211  22.461  0.2188 -0.0308  0.2789
35986W        W78924  29.523  12.680  20.854  0.3653  0.2066 -0.0982
35987W        W78925  29.977  13.349  21.744  0.3126  0.6145  0.1147
35988W        W78926  32.087  12.640  21.329 -0.3933  0.2128  0.2215
35989W        W78927  31.586  11.865  23.893 -0.2088  0.1534  0.0817
35990W        W78928  30.866  12.721  19.159 -0.0695  0.2457  0.1297
35991W        W78929  32.498  11.565  23.740 -0.3715  0.1337  0.1210
35992W        W78930  31.602  14.276  22.765 -0.2075  0.0547 -0.0111
35993W        W78931  29.419  13.809  24.235 -0.3885  0.0691  0.1062
35994W        W78932  30.408  13.645  20.740 -0.2395  0.1459 -0.1384
35995W        W78933  31.864  13.021  24.146 -0.2573 -0.3350 -0.2506
35996W        W78934  30.861  13.359  21.733 -0.0398 -0.0475 -0.5160
35997W        W78935  30.758  13.441  20.447  0.1682 -0.0001 -0.1761
35998W        W78936  32.499  13.372  20.870  0.2027 -0.4729 -0.0730
35999W        W78937  31.686  12.273  21.247  0.0086  0.0521  0.1272
36000W        W78938  33.114  14.224  20.976 -0.0327 -0.3083 -0.0217
36001W        W78939  31.475  11.651  23.435  0.3012  0.2330  0.0573
36002W        W78940  33.347   9.488  22.074  0.0747 -0.3349  0.2155
36003W        W78941  31.626  11.274  22.349 -0.0864  0.2503  0.1127
36004W        W78942  30.008  12.532  23.533 -0.0339 -0.1365  0.2345
36005W        W78943  29.517  11.698  21.166 -0.3151  0.2049 -0.1246
36006W        W78944  30.129  10.923  19.280 -0.3137  0.4061 -0.1231
36007W        W78945  29.915  12.889  21.997  0.0389  0.2612 -0.0293
36008W        W78946  31.536  10.786  23.062  0.0444 -0.0615  0.0731
36009W        W78947  30.156  11.899  23.685  0.0932 -0.2476 -0.0143
36010W        W78948  29.091  13.670  21.378  0.0642  0.2192  0.0945
36011W        W78949  28.915  10.620  20.803 -0.0259  0.1155 -0.1317
36012W        W78950  32.096  13.730  20.801 -0.0469 -0.2199  0.0320
36013W        W78951  30.556  11.909  23.998  0.4375  0.0003 -0.0145
36014W        W78952  28.296  10.318  23.217 -0.1594  0.2161  0.0847
36015W        W78953  31.933  14.932  21.774  0.0296  0.1092  0.5158
36016W        W78954  32.707  13.351  20.043  0.0572  0.1951 -0.0697
36017W        W78955  31.338  12.620  21.021  0.1784 -0.0947 -0.2518
36018W        W78956  31.999  13.086  23.267 -0.0366 -0.4027  0.0884
36019W        W78957  28.227  12.642  18.136  0.3042 -0.1809 -0.1691
36020W        W78958  30.781  12.698  23.277  0.1718  0.1723 -0.0251
36021W        W78959  29.999  11.883  22.469  0.0951  0.1601 -0.2213
36022W        W78960  28.031  12.012  18.739 -0.3524  0.0950 -0.2122
36023W        W78961  30.916  13.874  22.044 -0.0144 -0.2713 -0.1603
36024W        W78962  32.431  14.259  22.239  0.0388 -0.2743  0.0557
36025W        W78963  32.697  13.549  19.572 -0.1002 -0.1264 -0.0373
36026W        W78964  29.979  13.543  23.592  0.1030  0.1258  0.1641
36027W        W78965  30.557  12.651  22.824  0.2876 -0.0189 -0.2394
36028W        W78966  29.766  11.601  23.856  0.4895  0.2283  0.0027
36029W        W78967  32.632  12.095  20.338  0.4701 -0.0386 -0.0094
36030W        W78968  28.849  14.522  23.373  0.1975 -0.3296  0.5026
36031W        W78969  32.790  11.663  20.484  0.0961 -0.0172  0.0779
36032W        W78970  32.987  11.037  22.048  0.0957 -0.1392  0.2354
36033W        W78971  32.130  12.800  20.440 -0.1124  0.0767 -0.2151
36034W        W78972  30.446  10.843  23.089 -0.1042 -0.3074  0.0306
36035W        W78973  29.709  14.226  24.326 -0.4137  0.1048  0.1289
36036W        W78974  32.606  12.766  21.582 -0.0049 -0.1622  0.1495
36037W        W78975  30.813  10.691  21.576 -0.1790 -0.1098  0.1269
36038W        W78976  32.225  10.896  21.380 -0.1240 -0.1696  0.1289
36039W        W78977  30.727  13.295  19.216  0.0719 -0.2470  0.2755
36040W        W78978  29.563  13.328  22.094  0.1504  0.1649  0.1952
36041W        W78979  29.935  12.188  20.468 -0.0245  0.0530  0.1396
36042W        W78980  29.936  12.889  22.565  0.1005 -0.1776  0.0835
36043W        W78981  31.669  13.657  21.401 -0.0910 -0.2882  0.0968
36044W        W78982  32.142  12.998  23.721 -0.1091  0.2898 -0.1168
36045W        W78983  30.437  12.388  21.373 -0.0118 -0.0099  0.4172
36046W        W78984  32.507  12.526  20.115 -0.1204  0.2994  0.0046
36047W        W78985  31.658  13.399  22.430 -0.2462 -0.3122 -0.1149
36048W        W78986  32.381  14.225  24.087 -0.1413  0.0975  0.1045
36049W        W78987  32.801  13.541  23.317  0.0317 -0.0130 -0.0865
36050W        W78988  33.512  13.889  21.031  0.0361  0.0438 -0.0697
36051W        W78989  28.966  10.446  23.932 -0.2549  0.4362  0.2171
36052W        W78990  28.874  12.060  20.671 -0.0291 -0.3072  0.0553
36053W        W78991  31.123  12.449  21.941 -0.0998 -0.1273 -0.0859
36054W        W78992  31.872  11.328  23.934 -0.0526 -0.1563  0.0184
36055W        W78993  29.282  12.226  22.384  0.1135 -0.1055  0.1006
36056W        W78994  31.665  10.861  22.585 -0.1362  0.0108 -0.0428
36057W        W78995  30.553  13.537  22.764  0.0701  0.2093  0.3436
36058W        W78996  31.745  12.496  22.089  0.1751 -0.0466  0.1210
36059W        W78997  28.109  14.210  25.888 -0.0637  0.1310 -0.0321
36060W        W78998  29.536  12.832  24.682  0.1316  0.2374  0.1888
36061W        W78999  31.808  11.868  24.415 -0.1337 -0.0758 -0.2547
36062W        W79000  33.232  12.983  24.194  0.2093 -0.0129  0.2959
36063W        W79001  28.409  12.366  26.161 -0.2990  0.0147  0.0327
36064W        W79002  31.456  14.326  25.076 -0.0699 -0.2634  0.1617
36065W        W79003  29.343  10.171  27.887  0.3581 -0.1553  0.0356
36066W        W79004  33.015  12.945  26.098 -0.3504 -0.1608  0.4148
36067W        W79005  34.273  14.589  26.650 -0.1564  0.1955 -0.0238
36068W        W79006  30.342  12.749  22.314  0.0350  0.3166 -0.2131
36069W        W79007  30.647  11.719  26.840 -0.1897 -0.0050 -0.2921
36070W        W79008  29.815  13.265  25.747 -0.2334 -0.1513 -0.0832
36071W        W79009  30.002  11.141  24.865  0.0609  0.0088 -0.2847
36072W        W79010  29.703  11.714  25.878 -0.0807  0.1706 -0.0146
36073W        W79011  31.212  13.182  26.834 -0.0200  0.4065  0.2143
36074W        W79012  30.330  13.523  23.229  0.2607 -0.1535  0.2609
36075W        W79013  31.556  12.716  25.910  0.0653 -0.0170  0.0870
36076W        W79014  30.611  11.428  23.735 -0.2665  0.2000  0.0740
36077W        W79015  32.315  15.161  25.667 -0.1104 -0.0886 -0.1967
36078W        W79016  30.252  12.224  26.398 -0.1624 -0.0508 -0.1432
36079W        W79017  30.539  10.881  27.796  0.3706 -0.0565  0.2737
36080W        W79018  31.746  12.644  25.016 -0.0463 -0.1840 -0.0306
36081W        W79019  30.098  12.324  22.695  0.2099 -0.0387  0.6128
36082W        W79020  30.047  12.507  27.371 -0.1382  0.2545 -0.0739
36083W        W79021  30.495  12.069  25.440  0.0018 -0.1216  0.2393
36084W        W79022  31.151  11.674  26.948 -0.1454  0.3029  0.1069
36085W        W79023  32.481  11.546  27.277 -0.1315  0.0478 -0.3730
36086W        W79024  31.943  13.420  25.333  0.1306 -0.2006 -0.1154
36087W        W79025  32.655  13.516  25.979 -0.0852 -0.0051 -0.0055
36088W        W79026  31.650  12.554  28.111 -0.3006 -0.0204 -0.2314
36089W        W79027  28.199  13.240  27.102 -0.0017  0.0504  0.1199
36090W        W79028  28.913  14.482  24.635  0.0862 -0.1179 -0.0067
36091W        W79029  31.615  13.424  24.136 -0.1386 -0.0723 -0.1635
36092W        W79030  33.191  14.246  26.086 -0.1377 -0.2959  0.2324
36093W        W79031  31.809  14.263  27.566  0.1003 -0.0746 -0.0765
36094W        W79032  30.892  14.353  26.671  0.1274 -0.0800  0.2182
36095W        W79033  31.240  13.042  24.148  0.0813  0.0111  0.0243
36096W        W79034  31.374  13.856  26.884 -0.4272  0.0531  0.0883
36097W        W79035  28.755  14.467  26.436 -0.0574 -0.3346  0.0576
36098W        W79036  30.691  12.123  25.923 -0.1059  0.0458 -0.2251
36099W        W79037  32.509  12.939  25.941 -0.0542  0.0217 -0.0964
36100W        W79038  31.450  13.916  24.636  0.1264 -0.2986 -0.0399
36101W        W79039  32.677  13.777  26.410  0.2500  0.3051  0.1914
36102W        W79040  30.166  12.065  27.184  0.3821 -0.0517 -0.0669
36103W        W79041  27.511  13.488  26.940  0.2405 -0.0156 -0.0377
36104W        W79042  31.609  10.953  28.833  0.0802 -0.0836 -0.0673
36105W        W79043  32.293  13.014  24.458 -0.1229  0.2227 -0.0412
36106W        W79044  32.275  12.673  24.940 -0.1182 -0.2304 -0.0518
36107W        W79045  31.743  11.792  24.927  0.1595  0.0521 -0.0008
36108W        W79046  31.269  11.383  25.663  0.0997 -0.0628  0.0902
36109W        W79047  30.032  10.574  25.543  0.1078 -0.1378 -0.0307
36110W        W79048  30.666  13.589  26.380  0.0550 -0.1953 -0.3201
36111W        W79049  29.775  11.466  27.063  0.3031 -0.4083  0.2821
36112W        W79050  32.146  14.308  26.019  0.2625 -0.1634 -0.0259
36113W        W79051  31.882  11.439  25.233  0.2854  0.3197  0.1639
36114W        W79052  32.287  11.266  25.667 -0.0226  0.0862  0.4020
36115W        W79053  30.813  13.810  26.786 -0.1481  0.0327 -0.2374
36116W        W79054  31.031  12.245  24.685 -0.1148 -0.3156  0.3175
36117W        W79055  30.217  13.149  24.165 -0.3271 -0.1385 -0.0844
36118W        W79056  33.379  14.106  25.578 -0.1006  0.0860  0.1360
36119W        W79057  30.673  14.220  24.762 -0.0098  0.1361  0.3717
36120W        W79058  29.832  12.458  25.024 -0.3833 -0.0250 -0.0785
36121W        W79059  29.288  14.093  27.646 -0.0725  0.0782 -0.0902
36122W        W79060  30.800  12.495  26.300 -0.0531 -0.2057 -0.0212
36123W        W79061  30.572  11.176  25.517  0.0701  0.0777  0.1793
36124W        W79062  32.082  13.329  27.408  0.0214 -0.0920 -0.0540
36125W        W79063  29.253  16.343  26.841  0.3532  0.0183 -0.0426
36126W        W79064  33.413  11.528  25.519  0.2359 -0.3095 -0.0214
36127W        W79065  30.006  13.678  26.028  0.0359  0.0395  0.2293
36128W        W79066  32.958  13.730  25.700  0.2719 -0.1479  0.0282
36129W        W79067  32.854  13.528  25.185  0.1575 -0.0196 -0.1602
36130W        W79068  31.180  11.610  27.433 -0.1567  0.1302  0.2356
36131W        W79069  31.677  11.665  27.740 -0.0774  0.1731 -0.2056
36132W        W79070  31.569  13.071  24.608 -0.0914  0.1049  0.4174
36133W        W79071  32.039  12.827  25.751  0.1164  0.0228  0.0023
36134W        W79072  32.305  14.523  26.849  0.3447 -0.1481  0.0495
36135W        W79073  33.619  12.380  25.580  0.4179 -0.0287  0.1840
36136W        W79074  28.890  13.208  26.954  0.1511  0.0874  0.0823
36137W        W79075  30.757  11.683  28.474 -0.2454 -0.1411  0.1220
36138W        W79076  30.122  14.767  27.098 -0.1087 -0.4179 -0.2239
36139W        W79077  30.597  14.325  23.791 -0.2121 -0.0801  0.2420
36140W        W79078  29.536  13.711  27.373  0.1433  0.2168 -0.1179
36141W        W79079  29.886  13.012  25.012 -0.1232  0.0912  0.1104
36142W        W79080  30.396  11.441  26.135  0.2425 -0.0352 -0.0305
36143W        W79081  30.109  14.094  25.706 -0.1541  0.0571 -0.0337
36144W        W79082  32.262  11.682  24.663 -0.0266  0.2852  0.1059
36145W        W79083  28.549  11.437  26.834 -0.0288 -0.0812 -0.0481
36146W        W79084  33.460  11.319  26.603 -0.0277 -0.1829  0.1111
36147W        W79085  30.018  12.839  26.022 -0.1676 -0.2727  0.3295
36148W        W79086  32.265  13.487  24.947 -0.0666 -0.2693 -0.1401
36149W        W79087  32.328  11.522  26.112  0.0192  0.0378 -0.2248
36150W        W79088  32.409  14.250  25.065  0.0502  0.1415  0.2454
36151W        W79089  28.998  12.699  27.341 -0.1398  0.0150 -0.4992
36152W        W79090  28.560  12.367  27.359  0.2021  0.0295  0.0960
36153W        W79091  30.497  11.710  27.440 -0.1688  0.1196  0.2361
36154W        W79092  29.173  11.795  25.612 -0.0072 -0.3360  0.0216
36155W        W79093  31.426  14.031  26.320  0.1157  0.1199  0.0979
36156W        W79094  30.190  11.358  23.989  0.1002 -0.2777  0.1470
36157W        W79095  30.300  12.224  24.962 -0.1399  0.2013 -0.2343
36158W        W79096  29.877  12.224  23.923  0.0946 -0.0542 -0.1440
36159W        W79097  29.521  13.647  25.213  0.1610  0.4372  0.1225
36160W        W79098  31.645  11.171  28.122 -0.2148  0.2175  0.0553
36161W        W79099  31.970  13.439  24.502  0.1324  0.2797  0.0570
36162W        W79100  33.137  15.379  26.145  0.3610 -0.1485 -0.3262
36163W        W79101  33.298  13.347  25.442 -0.1414 -0.1032  0.0142
36164W        W79102  29.080  12.112  27.092 -0.0851  0.0297  0.0836
36165W        W79103  29.446  12.038  23.777 -0.0654  0.1768 -0.0068
36166W        W79104  30.320  12.712  25.099  0.1033  0.0851  0.3178
36167W        W79105  30.739  13.484  25.834  0.1870 -0.3571 -0.0235
36168W        W79106  29.235  11.611  24.002 -0.2049 -0.0167  0.0692
36169W        W79107  33.677  14.683  27.080 -0.1564 -0.0473  0.1429
36170W        W79108  32.714  11.239  24.156  0.1322 -0.0162 -0.1660
36171W        W79109  30.310  13.465  28.251  0.0572 -0.0894  0.2483
36172W        W79110  30.806  10.449  27.035  0.2449 -0.1529 -0.0205
36173W        W79111  32.277  13.478  26.363  0.0405  0.1370  0.2739
36174W        W79112  31.547  11.856  25.971 -0.1150  0.5344  0.2527
36175W        W79113  28.588  11.573  24.963 -0.1284  0.2498 -0.1967
36176W        W79114  31.795  15.040  24.170  0.2693 -0.1650  0.2201
36177W        W79115  30.597  13.749  24.749 -0.1998 -0.1235 -0.3362
36178W        W79116  29.747  12.329  24.516  0.0595 -0.0275 -0.6773
36179W        W79117  31.707  13.778  25.795  0.1307 -0.1132 -0.2196
36180W        W79118  32.643  12.393  26.294  0.1166  0.0888  0.1441
36181W        W79119  30.568  13.352  27.716 -0.2981 -0.0249 -0.1315
36182W        W79120  31.526  12.441  27.267 -0.0484  0.0560 -0.0983
36183W        W79121  30.014  12.781  24.602  0.1360  0.2391  0.1786
36184W        W79122  30.013  14.262  26.825 -0.1746 -0.0917  0.3113
36185W        W79123  31.569  11.765  25.471  0.1299  0.2426  0.0046
36186W        W79124  32.942  10.323  24.904 -0.0231  0.0984  0.0357
36187W        W79125  30.612  12.501  27.196  0.0273 -0.0626 -0.1913
36188W        W79126  34.517  12.278  26.040  0.1645  0.0651 -0.1364
36189W        W79127  32.254  12.124  26.510 -0.1557  0.0067 -0.0273
36190W        W79128  30.753  10.836  24.957 -0.1345 -0.0912  0.2082
36191W        W79129  29.319  14.857  26.588  0.0967  0.0608  0.1201
36192W        W79130  32.299  13.872  24.434  0.2396  0.1290 -0.0074
36193W        W79131  31.025  14.384  25.461  0.0478  0.2863 -0.2607
36194W        W79132  31.790  10.920  24.896 -0.0740 -0.3320  0.1960
36195W        W79133  33.950  14.518  24.820  0.0802  0.0544  0.2262
36196W        W79134  29.217  12.991  27.714  0.1470  0.1497  0.3464
36197W        W79135  31.368  12.535  27.695 -0.0045 -0.0772  0.5079
36198W        W79136  33.158  13.713  26.246 -0.0430  0.1803  0.2071
36199W        W79137  29.584  12.392  25.678 -0.0066  0.1888 -0.4097
36200W        W79138  31.901  12.712  24.521 -0.2866 -0.0736 -0.2200
36201W        W79139  30.747  10.681  25.760  0.1018 -0.0429 -0.0832
36202W        W79140  29.038  13.135  23.178  0.1261 -0.1549  0.1046
36203W        W79141  32.812  11.617  26.784  0.0141  0.0695  0.0319
36204W        W79142  32.365  11.832  28.119 -0.1310 -0.0454  0.3529
36205W        W79143  31.054  12.079  25.559 -0.5242 -0.1534 -0.0917
36206W        W79144  31.998  13.071  28.784  0.0845 -0.0522  0.3174
36207W        W79145  31.675  12.998  25.479  0.1724 -0.1067  0.2420
36208W        W79146  31.693  12.366  26.764 -0.2114 -0.1586 -0.4606
36209W        W79147  29.187  13.357  25.906  0.0064 -0.1237 -0.0281
36210W        W79148  31.703  10.910  26.921 -0.3302  0.0225 -0.0098
36211W        W79149  29.972  12.856  26.697  0.1012  0.2814 -0.0394
36212W        W79150  28.604  14.089  26.042 -0.0392  0.2126 -0.0519
36213W        W79151  32.232  13.861  25.808 -0.1847 -0.2478 -0.1979
36214W        W79152  33.172  12.274  26.249 -0.2869 -0.0288 -0.4222
36215W        W79153  31.287  10.479  27.802 -0.1085  0.1274 -0.0063
36216W        W79154  30.118  12.496  25.541 -0.3028  0.2965 -0.1883
36217W        W79155  31.116  14.385  24.648 -0.1034 -0.2855  0.2820
36218W        W79156  30.917  12.933  22.088  0.2260  0.0837  0.1715
36219W        W79157  30.131  11.063  25.901  0.1193  0.1151 -0.0500
36220W        W79158  30.248  13.355  26.266 -0.4097 -0.2620 -0.1725
36221W        W79159  31.418  13.076  25.084 -0.3277  0.0149 -0.3157
36222W        W79160  31.857  12.236  25.787  0.1318 -0.0589  0.1222
36223W        W79161  31.075  12.946  24.629 -0.1734  0.2698 -0.3116
36224W        W79162  32.424  11.003  27.398 -0.1325  0.2203 -0.0358
36225W        W79163  29.191  14.464  26.225  0.1039  0.0440 -0.0733
36226W        W79164  30.113  11.885  24.257  0.4075  0.1468 -0.0838
36227W        W79165  28.627  12.367  26.825  0.1072  0.2090 -0.2716
36228W        W79166  32.966  11.122  23.020 -0.0930  0.1372  0.1246
36229W        W79167  33.341  13.313  24.915 -0.1168  0.0376 -0.1660
36230W        W79168  29.494  12.103  25.214 -0.2705  0.0751 -0.1907
36231W        W79169  30.453  10.384  27.531 -0.1702  0.2732 -0.0313
36232W        W79170  29.427  13.991  26.554 -0.0202 -0.1931 -0.0240
36233W        W79171  32.026  12.686  27.135  0.4039  0.0429 -0.1732
36234W        W79172  32.923  11.571  25.390 -0.0886  0.0841 -0.1644
36235W        W79173  32.142  13.349  25.898 -0.1264  0.0445  0.1256
36236W        W79174  31.111  12.608  27.068  0.3640  0.4737  0.0985
36237W        W79175  30.359  13.676  25.604  0.1800 -0.4319  0.1096
36238W        W79176  31.654  12.923  26.800  0.0354  0.0723  0.1545
36239W        W79177  31.004  12.745  25.936 -0.1976 -0.1349  0.2050
36240W        W79178  29.703  15.291  24.763  0.1242 -0.1308 -0.1530
36241W        W79179  32.650  13.911  26.901  0.2592  0.2379  0.1056
36242W        W79180  30.799  12.252  24.234 -0.1535 -0.1086  0.1357
36243W        W79181  30.732  12.273  26.768 -0.0802 -0.1157  0.1897
36244W        W79182  31.219  11.805  28.798  0.0126 -0.0433 -0.4802
36245W        W79183  33.255  13.076  26.527  0.1983  0.1690 -0.2352
36246W        W79184  31.236  10.250  26.910 -0.1001  0.0584 -0.2778
36247W        W79185  29.617  11.935  24.757  0.0206 -0.0247  0.0919
36248W        W79186  31.384  13.010  26.290 -0.0405  0.2266  0.0238
36249W        W79187  33.347  12.778  27.573  0.0760  0.1233  0.2181
36250W        W79188  32.348  11.595  26.636 -0.0333 -0.0939  0.1157
36251W        W79189  30.516  13.665  27.177 -0.1895  0.0190 -0.0264
36252W        W79190  30.483   9.822  25.349  0.1471  0.2669  0.2505
36253W        W79191  33.077  14.521  23.831  0.0874  0.3461  0.0000
36254W        W79192  30.779  12.306  27.718 -0.0805  0.1377  0.1985
36255W        W79193  30.076  11.802  24.753  0.0760  0.2817 -0.1610
36256W        W79194  30.832  13.073  27.223  0.4851 -0.0248  0.0429
36257W        W79195  32.119  11.969  25.320  0.0720 -0.2827  0.1273
36258W        W79196  30.442  11.225  26.692 -0.2306  0.0629 -0.1546
36259W        W79197  29.182  13.342  26.404  0.0496  0.0351  0.0986
36260W        W79198  31.625  13.532  24.925 -0.2471 -0.0580 -0.4329
36261W        W79199  30.145  12.697  27.815  0.0402 -0.3708  0.1895
36262W        W79200  30.081  10.987  24.380 -0.1549  0.0766  0.0381
36263W        W79201  33.571  12.234  25.006 -0.1079 -0.1047  0.1412
36264W        W79202  30.804  11.363  27.136 -0.1003 -0.0799  0.0356
36265W        W79203  32.466  11.357  29.305  0.1781  0.1463 -0.1198
36266W        W79204  32.436  12.402  25.664  0.0128 -0.2110 -0.0875
36267W        W79205  30.706   9.965  27.763 -0.0260  0.2500  0.0513
36268W        W79206  30.256  12.411  26.838 -0.2787  0.0663 -0.1658
36269W        W79207  33.441  12.661  25.986 -0.0366 -0.0420  0.0142
36270W        W79208  30.154  13.015  27.393  0.0168  0.1143  0.0056
36271W        W79209  32.959  15.530  27.595 -0.0361 -0.0509 -0.1873
36272W        W79210  29.632  14.186  27.288 -0.0701  0.1430  0.0835
36273W        W79211  30.986  11.439  23.340  0.2480 -0.0003 -0.0402
36274W        W79212  30.593  11.940  24.569 -0.0425 -0.0666 -0.0887
36275W        W79213  31.200  13.665  25.956  0.1225  0.1227 -0.1341
36276W        W79214  32.830  14.602  27.017 -0.1185  0.1174 -0.2065
36277W        W79215  31.100  13.482  23.937 -0.3205 -0.3461 -0.2405
36278W        W79216  33.251  13.243  26.986 -0.0487  0.1837  0.4006
36279W        W79217  29.410  13.010  26.748  0.0996  0.0373 -0.1004
36280W        W79218  32.029  12.692  26.590  0.2545  0.4053 -0.0281
36281W        W79219  32.521  12.498  26.757 -0.1686 -0.0187 -0.1397
36282W        W79220  30.599  12.594  24.669  0.2884  0.3513 -0.0492
36283W        W79221  29.555  11.038  27.155  0.0137 -0.1035  0.2375
36284W        W79222  33.562  12.106  26.525  0.0313 -0.1505  0.2095
36285W        W79223  31.323  11.293  26.193  0.2380  0.0434  0.0666
36286W        W79224  30.988  10.751  27.446  0.1232 -0.1707  0.1569
36287W        W79225  31.310  12.553  26.523  0.1346  0.0302  0.1054
36288W        W79226  30.674  12.617  25.528 -0.0668  0.1468  0.1231
36289W        W79227  29.312  10.814  28.614 -0.1782 -0.0571  0.0847
36290W        W79228  34.212  15.565  28.016  0.0270 -0.0489  0.0515
36291W        W79229  32.601  11.713  24.252 -0.2663  0.1447  0.0099
36292W        W79230  32.048  11.671  26.977  0.0835 -0.0085  0.2855
36293W        W79231  32.430  13.500  25.504 -0.3997 -0.0151 -0.0949
36294W        W79232  33.289  13.563  24.055  0.2689  0.1513  0.1644
36295W        W79233  29.785  12.837  25.460 -0.2699 -0.1495  0.2307
36296W        W79234  31.977  13.138  28.014 -0.0478  0.1890  0.0364
36297W        W79235  31.509  12.315  25.395  0.2606 -0.2039 -0.0553
36298W        W79236  31.442  12.014  28.055  0.2724  0.1462  0.2091
36299W        W79237  31.634  14.343  24.439 -0.1117 -0.0449  0.0677
36300W        W79238  32.514  11.950  27.022  0.1282 -0.0111 -0.1750
36301W        W79239  31.588  11.849  26.699  0.3014  0.1999 -0.2572
36302W        W79240  29.364  12.117  26.690  0.0871  0.1300 -0.0445
36303W        W79241  29.835  15.115  27.283  0.2591  0.0260  0.0836
36304W        W79242  31.251  11.795  24.296 -0.3044  0.0581  0.2527
36305W        W79243  31.340  11.207  24.314 -0.2534 -0.0042 -0.0158
36306W        W79244  31.980  13.838  26.267  0.1318 -0.2902 -0.3459
36307W        W79245  32.655  13.795  28.287  0.2225 -0.3852 -0.1579
36308W        W79246  30.552  11.843  23.380  0.1464 -0.0511 -0.0752
36309W        W79247  31.337  13.940  28.495  0.3197  0.0915  0.0086
36310W        W79248  28.537  13.381  26.620  0.2857 -0.0272 -0.1936
36311W        W79249  31.319  10.702  26.741  0.0624  0.2555  0.0984
36312W        W79250  30.413  12.898  26.967  0.1917  0.3679 -0.2310
36313W        W79251  30.132  13.185  27.873 -0.2336  0.0377  0.2426
36314W        W79252  30.479  13.001  25.914  0.0331  0.2926  0.0597
36315W        W79253  30.762  11.625  25.641 -0.0809 -0.1132  0.0326
36316W        W79254  32.463  11.770  25.568  0.0221  0.0133 -0.1057
36317W        W79255  30.848  13.063  26.294  0.0648  0.0022  0.1083
36318W        W79256  30.521  10.969  27.273 -0.2475  0.4159  0.2919
36319W        W79257  32.462  12.887  26.452 -0.1520 -0.1361  0.1320
36320W        W79258  32.000  11.656  25.756 -0.1695 -0.1166  0.0156
36321W        W79259  32.633  15.468  25.960  0.1927  0.2881  0.0562
36322W        W79260  33.823  14.205  25.827 -0.0193  0.0004  0.0187
36323W        W79261  31.192  13.088  25.582  0.0705 -0.0958  0.0267
36324W        W79262  29.827  11.112  27.508  0.2568 -0.1830  0.1364
36325W        W79263  32.222  12.383  28.142 -0.1796  0.0095 -0.0571
36326W        W79264  33.044  12.610  26.584  0.1951 -0.0341 -0.3741
36327W        W79265  30.310  10.851  25.226  0.0959  0.0474  0.0754
36328W        W79266  30.431  12.859  23.704 -0.1067 -0.0809 -0.1691
36329W        W79267  29.803  14.659  27.534  0.4862  0.0464  0.1099
36330W        W79268  30.028  13.545  27.404 -0.0128 -0.0630  0.0327
36331W        W79269  29.397  14.513  24.661 -0.1306  0.0772  0.1879
36332W        W79270  32.712  13.900  24.776 -0.0323  0.0688  0.1625
36333W        W79271  32.431  12.922  25.439 -0.0287  0.2142  0.0465
36334W        W79272  32.081  16.102  26.591 -0.3066  0.1561 -0.0375
36335W        W79273  31.275  12.565  25.014 -0.0096 -0.0795  0.1152
36336W        W79274  29.563  13.666  25.716 -0.0945 -0.1357 -0.0337
36337W        W79275  32.106  13.884  25.334  0.0458 -0.0854 -0.1906
36338W        W79276  31.673  12.287  24.283  0.0870 -0.3561  0.1538
36339W        W79277  31.590  13.271  25.895  0.2648  0.0077 -0.1489
36340W        W79278  32.186  14.226  27.969  0.3416 -0.0327  0.0708
36341W        W79279  33.397  12.273  23.580  0.0774 -0.0020 -0.1565
36342W        W79280  33.547  13.954  26.318  0.0194  0.0102  0.0767
36343W        W79281  32.903  11.801  24.874  0.0414 -0.4525  0.1029
36344W        W79282  31.648  13.417  26.982  0.1617 -0.0817  0.1811
36345W        W79283  30.876  12.811  26.725  0.2030  0.1438 -0.2411
36346W        W79284  31.942  11.798  26.265  0.0587 -0.2922 -0.0635
36347W        W79285  30.173  11.817  26.698  0.2203  0.0690 -0.0281
36348W        W79286  32.832  11.813  27.591  0.0764  0.2818 -0.1626
36349W        W79287  28.859  14.204  27.837  0.0445  0.0910 -0.0644
36350W        W79288  31.264  13.454  24.473 -0.1588  0.1927  0.1883
36351W        W79289  29.334  13.099  25.463  0.0512  0.2615  0.0293
36352W        W79290  32.312  10.290  26.687  0.0208 -0.0046  0.0833
36353W        W79291  33.359  10.940  27.385 -0.1830 -0.1199  0.0499
36354W        W79292  29.877  12.463  21.689  0.0274 -0.2179  0.0259
36355W        W79293  31.158  12.631  25.460 -0.3620  0.0715 -0.3151
36356W        W79294  30.989  13.421  24.924  0.2217  0.0273  0.2028
36357W        W79295  29.139  12.600  26.869  0.2537  0.5558 -0.2153
36358W        W79296  30.392  13.307  25.016  0.3806 -0.2216 -0.1899
36359W        W79297  28.823  12.564  24.538 -0.3262  0.0812  0.0461
36360W        W79298  33.059  11.103  25.655 -0.1143 -0.0967  0.0250
36361W        W79299  31.405  13.070  27.246 -0.0925  0.0947 -0.0173
36362W        W79300  32.962  11.517  27.922 -0.1709  0.1697  0.2606
36363W        W79301  29.392  12.618  26.359  0.0156 -0.0672 -0.2136
36364W        W79302  32.836  12.912  26.889  0.2151  0.1983  0.0743
36365W        W79303  29.928  11.436  28.396 -0.0227  0.1394 -0.0226
36366W        W79304  29.400  10.136  26.737 -0.2457  0.0863  0.0135
36367W        W79305  32.785  12.143  24.451  0.0998  0.1579  0.1501
36368W        W79306  33.055  13.075  27.850 -0.1245 -0.0205  0.1526
36369W        W79307  31.926  12.280  23.843  0.0616 -0.1839 -0.1048
36370W        W79308  31.704  13.460  26.448 -0.0244 -0.1342  0.0697
36371W        W79309  29.687  11.593  25.220  0.0325 -0.1678  0.0297
36372W        W79310  32.038  12.483  25.407  0.4672 -0.4368 -0.0062
36373W        W79311  29.567  13.072  26.178 -0.3163 -0.0129 -0.0513
36374W        W79312  30.180  13.102  25.439  0.0606 -0.0554  0.0195
36375W        W79313  32.996  13.592  26.686  0.0686 -0.1574 -0.2472
36376W        W79314  29.361  10.202  24.420 -0.0053  0.1709 -0.0476
36377W        W79315  33.245  13.902  25.107  0.2833 -0.1068  0.1722
36378W        W79316  33.704  11.124  27.080  0.1241  0.0333  0.4922
36379W        W79317  30.577  15.163  24.254  0.3742  0.0633 -0.2017
36380W        W79318  32.226  12.509  26.097  0.0770 -0.0355 -0.0120
36381W        W79319  30.934  14.055  26.190 -0.0527 -0.1109  0.1624
36382W        W79320  29.951  12.045  25.350  0.0953 -0.1874 -0.0733
36383W        W79321  32.197  15.331  27.441  0.0179  0.0052  0.3160
36384W        W79322  32.746  13.250  26.464 -0.1780  0.0622  0.0539
36385W        W79323  30.797  12.419  25.092 -0.1987  0.1276  0.3024
36386W        W79324  30.412  12.835  26.403  0.1520 -0.0692  0.0050
36387W        W79325  29.675  14.052  25.445  0.0404 -0.0186  0.2783
36388W        W79326  31.267  12.171  26.954 -0.2226  0.1538 -0.0920
36389W        W79327  30.786  11.310  27.658  0.0303 -0.2412 -0.0964
36390W        W79328  30.691  13.125  24.070 -0.0078  0.0644  0.3552
36391W        W79329  31.480  11.030  27.718  0.3277 -0.2131  0.0845
36392W        W79330  32.256  14.096  27.117 -0.0086 -0.4146 -0.2673
36393W        W79331  30.994  14.505  27.190  0.1007 -0.1259 -0.1819
36394W        W79332  30.467  13.369  23.706 -0.2299 -0.0820 -0.0964
36395W        W79333  30.327  12.113  27.690  0.2428 -0.3301  0.1539
36396W        W79334  32.648  13.372  26.963  0.1470 -0.0107  0.0453
36397W        W79335  31.597  13.873  25.266 -0.0636  0.1645  0.1258
36398W        W79336  33.504  12.880  25.527  0.1826 -0.1563 -0.2669
36399W        W79337  30.717  13.157  25.504 -0.0826  0.5172 -0.0487
36400W        W79338  32.824  13.185  25.635  0.2809 -0.0530  0.0593
36401W        W79339  30.280  11.634  25.204 -0.3107 -0.0638 -0.3200
36402W        W79340  34.068  11.246  26.706 -0.2636  0.0282 -0.3603
36403W        W79341  32.200  11.082  25.223  0.1370 -0.1293 -0.0520
36404W        W79342  30.298  13.717  26.742  0.1610  0.1541  0.1010
36405W        W79343  30.889  12.646  23.861 -0.4564  0.1637 -0.1349
36406W        W79344  29.645  13.575  24.673 -0.0610 -0.0461  0.2614
36407W        W79345  29.975  13.598  25.334 -0.0651 -0.1112  0.1310
36408W        W79346  29.356  10.365  28.349  0.0814 -0.1263  0.1042
36409W        W79347  29.787  12.162  27.575  0.1101  0.1298 -0.2072
36410W        W79348  29.299  12.812  25.894 -0.2414  0.1955  0.0509
36411W        W79349  28.808   9.976  24.007 -0.0919 -0.1532 -0.4248
36412W        W79350  32.544  13.451  24.508  0.1855 -0.3600 -0.1311
36413W        W79351  30.846  10.329  26.544 -0.0980 -0.0255 -0.1285
36414W        W79352  29.768  10.986  23.475 -0.1643  0.0103  0.1360
36415W        W79353  31.947  14.611  23.926 -0.2667  0.0749 -0.0574
36416W        W79354  33.778  13.186  25.215  0.1953  0.0291  0.2238
36417W        W79355  31.235  12.044  25.100 -0.2508 -0.1371 -0.1906
36418W        W79356  31.818  12.826  27.684 -0.1896  0.0214 -0.2026
36419W        W79357  31.120  13.964  25.027 -0.0341  0.0508  0.0900
36420W        W79358  31.539  11.456  28.509 -0.0307  0.0141  0.0834
36421W        W79359  29.875  11.937  28.430 -0.0692  0.2570  0.0025
36422W        W79360  28.245  11.603  23.797  0.2059  0.1547  0.0092
36423W        W79361  30.718  11.844  25.089 -0.2755  0.1806 -0.0667
36424W        W79362  33.295  13.330  26.009 -0.0620  0.2293  0.0033
36425W        W79363  31.497  14.331  23.860 -0.3413 -0.0998  0.2348
36426W        W79364  31.960  13.087  26.268 -0.1054 -0.0138 -0.0515
36427W        W79365  31.031  13.563  27.231  0.0639  0.1995  0.2164
36428W        W79366  29.641  12.792  27.901  0.3093  0.1237 -0.2069
36429W        W79367  32.770  13.029  24.347 -0.1546  0.3692 -0.0800
36430W        W79368  31.367  14.397  27.449 -0.1440 -0.0423  0.1658
36431W        W79369  32.646  15.145  24.673 -0.0654 -0.1067  0.0412
36432W        W79370  31.618  11.887  27.229  0.0116 -0.0826 -0.1088
36433W        W79371  32.892  12.661  25.681  0.0068  0.0593 -0.1231
36434W        W79372  30.023  11.042  26.984 -0.4639 -0.1575  0.3388
36435W        W79373  31.879  14.484  27.127  0.3862  0.2237 -0.0341
36436W        W79374  33.107  14.879  25.215  0.1007  0.0404  0.0649
36437W        W79375  30.184  11.468  25.641 -0.4358 -0.0497  0.3141
36438W        W79376  31.779  11.147  25.681  0.1794 -0.0762 -0.0994
36439W        W79377  32.510  12.090  24.925  0.2212 -0.2295  0.0952
36440W        W79378  29.680  12.792  27.184  0.2852 -0.1103  0.2962
36441W        W79379  31.691  12.302  26.215 -0.0246  0.0113 -0.0466
36442W        W79380  30.865  10.896  26.796 -0.1010 -0.2210  0.1523
36443W        W79381  31.226  12.303  26.004 -0.1277  0.1194  0.1571
36444W        W79382  32.885  13.545  27.804  0.3752 -0.1884  0.0886
36445W        W79383  30.968  11.374  25.175  0.0071  0.1722  0.1214
36446W        W79384  33.995  12.178  26.767 -0.2600  0.0091 -0.0329
36447W        W79385  32.312  14.074  26.569  0.0002 -0.0962 -0.0505
36448W        W79386  33.100  14.079  26.578  0.1628  0.1539 -0.0695
36449W        W79387  32.681  14.665  25.395  0.2295 -0.0630  0.1412
36450W        W79388  32.112  13.152  26.771 -0.1808  0.1472  0.1518
36451W        W79389  29.332  12.194  26.077 -0.1095 -0.0257  0.3566
36452W        W79390  31.243  12.534  24.362 -0.0094  0.2015  0.4003
36453W        W79391  31.851  13.955  26.740 -0.1746  0.1460 -0.0055
36454W        W79392  32.088  11.926  27.517  0.1574  0.2325  0.0292
36455W        W79393  30.303  10.698  26.833  0.2455 -0.1345 -0.0504
36456W        W79394  30.431  10.885  24.011 -0.0222  0.1939 -0.1371
36457W        W79395  28.658  14.969  26.550 -0.0376  0.0237  0.2717
36458W        W79396  31.385  12.945  28.022  0.1818  0.2956 -0.2645
36459W        W79397  30.680  13.427  29.781 -0.1858 -0.2020 -0.1940
36460W        W79398  30.445  12.083  28.632 -0.0688  0.2980 -0.0508
36461W        W79399  30.849  12.094  27.239 -0.0032  0.4022 -0.0564
36462W        W79400  33.003  12.876  29.547 -0.2412  0.1403  0.0569
36463W        W79401  29.395  10.981  29.115  0.0703  0.0001 -0.0819
36464W        W79402  32.162  14.249  29.495 -0.4952  0.3220 -0.1510
36465W        W79403  29.818  12.518  30.163 -0.2320  0.1140  0.0709
36466W        W79404  31.170  14.303  29.929  0.0633 -0.3949  0.4803
36467W        W79405  33.046  13.342  30.422 -0.1561 -0.0335 -0.2163
36468W        W79406  32.437  13.172  27.739  0.1563  0.1991  0.2813
36469W        W79407  31.225  13.275  29.010 -0.0772  0.1708  0.0327
36470W        W79408  30.131  13.985  31.592  0.0672 -0.2316  0.1672
36471W        W79409  29.887  10.399  28.562 -0.3502 -0.2006  0.0268
36472W        W79410  29.681  10.056  29.517 -0.4421  0.1461  0.1839
36473W        W79411  31.691  12.301  29.699  0.3688 -0.0464  0.0610
36474W        W79412  30.343  11.620  27.928 -0.0897  0.0409  0.1260
36475W        W79413  29.119  10.893  30.791 -0.0923  0.0509  0.1031
36476W        W79414  31.084  12.052  26.500 -0.0659  0.3061  0.2431
36477W        W79415  31.515  14.688  29.680 -0.2634 -0.0668 -0.0605
36478W        W79416  31.269  11.102  30.250 -0.0681 -0.0368 -0.2288
36479W        W79417  31.366  10.289  30.706  0.0820 -0.0839 -0.2023
36480W        W79418  30.636  14.283  29.060  0.1959  0.0601 -0.0166
36481W        W79419  30.253  12.886  28.722  0.1148 -0.2081  0.2506
36482W        W79420  27.987  11.937  29.832 -0.1501  0.0390  0.1067
36483W        W79421  30.123  11.498  29.425 -0.3814  0.2366 -0.1133
36484W        W79422  32.752  10.821  29.479 -0.0455 -0.0414 -0.3128
36485W        W79423  31.776  13.389  30.439  0.1410 -0.1724  0.1164
36486W        W79424  30.816  13.348  29.333 -0.0784 -0.1981  0.0115
36487W        W79425  32.107  14.705  29.732 -0.3058 -0.0344  0.0519
36488W        W79426  31.164  11.556  30.552 -0.4659 -0.1721  0.0705
36489W        W79427  29.744  13.569  29.702  0.0849 -0.1424 -0.1111
36490W        W79428  28.536  13.333  30.087 -0.0884 -0.0725  0.2337
36491W        W79429  30.360  13.798  28.721  0.2362  0.2794 -0.2324
36492W        W79430  32.053  13.870  29.943 -0.3757 -0.2400 -0.2290
36493W        W79431  31.547  14.373  31.538 -0.3009 -0.0782 -0.0473
36494W        W79432  31.208  16.163  31.343  0.2278  0.1617  0.0113
36495W        W79433  30.252  14.432  27.567  0.0900 -0.0268 -0.0441
36496W        W79434  31.568  13.147  31.312  0.2227 -0.1087 -0.1222
36497W        W79435  31.272  14.563  31.180 -0.0075 -0.2958  0.2019
36498W        W79436  30.694  12.583  29.842 -0.0963  0.4265  0.4654
36499W        W79437  30.908  12.604  28.099  0.2340 -0.1139  0.0293
36500W        W79438  29.946  13.895  26.470 -0.5275 -0.3350 -0.1791
36501W        W79439  31.695  13.251  29.214 -0.3367 -0.0866 -0.1253
36502W        W79440  30.950  13.728   0.544 -0.0612 -0.0495  0.0558
36503W        W79441  29.421  14.304  29.530  0.2288 -0.2379  0.0750
36504W        W79442  32.572   9.834   0.712  0.2171 -0.1439 -0.0732
36505W        W79443  29.686  14.822  28.118 -0.1893 -0.2480  0.0048
36506W        W79444  31.412  12.341  28.976  0.0011  0.0066  0.1926
36507W        W79445  31.246  11.451  27.886 -0.0829  0.0424 -0.0622
36508W        W79446  31.562  12.872  28.870 -0.0977 -0.2124  0.1762
36509W        W79447  29.930  10.722  29.899 -0.0904  0.1346 -0.2489
36510W        W79448  30.368  13.502  29.124 -0.3439 -0.2308 -0.1361
36511W        W79449  31.228  11.851  29.844 -0.7009 -0.0089  0.4335
36512W        W79450  30.841  14.874  30.562  0.0010 -0.1127  0.1500
36513W        W79451  31.335  13.866  27.606  0.0792 -0.1634  0.4491
36514W        W79452  31.316  12.516  30.133 -0.1511  0.0572 -0.2180
36515W        W79453  30.253  13.989  29.256 -0.3127 -0.1900 -0.0650
36516W        W79454  29.872  13.273  29.235 -0.0981 -0.1442 -0.1967
36517W        W79455  31.802  13.975  28.782 -0.0392  0.1343  0.1046
36518W        W79456  31.537  13.822  30.116 -0.3899 -0.0254  0.3629
36519W        W79457  30.475  12.868  28.124  0.0008  0.0489  0.2058
36520W        W79458  29.817  11.787  27.971 -0.0104 -0.0944 -0.3147
36521W        W79459  29.432  14.763  30.722  0.0757 -0.3359 -0.2925
36522W        W79460  27.796  12.122  31.821 -0.0406  0.0409  0.3264
36523W        W79461  30.643  11.255  28.143  0.2256  0.0923  0.0218
36524W        W79462  33.525  13.132  30.384 -0.2824 -0.0626 -0.2683
36525W        W79463  30.264  14.471  31.138 -0.2426  0.0502 -0.0469
36526W        W79464  33.111  10.610  29.122 -0.1525  0.0719 -0.2639
36527W        W79465  30.219  12.904  31.052  0.0498 -0.1964  0.0227
36528W        W79466  31.197  13.843  31.618  0.1464  0.1228  0.0159
36529W        W79467  31.525  14.450  28.683 -0.0760  0.2162  0.0400
36530W        W79468  32.503  10.152  30.738  0.2750 -0.3011  0.1393
36531W        W79469  32.592  11.520  30.772 -0.3434 -0.1113  0.3423
36532W        W79470  30.794  12.169  28.270  0.0619 -0.3433  0.1770
36533W        W79471  30.204  11.678  28.852 -0.1754 -0.1010  0.1166
36534W        W79472  33.209  14.055  31.303  0.0609 -0.0362 -0.1285
36535W        W79473  32.271  13.383  28.436  0.1412 -0.1109 -0.1887
36536W        W79474  29.850  13.458  30.315  0.0848  0.0811 -0.4812
36537W        W79475  30.214  11.793  31.676  0.0023  0.0071  0.1571
36538W        W79476  31.018  14.439  30.399 -0.2344 -0.0886  0.1384
36539W        W79477  28.764  15.230  28.054  0.1822 -0.2471  0.0363
36540W        W79478  29.092  13.739  29.556 -0.1693 -0.2791 -0.2161
36541W        W79479  28.951  13.009  28.784 -0.3418  0.1803 -0.0780
36542W        W79480  28.988  12.577  30.179  0.1243 -0.0790  0.1749
36543W        W79481  30.677  11.570  29.578 -0.1966  0.2471  0.0081
36544W        W79482  32.150  11.254  29.653  0.0044 -0.3088  0.0417
36545W        W79483  29.503  11.455   0.186  0.1177  0.1901 -0.0798
36546W        W79484  32.513  11.971  30.059  0.2442  0.1386 -0.0421
36547W        W79485  30.815  13.670  28.322  0.0258 -0.0881 -0.2576
36548W        W79486  32.529  14.578  29.410 -0.0039 -0.0826  0.3020
36549W        W79487  33.679  11.532  29.598 -0.1193 -0.1100 -0.0540
36550W        W79488  31.709  13.883  27.910 -0.0378  0.0431 -0.2837
36551W        W79489  29.548  13.862  31.409 -0.1774 -0.2566  0.2218
36552W        W79490  29.653  12.927  28.863  0.3343  0.0087  0.0567
36553W        W79491  31.314  11.195   1.546  0.0131  0.2016 -0.2060
36554W        W79492  30.905  11.479  29.050 -0.0656  0.0763 -0.1618
36555W        W79493  30.592  11.573  30.743  0.2236 -0.0230 -0.0128
36556W        W79494  30.187  12.232  29.084  0.3660 -0.1679 -0.0370
36557W        W79495  31.319  13.535  29.550  0.3272 -0.4273 -0.0803
36558W        W79496  31.196  13.091  28.512 -0.0565  0.1819  0.2142
36559W        W79497  29.243  12.870  29.168  0.0366  0.1623 -0.2394
36560W        W79498  32.947  12.349  30.192  0.0877  0.1466  0.1345
36561W        W79499  31.334  14.033  29.528  0.1996  0.1997 -0.1791
36562W        W79500  32.390  12.676  31.378  0.1939 -0.0663 -0.0426
36563W        W79501  32.832  13.284  30.854 -0.0083  0.0051  0.0977
36564W        W79502  30.497  13.089  30.567 -0.1515 -0.2821 -0.3323
36565W        W79503  29.049  11.349  29.096 -0.0229  0.1761 -0.0478
36566W        W79504  28.428  13.640  29.376  0.2412 -0.2657  0.0428
36567W        W79505  29.884  15.414  30.475 -0.0205 -0.1637  0.2498
36568W        W79506  29.682  11.768  28.835 -0.1904  0.0527  0.0511
36569W        W79507  31.519  14.314  30.375 -0.1354 -0.3644  0.0177
36570W        W79508  31.184  14.187  29.033 -0.0262 -0.1136 -0.1191
36571W        W79509  31.477  13.926  31.149  0.1548  0.1315 -0.5313
36572W        W79510  31.074  12.846  30.938 -0.1351 -0.1685 -0.0348
36573W        W79511  32.854  12.865  30.045 -0.0380  0.0781 -0.0007
36574W        W79512  32.070  11.692  29.350 -0.2178 -0.2831 -0.1446
36575W        W79513  29.575  10.775  28.061  0.2594  0.3713  0.3211
36576W        W79514  32.033  15.980  30.177 -0.1075 -0.0539  0.0362
36577W        W79515  29.234  14.403  29.059  0.0841  0.0554 -0.0281
36578W        W79516  28.701  13.796  29.845  0.1628  0.1550 -0.2243
36579W        W79517  30.137  14.986  29.220  0.2381  0.1127 -0.2831
36580W        W79518  33.324  12.455  29.845 -0.1522  0.3777 -0.2584
36581W        W79519  28.376  11.978  31.668 -0.1966  0.4978 -0.3537
36582W        W79520  31.067  11.195  31.772 -0.1018 -0.0955 -0.1609
36583W        W79521  29.270  13.260  27.320 -0.0400  0.1743  0.0382
36584W        W79522  30.129  15.135  31.780  0.2394 -0.1890 -0.1604
36585W        W79523  31.748  11.578  29.735 -0.0950  0.3225 -0.0432
36586W        W79524  31.793  12.546  28.582  0.0099 -0.2713  0.3292
36587W        W79525  31.822  11.858  31.218  0.0548 -0.0417  0.1865
36588W        W79526  32.559  11.787  29.092  0.3194 -0.1334 -0.0574
36589W        W79527  31.540  10.169  28.315  0.1324 -0.0965  0.3222
36590W        W79528  30.195  10.494  29.575 -0.0348  0.2742  0.0898
36591W        W79529  29.494  14.119  30.866  0.0947 -0.2286  0.1003
36592W        W79530  31.238  13.597  28.071  0.0253  0.0342  0.0416
36593W        W79531  31.191  12.930  30.346 -0.1941  0.2282  0.1514
36594W        W79532  30.243  10.606  28.186 -0.3517  0.1253  0.0397
36595W        W79533  31.769  14.290  29.859  0.1856 -0.0238  0.1469
36596W        W79534  30.498  12.595  31.362  0.0188  0.1849  0.0724
36597W        W79535  31.223  13.241  31.709 -0.1393  0.2344 -0.5583
36598W        W79536  31.828  13.799  29.332  0.0139  0.2593  0.2253
36599W        W79537  29.230  11.679  30.560  0.1198 -0.3524  0.1747
36600W        W79538  30.028  11.161  28.930 -0.0116 -0.3510 -0.0265
36601W        W79539  30.840  12.332  30.236  0.0660  0.0262  0.1245
36602W        W79540  29.518  14.254  28.152  0.0435  0.2133  0.2179
36603W        W79541  32.314  12.471  30.814  0.0715 -0.0973 -0.3406
36604W        W79542  32.759  10.584  30.829  0.0153 -0.1779  0.0218
36605W        W79543  29.828  11.916  29.344 -0.1435  0.3240 -0.1187
36606W        W79544  31.138  11.298  31.254  0.0660  0.3493 -0.4442
36607W        W79545  32.278  12.653  28.642 -0.0444 -0.1238  0.2270
36608W        W79546  31.635  11.953  29.309  0.1725 -0.0138 -0.3550
36609W        W79547  29.980  10.631  27.249 -0.0690  0.1366  0.1087
36610W        W79548  30.798  12.029  30.643  0.2206  0.0640 -0.0331
36611W        W79549  30.783  14.606  31.444 -0.1192 -0.1013 -0.0151
36612W        W79550  28.650  12.172  31.190  0.0966 -0.1544  0.0390
36613W        W79551  32.585  12.973  31.775  0.2399  0.0277 -0.0005
36614W        W79552  32.255  13.450  30.147  0.0710  0.2369 -0.1004
36615W        W79553  31.533  11.119  29.784 -0.1183  0.2860  0.0741
36616W        W79554  30.184  11.709  29.929  0.0938 -0.0365  0.0004
36617W        W79555  30.922  14.755  28.986  0.2230  0.2500 -0.1034
36618W        W79556  28.651  13.823  28.648 -0.0137 -0.0506 -0.0384
36619W        W79557  31.043  10.650  30.416 -0.0130 -0.0912 -0.0820
36620W        W79558  30.236  14.191  30.699  0.0723 -0.0044 -0.1737
36621W        W79559  30.196  14.033  27.361  0.0571  0.2000  0.0738
36622W        W79560  30.593  13.530  30.889 -0.1900  0.0899  0.1796
36623W        W79561  29.961  14.121  29.675  0.0879 -0.1362 -0.0218
36624W        W79562  32.628  10.124  30.139 -0.3326  0.1356  0.1969
36625W        W79563  28.993  13.442  30.695  0.0687 -0.1102 -0.2174
36626W        W79564  30.439  12.526  29.437  0.2516  0.0076 -0.1648
36627W        W79565  31.136  12.396  29.677  0.4274 -0.1489 -0.2286
36628W        W79566  32.564  11.671  28.571  0.0983 -0.4461 -0.2431
36629W        W79567  33.160  13.476  28.903  0.0684  0.0557 -0.0813
36630W        W79568  29.753  11.604  30.287 -0.1762  0.1385  0.0020
36631W        W79569  30.760  10.767  28.987 -0.0499  0.2863 -0.1029
36632W        W79570  29.775  13.433  31.356  0.1538  0.0575 -0.4209
36633W        W79571  32.145  11.945  30.822  0.0099 -0.1489 -0.1570
36634W        W79572  31.844  10.644  29.127  0.1635 -0.2449  0.2205
36635W        W79573  32.019  12.909  31.081 -0.0951 -0.0107 -0.1212
36636W        W79574  31.181  14.226  30.821 -0.1839 -0.1971 -0.0493
36637W        W79575  29.469  13.774  28.141 -0.0109 -0.0892 -0.2048
36638W        W79576  33.504  13.812  29.578  0.2252 -0.1405 -0.2739
36639W        W79577  30.660  11.931  29.068 -0.0297  0.1553  0.2112
36640W        W79578  30.555  14.708  29.396 -0.3943  0.1076  0.0269
36641W        W79579  30.085  16.001  29.858 -0.0724  0.2972  0.0106
36642W        W79580  30.102  11.094  28.018  0.0403  0.2344  0.4379
36643W        W79581  28.877  13.487  28.996 -0.0493  0.0802 -0.0223
36644W        W79582  30.081  10.974  31.786 -0.0935  0.0984  0.2641
36645W        W79583  31.621  12.926  30.719 -0.2413  0.1431  0.2494
36646W        W79584  30.411  12.047  30.335  0.1473 -0.0920 -0.1155
36647W        W79585  30.372  12.591  30.218  0.0167  0.1276 -0.0682
36648W        W79586  32.341  12.445  29.900  0.2318 -0.3106  0.2448
36649W        W79587  31.593  13.071  30.091  0.1044  0.1269  0.1089
36650W        W79588  30.410  11.773  31.191 -0.0812 -0.0289 -0.1913
36651W        W79589  29.577  15.665  31.962  0.1592  0.1057 -0.1965
36652W        W79590  31.504  10.191  30.222 -0.0281  0.0896  0.1124
36653W        W79591  32.210  13.614  26.850  0.0231  0.2427 -0.1734
36654W        W79592  31.962  12.283   0.077 -0.0781 -0.0992 -0.1832
36655W        W79593  31.384  14.220  27.911 -0.0671 -0.1620 -0.3473
36656W        W79594  30.245  13.557  31.877 -0.0526  0.1246 -0.1358
36657W        W79595  31.569  13.346  27.762  0.0045 -0.1927  0.2860
36658W        W79596  32.031  11.624  30.148  0.2578 -0.0840  0.2614
36659W        W79597  30.385  14.577  30.440 -0.0310 -0.4018 -0.1929
36660W        W79598  30.137  14.490  29.286  0.3226 -0.0136 -0.0522
36661W        W79599  30.734  13.631  31.585 -0.1785 -0.0674  0.0268
36662W        W79600  33.071  10.104  27.841 -0.1515 -0.4053 -0.0980
36663W        W79601  31.665  13.066  28.378 -0.1135  0.2340 -0.1902
36664W        W79602  31.382  12.783  29.364  0.2008 -0.2122  0.1548
36665W        W79603  32.501  11.463  30.154 -0.1603  0.1075 -0.1578
36666W        W79604  31.664  13.489  28.737  0.1070  0.1096 -0.0890
36667W        W79605  31.501  10.695  30.116 -0.0833  0.4451  0.2117
36668W        W79606  30.754  11.197  30.444  0.0375  0.1289  0.4619
36669W        W79607  30.690  14.010  30.681  0.1265 -0.2415 -0.1122
36670W        W79608  28.713  11.866  30.443  0.1313 -0.0303  0.2318
36671W        W79609  32.127  14.531   0.515  0.0776  0.0528 -0.1235
36672W        W79610  29.506  11.953   0.233 -0.1955 -0.0598  0.1896
36673W        W79611  31.228  11.046  28.408  0.3890 -0.1298  0.1798
36674W        W79612  30.472   9.372  28.138  0.1327 -0.1536 -0.0437
36675W        W79613  29.704  12.408  29.104  0.2131  0.0463 -0.0625
36676W        W79614  32.537  12.910  30.815 -0.1516 -0.2113  0.1886
36677W        W79615  30.874  13.798  27.829  0.0791  0.0070  0.0765
36678W        W79616  32.502  12.784  29.546 -0.2248  0.0504  0.0749
36679W        W79617  29.805  12.047  29.910  0.0266  0.0977 -0.1352
36680W        W79618  32.696  13.260  28.146  0.1668  0.3106 -0.0106
36681W        W79619  30.861  13.222  28.137 -0.1033 -0.0471  0.1363
36682W        W79620  29.476  13.816  29.257 -0.2879  0.2642  0.1179
36683W        W79621  29.960  11.233  29.944  0.2694  0.2061 -0.0781
36684W        W79622  31.427  12.599  31.192 -0.0549 -0.0955  0.1753
36685W        W79623  31.207  11.084  29.034 -0.2824 -0.0549 -0.2119
36686W        W79624  31.555  11.543  29.030 -0.1083 -0.1649 -0.2358
36687W        W79625  31.199  12.039  30.359 -0.2402 -0.1131  0.2734
36688W        W79626  30.176  12.730  29.788 -0.0291 -0.4374 -0.0575
36689W        W79627  29.533  12.265  31.359  0.0116  0.0274  0.1789
36690W        W79628  31.486  13.852  30.624 -0.3182 -0.2256 -0.0704
36691W        W79629  32.367  12.858  28.226 -0.2079  0.5947  0.1219
36692W        W79630  32.990  14.665  29.159 -0.1009 -0.1098 -0.2728
36693W        W79631  32.375  12.816  29.090  0.3000  0.1417  0.1233
36694W        W79632  32.324  12.955  29.942 -0.1750 -0.3886 -0.0774
36695W        W79633  29.399  12.075  29.577  0.0397 -0.0196  0.1053
36696W        W79634  31.253  12.821  31.975 -0.0621  0.1700  0.0509
36697W        W79635  30.349  10.755  29.194 -0.0328 -0.1403  0.0851
36698W        W79636  32.316  10.373  31.661 -0.0945 -0.1725 -0.0719
36699W        W79637  31.925  14.850  27.473 -0.0381  0.2883  0.0983
36700W        W79638  30.975  13.269  30.736 -0.0406  0.2807  0.3655
36701W        W79639  30.739  12.818  28.550  0.1166 -0.0143 -0.1059
36702W        W79640  30.619  13.326  28.643 -0.2255 -0.3384 -0.1899
36703W        W79641  29.545  14.580   0.038 -0.1464 -0.2166 -0.5695
36704W        W79642  30.759  12.881  27.700  0.0759  0.3897  0.1450
36705W        W79643  31.068  13.317  27.656 -0.1939 -0.2583 -0.1258
36706W        W79644  30.791  13.485  30.321  0.1065 -0.0636 -0.0212
36707W        W79645  32.746  12.506   0.570  0.2722  0.0079 -0.1159
36708W        W79646  31.234  11.423  29.445  0.0334  0.0326 -0.0742
36709W        W79647  32.065  12.206  30.433  0.3061 -0.1679  0.0970
36710W        W79648  28.847  12.820  29.760 -0.0599  0.0624 -0.2407
36711W        W79649  31.910  10.811  29.607 -0.0703  0.0644 -0.0947
36712W        W79650  30.287  13.484  31.279 -0.0453 -0.0627  0.3490
36713W        W79651  30.284  13.692  30.487 -0.0932 -0.2261  0.3087
36714W        W79652  30.858  13.636  28.909  0.0409  0.0351  0.0071
36715W        W79653  32.180  11.334  30.579  0.3368 -0.1565 -0.0072
36716W        W79654  32.550  11.764  29.589  0.3106 -0.0073 -0.3463
36717W        W79655  31.170  13.096  29.877 -0.1502 -0.1100  0.0069
36718W        W79656  30.893  11.735  31.164 -0.5449 -0.0825  0.0484
36719W        W79657  29.899  15.010  30.728  0.1385 -0.2082 -0.0150
36720W        W79658  31.087  12.764  28.944  0.0889  0.1517  0.3068
36721W        W79659  30.932  14.081  31.280 -0.0965  0.2278  0.1571
36722W        W79660  32.495  12.641  30.375 -0.2387  0.1564 -0.0120
36723W        W79661  28.608  12.898  30.379  0.0083 -0.0318 -0.2799
36724W        W79662  29.758  10.622   0.612 -0.1126  0.0050  0.1287
36725W        W79663  31.413  13.378  30.857  0.0429 -0.0409 -0.2388
36726W        W79664  31.289  13.423  30.320  0.2990 -0.1520 -0.0617
36727W        W79665  32.778   9.099  29.984 -0.4454  0.1071  0.0807
36728W        W79666  30.540  12.537  28.949 -0.2099  0.4105 -0.1998
36729W        W79667  29.624  15.191  31.186  0.0779  0.1523  0.2621
36730W        W79668  31.077  13.354  31.267 -0.0566 -0.2077  0.0008
36731W        W79669  29.701  14.442  29.973 -0.1141 -0.0653  0.1374
36732W        W79670  32.109  13.208  29.484  0.0024 -0.2368  0.0174
36733W        W79671  31.908  14.650  27.952  0.1147 -0.1110 -0.0050
36734W        W79672  31.910  15.470  30.224 -0.0249  0.3003  0.0487
36735W        W79673  30.519  11.210  29.230 -0.0613  0.0045 -0.2254
36736W        W79674  29.650  13.945  30.030 -0.0394 -0.0938 -0.2521
36737W        W79675  30.188  14.290  28.836  0.0039  0.0873  0.0715
36738W        W79676  32.159  13.893  28.340 -0.0341 -0.2128 -0.2668
36739W        W79677  28.516  15.077  29.341  0.1571  0.3726  0.2281
36740W        W79678  31.927  14.055  31.447 -0.3522  0.1322  0.0821
36741W        W79679  33.373  11.509  28.245  0.1422  0.0528  0.2410
36742W        W79680  32.992  11.958  29.892 -0.0980 -0.2925 -0.1526
36743W        W79681  33.626  10.620  29.227 -0.2386  0.0471 -0.2438
36744W        W79682  31.642  14.960  31.081 -0.0753  0.1117  0.2076
36745W        W79683  30.099  12.803  29.196 -0.0963 -0.1377 -0.2165
36746W        W79684  30.767  10.487  27.931  0.0212  0.2713  0.3738
36747W        W79685  29.230  13.287   0.303  0.0672  0.1537  0.1510
36748W        W79686  33.030  11.850  30.367 -0.1049 -0.1439 -0.2274
36749W        W79687  28.473  15.986  31.567  0.1145 -0.0610 -0.0743
36750W        W79688  31.655  14.348  29.308 -0.0084 -0.1479  0.2201
36751W        W79689  31.163  11.992  29.327 -0.0587 -0.1553 -0.0763
36752W        W79690  28.387  11.354  27.858  0.0102 -0.2103 -0.2111
36753W        W79691  33.411  11.978  29.681 -0.2913  0.2186  0.3087
36754W        W79692  29.884  13.634  27.904 -0.1583  0.0129  0.4438
36755W        W79693  31.968  12.605  29.051  0.1008  0.0368  0.0030
36756W        W79694  29.121  14.089  29.941  0.0362  0.1739  0.1820
36757W        W79695  30.026  15.921  30.345 -0.2121  0.4875  0.2136
36758W        W79696  30.357  16.455  30.059  0.2624 -0.2890 -0.0757
36759W        W79697  29.149  12.553  27.906 -0.3052  0.2886  0.1813
36760W        W79698  34.114  12.924  29.285 -0.2744 -0.3321  0.1831
36761W        W79699  29.149  12.071  30.852 -0.2244 -0.1709 -0.1360
36762W        W79700  31.694  11.767   0.312 -0.1204  0.1848  0.0963
36763W        W79701  29.470  13.170  30.327 -0.1383 -0.2647 -0.0118
36764W        W79702  32.959  11.600  28.832  0.1174 -0.0625 -0.2488
36765W        W79703  29.371  15.414  30.753 -0.0593  0.2090 -0.2745
36766W        W79704  29.527  11.291  28.031 -0.0535 -0.0337 -0.1892
36767W        W79705  30.961  12.271  28.780 -0.2119 -0.1295 -0.0994
36768W        W79706  33.351  12.566  31.434 -0.2535  0.5432 -0.0592
36769W        W79707  31.795  13.564  28.280  0.1715 -0.1864 -0.1904
36770W        W79708  32.337  15.540   0.008  0.2156 -0.1470 -0.2815
36771W        W79709  30.291  11.975  29.442  0.0515 -0.0112  0.2316
36772W        W79710  32.225  10.672  28.783 -0.0027  0.1341 -0.5265
36773W        W79711  29.452  12.521  28.302 -0.0737 -0.1345 -0.1653
36774W        W79712  30.524  11.310  31.842  0.0176 -0.0243  0.3890
36775W        W79713  32.089  13.018  30.368  0.4246  0.1446  0.3088
36776W        W79714  28.588   9.855  30.758  0.2524  0.1287 -0.4760
36777W        W79715  30.654  14.089  27.505  0.2624  0.0836  0.1559
36778W        W79716  32.586  12.103  30.553 -0.2668  0.2200 -0.1699
36779W        W79717  30.825  12.880  29.475  0.1223 -0.0345 -0.1795
36780W        W79718  32.326  13.746  29.562  0.3903  0.1097  0.0242
36781W        W79719  32.806  14.354  30.147 -0.2178 -0.1583 -0.0912
36782W        W79720  29.147  12.213  29.166 -0.2031 -0.0175 -0.0557
36783W        W79721  33.391  13.775  30.564  0.3702 -0.1746 -0.0618
36784W        W79722  33.827  13.178  30.939  0.0336 -0.1244 -0.0478
36785W        W79723  31.516   9.350  30.451 -0.2918  0.0438 -0.0259
36786W        W79724  30.329  12.462  28.314  0.0378 -0.1650 -0.0311
36787W        W79725  29.227  14.807  29.353 -0.1462  0.0556 -0.2123
36788W        W79726  33.311  11.426  30.631  0.0518 -0.1725  0.1813
36789W        W79727  30.786  11.756  30.134  0.4412  0.0249 -0.0924
36790W        W79728  29.947  13.901  28.309 -0.1680  0.1606  0.2791
36791W        W79729  30.972  10.570  30.918 -0.2047 -0.0655 -0.0309
36792W        W79730  31.713  15.072  30.554 -0.2241  0.0355 -0.1259
36793W        W79731  30.798  15.832  31.279  0.0148  0.2436 -0.4482
36794W        W79732  28.893  11.888  28.223 -0.0391 -0.0047  0.0263
36795W        W79733  31.396  15.521  31.847 -0.0766  0.1395 -0.3092
36796W        W79734  30.744  14.597  29.827 -0.0241  0.2062  0.0011
36797W        W79735  30.921  13.834  29.378  0.1489  0.1653  0.2172
36798W        W79736  32.015  14.447  30.553 -0.0289  0.0796 -0.2330
36799W        W79737  29.884  12.098  30.407  0.1210  0.1239  0.1350
36800W        W79738  32.593  13.588  30.585 -0.0215 -0.0533  0.0251
36801W        W79739  31.387  10.695  29.543 -0.0899 -0.4827  0.3089
36802W        W79740  33.206  11.089  28.967  0.1900  0.4144 -0.1899
36803W        W79741  30.174  10.196  30.945 -0.2245  0.0342 -0.1237
36804W        W79742  30.901  15.429  31.610 -0.0851  0.1576  0.0484
36805W        W79743  28.911  12.426  28.424 -0.0231 -0.0421 -0.2409
36806W        W79744  30.872  14.093  28.630 -0.1288 -0.0554 -0.3330
36807W        W79745  30.243  13.693  29.684  0.0792  0.2212 -0.2184
36808W        W79746  31.029   9.992  30.420 -0.0371 -0.2509 -0.1933
36809W        W79747  30.075  12.285  31.241 -0.0743 -0.0006  0.0886
36810W        W79748  29.618  13.400  30.818  0.2936  0.0085  0.1279
36811W        W79749  29.711  11.387  29.191  0.2139 -0.0505 -0.1235
36812W        W79750  31.794  13.463  29.716 -0.1012 -0.4303  0.0520
36813W        W79751  29.623  11.798  30.837  0.2603 -0.2016 -0.2771
36814W        W79752  28.448  11.216  28.405  0.1031 -0.2214 -0.1650
36815W        W79753  30.900  12.397  29.249  0.0494  0.0285  0.0275
36816W        W79754  31.084  13.922  30.380 -0.0054  0.1955  0.3644
36817W        W79755  29.657  11.569  29.679 -0.1829  0.2624 -0.0309
36818W        W79756  32.588  14.780  31.981 -0.4470  0.2747  0.1928
36819W        W79757  29.893  14.138  27.750  0.1354 -0.4618 -0.2454
36820W        W79758  30.501  11.359   0.411 -0.0610 -0.3823 -0.0486
36821W        W79759  29.621  11.397  31.191  0.1406 -0.2488 -0.4312
36822W        W79760  28.977  12.134  27.677  0.0765  0.0138  0.3186
36823W        W79761  31.160  12.423  30.662 -0.3095 -0.0409  0.0359
36824W        W79762  31.382  13.744  29.108  0.2008  0.1334  0.2748
36825W        W79763  32.293  14.925  27.816 -0.3449  0.1981 -0.0631
36826W        W79764  30.093  14.109  30.231 -0.0621  0.0398 -0.0582
36827W        W79765  29.817  15.790  30.817 -0.1237 -0.7999  0.0275
36828W        W79766  29.544  11.303  30.653  0.3019 -0.1853 -0.0444
36829W        W79767  32.526  12.346  29.009 -0.3085  0.2903  0.0484
36830W        W79768  30.461  15.352   0.185  0.0998  0.1090  0.2353
36831W        W79769  32.149  13.524  28.974  0.3078 -0.2746  0.0017
36832W        W79770  32.732  12.291  29.591 -0.0977  0.3591 -0.1436
36833W        W79771  31.899  12.137  28.841  0.1122  0.2860  0.1424
36834W        W79772  28.668  11.103  30.802  0.2527  0.1880 -0.0957
36835W        W79773  31.245  14.116   0.299 -0.0581 -0.1177  0.3832
36836W        W79774  32.142  13.610  31.543 -0.0323 -0.1770 -0.1949
36837W        W79775  30.760  12.954  30.159  0.0591 -0.3039 -0.3404
36838W        W79776  32.296  12.159  28.604  0.1695  0.0232  0.4866
36839W        W79777  29.716  14.335  28.613  0.0345  0.4371  0.1298
36840W        W79778  29.001  13.151  30.223 -0.1581  0.0893  0.2565
36841W        W79779  30.719  11.189  28.713 -0.1401  0.3282  0.1602
36842W        W79780  29.984  12.752  31.952 -0.4465 -0.0608  0.2216
36843W        W79781  31.856  12.795  29.479 -0.0895 -0.2925  0.0910
36844W        W79782  31.706  14.219   0.457 -0.0093 -0.3011  0.0036
36845W        W79783  30.739  10.798  28.326  0.0672  0.3899  0.0767
36846W        W79784  33.056  13.407  28.420 -0.0890  0.1968  0.1009
36847W        W79785  30.239  14.470  29.892 -0.0379  0.2709 -0.0896
36848W        W79786  32.942  12.933   0.606  0.0635  0.0358  0.0879
36849W        W79787  30.559  15.815  30.328 -0.2563 -0.1774 -0.0569
36850W        W79788  32.078  11.945  29.812  0.1157 -0.1049  0.3076
36851W        W79789  29.853  11.110  30.395  0.0417 -0.0369 -0.1320
36852W        W79790  29.793  13.038  29.690  0.2683  0.5001 -0.1223
36853W        W79791  29.272  13.515  29.940 -0.3555 -0.2641  0.0858
36854W        W79792  32.792  13.302  29.938  0.0684 -0.1514  0.2300
36855W        W79793  30.561  14.212  29.595  0.1517  0.0047 -0.0279
36856W        W79794  31.239  10.539  29.038 -0.3326  0.0381  0.1155
36857W        W79795  31.346  16.236  29.661  0.0976 -0.3015  0.1660
36858W        W79796  31.943  12.445  31.378  0.0982 -0.0363 -0.0099
36859W        W79797  31.834  10.447  31.444 -0.1611 -0.0755  0.2192
36860W        W79798  32.201  13.268  30.831 -0.0768 -0.2018  0.0895
36861W        W79799  30.062  11.419   0.043  0.0991  0.5429 -0.0739
36862W        W79800  29.670  13.556  31.884  0.1855 -0.1469  0.0552
36863W        W79801  31.079  16.415   0.548  0.0624  0.0949 -0.0986
36864W        W79802  31.158  14.805  31.707 -0.0308 -0.2022 -0.0739
36865W        W79803  30.045  11.916   0.157 -0.1224  0.0157 -0.1878
36866W        W79804  30.606  12.532  30.713  0.1505  0.0490 -0.1146
36867W        W79805  33.925  10.375  31.452 -0.0156 -0.1717 -0.1070
36868W        W79806  31.366  13.606   0.127 -0.1990 -0.1037  0.0205
36869W        W79807  33.599  13.920  31.008  0.1658  0.0079 -0.0778
36870W        W79808  29.651   9.428  30.069  0.2170  0.1022 -0.2541
36871W        W79809  31.733  11.865   0.853 -0.3221  0.1593 -0.0853
36872W        W79810  30.920  13.271   0.138 -0.0656 -0.2316 -0.0750
36873W        W79811  30.947  11.480   0.238  0.0226  0.1354 -0.2325
36874W        W79812  30.130  15.719   0.034 -0.0114  0.2331 -0.0424
36875W        W79813  29.772  13.906  30.603 -0.3149 -0.2366 -0.2674
36876W        W79814  32.911  13.794   0.804  0.3610 -0.3232  0.2087
36877W        W79815  30.491  11.127   0.827  0.1166  0.0665 -0.2366
36878W        W79816  30.183  13.085  31.611  0.0092 -0.1283  0.0096
36879W        W79817  29.182  11.099   0.057 -0.1290 -0.3463 -0.1025
36880W        W79818  29.148  15.308   0.481 -0.0761  0.2863  0.0121
36881W        W79819  31.919  11.385   0.730  0.1061 -0.0288  0.1963
36882W        W79820  30.546  11.344  30.002 -0.0770 -0.3123  0.0474
36883W        W79821  31.646  11.268  30.493  0.1543  0.0725  0.0040
36884W        W79822  30.591  11.353  31.374 -0.1228 -0.0217  0.2024
36885W        W79823  29.507  12.533  31.828  0.0465 -0.0159 -0.2973
36886W        W79824  30.437  13.920  31.169  0.0993 -0.0702  0.0160
36887W        W79825  30.685  13.182  31.706 -0.2485 -0.2889 -0.1685
36888W        W79826  31.607  14.526   0.047  0.0914  0.4418 -0.0427
36889W        W79827  31.248  14.313   1.414  0.0173  0.0712 -0.2294
36890W        W79828  31.034  11.403  29.923 -0.1221 -0.1333  0.0419
36891W        W79829  31.506  11.494  30.998  0.2436  0.0303 -0.2032
36892W        W79830  32.900  11.011   0.140 -0.0212  0.2436 -0.0238
36893W        W79831  30.085  11.170   0.544 -0.3544 -0.1406 -0.0729
36894W        W79832  30.482  13.980   0.625  0.2672 -0.0563  0.2603
36895W        W79833  31.070  15.239   1.578  0.0253 -0.3200 -0.2912
36896W        W79834  31.263  12.558   1.190  0.1210 -0.0332 -0.1447
36897W        W79835  32.239  11.830   0.076  0.0244 -0.0811  0.2175
36898W        W79836  29.553  13.537   1.175 -0.0523  0.1306 -0.0086
36899W        W79837  32.742  11.955  31.947 -0.0539 -0.1638 -0.4318
36900W        W79838  31.287  11.821  31.912 -0.2126  0.0525  0.1990
36901W        W79839  28.982  10.203   0.595 -0.2157  0.1914 -0.3051
36902W        W79840  31.901  14.927   0.307 -0.0375 -0.2648  0.4218
36903W        W79841  29.913  12.695  31.455  0.1708  0.0932 -0.0128
36904W        W79842  30.974  15.449   0.191 -0.2102 -0.1672 -0.0046
36905W        W79843  31.168   9.954  31.550  0.0950  0.2077 -0.2534
36906W        W79844  31.089  12.825  31.469  0.1847  0.1538  0.0286
36907W        W79845  31.939  13.104  31.584 -0.0362 -0.1159 -0.1136
36908W        W79846  29.096  14.198  31.208 -0.3215 -0.0133 -0.0161
36909W        W79847  31.991  14.025  30.947 -0.0855 -0.1654 -0.3533
36910W        W79848  32.867  10.372  31.638 -0.0254  0.0866 -0.3113
36911W        W79849  31.303  11.045  30.797 -0.1819 -0.0176 -0.1579
36912W        W79850  31.055  13.737  30.856 -0.3241  0.0746  0.1271
36913W        W79851  30.299  10.917  30.252 -0.1775  0.3096  0.1124
36914W        W79852  30.875  12.274  31.136  0.0588 -0.2744 -0.1373
36915W        W79853  31.616  14.008  31.918  0.0780  0.1594 -0.2814
36916W        W79854  30.941  14.960  31.073 -0.0582  0.0190 -0.3786
36917W        W79855  31.132  15.850  30.387  0.0622  0.2664 -0.1414
36918W        W79856  29.955  12.252  31.778 -0.0081 -0.0500 -0.0658
36919W        W79857  29.191  10.768  31.633  0.0947  0.3843  0.0598
36920W        W79858  30.135  13.338  30.800 -0.3432  0.2898  0.2608
36921W        W79859  29.966  13.197   0.257  0.0154  0.1632 -0.1342
36922W        W79860  29.568  12.839   0.275 -0.4889 -0.4530  0.3656
36923W        W79861  32.873  14.895   0.954  0.0187  0.1576 -0.1954
36924W        W79862  31.687  12.315   0.537 -0.0384  0.1798  0.0695
36925W        W79863  32.326  13.493   0.475  0.1725 -0.0366  0.0119
36926W        W79864  30.091  16.763  19.153  0.0312 -0.0997 -0.0837
36927W        W79865  30.374  15.934  18.981  0.0267  0.0372 -0.2033
36928W        W79866  31.951  15.761  17.060  0.0680 -0.2853  0.1287
36929W        W79867  31.274  17.380  17.616  0.3066 -0.1384 -0.0653
36930W        W79868  29.136  14.205  17.915  0.0134  0.1052  0.0568
36931W        W79869  30.383  16.975  17.123 -0.4100  0.0434  0.3067
36932W        W79870  30.498  14.934  18.246 -0.1035  0.0563  0.1484
36933W        W79871  31.901  16.375  18.324  0.0819 -0.1513  0.2948
36934W        W79872  31.755  17.753  19.259 -0.3704 -0.1468  0.0621
36935W        W79873  31.283  18.517  16.860  0.1073 -0.3836 -0.2315
36936W        W79874  30.442  15.313  19.361  0.3616 -0.3002 -0.0523
36937W        W79875  30.329  17.677  18.941 -0.0653 -0.2561 -0.0570
36938W        W79876  30.759  13.683  17.070  0.3868  0.2862  0.1069
36939W        W79877  27.351  14.142  18.498  0.0337  0.0869  0.4273
36940W        W79878  31.291  14.914  20.132 -0.1212 -0.1375  0.3446
36941W        W79879  30.363  16.333  17.976  0.1185  0.1656  0.3764
36942W        W79880  28.634  16.064  18.965 -0.0334 -0.0443 -0.0114
36943W        W79881  30.342  14.527  16.934  0.2485  0.2592  0.0550
36944W        W79882  31.523  17.491  18.947 -0.2075  0.3251  0.1810
36945W        W79883  32.752  15.440  20.169  0.0507 -0.3494 -0.0028
36946W        W79884  32.038  14.146  19.736  0.1713 -0.0537 -0.0857
36947W        W79885  30.421  17.698  16.596 -0.3718  0.0058  0.1413
36948W        W79886  29.105  15.525  16.508 -0.1777 -0.0498 -0.1091
36949W        W79887  29.101  14.997  18.617 -0.0013 -0.2515 -0.0102
36950W        W79888  29.583  15.477  17.299  0.1129 -0.2090 -0.1822
36951W        W79889  30.979  16.700  18.287 -0.1173  0.0302 -0.2809
36952W        W79890  32.505  17.071  18.109  0.3660 -0.5777 -0.0343
36953W        W79891  32.006  16.863  17.349 -0.0671  0.1366  0.3229
36954W        W79892  30.912  15.702  19.154 -0.3991 -0.1319 -0.1342
36955W        W79893  31.667  15.259  20.848 -0.2569  0.3979  0.0272
36956W        W79894  28.162  17.137  18.380  0.3005  0.1183  0.0075
36957W        W79895  29.335  18.985  18.620  0.3059 -0.2155  0.0016
36958W        W79896  29.535  16.465  19.047  0.0440  0.0545 -0.0276
36959W        W79897  34.209  17.261  16.727  0.2906  0.0413  0.1336
36960W        W79898  32.890  15.825  20.414  0.0568  0.0222  0.2375
36961W        W79899  30.109  18.573  20.348  0.0913 -0.1275  0.0191
36962W        W79900  30.653  18.012  16.924  0.1089 -0.0055 -0.0103
36963W        W79901  30.757  17.623  21.090 -0.2933  0.0328 -0.0813
36964W        W79902  30.886  16.796  21.499  0.0963 -0.2389  0.1845
36965W        W79903  32.036  15.747  19.810  0.3608  0.0836  0.0640
36966W        W79904  31.388  15.760  19.329 -0.0375 -0.1393 -0.0395
36967W        W79905  29.857  19.582  18.155  0.0846 -0.4077 -0.1664
36968W        W79906  30.788  16.262  18.779 -0.0425  0.2421  0.3371
36969W        W79907  30.057  16.051  19.721  0.1894  0.4037 -0.1311
36970W        W79908  30.550  18.828  17.945 -0.0703 -0.0350  0.5148
36971W        W79909  33.989  15.574  20.500 -0.1970 -0.2212  0.1539
36972W        W79910  30.410  18.813  17.071  0.0100  0.3447 -0.1455
36973W        W79911  32.113  15.712  16.566 -0.0613 -0.4001  0.0944
36974W        W79912  30.692  15.108  15.839 -0.1938  0.4895  0.2545
36975W        W79913  32.314  15.329  17.219 -0.1175 -0.2995  0.1161
36976W        W79914  30.032  15.616  19.016  0.0280 -0.3688 -0.1872
36977W        W79915  32.062  16.714  18.614 -0.1641 -0.1693 -0.0084
36978W        W79916  29.669  15.308  16.772 -0.0529  0.3416 -0.1145
36979W        W79917  32.068  16.685  20.369 -0.0495 -0.0676 -0.2547
36980W        W79918  30.868  16.161  16.895 -0.3028 -0.0365 -0.0921
36981W        W79919  30.586  16.038  18.336 -0.4432 -0.0040 -0.0329
36982W        W79920  31.120  17.455  18.568 -0.2908 -0.1099 -0.1229
36983W        W79921  29.322  16.416  19.710 -0.2995  0.0117 -0.1834
36984W        W79922  32.888  17.567  16.687 -0.3001 -0.2542 -0.0626
36985W        W79923  32.451  17.698  17.517  0.1164 -0.1720  0.3260
36986W        W79924  30.191  17.617  17.110  0.0425  0.1121  0.1831
36987W        W79925  28.702  15.279  18.897 -0.4635 -0.1542  0.2257
36988W        W79926  29.623  16.048  17.923  0.2237 -0.2228 -0.1307
36989W        W79927  28.565  16.759  19.204 -0.3803 -0.0690 -0.3047
36990W        W79928  29.493  14.223  17.462  0.1408 -0.0886 -0.0308
36991W        W79929  32.113  17.132  20.802  0.0184  0.0129 -0.1114
36992W        W79930  29.842  16.638  18.650 -0.0781 -0.2895  0.0054
36993W        W79931  31.797  16.553  17.715 -0.0818  0.1398 -0.1241
36994W        W79932  30.089  16.806  17.841 -0.1753  0.0302 -0.1860
36995W        W79933  32.293  17.139  17.667 -0.1272  0.1038  0.1502
36996W        W79934  33.825  16.032  17.142  0.2902 -0.0709 -0.0046
36997W        W79935  32.069  15.242  16.761 -0.3198 -0.2042 -0.4054
36998W        W79936  31.704  14.825  18.867  0.3795 -0.0388  0.3710
36999W        W79937  29.115  16.496  16.290 -0.1984  0.1120  0.0938
37000W        W79938  30.533  16.570  16.906  0.1560 -0.3897  0.2221
37001W        W79939  32.079  16.781  18.108  0.0403 -0.0108 -0.1974
37002W        W79940  32.866  14.446  16.348  0.0619  0.1855 -0.1574
37003W        W79941  30.522  18.211  19.034 -0.1224  0.1653  0.0069
37004W        W79942  31.370  14.346  19.522  0.0988  0.0016  0.0179
37005W        W79943  31.532  17.217  19.353 -0.0108  0.0422 -0.1224
37006W        W79944  29.445  16.435  18.245  0.0491 -0.1240 -0.1910
37007W        W79945  27.804  17.148  18.709 -0.1887  0.0033 -0.0759
37008W        W79946  30.012  15.747  17.680 -0.1042 -0.1681  0.1787
37009W        W79947  28.450  15.590  18.395 -0.3795  0.2928  0.0092
37010W        W79948  29.639  16.888  18.140 -0.1089  0.0651 -0.1690
37011W        W79949  31.758  15.903  17.477  0.0421 -0.1161  0.1702
37012W        W79950  30.554  15.012  18.959 -0.2213 -0.2918  0.2020
37013W        W79951  32.631  14.491  17.176 -0.0845  0.1945  0.0465
37014W        W79952  29.848  16.875  16.736  0.1164 -0.2655  0.1475
37015W        W79953  32.878  17.448  17.184  0.3703  0.0746 -0.1777
37016W        W79954  32.738  15.483  15.866 -0.2175 -0.0349  0.0967
37017W        W79955  29.968  17.178  17.124 -0.0446  0.1261 -0.1873
37018W        W79956  29.684  15.017  19.375 -0.1895  0.0282  0.0551
37019W        W79957  29.763  15.604  18.142  0.0819 -0.0469 -0.3982
37020W        W79958  30.216  14.514  19.864 -0.0690 -0.0554  0.0057
37021W        W79959  30.257  15.428  18.079  0.0475 -0.1443 -0.0023
37022W        W79960  32.654  15.286  18.790  0.0877 -0.0078  0.2906
37023W        W79961  30.882  14.259  16.981  0.0698  0.0515 -0.2048
37024W        W79962  31.496  16.165  18.531  0.0923  0.0623  0.1360
37025W        W79963  30.467  15.268  16.253 -0.2627 -0.0677  0.1485
37026W        W79964  29.332  17.680  16.801  0.0122 -0.3973  0.1813
37027W        W79965  32.489  16.410  20.057  0.1312  0.1379  0.2507
37028W        W79966  31.725  17.312  16.454  0.0376 -0.3206  0.3829
37029W        W79967  32.459  16.595  19.514  0.0272  0.1435 -0.2170
37030W        W79968  30.807  16.392  17.806 -0.1566 -0.2043 -0.0483
37031W        W79969  30.416  14.162  19.517  0.0914  0.0678  0.1927
37032W        W79970  29.084  15.969  16.323  0.3489  0.1498 -0.1918
37033W        W79971  28.915  18.610  18.618  0.2713  0.1660  0.1372
37034W        W79972  29.662  15.918  16.852  0.0212  0.1671  0.0606
37035W        W79973  31.200  14.009  17.292  0.0229 -0.1171 -0.0917
37036W        W79974  31.985  15.268  18.298 -0.5827 -0.3691 -0.1590
37037W        W79975  30.838  16.691  17.277 -0.0618 -0.3224  0.3582
37038W        W79976  30.569  16.509  18.378  0.2901 -0.1296  0.0793
37039W        W79977  31.900  15.598  19.325 -0.2180  0.4869  0.0072
37040W        W79978  32.570  16.073  19.373 -0.0926  0.2055 -0.0430
37041W        W79979  30.028  17.991  18.128  0.0629  0.1024  0.0944
37042W        W79980  30.196  14.373  16.130  0.1053  0.1444 -0.0444
37043W        W79981  31.907  17.850  16.989 -0.0256  0.0845  0.1232
37044W        W79982  29.395  17.487  18.727 -0.0161 -0.1782 -0.0714
37045W        W79983  29.041  15.356  18.266 -0.0712  0.0852 -0.0154
37046W        W79984  29.565  17.703  18.276  0.3034 -0.0037 -0.0881
37047W        W79985  30.870  14.480  19.409 -0.1275 -0.0200  0.1642
37048W        W79986  29.058  16.998  20.253  0.3300  0.0089  0.0631
37049W        W79987  29.935  14.343  19.504 -0.1603 -0.0353  0.1888
37050W        W79988  28.765  16.164  16.647 -0.2654 -0.3103  0.2850
37051W        W79989  29.965  17.477  19.805  0.0636  0.0250 -0.0306
37052W        W79990  31.686  13.884  17.540  0.0318 -0.1458 -0.2535
37053W        W79991  32.934  14.970  17.262 -0.0126 -0.1453 -0.0153
37054W        W79992  31.340  16.419  19.578  0.3235 -0.2432  0.1478
37055W        W79993  31.234  16.553  16.952  0.0205  0.1478 -0.0538
37056W        W79994  31.378  14.939  17.479  0.1744  0.4724  0.0496
37057W        W79995  31.566  14.047  16.345 -0.1232 -0.1806  0.2658
37058W        W79996  29.472  17.236  21.300  0.0330  0.3007  0.1521
37059W        W79997  30.229  17.201  17.591 -0.2444  0.2220  0.1067
37060W        W79998  29.904  17.473  18.018  0.2026 -0.0313  0.0224
37061W        W79999  31.627  14.640  17.906 -0.1258  0.1624 -0.0392
37062W        W80000  33.171  17.028  17.247  0.1612  0.1099  0.1313
37063W        W80001  29.997  15.158  18.623 -0.0318 -0.1946 -0.1984
37064W        W80002  30.936  16.698  21.023  0.0966 -0.0819  0.3715
37065W        W80003  30.018  17.608  18.561  0.0083  0.1280  0.2093
37066W        W80004  29.606  15.000  18.873 -0.0328 -0.0011  0.0330
37067W        W80005  30.985  15.256  17.405 -0.1323  0.0323  0.1761
37068W        W80006  30.770  14.570  17.908  0.3254 -0.0037 -0.1289
37069W        W80007  27.871  18.799  16.628  0.2162  0.1165 -0.1452
37070W        W80008  31.245  16.996  19.000  0.0407 -0.0039  0.2529
37071W        W80009  31.358  15.124  18.372  0.3684 -0.2100 -0.2931
37072W        W80010  31.070  14.054  19.180  0.3831 -0.0775 -0.0730
37073W        W80011  31.682  16.135  19.297 -0.0097  0.3313 -0.2540
37074W        W80012  30.545  16.929  18.033  0.0691 -0.3496  0.0903
37075W        W80013  30.797  16.996  18.687  0.0009 -0.2186  0.2726
37076W        W80014  28.533  15.590  17.375 -0.0600 -0.1634  0.2183
37077W        W80015  31.706  15.168  17.916  0.1170 -0.0994 -0.1313
37078W        W80016  29.542  15.551  19.182 -0.2986  0.0163  0.0626
37079W        W80017  32.473  16.871  18.807  0.0373  0.1896  0.4832
37080W        W80018  31.669  16.770  20.778 -0.0040 -0.2205  0.1108
37081W        W80019  31.796  17.080  18.884  0.2877 -0.0207 -0.0951
37082W        W80020  31.275  14.502  20.433 -0.2135  0.2366 -0.0396
37083W        W80021  31.783  14.768  18.370 -0.3912  0.1157  0.4245
37084W        W80022  29.095  18.190  18.823 -0.2011  0.0492  0.2626
37085W        W80023  29.880  18.555  17.326 -0.3236 -0.0064 -0.0412
37086W        W80024  31.222  14.397  17.662 -0.0741 -0.1887 -0.2131
37087W        W80025  30.975  17.292  18.075 -0.5204  0.1280  0.3619
37088W        W80026  29.236  18.362  17.788 -0.0014  0.1268 -0.1660
37089W        W80027  30.576  17.040  19.314  0.2597 -0.3194  0.2201
37090W        W80028  29.981  18.607  18.902  0.1376 -0.0424  0.0980
37091W        W80029  33.322  13.681  19.462 -0.4340 -0.0027  0.1522
37092W        W80030  30.836  18.312  17.991  0.1444 -0.0645  0.0168
37093W        W80031  28.658  16.329  16.166 -0.1614 -0.1953 -0.1309
37094W        W80032  29.209  15.277  16.915  0.0900 -0.1713 -0.1562
37095W        W80033  31.513  15.939  18.042 -0.1530  0.0392 -0.1825
37096W        W80034  31.242  17.085  16.528  0.0673  0.2420  0.0308
37097W        W80035  29.636  14.708  18.500  0.2672 -0.0911 -0.1150
37098W        W80036  29.258  15.434  18.785  0.0960  0.0802 -0.1295
37099W        W80037  28.256  19.347  19.399  0.1041  0.0254  0.1632
37100W        W80038  31.666  17.075  19.829 -0.0466 -0.2148  0.1625
37101W        W80039  31.335  14.998  16.494  0.1388 -0.0187  0.0919
37102W        W80040  32.773  15.801  18.921 -0.0011  0.0401 -0.0485
37103W        W80041  30.313  16.342  19.314 -0.0009  0.1209 -0.1175
37104W        W80042  28.587  15.829  16.172  0.0485 -0.1452  0.2280
37105W        W80043  33.690  15.149  19.121  0.1717 -0.3495 -0.0791
37106W        W80044  30.689  15.296  17.829  0.1457  0.0065  0.0293
37107W        W80045  29.494  18.278  17.373  0.0592 -0.0968 -0.0595
37108W        W80046  31.728  16.607  19.882 -0.1601 -0.0960  0.0160
37109W        W80047  29.927  16.356  17.724 -0.2374 -0.0732  0.0241
37110W        W80048  29.180  17.178  18.387  0.1009  0.2810 -0.0842
37111W        W80049  29.593  15.959  19.484  0.2456  0.1819 -0.0492
37112W        W80050  31.673  16.701  19.350 -0.0467 -0.1450 -0.0525
37113W        W80051  31.364  14.414  18.985 -0.1339  0.0512  0.0821
37114W        W80052  31.164  14.601  16.816 -0.0122  0.0237  0.4844
37115W        W80053  30.292  14.963  17.727 -0.0540 -0.2655  0.1167
37116W        W80054  31.468  15.574  19.823 -0.0810 -0.1230 -0.3203
37117W        W80055  33.120  14.420  18.740 -0.2699 -0.0099 -0.0910
37118W        W80056  29.998  17.411  21.083 -0.2911 -0.0277 -0.2184
37119W        W80057  30.997  14.201  18.128  0.0484  0.3173  0.1407
37120W        W80058  31.749  18.376  18.232 -0.0867  0.0215  0.3072
37121W        W80059  31.190  15.661  20.277 -0.1493  0.1242 -0.4781
37122W        W80060  30.018  18.093  17.191 -0.0453  0.1224  0.4351
37123W        W80061  29.550  15.225  18.410 -0.1801 -0.1616  0.0689
37124W        W80062  30.919  16.616  16.532  0.3694 -0.0079 -0.0418
37125W        W80063  30.881  15.010  18.602 -0.0870 -0.0413 -0.0360
37126W        W80064  29.229  16.780  19.272  0.1534 -0.2448  0.2592
37127W        W80065  29.082  16.939  17.048  0.1169 -0.3975  0.0326
37128W        W80066  29.798  17.847  21.330  0.2214  0.2738 -0.0420
37129W        W80067  33.729  14.954  16.566  0.3376 -0.0587  0.3499
37130W        W80068  31.356  16.075  17.080 -0.3019  0.0465 -0.0555
37131W        W80069  32.023  16.250  18.797  0.0195  0.0468 -0.2933
37132W        W80070  31.942  15.744  20.600 -0.3027 -0.1640 -0.0941
37133W        W80071  30.440  15.985  17.031  0.2919 -0.0537 -0.1846
37134W        W80072  31.778  14.023  21.018 -0.0617 -0.0707  0.1985
37135W        W80073  31.501  15.247  19.356  0.0030  0.1894  0.2202
37136W        W80074  33.043  16.528  17.092  0.0611 -0.0381  0.2942
37137W        W80075  30.309  15.593  20.514  0.1479 -0.2749  0.1205
37138W        W80076  31.473  18.022  22.203  0.2253 -0.0436  0.1923
37139W        W80077  27.825  17.022  19.777 -0.1680  0.0058  0.0876
37140W        W80078  30.403  15.631  17.316 -0.2349 -0.1000  0.1282
37141W        W80079  31.806  14.888  17.122 -0.0957 -0.0019 -0.1727
37142W        W80080  27.819  16.214  19.301  0.0797 -0.1082  0.4096
37143W        W80081  32.781  17.048  17.579 -0.3823  0.0200  0.0243
37144W        W80082  31.875  16.766  16.448  0.1386  0.0399  0.0490
37145W        W80083  30.976  15.220  19.389  0.0050  0.1830 -0.1145
37146W        W80084  28.663  16.214  17.690  0.0496 -0.0259  0.0105
37147W        W80085  32.481  16.562  17.867  0.1068 -0.1504  0.0923
37148W        W80086  29.969  16.015  17.253  0.0430 -0.0214  0.4713
37149W        W80087  30.348  16.233  17.448  0.0027 -0.1919  0.1070
37150W        W80088  31.709  14.589  19.822 -0.3316 -0.0321  0.0178
37151W        W80089  32.615  15.512  19.363  0.0163  0.1203 -0.1126
37152W        W80090  31.097  15.754  18.684 -0.1017  0.2049  0.1249
37153W        W80091  32.190  15.521  20.201  0.3670 -0.0674 -0.0541
37154W        W80092  31.977  16.247  20.081 -0.2534 -0.0163  0.0507
37155W        W80093  31.242  16.125  19.017  0.1012  0.0814  0.1676
37156W        W80094  29.755  14.594  19.061  0.0888  0.1133  0.1356
37157W        W80095  32.222  15.410  21.029 -0.1337 -0.3319  0.1184
37158W        W80096  30.336  15.246  16.776 -0.1262  0.2347 -0.1991
37159W        W80097  32.445  14.220  20.021 -0.0751 -0.2033  0.2729
37160W        W80098  32.745  15.767  17.793  0.1457  0.2353 -0.1949
37161W        W80099  30.480  15.826  17.848  0.1657  0.1771 -0.4219
37162W        W80100  30.203  14.259  18.989 -0.1333 -0.1309  0.1497
37163W        W80101  31.052  16.166  19.954  0.5078 -0.0701  0.1602
37164W        W80102  30.583  15.047  17.167  0.2576  0.0832  0.1135
37165W        W80103  30.298  15.075  21.665 -0.0927 -0.0059  0.1525
37166W        W80104  31.492  17.648  17.225 -0.0321 -0.0411  0.1305
37167W        W80105  31.596  16.820  18.467  0.2230 -0.2393 -0.0459
37168W        W80106  31.260  16.260  17.541  0.0963 -0.0587  0.0464
37169W        W80107  29.474  16.003  17.351  0.1199 -0.0528 -0.0832
37170W        W80108  30.798  18.786  21.088 -0.2027 -0.0556  0.5627
37171W        W80109  30.696  14.829  16.743 -0.0958  0.3531  0.2110
37172W        W80110  29.170  15.950  16.843  0.2658  0.1651  0.1682
37173W        W80111  32.818  17.063  18.491 -0.1306  0.0708  0.2999
37174W        W80112  31.199  16.665  20.557 -0.0533  0.1373 -0.2887
37175W        W80113  31.281  14.000  16.797 -0.0556  0.1582 -0.0537
37176W        W80114  32.554  15.066  20.754  0.2080 -0.2693  0.5220
37177W        W80115  29.088  17.074  18.892 -0.2023  0.3751 -0.3671
37178W        W80116  31.220  15.548  18.223  0.0230 -0.1111 -0.2242
37179W        W80117  31.085  16.642  20.072 -0.1355 -0.3687 -0.0940
37180W        W80118  30.160  16.975  18.311  0.1088 -0.1427  0.1659
37181W        W80119  30.291  18.004  18.561  0.4777 -0.1948 -0.0564
37182W        W80120  32.000  14.863  17.568 -0.0555 -0.3091  0.0650
37183W        W80121  32.549  16.633  18.432 -0.0209  0.0775  0.0799
37184W        W80122  31.188  15.665  16.688 -0.0332 -0.0664 -0.0317
37185W        W80123  32.618  16.917  20.883 -0.3514 -0.0986 -0.4518
37186W        W80124  31.038  17.374  22.828 -0.2205  0.0690 -0.2236
37187W        W80125  30.029  16.588  17.215 -0.0559 -0.0076  0.0716
37188W        W80126  31.688  17.002  20.321 -0.4008  0.2913  0.2461
37189W        W80127  33.406  17.291  17.686 -0.3282  0.0176  0.0091
37190W        W80128  30.230  17.128  18.741 -0.1247 -0.4164  0.0562
37191W        W80129  28.379  16.190  19.434 -0.2393 -0.4008  0.3549
37192W        W80130  31.472  16.282  20.206  0.3299 -0.0158 -0.1969
37193W        W80131  31.318  15.333  18.843  0.4849 -0.2382 -0.0592
37194W        W80132  31.806  13.727  18.028 -0.0922 -0.3219 -0.2439
37195W        W80133  32.014  17.165  16.886  0.0640 -0.3322 -0.1626
37196W        W80134  30.094  17.829  19.407 -0.1675  0.0048  0.3311
37197W        W80135  28.135  16.601  17.722 -0.0880  0.2439  0.0371
37198W        W80136  29.570  19.753  16.452 -0.2273  0.2233 -0.0088
37199W        W80137  30.751  18.451  16.620  0.2563 -0.0555  0.0068
37200W        W80138  30.801  16.967  16.873  0.5723 -0.2034 -0.0925
37201W        W80139  32.019  17.371  19.331  0.3393  0.1690  0.3144
37202W        W80140  31.283  14.597  18.456 -0.1198  0.0941 -0.0105
37203W        W80141  29.055  18.251  19.348 -0.2171 -0.0552  0.0318
37204W        W80142  29.696  17.760  17.113 -0.0348  0.1425  0.0692
37205W        W80143  30.993  17.772  17.309  0.2238 -0.0677 -0.0193
37206W        W80144  30.469  19.528  19.694 -0.2396  0.2638  0.3050
37207W        W80145  32.600  17.297  19.947  0.3883  0.0270  0.1124
37208W        W80146  33.334  15.018  16.905 -0.1381  0.0064  0.1112
37209W        W80147  31.918  15.819  18.317 -0.1589 -0.0720  0.1406
37210W        W80148  31.363  15.583  17.734 -0.1353  0.2318  0.0396
37211W        W80149  30.917  16.617  19.128  0.2396  0.0184  0.0798
37212W        W80150  30.804  16.177  19.410 -0.3678 -0.1224 -0.2814
37213W        W80151  31.596  14.501  17.290 -0.1748 -0.2311  0.1393
37214W        W80152  30.655  17.824  19.365 -0.1926 -0.1597 -0.1444
37215W        W80153  32.497  15.583  20.618 -0.1487 -0.4257 -0.3092
37216W        W80154  30.415  17.410  20.792 -0.0568 -0.1801 -0.1613
37217W        W80155  31.054  17.511  16.773  0.1139  0.1432 -0.1328
37218W        W80156  29.072  15.537  17.369 -0.0715  0.0451 -0.0849
37219W        W80157  30.456  16.701  17.557  0.2860  0.4436 -0.1677
37220W        W80158  32.949  14.841  18.464  0.0224 -0.1583 -0.1264
37221W        W80159  31.059  16.359  16.071 -0.1040 -0.0979  0.0999
37222W        W80160  31.673  16.565  18.847 -0.0470 -0.1257  0.1943
37223W        W80161  31.387  18.391  18.565  0.0760 -0.0583 -0.2148
37224W        W80162  29.423  17.296  17.916 -0.0041 -0.0782  0.1003
37225W        W80163  31.709  17.569  20.017 -0.0238  0.0852 -0.0222
37226W        W80164  29.100  14.765  16.785 -0.2370 -0.0864  0.1045
37227W        W80165  32.828  14.571  17.597 -0.1698  0.3045  0.2756
37228W        W80166  28.807  15.285  19.485 -0.0504 -0.1049  0.1148
37229W        W80167  32.749  12.996  19.061  0.2621 -0.0734  0.1555
37230W        W80168  30.473  17.876  17.460  0.1458 -0.0640  0.0315
37231W        W80169  33.291  16.004  17.424 -0.0192  0.3534 -0.1523
37232W        W80170  31.714  17.261  21.177 -0.2499 -0.0643  0.2139
37233W        W80171  28.363  16.234  20.029 -0.0355  0.4723  0.0180
37234W        W80172  30.179  15.661  18.494  0.1892 -0.1588 -0.2217
37235W        W80173  32.279  16.501  20.776  0.0351  0.2020 -0.1259
37236W        W80174  30.818  15.261  16.574 -0.1007 -0.0839 -0.3774
37237W        W80175  31.991  17.543  20.556  0.1152  0.1723 -0.1011
37238W        W80176  28.743  15.135  16.682  0.0202  0.0421  0.2001
37239W        W80177  30.864  14.789  16.306 -0.0038 -0.0756  0.3723
37240W        W80178  29.569  16.816  17.140 -0.0976 -0.0837 -0.0016
37241W        W80179  31.102  14.820  19.006  0.0886 -0.1519  0.0436
37242W        W80180  32.090  16.228  19.603 -0.1376 -0.0766 -0.1025
37243W        W80181  28.879  13.804  17.009 -0.3210 -0.2797  0.1471
37244W        W80182  32.082  17.480  17.308  0.1251 -0.2773  0.0253
37245W        W80183  32.296  15.269  17.763  0.1670  0.1457  0.0404
37246W        W80184  30.577  19.379  16.958  0.0761  0.1575  0.3442
37247W        W80185  30.939  16.878  17.765  0.0558  0.1887 -0.0562
37248W        W80186  31.209  17.799  19.250  0.3285  0.1986 -0.1267
37249W        W80187  30.503  14.898  20.100 -0.0696 -0.2372  0.1497
37250W        W80188  30.170  18.447  19.861  0.1390 -0.0062  0.0781
37251W        W80189  31.781  17.870  18.146 -0.0028 -0.1613 -0.1445
37252W        W80190  31.773  14.066  17.088 -0.2288 -0.1902  0.1487
37253W        W80191  30.174  14.489  18.099 -0.0697 -0.3483  0.0316
37254W        W80192  28.806  18.251  17.335 -0.0553  0.0382  0.0858
37255W        W80193  33.354  14.940  18.765 -0.2044 -0.1100  0.1026
37256W        W80194  31.647  15.819  20.207  0.4444 -0.1010  0.0232
37257W        W80195  29.160  16.522  16.800  0.0679  0.0310 -0.0136
37258W        W80196  32.640  14.710  18.854 -0.1558 -0.0844 -0.0275
37259W        W80197  30.451  16.802  20.180  0.1049 -0.0922 -0.1357
37260W        W80198  30.408  17.298  20.255 -0.1107 -0.2760 -0.1991
37261W        W80199  28.711  16.527  17.048 -0.0046 -0.5660 -0.1170
37262W        W80200  29.908  16.104  19.111  0.0576 -0.1854  0.3467
37263W        W80201  29.501  17.757  17.743 -0.1561  0.2476 -0.6500
37264W        W80202  30.369  18.505  17.598 -0.0592  0.3185  0.1484
37265W        W80203  31.132  18.000  18.295 -0.3221  0.2628  0.0538
37266W        W80204  32.940  16.195  17.995  0.1409  0.0433 -0.1057
37267W        W80205  32.905  16.494  17.577 -0.1568 -0.1168  0.1674
37268W        W80206  29.482  14.996  17.895  0.1010  0.0033  0.0163
37269W        W80207  33.399  15.208  18.114 -0.0347  0.0648 -0.4437
37270W        W80208  32.797  15.308  16.846  0.3506  0.3365  0.1508
37271W        W80209  29.573  16.378  17.029 -0.3467 -0.0436 -0.3360
37272W        W80210  28.936  16.110  15.873  0.1140  0.0277  0.2398
37273W        W80211  29.600  17.987  16.477  0.0768 -0.3178 -0.1568
37274W        W80212  28.815  17.782  16.990 -0.1910  0.0129 -0.3891
37275W        W80213  30.747  12.309  19.618 -0.1447 -0.3860 -0.0377
37276W        W80214  30.397  14.627  19.329 -0.0306 -0.2926  0.0161
37277W        W80215  29.127  16.487  17.315  0.1238  0.2368 -0.4524
37278W        W80216  29.908  14.862  16.999  0.0279  0.1613  0.0115
37279W        W80217  31.480  17.751  16.694 -0.1019 -0.4719 -0.1242
37280W        W80218  29.955  14.923  18.179 -0.1406 -0.1592 -0.1822
37281W        W80219  27.651  14.678  17.939 -0.0365  0.1597 -0.0733
37282W        W80220  31.674  17.422  18.450 -0.2665  0.1933  0.1925
37283W        W80221  31.510  17.260  16.952  0.2057 -0.1717 -0.0432
37284W        W80222  31.127  14.963  17.946  0.2462  0.1057 -0.1517
37285W        W80223  32.157  17.656  21.030  0.0540  0.1220  0.2086
37286W        W80224  29.839  17.461  16.612  0.0374  0.2229  0.1758
37287W        W80225  29.851  14.034  19.928 -0.0272 -0.1637  0.1325
37288W        W80226  31.241  13.464  19.325 -0.0575  0.2288 -0.1894
37289W        W80227  28.916  13.784  16.031 -0.1298  0.1786  0.0867
37290W        W80228  30.051  16.012  18.149 -0.3100  0.2945  0.0629
37291W        W80229  30.556  17.462  18.476 -0.0068  0.0347 -0.1730
37292W        W80230  30.723  17.300  16.478 -0.2571  0.1538  0.1062
37293W        W80231  30.784  16.655  19.649  0.1164  0.0461 -0.0302
37294W        W80232  30.843  17.500  20.399  0.2545  0.0602  0.2620
37295W        W80233  28.802  14.553  18.550 -0.1483  0.1860  0.1012
37296W        W80234  31.424  16.989  17.983 -0.1062 -0.0589 -0.0771
37297W        W80235  31.169  16.492  18.696  0.1602  0.0448 -0.2697
37298W        W80236  33.373  17.592  17.193  0.0057  0.1573 -0.2804
37299W        W80237  31.730  15.887  18.875 -0.1014 -0.1944 -0.1322
37300W        W80238  30.577  15.495  18.816 -0.4673 -0.4560  0.0660
37301W        W80239  30.246  14.139  18.444 -0.0865  0.1931  0.1165
37302W        W80240  29.338  15.954  18.991 -0.4151 -0.1702 -0.2779
37303W        W80241  33.315  16.407  18.317  0.2440 -0.0485 -0.1037
37304W        W80242  30.226  14.625  18.587  0.3774  0.3124 -0.2644
37305W        W80243  33.143  15.325  18.518  0.2735 -0.0213  0.0275
37306W        W80244  30.664  17.424  17.031  0.4448  0.4208  0.0886
37307W        W80245  28.397  15.665  18.890  0.0422  0.0468 -0.2540
37308W        W80246  31.052  16.186  18.333 -0.2729 -0.0590  0.1472
37309W        W80247  30.661  14.483  18.901  0.2500 -0.1264 -0.2495
37310W        W80248  30.823  17.400  18.999 -0.0911  0.1658 -0.1110
37311W        W80249  31.846  15.316  18.908 -0.1460  0.1299  0.1661
37312W        W80250  31.077  17.172  17.224 -0.2852 -0.1291 -0.1659
37313W        W80251  32.180  16.435  16.183  0.0704 -0.0353 -0.4293
37314W        W80252  31.294  19.340  19.809  0.0425 -0.1367  0.0840
37315W        W80253  32.214  18.164  21.635 -0.0166 -0.0951 -0.1713
37316W        W80254  31.975  18.352  19.789  0.4718 -0.1091  0.2031
37317W        W80255  32.519  16.269  18.906  0.1580  0.0017 -0.0561
37318W        W80256  30.417  13.418  21.498  0.3312  0.0739  0.1288
37319W        W80257  28.923  16.013  17.270  0.2006  0.0367  0.0849
37320W        W80258  31.001  15.935  17.895  0.4219 -0.2543 -0.2431
37321W        W80259  31.438  16.471  18.099 -0.2016  0.1883 -0.1477
37322W        W80260  30.936  15.933  17.380 -0.3018 -0.4106 -0.0303
37323W        W80261  32.368  14.323  16.687 -0.1439  0.1303  0.1530
37324W        W80262  30.798  18.714  18.316 -0.1992  0.2788 -0.2535
37325W        W80263  32.210  15.884  19.083 -0.0383  0.0095 -0.1046
37326W        W80264  31.754  17.764  24.467  0.1955 -0.0957 -0.0895
37327W        W80265  30.321  15.110  20.647 -0.0532  0.0609  0.1375
37328W        W80266  31.750  13.916  20.489 -0.0761 -0.0286  0.0630
37329W        W80267  31.367  16.829  21.297 -0.3075 -0.1595 -0.1008
37330W        W80268  29.192  15.836  21.602 -0.0788  0.3591 -0.1332
37331W        W80269  31.969  17.375  21.653  0.2489  0.4351  0.0471
37332W        W80270  29.787  14.512  23.404  0.0982  0.2407 -0.0496
37333W        W80271  31.202  18.196  22.582 -0.1031 -0.1248 -0.1139
37334W        W80272  31.687  18.002  23.407 -0.0048  0.1763  0.5452
37335W        W80273  30.512  15.578  19.904  0.1421 -0.0135 -0.2313
37336W        W80274  30.242  16.887  21.664  0.0460 -0.1713  0.1748
37337W        W80275  29.837  15.507  23.312  0.1239  0.3346 -0.0187
37338W        W80276  30.871  14.353  21.169 -0.0015 -0.1119  0.3159
37339W        W80277  28.432  13.728  22.198  0.0968 -0.0407 -0.0382
37340W        W80278  31.857  16.610  23.163 -0.1091  0.1221 -0.2807
37341W        W80279  29.700  16.199  20.071 -0.0188 -0.0796  0.4403
37342W        W80280  29.208  14.761  23.148 -0.0466 -0.3716 -0.1121
37343W        W80281  30.824  15.315  21.866  0.1942  0.1344 -0.0455
37344W        W80282  30.183  17.825  22.386 -0.1399  0.1311  0.1571
37345W        W80283  31.841  14.672  22.960  0.1295  0.0558  0.1432
37346W        W80284  32.442  14.309  23.233  0.1447  0.1118 -0.1639
37347W        W80285  31.380  17.234  20.704  0.1590 -0.0705  0.0497
37348W        W80286  28.865  16.424  19.477 -0.0242 -0.2071  0.2214
37349W        W80287  28.666  15.142  21.123  0.0037 -0.1803 -0.0127
37350W        W80288  28.704  14.893  24.191 -0.1079  0.1298 -0.2454
37351W        W80289  32.817  14.956  23.163 -0.2591  0.1527  0.2087
37352W        W80290  30.341  16.797  22.157 -0.1797  0.1840 -0.1149
37353W        W80291  30.389  18.243  22.126  0.1009 -0.0611 -0.1515
37354W        W80292  30.273  17.380  21.973  0.0552  0.2126  0.2167
37355W        W80293  32.281  15.210  24.360 -0.0010  0.0634 -0.1712
37356W        W80294  29.654  16.886  20.776  0.2536  0.5775 -0.2748
37357W        W80295  28.718  18.183  21.904  0.0443  0.2663  0.0103
37358W        W80296  30.344  17.475  21.455 -0.3445 -0.0917 -0.1864
37359W        W80297  33.772  16.912  21.668  0.0099  0.0148 -0.4046
37360W        W80298  30.282  15.725  22.631 -0.2614 -0.0523 -0.3818
37361W        W80299  31.920  18.416  24.206 -0.1875 -0.0041 -0.0438
37362W        W80300  29.156  16.962  20.966 -0.1521 -0.1096  0.2517
37363W        W80301  32.080  19.103  23.289 -0.0475  0.1014 -0.1730
37364W        W80302  31.465  18.399  23.762 -0.1317 -0.1118 -0.4514
37365W        W80303  31.187  15.650  22.035 -0.1095 -0.1199  0.0975
37366W        W80304  31.137  15.178  21.323 -0.0305 -0.1266 -0.2617
37367W        W80305  30.291  17.035  19.747  0.0856 -0.1720  0.1583
37368W        W80306  30.868  15.731  21.629  0.0157  0.2119  0.2083
37369W        W80307  29.750  15.989  22.415  0.1486  0.1391 -0.2528
37370W        W80308  30.594  17.100  21.155 -0.1574 -0.2306  0.4173
37371W        W80309  34.039  15.040  24.706  0.1704  0.0749  0.3922
37372W        W80310  30.350  18.254  21.604 -0.0781  0.0163  0.0926
37373W        W80311  31.663  15.388  20.346  0.2922  0.2649  0.1418
37374W        W80312  31.147  14.465  19.949 -0.0939  0.0317 -0.1439
37375W        W80313  33.368  15.597  21.176 -0.0104 -0.1934  0.3769
37376W        W80314  28.717  13.424  22.454  0.0991 -0.1860  0.1480
37377W        W80315  29.223  18.163  21.885 -0.2266  0.1792 -0.1128
37378W        W80316  31.117  15.964  22.924  0.0002  0.0976 -0.1654
37379W        W80317  31.510  16.138  25.403 -0.2029 -0.0488 -0.1772
37380W        W80318  31.421  15.024  21.755  0.1069 -0.0575  0.1931
37381W        W80319  31.259  16.380  22.743  0.3621  0.0221 -0.1364
37382W        W80320  30.432  17.495  22.667 -0.1868  0.1407  0.0554
37383W        W80321  28.937  15.309  20.518 -0.1355  0.0441 -0.1706
37384W        W80322  31.846  18.408  21.306 -0.0987 -0.2514 -0.2951
37385W        W80323  32.368  17.657  22.166 -0.1503  0.3994  0.1201
37386W        W80324  32.137  16.646  19.127 -0.2457 -0.0717  0.1561
37387W        W80325  30.433  15.210  22.625 -0.0919  0.0908 -0.0202
37388W        W80326  30.134  16.295  24.036 -0.1268  0.4459 -0.2379
37389W        W80327  29.697  15.998  23.472  0.0629  0.1640  0.0206
37390W        W80328  30.667  14.405  19.852  0.0367 -0.0417 -0.0944
37391W        W80329  32.619  16.722  24.073  0.0640 -0.4833  0.2615
37392W        W80330  29.143  17.296  24.679 -0.0352 -0.1232  0.2033
37393W        W80331  32.263  15.028  21.311 -0.2262  0.3451 -0.2180
37394W        W80332  29.793  17.681  22.624 -0.2982  0.2330 -0.2872
37395W        W80333  32.342  17.561  23.994  0.1018  0.4378  0.0552
37396W        W80334  31.155  17.124  20.232  0.3202  0.1623  0.1105
37397W        W80335  32.109  14.274  21.833 -0.1201  0.0208 -0.1349
37398W        W80336  31.213  13.414  22.103 -0.1395  0.1229 -0.1007
37399W        W80337  29.894  14.996  21.370 -0.0186 -0.3119  0.2379
37400W        W80338  29.647  15.215  19.844 -0.0694  0.2045 -0.1060
37401W        W80339  32.136  16.864  24.018 -0.0241 -0.1745 -0.0270
37402W        W80340  31.553  14.900  21.195  0.0395 -0.1279  0.1433
37403W        W80341  29.858  16.461  22.123 -0.0528  0.0163  0.1860
37404W        W80342  30.117  14.785  23.734 -0.1008 -0.0746  0.1087
37405W        W80343  30.697  16.788  24.027  0.0330 -0.1588 -0.3142
37406W        W80344  30.616  16.496  20.506  0.1473 -0.0550  0.0374
37407W        W80345  29.529  17.267  22.600  0.0223  0.2388 -0.0880
37408W        W80346  29.730  15.903  18.571 -0.1065  0.2332 -0.3187
37409W        W80347  29.408  15.159  21.914 -0.2100 -0.1854  0.1359
37410W        W80348  30.238  16.339  21.784  0.0752  0.1481  0.0586
37411W        W80349  32.118  13.474  21.243  0.1581 -0.3692  0.3713
37412W        W80350  28.399  14.414  23.575  0.2483  0.0316 -0.3041
37413W        W80351  31.831  15.287  21.389 -0.2049  0.0997  0.2632
37414W        W80352  29.425  15.363  21.466  0.0920 -0.1118  0.2377
37415W        W80353  30.750  18.431  22.504  0.2175  0.3406  0.0310
37416W        W80354  30.726  15.301  20.265  0.0654 -0.0903 -0.1720
37417W        W80355  31.292  16.326  20.930  0.2724  0.2644  0.1003
37418W        W80356  29.064  16.424  21.851 -0.0035  0.0687 -0.1934
37419W        W80357  30.312  16.043  22.172  0.1411 -0.0414 -0.0557
37420W        W80358  28.731  14.863  23.712  0.1017 -0.1410  0.4132
37421W        W80359  28.273  15.062  21.490 -0.0216 -0.0754  0.0609
37422W        W80360  31.606  16.133  23.623 -0.1042  0.2062 -0.0536
37423W        W80361  29.193  14.031  19.920 -0.1908 -0.0441  0.2532
37424W        W80362  33.088  15.399  21.642 -0.0876  0.2062  0.0926
37425W        W80363  30.870  14.278  20.681 -0.0835  0.1594  0.1902
37426W        W80364  29.274  16.929  19.779 -0.4871 -0.1552 -0.2015
37427W        W80365  32.680  15.581  23.024 -0.0812 -0.1673  0.1128
37428W        W80366  30.387  18.155  20.262  0.2429  0.1941 -0.0798
37429W        W80367  32.330  17.494  23.089 -0.0888  0.1591  0.2861
37430W        W80368  31.862  18.299  21.932 -0.2392 -0.1400 -0.2309
37431W        W80369  29.697  14.782  23.017  0.2029 -0.0989  0.0150
37432W        W80370  30.070  15.922  20.929 -0.3139  0.0789  0.0796
37433W        W80371  29.893  18.290  23.469  0.0110 -0.0795 -0.0301
37434W        W80372  29.625  16.599  21.711  0.2755 -0.2428 -0.2775
37435W        W80373  30.547  14.399  20.318  0.0186  0.2641  0.2169
37436W        W80374  31.680  15.715  22.158 -0.0229  0.0548 -0.2217
37437W        W80375  31.406  15.946  21.542 -0.1739 -0.2277  0.2203
37438W        W80376  31.435  17.952  23.941  0.0849  0.1438  0.2249
37439W        W80377  31.872  13.867  22.625 -0.0943  0.0954  0.1938
37440W        W80378  30.904  16.948  23.445 -0.0561  0.1523 -0.1245
37441W        W80379  31.179  16.609  22.265  0.1218 -0.1210 -0.0291
37442W        W80380  29.838  15.099  20.441 -0.0700 -0.2084  0.0091
37443W        W80381  31.745  16.886  22.738  0.2034 -0.2735  0.0467
37444W        W80382  29.715  17.674  20.233 -0.0663 -0.0103  0.0098
37445W        W80383  28.215  15.437  21.029  0.0192 -0.1001  0.0556
37446W        W80384  30.893  18.259  21.926  0.0623  0.0672  0.5647
37447W        W80385  33.322  14.855  23.035  0.1375  0.0371 -0.2450
37448W        W80386  29.382  15.225  23.094 -0.0172 -0.1817  0.4300
37449W        W80387  29.159  15.026  23.587 -0.1584  0.1972  0.0785
37450W        W80388  28.876  15.057  20.000  0.4417 -0.0596  0.1576
37451W        W80389  29.820  17.243  23.988  0.1653  0.2264 -0.3284
37452W        W80390  30.508  14.657  20.762 -0.4327 -0.2929  0.0245
37453W        W80391  30.633  15.370  21.410 -0.0905 -0.2574 -0.0238
37454W        W80392  31.585  15.205  24.959 -0.0602 -0.1519 -0.3094
37455W        W80393  32.399  16.013  21.056  0.3620 -0.0194 -0.1294
37456W        W80394  30.929  14.002  20.218  0.0967  0.0539  0.0766
37457W        W80395  31.582  12.523  19.821 -0.0639  0.1014  0.2232
37458W        W80396  29.863  18.109  23.998  0.0035 -0.1478  0.0009
37459W        W80397  30.659  17.194  21.703  0.0658  0.0380 -0.0390
37460W        W80398  30.857  16.881  21.994  0.1825  0.0872 -0.0723
37461W        W80399  31.023  15.279  19.891 -0.1305  0.0898 -0.1507
37462W        W80400  31.426  18.131  21.065  0.1145  0.0254  0.0026
37463W        W80401  30.745  15.557  22.858  0.2615  0.1190 -0.1864
37464W        W80402  32.276  15.515  24.769  0.3111  0.1387 -0.1221
37465W        W80403  32.313  17.138  23.614 -0.2640  0.4363  0.0075
37466W        W80404  30.462  15.326  23.609  0.2429  0.0817 -0.2073
37467W        W80405  29.961  17.063  20.125 -0.3462 -0.1873 -0.0140
37468W        W80406  31.972  15.427  21.927 -0.0945 -0.1121 -0.0998
37469W        W80407  29.277  17.258  19.359 -0.1116  0.1878 -0.0816
37470W        W80408  31.032  14.491  23.784 -0.1890  0.1328  0.1991
37471W        W80409  31.696  15.125  22.157 -0.2107  0.3391 -0.3074
37472W        W80410  30.616  14.704  23.061 -0.0666  0.3734 -0.0197
37473W        W80411  31.510  16.172  23.153 -0.0778  0.1553 -0.0006
37474W        W80412  31.442  15.550  21.146 -0.1800 -0.2331 -0.0799
37475W        W80413  30.835  15.435  23.933 -0.0237 -0.0968  0.0926
37476W        W80414  30.394  15.828  19.450  0.0012 -0.1442  0.1512
37477W        W80415  31.051  15.599  23.325  0.3833 -0.0515 -0.2133
37478W        W80416  30.959  16.520  23.669  0.1914 -0.1141 -0.3963
37479W        W80417  30.506  18.800  24.701 -0.1090 -0.0209  0.0941
37480W        W80418  31.848  17.399  24.090 -0.0323  0.2430  0.0195
37481W        W80419  31.065  16.266  21.386  0.0167 -0.1672 -0.1134
37482W        W80420  30.778  14.377  24.278  0.2731  0.0269  0.1238
37483W        W80421  31.202  13.671  20.492 -0.0061 -0.0338 -0.2112
37484W        W80422  30.463  16.043  20.581 -0.4101  0.0684  0.0899
37485W        W80423  30.087  16.417  20.310  0.1042 -0.1670  0.0159
37486W        W80424  31.523  15.107  22.654  0.5259 -0.0644  0.2260
37487W        W80425  30.901  17.459  23.319  0.1309 -0.1777 -0.1535
37488W        W80426  30.842  15.649  20.642  0.4114 -0.0712  0.2320
37489W        W80427  31.752  16.991  23.668  0.1866 -0.2812 -0.0129
37490W        W80428  30.118  16.425  20.787  0.1001  0.1077 -0.2647
37491W        W80429  31.913  13.643  23.058  0.3238 -0.0186  0.2217
37492W        W80430  30.412  16.652  21.254 -0.5518 -0.1134  0.2321
37493W        W80431  29.059  15.427  20.987 -0.2255 -0.0763  0.2211
37494W        W80432  30.128  15.496  21.355 -0.2496  0.1591  0.0385
37495W        W80433  32.421  13.931  22.637  0.3186  0.2459 -0.0051
37496W        W80434  30.106  15.329  20.024 -0.0289  0.1645 -0.2301
37497W        W80435  28.975  15.060  22.259 -0.2159 -0.2262  0.0772
37498W        W80436  31.087  14.845  23.308 -0.0304 -0.0509 -0.0673
37499W        W80437  30.552  18.705  23.124 -0.0090 -0.4316 -0.0446
37500W        W80438  31.303  15.671  24.453  0.0716 -0.0447  0.0262
37501W        W80439  31.951  14.794  20.864 -0.0235  0.1012 -0.3174
37502W        W80440  31.433  17.846  22.900 -0.1593 -0.0161 -0.1620
37503W        W80441  31.856  15.809  24.880 -0.0248 -0.3420  0.2381
37504W        W80442  29.389  16.788  18.655  0.0990 -0.0514 -0.0043
37505W        W80443  32.006  16.050  22.349 -0.2623 -0.0095 -0.1249
37506W        W80444  30.156  14.781  22.721  0.0376 -0.1379  0.0715
37507W        W80445  29.344  17.626  22.191  0.0614 -0.1351 -0.1529
37508W        W80446  30.794  15.503  22.353  0.0918 -0.1349 -0.3200
37509W        W80447  29.510  15.670  21.104  0.1328 -0.0160  0.4786
37510W        W80448  30.323  16.856  20.802 -0.1194 -0.1553  0.1094
37511W        W80449  29.592  14.925  24.443  0.4212 -0.1741  0.2069
37512W        W80450  33.235  14.274  22.875 -0.1625 -0.1169 -0.0001
37513W        W80451  30.112  15.038  22.268  0.0553  0.2341  0.3223
37514W        W80452  31.053  14.716  22.031  0.1684  0.2221  0.2164
37515W        W80453  31.420  16.586  23.467 -0.2849  0.1486 -0.0167
37516W        W80454  31.295  17.458  24.080 -0.3573 -0.0923 -0.2415
37517W        W80455  31.604  14.970  23.237  0.2686 -0.0026  0.2778
37518W        W80456  28.989  16.816  24.575 -0.2559 -0.2505 -0.0981
37519W        W80457  31.414  13.981  23.122  0.0418  0.2037  0.0718
37520W        W80458  32.236  18.608  21.973 -0.0749  0.1051  0.0291
37521W        W80459  31.440  14.812  23.705 -0.0717 -0.0168  0.1112
37522W        W80460  30.226  16.511  19.839 -0.1484 -0.3321  0.2102
37523W        W80461  30.299  15.519  22.038  0.1894  0.3196 -0.2482
37524W        W80462  29.978  16.900  21.201 -0.2162  0.0060 -0.0692
37525W        W80463  32.282  15.391  22.318 -0.1123 -0.1006 -0.0448
37526W        W80464  30.189  17.292  23.451 -0.0868  0.0157 -0.0032
37527W        W80465  30.349  15.807  21.640 -0.3243  0.0362 -0.0864
37528W        W80466  30.199  17.875  22.929  0.0940 -0.0391  0.1597
37529W        W80467  32.799  14.858  20.387  0.0508 -0.0749 -0.3917
37530W        W80468  31.133  17.247  21.695  0.2899  0.3027  0.2524
37531W        W80469  31.587  14.577  21.905  0.0179  0.0602  0.1170
37532W        W80470  32.262  13.393  24.114 -0.1899 -0.1176 -0.0875
37533W        W80471  31.804  14.198  18.867  0.0633  0.0242  0.2657
37534W        W80472  30.981  13.741  23.113 -0.1217 -0.0961 -0.0351
37535W        W80473  30.907  15.120  22.647 -0.2777 -0.2109  0.1089
37536W        W80474  33.965  15.912  22.826 -0.0123 -0.1942 -0.0929
37537W        W80475  28.891  15.540  23.517 -0.3413  0.2690  0.1854
37538W        W80476  31.609  18.801  24.070 -0.1357  0.2619 -0.0466
37539W        W80477  29.290  15.818  22.560 -0.0345  0.2311 -0.0906
37540W        W80478  31.272  14.090  21.262  0.0364  0.3371 -0.0441
37541W        W80479  29.803  14.804  20.042 -0.1698  0.0725 -0.0823
37542W        W80480  31.072  15.201  23.620  0.1474  0.1274  0.1723
37543W        W80481  32.079  16.240  21.415 -0.3682  0.0307 -0.2926
37544W        W80482  29.941  15.339  20.953 -0.0698  0.1769  0.1210
37545W        W80483  32.464  14.579  21.544  0.2692  0.1942  0.3373
37546W        W80484  29.870  15.437  21.786 -0.0510  0.0319 -0.5879
37547W        W80485  30.778  15.212  20.864 -0.0501 -0.0326 -0.0054
37548W        W80486  30.740  14.405  21.747  0.0105 -0.1900 -0.0370
37549W        W80487  31.226  15.149  22.227  0.0185  0.1310 -0.1448
37550W        W80488  28.935  13.851  22.326  0.1697  0.2483 -0.1121
37551W        W80489  30.869  17.248  23.873 -0.0070  0.1487 -0.1903
37552W        W80490  31.206  14.622  21.433 -0.1795 -0.0722 -0.3724
37553W        W80491  31.305  13.449  23.403 -0.1262 -0.1277 -0.5596
37554W        W80492  32.310  15.855  21.971 -0.0689 -0.1545 -0.0877
37555W        W80493  30.521  16.316  23.715 -0.3242  0.2490 -0.2153
37556W        W80494  29.712  16.351  24.851  0.0013  0.2090  0.2557
37557W        W80495  31.341  18.774  22.844 -0.3064 -0.1176 -0.1148
37558W        W80496  31.012  16.140  20.467  0.2037 -0.0741  0.0274
37559W        W80497  33.458  14.516  23.473  0.4517  0.3615  0.4241
37560W        W80498  32.682  15.390  21.178  0.0756 -0.0389 -0.3445
37561W        W80499  30.891  14.835  20.462 -0.1918 -0.3323  0.1220
37562W        W80500  29.192  14.806  22.567 -0.0087 -0.2905 -0.3591
37563W        W80501  31.907  16.745  25.257 -0.2489  0.1635  0.0931
37564W        W80502  30.356  14.358  21.264 -0.2018  0.1246  0.0785
37565W        W80503  32.156  15.377  23.079 -0.1066 -0.0239 -0.0743
37566W        W80504  30.505  16.091  19.935 -0.0156 -0.1591 -0.6325
37567W        W80505  30.432  16.583  23.083 -0.1223  0.2885  0.1094
37568W        W80506  31.980  14.551  21.315  0.1844 -0.0605  0.0587
37569W        W80507  30.688  15.177  23.144  0.0036  0.0356  0.0894
37570W        W80508  30.965  18.776  24.665  0.0460  0.2535  0.1373
37571W        W80509  29.217  15.528  19.643  0.1846  0.2293  0.0869
37572W        W80510  29.683  15.811  20.521  0.1777  0.1334 -0.3469
37573W        W80511  30.868  16.358  21.885  0.0870 -0.3034  0.0085
37574W        W80512  31.937  16.328  24.961  0.1636  0.0750 -0.0870
37575W        W80513  31.784  13.060  21.292 -0.3584 -0.0969  0.1119
37576W        W80514  31.866  15.505  22.572  0.2281 -0.0672  0.0007
37577W        W80515  29.869  18.173  22.540  0.0199 -0.0331  0.0620
37578W        W80516  32.370  14.826  23.048 -0.0636  0.0376 -0.3055
37579W        W80517  30.160  18.535  23.917 -0.0091 -0.3188 -0.1012
37580W        W80518  29.715  15.678  22.829  0.3732 -0.0794 -0.1124
37581W        W80519  30.814  16.215  20.954  0.0976  0.1974  0.1529
37582W        W80520  31.673  13.905  23.552 -0.0508  0.1496  0.0620
37583W        W80521  33.297  15.942  21.795 -0.1120 -0.0674 -0.0354
37584W        W80522  30.404  15.930  24.446  0.1348 -0.0026 -0.4329
37585W        W80523  32.980  16.414  23.821 -0.2918  0.2183  0.1978
37586W        W80524  31.131  16.596  24.196  0.0718 -0.1837  0.0559
37587W        W80525  30.709  14.811  21.448  0.0317  0.2505 -0.0501
37588W        W80526  31.917  17.585  23.630  0.4594 -0.1966 -0.0771
37589W        W80527  32.428  15.087  21.775  0.0743  0.1968 -0.2736
37590W        W80528  29.380  15.316  22.505 -0.2397  0.2813 -0.1145
37591W        W80529  30.669  14.822  23.560 -0.1405  0.1426  0.3624
37592W        W80530  30.885  16.048  24.594 -0.1576 -0.1012  0.0014
37593W        W80531  33.006  14.754  20.805 -0.1488  0.1701  0.0164
37594W        W80532  30.544  14.910  22.121  0.1179 -0.0353 -0.0136
37595W        W80533  31.126  17.297  21.176 -0.0159 -0.0602  0.0432
37596W        W80534  30.416  17.226  24.505 -0.0315  0.0035 -0.0271
37597W        W80535  29.083  17.528  22.544  0.1875  0.2605 -0.0999
37598W        W80536  30.588  17.704  21.826  0.2243 -0.0941 -0.3391
37599W        W80537  31.548  16.244  22.194 -0.2186 -0.3329  0.0009
37600W        W80538  31.332  16.582  21.759  0.2120 -0.2375 -0.0876
37601W        W80539  32.221  19.637  22.270  0.1653  0.0585  0.3173
37602W        W80540  31.659  13.548  20.896  0.3251 -0.0252  0.2475
37603W        W80541  29.959  17.324  20.589 -0.0047 -0.1032 -0.1172
37604W        W80542  28.518  17.180  20.911 -0.0878 -0.1197  0.0845
37605W        W80543  31.652  17.702  20.986  0.0379  0.1236 -0.0153
37606W        W80544  29.903  17.797  20.820 -0.1398  0.3357  0.0071
37607W        W80545  32.233  16.344  24.146  0.1072  0.0730 -0.0441
37608W        W80546  32.097  15.209  20.578 -0.2558  0.0254  0.4066
37609W        W80547  32.372  15.469  21.520 -0.0874 -0.0458 -0.3826
37610W        W80548  33.564  14.707  22.450  0.1317  0.1124  0.0729
37611W        W80549  32.832  16.863  24.526 -0.0042 -0.0995 -0.0429
37612W        W80550  31.307  16.165  24.356 -0.2527  0.2019 -0.0472
37613W        W80551  30.273  13.605  19.168  0.0359  0.1492 -0.0996
37614W        W80552  29.605  14.073  23.652  0.0453  0.1910 -0.2192
37615W        W80553  32.087  14.540  24.413 -0.4736 -0.3512  0.0023
37616W        W80554  29.107  19.001  25.013  0.2618  0.0247 -0.2754
37617W        W80555  32.771  18.056  22.416 -0.1051  0.0832 -0.0774
37618W        W80556  28.610  14.842  20.423 -0.3396  0.1316 -0.0464
37619W        W80557  29.906  15.909  21.939 -0.1031  0.1675  0.1786
37620W        W80558  33.559  14.103  23.819 -0.1263  0.0093  0.3560
37621W        W80559  31.560  16.040  19.790  0.0725  0.0951 -0.0653
37622W        W80560  31.224  15.244  23.026 -0.1185 -0.3436 -0.1434
37623W        W80561  30.002  19.149  20.955 -0.0702 -0.2338  0.1497
37624W        W80562  30.289  18.022  23.719  0.0216 -0.2709 -0.1948
37625W        W80563  30.521  17.793  23.309  0.1117 -0.3219 -0.1861
37626W        W80564  27.488  15.807  19.235 -0.1627 -0.0450  0.1757
37627W        W80565  33.349  15.267  22.617 -0.2789  0.0101 -0.0401
37628W        W80566  30.153  15.166  24.025  0.2375 -0.2207 -0.0604
37629W        W80567  31.302  13.812  22.541 -0.1343 -0.0658  0.0727
37630W        W80568  32.034  14.612  22.182 -0.0683  0.0235  0.0112
37631W        W80569  32.228  14.716  20.475  0.2494 -0.2538  0.1584
37632W        W80570  30.967  16.565  23.151  0.0172 -0.0795 -0.0212
37633W        W80571  28.338  16.486  22.454 -0.2342 -0.3158  0.2443
37634W        W80572  30.779  13.645  19.930 -0.2890 -0.2079  0.0275
37635W        W80573  32.321  16.337  23.270 -0.2085 -0.3484 -0.0589
37636W        W80574  31.240  14.816  19.542 -0.0331 -0.1076  0.1410
37637W        W80575  31.268  16.921  23.828 -0.1291  0.3530  0.1011
37638W        W80576  28.705  14.676  22.888  0.1435 -0.2735  0.3079
37639W        W80577  30.897  13.821  20.886 -0.2126 -0.2684 -0.0201
37640W        W80578  30.250  14.535  21.731 -0.4943 -0.4625  0.0142
37641W        W80579  31.211  14.068  23.536 -0.1398  0.3694  0.1505
37642W        W80580  31.730  17.474  23.153 -0.1976 -0.2034  0.0327
37643W        W80581  29.444  13.922  22.161 -0.2288 -0.1756 -0.1412
37644W        W80582  32.491  17.282  21.789  0.0507 -0.3157  0.0979
37645W        W80583  32.100  17.264  22.661  0.1560  0.0452 -0.2713
37646W        W80584  30.445  17.478  19.626  0.3879 -0.1992 -0.1765
37647W        W80585  31.877  16.016  21.863  0.1127  0.1411  0.0627
37648W        W80586  31.509  17.345  22.712 -0.0708 -0.0097  0.1910
37649W        W80587  28.055  16.150  22.187 -0.1005 -0.0447 -0.0933
37650W        W80588  33.036  17.871  23.394 -0.4122 -0.0410  0.1696
37651W        W80589  31.702  15.958  24.087 -0.0896  0.1061  0.2023
37652W        W80590  31.081  14.036  19.726 -0.1421  0.0189  0.0131
37653W        W80591  30.173  17.679  24.202  0.2869 -0.1699  0.1560
37654W        W80592  29.671  17.970  22.146 -0.1062 -0.1809 -0.2650
37655W        W80593  33.535  15.575  23.620  0.2774 -0.2501  0.2496
37656W        W80594  33.239  14.163  24.213  0.2574 -0.2781 -0.2925
37657W        W80595  31.270  17.983  18.808 -0.0092  0.0930  0.0842
37658W        W80596  32.019  13.486  23.568 -0.3715 -0.0704  0.0619
37659W        W80597  31.988  17.985  23.975 -0.0280 -0.0413 -0.0041
37660W        W80598  28.673  17.433  24.813  0.2109  0.1504  0.1127
37661W        W80599  29.349  15.429  20.233  0.4682  0.0598  0.2949
37662W        W80600  30.545  17.124  22.982 -0.0465 -0.1582 -0.1171
37663W        W80601  30.509  15.763  21.048 -0.1735  0.1295  0.0116
37664W        W80602  30.736  15.892  22.058 -0.3719  0.0787 -0.2191
37665W        W80603  31.147  17.967  23.303 -0.2029 -0.2339 -0.0173
37666W        W80604  31.036  14.815  20.964  0.3469  0.1529  0.0469
37667W        W80605  31.081  16.118  22.385 -0.1249  0.1991 -0.1193
37668W        W80606  30.224  14.980  23.235 -0.0216  0.2679 -0.0131
37669W        W80607  32.579  16.270  22.331 -0.0826  0.2540 -0.0506
37670W        W80608  32.114  14.365  22.624 -0.0633  0.1259  0.0471
37671W        W80609  32.704  17.230  24.040 -0.1577 -0.2097  0.1187
37672W        W80610  30.464  14.287  22.735 -0.0855 -0.1113 -0.1376
37673W        W80611  30.187  17.724  20.424 -0.2068 -0.0225  0.0842
37674W        W80612  30.594  16.229  21.425  0.1735  0.0130  0.1417
37675W        W80613  29.714  14.118  24.911  0.1013 -0.0675  0.0516
37676W        W80614  29.565  14.597  23.839 -0.0300 -0.0921 -0.0161
37677W        W80615  29.193  15.867  20.597 -0.3283  0.3467 -0.1192
37678W        W80616  28.472  13.830  19.536  0.1108  0.0502 -0.1244
37679W        W80617  32.923  18.266  21.943  0.4171 -0.0936  0.2692
37680W        W80618  29.602  14.443  22.569 -0.0279  0.2282 -0.1611
37681W        W80619  28.232  14.575  20.592 -0.0671  0.0639 -0.0631
37682W        W80620  31.657  16.742  22.284  0.0251  0.1721  0.2070
37683W        W80621  32.414  16.380  21.840 -0.0498 -0.1039  0.0339
37684W        W80622  31.519  14.481  21.008  0.0514  0.0446  0.0335
37685W        W80623  34.179  17.090  22.703 -0.1143  0.1653 -0.2556
37686W        W80624  29.028  17.375  19.812 -0.0362  0.3420  0.2794
37687W        W80625  30.285  15.500  23.102  0.3862  0.1582  0.1870
37688W        W80626  30.065  13.315  24.616  0.4372  0.1654  0.4073
37689W        W80627  29.819  14.236  20.417 -0.0054 -0.1620  0.0471
37690W        W80628  31.265  14.703  22.794 -0.0865  0.0013 -0.0048
37691W        W80629  30.634  16.953  22.519  0.0843 -0.2154 -0.1208
37692W        W80630  32.858  15.879  21.433 -0.2354 -0.0875  0.2901
37693W        W80631  30.869  14.605  22.547 -0.0227 -0.1109 -0.1881
37694W        W80632  31.390  15.622  25.943  0.1853  0.1549 -0.2086
37695W        W80633  28.552  15.326  23.980 -0.2922 -0.0372  0.1766
37696W        W80634  32.905  17.437  21.545  0.0191  0.0651  0.0946
37697W        W80635  30.605  16.405  22.354 -0.2321 -0.3250 -0.1520
37698W        W80636  31.008  15.821  21.166  0.0877  0.2297  0.0026
37699W        W80637  32.920  15.014  23.730 -0.0321  0.2144 -0.0784
37700W        W80638  32.436  16.561  21.329  0.1563 -0.1235  0.2921
37701W        W80639  28.835  14.549  25.157 -0.0525 -0.2186  0.1518
37702W        W80640  29.752  15.049  23.432 -0.1549  0.0150  0.2541
37703W        W80641  29.470  16.960  23.706 -0.0086 -0.0018  0.1478
37704W        W80642  29.452  14.353  23.047  0.0962  0.5622 -0.1468
37705W        W80643  31.322  15.836  20.710 -0.4073  0.1335 -0.1187
37706W        W80644  31.251  17.199  22.170  0.2645 -0.1523  0.1441
37707W        W80645  29.754  16.734  22.570  0.2503  0.1426 -0.2401
37708W        W80646  31.027  15.716  19.657 -0.0869  0.3746 -0.1068
37709W        W80647  31.088  14.829  24.963  0.0078 -0.1393  0.0268
37710W        W80648  30.673  16.069  22.746 -0.1317  0.0452 -0.3545
37711W        W80649  31.395  17.185  25.075 -0.0229  0.0398 -0.0058
37712W        W80650  30.724  13.743  19.390 -0.0216 -0.0377 -0.3589
37713W        W80651  32.789  16.030  21.951 -0.1437  0.0289 -0.2876
37714W        W80652  32.550  18.687  23.602 -0.0756  0.0619 -0.0879
37715W        W80653  33.039  18.749  23.907  0.0455  0.2007 -0.2732
37716W        W80654  31.432  17.474  23.597 -0.0314 -0.0707 -0.0444
37717W        W80655  31.794  16.378  22.746 -0.0547  0.2189 -0.3294
37718W        W80656  28.698  14.282  22.090 -0.0789  0.2907  0.1057
37719W        W80657  30.706  14.945  19.647 -0.0862 -0.0820 -0.1664
37720W        W80658  29.874  17.263  21.570 -0.5009  0.2502  0.0571
37721W        W80659  31.535  15.494  21.709 -0.0740  0.1414 -0.1602
37722W        W80660  29.903  15.495  22.370 -0.2308  0.1395 -0.1604
37723W        W80661  30.772  13.368  21.075 -0.0057 -0.2534  0.3433
37724W        W80662  31.028  17.789  23.767  0.2199  0.1904 -0.0439
37725W        W80663  31.296  15.715  23.867  0.0055  0.2376  0.0225
37726W        W80664  30.742  15.518  28.651 -0.0485  0.0897 -0.0194
37727W        W80665  31.449  16.542  26.201 -0.2170  0.2152  0.0499
37728W        W80666  32.099  15.718  24.298  0.0958 -0.4402  0.0875
37729W        W80667  31.870  15.407  25.894 -0.0362  0.0992  0.0250
37730W        W80668  28.989  13.738  25.653  0.4889 -0.0689 -0.4448
37731W        W80669  30.250  17.414  25.008 -0.1286  0.0103 -0.2769
37732W        W80670  29.730  15.365  25.266  0.2018  0.0121  0.0981
37733W        W80671  32.881  17.867  26.584  0.1807  0.1004  0.0408
37734W        W80672  31.608  17.041  25.521  0.1672 -0.1302  0.2273
37735W        W80673  33.044  15.864  23.608  0.1536  0.1499  0.1550
37736W        W80674  31.413  15.253  26.843 -0.1428  0.1874  0.1812
37737W        W80675  30.268  17.930  26.613  0.1279 -0.3785 -0.0154
37738W        W80676  30.157  14.430  24.774  0.1371  0.2684 -0.2889
37739W        W80677  29.752  13.738  26.939 -0.0996  0.0900 -0.6252
37740W        W80678  32.431  15.852  27.517 -0.3514 -0.0784 -0.0995
37741W        W80679  31.714  15.640  25.374 -0.4142  0.2769 -0.3228
37742W        W80680  29.978  15.244  25.818 -0.2885  0.1133 -0.0084
37743W        W80681  30.616  14.764  24.659  0.0977 -0.0868  0.1610
37744W        W80682  30.499  18.244  25.834  0.0282 -0.2029  0.3196
37745W        W80683  30.490  14.863  25.582  0.1578 -0.1764 -0.0694
37746W        W80684  33.830  16.404  26.903  0.4241  0.1656 -0.0318
37747W        W80685  30.644  17.798  25.313  0.1211  0.2657  0.0614
37748W        W80686  30.165  15.854  23.539  0.0244  0.2176  0.2315
37749W        W80687  29.275  16.141  25.327  0.1209 -0.0158  0.2030
37750W        W80688  30.311  16.054  25.182  0.1737  0.1498 -0.1729
37751W        W80689  32.336  15.335  26.314 -0.2540  0.2170 -0.1979
37752W        W80690  31.798  15.925  25.762 -0.0660  0.2503  0.1962
37753W        W80691  30.609  17.696  25.883  0.1253  0.1101  0.0549
37754W        W80692  31.070  17.019  26.927  0.1900 -0.0890  0.0616
37755W        W80693  31.289  15.417  28.514 -0.1085 -0.0677  0.0415
37756W        W80694  30.013  17.989  25.628  0.2800  0.0342  0.0077
37757W        W80695  29.488  17.726  25.643  0.1492  0.1299  0.0458
37758W        W80696  31.798  15.755  26.343  0.2329  0.0206 -0.2992
37759W        W80697  33.109  17.291  25.618 -0.0445 -0.1918 -0.1795
37760W        W80698  31.882  18.028  25.427  0.1232  0.0277 -0.0337
37761W        W80699  31.460  18.910  28.820  0.0673 -0.0307 -0.2792
37762W        W80700  30.094  18.481  25.716  0.0444  0.0621  0.0379
37763W        W80701  30.854  17.817  27.993 -0.1918 -0.0311 -0.0241
37764W        W80702  30.342  17.222  25.809 -0.0461  0.0661 -0.1595
37765W        W80703  30.498  15.367  27.694  0.1631 -0.0684  0.0045
37766W        W80704  31.031  15.189  26.140  0.0584 -0.0099 -0.2064
37767W        W80705  30.052  18.714  24.892 -0.2940  0.0708 -0.0674
37768W        W80706  31.593  15.813  27.791 -0.1611  0.1207  0.1342
37769W        W80707  30.915  17.286  28.099 -0.1941 -0.0781  0.0493
37770W        W80708  30.633  18.738  25.724 -0.2205 -0.1986  0.1722
37771W        W80709  32.472  16.355  26.415 -0.1988 -0.1229 -0.0504
37772W        W80710  30.215  17.932  25.115 -0.0015 -0.2344  0.0851
37773W        W80711  31.847  14.353  25.420  0.1017  0.0853 -0.1397
37774W        W80712  30.454  14.731  24.097 -0.0784 -0.0865 -0.0268
37775W        W80713  32.098  16.162  25.467 -0.2579 -0.2199 -0.0190
37776W        W80714  31.462  14.714  25.616  0.0779 -0.1710 -0.3708
37777W        W80715  31.168  17.335  25.569 -0.0210 -0.1242 -0.0782
37778W        W80716  30.115  14.278  26.161 -0.2980 -0.0047  0.2481
37779W        W80717  31.712  17.366  27.488 -0.0487  0.1755  0.2316
37780W        W80718  31.295  15.725  25.066 -0.2501 -0.1219  0.0388
37781W        W80719  30.951  17.032  28.571 -0.0737 -0.0781  0.0046
37782W        W80720  30.344  17.520  27.339 -0.2055  0.0674 -0.2142
37783W        W80721  30.769  15.391  25.792 -0.2404  0.0782  0.2783
37784W        W80722  32.888  16.688  24.974 -0.1424  0.1377 -0.1363
37785W        W80723  33.097  18.519  25.942  0.2483  0.0902  0.0448
37786W        W80724  31.614  16.933  24.243  0.0252 -0.2712 -0.0581
37787W        W80725  30.635  15.423  26.316  0.0009  0.0319  0.0753
37788W        W80726  27.913  18.370  28.393 -0.0482  0.0324 -0.0144
37789W        W80727  28.939  15.997  27.340 -0.1299  0.0672  0.1202
37790W        W80728  29.914  15.218  22.866 -0.0008 -0.0479 -0.0588
37791W        W80729  32.139  17.208  27.571  0.1850 -0.0161 -0.3742
37792W        W80730  30.726  16.835  25.671  0.0977 -0.0204 -0.3949
37793W        W80731  32.738  16.914  26.472 -0.0222  0.0371 -0.0745
37794W        W80732  30.998  16.897  25.222 -0.1146  0.2842 -0.0545
37795W        W80733  31.542  16.635  24.714 -0.0242  0.1320 -0.0769
37796W        W80734  30.162  15.520  25.088 -0.1950  0.1203 -0.2416
37797W        W80735  32.636  14.009  25.403  0.3003  0.1514  0.0367
37798W        W80736  32.864  16.260  26.778  0.0780 -0.2458  0.2039
37799W        W80737  30.482  18.265  25.337  0.2149 -0.1107  0.0409
37800W        W80738  30.483  16.363  24.825  0.0435 -0.2368 -0.2459
37801W        W80739  31.837  16.808  26.102 -0.0996  0.1824 -0.0482
37802W        W80740  31.107  15.849  25.583  0.0943 -0.3421  0.0007
37803W        W80741  29.577  18.652  26.575 -0.0399 -0.0732 -0.2856
37804W        W80742  31.501  15.088  25.977 -0.0037 -0.3177  0.0866
37805W        W80743  32.101  16.977  26.990  0.3157  0.1799 -0.0250
37806W        W80744  30.366  17.181  23.973  0.0779 -0.3880  0.2424
37807W        W80745  29.135  17.187  25.626  0.0584  0.1736  0.2345
37808W        W80746  29.935  16.859  23.696  0.0997  0.0381 -0.0351
37809W        W80747  29.355  15.908  26.496  0.3263  0.0344  0.0922
37810W        W80748  30.338  15.667  26.661  0.3011  0.1897 -0.2730
37811W        W80749  32.502  16.632  25.478  0.3909 -0.1227  0.4622
37812W        W80750  30.445  14.150  26.526 -0.2689  0.0090 -0.3136
37813W        W80751  33.003  14.346  25.193  0.0169  0.0614  0.0341
37814W        W80752  30.073  15.913  24.791 -0.3436  0.0605  0.0122
37815W        W80753  32.776  17.551  25.415  0.0325 -0.0712 -0.1866
37816W        W80754  33.016  16.577  25.516 -0.0983  0.2603  0.1267
37817W        W80755  32.648  17.290  24.682 -0.1527  0.0927  0.4582
37818W        W80756  30.092  15.549  27.044  0.1256  0.0247 -0.0280
37819W        W80757  29.111  14.102  25.243 -0.1459  0.0811  0.0462
37820W        W80758  30.598  14.713  26.983  0.1764 -0.1358  0.1274
37821W        W80759  31.105  14.575  26.058 -0.0565 -0.2969  0.0136
37822W        W80760  31.884  15.168  27.820  0.3943  0.4168 -0.1228
37823W        W80761  30.040  14.338  23.843  0.0071  0.1099 -0.0356
37824W        W80762  33.361  16.408  25.984 -0.0831 -0.2385  0.1462
37825W        W80763  29.653  16.760  25.095  0.0997 -0.2668 -0.3175
37826W        W80764  30.036  16.844  22.954 -0.1755  0.2016 -0.2574
37827W        W80765  32.716  15.031  26.260  0.0257  0.1725 -0.1926
37828W        W80766  31.897  20.150  25.056 -0.0455  0.0418  0.3790
37829W        W80767  32.141  17.571  26.385  0.1583 -0.0010  0.0907
37830W        W80768  32.082  16.683  24.496 -0.1066  0.0811  0.2340
37831W        W80769  29.059  16.131  25.750 -0.0606  0.1880 -0.0318
37832W        W80770  29.001  15.148  26.839  0.0064 -0.1551 -0.0303
37833W        W80771  30.193  17.937  26.106 -0.1217 -0.2589  0.1804
37834W        W80772  30.890  15.773  26.047  0.0616 -0.0580  0.0315
37835W        W80773  29.772  14.735  24.924  0.4009  0.1144  0.1133
37836W        W80774  31.829  17.128  26.532 -0.1653 -0.3391 -0.2982
37837W        W80775  32.087  15.072  24.850  0.0882 -0.1405 -0.2942
37838W        W80776  30.310  16.702  27.533  0.2156  0.0456 -0.4141
37839W        W80777  33.196  15.472  27.095  0.0397  0.0949 -0.2933
37840W        W80778  32.952  17.299  26.757 -0.1198 -0.1116 -0.1811
37841W        W80779  30.736  16.899  27.308  0.0415  0.1959 -0.0295
37842W        W80780  29.850  15.530  23.820  0.2218 -0.0456  0.1961
37843W        W80781  31.518  17.637  25.788  0.3391  0.2970 -0.2835
37844W        W80782  30.229  15.485  24.478 -0.2977  0.2394 -0.2913
37845W        W80783  29.023  17.389  26.667 -0.0875  0.0531  0.1697
37846W        W80784  31.406  19.005  26.202  0.2819  0.2589 -0.0062
37847W        W80785  33.072  15.609  24.473 -0.0364 -0.0157 -0.1269
37848W        W80786  29.324  16.916  26.859 -0.0801  0.1461 -0.3645
37849W        W80787  30.659  15.564  27.168 -0.0928  0.0948  0.2948
37850W        W80788  30.898  12.942  25.085  0.0450 -0.2687  0.0086
37851W        W80789  30.221  18.060  27.570  0.3293 -0.0448 -0.0134
37852W        W80790  31.487  14.862  24.632 -0.2143  0.1436  0.2338
37853W        W80791  32.335  15.896  25.136  0.0640 -0.2416  0.0439
37854W        W80792  30.843  18.092  26.182 -0.0457  0.2178 -0.0128
37855W        W80793  31.661  18.244  24.595  0.1872 -0.4722  0.2036
37856W        W80794  31.827  15.430  24.519 -0.0177  0.1241 -0.1825
37857W        W80795  30.577  13.127  23.025 -0.3385 -0.0091 -0.1367
37858W        W80796  28.439  17.021  28.932  0.1660 -0.2294 -0.0559
37859W        W80797  32.404  16.889  24.848 -0.0793  0.0673 -0.0068
37860W        W80798  30.111  15.389  26.337  0.2014  0.1469  0.0487
37861W        W80799  31.317  15.233  24.059 -0.1778  0.1992  0.1468
37862W        W80800  32.794  18.702  24.355  0.1722  0.1035 -0.1496
37863W        W80801  30.095  16.044  27.945 -0.2323 -0.0126 -0.1824
37864W        W80802  31.665  16.958  27.895  0.2733  0.3818  0.0047
37865W        W80803  33.786  17.223  24.843 -0.1435 -0.1752 -0.3976
37866W        W80804  30.671  13.324  26.812 -0.2640  0.0583 -0.0310
37867W        W80805  31.749  15.117  25.477 -0.0028 -0.1475 -0.1047
37868W        W80806  31.615  14.765  25.168  0.0180  0.1544  0.1054
37869W        W80807  29.419  19.361  24.853 -0.0230  0.0416  0.1460
37870W        W80808  33.414  14.427  26.764  0.2070 -0.2144  0.1577
37871W        W80809  30.807  13.962  25.713 -0.1036  0.2789 -0.0147
37872W        W80810  31.835  14.405  26.488 -0.0038  0.0328 -0.2392
37873W        W80811  33.323  16.241  27.696 -0.1239  0.1311 -0.1772
37874W        W80812  32.622  15.099  25.224  0.1479 -0.4744 -0.2914
37875W        W80813  30.877  16.070  27.263  0.2002  0.2935  0.1029
37876W        W80814  31.127  15.347  24.827  0.0945  0.3100  0.1793
37877W        W80815  32.308  14.713  26.337  0.1365 -0.1778 -0.4777
37878W        W80816  30.093  16.153  26.669 -0.2304 -0.0600  0.0635
37879W        W80817  29.415  15.977  26.027 -0.1800 -0.3084 -0.2483
37880W        W80818  32.109  18.142  27.559  0.1761  0.2560 -0.0186
37881W        W80819  32.146  15.991  23.788  0.0424 -0.0614 -0.2541
37882W        W80820  31.082  16.808  27.837 -0.0865  0.0343  0.1137
37883W        W80821  31.136  13.663  25.451  0.1084 -0.2311  0.1807
37884W        W80822  31.202  18.296  24.798  0.1641 -0.1482  0.1146
37885W        W80823  30.674  17.711  24.177  0.1324  0.1498  0.4167
37886W        W80824  32.921  14.654  24.809 -0.0225 -0.2215 -0.0725
37887W        W80825  30.557  16.207  26.184 -0.0637  0.1678  0.1557
37888W        W80826  31.387  16.204  24.900  0.1669 -0.0054  0.2833
37889W        W80827  31.627  16.737  26.743  0.1114  0.4291  0.4107
37890W        W80828  30.059  16.341  23.463  0.1408  0.0747  0.1421
37891W        W80829  33.097  15.367  25.075  0.1550  0.0698  0.2351
37892W        W80830  30.000  17.506  26.872 -0.1169  0.1243 -0.2971
37893W        W80831  30.999  14.909  25.703 -0.1546  0.2595 -0.3541
37894W        W80832  29.394  17.355  26.038  0.1394  0.2335 -0.1216
37895W        W80833  31.897  15.531  23.776  0.0323  0.1133  0.1365
37896W        W80834  30.980  16.508  24.822 -0.0592  0.0344  0.1504
37897W        W80835  30.131  14.727  26.065 -0.3840 -0.0091 -0.0668
37898W        W80836  30.422  13.921  26.075 -0.3312  0.1317  0.1454
37899W        W80837  28.478  17.925  26.111 -0.0058  0.1261  0.2071
37900W        W80838  32.447  15.759  26.680  0.1359  0.2704  0.3626
37901W        W80839  32.618  14.593  23.656  0.0404  0.1178  0.0638
37902W        W80840  31.581  16.415  27.079 -0.1983  0.0738 -0.0293
37903W        W80841  31.300  17.022  27.387  0.1891 -0.4699  0.2645
37904W        W80842  30.061  16.770  25.674  0.1796  0.1922 -0.2446
37905W        W80843  32.744  15.848  26.256 -0.0168 -0.3464  0.1990
37906W        W80844  32.422  14.897  27.266 -0.0504 -0.1501  0.3548
37907W        W80845  30.219  16.792  24.214  0.0026 -0.1941 -0.1280
37908W        W80846  30.794  16.265  25.726  0.0730 -0.0562  0.3220
37909W        W80847  30.220  14.906  25.086  0.1793 -0.1409  0.2428
37910W        W80848  30.881  17.460  24.568 -0.1188  0.1691  0.1452
37911W        W80849  31.101  15.596  27.698 -0.0079 -0.3689  0.0165
37912W        W80850  31.673  15.226  28.987 -0.1253  0.2173 -0.1782
37913W        W80851  30.463  14.138  25.208 -0.1305 -0.1140 -0.1186
37914W        W80852  31.985  15.138  27.063  0.1933 -0.0417 -0.1519
37915W        W80853  31.811  15.207  28.481 -0.1737  0.0844 -0.1381
37916W        W80854  31.000  16.555  26.123  0.2443 -0.1118  0.0883
37917W        W80855  32.002  16.118  27.708  0.1905  0.0871 -0.5019
37918W        W80856  29.059  17.124  27.722  0.1570 -0.1464  0.0879
37919W        W80857  30.679  13.662  25.206  0.3167 -0.1922  0.0296
37920W        W80858  32.963  18.819  23.399  0.0562  0.2694 -0.1776
37921W        W80859  31.494  14.695  28.207  0.2939  0.0983  0.2168
37922W        W80860  29.692  16.287  22.803 -0.3109 -0.1824  0.0899
37923W        W80861  28.849  16.098  26.634 -0.1770 -0.0207  0.0666
37924W        W80862  30.464  16.790  23.558  0.0236 -0.2338 -0.0611
37925W        W80863  30.634  16.265  26.794  0.1313  0.0360 -0.1943
37926W        W80864  30.641  16.468  25.331 -0.2177 -0.1080 -0.0327
37927W        W80865  30.466  17.775  24.627  0.1125 -0.0697 -0.2076
37928W        W80866  28.967  17.905  26.278  0.1665  0.0860  0.2561
37929W        W80867  33.566  15.574  25.960 -0.1361  0.1405 -0.1051
37930W        W80868  30.870  16.085  24.054  0.0716 -0.0709 -0.0487
37931W        W80869  32.002  14.806  25.791 -0.0536 -0.1029  0.2798
37932W        W80870  33.359  15.158  27.479  0.0390 -0.1758 -0.1043
37933W        W80871  32.317  16.029  24.638 -0.0386 -0.1462 -0.1385
37934W        W80872  32.055  15.876  27.184  0.1336  0.1218 -0.2869
37935W        W80873  31.049  14.046  27.226  0.3866  0.2991 -0.2697
37936W        W80874  31.913  17.308  25.991  0.0335 -0.1242  0.1131
37937W        W80875  29.394  14.863  27.242  0.1621  0.0517 -0.2866
37938W        W80876  32.125  18.611  27.131  0.2604  0.0178 -0.1514
37939W        W80877  28.308  15.984  26.648 -0.2797  0.1085  0.2671
37940W        W80878  31.308  14.604  24.210 -0.1851 -0.0420 -0.1481
37941W        W80879  29.919  14.714  24.191  0.0673  0.0631 -0.1431
37942W        W80880  31.386  14.797  26.385 -0.3065  0.1820  0.4276
37943W        W80881  32.100  15.643  27.907  0.2907  0.0905 -0.1748
37944W        W80882  29.737  19.164  26.101 -0.0826  0.0920  0.1831
37945W        W80883  33.181  15.777  26.635  0.0500 -0.2388 -0.0845
37946W        W80884  30.247  16.577  26.953  0.1583  0.1198 -0.1794
37947W        W80885  30.332  15.347  25.519 -0.1061 -0.2164  0.0888
37948W        W80886  32.249  15.672  25.701 -0.1327  0.3262 -0.0190
37949W        W80887  29.260  18.340  26.346 -0.4495  0.1409 -0.0814
37950W        W80888  30.582  14.174  27.019 -0.1945 -0.0812  0.4898
37951W        W80889  32.404  16.454  25.022 -0.3568  0.0901  0.0205
37952W        W80890  31.878  14.935  26.232  0.1709  0.4103 -0.1065
37953W        W80891  31.373  14.149  25.834 -0.0823 -0.2013 -0.1206
37954W        W80892  31.461  15.373  28.002  0.2285  0.0501  0.1681
37955W        W80893  30.903  17.232  26.501 -0.2092 -0.2346 -0.1252
37956W        W80894  28.921  15.768  26.042 -0.2649  0.0958 -0.0099
37957W        W80895  32.855  17.972  28.030  0.1400  0.1740  0.2850
37958W        W80896  32.600  15.563  25.365 -0.3795  0.1621  0.1944
37959W        W80897  33.041  15.304  25.652 -0.0289  0.0020  0.0169
37960W        W80898  33.403  16.216  26.473 -0.1086 -0.0739  0.1014
37961W        W80899  32.398  15.029  23.810 -0.0678  0.2514 -0.0520
37962W        W80900  30.398  15.711  25.970 -0.0901 -0.3604  0.0825
37963W        W80901  31.486  15.658  28.898  0.0974 -0.5172  0.0802
37964W        W80902  30.212  14.213  24.281 -0.0520  0.0827 -0.1924
37965W        W80903  32.520  15.374  27.777  0.0623 -0.1536  0.0200
37966W        W80904  31.712  18.480  25.125  0.2743 -0.1297  0.0360
37967W        W80905  31.129  16.493  27.334  0.0134  0.3658 -0.0951
37968W        W80906  30.821  15.183  25.330 -0.1315  0.1955 -0.2075
37969W        W80907  29.557  15.518  26.157 -0.0260  0.2184 -0.1692
37970W        W80908  28.932  16.596  28.109 -0.1224  0.2658 -0.0652
37971W        W80909  29.387  15.890  23.914  0.0611  0.1894  0.0622
37972W        W80910  31.780  16.186  24.488 -0.0425 -0.3441  0.3611
37973W        W80911  32.586  18.441  25.791  0.0916 -0.5643  0.0914
37974W        W80912  32.504  17.144  28.417 -0.0779 -0.1747  0.0397
37975W        W80913  31.475  13.452  22.918  0.3453 -0.2753 -0.3182
37976W        W80914  32.984  16.453  27.274 -0.3647 -0.1280  0.1706
37977W        W80915  29.391  17.078  24.298 -0.0201 -0.0115 -0.0949
37978W        W80916  30.128  13.793  24.859  0.2808 -0.0674  0.1002
37979W        W80917  29.502  19.038  28.513 -0.0198 -0.1921 -0.1719
37980W        W80918  29.096  16.928  26.074 -0.2575 -0.5641 -0.0025
37981W        W80919  31.240  15.638  26.489  0.1257 -0.2776 -0.0221
37982W        W80920  31.184  13.566  26.481 -0.0963 -0.3990 -0.2024
37983W        W80921  32.493  17.193  26.832 -0.1219  0.0402  0.2879
37984W        W80922  31.241  16.068  26.918  0.0475 -0.1846 -0.1735
37985W        W80923  32.030  15.525  26.778 -0.0314  0.0707 -0.1299
37986W        W80924  31.346  17.117  25.992  0.1298  0.0348  0.0811
37987W        W80925  30.477  15.021  26.070 -0.1775  0.4017  0.0587
37988W        W80926  31.775  18.234  26.490 -0.0150 -0.0694  0.3438
37989W        W80927  31.034  17.552  25.059 -0.0355 -0.0401  0.1046
37990W        W80928  29.810  15.888  24.167 -0.1711  0.0481  0.2024
37991W        W80929  28.926  16.683  26.540 -0.0378 -0.0905  0.1956
37992W        W80930  30.202  17.065  27.089 -0.0454  0.1327  0.0820
37993W        W80931  31.595  15.289  26.394  0.0158 -0.0202  0.1922
37994W        W80932  30.612  14.476  26.160  0.1397  0.0135  0.2433
37995W        W80933  31.014  15.029  24.430 -0.0872  0.1537  0.0565
37996W        W80934  29.155  17.588  28.483 -0.1168 -0.1656  0.0100
37997W        W80935  29.994  17.028  26.109 -0.0410  0.1742 -0.0083
37998W        W80936  31.601  19.842  25.302  0.3713 -0.1454 -0.1022
37999W        W80937  32.173  17.596  24.663  0.1911  0.0854 -0.1630
38000W        W80938  31.928  17.068  24.801 -0.0985 -0.1163  0.1540
38001W        W80939  29.544  17.887  27.693 -0.1749 -0.0598  0.2635
38002W        W80940  30.670  15.800  23.631  0.2518  0.0421  0.2641
38003W        W80941  28.349  17.220  23.956 -0.0824  0.2166  0.3548
38004W        W80942  29.196  18.294  24.680 -0.1837  0.0316 -0.3085
38005W        W80943  32.384  18.449  24.029  0.3821 -0.0713 -0.0982
38006W        W80944  30.272  16.849  24.827 -0.1511  0.0918 -0.1205
38007W        W80945  32.662  16.416  29.045  0.0320  0.2238 -0.0769
38008W        W80946  32.542  15.403  23.510  0.0464 -0.1174 -0.1959
38009W        W80947  31.380  16.650  25.207  0.1309  0.1141  0.0483
38010W        W80948  31.938  16.529  23.711 -0.2642  0.3033 -0.0216
38011W        W80949  31.155  17.288  29.060 -0.0414 -0.2193 -0.2442
38012W        W80950  31.037  16.147  26.412  0.1534  0.0139 -0.4429
38013W        W80951  30.905  14.920  23.982 -0.2193  0.1053  0.1017
38014W        W80952  29.654  16.199  27.880  0.2086  0.0159 -0.3373
38015W        W80953  33.214  14.610  27.346 -0.0316 -0.0640 -0.1081
38016W        W80954  29.038  18.071  28.449  0.3117 -0.1503  0.1222
38017W        W80955  30.794  18.473  25.047 -0.1556 -0.2083  0.2526
38018W        W80956  30.396  15.125  26.616  0.2661 -0.1761 -0.0596
38019W        W80957  31.310  16.113  25.928 -0.0146  0.1160  0.1008
38020W        W80958  32.876  15.137  27.342  0.0393  0.2459 -0.5879
38021W        W80959  31.638  16.481  24.105 -0.0082  0.2203 -0.0021
38022W        W80960  32.683  14.040  25.994  0.2854 -0.0704 -0.0143
38023W        W80961  30.242  17.604  25.482 -0.0074 -0.0073 -0.2875
38024W        W80962  30.698  17.287  25.454 -0.2749  0.2779  0.1038
38025W        W80963  30.057  19.097  26.514 -0.0412  0.1022 -0.0210
38026W        W80964  29.476  15.142  25.602  0.1579 -0.3595 -0.1822
38027W        W80965  33.456  15.044  24.089 -0.3301  0.1185 -0.0137
38028W        W80966  30.972  15.077  27.678 -0.1437 -0.1577  0.0575
38029W        W80967  32.340  14.375  25.574 -0.0264 -0.0864 -0.1079
38030W        W80968  31.609  15.761  26.847  0.0860  0.1771 -0.0618
38031W        W80969  32.502  16.417  23.718  0.2176 -0.0238 -0.0799
38032W        W80970  31.168  16.102  27.657 -0.0320 -0.0730 -0.0340
38033W        W80971  30.003  15.966  26.171 -0.0076 -0.0704 -0.1529
38034W        W80972  32.533  16.524  24.539  0.2355  0.0312  0.2713
38035W        W80973  32.568  15.801  28.047  0.0589 -0.3496  0.0850
38036W        W80974  32.074  14.645  23.398 -0.3953 -0.0064 -0.1055
38037W        W80975  31.237  19.244  27.996  0.1043 -0.1380  0.2683
38038W        W80976  29.146  15.353  24.089 -0.3958 -0.2552  0.3049
38039W        W80977  30.979  13.924  24.504  0.3131 -0.0895 -0.1562
38040W        W80978  30.537  15.217  24.807  0.0967 -0.0862 -0.2103
38041W        W80979  29.560  15.316  28.262  0.0456 -0.0408 -0.2177
38042W        W80980  33.211  18.302  28.313  0.2701  0.0895  0.0438
38043W        W80981  29.675  14.507  25.794  0.0942  0.1304 -0.1770
38044W        W80982  33.455  16.509  25.385 -0.2363  0.0654 -0.0779
38045W        W80983  32.997  16.509  26.330  0.1976 -0.0048  0.2275
38046W        W80984  29.644  18.928  24.644 -0.2728  0.0447 -0.0841
38047W        W80985  32.680  17.087  25.383 -0.1270  0.1255  0.3386
38048W        W80986  31.379  18.067  25.250 -0.0922  0.0655  0.0091
38049W        W80987  28.289  15.473  26.449  0.1184  0.3025  0.1228
38050W        W80988  32.788  16.327  25.909  0.0708 -0.1933  0.0986
38051W        W80989  32.913  16.834  26.933  0.1703  0.0959 -0.4777
38052W        W80990  31.344  13.886  24.105 -0.2066 -0.0618 -0.0875
38053W        W80991  31.637  14.515  26.034 -0.3128  0.0019 -0.3296
38054W        W80992  29.833  18.177  26.378  0.1229  0.0795  0.0772
38055W        W80993  31.737  14.887  26.734 -0.3740 -0.2223  0.0345
38056W        W80994  33.189  15.878  26.120 -0.1489 -0.1446  0.0215
38057W        W80995  31.092  18.652  23.940 -0.1020  0.0856  0.1551
38058W        W80996  32.642  13.940  27.772  0.0310 -0.0132 -0.2128
38059W        W80997  30.529  17.931  27.022  0.0833 -0.0135  0.0572
38060W        W80998  29.557  16.856  26.313  0.1820 -0.3757 -0.0151
38061W        W80999  30.313  15.665  23.996 -0.0231  0.1231 -0.0502
38062W        W81000  31.365  18.019  28.630  0.2938 -0.0409 -0.0223
38063W        W81001  29.843  17.374  25.779 -0.0052  0.2501 -0.2405
38064W        W81002  31.141  18.179  27.273  0.0330 -0.1626 -0.1120
38065W        W81003  33.295  18.224  25.004 -0.0401  0.0693 -0.3646
38066W        W81004  31.760  16.466  25.674 -0.1845 -0.0729 -0.1790
38067W        W81005  32.462  16.629  26.813  0.2743 -0.0763 -0.2232
38068W        W81006  30.683  14.592  25.157  0.1390  0.0658  0.3048
38069W        W81007  32.577  14.310  24.531 -0.1750  0.1289  0.1442
38070W        W81008  31.537  15.456  23.462 -0.0693 -0.3334 -0.0827
38071W        W81009  29.722  15.625  27.912 -0.0502 -0.0248 -0.0418
38072W        W81010  28.634  17.400  23.485  0.0619 -0.0778  0.1731
38073W        W81011  30.829  15.571  24.501 -0.0462  0.1580  0.1296
38074W        W81012  28.614  16.785  26.071  0.0965 -0.3306 -0.0702
38075W        W81013  31.442  14.839  27.188  0.0047  0.0583  0.0405
38076W        W81014  29.177  14.429  27.233  0.0648  0.2944  0.0548
38077W        W81015  31.256  15.330  25.584  0.1279  0.1849  0.3924
38078W        W81016  31.965  14.001  24.864  0.2221  0.1660 -0.2496
38079W        W81017  32.246  18.085  24.405 -0.0124 -0.1099 -0.1124
38080W        W81018  28.928  14.841  26.073  0.1422 -0.0790  0.0906
38081W        W81019  28.367  14.093  26.489 -0.1523  0.0138  0.1492
38082W        W81020  33.331  17.005  24.685 -0.0314 -0.3118 -0.4402
38083W        W81021  32.975  17.694  23.857 -0.2018  0.0790  0.1692
38084W        W81022  29.998  14.378  25.304 -0.0664 -0.0955 -0.4109
38085W        W81023  32.172  18.810  28.830  0.1934 -0.3418 -0.1659
38086W        W81024  29.327  16.678  22.839  0.2444  0.1000  0.1763
38087W        W81025  30.678  15.974  27.796 -0.0855 -0.0560 -0.0166
38088W        W81026  31.497  14.902  27.720  0.2114  0.2187  0.0405
38089W        W81027  29.081  14.992  24.566  0.1683  0.0161  0.0558
38090W        W81028  31.574  16.207  26.522  0.0167 -0.3200 -0.0534
38091W        W81029  31.589  18.737  24.533 -0.1287  0.0087 -0.1596
38092W        W81030  32.832  18.179  24.233  0.2210  0.1203  0.1396
38093W        W81031  31.282  16.566  25.701 -0.0224 -0.1592 -0.1886
38094W        W81032  30.815  17.713  26.648  0.1306  0.3086  0.3456
38095W        W81033  29.319  13.491  26.854 -0.0724 -0.2047  0.2827
38096W        W81034  32.336  17.138  24.378  0.0862 -0.0837  0.0758
38097W        W81035  29.823  16.626  27.252 -0.1049  0.1846 -0.2628
38098W        W81036  33.053  17.850  24.721 -0.0394 -0.0061  0.0535
38099W        W81037  32.892  15.818  27.014  0.2597  0.0487 -0.0209
38100W        W81038  30.514  14.372  25.675 -0.0661 -0.0401  0.1585
38101W        W81039  30.897  15.308  26.708  0.0147 -0.1218 -0.1575
38102W        W81040  28.907  17.009  27.054  0.0244  0.1168  0.1543
38103W        W81041  31.628  17.181  27.015  0.0217  0.2705  0.1211
38104W        W81042  30.162  14.997  24.571  0.0171  0.0811  0.0351
38105W        W81043  32.585  14.699  25.887 -0.1515 -0.3876 -0.0293
38106W        W81044  30.088  16.521  25.149 -0.2034  0.0880 -0.2092
38107W        W81045  29.836  15.772  26.608  0.1955  0.0558  0.4885
38108W        W81046  29.339  15.720  25.001 -0.2491 -0.4527  0.1963
38109W        W81047  31.588  16.430  27.634  0.6499 -0.0545 -0.1911
38110W        W81048  32.066  18.239  24.850 -0.0859 -0.1606 -0.1934
38111W        W81049  31.796  16.819  27.345 -0.1843  0.2111  0.1501
38112W        W81050  30.543  16.390  24.330  0.5285 -0.0380 -0.2533
38113W        W81051  31.390  17.368  24.595  0.1880  0.2064 -0.1526
38114W        W81052  31.631  18.265  27.935  0.0693  0.1831 -0.0181
38115W        W81053  30.657  18.396  26.487 -0.2211 -0.1745  0.3446
38116W        W81054  30.699  16.793  24.558  0.0207  0.2729 -0.1597
38117W        W81055  31.997  16.481  26.915 -0.0046  0.2094  0.1453
38118W        W81056  30.321  15.210  27.241 -0.0123 -0.0151  0.0592
38119W        W81057  30.404  16.920  25.302  0.0661  0.0376 -0.1068
38120W        W81058  30.679  15.715  24.935  0.1248  0.0265 -0.3154
38121W        W81059  32.338  16.447  25.896  0.1821  0.3357 -0.0544
38122W        W81060  30.237  14.589  26.551  0.1076 -0.1018 -0.0935
38123W        W81061  31.952  14.510  24.922 -0.0436  0.3279 -0.3060
38124W        W81062  31.653  18.571  26.112 -0.2991  0.2552 -0.1242
38125W        W81063  32.286  16.994  26.186  0.0472 -0.4464 -0.1792
38126W        W81064  30.148  16.684   0.267  0.2071 -0.0485  0.3016
38127W        W81065  29.108  16.278  30.712  0.2743  0.2416 -0.1799
38128W        W81066  31.606  15.314  27.368 -0.0715  0.1462 -0.1081
38129W        W81067  32.190  17.224  28.879 -0.1502 -0.0115 -0.1374
38130W        W81068  29.993  16.032  28.428  0.1645 -0.5499 -0.0957
38131W        W81069  30.730  19.412  28.433  0.1554  0.1572 -0.0574
38132W        W81070  29.788  14.524  30.966 -0.0304  0.2233  0.1900
38133W        W81071  31.878  17.463  29.801 -0.1741 -0.0647  0.0300
38134W        W81072  33.483  17.089  30.051  0.0520  0.0825  0.1614
38135W        W81073  31.870  16.279  26.128 -0.2904  0.1032  0.2050
38136W        W81074  30.745  16.438  31.512  0.3042  0.1118 -0.1220
38137W        W81075  30.923  18.384  29.716  0.1406 -0.0342  0.0043
38138W        W81076  30.953  15.017  27.172  0.0991 -0.3451 -0.0552
38139W        W81077  29.766  14.434  30.493  0.1505 -0.2319  0.0417
38140W        W81078  31.812  16.311  30.466 -0.1320 -0.4192 -0.0696
38141W        W81079  29.815  16.615  27.740  0.4023 -0.1211 -0.0391
38142W        W81080  30.526  16.919  30.413  0.0042 -0.1039 -0.0304
38143W        W81081  31.442  15.139  29.448  0.5180 -0.1771  0.1666
38144W        W81082  29.533  18.044  28.184  0.1271  0.1715 -0.0457
38145W        W81083  30.415  15.017  30.807 -0.2370  0.0508 -0.0755
38146W        W81084  30.350  15.467  30.658  0.0307  0.0252  0.0510
38147W        W81085  30.341  18.012  28.226  0.3002  0.0831  0.1705
38148W        W81086  30.542  15.075  28.116  0.0710 -0.2579  0.0382
38149W        W81087  29.482  16.707  30.290 -0.0704 -0.0965  0.0376
38150W        W81088  30.889  16.469  31.030 -0.0944 -0.2290  0.0345
38151W        W81089  31.780  16.030  29.073  0.0949 -0.1331 -0.2295
38152W        W81090  31.805  16.087  29.583  0.0390  0.0596 -0.1594
38153W        W81091  30.451  17.869  29.070  0.1473  0.1035 -0.1900
38154W        W81092  31.140  18.209  28.185  0.0387  0.0904 -0.3233
38155W        W81093  31.722  15.458  31.096 -0.1859  0.1763 -0.2075
38156W        W81094  30.010  17.187  28.137  0.0033  0.1025  0.2386
38157W        W81095  29.615  17.840  28.672  0.0362 -0.0962 -0.0723
38158W        W81096  29.851  17.516  27.795  0.0875 -0.2373  0.0008
38159W        W81097  33.008  19.014  30.042  0.1101 -0.2649  0.1699
38160W        W81098  32.615  18.868  31.731  0.0685  0.1345  0.0308
38161W        W81099  30.967  18.742  31.780  0.1381 -0.0090 -0.3026
38162W        W81100  30.292  15.988  27.062 -0.0976 -0.1438  0.2396
38163W        W81101  30.952  17.517  29.699  0.1439  0.1000  0.1610
38164W        W81102  31.372  17.576  30.971 -0.0492  0.0369 -0.0148
38165W        W81103  31.201  16.263  30.714 -0.0337  0.0531 -0.0640
38166W        W81104  30.872  15.494  28.140  0.1416  0.1305  0.0552
38167W        W81105  30.053  19.071  28.416  0.0989 -0.0809 -0.2652
38168W        W81106  31.296  18.502  28.652 -0.2194 -0.4350  0.0034
38169W        W81107  31.293  16.706  29.823 -0.2495 -0.0880  0.2976
38170W        W81108  29.555  17.664  30.429 -0.0541  0.1463  0.2774
38171W        W81109  32.190  15.397  30.750  0.2803  0.2034 -0.1776
38172W        W81110  30.185  17.129  26.584  0.2782 -0.0261  0.1681
38173W        W81111  31.733  14.211  28.273 -0.0999 -0.1546  0.2264
38174W        W81112  31.187  15.579  27.194  0.1814  0.3822  0.1363
38175W        W81113  31.872  14.752  28.741 -0.0020  0.0638  0.2592
38176W        W81114  29.206  14.556  29.936 -0.2089  0.2495  0.2744
38177W        W81115  30.148  17.328  28.802  0.2321  0.2119 -0.1890
38178W        W81116  30.698  15.430  31.059  0.2080  0.0946  0.0532
38179W        W81117  31.906  16.679  31.048 -0.2642 -0.1362 -0.3279
38180W        W81118  32.091  17.023  28.264  0.0693  0.0998 -0.1528
38181W        W81119  31.863  16.531  29.339  0.1457 -0.1196 -0.1408
38182W        W81120  29.956  17.687  29.207  0.1364 -0.1158 -0.1025
38183W        W81121  29.556  16.088  29.349 -0.1160 -0.0196 -0.1618
38184W        W81122  33.417  16.591  28.634  0.0320 -0.3160  0.0470
38185W        W81123  32.137  18.414  29.161 -0.0492 -0.1964  0.0672
38186W        W81124  31.144  19.729  28.002  0.1106 -0.0138 -0.4691
38187W        W81125  28.481  16.294  28.265 -0.1334 -0.1673 -0.2042
38188W        W81126  30.868  16.241  29.965  0.4039  0.0427  0.1033
38189W        W81127  29.916  15.599  31.480  0.1159 -0.1100  0.1710
38190W        W81128  30.852  15.809  26.788  0.2111  0.0811 -0.1529
38191W        W81129  33.178  17.388  29.591  0.2459  0.3182  0.0406
38192W        W81130  29.962  18.321  27.910 -0.0821 -0.0091 -0.2436
38193W        W81131  32.734  14.631  27.653 -0.0752 -0.1476  0.0801
38194W        W81132  31.531  17.826  29.940  0.0551  0.0115  0.2072
38195W        W81133  32.828  15.984  28.566  0.2521  0.3841 -0.3700
38196W        W81134  31.509  15.933  27.322  0.0975 -0.1811 -0.1802
38197W        W81135  31.404  14.784  29.085  0.3078 -0.1254 -0.0865
38198W        W81136  31.458  15.288  30.155 -0.1697  0.1154 -0.0217
38199W        W81137  30.594  16.822  26.632  0.0789  0.2981  0.0352
38200W        W81138  30.793  16.967  29.184  0.0385 -0.1230  0.0625
38201W        W81139  33.960  16.510  30.049  0.0529  0.0051  0.0712
38202W        W81140  33.364  16.627  28.109  0.1407 -0.1088  0.0662
38203W        W81141  29.719  18.868  30.866  0.3610 -0.1029 -0.1770
38204W        W81142  30.957  15.265  29.937  0.1052  0.2252 -0.0670
38205W        W81143  30.505  18.129  30.846 -0.0357 -0.1437 -0.2378
38206W        W81144  27.751  16.454  28.798 -0.3237 -0.1285 -0.1316
38207W        W81145  29.354  16.856  27.351  0.2826  0.1651 -0.0819
38208W        W81146  29.711  17.148  27.157  0.0583 -0.0626  0.1652
38209W        W81147  29.766  16.165  31.149  0.0976 -0.0001 -0.0706
38210W        W81148  30.228  16.866  29.073  0.1162  0.0265 -0.0376
38211W        W81149  32.867  15.401  26.619  0.4685 -0.0679 -0.1640
38212W        W81150  30.608  16.944  31.833  0.1860 -0.1081 -0.1236
38213W        W81151  34.413  15.089  30.122 -0.0279  0.1108  0.0933
38214W        W81152  29.224  16.434  29.246  0.3344  0.0215  0.0994
38215W        W81153  32.540  18.775  28.468  0.1629  0.0212  0.2040
38216W        W81154  32.641  15.444  29.962  0.1568 -0.1951 -0.0478
38217W        W81155  31.155  16.570  26.661 -0.3970  0.0532  0.0772
38218W        W81156  29.900  16.511  29.354  0.3257 -0.2789  0.0473
38219W        W81157  28.845  14.418  29.356 -0.0756 -0.5008  0.1609
38220W        W81158  28.889  14.595  31.458  0.1893 -0.0527 -0.1877
38221W        W81159  27.709  14.371  29.372 -0.1688 -0.2132  0.0679
38222W        W81160  32.972  15.064  30.015  0.2517  0.0584 -0.1787
38223W        W81161  30.148  15.016  27.720  0.1546  0.0856  0.0652
38224W        W81162  30.959  14.561  28.413  0.2028 -0.0358 -0.0963
38225W        W81163  28.973  15.898  29.516  0.0775 -0.0398  0.4574
38226W        W81164  28.322  16.563  29.146  0.4930 -0.0477  0.0438
38227W        W81165  32.169  14.000  30.415 -0.3305  0.0176 -0.0423
38228W        W81166  31.032  19.044  28.459 -0.0669 -0.0020  0.1084
38229W        W81167  33.490  17.012  30.529 -0.0505  0.1463 -0.1510
38230W        W81168  30.512  18.400  27.811  0.2126 -0.2758  0.2044
38231W        W81169  30.005  16.583  30.966 -0.1771 -0.0364  0.0136
38232W        W81170  29.892  15.575  28.490 -0.2737 -0.1332 -0.0941
38233W        W81171  30.817  18.589  28.322 -0.2340  0.2758 -0.0142
38234W        W81172  31.725  17.463  28.922  0.1815  0.0284  0.0158
38235W        W81173  30.433  14.563  28.440  0.0753 -0.2658  0.0500
38236W        W81174  33.198  16.268  29.410 -0.1575 -0.0502  0.0398
38237W        W81175  31.217  17.398  27.769 -0.0787 -0.0872 -0.0020
38238W        W81176  30.295  18.140  29.977 -0.3081  0.2935  0.1368
38239W        W81177  32.362  14.373  31.247  0.1687  0.1277  0.1106
38240W        W81178  33.145  16.420  30.309 -0.0352 -0.0866 -0.2896
38241W        W81179  32.747  17.093  28.969  0.1333  0.0105  0.1344
38242W        W81180  29.368  14.625  27.775  0.0405  0.0059 -0.0605
38243W        W81181  31.387  17.805  29.109  0.0935  0.2088  0.2579
38244W        W81182  28.963  17.698  29.530 -0.0700  0.0326  0.0336
38245W        W81183  28.351  18.038  28.920  0.3280  0.3687  0.0062
38246W        W81184  31.970  17.318  29.317  0.2243 -0.2671  0.4269
38247W        W81185  34.003  15.300  29.104 -0.2349  0.1686  0.1364
38248W        W81186  29.334  16.296  31.364  0.1265  0.0291  0.1379
38249W        W81187  32.883  16.653   0.162  0.0857 -0.1389 -0.1013
38250W        W81188  28.066  15.956  27.974 -0.0614 -0.4323  0.2599
38251W        W81189  29.243  17.240  30.360  0.3595  0.0606 -0.0593
38252W        W81190  31.764  15.086  29.796  0.0294  0.0872 -0.3318
38253W        W81191  31.706  15.713  28.282 -0.1838 -0.0331 -0.3362
38254W        W81192  32.789  17.685  29.730 -0.2155 -0.1094  0.2967
38255W        W81193  31.311  18.681  28.177  0.0220 -0.1578 -0.0570
38256W        W81194  31.775  16.625  28.380  0.0694 -0.1511 -0.2359
38257W        W81195  33.075  14.073  27.584 -0.3414  0.3417 -0.3461
38258W        W81196  30.841  16.778  30.060 -0.2108 -0.1066 -0.1603
38259W        W81197  28.650  17.717  28.331  0.2038 -0.1338  0.0886
38260W        W81198  30.737  17.823  31.278  0.1373 -0.1301  0.1574
38261W        W81199  30.675  15.982  28.508 -0.0719 -0.2414 -0.2994
38262W        W81200  32.177  18.005  28.100 -0.1113 -0.1121 -0.1946
38263W        W81201  28.066  17.153  31.445  0.2041 -0.4566  0.1091
38264W        W81202  33.100  17.415  30.513 -0.1048 -0.2773  0.0047
38265W        W81203  31.730  18.444  28.830 -0.1529  0.0188 -0.1728
38266W        W81204  31.378  16.208  31.897 -0.0067  0.0626  0.0164
38267W        W81205  30.291  16.692  28.035  0.0707  0.2391  0.1154
38268W        W81206  31.260  14.880  28.621 -0.0900  0.0013 -0.1767
38269W        W81207  27.854  18.112  29.100  0.2726  0.3630 -0.0523
38270W        W81208  32.730  13.992  31.302  0.0656 -0.0544 -0.2004
38271W        W81209  30.264  15.485  30.033  0.0727 -0.0509 -0.0648
38272W        W81210  31.333  14.706  30.654  0.0045 -0.1598 -0.1815
38273W        W81211  32.692  15.413  31.077  0.1408  0.3025  0.1910
38274W        W81212  32.286  14.375  30.026 -0.0257  0.0609 -0.2197
38275W        W81213  32.202  16.681  30.608 -0.1230  0.1451 -0.1111
38276W        W81214  30.532  17.315  26.829  0.0235  0.0158 -0.0870
38277W        W81215  30.678  14.454  30.907  0.1492  0.2006  0.0304
38278W        W81216  29.947  16.092  31.683 -0.2812 -0.1808  0.1278
38279W        W81217  29.647  17.537  29.860 -0.1104 -0.1693  0.0745
38280W        W81218  32.320  17.502  29.562 -0.0156 -0.0371 -0.0531
38281W        W81219  32.440  15.675  29.236  0.1494 -0.3941  0.1132
38282W        W81220  32.767  15.308   1.347 -0.0334 -0.2958  0.2340
38283W        W81221  30.960  14.123  28.140  0.0154  0.1125 -0.0293
38284W        W81222  28.750  18.255  28.082 -0.2248 -0.5033  0.1488
38285W        W81223  29.555  17.284  28.479 -0.2251  0.3533  0.1343
38286W        W81224  30.548  13.895  30.058  0.2577 -0.0825 -0.2439
38287W        W81225  29.907  18.137  28.946 -0.0979 -0.1016  0.1244
38288W        W81226  29.876  17.776  27.298 -0.1680 -0.0152 -0.3010
38289W        W81227  32.243  16.161  29.353  0.1303  0.0033 -0.0399
38290W        W81228  29.288  17.421  28.021 -0.4537 -0.1077 -0.0736
38291W        W81229  31.658  14.959  31.648 -0.0082 -0.0009 -0.2118
38292W        W81230  28.535  17.948  29.821 -0.0505 -0.1552 -0.3381
38293W        W81231  31.148  16.743  28.930  0.0397 -0.2127 -0.2322
38294W        W81232  29.193  15.179  29.007 -0.1299  0.0828 -0.0306
38295W        W81233  32.374  13.160  31.316  0.1399 -0.3572  0.1318
38296W        W81234  32.067  16.274  28.162  0.1139  0.0035 -0.4363
38297W        W81235  30.309  16.069  30.731  0.3591  0.2183  0.0372
38298W        W81236  30.048  15.016  30.211  0.3487  0.0709 -0.0852
38299W        W81237  28.583  19.190  28.334  0.1279  0.1255  0.1839
38300W        W81238  31.648  16.808  30.641 -0.3900 -0.0815 -0.1249
38301W        W81239  31.907  14.812  29.242  0.3532 -0.0043 -0.0899
38302W        W81240  32.242  17.852  29.899  0.0413 -0.0442  0.0912
38303W        W81241  30.035  16.973  31.721  0.3307 -0.2932 -0.0029
38304W        W81242  30.192  15.518  29.498 -0.1067  0.2419  0.2160
38305W        W81243  31.556  15.542  30.604 -0.1720  0.1508 -0.1373
38306W        W81244  29.173  17.063  29.097  0.1203 -0.0462 -0.1577
38307W        W81245  28.963  17.159  29.595 -0.0627 -0.0415  0.1290
38308W        W81246  30.895  18.006  29.999  0.0265  0.2155  0.2139
38309W        W81247  28.836  17.280  28.730 -0.1125  0.0817  0.1045
38310W        W81248  30.734  16.758  28.204  0.1394  0.0558  0.2659
38311W        W81249  31.391  16.589  31.051  0.0131 -0.0784  0.0666
38312W        W81250  32.687  16.475  29.563  0.1106  0.1037 -0.2855
38313W        W81251  29.705  16.242  30.117 -0.0411 -0.0230  0.2116
38314W        W81252  28.662  14.490  29.821  0.2122  0.0150  0.3462
38315W        W81253  32.321  16.055  28.844 -0.0218 -0.0485 -0.0734
38316W        W81254  32.901  17.221  30.008  0.1203 -0.1029  0.0412
38317W        W81255  32.423  15.697  30.368  0.0963  0.2148  0.6746
38318W        W81256  30.495  17.086  30.906  0.2267  0.2277  0.0851
38319W        W81257  31.782  14.706  30.169  0.2399  0.0553  0.2427
38320W        W81258  30.892  18.846  27.862  0.0556  0.1376 -0.1286
38321W        W81259  32.310  16.294  30.973 -0.1547 -0.0974  0.0804
38322W        W81260  30.305  15.782  28.834  0.1672 -0.2154  0.3528
38323W        W81261  28.239  16.136  29.439 -0.1805 -0.1133 -0.2708
38324W        W81262  31.175  16.603  28.423  0.0002  0.0012 -0.0005
38325W        W81263  30.995  14.947  29.510  0.3533 -0.1625  0.2385
38326W        W81264  30.347  16.816  31.324 -0.1323  0.0542  0.2894
38327W        W81265  31.244  17.508  26.802 -0.0024  0.1876  0.1104
38328W        W81266  28.891  19.533  30.688 -0.0185  0.0677 -0.0616
38329W        W81267  32.715  14.346  28.020  0.1323  0.1983  0.1811
38330W        W81268  31.230  19.063  27.456 -0.1891  0.1432 -0.2546
38331W        W81269  31.918  15.402  29.370  0.3624 -0.0422 -0.2668
38332W        W81270  33.786  14.443  31.696 -0.0155  0.1213 -0.2816
38333W        W81271  31.738  16.539  29.968  0.2331 -0.0231 -0.1501
38334W        W81272  32.237  15.969  31.600  0.1714 -0.0478 -0.0321
38335W        W81273  29.425  15.857  30.355 -0.0006  0.1030  0.2699
38336W        W81274  31.757  17.298  28.449  0.1368 -0.0610 -0.1841
38337W        W81275  29.179  15.875   0.134  0.1259  0.3030  0.2169
38338W        W81276  32.138  17.645  31.520  0.1333  0.2246  0.2821
38339W        W81277  30.308  15.844  31.192 -0.2696 -0.4068 -0.1173
38340W        W81278  31.124  15.245  28.972  0.0962  0.1155  0.1941
38341W        W81279  31.034  14.425  29.426  0.1207  0.2216  0.1501
38342W        W81280  29.947  17.066  29.585 -0.2113 -0.2578  0.1525
38343W        W81281  32.101  18.597  30.206  0.0416  0.0415  0.0489
38344W        W81282  31.156  17.074  29.532 -0.1282 -0.3361 -0.1157
38345W        W81283  32.891  14.313  30.988  0.7389  0.1657 -0.3591
38346W        W81284  29.448  16.357  28.462  0.0482 -0.0116  0.1595
38347W        W81285  31.121  15.042  28.176  0.2955  0.1112  0.1256
38348W        W81286  30.834  16.411  28.717  0.2979 -0.1142  0.1924
38349W        W81287  29.891  16.879  28.574  0.0857  0.2012 -0.2350
38350W        W81288  28.716  15.544  31.311 -0.1563  0.3067 -0.3911
38351W        W81289  33.032  18.076  28.871 -0.0418 -0.0641  0.0208
38352W        W81290  30.940  15.421  29.403 -0.1830 -0.2265  0.0696
38353W        W81291  31.282  15.222  30.816  0.0376 -0.0072  0.0641
38354W        W81292  31.440  16.990  31.356  0.1058  0.2339  0.1710
38355W        W81293  30.419  16.116  29.493  0.2986  0.0277  0.3422
38356W        W81294  29.561  14.869  30.248  0.0470 -0.0193 -0.1498
38357W        W81295  32.786  17.036  30.906  0.0170  0.2884 -0.1401
38358W        W81296  31.256  15.839  28.181 -0.0818 -0.2273  0.4358
38359W        W81297  32.148  14.879  30.792  0.0059  0.1459 -0.0835
38360W        W81298  33.036  15.363  29.141 -0.0244  0.2346  0.1370
38361W        W81299  30.730  15.005  28.593 -0.4082 -0.0641 -0.1304
38362W        W81300  29.929  15.220  29.774  0.1225 -0.1186 -0.1585
38363W        W81301  32.138  17.877   0.041  0.2438 -0.2612 -0.0848
38364W        W81302  29.108  16.656  28.702 -0.0321 -0.1936 -0.0698
38365W        W81303  31.882  15.418   0.139  0.0523  0.0936  0.2227
38366W        W81304  29.772  18.722  27.591 -0.1068  0.0012 -0.0821
38367W        W81305  32.075  16.460  28.795 -0.0690  0.0195  0.0806
38368W        W81306  32.078  15.636  28.893  0.3586  0.2103 -0.3030
38369W        W81307  29.987  15.447  29.031 -0.0308  0.0807  0.1619
38370W        W81308  30.488  18.362  31.910  0.2229 -0.0823 -0.1700
38371W        W81309  30.394  16.195  27.504 -0.0185  0.1864 -0.1228
38372W        W81310  31.232  16.231  29.135  0.3626  0.1427  0.2452
38373W        W81311  33.503  18.219  29.772 -0.2619 -0.2642  0.3859
38374W        W81312  32.914  16.580  31.684 -0.1923  0.1161  0.0613
38375W        W81313  32.669  14.159  29.713  0.2497  0.1288  0.0787
38376W        W81314  31.316  15.328  31.320  0.3695  0.0639 -0.1201
38377W        W81315  28.220  16.097  28.981  0.0680  0.0769 -0.2942
38378W        W81316  30.576  15.242  30.311  0.1950 -0.0925 -0.0253
38379W        W81317  31.277  18.650  31.258 -0.0704 -0.2197  0.1336
38380W        W81318  27.933  16.918  30.390 -0.0552  0.1178  0.0639
38381W        W81319  29.237  17.638  28.986  0.0783 -0.0846 -0.0437
38382W        W81320  30.467  15.061  29.779  0.1774 -0.1054  0.0054
38383W        W81321  31.655  15.625  29.789 -0.1461  0.1351  0.0691
38384W        W81322  31.931  17.023  30.167  0.0681  0.1303 -0.1877
38385W        W81323  33.235  15.868  30.608 -0.2371 -0.1097 -0.0864
38386W        W81324  32.607  17.208  30.470  0.0073  0.1598 -0.0503
38387W        W81325  29.353  16.612  27.767 -0.0265 -0.0186 -0.6413
38388W        W81326  31.205  17.048  30.793 -0.1382 -0.2867  0.1689
38389W        W81327  33.814  16.799  28.256  0.0811  0.4182 -0.1569
38390W        W81328  29.634  17.078  27.850 -0.0134  0.1727 -0.0720
38391W        W81329  29.531  15.603   0.554  0.2498 -0.1115  0.0053
38392W        W81330  31.308  17.457   0.043  0.0719  0.2070 -0.0843
38393W        W81331  33.514  16.647  29.224  0.0461  0.2510 -0.0686
38394W        W81332  30.333  13.804  27.813  0.2435 -0.1617  0.0905
38395W        W81333  31.366  17.071  26.509 -0.0506 -0.1308 -0.1068
38396W        W81334  30.867  17.404  30.754 -0.0691 -0.0010  0.0045
38397W        W81335  28.293  16.670  30.632  0.1416  0.0674 -0.0304
38398W        W81336  28.900  18.352  28.921 -0.2374 -0.0684 -0.5007
38399W        W81337  31.465  17.487  29.519  0.2030 -0.1295  0.1018
38400W        W81338  31.580  16.476  28.900  0.0529  0.1043 -0.0996
38401W        W81339  31.555  18.293  30.949  0.2293  0.2249  0.1228
38402W        W81340  30.606  15.722  29.221 -0.0273 -0.3123  0.0950
38403W        W81341  30.428  17.473  29.403 -0.1170  0.0508  0.2908
38404W        W81342  28.239  17.812  27.862 -0.2251  0.0738 -0.3240
38405W        W81343  32.677  18.498  28.825  0.1994 -0.0880 -0.1993
38406W        W81344  30.289  18.603  29.673  0.0281 -0.1184  0.3028
38407W        W81345  33.972  17.006  29.989 -0.0305 -0.0647 -0.1964
38408W        W81346  32.552  15.556  28.661 -0.1300  0.1465 -0.1767
38409W        W81347  33.316  15.220  29.764 -0.0024  0.2971  0.0067
38410W        W81348  33.817  15.017  29.571  0.0152  0.1540 -0.0419
38411W        W81349  30.603  17.842  30.423  0.1490  0.0113  0.0982
38412W        W81350  32.171  16.694  29.656 -0.0734 -0.1278 -0.4111
38413W        W81351  31.077  14.553  27.770  0.1666 -0.1460  0.0073
38414W        W81352  30.489  16.556  30.788 -0.3207  0.0709 -0.1612
38415W        W81353  32.394  14.094  31.714 -0.2911  0.1019 -0.1023
38416W        W81354  28.173  18.909  31.312  0.2010  0.0756 -0.1642
38417W        W81355  32.044  19.008  28.334 -0.1514  0.1339 -0.1502
38418W        W81356  32.263  14.456  27.517  0.2447  0.0991 -0.2685
38419W        W81357  31.382  16.622  29.379  0.2749  0.0380 -0.0808
38420W        W81358  32.900  12.675  31.114 -0.1456  0.1618  0.0238
38421W        W81359  30.676  17.388  28.889  0.2338 -0.0686  0.0121
38422W        W81360  31.440  15.817  29.399  0.1059  0.0142  0.4058
38423W        W81361  30.414  16.904  28.632 -0.0449 -0.0204  0.0868
38424W        W81362  30.449  17.590  30.922 -0.0304  0.0812  0.3625
38425W        W81363  31.607  17.007  29.165 -0.2785 -0.1607  0.3402
38426W        W81364  30.762  16.481  27.637 -0.0127  0.0114 -0.1124
38427W        W81365  31.851  17.233  31.234  0.2720  0.1253 -0.1421
38428W        W81366  29.347  15.912  30.966  0.0118 -0.0900 -0.1331
38429W        W81367  32.071  14.605  31.549  0.1128 -0.2098  0.0946
38430W        W81368  29.879  16.680  30.012 -0.2195 -0.0130 -0.0627
38431W        W81369  32.518  16.299  28.359  0.0062  0.1580 -0.2093
38432W        W81370  31.200  15.773  29.818  0.0845 -0.0819 -0.1369
38433W        W81371  30.792  15.996  30.775 -0.0903  0.0222  0.0644
38434W        W81372  30.031  17.102  27.528  0.0567 -0.1347 -0.1471
38435W        W81373  31.629  15.884  31.397 -0.0793 -0.0058 -0.0910
38436W        W81374  31.231  16.050  28.651 -0.0278 -0.1075 -0.0792
38437W        W81375  31.701  17.845  31.277 -0.0515  0.1855  0.1779
38438W        W81376  30.643  15.631  29.744  0.1798 -0.1200 -0.3004
38439W        W81377  32.157  14.869  28.289 -0.1200 -0.0059 -0.3548
38440W        W81378  30.923  15.947  29.487  0.0681  0.0381 -0.0325
38441W        W81379  31.183  14.816  30.060 -0.1224  0.1362 -0.5254
38442W        W81380  33.257  17.209  31.147 -0.0035 -0.2195 -0.2010
38443W        W81381  29.040  13.963  30.674  0.3249  0.1736  0.3400
38444W        W81382  32.647  17.540  28.705  0.1265 -0.1462 -0.0088
38445W        W81383  32.204  15.153  28.810 -0.0295 -0.3505  0.1080
38446W        W81384  28.946  17.149  28.234 -0.1750 -0.0154  0.0543
38447W        W81385  33.200  17.134  29.126  0.0639 -0.2951  0.0617
38448W        W81386  31.896  18.116  30.139 -0.0150  0.0050 -0.1929
38449W        W81387  29.433  17.022  29.742  0.0248 -0.0774 -0.0367
38450W        W81388  32.411  17.326  30.019  0.2525  0.0145 -0.1071
38451W        W81389  33.649  17.968  30.182 -0.1820 -0.0493 -0.2538
38452W        W81390  30.603  14.432  27.896 -0.1254  0.1937 -0.1574
38453W        W81391  29.996  15.888  29.193 -0.4579 -0.1041 -0.1412
38454W        W81392  30.409  17.392  28.372  0.0775  0.0604 -0.4284
38455W        W81393  32.572  14.786  29.869  0.0754 -0.0481 -0.0693
38456W        W81394  32.316  16.269  29.827  0.0164 -0.1255  0.1303
38457W        W81395  30.411  17.675  27.850 -0.0541  0.2567 -0.1587
38458W        W81396  33.308  14.247  30.689 -0.0441  0.1237  0.2457
38459W        W81397  30.042  17.642  30.152  0.0723 -0.1096 -0.0556
38460W        W81398  30.355  19.371  31.245 -0.1842 -0.0100  0.2181
38461W        W81399  30.321  15.575  28.253  0.1339 -0.0461 -0.0411
38462W        W81400  31.259  16.378  30.243 -0.1242  0.0391 -0.1769
38463W        W81401  30.843  17.398  27.333 -0.0112  0.1280  0.5532
38464W        W81402  29.696  18.675  28.237 -0.0823 -0.1053  0.0760
38465W        W81403  32.419  15.114  29.327 -0.1845 -0.0796  0.3445
38466W        W81404  29.868  16.501  28.211  0.1033  0.1483 -0.0677
38467W        W81405  33.515  18.931  29.667 -0.2921 -0.0857  0.0306
38468W        W81406  31.026  15.717  29.004 -0.0472  0.2545  0.4689
38469W        W81407  32.660  15.083  28.590 -0.1987 -0.0345 -0.2573
38470W        W81408  32.618  13.120  28.673  0.0768 -0.0816 -0.0985
38471W        W81409  30.170  17.343  31.347 -0.1266 -0.2026 -0.0827
38472W        W81410  29.051  16.226  27.754  0.3646 -0.0173 -0.0918
38473W        W81411  30.506  17.206  27.743 -0.1558  0.1277 -0.1642
38474W        W81412  28.707  17.345  29.172 -0.0528 -0.1646  0.0025
38475W        W81413  31.819  14.475  31.125 -0.0124 -0.2147 -0.0031
38476W        W81414  30.199  17.051  30.078 -0.0820  0.0889  0.2661
38477W        W81415  29.673  17.389  28.925 -0.1200 -0.0421 -0.0194
38478W        W81416  29.628  15.175  29.302  0.2040  0.1233 -0.2056
38479W        W81417  32.642  18.824  29.221 -0.0319 -0.2226  0.0941
38480W        W81418  29.530  16.488  29.681  0.0976  0.1471  0.3342
38481W        W81419  27.858  14.945  31.149  0.2442  0.0539  0.1219
38482W        W81420  30.960  17.761  29.283 -0.3939 -0.2499 -0.1301
38483W        W81421  32.139  17.596  30.426 -0.3378 -0.1429  0.1798
38484W        W81422  29.762  15.611  30.043  0.3566 -0.4538  0.1670
38485W        W81423  32.422  16.773  31.918  0.2886  0.0409 -0.0945
38486W        W81424  28.213  16.588  28.580  0.1928 -0.0012 -0.0066
38487W        W81425  31.240  15.711  31.023  0.0391 -0.0294  0.0533
38488W        W81426  31.625  16.047  30.928 -0.0303 -0.1311 -0.1212
38489W        W81427  29.580  16.617  28.937  0.2988 -0.0575 -0.1900
38490W        W81428  30.987  16.286  28.064  0.1036  0.1840  0.0730
38491W        W81429  29.789  19.107  27.981  0.1960 -0.1372 -0.0177
38492W        W81430  30.383  16.362  28.473  0.0687  0.2377  0.0359
38493W        W81431  28.691  16.309  28.783 -0.2561 -0.0191  0.0674
38494W        W81432  30.777  19.168  31.367 -0.1499 -0.0883  0.1652
38495W        W81433  29.450  12.664  30.464  0.2943  0.1480 -0.2562
38496W        W81434  31.517  16.279  28.183 -0.0962  0.0500  0.0369
38497W        W81435  32.161  17.180  30.712 -0.1808  0.2425  0.1103
38498W        W81436  31.400  17.672  28.213 -0.1347  0.1935  0.2816
38499W        W81437  32.222  15.713  29.670 -0.2445 -0.1371 -0.0249
38500W        W81438  32.501  16.730  28.668 -0.1154  0.1075  0.0856
38501W        W81439  28.353  16.786   0.182  0.2048 -0.0979  0.1506
38502W        W81440  30.953  16.687  30.582 -0.0592 -0.0975  0.1191
38503W        W81441  33.858  16.267  29.110 -0.1588  0.1814 -0.2140
38504W        W81442  29.849  14.717  29.589  0.0541 -0.1789 -0.4526
38505W        W81443  30.445  14.113  28.316 -0.1686 -0.1155  0.0318
38506W        W81444  30.500  17.495  26.323  0.0066  0.1159 -0.1274
38507W        W81445  29.221  16.290  30.203  0.0234 -0.1334 -0.0388
38508W        W81446  30.416  14.717  28.929  0.0841  0.2585 -0.0037
38509W        W81447  30.731  17.432  31.550 -0.2884  0.0738  0.0026
38510W        W81448  30.882  18.239  29.231  0.2013  0.0195 -0.1945
38511W        W81449  32.813  16.512  31.140  0.0599 -0.0485 -0.1242
38512W        W81450  29.353  15.699  29.175  0.0633 -0.0712  0.0125
38513W        W81451  31.769  16.127  28.582  0.2932 -0.2002 -0.1931
38514W        W81452  31.680  17.817  30.515  0.2840 -0.0545  0.4066
38515W        W81453  33.182  18.197   0.555 -0.0993  0.3477  0.1091
38516W        W81454  30.487  17.634  29.956 -0.2639 -0.0801 -0.0386
38517W        W81455  32.184  17.598  28.557 -0.0861 -0.1788  0.1033
38518W        W81456  28.826  14.434  30.293  0.2335 -0.1111  0.3623
38519W        W81457  30.197  17.848  28.636  0.1597 -0.0498 -0.3191
38520W        W81458  30.391  16.694  29.602  0.0094 -0.0570 -0.2720
38521W        W81459  32.779  14.981  30.608 -0.1999  0.1267 -0.1362
38522W        W81460  29.493  15.057  29.819  0.0166  0.1555  0.0719
38523W        W81461  31.052  13.768  29.907  0.1947 -0.0065 -0.0356
38524W        W81462  31.020  19.045  30.372  0.3514  0.1136 -0.0284
38525W        W81463  31.695  16.943  29.660  0.3362  0.5544  0.0220
38526W        W81464  31.854  15.905  31.914 -0.1524 -0.0575  0.2372
38527W        W81465  31.343  17.286  29.959  0.2058 -0.1432 -0.1846
38528W        W81466  29.443  15.766  31.433 -0.0812 -0.1431 -0.2093
38529W        W81467  30.590  17.155  29.777 -0.4160 -0.1258  0.0528
38530W        W81468  30.867  16.476  29.505 -0.0538  0.0791  0.2354
38531W        W81469  29.499  19.161  31.226 -0.0869  0.0562 -0.2855
38532W        W81470  32.472  15.241  31.495 -0.1520 -0.1514 -0.0621
38533W        W81471  30.145  15.372  31.106 -0.0390  0.0079  0.2130
38534W        W81472  33.083  14.757  30.939 -0.2286 -0.0564 -0.0038
38535W        W81473  32.990  16.925  30.385  0.0518  0.1466  0.2207
38536W        W81474  30.872  17.259  30.237  0.0937  0.0724 -0.2678
38537W        W81475  30.912  15.460  30.619 -0.0775 -0.1444 -0.1542
38538W        W81476  32.559  17.160  31.566 -0.0249 -0.1175 -0.2356
38539W        W81477  29.795  17.639  31.567  0.0593  0.1242 -0.0193
38540W        W81478  31.908  16.312  31.439 -0.4149  0.1147 -0.2901
38541W        W81479  29.852  19.852  31.881 -0.1310 -0.2189  0.2327
38542W        W81480  29.211  18.427  31.660 -0.0046  0.3009 -0.2711
38543W        W81481  31.705  18.302  31.459  0.6833  0.1211 -0.0787
38544W        W81482  30.628  14.176  31.643 -0.1937  0.0236  0.2421
38545W        W81483  30.438  15.937  31.706 -0.0391  0.1549  0.0997
38546W        W81484  30.404  15.483  31.570  0.1381 -0.2137 -0.0070
38547W        W81485  30.446  18.775   0.259  0.1728  0.2488  0.1526
38548W        W81486  33.578  15.197   0.838  0.1206 -0.0481 -0.0674
38549W        W81487  32.129  16.393  31.869  0.0723 -0.2036  0.0096
38550W        W81488  31.453  15.075   0.137 -0.1519 -0.1005 -0.1138
38551W        W81489  32.976  15.692   1.150 -0.0001 -0.1389  0.2413
38552W        W81490  31.578  15.931  30.187 -0.2132  0.1488 -0.2882
38553W        W81491  30.041  17.282  30.844  0.0067  0.2286 -0.0982
38554W        W81492  29.964  16.740   0.838  0.1777  0.1080  0.2692
38555W        W81493  31.491  16.135   0.657  0.1931 -0.0625 -0.0120
38556W        W81494  32.070  18.080  30.632  0.0027 -0.0860 -0.1095
38557W        W81495  30.716  17.433   0.632  0.0074 -0.0428  0.0543
38558W        W81496  33.703  15.334  30.709 -0.1823  0.2122  0.0744
38559W        W81497  32.156  15.047  31.874  0.1750  0.2242  0.0347
38560W        W81498  29.878  16.863  30.582  0.0401  0.0762  0.1153
38561W        W81499  30.690  17.537   0.099  0.1894  0.0889  0.0558
38562W        W81500  31.081  17.099  31.713 -0.0025  0.0375  0.2980
38563W        W81501  33.181  17.674  30.051 -0.0333  0.0223 -0.0789
38564W        W81502  31.738  15.851   1.087 -0.0556  0.4142  0.1419
38565W        W81503  29.748  17.602  31.049  0.1257  0.0414  0.1068
38566W        W81504  32.718  15.478   0.727 -0.0238  0.1557 -0.0573
38567W        W81505  32.981  15.138  31.443  0.0202 -0.3071  0.0437
38568W        W81506  31.930  15.498  31.597 -0.2136  0.2908 -0.0779
38569W        W81507  31.939  17.620  30.857  0.0009 -0.1587  0.0044
38570W        W81508  31.046  15.880  31.753  0.0107 -0.0303  0.3078
38571W        W81509  32.093  15.846  31.162 -0.1965 -0.0230 -0.1931
38572W        W81510  32.822  14.492   1.700  0.2871 -0.0292  0.1798
38573W        W81511  31.333  16.883  30.260 -0.3119 -0.2047 -0.1932
38574W        W81512  32.636  15.995  31.236 -0.0297 -0.1246 -0.1709
38575W        W81513  28.687  16.940  30.813 -0.3489 -0.0514 -0.1510
38576W        W81514  32.107  18.097  31.616  0.1307 -0.2060 -0.3736
38577W        W81515  32.513  14.900  31.133  0.2001  0.0769  0.0608
38578W        W81516  31.191  16.728   0.048  0.3082 -0.1658  0.1309
38579W        W81517  30.220  17.524  31.825 -0.2357 -0.2041  0.0556
38580W        W81518  32.586  15.951   0.841 -0.3320 -0.0740  0.1410
38581W        W81519  32.278  15.439   1.523  0.1289  0.0088 -0.0298
38582W        W81520  33.215  18.566  31.148  0.1290  0.0152  0.2330
38583W        W81521  30.801  17.991   0.280  0.0926 -0.3222  0.2313
38584W        W81522  29.022  16.611   0.710 -0.0628  0.0350 -0.2453
38585W        W81523  30.302  16.499  31.789  0.2016  0.2816 -0.2630
38586W        W81524  28.750  17.663   0.554  0.1459 -0.0173  0.0053
38587W        W81525  29.738  15.640  29.532  0.1800  0.2875 -0.0168
38588W        W81526  30.059  16.399  30.457 -0.2033 -0.2369  0.4111
38589W        W81527  29.302  15.214  31.644 -0.0933  0.2991 -0.0827
38590W        W81528  33.552  17.636  30.671  0.1115  0.1509 -0.0524
38591W        W81529  33.181  16.905   0.446 -0.2445 -0.0260  0.0142
38592W        W81530  33.182  15.632  31.849 -0.0905 -0.4012  0.1915
38593W        W81531  30.064  20.971  19.562 -0.2043  0.1876 -0.1892
38594W        W81532  29.482  19.462  18.534 -0.0594  0.0543 -0.3168
38595W        W81533  31.905  17.883  16.429  0.1196  0.1826 -0.3334
38596W        W81534  32.436  20.107  18.294 -0.1480  0.2316  0.0958
38597W        W81535  29.794  19.258  17.706 -0.0807  0.0076  0.0316
38598W        W81536  32.247  20.498  18.007 -0.0818 -0.1607 -0.2062
38599W        W81537  30.449  16.664  18.835 -0.0515  0.0217  0.1518
38600W        W81538  31.567  20.941  16.993 -0.0539  0.0172  0.3229
38601W        W81539  31.907  22.712  18.649 -0.0109  0.2819  0.2747
38602W        W81540  31.612  21.312  16.113  0.0481 -0.0421  0.0007
38603W        W81541  31.375  19.165  17.839  0.1789  0.1451  0.2284
38604W        W81542  30.404  20.446  19.693 -0.1166  0.0250 -0.0074
38605W        W81543  30.520  19.871  17.046 -0.2634  0.0698 -0.3957
38606W        W81544  29.770  18.268  17.765 -0.2715 -0.3060 -0.2087
38607W        W81545  30.735  20.165  20.048 -0.2906 -0.0630  0.0441
38608W        W81546  28.675  20.214  17.608  0.3286 -0.0586  0.1716
38609W        W81547  30.694  20.034  19.574 -0.0320 -0.1511 -0.0048
38610W        W81548  31.341  18.693  18.142 -0.1717  0.0054 -0.0828
38611W        W81549  31.398  20.979  17.460 -0.0538 -0.2604 -0.2596
38612W        W81550  30.410  19.740  20.159  0.2511  0.0319  0.0098
38613W        W81551  31.613  17.961  20.580 -0.2013 -0.0412 -0.0888
38614W        W81552  32.429  20.934  17.587 -0.2890  0.0585 -0.2331
38615W        W81553  28.280  20.161  16.719  0.0693  0.2027  0.0784
38616W        W81554  29.857  19.642  19.395  0.5224 -0.1612  0.2429
38617W        W81555  30.787  20.384  19.192 -0.1925 -0.3100 -0.0038
38618W        W81556  31.737  17.173  17.653 -0.1953 -0.0036  0.1451
38619W        W81557  31.675  20.287  17.134 -0.2081 -0.1003  0.1436
38620W        W81558  29.806  22.121  19.717  0.1665 -0.1005 -0.2821
38621W        W81559  29.311  21.297  18.836 -0.2816 -0.2037 -0.0330
38622W        W81560  30.979  20.016  18.912  0.0341  0.3526  0.0067
38623W        W81561  27.930  20.685  17.866  0.1991  0.2414 -0.0923
38624W        W81562  28.365  21.297  19.716 -0.0185  0.1481  0.1143
38625W        W81563  29.483  21.625  16.186  0.1118 -0.0381  0.1419
38626W        W81564  31.972  18.691  17.419  0.1281  0.0378  0.2407
38627W        W81565  31.293  21.599  20.066 -0.0917 -0.2154  0.0392
38628W        W81566  30.822  21.602  19.763 -0.1556  0.0076  0.0543
38629W        W81567  29.654  19.256  16.649 -0.1550 -0.2673  0.1988
38630W        W81568  30.470  22.363  19.606 -0.0231 -0.0555 -0.1913
38631W        W81569  28.861  21.729  22.128 -0.1693 -0.3088 -0.0882
38632W        W81570  30.335  18.992  18.330 -0.1095 -0.2149  0.2140
38633W        W81571  30.174  20.416  16.970 -0.2327 -0.1993  0.1020
38634W        W81572  30.347  21.628  17.762  0.0324 -0.0745 -0.0434
38635W        W81573  29.919  20.641  19.109 -0.1158  0.2914  0.0005
38636W        W81574  29.639  22.349  20.411 -0.1299 -0.0695  0.1590
38637W        W81575  29.555  21.423  17.764 -0.0168 -0.1723 -0.0194
38638W        W81576  32.140  18.007  20.578  0.2742  0.1345 -0.2748
38639W        W81577  30.042  21.454  16.939  0.0594  0.1114 -0.2596
38640W        W81578  32.857  20.700  15.916 -0.4993 -0.1381  0.2074
38641W        W81579  30.893  20.301  16.807 -0.0063 -0.0748  0.1909
38642W        W81580  31.244  19.356  16.419 -0.1135  0.0356 -0.0135
38643W        W81581  30.811  17.840  18.778  0.0969  0.1527  0.1563
38644W        W81582  29.220  20.979  17.711  0.1749  0.0946 -0.0614
38645W        W81583  29.293  18.653  18.179  0.2702  0.1816  0.2323
38646W        W81584  31.523  20.797  20.400 -0.0267 -0.1446 -0.0168
38647W        W81585  30.167  20.719  18.060 -0.1042 -0.2015  0.1707
38648W        W81586  31.120  21.364  18.229  0.1507  0.3884  0.0613
38649W        W81587  30.217  20.270  20.109  0.0041  0.0969 -0.1215
38650W        W81588  30.036  21.358  18.456 -0.2524  0.2565 -0.2288
38651W        W81589  33.666  21.504  16.792 -0.1742  0.1156 -0.1275
38652W        W81590  32.319  20.781  18.811  0.0426 -0.2654  0.2176
38653W        W81591  31.607  22.273  15.770 -0.2051 -0.1514 -0.0963
38654W        W81592  29.575  18.700  17.812 -0.0225  0.2545 -0.0778
38655W        W81593  28.955  18.320  20.731  0.1247 -0.0875  0.2573
38656W        W81594  30.214  19.982  20.651  0.2077  0.1295 -0.0555
38657W        W81595  30.821  19.057  17.360 -0.2084 -0.1408 -0.1343
38658W        W81596  32.722  21.567  19.360 -0.0154  0.0883 -0.1419
38659W        W81597  28.746  21.219  19.344 -0.3072  0.0061  0.2858
38660W        W81598  31.944  19.610  16.506  0.0982  0.0558 -0.1600
38661W        W81599  31.079  20.452  18.623  0.0219  0.1686 -0.1886
38662W        W81600  31.746  21.286  20.164  0.0905 -0.0088  0.2330
38663W        W81601  31.930  20.129  18.058 -0.0809  0.2148  0.0235
38664W        W81602  31.386  19.447  16.893 -0.1541  0.0914  0.2542
38665W        W81603  31.491  17.900  19.695 -0.2892 -0.2409 -0.1120
38666W        W81604  29.371  19.673  18.078 -0.4085 -0.3143 -0.1010
38667W        W81605  30.923  19.545  17.339  0.1352  0.0542 -0.0768
38668W        W81606  32.127  21.663  20.302 -0.0234 -0.0141  0.2557
38669W        W81607  31.361  20.626  16.145  0.0210 -0.1298  0.1677
38670W        W81608  29.336  23.189  19.455  0.1927 -0.2823  0.0548
38671W        W81609  30.995  17.370  19.478  0.2920 -0.0382  0.1289
38672W        W81610  30.215  21.939  19.532 -0.1047 -0.0890  0.0817
38673W        W81611  29.799  21.774  15.788 -0.2757 -0.0855 -0.0758
38674W        W81612  29.528  21.164  19.360 -0.0859 -0.2387  0.1415
38675W        W81613  29.794  20.028  16.893 -0.1302  0.2077 -0.1459
38676W        W81614  30.742  18.561  19.721 -0.1163 -0.0879 -0.0431
38677W        W81615  29.345  22.226  19.037 -0.0979 -0.1519  0.1135
38678W        W81616  32.148  19.027  17.771  0.1819  0.1361  0.1632
38679W        W81617  28.442  18.911  19.642 -0.1859  0.0764 -0.2883
38680W        W81618  31.603  18.833  18.527  0.0630  0.0271  0.2451
38681W        W81619  30.236  19.615  17.839 -0.1722  0.3005 -0.1532
38682W        W81620  32.885  23.049  19.752  0.2729 -0.1458  0.0154
38683W        W81621  31.820  20.596  16.738 -0.0880 -0.1583 -0.3807
38684W        W81622  31.161  21.299  17.007  0.0159  0.1696  0.0193
38685W        W81623  29.003  20.470  19.670 -0.2290  0.1344 -0.1599
38686W        W81624  30.702  19.932  18.143 -0.0831  0.3065  0.0497
38687W        W81625  30.630  17.745  20.067 -0.1756 -0.2106 -0.0659
38688W        W81626  30.349  20.354  18.748  0.1743  0.1240 -0.1333
38689W        W81627  32.184  19.955  19.117 -0.5079  0.1067 -0.1195
38690W        W81628  29.516  17.995  18.672  0.1586 -0.2008 -0.0902
38691W        W81629  30.888  17.835  17.799 -0.0528  0.1426  0.0710
38692W        W81630  29.387  21.171  18.170  0.1962 -0.0329 -0.0952
38693W        W81631  28.204  19.386  17.956 -0.2423  0.0163  0.0707
38694W        W81632  30.895  19.618  19.963 -0.0181  0.0030  0.3062
38695W        W81633  32.444  20.380  17.558 -0.1429  0.1529 -0.1058
38696W        W81634  32.111  22.710  20.661  0.0347 -0.4024  0.1845
38697W        W81635  32.365  19.922  16.775 -0.2401 -0.1427  0.0526
38698W        W81636  30.085  19.158  19.477  0.0751 -0.0499 -0.1304
38699W        W81637  30.117  20.040  17.370 -0.1082 -0.0759  0.1314
38700W        W81638  29.542  22.848  19.088 -0.0544 -0.2697 -0.0726
38701W        W81639  29.632  20.466  16.791  0.0822 -0.2980  0.1540
38702W        W81640  29.596  18.287  16.891  0.0141 -0.2434  0.1019
38703W        W81641  31.693  21.715  18.351  0.1500 -0.0676 -0.4136
38704W        W81642  31.391  19.241  18.854  0.1273 -0.0722 -0.0938
38705W        W81643  29.306  19.718  19.413 -0.3022 -0.1914  0.1414
38706W        W81644  31.303  18.883  19.927 -0.0957  0.0209  0.1568
38707W        W81645  30.937  21.625  20.398 -0.0793 -0.0239 -0.0959
38708W        W81646  31.703  19.121  17.433  0.1239 -0.1428 -0.1679
38709W        W81647  28.707  19.904  16.735 -0.3719  0.1455 -0.0221
38710W        W81648  32.006  21.456  16.930  0.0575 -0.0065 -0.1863
38711W        W81649  30.344  22.059  16.891 -0.2850  0.2285 -0.2191
38712W        W81650  30.579  20.567  18.293 -0.0717  0.0843  0.0641
38713W        W81651  30.420  22.073  17.980  0.2293 -0.0137  0.0833
38714W        W81652  31.422  17.992  17.518  0.0303 -0.1221  0.0695
38715W        W81653  29.878  20.784  20.955  0.3442 -0.2562 -0.5196
38716W        W81654  31.714  20.085  19.199  0.1661 -0.2400  0.1658
38717W        W81655  28.791  19.059  18.808  0.0727 -0.0204 -0.2057
38718W        W81656  29.435  20.228  19.367  0.0320  0.0172 -0.2173
38719W        W81657  30.745  17.324  17.527  0.0570  0.1159  0.1458
38720W        W81658  30.938  19.741  16.809  0.1988 -0.0267  0.0604
38721W        W81659  31.242  20.266  19.392  0.1108  0.0137  0.1393
38722W        W81660  32.156  20.447  17.058  0.1129  0.0511 -0.0823
38723W        W81661  31.772  18.263  17.214 -0.1187 -0.1084  0.0348
38724W        W81662  30.031  17.978  16.718 -0.1068 -0.1546  0.0179
38725W        W81663  29.497  20.256  20.177  0.1820 -0.2332  0.1366
38726W        W81664  28.846  19.601  18.564 -0.0033 -0.1437 -0.1042
38727W        W81665  30.466  21.675  18.560  0.0296  0.2119  0.1636
38728W        W81666  31.033  18.753  17.710  0.2107 -0.0372 -0.0416
38729W        W81667  33.081  22.642  17.515 -0.0385  0.0504 -0.1024
38730W        W81668  30.779  21.909  21.156  0.1267  0.0699  0.2519
38731W        W81669  31.466  20.875  19.923 -0.0334  0.2184 -0.1380
38732W        W81670  30.842  21.046  17.372  0.3797  0.1218  0.5056
38733W        W81671  30.034  18.822  17.946  0.0786 -0.0025 -0.0749
38734W        W81672  29.875  18.985  18.566 -0.1197  0.3198  0.0534
38735W        W81673  31.034  19.617  17.902 -0.0740 -0.1482  0.0486
38736W        W81674  27.908  21.178  18.033 -0.0722 -0.1345  0.0422
38737W        W81675  32.337  18.683  19.446 -0.0697 -0.2290 -0.1295
38738W        W81676  31.145  16.926  19.476  0.0445 -0.0075  0.0006
38739W        W81677  30.443  18.235  19.520  0.2000 -0.3366 -0.2935
38740W        W81678  31.870  19.536  20.286 -0.0101  0.0447  0.1318
38741W        W81679  32.585  18.650  18.531 -0.2544  0.0719  0.1775
38742W        W81680  31.014  20.900  17.888 -0.1530 -0.2335 -0.3244
38743W        W81681  27.574  20.338  16.180  0.2433 -0.3068 -0.1235
38744W        W81682  30.031  21.497  20.399 -0.0294 -0.1042 -0.0142
38745W        W81683  29.124  19.994  19.808 -0.0857  0.1231 -0.0381
38746W        W81684  29.985  21.125  21.315 -0.0893 -0.3446 -0.1009
38747W        W81685  31.194  19.713  20.872 -0.1399  0.1422  0.0150
38748W        W81686  31.344  20.499  16.641 -0.0467  0.1911  0.0740
38749W        W81687  32.139  17.327  19.817 -0.0607 -0.1437 -0.0572
38750W        W81688  31.605  19.665  18.382 -0.2706  0.2463 -0.1960
38751W        W81689  28.632  22.371  18.191 -0.2188  0.1406 -0.1692
38752W        W81690  29.446  20.534  17.583 -0.2646  0.0364  0.2528
38753W        W81691  29.295  18.917  20.037 -0.0132 -0.0676  0.1583
38754W        W81692  29.843  21.555  18.862  0.0057  0.0092  0.1109
38755W        W81693  29.583  21.360  17.103  0.0562  0.3425 -0.0994
38756W        W81694  31.805  20.737  19.317  0.0029 -0.0584  0.1567
38757W        W81695  29.187  20.999  16.169  0.1445  0.0039  0.0930
38758W        W81696  31.831  18.612  19.282  0.2147 -0.2316  0.0471
38759W        W81697  28.943  21.656  16.929 -0.0875 -0.2214  0.2281
38760W        W81698  30.314  18.413  18.180  0.1205  0.2109  0.3512
38761W        W81699  29.163  20.600  18.115 -0.0739  0.1039  0.1691
38762W        W81700  31.696  18.782  17.852 -0.3573  0.0115 -0.1099
38763W        W81701  32.183  20.423  16.400 -0.0745 -0.2006 -0.2003
38764W        W81702  29.847  18.508  18.340 -0.0050  0.2243  0.1812
38765W        W81703  30.514  19.794  18.672  0.0504 -0.2397 -0.2743
38766W        W81704  27.254  22.576  19.027 -0.4082 -0.0954 -0.1997
38767W        W81705  30.946  21.331  18.678  0.1787  0.0073 -0.1192
38768W        W81706  32.711  17.940  17.115  0.0406  0.1725  0.0632
38769W        W81707  30.309  21.203  17.438 -0.1613  0.0845 -0.2255
38770W        W81708  30.847  21.684  19.038 -0.1769  0.1475  0.0948
38771W        W81709  28.919  19.797  17.652 -0.0231  0.3517  0.4501
38772W        W81710  30.995  18.976  18.645 -0.2024 -0.1917  0.4608
38773W        W81711  29.334  20.160  16.585 -0.1619  0.1947 -0.0317
38774W        W81712  28.574  22.330  17.194  0.1799  0.1256 -0.1264
38775W        W81713  30.797  20.998  18.367  0.0006 -0.1112 -0.3043
38776W        W81714  30.359  19.491  17.355  0.0616  0.1624 -0.3395
38777W        W81715  28.307  20.586  17.487  0.1135  0.1620  0.0243
38778W        W81716  29.870  20.504  20.397 -0.1638  0.2628  0.0560
38779W        W81717  32.113  21.886  18.550 -0.0375  0.2814 -0.4720
38780W        W81718  29.977  18.959  19.976  0.0481 -0.2009 -0.0567
38781W        W81719  29.333  19.966  18.535 -0.0200 -0.0581 -0.0164
38782W        W81720  29.875  20.367  17.738 -0.1044  0.1212  0.0082
38783W        W81721  31.311  19.291  18.323  0.1230 -0.1623 -0.1606
38784W        W81722  31.008  20.656  20.202  0.1258  0.1221  0.3610
38785W        W81723  30.585  22.337  20.918  0.1606  0.0325  0.0690
38786W        W81724  31.449  18.425  19.729  0.0208  0.0207  0.0704
38787W        W81725  32.416  21.651  17.118  0.0122  0.0913  0.2310
38788W        W81726  31.196  20.032  18.372  0.2364  0.0984  0.2895
38789W        W81727  29.480  20.573  16.335  0.0130  0.3116  0.1853
38790W        W81728  29.805  20.325  19.752  0.0369  0.0835 -0.0294
38791W        W81729  29.801  19.833  17.749 -0.1702  0.5045  0.1989
38792W        W81730  30.595  19.240  18.726 -0.0781 -0.0903 -0.0808
38793W        W81731  29.903  21.486  19.416 -0.0949  0.1407  0.2238
38794W        W81732  29.338  20.842  17.158  0.3401  0.1698 -0.0881
38795W        W81733  29.186  20.832  18.557 -0.0122 -0.0015 -0.0488
38796W        W81734  31.791  18.276  17.722  0.1183 -0.1719  0.2226
38797W        W81735  31.861  20.041  16.731 -0.2376  0.0032  0.0182
38798W        W81736  30.644  20.006  17.634 -0.0113 -0.0744 -0.0441
38799W        W81737  32.218  19.886  19.987 -0.1096  0.2815 -0.1532
38800W        W81738  32.196  21.015  16.101 -0.1961  0.0487 -0.1302
38801W        W81739  31.780  20.460  20.708 -0.1176 -0.2217 -0.1540
38802W        W81740  30.971  19.660  19.432  0.1421  0.1712 -0.0321
38803W        W81741  32.894  20.263  18.126 -0.2210 -0.0136 -0.0360
38804W        W81742  28.786  19.398  20.387 -0.3341 -0.1935 -0.1839
38805W        W81743  30.859  23.070  20.310  0.2062  0.2019 -0.0563
38806W        W81744  30.372  21.405  19.430  0.0092 -0.0184 -0.0843
38807W        W81745  31.128  20.009  17.596 -0.0080 -0.0415  0.0148
38808W        W81746  31.219  18.067  17.035  0.0481 -0.3384 -0.2909
38809W        W81747  30.232  19.024  18.932 -0.2410  0.1846 -0.1237
38810W        W81748  32.067  21.510  18.109 -0.3900 -0.0168 -0.1389
38811W        W81749  30.445  20.545  16.590  0.1144 -0.3002  0.0471
38812W        W81750  32.087  18.736  18.282  0.1991  0.0755  0.1030
38813W        W81751  29.917  20.056  18.701 -0.2821  0.1221 -0.0220
38814W        W81752  31.799  18.986  18.975 -0.2745  0.0824  0.2237
38815W        W81753  30.180  19.956  18.224 -0.0837  0.0003  0.0567
38816W        W81754  29.942  20.104  19.252 -0.0463  0.0351 -0.4583
38817W        W81755  28.985  18.728  19.557 -0.1284  0.0211 -0.3282
38818W        W81756  30.866  20.465  17.644 -0.2525  0.0140  0.1415
38819W        W81757  31.801  19.170  16.886  0.1949  0.1420  0.3073
38820W        W81758  31.127  18.689  19.468  0.1299  0.1458  0.1496
38821W        W81759  31.186  20.420  18.059  0.0703 -0.2586  0.1958
38822W        W81760  29.687  18.571  20.016 -0.0682  0.0461  0.0251
38823W        W81761  29.730  18.741  21.028  0.0468  0.1227 -0.0431
38824W        W81762  32.129  22.740  19.510 -0.2455 -0.2868 -0.1464
38825W        W81763  32.835  19.906  16.636 -0.1106  0.1868  0.2107
38826W        W81764  32.288  18.263  21.132  0.2311 -0.0338 -0.2221
38827W        W81765  32.690  18.143  18.197 -0.0054  0.2922  0.0540
38828W        W81766  31.466  19.795  16.587 -0.0747 -0.2056  0.2168
38829W        W81767  29.118  19.834  20.328  0.3229 -0.1072  0.1699
38830W        W81768  33.451  20.824  21.127  0.2564 -0.3905 -0.1343
38831W        W81769  30.047  19.655  16.349 -0.2279  0.0409 -0.0278
38832W        W81770  30.758  17.126  19.874 -0.1169  0.0443  0.4017
38833W        W81771  32.671  20.157  17.130  0.2270  0.2173  0.0194
38834W        W81772  31.976  20.513  17.569 -0.0374  0.0423 -0.0393
38835W        W81773  31.700  18.673  16.991 -0.1111  0.0963  0.0056
38836W        W81774  29.664  19.273  19.079  0.1103 -0.1807  0.3006
38837W        W81775  29.363  21.025  20.895 -0.1098 -0.1563 -0.2506
38838W        W81776  29.798  20.372  17.271 -0.0957  0.1079  0.0302
38839W        W81777  30.640  20.329  17.242  0.1370  0.3750 -0.3014
38840W        W81778  30.542  20.678  20.133  0.0315  0.0214 -0.3072
38841W        W81779  33.358  22.243  20.410 -0.0455 -0.1873 -0.0643
38842W        W81780  30.883  18.240  17.497 -0.1677  0.0723  0.0653
38843W        W81781  31.903  20.700  20.111 -0.0647 -0.0197  0.0246
38844W        W81782  28.978  20.552  17.391 -0.2368 -0.1808  0.1558
38845W        W81783  30.924  18.315  18.634 -0.1174  0.0345  0.1301
38846W        W81784  28.662  22.567  19.592 -0.0261 -0.0316  0.1454
38847W        W81785  29.327  20.618  20.434  0.3499  0.0056 -0.2732
38848W        W81786  30.886  21.242  16.579 -0.0459  0.3960 -0.1437
38849W        W81787  31.352  17.580  20.348 -0.1932 -0.1780 -0.2281
38850W        W81788  30.430  20.695  19.093 -0.0218 -0.1596  0.1086
38851W        W81789  31.433  19.699  18.945 -0.0581  0.1261 -0.0061
38852W        W81790  32.739  20.735  20.010 -0.2276  0.1563 -0.0266
38853W        W81791  30.865  21.009  19.830  0.0986  0.0079  0.0469
38854W        W81792  30.032  21.131  19.058  0.0403 -0.1838  0.1334
38855W        W81793  30.806  20.880  19.371 -0.0615  0.0868  0.0148
38856W        W81794  31.319  18.236  17.905  0.5017 -0.1326  0.1977
38857W        W81795  29.769  20.589  18.428  0.0005  0.0381  0.5771
38858W        W81796  30.367  21.147  19.930 -0.0419  0.0724  0.1206
38859W        W81797  31.474  20.390  20.063  0.1907 -0.1966  0.0474
38860W        W81798  32.102  20.935  17.139  0.0577  0.3547  0.0842
38861W        W81799  30.302  19.527  19.107 -0.0307 -0.2960  0.0813
38862W        W81800  30.536  21.259  16.984 -0.3696  0.2395 -0.1933
38863W        W81801  28.301  20.434  20.253  0.1178 -0.1104  0.0657
38864W        W81802  28.353  19.952  20.611 -0.1582 -0.0301  0.1519
38865W        W81803  29.852  22.866  17.909  0.1646 -0.0785 -0.1321
38866W        W81804  32.543  21.125  17.019  0.3421 -0.1857 -0.1739
38867W        W81805  31.364  21.010  16.440 -0.3431  0.0662 -0.6131
38868W        W81806  29.684  20.822  17.955  0.0997  0.0035 -0.0093
38869W        W81807  29.813  18.431  16.430 -0.0541 -0.1367  0.4104
38870W        W81808  29.257  21.880  18.645  0.0400 -0.0162 -0.0837
38871W        W81809  30.028  22.207  15.916 -0.1765  0.1184  0.0755
38872W        W81810  31.868  21.099  16.585 -0.1106 -0.2029 -0.1690
38873W        W81811  29.672  20.119  18.178 -0.1603 -0.0625  0.0253
38874W        W81812  32.236  21.026  20.362  0.1849 -0.0767  0.2117
38875W        W81813  30.862  18.978  16.835 -0.3372  0.3273 -0.1445
38876W        W81814  32.284  18.474  17.871  0.0495 -0.2338 -0.0133
38877W        W81815  31.781  19.844  16.083  0.1446  0.4419  0.0264
38878W        W81816  31.744  21.869  19.314 -0.1528  0.1667 -0.1579
38879W        W81817  30.826  20.857  18.856  0.0483  0.0923 -0.2139
38880W        W81818  30.550  17.938  18.174 -0.1439  0.1939  0.1167
38881W        W81819  30.002  19.321  20.373 -0.1249  0.0460  0.0261
38882W        W81820  30.493  19.538  20.622  0.0848  0.0486 -0.1232
38883W        W81821  28.363  20.829  20.685 -0.5039 -0.0396 -0.0331
38884W        W81822  33.150  21.448  17.669  0.0648 -0.0716  0.0084
38885W        W81823  28.339  19.707  16.303 -0.0272  0.1244 -0.0525
38886W        W81824  30.611  19.335  17.754 -0.4723  0.0243 -0.0491
38887W        W81825  32.314  17.745  19.269  0.0103  0.1706  0.1594
38888W        W81826  31.454  22.172  17.707  0.2248 -0.2617  0.2486
38889W        W81827  30.918  19.598  18.446  0.0361  0.1877  0.1929
38890W        W81828  30.102  22.098  17.469 -0.2511  0.0733  0.1402
38891W        W81829  29.553  21.489  20.266 -0.1780 -0.0086 -0.0151
38892W        W81830  29.907  21.710  18.085  0.1145  0.3205 -0.5377
38893W        W81831  29.193  18.598  17.148 -0.2985 -0.0457  0.2060
38894W        W81832  32.276  18.286  18.342  0.3026  0.0258 -0.1380
38895W        W81833  30.826  18.662  19.014 -0.1884  0.2404 -0.1447
38896W        W81834  30.843  19.126  19.723 -0.0101  0.1098  0.1209
38897W        W81835  31.469  19.931  17.991  0.0547 -0.0018 -0.3638
38898W        W81836  31.347  17.581  18.030  0.0018  0.1221 -0.1542
38899W        W81837  30.064  19.437  18.581  0.0817 -0.1372 -0.0580
38900W        W81838  30.396  18.895  19.718  0.0179 -0.0518 -0.4422
38901W        W81839  30.105  19.664  16.851  0.1757  0.0415  0.0257
38902W        W81840  31.663  20.370  19.626  0.0496  0.0190  0.0350
38903W        W81841  31.662  20.269  16.308  0.1420  0.0471 -0.0146
38904W        W81842  30.631  22.130  18.858 -0.2111 -0.0553  0.0323
38905W        W81843  29.501  18.204  18.173  0.2175 -0.0839 -0.1957
38906W        W81844  31.326  19.002  17.168  0.1191 -0.2394  0.0638
38907W        W81845  30.219  20.892  18.502 -0.0721 -0.0427 -0.0064
38908W        W81846  30.528  22.602  20.060 -0.1048 -0.0586 -0.0687
38909W        W81847  31.922  21.046  19.730 -0.0071 -0.1412 -0.0307
38910W        W81848  30.917  20.840  16.837 -0.0940 -0.1304  0.0590
38911W        W81849  31.837  20.728  16.217 -0.1776 -0.2951 -0.0426
38912W        W81850  32.625  20.619  18.429 -0.1169 -0.1546  0.2395
38913W        W81851  30.834  22.698  16.191  0.0532 -0.1376  0.2871
38914W        W81852  31.583  21.261  17.919 -0.0393  0.1403  0.1711
38915W        W81853  29.773  21.025  17.478 -0.2727 -0.0178 -0.0054
38916W        W81854  29.500  18.519  18.745  0.3479 -0.0181  0.0721
38917W        W81855  31.304  20.845  19.405 -0.1596 -0.3714 -0.3325
38918W        W81856  32.135  19.716  18.331 -0.3811  0.1278 -0.2053
38919W        W81857  31.525  18.209  19.184 -0.0373 -0.1756  0.0421
38920W        W81858  29.996  19.512  19.919 -0.4200 -0.0140 -0.1622
38921W        W81859  29.686  21.508  16.598 -0.2586  0.1630  0.0627
38922W        W81860  32.619  19.129  19.538 -0.0637  0.0169 -0.2411
38923W        W81861  32.293  19.484  19.174  0.0088  0.0173  0.2078
38924W        W81862  30.799  22.216  16.374 -0.0540 -0.0366 -0.2495
38925W        W81863  31.817  18.478  18.725 -0.0434 -0.0291 -0.1756
38926W        W81864  31.076  22.621  19.698 -0.0416 -0.0585 -0.2718
38927W        W81865  29.388  21.413  21.267  0.2223  0.0856  0.2307
38928W        W81866  29.387  19.668  17.022 -0.1971 -0.0330 -0.0953
38929W        W81867  30.884  20.539  19.702 -0.0770  0.0733  0.1837
38930W        W81868  30.249  21.047  16.653 -0.1706 -0.1688  0.4678
38931W        W81869  29.549  21.569  18.422 -0.1591 -0.0254  0.0569
38932W        W81870  30.438  21.319  18.186  0.1795 -0.4915 -0.2781
38933W        W81871  30.874  21.568  17.285  0.3922  0.0699  0.0476
38934W        W81872  32.426  22.259  18.346 -0.0640  0.1508  0.0295
38935W        W81873  29.577  19.104  18.153  0.1769  0.2629  0.1143
38936W        W81874  32.269  19.023  17.107  0.0198  0.1532  0.3001
38937W        W81875  32.260  17.737  18.359  0.0513 -0.2946 -0.0310
38938W        W81876  30.491  21.638  20.212  0.2144  0.0486  0.1281
38939W        W81877  28.287  20.098  17.287 -0.3055  0.2661  0.3405
38940W        W81878  30.486  21.293  16.146  0.0055 -0.1037  0.0967
38941W        W81879  28.815  19.485  19.592  0.1107 -0.1748  0.2736
38942W        W81880  30.228  18.738  20.770 -0.0535  0.0890  0.1915
38943W        W81881  29.438  21.703  19.132 -0.1235 -0.0843  0.0683
38944W        W81882  29.175  19.192  19.473  0.0018  0.0834  0.0387
38945W        W81883  29.839  19.637  17.310  0.0836  0.2495 -0.0414
38946W        W81884  31.809  21.595  16.512 -0.0929 -0.2749  0.0024
38947W        W81885  31.048  18.267  19.190  0.3870  0.1104 -0.1950
38948W        W81886  29.933  18.725  16.851  0.0909 -0.3472 -0.2560
38949W        W81887  29.866  20.832  17.018  0.0843 -0.1124 -0.0020
38950W        W81888  32.284  22.441  17.882 -0.2030  0.1349  0.0949
38951W        W81889  28.981  18.206  18.308 -0.0451  0.1144  0.0518
38952W        W81890  31.919  21.586  21.580  0.0714 -0.2431  0.2334
38953W        W81891  27.982  19.661  17.510  0.1333  0.0900  0.0513
38954W        W81892  30.580  19.176  19.295 -0.1232 -0.1984 -0.1117
38955W        W81893  30.585  18.655  20.227 -0.0560  0.2583  0.1164
38956W        W81894  30.290  18.402  16.823  0.0404 -0.0203  0.0731
38957W        W81895  30.310  19.007  17.562  0.3572 -0.2412  0.1002
38958W        W81896  31.319  19.874  17.148 -0.1840 -0.0394 -0.2435
38959W        W81897  32.306  21.758  16.656  0.1224 -0.2238  0.2135
38960W        W81898  30.290  21.729  19.051  0.1525 -0.2796 -0.0195
38961W        W81899  31.354  21.947  20.407 -0.3778 -0.1558  0.1301
38962W        W81900  28.882  17.663  18.768 -0.1411 -0.4416  0.1001
38963W        W81901  32.395  21.244  16.482  0.1285  0.0706 -0.0644
38964W        W81902  29.778  21.284  20.828  0.1113  0.1379 -0.0805
38965W        W81903  32.587  20.345  16.691  0.1698 -0.2950 -0.1751
38966W        W81904  31.341  18.033  20.120  0.3853  0.1683  0.2425
38967W        W81905  31.828  19.196  18.221  0.0596  0.0965 -0.0018
38968W        W81906  30.514  19.192  21.082 -0.0421  0.2212 -0.3971
38969W        W81907  29.573  20.700  19.444 -0.0946 -0.0823  0.0660
38970W        W81908  31.845  21.550  18.846  0.1611  0.0351  0.0288
38971W        W81909  30.880  19.198  18.135 -0.0385 -0.0222  0.0798
38972W        W81910  31.372  18.943  16.641 -0.0454  0.2322  0.2567
38973W        W81911  31.060  22.332  15.962  0.1478  0.2450  0.1051
38974W        W81912  29.101  19.272  18.277  0.0092  0.2808  0.1539
38975W        W81913  29.651  19.366  16.042 -0.4021  0.0610 -0.0746
38976W        W81914  30.629  19.005  20.591  0.1270  0.0488  0.1360
38977W        W81915  30.468  21.233  18.858  0.1218 -0.2432  0.2980
38978W        W81916  30.622  20.920  20.881  0.3160 -0.0854  0.0885
38979W        W81917  30.474  19.425  18.233  0.0152 -0.0293 -0.1299
38980W        W81918  31.772  19.638  17.140 -0.1396 -0.2416 -0.1563
38981W        W81919  31.693  22.217  18.636 -0.2075  0.2241 -0.2858
38982W        W81920  31.353  23.834  20.874  0.2282 -0.0442  0.0464
38983W        W81921  29.753  21.893  20.657  0.2142 -0.1989  0.0443
38984W        W81922  30.154  20.700  17.455 -0.0909 -0.5249 -0.1488
38985W        W81923  29.470  16.536  17.729  0.0109  0.1747 -0.1365
38986W        W81924  28.288  19.924  17.790  0.0403 -0.2270 -0.0875
38987W        W81925  31.434  20.416  17.581  0.0799  0.4267  0.0049
38988W        W81926  31.404  18.692  19.012 -0.2586 -0.2070  0.2223
38989W        W81927  30.030  19.183  17.161  0.1666 -0.0483 -0.1028
38990W        W81928  31.386  18.488  17.426  0.2098  0.3300 -0.1124
38991W        W81929  29.174  21.172  20.385  0.2796 -0.3100  0.0347
38992W        W81930  31.677  20.525  18.060  0.1112 -0.3251 -0.3656
38993W        W81931  29.144  21.270  23.513 -0.1980  0.1482 -0.0521
38994W        W81932  30.053  17.901  21.814  0.0816 -0.2072  0.0439
38995W        W81933  31.547  19.095  19.427  0.0937 -0.2378  0.1239
38996W        W81934  31.966  21.226  21.217  0.0565 -0.1233 -0.1994
38997W        W81935  30.075  17.397  22.997  0.2611 -0.0246  0.2453
38998W        W81936  31.373  23.098  20.031  0.3376 -0.0344  0.1166
38999W        W81937  30.546  17.558  23.711 -0.4745 -0.2725  0.0707
39000W        W81938  31.373  20.619  21.932  0.3920 -0.1099  0.1975
39001W        W81939  32.501  22.864  22.272 -0.0048  0.2545 -0.1979
39002W        W81940  31.290  20.900  18.365  0.0801  0.0955  0.1977
39003W        W81941  30.562  19.068  21.552 -0.0994  0.1201  0.0859
39004W        W81942  29.820  22.246  21.392 -0.0081 -0.0068  0.3297
39005W        W81943  30.806  17.088  20.680  0.1146  0.2790 -0.2430
39006W        W81944  30.541  16.113  23.261  0.4415  0.1262  0.1608
39007W        W81945  32.821  19.445  21.366 -0.1087 -0.0557 -0.0691
39008W        W81946  30.957  19.275  21.349  0.1624 -0.0871  0.0989
39009W        W81947  29.636  20.548  23.516  0.0704 -0.0393  0.5366
39010W        W81948  31.044  18.466  20.093 -0.1378  0.0466 -0.1386
39011W        W81949  30.271  22.033  22.119 -0.0437 -0.2476  0.0195
39012W        W81950  31.226  19.489  23.029 -0.1449 -0.1774 -0.0161
39013W        W81951  32.222  17.166  25.214 -0.0685 -0.1572 -0.0093
39014W        W81952  31.839  21.992  21.851  0.2406  0.1093 -0.1209
39015W        W81953  28.310  19.859  19.623  0.4709  0.1980  0.0500
39016W        W81954  30.811  19.282  22.974 -0.2064  0.0031 -0.0195
39017W        W81955  29.768  20.098  22.532  0.0512  0.1130 -0.0392
39018W        W81956  31.228  17.643  22.401  0.4528  0.0247 -0.0624
39019W        W81957  31.413  19.270  21.597 -0.2105 -0.2630  0.1474
39020W        W81958  30.448  22.357  22.553 -0.1817 -0.1963  0.2092
39021W        W81959  31.941  20.725  23.227 -0.3079  0.0372  0.1701
39022W        W81960  31.498  18.960  23.638  0.1018  0.0117  0.0938
39023W        W81961  30.037  21.862  21.636  0.2789 -0.3974 -0.1552
39024W        W81962  30.411  21.528  22.158 -0.0923  0.0891  0.0452
39025W        W81963  31.429  20.824  23.350 -0.2096  0.1929 -0.0357
39026W        W81964  32.023  22.248  20.962 -0.1175 -0.0772  0.2675
39027W        W81965  31.528  21.049  22.761 -0.0281  0.0614  0.0134
39028W        W81966  30.564  21.921  24.417 -0.0768 -0.0525  0.0700
39029W        W81967  28.593  20.742  19.743 -0.3580  0.0851  0.0416
39030W        W81968  31.926  22.161  23.375 -0.3050 -0.2476 -0.0805
39031W        W81969  31.635  21.535  24.212  0.1887  0.2696 -0.0296
39032W        W81970  30.568  21.596  22.699  0.0262  0.0713  0.1549
39033W        W81971  31.341  19.093  22.099  0.2858 -0.1501  0.0497
39034W        W81972  32.333  21.548  21.232  0.1943 -0.2014 -0.1367
39035W        W81973  30.580  21.799  21.703 -0.1030  0.0205  0.1340
39036W        W81974  30.913  21.068  24.232 -0.0053  0.0829  0.2763
39037W        W81975  29.160  19.941  21.488  0.1183 -0.1024 -0.2207
39038W        W81976  33.474  19.022  24.093  0.0440  0.3332 -0.1192
39039W        W81977  30.751  24.224  20.744  0.0802 -0.1083 -0.0137
39040W        W81978  32.312  19.416  19.764 -0.1173  0.1225  0.4972
39041W        W81979  32.247  18.880  20.600 -0.0212 -0.0182  0.0841
39042W        W81980  30.977  20.260  21.073  0.0990  0.3215 -0.0627
39043W        W81981  30.577  17.909  20.664 -0.0424 -0.2318  0.4112
39044W        W81982  31.525  22.623  23.245  0.1901  0.0075  0.3249
39045W        W81983  30.970  20.056  23.838 -0.1453 -0.1099 -0.0557
39046W        W81984  32.388  21.034  22.742 -0.0819 -0.1920 -0.1304
39047W        W81985  31.319  19.832  21.317 -0.0112  0.1289 -0.1136
39048W        W81986  30.826  19.564  23.421  0.3380 -0.0905 -0.3897
39049W        W81987  29.631  22.623  23.604 -0.4869  0.0850 -0.0963
39050W        W81988  30.427  19.796  22.023 -0.0352  0.0379 -0.0138
39051W        W81989  31.510  22.641  20.025  0.3109  0.0570  0.1943
39052W        W81990  32.763  21.917  23.000  0.1072  0.1599  0.1223
39053W        W81991  29.353  22.011  22.039 -0.0931  0.1367  0.1004
39054W        W81992  30.703  18.578  21.538  0.1610  0.0661  0.0016
39055W        W81993  28.845  21.172  25.333 -0.1711 -0.0391  0.2335
39056W        W81994  29.604  21.046  23.327  0.1597  0.1131 -0.1007
39057W        W81995  29.584  18.332  20.762 -0.2270  0.1144 -0.1336
39058W        W81996  33.306  19.820  23.050 -0.0605 -0.0467  0.0693
39059W        W81997  29.205  21.220  24.153 -0.2678 -0.0591  0.0886
39060W        W81998  32.431  19.119  21.604 -0.0858 -0.2886  0.1690
39061W        W81999  31.370  19.418  23.496  0.4318  0.2545 -0.0025
39062W        W82000  31.783  22.340  22.954  0.1173  0.0939 -0.0751
39063W        W82001  30.585  21.590  20.787  0.3336  0.1714 -0.2564
39064W        W82002  33.411  18.730  22.765  0.0446  0.2174  0.0913
39065W        W82003  32.412  18.891  22.673 -0.0315  0.2748 -0.1386
39066W        W82004  31.184  20.054  19.838 -0.0924  0.0900 -0.0647
39067W        W82005  30.215  21.888  20.922  0.0705  0.3889 -0.2256
39068W        W82006  32.821  22.338  22.634  0.0908 -0.1214  0.0221
39069W        W82007  30.980  19.483  18.945  0.0422  0.0901  0.1144
39070W        W82008  28.828  22.341  22.856  0.4977 -0.0795 -0.0899
39071W        W82009  31.711  20.289  22.272  0.2313 -0.0910  0.2390
39072W        W82010  30.566  20.283  23.689 -0.0209 -0.1663 -0.0407
39073W        W82011  30.103  21.598  19.892  0.1738 -0.2962 -0.1440
39074W        W82012  30.212  20.410  22.676  0.0289  0.2279  0.0347
39075W        W82013  30.936  20.278  21.923 -0.0411  0.2412  0.2373
39076W        W82014  29.242  19.893  22.421 -0.0818  0.2174  0.1901
39077W        W82015  30.854  19.836  22.911 -0.0690 -0.0520  0.1049
39078W        W82016  32.809  17.983  21.598  0.0047  0.5390  0.0820
39079W        W82017  31.231  20.732  24.431  0.1138  0.0635  0.0001
39080W        W82018  31.888  20.046  20.986  0.0909 -0.0306 -0.2214
39081W        W82019  29.554  21.844  21.640  0.2217 -0.0149  0.0744
39082W        W82020  32.869  21.563  20.459 -0.2215  0.0907 -0.0714
39083W        W82021  31.566  18.776  20.637 -0.1577 -0.2616 -0.0996
39084W        W82022  31.068  21.087  20.538 -0.1158  0.0865 -0.3865
39085W        W82023  30.782  19.207  22.180  0.2783 -0.0991 -0.1975
39086W        W82024  29.472  18.490  22.900 -0.2511 -0.1954  0.3240
39087W        W82025  29.636  17.402  23.467  0.1109 -0.0374  0.3355
39088W        W82026  30.026  19.401  23.500 -0.3017  0.0582 -0.2435
39089W        W82027  31.015  21.780  22.770 -0.1410  0.1105  0.2234
39090W        W82028  30.137  18.245  20.741  0.1502  0.1111 -0.0748
39091W        W82029  30.312  20.493  20.657  0.4140 -0.3034 -0.1151
39092W        W82030  31.225  18.581  20.940  0.0819  0.0783 -0.0030
39093W        W82031  30.010  21.168  22.149 -0.0753 -0.1184 -0.1171
39094W        W82032  32.649  18.420  23.204  0.3035  0.1357  0.1520
39095W        W82033  31.219  21.695  20.895 -0.0115  0.2212  0.1952
39096W        W82034  32.004  21.218  22.941  0.1216  0.1229  0.0410
39097W        W82035  31.392  22.017  22.427  0.1492 -0.1207 -0.0192
39098W        W82036  29.954  17.767  23.395  0.1042 -0.2241  0.3978
39099W        W82037  31.296  18.332  20.555 -0.0828  0.2723 -0.1540
39100W        W82038  30.132  23.431  20.960  0.2413 -0.1407  0.1287
39101W        W82039  31.429  20.357  21.080  0.2344  0.0396  0.1300
39102W        W82040  32.152  19.678  20.739 -0.0470  0.1509 -0.2400
39103W        W82041  31.709  23.073  22.967 -0.0405 -0.1218 -0.1771
39104W        W82042  31.508  19.314  21.116  0.0768 -0.1562 -0.4365
39105W        W82043  29.952  20.073  22.079  0.1738  0.2645  0.3651
39106W        W82044  32.563  18.934  23.123  0.0549  0.0036  0.1659
39107W        W82045  33.081  19.975  22.163  0.4426  0.2083  0.5025
39108W        W82046  31.075  20.888  22.286 -0.1602  0.1890 -0.1947
39109W        W82047  29.730  19.086  22.240  0.0413  0.0017  0.4959
39110W        W82048  31.075  22.074  21.671 -0.0276  0.1194 -0.3036
39111W        W82049  28.988  22.669  22.139 -0.2082  0.1305  0.0779
39112W        W82050  30.749  20.431  20.578 -0.1668  0.0581  0.3830
39113W        W82051  31.141  21.781  22.066  0.0066  0.0553  0.1688
39114W        W82052  31.678  17.003  21.824  0.3247 -0.0852  0.1784
39115W        W82053  30.033  20.185  24.994 -0.2761  0.0896 -0.1429
39116W        W82054  30.493  21.086  23.390  0.0647  0.1566 -0.1095
39117W        W82055  29.600  19.362  19.718 -0.0364 -0.0547  0.2768
39118W        W82056  29.562  21.388  23.826 -0.3437 -0.1433  0.1930
39119W        W82057  30.720  17.351  22.263  0.0388 -0.2530  0.1027
39120W        W82058  32.138  20.154  21.425  0.1013  0.1330  0.0434
39121W        W82059  30.635  20.576  24.509 -0.1039 -0.2248 -0.0957
39122W        W82060  33.967  21.305  19.551  0.0640  0.1845  0.1992
39123W        W82061  31.652  18.547  20.218 -0.0447  0.0762 -0.1541
39124W        W82062  30.906  18.090  19.744  0.2862 -0.0212  0.3746
39125W        W82063  30.855  21.560  24.136 -0.1765 -0.0596 -0.0076
39126W        W82064  31.882  21.736  20.992  0.1607  0.1586 -0.0468
39127W        W82065  30.074  21.017  22.611  0.2635 -0.1064 -0.1203
39128W        W82066  31.639  18.861  21.141 -0.0625  0.0626  0.0540
39129W        W82067  32.551  22.645  20.520  0.3180  0.1523  0.1316
39130W        W82068  29.106  20.990  23.060 -0.1239  0.0726  0.0801
39131W        W82069  31.042  20.448  24.103  0.0107  0.0282  0.1185
39132W        W82070  32.708  21.233  21.989  0.0726  0.2199 -0.2102
39133W        W82071  30.763  17.924  22.364 -0.1385 -0.1189 -0.0205
39134W        W82072  30.840  18.433  20.595 -0.1934  0.1026 -0.3572
39135W        W82073  31.913  18.843  22.872  0.1254  0.0267  0.3185
39136W        W82074  29.910  23.210  19.936 -0.1790  0.2086 -0.0615
39137W        W82075  32.731  19.250  23.489 -0.0023 -0.2026  0.1546
39138W        W82076  32.667  19.852  22.428 -0.0708  0.0095  0.0463
39139W        W82077  31.581  18.502  22.438 -0.1889 -0.3336  0.0293
39140W        W82078  32.663  21.290  24.264  0.2855  0.1589 -0.0811
39141W        W82079  31.201  20.631  20.740 -0.0612 -0.2115  0.0290
39142W        W82080  31.389  20.031  21.834  0.1619 -0.1477  0.0899
39143W        W82081  30.164  21.001  20.517  0.2451 -0.1764  0.1764
39144W        W82082  32.659  20.206  22.786  0.1576  0.2304 -0.0873
39145W        W82083  29.172  20.467  23.370  0.3407  0.2223  0.1368
39146W        W82084  29.660  22.256  23.245  0.1406  0.1435 -0.1218
39147W        W82085  33.261  20.846  22.569 -0.1085  0.1013 -0.0082
39148W        W82086  30.257  21.293  20.947 -0.4369  0.0842 -0.1264
39149W        W82087  31.568  18.314  22.924  0.1624 -0.0601 -0.3286
39150W        W82088  31.212  17.760  21.317 -0.2511  0.0355  0.1383
39151W        W82089  32.729  20.835  21.595  0.0555 -0.0065 -0.0343
39152W        W82090  30.664  22.718  20.605 -0.0683 -0.0113 -0.0494
39153W        W82091  30.154  18.721  21.699 -0.0486  0.0502 -0.3667
39154W        W82092  29.881  19.584  22.303  0.2953  0.2817  0.0920
39155W        W82093  30.344  22.002  20.496 -0.4006 -0.2653  0.2143
39156W        W82094  31.718  20.378  21.569 -0.0845 -0.0945  0.2679
39157W        W82095  30.997  20.935  21.465 -0.1599 -0.0870 -0.0414
39158W        W82096  31.879  17.780  21.959  0.1167  0.1465  0.0438
39159W        W82097  30.576  21.055  22.862  0.2098 -0.1991  0.0266
39160W        W82098  31.286  21.754  19.538 -0.1038 -0.0391 -0.0193
39161W        W82099  29.636  17.681  21.738 -0.0130  0.2395  0.1794
39162W        W82100  31.342  18.539  21.826 -0.0794  0.0903 -0.0351
39163W        W82101  32.353  20.395  20.084 -0.1060 -0.0298 -0.1406
39164W        W82102  31.196  19.195  22.625  0.2520  0.0085 -0.1141
39165W        W82103  30.891  19.550  21.835  0.1165  0.2069  0.1004
39166W        W82104  28.297  21.203  22.619 -0.2815  0.2027  0.2444
39167W        W82105  31.932  19.159  21.409 -0.0383  0.2954  0.3518
39168W        W82106  31.592  16.444  21.382  0.0915 -0.0184  0.0598
39169W        W82107  32.059  20.682  22.625  0.1216 -0.2026  0.1166
39170W        W82108  30.055  20.699  25.709 -0.1166  0.2179 -0.1144
39171W        W82109  29.376  18.032  20.114 -0.0325  0.1161 -0.1099
39172W        W82110  31.896  19.189  21.936 -0.1643  0.0723  0.0457
39173W        W82111  30.769  18.008  21.486  0.1225 -0.0642 -0.2434
39174W        W82112  29.940  20.369  23.120  0.2780  0.0973 -0.0547
39175W        W82113  30.766  21.930  22.358  0.2497  0.2446  0.3012
39176W        W82114  31.357  21.291  19.674  0.1105  0.2279  0.4467
39177W        W82115  29.537  20.867  21.374 -0.1040  0.0899  0.0642
39178W        W82116  28.684  18.914  23.363 -0.0048  0.0512  0.0681
39179W        W82117  32.302  20.650  23.580  0.0286  0.1734  0.0977
39180W        W82118  31.193  18.505  23.406 -0.2816  0.0767 -0.2092
39181W        W82119  31.115  18.732  22.317  0.0027 -0.1457 -0.0494
39182W        W82120  29.914  19.573  21.759 -0.0424 -0.4016  0.4679
39183W        W82121  32.431  21.032  21.211 -0.0471  0.1254  0.2150
39184W        W82122  30.992  19.172  23.767  0.4982 -0.4267 -0.0368
39185W        W82123  30.372  21.740  23.278 -0.2814 -0.3673  0.1878
39186W        W82124  30.768  18.249  24.006  0.1304 -0.0114 -0.1863
39187W        W82125  32.396  21.293  21.655 -0.1990 -0.0973 -0.0021
39188W        W82126  30.772  20.329  22.816  0.0205 -0.0797 -0.6509
39189W        W82127  30.424  22.859  21.022 -0.0024  0.2107 -0.0596
39190W        W82128  28.598  19.660  23.739  0.0346 -0.1079  0.2624
39191W        W82129  30.290  20.644  21.195 -0.2962 -0.1520 -0.2172
39192W        W82130  30.686  18.906  22.691 -0.3436 -0.0655 -0.1323
39193W        W82131  29.990  22.439  22.702  0.2911  0.1984  0.0410
39194W        W82132  30.422  20.278  21.871  0.2923 -0.1944  0.5748
39195W        W82133  29.657  21.189  22.818  0.0874 -0.1864  0.0485
39196W        W82134  32.327  19.646  21.278 -0.0830  0.4799  0.1126
39197W        W82135  30.409  21.626  21.313  0.1988  0.0428 -0.0363
39198W        W82136  32.845  19.435  22.174  0.0901 -0.2081  0.0789
39199W        W82137  33.283  20.112  22.611  0.1766 -0.1303 -0.1259
39200W        W82138  33.738  22.556  19.935 -0.2250  0.2658 -0.1049
39201W        W82139  32.238  19.410  23.672  0.0035  0.0471  0.0192
39202W        W82140  30.100  18.778  23.492 -0.0935  0.0636  0.2586
39203W        W82141  31.828  21.117  21.777  0.1594  0.1149  0.0838
39204W        W82142  30.335  19.523  22.906  0.1287 -0.1350  0.2649
39205W        W82143  31.671  21.050  24.296 -0.0276 -0.0389 -0.0434
39206W        W82144  30.744  22.515  24.502  0.0567  0.3317  0.2745
39207W        W82145  30.596  18.670  22.056  0.1548  0.4007 -0.2732
39208W        W82146  30.538  19.250  20.138  0.2678  0.1966  0.0260
39209W        W82147  30.095  20.863  23.085 -0.1117  0.1589 -0.1744
39210W        W82148  31.623  20.501  22.968 -0.0739 -0.0194 -0.1057
39211W        W82149  30.530  21.124  21.335 -0.0859  0.1777 -0.2197
39212W        W82150  32.993  19.071  21.880  0.3260 -0.0747 -0.3629
39213W        W82151  29.910  19.831  22.919  0.0016  0.2149  0.2092
39214W        W82152  31.088  18.816  20.455  0.0041 -0.0733 -0.2456
39215W        W82153  30.500  20.136  21.159 -0.2145 -0.0508  0.5615
39216W        W82154  30.728  20.736  21.953  0.2294 -0.0757 -0.0945
39217W        W82155  31.071  17.928  24.361  0.3363  0.1708 -0.0511
39218W        W82156  31.940  19.184  20.869 -0.0192 -0.0642 -0.0828
39219W        W82157  31.664  21.504  22.025  0.0497  0.1505  0.1299
39220W        W82158  31.550  19.113  23.200 -0.1854  0.0243  0.3438
39221W        W82159  31.773  19.851  22.543  0.2737  0.1293  0.0448
39222W        W82160  32.011  20.923  24.635  0.1471  0.2255 -0.1235
39223W        W82161  31.921  20.363  23.859  0.1496 -0.1540 -0.0981
39224W        W82162  32.382  21.832  21.748  0.0720  0.4118  0.0633
39225W        W82163  32.393  19.472  20.339 -0.1690 -0.1785  0.1540
39226W        W82164  31.710  19.240  22.425  0.1936  0.2622 -0.0264
39227W        W82165  32.337  20.535  20.543  0.4027 -0.1283 -0.1251
39228W        W82166  31.755  19.678  21.444 -0.1560  0.0121 -0.0514
39229W        W82167  30.530  19.170  23.914 -0.0875  0.1213  0.1236
39230W        W82168  32.119  21.232  24.217 -0.1835  0.4177  0.2100
39231W        W82169  29.128  19.504  19.972 -0.2007 -0.0430 -0.1697
39232W        W82170  32.602  19.806  23.554 -0.2257  0.0027  0.0027
39233W        W82171  31.587  22.744  20.862 -0.1886 -0.1614  0.2123
39234W        W82172  30.756  19.679  21.080  0.0065 -0.2091 -0.1363
39235W        W82173  32.130  18.530  20.243  0.0065  0.1313 -0.1590
39236W        W82174  29.535  19.231  21.763  0.2700  0.0717  0.3752
39237W        W82175  30.145  21.381  22.968 -0.4126 -0.3795  0.0690
39238W        W82176  29.822  19.583  20.728 -0.4199 -0.2952  0.0336
39239W        W82177  31.042  21.474  21.406 -0.0357 -0.3072  0.2438
39240W        W82178  30.655  22.065  22.963  0.2086  0.2192  0.1011
39241W        W82179  31.516  21.249  23.770  0.0978 -0.0099 -0.0916
39242W        W82180  31.130  17.670  20.769  0.1267  0.0549 -0.1836
39243W        W82181  31.011  20.975  23.160  0.2264 -0.0318  0.2318
39244W        W82182  29.826  18.736  22.597  0.0130  0.1631 -0.1378
39245W        W82183  31.098  17.784  21.859 -0.0161 -0.0723  0.1311
39246W        W82184  31.312  23.958  23.203 -0.1125  0.2893 -0.0594
39247W        W82185  29.652  19.974  23.347  0.1041  0.0361  0.1115
39248W        W82186  28.977  20.544  21.891  0.1551 -0.1470  0.1198
39249W        W82187  32.534  19.042  22.184 -0.2315  0.0156  0.2032
39250W        W82188  32.032  18.192  22.416 -0.1362 -0.1558  0.1699
39251W        W82189  32.157  20.791  21.613 -0.1854  0.2764  0.1142
39252W        W82190  33.315  20.427  22.230  0.0606  0.3951 -0.2086
39253W        W82191  32.103  21.181  22.229 -0.0109 -0.0126  0.1005
39254W        W82192  31.216  20.165  20.533 -0.0416  0.2655  0.0485
39255W        W82193  32.091  22.537  21.750 -0.0228  0.0327 -0.1017
39256W        W82194  30.825  19.970  21.515 -0.1386  0.1239  0.0281
39257W        W82195  30.741  19.524  22.546  0.2028  0.0373  0.1144
39258W        W82196  29.652  20.642  26.072  0.4898 -0.1174  0.2077
39259W        W82197  30.785  21.457  23.118  0.1924 -0.1979 -0.1413
39260W        W82198  31.513  20.828  21.347  0.2635 -0.0123 -0.0587
39261W        W82199  31.157  18.326  21.387 -0.0704 -0.0664  0.1039
39262W        W82200  31.030  22.463  20.229  0.2366 -0.0089 -0.0970
39263W        W82201  29.929  22.283  24.800  0.2076  0.1663 -0.2335
39264W        W82202  29.657  20.567  22.471  0.2302  0.4092 -0.1583
39265W        W82203  29.287  22.700  23.199 -0.3900 -0.2512 -0.0196
39266W        W82204  32.280  22.149  20.386 -0.1244  0.1020 -0.0699
39267W        W82205  32.085  20.924  20.834  0.1096  0.0907 -0.1586
39268W        W82206  32.129  22.885  23.093  0.2492  0.0986  0.0287
39269W        W82207  30.956  19.362  20.479 -0.0128 -0.0335  0.2773
39270W        W82208  29.507  22.507  22.831  0.0127  0.1545  0.1455
39271W        W82209  28.864  21.326  21.394 -0.3833 -0.0017  0.0651
39272W        W82210  31.471  23.295  20.648  0.1302  0.0178 -0.1055
39273W        W82211  30.940  22.428  22.787  0.1154 -0.2166  0.0831
39274W        W82212  31.911  21.522  23.819  0.0391 -0.0428  0.1680
39275W        W82213  32.506  18.344  19.899  0.3387 -0.5040 -0.1507
39276W        W82214  32.640  20.085  21.286 -0.2844 -0.1717 -0.2144
39277W        W82215  33.099  17.413  22.398 -0.0921  0.4198 -0.1017
39278W        W82216  31.162  21.811  24.534 -0.0478 -0.1510  0.1719
39279W        W82217  31.262  19.546  22.261 -0.1829 -0.5687 -0.1088
39280W        W82218  30.982  17.957  20.426 -0.2251 -0.0701  0.0658
39281W        W82219  30.879  21.409  22.321  0.0955  0.0988  0.0567
39282W        W82220  33.625  17.387  22.549  0.2487 -0.2802 -0.3416
39283W        W82221  30.545  22.645  22.136  0.1005  0.1637  0.1734
39284W        W82222  32.399  22.555  21.336 -0.0480  0.2467 -0.0758
39285W        W82223  30.547  18.257  22.975  0.2838  0.1242 -0.0060
39286W        W82224  31.212  19.101  20.821 -0.0400 -0.0759  0.0089
39287W        W82225  31.013  18.389  22.971 -0.2269 -0.2186 -0.1550
39288W        W82226  31.480  19.730  19.474  0.1277  0.0138 -0.0276
39289W        W82227  30.856  20.739  23.623  0.0828  0.1865 -0.2785
39290W        W82228  30.759  22.839  22.632  0.0015 -0.2127  0.2819
39291W        W82229  31.448  21.610  22.930  0.1130 -0.0170  0.2829
39292W        W82230  30.106  21.921  22.712  0.0706  0.0741 -0.0829
39293W        W82231  29.923  19.894  20.229  0.3411  0.0883  0.1779
39294W        W82232  32.036  18.887  22.347 -0.2972  0.1180  0.1497
39295W        W82233  30.593  18.712  24.198 -0.0090 -0.0221 -0.8229
39296W        W82234  32.669  17.538  23.497 -0.2289  0.2527  0.2418
39297W        W82235  30.773  18.196  23.467 -0.1938 -0.1510 -0.1121
39298W        W82236  31.186  18.830  21.389  0.1875  0.1099  0.0937
39299W        W82237  30.614  20.507  22.397 -0.1848 -0.0520  0.1618
39300W        W82238  30.170  20.487  23.563  0.0096 -0.1632  0.1374
39301W        W82239  30.794  19.875  20.427  0.0418  0.0435  0.0970
39302W        W82240  33.767  18.997  23.745 -0.0530  0.1881 -0.2712
39303W        W82241  31.896  19.577  18.887  0.0214 -0.3243  0.1368
39304W        W82242  32.248  21.803  23.501 -0.0523  0.2002  0.1413
39305W        W82243  27.923  17.770  21.867 -0.1741  0.0293 -0.1131
39306W        W82244  33.083  18.123  20.624  0.2922  0.3829  0.1257
39307W        W82245  30.409  20.048  19.144  0.1174 -0.5784  0.2178
39308W        W82246  31.533  21.054  22.247 -0.0457 -0.0857  0.1339
39309W        W82247  32.265  22.420  22.170  0.0449  0.3014 -0.0366
39310W        W82248  29.499  16.688  21.214  0.0244 -0.0090 -0.1132
39311W        W82249  32.005  21.371  20.695 -0.0253 -0.2384  0.0006
39312W        W82250  32.104  20.122  23.395 -0.1956  0.3884  0.1681
39313W        W82251  29.806  22.810  20.259 -0.0718  0.1476 -0.0299
39314W        W82252  31.264  20.092  22.840 -0.0779  0.2248  0.1137
39315W        W82253  31.880  21.482  22.541 -0.2268 -0.3523  0.0880
39316W        W82254  30.353  18.169  24.219 -0.0521 -0.2075  0.3221
39317W        W82255  31.225  20.422  22.352  0.1228  0.0970 -0.0888
39318W        W82256  32.175  20.164  22.331 -0.1137 -0.1453 -0.2325
39319W        W82257  31.513  17.528  21.800 -0.1435 -0.1443 -0.0906
39320W        W82258  29.443  19.759  21.972  0.1420  0.2431  0.1299
39321W        W82259  29.608  22.752  20.769  0.0127 -0.5693  0.2574
39322W        W82260  32.133  18.484  23.219  0.0601 -0.2515 -0.1296
39323W        W82261  32.619  20.651  22.582 -0.3302  0.1659  0.1193
39324W        W82262  31.943  20.568  21.169  0.2575 -0.2058  0.2930
39325W        W82263  30.791  17.999  24.897  0.0525 -0.2100  0.1001
39326W        W82264  32.093  23.093  23.887 -0.1175 -0.0439 -0.6562
39327W        W82265  29.864  21.566  25.269 -0.3470  0.3342  0.2014
39328W        W82266  29.694  21.227  21.747 -0.0096 -0.1348 -0.0301
39329W        W82267  30.370  20.074  23.043 -0.0053 -0.0021 -0.1851
39330W        W82268  30.769  21.279  21.817  0.0320 -0.0545 -0.0772
39331W        W82269  29.382  23.045  21.191 -0.0974 -0.0142  0.0491
39332W        W82270  33.285  21.813  20.702 -0.1599  0.2158 -0.5198
39333W        W82271  31.873  19.043  20.271 -0.0642 -0.1423 -0.0561
39334W        W82272  32.633  21.230  20.769 -0.1647 -0.3870 -0.4177
39335W        W82273  30.945  18.885  21.831 -0.0531 -0.0482  0.1001
39336W        W82274  32.937  18.877  21.374 -0.1226 -0.0891 -0.2373
39337W        W82275  32.002  16.778  21.240 -0.1736  0.3794  0.1136
39338W        W82276  29.853  21.548  22.524 -0.1053  0.1131 -0.3731
39339W        W82277  29.213  20.206  20.668  0.0173  0.0315 -0.0299
39340W        W82278  29.606  20.730  22.000  0.0390  0.0067  0.1470
39341W        W82279  29.920  20.468  24.493  0.3383  0.1668 -0.1701
39342W        W82280  30.875  18.983  25.145 -0.0392  0.1000  0.2170
39343W        W82281  30.470  19.159  23.391 -0.1835  0.1618  0.3152
39344W        W82282  30.347  19.892  22.546 -0.3751  0.0354 -0.3252
39345W        W82283  29.338  19.353  20.426  0.0392 -0.1222 -0.2978
39346W        W82284  32.338  21.816  20.806  0.0930  0.0322 -0.2095
39347W        W82285  29.011  18.482  22.623 -0.2020 -0.2748  0.0243
39348W        W82286  29.259  18.738  20.807  0.3025  0.1496 -0.1600
39349W        W82287  31.207  20.385  21.501  0.0171 -0.0615 -0.0393
39350W        W82288  31.076  21.178  21.020 -0.2403  0.1223 -0.3419
39351W        W82289  30.912  18.128  20.992  0.1973 -0.0495 -0.1727
39352W        W82290  33.293  21.747  23.846  0.1076  0.0311 -0.0586
39353W        W82291  29.875  21.614  21.234 -0.2088  0.0690 -0.1423
39354W        W82292  31.631  20.499  24.274  0.1510 -0.2093  0.2267
39355W        W82293  31.928  18.458  23.674  0.0344  0.2421  0.3397
39356W        W82294  29.164  18.598  21.571  0.0560  0.4505 -0.1941
39357W        W82295  30.841  20.070  23.303 -0.1146  0.1070 -0.0352
39358W        W82296  31.296  21.285  21.823  0.2261 -0.0106  0.2244
39359W        W82297  31.287  23.431  21.172  0.1536  0.1655 -0.4384
39360W        W82298  31.063  21.799  23.284  0.4512  0.0906  0.0716
39361W        W82299  31.637  21.990  24.555  0.2467  0.0375 -0.5901
39362W        W82300  29.896  18.548  24.441  0.0372  0.1061  0.1561
39363W        W82301  31.513  21.382  21.210  0.0525 -0.2434  0.2107
39364W        W82302  30.482  22.551  23.093 -0.1740  0.0559 -0.0513
39365W        W82303  33.049  20.466  21.238  0.1129  0.0164 -0.0129
39366W        W82304  32.006  20.248  22.880  0.0210  0.3136 -0.2020
39367W        W82305  32.676  19.691  20.879  0.0129 -0.2826 -0.1450
39368W        W82306  32.105  19.292  22.759 -0.1852 -0.1146  0.0660
39369W        W82307  30.527  20.948  23.919 -0.3049 -0.3223  0.3841
39370W        W82308  33.551  21.462  21.955 -0.0161  0.0912 -0.3318
39371W        W82309  30.271  18.474  22.549 -0.0253 -0.0214  0.1700
39372W        W82310  32.375  18.427  20.679 -0.2314  0.1265  0.1237
39373W        W82311  31.437  21.704  21.633 -0.2126  0.4209  0.2967
39374W        W82312  30.433  19.686  23.808  0.0702 -0.0169  0.1127
39375W        W82313  30.593  21.178  20.391 -0.1369  0.0260 -0.1589
39376W        W82314  32.837  19.783  23.024  0.0519 -0.0144 -0.1724
39377W        W82315  31.268  22.580  21.749 -0.0113 -0.1330 -0.0332
39378W        W82316  31.177  20.656  22.778  0.0009  0.0845  0.0632
39379W        W82317  31.856  18.346  20.749  0.0583  0.1201  0.2976
39380W        W82318  31.091  22.483  20.764 -0.1110  0.2428 -0.0161
39381W        W82319  31.642  21.702  23.438  0.3360 -0.0304  0.2037
39382W        W82320  32.264  21.628  24.618  0.1533  0.1186 -0.1364
39383W        W82321  33.056  23.599  22.407 -0.5169  0.0934  0.1863
39384W        W82322  31.926  20.069  21.888  0.1477  0.1581 -0.2546
39385W        W82323  30.618  19.175  24.395 -0.2330 -0.1131 -0.0527
39386W        W82324  31.433  21.439  20.511 -0.3419 -0.4781 -0.0696
39387W        W82325  30.549  20.545  23.229  0.1320 -0.1527 -0.1118
39388W        W82326  32.291  19.829  22.755 -0.0066  0.0208 -0.1300
39389W        W82327  29.986  18.489  23.012  0.4143 -0.0254 -0.1053
39390W        W82328  30.871  17.875  22.854  0.2537  0.0736 -0.2433
39391W        W82329  31.331  22.146  23.051 -0.1767 -0.0305 -0.1616
39392W        W82330  30.924  19.989  22.393  0.1303  0.3565 -0.1648
39393W        W82331  30.915  21.489  27.286 -0.0992 -0.1226  0.2957
39394W        W82332  29.611  19.558  26.380  0.0822 -0.0367 -0.3236
39395W        W82333  32.930  19.257  22.993  0.3331 -0.0393  0.2825
39396W        W82334  33.054  20.273  25.546  0.0037 -0.0715  0.1422
39397W        W82335  30.112  18.475  26.695 -0.1825  0.1916 -0.0352
39398W        W82336  30.793  21.306  26.790  0.0857 -0.2421 -0.2639
39399W        W82337  30.182  18.930  27.090 -0.1225  0.1925 -0.3296
39400W        W82338  31.757  21.342  26.507 -0.2569 -0.0215 -0.0514
39401W        W82339  32.868  22.341  26.196  0.2644 -0.0934  0.0592
39402W        W82340  31.365  21.499  22.451  0.0027 -0.0695 -0.1420
39403W        W82341  30.187  18.833  27.865  0.1426  0.2037 -0.0565
39404W        W82342  31.103  21.678  26.569 -0.1184  0.2940  0.1302
39405W        W82343  31.299  18.386  24.272 -0.1426  0.1358 -0.1679
39406W        W82344  29.458  17.508  26.942 -0.2973 -0.1247  0.1124
39407W        W82345  32.738  21.367  26.143  0.0607  0.0314  0.1216
39408W        W82346  30.220  21.072  25.230  0.2338  0.1604  0.3292
39409W        W82347  31.018  19.301  26.452  0.0837  0.0395  0.2886
39410W        W82348  30.381  18.727  25.275 -0.1086  0.2368  0.0135
39411W        W82349  30.976  22.143  26.466  0.0039 -0.3691  0.1489
39412W        W82350  31.553  19.076  28.375  0.2410  0.1302 -0.2392
39413W        W82351  30.746  19.402  27.741 -0.4988  0.0203  0.1826
39414W        W82352  31.109  21.556  25.020 -0.2336  0.0239  0.1483
39415W        W82353  30.436  21.433  24.294  0.2441 -0.1679 -0.4058
39416W        W82354  28.949  20.436  25.915 -0.0598  0.1480 -0.0629
39417W        W82355  31.145  19.718  26.898 -0.1467  0.0471 -0.0191
39418W        W82356  33.338  18.780  24.531  0.0138  0.0853 -0.1454
39419W        W82357  32.415  18.516  24.611  0.2878  0.2544 -0.3695
39420W        W82358  31.543  21.397  26.066  0.2458  0.1711  0.0773
39421W        W82359  31.041  21.387  26.085  0.1551  0.5112  0.0311
39422W        W82360  32.008  20.982  26.077 -0.6544 -0.0172  0.1903
39423W        W82361  29.895  20.092  26.690  0.0883  0.2088  0.1358
39424W        W82362  29.073  22.251  26.145 -0.1581  0.1121  0.2381
39425W        W82363  31.372  21.777  25.427 -0.2283  0.1338 -0.0245
39426W        W82364  32.912  21.438  25.370  0.0773  0.2149  0.2267
39427W        W82365  33.572  23.496  26.257 -0.5241  0.2125  0.2379
39428W        W82366  31.549  21.179  28.496  0.0608 -0.0716 -0.5056
39429W        W82367  30.983  20.877  24.895  0.0310  0.0440 -0.0096
39430W        W82368  31.469  20.855  28.915  0.1011  0.0495 -0.1636
39431W        W82369  29.093  20.770  26.667  0.0111 -0.2573 -0.0025
39432W        W82370  31.462  19.412  27.108 -0.0951 -0.1675  0.0726
39433W        W82371  31.469  20.758  25.386  0.1368 -0.1945  0.0235
39434W        W82372  31.821  22.496  24.904 -0.1625 -0.0361  0.4784
39435W        W82373  30.101  19.906  24.582  0.0944 -0.1835  0.0031
39436W        W82374  30.288  19.680  27.643  0.0045  0.1708 -0.1931
39437W        W82375  29.931  21.026  26.180  0.2036  0.4717 -0.1377
39438W        W82376  32.589  18.106  27.631  0.1464  0.2699 -0.0676
39439W        W82377  29.840  21.723  26.599  0.2191  0.0147 -0.0041
39440W        W82378  31.652  20.299  23.424 -0.1744  0.1901 -0.0149
39441W        W82379  31.328  19.926  23.419 -0.0672  0.1034 -0.0851
39442W        W82380  32.610  19.614  24.344 -0.3503 -0.0257 -0.2708
39443W        W82381  30.805  17.243  25.963 -0.1034  0.1943 -0.1135
39444W        W82382  30.144  22.885  27.372  0.1063  0.0647 -0.0640
39445W        W82383  31.306  18.552  27.048 -0.1487 -0.1055 -0.0071
39446W        W82384  33.201  20.943  27.108  0.3162  0.3040 -0.1523
39447W        W82385  32.400  19.510  24.920 -0.1246  0.1611 -0.2867
39448W        W82386  31.679  19.708  24.302  0.0639 -0.0727 -0.2281
39449W        W82387  31.142  21.558  28.509  0.1971  0.0227  0.1788
39450W        W82388  30.638  19.645  26.601  0.0194 -0.2423 -0.0740
39451W        W82389  33.830  20.939  24.002 -0.2819 -0.3323 -0.0910
39452W        W82390  32.074  20.780  25.609 -0.1648  0.0838 -0.2373
39453W        W82391  31.306  21.318  24.578 -0.1670  0.1141 -0.0000
39454W        W82392  30.456  19.578  25.670 -0.1374 -0.2122 -0.0052
39455W        W82393  29.336  20.311  26.331 -0.0687 -0.2613  0.1100
39456W        W82394  30.267  19.458  28.671  0.0510  0.0414  0.0374
39457W        W82395  30.623  18.729  23.642 -0.2294 -0.0057  0.1240
39458W        W82396  33.449  21.706  26.975  0.0211  0.3345  0.1509
39459W        W82397  28.978  21.235  26.380  0.2666  0.2610  0.0513
39460W        W82398  32.331  19.031  25.203  0.1930  0.1014  0.0715
39461W        W82399  31.248  19.721  26.264  0.0156  0.2146  0.0933
39462W        W82400  33.753  21.742  25.917 -0.0041 -0.0780  0.2512
39463W        W82401  32.441  21.672  24.012  0.1075  0.1122 -0.1209
39464W        W82402  30.919  19.147  25.972  0.3046 -0.2904  0.1785
39465W        W82403  31.045  19.255  24.793 -0.0642 -0.3108  0.1833
39466W        W82404  30.167  19.971  23.459  0.1163  0.2709 -0.1829
39467W        W82405  31.148  19.886  25.535 -0.2029  0.0044 -0.2436
39468W        W82406  32.461  22.682  26.226  0.1178 -0.1550  0.0956
39469W        W82407  31.962  20.680  25.081  0.1543  0.1024  0.0261
39470W        W82408  30.303  21.615  26.673 -0.1053 -0.0885 -0.0318
39471W        W82409  30.908  18.639  27.361  0.0391  0.1582  0.3085
39472W        W82410  30.995  20.534  27.430  0.0523  0.4264  0.1102
39473W        W82411  29.343  22.283  25.552 -0.1110 -0.4310 -0.0377
39474W        W82412  26.832  21.765  26.636  0.1460  0.5304 -0.0145
39475W        W82413  30.231  20.356  25.415  0.0131 -0.2610 -0.0673
39476W        W82414  29.419  20.002  26.718 -0.0746 -0.0068 -0.1289
39477W        W82415  30.312  19.944  28.499 -0.1935  0.0166  0.0256
39478W        W82416  33.535  18.038  23.582  0.1968 -0.1539 -0.0164
39479W        W82417  30.257  18.556  28.281 -0.0599  0.1242 -0.2688
39480W        W82418  32.808  18.150  25.204  0.2877 -0.1029 -0.1064
39481W        W82419  29.754  20.629  26.691  0.1168  0.1881  0.0035
39482W        W82420  32.235  21.962  25.638 -0.1003  0.2634 -0.1437
39483W        W82421  33.120  21.108  24.535 -0.2555 -0.1319 -0.1316
39484W        W82422  32.891  20.946  22.991 -0.1666 -0.1487 -0.3828
39485W        W82423  30.828  19.185  27.077  0.2812 -0.1355 -0.0184
39486W        W82424  29.740  18.644  26.013  0.0291 -0.1743 -0.4207
39487W        W82425  30.173  19.940  27.123 -0.3937  0.4187 -0.0803
39488W        W82426  29.246  18.371  26.946 -0.1281 -0.0833  0.0271
39489W        W82427  31.839  21.652  26.906 -0.1263  0.2451  0.0164
39490W        W82428  30.707  19.434  25.137 -0.2998 -0.0394  0.1476
39491W        W82429  31.687  19.211  24.431 -0.1609 -0.1365  0.1658
39492W        W82430  30.334  19.192  25.442 -0.0064 -0.1887 -0.3440
39493W        W82431  29.150  20.796  26.148 -0.0442  0.0065  0.0177
39494W        W82432  31.870  18.925  26.399  0.0725  0.0151  0.2686
39495W        W82433  30.273  22.965  24.306  0.3379  0.2496 -0.1919
39496W        W82434  33.892  21.501  29.050 -0.1167  0.1294  0.0216
39497W        W82435  32.081  21.181  25.070  0.0053  0.1792 -0.1144
39498W        W82436  30.174  19.580  26.484 -0.0626 -0.0973 -0.0590
39499W        W82437  30.779  19.692  24.579 -0.0075 -0.1710  0.1298
39500W        W82438  30.043  22.605  26.075 -0.2964 -0.0748  0.0344
39501W        W82439  31.530  21.373  25.144  0.0090  0.1343 -0.0415
39502W        W82440  31.437  20.151  23.897 -0.1289 -0.0838 -0.1000
39503W        W82441  32.567  21.825  26.167  0.0771 -0.2977  0.2346
39504W        W82442  30.715  21.833  26.925 -0.2089  0.0766 -0.2195
39505W        W82443  29.429  20.842  27.060 -0.1246 -0.3973  0.1529
39506W        W82444  29.727  18.235  27.384 -0.2993  0.2253  0.0339
39507W        W82445  31.889  20.199  26.732  0.1090 -0.1132 -0.1425
39508W        W82446  32.693  19.764  25.292 -0.0433 -0.0899  0.3108
39509W        W82447  29.709  19.046  23.611  0.0369  0.1425 -0.1578
39510W        W82448  33.761  21.039  25.971  0.0122  0.0972 -0.1091
39511W        W82449  28.357  21.071  24.168 -0.1010  0.0176  0.0136
39512W        W82450  29.451  21.138  26.527 -0.0249  0.1501 -0.0344
39513W        W82451  30.816  21.714  25.701 -0.0420 -0.4217 -0.2440
39514W        W82452  32.315  19.359  25.555  0.0432 -0.2245  0.0330
39515W        W82453  29.016  21.193  26.967  0.1298  0.1747 -0.4896
39516W        W82454  30.411  18.774  29.157 -0.2120  0.0972 -0.3085
39517W        W82455  30.603  18.795  26.181  0.1282 -0.2076  0.2777
39518W        W82456  32.217  21.762  27.757 -0.0294 -0.0004 -0.0171
39519W        W82457  31.220  18.000  27.731 -0.1576 -0.2894 -0.5881
39520W        W82458  32.310  19.894  23.957 -0.1020  0.2371  0.0242
39521W        W82459  31.696  19.876  27.176  0.1104  0.0273  0.1823
39522W        W82460  32.873  21.996  25.769 -0.0271 -0.0266 -0.4335
39523W        W82461  32.173  19.406  24.214  0.2261 -0.1364 -0.2117
39524W        W82462  31.123  18.996  24.265  0.3981 -0.0943  0.0700
39525W        W82463  29.439  21.466  26.909 -0.1460 -0.0062 -0.1313
39526W        W82464  30.827  21.976  24.873  0.0913 -0.0456 -0.1389
39527W        W82465  32.013  20.923  26.588 -0.0163  0.0405  0.0599
39528W        W82466  31.627  18.661  23.304  0.2748  0.0826 -0.0917
39529W        W82467  31.793  22.532  25.429  0.0605 -0.2209 -0.0387
39530W        W82468  28.629  21.308  25.963  0.3846 -0.2271  0.1203
39531W        W82469  31.440  20.797  27.110  0.2650  0.0017 -0.0136
39532W        W82470  33.149  22.445  25.821 -0.2334  0.2106  0.1183
39533W        W82471  32.021  18.765  24.851 -0.2093  0.0887 -0.2293
39534W        W82472  31.143  20.006  24.308  0.0706  0.3140  0.2528
39535W        W82473  29.011  19.081  27.373  0.1170 -0.1021 -0.0812
39536W        W82474  28.553  22.888  24.614 -0.1218  0.1037  0.0649
39537W        W82475  31.005  18.288  25.508  0.2355  0.2508  0.2057
39538W        W82476  31.871  19.770  25.708  0.0234 -0.1780 -0.1348
39539W        W82477  30.866  17.645  28.496  0.0688  0.1095 -0.0064
39540W        W82478  32.006  19.997  27.577  0.2136 -0.0366 -0.3951
39541W        W82479  31.528  19.075  24.925  0.1399 -0.2002 -0.1600
39542W        W82480  31.836  19.910  26.249 -0.2402  0.0231 -0.0679
39543W        W82481  30.572  20.186  24.836 -0.1235  0.0585 -0.2304
39544W        W82482  30.938  18.756  26.701  0.1496  0.0596  0.2569
39545W        W82483  30.389  20.098  26.577 -0.4210  0.0556 -0.2874
39546W        W82484  28.853  22.066  26.627  0.1175 -0.1077 -0.3827
39547W        W82485  32.833  20.577  28.320  0.3523 -0.0946  0.2694
39548W        W82486  32.515  20.712  25.014 -0.0900 -0.1610  0.0615
39549W        W82487  30.729  19.680  27.347 -0.0933 -0.1571  0.0893
39550W        W82488  31.471  18.410  25.640 -0.0367  0.1124 -0.1980
39551W        W82489  31.256  21.860  26.132 -0.3348  0.0215 -0.0923
39552W        W82490  30.819  21.353  24.604 -0.1835  0.2241 -0.0946
39553W        W82491  29.154  18.171  27.670 -0.0833  0.1050 -0.1738
39554W        W82492  31.302  21.790  27.030  0.2089  0.1760 -0.2526
39555W        W82493  31.392  22.144  23.555 -0.1827 -0.3730 -0.0853
39556W        W82494  30.403  20.426  27.994  0.0615 -0.0485 -0.1161
39557W        W82495  29.342  21.501  26.175  0.1317 -0.3367  0.1570
39558W        W82496  32.177  18.513  25.408 -0.1054  0.2559  0.2052
39559W        W82497  30.247  20.309  26.027  0.0893  0.0903  0.1999
39560W        W82498  30.835  19.507  24.136  0.1847  0.0062  0.2829
39561W        W82499  29.887  19.422  25.557  0.1726 -0.0332 -0.0621
39562W        W82500  33.363  19.184  24.863  0.0025  0.0856 -0.0855
39563W        W82501  32.740  21.571  24.639  0.3138 -0.3381 -0.3327
39564W        W82502  29.710  19.677  26.899 -0.3351  0.1833  0.0344
39565W        W82503  31.850  19.778  23.781  0.1581  0.1094  0.3209
39566W        W82504  29.390  22.138  25.071  0.3223  0.2943  0.3542
39567W        W82505  31.363  18.959  25.520  0.1113  0.3403 -0.1044
39568W        W82506  32.138  18.883  24.288 -0.0628  0.2694 -0.0428
39569W        W82507  33.041  21.128  27.646 -0.1999  0.2608 -0.0400
39570W        W82508  30.533  19.010  28.184 -0.3055  0.0218  0.0995
39571W        W82509  30.344  19.240  24.862  0.1354  0.1151 -0.2346
39572W        W82510  32.934  20.880  26.268 -0.0133 -0.1232 -0.0781
39573W        W82511  30.991  20.864  25.364  0.0362  0.0129 -0.3724
39574W        W82512  31.261  22.541  25.161  0.1190 -0.1707  0.1302
39575W        W82513  30.263  21.978  27.055 -0.1233 -0.2535 -0.1269
39576W        W82514  30.626  20.117  24.340 -0.2367 -0.1141  0.0699
39577W        W82515  30.536  20.643  27.557 -0.2232 -0.0332  0.0129
39578W        W82516  28.762  19.108  27.845  0.1699  0.0138  0.1083
39579W        W82517  32.544  21.254  27.493  0.0187  0.2573  0.1284
39580W        W82518  29.322  19.446  27.146 -0.2424 -0.0340  0.0817
39581W        W82519  30.962  20.158  26.608 -0.0456  0.0839  0.1151
39582W        W82520  31.426  20.086  25.935  0.0826 -0.0663 -0.1658
39583W        W82521  32.460  21.187  26.534 -0.0949 -0.0111 -0.2136
39584W        W82522  32.205  19.080  27.467  0.2995  0.1649  0.1347
39585W        W82523  30.169  20.881  27.797  0.0919  0.0485 -0.2198
39586W        W82524  30.700  17.975  27.477  0.2304 -0.0146 -0.1451
39587W        W82525  33.544  22.727  24.155 -0.1748 -0.4167  0.3152
39588W        W82526  31.984  20.507  26.325  0.1839 -0.0496 -0.2459
39589W        W82527  30.811  20.232  25.248  0.3277  0.2026  0.1409
39590W        W82528  29.296  20.557  27.446  0.0645 -0.2508  0.1165
39591W        W82529  28.673  20.873  26.267 -0.2149  0.1741 -0.0853
39592W        W82530  31.369  17.911  26.476 -0.1359 -0.0832 -0.0066
39593W        W82531  30.658  21.590  26.290  0.0267  0.0256 -0.1120
39594W        W82532  29.923  21.253  26.629  0.0995  0.0723  0.0905
39595W        W82533  29.196  22.474  26.624  0.2006  0.3078  0.2468
39596W        W82534  32.432  18.019  25.661  0.2263  0.5993  0.1283
39597W        W82535  32.091  20.423  24.687  0.1488  0.0187 -0.4483
39598W        W82536  31.582  20.680  25.897  0.5320 -0.0939  0.1377
39599W        W82537  32.052  18.659  27.684 -0.2515 -0.3135 -0.1398
39600W        W82538  32.328  21.191  23.723 -0.3305 -0.1730 -0.1415
39601W        W82539  31.495  18.033  26.953 -0.1149 -0.0551 -0.1261
39602W        W82540  30.169  19.453  27.054  0.2730  0.1611  0.1233
39603W        W82541  31.758  21.866  25.883 -0.0085 -0.0310  0.2323
39604W        W82542  28.569  21.137  26.728  0.1160 -0.0033 -0.0672
39605W        W82543  31.884  22.622  27.039  0.2410  0.0770 -0.0211
39606W        W82544  29.563  20.959  28.879  0.1618 -0.1760  0.1910
39607W        W82545  30.957  19.377  25.522 -0.0781 -0.0040  0.3143
39608W        W82546  30.689  17.138  24.921 -0.0653  0.0181 -0.2628
39609W        W82547  32.237  21.398  27.016  0.0850 -0.1513 -0.3916
39610W        W82548  31.620  20.288  25.551  0.1998 -0.1875 -0.1544
39611W        W82549  32.685  20.836  24.510  0.1626  0.0754  0.0740
39612W        W82550  31.397  18.995  26.842 -0.0134 -0.1484 -0.0721
39613W        W82551  29.781  20.644  27.429  0.0343 -0.0359 -0.0665
39614W        W82552  32.009  20.130  24.311  0.0095 -0.1472  0.2840
39615W        W82553  31.161  20.407  23.229 -0.2692 -0.1950  0.1999
39616W        W82554  30.462  19.281  26.251 -0.3386 -0.1683  0.0503
39617W        W82555  29.635  19.147  26.744  0.0133  0.1878  0.0800
39618W        W82556  31.245  19.614  27.495  0.0886  0.1715  0.2391
39619W        W82557  31.451  20.086  26.521  0.2550 -0.0573 -0.0028
39620W        W82558  32.517  19.467  26.897  0.4797 -0.0229  0.0127
39621W        W82559  32.018  18.337  25.799  0.1565 -0.0290 -0.0846
39622W        W82560  29.836  19.645  27.420 -0.2325  0.1491 -0.0556
39623W        W82561  29.738  17.708  26.205  0.4712  0.3605  0.1082
39624W        W82562  33.199  22.557  27.614  0.1818 -0.4143 -0.0758
39625W        W82563  33.418  20.407  23.339  0.0122  0.0982 -0.1653
39626W        W82564  33.133  17.935  26.175 -0.2633 -0.3350  0.0176
39627W        W82565  32.886  20.853  25.437  0.2185 -0.1661  0.0855
39628W        W82566  32.611  19.017  23.962  0.4963  0.2665 -0.1873
39629W        W82567  29.333  19.979  27.215 -0.0105 -0.0649 -0.0507
39630W        W82568  31.999  21.867  27.323 -0.2790 -0.0141  0.0625
39631W        W82569  31.026  18.981  23.313 -0.3186  0.1164 -0.3120
39632W        W82570  31.814  17.958  28.407  0.2328 -0.4269 -0.1816
39633W        W82571  30.762  22.203  25.883 -0.1833  0.2938  0.2997
39634W        W82572  30.919  20.068  26.120  0.2443 -0.2886 -0.1449
39635W        W82573  31.644  19.653  24.844  0.0809 -0.2623 -0.0007
39636W        W82574  28.705  19.002  26.084 -0.0654  0.2250 -0.0615
39637W        W82575  29.466  22.012  25.936 -0.0916  0.0565 -0.2812
39638W        W82576  31.831  19.524  23.366 -0.0424 -0.1726  0.1593
39639W        W82577  30.909  21.312  23.624 -0.3373  0.3244 -0.1656
39640W        W82578  32.393  20.705  26.239  0.1504  0.1377 -0.1035
39641W        W82579  33.038  20.568  29.912 -0.1929 -0.1285 -0.3622
39642W        W82580  31.770  17.867  24.977 -0.0581  0.3752  0.1092
39643W        W82581  32.308  19.676  26.007  0.0208  0.2538  0.1457
39644W        W82582  29.772  22.238  26.726  0.4257  0.1192  0.1363
39645W        W82583  31.255  18.120  25.965 -0.1570  0.0349 -0.5241
39646W        W82584  29.913  21.572  27.200  0.2126  0.1936  0.0083
39647W        W82585  29.170  19.765  26.309 -0.2894  0.0458  0.0473
39648W        W82586  30.073  21.330  25.677  0.0778 -0.0030  0.1534
39649W        W82587  30.559  18.971  27.456  0.0807 -0.1431  0.2785
39650W        W82588  31.857  19.342  25.365  0.1464 -0.0467 -0.0343
39651W        W82589  31.274  20.461  26.251 -0.0470 -0.1595  0.0239
39652W        W82590  32.768  20.797  26.755 -0.1371 -0.2310  0.1442
39653W        W82591  31.644  20.624  26.706 -0.0620 -0.1653 -0.2282
39654W        W82592  30.626  20.033  25.688  0.0741  0.1319 -0.1837
39655W        W82593  32.282  22.454  27.947 -0.0080  0.1553  0.0105
39656W        W82594  32.038  19.230  24.725  0.2357 -0.3408 -0.0272
39657W        W82595  31.371  20.800  23.935 -0.1067 -0.0517 -0.0640
39658W        W82596  28.669  21.427  27.280 -0.3537  0.2585 -0.1797
39659W        W82597  31.297  19.546  28.462 -0.0737  0.0121 -0.1130
39660W        W82598  31.199  21.265  25.588  0.4232 -0.0423 -0.3135
39661W        W82599  30.759  18.290  24.518  0.2857  0.1638  0.2625
39662W        W82600  30.748  21.262  25.165 -0.0229 -0.1766  0.1275
39663W        W82601  29.758  21.721  28.235 -0.1951 -0.1760  0.0343
39664W        W82602  29.676  19.111  27.234 -0.1566  0.0459  0.0374
39665W        W82603  30.581  20.951  26.157  0.1348 -0.2818 -0.1280
39666W        W82604  32.878  21.454  23.182  0.1436  0.1737 -0.1082
39667W        W82605  33.074  21.167  25.825  0.1062  0.1237 -0.2296
39668W        W82606  30.922  22.595  27.153  0.4339  0.2130  0.1243
39669W        W82607  31.251  19.505  24.445 -0.4102 -0.2172  0.2319
39670W        W82608  29.915  21.003  27.101 -0.0644  0.1031  0.0452
39671W        W82609  30.221  21.428  26.150  0.3566 -0.2342  0.0182
39672W        W82610  31.504  22.862  24.588 -0.3666 -0.1638  0.0735
39673W        W82611  29.957  22.123  26.206 -0.3627  0.0322  0.2082
39674W        W82612  34.373  21.526  26.636 -0.0888 -0.2166 -0.0886
39675W        W82613  32.614  17.962  23.702 -0.1792 -0.0183 -0.2981
39676W        W82614  33.329  20.688  25.859 -0.1417  0.3232 -0.0608
39677W        W82615  32.831  19.473  23.919  0.1911  0.2007  0.2912
39678W        W82616  32.111  22.080  28.208 -0.1747  0.3206  0.2156
39679W        W82617  31.325  18.564  26.538  0.1755  0.2165 -0.0415
39680W        W82618  31.138  16.967  24.713  0.1275  0.1894  0.0978
39681W        W82619  30.667  20.639  26.710  0.2501 -0.2007 -0.1439
39682W        W82620  32.856  18.687  27.093 -0.0660 -0.1496  0.2231
39683W        W82621  28.524  22.222  26.224 -0.2058 -0.0848 -0.3147
39684W        W82622  32.977  21.745  25.004 -0.2648 -0.1119 -0.0834
39685W        W82623  30.364  19.839  25.228  0.0272 -0.0176 -0.2073
39686W        W82624  30.382  19.832  26.131  0.1842 -0.0155  0.0970
39687W        W82625  32.104  18.818  25.785 -0.0345 -0.0122  0.1453
39688W        W82626  32.529  21.004  25.834  0.2606  0.0912 -0.3598
39689W        W82627  31.493  20.928  24.880 -0.0952 -0.4460  0.1718
39690W        W82628  29.965  21.815  25.681 -0.1074  0.2843 -0.3489
39691W        W82629  30.719  20.458  26.263  0.1317 -0.1473 -0.1433
39692W        W82630  29.577  21.440  24.415  0.0873 -0.1140 -0.0126
39693W        W82631  29.169  19.468  26.657  0.0307  0.1199 -0.0570
39694W        W82632  32.647  17.741  24.925  0.0363 -0.1825  0.3251
39695W        W82633  29.758  20.274  27.131 -0.3459  0.0505  0.2494
39696W        W82634  31.941  17.920  26.077 -0.1859 -0.2264  0.0599
39697W        W82635  30.074  19.522  26.007 -0.0174  0.2290  0.2011
39698W        W82636  31.250  18.612  25.219  0.2922 -0.1213 -0.0550
39699W        W82637  31.559  19.850  27.757 -0.1597  0.2388  0.0753
39700W        W82638  29.296  18.859  26.956  0.0814 -0.0495 -0.0277
39701W        W82639  31.290  19.570  23.942  0.0174 -0.1518  0.2245
39702W        W82640  32.931  20.519  27.688 -0.0545 -0.0583  0.3135
39703W        W82641  31.539  20.147  24.613 -0.3253  0.0648  0.0916
39704W        W82642  31.383  21.252  27.345  0.2436  0.2095  0.3184
39705W        W82643  28.846  17.330  26.200 -0.1201 -0.1593  0.0575
39706W        W82644  30.128  18.914  24.255  0.3154 -0.2603  0.2332
39707W        W82645  29.865  20.015  26.174  0.1705  0.0443  0.0288
39708W        W82646  31.105  20.066  27.320  0.0171 -0.1802 -0.0352
39709W        W82647  33.034  22.623  27.117 -0.1473 -0.3664  0.0681
39710W        W82648  30.074  16.347  24.515  0.2424 -0.0717 -0.0603
39711W        W82649  33.209  21.919  23.301 -0.1047 -0.2595  0.0170
39712W        W82650  32.170  19.480  26.430 -0.2089 -0.1659 -0.0762
39713W        W82651  30.007  21.301  23.412 -0.2329 -0.0620  0.0680
39714W        W82652  32.847  19.999  24.012  0.1129 -0.1627 -0.1317
39715W        W82653  31.017  22.036  27.771  0.4220 -0.4423 -0.0054
39716W        W82654  28.638  19.326  25.246 -0.2706 -0.1522 -0.5196
39717W        W82655  33.399  21.341  26.145  0.1822  0.0702  0.1114
39718W        W82656  32.114  22.124  24.727  0.0369 -0.2730 -0.0372
39719W        W82657  30.821  19.613  26.058 -0.0457 -0.2148 -0.1414
39720W        W82658  31.396  19.508  25.747 -0.1427 -0.1964 -0.0570
39721W        W82659  30.061  21.767  24.585  0.2736  0.0894  0.1469
39722W        W82660  32.569  18.960  25.698 -0.0655  0.1386  0.0375
39723W        W82661  32.406  19.964  26.635  0.3527 -0.2331 -0.5090
39724W        W82662  31.348  21.330  23.328  0.2319  0.1881 -0.0568
39725W        W82663  31.271  17.625  27.319  0.2920  0.0708 -0.0864
39726W        W82664  31.427  21.850  27.483  0.2679  0.1186  0.0473
39727W        W82665  28.919  21.413  27.913 -0.1541  0.1381 -0.0236
39728W        W82666  29.628  19.798  24.795  0.1889  0.0981 -0.0153
39729W        W82667  31.579  20.315  27.517 -0.4240 -0.0437 -0.1784
39730W        W82668  31.929  21.694  25.013 -0.0513  0.0069  0.1383
39731W        W82669  32.606  22.249  24.933 -0.1877  0.0720 -0.0974
39732W        W82670  33.077  19.701  23.496 -0.0816  0.3497 -0.2515
39733W        W82671  32.121  18.923  23.765 -0.2230 -0.0927 -0.0574
39734W        W82672  33.187  20.348  26.205 -0.2480  0.1458  0.0161
39735W        W82673  30.538  18.437  26.965  0.0298  0.0048  0.0788
39736W        W82674  33.438  18.574  23.578 -0.3318 -0.1982 -0.3363
39737W        W82675  31.840  18.868  25.365 -0.1393 -0.0432  0.2418
39738W        W82676  30.924  20.969  27.122 -0.1762 -0.1462  0.2565
39739W        W82677  29.374  21.345  25.304 -0.0142 -0.2106  0.0468
39740W        W82678  30.502  20.984  24.760 -0.2540 -0.0327  0.3280
39741W        W82679  30.214  20.559  26.432 -0.1900 -0.2234 -0.1037
39742W        W82680  31.352  19.116  29.334 -0.0041  0.1693  0.1267
39743W        W82681  28.131  19.356  27.036 -0.1232 -0.2207 -0.2646
39744W        W82682  30.510  20.134  27.548  0.2391 -0.1353 -0.1041
39745W        W82683  30.196  18.443  26.188  0.2261 -0.2514  0.0581
39746W        W82684  32.386  21.590  25.169  0.2908 -0.2609 -0.1003
39747W        W82685  28.384  19.731  26.787 -0.0712  0.0028 -0.0357
39748W        W82686  28.186  18.066  25.399 -0.1917 -0.1121  0.1513
39749W        W82687  32.469  21.143  25.335 -0.1256 -0.1241 -0.1087
39750W        W82688  31.930  21.541  25.498  0.1030  0.1110 -0.1811
39751W        W82689  31.075  18.598  26.013  0.6311 -0.0769 -0.2071
39752W        W82690  33.577  21.348  28.441 -0.0016  0.0413  0.2091
39753W        W82691  30.163  20.839  24.311  0.1707 -0.0099  0.0002
39754W        W82692  30.564  20.223  27.070  0.0890  0.2192  0.3737
39755W        W82693  28.911  19.162  28.780 -0.1486  0.0391  0.3179
39756W        W82694  29.450  18.451  25.603  0.1890 -0.0121  0.4704
39757W        W82695  31.351  18.645  27.664 -0.0445  0.0769 -0.2436
39758W        W82696  31.480  22.050  24.083  0.0494  0.1021 -0.2273
39759W        W82697  31.808  21.422  24.642 -0.0747 -0.2437  0.1408
39760W        W82698  30.668  20.710  25.705  0.1333  0.1451  0.2695
39761W        W82699  30.745  21.111  27.562 -0.0922  0.1431  0.0443
39762W        W82700  28.812  18.590  27.706 -0.0382 -0.0390 -0.2016
39763W        W82701  32.545  20.287  24.435 -0.0896 -0.0409 -0.0668
39764W        W82702  30.230  21.677  28.010 -0.1251  0.0101 -0.1450
39765W        W82703  32.525  22.121  24.456  0.4007 -0.1787  0.0194
39766W        W82704  32.377  18.987  26.563  0.2837  0.0740  0.1780
39767W        W82705  31.497  20.960  26.350 -0.0692 -0.1810 -0.0099
39768W        W82706  29.368  16.882  28.246  0.3067 -0.0430  0.4167
39769W        W82707  28.743  22.351  27.526  0.0717 -0.3360 -0.0414
39770W        W82708  33.554  21.625  25.252  0.0939  0.0522 -0.2681
39771W        W82709  29.238  18.780  26.076 -0.0500  0.0519 -0.1313
39772W        W82710  31.076  17.802  25.566  0.0182 -0.0643 -0.0338
39773W        W82711  30.612  21.245  25.704 -0.2162 -0.2700 -0.0111
39774W        W82712  30.193  20.529  27.036  0.1952 -0.0219 -0.0639
39775W        W82713  31.750  19.293  23.936  0.3033  0.2192  0.0146
39776W        W82714  31.945  19.717  26.793  0.1623 -0.3576  0.0514
39777W        W82715  31.554  22.849  26.099 -0.1597 -0.0739 -0.2515
39778W        W82716  31.780  21.146  26.975  0.1934  0.2446 -0.0619
39779W        W82717  31.291  20.254  25.200 -0.1962 -0.0389 -0.0732
39780W        W82718  32.414  20.073  24.928  0.0920 -0.0752  0.1067
39781W        W82719  30.994  21.003  26.407  0.1089 -0.1331 -0.1851
39782W        W82720  32.326  22.242  27.513  0.3693 -0.2726 -0.0223
39783W        W82721  30.446  21.496  27.144 -0.0678  0.1201  0.0628
39784W        W82722  31.852  19.257  25.859 -0.0770 -0.1457  0.0535
39785W        W82723  29.689  17.227  26.534  0.0176 -0.3103  0.0493
39786W        W82724  32.121  19.705  24.591  0.0092  0.1552 -0.1286
39787W        W82725  29.502  21.823  25.464  0.2021  0.2344 -0.1211
39788W        W82726  31.672  19.412  26.331 -0.0814  0.0599 -0.2577
39789W        W82727  30.106  18.139  27.071  0.0790 -0.1515  0.0425
39790W        W82728  31.342  19.420  25.247 -0.4294  0.1351 -0.0310
39791W        W82729  29.819  21.619  27.708  0.0588 -0.0230  0.1129
39792W        W82730  31.142  20.647  26.694 -0.1597  0.0592  0.0956
39793W        W82731  29.140  20.849  31.293 -0.1523  0.0236 -0.0133
39794W        W82732  28.754  19.919  27.866 -0.0514  0.0459  0.1670
39795W        W82733  31.734  19.453  28.156  0.0300  0.1265  0.3632
39796W        W82734  32.821  20.921  28.679  0.0186 -0.1341  0.1197
39797W        W82735  29.519  19.413  29.502 -0.1557 -0.3277 -0.1375
39798W        W82736  31.558  22.323  30.661 -0.0571 -0.0489  0.0687
39799W        W82737  30.738  19.356  30.862  0.0481 -0.1352 -0.0632
39800W        W82738  31.623  20.474  29.344 -0.0422 -0.0054  0.0830
39801W        W82739  32.632  22.036  29.443 -0.1388  0.0036 -0.1164
39802W        W82740  32.657  20.848  27.915  0.0577  0.0672  0.0620
39803W        W82741  31.571  20.532  29.923  0.3126  0.2051 -0.1930
39804W        W82742  29.985  20.875  31.098  0.0657 -0.1325  0.1430
39805W        W82743  31.292  17.548  28.669 -0.1319 -0.1025 -0.0959
39806W        W82744  28.368  18.864  30.287  0.0768 -0.3235 -0.0244
39807W        W82745  32.857  21.374  30.138 -0.0783  0.0032  0.0052
39808W        W82746  30.933  19.887  28.404 -0.1897 -0.1055  0.1735
39809W        W82747  30.955  17.876  30.854 -0.0266 -0.1434 -0.0366
39810W        W82748  30.939  19.117  29.028 -0.1694 -0.3863  0.1852
39811W        W82749  30.462  21.533  30.392 -0.0444  0.3146 -0.0004
39812W        W82750  31.124  20.281  30.233 -0.1965  0.0001 -0.0120
39813W        W82751  31.616  17.275  30.477  0.0634  0.1997 -0.2426
39814W        W82752  31.344  19.676  30.101  0.0976  0.1415  0.0664
39815W        W82753  29.309  19.505  28.562  0.0951 -0.0476  0.4007
39816W        W82754  28.779  18.973  30.616 -0.2159  0.1759  0.0274
39817W        W82755  30.561  20.319  29.230 -0.3224  0.0113  0.1577
39818W        W82756  32.692  19.062  29.672 -0.0292  0.0300  0.2620
39819W        W82757  33.667  19.875  28.424 -0.2447  0.1573  0.0503
39820W        W82758  29.767  20.920  30.163  0.0389 -0.0623 -0.2877
39821W        W82759  31.669  21.491  29.428  0.0696 -0.0678 -0.0503
39822W        W82760  31.919  18.423  31.978  0.0528  0.1478 -0.3228
39823W        W82761  30.076  20.323  30.684  0.2312 -0.1856  0.1062
39824W        W82762  29.741  20.971  29.360  0.0629 -0.1149  0.4643
39825W        W82763  30.190  21.794  29.501 -0.2014  0.0845  0.1828
39826W        W82764  33.519  22.276  30.666  0.4285  0.1483 -0.0475
39827W        W82765  30.164  21.313  29.616 -0.0225 -0.0351 -0.0901
39828W        W82766  30.922  21.408  31.148  0.0647  0.2364 -0.1414
39829W        W82767  28.842  20.671  27.320 -0.2261 -0.1448  0.0910
39830W        W82768  31.159  22.195  30.950  0.2727 -0.2437 -0.0968
39831W        W82769  30.209  22.605  31.612  0.0395  0.1761 -0.1234
39832W        W82770  29.887  20.098  28.792 -0.1155  0.0568 -0.3996
39833W        W82771  31.764  19.851  28.616 -0.0862 -0.0753 -0.0263
39834W        W82772  30.807  20.751  28.552  0.4596 -0.0020  0.0295
39835W        W82773  31.187  20.918  27.706  0.2106  0.1201  0.1852
39836W        W82774  30.770  20.664  31.833  0.0274 -0.1102 -0.0201
39837W        W82775  28.647  21.269  29.941  0.1076 -0.0032  0.1939
39838W        W82776  32.065  18.799  30.673 -0.1008 -0.0383  0.0659
39839W        W82777  30.302  20.894  28.397 -0.0464  0.1109  0.1644
39840W        W82778  32.560  19.037  27.095  0.0014  0.3675 -0.1671
39841W        W82779  30.793  18.645  28.862 -0.0462 -0.0383  0.3711
39842W        W82780  32.257  19.770  28.770  0.2335 -0.0418 -0.1994
39843W        W82781  29.094  18.655  28.606 -0.2226 -0.1142  0.1096
39844W        W82782  31.298  22.385  27.454  0.2844 -0.1676  0.2269
39845W        W82783  29.895  18.217  28.450  0.2138 -0.0390 -0.1566
39846W        W82784  32.497  21.254  31.074  0.2787  0.1455 -0.2600
39847W        W82785  31.482  19.470  28.918  0.0755 -0.0831  0.2987
39848W        W82786  32.397  20.337  29.892  0.1833  0.2213 -0.0904
39849W        W82787  29.144  21.175  29.909  0.0640  0.3656  0.0265
39850W        W82788  29.407  20.833  29.743 -0.2096  0.1240  0.2356
39851W        W82789  33.288  22.741  29.149  0.0281 -0.2191 -0.1910
39852W        W82790  33.643  23.350  30.082 -0.0573 -0.3621  0.0515
39853W        W82791  30.650  21.878  29.269  0.0023 -0.0106  0.0740
39854W        W82792  29.379  19.956  28.772  0.0293  0.0962 -0.1537
39855W        W82793  31.006  20.234  30.833 -0.1383  0.0326 -0.0221
39856W        W82794  30.452  19.797  30.168  0.1538  0.1017 -0.2614
39857W        W82795  29.435  18.317  28.622  0.2538  0.2027 -0.2610
39858W        W82796  33.644  20.854  30.326  0.1644 -0.1000  0.1552
39859W        W82797  30.162  21.329   0.171  0.0968 -0.2956  0.2615
39860W        W82798  33.048  18.557  29.617  0.0129  0.0461  0.4631
39861W        W82799  31.136  19.703  29.156  0.0815 -0.4144 -0.2527
39862W        W82800  32.856  21.614  29.492  0.3760  0.0488  0.2424
39863W        W82801  33.480  22.052  28.253 -0.1762  0.1207  0.2934
39864W        W82802  32.612  18.627  30.043  0.1144  0.3485 -0.1077
39865W        W82803  32.403  19.214  30.785  0.3725 -0.1508  0.0291
39866W        W82804  30.703  18.788  30.005 -0.3579  0.0337  0.1218
39867W        W82805  29.799  19.496  28.380  0.5165 -0.1230  0.1419
39868W        W82806  32.821  21.303  29.029  0.2475 -0.1236  0.2890
39869W        W82807  32.489  20.338  27.380 -0.1152  0.0236  0.0936
39870W        W82808  29.890  21.618  28.811 -0.1785  0.0057  0.3043
39871W        W82809  31.805  18.671  31.142  0.1154  0.0053  0.0800
39872W        W82810  31.387  22.219   0.377 -0.1133  0.1222  0.0992
39873W        W82811  28.554  23.429  26.932 -0.2230 -0.4418 -0.3342
39874W        W82812  29.552  20.557  31.149  0.0864  0.0425 -0.2534
39875W        W82813  30.108  20.001  27.965  0.1375 -0.0648  0.3163
39876W        W82814  29.070  18.156  30.022 -0.1984  0.1566  0.2076
39877W        W82815  30.399  20.790  30.795  0.2308 -0.0655  0.0051
39878W        W82816  31.909  19.952  28.087  0.0315 -0.2789  0.0651
39879W        W82817  28.413  19.565  29.458 -0.1574 -0.0696 -0.0280
39880W        W82818  31.820  17.796  29.364 -0.0610 -0.2044 -0.0761
39881W        W82819  28.502  20.849  28.143 -0.1852  0.0723 -0.0383
39882W        W82820  32.559  22.126  28.554 -0.2165  0.4119  0.1360
39883W        W82821  32.266  19.412  29.600  0.1781 -0.0802  0.0995
39884W        W82822  33.265  21.537  28.130  0.3153  0.1066 -0.1744
39885W        W82823  28.854  18.907  30.170  0.1063 -0.0148  0.0876
39886W        W82824  31.216  18.017  29.597 -0.0186  0.3428  0.2750
39887W        W82825  29.565  18.590  31.318  0.2025 -0.0267 -0.0445
39888W        W82826  29.519  17.924  29.578  0.0622 -0.1648  0.0769
39889W        W82827  32.636  20.075  30.662 -0.0536  0.4858  0.2848
39890W        W82828  28.695  16.806  28.553  0.0329  0.0971  0.3736
39891W        W82829  32.789  17.601  29.210  0.1853 -0.0730  0.0200
39892W        W82830  30.917  20.204  28.798  0.0209  0.3486  0.0605
39893W        W82831  28.184  20.979  28.523 -0.1398 -0.2828 -0.0023
39894W        W82832  32.536  18.318  30.824  0.1893 -0.2556 -0.2529
39895W        W82833  32.498  22.726  28.684 -0.3468  0.0945  0.0604
39896W        W82834  31.421  22.149  29.384 -0.3120  0.0053 -0.1117
39897W        W82835  33.183  22.146  29.595  0.1361 -0.1592 -0.0731
39898W        W82836  31.222  19.567  31.034 -0.1355 -0.1351  0.3089
39899W        W82837  30.214  18.587  27.412 -0.2140  0.1805 -0.1752
39900W        W82838  30.913  21.723  30.266 -0.0173 -0.1761  0.0437
39901W        W82839  31.423  21.799  30.605  0.0458  0.0693  0.2441
39902W        W82840  31.270  19.661  29.613 -0.0076 -0.1951  0.5016
39903W        W82841  33.704  22.069  29.672  0.2001  0.1070 -0.2552
39904W        W82842  32.826  20.012  27.498 -0.2235  0.1166  0.2389
39905W        W82843  30.932  21.746  30.800  0.1452 -0.0368  0.1436
39906W        W82844  31.572  18.856  30.249  0.0176  0.2848  0.0205
39907W        W82845  32.289  19.717  30.666 -0.1725  0.1658 -0.3192
39908W        W82846  32.416  19.948  27.812 -0.0792 -0.0790  0.1835
39909W        W82847  29.858  17.670  28.256 -0.1367 -0.2050  0.1522
39910W        W82848  31.157  21.929  29.911 -0.1033  0.1734 -0.3118
39911W        W82849  30.293  21.344  27.583  0.1806  0.2630  0.1574
39912W        W82850  27.973  20.311  29.518  0.0707 -0.3959  0.2526
39913W        W82851  31.984  21.336  29.104  0.2825  0.0871 -0.0499
39914W        W82852  31.958  19.603  29.173  0.2217  0.2407 -0.0540
39915W        W82853  30.128  17.820  31.289  0.0937  0.1691 -0.0233
39916W        W82854  32.468  18.520  29.566  0.1359  0.0472  0.2150
39917W        W82855  29.646  19.961  28.203  0.2557  0.0153  0.2675
39918W        W82856  31.059  22.754  31.415  0.1026 -0.1600 -0.1977
39919W        W82857  31.197  18.101  30.442 -0.0635  0.1648  0.1766
39920W        W82858  31.725  19.103  27.759  0.0912  0.3411 -0.0839
39921W        W82859  30.839  20.183  29.731 -0.1759 -0.3639  0.1639
39922W        W82860  31.747  20.429  28.231  0.1431  0.3720  0.3528
39923W        W82861  32.257  20.816  27.558  0.1961  0.0789  0.0207
39924W        W82862  31.684  18.373  27.376 -0.3623 -0.1968  0.4826
39925W        W82863  29.835  19.943   0.419 -0.3585  0.1593  0.0808
39926W        W82864  32.049  21.428  28.602  0.1578 -0.1059 -0.0237
39927W        W82865  31.501  20.450  30.542  0.1015 -0.0316 -0.0624
39928W        W82866  30.563  19.876  28.069  0.0962  0.0632 -0.4535
39929W        W82867  31.914  20.496  27.784  0.0238 -0.2130 -0.0547
39930W        W82868  30.470  20.516  29.780  0.3262  0.1219  0.3720
39931W        W82869  31.417  22.967   0.222  0.0805 -0.3057  0.0325
39932W        W82870  30.894  21.482  28.950 -0.0512  0.3145  0.0212
39933W        W82871  31.147  18.506  30.741  0.0936 -0.3446 -0.2404
39934W        W82872  30.043  20.284  27.604  0.1273  0.1022  0.0409
39935W        W82873  32.178  18.930  29.449  0.0813 -0.0819 -0.0792
39936W        W82874  31.155  22.903  27.548  0.0703 -0.0191 -0.3169
39937W        W82875  33.285  18.606  30.037  0.2625  0.0906  0.2842
39938W        W82876  31.843  19.108  29.081  0.0524 -0.1765  0.0411
39939W        W82877  29.840  18.486   0.144 -0.1369  0.4475 -0.1407
39940W        W82878  30.734  19.867  30.690  0.1250  0.1050 -0.1767
39941W        W82879  32.435  20.165  28.313 -0.2069 -0.1055 -0.1663
39942W        W82880  31.326  20.519  27.940 -0.2189  0.1502 -0.1204
39943W        W82881  29.782  20.808  28.338 -0.0704  0.0049 -0.0552
39944W        W82882  31.607  18.240  29.367  0.0773 -0.2838  0.1283
39945W        W82883  31.151  19.075  30.973 -0.0211  0.0022 -0.0043
39946W        W82884  29.640  22.557  30.021 -0.1152 -0.0117 -0.3047
39947W        W82885  31.891  21.429  29.880  0.1774 -0.1774 -0.0871
39948W        W82886  31.889  19.372  28.643  0.4473 -0.2935 -0.0042
39949W        W82887  32.468  20.057  31.496  0.0576  0.1268 -0.0119
39950W        W82888  30.019  19.106  29.441  0.2847  0.1267 -0.4205
39951W        W82889  31.540  21.299  27.800  0.0779  0.0844 -0.1504
39952W        W82890  30.740  20.890  29.455  0.0031 -0.0455  0.2336
39953W        W82891  30.057  17.757  30.676 -0.0371  0.2017 -0.0590
39954W        W82892  31.007  22.185  30.406  0.2522 -0.4062  0.1410
39955W        W82893  31.490  22.044  26.645 -0.3501 -0.0266  0.0893
39956W        W82894  32.750  20.489  30.408 -0.2297  0.0891  0.0812
39957W        W82895  29.329  21.387  29.009 -0.1018 -0.3791  0.0075
39958W        W82896  31.525  18.823  30.764  0.1072  0.2522 -0.2180
39959W        W82897  29.576  20.458  30.019  0.2996 -0.2975  0.0168
39960W        W82898  29.941  19.122  28.956 -0.1561 -0.0356 -0.2960
39961W        W82899  29.005  20.532  28.305 -0.3396 -0.3032 -0.2756
39962W        W82900  31.391  19.399  30.551  0.0809  0.2202 -0.1096
39963W        W82901  32.917  20.162  28.020 -0.1140 -0.0453  0.0570
39964W        W82902  27.956  19.237  29.730  0.0942  0.2760  0.0366
39965W        W82903  30.942  19.519  30.459  0.3812 -0.0097  0.0699
39966W        W82904  29.962  20.112  29.320 -0.3952  0.0064  0.3375
39967W        W82905  30.885  19.754  30.015 -0.0526  0.0044 -0.1246
39968W        W82906  32.009  19.514  27.252  0.3110  0.2172  0.1309
39969W        W82907  31.357  20.099  29.783 -0.0412  0.2052  0.3140
39970W        W82908  31.751  19.078   0.344  0.1552 -0.2414 -0.3327
39971W        W82909  27.886  18.060  27.575 -0.1377  0.3843  0.1444
39972W        W82910  31.719  19.798  30.964 -0.2686 -0.1905 -0.1573
39973W        W82911  30.602  19.792  29.432 -0.1884  0.2018 -0.1136
39974W        W82912  29.222  22.087  29.631  0.0554  0.1832  0.2187
39975W        W82913  30.655  23.031  31.394  0.2141 -0.1996 -0.2455
39976W        W82914  28.192  21.376  27.356 -0.1208  0.0974  0.0856
39977W        W82915  30.684  21.289  28.525 -0.0834  0.1936  0.1528
39978W        W82916  31.023  20.489  31.277 -0.1620  0.5158 -0.1691
39979W        W82917  31.797  19.644  30.446  0.2081  0.2390  0.2092
39980W        W82918  31.979  18.336  29.679  0.4675  0.0255 -0.0154
39981W        W82919  30.968  18.200  26.830  0.3226  0.0680 -0.0187
39982W        W82920  31.950  19.714  29.898 -0.1778 -0.0752  0.0935
39983W        W82921  31.906  20.778  28.579  0.0675  0.0889  0.0999
39984W        W82922  31.601  18.366  30.430  0.0708 -0.1361 -0.0989
39985W        W82923  30.696  22.131   0.455  0.1059 -0.0315  0.0250
39986W        W82924  31.197  17.612  30.401  0.2092  0.1881  0.1816
39987W        W82925  33.379  22.967  28.267  0.0394 -0.0563 -0.1589
39988W        W82926  31.825  19.212  30.765 -0.1236 -0.3071  0.0056
39989W        W82927  31.176  20.653  29.573 -0.2091 -0.0987 -0.1285
39990W        W82928  28.793  20.808  30.163  0.0134  0.1869  0.0004
39991W        W82929  30.962  20.380  28.277  0.5130  0.1337 -0.0262
39992W        W82930  31.390  19.912  30.572 -0.1377 -0.0915 -0.2593
39993W        W82931  30.163  20.898  29.865 -0.1238 -0.2756  0.4375
39994W        W82932  29.446  19.931  29.278  0.1375 -0.1727  0.0477
39995W        W82933  29.911  20.727  31.544  0.1550  0.0613  0.1337
39996W        W82934  31.437  20.050  28.290 -0.2320  0.0660 -0.0433
39997W        W82935  31.290  21.216  26.837  0.0973 -0.0198  0.0892
39998W        W82936  31.899  18.787  29.812  0.0826 -0.2276  0.1120
39999W        W82937  32.614  18.944  30.385  0.1239 -0.2496 -0.0479
40000W        W82938  33.044  21.057  28.171  0.0435 -0.0309  0.0279
40001W        W82939  32.350  18.689  31.087 -0.0961 -0.0054  0.1127
40002W        W82940  30.378  18.827  30.490 -0.0841 -0.3620  0.0810
40003W        W82941  33.307  22.237  29.100  0.2404 -0.1902 -0.1763
40004W        W82942  29.022  19.201   0.908 -0.2415 -0.2908 -0.0608
40005W        W82943  32.619  21.905  30.382 -0.0309 -0.2079 -0.3487
40006W        W82944  30.291  19.898  30.912 -0.3698  0.1320 -0.0343
40007W        W82945  30.216  19.787  29.046 -0.0965 -0.1004  0.2593
40008W        W82946  30.041  19.158  27.563  0.1296  0.0250 -0.1371
40009W        W82947  30.230  19.083  29.929 -0.0197  0.1620  0.2498
40010W        W82948  32.577  21.562  28.671 -0.1393  0.3597 -0.0178
40011W        W82949  31.136  21.649  29.375 -0.1942 -0.1075  0.0047
40012W        W82950  33.431  20.128  30.061 -0.0704 -0.0653  0.0837
40013W        W82951  29.892  20.526  29.624 -0.3245 -0.0137  0.0085
40014W        W82952  32.016  20.265  28.609  0.1335  0.1923  0.0449
40015W        W82953  31.395  20.689  28.460  0.0188 -0.0780  0.2063
40016W        W82954  30.437  18.888  28.708  0.0158  0.0775  0.1085
40017W        W82955  30.524  18.986  31.786 -0.1500 -0.1269 -0.0258
40018W        W82956  31.962  20.951  30.103 -0.0847 -0.0780  0.0154
40019W        W82957  31.946  20.095  29.131 -0.2201 -0.1426 -0.1622
40020W        W82958  33.000  19.193  31.020 -0.0248  0.1045  0.1696
40021W        W82959  33.135  20.913  30.370 -0.0346 -0.3349 -0.2285
40022W        W82960  31.938  19.976  31.464  0.2474  0.1792 -0.1080
40023W        W82961  29.025  19.240  31.094 -0.4358 -0.1715  0.0657
40024W        W82962  32.407  21.085  28.829 -0.0328  0.3239  0.1766
40025W        W82963  31.822  19.245  26.837 -0.0647 -0.1560 -0.1795
40026W        W82964  32.965  18.415  30.439 -0.1175 -0.0477 -0.1997
40027W        W82965  32.871  19.003  28.786 -0.1875  0.0719 -0.0163
40028W        W82966  30.461  21.011  27.142 -0.3835  0.0663  0.2574
40029W        W82967  29.931  18.209  29.474  0.1576  0.0574 -0.1746
40030W        W82968  31.809  20.508  30.964  0.0444 -0.3545  0.0943
40031W        W82969  28.886  19.507  28.144  0.0458  0.2738 -0.1200
40032W        W82970  33.113  17.830  31.693  0.4157 -0.0895 -0.2913
40033W        W82971  30.919  20.152  27.827 -0.0565 -0.0213 -0.0681
40034W        W82972  31.655  21.687  28.618  0.2764  0.4063  0.0427
40035W        W82973  32.686  20.680  29.126 -0.2317 -0.2471 -0.2768
40036W        W82974  29.109  18.268  29.457 -0.2586 -0.0377 -0.0056
40037W        W82975  31.059  22.247   0.813  0.0620 -0.0247  0.0652
40038W        W82976  30.073  18.609  30.083 -0.3237 -0.1638 -0.3410
40039W        W82977  30.749  20.758  28.020 -0.1661 -0.1243  0.4104
40040W        W82978  31.591  22.096  30.227 -0.0389  0.1143  0.0021
40041W        W82979  32.184  21.636  30.304 -0.1586 -0.0708 -0.3489
40042W        W82980  31.321  19.967  28.807 -0.0701 -0.2202  0.1890
40043W        W82981  33.978  19.081  30.886  0.0360 -0.0564  0.0861
40044W        W82982  29.234  20.951  28.454 -0.1655  0.2999 -0.0727
40045W        W82983  32.284  17.608  29.078 -0.2947  0.1785 -0.0104
40046W        W82984  29.293  21.504  30.858  0.0880 -0.3780 -0.3968
40047W        W82985  29.816  20.400  31.948  0.2881  0.0915  0.3800
40048W        W82986  30.004  22.624  30.678 -0.2217 -0.0665 -0.0180
40049W        W82987  30.849  18.092  28.741  0.0783  0.2151 -0.1032
40050W        W82988  32.221  20.066  31.011 -0.1290  0.0109  0.4105
40051W        W82989  32.317  20.384  29.356  0.1768 -0.2303  0.0127
40052W        W82990  32.655  20.550  31.638  0.2728 -0.1435 -0.2869
40053W        W82991  31.415  22.380  31.406  0.1117  0.0907  0.1037
40054W        W82992  30.525  19.387  29.721 -0.1220  0.1238 -0.1264
40055W        W82993  32.583  20.518  31.132  0.1865 -0.1813 -0.0686
40056W        W82994  32.774  19.736  28.284  0.0112  0.1069 -0.1417
40057W        W82995  30.272  20.801  29.387  0.2892  0.2818 -0.1257
40058W        W82996  28.707  20.191  30.955  0.0649 -0.1116 -0.0402
40059W        W82997  31.997  18.979  31.843 -0.1052  0.2742 -0.0099
40060W        W82998  31.209  20.263  29.203 -0.1884 -0.1306 -0.0195
40061W        W82999  31.215  18.604  29.125 -0.1845 -0.0517 -0.1755
40062W        W83000  31.933  21.394  27.559  0.0185 -0.1455 -0.0274
40063W        W83001  30.366  21.568  31.588 -0.2713 -0.1944 -0.0685
40064W        W83002  29.594  20.482  30.619  0.5151  0.0241  0.0966
40065W        W83003  29.358  21.907  29.109 -0.1930 -0.2214 -0.1951
40066W        W83004  32.178  21.206  27.903  0.0455  0.1499 -0.0931
40067W        W83005  31.685  20.115  30.165 -0.3111 -0.1608 -0.1273
40068W        W83006  32.371  21.278  29.865 -0.1577  0.0115  0.0793
40069W        W83007  30.782  19.694  28.854  0.1462 -0.3020 -0.1635
40070W        W83008  30.492  20.739  30.292 -0.0686 -0.0401  0.0937
40071W        W83009  29.836  20.477  27.994  0.1077 -0.0211  0.0042
40072W        W83010  32.121  21.871  28.670  0.1746 -0.1757 -0.1325
40073W        W83011  29.292  22.178  30.099  0.0239 -0.1115  0.1782
40074W        W83012  33.017  22.296  30.520  0.0772 -0.1383  0.2502
40075W        W83013  32.449  19.274  28.569  0.1044  0.2220 -0.0352
40076W        W83014  33.485  20.421  30.494  0.2448 -0.0008  0.3137
40077W        W83015  32.987  19.239  28.020 -0.0363  0.3032  0.0887
40078W        W83016  32.460  22.289  31.656  0.3294  0.1607  0.1413
40079W        W83017  29.799  19.604  27.903 -0.0911  0.3734 -0.0420
40080W        W83018  29.962  18.693  28.708 -0.1514 -0.2986  0.0502
40081W        W83019  32.553  21.731  29.903 -0.0765 -0.3982 -0.1811
40082W        W83020  34.196  17.955   0.104 -0.3058 -0.0300 -0.1439
40083W        W83021  29.857  22.596  31.206 -0.1543 -0.0772  0.3229
40084W        W83022  32.755  22.482  28.210 -0.2267 -0.2075 -0.0241
40085W        W83023  29.495  20.843  27.890 -0.1284  0.1338 -0.1920
40086W        W83024  29.047  20.749  28.995  0.0408  0.0247  0.0677
40087W        W83025  32.298  19.043  29.960  0.0499 -0.0258 -0.3923
40088W        W83026  31.458  20.289  26.998  0.0732 -0.1185  0.1193
40089W        W83027  32.667  19.480  29.356  0.2719 -0.0014 -0.2501
40090W        W83028  30.642  21.073  28.978  0.0960 -0.0309  0.1665
40091W        W83029  31.486  21.361  28.983 -0.4844 -0.2791 -0.3113
40092W        W83030  31.019  21.160  29.801  0.3301 -0.3651  0.2513
40093W        W83031  29.492  18.450  30.015 -0.2058 -0.0550 -0.2149
40094W        W83032  32.631  19.505  27.840  0.1364 -0.0516 -0.0561
40095W        W83033  30.740  18.805  30.870 -0.1500  0.2093 -0.3349
40096W        W83034  31.636  17.929  31.785  0.0658  0.0146  0.1561
40097W        W83035  28.611  20.476  29.091  0.3034  0.1384  0.0647
40098W        W83036  32.008  19.515  27.755  0.2544 -0.1511  0.3423
40099W        W83037  32.011  20.744  29.126  0.0628 -0.2986  0.1116
40100W        W83038  31.095  18.529  30.221  0.2355 -0.2277  0.0877
40101W        W83039  29.726  19.646  28.976  0.2259  0.2765 -0.1288
40102W        W83040  33.669  20.526  29.891 -0.0799  0.0658 -0.0698
40103W        W83041  32.738  21.320  26.978  0.1779  0.1153 -0.3956
40104W        W83042  31.706  23.071  30.642  0.0975  0.0479 -0.3219
40105W        W83043  30.262  19.470  28.105 -0.0392 -0.0717  0.1918
40106W        W83044  31.768  19.282  29.541  0.2870  0.1303 -0.0224
40107W        W83045  28.455  20.521  28.567 -0.0449  0.0835  0.4118
40108W        W83046  31.531  21.052  29.755  0.1253  0.0685  0.0968
40109W        W83047  32.322  21.731  30.828 -0.0162 -0.0493  0.1852
40110W        W83048  30.822  18.981  29.511 -0.1819  0.0749  0.0560
40111W        W83049  32.737  22.494  27.647 -0.0781  0.5262 -0.4006
40112W        W83050  32.409  21.216  29.387  0.3191  0.0312 -0.2118
40113W        W83051  31.052  21.508  27.734 -0.0142  0.3502  0.0841
40114W        W83052  32.456  21.675  29.136 -0.0324  0.0809  0.0872
40115W        W83053  33.376  21.353  30.366  0.2555 -0.0817  0.0012
40116W        W83054  28.698  19.165  29.225 -0.1629 -0.1861  0.3182
40117W        W83055  30.071  21.163  30.613  0.2391  0.1000  0.0769
40118W        W83056  32.370  21.642  28.231  0.2178 -0.1132 -0.0050
40119W        W83057  31.700  18.679  29.315 -0.2141  0.3082 -0.2042
40120W        W83058  31.056  19.251  29.956  0.4005  0.0909 -0.1099
40121W        W83059  29.360  20.363  29.516 -0.1982 -0.3456 -0.1527
40122W        W83060  32.235  20.009  30.197  0.2621  0.2121 -0.2427
40123W        W83061  32.189  19.351  30.329  0.0810 -0.0378 -0.0171
40124W        W83062  30.486  21.234  28.021  0.2338  0.2079 -0.0412
40125W        W83063  34.245  18.562  30.728 -0.4324  0.1472 -0.0428
40126W        W83064  31.116  23.355   0.086 -0.1312  0.0503  0.0716
40127W        W83065  30.716  23.750  31.267  0.1297 -0.2185  0.3649
40128W        W83066  28.587  20.845  25.733  0.1169 -0.0469  0.0063
40129W        W83067  32.077  20.686  29.723  0.1042 -0.0232  0.1208
40130W        W83068  29.016  21.063  30.874 -0.0212 -0.0443 -0.1082
40131W        W83069  31.382  22.808  27.155 -0.1748  0.0194  0.4081
40132W        W83070  32.606  20.656  29.629  0.0729  0.1418  0.3523
40133W        W83071  31.016  20.674  29.019 -0.1705 -0.0210  0.0689
40134W        W83072  32.832  22.438  28.947 -0.4121  0.1631  0.2497
40135W        W83073  31.274  18.747  29.632  0.2308  0.2161  0.3311
40136W        W83074  31.856  18.524  28.338  0.1630  0.0665 -0.1854
40137W        W83075  31.319  17.135  28.231 -0.1154 -0.2312  0.0914
40138W        W83076  30.700  21.281  30.707 -0.0150  0.0869  0.1191
40139W        W83077  28.437  19.830  27.285  0.3955  0.2231  0.2794
40140W        W83078  30.508  20.355  28.514  0.4065  0.0092 -0.0538
40141W        W83079  30.260  20.067  29.795 -0.2770 -0.2172  0.2327
40142W        W83080  31.226  17.549  31.461  0.1009 -0.0520 -0.2701
40143W        W83081  30.770  19.790  31.214  0.2332 -0.3434 -0.1809
40144W        W83082  29.218  19.953  29.776 -0.2465 -0.1352 -0.0812
40145W        W83083  29.436  20.449  29.053 -0.3043  0.1729  0.0596
40146W        W83084  32.876  21.069  29.531 -0.2695  0.1428  0.0584
40147W        W83085  30.009  19.649  29.478 -0.0438  0.1172 -0.0909
40148W        W83086  30.025  19.999  30.309 -0.0875 -0.0152  0.0268
40149W        W83087  31.698  22.194  28.456 -0.0880  0.1744 -0.0332
40150W        W83088  31.315  21.707  28.070 -0.1860 -0.1827 -0.0905
40151W        W83089  30.390  18.316  28.658 -0.3859  0.1980  0.1692
40152W        W83090  34.211  21.928  31.088  0.3526  0.1336  0.3842
40153W        W83091  29.672  21.132  27.535 -0.1643 -0.0412 -0.0413
40154W        W83092  31.475  18.365  29.942  0.2008 -0.1020  0.1446
40155W        W83093  31.246  18.049  31.315  0.2662  0.0133  0.1448
40156W        W83094  29.506  18.722  28.962  0.0281  0.0343  0.0885
40157W        W83095  33.132  19.794  29.310  0.0421  0.1617  0.0129
40158W        W83096  31.178  21.101  28.221  0.2682 -0.2786 -0.1599
40159W        W83097  32.187  21.672  29.509  0.0180  0.2450 -0.2362
40160W        W83098  30.587  20.252  31.095 -0.1151  0.0999  0.0887
40161W        W83099  29.578  20.977  30.742 -0.1057 -0.2029  0.0638
40162W        W83100  29.333  17.519  31.849  0.2060  0.3532 -0.0663
40163W        W83101  32.412  19.703  27.392 -0.2258 -0.0918 -0.2786
40164W        W83102  32.087  21.297  30.752  0.2319  0.0100 -0.2133
40165W        W83103  33.811  21.360  29.587  0.1084 -0.1244 -0.0945
40166W        W83104  32.416  18.059  29.424  0.1734  0.1353 -0.0436
40167W        W83105  31.617  20.387  28.837 -0.0925  0.1116 -0.0637
40168W        W83106  30.251  18.961  30.939 -0.1074  0.1885 -0.2648
40169W        W83107  31.031  20.839  30.582 -0.1237  0.2861  0.2516
40170W        W83108  33.413  21.782  29.359  0.0783  0.0175 -0.2320
40171W        W83109  30.574  17.977  29.587 -0.0060 -0.1755 -0.1200
40172W        W83110  32.442  19.857  29.713 -0.0456 -0.4622 -0.1715
40173W        W83111  31.757  21.947  27.925 -0.2738  0.0733  0.1210
40174W        W83112  29.732  20.009  29.767 -0.1277 -0.1258  0.0267
40175W        W83113  32.205  19.602  28.239 -0.1242  0.4292 -0.1613
40176W        W83114  31.819  20.835  30.593 -0.3079  0.0764  0.0723
40177W        W83115  30.534  21.307  29.928 -0.0225 -0.0202  0.0169
40178W        W83116  32.761  20.199  29.417  0.0785  0.0009  0.0985
40179W        W83117  30.046  20.343  28.368  0.2266  0.2983 -0.1768
40180W        W83118  33.574  21.210  27.879  0.1835 -0.1377  0.0289
40181W        W83119  32.537  22.230  29.878 -0.2280  0.4976 -0.0973
40182W        W83120  31.928  23.036  31.077  0.1769  0.2420 -0.1780
40183W        W83121  31.001  22.560   0.318  0.0987  0.0572  0.2992
40184W        W83122  31.537  19.866  29.300  0.1822 -0.3095  0.1291
40185W        W83123  29.753  18.029  30.075 -0.4244  0.0668 -0.4073
40186W        W83124  28.929  20.741  29.487  0.2654  0.0236 -0.0121
40187W        W83125  30.045  21.373  30.148 -0.0810 -0.0068  0.1103
40188W        W83126  33.811  19.624  30.873 -0.0466 -0.1729 -0.1747
40189W        W83127  30.429  19.326  29.159  0.1874  0.1850 -0.2554
40190W        W83128  32.222  18.328  28.610 -0.0387  0.1959  0.4725
40191W        W83129  29.103  20.891  31.817 -0.3777  0.0019 -0.0046
40192W        W83130  31.968  20.147  29.723 -0.4252  0.0833 -0.0752
40193W        W83131  32.888  18.558   0.329 -0.0331  0.4420  0.0741
40194W        W83132  31.798  21.880  31.085 -0.3729  0.0721 -0.2180
40195W        W83133  29.535  19.461   1.160  0.3402 -0.0291 -0.1302
40196W        W83134  30.586  20.778   0.292 -0.2653 -0.1004 -0.2597
40197W        W83135  30.572  21.894  31.267  0.0598  0.0992 -0.3860
40198W        W83136  29.533  21.100  31.305 -0.0706 -0.1273  0.1252
40199W        W83137  32.944  18.998   0.595 -0.0515  0.0657  0.0259
40200W        W83138  31.215  19.069  31.489  0.0983 -0.1253 -0.1447
40201W        W83139  32.464  17.812  30.853  0.1207  0.0939 -0.0434
40202W        W83140  33.726  20.919  31.251  0.4975 -0.3264  0.0126
40203W        W83141  31.793  21.690  31.688  0.3059 -0.0712 -0.2059
40204W        W83142  30.532  19.236  30.285  0.2983  0.1380  0.1508
40205W        W83143  32.234  22.192  30.845 -0.2700  0.1568  0.0233
40206W        W83144  31.692  21.443  30.439 -0.1433  0.1614  0.0493
40207W        W83145  31.991  18.732   0.697 -0.0920 -0.2313 -0.1763
40208W        W83146  30.027  21.825  31.315  0.2335  0.1377 -0.0602
40209W        W83147  29.350  19.110   2.094  0.3945 -0.1294  0.0847
40210W        W83148  32.320  20.934  30.505  0.3198  0.1868 -0.2298
40211W        W83149  28.906  18.805  31.448  0.3554  0.2196 -0.4551
40212W        W83150  30.717  19.622  31.727 -0.1706  0.0149  0.1124
40213W        W83151  30.581  17.875  31.805  0.2002 -0.1344  0.0216
40214W        W83152  29.266  23.584   0.781 -0.1509  0.0721  0.0859
40215W        W83153  33.362  18.713   0.590  0.0454  0.0590 -0.1220
40216W        W83154  32.042  19.084  31.325  0.2563  0.0253  0.1087
40217W        W83155  31.576  19.260  31.803  0.1960 -0.0672 -0.0004
40218W        W83156  32.184  18.590  31.556  0.1692 -0.0719  0.2628
40219W        W83157  31.991  19.514   0.364 -0.0278 -0.1129 -0.0176
40220W        W83158  30.387  21.050  31.722 -0.1425  0.4224 -0.0766
40221W        W83159  31.230  18.739   0.682  0.1478  0.2115 -0.1192
40222W        W83160  30.749  20.283   0.461 -0.1726  0.1598  0.0951
40223W        W83161  32.124  19.532  31.109 -0.1784  0.0131 -0.4218
40224W        W83162  30.867  18.348  31.139 -0.1052 -0.1836  0.0842
40225W        W83163  31.770  20.285  31.846  0.2056  0.0811 -0.1689
40226W        W83164  32.108  18.256   0.419  0.3816  0.0536 -0.0192
40227W        W83165  29.774  19.880   0.912  0.5605 -0.2804 -0.0535
40228W        W83166  31.069  20.319   0.934 -0.2323  0.0234  0.0074
40229W        W83167  30.176  20.833   0.632 -0.0329  0.0026 -0.2933
40230W        W83168  31.370  21.432  30.023 -0.0833  0.0150  0.1134
40231W        W83169  32.687  20.866  30.068  0.3853 -0.0380 -0.3541
40232W        W83170  31.569  20.461  31.439  0.0090  0.0923  0.1764
40233W        W83171  32.862  20.051  31.181  0.1263  0.2756  0.0342
40234W        W83172  32.046  20.113   0.307 -0.2683 -0.5057 -0.0634
40235W        W83173  31.645  19.394  31.314  0.3259  0.3157 -0.0673
40236W        W83174  31.730  22.814   0.583  0.3757 -0.0300 -0.0771
40237W        W83175  30.412  19.160   0.676 -0.3753  0.1193 -0.1908
40238W        W83176  31.374  20.914  30.229  0.0552  0.0660  0.2150
40239W        W83177  32.175  17.251  31.963  0.1302  0.1795 -0.0226
40240W        W83178  30.539  22.106   0.889 -0.0108  0.0362 -0.1702
40241W        W83179  32.054  21.408  31.277 -0.1895 -0.2858  0.1147
40242W        W83180  29.366  20.759   0.774  0.3191 -0.1492  0.2294
40243W        W83181  31.655  20.817  31.784 -0.1588  0.0311 -0.0407
40244W        W83182  31.324  18.026   0.278  0.0944  0.1095  0.0573
40245W        W83183  31.149  19.742   0.678  0.2958 -0.2105  0.0503
40246W        W83184  30.757  19.473   1.037 -0.0829  0.0290 -0.1227
40247W        W83185  33.311  19.096   0.239 -0.1328 -0.0862 -0.0682
40248W        W83186  31.939  20.995   0.277 -0.0782 -0.2886  0.3971
40249W        W83187  31.307  21.767  31.148 -0.1109 -0.0592  0.0977
40250W        W83188  30.027  22.623   1.126 -0.1414  0.0781  0.2233
40251W        W83189  30.995  21.767  31.531  0.0868  0.3786  0.3098
40252W        W83190  31.210  19.588  31.508  0.0553  0.2735 -0.2456
40253W        W83191  30.552  20.251  30.294  0.1274  0.0917 -0.1959
40254W        W83192  30.043  18.549  31.658  0.0049  0.1305 -0.3747
40255W        W83193  30.838  20.138  31.561 -0.1048 -0.0319 -0.1124
40256W        W83194  30.025  18.966  31.942 -0.0216 -0.3381  0.0403
40257W        W83195  32.261  21.559   0.423 -0.2384  0.0002  0.2413
40258W        W83196  33.785  21.287  30.121 -0.0105 -0.4985 -0.1382
40259W        W83197  33.695  20.238  31.533 -0.0838 -0.0207  0.1357
40260W        W83198  30.975  25.435  17.879  0.0137 -0.1236  0.6075
40261W        W83199  29.981  23.751  18.174 -0.2397 -0.0420  0.2957
40262W        W83200  31.247  22.826  17.254 -0.3024  0.0529  0.0685
40263W        W83201  31.474  23.916  17.061  0.2494 -0.1472 -0.4384
40264W        W83202  29.496  23.606  17.242 -0.1949 -0.1199  0.3031
40265W        W83203  32.105  24.214  17.724 -0.1518 -0.0482  0.3714
40266W        W83204  29.014  22.632  18.283 -0.1127  0.1796 -0.3673
40267W        W83205  32.191  24.197  18.452  0.2285 -0.0014  0.2025
40268W        W83206  33.130  24.507  20.136 -0.4332  0.4036  0.1140
40269W        W83207  32.201  23.293  16.844 -0.1611 -0.0574  0.0186
40270W        W83208  30.834  24.756  19.268  0.0310 -0.1276 -0.1428
40271W        W83209  29.897  23.258  17.114  0.0963 -0.1016  0.0629
40272W        W83210  31.354  21.564  16.591  0.0743 -0.1902  0.2275
40273W        W83211  29.718  23.442  19.571 -0.1001  0.1514 -0.1696
40274W        W83212  31.810  25.123  19.125 -0.1311 -0.0604 -0.1107
40275W        W83213  28.929  23.535  17.254  0.3119  0.3108  0.3804
40276W        W83214  30.804  21.433  17.733 -0.0972 -0.0945  0.3207
40277W        W83215  30.426  23.774  17.838  0.0533 -0.1514 -0.3547
40278W        W83216  31.798  24.506  18.329  0.1734  0.1923 -0.4898
40279W        W83217  29.708  22.514  19.380 -0.1020 -0.0234  0.0950
40280W        W83218  30.849  22.029  20.143  0.0148  0.1641  0.0119
40281W        W83219  30.207  23.472  17.456 -0.1890  0.1035  0.0374
40282W        W83220  28.483  23.583  16.761 -0.2926 -0.1197 -0.2173
40283W        W83221  28.946  24.720  16.357 -0.3693  0.0211 -0.2328
40284W        W83222  30.875  22.715  18.685 -0.0567 -0.0475 -0.0690
40285W        W83223  31.172  23.407  19.163  0.0989 -0.0595 -0.0056
40286W        W83224  32.728  23.686  17.718 -0.0490 -0.2996 -0.0537
40287W        W83225  30.944  24.588  17.655 -0.1584 -0.0135  0.0822
40288W        W83226  30.323  24.551  18.391  0.0777 -0.1440  0.0426
40289W        W83227  31.047  23.493  20.737  0.2139 -0.1012 -0.0493
40290W        W83228  28.415  24.068  18.220  0.0762 -0.0086  0.1074
40291W        W83229  29.925  24.504  17.268 -0.0811 -0.0325  0.4309
40292W        W83230  30.411  23.270  16.996 -0.0809 -0.1689 -0.1255
40293W        W83231  32.837  25.523  17.226 -0.1906  0.1138  0.2579
40294W        W83232  32.180  25.935  18.919 -0.0151 -0.1678  0.4989
40295W        W83233  30.343  26.478  19.556  0.2697  0.0467  0.1872
40296W        W83234  29.861  24.662  16.759  0.3291  0.1732  0.1296
40297W        W83235  31.339  25.093  18.787 -0.0212 -0.0700  0.0690
40298W        W83236  30.202  24.875  19.495 -0.0194 -0.1797 -0.2290
40299W        W83237  30.476  25.613  18.656  0.0309 -0.3432 -0.3836
40300W        W83238  31.313  21.904  17.187 -0.1130  0.2039 -0.1327
40301W        W83239  29.978  24.148  17.934  0.2842  0.0855 -0.4632
40302W        W83240  31.335  22.751  18.476  0.0384  0.4539  0.1501
40303W        W83241  29.956  26.039  19.034 -0.0638  0.0835  0.3392
40304W        W83242  29.870  23.693  17.709 -0.3885 -0.2872 -0.2112
40305W        W83243  32.346  23.955  19.899  0.2451  0.2136 -0.3726
40306W        W83244  30.345  25.405  16.611 -0.2578  0.0165 -0.0609
40307W        W83245  32.957  23.592  16.413  0.0516  0.2519 -0.0749
40308W        W83246  30.260  22.135  16.402  0.0377  0.3774 -0.0486
40309W        W83247  32.246  22.518  17.354 -0.0628 -0.2620 -0.2633
40310W        W83248  30.348  20.373  17.788 -0.0864 -0.1018  0.2167
40311W        W83249  30.623  25.187  18.078 -0.2015 -0.1908 -0.2309
40312W        W83250  28.732  21.798  18.531  0.1423  0.2825 -0.1377
40313W        W83251  31.699  24.754  18.796 -0.2227 -0.0659  0.1131
40314W        W83252  30.514  23.785  16.951  0.2612  0.0645 -0.1007
40315W        W83253  30.467  20.791  17.039  0.0811  0.0563 -0.0455
40316W        W83254  29.955  25.342  18.463 -0.0457  0.1657 -0.0384
40317W        W83255  30.047  23.310  18.507 -0.1363  0.0333  0.2339
40318W        W83256  32.134  24.097  17.190 -0.2063  0.2085  0.0103
40319W        W83257  32.138  24.603  16.909  0.6559 -0.0161 -0.0675
40320W        W83258  31.169  25.206  17.027 -0.0182 -0.0668 -0.0247
40321W        W83259  30.562  23.509  16.521 -0.0318  0.0959  0.2716
40322W        W83260  28.515  23.542  18.144 -0.0557  0.0004 -0.1370
40323W        W83261  29.187  23.511  19.888 -0.3223 -0.3374  0.3933
40324W        W83262  30.404  21.676  17.232 -0.2200  0.2336  0.0049
40325W        W83263  32.269  24.891  19.177  0.2932  0.0745 -0.0798
40326W        W83264  28.638  25.863  18.551  0.2665 -0.0442 -0.0497
40327W        W83265  32.613  22.722  17.606 -0.3185 -0.1554  0.0917
40328W        W83266  30.819  22.678  17.616  0.2387 -0.2554 -0.3310
40329W        W83267  32.768  26.898  18.187  0.0205 -0.4689  0.0804
40330W        W83268  30.792  23.138  17.328  0.0376 -0.1141 -0.1072
40331W        W83269  32.136  21.375  17.492 -0.0839  0.2204  0.3401
40332W        W83270  31.365  20.929  18.886 -0.0287 -0.1865 -0.0500
40333W        W83271  30.968  23.414  16.839  0.1639  0.2652 -0.2941
40334W        W83272  29.893  23.380  16.589 -0.0666 -0.0042  0.2181
40335W        W83273  32.235  24.761  18.650  0.0498  0.1964 -0.0740
40336W        W83274  33.107  23.182  16.660  0.2097  0.2089 -0.4943
40337W        W83275  29.668  25.775  19.436  0.1231  0.0586  0.1699
40338W        W83276  31.562  22.764  19.465 -0.0177 -0.2422  0.0464
40339W        W83277  29.461  25.491  19.820  0.0075 -0.3345  0.0625
40340W        W83278  29.897  25.414  17.409 -0.2269  0.0489  0.1118
40341W        W83279  29.499  23.886  18.289  0.1154 -0.2767 -0.0552
40342W        W83280  29.212  23.900  16.964  0.2185  0.1405 -0.0843
40343W        W83281  30.045  23.921  19.657  0.3238  0.0561 -0.2968
40344W        W83282  29.630  24.031  17.368  0.2627 -0.0776 -0.3063
40345W        W83283  32.622  21.368  17.476  0.1609  0.0430 -0.1685
40346W        W83284  28.927  23.963  19.654 -0.0708  0.0120  0.2743
40347W        W83285  33.977  22.948  17.842  0.0100  0.2441  0.2299
40348W        W83286  30.721  23.664  17.354 -0.0943  0.1267 -0.2756
40349W        W83287  33.242  25.836  17.186 -0.1515 -0.1428 -0.0115
40350W        W83288  32.240  21.799  17.717 -0.2405  0.1631 -0.1847
40351W        W83289  30.820  23.816  18.118 -0.0684  0.0956  0.0042
40352W        W83290  29.704  23.307  19.004 -0.0761 -0.0521  0.1970
40353W        W83291  30.556  22.583  17.148  0.2438 -0.0875 -0.0429
40354W        W83292  30.265  22.077  20.012  0.0836  0.5781 -0.0219
40355W        W83293  29.650  23.336  18.054  0.0093  0.2599 -0.1283
40356W        W83294  30.998  25.243  19.499 -0.1275 -0.1304  0.0329
40357W        W83295  29.863  21.997  16.692 -0.4639 -0.0036  0.2875
40358W        W83296  31.694  24.081  18.748  0.0283  0.2071 -0.1744
40359W        W83297  31.164  23.153  17.738  0.0757  0.1878  0.0776
40360W        W83298  29.209  23.078  18.156 -0.0972  0.1521 -0.1613
40361W        W83299  31.778  23.930  19.989  0.0443 -0.0255 -0.2279
40362W        W83300  32.446  25.128  17.259  0.1008  0.0298 -0.0732
40363W        W83301  32.975  26.453  18.566 -0.1800 -0.0095  0.1642
40364W        W83302  33.507  26.362  18.794 -0.1590  0.2362  0.2172
40365W        W83303  29.615  24.182  19.312 -0.1481 -0.0609  0.0547
40366W        W83304  30.476  22.539  16.562  0.1313  0.2738  0.0370
40367W        W83305  27.654  25.877  17.533 -0.0447  0.4065 -0.4211
40368W        W83306  30.956  22.356  17.993 -0.2093 -0.0288  0.3458
40369W        W83307  31.144  22.368  17.327 -0.0025  0.4897  0.1547
40370W        W83308  32.715  25.978  17.373 -0.1564 -0.3606  0.0959
40371W        W83309  32.215  23.077  17.304 -0.1314  0.0150 -0.0944
40372W        W83310  28.521  24.129  19.199 -0.1379 -0.0482  0.0355
40373W        W83311  31.593  21.304  19.245  0.1219  0.2004  0.2234
40374W        W83312  31.453  25.081  18.268 -0.0807  0.1203  0.1382
40375W        W83313  30.619  22.553  18.291  0.0853  0.0921  0.2661
40376W        W83314  27.758  22.794  17.198 -0.2445 -0.2257  0.2054
40377W        W83315  31.894  25.385  18.140 -0.0572  0.1260  0.1565
40378W        W83316  29.127  24.913  17.036  0.1691 -0.0756 -0.0132
40379W        W83317  30.732  24.328  18.540  0.0393 -0.0362 -0.0269
40380W        W83318  31.272  23.498  17.285 -0.0058 -0.3458 -0.1052
40381W        W83319  31.931  22.690  18.134  0.3496 -0.0401 -0.0255
40382W        W83320  28.695  22.745  20.173  0.3115  0.0844 -0.2637
40383W        W83321  31.930  24.715  21.124  0.0028  0.0751  0.2128
40384W        W83322  29.088  24.083  17.467 -0.0698 -0.1677 -0.0411
40385W        W83323  29.090  25.524  18.706  0.1278 -0.5066  0.3742
40386W        W83324  31.112  22.056  16.707  0.1365  0.1569  0.2526
40387W        W83325  32.308  22.438  16.156 -0.2453 -0.3417  0.1653
40388W        W83326  31.334  24.801  19.170  0.0396 -0.1295  0.0517
40389W        W83327  32.536  24.323  16.911 -0.2826  0.0435  0.2842
40390W        W83328  30.777  21.760  18.136 -0.2527  0.0679 -0.1753
40391W        W83329  32.230  22.119  17.059 -0.0183 -0.0947 -0.1848
40392W        W83330  29.272  23.661  19.314  0.0504 -0.2220 -0.0794
40393W        W83331  31.021  23.878  16.524 -0.1273  0.0608  0.2172
40394W        W83332  31.871  25.150  18.578  0.2835  0.1999  0.0275
40395W        W83333  31.664  21.972  16.853 -0.2062 -0.1618  0.0969
40396W        W83334  31.226  23.635  17.754  0.0430  0.0630  0.3288
40397W        W83335  29.239  24.208  18.596 -0.0474  0.1348 -0.0407
40398W        W83336  29.763  26.061  20.522 -0.2114 -0.0088 -0.1983
40399W        W83337  32.017  24.879  17.336  0.1483 -0.2075  0.0651
40400W        W83338  30.740  21.974  19.411  0.1120 -0.2554 -0.2209
40401W        W83339  30.747  24.089  17.668 -0.1437 -0.1162 -0.0203
40402W        W83340  30.582  22.204  17.540  0.1441  0.2821  0.3302
40403W        W83341  28.464  24.903  16.601  0.1939  0.2599 -0.0472
40404W        W83342  32.493  23.506  18.919  0.0372 -0.2895  0.0343
40405W        W83343  31.799  22.470  19.134  0.0090 -0.2056 -0.1114
40406W        W83344  31.345  21.782  19.038 -0.1458 -0.1321 -0.1548
40407W        W83345  31.504  24.666  20.874  0.1775  0.0254  0.2290
40408W        W83346  33.580  23.446  16.627  0.2556 -0.2100 -0.0537
40409W        W83347  30.793  24.745  18.175  0.1730  0.0273  0.3102
40410W        W83348  30.701  22.964  16.721  0.1222  0.1202  0.4540
40411W        W83349  30.400  22.609  18.851  0.0805  0.2214  0.2047
40412W        W83350  29.410  24.523  20.057  0.1780  0.2263  0.1955
40413W        W83351  29.983  25.394  17.918 -0.1966 -0.0033 -0.0177
40414W        W83352  30.499  26.077  19.292 -0.1626 -0.3600 -0.0919
40415W        W83353  31.014  22.857  18.120 -0.1135  0.0534 -0.1648
40416W        W83354  30.738  22.563  19.251 -0.3726 -0.1516 -0.0168
40417W        W83355  31.220  22.572  16.470  0.2750  0.0947 -0.0269
40418W        W83356  31.299  24.358  17.165  0.1718  0.1908  0.0528
40419W        W83357  29.360  25.309  16.846 -0.0659 -0.0973  0.2294
40420W        W83358  29.489  22.300  17.248 -0.0632  0.1135 -0.0428
40421W        W83359  31.002  26.183  19.415 -0.0840  0.1814  0.0385
40422W        W83360  29.419  24.455  17.075 -0.2877  0.1697 -0.1508
40423W        W83361  31.527  25.201  19.653  0.0132  0.1500 -0.2312
40424W        W83362  30.029  25.842  18.552 -0.4831  0.0077  0.0377
40425W        W83363  31.370  22.362  18.209 -0.4412  0.1395 -0.3084
40426W        W83364  30.095  24.847  18.099  0.1651  0.3902 -0.2221
40427W        W83365  30.202  22.645  16.114 -0.1834 -0.3569  0.2310
40428W        W83366  29.057  23.553  18.031  0.2597 -0.0331  0.1822
40429W        W83367  33.111  21.921  18.109 -0.3587 -0.0578  0.0151
40430W        W83368  32.475  23.327  16.418 -0.3075 -0.1647  0.2825
40431W        W83369  29.268  21.704  17.427 -0.0494 -0.3532 -0.1672
40432W        W83370  30.278  22.172  18.466  0.1758  0.2473 -0.2365
40433W        W83371  28.925  24.498  17.813  0.0112 -0.1532  0.0272
40434W        W83372  30.021  22.955  18.892 -0.2042  0.0520  0.1872
40435W        W83373  32.567  21.265  18.034  0.0387 -0.1083  0.1817
40436W        W83374  31.023  25.153  18.431 -0.0683 -0.3434 -0.2400
40437W        W83375  30.649  23.810  19.262  0.0995 -0.1710  0.3090
40438W        W83376  29.763  21.855  17.172  0.0405  0.0958 -0.1049
40439W        W83377  31.962  23.749  19.503  0.1601 -0.0857 -0.1525
40440W        W83378  31.752  23.264  19.368 -0.0186  0.0225  0.0495
40441W        W83379  29.634  25.027  18.188  0.0935 -0.0929 -0.3278
40442W        W83380  32.392  24.651  18.162 -0.4625  0.0518  0.2342
40443W        W83381  30.152  24.014  17.433  0.0432 -0.3859  0.2262
40444W        W83382  30.235  26.398  19.008  0.1507  0.2814 -0.1011
40445W        W83383  30.508  23.039  18.585  0.3244 -0.1335  0.1490
40446W        W83384  30.899  24.693  20.810  0.2451 -0.2673 -0.1460
40447W        W83385  28.997  22.098  17.335  0.0517 -0.2836 -0.4147
40448W        W83386  30.093  22.817  18.369  0.1867  0.1010  0.2908
40449W        W83387  29.788  21.995  18.615 -0.2345  0.1129 -0.0539
40450W        W83388  30.542  25.090  19.003 -0.1363 -0.0403 -0.2964
40451W        W83389  29.671  21.908  17.678 -0.1545  0.2110  0.0911
40452W        W83390  29.411  24.594  18.934 -0.1739  0.3280  0.0163
40453W        W83391  30.918  22.223  18.463 -0.1764  0.0853 -0.1664
40454W        W83392  33.157  27.352  18.565 -0.0258  0.0245  0.0921
40455W        W83393  31.258  24.646  18.427 -0.1366  0.0348 -0.0343
40456W        W83394  30.055  23.738  16.950  0.1770 -0.1261  0.1726
40457W        W83395  28.844  23.202  18.456 -0.0923  0.0070  0.2073
40458W        W83396  30.302  22.545  17.862  0.0194  0.1310 -0.1961
40459W        W83397  31.098  22.252  18.963  0.2708  0.2563  0.3735
40460W        W83398  29.553  25.133  18.759  0.3259  0.1393 -0.2333
40461W        W83399  29.715  24.091  16.891 -0.1517  0.0507  0.1964
40462W        W83400  29.461  24.165  17.875  0.0502  0.3105  0.1333
40463W        W83401  33.172  21.006  17.914 -0.1234 -0.0215  0.1268
40464W        W83402  32.708  24.340  15.982  0.1644 -0.1587 -0.2893
40465W        W83403  31.543  22.493  16.868 -0.0283  0.0771 -0.0063
40466W        W83404  32.880  23.007  20.428 -0.3578 -0.0969 -0.1925
40467W        W83405  31.802  23.755  16.681  0.2973  0.1026 -0.0136
40468W        W83406  32.088  22.108  19.000 -0.1639 -0.0209 -0.1329
40469W        W83407  29.546  22.779  19.824  0.1217  0.2944  0.5073
40470W        W83408  31.553  23.359  16.886  0.0488  0.2441  0.4821
40471W        W83409  29.616  22.822  18.504  0.0105  0.1950  0.1135
40472W        W83410  31.733  25.518  18.856 -0.1355 -0.0562 -0.2288
40473W        W83411  29.276  24.987  19.767  0.1612 -0.1316 -0.0685
40474W        W83412  30.129  22.973  16.583  0.0267 -0.0844  0.0914
40475W        W83413  30.140  22.816  17.079  0.2361  0.0812 -0.3813
40476W        W83414  30.722  22.989  19.832  0.0640 -0.0421 -0.0417
40477W        W83415  32.100  24.250  19.518  0.0414 -0.0673  0.0416
40478W        W83416  30.713  24.304  16.712 -0.0595  0.0430 -0.2573
40479W        W83417  32.407  22.933  17.986 -0.2407  0.1535  0.0887
40480W        W83418  31.276  24.664  19.671 -0.2470 -0.1237 -0.0141
40481W        W83419  32.799  23.933  17.046 -0.0595 -0.0348 -0.0518
40482W        W83420  29.335  24.008  16.242  0.2088  0.0231  0.2034
40483W        W83421  29.913  23.766  18.741  0.1153 -0.2992  0.4848
40484W        W83422  28.815  21.566  20.408  0.2594 -0.1077 -0.1312
40485W        W83423  31.128  24.987  17.811  0.0171  0.2194  0.0409
40486W        W83424  31.742  21.797  17.855  0.1075 -0.1012  0.2917
40487W        W83425  31.896  22.217  18.135 -0.2500 -0.4517 -0.1430
40488W        W83426  31.500  23.522  19.773  0.2689  0.0747 -0.2857
40489W        W83427  31.231  23.097  19.538 -0.0776 -0.0414  0.1192
40490W        W83428  30.590  23.821  19.853  0.0573  0.1862 -0.0815
40491W        W83429  32.093  25.733  18.417  0.1654  0.3172  0.0272
40492W        W83430  34.616  22.242  16.229 -0.2233  0.3348  0.0230
40493W        W83431  32.150  23.995  19.002  0.0793  0.0028  0.0001
40494W        W83432  32.988  23.479  17.298  0.0804  0.1777  0.1711
40495W        W83433  32.696  23.371  16.881  0.1419  0.0610  0.4235
40496W        W83434  28.602  22.935  17.991  0.0199 -0.4473 -0.1067
40497W        W83435  33.052  24.722  19.216  0.1536  0.2700  0.1798
40498W        W83436  30.415  23.159  16.236  0.0751 -0.0248  0.1395
40499W        W83437  32.134  23.392  19.824  0.3661 -0.2888 -0.3405
40500W        W83438  31.620  26.011  16.505  0.1314 -0.6757  0.2361
40501W        W83439  30.695  25.669  19.383  0.1428  0.0411 -0.1332
40502W        W83440  32.709  22.476  17.144  0.1554  0.0486  0.2930
40503W        W83441  30.281  24.145  18.778 -0.2072  0.1051  0.1210
40504W        W83442  28.901  24.449  19.892 -0.1483 -0.0898 -0.4339
40505W        W83443  31.306  21.553  17.601  0.2337  0.1373  0.1747
40506W        W83444  31.628  24.768  16.964  0.0661 -0.0842  0.0682
40507W        W83445  29.277  25.126  20.625 -0.0726  0.1356  0.1218
40508W        W83446  32.655  24.317  20.049 -0.0471 -0.2666 -0.0736
40509W        W83447  31.719  22.533  16.266 -0.0395 -0.1973 -0.0167
40510W        W83448  31.107  23.470  20.118  0.0077 -0.1049 -0.0552
40511W        W83449  28.340  24.273  17.147  0.3962 -0.0211 -0.1374
40512W        W83450  31.425  21.368  18.663 -0.4445  0.3254 -0.0509
40513W        W83451  30.926  25.466  18.889 -0.1630 -0.1537 -0.0357
40514W        W83452  28.351  23.348  19.414  0.0554 -0.0799  0.0099
40515W        W83453  30.388  24.346  17.802  0.1438 -0.1539 -0.0273
40516W        W83454  31.808  22.382  19.725 -0.1331  0.1440 -0.1010
40517W        W83455  31.757  23.657  18.428 -0.0035  0.3547 -0.0585
40518W        W83456  31.209  24.182  19.428  0.1748 -0.2603 -0.0119
40519W        W83457  32.174  24.471  20.752 -0.2618 -0.0497  0.0453
40520W        W83458  30.899  25.194  20.395 -0.1462  0.0273 -0.0242
40521W        W83459  29.817  22.467  18.860 -0.0733  0.0179  0.3818
40522W        W83460  30.499  26.113  18.528  0.6136 -0.1283  0.2622
40523W        W83461  32.640  23.212  17.641  0.0769  0.3404 -0.1173
40524W        W83462  30.458  25.707  18.076 -0.1338 -0.1044  0.0929
40525W        W83463  29.743  23.793  20.573 -0.2574  0.1168  0.2243
40526W        W83464  32.434  23.647  17.300  0.3673  0.2443  0.0680
40527W        W83465  31.531  23.050  18.940 -0.1157 -0.1173  0.0497
40528W        W83466  30.799  22.033  17.132  0.2934 -0.1195  0.2735
40529W        W83467  30.706  24.164  16.157 -0.0708  0.0506 -0.1505
40530W        W83468  27.782  26.078  18.881  0.1571  0.0979 -0.0100
40531W        W83469  28.376  24.364  19.750  0.0107 -0.1646 -0.1923
40532W        W83470  29.707  24.958  17.130  0.0804 -0.2386 -0.0206
40533W        W83471  31.395  23.518  16.418  0.0502  0.1697 -0.2195
40534W        W83472  30.889  24.670  17.081 -0.0749  0.1456 -0.0095
40535W        W83473  31.223  26.023  18.504 -0.0557  0.0788 -0.0638
40536W        W83474  30.101  23.497  16.163 -0.0197  0.0271 -0.0300
40537W        W83475  30.441  25.326  17.631 -0.1517  0.0557  0.2969
40538W        W83476  29.316  24.615  17.552  0.2227 -0.0192 -0.2932
40539W        W83477  32.870  25.072  17.447 -0.1140  0.1740  0.0599
40540W        W83478  30.667  25.119  16.938 -0.1640  0.2631  0.0189
40541W        W83479  30.339  24.293  20.010  0.2229  0.1261 -0.0670
40542W        W83480  32.032  22.140  16.530  0.0269  0.1525  0.0391
40543W        W83481  33.208  25.314  17.695 -0.1470 -0.0139 -0.0225
40544W        W83482  33.191  23.606  16.898  0.1456  0.2088  0.1885
40545W        W83483  32.306  26.167  18.393  0.0234 -0.2988 -0.1598
40546W        W83484  31.070  23.182  18.731 -0.2979  0.1735 -0.0140
40547W        W83485  30.966  22.475  16.871 -0.0476  0.0715  0.1155
40548W        W83486  29.701  23.724  20.080 -0.0726 -0.0500  0.0810
40549W        W83487  31.885  21.566  19.745  0.1238 -0.2093  0.2326
40550W        W83488  27.728  25.626  19.179 -0.2146  0.0776  0.1996
40551W        W83489  33.184  25.152  16.302  0.2712  0.0237  0.2233
40552W        W83490  29.605  22.972  16.590  0.0968 -0.0354  0.2425
40553W        W83491  31.328  22.329  19.366 -0.1380  0.2911  0.1187
40554W        W83492  32.621  22.704  19.445  0.1999 -0.1971 -0.3199
40555W        W83493  32.496  22.883  16.933  0.1273 -0.1258  0.0703
40556W        W83494  30.153  22.408  19.283 -0.1693  0.3721  0.0375
40557W        W83495  30.478  24.825  17.812 -0.1082 -0.2337 -0.0060
40558W        W83496  29.943  25.360  19.547 -0.1769 -0.4003  0.0290
40559W        W83497  30.700  25.870  17.598  0.1785 -0.2219  0.1736
40560W        W83498  28.910  22.535  17.784  0.1383 -0.2163 -0.0312
40561W        W83499  31.793  22.317  17.265  0.0967  0.1325  0.1996
40562W        W83500  30.717  23.404  17.786 -0.0585 -0.1147 -0.1194
40563W        W83501  32.166  21.220  18.600  0.1724 -0.0018 -0.1994
40564W        W83502  30.396  22.948  17.616 -0.0416  0.1840 -0.1592
40565W        W83503  31.765  23.855  17.631 -0.3446 -0.1743 -0.5919
40566W        W83504  29.909  24.147  20.188 -0.0140  0.0357 -0.2590
40567W        W83505  30.268  23.389  19.625  0.2469  0.0078 -0.0923
40568W        W83506  32.086  22.532  16.861  0.1221  0.1070 -0.0763
40569W        W83507  31.236  24.315  18.766  0.0060 -0.0883 -0.1685
40570W        W83508  31.641  24.348  16.813  0.1352 -0.0297 -0.1311
40571W        W83509  32.544  25.357  19.342 -0.4420  0.0165 -0.2152
40572W        W83510  29.597  22.788  17.064 -0.1456 -0.0560 -0.3396
40573W        W83511  31.952  21.821  17.299  0.1898  0.0177  0.0576
40574W        W83512  29.975  23.759  19.242  0.0343  0.2469  0.1461
40575W        W83513  30.799  24.220  19.051 -0.1016  0.0773 -0.1688
40576W        W83514  30.410  25.497  20.194  0.1102 -0.3965 -0.2254
40577W        W83515  29.052  22.365  15.859 -0.0462 -0.0609 -0.2014
40578W        W83516  31.821  22.872  17.104  0.0855 -0.0260  0.2025
40579W        W83517  33.458  23.971  19.197 -0.4028 -0.1583 -0.1380
40580W        W83518  31.060  24.242  18.080  0.0179  0.0019 -0.0450
40581W        W83519  31.524  22.980  18.078  0.1745 -0.0306  0.2443
40582W        W83520  31.588  23.834  19.196 -0.0945 -0.3205  0.2553
40583W        W83521  29.232  22.473  19.538 -0.0776 -0.0901 -0.1638
40584W        W83522  30.929  26.497  18.535 -0.0773 -0.0498  0.2592
40585W        W83523  32.846  25.054  17.968 -0.1584  0.1728  0.1689
40586W        W83524  29.541  22.066  18.185 -0.0449 -0.1278  0.2257
40587W        W83525  29.400  22.389  18.578  0.3202 -0.0928  0.1050
40588W        W83526  30.174  25.129  17.071 -0.0152 -0.1678 -0.0692
40589W        W83527  31.477  23.584  18.794 -0.0665 -0.0617 -0.0551
40590W        W83528  31.072  22.947  20.899  0.0353  0.1323 -0.3431
40591W        W83529  30.189  24.322  16.887  0.1844  0.0830 -0.2522
40592W        W83530  31.056  21.290  19.261  0.0218 -0.1207 -0.2273
40593W        W83531  31.766  24.786  19.450  0.3001 -0.0828  0.0594
40594W        W83532  29.184  25.947  19.493 -0.0333 -0.0091 -0.1923
40595W        W83533  29.411  24.441  16.025  0.1456 -0.0270 -0.0681
40596W        W83534  30.711  23.249  19.378 -0.0098 -0.2380  0.2926
40597W        W83535  30.924  25.618  18.363  0.1279 -0.0053 -0.3027
40598W        W83536  30.386  24.717  17.235 -0.1294  0.2908  0.2384
40599W        W83537  32.825  26.398  17.757  0.2449 -0.0429 -0.0114
40600W        W83538  31.077  21.778  18.571 -0.0062 -0.3793 -0.3160
40601W        W83539  32.051  25.284  17.647 -0.0939 -0.1633  0.2646
40602W        W83540  30.028  21.225  17.900 -0.1947  0.1655  0.0416
40603W        W83541  32.611  22.073  17.393 -0.1139  0.2019  0.1149
40604W        W83542  31.862  20.965  17.643  0.1758  0.1522 -0.0212
40605W        W83543  30.445  25.066  18.517 -0.1975  0.2045  0.2484
40606W        W83544  29.474  23.648  16.656 -0.1922 -0.0048  0.3420
40607W        W83545  29.076  25.249  16.425 -0.1362 -0.1748  0.0644
40608W        W83546  31.355  25.380  19.216  0.2594 -0.0564 -0.0203
40609W        W83547  30.373  24.057  20.488 -0.1136  0.0444 -0.1832
40610W        W83548  28.379  23.216  20.293 -0.3640 -0.1118  0.1944
40611W        W83549  29.868  22.971  19.507  0.0679  0.0749  0.3003
40612W        W83550  29.878  22.547  16.491  0.1314  0.1957 -0.3039
40613W        W83551  31.187  23.439  18.240 -0.0329  0.0388  0.2205
40614W        W83552  29.446  20.730  19.959 -0.2611  0.1232  0.1338
40615W        W83553  28.835  22.262  18.687  0.1040  0.0609  0.1844
40616W        W83554  30.986  23.986  17.072  0.2105 -0.2267 -0.1687
40617W        W83555  33.459  25.877  18.973 -0.1339  0.0707  0.0778
40618W        W83556  31.277  22.992  16.741 -0.0732 -0.3083  0.1534
40619W        W83557  32.323  24.650  20.278  0.0328 -0.0855 -0.1935
40620W        W83558  28.642  24.447  16.798 -0.0412  0.3108  0.1241
40621W        W83559  30.380  22.836  19.420  0.2091 -0.1695  0.1097
40622W        W83560  30.540  23.211  20.666  0.1271  0.0543  0.0390
40623W        W83561  28.368  22.318  16.402  0.1493 -0.1162 -0.1353
40624W        W83562  31.560  24.094  18.164  0.2360  0.1852  0.2379
40625W        W83563  30.435  24.063  18.233 -0.0683 -0.0592 -0.1467
40626W        W83564  32.113  25.443  17.124 -0.1704  0.0432  0.0733
40627W        W83565  30.084  24.257  19.267  0.1872  0.0887 -0.1100
40628W        W83566  29.373  25.487  21.000  0.2116  0.0455 -0.0088
40629W        W83567  28.292  21.831  19.803  0.0419 -0.1918 -0.5077
40630W        W83568  31.237  23.876  18.469  0.2680  0.1539  0.2496
40631W        W83569  30.149  23.656  20.075  0.1091  0.0078  0.0379
40632W        W83570  32.387  23.842  16.751 -0.0519 -0.0798  0.1004
40633W        W83571  32.999  22.360  18.281 -0.0140  0.0431 -0.2793
40634W        W83572  33.245  23.117  17.637  0.2043  0.1491  0.2064
40635W        W83573  29.791  21.227  19.877 -0.1338 -0.1430 -0.1104
40636W        W83574  29.987  22.526  19.876 -0.1460  0.0427 -0.0205
40637W        W83575  31.684  23.501  17.916  0.1790  0.2687 -0.0718
40638W        W83576  29.916  22.418  18.214  0.0385 -0.0439 -0.0589
40639W        W83577  31.245  21.874  18.083  0.2025 -0.0214 -0.1775
40640W        W83578  30.171  24.432  16.351 -0.0354 -0.0650  0.1007
40641W        W83579  29.759  24.440  18.251 -0.3170  0.1359 -0.3563
40642W        W83580  31.025  21.985  17.603  0.1734  0.1295 -0.0405
40643W        W83581  31.277  23.950  19.876  0.0034 -0.3999  0.2547
40644W        W83582  30.699  23.778  18.644  0.1358 -0.2364 -0.2161
40645W        W83583  30.810  24.687  20.211  0.2779  0.0017  0.3365
40646W        W83584  31.603  23.131  17.487  0.3701  0.3310 -0.0916
40647W        W83585  33.197  24.138  16.888  0.1231 -0.1400 -0.0152
40648W        W83586  31.665  25.829  19.270 -0.0826  0.0617  0.0795
40649W        W83587  31.330  25.429  20.250 -0.1688  0.1111  0.1140
40650W        W83588  30.529  24.474  19.495  0.1786  0.1166 -0.1500
40651W        W83589  32.011  23.173  18.059 -0.1454 -0.0078 -0.4265
40652W        W83590  29.206  21.827  20.167  0.2461 -0.1079  0.1370
40653W        W83591  29.324  25.382  17.350 -0.2547 -0.2024 -0.1655
40654W        W83592  31.395  22.680  17.687 -0.1956 -0.2576  0.1468
40655W        W83593  32.059  24.463  19.006  0.0951  0.1843  0.1381
40656W        W83594  29.972  21.509  17.491  0.2150  0.0041  0.0941
40657W        W83595  30.672  21.706  16.730 -0.0465  0.0875  0.0809
40658W        W83596  29.869  24.817  19.842 -0.0041 -0.5496  0.0031
40659W        W83597  30.880  24.762  18.712 -0.0676 -0.1182 -0.1508
40660W        W83598  30.095  25.048  23.396  0.1206  0.0450 -0.1422
40661W        W83599  30.192  24.002  21.957 -0.1828 -0.1974 -0.0573
40662W        W83600  33.535  23.294  20.838 -0.4773  0.0971 -0.0914
40663W        W83601  31.825  23.786  20.617 -0.3140  0.3304  0.0501
40664W        W83602  29.406  23.940  19.732  0.3812  0.0453  0.0705
40665W        W83603  29.931  25.986  21.975  0.0729  0.0033  0.1023
40666W        W83604  30.565  22.331  24.016 -0.0508 -0.1161 -0.0062
40667W        W83605  31.935  26.064  23.617 -0.0829 -0.0432  0.1188
40668W        W83606  31.856  25.194  22.049  0.1578  0.0050  0.0327
40669W        W83607  29.053  24.730  21.687 -0.2481  0.0502  0.0471
40670W        W83608  31.434  23.978  22.269 -0.0361  0.1722  0.1094
40671W        W83609  29.440  25.665  23.697  0.0720 -0.3616  0.2727
40672W        W83610  31.116  22.330  21.275  0.2017  0.0041 -0.1071
40673W        W83611  30.780  23.216  21.110 -0.0123  0.1866 -0.3615
40674W        W83612  30.464  24.874  22.940 -0.2665  0.2577 -0.3043
40675W        W83613  28.631  23.476  21.066 -0.2739 -0.2405 -0.1966
40676W        W83614  29.192  24.941  23.550 -0.0731  0.4216 -0.0230
40677W        W83615  31.355  23.852  20.371 -0.1717  0.0095 -0.1945
40678W        W83616  30.290  24.588  21.441  0.0865 -0.2013 -0.2631
40679W        W83617  30.960  22.286  23.346  0.1120 -0.1223 -0.4113
40680W        W83618  31.629  23.005  23.515 -0.1476  0.0189  0.0974
40681W        W83619  30.582  23.786  22.397  0.0316 -0.0446  0.1200
40682W        W83620  29.050  23.906  20.761 -0.0255 -0.2871 -0.2108
40683W        W83621  29.068  21.988  23.145 -0.0389 -0.2140  0.0398
40684W        W83622  29.374  23.665  23.289  0.2126  0.1969 -0.1402
40685W        W83623  31.740  24.776  22.424 -0.0124  0.1214  0.3046
40686W        W83624  31.326  23.086  22.020  0.0869  0.1948 -0.0446
40687W        W83625  29.926  26.528  21.910 -0.1246  0.4446  0.2100
40688W        W83626  30.227  26.429  22.828 -0.0830 -0.0536  0.0097
40689W        W83627  31.789  22.448  24.349 -0.1323 -0.1968  0.1273
40690W        W83628  29.723  23.798  22.440  0.0778  0.2634 -0.2855
40691W        W83629  28.491  25.358  20.066  0.0360  0.0843 -0.0007
40692W        W83630  29.617  24.908  20.305 -0.0254 -0.1634 -0.3832
40693W        W83631  32.472  24.257  21.299  0.0930 -0.0308  0.2517
40694W        W83632  30.712  26.469  23.617 -0.1293 -0.1230 -0.0634
40695W        W83633  29.498  25.822  23.099 -0.2053 -0.0097 -0.1565
40696W        W83634  29.332  25.874  19.032  0.1220  0.1586  0.1644
40697W        W83635  30.896  26.193  23.250 -0.1615  0.0714  0.0221
40698W        W83636  29.951  24.004  23.805  0.2135  0.0425 -0.0269
40699W        W83637  30.772  24.308  23.191 -0.2636  0.0371 -0.3024
40700W        W83638  30.003  23.944  20.986  0.0537  0.0433 -0.2345
40701W        W83639  28.890  23.887  21.255 -0.1013  0.0456  0.1334
40702W        W83640  31.115  24.682  21.736  0.1578 -0.0318  0.0196
40703W        W83641  29.502  24.956  23.148  0.0584  0.0781 -0.1024
40704W        W83642  29.158  24.571  23.911  0.0597  0.1553  0.0877
40705W        W83643  32.774  23.520  22.991 -0.3511  0.2952  0.0823
40706W        W83644  29.813  24.379  19.713 -0.2005  0.2438 -0.1012
40707W        W83645  32.475  24.137  18.027 -0.1807  0.1383  0.2880
40708W        W83646  29.140  22.246  22.407 -0.0510 -0.1317  0.0524
40709W        W83647  31.942  23.146  20.845  0.2368  0.2800  0.0133
40710W        W83648  32.109  21.675  22.111 -0.0377 -0.0367  0.1165
40711W        W83649  29.465  25.987  22.645 -0.2148  0.2194 -0.2042
40712W        W83650  30.984  23.583  23.057  0.0419  0.0644  0.0300
40713W        W83651  31.654  25.093  23.670  0.2523 -0.0735  0.2678
40714W        W83652  30.768  25.274  21.013 -0.0152  0.3363 -0.2773
40715W        W83653  31.031  24.633  23.519  0.0687  0.1113 -0.0250
40716W        W83654  29.675  26.727  23.722  0.0204  0.3868 -0.1085
40717W        W83655  28.877  24.238  21.590 -0.1254 -0.1785  0.2273
40718W        W83656  30.262  24.909  20.128 -0.0332 -0.0978  0.2014
40719W        W83657  32.444  25.151  21.216 -0.2406 -0.1299  0.1159
40720W        W83658  29.500  25.218  19.282  0.0458 -0.1350 -0.3590
40721W        W83659  29.107  24.111  19.218 -0.0541  0.0401  0.0685
40722W        W83660  29.199  24.107  24.307  0.2400 -0.2829 -0.2144
40723W        W83661  29.003  23.652  24.203 -0.3674 -0.1994  0.1165
40724W        W83662  28.904  22.410  21.124  0.0304 -0.0723  0.1319
40725W        W83663  30.980  24.852  22.977 -0.0273 -0.1276 -0.1034
40726W        W83664  28.673  23.968  24.417  0.1204  0.0689  0.0709
40727W        W83665  33.033  23.331  21.505 -0.0331 -0.1972 -0.1472
40728W        W83666  29.973  24.374  23.466 -0.2249 -0.2046 -0.3701
40729W        W83667  31.965  24.823  23.314 -0.2256  0.1825 -0.0662
40730W        W83668  29.533  24.829  21.549 -0.2542 -0.1003 -0.1216
40731W        W83669  31.942  22.032  22.416  0.2110 -0.2242  0.1784
40732W        W83670  32.369  23.430  22.676  0.1619  0.0648  0.3015
40733W        W83671  30.414  24.573  20.505 -0.1617  0.0377  0.2041
40734W        W83672  30.896  24.299  19.839  0.0382 -0.2400 -0.0728
40735W        W83673  31.027  25.904  23.688  0.0896 -0.2841  0.0429
40736W        W83674  31.107  23.866  18.972 -0.1074 -0.0899  0.0001
40737W        W83675  28.919  25.039  24.010  0.2780 -0.0699 -0.2240
40738W        W83676  29.563  24.285  24.023  0.1306 -0.0265 -0.0154
40739W        W83677  31.442  23.724  25.146 -0.3060 -0.0170 -0.2840
40740W        W83678  28.992  25.883  19.984  0.1024  0.0801  0.0129
40741W        W83679  28.418  24.511  22.380  0.3292  0.2079  0.1133
40742W        W83680  29.648  24.742  22.143  0.0467  0.2743 -0.0695
40743W        W83681  29.451  23.159  23.368  0.0155  0.2442  0.2104
40744W        W83682  29.935  24.662  23.057  0.1513 -0.0111  0.0057
40745W        W83683  32.488  23.262  19.448  0.0534 -0.3129 -0.0460
40746W        W83684  30.115  22.361  23.660  0.0652  0.0927  0.0539
40747W        W83685  31.503  22.654  21.354  0.0231 -0.0446  0.3454
40748W        W83686  28.894  24.524  20.956 -0.2584  0.0521  0.0388
40749W        W83687  30.900  25.785  20.246  0.0673 -0.0071 -0.4512
40750W        W83688  33.285  23.786  19.680 -0.0322 -0.1579  0.2697
40751W        W83689  31.470  25.087  21.319 -0.0991 -0.0617  0.1338
40752W        W83690  29.859  23.772  23.374  0.1005  0.1796 -0.3697
40753W        W83691  30.375  23.120  21.414  0.5205 -0.0069  0.0255
40754W        W83692  28.935  21.856  24.808  0.0337 -0.3476  0.1986
40755W        W83693  30.634  23.949  21.675 -0.1752  0.1102  0.3620
40756W        W83694  31.770  24.595  25.252  0.3378 -0.2111  0.0812
40757W        W83695  29.344  22.531  21.833 -0.0621  0.1089  0.1937
40758W        W83696  31.017  24.116  22.649 -0.3366 -0.0430 -0.2593
40759W        W83697  29.596  24.872  22.619  0.1926  0.2205  0.1363
40760W        W83698  28.540  24.547  21.395 -0.1431 -0.0209 -0.0922
40761W        W83699  31.687  24.286  23.261 -0.0377 -0.0771  0.0025
40762W        W83700  30.452  26.411  21.208 -0.1882  0.0783  0.0689
40763W        W83701  33.241  26.073  21.750  0.0007 -0.0294  0.0368
40764W        W83702  30.138  23.426  22.604  0.1409 -0.3402  0.1993
40765W        W83703  30.672  22.709  23.595 -0.1392  0.1471 -0.2136
40766W        W83704  30.670  22.325  21.799  0.0232 -0.0411 -0.1528
40767W        W83705  29.473  25.432  22.725  0.1723  0.0826  0.3260
40768W        W83706  29.782  25.441  23.248  0.0624 -0.1083  0.2172
40769W        W83707  30.596  23.589  20.305  0.3493 -0.3468 -0.0523
40770W        W83708  32.489  24.404  22.541 -0.0497 -0.2442  0.1750
40771W        W83709  30.753  24.931  19.771 -0.0974 -0.1081  0.2990
40772W        W83710  30.206  23.895  24.221 -0.0371  0.2473  0.1474
40773W        W83711  31.922  21.755  23.027  0.1586  0.1043 -0.2664
40774W        W83712  32.110  24.266  23.610  0.1621  0.0752  0.0527
40775W        W83713  31.618  23.433  22.364  0.1054  0.1362  0.0807
40776W        W83714  29.282  21.694  20.687  0.0294  0.2933 -0.1608
40777W        W83715  30.971  26.256  22.167 -0.3675  0.0651 -0.1139
40778W        W83716  28.723  26.299  20.195  0.0378 -0.1318 -0.0052
40779W        W83717  28.574  25.147  21.996  0.2815 -0.2059 -0.1455
40780W        W83718  29.741  25.419  20.563 -0.0997  0.0744  0.1258
40781W        W83719  31.638  22.925  22.373  0.0905 -0.2448  0.2298
40782W        W83720  28.408  24.379  24.482 -0.0789  0.0114  0.1905
40783W        W83721  31.468  23.448  23.296  0.0944  0.1924  0.1657
40784W        W83722  28.347  22.957  19.830 -0.0049  0.2398 -0.0811
40785W        W83723  29.050  25.692  22.694 -0.2447  0.0576  0.0062
40786W        W83724  30.997  23.653  21.554  0.0511 -0.0192  0.1405
40787W        W83725  32.200  24.123  20.429 -0.0086  0.0169 -0.1075
40788W        W83726  30.130  23.454  24.587  0.3907  0.0619  0.0664
40789W        W83727  31.854  24.781  20.456 -0.3585 -0.0329  0.2730
40790W        W83728  32.982  23.944  20.050 -0.0366 -0.1430 -0.0123
40791W        W83729  31.589  21.057  20.873  0.2352 -0.1344 -0.1329
40792W        W83730  29.049  24.602  25.583 -0.1532 -0.3118 -0.0211
40793W        W83731  30.025  25.126  22.921  0.2109 -0.0232  0.0963
40794W        W83732  30.113  25.599  22.858  0.0559 -0.0552  0.3321
40795W        W83733  31.185  22.792  19.128  0.1453  0.1751 -0.0415
40796W        W83734  31.017  25.647  21.318 -0.0475 -0.0285  0.1149
40797W        W83735  27.915  24.342  23.242 -0.3966 -0.1161 -0.0369
40798W        W83736  31.034  23.427  24.711  0.2653  0.3323  0.2932
40799W        W83737  30.244  25.460  21.795 -0.1341  0.2356 -0.1454
40800W        W83738  31.906  21.227  23.429  0.0088  0.0240  0.1932
40801W        W83739  30.174  22.530  20.384 -0.0838 -0.0582 -0.1006
40802W        W83740  31.305  22.833  20.486  0.1802 -0.2978  0.0622
40803W        W83741  29.763  24.596  17.752 -0.0892 -0.2127 -0.0957
40804W        W83742  32.480  22.268  23.225  0.0400  0.1451  0.1526
40805W        W83743  31.052  21.218  22.718  0.0092 -0.1763 -0.1569
40806W        W83744  32.082  23.385  23.056  0.1483 -0.1704 -0.0230
40807W        W83745  32.509  22.861  25.082  0.0069  0.2316  0.2828
40808W        W83746  30.697  24.415  21.229 -0.0201 -0.1289  0.1502
40809W        W83747  31.435  25.519  22.642 -0.1060  0.0888 -0.0899
40810W        W83748  29.082  22.914  19.811  0.2480 -0.0616 -0.0845
40811W        W83749  31.815  22.331  23.811 -0.2360 -0.0988 -0.4711
40812W        W83750  29.861  25.784  23.898  0.2400  0.1207  0.1135
40813W        W83751  29.258  26.212  24.366 -0.2136  0.0088  0.1278
40814W        W83752  31.314  26.262  23.867  0.3016  0.1919  0.0368
40815W        W83753  30.440  25.479  21.357 -0.1172 -0.0300 -0.4669
40816W        W83754  32.082  23.014  22.523 -0.0860  0.1545 -0.0015
40817W        W83755  31.704  23.469  20.239 -0.1262  0.3127  0.1781
40818W        W83756  29.728  25.560  18.939 -0.1961 -0.2450 -0.0130
40819W        W83757  29.453  24.154  20.875 -0.2667  0.0223 -0.0361
40820W        W83758  31.683  22.411  22.056  0.0609 -0.2102  0.0399
40821W        W83759  30.026  23.785  22.927 -0.0954 -0.0935 -0.1507
40822W        W83760  30.384  25.315  19.749  0.1246  0.2902  0.2693
40823W        W83761  31.604  25.242  24.591 -0.0790  0.0377 -0.0564
40824W        W83762  28.754  25.243  20.450 -0.1731 -0.0932 -0.0579
40825W        W83763  32.900  20.981  21.120 -0.3490 -0.2670 -0.0020
40826W        W83764  28.242  26.049  21.351 -0.2030  0.2366  0.0041
40827W        W83765  29.326  23.592  20.517  0.1765 -0.1916 -0.2316
40828W        W83766  27.680  24.009  21.939 -0.0990  0.1793 -0.1973
40829W        W83767  32.220  24.037  20.958  0.1713 -0.1517 -0.0799
40830W        W83768  32.368  24.617  21.948 -0.0346 -0.0996  0.2061
40831W        W83769  30.144  23.378  23.234  0.0789 -0.0940 -0.2959
40832W        W83770  30.158  22.199  23.167  0.0950  0.2335  0.0142
40833W        W83771  28.058  24.970  22.153  0.0261 -0.2575 -0.0557
40834W        W83772  32.437  25.089  22.175 -0.2713  0.0150 -0.0408
40835W        W83773  32.281  23.514  20.753 -0.1780 -0.0516  0.1226
40836W        W83774  30.534  25.036  22.467 -0.0346  0.2495  0.3835
40837W        W83775  31.197  25.267  23.174  0.0566  0.1003 -0.0258
40838W        W83776  29.295  23.942  21.507  0.1365  0.2307 -0.0630
40839W        W83777  32.691  23.850  22.660  0.1943 -0.1956  0.0235
40840W        W83778  30.823  23.045  21.772 -0.2789  0.0450  0.1508
40841W        W83779  29.044  25.356  22.317  0.2798 -0.0755 -0.0602
40842W        W83780  30.985  25.257  22.697  0.1317  0.0428  0.0138
40843W        W83781  29.102  23.071  21.816  0.2059  0.1167  0.2713
40844W        W83782  29.032  24.965  22.746 -0.0498  0.2548  0.0555
40845W        W83783  30.348  21.407  23.745  0.3373  0.0384  0.0022
40846W        W83784  31.092  24.301  22.132  0.1281  0.1352  0.1518
40847W        W83785  31.252  23.105  22.623  0.1121  0.3766 -0.1903
40848W        W83786  29.668  23.251  20.833 -0.1689  0.4045  0.1681
40849W        W83787  30.008  24.440  24.224  0.2115 -0.0681  0.1224
40850W        W83788  31.283  25.184  24.122 -0.0058  0.1367 -0.3238
40851W        W83789  30.965  23.825  22.068 -0.0857 -0.1464  0.0047
40852W        W83790  29.083  25.281  23.127  0.0823  0.2589  0.0396
40853W        W83791  31.285  24.236  23.602 -0.2107 -0.0210  0.5358
40854W        W83792  33.344  26.397  20.965 -0.0126 -0.2093 -0.0102
40855W        W83793  31.127  23.692  23.611 -0.1814  0.2001 -0.1663
40856W        W83794  29.698  25.103  21.060  0.3754  0.0216 -0.0252
40857W        W83795  30.522  24.650  23.497 -0.0366 -0.1278 -0.2422
40858W        W83796  30.656  24.439  21.742 -0.2190  0.1059  0.0663
40859W        W83797  31.578  24.129  21.787 -0.1327  0.0431  0.3084
40860W        W83798  28.631  24.088  23.485  0.0307 -0.2178 -0.0888
40861W        W83799  28.821  24.243  22.298  0.0600 -0.0424 -0.0427
40862W        W83800  28.007  25.843  23.698 -0.3276 -0.0581  0.0977
40863W        W83801  31.664  23.210  21.317 -0.5354  0.1935  0.2727
40864W        W83802  30.168  25.088  21.423 -0.0472 -0.2231 -0.2684
40865W        W83803  30.184  24.075  21.425 -0.3819 -0.0542  0.1165
40866W        W83804  32.453  23.144  23.464  0.2407 -0.0932  0.2119
40867W        W83805  31.808  25.627  20.696  0.3618 -0.0863  0.0356
40868W        W83806  32.460  21.970  22.311 -0.3129 -0.0815 -0.0759
40869W        W83807  31.710  22.756  23.952 -0.2317  0.0088  0.2062
40870W        W83808  31.582  24.602  21.985 -0.0463 -0.0820 -0.0197
40871W        W83809  28.613  23.020  21.945 -0.3345 -0.2075  0.0125
40872W        W83810  31.780  26.384  24.508  0.2695 -0.1366  0.1475
40873W        W83811  30.433  23.161  23.730  0.4197 -0.0565  0.0303
40874W        W83812  30.068  22.950  20.739 -0.0909 -0.0622  0.0197
40875W        W83813  30.201  20.889  21.729 -0.3411 -0.1792 -0.0343
40876W        W83814  30.333  24.378  23.035  0.0589 -0.0849  0.1142
40877W        W83815  30.835  25.348  22.179 -0.0819  0.2031 -0.0189
40878W        W83816  31.203  24.252  21.055  0.0589  0.2120  0.0705
40879W        W83817  32.915  23.868  21.414 -0.0710 -0.1984  0.1683
40880W        W83818  29.441  24.428  23.097 -0.0483 -0.0853 -0.1700
40881W        W83819  32.941  25.361  22.223 -0.1158 -0.2725 -0.1930
40882W        W83820  31.305  24.398  20.110  0.1123 -0.0558  0.1024
40883W        W83821  29.587  22.684  21.414 -0.0307 -0.0800 -0.2825
40884W        W83822  30.331  21.467  24.886  0.0851 -0.2695  0.0444
40885W        W83823  32.473  23.599  21.648 -0.1598 -0.0324 -0.0494
40886W        W83824  31.081  23.564  22.524 -0.1461 -0.4857 -0.0603
40887W        W83825  30.604  23.955  22.887  0.3681 -0.3182 -0.0259
40888W        W83826  32.682  22.827  23.861 -0.3580  0.2345  0.4895
40889W        W83827  31.049  23.155  23.498 -0.5222  0.0109 -0.1310
40890W        W83828  28.320  24.024  24.062  0.1581 -0.1622  0.1078
40891W        W83829  31.313  27.329  22.894  0.0441  0.1247  0.0355
40892W        W83830  33.006  23.499  20.380 -0.1153  0.0008  0.0093
40893W        W83831  31.236  24.425  23.087  0.3843 -0.0476 -0.0160
40894W        W83832  31.856  22.967  19.881  0.1586  0.2455  0.0832
40895W        W83833  32.617  24.935  19.581 -0.2970 -0.1165 -0.1866
40896W        W83834  29.884  23.402  24.109  0.1326  0.1959 -0.0206
40897W        W83835  31.533  24.856  25.702  0.0245 -0.1345 -0.3072
40898W        W83836  30.322  23.051  22.357 -0.0825  0.0140  0.0698
40899W        W83837  32.452  23.452  23.959  0.2099 -0.0986  0.3241
40900W        W83838  29.544  25.681  21.837  0.0165 -0.0114 -0.1515
40901W        W83839  30.819  24.766  22.151  0.3635  0.2368  0.0007
40902W        W83840  31.906  23.802  22.043  0.2087  0.0274 -0.1877
40903W        W83841  28.805  23.023  21.205 -0.2322  0.4107 -0.3035
40904W        W83842  28.539  24.313  22.920  0.0410  0.6510  0.0678
40905W        W83843  28.958  24.046  20.170  0.2401  0.3496 -0.0059
40906W        W83844  30.835  24.015  20.307  0.0047 -0.1470 -0.2719
40907W        W83845  30.860  25.443  23.761  0.0157  0.0790 -0.0403
40908W        W83846  32.376  24.224  25.093 -0.3257  0.0691  0.2181
40909W        W83847  32.067  23.439  21.232 -0.0029  0.0247 -0.2142
40910W        W83848  32.083  23.492  24.484  0.0340 -0.0365 -0.2489
40911W        W83849  28.729  25.589  21.898 -0.0198 -0.0538  0.4088
40912W        W83850  32.279  22.019  22.802  0.1044  0.2505 -0.0449
40913W        W83851  28.112  25.624  23.217  0.1089  0.2976  0.0072
40914W        W83852  28.906  24.823  22.184  0.0229  0.0998 -0.0403
40915W        W83853  29.500  25.231  22.217  0.1337 -0.2361 -0.3498
40916W        W83854  31.303  21.684  23.774 -0.3067 -0.3051 -0.1047
40917W        W83855  32.785  24.296  21.760 -0.0746 -0.0195 -0.3754
40918W        W83856  31.504  24.471  21.431  0.1551 -0.2950 -0.2716
40919W        W83857  32.369  25.145  23.628  0.0394 -0.0907  0.1680
40920W        W83858  31.914  25.534  23.630  0.2004  0.1564  0.0894
40921W        W83859  30.049  23.522  21.914  0.0032 -0.1280  0.3164
40922W        W83860  31.362  27.130  23.412  0.1198  0.2369 -0.0743
40923W        W83861  31.344  23.570  21.924 -0.0562 -0.2868 -0.0454
40924W        W83862  28.532  24.973  22.605 -0.0349 -0.1108 -0.2364
40925W        W83863  28.409  23.597  24.334  0.0289 -0.1643  0.0968
40926W        W83864  30.406  24.035  23.386 -0.0930  0.0515 -0.0255
40927W        W83865  30.693  24.533  22.662  0.0830  0.2393 -0.0174
40928W        W83866  31.124  22.640  22.299 -0.1185 -0.0254 -0.0010
40929W        W83867  30.226  24.779  22.008  0.1889 -0.3606  0.2732
40930W        W83868  30.137  25.270  24.661  0.1975 -0.1072  0.1112
40931W        W83869  28.789  23.881  22.924  0.0802 -0.1438 -0.1409
40932W        W83870  30.093  24.682  22.593 -0.2906  0.2457  0.2020
40933W        W83871  30.317  24.302  20.965 -0.0855  0.2928 -0.0080
40934W        W83872  30.421  24.824  20.979  0.2547  0.1602 -0.2317
40935W        W83873  31.139  25.846  23.016  0.1372  0.3682 -0.0281
40936W        W83874  29.481  22.356  21.058  0.3968 -0.1064 -0.0894
40937W        W83875  29.109  26.026  21.754 -0.1514  0.4391  0.0631
40938W        W83876  27.726  24.876  19.825  0.4414 -0.1079  0.1444
40939W        W83877  30.842  25.416  19.923 -0.1809 -0.3517 -0.3216
40940W        W83878  29.274  24.526  22.350 -0.1083 -0.1222  0.0660
40941W        W83879  31.992  25.758  23.161 -0.0816  0.1612 -0.4978
40942W        W83880  32.468  22.930  20.016 -0.1165 -0.1190  0.0711
40943W        W83881  32.031  24.244  22.754 -0.1515 -0.0266  0.1057
40944W        W83882  32.408  22.953  20.990  0.2208  0.4476 -0.1651
40945W        W83883  31.154  23.967  24.697  0.4288  0.0216 -0.3282
40946W        W83884  29.202  23.508  21.293 -0.1740  0.0551  0.2025
40947W        W83885  30.330  23.509  18.884  0.3181 -0.0972 -0.2905
40948W        W83886  29.320  23.261  24.289 -0.0951  0.1488 -0.1152
40949W        W83887  33.482  22.322  23.008  0.1020 -0.0187 -0.0989
40950W        W83888  29.235  25.000  24.592  0.1794  0.0499  0.2414
40951W        W83889  30.231  25.627  19.180 -0.1857 -0.3244 -0.1163
40952W        W83890  29.903  24.590  21.152 -0.1012 -0.1613  0.0249
40953W        W83891  31.151  22.989  21.409 -0.3377 -0.0531 -0.0836
40954W        W83892  32.232  23.368  22.116 -0.1212 -0.5010 -0.1658
40955W        W83893  31.631  24.325  19.708 -0.2255 -0.2081 -0.1241
40956W        W83894  30.852  23.190  22.289  0.3102 -0.0536  0.0043
40957W        W83895  29.095  26.659  20.589 -0.1225 -0.0899  0.1912
40958W        W83896  29.863  25.170  21.833  0.0148  0.2540 -0.2116
40959W        W83897  30.831  26.577  21.513  0.2873 -0.2259  0.0624
40960W        W83898  29.554  23.225  20.325 -0.1110  0.0990 -0.0230
40961W        W83899  32.300  24.071  21.801 -0.2673  0.1918  0.0721
40962W        W83900  30.922  22.706  24.075 -0.0333 -0.0666 -0.0505
40963W        W83901  31.971  23.779  22.590 -0.0166 -0.2585 -0.0749
40964W        W83902  30.148  24.159  22.569  0.2052 -0.1554 -0.2210
40965W        W83903  32.869  24.811  21.918 -0.3842  0.0534  0.0898
40966W        W83904  31.398  24.871  23.281 -0.2089  0.3520  0.1136
40967W        W83905  29.800  22.291  21.950  0.3963 -0.2878 -0.1311
40968W        W83906  29.937  23.005  21.208 -0.2767  0.2189  0.0496
40969W        W83907  32.542  24.617  23.567 -0.0099  0.0389  0.1954
40970W        W83908  31.073  24.197  21.568 -0.0747  0.0734 -0.0391
40971W        W83909  31.397  26.623  24.247  0.0391 -0.0205  0.0172
40972W        W83910  29.790  22.889  23.108  0.3648 -0.1605  0.0028
40973W        W83911  31.456  23.914  21.330  0.0147 -0.2426 -0.2127
40974W        W83912  28.329  24.485  20.917 -0.4113  0.0647  0.1256
40975W        W83913  29.552  23.665  24.365 -0.0381 -0.1591 -0.1676
40976W        W83914  31.555  25.020  25.087  0.0206 -0.0855  0.1721
40977W        W83915  30.187  22.488  21.718  0.3192 -0.1969  0.2736
40978W        W83916  31.932  23.849  21.493  0.0287  0.2197 -0.2419
40979W        W83917  31.702  24.617  23.634  0.2363 -0.0082  0.1995
40980W        W83918  29.522  26.008  19.827 -0.1641 -0.0127  0.1644
40981W        W83919  31.193  24.249  20.572 -0.1554  0.1923 -0.2617
40982W        W83920  32.128  24.972  20.813 -0.1768 -0.1244 -0.1473
40983W        W83921  30.395  24.295  23.897 -0.0899  0.0902  0.1413
40984W        W83922  31.426  25.963  23.435  0.4850 -0.1852  0.0519
40985W        W83923  31.798  26.348  24.015 -0.0685 -0.0920 -0.2379
40986W        W83924  30.677  22.598  21.316 -0.0208 -0.4250 -0.1434
40987W        W83925  30.599  23.389  22.823  0.0944  0.1277  0.2088
40988W        W83926  28.503  24.824  20.364 -0.1515  0.1593 -0.0336
40989W        W83927  32.882  24.065  22.266  0.1196 -0.0721 -0.1500
40990W        W83928  33.763  22.802  23.624 -0.0688  0.0960  0.1460
40991W        W83929  30.761  26.868  21.091  0.2652  0.0914 -0.1197
40992W        W83930  32.058  22.907  22.062  0.0051  0.1732  0.3351
40993W        W83931  30.765  27.459  22.964 -0.1193 -0.2395 -0.0366
40994W        W83932  28.625  25.475  23.224  0.1964  0.1570  0.0299
40995W        W83933  30.023  24.870  20.655 -0.0231  0.3004 -0.1420
40996W        W83934  31.430  25.035  22.742 -0.2877  0.0805  0.3177
40997W        W83935  30.490  24.366  22.167  0.1299  0.0713 -0.3628
40998W        W83936  29.103  25.242  21.852 -0.1614 -0.0117  0.0517
40999W        W83937  30.980  25.772  22.415  0.0701  0.2638 -0.0583
41000W        W83938  30.726  23.914  21.158 -0.0327 -0.1200  0.1485
41001W        W83939  32.330  24.695  21.375 -0.0519 -0.0265  0.1535
41002W        W83940  31.678  22.882  21.726 -0.1404 -0.2126  0.2052
41003W        W83941  33.822  22.841  21.016  0.0345  0.1170  0.0602
41004W        W83942  31.793  23.371  21.762 -0.3802 -0.0546 -0.0265
41005W        W83943  30.653  23.472  23.396 -0.2356  0.0025 -0.4305
41006W        W83944  27.696  22.824  20.690 -0.1723 -0.1583  0.0275
41007W        W83945  29.814  24.697  19.277  0.1154  0.2863  0.0287
41008W        W83946  29.925  24.378  20.648  0.1291 -0.0272 -0.1253
41009W        W83947  32.914  21.405  23.842  0.0405 -0.2155  0.1966
41010W        W83948  30.383  23.426  24.166  0.2434  0.0620 -0.1598
41011W        W83949  28.691  24.882  23.156  0.0572 -0.0464 -0.0995
41012W        W83950  28.230  23.375  20.761 -0.0881  0.0603 -0.1454
41013W        W83951  29.547  26.484  20.587 -0.0947 -0.0887 -0.1690
41014W        W83952  31.404  22.600  22.731  0.0399  0.1374 -0.1541
41015W        W83953  30.861  22.034  20.660  0.1475  0.0271 -0.3348
41016W        W83954  31.946  24.394  20.107  0.1496  0.1647 -0.1240
41017W        W83955  33.040  25.309  20.573 -0.0441  0.2165  0.3589
41018W        W83956  31.673  24.271  20.486 -0.0209  0.2506 -0.1566
41019W        W83957  31.179  24.578  25.274 -0.0081  0.0256  0.2074
41020W        W83958  29.407  24.084  20.274 -0.0113  0.1185  0.1291
41021W        W83959  31.000  22.113  23.976  0.1029 -0.3444 -0.2983
41022W        W83960  30.876  23.380  23.987  0.0673 -0.3826 -0.1197
41023W        W83961  29.435  22.275  19.942  0.0844  0.0438 -0.0918
41024W        W83962  31.441  23.634  22.831  0.3438 -0.4168 -0.0250
41025W        W83963  31.204  25.591  20.715  0.0244 -0.0640 -0.3283
41026W        W83964  31.198  26.260  20.000 -0.2319 -0.1973  0.2404
41027W        W83965  29.861  23.360  23.611  0.3472  0.1329  0.3810
41028W        W83966  30.460  25.955  23.545  0.0892  0.4089 -0.1553
41029W        W83967  29.405  23.414  22.511  0.3483 -0.0346 -0.1786
41030W        W83968  31.020  23.594  19.603  0.1625 -0.1273  0.0736
41031W        W83969  30.734  25.159  23.303 -0.1339  0.0011  0.0606
41032W        W83970  33.411  24.073  21.210  0.1199  0.0650  0.0935
41033W        W83971  32.782  21.710  22.018  0.1611  0.1607  0.1039
41034W        W83972  31.638  25.186  20.629  0.0064 -0.2269 -0.0533
41035W        W83973  30.183  22.969  22.900  0.0815  0.2190  0.0549
41036W        W83974  29.686  25.200  23.671  0.2233  0.5712 -0.2475
41037W        W83975  32.921  24.840  22.403  0.0235  0.1435 -0.2888
41038W        W83976  30.337  22.216  21.306 -0.1370 -0.0201 -0.0093
41039W        W83977  33.125  23.537  21.058 -0.0455 -0.0267 -0.0340
41040W        W83978  29.746  26.263  21.079 -0.2560 -0.0039 -0.1991
41041W        W83979  29.680  24.347  22.659 -0.0860  0.0537 -0.0745
41042W        W83980  32.607  23.813  20.376 -0.0742  0.1597  0.0450
41043W        W83981  30.238  25.530  23.610  0.1000  0.0706 -0.1491
41044W        W83982  31.283  24.541  22.603 -0.1070 -0.1438 -0.3259
41045W        W83983  31.270  24.632  23.968  0.1910  0.1100  0.0124
41046W        W83984  30.049  23.348  20.424 -0.4216 -0.0081 -0.1789
41047W        W83985  31.332  25.055  22.225  0.3504  0.1974  0.0461
41048W        W83986  30.453  25.957  23.039 -0.0154  0.0549  0.3364
41049W        W83987  31.691  25.754  24.600  0.1678 -0.2134  0.1020
41050W        W83988  29.105  26.206  22.886  0.0077  0.0320  0.0236
41051W        W83989  32.561  24.944  23.139  0.0263  0.1822  0.1406
41052W        W83990  30.067  23.041  21.858  0.2066 -0.0886  0.0441
41053W        W83991  29.695  23.642  21.201  0.1548 -0.0642  0.6665
41054W        W83992  30.569  25.619  20.700  0.1929 -0.3457  0.1418
41055W        W83993  32.284  22.672  23.496  0.1383  0.2721  0.3919
41056W        W83994  29.726  24.232  21.362  0.0783 -0.1153 -0.0397
41057W        W83995  31.300  22.153  19.827  0.1532 -0.0571 -0.2066
41058W        W83996  29.052  25.633  21.389  0.1610  0.0220  0.0415
41059W        W83997  31.762  25.260  23.158  0.3880 -0.2445 -0.1718
41060W        W83998  29.408  24.724  27.024  0.3899  0.2833 -0.1591
41061W        W83999  28.422  23.630  25.407 -0.0789  0.0189  0.3521
41062W        W84000  32.003  21.942  24.232 -0.3307  0.0345 -0.0117
41063W        W84001  32.951  23.927  25.364  0.3795 -0.2190  0.0189
41064W        W84002  29.015  21.941  25.759 -0.0162 -0.1647  0.1219
41065W        W84003  31.551  26.700  23.751  0.0465  0.1701 -0.0177
41066W        W84004  29.970  22.467  27.121  0.1614 -0.1244 -0.2344
41067W        W84005  31.350  23.556  27.073  0.1589  0.1629  0.0330
41068W        W84006  33.493  26.043  25.326  0.1876 -0.2480  0.0324
41069W        W84007  31.354  24.756  24.593  0.2442  0.0438  0.0750
41070W        W84008  28.708  23.473  26.245  0.0753  0.2613  0.0128
41071W        W84009  30.166  25.131  27.412 -0.2151 -0.1359 -0.1970
41072W        W84010  30.364  21.626  25.401  0.1111 -0.0654 -0.0883
41073W        W84011  29.591  22.733  25.837 -0.3608  0.2298  0.1863
41074W        W84012  29.146  23.268  26.092  0.0865 -0.3031 -0.1523
41075W        W84013  28.127  24.821  24.463  0.0946  0.0046  0.2217
41076W        W84014  30.114  23.008  26.897 -0.1815  0.0566  0.3124
41077W        W84015  30.149  23.773  25.097 -0.0089  0.2918 -0.0444
41078W        W84016  30.867  25.062  26.882  0.0132  0.1596  0.0868
41079W        W84017  30.603  22.508  26.294  0.0365 -0.4239  0.0131
41080W        W84018  30.998  22.642  26.603 -0.3012  0.1409 -0.1631
41081W        W84019  31.066  24.457  24.818 -0.1940 -0.1660  0.0072
41082W        W84020  28.975  23.227  25.266  0.1250 -0.0576  0.1248
41083W        W84021  27.101  22.982  25.252 -0.1446  0.1693  0.0919
41084W        W84022  28.138  24.492  27.386  0.0830  0.0887  0.0034
41085W        W84023  31.713  23.154  27.157 -0.1506 -0.2201  0.0932
41086W        W84024  33.099  23.534  26.887  0.0291 -0.2899  0.0082
41087W        W84025  31.757  27.546  26.380 -0.1072  0.4339  0.1739
41088W        W84026  30.186  24.497  26.608  0.2610 -0.2850 -0.1151
41089W        W84027  31.327  23.802  27.795 -0.2240 -0.1272  0.0427
41090W        W84028  30.719  24.154  25.828 -0.2325  0.1292 -0.1028
41091W        W84029  27.283  25.925  24.633 -0.0415 -0.1633  0.1934
41092W        W84030  31.651  24.342  25.712  0.1871 -0.1830 -0.2195
41093W        W84031  32.099  24.564  25.661 -0.0187  0.0597 -0.0459
41094W        W84032  31.015  24.191  27.878  0.1493  0.1157  0.2393
41095W        W84033  30.454  24.726  27.337 -0.0368  0.3140  0.0326
41096W        W84034  29.470  24.571  25.308  0.0835 -0.0532  0.0031
41097W        W84035  32.261  25.801  28.140 -0.2103  0.0948 -0.2864
41098W        W84036  30.229  25.539  27.680  0.0521  0.2462 -0.1278
41099W        W84037  28.741  24.022  25.599 -0.0195 -0.2289  0.0303
41100W        W84038  31.159  23.201  25.845  0.2006  0.1052  0.0074
41101W        W84039  30.580  25.136  24.862 -0.0808 -0.0013 -0.1504
41102W        W84040  32.287  24.880  26.502  0.1538  0.4280 -0.0789
41103W        W84041  29.187  23.765  27.599 -0.0262 -0.0936 -0.2012
41104W        W84042  30.352  24.823  24.350  0.0264  0.1151  0.0135
41105W        W84043  32.784  22.205  26.986 -0.1047  0.0741  0.1268
41106W        W84044  30.805  25.638  23.276  0.0980 -0.0185  0.4250
41107W        W84045  31.451  24.226  25.134  0.1916 -0.0194 -0.0210
41108W        W84046  29.755  23.439  25.280  0.0322  0.2122  0.3062
41109W        W84047  31.818  23.167  24.269 -0.2133 -0.0350  0.0993
41110W        W84048  31.369  22.215  25.761  0.0772  0.1239 -0.0391
41111W        W84049  30.514  25.689  26.136  0.1942  0.2782 -0.0097
41112W        W84050  29.350  23.937  26.711  0.1480 -0.2046  0.1557
41113W        W84051  32.675  23.781  27.750 -0.1144  0.3796  0.1360
41114W        W84052  31.032  23.660  25.738  0.2022  0.1442  0.2553
41115W        W84053  29.420  24.192  26.229  0.1744 -0.2767 -0.1745
41116W        W84054  30.085  25.539  26.997 -0.0481 -0.0161  0.0946
41117W        W84055  28.828  22.652  26.270 -0.1383 -0.0321 -0.0067
41118W        W84056  32.465  25.641  24.716 -0.0579  0.0225 -0.0854
41119W        W84057  31.092  25.242  26.022  0.0422 -0.0228 -0.0363
41120W        W84058  29.498  26.217  23.937  0.0437  0.0412  0.0892
41121W        W84059  29.555  23.057  25.010  0.2477  0.0325 -0.1706
41122W        W84060  26.473  24.668  28.112  0.4669  0.0445  0.0385
41123W        W84061  28.658  23.979  27.579  0.0540  0.3033  0.1602
41124W        W84062  31.074  22.762  23.115  0.2112 -0.2209  0.3861
41125W        W84063  32.423  23.116  26.522  0.1242 -0.1077 -0.3183
41126W        W84064  27.899  25.236  26.832  0.3275 -0.2860  0.0303
41127W        W84065  31.631  22.260  26.208  0.0831  0.0923 -0.2320
41128W        W84066  30.326  25.023  26.889  0.2383  0.0062 -0.1655
41129W        W84067  32.202  23.622  26.328 -0.0332 -0.0561  0.1190
41130W        W84068  31.948  25.110  25.436 -0.0586  0.0985 -0.5041
41131W        W84069  33.024  21.782  26.316 -0.0638  0.2934 -0.1903
41132W        W84070  30.620  24.064  26.558 -0.1732 -0.1489 -0.0104
41133W        W84071  30.599  23.041  23.224  0.0159  0.0950  0.1843
41134W        W84072  31.023  24.324  24.262  0.1090  0.0874 -0.0901
41135W        W84073  31.446  24.800  27.672 -0.0194  0.0411 -0.2086
41136W        W84074  31.973  22.895  25.175 -0.0556  0.1850  0.0736
41137W        W84075  29.735  25.213  27.083 -0.0920 -0.0513  0.1911
41138W        W84076  30.211  23.770  26.784 -0.0470  0.2852 -0.3630
41139W        W84077  30.230  24.394  28.046  0.0439 -0.0277 -0.2514
41140W        W84078  29.462  25.958  25.587 -0.2791 -0.0517  0.3968
41141W        W84079  28.141  24.516  25.515  0.1980 -0.0181 -0.1866
41142W        W84080  28.979  25.389  24.342  0.1225  0.1826 -0.2964
41143W        W84081  28.181  23.350  27.258  0.0366  0.0172  0.0078
41144W        W84082  31.229  24.676  27.088 -0.3019  0.1504  0.0622
41145W        W84083  30.768  22.818  25.932  0.0138  0.0914 -0.0536
41146W        W84084  30.175  22.607  26.575 -0.0800  0.1146  0.1844
41147W        W84085  31.921  22.955  26.711  0.2933 -0.1261 -0.1398
41148W        W84086  28.627  23.042  26.012 -0.0541 -0.1787  0.0131
41149W        W84087  32.021  25.776  26.709 -0.2775 -0.0916 -0.1308
41150W        W84088  32.052  23.517  23.595 -0.3172  0.2150 -0.0582
41151W        W84089  31.026  25.890  25.291 -0.2082 -0.1096 -0.4052
41152W        W84090  29.674  22.146  27.709 -0.2569 -0.2956  0.0316
41153W        W84091  30.258  22.472  25.204  0.0541  0.2110  0.0960
41154W        W84092  31.255  21.831  28.920  0.0988 -0.0063 -0.0327
41155W        W84093  28.767  23.096  26.622 -0.2223 -0.0773 -0.2527
41156W        W84094  31.759  23.222  28.185 -0.0134  0.0078  0.0681
41157W        W84095  29.090  23.334  23.759  0.2238 -0.1501  0.1294
41158W        W84096  32.287  23.168  25.982 -0.2114  0.0039  0.1096
41159W        W84097  29.788  24.945  24.341 -0.1469  0.1735  0.1364
41160W        W84098  29.326  24.203  24.830 -0.1202  0.1061 -0.0950
41161W        W84099  34.101  22.791  27.487  0.0391  0.1722  0.0388
41162W        W84100  31.075  25.023  25.536  0.1910  0.0535 -0.1941
41163W        W84101  32.346  25.204  26.123 -0.1007 -0.1441 -0.0219
41164W        W84102  31.515  25.837  25.323  0.1177 -0.3218 -0.0887
41165W        W84103  29.674  21.273  28.524  0.0219 -0.1152 -0.2214
41166W        W84104  30.084  24.789  23.854  0.1076 -0.3635  0.1807
41167W        W84105  29.849  25.457  26.586  0.0000 -0.1104 -0.1773
41168W        W84106  30.722  24.672  25.770  0.2498 -0.1142  0.0690
41169W        W84107  29.606  21.707  24.863  0.2234  0.3723  0.1346
41170W        W84108  31.511  25.213  26.203 -0.0849 -0.4866 -0.0483
41171W        W84109  29.281  23.022  26.757  0.0139  0.0631  0.0851
41172W        W84110  28.604  24.078  26.081 -0.0272 -0.0323 -0.0389
41173W        W84111  31.640  22.826  27.599 -0.2447  0.0807 -0.2683
41174W        W84112  30.466  23.355  27.015 -0.0228  0.0189 -0.2191
41175W        W84113  31.181  23.822  24.075  0.0024  0.1115  0.0073
41176W        W84114  29.761  23.207  25.906  0.0671  0.0612 -0.1003
41177W        W84115  30.689  24.146  24.816  0.0202  0.0568  0.2107
41178W        W84116  30.579  24.896  25.348 -0.4025 -0.0235  0.0526
41179W        W84117  29.712  23.699  24.849 -0.0581 -0.0790  0.1239
41180W        W84118  31.593  25.884  23.955  0.3416 -0.1059 -0.2010
41181W        W84119  31.517  22.582  26.675  0.1126  0.0597  0.1405
41182W        W84120  27.505  24.555  28.262 -0.0331 -0.1761 -0.0064
41183W        W84121  29.809  23.938  26.555  0.3120 -0.1704 -0.0394
41184W        W84122  30.026  22.858  23.901  0.1235  0.1124  0.0647
41185W        W84123  29.559  24.080  28.517 -0.0124  0.0513 -0.0217
41186W        W84124  31.304  23.039  24.158  0.0120  0.1007 -0.1717
41187W        W84125  32.766  21.822  23.551  0.0436 -0.1461  0.0287
41188W        W84126  30.768  23.876  27.594  0.0601 -0.0625  0.2696
41189W        W84127  33.113  24.964  24.357 -0.2085 -0.0274 -0.0804
41190W        W84128  31.160  22.642  23.639  0.1161  0.4744  0.2460
41191W        W84129  30.298  21.896  24.030  0.0336 -0.0142 -0.0783
41192W        W84130  29.323  25.522  28.187  0.0837 -0.1457 -0.0109
41193W        W84131  31.491  24.245  26.537  0.0451 -0.3131  0.1160
41194W        W84132  30.237  25.203  28.184  0.1375  0.2379  0.1786
41195W        W84133  29.912  22.740  24.577  0.1412  0.1265  0.2429
41196W        W84134  32.820  24.664  26.502  0.0679 -0.3712  0.1019
41197W        W84135  28.106  23.736  26.807 -0.0890 -0.2706  0.0361
41198W        W84136  30.879  23.380  27.258 -0.2238  0.0622  0.2799
41199W        W84137  32.444  23.209  25.472 -0.0926 -0.1393  0.1401
41200W        W84138  30.923  22.398  28.145  0.0292 -0.0996 -0.1149
41201W        W84139  29.698  23.250  24.596  0.1521  0.0626 -0.1829
41202W        W84140  31.048  22.886  24.851  0.4139 -0.0037 -0.4728
41203W        W84141  28.699  25.510  24.936  0.0201  0.0263  0.1200
41204W        W84142  30.609  22.409  26.786  0.1021  0.0067  0.2766
41205W        W84143  30.523  22.856  25.345 -0.1434 -0.2076  0.0106
41206W        W84144  30.444  22.188  27.952 -0.0778 -0.3326  0.0337
41207W        W84145  33.577  23.982  28.153  0.1850 -0.1510 -0.4089
41208W        W84146  31.886  24.331  26.135  0.1180 -0.0354 -0.0308
41209W        W84147  31.949  23.402  25.434  0.2134  0.1018 -0.2775
41210W        W84148  29.076  24.631  24.949 -0.3081 -0.0970  0.2653
41211W        W84149  30.776  22.533  27.715  0.4009 -0.0264 -0.0573
41212W        W84150  29.021  24.313  27.712  0.0162 -0.0576  0.1211
41213W        W84151  29.403  25.127  26.723  0.0563 -0.0365 -0.2936
41214W        W84152  32.139  25.311  28.236 -0.1059 -0.0615  0.0072
41215W        W84153  31.279  23.856  26.653 -0.4788 -0.0806  0.2906
41216W        W84154  31.600  22.833  28.476 -0.2787  0.1667  0.1968
41217W        W84155  31.497  23.394  23.811 -0.0528  0.0207 -0.0268
41218W        W84156  30.629  25.535  24.395  0.0804 -0.0070  0.0463
41219W        W84157  31.003  24.997  24.971 -0.0349  0.1283 -0.1527
41220W        W84158  30.350  22.563  25.703 -0.1383 -0.2973 -0.1410
41221W        W84159  31.158  25.719  27.221  0.3437  0.2385  0.3037
41222W        W84160  29.893  25.290  25.161  0.1074  0.0576  0.1925
41223W        W84161  31.148  24.998  28.054  0.1832  0.1259  0.0679
41224W        W84162  30.122  24.840  25.116 -0.1084 -0.0123  0.0100
41225W        W84163  32.129  21.536  26.088 -0.0968 -0.0664  0.0997
41226W        W84164  30.698  24.382  25.336 -0.2479  0.1616 -0.1807
41227W        W84165  29.488  23.751  23.854  0.0613 -0.0026  0.3097
41228W        W84166  26.771  24.019  25.465  0.0035  0.2540  0.0066
41229W        W84167  31.629  23.394  25.889  0.0419  0.3245 -0.0309
41230W        W84168  33.196  24.379  25.204  0.0458  0.2220  0.0547
41231W        W84169  29.249  22.218  27.409 -0.1467 -0.2020 -0.1213
41232W        W84170  30.376  21.889  25.921 -0.0655 -0.0503 -0.2696
41233W        W84171  30.205  24.099  25.697  0.2230 -0.2852  0.0253
41234W        W84172  30.886  23.657  28.225 -0.1391  0.0577 -0.0579
41235W        W84173  30.843  23.181  26.280 -0.0055 -0.2908  0.2011
41236W        W84174  32.107  23.519  27.249 -0.2248 -0.0337 -0.1032
41237W        W84175  28.942  25.433  27.778  0.1402  0.1185 -0.0981
41238W        W84176  29.370  23.790  25.213 -0.0615 -0.1310  0.0086
41239W        W84177  32.531  22.591  27.194 -0.0040 -0.2411 -0.1203
41240W        W84178  30.447  23.702  25.852 -0.0716 -0.0490 -0.5772
41241W        W84179  28.610  25.877  27.032 -0.1269 -0.1857  0.0141
41242W        W84180  30.584  26.627  25.894  0.0526  0.0523  0.0618
41243W        W84181  29.451  24.529  24.451 -0.0098  0.2300 -0.1732
41244W        W84182  29.776  24.294  25.015 -0.0382  0.0027  0.0556
41245W        W84183  30.643  22.971  27.368 -0.1232  0.0615  0.0201
41246W        W84184  32.096  23.492  26.770  0.2698  0.0620 -0.3106
41247W        W84185  29.884  20.617  28.834  0.0082  0.1915 -0.1083
41248W        W84186  29.757  23.949  25.443 -0.1878  0.2359  0.5083
41249W        W84187  30.574  23.135  24.836 -0.0199  0.0209 -0.0999
41250W        W84188  30.381  24.313  27.017 -0.0849 -0.0274 -0.0646
41251W        W84189  30.413  22.036  26.488 -0.0633  0.2556 -0.2025
41252W        W84190  30.010  26.558  28.452 -0.0378 -0.0357  0.1116
41253W        W84191  32.848  22.632  26.619  0.0499  0.1629 -0.1745
41254W        W84192  32.488  24.924  24.764  0.1005  0.1577  0.0383
41255W        W84193  31.279  22.746  28.054  0.1655  0.1354 -0.0659
41256W        W84194  29.407  24.212  23.597  0.0182  0.0293  0.0549
41257W        W84195  28.694  23.511  27.428  0.2015  0.1415 -0.3148
41258W        W84196  30.030  23.573  26.234  0.0302  0.2050  0.2759
41259W        W84197  30.357  23.196  25.972 -0.0300  0.1891 -0.2327
41260W        W84198  29.807  24.428  26.219 -0.0113  0.0054 -0.0049
41261W        W84199  30.056  23.532  25.672  0.1621 -0.0562  0.0588
41262W        W84200  28.778  25.218  26.380 -0.0820  0.0715 -0.0063
41263W        W84201  32.310  22.226  23.789 -0.2560 -0.1017 -0.0437
41264W        W84202  29.590  24.732  23.866 -0.1268  0.0585  0.0223
41265W        W84203  30.091  23.045  24.958  0.0711 -0.2735 -0.1342
41266W        W84204  34.055  22.126  25.719  0.1311  0.0929 -0.0251
41267W        W84205  31.263  24.029  26.101  0.0771  0.3344  0.2042
41268W        W84206  31.032  23.726  29.227  0.0636 -0.0840  0.1246
41269W        W84207  30.625  21.718  27.660  0.1831 -0.0486 -0.0269
41270W        W84208  33.241  24.935  26.414 -0.0044 -0.2516  0.0565
41271W        W84209  30.254  21.967  28.435 -0.1857 -0.2697  0.0517
41272W        W84210  30.803  25.064  28.865 -0.0745 -0.1906 -0.1983
41273W        W84211  27.738  23.783  28.819 -0.1529 -0.1149 -0.0334
41274W        W84212  29.992  21.524  24.100  0.3126  0.0631  0.1102
41275W        W84213  29.746  22.486  25.280  0.1845 -0.1016 -0.2022
41276W        W84214  30.443  24.287  27.594  0.2762 -0.0557  0.3203
41277W        W84215  31.368  22.771  25.656  0.1082 -0.0441  0.2168
41278W        W84216  30.209  24.064  24.657 -0.0014 -0.0898 -0.0216
41279W        W84217  33.294  24.320  24.637  0.0178  0.0163 -0.3832
41280W        W84218  29.523  23.615  26.272 -0.0377  0.1977 -0.4724
41281W        W84219  31.477  23.475  24.381  0.1476  0.1755 -0.3132
41282W        W84220  30.998  23.971  25.307 -0.0506 -0.0788  0.0434
41283W        W84221  29.219  24.165  25.763  0.0747 -0.6161  0.1784
41284W        W84222  30.430  22.445  27.356 -0.0334  0.2433  0.1774
41285W        W84223  31.515  24.676  26.247 -0.1837 -0.2491  0.0276
41286W        W84224  30.960  22.017  25.340  0.0984  0.1815  0.0478
41287W        W84225  32.483  21.779  27.053 -0.3248  0.0784  0.1159
41288W        W84226  30.886  23.542  26.675 -0.2767 -0.0226 -0.0472
41289W        W84227  28.977  24.266  27.211 -0.2119  0.0205 -0.3947
41290W        W84228  29.286  22.203  28.270  0.3392  0.0906 -0.1211
41291W        W84229  32.225  25.461  27.208  0.1894 -0.3075  0.3564
41292W        W84230  32.842  23.399  23.664 -0.1314  0.0500 -0.1128
41293W        W84231  33.211  22.745  26.272 -0.0493  0.0835  0.0665
41294W        W84232  33.422  23.705  24.374  0.0442 -0.0738  0.2939
41295W        W84233  32.070  23.633  25.814 -0.0109  0.0706 -0.0803
41296W        W84234  28.286  22.953  26.950 -0.1143  0.0124  0.0105
41297W        W84235  30.718  25.042  28.319  0.2936 -0.1406 -0.1635
41298W        W84236  30.324  22.012  24.961  0.0177 -0.1648  0.0577
41299W        W84237  32.705  21.957  27.443  0.0048  0.1990  0.0702
41300W        W84238  30.146  25.308  24.107  0.0892  0.0835 -0.6537
41301W        W84239  31.921  25.297  25.898 -0.0351 -0.0470  0.1716
41302W        W84240  30.328  23.311  25.281 -0.3320  0.0441  0.0628
41303W        W84241  28.866  23.539  25.692  0.0825 -0.1532  0.0741
41304W        W84242  30.002  24.668  27.130 -0.2720  0.0179 -0.0740
41305W        W84243  29.018  23.826  24.706 -0.0768 -0.1824  0.3783
41306W        W84244  30.358  23.698  23.746 -0.1411 -0.1262  0.1684
41307W        W84245  31.417  24.252  27.570  0.0346 -0.0465  0.1641
41308W        W84246  32.129  24.308  27.101  0.1354  0.0402 -0.2178
41309W        W84247  31.318  22.484  24.192  0.5038  0.1023 -0.1492
41310W        W84248  33.799  22.850  26.381  0.0868  0.3275 -0.6060
41311W        W84249  30.531  23.780  25.359 -0.0394 -0.1805 -0.2174
41312W        W84250  32.876  21.775  26.784  0.2537  0.0795  0.2994
41313W        W84251  30.900  25.568  26.808  0.2351  0.0330  0.2474
41314W        W84252  28.264  24.943  27.282 -0.0060  0.1559  0.1768
41315W        W84253  31.068  25.817  24.650 -0.0028 -0.2880  0.2903
41316W        W84254  30.782  22.119  27.304  0.1941  0.0427 -0.0853
41317W        W84255  30.657  24.652  26.685  0.0829 -0.0814  0.0148
41318W        W84256  29.517  23.595  27.055 -0.0157  0.1531  0.0216
41319W        W84257  32.803  22.939  27.474  0.1368  0.0870 -0.0421
41320W        W84258  30.412  24.867  27.840 -0.0511  0.0563  0.1559
41321W        W84259  30.240  24.291  25.169  0.1228 -0.1633 -0.0076
41322W        W84260  31.754  25.623  28.248  0.0640 -0.0582  0.0124
41323W        W84261  32.729  24.580  25.306  0.0811  0.0292  0.0354
41324W        W84262  29.793  24.887  26.562  0.1277  0.2035 -0.0519
41325W        W84263  27.726  22.034  28.647 -0.1665  0.1500 -0.1538
41326W        W84264  30.785  24.620  28.024  0.1859 -0.0546 -0.0355
41327W        W84265  31.243  23.508  26.238 -0.1313 -0.1356  0.0435
41328W        W84266  29.907  22.042  25.238 -0.1452  0.1290 -0.4666
41329W        W84267  29.422  25.198  24.118  0.1249  0.1193 -0.2453
41330W        W84268  29.500  25.607  26.920 -0.0118 -0.2141 -0.0068
41331W        W84269  28.888  23.934  28.043  0.1527 -0.0124 -0.0106
41332W        W84270  29.649  25.143  26.085 -0.0651  0.0775  0.0418
41333W        W84271  30.016  26.272  23.670  0.1356 -0.0242 -0.2501
41334W        W84272  30.474  25.097  23.743  0.3126  0.1283 -0.0680
41335W        W84273  31.857  24.538  26.693  0.0311  0.4788 -0.3442
41336W        W84274  31.060  20.862  25.928 -0.0096  0.2433 -0.1271
41337W        W84275  29.190  25.501  24.998  0.2011  0.0615 -0.0578
41338W        W84276  29.496  23.648  25.763 -0.5031  0.0660 -0.2038
41339W        W84277  32.409  25.018  25.642  0.1494 -0.0121  0.2188
41340W        W84278  30.713  23.290  25.652 -0.0384  0.2407  0.0981
41341W        W84279  30.953  23.886  27.054 -0.1633 -0.1753  0.4503
41342W        W84280  32.379  22.589  22.775  0.1309  0.0412  0.1920
41343W        W84281  32.447  23.792  25.429  0.0700 -0.1448  0.4141
41344W        W84282  31.816  23.701  24.052 -0.0307 -0.1298 -0.2845
41345W        W84283  30.010  24.618  27.657  0.1019  0.2663  0.0796
41346W        W84284  28.712  23.868  26.569  0.1610  0.1531 -0.1009
41347W        W84285  29.888  22.978  25.453 -0.0161 -0.4915  0.0044
41348W        W84286  28.549  23.916  27.076  0.0119  0.0363 -0.1481
41349W        W84287  31.916  22.275  26.675  0.0569 -0.2665  0.3853
41350W        W84288  30.071  24.900  26.025  0.0499 -0.0037  0.1892
41351W        W84289  32.942  25.629  25.114 -0.0445 -0.0186  0.1059
41352W        W84290  30.395  23.395  26.467  0.3754  0.0809 -0.1101
41353W        W84291  29.793  22.288  25.723 -0.1222  0.2730  0.3427
41354W        W84292  32.969  22.587  24.939  0.1505 -0.0380 -0.1194
41355W        W84293  30.552  23.610  24.863  0.0808 -0.2722 -0.2512
41356W        W84294  30.904  24.317  26.232 -0.2048 -0.0112 -0.3624
41357W        W84295  29.376  24.593  26.518 -0.2210  0.0552  0.2408
41358W        W84296  31.196  25.237  27.552 -0.0657 -0.3411  0.3704
41359W        W84297  31.583  25.917  27.118  0.1187 -0.1351  0.0424
41360W        W84298  28.408  23.091  25.467 -0.1811 -0.0944  0.1380
41361W        W84299  31.050  23.114  26.872  0.2201  0.0866  0.0082
41362W        W84300  29.686  23.321  26.700 -0.2821 -0.0000  0.1540
41363W        W84301  32.788  23.039  26.914  0.1794  0.0192 -0.0547
41364W        W84302  27.470  22.826  24.942  0.1060  0.1187  0.0722
41365W        W84303  30.907  22.519  25.566 -0.1856  0.2468  0.2830
41366W        W84304  30.854  24.325  27.297  0.0688  0.0106  0.1034
41367W        W84305  29.457  23.301  27.494  0.1525 -0.3779 -0.0369
41368W        W84306  30.138  22.328  24.310 -0.3879 -0.2403 -0.2500
41369W        W84307  31.927  23.689  28.148 -0.0294 -0.5070 -0.1707
41370W        W84308  32.244  22.621  24.017 -0.0926 -0.0537 -0.0658
41371W        W84309  33.858  26.144  26.136  0.2581  0.3307  0.0235
41372W        W84310  29.689  23.091  27.119  0.2742 -0.1050  0.3470
41373W        W84311  32.579  23.833  24.271  0.0050  0.2267  0.0660
41374W        W84312  29.280  23.433  24.869  0.0022  0.1933  0.0108
41375W        W84313  29.681  24.367  26.779 -0.2382 -0.1894  0.1527
41376W        W84314  31.215  26.183  28.332  0.0789 -0.2190 -0.0136
41377W        W84315  28.758  22.749  25.175  0.3068 -0.0922  0.0148
41378W        W84316  32.103  24.761  23.849 -0.2996 -0.0787  0.2151
41379W        W84317  31.968  22.687  26.302  0.0706  0.0618  0.0825
41380W        W84318  30.226  26.506  25.561 -0.2607  0.1957  0.0024
41381W        W84319  31.662  23.353  24.874 -0.3501 -0.1636  0.1938
41382W        W84320  31.441  24.185  27.029  0.0662  0.2257  0.0433
41383W        W84321  28.105  23.967  27.428 -0.0515  0.1862  0.3309
41384W        W84322  31.838  23.965  26.839  0.1005 -0.0736 -0.0017
41385W        W84323  32.260  24.074  25.992 -0.0882  0.2736 -0.0699
41386W        W84324  31.484  22.969  25.159 -0.1246 -0.1739 -0.0443
41387W        W84325  29.806  23.980  25.970  0.0721 -0.1856  0.2972
41388W        W84326  29.205  25.310  27.329 -0.0595 -0.0483  0.3506
41389W        W84327  32.066  22.064  26.239  0.0592 -0.0295  0.2294
41390W        W84328  30.823  23.786  26.161 -0.0236  0.1097 -0.0136
41391W        W84329  30.734  25.079  24.136 -0.0838 -0.1711 -0.1743
41392W        W84330  33.424  22.651  26.687 -0.1010 -0.2841 -0.1032
41393W        W84331  32.446  25.890  27.553  0.0464 -0.0531 -0.1456
41394W        W84332  30.768  25.610  28.909 -0.0835  0.2348 -0.0772
41395W        W84333  29.244  22.676  25.209  0.0573 -0.4359 -0.0909
41396W        W84334  30.001  24.171  27.375 -0.0748  0.0098  0.5325
41397W        W84335  31.041  24.264  26.765  0.0260 -0.1637 -0.3006
41398W        W84336  29.793  25.405  25.709  0.2177  0.0373 -0.0785
41399W        W84337  32.285  22.696  25.557  0.4594  0.0106  0.0141
41400W        W84338  30.735  22.469  24.983  0.1542  0.0164 -0.3034
41401W        W84339  32.363  24.596  26.064  0.0788 -0.0918 -0.1023
41402W        W84340  30.895  23.443  25.177 -0.4181 -0.2080 -0.0622
41403W        W84341  32.818  22.355  24.119 -0.0998 -0.2874 -0.5228
41404W        W84342  31.146  22.221  26.913 -0.2503  0.2627 -0.1293
41405W        W84343  29.707  25.448  27.554  0.2469  0.2429 -0.1557
41406W        W84344  28.387  23.356  24.882  0.0475 -0.0510 -0.2378
41407W        W84345  28.265  25.217  24.131  0.0984 -0.0391 -0.0202
41408W        W84346  30.571  24.622  24.942 -0.3140 -0.2006  0.4279
41409W        W84347  30.163  21.406  28.472 -0.2814  0.1721  0.1927
41410W        W84348  29.623  25.109  28.295 -0.3017 -0.1388  0.1147
41411W        W84349  29.375  23.154  25.576 -0.3628 -0.2603  0.1568
41412W        W84350  30.850  23.017  24.429  0.3977 -0.2455  0.0657
41413W        W84351  32.248  24.824  22.678  0.0877  0.1382 -0.0901
41414W        W84352  29.921  21.263  28.000 -0.1159 -0.0658  0.1398
41415W        W84353  30.049  21.244  24.545 -0.0185 -0.1448  0.1186
41416W        W84354  31.009  25.243  24.547  0.0188 -0.1208  0.3203
41417W        W84355  31.530  24.190  24.032 -0.1362  0.0098  0.0504
41418W        W84356  30.673  23.797  24.331  0.0987 -0.1216 -0.2417
41419W        W84357  33.219  23.833  25.990 -0.0374  0.1092 -0.0488
41420W        W84358  29.070  22.883  24.780  0.0587 -0.2484  0.0777
41421W        W84359  30.584  22.900  26.654 -0.0320 -0.3061  0.0589
41422W        W84360  30.800  22.952  28.066  0.3048 -0.0313 -0.0375
41423W        W84361  28.853  23.314  24.694  0.0554 -0.0662  0.2009
41424W        W84362  29.159  23.469  26.578 -0.1815 -0.0321  0.2164
41425W        W84363  30.251  24.078  26.193 -0.0027 -0.3601 -0.5098
41426W        W84364  30.878  26.039  24.245 -0.0901 -0.0379  0.1560
41427W        W84365  28.959  24.260  28.418  0.1706  0.2829  0.1472
41428W        W84366  31.645  25.170  27.969  0.1843  0.1123  0.0053
41429W        W84367  28.945  22.378  27.056  0.0624  0.1933  0.0532
41430W        W84368  31.637  23.870  25.692  0.0509 -0.1497  0.1092
41431W        W84369  31.217  25.708  27.853  0.1839 -0.2457  0.1324
41432W        W84370  32.527  24.321  24.030 -0.0184  0.3502  0.1847
41433W        W84371  32.933  22.964  25.400  0.1041 -0.2231  0.1536
41434W        W84372  31.629  23.496  26.661 -0.5293 -0.1200  0.1613
41435W        W84373  28.769  23.385  28.027  0.0129  0.0582  0.1147
41436W        W84374  29.974  24.771  28.221 -0.0891  0.0651 -0.2190
41437W        W84375  32.525  23.313  27.550  0.0074 -0.1954  0.1279
41438W        W84376  29.710  22.787  26.721 -0.0240 -0.3272  0.1727
41439W        W84377  31.417  23.345  25.452  0.2223 -0.1173  0.3053
41440W        W84378  31.196  24.505  25.819  0.0342  0.1282  0.1852
41441W        W84379  28.781  22.849  27.011 -0.1555 -0.1339  0.1673
41442W        W84380  30.847  24.126  23.815 -0.0758 -0.0690 -0.1015
41443W        W84381  30.903  23.363  27.770 -0.0144 -0.4193 -0.3197
41444W        W84382  30.451  24.586  26.200 -0.1329 -0.5547 -0.1933
41445W        W84383  32.319  24.677  27.567 -0.2711  0.0511 -0.2681
41446W        W84384  30.881  24.767  24.483 -0.1727  0.0127  0.3563
41447W        W84385  32.241  24.775  25.221 -0.0158 -0.0866  0.1206
41448W        W84386  31.568  26.344  27.421 -0.2774  0.1371 -0.0549
41449W        W84387  33.706  25.783  25.800 -0.2896  0.0895  0.0069
41450W        W84388  32.621  26.147  27.035  0.2245  0.1015 -0.2219
41451W        W84389  31.911  23.234  26.295 -0.1645  0.0163 -0.1019
41452W        W84390  29.448  22.527  27.049 -0.2541  0.1752  0.1044
41453W        W84391  29.643  25.375  24.650  0.0652 -0.0504  0.2296
41454W        W84392  29.090  23.859  26.147  0.0504 -0.0609  0.1029
41455W        W84393  32.303  23.948  26.729  0.0416  0.0553  0.1255
41456W        W84394  30.499  22.128  25.464  0.2350  0.5415 -0.2828
41457W        W84395  31.857  22.964  25.682  0.1242 -0.1545  0.2875
41458W        W84396  31.541  25.527  26.738  0.1783 -0.3266  0.4279
41459W        W84397  31.447  23.681  28.317  0.1043 -0.0392 -0.2586
41460W        W84398  29.664  26.524  29.768  0.4795 -0.3322 -0.2216
41461W        W84399  30.429  22.595  28.422 -0.0946  0.1270  0.1702
41462W        W84400  31.708  23.255  28.688 -0.1732 -0.2442  0.1470
41463W        W84401  32.284  23.338  28.079  0.1592 -0.2338  0.2975
41464W        W84402  29.548  22.412  29.197  0.1291 -0.3294  0.2872
41465W        W84403  32.147  24.784  28.429  0.0251 -0.1515 -0.0509
41466W        W84404  30.956  22.954  30.082 -0.1597  0.2272  0.3516
41467W        W84405  32.105  25.983  29.555  0.1467  0.2358 -0.1846
41468W        W84406  32.668  25.291  29.480  0.1593  0.3301 -0.3015
41469W        W84407  32.883  23.889  28.600  0.4440  0.0700  0.3645
41470W        W84408  31.200  23.139  29.570  0.0195  0.0166  0.1664
41471W        W84409  29.461  23.911  30.153  0.2807 -0.0123  0.0652
41472W        W84410  31.602  22.194  27.105 -0.0029 -0.1734  0.0250
41473W        W84411  29.231  22.150  30.943 -0.1647 -0.1890  0.0511
41474W        W84412  32.205  25.494  29.693 -0.2002 -0.1366 -0.2540
41475W        W84413  29.163  22.863  27.391 -0.1857 -0.0746  0.1968
41476W        W84414  30.463  22.744  31.021 -0.0625 -0.0249 -0.1967
41477W        W84415  30.397  21.647  28.865 -0.0320 -0.2651 -0.1818
41478W        W84416  30.983  25.311  29.345  0.1647  0.0817  0.2362
41479W        W84417  30.550  24.238  29.943  0.0958 -0.1070  0.0578
41480W        W84418  31.984  23.950  30.826 -0.1252  0.0466 -0.0471
41481W        W84419  31.066  24.696  28.533 -0.1435 -0.0053 -0.0478
41482W        W84420  28.006  23.087  26.141  0.0652  0.0917  0.1692
41483W        W84421  28.925  21.855  30.596  0.0121 -0.2228  0.1936
41484W        W84422  29.910  23.733  30.326  0.4306  0.0100  0.1160
41485W        W84423  32.126  22.988  28.532 -0.0164  0.1394 -0.2146
41486W        W84424  32.565  23.068  29.375 -0.0434 -0.0994 -0.2702
41487W        W84425  29.474  27.412  30.179 -0.0702  0.0128 -0.0448
41488W        W84426  30.906  25.502  29.963  0.1024 -0.3898 -0.0677
41489W        W84427  30.249  23.037  30.703  0.2879 -0.2178 -0.0162
41490W        W84428  29.502  24.007  30.647  0.1154  0.1188  0.2588
41491W        W84429  29.553  25.791  29.488  0.2429 -0.2530  0.2499
41492W        W84430  29.867  23.165  28.743 -0.1405  0.3214  0.1880
41493W        W84431  32.433  25.115  27.872 -0.0598 -0.0174  0.2465
41494W        W84432  30.486  25.035  29.342  0.0802 -0.0750 -0.3009
41495W        W84433  29.307  25.357  31.442 -0.1354  0.1048 -0.4231
41496W        W84434  29.827  23.638  28.013 -0.2728 -0.0872 -0.1587
41497W        W84435  31.611  25.524  30.686  0.0936  0.0332 -0.1495
41498W        W84436  30.331  25.114  31.292  0.2029 -0.2303 -0.0623
41499W        W84437  31.449  24.523  28.857  0.0984 -0.0946 -0.1732
41500W        W84438  30.398  24.171  28.674  0.1680  0.1193  0.0299
41501W        W84439  31.894  26.065  29.053  0.0174  0.1497 -0.2985
41502W        W84440  30.822  24.257  28.387 -0.2075 -0.0101 -0.1421
41503W        W84441  31.668  24.433  30.589 -0.0484 -0.0300 -0.1512
41504W        W84442  31.451  26.290  30.257  0.0371  0.0641  0.0082
41505W        W84443  31.481  23.185  31.235 -0.1379  0.3617  0.0747
41506W        W84444  31.463  26.247  28.993 -0.0204  0.2760 -0.1444
41507W        W84445  32.257  22.239  26.985 -0.0662 -0.3087 -0.0587
41508W        W84446  29.888  23.208  27.697  0.1980  0.3111  0.4010
41509W        W84447  32.332  23.799  29.381 -0.0344  0.0703 -0.1001
41510W        W84448  30.668  21.389  29.470  0.1566 -0.2010 -0.1565
41511W        W84449  29.987  25.038  28.629  0.0421  0.3360  0.2749
41512W        W84450  30.472  22.050  30.376 -0.1122 -0.0709 -0.1959
41513W        W84451  31.702  25.128  29.451 -0.4039  0.1628 -0.1936
41514W        W84452  29.946  24.423  28.636  0.2188 -0.0699  0.1567
41515W        W84453  30.892  22.743  28.995 -0.0261 -0.0381 -0.4053
41516W        W84454  30.086  24.852  29.634  0.1689 -0.4477 -0.1472
41517W        W84455  27.913  25.296  30.193  0.0632  0.1314 -0.0549
41518W        W84456  31.755  24.476  28.471  0.0525  0.3028 -0.1098
41519W        W84457  32.996  26.312  28.912 -0.1338 -0.2530  0.1861
41520W        W84458  29.617  24.926  27.457 -0.2986 -0.1400  0.0756
41521W        W84459  29.022  23.522  28.893  0.0444  0.2652  0.0141
41522W        W84460  28.603  24.144   0.727  0.2025  0.3087 -0.1683
41523W        W84461  30.175  24.572  30.117  0.0754  0.0528  0.1033
41524W        W84462  30.409  21.074  26.620 -0.0656  0.1246 -0.0745
41525W        W84463  31.422  24.412  31.082  0.0810 -0.0948  0.0036
41526W        W84464  31.025  24.933   0.062 -0.1673  0.0155 -0.1892
41527W        W84465  34.153  22.440  30.928 -0.0397 -0.0390 -0.2918
41528W        W84466  31.389  24.839  30.855  0.2157  0.1306 -0.1949
41529W        W84467  32.064  24.625  29.629  0.2746 -0.3448  0.0504
41530W        W84468  30.975  23.910  28.739  0.0170  0.1467  0.0506
41531W        W84469  33.016  22.424  29.987  0.1426 -0.1356 -0.1426
41532W        W84470  32.110  21.950  29.927 -0.2281 -0.0521  0.0390
41533W        W84471  29.357  25.171  27.786  0.2508  0.0927  0.1203
41534W        W84472  30.907  25.508  28.233  0.0327 -0.3822  0.4225
41535W        W84473  33.401  26.014  29.093  0.4202  0.0799 -0.0574
41536W        W84474  31.379  23.335  27.518 -0.0831  0.3059 -0.1274
41537W        W84475  29.548  25.380  30.483 -0.0531  0.0399  0.1793
41538W        W84476  29.627  23.064  31.130  0.3175 -0.0747  0.2243
41539W        W84477  30.736  24.213  30.536  0.1107  0.2476  0.3547
41540W        W84478  28.292  26.195  27.748 -0.1375 -0.0634  0.2284
41541W        W84479  31.102  22.464  29.937  0.3202  0.0041 -0.0610
41542W        W84480  29.099  24.734  27.913 -0.0755 -0.1000  0.0257
41543W        W84481  27.998  23.464  31.675 -0.0185 -0.1179  0.2794
41544W        W84482  30.674  26.172  29.453 -0.0754  0.0820 -0.0107
41545W        W84483  33.208  22.165  26.732  0.0180  0.0841  0.0094
41546W        W84484  29.454  22.346  31.361  0.3952  0.0740  0.2835
41547W        W84485  33.169  22.089  30.954  0.3079  0.2037  0.1195
41548W        W84486  29.997  24.099  29.912 -0.3270  0.2612 -0.1852
41549W        W84487  33.366  25.402  28.287  0.0707 -0.1121  0.4661
41550W        W84488  34.182  23.643  29.061  0.1300  0.3038 -0.1956
41551W        W84489  32.202  24.980  29.315  0.1788 -0.1707  0.1192
41552W        W84490  28.763  24.449  29.573  0.0033 -0.1443  0.0537
41553W        W84491  29.445  22.909  29.361  0.4035 -0.0195  0.3742
41554W        W84492  29.389  21.699   0.126 -0.1730  0.0957 -0.3418
41555W        W84493  29.253  23.149  31.655  0.0511  0.4144  0.0398
41556W        W84494  31.928  23.422  30.241 -0.1967 -0.3509 -0.1017
41557W        W84495  30.667  21.779  29.825 -0.2600 -0.2450  0.1772
41558W        W84496  30.850  22.203  29.568 -0.2520  0.0321 -0.4644
41559W        W84497  30.070  23.945  28.292  0.1783 -0.2478 -0.0728
41560W        W84498  29.904  25.556  28.054 -0.0128  0.0797 -0.2085
41561W        W84499  33.172  23.855  31.095  0.0452  0.0307  0.3321
41562W        W84500  31.711  23.887  27.303 -0.0397 -0.1545  0.1145
41563W        W84501  33.387  24.900  31.575 -0.1017  0.0326  0.1399
41564W        W84502  31.743  25.327  28.724  0.1969  0.0647 -0.1791
41565W        W84503  30.343  23.550  31.003  0.0118  0.2812 -0.2364
41566W        W84504  30.397  23.535  28.088  0.0698  0.1752 -0.0878
41567W        W84505  29.041  26.668  28.879 -0.3396  0.4418  0.0535
41568W        W84506  30.072  25.934  29.723  0.0889 -0.1487 -0.1544
41569W        W84507  32.130  22.510  28.409 -0.0448 -0.0298 -0.1220
41570W        W84508  30.666  25.881  30.193  0.0760  0.2901  0.1634
41571W        W84509  30.547  23.202  28.421  0.1390  0.0555 -0.0231
41572W        W84510  29.573  25.460  30.957 -0.0552  0.0092  0.2006
41573W        W84511  31.600  22.637  30.330 -0.0927  0.4176  0.1270
41574W        W84512  32.001  24.352  28.887  0.1101  0.0944  0.1132
41575W        W84513  30.711  23.503  28.821  0.0454  0.1307 -0.6473
41576W        W84514  30.424  23.014  27.804 -0.1985  0.2323 -0.2310
41577W        W84515  33.117  26.200  29.452 -0.1754 -0.1667 -0.0757
41578W        W84516  29.439  24.096  27.168  0.1911 -0.2577  0.2764
41579W        W84517  29.554  24.771  28.641  0.1956 -0.0195 -0.0451
41580W        W84518  31.866  24.834  28.885  0.0103 -0.3101 -0.0440
41581W        W84519  32.108  22.822  29.688  0.0735  0.0846 -0.1174
41582W        W84520  26.674  24.516   0.579  0.1467 -0.1180  0.2840
41583W        W84521  31.774  23.475   1.113 -0.0337  0.1067 -0.2167
41584W        W84522  29.532  23.414  29.026 -0.1238  0.1654  0.0198
41585W        W84523  29.179  25.864  30.900 -0.0676 -0.1837 -0.0730
41586W        W84524  32.576  23.145  28.460 -0.2415  0.2356 -0.0009
41587W        W84525  31.315  23.235  28.035  0.1147 -0.1005  0.2071
41588W        W84526  31.200  23.160  30.653  0.0601 -0.1441 -0.0225
41589W        W84527  33.144  24.206  27.307  0.0942  0.1461  0.1277
41590W        W84528  31.395  22.576  28.908  0.0586 -0.3180 -0.0150
41591W        W84529  31.610  23.044  29.356 -0.0192 -0.1602 -0.3510
41592W        W84530  30.259  24.404  30.559  0.1225 -0.1671 -0.2394
41593W        W84531  30.785  27.379  29.408 -0.1010 -0.0647  0.1081
41594W        W84532  31.609  25.960  29.485  0.0042  0.0717 -0.2669
41595W        W84533  30.496  22.180  28.916 -0.0059  0.2109  0.3439
41596W        W84534  31.900  25.042  27.540  0.1611 -0.1467  0.3605
41597W        W84535  29.940  25.148  30.135 -0.1138  0.0292 -0.3971
41598W        W84536  31.067  24.086  31.825  0.2465  0.1750  0.1796
41599W        W84537  32.097  25.756  28.655 -0.1451  0.0712  0.0196
41600W        W84538  30.720  23.489  30.173 -0.2967  0.1057 -0.1878
41601W        W84539  30.577  24.019  28.047 -0.0353 -0.2315 -0.2011
41602W        W84540  31.386  22.255  28.017  0.2630 -0.1832  0.0697
41603W        W84541  28.151  25.172  27.960 -0.1096  0.1082  0.0352
41604W        W84542  30.684  23.270  29.738  0.0488  0.0592  0.2999
41605W        W84543  30.137  21.980  29.951  0.2782  0.3290 -0.2032
41606W        W84544  32.363  21.851  31.332  0.0271  0.2036 -0.2578
41607W        W84545  32.238  24.929  30.434 -0.1347 -0.3159  0.0119
41608W        W84546  31.345  24.169  28.500 -0.0358  0.1333 -0.2544
41609W        W84547  32.811  24.870  29.136 -0.3027 -0.1650 -0.3170
41610W        W84548  29.865  24.173  27.855 -0.1877  0.0306  0.0943
41611W        W84549  31.398  22.791  30.994  0.1270 -0.0904 -0.0914
41612W        W84550  30.923  23.997  30.121  0.1476 -0.0737 -0.1960
41613W        W84551  30.932  24.391  31.085 -0.2030 -0.3641 -0.2272
41614W        W84552  32.160  24.352  31.029 -0.3093  0.4554 -0.0748
41615W        W84553  30.899  24.377  29.003 -0.1156 -0.0688  0.2611
41616W        W84554  30.777  23.721  30.692  0.2192 -0.1249  0.0326
41617W        W84555  30.145  21.130  28.973  0.5073 -0.1520 -0.3124
41618W        W84556  29.450  26.335  29.013 -0.1599  0.1880 -0.0519
41619W        W84557  28.418  25.636  27.747 -0.1225 -0.0598  0.3388
41620W        W84558  29.094  20.542  30.856 -0.1306  0.0906  0.6531
41621W        W84559  32.072  26.439  30.230 -0.2235  0.1678  0.3354
41622W        W84560  29.426  24.494  28.241  0.1150 -0.0956 -0.0411
41623W        W84561  32.357  24.552  30.067  0.0480 -0.1501 -0.0131
41624W        W84562  29.457  25.803  27.814  0.4060  0.0409  0.0366
41625W        W84563  32.634  22.766  29.794 -0.1407 -0.0478  0.1837
41626W        W84564  29.375  25.126  30.099 -0.2613  0.0036  0.0883
41627W        W84565  28.338  23.607  27.835 -0.0884 -0.1301  0.3941
41628W        W84566  29.661  25.135  29.648  0.3171 -0.0292  0.0857
41629W        W84567  32.376  23.213  29.825  0.1279  0.1727 -0.1002
41630W        W84568  34.637  24.483  26.847 -0.1378 -0.3334  0.1461
41631W        W84569  30.737  22.645  31.836 -0.1004 -0.0361 -0.2124
41632W        W84570  30.497  23.026  28.871 -0.1269  0.1348  0.0724
41633W        W84571  27.712  25.995  29.608  0.1836 -0.6475 -0.2830
41634W        W84572  30.073  23.501  29.110 -0.2094 -0.1595  0.0664
41635W        W84573  32.354  22.655  29.173  0.3976 -0.0080 -0.2503
41636W        W84574  30.825  25.014  29.749  0.0797  0.1512 -0.1451
41637W        W84575  31.293  24.864  29.665 -0.0566  0.0053  0.0805
41638W        W84576  27.835  23.852  27.861 -0.1897  0.0629 -0.3159
41639W        W84577  31.551  23.594  30.538  0.0025 -0.0265 -0.0610
41640W        W84578  29.481  23.981  29.694  0.0662 -0.0491  0.0820
41641W        W84579  28.873  25.866  29.428  0.1089 -0.1536  0.1961
41642W        W84580  32.361  26.179  28.491  0.0410 -0.0034  0.0982
41643W        W84581  28.284  25.173  29.293 -0.0351  0.1202  0.1270
41644W        W84582  29.809  24.411  29.484  0.1360  0.1910  0.1323
41645W        W84583  29.708  23.003  31.616 -0.2948 -0.0243 -0.2060
41646W        W84584  31.702  23.276  29.798  0.1600 -0.0098 -0.1588
41647W        W84585  30.049  22.725  28.102 -0.0406  0.0444  0.0475
41648W        W84586  30.184  24.363  29.066 -0.3175 -0.1600  0.0795
41649W        W84587  29.111  23.084  29.725 -0.0557 -0.0826 -0.5962
41650W        W84588  32.750  24.371  28.863 -0.4159 -0.4156  0.4262
41651W        W84589  29.063  23.893  29.306 -0.2279 -0.0153  0.1900
41652W        W84590  28.670  25.163  30.828 -0.1888  0.0071  0.2258
41653W        W84591  31.848  22.398  29.789 -0.1094 -0.5234 -0.0112
41654W        W84592  32.255  25.202  28.785  0.1560  0.0917  0.2082
41655W        W84593  31.617  24.044  28.983  0.2113  0.1070  0.4936
41656W        W84594  30.228  23.577  28.600  0.1325 -0.2593 -0.3305
41657W        W84595  29.506  25.347  29.239  0.2074 -0.0296 -0.1893
41658W        W84596  30.918  24.806  29.258 -0.2234  0.2798 -0.3506
41659W        W84597  29.244  22.615  29.692 -0.3109  0.0430  0.2121
41660W        W84598  30.332  23.096  29.442  0.0645 -0.3009 -0.1831
41661W        W84599  28.296  24.073  27.927 -0.0399  0.1723  0.1125
41662W        W84600  29.092  25.418  30.775  0.0073  0.2992 -0.0787
41663W        W84601  32.482  20.596  28.615  0.3234 -0.1113 -0.1152
41664W        W84602  33.259  24.767  29.828 -0.0499  0.3500 -0.1169
41665W        W84603  29.633  23.461  29.997 -0.1444  0.1944  0.1584
41666W        W84604  31.665  21.931  29.764  0.0127 -0.1501 -0.4304
41667W        W84605  31.924  23.647  29.025  0.1237 -0.0127  0.0522
41668W        W84606  31.754  22.817  31.544 -0.0513 -0.4040  0.1878
41669W        W84607  30.197  23.326  29.964  0.2837  0.3277 -0.0556
41670W        W84608  32.558  24.674  29.553 -0.0497  0.2922 -0.1871
41671W        W84609  28.335  23.379  31.294  0.0356  0.0237  0.1994
41672W        W84610  31.409  26.568  31.419 -0.0479 -0.3327  0.0594
41673W        W84611  29.787  24.287  30.322 -0.0172  0.2727 -0.2628
41674W        W84612  31.204  22.166  28.507 -0.0757 -0.0129 -0.1355
41675W        W84613  30.767  21.712  28.140  0.2142  0.2075 -0.3073
41676W        W84614  31.938  25.299  30.156  0.0406 -0.1954 -0.2110
41677W        W84615  33.285  24.233  29.016  0.2080  0.2114  0.2830
41678W        W84616  30.434  25.374  28.622  0.1194  0.2626 -0.2583
41679W        W84617  31.772  22.588  29.319 -0.1155  0.2884  0.1036
41680W        W84618  30.142  22.513  30.223  0.0584 -0.0810 -0.0931
41681W        W84619  33.328  23.418  29.678 -0.1836 -0.0926  0.0593
41682W        W84620  30.040  23.484  27.253 -0.1126  0.0638 -0.3403
41683W        W84621  30.277  25.871  28.796 -0.1696 -0.2062  0.0854
41684W        W84622  32.301  22.784  30.160  0.1100  0.3024  0.0546
41685W        W84623  30.577  25.685  29.662  0.0033  0.0819  0.1568
41686W        W84624  29.758  22.190  29.646  0.0879 -0.2701  0.0654
41687W        W84625  31.497  22.784  29.830 -0.1130 -0.1076 -0.0496
41688W        W84626  33.703  24.890  30.452  0.2647  0.1059 -0.1256
41689W        W84627  30.760  23.063  30.551 -0.1142 -0.0847 -0.0571
41690W        W84628  29.860  23.397  30.759 -0.0171 -0.0376 -0.4026
41691W        W84629  32.089  25.970  31.147  0.0495 -0.0024  0.0610
41692W        W84630  33.588  23.050  28.824 -0.0500 -0.0411  0.0024
41693W        W84631  32.684  22.071  30.856 -0.1196 -0.1632  0.0922
41694W        W84632  33.357  24.063  28.568  0.2121 -0.0349  0.1883
41695W        W84633  31.307  23.027  28.927 -0.0268 -0.2750 -0.0458
41696W        W84634  29.852  21.595  30.536 -0.0317  0.1762 -0.0243
41697W        W84635  30.796  23.293  30.962  0.0305  0.2405  0.0073
41698W        W84636  29.610  22.724  27.488 -0.1605  0.2846  0.1838
41699W        W84637  31.447  24.285  30.156  0.2774  0.3265  0.1458
41700W        W84638  30.910  24.742  27.581 -0.0344 -0.0620  0.0157
41701W        W84639  32.698  24.922  28.630 -0.3724  0.6314  0.0564
41702W        W84640  33.049  22.760  28.610 -0.0942  0.2155 -0.0602
41703W        W84641  29.603  23.010  30.608  0.2880 -0.0995  0.1107
41704W        W84642  29.027  25.659  31.795  0.0637 -0.1664  0.1273
41705W        W84643  28.998  23.776  27.016  0.1865 -0.0788  0.3056
41706W        W84644  30.424  23.404  27.511 -0.4237  0.2270  0.3464
41707W        W84645  31.278  24.266  29.319 -0.0716 -0.0630 -0.2222
41708W        W84646  31.520  24.005  30.805  0.1176  0.0485 -0.2181
41709W        W84647  31.845  21.546  28.165  0.1959  0.0614  0.2375
41710W        W84648  33.077  20.451  30.833 -0.0193 -0.0898  0.0968
41711W        W84649  29.332  25.935  28.542  0.1180 -0.0276 -0.0446
41712W        W84650  31.120  21.105  29.279 -0.0212 -0.0011  0.0964
41713W        W84651  30.050  25.090  30.878 -0.3623  0.0576 -0.2215
41714W        W84652  28.886  25.772  30.470  0.1078 -0.3006  0.2184
41715W        W84653  31.115  25.811  29.612  0.2040  0.3046 -0.3857
41716W        W84654  31.931  22.235  31.441 -0.1729  0.2341  0.1502
41717W        W84655  31.253  22.656  29.390 -0.0005  0.0262 -0.0616
41718W        W84656  29.944  22.116  29.159  0.0677 -0.0994  0.1849
41719W        W84657  31.828  23.948  30.346  0.3438  0.1061  0.2093
41720W        W84658  31.998  24.202  29.969 -0.1175 -0.0174  0.2268
41721W        W84659  29.730  24.562  29.916 -0.0716 -0.0335 -0.3105
41722W        W84660  31.197  24.760  30.198  0.3644  0.3066 -0.0111
41723W        W84661  34.054  23.166  29.836 -0.0090  0.1106 -0.0789
41724W        W84662  30.317  25.803  29.279 -0.2303 -0.1305 -0.3108
41725W        W84663  28.897  24.087  31.963 -0.1059  0.2998 -0.2572
41726W        W84664  29.075  24.098   0.461  0.1211  0.0220 -0.3045
41727W        W84665  31.666  24.117  28.075 -0.2213  0.2382 -0.1348
41728W        W84666  29.863  23.453  29.565 -0.0420 -0.1755 -0.0915
41729W        W84667  30.207  23.847  27.698 -0.0803 -0.1465 -0.3544
41730W        W84668  29.527  25.717  31.828  0.1925  0.0523 -0.2832
41731W        W84669  30.845  25.119  30.312 -0.1891  0.0213 -0.1098
41732W        W84670  31.070  26.456  28.728 -0.3267 -0.0123  0.3171
41733W        W84671  32.580  25.103  27.107 -0.0335 -0.3028 -0.0490
41734W        W84672  32.352  24.714  28.924  0.0535 -0.1991 -0.0094
41735W        W84673  31.972  25.562  29.168 -0.2159  0.0277 -0.1292
41736W        W84674  31.043  23.214  28.472 -0.1623  0.1708  0.1025
41737W        W84675  28.554  25.546  29.068 -0.1472 -0.2556  0.1043
41738W        W84676  27.942  24.831  28.991  0.0015 -0.1043 -0.2610
41739W        W84677  32.562  26.122  29.413  0.0423 -0.0610 -0.1323
41740W        W84678  28.924  26.220  28.627  0.1113 -0.1982 -0.0885
41741W        W84679  31.189  24.383  30.608  0.0715 -0.3783 -0.1000
41742W        W84680  31.814  22.344  27.578 -0.2410 -0.2758 -0.0368
41743W        W84681  32.613  23.503  28.977  0.1038 -0.2556 -0.0863
41744W        W84682  31.783  22.565  28.107  0.1817 -0.1719 -0.0857
41745W        W84683  32.404  25.185  31.627 -0.2831 -0.0517 -0.2995
41746W        W84684  30.245  22.282  29.564  0.1550  0.0491  0.0446
41747W        W84685  30.809  21.913  28.664 -0.1815 -0.2532  0.1827
41748W        W84686  30.465  23.710  29.816  0.2545 -0.1207  0.0774
41749W        W84687  32.883  22.318   0.004 -0.0533 -0.0603 -0.2918
41750W        W84688  29.226  25.928  29.918 -0.1212 -0.0473  0.2082
41751W        W84689  32.107  25.542  27.727  0.0424 -0.1485 -0.0476
41752W        W84690  29.746  23.836  29.320 -0.0601  0.2757 -0.0079
41753W        W84691  29.893  22.609  29.423  0.0464  0.4954  0.0318
41754W        W84692  32.550  22.501  30.622 -0.0111  0.2967  0.1817
41755W        W84693  30.073  23.169  28.287  0.2178  0.3001  0.2400
41756W        W84694  30.603  22.319  29.978  0.1638  0.1069 -0.1563
41757W        W84695  30.594  26.631  29.208  0.2855  0.2385  0.3734
41758W        W84696  29.853  27.019  30.207 -0.1376 -0.0392 -0.0918
41759W        W84697  30.982  26.193  29.962 -0.0725  0.2214 -0.0921
41760W        W84698  29.457  21.607  29.511  0.1737 -0.0129 -0.1261
41761W        W84699  31.943  24.148  29.345 -0.3240  0.0045  0.1483
41762W        W84700  30.200  24.361  31.917 -0.0549 -0.1577  0.1654
41763W        W84701  32.322  22.129  29.016  0.1535  0.0614  0.0759
41764W        W84702  29.695  22.661  28.574  0.0499  0.0670 -0.0177
41765W        W84703  32.449  23.778  28.261  0.2642 -0.0283 -0.1414
41766W        W84704  29.955  23.959  28.855  0.1996  0.1770  0.0653
41767W        W84705  30.136  22.145  30.799 -0.0350 -0.1856  0.0774
41768W        W84706  30.213  24.002  29.504  0.1924 -0.1420 -0.1264
41769W        W84707  32.902  23.941  29.789  0.1366  0.1161 -0.1153
41770W        W84708  31.019  22.262  29.043 -0.2537  0.0396 -0.0756
41771W        W84709  31.741  25.011  30.508 -0.2857  0.0571  0.2882
41772W        W84710  29.289  22.871  28.885 -0.2017  0.2887  0.0643
41773W        W84711  31.607  24.090  29.714  0.1864  0.0107 -0.0646
41774W        W84712  29.960  24.807  29.125 -0.0141  0.1262  0.0416
41775W        W84713  29.894  22.951  30.236 -0.1386 -0.1187  0.0059
41776W        W84714  32.573  25.270  30.611  0.2713 -0.0941 -0.1176
41777W        W84715  29.710  21.246  29.794 -0.0344  0.0099  0.2501
41778W        W84716  32.611  24.708  28.175 -0.0838 -0.1285  0.1489
41779W        W84717  33.514  24.521  29.321  0.1148 -0.0266 -0.1106
41780W        W84718  29.890  25.076  27.890 -0.0659  0.0252  0.0419
41781W        W84719  32.926  24.378  28.387  0.0970  0.0847 -0.0169
41782W        W84720  32.547  27.552  29.272 -0.2181  0.2533 -0.0501
41783W        W84721  29.767  22.951  29.787 -0.1072 -0.1647  0.2390
41784W        W84722  32.225  26.444  29.764 -0.2385 -0.2662 -0.1510
41785W        W84723  32.644  25.434  28.861  0.0866  0.2306  0.1563
41786W        W84724  31.101  21.087  28.759 -0.0232  0.0815 -0.0955
41787W        W84725  28.773  22.362  29.709 -0.1579 -0.1790  0.0877
41788W        W84726  28.752  24.711  29.100  0.2059 -0.2587 -0.0441
41789W        W84727  31.879  22.768  28.899  0.0361 -0.1370  0.2841
41790W        W84728  31.137  22.683  30.436  0.0399  0.1419 -0.0975
41791W        W84729  32.146  26.261  27.628  0.1093 -0.3473 -0.0897
41792W        W84730  31.898  21.875  30.593 -0.0784 -0.0750  0.0924
41793W        W84731  30.292  23.437  30.511 -0.1768  0.0983  0.0163
41794W        W84732  29.040  25.022  31.161 -0.1154 -0.2341  0.1462
41795W        W84733  29.715  23.755  27.572  0.1141  0.2404 -0.0454
41796W        W84734  30.416  22.954  30.221 -0.1357 -0.0355 -0.2737
41797W        W84735  29.004  25.463  30.080 -0.3777  0.3151  0.0046
41798W        W84736  30.556  24.015  29.105 -0.1832  0.1357 -0.0313
41799W        W84737  33.415  24.587  28.388 -0.1450 -0.1124 -0.0756
41800W        W84738  31.343  23.557  28.838 -0.1765 -0.0728 -0.0500
41801W        W84739  33.631  24.757  27.552 -0.0410  0.1229  0.0601
41802W        W84740  30.116  22.674  28.881  0.2672 -0.0248  0.3424
41803W        W84741  34.027  23.388  28.620  0.1055 -0.1507  0.0978
41804W        W84742  31.865  22.251  28.938 -0.0769 -0.0483  0.0147
41805W        W84743  30.511  22.560  29.190  0.2313 -0.1285  0.0508
41806W        W84744  29.717  23.574  28.478 -0.0862 -0.3425  0.0400
41807W        W84745  29.894  25.548  28.560 -0.0500  0.0847 -0.1847
41808W        W84746  30.228  22.702  29.821  0.0471  0.1335 -0.0371
41809W        W84747  31.777  22.546   0.003 -0.3416 -0.2485  0.1510
41810W        W84748  29.373  23.462  30.926 -0.1376  0.1117  0.0315
41811W        W84749  30.562  24.569  29.551  0.2397  0.4461  0.1558
41812W        W84750  29.108  23.286  27.105 -0.1517 -0.2824  0.0487
41813W        W84751  31.882  24.355  27.552  0.1481  0.2190 -0.0056
41814W        W84752  29.821  22.140  30.342  0.1540 -0.1320 -0.1013
41815W        W84753  28.961  22.682  30.123 -0.1191 -0.0632  0.2364
41816W        W84754  32.432  24.003  28.867 -0.0122 -0.0249  0.6795
41817W        W84755  33.303  26.443  28.539  0.3725 -0.0642  0.0927
41818W        W84756  31.745  20.894  28.078  0.2190  0.1308  0.1257
41819W        W84757  32.359  24.856  30.901 -0.3223  0.1776  0.0314
41820W        W84758  27.840  23.260  26.791  0.0104 -0.1199 -0.4917
41821W        W84759  31.520  23.223   1.993 -0.0931  0.1936  0.2961
41822W        W84760  30.540  22.539  30.535  0.0967  0.1876  0.1498
41823W        W84761  29.950  22.227  28.162  0.1635 -0.1207  0.0643
41824W        W84762  30.717  22.760  29.667  0.2459  0.0731  0.0513
41825W        W84763  30.383  24.783  28.892 -0.2017 -0.1632  0.0478
41826W        W84764  32.352  26.993  28.593 -0.3309 -0.0332 -0.1550
41827W        W84765  30.670  24.699  30.151  0.1942  0.2451 -0.0247
41828W        W84766  30.076  25.438  29.557 -0.1820 -0.1011 -0.0612
41829W        W84767  29.442  23.003  30.128 -0.1939  0.0660  0.0714
41830W        W84768  32.291  23.126  28.970 -0.1054  0.2704 -0.1140
41831W        W84769  31.850  24.724  30.124 -0.1038  0.0066  0.1821
41832W        W84770  31.619  24.928  28.407  0.1286  0.2934 -0.1693
41833W        W84771  33.655  24.468  30.077 -0.2163  0.0951  0.2169
41834W        W84772  31.939  24.017  28.521  0.1587 -0.1434 -0.2441
41835W        W84773  29.407  23.397   0.105  0.0323  0.0641 -0.0318
41836W        W84774  30.859  23.988  29.630 -0.2221  0.1947  0.2394
41837W        W84775  33.835  25.450  29.575 -0.2847 -0.0038 -0.2211
41838W        W84776  29.795  22.143  28.651  0.3905  0.2050  0.0224
41839W        W84777  33.377  22.583  29.669  0.0190 -0.1500  0.0641
41840W        W84778  29.711  25.774  29.027  0.1079  0.1847 -0.0559
41841W        W84779  29.370  24.630  30.275  0.0584 -0.3222  0.0832
41842W        W84780  31.081  22.665  28.547 -0.2413  0.3284  0.1145
41843W        W84781  30.673  24.021   0.125  0.0761 -0.2427  0.0761
41844W        W84782  31.404  24.958  29.033 -0.0074 -0.0365 -0.2689
41845W        W84783  32.666  23.087  30.703 -0.2637  0.0542  0.0520
41846W        W84784  29.871  23.079  29.200 -0.1468  0.3259 -0.5756
41847W        W84785  33.948  23.316  27.613  0.1763  0.0132  0.0820
41848W        W84786  31.512  26.771  30.933 -0.0467 -0.0217 -0.4831
41849W        W84787  32.304  25.184   1.208  0.1002  0.0031  0.0868
41850W        W84788  31.406  25.569  29.192  0.0332 -0.0466  0.0246
41851W        W84789  31.510  25.502  29.702  0.2215  0.2470 -0.0064
41852W        W84790  29.736  21.725  31.737 -0.0479  0.0200  0.1925
41853W        W84791  29.634  23.078  28.201 -0.2951 -0.1046  0.0581
41854W        W84792  30.829  23.211  29.215 -0.1334  0.0032 -0.0213
41855W        W84793  32.010  23.689  29.819 -0.1391  0.1574 -0.2845
41856W        W84794  30.926  22.687  30.896  0.3196 -0.0806  0.0727
41857W        W84795  32.970  22.849  27.941 -0.4523 -0.3256  0.3673
41858W        W84796  29.856  25.591  31.375 -0.0652 -0.1936  0.3155
41859W        W84797  30.984  26.010  29.103 -0.2520  0.3178  0.4471
41860W        W84798  32.057  23.412  30.781  0.2424 -0.1832  0.0856
41861W        W84799  31.016  24.443  29.751 -0.0553 -0.1170 -0.2689
41862W        W84800  28.977  23.052   0.487 -0.0187 -0.1577  0.0012
41863W        W84801  28.536  25.627  30.899 -0.0562 -0.0457 -0.3610
41864W        W84802  30.113  24.291  31.364  0.0338 -0.0347  0.0478
41865W        W84803  30.298  25.441   0.082 -0.0668  0.3826 -0.3197
41866W        W84804  30.795  23.665  31.723 -0.0063 -0.1294  0.0072
41867W        W84805  31.333  22.992  31.725  0.1476 -0.0027  0.0638
41868W        W84806  32.192  23.736  31.201  0.0271  0.2517 -0.0010
41869W        W84807  31.948  24.297   0.154 -0.1031 -0.0138 -0.0634
41870W        W84808  31.620  23.433  31.954 -0.0584 -0.2556 -0.2016
41871W        W84809  30.634  23.211  31.899  0.2114 -0.1804  0.0305
41872W        W84810  30.629  24.607   0.166 -0.3955 -0.0286  0.0403
41873W        W84811  31.243  23.573  30.954  0.2368 -0.3974  0.0199
41874W        W84812  32.855  22.544  29.433 -0.1326  0.0669  0.4241
41875W        W84813  29.353  24.938  30.757  0.2437  0.1199  0.1364
41876W        W84814  28.027  24.434  30.752  0.0443  0.0089  0.0460
41877W        W84815  31.047  24.580  31.639  0.0361  0.1260 -0.2884
41878W        W84816  28.820  20.868   0.287 -0.1716 -0.3289 -0.0081
41879W        W84817  29.432  23.611  31.421  0.0245  0.0430 -0.1266
41880W        W84818  29.724  23.079   0.192  0.1544 -0.0889 -0.0100
41881W        W84819  29.220  24.414  31.761 -0.1629 -0.0205  0.1593
41882W        W84820  32.486  24.067  30.819 -0.0009 -0.1688  0.4037
41883W        W84821  31.057  23.331  31.393  0.0594  0.1820 -0.0187
41884W        W84822  32.239  22.227  30.353  0.4883 -0.3577 -0.0608
41885W        W84823  32.270  22.756   1.412  0.0652 -0.1475 -0.1550
41886W        W84824  30.387  23.941  30.310 -0.2869  0.0302  0.3090
41887W        W84825  28.472  25.312  30.326 -0.2222 -0.0320  0.1481
41888W        W84826  28.087  22.160  31.490  0.1546 -0.1565  0.0015
41889W        W84827  30.436  24.673  31.596  0.1258 -0.1486  0.0512
41890W        W84828  30.102  23.916  30.764 -0.1136 -0.2311  0.0810
41891W        W84829  30.373  23.431  31.551 -0.1650 -0.2685  0.1831
41892W        W84830  32.658  23.582  30.833  0.1632 -0.2134 -0.1332
41893W        W84831  31.740  23.636  31.100 -0.0123  0.0141  0.1427
41894W        W84832  28.135  23.590   0.253 -0.2459 -0.1103 -0.0298
41895W        W84833  29.849  24.357  30.914  0.1428 -0.2029  0.2510
41896W        W84834  29.854  24.658  31.694 -0.1087 -0.3306 -0.0308
41897W        W84835  31.537  23.756  31.559  0.0723  0.1176 -0.1882
41898W        W84836  32.144  24.353  30.437  0.1858 -0.3295  0.0385
41899W        W84837  31.809  22.431  31.045 -0.0528 -0.0223  0.0125
41900W        W84838  33.710  22.713  31.715  0.0825 -0.1655 -0.0120
41901W        W84839  31.399  25.018   1.522 -0.2613  0.1330  0.2000
41902W        W84840  29.702  22.318   0.824  0.1946 -0.0763  0.1874
41903W        W84841  30.766  24.685  30.697  0.0993  0.1725  0.1609
41904W        W84842  30.875  22.280  31.488 -0.2092 -0.3127 -0.2676
41905W        W84843  31.719  25.947  30.485  0.3155  0.2853  0.1789
41906W        W84844  31.225  21.305  30.628 -0.1212 -0.0252  0.2645
41907W        W84845  31.697  24.076   1.233 -0.1011  0.0992 -0.0485
41908W        W84846  30.818  25.817  31.739 -0.1050  0.2410  0.1848
41909W        W84847  28.221  25.708  29.415  0.2378 -0.0326 -0.2551
41910W        W84848  33.087  23.963   0.136  0.0145  0.0655  0.1311
41911W        W84849  31.476  21.179   0.927 -0.1186 -0.3783  0.0649
41912W        W84850  30.244  22.266  31.241  0.3404  0.2351  0.0455
41913W        W84851  30.437  24.672  31.043  0.0084  0.2051 -0.1750
41914W        W84852  29.889  23.510  31.285 -0.1590  0.1575  0.0819
41915W        W84853   0.010  24.763  31.447 -0.2995 -0.0917 -0.1330
41916W        W84854  33.598  23.997   0.209 -0.0207  0.0232 -0.0360
41917W        W84855  29.582  26.184   1.080  0.1274  0.1230 -0.1148
41918W        W84856  29.374  24.851  31.572  0.2508  0.0459 -0.2339
41919W        W84857  29.878  22.580   0.308  0.2042  0.0808  0.1268
41920W        W84858  27.703  22.608  31.099 -0.1950  0.1727 -0.1862
41921W        W84859  29.618  23.943  31.109 -0.0220  0.1296  0.1637
41922W        W84860  29.447  23.515  30.443  0.1354  0.2062  0.0319
41923W        W84861  29.894  22.174  31.647 -0.2190 -0.0483  0.2126
41924W        W84862  32.673  24.468  31.102  0.1240 -0.0711 -0.0678
41925W        W84863  32.864  23.646  30.323 -0.1711 -0.2065  0.2505
41926W        W84864  33.155  24.245  30.203 -0.0616 -0.0561 -0.1949
41927W        W84865  30.314  27.703  19.183 -0.0193 -0.1639 -0.2320
41928W        W84866  28.748  26.852  17.546  0.0943  0.2301  0.1754
41929W        W84867  32.111  26.253  16.522  0.0974  0.3032 -0.1888
41930W        W84868  32.355  27.909  16.828  0.1609  0.4125  0.1786
41931W        W84869  28.383  26.155  16.046 -0.0021  0.0192 -0.0472
41932W        W84870  31.096  28.740  18.140  0.0637 -0.2128 -0.2071
41933W        W84871  29.909  24.796  18.583 -0.0620 -0.1300  0.1644
41934W        W84872  30.750  29.186  18.938 -0.1443 -0.0679  0.2688
41935W        W84873  31.954  29.827  17.461  0.0007  0.1133  0.0073
41936W        W84874  30.489  27.630  17.279 -0.1066 -0.0789  0.1896
41937W        W84875  31.485  26.275  19.511 -0.1243  0.3819 -0.0135
41938W        W84876  31.264  28.914  18.577  0.3041  0.2044  0.0409
41939W        W84877  30.040  24.987  17.611 -0.1485  0.2769  0.1686
41940W        W84878  30.366  26.122  17.208 -0.3507  0.1897 -0.1513
41941W        W84879  31.556  28.045  18.096 -0.0639 -0.1222  0.0082
41942W        W84880  29.161  27.823  17.866 -0.0708 -0.0690  0.0352
41943W        W84881  29.334  25.810  16.979 -0.1576 -0.0943 -0.3166
41944W        W84882  31.265  28.355  17.885  0.1246 -0.0269 -0.0542
41945W        W84883  30.223  29.907  18.406  0.1277  0.1543 -0.3083
41946W        W84884  31.755  26.035  18.758 -0.0954 -0.2932 -0.0563
41947W        W84885  31.170  25.762  19.497 -0.1698  0.6105 -0.0402
41948W        W84886  30.404  27.107  17.336 -0.0328  0.0270  0.0773
41949W        W84887  29.836  26.373  17.191 -0.1805 -0.3109  0.5379
41950W        W84888  29.615  26.707  17.545 -0.2063  0.1453 -0.1141
41951W        W84889  30.102  27.247  19.175 -0.0933 -0.0758 -0.4626
41952W        W84890  32.102  27.404  17.814  0.2077  0.1057  0.1976
41953W        W84891  31.337  26.969  18.938 -0.1247 -0.0880  0.2030
41954W        W84892  30.795  27.943  16.982 -0.1897 -0.2424 -0.2450
41955W        W84893  30.854  29.275  18.314 -0.1419  0.0124  0.1725
41956W        W84894  30.749  25.941  19.804 -0.1485 -0.1808  0.1885
41957W        W84895  29.545  27.466  17.935  0.0593 -0.1348  0.0154
41958W        W84896  28.824  28.423  17.756  0.1817  0.1287 -0.1321
41959W        W84897  29.513  29.562  18.132  0.0307 -0.1599 -0.1733
41960W        W84898  32.761  27.913  17.113 -0.1820 -0.0596 -0.2848
41961W        W84899  31.804  29.117  19.419  0.1605  0.0329 -0.3107
41962W        W84900  30.529  30.148  19.763  0.1308 -0.1503  0.0449
41963W        W84901  28.751  26.962  16.368  0.0393  0.2411  0.0270
41964W        W84902  30.812  28.681  18.684  0.1055 -0.3463 -0.1637
41965W        W84903  30.024  27.473  20.047 -0.0898  0.0146 -0.0054
41966W        W84904  30.411  27.329  17.802  0.0218  0.1415  0.0356
41967W        W84905  32.446  27.569  17.509  0.2227  0.0035 -0.2413
41968W        W84906  29.664  28.804  17.070  0.0604 -0.0174 -0.0315
41969W        W84907  31.599  27.551  17.442  0.1554 -0.0130 -0.2838
41970W        W84908  30.672  28.324  19.612 -0.0808 -0.0005 -0.1037
41971W        W84909  28.370  27.507  17.723  0.2151 -0.1208  0.0487
41972W        W84910  32.507  27.180  19.865 -0.2862 -0.1639  0.1867
41973W        W84911  29.351  28.836  17.930 -0.0486  0.0054  0.1152
41974W        W84912  33.174  27.605  16.914  0.3898 -0.2381  0.1319
41975W        W84913  30.202  26.371  16.804  0.1036  0.0740  0.2284
41976W        W84914  32.565  26.946  16.405  0.0973  0.2570 -0.0985
41977W        W84915  31.236  26.428  18.159  0.0704  0.0645  0.1014
41978W        W84916  29.387  30.342  18.407 -0.0955 -0.2432  0.1446
41979W        W84917  31.936  26.527  18.307  0.0899  0.1050  0.1542
41980W        W84918  32.220  28.125  18.097  0.1902  0.1191  0.1327
41981W        W84919  30.437  26.637  17.130  0.1343  0.3690 -0.1315
41982W        W84920  31.619  25.017  17.706  0.1329 -0.2331 -0.2083
41983W        W84921  29.734  29.048  18.223  0.1955 -0.4996 -0.0984
41984W        W84922  30.051  27.289  18.153  0.2088  0.0502  0.0646
41985W        W84923  31.857  28.515  16.720  0.1277  0.3130 -0.1278
41986W        W84924  30.700  29.148  17.833 -0.2340  0.2245 -0.1763
41987W        W84925  31.933  29.365  17.267 -0.0556  0.0309  0.0920
41988W        W84926  28.874  26.100  16.845  0.1389 -0.0438 -0.0749
41989W        W84927  29.709  27.042  18.958  0.0366 -0.1749 -0.2475
41990W        W84928  29.416  27.594  18.741  0.0231  0.0962 -0.1401
41991W        W84929  30.387  25.584  17.161 -0.0325 -0.0084 -0.0902
41992W        W84930  32.458  27.863  18.491  0.1684  0.1195  0.5082
41993W        W84931  29.134  27.738  19.231 -0.1647  0.0215  0.2607
41994W        W84932  34.328  26.635  18.324  0.0579  0.2323  0.0533
41995W        W84933  31.249  27.600  18.208 -0.2174  0.0520  0.0300
41996W        W84934  31.213  29.027  20.440  0.1459  0.1309  0.0804
41997W        W84935  32.087  28.871  16.430 -0.2813 -0.1853  0.1691
41998W        W84936  31.740  26.052  18.226  0.3891 -0.0417  0.1667
41999W        W84937  32.074  26.401  18.779  0.2166 -0.0816 -0.1293
42000W        W84938  30.099  26.661  17.555  0.0288  0.0357  0.0243
42001W        W84939  29.656  26.940  18.022 -0.0924 -0.1392  0.2253
42002W        W84940  31.761  29.667  18.166 -0.2209  0.0116 -0.1572
42003W        W84941  32.337  28.408  16.586 -0.1162 -0.1181 -0.3443
42004W        W84942  29.343  28.528  18.954  0.1328 -0.3433  0.1590
42005W        W84943  30.408  26.683  20.079  0.0633 -0.1625  0.3275
42006W        W84944  31.495  28.081  21.339 -0.1205 -0.0050 -0.1971
42007W        W84945  28.292  26.828  16.625 -0.3832 -0.2331 -0.1226
42008W        W84946  29.937  27.920  18.782  0.1455  0.3438 -0.4229
42009W        W84947  30.029  27.391  18.677  0.1605 -0.3163 -0.0669
42010W        W84948  28.406  25.405  16.685  0.1901  0.1651  0.1394
42011W        W84949  31.405  28.384  18.844  0.1053 -0.1943  0.3451
42012W        W84950  31.897  25.623  16.700  0.4686 -0.0222 -0.1379
42013W        W84951  29.405  26.757  19.239 -0.2100  0.1720 -0.1192
42014W        W84952  32.082  27.541  17.220  0.2543  0.1334 -0.0069
42015W        W84953  30.587  26.354  17.588  0.2127  0.0560 -0.0290
42016W        W84954  33.256  28.924  17.662  0.2516  0.4304  0.2654
42017W        W84955  31.443  27.166  16.529 -0.2564  0.2476 -0.2189
42018W        W84956  31.624  28.868  17.883  0.2918 -0.0477 -0.0081
42019W        W84957  28.761  27.341  19.288  0.0244 -0.3961 -0.1040
42020W        W84958  28.634  25.763  17.689  0.1008  0.0321 -0.0795
42021W        W84959  27.909  25.691  19.852  0.1902  0.0661 -0.0588
42022W        W84960  29.835  25.893  17.199 -0.0102 -0.1649 -0.3119
42023W        W84961  30.960  28.026  18.103  0.4454  0.0443  0.1198
42024W        W84962  29.822  24.789  16.217  0.1886  0.2395 -0.0421
42025W        W84963  32.448  26.477  17.263 -0.2737 -0.0510  0.1554
42026W        W84964  31.277  27.259  17.063 -0.0739 -0.1038  0.1326
42027W        W84965  27.853  26.994  19.121 -0.0146 -0.1731 -0.0535
42028W        W84966  32.042  27.600  18.880  0.3247  0.1166  0.1724
42029W        W84967  30.228  29.163  18.056 -0.0224 -0.0393  0.0746
42030W        W84968  32.452  28.669  20.165 -0.1480  0.0072 -0.0348
42031W        W84969  32.147  29.432  18.407  0.1636  0.2128  0.1905
42032W        W84970  31.303  25.360  17.485  0.2479  0.0683  0.2217
42033W        W84971  28.270  25.286  16.248  0.0027  0.2427 -0.1623
42034W        W84972  29.650  28.594  18.476 -0.1713 -0.2881  0.3448
42035W        W84973  31.116  28.352  18.473 -0.2864 -0.2971  0.1127
42036W        W84974  31.303  26.243  16.821  0.2656  0.0901  0.1348
42037W        W84975  31.958  29.644  19.164  0.0024  0.0589 -0.0264
42038W        W84976  31.066  28.200  17.424  0.1010  0.0124  0.0383
42039W        W84977  31.012  27.262  19.276 -0.1252 -0.2452 -0.0468
42040W        W84978  30.849  26.796  20.289  0.0465  0.0200 -0.2554
42041W        W84979  31.879  26.721  19.716 -0.2496  0.0427  0.0054
42042W        W84980  31.795  27.126  17.491  0.2168 -0.0165  0.0648
42043W        W84981  29.868  25.137  16.564 -0.1183 -0.1049 -0.0621
42044W        W84982  31.167  29.414  17.925  0.2191 -0.3661 -0.2800
42045W        W84983  28.909  27.645  16.914  0.1432 -0.0609 -0.2278
42046W        W84984  30.044  26.345  18.462 -0.2398 -0.1194 -0.0476
42047W        W84985  31.389  28.557  17.385 -0.0272 -0.0506  0.0370
42048W        W84986  31.677  27.351  18.539  0.2179 -0.2003  0.0559
42049W        W84987  29.935  26.192  19.582  0.0415 -0.1733 -0.1113
42050W        W84988  30.818  25.948  18.865  0.1464  0.2139 -0.2431
42051W        W84989  30.409  26.655  16.439 -0.1807 -0.2461 -0.0045
42052W        W84990  28.155  28.040  19.075  0.0690 -0.2494  0.2586
42053W        W84991  31.458  24.624  17.971  0.2137  0.2313 -0.1913
42054W        W84992  31.523  26.394  17.284  0.1760  0.1674 -0.0951
42055W        W84993  31.989  28.263  20.726 -0.0998 -0.4092 -0.6463
42056W        W84994  32.867  28.454  16.844  0.2525 -0.3768  0.1044
42057W        W84995  31.966  25.117  16.744  0.0448  0.0502 -0.1606
42058W        W84996  32.031  26.306  17.031 -0.0613  0.0038  0.0852
42059W        W84997  29.241  27.574  20.037  0.1078  0.4200 -0.0409
42060W        W84998  31.839  27.988  17.005 -0.2710  0.0427  0.2990
42061W        W84999  32.270  29.146  18.021  0.0659 -0.2019 -0.3014
42062W        W85000  31.285  26.274  16.317  0.1563 -0.1268  0.3053
42063W        W85001  31.652  28.871  17.046 -0.2915  0.2602 -0.2086
42064W        W85002  28.672  27.977  19.183 -0.4134  0.1670  0.4189
42065W        W85003  31.895  27.816  20.493  0.2323 -0.1075 -0.3936
42066W        W85004  30.120  28.827  18.412  0.0979  0.1972 -0.2428
42067W        W85005  32.348  25.191  18.085  0.4874  0.1570  0.2776
42068W        W85006  29.866  28.635  17.977  0.2217  0.0451 -0.0928
42069W        W85007  30.812  26.789  17.545  0.0540 -0.1769 -0.0306
42070W        W85008  28.444  28.301  16.418 -0.0266  0.1270 -0.1551
42071W        W85009  32.329  26.425  17.924 -0.2473 -0.1797 -0.0331
42072W        W85010  32.440  24.907  17.691 -0.2152  0.3714  0.1687
42073W        W85011  31.469  25.541  18.415  0.0163  0.3978 -0.1563
42074W        W85012  31.319  27.111  20.379  0.0524 -0.1193  0.2599
42075W        W85013  31.924  28.404  17.236  0.3204 -0.1934 -0.1297
42076W        W85014  31.019  27.282  18.596 -0.0216  0.1823  0.4196
42077W        W85015  30.215  27.119  16.385 -0.2800  0.1921  0.1274
42078W        W85016  31.808  24.419  17.320 -0.0071  0.0945  0.1080
42079W        W85017  30.194  26.853  18.908 -0.4734 -0.2022  0.2892
42080W        W85018  29.036  27.880  19.715  0.2290 -0.0353  0.0166
42081W        W85019  31.930  27.099  20.514  0.0768  0.0655  0.1216
42082W        W85020  31.472  27.935  18.567 -0.3635 -0.1917 -0.1873
42083W        W85021  31.665  27.057  18.156  0.1005 -0.3468  0.1777
42084W        W85022  28.904  26.021  17.333  0.3579  0.0212  0.0618
42085W        W85023  28.822  29.252  19.340  0.0754 -0.0468  0.0768
42086W        W85024  29.930  28.543  17.438  0.2702  0.0736  0.0432
42087W        W85025  31.313  25.844  18.965  0.2096 -0.1252 -0.0662
42088W        W85026  30.368  28.419  18.766  0.0453  0.0696 -0.1205
42089W        W85027  30.283  27.862  16.888  0.1646  0.3388 -0.1538
42090W        W85028  31.300  28.443  20.401 -0.1276 -0.0492  0.2308
42091W        W85029  29.148  27.556  17.375 -0.2453 -0.0328  0.0467
42092W        W85030  33.526  25.515  18.037 -0.3253  0.3151  0.1283
42093W        W85031  28.023  28.305  17.969 -0.1237  0.0877  0.0832
42094W        W85032  31.320  25.713  16.960 -0.1797  0.2630 -0.0775
42095W        W85033  29.819  26.477  17.949 -0.1234  0.0131  0.1715
42096W        W85034  31.349  24.119  17.598 -0.2205  0.0271  0.2884
42097W        W85035  33.412  28.284  18.255 -0.0889 -0.0031  0.0542
42098W        W85036  29.574  25.138  17.709 -0.2714  0.0340  0.3554
42099W        W85037  30.802  25.051  17.453  0.3837 -0.0781  0.3278
42100W        W85038  28.212  28.589  18.875 -0.0426  0.0784 -0.1671
42101W        W85039  32.307  27.179  18.715 -0.2681  0.0217  0.0637
42102W        W85040  31.400  26.767  16.277 -0.1222 -0.1951 -0.3252
42103W        W85041  32.940  27.512  17.459 -0.1945 -0.0687  0.0050
42104W        W85042  30.519  27.244  18.835 -0.2021  0.1590 -0.1567
42105W        W85043  29.528  26.776  17.001 -0.1287  0.3176 -0.0787
42106W        W85044  31.203  27.285  19.847  0.1610 -0.4027 -0.0427
42107W        W85045  31.294  27.811  17.773  0.1094 -0.2021  0.1647
42108W        W85046  28.935  28.450  18.571 -0.1533 -0.1806  0.1355
42109W        W85047  32.700  29.436  18.409  0.2855 -0.1859  0.1037
42110W        W85048  29.775  27.755  16.889 -0.0091 -0.0679 -0.1551
42111W        W85049  29.621  27.198  17.283 -0.1869  0.0821 -0.2119
42112W        W85050  29.139  26.458  19.788  0.2777 -0.2849 -0.1175
42113W        W85051  31.988  27.007  19.054 -0.0109 -0.2019  0.2447
42114W        W85052  30.262  26.822  17.958 -0.0087  0.1941 -0.1255
42115W        W85053  30.889  25.526  17.261 -0.1557  0.1292  0.1941
42116W        W85054  30.758  26.583  18.083  0.2094  0.0194 -0.1742
42117W        W85055  32.332  26.370  19.800  0.1312  0.2429 -0.3980
42118W        W85056  31.471  26.487  18.578  0.1334 -0.1836 -0.2775
42119W        W85057  29.202  29.327  20.273  0.1063  0.3644 -0.1650
42120W        W85058  31.823  25.745  17.707  0.0437 -0.1715 -0.1530
42121W        W85059  31.400  29.379  18.372 -0.0309  0.0876  0.2366
42122W        W85060  30.793  27.683  19.117  0.1924 -0.0353  0.2252
42123W        W85061  29.976  28.082  17.317 -0.3080 -0.0345  0.1005
42124W        W85062  29.003  26.578  18.467 -0.2553 -0.0285 -0.1654
42125W        W85063  28.815  28.132  16.806  0.3255 -0.0228  0.1603
42126W        W85064  31.832  25.850  17.203  0.0679  0.0062 -0.3416
42127W        W85065  29.665  27.955  18.001 -0.1429 -0.1850  0.2615
42128W        W85066  29.203  27.093  17.674 -0.1261  0.2365  0.2354
42129W        W85067  29.590  26.045  18.631 -0.0542  0.1903  0.5357
42130W        W85068  31.988  27.162  16.397  0.1917 -0.1205 -0.0925
42131W        W85069  31.245  28.579  16.841  0.2396 -0.2447 -0.0458
42132W        W85070  30.536  27.125  18.338  0.2073 -0.2218 -0.2582
42133W        W85071  32.476  25.942  20.099 -0.0839  0.0520 -0.0027
42134W        W85072  32.160  27.036  15.850 -0.3272  0.0359 -0.0580
42135W        W85073  33.005  25.603  18.918  0.1542  0.0813  0.1346
42136W        W85074  31.235  25.914  17.952 -0.0714 -0.0015 -0.3488
42137W        W85075  30.769  28.521  17.772 -0.1806  0.3460 -0.0687
42138W        W85076  29.943  26.663  19.315  0.2025  0.0086  0.3022
42139W        W85077  31.806  28.944  18.366  0.0150 -0.1706  0.2273
42140W        W85078  28.317  27.549  19.162 -0.1223 -0.0618  0.0012
42141W        W85079  31.272  26.838  17.388  0.0022  0.0880  0.0657
42142W        W85080  31.303  26.836  17.883 -0.1999  0.3862  0.3732
42143W        W85081  30.800  26.888  18.842  0.2380  0.2826  0.1535
42144W        W85082  32.900  28.851  18.587 -0.0241 -0.0815  0.1710
42145W        W85083  30.870  27.270  17.451 -0.2789 -0.2073  0.0286
42146W        W85084  32.609  25.785  19.172 -0.0179 -0.2163  0.1161
42147W        W85085  29.955  27.169  17.629  0.0024 -0.0710  0.0838
42148W        W85086  32.388  26.668  18.574 -0.0617  0.3094  0.1245
42149W        W85087  31.276  27.305  17.771  0.0448 -0.1247  0.0853
42150W        W85088  29.777  27.676  18.396  0.1826  0.0831 -0.1799
42151W        W85089  31.170  26.711  19.352  0.3847  0.0569 -0.0014
42152W        W85090  32.730  28.023  17.593  0.1811  0.0963 -0.2735
42153W        W85091  30.590  24.251  17.228  0.1583  0.1360 -0.1068
42154W        W85092  31.991  26.278  17.534 -0.0202 -0.0249  0.1996
42155W        W85093  31.875  26.787  17.796 -0.0930  0.4605 -0.4270
42156W        W85094  30.948  28.591  20.082 -0.3215 -0.2790 -0.2437
42157W        W85095  30.517  26.890  19.283  0.1780 -0.3670 -0.1333
42158W        W85096  31.536  29.253  19.898 -0.4213 -0.0182  0.4398
42159W        W85097  31.333  26.799  16.850 -0.1255 -0.1659  0.1061
42160W        W85098  34.254  25.955  20.107 -0.5040 -0.0546 -0.3576
42161W        W85099  31.821  26.295  16.086 -0.0327 -0.0251 -0.2580
42162W        W85100  32.550  26.292  16.779 -0.0504  0.1269  0.0561
42163W        W85101  30.797  26.084  18.040 -0.0673 -0.4365  0.1284
42164W        W85102  32.813  26.381  19.925  0.2377  0.0644  0.0728
42165W        W85103  30.324  25.259  16.137 -0.0637  0.1865  0.0668
42166W        W85104  30.763  27.556  18.123 -0.1263 -0.0703  0.0816
42167W        W85105  29.692  28.908  17.579 -0.1822  0.0071 -0.0137
42168W        W85106  31.604  28.501  18.343 -0.1127  0.0457 -0.2286
42169W        W85107  30.912  26.926  17.063  0.0243  0.0167 -0.2958
42170W        W85108  28.562  26.390  17.176  0.1098  0.1132  0.0041
42171W        W85109  29.257  29.366  19.118 -0.1131 -0.0550 -0.0766
42172W        W85110  30.916  25.958  17.062 -0.1891 -0.0772 -0.0241
42173W        W85111  30.854  27.120  17.930 -0.4404  0.2229  0.0886
42174W        W85112  31.364  27.483  18.957  0.1210  0.0185  0.3375
42175W        W85113  32.460  26.473  20.332 -0.1153  0.0900 -0.0703
42176W        W85114  31.202  24.328  16.678 -0.1403 -0.1864  0.1012
42177W        W85115  32.209  27.476  20.189 -0.1292 -0.1434 -0.5114
42178W        W85116  29.165  28.081  17.413 -0.1565  0.3296  0.0329
42179W        W85117  31.430  25.472  17.944 -0.0019  0.2203  0.0129
42180W        W85118  29.834  28.412  18.933 -0.1642  0.0888 -0.1157
42181W        W85119  29.693  27.575  19.143  0.3258  0.1580 -0.0034
42182W        W85120  29.551  28.285  17.150 -0.2011 -0.0714  0.2258
42183W        W85121  31.613  26.398  17.790  0.1263  0.0811  0.0146
42184W        W85122  32.829  26.957  18.728  0.2124  0.1675 -0.3756
42185W        W85123  30.954  27.805  18.610  0.0533  0.0639 -0.1832
42186W        W85124  31.730  26.673  20.254  0.2238 -0.2124 -0.1071
42187W        W85125  30.687  29.756  18.955 -0.0043 -0.2823  0.2140
42188W        W85126  30.047  27.410  17.161 -0.2688 -0.0426 -0.0789
42189W        W85127  30.485  27.438  19.574  0.0163  0.1910  0.0748
42190W        W85128  33.789  26.769  18.310 -0.0539  0.0295 -0.1120
42191W        W85129  29.712  29.576  18.965 -0.1829  0.0070  0.1476
42192W        W85130  28.913  26.760  21.054 -0.0921  0.3157 -0.2309
42193W        W85131  30.760  26.953  19.712  0.1245  0.0881  0.0837
42194W        W85132  31.774  26.851  18.623 -0.1190  0.1144  0.0156
42195W        W85133  30.129  26.155  16.337  0.1403  0.2585  0.3336
42196W        W85134  31.760  28.390  17.720  0.2939 -0.2413 -0.1638
42197W        W85135  29.067  29.694  19.452 -0.1232  0.0357  0.1464
42198W        W85136  29.960  26.867  18.432  0.1876  0.0003  0.3175
42199W        W85137  29.323  27.817  16.945  0.0431 -0.0767 -0.1082
42200W        W85138  30.675  28.991  16.860  0.0774 -0.4094  0.1152
42201W        W85139  31.541  28.086  17.374 -0.0713 -0.1013  0.1340
42202W        W85140  32.121  28.640  17.999 -0.0301 -0.1398 -0.0381
42203W        W85141  30.973  27.112  16.625  0.3372 -0.2663 -0.1797
42204W        W85142  29.634  27.723  17.387  0.0661 -0.0256  0.0929
42205W        W85143  29.055  26.631  16.694  0.0024  0.0014 -0.1712
42206W        W85144  31.140  29.049  17.123  0.1576 -0.0232  0.2308
42207W        W85145  29.558  28.313  17.674  0.2033 -0.0048  0.0294
42208W        W85146  32.025  28.520  19.672  0.0924 -0.1856  0.2981
42209W        W85147  32.627  25.413  17.688  0.0429 -0.0860 -0.2048
42210W        W85148  32.983  28.432  18.308 -0.0609 -0.1013 -0.0459
42211W        W85149  31.586  27.622  16.405 -0.2355 -0.1159  0.2691
42212W        W85150  30.914  28.659  20.639 -0.1885  0.1818  0.1816
42213W        W85151  29.537  26.560  18.354  0.0051  0.2549  0.3317
42214W        W85152  30.966  26.418  17.184 -0.3569  0.1110  0.0938
42215W        W85153  28.689  28.249  19.693  0.0636  0.2157  0.3817
42216W        W85154  31.739  24.800  19.949 -0.2597 -0.2390 -0.0713
42217W        W85155  28.468  30.254  19.464  0.0838  0.1101  0.1443
42218W        W85156  30.335  28.677  17.796  0.4165  0.1244  0.0037
42219W        W85157  29.768  26.159  16.741  0.0702  0.3541  0.0231
42220W        W85158  30.492  28.349  18.192 -0.2559  0.1608 -0.0698
42221W        W85159  32.649  26.319  19.391 -0.1380  0.1101 -0.1658
42222W        W85160  30.541  28.221  17.345  0.0581 -0.1321  0.2056
42223W        W85161  31.194  26.386  18.964  0.0205  0.1321 -0.1911
42224W        W85162  29.223  28.617  17.461  0.1674 -0.0052 -0.1004
42225W        W85163  29.542  27.960  19.556 -0.0578  0.2394 -0.0451
42226W        W85164  29.950  29.442  18.442  0.0094 -0.0831  0.0971
42227W        W85165  28.094  26.779  17.074  0.0321 -0.0418  0.3211
42228W        W85166  33.064  26.922  17.808 -0.0258  0.1652  0.0390
42229W        W85167  29.598  26.629  19.650  0.0854 -0.0867 -0.0337
42230W        W85168  32.567  26.251  18.900 -0.0478 -0.2865 -0.1039
42231W        W85169  29.133  27.020  17.194  0.0636 -0.0449 -0.0981
42232W        W85170  31.119  27.717  17.264  0.2081 -0.2010  0.0360
42233W        W85171  30.529  28.867  20.272  0.0315 -0.1965 -0.0127
42234W        W85172  29.140  26.268  18.807  0.0848  0.2297 -0.5954
42235W        W85173  32.239  28.074  17.334 -0.1304  0.1612  0.3650
42236W        W85174  32.071  27.424  19.683  0.1275 -0.0585  0.3935
42237W        W85175  31.441  25.629  15.992  0.2028  0.0283  0.1516
42238W        W85176  31.982  30.137  19.978  0.0381 -0.0844  0.0150
42239W        W85177  28.460  25.900  16.600  0.1619  0.1033 -0.0218
42240W        W85178  31.642  27.145  16.040 -0.2222 -0.0094  0.3433
42241W        W85179  29.799  26.538  18.833  0.1051 -0.0189 -0.1181
42242W        W85180  31.253  27.661  19.448  0.4626  0.0663  0.2444
42243W        W85181  31.034  28.699  19.613 -0.2355  0.0097  0.1089
42244W        W85182  30.006  26.188  17.611 -0.1026 -0.2830  0.0339
42245W        W85183  32.552  27.512  16.629  0.1433  0.3274  0.2459
42246W        W85184  33.013  25.965  18.500  0.3663 -0.2766  0.1250
42247W        W85185  30.188  29.075  17.600  0.3014  0.2777  0.0824
42248W        W85186  32.281  27.144  16.842  0.2452  0.0771  0.2309
42249W        W85187  31.508  29.725  17.752 -0.1689  0.2186  0.2348
42250W        W85188  28.878  27.326  19.784 -0.1413  0.0506 -0.2851
42251W        W85189  30.552  30.185  18.137  0.0196  0.0530 -0.2437
42252W        W85190  32.549  28.411  18.590  0.1162 -0.3515  0.1644
42253W        W85191  31.338  24.813  17.371  0.2412 -0.1585 -0.0037
42254W        W85192  29.341  26.299  17.056 -0.0687 -0.3727  0.4302
42255W        W85193  28.664  27.939  17.842 -0.1282  0.1180 -0.2710
42256W        W85194  32.643  27.354  18.409 -0.1993  0.2244  0.3801
42257W        W85195  32.127  26.497  19.327 -0.2405 -0.0800 -0.0757
42258W        W85196  30.352  28.694  17.236 -0.0111  0.2523  0.1164
42259W        W85197  32.209  25.364  18.881  0.1679  0.2450 -0.0582
42260W        W85198  31.484  27.793  19.911  0.2095 -0.1325 -0.0067
42261W        W85199  30.737  29.221  19.465  0.1874  0.0567 -0.2588
42262W        W85200  29.974  26.878  17.151  0.4216  0.0616  0.0233
42263W        W85201  30.335  27.886  19.880  0.0348  0.0152 -0.0617
42264W        W85202  30.743  27.793  17.688  0.0484  0.2698 -0.0341
42265W        W85203  29.435  29.781  17.108 -0.0042  0.0698 -0.0392
42266W        W85204  31.931  27.855  17.669  0.0390  0.1729 -0.0238
42267W        W85205  32.442  27.088  15.440  0.2074 -0.1548 -0.0967
42268W        W85206  33.324  29.494  18.108 -0.2303 -0.0294  0.1059
42269W        W85207  28.864  25.593  17.117 -0.0654 -0.0316 -0.0956
42270W        W85208  32.790  26.784  19.589  0.0935  0.3261  0.1743
42271W        W85209  32.747  24.531  17.744 -0.0220  0.1404 -0.4370
42272W        W85210  30.071  28.313  19.760  0.0501  0.0484  0.2977
42273W        W85211  28.603  26.420  16.564  0.2546 -0.0418  0.0713
42274W        W85212  30.045  27.640  16.470 -0.2879 -0.2473  0.1880
42275W        W85213  30.279  27.792  18.292  0.2251  0.1665 -0.1764
42276W        W85214  30.004  25.168  19.069  0.0411 -0.0484  0.0870
42277W        W85215  29.206  26.250  20.303  0.2102  0.1748 -0.2529
42278W        W85216  28.744  28.906  17.604  0.1438  0.1197  0.1691
42279W        W85217  29.841  25.483  16.908 -0.0421  0.3429  0.0364
42280W        W85218  31.990  28.907  17.517 -0.4601 -0.0627  0.3737
42281W        W85219  30.176  25.768  17.613  0.2263  0.0747 -0.0106
42282W        W85220  28.397  24.885  18.170 -0.0404  0.2006 -0.0629
42283W        W85221  32.681  28.789  17.515  0.2352  0.0484  0.0749
42284W        W85222  32.954  28.388  17.308  0.1641 -0.0675 -0.2806
42285W        W85223  31.209  25.912  17.438  0.0368 -0.0433 -0.0115
42286W        W85224  32.106  29.130  18.871  0.2422 -0.2226 -0.0613
42287W        W85225  29.773  27.196  16.771 -0.1323  0.0687 -0.1136
42288W        W85226  30.715  26.304  20.292 -0.0964 -0.1643 -0.0780
42289W        W85227  31.621  26.551  19.070  0.1367 -0.1378  0.1266
42290W        W85228  29.716  24.322  16.404  0.1526  0.0360  0.2608
42291W        W85229  31.077  26.407  17.684  0.2448  0.1441  0.0752
42292W        W85230  31.506  29.180  17.468  0.1866 -0.1967  0.0952
42293W        W85231  30.882  28.675  17.280 -0.1211  0.2059 -0.2808
42294W        W85232  31.429  27.928  19.089 -0.1248  0.0312  0.3966
42295W        W85233  30.178  28.199  17.740 -0.0160  0.1092  0.0383
42296W        W85234  28.884  26.740  18.987  0.0562 -0.0036 -0.3721
42297W        W85235  32.107  27.524  18.407 -0.1740  0.3516 -0.3026
42298W        W85236  30.814  27.820  19.751 -0.0799  0.0938  0.2665
42299W        W85237  32.554  27.663  17.997  0.1466  0.0305 -0.0467
42300W        W85238  33.911  25.796  19.182  0.0699  0.0994 -0.1891
42301W        W85239  32.016  28.032  16.463 -0.1512 -0.1959  0.0267
42302W        W85240  29.224  25.190  18.383  0.3195 -0.0310  0.0388
42303W        W85241  29.977  27.582  19.532  0.0558  0.1201 -0.3144
42304W        W85242  32.956  27.812  18.483  0.0745  0.4245 -0.0264
42305W        W85243  30.318  26.314  18.020 -0.1023  0.1136 -0.1205
42306W        W85244  31.674  25.220  17.189  0.3918 -0.2835 -0.2123
42307W        W85245  32.085  28.554  18.573  0.0422  0.1689 -0.0032
42308W        W85246  30.424  26.629  18.529 -0.2174 -0.3151 -0.0883
42309W        W85247  31.574  27.630  16.921  0.0129  0.2082  0.2494
42310W        W85248  31.361  26.734  19.882 -0.0052 -0.0836  0.0878
42311W        W85249  30.210  28.575  19.342 -0.3648  0.0207 -0.0734
42312W        W85250  32.913  26.052  20.246 -0.0498 -0.1290 -0.0775
42313W        W85251  31.200  26.876  18.383  0.1468  0.0847  0.0364
42314W        W85252  32.769  27.289  17.027 -0.1325 -0.3093  0.0100
42315W        W85253  31.953  28.012  18.554 -0.0550  0.4236  0.2948
42316W        W85254  32.320  27.976  20.337  0.2991  0.1191 -0.0937
42317W        W85255  30.241  29.068  19.387  0.4093  0.0524  0.0932
42318W        W85256  31.695  27.582  18.001 -0.2284 -0.0928 -0.0681
42319W        W85257  29.141  25.317  17.863 -0.0876  0.3448  0.1984
42320W        W85258  31.884  25.741  16.141  0.1685  0.0340 -0.1457
42321W        W85259  29.980  27.633  17.768  0.2307  0.0020  0.0664
42322W        W85260  32.749  27.506  18.862  0.1450  0.0043  0.1110
42323W        W85261  29.108  26.536  17.412  0.2278 -0.0872 -0.3390
42324W        W85262  30.857  25.530  16.774 -0.2973  0.1686  0.0961
42325W        W85263  30.465  27.846  18.775 -0.0048 -0.0668 -0.2150
42326W        W85264  31.643  28.826  18.938 -0.0379  0.0750  0.0129
42327W        W85265  29.261  27.685  22.722  0.2433  0.0511  0.1642
42328W        W85266  28.734  27.282  21.679  0.0662  0.3338 -0.1460
42329W        W85267  32.562  26.098  20.632 -0.1839 -0.0024  0.0862
42330W        W85268  32.508  26.594  20.908  0.0189  0.2994 -0.0185
42331W        W85269  27.929  27.528  22.035 -0.0420  0.0320  0.0758
42332W        W85270  31.488  31.136  21.042 -0.1806  0.1188 -0.0198
42333W        W85271  28.166  25.741  22.679 -0.1350  0.0962 -0.0907
42334W        W85272  30.872  29.138  22.089 -0.1989 -0.0865  0.0370
42335W        W85273  31.972  29.685  22.538  0.1115  0.1454  0.0577
42336W        W85274  29.267  26.990  19.757 -0.0030 -0.1173 -0.1092
42337W        W85275  30.672  26.631  23.130  0.1133  0.0716 -0.2366
42338W        W85276  29.497  27.623  23.644 -0.0341  0.2221 -0.1797
42339W        W85277  29.855  25.271  20.072 -0.1479  0.0721  0.2453
42340W        W85278  28.255  25.939  21.857 -0.1218 -0.0097  0.1763
42341W        W85279  30.983  27.143  22.509 -0.2406  0.1271 -0.1425
42342W        W85280  28.954  27.690  21.914  0.1837  0.0475  0.2339
42343W        W85281  30.138  25.982  21.349 -0.1108  0.1149  0.1200
42344W        W85282  29.447  26.870  20.973 -0.1680 -0.3533 -0.1247
42345W        W85283  30.578  29.387  20.097  0.0757  0.1569 -0.2220
42346W        W85284  30.115  26.976  23.118  0.2844 -0.0575  0.0766
42347W        W85285  30.931  26.502  24.089  0.0921  0.0270  0.0529
42348W        W85286  31.492  30.230  20.187 -0.2525  0.2248 -0.0218
42349W        W85287  29.411  26.697  20.155  0.0872  0.0671 -0.0106
42350W        W85288  28.251  26.138  23.066 -0.1334 -0.0064 -0.0770
42351W        W85289  29.522  26.472  22.781  0.0434  0.3674 -0.0514
42352W        W85290  30.492  26.504  20.747 -0.0941  0.0934  0.4982
42353W        W85291  30.028  26.996  21.722  0.2943 -0.0609  0.1545
42354W        W85292  31.024  28.247  21.618 -0.1088  0.0103 -0.0567
42355W        W85293  32.008  28.169  21.978  0.0895 -0.0115  0.1893
42356W        W85294  30.988  26.382  24.661 -0.1405 -0.0347 -0.0833
42357W        W85295  29.929  27.715  22.364 -0.0854  0.0962  0.0578
42358W        W85296  30.049  28.118  22.049 -0.1582 -0.2897  0.0846
42359W        W85297  30.805  28.538  21.135 -0.1526 -0.1811  0.0325
42360W        W85298  31.200  28.986  21.130  0.0815 -0.0775  0.0897
42361W        W85299  31.423  28.230  23.864  0.0573  0.1954  0.2884
42362W        W85300  30.513  29.715  22.104  0.3117 -0.5356 -0.0781
42363W        W85301  28.739  27.890  20.127 -0.1564  0.0662  0.0651
42364W        W85302  31.829  28.360  23.588  0.0624 -0.2968  0.2050
42365W        W85303  30.247  28.295  23.799 -0.1044 -0.1434 -0.1666
42366W        W85304  31.347  28.321  23.250 -0.0885  0.1127  0.2084
42367W        W85305  29.600  26.621  21.382 -0.0241 -0.1338  0.2952
42368W        W85306  31.254  29.175  19.425  0.0122 -0.2990  0.0163
42369W        W85307  31.789  27.853  21.687 -0.3590  0.1451 -0.2245
42370W        W85308  29.116  29.648  24.407 -0.1213 -0.1567  0.0827
42371W        W85309  29.649  28.416  20.033 -0.2499  0.1519 -0.0827
42372W        W85310  33.481  27.533  23.105 -0.0101  0.0692  0.0152
42373W        W85311  29.138  28.926  19.900 -0.0634 -0.0277 -0.0018
42374W        W85312  31.513  27.558  21.239 -0.1194 -0.1425  0.0537
42375W        W85313  30.540  27.237  20.221  0.1924 -0.1396  0.2685
42376W        W85314  30.652  25.178  21.782 -0.0597  0.0105 -0.0635
42377W        W85315  29.353  24.321  21.853  0.0008  0.1895  0.2616
42378W        W85316  30.662  28.201  22.102 -0.1848 -0.1827 -0.1462
42379W        W85317  29.745  25.725  22.353 -0.0042 -0.2974  0.2207
42380W        W85318  32.190  27.987  22.466  0.1224  0.0492  0.2726
42381W        W85319  32.091  26.676  20.647  0.0145 -0.0266 -0.3290
42382W        W85320  31.664  26.677  22.159  0.0993 -0.0407 -0.0042
42383W        W85321  29.329  28.269  23.435 -0.0198 -0.1195  0.0607
42384W        W85322  28.898  27.541  22.408 -0.2080 -0.0306  0.2032
42385W        W85323  31.585  28.838  20.174 -0.0813 -0.2373  0.2689
42386W        W85324  31.616  29.046  21.986 -0.2231 -0.2795  0.1198
42387W        W85325  31.011  28.072  19.339  0.0208  0.1823  0.2776
42388W        W85326  29.364  27.389  20.983 -0.0564 -0.1597 -0.1389
42389W        W85327  29.288  27.022  23.560 -0.0275 -0.2721 -0.0537
42390W        W85328  29.585  27.026  25.162 -0.1062  0.1943  0.0700
42391W        W85329  29.554  26.266  19.247 -0.1076 -0.0298 -0.1302
42392W        W85330  32.463  28.218  24.492  0.0003  0.2712 -0.1833
42393W        W85331  28.834  29.207  24.533 -0.1379  0.0280 -0.2084
42394W        W85332  31.268  26.449  20.531  0.1443  0.2160 -0.4086
42395W        W85333  30.465  26.949  21.453  0.0749 -0.1096  0.0932
42396W        W85334  32.758  29.933  23.199  0.1608 -0.0737  0.2119
42397W        W85335  30.312  28.403  20.183 -0.0004 -0.1120  0.0483
42398W        W85336  31.636  25.362  21.668  0.0059 -0.1121 -0.3208
42399W        W85337  30.782  27.037  23.368  0.0465  0.0451 -0.3346
42400W        W85338  30.274  26.899  20.546  0.0436 -0.0920  0.5124
42401W        W85339  29.706  27.106  19.481 -0.0238 -0.3729  0.1235
42402W        W85340  32.217  28.668  22.707  0.3960  0.2423 -0.1945
42403W        W85341  32.342  27.445  21.216 -0.2519 -0.0937 -0.1757
42404W        W85342  31.342  26.999  22.039 -0.0899  0.0012 -0.1586
42405W        W85343  30.468  27.392  23.365  0.4211 -0.0921  0.1862
42406W        W85344  33.504  29.569  22.609 -0.2259 -0.0605 -0.0550
42407W        W85345  30.186  27.906  20.399  0.1613 -0.1491 -0.1391
42408W        W85346  30.582  27.372  21.789  0.1504  0.3028 -0.3647
42409W        W85347  29.712  27.624  21.187 -0.0775  0.0113 -0.2241
42410W        W85348  28.650  25.651  23.954  0.2579 -0.0237 -0.0156
42411W        W85349  29.773  28.429  21.674  0.2958  0.0422 -0.0065
42412W        W85350  34.327  26.325  21.147 -0.0673 -0.2575  0.1562
42413W        W85351  28.893  27.251  22.827 -0.1160  0.1113 -0.0692
42414W        W85352  31.189  25.079  20.836  0.0321  0.1385  0.2753
42415W        W85353  29.286  27.722  20.530 -0.2044  0.0689  0.0129
42416W        W85354  32.567  29.211  21.914  0.0859  0.0202  0.1394
42417W        W85355  30.305  26.267  21.754 -0.4682  0.2078 -0.0556
42418W        W85356  30.537  28.359  20.664 -0.1002 -0.2390 -0.1939
42419W        W85357  27.925  25.290  22.554 -0.1290 -0.0133 -0.0578
42420W        W85358  28.733  24.930  19.897  0.1689  0.2204  0.1144
42421W        W85359  29.850  25.905  23.415 -0.2315 -0.0095 -0.3006
42422W        W85360  28.057  24.878  23.474 -0.1312 -0.4096 -0.0139
42423W        W85361  31.697  28.057  23.063 -0.0145 -0.2836  0.0747
42424W        W85362  28.607  26.780  21.760  0.1746  0.1156 -0.0777
42425W        W85363  28.804  27.118  22.147 -0.0882 -0.0926  0.0015
42426W        W85364  30.190  27.397  21.413  0.0627  0.1199 -0.3501
42427W        W85365  28.079  28.254  22.004  0.2990 -0.2399 -0.0706
42428W        W85366  32.291  26.661  23.228  0.0670  0.1513  0.3040
42429W        W85367  30.417  30.566  19.457 -0.3899  0.0374  0.3927
42430W        W85368  32.291  29.094  24.369 -0.1314 -0.1285 -0.1083
42431W        W85369  30.042  29.396  22.016 -0.5101  0.0886 -0.0824
42432W        W85370  30.526  26.049  24.610  0.1107 -0.1884  0.0412
42433W        W85371  28.048  27.263  22.931 -0.0085 -0.0617 -0.1704
42434W        W85372  30.291  28.764  22.866 -0.1260  0.0168  0.0993
42435W        W85373  30.369  29.497  20.717  0.0800  0.0641  0.0369
42436W        W85374  31.718  26.250  20.041  0.1084  0.0008  0.1876
42437W        W85375  32.110  29.505  20.640  0.1775 -0.0014  0.0090
42438W        W85376  30.657  27.448  21.282  0.0828 -0.3274  0.2417
42439W        W85377  29.267  27.426  23.233 -0.0964  0.1689  0.0033
42440W        W85378  31.654  26.858  23.171  0.3466 -0.1727 -0.1946
42441W        W85379  31.312  27.746  23.167 -0.0845 -0.2761  0.0604
42442W        W85380  31.280  28.050  22.796 -0.0212  0.1204 -0.1778
42443W        W85381  28.757  26.153  19.668 -0.5401  0.1234 -0.1172
42444W        W85382  29.949  29.494  21.019  0.0868  0.0988 -0.0389
42445W        W85383  27.840  27.690  20.634  0.3237  0.2421  0.0510
42446W        W85384  29.299  27.667  21.444 -0.3189 -0.0372 -0.2831
42447W        W85385  29.433  29.699  20.489  0.1708  0.0516 -0.1687
42448W        W85386  31.219  26.686  22.355  0.2140  0.0321  0.3751
42449W        W85387  29.554  27.354  24.439 -0.2375  0.0335  0.2863
42450W        W85388  29.542  27.861  23.197 -0.1268  0.0644 -0.0539
42451W        W85389  28.119  27.402  20.977  0.2893 -0.1225  0.0126
42452W        W85390  29.663  28.704  24.560  0.1977 -0.2354  0.1859
42453W        W85391  30.440  25.152  20.536  0.0815 -0.0535 -0.4974
42454W        W85392  30.735  27.224  20.656  0.1620 -0.2365 -0.2252
42455W        W85393  31.112  28.539  23.693 -0.3858 -0.1099  0.2270
42456W        W85394  32.151  29.275  21.110 -0.1803  0.0908 -0.1017
42457W        W85395  31.129  26.869  20.791  0.0026 -0.0728 -0.0001
42458W        W85396  31.400  25.946  20.368  0.0234  0.1582 -0.0398
42459W        W85397  28.455  28.228  25.055 -0.1892  0.1778 -0.2193
42460W        W85398  29.924  26.793  20.063  0.1614  0.1824  0.1819
42461W        W85399  29.207  28.325  24.514 -0.1538 -0.1650 -0.0203
42462W        W85400  30.757  28.153  20.220  0.0628  0.0387  0.0647
42463W        W85401  33.295  28.184  20.362 -0.0559  0.2197  0.1708
42464W        W85402  28.901  28.177  21.819 -0.1620 -0.0542 -0.2349
42465W        W85403  31.257  28.921  23.970  0.0399 -0.1433  0.0452
42466W        W85404  32.195  28.782  21.290 -0.3068  0.3043 -0.0687
42467W        W85405  29.852  26.279  22.488 -0.2581 -0.1025  0.1963
42468W        W85406  30.717  26.486  19.136  0.0138  0.1291 -0.1725
42469W        W85407  29.958  25.129  22.382 -0.1536  0.2069  0.0773
42470W        W85408  28.760  27.334  20.333 -0.1670  0.0396 -0.0674
42471W        W85409  30.936  26.052  21.595  0.2197 -0.3167 -0.1980
42472W        W85410  31.473  26.348  21.397 -0.1357 -0.1672 -0.1341
42473W        W85411  31.145  25.672  24.156  0.0465 -0.1824 -0.0975
42474W        W85412  31.899  27.987  23.937 -0.0875  0.0645  0.0780
42475W        W85413  30.910  26.862  21.955 -0.2481  0.0153  0.1529
42476W        W85414  31.214  26.194  22.650 -0.0535  0.0937 -0.1920
42477W        W85415  29.485  25.863  21.304 -0.1737 -0.1549 -0.0577
42478W        W85416  29.507  26.694  22.315  0.1904 -0.3115 -0.1416
42479W        W85417  31.004  27.450  23.514  0.0194  0.0993 -0.0582
42480W        W85418  30.172  28.977  22.412  0.0535 -0.3823 -0.0212
42481W        W85419  31.496  28.192  25.561 -0.1279 -0.3958 -0.2908
42482W        W85420  31.626  29.040  21.413 -0.0451 -0.2928 -0.0991
42483W        W85421  29.881  25.537  21.358 -0.0901 -0.1108 -0.2555
42484W        W85422  29.424  25.760  20.307 -0.1914 -0.0881 -0.1875
42485W        W85423  29.395  28.679  21.364 -0.2708 -0.1279  0.0404
42486W        W85424  29.669  29.456  20.093  0.0161  0.1656 -0.0500
42487W        W85425  28.425  26.680  22.235  0.0207 -0.3670  0.1608
42488W        W85426  30.933  28.930  21.562  0.0054  0.0532 -0.1786
42489W        W85427  28.850  28.355  20.187  0.2476 -0.0881  0.4205
42490W        W85428  31.010  28.055  24.084 -0.0576  0.0850 -0.2192
42491W        W85429  29.736  29.502  21.590  0.2061  0.2623 -0.1031
42492W        W85430  31.123  26.792  22.891  0.1743 -0.1150 -0.2285
42493W        W85431  29.192  30.544  21.308 -0.0023 -0.2354 -0.0612
42494W        W85432  29.152  25.986  18.435  0.0795  0.1276  0.0592
42495W        W85433  29.065  28.336  20.992  0.3242 -0.1242 -0.0520
42496W        W85434  31.463  26.083  20.884  0.0712 -0.1331 -0.0123
42497W        W85435  31.390  28.481  19.348 -0.0643 -0.0204 -0.0547
42498W        W85436  28.231  26.366  23.514  0.0985  0.1137  0.0608
42499W        W85437  30.177  25.284  20.986  0.1111 -0.0417  0.3447
42500W        W85438  29.865  28.588  23.760 -0.1335 -0.3439 -0.3473
42501W        W85439  29.539  26.825  21.827  0.1405  0.1673 -0.1288
42502W        W85440  32.798  25.255  18.438  0.0738  0.1349 -0.2708
42503W        W85441  32.706  28.708  23.558 -0.1051 -0.0318 -0.1651
42504W        W85442  30.842  27.950  24.891 -0.1603 -0.1312  0.0873
42505W        W85443  28.545  27.219  20.774  0.0609  0.1640  0.0490
42506W        W85444  31.001  27.565  20.240 -0.1700 -0.1487 -0.5349
42507W        W85445  30.705  26.671  22.364 -0.1074  0.2829  0.1722
42508W        W85446  28.090  30.183  21.795  0.1013 -0.0226  0.0679
42509W        W85447  32.725  29.169  22.781  0.4655  0.0040 -0.2097
42510W        W85448  30.304  27.110  20.999 -0.0858  0.0960  0.1745
42511W        W85449  30.541  28.311  21.512 -0.1814  0.1813  0.4059
42512W        W85450  29.267  27.147  22.424  0.1466 -0.0101 -0.2169
42513W        W85451  31.301  27.772  21.762  0.2007  0.1565 -0.1870
42514W        W85452  30.423  26.730  21.935  0.1264 -0.1036  0.3747
42515W        W85453  28.247  25.798  20.416 -0.3208 -0.4097 -0.3370
42516W        W85454  29.882  27.889  22.831  0.0395 -0.3074  0.2970
42517W        W85455  31.757  28.209  22.588  0.1771 -0.1706  0.1858
42518W        W85456  31.067  27.972  23.608 -0.1562  0.1168 -0.0617
42519W        W85457  31.496  27.168  24.926  0.0189  0.0669  0.0886
42520W        W85458  30.391  25.546  22.356 -0.0133 -0.1986  0.0210
42521W        W85459  32.416  27.965  20.976 -0.0325 -0.1735  0.3684
42522W        W85460  31.701  27.185  24.464  0.0060 -0.0268  0.1057
42523W        W85461  29.822  27.921  20.017  0.2799 -0.0259 -0.1922
42524W        W85462  29.507  28.903  24.031 -0.1754  0.0899  0.1356
42525W        W85463  30.203  27.670  20.985  0.1834  0.0811  0.2073
42526W        W85464  29.080  25.744  20.659  0.1031 -0.3044 -0.0080
42527W        W85465  29.614  28.757  23.364 -0.0775 -0.0591 -0.1197
42528W        W85466  28.357  27.653  20.593 -0.1506 -0.1361  0.0054
42529W        W85467  29.038  27.932  23.655 -0.0926 -0.0767 -0.1305
42530W        W85468  33.996  26.259  20.680  0.0818 -0.2748  0.2248
42531W        W85469  29.979  29.026  20.896  0.1363  0.2500 -0.1363
42532W        W85470  29.934  26.695  20.945  0.4324 -0.0398 -0.0412
42533W        W85471  32.320  26.439  23.687 -0.1730 -0.3679 -0.1995
42534W        W85472  28.625  26.929  22.616 -0.0056  0.3392  0.1187
42535W        W85473  31.289  27.392  24.515  0.3232 -0.0905  0.0467
42536W        W85474  29.885  26.093  22.953 -0.3262  0.2656  0.1909
42537W        W85475  30.751  29.201  20.558 -0.0244 -0.2195 -0.0450
42538W        W85476  28.743  26.329  23.245  0.1493  0.0653 -0.1581
42539W        W85477  31.282  29.750  24.503 -0.0080  0.2355  0.0151
42540W        W85478  29.000  27.262  24.516 -0.0600 -0.5072  0.2499
42541W        W85479  30.067  26.463  20.469  0.2537  0.0087 -0.2972
42542W        W85480  29.272  27.127  20.322 -0.0981  0.0491  0.0269
42543W        W85481  29.221  28.168  22.903  0.0666 -0.1337 -0.1103
42544W        W85482  31.964  28.675  21.885 -0.0215 -0.2122 -0.0136
42545W        W85483  30.087  28.145  20.836 -0.1294  0.2797  0.2222
42546W        W85484  32.099  26.505  21.955 -0.0395 -0.0734  0.2538
42547W        W85485  29.721  27.705  21.836  0.0644  0.1793  0.1269
42548W        W85486  29.673  27.395  20.436  0.0115  0.0947  0.0468
42549W        W85487  30.569  27.751  20.645 -0.0339 -0.0890  0.0977
42550W        W85488  29.297  28.178  21.405 -0.1883  0.2407 -0.0496
42551W        W85489  28.610  25.436  22.653  0.4499 -0.2071 -0.2554
42552W        W85490  30.455  28.807  21.410 -0.0784 -0.0208 -0.1593
42553W        W85491  30.144  26.776  22.349  0.0876 -0.3339  0.1521
42554W        W85492  30.071  26.581  21.438 -0.3291 -0.0747 -0.1002
42555W        W85493  30.489  27.652  22.353 -0.1894  0.0404 -0.1756
42556W        W85494  29.462  26.622  24.179  0.1542  0.0793  0.0795
42557W        W85495  29.194  26.613  23.135 -0.1473 -0.2962 -0.1265
42558W        W85496  32.064  29.131  21.638  0.1472 -0.1543 -0.0924
42559W        W85497  32.341  27.400  19.240 -0.1677  0.0692 -0.1037
42560W        W85498  31.460  27.670  23.688  0.0258 -0.0167 -0.2215
42561W        W85499  31.973  27.890  21.164  0.2490  0.1399 -0.1710
42562W        W85500  30.312  26.341  22.266  0.1701 -0.4204 -0.0428
42563W        W85501  28.709  26.340  21.424 -0.2509 -0.1496 -0.1781
42564W        W85502  30.908  27.241  24.238 -0.4388 -0.0086 -0.0869
42565W        W85503  29.282  27.867  21.012  0.1651 -0.0943 -0.0027
42566W        W85504  30.874  29.095  23.568  0.0112 -0.0999  0.0029
42567W        W85505  31.000  29.504  19.772  0.3683  0.2510  0.1619
42568W        W85506  29.461  29.262  20.657  0.0800 -0.1833  0.0591
42569W        W85507  30.194  26.125  20.850  0.0422  0.2092 -0.0712
42570W        W85508  28.977  26.599  22.124 -0.0425  0.1371  0.2170
42571W        W85509  30.577  27.915  23.675  0.1443 -0.0641  0.2681
42572W        W85510  28.143  26.126  20.064  0.3293 -0.3085 -0.1301
42573W        W85511  29.925  25.816  20.045  0.3102 -0.2417  0.2816
42574W        W85512  30.225  28.251  22.937 -0.0046 -0.4674 -0.1314
42575W        W85513  33.593  25.793  24.404  0.0048 -0.0532  0.0749
42576W        W85514  30.243  25.898  20.438 -0.1273  0.3383  0.3410
42577W        W85515  31.664  27.886  22.189  0.1897  0.0272 -0.0292
42578W        W85516  28.805  28.041  21.314  0.2707 -0.5201 -0.0150
42579W        W85517  30.547  25.398  22.896  0.1375  0.1305 -0.1403
42580W        W85518  30.544  28.920  23.233 -0.1887  0.3051  0.2055
42581W        W85519  30.062  28.149  21.352 -0.2270  0.2831 -0.0446
42582W        W85520  30.073  29.081  20.396 -0.1350  0.0660  0.2280
42583W        W85521  30.578  26.999  22.817  0.1027  0.1291  0.0023
42584W        W85522  31.845  26.321  22.377 -0.0201  0.0744 -0.2055
42585W        W85523  31.044  28.469  22.280  0.0556 -0.3855  0.0308
42586W        W85524  31.977  27.445  22.443 -0.0259  0.2952  0.1133
42587W        W85525  30.819  28.867  24.298  0.1498  0.1785 -0.2027
42588W        W85526  29.724  28.320  22.946 -0.0342  0.1932 -0.0235
42589W        W85527  31.434  27.413  22.317  0.0280 -0.2264 -0.2739
42590W        W85528  31.908  27.190  21.348 -0.2665  0.1816 -0.3141
42591W        W85529  29.693  27.117  21.401 -0.0289 -0.0246  0.1299
42592W        W85530  29.226  26.531  23.747  0.3377  0.4556  0.0387
42593W        W85531  30.109  27.208  24.098 -0.0956 -0.1458  0.3460
42594W        W85532  31.359  28.543  21.394  0.0023  0.0563  0.2556
42595W        W85533  28.048  26.440  22.655  0.2586  0.0699 -0.1641
42596W        W85534  31.975  29.465  19.938 -0.0877  0.0034 -0.1964
42597W        W85535  28.783  28.557  22.788 -0.1836 -0.0414 -0.0630
42598W        W85536  28.952  29.544  22.689 -0.1547  0.3549  0.0740
42599W        W85537  29.699  28.217  20.503 -0.4177 -0.4102  0.1432
42600W        W85538  30.953  28.097  20.682 -0.2321  0.3320 -0.1047
42601W        W85539  29.639  27.198  19.953  0.0605  0.1125  0.0322
42602W        W85540  29.990  28.523  22.482 -0.2282  0.3461  0.2968
42603W        W85541  31.099  27.272  21.110 -0.1065 -0.3186  0.0042
42604W        W85542  29.732  27.793  20.757  0.0237  0.2215  0.1302
42605W        W85543  27.087  29.339  21.899  0.1273  0.3582 -0.2079
42606W        W85544  31.871  29.645  21.325 -0.0877  0.1671 -0.0098
42607W        W85545  30.041  28.811  19.943 -0.1295  0.1105  0.2272
42608W        W85546  31.992  27.990  24.481 -0.0084  0.0758  0.2567
42609W        W85547  32.136  25.934  19.678  0.1106  0.2743  0.1639
42610W        W85548  30.959  26.030  20.680  0.0540 -0.1578  0.0265
42611W        W85549  31.051  26.321  21.030  0.1827  0.1029 -0.2371
42612W        W85550  31.643  29.534  22.923 -0.0311 -0.2423  0.1121
42613W        W85551  32.066  26.899  22.352  0.0818 -0.0017  0.0246
42614W        W85552  28.730  25.916  19.056 -0.1841  0.1333  0.3367
42615W        W85553  29.918  26.512  23.260  0.2443 -0.0785  0.0504
42616W        W85554  30.502  26.641  24.545  0.0958 -0.3453  0.0612
42617W        W85555  29.483  28.114  21.947 -0.3065 -0.2451  0.3506
42618W        W85556  31.245  29.441  20.745 -0.1053 -0.2609  0.0710
42619W        W85557  27.401  26.217  22.511 -0.0653 -0.3092 -0.0468
42620W        W85558  29.416  27.601  22.250  0.0334  0.0313 -0.3463
42621W        W85559  30.446  25.912  22.049 -0.0515 -0.4940 -0.3094
42622W        W85560  31.354  27.929  20.433 -0.0064  0.0818  0.2550
42623W        W85561  29.836  25.752  20.880 -0.2210 -0.2259 -0.1200
42624W        W85562  29.718  30.548  21.287  0.1085 -0.0781  0.2667
42625W        W85563  30.817  28.950  22.770  0.0751 -0.1370  0.1321
42626W        W85564  30.760  28.642  21.897 -0.0042  0.0384  0.2048
42627W        W85565  29.012  27.118  20.739 -0.1466  0.1015  0.0318
42628W        W85566  31.567  26.620  20.931 -0.0362 -0.2233 -0.3357
42629W        W85567  28.598  25.841  22.895 -0.5316  0.1062 -0.0375
42630W        W85568  31.190  26.650  23.412  0.2126  0.1294  0.4704
42631W        W85569  30.191  27.440  20.491 -0.3062 -0.0475 -0.4015
42632W        W85570  32.174  26.246  20.965  0.0164  0.0188 -0.1339
42633W        W85571  31.307  28.556  22.699  0.2098  0.0722  0.5328
42634W        W85572  29.791  26.862  22.760  0.2647  0.3159 -0.3633
42635W        W85573  30.230  26.209  20.033  0.0224 -0.2998  0.0281
42636W        W85574  31.844  26.877  24.139 -0.1961  0.3357 -0.0419
42637W        W85575  30.754  26.460  19.813 -0.1952 -0.1406 -0.2868
42638W        W85576  31.226  28.966  22.418  0.0275  0.0133 -0.3482
42639W        W85577  29.263  26.366  21.113  0.0701  0.0656  0.2556
42640W        W85578  30.255  25.784  19.647 -0.0959  0.0289  0.0999
42641W        W85579  29.738  27.430  22.815 -0.0972  0.0779  0.0980
42642W        W85580  30.553  26.835  24.034 -0.1034 -0.1521 -0.1581
42643W        W85581  32.235  28.260  23.066  0.0203  0.2035  0.0403
42644W        W85582  28.252  25.242  20.593  0.5781 -0.1425 -0.1997
42645W        W85583  31.581  28.753  19.668 -0.1641 -0.2023  0.0583
42646W        W85584  32.248  25.582  22.070 -0.1009 -0.2930  0.0973
42647W        W85585  29.627  28.524  19.361 -0.0551  0.0274  0.1259
42648W        W85586  30.590  27.984  21.105 -0.0356  0.2353  0.1963
42649W        W85587  30.645  29.267  21.164 -0.0590  0.0353 -0.0781
42650W        W85588  29.049  26.666  22.644 -0.1925  0.1265  0.0941
42651W        W85589  30.939  27.125  21.545  0.1788 -0.3233  0.1579
42652W        W85590  32.838  27.474  21.413  0.0047 -0.2662  0.4782
42653W        W85591  29.107  25.307  20.159  0.0885  0.4732 -0.1739
42654W        W85592  29.295  27.261  21.916 -0.4338 -0.3404 -0.0309
42655W        W85593  29.125  30.112  20.264  0.1875 -0.1595 -0.0686
42656W        W85594  32.544  26.847  22.096 -0.1592 -0.0218 -0.2825
42657W        W85595  31.456  26.079  22.109 -0.0294 -0.2336  0.0256
42658W        W85596  30.879  28.195  18.908  0.0251 -0.0657  0.3010
42659W        W85597  32.541  26.154  23.286 -0.1552 -0.0158 -0.2458
42660W        W85598  30.975  27.662  22.552  0.0331 -0.2453  0.0837
42661W        W85599  31.242  29.434  23.367  0.0681 -0.1268 -0.0086
42662W        W85600  28.891  27.593  20.836 -0.1648  0.0839 -0.3400
42663W        W85601  30.970  27.389  22.089  0.1121 -0.1293 -0.0809
42664W        W85602  29.748  26.915  20.506  0.2691 -0.2618  0.1827
42665W        W85603  29.928  29.626  20.541 -0.2282 -0.0984 -0.3654
42666W        W85604  33.473  28.154  23.054 -0.2561 -0.3403  0.2556
42667W        W85605  30.831  27.837  21.863  0.1523  0.0576  0.1197
42668W        W85606  33.020  29.424  23.238  0.2706 -0.1857  0.1352
42669W        W85607  29.147  27.040  21.491  0.0014 -0.4097  0.0490
42670W        W85608  31.488  25.572  21.114 -0.2712 -0.1668  0.1074
42671W        W85609  31.969  24.359  21.494  0.1625  0.2788 -0.3542
42672W        W85610  30.417  27.827  21.573  0.0886  0.1742 -0.1971
42673W        W85611  29.280  28.048  20.120  0.0349 -0.0673 -0.1582
42674W        W85612  31.517  27.016  19.505  0.2541  0.1674 -0.3237
42675W        W85613  29.756  27.112  22.318  0.0708 -0.0744 -0.0029
42676W        W85614  30.444  26.288  24.029  0.1204 -0.1728 -0.0498
42677W        W85615  29.260  25.784  22.244 -0.1357 -0.0328  0.5360
42678W        W85616  28.422  27.413  22.648  0.0308 -0.0641 -0.0521
42679W        W85617  28.336  27.785  22.220  0.1000  0.2655  0.1259
42680W        W85618  31.738  27.136  19.944 -0.0865 -0.1583  0.0111
42681W        W85619  29.091  26.554  21.637 -0.4318 -0.1092  0.0683
42682W        W85620  29.428  26.347  21.974 -0.0427 -0.1473  0.1441
42683W        W85621  31.295  27.549  20.755  0.2466 -0.3354  0.0555
42684W        W85622  31.699  29.717  20.863 -0.1529  0.0642 -0.1306
42685W        W85623  29.426  25.324  21.455 -0.0260  0.1027  0.3891
42686W        W85624  32.548  27.895  22.936 -0.0539 -0.0176 -0.2092
42687W        W85625  30.189  27.016  19.706 -0.0648 -0.2425 -0.2954
42688W        W85626  30.355  27.758  22.914  0.2766 -0.2520  0.0980
42689W        W85627  30.557  25.963  25.641 -0.1840 -0.2850 -0.2087
42690W        W85628  30.291  24.662  19.030  0.1863 -0.0883  0.1368
42691W        W85629  30.261  25.993  22.579 -0.0892  0.0898 -0.1850
42692W        W85630  30.501  28.795  19.752 -0.0983 -0.2889  0.0250
42693W        W85631  32.919  29.182  20.910 -0.0954 -0.2488  0.1021
42694W        W85632  30.212  27.275  22.633  0.0373 -0.2608 -0.2191
42695W        W85633  29.957  28.893  24.213  0.0061 -0.2937 -0.1641
42696W        W85634  29.645  27.218  23.875 -0.2824  0.1243  0.2309
42697W        W85635  31.009  27.791  21.202 -0.0143 -0.1022 -0.2187
42698W        W85636  30.476  27.573  24.689  0.0581  0.3365  0.0656
42699W        W85637  31.584  27.988  20.859  0.0638 -0.0426 -0.1884
42700W        W85638  30.979  24.864  21.232 -0.1465  0.1088  0.0024
42701W        W85639  30.510  27.110  22.295  0.3189 -0.2745 -0.1202
42702W        W85640  29.293  26.906  24.659  0.1076 -0.1167 -0.0641
42703W        W85641  29.743  28.066  23.799 -0.0068  0.2672 -0.0136
42704W        W85642  31.896  27.206  21.957 -0.1211  0.2224 -0.2868
42705W        W85643  29.725  26.191  21.571 -0.4324  0.0516 -0.0192
42706W        W85644  33.376  26.058  20.463 -0.0970  0.0205  0.1990
42707W        W85645  31.475  29.744  19.988  0.1452  0.0599  0.1084
42708W        W85646  29.573  28.043  22.498  0.0657  0.2737 -0.3014
42709W        W85647  31.234  26.523  21.829  0.1271  0.1151 -0.0369
42710W        W85648  30.154  27.409  22.035 -0.0690  0.0491  0.2876
42711W        W85649  31.515  28.854  20.750  0.2390 -0.2141 -0.3281
42712W        W85650  31.875  27.858  25.486 -0.0556 -0.1457 -0.2242
42713W        W85651  29.743  26.326  20.091  0.1423  0.0227 -0.1204
42714W        W85652  31.180  28.171  19.873 -0.0013  0.0186  0.1496
42715W        W85653  31.419  29.456  22.485  0.0402 -0.2766 -0.0030
42716W        W85654  32.826  28.999  24.275 -0.2434 -0.2801  0.6147
42717W        W85655  30.437  28.864  20.817 -0.0508  0.0406  0.0822
42718W        W85656  31.891  27.509  20.859  0.4223  0.0683 -0.0668
42719W        W85657  27.894  25.221  24.526 -0.2138 -0.0423  0.0063
42720W        W85658  29.858  27.286  20.878  0.2881  0.2054  0.0023
42721W        W85659  29.410  27.473  19.580  0.0705  0.1201  0.1933
42722W        W85660  31.253  26.802  21.285  0.1801 -0.2916 -0.2651
42723W        W85661  27.400  25.209  22.266 -0.1544 -0.0427 -0.2239
42724W        W85662  31.531  25.852  19.829 -0.2500  0.2060 -0.0071
42725W        W85663  30.990  28.726  23.201 -0.2725 -0.0540  0.0771
42726W        W85664  32.110  27.848  23.439  0.0933  0.0557 -0.1300
42727W        W85665  29.925  27.901  27.013  0.0558  0.0104  0.1605
42728W        W85666  30.149  28.047  24.721  0.2211  0.1067  0.0462
42729W        W85667  32.224  27.292  25.850 -0.1974 -0.0895 -0.1462
42730W        W85668  30.438  26.607  25.058 -0.1360  0.0173  0.0252
42731W        W85669  28.417  26.591  26.069  0.2975 -0.1067 -0.3924
42732W        W85670  32.012  28.767  25.997 -0.0351 -0.3717  0.3624
42733W        W85671  30.714  25.251  27.825 -0.0081  0.0905 -0.0539
42734W        W85672  31.232  28.391  26.077  0.1117 -0.2807  0.1071
42735W        W85673  31.960  29.763  27.090 -0.2175  0.1096  0.3834
42736W        W85674  31.171  28.429  24.341  0.0435 -0.1954 -0.1238
42737W        W85675  29.966  26.843  27.744 -0.3160  0.0430  0.1692
42738W        W85676  30.075  28.321  27.303  0.1660 -0.2933 -0.4677
42739W        W85677  30.196  25.844  24.253 -0.1080 -0.1244 -0.1031
42740W        W85678  29.972  26.092  26.900  0.0528 -0.1391  0.1793
42741W        W85679  32.673  25.454  27.531 -0.1660  0.1926 -0.2185
42742W        W85680  29.870  27.454  25.369 -0.4719 -0.2852 -0.4902
42743W        W85681  29.630  25.920  26.526 -0.0363 -0.0919  0.1372
42744W        W85682  30.200  25.619  25.367 -0.0302 -0.1444 -0.1617
42745W        W85683  30.512  30.428  26.273 -0.0392 -0.2436  0.0314
42746W        W85684  30.672  27.045  27.962  0.0275 -0.2260  0.0693
42747W        W85685  31.198  26.189  27.754 -0.1075  0.1026 -0.1537
42748W        W85686  30.945  28.954  25.233 -0.1813  0.1682 -0.2029
42749W        W85687  28.455  28.017  24.043  0.2182 -0.0126  0.0633
42750W        W85688  29.055  26.943  26.978 -0.2046 -0.2125 -0.1465
42751W        W85689  30.280  28.601  26.310  0.1097  0.0907 -0.2488
42752W        W85690  32.037  26.412  26.963  0.1702 -0.1037 -0.1181
42753W        W85691  30.629  28.975  24.856 -0.0703 -0.1897 -0.0508
42754W        W85692  28.823  28.287  26.320 -0.1948  0.1268  0.1000
42755W        W85693  29.948  28.655  25.930  0.1417 -0.0690 -0.0561
42756W        W85694  32.830  26.141  28.323  0.1005 -0.2257 -0.0142
42757W        W85695  29.141  27.782  24.599 -0.0789 -0.0597 -0.0297
42758W        W85696  29.551  30.621  26.287  0.1343  0.0756  0.4967
42759W        W85697  30.104  28.737  25.476 -0.0207  0.1802 -0.0288
42760W        W85698  32.671  27.730  24.563 -0.1943 -0.3507 -0.0502
42761W        W85699  32.092  28.384  27.717  0.2592  0.1170  0.2013
42762W        W85700  30.544  30.286  27.378  0.0267 -0.2003 -0.0659
42763W        W85701  30.263  27.736  25.154  0.0211 -0.3459  0.0269
42764W        W85702  30.497  29.581  25.978 -0.3094 -0.1650 -0.4853
42765W        W85703  30.248  28.219  26.653 -0.2698  0.0176  0.1744
42766W        W85704  31.623  29.042  26.617 -0.0712  0.1106  0.3329
42767W        W85705  29.801  26.373  26.450 -0.0136 -0.0164  0.0615
42768W        W85706  31.123  31.059  26.021  0.0956  0.2059  0.1527
42769W        W85707  30.484  27.206  26.557 -0.3132 -0.2941 -0.2079
42770W        W85708  31.875  29.274  27.050  0.2713  0.0566  0.1388
42771W        W85709  29.523  29.239  26.432  0.3495  0.0422  0.2200
42772W        W85710  33.437  27.921  29.580 -0.2673  0.0823  0.1214
42773W        W85711  31.203  28.787  25.665  0.0962 -0.1855 -0.1942
42774W        W85712  31.985  25.865  25.017  0.3237  0.0028 -0.0139
42775W        W85713  29.349  27.039  22.930 -0.1460 -0.0856  0.1602
42776W        W85714  32.626  26.357  24.490 -0.0031  0.0773  0.1422
42777W        W85715  31.072  24.752  26.415  0.3373 -0.1259 -0.0807
42778W        W85716  29.334  29.145  24.468 -0.1095  0.1267 -0.1576
42779W        W85717  30.351  26.370  27.091  0.2067 -0.1872  0.2407
42780W        W85718  29.374  27.288  26.668  0.0094  0.2826 -0.1838
42781W        W85719  30.575  26.920  25.413  0.0405  0.1228 -0.0378
42782W        W85720  32.054  26.663  25.918 -0.2354 -0.1129  0.0342
42783W        W85721  30.212  29.145  27.681  0.0567 -0.1069  0.0590
42784W        W85722  28.600  27.058  26.169  0.1217  0.0844  0.0351
42785W        W85723  31.484  29.107  25.248 -0.1129  0.1676  0.0376
42786W        W85724  31.916  28.311  25.305  0.0397 -0.0300 -0.0721
42787W        W85725  31.422  28.821  23.469 -0.2079  0.0363  0.1467
42788W        W85726  30.023  26.958  25.392  0.1765 -0.0719  0.2213
42789W        W85727  28.572  28.430  26.958 -0.0518 -0.2663  0.0663
42790W        W85728  29.300  26.255  27.620  0.3878 -0.1819 -0.4553
42791W        W85729  29.398  25.048  25.150  0.0321  0.3201  0.1757
42792W        W85730  32.459  26.735  26.903 -0.0013  0.2120 -0.0811
42793W        W85731  31.343  28.165  27.081  0.0813 -0.1307 -0.1077
42794W        W85732  32.409  26.610  24.970  0.1896 -0.2577 -0.0110
42795W        W85733  29.701  26.852  26.301  0.2022 -0.2133  0.1360
42796W        W85734  31.806  28.283  27.248 -0.0859  0.3753  0.1892
42797W        W85735  32.735  27.850  25.039  0.0300 -0.1318  0.0647
42798W        W85736  32.347  26.191  26.643  0.0342 -0.0310  0.0026
42799W        W85737  31.393  27.002  27.504 -0.1154 -0.3421 -0.0540
42800W        W85738  29.045  27.781  25.100  0.0005  0.0969 -0.0671
42801W        W85739  31.089  26.798  25.614 -0.0036 -0.1349 -0.0892
42802W        W85740  32.146  28.893  27.644  0.0108 -0.0268  0.3299
42803W        W85741  32.083  26.758  24.605  0.3192 -0.1764 -0.1033
42804W        W85742  29.091  29.528  25.490 -0.2028 -0.0645 -0.1868
42805W        W85743  30.662  25.281  27.279 -0.3330 -0.1052  0.0711
42806W        W85744  31.396  30.051  27.763  0.1488  0.1187  0.0394
42807W        W85745  30.053  28.023  23.365 -0.2529  0.0144  0.0095
42808W        W85746  29.045  28.599  25.305 -0.0011 -0.0447 -0.0306
42809W        W85747  29.862  30.436  23.837  0.0690  0.0111 -0.0011
42810W        W85748  28.792  26.734  25.733 -0.0412 -0.0925 -0.2711
42811W        W85749  29.468  27.875  26.872  0.1203  0.0424  0.1516
42812W        W85750  31.419  27.120  24.022 -0.1190 -0.1043  0.0939
42813W        W85751  31.255  25.264  27.078  0.2766  0.1093  0.1350
42814W        W85752  31.406  25.692  25.821  0.0738 -0.1860 -0.1824
42815W        W85753  29.524  26.301  25.224  0.0314  0.2164 -0.3708
42816W        W85754  32.610  27.668  26.035 -0.2233 -0.0772  0.1209
42817W        W85755  32.555  27.111  23.608  0.1181  0.2658 -0.1069
42818W        W85756  31.343  29.248  24.440 -0.3204  0.1078  0.1105
42819W        W85757  28.954  27.338  26.033  0.0180 -0.2802  0.0123
42820W        W85758  29.918  26.558  25.093  0.3226  0.2348  0.0428
42821W        W85759  30.737  26.271  27.506  0.1369 -0.1103  0.1372
42822W        W85760  29.757  28.268  25.653  0.0918  0.4148 -0.2789
42823W        W85761  31.571  26.493  28.000  0.0183 -0.0023 -0.1981
42824W        W85762  29.004  25.782  24.614  0.3240 -0.0547 -0.2312
42825W        W85763  32.246  26.711  26.378 -0.3049 -0.0770 -0.0878
42826W        W85764  30.119  28.276  25.238  0.0499 -0.0623  0.2219
42827W        W85765  28.541  27.710  25.238 -0.0133  0.0255 -0.1982
42828W        W85766  33.268  25.666  27.882 -0.2266  0.1317  0.5632
42829W        W85767  31.326  30.265  25.427 -0.4087  0.0093 -0.1228
42830W        W85768  31.588  29.566  26.748 -0.0130 -0.0892  0.0397
42831W        W85769  30.818  28.192  26.770 -0.0736  0.0559  0.2488
42832W        W85770  30.041  27.012  27.184  0.2019  0.0504  0.2055
42833W        W85771  30.277  27.306  25.618  0.1914 -0.2695  0.1179
42834W        W85772  30.129  29.669  26.819 -0.1296 -0.0593 -0.2181
42835W        W85773  30.502  28.754  25.870  0.0177  0.0150 -0.0148
42836W        W85774  30.055  26.419  24.556 -0.2236 -0.2094 -0.0642
42837W        W85775  33.106  29.391  27.317  0.2181 -0.2010 -0.0307
42838W        W85776  31.771  27.572  24.196 -0.0420  0.1519  0.0706
42839W        W85777  30.286  27.702  26.158 -0.1084 -0.1103 -0.1519
42840W        W85778  32.779  26.160  26.148 -0.3323  0.0340 -0.2061
42841W        W85779  32.741  27.331  25.531 -0.0774  0.0584 -0.1996
42842W        W85780  31.582  28.652  26.313  0.0834  0.3314 -0.0431
42843W        W85781  29.283  28.188  25.484  0.2327  0.2693  0.3746
42844W        W85782  31.731  29.520  25.196 -0.1073  0.0130  0.0202
42845W        W85783  29.952  29.801  24.893 -0.0034 -0.0884  0.2518
42846W        W85784  29.113  26.607  25.148 -0.0443  0.0275 -0.0019
42847W        W85785  30.999  30.343  25.028 -0.1584  0.3041 -0.2762
42848W        W85786  33.030  26.075  25.354  0.0102 -0.2066  0.0589
42849W        W85787  30.320  25.909  27.332  0.1354 -0.0215  0.3916
42850W        W85788  30.289  26.747  26.336 -0.2902  0.0757  0.2056
42851W        W85789  29.425  27.625  25.456 -0.1540 -0.2397 -0.0032
42852W        W85790  30.629  29.380  27.438 -0.1720 -0.0024  0.0074
42853W        W85791  30.610  25.175  25.855  0.3765 -0.3060  0.1012
42854W        W85792  32.132  25.634  24.348  0.1367 -0.2463  0.2347
42855W        W85793  31.013  26.688  27.804 -0.2947 -0.0466 -0.0147
42856W        W85794  31.144  27.163  25.238 -0.1796  0.0257 -0.0366
42857W        W85795  30.518  27.264  23.849 -0.0380  0.0748  0.0205
42858W        W85796  31.137  27.603  24.021 -0.0329 -0.1794  0.2641
42859W        W85797  30.453  28.898  27.317 -0.0476 -0.0521  0.0770
42860W        W85798  32.342  26.911  24.014 -0.2006 -0.1175  0.0702
42861W        W85799  29.833  27.864  26.498 -0.0401  0.0563 -0.1548
42862W        W85800  30.090  27.135  23.579 -0.0339 -0.1830 -0.0979
42863W        W85801  34.192  27.287  25.136 -0.0079  0.0429  0.2414
42864W        W85802  28.554  28.652  25.160 -0.2620  0.1551 -0.1755
42865W        W85803  30.567  27.640  28.121 -0.1747  0.3004 -0.1071
42866W        W85804  31.725  29.600  24.633 -0.1616  0.2522  0.1139
42867W        W85805  31.212  26.439  26.519 -0.0205 -0.0430  0.1257
42868W        W85806  29.991  26.586  24.115 -0.0524 -0.2223 -0.0351
42869W        W85807  30.796  27.484  26.156 -0.1707  0.0119 -0.1343
42870W        W85808  29.558  29.464  24.065  0.0187 -0.1112  0.0400
42871W        W85809  32.563  26.454  25.433 -0.1786  0.0823 -0.1553
42872W        W85810  32.131  26.145  25.499  0.2506 -0.1861 -0.0618
42873W        W85811  31.725  24.681  27.154  0.0465  0.3713 -0.1399
42874W        W85812  31.602  27.946  26.132  0.1640 -0.0227 -0.0318
42875W        W85813  31.165  27.860  25.867  0.0042  0.0729 -0.0496
42876W        W85814  31.791  27.002  25.607 -0.0440  0.0702  0.1638
42877W        W85815  29.460  26.257  23.407 -0.1246  0.0297  0.0483
42878W        W85816  32.025  27.441  26.818  0.0400 -0.2880  0.1438
42879W        W85817  29.967  28.475  28.340  0.0576  0.4290  0.0668
42880W        W85818  31.031  29.004  27.422  0.0566 -0.1181 -0.1474
42881W        W85819  31.256  27.520  26.290  0.1520  0.4674  0.1353
42882W        W85820  31.683  28.689  25.608  0.0770  0.1124 -0.1687
42883W        W85821  30.809  25.704  27.568 -0.1520 -0.0504 -0.1033
42884W        W85822  30.923  25.629  25.767  0.1637 -0.0446  0.0815
42885W        W85823  30.671  28.445  23.526  0.2583  0.1049  0.0002
42886W        W85824  29.680  27.871  24.584 -0.1961 -0.1702 -0.2690
42887W        W85825  30.734  26.138  26.054 -0.1557 -0.0732  0.0693
42888W        W85826  30.848  29.067  26.966  0.1522  0.1957 -0.1582
42889W        W85827  30.770  29.296  24.012 -0.1381  0.1880  0.0617
42890W        W85828  31.384  27.666  27.411 -0.1434 -0.0083  0.0614
42891W        W85829  29.132  28.379  25.915  0.3792  0.0483  0.3198
42892W        W85830  32.185  24.837  27.021 -0.2798  0.0598 -0.1205
42893W        W85831  27.992  30.943  25.340 -0.0425  0.3053  0.3863
42894W        W85832  29.992  26.027  24.822  0.2067 -0.2107  0.0602
42895W        W85833  29.016  28.720  24.251 -0.1987 -0.2886 -0.1258
42896W        W85834  30.776  26.360  25.436 -0.0435  0.1354  0.1640
42897W        W85835  31.377  29.055  23.040  0.0602 -0.2632  0.0031
42898W        W85836  30.177  25.348  26.146 -0.1635  0.3249  0.0282
42899W        W85837  31.722  26.628  26.496  0.2502 -0.0301 -0.1839
42900W        W85838  29.825  29.204  26.788  0.0775  0.0051 -0.2353
42901W        W85839  31.674  26.974  28.126 -0.0228 -0.0558  0.0405
42902W        W85840  31.442  26.203  24.941  0.1284  0.1578  0.1258
42903W        W85841  31.681  28.623  27.796 -0.3302  0.0378 -0.1081
42904W        W85842  32.222  27.012  29.117  0.3249 -0.2151  0.1696
42905W        W85843  29.054  25.992  23.688 -0.1006 -0.1365 -0.0068
42906W        W85844  33.546  27.031  25.948  0.2047 -0.2107 -0.1240
42907W        W85845  30.371  26.361  26.612 -0.0771 -0.0828 -0.1803
42908W        W85846  29.845  28.854  26.421  0.1468  0.0897  0.1995
42909W        W85847  30.956  27.944  26.280  0.0610 -0.4519 -0.0665
42910W        W85848  30.007  27.485  24.757  0.1751 -0.2414  0.3027
42911W        W85849  30.312  28.318  25.693 -0.0464 -0.1907  0.2077
42912W        W85850  29.686  28.474  26.701  0.2377  0.1199  0.2475
42913W        W85851  32.188  27.945  27.129  0.0271  0.1162 -0.2457
42914W        W85852  30.722  25.976  26.571  0.0961 -0.0573  0.1131
42915W        W85853  31.111  25.806  26.288  0.0345 -0.0013  0.0905
42916W        W85854  30.805  26.399  26.807 -0.0473 -0.0880  0.1857
42917W        W85855  30.813  28.567  26.220  0.1675 -0.0455 -0.0469
42918W        W85856  32.981  26.428  25.706 -0.2473 -0.3793 -0.0408
42919W        W85857  29.697  28.595  27.624  0.0950  0.1275  0.1014
42920W        W85858  31.315  26.945  26.321  0.3473 -0.0208 -0.0686
42921W        W85859  32.516  29.117  26.314  0.1175  0.4420 -0.1451
42922W        W85860  31.701  27.332  27.171  0.6757 -0.0464 -0.0694
42923W        W85861  31.252  28.187  24.783 -0.2231  0.1381 -0.0590
42924W        W85862  28.928  27.711  26.424  0.1627 -0.1727 -0.1496
42925W        W85863  30.721  28.531  24.624  0.0998 -0.2588 -0.0566
42926W        W85864  31.099  26.301  27.182 -0.1730 -0.2029 -0.1780
42927W        W85865  28.773  28.836  26.613  0.0023  0.0553  0.0788
42928W        W85866  29.234  28.683  24.836 -0.0622 -0.0769 -0.1539
42929W        W85867  29.022  28.104  27.236  0.2816  0.1547 -0.2992
42930W        W85868  31.915  26.586  25.417  0.0460 -0.1331  0.0242
42931W        W85869  32.525  28.710  24.685  0.3791  0.1303 -0.2000
42932W        W85870  31.024  27.260  26.632  0.0659 -0.2325  0.2592
42933W        W85871  33.614  26.233  27.685  0.0787  0.0316  0.0161
42934W        W85872  30.746  28.432  24.039  0.1526  0.1599  0.0877
42935W        W85873  32.093  25.995  27.199  0.1551 -0.1051 -0.0409
42936W        W85874  30.844  26.732  27.251  0.0379 -0.0435 -0.1803
42937W        W85875  30.891  27.328  24.803 -0.1301 -0.1444 -0.0056
42938W        W85876  30.741  25.951  27.077 -0.1637  0.0073  0.0398
42939W        W85877  32.161  29.460  28.050  0.0861  0.0837  0.1252
42940W        W85878  28.019  28.849  26.677 -0.1547 -0.3448  0.0116
42941W        W85879  31.165  25.261  26.538  0.2023 -0.0769  0.1907
42942W        W85880  30.124  24.564  24.704  0.1788  0.1713 -0.2983
42943W        W85881  30.783  26.746  26.365 -0.2682 -0.0504 -0.2504
42944W        W85882  33.363  28.068  26.318 -0.1198  0.2604  0.1041
42945W        W85883  30.451  27.603  24.173  0.2196  0.0706  0.0291
42946W        W85884  33.232  27.103  25.326  0.1100 -0.1221  0.2313
42947W        W85885  29.602  27.446  27.099 -0.5282  0.4216 -0.0028
42948W        W85886  32.207  27.344  25.380 -0.2105  0.3831  0.2370
42949W        W85887  30.155  27.628  23.719 -0.0357  0.0179  0.0751
42950W        W85888  29.473  28.774  25.777 -0.0023  0.0756  0.1275
42951W        W85889  31.212  27.266  27.083 -0.4594 -0.3366 -0.1754
42952W        W85890  32.660  26.671  26.091  0.0659 -0.0836 -0.0343
42953W        W85891  31.658  26.184  26.660 -0.0147 -0.0338  0.1104
42954W        W85892  32.605  26.311  27.808  0.2767  0.3451  0.1374
42955W        W85893  32.173  27.236  28.130 -0.0973 -0.2673 -0.5755
42956W        W85894  31.250  28.906  27.869 -0.1859  0.0354  0.0138
42957W        W85895  28.625  26.272  26.784 -0.0482 -0.0292  0.0033
42958W        W85896  31.632  29.067  25.960  0.0577  0.0389  0.0928
42959W        W85897  31.771  27.514  23.297 -0.2841  0.0772  0.1476
42960W        W85898  33.154  26.680  26.130  0.3353  0.2573 -0.2311
42961W        W85899  31.248  27.676  24.906 -0.0311 -0.3738  0.1517
42962W        W85900  31.780  27.139  23.686 -0.2651  0.1347 -0.1914
42963W        W85901  29.810  27.893  25.116  0.0207  0.4251 -0.0258
42964W        W85902  31.709  27.815  26.996 -0.0102 -0.1988  0.3119
42965W        W85903  30.498  24.379  24.393 -0.4269 -0.0735  0.1105
42966W        W85904  29.097  26.492  26.727  0.0116 -0.0061  0.3442
42967W        W85905  30.729  29.211  25.763 -0.1327 -0.2394  0.2157
42968W        W85906  30.165  28.745  24.883  0.0992 -0.2263 -0.1728
42969W        W85907  31.763  27.085  26.089  0.0932 -0.0917  0.2240
42970W        W85908  31.091  26.523  26.035 -0.0893  0.0633  0.1389
42971W        W85909  30.594  29.804  27.079  0.0135  0.1211 -0.0224
42972W        W85910  28.664  27.798  24.764  0.2000  0.2265  0.0041
42973W        W85911  30.506  28.067  24.313 -0.1230  0.2073  0.0181
42974W        W85912  31.274  28.298  26.556 -0.2257 -0.1196 -0.0569
42975W        W85913  32.298  27.464  27.260  0.3934 -0.0813  0.2752
42976W        W85914  30.958  27.017  23.787  0.2670 -0.2543  0.0143
42977W        W85915  32.524  27.704  26.865 -0.1641  0.2069 -0.0382
42978W        W85916  28.910  28.000  24.209 -0.0698 -0.1567 -0.2078
42979W        W85917  31.127  26.849  26.853 -0.1167  0.3711  0.1100
42980W        W85918  30.051  28.720  26.877 -0.0776 -0.2534 -0.0918
42981W        W85919  28.329  28.979  25.685 -0.0921  0.1342 -0.2367
42982W        W85920  29.551  29.084  24.930  0.2407 -0.2566 -0.4238
42983W        W85921  31.734  25.906  27.759  0.0412 -0.1237 -0.0273
42984W        W85922  32.300  26.874  25.498 -0.4014  0.0714 -0.1429
42985W        W85923  30.809  28.453  25.708  0.0260 -0.1620 -0.1402
42986W        W85924  31.744  28.173  26.666 -0.2261  0.0427 -0.1967
42987W        W85925  31.719  27.452  28.315  0.0341 -0.1969  0.0644
42988W        W85926  29.611  26.724  27.312 -0.1446  0.2653 -0.3239
42989W        W85927  30.935  28.139  27.552  0.2278 -0.1921  0.0201
42990W        W85928  31.609  27.981  25.081  0.2987  0.1352  0.0904
42991W        W85929  27.959  29.317  25.827 -0.0091  0.1450 -0.0246
42992W        W85930  30.394  26.658  27.510  0.1242  0.1921  0.1918
42993W        W85931  31.661  27.495  28.917 -0.2310 -0.1831  0.2897
42994W        W85932  31.311  27.573  25.443  0.0787 -0.0596 -0.0221
42995W        W85933  29.759  26.114  24.300  0.1242 -0.2533 -0.3854
42996W        W85934  31.523  28.800  24.367  0.3018  0.0246 -0.0890
42997W        W85935  29.485  28.458  27.205  0.0905  0.1940 -0.1229
42998W        W85936  28.388  28.525  26.496 -0.0645  0.1366  0.0325
42999W        W85937  30.198  28.524  23.338  0.0244 -0.0778 -0.2533
43000W        W85938  31.527  28.618  25.118  0.1864  0.0396  0.5092
43001W        W85939  30.549  28.600  25.242  0.0176 -0.0872 -0.0713
43002W        W85940  31.319  29.699  25.515  0.1837 -0.0587  0.2532
43003W        W85941  30.152  26.996  24.782  0.0965  0.0942  0.3913
43004W        W85942  30.017  29.252  24.910  0.3239  0.1776  0.0195
43005W        W85943  28.320  29.860  25.202 -0.1518  0.1035 -0.1388
43006W        W85944  31.806  29.170  24.180 -0.3206 -0.3351 -0.0771
43007W        W85945  30.178  30.309  24.707  0.0463  0.2146  0.0505
43008W        W85946  32.209  27.670  27.910 -0.1155 -0.0029  0.1491
43009W        W85947  32.211  26.468  24.202  0.1436 -0.2469 -0.0692
43010W        W85948  31.733  26.109  25.752 -0.2704  0.0939 -0.2241
43011W        W85949  30.564  27.751  25.674 -0.1108  0.0541  0.2239
43012W        W85950  32.687  28.078  27.118  0.1892 -0.1532 -0.1399
43013W        W85951  30.147  27.567  27.286 -0.1427 -0.1077  0.0619
43014W        W85952  29.556  26.484  24.630 -0.1462 -0.2287  0.2568
43015W        W85953  29.616  28.022  27.407  0.1347  0.0292 -0.2155
43016W        W85954  33.093  25.788  28.635  0.0271 -0.1272  0.0547
43017W        W85955  29.118  29.320  27.692  0.1413  0.0541 -0.2868
43018W        W85956  30.807  29.367  24.499 -0.0205 -0.4682  0.0998
43019W        W85957  29.274  26.382  25.716 -0.1304 -0.1644 -0.0322
43020W        W85958  31.189  26.042  26.792  0.3735  0.1681 -0.0010
43021W        W85959  32.445  25.762  26.390 -0.1089 -0.2001  0.2732
43022W        W85960  31.284  29.283  25.690 -0.3901 -0.3706  0.1116
43023W        W85961  30.260  26.702  23.642  0.2966  0.0353  0.2135
43024W        W85962  30.899  29.883  25.279  0.1127  0.1319  0.1813
43025W        W85963  30.387  29.067  25.287 -0.0699 -0.1554  0.1602
43026W        W85964  30.027  27.845  25.663  0.0986  0.2431  0.1559
43027W        W85965  30.412  27.267  25.118  0.2412 -0.0805 -0.1141
43028W        W85966  32.055  28.372  26.360  0.3301  0.2269  0.0604
43029W        W85967  29.446  27.450  26.155  0.2482  0.4303 -0.0084
43030W        W85968  32.918  26.327  26.609  0.0334  0.3964 -0.0433
43031W        W85969  30.216  26.298  26.052 -0.1351  0.2266 -0.0894
43032W        W85970  31.994  26.215  26.331  0.1032 -0.1726  0.0299
43033W        W85971  29.057  28.383  26.764 -0.2118  0.2040 -0.0336
43034W        W85972  28.867  27.237  26.581 -0.4130  0.0488 -0.2662
43035W        W85973  29.786  26.882  24.461 -0.1690 -0.0621 -0.1569
43036W        W85974  33.995  27.416  26.741 -0.0565 -0.0019 -0.0138
43037W        W85975  31.607  26.707  24.761  0.2307  0.0234 -0.2763
43038W        W85976  31.550  29.594  27.282  0.0068  0.0270  0.2361
43039W        W85977  30.423  25.451  26.597  0.0426 -0.1602  0.3939
43040W        W85978  30.849  27.268  25.711  0.1746 -0.0231 -0.1881
43041W        W85979  30.087  26.899  25.894  0.2287  0.0563  0.2654
43042W        W85980  30.602  28.686  26.765 -0.1211 -0.2104  0.0181
43043W        W85981  31.143  29.363  26.630 -0.1909 -0.1917  0.0260
43044W        W85982  29.526  25.948  24.703  0.0984 -0.3520 -0.1517
43045W        W85983  32.803  27.879  25.560 -0.1601 -0.4335 -0.3332
43046W        W85984  33.883  27.293  26.229  0.0873  0.2311 -0.3178
43047W        W85985  32.023  29.432  23.311 -0.1677 -0.2970 -0.1191
43048W        W85986  30.792  27.551  25.277  0.2585  0.0806  0.0457
43049W        W85987  30.794  29.948  26.187  0.0381 -0.2874 -0.2983
43050W        W85988  28.084  27.450  26.891 -0.2260  0.1214  0.2107
43051W        W85989  31.013  27.681  26.941  0.2092  0.4810  0.2963
43052W        W85990  33.279  25.272  27.384 -0.3543 -0.0212  0.0604
43053W        W85991  31.485  25.350  25.477  0.0342 -0.2887  0.0728
43054W        W85992  29.105  27.512  27.003  0.1293 -0.0691 -0.1594
43055W        W85993  28.503  29.470  23.651  0.1442 -0.1491 -0.3304
43056W        W85994  31.469  26.194  26.156 -0.2298 -0.0161  0.0860
43057W        W85995  33.067  25.864  27.463 -0.0267 -0.0176  0.1392
43058W        W85996  30.860  30.157  23.754 -0.2045 -0.1994 -0.2133
43059W        W85997  32.695  26.887  29.104  0.0919 -0.2325  0.2146
43060W        W85998  31.397  29.242  28.225  0.0728  0.3334  0.1607
43061W        W85999  30.178  29.684  28.255 -0.1677  0.0543  0.1062
43062W        W86000  29.404  28.184  24.986  0.0711  0.2270  0.0761
43063W        W86001  30.521  26.936  26.981 -0.0908  0.0679 -0.0947
43064W        W86002  30.592  28.069  25.267 -0.0142  0.1163  0.4275
43065W        W86003  32.212  28.722  23.951 -0.2102 -0.4059 -0.0237
43066W        W86004  33.752  27.843  26.664 -0.2133 -0.3169 -0.1514
43067W        W86005  30.489  27.163  26.028  0.1698  0.2850  0.2265
43068W        W86006  32.129  28.823  26.550  0.1445  0.0278  0.0400
43069W        W86007  30.622  25.063  26.372 -0.0696  0.1341  0.2234
43070W        W86008  31.577  26.649  25.913  0.0049 -0.1316 -0.1292
43071W        W86009  30.687  25.380  25.327  0.2623  0.1139 -0.0213
43072W        W86010  29.348  28.828  26.586 -0.2784 -0.0307  0.4698
43073W        W86011  29.026  26.383  24.706  0.3077 -0.1379 -0.1533
43074W        W86012  29.216  27.051  24.143  0.2558 -0.1740 -0.0592
43075W        W86013  30.339  27.196  27.555  0.3391  0.3048 -0.1381
43076W        W86014  31.640  25.455  27.398 -0.3085  0.1303 -0.4347
43077W        W86015  30.193  27.538  26.791 -0.0007 -0.0244 -0.0017
43078W        W86016  29.511  26.800  26.816  0.1505 -0.3351 -0.0047
43079W        W86017  29.897  26.094  25.393  0.0799 -0.0759  0.3056
43080W        W86018  32.179  27.409  24.565  0.1111  0.4574  0.0304
43081W        W86019  28.807  25.392  26.840 -0.0971  0.1057 -0.0840
43082W        W86020  29.223  25.547  26.488  0.0186  0.2669 -0.1179
43083W        W86021  30.780  27.911  23.168  0.0801  0.0222  0.1781
43084W        W86022  31.741  27.470  25.212  0.3232  0.1615 -0.3324
43085W        W86023  31.137  26.103  25.770 -0.1093  0.1519  0.0479
43086W        W86024  32.817  28.075  26.578 -0.0055 -0.1759 -0.1734
43087W        W86025  29.518  27.529  24.977  0.1406 -0.0954 -0.1728
43088W        W86026  31.308  27.739  28.530 -0.0258 -0.4058 -0.6168
43089W        W86027  30.640  27.702  26.534 -0.0708  0.1905  0.2593
43090W        W86028  30.926  27.734  24.467  0.0354 -0.0839 -0.0084
43091W        W86029  30.047  26.695  26.769 -0.5312 -0.0988 -0.0516
43092W        W86030  31.309  29.944  23.721 -0.1192 -0.2201  0.2062
43093W        W86031  32.413  29.700  24.631  0.2229  0.0336 -0.1384
43094W        W86032  29.514  28.485  26.217  0.0013 -0.0087 -0.0973
43095W        W86033  30.058  27.826  27.655  0.0130 -0.0671  0.0029
43096W        W86034  29.296  25.827  27.341 -0.2639 -0.4621  0.1744
43097W        W86035  31.154  28.016  25.305  0.3099  0.0832  0.0354
43098W        W86036  30.785  27.658  27.426 -0.0379  0.0637  0.0015
43099W        W86037  31.714  27.590  24.712  0.0555  0.2437  0.0870
43100W        W86038  33.521  26.303  25.818  0.1455  0.3794  0.1857
43101W        W86039  31.315  27.155  25.849  0.0313 -0.2152 -0.1792
43102W        W86040  28.606  24.481  27.548  0.0638  0.1209 -0.0737
43103W        W86041  30.019  27.820  28.214 -0.0636 -0.0453  0.1208
43104W        W86042  31.776  27.452  25.735  0.0959  0.2980  0.1962
43105W        W86043  30.031  25.814  25.852 -0.1089  0.1026  0.1146
43106W        W86044  32.305  26.263  25.957 -0.2546  0.1710 -0.1550
43107W        W86045  31.420  27.912  24.376 -0.3281 -0.0850  0.2087
43108W        W86046  28.519  29.353  25.955 -0.0501  0.2010  0.2019
43109W        W86047  30.236  25.135  25.540 -0.2833  0.0623  0.1337
43110W        W86048  30.843  28.097  28.250  0.0429  0.0734 -0.1160
43111W        W86049  30.989  28.422  25.085 -0.1854 -0.1949  0.2520
43112W        W86050  31.407  27.826  26.621 -0.2309 -0.1574  0.0686
43113W        W86051  29.407  27.861  24.210  0.2309  0.0443  0.3325
43114W        W86052  31.452  26.363  25.451  0.2515  0.2499 -0.0877
43115W        W86053  31.770  30.062  26.757  0.1831  0.0863  0.2275
43116W        W86054  33.457  29.462  28.299  0.0178  0.1289 -0.0744
43117W        W86055  29.558  29.510  25.667 -0.4299  0.1030  0.1268
43118W        W86056  32.510  27.201  26.779  0.0754  0.0802  0.4014
43119W        W86057  29.772  26.197  27.882  0.0769  0.1030  0.0866
43120W        W86058  30.053  27.264  26.255  0.0514  0.1296 -0.3308
43121W        W86059  29.860  27.133  26.731 -0.0057 -0.0882 -0.1501
43122W        W86060  32.923  26.688  27.072  0.1399 -0.1844 -0.2469
43123W        W86061  29.540  26.257  27.116  0.3404 -0.0496 -0.0822
43124W        W86062  30.982  26.663  25.079 -0.0746  0.0311 -0.0124
43125W        W86063  31.177  30.332  26.724 -0.1627  0.0760  0.2007
43126W        W86064  30.421  27.969  27.090  0.2935  0.0124  0.2381
43127W        W86065  31.451  27.692  31.286 -0.0105 -0.0323 -0.1342
43128W        W86066  30.525  26.529  28.477 -0.1120 -0.1576 -0.3726
43129W        W86067  31.982  26.226  28.124 -0.0750 -0.0938 -0.1468
43130W        W86068  33.038  26.563  28.065  0.2669 -0.1938  0.0651
43131W        W86069  27.853  27.194  28.736  0.0542  0.1866 -0.0812
43132W        W86070  30.898  30.024  29.179  0.0264 -0.0666 -0.2174
43133W        W86071  30.198  25.974  30.228 -0.3520 -0.0402  0.2059
43134W        W86072  32.185  28.900  29.455 -0.0028  0.1673 -0.0849
43135W        W86073  33.357  29.941  30.330 -0.1829  0.2282 -0.0577
43136W        W86074  32.004  27.249  27.640 -0.1407  0.0499  0.4288
43137W        W86075  30.342  27.055  29.295  0.0040 -0.5078  0.2845
43138W        W86076  30.756  28.227  30.570 -0.0639  0.0546  0.0691
43139W        W86077  30.411  25.671  28.226 -0.1474  0.2600  0.0297
43140W        W86078  29.484  26.632  30.251 -0.0423 -0.0303  0.3260
43141W        W86079  33.142  27.937  30.322  0.0731  0.0256 -0.0070
43142W        W86080  30.815  28.647  27.747 -0.3745 -0.0842  0.1455
43143W        W86081  30.219  27.490  28.469 -0.0520  0.0666  0.1640
43144W        W86082  30.569  26.949  29.727 -0.2528  0.0025 -0.0465
43145W        W86083  31.403  28.733  29.336  0.0678  0.0441 -0.1653
43146W        W86084  30.711  25.703  30.788 -0.2580 -0.3276 -0.1078
43147W        W86085  31.375  25.288  30.277 -0.2059  0.0189 -0.1875
43148W        W86086  30.631  27.819  28.559  0.0749 -0.0967 -0.1481
43149W        W86087  29.581  27.526  28.314  0.2574 -0.1429 -0.0234
43150W        W86088  30.100  27.896  29.800  0.1150 -0.0512  0.0003
43151W        W86089  30.191  25.975  31.328 -0.0708 -0.1069 -0.2923
43152W        W86090  31.811  28.698  29.874 -0.0485 -0.0801 -0.1507
43153W        W86091  32.945  27.846  29.890 -0.1173  0.1026 -0.0057
43154W        W86092  30.107  29.607  29.731 -0.0837  0.0424  0.2551
43155W        W86093  30.491  28.823  29.247 -0.0167 -0.0417  0.0307
43156W        W86094  32.265  26.837   0.672 -0.0912 -0.1823  0.1508
43157W        W86095  31.317  28.313  29.097  0.2315  0.2875 -0.0308
43158W        W86096  28.739  29.278  27.974  0.1855  0.0103  0.0127
43159W        W86097  30.147  29.476  28.710 -0.1176  0.1545  0.2523
43160W        W86098  32.293  28.402  29.274 -0.1608  0.0712 -0.0996
43161W        W86099  32.349  28.503  30.717 -0.5471 -0.1467  0.4706
43162W        W86100  28.197  30.739  30.400  0.1167  0.2164  0.0606
43163W        W86101  30.199  27.485  29.465  0.1361  0.0985  0.2056
43164W        W86102  30.375  28.810  30.383 -0.0142 -0.0419 -0.0892
43165W        W86103  31.030  28.834  30.452  0.0142 -0.0320 -0.3788
43166W        W86104  30.846  26.591  31.662  0.2315  0.0619  0.0051
43167W        W86105  31.853  27.041  28.692 -0.3741 -0.1361  0.2223
43168W        W86106  30.473  29.526  27.885 -0.2455 -0.0160 -0.0657
43169W        W86107  31.789  28.446  29.195 -0.0353  0.0902 -0.0546
43170W        W86108  29.907  28.464  31.579 -0.0552  0.0670 -0.1826
43171W        W86109  28.979  28.148  30.567 -0.0875 -0.0727 -0.0177
43172W        W86110  32.392  26.552  31.476  0.0725  0.0133  0.1244
43173W        W86111  29.107  28.686  28.587  0.0283  0.2392  0.2527
43174W        W86112  31.873  27.707  27.480 -0.0418 -0.1018 -0.1211
43175W        W86113  30.586  27.430  27.051 -0.1234 -0.1936 -0.1410
43176W        W86114  31.805  26.721  27.572 -0.3509  0.2902  0.1910
43177W        W86115  31.016  26.650  30.763  0.1046 -0.0991 -0.0148
43178W        W86116  29.185  28.989  30.111  0.0781 -0.2698 -0.0432
43179W        W86117  30.729  26.024  28.544 -0.4355  0.1894 -0.1176
43180W        W86118  32.815  28.218  30.659  0.1009 -0.2922 -0.1854
43181W        W86119  31.267  27.745  29.078  0.0968 -0.0281 -0.3587
43182W        W86120  30.673  27.478  30.873  0.0847  0.2770  0.3478
43183W        W86121  29.850  28.634  30.655  0.3354  0.0996  0.1363
43184W        W86122  30.110  28.033  29.329 -0.1208 -0.0110 -0.0673
43185W        W86123  32.443  29.948  27.260  0.3664 -0.0499 -0.0596
43186W        W86124  31.761  29.079  28.621  0.5471 -0.3473  0.0424
43187W        W86125  31.891  28.519  28.239  0.2623  0.2624  0.2072
43188W        W86126  30.373  28.377  29.655 -0.1331  0.1054 -0.1071
43189W        W86127  29.153  28.228   0.415 -0.1851  0.1855  0.1476
43190W        W86128  28.865  25.501  31.252 -0.3937  0.4427 -0.2085
43191W        W86129  29.939  26.362  27.392 -0.3296 -0.0352 -0.0292
43192W        W86130  32.183  28.293  31.534 -0.0117 -0.1673  0.0708
43193W        W86131  30.194  27.853  30.597 -0.0108  0.1349  0.3189
43194W        W86132  32.718  27.454  29.724  0.3547  0.1153 -0.0067
43195W        W86133  28.908  28.131  31.039 -0.1551  0.2316  0.1321
43196W        W86134  31.744  29.181  29.769  0.3237 -0.1642 -0.1932
43197W        W86135  32.795  27.753  28.171 -0.3766  0.0127  0.1760
43198W        W86136  32.350  26.021  30.044 -0.0065  0.1399 -0.5257
43199W        W86137  30.851  26.243  30.471  0.0578 -0.2687 -0.0037
43200W        W86138  30.178  28.609  27.678 -0.0639  0.0263 -0.0734
43201W        W86139  30.053  28.638  30.046  0.0958  0.2435 -0.1754
43202W        W86140  33.998  28.774  31.497 -0.0484  0.4030 -0.0109
43203W        W86141  32.802  26.823  26.563 -0.0044 -0.0926  0.0247
43204W        W86142  28.867  28.355  27.903  0.0263 -0.1175 -0.2987
43205W        W86143  29.879  26.281  30.539  0.1319 -0.1967  0.0837
43206W        W86144  29.211  28.894  31.841 -0.0252  0.3687  0.0019
43207W        W86145  29.771  29.314  28.288 -0.0655  0.1965 -0.1420
43208W        W86146  28.344  28.702  29.563  0.2021  0.1183  0.0847
43209W        W86147  30.992  29.049  28.488 -0.0786  0.0744 -0.0754
43210W        W86148  29.675  26.007  30.056  0.2585 -0.1402 -0.0413
43211W        W86149  29.361  27.956  30.342  0.2413 -0.1732  0.2575
43212W        W86150  32.580  26.526  28.777  0.1074 -0.2303 -0.0237
43213W        W86151  29.576  27.174  29.296 -0.0988  0.0862  0.1706
43214W        W86152  32.674  25.744  30.394  0.3475  0.1166 -0.2518
43215W        W86153  29.976  28.918  28.047 -0.1805  0.0200  0.1459
43216W        W86154  32.685  28.072  29.141  0.0224  0.0839  0.0542
43217W        W86155  33.056  26.777  28.801  0.4308  0.1347 -0.0547
43218W        W86156  32.630  29.847  28.371  0.2635  0.2553  0.1788
43219W        W86157  28.366  28.160  31.325 -0.3345 -0.2187  0.2530
43220W        W86158  30.584  27.828  29.447  0.2442 -0.0072 -0.0253
43221W        W86159  28.866  27.178  31.898 -0.0558  0.0058  0.1369
43222W        W86160  29.171  27.551  29.174 -0.1907  0.2256 -0.1353
43223W        W86161  31.222  28.101  30.354 -0.1059 -0.2217  0.2024
43224W        W86162  30.188  26.868  28.843 -0.2525  0.1714  0.0493
43225W        W86163  32.192  27.960  30.025 -0.1884 -0.0178  0.0344
43226W        W86164  31.413  27.529  29.513  0.2612  0.0071  0.0824
43227W        W86165  29.321  28.390  28.185  0.1255 -0.0753  0.0429
43228W        W86166  32.657  25.508  29.966  0.2108 -0.0778  0.1358
43229W        W86167  32.251  28.748  28.939 -0.2524  0.1949 -0.1272
43230W        W86168  33.560  26.843   0.454 -0.1192 -0.2994  0.1158
43231W        W86169  32.422  27.573  28.463  0.0132 -0.1996 -0.0425
43232W        W86170  30.116  27.019  31.010 -0.2143  0.0850  0.2953
43233W        W86171  30.412  27.687  28.994 -0.0548 -0.0542 -0.0184
43234W        W86172  30.297  29.902  30.206  0.1152  0.1265 -0.0789
43235W        W86173  31.056  28.428  28.656 -0.1663  0.0785  0.0703
43236W        W86174  30.751  26.075  27.986 -0.0208 -0.0052 -0.5224
43237W        W86175  32.114  29.895  29.138 -0.2154 -0.0188  0.1724
43238W        W86176  31.217  28.355  27.909  0.1392  0.2907 -0.0879
43239W        W86177  28.770  28.393   0.669 -0.1152 -0.2710 -0.1406
43240W        W86178  32.239  26.059  30.540  0.1435 -0.0375 -0.2900
43241W        W86179  31.076  27.233  30.725  0.2093 -0.0735 -0.3749
43242W        W86180  31.998  28.220  29.674 -0.1662 -0.0405  0.1494
43243W        W86181  30.323  26.022  27.786 -0.1133  0.0739 -0.0923
43244W        W86182  31.401  27.880  29.905 -0.0828  0.1014  0.1202
43245W        W86183  29.497  28.844  28.102 -0.0060 -0.0423 -0.5225
43246W        W86184  29.611  28.028  28.416 -0.0466  0.0124 -0.0508
43247W        W86185  31.403  28.796  28.827 -0.0562 -0.3019 -0.0925
43248W        W86186  32.489  27.042  29.578  0.0400 -0.5901  0.0522
43249W        W86187  28.081  27.674   0.470  0.1409 -0.0625 -0.2106
43250W        W86188  30.581  26.931  30.800 -0.0238 -0.1225  0.2246
43251W        W86189  29.816  25.892  27.340 -0.4880  0.4178 -0.0979
43252W        W86190  29.877  27.590  31.848  0.0646  0.0648  0.1583
43253W        W86191  31.998  26.909  29.649  0.1107  0.0326 -0.0141
43254W        W86192  33.453  27.465  28.696  0.0318  0.2020  0.0705
43255W        W86193  31.144  25.798  30.480  0.1495  0.2455  0.0101
43256W        W86194  32.670  29.141  28.765 -0.2903 -0.2469 -0.0121
43257W        W86195  30.964  26.723  28.300 -0.1477 -0.3315 -0.1735
43258W        W86196  30.935  27.162  27.572 -0.0607 -0.0617  0.2647
43259W        W86197  29.266  28.400  30.198  0.0891 -0.0691  0.2577
43260W        W86198  31.561  28.243  28.542 -0.2706 -0.1545 -0.0435
43261W        W86199  30.737  27.897  29.956  0.1173  0.0506 -0.1479
43262W        W86200  30.358  26.479  27.983  0.0674  0.1935 -0.2004
43263W        W86201  32.972  29.719  29.153  0.0703 -0.4879 -0.1791
43264W        W86202  30.340  28.148  30.248 -0.1388  0.0050  0.0230
43265W        W86203  30.673  28.049  31.466 -0.1531  0.0041 -0.1101
43266W        W86204  31.038  28.301  29.915  0.0284  0.2892  0.2099
43267W        W86205  31.070  26.991  29.907 -0.1170 -0.2520 -0.4390
43268W        W86206  30.906  28.032  28.911  0.0201  0.0019  0.0268
43269W        W86207  31.341  26.571  29.858  0.0534 -0.0519  0.1429
43270W        W86208  28.979  30.144  27.639  0.0167 -0.1207 -0.1010
43271W        W86209  32.105  27.226  30.768 -0.1733 -0.0952  0.1113
43272W        W86210  32.491  26.929  31.096 -0.3731  0.1918  0.0768
43273W        W86211  30.159  26.390  28.906 -0.1682 -0.0188  0.0786
43274W        W86212  32.151  27.243   0.380 -0.0969  0.1553 -0.0133
43275W        W86213  32.700  28.647  28.671  0.0767  0.2176 -0.0346
43276W        W86214  31.761  26.756  30.070 -0.3321 -0.1960  0.2446
43277W        W86215  29.689  26.749  28.808 -0.0319 -0.2484 -0.0650
43278W        W86216  30.404  25.171  29.942 -0.1743 -0.3272  0.1907
43279W        W86217  30.933  28.315  31.143 -0.3680  0.0689 -0.2875
43280W        W86218  28.724  29.508  31.188 -0.1520 -0.0075  0.0848
43281W        W86219  32.026  28.611   0.006 -0.1204 -0.1631 -0.3575
43282W        W86220  32.365  27.890  28.824  0.2046 -0.1003  0.1825
43283W        W86221  31.229  28.125  31.493 -0.3133 -0.1161 -0.0878
43284W        W86222  29.957  27.631  30.242 -0.1557  0.2576  0.2258
43285W        W86223  30.254  30.211  27.858  0.0494 -0.1974 -0.0848
43286W        W86224  30.833  29.129  27.920  0.0488  0.1991 -0.1388
43287W        W86225  29.601  25.532  29.963 -0.2016 -0.2783  0.0850
43288W        W86226  30.818  29.081  30.040  0.0788 -0.3314  0.1917
43289W        W86227  30.864  28.651  28.218 -0.2872 -0.1506 -0.1472
43290W        W86228  30.472  27.977  30.980  0.2256 -0.2331 -0.4114
43291W        W86229  29.380  29.426  28.699 -0.0980  0.2981  0.2082
43292W        W86230  33.322  26.476  30.305  0.0525  0.0039  0.0757
43293W        W86231  27.993  28.746  28.120 -0.0759  0.0245  0.1436
43294W        W86232  31.277  25.821  28.694  0.3036  0.1826  0.0458
43295W        W86233  28.557  27.287  30.468  0.0377  0.1194 -0.1884
43296W        W86234  30.438  24.603  28.438  0.2657 -0.2168 -0.1214
43297W        W86235  32.210  26.805  27.865  0.0855 -0.1934  0.1833
43298W        W86236  29.232  27.514  29.723 -0.0988 -0.0385 -0.0050
43299W        W86237  30.333  26.806  30.190 -0.1722  0.2302  0.0809
43300W        W86238  27.578  28.170  29.918  0.0611 -0.3487 -0.1249
43301W        W86239  32.109  28.100  30.589 -0.0900  0.2638  0.0153
43302W        W86240  32.024  26.515  28.813 -0.0498 -0.2206  0.0439
43303W        W86241  31.195  28.450  30.713  0.1321 -0.0609 -0.1162
43304W        W86242  29.825  27.740  31.123 -0.0805 -0.0726  0.3589
43305W        W86243  29.815  27.068  28.467  0.1983 -0.1925 -0.0745
43306W        W86244  31.953  29.073  31.737 -0.1729 -0.1860 -0.1834
43307W        W86245  30.089  26.850  29.772  0.0691  0.2710  0.0847
43308W        W86246  29.599  28.461  29.220 -0.1003 -0.1424 -0.2170
43309W        W86247  30.962  27.841  31.129 -0.1207  0.1927 -0.0704
43310W        W86248  31.212  27.880  27.977  0.0071 -0.2562 -0.0615
43311W        W86249  29.309  28.826  29.133 -0.1110  0.0584  0.0537
43312W        W86250  30.385  25.619  31.627  0.0048 -0.0194  0.2348
43313W        W86251  31.933  28.248  31.037 -0.1592 -0.2342  0.0691
43314W        W86252  30.350  26.486  30.620  0.1879 -0.3390 -0.2417
43315W        W86253  28.334  27.007  28.485  0.1257 -0.2322  0.2865
43316W        W86254  31.812  27.251  29.320 -0.0628  0.0344 -0.0489
43317W        W86255  31.369  26.797  30.409  0.1613  0.1215 -0.1369
43318W        W86256  32.296  26.952  30.079 -0.0282  0.0178 -0.0846
43319W        W86257  29.340  27.408  31.841 -0.2143  0.1399  0.3440
43320W        W86258  32.430  25.650  29.247 -0.0044 -0.1395 -0.1022
43321W        W86259  31.915  29.043  28.160  0.1054  0.0808  0.1037
43322W        W86260  30.980  26.848  31.208  0.3299 -0.2599 -0.2645
43323W        W86261  29.052  27.433  28.257 -0.0335 -0.5488  0.1795
43324W        W86262  28.128  28.287  30.237 -0.1404 -0.1910  0.3789
43325W        W86263  30.316  28.189  28.459 -0.0249 -0.1977 -0.2249
43326W        W86264  30.443  26.257  29.926  0.0373  0.0286  0.0868
43327W        W86265  30.207  29.166  30.000  0.0765  0.3347 -0.0948
43328W        W86266  30.547  29.112  28.393 -0.0384 -0.1648 -0.1709
43329W        W86267  28.027  29.592  29.671  0.0062 -0.1534  0.2176
43330W        W86268  33.100  27.275  29.100  0.2256 -0.1976  0.0857
43331W        W86269  33.001  28.310  28.077 -0.0301  0.1125 -0.1334
43332W        W86270  30.954  26.898  29.397 -0.4064 -0.0623  0.2442
43333W        W86271  32.677  26.291  30.497 -0.0774 -0.0072 -0.0880
43334W        W86272  32.432  26.561  27.337  0.3966  0.0380 -0.3455
43335W        W86273  30.558  24.115  30.966 -0.1392 -0.1433 -0.1766
43336W        W86274  31.971  26.780  31.085  0.0459 -0.1623 -0.0378
43337W        W86275  32.994  28.229  29.499 -0.1142 -0.1878 -0.2023
43338W        W86276  28.982  27.131  30.117 -0.0073 -0.2080  0.1973
43339W        W86277  31.467  29.899  31.336 -0.1088  0.2338 -0.0795
43340W        W86278  28.702  26.790  29.400 -0.1005  0.1074  0.0307
43341W        W86279  31.316  27.178  28.572 -0.0280  0.1252  0.0150
43342W        W86280  30.236  26.108  28.308  0.1305  0.1512 -0.0751
43343W        W86281  31.337  27.388  30.332 -0.3579 -0.1280 -0.1966
43344W        W86282  31.431  28.572  30.176 -0.1571 -0.1083  0.2377
43345W        W86283  30.952  28.809  28.997  0.1103  0.1111  0.1445
43346W        W86284  33.107  26.564  29.794  0.1553  0.3398  0.1607
43347W        W86285  29.739  29.923  30.016  0.1594 -0.2927 -0.0417
43348W        W86286  33.199  27.950  28.456 -0.0018  0.1432 -0.2034
43349W        W86287  31.625  28.138  28.043 -0.2934  0.2393  0.0397
43350W        W86288  29.265  28.910  30.626 -0.0471 -0.0616 -0.1553
43351W        W86289  30.586  25.173  31.730  0.3062 -0.2872 -0.0003
43352W        W86290  30.200  27.480  30.880  0.0275 -0.1568 -0.2557
43353W        W86291  32.304  26.521  29.228 -0.0109 -0.1272 -0.1561
43354W        W86292  31.910  27.372  30.226 -0.1277  0.0779  0.0563
43355W        W86293  30.677  25.915  31.219  0.1732 -0.1556 -0.0631
43356W        W86294  30.745  27.278  30.284 -0.3206 -0.3656  0.0183
43357W        W86295  28.439  27.379  31.617  0.0500 -0.1290  0.3624
43358W        W86296  31.473  28.060  30.957  0.0746 -0.1092  0.3603
43359W        W86297  33.379  27.850  27.949  0.1768  0.1180  0.2432
43360W        W86298  32.670  26.558  30.054 -0.1625 -0.2889 -0.3543
43361W        W86299  32.687  27.308  28.853  0.0284  0.1710 -0.0480
43362W        W86300  32.724  28.082  28.554 -0.1438  0.1409 -0.1292
43363W        W86301  29.251  28.487  29.594 -0.1415  0.2285 -0.1663
43364W        W86302  30.760  27.293  31.419  0.0436 -0.4822 -0.2297
43365W        W86303  28.504  26.141  28.208 -0.0863 -0.2014  0.1244
43366W        W86304  31.867  25.778  29.992  0.1830  0.0418  0.0124
43367W        W86305  32.351  28.646  28.049  0.3207  0.1437  0.0368
43368W        W86306  32.153  27.892  29.248  0.0701  0.1165 -0.0818
43369W        W86307  32.421  27.967  27.577 -0.1987  0.1073 -0.0071
43370W        W86308  28.778  27.917  28.986 -0.1949 -0.1358  0.1104
43371W        W86309  28.474  28.828  30.195 -0.0387 -0.3498 -0.0268
43372W        W86310  30.805  26.874  28.828 -0.2269  0.2979 -0.1698
43373W        W86311  29.736  28.273  29.657 -0.1479 -0.0101  0.0357
43374W        W86312  29.519  27.004  31.038  0.0359  0.0188  0.2642
43375W        W86313  31.936  27.715  30.930  0.0354  0.0069  0.1060
43376W        W86314  31.742  26.140  28.533 -0.0293 -0.2444 -0.0574
43377W        W86315  32.539  27.201  30.502 -0.2907 -0.1183 -0.3175
43378W        W86316  29.727  29.113  29.657  0.0832 -0.0577 -0.0205
43379W        W86317  31.755  26.271  29.884 -0.1719  0.0430  0.1022
43380W        W86318  30.237  29.758  30.723 -0.3606  0.3342  0.0570
43381W        W86319  29.472  29.336   0.266 -0.1815 -0.1373 -0.1460
43382W        W86320  31.650  27.964  29.338 -0.3597  0.2969  0.2337
43383W        W86321  31.791  26.440  30.674  0.0085 -0.2818  0.2359
43384W        W86322  33.003  27.387  28.502 -0.0820 -0.0222 -0.1183
43385W        W86323  30.239  27.278  30.426  0.0113 -0.3172 -0.0275
43386W        W86324  32.621  28.728  30.345 -0.0505 -0.0843 -0.0631
43387W        W86325  31.441  29.258  29.322 -0.3555 -0.0283 -0.2194
43388W        W86326  29.795  28.220  30.185  0.0570  0.3233 -0.0085
43389W        W86327  31.624  29.007  30.292  0.2620  0.3147  0.0737
43390W        W86328  33.006  28.699  29.868  0.0468 -0.2228 -0.0107
43391W        W86329  29.422  29.434  30.467 -0.0773 -0.0575  0.3278
43392W        W86330  28.724  27.693  30.747 -0.2139  0.0047  0.0391
43393W        W86331  30.292  26.026  30.814 -0.0300 -0.0249  0.1543
43394W        W86332  30.414  27.494  29.921 -0.2538  0.1337 -0.1901
43395W        W86333  31.006  27.502  29.920 -0.0430 -0.1522 -0.0324
43396W        W86334  30.420  28.592  28.127  0.2552 -0.1149 -0.0348
43397W        W86335  29.625  28.667  31.090 -0.1380  0.1521 -0.2303
43398W        W86336  29.027  27.893   0.005 -0.0145  0.0754 -0.1169
43399W        W86337  29.670  29.708  28.953  0.4193 -0.0994  0.0237
43400W        W86338  32.013  26.688  28.358 -0.1059  0.0408  0.0489
43401W        W86339  32.301  28.375  28.551  0.0836 -0.2568  0.1053
43402W        W86340  32.488  30.486  29.591  0.0736  0.1519 -0.0859
43403W        W86341  31.432  27.441  27.851  0.0237  0.0813 -0.1597
43404W        W86342  29.638  29.191  30.847 -0.1739  0.0276  0.1516
43405W        W86343  30.386  28.109  27.929  0.2061 -0.0199 -0.0033
43406W        W86344  31.828  28.616  28.722 -0.1436  0.1867 -0.1393
43407W        W86345  30.583  29.173  28.924 -0.1871 -0.0095  0.0077
43408W        W86346  31.509  28.868  30.773 -0.3753  0.1277  0.0887
43409W        W86347  32.692  27.126  28.201 -0.0998 -0.2981 -0.1424
43410W        W86348  32.653  27.888  30.308 -0.1509 -0.0436 -0.2814
43411W        W86349  32.968  27.037  29.520  0.2005 -0.1382  0.2601
43412W        W86350  32.577  29.191  30.512 -0.2383  0.0532  0.2406
43413W        W86351  29.417  28.444  30.642  0.1198 -0.0450 -0.1979
43414W        W86352  29.722  25.964  28.286 -0.3334  0.1069 -0.0909
43415W        W86353  30.652  26.443  31.033 -0.4625 -0.0136 -0.1181
43416W        W86354  33.007  25.565  30.806 -0.0112 -0.2101  0.0386
43417W        W86355  28.036  29.181  31.483 -0.1588  0.1287  0.1209
43418W        W86356  33.438  27.393  28.224 -0.0230 -0.3988 -0.0929
43419W        W86357  28.364  26.944  28.966 -0.0281  0.1826 -0.2057
43420W        W86358  29.753  27.711  29.298 -0.1543  0.1447  0.0334
43421W        W86359  32.025  25.122  31.326 -0.1526 -0.1092  0.1337
43422W        W86360  31.593  29.168  27.542 -0.2066 -0.2257 -0.0629
43423W        W86361  32.126  27.458  28.858 -0.2679 -0.2717  0.0722
43424W        W86362  29.515  28.937  28.693 -0.1654  0.0758 -0.1076
43425W        W86363  29.952  30.142  31.066  0.0670  0.1407  0.2053
43426W        W86364  31.003  29.725  29.661 -0.3049  0.1342  0.0160
43427W        W86365  30.022  27.344  29.029 -0.0609  0.1294  0.0415
43428W        W86366  33.971  27.976  30.472  0.0790  0.0159  0.0318
43429W        W86367  28.680  26.233  30.708 -0.0688  0.0556 -0.1200
43430W        W86368  33.391  26.098  29.948 -0.0426 -0.0257  0.0162
43431W        W86369  29.312  27.995  29.503  0.3486 -0.2852 -0.1405
43432W        W86370  32.580  26.027  28.900  0.2008 -0.1066  0.3160
43433W        W86371  29.856  26.784  31.366  0.1741  0.1667  0.0330
43434W        W86372  28.877  26.900  31.420 -0.1987 -0.1614 -0.2330
43435W        W86373  30.992  27.388  28.280  0.1975  0.1647  0.1374
43436W        W86374  32.834  29.189  30.942  0.0148  0.0441 -0.1358
43437W        W86375  31.453  26.678  28.531 -0.0080 -0.1141  0.0568
43438W        W86376  32.170  29.546  29.796 -0.2023  0.0794 -0.2577
43439W        W86377  29.016  27.140  29.401 -0.0883  0.1916  0.2513
43440W        W86378  31.379  26.703  29.105  0.0694 -0.0378 -0.0122
43441W        W86379  29.576  28.465  28.709 -0.1468 -0.2252 -0.0250
43442W        W86380  30.532  25.120  30.863  0.0400 -0.0616 -0.0304
43443W        W86381  32.932  29.070  31.834 -0.0505 -0.3454  0.2138
43444W        W86382  29.732  26.220  28.654 -0.3162  0.3001  0.1392
43445W        W86383  33.026  29.243  29.098 -0.0006 -0.1996 -0.2450
43446W        W86384  33.419  27.611  30.639  0.2188 -0.0898 -0.1937
43447W        W86385  31.844  30.056  28.032  0.2065  0.2432  0.0395
43448W        W86386  32.510  27.886  29.666 -0.3023  0.0605 -0.0682
43449W        W86387  32.834  30.292  28.281  0.0147 -0.0090 -0.2184
43450W        W86388  29.039  27.923  29.962  0.0048  0.1732  0.4634
43451W        W86389  30.692  27.773  30.452 -0.0325 -0.1470  0.0096
43452W        W86390  31.854  28.654  31.398 -0.1347  0.0146 -0.1917
43453W        W86391  31.304  25.289  28.437 -0.0109 -0.0877  0.0996
43454W        W86392  30.506  28.892  29.702  0.1507  0.1209 -0.1524
43455W        W86393  28.330  27.813  29.100 -0.0331  0.2806  0.0515
43456W        W86394  32.408  27.465  30.097  0.0645 -0.2754 -0.1349
43457W        W86395  30.699  23.561   0.355  0.0716 -0.0962 -0.1866
43458W        W86396  31.266  29.474  28.612  0.0633 -0.1007 -0.2102
43459W        W86397  31.185  23.973  31.308 -0.0110 -0.0234 -0.0745
43460W        W86398  30.463  28.495  31.315 -0.2596  0.0503 -0.3393
43461W        W86399  28.532  30.422  30.204  0.0797  0.2042 -0.1422
43462W        W86400  30.819  26.569  29.732 -0.4288 -0.2622 -0.0053
43463W        W86401  29.723  27.341  31.407  0.1420  0.2570 -0.0427
43464W        W86402  31.950  30.618  28.189 -0.1321 -0.0816  0.3590
43465W        W86403  29.173  29.165  28.222  0.1228 -0.0420  0.2772
43466W        W86404  32.253  28.995  28.510  0.0888  0.0521 -0.0174
43467W        W86405  29.824  29.122  29.017  0.2715 -0.2523 -0.0377
43468W        W86406  32.233  28.512  30.118  0.0254  0.3637  0.0439
43469W        W86407  31.535  27.227  29.912  0.0397  0.1464  0.0901
43470W        W86408  34.212  26.303  27.602  0.0941 -0.3226  0.1031
43471W        W86409  33.421  26.990  29.483  0.2641 -0.0707  0.5167
43472W        W86410  30.833  26.666  30.240 -0.3476  0.2500  0.1013
43473W        W86411  30.769  27.332  28.878 -0.2154 -0.3483  0.1765
43474W        W86412  30.533  27.062  28.507 -0.0843  0.3513  0.1338
43475W        W86413  30.032  28.653  29.391 -0.1571  0.1539 -0.0630
43476W        W86414  31.720  26.462  31.906  0.0314  0.1553 -0.2672
43477W        W86415  29.998  26.374  31.059 -0.1669  0.1144  0.0230
43478W        W86416  28.644  28.225  30.181 -0.0420 -0.1035 -0.2576
43479W        W86417  29.831  27.347  29.762 -0.3143 -0.0200  0.1251
43480W        W86418  33.344  28.120  26.992 -0.1504  0.0494 -0.2060
43481W        W86419  30.440  25.408  30.424 -0.2208  0.0088  0.3537
43482W        W86420  29.326  26.739  29.405  0.1211 -0.2155  0.1483
43483W        W86421  31.970  27.953  28.536  0.2315  0.2667 -0.2062
43484W        W86422  32.799  28.894  28.092  0.0494 -0.1527 -0.2596
43485W        W86423  31.146  26.383  29.393 -0.3283  0.3355 -0.1119
43486W        W86424  30.976  29.018  29.537  0.1482  0.1564 -0.0605
43487W        W86425  29.864  28.219  27.943 -0.1880 -0.1881 -0.1852
43488W        W86426  31.513  24.734  31.945  0.0387  0.1032 -0.0921
43489W        W86427  32.261  26.749  30.615 -0.0065  0.1697 -0.0870
43490W        W86428  29.343  26.589  28.497 -0.5161  0.2508  0.1255
43491W        W86429  31.105  27.948  29.513 -0.0427 -0.0797  0.0868
43492W        W86430  31.472  29.987  28.770 -0.1638 -0.0474 -0.2156
43493W        W86431  31.762  29.834  26.305 -0.2451 -0.1767 -0.2951
43494W        W86432  30.818  28.406  29.363  0.1094  0.1352 -0.1399
43495W        W86433  30.538  29.286  30.421  0.2509 -0.1757  0.4137
43496W        W86434  29.801  25.017  31.329 -0.0947  0.0460 -0.0186
43497W        W86435  32.563  27.358  27.689  0.0647  0.0077 -0.0708
43498W        W86436  30.585  29.329  31.706  0.1806  0.2340  0.1375
43499W        W86437  33.221  29.080  28.613 -0.2093 -0.0685  0.2610
43500W        W86438  32.992  27.473  30.278  0.1886 -0.1449  0.0288
43501W        W86439  32.494  26.588  28.293 -0.1304 -0.0811 -0.0163
43502W        W86440  29.188  25.744   0.330 -0.0628  0.3335  0.0030
43503W        W86441  29.718  27.336   0.434 -0.0118  0.4595  0.1638
43504W        W86442  32.751  29.108  29.535  0.1373  0.2618 -0.1234
43505W        W86443  29.313  27.104  28.857  0.1313  0.0872 -0.2222
43506W        W86444  31.469  26.944  29.526 -0.0360  0.1730 -0.0319
43507W        W86445  31.498  28.100  27.544  0.3479 -0.0418 -0.1786
43508W        W86446  28.392  28.102  30.634 -0.4507 -0.1026 -0.1973
43509W        W86447  31.226  27.208  29.053  0.0893 -0.1444  0.1429
43510W        W86448  31.821  26.954  30.497 -0.0446  0.1031  0.0267
43511W        W86449  31.456  28.393  29.682  0.4286 -0.1920  0.0544
43512W        W86450  30.743  28.564  30.175 -0.0183  0.0629 -0.1751
43513W        W86451  30.066  28.975  28.557  0.1484  0.5077  0.0543
43514W        W86452  31.616  26.732  27.095  0.2743  0.1483 -0.1031
43515W        W86453  32.226  29.046  29.963 -0.3359 -0.0529  0.1861
43516W        W86454  31.655  28.328  31.663  0.0486  0.2868 -0.3305
43517W        W86455  30.411  31.002  30.079  0.0342  0.1030  0.4135
43518W        W86456  32.651  28.266  29.960 -0.1462 -0.1438 -0.0839
43519W        W86457  28.917  25.009  29.421 -0.2836  0.4666 -0.1964
43520W        W86458  31.844  27.700  29.797  0.1010  0.2786  0.0509
43521W        W86459  28.893  28.610  29.950  0.0779 -0.1298  0.0273
43522W        W86460  31.768  28.155  30.191  0.0284 -0.4947  0.3029
43523W        W86461  28.090  27.706  29.484 -0.0791  0.2293  0.2032
43524W        W86462  31.764  26.446  29.406 -0.1319 -0.3875  0.0653
43525W        W86463  28.823  30.003  30.429 -0.0511 -0.3687  0.1564
43526W        W86464  31.635  27.360  30.748  0.0892 -0.1045  0.1153
43527W        W86465  32.481  27.192  31.506 -0.0367 -0.0414 -0.1937
43528W        W86466  29.728  26.158  31.533  0.0275  0.0432 -0.0001
43529W        W86467  28.774  26.321  30.200 -0.0760 -0.0105 -0.1270
43530W        W86468  27.936  29.232   0.211  0.0678  0.2547 -0.1280
43531W        W86469  29.790  28.844   0.487 -0.0438  0.0507  0.2213
43532W        W86470  29.056  28.589  30.973  0.1462 -0.0332  0.0189
43533W        W86471  30.758  27.338   0.001  0.0328  0.0146 -0.0225
43534W        W86472  29.785  25.919  30.970  0.0412 -0.0697 -0.1690
43535W        W86473  33.765  25.518  31.953 -0.0364 -0.5149 -0.0566
43536W        W86474  31.434  27.961  31.980  0.0202  0.1144 -0.1588
43537W        W86475  30.183  27.192  31.574  0.1561 -0.1123 -0.1744
43538W        W86476  28.309  25.571  31.345 -0.0661  0.1153 -0.1328
43539W        W86477  31.949  28.770  30.946 -0.0379  0.4814 -0.0061
43540W        W86478  29.318  28.494  31.491  0.0731  0.0464 -0.0968
43541W        W86479  32.482  28.342  31.956  0.1636 -0.2296 -0.1671
43542W        W86480  27.867  30.571   0.834  0.0592 -0.0340  0.0809
43543W        W86481  29.744  28.141   1.044 -0.0213  0.1314 -0.2182
43544W        W86482  31.695  27.782  30.494 -0.0941  0.1725  0.1005
43545W        W86483  28.464  26.392  31.849  0.0828  0.0758 -0.2315
43546W        W86484  30.003  25.578  30.691 -0.1316 -0.1385  0.3559
43547W        W86485  31.073  25.157  31.610 -0.0625  0.2823 -0.0149
43548W        W86486  28.769  29.834  31.844 -0.4462 -0.1240  0.3998
43549W        W86487  32.936  26.928  31.671 -0.1183 -0.0695 -0.0975
43550W        W86488  32.678  26.557  31.874  0.1399  0.0489  0.1174
43551W        W86489  29.734  24.357   0.147 -0.1528  0.3423 -0.0132
43552W        W86490  30.986  24.909  31.131 -0.2978 -0.1054 -0.0391
43553W        W86491  29.734  26.779  30.652 -0.0378  0.0385 -0.0957
43554W        W86492  27.760  30.793  31.450 -0.1029 -0.1513 -0.0407
43555W        W86493  29.265  27.786  30.852 -0.1829 -0.0986 -0.0287
43556W        W86494  30.311  29.508   0.545  0.0935 -0.1979  0.2353
43557W        W86495  29.124  29.267  30.907  0.1009  0.2529  0.0584
43558W        W86496  29.302  25.921  31.398 -0.1392 -0.0493 -0.1874
43559W        W86497  31.864  27.875  31.459 -0.0964  0.0728 -0.0749
43560W        W86498  32.114  25.600  30.459  0.1317 -0.2797  0.1621
43561W        W86499  27.970  28.599  31.120 -0.3372  0.0675 -0.1171
43562W        W86500  28.444  27.898  31.740 -0.2735  0.2037  0.0915
43563W        W86501  30.299  29.384   1.633 -0.1437  0.3099  0.0336
43564W        W86502  31.925  28.074   0.036  0.2917 -0.1611 -0.1165
43565W        W86503  30.319  28.400  30.667 -0.0508  0.4059  0.2528
43566W        W86504  29.412  26.258  30.973 -0.0201 -0.3430 -0.3293
43567W        W86505  33.332  26.948  30.664 -0.0455 -0.1440  0.1687
43568W        W86506  31.291  27.219  31.171  0.1552 -0.0413 -0.0936
43569W        W86507  29.776  25.204  31.822  0.0587  0.0124 -0.1923
43570W        W86508  31.086  29.428  31.271 -0.0263  0.0032  0.1097
43571W        W86509  29.793  25.413   0.819  0.4018 -0.1209  0.1838
43572W        W86510  29.301  27.034  30.530  0.1685 -0.3027  0.0989
43573W        W86511  31.358  25.827  30.039  0.0473 -0.2970 -0.1525
43574W        W86512  31.103  27.628  31.629  0.1090 -0.1591  0.3102
43575W        W86513  33.741  28.984   0.189  0.2234 -0.1973 -0.0827
43576W        W86514  27.673  30.437  31.115 -0.0417 -0.0695  0.0475
43577W        W86515  29.744  28.033  30.718 -0.4013 -0.0111  0.1002
43578W        W86516  33.545  26.082  30.541  0.0703 -0.0187 -0.5009
43579W        W86517  31.780  25.625  31.355  0.1579 -0.0050 -0.0278
43580W        W86518  29.887  30.138  31.947 -0.1947  0.0125 -0.0727
43581W        W86519  29.764  27.125  31.887  0.0779  0.0134  0.0202
43582W        W86520  31.121  25.230  30.707  0.3019 -0.0733 -0.2687
43583W        W86521  32.415  27.073  31.939 -0.1571 -0.2237 -0.2780
43584W        W86522  29.241  29.973  31.780 -0.0671 -0.3648 -0.2421
43585W        W86523  30.113  29.540  31.772 -0.1564  0.0519  0.0155
43586W        W86524  30.103  27.744   0.274 -0.2700  0.5440 -0.0811
43587W        W86525  29.571  27.857  29.930 -0.0257  0.1124  0.3989
43588W        W86526  28.340  30.214  31.694 -0.3325  0.1727  0.1330
43589W        W86527  27.709  29.675   0.234 -0.2612  0.4060 -0.2337
43590W        W86528  28.888  27.596  31.649  0.1107 -0.1214 -0.3175
43591W        W86529  32.352  29.625  30.320  0.0534 -0.3212  0.0024
43592W        W86530  32.605  28.041   0.443 -0.1251 -0.2865  0.0187
43593W        W86531  32.554  27.604  31.811  0.3190 -0.2524  0.0393
43594W        W86532  30.718  31.283  18.306  0.0903  0.2667 -0.4260
43595W        W86533  29.110  30.788  18.281  0.2244  0.2026  0.0134
43596W        W86534  31.878  29.810  16.918 -0.0619 -0.2385 -0.0302
43597W        W86535  32.945  31.636  16.851 -0.0888  0.1830  0.0350
43598W        W86536  28.350  31.769  17.047 -0.0287  0.0084  0.2389
43599W        W86537  31.950  31.874  17.388 -0.1676  0.1425 -0.0767
43600W        W86538  28.242  29.829  18.697 -0.0291  0.0573 -0.0737
43601W        W86539  32.580  32.033  17.740  0.2738 -0.2266  0.0848
43602W        W86540  33.231  32.721  18.725  0.0625  0.0753 -0.4036
43603W        W86541  32.427  30.813  18.316  0.1988 -0.0832  0.0155
43604W        W86542  29.838  30.489  18.622  0.1438  0.1245 -0.0397
43605W        W86543  30.310  33.713  18.985  0.3170  0.0924  0.0229
43606W        W86544  30.938  30.512  17.353 -0.0325 -0.2708 -0.5551
43607W        W86545  27.587  30.719  18.103 -0.2336 -0.0039  0.2190
43608W        W86546  31.261  30.417  19.220  0.1531  0.3373 -0.2124
43609W        W86547  28.605  31.678  16.508 -0.3228 -0.1336 -0.0059
43610W        W86548  29.715  30.354  19.434 -0.0371  0.1079  0.1437
43611W        W86549  31.459  31.285  17.386 -0.1082 -0.1043 -0.2441
43612W        W86550  32.571  33.250  17.405 -0.1579  0.2364 -0.0972
43613W        W86551  31.671  30.120  18.018 -0.1341 -0.0375  0.2887
43614W        W86552  30.899  30.064  19.369 -0.0628 -0.0937 -0.1756
43615W        W86553  29.565  32.315  17.207  0.1738  0.0680  0.2275
43616W        W86554  31.182  30.307  16.508  0.0351  0.2127 -0.0213
43617W        W86555  29.001  31.297  18.500  0.0298 -0.2519 -0.0918
43618W        W86556  30.810  31.632  18.679 -0.1128 -0.1066  0.1874
43619W        W86557  31.534  29.358  18.996  0.1541  0.1188 -0.3180
43620W        W86558  31.693  30.702  19.137 -0.1679  0.0675  0.1669
43621W        W86559  30.797  33.961  19.827  0.0131 -0.2862  0.0620
43622W        W86560  31.235  32.705  18.436  0.2698  0.3522 -0.0927
43623W        W86561  31.684  30.230  20.738  0.1885 -0.3214  0.0955
43624W        W86562  30.287  32.040  17.621 -0.3093  0.0661  0.0916
43625W        W86563  30.894  33.771  18.525  0.1925 -0.0352  0.0555
43626W        W86564  30.853  32.741  17.356  0.0059  0.1002 -0.3503
43627W        W86565  32.881  32.460  19.261  0.0624 -0.0427  0.0149
43628W        W86566  31.381  32.604  19.247 -0.2142  0.1148  0.2428
43629W        W86567  30.728  32.989  19.244  0.3501 -0.0426 -0.0985
43630W        W86568  29.390  33.350  16.749 -0.0261  0.1219  0.0459
43631W        W86569  31.474  33.280  20.571  0.0657  0.0834  0.0869
43632W        W86570  29.615  32.031  18.365  0.2723 -0.0427 -0.1820
43633W        W86571  29.991  29.578  19.397  0.2393  0.0770  0.1466
43634W        W86572  30.257  30.538  17.658  0.6859  0.0107  0.0229
43635W        W86573  29.344  31.379  16.804 -0.3603  0.2042  0.1243
43636W        W86574  30.734  31.729  17.429 -0.1343 -0.0228 -0.2132
43637W        W86575  31.449  30.579  17.839 -0.1442  0.1416  0.3592
43638W        W86576  30.636  32.880  18.702  0.0335  0.1835  0.2856
43639W        W86577  32.899  30.938  20.824  0.2843  0.0974 -0.1910
43640W        W86578  29.692  33.130  16.270 -0.2779  0.3178  0.0121
43641W        W86579  32.023  31.480  17.035  0.0123 -0.1509 -0.2408
43642W        W86580  31.324  30.807  17.371 -0.3201  0.2701 -0.1388
43643W        W86581  30.379  30.349  18.603 -0.0813  0.0638  0.2132
43644W        W86582  30.050  28.282  18.432 -0.0602 -0.1324  0.0352
43645W        W86583  30.641  33.357  18.543  0.2765  0.1175 -0.2734
43646W        W86584  29.591  27.211  18.434  0.1413 -0.0620 -0.0621
43647W        W86585  32.378  31.661  19.548  0.3169  0.1016 -0.0187
43648W        W86586  30.381  31.006  17.879 -0.1563 -0.0262  0.0975
43649W        W86587  31.113  29.642  19.271  0.1393 -0.0547 -0.2169
43650W        W86588  30.885  30.610  19.554  0.1248  0.0935  0.3294
43651W        W86589  29.459  31.405  18.768 -0.0036 -0.1201 -0.1501
43652W        W86590  31.405  32.766  16.546  0.4116  0.0976 -0.2627
43653W        W86591  31.684  32.391  18.470 -0.0967 -0.3376 -0.2204
43654W        W86592  32.959  33.353  17.142  0.0793 -0.4341  0.2067
43655W        W86593  29.914  31.434  17.538 -0.0704  0.1143  0.0825
43656W        W86594  30.178  32.166  18.359  0.2370  0.1299  0.0511
43657W        W86595  29.254  30.768  19.714 -0.1316  0.0907 -0.1044
43658W        W86596  29.753  28.470  16.208  0.0215 -0.1270 -0.0410
43659W        W86597  32.606  32.643  21.155  0.2096 -0.2195  0.0504
43660W        W86598  28.958  33.414  21.332  0.1427 -0.0190 -0.4940
43661W        W86599  33.102  28.851  16.638 -0.2512  0.1090 -0.2404
43662W        W86600  31.503  32.998  18.014 -0.2326 -0.2752 -0.0268
43663W        W86601  33.885  32.588  19.050 -0.2394 -0.2322  0.1372
43664W        W86602  32.153  31.986  16.760 -0.0682  0.1523 -0.0512
43665W        W86603  31.934  30.645  18.027 -0.0902  0.3611  0.0875
43666W        W86604  31.836  28.320  19.111 -0.0483 -0.3459  0.1500
43667W        W86605  28.887  30.353  18.192  0.1222  0.2069 -0.2713
43668W        W86606  30.266  31.597  17.131  0.2551 -0.2190  0.0293
43669W        W86607  33.627  33.100  18.787 -0.0642 -0.1357 -0.4576
43670W        W86608  32.107  30.657  16.626  0.0575  0.0416  0.0037
43671W        W86609  29.270  32.188  18.759  0.2236 -0.1019  0.1597
43672W        W86610  29.767  30.111  18.940  0.0746  0.2715 -0.2422
43673W        W86611  31.312  33.235  21.043  0.0122  0.0452  0.0746
43674W        W86612  27.677  33.175  18.368 -0.2924  0.0286 -0.1408
43675W        W86613  28.648  30.820  17.281  0.1954 -0.0948  0.1329
43676W        W86614  28.310  31.258  16.484 -0.2066 -0.1003 -0.0258
43677W        W86615  29.505  28.111  18.498  0.4340 -0.2345 -0.0018
43678W        W86616  29.999  32.051  16.977 -0.2276 -0.0921  0.2624
43679W        W86617  32.983  28.833  17.136  0.0752 -0.0732  0.2679
43680W        W86618  29.187  28.386  19.780  0.3448  0.1231 -0.0655
43681W        W86619  32.584  29.970  18.391  0.0582 -0.2443  0.2108
43682W        W86620  29.035  31.957  16.572 -0.3903  0.3571  0.2401
43683W        W86621   0.170  31.731  18.565  0.0785  0.0140  0.0144
43684W        W86622  32.157  31.146  17.390 -0.3395  0.1096 -0.1901
43685W        W86623  32.072  32.995  17.001  0.0130  0.1177  0.1211
43686W        W86624  30.042  30.501  19.096 -0.0436  0.2540  0.1877
43687W        W86625  28.701  30.048  18.572  0.3715 -0.3720 -0.0165
43688W        W86626  30.091  29.258  19.813 -0.2705  0.1698  0.1748
43689W        W86627  28.483  30.985  19.400  0.0903  0.1108  0.2990
43690W        W86628  31.653  31.335  19.801 -0.0882 -0.2612  0.1865
43691W        W86629  29.367  28.269  16.651  0.0792 -0.0650  0.2436
43692W        W86630  31.043  29.790  18.213 -0.0179  0.2280  0.0352
43693W        W86631  28.508  31.078  17.776  0.1540 -0.1219 -0.0887
43694W        W86632  29.562  31.108  17.810 -0.1743 -0.0985  0.1037
43695W        W86633  32.029  28.986  19.838 -0.2372 -0.0917  0.1569
43696W        W86634  31.621  33.193  16.702  0.0063  0.1049  0.0987
43697W        W86635  32.633  32.046  19.386 -0.0580  0.4135 -0.0238
43698W        W86636  32.429  31.941  18.379  0.0565  0.0703  0.1027
43699W        W86637  29.140  30.081  20.791 -0.2053 -0.0768 -0.0174
43700W        W86638  29.548  29.213  16.790  0.1603 -0.0667  0.0069
43701W        W86639  29.493  32.575  19.052  0.1810 -0.2395 -0.0379
43702W        W86640  31.141  32.259  18.770  0.0130  0.3573 -0.1938
43703W        W86641  28.998  31.462  17.462  0.3775 -0.1592 -0.2803
43704W        W86642  31.307  33.538  18.259 -0.0604 -0.0251  0.1066
43705W        W86643  31.540  31.008  18.188  0.1124 -0.2313 -0.2599
43706W        W86644  30.292  32.853  19.708  0.2754  0.0009 -0.2188
43707W        W86645  32.484  29.433  19.819  0.4294  0.1448 -0.0733
43708W        W86646  32.721  31.307  19.475  0.1379 -0.0044 -0.0659
43709W        W86647  30.658  29.689  17.950  0.0598 -0.1186  0.2047
43710W        W86648  29.202  28.851  16.873 -0.0445  0.0052  0.0927
43711W        W86649  31.867  32.783  18.168  0.2327  0.2623 -0.0715
43712W        W86650  29.921  32.750  17.053  0.4876  0.3734  0.1682
43713W        W86651  29.619  30.536  17.483  0.2102  0.1894 -0.2388
43714W        W86652  30.701  32.552  18.211  0.0144  0.2345 -0.0159
43715W        W86653  33.326  30.223  18.271 -0.0727 -0.1176 -0.0422
43716W        W86654  29.879  31.307  19.603  0.2789  0.0459 -0.0451
43717W        W86655  32.639  31.476  19.983 -0.1529  0.0482 -0.0383
43718W        W86656  29.401  30.220  16.815 -0.1519  0.2107 -0.0153
43719W        W86657  30.141  32.330  19.714 -0.2918  0.1015  0.1823
43720W        W86658  31.774  30.146  19.465  0.2534  0.2626 -0.1476
43721W        W86659  31.698  30.345  16.599  0.0435 -0.0514 -0.0959
43722W        W86660  32.210  30.115  20.546  0.2434 -0.2404 -0.0628
43723W        W86661  34.262  32.370  18.773 -0.1994 -0.2728 -0.2915
43724W        W86662  30.595  29.654  18.443  0.3806  0.1074  0.0346
43725W        W86663  32.412  28.401  17.701  0.0604  0.1640  0.2884
43726W        W86664  29.025  31.178  19.355 -0.0771  0.1259  0.2163
43727W        W86665  31.245  33.001  16.981  0.1634  0.2420 -0.1591
43728W        W86666  30.925  31.446  19.117  0.0113  0.1284 -0.0060
43729W        W86667  30.999  29.382  17.445  0.1419 -0.1603 -0.1571
43730W        W86668  32.765  33.211  17.919  0.0468  0.0468 -0.0237
43731W        W86669  30.911  31.764  18.191 -0.0615  0.1883  0.2222
43732W        W86670  31.189  31.633  19.472 -0.0442  0.0858  0.0004
43733W        W86671  31.278  31.475  18.415 -0.0417 -0.0239  0.0578
43734W        W86672  30.079  28.828  18.917  0.0076  0.1350  0.1592
43735W        W86673  30.372  29.322  16.574 -0.3297  0.1211  0.2000
43736W        W86674  30.068  30.050  17.776  0.0413  0.1286 -0.1440
43737W        W86675  29.631  32.906  16.709  0.1584  0.0734 -0.2111
43738W        W86676  32.682  30.370  19.121 -0.0872  0.1187 -0.1613
43739W        W86677  31.050  29.578  18.684 -0.0152 -0.0388  0.1110
43740W        W86678  30.037  30.379  19.942  0.1707 -0.0438  0.0512
43741W        W86679  31.892  31.170  20.656 -0.0889  0.0587 -0.4051
43742W        W86680  31.113  31.975  16.870  0.0985 -0.1543 -0.3361
43743W        W86681  29.684  29.824  18.530 -0.0532  0.1495  0.0098
43744W        W86682  28.868  31.259  16.467 -0.2565  0.4119  0.2313
43745W        W86683  30.519  30.621  19.936  0.0900 -0.0596  0.1541
43746W        W86684  30.543  30.270  19.048  0.1583 -0.0305  0.2725
43747W        W86685  28.713  32.469  19.622 -0.1375 -0.1393 -0.4189
43748W        W86686  32.869  32.367  20.304  0.2487  0.0562 -0.2204
43749W        W86687  31.786  31.661  18.921  0.1085  0.0419 -0.0145
43750W        W86688  30.897  31.188  19.575  0.0604  0.0300 -0.2643
43751W        W86689  30.171  29.801  18.967  0.3957 -0.0541 -0.0783
43752W        W86690  30.374  32.366  17.239  0.1724 -0.2485  0.1526
43753W        W86691  29.440  31.601  16.367 -0.2349 -0.0613 -0.0601
43754W        W86692  30.305  29.301  18.716  0.0176 -0.0376 -0.1522
43755W        W86693  29.616  32.607  18.099 -0.0040  0.0892  0.0510
43756W        W86694  29.690  32.969  17.542  0.1120 -0.2295  0.3067
43757W        W86695  31.631  32.151  18.944  0.0445  0.4483 -0.1544
43758W        W86696  29.064  32.145  17.146 -0.1570  0.0152 -0.2374
43759W        W86697  31.266  30.872  18.563 -0.2642 -0.0531 -0.0234
43760W        W86698  28.333  32.020  18.951  0.2251 -0.0240  0.0463
43761W        W86699  29.738  30.753  16.498 -0.0718  0.1256  0.1337
43762W        W86700  28.502  31.405  17.307 -0.0427  0.1094  0.4857
43763W        W86701  32.321  30.637  17.623  0.0564  0.2804  0.0282
43764W        W86702  33.473  31.286  16.277 -0.1563  0.2282  0.3093
43765W        W86703  28.871  29.978  19.803 -0.4805  0.0177  0.0527
43766W        W86704  29.526  28.975  18.814 -0.1778 -0.4150  0.0318
43767W        W86705  30.142  32.692  18.353 -0.0421 -0.2967 -0.4212
43768W        W86706  30.856  30.062  18.574 -0.0544 -0.1636  0.0357
43769W        W86707  31.639  29.341  16.818 -0.1005  0.0931  0.2263
43770W        W86708  32.064  32.778  19.765  0.0301  0.4211 -0.1706
43771W        W86709  31.050  30.407  20.016  0.3002 -0.1701 -0.1015
43772W        W86710  29.107  29.398  16.887  0.1913  0.2431 -0.2913
43773W        W86711  31.145  33.017  18.845  0.1142  0.0100 -0.1793
43774W        W86712  30.564  30.057  17.634 -0.1539  0.0885 -0.1722
43775W        W86713  29.839  31.892  17.395 -0.1697  0.0382 -0.1140
43776W        W86714  31.684  34.497  19.632  0.2007 -0.1975  0.2825
43777W        W86715  30.832  30.924  17.050 -0.2365 -0.1660  0.3604
43778W        W86716  29.406  31.404  17.292 -0.1670 -0.1241  0.1100
43779W        W86717  30.362  30.469  20.406  0.3401 -0.1578  0.1071
43780W        W86718  31.725  30.947  18.728  0.2048  0.0002  0.1519
43781W        W86719  30.218  30.736  18.284  0.1552 -0.0606 -0.1795
43782W        W86720  29.016  28.344  19.312 -0.1563  0.0291  0.1881
43783W        W86721  29.819  31.466  16.851 -0.0328  0.0419 -0.1285
43784W        W86722  31.179  33.007  19.438 -0.2842  0.1161  0.1927
43785W        W86723  29.750  30.049  20.294  0.2120  0.1782  0.0944
43786W        W86724  31.254  32.135  19.297  0.1150 -0.1211 -0.1222
43787W        W86725  29.955  28.116  19.310 -0.0284 -0.0301  0.2600
43788W        W86726  32.434  31.775  17.162  0.0008 -0.0680  0.0665
43789W        W86727  31.765  30.541  19.725 -0.1668  0.3901 -0.0113
43790W        W86728  30.562  31.261  16.830 -0.1389 -0.0963  0.0613
43791W        W86729  29.367  31.275  19.719 -0.1008 -0.2475  0.1429
43792W        W86730  29.374  32.568  16.330 -0.1566  0.2246 -0.0715
43793W        W86731  29.118  29.922  18.421  0.2601 -0.1344 -0.1631
43794W        W86732  30.756  32.288  16.749  0.1410 -0.1190  0.2846
43795W        W86733  30.353  31.769  16.536 -0.1374 -0.0473  0.1801
43796W        W86734  29.973  32.277  19.150  0.3289 -0.0963 -0.0191
43797W        W86735  32.934  29.645  17.169  0.3412  0.1578 -0.3263
43798W        W86736  31.929  33.519  16.408 -0.0170  0.0468 -0.3580
43799W        W86737  30.206  29.572  17.814 -0.1785  0.0859 -0.3146
43800W        W86738  32.466  28.816  19.541  0.2498 -0.0246 -0.1922
43801W        W86739  31.426  31.956  18.022  0.0341 -0.4696  0.0417
43802W        W86740  31.129  30.258  20.899 -0.0242 -0.0305 -0.1328
43803W        W86741  29.307  29.386  18.580  0.0334  0.0313  0.0974
43804W        W86742  32.040  31.978  18.695 -0.3178  0.1008  0.0528
43805W        W86743  28.317  30.590  18.038  0.3552 -0.1950  0.0238
43806W        W86744  31.946  31.603  20.881 -0.1357 -0.1613  0.1215
43807W        W86745  30.672  30.994  19.213 -0.1882  0.0281  0.4696
43808W        W86746  29.797  29.317  17.783  0.0295  0.2273  0.5621
43809W        W86747  30.578  29.650  17.366  0.0255 -0.0644 -0.2063
43810W        W86748  30.673  32.110  18.534  0.0064 -0.2878 -0.1243
43811W        W86749  32.546  31.721  19.012 -0.1743  0.1299  0.0386
43812W        W86750  31.488  31.837  16.502 -0.0246  0.1588  0.2106
43813W        W86751  33.242  31.182  18.670  0.1371  0.0445  0.1799
43814W        W86752  29.800  32.402  18.608  0.0747  0.4584 -0.0120
43815W        W86753  33.034  29.762  16.615  0.4777 -0.1245  0.0307
43816W        W86754  29.718  30.117  17.351  0.0668  0.0326  0.2704
43817W        W86755  29.959  31.163  18.141 -0.1009  0.3519  0.2052
43818W        W86756  29.217  28.859  19.401 -0.2500 -0.4048 -0.2098
43819W        W86757  31.753  31.559  18.320  0.0496  0.0594 -0.1915
43820W        W86758  31.817  29.278  17.816 -0.0232  0.0480  0.1647
43821W        W86759  30.665  28.678  19.171 -0.0938  0.2190  0.0645
43822W        W86760  30.839  30.217  20.458 -0.3180  0.0126  0.3207
43823W        W86761  29.387  31.471  19.244  0.0113  0.0457  0.0157
43824W        W86762  28.939  29.430  19.803  0.1429  0.0419  0.0240
43825W        W86763  31.876  33.533  20.092 -0.2473  0.2772  0.1661
43826W        W86764  31.626  32.228  16.953 -0.0428 -0.0888  0.5676
43827W        W86765  32.237  30.949  18.833 -0.0305 -0.0424  0.0123
43828W        W86766  33.303  30.149  17.546 -0.0952 -0.1365 -0.1949
43829W        W86767  31.070  28.891  17.678  0.0884  0.1796  0.2373
43830W        W86768  29.089  31.449  18.010  0.0555  0.1349 -0.1832
43831W        W86769  31.657  30.757  20.717 -0.1810  0.0581  0.2071
43832W        W86770  29.172  30.107  17.468  0.2447  0.0484  0.1140
43833W        W86771  31.391  29.869  18.935  0.4837  0.3119 -0.1400
43834W        W86772  31.667  33.109  17.260 -0.2093 -0.0750 -0.3477
43835W        W86773  31.658  32.699  16.970 -0.0245 -0.2276  0.2154
43836W        W86774  31.528  31.657  17.030  0.2364 -0.0859  0.1923
43837W        W86775  28.535  29.371  17.327  0.0906  0.1533  0.2221
43838W        W86776  28.544  33.720  19.659 -0.0440  0.5206  0.1043
43839W        W86777  30.163  30.978  17.012  0.1335  0.2074  0.1665
43840W        W86778  31.029  31.389  17.150 -0.2524  0.0722  0.1967
43841W        W86779  31.465  31.913  18.539  0.1192  0.0598  0.0995
43842W        W86780  32.330  32.532  19.254  0.1159 -0.0555 -0.0245
43843W        W86781  30.612  29.116  17.313 -0.0768 -0.1819 -0.1940
43844W        W86782  30.970  30.930  20.004  0.0886 -0.0042  0.1805
43845W        W86783  29.482  31.874  16.978 -0.1444 -0.1244 -0.0258
43846W        W86784  30.486  29.748  19.411  0.0943  0.3872  0.1688
43847W        W86785  30.742  31.941  19.053 -0.1517  0.2031 -0.1714
43848W        W86786  29.331  30.888  18.732 -0.0651 -0.3352  0.2805
43849W        W86787  30.671  32.373  17.662 -0.0376  0.0596 -0.3379
43850W        W86788  30.121  31.103  19.205  0.1487  0.0384  0.2270
43851W        W86789  30.596  28.837  18.213  0.0174  0.2231  0.1066
43852W        W86790  30.369  31.623  18.362  0.1311  0.1328  0.2233
43853W        W86791  34.083  32.739  20.465  0.0573  0.0691  0.1065
43854W        W86792  32.205  30.503  19.086 -0.0927  0.0431  0.3277
43855W        W86793  29.866  31.622  18.439  0.0300 -0.0972  0.1189
43856W        W86794  31.226  33.764  20.018  0.0078  0.1365  0.0787
43857W        W86795  34.154  30.224  17.398 -0.1023 -0.0857  0.2854
43858W        W86796  30.537  33.016  18.158 -0.6114  0.0716  0.0302
43859W        W86797  28.948  30.528  20.070  0.0267  0.4253 -0.5381
43860W        W86798  31.175  31.371  20.002  0.1920 -0.0502  0.1802
43861W        W86799  31.261  31.752  18.985 -0.0300 -0.0262 -0.0378
43862W        W86800  29.269  29.303  17.785  0.2484  0.2687  0.0590
43863W        W86801  31.424  31.862  17.564  0.0102  0.0283  0.2396
43864W        W86802  28.654  32.027  19.944  0.2186 -0.0236 -0.0686
43865W        W86803  28.139  31.686  18.672  0.0948 -0.1033  0.4017
43866W        W86804  30.068  32.965  17.890 -0.2073 -0.1997 -0.4420
43867W        W86805  31.959  33.094  17.789 -0.3310  0.3094 -0.0111
43868W        W86806  30.757  30.530  17.816 -0.0451 -0.0706 -0.2695
43869W        W86807  31.570  32.753  18.819  0.0850  0.1215 -0.2858
43870W        W86808  30.872  29.924  16.719 -0.1727  0.0814  0.0367
43871W        W86809  29.472  31.296  18.309 -0.0678 -0.2474  0.0973
43872W        W86810  29.642  32.339  16.739  0.5024  0.0332 -0.0687
43873W        W86811  32.901  30.997  18.227  0.2295 -0.0432 -0.2484
43874W        W86812  29.033  32.375  18.313  0.0529  0.1431  0.0264
43875W        W86813  32.228  32.147  19.644 -0.1767 -0.0640 -0.1969
43876W        W86814  32.569  28.834  16.714  0.4010 -0.0383  0.2619
43877W        W86815  32.486  30.422  18.672 -0.0164 -0.0288 -0.1447
43878W        W86816  32.698  30.450  17.189  0.4527 -0.0241 -0.3260
43879W        W86817  31.136  31.967  20.537  0.2709  0.1030 -0.1474
43880W        W86818  30.278  31.622  17.884  0.4259  0.3143  0.1559
43881W        W86819  30.024  29.737  17.402  0.0512  0.0049  0.2007
43882W        W86820  30.350  30.762  18.809 -0.2993 -0.3315  0.0529
43883W        W86821  32.905  29.332  18.855 -0.0547 -0.2412 -0.0532
43884W        W86822  30.226  31.883  18.798  0.2390 -0.0488  0.0499
43885W        W86823  33.158  33.909  17.649 -0.0934  0.0804 -0.1721
43886W        W86824  30.215  30.164  17.252 -0.1869 -0.0417 -0.1024
43887W        W86825  29.875  30.496  16.976 -0.0015  0.1462 -0.0064
43888W        W86826  31.334  30.169  19.695  0.1398  0.0163 -0.1100
43889W        W86827  30.544  31.953  17.001  0.0726  0.0802  0.0513
43890W        W86828  31.294  30.313  18.756 -0.3367  0.0517  0.0271
43891W        W86829  29.131  31.778  18.459  0.0012  0.1506 -0.1611
43892W        W86830  28.778  33.551  18.080 -0.1531  0.1216 -0.1323
43893W        W86831  31.050  33.502  19.569  0.0534  0.1464 -0.0729
43894W        W86832  29.286  30.759  16.762  0.1756 -0.1399  0.1307
43895W        W86833  32.756  30.668  17.823 -0.0376  0.1544 -0.1306
43896W        W86834  30.306  31.275  18.766 -0.1618  0.1830  0.0544
43897W        W86835  32.337  29.995  19.062  0.0062 -0.1135 -0.0119
43898W        W86836  30.031  30.979  17.460  0.2377  0.1022  0.1524
43899W        W86837  33.210  30.667  17.408 -0.1896 -0.2848 -0.3075
43900W        W86838  30.858  30.611  18.996 -0.5174 -0.0340 -0.2254
43901W        W86839  29.199  30.181  19.469  0.1034 -0.0395 -0.0264
43902W        W86840  29.017  30.067  16.429 -0.2735  0.1672  0.0612
43903W        W86841  33.431  32.261  20.127  0.0970  0.0626  0.1952
43904W        W86842  30.952  31.026  17.588  0.1785  0.0705 -0.0867
43905W        W86843  31.162  33.147  20.028  0.1377  0.2187  0.0307
43906W        W86844  28.280  30.482  17.531  0.0242  0.1014  0.1522
43907W        W86845  31.040  29.845  17.293  0.2547  0.0672 -0.3656
43908W        W86846  28.651  32.114  16.826 -0.2977  0.1657  0.1084
43909W        W86847  29.287  30.564  17.857 -0.2165  0.0820 -0.2417
43910W        W86848  30.816  32.657  19.556 -0.1063 -0.1595 -0.3913
43911W        W86849  28.605  29.514  16.894  0.1329  0.0562  0.1688
43912W        W86850  31.865  32.318  16.549 -0.0160  0.1337  0.0941
43913W        W86851  31.079  30.884  18.056  0.0041  0.2167  0.0515
43914W        W86852  30.057  31.186  16.540 -0.2300 -0.1237 -0.1695
43915W        W86853  32.006  31.096  18.284 -0.0303  0.0464  0.0083
43916W        W86854  32.048  32.942  19.163 -0.0955 -0.0176 -0.0086
43917W        W86855  29.788  29.928  19.842  0.0566  0.1090 -0.1503
43918W        W86856  32.251  32.467  18.406  0.4402 -0.0208 -0.0224
43919W        W86857  32.370  32.858  18.077  0.0206 -0.3010  0.2977
43920W        W86858  31.944  30.304  17.596  0.0302  0.2685 -0.1272
43921W        W86859  28.472  30.488  18.489 -0.4210  0.0291 -0.0279
43922W        W86860  31.003  32.016  17.773  0.1769 -0.1091 -0.0499
43923W        W86861  32.166  29.803  19.645  0.3508 -0.0210  0.0640
43924W        W86862  31.812  30.187  18.967 -0.0411 -0.1774 -0.0448
43925W        W86863  30.891  32.770  16.589 -0.5790 -0.1417  0.1799
43926W        W86864  32.205  30.775  20.538 -0.3138 -0.3941  0.0742
43927W        W86865  31.567  30.507  18.349  0.0646  0.0577 -0.2825
43928W        W86866  29.960  33.684  20.839  0.2552  0.3266  0.1668
43929W        W86867  29.073  29.773  17.931 -0.0585  0.1136 -0.0507
43930W        W86868  31.578  29.601  19.487 -0.0111  0.0716  0.3075
43931W        W86869  30.481  31.225  17.406  0.0027 -0.1117  0.0249
43932W        W86870  31.254  32.998  17.527 -0.0326  0.1125  0.4063
43933W        W86871  31.906  31.494  17.835  0.1214 -0.2201 -0.4254
43934W        W86872  30.329  30.694  16.661 -0.3482  0.1381  0.0622
43935W        W86873  33.821  32.317  18.475 -0.0776 -0.1510  0.0597
43936W        W86874  28.683  28.634  19.051  0.2357  0.0675  0.0354
43937W        W86875  31.431  30.187  17.412 -0.0491  0.0467 -0.5156
43938W        W86876  31.806  30.938  17.064 -0.1107 -0.1701 -0.1369
43939W        W86877  31.232  30.929  19.092 -0.1971  0.0371  0.2916
43940W        W86878  30.318  29.785  16.930 -0.1021  0.2874 -0.1663
43941W        W86879  29.875  31.944  16.518  0.0319  0.1505 -0.3901
43942W        W86880  30.834  32.504  19.045  0.1552 -0.3221 -0.3852
43943W        W86881  29.551  29.817  19.346 -0.0345  0.2968  0.1997
43944W        W86882  28.787  30.591  19.630  0.1722 -0.1374  0.0843
43945W        W86883  30.370  32.436  18.763  0.3632  0.2493 -0.0122
43946W        W86884  29.656  29.363  17.268 -0.0235 -0.1074  0.0629
43947W        W86885  32.297  32.816  17.391  0.0170 -0.0325  0.2203
43948W        W86886  30.138  30.083  19.391  0.2004  0.2397 -0.0488
43949W        W86887  27.051  27.777  18.118  0.0988  0.1484  0.0061
43950W        W86888  30.729  31.420  17.853 -0.0999 -0.0930 -0.1946
43951W        W86889  32.127  32.315  17.201 -0.1142 -0.0125 -0.2216
43952W        W86890  30.206  30.215  16.695  0.2938 -0.1816  0.2485
43953W        W86891  32.004  32.711  20.501 -0.1262 -0.1915 -0.0238
43954W        W86892  28.555  31.744  17.663  0.1649  0.1887  0.0436
43955W        W86893  31.151  30.274  21.382 -0.0239  0.1190  0.0023
43956W        W86894  30.466  28.179  19.183 -0.1173  0.0899  0.0821
43957W        W86895  29.089  31.028  17.148 -0.0619 -0.0371  0.4446
43958W        W86896  29.933  30.256  18.186 -0.0564  0.1268  0.0677
43959W        W86897  31.961  31.979  18.132  0.1171  0.1520 -0.1188
43960W        W86898  31.327  32.401  17.418  0.0642  0.1688 -0.2919
43961W        W86899  28.551  29.712  19.266  0.0124 -0.1453 -0.0033
43962W        W86900  31.165  32.693  19.891  0.3486  0.4273 -0.1069
43963W        W86901  28.744  28.777  19.562 -0.0437  0.2568 -0.1378
43964W        W86902  32.148  30.219  16.811 -0.1549 -0.1991  0.2422
43965W        W86903  31.479  32.381  19.706  0.0551 -0.0211  0.0467
43966W        W86904  32.506  33.449  16.945  0.1285 -0.1787 -0.2082
43967W        W86905  33.642  29.590  18.492  0.2224  0.0313  0.1935
43968W        W86906  32.320  31.523  18.189  0.1142  0.1480  0.2852
43969W        W86907  28.516  30.256  20.030 -0.1038 -0.0382  0.2099
43970W        W86908  31.072  32.102  19.741  0.5555  0.1692 -0.0688
43971W        W86909  33.163  31.401  19.214 -0.0939  0.4238  0.1760
43972W        W86910  29.158  28.864  18.449  0.1456 -0.0868  0.1292
43973W        W86911  31.082  30.055  17.753  0.0881  0.0709 -0.1738
43974W        W86912  31.897  32.787  16.489 -0.2069  0.0603  0.1492
43975W        W86913  28.887  29.613  18.879 -0.2000 -0.1420 -0.1013
43976W        W86914  29.808  30.704  17.915 -0.1980  0.0018  0.2057
43977W        W86915  31.431  29.932  18.457  0.0632 -0.0061  0.0403
43978W        W86916  31.678  32.706  17.584  0.3419 -0.1588 -0.0815
43979W        W86917  32.026  32.469  18.881 -0.1234  0.0699 -0.1573
43980W        W86918  31.675  30.461  17.080 -0.1632 -0.1649  0.0985
43981W        W86919  33.855  30.808  16.729 -0.0305  0.1154 -0.0655
43982W        W86920  32.411  33.781  18.896 -0.4446 -0.0548 -0.0898
43983W        W86921  31.510  33.407  19.755  0.2943  0.2000 -0.1254
43984W        W86922  31.578  32.909  19.684 -0.1625  0.1375 -0.0781
43985W        W86923  33.155  31.425  18.255  0.0184 -0.1934  0.1427
43986W        W86924  29.001  29.651  17.345 -0.1217  0.1173 -0.2405
43987W        W86925  27.891  31.471  17.144  0.1197  0.0431 -0.0122
43988W        W86926  32.086  33.330  17.377  0.0242  0.0601 -0.0321
43989W        W86927  32.223  29.738  18.014  0.2398  0.2049 -0.1338
43990W        W86928  29.495  30.119  17.924 -0.0656 -0.3611  0.0302
43991W        W86929  31.474  29.620  17.215 -0.1789  0.2073 -0.0155
43992W        W86930  30.773  32.382  20.189  0.0987  0.0473 -0.2942
43993W        W86931  31.297  31.464  17.836  0.2799 -0.1344 -0.2083
43994W        W86932  29.364  31.292  24.141 -0.2336 -0.1028 -0.0255
43995W        W86933  28.613  30.739  20.387  0.0281 -0.2137 -0.0711
43996W        W86934  31.800  29.830  20.393 -0.1885  0.0392  0.1307
43997W        W86935  31.526  30.741  20.090 -0.1072  0.1947  0.0999
43998W        W86936  28.678  30.551  21.380  0.0700  0.1612  0.2691
43999W        W86937  30.957  32.932  20.721 -0.1013 -0.0578  0.0474
44000W        W86938  28.037  29.581  22.422  0.0297 -0.0263 -0.1448
44001W        W86939  31.848  32.074  21.536 -0.1799 -0.0045 -0.1467
44002W        W86940  32.654  34.264  22.783 -0.1424 -0.3434 -0.1881
44003W        W86941  32.297  31.238  20.297  0.2593 -0.0251 -0.1016
44004W        W86942  30.361  31.604  22.580 -0.0068 -0.2971  0.0912
44005W        W86943  29.030  31.524  25.089  0.0665  0.1559 -0.0701
44006W        W86944  29.924  31.012  21.469  0.0324 -0.3737 -0.1308
44007W        W86945  29.444  29.699  21.009  0.2556 -0.0516 -0.0598
44008W        W86946  31.802  32.217  22.096 -0.0222  0.0202 -0.0477
44009W        W86947  27.754  30.873  20.939  0.3361 -0.1310 -0.5037
44010W        W86948  29.002  30.762  21.721 -0.1194  0.2000 -0.0851
44011W        W86949  30.303  28.499  21.088  0.2946  0.2554  0.0720
44012W        W86950  31.355  32.255  21.765  0.0908  0.1857 -0.0704
44013W        W86951  29.841  29.378  22.802 -0.2603 -0.0981  0.0226
44014W        W86952  31.899  31.259  23.072  0.4105  0.0009  0.0555
44015W        W86953  31.560  31.286  19.117  0.0300 -0.3285  0.2637
44016W        W86954  28.215  29.006  20.466 -0.2445 -0.1553 -0.3259
44017W        W86955  29.314  30.181  22.112  0.1819  0.0855  0.0280
44018W        W86956  30.103  31.506  23.074  0.1194 -0.2227 -0.1542
44019W        W86957  32.048  30.342  21.960 -0.2844 -0.1928  0.0741
44020W        W86958  32.394  30.757  21.981  0.1350  0.2129  0.1320
44021W        W86959  29.696  32.591  22.449 -0.2398 -0.1300  0.5774
44022W        W86960  30.932  31.413  22.763 -0.1764  0.2109  0.1116
44023W        W86961  30.930  31.096  23.125 -0.1183  0.0271  0.0702
44024W        W86962  31.343  30.966  22.005 -0.2342  0.0281  0.0155
44025W        W86963  28.954  31.870  21.342 -0.0350  0.1041 -0.1499
44026W        W86964  29.929  32.145  21.242 -0.1878 -0.1312  0.2110
44027W        W86965  31.908  31.478  19.405 -0.0582  0.1153 -0.1276
44028W        W86966  31.181  32.024  22.725  0.1712  0.2577  0.1776
44029W        W86967  29.846  33.439  23.460  0.2861  0.0452 -0.1775
44030W        W86968  28.643  32.039  20.916  0.0856 -0.1479 -0.0792
44031W        W86969  31.026  32.937  24.261  0.0130  0.1385  0.0569
44032W        W86970  31.507  33.625  24.942  0.2264 -0.0234  0.1828
44033W        W86971  30.670  30.784  22.244  0.1626 -0.2220  0.1590
44034W        W86972  30.830  31.056  21.889 -0.0555  0.1984  0.1958
44035W        W86973  28.888  31.153  22.519 -0.1244 -0.1356 -0.1460
44036W        W86974  30.661  31.556  21.957  0.2744  0.0428  0.2262
44037W        W86975  29.649  31.846  23.038  0.0258  0.1725 -0.0944
44038W        W86976  29.107  31.979  22.344 -0.3167  0.0920 -0.0380
44039W        W86977  32.538  29.130  23.872  0.3382 -0.0808 -0.1107
44040W        W86978  30.215  32.445  20.236  0.0668 -0.0761 -0.1630
44041W        W86979  32.582  30.458  20.635 -0.1009  0.0034 -0.1315
44042W        W86980  32.299  31.256  19.195 -0.0795  0.0161  0.3256
44043W        W86981  31.345  29.862  20.447 -0.0316 -0.0802 -0.0304
44044W        W86982  30.531  28.538  22.510  0.1372 -0.0846  0.0023
44045W        W86983  29.913  33.008  22.249  0.1165 -0.2935  0.2129
44046W        W86984  30.998  30.869  22.693 -0.2612  0.0860 -0.2468
44047W        W86985  32.896  31.277  23.489  0.0332 -0.0782  0.2968
44048W        W86986  31.131  30.522  22.326  0.0081 -0.0402 -0.0409
44049W        W86987  31.214  30.143  21.979 -0.1830  0.3108  0.0524
44050W        W86988  30.630  34.113  22.865  0.1316  0.0254  0.2696
44051W        W86989  28.936  29.717  21.423  0.2353 -0.0564  0.0299
44052W        W86990  33.590  32.465  21.093  0.0454 -0.5089  0.1047
44053W        W86991  32.454  32.362  23.465  0.3108 -0.0422 -0.0623
44054W        W86992  31.714  32.565  20.092  0.1638 -0.1362 -0.0767
44055W        W86993  29.479  30.535  20.866 -0.1427 -0.0067 -0.1421
44056W        W86994  29.187  33.080  24.231 -0.2260 -0.3814 -0.3751
44057W        W86995  28.414  30.076  22.199 -0.1588  0.0948  0.2493
44058W        W86996  30.220  29.690  19.839  0.0359 -0.1854 -0.1213
44059W        W86997  32.366  31.560  22.703  0.1525  0.0325  0.1046
44060W        W86998  29.379  31.718  23.704  0.1222  0.0257 -0.1190
44061W        W86999   0.496  29.978  23.338  0.2175  0.2488  0.1010
44062W        W87000  29.075  32.185  22.984 -0.1237 -0.1175 -0.0150
44063W        W87001  31.519  32.993  22.693  0.1004 -0.0863  0.0776
44064W        W87002  33.008  30.955  19.945 -0.1557 -0.0715  0.0654
44065W        W87003  32.107  30.628  21.516 -0.5486 -0.1563  0.1778
44066W        W87004  31.889  30.848  21.970 -0.2230 -0.0520 -0.3326
44067W        W87005  29.728  30.986  19.945  0.3019 -0.0499 -0.0558
44068W        W87006  31.659  31.394  22.092 -0.0484 -0.1304 -0.0621
44069W        W87007  32.598  30.433  23.895 -0.0190  0.1982  0.2471
44070W        W87008  32.598  31.990  19.932 -0.2837  0.0609  0.1342
44071W        W87009  28.736  33.321  21.822 -0.0155  0.0422 -0.0126
44072W        W87010  30.431  28.910  23.888  0.0103 -0.2955 -0.1848
44073W        W87011  30.620  32.193  23.907 -0.1960 -0.0252 -0.1621
44074W        W87012  30.438  32.011  19.990 -0.3199 -0.1728 -0.1173
44075W        W87013  29.490  32.136  22.624  0.1486  0.1083 -0.0152
44076W        W87014  29.961  30.773  19.542 -0.0619 -0.0636 -0.2024
44077W        W87015  28.958  29.992  22.421 -0.1369  0.3814 -0.0566
44078W        W87016  28.562  32.898  22.013  0.2326  0.1631  0.0844
44079W        W87017  32.828  30.086  21.380  0.3540  0.0467 -0.0118
44080W        W87018  29.070  29.175  24.032  0.1823  0.2278  0.0936
44081W        W87019  31.131  29.474  21.231  0.0691 -0.0211 -0.0700
44082W        W87020  31.936  30.954  19.453 -0.2116 -0.0481 -0.4334
44083W        W87021  31.767  33.376  21.292 -0.2805 -0.2988 -0.2654
44084W        W87022  32.867  32.248  21.570 -0.0938 -0.0754  0.2339
44085W        W87023  31.864  32.445  19.386 -0.1549 -0.1538 -0.2221
44086W        W87024  28.238  31.133  22.671 -0.3785  0.1248  0.0588
44087W        W87025  27.854  31.410  21.077  0.1239  0.0937 -0.3413
44088W        W87026  30.139  29.191  23.117  0.0052  0.1653  0.1731
44089W        W87027  30.252  28.576  21.956  0.0464 -0.0426  0.1518
44090W        W87028  33.864  30.010  22.771 -0.1883 -0.0555 -0.2027
44091W        W87029  29.096  28.886  20.558  0.1047  0.0477 -0.3688
44092W        W87030  31.193  30.569  20.454  0.0458  0.1184 -0.1565
44093W        W87031  30.817  31.476  20.508 -0.1903  0.2945  0.0635
44094W        W87032  28.735  31.191  20.736 -0.1012  0.0157 -0.4006
44095W        W87033  33.700  29.587  24.271  0.3682  0.2024  0.1597
44096W        W87034  30.440  33.358  21.423 -0.3185 -0.1919  0.0974
44097W        W87035  31.101  32.689  21.590  0.0174 -0.0238 -0.0771
44098W        W87036  32.043  32.104  20.746  0.2221 -0.1080  0.1209
44099W        W87037  28.823  31.081  22.025  0.5117 -0.3379 -0.0865
44100W        W87038  28.899  29.668  20.400  0.0029 -0.4287 -0.0254
44101W        W87039  28.655  33.783  22.011 -0.1739 -0.0826  0.0458
44102W        W87040  30.810  30.663  21.337 -0.1885  0.2593 -0.5153
44103W        W87041  30.664  31.142  21.399  0.0408  0.1113 -0.2027
44104W        W87042  32.472  32.566  20.516 -0.0486 -0.1198 -0.1065
44105W        W87043  29.052  30.208  21.638  0.2258 -0.0380 -0.0333
44106W        W87044  28.829  31.811  23.965  0.0396 -0.0562  0.0761
44107W        W87045  31.185  29.710  22.915 -0.1129  0.1271 -0.2303
44108W        W87046  31.774  30.576  22.714 -0.2873 -0.1565  0.0186
44109W        W87047  31.054  29.637  22.075  0.0800  0.2067 -0.1293
44110W        W87048  27.465  28.478  20.203  0.4080  0.3147  0.2982
44111W        W87049  30.114  32.628  21.264 -0.0285  0.0161  0.1394
44112W        W87050  29.258  32.848  20.856  0.0826 -0.3087  0.2190
44113W        W87051  29.839  30.907  21.997 -0.4002  0.3597  0.2662
44114W        W87052  31.182  31.788  21.374 -0.2213 -0.0349  0.0625
44115W        W87053  31.754  28.513  21.083  0.3376  0.0039  0.1446
44116W        W87054  28.590  31.491  22.880 -0.0689  0.0633  0.0774
44117W        W87055  31.109  30.897  24.075 -0.1168 -0.3930 -0.2167
44118W        W87056  29.895  30.565  20.447  0.0499 -0.0055  0.1707
44119W        W87057  29.289  32.226  23.435  0.0516 -0.5704 -0.0223
44120W        W87058  31.072  29.482  20.295 -0.0973  0.0509  0.2054
44121W        W87059  32.640  31.582  20.485  0.0344  0.0153 -0.0369
44122W        W87060  31.526  30.980  22.506  0.0425  0.0608 -0.3603
44123W        W87061  32.258  32.171  21.855 -0.5048 -0.0043 -0.1998
44124W        W87062  31.317  30.813  19.627 -0.2227 -0.0579 -0.0189
44125W        W87063  31.192  31.016  21.497  0.0632 -0.0327 -0.0080
44126W        W87064  29.398  31.390  24.685  0.1576  0.4720 -0.1301
44127W        W87065  32.081  31.745  20.427 -0.0164  0.2787 -0.0800
44128W        W87066  30.269  32.484  21.701 -0.1044  0.0880 -0.1099
44129W        W87067  30.307  30.703  21.231 -0.2738 -0.0093  0.3396
44130W        W87068  32.338  33.017  20.281 -0.2042 -0.1563 -0.2739
44131W        W87069  28.165  31.930  23.150 -0.0654 -0.0919  0.1122
44132W        W87070  30.989  33.140  25.233  0.0197 -0.2772 -0.0286
44133W        W87071  30.945  32.455  20.655 -0.1074  0.1491  0.1648
44134W        W87072  30.362  30.114  22.449  0.0750 -0.1035  0.0578
44135W        W87073  30.778  31.065  18.722  0.1039 -0.1061 -0.0410
44136W        W87074  29.582  28.969  20.203 -0.1163  0.0625 -0.1001
44137W        W87075  30.347  31.683  20.323  0.2663  0.0802 -0.1191
44138W        W87076  32.561  30.470  22.326  0.2218 -0.1266  0.1502
44139W        W87077  29.304  29.728  21.704 -0.0559 -0.0548 -0.1778
44140W        W87078  31.622  27.659  22.702 -0.0397 -0.0275 -0.2035
44141W        W87079  32.100  30.468  23.947  0.2499  0.2351  0.1281
44142W        W87080  32.027  31.207  21.194  0.2072 -0.1594 -0.1430
44143W        W87081  31.611  32.339  20.551  0.0986  0.1143 -0.2812
44144W        W87082  29.190  30.954  20.267 -0.1570  0.3052  0.3305
44145W        W87083  31.643  30.005  22.010  0.0249 -0.1827  0.0459
44146W        W87084  28.587  32.177  23.068  0.0441 -0.0990  0.3524
44147W        W87085  29.305  33.136  23.485 -0.1036  0.2741  0.0298
44148W        W87086  30.147  33.217  23.938  0.0164 -0.1047 -0.1382
44149W        W87087  32.337  31.887  22.259  0.1684  0.0198  0.0246
44150W        W87088  31.394  31.043  23.541 -0.1176 -0.0265  0.1052
44151W        W87089  30.379  29.745  21.174  0.0728  0.1488  0.0683
44152W        W87090  29.901  32.744  20.792 -0.4522 -0.0389  0.1636
44153W        W87091  30.913  29.944  20.040  0.3212  0.0733  0.0633
44154W        W87092  30.044  28.627  20.577  0.0429 -0.0770 -0.2978
44155W        W87093  30.020  33.202  24.609  0.1337  0.4330  0.1199
44156W        W87094  31.247  32.302  21.275 -0.4795 -0.2087 -0.0229
44157W        W87095  30.435  31.038  23.348 -0.0578 -0.1376  0.1896
44158W        W87096  27.546  31.882  20.097 -0.0969  0.0235 -0.1264
44159W        W87097  32.185  29.886  20.991 -0.2515  0.2265 -0.1547
44160W        W87098  29.113  33.600  21.854  0.3199  0.0072 -0.0687
44161W        W87099  28.825  30.177  21.119 -0.3332  0.2660  0.0723
44162W        W87100  29.437  32.124  21.475  0.0088  0.3898 -0.1171
44163W        W87101  31.372  29.803  21.657  0.3143  0.2609 -0.1803
44164W        W87102  32.373  33.066  21.802  0.0626 -0.1817  0.2233
44165W        W87103  29.200  28.845  22.203 -0.0195 -0.0208  0.1534
44166W        W87104  30.115  29.262  21.488 -0.2075 -0.2580  0.0066
44167W        W87105  27.499  33.152  22.691 -0.0000 -0.1198  0.2570
44168W        W87106  32.373  29.775  23.553 -0.0835 -0.1679 -0.0314
44169W        W87107  30.310  30.001  20.189 -0.0078 -0.0826  0.1236
44170W        W87108  31.566  31.469  22.669 -0.0643  0.0404  0.0386
44171W        W87109  31.136  32.230  24.310 -0.2760  0.2562  0.3894
44172W        W87110  28.869  28.853  20.980 -0.1264 -0.1885  0.0901
44173W        W87111  32.270  29.618  21.892  0.1147  0.2544  0.0789
44174W        W87112  29.876  31.409  21.795  0.0859 -0.1760 -0.1052
44175W        W87113  30.609  31.123  20.817 -0.1159  0.0326 -0.0104
44176W        W87114  32.382  32.086  21.350 -0.1725 -0.1063  0.1498
44177W        W87115  30.416  31.568  19.203 -0.0316  0.0565 -0.0231
44178W        W87116  30.426  31.909  21.786  0.3128  0.1223 -0.2024
44179W        W87117  29.207  31.323  23.508 -0.0523 -0.1424  0.1656
44180W        W87118  32.355  31.364  22.054  0.1980 -0.1385  0.0352
44181W        W87119  29.275  28.561  21.804 -0.1916  0.1113  0.0305
44182W        W87120  30.081  30.360  20.961 -0.0097  0.1677 -0.0743
44183W        W87121  31.686  30.981  21.534 -0.3609  0.2285  0.1731
44184W        W87122  30.796  32.267  21.490  0.2131 -0.1783 -0.1389
44185W        W87123  32.113  30.674  22.371  0.1564 -0.0088  0.2166
44186W        W87124  29.984  31.557  24.748 -0.0268 -0.4880 -0.1319
44187W        W87125  30.753  29.609  21.619 -0.2605  0.1300  0.2610
44188W        W87126  32.655  34.514  20.049  0.4071 -0.1306 -0.0589
44189W        W87127  31.975  30.128  22.592  0.2415 -0.2613 -0.0067
44190W        W87128  28.934  30.570  20.719 -0.0934  0.0757 -0.2997
44191W        W87129  30.453  31.155  22.875 -0.0265  0.1803  0.2556
44192W        W87130  30.442  32.107  21.180 -0.0272  0.2693 -0.2827
44193W        W87131  30.542  30.065  23.374 -0.3994 -0.0471  0.2618
44194W        W87132  30.072  32.652  23.271 -0.0013 -0.3794 -0.2263
44195W        W87133  30.293  32.381  20.795  0.0220  0.0666  0.1124
44196W        W87134  28.776  32.436  22.050 -0.0037  0.2502  0.0334
44197W        W87135  31.609  30.155  21.228  0.1335 -0.1132 -0.3387
44198W        W87136  31.434  31.778  20.000 -0.0471  0.0002  0.0685
44199W        W87137  29.246  28.410  20.514 -0.5034  0.0709  0.2485
44200W        W87138  31.578  28.566  22.268 -0.2305 -0.1792  0.2177
44201W        W87139  32.471  30.279  20.179  0.1712 -0.1757 -0.0302
44202W        W87140  31.658  29.253  23.597 -0.0175  0.1047  0.1530
44203W        W87141  29.127  29.647  23.767  0.1286  0.0927  0.2279
44204W        W87142  32.445  31.765  20.907  0.3035  0.1181  0.2281
44205W        W87143  29.003  30.012  22.914  0.0506 -0.0525 -0.0479
44206W        W87144  31.441  32.447  23.557 -0.1091  0.1603 -0.2066
44207W        W87145  28.823  30.512  22.599 -0.0767  0.1927 -0.0016
44208W        W87146  31.948  30.980  20.083  0.1420  0.2069 -0.0853
44209W        W87147  28.233  28.038  20.211  0.1826 -0.1749  0.1534
44210W        W87148  29.763  32.380  22.934 -0.1260  0.2909 -0.2924
44211W        W87149  30.825  33.059  21.836  0.0409  0.1417 -0.1427
44212W        W87150  31.122  31.075  20.507 -0.1444 -0.2699 -0.2719
44213W        W87151  32.846  30.747  22.639 -0.3092  0.3144  0.2034
44214W        W87152  29.018  31.527  22.083 -0.3808 -0.1422  0.3698
44215W        W87153  32.740  31.298  21.232  0.0542  0.1849 -0.0740
44216W        W87154  31.607  31.861  20.465  0.0002 -0.2591  0.1548
44217W        W87155  28.852  30.409  22.071 -0.3264  0.1554 -0.0922
44218W        W87156  30.758  28.109  22.625 -0.0120  0.1208 -0.0633
44219W        W87157  31.280  30.366  22.840  0.5681 -0.1400 -0.1539
44220W        W87158  31.790  29.536  21.999 -0.0012 -0.0698 -0.0865
44221W        W87159  30.085  29.688  22.463 -0.1826 -0.0627  0.1134
44222W        W87160  31.517  30.789  24.285 -0.3864  0.0441  0.1173
44223W        W87161  28.866  31.036  24.040 -0.2244 -0.2156  0.0275
44224W        W87162  29.019  30.221  24.507 -0.0913 -0.2089  0.2478
44225W        W87163  31.872  33.192  21.781  0.0546  0.3523  0.0491
44226W        W87164  32.768  30.554  21.573  0.0348 -0.0259 -0.1296
44227W        W87165  31.974  30.001  21.643  0.1237  0.2397 -0.0013
44228W        W87166  32.884  30.797  22.026 -0.0340 -0.0801  0.1750
44229W        W87167  31.341  31.535  20.738  0.0504 -0.1466  0.1046
44230W        W87168  29.403  31.150  21.849  0.1904  0.0063 -0.1978
44231W        W87169  31.343  31.298  24.174 -0.0590  0.1407 -0.0590
44232W        W87170  30.371  31.130  19.672  0.0772  0.2141  0.1681
44233W        W87171  30.716  30.258  22.130  0.0531 -0.0861  0.3605
44234W        W87172  30.645  31.624  21.435 -0.0178 -0.3021 -0.4377
44235W        W87173  31.448  32.880  21.920  0.1490  0.0712  0.1060
44236W        W87174  30.857  29.895  21.198  0.0577  0.1708  0.0923
44237W        W87175  29.258  30.732  22.206 -0.1069  0.0228  0.0515
44238W        W87176  29.875  31.665  23.460  0.0461  0.2825  0.1762
44239W        W87177  29.697  30.979  20.451  0.0027  0.1047  0.2570
44240W        W87178  29.931  31.975  20.050  0.1975  0.0340 -0.1436
44241W        W87179  31.107  33.606  22.074 -0.1849 -0.0839  0.2325
44242W        W87180  32.853  29.962  23.889 -0.0955 -0.0015  0.3321
44243W        W87181  30.807  29.806  20.703 -0.1171 -0.2027 -0.4948
44244W        W87182  32.776  30.065  24.856 -0.6386  0.2073 -0.0475
44245W        W87183  28.685  32.648  20.296  0.1239  0.3365  0.1747
44246W        W87184  31.209  27.968  22.254  0.0487  0.0058  0.0328
44247W        W87185  28.915  33.457  23.160  0.2175  0.1328  0.2297
44248W        W87186  28.033  31.912  23.932 -0.2972  0.3034 -0.1322
44249W        W87187  29.114  32.999  22.978 -0.0561  0.1618 -0.2292
44250W        W87188  29.925  29.926  21.277  0.2527  0.0255 -0.2441
44251W        W87189  30.827  30.046  21.686  0.0256 -0.0929 -0.0456
44252W        W87190  30.637  31.281  22.366  0.1408 -0.0966 -0.0602
44253W        W87191  32.138  30.814  23.332  0.0776 -0.1208  0.0136
44254W        W87192  31.127  32.291  22.282  0.0416  0.1093  0.3206
44255W        W87193  30.636  30.679  23.008 -0.0892 -0.3239 -0.3669
44256W        W87194  30.218  32.521  22.282 -0.0780  0.1704 -0.2106
44257W        W87195  32.020  31.667  19.879 -0.0694  0.2589 -0.0752
44258W        W87196  29.701  32.549  21.530 -0.1874 -0.1694 -0.0158
44259W        W87197  28.360  30.809  23.648  0.3023  0.5320 -0.1864
44260W        W87198  29.464  31.244  22.329  0.0315 -0.1905  0.1486
44261W        W87199  29.772  31.909  21.781 -0.4111  0.1162 -0.3377
44262W        W87200  30.309  28.094  22.438  0.1892 -0.3220  0.2456
44263W        W87201  30.560  31.989  20.627 -0.0737 -0.3138 -0.2228
44264W        W87202  30.183  31.754  24.221 -0.0317 -0.4879 -0.2796
44265W        W87203  29.551  31.379  23.045  0.1439 -0.0446  0.2135
44266W        W87204  30.029  31.836  20.835  0.0901  0.4481 -0.0195
44267W        W87205  31.660  31.891  19.557 -0.1696 -0.0977 -0.2210
44268W        W87206  31.614  31.396  20.298 -0.0526  0.0969 -0.3911
44269W        W87207  31.600  31.877  21.024 -0.0570 -0.1509  0.2427
44270W        W87208  30.181  30.847  20.755  0.1457  0.2108  0.1840
44271W        W87209  28.405  31.842  21.337 -0.0301 -0.3632 -0.0772
44272W        W87210  28.610  31.648  20.550 -0.4949  0.3320  0.0539
44273W        W87211  30.898  31.794  20.135  0.1285 -0.2384  0.5310
44274W        W87212  29.716  32.336  21.996  0.1303 -0.3778 -0.2777
44275W        W87213  32.383  32.373  22.948  0.2134 -0.1792  0.1102
44276W        W87214  31.112  28.839  19.049 -0.1300  0.0799 -0.1137
44277W        W87215  32.468  30.801  21.067  0.0944  0.0175  0.1664
44278W        W87216  33.097  30.929  19.440  0.0104  0.2363 -0.0874
44279W        W87217  30.585  31.920  23.376 -0.1246 -0.0076  0.2518
44280W        W87218  31.032  30.581  21.793  0.4365  0.0336  0.1114
44281W        W87219  29.543  29.173  21.170  0.0861  0.1289  0.0928
44282W        W87220  28.411  31.156  23.282 -0.3898 -0.0908  0.3110
44283W        W87221  31.820  28.390  24.187 -0.1119 -0.1071 -0.1260
44284W        W87222  28.396  34.112  24.152  0.0310  0.5083 -0.0554
44285W        W87223  30.932  33.605  21.361 -0.0599 -0.2555 -0.1599
44286W        W87224  29.334  30.091  21.283  0.0750  0.0460 -0.0528
44287W        W87225  30.312  30.191  21.483  0.1008  0.2174 -0.0161
44288W        W87226  31.668  30.200  23.050 -0.2004  0.2922 -0.3265
44289W        W87227  30.746  31.711  19.629  0.1309  0.0179  0.2752
44290W        W87228  30.167  29.758  21.688  0.0637 -0.1082  0.2453
44291W        W87229  29.162  33.041  21.870 -0.0676  0.2647 -0.1828
44292W        W87230  30.239  32.410  22.807 -0.0956  0.0403  0.1272
44293W        W87231  30.581  32.512  23.326  0.0438 -0.2115  0.2809
44294W        W87232  27.121  28.021  20.854 -0.1067 -0.0369  0.0306
44295W        W87233  33.521  29.274  22.164  0.2896  0.1202  0.2736
44296W        W87234  29.468  30.946  23.308 -0.1304  0.1857 -0.0995
44297W        W87235  33.004  28.996  21.840 -0.1030 -0.0618  0.0168
44298W        W87236  29.444  30.582  21.758  0.2363 -0.0558 -0.1507
44299W        W87237  31.590  30.459  22.263 -0.2429 -0.3280 -0.1332
44300W        W87238  32.150  32.022  22.730  0.4505 -0.1176 -0.0297
44301W        W87239  29.714  30.181  21.632  0.0708 -0.4280  0.0781
44302W        W87240  30.370  30.060  20.674 -0.2254  0.0230  0.1441
44303W        W87241  33.081  30.546  24.085 -0.1943  0.1968 -0.1064
44304W        W87242  31.491  30.657  21.252  0.1006  0.5101  0.2270
44305W        W87243  31.362  32.244  23.107 -0.1686  0.0172 -0.1292
44306W        W87244  29.712  29.857  22.022  0.0880 -0.2941 -0.0141
44307W        W87245  31.148  31.467  21.755 -0.0984 -0.1522  0.0706
44308W        W87246  29.655  31.437  21.356  0.0110 -0.1386 -0.0262
44309W        W87247  30.193  30.686  22.760 -0.0878 -0.3257  0.2936
44310W        W87248  31.793  33.246  23.226  0.0560 -0.1420  0.0389
44311W        W87249  28.460  28.531  21.168  0.0078  0.1292 -0.0052
44312W        W87250  31.632  32.740  21.460  0.2037  0.2280  0.0667
44313W        W87251  32.550  30.218  21.882  0.0145  0.1530 -0.1570
44314W        W87252  30.016  33.983  20.423 -0.2461 -0.0043 -0.1197
44315W        W87253  30.970  31.978  21.921 -0.3283  0.0444 -0.2678
44316W        W87254  31.710  32.373  21.064  0.0191 -0.1417 -0.0411
44317W        W87255  30.147  31.676  21.392 -0.0108  0.0180 -0.1597
44318W        W87256  32.529  32.603  21.898 -0.2325  0.1397  0.1838
44319W        W87257  31.306  32.715  20.987 -0.0649  0.0185  0.0746
44320W        W87258  30.110  30.971  20.258 -0.1207 -0.1007  0.3042
44321W        W87259  29.165  30.626  23.073 -0.0258  0.1185 -0.0681
44322W        W87260  29.147  32.273  21.081  0.1797  0.0914  0.1571
44323W        W87261  33.045  30.391  23.570 -0.0455 -0.2029  0.1197
44324W        W87262  32.395  29.435  22.440  0.1597  0.1957  0.1696
44325W        W87263  30.530  33.626  19.456  0.3416  0.5744  0.0120
44326W        W87264  31.756  28.596  22.951 -0.1452  0.0084 -0.0596
44327W        W87265  30.292  32.211  24.411  0.1864  0.0428  0.2647
44328W        W87266  30.278  32.737  24.498  0.1020  0.1192  0.0786
44329W        W87267  29.882  31.496  19.043 -0.0786 -0.1950  0.1320
44330W        W87268  30.169  32.033  23.101  0.2319 -0.2017  0.0293
44331W        W87269  30.630  30.896  20.352  0.2292 -0.1151 -0.0394
44332W        W87270  30.379  33.731  21.144  0.1382  0.2722  0.1521
44333W        W87271  31.969  32.694  21.975 -0.0384  0.1879 -0.3645
44334W        W87272  29.705  30.081  20.846 -0.0452  0.3352  0.0537
44335W        W87273  34.060  32.400  21.651 -0.0856 -0.3209  0.0552
44336W        W87274  30.228  30.579  22.293 -0.0630 -0.0290  0.0505
44337W        W87275  32.503  29.119  20.711 -0.1561  0.1179  0.0143
44338W        W87276  32.283  30.405  19.625  0.1279  0.1343 -0.1392
44339W        W87277  30.816  31.315  24.807 -0.2572  0.0627  0.2078
44340W        W87278  27.959  30.806  22.365  0.0665  0.0295 -0.0236
44341W        W87279  29.741  30.989  20.970  0.0423 -0.3170  0.0809
44342W        W87280  29.789  31.668  22.537  0.1470  0.1014  0.1773
44343W        W87281  30.418  29.060  21.903 -0.1487  0.0521  0.0424
44344W        W87282  28.933  30.043  23.969  0.1544 -0.0821 -0.3403
44345W        W87283  30.073  31.179  22.320 -0.0302  0.3161 -0.0435
44346W        W87284  28.720  29.177  20.556  0.0268 -0.3308 -0.1376
44347W        W87285  32.833  31.640  22.128  0.0024  0.1267  0.0474
44348W        W87286  29.907  28.939  21.910 -0.0897  0.1956 -0.0476
44349W        W87287  29.928  29.879  22.853  0.0086  0.0147 -0.1215
44350W        W87288  33.041  31.967  20.652 -0.0592  0.2366 -0.1713
44351W        W87289  31.722  32.939  20.976  0.1676 -0.0096 -0.0319
44352W        W87290  32.427  28.458  20.606  0.2309 -0.2134  0.2442
44353W        W87291  33.185  32.444  24.434 -0.2729 -0.1929 -0.1329
44354W        W87292  30.552  32.149  19.533  0.0307 -0.0493 -0.4792
44355W        W87293  30.690  31.811  24.364 -0.2858 -0.0561 -0.1625
44356W        W87294  30.826  29.311  23.118 -0.2595 -0.0533 -0.3419
44357W        W87295  29.417  30.349  19.944  0.1450 -0.3473  0.0725
44358W        W87296  31.523  29.991  22.608 -0.0170  0.0265  0.0375
44359W        W87297  31.103  31.366  22.279 -0.3912 -0.2396 -0.0187
44360W        W87298  33.287  32.863  20.317  0.1559 -0.1234  0.0437
44361W        W87299  30.701  33.399  20.881  0.1634  0.2418  0.1489
44362W        W87300  30.377  32.842  22.635  0.0467 -0.0080 -0.2907
44363W        W87301  29.797  29.839  23.697 -0.0267  0.0766 -0.3383
44364W        W87302  32.426  31.276  20.820 -0.0203 -0.2431  0.1526
44365W        W87303  29.411  32.202  24.405  0.1712 -0.1365 -0.1255
44366W        W87304  32.377  31.149  21.615 -0.2043  0.1443 -0.0166
44367W        W87305  33.098  29.699  25.049  0.0574  0.2160  0.2853
44368W        W87306  30.937  31.453  20.990  0.1377  0.0255 -0.1142
44369W        W87307  29.226  28.646  23.056 -0.1484  0.0229 -0.5308
44370W        W87308  29.393  30.974  22.730  0.2028  0.1163 -0.0723
44371W        W87309  32.522  31.004  22.427 -0.1864  0.1420  0.2894
44372W        W87310  29.217  31.012  20.750  0.0563  0.3356  0.2032
44373W        W87311  31.647  29.296  20.454  0.0227  0.2859  0.5241
44374W        W87312  30.476  31.636  20.918 -0.0798 -0.2644  0.2234
44375W        W87313  27.904  30.717  21.809  0.1643 -0.0442  0.0990
44376W        W87314  30.219  31.216  21.143 -0.0187  0.0822  0.0280
44377W        W87315  32.061  31.217  22.441 -0.1736 -0.0362 -0.0145
44378W        W87316  30.847  32.348  22.958 -0.0938 -0.1491 -0.0252
44379W        W87317  31.740  31.458  23.523 -0.3908  0.4214 -0.2535
44380W        W87318  29.359  30.492  20.399  0.0009 -0.0529  0.0894
44381W        W87319  33.003  31.981  19.087 -0.1018  0.2534 -0.1126
44382W        W87320  31.081  32.730  23.285 -0.0131 -0.2412  0.3516
44383W        W87321  30.972  33.446  24.286  0.1054  0.2634  0.0907
44384W        W87322  31.623  33.261  22.259 -0.0281  0.0091  0.2334
44385W        W87323  32.372  30.397  22.783  0.0072 -0.1815  0.1628
44386W        W87324  29.540  29.868  22.523 -0.2665  0.0756  0.3065
44387W        W87325  29.512  31.445  20.792 -0.3489 -0.2308  0.2116
44388W        W87326  30.507  30.656  21.790 -0.4407 -0.2393 -0.1681
44389W        W87327  30.749  30.418  22.582 -0.1111  0.0581 -0.0106
44390W        W87328  30.040  30.576  21.698 -0.1405  0.2671 -0.2028
44391W        W87329  30.722  30.594  20.800  0.3836  0.0319  0.0990
44392W        W87330  30.354  33.359  23.510  0.0705  0.1385  0.0460
44393W        W87331  30.744  32.536  21.088  0.0489  0.3436 -0.1579
44394W        W87332  29.850  31.267  25.200 -0.1450  0.0636 -0.1870
44395W        W87333  29.319  30.916  24.509  0.1055  0.0261 -0.1322
44396W        W87334  31.232  29.419  23.820  0.0690 -0.0017 -0.0081
44397W        W87335  33.686  30.608  24.098 -0.1898 -0.1139 -0.0535
44398W        W87336  28.502  30.711  24.098  0.3636  0.3391  0.1401
44399W        W87337  30.643  31.915  22.894  0.0517  0.1401  0.0006
44400W        W87338  30.160  29.149  25.812  0.0318 -0.0535 -0.1898
44401W        W87339  32.012  32.919  24.531  0.2768 -0.1088  0.1322
44402W        W87340  33.157  32.113  26.538 -0.0993 -0.1556  0.1282
44403W        W87341  31.243  30.569  23.717  0.0269 -0.0153 -0.0086
44404W        W87342  30.859  30.640  25.985 -0.2559  0.0683  0.0226
44405W        W87343  30.540  30.991  26.001  0.3903  0.1255  0.0880
44406W        W87344  30.321  29.087  24.486 -0.0410  0.2026 -0.0299
44407W        W87345  27.046  30.751  25.090 -0.2151 -0.0374 -0.4194
44408W        W87346  31.811  29.979  25.487 -0.0879 -0.0324 -0.2498
44409W        W87347  29.831  32.549  25.813 -0.0223 -0.3060  0.1070
44410W        W87348  29.993  31.317  26.058 -0.1490  0.0699 -0.1962
44411W        W87349  30.002  29.955  24.224 -0.1238 -0.2032  0.4735
44412W        W87350  31.400  30.212  24.636  0.3041  0.0997 -0.1510
44413W        W87351  29.860  30.123  26.611  0.1457  0.5153  0.0076
44414W        W87352  31.901  29.923  27.529 -0.1073  0.1258  0.1886
44415W        W87353  31.496  32.559  24.368 -0.1335  0.0752  0.1660
44416W        W87354  30.661  31.464  23.210 -0.2773 -0.1264 -0.2824
44417W        W87355  30.993  31.701  25.096 -0.1513 -0.2877  0.1311
44418W        W87356  28.486  30.894  26.801  0.4445 -0.1057 -0.1107
44419W        W87357  32.178  29.581  25.481 -0.0947  0.2814 -0.1632
44420W        W87358  32.840  31.982  24.742 -0.0083  0.0992 -0.3517
44421W        W87359  32.320  30.258  24.714 -0.0058 -0.2360  0.1439
44422W        W87360  31.079  33.723  25.259  0.1155 -0.4296 -0.1541
44423W        W87361  32.779  30.922  27.522 -0.1584  0.1231 -0.0868
44424W        W87362  30.087  31.587  26.671  0.1216 -0.0463 -0.0477
44425W        W87363  29.791  33.000  25.622  0.2463  0.1176  0.2698
44426W        W87364  31.707  31.549  24.433 -0.1451  0.1208 -0.1375
44427W        W87365  32.726  32.202  24.057  0.0128  0.0439 -0.4159
44428W        W87366  32.429  31.910  25.914 -0.1944 -0.3039 -0.2261
44429W        W87367  30.762   0.106  26.993 -0.1095  0.3927  0.1491
44430W        W87368  31.549  31.998  24.560 -0.0861 -0.2479 -0.1711
44431W        W87369  31.935  31.936  26.213 -0.0924  0.1099 -0.1586
44432W        W87370  30.333  32.447  26.050  0.1800  0.0962 -0.1492
44433W        W87371  29.408  30.056  26.339 -0.1375  0.2619  0.0461
44434W        W87372  31.090  30.346  24.230 -0.3986  0.2261 -0.3204
44435W        W87373  31.322  31.124  24.601 -0.3169 -0.1250 -0.3241
44436W        W87374  30.521  32.492  25.606 -0.0531 -0.1151  0.2086
44437W        W87375  30.274  30.716  27.147  0.3426 -0.1638 -0.0631
44438W        W87376  29.661  33.199  26.504 -0.1865 -0.0011  0.1595
44439W        W87377  32.610  29.583  27.812 -0.3473 -0.0439 -0.1784
44440W        W87378  29.024  32.249  24.825  0.0093 -0.0568  0.0093
44441W        W87379  32.124  29.990  23.047 -0.0365 -0.1602  0.4671
44442W        W87380  29.224  29.015  22.681  0.1868  0.5250 -0.2098
44443W        W87381  34.192  29.228  23.454  0.0558  0.1423 -0.1914
44444W        W87382  30.168  30.895  24.524  0.3556  0.5022 -0.0274
44445W        W87383  31.887  31.932  24.922 -0.0732  0.1576  0.0872
44446W        W87384  29.844  30.648  26.692 -0.1121 -0.3893  0.3254
44447W        W87385  31.950  31.579  25.826 -0.2491 -0.1206  0.0275
44448W        W87386  30.315  30.234  22.974  0.2580 -0.2574  0.1893
44449W        W87387  31.340  30.478  27.405 -0.0699 -0.1533  0.0339
44450W        W87388  30.531  30.949  26.799  0.0230 -0.0975 -0.0023
44451W        W87389  30.539  29.946  24.973 -0.1217 -0.1709  0.0938
44452W        W87390  31.432  31.080  23.065  0.0897 -0.1101  0.1588
44453W        W87391  32.780  33.326  25.323 -0.0062 -0.1072  0.1986
44454W        W87392  30.967  32.239  23.516 -0.3344  0.2469 -0.1493
44455W        W87393  29.783  30.847  24.239  0.0285 -0.3996 -0.0623
44456W        W87394  29.738  31.090  26.436  0.0655 -0.3272 -0.1139
44457W        W87395  29.370  30.197  27.220 -0.2346  0.1085  0.3101
44458W        W87396  28.938  29.328  23.468  0.0323  0.1579  0.0042
44459W        W87397  31.853  31.470  26.360 -0.1555 -0.0037  0.1083
44460W        W87398  29.517  32.013  26.801 -0.0534  0.1710  0.3487
44461W        W87399  33.201  30.657  25.049  0.0562 -0.0087 -0.1047
44462W        W87400  29.729  31.032  24.757 -0.1435  0.0466  0.0059
44463W        W87401  32.060  32.057  25.689 -0.3349  0.2193  0.2137
44464W        W87402  32.362  31.392  23.901 -0.1872 -0.0406 -0.0146
44465W        W87403  31.938  29.347  26.374 -0.0716 -0.0938  0.1864
44466W        W87404  32.634  30.068  26.003 -0.2914 -0.0735 -0.1340
44467W        W87405  29.822  32.377  25.224 -0.2612  0.1342  0.1790
44468W        W87406  30.852  31.379  24.204  0.4083 -0.0752 -0.2238
44469W        W87407  31.438  33.210  25.552 -0.1558  0.1751  0.0491
44470W        W87408  33.388  30.953  22.047  0.1279  0.1471 -0.1451
44471W        W87409  30.527  32.738  26.395  0.0683 -0.2499 -0.0241
44472W        W87410  31.396  31.667  28.777  0.2541 -0.1320  0.0291
44473W        W87411  30.125  31.584  27.827 -0.5248 -0.1563  0.1769
44474W        W87412  28.392  33.800  24.628 -0.2613 -0.0377 -0.0311
44475W        W87413  28.386  31.955  25.648  0.1753 -0.1741 -0.0257
44476W        W87414  28.968  32.595  24.445 -0.1088  0.2897 -0.0899
44477W        W87415  28.873  29.706  26.546  0.3126  0.1844  0.0753
44478W        W87416  30.124  32.102  25.551  0.2490  0.3404 -0.0426
44479W        W87417  31.159  28.798  24.715 -0.2343 -0.3013 -0.3659
44480W        W87418  29.411  29.752  27.577 -0.3084 -0.1469 -0.0088
44481W        W87419  33.011  29.757  26.068 -0.0535 -0.1781  0.4163
44482W        W87420  30.508  31.910  24.870  0.2801 -0.5304 -0.0423
44483W        W87421  31.892  33.760  23.373  0.1931 -0.4294 -0.1513
44484W        W87422  32.547  29.562  24.151  0.1885 -0.0873  0.2563
44485W        W87423  31.790  31.832  23.099 -0.3115  0.2341  0.0197
44486W        W87424  30.271  31.932  26.211 -0.0010 -0.1789 -0.0413
44487W        W87425  30.052  29.671  25.840 -0.2513 -0.1364  0.3172
44488W        W87426  30.092  30.208  28.362  0.1187  0.2064 -0.1437
44489W        W87427  29.227  29.209  25.861 -0.2014 -0.1581 -0.0525
44490W        W87428  31.848  31.516  27.248  0.0784  0.5921  0.1066
44491W        W87429  29.580  31.771  24.350 -0.2696 -0.3245 -0.1005
44492W        W87430  32.267  30.883  24.343  0.1331 -0.3689 -0.2668
44493W        W87431  29.747  30.648  22.994 -0.0625  0.0078  0.0847
44494W        W87432  28.153  31.400  25.605  0.1984  0.1209 -0.2927
44495W        W87433  32.317  31.393  25.617 -0.0373  0.4825 -0.2124
44496W        W87434  30.980  33.961  24.317  0.3303  0.0739  0.1471
44497W        W87435  32.985  32.539  26.365 -0.0044 -0.0554  0.3455
44498W        W87436  32.469  32.693  23.944  0.0169  0.1842 -0.0515
44499W        W87437  31.010  28.584  27.018  0.1394 -0.2588  0.0049
44500W        W87438  29.437  30.625  24.960  0.1186 -0.1808  0.0622
44501W        W87439  29.987  32.979  26.918  0.2703 -0.0693  0.0281
44502W        W87440  32.254  32.767  24.922  0.0791 -0.0849  0.1775
44503W        W87441  31.010  29.997  22.428 -0.0132 -0.5299 -0.1549
44504W        W87442  33.823  32.346  25.792  0.2337 -0.1467  0.0337
44505W        W87443  30.368  31.102  24.123  0.3096  0.1617  0.0640
44506W        W87444  29.079  32.227  27.014 -0.0292 -0.0485  0.0519
44507W        W87445  31.734  30.393  25.775  0.0031  0.1728  0.0850
44508W        W87446  33.429  32.832  26.445 -0.2849  0.1875 -0.6820
44509W        W87447  30.201  30.775  25.232 -0.2982 -0.2176  0.0138
44510W        W87448  29.447  28.553  22.609 -0.0955 -0.0034  0.0731
44511W        W87449  32.183  34.327  24.861  0.1639  0.2375  0.0089
44512W        W87450  29.546  32.916  24.693  0.1339  0.1467  0.1840
44513W        W87451  29.709  30.459  24.577 -0.2352  0.0571 -0.0229
44514W        W87452  31.548  32.064  25.612  0.1021  0.1947  0.1262
44515W        W87453  32.426  28.160  26.012 -0.0470 -0.0832 -0.0680
44516W        W87454  29.425  30.407  26.773  0.0479 -0.0388  0.0017
44517W        W87455  31.956  30.310  27.230  0.0123  0.0129 -0.5119
44518W        W87456  29.937  31.074  23.344 -0.1592 -0.0080  0.2894
44519W        W87457  29.173  31.824  27.975  0.2170 -0.0967  0.1061
44520W        W87458  31.521  28.636  26.901  0.0043  0.0964  0.0933
44521W        W87459  32.350  30.068  24.234 -0.1704 -0.0693  0.1098
44522W        W87460  30.708  30.817  25.051 -0.1283  0.0753  0.0438
44523W        W87461  32.264  32.123  23.907  0.0664  0.1270 -0.2343
44524W        W87462  31.760  30.769  23.769 -0.1467  0.2113 -0.0748
44525W        W87463  30.740  30.017  22.889 -0.3361 -0.4040 -0.2547
44526W        W87464  30.144  32.075  28.153 -0.2221 -0.2788 -0.0083
44527W        W87465  30.604  31.659  23.828  0.1830  0.0592  0.4036
44528W        W87466  30.236  31.189  25.591 -0.0551 -0.0021  0.1943
44529W        W87467  30.322  29.696  23.088 -0.1189 -0.0043  0.1841
44530W        W87468  32.845  32.812  25.721  0.2198  0.1983 -0.1405
44531W        W87469  29.921  32.421  26.894  0.0700  0.0324  0.0565
44532W        W87470  31.305  30.857  26.522 -0.0737  0.0244 -0.1280
44533W        W87471  32.273  31.848  25.258 -0.0713  0.0409 -0.1192
44534W        W87472  31.154  28.800  26.571 -0.1437  0.1959  0.1238
44535W        W87473  29.766  31.197  23.798 -0.1748 -0.2300  0.4059
44536W        W87474  30.876  29.409  25.343 -0.1845  0.3808  0.0623
44537W        W87475  28.422  33.638  23.934  0.1503  0.0752  0.0957
44538W        W87476  32.139  29.854  25.887 -0.3260  0.2534  0.0834
44539W        W87477  31.795  30.612  27.571 -0.1231  0.0061 -0.2494
44540W        W87478  30.946  29.486  26.189 -0.3884  0.0705 -0.3929
44541W        W87479  32.432  30.593  27.339 -0.0828  0.1304  0.1343
44542W        W87480  30.226  29.393  24.050 -0.1858 -0.2364  0.1067
44543W        W87481  31.570  30.755  24.810  0.1225  0.2299 -0.2630
44544W        W87482  30.438  31.685  25.770 -0.1972  0.1628 -0.0049
44545W        W87483  30.855  30.967  25.559 -0.0928  0.2074  0.1190
44546W        W87484  29.019  30.156  26.716 -0.0741  0.1342 -0.0961
44547W        W87485  31.342  33.045  26.468  0.0146  0.1129  0.0642
44548W        W87486  29.811  32.309  27.745 -0.0031 -0.0066  0.0833
44549W        W87487  33.624  31.849  25.816  0.0729 -0.2070  0.0306
44550W        W87488  31.332  29.066  27.045 -0.0202  0.1774  0.2503
44551W        W87489  29.388  30.228  23.845 -0.0639 -0.4513 -0.0135
44552W        W87490  31.010  32.450  25.098  0.1488  0.1082  0.0229
44553W        W87491  31.627  32.157  24.016  0.0691  0.0921  0.2042
44554W        W87492  29.762  30.088  27.788 -0.2482 -0.0524 -0.1833
44555W        W87493  32.006  32.027  24.355  0.0463  0.2150  0.1348
44556W        W87494  30.727  32.415  24.558 -0.2536 -0.0317 -0.2000
44557W        W87495  31.474  31.521  24.960  0.0041  0.2984 -0.1954
44558W        W87496  29.439  32.732  25.362 -0.0232  0.0708 -0.0395
44559W        W87497  32.715  28.620  26.883 -0.1000 -0.0709 -0.0771
44560W        W87498  29.033  33.930  26.525  0.1576  0.0587  0.1406
44561W        W87499  30.449  29.260  22.674 -0.1456  0.2859 -0.1541
44562W        W87500  30.316  31.096  24.914  0.2185 -0.2619  0.2158
44563W        W87501  31.424  29.949  25.062  0.5825  0.1271  0.0805
44564W        W87502  33.340  31.659  24.764 -0.1523  0.0385  0.0856
44565W        W87503  30.327  29.576  25.359 -0.0551 -0.0892 -0.5108
44566W        W87504  30.455  29.999  25.719 -0.0506  0.2898  0.1951
44567W        W87505  30.988  31.249  27.462 -0.0486  0.1227 -0.1486
44568W        W87506  31.502  30.044  27.235 -0.0841 -0.0087  0.0870
44569W        W87507  32.079  29.625  24.321 -0.0828 -0.1116  0.1736
44570W        W87508  31.384  32.194  26.472 -0.2279  0.1073  0.0085
44571W        W87509  31.257  32.420  25.992 -0.0113 -0.3841  0.0073
44572W        W87510  28.659  30.409  23.130 -0.1054  0.0442  0.0154
44573W        W87511  32.447  32.052  26.459  0.0240  0.2524  0.3318
44574W        W87512  31.382  29.886  25.976 -0.5636  0.0872 -0.0133
44575W        W87513  28.526  32.500  25.046  0.3316 -0.0151 -0.0887
44576W        W87514  30.419  31.375  24.556  0.0621 -0.2860  0.2156
44577W        W87515  29.798  32.099  23.960  0.3400 -0.0123  0.0997
44578W        W87516  29.844  32.081  24.636  0.2144 -0.1592 -0.1585
44579W        W87517  29.586  29.473  27.188 -0.0292  0.2344  0.1703
44580W        W87518  31.570  30.336  23.974  0.2588 -0.2080 -0.1354
44581W        W87519  29.729  29.202  26.001  0.2005 -0.0978  0.0110
44582W        W87520  28.859  29.721  25.071 -0.1554  0.0993 -0.0201
44583W        W87521  31.162  31.645  24.588  0.2511 -0.0259  0.0707
44584W        W87522  33.195  31.008  25.449 -0.2096 -0.1265  0.1131
44585W        W87523  32.040  30.682  26.210 -0.0089  0.3111 -0.1358
44586W        W87524  28.949  30.711  27.626  0.1338 -0.0362 -0.1660
44587W        W87525  30.694  29.101  26.373  0.1792 -0.1528 -0.2192
44588W        W87526  32.608  32.819  23.284  0.2095 -0.2794  0.3336
44589W        W87527  31.615  31.074  26.130  0.3545 -0.1491  0.1549
44590W        W87528  30.806  31.072  23.743  0.1777 -0.2774  0.3318
44591W        W87529  29.879  31.561  25.684  0.2601  0.1011  0.3191
44592W        W87530  29.414  30.803  23.814  0.1806  0.3948  0.1832
44593W        W87531  32.259  30.170  26.412  0.0925 -0.2051 -0.2679
44594W        W87532  29.062  32.786  26.545 -0.1255  0.2730  0.0526
44595W        W87533  30.636  32.021  25.364 -0.1371 -0.4251  0.0277
44596W        W87534  30.257  32.920  25.961  0.4475  0.2577 -0.2396
44597W        W87535  31.143  29.035  26.074 -0.3416 -0.2527 -0.0286
44598W        W87536  32.248  29.977  22.213  0.3573  0.0223  0.3707
44599W        W87537  30.890  29.709  25.753 -0.1239 -0.1384 -0.3005
44600W        W87538  33.442  29.189  26.949 -0.0637 -0.0370  0.3491
44601W        W87539  33.097  30.698  23.182 -0.0824  0.0046 -0.0772
44602W        W87540  31.319  31.415  26.354  0.0815 -0.1475 -0.0288
44603W        W87541  30.216  30.136  27.002  0.2334 -0.1871  0.0611
44604W        W87542  32.496  31.768  24.208  0.2692 -0.0986  0.2203
44605W        W87543  30.386  29.170  26.878  0.4171  0.2287  0.2324
44606W        W87544  30.733  32.809  27.245  0.2771 -0.0175  0.0449
44607W        W87545  29.225  32.004  26.164 -0.0074  0.3232 -0.0031
44608W        W87546  31.920  30.029  23.885 -0.3591 -0.2093  0.0020
44609W        W87547  30.874  29.428  22.467  0.0751  0.0814 -0.2118
44610W        W87548  29.929  28.158  26.093  0.1259 -0.0038  0.1512
44611W        W87549  32.457  32.272  24.988  0.0875  0.3943  0.1032
44612W        W87550  30.621  30.415  24.616 -0.0751  0.0931 -0.0894
44613W        W87551  31.960  30.517  24.444 -0.0537  0.1023  0.0097
44614W        W87552  28.939  31.731  26.902  0.0092  0.1503 -0.0445
44615W        W87553  30.664  30.646  24.077 -0.3294  0.1137 -0.2769
44616W        W87554  32.128  31.992  23.472  0.0952  0.0306  0.0743
44617W        W87555  30.370  32.340  25.121 -0.6628  0.0065  0.0589
44618W        W87556  29.884  29.639  27.747  0.0486  0.1211  0.2219
44619W        W87557  31.420  33.139  24.024  0.1860  0.3336 -0.1115
44620W        W87558  31.640  30.462  26.415 -0.1074 -0.0229 -0.1054
44621W        W87559  32.774  30.407  25.688  0.3573  0.0154  0.3102
44622W        W87560  32.559  30.845  26.955 -0.1466  0.1826 -0.2761
44623W        W87561  30.623  29.542  26.599  0.0338 -0.0973 -0.3007
44624W        W87562  28.298  30.807  27.789  0.1252  0.1699 -0.1405
44625W        W87563  31.013  32.182  25.572 -0.0731 -0.2563 -0.1983
44626W        W87564  32.390  30.023  25.505  0.3392 -0.2813  0.1037
44627W        W87565  33.923  31.505  26.134 -0.1124  0.0218  0.1034
44628W        W87566  32.163  31.464  24.414  0.1348  0.1645  0.0226
44629W        W87567  30.302  29.822  23.818  0.1026  0.3893 -0.3849
44630W        W87568  29.040  30.720  26.936  0.1606  0.0603 -0.1795
44631W        W87569  31.072  30.861  26.993 -0.1778 -0.2566 -0.0851
44632W        W87570  30.223  30.168  21.964 -0.0526 -0.2554  0.0635
44633W        W87571  32.882  29.876  27.020  0.0808 -0.1829 -0.0460
44634W        W87572  31.562  32.738  23.135  0.0638 -0.2137  0.0284
44635W        W87573  33.186  32.511  25.814 -0.0630  0.1089  0.0883
44636W        W87574  30.460  29.398  23.470  0.0782  0.1034  0.1587
44637W        W87575  27.699  30.773  24.331 -0.1713  0.2444 -0.1865
44638W        W87576  29.947  32.916  28.554 -0.0367 -0.0547 -0.2934
44639W        W87577  29.912  29.133  23.681 -0.2052  0.3365  0.0131
44640W        W87578  30.596  32.131  22.232 -0.1977 -0.0813  0.2501
44641W        W87579  30.772  31.446  25.984 -0.0276 -0.0339  0.0998
44642W        W87580  31.583  31.721  26.767  0.0781 -0.0722 -0.2457
44643W        W87581  31.096  30.632  23.240 -0.0578  0.0879 -0.0539
44644W        W87582  32.621  31.219  26.132  0.1578 -0.0120 -0.4803
44645W        W87583  30.666  32.787  25.019 -0.0863  0.1248  0.2256
44646W        W87584  30.508  28.171  26.093 -0.1954  0.1075 -0.2084
44647W        W87585  30.809  32.769  25.975  0.0719  0.1090 -0.0291
44648W        W87586  29.740  31.649  27.527  0.1023  0.2092  0.0790
44649W        W87587  29.211  31.353  25.533  0.0529  0.0980 -0.3029
44650W        W87588  30.626  30.047  26.663 -0.0200  0.1390 -0.0503
44651W        W87589  30.552  30.370  25.285  0.1521 -0.2705  0.1244
44652W        W87590  31.556  31.313  25.688  0.1125 -0.2091 -0.3718
44653W        W87591  32.086  32.426  26.423 -0.0106  0.1995 -0.5193
44654W        W87592  31.143  31.249  25.258 -0.0123 -0.0640 -0.1915
44655W        W87593  30.017  30.343  26.164 -0.2924 -0.0766  0.0142
44656W        W87594  31.435  32.045  25.123  0.1653  0.0897  0.0967
44657W        W87595  32.338  33.063  25.612 -0.0125 -0.2571 -0.0414
44658W        W87596  31.037  31.822  26.108  0.1300  0.0531 -0.1304
44659W        W87597  29.316  28.952  27.445 -0.1251 -0.2019  0.1846
44660W        W87598  32.457  30.832  25.830  0.0910  0.3273 -0.0713
44661W        W87599  31.684  30.605  25.292  0.0415 -0.0954 -0.0944
44662W        W87600  30.359  28.533  24.268 -0.1790 -0.2633  0.2573
44663W        W87601  30.193  31.428  23.809 -0.1801  0.0916 -0.2191
44664W        W87602  28.519  32.927  28.222 -0.1610  0.1193  0.0838
44665W        W87603  29.454  33.604  26.325 -0.3276  0.0842 -0.1408
44666W        W87604  29.392  31.921  24.860  0.0076 -0.3311 -0.1597
44667W        W87605  31.841  31.059  24.559 -0.0495  0.1999  0.0623
44668W        W87606  31.065  30.106  23.272 -0.4898 -0.1217  0.0395
44669W        W87607  32.147  31.160  26.058 -0.1000 -0.2494  0.2196
44670W        W87608  30.020  30.232  25.513 -0.1924 -0.2147  0.0500
44671W        W87609  30.147  33.326  25.516 -0.0491 -0.0112  0.3493
44672W        W87610  28.593  32.757  22.859 -0.1583  0.0979  0.1223
44673W        W87611  31.562  32.944  23.583  0.1663 -0.0699  0.1657
44674W        W87612  30.929  33.682  26.243 -0.2950  0.0664  0.2922
44675W        W87613  29.629  31.632  26.444 -0.1819 -0.1061 -0.0021
44676W        W87614  31.701  29.836  23.357  0.0593 -0.0595 -0.4818
44677W        W87615  34.303  31.517  25.323  0.0632  0.3682 -0.2139
44678W        W87616  33.118  31.155  25.002 -0.1812  0.0226  0.3152
44679W        W87617  31.486  31.738  26.013 -0.2497  0.0343  0.0693
44680W        W87618  29.504  29.759  26.731 -0.1354 -0.1427  0.1229
44681W        W87619  30.714  30.565  23.541  0.2075 -0.2368 -0.2045
44682W        W87620  28.754  31.416  27.514  0.0612  0.1516  0.1109
44683W        W87621  34.187  29.421  27.511  0.1610 -0.0252  0.0152
44684W        W87622  29.761  33.054  27.333 -0.0201 -0.2567 -0.2052
44685W        W87623  31.972  32.487  23.666 -0.0977 -0.0056 -0.1598
44686W        W87624  29.912  31.134  22.810 -0.0344 -0.0310 -0.2498
44687W        W87625  30.268  29.956  26.266  0.1178  0.0678 -0.0902
44688W        W87626  33.798  29.340  26.534  0.0163  0.1819 -0.3265
44689W        W87627  30.321  31.207  21.856 -0.2147 -0.0264 -0.2075
44690W        W87628  31.462  29.444  26.249  0.0579 -0.1030  0.2125
44691W        W87629  30.781  32.244  25.994  0.1585 -0.3508 -0.1501
44692W        W87630  30.855  30.731  26.442  0.1575 -0.1840  0.1899
44693W        W87631  29.921  31.314  24.292  0.6171 -0.0475 -0.0590
44694W        W87632  30.313  29.624  24.546  0.0710  0.2708  0.0362
44695W        W87633  32.369  30.993  26.466 -0.1671  0.2396 -0.0500
44696W        W87634  27.747  30.507  27.773 -0.1962 -0.0884 -0.1143
44697W        W87635  32.430  29.632  26.293 -0.0588  0.1433 -0.0165
44698W        W87636  30.505  30.102  24.226 -0.1759 -0.2355 -0.1851
44699W        W87637  31.153  31.942  23.946  0.0668 -0.0778 -0.2350
44700W        W87638  29.662  30.833  25.380 -0.1448 -0.1738 -0.2555
44701W        W87639  28.477  29.962  27.018 -0.1714  0.3188  0.1345
44702W        W87640  30.167  30.593  23.314 -0.1829  0.0326  0.0634
44703W        W87641  32.510  32.826  27.075  0.1499  0.0865  0.2031
44704W        W87642  31.117  31.460  23.685 -0.0531 -0.0973 -0.1725
44705W        W87643  31.807  33.233  27.868 -0.3828 -0.1708 -0.1001
44706W        W87644  30.551  29.430  24.921  0.1793  0.1773 -0.0988
44707W        W87645  31.836  30.060  24.443 -0.2151  0.1330 -0.1979
44708W        W87646  29.493  32.419  24.866 -0.0497  0.1964  0.0856
44709W        W87647  31.676  31.095  25.151  0.0736  0.1874 -0.0684
44710W        W87648  33.149  32.633  26.823  0.0961  0.3502 -0.0613
44711W        W87649  29.109  29.221  24.970  0.0061  0.0672 -0.0203
44712W        W87650  30.826  31.744  22.459 -0.0745 -0.1690  0.4197
44713W        W87651  32.253  30.351  25.900 -0.2820  0.1940  0.2853
44714W        W87652  29.419  32.660  24.231  0.0752  0.0074  0.0963
44715W        W87653  32.631  31.423  25.176 -0.1087  0.1288 -0.0392
44716W        W87654  31.746  32.389  25.981 -0.3724 -0.1988  0.3210
44717W        W87655  29.854  29.904  27.284 -0.0994  0.0078  0.2042
44718W        W87656  32.551  32.656  26.605  0.2910  0.0406 -0.1037
44719W        W87657  32.924  32.169  25.192 -0.3210 -0.1065 -0.0840
44720W        W87658  31.209  30.753  25.190 -0.0946 -0.0062 -0.0907
44721W        W87659  30.021  30.810  25.826 -0.2287 -0.0885  0.3367
44722W        W87660  31.528  32.595  24.897  0.1240 -0.1186  0.0810
44723W        W87661  33.291  31.445  25.747  0.1037  0.3076 -0.1854
44724W        W87662  31.288  30.692  25.760  0.1286  0.0188  0.2275
44725W        W87663  30.174  32.567  23.942 -0.0407 -0.1938 -0.0775
44726W        W87664  32.687  28.455  27.699  0.2951 -0.0390  0.1120
44727W        W87665  31.945  31.418  24.878  0.0928  0.0397  0.0195
44728W        W87666  29.356  32.256  28.161  0.1519  0.0940  0.1373
44729W        W87667  28.371  30.990  24.565 -0.2434 -0.2484 -0.0441
44730W        W87668  30.198  29.224  26.353 -0.2989  0.0600 -0.1543
44731W        W87669  30.204  32.079  23.632  0.2533  0.1355 -0.3047
44732W        W87670  31.401  33.708  25.611 -0.1978  0.1249  0.0716
44733W        W87671  31.885  33.272  24.858  0.1070  0.0008  0.0030
44734W        W87672  31.060  30.664  24.616 -0.1325 -0.2562  0.1457
44735W        W87673  33.312  32.264  24.938 -0.1598 -0.0530 -0.0500
44736W        W87674  31.255  29.423  24.943 -0.1479 -0.1900  0.0058
44737W        W87675  33.539  28.475  25.169  0.0055  0.0657  0.2832
44738W        W87676  31.595  29.684  24.103  0.0970  0.0319 -0.0499
44739W        W87677  29.983  31.167  26.891  0.5513  0.0096  0.0185
44740W        W87678  28.752  31.977  25.207  0.5242  0.1546  0.1618
44741W        W87679  29.376  31.759  25.742 -0.4142  0.0128  0.0578
44742W        W87680  29.298  30.953  26.582  0.2275 -0.0798 -0.1791
44743W        W87681  31.359  28.640  27.424  0.1023  0.1342 -0.0205
44744W        W87682  30.286  30.456  26.682 -0.1122  0.1868 -0.2937
44745W        W87683  29.297  32.091  25.324 -0.3002 -0.1560 -0.2462
44746W        W87684  29.602  28.598  25.259 -0.3023 -0.1303  0.1419
44747W        W87685  33.214  31.240  24.466 -0.0905  0.1658  0.0230
44748W        W87686  30.398  30.528  25.766  0.2393  0.0473 -0.1815
44749W        W87687  28.663  30.467  25.490  0.0987  0.1638  0.2368
44750W        W87688  32.066  30.769  24.896  0.1932 -0.0059  0.0230
44751W        W87689  32.355  31.757  24.788 -0.1449  0.0345  0.2370
44752W        W87690  30.938  30.045  24.601 -0.0588  0.2363 -0.1963
44753W        W87691  32.653  32.925  26.139  0.1497  0.0179  0.3750
44754W        W87692  28.526  30.323  23.799 -0.3253 -0.0319 -0.0267
44755W        W87693  30.749  29.588  28.686  0.2192 -0.2003  0.2482
44756W        W87694  31.014  30.083  27.279 -0.1398  0.0428 -0.1660
44757W        W87695  29.515  30.450  23.423 -0.0043 -0.1003  0.5710
44758W        W87696  30.640  31.430  25.332  0.0132  0.1014  0.1089
44759W        W87697  31.089  32.806  24.726  0.2223 -0.1046 -0.1521
44760W        W87698  31.491  33.022  24.510  0.3364 -0.0604 -0.1035
44761W        W87699  31.775  31.667  25.365 -0.2238 -0.0313 -0.0470
44762W        W87700  30.225  31.637  27.236 -0.1601  0.0630 -0.0762
44763W        W87701  30.082  29.432  27.271  0.0612 -0.1317 -0.1310
44764W        W87702  32.611  31.251  24.316  0.1699 -0.2243 -0.1877
44765W        W87703  29.742  31.570  27.021 -0.1957  0.1089  0.3515
44766W        W87704  33.043  31.458  23.996  0.2559  0.0593  0.0754
44767W        W87705  33.316  29.906  26.370 -0.1886  0.1648  0.0535
44768W        W87706  32.369  31.414  23.339 -0.0809 -0.1089 -0.1906
44769W        W87707  30.575  28.382  27.269  0.1387 -0.1333  0.1260
44770W        W87708  29.345  31.076  25.095  0.4832  0.1346  0.0888
44771W        W87709  33.610  32.092  27.609  0.0043  0.0430  0.2170
44772W        W87710  30.850  29.676  23.567 -0.0400 -0.1925  0.2544
44773W        W87711  32.670  30.365  25.202 -0.1197 -0.0905  0.2343
44774W        W87712  31.552  31.955  23.512 -0.1798 -0.0414 -0.3515
44775W        W87713  29.823  30.320  25.066 -0.2970 -0.2379 -0.2700
44776W        W87714  29.883  30.138  23.329 -0.0572 -0.3158 -0.2497
44777W        W87715  32.162  30.567  26.773  0.0380  0.2228  0.3832
44778W        W87716  32.443  32.274  24.476  0.1940  0.1400 -0.1555
44779W        W87717  31.108  31.628  25.667  0.1538  0.0517 -0.0531
44780W        W87718  29.813  29.522  23.248 -0.3199  0.0611 -0.1345
44781W        W87719  33.567  29.772  24.722 -0.1151 -0.4692  0.1697
44782W        W87720  30.980  32.738  25.502 -0.0692 -0.1316  0.2338
44783W        W87721  33.053  32.143  28.651  0.1620  0.2094  0.0490
44784W        W87722  30.254  32.029  27.643 -0.0473  0.4696 -0.2798
44785W        W87723  31.934  31.752  23.898  0.4110  0.1466 -0.1159
44786W        W87724  29.900  29.607  26.315  0.0472 -0.1387  0.1501
44787W        W87725  29.623  31.079  25.850 -0.1328  0.0706 -0.3496
44788W        W87726  30.135  30.880  23.784  0.2571 -0.2175 -0.0827
44789W        W87727  32.346  31.167  24.834 -0.1006  0.0361  0.1029
44790W        W87728  28.623  30.254  26.481  0.1182  0.0634  0.0318
44791W        W87729  31.761  29.544  25.839 -0.0424  0.0157  0.1469
44792W        W87730  30.733  32.153  26.506  0.2711 -0.3830 -0.3569
44793W        W87731  30.152  30.490  24.225  0.2475 -0.3430 -0.3130
44794W        W87732  29.411  32.208  30.643  0.2644  0.2176 -0.5618
44795W        W87733  29.801  30.194  29.034 -0.0597 -0.0878  0.2431
44796W        W87734  33.742  29.907  28.371 -0.2268 -0.0347  0.1935
44797W        W87735  33.208  31.132  27.850  0.3600 -0.6500  0.3601
44798W        W87736  29.021  28.812  27.096  0.0610  0.5057 -0.2443
44799W        W87737  33.155  31.879  27.409 -0.0790  0.1118 -0.0169
44800W        W87738  27.995  30.438   0.094 -0.0781  0.2831  0.2923
44801W        W87739  31.476  31.744  30.348 -0.1605 -0.1024 -0.1625
44802W        W87740  33.678  32.448  31.736  0.4102 -0.0351 -0.2414
44803W        W87741  31.830  29.499  28.428 -0.1917  0.0957  0.1172
44804W        W87742  29.738  31.186  29.458  0.1463  0.0679 -0.0637
44805W        W87743  30.885  31.028  29.890 -0.2723  0.0011 -0.3304
44806W        W87744  29.727  29.821  28.444 -0.0202  0.2294  0.2645
44807W        W87745  28.348  28.333  29.127  0.1645  0.4306  0.0503
44808W        W87746  31.905  30.942   0.085  0.0140  0.2622 -0.1997
44809W        W87747  30.127  30.950  28.485 -0.0803  0.0003  0.3404
44810W        W87748  30.092  29.209  30.666 -0.0199  0.0970  0.3034
44811W        W87749  32.496  31.136  28.706 -0.2018 -0.0729  0.0741
44812W        W87750  32.923  32.748  27.346 -0.0770  0.2147  0.1095
44813W        W87751  29.741  29.699  30.893  0.1879  0.1262 -0.0423
44814W        W87752  30.152  29.737  31.199  0.2864 -0.0799  0.2587
44815W        W87753  31.006  31.364  26.966  0.1219  0.0559 -0.2573
44816W        W87754  28.487  30.315  27.503  0.0559  0.2112 -0.2060
44817W        W87755  29.491  31.004  27.674  0.0383  0.1572  0.0259
44818W        W87756  29.868  30.063  30.494 -0.1412 -0.0966  0.0106
44819W        W87757  31.320  28.900  29.843 -0.1728  0.0397 -0.0215
44820W        W87758  31.685  29.698  29.767 -0.0074 -0.0429  0.1722
44821W        W87759  31.398  30.503  27.965  0.3553 -0.1478  0.0381
44822W        W87760  33.052  31.323  29.145 -0.1444 -0.3278 -0.1011
44823W        W87761  32.248  29.665  31.499 -0.0385  0.2953 -0.1757
44824W        W87762  29.422  30.590  29.022 -0.3534 -0.0132 -0.1398
44825W        W87763  28.942  33.583  28.498  0.2318 -0.0856 -0.0795
44826W        W87764  30.838  31.319  28.724  0.3196 -0.0112 -0.2163
44827W        W87765  33.861  31.745  28.872 -0.0733 -0.0081  0.1729
44828W        W87766  32.920  31.274   0.123 -0.1490 -0.0737  0.0192
44829W        W87767  30.573  32.533  30.240 -0.0782  0.0523  0.2979
44830W        W87768  28.554  32.472  28.404  0.1441 -0.1433  0.2826
44831W        W87769  30.904  32.913  30.175  0.0500  0.3953  0.1241
44832W        W87770  29.945  32.313  30.804  0.2938  0.1435  0.2581
44833W        W87771  31.212  31.052  31.057 -0.2922  0.0213  0.0860
44834W        W87772  30.862  31.344  29.509 -0.1381 -0.2813  0.0356
44835W        W87773  30.626  31.598  27.773  0.3602 -0.1128 -0.1048
44836W        W87774  31.681  32.450  29.121 -0.2018 -0.0359  0.0394
44837W        W87775  31.075  32.000  29.542 -0.0821 -0.2129 -0.0126
44838W        W87776  29.283  31.006  29.247  0.1140 -0.0964 -0.1877
44839W        W87777  33.074  29.586  31.893  0.3806  0.1990 -0.2365
44840W        W87778  30.077  31.056  27.935  0.0254 -0.2082  0.4240
44841W        W87779  34.270  30.166  27.512  0.0865 -0.3564  0.2249
44842W        W87780  30.594  31.064  29.075 -0.0562  0.0177 -0.2129
44843W        W87781  32.647  29.327  28.281 -0.1194 -0.1456 -0.2181
44844W        W87782  30.666  30.088  30.936  0.1097 -0.4206 -0.1016
44845W        W87783  31.081  32.902  29.079  0.0472 -0.3997 -0.2147
44846W        W87784  30.905  31.002  30.403  0.0894  0.0197 -0.2056
44847W        W87785  32.410  32.466  31.156  0.2365 -0.1506 -0.2528
44848W        W87786  32.063  30.859  27.148  0.0582  0.2376 -0.1939
44849W        W87787  30.765  29.832  30.543  0.1734  0.0715 -0.0930
44850W        W87788  30.069  32.561  29.885  0.0089  0.3866  0.1119
44851W        W87789  30.224  29.973  28.814 -0.0188 -0.3790 -0.0078
44852W        W87790  31.786  32.005  27.209 -0.0618  0.1693 -0.1439
44853W        W87791  33.277  32.925  30.039  0.0944  0.0006 -0.0800
44854W        W87792  31.492  32.615  28.356 -0.0993  0.2249 -0.0491
44855W        W87793  29.301  29.962  28.707 -0.1119 -0.1453 -0.0413
44856W        W87794  29.581  31.471  30.458  0.0248  0.0387  0.2019
44857W        W87795  28.445  30.975  31.142 -0.0631  0.2901 -0.2018
44858W        W87796  30.599  31.088  27.784  0.0628 -0.0820  0.2424
44859W        W87797  33.535  29.573  31.084 -0.1328  0.2988  0.1443
44860W        W87798  28.314  32.290  30.773  0.1072 -0.0623  0.0236
44861W        W87799  32.050  29.946  28.529 -0.0310 -0.0302  0.3533
44862W        W87800  30.170  32.262  29.460 -0.2011 -0.0268  0.0031
44863W        W87801  33.516  31.398  30.085 -0.2047  0.0852  0.2109
44864W        W87802  32.747  30.804  25.399  0.1547 -0.0989  0.2261
44865W        W87803  32.829  29.126  30.060 -0.1479  0.2803  0.0286
44866W        W87804  29.488  30.138  30.855  0.2214 -0.0092 -0.1491
44867W        W87805  29.334  31.341  26.866 -0.0206 -0.1573 -0.0556
44868W        W87806  30.680  30.796  28.603 -0.0099  0.0334  0.1344
44869W        W87807  33.105  31.834  31.133 -0.1294 -0.1629 -0.1223
44870W        W87808  33.204  31.364  26.673 -0.0279 -0.2084  0.1472
44871W        W87809  28.037  31.656  29.212 -0.2420 -0.2764  0.1588
44872W        W87810  30.293  30.388  30.899 -0.0720 -0.2976 -0.0260
44873W        W87811  30.781  32.328  31.127  0.0768 -0.1802 -0.2168
44874W        W87812  29.224  33.170  26.868  0.2576  0.1952 -0.1661
44875W        W87813  28.439  31.613  30.469  0.0645 -0.0440 -0.1988
44876W        W87814  30.212  30.631  28.856 -0.1763 -0.1642  0.0635
44877W        W87815  28.813  29.063  29.796  0.0327  0.1932 -0.0902
44878W        W87816  30.179  30.928  29.261  0.1188 -0.0296 -0.2884
44879W        W87817  32.419  29.369  29.285 -0.0434 -0.0332  0.1596
44880W        W87818  29.021  30.669  30.544 -0.0791  0.0963  0.2034
44881W        W87819  33.240  28.849  29.453 -0.2060  0.1735  0.3423
44882W        W87820  31.113  31.816  27.944 -0.2177 -0.3961 -0.2703
44883W        W87821  33.557  31.009  29.555  0.0828 -0.0621 -0.0240
44884W        W87822  33.083  30.849  29.025  0.0121  0.0962  0.1072
44885W        W87823  32.666  31.739  26.948  0.2925 -0.0152 -0.2979
44886W        W87824  30.026  31.157  30.497  0.2205 -0.1514 -0.0335
44887W        W87825  29.951  30.594  28.134  0.3108 -0.1853 -0.0632
44888W        W87826  29.325  29.927  30.415  0.1567  0.2851  0.1501
44889W        W87827  29.066  29.242  29.025 -0.3192 -0.1857 -0.0723
44890W        W87828  32.442  30.142  28.752 -0.2725 -0.0903 -0.0022
44891W        W87829  28.621  29.057  27.494 -0.0370 -0.1251  0.0180
44892W        W87830  32.222  30.045  29.621  0.1166  0.3529 -0.2881
44893W        W87831  31.216  30.888  27.683 -0.0101  0.1958  0.0706
44894W        W87832  29.257  31.167  28.656 -0.1615  0.3406 -0.1263
44895W        W87833  32.045  29.148  31.260 -0.0475  0.0454 -0.1113
44896W        W87834  31.530  31.872  27.699  0.1303  0.0989 -0.2793
44897W        W87835  33.173  34.018  30.245 -0.0402  0.0709 -0.2979
44898W        W87836  33.851  33.165  29.836  0.2858  0.0782 -0.1679
44899W        W87837  29.217  29.899  29.887 -0.1504 -0.3215 -0.0576
44900W        W87838  27.711  29.564  27.617  0.1504  0.1374  0.3321
44901W        W87839  30.745  32.095  28.792 -0.0376  0.2953 -0.4021
44902W        W87840  31.868  32.674  29.626  0.0657 -0.3229 -0.0487
44903W        W87841  30.422  30.153  29.261  0.0837 -0.0165 -0.0465
44904W        W87842  33.011  32.574  30.521  0.2070  0.1616  0.0791
44905W        W87843  31.180  31.598  29.976 -0.3001 -0.0801  0.1196
44906W        W87844  28.985  31.213  30.502 -0.1725  0.0197 -0.0117
44907W        W87845  31.077  28.929  31.017  0.0507 -0.0307 -0.0221
44908W        W87846  33.321  31.568  28.310 -0.0386 -0.1946 -0.2502
44909W        W87847  30.696  30.536  29.100  0.1898  0.0556  0.2424
44910W        W87848  29.448  29.694  28.077 -0.4104 -0.1832 -0.1799
44911W        W87849  32.655  31.713  30.015  0.2016  0.1223  0.0018
44912W        W87850  30.789  33.385  28.067  0.1477 -0.2782  0.2299
44913W        W87851  29.000  30.329  29.052 -0.1843  0.1272  0.0911
44914W        W87852  31.018  31.771  28.453  0.2908 -0.0849 -0.1502
44915W        W87853  33.751  29.204  29.499 -0.1294  0.0613 -0.0699
44916W        W87854  28.242  31.464   0.856 -0.0396  0.3231 -0.0607
44917W        W87855  31.704  30.505  30.933 -0.0725  0.4332  0.3368
44918W        W87856  29.593  30.276  28.276  0.0039  0.2110 -0.1784
44919W        W87857  29.205  32.225  30.183 -0.0945 -0.1559  0.0818
44920W        W87858  30.945  29.637  28.129  0.0802  0.0827  0.0033
44921W        W87859  32.829  30.535  28.745 -0.1955 -0.1965 -0.3942
44922W        W87860  31.784  32.463  31.261 -0.0280  0.0895  0.0428
44923W        W87861  33.799  31.499  28.170  0.3726  0.0023  0.1392
44924W        W87862  31.043  29.836  26.743  0.1217  0.1146  0.0815
44925W        W87863  32.853  29.959  26.533 -0.1462 -0.1206  0.0696
44926W        W87864  29.716  31.868  30.893  0.2292 -0.1097 -0.1264
44927W        W87865  31.988  31.469  28.010  0.0967  0.1589 -0.0010
44928W        W87866  32.115  32.220  28.987 -0.0405 -0.1379  0.0169
44929W        W87867  30.833  30.669  27.393  0.0405 -0.0547 -0.0405
44930W        W87868  33.509  31.995  29.251  0.1160 -0.0458 -0.0252
44931W        W87869  27.965  31.317  29.742 -0.1897 -0.2369 -0.1841
44932W        W87870  31.017  31.914  31.355 -0.1100  0.0005  0.0944
44933W        W87871  34.060  31.844  29.285  0.2308  0.1477  0.1308
44934W        W87872  30.754  31.239  30.943  0.0446 -0.1350  0.3330
44935W        W87873  30.347  30.685  27.677  0.3554  0.0792  0.3773
44936W        W87874  30.585  30.310  28.684 -0.1906 -0.2382 -0.3050
44937W        W87875  29.860  33.865  26.996 -0.1097  0.0973 -0.1343
44938W        W87876  33.578  30.844  28.794 -0.1497 -0.0427  0.1487
44939W        W87877  30.552  29.910  29.699 -0.1674  0.0032 -0.0341
44940W        W87878  32.226  30.607  31.223 -0.1032 -0.0382 -0.0936
44941W        W87879  31.118  30.572   0.903 -0.2602 -0.2459 -0.0383
44942W        W87880  32.127  31.089  28.297  0.1776  0.1600  0.0667
44943W        W87881  32.283  30.274  30.371  0.1755 -0.1818 -0.1545
44944W        W87882  29.518  30.901  27.114  0.1422 -0.1438  0.0588
44945W        W87883  29.983  28.347  31.048 -0.2305  0.2370 -0.0918
44946W        W87884  28.920  31.361  29.184 -0.0619  0.0280 -0.0341
44947W        W87885  29.689  33.229   0.293 -0.1247  0.0112  0.4762
44948W        W87886  31.713  31.339  30.011  0.0877  0.2065 -0.0750
44949W        W87887  31.286  31.145  28.548 -0.3195 -0.0024  0.3550
44950W        W87888  30.697  29.761  31.299 -0.1359 -0.1284 -0.1766
44951W        W87889  31.808  30.395  28.852  0.1134  0.2844  0.0074
44952W        W87890  31.274  32.423  28.793 -0.3135  0.0842  0.1626
44953W        W87891  29.604  31.009  28.320 -0.2027 -0.0588  0.0961
44954W        W87892  29.946  30.140  29.545  0.2414 -0.0975 -0.1352
44955W        W87893  31.175  31.436  29.127  0.2416  0.2470  0.1597
44956W        W87894  29.915  32.047  27.284  0.2789  0.1092 -0.2533
44957W        W87895  31.657  30.630  31.812 -0.0319  0.2856 -0.4042
44958W        W87896  30.763  31.689  27.306 -0.1827 -0.1281 -0.1821
44959W        W87897  31.822  29.003  29.110 -0.1167 -0.2427  0.3258
44960W        W87898  30.794  32.097  27.013 -0.1632  0.0557 -0.0226
44961W        W87899  30.316  29.839  27.526 -0.0191  0.0468 -0.2502
44962W        W87900  27.982  29.499  28.449  0.0396  0.0324  0.4336
44963W        W87901  31.545  29.841  29.253 -0.0844 -0.0303 -0.4785
44964W        W87902  32.417  31.261  27.308  0.2837  0.2928  0.0871
44965W        W87903  30.592  29.404  30.915  0.3900  0.3900 -0.0523
44966W        W87904  30.837  30.623  30.993 -0.1158  0.1087 -0.1077
44967W        W87905  29.594  32.653  31.404 -0.0466  0.0180  0.1391
44968W        W87906  31.955  31.747  30.401 -0.2509 -0.0866  0.1330
44969W        W87907  31.653  29.580  27.867  0.2040 -0.0755 -0.0589
44970W        W87908  32.004  32.402  30.770  0.0788 -0.2513  0.2049
44971W        W87909  30.545  31.345  30.478 -0.0928  0.0169 -0.0401
44972W        W87910  29.104  30.108  28.259  0.0358  0.1426 -0.0105
44973W        W87911  33.648  32.059  30.694  0.0194  0.3607  0.3785
44974W        W87912  30.472  30.250  30.450  0.3532 -0.2108 -0.2129
44975W        W87913  30.302  32.321  28.647  0.1759  0.1192  0.2033
44976W        W87914  32.362  31.582  28.547 -0.0747 -0.2595  0.3885
44977W        W87915  30.765  30.518  27.843 -0.1839  0.0628  0.1038
44978W        W87916  29.709  32.149  28.984 -0.0687  0.2223 -0.0953
44979W        W87917  29.827  30.485  30.738  0.2951  0.1460 -0.1512
44980W        W87918  32.932  31.357  30.299 -0.2221  0.0808  0.0737
44981W        W87919  30.179  30.415  29.971 -0.0131  0.1678 -0.2156
44982W        W87920  31.159  30.607  29.930 -0.2088  0.1822  0.2710
44983W        W87921  31.695  30.704  29.758 -0.4254  0.0752 -0.0287
44984W        W87922  31.897  31.203  30.529 -0.0247 -0.2428  0.1716
44985W        W87923  31.833  29.442  30.208 -0.0693 -0.1240 -0.0028
44986W        W87924  30.097  31.730  30.520 -0.3940  0.1874 -0.3765
44987W        W87925  31.303  29.372  30.026  0.0431  0.1510 -0.2491
44988W        W87926  32.925  32.807  29.277  0.0481  0.2952  0.0479
44989W        W87927  31.949  29.772  30.565 -0.0097 -0.1900 -0.0272
44990W        W87928  31.882  31.413  28.571  0.1440  0.2867  0.2199
44991W        W87929  28.922  31.565  28.725  0.0521 -0.1874 -0.1214
44992W        W87930  29.772  30.610  29.391  0.0948 -0.2421 -0.0094
44993W        W87931  31.371  29.722  30.479  0.2257 -0.0725  0.0025
44994W        W87932  30.944  32.315  30.632  0.0900 -0.1782 -0.0939
44995W        W87933  31.034  30.211  28.175  0.1612  0.3022 -0.1462
44996W        W87934  30.139  32.261  30.287 -0.1051 -0.5794  0.1839
44997W        W87935  32.419  28.109  28.069 -0.2020 -0.0943 -0.5782
44998W        W87936  32.004  32.752  27.778 -0.0869  0.2230 -0.0716
44999W        W87937  30.973  30.797  29.451 -0.2200 -0.1922 -0.2646
45000W        W87938  32.951  29.376  31.389  0.0255 -0.1400  0.1698
45001W        W87939  34.153  32.285  27.639 -0.3899  0.3271 -0.0650
45002W        W87940   0.061  29.398  31.338  0.0014  0.0840 -0.0174
45003W        W87941  29.411  30.474  27.736 -0.3244 -0.1536 -0.3361
45004W        W87942  31.813  30.337  29.413  0.3553 -0.0973 -0.1543
45005W        W87943  28.729  30.079  29.872 -0.3279  0.0934 -0.1802
45006W        W87944  32.335  32.956  29.842 -0.0217  0.1709 -0.0019
45007W        W87945  28.885  30.919  30.946  0.1743 -0.0846 -0.0913
45008W        W87946  31.602  31.023  28.160  0.2228 -0.0974 -0.0332
45009W        W87947  29.812  28.948  27.247 -0.0626  0.1368 -0.1495
45010W        W87948  30.353  31.284  29.609  0.2209  0.0554 -0.1810
45011W        W87949  32.876  30.345  29.191  0.2195 -0.0639 -0.0049
45012W        W87950  30.461  32.519  26.916  0.0537  0.2536  0.0472
45013W        W87951  31.245  30.231  30.562 -0.0848  0.1218 -0.1746
45014W        W87952  29.471  31.027  30.634 -0.1584 -0.1425 -0.0480
45015W        W87953  32.495  31.731  27.751 -0.2314 -0.1327 -0.2185
45016W        W87954  31.488  31.262  26.915  0.2163 -0.0525  0.1283
45017W        W87955  30.427  31.767  29.550  0.1731 -0.0553  0.1219
45018W        W87956  30.482  30.883  30.677 -0.4330 -0.2238 -0.2393
45019W        W87957  30.877  30.315  29.672 -0.2425  0.0031 -0.1832
45020W        W87958  31.317  31.161  30.190 -0.1290 -0.0148 -0.3007
45021W        W87959  32.481  29.254   0.439  0.1856  0.0411 -0.0713
45022W        W87960  32.015  29.958  30.106  0.0224  0.0633  0.0505
45023W        W87961  30.718  28.682  30.838  0.0207  0.0352  0.3480
45024W        W87962  29.197  30.616   0.059  0.2392 -0.1331  0.0301
45025W        W87963  33.062  32.312  31.628 -0.1590 -0.1848  0.3172
45026W        W87964  33.039  29.848  28.095 -0.0178  0.0412  0.0218
45027W        W87965  32.273  30.115  31.385 -0.4493  0.2830  0.0789
45028W        W87966  33.662  30.897  30.096  0.1005  0.0734 -0.2560
45029W        W87967  32.304  29.912  27.792  0.0484 -0.0165 -0.2051
45030W        W87968  29.196  29.753  29.169  0.2398  0.0425  0.0660
45031W        W87969  32.904  29.717  30.985 -0.0229 -0.0141 -0.1219
45032W        W87970  30.811  29.632  30.112 -0.1603 -0.2061  0.0258
45033W        W87971  31.116  29.275  30.702  0.1323 -0.0684 -0.4757
45034W        W87972  33.741  32.544  27.815  0.0863  0.0345  0.0727
45035W        W87973  31.066  30.883  28.945 -0.3906  0.1958  0.0441
45036W        W87974  31.981  31.091  27.626  0.0536  0.1086  0.0012
45037W        W87975  29.459  30.511  30.385  0.0677  0.0941  0.1526
45038W        W87976  28.379  32.073  31.474  0.2189 -0.3023  0.2293
45039W        W87977  29.615  29.249  27.680 -0.1809 -0.1373 -0.3836
45040W        W87978  30.870  31.270  26.487 -0.3697 -0.0221 -0.0302
45041W        W87979  31.842  31.195  29.496 -0.0049  0.1023 -0.1690
45042W        W87980  32.508  29.866  30.693  0.0965 -0.0493 -0.0294
45043W        W87981  30.858  29.985  27.794 -0.1669 -0.2909  0.1381
45044W        W87982  31.759  30.292  30.465 -0.1826 -0.0232 -0.0889
45045W        W87983  30.080  31.454  28.341 -0.0089 -0.0182 -0.0204
45046W        W87984  31.586  30.729  30.218  0.3962  0.2268 -0.0557
45047W        W87985  29.775  31.362  29.930  0.0917 -0.0033 -0.0388
45048W        W87986  28.331  29.769  29.290 -0.0932 -0.0367 -0.0360
45049W        W87987  30.136  32.584  27.308  0.2646 -0.1351  0.1103
45050W        W87988  30.568  29.832  31.837 -0.0257  0.2211 -0.1896
45051W        W87989  31.193  30.426  29.166 -0.0863 -0.1870  0.0690
45052W        W87990  30.987  31.547  30.559  0.2052 -0.0700  0.2605
45053W        W87991  32.931  30.996  29.520 -0.0527 -0.4825  0.0569
45054W        W87992  30.686  31.612  29.905  0.4596 -0.1314  0.1255
45055W        W87993  30.037  30.915  29.777 -0.1041  0.1329 -0.7005
45056W        W87994  30.432  32.451  30.745 -0.0973  0.1467  0.0756
45057W        W87995  32.870  31.494  27.323  0.2582 -0.1779 -0.2976
45058W        W87996  31.507  32.325  29.534 -0.1015  0.0084  0.2266
45059W        W87997  28.652  29.546  30.659  0.2483 -0.1946  0.2225
45060W        W87998  29.391  30.856  29.687 -0.2993 -0.1698 -0.0642
45061W        W87999  32.123  30.783  29.456 -0.0753 -0.1004 -0.2055
45062W        W88000  30.952  30.026  28.615  0.5187  0.3351 -0.2880
45063W        W88001  32.073  33.028  27.339  0.1769 -0.2109 -0.1737
45064W        W88002  27.771  32.086   0.185  0.2797 -0.1888  0.4176
45065W        W88003  29.725  31.958  30.331  0.1452  0.0081  0.1098
45066W        W88004  32.321  32.199  27.918  0.2142  0.1753  0.5747
45067W        W88005  31.321  31.739  27.245  0.0484  0.0620 -0.3049
45068W        W88006  31.074  31.805  26.655  0.2349  0.1858  0.0358
45069W        W88007  32.879  31.533  28.599  0.1943 -0.0761 -0.0164
45070W        W88008  31.032  29.567  27.181 -0.1858  0.0398  0.1143
45071W        W88009  29.972  32.685  28.122 -0.1238 -0.0119  0.0878
45072W        W88010  28.391  31.997  28.663  0.0351 -0.4047  0.4245
45073W        W88011  33.319  32.958  27.859  0.0537  0.0262 -0.0230
45074W        W88012  29.862  33.571  28.130  0.0145  0.2858 -0.0194
45075W        W88013  32.670  30.180  31.075 -0.3763  0.1104 -0.0000
45076W        W88014  32.187  30.672  28.740 -0.2858  0.3625 -0.1734
45077W        W88015  32.641  30.638  30.062 -0.0316  0.1512 -0.1592
45078W        W88016  32.323  30.247  28.252  0.0346  0.2240  0.3676
45079W        W88017  32.428  33.192  31.744  0.2575 -0.0042 -0.1535
45080W        W88018  29.876  31.309  30.944 -0.3871  0.0279  0.1834
45081W        W88019  32.097  30.477  29.856 -0.1213  0.1877  0.0239
45082W        W88020  30.066  31.985  29.867  0.0803  0.2108 -0.3117
45083W        W88021  32.370  28.986  30.952  0.1373 -0.1794 -0.1848
45084W        W88022  30.574  31.894  30.358 -0.1500  0.1107 -0.2132
45085W        W88023  33.438  32.397  28.862  0.0452 -0.0910  0.2704
45086W        W88024  29.667  30.449  29.854 -0.0541  0.1003  0.0236
45087W        W88025  31.615  31.259  28.981  0.0699 -0.0154  0.1441
45088W        W88026  32.696  29.533  29.722  0.0803  0.5860 -0.1758
45089W        W88027  30.775  30.430  26.914  0.0340  0.3910 -0.3295
45090W        W88028  32.528  31.412  29.095  0.2686  0.1517  0.1787
45091W        W88029  31.855  31.899  28.201 -0.2801  0.0547  0.3085
45092W        W88030  30.821  32.588  28.790 -0.1055 -0.0850 -0.1975
45093W        W88031  31.839  32.501  30.065 -0.2513 -0.2488  0.0205
45094W        W88032  29.451  29.325  29.315  0.0751  0.1565  0.2195
45095W        W88033  32.002  31.952  27.625  0.2033  0.2477  0.1929
45096W        W88034  28.936  30.667  29.442  0.0244  0.2346  0.4030
45097W        W88035  32.476  29.220  31.532  0.4138  0.1951 -0.2021
45098W        W88036  30.943  30.835  28.203 -0.0375  0.0614 -0.1359
45099W        W88037  32.547  30.676  28.309 -0.0398  0.0050  0.3532
45100W        W88038  32.294  32.001  30.188 -0.0627 -0.1653  0.1467
45101W        W88039  29.714  29.007  30.326 -0.0119  0.0857 -0.1312
45102W        W88040  31.650  30.569  26.917 -0.1053 -0.0594  0.2407
45103W        W88041  32.312  31.032  30.910  0.1685  0.1206 -0.1969
45104W        W88042  31.528  30.926  27.294 -0.1775  0.0632 -0.0382
45105W        W88043  32.050  32.205  29.609  0.0976  0.0724 -0.0881
45106W        W88044  29.576  28.690  29.951  0.1314 -0.5105  0.2294
45107W        W88045  32.859  32.146  27.882  0.0067  0.3036 -0.1178
45108W        W88046  29.184  30.589  28.450 -0.0176  0.3060  0.2619
45109W        W88047  30.524  30.737  29.624 -0.0069  0.2641  0.0131
45110W        W88048  32.200  31.374  31.827 -0.2445 -0.0125 -0.3521
45111W        W88049  29.040  30.475  29.933  0.1803  0.2512  0.0993
45112W        W88050  32.889  31.635  25.958 -0.1650 -0.1464 -0.0202
45113W        W88051  32.342  31.214  29.516  0.0222  0.1663  0.2449
45114W        W88052  31.428  32.046  28.422  0.1354  0.1134 -0.0045
45115W        W88053  33.249  31.182  28.669 -0.0132 -0.1653 -0.0507
45116W        W88054  32.956  32.524  29.765  0.0546 -0.0386 -0.1095
45117W        W88055  29.720  30.868  30.125  0.0379  0.0924  0.3005
45118W        W88056  33.119  32.124  30.739  0.0189 -0.3147  0.3810
45119W        W88057  33.082  31.433  29.825  0.1435  0.0598 -0.1156
45120W        W88058  31.114  29.580  29.039 -0.0305 -0.1472 -0.2577
45121W        W88059  30.540  29.628  29.159 -0.2025  0.0579 -0.0986
45122W        W88060  30.937  32.579  27.761 -0.1052 -0.2875 -0.0014
45123W        W88061  32.202  31.507  29.998 -0.2951 -0.2611  0.0751
45124W        W88062  32.004  29.072   0.261 -0.1191  0.2307  0.0827
45125W        W88063  31.259  32.693  27.363 -0.1499  0.0786  0.1115
45126W        W88064  33.426  29.129  31.601 -0.0431 -0.0742  0.1668
45127W        W88065  31.687  31.959  29.196  0.1817 -0.0685  0.1459
45128W        W88066  29.932  32.425   0.388 -0.4544  0.1170  0.1549
45129W        W88067  30.468  30.526  28.210 -0.0756  0.0349  0.0564
45130W        W88068  30.715  31.869  30.864  0.0718  0.2216  0.0973
45131W        W88069  31.335  32.279  27.949  0.0488  0.0126 -0.1978
45132W        W88070  32.518  31.915  28.954  0.1379 -0.1309  0.1241
45133W        W88071  32.807  32.172  30.194 -0.1627  0.0280 -0.2585
45134W        W88072  32.306  32.117  28.505  0.0986  0.2120 -0.1794
45135W        W88073  32.976  31.867  29.229 -0.2127  0.0352 -0.1353
45136W        W88074  30.050  29.712  29.249 -0.1566 -0.2497  0.2033
45137W        W88075  33.558  29.291  29.035  0.1044  0.1356  0.0530
45138W        W88076  32.143  29.344  28.868 -0.1796  0.2154  0.0959
45139W        W88077  30.789  31.460  31.441 -0.0681 -0.3924  0.5018
45140W        W88078  28.711  30.265  28.635  0.0890  0.1216 -0.0021
45141W        W88079  31.191  30.386  26.225 -0.2087  0.0140 -0.2279
45142W        W88080  29.433  30.131  29.352 -0.1531  0.1510  0.1640
45143W        W88081  29.990  31.020  31.518  0.0504  0.0538 -0.1780
45144W        W88082  29.549  30.409  31.726 -0.3870 -0.2214 -0.1293
45145W        W88083  28.757  29.970  29.341 -0.1379 -0.1797  0.1062
45146W        W88084  29.902  30.616  27.547  0.0558  0.0362  0.3103
45147W        W88085  33.385  31.323  27.335  0.2817  0.1523  0.0516
45148W        W88086  28.160  28.801  29.120 -0.0372 -0.2509  0.1657
45149W        W88087  28.960  29.458  29.479  0.3334 -0.1679  0.1173
45150W        W88088  31.071  30.480  28.670  0.0086 -0.2959 -0.3734
45151W        W88089  33.355  31.649  28.907 -0.2188  0.1601 -0.0849
45152W        W88090  31.349  30.147  29.591 -0.2976 -0.2527 -0.3381
45153W        W88091  32.622  32.293  30.733  0.2538  0.0259 -0.0624
45154W        W88092  29.948  31.134  27.492  0.1794  0.1620  0.2008
45155W        W88093  31.738  29.534  31.504 -0.2747 -0.0666 -0.0411
45156W        W88094  30.200  28.822  30.980 -0.2320  0.1757  0.0064
45157W        W88095  28.092  28.677  27.452  0.0078  0.0939  0.0429
45158W        W88096  32.123  31.001  30.089 -0.1256 -0.0574  0.1860
45159W        W88097  31.498  31.536  28.257  0.1795  0.1443 -0.1624
45160W        W88098  31.831  31.899  28.677 -0.3372  0.1511 -0.1269
45161W        W88099  31.952  31.559  29.080 -0.2440  0.0180 -0.0065
45162W        W88100  29.626  33.461  31.743  0.1020 -0.2677 -0.0183
45163W        W88101  29.884  29.552  30.339 -0.0009 -0.4170 -0.0260
45164W        W88102  32.858  31.038  28.379 -0.1330  0.1879  0.0181
45165W        W88103  30.569  32.108  29.931  0.1442 -0.2541 -0.1871
45166W        W88104  31.019  32.619  26.379  0.1210  0.0748  0.2407
45167W        W88105  31.933  29.498  29.336  0.1505  0.2289  0.1635
45168W        W88106  31.472  31.319  27.636 -0.0538  0.1162 -0.0241
45169W        W88107  29.046  29.770  30.851 -0.0114 -0.3054 -0.4023
45170W        W88108  28.737  30.462  31.209 -0.2145  0.0624  0.0549
45171W        W88109  33.392  32.548  30.881 -0.1631 -0.0615  0.0950
45172W        W88110  30.611  29.404  29.669 -0.1139 -0.1663  0.1766
45173W        W88111  31.184  29.491  27.704  0.1103 -0.1529  0.1154
45174W        W88112  30.451  31.714  28.546 -0.0275 -0.0635 -0.0154
45175W        W88113  29.305  31.489  29.537 -0.2524  0.0023 -0.1062
45176W        W88114  31.785  30.926  28.654  0.4968 -0.1844  0.2476
45177W        W88115  30.935  30.180  30.165  0.2060  0.1062  0.3055
45178W        W88116  31.109  32.128  27.517  0.2851  0.2445  0.0414
45179W        W88117  32.644  31.169  29.912  0.0467  0.0180 -0.0954
45180W        W88118  31.407  29.877  28.263  0.1246 -0.1067  0.1354
45181W        W88119  33.692  30.977  27.713  0.0837 -0.1451 -0.0862
45182W        W88120  32.967  33.114  29.670  0.0754 -0.0025 -0.2421
45183W        W88121  32.742  32.776  31.440 -0.0669  0.1985  0.3855
45184W        W88122  31.048  31.996  30.252  0.1512  0.0365  0.1985
45185W        W88123  32.632  31.860  28.227 -0.1355  0.0662 -0.1911
45186W        W88124  28.005  29.349  30.237  0.1272 -0.0440  0.2921
45187W        W88125  31.326  31.159  29.605 -0.1475 -0.0220 -0.1527
45188W        W88126  31.051  31.335  28.066 -0.1952  0.2948  0.1331
45189W        W88127  32.655  31.448  30.950  0.0074 -0.0663 -0.0147
45190W        W88128  28.836  29.067  30.476  0.2710 -0.1295  0.0597
45191W        W88129  31.517  30.533  28.441  0.1257  0.0410 -0.2706
45192W        W88130  28.943  31.149  29.630  0.0833 -0.1418 -0.1912
45193W        W88131  31.320  32.606  30.388  0.2497  0.0561 -0.0903
45194W        W88132  33.605  29.157   0.635 -0.0310  0.1195 -0.0720
45195W        W88133  31.740  31.044  31.065  0.2352 -0.0899  0.1471
45196W        W88134  28.934  30.006  31.372 -0.1703  0.2237  0.1811
45197W        W88135  28.695  32.897   0.790  0.0978 -0.1376  0.2401
45198W        W88136  31.500  33.202   0.008 -0.0990  0.2803 -0.3808
45199W        W88137  31.210  32.473  31.297 -0.0325  0.1722  0.0057
45200W        W88138  33.614  29.651   1.580 -0.1910 -0.2826 -0.0396
45201W        W88139  29.807  30.542  31.307 -0.0725 -0.1081  0.1761
45202W        W88140  30.639  30.275  31.454 -0.0608 -0.3127  0.0998
45203W        W88141  33.354  32.148   0.091  0.0389 -0.1112 -0.1165
45204W        W88142  31.184  31.209  31.651  0.1677 -0.0071  0.0102
45205W        W88143  28.851  30.347  31.737  0.3984 -0.2152  0.0716
45206W        W88144  32.122  32.195  31.483 -0.1137 -0.1053 -0.1817
45207W        W88145  29.009  30.265  30.835  0.0922 -0.0113 -0.0738
45208W        W88146  31.384  31.354   0.416 -0.1058  0.1825  0.0547
45209W        W88147  28.864  33.167  31.179 -0.2506  0.0051 -0.0076
45210W        W88148  30.461  31.231  31.814 -0.0343 -0.2451  0.0062
45211W        W88149  32.331  31.403  31.313  0.2991  0.0390 -0.0718
45212W        W88150  30.324  29.071   0.713  0.1917 -0.1688  0.2565
45213W        W88151  30.945  30.771  31.467 -0.3525  0.0823 -0.0188
45214W        W88152  29.365  30.162   0.228 -0.0152  0.1829  0.1400
45215W        W88153  27.986  31.879  30.698 -0.1274  0.1182 -0.2738
45216W        W88154  32.687  30.462  31.630 -0.3022 -0.0264 -0.0776
45217W        W88155  32.061  30.745  30.654  0.2547 -0.0358  0.1909
45218W        W88156  31.649  28.517   0.981 -0.0660 -0.1492 -0.1307
45219W        W88157  30.672  29.822   0.428  0.2777 -0.0716 -0.0817
45220W        W88158  29.331  30.685  30.976 -0.1483  0.0348 -0.0334
45221W        W88159  29.587   0.187  30.260 -0.1055 -0.1652  0.3885
45222W        W88160  30.036  31.478  31.943 -0.6995 -0.0552 -0.2554
45223W        W88161  30.244  31.463  30.092 -0.1063 -0.1132  0.0282
45224W        W88162  29.709  31.638  31.371 -0.0382  0.0994  0.0725
45225W        W88163  30.508  31.055  31.293  0.0414  0.1027  0.1759
45226W        W88164  32.742  29.835  31.426 -0.0349 -0.3925  0.0614
45227W        W88165  30.474  30.733  31.678  0.0076 -0.0765  0.2315
45228W        W88166  28.774  30.369   0.887 -0.1926  0.0214 -0.2023
45229W        W88167  30.202  31.507  31.406 -0.2600 -0.2229  0.1396
45230W        W88168  30.108  31.630   0.682  0.2838 -0.1980 -0.4146
45231W        W88169  31.903  30.955  31.533 -0.0173 -0.0070  0.0872
45232W        W88170  32.496  30.900  30.414  0.0161  0.1268 -0.4316
45233W        W88171  31.430  30.831  31.428 -0.3855  0.1761  0.1304
45234W        W88172  31.495  30.059   0.123  0.1664 -0.0371 -0.1002
45235W        W88173  30.592  30.795   0.195  0.5723  0.3378  0.3075
45236W        W88174  29.832  29.322  31.265 -0.2787  0.2495 -0.0904
45237W        W88175  31.267  32.009  30.836  0.0107  0.0929 -0.1526
45238W        W88176  28.994  29.979   0.588  0.1407 -0.1813 -0.0611
45239W        W88177  30.064  30.845  30.965 -0.0415 -0.0062  0.3722
45240W        W88178  30.631  29.147   0.317  0.3014 -0.3335 -0.1875
45241W        W88179  31.389  31.717  31.724  0.2237  0.2470 -0.2239
45242W        W88180  29.994  32.719  31.110  0.2253  0.2581  0.1083
45243W        W88181  29.919  31.920  31.760  0.1260 -0.1471 -0.0764
45244W        W88182  31.656  31.330  31.902  0.0144  0.1824 -0.0543
45245W        W88183  33.009  28.543   0.209  0.2229 -0.0631  0.0424
45246W        W88184  31.327  30.753  30.658 -0.0302 -0.4412  0.5527
45247W        W88185  30.797  32.790  30.658  0.0579 -0.1908  0.1598
45248W        W88186  31.149  29.826  30.959 -0.0357  0.0024  0.0775
45249W        W88187  32.424  30.968  31.552 -0.0124 -0.1413 -0.0472
45250W        W88188  33.520  31.850   0.469 -0.1485 -0.1853 -0.4197
45251W        W88189  30.551  31.906  31.337 -0.1116  0.0008 -0.1687
45252W        W88190  30.366  32.452  31.320  0.1415  0.1111  0.1191
45253W        W88191  29.763  31.090   0.562  0.2965  0.0266 -0.0634
45254W        W88192  28.950  31.217  31.338  0.1619 -0.2684 -0.2222
45255W        W88193  30.323  31.488  30.930 -0.1855 -0.0850 -0.1487
45256W        W88194  29.658  30.943  31.863  0.2892  0.0858 -0.0817
45257W        W88195  30.567  29.022  31.245  0.0306  0.1454  0.0748
45258W        W88196  32.374  32.636  30.452  0.0969 -0.0261 -0.1712
45259W        W88197  34.114  32.434   0.701 -0.2689  0.3279 -0.0111
45260W        W88198  33.521  31.193  30.983 -0.0735 -0.0786  0.3660
45261W        W88199  30.920  32.137  17.300  0.1452 -0.0500  0.0934
45262W        W88200  33.335   0.052  17.102 -0.0666  0.1032  0.1985
45263W        W88201  32.194  34.346  17.059  0.2219  0.2554 -0.0657
45264W        W88202  29.247  33.003  18.172  0.0782 -0.1335  0.1980
45265W        W88203  30.115  34.514  20.231 -0.1915 -0.0794  0.1511
45266W        W88204  31.669   0.378  16.186  0.2392  0.1902  0.0743
45267W        W88205  30.810   0.872  18.200 -0.1408  0.1732 -0.2799
45268W        W88206  30.872  33.245  17.243 -0.2476  0.0062 -0.1879
45269W        W88207  30.454  33.650  17.494  0.1781  0.0411  0.1155
45270W        W88208  30.998   0.196  19.097 -0.0228 -0.0240 -0.0617
45271W        W88209  29.822  34.254  17.072 -0.1377 -0.2789 -0.0211
45272W        W88210  29.329   0.131  19.514  0.0836  0.0754 -0.1141
45273W        W88211  29.384  34.170  16.876 -0.0721 -0.1874  0.3145
45274W        W88212  31.878  34.372  20.676 -0.1381 -0.1304  0.0637
45275W        W88213  30.133  33.334  19.733  0.2547  0.0974 -0.4534
45276W        W88214  29.306   0.716  16.387 -0.0559  0.0748 -0.0146
45277W        W88215  28.324   0.149  18.044  0.0145 -0.0755  0.0927
45278W        W88216  29.480  33.968  18.522 -0.1664  0.4139 -0.0306
45279W        W88217  30.940  34.618  18.273  0.1736 -0.4950 -0.3642
45280W        W88218  31.857   0.138  17.846  0.3344 -0.1627  0.1584
45281W        W88219  32.176  34.592  19.807 -0.0458  0.0631 -0.0657
45282W        W88220  31.293   1.039  19.053 -0.0102  0.0087 -0.2078
45283W        W88221  31.813   1.036  17.869  0.0756  0.0482  0.0495
45284W        W88222  31.862  33.054  20.151 -0.0919  0.0744 -0.1042
45285W        W88223  32.351   1.110  16.356 -0.1509  0.0111  0.2085
45286W        W88224  30.626  34.546  16.024  0.1577  0.1771 -0.0064
45287W        W88225  32.452  33.695  17.428 -0.1988  0.2546 -0.2251
45288W        W88226  30.234  32.447  17.942  0.0264 -0.1743 -0.0170
45289W        W88227  32.444  34.212  19.638  0.2172 -0.2823 -0.2239
45290W        W88228  30.811   0.140  17.822  0.4395  0.2506 -0.0579
45291W        W88229  31.981  34.158  19.407  0.2972 -0.4519  0.0797
45292W        W88230  30.059  34.170  19.109 -0.3966 -0.0570 -0.2139
45293W        W88231  31.317  34.096  17.045  0.1787 -0.1991  0.0445
45294W        W88232  27.850   1.142  20.128 -0.1254  0.2689 -0.0548
45295W        W88233  28.963   0.042  18.840 -0.1097  0.0789  0.1715
45296W        W88234  30.429  32.717  16.815 -0.2563  0.0472 -0.3846
45297W        W88235  32.285  33.542  18.424 -0.0362  0.0259 -0.0267
45298W        W88236  31.696  33.826  18.168 -0.2524  0.2822  0.0824
45299W        W88237  34.249  31.813  19.411  0.0400 -0.2361 -0.2128
45300W        W88238  31.751  34.348  16.707 -0.0512 -0.1535  0.0943
45301W        W88239  30.847  34.675  21.287  0.3947 -0.1916  0.1118
45302W        W88240  29.850  33.501  20.376 -0.1801  0.2122  0.2435
45303W        W88241  33.541  33.584  17.453 -0.1418 -0.1064 -0.3222
45304W        W88242  28.792  33.785  21.036  0.4316  0.3247  0.4214
45305W        W88243  32.292  33.409  17.967  0.0423 -0.0249  0.0440
45306W        W88244  31.825   0.167  16.836 -0.0547 -0.1016  0.0879
45307W        W88245  30.474   1.284  19.477  0.2081 -0.2470 -0.0613
45308W        W88246  29.416  33.970  17.845 -0.2184 -0.1564 -0.2120
45309W        W88247  29.590  33.907  19.096  0.1418 -0.0467  0.2784
45310W        W88248  29.664  33.275  19.383  0.0507  0.1128 -0.2026
45311W        W88249  31.278   0.041  19.836 -0.0885 -0.2699 -0.1401
45312W        W88250  29.376  32.101  17.976  0.1491 -0.0210 -0.0824
45313W        W88251  31.650  33.996  19.885 -0.1612 -0.1717  0.1638
45314W        W88252  30.777  34.065  17.192  0.1820  0.0991  0.3400
45315W        W88253  32.753  33.671  19.811  0.2848  0.0873 -0.0000
45316W        W88254  31.208   0.036  20.324 -0.1634  0.1241  0.1304
45317W        W88255  29.474  33.452  17.277 -0.1162 -0.0627 -0.3920
45318W        W88256  31.371  34.039  18.509  0.0849  0.1563 -0.0762
45319W        W88257  32.431  33.248  18.905  0.1814 -0.2771  0.0121
45320W        W88258  31.227   0.641  18.547 -0.3668  0.3222 -0.2393
45321W        W88259  30.432  33.737  17.019  0.2648  0.2308  0.1894
45322W        W88260  29.072  33.607  17.682  0.1160  0.2167  0.0761
45323W        W88261  32.896  32.995  18.932 -0.1708 -0.1485 -0.0518
45324W        W88262  28.889   0.230  20.050 -0.1892  0.2508  0.0508
45325W        W88263  31.082   1.667  21.127  0.0149  0.2405 -0.2280
45326W        W88264  29.140  34.645  16.879 -0.0121 -0.1190  0.0514
45327W        W88265  32.903  32.766  18.217 -0.0402  0.2700  0.1317
45328W        W88266  33.084  33.375  17.616  0.1490  0.1874  0.0126
45329W        W88267  33.163  32.927  16.945  0.0675  0.3031 -0.0874
45330W        W88268  30.256  32.274  16.560  0.0118  0.1078  0.1515
45331W        W88269  31.472  33.614  16.348 -0.0498  0.0813 -0.0066
45332W        W88270  31.019  32.687  17.873 -0.0940 -0.0369  0.1727
45333W        W88271  30.856  34.061  16.136  0.0497  0.3493 -0.1780
45334W        W88272  30.348  33.818  18.392  0.0062  0.3754  0.0530
45335W        W88273  32.976  32.193  18.598 -0.2154 -0.2079  0.1015
45336W        W88274  31.459  32.488  18.046  0.0905  0.1223  0.0475
45337W        W88275  30.640  33.555  20.042 -0.0810 -0.2564  0.0044
45338W        W88276  33.368   1.821  20.443 -0.0727 -0.0834  0.2720
45339W        W88277  31.859   1.181  17.185  0.1015 -0.1269 -0.2960
45340W        W88278  30.994   2.436  18.961  0.1328  0.0841  0.1869
45341W        W88279  31.406  34.394  18.159  0.0537 -0.0726  0.0589
45342W        W88280  31.534  34.374  20.237 -0.0473  0.0224  0.1736
45343W        W88281  32.370   0.480  19.398  0.0304 -0.3485  0.0307
45344W        W88282  30.718   0.651  17.729 -0.1307  0.1254 -0.1365
45345W        W88283  31.068  32.264  18.254  0.0331  0.0009  0.1733
45346W        W88284  30.628  33.327  16.762 -0.1637 -0.1834  0.0488
45347W        W88285  30.376  33.649  16.429  0.0548 -0.1987  0.2449
45348W        W88286  29.758   0.476  17.710  0.0335  0.0741 -0.3467
45349W        W88287  31.438  33.951  17.481  0.0250 -0.1940 -0.4396
45350W        W88288  31.041  34.009  20.491  0.0283 -0.1619  0.2628
45351W        W88289  30.853  34.047  19.284  0.0408  0.1325  0.0532
45352W        W88290  32.147   0.545  18.769 -0.1486  0.1136 -0.2085
45353W        W88291  32.589  34.061  17.022  0.0377 -0.0302 -0.1450
45354W        W88292  30.650   1.107  19.942  0.3228  0.0597 -0.2090
45355W        W88293  30.043  33.323  17.530 -0.1057 -0.0754  0.1548
45356W        W88294  33.243  34.034  19.299 -0.1064 -0.1032  0.1657
45357W        W88295  30.907  34.566  19.523 -0.1103  0.0980 -0.0594
45358W        W88296  30.685  34.003  16.599  0.4227 -0.3520  0.2347
45359W        W88297  30.232   0.317  19.914  0.0463 -0.1184 -0.0498
45360W        W88298  30.314  34.331  18.645  0.3155 -0.0578 -0.0079
45361W        W88299  30.968  33.225  17.883 -0.0169 -0.2394  0.2191
45362W        W88300  30.309   0.867  19.195  0.4938  0.0157 -0.1443
45363W        W88301  31.482   0.358  19.496  0.1262 -0.1639  0.0952
45364W        W88302  30.909  33.413  19.080 -0.0276  0.1527  0.0118
45365W        W88303  31.200  33.715  20.852 -0.1943 -0.1271 -0.0964
45366W        W88304  31.442  33.483  17.811 -0.0487  0.0699  0.0308
45367W        W88305  32.137  32.904  18.595  0.1179 -0.0731  0.0568
45368W        W88306  30.005   0.007  18.922 -0.0188 -0.0058 -0.0720
45369W        W88307  31.237  34.188  19.688 -0.1491 -0.0468  0.1391
45370W        W88308  31.389  34.635  16.979 -0.2280 -0.2646 -0.5163
45371W        W88309  32.439  33.484  19.391 -0.0358 -0.0290 -0.0558
45372W        W88310  30.962  34.339  20.090  0.0459  0.1844 -0.0745
45373W        W88311  29.686  34.530  19.343  0.2717  0.1045  0.0532
45374W        W88312  28.381   0.172  19.042 -0.1291  0.0302  0.2376
45375W        W88313  30.685  33.569  18.086 -0.0575 -0.0598  0.2554
45376W        W88314  30.393  33.137  17.170 -0.0432 -0.0564 -0.0869
45377W        W88315  30.581   1.263  18.532 -0.1080  0.0461 -0.1736
45378W        W88316  32.270   1.016  16.965  0.0059 -0.1053 -0.2353
45379W        W88317  29.966   1.291  19.013 -0.2446 -0.0496 -0.1352
45380W        W88318  31.964  33.479  16.904  0.0177  0.0802  0.2152
45381W        W88319  29.835   0.828  20.266  0.0300 -0.0336 -0.1581
45382W        W88320  31.430  33.780  19.330 -0.0022 -0.0611 -0.0251
45383W        W88321  31.554   0.049  20.811 -0.0233 -0.1387 -0.1230
45384W        W88322  30.291  34.677  20.668  0.2147  0.0781 -0.0623
45385W        W88323  30.970   1.132  19.454 -0.1178  0.1486 -0.0081
45386W        W88324  29.764  33.993  19.964  0.0743  0.2480 -0.0539
45387W        W88325  33.031  34.226  16.770  0.1382 -0.0248  0.3600
45388W        W88326  33.194  33.413  18.084  0.2619 -0.0282  0.1896
45389W        W88327  32.071  34.365  18.287 -0.1109 -0.0260  0.0313
45390W        W88328  32.170  33.899  16.748 -0.2853 -0.4113 -0.1992
45391W        W88329  30.517  33.227  17.686  0.0316 -0.4044 -0.0895
45392W        W88330  30.970   0.656  19.283 -0.1121 -0.0258 -0.0002
45393W        W88331  30.948  34.495  16.355  0.2194  0.0557 -0.1341
45394W        W88332  31.080  34.110  21.346  0.0744  0.0439 -0.2134
45395W        W88333  31.628  33.808  16.793  0.0342 -0.1876  0.2639
45396W        W88334  29.434   0.636  19.362  0.0044 -0.1008  0.0771
45397W        W88335  30.099  33.983  16.679 -0.0119  0.2097 -0.0889
45398W        W88336  30.375  34.396  16.839 -0.1390  0.0565 -0.0032
45399W        W88337  30.816  33.583  16.255 -0.1644 -0.0917  0.0047
45400W        W88338  32.526   0.316  19.947 -0.3722 -0.0299  0.0563
45401W        W88339  31.854  33.380  18.758 -0.1822  0.0946  0.1854
45402W        W88340  31.513  34.219  18.977  0.1219  0.2437 -0.4379
45403W        W88341  31.846   0.647  19.352  0.3712  0.2182  0.1755
45404W        W88342  31.961   0.166  17.328 -0.0031 -0.0560  0.1563
45405W        W88343  32.607   0.206  18.854  0.0004 -0.2351 -0.0430
45406W        W88344  30.670   0.888  17.289  0.2079  0.0178 -0.0084
45407W        W88345  30.702   0.049  20.333 -0.3397 -0.2128  0.0896
45408W        W88346  29.367  32.581  17.677 -0.1884 -0.1230  0.2191
45409W        W88347  31.233  33.933  17.987  0.0746 -0.0529 -0.1726
45410W        W88348  32.893  32.894  17.393  0.0945 -0.1729 -0.0312
45411W        W88349  32.352   0.025  17.906  0.4866 -0.0367  0.1630
45412W        W88350  31.866  33.768  17.620 -0.2367 -0.1643 -0.3043
45413W        W88351  30.710  34.190  18.384  0.0160 -0.0203  0.2460
45414W        W88352  29.961  32.535  17.489  0.2566  0.1137  0.2051
45415W        W88353  30.598   0.516  20.572 -0.1012  0.0845  0.0566
45416W        W88354  32.296  32.415  20.095 -0.2696 -0.0204 -0.2572
45417W        W88355  30.673  34.127  17.708 -0.2609  0.1199 -0.3029
45418W        W88356  30.294   0.488  18.858 -0.0265 -0.0432  0.0610
45419W        W88357  31.518   0.046  18.994 -0.0056  0.0473  0.1865
45420W        W88358  31.697  34.530  18.563 -0.1292  0.1540 -0.0564
45421W        W88359  29.977  32.739  18.929  0.0637  0.2254 -0.0257
45422W        W88360  32.869   0.027  18.076 -0.3785  0.1095  0.1804
45423W        W88361  29.408  34.247  19.695  0.0018 -0.2237 -0.3270
45424W        W88362  31.864  33.297  18.222  0.2653 -0.0062  0.0185
45425W        W88363  29.385  34.459  17.266  0.1810  0.4458  0.2043
45426W        W88364  32.207  32.506  17.788 -0.0850  0.0447  0.0417
45427W        W88365  30.676   1.069  18.987  0.2853 -0.2409 -0.0149
45428W        W88366  31.129  33.256  16.574  0.0100 -0.0500  0.0502
45429W        W88367  33.499   1.090  20.274 -0.0489 -0.2982  0.3710
45430W        W88368  31.487  34.402  17.444 -0.4606  0.0744  0.1113
45431W        W88369  31.493  33.156  18.501  0.1369  0.1264  0.0860
45432W        W88370  31.058   0.086  17.297  0.2546  0.2933 -0.0037
45433W        W88371  29.623  33.303  17.886 -0.2025  0.0535 -0.0666
45434W        W88372  30.587   0.764  19.608  0.4448  0.0638  0.0902
45435W        W88373  31.800  32.221  17.674  0.0376 -0.0810  0.1825
45436W        W88374  32.610   0.011  19.326  0.1497 -0.0581 -0.1293
45437W        W88375  32.690   0.674  18.651 -0.0958 -0.3016 -0.1788
45438W        W88376  27.892   0.058  19.185  0.2500  0.1398  0.0435
45439W        W88377  31.126  32.515  17.008  0.2311  0.2134  0.0204
45440W        W88378  29.005  34.281  17.611 -0.1661 -0.0169 -0.4304
45441W        W88379  31.230   0.045  18.602  0.0333 -0.0672  0.0489
45442W        W88380  31.036  34.346  18.815 -0.0578 -0.0194 -0.0212
45443W        W88381  32.042  33.353  20.546  0.0717 -0.3170 -0.0217
45444W        W88382  30.665  34.522  17.399  0.1064  0.1414 -0.2039
45445W        W88383  31.809  34.119  17.201 -0.0612 -0.0593  0.0257
45446W        W88384  32.368  34.301  17.526 -0.1774  0.1333 -0.0056
45447W        W88385  32.631  32.910  16.883  0.1215  0.0870  0.0494
45448W        W88386  29.600  34.343  18.847  0.0776 -0.0002 -0.0254
45449W        W88387  29.703   0.081  17.006  0.0637 -0.1835  0.3128
45450W        W88388  30.111  34.127  21.362 -0.2392 -0.1807 -0.2555
45451W        W88389  30.437  34.533  19.872 -0.0464  0.1150  0.1800
45452W        W88390  28.725  34.455  18.506 -0.0253 -0.2072 -0.1728
45453W        W88391  30.397  32.778  17.581  0.3575 -0.0758 -0.3933
45454W        W88392  30.156  33.440  18.103  0.0737 -0.3537 -0.0395
45455W        W88393  28.269  33.332  17.949 -0.2463  0.0520 -0.2075
45456W        W88394  30.065  33.779  17.769 -0.0352 -0.2094 -0.0629
45457W        W88395  30.146  34.429  22.854  0.0498  0.0271  0.4403
45458W        W88396  30.415  34.184  19.489 -0.2081  0.1415 -0.2136
45459W        W88397  29.677  33.757  16.833  0.3004  0.0283 -0.0758
45460W        W88398  30.826   0.287  19.914  0.1393  0.0249  0.5707
45461W        W88399  29.785  33.066  18.287  0.0226 -0.1393 -0.1361
45462W        W88400  32.160  34.212  18.924 -0.1642 -0.3135  0.1142
45463W        W88401  30.898  34.440  16.881  0.4627  0.2985  0.0351
45464W        W88402  31.416  32.743  20.411  0.3457 -0.1067  0.1810
45465W        W88403  30.977  33.682  17.481 -0.3151 -0.1788  0.0256
45466W        W88404  31.402  33.484  17.251  0.2159  0.3176 -0.1509
45467W        W88405  29.351   0.721  18.891 -0.2225  0.1947  0.2037
45468W        W88406  31.457   1.401  17.868  0.1144 -0.0297  0.0682
45469W        W88407  31.571  33.893  20.352  0.2527  0.1117  0.0263
45470W        W88408  31.072  34.433  17.693  0.0783 -0.1435 -0.1716
45471W        W88409  33.296   0.559  16.994 -0.0212 -0.1513  0.0195
45472W        W88410  31.328  33.651  18.827 -0.2330 -0.1178 -0.0446
45473W        W88411  29.708   0.567  16.784  0.2964  0.4355 -0.1514
45474W        W88412  30.648  34.038  18.832 -0.0284  0.1553  0.1465
45475W        W88413  31.836  33.909  18.700  0.3567  0.0155 -0.0629
45476W        W88414  30.477  34.455  19.104  0.1983  0.1629  0.0883
45477W        W88415  30.941  33.682  16.975  0.0508 -0.2603  0.0155
45478W        W88416  29.125  33.231  20.116  0.0971 -0.0746 -0.1032
45479W        W88417  32.846  33.046  20.970 -0.0284 -0.1037  0.1640
45480W        W88418  31.978   0.650  20.882 -0.0657  0.0981 -0.0090
45481W        W88419  28.829  34.693  20.862 -0.0735  0.0427  0.0351
45482W        W88420  30.250  33.434  22.445 -0.0343  0.0326 -0.1046
45483W        W88421  31.874   0.601  21.485  0.1565 -0.1478  0.1845
45484W        W88422  29.850  34.402  22.428 -0.0303  0.1685  0.2769
45485W        W88423  29.128  33.902  22.321 -0.1032 -0.0600 -0.0709
45486W        W88424  29.765  32.215  23.447  0.0659 -0.0905  0.3481
45487W        W88425  29.879  32.849  22.822  0.0961 -0.1339  0.3557
45488W        W88426  27.412  34.518  21.468  0.0913 -0.0435 -0.2800
45489W        W88427  28.940  33.428  22.332 -0.1421  0.0066  0.1291
45490W        W88428  29.569   1.212  21.631  0.0131  0.1888 -0.0146
45491W        W88429  29.594  33.195  23.035  0.2728 -0.0362 -0.2202
45492W        W88430  30.558  33.554  23.971 -0.0335 -0.1232  0.2521
45493W        W88431  28.689  33.329  19.884  0.0641  0.0855  0.0986
45494W        W88432  29.519  33.706  19.650 -0.0193  0.0018  0.2058
45495W        W88433  29.352   0.754  22.544  0.0239  0.2031 -0.0307
45496W        W88434  31.076  32.818  22.307  0.2725 -0.1535  0.0850
45497W        W88435  31.315   0.271  21.193  0.3363  0.0374  0.4086
45498W        W88436  31.390  34.262  24.177  0.0410  0.0149  0.0461
45499W        W88437  30.533   1.064  22.923  0.0721  0.1793 -0.1023
45500W        W88438  29.762   1.116  21.218  0.1522  0.3699  0.2475
45501W        W88439  31.424  33.715  23.121 -0.0410 -0.2767 -0.2041
45502W        W88440  33.276  34.006  20.205  0.3100 -0.1287  0.1577
45503W        W88441  29.917  34.444  21.061 -0.2121  0.2113 -0.1184
45504W        W88442  32.124  32.571  21.026  0.2182  0.3792 -0.0706
45505W        W88443  29.470  31.715  22.153 -0.1925 -0.0873  0.1127
45506W        W88444  30.293  33.853  22.153 -0.5320  0.1464 -0.0994
45507W        W88445  30.741   1.314  21.432  0.0280 -0.2054 -0.1398
45508W        W88446  31.473  34.642  22.021  0.0064 -0.0079 -0.0695
45509W        W88447  29.439  34.495  21.964 -0.1350  0.1563  0.1707
45510W        W88448  29.176  32.777  20.343  0.3438  0.2743 -0.1041
45511W        W88449  29.060   0.334  23.281  0.2367  0.2204  0.1822
45512W        W88450  29.881  34.108  24.101 -0.1400  0.1528 -0.1919
45513W        W88451  29.894  32.746  19.902 -0.0785  0.1385  0.1913
45514W        W88452  33.749  32.795  21.483  0.3657 -0.2248 -0.3085
45515W        W88453  31.846  33.669  21.875 -0.2729  0.0512  0.0887
45516W        W88454  32.309  32.903  22.301 -0.4301 -0.0995 -0.2000
45517W        W88455  33.129   2.376  20.684 -0.2126  0.4440 -0.0453
45518W        W88456  30.406  34.260  22.368  0.0133  0.1895  0.0831
45519W        W88457  28.655  33.299  22.758 -0.2883  0.2060  0.1263
45520W        W88458  32.911   0.202  20.324 -0.1193  0.3147  0.0881
45521W        W88459  29.505  33.371  24.438  0.2244 -0.4462  0.0345
45522W        W88460  32.629  33.601  21.747  0.0232  0.2082  0.0502
45523W        W88461  33.365   0.024  21.183  0.2516 -0.2598 -0.0391
45524W        W88462  28.608  34.290  22.025  0.0474 -0.2411  0.0648
45525W        W88463  29.569  32.467  21.046 -0.1183  0.0258 -0.0729
45526W        W88464  30.552  34.121  23.725  0.5645  0.3328 -0.0173
45527W        W88465  30.455  32.822  20.598  0.0897  0.0277 -0.1728
45528W        W88466  32.514  33.911  22.435 -0.0682 -0.2547 -0.3914
45529W        W88467  29.288  32.861  21.340 -0.3868  0.0196 -0.1610
45530W        W88468  31.279  33.292  21.616 -0.3519  0.1997 -0.1327
45531W        W88469  29.202   1.487  21.912 -0.3589  0.1488 -0.0054
45532W        W88470  32.091  32.766  23.303 -0.1124 -0.1534 -0.1044
45533W        W88471  30.380  34.278  23.261  0.1696 -0.0384  0.0618
45534W        W88472  30.071  33.789  19.587  0.2542 -0.0075  0.2560
45535W        W88473  29.391  33.791  21.443  0.3287 -0.0026  0.0862
45536W        W88474  30.832  33.233  23.366  0.2379  0.1010 -0.2578
45537W        W88475  31.281  34.024  21.836  0.0504  0.4813  0.2870
45538W        W88476  28.814  33.087  20.458 -0.0483  0.0265 -0.0508
45539W        W88477  29.568  33.447  22.116 -0.0715 -0.1948 -0.0082
45540W        W88478  32.294  33.509  22.095  0.1973  0.0040 -0.1703
45541W        W88479  27.542   0.178  22.861 -0.5294  0.0667  0.1027
45542W        W88480  29.591  33.861  23.613 -0.0672 -0.4427  0.0719
45543W        W88481  30.024  34.594  21.630  0.1546 -0.1186  0.0625
45544W        W88482  31.500  33.783  21.450 -0.0482  0.0334  0.4256
45545W        W88483  32.737  32.747  20.052 -0.0390  0.2298 -0.1546
45546W        W88484  31.527   0.517  20.525 -0.1105  0.0226 -0.1633
45547W        W88485  32.175  33.805  19.726  0.2797  0.0789  0.3045
45548W        W88486  30.285  34.001  19.973 -0.0397 -0.1692  0.0882
45549W        W88487  30.379  32.929  21.992 -0.0689  0.0885 -0.0102
45550W        W88488  29.312  34.628  20.013 -0.0973 -0.1340  0.3221
45551W        W88489  30.049  33.288  21.785 -0.0607 -0.0384  0.1324
45552W        W88490  31.660  34.176  22.267  0.2861  0.3047 -0.0443
45553W        W88491  30.621   0.608  22.696 -0.0186 -0.0336  0.0313
45554W        W88492  30.663  33.754  23.308  0.2337 -0.0712  0.1717
45555W        W88493  32.741  33.327  23.063  0.2325  0.1837 -0.0656
45556W        W88494  32.598   1.051  20.601 -0.0634  0.2198  0.0069
45557W        W88495  30.128   0.215  22.842 -0.0589 -0.0335  0.3369
45558W        W88496  28.919  34.492  19.772 -0.1960  0.0618  0.0814
45559W        W88497  31.915  33.761  22.424  0.0460 -0.1976 -0.0680
45560W        W88498  30.934  33.604  24.754 -0.1390 -0.4793  0.2237
45561W        W88499  29.706  32.817  20.365 -0.1163  0.0252  0.1036
45562W        W88500  30.880  32.953  22.829  0.0026 -0.0923  0.0479
45563W        W88501  33.180  32.018  21.965 -0.4750  0.0153 -0.2013
45564W        W88502  30.709  32.894  20.209 -0.3654 -0.0320  0.0718
45565W        W88503  28.069  33.144  20.998  0.2113  0.2680  0.2887
45566W        W88504  32.191  33.450  21.002 -0.2630  0.0494 -0.0285
45567W        W88505  29.384  33.637  23.235  0.1087  0.4201  0.3809
45568W        W88506  30.795  32.499  21.987 -0.1802 -0.4163 -0.3352
45569W        W88507  29.811  33.875  22.318  0.0544 -0.3483 -0.0508
45570W        W88508  31.818  33.706  20.802  0.0242 -0.0116 -0.0042
45571W        W88509  30.708   2.917  23.619 -0.1993  0.2274  0.1342
45572W        W88510  27.918  33.796  19.460  0.1612 -0.5619 -0.0194
45573W        W88511  33.275   0.559  21.301  0.4390 -0.1474  0.1137
45574W        W88512  29.183  34.144  23.388 -0.1953  0.0917 -0.0739
45575W        W88513  29.364   1.021  20.388 -0.1422 -0.1214 -0.1169
45576W        W88514  30.040  33.645  24.256 -0.0935 -0.0639 -0.0306
45577W        W88515  30.885   0.401  21.599  0.1467  0.1052  0.2429
45578W        W88516  29.261  32.422  22.257 -0.0115  0.0469  0.0841
45579W        W88517  30.599  34.225  21.410  0.3715 -0.4163  0.0937
45580W        W88518  30.704  32.539  22.490 -0.1807  0.0875  0.0524
45581W        W88519  29.874  33.781  21.766 -0.1708  0.2832  0.0992
45582W        W88520  31.590  34.617  23.829  0.2241  0.3119  0.4167
45583W        W88521  30.678  33.118  22.351 -0.0159 -0.3478 -0.1044
45584W        W88522  32.715  33.662  21.107  0.3217  0.1919 -0.1967
45585W        W88523  30.169  34.651  22.096 -0.0771 -0.5162  0.0468
45586W        W88524  32.666  34.269  23.282  0.3768  0.2201 -0.3612
45587W        W88525  31.885   0.112  21.752  0.0063 -0.0827 -0.1524
45588W        W88526  32.285  33.408  23.344  0.0774  0.1320 -0.4172
45589W        W88527  29.751  33.823  22.828  0.0317 -0.2076 -0.2191
45590W        W88528  28.654  33.767  22.522  0.3033 -0.0281 -0.3229
45591W        W88529  29.009   1.402  24.856  0.0561  0.0677  0.1078
45592W        W88530  31.252  34.519  21.090 -0.0621 -0.0704  0.0964
45593W        W88531  30.371  33.596  20.483 -0.2017  0.1055  0.1549
45594W        W88532  29.816  34.640  23.784  0.1873  0.2489  0.3057
45595W        W88533  32.943  34.350  20.482 -0.0960 -0.1270 -0.1461
45596W        W88534  29.926   2.458  22.413  0.4094  0.3932  0.1676
45597W        W88535  32.292   0.077  20.327 -0.0585 -0.0450  0.2646
45598W        W88536  30.226  33.884  22.651  0.3909  0.0846 -0.0469
45599W        W88537  30.601  33.503  21.920  0.1607 -0.0476  0.0318
45600W        W88538  30.556  32.911  24.126 -0.2271  0.1601  0.0958
45601W        W88539  29.188   0.049  22.886 -0.2120  0.2466 -0.2103
45602W        W88540  29.746  34.255  23.216  0.2128  0.1105 -0.0114
45603W        W88541  28.945  32.003  25.660 -0.1100 -0.2082 -0.1805
45604W        W88542  33.360  34.151  21.201 -0.0071  0.2486  0.0659
45605W        W88543  32.351  33.954  23.498 -0.0451  0.1778  0.1194
45606W        W88544  33.904  34.670  21.046  0.0563  0.0658 -0.0875
45607W        W88545  29.509   0.093  21.535  0.3297 -0.3107 -0.3100
45608W        W88546  29.514  33.350  21.614  0.1132  0.0903 -0.0709
45609W        W88547  31.887   1.111  23.983  0.4252  0.4046 -0.4465
45610W        W88548  29.240  34.164  20.163 -0.4660  0.1909 -0.1679
45611W        W88549  30.977  33.694  23.676 -0.2445 -0.4179  0.4051
45612W        W88550  31.473  34.566  21.511  0.0746 -0.0652 -0.0710
45613W        W88551  29.567  33.352  21.033  0.0324  0.0070 -0.0362
45614W        W88552  29.185  33.304  19.596 -0.3687  0.1702 -0.2438
45615W        W88553  29.440   0.010  21.006  0.1279 -0.0814 -0.2983
45616W        W88554  30.346  34.622  21.147  0.4627  0.0551  0.1902
45617W        W88555  31.315  34.284  22.759 -0.0467  0.0769 -0.0287
45618W        W88556  29.415   0.029  22.451  0.0964  0.3872 -0.0476
45619W        W88557  31.669  33.439  22.744 -0.1429 -0.1589  0.2783
45620W        W88558  33.230  33.411  21.790  0.0153 -0.2554  0.4502
45621W        W88559  29.890  33.512  21.344 -0.2360 -0.0509  0.1315
45622W        W88560  33.172  34.163  21.674  0.4158 -0.0830 -0.1758
45623W        W88561  29.436  34.135  22.643 -0.1157  0.2947 -0.0692
45624W        W88562  28.394   0.636  22.551 -0.4218  0.0482  0.0588
45625W        W88563  29.610  32.895  21.875  0.2635  0.2472 -0.2290
45626W        W88564  30.262  34.134  20.847 -0.2435 -0.0959 -0.1665
45627W        W88565  31.763   0.037  20.095  0.0866 -0.0645 -0.0894
45628W        W88566  33.029  32.488  21.990 -0.0328 -0.2053  0.1816
45629W        W88567  34.025  34.074  20.124  0.1073 -0.1906  0.2719
45630W        W88568  28.429  33.376  22.211 -0.0428  0.2304 -0.0084
45631W        W88569  30.693  33.145  19.754  0.1842 -0.1120  0.1135
45632W        W88570  28.370  34.192  22.583  0.1149  0.0126  0.0299
45633W        W88571  31.074  32.701  23.811  0.1009  0.1319  0.1114
45634W        W88572  28.532  34.078  20.679  0.0877  0.0439 -0.2878
45635W        W88573  31.210  32.585  22.728 -0.3447  0.1652  0.0189
45636W        W88574  32.680  32.145  22.096  0.1708 -0.2141  0.3049
45637W        W88575  30.930  33.048  21.263 -0.1578 -0.4577 -0.0507
45638W        W88576  30.492  34.254  20.406 -0.1533  0.0171 -0.5160
45639W        W88577  32.605   0.004  20.788 -0.1603  0.0694  0.4051
45640W        W88578  29.912   0.102  23.267  0.0042 -0.0559 -0.0416
45641W        W88579  32.293  33.039  22.949  0.0005  0.1262  0.0822
45642W        W88580  28.994   0.115  21.337 -0.0696  0.0291 -0.0316
45643W        W88581  32.822  32.883  21.573 -0.0149  0.2045 -0.0727
45644W        W88582  29.309  33.563  22.751  0.1937 -0.3360  0.2940
45645W        W88583  28.792   1.089  21.724 -0.1624 -0.0637  0.1999
45646W        W88584  32.291  34.484  21.671 -0.2361  0.0108 -0.1324
45647W        W88585  31.419  34.222  20.731 -0.0217  0.0671  0.1561
45648W        W88586  29.770  33.400  22.556  0.0636  0.1661 -0.0610
45649W        W88587  32.084  33.029  21.354  0.2597 -0.4566 -0.1312
45650W        W88588  27.776   0.109  21.941 -0.1964  0.2673  0.1990
45651W        W88589  30.060  33.356  22.924  0.1231  0.2717 -0.0401
45652W        W88590  27.952  33.363  21.427  0.0497 -0.3278  0.2568
45653W        W88591  32.604  33.391  20.661 -0.1388 -0.1571  0.0127
45654W        W88592  31.924   1.218  21.096 -0.0152  0.0057 -0.1585
45655W        W88593  28.096  32.755  22.033 -0.1534  0.2632  0.0184
45656W        W88594  28.295   0.122  22.431  0.0871 -0.0844 -0.0317
45657W        W88595  29.811   0.908  22.206  0.1701 -0.3909  0.0022
45658W        W88596  33.476  33.690  22.555 -0.2250  0.1407  0.2750
45659W        W88597  32.163  34.044  22.059  0.3469  0.1115  0.1169
45660W        W88598  30.701  33.126  24.589  0.0167 -0.3411  0.1510
45661W        W88599  29.504   0.677  21.704 -0.2170  0.7421  0.0159
45662W        W88600  30.910  34.211  22.466 -0.0017  0.3647  0.0245
45663W        W88601  32.573  33.256  21.318 -0.0269  0.2006  0.0099
45664W        W88602  30.783  34.099  21.940  0.0956  0.3808  0.0166
45665W        W88603  29.323  33.091  22.350 -0.1950 -0.2477 -0.1824
45666W        W88604  28.847   0.786  20.423  0.0153 -0.1369 -0.0946
45667W        W88605  30.894  33.203  23.850 -0.0355  0.0894 -0.1448
45668W        W88606  28.935  34.541  23.259 -0.0464  0.0035  0.1949
45669W        W88607  29.092   0.825  23.121 -0.1638  0.2513 -0.2092
45670W        W88608  29.026  33.839  20.443  0.2353 -0.1500 -0.1601
45671W        W88609  30.718  33.762  22.393 -0.0658  0.2509 -0.2586
45672W        W88610  29.828  32.277  20.664  0.4602  0.1471  0.0179
45673W        W88611  29.288   0.309  22.002  0.1192 -0.0880  0.1098
45674W        W88612  30.697   0.349  23.549 -0.2163  0.1435  0.0327
45675W        W88613  30.371  33.964  24.240  0.2293 -0.1410  0.1004
45676W        W88614  30.163  33.060  20.183  0.4188  0.2558  0.0992
45677W        W88615  30.565  34.609  21.728 -0.2087 -0.1314  0.0729
45678W        W88616  29.551  32.502  23.770  0.0875  0.1056 -0.0557
45679W        W88617  32.532  33.424  22.556 -0.1908 -0.0233  0.0254
45680W        W88618  29.449  33.704  20.696  0.0770  0.0420 -0.1548
45681W        W88619  29.361  33.882  24.102 -0.0225  0.0217  0.1266
45682W        W88620  29.098  31.777  20.663  0.2714  0.0226  0.1141
45683W        W88621  30.001  34.227  21.944  0.1524  0.0600  0.0207
45684W        W88622  29.248   0.927  21.355 -0.1648  0.1213  0.2702
45685W        W88623  30.757  34.043  20.982 -0.0931  0.3176  0.1960
45686W        W88624  31.749   0.075  23.346 -0.1334  0.1371 -0.3540
45687W        W88625  29.467  34.307  20.752 -0.2282 -0.1306  0.2044
45688W        W88626  33.448   1.379  20.728  0.1406 -0.1697  0.3176
45689W        W88627  28.909  32.816  22.364  0.0598 -0.0870  0.1580
45690W        W88628  29.584  34.280  21.496 -0.1016  0.0302 -0.0119
45691W        W88629  28.703   0.262  22.216 -0.1693 -0.0059 -0.1471
45692W        W88630  31.436   0.395  21.699  0.1222  0.2133  0.0340
45693W        W88631  29.803  33.024  21.420  0.2964  0.1965  0.1289
45694W        W88632  30.884  34.430  20.714 -0.0534  0.1542 -0.0768
45695W        W88633  30.812  34.577  23.487 -0.2152  0.1039 -0.3232
45696W        W88634  31.352  33.855  22.412 -0.0941  0.1241  0.2971
45697W        W88635  30.910  34.501  23.000 -0.0061 -0.1796 -0.2142
45698W        W88636  30.220  34.469  24.134 -0.2596  0.1750 -0.1716
45699W        W88637  30.938  32.554  26.842  0.0334 -0.3033  0.1850
45700W        W88638  31.337   1.893  24.044  0.2678 -0.0357  0.0579
45701W        W88639  31.098  34.305  27.008 -0.2256 -0.1921 -0.0374
45702W        W88640  30.582  33.964  25.120 -0.1433 -0.0051 -0.1672
45703W        W88641  29.619  33.610  25.448 -0.1056  0.0744  0.5671
45704W        W88642  32.539  34.625  25.049  0.0300  0.2826 -0.3711
45705W        W88643  28.846   0.354  24.087  0.1717  0.3389  0.0430
45706W        W88644  31.651  33.708  27.203  0.3078 -0.1630 -0.1565
45707W        W88645  29.912   0.166  24.376  0.0262 -0.0004 -0.0828
45708W        W88646  30.655  33.364  27.279 -0.1012  0.2338 -0.0616
45709W        W88647  31.552  32.322  27.496  0.2828  0.0781  0.1204
45710W        W88648  28.084   0.057  23.290 -0.1950  0.1481 -0.3689
45711W        W88649  30.023  33.770  26.509  0.0185  0.0638 -0.5758
45712W        W88650  30.751   1.309  25.136 -0.2332  0.3612 -0.0396
45713W        W88651  30.749  34.306  25.521  0.1295  0.1321  0.0693
45714W        W88652  31.744  34.100  25.793 -0.0325 -0.1843  0.0304
45715W        W88653  31.541  33.332  26.849 -0.0144  0.3156 -0.2357
45716W        W88654  32.929   0.302  26.644 -0.0256  0.0793  0.0047
45717W        W88655  29.428   0.014  23.403 -0.0254 -0.1371 -0.0499
45718W        W88656  31.979  32.502  27.323 -0.0437 -0.0755  0.0836
45719W        W88657  31.273  33.216  23.082  0.2269  0.0997 -0.0734
45720W        W88658  29.212  33.228  24.817 -0.0123 -0.1723  0.0400
45721W        W88659  32.163  33.764  24.298 -0.0827  0.1363 -0.2599
45722W        W88660  31.959  32.312  25.217  0.1616  0.1609  0.1747
45723W        W88661  30.858  33.172  26.356 -0.0564  0.1625  0.1361
45724W        W88662  32.383   0.357  24.967  0.1386 -0.1541 -0.2533
45725W        W88663  31.267  34.232  25.652  0.0556 -0.2363 -0.4041
45726W        W88664  28.212   0.172  23.836 -0.2231 -0.0844  0.0303
45727W        W88665  29.048  34.592  23.723  0.1355 -0.1877  0.0709
45728W        W88666  28.775  34.587  27.544  0.0544 -0.0578 -0.0409
45729W        W88667  30.519  33.383  25.905 -0.0026  0.1984  0.1078
45730W        W88668  29.657  33.905  24.570  0.0581 -0.0604 -0.1757
45731W        W88669  33.367  34.472  26.060  0.1255 -0.1829 -0.0052
45732W        W88670  31.871  33.379  24.313 -0.2281 -0.3482 -0.2433
45733W        W88671  31.658  32.680  26.384  0.1018  0.2081  0.2165
45734W        W88672  32.687   1.406  24.453  0.2951  0.0417  0.0336
45735W        W88673  31.286  34.039  27.482 -0.1498 -0.1030  0.1318
45736W        W88674  29.798  33.086  25.119 -0.2301  0.0140  0.1204
45737W        W88675  31.799  32.844  24.035  0.1394  0.0735  0.1509
45738W        W88676  30.302  33.390  26.853 -0.2955  0.0009 -0.1191
45739W        W88677  32.602  32.677  25.310  0.0325 -0.1401 -0.0708
45740W        W88678  33.494  34.124  25.192 -0.1151  0.2805 -0.1766
45741W        W88679  29.651   0.423  26.708  0.1633 -0.1364 -0.1492
45742W        W88680  29.270  32.102  23.975  0.5868 -0.1543 -0.3619
45743W        W88681  29.193  33.743  24.711 -0.3372 -0.0722 -0.0444
45744W        W88682  30.563  34.006  26.161  0.1586  0.4031 -0.0642
45745W        W88683  32.160   0.326  25.450  0.0380 -0.1124 -0.0601
45746W        W88684  29.081   0.255  24.520  0.1074  0.2044  0.0399
45747W        W88685  32.289   0.286  26.004 -0.0973  0.0439 -0.1005
45748W        W88686  30.679   0.182  24.469  0.1813  0.1292 -0.1894
45749W        W88687  31.069   0.440  26.649  0.1520 -0.3355  0.1271
45750W        W88688  29.675  34.428  26.996  0.0407  0.1921  0.2330
45751W        W88689  30.206   0.995  24.457 -0.1447 -0.0979 -0.0560
45752W        W88690  31.003  34.109  23.302  0.1290 -0.3714 -0.0208
45753W        W88691  32.769  32.225  26.879  0.0874  0.1305  0.1368
45754W        W88692  31.595  34.590  25.484 -0.0279  0.4075  0.2031
45755W        W88693  28.888  34.211  22.820  0.1048  0.1643 -0.1778
45756W        W88694  29.479   0.200  25.295  0.1755  0.0594  0.1659
45757W        W88695  32.422  33.507  27.815 -0.1406  0.0207 -0.1225
45758W        W88696  26.543  34.330  27.342 -0.1528  0.1422 -0.3702
45759W        W88697  31.400  33.905  28.688 -0.1998 -0.3219  0.1494
45760W        W88698  28.765   0.371  26.008  0.3090  0.0010 -0.0631
45761W        W88699  32.727  32.940  24.884 -0.2309  0.1488  0.1002
45762W        W88700  32.570  33.796  23.079  0.1250  0.2901 -0.2417
45763W        W88701  31.689   0.985  23.469  0.1163  0.1058  0.1215
45764W        W88702  31.003  32.078  24.770  0.0873  0.1338  0.1028
45765W        W88703  30.958   0.320  23.139 -0.2407  0.1443 -0.1560
45766W        W88704  31.000  33.258  25.809 -0.1289 -0.1118 -0.1107
45767W        W88705  30.181   0.031  24.790  0.2169 -0.2121 -0.1147
45768W        W88706  32.185  34.102  25.505 -0.1093 -0.2256  0.5817
45769W        W88707  32.300  33.660  25.687 -0.0120 -0.0611  0.0048
45770W        W88708  31.720  33.913  24.435  0.0893 -0.0753 -0.0317
45771W        W88709  29.879  33.315  26.037 -0.0988 -0.1177  0.0948
45772W        W88710  33.488   1.073  27.736  0.1517 -0.1511  0.0871
45773W        W88711  33.541   0.515  24.743  0.0666 -0.1261  0.0365
45774W        W88712  31.679   0.155  25.902  0.2104 -0.2705 -0.1845
45775W        W88713  30.125   0.428  23.562  0.2236  0.1950 -0.0958
45776W        W88714  30.192  33.868  25.525 -0.1853 -0.1455  0.0848
45777W        W88715  31.692  34.678  27.666 -0.2792 -0.1452 -0.1323
45778W        W88716  30.174  33.789  23.736  0.2098  0.2668  0.1128
45779W        W88717  30.651  33.533  25.452  0.0649 -0.0536  0.1331
45780W        W88718  32.138  33.395  25.234 -0.1689  0.4371 -0.0553
45781W        W88719  30.569  33.359  25.006  0.0732  0.0199 -0.0852
45782W        W88720  28.896   1.062  23.948  0.0535  0.1223 -0.1367
45783W        W88721  31.761  32.915  25.847 -0.1416 -0.1482 -0.1538
45784W        W88722  30.585  34.310  26.947  0.0083  0.2216 -0.0012
45785W        W88723  31.871  32.943  25.281 -0.0345 -0.1466  0.0131
45786W        W88724  31.319  33.277  27.990 -0.2075  0.1768 -0.0534
45787W        W88725  32.361  33.492  23.850  0.0215  0.0414  0.1083
45788W        W88726  29.700  34.576  26.442 -0.1791  0.2005  0.0178
45789W        W88727  28.563   0.355  24.569 -0.0077  0.0737  0.2867
45790W        W88728  32.280   0.631  26.524 -0.0603  0.1572  0.0196
45791W        W88729  29.380   0.243  23.879 -0.1667 -0.3168  0.1030
45792W        W88730  30.212   1.857  23.524  0.1919  0.0682 -0.2530
45793W        W88731  30.189  34.543  27.216  0.2233  0.1751  0.0721
45794W        W88732  30.582   0.885  23.447  0.1215  0.1232 -0.0280
45795W        W88733  30.053  34.255  23.614 -0.1416  0.1368 -0.1959
45796W        W88734  29.711   0.443  26.008 -0.0198  0.0838 -0.1348
45797W        W88735  31.851   0.803  27.445  0.1019 -0.0645 -0.1507
45798W        W88736  32.565  32.264  25.613 -0.0136  0.0188  0.2237
45799W        W88737  31.180  34.657  27.506  0.0801  0.2723  0.0755
45800W        W88738  31.295  32.891  25.947 -0.2016  0.0912 -0.1131
45801W        W88739  31.448  33.702  24.036 -0.2320 -0.1237 -0.0843
45802W        W88740  30.625  34.295  24.588  0.0512  0.1300  0.1325
45803W        W88741  32.406  33.373  27.223 -0.2226 -0.0201 -0.2910
45804W        W88742  32.177  34.114  23.115 -0.0845 -0.2047  0.0866
45805W        W88743  31.707  33.093  28.340 -0.4024  0.1055  0.1183
45806W        W88744  30.933  34.073  26.594 -0.2397 -0.0378 -0.1228
45807W        W88745  28.982  34.321  27.143 -0.1233  0.1866  0.2501
45808W        W88746  29.347   0.863  27.381 -0.0527 -0.1392  0.0101
45809W        W88747  32.510  34.478  25.915 -0.1574  0.0283  0.0233
45810W        W88748  28.871  33.850  25.520 -0.2723 -0.2587  0.0425
45811W        W88749  30.144  33.806  25.994 -0.5800 -0.3197  0.1111
45812W        W88750  33.265  34.052  25.688  0.1833 -0.1173  0.1278
45813W        W88751  29.240   0.560  26.186 -0.2964 -0.3657  0.0231
45814W        W88752  31.878  33.912  23.910 -0.0180 -0.1216 -0.1646
45815W        W88753  31.415  33.892  26.137  0.2121  0.1546  0.2963
45816W        W88754  32.042  34.592  25.234 -0.0993 -0.0744  0.1913
45817W        W88755  30.320  34.333  25.858 -0.2671  0.0479  0.1708
45818W        W88756  31.708  33.801  26.635  0.3349  0.1639 -0.1846
45819W        W88757  31.479   0.459  27.588 -0.0612 -0.1145 -0.0836
45820W        W88758  29.173  33.673  26.953  0.3896 -0.3495 -0.1865
45821W        W88759  31.432   1.154  23.093  0.1780 -0.0912  0.2299
45822W        W88760  31.398  34.349  26.572 -0.1147  0.1067 -0.0097
45823W        W88761  32.068  33.808  24.848 -0.0010 -0.0596  0.2618
45824W        W88762  32.048   0.211  23.711 -0.1617 -0.1257  0.0645
45825W        W88763  30.502  34.375  26.474  0.2259 -0.1299  0.0187
45826W        W88764  32.215  34.652  27.590 -0.4275 -0.0903 -0.5131
45827W        W88765  30.695  34.412  24.088 -0.3351  0.2400 -0.0603
45828W        W88766  31.011  33.073  27.612  0.2108 -0.0809 -0.0419
45829W        W88767  32.104   0.604  24.031  0.2903 -0.1522  0.1073
45830W        W88768  31.757  34.191  25.125  0.0240  0.1269 -0.0387
45831W        W88769  29.755   1.003  24.771 -0.1869 -0.4694  0.1745
45832W        W88770  30.573   1.272  24.214  0.1274 -0.3120 -0.0517
45833W        W88771  30.456  33.561  24.490 -0.0787 -0.1111  0.2733
45834W        W88772  33.777  33.172  28.039 -0.1840 -0.1369 -0.0201
45835W        W88773  30.212  32.825  25.266 -0.1973 -0.2385 -0.0497
45836W        W88774  31.845  33.733  25.346  0.2874  0.3271 -0.0936
45837W        W88775  32.162  33.914  26.996 -0.2274 -0.2215 -0.2204
45838W        W88776  32.558  33.952  26.101  0.4243 -0.1331 -0.2471
45839W        W88777  32.890  34.093  27.091  0.1756  0.4686 -0.1338
45840W        W88778  29.883  34.289  25.546  0.2237 -0.2711  0.1101
45841W        W88779  27.915   0.945  27.749 -0.0692  0.2332  0.0574
45842W        W88780  31.544  32.585  25.500 -0.1609  0.1493  0.3038
45843W        W88781  31.055  34.143  23.834  0.6491  0.2003 -0.0874
45844W        W88782  31.086  31.848  23.229 -0.0016 -0.2493  0.0377
45845W        W88783  33.028   0.229  25.881 -0.2937  0.0596 -0.3242
45846W        W88784  32.040  32.469  24.220  0.1686  0.0414 -0.0040
45847W        W88785  31.501  34.414  26.101 -0.1490  0.2197 -0.1938
45848W        W88786  30.190  33.749  23.169  0.2476  0.2029  0.0807
45849W        W88787  30.921   0.379  26.152 -0.1530  0.0068  0.1378
45850W        W88788  31.423  33.063  25.044  0.2112 -0.0175  0.1985
45851W        W88789  29.288  34.270  24.616 -0.0259  0.1233  0.0729
45852W        W88790  31.158   0.028  25.811  0.1067  0.1068 -0.0912
45853W        W88791  31.824  33.336  23.754 -0.2780 -0.0729 -0.1196
45854W        W88792  31.282  34.076  24.676  0.1156 -0.1489  0.1025
45855W        W88793  29.860   0.529  24.003 -0.1939 -0.1192 -0.2193
45856W        W88794  31.570   0.820  25.239  0.1066 -0.2240  0.0910
45857W        W88795  31.255  33.871  26.982 -0.3861 -0.2066  0.3112
45858W        W88796  32.470  33.145  26.620 -0.1068 -0.1625 -0.1679
45859W        W88797  31.732  34.406  24.544  0.0987 -0.0961 -0.1123
45860W        W88798  31.664   0.544  23.720  0.0252 -0.2106 -0.0025
45861W        W88799  30.599  33.031  25.614 -0.2239 -0.0394 -0.4198
45862W        W88800  31.294   0.257  23.535  0.1081 -0.3448 -0.2224
45863W        W88801  32.659   0.542  26.243  0.0078  0.0814  0.2363
45864W        W88802  30.632  33.357  22.873 -0.1361 -0.0860  0.1233
45865W        W88803  29.691  34.103  25.026  0.0918 -0.0994  0.1825
45866W        W88804  31.025  33.727  22.837  0.2124  0.3944  0.2094
45867W        W88805  29.793   0.813  26.349 -0.3647 -0.1962 -0.0254
45868W        W88806  31.230   1.289  26.011  0.0510  0.0459 -0.1297
45869W        W88807  29.644  33.541  24.911 -0.2733 -0.1130 -0.0938
45870W        W88808  32.650  33.663  26.874 -0.0172  0.1340  0.1843
45871W        W88809  31.625  34.623  22.589  0.1927  0.2719 -0.1263
45872W        W88810  29.811  34.605  25.091  0.2040 -0.1500 -0.5144
45873W        W88811  31.368  33.443  23.553  0.0101 -0.0586 -0.3261
45874W        W88812  30.735   0.111  25.484 -0.0182  0.2462 -0.1744
45875W        W88813  33.032  33.636  28.408  0.2985 -0.0429 -0.0881
45876W        W88814  32.101  32.815  26.749  0.2039 -0.0148 -0.0851
45877W        W88815  33.517  32.003  28.089  0.0582 -0.2287 -0.2882
45878W        W88816  31.099  34.578  24.624 -0.3745 -0.0919 -0.0660
45879W        W88817  29.921  32.620  24.803  0.0797  0.1155  0.1135
45880W        W88818  32.381  33.407  24.793 -0.1150  0.1338  0.1480
45881W        W88819  32.492  32.403  26.144  0.2114  0.1475  0.3811
45882W        W88820  30.215   0.570  24.663  0.5622  0.0602 -0.0396
45883W        W88821  28.374   2.264  23.492  0.0856 -0.0939 -0.0086
45884W        W88822  29.615  32.524  27.327  0.2745  0.0576 -0.2420
45885W        W88823  30.291  34.050  27.308 -0.0824 -0.1368  0.0092
45886W        W88824  29.609   0.581  24.482 -0.2166 -0.2255  0.1778
45887W        W88825  30.166  33.937  24.722 -0.0034 -0.1990 -0.1195
45888W        W88826  30.216  34.256  25.085 -0.0768 -0.0831  0.2137
45889W        W88827  29.152  33.274  25.366  0.0425 -0.2638  0.0989
45890W        W88828  31.354  33.503  24.508  0.0958 -0.0947  0.0391
45891W        W88829  30.362  33.511  27.748  0.2760  0.1955  0.2853
45892W        W88830  31.851  32.357  28.001 -0.1598 -0.2438 -0.1543
45893W        W88831  28.957  32.431  25.386 -0.0436  0.1670 -0.1286
45894W        W88832  31.003  34.248  25.093 -0.0663 -0.1528  0.0840
45895W        W88833  31.301  33.526  26.524  0.2802  0.5243 -0.0824
45896W        W88834  32.747  34.227  25.294  0.1872  0.0370 -0.1319
45897W        W88835  31.395   0.307  24.166  0.1472  0.2385  0.1218
45898W        W88836  29.254  33.719  27.730 -0.0787 -0.1533  0.2911
45899W        W88837  30.202  31.604  25.314 -0.0806  0.0451 -0.0740
45900W        W88838  31.918  34.156  26.339 -0.0091 -0.2109 -0.3872
45901W        W88839  30.653  34.573  25.050  0.1745 -0.2528  0.3408
45902W        W88840  30.333  34.617  23.682  0.0229 -0.1835  0.1794
45903W        W88841  31.108   0.482  28.440 -0.0308  0.0630  0.1420
45904W        W88842  29.849  32.896  24.150 -0.0702  0.2514  0.0540
45905W        W88843  31.821   0.894  23.030 -0.2943  0.2603 -0.1116
45906W        W88844  29.636  33.428  26.955 -0.1103 -0.2161 -0.0971
45907W        W88845  31.132   0.670  24.433  0.1942  0.0556 -0.0120
45908W        W88846  30.580   0.522  25.736  0.1640  0.1576  0.1489
45909W        W88847  32.022  34.511  25.733  0.2493  0.1949 -0.2308
45910W        W88848  31.494  34.554  24.943  0.1122  0.2712  0.2559
45911W        W88849  32.107  32.572  25.696 -0.1345  0.2284 -0.0620
45912W        W88850  29.982  33.075  27.813  0.3554  0.0937 -0.0757
45913W        W88851  32.211  33.628  26.541  0.1251 -0.0706 -0.1540
45914W        W88852  33.215  34.435  27.309  0.1721 -0.0650 -0.2071
45915W        W88853  29.636  33.351  28.754  0.1358 -0.0872  0.3034
45916W        W88854  29.317  33.584  31.242 -0.0547  0.0630 -0.1167
45917W        W88855  30.333  33.681  28.295 -0.1391 -0.1028 -0.1187
45918W        W88856  30.900  32.928  29.662 -0.0154 -0.1452 -0.2132
45919W        W88857  30.616  32.332  27.435 -0.0237 -0.1403 -0.1048
45920W        W88858  29.150  32.621  30.490 -0.1812 -0.0035  0.0969
45921W        W88859  32.157   0.146  29.596  0.0213  0.4040 -0.3805
45922W        W88860  29.998   0.386  28.640 -0.1232  0.2514  0.2230
45923W        W88861  31.021  32.892  28.079 -0.0910  0.1448  0.0106
45924W        W88862  32.043  33.184  29.500 -0.1299  0.1014  0.0194
45925W        W88863  31.456  31.686  29.512 -0.0840 -0.1461 -0.2700
45926W        W88864  31.811  31.861  29.899  0.1804 -0.0744 -0.2181
45927W        W88865  29.617  33.928  27.439  0.0634  0.0141 -0.1912
45928W        W88866  28.125  34.309  28.362  0.1925  0.0512  0.0674
45929W        W88867  30.507  33.920  28.695 -0.1892  0.1081  0.2756
45930W        W88868  33.152  32.333  29.228 -0.2832 -0.1663  0.0125
45931W        W88869  33.025  34.494  30.343  0.3879 -0.0435 -0.0067
45932W        W88870  30.770  33.382  29.927  0.0329  0.2148 -0.0007
45933W        W88871  30.925  34.157  28.877  0.0015 -0.1100 -0.2681
45934W        W88872  31.147  33.511  28.454 -0.0104  0.1533  0.1105
45935W        W88873  32.909  33.882  31.085  0.0618  0.4259  0.0093
45936W        W88874  32.025  34.281  29.520  0.0542 -0.2351  0.0146
45937W        W88875  31.132  33.347  27.235  0.2284 -0.0199 -0.0382
45938W        W88876  32.565  33.516  28.625  0.1049 -0.2269 -0.0007
45939W        W88877  31.685  32.815  28.770 -0.2188  0.0509  0.0812
45940W        W88878  30.651  32.277  29.281 -0.2373  0.0017 -0.0870
45941W        W88879  31.475   0.635  29.022  0.2060 -0.3189 -0.0619
45942W        W88880  32.713   0.523  28.904 -0.2078  0.2112 -0.1760
45943W        W88881  29.577  34.243  28.634 -0.2760  0.3083  0.0060
45944W        W88882  29.956   0.824  29.601 -0.3202  0.3146 -0.1070
45945W        W88883  29.728   1.429  30.820 -0.4234 -0.1205 -0.0507
45946W        W88884  29.166  34.030  31.223 -0.2883 -0.1688  0.1869
45947W        W88885  29.857  32.106  26.456  0.0368 -0.1758 -0.4230
45948W        W88886  32.739  32.910  30.129 -0.1419 -0.1324 -0.2185
45949W        W88887  31.703  32.186  30.443 -0.0254 -0.0646 -0.0119
45950W        W88888  33.142  31.460  30.824 -0.0631 -0.1210  0.2503
45951W        W88889  32.209   0.405  28.794 -0.0981 -0.1554  0.0476
45952W        W88890  31.040  33.350  29.370  0.1491 -0.0767  0.3366
45953W        W88891  29.065  33.912  28.121 -0.1351 -0.1314 -0.0101
45954W        W88892  32.870  33.829  27.772  0.1789 -0.0014  0.1165
45955W        W88893  30.600  33.749  29.576  0.1036  0.0365  0.1322
45956W        W88894  32.581  32.206  29.523 -0.0786 -0.2319 -0.2603
45957W        W88895  32.116  34.376  26.771 -0.3027 -0.1028  0.0272
45958W        W88896  27.758  33.854  31.398 -0.0567  0.2923  0.1127
45959W        W88897  28.445  33.432  28.250  0.1503 -0.0724 -0.1362
45960W        W88898  30.218  33.448  30.755 -0.1257  0.0729  0.0072
45961W        W88899  30.000  32.538  29.000 -0.0857 -0.4149 -0.1243
45962W        W88900  31.706  33.720  29.960 -0.1119  0.0325  0.3329
45963W        W88901  30.289  32.023  26.823 -0.1907  0.0734 -0.2187
45964W        W88902  31.753  34.144  29.014  0.0886 -0.0927  0.0300
45965W        W88903  29.633  32.832  29.893 -0.2232  0.1615 -0.0637
45966W        W88904  32.630  33.446  30.066 -0.3448  0.1039 -0.0569
45967W        W88905  31.391  32.705  29.910  0.1443  0.3202 -0.0485
45968W        W88906  28.855  32.027  28.836 -0.1542 -0.1971  0.0263
45969W        W88907  31.182  32.972  26.922 -0.0822  0.0435 -0.3582
45970W        W88908  32.699  31.835  30.631  0.0421  0.1952  0.1600
45971W        W88909  31.006  34.079  29.516  0.1090  0.1653  0.0818
45972W        W88910  31.278  32.249  27.025 -0.0084  0.1657  0.5044
45973W        W88911  28.246   0.016  28.743  0.2226 -0.0569  0.1701
45974W        W88912  34.023  33.869  30.770  0.2948  0.4849 -0.0163
45975W        W88913  29.247  34.498  31.162 -0.0700 -0.3882  0.1528
45976W        W88914  31.249  33.206  29.933  0.1022  0.0030  0.3736
45977W        W88915  29.384  33.779  28.535 -0.0294 -0.0634 -0.0019
45978W        W88916  31.685  33.565  28.294 -0.0172  0.1038 -0.1273
45979W        W88917  32.672  32.185  27.408 -0.2877  0.0226  0.1353
45980W        W88918  32.303  31.852  27.230 -0.3162 -0.0782 -0.1051
45981W        W88919  32.851  32.714  27.889  0.3505 -0.1416  0.1237
45982W        W88920  31.764  34.146  27.451  0.1567  0.1219 -0.1592
45983W        W88921  30.524  32.597  29.696 -0.0381 -0.1422  0.1644
45984W        W88922  29.849   0.713  27.101  0.2033 -0.3357 -0.0268
45985W        W88923  31.851  32.383  28.539  0.0027 -0.1640  0.1491
45986W        W88924  31.565  30.783  29.197 -0.3988 -0.4081  0.1442
45987W        W88925  32.708  32.362  28.284  0.1131 -0.1906  0.3285
45988W        W88926  31.358  33.819  30.591  0.1339 -0.3626  0.2383
45989W        W88927  33.993  33.118  30.833 -0.1448 -0.0630 -0.3127
45990W        W88928  33.128  33.253  29.227 -0.0447  0.2457 -0.1658
45991W        W88929  30.876   1.063  29.523  0.1563 -0.4066  0.2363
45992W        W88930  30.907  33.472  26.786 -0.0632 -0.1045 -0.1187
45993W        W88931  30.712  32.829  31.164 -0.1617 -0.0828 -0.0103
45994W        W88932  31.179  32.982  30.981  0.1124  0.0013 -0.1497
45995W        W88933  31.312  34.353  28.408  0.0371  0.0363  0.2793
45996W        W88934  30.539  33.203  29.486  0.0192 -0.1348  0.1181
45997W        W88935  33.440  31.534  29.540 -0.0152  0.1375  0.0264
45998W        W88936  29.911  33.074  29.064  0.0753  0.3767  0.0747
45999W        W88937  30.174  33.493  28.700  0.0544  0.0408 -0.1938
46000W        W88938  32.295  34.427  28.545  0.2234  0.4255 -0.1781
46001W        W88939  30.080  32.775  29.465  0.0457 -0.1061  0.3456
46002W        W88940  31.266  33.707  29.679  0.1221  0.4328  0.0450
46003W        W88941  31.262   0.738  29.448 -0.1074 -0.1296  0.0531
46004W        W88942  31.134  33.827  27.977 -0.3228 -0.1591 -0.0762
46005W        W88943  30.139  34.065  31.047 -0.0343  0.0903 -0.2858
46006W        W88944  30.289  33.166  28.243 -0.0419 -0.1457 -0.2061
46007W        W88945  32.705  34.426  29.416 -0.1756  0.5310 -0.4609
46008W        W88946  31.480  32.837  29.374  0.1210  0.1329  0.3224
46009W        W88947  29.282  34.582  27.484 -0.1592 -0.0465  0.0601
46010W        W88948  30.599  33.617  31.812 -0.2192 -0.1638 -0.2658
46011W        W88949  31.565  34.545  29.812  0.0423  0.0715 -0.0347
46012W        W88950  30.687  33.265  28.539 -0.0243  0.1139  0.0259
46013W        W88951  29.697  33.494  27.698 -0.0989  0.1472  0.1460
46014W        W88952  31.420   0.008  28.854  0.1289  0.1442 -0.1573
46015W        W88953  30.718  31.638  29.117 -0.3053  0.1295 -0.1014
46016W        W88954  32.506  33.387  29.593 -0.1835 -0.0489  0.3613
46017W        W88955  31.516  33.307  29.513 -0.0760 -0.0428 -0.1271
46018W        W88956  33.460  31.897  29.970  0.3391 -0.3208  0.4227
46019W        W88957  31.853  33.701  28.813  0.1154  0.2472 -0.1973
46020W        W88958  32.801  33.643  30.585  0.4704  0.0136 -0.2030
46021W        W88959  32.436   0.179  29.173 -0.0663  0.1342  0.0955
46022W        W88960  31.528  31.994  31.277 -0.1223 -0.0509  0.2716
46023W        W88961  31.789  33.266  29.101  0.1471 -0.1664  0.3320
46024W        W88962  30.262  33.573  30.047  0.0130  0.1067 -0.2716
46025W        W88963  29.269  33.018   0.025 -0.1192 -0.0517  0.0370
46026W        W88964  32.552  34.212  27.737  0.2738  0.2348  0.2902
46027W        W88965  30.378  31.285  26.386 -0.4756  0.5896  0.0372
46028W        W88966  31.750  33.141  29.951 -0.1963 -0.3411  0.2371
46029W        W88967  32.265  34.009  28.854 -0.1545 -0.2201 -0.1020
46030W        W88968  30.462  34.692  29.333  0.0642 -0.3242 -0.3224
46031W        W88969  31.918  33.906  27.922 -0.1696 -0.2448 -0.2025
46032W        W88970  29.883  32.488  31.798 -0.0376 -0.4513 -0.0099
46033W        W88971  31.496  33.147  27.437 -0.0267 -0.2001  0.0181
46034W        W88972  31.976  33.686  29.521  0.2924  0.1836  0.0749
46035W        W88973  32.167  34.203  30.493  0.0343  0.4012 -0.1052
46036W        W88974  30.558   1.339  30.551  0.0620  0.0332  0.0776
46037W        W88975  29.377  32.481  31.788  0.1167  0.1776  0.3488
46038W        W88976  31.430   1.531  26.427 -0.3041 -0.3383 -0.2884
46039W        W88977  32.400  34.018  29.325  0.2273  0.4562 -0.0462
46040W        W88978  31.840  34.091  28.480  0.1184  0.0246 -0.1547
46041W        W88979  31.371  34.410  29.282 -0.2124 -0.0905  0.1542
46042W        W88980  29.153  32.375  29.058 -0.1228  0.3673  0.1194
46043W        W88981  31.831   0.698  30.349  0.1391 -0.0263 -0.0776
46044W        W88982  29.411  33.372  28.257  0.0145  0.0102 -0.0157
46045W        W88983  32.223  34.315  31.777 -0.2794  0.2458 -0.2618
46046W        W88984  30.926  34.046  28.376 -0.1558  0.0842 -0.1502
46047W        W88985  29.155  33.033  29.581 -0.1043 -0.1362  0.0806
46048W        W88986  30.237  33.059  27.328  0.0969  0.2186  0.2521
46049W        W88987  30.257  34.437  27.770 -0.2121 -0.0657  0.0539
46050W        W88988  30.562  31.604  26.735 -0.1234  0.2723 -0.1772
46051W        W88989  31.780  33.461  30.376 -0.1588 -0.0171  0.3504
46052W        W88990  33.479  32.896  29.564  0.0310 -0.2185  0.0697
46053W        W88991  31.423  32.195  29.999  0.2384 -0.0568  0.2798
46054W        W88992  32.468  32.464  29.929  0.0178 -0.1147  0.1375
46055W        W88993  30.820   1.289  28.824 -0.0357 -0.0261 -0.1090
46056W        W88994  31.719   0.206  31.334 -0.2251 -0.0224 -0.0113
46057W        W88995  30.432  33.712  29.138 -0.0402 -0.0410 -0.2401
46058W        W88996  29.863  33.232  30.153 -0.2153 -0.1146  0.1037
46059W        W88997  31.483  32.792  27.830  0.1029 -0.4128  0.1736
46060W        W88998  29.877  34.400  28.285 -0.0885  0.0090  0.0222
46061W        W88999  31.688  32.843  27.097  0.1073  0.3267 -0.4089
46062W        W89000  33.002  33.658  29.742 -0.0899  0.1100  0.0104
46063W        W89001  32.139  34.461  29.066  0.2197 -0.1081  0.1659
46064W        W89002  31.678  34.192  30.130 -0.0785 -0.2429  0.1863
46065W        W89003  32.188  32.685  28.260 -0.1250  0.1183 -0.0582
46066W        W89004  29.903  33.642  30.435 -0.1283 -0.2100 -0.0305
46067W        W89005  34.140  31.268  31.602 -0.0747 -0.0006  0.5524
46068W        W89006  29.587  33.958  28.079  0.2228 -0.0835 -0.0867
46069W        W89007  30.023  34.107  29.156  0.1939 -0.1961  0.3879
46070W        W89008  33.583  31.451  31.924 -0.0424 -0.1290  0.3819
46071W        W89009  32.068  33.142  28.696  0.2075  0.1416 -0.0447
46072W        W89010  28.490  32.552  27.882 -0.1098 -0.1273  0.0570
46073W        W89011  32.732  33.623  29.079 -0.0641  0.1848  0.1095
46074W        W89012  29.696  32.507  29.375  0.2865  0.2103 -0.2056
46075W        W89013  33.424  33.062  30.571  0.0998  0.0394  0.1053
46076W        W89014  29.313  34.447  28.006  0.2672 -0.2959  0.2584
46077W        W89015  32.319  31.810  29.405  0.4573  0.0899 -0.1725
46078W        W89016  30.581  34.166  29.279  0.2444  0.2071 -0.4286
46079W        W89017  31.124   0.379  27.188  0.0552  0.4333 -0.0043
46080W        W89018  32.710  34.437  28.869  0.0509  0.1504  0.1909
46081W        W89019  31.834   1.903  28.636 -0.1129 -0.1866  0.0186
46082W        W89020  29.916  33.565  29.170  0.0567 -0.0139 -0.0319
46083W        W89021  32.354  33.022  27.961 -0.1013  0.1419  0.3577
46084W        W89022  28.005   0.214  27.348  0.2916  0.0832  0.1065
46085W        W89023  29.960  34.186  30.466  0.1587 -0.2670 -0.3331
46086W        W89024  30.526  33.015  27.684 -0.2024  0.1877 -0.3550
46087W        W89025  32.148  33.510  29.934  0.1712 -0.0035 -0.0539
46088W        W89026  32.495  34.679  28.015 -0.0664  0.4511 -0.0205
46089W        W89027  29.064  33.694  29.304  0.2820 -0.1223  0.0610
46090W        W89028  30.986  32.372  28.312  0.1379 -0.4459  0.0894
46091W        W89029  30.639  32.764  29.256 -0.1740  0.1456  0.1630
46092W        W89030  32.475  34.394  29.853 -0.1228  0.0224 -0.0937
46093W        W89031  32.269  31.991  31.073 -0.1886 -0.0930  0.2282
46094W        W89032  32.732  32.040  31.361  0.0197  0.1696  0.2583
46095W        W89033  31.743   1.075  29.312  0.0789 -0.2464  0.2419
46096W        W89034  29.844  33.118  30.660 -0.0091  0.1958  0.3689
46097W        W89035  32.884  33.200  27.022  0.1932 -0.0011  0.2082
46098W        W89036  32.902  32.708  28.766  0.3171  0.1803  0.0916
46099W        W89037  30.584   1.896  30.703  0.0016 -0.1933 -0.0785
46100W        W89038  29.180  33.110  28.661  0.2791  0.0644 -0.0127
46101W        W89039  31.276  31.537  31.179  0.0248  0.1590  0.2593
46102W        W89040  29.764  33.687  29.908 -0.0292 -0.1368  0.0574
46103W        W89041  29.458  32.811  28.990 -0.1275 -0.1311 -0.0191
46104W        W89042  29.353  33.270  29.140  0.3190  0.1380 -0.4078
46105W        W89043  30.340  32.897  28.858 -0.0224  0.2298 -0.1175
46106W        W89044  28.501  31.645  29.046  0.1098 -0.2184 -0.0267
46107W        W89045  32.100  32.856  29.161 -0.2118  0.0264  0.3738
46108W        W89046  29.491  33.920  30.263  0.3401 -0.3573  0.1498
46109W        W89047  32.686  32.327  29.032  0.0663  0.0861  0.1291
46110W        W89048  30.230  33.142  26.408 -0.0647  0.2636  0.2266
46111W        W89049  31.101  32.466  29.293  0.3506 -0.3261 -0.2985
46112W        W89050  29.145  32.212  31.357  0.1821  0.0487  0.1684
46113W        W89051  34.136  33.649  31.215 -0.1324  0.0234 -0.1811
46114W        W89052  30.615  34.647  27.498 -0.2595  0.1088 -0.2421
46115W        W89053  29.083  32.806  30.047 -0.0153  0.0005  0.0144
46116W        W89054  31.223  32.999  28.561 -0.2435  0.2408  0.1728
46117W        W89055  33.249  32.450  27.681  0.0464  0.0571  0.0825
46118W        W89056  30.095  33.830  29.542 -0.1130 -0.0483 -0.0275
46119W        W89057  31.305  33.324  28.975 -0.0475  0.0450 -0.2569
46120W        W89058  31.253  34.646  30.216 -0.0721 -0.0356 -0.1391
46121W        W89059  29.095  34.258  28.464 -0.1309 -0.1404 -0.0957
46122W        W89060  31.882   1.364  28.229 -0.1389 -0.0564  0.0385
46123W        W89061  30.962  32.442  29.817  0.2708 -0.1667  0.2091
46124W        W89062  28.320  34.551  27.196  0.0466  0.1276 -0.1463
46125W        W89063  30.838  34.547  28.483  0.1878 -0.0595  0.0438
46126W        W89064  32.508  32.709  29.486 -0.0064 -0.1376  0.0635
46127W        W89065  29.630  32.282  29.879  0.1101  0.1908 -0.0433
46128W        W89066  32.490  33.021  28.477  0.0080  0.2746 -0.3785
46129W        W89067  32.080  33.030  30.342  0.1173  0.0466 -0.4326
46130W        W89068  31.510   0.967  30.925 -0.1245  0.0724 -0.0219
46131W        W89069  30.190  34.077  29.978 -0.1013  0.0436 -0.0141
46132W        W89070  32.101  34.006  29.952  0.3381  0.1301  0.0821
46133W        W89071  30.958  33.681  28.885  0.3186  0.0271 -0.1477
46134W        W89072  30.369  33.412   0.263 -0.4656  0.1336  0.2856
46135W        W89073  29.559  32.715   0.232 -0.0418  0.1177 -0.1970
46136W        W89074  33.501  34.496  31.257  0.2165 -0.0890 -0.2210
46137W        W89075  28.850  33.340  31.720 -0.0760 -0.3742 -0.1677
46138W        W89076  29.553  32.172   0.144  0.0443 -0.3006  0.0729
46139W        W89077  29.355  32.278   0.597  0.1857  0.0886  0.4847
46140W        W89078  32.520  32.332  31.797 -0.1011  0.0001  0.0104
46141W        W89079  32.638  32.853  30.788  0.3253  0.2195  0.1588
46142W        W89080  32.134  32.894  30.829  0.1073 -0.0589 -0.4400
46143W        W89081  30.726  33.917  30.039  0.0161 -0.1262 -0.1824
46144W        W89082  29.574  32.645  30.893  0.1773 -0.0715  0.0610
46145W        W89083  30.372  33.926  30.569  0.1327  0.0760 -0.2717
46146W        W89084  30.615  34.162  31.965  0.1498 -0.0473  0.0401
46147W        W89085  31.191  33.212  30.475 -0.4632  0.0068 -0.0427
46148W        W89086  29.260  34.097   0.389  0.0638 -0.2826 -0.2931
46149W        W89087  33.277  33.887  30.706  0.0290 -0.0209  0.0299
46150W        W89088  33.480  34.656  30.524  0.0904  0.2579 -0.2786
46151W        W89089  31.701  32.829  30.623  0.2501 -0.0533  0.2019
46152W        W89090  30.311  32.988  30.828  0.0489 -0.2706 -0.1790
46153W        W89091  29.325  33.135  31.478 -0.3126  0.4197  0.0670
46154W        W89092  30.079  32.815  30.305 -0.1109  0.0815 -0.2112
46155W        W89093  30.752  33.094  31.614  0.0599 -0.2279 -0.1908
46156W        W89094  31.843  31.590  31.288  0.1028  0.1435  0.0977
46157W        W89095  30.739  32.473  31.714 -0.1852 -0.0841  0.0114
46158W        W89096  30.916  34.583   0.065 -0.2428  0.1685 -0.0727
46159W        W89097  31.199  33.629  30.163 -0.1971 -0.0375  0.0055
46160W        W89098  29.963  34.527   1.079 -0.0828 -0.1988  0.0522
46161W        W89099  28.117  31.624  31.500  0.1621 -0.1154  0.1983
46162W        W89100  34.030   0.079  31.843 -0.0581 -0.0690 -0.1716
46163W        W89101  34.182   3.699  20.131  0.0985 -0.3504 -0.0858
46164W        W89102  34.545   1.450  18.025 -0.0479 -0.1758  0.1017
46165W        W89103  32.949   1.073  17.523  0.0833 -0.2488 -0.0520
46166W        W89104  34.054  33.237  19.766  0.3080 -0.0707 -0.0715
46167W        W89105  34.676   1.844  20.369 -0.0161  0.0503  0.1801
46168W        W89106   0.151   3.423  18.915  0.0906  0.2317  0.2529
46169W        W89107  33.213   0.557  16.503 -0.2467 -0.0038  0.1643
46170W        W89108  33.052  33.968  18.842  0.2169 -0.1270 -0.0230
46171W        W89109  34.109   2.333  16.974 -0.1006 -0.1934  0.0691
46172W        W89110  34.042   2.686  19.036  0.2631  0.1793 -0.3395
46173W        W89111  34.531   1.697  17.544 -0.0442  0.1732 -0.0520
46174W        W89112  34.129   1.999  19.571  0.2445  0.1954 -0.1035
46175W        W89113   0.135   4.288  16.886 -0.2611 -0.0842  0.1959
46176W        W89114  32.906   1.963  16.251 -0.1202 -0.1899  0.0677
46177W        W89115  33.225   1.134  18.024 -0.1592 -0.1491 -0.0857
46178W        W89116  34.468   3.697  17.198 -0.1231  0.1023 -0.0916
46179W        W89117   0.501   2.515  16.968 -0.0288  0.0107  0.0404
46180W        W89118   0.327   3.203  18.056  0.5910  0.1171  0.0686
46181W        W89119  34.471   3.014  18.803  0.1799  0.1611  0.0204
46182W        W89120  33.441   4.383  17.157 -0.0815  0.1093  0.1065
46183W        W89121  34.622   3.228  16.930  0.3838  0.2383  0.2407
46184W        W89122  34.248   3.890  19.659  0.0733  0.1869  0.1377
46185W        W89123  34.174   3.472  16.616 -0.0785 -0.0697 -0.2538
46186W        W89124  34.567   4.012  20.085 -0.0298 -0.2863  0.1622
46187W        W89125   0.397   3.915  16.649 -0.2588  0.0078  0.2850
46188W        W89126   1.054   3.074  17.558 -0.0130 -0.0586  0.2643
46189W        W89127  34.340   2.847  20.403 -0.0598 -0.1762 -0.0439
46190W        W89128  34.203   3.694  18.115 -0.2095 -0.1849  0.2642
46191W        W89129  34.182   3.210  17.076  0.2756  0.1400  0.0841
46192W        W89130  34.539   1.141  16.797 -0.1743  0.2830 -0.1009
46193W        W89131  33.537   0.998  17.052  0.3906  0.1368 -0.0565
46194W        W89132  33.255   5.981  18.395  0.0135 -0.2339 -0.2235
46195W        W89133  34.559   0.723  19.035  0.0878 -0.1413 -0.0512
46196W        W89134  32.835   4.703  18.682  0.0175  0.0472  0.0603
46197W        W89135  33.726   2.214  16.501 -0.1899 -0.2671  0.5017
46198W        W89136  31.952   1.754  18.119  0.1353  0.2715 -0.0195
46199W        W89137  33.847   2.752  20.305  0.3220 -0.2449 -0.0115
46200W        W89138  33.431   1.080  18.977  0.0728  0.2400  0.1193
46201W        W89139  34.192   1.957  18.601 -0.1781 -0.2206 -0.1734
46202W        W89140  32.518   2.327  19.514 -0.2416 -0.2069  0.1025
46203W        W89141   0.287   2.545  17.908  0.1996  0.0394  0.2646
46204W        W89142   0.449   1.998  16.834 -0.0355 -0.0236 -0.0054
46205W        W89143  34.356   4.149  16.760 -0.2112 -0.0699 -0.0073
46206W        W89144  33.702   2.844  17.927  0.2589 -0.0442 -0.1554
46207W        W89145  34.494   1.224  20.815  0.1197  0.1207  0.2107
46208W        W89146   1.535   2.919  19.867  0.1546  0.3904  0.3010
46209W        W89147  32.370   2.343  15.835 -0.0683 -0.0296 -0.1151
46210W        W89148  33.798   3.730  17.715 -0.0146  0.2219 -0.0194
46211W        W89149  33.744   1.884  16.915  0.1285 -0.0313 -0.2418
46212W        W89150  33.908   1.049  19.894 -0.2467  0.0511 -0.0879
46213W        W89151  34.327   2.403  18.722 -0.1748 -0.0048  0.1855
46214W        W89152  33.098   1.281  19.415  0.2066  0.1633 -0.2328
46215W        W89153  34.435   2.835  17.170 -0.0050  0.2429  0.0313
46216W        W89154  32.686   1.195  18.704  0.2436 -0.0342  0.1939
46217W        W89155  32.398   1.832  18.087 -0.2507  0.1010  0.0750
46218W        W89156  33.879   1.528  19.963 -0.1050  0.4522 -0.1605
46219W        W89157  33.501   0.208  18.918 -0.0778 -0.2047  0.1347
46220W        W89158  32.520   0.724  16.634  0.0571 -0.1332 -0.0249
46221W        W89159   0.112   2.666  16.772  0.6130 -0.0507  0.0533
46222W        W89160  32.100   2.002  16.728 -0.3799 -0.3283  0.2495
46223W        W89161  33.730   1.722  19.537 -0.1559 -0.1078 -0.4119
46224W        W89162  33.216   0.671  17.544  0.0043  0.0340 -0.1018
46225W        W89163  33.436   3.938  18.090  0.0166  0.2446  0.0017
46226W        W89164   1.648   3.648  18.429  0.0470 -0.2976  0.0239
46227W        W89165  33.793   3.324  17.399  0.2381 -0.0063 -0.1556
46228W        W89166  33.486   2.411  18.232  0.0136  0.3577  0.0161
46229W        W89167  33.725   0.546  17.285  0.0408 -0.0946  0.0188
46230W        W89168  33.513   4.104  17.644 -0.0711 -0.2633  0.0491
46231W        W89169  32.401   1.849  17.474  0.0873 -0.0682  0.0716
46232W        W89170  34.425   4.131  18.010  0.1334  0.2176 -0.4236
46233W        W89171  32.793   2.782  17.499  0.2293 -0.1488  0.2338
46234W        W89172  33.104   1.269  17.027  0.1329  0.1035  0.0090
46235W        W89173  32.480   3.674  18.758  0.0053 -0.1682  0.0511
46236W        W89174  33.715   2.983  19.483 -0.5084 -0.1231  0.3314
46237W        W89175  34.419   3.188  18.027  0.1672  0.2147  0.0015
46238W        W89176   0.882   3.387  18.011  0.0468  0.1365 -0.0214
46239W        W89177   0.177   2.975  19.100 -0.1075 -0.1620  0.1121
46240W        W89178  34.309  34.644  18.775 -0.0568 -0.1792 -0.0080
46241W        W89179  34.605   1.653  16.898  0.0426  0.0877  0.1813
46242W        W89180  32.159   2.666  16.820 -0.4080 -0.2366  0.3027
46243W        W89181   0.247   0.207  18.798  0.1462  0.3744  0.0024
46244W        W89182  34.250   1.953  16.682  0.0633  0.1591  0.2491
46245W        W89183   0.103   0.646  20.481  0.0504 -0.0627 -0.0187
46246W        W89184  34.643   2.490  19.141 -0.0752  0.0751 -0.0673
46247W        W89185  33.464   2.662  19.798 -0.0870 -0.3642  0.0376
46248W        W89186   0.500   1.719  20.366 -0.0556 -0.2899  0.0307
46249W        W89187   0.162   4.431  17.383  0.0355  0.1418 -0.3714
46250W        W89188  34.306   3.873  16.271  0.1698  0.1489 -0.0342
46251W        W89189  33.657   1.364  18.025 -0.4127  0.0936 -0.2026
46252W        W89190  34.671   3.310  18.467 -0.2471 -0.2181 -0.0579
46253W        W89191  33.738   2.789  17.062 -0.0624 -0.4321  0.1539
46254W        W89192  34.072   5.121  17.683  0.0183 -0.2390  0.3667
46255W        W89193  33.375   3.240  17.984 -0.5224  0.0587 -0.0860
46256W        W89194  33.745   1.388  17.271 -0.1581 -0.0469  0.1221
46257W        W89195  34.013   0.502  18.333  0.1378  0.1871 -0.0064
46258W        W89196  34.618   1.773  19.495  0.2834  0.0082  0.0945
46259W        W89197   0.295   1.400  17.807  0.0954  0.1398  0.2842
46260W        W89198  33.199   3.574  18.311 -0.1411  0.0046 -0.1038
46261W        W89199   0.184   2.795  20.323 -0.1868 -0.0572 -0.2381
46262W        W89200  32.685   0.825  17.127  0.1700 -0.1486 -0.2125
46263W        W89201   0.846   2.720  18.682 -0.2092  0.1932 -0.2104
46264W        W89202  34.020   3.765  19.091 -0.1830 -0.0952 -0.0562
46265W        W89203  33.962   0.377  17.760  0.3092 -0.1302  0.0082
46266W        W89204  34.158   2.723  18.375 -0.2023  0.3444 -0.1953
46267W        W89205  33.003   1.682  19.613  0.3807 -0.0957  0.1155
46268W        W89206  34.571   1.162  18.799  0.0122  0.2108 -0.1821
46269W        W89207  34.324   2.562  17.830 -0.4473 -0.0127  0.2632
46270W        W89208   0.611   2.224  18.816  0.1274  0.1506 -0.0487
46271W        W89209  34.295   1.549  19.038 -0.1613 -0.1426 -0.1022
46272W        W89210  33.752   2.953  21.326 -0.4119  0.0089  0.1428
46273W        W89211  33.939   3.285  17.888 -0.0429 -0.0266 -0.0812
46274W        W89212  33.383   0.271  17.904 -0.4479  0.0455  0.0874
46275W        W89213  33.439   2.411  17.729  0.0042  0.0730  0.0978
46276W        W89214   1.245   1.368  21.081 -0.0446  0.0134 -0.4202
46277W        W89215  33.884   2.439  17.402 -0.0271 -0.2147 -0.0120
46278W        W89216  34.099   2.947  17.544 -0.0638 -0.4259  0.2048
46279W        W89217  32.490   3.883  17.640  0.2364  0.1208  0.1474
46280W        W89218   0.130   0.765  17.772 -0.1055  0.1073 -0.1075
46281W        W89219  34.017   1.137  18.399 -0.0784 -0.1671  0.1574
46282W        W89220  33.171   0.563  18.830  0.0016  0.1144  0.0436
46283W        W89221  34.095   3.213  18.428 -0.1311  0.0116 -0.0248
46284W        W89222  33.602   0.878  16.538  0.1859 -0.0941 -0.0104
46285W        W89223  34.078   2.206  18.175  0.0947 -0.1496 -0.1891
46286W        W89224   0.636   2.848  15.611  0.2370 -0.1732 -0.0838
46287W        W89225  33.726   2.841  18.631  0.1390  0.1274  0.0047
46288W        W89226  33.648   1.943  17.860  0.3890 -0.1241 -0.0119
46289W        W89227   0.050   3.967  17.686 -0.0838  0.1352 -0.2726
46290W        W89228   1.163   0.882  19.409  0.0840 -0.0875  0.3749
46291W        W89229  34.580   0.737  20.955 -0.2170  0.2788 -0.1025
46292W        W89230  32.954   1.774  20.142  0.0236 -0.0477  0.0846
46293W        W89231  33.343   1.526  17.636 -0.1300  0.1159 -0.1063
46294W        W89232  34.632   0.808  17.270 -0.0783  0.4824  0.1500
46295W        W89233   1.318   3.510  16.722 -0.1595  0.2086  0.0445
46296W        W89234  33.136   0.972  18.559 -0.0049  0.0411 -0.0168
46297W        W89235  33.880   4.144  19.964  0.1413 -0.0839 -0.2291
46298W        W89236  33.497   1.437  16.176 -0.1373  0.2636 -0.1300
46299W        W89237   0.592   1.304  16.406 -0.0249  0.0954 -0.0641
46300W        W89238   1.157   2.298  18.871  0.1296  0.2902  0.1751
46301W        W89239  34.349   0.037  16.733 -0.1514  0.1833 -0.0725
46302W        W89240  33.780   3.171  16.607  0.2974  0.3143 -0.2086
46303W        W89241   0.082   3.821  19.460  0.0953 -0.0668 -0.1030
46304W        W89242   0.068   3.602  18.027 -0.1754 -0.0657  0.0196
46305W        W89243  34.242   2.968  19.380  0.0308  0.0531 -0.1836
46306W        W89244  33.911   1.522  18.732  0.0828 -0.1325  0.0430
46307W        W89245  32.871   2.742  16.926  0.2833  0.3621 -0.2157
46308W        W89246  33.958   3.972  18.470  0.0848  0.2105  0.3557
46309W        W89247  33.543   1.558  19.091 -0.1548 -0.3133  0.1559
46310W        W89248  33.641   0.801  18.071  0.2344  0.0202  0.0773
46311W        W89249  34.227   2.709  21.651 -0.3350  0.4487 -0.0799
46312W        W89250  33.346   2.853  18.300 -0.4811  0.1616 -0.0932
46313W        W89251  33.292   3.528  16.553 -0.1417 -0.0148 -0.4529
46314W        W89252   1.767   0.447  16.696  0.1508 -0.2633 -0.1799
46315W        W89253  33.672   3.609  18.726 -0.0801  0.2911  0.0161
46316W        W89254  32.851   3.226  16.158  0.2385  0.1623 -0.0347
46317W        W89255  33.026   4.171  17.870  0.1563 -0.0944  0.0366
46318W        W89256  33.849   2.005  19.003  0.2225 -0.2222  0.0939
46319W        W89257  33.355  34.245  17.206  0.0257 -0.1373 -0.0317
46320W        W89258   0.127   3.264  19.479 -0.0354  0.0548  0.0035
46321W        W89259  34.206   4.895  18.699 -0.1966 -0.0969 -0.2242
46322W        W89260  32.921   1.607  17.378 -0.1973 -0.0142  0.1025
46323W        W89261   0.142   2.548  17.382  0.1096 -0.1780  0.3246
46324W        W89262   0.099   3.359  17.435  0.1162 -0.1046  0.0042
46325W        W89263  34.325   5.629  18.318 -0.1222 -0.1945  0.2632
46326W        W89264  34.398   3.468  19.301 -0.0967  0.1592 -0.0327
46327W        W89265   0.149   3.828  18.501 -0.0950 -0.1506 -0.0037
46328W        W89266  32.501   0.453  18.276 -0.1481 -0.2603 -0.2153
46329W        W89267  34.087   2.018  20.938 -0.0405 -0.1784  0.0744
46330W        W89268  33.040   1.700  16.725 -0.1144 -0.2279 -0.2568
46331W        W89269  32.661   1.692  18.734 -0.4213 -0.1034 -0.1065
46332W        W89270  34.042   0.956  17.349 -0.0725 -0.0431 -0.0280
46333W        W89271  32.826   1.738  17.838 -0.0296 -0.2823 -0.0050
46334W        W89272  34.332   2.981  16.528 -0.0215 -0.0287 -0.1683
46335W        W89273   0.454   2.193  19.524  0.0555 -0.1458 -0.0884
46336W        W89274  32.115   0.076  19.311 -0.0295 -0.1657  0.3162
46337W        W89275  34.590   3.704  15.844 -0.1363  0.0635 -0.4259
46338W        W89276  33.305  33.678  18.508 -0.0978  0.1700 -0.3639
46339W        W89277   1.111  34.526  16.790 -0.0310 -0.1076  0.1680
46340W        W89278  33.742   1.965  17.399  0.2914 -0.0259 -0.1791
46341W        W89279  30.721   5.039  18.109  0.1384  0.3892  0.1027
46342W        W89280   0.007   2.775  16.271 -0.1541 -0.1765  0.1775
46343W        W89281  34.354   1.758  19.983 -0.0846 -0.1667  0.2361
46344W        W89282  34.004   3.180  20.146 -0.1258 -0.0855 -0.0761
46345W        W89283  34.044   1.456  16.854 -0.2236 -0.2159  0.0198
46346W        W89284   0.561   3.547  18.427 -0.2454 -0.0752 -0.3755
46347W        W89285  34.630   2.226  16.964 -0.4944  0.0533 -0.1175
46348W        W89286  33.991   3.723  17.167 -0.3285  0.0793 -0.0684
46349W        W89287   0.437   0.961  17.457  0.0725 -0.2430  0.0729
46350W        W89288   0.195   1.070  18.194 -0.1810  0.2048 -0.1681
46351W        W89289   0.567   2.712  19.124  0.0674  0.0069 -0.0457
46352W        W89290  33.384   1.848  16.393 -0.1372 -0.2810 -0.0807
46353W        W89291   0.006   3.268  16.381 -0.2351 -0.2437 -0.2362
46354W        W89292  34.158   1.443  19.581  0.1439 -0.0447 -0.1126
46355W        W89293  33.687   2.466  19.385  0.2260 -0.0298  0.1765
46356W        W89294  33.195   1.983  17.490 -0.1863 -0.2472  0.0862
46357W        W89295  32.976   0.556  18.217 -0.0420 -0.1083  0.0706
46358W        W89296  34.051   1.642  18.125  0.4398 -0.0992 -0.2699
46359W        W89297  33.147  34.682  17.591 -0.2820  0.0630  0.0395
46360W        W89298   0.930   0.853  17.163  0.0024 -0.1093 -0.1941
46361W        W89299  34.242   2.088  16.141 -0.3195 -0.2000 -0.1920
46362W        W89300   0.234   0.820  21.375 -0.1841 -0.3205  0.3910
46363W        W89301  33.754   0.644  19.657  0.0428 -0.1508 -0.3063
46364W        W89302  32.183   1.485  16.640  0.0266  0.0138  0.2090
46365W        W89303  34.663   2.260  19.615  0.1256 -0.0476  0.3318
46366W        W89304  34.205   2.475  19.467  0.2098 -0.1751  0.0905
46367W        W89305  34.597   3.284  20.317  0.2598  0.2218  0.0295
46368W        W89306  34.008   1.173  19.138  0.0302 -0.1069 -0.2829
46369W        W89307  34.359   1.246  20.283 -0.4103 -0.0974  0.1985
46370W        W89308  34.185   0.648  19.408  0.0492 -0.1430  0.2736
46371W        W89309  33.970   2.806  19.823  0.0978  0.1056 -0.1960
46372W        W89310  34.130   0.112  19.678  0.0710 -0.0237 -0.0930
46373W        W89311  32.972   1.943  18.427 -0.0803  0.2305  0.1718
46374W        W89312  34.387   1.329  17.216  0.1981  0.2077 -0.2041
46375W        W89313  34.561   0.465  19.649  0.0544 -0.1830 -0.0862
46376W        W89314   0.169   1.314  17.201 -0.1842 -0.1166  0.1114
46377W        W89315  34.527   4.189  18.489  0.0469 -0.0659 -0.2629
46378W        W89316  33.507   0.394  18.390 -0.2055 -0.1024 -0.3039
46379W        W89317  33.021   2.099  17.020  0.1040 -0.2836 -0.0641
46380W        W89318  34.394   2.342  17.388 -0.0168  0.2178  0.0109
46381W        W89319  34.062   1.481  17.613 -0.3527  0.0217  0.3124
46382W        W89320   0.002   3.547  19.889 -0.1644  0.1650  0.1305
46383W        W89321  32.629   4.264  23.765 -0.3623 -0.1649 -0.2337
46384W        W89322  33.989   1.010  20.808  0.0497  0.1360 -0.1883
46385W        W89323  32.852   1.024  21.312 -0.0657 -0.0394  0.2258
46386W        W89324  33.387  34.363  22.219  0.0019  0.1666 -0.0662
46387W        W89325  34.315   2.117  22.578 -0.1105 -0.0598  0.3248
46388W        W89326  33.215   2.970  22.603 -0.0160 -0.3202 -0.3046
46389W        W89327  33.081  33.746  21.426  0.2469  0.3453 -0.1978
46390W        W89328  33.265  34.655  21.656 -0.3364  0.2474  0.0496
46391W        W89329  33.296   2.759  21.197  0.1454 -0.2243 -0.0724
46392W        W89330  32.817   1.035  22.497 -0.0998  0.0125  0.0823
46393W        W89331  33.960   1.484  20.934 -0.4247  0.4789 -0.1746
46394W        W89332  33.882  34.457  22.383 -0.0283 -0.1402 -0.1950
46395W        W89333  34.033   2.274  21.839 -0.1071  0.2378  0.2580
46396W        W89334  33.883   2.368  18.612  0.1942  0.1396 -0.1407
46397W        W89335  33.515   1.763  21.255  0.0086  0.0759  0.0710
46398W        W89336   0.771   1.129  22.142 -0.0129 -0.1152  0.2025
46399W        W89337  33.954   2.852  22.074  0.1775 -0.0977  0.3542
46400W        W89338  34.480   4.190  22.440  0.0273  0.0199 -0.1685
46401W        W89339  32.462   2.629  21.896  0.0735  0.2587  0.3294
46402W        W89340  32.872   2.624  22.862  0.1758 -0.0408  0.2076
46403W        W89341  34.186   3.295  20.595 -0.1646 -0.2668  0.3062
46404W        W89342   0.703   2.293  23.551 -0.3303 -0.0027  0.0187
46405W        W89343  32.952   4.267  20.252 -0.0683 -0.1983 -0.4573
46406W        W89344  33.330   2.485  22.892 -0.2081 -0.0588  0.2080
46407W        W89345  32.618   2.473  22.314  0.0337  0.0885  0.1148
46408W        W89346  33.909   1.929  22.259 -0.0955 -0.0875 -0.0295
46409W        W89347  33.601   2.671  24.125  0.0183 -0.0666  0.0119
46410W        W89348  33.678   3.016  23.216  0.0875  0.0433  0.0532
46411W        W89349  31.927   4.149  20.629 -0.1260 -0.0139  0.3982
46412W        W89350   0.291   0.540  19.914 -0.3157 -0.1417 -0.1941
46413W        W89351   0.435  34.038  21.218  0.3377 -0.1772 -0.0311
46414W        W89352  34.217   2.875  22.554 -0.0496  0.1975 -0.1364
46415W        W89353  32.705   1.095  21.834  0.1080 -0.0377  0.1319
46416W        W89354  32.548   3.472  22.271 -0.2883 -0.2488  0.1589
46417W        W89355  31.795   2.073  21.561 -0.1857 -0.0197 -0.3068
46418W        W89356  33.238   3.192  20.776 -0.2323  0.0067 -0.0736
46419W        W89357  32.874   1.483  23.002  0.1543  0.0963  0.0651
46420W        W89358  32.541   2.097  22.032 -0.0441  0.1398  0.0886
46421W        W89359  33.588   0.027  19.726  0.1846 -0.2063  0.0436
46422W        W89360  32.579   2.598  24.398 -0.1247  0.2618 -0.0259
46423W        W89361  33.421   2.357  21.630 -0.1204 -0.0598 -0.1494
46424W        W89362   0.123   2.739  19.591  0.0118 -0.1236  0.0644
46425W        W89363  34.525   1.762  21.589 -0.0066  0.2787  0.0227
46426W        W89364  33.675   2.889  22.587  0.0238  0.3191 -0.3692
46427W        W89365  33.379   0.930  23.846 -0.3610  0.0472  0.1284
46428W        W89366   0.115   4.730  23.939 -0.2017 -0.0250  0.2230
46429W        W89367  33.379   5.166  20.757 -0.0586 -0.1135  0.1557
46430W        W89368  32.579   1.596  23.484 -0.1727 -0.0374  0.0904
46431W        W89369  34.115   2.376  20.550 -0.1427 -0.0994  0.1810
46432W        W89370  32.530   0.688  22.281 -0.1313  0.2665  0.2323
46433W        W89371  32.177   3.361  21.569  0.0187  0.0518 -0.0580
46434W        W89372  32.848   0.292  22.320  0.0053 -0.0448 -0.1970
46435W        W89373  33.031   1.387  22.080  0.0301  0.2145 -0.1025
46436W        W89374  33.611   0.791  21.882 -0.0067 -0.1176 -0.3802
46437W        W89375  34.104   1.902  21.455 -0.4679 -0.1237 -0.1822
46438W        W89376  33.817   0.437  23.051  0.0174 -0.2037  0.0820
46439W        W89377  31.938   0.361  22.717 -0.1877  0.4741  0.0196
46440W        W89378  32.220   0.559  21.858  0.0738 -0.0600 -0.0684
46441W        W89379  33.694   1.882  21.705 -0.1356  0.1421  0.0364
46442W        W89380  32.545   2.165  20.144  0.0248 -0.0160  0.1096
46443W        W89381  34.018   0.902  22.279  0.2448  0.2967 -0.1388
46444W        W89382  33.559   0.542  20.144 -0.0459 -0.0322 -0.0938
46445W        W89383  32.564   3.113  23.061 -0.0470 -0.1644 -0.1738
46446W        W89384  33.499   2.713  22.169  0.1957  0.0553 -0.0024
46447W        W89385   0.605   1.236  21.187  0.2320  0.1928 -0.1765
46448W        W89386  31.980   4.875  22.272  0.0284  0.1968  0.1628
46449W        W89387  33.756   0.846  21.424  0.2917 -0.4226  0.1019
46450W        W89388  32.942   2.829  20.851  0.2514 -0.0868  0.0912
46451W        W89389  32.810   2.754  21.375  0.1468  0.2549  0.0161
46452W        W89390   0.570   4.658  22.371  0.0556  0.1845 -0.1031
46453W        W89391   0.225   1.537  23.724  0.4349 -0.1164  0.0023
46454W        W89392  32.703   1.934  19.279  0.2243  0.1423 -0.0474
46455W        W89393  32.125   2.419  23.635  0.6723  0.0560  0.1265
46456W        W89394  33.872   3.683  23.094  0.1712 -0.0224 -0.1566
46457W        W89395   2.460   1.092  21.393  0.0573 -0.0428 -0.1206
46458W        W89396  33.496   2.211  22.075  0.0080  0.1358 -0.1753
46459W        W89397  32.895   2.375  21.918  0.0258 -0.0881 -0.3488
46460W        W89398  34.462  34.613  23.408 -0.0894 -0.3469  0.1200
46461W        W89399  34.673   1.375  19.809 -0.2237  0.0088  0.0089
46462W        W89400  31.765   3.065  21.372  0.1357  0.0286 -0.0211
46463W        W89401  33.975  34.665  23.205  0.0235  0.1164 -0.1687
46464W        W89402  33.567   3.220  20.371 -0.3115  0.0446  0.0380
46465W        W89403  33.047   0.021  24.070 -0.1248 -0.3458  0.1010
46466W        W89404  32.647   2.053  24.116  0.0931 -0.0763  0.1205
46467W        W89405  33.053   3.966  23.704 -0.0761 -0.1253 -0.0378
46468W        W89406  34.337   2.003  23.815  0.0229 -0.0481 -0.0445
46469W        W89407   0.016   3.932  21.916 -0.2311  0.0861  0.1025
46470W        W89408   0.437   1.848  21.001 -0.0748 -0.1966 -0.1172
46471W        W89409  33.721  34.054  22.735 -0.0453 -0.0237  0.1966
46472W        W89410   0.588   3.233  23.210 -0.0701 -0.1780  0.1471
46473W        W89411  34.009   3.232  18.885  0.1632 -0.1200 -0.0171
46474W        W89412  32.645   3.028  22.572 -0.1731  0.2410  0.3363
46475W        W89413  31.077   2.235  23.258 -0.1851 -0.0692  0.0048
46476W        W89414  33.947   1.465  21.406 -0.0560 -0.0185  0.1294
46477W        W89415  33.170   1.976  21.761 -0.1711 -0.1217  0.1350
46478W        W89416  32.039  34.614  22.191 -0.1345 -0.1524 -0.2524
46479W        W89417  33.586   0.707  22.463  0.0691  0.4236 -0.3570
46480W        W89418  33.067   3.209  23.041 -0.0372 -0.1257 -0.1305
46481W        W89419  34.592   0.686  23.502 -0.4259 -0.0787  0.0395
46482W        W89420  32.632   2.483  20.523 -0.1444 -0.1576  0.2037
46483W        W89421   0.260   1.487  21.977  0.1362  0.0486  0.1633
46484W        W89422  34.005   2.723  20.892 -0.3323 -0.2307 -0.2421
46485W        W89423  34.660   2.716  20.793 -0.1421 -0.3817  0.0638
46486W        W89424  32.146   3.146  22.632  0.0320  0.1047 -0.1282
46487W        W89425  33.531   1.527  24.969  0.0068 -0.0630  0.1077
46488W        W89426   0.968   1.257  23.104  0.1438 -0.0269 -0.2153
46489W        W89427  32.374   0.902  21.138 -0.1077 -0.1350  0.2389
46490W        W89428   0.693   2.434  22.990  0.3443 -0.1125 -0.0379
46491W        W89429   0.096   1.141  23.345 -0.1927 -0.0123 -0.4938
46492W        W89430   0.359   4.105  23.028 -0.3498  0.0200 -0.1207
46493W        W89431  33.992   2.325  20.044 -0.0841 -0.1284  0.0558
46494W        W89432  33.448   3.461  23.294 -0.0829  0.0466  0.0195
46495W        W89433  34.403   2.534  22.167 -0.0462  0.2315 -0.1698
46496W        W89434  34.089   0.763  22.783 -0.3113  0.2789  0.2311
46497W        W89435  32.671   3.990  23.335 -0.0195  0.0978 -0.0927
46498W        W89436  34.424   3.032  19.833  0.0885  0.0514 -0.1105
46499W        W89437  31.872   3.766  23.558  0.0683 -0.0949 -0.0205
46500W        W89438   0.567   1.136  21.708  0.1021 -0.0012  0.3703
46501W        W89439  32.401   1.081  23.892 -0.1170  0.1744 -0.2247
46502W        W89440  33.496   2.058  23.584 -0.0566  0.1833 -0.2722
46503W        W89441  34.551   1.334  22.964 -0.0749  0.1577  0.2109
46504W        W89442  33.634   0.342  21.490 -0.0749 -0.1467 -0.1129
46505W        W89443   1.772   2.692  23.672  0.0124 -0.1873 -0.0273
46506W        W89444   0.777   1.965  21.524 -0.0252 -0.0416 -0.0317
46507W        W89445  32.845   2.036  22.711 -0.2037  0.1425  0.2862
46508W        W89446   0.476   2.843  20.802 -0.1288  0.0166 -0.0688
46509W        W89447  33.482   1.278  22.454  0.1638 -0.2708 -0.1449
46510W        W89448  33.686   1.742  23.155 -0.0073 -0.0578  0.0945
46511W        W89449   1.002   2.251  22.618 -0.1341  0.0867 -0.1017
46512W        W89450  33.060   1.756  24.279 -0.4699 -0.0360  0.3230
46513W        W89451  33.890   1.375  22.159 -0.1082  0.2443  0.0657
46514W        W89452  33.990   0.362  18.876 -0.1659  0.1114  0.1081
46515W        W89453   0.904   3.149  21.350  0.3283  0.0078 -0.0538
46516W        W89454  33.039   0.400  21.776 -0.0271 -0.0228  0.0662
46517W        W89455  33.224   3.506  23.754 -0.1513  0.0789  0.0151
46518W        W89456  33.302   0.879  19.882 -0.2316 -0.2612 -0.0943
46519W        W89457  33.581   1.115  19.468 -0.0737 -0.1274  0.0502
46520W        W89458   0.254   1.636  23.231 -0.1142  0.1377  0.0523
46521W        W89459  34.304   1.153  21.268 -0.2697  0.0043  0.1714
46522W        W89460  32.566   3.107  21.140  0.3266 -0.0951 -0.1393
46523W        W89461  32.825   4.461  22.858  0.3401 -0.2205  0.1212
46524W        W89462  32.199   2.973  24.380 -0.0762  0.1609  0.4559
46525W        W89463  32.986   3.100  24.007 -0.2448  0.0641 -0.2299
46526W        W89464  33.638   1.714  22.644 -0.0990 -0.1011 -0.1849
46527W        W89465  32.316   2.149  22.485  0.0118 -0.0177 -0.0553
46528W        W89466  34.685   2.756  22.910 -0.0898  0.0791 -0.1981
46529W        W89467  31.434   0.119  22.979  0.1126  0.0344  0.2461
46530W        W89468  34.685   1.102  21.684 -0.1987 -0.1658  0.1750
46531W        W89469  33.715   3.580  25.766  0.0614 -0.0413  0.1711
46532W        W89470  31.997   3.365  23.912  0.1524 -0.3117  0.3220
46533W        W89471  33.835   4.893  20.908 -0.2738 -0.3555  0.2996
46534W        W89472  34.304   1.696  20.619 -0.2063  0.0860 -0.2326
46535W        W89473  32.884   2.925  22.166 -0.3157  0.0041  0.3399
46536W        W89474  32.262   3.846  19.571  0.1800 -0.1093 -0.0577
46537W        W89475  33.096   2.509  22.377  0.2669 -0.2725 -0.1504
46538W        W89476  34.691   1.839  22.827 -0.1602 -0.0399 -0.0899
46539W        W89477   0.653  34.508  20.270  0.2803 -0.1725  0.3069
46540W        W89478   0.901   3.026  24.402  0.1357 -0.1795  0.1522
46541W        W89479  34.287   2.962  23.349 -0.1035  0.0586  0.2691
46542W        W89480  33.546   2.627  20.800 -0.1984 -0.1330  0.3263
46543W        W89481  34.257   1.617  22.445  0.2310  0.0639  0.0125
46544W        W89482  33.444   3.621  20.712 -0.0428  0.1559 -0.0728
46545W        W89483  33.800   3.590  21.558  0.0421  0.0417  0.3136
46546W        W89484  34.378   3.147  22.112  0.0011  0.1807 -0.0488
46547W        W89485  34.520   3.205  22.757 -0.2784  0.0187 -0.0003
46548W        W89486  34.046   0.553  21.125 -0.0580 -0.4133  0.1960
46549W        W89487  33.217   2.632  23.750 -0.1390  0.0653  0.3197
46550W        W89488  32.608   1.675  22.375  0.0034  0.0374  0.2097
46551W        W89489  34.176   1.740  22.933  0.0215 -0.0614 -0.0787
46552W        W89490   0.984   0.916  21.391 -0.3542 -0.0515 -0.0762
46553W        W89491  33.951   1.322  22.730 -0.1999 -0.3368  0.4560
46554W        W89492  34.490   1.334  22.087 -0.2708  0.2851 -0.2237
46555W        W89493  33.343   2.062  22.520  0.2541 -0.2024 -0.0108
46556W        W89494  34.387   1.042  22.550  0.0201  0.2433 -0.0332
46557W        W89495  34.024   3.572  21.021  0.1420  0.2243  0.0806
46558W        W89496  32.066   1.709  21.222  0.0875 -0.0965  0.0612
46559W        W89497  33.306   1.179  21.250  0.0174 -0.0949  0.2359
46560W        W89498  32.977   1.995  22.229  0.2348 -0.1142  0.0798
46561W        W89499  32.499   3.768  20.822 -0.1121  0.0873 -0.1602
46562W        W89500   0.741   2.572  20.326 -0.4116 -0.0001  0.0223
46563W        W89501   1.652   3.202  23.699  0.3757  0.0712  0.1071
46564W        W89502  34.016   2.099  23.390  0.0308 -0.0134  0.1288
46565W        W89503  33.251   2.785  20.434  0.1313 -0.0481  0.0323
46566W        W89504   0.925   1.820  23.732  0.1118  0.2484 -0.0022
46567W        W89505  33.121   1.860  20.956  0.0765  0.3346 -0.0237
46568W        W89506  33.013   3.259  21.348 -0.2507  0.1778 -0.0421
46569W        W89507   1.516   0.489  22.088 -0.0085  0.2022 -0.0493
46570W        W89508  34.105   0.035  23.812  0.0400  0.2778  0.1910
46571W        W89509  34.388   2.202  23.046 -0.0630  0.1215  0.4556
46572W        W89510  32.349   3.069  20.637 -0.1394  0.0509  0.4771
46573W        W89511   0.339   2.388  20.001 -0.0138  0.0526 -0.2246
46574W        W89512  32.053   2.197  22.078  0.0589  0.1532  0.1660
46575W        W89513  33.931   2.146  22.843  0.1916 -0.0229  0.1063
46576W        W89514  31.995   0.813  22.199 -0.1324 -0.2085 -0.0198
46577W        W89515  33.587   2.316  20.321  0.0411  0.3350  0.1318
46578W        W89516  34.180   1.088  21.761  0.0127  0.1037  0.0563
46579W        W89517  32.516   0.200  21.914 -0.0241  0.1696 -0.1624
46580W        W89518  34.496   2.592  19.905 -0.3770 -0.1269  0.3833
46581W        W89519  33.113   3.381  20.303  0.2043  0.1225  0.2233
46582W        W89520  33.884   0.890  23.460  0.3946 -0.0861 -0.0676
46583W        W89521  33.838   1.728  24.155  0.1569 -0.1721 -0.0158
46584W        W89522  33.138   2.985  19.984 -0.1253  0.0834 -0.0716
46585W        W89523  33.805   2.366  21.258  0.1904 -0.1286 -0.1927
46586W        W89524  33.800   3.059  25.094  0.3445  0.1827  0.1098
46587W        W89525  34.262   3.404  23.241 -0.5828  0.1418 -0.1099
46588W        W89526  32.944  34.624  22.025  0.1350 -0.0163  0.0919
46589W        W89527  33.849   3.370  23.493 -0.1825  0.1200 -0.1207
46590W        W89528  32.627   2.146  24.659  0.0324  0.4712 -0.2765
46591W        W89529  33.419   3.043  23.642  0.0474 -0.2079 -0.1031
46592W        W89530  32.831   0.217  21.328 -0.1621 -0.2505  0.0675
46593W        W89531  33.440   1.721  22.147 -0.3159 -0.0860 -0.0371
46594W        W89532   1.631  34.361  21.057  0.2383 -0.2641  0.3558
46595W        W89533  34.449   1.659  23.363  0.0205 -0.1836  0.1204
46596W        W89534   1.388   1.855  21.277 -0.1735  0.2699 -0.2775
46597W        W89535   0.216   3.502  22.944 -0.2634 -0.1823 -0.0795
46598W        W89536  33.401   0.375  22.113  0.0247 -0.1371 -0.0961
46599W        W89537   0.324   2.448  22.147  0.2676 -0.2107 -0.2194
46600W        W89538   1.116   1.024  21.830  0.2025  0.0777 -0.0094
46601W        W89539  34.442   0.801  22.048 -0.0034  0.0790  0.0147
46602W        W89540   0.236   3.445  21.856  0.1769  0.0398 -0.0412
46603W        W89541  34.101   1.514  26.183 -0.0734 -0.1354 -0.1401
46604W        W89542  34.024   1.924  24.760 -0.2967 -0.0476  0.1581
46605W        W89543  32.751   0.481  24.640  0.0885  0.0406 -0.3209
46606W        W89544  33.436  34.022  26.906  0.3589  0.3521 -0.0726
46607W        W89545   0.131   1.558  26.456  0.0238  0.2044 -0.2713
46608W        W89546  33.385   3.557  27.171 -0.2075 -0.0081  0.2443
46609W        W89547   0.414   0.900  24.312 -0.0195  0.2828  0.1319
46610W        W89548  32.854   0.957  28.035 -0.0028  0.3111 -0.1870
46611W        W89549  33.083   2.248  25.317  0.1334 -0.2139  0.0024
46612W        W89550  34.314   3.003  27.108 -0.2466  0.0017 -0.2794
46613W        W89551  34.256   0.475  25.854 -0.2404 -0.4382  0.0871
46614W        W89552   0.474   0.578  27.348  0.0544  0.1349 -0.2350
46615W        W89553   1.165   2.631  24.257  0.2256  0.0962  0.3207
46616W        W89554  34.094   1.308  23.221 -0.1490  0.1222 -0.1579
46617W        W89555  31.764   0.535  25.634 -0.1291 -0.2682  0.0492
46618W        W89556  34.112   2.376  26.605 -0.2656  0.1213  0.0651
46619W        W89557  33.446   3.900  27.488 -0.0093 -0.1633  0.0739
46620W        W89558   2.419   1.788  26.778  0.0142  0.1708 -0.1329
46621W        W89559  33.261   3.086  25.045 -0.3714 -0.0318  0.2920
46622W        W89560  32.903   3.603  25.762  0.1274  0.1089  0.0740
46623W        W89561   0.103   4.168  24.737  0.4142  0.3176  0.3177
46624W        W89562  33.250   2.889  28.245  0.1667  0.2369 -0.0541
46625W        W89563  32.736   3.512  23.471  0.0025  0.1470 -0.2334
46626W        W89564  34.605   3.163  26.623 -0.0873 -0.0302 -0.0753
46627W        W89565  34.458   3.815  24.383  0.2093 -0.0099  0.1124
46628W        W89566  34.613   0.765  26.175  0.1430 -0.1469 -0.2556
46629W        W89567   0.171   2.600  27.543  0.1893 -0.2566  0.0394
46630W        W89568  33.862   2.274  24.410 -0.1394 -0.1434  0.1609
46631W        W89569  34.653   3.297  24.321  0.1368 -0.0725 -0.0196
46632W        W89570  33.472   1.841  24.607  0.1304 -0.0409  0.1339
46633W        W89571  33.598   1.387  26.334  0.3275  0.3734  0.3084
46634W        W89572  33.286   4.205  26.326  0.0279 -0.1614 -0.1278
46635W        W89573  33.630   0.119  27.672  0.0661 -0.0026 -0.0876
46636W        W89574  33.172   3.129  27.343 -0.2166  0.0166  0.1061
46637W        W89575  33.914   1.204  25.273  0.0429  0.4292 -0.1776
46638W        W89576  34.532   2.815  24.372 -0.0073 -0.0590 -0.0750
46639W        W89577  33.758   2.855  28.198  0.0289  0.1081  0.1874
46640W        W89578  34.540   2.311  26.172 -0.0123 -0.2629  0.0191
46641W        W89579  33.556   1.275  23.430  0.0475  0.1871 -0.3633
46642W        W89580  32.397   4.281  27.815  0.2638 -0.3601  0.0972
46643W        W89581   0.094   2.836  26.211  0.0255 -0.1421 -0.1263
46644W        W89582  34.407   1.906  26.506 -0.3846  0.1077 -0.0672
46645W        W89583  34.348   3.360  25.002 -0.0510 -0.0838  0.0116
46646W        W89584  33.001   3.829  26.224 -0.0548  0.1740  0.2377
46647W        W89585   0.105   1.300  27.788 -0.0135  0.1540 -0.3101
46648W        W89586   1.874   1.439  27.623  0.0510 -0.3404  0.1097
46649W        W89587  33.087   4.483  23.952  0.0936  0.2981 -0.3179
46650W        W89588  33.861   2.230  23.915  0.1006  0.0093 -0.1602
46651W        W89589  32.691   3.088  24.399  0.4964 -0.0924  0.1275
46652W        W89590  33.053   0.874  27.518 -0.7333 -0.1549 -0.0943
46653W        W89591  34.500   2.685  26.585  0.1595 -0.0620 -0.0125
46654W        W89592  32.032   1.155  26.629  0.2606 -0.1480  0.2634
46655W        W89593  33.471   1.982  25.068 -0.1254 -0.0266 -0.1770
46656W        W89594  32.681   0.583  25.263  0.0693  0.0805  0.4359
46657W        W89595  33.693   1.397  25.757  0.2046 -0.0924  0.0426
46658W        W89596  33.677   2.525  26.793  0.3331 -0.1679  0.2288
46659W        W89597  33.828   0.878  25.738  0.3662 -0.0021 -0.0412
46660W        W89598  32.299   0.461  23.020  0.4066 -0.1770  0.0005
46661W        W89599   1.386   2.459  24.799 -0.0483  0.0405 -0.1559
46662W        W89600  31.792   2.569  24.410 -0.4179  0.0824  0.2734
46663W        W89601  33.199   1.638  26.709  0.0053  0.1173 -0.1984
46664W        W89602  33.794   0.013  24.704  0.0629 -0.2200 -0.2167
46665W        W89603  33.139   3.950  25.358  0.1759  0.2990  0.1655
46666W        W89604  34.123   3.527  24.581 -0.1658 -0.2966  0.0768
46667W        W89605  34.288   1.836  24.304 -0.2244 -0.1743 -0.0580
46668W        W89606  34.135   2.456  29.589 -0.1620  0.2270  0.0384
46669W        W89607  32.051   0.985  24.422 -0.1683  0.0984  0.0494
46670W        W89608  31.965   4.467  25.040 -0.1964  0.1000 -0.0231
46671W        W89609  34.093   2.807  24.186  0.0286 -0.1719  0.0976
46672W        W89610   0.283   4.130  25.825  0.1698  0.1094  0.1078
46673W        W89611  33.331   1.204  27.222  0.1860 -0.1448  0.0058
46674W        W89612  33.066   0.496  23.634 -0.2790  0.0243  0.1217
46675W        W89613  31.089   1.773  27.352  0.0519  0.0311  0.3267
46676W        W89614  33.340   2.017  27.760 -0.3549 -0.2777  0.2558
46677W        W89615   0.519   2.490  26.773 -0.0662  0.1458  0.1439
46678W        W89616   0.561   2.278  27.190 -0.4045  0.1013 -0.1962
46679W        W89617  33.159   2.821  24.588  0.1042  0.1435 -0.0822
46680W        W89618   0.425  34.609  26.600  0.1238 -0.0138  0.1110
46681W        W89619  34.243   2.481  23.725  0.0860 -0.0977  0.0698
46682W        W89620  31.684   3.533  24.286  0.0096 -0.0101 -0.1192
46683W        W89621  34.075  34.542  27.575  0.1249  0.0421  0.0767
46684W        W89622  33.271   1.101  25.284  0.0182 -0.3733  0.0545
46685W        W89623   0.348   1.017  26.373  0.4348  0.0161 -0.2071
46686W        W89624  33.626   3.331  28.187  0.0211 -0.2968 -0.2015
46687W        W89625  32.637   2.817  26.361 -0.0311  0.0417 -0.1589
46688W        W89626  34.526   0.894  27.888  0.2990  0.0064  0.0559
46689W        W89627  34.610   5.218  24.096 -0.1335  0.0825  0.0337
46690W        W89628  34.541   3.227  25.629  0.1207  0.2057 -0.0916
46691W        W89629  34.431   0.433  26.817  0.0117 -0.0010  0.0705
46692W        W89630  34.410   2.690  25.698  0.0524 -0.0335 -0.0664
46693W        W89631   0.517   2.113  24.538 -0.1107  0.0121  0.0758
46694W        W89632  33.257   3.749  24.271  0.1813  0.1791 -0.0594
46695W        W89633  33.524   2.355  26.302  0.2170 -0.3325  0.0332
46696W        W89634  34.178   0.814  24.402  0.4040 -0.2031  0.2217
46697W        W89635  31.800   1.500  25.434 -0.5275 -0.0685 -0.2595
46698W        W89636  32.869   1.966  26.863 -0.0854  0.0353  0.0208
46699W        W89637   0.114   1.105  24.703  0.0457 -0.0863 -0.1403
46700W        W89638  30.947   1.705  26.095  0.2847 -0.1150  0.0517
46701W        W89639   0.740   2.719  28.051 -0.0161  0.1966 -0.0914
46702W        W89640  31.460   1.419  22.663 -0.0837 -0.0849  0.0490
46703W        W89641  33.725   1.218  26.815 -0.1702 -0.2249  0.1604
46704W        W89642  32.037   3.895  25.720 -0.1260  0.2484  0.1061
46705W        W89643  33.653   3.149  24.511  0.2448 -0.0943 -0.1872
46706W        W89644  34.647   3.747  25.741  0.0984 -0.0003  0.0492
46707W        W89645  34.493   0.197  27.916  0.0315 -0.0061 -0.0704
46708W        W89646  34.102   1.018  24.846 -0.1981 -0.2924  0.1569
46709W        W89647  34.250   0.315  24.721 -0.0901 -0.0615  0.2906
46710W        W89648  34.305   3.103  26.188  0.4384  0.0636 -0.1273
46711W        W89649  34.228  34.624  25.948  0.0570  0.2581  0.2475
46712W        W89650  34.322   1.204  26.948  0.1505  0.0390 -0.2707
46713W        W89651   0.388   2.939  24.094 -0.0119  0.1126  0.3130
46714W        W89652  33.512   1.865  25.541  0.1261 -0.1810 -0.3109
46715W        W89653   0.245   3.801  26.208 -0.0657 -0.1845 -0.4267
46716W        W89654   0.095   2.309  26.608 -0.2183 -0.0830  0.4241
46717W        W89655  33.403   3.403  26.545  0.5262 -0.1565 -0.0280
46718W        W89656  34.343   2.369  24.283  0.1769 -0.1184  0.0844
46719W        W89657  33.165   2.622  26.478  0.0210  0.0162 -0.2219
46720W        W89658   0.165   2.282  24.962  0.1792 -0.1269 -0.0993
46721W        W89659  33.571  34.454  26.560  0.0577  0.0277  0.2192
46722W        W89660  31.697   2.276  25.808  0.4759  0.1757  0.1371
46723W        W89661  33.487   2.654  27.330  0.0322  0.0708  0.0520
46724W        W89662  32.664   1.572  23.945 -0.0418  0.2642 -0.1945
46725W        W89663   0.575   1.337  26.717 -0.0459  0.0740 -0.0359
46726W        W89664   0.780   2.837  26.073 -0.0778 -0.1439  0.3568
46727W        W89665  33.478   1.825  26.096 -0.3141  0.1564 -0.1348
46728W        W89666  33.842   2.133  25.358  0.0404 -0.0683 -0.0641
46729W        W89667   0.171   2.516  25.788  0.1918 -0.2595  0.3059
46730W        W89668  32.395   1.124  27.122  0.0570  0.0456  0.0923
46731W        W89669  34.408   2.345  27.078  0.0834 -0.0463  0.2005
46732W        W89670  32.387   2.054  26.784  0.0718 -0.4280 -0.0033
46733W        W89671  34.396   1.322  26.501 -0.0259  0.2172 -0.4207
46734W        W89672  33.917   1.642  23.614  0.2269  0.1041 -0.0388
46735W        W89673   0.092   4.171  25.272  0.4048 -0.2677  0.0969
46736W        W89674  32.803   1.221  25.300  0.1068  0.0096 -0.3075
46737W        W89675  33.596   3.355  27.579  0.2402  0.1459  0.0302
46738W        W89676  33.004   2.212  23.205 -0.1238  0.3134  0.0228
46739W        W89677   0.116   2.172  24.324 -0.2303  0.0187  0.1758
46740W        W89678   0.112   2.654  27.031 -0.1817 -0.0539 -0.2318
46741W        W89679   0.160  33.840  24.756  0.0394 -0.2045 -0.2089
46742W        W89680  33.445   3.577  24.795 -0.0728 -0.1353  0.1116
46743W        W89681  33.570   3.063  25.539 -0.2641 -0.3805  0.1459
46744W        W89682  33.722   1.618  27.055 -0.0961 -0.1516 -0.0473
46745W        W89683  34.322   4.070  25.483  0.0514  0.0588  0.0441
46746W        W89684  34.486   0.725  24.943 -0.1445 -0.0731 -0.0655
46747W        W89685  33.997   2.508  24.990 -0.1614  0.2620  0.1269
46748W        W89686  33.807   3.272  26.798  0.0558 -0.0007 -0.0681
46749W        W89687  31.470   0.732  25.951 -0.0235 -0.2681  0.0511
46750W        W89688  33.563   0.198  25.787 -0.0862 -0.1340 -0.1181
46751W        W89689  34.347   3.226  29.532  0.2873 -0.1627  0.0912
46752W        W89690  32.824   1.899  27.853 -0.2813 -0.3505  0.1088
46753W        W89691  33.504   4.040  25.024 -0.1436 -0.1348 -0.3404
46754W        W89692   0.488   2.449  24.134 -0.0930 -0.2309  0.0110
46755W        W89693  33.826   3.305  26.206  0.0594  0.1034  0.1528
46756W        W89694  33.044   3.948  24.722  0.0416  0.1510 -0.2527
46757W        W89695  33.659   3.759  26.253 -0.0891  0.0111 -0.0991
46758W        W89696  34.163   2.270  25.720 -0.1503 -0.2504 -0.2366
46759W        W89697   0.871   2.573  24.630  0.0190  0.0589 -0.0744
46760W        W89698  34.383   2.331  27.625 -0.4387 -0.0285  0.0066
46761W        W89699  33.257   4.520  28.487  0.0842  0.1160  0.1304
46762W        W89700  32.603   0.944  24.372 -0.1605  0.0935  0.0882
46763W        W89701  34.504   2.312  25.267 -0.1101 -0.0271  0.1416
46764W        W89702   1.030   1.305  23.830  0.0002  0.2515 -0.0990
46765W        W89703  33.376   4.416  23.562 -0.1036  0.2350 -0.0189
46766W        W89704  34.489   0.151  26.415  0.1440 -0.1332  0.1495
46767W        W89705  34.261   3.564  25.999  0.0050  0.0738 -0.2064
46768W        W89706  32.617   2.054  25.194  0.1989  0.1523  0.1136
46769W        W89707  32.174   1.631  27.252  0.0452  0.3011  0.0798
46770W        W89708  34.539   1.201  24.291  0.0758 -0.2607 -0.0215
46771W        W89709  31.575   1.103  26.797  0.1974 -0.0646 -0.0987
46772W        W89710   0.074   1.983  23.571 -0.1828  0.2022  0.2560
46773W        W89711  34.183   0.794  25.434  0.0319 -0.2858 -0.4748
46774W        W89712  33.614   2.274  25.789 -0.1700  0.2131  0.0373
46775W        W89713   0.087   2.092  27.469  0.0211  0.1121  0.0063
46776W        W89714  33.023   1.722  25.321  0.0845  0.0076 -0.0115
46777W        W89715  34.180   4.024  23.347  0.1265  0.0745  0.0696
46778W        W89716  32.664   2.331  26.541  0.1783  0.3146 -0.1162
46779W        W89717  34.560   0.856  26.667  0.0554 -0.0549 -0.0223
46780W        W89718   0.192   3.984  26.691  0.1998  0.0263 -0.2000
46781W        W89719  34.119   3.275  24.023  0.3230 -0.1078  0.1414
46782W        W89720   1.624   2.422  24.171  0.2059 -0.0905 -0.0940
46783W        W89721  33.785   2.022  27.816 -0.1497  0.0604 -0.0273
46784W        W89722  33.611   3.903  28.355 -0.1633 -0.1942  0.3090
46785W        W89723  34.153   3.623  25.435 -0.1848  0.0407  0.1997
46786W        W89724   0.516   1.884  26.531  0.2313  0.1188 -0.1631
46787W        W89725   0.404   3.571  25.827  0.0568  0.1145  0.3354
46788W        W89726   0.020   3.223  23.443  0.0401 -0.2643  0.1711
46789W        W89727   0.673   0.720  25.209 -0.1932 -0.0597  0.1139
46790W        W89728  34.522   0.730  24.008  0.3655 -0.3379 -0.1381
46791W        W89729  34.098   2.975  26.639 -0.0977  0.1584  0.0811
46792W        W89730  33.972   1.779  25.708 -0.2041  0.0136 -0.2212
46793W        W89731  33.637   2.606  24.680 -0.0393 -0.0264  0.2088
46794W        W89732  33.842   2.657  25.534  0.0206 -0.0878  0.1825
46795W        W89733  33.863   0.456  27.194  0.1341  0.2569 -0.0044
46796W        W89734  32.706   2.546  24.912 -0.4338  0.0573  0.2048
46797W        W89735  32.875   0.804  23.973  0.0337 -0.0134  0.0818
46798W        W89736  33.101   0.730  25.685 -0.0248 -0.1019  0.0176
46799W        W89737  32.225   0.730  25.985 -0.0590 -0.0523 -0.1015
46800W        W89738   0.095   1.644  24.259  0.0101 -0.1473  0.1935
46801W        W89739  33.904   2.389  22.349 -0.0388 -0.2561 -0.1456
46802W        W89740   1.473   1.531  26.691  0.2489 -0.1049 -0.0413
46803W        W89741   0.690   0.032  27.117 -0.1028 -0.1780 -0.1636
46804W        W89742  32.691   1.015  23.015 -0.0127  0.1881 -0.2222
46805W        W89743  34.005   2.027  26.191  0.0128  0.1857  0.2025
46806W        W89744  34.192   2.829  27.708  0.0762 -0.0103 -0.2739
46807W        W89745   0.173   3.108  27.303 -0.2888 -0.0953 -0.0365
46808W        W89746  33.105  34.378  26.723 -0.0874 -0.0603 -0.3334
46809W        W89747   0.276   2.635  28.432 -0.0449  0.2173  0.2870
46810W        W89748   0.111   1.837  26.868 -0.0117 -0.2868 -0.1362
46811W        W89749  34.074   2.711  28.552  0.3540 -0.0440  0.0070
46812W        W89750  33.109  34.531  25.480 -0.1860 -0.1327 -0.0381
46813W        W89751   0.161   1.599  27.375  0.1529  0.0929 -0.1368
46814W        W89752   0.375   3.372  26.545  0.0744  0.1471 -0.3804
46815W        W89753   0.768   0.839  26.608  0.1919  0.1588  0.0152
46816W        W89754  34.546   3.628  23.818 -0.1046  0.2032  0.5184
46817W        W89755   0.507   2.994  27.691 -0.2248  0.0006  0.2657
46818W        W89756  33.338   1.014  26.091 -0.0421  0.0237  0.2680
46819W        W89757  34.588   1.915  24.753  0.2577  0.1620 -0.0540
46820W        W89758  34.058   3.108  25.762 -0.1747 -0.1165 -0.0900
46821W        W89759   0.026   1.311  26.024 -0.4184 -0.1197  0.0700
46822W        W89760  33.613   2.889  26.456  0.1005  0.1496 -0.0930
46823W        W89761  34.045   1.721  30.931 -0.0100 -0.2663  0.0265
46824W        W89762   0.065   0.621  28.248  0.0277 -0.2445  0.2903
46825W        W89763  33.535   0.849  29.123  0.0537 -0.1051  0.0462
46826W        W89764   1.010   0.890  29.906 -0.4483  0.2998  0.1551
46827W        W89765  33.988   2.113  30.495  0.1134  0.1577  0.2232
46828W        W89766  33.656   2.529  29.745  0.0833  0.1093 -0.0281
46829W        W89767  31.809   0.225  29.010  0.1571 -0.0987  0.0629
46830W        W89768  33.784   0.675  28.486  0.2717 -0.1870 -0.1688
46831W        W89769  33.157   1.451  28.896  0.2347  0.2286  0.3900
46832W        W89770  34.628   1.778  31.669 -0.2519 -0.4549  0.0943
46833W        W89771  32.700   1.558  28.183 -0.1551 -0.1683 -0.0590
46834W        W89772  34.618   0.232  30.248  0.3858  0.1594  0.1503
46835W        W89773  34.280   0.793  28.459  0.1622 -0.0492 -0.2547
46836W        W89774  33.122   1.801  28.563  0.0288  0.2176 -0.1446
46837W        W89775  33.106   1.237  30.175 -0.1216 -0.1153 -0.0908
46838W        W89776  32.578   1.060  28.497 -0.1914  0.0159  0.0843
46839W        W89777  33.069   2.901  29.792 -0.2360 -0.0802  0.2663
46840W        W89778   1.415   4.519  29.427  0.0910 -0.0953  0.2162
46841W        W89779  31.701   2.928  29.955 -0.1360  0.0042 -0.2032
46842W        W89780  32.410   2.852  27.995  0.2711 -0.2481  0.1616
46843W        W89781  33.603   1.930  28.316  0.0413  0.1389  0.1274
46844W        W89782  33.681   4.576  31.877 -0.3597 -0.0305  0.0828
46845W        W89783  31.606   3.232  28.704  0.0747 -0.2431 -0.2941
46846W        W89784  34.149   3.734  31.215  0.1272 -0.1572 -0.1857
46847W        W89785  33.423   3.357  30.334  0.0819 -0.0074  0.1058
46848W        W89786   0.794   3.580  30.165  0.2629  0.0889  0.3301
46849W        W89787   0.128   2.720  30.241  0.0169 -0.1286  0.0278
46850W        W89788  33.778   2.057  29.988  0.0038 -0.2469 -0.0514
46851W        W89789  33.775   2.547  27.745 -0.0492 -0.1946 -0.0940
46852W        W89790   1.631   0.679  28.145 -0.2988 -0.1890  0.0670
46853W        W89791  34.687  34.617  28.828 -0.3276 -0.2686  0.1043
46854W        W89792   0.503   3.826  30.513  0.0457  0.0770  0.0756
46855W        W89793   0.612  34.510  27.921 -0.0624  0.2495 -0.0146
46856W        W89794  32.891   3.626  30.449 -0.1645 -0.1592  0.0089
46857W        W89795  33.618   1.662  28.725  0.2098 -0.1710  0.0741
46858W        W89796  34.216   1.016  29.421  0.0930 -0.0327  0.0226
46859W        W89797  33.823   3.340  31.251  0.0889 -0.0430  0.0381
46860W        W89798  32.563   1.997  30.557  0.1811 -0.0352  0.0276
46861W        W89799   0.019   0.030  27.455 -0.0454  0.0614 -0.1912
46862W        W89800  33.654   2.536  30.724  0.3737  0.2333 -0.1212
46863W        W89801  34.488   0.585  29.648  0.2302 -0.2411  0.1051
46864W        W89802  32.574   3.209  25.721 -0.1587 -0.1881  0.2429
46865W        W89803   0.113   0.963  27.366 -0.0959 -0.0091  0.2136
46866W        W89804  33.741   3.488  29.508  0.1259 -0.0530 -0.0658
46867W        W89805  34.629   1.485  30.228 -0.1275  0.2392 -0.0002
46868W        W89806  34.250   4.911  30.475  0.0409  0.2993 -0.1333
46869W        W89807   0.209   4.167  28.356 -0.1953  0.0956  0.0891
46870W        W89808  32.098   1.337  28.912 -0.0940  0.2531  0.1266
46871W        W89809  34.396   0.803  27.220 -0.1524  0.1583  0.0050
46872W        W89810  32.379   1.631  29.844  0.0837  0.2480 -0.0670
46873W        W89811  34.522   2.238  29.354  0.1643 -0.2946  0.1822
46874W        W89812   0.664   0.677  29.672  0.1014  0.1111  0.1019
46875W        W89813  34.556   0.358  28.611  0.0981 -0.0384 -0.2871
46876W        W89814  33.977   0.677  29.869 -0.0334  0.0216 -0.2181
46877W        W89815  33.034  34.362  27.869 -0.0457  0.0294 -0.1438
46878W        W89816  34.379   1.487  31.210 -0.0105  0.1480  0.1269
46879W        W89817  33.565   1.846  30.786 -0.0508  0.1634  0.0711
46880W        W89818  33.186   0.479  27.846 -0.3534 -0.2000  0.0848
46881W        W89819  34.136   1.790  28.605  0.1018 -0.0716  0.1376
46882W        W89820  33.508   2.388  28.153  0.3007 -0.0623 -0.1214
46883W        W89821  33.095   1.083  29.262  0.3083  0.0182 -0.2653
46884W        W89822  33.966   2.094  27.018 -0.1117  0.1563  0.3502
46885W        W89823  34.638   4.366  29.765  0.1025 -0.0482 -0.0353
46886W        W89824  33.547   2.614  28.621  0.1339 -0.1431  0.1954
46887W        W89825  34.097   1.844  27.499  0.2348 -0.0067  0.1952
46888W        W89826  32.891   1.921  29.002  0.0351  0.0844  0.3025
46889W        W89827  32.383   1.193  28.048  0.0159  0.1460  0.4096
46890W        W89828  32.050   3.045  27.691  0.2527  0.1332  0.1292
46891W        W89829  33.716   1.387  29.109  0.0814  0.3033  0.0915
46892W        W89830  34.385   3.502  29.954 -0.4686  0.0879 -0.1653
46893W        W89831  33.292   2.631   0.474  0.3228  0.0176 -0.0032
46894W        W89832   0.291   2.042  28.672 -0.1263  0.3363  0.2027
46895W        W89833  33.519   4.091  30.892 -0.1557  0.1721 -0.1531
46896W        W89834  33.885   3.163  30.252  0.0883 -0.0097 -0.4227
46897W        W89835   1.252   2.124  29.595 -0.0510  0.1066  0.1053
46898W        W89836  34.456   2.484  30.459 -0.1757 -0.1716  0.2196
46899W        W89837  33.188   2.453  29.112 -0.3118  0.0491  0.0333
46900W        W89838  34.018   0.990  28.950  0.1632 -0.0701 -0.2185
46901W        W89839  33.971   2.366  28.179 -0.2113 -0.2466  0.0960
46902W        W89840  33.378   5.547  28.389  0.2320 -0.2136 -0.1457
46903W        W89841   1.002   1.292  30.164 -0.2692 -0.2041  0.1028
46904W        W89842  33.085   1.398  27.598  0.2388 -0.1187  0.1230
46905W        W89843   0.557   0.866  30.200 -0.0325  0.0249  0.0421
46906W        W89844  33.203   2.004  31.283 -0.3526  0.2470 -0.0776
46907W        W89845  32.562   3.024  29.966 -0.1090 -0.0237  0.1769
46908W        W89846   0.435   0.615  30.917  0.0229  0.1657  0.1739
46909W        W89847  33.099   2.500  27.898  0.0204  0.4277  0.3749
46910W        W89848  34.492   2.756  29.290  0.0342 -0.1062 -0.1756
46911W        W89849   0.741  33.731  29.551  0.1055 -0.2430  0.0932
46912W        W89850  34.510   2.686  29.821 -0.0408  0.1174 -0.3447
46913W        W89851  33.384   2.973  27.749 -0.0356  0.2126  0.1414
46914W        W89852  33.756   2.402  29.197  0.2750  0.1677 -0.2261
46915W        W89853  32.544   3.267  29.471 -0.3235 -0.0414  0.0841
46916W        W89854   1.110   0.973  28.106  0.1733  0.2358 -0.1121
46917W        W89855  33.354   2.065  26.928  0.0659  0.0050  0.0399
46918W        W89856  33.936   0.913  30.434  0.0672  0.2861 -0.0494
46919W        W89857   0.315   0.300  27.868  0.2156  0.2672  0.1187
46920W        W89858  33.930   4.298  30.536  0.1339  0.0496  0.0423
46921W        W89859   1.068   2.687  31.083  0.1152 -0.0089  0.1111
46922W        W89860  34.022   0.763  26.766 -0.2384 -0.0701  0.1999
46923W        W89861  33.970   1.032  28.128  0.1412  0.1239  0.1573
46924W        W89862  32.368   2.749  28.994 -0.0642  0.0765  0.2364
46925W        W89863  34.385   1.409  27.430 -0.1824  0.0025  0.2011
46926W        W89864  32.256   1.720  30.331 -0.0019 -0.3234  0.2266
46927W        W89865  34.543   2.960  30.722 -0.0468  0.0394 -0.0539
46928W        W89866   0.296   1.173  30.608 -0.0224 -0.0256  0.2591
46929W        W89867  31.968   0.834  27.977  0.0761 -0.0210 -0.1875
46930W        W89868   0.505   0.813  28.035  0.0245 -0.0159  0.0706
46931W        W89869  34.114   1.758  30.089 -0.0134  0.0264  0.3086
46932W        W89870   0.306   3.499  30.078 -0.1402  0.1000 -0.1790
46933W        W89871   0.162   1.105  28.213 -0.1441 -0.2431  0.0156
46934W        W89872  33.178   1.895  30.091  0.2493 -0.2931  0.2085
46935W        W89873   0.032   2.445  28.949  0.1184 -0.0076 -0.1296
46936W        W89874  33.888   0.522  28.965 -0.1788 -0.1359  0.1139
46937W        W89875  33.467   2.871  30.326 -0.0887 -0.0070 -0.2516
46938W        W89876  34.507   1.729  27.756 -0.0202  0.1502 -0.1416
46939W        W89877  33.617   3.075  30.780  0.1032 -0.3106  0.2749
46940W        W89878   0.671   0.270  28.222  0.1666  0.0527  0.0575
46941W        W89879  33.440   0.868  30.287 -0.4208  0.0199  0.3897
46942W        W89880  33.445   1.062  31.323 -0.2086  0.1274 -0.1560
46943W        W89881  34.577   3.441  30.882  0.2278  0.0529 -0.0029
46944W        W89882  32.610   1.506  28.738  0.2809  0.1102 -0.3402
46945W        W89883  33.713   1.137  29.996  0.0628  0.0640 -0.1521
46946W        W89884   0.620   1.331  28.093 -0.1296 -0.0688  0.0188
46947W        W89885  34.065   2.787  30.664 -0.1519  0.3196  0.1899
46948W        W89886   0.360   1.752  27.892  0.1000  0.2848  0.0808
46949W        W89887  34.614   1.326  29.618  0.2181 -0.0108  0.4212
46950W        W89888   0.243   0.271  31.893 -0.0356  0.0935 -0.0497
46951W        W89889   1.747   1.551  29.860  0.1711 -0.1648 -0.0668
46952W        W89890   0.681   1.131  31.611 -0.3181  0.0842 -0.0396
46953W        W89891  34.330  34.393  31.720  0.0321  0.2212 -0.0650
46954W        W89892  34.361   1.730  27.036  0.0825 -0.0612  0.3230
46955W        W89893   1.572   3.686  28.911  0.0195 -0.3341  0.0155
46956W        W89894  34.423  34.442  30.040  0.1210 -0.1271  0.2649
46957W        W89895  34.289   4.688  31.368 -0.1835  0.2573  0.2302
46958W        W89896  33.058   0.615  27.021  0.2795 -0.0466  0.1606
46959W        W89897   1.563   1.597  27.245  0.1331  0.3698  0.1117
46960W        W89898  34.492   1.969  30.417 -0.1959 -0.2246 -0.1784
46961W        W89899   0.122  34.211  27.517  0.1800  0.1221  0.5012
46962W        W89900  32.639   3.202  28.995  0.2393  0.0495 -0.1230
46963W        W89901  34.694   3.675  30.463  0.2638  0.2012 -0.1715
46964W        W89902  31.879   2.694  29.300  0.1565 -0.0117  0.1272
46965W        W89903  34.543   2.007  28.903 -0.2070  0.2092  0.0988
46966W        W89904  34.395   1.351  28.219  0.1242 -0.1403  0.2587
46967W        W89905  33.679   1.714  30.311 -0.2204  0.0614 -0.1406
46968W        W89906  34.200   1.924  29.634  0.0837 -0.0843 -0.0544
46969W        W89907  32.753   1.923  31.023 -0.2141 -0.1375  0.2101
46970W        W89908  34.601   0.249  29.222  0.1564  0.2003 -0.0350
46971W        W89909  32.074   3.379  30.641 -0.0948 -0.0738  0.1001
46972W        W89910  33.893   2.865  31.122  0.2611  0.0582 -0.1474
46973W        W89911  33.263   3.810  28.783  0.1345  0.1203 -0.3097
46974W        W89912  33.958  34.616  28.047  0.0919  0.1430 -0.3116
46975W        W89913  33.154   2.299  28.650  0.3480 -0.4023 -0.2452
46976W        W89914  31.618   2.442  27.543 -0.0428 -0.3152  0.2247
46977W        W89915  33.224   3.431  28.407  0.5214 -0.0194  0.1098
46978W        W89916  33.559   1.133  29.543 -0.1371 -0.3522  0.1405
46979W        W89917   0.271  34.448  27.124 -0.0706  0.4419 -0.1146
46980W        W89918   0.247   1.689  30.587 -0.0370 -0.4918  0.0859
46981W        W89919  34.680   4.137  30.672  0.2835  0.0813  0.1289
46982W        W89920  33.079   2.851  28.791  0.2383  0.2547  0.2027
46983W        W89921  33.658   1.422  28.210  0.0605 -0.1125 -0.2906
46984W        W89922   0.631   1.777  27.024  0.1157 -0.1447  0.4515
46985W        W89923  33.813   2.845  29.023 -0.2682  0.2435  0.1470
46986W        W89924  34.091   1.940  29.074 -0.0063  0.1381 -0.1692
46987W        W89925  33.905   3.655  29.945  0.4466  0.3248 -0.0701
46988W        W89926  34.220   1.461  29.121 -0.0914 -0.2379 -0.0243
46989W        W89927   0.069   2.575   0.589  0.1590  0.3778 -0.0776
46990W        W89928  33.797   2.177  28.726 -0.1015 -0.1713 -0.3782
46991W        W89929  33.709   2.780   0.233  0.0910 -0.2574  0.1707
46992W        W89930  34.638   0.515  27.551  0.2918  0.1608 -0.0708
46993W        W89931  34.210   0.650  30.854 -0.1788  0.2585 -0.1384
46994W        W89932  33.703   1.909  29.415 -0.1394  0.0761 -0.2604
46995W        W89933   0.792   1.429  31.141  0.1365  0.2623  0.4143
46996W        W89934  32.591   0.181  28.548  0.0651  0.1308  0.2054
46997W        W89935  34.615   4.548  29.318  0.0015 -0.2073 -0.1803
46998W        W89936  32.540   0.971  29.039 -0.2653 -0.1315  0.0631
46999W        W89937  34.628  34.142  29.151  0.0653  0.1724 -0.0629
47000W        W89938  34.364   0.698  30.172  0.0911 -0.2130  0.2783
47001W        W89939  33.261   1.641  28.013 -0.0903 -0.0538 -0.0455
47002W        W89940  33.230   3.661  27.968 -0.1554 -0.0350  0.5373
47003W        W89941   0.409   4.366  29.227 -0.1464 -0.0947  0.3941
47004W        W89942  32.822   3.333  31.508  0.2155  0.0430 -0.1095
47005W        W89943  33.014   2.264  27.460  0.0071  0.1946  0.2139
47006W        W89944   0.465   1.599  31.558  0.0142 -0.1769  0.3030
47007W        W89945  34.548   1.953  28.256  0.1016  0.2411 -0.0048
47008W        W89946   0.296   2.071  29.288  0.1414  0.1976 -0.6564
47009W        W89947   0.346   0.258  28.675 -0.1069 -0.0674  0.2558
47010W        W89948  33.684  34.326  29.454  0.1185  0.0445 -0.2434
47011W        W89949  34.370   2.721  31.246  0.0776  0.0620 -0.3553
47012W        W89950  34.086   1.755  28.157 -0.0255  0.0864  0.0111
47013W        W89951  33.952   2.542  27.283  0.0747 -0.0951  0.1428
47014W        W89952  33.655   0.126  29.179  0.0749  0.2133 -0.0189
47015W        W89953   0.074   1.987  31.101  0.0112  0.0537  0.1480
47016W        W89954  33.473   1.627  29.830 -0.2743  0.1331  0.4417
47017W        W89955  31.889   1.992  29.301 -0.1335 -0.0337 -0.0369
47018W        W89956  34.183   0.226  29.899  0.2960 -0.0041  0.1174
47019W        W89957  33.077   0.123  28.691 -0.1678  0.0787 -0.0269
47020W        W89958   0.731   0.204  27.562  0.1636  0.3201 -0.0942
47021W        W89959  32.344   1.683  27.779 -0.3425 -0.1583  0.0589
47022W        W89960   1.694   2.447  30.249  0.1663 -0.0187 -0.1778
47023W        W89961   1.321   1.343  29.658 -0.0765  0.1114  0.2367
47024W        W89962  32.233   2.262  28.652 -0.0084  0.1858 -0.1389
47025W        W89963   0.907   1.768  30.358  0.4932 -0.2362 -0.1434
47026W        W89964   0.038   5.222  29.790  0.0311 -0.0454 -0.0241
47027W        W89965   0.612   4.835  30.392  0.2599 -0.3575 -0.4680
47028W        W89966  31.213   1.237  29.153  0.2500 -0.2315  0.0787
47029W        W89967   0.226   2.169  30.632 -0.3193  0.0251  0.2349
47030W        W89968   0.166   0.737  31.578  0.0623 -0.0438  0.1912
47031W        W89969   1.216   3.090  30.694  0.4569 -0.1701  0.0366
47032W        W89970  32.908   0.559  28.408  0.0017  0.2064 -0.2132
47033W        W89971  33.073   1.835  30.643 -0.3716 -0.6019  0.2489
47034W        W89972   1.263   1.443  28.120  0.0731 -0.0239  0.0348
47035W        W89973   1.964   1.069  30.846  0.2550 -0.2938  0.1173
47036W        W89974   0.325   0.758  26.899  0.1780  0.0403  0.2240
47037W        W89975   0.948   2.695  29.683  0.0502 -0.1643 -0.2121
47038W        W89976  33.391  34.564  30.066 -0.0826  0.1657 -0.0639
47039W        W89977  33.071   1.288  28.350 -0.1962 -0.2021 -0.2857
47040W        W89978  34.209   2.469  29.066  0.2530  0.0008  0.1749
47041W        W89979  32.906   0.080  29.172 -0.6283 -0.0440 -0.0720
47042W        W89980  33.442   5.022  29.880 -0.1693  0.0273  0.0675
47043W        W89981  34.471   1.626  30.747  0.0159 -0.0390  0.0213
47044W        W89982   0.781   3.078  30.946  0.1088 -0.2421 -0.0761
47045W        W89983   0.929   3.009   0.645  0.1401 -0.2140 -0.1185
47046W        W89984  33.353   3.664   0.129 -0.0475 -0.0672  0.1269
47047W        W89985  33.997   1.776  31.733  0.2274 -0.1229 -0.2178
47048W        W89986  33.969  34.079  31.436  0.1185  0.1010  0.1399
47049W        W89987  33.449   1.533  31.590  0.0811 -0.0118  0.1885
47050W        W89988  32.493   5.653  30.367 -0.0350  0.2095  0.1710
47051W        W89989  33.152   2.317   0.089 -0.1947 -0.2034 -0.1105
47052W        W89990  33.448   1.363  30.517  0.0544 -0.1353 -0.2472
47053W        W89991  34.187   0.602  31.808 -0.1120  0.4221 -0.2115
47054W        W89992  34.528  34.616  31.278  0.1145  0.2136  0.0984
47055W        W89993  33.620   2.890  31.578 -0.1524 -0.0550  0.0082
47056W        W89994   1.618   0.644  31.778 -0.1113 -0.1572  0.1756
47057W        W89995  33.057   2.884  31.464 -0.2545 -0.0546 -0.0848
47058W        W89996  33.668   1.928  31.368 -0.2901 -0.0406 -0.0548
47059W        W89997  34.222   2.678   0.207  0.0728 -0.3446  0.2034
47060W        W89998   0.192   3.006  31.104 -0.1849  0.0730 -0.2043
47061W        W89999  34.309   1.442  31.867 -0.0597  0.3411  0.0542
47062W        W90000  34.269   0.957  31.490  0.0695 -0.1183 -0.3475
47063W        W90001  33.360   1.759   0.405 -0.0893 -0.2645  0.0037
47064W        W90002  34.478   2.329  31.894 -0.3416 -0.1094  0.0650
47065W        W90003   0.970   1.803  31.527 -0.1526  0.0447 -0.1283
47066W        W90004  34.086   1.165  30.908 -0.3337 -0.1830  0.4039
47067W        W90005  34.672   3.789  31.309 -0.2122  0.3025 -0.0202
47068W        W90006  33.639   0.523  30.597  0.2482  0.1262 -0.4555
47069W        W90007  34.168   3.564  30.452  0.1529 -0.1318  0.3171
47070W        W90008   0.814   1.498  31.895  0.1044  0.2698  0.4286
47071W        W90009  33.513   4.172   0.259 -0.0089 -0.0838  0.0445
47072W        W90010  34.023  34.607  31.289  0.0474 -0.2505  0.0824
47073W        W90011  34.145   2.036  31.358  0.0706 -0.1052  0.1125
47074W        W90012   1.646   0.821  30.445  0.0903 -0.1217  0.2863
47075W        W90013  33.289   3.274  31.205  0.0729 -0.3894  0.2188
47076W        W90014   1.040   2.173  31.103 -0.0794 -0.0506  0.2705
47077W        W90015  33.607   1.383  31.008 -0.2183 -0.1947  0.0294
47078W        W90016  33.887   1.174  31.915 -0.0671 -0.1417  0.0844
47079W        W90017  34.403   2.894  31.776 -0.0844  0.2203 -0.0660
47080W        W90018  34.058   2.831  30.001  0.0771 -0.0536 -0.1985
47081W        W90019  33.798   0.798  31.579 -0.0718 -0.0107 -0.1481
47082W        W90020  32.173   5.858  18.968 -0.0931 -0.1211 -0.3168
47083W        W90021  33.085   4.135  16.828 -0.2132  0.1386  0.0151
47084W        W90022  33.573   4.911  17.332  0.0625 -0.0695  0.2606
47085W        W90023  33.012   5.135  19.731 -0.1278 -0.1411  0.0221
47086W        W90024  33.326   4.569  18.792  0.0018  0.1517 -0.0749
47087W        W90025  33.180   6.845  19.129  0.0476  0.0110 -0.2030
47088W        W90026  34.279   4.663  16.626 -0.1610  0.1345 -0.1015
47089W        W90027  31.807   4.565  19.193 -0.0906 -0.2370  0.1245
47090W        W90028  33.557   6.044  16.622 -0.0357 -0.0343 -0.0870
47091W        W90029  33.972   5.651  17.926 -0.1290 -0.1453 -0.0667
47092W        W90030  33.504   6.840  18.524 -0.1872  0.2108  0.0399
47093W        W90031   1.475   4.485  20.959  0.1919  0.2525  0.0303
47094W        W90032   0.397   6.680  17.897 -0.3089  0.1316 -0.1300
47095W        W90033  32.890   5.921  15.874 -0.0034 -0.2053  0.1726
47096W        W90034  32.773   3.281  18.084 -0.0293 -0.4116  0.2824
47097W        W90035  32.470   5.503  18.002 -0.3559  0.0876 -0.2503
47098W        W90036  34.442   6.252  17.198  0.0857  0.2691  0.1288
47099W        W90037  34.280   7.642  17.300  0.2139 -0.2183 -0.1420
47100W        W90038  32.162   6.357  16.817  0.0383 -0.0578  0.2554
47101W        W90039  31.309   6.483  17.828 -0.0274  0.0992 -0.0306
47102W        W90040  32.588   5.976  17.991  0.2551 -0.0172  0.0089
47103W        W90041  33.056   7.145  18.719 -0.0156 -0.2478  0.0398
47104W        W90042  33.085   7.146  16.795 -0.0250 -0.1407  0.0928
47105W        W90043  33.545   6.137  17.896 -0.1712 -0.2958  0.2368
47106W        W90044  32.576   6.419  17.198 -0.2613  0.1090 -0.0700
47107W        W90045  33.048   5.585  19.108 -0.2373  0.0961  0.0354
47108W        W90046  34.526   6.544  19.772  0.1786 -0.0608  0.1338
47109W        W90047  31.496   5.966  17.884  0.0241 -0.0489  0.1703
47110W        W90048  33.016   7.156  17.350 -0.1479 -0.2730 -0.1248
47111W        W90049   0.694   5.351  17.523 -0.2057  0.0387  0.0938
47112W        W90050  34.486   5.341  17.296  0.0083  0.1604  0.1355
47113W        W90051  33.666   6.997  18.033 -0.2637  0.0120  0.0242
47114W        W90052   0.018   5.722  19.259 -0.1922 -0.0996 -0.1068
47115W        W90053  34.437   6.799  19.098  0.1564 -0.2878 -0.4178
47116W        W90054  33.241   4.909  18.370  0.2075 -0.1281  0.0608
47117W        W90055  33.116   5.365  18.031  0.1276  0.0865 -0.1017
47118W        W90056  33.102   4.241  18.356  0.1098  0.0470  0.2541
47119W        W90057  33.225   4.716  19.667  0.0003 -0.0914  0.2336
47120W        W90058  33.937   3.001  16.146  0.0727 -0.3498 -0.1809
47121W        W90059  32.188   7.613  20.550  0.0339  0.2845 -0.0418
47122W        W90060   0.114   6.890  18.211  0.0407 -0.1979  0.0081
47123W        W90061  32.519   6.420  16.010 -0.2674 -0.0142  0.1482
47124W        W90062  31.889   6.826  16.818 -0.0464  0.0373 -0.1030
47125W        W90063  33.051   5.849  17.934 -0.1195  0.0789 -0.0080
47126W        W90064  32.742   3.818  19.547 -0.2009 -0.0739 -0.0712
47127W        W90065   0.637   6.289  19.162 -0.3374 -0.3094 -0.0158
47128W        W90066  32.166   7.968  16.198  0.0357  0.0347  0.0197
47129W        W90067  31.611   7.288  17.619 -0.1300 -0.0748 -0.1370
47130W        W90068  31.644   7.596  17.162 -0.2384  0.3442 -0.2968
47131W        W90069  34.180   4.195  18.892 -0.0475  0.1653 -0.0903
47132W        W90070  32.946   5.538  20.097 -0.0324 -0.0188  0.0594
47133W        W90071  32.703   5.053  20.347 -0.0843  0.0432 -0.1131
47134W        W90072  32.095   6.207  16.313 -0.0859  0.1230 -0.0639
47135W        W90073  32.238   5.178  18.505 -0.3177 -0.1241 -0.3057
47136W        W90074  33.861   4.484  17.496 -0.0744 -0.0115  0.1267
47137W        W90075  33.674   3.639  20.178  0.0912  0.1246 -0.2659
47138W        W90076  33.784   5.743  18.378  0.1400 -0.3208  0.0859
47139W        W90077  34.310   4.600  17.937 -0.2433 -0.1171  0.1509
47140W        W90078   0.471   5.689  17.190  0.1703  0.0439 -0.3254
47141W        W90079  30.788   6.566  17.752  0.1208 -0.2166 -0.1173
47142W        W90080  33.399   4.466  20.187  0.1105 -0.1711 -0.3008
47143W        W90081  33.422   3.992  16.266 -0.3979  0.2019 -0.1342
47144W        W90082  32.004   6.439  17.249 -0.1413  0.1153  0.1573
47145W        W90083  34.205   5.058  18.206 -0.3642 -0.2578 -0.1624
47146W        W90084   0.217   3.915  16.204 -0.0304  0.0385  0.2304
47147W        W90085  31.816   7.400  19.400 -0.1439  0.2807  0.2007
47148W        W90086  33.422   4.378  16.575 -0.4451 -0.0200  0.1849
47149W        W90087  33.894   6.331  16.835 -0.0106  0.4438  0.1871
47150W        W90088  31.110   4.374  17.525  0.2268 -0.0331  0.0683
47151W        W90089  33.417   6.462  18.917  0.1511  0.1220 -0.0408
47152W        W90090  32.678   5.228  19.274  0.2801 -0.2083 -0.3947
47153W        W90091  32.592   6.005  16.380 -0.1645  0.0628  0.2878
47154W        W90092  33.259   6.022  19.289  0.1878  0.0061 -0.2517
47155W        W90093  32.850   6.774  19.735 -0.0402 -0.2585 -0.0249
47156W        W90094   1.253   4.270  16.227 -0.0541  0.0686  0.1763
47157W        W90095   0.127   5.497  18.186 -0.1163 -0.2505  0.2171
47158W        W90096  32.345   6.236  17.617 -0.4306 -0.1901 -0.3972
47159W        W90097  34.600   3.894  18.999 -0.4181 -0.3066  0.0574
47160W        W90098  34.010   5.055  16.490 -0.0024  0.2659  0.1044
47161W        W90099  33.087   7.438  15.920  0.2938 -0.1717 -0.2545
47162W        W90100  33.883   4.182  18.005 -0.3732  0.2821  0.1788
47163W        W90101  33.973   5.877  16.235 -0.1524  0.1118 -0.0266
47164W        W90102   0.301   4.247  19.216 -0.0704  0.0367  0.3613
47165W        W90103  32.939   5.158  18.840  0.0464 -0.2192  0.1713
47166W        W90104  31.921   6.632  18.261  0.0676  0.2424  0.0010
47167W        W90105   0.758   4.994  20.194 -0.2278  0.0753 -0.0063
47168W        W90106   0.228   5.269  17.044  0.2656  0.1868 -0.0407
47169W        W90107  33.491   5.860  16.033  0.2545  0.3111 -0.1561
47170W        W90108   0.843   4.112  19.180 -0.0144  0.2352 -0.1131
47171W        W90109  33.607   5.938  19.938 -0.1225  0.1659  0.3788
47172W        W90110  33.360   6.820  17.155 -0.0341 -0.0020 -0.0574
47173W        W90111  33.193   5.916  16.904 -0.1097 -0.1477  0.1476
47174W        W90112  33.438   7.329  17.723 -0.2177  0.2729 -0.2294
47175W        W90113  33.349   5.042  16.439  0.1359  0.2205 -0.1115
47176W        W90114  32.537   5.238  17.390 -0.0145 -0.1987 -0.2489
47177W        W90115  32.496   4.241  18.160  0.0999  0.0090 -0.0912
47178W        W90116  34.359   4.352  17.253  0.0453 -0.0792 -0.0769
47179W        W90117  32.942   6.048  18.863 -0.4078  0.1513 -0.1533
47180W        W90118  32.823   5.698  19.531 -0.1783  0.0985  0.0862
47181W        W90119  34.095   4.985  17.213  0.0152 -0.1702  0.0135
47182W        W90120  33.348   5.478  16.650 -0.1438  0.1084  0.2795
47183W        W90121  30.981   8.409  16.927 -0.0990  0.1816 -0.2269
47184W        W90122  30.630   7.487  17.916  0.1005 -0.1500 -0.0344
47185W        W90123  33.222   6.803  17.697 -0.0762 -0.1613  0.0935
47186W        W90124  33.536   4.993  21.911  0.0938  0.0001  0.0033
47187W        W90125  33.165   6.424  19.612 -0.1677  0.0183 -0.1510
47188W        W90126  33.882   4.285  16.956  0.0779 -0.0821 -0.0574
47189W        W90127  34.156   5.912  17.015 -0.1953  0.0299  0.2584
47190W        W90128  32.700   6.273  19.702 -0.1003  0.0344 -0.2895
47191W        W90129  33.133   7.281  19.772 -0.0834  0.0472 -0.0422
47192W        W90130  32.017   4.609  16.557 -0.1114  0.1583  0.4304
47193W        W90131  32.462   4.555  19.087 -0.0290 -0.0759  0.0953
47194W        W90132  32.406   5.723  17.551  0.0283 -0.3221  0.1201
47195W        W90133  34.572   4.574  18.854  0.1315 -0.0335  0.2296
47196W        W90134  34.133   6.228  18.471  0.0597 -0.1246 -0.1449
47197W        W90135  33.147   6.354  16.622 -0.1129 -0.1953 -0.1621
47198W        W90136  33.772   7.246  18.491 -0.1670 -0.1621 -0.1849
47199W        W90137  33.717   5.246  16.939 -0.1895  0.1893 -0.1422
47200W        W90138  33.702   5.246  18.177  0.0193 -0.1892 -0.3199
47201W        W90139  32.831   4.733  20.012 -0.0476 -0.2470 -0.2694
47202W        W90140  32.949   6.238  20.689 -0.3317 -0.2792 -0.3497
47203W        W90141  34.357   3.542  17.668 -0.3194 -0.4748  0.1423
47204W        W90142  32.642   5.040  17.833  0.0592  0.0021  0.0719
47205W        W90143  34.480   5.177  16.642 -0.1739  0.0025 -0.0506
47206W        W90144  34.019   5.367  18.592 -0.3443 -0.0168  0.4348
47207W        W90145  34.500   6.255  16.208 -0.1007  0.1146 -0.3798
47208W        W90146  33.611   4.274  18.456 -0.1654 -0.0089  0.0527
47209W        W90147  33.328   4.075  20.586 -0.3232 -0.1939 -0.2006
47210W        W90148  34.405   4.240  19.303  0.0128  0.3333 -0.3836
47211W        W90149  33.052   3.663  17.826 -0.3108  0.1415  0.0072
47212W        W90150  33.302   3.579  17.417 -0.0308 -0.1814  0.1964
47213W        W90151  33.364   4.488  16.103 -0.3231  0.2412 -0.0217
47214W        W90152  33.524   6.665  16.674 -0.5008  0.2545 -0.0763
47215W        W90153  32.064   3.641  17.794 -0.2232  0.2594  0.0009
47216W        W90154  33.190   6.980  18.174 -0.0821  0.0436  0.2746
47217W        W90155  34.631   4.277  16.326  0.1250  0.3066 -0.0099
47218W        W90156  34.142   5.407  16.208  0.0583 -0.1060 -0.2648
47219W        W90157  34.613   6.369  17.623 -0.1610 -0.0124  0.2944
47220W        W90158   0.394   4.358  16.042  0.1454  0.1222  0.0551
47221W        W90159  32.302   5.978  15.963 -0.0472  0.2917  0.2297
47222W        W90160  33.354   8.151  18.806  0.0509  0.2678  0.0245
47223W        W90161  33.725   5.986  19.317 -0.2370  0.0281  0.1177
47224W        W90162  34.413   6.080  18.888 -0.0087 -0.0955 -0.0447
47225W        W90163   0.341   7.864  20.250 -0.1182  0.1268  0.1266
47226W        W90164  32.774   5.557  17.126 -0.1879  0.0402  0.3695
47227W        W90165  31.173   6.929  17.550 -0.0865 -0.2227  0.1188
47228W        W90166  31.657   5.916  20.379 -0.1442  0.2021  0.0911
47229W        W90167  33.913   4.171  16.487  0.0520  0.2992  0.0457
47230W        W90168  32.066   6.343  19.170 -0.2286  0.0031  0.1451
47231W        W90169  32.925   4.686  17.939 -0.2404  0.3076 -0.0162
47232W        W90170  32.105   7.490  16.974  0.0856  0.0811 -0.3586
47233W        W90171  33.324   5.125  15.936  0.1912  0.0316  0.3002
47234W        W90172  32.912   5.508  17.608  0.0664  0.2356 -0.1867
47235W        W90173  32.190   8.055  16.700  0.0064  0.1563  0.0741
47236W        W90174  32.854   6.449  19.168 -0.0517 -0.1306  0.0573
47237W        W90175  33.461   5.513  17.698  0.1433 -0.0286 -0.2661
47238W        W90176  34.226   4.453  16.126 -0.0243 -0.0913 -0.2126
47239W        W90177  32.667   5.994  20.334  0.3217 -0.1858 -0.2372
47240W        W90178  32.518   7.834  20.178 -0.1307 -0.2859  0.0690
47241W        W90179  33.253   5.435  17.181  0.1021  0.0370 -0.0034
47242W        W90180   0.143   5.983  17.417  0.2539 -0.0724 -0.1983
47243W        W90181  33.794   4.637  16.351 -0.0189 -0.0767 -0.1005
47244W        W90182   0.318   6.696  17.433  0.0376  0.1065  0.2853
47245W        W90183  32.100   6.724  20.434  0.1271 -0.0658  0.0843
47246W        W90184  34.379   6.841  18.533 -0.0706 -0.1480  0.0591
47247W        W90185  33.751   3.695  16.697  0.0234 -0.1752  0.0698
47248W        W90186  33.009   5.032  17.383  0.0877  0.0207  0.4617
47249W        W90187  32.580   7.028  16.692  0.2861  0.0471 -0.0189
47250W        W90188  32.417   4.585  17.776 -0.1483 -0.0758 -0.4501
47251W        W90189   0.164   5.546  16.591  0.1010  0.2276  0.1086
47252W        W90190  34.510   4.807  17.504 -0.1276  0.0834  0.1082
47253W        W90191  32.573   4.765  17.247 -0.1444  0.1890 -0.1747
47254W        W90192  32.418   4.657  18.353  0.1502 -0.2370  0.2831
47255W        W90193  33.022   3.994  17.320 -0.4112 -0.0851 -0.0776
47256W        W90194  33.469   6.297  17.176  0.1317 -0.0810  0.1718
47257W        W90195  33.677   4.716  19.391  0.1944  0.2199 -0.0587
47258W        W90196   0.340   4.983  17.433  0.2528  0.2057 -0.0940
47259W        W90197  34.166   4.075  17.610 -0.0222 -0.0090  0.2076
47260W        W90198  33.029   6.629  18.600  0.0539  0.0442 -0.2706
47261W        W90199  34.326   6.809  16.751  0.0443 -0.1221  0.2144
47262W        W90200  34.206   5.787  19.275  0.2043 -0.0824 -0.2236
47263W        W90201  33.590   6.491  19.401  0.0234  0.2922 -0.1420
47264W        W90202  33.626   6.498  17.585  0.2486 -0.4675  0.1027
47265W        W90203  33.233   6.649  20.645 -0.1702 -0.0670 -0.0397
47266W        W90204  33.849   5.606  16.608 -0.0871  0.3397 -0.1747
47267W        W90205  34.475   6.778  15.740 -0.0908 -0.1883 -0.1980
47268W        W90206   0.275   4.347  18.677 -0.0532 -0.1552  0.1856
47269W        W90207   0.179   5.500  17.547 -0.1894 -0.1026 -0.1866
47270W        W90208  31.623   5.322  20.325  0.0569  0.0837 -0.0477
47271W        W90209  32.953   7.326  17.847  0.1427 -0.2355  0.0862
47272W        W90210  32.835   6.747  16.373  0.0114  0.0329 -0.1373
47273W        W90211  33.400   5.022  17.846 -0.0293 -0.1870  0.5159
47274W        W90212  34.556   4.542  20.102  0.1305 -0.1585  0.2223
47275W        W90213  33.260   3.915  19.311  0.0263 -0.0309  0.3122
47276W        W90214  32.694   6.705  17.651  0.0482 -0.2982 -0.2049
47277W        W90215  33.796   4.735  17.955  0.0879 -0.1940 -0.1495
47278W        W90216   0.735   4.448  18.796 -0.4153  0.2355 -0.0437
47279W        W90217  33.701   4.089  18.896  0.2665 -0.1081 -0.1047
47280W        W90218  34.144   4.502  18.430  0.4949  0.1277  0.3169
47281W        W90219  32.888   5.997  17.403  0.3090  0.1034  0.1588
47282W        W90220  33.993   5.394  20.084  0.0273 -0.0173  0.0284
47283W        W90221   0.617   3.468  19.836 -0.1029  0.1981 -0.2442
47284W        W90222  32.985   3.700  16.251 -0.2678 -0.0518  0.2403
47285W        W90223  33.980   5.865  18.822  0.2277 -0.1272 -0.1983
47286W        W90224  32.729   5.677  18.373  0.1633  0.2551  0.1752
47287W        W90225  33.419   6.840  19.720 -0.2613 -0.5238  0.0058
47288W        W90226  33.654   3.789  19.683 -0.0729  0.2547 -0.2001
47289W        W90227  34.298   7.182  19.413 -0.2098 -0.3411  0.0128
47290W        W90228  33.522   4.512  20.881  0.1050  0.0846  0.3069
47291W        W90229   0.184   6.602  19.164  0.2062  0.0487 -0.2473
47292W        W90230   0.210   5.107  17.913 -0.4283  0.1871  0.0866
47293W        W90231  33.382   4.484  18.046 -0.1221  0.1348 -0.1153
47294W        W90232  34.588   4.794  17.010  0.0092 -0.1684 -0.2734
47295W        W90233  34.660   5.893  18.527  0.0835 -0.0990  0.1653
47296W        W90234  34.378   5.699  16.556 -0.2411 -0.0851 -0.0541
47297W        W90235  33.862   7.926  19.457 -0.0611  0.0651 -0.1008
47298W        W90236  34.036   4.174  20.927 -0.0486  0.0750  0.0331
47299W        W90237  32.558   6.415  16.594 -0.0866 -0.2088 -0.0737
47300W        W90238  33.156   5.532  18.602 -0.0128 -0.3739 -0.1500
47301W        W90239   0.619   3.292  18.999  0.1746  0.0543  0.0101
47302W        W90240  34.541   8.381  19.449 -0.2253 -0.1751  0.3448
47303W        W90241  33.289   4.830  25.315 -0.0101 -0.1860  0.0051
47304W        W90242  33.689   4.729  19.881  0.0258  0.1027 -0.1382
47305W        W90243  33.471   4.332  21.701  0.1263  0.2476  0.1416
47306W        W90244  33.592   3.358  24.036  0.0218  0.0395 -0.1998
47307W        W90245  34.023   4.461  22.415 -0.0969 -0.0185  0.3010
47308W        W90246  32.685   6.185  23.210 -0.0876 -0.2223 -0.2100
47309W        W90247  34.554   3.235  21.630 -0.2772  0.2304  0.0789
47310W        W90248  32.362   2.641  22.748 -0.0694  0.0962  0.1300
47311W        W90249  33.149   6.393  22.414  0.1589  0.1698  0.0773
47312W        W90250  33.968   4.928  21.587 -0.0638 -0.1830 -0.0793
47313W        W90251  34.198   4.489  19.716 -0.1038  0.2117  0.3484
47314W        W90252  33.741   3.873  23.577  0.0625  0.0939  0.0859
47315W        W90253  34.127   6.693  22.481  0.1183 -0.2860 -0.0005
47316W        W90254  33.089   6.001  19.848 -0.2105  0.0786  0.0210
47317W        W90255  33.641   4.778  22.588  0.3168 -0.0866  0.1119
47318W        W90256  33.807   5.312  23.908  0.4134  0.1704  0.0931
47319W        W90257  34.659   6.691  22.298  0.1153  0.1458 -0.1033
47320W        W90258   0.460   8.556  22.505  0.1486 -0.1603  0.0299
47321W        W90259  32.405   6.803  23.470  0.1759  0.1883 -0.1373
47322W        W90260  32.724   7.134  23.063 -0.0698 -0.0726 -0.2857
47323W        W90261  32.473   6.631  22.990  0.1407 -0.2694  0.1531
47324W        W90262  32.695   7.446  23.930  0.2529  0.2551 -0.1217
47325W        W90263  33.915   6.972  21.191  0.0322 -0.4312  0.2362
47326W        W90264  33.557   7.632  23.110  0.0180 -0.3702 -0.2553
47327W        W90265  33.477   5.494  20.188 -0.2104  0.0559  0.2400
47328W        W90266  33.150   7.317  22.931 -0.2805  0.0969  0.0282
47329W        W90267  33.208   6.813  25.200 -0.0040 -0.0883 -0.3052
47330W        W90268  32.287   6.217  23.544  0.2017  0.2897 -0.0313
47331W        W90269  32.397   6.853  19.994 -0.0523  0.0100  0.3366
47332W        W90270  34.041   5.008  19.625 -0.0811 -0.0908 -0.1908
47333W        W90271   0.134   4.415  22.206  0.2780  0.1509  0.0730
47334W        W90272  33.063   6.830  22.805  0.3320 -0.1752 -0.1361
47335W        W90273  33.242   3.792  21.477 -0.2650  0.0470  0.1999
47336W        W90274  31.832   7.305  22.063  0.0738  0.0660  0.0169
47337W        W90275  32.534   5.094  22.449  0.0006 -0.3351 -0.1973
47338W        W90276  33.133   4.828  21.677 -0.0981  0.0263  0.0080
47339W        W90277  33.874   6.556  25.276  0.0963  0.0010 -0.0726
47340W        W90278  33.235   4.963  23.677  0.1775  0.2041 -0.3610
47341W        W90279  33.736   3.154  20.842 -0.2524  0.0812 -0.3898
47342W        W90280  30.872   5.989  22.353 -0.2712  0.0860  0.0766
47343W        W90281   0.008   5.709  21.857  0.0199  0.0203 -0.2319
47344W        W90282  32.175   5.720  18.452 -0.0477  0.0300 -0.1310
47345W        W90283  33.656   6.899  20.755 -0.1051 -0.2869  0.1237
47346W        W90284  33.063   7.042  23.789  0.2192  0.0518  0.2522
47347W        W90285  34.124   3.573  21.956 -0.3598 -0.1072  0.1856
47348W        W90286  34.152   5.236  23.412 -0.2541  0.0392  0.1586
47349W        W90287  32.306   8.014  19.719 -0.1677 -0.0879  0.2399
47350W        W90288  31.384   5.818  23.030  0.1540  0.0361  0.3245
47351W        W90289  32.790   6.139  21.998  0.0157  0.3416 -0.1447
47352W        W90290  32.904   3.439  22.611 -0.3030  0.0230 -0.6602
47353W        W90291  32.310   5.259  22.956 -0.0075 -0.3589 -0.0484
47354W        W90292  32.947   4.362  23.340  0.0141 -0.1684 -0.2041
47355W        W90293  31.971   6.504  22.435 -0.1330 -0.1293 -0.1497
47356W        W90294  32.398   4.162  22.933 -0.0162 -0.3105  0.2611
47357W        W90295  33.667   5.258  23.321 -0.1857  0.1993  0.3250
47358W        W90296  33.898   3.781  25.059 -0.2022 -0.0453 -0.0176
47359W        W90297  32.843   4.224  20.795 -0.0944 -0.1609  0.1044
47360W        W90298  32.801   3.397  20.841  0.1247  0.0788  0.0430
47361W        W90299  33.747   5.471  20.943  0.1248  0.3468 -0.0413
47362W        W90300  32.226   5.105  21.858 -0.2565  0.3514 -0.0141
47363W        W90301  34.292   3.801  22.829  0.1418  0.1212 -0.0541
47364W        W90302  33.284   4.202  21.195 -0.1119 -0.1275  0.1335
47365W        W90303  34.407   7.084  22.035 -0.2942 -0.4139 -0.1080
47366W        W90304   0.138   7.257  22.183 -0.3453  0.0040  0.1603
47367W        W90305  34.200   3.062  21.187 -0.1947  0.0773  0.0211
47368W        W90306  33.181   5.661  24.953  0.1354 -0.2108  0.0070
47369W        W90307  33.844   3.903  20.542 -0.0019  0.1309 -0.0347
47370W        W90308  32.473   7.323  20.932  0.0848 -0.3714  0.1933
47371W        W90309  32.277   5.683  22.453  0.0331  0.1281 -0.0122
47372W        W90310  33.629   6.403  22.222  0.2147  0.3245  0.0862
47373W        W90311  34.090   6.483  24.678  0.3535  0.0388 -0.0259
47374W        W90312  32.368   5.301  19.826  0.1512  0.0722  0.0682
47375W        W90313  32.759   5.778  24.681  0.0760 -0.2777  0.0507
47376W        W90314  32.694   5.448  23.355 -0.0328 -0.0004 -0.0871
47377W        W90315   0.169   6.339  22.646  0.0593  0.1606 -0.1246
47378W        W90316  32.576   7.530  23.436  0.0165 -0.1588 -0.1535
47379W        W90317  32.819   5.359  22.808 -0.0309  0.1339  0.1367
47380W        W90318  34.085   2.621  23.017  0.0559  0.1997  0.1493
47381W        W90319  33.921   4.249  19.383  0.2122 -0.1587 -0.0323
47382W        W90320  32.137   7.907  21.507 -0.2324  0.0117  0.2046
47383W        W90321  34.008   3.193  22.895  0.0701 -0.1046  0.3433
47384W        W90322  32.651   6.586  20.470  0.0914  0.0275 -0.0253
47385W        W90323   0.180   3.361  22.408  0.0922 -0.1958  0.0011
47386W        W90324  33.472   5.596  25.853  0.1518  0.0530  0.1030
47387W        W90325  33.305   7.995  23.364 -0.0385 -0.3219 -0.0304
47388W        W90326   0.323   4.948  22.890 -0.0456  0.2593  0.1750
47389W        W90327  34.669   8.110  22.842 -0.1829 -0.0260  0.2079
47390W        W90328  33.829   5.823  20.424  0.1399 -0.3316 -0.0789
47391W        W90329  32.645   3.574  21.364  0.0602 -0.0397  0.1734
47392W        W90330  33.817   6.250  23.662  0.0167  0.2189  0.0425
47393W        W90331  34.009   7.065  18.900 -0.0639 -0.3485 -0.0300
47394W        W90332  33.894   5.988  21.027  0.1555 -0.0316 -0.0034
47395W        W90333  32.718   6.548  22.578  0.0136 -0.0789 -0.1940
47396W        W90334  33.875   4.577  18.920 -0.0814  0.1320  0.0474
47397W        W90335  33.215   5.062  20.170 -0.0740  0.1046 -0.3233
47398W        W90336  32.627   3.144  21.724  0.0560 -0.4466 -0.3149
47399W        W90337  32.733   4.102  21.337  0.0517  0.0057 -0.3893
47400W        W90338  33.564   5.664  22.998  0.2241  0.1970 -0.1327
47401W        W90339  33.271   5.023  24.769 -0.0520  0.0260 -0.0372
47402W        W90340  31.035   5.121  20.368 -0.0931  0.1264 -0.0839
47403W        W90341  33.442   4.046  23.229 -0.2215  0.1283 -0.1854
47404W        W90342  32.891   6.658  22.085 -0.2334  0.2379 -0.1142
47405W        W90343  31.870   5.152  21.112  0.0659  0.0165 -0.1140
47406W        W90344  33.445   6.363  21.384 -0.1126  0.0120 -0.0412
47407W        W90345  33.477   5.075  24.216 -0.0754  0.5840  0.0132
47408W        W90346  33.921   5.007  22.982  0.1140  0.3321 -0.3110
47409W        W90347  33.703   4.997  20.367 -0.6356  0.0350  0.2665
47410W        W90348  33.082   5.820  23.040 -0.2028  0.0216  0.1220
47411W        W90349  34.609   3.757  23.306  0.1261  0.2535 -0.1717
47412W        W90350  31.324   8.056  23.775  0.1944 -0.3289 -0.1474
47413W        W90351  31.972   5.675  19.973 -0.3808  0.2356 -0.1785
47414W        W90352  33.489   5.253  22.333 -0.3805  0.0535 -0.0051
47415W        W90353  33.644   5.217  19.801  0.3057 -0.1974 -0.3944
47416W        W90354  33.114   2.849  21.729 -0.0121 -0.0879 -0.2548
47417W        W90355  33.411   5.278  25.309 -0.2174 -0.3018 -0.2002
47418W        W90356  32.428   6.629  19.500  0.0479 -0.0687 -0.0810
47419W        W90357  31.238   6.504  23.667  0.0660  0.0669 -0.3219
47420W        W90358  34.247   4.712  20.633  0.3334  0.0374 -0.1839
47421W        W90359  33.470   4.157  24.042  0.0125  0.1386  0.0316
47422W        W90360  34.111   4.931  22.443  0.0547 -0.1332 -0.0525
47423W        W90361  34.168   5.524  24.909 -0.3091  0.1607 -0.2688
47424W        W90362  32.797   3.014  20.435  0.2374  0.0837 -0.1533
47425W        W90363  32.783   5.251  23.802 -0.2011  0.2875 -0.2208
47426W        W90364  34.215   6.214  20.579 -0.0557 -0.0201  0.1712
47427W        W90365  33.417   5.738  23.568  0.2720 -0.2515  0.4457
47428W        W90366  32.700   6.454  21.037  0.1434 -0.1235  0.0431
47429W        W90367   0.208   5.712  23.210 -0.3329 -0.0060  0.1852
47430W        W90368  33.486   3.346  22.818  0.5439  0.5059 -0.1314
47431W        W90369  33.861   5.999  25.065  0.2488  0.2294 -0.0967
47432W        W90370  32.785   4.782  23.670 -0.0169 -0.1640  0.1144
47433W        W90371  34.565   5.222  22.853  0.0997  0.0081  0.0365
47434W        W90372  34.403   3.827  20.616  0.0552  0.0602 -0.0292
47435W        W90373  32.831   8.429  19.250  0.2443 -0.0803  0.0735
47436W        W90374  33.421   5.198  22.861 -0.2909 -0.0316  0.0438
47437W        W90375  32.316   6.912  24.337 -0.2245  0.0326  0.2964
47438W        W90376  34.272   4.695  19.293 -0.3783  0.0544  0.2195
47439W        W90377  33.897   5.631  19.654  0.0265 -0.1009  0.2448
47440W        W90378  34.389   5.712  22.585  0.0174  0.0351 -0.2334
47441W        W90379   0.986   4.529  21.056  0.1992  0.1256  0.0973
47442W        W90380  33.452   6.188  20.876 -0.0167  0.0946  0.1187
47443W        W90381  32.849   6.733  24.356  0.1141 -0.3361  0.1038
47444W        W90382  31.744   6.295  23.529  0.0113  0.0616  0.1840
47445W        W90383  33.454   6.122  22.721  0.3772 -0.1100 -0.0681
47446W        W90384  34.089   5.607  23.015 -0.0139 -0.4420 -0.1866
47447W        W90385  33.882   4.424  21.440  0.1250  0.1627 -0.0809
47448W        W90386  31.801   5.342  23.910  0.1402 -0.1399 -0.3789
47449W        W90387  33.474   4.762  23.117  0.1276 -0.1097 -0.1959
47450W        W90388  33.052   3.836  21.011  0.1124 -0.2312 -0.1612
47451W        W90389  32.894   6.194  24.312  0.0193 -0.3547 -0.0369
47452W        W90390  32.913   5.715  24.108  0.0713 -0.2042  0.2594
47453W        W90391  33.745   6.631  21.688  0.2961  0.2988  0.2860
47454W        W90392   0.755   4.530  19.974 -0.1218  0.0504  0.0679
47455W        W90393  32.742   7.483  22.610  0.3140  0.0708  0.0251
47456W        W90394  32.074   7.242  20.144 -0.0918 -0.2853  0.0102
47457W        W90395   0.432   7.975  22.482 -0.0647 -0.1305  0.2195
47458W        W90396  34.604   4.791  23.064 -0.1195  0.0356 -0.2659
47459W        W90397  34.696   2.963  21.256  0.1270  0.3959 -0.0643
47460W        W90398  34.285   6.005  24.822 -0.0457  0.1027 -0.5608
47461W        W90399  31.658   8.892  23.205 -0.0872 -0.0462  0.2307
47462W        W90400  32.944   5.101  21.309 -0.2143  0.1054 -0.0262
47463W        W90401  32.914   4.967  23.191 -0.3039 -0.0816  0.1787
47464W        W90402   0.241   6.713  20.093 -0.0291 -0.3023 -0.3966
47465W        W90403  32.532   5.750  22.970 -0.2519 -0.0452  0.0983
47466W        W90404  34.099   7.339  23.170  0.0104 -0.2791  0.1854
47467W        W90405  33.166   6.312  23.462  0.0094 -0.1984  0.1200
47468W        W90406  32.625   4.685  21.517 -0.2304  0.1631  0.0782
47469W        W90407  33.290   3.370  22.184  0.0359 -0.1826 -0.0759
47470W        W90408  32.422   6.219  20.713  0.1920  0.0654 -0.0949
47471W        W90409  33.235   5.380  23.958 -0.2809  0.0784  0.1021
47472W        W90410   0.840   5.187  20.678 -0.1216 -0.1216 -0.2704
47473W        W90411  32.866   3.541  21.843  0.5522 -0.2009 -0.0347
47474W        W90412  32.295   6.190  22.827  0.2351  0.2497 -0.1564
47475W        W90413  33.695   5.598  24.811  0.1661 -0.2994 -0.0854
47476W        W90414  32.942   3.790  20.535 -0.0525 -0.1688  0.4964
47477W        W90415  33.566   7.213  19.402  0.1031  0.3241 -0.0283
47478W        W90416  31.478   4.995  22.260 -0.1774 -0.0671  0.0599
47479W        W90417  33.502   3.415  21.194 -0.0211  0.0302 -0.0919
47480W        W90418  33.190   5.605  22.510 -0.1145 -0.1019  0.3246
47481W        W90419  33.811   6.436  22.775 -0.1085 -0.2556  0.1021
47482W        W90420  33.750   8.790  19.019  0.0919 -0.1706 -0.0732
47483W        W90421  34.008   5.135  22.035 -0.0691  0.2372  0.1564
47484W        W90422  32.739   6.497  23.734 -0.3869 -0.1395  0.1397
47485W        W90423  32.425   5.458  20.309 -0.0147  0.2480  0.0688
47486W        W90424  34.123   6.619  23.769 -0.1952 -0.2400  0.4902
47487W        W90425  33.531   5.998  21.752  0.0209  0.0334 -0.1425
47488W        W90426  33.188   5.460  21.092 -0.0745  0.0412 -0.0953
47489W        W90427  34.228   4.705  21.189  0.1112  0.0843  0.0748
47490W        W90428  32.469   4.723  20.835 -0.2517 -0.0652  0.1515
47491W        W90429  33.910   5.712  23.443 -0.2457  0.1494  0.1136
47492W        W90430  32.113   4.293  22.121 -0.0111  0.2853  0.1739
47493W        W90431  33.354   6.106  20.390 -0.3921  0.1612  0.3268
47494W        W90432  32.945   5.897  23.587 -0.0778  0.2857  0.1877
47495W        W90433   2.134   2.590  24.468 -0.0031  0.2271 -0.0574
47496W        W90434  34.170   3.961  23.914  0.0831 -0.0329  0.0439
47497W        W90435  31.372   6.964  23.721  0.0552 -0.1154 -0.1439
47498W        W90436   0.096   4.655  21.245  0.1815 -0.3222 -0.2662
47499W        W90437  33.426   3.288  21.694 -0.1012 -0.0901 -0.1518
47500W        W90438  33.458   4.774  21.287 -0.0541 -0.0363  0.0557
47501W        W90439  33.907   3.833  22.470 -0.2131 -0.1474  0.0638
47502W        W90440  33.050   6.480  20.188  0.3283  0.0915  0.2665
47503W        W90441  33.781   4.395  23.192 -0.1784 -0.1121  0.2624
47504W        W90442  34.170   5.302  24.358  0.1470 -0.1059  0.5010
47505W        W90443  32.222   4.480  21.403  0.1304 -0.2640 -0.1547
47506W        W90444   0.358   4.791  23.511  0.1117  0.0855 -0.0407
47507W        W90445   0.458   6.161  23.037  0.0949 -0.0673 -0.3185
47508W        W90446  33.199   6.535  23.924  0.0470 -0.0652 -0.0568
47509W        W90447  32.467   4.707  24.120 -0.1541 -0.2342 -0.2025
47510W        W90448  33.382   6.062  23.996  0.1133 -0.0857  0.1085
47511W        W90449  33.002   4.943  22.569 -0.0535  0.0977 -0.0761
47512W        W90450  33.179   5.424  23.278  0.2044  0.2519  0.1691
47513W        W90451  32.287   3.086  22.091 -0.0721 -0.0640 -0.1591
47514W        W90452  32.978   4.365  21.833  0.4074 -0.1174  0.0158
47515W        W90453   0.644   4.282  20.453 -0.2058 -0.1129 -0.0697
47516W        W90454   0.172   5.195  23.300  0.0696  0.0596 -0.2363
47517W        W90455  34.040   6.246  21.466 -0.1844 -0.3935  0.0661
47518W        W90456  33.931   7.709  23.431 -0.2708 -0.0211 -0.0928
47519W        W90457  32.424   3.704  21.829 -0.1590 -0.5445 -0.1613
47520W        W90458  34.076   5.203  20.560 -0.0443  0.1405  0.1230
47521W        W90459  34.232   5.619  22.011  0.2508 -0.1005 -0.1115
47522W        W90460  33.071   6.328  22.949 -0.2742 -0.0438 -0.0879
47523W        W90461  33.602   6.110  23.249 -0.1231  0.0637 -0.0951
47524W        W90462  33.338   5.280  26.212  0.2132  0.0026 -0.0757
47525W        W90463  33.443   3.509  25.297  0.0691 -0.3138  0.0401
47526W        W90464  31.496   4.905  26.632  0.1653  0.2477  0.2779
47527W        W90465  33.376   2.958  26.885 -0.0277 -0.1385  0.0624
47528W        W90466  34.249   4.879  25.782 -0.0530 -0.1637 -0.0498
47529W        W90467  33.841   5.579  26.412 -0.0873 -0.1210  0.0668
47530W        W90468  33.941   4.359  25.140 -0.2105 -0.2344  0.3372
47531W        W90469  32.436   3.668  26.554 -0.0003 -0.0458 -0.0807
47532W        W90470  33.798   5.114  26.194 -0.0675 -0.1053  0.0498
47533W        W90471  33.765   3.763  27.836 -0.0439  0.1779  0.2545
47534W        W90472   0.062   3.668  24.766  0.0369  0.1843  0.1371
47535W        W90473   0.396   4.718  26.739  0.0339 -0.1410  0.2087
47536W        W90474  34.008   7.619  22.812 -0.0375  0.0756  0.1508
47537W        W90475  32.939   4.913  24.287 -0.1176 -0.1109  0.0756
47538W        W90476  33.177   4.413  25.770  0.3121  0.0417  0.1719
47539W        W90477  33.478   5.269  27.243  0.0139 -0.0140 -0.2172
47540W        W90478   0.704   9.316  24.308 -0.3943 -0.1426  0.1219
47541W        W90479   0.829   7.090  25.394 -0.1651 -0.0656  0.3232
47542W        W90480  33.481   5.804  27.062 -0.0586  0.2167 -0.3544
47543W        W90481  33.434   8.013  24.582  0.1685 -0.0128 -0.0961
47544W        W90482  33.390   6.360  25.360  0.1351 -0.2406 -0.0542
47545W        W90483   0.024   5.831  26.848  0.1034 -0.0976 -0.2495
47546W        W90484  33.202   6.985  24.599 -0.0891  0.0415  0.0186
47547W        W90485  33.291   6.281  26.678  0.4226 -0.0124  0.0938
47548W        W90486  33.325   7.835  25.525 -0.1563 -0.1113  0.1247
47549W        W90487   0.502   6.183  24.552 -0.1676  0.1514 -0.1292
47550W        W90488   0.160   6.427  28.286 -0.0753 -0.1610  0.0498
47551W        W90489  32.783   6.914  25.380  0.0098  0.0834  0.1359
47552W        W90490  33.048   5.750  26.496  0.2005  0.0960 -0.0922
47553W        W90491  34.437   4.785  24.295 -0.0874  0.0171  0.1068
47554W        W90492  34.379   3.317  27.463 -0.1150 -0.0594  0.0787
47555W        W90493  33.873   7.806  24.499 -0.3760  0.0421 -0.1366
47556W        W90494  34.256   2.822  25.231  0.1364 -0.2094 -0.2747
47557W        W90495  34.666   5.439  26.146  0.1097 -0.1037  0.0321
47558W        W90496  32.766   5.095  25.894 -0.2088 -0.1333  0.3554
47559W        W90497  33.246   5.122  25.749  0.0675  0.4977 -0.0103
47560W        W90498  32.992   5.469  27.455  0.0172  0.1591 -0.3010
47561W        W90499  33.158   4.984  26.583  0.0658 -0.0895 -0.1053
47562W        W90500  33.082   3.763  23.186 -0.1778  0.1491 -0.0716
47563W        W90501  33.080   6.729  27.921  0.0484 -0.2862 -0.0062
47564W        W90502  32.798   5.345  26.353  0.1988  0.2855  0.0154
47565W        W90503  32.920   3.496  25.310 -0.1848 -0.1792 -0.2394
47566W        W90504  34.236   5.856  25.314 -0.0529  0.1083 -0.1066
47567W        W90505   0.269   7.411  27.230  0.0282  0.1181  0.2432
47568W        W90506  33.972   4.063  27.478 -0.5452 -0.1025 -0.1638
47569W        W90507   0.827   5.506  27.838  0.0021 -0.0993  0.0994
47570W        W90508  32.111   8.309  23.649  0.2632 -0.1462 -0.0004
47571W        W90509  33.052   5.406  26.927  0.0710 -0.1465 -0.0422
47572W        W90510  30.821   7.426  24.489  0.3079  0.3181  0.1983
47573W        W90511  32.834   3.536  27.412 -0.2081  0.0431  0.1058
47574W        W90512   0.247   4.360  27.040  0.0462  0.0243 -0.0760
47575W        W90513  34.057   4.576  26.726  0.2796 -0.0073 -0.2851
47576W        W90514  33.208   6.104  25.746 -0.0672  0.1061  0.0811
47577W        W90515  32.708   4.826  26.383  0.2839 -0.2237 -0.0219
47578W        W90516  31.755   6.365  24.936  0.3110 -0.1879  0.0276
47579W        W90517  33.692   4.809  28.663 -0.4915  0.3754 -0.2786
47580W        W90518  32.613   4.505  25.979 -0.4291 -0.1024  0.1600
47581W        W90519  33.423   4.534  24.936 -0.2223 -0.0429 -0.1207
47582W        W90520  32.761   6.156  26.719  0.1120 -0.0602  0.0769
47583W        W90521  33.701   7.325  25.658 -0.2993 -0.2126 -0.0732
47584W        W90522  32.889   4.048  26.696 -0.1390  0.0030 -0.0015
47585W        W90523  32.989   5.628  25.976  0.1422  0.0106 -0.3128
47586W        W90524  34.204   6.228  25.684  0.0392  0.0127  0.2867
47587W        W90525   1.204   7.144  26.006 -0.0033 -0.1551  0.1647
47588W        W90526  32.773   4.848  24.772 -0.0005 -0.1551  0.0225
47589W        W90527  33.567   6.270  27.194  0.0213  0.0958 -0.1914
47590W        W90528  33.558   4.631  23.939 -0.1265 -0.0868  0.4276
47591W        W90529  33.851   7.386  24.057 -0.0046  0.0025  0.2103
47592W        W90530  32.656   5.678  26.790  0.1440 -0.0974  0.0633
47593W        W90531   0.337   6.639  24.446  0.1593 -0.0763 -0.4448
47594W        W90532  33.828   5.491  28.105  0.4465  0.2384 -0.1734
47595W        W90533  33.306   4.662  24.435  0.1014  0.3444  0.1517
47596W        W90534  33.825   6.839  27.982 -0.2219  0.0149  0.1754
47597W        W90535  33.557   5.749  27.787  0.0839 -0.1083  0.0859
47598W        W90536  34.666   7.530  24.743  0.0130  0.0083 -0.2828
47599W        W90537   0.723   6.155  26.297  0.1661 -0.3629 -0.1631
47600W        W90538  32.957   6.163  26.237 -0.0601  0.2558 -0.2330
47601W        W90539  34.087   3.984  26.123  0.0585  0.0790 -0.2535
47602W        W90540   0.018   4.958  25.044 -0.4687 -0.1153  0.0146
47603W        W90541  31.368   7.107  24.217  0.0073 -0.0763 -0.1190
47604W        W90542  34.434   4.014  27.421  0.1853  0.0426 -0.3135
47605W        W90543  33.642   5.521  24.302  0.0619 -0.0044 -0.0179
47606W        W90544   0.256   4.087  27.568 -0.2128  0.0627  0.0776
47607W        W90545  32.750   4.933  27.341  0.2831 -0.1767  0.0054
47608W        W90546  33.459   6.763  26.491  0.1778  0.0014  0.2826
47609W        W90547   0.523   4.911  27.131 -0.5158  0.2568  0.1680
47610W        W90548  34.006   6.951  24.317 -0.2539  0.0334 -0.1702
47611W        W90549  34.361   6.332  25.214 -0.0285 -0.1325 -0.0644
47612W        W90550  33.607   2.130  27.348 -0.1113 -0.1887  0.0911
47613W        W90551  34.530   7.872  25.357  0.1058 -0.2580  0.2321
47614W        W90552  33.377   6.461  24.443  0.1235  0.2168 -0.1280
47615W        W90553  32.729   7.285  25.919 -0.1867 -0.1160 -0.3141
47616W        W90554  32.374   7.245  25.494 -0.1728 -0.2122 -0.0813
47617W        W90555  32.478   3.860  24.724  0.2458 -0.0035  0.1583
47618W        W90556  33.476   5.857  25.334 -0.0736  0.0471  0.0128
47619W        W90557  34.666   3.666  25.250  0.1705  0.1336  0.0569
47620W        W90558   0.543   3.435  27.945  0.1627 -0.0202  0.0110
47621W        W90559  32.616   7.816  26.285  0.2683 -0.3302 -0.0022
47622W        W90560   0.945   3.759  28.175 -0.0905 -0.1133  0.2404
47623W        W90561  32.984   6.112  25.203 -0.2254  0.2755 -0.1639
47624W        W90562  33.837   5.088  25.124  0.0131  0.0676  0.1804
47625W        W90563  33.582   7.631  24.844  0.1160 -0.1984  0.0240
47626W        W90564  33.634   4.756  25.890 -0.1820  0.3095 -0.2623
47627W        W90565  33.739   6.186  25.758  0.1145 -0.0833  0.1043
47628W        W90566  34.328   4.939  27.520 -0.2340  0.1959  0.0486
47629W        W90567  33.914   3.547  27.255 -0.0067  0.0758 -0.2406
47630W        W90568  34.450   4.577  25.383 -0.0386  0.2072  0.0805
47631W        W90569   0.977   3.582  27.238  0.3603 -0.3132  0.2273
47632W        W90570  34.694   5.372  28.085 -0.0353  0.0118 -0.2764
47633W        W90571  34.655   4.136  28.791 -0.2772  0.0828  0.2174
47634W        W90572  32.147   5.906  25.494 -0.1381 -0.0636 -0.1285
47635W        W90573  33.641   4.661  27.115 -0.0108  0.1566  0.1466
47636W        W90574  32.132   7.630  25.206 -0.0897  0.1529 -0.0680
47637W        W90575   0.729   3.768  27.641 -0.0436 -0.1751  0.0204
47638W        W90576   0.041   4.861  26.096 -0.1579  0.1145 -0.1120
47639W        W90577  32.212   7.547  24.667 -0.0298 -0.0180  0.1294
47640W        W90578  33.091   7.738  28.326  0.1130 -0.3657 -0.2458
47641W        W90579  34.290   5.060  25.284  0.0389 -0.3407  0.0296
47642W        W90580  34.204   4.101  26.922 -0.0508 -0.0899 -0.3142
47643W        W90581  33.795   4.494  27.698 -0.0032 -0.2540  0.3237
47644W        W90582  34.000   5.589  27.592 -0.0180  0.1028  0.0499
47645W        W90583  32.006   6.363  25.645 -0.0871 -0.0531 -0.0026
47646W        W90584   0.734   4.168  26.460 -0.3329 -0.1575  0.2863
47647W        W90585   0.029   6.150  24.422 -0.0320 -0.0637  0.0840
47648W        W90586  32.369   7.681  25.732 -0.1803 -0.0792  0.4532
47649W        W90587   1.043   5.894  25.164  0.0737 -0.0110 -0.3078
47650W        W90588  34.370   5.795  26.397  0.3351 -0.2142 -0.1760
47651W        W90589  34.371   2.651  28.126 -0.0042 -0.1891  0.1607
47652W        W90590  34.553   4.511  27.433 -0.1615  0.3725  0.0309
47653W        W90591  31.890   3.999  27.586 -0.3765 -0.2433  0.1189
47654W        W90592  33.518   4.404  25.414  0.0357 -0.1123  0.1967
47655W        W90593  33.924   4.092  24.618  0.2498  0.2442 -0.0218
47656W        W90594   0.500   5.720  23.925  0.0662 -0.2195  0.1151
47657W        W90595  31.231   6.059  25.865  0.0153 -0.2068 -0.1115
47658W        W90596   0.189   5.912  26.335 -0.2475  0.2272 -0.2125
47659W        W90597  32.156   4.628  23.725 -0.0606  0.1361  0.1653
47660W        W90598  34.625   5.492  25.345  0.0881  0.0314 -0.0490
47661W        W90599   1.235   4.398  25.314 -0.1016  0.4456 -0.0329
47662W        W90600  34.288   5.018  24.793 -0.1724 -0.2698  0.0372
47663W        W90601  34.678   6.456  25.782 -0.0180 -0.0560  0.0216
47664W        W90602  34.392   6.625  26.642 -0.0944 -0.0910  0.1880
47665W        W90603  32.504   6.467  26.340 -0.0070  0.0906  0.0184
47666W        W90604   0.150   6.922  26.206 -0.1734  0.1261  0.2503
47667W        W90605  33.792   5.214  25.718  0.2384 -0.0224 -0.1518
47668W        W90606  33.812   3.995  25.468  0.0328 -0.0303 -0.1543
47669W        W90607  34.227   4.584  26.181  0.2847  0.0631  0.1462
47670W        W90608  31.239   4.822  28.262 -0.1045 -0.0608 -0.1600
47671W        W90609  34.679   2.997  24.851 -0.1145 -0.2083 -0.2774
47672W        W90610   0.640   6.383  28.396  0.0330 -0.2209  0.1674
47673W        W90611  32.996   5.468  25.522  0.3242 -0.0518  0.2246
47674W        W90612  32.717   7.221  24.494  0.0772 -0.0483  0.1137
47675W        W90613  34.336   5.371  25.755  0.1287 -0.1496  0.0225
47676W        W90614   0.603   6.161  25.056 -0.0850 -0.1640 -0.1021
47677W        W90615  31.873   7.617  25.821  0.0189  0.0971 -0.1995
47678W        W90616  33.402   9.257  24.776 -0.0132  0.1443  0.2317
47679W        W90617  33.998   5.117  26.637 -0.0436  0.1123  0.0368
47680W        W90618  33.877   5.490  25.333 -0.3271 -0.3010  0.3678
47681W        W90619  33.009   4.102  27.159 -0.3111 -0.0552  0.1893
47682W        W90620   0.574   6.509  27.086 -0.1210  0.1115  0.4661
47683W        W90621  31.977   5.946  24.566  0.0663 -0.1075  0.0263
47684W        W90622   0.715   4.334  25.916 -0.0152 -0.2794  0.3354
47685W        W90623  33.942   5.724  25.887  0.1593 -0.0122 -0.0862
47686W        W90624  33.101   7.320  24.179 -0.1302  0.0007 -0.1097
47687W        W90625  34.653   6.385  26.310  0.0535 -0.1126  0.0946
47688W        W90626  34.504   7.467  26.192  0.1352 -0.1776 -0.0244
47689W        W90627  32.364   5.092  25.017 -0.4851 -0.0226 -0.0857
47690W        W90628  33.983   5.029  27.148 -0.2802  0.0024 -0.0708
47691W        W90629  33.691   4.309  26.118  0.3781  0.1952  0.0433
47692W        W90630  34.098   4.188  28.052  0.0050 -0.0772  0.1066
47693W        W90631  33.789   5.146  24.610 -0.0010 -0.0389 -0.0213
47694W        W90632  33.388   4.202  24.507  0.1250  0.0052 -0.0668
47695W        W90633  31.858   5.393  25.287 -0.1279  0.2032 -0.1144
47696W        W90634  34.068   3.633  26.536  0.1416  0.1738 -0.0636
47697W        W90635  33.937   4.837  24.263  0.2395 -0.1160 -0.1927
47698W        W90636  34.089   6.178  26.282 -0.2245  0.0251 -0.0736
47699W        W90637  32.425   4.800  27.695 -0.0085  0.1207 -0.1229
47700W        W90638   0.505   4.312  23.491  0.0183 -0.4070 -0.0632
47701W        W90639   0.084   5.098  26.601  0.3979  0.1143 -0.3819
47702W        W90640  33.244   6.560  25.952 -0.0725  0.0663 -0.0587
47703W        W90641  33.514   6.708  23.596  0.0081 -0.1708 -0.4429
47704W        W90642   0.810   5.032  25.738 -0.0511  0.0992  0.1781
47705W        W90643  34.406   6.545  27.368  0.3802  0.1114  0.1788
47706W        W90644  32.958   4.357  25.085 -0.0105  0.1597  0.4479
47707W        W90645   0.752   4.734  26.388  0.2679 -0.0612 -0.0815
47708W        W90646   0.760   6.846  26.033  0.1831  0.0026 -0.1256
47709W        W90647  33.606   7.045  25.072  0.1146 -0.0776 -0.1336
47710W        W90648  34.538   4.408  25.831  0.0255  0.2111 -0.0178
47711W        W90649  34.383   3.465  26.952  0.5512  0.1361  0.0486
47712W        W90650  33.998   6.020  27.333 -0.2469  0.0478 -0.0093
47713W        W90651  32.212   4.147  23.472  0.2506 -0.3665 -0.1073
47714W        W90652  33.725   6.538  24.057 -0.0448 -0.1302 -0.1423
47715W        W90653  33.450   5.384  26.651 -0.1941 -0.0975  0.1438
47716W        W90654  33.846   3.818  29.109  0.2921  0.0589  0.1581
47717W        W90655  33.698   4.094  27.092  0.4026  0.0337  0.3253
47718W        W90656  32.875   6.485  25.521 -0.0383  0.1523 -0.1940
47719W        W90657  34.350   3.997  25.008  0.1193  0.1713 -0.1465
47720W        W90658  33.851   3.028  27.343 -0.1943 -0.1526  0.1539
47721W        W90659  32.869   4.403  24.527 -0.0782  0.1507  0.1697
47722W        W90660   0.348   4.447  26.262  0.0325  0.1313  0.1795
47723W        W90661  33.524   7.001  24.066  0.0837  0.2477 -0.2814
47724W        W90662   1.020   6.118  26.754 -0.0393 -0.0628 -0.3574
47725W        W90663   0.127   2.356  27.998 -0.0847 -0.2243 -0.0789
47726W        W90664  33.878   4.378  23.671 -0.2296 -0.0342 -0.1075
47727W        W90665  33.770   4.563  24.604  0.1439  0.0904  0.0314
47728W        W90666   0.365   5.537  26.623 -0.2548 -0.0080  0.3568
47729W        W90667  32.457   6.322  25.840  0.3208  0.1935 -0.0164
47730W        W90668  32.671   2.376  27.134 -0.1211  0.1644  0.1193
47731W        W90669  34.017   5.936  26.735  0.0407 -0.1498 -0.3640
47732W        W90670   0.111   3.744  28.057 -0.1895  0.0047 -0.2778
47733W        W90671  32.960   5.925  27.138  0.0624  0.0740  0.0363
47734W        W90672   0.233   3.805  24.190 -0.1022  0.1849  0.0485
47735W        W90673  32.741   3.366  26.232  0.0306  0.0189  0.1097
47736W        W90674  34.644   4.601  26.542 -0.1705 -0.4482  0.2239
47737W        W90675   0.825   5.093  26.713  0.0621  0.0464  0.1108
47738W        W90676  34.205   4.945  23.876 -0.1295 -0.0420  0.0043
47739W        W90677   0.357   6.104  25.855 -0.0960  0.1861 -0.1032
47740W        W90678  33.699   4.444  28.240  0.0434 -0.2456 -0.0098
47741W        W90679  33.894   4.724  25.470  0.1565 -0.1379  0.1001
47742W        W90680  33.485   5.952  26.275 -0.0637 -0.4273 -0.2539
47743W        W90681  34.537   4.152  26.360 -0.2310  0.0672  0.1651
47744W        W90682   0.630   7.113  26.416  0.2843  0.1546 -0.3422
47745W        W90683   0.126   5.639  30.816  0.0939  0.0593 -0.2724
47746W        W90684   0.247   4.901  29.506  0.0453 -0.0522 -0.2284
47747W        W90685  34.263   5.355  30.033 -0.1991  0.0457  0.1906
47748W        W90686  33.033   3.350  29.972  0.2849 -0.1411  0.3428
47749W        W90687   0.952   4.448  30.531  0.0380 -0.2221 -0.1572
47750W        W90688   0.121   6.189  30.156 -0.0222  0.2891  0.4593
47751W        W90689   1.975   4.066  27.819 -0.0413 -0.1865  0.0338
47752W        W90690  33.895   2.871  29.505 -0.3519 -0.0352 -0.0312
47753W        W90691   0.062   5.108  28.507 -0.0728  0.0238  0.1499
47754W        W90692  34.187   5.839  31.390  0.0894 -0.2164  0.1709
47755W        W90693   1.302   4.566  28.144 -0.2983 -0.1843  0.0913
47756W        W90694   1.125   3.282  29.585 -0.0142  0.1560  0.0285
47757W        W90695   0.928   7.330  28.112  0.3693 -0.0373  0.2710
47758W        W90696  34.012   4.348  25.739 -0.1409  0.1623  0.0413
47759W        W90697  33.316   5.205  29.290  0.1606  0.0951  0.1781
47760W        W90698   0.248   4.254  30.266 -0.1141 -0.1586 -0.2959
47761W        W90699  34.248   7.818  29.151  0.1459  0.0165 -0.0543
47762W        W90700   1.062   6.691  30.264 -0.0164  0.1246 -0.0720
47763W        W90701  33.118   5.657  28.970 -0.1451 -0.0019 -0.0592
47764W        W90702  31.671   7.588  30.001  0.0208  0.1312 -0.1741
47765W        W90703   1.234   7.190  28.964  0.0589  0.1597  0.0403
47766W        W90704  33.891   7.542  30.854 -0.0014 -0.1748  0.2329
47767W        W90705  32.506   6.064  28.471  0.4365 -0.1092 -0.0048
47768W        W90706  33.993   6.007  29.009  0.1036  0.1196  0.0197
47769W        W90707   0.644   6.283  27.545 -0.0650 -0.4404 -0.1000
47770W        W90708   0.469   6.674  28.858 -0.2748 -0.1871 -0.0005
47771W        W90709  34.356   5.004   0.766  0.1008  0.2523 -0.0863
47772W        W90710  32.046   6.107  31.377 -0.5228 -0.0816 -0.1843
47773W        W90711  34.447   6.468  29.276 -0.1725  0.5537  0.1681
47774W        W90712   0.488   4.643  28.261  0.0276 -0.2390  0.2999
47775W        W90713   0.736   3.983  29.283 -0.2260  0.2340  0.0853
47776W        W90714  33.698   6.890  29.394 -0.0774  0.0450 -0.0548
47777W        W90715   0.695   5.018  29.488 -0.2009  0.0895 -0.3546
47778W        W90716  34.423   6.448  29.833 -0.0127 -0.0618 -0.1692
47779W        W90717  32.433   6.241  29.611 -0.2166  0.1430  0.4070
47780W        W90718  34.422   4.669  28.881  0.1591 -0.1338  0.3766
47781W        W90719  32.203   5.515   0.146 -0.5526  0.0111  0.1360
47782W        W90720  33.312   4.809  31.517  0.2529  0.2053 -0.2487
47783W        W90721  34.246   3.707  27.757  0.1113  0.3889 -0.1290
47784W        W90722  33.587   7.084  31.975  0.4108 -0.0014  0.2490
47785W        W90723  32.757   6.468  28.871  0.0929  0.1543  0.1045
47786W        W90724  33.908   5.539  27.049 -0.2329 -0.1603  0.3128
47787W        W90725  34.456   5.509  28.545  0.1907 -0.0887  0.1732
47788W        W90726  34.379   7.491  29.778  0.1428  0.0254  0.1980
47789W        W90727   0.014   4.721  31.607 -0.3146  0.4394  0.1659
47790W        W90728  34.062   6.332  31.573 -0.0277  0.0764 -0.4634
47791W        W90729  34.380   6.671  28.294  0.0102  0.0154 -0.0584
47792W        W90730  32.677   7.045  30.502  0.1494  0.1554  0.0095
47793W        W90731  34.619   6.521  28.691  0.3637 -0.0684  0.0843
47794W        W90732  33.463   4.421  30.213  0.0184 -0.1312 -0.2282
47795W        W90733   0.996   6.100  27.886  0.2023  0.0871 -0.2389
47796W        W90734  33.960   4.681  30.111  0.3198 -0.1160  0.0038
47797W        W90735  34.575   4.265  27.903 -0.1389  0.2049 -0.0584
47798W        W90736  33.633   5.432  29.671 -0.0592 -0.1659 -0.2014
47799W        W90737   0.540   5.074  28.678  0.1156 -0.1434  0.3584
47800W        W90738  32.659   5.236  30.126  0.2057  0.3097 -0.2156
47801W        W90739  33.521   4.473  29.190  0.0651  0.3710 -0.0473
47802W        W90740  34.111   3.269  29.093  0.0704  0.4343  0.2372
47803W        W90741   1.369   5.724  27.219 -0.1756 -0.0560 -0.0591
47804W        W90742  34.246   5.167  28.047 -0.2705  0.0318 -0.0599
47805W        W90743  32.161   4.783  31.367 -0.2638  0.2391  0.3299
47806W        W90744  33.767   4.956  28.197  0.0963  0.0035 -0.0633
47807W        W90745  33.494   7.662  29.167 -0.1406  0.3565  0.1689
47808W        W90746  34.497   5.984  28.727  0.0926  0.0995  0.1014
47809W        W90747  34.239   4.956  28.519  0.0613 -0.0497 -0.1801
47810W        W90748  33.785   6.515  29.706  0.2723  0.1122  0.0754
47811W        W90749  33.379   6.069  28.128  0.1818 -0.0150 -0.0185
47812W        W90750  33.863   6.757  28.563 -0.2166  0.1028 -0.2626
47813W        W90751  30.451   6.268  30.815  0.0579 -0.2372 -0.0935
47814W        W90752   0.322   6.547  30.479  0.0022  0.3816  0.0613
47815W        W90753  34.611   6.287  31.285 -0.1407 -0.0143  0.2156
47816W        W90754   0.098   5.787  29.099 -0.3794  0.0172 -0.0673
47817W        W90755  34.194   6.142  30.960 -0.2610 -0.0489 -0.2290
47818W        W90756  34.044   5.570   1.222 -0.3715  0.0480 -0.2883
47819W        W90757   1.136   6.433  28.492  0.0394  0.0057 -0.1632
47820W        W90758   0.909   5.861  27.480  0.4106 -0.0244 -0.0796
47821W        W90759  33.911   5.682  30.048 -0.0526  0.2003 -0.1820
47822W        W90760   0.417   4.142  29.639 -0.2365 -0.1284 -0.0273
47823W        W90761  33.337   4.176  27.991 -0.1650 -0.3662 -0.3257
47824W        W90762  32.447   7.285  28.447 -0.0361  0.2005  0.2302
47825W        W90763  34.278   4.045  29.734  0.1034  0.2182  0.2020
47826W        W90764  34.552   4.916  27.045  0.0867 -0.2157  0.2833
47827W        W90765   0.149   4.758  30.609  0.2585  0.0318 -0.2471
47828W        W90766  34.039   6.953  30.671 -0.1372  0.0519 -0.1086
47829W        W90767  33.078   6.834  30.294 -0.1354 -0.0298  0.1229
47830W        W90768   0.608   5.667  30.859 -0.1022  0.0883 -0.1498
47831W        W90769   0.155   6.254  27.364 -0.0408 -0.2619  0.1733
47832W        W90770  34.469   5.863  27.387 -0.0730 -0.0746 -0.2425
47833W        W90771  34.284   2.241  30.068 -0.1403 -0.2206  0.1682
47834W        W90772   2.026   6.474  28.679  0.0833 -0.1178 -0.2643
47835W        W90773  34.330   6.176  28.230 -0.1174  0.0854 -0.0710
47836W        W90774  33.767   5.465  29.163  0.2702  0.0454  0.0429
47837W        W90775  32.783   7.183  30.048 -0.1342 -0.0358 -0.2173
47838W        W90776  34.178   4.667  28.084  0.1401  0.1530 -0.3658
47839W        W90777  32.910   5.831  28.477  0.1610  0.0046 -0.0540
47840W        W90778  33.359   5.350  30.223 -0.3861  0.1104 -0.2541
47841W        W90779   0.883   4.235  28.320 -0.0009  0.0537 -0.1474
47842W        W90780  32.904   7.414  29.310  0.1814  0.1608 -0.0711
47843W        W90781  33.787   4.693  30.791 -0.2766 -0.1793 -0.1366
47844W        W90782  33.658   5.721  28.729  0.0567  0.4365 -0.0744
47845W        W90783  34.154   4.529  29.519 -0.2002 -0.2933 -0.2244
47846W        W90784  33.563   5.964  29.636 -0.1934 -0.0463 -0.0285
47847W        W90785  34.348   4.848  29.859  0.1055 -0.0538 -0.0123
47848W        W90786  32.803   6.516  29.366  0.2864  0.2016  0.2683
47849W        W90787  33.101   3.797  31.396  0.0406  0.1336 -0.1360
47850W        W90788  34.453   4.443  30.271 -0.3444  0.1441 -0.2527
47851W        W90789  33.110   3.969  28.368  0.1008 -0.1561  0.1450
47852W        W90790   0.124   4.736  30.082  0.1318  0.3475  0.0106
47853W        W90791   0.441   4.319  30.758  0.0259 -0.3396 -0.1957
47854W        W90792  32.507   5.911  31.109  0.4376 -0.2259  0.1582
47855W        W90793   0.574   5.792  29.202  0.1053 -0.2965  0.2307
47856W        W90794  33.410   5.876  30.079 -0.0387 -0.2494  0.1050
47857W        W90795   1.301   5.921  28.708  0.2836 -0.2314  0.0353
47858W        W90796   1.403   5.463  29.415 -0.0014  0.0504  0.0112
47859W        W90797  34.057   5.925  30.509 -0.1255  0.2434 -0.3069
47860W        W90798  32.342   6.359  29.162 -0.2877 -0.1836 -0.2996
47861W        W90799  34.344   6.326  30.505 -0.2107 -0.0032 -0.2913
47862W        W90800   0.596   4.795  29.059  0.2446  0.0337  0.3429
47863W        W90801  33.856   5.715  30.996 -0.0133 -0.1257  0.2883
47864W        W90802  32.422   6.101  30.587 -0.3369  0.0893 -0.1840
47865W        W90803  34.543   6.455   0.442  0.1497  0.0021 -0.2422
47866W        W90804  34.462   3.213  28.352 -0.1840  0.0152 -0.1216
47867W        W90805   0.025   4.820  31.086  0.1252  0.2556 -0.2531
47868W        W90806   1.657   6.444  28.357 -0.0640 -0.2798 -0.1463
47869W        W90807  33.157   4.750  29.440  0.0516  0.0596  0.2357
47870W        W90808   0.089   5.900  28.321  0.3675  0.2268 -0.0877
47871W        W90809   0.375   6.320  29.228  0.1059 -0.2082  0.0447
47872W        W90810   0.117   2.834  31.555  0.0937  0.0558 -0.0284
47873W        W90811  34.599   5.599  29.520 -0.0625  0.1220  0.0210
47874W        W90812  31.794   4.300  31.977 -0.1062  0.3184  0.0228
47875W        W90813  34.141   4.354  28.573 -0.0973 -0.0538 -0.4324
47876W        W90814  33.965   4.606  29.065  0.0283  0.0550 -0.2023
47877W        W90815   0.452   7.069  27.954  0.0321  0.3792  0.3488
47878W        W90816  33.632   4.563  29.768  0.1846  0.2937 -0.0784
47879W        W90817  34.329   5.285  31.310 -0.2092  0.0039  0.0884
47880W        W90818  33.377   4.693  27.996 -0.3196 -0.0422  0.5177
47881W        W90819   0.570   5.424  27.395 -0.3382  0.0052 -0.1981
47882W        W90820   1.321   6.822  29.319  0.0797  0.1575  0.0841
47883W        W90821   0.097   3.561  29.534 -0.0201 -0.3100  0.0236
47884W        W90822  33.731   7.236  30.339 -0.3368  0.0208 -0.1921
47885W        W90823  33.916   7.252  28.967  0.0185 -0.0449  0.0311
47886W        W90824  33.526   6.877  29.955 -0.1392  0.1536  0.1583
47887W        W90825  33.403   7.147  29.100 -0.0480  0.2143 -0.0663
47888W        W90826   0.240   5.279  29.215 -0.2981  0.0439 -0.1492
47889W        W90827  34.527   5.147  28.908  0.3459  0.2658 -0.3235
47890W        W90828  34.140   5.403  30.559  0.0993  0.6232  0.2096
47891W        W90829  32.951   5.663  30.049  0.2608  0.0380 -0.1196
47892W        W90830   0.579   3.660  29.689 -0.0184  0.0121  0.0252
47893W        W90831  32.188   5.987  31.910 -0.2410 -0.0960  0.0630
47894W        W90832  33.573   5.246   0.428  0.0947  0.0823 -0.1606
47895W        W90833  32.581   7.783  29.195  0.0570 -0.1589  0.0035
47896W        W90834  34.694   4.018  29.372  0.1376  0.0684 -0.3356
47897W        W90835  34.075   6.795  29.020 -0.0362 -0.1134  0.2886
47898W        W90836  33.391   6.647  28.251  0.1405  0.3803 -0.0420
47899W        W90837  33.665   6.245  28.737  0.0210 -0.0237 -0.0044
47900W        W90838   0.270   5.527  28.699  0.0316 -0.0380  0.2425
47901W        W90839   1.179   3.903  28.583 -0.3602 -0.2869  0.0070
47902W        W90840   0.837   4.029  31.383 -0.2998 -0.0356  0.1485
47903W        W90841  31.742   6.539   0.642  0.0888 -0.1717 -0.0234
47904W        W90842   0.493   5.476  28.284 -0.0287 -0.0156  0.3789
47905W        W90843  34.528   5.780  30.430  0.1774 -0.5234 -0.0882
47906W        W90844  33.919   5.033  27.718  0.2546  0.0215  0.2227
47907W        W90845  33.189   7.258  27.738  0.1696  0.0065 -0.0863
47908W        W90846  34.293   7.067  28.637 -0.0421 -0.3769  0.0527
47909W        W90847   0.220   7.004  30.706  0.0985  0.0250  0.2099
47910W        W90848  33.979   3.206  28.492 -0.0755  0.1731 -0.1997
47911W        W90849  33.335   5.480  31.650  0.0354  0.2071 -0.3172
47912W        W90850   0.256   4.590  28.688 -0.0483 -0.2155  0.0119
47913W        W90851  33.612   5.639  30.482  0.1891 -0.1407  0.0558
47914W        W90852   1.329   2.513  28.209  0.1992 -0.0799  0.0284
47915W        W90853   0.538   4.128  28.803 -0.2013 -0.0157 -0.0017
47916W        W90854   0.500   5.306  30.074 -0.2422 -0.2225  0.1592
47917W        W90855   0.575   6.012  29.853 -0.0464 -0.1008  0.0796
47918W        W90856  32.872   2.602  28.400 -0.0271 -0.2479 -0.1959
47919W        W90857  33.703   7.200  26.770 -0.0464  0.2251 -0.0784
47920W        W90858  33.705   5.222  30.741 -0.0833  0.1124  0.0161
47921W        W90859  34.224   3.679  29.402  0.0235  0.0101  0.0072
47922W        W90860  33.335   4.996  28.369 -0.0433 -0.1289 -0.1543
47923W        W90861  34.019   7.409  28.285 -0.0131 -0.0778  0.0091
47924W        W90862  34.035   5.922  28.477 -0.1621  0.1779  0.2816
47925W        W90863  34.265   7.207  29.345 -0.2189 -0.1444  0.0213
47926W        W90864  33.819   6.181  30.117  0.0197  0.0648 -0.3236
47927W        W90865  33.916   5.068  29.766 -0.0691  0.1104  0.0697
47928W        W90866  32.973   5.140  31.802 -0.0112  0.0092 -0.0131
47929W        W90867   0.835   6.640  29.311  0.0440  0.1508 -0.1183
47930W        W90868  34.497   7.435  28.964  0.0170 -0.1731 -0.1288
47931W        W90869   0.004   5.185  30.291  0.0544  0.2309  0.2801
47932W        W90870   1.054   5.768  29.140  0.1180  0.1216  0.2874
47933W        W90871  34.367   5.871  29.939  0.0117  0.3720 -0.2912
47934W        W90872  33.035   5.774  27.946  0.1469 -0.2108  0.0406
47935W        W90873   0.154   6.900  28.442 -0.0411 -0.1682  0.0745
47936W        W90874  32.826   5.057  29.217 -0.0296 -0.2471  0.3219
47937W        W90875  34.034   4.337  31.090 -0.1134 -0.0508 -0.0838
47938W        W90876  33.191   6.116  31.024 -0.0812  0.0214  0.3329
47939W        W90877  33.035   6.100  29.714 -0.3702 -0.1289  0.3024
47940W        W90878   0.777   4.523  28.727  0.2166  0.3124  0.1676
47941W        W90879  34.023   3.670  28.331 -0.1694 -0.0580 -0.2217
47942W        W90880  33.543   3.041  29.858 -0.2306  0.1384 -0.2648
47943W        W90881   1.013   5.147  29.157  0.1075  0.2686 -0.2956
47944W        W90882  31.676   6.199  27.864  0.0904  0.1992 -0.3204
47945W        W90883  34.572   5.009  31.966  0.0746 -0.1599 -0.2494
47946W        W90884  34.009   4.178   0.230  0.1321  0.1111  0.1040
47947W        W90885  32.871   4.855  28.518  0.1782 -0.1718 -0.1929
47948W        W90886  34.588   5.173  30.790  0.2647  0.3437  0.0074
47949W        W90887   0.107   6.157  29.577 -0.2624 -0.0201  0.1795
47950W        W90888  34.050   6.149  29.607 -0.2447  0.1740 -0.0714
47951W        W90889  33.293   3.265  31.760 -0.1775  0.2592  0.0504
47952W        W90890  34.383   5.690  30.980  0.1171  0.2268  0.0224
47953W        W90891  33.493   3.894  29.828 -0.0584  0.0115 -0.0300
47954W        W90892  34.168   4.956  30.979  0.2486 -0.0805 -0.0928
47955W        W90893  34.326   3.966  30.249 -0.0920 -0.2339 -0.2307
47956W        W90894  34.063   5.643  29.584  0.1868  0.0211 -0.0512
47957W        W90895   1.027   4.996  28.659 -0.3837  0.0406 -0.0424
47958W        W90896   0.778   6.348  31.306 -0.1048 -0.1509 -0.4068
47959W        W90897   0.910   6.808  28.030 -0.1460 -0.0627 -0.1383
47960W        W90898  34.537   7.672  30.213 -0.1489 -0.1154  0.1561
47961W        W90899  33.213   4.206  29.530 -0.2029  0.0574  0.0399
47962W        W90900  34.288   5.569  28.992 -0.2151  0.3495 -0.1211
47963W        W90901   0.327   7.197  28.790  0.1330  0.2119  0.2385
47964W        W90902  34.574   4.287  31.218 -0.3375 -0.1963 -0.0711
47965W        W90903  33.682   7.560  30.003  0.0006 -0.3160  0.0454
47966W        W90904  33.238   5.406   0.797 -0.3556  0.0153  0.3623
47967W        W90905  33.156   5.983   0.645 -0.1885  0.2032  0.1127
47968W        W90906  34.095   6.996  31.759 -0.1945  0.3011 -0.2510
47969W        W90907  33.441   7.217  30.773 -0.1299  0.1772  0.0754
47970W        W90908  33.635   6.246  31.875  0.2077 -0.3227  0.2885
47971W        W90909  33.067   4.327  31.283 -0.1285  0.4204 -0.1431
47972W        W90910  33.419   3.866   1.010 -0.0939  0.1544 -0.0698
47973W        W90911   0.029   6.151  30.791  0.2515  0.1443 -0.2819
47974W        W90912  32.630   5.252  31.408  0.2697  0.0096 -0.0585
47975W        W90913  33.145   4.951   0.616  0.0580 -0.3755 -0.0474
47976W        W90914  32.567   4.191   0.430 -0.1027  0.1272 -0.1201
47977W        W90915  32.344   3.610   0.671 -0.0181  0.1409  0.1312
47978W        W90916  31.708   5.636   0.855 -0.3281  0.3963  0.2244
47979W        W90917  33.198   3.557   0.633 -0.0194  0.0486 -0.3238
47980W        W90918  32.781   8.476   0.497  0.1322 -0.1529  0.2061
47981W        W90919  32.971   5.852  30.587  0.2526  0.3704 -0.0045
47982W        W90920  33.861   5.317   0.032  0.0418 -0.0875 -0.0966
47983W        W90921  33.861   5.403  31.557  0.0832 -0.0029 -0.0033
47984W        W90922  33.291   4.614  30.943  0.1298  0.2786  0.2458
47985W        W90923  33.780   3.769   0.380  0.2180 -0.0077  0.1627
47986W        W90924   0.767   5.093  31.732  0.3861 -0.1667 -0.0077
47987W        W90925  34.280   6.375   1.871  0.1371 -0.0706  0.1100
47988W        W90926   0.971   4.867   0.127 -0.1674 -0.3242  0.0304
47989W        W90927  32.725   4.806   0.092  0.0539 -0.2465 -0.0962
47990W        W90928  32.519   6.945   0.399  0.0833  0.1249  0.0639
47991W        W90929  32.616   5.595  31.904 -0.0089  0.1150 -0.1774
47992W        W90930  32.991   4.519   0.393 -0.1804 -0.2513 -0.0554
47993W        W90931   0.423   3.839  31.541  0.0855  0.0410  0.1027
47994W        W90932  32.956   6.596  31.701 -0.2731 -0.0506  0.0744
47995W        W90933  34.163   3.881   0.744 -0.0430  0.0495  0.1259
47996W        W90934  33.750   6.734   0.312 -0.3699  0.1104 -0.1174
47997W        W90935  33.424   4.862  30.474 -0.1563 -0.0878 -0.0125
47998W        W90936  33.755   6.784   0.889  0.3662  0.0031 -0.1665
47999W        W90937   1.379   6.869   0.426 -0.0127 -0.3011  0.2980
48000W        W90938  33.588   5.398   1.198 -0.0264  0.1028 -0.0891
48001W        W90939  33.539   5.714   0.098  0.1127  0.0349  0.0176
48002W        W90940  33.719   6.324  31.168 -0.2099 -0.0426 -0.2430
48003W        W90941  32.268   6.478   0.637  0.0308  0.2273 -0.1955
48004W        W90942  32.593   3.847  31.442  0.0339  0.0361  0.0448
48005W        W90943  33.032  10.542  17.820  0.0391  0.1900  0.0555
48006W        W90944   0.295   7.966  16.106 -0.0598  0.2795 -0.0895
48007W        W90945  33.127   7.687  18.771 -0.1655 -0.0221 -0.0786
48008W        W90946  32.606   6.065  19.269  0.0021  0.1129 -0.2568
48009W        W90947  33.227   8.868  19.984 -0.0002  0.2182  0.0614
48010W        W90948  34.161   8.880  18.562  0.2298  0.0844  0.0251
48011W        W90949   0.918   6.980  16.547  0.2735 -0.0957 -0.0189
48012W        W90950  31.863   6.224  18.642 -0.1186  0.0747 -0.1639
48013W        W90951  32.775  10.407  15.558  0.0026  0.0719 -0.0342
48014W        W90952  32.287   8.291  18.528  0.0535 -0.1021  0.0467
48015W        W90953  34.318   8.152  17.309  0.1631  0.0109  0.0324
48016W        W90954  33.360   7.771  19.211  0.1985 -0.0825 -0.0520
48017W        W90955  34.270   8.822  16.983  0.0024 -0.0574 -0.2725
48018W        W90956  32.957  10.030  15.915 -0.0377  0.3396 -0.2596
48019W        W90957  32.891   7.816  19.164  0.1908  0.0279  0.3140
48020W        W90958  32.730   8.568  17.459  0.1081  0.0978 -0.2371
48021W        W90959  33.750  10.023  17.466  0.0654 -0.2504  0.2648
48022W        W90960   0.984  11.359  18.403 -0.2146 -0.3003 -0.0115
48023W        W90961  33.328   8.654  17.345  0.1408  0.1111  0.1599
48024W        W90962  31.911  10.811  18.458  0.1729 -0.1412  0.1119
48025W        W90963  34.541   9.053  16.623 -0.0223 -0.1721 -0.0923
48026W        W90964  33.946  12.122  20.156 -0.1621 -0.2103  0.1059
48027W        W90965  33.926   9.226  16.812  0.1018  0.0651 -0.2610
48028W        W90966  33.067   9.652  19.707 -0.2178 -0.1386  0.2372
48029W        W90967  34.130   8.734  17.498  0.1127 -0.1898  0.5424
48030W        W90968  33.880   9.658  19.182 -0.2923 -0.3541 -0.1253
48031W        W90969  33.309   9.489  19.292 -0.0482 -0.2255 -0.2408
48032W        W90970  33.426   8.929  18.644  0.0096  0.1213  0.1655
48033W        W90971  33.547   9.989  16.499  0.1180 -0.2741 -0.1266
48034W        W90972   0.026   8.129  16.573 -0.1149  0.1744 -0.2407
48035W        W90973   1.319   8.192  18.435  0.2866  0.0128  0.0478
48036W        W90974  33.677  11.081  18.663  0.0536 -0.0152 -0.2809
48037W        W90975  34.662   8.325  17.694  0.3328  0.1366  0.0723
48038W        W90976  34.113  11.052  18.963  0.3687  0.1985 -0.2087
48039W        W90977  32.561   8.723  18.358  0.0214 -0.2628  0.1244
48040W        W90978  33.414   9.485  16.607  0.1467  0.3637 -0.0532
48041W        W90979  31.585   8.949  18.881 -0.0874 -0.2438  0.0430
48042W        W90980  33.066   7.356  19.218 -0.4417 -0.2989  0.1502
48043W        W90981  33.609   7.253  15.937  0.3252  0.2874  0.1194
48044W        W90982  31.816   9.923  18.596 -0.2141  0.0159 -0.1813
48045W        W90983  34.375   9.966  18.492 -0.1327 -0.1817 -0.1308
48046W        W90984  32.995   8.869  15.338 -0.0507  0.0659  0.1092
48047W        W90985  33.424   9.200  17.052  0.1703 -0.1859  0.2203
48048W        W90986  33.872  10.178  18.613  0.2848 -0.0233  0.0137
48049W        W90987  32.955   8.520  20.292  0.0409  0.1281 -0.2254
48050W        W90988   0.443   9.966  20.006  0.2479  0.4180 -0.1213
48051W        W90989   0.378  10.497  17.405  0.0542 -0.1186  0.0776
48052W        W90990  31.540   9.941  18.143  0.1874 -0.1181  0.2311
48053W        W90991  32.090   9.606  16.152  0.1203 -0.2189  0.1335
48054W        W90992  33.929   7.964  17.044 -0.1733 -0.0142  0.3371
48055W        W90993  33.762   9.553  17.684 -0.0989 -0.2366  0.1324
48056W        W90994  33.619   7.764  18.448  0.1246 -0.0428 -0.0406
48057W        W90995  32.767   9.142  17.085 -0.2080  0.2537  0.3677
48058W        W90996  34.055   7.982  18.221 -0.0654  0.1188 -0.1659
48059W        W90997  34.605   7.812  16.947 -0.1345  0.2565  0.1719
48060W        W90998  32.486   8.544  20.560  0.0188 -0.2308  0.0659
48061W        W90999  32.579   7.742  17.925  0.0294 -0.1540 -0.0582
48062W        W91000  33.451   7.760  15.857  0.0481 -0.2248  0.2761
48063W        W91001  33.560   8.896  16.631  0.3163 -0.0465 -0.0921
48064W        W91002  31.246  10.849  15.379  0.0636  0.3833 -0.0025
48065W        W91003  34.166   7.072  18.064 -0.4690  0.0192 -0.1462
48066W        W91004  34.417   6.817  17.282 -0.0259 -0.0517 -0.0375
48067W        W91005  32.553  10.662  16.465  0.0371  0.2241 -0.0769
48068W        W91006  34.692  11.600  17.781  0.0377 -0.0094 -0.1274
48069W        W91007  34.062   7.123  17.118 -0.1135  0.0361 -0.1730
48070W        W91008  33.275   9.953  17.749  0.1803  0.0136 -0.2015
48071W        W91009  32.592   8.158  15.965  0.2029 -0.1375 -0.1949
48072W        W91010  32.341   9.681  16.559 -0.0415  0.2826  0.0323
48073W        W91011  33.312   9.926  17.234  0.0074  0.1185  0.0008
48074W        W91012  33.258   9.730  18.177  0.3615  0.1597  0.1134
48075W        W91013  32.898   9.070  22.876  0.0009  0.1013  0.0079
48076W        W91014  33.017   9.559  17.120  0.1328  0.1216  0.1633
48077W        W91015  32.831   9.846  19.318 -0.0507 -0.1243 -0.2471
48078W        W91016  32.952  10.395  19.760  0.2282 -0.0211 -0.1435
48079W        W91017  34.189  10.244  17.384  0.3868  0.1092 -0.0234
48080W        W91018  34.572   8.872  19.554 -0.1735  0.1413 -0.1156
48081W        W91019  32.710   9.231  18.394 -0.0979 -0.0018  0.2255
48082W        W91020  33.817   7.840  17.529  0.1402  0.2318  0.0441
48083W        W91021  34.130   8.839  16.462  0.1210  0.0939 -0.1515
48084W        W91022  33.040  10.820  15.390  0.2764  0.0787 -0.0754
48085W        W91023  32.871   7.714  19.725  0.1079 -0.0057 -0.1616
48086W        W91024  33.958   7.997  16.546  0.3928 -0.0362 -0.2557
48087W        W91025   0.655   7.569  19.959  0.0771 -0.5631  0.2878
48088W        W91026  32.879   9.387  18.822  0.1674 -0.1705  0.1454
48089W        W91027  34.025   9.210  20.923  0.1391 -0.1858 -0.1500
48090W        W91028   0.090   8.648  19.043 -0.1996 -0.2544 -0.0782
48091W        W91029  33.800   9.572  17.120  0.1213 -0.2386  0.1396
48092W        W91030  33.127  10.305  16.289 -0.2509 -0.1017 -0.0140
48093W        W91031  34.276   8.057  18.679 -0.4781  0.0841  0.0834
48094W        W91032  34.522  10.779  18.349  0.1187 -0.2575 -0.2024
48095W        W91033  33.244   9.780  16.199  0.0213  0.0281  0.0784
48096W        W91034   0.058  10.248  18.188 -0.0173 -0.2268  0.0279
48097W        W91035  32.793   9.813  17.537  0.1606 -0.1263  0.4178
48098W        W91036  33.597   7.255  16.758 -0.0325  0.0837  0.1131
48099W        W91037  33.097   8.007  16.676 -0.0431 -0.0841 -0.0297
48100W        W91038  33.889   6.076  17.410  0.1049  0.1219  0.2473
48101W        W91039   0.618   7.116  17.774 -0.1028 -0.1937 -0.0057
48102W        W91040  32.355  10.094  18.982  0.1811  0.2225  0.2292
48103W        W91041  33.514   7.295  21.049  0.0359 -0.0619 -0.2568
48104W        W91042  32.845   8.958  16.158  0.2795  0.3258 -0.3960
48105W        W91043  33.841   8.395  17.272 -0.0783 -0.0880  0.2765
48106W        W91044  33.046  10.821  17.386 -0.3146  0.2754  0.1829
48107W        W91045  33.471   8.198  17.017 -0.1940 -0.0750  0.0049
48108W        W91046  33.327  11.165  16.465 -0.3345 -0.2042  0.3234
48109W        W91047  34.230   7.935  20.569 -0.0099  0.2974  0.2417
48110W        W91048  33.677   7.457  17.245 -0.2888 -0.2519  0.0233
48111W        W91049  33.190   7.988  18.307 -0.2569 -0.0020  0.0386
48112W        W91050  34.429   8.313  18.216 -0.1008 -0.0853 -0.0758
48113W        W91051  33.250   9.034  19.146  0.1273  0.2032 -0.1076
48114W        W91052  33.543   8.882  19.580 -0.3216  0.3204 -0.3403
48115W        W91053  33.038   9.043  16.592 -0.3499  0.1305 -0.0471
48116W        W91054  31.685   9.585  17.792  0.0780 -0.0011 -0.4603
48117W        W91055  34.134   8.718  18.037 -0.1308 -0.1654 -0.1149
48118W        W91056   0.381   7.257  16.747  0.0879  0.2127 -0.2090
48119W        W91057  32.520   9.412  19.241 -0.0024  0.1583  0.0539
48120W        W91058  32.246  10.228  16.278  0.4084 -0.1907 -0.2407
48121W        W91059  32.132   9.846  19.344  0.1869 -0.0643 -0.0269
48122W        W91060  33.125   8.512  17.807 -0.0689 -0.3147 -0.0751
48123W        W91061  33.482   6.392  19.955  0.0813  0.1368 -0.1237
48124W        W91062  33.530   6.871  20.231 -0.1190 -0.0359  0.1264
48125W        W91063  31.769   8.224  20.997  0.0262 -0.1121 -0.3310
48126W        W91064  33.777   6.940  16.288 -0.1016  0.0688  0.1178
48127W        W91065  32.832   9.415  17.869  0.2981  0.2368 -0.0487
48128W        W91066  33.893   9.668  16.609  0.0765  0.0644 -0.2916
48129W        W91067  32.644   8.288  18.135  0.2671  0.3636 -0.1731
48130W        W91068   0.462   8.990  17.042 -0.1590  0.0848 -0.0775
48131W        W91069  33.168   9.285  18.374  0.2300 -0.2280 -0.2126
48132W        W91070  33.214   8.087  20.194 -0.1422 -0.1258  0.2726
48133W        W91071  33.194   8.216  19.472 -0.0178 -0.1641  0.1048
48134W        W91072  32.018   8.703  20.410  0.1539  0.1737  0.0847
48135W        W91073  33.934   8.256  17.764  0.1837 -0.0324  0.1840
48136W        W91074  32.409   9.358  17.418 -0.1534  0.1731  0.3176
48137W        W91075  33.901  10.279  16.220 -0.2657 -0.0974  0.1614
48138W        W91076  32.747   7.239  16.240 -0.0273 -0.0977  0.0395
48139W        W91077  33.575  11.084  19.618 -0.2333 -0.0247  0.2390
48140W        W91078  32.884   9.438  15.955  0.0949 -0.0092  0.1729
48141W        W91079  33.348   9.293  16.180  0.3150 -0.1763 -0.3245
48142W        W91080  34.259   9.489  18.519  0.0335  0.2765 -0.0456
48143W        W91081   0.136   6.634  16.022 -0.1866  0.2074  0.1398
48144W        W91082  32.078   9.830  17.029 -0.6254  0.0127 -0.0455
48145W        W91083  32.921  11.460  18.947 -0.0749  0.1474 -0.0206
48146W        W91084  32.444   8.516  18.927 -0.0060  0.1494 -0.2596
48147W        W91085   0.401  10.280  17.838 -0.1864  0.0713 -0.0464
48148W        W91086   0.532   8.518  18.902 -0.0237  0.0971  0.1962
48149W        W91087   0.052   9.221  19.132 -0.1995  0.1675  0.0720
48150W        W91088  33.707   9.695  18.500 -0.1036 -0.2964  0.3720
48151W        W91089  31.862   8.075  18.604  0.0594 -0.1194  0.2621
48152W        W91090  34.663   7.375  17.854  0.3340 -0.4546 -0.1866
48153W        W91091  33.876   9.517  21.796  0.0868  0.0369 -0.0903
48154W        W91092  32.918   9.236  19.482  0.0434 -0.0018 -0.2556
48155W        W91093  34.285  10.987  16.903  0.2225  0.1861  0.0045
48156W        W91094   0.088   8.675  16.833 -0.1585 -0.3125 -0.0259
48157W        W91095  33.096  10.592  18.543 -0.2590  0.0020  0.1791
48158W        W91096  32.896  11.418  16.235 -0.2691  0.0605  0.0561
48159W        W91097  32.811  11.206  17.649 -0.1307  0.0930 -0.3059
48160W        W91098  34.431   8.508  18.760 -0.2532 -0.0909 -0.2839
48161W        W91099  33.396   8.317  15.955 -0.1734  0.0106  0.0982
48162W        W91100  32.694   8.904  19.184  0.0639  0.2495  0.2213
48163W        W91101  31.999   8.798  19.676 -0.3217  0.4399 -0.0686
48164W        W91102  33.777   7.975  18.959 -0.2098  0.0759  0.0826
48165W        W91103  33.053   7.984  17.823  0.2593  0.2412 -0.2854
48166W        W91104  32.346  10.038  15.788  0.2597 -0.0236 -0.0082
48167W        W91105  33.798  11.031  17.273 -0.1491 -0.0130 -0.1407
48168W        W91106  33.887  10.481  17.745 -0.2083  0.0990 -0.2292
48169W        W91107  33.690   9.979  18.001  0.0171  0.0249 -0.1840
48170W        W91108  32.817   7.561  16.617  0.2018 -0.1506 -0.2615
48171W        W91109  34.687   7.753  18.791  0.2046  0.1220 -0.0194
48172W        W91110  32.162   9.374  17.931  0.0116 -0.3525 -0.0653
48173W        W91111  32.516   7.540  19.365 -0.2028 -0.0839  0.1443
48174W        W91112   0.723   8.963  15.972  0.2206 -0.0595  0.0835
48175W        W91113  33.455   7.952  16.313 -0.0087 -0.0020 -0.0077
48176W        W91114  33.252   8.561  18.361 -0.1328  0.3851  0.0216
48177W        W91115  33.045   9.099  17.533  0.1454 -0.1784 -0.2583
48178W        W91116  33.255   7.427  18.344 -0.0801 -0.3182  0.2816
48179W        W91117  34.403   9.535  16.445 -0.1894  0.1046 -0.1988
48180W        W91118  32.956   8.917  18.085  0.1153 -0.1854 -0.1750
48181W        W91119   0.702   7.682  16.207 -0.1926  0.0737  0.0370
48182W        W91120  33.925   7.779  20.053 -0.2276 -0.1176 -0.0890
48183W        W91121  33.141  10.634  16.794 -0.1516  0.1085  0.1012
48184W        W91122  34.218  10.044  16.488 -0.0909 -0.0579  0.0340
48185W        W91123  33.274  10.116  18.580  0.4028  0.4572 -0.1678
48186W        W91124  34.385  10.407  19.409  0.2288  0.1953  0.0758
48187W        W91125  32.614   9.841  16.187 -0.0585  0.1645  0.2192
48188W        W91126  33.704   8.090  20.554  0.0382 -0.0403  0.1693
48189W        W91127  32.974  10.123  18.152 -0.3806 -0.0560  0.1772
48190W        W91128   0.319  10.619  16.836  0.2803 -0.0857 -0.1427
48191W        W91129  34.329   9.521  16.961  0.1552  0.2149  0.0145
48192W        W91130  33.972   7.534  17.958  0.0303 -0.1138  0.0498
48193W        W91131  33.213   8.584  18.946 -0.1298 -0.0487 -0.1706
48194W        W91132  32.776   8.526  16.414 -0.2532 -0.0803 -0.2292
48195W        W91133  32.632  10.127  16.603  0.1038  0.0340 -0.1620
48196W        W91134  32.131   9.773  17.602 -0.2235 -0.0079  0.0833
48197W        W91135  33.374   7.372  20.205  0.1034 -0.0847 -0.0765
48198W        W91136  32.620   6.890  18.816 -0.0609  0.1068 -0.1442
48199W        W91137  31.297  10.017  17.728 -0.1247  0.3170  0.2558
48200W        W91138  32.545   7.830  16.995 -0.0533  0.2364 -0.1456
48201W        W91139  34.548   7.255  16.909 -0.0192  0.1072 -0.1305
48202W        W91140  33.552   7.792  17.947  0.1418  0.2164  0.1666
48203W        W91141  34.057   7.512  16.827  0.1973 -0.1925 -0.1235
48204W        W91142  32.680  10.407  16.080  0.2708  0.2693  0.1560
48205W        W91143  33.892   6.872  19.361  0.3553 -0.1321  0.2199
48206W        W91144   0.111   8.389  19.898  0.2498  0.2392 -0.0141
48207W        W91145  31.828   7.774  17.639 -0.0367  0.2605  0.4113
48208W        W91146  32.808   8.341  18.631 -0.2950 -0.0273 -0.1022
48209W        W91147  33.465  10.421  18.145  0.2089  0.3090  0.2001
48210W        W91148  33.652  10.397  20.056  0.0641 -0.4816  0.1452
48211W        W91149  30.766   7.057  18.081  0.0391  0.2606  0.2271
48212W        W91150  32.521   9.593  19.718 -0.1222  0.0869 -0.2248
48213W        W91151  31.973   7.136  20.654 -0.1118  0.2695  0.0095
48214W        W91152  32.931   8.877  18.653  0.1959  0.0021 -0.4467
48215W        W91153  33.872   6.599  17.210 -0.2519  0.2480  0.4172
48216W        W91154  32.716   7.273  18.295 -0.4042  0.1256 -0.3558
48217W        W91155  34.404   7.912  15.785  0.0657 -0.0557 -0.2072
48218W        W91156  34.243   7.664  19.223 -0.1354  0.0916 -0.0509
48219W        W91157  33.257   8.732  16.242 -0.0686  0.4562  0.0674
48220W        W91158  34.146  11.140  18.451 -0.0977 -0.1860  0.1056
48221W        W91159  34.368   6.558  18.113 -0.1544 -0.2693 -0.4533
48222W        W91160  32.531   9.801  17.968 -0.2059 -0.1799 -0.1598
48223W        W91161  32.755   7.788  18.382 -0.0290  0.0937  0.1442
48224W        W91162  33.688   6.997  17.467 -0.3304 -0.2253 -0.0064
48225W        W91163  33.611  10.926  19.155  0.0678 -0.2220  0.1044
48226W        W91164  32.545   9.482  22.080 -0.0701 -0.3026  0.1236
48227W        W91165  33.863   8.737  21.715  0.2790 -0.0100  0.1388
48228W        W91166  33.929   7.893  22.236  0.1555  0.1738 -0.0948
48229W        W91167  33.331   8.515  24.414  0.2541  0.1462 -0.3414
48230W        W91168  33.075   8.827  24.912  0.1454  0.2744  0.5038
48231W        W91169   0.251   9.238  22.076 -0.0725  0.0669  0.5402
48232W        W91170  33.860   6.524  21.060  0.1042  0.1101 -0.2864
48233W        W91171  32.051   8.268  22.552 -0.1139 -0.0556 -0.1422
48234W        W91172  32.984   7.478  20.975  0.3355 -0.0487  0.2300
48235W        W91173  33.088   8.758  23.935  0.2419  0.2806 -0.0012
48236W        W91174  34.335   7.532  19.775 -0.0598  0.1595  0.1911
48237W        W91175   0.604   8.466  24.709  0.1171  0.0851 -0.0935
48238W        W91176   0.358   8.317  19.462 -0.1793 -0.1020  0.2717
48239W        W91177  33.143   7.265  21.424  0.0256  0.0303 -0.0561
48240W        W91178  32.583   9.194  21.662  0.0694  0.0350  0.1674
48241W        W91179   0.800   9.004  22.581  0.1435  0.0143 -0.0139
48242W        W91180   0.058  10.681  22.513 -0.1882 -0.1812  0.3435
48243W        W91181   0.559   9.959  21.879 -0.2061  0.2136 -0.0057
48244W        W91182  32.736   8.704  22.515  0.0026 -0.0390  0.2665
48245W        W91183  32.901  10.045  20.644  0.0727 -0.3371  0.0096
48246W        W91184  34.182   8.343  21.535  0.1493 -0.0268  0.0188
48247W        W91185  33.602   8.428  23.138  0.0695  0.0631 -0.2040
48248W        W91186  33.059   9.526  20.777 -0.0923 -0.1550 -0.1818
48249W        W91187  34.175  10.147  24.049  0.3315  0.3147  0.1933
48250W        W91188  34.008   9.934  22.050  0.1726  0.0904  0.0879
48251W        W91189  34.021   8.749  21.237  0.0857  0.1173  0.3400
48252W        W91190  33.718  10.143  23.723 -0.3664 -0.0376 -0.0488
48253W        W91191  32.996   9.434  21.668  0.0660  0.5506  0.0446
48254W        W91192  33.881  10.796  20.003 -0.0133  0.1474 -0.2347
48255W        W91193  32.865   6.959  20.176  0.1090  0.0319 -0.2132
48256W        W91194  33.908   5.472  22.398 -0.3443  0.1738 -0.1272
48257W        W91195  33.389  11.217  21.690  0.3766 -0.1886 -0.2137
48258W        W91196  34.101   8.541  22.856 -0.1136  0.2486 -0.0435
48259W        W91197  34.182   9.131  21.557 -0.0378 -0.1245 -0.0419
48260W        W91198   0.279   7.699  23.032  0.5176  0.3425 -0.1034
48261W        W91199  32.743   9.442  21.185  0.0452  0.3128 -0.5027
48262W        W91200  32.096   9.161  23.337 -0.2600 -0.0070  0.0285
48263W        W91201  32.692   8.168  23.970  0.0009 -0.3696 -0.1633
48264W        W91202  33.595   7.640  19.716  0.0145  0.0107 -0.0786
48265W        W91203  32.586   8.835  25.068 -0.1101  0.1792 -0.1124
48266W        W91204  34.068   8.964  22.127  0.0076 -0.2634 -0.3207
48267W        W91205  32.399   9.011  20.239 -0.2263  0.0106 -0.0635
48268W        W91206  33.857   9.380  20.198  0.3475 -0.2001 -0.0071
48269W        W91207  34.194   9.710  20.931 -0.1730  0.0170  0.2017
48270W        W91208  33.894   7.280  24.658  0.1355 -0.0601  0.0916
48271W        W91209   0.298   9.132  23.169  0.1478 -0.0430  0.0092
48272W        W91210  31.751  11.325  20.567  0.2296  0.0794 -0.1876
48273W        W91211  31.925   9.196  20.607  0.2226  0.0712 -0.1700
48274W        W91212  33.376  10.245  21.487  0.2689 -0.2850  0.0697
48275W        W91213  32.945   7.838  23.649  0.1356 -0.0536  0.0267
48276W        W91214  33.581   9.911  21.135  0.0582  0.1836  0.0668
48277W        W91215  31.277   9.434  25.251  0.1579  0.4618  0.2252
48278W        W91216  34.511   9.483  21.328 -0.0247 -0.1404  0.2920
48279W        W91217  31.258   8.884  24.180  0.0895 -0.0776  0.2727
48280W        W91218  33.185   7.186  22.438 -0.2628  0.1856 -0.0531
48281W        W91219  31.806   7.564  24.257 -0.0699 -0.1800 -0.0043
48282W        W91220  33.808   8.072  22.753 -0.1606 -0.2256  0.1400
48283W        W91221  34.219   7.374  22.377 -0.1291  0.3469 -0.0336
48284W        W91222   0.257   9.006  20.736  0.2552 -0.1584 -0.0553
48285W        W91223  33.226  10.331  21.021 -0.0073  0.0637 -0.1363
48286W        W91224  32.995   8.397  23.478 -0.0285  0.1431 -0.0037
48287W        W91225  33.391   7.981  21.096 -0.1388  0.0573 -0.2992
48288W        W91226  33.489  10.781  21.459 -0.0354  0.0581  0.1299
48289W        W91227  33.754  10.469  21.846  0.0518  0.0259  0.1385
48290W        W91228  33.991   6.015  22.135  0.5844  0.0230  0.0625
48291W        W91229  31.027   9.490  22.969 -0.0983 -0.0705 -0.1471
48292W        W91230  32.783   8.239  19.786 -0.1381 -0.0954  0.0211
48293W        W91231  33.454   9.311  19.854 -0.5724 -0.3725  0.1186
48294W        W91232  33.240   9.551  21.262  0.1939 -0.2908  0.2000
48295W        W91233  34.682  10.517  21.177  0.0932 -0.0452 -0.4024
48296W        W91234  32.266   9.268  24.943  0.0322  0.0834 -0.2097
48297W        W91235  32.833   9.287  20.027 -0.0478  0.2547  0.1375
48298W        W91236  32.484   9.873  24.844 -0.0589 -0.0907 -0.1162
48299W        W91237  33.401   9.753  23.620 -0.0683 -0.1363  0.3151
48300W        W91238  34.645   9.006  21.168 -0.1773 -0.0839  0.1809
48301W        W91239  34.228   9.947  23.127 -0.0544 -0.0103 -0.4258
48302W        W91240  31.548   9.261  23.976  0.0641  0.1771 -0.1337
48303W        W91241  33.945   6.555  23.300  0.0258  0.0495 -0.0634
48304W        W91242  34.144   8.631  20.464  0.1385  0.0883  0.1228
48305W        W91243  32.394  11.271  20.829  0.1089  0.2049  0.0289
48306W        W91244  33.040   6.894  23.318 -0.0578  0.3477  0.0189
48307W        W91245  32.256   9.113  18.791 -0.2449  0.1420 -0.2682
48308W        W91246   0.670   8.258  22.110 -0.0480 -0.2258  0.1194
48309W        W91247  31.571   9.814  22.933  0.3449 -0.0445  0.3294
48310W        W91248  33.363  10.129  21.993  0.1057  0.2465 -0.2337
48311W        W91249  34.467   7.388  23.611 -0.1032  0.1250  0.3887
48312W        W91250  34.083  10.419  20.287  0.1640 -0.0117  0.0629
48313W        W91251  33.916   9.584  19.706 -0.3095 -0.0670  0.2990
48314W        W91252  33.492   8.484  22.666 -0.0453  0.1637 -0.1417
48315W        W91253  33.804   9.409  22.843 -0.0178  0.1730 -0.5710
48316W        W91254  33.951   9.546  21.313 -0.1908  0.1942 -0.3816
48317W        W91255  33.578  12.394  20.301  0.0903 -0.1775  0.1735
48318W        W91256  33.254  10.644  21.834 -0.1515  0.0924 -0.0857
48319W        W91257  33.913   6.971  22.027  0.1098 -0.0270 -0.0033
48320W        W91258  33.082   9.733  20.301  0.0409  0.0811  0.4424
48321W        W91259  31.658   8.253  23.397  0.0951  0.2340 -0.0308
48322W        W91260  33.982   7.873  21.538 -0.1636  0.0104 -0.3238
48323W        W91261  33.089   8.956  21.419  0.0350 -0.3214 -0.1467
48324W        W91262  32.773   9.621  22.906  0.3465  0.0041  0.0991
48325W        W91263  32.841   7.497  20.480  0.1838 -0.0792  0.1489
48326W        W91264  34.508   7.334  21.593  0.3272 -0.1000 -0.1975
48327W        W91265  33.469   9.190  21.650  0.3134 -0.1195 -0.2391
48328W        W91266  32.853   8.511  20.933 -0.0550 -0.0654  0.2974
48329W        W91267  32.402  10.199  21.387  0.1197 -0.1325  0.0877
48330W        W91268  32.712   9.172  24.117 -0.1541 -0.2566  0.1783
48331W        W91269  33.376   9.006  23.053 -0.0909  0.2463 -0.1163
48332W        W91270  33.061   9.035  21.952 -0.2485 -0.0907 -0.0950
48333W        W91271   0.092   9.834  21.917  0.0489 -0.2886 -0.0827
48334W        W91272  34.521   8.902  23.347 -0.2008 -0.0960 -0.0506
48335W        W91273   0.200  10.462  24.601  0.1209  0.0807 -0.0540
48336W        W91274  34.248  10.608  20.955  0.1231 -0.1298  0.0404
48337W        W91275  31.809   9.718  23.820  0.0934 -0.0930 -0.0579
48338W        W91276  34.610   8.987  21.780 -0.1213 -0.2548 -0.0757
48339W        W91277  34.271   8.121  22.542 -0.1551 -0.0940 -0.0060
48340W        W91278  33.188   9.173  23.484 -0.0033 -0.1879  0.1755
48341W        W91279  32.473   7.816  20.980  0.2722 -0.1715  0.5141
48342W        W91280  33.052  10.577  22.844 -0.3331 -0.1622  0.2328
48343W        W91281  33.954   9.006  23.326 -0.2780 -0.0589 -0.0938
48344W        W91282  32.375   7.807  23.883 -0.1815  0.0397  0.1609
48345W        W91283  32.915   9.271  22.404  0.1541  0.2192  0.0161
48346W        W91284  32.148   8.911  22.880 -0.2065  0.0628 -0.2689
48347W        W91285  33.486   7.628  21.423 -0.2688  0.3895  0.0202
48348W        W91286  33.822   8.972  22.658 -0.0482  0.1430 -0.0631
48349W        W91287  32.974   9.068  20.961  0.2385 -0.1428 -0.0757
48350W        W91288  33.033  10.015  23.768 -0.0886  0.2581  0.4045
48351W        W91289  34.231   7.390  20.740 -0.1218 -0.2783  0.0495
48352W        W91290  34.074  10.992  21.210  0.0911 -0.0537 -0.2443
48353W        W91291  32.986   7.786  24.201 -0.0683 -0.5525  0.0196
48354W        W91292  32.976   9.178  25.293  0.4951 -0.1521 -0.0112
48355W        W91293  32.228   8.549  24.566 -0.1257 -0.0473  0.3967
48356W        W91294  32.964   7.647  21.755 -0.0192 -0.0520 -0.1202
48357W        W91295   0.311   8.332  20.392  0.0275 -0.2958  0.0652
48358W        W91296  34.696  11.480  19.675  0.0003 -0.2236 -0.1587
48359W        W91297  33.308   8.936  22.527  0.3813  0.2529  0.1126
48360W        W91298  33.340   9.690  25.571 -0.2326 -0.3068  0.1510
48361W        W91299  34.220   6.766  20.751  0.0010  0.0355  0.3747
48362W        W91300  33.264  10.939  21.061 -0.0151  0.2062  0.0475
48363W        W91301  34.447   9.475  21.994 -0.0202  0.0471 -0.0247
48364W        W91302   0.381   6.287  21.187  0.1060 -0.2148  0.0696
48365W        W91303  33.615   9.514  20.842  0.1551  0.0629  0.0451
48366W        W91304  33.284  10.672  22.370  0.0468 -0.2188 -0.1832
48367W        W91305  32.747  11.107  25.279  0.3031  0.0777 -0.0979
48368W        W91306  33.832  10.310  20.759 -0.1318 -0.0946 -0.0538
48369W        W91307  34.506  10.044  20.092 -0.1263  0.3880 -0.1270
48370W        W91308  33.371   8.665  21.716  0.1599  0.0805  0.1521
48371W        W91309  32.986  11.329  20.849  0.1765  0.2758  0.0984
48372W        W91310  31.803   8.810  23.763 -0.0322 -0.0688  0.1022
48373W        W91311  32.719   6.894  21.249  0.2828 -0.3850  0.0832
48374W        W91312  33.340   9.874  24.200  0.2632  0.0191  0.0404
48375W        W91313  32.580   9.749  21.573  0.1233 -0.1282 -0.2269
48376W        W91314  33.258  10.691  20.001  0.4198 -0.1543 -0.0986
48377W        W91315  34.317   8.587  19.898  0.1964 -0.0105 -0.1472
48378W        W91316  33.488  10.661  20.448  0.1601  0.2298  0.0148
48379W        W91317  32.759  10.815  19.995 -0.0903  0.2843  0.2911
48380W        W91318  32.162  10.447  21.049  0.1503 -0.2149  0.0689
48381W        W91319  33.390   7.644  22.622  0.1048  0.1368  0.0191
48382W        W91320  34.532   6.611  21.800  0.0241  0.0440  0.0366
48383W        W91321  31.111   9.866  25.173  0.0411 -0.0189  0.0553
48384W        W91322  33.260  10.288  23.415  0.3133 -0.2447  0.0175
48385W        W91323  34.554   9.400  20.828  0.0916 -0.1185  0.1139
48386W        W91324  33.616   7.860  21.898  0.1286  0.0122 -0.1039
48387W        W91325  33.589   9.933  19.554 -0.1977 -0.3441 -0.1888
48388W        W91326  33.581  11.312  21.243 -0.0758 -0.2679 -0.0543
48389W        W91327  34.408  10.152  20.735 -0.0322 -0.2575 -0.0130
48390W        W91328  34.271  10.312  21.754 -0.0916 -0.0221 -0.3661
48391W        W91329  33.237   8.062  21.573 -0.0195 -0.0259  0.0911
48392W        W91330  32.806   8.231  23.014 -0.0625  0.0728 -0.0420
48393W        W91331  32.534   8.517  23.685  0.1508  0.0433  0.1520
48394W        W91332  32.713   8.466  24.358 -0.2644  0.0517  0.0022
48395W        W91333  33.963   8.276  20.185 -0.2410  0.0395 -0.2400
48396W        W91334  32.258   8.753  22.396 -0.0344 -0.1078 -0.1013
48397W        W91335  33.546   9.054  21.113 -0.0300 -0.0869 -0.0160
48398W        W91336   0.327   8.042  23.437 -0.0107 -0.4548  0.0679
48399W        W91337  33.574   6.794  22.565  0.0270  0.1427  0.0171
48400W        W91338  33.558  11.175  20.131  0.0280 -0.2612  0.0300
48401W        W91339  33.127   9.950  23.034  0.0593 -0.0214 -0.0795
48402W        W91340  31.791   6.921  22.995  0.0721 -0.0481  0.3485
48403W        W91341  32.476  10.525  21.835  0.1910  0.1569  0.1787
48404W        W91342  33.597  10.937  22.060  0.4049  0.0865 -0.2289
48405W        W91343  33.879  10.764  18.193 -0.0009  0.1471 -0.1884
48406W        W91344   0.167   9.080  22.606 -0.1133 -0.1551  0.0506
48407W        W91345  33.953  10.409  24.634  0.0318 -0.0941 -0.0303
48408W        W91346  32.530  10.198  19.580 -0.2568  0.2740 -0.0364
48409W        W91347   0.429   8.263  22.972  0.0893 -0.0886  0.0782
48410W        W91348  33.846  10.014  21.568 -0.0423 -0.1018 -0.1088
48411W        W91349  33.863   9.868  20.518  0.0184  0.1905  0.2055
48412W        W91350  34.115   6.491  22.050 -0.1450  0.2903 -0.0511
48413W        W91351  33.839   7.696  20.994 -0.2855 -0.1994  0.0685
48414W        W91352  34.406   8.248  23.199 -0.0651 -0.1237  0.1295
48415W        W91353  33.360   8.542  21.164 -0.2251 -0.0335  0.0235
48416W        W91354  33.316   8.892  20.648  0.0536 -0.3695  0.2447
48417W        W91355  32.459   9.771  23.267 -0.1614 -0.1100  0.0723
48418W        W91356  33.376   7.669  23.838  0.3817  0.0264 -0.3423
48419W        W91357  32.263   8.862  23.880  0.1562 -0.1659  0.4121
48420W        W91358  32.992   9.817  22.017 -0.0243  0.0437  0.3274
48421W        W91359  33.492   8.761  23.536  0.0539 -0.0991  0.1384
48422W        W91360  33.079   8.598  22.890  0.1099  0.0727 -0.1568
48423W        W91361  33.486   8.208  22.253  0.0838 -0.0852 -0.1796
48424W        W91362   0.022   8.352  22.379 -0.0107 -0.2067 -0.0165
48425W        W91363  32.480   9.033  19.678  0.2151 -0.0555  0.1418
48426W        W91364  34.289   8.580  21.988  0.1578 -0.0107 -0.3164
48427W        W91365   0.267   8.581  23.342  0.1803 -0.2456 -0.0326
48428W        W91366  33.331   6.780  21.155  0.1875 -0.1313 -0.1142
48429W        W91367  34.270   9.223  22.543  0.2707 -0.1735 -0.0499
48430W        W91368  34.229   9.662  22.739  0.2184 -0.1348  0.2169
48431W        W91369   1.080   8.575  22.266 -0.0042 -0.0108  0.0404
48432W        W91370  32.547   8.100  23.428 -0.0218  0.0171  0.0972
48433W        W91371   0.366   8.677  23.885  0.1785  0.1453 -0.0700
48434W        W91372  31.636   6.140  22.769 -0.1389 -0.3468  0.2416
48435W        W91373  32.686   8.996  23.657  0.1175 -0.1589  0.1516
48436W        W91374  34.651   7.813  22.381 -0.0792  0.1414 -0.1126
48437W        W91375  32.474   9.205  22.621  0.0991  0.0879  0.1525
48438W        W91376  33.727   7.400  20.569  0.1777  0.4052 -0.0035
48439W        W91377  34.295   9.819  21.651 -0.1199 -0.1288 -0.1720
48440W        W91378  34.499   8.336  20.304 -0.3957  0.0631 -0.1487
48441W        W91379  33.442   9.512  23.174  0.0639  0.1121  0.1133
48442W        W91380  34.456   7.760  23.182 -0.0471 -0.4085  0.1322
48443W        W91381  33.922   8.180  21.061 -0.1592 -0.0470 -0.2663
48444W        W91382  33.901   8.278  21.929  0.1714  0.1310  0.2463
48445W        W91383  32.758   8.748  23.218 -0.0159 -0.1867 -0.1907
48446W        W91384  34.302   9.316  23.104  0.0146 -0.0533 -0.0927
48447W        W91385  33.363   8.643  26.844 -0.2585  0.2519 -0.0446
48448W        W91386  33.293   8.707  25.414 -0.1760 -0.0862 -0.3448
48449W        W91387  32.776   8.507  25.975  0.0725  0.2058  0.0578
48450W        W91388  33.658   6.427  26.174 -0.0311  0.2863  0.0440
48451W        W91389  34.001   8.754  26.147 -0.0447 -0.1406 -0.0438
48452W        W91390  34.279   9.100  25.762  0.4681 -0.0499  0.0382
48453W        W91391  34.302   7.566  24.390 -0.0735 -0.4222  0.1695
48454W        W91392  34.017   7.170  26.036  0.2542 -0.1251  0.0781
48455W        W91393  31.648   9.773  24.913  0.1699 -0.2657  0.0745
48456W        W91394  33.614   8.237  25.572 -0.1198 -0.2551 -0.0086
48457W        W91395  33.818   8.541  26.987 -0.1208 -0.2436  0.2716
48458W        W91396  33.100   7.824  25.060 -0.1674  0.0640  0.1478
48459W        W91397  33.070  10.859  24.903  0.2667 -0.1079 -0.1526
48460W        W91398  32.041   8.127  25.095 -0.1706 -0.0347 -0.0897
48461W        W91399  32.510   9.223  26.067  0.2246 -0.0702  0.0849
48462W        W91400  33.524   9.295  26.972  0.1481 -0.2777  0.0703
48463W        W91401  33.853  11.286  26.211  0.1444  0.1926  0.1986
48464W        W91402   0.579  10.893  24.832 -0.0118 -0.0099 -0.2442
48465W        W91403  32.643   9.078  27.116 -0.1788 -0.1532  0.3058
48466W        W91404  31.368  11.183  26.663  0.0603 -0.3693 -0.0633
48467W        W91405  34.205  10.855  27.048 -0.1941 -0.0026  0.1630
48468W        W91406  33.474  11.038  28.331  0.0174  0.0354 -0.2136
48469W        W91407  32.305   9.933  24.271  0.0426 -0.2127  0.0935
48470W        W91408  34.296  10.002  27.656  0.0431  0.0846 -0.0203
48471W        W91409  33.273  10.652  25.804 -0.0855  0.2805 -0.0224
48472W        W91410  34.603  10.822  24.681  0.0627 -0.0181 -0.1150
48473W        W91411  33.736   9.518  27.380 -0.0192 -0.0151  0.4975
48474W        W91412  32.758  10.448  25.929  0.0905 -0.0911  0.0072
48475W        W91413  33.896  11.017  24.151  0.1579 -0.0745 -0.2404
48476W        W91414   0.336   8.906  24.703  0.0144 -0.1230  0.1693
48477W        W91415  34.424   8.286  25.111 -0.1573  0.1668 -0.1983
48478W        W91416  33.040  10.648  26.316 -0.2189 -0.0170  0.0710
48479W        W91417   0.017   8.225  27.294  0.0244 -0.3425  0.1013
48480W        W91418  32.587  10.512  27.559 -0.1472  0.2355 -0.1394
48481W        W91419  33.657  10.401  25.419 -0.0233  0.3021 -0.2264
48482W        W91420  32.254  10.183  25.617 -0.0211  0.2236 -0.1315
48483W        W91421  32.289   8.883  27.602  0.3714  0.0845 -0.1065
48484W        W91422  33.184   8.302  25.731  0.0725 -0.1080 -0.1119
48485W        W91423  32.847   7.873  25.796  0.1684 -0.5801 -0.0282
48486W        W91424  33.462   9.164  26.262 -0.0114 -0.0588  0.1143
48487W        W91425  33.926  10.463  25.855 -0.0264 -0.1663  0.1129
48488W        W91426  33.805   9.390  22.311 -0.0436 -0.0317 -0.1265
48489W        W91427   0.220   9.103  24.145  0.0271  0.1640  0.1909
48490W        W91428  32.499  10.723  25.566 -0.0622 -0.0875 -0.1131
48491W        W91429  34.370   6.767  26.091  0.1999 -0.1996  0.2838
48492W        W91430   0.376   9.891  26.380  0.0975  0.0541 -0.0210
48493W        W91431  33.343  10.812  23.727 -0.2719 -0.1404 -0.0553
48494W        W91432  32.357   9.420  26.869  0.3204  0.0618 -0.0086
48495W        W91433  33.143   9.377  23.937 -0.2130 -0.0546  0.1335
48496W        W91434  33.585   6.846  27.045  0.0886  0.1154  0.2553
48497W        W91435  33.146   9.007  26.603  0.0185 -0.1182 -0.4292
48498W        W91436  33.355   7.766  26.549 -0.2226 -0.0431 -0.0314
48499W        W91437  32.533  10.959  26.042 -0.2513  0.1579  0.1150
48500W        W91438  33.785   8.822  25.650 -0.4190 -0.0492 -0.1195
48501W        W91439  34.616   8.788  25.014 -0.0750  0.0067  0.1975
48502W        W91440  33.970   6.650  25.846  0.2145  0.4446  0.0425
48503W        W91441  33.228   7.455  25.819 -0.0140  0.0003 -0.2922
48504W        W91442  34.145   8.793  24.152 -0.1257  0.1822 -0.0044
48505W        W91443  34.580   9.909  24.246 -0.0686  0.1036 -0.3126
48506W        W91444  32.783   8.172  26.801  0.0266 -0.1375  0.0157
48507W        W91445   1.071   7.947  26.998  0.1800  0.1997  0.1327
48508W        W91446  32.776   9.328  24.887  0.0367 -0.2420  0.0909
48509W        W91447  33.732  11.573  27.433  0.3574  0.2625  0.3771
48510W        W91448  33.900   9.850  26.133 -0.0580 -0.0594 -0.2436
48511W        W91449  33.943   9.006  24.640 -0.1982 -0.0026 -0.0932
48512W        W91450  33.354   8.824  27.753  0.2956 -0.0357  0.2522
48513W        W91451  32.271   7.373  24.150  0.0933  0.2127 -0.0450
48514W        W91452  32.740  10.337  24.107  0.1538 -0.0136  0.0361
48515W        W91453  32.610   7.641  24.918  0.1683  0.1172  0.1196
48516W        W91454  33.938  11.292  25.420 -0.0316 -0.0028 -0.0566
48517W        W91455  33.665   8.449  28.695  0.5152  0.0002  0.1158
48518W        W91456  32.628   8.980  24.564 -0.1844  0.0319 -0.0463
48519W        W91457   0.123   9.998  27.856  0.0510  0.1967 -0.0598
48520W        W91458  32.824  10.439  26.922  0.0660 -0.0151  0.2303
48521W        W91459  33.648   9.999  23.123  0.1717  0.2094 -0.0750
48522W        W91460   1.564  11.263  26.066  0.4481  0.0149 -0.1383
48523W        W91461  33.848   9.409  25.828  0.1297  0.0019 -0.0610
48524W        W91462   1.177   7.489  25.581  0.1745 -0.0567 -0.0903
48525W        W91463  32.465   9.464  24.438 -0.0955  0.0408 -0.0204
48526W        W91464  33.086  11.230  24.494  0.1570  0.0932 -0.0504
48527W        W91465   0.175   5.362  27.131 -0.0490 -0.1936  0.0200
48528W        W91466  32.032   9.552  24.564 -0.0584 -0.2881 -0.1195
48529W        W91467   0.611   8.889  26.575 -0.1527  0.1874  0.1078
48530W        W91468  33.144   8.442  27.931 -0.1563  0.2900  0.0145
48531W        W91469  34.124  10.273  26.947 -0.0980  0.3738  0.0772
48532W        W91470   0.799   8.487  27.759  0.2368  0.0708  0.2316
48533W        W91471  32.926  10.704  23.370  0.2466  0.1217 -0.0005
48534W        W91472  32.850  10.766  23.932 -0.0559  0.1733  0.0995
48535W        W91473  33.594   8.072  25.074  0.2128 -0.0997 -0.0182
48536W        W91474  34.145  10.638  26.400  0.0654 -0.1008 -0.1451
48537W        W91475  32.977   9.480  24.425 -0.1251 -0.0125  0.0683
48538W        W91476  33.195  11.330  27.082  0.2655 -0.0185  0.3824
48539W        W91477  33.271  11.085  26.133 -0.1343  0.0643  0.1777
48540W        W91478  33.704  11.720  25.130 -0.1478  0.0099 -0.0234
48541W        W91479  32.726   8.841  25.559 -0.2035 -0.1758 -0.1336
48542W        W91480  34.392   7.087  26.489 -0.4154 -0.0852 -0.0138
48543W        W91481  34.048   7.676  26.376  0.3414  0.0262 -0.2387
48544W        W91482   0.043  10.866  25.632  0.3412  0.3368  0.0744
48545W        W91483  34.390   9.564  26.689 -0.0965 -0.4381  0.0649
48546W        W91484  31.568   8.313  25.862 -0.3444  0.0459  0.1250
48547W        W91485  34.078   8.961  25.097  0.2461  0.1158  0.0218
48548W        W91486  32.635  11.328  24.635 -0.1737 -0.4530  0.0162
48549W        W91487  32.898   9.410  26.812 -0.2738 -0.2013 -0.1848
48550W        W91488  32.096  10.151  24.941 -0.0639 -0.0068  0.0236
48551W        W91489  33.557   8.143  27.375 -0.0985 -0.0750  0.1086
48552W        W91490  34.692   9.248  25.342 -0.0796  0.0365  0.1002
48553W        W91491  34.168   7.741  23.869 -0.1969  0.1180  0.2192
48554W        W91492  34.405   8.058  24.607 -0.0861 -0.1105  0.2522
48555W        W91493  34.376   9.029  26.733  0.2665  0.1343  0.1661
48556W        W91494  34.369  10.096  25.973 -0.0229  0.0229  0.0254
48557W        W91495  33.530  10.370  24.950  0.1227  0.0874  0.1569
48558W        W91496  33.732   8.934  26.597 -0.1386  0.2054  0.2210
48559W        W91497  33.406  10.932  25.309 -0.2417 -0.0272 -0.4501
48560W        W91498  33.924   8.182  26.258 -0.2092 -0.1400 -0.0777
48561W        W91499  33.364   9.551  26.552 -0.2272 -0.1527  0.2277
48562W        W91500  32.093  10.773  26.560  0.0506 -0.4197  0.1108
48563W        W91501  32.915  10.096  27.258 -0.4210 -0.0629  0.0101
48564W        W91502  34.489   8.809  25.479  0.0834  0.1759  0.2851
48565W        W91503  33.595   6.896  26.018 -0.0149  0.2315 -0.2775
48566W        W91504  32.992   8.095  26.210  0.2493  0.1763  0.1274
48567W        W91505  32.830   9.398  28.626 -0.2124 -0.1081 -0.0870
48568W        W91506  34.060   8.501  23.389  0.1078 -0.0366  0.0428
48569W        W91507  34.467  10.599  25.958  0.0298 -0.0271  0.1468
48570W        W91508  34.559   8.902  23.872 -0.1228 -0.0729 -0.1350
48571W        W91509  33.617   8.924  27.333 -0.0647  0.0137 -0.1576
48572W        W91510  34.265  10.381  25.512 -0.0479  0.1804  0.3502
48573W        W91511  31.911  10.132  26.136  0.1257  0.0280  0.1448
48574W        W91512   0.103   6.536  26.962  0.3423  0.0224  0.5670
48575W        W91513  34.025   9.240  27.041 -0.1572 -0.1939 -0.0807
48576W        W91514  33.593   7.409  26.317  0.1353  0.2216  0.0010
48577W        W91515  34.225   8.246  23.757  0.1156 -0.1955 -0.1621
48578W        W91516  34.123   9.353  24.306 -0.0372  0.1661 -0.0940
48579W        W91517  34.364   9.806  23.659 -0.0522 -0.0714 -0.0091
48580W        W91518  34.066   9.722  27.080  0.0807  0.3534  0.3786
48581W        W91519  33.434  13.741  27.471  0.1134  0.0900 -0.0593
48582W        W91520  33.301   9.874  24.699 -0.0187  0.1725  0.0516
48583W        W91521  32.988  10.065  25.540 -0.0608 -0.1487  0.0185
48584W        W91522   0.977   9.161  26.394 -0.3107 -0.2002  0.0502
48585W        W91523   0.579   7.109  24.993  0.1188 -0.0981  0.3880
48586W        W91524  33.446  10.166  25.851 -0.0897 -0.0972  0.0804
48587W        W91525  34.160  11.362  27.186 -0.0278 -0.2840  0.3292
48588W        W91526  32.795   8.671  27.549 -0.2353  0.1360  0.0257
48589W        W91527  33.373   9.131  25.745 -0.0349 -0.2466  0.0798
48590W        W91528  33.625  11.072  25.783 -0.0202  0.1604 -0.1666
48591W        W91529  33.382   9.604  26.039 -0.1278  0.3151  0.2511
48592W        W91530  32.570  10.690  26.481  0.0975 -0.3972  0.0481
48593W        W91531  33.563   7.074  27.533  0.0821 -0.1273  0.1079
48594W        W91532  33.251   8.214  23.879 -0.1017 -0.0197 -0.1740
48595W        W91533  33.830  10.104  27.406 -0.0570  0.3705 -0.0806
48596W        W91534  32.598   9.063  26.550 -0.0703 -0.0595 -0.3079
48597W        W91535  33.704  11.947  24.434  0.1040 -0.1928 -0.1335
48598W        W91536  32.501   7.897  24.350  0.0964 -0.1291 -0.1062
48599W        W91537  32.222  11.327  24.293 -0.0788  0.1201  0.1050
48600W        W91538  33.422  10.856  24.199 -0.4925 -0.2452 -0.0561
48601W        W91539   0.144  11.719  26.702  0.0597  0.1368  0.1555
48602W        W91540  32.896   9.270  27.535 -0.2141 -0.0336  0.3535
48603W        W91541   0.004   7.557  24.120  0.1754  0.1451 -0.0155
48604W        W91542   0.299   8.682  27.631 -0.0932  0.1039 -0.1595
48605W        W91543  33.121  10.610  27.685 -0.0347  0.1478  0.1770
48606W        W91544  32.415   9.734  25.866 -0.3167 -0.0558  0.0457
48607W        W91545  33.976   8.507  25.262  0.1098 -0.0715  0.4037
48608W        W91546  33.563   9.504  24.375 -0.3662 -0.0778  0.1362
48609W        W91547  34.289  11.011  26.076  0.2389  0.2283  0.0749
48610W        W91548  33.329  10.325  24.482 -0.3524  0.1957 -0.2827
48611W        W91549  34.119   9.397  25.326  0.4299  0.1140  0.0583
48612W        W91550  32.455   8.176  25.884 -0.0999  0.2202 -0.3680
48613W        W91551   0.054   8.754  27.125 -0.0253 -0.3110  0.0652
48614W        W91552  34.404   9.208  24.823  0.0038  0.3779  0.1120
48615W        W91553  32.773   7.607  26.764  0.0471  0.0827  0.0553
48616W        W91554  34.649   8.441  23.669 -0.1258 -0.1472 -0.1206
48617W        W91555  34.230   7.331  25.140 -0.4246 -0.1141 -0.4421
48618W        W91556  33.281  10.399  23.969 -0.0675  0.1637  0.2757
48619W        W91557  33.298   8.647  26.225  0.1293  0.1649 -0.0504
48620W        W91558  32.848   9.423  25.741  0.0122  0.0185  0.1068
48621W        W91559  34.134   9.186  23.766  0.1503  0.3113  0.3315
48622W        W91560  32.943   8.090  24.592  0.0085 -0.1873 -0.1049
48623W        W91561   0.040   7.282  25.185 -0.0090  0.0767 -0.1165
48624W        W91562  33.625   8.639  24.926 -0.2474 -0.2741  0.0674
48625W        W91563  32.598  10.718  24.934  0.1240  0.3262 -0.1635
48626W        W91564   1.120   9.277  22.940 -0.0747  0.1761  0.0023
48627W        W91565  33.920   9.394  26.529 -0.0072 -0.2284 -0.1003
48628W        W91566  34.534   9.697  27.223 -0.1370 -0.0747  0.1817
48629W        W91567  34.011   9.926  25.043 -0.3400 -0.0753 -0.2394
48630W        W91568   0.081   9.191  25.811 -0.0949 -0.2715  0.0170
48631W        W91569   0.071  10.196  25.584  0.0966 -0.0861 -0.3012
48632W        W91570  33.385  11.793  24.781 -0.2860  0.0668 -0.3762
48633W        W91571   0.523   8.327  25.649 -0.0283 -0.2812 -0.0303
48634W        W91572  33.296   7.360  25.341 -0.3774  0.1862  0.2525
48635W        W91573  34.197   8.559  26.634 -0.1788 -0.3140 -0.0219
48636W        W91574  31.453   9.803  25.539 -0.1614 -0.2418 -0.0559
48637W        W91575  34.109  11.562  24.554 -0.0194  0.2608  0.2490
48638W        W91576  32.450   9.111  28.208  0.0763 -0.0914  0.4632
48639W        W91577   0.232   5.770  27.556 -0.2968 -0.3478 -0.0540
48640W        W91578  33.192   8.020  26.980  0.0238  0.2577  0.2511
48641W        W91579  31.975   8.040  26.214  0.0163  0.1860  0.0680
48642W        W91580  33.319   9.010  24.311  0.0645 -0.1615 -0.1145
48643W        W91581  33.224   8.350  24.924  0.0229  0.0097 -0.1734
48644W        W91582  33.496   7.379  24.400 -0.2243  0.2813  0.1899
48645W        W91583  34.686   9.425  24.462 -0.1117 -0.2268 -0.2352
48646W        W91584  30.885   9.615  25.581 -0.0714  0.0886  0.5318
48647W        W91585  33.377   9.810  28.150  0.1250  0.3837 -0.1089
48648W        W91586   0.704   7.721  27.282  0.0767  0.1519 -0.0915
48649W        W91587  32.160   6.595  23.894  0.3284 -0.0052 -0.2043
48650W        W91588   0.892   8.475  26.805  0.0003  0.2249 -0.1620
48651W        W91589  34.061   8.036  25.358  0.1900  0.3387 -0.2892
48652W        W91590  34.126  11.011  29.130  0.0136  0.1210  0.1836
48653W        W91591  33.879   7.390  27.784  0.1662 -0.0452 -0.3199
48654W        W91592  33.545  10.603  26.215  0.2262 -0.1345  0.1859
48655W        W91593  34.616   6.137  27.797 -0.0453  0.2515  0.1709
48656W        W91594  34.218   8.194  28.053  0.1648  0.2348 -0.3152
48657W        W91595   0.350   7.400  26.091  0.2501 -0.0974 -0.1914
48658W        W91596  33.936   8.416  27.582  0.0477 -0.0842  0.1148
48659W        W91597  34.679   8.365  25.726  0.0069 -0.1036 -0.1589
48660W        W91598   1.083   9.721  26.500 -0.0327 -0.2132 -0.1118
48661W        W91599  32.932   8.982  26.112 -0.1250  0.1217 -0.1357
48662W        W91600   0.624  10.117  25.969  0.0477  0.1236  0.0239
48663W        W91601  34.593   6.741  25.293 -0.0685 -0.3624 -0.4000
48664W        W91602  32.935   9.739  25.072 -0.1711 -0.2424  0.0297
48665W        W91603  32.987  11.642  25.943 -0.0870 -0.0801  0.1033
48666W        W91604  34.363   8.066  26.346 -0.0287  0.1357 -0.0629
48667W        W91605  33.364  10.036  27.095 -0.1523 -0.2001 -0.2301
48668W        W91606  34.446   9.470  29.074 -0.0532 -0.0244  0.1548
48669W        W91607  34.335   8.684  28.010 -0.0239 -0.1978 -0.2175
48670W        W91608  34.179   8.441  28.550  0.0499 -0.1665  0.2309
48671W        W91609  34.520   6.045  31.759 -0.1514  0.0234  0.2159
48672W        W91610  34.574   9.019  31.216 -0.0452  0.2482 -0.1479
48673W        W91611  34.237  11.439  28.868 -0.0997  0.0405 -0.0462
48674W        W91612   0.417   7.014  27.018  0.1018  0.0125  0.2808
48675W        W91613  34.003   6.773  30.175  0.1386 -0.2514 -0.1100
48676W        W91614  34.049   9.494  28.786 -0.1522 -0.0100 -0.1937
48677W        W91615   0.533   9.303  29.161  0.3911  0.0917 -0.1800
48678W        W91616  34.399   8.989  28.476 -0.1111 -0.1552 -0.0505
48679W        W91617  34.459   8.048  28.799  0.0472  0.0419  0.2231
48680W        W91618  34.073   9.713  29.270  0.2360 -0.2044 -0.2523
48681W        W91619  33.388   8.144  28.445 -0.0456 -0.0579  0.0052
48682W        W91620  33.385   9.061  29.305 -0.3421 -0.0486  0.2375
48683W        W91621  34.045   9.569  30.646 -0.1684  0.0214  0.4008
48684W        W91622   0.542  10.888  30.664  0.0404  0.2227 -0.1999
48685W        W91623   1.744  12.312  29.601 -0.1927  0.2562  0.2457
48686W        W91624  34.565   9.453  29.877  0.0470  0.1604 -0.1840
48687W        W91625  33.663  11.127  28.825 -0.2346 -0.3329 -0.0653
48688W        W91626  33.189  10.698  28.542  0.0076 -0.2370 -0.0141
48689W        W91627  33.556  10.849  31.258 -0.2439  0.0485  0.1904
48690W        W91628   0.068   9.373  26.414  0.1618 -0.1986 -0.1157
48691W        W91629  33.608  12.292  30.988  0.2183  0.2345  0.0964
48692W        W91630   0.126  10.295  26.100 -0.2580  0.0901 -0.0100
48693W        W91631  34.493  11.093  29.455 -0.3919 -0.3127  0.2308
48694W        W91632  34.675  10.228  31.563  0.0782 -0.4380 -0.0527
48695W        W91633  33.141  11.330  31.306  0.0406 -0.0009  0.1268
48696W        W91634  32.188   9.407  27.374 -0.0231  0.1001 -0.0215
48697W        W91635  34.627   9.004  27.738 -0.2223  0.0896 -0.1388
48698W        W91636   0.374   7.406  28.295 -0.0399  0.1345 -0.0355
48699W        W91637  33.706  10.718  29.754  0.1771  0.4924 -0.1836
48700W        W91638  34.096   8.693  29.481 -0.0638 -0.1541  0.1300
48701W        W91639  33.324  10.757  30.183  0.1187 -0.1096  0.2253
48702W        W91640  34.201   8.605  30.360  0.2377  0.1460  0.1738
48703W        W91641  33.895   8.070  28.408 -0.1227  0.1905  0.1065
48704W        W91642  33.674   8.746  31.135 -0.0090 -0.0187  0.1437
48705W        W91643  33.567   9.771  30.648 -0.1366  0.1171  0.0610
48706W        W91644  33.967   6.823  26.486  0.2007 -0.1859 -0.2437
48707W        W91645  33.498  11.085  29.356  0.1410 -0.2082 -0.0994
48708W        W91646   0.024   9.734  31.278  0.0938  0.0296  0.3605
48709W        W91647  34.097   8.964  27.588 -0.0607 -0.2488 -0.3434
48710W        W91648   0.525  10.477  29.672 -0.0813 -0.0237  0.1274
48711W        W91649  33.331  10.908  30.724 -0.0788 -0.0700  0.3672
48712W        W91650  33.160   8.721  31.052 -0.0399 -0.2374  0.0537
48713W        W91651   0.675   9.571  30.785  0.1640 -0.0982  0.2197
48714W        W91652  33.621  10.719  27.761 -0.1555  0.0877 -0.0914
48715W        W91653  33.011  10.057  29.006 -0.0256  0.3233  0.1103
48716W        W91654  32.560  10.986  27.952  0.0261 -0.0346 -0.1533
48717W        W91655  32.839   9.029  30.572 -0.1617  0.1940 -0.1901
48718W        W91656  34.035  10.888  30.128 -0.0198 -0.0762  0.3041
48719W        W91657  33.620   8.134  30.342 -0.1434  0.1174 -0.0695
48720W        W91658  32.673   9.882  28.720 -0.1365  0.2430 -0.3063
48721W        W91659  34.163   8.179  29.537  0.3093 -0.0443  0.3111
48722W        W91660  33.287   8.443  29.686  0.0208 -0.0569  0.2499
48723W        W91661  33.895   6.459  30.726  0.4377 -0.0008 -0.0116
48724W        W91662  33.998   7.913  29.921 -0.1438  0.0118  0.1363
48725W        W91663  33.213   6.858  29.500 -0.1233 -0.2424  0.1822
48726W        W91664   0.865   9.426  27.692 -0.0030 -0.1641  0.2042
48727W        W91665  33.737   9.884  28.560  0.1549 -0.0681  0.3217
48728W        W91666  33.249   7.366  30.200 -0.0694  0.3505 -0.0279
48729W        W91667  33.883   6.657  27.426 -0.1682 -0.0675 -0.1892
48730W        W91668  33.736  12.496  29.527  0.0637  0.0044 -0.3686
48731W        W91669  34.234  10.045  29.769  0.1982  0.0495  0.1427
48732W        W91670   0.764   7.494  28.686 -0.1791  0.4026  0.1562
48733W        W91671  33.055   9.974  30.400 -0.0703  0.0591 -0.0692
48734W        W91672  32.627   7.350  27.159 -0.0529  0.0254 -0.2208
48735W        W91673  33.485  11.857  30.687 -0.0392 -0.0039  0.0476
48736W        W91674  33.521   7.580  27.514 -0.0945 -0.2983  0.0501
48737W        W91675   0.520  11.631  28.051  0.1719 -0.1442  0.2075
48738W        W91676  33.442   9.252  30.770 -0.1422  0.4054  0.0593
48739W        W91677  34.185   7.050  27.613 -0.0491 -0.0526 -0.0119
48740W        W91678  33.351  13.379  29.348 -0.1615 -0.0565  0.0292
48741W        W91679  34.259  10.821  30.549  0.1091 -0.0171 -0.0875
48742W        W91680  34.368  11.930  28.652 -0.0242  0.0200  0.1210
48743W        W91681   0.077   9.022  28.905 -0.1119  0.1006  0.0880
48744W        W91682  34.487   9.862  30.160  0.0597  0.0482 -0.2274
48745W        W91683  34.004   7.719  30.388 -0.3149 -0.1046 -0.1245
48746W        W91684  34.532   9.185  27.205  0.1981  0.0171 -0.0104
48747W        W91685  33.552  10.389  28.246  0.0669 -0.0953 -0.0309
48748W        W91686  33.832   6.426  29.224 -0.2185  0.1617 -0.2331
48749W        W91687  34.169   9.669  28.316 -0.0687 -0.3031 -0.2830
48750W        W91688  34.533   6.849  30.497  0.0808 -0.1697 -0.0864
48751W        W91689  33.822   8.401  29.874  0.2178 -0.0021 -0.2123
48752W        W91690  33.933  10.111  30.613  0.0882  0.0521  0.2051
48753W        W91691  34.681   7.958  31.143  0.0654  0.0910 -0.0561
48754W        W91692  34.531  10.980  28.880 -0.0053  0.0244  0.1343
48755W        W91693  33.153   9.621  27.216 -0.2859  0.0963 -0.4735
48756W        W91694  34.576   7.955  30.677  0.1373 -0.1223 -0.1250
48757W        W91695   0.598  10.807  30.149  0.1028 -0.0033  0.1321
48758W        W91696  33.328   9.697  27.680  0.0901 -0.3181  0.2377
48759W        W91697  34.453   9.596  27.875 -0.0367 -0.0434 -0.2175
48760W        W91698  34.176   9.227  30.226 -0.0667  0.2936 -0.1456
48761W        W91699  34.526   7.791  27.091 -0.0514 -0.1158 -0.0526
48762W        W91700  32.923  10.564  28.124  0.0445 -0.3094  0.0133
48763W        W91701   1.472   7.533  29.228  0.2190 -0.1496 -0.1876
48764W        W91702   0.528   9.945  29.774 -0.0064  0.3010  0.1012
48765W        W91703  33.097  11.304  30.214  0.5029 -0.0955  0.2673
48766W        W91704  33.779  10.285  30.005  0.1719 -0.2464  0.0389
48767W        W91705  33.228   7.297  26.671  0.1297 -0.1657 -0.0626
48768W        W91706  34.102   7.619  28.710  0.0346  0.0165 -0.0140
48769W        W91707  32.396  10.964  29.981 -0.0935  0.0069  0.2282
48770W        W91708  33.846   7.907  27.688 -0.2238  0.2405 -0.5334
48771W        W91709  34.157  10.168  28.496 -0.2956 -0.0663 -0.1843
48772W        W91710  33.395   8.798  30.591 -0.0257  0.0089  0.3314
48773W        W91711   0.168   8.637  29.375 -0.2145 -0.0610  0.0247
48774W        W91712  34.469   7.415  27.386 -0.1552  0.2886 -0.0640
48775W        W91713   0.113   9.401  29.442  0.2646  0.0607  0.1822
48776W        W91714  33.994   7.964   0.004  0.0555  0.0237 -0.1620
48777W        W91715  34.081   9.222  31.542 -0.1318 -0.1143  0.2526
48778W        W91716  33.515   9.579  29.265 -0.0534  0.0286  0.1200
48779W        W91717  34.298  10.375  30.145  0.3836  0.1991 -0.3004
48780W        W91718  34.643  11.331  28.146 -0.0380  0.2914 -0.1251
48781W        W91719   0.317   8.013  30.006  0.1639 -0.0764 -0.0670
48782W        W91720   0.034   9.934  29.600 -0.4068 -0.0691 -0.1331
48783W        W91721   0.945  10.301  28.116  0.1515  0.0331  0.2794
48784W        W91722  33.570  11.153  29.893 -0.0010  0.2201  0.0519
48785W        W91723   0.083   8.698  26.572  0.3349  0.1199 -0.0371
48786W        W91724  34.067   6.677  31.167  0.2453 -0.1778  0.0659
48787W        W91725  34.348   7.602  31.177 -0.1384  0.0557  0.0579
48788W        W91726  32.017   8.927  31.265  0.2298  0.0869 -0.1473
48789W        W91727   0.533   7.561  27.712 -0.2198 -0.1520  0.1388
48790W        W91728   0.120   9.603   0.875  0.3072  0.1320  0.3972
48791W        W91729  34.043  10.374  27.879 -0.0036  0.1260 -0.0099
48792W        W91730   0.904   8.032  29.430  0.1846 -0.0280 -0.0055
48793W        W91731   0.568   9.051  27.896  0.1544  0.0350 -0.0995
48794W        W91732   0.051  10.396  29.731  0.2461  0.0007 -0.1560
48795W        W91733  32.127   7.467  31.126  0.1527 -0.1228  0.0895
48796W        W91734   0.742   9.058  31.004  0.0012  0.5723 -0.1842
48797W        W91735  33.318   9.526  31.699 -0.0141 -0.1148 -0.2881
48798W        W91736  33.871   8.561  30.707  0.1221  0.0040 -0.1090
48799W        W91737  33.609   7.625  27.010  0.1126 -0.0505  0.3225
48800W        W91738   1.109  10.568  26.198  0.1887 -0.1958 -0.0111
48801W        W91739  32.498   7.780  30.746  0.0864 -0.1043  0.0547
48802W        W91740  33.998  10.473  30.932 -0.1218  0.1279  0.0913
48803W        W91741  34.553   7.285  26.934 -0.3864  0.0949 -0.1703
48804W        W91742   0.240  10.782  28.284 -0.1198 -0.0940  0.2148
48805W        W91743   0.884  10.950  31.036 -0.0972  0.1593  0.0115
48806W        W91744  34.441   8.571  27.499  0.1953  0.0049 -0.0388
48807W        W91745  33.115  11.034  28.019  0.1814 -0.0336  0.0760
48808W        W91746  33.860  11.470  30.617  0.0860  0.0419  0.0974
48809W        W91747  32.025  10.651  30.086 -0.0644  0.0918  0.3084
48810W        W91748  34.305  11.119  28.469 -0.1692  0.1414 -0.1553
48811W        W91749   0.751   9.350  28.264 -0.0392  0.0383  0.0699
48812W        W91750  33.949   9.226  29.355  0.0152  0.0075 -0.0671
48813W        W91751  34.515  10.358  30.633  0.2025  0.0071  0.2368
48814W        W91752  32.632   7.749  31.313 -0.0697 -0.1113  0.1127
48815W        W91753  33.510   7.357  29.595 -0.0737  0.0045  0.0591
48816W        W91754  34.015  11.047  31.363  0.1977 -0.0374 -0.0255
48817W        W91755   0.527   8.908  30.015 -0.5143 -0.2406  0.1217
48818W        W91756  33.881  12.751  28.900 -0.1222  0.1839  0.2119
48819W        W91757   0.606   7.438  26.822 -0.1346 -0.0642 -0.1064
48820W        W91758  32.427  10.478  30.378  0.0173  0.2067 -0.0585
48821W        W91759  31.873   8.574  27.342  0.0250 -0.1243 -0.2408
48822W        W91760  32.879  10.301  29.491  0.3050 -0.1189  0.2117
48823W        W91761  34.435   9.113  30.739  0.1376 -0.0104 -0.0790
48824W        W91762   0.129   7.797  27.511 -0.1259 -0.3155 -0.0223
48825W        W91763  33.618   9.329  30.328 -0.2452  0.1660 -0.1063
48826W        W91764  33.530  11.241  31.615  0.2839 -0.1417 -0.0291
48827W        W91765  32.467   9.197  29.103  0.1627 -0.0254 -0.3188
48828W        W91766  33.200   9.326  29.690 -0.1210 -0.0667 -0.1126
48829W        W91767  34.319   9.564  26.151  0.1922  0.1812 -0.3120
48830W        W91768  33.532  10.398  28.756 -0.3549 -0.1626 -0.0463
48831W        W91769   0.225  11.269  28.925 -0.0218 -0.0516 -0.0514
48832W        W91770   1.029  10.749  29.892  0.0211  0.0480  0.0686
48833W        W91771  33.293   6.664  27.423  0.0425  0.0750 -0.2000
48834W        W91772  34.162   8.149  30.495 -0.1550 -0.1018 -0.0806
48835W        W91773   0.245   9.529  27.790  0.1487  0.4506  0.1205
48836W        W91774  34.636   8.248  29.462 -0.2705 -0.0259 -0.0498
48837W        W91775  34.248   8.746  27.099 -0.1174 -0.1956  0.0752
48838W        W91776   0.211   8.689  28.095 -0.0001  0.0030  0.0945
48839W        W91777  33.980   9.733  30.174 -0.1140 -0.0094 -0.0232
48840W        W91778  33.786   8.791  30.145 -0.0766  0.0324 -0.4386
48841W        W91779  33.654   7.705  28.130 -0.3538  0.1591  0.1407
48842W        W91780   0.550   9.399  26.596 -0.3301 -0.1394  0.0149
48843W        W91781  34.218   7.212  30.318 -0.0763  0.1062  0.0413
48844W        W91782   0.656   6.922  28.464  0.0438  0.1301 -0.0168
48845W        W91783  34.189   8.991  28.927  0.2392  0.0288  0.1574
48846W        W91784  32.284  10.856  29.268 -0.0599 -0.1243  0.0257
48847W        W91785  33.871  10.788  28.481 -0.0769  0.1843 -0.3638
48848W        W91786   1.644  10.675  30.640  0.0886  0.1038 -0.0238
48849W        W91787  34.556   9.755  31.953  0.0442 -0.0969 -0.1411
48850W        W91788  33.758   8.819  28.052 -0.0415  0.1391 -0.2856
48851W        W91789   0.571   9.686  30.189  0.0710  0.1988 -0.0936
48852W        W91790   0.304   9.758  29.089 -0.1086 -0.0914 -0.0477
48853W        W91791   0.335  11.831  29.600  0.0215 -0.0912  0.1559
48854W        W91792  34.494   9.879  28.801 -0.1342 -0.0597  0.0263
48855W        W91793  34.370   7.827  28.332 -0.0930  0.2165  0.0883
48856W        W91794  34.365   8.550  29.870  0.3438 -0.0101 -0.1361
48857W        W91795  33.638   7.590  28.665  0.0827  0.2858  0.0606
48858W        W91796  33.662   9.223  27.744 -0.1752 -0.1676  0.0620
48859W        W91797  33.358  10.443  29.617 -0.1366  0.2212 -0.2674
48860W        W91798  33.294   6.678   0.071  0.1290 -0.0162 -0.0029
48861W        W91799  32.664   7.703  31.804  0.0550  0.1902  0.0150
48862W        W91800  33.759   8.835  29.035  0.0936  0.0504 -0.3157
48863W        W91801  32.641   6.970  29.413 -0.1091 -0.0491  0.0764
48864W        W91802  32.466   7.374  29.687  0.0263  0.1535 -0.0371
48865W        W91803  31.784   6.591  28.155 -0.0295  0.2026 -0.3647
48866W        W91804   0.206   9.806  26.931 -0.0766  0.1738  0.0960
48867W        W91805  33.849   9.929  26.673 -0.0904  0.5256  0.0842
48868W        W91806  34.097   8.056   0.447  0.0996  0.0362  0.4217
48869W        W91807  33.948   7.828  31.245  0.0287 -0.0861  0.2513
48870W        W91808  32.610   7.159  27.676 -0.2831 -0.0752 -0.1346
48871W        W91809   0.089   7.250  30.232  0.2130  0.0375  0.4305
48872W        W91810  34.361  10.177  29.279 -0.0361  0.0498  0.1186
48873W        W91811   0.210  11.112  31.036 -0.1656 -0.1735 -0.1057
48874W        W91812  34.356   7.486  30.708  0.1592 -0.2322  0.4800
48875W        W91813   0.110  10.593  30.257  0.4060  0.1763  0.0016
48876W        W91814  32.999   7.851  30.935  0.0543 -0.0179 -0.1378
48877W        W91815  34.681   9.413  30.394  0.1817  0.0866  0.1209
48878W        W91816  33.777   7.985  28.908  0.1606  0.0344  0.1520
48879W        W91817  32.779   7.938  29.779 -0.0943  0.0183  0.1845
48880W        W91818   0.332   9.154  27.453 -0.2045  0.2113 -0.2557
48881W        W91819   1.003   9.273  29.533  0.0085  0.1006 -0.1436
48882W        W91820  34.194   9.426  27.487  0.0148  0.0575  0.0907
48883W        W91821   0.412  11.366  29.893 -0.2435 -0.1680  0.0044
48884W        W91822  33.031   6.966  30.842  0.0182 -0.0456  0.0235
48885W        W91823  33.884  10.089  29.008 -0.0444 -0.2710  0.3868
48886W        W91824   0.243  10.068  28.596 -0.1518  0.0499  0.0258
48887W        W91825   0.045   9.484  28.663 -0.0429  0.1154 -0.2210
48888W        W91826   0.106  10.654  31.207 -0.2064  0.0632  0.0217
48889W        W91827  32.341   8.438   0.235  0.0735 -0.2790 -0.1685
48890W        W91828  31.547   9.959   0.068 -0.0749  0.1580 -0.0261
48891W        W91829  34.644   9.391  31.612  0.0594  0.1146 -0.2451
48892W        W91830  33.731  10.323   0.023  0.1368  0.0317 -0.0213
48893W        W91831  33.990   7.255   1.432 -0.3428  0.0239 -0.0898
48894W        W91832  33.180   8.157   0.424  0.1032 -0.0357 -0.0448
48895W        W91833  34.608   7.815   0.439 -0.1752 -0.0019  0.0034
48896W        W91834  33.844  11.008  30.867  0.0983  0.2017 -0.2051
48897W        W91835  34.639   9.391   0.409  0.1658  0.2691  0.0045
48898W        W91836  33.554   7.691   1.680 -0.0718 -0.0567 -0.2452
48899W        W91837  33.463   6.208   0.345 -0.1624 -0.4822  0.1516
48900W        W91838  32.099   5.930   0.443  0.3210 -0.1070  0.3332
48901W        W91839  34.095  10.212   0.998  0.0397  0.1651  0.0367
48902W        W91840  34.431   8.581  30.821  0.1915 -0.2173  0.1567
48903W        W91841  34.440  11.556   0.293  0.0057 -0.1560 -0.1229
48904W        W91842   0.170   8.853  30.831  0.2402 -0.0335 -0.0649
48905W        W91843  34.322   9.453  31.137  0.0562  0.0504  0.0205
48906W        W91844   0.110   9.421  30.893  0.0247  0.0661 -0.1776
48907W        W91845  34.259   9.785  31.566 -0.0967 -0.2306  0.1727
48908W        W91846  33.388   9.170  31.349 -0.0553 -0.1413 -0.0134
48909W        W91847  34.225   8.665  31.252 -0.2869 -0.0509  0.1697
48910W        W91848  33.792   9.897  31.633 -0.0347 -0.0985 -0.4181
48911W        W91849  33.839   9.030   0.827 -0.0270  0.2146 -0.3778
48912W        W91850  32.938   7.130  31.708  0.0705 -0.0288  0.0077
48913W        W91851  34.353   9.782   0.570 -0.1403  0.1267 -0.0393
48914W        W91852  33.668   7.578   0.141 -0.1308 -0.2198  0.0993
48915W        W91853  33.557   7.297  31.446  0.0514 -0.2096  0.1708
48916W        W91854  33.572   8.173   1.839 -0.0872  0.1140 -0.0703
48917W        W91855  33.404  10.314  30.568  0.0187  0.1087 -0.0457
48918W        W91856  33.044   7.803   1.449  0.0098  0.1981 -0.0833
48919W        W91857  33.953  10.356  29.475 -0.0671 -0.1966  0.1724
48920W        W91858  33.997   7.214  31.212 -0.0244 -0.5501 -0.1440
48921W        W91859  34.257  10.648   0.211 -0.1995  0.3469 -0.3793
48922W        W91860  34.527  11.120  31.394 -0.1417  0.3183  0.0274
48923W        W91861  32.254   8.724  31.731 -0.1056 -0.1837 -0.1354
48924W        W91862  32.366   6.390  31.625  0.0913 -0.1057 -0.0306
48925W        W91863  33.272  10.209  30.014 -0.3223 -0.1807  0.4008
48926W        W91864  33.073  10.610  31.218 -0.1056  0.1734  0.4807
48927W        W91865  33.099   6.263   1.125  0.3267  0.2211  0.0356
48928W        W91866  33.511  13.106  18.579 -0.0342 -0.2019  0.0874
48929W        W91867  32.820  11.074  16.659 -0.0962 -0.1092 -0.0729
48930W        W91868  32.861  11.546  18.013  0.0177  0.0645  0.2589
48931W        W91869  32.231  10.613  20.548 -0.0479  0.2493 -0.1922
48932W        W91870  33.514  12.555  17.578  0.1350  0.0625 -0.1091
48933W        W91871  34.064  13.499  19.026 -0.2505  0.0585 -0.1260
48934W        W91872  34.501  10.892  16.000 -0.1588  0.1841 -0.0528
48935W        W91873  32.886  11.067  18.128  0.2411  0.0096  0.0805
48936W        W91874  32.826  13.011  16.313 -0.0907  0.1685 -0.0052
48937W        W91875  33.477  11.387  18.982  0.2623 -0.4513  0.0217
48938W        W91876  33.167  12.291  16.888  0.0497  0.0937 -0.1345
48939W        W91877  34.392  11.596  18.499 -0.2925 -0.2060  0.2123
48940W        W91878  34.603  13.259  16.600  0.0263 -0.2953  0.2594
48941W        W91879  33.266  11.341  15.385  0.1717  0.0312  0.0219
48942W        W91880  34.416  11.091  17.884  0.1511 -0.1945 -0.1912
48943W        W91881  34.408  12.245  19.190 -0.0527 -0.0879 -0.2484
48944W        W91882   0.338  14.083  18.105  0.0847 -0.2002 -0.3843
48945W        W91883  34.471  14.907  17.747 -0.3225 -0.0516  0.0952
48946W        W91884  32.445  12.760  17.210  0.0159 -0.0699  0.1278
48947W        W91885  32.314  14.533  19.450  0.0586 -0.2909  0.2489
48948W        W91886  33.794  13.814  16.615  0.0205 -0.1346  0.3987
48949W        W91887   0.205  13.832  19.049  0.3545  0.1711 -0.2293
48950W        W91888  32.965  12.061  15.469  0.1502  0.4028  0.1179
48951W        W91889  33.867  13.732  20.677  0.1792 -0.0462  0.4715
48952W        W91890  33.569  14.926  17.344  0.1945  0.2489  0.0193
48953W        W91891   0.796  14.167  17.291  0.0294 -0.0956  0.3262
48954W        W91892  34.575  14.629  20.014 -0.0338  0.1084  0.2557
48955W        W91893  31.882  13.562  17.198  0.0241  0.0921  0.0912
48956W        W91894  33.666  14.592  16.905  0.1631  0.0321 -0.1454
48957W        W91895  33.810  10.989  16.656 -0.2273 -0.0845 -0.1570
48958W        W91896   0.928  11.358  17.873 -0.0490  0.1832 -0.2033
48959W        W91897  33.614  14.779  17.880  0.0553  0.2866  0.1690
48960W        W91898  33.173  12.803  17.198 -0.2556  0.1860 -0.1646
48961W        W91899  33.057  14.391  20.109 -0.1963  0.3236 -0.0946
48962W        W91900  32.726  11.945  18.828 -0.0795  0.1673  0.4034
48963W        W91901  33.514  12.974  16.819  0.0008  0.1909  0.0546
48964W        W91902  33.671  11.896  20.493  0.0853  0.0076 -0.0126
48965W        W91903  33.410  13.122  18.072 -0.1578  0.3183  0.5057
48966W        W91904   0.472   9.949  17.468  0.3184 -0.1017  0.2726
48967W        W91905  33.031  13.155  18.409 -0.1538 -0.4204  0.2420
48968W        W91906  34.378  14.179  19.774  0.0053 -0.1625  0.0476
48969W        W91907  34.015  11.833  17.388 -0.3393 -0.2181  0.2505
48970W        W91908  34.418  13.246  18.386  0.0946 -0.2579 -0.0720
48971W        W91909  34.484  13.385  19.974 -0.4713 -0.0509  0.2440
48972W        W91910  33.654  12.339  19.081  0.2936  0.3813  0.2868
48973W        W91911   0.378  14.142  19.368 -0.2016  0.0078  0.1078
48974W        W91912  32.827  14.705  16.799 -0.2598 -0.1924 -0.0222
48975W        W91913  32.137  14.582  18.950 -0.4288  0.0451 -0.0775
48976W        W91914  32.441  13.465  17.999 -0.3871 -0.0848 -0.0786
48977W        W91915  32.222  10.815  19.886  0.4062  0.2932 -0.2374
48978W        W91916  33.425  12.155  18.606 -0.0535  0.1292  0.1301
48979W        W91917  33.151  11.380  18.437  0.1249  0.0361 -0.1218
48980W        W91918  33.066  12.380  15.901 -0.1639  0.1176  0.4555
48981W        W91919  32.431  11.645  19.165  0.2230  0.2165  0.0878
48982W        W91920  32.913  13.692  17.030 -0.0066 -0.2001  0.1863
48983W        W91921  33.792  12.118  19.628  0.3268  0.2848 -0.2100
48984W        W91922  33.938  11.058  17.736 -0.2691 -0.1131 -0.1025
48985W        W91923  32.208  10.742  16.013 -0.1267 -0.2175 -0.3657
48986W        W91924  32.954  12.745  16.737  0.0299 -0.1616  0.2874
48987W        W91925  32.659  12.610  16.149 -0.2097 -0.1163  0.0633
48988W        W91926  33.950  12.636  19.398  0.0525  0.2190 -0.0505
48989W        W91927  34.445  10.384  16.052 -0.0671  0.0163 -0.1324
48990W        W91928  32.125  16.134  17.873  0.0114  0.2721  0.0717
48991W        W91929  33.604  14.547  18.951 -0.2614  0.0748  0.0091
48992W        W91930  34.029  12.463  16.267 -0.2257  0.0736 -0.0568
48993W        W91931  31.957  13.080  20.036  0.1894  0.0145  0.2078
48994W        W91932  32.472  11.720  16.303 -0.3490  0.5012  0.2547
48995W        W91933  32.019  14.283  17.659 -0.1153 -0.2388  0.6498
48996W        W91934  31.394  12.556  18.188 -0.2704  0.2070  0.1852
48997W        W91935  33.866  15.140  17.007  0.1388 -0.0184 -0.1030
48998W        W91936  33.216  13.800  17.787  0.1360  0.0414 -0.0358
48999W        W91937  32.787  12.071  16.653  0.3554  0.1855  0.2030
49000W        W91938  34.325  14.252  20.244  0.0623  0.0816  0.0693
49001W        W91939  32.168  12.144  19.981 -0.2226  0.0239  0.1100
49002W        W91940   0.331  13.123  17.938 -0.0659  0.1900  0.4085
49003W        W91941  33.758  12.988  19.045  0.0179  0.1130 -0.1810
49004W        W91942  33.971  14.167  18.881  0.0916  0.1053  0.2701
49005W        W91943  33.772  11.672  19.911 -0.1201  0.2370 -0.1523
49006W        W91944  33.792  12.897  16.313 -0.0608 -0.1404 -0.2741
49007W        W91945  33.520  13.680  16.071  0.2048  0.4482  0.0473
49008W        W91946  33.733  11.851  19.110 -0.2681  0.0829  0.0676
49009W        W91947  33.037  11.607  15.727 -0.1938  0.1637  0.0724
49010W        W91948   0.540  12.900  20.635 -0.1600 -0.3020 -0.1587
49011W        W91949  33.031  12.267  17.878  0.5903  0.0366 -0.1461
49012W        W91950   0.034  13.848  19.541 -0.0346  0.3369 -0.1089
49013W        W91951   0.055  11.970  19.548  0.4938  0.2796 -0.0341
49014W        W91952  33.706  14.399  17.466  0.0949  0.0595 -0.3384
49015W        W91953  34.138  14.191  17.904 -0.0426  0.0709 -0.2350
49016W        W91954  33.708  11.324  18.193  0.0351 -0.3207  0.1651
49017W        W91955  34.477  13.090  18.886 -0.0663  0.0988 -0.0835
49018W        W91956  34.383  13.658  17.186 -0.0760  0.0057  0.1743
49019W        W91957  33.839  12.057  16.755 -0.1934 -0.1329  0.1995
49020W        W91958  32.554  14.054  19.550  0.1042 -0.2497 -0.2821
49021W        W91959  33.774  11.222  16.257 -0.0688  0.0231 -0.1553
49022W        W91960  32.459  11.897  17.041  0.3685 -0.0276 -0.3049
49023W        W91961  32.368  11.354  18.012  0.1566 -0.0235  0.2853
49024W        W91962   0.077  10.866  17.546  0.0311 -0.3819 -0.2576
49025W        W91963  32.759  14.300  19.120  0.1820 -0.2049 -0.1955
49026W        W91964  33.692  13.952  19.260 -0.0709 -0.1046 -0.3512
49027W        W91965  34.040  11.465  17.035  0.4328 -0.1522 -0.1268
49028W        W91966  34.223  12.817  17.966 -0.2545 -0.1538 -0.0347
49029W        W91967  33.489  14.105  18.639  0.4406 -0.1697  0.1295
49030W        W91968  33.606  13.369  16.477 -0.2409  0.1940 -0.2438
49031W        W91969  32.674  13.401  16.582 -0.1868 -0.1850  0.1069
49032W        W91970  33.873  12.390  18.362 -0.2959  0.2549 -0.2465
49033W        W91971  34.446  13.345  17.851 -0.0328  0.1238  0.0509
49034W        W91972  33.618  12.298  17.153  0.0399 -0.0150  0.3268
49035W        W91973  34.164  14.615  18.117  0.1448 -0.0561 -0.0092
49036W        W91974   0.037  12.531  19.890  0.0798  0.0242 -0.0796
49037W        W91975  33.407  14.589  19.643 -0.2586 -0.1278 -0.0854
49038W        W91976  33.495  12.493  16.596 -0.2165 -0.1736 -0.1071
49039W        W91977  32.977  13.325  17.894  0.0189 -0.1160  0.2392
49040W        W91978  34.348  13.165  17.334  0.0450 -0.0258  0.2025
49041W        W91979  33.940  13.188  18.159  0.2403  0.2669 -0.0038
49042W        W91980  34.186  13.759  19.603 -0.0822 -0.3341 -0.1872
49043W        W91981  33.809  14.461  16.482  0.3043 -0.2024  0.0246
49044W        W91982  33.086  15.327  19.000 -0.1957  0.3817 -0.0714
49045W        W91983  34.393  11.291  17.362 -0.3193  0.0454  0.1150
49046W        W91984  33.597  10.083  19.073 -0.0306  0.1987  0.1452
49047W        W91985  31.864  11.500  19.975 -0.2793 -0.2842  0.1273
49048W        W91986  33.594  12.990  19.804 -0.1672  0.1289 -0.0113
49049W        W91987  33.774   9.692  16.136 -0.0771 -0.2256 -0.0857
49050W        W91988  33.805  13.559  18.590 -0.0850  0.0699 -0.0239
49051W        W91989  33.392  13.611  17.091 -0.0232  0.0177 -0.1298
49052W        W91990  32.971  12.583  19.434  0.0328  0.0577 -0.0211
49053W        W91991   0.159  11.546  17.280  0.2437  0.1101  0.1489
49054W        W91992  33.655  14.276  18.027  0.1907 -0.3463  0.0807
49055W        W91993  33.320  10.668  19.483  0.3075 -0.0757 -0.0373
49056W        W91994  34.349  11.965  22.142 -0.1702  0.4335 -0.0129
49057W        W91995  32.648  10.395  20.848 -0.1243 -0.1344 -0.1384
49058W        W91996  33.164  12.332  19.014 -0.1011 -0.3947  0.1916
49059W        W91997   0.166  10.189  17.071  0.0200 -0.1435  0.3095
49060W        W91998  33.950  13.694  15.864  0.0724 -0.4203 -0.2557
49061W        W91999  31.876  11.574  17.785  0.2355 -0.1370  0.1287
49062W        W92000  33.703  14.737  20.710 -0.3347  0.1328 -0.2492
49063W        W92001  34.349  10.162  16.942 -0.2866 -0.1331 -0.0717
49064W        W92002  34.272  10.555  16.565  0.2206 -0.1594  0.2465
49065W        W92003   0.177  14.365  18.972  0.0709  0.0445 -0.0597
49066W        W92004  33.648   8.692  17.787 -0.3189  0.1422  0.2080
49067W        W92005  33.044  12.907  15.801  0.0803 -0.1793 -0.0604
49068W        W92006  33.298  14.231  19.257 -0.1264 -0.1860 -0.1057
49069W        W92007  32.846  13.619  18.289 -0.0078  0.0536 -0.0468
49070W        W92008  34.119  14.295  17.004  0.0976 -0.0583 -0.1001
49071W        W92009   0.859  12.933  17.876  0.2715 -0.1515 -0.1206
49072W        W92010  33.098  14.065  17.369  0.0796  0.1878  0.2098
49073W        W92011  32.692  13.896  18.830 -0.0979  0.1125  0.2629
49074W        W92012  33.458  12.724  19.361 -0.1286  0.1669  0.0901
49075W        W92013  33.841  10.024  16.962  0.1406  0.0114 -0.0343
49076W        W92014  32.049  13.714  19.378 -0.3154 -0.2192  0.5010
49077W        W92015  33.488  13.454  18.995 -0.3356 -0.1908 -0.3216
49078W        W92016  32.571  14.059  18.257  0.1398 -0.2167  0.0744
49079W        W92017  34.320  11.822  16.939  0.1016 -0.1650 -0.1058
49080W        W92018  33.897  15.082  18.203 -0.1147 -0.1535 -0.1000
49081W        W92019  32.621  13.162  17.564 -0.1574  0.1740 -0.0425
49082W        W92020  33.125  14.653  19.181 -0.3694 -0.0120 -0.0319
49083W        W92021  34.673  14.581  18.492 -0.0696  0.1323  0.2881
49084W        W92022  34.581  10.643  17.081  0.1791  0.0613 -0.3942
49085W        W92023   0.158  12.463  19.370 -0.1288 -0.2436  0.0660
49086W        W92024  32.292  13.235  19.701 -0.1439  0.3048  0.0278
49087W        W92025  33.185  12.216  17.437  0.1919  0.0329 -0.0653
49088W        W92026  32.845  14.107  17.850 -0.2599 -0.0676  0.2921
49089W        W92027  33.519  12.425  16.097  0.1077 -0.0361 -0.0593
49090W        W92028  33.789  15.557  17.261 -0.0060  0.0741  0.0170
49091W        W92029  34.482  14.280  19.335  0.0422 -0.4546 -0.1197
49092W        W92030  34.197  15.218  19.282  0.1937  0.4516  0.2645
49093W        W92031  33.518  10.506  16.540 -0.0706  0.0861 -0.0834
49094W        W92032  32.612  11.421  18.524 -0.1408 -0.1642  0.0187
49095W        W92033  33.642  11.515  16.725 -0.1929 -0.0317 -0.0982
49096W        W92034  32.145  11.654  20.361  0.0521  0.1632 -0.1805
49097W        W92035   0.836  10.667  16.856 -0.1707 -0.2234  0.0985
49098W        W92036  31.977  10.660  17.686  0.1604 -0.0906  0.0922
49099W        W92037  33.985  12.733  16.871 -0.2164  0.0342  0.2595
49100W        W92038  34.313  12.331  18.176 -0.1588  0.4842  0.1279
49101W        W92039  33.439  10.801  17.696  0.0463 -0.0479 -0.1613
49102W        W92040  33.547  14.739  16.113  0.2452  0.3055 -0.1093
49103W        W92041  33.337  11.809  18.083 -0.1966 -0.0927 -0.2479
49104W        W92042   0.849  10.275  17.504 -0.0211  0.0036  0.3056
49105W        W92043  33.087  14.037  18.373 -0.0136  0.0306 -0.0773
49106W        W92044  34.365  14.294  16.504 -0.0801 -0.1500 -0.0636
49107W        W92045  34.119  13.434  16.241 -0.1113 -0.2225  0.3450
49108W        W92046   0.016  13.407  19.186 -0.0666  0.0974 -0.0100
49109W        W92047  33.554  16.221  22.438  0.3188 -0.2835  0.0542
49110W        W92048  32.263  12.371  17.588 -0.1176 -0.0124  0.2886
49111W        W92049   0.924  13.413  19.922  0.4956  0.0942 -0.0796
49112W        W92050  33.969  14.965  17.643  0.1432  0.1459 -0.0584
49113W        W92051   0.051  14.567  16.412 -0.0101 -0.0528  0.2405
49114W        W92052   1.256  13.752  17.741 -0.2330 -0.2512 -0.0995
49115W        W92053  33.991  12.625  17.401  0.0482 -0.1199  0.2269
49116W        W92054  33.736  13.352  19.444  0.1206  0.0811 -0.2471
49117W        W92055  33.376  11.610  16.199 -0.0303  0.1234 -0.1659
49118W        W92056  33.734  11.951  16.256  0.1359 -0.0582 -0.0616
49119W        W92057  33.348  13.558  18.503  0.2752  0.0344 -0.3563
49120W        W92058  34.062  10.940  19.464 -0.0276  0.2104  0.4100
49121W        W92059  31.677  11.986  19.800 -0.1333 -0.1660 -0.1864
49122W        W92060  32.661  12.811  18.070  0.0010 -0.0473 -0.1614
49123W        W92061  33.562  11.993  17.667 -0.0665  0.1458 -0.0918
49124W        W92062  33.894  12.352  17.812  0.1124 -0.1897 -0.0992
49125W        W92063  34.218  10.766  17.426  0.1349  0.1257 -0.0483
49126W        W92064  33.407  11.010  16.977 -0.1632 -0.0412  0.0427
49127W        W92065  33.562  11.363  15.812  0.0074 -0.1814  0.1927
49128W        W92066  33.720  13.361  20.311  0.1934  0.0780  0.0715
49129W        W92067  34.050  12.152  18.734  0.0296  0.0011  0.1959
49130W        W92068  31.543  11.722  15.912  0.0776 -0.1656  0.2281
49131W        W92069   0.194  13.038  17.025  0.2010 -0.0428 -0.0646
49132W        W92070   0.815  15.032  19.171 -0.1179  0.1128  0.1433
49133W        W92071   0.688  13.018  20.149 -0.2767  0.0598  0.0651
49134W        W92072  32.784  10.415  20.374 -0.1138 -0.1112  0.2046
49135W        W92073   1.357  13.186  20.006 -0.0563  0.1850  0.2963
49136W        W92074  32.182  11.140  20.360  0.0045  0.3775  0.0790
49137W        W92075  33.493  12.298  18.084 -0.1750 -0.1794 -0.0324
49138W        W92076  33.384  10.916  18.266 -0.1067 -0.1401 -0.0776
49139W        W92077  33.664  13.764  18.060 -0.4116  0.1911  0.1082
49140W        W92078  34.117  12.253  17.120 -0.4301  0.0960 -0.1841
49141W        W92079  34.032  13.825  20.125  0.2599 -0.0114  0.0392
49142W        W92080  33.275  12.830  16.354 -0.1654  0.3190 -0.1524
49143W        W92081   0.149  14.790  18.036  0.0356 -0.4426 -0.0617
49144W        W92082  33.179  10.201  19.399 -0.0730  0.0130 -0.3486
49145W        W92083  34.116  13.648  17.609 -0.1105 -0.2448  0.0177
49146W        W92084  33.446  13.064  17.487  0.2322 -0.0700  0.0287
49147W        W92085  33.971  11.516  18.805 -0.1486 -0.0004  0.0165
49148W        W92086  32.808  13.034  19.656 -0.2560 -0.0709  0.0422
49149W        W92087  32.013  12.212  24.877  0.2084 -0.1526 -0.1612
49150W        W92088   0.037  13.680  21.182 -0.1976 -0.3003 -0.1786
49151W        W92089  32.482  11.752  20.896  0.0758 -0.1043  0.1438
49152W        W92090  33.179  10.217  22.484 -0.0863 -0.3553  0.2047
49153W        W92091  33.538  12.370  22.416 -0.1938  0.0734  0.2187
49154W        W92092  33.403  13.367  22.539 -0.2480 -0.1101 -0.1121
49155W        W92093   0.339  11.943  20.479 -0.1476  0.2704  0.0250
49156W        W92094  32.839  10.938  22.574  0.1688 -0.1451  0.1320
49157W        W92095  34.340  12.458  21.945 -0.3117  0.1250 -0.2647
49158W        W92096  33.011  12.206  22.353 -0.0652 -0.0744 -0.4768
49159W        W92097  33.133  11.501  21.354 -0.2237  0.1454 -0.1609
49160W        W92098   0.288  11.731  22.663  0.2960  0.3844 -0.0812
49161W        W92099  33.786  14.534  21.980  0.0504 -0.0606  0.0001
49162W        W92100  33.363  12.010  19.982 -0.2288  0.2691  0.0003
49163W        W92101  33.245  12.738  21.451  0.0083  0.0971 -0.0481
49164W        W92102  33.307  13.162  20.813  0.2593  0.0429 -0.1584
49165W        W92103  33.839  13.841  23.442  0.1031  0.1126  0.0457
49166W        W92104   0.752  14.551  22.728 -0.0033 -0.0602  0.1568
49167W        W92105  32.964  13.657  21.694  0.1127 -0.2671  0.0733
49168W        W92106  32.555  13.472  22.322  0.0619  0.2570  0.0639
49169W        W92107   0.466  13.823  22.305  0.0816 -0.0175 -0.3673
49170W        W92108  34.243  14.953  24.072  0.0676 -0.0117 -0.3584
49171W        W92109  33.564  14.608  20.126  0.0598 -0.2335 -0.0139
49172W        W92110  33.152  14.647  24.295  0.2873  0.0152 -0.1726
49173W        W92111  33.832  15.029  21.742 -0.0199 -0.2536  0.0526
49174W        W92112  33.829  13.939  21.402 -0.0752 -0.0256  0.0513
49175W        W92113   0.353  13.126  23.933 -0.0340 -0.2825 -0.0868
49176W        W92114  32.833  12.361  23.664 -0.0395 -0.0771  0.0285
49177W        W92115  33.544  13.869  20.298 -0.0141 -0.0619  0.4817
49178W        W92116  34.426  12.418  20.794 -0.2897  0.1755 -0.4010
49179W        W92117  33.958  10.023  19.925  0.0088 -0.2808  0.0537
49180W        W92118  34.053  14.909  22.192  0.2309  0.0885  0.2669
49181W        W92119  33.534  11.751  21.622 -0.0263  0.1612  0.2062
49182W        W92120  33.897  13.386  22.474  0.0479  0.0877 -0.1018
49183W        W92121  33.036  11.707  22.222  0.0713  0.2512 -0.1597
49184W        W92122  33.688  11.997  21.141  0.0319 -0.2602 -0.1247
49185W        W92123  33.840  13.083  24.732 -0.0743  0.2502 -0.2102
49186W        W92124  33.379  12.775  26.975 -0.1941  0.4735  0.0645
49187W        W92125  33.070  11.245  19.817 -0.2391  0.0853 -0.0877
49188W        W92126  33.782  13.596  23.974  0.2087  0.0687 -0.1306
49189W        W92127  34.255  13.773  22.856  0.1489 -0.0559  0.1340
49190W        W92128  33.906  12.621  19.957  0.1029  0.0010 -0.5860
49191W        W92129  33.458  13.735  21.702 -0.1590  0.2393 -0.0554
49192W        W92130  33.930  13.056  23.016 -0.2701  0.1568 -0.2460
49193W        W92131  33.713  11.842  23.667 -0.0235  0.0395  0.0508
49194W        W92132   0.353  14.251  22.572 -0.1742 -0.3306  0.2826
49195W        W92133  33.278  16.468  19.752  0.0653 -0.2011 -0.3736
49196W        W92134  31.885  13.271  21.726 -0.0919 -0.0343  0.3243
49197W        W92135  33.100  12.880  20.007  0.0656 -0.2469 -0.0197
49198W        W92136  32.167  11.751  24.049 -0.3144 -0.2586 -0.0562
49199W        W92137  33.025  13.225  22.242  0.1117  0.1667  0.1727
49200W        W92138  32.493  11.207  22.855  0.2357  0.2430  0.0241
49201W        W92139  33.775  14.298  20.963 -0.2120 -0.2760 -0.0965
49202W        W92140  32.505  10.633  22.901  0.1146  0.1155  0.0381
49203W        W92141  32.666  11.793  21.369 -0.4560  0.1323 -0.4098
49204W        W92142  33.121  11.577  22.997  0.1482  0.0494  0.3138
49205W        W92143  32.765  12.475  21.202 -0.0343  0.0193  0.0915
49206W        W92144  33.102  11.031  20.310  0.0669  0.0981  0.0222
49207W        W92145  34.229  13.017  21.186  0.2648  0.0565 -0.3669
49208W        W92146  33.277  14.072  19.831  0.0003  0.1948 -0.0050
49209W        W92147  33.271  11.277  22.455 -0.0630  0.1329  0.1609
49210W        W92148  33.116  12.588  20.444  0.1018  0.2217  0.0113
49211W        W92149  33.652  14.208  22.584  0.0605 -0.0870 -0.0570
49212W        W92150  34.487  13.361  20.874  0.1630 -0.0817  0.0276
49213W        W92151  33.366  12.110  22.050 -0.3076  0.0015 -0.0511
49214W        W92152  32.216  12.746  22.420 -0.3654  0.1565  0.2679
49215W        W92153  32.829  12.031  19.355  0.2011  0.1040 -0.1654
49216W        W92154  32.716  13.962  20.820  0.0167 -0.0608 -0.3234
49217W        W92155  33.711  13.070  21.460  0.3353  0.1695 -0.1496
49218W        W92156  34.044  13.938  22.447 -0.1799 -0.1753  0.0761
49219W        W92157  33.702  14.217  24.384 -0.1216 -0.2070  0.0487
49220W        W92158  31.710  12.478  20.326 -0.0366  0.0456  0.1606
49221W        W92159  33.836  13.531  22.947 -0.0273  0.0623  0.1367
49222W        W92160  34.218  13.393  23.248 -0.0239  0.3613  0.0740
49223W        W92161   0.493  14.789  20.440  0.0361 -0.2489 -0.2764
49224W        W92162   0.889  13.794  23.474 -0.2038 -0.1233 -0.0784
49225W        W92163  32.997  12.846  24.733  0.0790  0.0567  0.0891
49226W        W92164  33.041  12.402  22.856  0.0657 -0.0264 -0.1376
49227W        W92165  34.376  12.848  19.843 -0.1609 -0.2171 -0.2833
49228W        W92166  33.068  15.312  20.713  0.0563  0.1919 -0.1723
49229W        W92167   0.051   9.352  23.582 -0.1414 -0.0312 -0.1853
49230W        W92168  33.336  12.203  20.849  0.2271 -0.0437 -0.2499
49231W        W92169  32.955   9.592  23.380 -0.2828  0.1390 -0.1053
49232W        W92170  33.107  12.833  22.679 -0.0083 -0.0752 -0.2573
49233W        W92171  32.977  14.501  23.270  0.0517  0.1971  0.0884
49234W        W92172  33.470  10.985  22.733 -0.1615  0.2601  0.0244
49235W        W92173   0.319  14.905  20.962  0.1504  0.1182 -0.0428
49236W        W92174  33.198  13.355  20.349 -0.2952 -0.2102  0.1223
49237W        W92175  34.520  11.206  21.115  0.0418  0.0964  0.3214
49238W        W92176  32.609  12.410  23.134  0.0666 -0.0401  0.2376
49239W        W92177  33.327  14.430  20.561 -0.2572  0.2070 -0.3995
49240W        W92178  34.042  12.846  22.523 -0.0105  0.0176 -0.0886
49241W        W92179  32.867  13.197  21.734 -0.0096  0.3112  0.0737
49242W        W92180  33.137  12.015  20.421  0.0929 -0.1844  0.1403
49243W        W92181  32.287  12.198  21.028 -0.0764  0.0643  0.2938
49244W        W92182  34.385  11.286  21.687  0.2656 -0.0226 -0.0701
49245W        W92183   0.532  12.405  23.270  0.2685 -0.0830 -0.1411
49246W        W92184  33.078  13.424  24.496 -0.2908 -0.0827 -0.1424
49247W        W92185   0.485  13.207  24.427  0.5722 -0.0971  0.0324
49248W        W92186  31.365  11.180  20.351  0.1761 -0.1469  0.1293
49249W        W92187   0.174  12.093  22.247  0.1358 -0.3495 -0.0435
49250W        W92188  32.798  13.924  19.976 -0.0431  0.4079  0.0506
49251W        W92189  31.889  13.713  20.043  0.3848 -0.0282 -0.0346
49252W        W92190  33.778  13.229  20.882  0.0850 -0.0531  0.2888
49253W        W92191  34.474  11.499  23.737 -0.4110  0.1443 -0.0994
49254W        W92192  33.955  11.210  22.848 -0.3027 -0.1087  0.0732
49255W        W92193  33.902  10.513  21.303  0.0797 -0.2262 -0.0935
49256W        W92194  34.694  12.187  21.714 -0.2928 -0.1933  0.1552
49257W        W92195  33.529  11.619  22.161  0.3154 -0.2623  0.1338
49258W        W92196  34.278  14.690  23.652 -0.2230 -0.1736 -0.0662
49259W        W92197  34.026  13.275  19.894 -0.1964 -0.2343 -0.3468
49260W        W92198  32.432  12.898  23.025  0.6035 -0.2030  0.1287
49261W        W92199  33.161  13.411  19.834  0.1881  0.1067 -0.3203
49262W        W92200  34.120  10.625  22.962 -0.0487  0.2612 -0.1675
49263W        W92201  34.298  13.306  22.149  0.2704 -0.0301  0.1246
49264W        W92202  31.812  12.917  19.530 -0.0799 -0.0077  0.0113
49265W        W92203  33.941  12.843  23.457 -0.0395  0.1214  0.1889
49266W        W92204  33.364  11.658  20.939  0.3365  0.0647 -0.3774
49267W        W92205  33.717  10.301  22.347 -0.0738  0.1805  0.2648
49268W        W92206  33.498  12.720  24.549 -0.0309  0.2839  0.0645
49269W        W92207  33.986  12.763  25.941  0.2194  0.1041  0.1657
49270W        W92208  33.210  10.194  20.262  0.2737 -0.0225  0.0717
49271W        W92209  33.415  10.744  23.233  0.0665 -0.1963  0.3091
49272W        W92210   0.321  13.984  21.478  0.3939  0.0368  0.0131
49273W        W92211  32.465  12.522  22.060  0.0165 -0.0552 -0.2413
49274W        W92212   1.387  12.781  20.883  0.3356 -0.1263 -0.0125
49275W        W92213  34.020  11.623  21.920 -0.0723  0.1689  0.0276
49276W        W92214  33.670   9.251  23.646 -0.2636 -0.1484  0.0169
49277W        W92215  33.453  11.236  23.254 -0.0827  0.2195 -0.0003
49278W        W92216  33.612  10.926  24.667 -0.2076 -0.0111  0.2741
49279W        W92217  33.485  11.874  23.125 -0.0659 -0.0893  0.0266
49280W        W92218  33.126  12.713  20.921 -0.1658 -0.0496 -0.2267
49281W        W92219   0.818  14.815  21.486 -0.0554 -0.1023  0.1445
49282W        W92220  32.637  12.041  22.020 -0.0972  0.2132  0.0666
49283W        W92221  32.801  14.072  23.676  0.1553  0.1242  0.4809
49284W        W92222  32.069  11.233  19.591 -0.0046 -0.3827  0.1429
49285W        W92223  33.719  14.078  22.038  0.1703 -0.1300 -0.2217
49286W        W92224   0.733  14.508  23.805  0.1024 -0.1325 -0.1938
49287W        W92225  34.297  11.976  20.515  0.1813 -0.3078  0.0155
49288W        W92226  33.755  15.079  20.320 -0.0161  0.2102  0.3405
49289W        W92227  33.246  13.306  23.417 -0.0958  0.0343  0.1487
49290W        W92228  32.394  13.371  23.094 -0.2149  0.1777  0.1127
49291W        W92229  33.250  14.090  21.983 -0.0374 -0.0942 -0.1839
49292W        W92230   1.620  12.103  22.569 -0.0710 -0.2295 -0.1907
49293W        W92231  33.429  12.573  21.955  0.1366 -0.0275  0.0326
49294W        W92232  34.643  14.332  21.657  0.1459  0.2302  0.1497
49295W        W92233  33.119  11.716  24.362  0.0277 -0.1317 -0.1008
49296W        W92234  33.118  12.062  21.310 -0.1616  0.1996 -0.0005
49297W        W92235  33.429  13.752  24.571 -0.1442  0.2262  0.0316
49298W        W92236  32.383  12.535  23.591  0.0322  0.1847 -0.0771
49299W        W92237  33.758  14.607  21.443 -0.2159 -0.3026  0.2098
49300W        W92238  33.818  11.349  19.300  0.2040 -0.1409 -0.3255
49301W        W92239  32.672  13.632  20.466  0.1329  0.3414 -0.1474
49302W        W92240  31.564  13.913  19.532  0.3227 -0.0478 -0.1901
49303W        W92241  33.863  13.088  22.083  0.0790 -0.2005  0.0370
49304W        W92242  33.436  13.125  23.034 -0.1330 -0.2890  0.2100
49305W        W92243  33.161  11.170  19.288  0.0406 -0.0249  0.1230
49306W        W92244   0.046  11.332  25.852 -0.2475  0.0512  0.4430
49307W        W92245  31.992  13.075  24.889  0.0068  0.1333  0.0161
49308W        W92246  33.468  11.231  20.663  0.0715 -0.1640 -0.1947
49309W        W92247   0.210  13.172  22.787 -0.1610  0.2080  0.0303
49310W        W92248  34.283  14.831  19.603  0.0615 -0.1081  0.0019
49311W        W92249  34.242  14.684  21.669  0.1796  0.1943  0.0313
49312W        W92250  33.432  14.227  21.499 -0.0095  0.0313 -0.0279
49313W        W92251  34.406  12.956  23.140  0.2595  0.0170  0.2714
49314W        W92252  31.953  11.385  21.089  0.2417  0.1002  0.0803
49315W        W92253  33.874  11.176  21.687 -0.2503 -0.4776 -0.1965
49316W        W92254  33.042  11.831  21.728 -0.2304 -0.0815 -0.1139
49317W        W92255   0.623  12.751  22.858  0.1984 -0.1556  0.4599
49318W        W92256  33.976  11.524  20.798  0.0690  0.5045 -0.0162
49319W        W92257  33.416  11.961  22.583 -0.1431 -0.1597 -0.2388
49320W        W92258  33.897  12.626  22.059 -0.0910  0.2740  0.1376
49321W        W92259  32.655  12.456  22.566  0.0143  0.1337 -0.3502
49322W        W92260  31.338  11.511  20.743  0.3308 -0.0814  0.0032
49323W        W92261   0.024  14.880  20.410  0.1639 -0.2244 -0.0384
49324W        W92262  31.922  11.764  22.561 -0.0289  0.1163 -0.3691
49325W        W92263  34.562  10.906  19.714 -0.2052  0.0568  0.2486
49326W        W92264   0.125  12.595  21.978 -0.2627 -0.0874  0.1346
49327W        W92265  34.184  14.269  21.430 -0.1801 -0.0764  0.2361
49328W        W92266   0.962  14.765  19.552 -0.0580  0.1439 -0.2513
49329W        W92267   0.048  13.850  23.401  0.3061 -0.5228  0.3983
49330W        W92268  33.930  14.129  22.956 -0.1697  0.1767 -0.2225
49331W        W92269  32.064  12.637  19.934 -0.1017 -0.0527 -0.2788
49332W        W92270   0.159  12.595  23.015  0.1563 -0.0940 -0.0257
49333W        W92271   0.180  13.237  22.293 -0.4780 -0.1078  0.0925
49334W        W92272   0.377  13.971  19.893 -0.0030  0.2168 -0.1456
49335W        W92273   0.674  13.104  22.461 -0.0322  0.0616 -0.1426
49336W        W92274  34.116  12.040  22.879 -0.2281  0.0344  0.0263
49337W        W92275  33.864  12.200  23.306  0.0147 -0.1589 -0.1822
49338W        W92276  33.431  11.613  19.537 -0.1546 -0.1226  0.0514
49339W        W92277  33.123  12.808  17.766  0.2851 -0.5626 -0.4236
49340W        W92278  34.166  12.386  22.442 -0.0001  0.2227 -0.1729
49341W        W92279  34.636  10.248  23.333  0.0821 -0.6234  0.1820
49342W        W92280  33.288  11.615  23.555  0.2090 -0.0024  0.2001
49343W        W92281  33.386  13.101  21.876  0.0669  0.0946  0.0602
49344W        W92282  33.005  10.686  20.675  0.1790 -0.2303  0.1671
49345W        W92283  34.645   9.559  22.443 -0.0464 -0.0252  0.0035
49346W        W92284  32.652  10.976  20.521 -0.0481  0.2747 -0.0662
49347W        W92285  34.043  10.986  20.518  0.1388 -0.3061  0.0818
49348W        W92286  31.038  12.754  19.843  0.0738  0.0515  0.1791
49349W        W92287  34.336  12.444  23.516  0.1689  0.0052  0.0138
49350W        W92288  33.291   9.470  22.678  0.3073 -0.1660 -0.0862
49351W        W92289  30.464  13.096  21.881 -0.1272  0.1357 -0.2281
49352W        W92290  34.577  12.000  22.628 -0.3141  0.0179 -0.0741
49353W        W92291  33.550  12.566  22.991  0.1589  0.2495  0.1555
49354W        W92292  34.599  13.587  22.497 -0.2150 -0.1402  0.0247
49355W        W92293  33.743   9.078  24.113  0.0467  0.0565  0.0183
49356W        W92294  33.204  13.659  22.985 -0.3961 -0.0162 -0.0096
49357W        W92295  33.155  11.346  24.960 -0.1720 -0.0806  0.1081
49358W        W92296   0.044  13.708  23.925  0.2018 -0.0258  0.0221
49359W        W92297   0.310  11.629  21.795 -0.0942 -0.0031  0.4613
49360W        W92298  32.055  12.823  21.854  0.3205  0.0745 -0.1413
49361W        W92299   0.298  11.316  20.495 -0.0637  0.0235 -0.0361
49362W        W92300  34.681  11.010  23.832 -0.0407 -0.1451  0.0283
49363W        W92301  34.002  11.519  21.323  0.0429  0.0566 -0.0852
49364W        W92302  33.572  12.912  22.537  0.4233 -0.0268  0.4245
49365W        W92303  33.303  13.409  21.324  0.1956 -0.1318  0.0731
49366W        W92304  34.093  12.797  20.740  0.0096 -0.1416  0.0512
49367W        W92305   0.026  13.092  21.782  0.3802  0.1745  0.0793
49368W        W92306  32.686  13.119  20.498  0.2800 -0.0457 -0.0299
49369W        W92307  33.911  14.882  23.367  0.0261  0.3022  0.0024
49370W        W92308  33.883  12.991  28.394 -0.0671 -0.0806  0.1460
49371W        W92309  34.263  11.688  25.266 -0.0649 -0.0788  0.2442
49372W        W92310  31.862  11.401  26.608  0.2848 -0.0610 -0.0219
49373W        W92311  34.482  11.720  27.266 -0.1052  0.1484  0.0252
49374W        W92312  33.631  12.073  28.290 -0.1078 -0.0921 -0.3604
49375W        W92313  34.541  14.324  26.152 -0.2726  0.1471  0.3553
49376W        W92314   0.179  10.653  24.134 -0.0354  0.1122 -0.2916
49377W        W92315  31.619  11.397  27.089  0.0150  0.2422 -0.0527
49378W        W92316  34.054  12.390  26.339  0.1227  0.2228 -0.0883
49379W        W92317   0.188  11.591  27.664 -0.0505 -0.1122 -0.1058
49380W        W92318  34.053  11.740  24.042  0.0602  0.3447 -0.3118
49381W        W92319  32.845  11.252  27.521  0.3142 -0.3577  0.0495
49382W        W92320  34.447  12.813  23.894  0.4239 -0.4310 -0.0137
49383W        W92321  34.120  11.009  24.581 -0.2436  0.0989  0.1617
49384W        W92322  33.535  12.282  27.031  0.1105  0.0490 -0.0772
49385W        W92323  34.533  12.900  27.812  0.2532 -0.1694  0.0024
49386W        W92324  33.661  13.709  25.297 -0.2690  0.0815  0.3129
49387W        W92325   0.127  14.612  25.847  0.3002  0.3033  0.1018
49388W        W92326  32.940  14.362  25.682 -0.3690 -0.0810  0.3099
49389W        W92327  33.205  16.106  25.571 -0.0771 -0.3534  0.1254
49390W        W92328   0.148  12.136  23.465 -0.3022  0.1856  0.0569
49391W        W92329   0.153  14.008  27.269 -0.3017  0.3204  0.0184
49392W        W92330  33.756  13.184  25.792  0.1835  0.0641 -0.0424
49393W        W92331  33.681  14.101  28.492 -0.1263 -0.1099  0.1785
49394W        W92332  33.052  12.418  24.135 -0.1153 -0.0110 -0.0501
49395W        W92333  34.655  14.756  26.349 -0.1431 -0.1494 -0.1944
49396W        W92334  33.917  13.493  27.657  0.0067  0.1407  0.2976
49397W        W92335  33.542  13.695  25.791  0.2900 -0.3848 -0.0174
49398W        W92336   1.523  14.517  24.484  0.0578 -0.1991  0.0250
49399W        W92337  34.159  10.851  25.600  0.2075 -0.1394 -0.0006
49400W        W92338  33.039   9.890  26.681  0.0857 -0.1149 -0.1929
49401W        W92339  33.703  15.694  26.425  0.3220  0.0749  0.0667
49402W        W92340  34.582  10.443  26.948  0.1852  0.0646  0.0053
49403W        W92341  34.498  15.165  26.651 -0.0648  0.0002 -0.2337
49404W        W92342  32.442  11.173  26.479 -0.0179 -0.0888  0.0531
49405W        W92343  33.509  11.579  26.051  0.1819  0.1827 -0.0944
49406W        W92344  34.072  13.866  28.725 -0.0354 -0.1081 -0.1868
49407W        W92345  34.250  11.421  27.817 -0.3435 -0.0807  0.4389
49408W        W92346  34.307  10.698  23.993  0.0022  0.2972 -0.2606
49409W        W92347  33.888  14.184  26.762 -0.1792  0.0687  0.1185
49410W        W92348  34.364  12.766  27.202  0.2381  0.1794 -0.0093
49411W        W92349  33.178  12.431  25.380 -0.0960 -0.1958 -0.0482
49412W        W92350   0.632  12.805  25.802  0.0182 -0.2493  0.2383
49413W        W92351  33.508  14.608  25.858 -0.2226 -0.2014 -0.0144
49414W        W92352   1.297  11.862  26.378  0.2059 -0.0604 -0.2555
49415W        W92353   0.006  13.365  28.218  0.0787 -0.1510 -0.1462
49416W        W92354  33.587  13.131  23.856 -0.1406 -0.0954 -0.0048
49417W        W92355  33.660  13.543  26.591 -0.2079  0.0263  0.0642
49418W        W92356  34.545  13.288  24.181  0.0779 -0.2166  0.0147
49419W        W92357  32.536  12.202  27.801 -0.4048  0.0192 -0.0938
49420W        W92358  33.349  13.259  27.460  0.1843  0.1356 -0.2132
49421W        W92359  32.977  11.231  28.478 -0.0916  0.0893 -0.2374
49422W        W92360  34.508  12.792  26.174 -0.3221 -0.0665  0.2568
49423W        W92361  32.447  12.384  27.263 -0.1433 -0.0109  0.0508
49424W        W92362   0.592  11.485  25.803  0.0805  0.2697 -0.3124
49425W        W92363  33.752  10.585  27.096 -0.0488  0.2739  0.1115
49426W        W92364  33.952  11.067  27.577  0.2563 -0.6516  0.0767
49427W        W92365  33.229  11.950  25.229 -0.1552 -0.3084  0.0514
49428W        W92366  34.668  12.829  25.663  0.0275 -0.0329  0.0072
49429W        W92367  32.966  11.187  26.512 -0.1635  0.0504  0.2561
49430W        W92368  33.712  10.865  26.641  0.1691 -0.1834 -0.2010
49431W        W92369  32.873  12.145  25.894  0.0641  0.0846  0.1219
49432W        W92370  33.098  14.706  26.424 -0.1695  0.0940  0.2123
49433W        W92371  33.074  14.860  25.908  0.1902 -0.1481 -0.1506
49434W        W92372  32.249  11.003  24.713  0.3094  0.0404  0.1577
49435W        W92373  34.033  13.809  27.045  0.1291  0.1837 -0.0456
49436W        W92374  32.665  13.091  23.505 -0.1616  0.0361 -0.1388
49437W        W92375  34.456  14.852  24.840  0.1250 -0.0329 -0.0895
49438W        W92376  32.906  12.127  26.695  0.3000 -0.0763  0.1454
49439W        W92377  33.964  12.096  25.352 -0.0798  0.0045 -0.0926
49440W        W92378  32.284  13.598  27.960  0.0013  0.0815 -0.1079
49441W        W92379  32.989  13.001  25.239  0.2942  0.0575 -0.1216
49442W        W92380  33.882  13.716  28.135  0.1715  0.0537  0.1581
49443W        W92381  32.127  13.913  27.618  0.1200  0.1163 -0.0376
49444W        W92382   1.184  14.576  24.828  0.1507 -0.3041  0.1672
49445W        W92383   1.157  13.722  27.007 -0.1770  0.0789  0.0654
49446W        W92384  32.511  13.637  27.372 -0.2588 -0.1232 -0.2140
49447W        W92385   0.833  12.283  28.011 -0.1724  0.0369  0.0893
49448W        W92386   0.359  11.929  24.034  0.1866 -0.1209 -0.0821
49449W        W92387  32.376  14.708  24.848 -0.1681  0.1231 -0.0436
49450W        W92388   0.070  11.882  28.296 -0.0040  0.0839 -0.0753
49451W        W92389  34.619  12.767  25.069  0.0888  0.0822 -0.3099
49452W        W92390  33.276  10.070  26.306  0.1566  0.4577  0.0109
49453W        W92391  33.253  11.926  27.871 -0.2257 -0.1830 -0.1583
49454W        W92392   0.259  14.165  26.464 -0.1313  0.1297 -0.1726
49455W        W92393  33.451  10.382  26.669  0.0711  0.1202  0.0464
49456W        W92394  33.524  15.107  25.547  0.0109 -0.0596  0.2298
49457W        W92395  34.341  13.772  24.256  0.1596 -0.1759 -0.0953
49458W        W92396  34.461  11.012  26.542  0.1761 -0.0210  0.2311
49459W        W92397  33.699  13.099  26.749 -0.2016 -0.0228 -0.3575
49460W        W92398  33.940  12.312  23.875 -0.2611 -0.1039 -0.1638
49461W        W92399  33.915  14.335  23.514  0.1916 -0.2623 -0.0241
49462W        W92400  33.714  15.371  27.027 -0.1998 -0.2846  0.0995
49463W        W92401  33.342  12.266  24.489 -0.0927 -0.2661  0.0803
49464W        W92402  34.276  12.892  24.480 -0.0829 -0.2238  0.2508
49465W        W92403  32.975  12.479  27.093 -0.3524  0.1923  0.1606
49466W        W92404  34.147  10.621  27.442 -0.0312  0.0950  0.0934
49467W        W92405  32.686  14.196  27.290 -0.0529  0.1441 -0.0107
49468W        W92406   1.488  12.421  26.935 -0.1462 -0.3393  0.0188
49469W        W92407  32.328  12.070  26.018 -0.0538  0.0957  0.0842
49470W        W92408  33.961  12.661  26.925 -0.0262  0.1161  0.1093
49471W        W92409   0.322  11.951  25.919 -0.0504  0.0686 -0.0839
49472W        W92410  34.209  12.484  25.580  0.1521  0.0374 -0.2262
49473W        W92411   0.084  13.609  24.500  0.0574  0.1261 -0.0390
49474W        W92412  33.527  12.035  27.438 -0.2436  0.1200 -0.2899
49475W        W92413  34.405  12.622  26.713  0.0383 -0.1803 -0.1796
49476W        W92414   0.490  10.463  23.775  0.2267 -0.1782  0.1892
49477W        W92415   0.153  11.720  25.271 -0.0263 -0.2228  0.0961
49478W        W92416  34.668  12.421  28.087  0.0860  0.1706  0.4132
49479W        W92417  34.588  14.362  27.035 -0.0280  0.0205 -0.0033
49480W        W92418  33.794  14.736  23.834 -0.1731 -0.1309 -0.3464
49481W        W92419   0.105  12.333  26.951 -0.0581  0.1037 -0.2087
49482W        W92420  34.078  14.348  24.026  0.0015 -0.0468 -0.0541
49483W        W92421   1.090  11.899  25.601  0.0508 -0.0192 -0.0645
49484W        W92422  33.661  13.123  26.269  0.0178  0.0828 -0.0346
49485W        W92423  34.232  13.797  23.761  0.1553  0.1141  0.4380
49486W        W92424  33.186  15.023  26.825  0.0392  0.1598  0.0782
49487W        W92425   0.163  11.296  26.450  0.0737  0.0576  0.0692
49488W        W92426  34.493  12.384  27.566 -0.0493  0.1693  0.0371
49489W        W92427  31.458  10.599  27.322  0.1708  0.1859  0.2071
49490W        W92428  31.221  12.056  27.566  0.1058  0.2162 -0.2457
49491W        W92429  34.038  11.993  24.859  0.1882 -0.2381  0.0194
49492W        W92430   0.679  13.414  27.167  0.1258  0.0895  0.2204
49493W        W92431   0.770  12.479  24.623  0.1146 -0.3392 -0.0141
49494W        W92432  31.724  13.849  27.269 -0.6237 -0.0520 -0.1073
49495W        W92433   0.368  12.741  24.757 -0.2487  0.1328  0.3622
49496W        W92434  34.160  13.495  26.517 -0.1381 -0.0059 -0.2216
49497W        W92435  32.962  11.263  29.349  0.3585 -0.2076 -0.2041
49498W        W92436   0.183  10.945  27.733 -0.0057 -0.1867 -0.0808
49499W        W92437  32.717  10.901  28.999 -0.3412  0.2266  0.3547
49500W        W92438  32.726  11.043  26.901  0.1550  0.1083  0.1222
49501W        W92439  33.697  11.465  24.191 -0.0574  0.4602  0.3344
49502W        W92440  33.571  13.266  24.377 -0.1646 -0.0060  0.0553
49503W        W92441  34.349  12.269  27.099 -0.0837 -0.2900  0.1267
49504W        W92442  33.089  13.946  28.083 -0.0084 -0.2301  0.0828
49505W        W92443  32.632  12.576  24.565 -0.1533  0.1105 -0.2134
49506W        W92444  34.282  13.122  24.973 -0.3482  0.0860 -0.1487
49507W        W92445  34.596  13.526  25.819  0.0533  0.0989  0.0770
49508W        W92446   0.126  11.257  22.591 -0.0109  0.3667  0.1102
49509W        W92447  34.310  12.405  24.769 -0.1125  0.2373  0.0090
49510W        W92448   0.759  15.222  25.411 -0.2397  0.0812 -0.5253
49511W        W92449  34.247  13.171  27.479  0.1607 -0.0026  0.0670
49512W        W92450  34.180  13.149  26.871 -0.1654 -0.0609  0.1835
49513W        W92451  33.777  12.980  27.280 -0.0373  0.4229  0.2721
49514W        W92452  33.597  12.582  26.543 -0.0806 -0.3225 -0.1714
49515W        W92453  34.527  13.545  26.844  0.0278  0.2413  0.0545
49516W        W92454  32.158  11.473  28.886  0.4041  0.1433  0.2844
49517W        W92455   0.217  12.197  24.942 -0.0519 -0.0526 -0.1703
49518W        W92456  32.247  14.398  28.504 -0.0295 -0.1676  0.0710
49519W        W92457  31.239  12.588  28.473  0.1092 -0.3006  0.1654
49520W        W92458  33.661  15.016  25.051 -0.2403 -0.1400 -0.0431
49521W        W92459  32.707  12.575  25.231 -0.1636 -0.1408 -0.3512
49522W        W92460  33.854  14.682  25.546 -0.0334  0.1056  0.0814
49523W        W92461  34.207  14.195  24.522  0.1805  0.1585 -0.3710
49524W        W92462  33.704  14.939  26.586  0.1083  0.1671  0.0185
49525W        W92463   0.312  13.728  25.525 -0.0112  0.0127 -0.4494
49526W        W92464  33.772  10.452  24.103 -0.0182  0.3590  0.0905
49527W        W92465  34.571  11.975  27.835 -0.2170 -0.0636  0.1710
49528W        W92466  34.408  14.703  27.536 -0.1075 -0.1806  0.1415
49529W        W92467  33.803  11.703  26.487  0.2718 -0.1101  0.0137
49530W        W92468   0.169  12.042  27.378 -0.0141  0.0729  0.0447
49531W        W92469   0.211  13.074  23.369  0.2074  0.0042 -0.2144
49532W        W92470  34.062  13.389  24.331  0.0789  0.1671 -0.2516
49533W        W92471  33.902  13.637  26.123  0.1695  0.0664  0.0402
49534W        W92472  34.096  14.129  26.303  0.0361  0.1734 -0.1753
49535W        W92473  34.004  12.631  25.104  0.1020  0.1409 -0.0736
49536W        W92474  32.759  12.741  27.534 -0.0510 -0.0144 -0.1493
49537W        W92475  34.084  13.510  25.579 -0.0957  0.1475  0.2504
49538W        W92476  30.951  11.841  27.885  0.1331  0.0113  0.1216
49539W        W92477  33.888  11.570  23.149  0.0003  0.3092  0.0512
49540W        W92478   0.663  12.949  26.955  0.0542 -0.1418  0.1467
49541W        W92479  33.654  12.135  26.045 -0.3356  0.1632 -0.3419
49542W        W92480  34.065  12.886  26.416 -0.1138 -0.1178 -0.0053
49543W        W92481  33.840  11.783  25.744 -0.0735  0.1952 -0.1175
49544W        W92482  34.573  15.473  22.971 -0.3940  0.0539  0.3790
49545W        W92483  33.105  11.982  27.137 -0.3702 -0.0394 -0.0446
49546W        W92484   0.311  11.590  24.843 -0.0413 -0.1376  0.0516
49547W        W92485  33.584  11.704  26.982  0.1098 -0.2099  0.0825
49548W        W92486  33.389  12.822  25.002  0.0908 -0.1047 -0.0798
49549W        W92487   0.166  14.482  24.619 -0.3139  0.1819 -0.0964
49550W        W92488  34.129  14.927  25.271 -0.3716 -0.4697  0.0749
49551W        W92489  34.132  14.441  27.898  0.1113 -0.1101 -0.0016
49552W        W92490  33.338  11.985  25.727  0.1337  0.0736 -0.0624
49553W        W92491   0.340  13.667  26.819  0.3189 -0.0610  0.0291
49554W        W92492  34.225  11.446  25.799 -0.0779 -0.3093  0.2103
49555W        W92493  34.286  14.061  23.297 -0.2876  0.1236  0.0706
49556W        W92494   0.919  12.809  25.331  0.0229 -0.0253 -0.0500
49557W        W92495  33.966  12.425  27.369  0.3438 -0.0975  0.1013
49558W        W92496  34.664  13.386  27.748 -0.0301  0.0916  0.2306
49559W        W92497  34.444  12.203  25.226 -0.0477  0.3678 -0.0922
49560W        W92498  33.285  14.080  23.376  0.0128 -0.0393  0.0415
49561W        W92499  32.056  12.140  27.029 -0.1800 -0.0177  0.1322
49562W        W92500  34.198  11.621  28.291  0.1091  0.3123 -0.1596
49563W        W92501  32.177  12.527  27.651  0.1340 -0.0020 -0.0669
49564W        W92502  32.699  11.880  26.315  0.0287  0.1888 -0.1112
49565W        W92503  34.459  12.115  26.604 -0.0808 -0.0024  0.4973
49566W        W92504  33.930  12.110  27.787  0.4309 -0.1556  0.0386
49567W        W92505  31.043  10.879  26.316 -0.1437 -0.0192 -0.2707
49568W        W92506   0.685  12.342  25.618 -0.2747  0.2329  0.3396
49569W        W92507  32.620  13.148  24.983 -0.0266  0.1196  0.3335
49570W        W92508   1.472  11.398  27.223 -0.0887  0.0276 -0.1226
49571W        W92509   0.049  10.920  27.021 -0.2115  0.0646  0.1698
49572W        W92510  32.246  12.142  24.416 -0.1562  0.0540  0.3115
49573W        W92511   1.122  12.068  27.539 -0.1775 -0.7029  0.0604
49574W        W92512   0.685  14.043  26.685  0.4702  0.0590  0.1354
49575W        W92513   0.216  14.674  26.759 -0.1764 -0.0184  0.0155
49576W        W92514  33.164  11.750  26.451  0.0573 -0.0679 -0.0093
49577W        W92515  34.390  14.047  26.695  0.2052  0.1565  0.3959
49578W        W92516  34.465  11.082  27.463  0.0671  0.5358  0.0970
49579W        W92517  34.086  14.400  27.198 -0.4190 -0.1183 -0.3395
49580W        W92518   0.421  10.519  25.715 -0.1671  0.2273 -0.0075
49581W        W92519  32.462  12.952  27.224  0.4243 -0.3576  0.1302
49582W        W92520   0.853  11.070  24.397 -0.0624  0.0826  0.3675
49583W        W92521   0.368  13.085  27.470  0.1342 -0.0425  0.1448
49584W        W92522  34.581  11.889  24.822 -0.0077 -0.0031  0.0524
49585W        W92523   1.341  14.412  27.584  0.1100  0.1688  0.0992
49586W        W92524  34.158  11.923  26.116 -0.0985 -0.1848 -0.0320
49587W        W92525   0.292  12.173  26.447 -0.0807 -0.0242 -0.1709
49588W        W92526   0.354  13.211  25.549 -0.2069 -0.3604  0.1022
49589W        W92527  34.143  12.598  27.835 -0.0782 -0.2294 -0.0685
49590W        W92528  34.545  13.804  26.253 -0.0441 -0.0865 -0.2236
49591W        W92529  33.928  13.075  31.416  0.1023  0.0668  0.0220
49592W        W92530  33.788  13.045  27.906 -0.1502 -0.1229 -0.0388
49593W        W92531  33.162  10.922  29.699  0.1609 -0.2121  0.0519
49594W        W92532  33.934  12.687  31.113 -0.0021 -0.2326 -0.0479
49595W        W92533  34.411  12.564  30.574 -0.2466 -0.1954  0.0325
49596W        W92534   0.361  13.734  31.701 -0.0415  0.2566  0.3392
49597W        W92535  34.190  11.581  29.516 -0.0231 -0.1888 -0.0668
49598W        W92536  34.374  10.832  31.027  0.1530 -0.0462  0.0349
49599W        W92537  33.026  12.921  28.457 -0.2823  0.0822 -0.0780
49600W        W92538  33.875  11.973  29.731  0.1742 -0.3975  0.1278
49601W        W92539   1.306  11.836  28.825 -0.1875  0.2569 -0.3454
49602W        W92540  34.469  11.168  29.988  0.4586  0.2566 -0.1373
49603W        W92541  34.435  14.725  29.143  0.1261 -0.1754  0.0524
49604W        W92542  32.351  11.538  27.744 -0.0699  0.0595 -0.1537
49605W        W92543  33.262  14.339  28.344  0.0104  0.1532  0.1981
49606W        W92544   0.670  12.308  31.275 -0.1557  0.3238 -0.1275
49607W        W92545  34.382  14.064  30.119  0.3159  0.1093  0.2876
49608W        W92546   1.284  15.910  29.844  0.1530  0.0062 -0.1264
49609W        W92547  32.917  12.696  28.974 -0.0321  0.1329 -0.3877
49610W        W92548  32.551  14.534  30.626 -0.0805 -0.1424  0.0023
49611W        W92549  33.315  14.977  28.906 -0.0478 -0.0297 -0.1453
49612W        W92550  34.437  14.740   1.257  0.0424 -0.0287 -0.2996
49613W        W92551  32.215  15.260  29.810  0.0832  0.2953 -0.1339
49614W        W92552  33.357  12.751   0.382 -0.1932  0.1084  0.0634
49615W        W92553  34.540  14.885  27.972  0.1224 -0.0120  0.1899
49616W        W92554  32.321  13.971  28.822 -0.0078  0.0429  0.0630
49617W        W92555  33.048  12.271   0.201 -0.0258 -0.1341  0.1503
49618W        W92556  32.612  13.782  30.035 -0.1353  0.0528 -0.0274
49619W        W92557  32.978  13.746  27.227  0.2693 -0.3481 -0.1188
49620W        W92558  33.925  11.167  28.196 -0.2243 -0.1658 -0.0092
49621W        W92559  33.383  12.793  29.143  0.1677  0.1100 -0.2469
49622W        W92560  33.965  14.353  28.832 -0.2010  0.2607 -0.2150
49623W        W92561  33.869  12.910  29.987  0.0449 -0.0030  0.1879
49624W        W92562  33.097  14.600  29.861  0.2731 -0.0957  0.1285
49625W        W92563  33.466  13.472  27.894 -0.2046 -0.0913 -0.0974
49626W        W92564  34.557  12.039  29.240  0.0364 -0.2399  0.0529
49627W        W92565  33.096  12.214  31.221 -0.1380  0.1292 -0.0418
49628W        W92566  33.450  11.610  30.161  0.2013 -0.0713 -0.0256
49629W        W92567   0.135  11.942  28.856  0.1356  0.0502  0.0590
49630W        W92568  33.591  13.255  31.751 -0.3236 -0.0905  0.1423
49631W        W92569  34.494  12.666  30.086 -0.0181  0.1280 -0.3049
49632W        W92570  33.284  13.846  28.625  0.0409 -0.1869  0.2967
49633W        W92571  34.199  14.180  28.314  0.0256  0.0220  0.1795
49634W        W92572  33.169  14.763  30.382 -0.0050 -0.2634 -0.0020
49635W        W92573   0.163  11.510  31.359 -0.0940  0.1077 -0.1381
49636W        W92574  34.452  14.969  31.133  0.0989  0.0588  0.2904
49637W        W92575  32.860  13.234  27.397  0.2108 -0.1676 -0.0145
49638W        W92576  31.673  12.018  30.135  0.0581  0.0640  0.1647
49639W        W92577  32.672  13.592  28.716 -0.1615 -0.0924 -0.1000
49640W        W92578  33.506  12.032  29.121 -0.1864 -0.1460  0.0809
49641W        W92579   1.314  13.454  30.278 -0.2104  0.1061 -0.2618
49642W        W92580  32.183  11.477  31.095 -0.1164 -0.0864  0.0763
49643W        W92581  33.569  14.078  27.897 -0.1306  0.2236  0.0215
49644W        W92582  32.897  13.095  31.345  0.0880 -0.4035  0.3637
49645W        W92583  33.479  12.119  30.229  0.3092 -0.3007 -0.0844
49646W        W92584   0.451  11.945  30.051 -0.0767  0.2197  0.2768
49647W        W92585  32.531  12.123  31.074  0.1275 -0.2168  0.1281
49648W        W92586  31.437  12.151  28.514 -0.4108  0.1126 -0.2243
49649W        W92587  33.461  13.869  29.075  0.1320  0.1737 -0.0283
49650W        W92588  33.177  12.423  28.211 -0.2979 -0.0597 -0.3052
49651W        W92589  33.678  12.074  31.427  0.4067 -0.1054  0.1858
49652W        W92590  33.771  11.648  27.941  0.1919 -0.2033 -0.1111
49653W        W92591   0.089  15.603  29.221  0.1359 -0.1038 -0.6560
49654W        W92592  33.077  13.768  29.882 -0.1308  0.1741  0.0676
49655W        W92593   0.883  11.899  29.792 -0.1366 -0.0318  0.1628
49656W        W92594  34.586  14.122  31.412 -0.2345 -0.1577  0.0226
49657W        W92595  34.297  12.481  28.847  0.0362  0.0071  0.1384
49658W        W92596  33.656  13.571  28.539 -0.0211 -0.3162 -0.1018
49659W        W92597  33.004  12.187  28.894  0.2164  0.5087  0.1510
49660W        W92598  33.936  13.811  29.781 -0.2661 -0.1143  0.1604
49661W        W92599  30.857  11.680  31.779 -0.1038 -0.2061 -0.0390
49662W        W92600  33.193  12.381  29.391  0.1645 -0.2187 -0.1243
49663W        W92601  33.025  13.769  30.894  0.0621 -0.0133 -0.1752
49664W        W92602  32.839  12.482  31.661 -0.0378  0.1852  0.2166
49665W        W92603  34.348  13.553  29.103 -0.0962 -0.1114  0.0907
49666W        W92604  33.060  11.885  29.373  0.2134 -0.2545  0.3210
49667W        W92605  33.789  12.908   0.221  0.2167 -0.0138  0.0644
49668W        W92606  33.964  11.128  29.642 -0.2357 -0.1846 -0.1828
49669W        W92607  34.543  12.527  29.368 -0.0726 -0.0843  0.2167
49670W        W92608  33.540  14.955  27.916 -0.1035  0.4429  0.0352
49671W        W92609  34.644  12.200  31.204 -0.0272  0.2013  0.0135
49672W        W92610  33.445  13.043  28.681  0.0453 -0.1290  0.1352
49673W        W92611  34.677  11.594  30.846 -0.0118  0.2631 -0.0710
49674W        W92612  33.761  13.550  31.292 -0.1559 -0.2651  0.3279
49675W        W92613  32.922  15.029  29.503 -0.0539 -0.1314  0.1895
49676W        W92614   1.959  12.002  31.155 -0.1110  0.0704  0.0635
49677W        W92615  34.250  15.007  28.791 -0.0394 -0.2394  0.0278
49678W        W92616  34.390  13.758  28.361 -0.1364  0.0787 -0.2114
49679W        W92617   0.523  10.391  30.643  0.1664  0.0197 -0.2071
49680W        W92618   0.581  15.228  30.101  0.1108  0.1015  0.2092
49681W        W92619   0.910  14.488  27.965 -0.1790  0.4734 -0.2402
49682W        W92620  32.760  14.235  28.557 -0.0862 -0.2118 -0.1182
49683W        W92621  32.506  13.556  31.104  0.1192 -0.2557  0.2497
49684W        W92622  34.400  14.181  29.192  0.0689  0.0082  0.1232
49685W        W92623  30.990  10.979  29.487 -0.2473 -0.3141 -0.0329
49686W        W92624   0.693  12.265  28.871 -0.1345  0.0001  0.1739
49687W        W92625   0.783  11.476  29.519 -0.1500 -0.0557 -0.2734
49688W        W92626  33.011  12.762  30.579 -0.3933 -0.0252 -0.1747
49689W        W92627   0.074  11.150   0.104  0.0668 -0.1488 -0.0519
49690W        W92628  32.741  12.449  28.513  0.1350 -0.0606  0.0478
49691W        W92629  33.794  12.422  30.028 -0.2984  0.1411 -0.1827
49692W        W92630  32.624  13.146  30.386  0.1585  0.1455  0.0259
49693W        W92631  33.504  13.889  26.933 -0.0364  0.1928 -0.1561
49694W        W92632  34.662  13.113  29.192 -0.0209 -0.0561 -0.2015
49695W        W92633   1.114  11.003  29.499 -0.0429  0.1071 -0.0044
49696W        W92634  33.880  11.843  30.249 -0.2439  0.1247 -0.1448
49697W        W92635   0.164  11.199  30.343  0.1817  0.4055  0.1673
49698W        W92636  34.196  12.472  29.692 -0.1312  0.4637 -0.1605
49699W        W92637   0.703  10.841   0.611 -0.0205  0.0903  0.1602
49700W        W92638  33.192  13.678  31.921 -0.0541 -0.0163  0.2453
49701W        W92639   0.125  12.301  29.710 -0.1459 -0.0304  0.1244
49702W        W92640  32.957  11.871  30.865  0.1948  0.0562 -0.0479
49703W        W92641  33.794  13.395  28.980 -0.0872  0.0799 -0.1057
49704W        W92642   0.838  11.465  31.635  0.3630 -0.0696 -0.2414
49705W        W92643  33.565  12.368   0.079 -0.2585 -0.0238  0.0186
49706W        W92644  33.948  14.926  27.430 -0.0397 -0.0503 -0.1490
49707W        W92645  34.663  13.491  29.959 -0.0280 -0.0273  0.2174
49708W        W92646  34.426  12.048  29.801  0.3599 -0.3453  0.0726
49709W        W92647   0.156  11.668  30.345  0.0015 -0.1125  0.0662
49710W        W92648  33.919  10.769  31.783  0.0021  0.1269 -0.0348
49711W        W92649  33.376  15.220  31.965  0.2252 -0.2550 -0.3572
49712W        W92650  34.049  10.586  28.919 -0.0957  0.1224  0.1802
49713W        W92651   0.848  12.220  30.745 -0.2079  0.0619 -0.2238
49714W        W92652  33.812  14.863  29.074  0.1128  0.0106 -0.0568
49715W        W92653  33.815  12.454  30.562 -0.1568  0.0398 -0.2546
49716W        W92654   0.085  12.826  28.377  0.1736 -0.4294 -0.2057
49717W        W92655  34.014  12.894  30.482 -0.0918 -0.1326  0.3004
49718W        W92656   0.480  10.374   0.404 -0.2327 -0.1783  0.1552
49719W        W92657  32.626  11.833   0.445 -0.1886 -0.2117 -0.2307
49720W        W92658  34.015  11.559  31.576  0.3329 -0.0411  0.0162
49721W        W92659  33.428  12.646  30.289 -0.2120  0.2246  0.2939
49722W        W92660  33.893  12.186  28.693  0.0434  0.1491  0.1744
49723W        W92661  34.171  13.281  28.077 -0.1645  0.0994 -0.0676
49724W        W92662  33.592  12.430  27.881 -0.2898 -0.1887  0.2093
49725W        W92663  33.984  15.308  31.088  0.1671 -0.0887 -0.0026
49726W        W92664  31.852  11.915  28.343 -0.0077 -0.0541  0.1918
49727W        W92665  32.873  11.965  28.154  0.1938  0.0165  0.0909
49728W        W92666   0.590  15.171  30.643  0.3045  0.0158 -0.0579
49729W        W92667   0.637  11.161  29.196 -0.1935  0.2066 -0.0708
49730W        W92668  33.424  12.839  28.162 -0.1496  0.0769  0.0828
49731W        W92669  34.647  13.748  30.417  0.1958  0.0560  0.1576
49732W        W92670  31.357  12.081  30.953 -0.2032  0.1768 -0.2066
49733W        W92671  32.634  14.100  29.228  0.4926  0.0678  0.1166
49734W        W92672   0.987  13.617  28.487 -0.0653  0.1595  0.2660
49735W        W92673  33.830  13.387  29.957  0.3457  0.1329 -0.0040
49736W        W92674  34.324  13.353  30.572 -0.3805 -0.0655  0.0354
49737W        W92675  33.444  11.714  31.647 -0.2623  0.1577  0.0791
49738W        W92676  34.339  10.699  29.751  0.1258 -0.1701 -0.0014
49739W        W92677  34.594  13.606  31.425 -0.0193  0.1624  0.0615
49740W        W92678  33.230  12.127  31.706  0.0274  0.1670  0.0082
49741W        W92679  34.522  15.272  28.318 -0.3276  0.0692 -0.0489
49742W        W92680   1.818  11.984  28.678  0.1320  0.3654 -0.1214
49743W        W92681  34.379  13.821  29.634 -0.0086  0.2195 -0.1442
49744W        W92682  32.678  14.779  28.220 -0.1252  0.2249  0.1513
49745W        W92683  32.078  14.389  29.038  0.1620  0.0078  0.0447
49746W        W92684   0.956  13.156  30.018 -0.0084 -0.0716  0.2441
49747W        W92685   1.712  11.557  28.923  0.1050  0.0346 -0.0141
49748W        W92686  34.355  11.729   0.780 -0.1618  0.5309  0.3314
49749W        W92687  31.883  12.563  30.102  0.0101  0.1140 -0.0688
49750W        W92688  33.346  11.848  28.618 -0.1250 -0.0564 -0.0660
49751W        W92689  33.321  13.361  29.896 -0.4599 -0.2473  0.1400
49752W        W92690   0.009  13.020  26.944 -0.2190 -0.0516  0.1849
49753W        W92691  33.218  14.519  27.871 -0.0283  0.1301 -0.0995
49754W        W92692  33.541  13.796  30.059  0.0440  0.1123 -0.0429
49755W        W92693  34.172  13.619  30.176 -0.1327  0.0401  0.2637
49756W        W92694  33.048  12.382  27.651  0.2063 -0.0831  0.1595
49757W        W92695  32.396  12.159  31.635  0.1608 -0.0373  0.0757
49758W        W92696  33.883  12.498  28.312  0.1272  0.3784  0.3206
49759W        W92697  31.769  12.441  30.864 -0.2890 -0.1413 -0.2939
49760W        W92698   0.009  12.382  28.614 -0.0849  0.0275  0.2229
49761W        W92699  33.558  12.991  29.598  0.1739 -0.0010  0.1677
49762W        W92700  34.054  12.179  29.241 -0.0360 -0.1205 -0.1413
49763W        W92701   0.912  11.776  31.176  0.2042  0.0376  0.0130
49764W        W92702  33.094  14.191  29.486 -0.0464 -0.0247 -0.1391
49765W        W92703  33.728  14.504  27.667 -0.2112  0.2718 -0.0534
49766W        W92704  33.841  12.609  31.656  0.1504  0.0473 -0.0134
49767W        W92705   0.832  11.856  28.671 -0.1355  0.1530 -0.0309
49768W        W92706  33.388  13.060  31.297 -0.1816 -0.1553 -0.0714
49769W        W92707  32.945  14.655  28.658  0.3234 -0.4900 -0.0937
49770W        W92708   0.459  13.678  27.562 -0.4612  0.0434  0.0221
49771W        W92709   0.093  13.249  30.387 -0.1508 -0.0601 -0.0926
49772W        W92710  33.266  13.556  31.415 -0.0237  0.1473  0.0259
49773W        W92711  32.762  12.595  28.034  0.2720  0.1477  0.0741
49774W        W92712  34.230  11.784  30.736 -0.0462 -0.3275  0.1604
49775W        W92713  33.817  13.434  29.453  0.1668  0.1015 -0.0134
49776W        W92714  33.143  14.268  28.917 -0.0275 -0.0732 -0.0894
49777W        W92715  34.290  13.730  27.871  0.0030 -0.0202  0.0936
49778W        W92716   0.265  11.343  29.424  0.3280 -0.1350 -0.1759
49779W        W92717  34.269  12.945  30.877  0.1563  0.1964  0.1788
49780W        W92718  31.768  12.215  27.740  0.0845 -0.1203 -0.4809
49781W        W92719  34.383  12.931  28.759 -0.0228  0.0179 -0.2191
49782W        W92720  32.994  13.721  29.381  0.2178  0.1436 -0.0428
49783W        W92721   0.099  10.761   0.543 -0.1691  0.2511  0.5007
49784W        W92722  34.098  12.079   0.453  0.0354  0.1353  0.3738
49785W        W92723  33.888  14.102  30.217  0.1774  0.2536  0.3614
49786W        W92724  33.352  12.524  28.636  0.2044  0.1197  0.0048
49787W        W92725  34.396  11.659  30.132  0.0595 -0.1019 -0.1220
49788W        W92726  33.192  11.512  29.711  0.0403 -0.0165  0.2552
49789W        W92727  34.657  11.556  29.706  0.1022 -0.3061 -0.0170
49790W        W92728  31.451  14.415  26.871  0.0333  0.0263 -0.1804
49791W        W92729  34.559  12.302   0.459  0.4412 -0.0813  0.0432
49792W        W92730  34.141  11.366  31.024 -0.3326 -0.1199 -0.1288
49793W        W92731  33.249  11.622  27.473 -0.0595  0.1616 -0.0529
49794W        W92732   0.108  12.338  30.313  0.0617 -0.2881 -0.1238
49795W        W92733   1.074  12.852  29.105  0.1970 -0.0643  0.1992
49796W        W92734  34.231  13.401  31.099 -0.2805  0.2621  0.0092
49797W        W92735  33.881  11.305   0.043 -0.0415  0.2360  0.1011
49798W        W92736   0.542  12.992  30.873  0.1518  0.1408 -0.2106
49799W        W92737  34.350  11.309  30.495  0.0665 -0.2227 -0.0813
49800W        W92738   0.429  12.837  31.330  0.0598 -0.0238 -0.1710
49801W        W92739  33.391  11.541  29.188  0.0841 -0.2190 -0.3221
49802W        W92740  32.623  13.243  29.201 -0.0009  0.1589  0.1585
49803W        W92741   0.165  12.781  28.844  0.1661 -0.3127 -0.0317
49804W        W92742   1.084  12.866  31.932  0.0987  0.2771 -0.0033
49805W        W92743   0.282  12.261  29.182 -0.0678  0.0313 -0.6998
49806W        W92744   0.336  12.815  30.451 -0.2027  0.0706 -0.0904
49807W        W92745  34.244  12.227  30.245 -0.0915  0.1285 -0.0395
49808W        W92746  34.259  13.351  29.508 -0.0147 -0.0861  0.0646
49809W        W92747  34.604  13.867  28.791 -0.2994 -0.1649  0.0520
49810W        W92748   1.125  13.132  28.459  0.0928  0.0841  0.1422
49811W        W92749  34.141  13.848  30.876 -0.0938 -0.0948  0.3053
49812W        W92750  33.346  11.762  31.180  0.1171  0.1308  0.1423
49813W        W92751  32.476  13.695   0.003 -0.0150  0.1956  0.3940
49814W        W92752  34.419  12.806   0.308  0.0732 -0.1452 -0.2496
49815W        W92753   0.567  15.474   0.626  0.0791 -0.1353 -0.1908
49816W        W92754   0.455  11.487   0.376  0.0376 -0.1549 -0.2172
49817W        W92755  33.531  10.979   1.018  0.0135 -0.1674 -0.1058
49818W        W92756  31.701  12.719   0.254  0.2667  0.0666 -0.2111
49819W        W92757  34.089  13.388   0.809 -0.2377  0.0786  0.0190
49820W        W92758  32.735  13.683   1.306  0.1705 -0.2233 -0.1654
49821W        W92759  32.819   9.583   1.111  0.0166 -0.1115  0.1696
49822W        W92760  34.331  11.062  31.853  0.2234  0.1015 -0.2734
49823W        W92761  31.591  12.211  31.579  0.3442 -0.2994  0.0486
49824W        W92762  33.212  13.509   1.119  0.2466  0.1046 -0.0370
49825W        W92763  32.686  11.270  31.422  0.2078 -0.4535 -0.2998
49826W        W92764  33.907  14.254  31.218 -0.0572 -0.1571  0.0182
49827W        W92765  31.805  11.805  31.754  0.1202 -0.1703 -0.0805
49828W        W92766   0.217  12.609   0.326  0.0820  0.0736 -0.2160
49829W        W92767  32.837  11.816  31.408  0.3304  0.0634  0.0520
49830W        W92768  33.967  11.804  31.145  0.0323 -0.0073 -0.0821
49831W        W92769  33.137  11.196   1.393  0.3050 -0.1969  0.0800
49832W        W92770  32.181  12.656  31.808 -0.1044 -0.2904  0.0144
49833W        W92771  33.595  12.001   0.590  0.5466 -0.0009  0.1082
49834W        W92772  33.828  11.624   0.391  0.2766 -0.0971 -0.0402
49835W        W92773   0.008  10.874  30.691 -0.2471 -0.0772  0.0332
49836W        W92774  34.620  13.331  31.830 -0.1602  0.0658 -0.0652
49837W        W92775  33.771  11.915  31.953 -0.0961 -0.0550  0.2866
49838W        W92776   1.590  11.339  31.730  0.3642  0.1576  0.0660
49839W        W92777   0.125  11.836   0.203  0.1120  0.2959 -0.2058
49840W        W92778  33.257  12.367   0.741 -0.1025 -0.2501  0.1334
49841W        W92779  34.231  12.208  31.593 -0.2175  0.0621  0.0542
49842W        W92780  34.140  12.281  30.933  0.0910  0.1504 -0.3274
49843W        W92781  34.415  11.725  31.261  0.2579  0.1648  0.2610
49844W        W92782  32.924  12.769   0.133  0.0936 -0.2639 -0.5647
49845W        W92783   0.788  13.389  31.047 -0.0890 -0.2348  0.0579
49846W        W92784  31.529  10.881  31.716 -0.0080 -0.1603 -0.1666
49847W        W92785  32.716  12.654   2.437  0.0345  0.1126  0.0903
49848W        W92786  33.347  13.149   1.426  0.0027 -0.1915  0.2418
49849W        W92787  32.802  13.605  31.633 -0.2340 -0.0881  0.0224
49850W        W92788  34.347  10.682  31.514 -0.1080  0.1858  0.0785
49851W        W92789  32.947  17.284  17.998  0.0501 -0.2099  0.2134
49852W        W92790  32.479  15.214  16.453  0.0875 -0.0982 -0.2409
49853W        W92791  33.353  15.694  17.803 -0.2285 -0.1957  0.1939
49854W        W92792  33.400  16.646  19.239  0.0920 -0.0993 -0.0823
49855W        W92793  34.661  14.594  20.781 -0.1014 -0.0464 -0.3979
49856W        W92794  32.794  17.670  20.230 -0.2430 -0.0315 -0.1662
49857W        W92795  34.528  15.777  16.903  0.0479  0.2082 -0.0316
49858W        W92796  32.472  14.603  18.395 -0.0094 -0.0064 -0.1656
49859W        W92797  32.104  16.248  17.320  0.0646  0.0225  0.2904
49860W        W92798  33.205  15.947  20.055  0.1757 -0.3842  0.1236
49861W        W92799  33.678  15.297  17.689  0.2099 -0.0923 -0.3045
49862W        W92800  34.046  14.239  18.443 -0.4204 -0.1588 -0.1129
49863W        W92801  34.579  17.871  16.026 -0.1293  0.0927 -0.1454
49864W        W92802  33.857  16.916  16.721 -0.0181  0.0689 -0.4312
49865W        W92803  32.670  15.711  18.430  0.0246  0.2436 -0.3879
49866W        W92804   0.093  15.995  20.351 -0.0590  0.3222  0.3760
49867W        W92805  33.675  17.583  18.622  0.3442 -0.0731  0.0279
49868W        W92806   0.488  17.330  18.472 -0.1990  0.0730  0.0294
49869W        W92807  31.903  15.649  17.835 -0.0620 -0.2969  0.2152
49870W        W92808  31.777  17.936  18.704 -0.1223  0.0006 -0.2329
49871W        W92809  33.294  19.360  17.120 -0.4705  0.4466 -0.0203
49872W        W92810  33.038  17.475  19.805 -0.0993 -0.0946 -0.1113
49873W        W92811  33.639  18.336  16.080 -0.2449 -0.2796 -0.1159
49874W        W92812  33.285  16.901  20.165 -0.0405  0.4339 -0.2481
49875W        W92813  33.271  17.489  16.259  0.1171 -0.0604  0.1611
49876W        W92814  34.691  16.487  18.452  0.0512 -0.2457  0.0056
49877W        W92815  33.627  17.481  20.755 -0.1237  0.2263  0.1342
49878W        W92816  33.371  17.064  18.161  0.0515  0.2438  0.0461
49879W        W92817  34.016  17.811  16.706 -0.0940  0.4814  0.2288
49880W        W92818   1.303  14.060  17.370  0.2368 -0.1664  0.1051
49881W        W92819  34.592  14.827  18.918  0.2371 -0.0101 -0.2581
49882W        W92820  32.522  17.560  17.986 -0.1989  0.0319  0.1728
49883W        W92821  33.016  15.450  19.699  0.0101 -0.0136  0.1494
49884W        W92822  32.543  16.751  20.398 -0.0180 -0.0520 -0.0292
49885W        W92823  32.433  16.664  17.396 -0.1559 -0.4131  0.0984
49886W        W92824  32.895  16.454  16.566 -0.2674  0.1616  0.0053
49887W        W92825  34.244  16.757  19.863  0.1127 -0.1058  0.0223
49888W        W92826  33.033  16.698  20.638  0.0223 -0.0916 -0.0333
49889W        W92827  33.115  13.230  16.821  0.0282  0.2474  0.0432
49890W        W92828  30.079  15.959  20.242  0.0762 -0.0256  0.0559
49891W        W92829   0.146  16.570  19.608 -0.1993  0.0492  0.2478
49892W        W92830  33.828  16.552  16.323  0.1839  0.0661 -0.1939
49893W        W92831  33.736  16.895  17.539  0.0615 -0.0978 -0.6608
49894W        W92832  33.074  17.770  18.111  0.0309 -0.2036  0.0201
49895W        W92833  33.466  15.569  19.802  0.0967 -0.0496 -0.2067
49896W        W92834  34.010  17.305  19.543  0.1335 -0.1959 -0.0498
49897W        W92835  32.780  18.366  16.111  0.1742  0.1178  0.2032
49898W        W92836  32.224  15.594  18.642 -0.0786  0.2297  0.3477
49899W        W92837  33.325  17.718  16.676  0.3003 -0.0087  0.2720
49900W        W92838  33.617  15.418  18.610  0.0037  0.2844  0.2304
49901W        W92839  34.650  17.310  18.663  0.0396  0.3120  0.1718
49902W        W92840  32.407  15.069  20.116 -0.0959 -0.1210 -0.1955
49903W        W92841  32.046  17.520  18.853 -0.1920  0.1544 -0.1180
49904W        W92842  31.650  15.147  19.862 -0.0787  0.3058  0.0893
49905W        W92843  33.297  14.400  17.685  0.0317  0.0856 -0.0233
49906W        W92844  33.991  16.746  20.280 -0.0635 -0.2999 -0.1117
49907W        W92845  33.262  14.925  20.426 -0.1100  0.2213 -0.0514
49908W        W92846  34.050  15.770  16.792 -0.1250  0.0718 -0.2196
49909W        W92847  34.364  16.037  18.335 -0.0277  0.0561 -0.0022
49910W        W92848  32.835  16.999  16.813 -0.0592 -0.1921 -0.2230
49911W        W92849  32.814  16.267  19.743  0.0034 -0.0274 -0.1029
49912W        W92850  32.885  15.970  16.653  0.1605  0.0977  0.0186
49913W        W92851  33.037  17.920  18.641 -0.3367  0.0386  0.3654
49914W        W92852  33.845  16.539  19.032  0.3367 -0.3471  0.1000
49915W        W92853  34.664  16.112  17.520 -0.2418  0.1019 -0.1236
49916W        W92854  34.182  17.521  18.709  0.1884  0.1111  0.0338
49917W        W92855  31.982  14.761  16.641 -0.0887 -0.0257  0.1618
49918W        W92856  34.336  17.153  17.219  0.1021 -0.2091  0.1757
49919W        W92857  32.766  15.573  17.305  0.5315 -0.1666  0.2807
49920W        W92858  34.242  17.583  16.313  0.0875  0.1688 -0.3438
49921W        W92859  30.380  14.982  21.136  0.2691  0.2799  0.3011
49922W        W92860  33.780  15.978  17.628 -0.1298 -0.2678  0.0126
49923W        W92861  32.829  16.869  19.266  0.4768  0.3268  0.1182
49924W        W92862  32.434  17.099  19.466 -0.1309 -0.2177 -0.2278
49925W        W92863  34.111  17.568  17.143  0.1492  0.0376  0.1322
49926W        W92864  34.486  17.237  19.557  0.0917 -0.2078 -0.0044
49927W        W92865  32.921  16.188  18.609  0.2318  0.0235 -0.0196
49928W        W92866  33.081  15.904  19.429  0.3897  0.0874 -0.0526
49929W        W92867  33.369  13.212  16.068  0.1097  0.2384 -0.1487
49930W        W92868  32.293  18.079  18.784 -0.0853 -0.0310 -0.2232
49931W        W92869  33.765  14.123  19.787 -0.0200 -0.1446  0.3022
49932W        W92870  33.615  15.445  16.612 -0.1207 -0.1639 -0.0097
49933W        W92871  34.422  15.038  18.279  0.2076 -0.0049 -0.0395
49934W        W92872  32.820  16.778  19.927 -0.1000 -0.0550 -0.1961
49935W        W92873  32.625  17.901  20.835  0.0193  0.0622 -0.2795
49936W        W92874   0.770  16.340  18.612  0.2682  0.3374  0.3913
49937W        W92875  33.211  18.184  17.358  0.2630  0.0081  0.0927
49938W        W92876  34.615  16.301  16.669  0.0749 -0.0853 -0.0306
49939W        W92877  34.594  14.411  17.841 -0.0060  0.2138  0.4151
49940W        W92878  34.349  18.144  17.965  0.1371 -0.1933 -0.1146
49941W        W92879  34.550  17.126  16.391  0.0194 -0.2833 -0.0347
49942W        W92880  34.536  16.859  16.874  0.0621  0.0097 -0.4208
49943W        W92881  33.433  17.410  19.492  0.1095 -0.0704 -0.1241
49944W        W92882  34.411  16.298  16.127 -0.1130  0.0228  0.1035
49945W        W92883  33.364  16.125  16.948 -0.0518  0.1127  0.1326
49946W        W92884  32.929  14.387  19.588  0.4657  0.2191  0.0596
49947W        W92885  33.769  16.606  18.498 -0.1669 -0.0060 -0.0223
49948W        W92886  33.092  17.991  19.327  0.0730 -0.1513 -0.2342
49949W        W92887  33.287  16.064  21.282 -0.2023  0.0488  0.0179
49950W        W92888  32.914  14.999  16.130  0.1645  0.0795  0.2692
49951W        W92889  33.874  16.100  18.669  0.0135 -0.1628 -0.5132
49952W        W92890  32.901  16.752  18.124 -0.2356 -0.0603 -0.3164
49953W        W92891  34.088  17.736  18.048 -0.0709  0.3834 -0.3941
49954W        W92892  32.726  17.801  19.009  0.1779 -0.0779 -0.1210
49955W        W92893  33.237  16.222  20.706  0.1762 -0.0250  0.5150
49956W        W92894  33.851  15.345  19.901 -0.0471  0.0437 -0.1796
49957W        W92895  34.230  15.378  17.997 -0.2893 -0.4632 -0.0392
49958W        W92896  34.408  15.955  18.831  0.4912 -0.0763  0.1504
49959W        W92897  33.526  16.160  19.231 -0.1972 -0.4067  0.0123
49960W        W92898  33.937  18.054  20.408 -0.2720 -0.0161  0.1438
49961W        W92899  33.520  16.695  15.948 -0.2402 -0.0583 -0.0659
49962W        W92900  33.872  16.151  18.166  0.2908 -0.0358 -0.0134
49963W        W92901  33.821  17.114  18.428  0.0750  0.0918  0.1946
49964W        W92902  33.421  15.550  19.247 -0.0361  0.0355  0.1144
49965W        W92903  32.893  17.383  19.364 -0.2021  0.1253  0.2435
49966W        W92904  33.828  16.574  17.904  0.0294  0.1604 -0.0679
49967W        W92905  33.558  16.073  19.702  0.1263 -0.1587  0.0625
49968W        W92906  34.694  15.636  17.404 -0.2047 -0.1875  0.3817
49969W        W92907  34.098  15.089  20.760  0.1357  0.0435  0.1147
49970W        W92908  33.713  15.842  20.163  0.0762 -0.2578  0.1150
49971W        W92909  33.586  16.382  20.140 -0.2058  0.0905 -0.2086
49972W        W92910  33.199  15.624  16.908 -0.4171 -0.3501 -0.1032
49973W        W92911  33.681  16.978  19.418 -0.2192 -0.1027  0.0188
49974W        W92912  33.364  16.524  16.514  0.1170  0.1603 -0.1486
49975W        W92913  32.943  16.376  19.199  0.4196 -0.2135  0.1637
49976W        W92914  34.055  16.736  17.113 -0.0093 -0.2056 -0.0352
49977W        W92915   0.716  16.150  16.835  0.0754 -0.2461 -0.0633
49978W        W92916   0.063  15.106  19.895  0.0099  0.1182  0.1222
49979W        W92917  34.651  15.552  20.086  0.0609  0.0583 -0.1826
49980W        W92918  32.591  13.565  21.373 -0.1871  0.4077 -0.0167
49981W        W92919  32.333  15.661  18.053 -0.0152  0.1650  0.1843
49982W        W92920  32.413  14.872  16.941 -0.2867 -0.1227 -0.2708
49983W        W92921   0.659  18.314  16.182 -0.0079  0.2523 -0.0069
49984W        W92922  32.253  15.150  19.111  0.1570  0.1593 -0.2081
49985W        W92923  31.494  18.002  21.681  0.0152  0.0635  0.0884
49986W        W92924  32.552  15.698  16.343 -0.1728  0.0771 -0.2022
49987W        W92925  33.774  16.414  16.834 -0.1278  0.2214  0.1163
49988W        W92926  32.918  16.644  18.758 -0.1193  0.3032 -0.1490
49989W        W92927  33.061  15.513  16.413  0.1879  0.0546  0.0127
49990W        W92928  33.139  18.233  17.941  0.0290 -0.0084  0.2450
49991W        W92929  33.495  18.002  20.388 -0.2773 -0.0734 -0.1537
49992W        W92930  32.667  17.522  18.562  0.2155 -0.0349 -0.3129
49993W        W92931  33.566  17.551  18.111  0.2157  0.1197  0.1379
49994W        W92932   0.388  16.015  19.344  0.1201  0.2471  0.0350
49995W        W92933  32.453  17.112  17.168  0.1725  0.1073 -0.3762
49996W        W92934  34.629  16.640  17.429  0.0313  0.0344  0.4923
49997W        W92935  31.698  16.029  21.037 -0.3008 -0.2225  0.3159
49998W        W92936  34.356  14.392  18.864  0.1235  0.0277 -0.1398
49999W        W92937  33.427  17.420  21.619  0.1553  0.0092 -0.1307
50000W        W92938  32.318  16.847  19.935  0.0760 -0.1595 -0.1300
50001W        W92939  32.935  17.761  17.563 -0.2297  0.0875 -0.4072
50002W        W92940  34.123  16.359  17.476  0.1525  0.1683  0.2181
50003W        W92941  33.211  17.441  18.472 -0.0793  0.0895  0.0781
50004W        W92942  33.203  18.147  16.850  0.1733 -0.2683 -0.2210
50005W        W92943  32.193  17.178  18.493 -0.3164 -0.2917 -0.0934
50006W        W92944  34.060  15.154  18.701  0.5191 -0.2728 -0.1975
50007W        W92945  34.249  14.819  16.654  0.1561  0.0730 -0.2305
50008W        W92946  34.199  15.765  20.088  0.2841 -0.3641  0.2891
50009W        W92947  32.558  18.125  20.361 -0.4637 -0.4317 -0.0005
50010W        W92948  32.549  16.413  17.010  0.4060 -0.3193  0.0927
50011W        W92949  33.344  15.831  18.782 -0.1148  0.0627  0.2500
50012W        W92950  34.448  16.417  15.618 -0.2326  0.0905  0.0722
50013W        W92951  33.105  19.011  16.795  0.0515 -0.0410 -0.1024
50014W        W92952  33.552  18.002  18.281  0.3752 -0.0468 -0.4748
50015W        W92953  34.429  19.387  18.581  0.2223 -0.1987  0.2604
50016W        W92954  33.655  15.627  16.116  0.0959 -0.3358 -0.2262
50017W        W92955  34.386  15.435  19.675 -0.0756 -0.4930 -0.3426
50018W        W92956  32.570  16.134  17.449 -0.2888  0.1310  0.0001
50019W        W92957  32.488  15.918  19.834 -0.0884  0.1619 -0.0893
50020W        W92958   0.656  15.900  16.313 -0.0354 -0.4667  0.1718
50021W        W92959  32.284  14.089  19.164 -0.1157 -0.2662  0.0921
50022W        W92960  31.676  16.426  17.238  0.0889 -0.2537 -0.1156
50023W        W92961  33.847  15.670  19.482 -0.1042 -0.4607  0.3195
50024W        W92962  32.909  14.482  18.133  0.2577 -0.0657 -0.0060
50025W        W92963  33.920  18.439  16.868  0.2829  0.0312 -0.2372
50026W        W92964  34.169  14.540  17.569 -0.0592  0.0695  0.1437
50027W        W92965  34.599  15.444  15.963  0.3272  0.2456 -0.1033
50028W        W92966  33.291  15.851  18.299 -0.2057 -0.0502 -0.0415
50029W        W92967  33.670  18.002  17.115 -0.0219 -0.4268 -0.1043
50030W        W92968  33.606  16.207  16.058 -0.0554 -0.0391  0.3457
50031W        W92969  33.849  16.495  19.536 -0.0944  0.1318  0.1466
50032W        W92970  33.415  17.573  21.157 -0.2574  0.3566 -0.1740
50033W        W92971  32.360  16.169  16.594  0.2441 -0.2488 -0.2747
50034W        W92972   0.163  17.430  19.232 -0.1323 -0.0430 -0.2263
50035W        W92973   0.013  17.327  16.907  0.2998  0.3291 -0.3494
50036W        W92974  33.516  18.625  16.601 -0.2057  0.1101 -0.1234
50037W        W92975   0.133  15.929  18.521  0.1810  0.1121 -0.5179
50038W        W92976  33.951  15.591  18.938  0.1470 -0.1702  0.0845
50039W        W92977  34.451  16.930  20.309 -0.0411 -0.0967  0.4044
50040W        W92978  31.318  16.767  17.380 -0.4240 -0.0702 -0.0216
50041W        W92979  32.287  18.094  16.899  0.0047  0.2062  0.4025
50042W        W92980  32.343  16.070  18.377  0.0268  0.0210  0.1415
50043W        W92981   0.039  15.179  19.339 -0.1550  0.1852  0.0348
50044W        W92982  33.175  17.001  19.609 -0.1863  0.1428  0.0042
50045W        W92983  32.435  15.846  16.933 -0.0233  0.0695 -0.0762
50046W        W92984  34.264  15.323  17.518  0.1827  0.4246 -0.2651
50047W        W92985  33.412  16.219  17.832  0.1944 -0.1756 -0.0589
50048W        W92986  30.751  15.485  18.341 -0.1299 -0.2702 -0.4377
50049W        W92987  34.270  14.840  17.192 -0.2057  0.0662 -0.2017
50050W        W92988  33.539  16.966  16.340  0.0048  0.1432  0.3672
50051W        W92989  33.968  17.915  19.526 -0.0948  0.2589 -0.0066
50052W        W92990  34.073  16.049  19.654  0.2620  0.2031  0.0977
50053W        W92991  33.149  14.993  17.698  0.2771 -0.1033 -0.3026
50054W        W92992  34.256  15.076  20.097 -0.0859 -0.0555 -0.1548
50055W        W92993  33.698  16.786  19.881 -0.0663 -0.1989  0.0683
50056W        W92994  33.733  17.526  19.120  0.2913  0.0442 -0.0905
50057W        W92995  33.999  14.378  19.379  0.1732  0.2710 -0.0265
50058W        W92996  32.520  17.293  19.028 -0.0186 -0.0326 -0.3875
50059W        W92997  34.513  15.015  20.986 -0.2420 -0.1079 -0.0827
50060W        W92998  33.102  17.127  20.880 -0.1649 -0.2090  0.0246
50061W        W92999  34.058  15.591  18.464 -0.0166  0.2892  0.0655
50062W        W93000  33.231  15.433  17.348 -0.0624  0.1456 -0.1059
50063W        W93001  33.674  15.644  18.122  0.0725  0.1810  0.0030
50064W        W93002  33.838  16.707  21.229 -0.1844 -0.0213  0.1533
50065W        W93003  34.641  16.933  17.922  0.0584  0.0108 -0.0341
50066W        W93004  33.534  18.942  19.033 -0.2314  0.1384  0.4266
50067W        W93005  32.852  14.835  19.869 -0.2076 -0.1103  0.4484
50068W        W93006  33.495  16.493  17.304  0.2242 -0.1670  0.0389
50069W        W93007  33.298  16.747  17.725 -0.1963 -0.1017 -0.3977
50070W        W93008  32.927  15.358  18.067 -0.2308 -0.0674  0.0684
50071W        W93009  32.053  19.100  19.404  0.0349  0.2513  0.2066
50072W        W93010  33.318  17.632  22.837  0.1784 -0.0073  0.0133
50073W        W93011  34.216  14.592  20.989  0.0229  0.0361 -0.0094
50074W        W93012  32.256  14.084  21.301  0.0682 -0.1378  0.0201
50075W        W93013  32.683  14.678  24.223  0.0281  0.0228 -0.1165
50076W        W93014  33.998  16.596  22.614 -0.1620 -0.1835 -0.2332
50077W        W93015  34.400  17.367  23.678  0.2745 -0.1030 -0.0801
50078W        W93016   0.119  14.259  20.398  0.1836 -0.0687 -0.1152
50079W        W93017  32.522  14.065  21.749 -0.2303 -0.1164 -0.1651
50080W        W93018  32.526  14.771  22.336 -0.1056 -0.1504 -0.1584
50081W        W93019  32.808  16.383  23.323  0.3234  0.2263 -0.0865
50082W        W93020   0.187  15.316  21.306  0.0625 -0.1776 -0.0229
50083W        W93021  33.565  15.261  23.116 -0.0428  0.4998 -0.0678
50084W        W93022   1.023  17.012  20.977 -0.2396 -0.1068 -0.2818
50085W        W93023  31.851  16.257  20.627 -0.3874  0.0657  0.1130
50086W        W93024  32.137  16.530  22.317  0.0001  0.3213 -0.1682
50087W        W93025  34.245  16.221  23.633  0.3296  0.0694 -0.0665
50088W        W93026   0.071  16.852  22.565  0.1021 -0.0105  0.2030
50089W        W93027   0.611  16.778  22.239  0.2205 -0.0799 -0.1469
50090W        W93028  33.543  15.208  20.820  0.0850  0.1537 -0.0620
50091W        W93029  32.380  17.766  22.653 -0.0887 -0.0393  0.0144
50092W        W93030  34.176  18.084  22.848 -0.0843  0.3254  0.2229
50093W        W93031  34.073  18.138  23.429  0.1503  0.1706 -0.1134
50094W        W93032  32.338  17.180  21.300  0.0104  0.5273 -0.0061
50095W        W93033   0.206  17.352  23.279 -0.0059 -0.0587 -0.0044
50096W        W93034   0.792  17.309  20.638  0.1457  0.3708  0.1315
50097W        W93035   0.073  17.650  22.205  0.1197 -0.2923 -0.0817
50098W        W93036  33.453  17.430  23.869  0.2493  0.1596 -0.2905
50099W        W93037  32.844  17.674  22.772  0.0067  0.1380 -0.1349
50100W        W93038  32.853  17.158  20.334  0.2261 -0.1351  0.2839
50101W        W93039  34.581  15.984  19.834  0.1790  0.0399 -0.1627
50102W        W93040   0.493  15.266  21.697 -0.1783  0.0646  0.0083
50103W        W93041  33.327  18.747  21.746 -0.1694  0.1666  0.0138
50104W        W93042  33.743  14.613  22.927 -0.1134  0.1515  0.2927
50105W        W93043  32.981  17.259  23.184 -0.2069  0.2805 -0.0600
50106W        W93044  32.708  16.592  22.876  0.2926  0.2094  0.1357
50107W        W93045  33.749  15.868  21.371  0.4763  0.0058  0.0690
50108W        W93046  33.347  16.261  23.453 -0.0155  0.2039 -0.2203
50109W        W93047  34.191  16.949  23.836  0.0105 -0.0106 -0.0788
50110W        W93048  33.260  14.611  21.212 -0.2905 -0.0175 -0.1706
50111W        W93049  32.764  17.516  25.888  0.0174  0.1590  0.5850
50112W        W93050   0.238  15.215  23.228  0.1072  0.0243 -0.1969
50113W        W93051  33.683  16.260  20.978  0.0459 -0.0222 -0.0186
50114W        W93052  33.342  17.404  20.275 -0.2548  0.0629 -0.0589
50115W        W93053  32.652  17.284  22.448  0.0899 -0.1844  0.0172
50116W        W93054   0.155  17.113  23.895 -0.5018  0.2087  0.1704
50117W        W93055   0.736  17.354  24.404  0.3032 -0.0794 -0.0220
50118W        W93056  34.357  18.585  21.125  0.0424  0.1092  0.2606
50119W        W93057  32.878  17.073  21.999  0.0902 -0.2114  0.2511
50120W        W93058  31.908  17.871  21.398  0.1358  0.0154  0.3759
50121W        W93059  32.304  16.328  22.762  0.4039 -0.2102  0.2587
50122W        W93060  32.899  16.591  22.101 -0.0016 -0.2109  0.1674
50123W        W93061  33.130  16.349  22.844 -0.0532 -0.1219 -0.4815
50124W        W93062  32.408  17.729  21.442  0.1871 -0.0931 -0.1815
50125W        W93063  32.222  17.062  22.180  0.0317 -0.1620 -0.2216
50126W        W93064  33.503  15.050  22.078  0.1258  0.0992 -0.1389
50127W        W93065  34.223  14.481  22.989 -0.1870 -0.2380  0.0672
50128W        W93066  32.300  13.838  23.238  0.1229  0.5084 -0.2638
50129W        W93067  32.918  14.527  21.856 -0.2074  0.1650 -0.2222
50130W        W93068   0.408  15.667  23.471  0.1201 -0.3115 -0.1354
50131W        W93069  31.245  15.274  20.637  0.0330  0.0885 -0.0325
50132W        W93070  33.414  15.037  23.541  0.2949 -0.1119  0.0127
50133W        W93071  33.941  16.229  20.525  0.0811  0.1882  0.1033
50134W        W93072  33.489  16.432  21.497 -0.1348  0.0462  0.0473
50135W        W93073   0.234  16.732  23.091 -0.0375  0.1367 -0.0357
50136W        W93074  34.225  14.170  20.733  0.0308  0.2016 -0.0291
50137W        W93075  31.772  17.372  22.299  0.0364  0.1949  0.0150
50138W        W93076  33.382  15.422  20.339  0.1471  0.2204  0.0270
50139W        W93077  33.570  17.105  21.106  0.1529  0.2650 -0.2494
50140W        W93078  33.460  15.742  22.176  0.0298 -0.0217 -0.0824
50141W        W93079  32.538  16.796  22.419 -0.2049 -0.1902 -0.0067
50142W        W93080  32.003  17.099  23.141  0.1658 -0.2017  0.3393
50143W        W93081  33.129  15.161  21.164  0.2112 -0.0249  0.1450
50144W        W93082  32.585  17.131  22.909 -0.0821  0.1288  0.0380
50145W        W93083  32.124  15.873  22.838 -0.0025  0.0810  0.2033
50146W        W93084   0.369  17.635  20.515  0.2594 -0.4574 -0.4690
50147W        W93085   0.110  16.181  23.745  0.2180 -0.0269 -0.1208
50148W        W93086  34.092  16.751  23.250  0.0414  0.1237  0.0618
50149W        W93087   1.125  14.899  22.201 -0.3379  0.0754 -0.2636
50150W        W93088  34.397  16.384  20.368 -0.0431  0.2252 -0.0542
50151W        W93089  32.610  18.528  21.447 -0.1468  0.3912  0.1643
50152W        W93090  34.122  15.175  23.015 -0.1596  0.0674  0.0875
50153W        W93091  32.178  16.888  21.710 -0.3333 -0.1630 -0.2687
50154W        W93092   0.699  15.275  23.368  0.1380  0.0650  0.2928
50155W        W93093  33.361  17.793  24.221  0.2856  0.0293  0.0952
50156W        W93094  33.943  17.200  22.222  0.0076 -0.1623  0.0865
50157W        W93095  34.459  15.306  25.346 -0.0670 -0.1278  0.0286
50158W        W93096   0.527  17.736  19.775  0.1143  0.1922  0.0856
50159W        W93097  33.097  18.364  21.381 -0.1009 -0.0770 -0.0240
50160W        W93098  33.141  13.948  22.504  0.0803  0.3359 -0.1537
50161W        W93099  34.394  18.457  23.189 -0.1372 -0.0760 -0.2634
50162W        W93100  34.546  17.740  18.360 -0.2839 -0.2625  0.1193
50163W        W93101  34.329  16.454  19.469 -0.2684  0.1934 -0.2180
50164W        W93102  32.995  16.379  21.639 -0.5385  0.0581 -0.2127
50165W        W93103  34.488  15.307  20.470 -0.3898  0.0267 -0.0752
50166W        W93104  32.761  15.560  22.002  0.0382 -0.2102 -0.0198
50167W        W93105  33.138  14.431  22.372 -0.0366  0.1171  0.3468
50168W        W93106  34.337  16.159  21.793 -0.0521 -0.2146  0.0524
50169W        W93107  32.692  18.511  22.414  0.1795 -0.2719  0.0984
50170W        W93108   0.826  18.288  24.279 -0.0879  0.3874  0.1009
50171W        W93109  33.110  16.100  22.281 -0.1614 -0.5455 -0.1539
50172W        W93110  32.837  13.856  22.112 -0.1108 -0.0944  0.0847
50173W        W93111  33.256  17.149  22.761  0.3708 -0.0511 -0.1233
50174W        W93112  33.587  15.525  21.736  0.0060  0.2022 -0.0389
50175W        W93113  34.299  16.786  22.282 -0.2081  0.1279  0.4235
50176W        W93114  33.706  15.991  23.807  0.2064  0.0415  0.1678
50177W        W93115  33.040  16.770  22.550  0.0621  0.0280 -0.1949
50178W        W93116  34.559  14.551  22.174 -0.0315 -0.0052  0.3742
50179W        W93117  34.245  16.676  21.770  0.1726 -0.2054 -0.0719
50180W        W93118  34.379  15.213  23.440 -0.3284  0.0333  0.0312
50181W        W93119  34.178  16.414  24.503 -0.1013 -0.1877 -0.1860
50182W        W93120  33.413  17.098  22.114 -0.1370 -0.0547  0.2018
50183W        W93121  31.228  16.899  22.707  0.1748  0.2032  0.0133
50184W        W93122   0.066  16.475  21.793  0.1104 -0.0605  0.0118
50185W        W93123  34.268  15.392  22.453 -0.3161 -0.0937  0.3488
50186W        W93124  33.561  16.734  22.501  0.0675  0.3097 -0.1618
50187W        W93125  32.888  16.365  21.101 -0.0696 -0.0272 -0.0578
50188W        W93126  32.020  17.903  23.030 -0.0689  0.0652 -0.3735
50189W        W93127  34.304  15.485  20.954 -0.2288  0.0821 -0.1789
50190W        W93128  34.677  14.968  23.783  0.0666 -0.0183 -0.3716
50191W        W93129  33.811  16.144  23.368 -0.1274  0.1825  0.1607
50192W        W93130  33.645  16.481  24.415 -0.0817 -0.1239  0.0138
50193W        W93131   0.077  15.689  19.110 -0.1059  0.0750  0.4267
50194W        W93132  34.275  17.661  23.267 -0.0952 -0.1082  0.0790
50195W        W93133  33.199  16.864  21.638  0.4316  0.1363  0.1170
50196W        W93134  34.201  17.087  21.417  0.2237  0.0167 -0.0018
50197W        W93135   0.867  17.374  19.762 -0.0798  0.3561  0.1307
50198W        W93136   0.524  15.854  21.988  0.0807  0.1908 -0.1704
50199W        W93137  33.670  14.097  24.916  0.1853 -0.0537 -0.1274
50200W        W93138  34.424  16.088  24.762  0.0393  0.2520  0.1429
50201W        W93139   0.399  15.397  24.345  0.1564  0.3558 -0.0767
50202W        W93140  33.596  13.660  22.159  0.0691 -0.3687 -0.1474
50203W        W93141  32.975  16.366  20.232 -0.0949  0.0347 -0.0188
50204W        W93142  33.175  18.902  20.119 -0.1994  0.0363  0.1812
50205W        W93143  32.583  15.195  22.685 -0.0187  0.2755  0.0698
50206W        W93144  33.070  17.354  24.475  0.0591 -0.0201 -0.0314
50207W        W93145  33.365  15.082  19.872  0.4983  0.2382  0.2587
50208W        W93146  33.594  15.107  21.266 -0.2208  0.1944  0.3514
50209W        W93147   1.067  19.105  23.755  0.0421 -0.1906  0.0776
50210W        W93148   0.286  14.450  19.849 -0.0779 -0.1750  0.0838
50211W        W93149  34.228  15.895  22.252 -0.0167 -0.0568 -0.0588
50212W        W93150  34.148  17.612  22.741  0.1287  0.1684 -0.0724
50213W        W93151  31.489  17.058  23.167 -0.2289  0.2438  0.0896
50214W        W93152  34.663  16.320  23.279 -0.1233  0.1961  0.1412
50215W        W93153   0.070  15.043  22.123  0.1024 -0.1264 -0.1355
50216W        W93154  34.506  16.674  23.537  0.2855  0.1635 -0.0219
50217W        W93155  33.372  16.921  23.586  0.0060  0.1609  0.1453
50218W        W93156  31.564  15.639  22.967  0.4193 -0.0089  0.2408
50219W        W93157  32.314  13.955  20.423 -0.3335  0.0669 -0.1812
50220W        W93158  34.172  18.144  24.985  0.1930  0.1612 -0.2133
50221W        W93159  33.224  15.749  22.699  0.2057  0.0111 -0.2027
50222W        W93160  33.900  18.545  22.674  0.2120 -0.0662 -0.2752
50223W        W93161   0.632  14.306  20.294  0.0619 -0.0409 -0.1427
50224W        W93162  33.805  17.923  22.458  0.2139 -0.1817  0.3404
50225W        W93163  32.184  17.160  20.281 -0.2295 -0.2244  0.0211
50226W        W93164  34.627  17.780  22.682  0.0245 -0.0110 -0.1660
50227W        W93165  34.042  16.287  21.433 -0.0491  0.0553 -0.1524
50228W        W93166   0.592  16.804  20.037 -0.1419 -0.1737 -0.2084
50229W        W93167  34.446  15.942  24.117 -0.0908  0.0790  0.1244
50230W        W93168  33.622  16.363  23.009 -0.0112  0.0686  0.1748
50231W        W93169  32.911  15.056  21.976 -0.0610  0.1300 -0.1906
50232W        W93170   1.319  17.928  20.516 -0.0405 -0.1990 -0.2186
50233W        W93171  34.589  16.536  20.800  0.0737 -0.2682 -0.1914
50234W        W93172  33.597  17.605  22.064 -0.1914  0.2493 -0.0823
50235W        W93173  34.475  17.062  24.231  0.1822  0.3355 -0.2752
50236W        W93174   0.755  17.556  22.576  0.4478 -0.0009 -0.3167
50237W        W93175  32.674  16.193  20.642 -0.0810  0.0526 -0.2508
50238W        W93176  32.248  16.798  22.811  0.0960  0.1267  0.3159
50239W        W93177  33.469  15.823  23.170  0.0655  0.1687  0.0668
50240W        W93178  31.555  15.961  22.581  0.1700 -0.2276  0.1197
50241W        W93179   0.181  15.364  20.792 -0.1271 -0.1952 -0.3965
50242W        W93180  32.636  14.455  22.737  0.0051 -0.0509  0.0966
50243W        W93181  32.809  16.945  21.350 -0.1511  0.2873  0.1385
50244W        W93182  34.083  15.517  24.730 -0.1317  0.2530  0.1167
50245W        W93183  34.074  15.466  21.627 -0.0890 -0.2072  0.1259
50246W        W93184  33.822  17.927  20.940 -0.0352  0.0074 -0.1534
50247W        W93185  32.498  15.821  22.496  0.1004 -0.0362 -0.1295
50248W        W93186   0.794  14.351  22.234 -0.3157  0.1620 -0.0969
50249W        W93187  34.333  15.921  20.588  0.1722 -0.0535  0.0727
50250W        W93188  32.176  18.072  23.489 -0.1360  0.1181  0.0620
50251W        W93189  33.972  19.380  19.424 -0.1071  0.3290 -0.0545
50252W        W93190   0.259  15.765  24.063  0.0070 -0.0488  0.0092
50253W        W93191  33.787  18.533  24.210 -0.3561 -0.2470 -0.1423
50254W        W93192  32.693  17.392  21.012 -0.1454 -0.2301  0.4823
50255W        W93193  33.713  17.936  25.304  0.2820  0.1083  0.1743
50256W        W93194  34.637  16.398  22.313 -0.1147 -0.2831  0.0905
50257W        W93195   0.225  17.300  20.999  0.1280  0.1596 -0.2408
50258W        W93196   1.338  15.382  21.064  0.2119  0.0979  0.2285
50259W        W93197  34.324  15.864  21.365 -0.0724  0.0238 -0.0428
50260W        W93198   0.970  17.363  23.887  0.0466 -0.0842 -0.1523
50261W        W93199  33.525  15.801  20.625  0.1982  0.1333 -0.0295
50262W        W93200  31.847  16.524  21.844 -0.2678  0.0846  0.1030
50263W        W93201  33.914  15.956  21.810  0.2441 -0.1356 -0.1141
50264W        W93202  33.585  15.632  24.194  0.0782  0.3047  0.0777
50265W        W93203  34.697  16.530  24.618 -0.0448  0.3399  0.1182
50266W        W93204  33.788  16.632  23.545  0.3172  0.1334  0.0999
50267W        W93205  33.874  15.401  22.121  0.1497 -0.0467  0.0278
50268W        W93206  34.117  14.482  22.422 -0.2557 -0.0967  0.2254
50269W        W93207  32.002  15.788  23.334  0.1537  0.2040  0.2945
50270W        W93208  34.518  15.088  21.683  0.2523 -0.3034  0.0945
50271W        W93209  31.973  15.743  21.408 -0.0532  0.0405  0.0591
50272W        W93210   1.035  16.989  23.553 -0.1699  0.1371  0.1663
50273W        W93211   0.762  15.904  24.656  0.1640  0.0089  0.0365
50274W        W93212  32.151  14.330  20.878 -0.0277 -0.0149  0.0182
50275W        W93213   0.220  15.163  22.736 -0.0848  0.2972 -0.2041
50276W        W93214  34.228  17.384  24.527 -0.0495 -0.0401  0.2198
50277W        W93215  34.674  17.881  24.394  0.1145 -0.1356 -0.1640
50278W        W93216  32.841  13.842  24.164  0.0547  0.2107  0.1717
50279W        W93217  33.074  16.350  24.370 -0.2339 -0.3628  0.0865
50280W        W93218  33.858  14.709  24.315 -0.1168  0.1118 -0.2315
50281W        W93219  33.453  16.477  23.943  0.1414 -0.1098  0.1841
50282W        W93220  33.912  15.617  23.237 -0.4741 -0.0355 -0.2052
50283W        W93221  33.881  15.260  23.803 -0.1827 -0.1334  0.1283
50284W        W93222   1.308  15.439  20.481 -0.2706 -0.1551  0.1517
50285W        W93223  34.155  15.681  23.770 -0.0716  0.1876 -0.4603
50286W        W93224  34.276  16.191  21.020  0.0522  0.0812 -0.0806
50287W        W93225   0.977  19.429  24.117  0.3108 -0.2571 -0.2265
50288W        W93226  32.707  16.092  22.955  0.1967  0.0666 -0.0006
50289W        W93227  32.923  15.837  20.907 -0.2373  0.1661 -0.1001
50290W        W93228  33.275  16.647  21.082 -0.2928 -0.0528  0.1977
50291W        W93229  32.755  13.575  22.798 -0.2901 -0.3026  0.3224
50292W        W93230  33.562  17.317  24.335 -0.1176  0.0828  0.0672
50293W        W93231  32.344  17.714  27.639 -0.0193 -0.3714 -0.0188
50294W        W93232  33.860  15.468  25.320  0.1288 -0.3333  0.0029
50295W        W93233  33.455  14.633  24.716  0.1323  0.1077 -0.0958
50296W        W93234   0.265  15.184  28.099 -0.0397  0.1855  0.0786
50297W        W93235  33.996  17.693  27.284 -0.1181 -0.2363  0.0412
50298W        W93236  32.800  17.528  27.685  0.2714  0.2455  0.1867
50299W        W93237   0.103  14.124  24.312 -0.1428  0.2149 -0.0518
50300W        W93238  34.092  14.983  26.922  0.1472  0.0285 -0.0234
50301W        W93239  33.219  16.995  26.407  0.0955  0.1848 -0.0353
50302W        W93240  34.258  16.606  26.642  0.0508 -0.1347  0.0009
50303W        W93241  34.040  16.097  26.534 -0.3028  0.2261  0.1105
50304W        W93242  34.614  15.360  27.165 -0.0507 -0.0687  0.1388
50305W        W93243  33.783  16.531  25.737  0.1840  0.1580 -0.0205
50306W        W93244  32.495  15.878  23.420 -0.1337 -0.2626 -0.0494
50307W        W93245  32.309  17.410  25.679  0.4876  0.0481 -0.1959
50308W        W93246  33.342  15.412  27.897  0.0579  0.2443 -0.2485
50309W        W93247  33.352  17.774  25.746  0.0137 -0.0303  0.0460
50310W        W93248   1.111  17.548  25.819 -0.1617  0.3055  0.0081
50311W        W93249  33.577  17.412  25.261 -0.6785 -0.0578 -0.1446
50312W        W93250  32.546  18.070  27.130 -0.0173  0.0090  0.1653
50313W        W93251   0.326  18.527  25.009 -0.0880  0.2456  0.2069
50314W        W93252  34.516  19.330  26.448 -0.0055  0.0813 -0.0475
50315W        W93253   0.119  17.594  23.988 -0.0489 -0.1855  0.1154
50316W        W93254  32.978  17.939  27.447 -0.0456  0.3094  0.2718
50317W        W93255  32.303  17.903  25.229 -0.2637 -0.0446  0.2405
50318W        W93256  34.030  16.487  26.147 -0.2062 -0.2175  0.3130
50319W        W93257  33.724  17.758  26.088 -0.0198  0.3424 -0.2786
50320W        W93258  32.924  16.818  25.981  0.1974 -0.2057  0.2440
50321W        W93259  33.521  18.140  24.549  0.0832 -0.1776  0.0058
50322W        W93260  34.448  16.933  24.737 -0.1191  0.3751  0.5321
50323W        W93261  33.989  15.258  25.730  0.0053  0.0619 -0.4805
50324W        W93262  34.135  17.404  26.158 -0.0189 -0.4805  0.3001
50325W        W93263  34.617  14.863  27.118 -0.1935  0.0835 -0.0329
50326W        W93264  32.435  17.727  26.769  0.2366 -0.2509  0.1137
50327W        W93265  34.199  15.477  26.848 -0.1620  0.1130  0.0552
50328W        W93266  31.541  17.469  26.345 -0.0523  0.3431  0.3104
50329W        W93267  32.961  16.002  27.453  0.0411 -0.2083 -0.1594
50330W        W93268  33.102  15.839  27.926 -0.2657  0.0519  0.0065
50331W        W93269  32.820  15.227  24.224 -0.0425 -0.3685  0.0528
50332W        W93270  31.713  17.598  26.786  0.1437 -0.3477 -0.0954
50333W        W93271   0.012  16.463  26.327  0.0139 -0.0393  0.0233
50334W        W93272  34.153  15.455  24.231 -0.3035  0.0016  0.1106
50335W        W93273  34.016  16.886  24.431 -0.1322 -0.2834  0.0458
50336W        W93274  33.201  17.704  27.068  0.4475  0.1442 -0.4075
50337W        W93275  34.392  16.392  27.460  0.0998  0.0247  0.2274
50338W        W93276   0.370  16.922  26.997 -0.3141  0.0079  0.0342
50339W        W93277  33.857  17.711  24.369 -0.0188 -0.2866  0.0758
50340W        W93278  32.203  15.831  28.416  0.2954 -0.0188  0.2543
50341W        W93279  32.775  17.668  24.327 -0.2466 -0.0427 -0.0054
50342W        W93280  33.619  14.206  27.294  0.0395  0.0059  0.2934
50343W        W93281  34.513  16.883  27.526  0.3438 -0.0486 -0.1583
50344W        W93282  33.733  16.235  27.375 -0.3779 -0.3060 -0.2876
50345W        W93283  33.440  16.883  25.708 -0.1970  0.0295  0.3763
50346W        W93284  32.433  15.024  26.776  0.1303 -0.0407  0.0738
50347W        W93285   0.447  16.128  26.185 -0.0049 -0.0882 -0.1774
50348W        W93286   0.684  15.895  28.337 -0.1757 -0.0930 -0.2236
50349W        W93287  34.479  14.155  27.457 -0.1390  0.3568  0.1339
50350W        W93288   0.588  14.230  24.403  0.0674 -0.0580  0.3170
50351W        W93289  33.368  16.503  24.829  0.2619 -0.0982 -0.3396
50352W        W93290  33.515  17.733  24.855 -0.0536  0.0848  0.1358
50353W        W93291  34.102  14.594  26.116 -0.1375 -0.1751 -0.1346
50354W        W93292  33.139  15.428  23.878  0.1722 -0.2412 -0.1812
50355W        W93293  31.918  17.395  27.988  0.4350  0.2503 -0.0021
50356W        W93294  34.559  17.261  25.835  0.2959 -0.2489 -0.2311
50357W        W93295  32.815  16.181  24.759 -0.1431 -0.2150 -0.1248
50358W        W93296  32.075  16.638  26.483 -0.1313  0.2940 -0.1860
50359W        W93297  33.981  16.488  24.000  0.0327  0.1201  0.1284
50360W        W93298  33.352  18.315  23.982 -0.1280 -0.3420  0.0394
50361W        W93299  33.727  15.942  25.595 -0.0432  0.0780  0.0310
50362W        W93300  33.852  16.978  25.955  0.2046 -0.0136 -0.5015
50363W        W93301  33.911  16.674  28.818 -0.1713  0.0114  0.0366
50364W        W93302  32.138  15.389  25.226  0.2645 -0.0533 -0.2383
50365W        W93303  32.464  16.199  27.085 -0.2107 -0.1378 -0.1002
50366W        W93304  33.054  17.189  28.636  0.1556  0.0319  0.0330
50367W        W93305  33.509  15.474  24.680  0.6677 -0.2820  0.3128
50368W        W93306  34.265  16.900  26.182 -0.0055 -0.0235  0.1479
50369W        W93307  32.549  17.119  27.822  0.1509  0.1238 -0.0648
50370W        W93308   0.183  14.067  25.898  0.1517 -0.0195 -0.0855
50371W        W93309   0.405  14.858  23.540 -0.1084  0.1437  0.0911
50372W        W93310  33.126  16.743  23.125 -0.1539  0.0907 -0.0574
50373W        W93311   1.074  14.300  26.168  0.1528  0.2724  0.1060
50374W        W93312  32.657  16.131  24.163  0.0021  0.0333 -0.1423
50375W        W93313   1.604  14.423  27.004 -0.0949 -0.1995  0.0678
50376W        W93314  32.090  16.442  27.397 -0.2922 -0.2028 -0.3724
50377W        W93315  32.792  19.095  27.619  0.2050 -0.1943  0.0486
50378W        W93316  34.674  17.294  27.835  0.2035 -0.2857  0.1060
50379W        W93317  33.629  17.356  25.744 -0.4104 -0.2254 -0.0649
50380W        W93318  33.242  17.432  26.131  0.0334 -0.2884 -0.3588
50381W        W93319   1.155  13.514  28.013 -0.0239  0.0877 -0.1478
50382W        W93320   0.839  18.280  26.196  0.1135  0.1735 -0.0072
50383W        W93321  34.112  17.187  25.637  0.0588  0.1681  0.1655
50384W        W93322  33.811  18.046  24.035 -0.0209 -0.1622 -0.3218
50385W        W93323  32.056  18.124  26.913  0.1297  0.0360  0.0004
50386W        W93324  34.542  14.882  23.096  0.2146  0.0350  0.0377
50387W        W93325  32.727  15.627  24.885  0.0113  0.0114  0.3144
50388W        W93326  33.741  14.985  26.059 -0.2072 -0.2567 -0.2717
50389W        W93327   1.270  13.414  27.391  0.0039  0.2461  0.2152
50390W        W93328  31.681  17.482  25.329  0.0264 -0.3314 -0.2901
50391W        W93329  34.340  17.139  27.006  0.1301  0.1499  0.2134
50392W        W93330  31.928  15.055  23.650 -0.0956 -0.0747 -0.1605
50393W        W93331   0.697  17.216  25.562  0.4772 -0.1134  0.0771
50394W        W93332  33.600  18.225  25.795 -0.0653  0.1134  0.1474
50395W        W93333  33.316  16.938  25.202 -0.0447 -0.2438  0.1331
50396W        W93334  32.108  16.781  27.806 -0.2249  0.1784 -0.1040
50397W        W93335  33.695  14.516  28.200 -0.2157 -0.0454  0.0298
50398W        W93336   0.753  15.216  27.622  0.1823 -0.1108  0.0161
50399W        W93337  34.551  16.283  25.318  0.0668  0.0836 -0.0331
50400W        W93338  34.288  15.256  27.550  0.0500 -0.0616 -0.2274
50401W        W93339  34.066  15.463  28.587  0.1016  0.1244 -0.2255
50402W        W93340  34.352  17.939  26.947 -0.0907  0.2682  0.2306
50403W        W93341  33.215  18.737  25.073  0.1459  0.1179  0.3141
50404W        W93342  33.923  16.977  26.761 -0.0356  0.1081 -0.1236
50405W        W93343  33.797  16.729  24.836  0.3420  0.0159 -0.0833
50406W        W93344   0.345  15.762  25.771  0.0483 -0.1327  0.1158
50407W        W93345  33.510  18.067  26.766 -0.3414  0.0157  0.0240
50408W        W93346  33.684  16.699  26.433 -0.1210 -0.1287 -0.0693
50409W        W93347  31.832  17.805  27.270  0.1797  0.1288  0.0243
50410W        W93348  34.085  17.629  25.003  0.2055  0.0183 -0.1437
50411W        W93349   1.411  13.975  27.330 -0.1911 -0.0944  0.0217
50412W        W93350  34.114  16.009  27.661  0.0506  0.0186 -0.1517
50413W        W93351  33.810  16.852  27.709  0.0199  0.1431  0.3810
50414W        W93352  33.111  15.891  25.125 -0.1047  0.0971 -0.3176
50415W        W93353  33.383  17.165  27.731 -0.0084 -0.1237  0.0336
50416W        W93354   0.547  18.225  23.067  0.1244 -0.0483  0.0834
50417W        W93355  33.443  18.094  27.256 -0.0817 -0.1331  0.0692
50418W        W93356   0.151  18.150  23.989  0.0917  0.1554 -0.0184
50419W        W93357  34.195  15.654  26.386  0.0396 -0.0229  0.4050
50420W        W93358  33.634  14.487  26.302 -0.2392  0.0241 -0.1948
50421W        W93359   0.199  16.268  27.503  0.0693 -0.0651  0.0252
50422W        W93360   0.292  16.849  27.451 -0.1210 -0.3438  0.1624
50423W        W93361  33.402  15.726  27.491  0.2162  0.0054  0.0911
50424W        W93362  34.081  14.115  25.283 -0.1788 -0.3193 -0.2064
50425W        W93363   0.598  17.814  25.687 -0.0181 -0.0970 -0.0062
50426W        W93364  32.215  15.875  26.156 -0.0604 -0.0024 -0.0080
50427W        W93365  33.820  17.516  27.756 -0.1564  0.4115  0.2844
50428W        W93366  34.501  17.071  23.167  0.2676 -0.3037 -0.2513
50429W        W93367  32.877  16.860  23.581 -0.0335  0.0390  0.0735
50430W        W93368   0.461  17.170  26.567  0.0211 -0.1528  0.0282
50431W        W93369   0.794  16.291  24.259 -0.4020  0.4192 -0.0689
50432W        W93370  32.953  18.076  25.738 -0.0858 -0.0047 -0.2843
50433W        W93371   0.511  18.705  26.249 -0.0377  0.2836  0.0323
50434W        W93372  32.506  15.448  27.083 -0.0078  0.0584 -0.1526
50435W        W93373  34.424  17.506  25.401 -0.1719  0.0150 -0.2508
50436W        W93374   0.041  17.280  27.254 -0.0758  0.0030  0.0146
50437W        W93375  34.365  16.136  26.182 -0.1267 -0.2178  0.2539
50438W        W93376  33.778  16.030  26.101 -0.0683  0.0677 -0.1094
50439W        W93377  34.086  14.972  27.982 -0.1615 -0.0057 -0.1816
50440W        W93378  32.760  15.860  25.747 -0.0792  0.4514  0.1061
50441W        W93379  32.844  18.495  27.841  0.1089  0.2489  0.2738
50442W        W93380  33.092  16.807  27.574  0.1688 -0.0610  0.0867
50443W        W93381  32.993  18.294  23.655  0.2321  0.0077 -0.0255
50444W        W93382   0.045  14.552  24.025 -0.0097 -0.0867  0.1871
50445W        W93383  33.305  16.558  26.886  0.1574  0.3163 -0.3985
50446W        W93384  32.528  16.804  23.275 -0.0386 -0.0628  0.0018
50447W        W93385  33.827  18.441  24.839 -0.0803 -0.1769  0.1515
50448W        W93386  34.446  15.841  27.303 -0.2715 -0.1449  0.2916
50449W        W93387  33.989  15.986  24.246  0.1914  0.2987  0.2088
50450W        W93388  34.175  17.213  27.525 -0.1001  0.0232 -0.0385
50451W        W93389  33.169  19.048  27.243  0.0392 -0.3233  0.0513
50452W        W93390  33.660  15.852  25.101 -0.0457 -0.3751  0.0660
50453W        W93391  34.227  17.455  26.647  0.2367  0.1737 -0.2764
50454W        W93392  34.600  17.597  24.842  0.0609  0.2160 -0.0813
50455W        W93393   0.484  18.084  25.276  0.1754  0.2205 -0.1603
50456W        W93394  33.693  17.272  26.379  0.0045  0.2952 -0.0075
50457W        W93395  34.225  18.441  26.615  0.1584  0.6000  0.1462
50458W        W93396  32.676  15.719  23.892 -0.4423 -0.2478  0.1353
50459W        W93397  32.679  17.583  27.169  0.1993  0.0453  0.0271
50460W        W93398  33.909  16.813  25.383  0.1357 -0.0259 -0.0594
50461W        W93399   0.252  15.655  28.343  0.1050  0.0832 -0.1165
50462W        W93400   0.357  15.310  23.791 -0.1640  0.1600  0.1585
50463W        W93401  33.765  15.444  27.673  0.2389 -0.2446  0.0192
50464W        W93402  33.376  15.583  25.464  0.1398  0.3363 -0.1042
50465W        W93403  34.626  15.913  27.803  0.3181  0.1489  0.0663
50466W        W93404  34.360  13.512  24.721 -0.0545 -0.0438  0.0063
50467W        W93405  34.152  18.129  24.469 -0.2220  0.2917 -0.0684
50468W        W93406  33.120  14.191  27.075  0.0250  0.2506  0.3467
50469W        W93407  34.348  14.431  25.679  0.1678 -0.1820 -0.1397
50470W        W93408   0.137  15.079  27.598 -0.1078  0.2379  0.1853
50471W        W93409  32.778  18.922  24.839  0.3178 -0.3520 -0.2822
50472W        W93410  33.001  18.131  22.844  0.0211 -0.0891 -0.0425
50473W        W93411  33.431  17.135  26.834  0.2390  0.0940 -0.0534
50474W        W93412  33.434  18.607  26.953  0.0323 -0.2234  0.2751
50475W        W93413  33.061  15.387  23.360 -0.0745 -0.0724 -0.1270
50476W        W93414  34.158  17.125  28.025 -0.0947 -0.0863 -0.2356
50477W        W93415  32.612  17.396  26.304 -0.1068  0.0556 -0.2459
50478W        W93416  33.528  18.339  26.351  0.0431  0.0333  0.0111
50479W        W93417   0.503  16.488  24.667  0.0216 -0.1501 -0.0443
50480W        W93418  34.673  15.749  26.103 -0.1260 -0.0256  0.2261
50481W        W93419  33.098  17.241  27.247  0.2546 -0.3107 -0.0546
50482W        W93420  32.734  16.226  25.303 -0.1110  0.2175  0.2927
50483W        W93421  33.455  15.999  24.594 -0.2393  0.3479  0.4890
50484W        W93422  33.308  16.101  27.073 -0.1244 -0.2198 -0.0170
50485W        W93423  34.225  14.694  28.356 -0.0992  0.0475  0.2020
50486W        W93424   0.488  15.675  27.896 -0.0357  0.0106  0.1901
50487W        W93425  31.093  17.646  26.139  0.2261  0.0502 -0.1305
50488W        W93426  32.607  15.693  24.425 -0.0438 -0.0543  0.1070
50489W        W93427  33.776  15.916  26.937  0.0966  0.1185  0.0553
50490W        W93428  32.683  14.409  26.418 -0.2529 -0.0797  0.2116
50491W        W93429   0.502  14.272  25.538 -0.1332  0.3784  0.1736
50492W        W93430  33.397  17.482  23.304 -0.0508  0.3805 -0.2806
50493W        W93431   0.764  16.662  28.764  0.1851  0.4329  0.1255
50494W        W93432  33.984  14.056  27.577  0.0598 -0.0563  0.0719
50495W        W93433  33.125  14.200  24.728 -0.1228 -0.1772  0.0045
50496W        W93434   1.231  16.485  28.678  0.1274 -0.0932  0.1047
50497W        W93435  33.732  18.113  28.570  0.2847 -0.0421  0.1574
50498W        W93436  33.886  18.203  26.977  0.0536 -0.0312  0.2953
50499W        W93437  33.730  15.033  28.558  0.3393 -0.1865  0.1711
50500W        W93438   1.168  18.044  26.529 -0.0518  0.0762  0.0837
50501W        W93439   0.991  15.661  27.640  0.0407 -0.1274  0.0932
50502W        W93440  33.727  17.221  27.189 -0.1110 -0.1976  0.0304
50503W        W93441   0.550  15.541  26.195  0.3427  0.2558 -0.0153
50504W        W93442  33.505  16.786  27.272 -0.1864 -0.0288 -0.0208
50505W        W93443  34.103  15.729  25.819  0.2184 -0.0821 -0.0254
50506W        W93444   0.674  16.042  27.507  0.0249 -0.1557  0.0267
50507W        W93445  33.005  17.370  25.008 -0.0940  0.2104  0.0503
50508W        W93446  34.323  18.647  25.047 -0.1103 -0.0759  0.0733
50509W        W93447   0.703  13.878  27.132 -0.2373 -0.0733  0.1353
50510W        W93448  33.125  15.938  24.082 -0.1926  0.0781 -0.1451
50511W        W93449   0.031  16.865  26.061  0.0919  0.0066  0.3854
50512W        W93450  34.171  16.229  25.639 -0.1298 -0.1689  0.2171
50513W        W93451   0.067  18.657  25.981 -0.0979 -0.0039  0.1021
50514W        W93452  33.226  16.169  31.053 -0.0085 -0.2097 -0.0185
50515W        W93453  34.351  17.235  29.278 -0.0871  0.0744 -0.1309
50516W        W93454  33.507  16.599  29.876  0.0110  0.0966  0.1549
50517W        W93455  33.419  12.841  30.838 -0.0080 -0.3929 -0.0070
50518W        W93456  34.501  16.006  31.035 -0.0802 -0.0453  0.2581
50519W        W93457  34.157  18.354  31.638 -0.0969 -0.1202  0.0996
50520W        W93458   0.591  15.704  28.749 -0.0047  0.0675  0.2554
50521W        W93459  32.468  14.051  30.786  0.3360  0.0681  0.1019
50522W        W93460  33.756  15.830  27.942  0.1895  0.3023 -0.2515
50523W        W93461  33.942  16.108  31.680  0.0930 -0.0394  0.0127
50524W        W93462  34.341  17.401  30.043 -0.2662  0.0942  0.0147
50525W        W93463  34.483  16.059  30.498  0.0351  0.1252 -0.1735
50526W        W93464  34.230  18.199  28.247 -0.2671 -0.1491 -0.1482
50527W        W93465  32.626  17.116  27.318 -0.0105  0.0960  0.2969
50528W        W93466  33.603  16.167  30.102  0.3010  0.1723  0.3030
50529W        W93467   0.417  16.475  29.119  0.0415  0.1579 -0.1057
50530W        W93468  34.358  17.800  30.400 -0.1279 -0.2375  0.2757
50531W        W93469  33.822  17.171  30.943 -0.1333 -0.0522 -0.1251
50532W        W93470  34.120  17.814  29.445 -0.4250 -0.2335  0.2392
50533W        W93471  32.472  16.301  27.781 -0.1125 -0.0436 -0.4506
50534W        W93472  33.564  17.046  28.763 -0.2197  0.1335 -0.1333
50535W        W93473   1.042  16.051   0.762  0.0956 -0.0479  0.0793
50536W        W93474  32.900  17.487  28.211 -0.1984  0.0194 -0.1944
50537W        W93475   0.094  18.153   0.786 -0.0564  0.0178  0.1588
50538W        W93476  33.674  17.987  29.132 -0.1983  0.0787 -0.0299
50539W        W93477   0.702  16.385  29.536 -0.1556  0.1460 -0.0955
50540W        W93478  33.966  15.860   0.274  0.1596 -0.1296  0.0727
50541W        W93479   0.012  16.549  28.734 -0.3454  0.0031  0.4816
50542W        W93480  33.956  17.888  30.706 -0.1615 -0.0194  0.0740
50543W        W93481   0.089  15.791  28.802 -0.0947  0.2430  0.2269
50544W        W93482   0.063  14.519  28.112  0.1430  0.1533 -0.0132
50545W        W93483  33.663  18.969  27.378 -0.0051 -0.0383  0.0457
50546W        W93484   0.307  14.975  29.142  0.2393  0.2738  0.0514
50547W        W93485  33.955  17.357  31.480  0.0708 -0.1190  0.1521
50548W        W93486  33.067  15.524  28.559 -0.0112  0.1562  0.3087
50549W        W93487  32.582  16.907  29.623  0.0913 -0.0289 -0.0443
50550W        W93488  33.628  16.991  31.459  0.2009  0.3269  0.0089
50551W        W93489  32.676  16.411  30.103 -0.1326 -0.2432 -0.0341
50552W        W93490  34.118  16.139  28.157 -0.2883  0.5659  0.2949
50553W        W93491  33.911  16.678  29.559 -0.2283 -0.1936 -0.4753
50554W        W93492  33.650  16.696  31.003  0.1490 -0.1809 -0.1180
50555W        W93493  33.979  17.640  28.988  0.2095  0.3484  0.1586
50556W        W93494  34.637  16.254  28.282 -0.0205 -0.0228 -0.0370
50557W        W93495  33.409  16.151  28.903 -0.2397  0.0332  0.1845
50558W        W93496  33.543  15.053  31.042  0.0007  0.0299 -0.0717
50559W        W93497   0.381  16.700   1.302  0.1417 -0.1840 -0.1304
50560W        W93498  32.705  18.367  28.312  0.0598 -0.3568 -0.2939
50561W        W93499  32.525  16.733  28.080 -0.2914  0.1660 -0.1404
50562W        W93500  31.991  17.965  28.901  0.2541 -0.0559 -0.1391
50563W        W93501  32.874  14.019  30.494 -0.3785  0.1309  0.0901
50564W        W93502  33.955  17.330  29.617  0.2218  0.4538  0.0638
50565W        W93503  33.472  15.228  30.265 -0.1403 -0.1666 -0.1900
50566W        W93504  32.968  16.984  28.129  0.0606 -0.0017  0.1560
50567W        W93505  34.115  15.402  29.780  0.3811 -0.0879 -0.4377
50568W        W93506  34.628  16.102  29.117 -0.0710 -0.1744 -0.1173
50569W        W93507  34.288  15.721  31.901  0.0252 -0.2100  0.0947
50570W        W93508  32.389  16.246  30.436  0.1607 -0.0365  0.1248
50571W        W93509  34.389  15.833  28.446 -0.0754 -0.0450 -0.0015
50572W        W93510  34.419  16.880  29.773  0.0050 -0.1027 -0.0397
50573W        W93511  33.045  16.734  28.892  0.2623  0.2873 -0.4425
50574W        W93512   0.652  16.385  30.128 -0.2221 -0.2581  0.2864
50575W        W93513  34.002  16.755  27.204  0.1427 -0.1101 -0.0505
50576W        W93514  33.301  18.800  30.597  0.0443 -0.2420  0.3402
50577W        W93515  34.618  18.218  30.553  0.1093  0.2586 -0.1563
50578W        W93516   0.472  14.856  27.837  0.0205 -0.0706  0.0804
50579W        W93517  33.703  15.669  30.331 -0.0074 -0.0363  0.1127
50580W        W93518  33.249  14.986  28.421 -0.0809 -0.2975 -0.1533
50581W        W93519  32.558  17.948  28.408 -0.0519  0.1035  0.0464
50582W        W93520  32.948  16.571  28.369 -0.0523 -0.4401 -0.2159
50583W        W93521  34.671  16.993  28.288 -0.1267 -0.1305 -0.3211
50584W        W93522  32.653  15.677  31.632 -0.2711 -0.1381 -0.0943
50585W        W93523  34.313  16.580  29.214  0.0025 -0.2100  0.0384
50586W        W93524  33.733  17.779  31.167 -0.0051 -0.0819 -0.2006
50587W        W93525  32.940  17.286   0.612  0.0444 -0.3602  0.0286
50588W        W93526  34.466  17.632  29.027  0.2798  0.0559 -0.0632
50589W        W93527  34.369  16.959  31.003  0.0421  0.3196 -0.3414
50590W        W93528  32.668  16.614  30.643 -0.2587  0.2837 -0.1260
50591W        W93529  34.576  14.437  29.656  0.0776 -0.1176 -0.4388
50592W        W93530  34.225  16.567  27.907  0.1373 -0.1602 -0.1349
50593W        W93531  33.290  17.637  27.892  0.0486  0.1495  0.1567
50594W        W93532  34.504  14.531  30.114 -0.3862 -0.0437  0.0755
50595W        W93533  32.560  16.634  27.362 -0.0379 -0.0117 -0.4448
50596W        W93534  34.411  14.943  31.645  0.2688 -0.0227  0.2091
50597W        W93535  33.736  16.298   0.071 -0.1521  0.0983  0.1891
50598W        W93536  34.070  17.833  31.580  0.1671 -0.0248 -0.0752
50599W        W93537   0.664  16.399   1.015 -0.0316 -0.1350  0.0155
50600W        W93538  33.265  18.177  27.832  0.1357 -0.0211 -0.1745
50601W        W93539  33.754  18.493  27.360 -0.3587  0.1279 -0.0621
50602W        W93540  34.192  16.241  29.529  0.1747  0.1159  0.0035
50603W        W93541  33.562  17.465  29.259 -0.0552  0.0299 -0.0603
50604W        W93542  33.475  17.571  27.438  0.1317  0.0623  0.2249
50605W        W93543  33.688  17.869  28.167 -0.1128  0.0572  0.0065
50606W        W93544  32.780  18.174  29.814  0.2788 -0.1349 -0.2774
50607W        W93545   0.023  16.546  27.094  0.1509 -0.0786 -0.0394
50608W        W93546  32.673  15.919  29.673 -0.1138  0.2683  0.1159
50609W        W93547  33.401  15.841  29.254  0.0635 -0.2452  0.0741
50610W        W93548   0.190  15.972  30.674 -0.2282 -0.3153  0.0257
50611W        W93549  32.363  16.845  31.064 -0.1916  0.1989 -0.1857
50612W        W93550  34.359  16.414  31.716  0.1073  0.0834  0.0334
50613W        W93551  32.276  15.357  28.230  0.0602 -0.3693 -0.0834
50614W        W93552  34.274  15.722  29.000  0.2735 -0.1427 -0.1462
50615W        W93553  33.832  15.374  28.159  0.0530  0.0477  0.1272
50616W        W93554  33.806  16.338  28.487 -0.4252  0.1124 -0.0218
50617W        W93555  32.899  16.298  27.931 -0.0350 -0.0005 -0.4725
50618W        W93556  33.128  16.198   0.017 -0.1269 -0.1447  0.3291
50619W        W93557   0.646  16.913  29.484 -0.1273 -0.0205  0.0807
50620W        W93558   0.074  17.347  28.690 -0.0101 -0.2382 -0.0712
50621W        W93559   0.565  17.571  28.700 -0.0050  0.0174  0.0179
50622W        W93560   0.444  15.621  31.047 -0.1369 -0.0059 -0.0670
50623W        W93561  34.654  16.869  31.853  0.0305 -0.5220 -0.1391
50624W        W93562   0.186  17.810  30.353  0.2217 -0.3558 -0.0574
50625W        W93563  32.175  16.821  29.103  0.2322 -0.0499 -0.0200
50626W        W93564  33.111  18.608  28.925  0.1244 -0.1711  0.1496
50627W        W93565  33.435  14.902  31.543  0.1107  0.3593 -0.1636
50628W        W93566  33.136  17.941  30.479  0.2312 -0.3129  0.1302
50629W        W93567  33.257  16.081  28.350 -0.2001  0.0492  0.1539
50630W        W93568  32.372  16.790  30.137 -0.0022  0.0939  0.1637
50631W        W93569  34.490  15.186  29.273  0.2139  0.3718 -0.1101
50632W        W93570  33.820  13.485  30.548 -0.3450  0.0496 -0.2326
50633W        W93571  33.838  14.319  30.740  0.2203 -0.2549 -0.0597
50634W        W93572  32.767  15.724   0.221 -0.1292  0.0398 -0.0613
50635W        W93573  33.381  14.811  29.417 -0.3097 -0.1732  0.2328
50636W        W93574   0.279  17.612  29.932  0.2964 -0.1567  0.0823
50637W        W93575  34.164  18.099  29.029 -0.0638  0.0267 -0.2104
50638W        W93576  33.573  16.510  30.520 -0.2496  0.0179 -0.0705
50639W        W93577  34.438  17.430  28.345 -0.0901 -0.1722  0.1300
50640W        W93578  34.643  16.439  29.528  0.3599  0.1179 -0.0322
50641W        W93579  34.317  14.475  31.002  0.2025 -0.0915 -0.1724
50642W        W93580   0.006  15.348   0.380  0.2215 -0.2471 -0.0171
50643W        W93581  33.439  14.367  30.217  0.0063 -0.2037 -0.0563
50644W        W93582  33.608  15.661  29.772 -0.1491 -0.0576 -0.0540
50645W        W93583  32.832  15.322  28.145  0.2804  0.2416 -0.1129
50646W        W93584   0.433  18.012  27.859 -0.2091 -0.1033  0.0785
50647W        W93585  33.546  14.804  29.973  0.2352  0.2164 -0.0939
50648W        W93586  33.643  18.780  31.265  0.2659  0.2411  0.1082
50649W        W93587  33.595  15.516  28.871  0.0779  0.3091  0.0917
50650W        W93588  33.439  17.186  28.218  0.1641 -0.3179  0.3265
50651W        W93589   0.913  18.643  30.180 -0.0990  0.0020  0.0007
50652W        W93590   0.450  14.131  28.759 -0.3684  0.0429  0.1299
50653W        W93591  33.849  18.611  29.047 -0.1725 -0.1308  0.3867
50654W        W93592  33.746  18.247  31.288 -0.3957 -0.2658 -0.0564
50655W        W93593  33.636  16.070  30.735 -0.1615 -0.0630 -0.4169
50656W        W93594  34.105  18.256  30.381 -0.0683  0.4138 -0.2057
50657W        W93595   0.501  16.793  30.372  0.0848  0.0118 -0.0078
50658W        W93596  33.041  16.723  29.394 -0.1332 -0.0397  0.1640
50659W        W93597  33.541  18.611  28.671  0.1042  0.0854  0.1302
50660W        W93598  32.031  15.058  31.337  0.0357 -0.0700  0.1738
50661W        W93599  32.361  15.170  30.281  0.1077 -0.0445  0.0691
50662W        W93600  32.634  17.658  30.348 -0.2385  0.0029  0.1703
50663W        W93601  34.419  16.247  29.992  0.0369 -0.1072 -0.1480
50664W        W93602  31.670  18.907  27.239 -0.1504  0.1317 -0.1554
50665W        W93603   0.614  16.515  27.728 -0.2690 -0.1792  0.2459
50666W        W93604  33.158  17.906  29.429 -0.0081  0.0036 -0.1503
50667W        W93605  32.417  17.533  28.092  0.0567  0.1484  0.3592
50668W        W93606  33.183  17.865  28.447 -0.1324  0.5942 -0.0232
50669W        W93607  33.952  15.146  30.281 -0.1462  0.2288 -0.1667
50670W        W93608   0.090  14.885  28.478  0.2002 -0.1179 -0.0775
50671W        W93609  32.822  16.187  30.767  0.2613  0.2593  0.1229
50672W        W93610   0.475  17.563   0.267 -0.1289  0.0062  0.1512
50673W        W93611  33.133  15.651  29.590 -0.0218  0.3349  0.0611
50674W        W93612   0.521  17.052  28.972  0.1461  0.3562 -0.1759
50675W        W93613   0.503  17.527  26.996  0.0399  0.1099  0.1243
50676W        W93614   0.182  18.986  28.836 -0.0737 -0.2816  0.0063
50677W        W93615  33.490  19.111  30.110 -0.1624  0.2095 -0.1712
50678W        W93616  34.286  17.507  31.078  0.0732  0.1749 -0.0592
50679W        W93617  32.897  15.949  29.193 -0.0685  0.1641 -0.1357
50680W        W93618  33.495  15.682  30.981 -0.1039  0.1239  0.0836
50681W        W93619   0.374  16.592  28.343  0.0379  0.1621 -0.0442
50682W        W93620  34.578  15.511  31.043 -0.2102 -0.1114 -0.3076
50683W        W93621   1.144  14.883  27.763  0.3113 -0.0526 -0.2125
50684W        W93622  34.038  15.881  29.859  0.1510 -0.0010  0.1068
50685W        W93623  34.059  17.243  28.581  0.0834  0.3404 -0.2131
50686W        W93624  33.578  16.033  31.330 -0.1038  0.1928 -0.0129
50687W        W93625  32.544  14.692  28.942 -0.1400  0.0620 -0.1550
50688W        W93626  33.755  18.756  26.437  0.2520 -0.1488  0.1036
50689W        W93627  32.837  15.998  30.342  0.2739  0.0606  0.2151
50690W        W93628   0.241  14.626  27.419  0.6526 -0.2285 -0.2036
50691W        W93629  33.178  15.677  30.155 -0.1015  0.2357 -0.2589
50692W        W93630  32.714  19.559  28.845  0.1110  0.1734 -0.0988
50693W        W93631  34.624  17.838  28.588  0.0931 -0.1298 -0.0441
50694W        W93632  33.873  16.503  31.445  0.0744 -0.0436  0.2262
50695W        W93633  33.402  17.484  31.534  0.2484 -0.0798 -0.0611
50696W        W93634  31.480  16.953  28.696 -0.0594  0.0685  0.1151
50697W        W93635  34.424  16.668  30.272 -0.0308 -0.1788 -0.0401
50698W        W93636  34.291  18.384  29.870 -0.0449 -0.0689  0.0303
50699W        W93637  33.759  18.196  27.765 -0.1221  0.3911  0.1154
50700W        W93638   0.943  17.117  30.533  0.1983  0.2339  0.1023
50701W        W93639  33.985  14.553  29.433 -0.2770  0.2060  0.3155
50702W        W93640  34.158  17.301  30.584 -0.1826  0.2045  0.1901
50703W        W93641  33.076  16.167  29.861  0.0510  0.1479 -0.2930
50704W        W93642  31.682  17.758  27.797  0.0571  0.1855 -0.0243
50705W        W93643  34.270  16.689  28.440  0.1336  0.1822 -0.2355
50706W        W93644   1.194  14.500   0.816  0.2699 -0.2312  0.3587
50707W        W93645  33.937  15.741  29.364  0.2197 -0.0528 -0.0985
50708W        W93646  33.012  16.664  29.883 -0.0695  0.3162 -0.2291
50709W        W93647  33.632  14.283  29.706  0.0301 -0.0522 -0.1686
50710W        W93648  34.314  15.631  30.201 -0.1679  0.1528 -0.2109
50711W        W93649  34.026  16.153  30.457  0.0104  0.1614 -0.0888
50712W        W93650   0.043  16.888  29.235  0.2528 -0.0186 -0.0777
50713W        W93651  33.841  15.846  28.435  0.1233  0.1518 -0.0485
50714W        W93652  34.608  15.532   0.867 -0.0435 -0.0803  0.0115
50715W        W93653  34.139  14.726  30.500  0.1866 -0.1020  0.0078
50716W        W93654  33.011  14.991  27.821  0.0642 -0.0336  0.1969
50717W        W93655  33.784  17.485  30.159  0.0261  0.2405 -0.4514
50718W        W93656  34.068  17.888  29.989  0.0011 -0.0893 -0.0841
50719W        W93657   0.741  18.300  31.636 -0.2459 -0.1322 -0.0399
50720W        W93658  34.284  14.209  30.558  0.0609 -0.0235 -0.2982
50721W        W93659  34.689  16.765  31.335 -0.1187  0.0517 -0.4018
50722W        W93660  33.421  13.381  30.868  0.1478 -0.3732  0.0271
50723W        W93661  33.071  17.095  31.642 -0.5531 -0.0687  0.0096
50724W        W93662  34.331  14.859  29.663 -0.1210 -0.1657 -0.0758
50725W        W93663  33.645  16.132  29.586 -0.1292  0.0665  0.0582
50726W        W93664   0.063  14.057  28.319 -0.1104  0.2287  0.0509
50727W        W93665   0.579  16.328  30.613  0.0352  0.4459  0.2601
50728W        W93666  33.765  16.408  27.923  0.1047 -0.2619 -0.0171
50729W        W93667   0.239  17.512  31.227 -0.2164 -0.0426  0.0055
50730W        W93668  33.991  14.554  29.958  0.2196  0.1325  0.0422
50731W        W93669  33.868  17.054  29.171  0.1538 -0.0525  0.1538
50732W        W93670   0.653  17.361  29.536  0.3614 -0.2678 -0.1710
50733W        W93671  33.528  15.325  29.294 -0.3389  0.0257  0.0706
50734W        W93672  34.676  18.057  31.374 -0.3705 -0.0400 -0.1187
50735W        W93673  33.246  16.702  31.328 -0.1494 -0.1343 -0.2232
50736W        W93674  34.614  16.636   0.332 -0.2481  0.3353 -0.0296
50737W        W93675  34.584  18.226  31.834 -0.0747  0.1832 -0.2299
50738W        W93676  33.282  18.397   0.103  0.2191  0.0968  0.2777
50739W        W93677  33.955  14.935  31.456 -0.2303 -0.0346 -0.1801
50740W        W93678  33.537  14.551  31.215  0.3027  0.2590 -0.2827
50741W        W93679  33.204  16.746  30.848 -0.1126  0.0931  0.2730
50742W        W93680  34.172  16.900  31.463  0.1716  0.2227  0.0535
50743W        W93681  33.586  17.794   1.973  0.2785 -0.0876 -0.0337
50744W        W93682  33.244  14.431  31.638  0.0213  0.1915 -0.1131
50745W        W93683  34.458  15.784   0.450 -0.0603 -0.3753 -0.2133
50746W        W93684  34.220  14.186  31.881  0.0199  0.0569 -0.1210
50747W        W93685  33.286  18.036  31.310 -0.0377 -0.0502 -0.0399
50748W        W93686  34.303  16.487  30.726  0.2069  0.0438 -0.2316
50749W        W93687  32.834  19.297  31.662 -0.1529  0.0685 -0.0018
50750W        W93688  33.625  14.808  30.571 -0.1652 -0.3717  0.1165
50751W        W93689  33.721  16.960   0.564  0.1549 -0.2401 -0.1288
50752W        W93690   0.014  15.953  31.875  0.2729  0.0120 -0.1736
50753W        W93691  32.841  15.457  30.449  0.0999  0.3676  0.2880
50754W        W93692  33.845  15.095  31.890  0.2792 -0.2092 -0.3072
50755W        W93693  33.471  16.409  31.655 -0.1736 -0.4463 -0.0647
50756W        W93694  33.755  18.352  31.944 -0.1871 -0.3507 -0.4797
50757W        W93695   0.986  17.831   1.140 -0.0776 -0.0716 -0.2355
50758W        W93696  33.091  16.042  31.535 -0.2042  0.2718 -0.0971
50759W        W93697   1.940  16.225  31.798  0.2158 -0.0375 -0.0088
50760W        W93698  33.189  15.223  30.726 -0.0481 -0.0253 -0.3169
50761W        W93699  33.748  15.683  31.782 -0.1418  0.0705 -0.0380
50762W        W93700  34.232  14.463  31.513  0.0060 -0.1121  0.2105
50763W        W93701  34.633  17.133   0.324 -0.0680  0.0551 -0.2022
50764W        W93702  34.273  12.859  31.766 -0.0340  0.0272 -0.0779
50765W        W93703  34.440  16.608   1.141 -0.0209 -0.3766  0.3777
50766W        W93704   0.806  15.139  31.839  0.3106 -0.1217 -0.2178
50767W        W93705   0.009  17.770   0.203  0.2298 -0.2102 -0.1029
50768W        W93706   0.307  18.911  31.204  0.0407 -0.2271  0.1116
50769W        W93707   0.147  16.425  31.899  0.0342  0.1586 -0.4264
50770W        W93708  33.231  15.444   0.470  0.0227 -0.0169 -0.3037
50771W        W93709  33.461  15.847   0.204 -0.0801  0.0584 -0.0993
50772W        W93710  32.536  15.821  30.800  0.2988 -0.1906  0.1745
50773W        W93711  33.909  13.407   0.346  0.1317  0.3545  0.0207
50774W        W93712  33.208  19.637  21.061 -0.2895 -0.1324  0.1737
50775W        W93713  33.653  18.480  17.398  0.4841  0.1087  0.2660
50776W        W93714  32.573  18.255  19.390 -0.0676 -0.0419 -0.0598
50777W        W93715  32.274  17.738  20.176 -0.3556  0.0183  0.2920
50778W        W93716  33.475  18.070  18.831  0.0902  0.0671  0.0327
50779W        W93717  33.769  22.665  18.294 -0.2516 -0.1951  0.2434
50780W        W93718  32.691  18.358  18.895  0.0370 -0.2306  0.1888
50781W        W93719  32.045  17.812  19.719  0.1167 -0.0087  0.1410
50782W        W93720  33.314  19.341  17.797 -0.1534  0.1297 -0.0416
50783W        W93721  32.716  18.557  17.997  0.0029  0.0529  0.3186
50784W        W93722  32.296  17.980  17.901  0.1184 -0.0465  0.1553
50785W        W93723  33.575  18.738  18.537 -0.1717 -0.1909 -0.0294
50786W        W93724  34.439  22.104  17.828 -0.1700 -0.0886 -0.2286
50787W        W93725  31.215  19.265  15.902  0.0625  0.0870  0.0168
50788W        W93726  32.506  19.025  18.165  0.0198 -0.3231 -0.0208
50789W        W93727  33.054  19.275  18.202  0.1386  0.1289  0.1998
50790W        W93728   0.190  21.394  17.271 -0.0820  0.0767 -0.0808
50791W        W93729  34.622  20.546  19.155 -0.1154 -0.2382  0.3272
50792W        W93730  32.136  20.997  18.088  0.1653  0.1393  0.1157
50793W        W93731  32.745  21.681  17.801 -0.1097  0.4329 -0.0475
50794W        W93732  33.613  19.773  16.825 -0.0539 -0.1845  0.4634
50795W        W93733  33.929  21.627  19.109 -0.0344 -0.0029 -0.3013
50796W        W93734  33.166  21.871  16.744  0.1416 -0.0175 -0.0153
50797W        W93735  32.667  21.932  20.090  0.2363  0.1427  0.1017
50798W        W93736  34.357  20.905  17.245  0.3289  0.0015  0.1447
50799W        W93737  33.694  20.018  18.868 -0.2114  0.2128 -0.0356
50800W        W93738  34.312  20.465  21.541 -0.0572  0.2030  0.0879
50801W        W93739  32.850  20.683  18.915  0.3309 -0.1047 -0.0688
50802W        W93740  33.750  21.575  16.217 -0.1255  0.0118  0.0638
50803W        W93741  33.760  18.904  16.174 -0.2449 -0.2291  0.1802
50804W        W93742  33.867  17.134  17.956  0.3266  0.2024 -0.1110
50805W        W93743  32.128  19.988  17.260  0.0133 -0.2117 -0.1187
50806W        W93744  32.639  17.788  19.753  0.0447 -0.1658 -0.0638
50807W        W93745  32.178  23.101  19.051 -0.3581 -0.1078 -0.0506
50808W        W93746  33.060  18.465  18.575  0.2850 -0.4519  0.0999
50809W        W93747  31.432  19.533  17.525 -0.0127  0.1436 -0.2354
50810W        W93748  31.431  19.290  20.289 -0.0708 -0.4094 -0.0207
50811W        W93749  32.091  19.508  17.530  0.0760 -0.0011  0.2112
50812W        W93750  34.282  19.640  16.648 -0.2256 -0.0542  0.1456
50813W        W93751  32.268  21.238  19.215  0.0276 -0.3527 -0.2931
50814W        W93752  32.663  20.651  17.207  0.2623 -0.1333 -0.0685
50815W        W93753  33.941  19.440  15.918 -0.2204  0.2307 -0.0103
50816W        W93754  32.993  21.036  17.332 -0.2147 -0.2431  0.0452
50817W        W93755  33.036  21.981  18.628  0.0580  0.0982  0.0759
50818W        W93756  31.817  19.317  19.827  0.1731  0.1162 -0.1273
50819W        W93757  34.124  20.087  20.008  0.1681  0.0875 -0.2635
50820W        W93758  33.099  19.854  17.055 -0.3674  0.2013  0.1750
50821W        W93759  31.605  20.553  18.633  0.3771 -0.1097 -0.0065
50822W        W93760  33.174  18.660  17.596  0.0666  0.3182  0.1115
50823W        W93761  33.021  18.018  20.024  0.1304 -0.2924  0.1085
50824W        W93762  32.573  21.736  18.274 -0.3014 -0.1440 -0.1630
50825W        W93763  32.745  18.797  19.835 -0.0114 -0.1283 -0.2694
50826W        W93764  32.475  19.261  17.531 -0.0215 -0.3054  0.0026
50827W        W93765  30.431  18.617  18.608  0.1212  0.2051 -0.0924
50828W        W93766  32.804  18.781  19.169 -0.4846 -0.3772  0.1541
50829W        W93767  33.834  18.788  20.652 -0.0579  0.1749 -0.1258
50830W        W93768  31.112  17.672  19.895  0.3924  0.2464  0.0568
50831W        W93769  33.249  18.628  16.066 -0.1310  0.2012 -0.1336
50832W        W93770  33.949  19.977  18.176  0.3199 -0.0228  0.0442
50833W        W93771  32.780  19.544  17.772  0.0605  0.4845 -0.1574
50834W        W93772  33.103  18.969  19.526 -0.1034  0.2750 -0.0326
50835W        W93773  32.712  19.424  16.940 -0.1364 -0.0597 -0.0866
50836W        W93774  33.948  22.271  18.530 -0.0621 -0.0993  0.0654
50837W        W93775  32.773  22.403  18.723 -0.1648 -0.2013 -0.1529
50838W        W93776  32.031  17.454  18.005 -0.1957 -0.3164  0.2955
50839W        W93777  32.513  20.258  19.320  0.2762 -0.3191  0.1077
50840W        W93778  32.792  18.488  16.994  0.3945  0.0286  0.1058
50841W        W93779  32.614  21.196  16.013 -0.2976  0.0879  0.2633
50842W        W93780  31.877  17.801  17.684 -0.2145 -0.2200  0.0271
50843W        W93781   0.633  21.157  17.063  0.1888 -0.0591  0.2106
50844W        W93782  31.886  20.066  18.603  0.1754  0.0040 -0.1367
50845W        W93783  32.236  18.159  17.425  0.2468  0.0293  0.1694
50846W        W93784  32.926  20.695  19.485  0.0889 -0.1169  0.0147
50847W        W93785  32.127  20.192  19.632 -0.1467 -0.2785 -0.1568
50848W        W93786  34.603  21.562  17.886  0.2305 -0.0240  0.0673
50849W        W93787  33.573  20.328  19.313 -0.0005 -0.2840 -0.0946
50850W        W93788  33.858  20.925  18.588  0.1191 -0.0339  0.0389
50851W        W93789  33.857  17.452  17.566 -0.1244  0.2400  0.1881
50852W        W93790   0.229  19.538  16.471 -0.3142 -0.1071 -0.1149
50853W        W93791  32.778  21.495  16.738 -0.0776 -0.2739  0.0389
50854W        W93792  33.448  18.493  20.523 -0.1422  0.2105 -0.0380
50855W        W93793  31.154  20.322  17.175 -0.1184 -0.0038  0.1471
50856W        W93794  32.664  19.142  18.623 -0.1398  0.3254  0.3384
50857W        W93795  34.349  20.947  18.494 -0.1001  0.0816 -0.0216
50858W        W93796  31.757  22.013  20.099 -0.2621 -0.0395 -0.0560
50859W        W93797  34.324  19.221  20.353 -0.1414 -0.2635 -0.0486
50860W        W93798  33.938  21.015  16.929  0.0348 -0.0987  0.0715
50861W        W93799  34.152  21.280  16.463  0.2970 -0.0030 -0.0181
50862W        W93800  33.325  18.400  20.023 -0.0036 -0.1035  0.1672
50863W        W93801  33.109  20.630  18.434 -0.3090  0.3815  0.2245
50864W        W93802  32.750  20.823  17.974  0.1023  0.2029  0.2912
50865W        W93803  33.130  21.448  18.707  0.0955  0.0438 -0.0055
50866W        W93804  32.476  23.922  19.394 -0.0407 -0.3637 -0.1372
50867W        W93805  32.984  19.639  16.166 -0.1385  0.1442  0.1631
50868W        W93806  32.239  18.534  17.057 -0.2233 -0.0429 -0.1536
50869W        W93807  32.480  19.841  19.552 -0.2243  0.2784 -0.0328
50870W        W93808  33.393  20.289  17.495 -0.0919  0.0092  0.0612
50871W        W93809  32.188  23.610  20.275 -0.0496  0.0963 -0.3236
50872W        W93810  32.227  22.287  19.424 -0.0521 -0.1180 -0.1360
50873W        W93811  32.206  19.500  16.959  0.3698  0.1452  0.0375
50874W        W93812   0.965  18.608  17.967 -0.0645 -0.1439 -0.0729
50875W        W93813  32.302  20.814  16.706  0.1259 -0.2236  0.0284
50876W        W93814  32.904  20.044  17.670 -0.2761  0.0044  0.3120
50877W        W93815  33.263  18.636  17.061 -0.0389 -0.0056 -0.0337
50878W        W93816  32.921  20.140  18.668 -0.2340  0.2746  0.0254
50879W        W93817  31.573  21.494  17.177  0.1134 -0.0930 -0.1678
50880W        W93818  32.038  18.159  19.229  0.0741 -0.2398  0.0447
50881W        W93819  32.266  18.541  18.946 -0.3110 -0.0277 -0.0999
50882W        W93820  33.601  18.465  17.934 -0.0039 -0.1686 -0.4438
50883W        W93821  31.858  21.956  20.580 -0.0304 -0.0625  0.1696
50884W        W93822  33.313  20.540  18.010 -0.0492 -0.0719  0.0778
50885W        W93823  30.513  20.936  17.774 -0.1004  0.0691  0.0138
50886W        W93824  33.833  20.875  18.058  0.0337  0.2534 -0.2225
50887W        W93825  33.230  17.603  19.038  0.2002  0.3190  0.1400
50888W        W93826  32.111  20.485  18.476  0.0019 -0.1098  0.0388
50889W        W93827  33.616  20.401  16.737  0.0035  0.0788  0.3259
50890W        W93828  31.768  21.194  18.357 -0.1471  0.2021 -0.1573
50891W        W93829  33.146  20.595  16.442 -0.4073  0.2722 -0.2178
50892W        W93830  32.188  19.263  18.628 -0.0133  0.0069  0.1979
50893W        W93831  32.323  18.984  20.139 -0.0687  0.1020  0.1825
50894W        W93832  33.572  19.745  21.427 -0.1394  0.0392  0.2184
50895W        W93833  32.826  18.982  17.247 -0.1400  0.1066 -0.1507
50896W        W93834  32.258  23.664  18.495  0.0033  0.1961 -0.2068
50897W        W93835  34.376  20.372  16.424  0.1129  0.2463 -0.2243
50898W        W93836  32.241  21.785  19.402 -0.0189  0.2454  0.0587
50899W        W93837  33.624  19.231  16.628  0.0242  0.0009 -0.0006
50900W        W93838  32.300  19.454  17.991  0.0278 -0.0712  0.0997
50901W        W93839  32.451  17.472  20.591 -0.1456 -0.1388 -0.0257
50902W        W93840  33.051  20.594  20.363  0.2336 -0.1028  0.1690
50903W        W93841  33.108  19.967  21.403 -0.5618  0.1735  0.3874
50904W        W93842  32.721  18.211  17.620 -0.0224  0.1261 -0.0162
50905W        W93843  32.999  18.593  16.519 -0.1877  0.0967 -0.2525
50906W        W93844   0.857  22.635  16.863  0.2262  0.2178 -0.3331
50907W        W93845  32.325  19.940  17.794  0.1412  0.2599  0.1092
50908W        W93846  32.627  21.414  18.805 -0.1865 -0.1959  0.2332
50909W        W93847  32.493  19.538  16.488 -0.1372 -0.0288  0.0323
50910W        W93848  34.022  19.151  17.348  0.0009  0.0045  0.1479
50911W        W93849   0.057  20.303  20.668 -0.2970  0.1063  0.0577
50912W        W93850   0.617  18.674  17.057 -0.4669 -0.0480  0.0098
50913W        W93851  33.421  21.706  17.234 -0.3888  0.2592 -0.1041
50914W        W93852  34.197  21.553  19.906  0.2419  0.1354  0.0175
50915W        W93853  32.529  21.081  19.743 -0.1730  0.0286 -0.2067
50916W        W93854  33.548  21.755  17.912  0.1111 -0.0943  0.0020
50917W        W93855  32.569  19.819  18.765 -0.2629  0.1901  0.2369
50918W        W93856  33.451  21.035  18.337  0.3138  0.1738 -0.0633
50919W        W93857   0.202  22.001  18.675 -0.0188  0.1679  0.2325
50920W        W93858  33.399  20.868  19.473 -0.0632  0.0670  0.0109
50921W        W93859  33.431  17.794  17.667  0.0396  0.0005  0.0050
50922W        W93860  32.527  22.431  19.858  0.2766 -0.1841 -0.3286
50923W        W93861  32.506  20.798  19.239 -0.2302 -0.3143 -0.0147
50924W        W93862  32.667  20.776  16.368  0.1336  0.1770  0.0072
50925W        W93863  34.205  19.741  17.207 -0.1927 -0.0474 -0.0167
50926W        W93864  32.977  20.587  17.579 -0.0689  0.1363 -0.0045
50927W        W93865  33.307  20.323  15.936  0.1318  0.1261  0.1407
50928W        W93866  33.521  22.723  17.732 -0.0339 -0.0452 -0.0152
50929W        W93867  31.861  19.615  17.920 -0.0171  0.0424 -0.0383
50930W        W93868  32.489  18.698  17.489 -0.0521  0.0538  0.1373
50931W        W93869  32.186  22.021  19.823  0.3243 -0.1327 -0.0586
50932W        W93870  32.871  22.094  19.649  0.0358 -0.0029 -0.0394
50933W        W93871  32.594  18.935  16.772  0.1569 -0.0826  0.1769
50934W        W93872  33.164  18.987  18.660  0.0701 -0.0615  0.1310
50935W        W93873  34.408  19.212  17.059 -0.0016  0.4299 -0.0704
50936W        W93874  33.542  20.787  17.644 -0.1689  0.0320  0.1199
50937W        W93875  33.401  20.683  17.117 -0.1318  0.1609  0.2638
50938W        W93876  34.462  22.018  18.384  0.1716  0.4077 -0.3439
50939W        W93877  31.706  16.820  16.934 -0.3118  0.1584 -0.0313
50940W        W93878  32.383  19.023  19.034 -0.0022 -0.2681 -0.0862
50941W        W93879  33.954  19.414  16.931  0.3147  0.2366 -0.1814
50942W        W93880  32.013  20.383  18.996  0.2133 -0.0476 -0.0350
50943W        W93881  33.172  19.524  16.615 -0.0841  0.0393  0.0981
50944W        W93882  31.034  19.048  19.167  0.0295  0.1502 -0.1102
50945W        W93883  33.719  19.612  17.294 -0.1773  0.0965  0.0238
50946W        W93884  33.482  20.054  17.992 -0.1705  0.1191 -0.1967
50947W        W93885  31.869  18.055  20.184  0.0944 -0.1511 -0.0113
50948W        W93886  34.248  21.770  16.300  0.0454 -0.1440 -0.1060
50949W        W93887  32.467  20.331  18.806 -0.3048  0.1051 -0.2379
50950W        W93888  34.465  18.968  17.498  0.3956  0.0065 -0.3178
50951W        W93889  33.580  18.959  17.570 -0.1469  0.0848  0.0654
50952W        W93890  31.765  20.014  17.607 -0.0617  0.1295  0.1362
50953W        W93891  32.952  20.869  16.829 -0.0459  0.1121 -0.1664
50954W        W93892  33.757  19.759  19.764 -0.2423 -0.5324  0.2166
50955W        W93893  32.891  22.024  19.170 -0.1569  0.0144 -0.0126
50956W        W93894  33.840  19.649  16.390  0.2050  0.3268 -0.1954
50957W        W93895  33.269  20.516  20.799 -0.0547  0.0885 -0.2839
50958W        W93896  33.580  19.592  18.146 -0.1773  0.4246 -0.0054
50959W        W93897  33.932  21.446  17.246 -0.0268 -0.0802 -0.0546
50960W        W93898  34.202  19.210  17.844  0.0095 -0.1271  0.0810
50961W        W93899  33.010  18.408  19.590  0.3692 -0.0128  0.0842
50962W        W93900  34.143  20.445  18.376 -0.0537 -0.1822 -0.1992
50963W        W93901  33.058  20.342  16.897  0.0072 -0.1021  0.0239
50964W        W93902  32.874  21.132  15.572 -0.0912  0.1579 -0.0452
50965W        W93903  32.857  21.056  18.598 -0.0789  0.2251  0.0762
50966W        W93904  33.333  19.307  21.427  0.2288 -0.0891 -0.0926
50967W        W93905  32.005  19.693  19.496 -0.3531 -0.1256 -0.0197
50968W        W93906  32.645  19.585  18.330  0.2097 -0.0708  0.0611
50969W        W93907  33.708  18.926  17.007 -0.1224 -0.0627 -0.1972
50970W        W93908  33.927  17.731  20.026  0.0342  0.1246 -0.0342
50971W        W93909  31.795  18.808  19.777 -0.0033 -0.4041 -0.1431
50972W        W93910  34.120  18.329  17.495  0.1440  0.0023  0.1725
50973W        W93911  33.481  20.991  16.654 -0.3123  0.1459  0.1716
50974W        W93912  34.370  18.985  19.561 -0.2580 -0.0982  0.1034
50975W        W93913  33.048  19.160  20.974 -0.4819 -0.4100  0.1584
50976W        W93914  33.259  18.103  16.313 -0.1363 -0.1547  0.2365
50977W        W93915  33.065  19.804  18.217 -0.1081 -0.1026 -0.0619
50978W        W93916  33.669  21.347  18.789 -0.0268  0.0806  0.3546
50979W        W93917  33.214  21.754  19.426 -0.0184 -0.0849  0.1342
50980W        W93918  32.871  18.469  20.213  0.0595  0.0007  0.1742
50981W        W93919  34.340  20.753  20.870  0.1261 -0.2167  0.1195
50982W        W93920  32.911  19.637  20.460  0.1187  0.1652 -0.0634
50983W        W93921  34.179  20.681  18.865  0.0342  0.0022  0.3343
50984W        W93922  34.059  18.681  17.808  0.2578  0.1642 -0.0778
50985W        W93923  31.836  21.052  18.926  0.0833  0.4239 -0.1132
50986W        W93924  34.564  19.617  18.009 -0.1119 -0.3439 -0.0387
50987W        W93925  33.145  20.061  20.433  0.1090 -0.2911  0.1807
50988W        W93926  33.205  18.754  18.138 -0.3356 -0.0749 -0.2885
50989W        W93927  33.022  21.144  19.244  0.0843 -0.0351  0.1744
50990W        W93928  34.041  19.495  18.235 -0.1521  0.1326 -0.0398
50991W        W93929  32.888  19.043  17.759  0.2041  0.1181  0.0994
50992W        W93930  34.295  20.670  17.752  0.0126 -0.0908  0.2108
50993W        W93931  32.827  19.273  19.107  0.0991  0.0888  0.0479
50994W        W93932  33.234  21.819  20.178 -0.1669 -0.0671  0.0620
50995W        W93933  34.150  20.823  22.798  0.0628  0.0194  0.3643
50996W        W93934  32.775  18.645  20.964 -0.0860  0.1194  0.3318
50997W        W93935  33.428  18.678  21.054  0.2153 -0.1337  0.0156
50998W        W93936  33.804  17.789  23.057 -0.0314  0.0583  0.2975
50999W        W93937  33.255  17.933  22.426 -0.1590  0.1437 -0.3434
51000W        W93938  33.201  22.112  21.120  0.0750  0.2956  0.0225
51001W        W93939  34.277  17.645  22.220 -0.1122 -0.3011 -0.1669
51002W        W93940  32.449  18.158  22.079  0.4729 -0.0750 -0.0203
51003W        W93941  31.668  19.609  20.730  0.2772  0.0751 -0.2156
51004W        W93942  33.479  20.988  22.090 -0.0633 -0.0360 -0.3910
51005W        W93943  33.987  18.002  21.979 -0.0672  0.0447 -0.0292
51006W        W93944  34.437  18.673  23.684 -0.0034 -0.0768  0.1326
51007W        W93945  34.155  21.624  21.342 -0.1975 -0.1765 -0.2217
51008W        W93946  33.293  20.968  18.816 -0.0224  0.2455 -0.0474
51009W        W93947  32.628  19.854  21.783 -0.0191  0.0167  0.0789
51010W        W93948  34.152  19.680  22.481 -0.1589  0.0553 -0.4558
51011W        W93949  32.984  22.318  20.056  0.0098 -0.1367  0.3327
51012W        W93950   1.528  21.457  22.194  0.1873  0.1299 -0.0211
51013W        W93951  32.524  20.537  21.218  0.0103 -0.0803  0.0703
51014W        W93952  31.801  22.969  20.373 -0.3218 -0.0199 -0.0809
51015W        W93953  33.431  21.548  21.438 -0.2711 -0.1256  0.1527
51016W        W93954  33.809  21.631  23.507  0.2432  0.0411 -0.1018
51017W        W93955  32.881  21.559  19.800 -0.0389 -0.3214 -0.3507
51018W        W93956   0.625  21.082  22.706 -0.2069 -0.1238  0.0452
51019W        W93957  33.362  19.624  20.588  0.1545 -0.1536  0.0046
51020W        W93958  34.179  19.837  22.000  0.0343  0.1352 -0.2299
51021W        W93959  34.006  19.430  23.996 -0.1544 -0.3563 -0.0083
51022W        W93960  32.578  22.669  21.791  0.1283  0.2261 -0.1138
51023W        W93961  33.245  21.385  21.011  0.3365 -0.4390  0.0907
51024W        W93962  32.213  18.785  21.257 -0.0919 -0.1433  0.2702
51025W        W93963   0.072  18.215  22.193 -0.1764  0.3197  0.0439
51026W        W93964  33.727  22.448  21.846  0.0589 -0.1951  0.2112
51027W        W93965  32.362  20.375  21.793 -0.0087  0.2068 -0.0855
51028W        W93966  33.189  21.863  21.774  0.2008 -0.0292 -0.1486
51029W        W93967  33.880  18.508  20.235 -0.1922 -0.3334  0.1908
51030W        W93968  34.026  19.402  21.471 -0.0330  0.0545  0.3245
51031W        W93969  32.684  20.315  22.235 -0.1272 -0.1350 -0.0455
51032W        W93970  33.476  21.271  23.744  0.2086 -0.4531  0.0383
51033W        W93971  33.562  19.245  20.939  0.1139 -0.4146  0.0234
51034W        W93972  33.589  19.950  24.812  0.1628 -0.0755 -0.1394
51035W        W93973   0.448  20.475  22.504 -0.0589 -0.3927 -0.1602
51036W        W93974  34.195  17.794  21.445  0.1171  0.1133  0.3364
51037W        W93975  33.180  21.022  20.704 -0.2958 -0.3082  0.1173
51038W        W93976  32.902  21.830  22.488 -0.3187 -0.1228  0.0697
51039W        W93977  34.287  17.713  24.101  0.1852 -0.1813 -0.1345
51040W        W93978   0.868  21.172  23.329  0.2932  0.2109 -0.2449
51041W        W93979  33.780  21.192  21.104  0.1004  0.3185 -0.2020
51042W        W93980  32.971  20.770  22.140  0.0579 -0.0609  0.2075
51043W        W93981  31.849  20.689  22.043 -0.2144 -0.0543 -0.1716
51044W        W93982  32.297  19.540  23.202  0.1152  0.1774 -0.1224
51045W        W93983   0.252  20.860  22.360  0.1330 -0.2060 -0.1453
51046W        W93984  33.608  19.714  22.443 -0.1173  0.5639 -0.0148
51047W        W93985  34.189  22.128  21.323 -0.1555 -0.0193  0.1908
51048W        W93986  33.005  20.485  23.788 -0.3881 -0.2170 -0.1167
51049W        W93987  33.632  19.199  21.817  0.2641 -0.0629  0.0181
51050W        W93988  33.755  18.743  25.775  0.2193 -0.2121  0.1401
51051W        W93989  33.145  18.466  22.447 -0.2163  0.1264 -0.0637
51052W        W93990  34.548  16.995  20.992 -0.0774  0.0124 -0.0840
51053W        W93991   0.744  19.245  21.485  0.0314 -0.2012 -0.3327
51054W        W93992  32.255  20.701  19.682  0.0458 -0.2926  0.2387
51055W        W93993  33.586  18.914  22.321 -0.3632 -0.1321 -0.0338
51056W        W93994  33.691  17.824  21.478 -0.2079  0.0933  0.0022
51057W        W93995  31.604  22.024  21.330 -0.2333  0.1314 -0.0912
51058W        W93996   0.899  21.502  22.946 -0.1475  0.1639  0.1085
51059W        W93997  33.382  18.180  20.965  0.0124  0.0831 -0.1648
51060W        W93998  33.114  21.389  22.769 -0.1602  0.2476 -0.0122
51061W        W93999  32.388  19.989  20.433 -0.3472 -0.0477 -0.1963
51062W        W94000  33.476  22.108  19.782  0.3918 -0.0349 -0.1181
51063W        W94001  33.750  20.569  21.867  0.1731 -0.0555 -0.1979
51064W        W94002  34.049  21.489  20.775 -0.2111 -0.1890 -0.1139
51065W        W94003  32.551  21.553  25.727  0.3395  0.2671 -0.1616
51066W        W94004  32.738  21.193  20.192 -0.1655  0.3995 -0.1554
51067W        W94005  31.929  20.960  23.849 -0.3616  0.1859  0.0285
51068W        W94006  33.117  20.921  23.985 -0.0416  0.0061  0.2790
51069W        W94007   1.072  18.836  21.464 -0.0754 -0.2284  0.1357
51070W        W94008  34.254  20.718  23.361  0.0518  0.0763 -0.0275
51071W        W94009  33.634  21.180  22.707  0.2415  0.1497 -0.0811
51072W        W94010   0.521  17.322  23.720  0.2607 -0.0179  0.2258
51073W        W94011  32.815  19.843  20.042 -0.2029  0.0418 -0.0277
51074W        W94012  31.666  22.401  20.460  0.0328  0.0089  0.0529
51075W        W94013  34.578  17.224  22.352  0.1001  0.1400  0.0212
51076W        W94014  32.913  19.329  20.033  0.1761 -0.3506  0.2515
51077W        W94015  33.852  19.292  22.539 -0.0493  0.2671 -0.2773
51078W        W94016  33.335  19.561  24.521  0.0517  0.5464  0.3370
51079W        W94017  32.580  20.857  23.990 -0.1375  0.2410  0.0862
51080W        W94018   1.543  20.683  24.568 -0.2667  0.0154 -0.3491
51081W        W94019  33.721  21.838  20.458 -0.2730  0.0990 -0.0439
51082W        W94020  31.889  20.192  20.335  0.0172  0.0849  0.1006
51083W        W94021  34.558  17.916  23.656  0.0183 -0.5996  0.1978
51084W        W94022  34.212  22.309  21.898 -0.3102  0.3832 -0.1953
51085W        W94023  33.030  22.516  20.806 -0.2437 -0.3070  0.1270
51086W        W94024  33.231  21.263  20.239 -0.0979 -0.2971 -0.0212
51087W        W94025  32.414  20.764  22.129 -0.0613  0.0380 -0.2454
51088W        W94026  33.646  18.389  21.613 -0.4898 -0.1893 -0.1578
51089W        W94027  33.135  19.616  21.784  0.1187  0.0665  0.0997
51090W        W94028  33.417  19.208  22.736  0.0797 -0.0049 -0.1136
51091W        W94029  34.666  18.718  22.326  0.3720 -0.1762 -0.1043
51092W        W94030  34.452  22.263  23.084  0.0884  0.2452  0.0735
51093W        W94031   1.212  19.607  23.540  0.1605 -0.1320  0.0283
51094W        W94032  31.802  18.738  21.712  0.1305  0.1931 -0.0210
51095W        W94033  34.424  20.715  22.406 -0.1311  0.0752 -0.1357
51096W        W94034  32.816  21.098  22.519 -0.2207  0.2252 -0.0379
51097W        W94035  32.983  20.121  20.889 -0.3195  0.0343  0.1215
51098W        W94036  32.701  22.200  21.685 -0.2416  0.1967 -0.1896
51099W        W94037  33.938  18.463  23.789  0.1006 -0.3171  0.1839
51100W        W94038  34.695  18.096  23.100  0.2339 -0.1694 -0.3316
51101W        W94039  33.696  19.719  21.934  0.0073  0.0933 -0.1721
51102W        W94040  33.724  18.965  21.364  0.3040 -0.1438 -0.1421
51103W        W94041  33.986  18.801  23.410 -0.1179 -0.0769  0.3363
51104W        W94042  33.750  21.564  23.038  0.0648 -0.0154 -0.5367
51105W        W94043  33.570  20.975  19.963  0.2104 -0.2153 -0.4332
51106W        W94044  31.650  19.623  22.020 -0.1315  0.1653 -0.1045
51107W        W94045  33.794  20.493  20.867  0.2848 -0.3788 -0.1062
51108W        W94046   0.412  17.938  22.510  0.2201  0.2100 -0.0095
51109W        W94047  32.189  19.656  21.757  0.1078 -0.1900 -0.3197
51110W        W94048  33.992  20.542  20.169  0.0096 -0.1531 -0.2865
51111W        W94049  33.353  21.423  23.270  0.1041  0.1167 -0.1592
51112W        W94050  34.595  19.845  22.731  0.0812 -0.0765 -0.0648
51113W        W94051  33.994  17.323  24.077 -0.0488  0.1098  0.0209
51114W        W94052  32.426  20.457  23.147  0.0563 -0.0018 -0.0257
51115W        W94053  32.465  20.389  23.937  0.1551 -0.2660 -0.2543
51116W        W94054  34.015  17.080  20.907  0.1560 -0.2861 -0.1748
51117W        W94055  33.347  20.869  23.058 -0.0809  0.0975 -0.0805
51118W        W94056  33.166  21.213  21.718  0.0068 -0.2730  0.0270
51119W        W94057  32.892  20.339  21.782 -0.1430  0.0901  0.1418
51120W        W94058  33.601  20.745  20.426 -0.3009 -0.4103  0.3072
51121W        W94059  34.664  20.264  22.395 -0.2317 -0.1121 -0.3331
51122W        W94060  33.783  17.201  23.568 -0.2930  0.0742 -0.2357
51123W        W94061  34.047  20.016  24.614  0.1439 -0.0548 -0.5295
51124W        W94062  33.627  16.861  22.969 -0.1402 -0.2782 -0.0250
51125W        W94063  33.808  18.764  21.856 -0.1059 -0.2216  0.2347
51126W        W94064  33.920  17.429  21.235 -0.1480 -0.0854 -0.0948
51127W        W94065  34.194  21.232  20.293  0.0015  0.1823 -0.2795
51128W        W94066  32.617  19.431  22.667 -0.1179  0.0116  0.0689
51129W        W94067  32.448  21.119  23.244  0.1863 -0.0060  0.2746
51130W        W94068  33.683  20.458  18.417  0.1084  0.1482  0.1462
51131W        W94069  33.653  21.026  21.590 -0.1721  0.1804 -0.0223
51132W        W94070   0.327  19.604  21.987 -0.0802  0.1962  0.2065
51133W        W94071  33.971  19.144  19.881 -0.0919 -0.1296 -0.1818
51134W        W94072  32.339  20.208  20.912  0.0235  0.0719 -0.0294
51135W        W94073  33.191  21.366  22.288  0.1693  0.3348  0.1524
51136W        W94074  32.412  21.573  23.035 -0.0160 -0.1437  0.1063
51137W        W94075  32.883  22.121  20.535 -0.0783 -0.1549  0.2749
51138W        W94076   0.656  20.182  23.803 -0.0594  0.2470 -0.0148
51139W        W94077  34.215  20.893  21.827 -0.4720 -0.1981  0.0711
51140W        W94078  33.618  22.146  21.485 -0.2970 -0.0477  0.3019
51141W        W94079  33.904  20.360  23.201  0.1065 -0.1068 -0.1494
51142W        W94080  32.893  17.700  21.969 -0.2425  0.2039  0.0469
51143W        W94081  32.136  20.679  24.209  0.0952 -0.0106  0.0605
51144W        W94082  33.064  20.469  22.875 -0.3429  0.0084  0.1644
51145W        W94083  32.719  22.960  21.382  0.1934  0.0772 -0.1818
51146W        W94084  33.742  18.199  19.814 -0.0360 -0.0648 -0.2652
51147W        W94085   0.131  22.549  22.219  0.1552  0.2075  0.2043
51148W        W94086  33.982  21.329  21.791 -0.1562  0.4639 -0.0732
51149W        W94087  33.047  21.085  19.733 -0.0599 -0.1731  0.1306
51150W        W94088  34.583  18.339  22.704  0.0734  0.0050 -0.1323
51151W        W94089  33.527  20.241  21.289  0.0089 -0.0104  0.2643
51152W        W94090  33.646  19.891  23.380  0.0288  0.2671 -0.2194
51153W        W94091  32.746  20.655  23.432  0.1097  0.2433 -0.2142
51154W        W94092  32.701  18.703  21.893  0.0013 -0.0128  0.1557
51155W        W94093   0.293  19.519  22.580  0.0615 -0.4707  0.0796
51156W        W94094  32.993  20.219  19.206 -0.1359 -0.1219  0.0868
51157W        W94095  33.528  22.481  20.864 -0.2230  0.0652 -0.1173
51158W        W94096  33.442  21.918  22.241 -0.0327  0.1095  0.2366
51159W        W94097  34.175  22.914  21.806 -0.2605 -0.0161 -0.0504
51160W        W94098  33.973  17.495  21.752  0.0849  0.0858 -0.1626
51161W        W94099  31.682  19.920  23.047 -0.0451 -0.1426 -0.1525
51162W        W94100  34.098  19.317  22.020 -0.1782  0.1229  0.1495
51163W        W94101  33.878  20.159  22.308 -0.3496 -0.1198  0.2785
51164W        W94102  33.483  18.626  19.476 -0.1336  0.0146  0.0041
51165W        W94103  33.526  18.370  22.145  0.0542  0.1689 -0.2025
51166W        W94104  34.232  20.403  22.040 -0.0113 -0.0434 -0.1377
51167W        W94105   0.320  18.991  22.618 -0.1271 -0.0000  0.0314
51168W        W94106  32.569  17.914  23.209 -0.0046 -0.0481  0.0039
51169W        W94107  32.896  21.522  21.443 -0.2049  0.0319 -0.1555
51170W        W94108  33.337  19.398  22.189 -0.0204 -0.2574 -0.1989
51171W        W94109   0.169  17.966  20.904  0.3518 -0.2018  0.0268
51172W        W94110  34.124  20.340  22.694 -0.0605  0.1941 -0.0693
51173W        W94111  31.918  22.547  22.507  0.1812  0.1389 -0.3626
51174W        W94112  33.975  21.011  20.688 -0.2595  0.1968  0.0685
51175W        W94113   0.431  21.663  22.799 -0.3390 -0.0729  0.4277
51176W        W94114   0.099  20.913  23.531 -0.2533  0.0158  0.0913
51177W        W94115  31.733  19.911  19.868  0.2939 -0.4517  0.0166
51178W        W94116  33.922  20.547  23.701  0.0370 -0.2807  0.3415
51179W        W94117  34.501  21.170  22.615  0.0483 -0.1045  0.2904
51180W        W94118   0.578  21.697  21.773  0.1511 -0.0462  0.0401
51181W        W94119  34.696  20.561  21.955 -0.1843  0.1079 -0.0075
51182W        W94120  34.611  18.563  21.610  0.0028  0.0483  0.1271
51183W        W94121  34.398  20.007  24.159  0.1787 -0.0348  0.2842
51184W        W94122  31.432  19.819  20.242 -0.1916  0.2156  0.3001
51185W        W94123  32.390  21.496  19.921  0.2391  0.1862  0.5522
51186W        W94124  34.328  21.558  22.174 -0.0918  0.2657 -0.0400
51187W        W94125   0.035  18.642  24.246  0.0424 -0.0259 -0.4482
51188W        W94126  33.531  18.254  22.758  0.1539 -0.4764 -0.1282
51189W        W94127  33.230  20.683  21.636 -0.0686  0.0704 -0.2867
51190W        W94128  34.610  18.023  21.384  0.2699  0.2447  0.1115
51191W        W94129  32.911  18.744  22.854 -0.0750 -0.0571 -0.1418
51192W        W94130  32.426  18.264  22.774 -0.1221  0.0697  0.2571
51193W        W94131  33.735  20.000  22.867 -0.2103  0.2640 -0.4556
51194W        W94132  32.756  20.256  19.745  0.0817  0.1132  0.0841
51195W        W94133  34.178  19.832  22.978  0.2600  0.0110  0.1906
51196W        W94134   0.786  19.256  24.544  0.0763  0.0017 -0.0968
51197W        W94135  32.499  19.122  21.054 -0.2418 -0.0488  0.0250
51198W        W94136   0.144  18.644  23.013  0.1760 -0.0834 -0.0589
51199W        W94137  33.798  21.664  22.540 -0.0852  0.1376 -0.0034
51200W        W94138   0.600  21.171  24.272 -0.0160  0.1303 -0.2718
51201W        W94139  31.791  17.800  22.555 -0.0171 -0.2305  0.1699
51202W        W94140  34.197  21.693  23.806  0.2416  0.0493  0.1969
51203W        W94141  33.665  19.451  23.580 -0.1120  0.0207 -0.0087
51204W        W94142  34.344  19.498  24.355  0.0810 -0.0421 -0.1590
51205W        W94143  33.188  18.434  23.192  0.0375 -0.1632 -0.1602
51206W        W94144  33.045  18.929  22.399 -0.2086  0.0085  0.2968
51207W        W94145  34.089  19.081  20.971  0.0906  0.2827 -0.0799
51208W        W94146  34.540  20.480  23.972 -0.0142 -0.1483  0.2663
51209W        W94147  33.364  19.352  19.193  0.0005 -0.2829 -0.2802
51210W        W94148  34.645  21.647  23.621 -0.0425 -0.0521 -0.0875
51211W        W94149  33.979  17.240  23.107 -0.0168 -0.1844 -0.0584
51212W        W94150  33.434  20.142  21.794 -0.2037 -0.0399 -0.1991
51213W        W94151  32.741  20.670  20.795 -0.0784  0.2390  0.0286
51214W        W94152  33.339  17.967  21.788  0.0726  0.2104  0.0205
51215W        W94153  34.190  22.842  22.711 -0.0810  0.0378 -0.1860
51216W        W94154  34.642  20.552  26.213 -0.0835 -0.1268  0.2729
51217W        W94155  33.719  19.348  25.130 -0.1517 -0.1331 -0.0493
51218W        W94156  32.895  18.351  24.718 -0.0311 -0.3044 -0.1218
51219W        W94157  33.017  18.236  26.910  0.1076 -0.2968  0.1481
51220W        W94158   0.439  20.674  26.648 -0.0183 -0.1427 -0.3366
51221W        W94159  33.166  22.148  25.245  0.0292  0.2878 -0.0985
51222W        W94160   0.236  18.211  25.770  0.1789 -0.1185 -0.2461
51223W        W94161  33.186  18.548  27.424 -0.1330  0.2411  0.1488
51224W        W94162  33.694  20.493  26.125 -0.0766 -0.0058 -0.2879
51225W        W94163  33.655  18.712  25.285 -0.2062 -0.0831 -0.0346
51226W        W94164  34.661  19.436  24.843 -0.2129  0.2184  0.0962
51227W        W94165  34.565  17.855  26.489  0.1759 -0.0524 -0.2281
51228W        W94166   0.961  20.758  22.484  0.1655 -0.2236 -0.2286
51229W        W94167  33.212  19.220  23.688 -0.0701 -0.1720  0.1243
51230W        W94168  32.018  20.298  25.847 -0.1053 -0.0026 -0.1549
51231W        W94169  34.099  19.590  26.384 -0.2167 -0.1441 -0.0487
51232W        W94170   0.144  21.321  25.937  0.0895  0.1849 -0.0047
51233W        W94171  34.426  20.997  26.307 -0.0706 -0.3576 -0.1292
51234W        W94172  33.658  20.855  25.494  0.0960 -0.1624 -0.0430
51235W        W94173  31.372  22.017  24.979 -0.1594 -0.1557 -0.2284
51236W        W94174  34.350  20.524  25.537 -0.0040 -0.0865 -0.1326
51237W        W94175  34.350  22.644  27.036 -0.1414  0.1473 -0.0239
51238W        W94176  34.455  20.331  23.071  0.0658  0.0919  0.0453
51239W        W94177  33.466  21.266  27.366  0.1195  0.1467  0.2943
51240W        W94178   0.006  21.155  24.538  0.2805  0.0544 -0.1469
51241W        W94179   0.224  20.981  26.349  0.0499 -0.0486  0.0619
51242W        W94180  33.038  22.104  27.901  0.1036  0.1032  0.0144
51243W        W94181  33.857  21.362  27.049  0.2291  0.0232  0.2888
51244W        W94182   0.134  20.583  24.391 -0.0057 -0.0607 -0.1696
51245W        W94183   0.209  20.203  24.133  0.1506 -0.2354  0.0635
51246W        W94184   0.481  18.585  25.538  0.0645  0.0114 -0.0892
51247W        W94185   0.011  23.260  26.532 -0.3218 -0.2583 -0.0431
51248W        W94186  34.134  21.007  25.534  0.1862  0.1229  0.1061
51249W        W94187   0.147  22.749  26.335 -0.0520  0.0379  0.0316
51250W        W94188  32.442  20.013  25.655 -0.0417 -0.1865  0.1777
51251W        W94189  33.150  19.867  25.026 -0.0155  0.0946 -0.1594
51252W        W94190  33.282  20.618  28.074 -0.0573 -0.0705 -0.1530
51253W        W94191  33.067  19.510  26.819 -0.0070 -0.1279 -0.0550
51254W        W94192  33.870  19.028  24.346  0.0463 -0.1691  0.1109
51255W        W94193  32.409  20.453  27.870 -0.2724  0.0131 -0.1468
51256W        W94194  34.138  20.706  25.906 -0.1485 -0.0175  0.0080
51257W        W94195  34.288  19.226  23.654  0.1752 -0.2127 -0.0938
51258W        W94196  34.552  20.049  25.571  0.4633 -0.0930  0.1086
51259W        W94197  33.724  22.066  25.150  0.1204  0.0081 -0.0009
51260W        W94198  32.869  19.848  26.055  0.5587  0.5104 -0.1632
51261W        W94199  34.285  20.645  27.541  0.2879 -0.1268  0.0143
51262W        W94200  34.179  21.818  23.168  0.4807 -0.5837 -0.0792
51263W        W94201  32.324  20.381  25.318  0.2660  0.2368  0.3424
51264W        W94202  33.523  20.877  24.894  0.2021  0.1696  0.2605
51265W        W94203  32.337  19.128  26.101 -0.0528  0.0852 -0.2093
51266W        W94204  34.077  19.758  25.510 -0.2166 -0.2997  0.0505
51267W        W94205  31.733  18.623  26.818  0.1001  0.1557  0.1343
51268W        W94206  33.933  20.973  24.601 -0.0418  0.1810 -0.0705
51269W        W94207  31.669  21.145  25.630 -0.2489  0.0428  0.0733
51270W        W94208  33.280  19.284  25.370  0.0867  0.0527  0.1123
51271W        W94209  32.210  18.575  26.254 -0.0661  0.1427  0.3380
51272W        W94210  32.507  17.831  26.175 -0.0189  0.4086 -0.2548
51273W        W94211  33.906  17.709  23.654  0.1003  0.1124 -0.2397
51274W        W94212  33.536  20.426  24.007  0.1846 -0.0512  0.0132
51275W        W94213  33.275  21.671  25.735  0.1687  0.1181 -0.0221
51276W        W94214  33.430  19.322  25.895 -0.1208 -0.1581 -0.2202
51277W        W94215  33.040  20.498  24.323  0.2612 -0.2783 -0.0166
51278W        W94216  31.778  22.040  25.406 -0.0745 -0.1412  0.0579
51279W        W94217  33.662  21.354  25.621 -0.3465 -0.0715 -0.0574
51280W        W94218  32.934  19.472  24.770 -0.0216  0.0405  0.0699
51281W        W94219  32.770  21.448  27.927  0.1634 -0.1532 -0.1965
51282W        W94220  33.444  19.015  23.263  0.2863 -0.0264  0.1561
51283W        W94221  34.025  20.678  25.137 -0.0120 -0.0655 -0.2388
51284W        W94222  32.907  21.138  24.982  0.0438 -0.0016  0.1339
51285W        W94223   0.795  21.699  25.135  0.0096 -0.1623  0.1191
51286W        W94224  32.006  20.454  27.210  0.0020  0.1759  0.0208
51287W        W94225  34.152  21.746  24.977  0.1143 -0.0985  0.2055
51288W        W94226  33.917  21.695  28.488 -0.0968 -0.2855 -0.0994
51289W        W94227  33.371  20.760  27.586  0.1493 -0.3496 -0.0062
51290W        W94228  33.901  20.491  24.711 -0.3721  0.2748  0.1378
51291W        W94229   0.225  20.123  24.613  0.0034  0.1849  0.1408
51292W        W94230  33.459  21.726  27.623 -0.1384  0.2039 -0.1150
51293W        W94231   0.920  17.230  26.308 -0.1163 -0.0148 -0.1949
51294W        W94232  34.356  19.015  24.100 -0.0165 -0.1249  0.1461
51295W        W94233  31.219  22.389  24.681  0.2310  0.1388 -0.4041
51296W        W94234   0.054  17.488  26.783 -0.0239  0.2049 -0.2092
51297W        W94235  33.454  20.423  25.231 -0.0486  0.1409 -0.2698
51298W        W94236   0.687  17.880  27.299  0.0167  0.2381 -0.1098
51299W        W94237  33.668  19.726  26.693  0.2890 -0.1697  0.1995
51300W        W94238  33.816  22.186  26.236 -0.1157 -0.1220 -0.2770
51301W        W94239  34.466  19.564  27.778  0.4965 -0.0620 -0.0095
51302W        W94240  34.278  21.352  25.899 -0.1609  0.0570  0.3025
51303W        W94241  34.377  20.894  24.899 -0.0656  0.4537 -0.2414
51304W        W94242  33.402  18.886  26.061  0.1147  0.1093  0.1896
51305W        W94243   1.213  20.758  24.987  0.2556  0.0035  0.1324
51306W        W94244  33.688  19.464  23.030  0.0329 -0.0520  0.0047
51307W        W94245  34.326  20.936  23.795  0.0531  0.4078 -0.0045
51308W        W94246  32.200  22.273  25.236  0.1828  0.0613 -0.0886
51309W        W94247  33.822  19.754  24.293  0.1772  0.0628  0.1302
51310W        W94248  33.519  20.086  25.860  0.1266 -0.1857 -0.2020
51311W        W94249  32.866  19.504  27.298 -0.3790  0.2770 -0.2086
51312W        W94250   0.102  18.802  26.534  0.1120 -0.0433 -0.4464
51313W        W94251  32.856  23.224  26.202 -0.0145 -0.0201  0.0530
51314W        W94252  34.074  20.211  27.897  0.2726  0.0685  0.0341
51315W        W94253  34.031  21.119  22.365 -0.1677 -0.0927  0.3378
51316W        W94254   0.643  19.523  25.029 -0.0956  0.1116  0.1767
51317W        W94255  32.447  22.252  25.978 -0.0069  0.1443  0.1218
51318W        W94256  33.860  18.932  24.827  0.0567  0.1784  0.3119
51319W        W94257  33.291  20.088  23.808 -0.1526 -0.0753 -0.0443
51320W        W94258  33.577  19.860  25.386  0.0570  0.1261  0.1886
51321W        W94259  33.099  19.294  26.256  0.2468 -0.1079 -0.2320
51322W        W94260  33.022  20.078  24.581  0.1250  0.3846  0.0014
51323W        W94261   1.010  17.539  27.176  0.1168 -0.1576  0.0493
51324W        W94262  34.135  20.173  25.919  0.0053 -0.0631  0.0153
51325W        W94263  33.356  21.494  28.955  0.6065  0.0269  0.0726
51326W        W94264   0.669  19.349  23.598  0.1217  0.1738  0.2346
51327W        W94265  32.698  22.914  25.819  0.1530 -0.3518 -0.0639
51328W        W94266  34.576  20.916  25.809  0.0903 -0.1544 -0.0760
51329W        W94267   0.288  17.987  26.920  0.1105  0.3798  0.2878
51330W        W94268  33.221  20.627  26.686  0.2674 -0.0068 -0.2010
51331W        W94269   0.689  20.184  24.344 -0.1863 -0.0520 -0.1757
51332W        W94270  33.612  22.564  25.953  0.1731  0.0425  0.1683
51333W        W94271  34.527  19.822  25.173 -0.1227  0.0652  0.1444
51334W        W94272  34.093  18.203  25.989  0.0396 -0.0569  0.4276
51335W        W94273  32.466  19.062  28.040  0.0497 -0.0775  0.0803
51336W        W94274  33.109  19.672  27.716 -0.0134 -0.3114  0.0605
51337W        W94275  34.222  18.922  25.715 -0.1769 -0.0080 -0.0311
51338W        W94276  33.993  21.418  26.327 -0.1983 -0.0219  0.0725
51339W        W94277   0.571  22.066  24.750 -0.0937 -0.0141  0.3750
51340W        W94278  33.080  21.214  26.612 -0.1624 -0.0813  0.2535
51341W        W94279   0.296  20.532  23.747  0.0613  0.0319  0.1433
51342W        W94280   0.128  21.510  26.394  0.1582 -0.5356 -0.1810
51343W        W94281  32.647  19.464  26.376 -0.2297  0.2612 -0.1655
51344W        W94282  33.001  19.876  26.512  0.0066  0.2712  0.0674
51345W        W94283  32.776  18.900  26.130  0.1089  0.2686 -0.3659
51346W        W94284  32.669  18.292  26.322 -0.1200 -0.4070  0.0109
51347W        W94285  32.727  19.260  25.277 -0.0131 -0.2708 -0.2462
51348W        W94286   0.015  20.622  22.776  0.0669  0.0850 -0.4174
51349W        W94287  32.638  18.645  25.280 -0.1806 -0.1224 -0.1659
51350W        W94288  34.130  21.039  29.186 -0.0803  0.1590  0.1327
51351W        W94289  34.300  20.189  23.539  0.1001 -0.4995  0.0766
51352W        W94290  34.544  18.977  23.282 -0.3521  0.1523 -0.0309
51353W        W94291   1.350  21.478  26.829  0.1439 -0.5351  0.0102
51354W        W94292   0.222  18.419  23.459 -0.0867  0.3342 -0.1061
51355W        W94293  32.479  21.179  24.776 -0.0658  0.0064  0.1570
51356W        W94294  33.318  22.237  24.124  0.1117  0.2552 -0.1336
51357W        W94295  32.218  20.006  27.113 -0.2901  0.1529  0.0906
51358W        W94296  34.006  20.385  24.201 -0.1354 -0.0464  0.3426
51359W        W94297   0.934  19.856  25.250  0.0090 -0.2109 -0.1671
51360W        W94298  33.060  19.757  25.591  0.0891 -0.1032 -0.0141
51361W        W94299  32.609  21.975  25.342 -0.2694 -0.4148 -0.3924
51362W        W94300  32.741  19.906  27.011  0.2065  0.2495 -0.2419
51363W        W94301  33.816  19.418  24.696  0.3330 -0.0601 -0.0619
51364W        W94302  34.358  22.361  26.089 -0.0296  0.2905 -0.2481
51365W        W94303  32.433  20.148  26.195  0.0091  0.0857 -0.3460
51366W        W94304  34.239  21.330  24.613 -0.3210 -0.1484 -0.0868
51367W        W94305  33.895  20.174  25.118 -0.0006  0.2420  0.0041
51368W        W94306   0.209  20.979  24.017 -0.1183 -0.0161 -0.2345
51369W        W94307  33.034  21.066  23.494  0.0511 -0.0580 -0.2813
51370W        W94308  33.746  22.105  23.404  0.1119  0.0050 -0.3071
51371W        W94309   0.835  19.659  27.049 -0.0098  0.1937 -0.0312
51372W        W94310   0.562  19.746  24.040 -0.0629  0.1139 -0.0415
51373W        W94311  34.110  21.038  26.682 -0.1190  0.0063  0.1839
51374W        W94312  33.744  22.444  28.203  0.0765  0.0769  0.0910
51375W        W94313  33.011  19.217  24.278  0.0735 -0.1812  0.0219
51376W        W94314  33.842  20.393  25.574  0.0734 -0.0938  0.2406
51377W        W94315  33.771  20.653  22.362 -0.0233 -0.1093  0.0402
51378W        W94316  33.313  21.418  24.856 -0.2565  0.0401 -0.2854
51379W        W94317  33.533  21.743  26.385  0.1142 -0.1767  0.3554
51380W        W94318   0.060  21.808  25.983  0.0680  0.0384  0.2074
51381W        W94319  32.494  19.109  24.509  0.0552 -0.0738 -0.2804
51382W        W94320  34.098  20.055  26.792 -0.2244 -0.3599 -0.0489
51383W        W94321  34.416  20.324  25.035 -0.1063 -0.0025 -0.3195
51384W        W94322  32.245  18.099  26.471  0.2515  0.0354 -0.0148
51385W        W94323   0.655  20.136  24.927  0.0609 -0.0827 -0.0195
51386W        W94324  33.051  18.920  25.562  0.1419 -0.1384  0.3463
51387W        W94325  33.741  21.653  24.705  0.3150 -0.3143 -0.0550
51388W        W94326  33.693  20.875  27.002 -0.1927  0.0424 -0.0850
51389W        W94327  32.120  16.889  25.666 -0.0819  0.1820 -0.1611
51390W        W94328  33.496  20.794  24.384  0.0882  0.3356  0.0379
51391W        W94329  32.439  18.479  26.770  0.0517  0.1343 -0.1364
51392W        W94330  34.380  19.397  25.567  0.2429 -0.1049 -0.0504
51393W        W94331  34.149  20.580  26.389  0.1232 -0.3960  0.1424
51394W        W94332  33.307  21.166  25.329  0.3793 -0.0624 -0.3302
51395W        W94333  33.633  21.305  24.374 -0.1911 -0.2746 -0.2753
51396W        W94334  34.066  21.641  25.441 -0.1525  0.2561 -0.1497
51397W        W94335  33.935  22.220  28.642  0.1293 -0.2415 -0.0371
51398W        W94336  32.165  19.775  25.258  0.1222  0.2175 -0.1907
51399W        W94337   0.494  21.835  25.603 -0.1961  0.0014 -0.1028
51400W        W94338   0.432  21.143  24.940 -0.0847  0.1264  0.1039
51401W        W94339  33.821  20.055  23.838 -0.3750  0.2077  0.1124
51402W        W94340   1.471  21.574  24.539  0.0250  0.0733  0.0445
51403W        W94341  34.504  19.872  24.694  0.1784 -0.2505 -0.1756
51404W        W94342  33.741  20.502  26.662  0.0264 -0.1047 -0.2739
51405W        W94343  32.703  20.466  25.911 -0.0930 -0.0013  0.1226
51406W        W94344   0.080  20.611  24.878  0.0270 -0.1837  0.0801
51407W        W94345  33.466  20.916  26.366 -0.3588  0.0849  0.1859
51408W        W94346  33.184  17.583  28.858 -0.0453 -0.1360  0.0044
51409W        W94347  32.261  20.894  26.999  0.1613  0.1297  0.4151
51410W        W94348  33.464  20.020  24.308  0.1443 -0.1470  0.1131
51411W        W94349   0.121  19.611  24.201  0.1735  0.2401 -0.1539
51412W        W94350  33.162  18.393  25.452  0.2023 -0.0279  0.2250
51413W        W94351  34.602  19.145  26.021 -0.1242  0.0498  0.3339
51414W        W94352  34.316  19.086  24.621 -0.0394 -0.0458 -0.2084
51415W        W94353  33.033  20.638  24.916  0.1363 -0.0491 -0.2903
51416W        W94354  34.232  20.231  27.278 -0.1136 -0.0469  0.2392
51417W        W94355  33.885  20.057  26.344 -0.0786  0.0934  0.2434
51418W        W94356  33.081  19.655  22.625 -0.0523 -0.1371 -0.1974
51419W        W94357  34.554  19.808  27.297 -0.0963  0.1133  0.1030
51420W        W94358  33.323  22.141  26.172 -0.0914  0.1128  0.0659
51421W        W94359  34.316  22.078  26.967  0.1338 -0.2327 -0.1393
51422W        W94360  32.506  18.631  27.511 -0.0728  0.1220  0.0416
51423W        W94361   0.015  20.409  27.261 -0.0656  0.3064  0.1015
51424W        W94362  32.154  17.445  27.139 -0.0227 -0.0705 -0.0527
51425W        W94363  33.533  22.106  25.668  0.1448 -0.1435 -0.1657
51426W        W94364  33.298  17.633  26.585 -0.4523 -0.0268  0.1114
51427W        W94365  33.368  20.146  26.701 -0.0193 -0.0983  0.1657
51428W        W94366  34.576  18.312  24.714 -0.2346 -0.0926 -0.3853
51429W        W94367  34.150  20.593  26.915 -0.3568 -0.0123  0.0818
51430W        W94368  34.137  19.670  24.975 -0.0947 -0.0946  0.2645
51431W        W94369  33.763  20.412  27.531 -0.3706  0.0663 -0.4994
51432W        W94370  33.731  17.581  26.841  0.1651  0.1704 -0.0262
51433W        W94371  33.389  20.389  24.649  0.0776  0.1763 -0.0241
51434W        W94372  33.522  20.822  23.614 -0.1187  0.0829  0.1794
51435W        W94373  33.906  19.117  26.095 -0.2090  0.1186 -0.2731
51436W        W94374  34.216  21.837  26.124 -0.2714 -0.2057  0.1962
51437W        W94375   0.244  21.534  29.292  0.0291 -0.1928 -0.1477
51438W        W94376  32.771  20.351  26.529 -0.0127 -0.2151  0.0988
51439W        W94377  32.321  18.493  28.090  0.1042  0.1000  0.0288
51440W        W94378  34.604  17.967  29.963  0.1608 -0.0686 -0.1763
51441W        W94379  33.710  19.607  28.881 -0.1317 -0.0037  0.0291
51442W        W94380  34.135  21.696   0.398 -0.0212 -0.2802 -0.0654
51443W        W94381   0.460  19.348  27.197  0.1489 -0.1634 -0.1701
51444W        W94382  33.761  18.534  30.853  0.3446 -0.3325 -0.0726
51445W        W94383  33.916  19.771  29.357  0.2185  0.1235  0.0470
51446W        W94384  33.525  17.014  29.557  0.1962 -0.0737 -0.1282
51447W        W94385   0.314  20.128  28.135 -0.4016  0.0561  0.0849
51448W        W94386  33.409  18.448  31.586 -0.1348  0.1606 -0.2908
51449W        W94387  34.015  20.665  28.839 -0.0429 -0.0637 -0.1420
51450W        W94388  33.219  19.896  27.133 -0.2342  0.2549  0.1164
51451W        W94389  32.471  19.925  29.204  0.4573  0.0256 -0.0314
51452W        W94390  33.169  20.947  29.083  0.2655 -0.0230  0.2941
51453W        W94391  33.233  21.001  29.888 -0.2311  0.1237  0.2191
51454W        W94392   1.936  19.529  28.370 -0.0718  0.3338 -0.0443
51455W        W94393  34.267  21.209  29.716 -0.0126 -0.0268 -0.1098
51456W        W94394  32.429  24.182  29.738  0.0437  0.1238 -0.1295
51457W        W94395   0.022  21.151  29.618  0.0104 -0.2312 -0.0962
51458W        W94396  33.256  21.795  31.461  0.2267  0.2520 -0.3158
51459W        W94397  32.547  21.187  28.345  0.0653  0.1229 -0.0896
51460W        W94398   0.318  18.943  31.743 -0.1107  0.2110  0.0590
51461W        W94399   1.560  20.462  28.341  0.2422  0.0375 -0.1866
51462W        W94400   0.258  20.351  29.414 -0.0795  0.0100 -0.0888
51463W        W94401  33.589  20.423  31.074 -0.1644  0.0947  0.1232
51464W        W94402  34.103  21.639  29.956  0.0651 -0.0441 -0.1193
51465W        W94403  33.506  21.910  28.731  0.0581 -0.0504 -0.0157
51466W        W94404  33.835  19.619  25.916  0.1906 -0.1705 -0.0083
51467W        W94405   0.868  19.280  29.453  0.0087  0.0877 -0.1798
51468W        W94406   0.675  21.721  29.527 -0.1849 -0.3717 -0.4195
51469W        W94407  34.176  19.446  28.671 -0.1284 -0.1076 -0.1167
51470W        W94408  32.314  22.575   0.045  0.1591  0.3539  0.0153
51471W        W94409  32.766  20.110  28.764  0.0057 -0.0377 -0.0060
51472W        W94410  33.118  19.414  29.048  0.0861 -0.1678 -0.2164
51473W        W94411  33.187  20.549  29.432  0.1661  0.0025  0.0039
51474W        W94412  33.113  20.098  30.458 -0.3479 -0.1792  0.1011
51475W        W94413  33.091  18.532  26.482 -0.2475 -0.0698 -0.1400
51476W        W94414  32.995  22.928  31.278  0.0494  0.2579 -0.0549
51477W        W94415   0.197  19.955  29.811 -0.3633 -0.2450  0.3397
51478W        W94416   0.440  20.825  29.313 -0.0336 -0.0805 -0.0526
51479W        W94417  33.900  20.969  27.449 -0.3088 -0.0686 -0.2482
51480W        W94418  33.843  21.588  31.199  0.0537 -0.0285  0.1113
51481W        W94419  33.881  18.329  29.474  0.1450 -0.3365 -0.2303
51482W        W94420   0.259  21.577  29.805 -0.1566  0.1099 -0.2275
51483W        W94421  34.262  21.750  27.714  0.0413  0.0564  0.2439
51484W        W94422  32.273  20.820  28.225  0.0097  0.1295  0.0020
51485W        W94423  33.277  21.327  29.481 -0.1503 -0.0044  0.1333
51486W        W94424  32.779  19.506  29.919 -0.0284 -0.1206 -0.0563
51487W        W94425  34.403  20.207  29.435 -0.0312 -0.0667 -0.0320
51488W        W94426  32.832  18.726  30.791 -0.0077  0.0354  0.1222
51489W        W94427  34.232  21.344  28.735  0.4763  0.0275  0.1675
51490W        W94428  31.934  20.147  30.594 -0.2095  0.0075  0.1446
51491W        W94429  34.184  19.715  28.229  0.2749 -0.0072  0.0222
51492W        W94430  33.516  18.380  30.429 -0.1539 -0.1661  0.1317
51493W        W94431  34.234  18.194  31.040  0.1183 -0.6593 -0.0477
51494W        W94432  33.556  19.119  28.871 -0.3011 -0.1780  0.2856
51495W        W94433  34.376  20.903  28.561 -0.1693  0.1150  0.1858
51496W        W94434  31.708  20.850  27.524  0.4944  0.1100 -0.0615
51497W        W94435  33.473  18.155  30.864 -0.4039  0.4114  0.1701
51498W        W94436  33.023  21.582  27.280 -0.0176 -0.0298 -0.0774
51499W        W94437  32.849  21.670  31.088 -0.2034  0.0407 -0.1451
51500W        W94438   1.132  21.894  29.398  0.2829 -0.0351 -0.0302
51501W        W94439   0.819  17.949  28.146 -0.0629  0.1627  0.0529
51502W        W94440  34.036  20.513  29.320 -0.2453  0.1474 -0.1480
51503W        W94441  34.271  18.791  26.221 -0.0103 -0.0462 -0.2410
51504W        W94442  34.360  21.495  29.185  0.0627  0.1938 -0.0601
51505W        W94443  33.568  20.864  29.466  0.2546  0.3321 -0.0824
51506W        W94444   1.547  21.051  28.597 -0.1318 -0.1063  0.0307
51507W        W94445  32.748  19.998  30.118  0.0217  0.0029  0.0276
51508W        W94446  33.250  18.716  27.897 -0.2820 -0.0604  0.3284
51509W        W94447  31.984  22.102  31.907  0.0862 -0.0453  0.3551
51510W        W94448  32.971  21.308  31.412  0.1990 -0.0430  0.0515
51511W        W94449   1.200  20.702  28.806 -0.0040  0.2097  0.0121
51512W        W94450  34.310  20.120  28.643  0.1846  0.1370 -0.0143
51513W        W94451  33.475  21.625  29.867 -0.0130 -0.1082  0.0912
51514W        W94452   0.559  19.504  31.322  0.0440 -0.0108  0.1311
51515W        W94453  34.234  19.371  26.990 -0.1228  0.0582  0.2381
51516W        W94454  33.196  22.156  27.314  0.3099 -0.0634  0.5133
51517W        W94455   0.539  17.613  30.767 -0.0571  0.1047 -0.1015
51518W        W94456  32.419  20.423  26.844 -0.0434 -0.1155 -0.0556
51519W        W94457   1.138  18.803  31.188  0.2975  0.0182  0.3046
51520W        W94458  34.492  18.896  29.838  0.2290  0.2159 -0.1659
51521W        W94459  32.947  22.181  31.422  0.1948  0.0229  0.1210
51522W        W94460  34.094  19.661  31.657  0.1887  0.1798  0.0347
51523W        W94461  34.657  21.941  29.231 -0.2528  0.0924  0.1965
51524W        W94462   0.024  20.897  27.502 -0.1084 -0.2141  0.1984
51525W        W94463   0.008  17.809  30.877  0.0250  0.3384 -0.1544
51526W        W94464  33.232  19.675  30.164  0.0509 -0.1870 -0.0747
51527W        W94465  34.344  21.266  27.613  0.0574  0.0059 -0.0783
51528W        W94466  34.654  21.077  29.149 -0.1570  0.2424  0.0226
51529W        W94467  33.360  20.824  28.595  0.0729 -0.3093  0.1772
51530W        W94468  34.199  18.972  27.362 -0.2443 -0.0694  0.1184
51531W        W94469  33.549  20.188  28.029 -0.0713  0.2614  0.0270
51532W        W94470  34.403  19.359  30.009 -0.2426  0.0219 -0.0460
51533W        W94471   0.432  18.801  30.005 -0.2768 -0.1687 -0.0303
51534W        W94472  33.075  21.801  30.481  0.0597 -0.0449  0.0335
51535W        W94473  33.615  19.736  31.319  0.2282  0.3069 -0.1824
51536W        W94474  32.540  18.030  28.881 -0.0665  0.0811  0.3332
51537W        W94475  34.420  18.487  29.390  0.3529  0.1754  0.2046
51538W        W94476  34.522  21.668  29.621 -0.1414 -0.2302 -0.1501
51539W        W94477  34.474  20.047  26.326  0.1660 -0.1599 -0.0793
51540W        W94478  33.589  20.220  29.431 -0.0992  0.0140  0.0207
51541W        W94479  34.429  20.124  31.640  0.2120  0.2280  0.0549
51542W        W94480  33.532  18.915  28.275 -0.1864 -0.0694 -0.3122
51543W        W94481  33.934  18.801  26.960 -0.0213  0.0363 -0.2529
51544W        W94482   0.010  19.454  28.850  0.2792 -0.0407  0.0395
51545W        W94483   0.123  19.096  30.263  0.1477  0.0688 -0.2891
51546W        W94484   0.027  21.648  30.891  0.3095 -0.3995  0.0533
51547W        W94485  33.729  20.101  27.113  0.2668  0.1720 -0.1074
51548W        W94486  32.554  21.377  30.616  0.0988 -0.0314  0.5327
51549W        W94487  33.862  21.451  27.558  0.0200 -0.3996 -0.1123
51550W        W94488   0.467  17.915  31.332 -0.2226  0.2806 -0.2641
51551W        W94489  33.691  21.762  30.295 -0.3529  0.0160  0.3812
51552W        W94490  33.267  20.226  27.540 -0.1046  0.1474 -0.1314
51553W        W94491  32.651  20.638   0.136  0.2488  0.1862  0.4793
51554W        W94492  34.570  19.032  27.901  0.2687  0.1392  0.1147
51555W        W94493   0.506  17.316  30.308 -0.5023  0.2574  0.2341
51556W        W94494  32.128  20.503  30.285 -0.0187  0.0447 -0.0783
51557W        W94495  33.168  20.485  31.391  0.1573  0.1069 -0.0593
51558W        W94496  32.347  19.261  29.034 -0.0187  0.3465  0.1851
51559W        W94497  33.517  19.775  29.715  0.0006  0.2689 -0.0889
51560W        W94498  33.286  20.231  28.482 -0.0618 -0.1266  0.0431
51561W        W94499  33.909  20.238  30.752 -0.5999 -0.1506  0.1559
51562W        W94500  34.641  20.795  28.088  0.1077 -0.1647 -0.2718
51563W        W94501  33.598  19.872  27.649 -0.3691  0.3163 -0.2471
51564W        W94502  33.966  19.343  30.340  0.1665 -0.0627 -0.0522
51565W        W94503   0.292  20.691  29.823 -0.0393 -0.0946 -0.1950
51566W        W94504  33.944  19.591  29.871  0.2117 -0.0059 -0.1286
51567W        W94505  33.206  19.362  29.625 -0.0718  0.1329  0.0300
51568W        W94506  34.547  18.316  26.237 -0.0460  0.0432  0.0458
51569W        W94507   0.447  20.133  27.494 -0.1325  0.0085 -0.2657
51570W        W94508  33.030  18.772  28.400  0.2849  0.0396  0.0907
51571W        W94509   0.721  21.421  30.823 -0.1800  0.1126 -0.1739
51572W        W94510  33.430  19.756  26.232  0.1811 -0.0056  0.1965
51573W        W94511   0.906  19.807  29.328 -0.0200  0.0071  0.0992
51574W        W94512   1.192  21.277  31.009  0.1265 -0.1832  0.2766
51575W        W94513  34.217  18.149  27.564 -0.2217 -0.2316 -0.3072
51576W        W94514  33.072  21.379  28.584  0.0531 -0.2229  0.1993
51577W        W94515  32.737  19.610  30.401  0.1689 -0.1537  0.0216
51578W        W94516  31.836  21.873  29.206  0.2549  0.3040  0.0669
51579W        W94517   1.398  20.124  28.689 -0.2682  0.0339 -0.1334
51580W        W94518  33.864  18.798  27.825  0.1402  0.0609  0.1702
51581W        W94519  33.109  20.495  28.848 -0.1502 -0.4292  0.0768
51582W        W94520  34.134  22.289  29.965  0.0350 -0.0127  0.1372
51583W        W94521  32.535  19.143  31.235  0.0376 -0.0796  0.1334
51584W        W94522  33.663  19.283  29.386 -0.1347 -0.1297 -0.2767
51585W        W94523  32.724  22.524  31.121 -0.0506 -0.2975 -0.2588
51586W        W94524   0.322  21.325  31.068  0.1252  0.1839 -0.1008
51587W        W94525   0.030  21.240  28.459 -0.2786 -0.2682 -0.0446
51588W        W94526  33.853  19.252  25.580  0.0818 -0.0084  0.3481
51589W        W94527  33.665  22.107  31.096  0.0325 -0.4705 -0.2160
51590W        W94528  32.845  22.996  29.019  0.3926  0.0811 -0.3601
51591W        W94529  33.784  22.238  29.218 -0.2602  0.4139 -0.2157
51592W        W94530  34.387  19.792  29.059  0.0686 -0.0247  0.2480
51593W        W94531  33.946  17.984  26.535 -0.0054 -0.2884  0.0018
51594W        W94532  34.076  19.990  31.191  0.3632 -0.1059  0.0216
51595W        W94533  32.743  20.917  30.772 -0.1398 -0.0137  0.1917
51596W        W94534  33.490  19.331  27.787  0.0775  0.3595  0.0711
51597W        W94535   0.043  19.284  29.660  0.2889 -0.1360  0.0364
51598W        W94536   0.513  21.257  26.612 -0.0121  0.1142 -0.2321
51599W        W94537   0.750  22.250  29.339 -0.0865  0.2518 -0.3092
51600W        W94538  34.461  22.292  31.343  0.1338  0.2507  0.1142
51601W        W94539   0.846  21.560  31.310 -0.2638 -0.2675  0.5110
51602W        W94540  33.113  18.960  29.306 -0.0076 -0.1258 -0.0793
51603W        W94541  34.446  19.059  30.944 -0.3233 -0.1282  0.1228
51604W        W94542  34.025  19.329  27.638 -0.0743 -0.5366 -0.0784
51605W        W94543  33.030  19.205  30.501 -0.2357  0.0899  0.1591
51606W        W94544  32.824  19.353  25.852 -0.2030  0.1763 -0.0790
51607W        W94545  34.074  18.830  29.436 -0.1114 -0.0425 -0.1722
51608W        W94546  34.473  20.454  30.444  0.1049 -0.2095  0.1012
51609W        W94547  34.002  20.481  30.265  0.0335  0.3139 -0.0908
51610W        W94548  33.289  20.039  28.934  0.1633  0.3079  0.2675
51611W        W94549  34.678  20.075  27.691  0.2700 -0.1911  0.0977
51612W        W94550  33.786  20.405  28.523  0.1154 -0.2161 -0.0457
51613W        W94551   0.024  18.906  29.312 -0.1820  0.1247 -0.0632
51614W        W94552  33.869  20.953  28.444 -0.1677 -0.1197  0.1133
51615W        W94553  33.062  22.245  28.528 -0.1834 -0.0770 -0.2576
51616W        W94554  34.286  21.837  28.846 -0.0271 -0.1912 -0.2207
51617W        W94555  34.211  20.728  29.863  0.0848 -0.2025  0.0042
51618W        W94556  34.598  21.757   0.192  0.1982 -0.0953  0.1911
51619W        W94557  33.419  20.510  27.127  0.1320 -0.0788 -0.0768
51620W        W94558  34.082  19.910  30.219  0.1308 -0.1691  0.0054
51621W        W94559  33.681  21.084  28.954  0.1201  0.0904 -0.0963
51622W        W94560  34.696  20.200  26.781 -0.2347 -0.0402 -0.2756
51623W        W94561   0.442  19.326  28.410 -0.1918  0.3755  0.1346
51624W        W94562  34.500  18.631  30.292  0.1500 -0.2687 -0.4498
51625W        W94563  34.314  19.070  30.482  0.0646  0.1077 -0.1584
51626W        W94564  32.756  20.847  27.338 -0.1638 -0.1133  0.2895
51627W        W94565  34.288  22.837  26.252 -0.0048  0.0243 -0.2356
51628W        W94566  34.499  20.157  28.135  0.2409 -0.2324 -0.0249
51629W        W94567  34.120  18.635  31.227  0.1167 -0.1590  0.0690
51630W        W94568  33.260  19.632  30.672 -0.0763  0.0258  0.0663
51631W        W94569  33.660  19.930  30.488 -0.1367  0.1785  0.2961
51632W        W94570  33.054  19.383  28.479  0.2496 -0.0358  0.0695
51633W        W94571  33.074  20.039  29.770 -0.1144  0.1392 -0.0735
51634W        W94572  32.828  18.280  29.273 -0.1783 -0.0072 -0.0874
51635W        W94573  33.236  19.059  26.717  0.0038  0.2924  0.0166
51636W        W94574  33.393  19.494  27.268 -0.3930 -0.0396  0.3406
51637W        W94575  33.781  21.222  30.810  0.0436  0.2137  0.2318
51638W        W94576  34.558  16.892   0.797  0.0653  0.0455 -0.1857
51639W        W94577  33.960  18.925  28.564  0.0154 -0.1506 -0.1481
51640W        W94578  33.885  20.118  29.016  0.1122  0.1086  0.0356
51641W        W94579  34.050  20.491  31.278  0.0511 -0.4060 -0.3838
51642W        W94580  34.552  21.393  30.099  0.0377  0.0074  0.3378
51643W        W94581  33.767  18.579  29.957 -0.1855 -0.2805 -0.0089
51644W        W94582   0.452  21.891  31.107 -0.0060  0.1606  0.1178
51645W        W94583   0.145  18.762  30.696  0.1052 -0.2211 -0.1148
51646W        W94584  33.926  20.733  30.748 -0.0565  0.2427 -0.0531
51647W        W94585  34.261  18.542  27.875 -0.0924 -0.1174  0.1398
51648W        W94586  33.556  20.508  29.004  0.2036 -0.0047  0.2662
51649W        W94587   0.149  19.597  28.094 -0.1042  0.0398 -0.0225
51650W        W94588   0.122  19.343   0.331 -0.1397 -0.2132 -0.3619
51651W        W94589  33.310  19.692  28.124  0.1107  0.3516 -0.2099
51652W        W94590  32.877  20.849  31.289  0.2787 -0.1404  0.0029
51653W        W94591  33.825  18.779  30.398 -0.1588 -0.0690  0.1298
51654W        W94592  33.900  19.663  27.176 -0.1714  0.2293 -0.0143
51655W        W94593   0.066  19.823  28.482 -0.2660 -0.2573 -0.1548
51656W        W94594  33.999  20.179  29.724 -0.0147 -0.1167 -0.2240
51657W        W94595   0.380  22.792  30.128 -0.0810  0.1464  0.0028
51658W        W94596  32.265  19.498  31.670 -0.0859  0.0706 -0.0545
51659W        W94597  33.859  20.282   0.388  0.0270  0.0071 -0.2611
51660W        W94598  34.155  22.498  31.885  0.2472  0.4415 -0.1085
51661W        W94599  33.563  21.752  31.871  0.1827 -0.0258  0.2238
51662W        W94600  34.554  18.763  31.500  0.0335 -0.1628 -0.0264
51663W        W94601  33.134  19.542  31.317  0.1744  0.1532 -0.1786
51664W        W94602  33.559  21.259   0.104 -0.1489 -0.0978  0.0461
51665W        W94603   0.074  23.045  31.941 -0.0063  0.0441  0.1869
51666W        W94604  32.788  21.012  31.834  0.4333  0.2483 -0.0034
51667W        W94605  33.947  19.268  31.916  0.2406  0.1600 -0.0566
51668W        W94606  34.053  19.550   0.725  0.0855  0.0437 -0.0467
51669W        W94607  33.904  19.088   0.717  0.0750  0.0495  0.0189
51670W        W94608  33.268  21.006  31.602 -0.2202  0.3736 -0.3630
51671W        W94609  34.612  20.806  30.122 -0.1013 -0.1110 -0.3404
51672W        W94610  33.284  20.892  30.897 -0.1378  0.0906 -0.1050
51673W        W94611  33.318  19.992  30.980  0.0078 -0.0675  0.0497
51674W        W94612   0.355  19.783   0.213 -0.2045 -0.1338 -0.1292
51675W        W94613   0.087  20.576   0.530 -0.1993  0.1796  0.0469
51676W        W94614  32.524  20.188   0.406 -0.2377 -0.2105 -0.1629
51677W        W94615  32.516  18.153  30.283  0.2506  0.1656 -0.0009
51678W        W94616  34.093  19.867   0.146  0.3237  0.0743  0.2493
51679W        W94617  33.384  21.366  31.130  0.0304  0.0222  0.5181
51680W        W94618  34.424  20.672  31.545 -0.3322 -0.0386  0.1845
51681W        W94619  34.178  18.452   0.183 -0.1286  0.2197 -0.1702
51682W        W94620   1.435  22.676   0.594 -0.0641 -0.1307  0.1492
51683W        W94621   0.003  18.475  31.122  0.1107  0.3699  0.2058
51684W        W94622  33.953  20.899  31.709  0.4156  0.0038  0.0176
51685W        W94623   1.129  18.503   0.977  0.0981 -0.0672 -0.1367
51686W        W94624  33.101  20.930   0.263  0.1903  0.1232 -0.1385
51687W        W94625  34.624  18.685   0.767  0.1452  0.0611  0.1381
51688W        W94626   0.114  19.671  31.023 -0.0972  0.2228  0.3174
51689W        W94627  34.282  18.869   0.362  0.2017  0.0004 -0.0240
51690W        W94628   0.434  23.300  31.733 -0.0618 -0.0472  0.1515
51691W        W94629   1.131  22.657  29.403 -0.2550  0.1310 -0.0397
51692W        W94630  33.665  19.868  31.843  0.0334 -0.1542  0.0038
51693W        W94631  32.792  18.714  31.324  0.1670 -0.1160 -0.1650
51694W        W94632  34.105  22.903  31.257 -0.0412 -0.2035 -0.2525
51695W        W94633  32.768  21.823  31.726 -0.6328 -0.0806 -0.3340
51696W        W94634  33.601  17.920  31.714 -0.1876  0.3533  0.3144
51697W        W94635  33.393  24.664  19.537  0.0197 -0.2303 -0.1577
51698W        W94636  32.973  23.317  18.005 -0.0381  0.0356 -0.4273
51699W        W94637  31.721  23.188  18.475 -0.0160  0.1234  0.0161
51700W        W94638  33.197  22.844  18.506  0.2992 -0.0424 -0.2177
51701W        W94639  33.238  23.415  18.405 -0.3155 -0.0084  0.2419
51702W        W94640  33.802  24.759  18.059 -0.2101  0.1125  0.3390
51703W        W94641  33.857  22.914  17.302  0.1187  0.0074  0.0085
51704W        W94642  33.879  23.913  18.405 -0.1913 -0.1513  0.1339
51705W        W94643  32.962  22.989  17.154  0.0716 -0.3366  0.0279
51706W        W94644  33.734  23.202  18.624 -0.1522 -0.1310 -0.0238
51707W        W94645  33.505  23.279  17.144 -0.1853  0.3153 -0.1481
51708W        W94646  32.755  23.699  18.478 -0.0520 -0.0455  0.0509
51709W        W94647   0.995  23.926  17.575 -0.0390 -0.0047 -0.0493
51710W        W94648  33.009  21.434  18.172 -0.0025  0.1487  0.1154
51711W        W94649  33.756  22.494  16.900 -0.4845 -0.1378 -0.1229
51712W        W94650  33.582  24.710  18.864  0.3986  0.1514 -0.1476
51713W        W94651  31.769  25.256  20.123  0.1195 -0.3717 -0.0084
51714W        W94652   0.452  25.773  17.444  0.3211  0.0055 -0.2761
51715W        W94653  33.565  24.306  16.581 -0.4385 -0.1760  0.0159
51716W        W94654  34.223  26.194  17.483 -0.0742 -0.1376 -0.2091
51717W        W94655  33.301  24.709  16.470  0.0672 -0.1036  0.2545
51718W        W94656  33.102  24.291  19.724 -0.1911  0.2817 -0.2602
51719W        W94657  34.459  23.913  16.340  0.0323  0.0510 -0.0050
51720W        W94658   0.151  25.316  18.755 -0.1995  0.3251 -0.0991
51721W        W94659  34.595  25.306  16.667 -0.1441  0.0300 -0.3512
51722W        W94660   1.434  23.871  18.809 -0.0678 -0.2242  0.0924
51723W        W94661  34.133  25.169  19.516  0.2511  0.1074 -0.2413
51724W        W94662  32.199  25.918  17.935 -0.1037  0.3657 -0.4289
51725W        W94663  32.969  25.176  15.843  0.3247 -0.1172  0.1578
51726W        W94664   1.823  22.146  18.884  0.1659  0.2630  0.3592
51727W        W94665  34.356  21.797  17.460 -0.1603 -0.0139  0.4440
51728W        W94666  34.381  24.954  18.765  0.1875 -0.1156 -0.1947
51729W        W94667  33.478  23.142  18.092 -0.2227  0.1606 -0.2472
51730W        W94668  33.807  24.350  19.258 -0.1134  0.1014  0.1987
51731W        W94669  33.509  23.627  18.767  0.2413  0.2829  0.0516
51732W        W94670  33.359  23.625  17.961 -0.1111  0.0779 -0.0447
51733W        W94671  32.468  23.453  18.069  0.1077  0.1060 -0.3871
51734W        W94672  33.033  23.735  18.972 -0.1229  0.0460  0.1303
51735W        W94673   0.645  22.868  17.671  0.0493  0.1293 -0.2265
51736W        W94674  31.197  25.040  19.988 -0.1689 -0.1390  0.2102
51737W        W94675  34.682  23.758  17.087 -0.1949  0.0104  0.1827
51738W        W94676   0.941  20.430  18.180 -0.2514 -0.1058  0.0394
51739W        W94677  33.951  23.163  16.424  0.2206 -0.0613 -0.3870
51740W        W94678  33.071  25.774  17.665 -0.1623  0.0786  0.1328
51741W        W94679  33.375  22.431  18.810  0.1863  0.4859 -0.0165
51742W        W94680   0.594  25.174  18.636 -0.2796  0.0107 -0.1355
51743W        W94681  34.321  25.440  16.216 -0.1543 -0.1384  0.4766
51744W        W94682  31.845  23.628  17.179 -0.0011 -0.1612 -0.1114
51745W        W94683  32.295  25.731  17.448 -0.3096  0.1448 -0.1969
51746W        W94684  33.114  22.782  18.031  0.0005  0.1598 -0.0057
51747W        W94685  32.109  23.472  17.583 -0.0110 -0.1063  0.1786
51748W        W94686  34.337  22.021  19.540  0.0533 -0.0661 -0.0691
51749W        W94687  33.019  23.919  16.011 -0.3132  0.0234  0.0217
51750W        W94688  32.932  23.186  19.211  0.1056 -0.2252  0.0853
51751W        W94689  34.183  23.576  17.383 -0.0298 -0.1136  0.0568
51752W        W94690  32.090  22.546  20.116 -0.3585 -0.0713 -0.0799
51753W        W94691  33.607  21.255  17.917 -0.0661 -0.0507  0.1997
51754W        W94692  33.078  21.362  15.945 -0.1110 -0.0728  0.1577
51755W        W94693  33.547  22.917  16.653  0.1163 -0.3495  0.0843
51756W        W94694  32.867  24.026  16.572  0.4556  0.0405  0.0470
51757W        W94695  33.885  22.800  19.570 -0.0611 -0.0526 -0.0003
51758W        W94696  33.422  22.746  17.148 -0.0325 -0.1170  0.0306
51759W        W94697  32.983  25.556  18.089 -0.3761 -0.1384 -0.0721
51760W        W94698   0.448  23.907  17.512 -0.0539 -0.1594 -0.1820
51761W        W94699  34.188  21.664  16.819  0.2292 -0.1480  0.1484
51762W        W94700  32.614  25.651  18.613  0.0378  0.1025 -0.0482
51763W        W94701  33.313  21.961  16.232 -0.0005  0.1700  0.0472
51764W        W94702  33.147  26.401  18.104 -0.1015  0.0191 -0.1361
51765W        W94703  34.046  23.229  16.968  0.1747  0.1972 -0.0430
51766W        W94704  34.560  23.261  17.155 -0.0436  0.0309  0.0140
51767W        W94705  33.940  23.512  20.381  0.0772  0.3261 -0.0183
51768W        W94706  34.050  24.255  16.634  0.2652  0.0610 -0.4380
51769W        W94707  33.079  25.177  21.191 -0.0831  0.3023 -0.0201
51770W        W94708  31.378  24.801  20.402 -0.2821 -0.0822 -0.1413
51771W        W94709  33.845  24.770  16.680 -0.0918  0.0791  0.2981
51772W        W94710  33.814  24.686  17.455  0.4242  0.3667  0.2716
51773W        W94711  33.222  23.896  17.414  0.0379 -0.0738  0.0682
51774W        W94712  33.436  22.190  19.244  0.3895 -0.0110 -0.0009
51775W        W94713   0.808  23.184  16.218 -0.4413 -0.0215  0.0066
51776W        W94714  32.546  25.355  16.799 -0.0777 -0.1547 -0.0033
51777W        W94715  33.434  23.282  20.356  0.1613  0.1082  0.3525
51778W        W94716  33.848  21.957  16.507 -0.0438  0.0315 -0.3243
51779W        W94717   0.630  23.117  18.114 -0.0416  0.2362  0.0431
51780W        W94718  33.096  24.329  18.834  0.0806  0.3232 -0.1132
51781W        W94719  32.086  23.816  18.038 -0.0699 -0.2564  0.2027
51782W        W94720   0.033  22.648  19.875  0.0265 -0.0393 -0.1039
51783W        W94721  33.517  25.932  18.471 -0.2862 -0.3619  0.1244
51784W        W94722   0.211  24.291  17.691  0.2021  0.0530  0.2613
51785W        W94723  33.963  21.088  17.571  0.2117  0.0582 -0.1486
51786W        W94724  34.182  22.939  18.294  0.2199  0.1057 -0.1302
51787W        W94725  34.176  22.643  17.016 -0.0999  0.0525 -0.3129
51788W        W94726  33.304  25.246  17.197 -0.0246  0.1497 -0.0874
51789W        W94727  32.465  24.553  17.317  0.1937 -0.2290  0.0513
51790W        W94728  33.542  22.299  17.429  0.1085 -0.0848  0.0423
51791W        W94729  31.045  23.181  16.342  0.4767 -0.0534 -0.1215
51792W        W94730  32.580  24.043  18.749 -0.3033 -0.2080 -0.1673
51793W        W94731  34.396  22.849  17.379  0.1548 -0.0910 -0.0626
51794W        W94732  33.210  24.596  17.933 -0.0783 -0.0026 -0.2055
51795W        W94733   0.173  23.679  20.271 -0.0245  0.1354 -0.2101
51796W        W94734  33.193  22.769  16.288 -0.0976 -0.0817 -0.0669
51797W        W94735  34.231  24.193  18.735  0.2409  0.2438  0.0357
51798W        W94736  33.662  23.828  17.575  0.1035  0.0312  0.0667
51799W        W94737  34.483  24.428  16.340  0.2544  0.1636  0.2911
51800W        W94738  33.569  24.083  18.001 -0.2092  0.0367 -0.0654
51801W        W94739  34.429  22.995  19.585 -0.0668  0.0393 -0.0158
51802W        W94740  34.314  23.304  17.858 -0.1331 -0.3473  0.0834
51803W        W94741  33.389  22.313  17.978  0.1694 -0.3796  0.2839
51804W        W94742   0.497  23.885  16.959  0.1952 -0.1822 -0.0789
51805W        W94743   0.196  22.979  18.483  0.1560  0.2395 -0.3179
51806W        W94744  33.607  24.657  20.091  0.2658 -0.5219  0.3643
51807W        W94745  32.938  24.991  16.759 -0.1736 -0.2436  0.0399
51808W        W94746  33.394  23.097  18.940  0.1636  0.0006 -0.0356
51809W        W94747   0.007  24.728  17.851 -0.3106  0.1439 -0.0815
51810W        W94748   0.361  22.428  20.646 -0.1194  0.0568  0.0011
51811W        W94749  32.809  25.380  19.873 -0.0984  0.1639 -0.1305
51812W        W94750  32.547  24.110  17.522  0.1005 -0.0808  0.0811
51813W        W94751  32.999  24.365  17.306 -0.2206 -0.2191 -0.4182
51814W        W94752  34.225  22.427  18.193  0.2363 -0.1183  0.1530
51815W        W94753  33.520  21.534  18.337  0.1681 -0.0985  0.2184
51816W        W94754  31.989  23.530  18.940  0.1889  0.1408 -0.0945
51817W        W94755  33.308  23.896  18.387  0.3762 -0.1889  0.0156
51818W        W94756  33.894  20.606  17.325  0.0314 -0.2462  0.2089
51819W        W94757  33.477  24.352  17.569 -0.0095  0.1550  0.2652
51820W        W94758  33.908  23.777  16.535  0.0179  0.0726  0.0413
51821W        W94759  32.997  24.022  17.918 -0.0848  0.0183 -0.0643
51822W        W94760  34.126  22.161  16.850 -0.1279 -0.2950 -0.0155
51823W        W94761  33.601  24.274  17.103  0.1645  0.3417  0.1452
51824W        W94762  33.425  21.767  18.957 -0.3603 -0.3863 -0.0039
51825W        W94763  33.079  24.793  20.539 -0.4070 -0.1045 -0.2498
51826W        W94764  33.716  21.516  20.095  0.1710 -0.5386 -0.2458
51827W        W94765  32.726  23.208  18.394 -0.0476 -0.0455 -0.0471
51828W        W94766  33.158  22.291  17.087 -0.0699 -0.2825  0.3306
51829W        W94767   0.890  23.717  16.256  0.0814  0.1885 -0.1374
51830W        W94768  33.522  22.057  18.391 -0.0739  0.1515  0.1514
51831W        W94769  33.282  25.444  18.517  0.2145  0.2091  0.1025
51832W        W94770  32.478  22.406  16.615 -0.0980 -0.0618 -0.2247
51833W        W94771   0.409  24.374  17.161  0.0173  0.0325 -0.0526
51834W        W94772   0.168  24.362  18.746 -0.0902  0.0401  0.3523
51835W        W94773   0.223  20.845  17.138 -0.0924 -0.1710  0.2361
51836W        W94774  34.318  23.577  16.734  0.2101  0.2416  0.1784
51837W        W94775  33.324  25.964  18.040  0.0380  0.1098 -0.3874
51838W        W94776  32.623  25.163  18.860  0.2464 -0.0289  0.0932
51839W        W94777  33.718  25.127  16.233  0.0364 -0.1341  0.0591
51840W        W94778  34.619  23.896  18.990  0.0409 -0.1363  0.2063
51841W        W94779  33.663  25.139  18.537 -0.2247 -0.0679 -0.0552
51842W        W94780  33.765  25.135  17.681 -0.0022 -0.0911  0.1904
51843W        W94781  33.408  23.505  19.278 -0.2702  0.2297  0.1563
51844W        W94782  32.396  22.572  19.022 -0.0495  0.3776  0.0220
51845W        W94783  34.614  25.101  19.825  0.1603  0.4103 -0.0017
51846W        W94784  32.828  24.709  18.424 -0.1596 -0.2219  0.3944
51847W        W94785  32.874  25.902  16.801 -0.0467  0.2948 -0.2762
51848W        W94786  34.295  22.763  16.101 -0.1118 -0.1689  0.1707
51849W        W94787  33.308  24.818  17.534  0.0690 -0.1858 -0.4577
51850W        W94788  33.180  25.469  16.772 -0.2432 -0.0955 -0.0494
51851W        W94789  34.089  25.499  17.475 -0.2256 -0.1898  0.2843
51852W        W94790  34.102  23.864  17.829  0.0874 -0.3872 -0.0177
51853W        W94791   1.147  23.379  16.577 -0.0428 -0.0201 -0.1160
51854W        W94792  34.103  24.920  20.034 -0.1221  0.3592 -0.0538
51855W        W94793  32.657  25.587  20.398 -0.2365  0.2909  0.0968
51856W        W94794  33.588  22.017  16.910 -0.1657  0.2274  0.2739
51857W        W94795  34.196  22.696  19.189 -0.0662  0.0205 -0.0618
51858W        W94796  34.578  24.237  16.906  0.1826 -0.0641 -0.1462
51859W        W94797  34.296  24.958  17.577 -0.1751 -0.0208  0.1596
51860W        W94798  34.473  24.432  18.345 -0.0193  0.1229  0.2144
51861W        W94799   0.537  23.588  18.382 -0.1891 -0.0708  0.1171
51862W        W94800  32.797  21.607  16.271 -0.1034  0.2753  0.1437
51863W        W94801  33.189  22.521  19.593 -0.0325  0.3684  0.0202
51864W        W94802  33.729  23.779  17.004  0.4358 -0.2203  0.2033
51865W        W94803  32.872  24.213  18.363  0.3267  0.1256 -0.3216
51866W        W94804   1.048  21.829  17.238  0.0046 -0.0424 -0.0843
51867W        W94805  32.595  22.723  18.368 -0.2311 -0.1056  0.2250
51868W        W94806  31.969  22.825  17.656  0.3955 -0.0504 -0.3403
51869W        W94807  33.873  22.282  19.527  0.0739 -0.0062  0.0198
51870W        W94808  32.787  22.322  17.832 -0.1934  0.1198  0.4895
51871W        W94809  33.735  25.615  16.453 -0.4589  0.2024  0.2842
51872W        W94810  33.177  21.959  17.596 -0.1606  0.2244 -0.1726
51873W        W94811   2.609  22.265  17.835 -0.1929 -0.2608 -0.1140
51874W        W94812  34.547  24.515  17.363 -0.2209 -0.1226  0.2480
51875W        W94813  32.510  24.789  16.615 -0.3122 -0.3252 -0.0156
51876W        W94814  33.395  25.533  16.045  0.3491 -0.2474  0.2931
51877W        W94815  34.237  25.735  16.668  0.0559  0.1757 -0.1953
51878W        W94816  33.991  25.375  19.969 -0.0983  0.0424 -0.1138
51879W        W94817  33.799  22.756  16.085 -0.1384 -0.2411 -0.1216
51880W        W94818  32.634  24.553  18.892 -0.1314 -0.0184  0.0965
51881W        W94819   0.486  23.046  16.756  0.0999 -0.1149  0.1918
51882W        W94820  33.485  25.077  16.697 -0.0943 -0.1091  0.1045
51883W        W94821  33.994  24.184  17.423  0.1935 -0.1315  0.0420
51884W        W94822  33.883  23.441  18.062  0.2048  0.1755  0.2406
51885W        W94823  32.270  24.662  19.798  0.2257  0.2196 -0.0265
51886W        W94824  33.345  24.671  17.034 -0.0144 -0.1137  0.2125
51887W        W94825  33.926  24.630  16.143 -0.1086 -0.0215 -0.0916
51888W        W94826  31.605  24.354  19.195 -0.1465  0.1422 -0.1392
51889W        W94827  34.660  21.351  20.155  0.0589  0.1269  0.0868
51890W        W94828   0.101  23.266  19.989  0.3390  0.1104  0.2587
51891W        W94829  33.733  25.619  16.923  0.0621  0.0657 -0.3812
51892W        W94830  32.716  22.051  16.899 -0.1279  0.2961 -0.1406
51893W        W94831  33.002  22.686  19.118 -0.3092 -0.2755 -0.2128
51894W        W94832  32.933  21.633  17.233  0.2057  0.3815 -0.0074
51895W        W94833   0.342  23.432  17.134  0.1310 -0.1515  0.3789
51896W        W94834  32.902  24.511  16.692 -0.1610  0.0588  0.2646
51897W        W94835   0.652  22.850  20.620  0.1152 -0.2570 -0.0947
51898W        W94836  34.541  21.813  21.019 -0.1363  0.0036  0.2606
51899W        W94837  32.101  21.471  16.170  0.2445 -0.2724 -0.1927
51900W        W94838  34.663  22.925  19.052  0.0569  0.1748  0.0147
51901W        W94839  31.973  24.657  17.787 -0.0281  0.1329  0.0339
51902W        W94840  33.032  25.249  19.290 -0.1003  0.2876  0.2067
51903W        W94841  34.255  21.306  18.813  0.0903  0.1935 -0.2139
51904W        W94842  33.957  24.690  20.574 -0.1223 -0.0686 -0.0278
51905W        W94843  32.674  21.963  21.270 -0.1156  0.1030 -0.3209
51906W        W94844  33.712  23.023  19.963 -0.1284 -0.1460  0.0874
51907W        W94845   0.014  22.824  16.929  0.0695  0.1221  0.0709
51908W        W94846  32.633  22.982  18.867  0.0617  0.2051  0.0718
51909W        W94847   1.496  21.947  16.581 -0.0430 -0.0096 -0.0460
51910W        W94848  34.163  24.003  20.441 -0.0781 -0.1063  0.2983
51911W        W94849  32.931  22.701  16.726 -0.1800  0.0331  0.3298
51912W        W94850  34.435  26.576  19.396  0.1178 -0.1143  0.1958
51913W        W94851  32.233  23.169  18.556  0.0452  0.0027  0.0919
51914W        W94852   0.122  23.147  18.005  0.0677  0.1133  0.0796
51915W        W94853   0.250  23.747  17.984 -0.1735 -0.1263  0.1928
51916W        W94854   0.140  22.442  17.462 -0.2459 -0.2328  0.1823
51917W        W94855  34.098  24.546  17.094  0.4428 -0.0341  0.2381
51918W        W94856  33.864  25.469  22.282 -0.2587 -0.0219 -0.3270
51919W        W94857  33.536  23.109  21.375 -0.0035 -0.3491 -0.0223
51920W        W94858  33.827  24.433  21.380  0.0720  0.0898  0.0816
51921W        W94859  33.363  22.353  22.472  0.3293 -0.1386 -0.1769
51922W        W94860  33.017  22.745  22.295 -0.0110  0.1369  0.1057
51923W        W94861   0.303  24.815  22.771 -0.0412 -0.1834 -0.1767
51924W        W94862  34.067  23.325  19.663 -0.1421  0.1102 -0.0298
51925W        W94863  33.889  23.124  22.272 -0.1595  0.0088  0.0841
51926W        W94864  32.950  24.283  21.168  0.2183  0.0871 -0.1536
51927W        W94865  32.835  22.779  23.351  0.2197  0.2716 -0.0684
51928W        W94866   1.358  23.305  19.530  0.0355 -0.0998  0.0287
51929W        W94867  33.853  21.843  21.848 -0.0925 -0.1771  0.2213
51930W        W94868  34.187  23.605  21.293  0.4311  0.0418  0.1404
51931W        W94869  32.096  25.098  19.676 -0.2646 -0.0268 -0.2321
51932W        W94870  33.366  23.746  21.578  0.2308  0.1712 -0.1319
51933W        W94871  33.609  22.754  22.838  0.0331  0.5544  0.0755
51934W        W94872  34.049  25.514  21.431  0.1845  0.4504  0.1881
51935W        W94873  34.222  25.430  21.911 -0.0805 -0.3390 -0.0490
51936W        W94874  32.606  25.123  20.637  0.1768 -0.0684  0.1476
51937W        W94875  30.813  25.673  21.825  0.1470 -0.3633 -0.0065
51938W        W94876  34.356  25.161  21.316 -0.0049  0.3122 -0.0538
51939W        W94877  33.031  27.391  23.462  0.0849 -0.0783 -0.1190
51940W        W94878  33.088  24.038  20.531 -0.2921 -0.2427 -0.0237
51941W        W94879  33.859  26.203  22.693 -0.0185 -0.1627  0.0134
51942W        W94880   0.254  25.618  20.643  0.2613 -0.0034  0.2683
51943W        W94881  34.024  25.569  22.781  0.0461  0.0216  0.1455
51944W        W94882  33.550  23.942  23.217 -0.1497  0.1098  0.0978
51945W        W94883  34.575  23.239  21.106  0.1031 -0.1731 -0.0422
51946W        W94884  34.215  24.411  20.961 -0.4188 -0.1992  0.1594
51947W        W94885   1.078  22.968  20.242 -0.1768  0.1354  0.0496
51948W        W94886   0.230  20.471  21.530  0.0715  0.2642 -0.0989
51949W        W94887  31.978  25.294  22.653  0.2088  0.1660 -0.1146
51950W        W94888  33.173  22.366  21.821 -0.2483  0.2881 -0.1759
51951W        W94889  33.547  26.116  23.079  0.2161 -0.3093 -0.4743
51952W        W94890  33.962  22.595  21.421 -0.0510  0.0976  0.0587
51953W        W94891  34.451  24.467  20.506 -0.3065 -0.0029  0.0242
51954W        W94892  31.675  24.626  22.888 -0.0093  0.1848 -0.1419
51955W        W94893  33.747  23.999  22.777 -0.2165 -0.3754  0.0460
51956W        W94894   0.110  21.677  22.024  0.1651  0.1383 -0.0507
51957W        W94895  31.312  25.548  22.063  0.1546 -0.0503 -0.0830
51958W        W94896   0.139  23.573  20.812 -0.1051 -0.0480 -0.3566
51959W        W94897  33.431  23.011  19.580 -0.3327 -0.0962  0.3142
51960W        W94898   1.335  24.335  19.976  0.3490  0.2038  0.0702
51961W        W94899  33.384  25.031  22.286 -0.0469  0.2378  0.1078
51962W        W94900  34.339  23.242  23.464  0.1822  0.0571 -0.1718
51963W        W94901   0.266  24.851  23.354  0.3375 -0.1848 -0.0352
51964W        W94902  33.204  25.597  20.131  0.1206 -0.2056 -0.2782
51965W        W94903  31.549  24.125  22.802  0.3489  0.1959 -0.0153
51966W        W94904  32.612  24.705  20.959  0.0620 -0.1405 -0.0178
51967W        W94905  32.287  24.387  23.130 -0.0473  0.1356  0.2409
51968W        W94906  32.307  23.876  22.952  0.0035 -0.0990 -0.0724
51969W        W94907  33.926  22.075  22.274 -0.1587  0.0752  0.0176
51970W        W94908  33.707  25.178  21.292 -0.2354  0.0330 -0.5425
51971W        W94909  31.634  23.930  23.586 -0.2787  0.0094 -0.2139
51972W        W94910  34.035  23.643  22.245 -0.1049  0.2015 -0.0507
51973W        W94911  33.132  22.673  23.855 -0.2173  0.1338 -0.0282
51974W        W94912  33.463  22.815  22.102 -0.2035 -0.1579  0.1984
51975W        W94913  33.144  22.930  21.097 -0.1674  0.1123  0.0335
51976W        W94914  34.030  23.138  21.360 -0.1501  0.0022 -0.0762
51977W        W94915  32.615  24.260  20.667  0.4444  0.3912 -0.2982
51978W        W94916  32.278  23.876  23.851 -0.0273 -0.1903  0.0991
51979W        W94917  32.616  23.413  20.012 -0.0588 -0.0653  0.0276
51980W        W94918  31.481  25.874  21.523 -0.2171 -0.0393 -0.1199
51981W        W94919   0.052  24.139  22.959 -0.1450 -0.1651  0.0043
51982W        W94920  32.873  21.701  20.963  0.1012  0.3823 -0.2577
51983W        W94921  32.206  25.168  21.723  0.1595  0.1694 -0.2102
51984W        W94922  32.821  23.208  22.039  0.2255  0.0283 -0.3363
51985W        W94923  33.600  25.862  21.474 -0.0765 -0.3297 -0.0086
51986W        W94924  33.880  24.106  22.150  0.2746  0.0061  0.0147
51987W        W94925   0.252  26.359  23.006 -0.0084  0.0343 -0.0614
51988W        W94926  31.482  24.274  24.538 -0.2639  0.0300 -0.2215
51989W        W94927  33.863  24.043  20.900  0.1180 -0.1163  0.1128
51990W        W94928  32.891  24.960  23.531 -0.0664 -0.0123 -0.0354
51991W        W94929  33.596  27.166  22.781  0.0681 -0.0788 -0.0769
51992W        W94930   0.071  24.046  20.667  0.1319 -0.1677  0.1075
51993W        W94931  34.119  24.583  22.243 -0.0366 -0.0937  0.1070
51994W        W94932  31.735  24.903  24.202  0.1828  0.2564 -0.1478
51995W        W94933   0.072  22.186  21.313  0.1111 -0.1844  0.1375
51996W        W94934   0.106  22.125  19.691 -0.0321 -0.2116  0.1057
51997W        W94935  32.165  25.302  20.432  0.2326 -0.0853  0.0037
51998W        W94936   0.337  21.352  23.688  0.1481  0.0285 -0.0331
51999W        W94937  33.267  23.329  19.884 -0.2217 -0.0822  0.0369
52000W        W94938  34.052  22.497  23.279 -0.1774 -0.1478  0.0385
52001W        W94939  33.254  24.187  23.600  0.2653  0.0949 -0.0740
52002W        W94940  33.572  26.617  22.907  0.0141 -0.1609 -0.0756
52003W        W94941  34.193  23.290  24.053 -0.1842  0.0001  0.0915
52004W        W94942  34.579  25.207  19.222 -0.1236  0.4179 -0.2013
52005W        W94943  33.861  23.754  19.854 -0.1877 -0.2304  0.0659
52006W        W94944  34.326  22.724  22.229  0.2514 -0.0964  0.2266
52007W        W94945  34.607  23.485  22.046  0.0173  0.2465  0.0086
52008W        W94946   0.029  24.082  19.893  0.2612 -0.0377  0.0750
52009W        W94947  34.021  24.589  19.675 -0.3690  0.0444  0.3428
52010W        W94948  33.357  24.484  20.903  0.2187  0.0558 -0.0646
52011W        W94949   1.503  22.648  20.245 -0.0033  0.2279 -0.1649
52012W        W94950  31.969  22.775  21.190  0.0670  0.0959 -0.5789
52013W        W94951  32.819  23.687  21.968  0.1261 -0.2326 -0.3270
52014W        W94952   0.549  22.747  21.957 -0.2563 -0.2192 -0.2366
52015W        W94953  31.801  24.834  21.624 -0.3316  0.3959 -0.0515
52016W        W94954  32.523  25.267  22.688 -0.1805  0.0818 -0.1063
52017W        W94955  32.862  23.610  19.580 -0.3777  0.1072  0.2979
52018W        W94956  33.312  23.344  22.019 -0.0252  0.1762  0.1798
52019W        W94957  32.641  25.994  21.133 -0.1730  0.2737  0.3720
52020W        W94958  34.527  23.227  20.560 -0.1674 -0.0360 -0.1510
52021W        W94959  33.244  25.104  21.766  0.0172  0.0286 -0.0413
52022W        W94960  34.171  23.295  24.926  0.3250  0.2842  0.0096
52023W        W94961   0.842  22.399  21.758 -0.2910 -0.2523 -0.2425
52024W        W94962  31.497  22.166  20.836 -0.1679 -0.1975  0.0937
52025W        W94963   0.827  23.647  23.895 -0.0864  0.0587  0.0197
52026W        W94964  33.929  23.569  23.157  0.1373 -0.1435  0.1255
52027W        W94965  33.586  25.809  22.576 -0.4118 -0.0220 -0.2661
52028W        W94966   0.330  23.231  20.449 -0.1239 -0.2666  0.1170
52029W        W94967  31.941  24.272  22.218 -0.0161  0.0162  0.1572
52030W        W94968  33.615  24.295  20.484  0.3033 -0.1853 -0.0348
52031W        W94969   0.965  22.886  22.634 -0.1860 -0.1709  0.2475
52032W        W94970  33.233  24.491  22.200  0.1213  0.1080  0.3166
52033W        W94971  33.877  24.793  21.039 -0.0302  0.4242  0.1018
52034W        W94972  32.195  25.982  22.545 -0.1784 -0.1194 -0.1164
52035W        W94973  33.600  23.627  22.451 -0.2123  0.1406 -0.0992
52036W        W94974  32.890  22.516  21.334 -0.2483  0.0849  0.1129
52037W        W94975  32.208  24.011  24.568 -0.0533 -0.3629 -0.2999
52038W        W94976  32.983  25.115  22.909 -0.0844  0.0609 -0.2377
52039W        W94977  34.038  22.142  20.049 -0.2492  0.1518 -0.2755
52040W        W94978  33.833  22.599  22.336  0.2190 -0.2524 -0.1479
52041W        W94979  32.953  24.173  19.284  0.0069  0.1292 -0.1375
52042W        W94980  33.345  24.780  22.711  0.3291  0.3210  0.2005
52043W        W94981  34.408  24.971  21.807 -0.0684 -0.0526 -0.0585
52044W        W94982  33.135  23.213  23.068  0.2588  0.1826 -0.1043
52045W        W94983  33.919  22.157  22.869  0.0423 -0.3247  0.2931
52046W        W94984  34.198  24.385  23.527 -0.1794 -0.1180 -0.3492
52047W        W94985  33.332  21.859  22.760  0.3641  0.0647  0.0535
52048W        W94986  33.817  23.472  21.775  0.4502  0.1497  0.1063
52049W        W94987  33.858  22.981  20.553  0.0811  0.0542 -0.1689
52050W        W94988   0.670  24.679  19.347 -0.2081  0.0613  0.0942
52051W        W94989  33.331  23.897  22.060  0.0879  0.0353  0.3892
52052W        W94990  33.238  26.309  22.650  0.2308 -0.0517  0.2261
52053W        W94991  32.568  24.483  19.382  0.1109 -0.3163 -0.4632
52054W        W94992  34.409  23.677  20.072 -0.2582  0.2174 -0.0821
52055W        W94993  34.149  24.321  21.759 -0.0135 -0.1254  0.1986
52056W        W94994  33.745  21.949  21.030 -0.0971 -0.2163 -0.3731
52057W        W94995  33.425  25.162  20.156  0.0128  0.2650  0.0247
52058W        W94996  32.603  25.665  22.418  0.1269 -0.0201 -0.0431
52059W        W94997  32.986  24.437  22.655  0.2157 -0.2012  0.0356
52060W        W94998  34.252  24.114  21.334  0.1364  0.1616 -0.0579
52061W        W94999   0.896  23.774  21.579 -0.2199 -0.0581 -0.1523
52062W        W95000  33.641  24.544  21.883  0.2817 -0.3179  0.3633
52063W        W95001  34.598  24.435  22.410 -0.0853 -0.0833 -0.3790
52064W        W95002  32.616  24.868  24.045 -0.1287  0.1513  0.3651
52065W        W95003  34.168  22.720  20.196  0.4435  0.2748 -0.0081
52066W        W95004  32.761  25.763  21.945  0.2378  0.1368 -0.0193
52067W        W95005  33.370  24.366  22.993 -0.2038  0.0664  0.1821
52068W        W95006  34.360  26.566  21.768 -0.2197  0.2044 -0.2450
52069W        W95007  34.218  22.022  20.595 -0.1843 -0.0771 -0.1942
52070W        W95008  31.942  25.284  21.213  0.2936 -0.1134  0.2285
52071W        W95009  31.722  24.224  21.038 -0.3036 -0.0915 -0.1272
52072W        W95010  32.077  25.664  21.551 -0.0734  0.1255  0.1492
52073W        W95011   0.488  23.609  21.331 -0.0006  0.1912 -0.0313
52074W        W95012  33.822  22.419  20.463 -0.0608  0.1375  0.1635
52075W        W95013  33.687  21.625  24.043 -0.1569 -0.0185 -0.0150
52076W        W95014  32.032  27.531  23.779 -0.3608 -0.0734 -0.3036
52077W        W95015  32.727  23.851  20.954  0.0381 -0.0621 -0.2927
52078W        W95016   0.672  23.601  20.560  0.0164 -0.0806 -0.0914
52079W        W95017   0.870  25.578  18.235 -0.0540  0.1011  0.2799
52080W        W95018  33.696  25.024  19.765  0.1098 -0.1122  0.2797
52081W        W95019  34.573  25.093  22.843  0.0596 -0.2301 -0.0743
52082W        W95020  32.818  26.160  21.578  0.0185  0.0078  0.0234
52083W        W95021  32.598  23.459  21.215 -0.1416  0.1010  0.2467
52084W        W95022  32.560  23.019  22.949 -0.2083  0.4058  0.1180
52085W        W95023  33.721  24.046  21.633 -0.1382 -0.0660  0.0159
52086W        W95024  32.694  24.154  23.337 -0.1321 -0.2010 -0.3153
52087W        W95025   1.590  23.296  20.529 -0.0661 -0.1130  0.1681
52088W        W95026  32.348  21.538  22.542 -0.2066 -0.2967 -0.1111
52089W        W95027  33.433  24.715  21.341  0.2588  0.3937  0.0926
52090W        W95028  32.268  25.338  23.131 -0.0404  0.6473 -0.1786
52091W        W95029  33.356  22.797  20.529 -0.1770  0.2556  0.1442
52092W        W95030  34.428  24.754  19.510 -0.2628  0.1694 -0.0341
52093W        W95031  33.015  24.015  22.956  0.2194  0.2618  0.0097
52094W        W95032  34.444  21.361  21.657  0.1860  0.1803  0.0520
52095W        W95033  33.345  23.132  22.561 -0.1302  0.1669 -0.0766
52096W        W95034  31.816  25.956  21.174 -0.3983  0.2245  0.0534
52097W        W95035  34.317  25.467  18.463 -0.1155 -0.1423  0.1207
52098W        W95036  34.677  23.846  22.587 -0.0944 -0.0791  0.2274
52099W        W95037  33.519  26.123  23.954 -0.0620  0.2114  0.3485
52100W        W95038  33.452  23.744  20.738  0.0522 -0.0464 -0.2151
52101W        W95039  34.258  24.744  22.680 -0.0526 -0.4056 -0.1738
52102W        W95040  34.370  23.719  20.820  0.4065 -0.2654  0.5258
52103W        W95041  33.903  25.464  20.883  0.2247  0.1328 -0.0557
52104W        W95042   0.128  23.054  22.260 -0.1279  0.0677  0.1885
52105W        W95043  34.049  22.381  20.941  0.2093  0.0752  0.2136
52106W        W95044   0.102  23.147  23.124 -0.1927  0.1962  0.1093
52107W        W95045   0.460  23.943  20.914 -0.0638  0.1301 -0.0701
52108W        W95046  32.810  24.953  20.184 -0.0123  0.0567  0.0511
52109W        W95047  33.379  23.608  22.925 -0.0935 -0.1310  0.0391
52110W        W95048  34.620  22.031  25.021 -0.1060 -0.3466  0.1325
52111W        W95049  33.031  23.145  24.128  0.1881 -0.1354  0.1900
52112W        W95050  33.410  25.659  21.981 -0.0688 -0.1206 -0.1960
52113W        W95051  32.113  22.133  21.431 -0.4608  0.0022 -0.0684
52114W        W95052  33.164  22.872  21.709  0.0909 -0.1405  0.1132
52115W        W95053  32.271  23.044  21.579  0.2063  0.1221  0.2469
52116W        W95054  32.758  23.283  20.784  0.0193 -0.1387  0.1925
52117W        W95055  33.586  24.199  19.813 -0.1708 -0.0296 -0.1799
52118W        W95056   0.151  23.014  23.622 -0.2511 -0.2411 -0.3900
52119W        W95057  33.284  24.230  24.159  0.1557 -0.2943 -0.2185
52120W        W95058  32.528  22.274  20.854 -0.1634  0.0936  0.4531
52121W        W95059  34.333  23.274  22.919  0.0117  0.0540 -0.0600
52122W        W95060   0.415  24.417  23.102 -0.2669 -0.1926 -0.3429
52123W        W95061  34.387  24.173  24.462  0.2273  0.1487 -0.1006
52124W        W95062  32.332  23.872  22.306 -0.0765 -0.2239 -0.1494
52125W        W95063  34.553  24.396  24.056  0.2116 -0.1245 -0.0092
52126W        W95064  32.903  20.200  23.303  0.0360  0.2569 -0.1962
52127W        W95065  32.791  25.438  23.320 -0.0515  0.0290 -0.0325
52128W        W95066  33.229  24.284  21.631 -0.0895  0.0005  0.3941
52129W        W95067  33.884  24.993  22.072 -0.1374 -0.0648  0.2492
52130W        W95068  34.020  23.350  20.902  0.2327 -0.0067  0.1640
52131W        W95069  34.580  23.570  24.081 -0.1274  0.0069 -0.0696
52132W        W95070   0.272  23.026  21.335 -0.0938  0.0098  0.1167
52133W        W95071  33.220  26.527  23.897 -0.0982 -0.0872 -0.0138
52134W        W95072  32.782  22.302  22.163 -0.3251  0.0444 -0.0499
52135W        W95073  34.247  25.071  20.784  0.0411 -0.1953  0.5855
52136W        W95074  33.317  24.060  22.538 -0.1322 -0.0098 -0.0718
52137W        W95075  33.880  23.330  22.744 -0.1316 -0.0661  0.2049
52138W        W95076   0.251  25.279  22.621 -0.1852  0.2504 -0.2922
52139W        W95077  33.153  24.779  25.490 -0.0847 -0.0836  0.1408
52140W        W95078  33.694  24.410  23.413 -0.1455  0.1798  0.1294
52141W        W95079  32.012  22.459  25.876  0.2779  0.2228 -0.0143
52142W        W95080  34.100  22.689  25.791 -0.0441 -0.1477  0.1150
52143W        W95081  33.547  23.489  25.773 -0.1108 -0.3268  0.1755
52144W        W95082  33.321  24.778  23.470  0.1876 -0.1402 -0.3630
52145W        W95083  33.807  22.006  24.293 -0.0316  0.0292 -0.1496
52146W        W95084  32.260  21.659  26.576  0.2759  0.1081  0.0677
52147W        W95085  32.015  24.219  24.106  0.0655  0.0224  0.0579
52148W        W95086  34.115  24.386  27.005  0.1421  0.1424  0.0450
52149W        W95087  33.851  22.510  24.424  0.0247 -0.0631  0.0937
52150W        W95088  33.761  23.059  26.903  0.2199  0.2599  0.2126
52151W        W95089  33.937  25.388  24.684 -0.1774  0.2536  0.0418
52152W        W95090  31.971  24.732  24.715  0.1855  0.0754  0.0009
52153W        W95091  32.257  23.280  24.904  0.3119  0.0471  0.1548
52154W        W95092  33.237  23.835  26.479 -0.0791  0.1714 -0.2881
52155W        W95093  34.121  25.932  23.075 -0.1651 -0.3643 -0.1253
52156W        W95094   0.426  25.268  24.131 -0.2167 -0.3688  0.1004
52157W        W95095  32.615  23.676  25.869 -0.2596 -0.2330  0.0758
52158W        W95096  32.438  25.548  25.646  0.1318 -0.1932 -0.2315
52159W        W95097  32.102  25.233  24.651 -0.2292 -0.1139  0.2730
52160W        W95098  33.804  25.279  27.399 -0.2628 -0.0405 -0.1813
52161W        W95099  31.846  26.106  21.748  0.1587  0.3778 -0.2121
52162W        W95100  33.308  25.401  26.616 -0.1713 -0.2958  0.2630
52163W        W95101  34.567  24.613  23.105  0.1466 -0.0171  0.1832
52164W        W95102   0.648  24.062  25.361 -0.2880 -0.2475 -0.1618
52165W        W95103  32.786  24.941  27.532 -0.2490 -0.1427  0.1579
52166W        W95104  32.794  25.309  26.478 -0.2026  0.0110 -0.1120
52167W        W95105  32.829  25.369  23.889  0.4190 -0.2013  0.0484
52168W        W95106   1.266  24.362  24.788  0.1489 -0.1170 -0.2565
52169W        W95107  34.116  22.141  24.674  0.0233 -0.1778  0.1800
52170W        W95108  31.507  27.155  26.696 -0.3900 -0.4782  0.1565
52171W        W95109  34.050  23.645  24.457 -0.1833  0.1355 -0.0693
52172W        W95110   0.482  24.454  27.206 -0.2492 -0.3896  0.0547
52173W        W95111  31.366  23.031  26.499 -0.0815  0.3978 -0.2011
52174W        W95112  32.622  23.429  24.565 -0.0077  0.0173  0.0205
52175W        W95113  32.281  23.054  27.124  0.0942  0.0270 -0.1948
52176W        W95114  33.090  24.261  25.752 -0.0210  0.1142 -0.2876
52177W        W95115  33.277  21.706  24.406 -0.1495 -0.0255  0.0992
52178W        W95116  33.190  24.317  26.449 -0.1947  0.3315 -0.0597
52179W        W95117  33.660  24.523  24.953 -0.0786  0.0486  0.1153
52180W        W95118  32.399  25.645  23.541  0.0859 -0.2149 -0.0693
52181W        W95119  33.794  24.118  25.151  0.1616 -0.2974 -0.2607
52182W        W95120  32.566  24.236  25.603 -0.1652  0.2916 -0.1454
52183W        W95121  32.720  22.425  25.532 -0.1537  0.1617 -0.3396
52184W        W95122  34.677  26.348  26.220 -0.0133 -0.1103 -0.0571
52185W        W95123  33.630  24.966  23.051 -0.2450 -0.0937  0.2480
52186W        W95124  31.687  23.774  26.196  0.0260 -0.1498 -0.2149
52187W        W95125  32.340  25.302  25.098 -0.0695 -0.1813 -0.1501
52188W        W95126  33.785  23.827  28.796  0.0314  0.1779  0.1152
52189W        W95127  33.204  24.798  24.935 -0.1157 -0.1333 -0.1411
52190W        W95128  33.639  22.711  27.252 -0.1614 -0.0983  0.0036
52191W        W95129  34.125  24.631  24.007 -0.1507  0.2792 -0.2217
52192W        W95130  31.958  23.228  27.666  0.0140  0.1272  0.2911
52193W        W95131  34.394  22.777  23.698  0.0128  0.0356  0.1425
52194W        W95132   0.040  22.521  28.615  0.1299  0.1415 -0.0234
52195W        W95133  32.843  22.990  24.680 -0.0252  0.1145 -0.1781
52196W        W95134  33.038  22.760  22.803  0.1397 -0.2235 -0.0178
52197W        W95135  33.713  23.579  24.845 -0.0907 -0.2315  0.0221
52198W        W95136  33.264  25.205  25.158  0.1822 -0.0877 -0.1023
52199W        W95137  32.467  22.180  26.507 -0.0151  0.1662 -0.1689
52200W        W95138  32.998  22.140  24.568  0.2723 -0.1073  0.2023
52201W        W95139  33.477  26.076  24.807  0.0949 -0.0782  0.0497
52202W        W95140  33.714  25.085  24.219 -0.0956  0.4458 -0.1045
52203W        W95141  33.398  23.691  23.691 -0.2931  0.0463 -0.1159
52204W        W95142  32.882  23.983  26.811 -0.2489 -0.5198  0.0402
52205W        W95143  34.304  21.327  23.404  0.1130  0.0230  0.0932
52206W        W95144  32.620  25.863  24.314  0.0117 -0.1505 -0.3282
52207W        W95145  31.181  22.539  26.156 -0.1285  0.0221  0.2254
52208W        W95146  33.023  25.962  24.701 -0.2316 -0.2073 -0.0106
52209W        W95147  32.840  23.335  27.971 -0.2948  0.1955 -0.1500
52210W        W95148  32.815  23.956  23.802 -0.1939  0.2044  0.0547
52211W        W95149   0.271  24.303  26.559 -0.1176 -0.2300 -0.2367
52212W        W95150  33.122  25.333  26.060 -0.1780  0.1593 -0.3147
52213W        W95151   0.171  24.947  24.410 -0.1796  0.1108 -0.1234
52214W        W95152  33.596  23.535  27.229 -0.1420  0.3765  0.0383
52215W        W95153  33.141  24.550  26.887 -0.0637  0.2230 -0.2338
52216W        W95154  33.677  22.151  27.008 -0.1232 -0.1772 -0.1869
52217W        W95155  32.807  22.328  23.628  0.1091  0.0692 -0.0084
52218W        W95156  31.339  25.498  23.664  0.3309 -0.1304 -0.0799
52219W        W95157  33.391  23.055  25.974 -0.0202 -0.2609 -0.0156
52220W        W95158  31.364  26.120  24.396 -0.0797  0.0973  0.1476
52221W        W95159  33.266  23.460  25.222  0.1889  0.2190  0.1270
52222W        W95160  33.610  25.182  26.049  0.0144  0.1497 -0.2110
52223W        W95161  33.453  25.641  23.808  0.3588 -0.0951  0.0170
52224W        W95162  33.924  21.851  26.674  0.0357  0.0779  0.1022
52225W        W95163  34.684  26.724  24.857  0.3983 -0.3596  0.2366
52226W        W95164  33.428  25.341  22.719 -0.0143  0.2508  0.1246
52227W        W95165   0.196  22.253  26.707 -0.1457 -0.0048  0.1110
52228W        W95166  34.031  24.909  24.786 -0.1879 -0.0315  0.0347
52229W        W95167   0.473  25.464  21.977  0.1092 -0.1749 -0.3734
52230W        W95168  33.658  24.452  22.500  0.4973 -0.1064 -0.1516
52231W        W95169  31.819  25.208  26.981  0.0367  0.0966 -0.2721
52232W        W95170  32.913  24.561  23.139  0.0536 -0.2814 -0.1720
52233W        W95171  32.560  25.289  24.417 -0.0469  0.2395  0.1911
52234W        W95172  33.447  23.992  25.488 -0.4035  0.2661 -0.0924
52235W        W95173  32.166  22.721  24.663  0.1725  0.4041 -0.2433
52236W        W95174  32.886  25.336  25.601 -0.0128 -0.0342 -0.2520
52237W        W95175  34.513  24.838  27.225  0.1331  0.0075 -0.2902
52238W        W95176  32.591  22.578  24.482  0.2723 -0.3514 -0.0824
52239W        W95177  34.290  22.146  23.610 -0.2130 -0.0293  0.1089
52240W        W95178  33.397  25.181  25.643 -0.3790  0.1206  0.2625
52241W        W95179  33.826  23.643  24.011  0.1719 -0.2694 -0.1785
52242W        W95180  32.706  24.178  26.253 -0.0741  0.0506  0.0743
52243W        W95181  33.861  23.109  25.963  0.2922  0.1819 -0.0356
52244W        W95182  34.141  24.419  24.845  0.2186 -0.0689  0.1581
52245W        W95183  33.821  21.134  23.258 -0.4062 -0.0779 -0.3161
52246W        W95184   0.350  24.055  24.925 -0.0871 -0.2573  0.1573
52247W        W95185  34.266  24.236  26.117  0.0659  0.1906 -0.1714
52248W        W95186  33.173  25.916  25.919  0.0751 -0.1414 -0.3352
52249W        W95187  33.020  24.575  23.824  0.3867 -0.0057  0.0370
52250W        W95188  33.814  24.141  24.598 -0.0495 -0.3056 -0.0164
52251W        W95189  31.804  25.431  25.016 -0.1025 -0.0182  0.0182
52252W        W95190  34.000  23.128  25.453  0.0803  0.0303  0.0029
52253W        W95191  34.060  24.167  25.639 -0.0651  0.0208 -0.0731
52254W        W95192  33.895  24.496  22.987  0.2104  0.2717 -0.2109
52255W        W95193  31.352  24.495  28.097 -0.0766 -0.1188 -0.2587
52256W        W95194  34.193  22.273  25.206 -0.3570 -0.0094  0.3658
52257W        W95195  33.662  24.157  26.571 -0.0660 -0.0414 -0.2919
52258W        W95196  32.337  22.629  26.728  0.0205 -0.1687 -0.1348
52259W        W95197  34.184  23.409  27.157 -0.1706  0.0675  0.2622
52260W        W95198  34.082  21.325  24.131  0.0681 -0.5291  0.2136
52261W        W95199  34.329  23.568  26.660 -0.0539 -0.0025 -0.0392
52262W        W95200  33.005  25.640  22.693 -0.1264  0.1687 -0.0950
52263W        W95201  32.597  24.391  24.705  0.4530  0.0793 -0.0842
52264W        W95202  33.931  23.960  23.501  0.0160 -0.0279  0.1893
52265W        W95203  32.258  24.682  24.312 -0.1077 -0.0514 -0.0656
52266W        W95204  33.697  23.568  26.717  0.1504 -0.0416  0.0579
52267W        W95205   0.370  24.031  26.981  0.1277  0.1167 -0.2014
52268W        W95206  33.264  23.177  26.466 -0.0123 -0.1857  0.2976
52269W        W95207  32.092  23.820  25.050 -0.1791  0.0035  0.0915
52270W        W95208  33.959  23.054  23.181  0.2240 -0.2534  0.0644
52271W        W95209   0.321  26.394  24.765  0.0219 -0.0328  0.1748
52272W        W95210  33.318  23.940  24.956 -0.1481  0.1459 -0.0551
52273W        W95211  32.748  25.658  26.008 -0.0720  0.1914  0.5462
52274W        W95212  34.258  21.825  22.656  0.0484  0.1975 -0.1735
52275W        W95213  34.045  22.825  24.048 -0.1446 -0.2449 -0.0625
52276W        W95214  34.052  24.639  25.303 -0.1219  0.2766 -0.2142
52277W        W95215  34.417  24.238  25.281  0.1620  0.1846 -0.0873
52278W        W95216  32.699  23.671  26.427 -0.0651 -0.1311  0.3103
52279W        W95217   0.158  24.834  26.470 -0.0069  0.2835  0.0126
52280W        W95218  32.263  24.370  26.471  0.1613 -0.0412  0.1345
52281W        W95219  33.540  24.602  23.911  0.0265  0.0380  0.1764
52282W        W95220  34.523  24.683  26.081  0.0239  0.1218 -0.1017
52283W        W95221  34.430  22.745  25.321  0.1576  0.2490  0.2731
52284W        W95222  33.372  24.675  25.935  0.0663 -0.3461 -0.1614
52285W        W95223  32.470  22.881  27.940  0.0669 -0.0114  0.0867
52286W        W95224  32.989  22.345  23.107 -0.0979 -0.0385  0.1975
52287W        W95225  32.490  23.806  27.280  0.1702 -0.4456  0.0724
52288W        W95226  32.173  23.476  28.581 -0.1275  0.1369 -0.0719
52289W        W95227  32.204  25.986  23.980  0.0525  0.0910 -0.2999
52290W        W95228  33.321  22.624  25.285 -0.1921  0.1034 -0.0641
52291W        W95229  32.866  25.291  24.792 -0.0426 -0.2202  0.0495
52292W        W95230  31.920  24.861  26.040  0.2497 -0.0333  0.2332
52293W        W95231  32.165  26.085  24.550 -0.2447 -0.1381 -0.0918
52294W        W95232  32.781  23.287  25.053  0.0147 -0.1903 -0.3004
52295W        W95233  33.392  23.065  24.492 -0.1077  0.1424 -0.0260
52296W        W95234  33.631  24.670  26.639 -0.4159  0.0890 -0.2149
52297W        W95235  32.604  24.589  27.166  0.0619  0.2327 -0.0456
52298W        W95236  31.837  23.811  23.135 -0.0543 -0.0088 -0.1866
52299W        W95237  34.064  22.741  24.761 -0.1578 -0.2380 -0.2177
52300W        W95238   0.940  24.613  23.821 -0.1892 -0.0138  0.3066
52301W        W95239   0.199  25.462  24.515  0.3488 -0.2418  0.0198
52302W        W95240  34.191  25.350  25.132 -0.2954 -0.4010  0.0078
52303W        W95241  33.961  25.930  25.154 -0.0804  0.4150 -0.3104
52304W        W95242  32.638  23.825  24.887  0.1834  0.0452  0.0885
52305W        W95243  33.497  23.069  25.501 -0.2750 -0.0361  0.2129
52306W        W95244  31.660  23.818  24.706  0.2624  0.0624 -0.2553
52307W        W95245  33.993  23.873  26.377 -0.6402 -0.0891  0.0791
52308W        W95246  34.338  23.734  23.497  0.1971 -0.2653  0.1591
52309W        W95247  33.222  23.038  25.004 -0.2221 -0.0386 -0.2239
52310W        W95248  31.033  23.003  25.373  0.2799 -0.0144 -0.0579
52311W        W95249   0.948  24.220  25.777 -0.0679  0.3988 -0.1111
52312W        W95250  33.312  23.128  23.605 -0.0738  0.1950  0.1576
52313W        W95251  33.970  24.808  23.401 -0.2312  0.2429  0.0191
52314W        W95252  32.595  23.491  26.910  0.2103 -0.1261 -0.0216
52315W        W95253   0.549  21.739  23.273  0.2336  0.1793  0.0572
52316W        W95254  33.050  23.714  23.354  0.1791  0.2038 -0.0521
52317W        W95255  33.202  25.464  24.281 -0.0512 -0.3514 -0.0827
52318W        W95256  34.013  26.261  23.822 -0.0427 -0.2471 -0.4534
52319W        W95257  34.683  25.385  25.469 -0.5510  0.2248 -0.2120
52320W        W95258  33.896  25.940  29.177 -0.1275  0.3582 -0.0573
52321W        W95259  31.768  25.388  24.087  0.0642 -0.3763 -0.0414
52322W        W95260  33.480  24.264  27.720 -0.3024 -0.0045 -0.1693
52323W        W95261  33.267  25.131  23.855  0.1222 -0.0809 -0.1683
52324W        W95262   0.257  25.290  23.640  0.3029  0.0694 -0.1821
52325W        W95263   0.823  23.115  23.013  0.0455 -0.1010 -0.3585
52326W        W95264  32.510  23.625  23.385 -0.2171 -0.2678  0.0863
52327W        W95265  33.923  23.678  25.303 -0.1213 -0.0145 -0.0589
52328W        W95266  32.893  24.534  24.344 -0.0703  0.0842  0.0400
52329W        W95267  31.216  25.436  25.006  0.0411  0.1913 -0.0901
52330W        W95268  32.017  24.101  25.503  0.1389  0.1189  0.1983
52331W        W95269  33.581  21.293  26.636  0.1265 -0.0830 -0.0717
52332W        W95270  33.440  23.914  26.986  0.0398  0.1341  0.2078
52333W        W95271  32.355  23.087  24.306  0.3299 -0.2451  0.4276
52334W        W95272  33.003  23.912  24.489 -0.0641 -0.2591  0.0216
52335W        W95273  34.624  23.020  24.972  0.0712  0.0478  0.0947
52336W        W95274  33.146  22.628  24.426  0.2806 -0.0320 -0.0806
52337W        W95275  34.224  22.310  24.177 -0.4203  0.0919  0.2842
52338W        W95276  31.128  25.050  23.674 -0.0806 -0.2594  0.5931
52339W        W95277  33.544  22.636  24.805 -0.0464  0.0266  0.0013
52340W        W95278   0.540  21.951  26.864  0.3263  0.0987 -0.0236
52341W        W95279  33.307  22.268  23.642 -0.1647  0.1237  0.0960
52342W        W95280   0.074  23.637  27.553 -0.0571  0.1449  0.1325
52343W        W95281  34.002  23.306  26.390 -0.2190 -0.0611  0.1776
52344W        W95282   0.222  24.441  25.393  0.0225 -0.1616  0.2977
52345W        W95283  34.648  22.669  25.848 -0.2292 -0.2019 -0.2144
52346W        W95284   0.013  25.235  27.500  0.0153  0.1616 -0.0137
52347W        W95285  33.490  22.546  28.727 -0.1532  0.1822 -0.0556
52348W        W95286  34.282  23.728  27.564  0.0231  0.1425  0.2775
52349W        W95287  33.992  21.202  25.074 -0.3361 -0.1870  0.0942
52350W        W95288  33.090  23.440  25.669  0.3292  0.3242  0.1889
52351W        W95289  33.504  23.254  24.001 -0.1209 -0.0671  0.0929
52352W        W95290   0.030  23.702  24.554  0.0180  0.1080 -0.0180
52353W        W95291  33.845  24.150  24.094 -0.1619  0.2359  0.0078
52354W        W95292   0.226  25.378  28.880  0.3187  0.1554 -0.0898
52355W        W95293  33.101  23.455  24.672 -0.1641  0.2865  0.0065
52356W        W95294  33.682  24.621  24.405  0.2847 -0.2804 -0.0873
52357W        W95295  31.881  24.292  24.916 -0.1892  0.2952  0.2516
52358W        W95296  32.884  21.876  24.082  0.0896  0.0102  0.1592
52359W        W95297   0.610  25.726  28.795  0.1982  0.1385 -0.2946
52360W        W95298   0.268  23.866  30.475 -0.0433 -0.1785  0.0209
52361W        W95299   0.026  24.108  28.298  0.1845 -0.0797  0.0461
52362W        W95300  33.716  24.055  30.315 -0.0057  0.1946  0.2098
52363W        W95301  33.031  21.330  30.723  0.0322 -0.1276  0.1792
52364W        W95302  34.280  23.362   0.231  0.1101 -0.0261 -0.0568
52365W        W95303  33.044  25.325  30.358  0.3821  0.0886  0.4028
52366W        W95304  33.156  23.382  29.235  0.1512 -0.0040 -0.0258
52367W        W95305  33.441  22.133  30.082  0.2627 -0.0304  0.1484
52368W        W95306   1.196  24.559  27.993 -0.1456 -0.0248 -0.0864
52369W        W95307  33.710  23.529  30.538 -0.1022 -0.0217 -0.2656
52370W        W95308   0.226  20.648  28.918  0.1079  0.1146 -0.0707
52371W        W95309   1.159  23.908  30.165  0.1455 -0.0390  0.3356
52372W        W95310   0.127  25.208  30.363 -0.0011  0.2848  0.1128
52373W        W95311  33.903  24.014  27.332  0.0963 -0.0473  0.2411
52374W        W95312  33.783  22.696  29.149  0.3837 -0.0452  0.2314
52375W        W95313  33.157  23.382  31.395  0.2514 -0.0489 -0.1925
52376W        W95314   0.306  25.995  30.585 -0.0287 -0.1282 -0.2209
52377W        W95315   1.133  25.520  28.660 -0.2220 -0.1742  0.1120
52378W        W95316  33.595  23.506  28.301  0.0767  0.0155  0.3136
52379W        W95317  33.044  24.408  29.446 -0.2810 -0.0543  0.0540
52380W        W95318  34.694  23.263  29.461  0.0230  0.1758 -0.0562
52381W        W95319  33.999  25.051  29.881 -0.1766 -0.3742 -0.1229
52382W        W95320  32.178  24.392  28.012 -0.1849  0.1396 -0.3497
52383W        W95321   0.141  24.798  30.755  0.1627 -0.0844 -0.1912
52384W        W95322  33.859  24.303  28.443  0.0912 -0.0102 -0.0505
52385W        W95323   0.742  24.008  29.166  0.1328 -0.2836  0.1339
52386W        W95324  33.483  23.108  31.111  0.1643 -0.3109  0.0071
52387W        W95325  32.860  23.989  29.242  0.0874 -0.0050 -0.2684
52388W        W95326  33.016  25.789  26.458  0.2444 -0.1282 -0.0273
52389W        W95327  34.428  24.074  26.607 -0.3816 -0.0583 -0.1931
52390W        W95328   1.310  21.782  28.875 -0.1957 -0.1463 -0.0420
52391W        W95329  33.373  24.172  29.763  0.0728 -0.0873 -0.0018
52392W        W95330  33.182  23.288  30.400 -0.1008  0.0781 -0.1298
52393W        W95331  34.355  24.859  29.395 -0.1531  0.0223  0.1560
52394W        W95332  33.899  22.643  29.614  0.2567 -0.0318 -0.1525
52395W        W95333   0.969  23.995  27.653 -0.1746 -0.3328 -0.1592
52396W        W95334  33.214  24.797  30.396  0.0603 -0.0137  0.2477
52397W        W95335  32.864  23.264  29.951  0.1618 -0.0458 -0.0593
52398W        W95336  34.349  21.600  27.171  0.1257  0.1049 -0.3859
52399W        W95337  32.592  24.501  30.535  0.3290  0.4231  0.2438
52400W        W95338  34.671  24.471  29.588  0.0979 -0.2114 -0.0245
52401W        W95339  33.269  22.491  28.139 -0.2296 -0.3952  0.0911
52402W        W95340  34.164  23.368  28.064  0.3705 -0.1057 -0.0821
52403W        W95341  32.879  25.609  31.329  0.1035 -0.0452 -0.1560
52404W        W95342  34.513  24.101  30.614  0.0813 -0.1438 -0.0637
52405W        W95343   0.010  24.350  31.709 -0.0933  0.1787  0.0215
52406W        W95344  34.267  25.491  27.629  0.2161 -0.1751  0.1282
52407W        W95345  32.429  24.265  29.241 -0.0497  0.3024  0.1829
52408W        W95346  33.859  25.471  26.878 -0.3211 -0.0275  0.1979
52409W        W95347  32.872  21.786  28.329  0.0966  0.2612  0.2544
52410W        W95348   1.010  25.430  30.853 -0.1908  0.1051  0.4014
52411W        W95349   0.125  21.959  31.419 -0.0735 -0.0217 -0.0124
52412W        W95350  32.757  25.736  27.991 -0.0408  0.3239  0.0217
52413W        W95351  32.440  23.298  30.340  0.1687  0.0758 -0.1705
52414W        W95352  33.762  23.755  29.708  0.2372 -0.1164  0.0941
52415W        W95353  34.027  21.471  31.889 -0.1236 -0.4832  0.2265
52416W        W95354  33.327  23.744  30.129 -0.3556 -0.2791 -0.3291
52417W        W95355  32.184  22.691  27.545 -0.0376 -0.0361 -0.1819
52418W        W95356  34.606  23.976  28.777  0.1212 -0.0174  0.2820
52419W        W95357  33.047  24.505  27.842 -0.0892 -0.0481 -0.1323
52420W        W95358  33.139  22.757  30.832 -0.0462  0.0930  0.1883
52421W        W95359  34.041  23.205  29.340 -0.1622 -0.2961  0.2964
52422W        W95360  33.171  25.263  29.579 -0.0534  0.0949 -0.2775
52423W        W95361  34.386  24.884  30.972  0.1477  0.0836  0.2915
52424W        W95362   0.254  22.350  30.488  0.0006 -0.0309  0.0849
52425W        W95363  33.378  23.861  30.608 -0.0631  0.0847  0.1796
52426W        W95364  33.779  22.261  27.689 -0.3040 -0.2815 -0.1804
52427W        W95365  33.043  25.057  26.923 -0.0966 -0.0926 -0.4116
52428W        W95366  33.040  22.963  29.539 -0.4471 -0.0485 -0.0383
52429W        W95367   0.264  25.447  29.794  0.0068 -0.2461 -0.0176
52430W        W95368  33.714  24.821  30.965  0.0579  0.1598  0.1856
52431W        W95369  33.960  21.911  27.374  0.1626  0.0358  0.0322
52432W        W95370  32.879  25.745  29.574  0.4148 -0.4194  0.0034
52433W        W95371  32.726  24.985  30.207 -0.0071  0.1569  0.1082
52434W        W95372   0.686  24.563  28.339 -0.1474  0.0934  0.1302
52435W        W95373   0.443  24.203  29.538 -0.0208  0.4012 -0.3359
52436W        W95374  34.113  26.358  29.214 -0.0864 -0.0504  0.1152
52437W        W95375   1.064  23.027  29.026  0.1190  0.1550 -0.2719
52438W        W95376  34.536  23.178  27.457  0.1055  0.1171  0.2475
52439W        W95377  33.549  26.839  27.065 -0.1490 -0.3197 -0.0262
52440W        W95378  33.730  23.476  31.488  0.2776 -0.0655 -0.3831
52441W        W95379  33.006  23.448  27.424 -0.2325 -0.1626  0.0182
52442W        W95380  34.460  23.204  30.953  0.2816  0.0730  0.5695
52443W        W95381  33.402  25.748  29.530 -0.3634 -0.0221 -0.1499
52444W        W95382  33.061  25.629  29.128 -0.0855 -0.1744  0.1894
52445W        W95383   1.488  23.358  30.942  0.2843 -0.0860  0.2153
52446W        W95384  34.047  24.819  28.394 -0.0191 -0.2675 -0.3413
52447W        W95385  33.533  24.442  27.130 -0.4287  0.0062 -0.1505
52448W        W95386  34.417  22.353  30.522  0.0638  0.1172  0.0140
52449W        W95387   0.223  23.598  29.869  0.0442  0.0610  0.2917
52450W        W95388  33.580  23.578  27.795  0.2913  0.4976 -0.2849
52451W        W95389  34.385  25.269  28.594 -0.2026  0.1007  0.0021
52452W        W95390  33.320  24.991  29.189 -0.0813  0.0053 -0.1735
52453W        W95391   2.148  21.821  28.327  0.0988  0.0853  0.0949
52454W        W95392  34.299  23.542  29.653  0.2216 -0.0923  0.1158
52455W        W95393  34.618  22.894  30.360  0.1115 -0.1448 -0.1168
52456W        W95394  34.591  21.897  30.058 -0.1784 -0.1059  0.2465
52457W        W95395  32.698  26.598  29.537 -0.2188 -0.1619  0.0399
52458W        W95396  34.526  22.074  31.793 -0.0255  0.0203 -0.3616
52459W        W95397  32.783  23.499  29.487  0.1299  0.0468 -0.3234
52460W        W95398   0.385  21.991  30.085  0.2028  0.3441  0.1269
52461W        W95399  34.266  24.470  27.526 -0.0326  0.2026  0.0586
52462W        W95400   0.576  22.673  28.302  0.0073 -0.1295 -0.0583
52463W        W95401  33.646  25.023  28.066  0.0228 -0.1779  0.1616
52464W        W95402  33.930  22.444  31.391  0.3975  0.1020  0.0885
52465W        W95403  33.881  24.144  31.684  0.0257  0.1848 -0.2418
52466W        W95404  34.535  22.041  28.443  0.0285 -0.3215 -0.1261
52467W        W95405   0.086  22.785  29.015  0.0330  0.2845  0.0589
52468W        W95406   0.818  22.818  29.806  0.0238 -0.2271 -0.1159
52469W        W95407  33.412  23.897  31.531 -0.2975 -0.1177 -0.0038
52470W        W95408  34.235  24.591  26.541  0.1198  0.1214  0.1726
52471W        W95409  32.614  24.113  30.212 -0.0887  0.3435  0.3961
52472W        W95410  34.059  24.074  27.836  0.0081 -0.0560  0.0574
52473W        W95411   1.096  22.696  30.599 -0.1477  0.3328 -0.1690
52474W        W95412  33.504  25.452  29.107  0.1074 -0.2941 -0.0385
52475W        W95413  33.972  25.139  25.723  0.1402  0.2188 -0.0044
52476W        W95414  32.333  25.019  29.884 -0.1878 -0.0147 -0.1405
52477W        W95415   0.245  22.371  29.153  0.1321  0.1699 -0.0570
52478W        W95416  33.700  22.676  30.967 -0.2965 -0.1110  0.2384
52479W        W95417  33.395  22.587  30.349 -0.2669 -0.3492  0.2106
52480W        W95418  32.614  25.137  31.168  0.0033 -0.1951  0.0590
52481W        W95419  34.252  22.783  28.766 -0.1223 -0.0713 -0.3190
52482W        W95420  33.512  23.022  29.461  0.2749 -0.1194 -0.0009
52483W        W95421  34.026  24.199  28.928  0.1111 -0.2728  0.4037
52484W        W95422  33.291  23.829  29.368  0.0078  0.2061  0.4338
52485W        W95423  34.062  23.805  28.308  0.2028 -0.0900 -0.3306
52486W        W95424  34.083  21.828  29.385 -0.1639  0.0682 -0.1311
52487W        W95425   0.537  21.679   0.292  0.3643  0.0894 -0.0172
52488W        W95426  34.307  22.182   0.290 -0.2533 -0.2703  0.1826
52489W        W95427  34.017  21.892  31.591 -0.1023 -0.1381 -0.2803
52490W        W95428  31.075  23.579  29.765  0.0892  0.1291  0.0709
52491W        W95429  33.315  23.144  27.576  0.1677 -0.0659 -0.0759
52492W        W95430  33.670  24.983  29.531 -0.1632 -0.1952 -0.1951
52493W        W95431  31.431  23.793  30.098 -0.0358 -0.3608  0.1285
52494W        W95432  34.505  24.816   0.069 -0.2721  0.0319  0.0687
52495W        W95433  33.266  23.054  26.994 -0.3478  0.0108  0.0125
52496W        W95434  33.884  22.954  28.323  0.0450 -0.1221  0.1161
52497W        W95435   0.862  25.485  30.334  0.0104  0.0537 -0.0622
52498W        W95436  34.671  20.463  28.499 -0.1763  0.2121  0.0561
52499W        W95437  33.725  24.590  28.795  0.0242 -0.2209  0.1187
52500W        W95438  32.083  25.303  30.841 -0.0684 -0.3218 -0.0108
52501W        W95439  33.037  24.371  30.757 -0.0721  0.0714  0.0454
52502W        W95440  33.092  25.250  28.730  0.0145 -0.1832  0.1425
52503W        W95441  33.272  23.004  29.970  0.0192  0.2157  0.1559
52504W        W95442  34.398  22.786  29.926  0.0159 -0.1111  0.1480
52505W        W95443  34.056  23.646  30.079 -0.0966  0.1039 -0.2554
52506W        W95444  32.409  23.178  31.209  0.2253 -0.0456 -0.1398
52507W        W95445  33.540  21.642  30.783  0.0878 -0.0444 -0.3052
52508W        W95446  32.807  24.434  29.858 -0.2605  0.1282  0.2236
52509W        W95447  32.095  23.335  29.425  0.0687  0.0017 -0.0164
52510W        W95448  34.367  24.397  28.545 -0.3890 -0.2595 -0.0797
52511W        W95449  34.327  21.518  28.266  0.2902  0.1671  0.0373
52512W        W95450  32.357  24.338  28.475  0.0406  0.0055  0.0862
52513W        W95451  32.604  25.377  28.366 -0.0039 -0.1636 -0.4441
52514W        W95452  33.553  25.076  28.745 -0.1193 -0.2338 -0.0673
52515W        W95453  33.595  23.617  31.051  0.0810 -0.2380  0.3019
52516W        W95454  34.130  22.018  28.143  0.0892 -0.1219 -0.1611
52517W        W95455  34.661  22.663  30.890 -0.1360 -0.0591  0.3371
52518W        W95456  34.085  26.193   0.349 -0.2255 -0.2579 -0.0557
52519W        W95457   0.323  22.244  28.183 -0.1650  0.0671  0.0065
52520W        W95458   0.053  22.403  30.087 -0.0653 -0.3321 -0.1650
52521W        W95459  34.341  22.915  27.905  0.1325  0.1935 -0.1325
52522W        W95460  34.612  26.023  27.991 -0.0061  0.1689 -0.3389
52523W        W95461   0.667  24.603  30.796  0.5001  0.0934  0.1670
52524W        W95462   0.657  25.185  29.520 -0.3120  0.1444 -0.2130
52525W        W95463  32.554  22.034  27.967 -0.2522 -0.1539 -0.0324
52526W        W95464  33.051  24.250  31.424  0.0841 -0.3201 -0.2037
52527W        W95465  34.640  23.727  29.292 -0.1219  0.2619 -0.0813
52528W        W95466  34.502  23.584   0.657 -0.2214 -0.1608 -0.0764
52529W        W95467  34.502  23.250  28.970  0.2241  0.0229 -0.1456
52530W        W95468  32.955  21.823  28.926 -0.1456  0.1877 -0.3791
52531W        W95469  32.183  23.720  27.699 -0.1250  0.2393 -0.0282
52532W        W95470   0.251  22.611  29.636 -0.2821  0.0090  0.0135
52533W        W95471  34.304  22.755  29.335  0.2280 -0.3329  0.1735
52534W        W95472  33.890  25.388  28.348 -0.2549  0.0448  0.3000
52535W        W95473  33.610  23.036  30.612  0.1187  0.0952  0.1192
52536W        W95474   1.509  21.732  29.672  0.0440 -0.3527 -0.0276
52537W        W95475  33.786  22.844  30.108 -0.0777 -0.2266 -0.3380
52538W        W95476  31.868  24.742  27.941 -0.3613 -0.0853  0.1569
52539W        W95477  33.952  24.807  27.164  0.1501  0.0208  0.1090
52540W        W95478  34.084  24.490  31.027  0.2149  0.0268  0.0417
52541W        W95479   0.132  26.360  30.982 -0.0893 -0.0544 -0.1081
52542W        W95480   0.035  23.385  27.000 -0.2831  0.3053 -0.1308
52543W        W95481  33.927  24.243  29.714  0.0613  0.1399  0.0387
52544W        W95482  33.168  23.897  27.712  0.2445  0.1329 -0.0391
52545W        W95483   0.047  24.938  28.946 -0.0241 -0.1092  0.0331
52546W        W95484   1.629  23.617  28.497 -0.1154  0.1309 -0.1713
52547W        W95485   0.535  21.837  29.080  0.3764  0.2134  0.3544
52548W        W95486  33.912  23.689  31.965 -0.0107 -0.3579 -0.5173
52549W        W95487  33.615  22.798  27.814 -0.1363  0.0817 -0.1215
52550W        W95488  33.144  24.708  27.378  0.4873  0.0144 -0.0119
52551W        W95489  33.653  23.512  29.198  0.0579 -0.2252  0.0320
52552W        W95490   0.180  21.660  30.422  0.0468  0.1896 -0.2099
52553W        W95491  32.919  22.752  30.311 -0.1406  0.2565 -0.1009
52554W        W95492  32.128  22.172  29.465  0.1402 -0.0137 -0.0579
52555W        W95493  33.743  21.634  28.009 -0.0430 -0.0781 -0.3416
52556W        W95494   0.598  22.345  29.842  0.2522  0.2770  0.2736
52557W        W95495  33.946  22.431  30.427 -0.0249  0.0245 -0.2519
52558W        W95496   0.000  21.461  27.929  0.3955  0.5532  0.0643
52559W        W95497  32.653  24.252  27.582 -0.0441  0.1778 -0.2448
52560W        W95498  34.361  23.774  30.913 -0.1515 -0.1467 -0.0856
52561W        W95499  33.190  22.684  31.656  0.1870  0.0660  0.0470
52562W        W95500  33.160  23.760  28.192  0.2476 -0.0262  0.1721
52563W        W95501   0.413  23.167  29.050  0.1403 -0.0129  0.4145
52564W        W95502  34.621  23.964  29.731 -0.2897 -0.1741 -0.2916
52565W        W95503   0.313  25.468   0.670  0.1988  0.0611 -0.4774
52566W        W95504  33.305  22.478  31.208  0.1739  0.1903 -0.0930
52567W        W95505   0.475  25.546  30.716  0.0391 -0.0281 -0.0988
52568W        W95506  33.788  22.486   0.297  0.2469 -0.0248  0.0413
52569W        W95507  33.820  23.223  31.950 -0.0177  0.4412 -0.1050
52570W        W95508  34.287  23.002  31.781 -0.0065  0.0267  0.3546
52571W        W95509  31.566  23.543  29.377  0.0026  0.0220 -0.1235
52572W        W95510   0.007  22.683  27.572 -0.0035 -0.0186  0.0637
52573W        W95511   2.590  23.806  30.211  0.0608  0.1716 -0.1257
52574W        W95512  34.292  22.565  28.350  0.1451  0.0073 -0.0814
52575W        W95513   0.399  26.462  30.443  0.0439  0.1863  0.2651
52576W        W95514  33.018  21.862  30.000 -0.2247  0.4603 -0.2647
52577W        W95515  34.538  22.371  29.559 -0.1931  0.0205 -0.1909
52578W        W95516   0.009  23.223  27.973 -0.1111 -0.1562  0.1700
52579W        W95517   0.396  23.259  30.356  0.1596  0.1185 -0.1595
52580W        W95518  33.473  25.176  30.068  0.1932  0.2144 -0.2218
52581W        W95519  32.666  23.601  31.321  0.1443  0.1232 -0.1588
52582W        W95520  32.053  24.289  31.636  0.2461 -0.1999 -0.4507
52583W        W95521  34.195  24.153  30.137 -0.2119  0.3240 -0.2439
52584W        W95522  34.245  24.875  31.609  0.1997  0.2616  0.3317
52585W        W95523  34.000  23.287  30.884 -0.1086  0.1759  0.0653
52586W        W95524   0.773  22.386  31.737  0.2390  0.0213 -0.3392
52587W        W95525  34.161  24.540   0.430 -0.1458 -0.1303  0.2236
52588W        W95526  34.585  24.464  31.017 -0.0846  0.0534  0.1852
52589W        W95527  33.778  24.487   0.121  0.0436  0.0702 -0.1818
52590W        W95528  33.929  22.041   0.084 -0.0779  0.1055 -0.0981
52591W        W95529  34.220  21.535  30.641  0.0466  0.4599  0.1761
52592W        W95530  33.428  23.135  31.680  0.2824 -0.0732 -0.3005
52593W        W95531  32.887  24.743  31.580 -0.2037  0.1539  0.0135
52594W        W95532  31.964  23.812  31.807  0.1072  0.0719  0.2473
52595W        W95533  33.149  25.672   0.037 -0.1250  0.5887 -0.1612
52596W        W95534  32.454  24.077  31.458  0.1004  0.0156 -0.1439
52597W        W95535   1.189  22.271  29.757 -0.0229  0.1543  0.0214
52598W        W95536   0.262  24.293  30.707  0.0922  0.0476 -0.0600
52599W        W95537  32.947  23.832  31.701  0.2596  0.0657  0.2070
52600W        W95538  32.659  22.782  31.585 -0.1578 -0.1518 -0.0451
52601W        W95539  34.191  22.805  30.631 -0.0682 -0.2139  0.2660
52602W        W95540  33.317  25.125  30.759  0.1189 -0.0633 -0.2848
52603W        W95541   0.050  23.536  31.282 -0.4386 -0.0592 -0.1654
52604W        W95542   0.462  22.794  31.100  0.3522 -0.1097  0.0457
52605W        W95543   0.429  24.569  31.212 -0.1310  0.1907 -0.2774
52606W        W95544  33.063  23.351  30.920  0.4182 -0.1866 -0.0531
52607W        W95545   0.120  24.110  31.273 -0.2392 -0.0660 -0.4557
52608W        W95546   1.031  22.523   0.178 -0.1266  0.0154  0.0469
52609W        W95547  32.468  24.775   0.081  0.0687  0.0326 -0.0043
52610W        W95548   0.741  25.066   0.712 -0.0601 -0.0049  0.1237
52611W        W95549   0.749  24.082  31.101  0.1681  0.4442 -0.2110
52612W        W95550   0.797  24.492  31.965 -0.0662  0.0948 -0.1839
52613W        W95551  34.242  25.741  31.021 -0.2770 -0.2867  0.1781
52614W        W95552  33.830  25.195  31.437  0.2097  0.2248 -0.1999
52615W        W95553  33.894  22.905   0.896  0.3602  0.2320 -0.2036
52616W        W95554  31.902  23.374  31.526 -0.1638  0.1170 -0.0137
52617W        W95555  31.628  24.592  29.326  0.0428 -0.0842 -0.1090
52618W        W95556  31.555  24.859   0.429  0.1499  0.1750 -0.1710
52619W        W95557  32.512  21.392  31.607 -0.2357 -0.1436  0.1854
52620W        W95558  33.215  28.151  18.687  0.0620  0.1049 -0.2434
52621W        W95559   0.717  26.355  17.500  0.2620  0.2379  0.0552
52622W        W95560  31.777  27.200  16.928 -0.1756 -0.0718 -0.0153
52623W        W95561   0.026  25.239  18.112  0.2691  0.1030 -0.1585
52624W        W95562   0.766  27.619  18.185 -0.0909  0.0025 -0.0375
52625W        W95563   0.182  27.205  18.725 -0.0242 -0.3213 -0.2870
52626W        W95564  34.492  25.726  17.340  0.2041 -0.2431  0.3113
52627W        W95565  31.819  26.294  20.539  0.0852 -0.1968 -0.3611
52628W        W95566  32.166  26.981  18.203  0.0049  0.0535 -0.0758
52629W        W95567   0.299  26.788  18.367 -0.3071  0.2653 -0.1819
52630W        W95568  34.401  26.234  17.971  0.0130  0.1463  0.1141
52631W        W95569   0.256  25.829  20.115  0.1030 -0.0678 -0.1225
52632W        W95570   0.030  29.147  17.632 -0.0364  0.1078 -0.1541
52633W        W95571  32.321  25.835  16.849  0.0354 -0.1079 -0.2629
52634W        W95572  34.109  27.498  18.164  0.1277 -0.0236  0.1041
52635W        W95573  33.212  27.215  19.461  0.2736  0.0283  0.2918
52636W        W95574  32.888  29.147  18.027  0.0080 -0.1109  0.2394
52637W        W95575   1.060  29.499  19.450  0.2281  0.1410  0.0124
52638W        W95576  32.917  27.614  19.408 -0.0227  0.0475  0.0961
52639W        W95577  33.195  29.678  17.588  0.0290  0.0719 -0.2251
52640W        W95578  34.354  29.683  17.254 -0.0134 -0.0347 -0.1121
52641W        W95579   0.211  29.471  18.687 -0.0393 -0.1337  0.2358
52642W        W95580  32.803  27.976  15.982  0.1893  0.2232 -0.1073
52643W        W95581  34.286  27.976  18.924 -0.0409 -0.0818  0.0889
52644W        W95582   1.086  27.796  17.151  0.1769  0.1735 -0.3608
52645W        W95583   0.272  27.366  17.508  0.0450 -0.2668 -0.0319
52646W        W95584  32.817  28.094  19.574  0.2227 -0.0297 -0.1001
52647W        W95585  33.230  29.207  18.518 -0.0769 -0.0545 -0.1396
52648W        W95586  33.421  27.388  17.757  0.4262  0.0680  0.3311
52649W        W95587  32.836  26.203  15.874  0.0870  0.0845  0.0694
52650W        W95588   0.081  26.117  17.691 -0.1048  0.1874 -0.0428
52651W        W95589  33.994  28.657  18.638  0.3511  0.1977 -0.1651
52652W        W95590  33.454  25.330  18.954 -0.1345 -0.0189  0.1125
52653W        W95591  32.745  30.102  19.748  0.3546 -0.0247  0.0370
52654W        W95592   0.451  27.318  18.321  0.0637  0.0092  0.4259
52655W        W95593  34.108  26.618  17.778  0.2264  0.0793 -0.2766
52656W        W95594   0.347  26.886  19.137 -0.2459  0.0230 -0.1825
52657W        W95595  32.742  28.005  18.943 -0.0151 -0.3598 -0.0812
52658W        W95596  34.211  26.366  16.444  0.0570 -0.0147  0.0105
52659W        W95597  33.899  29.942  18.867  0.1946 -0.1817  0.3743
52660W        W95598  34.301  27.875  18.451 -0.0331  0.5094 -0.0833
52661W        W95599  33.292  26.827  16.905 -0.1035  0.0492  0.0420
52662W        W95600  34.323  27.213  16.204  0.3319 -0.4488  0.2659
52663W        W95601  34.478  30.344  17.798  0.1931 -0.0226 -0.0369
52664W        W95602  33.119  27.449  19.904 -0.1944  0.0851 -0.2622
52665W        W95603   1.582  28.477  18.108  0.1206  0.0477  0.1921
52666W        W95604  33.648  27.283  15.999 -0.3655 -0.2765 -0.1590
52667W        W95605  33.713  26.872  17.154 -0.0953 -0.0855  0.0602
52668W        W95606  33.336  28.489  16.897 -0.0757  0.0059 -0.2923
52669W        W95607  33.244  26.759  19.746  0.4047 -0.1783 -0.1553
52670W        W95608  32.269  26.946  19.485  0.2908 -0.0153  0.0133
52671W        W95609  33.929  25.784  18.213 -0.0021 -0.2330 -0.0558
52672W        W95610  33.975  26.339  16.004  0.0544 -0.2065  0.2370
52673W        W95611  33.503  27.828  18.457 -0.5640 -0.0524 -0.0966
52674W        W95612  32.340  27.047  17.359 -0.0714 -0.3887  0.2278
52675W        W95613   0.094  26.180  19.115 -0.1066  0.3658 -0.3318
52676W        W95614  33.521  26.881  18.783 -0.2101  0.3172 -0.1988
52677W        W95615  32.293  26.692  16.763 -0.0220 -0.1864 -0.1108
52678W        W95616  33.954  27.692  18.697 -0.1012  0.0373  0.0558
52679W        W95617  32.385  29.008  18.489  0.1458  0.1384  0.0986
52680W        W95618  34.156  26.224  19.677  0.1537  0.1398 -0.1275
52681W        W95619  33.060  26.354  16.584  0.0897 -0.0225  0.0361
52682W        W95620  32.280  30.304  18.205  0.1036 -0.1628  0.2363
52683W        W95621  33.823  28.102  18.990  0.3007  0.3694  0.4029
52684W        W95622  33.016  26.409  17.157 -0.1182  0.1230  0.0280
52685W        W95623  33.582  28.543  19.059 -0.2399 -0.3489 -0.0237
52686W        W95624  33.862  26.052  16.648 -0.3206  0.0357 -0.1217
52687W        W95625  33.602  28.840  16.462  0.2458 -0.1640 -0.0843
52688W        W95626  32.714  27.991  16.466  0.2783  0.1616 -0.1064
52689W        W95627  33.577  29.368  17.680  0.0116  0.0387  0.3480
52690W        W95628  33.826  26.364  21.185 -0.2391  0.1991 -0.0823
52691W        W95629  33.937  26.301  18.273 -0.2089  0.1038  0.1780
52692W        W95630  33.169  28.879  19.082  0.2033 -0.0704 -0.0902
52693W        W95631  32.939  28.679  19.534 -0.2373  0.3742  0.5980
52694W        W95632  33.531  27.859  17.959  0.2867  0.5294  0.1623
52695W        W95633  34.061  28.239  17.824 -0.1745 -0.1773 -0.2334
52696W        W95634  32.975  28.509  17.826 -0.4508 -0.0299  0.1477
52697W        W95635  34.510  25.592  19.874 -0.0630  0.1968 -0.1444
52698W        W95636  33.589  27.289  16.923  0.2200  0.1176 -0.1959
52699W        W95637  32.118  29.035  16.890 -0.0320 -0.0005  0.0034
52700W        W95638  34.588  26.326  20.089 -0.0299 -0.2088 -0.1932
52701W        W95639  33.967  26.613  18.735  0.0487  0.2636  0.1944
52702W        W95640  34.234  25.454  20.400 -0.3314  0.2182 -0.4579
52703W        W95641  31.722  28.045  19.506  0.0427  0.0367 -0.0808
52704W        W95642  32.762  29.879  18.931 -0.2461  0.1678  0.1056
52705W        W95643  34.537  26.772  19.860  0.1910 -0.2452 -0.2487
52706W        W95644  32.476  29.126  17.207 -0.0356  0.0687 -0.2382
52707W        W95645  34.202  28.088  16.202 -0.0743  0.1124 -0.1988
52708W        W95646  33.896  24.477  18.510  0.1437 -0.2766  0.2869
52709W        W95647  33.230  27.986  17.478  0.0055  0.0380 -0.0513
52710W        W95648  34.643  29.252  16.247  0.0318  0.2979 -0.1680
52711W        W95649  33.617  29.103  18.191  0.1447 -0.2017 -0.0275
52712W        W95650  32.398  29.661  17.093  0.1661 -0.2515 -0.0939
52713W        W95651  32.283  25.512  16.349  0.1671  0.1741 -0.3177
52714W        W95652  33.056  26.772  16.262 -0.0582 -0.1620  0.2115
52715W        W95653  33.658  26.418  19.672 -0.0816 -0.2804 -0.1464
52716W        W95654  33.750  26.143  17.831  0.1132  0.4625  0.3400
52717W        W95655  32.426  29.514  18.970 -0.1020  0.3211 -0.1752
52718W        W95656  33.920  27.245  19.580 -0.2003  0.1240 -0.3303
52719W        W95657  31.861  26.749  17.170 -0.0843 -0.1930 -0.1667
52720W        W95658  34.044  27.090  18.661  0.0614 -0.2243 -0.2141
52721W        W95659  33.187  27.140  17.301  0.0522 -0.0526  0.3679
52722W        W95660   0.278  27.087  17.946  0.1148  0.0372 -0.4960
52723W        W95661  33.356  27.482  16.387 -0.1779 -0.0167  0.0167
52724W        W95662  33.010  26.124  19.044 -0.0711 -0.0902  0.1045
52725W        W95663   0.540  25.813  17.983  0.0691  0.1719 -0.1744
52726W        W95664  34.669  25.753  16.880 -0.0688  0.2320 -0.0373
52727W        W95665  34.313  27.830  17.618  0.2593  0.0367  0.1838
52728W        W95666   1.036  27.722  17.716 -0.0283  0.1326 -0.0826
52729W        W95667  32.442  28.328  19.361 -0.0854  0.1516  0.1025
52730W        W95668  32.619  27.197  17.814 -0.4181 -0.1695  0.1423
52731W        W95669  31.732  27.392  19.300  0.1428  0.0695 -0.1794
52732W        W95670   0.702  27.667  16.812  0.0784 -0.0213  0.2578
52733W        W95671   0.895  26.177  18.052 -0.0333 -0.0431  0.1402
52734W        W95672  32.873  28.493  19.005  0.1943  0.0968 -0.1066
52735W        W95673  33.935  27.693  17.018  0.2969 -0.3228 -0.0964
52736W        W95674  34.115  28.969  18.051 -0.0903  0.0511 -0.3482
52737W        W95675  33.926  27.550  17.718 -0.0531  0.0365  0.2384
52738W        W95676  33.324  25.022  18.178  0.1866 -0.1556  0.0557
52739W        W95677  32.985  26.653  19.108 -0.1692 -0.0673  0.1468
52740W        W95678  33.863  26.230  20.175  0.1165 -0.0956 -0.0262
52741W        W95679  33.351  26.221  17.450 -0.1988 -0.0812 -0.2653
52742W        W95680  32.455  26.785  19.050 -0.0770 -0.3817 -0.1514
52743W        W95681  33.130  27.197  16.054  0.0047  0.1191 -0.4364
52744W        W95682  33.184  27.277  18.999 -0.1045 -0.1227 -0.0396
52745W        W95683  34.382  26.789  15.489 -0.0680 -0.0068  0.3790
52746W        W95684  33.611  26.443  16.415 -0.1811 -0.0550 -0.1273
52747W        W95685  31.851  25.736  20.196  0.1013 -0.1648 -0.0075
52748W        W95686  33.446  27.677  19.417 -0.0209  0.1691 -0.1004
52749W        W95687  32.692  27.272  20.928  0.3467 -0.2943 -0.1680
52750W        W95688  33.665  27.270  18.365 -0.2903 -0.0470  0.2477
52751W        W95689  33.914  26.064  15.595 -0.0254 -0.3381 -0.3204
52752W        W95690   0.728  29.112  16.662  0.1218 -0.1935 -0.1303
52753W        W95691  32.690  25.792  19.631  0.0998  0.1725 -0.1720
52754W        W95692  32.575  28.372  21.276 -0.1889  0.0313  0.0593
52755W        W95693  32.345  26.197  15.947  0.2065 -0.0369 -0.2958
52756W        W95694  34.013  27.012  15.834 -0.1343  0.0610 -0.1257
52757W        W95695   0.626  27.722  17.331 -0.2414  0.1438 -0.3104
52758W        W95696   0.047  25.244  17.610 -0.1047 -0.0118  0.0781
52759W        W95697  32.709  29.619  17.884 -0.0011  0.0364  0.1817
52760W        W95698  34.280  29.726  18.451  0.1021 -0.1007 -0.1685
52761W        W95699  31.988  27.896  19.961  0.2050  0.1160 -0.0248
52762W        W95700  34.459  29.632  17.765  0.0299 -0.2846  0.2663
52763W        W95701  34.614  27.498  17.959  0.1897 -0.0563 -0.0225
52764W        W95702  33.808  27.952  17.478 -0.1416 -0.0275  0.1494
52765W        W95703  33.201  28.247  19.317  0.0715 -0.0988  0.0308
52766W        W95704  32.178  26.868  20.071  0.3741 -0.2240  0.1856
52767W        W95705  34.357  24.774  16.770  0.1577  0.2046 -0.1702
52768W        W95706  33.654  26.624  20.565  0.1715 -0.1745  0.0519
52769W        W95707  32.637  28.746  18.089  0.1489  0.0875 -0.0069
52770W        W95708  32.413  28.592  17.115 -0.3074 -0.0548 -0.2877
52771W        W95709   0.227  25.880  16.366  0.0875 -0.1712  0.2481
52772W        W95710  33.236  28.821  18.155  0.2334 -0.0982 -0.3189
52773W        W95711  34.642  28.436  16.526 -0.0129  0.1845 -0.0802
52774W        W95712  33.929  28.894  17.193  0.0931  0.0215  0.1146
52775W        W95713   0.308  28.230  18.882 -0.1159 -0.1062  0.1196
52776W        W95714  33.403  25.979  16.685  0.3022  0.1018 -0.2974
52777W        W95715  33.419  28.715  19.687 -0.0146 -0.1441  0.0516
52778W        W95716  32.204  27.934  19.494 -0.1119  0.0129 -0.0491
52779W        W95717  33.151  25.895  16.261 -0.3932 -0.0317 -0.0539
52780W        W95718   1.126  27.919  18.354 -0.1412 -0.1955  0.2960
52781W        W95719  33.000  27.213  16.621  0.1435  0.2621  0.3061
52782W        W95720  33.981  29.486  18.073 -0.1104  0.3313 -0.3849
52783W        W95721  33.508  27.595  17.284 -0.3828 -0.0859  0.3035
52784W        W95722  33.659  31.461  18.523 -0.1667  0.1309 -0.0031
52785W        W95723  32.703  26.032  18.050  0.1312  0.1267 -0.1801
52786W        W95724  34.442  27.493  18.690 -0.0726 -0.1926 -0.0816
52787W        W95725  33.482  26.985  16.393 -0.0629  0.0430  0.1247
52788W        W95726  31.627  28.299  20.015 -0.2171 -0.0180  0.2624
52789W        W95727  34.593  26.528  17.449  0.0214 -0.0329 -0.0892
52790W        W95728  33.875  27.246  16.485 -0.1060  0.1223 -0.1092
52791W        W95729  32.019  27.570  16.664 -0.0613  0.0933  0.1552
52792W        W95730  34.274  26.205  19.103 -0.0863 -0.2530  0.1715
52793W        W95731  33.042  27.491  18.080 -0.3299  0.0809 -0.0601
52794W        W95732   0.388  29.456  16.607  0.0171 -0.3167 -0.1729
52795W        W95733  33.274  26.341  19.361 -0.0370 -0.1759 -0.1502
52796W        W95734  33.553  26.406  17.048 -0.0284 -0.1753  0.3076
52797W        W95735   0.701  26.906  16.725 -0.3469  0.2377  0.2455
52798W        W95736  33.705  28.604  18.080  0.0206 -0.0518  0.2917
52799W        W95737  33.970  28.556  16.301 -0.1203  0.1579 -0.1286
52800W        W95738  34.507  28.054  17.977  0.0239 -0.1320  0.2704
52801W        W95739  33.767  28.489  20.633  0.3521 -0.3261 -0.1132
52802W        W95740  33.545  28.029  17.023  0.0855 -0.1652 -0.3500
52803W        W95741  33.683  27.384  20.678 -0.0595  0.2298 -0.1369
52804W        W95742  34.689  27.385  16.547 -0.3958  0.0633  0.1014
52805W        W95743   1.153  29.948  17.008  0.0569  0.4100  0.1247
52806W        W95744   0.497  26.531  17.944  0.1579  0.1174 -0.2372
52807W        W95745  33.570  25.639  17.527  0.2556  0.0555  0.2154
52808W        W95746  33.862  28.185  18.503  0.2001 -0.0156 -0.1404
52809W        W95747  32.890  27.583  16.234  0.1981 -0.1870 -0.2712
52810W        W95748   0.325  28.800  16.532 -0.3185  0.0225  0.0122
52811W        W95749   0.359  26.420  18.759  0.1034 -0.0953 -0.1485
52812W        W95750   0.936  24.673  19.870  0.0758  0.0507 -0.3138
52813W        W95751   0.071  25.755  18.051  0.1478 -0.2179 -0.1458
52814W        W95752  33.638  28.218  16.525  0.2465  0.1453 -0.0989
52815W        W95753  33.519  26.862  17.716 -0.5314  0.0151 -0.1692
52816W        W95754  34.309  24.233  19.221 -0.2053  0.0711  0.0867
52817W        W95755  33.828  26.341  19.203 -0.0212  0.1901  0.1592
52818W        W95756  33.815  25.581  18.678 -0.0177 -0.2018 -0.2025
52819W        W95757  34.046  27.607  15.944  0.0951 -0.0207 -0.0244
52820W        W95758  34.020  26.876  19.159 -0.1459 -0.0474 -0.0800
52821W        W95759  33.595  25.940  19.550  0.0448 -0.1589  0.1358
52822W        W95760  32.810  26.752  16.770 -0.0575 -0.1684 -0.0549
52823W        W95761   0.717  28.100  18.088  0.2752 -0.1249 -0.0486
52824W        W95762  32.393  28.287  19.867 -0.3110 -0.1594 -0.0943
52825W        W95763  33.718  29.015  19.313 -0.0869  0.1916 -0.5228
52826W        W95764  32.032  25.537  19.433  0.1245 -0.0041  0.0038
52827W        W95765  32.923  28.434  19.954 -0.1616  0.2156 -0.0903
52828W        W95766  32.229  25.484  20.009  0.0611  0.1121  0.1145
52829W        W95767  33.304  27.760  20.659 -0.0345  0.4191 -0.0177
52830W        W95768  33.868  27.109  17.929 -0.1892 -0.0867  0.0707
52831W        W95769  33.295  26.927  18.272 -0.0825  0.1788 -0.0872
52832W        W95770   0.028  26.994  17.225 -0.2135  0.2759  0.2359
52833W        W95771  34.272  28.063  19.452  0.1820  0.1776  0.0748
52834W        W95772  33.237  26.349  16.134  0.1578 -0.2663 -0.0961
52835W        W95773  34.585  28.886  19.353 -0.3544  0.1325 -0.3509
52836W        W95774  33.808  26.020  17.264 -0.1767 -0.1182  0.1212
52837W        W95775   0.216  26.141  17.203  0.3304  0.3161  0.0081
52838W        W95776   0.846  28.179  17.567  0.0260 -0.0007 -0.0461
52839W        W95777  34.539  26.572  18.864  0.0639 -0.3396 -0.2624
52840W        W95778   0.723  29.460  18.716 -0.0422  0.2442  0.1443
52841W        W95779  32.882  27.469  22.961  0.3007 -0.0206  0.2310
52842W        W95780  32.848  26.633  22.411 -0.1657 -0.0430 -0.2159
52843W        W95781  32.925  26.462  21.217  0.0249 -0.0546 -0.0400
52844W        W95782  34.509  26.535  22.935  0.3930  0.0621 -0.0274
52845W        W95783  34.063  27.298  23.651 -0.0043 -0.0827  0.1600
52846W        W95784  33.201  27.791  23.844 -0.1333 -0.0039 -0.0685
52847W        W95785  34.529  25.868  21.276 -0.1558 -0.0033 -0.1064
52848W        W95786  33.129  25.530  21.557  0.0182 -0.3178 -0.0324
52849W        W95787  32.524  26.548  21.638  0.0573 -0.0166  0.0805
52850W        W95788  31.548  27.116  20.979 -0.3098 -0.1752  0.1087
52851W        W95789  33.682  27.107  21.482  0.0109  0.0524 -0.2517
52852W        W95790  34.104  26.319  22.212 -0.1267 -0.1742 -0.1711
52853W        W95791  33.757  29.468  20.209  0.0415  0.1946 -0.1288
52854W        W95792  33.169  27.417  20.973  0.0977 -0.3241 -0.2968
52855W        W95793  33.112  26.971  21.327  0.0034 -0.0333 -0.1051
52856W        W95794  32.848  27.161  21.827 -0.2496 -0.1651  0.1750
52857W        W95795   0.028  29.626  23.363 -0.1788 -0.0124 -0.0719
52858W        W95796  34.435  28.574  20.806 -0.0949 -0.0062  0.0533
52859W        W95797  34.348  27.875  21.258  0.1451 -0.2199 -0.0576
52860W        W95798  32.844  28.211  21.683 -0.1036  0.1994 -0.3461
52861W        W95799  33.498  27.616  20.257  0.0177  0.4760 -0.1027
52862W        W95800  34.371  28.670  23.174  0.0650 -0.2770 -0.0372
52863W        W95801  32.023  28.315  21.473  0.0626 -0.2126 -0.2281
52864W        W95802  33.841  28.993  23.104  0.0703 -0.1326  0.1347
52865W        W95803  33.628  26.725  20.071 -0.2567 -0.0991  0.0813
52866W        W95804  33.246  29.416  21.704 -0.0915  0.0009 -0.0778
52867W        W95805  33.641  28.209  23.809 -0.1464  0.1161  0.0892
52868W        W95806  32.292  27.051  20.922 -0.1018  0.0414 -0.0357
52869W        W95807  32.831  26.860  20.104 -0.0480 -0.0977 -0.0066
52870W        W95808  33.576  26.900  19.371  0.1823 -0.4168 -0.5097
52871W        W95809  33.932  25.820  20.487 -0.2756 -0.4449  0.1859
52872W        W95810  33.404  29.159  23.345 -0.0412  0.1466  0.2727
52873W        W95811  33.144  25.946  22.317 -0.2121  0.0542 -0.2300
52874W        W95812  33.679  27.966  23.405 -0.2331  0.0578  0.1923
52875W        W95813  32.772  26.307  22.071  0.1167  0.1365 -0.0954
52876W        W95814  31.731  28.970  22.634  0.0587 -0.1387 -0.2192
52877W        W95815  33.192  26.429  23.135 -0.0509 -0.0533 -0.1622
52878W        W95816  34.134  26.979  22.375 -0.0848 -0.2544 -0.0888
52879W        W95817  32.889  24.728  21.379  0.1942 -0.1038  0.0138
52880W        W95818  32.339  28.580  22.219 -0.0213  0.3556 -0.0057
52881W        W95819  34.404  27.272  21.519 -0.1964  0.2060  0.1740
52882W        W95820  33.704  27.273  19.048  0.1737  0.2214  0.0724
52883W        W95821  33.750  28.589  20.034  0.0752  0.1183 -0.2769
52884W        W95822  33.970  28.680  21.036 -0.1267  0.2138  0.0024
52885W        W95823  33.015  26.014  22.995 -0.0034  0.0605  0.0746
52886W        W95824  34.657  27.954  23.660 -0.4251 -0.1709 -0.0535
52887W        W95825  33.262  28.708  20.227 -0.2117  0.1376 -0.2125
52888W        W95826  31.255  28.760  21.888  0.1323 -0.1028  0.0947
52889W        W95827  31.672  26.762  21.590 -0.1048 -0.1794  0.1978
52890W        W95828  30.709  26.257  22.695  0.2194  0.3359 -0.1520
52891W        W95829  33.970  27.400  23.143  0.0722  0.1720 -0.3347
52892W        W95830  33.271  26.558  22.158  0.0282  0.2138 -0.0267
52893W        W95831   0.668  26.540  20.778 -0.1430 -0.0921 -0.0696
52894W        W95832  31.841  27.235  22.851 -0.0745 -0.1518  0.1216
52895W        W95833  33.963  27.563  22.647  0.2543 -0.2127  0.0426
52896W        W95834  33.800  27.690  23.982  0.0095 -0.1818  0.0024
52897W        W95835  31.742  25.698  22.317  0.0493 -0.0553 -0.1635
52898W        W95836  33.651  25.991  20.898 -0.1377 -0.1516  0.0485
52899W        W95837   0.173  26.672  20.897 -0.0320  0.0733  0.2825
52900W        W95838  33.529  26.920  20.916 -0.0036  0.0454  0.0750
52901W        W95839  33.197  27.110  23.107  0.0949  0.0364 -0.1537
52902W        W95840  34.043  26.751  19.695 -0.0579  0.0042  0.0807
52903W        W95841  32.626  28.322  22.652  0.0917 -0.1182  0.0739
52904W        W95842  33.984  27.706  22.186  0.1519 -0.1246  0.0274
52905W        W95843  33.311  27.162  20.351  0.1939 -0.3102  0.2303
52906W        W95844  32.687  29.167  24.792  0.2917 -0.0322 -0.2444
52907W        W95845  30.642  25.932  21.090  0.1347  0.0233  0.1321
52908W        W95846  32.186  28.691  19.083  0.0668  0.0620  0.1206
52909W        W95847  32.390  27.541  20.665  0.1832 -0.2777  0.2152
52910W        W95848  33.104  27.920  21.273  0.0566  0.2936 -0.0618
52911W        W95849  33.712  26.574  24.019  0.0806  0.0157 -0.0866
52912W        W95850  33.334  26.939  21.829 -0.1200  0.2211 -0.0211
52913W        W95851  32.125  28.774  23.327 -0.0863 -0.0447 -0.1606
52914W        W95852  32.858  28.526  24.232 -0.1428  0.1795  0.0383
52915W        W95853   0.613  27.421  20.294  0.4825  0.0752  0.1950
52916W        W95854  33.127  27.564  22.075  0.3008  0.3130  0.0508
52917W        W95855  32.709  27.765  21.862 -0.3517 -0.0627 -0.0194
52918W        W95856  33.870  25.791  21.913  0.6740  0.3455  0.0235
52919W        W95857  34.540  25.967  20.510  0.3127 -0.0286  0.0758
52920W        W95858  32.625  28.976  19.043  0.1377 -0.0899  0.0288
52921W        W95859  34.043  26.807  22.816  0.3074 -0.0316  0.3072
52922W        W95860  33.479  25.604  20.612 -0.0227 -0.0183 -0.3623
52923W        W95861  34.329  27.254  22.745  0.4638 -0.0756  0.0804
52924W        W95862  33.086  29.097  23.734  0.4712 -0.1929 -0.2894
52925W        W95863  32.159  29.150  22.902  0.3189 -0.2151  0.3376
52926W        W95864   0.573  26.814  24.626  0.2566  0.3438  0.1829
52927W        W95865  33.242  29.770  22.109 -0.0070  0.1469  0.4816
52928W        W95866  33.935  27.201  21.043 -0.4618 -0.0070  0.3818
52929W        W95867  31.133  25.270  21.657  0.1558 -0.0533  0.1642
52930W        W95868  33.673  27.487  21.869  0.0277  0.2282  0.1703
52931W        W95869  34.044  25.943  21.218  0.0202 -0.0303  0.1787
52932W        W95870  32.355  27.920  21.529 -0.1695  0.0472  0.1821
52933W        W95871  31.259  28.414  20.906 -0.0199  0.0356  0.1602
52934W        W95872  33.673  25.746  19.998  0.1473 -0.1347  0.2256
52935W        W95873  33.254  26.066  19.894 -0.1242 -0.1132  0.0327
52936W        W95874  32.097  27.682  22.913 -0.3107  0.0351 -0.2947
52937W        W95875  34.210  27.297  21.990  0.0628 -0.0935 -0.1607
52938W        W95876  33.111  28.039  22.237 -0.0531  0.3735 -0.1539
52939W        W95877  34.423  26.492  23.634  0.4730 -0.0243 -0.1180
52940W        W95878  33.041  26.929  20.799  0.0091  0.2608 -0.2277
52941W        W95879  33.178  26.803  22.699 -0.3634 -0.1171  0.0358
52942W        W95880  32.889  27.956  20.783 -0.1313 -0.0452 -0.1159
52943W        W95881  33.218  26.555  20.288  0.0125 -0.1639 -0.0841
52944W        W95882  34.099  27.696  20.877  0.1512 -0.0961 -0.0311
52945W        W95883  34.015  26.369  23.243 -0.0789  0.0595 -0.1405
52946W        W95884  34.318  26.034  21.689  0.2233 -0.2948 -0.0944
52947W        W95885  33.657  25.318  21.750  0.0403  0.0269 -0.1465
52948W        W95886  33.651  25.551  23.127 -0.2152  0.3040 -0.2162
52949W        W95887   0.939  26.874  23.098 -0.1350 -0.2668  0.1217
52950W        W95888  33.044  28.829  24.907 -0.2988 -0.0412 -0.2019
52951W        W95889  33.217  27.771  18.960 -0.1164 -0.0037  0.1538
52952W        W95890  32.427  27.273  22.350 -0.1683 -0.0613 -0.3290
52953W        W95891  34.155  28.194  20.966  0.2255  0.0805 -0.0962
52954W        W95892  34.302  25.270  22.381 -0.2060  0.0067 -0.0802
52955W        W95893  32.778  25.532  20.979  0.1141 -0.0768  0.0177
52956W        W95894  34.151  28.153  20.445 -0.1696  0.0233  0.4354
52957W        W95895  33.098  27.889  23.334 -0.0065  0.1305 -0.1823
52958W        W95896   0.060  26.151  20.889 -0.0874  0.1195  0.0140
52959W        W95897  34.174  25.813  22.315  0.1029 -0.0858 -0.1387
52960W        W95898  32.091  27.103  23.262 -0.1634 -0.6169  0.2703
52961W        W95899  32.839  26.890  24.060  0.3629 -0.1019  0.5267
52962W        W95900   0.274  25.361  20.098 -0.1163  0.0586  0.0664
52963W        W95901   0.211  27.686  20.468 -0.1543  0.1892 -0.0336
52964W        W95902  33.929  28.532  19.409  0.3603  0.1849 -0.1320
52965W        W95903  31.538  26.981  22.573  0.0923  0.0147  0.2282
52966W        W95904  33.733  28.982  20.403 -0.1553  0.1448  0.0639
52967W        W95905  34.329  27.846  21.776  0.0983 -0.1737  0.0636
52968W        W95906  33.263  25.281  23.385  0.2271 -0.0521  0.0615
52969W        W95907  34.017  26.773  23.587  0.1187  0.1680 -0.2678
52970W        W95908  33.299  27.539  22.589 -0.1782  0.1856  0.1718
52971W        W95909  32.029  26.648  21.244 -0.0150 -0.3827  0.1458
52972W        W95910  33.156  25.779  19.367  0.0794  0.1029  0.0848
52973W        W95911  32.829  29.141  19.464  0.0542 -0.0693 -0.1964
52974W        W95912  32.644  25.692  21.491  0.2501 -0.1106 -0.1006
52975W        W95913  33.706  29.280  24.661  0.0707  0.1722 -0.3243
52976W        W95914  33.093  24.973  19.781 -0.1954 -0.0189  0.0079
52977W        W95915  33.994  26.053  18.719 -0.2783 -0.1580  0.0403
52978W        W95916  34.064  27.638  20.286  0.0540 -0.0969  0.4868
52979W        W95917   1.238  25.173  20.517  0.2134  0.3919  0.2334
52980W        W95918  33.996  27.561  21.447 -0.1030  0.0596 -0.0549
52981W        W95919  33.335  28.808  22.190  0.1057  0.2193 -0.0840
52982W        W95920  32.205  27.695  22.073 -0.1118  0.0709 -0.0593
52983W        W95921  33.379  28.208  20.885  0.0238 -0.1437  0.0184
52984W        W95922  33.730  26.654  22.414 -0.0329  0.0681 -0.0006
52985W        W95923  32.191  26.914  21.659  0.1207  0.1562  0.0342
52986W        W95924  33.342  28.010  21.766 -0.3106 -0.0920 -0.1361
52987W        W95925  31.968  26.667  22.756 -0.1638  0.2043  0.0977
52988W        W95926  33.556  24.955  20.704 -0.2433  0.0000 -0.1818
52989W        W95927  33.617  28.847  24.820 -0.0515 -0.3093  0.1738
52990W        W95928  31.565  28.300  21.834 -0.0673  0.2055  0.1714
52991W        W95929  32.384  27.434  21.695  0.2436  0.3591  0.1726
52992W        W95930  34.427  27.099  20.947  0.2473  0.1319  0.2625
52993W        W95931  32.793  28.216  20.366 -0.1772 -0.0670 -0.1098
52994W        W95932  31.564  27.482  20.300 -0.0716  0.0462 -0.0452
52995W        W95933  33.322  28.705  20.703 -0.2179 -0.1417 -0.1458
52996W        W95934  33.266  27.134  22.299  0.2248 -0.1704 -0.1628
52997W        W95935  34.158  26.693  20.167  0.3951  0.3752 -0.3505
52998W        W95936  33.664  27.059  23.877  0.1858  0.2977 -0.0408
52999W        W95937  32.397  27.294  22.833 -0.1378 -0.0611 -0.0412
53000W        W95938  33.177  26.000  21.202 -0.3258  0.0255  0.0604
53001W        W95939  33.774  28.045  20.103 -0.4169 -0.0902  0.0533
53002W        W95940  33.807  28.110  19.597  0.2405  0.0897 -0.3991
53003W        W95941  33.522  29.882  20.612 -0.2691 -0.3999  0.2895
53004W        W95942  32.263  26.161  21.493 -0.2585 -0.0638  0.0661
53005W        W95943  33.078  27.973  22.788 -0.0311 -0.0582 -0.2913
53006W        W95944  32.911  26.458  20.632 -0.1560 -0.0263 -0.1848
53007W        W95945  32.548  27.533  23.324 -0.1953  0.1216  0.4269
53008W        W95946  33.035  26.605  21.715 -0.2813 -0.0388  0.1075
53009W        W95947  32.668  27.780  23.779 -0.2487 -0.1686  0.0386
53010W        W95948  34.374  27.212  20.064 -0.2499  0.0668  0.2544
53011W        W95949  32.685  25.216  21.717 -0.0235  0.1478 -0.1217
53012W        W95950  32.856  27.479  20.477  0.0903 -0.0424  0.0867
53013W        W95951   0.488  26.724  23.211 -0.0779  0.3057 -0.0283
53014W        W95952  32.288  25.585  20.934 -0.0937  0.2653  0.2627
53015W        W95953  32.699  29.216  21.330  0.0952  0.0018  0.0364
53016W        W95954  31.683  25.993  22.760 -0.1017  0.0560 -0.1213
53017W        W95955  32.319  26.047  22.002  0.1314 -0.1135  0.1421
53018W        W95956  32.823  28.536  22.094  0.2233  0.3846 -0.0973
53019W        W95957  32.520  28.719  21.742 -0.0910  0.1709 -0.1023
53020W        W95958  34.013  29.367  19.117 -0.3376 -0.1545 -0.1183
53021W        W95959  33.933  27.908  23.031  0.0050  0.3612 -0.1422
53022W        W95960  32.053  28.756  24.618  0.0149 -0.0589 -0.0240
53023W        W95961  33.609  27.591  21.132  0.2788  0.0775 -0.1719
53024W        W95962  34.403  28.138  23.239 -0.2624 -0.3365 -0.0079
53025W        W95963  34.695  28.177  19.845 -0.0454 -0.1803  0.2277
53026W        W95964  32.540  29.537  20.876 -0.3882  0.0473  0.0896
53027W        W95965   0.841  25.854  21.720 -0.1664  0.0197 -0.1055
53028W        W95966  34.495  26.609  22.386  0.2023  0.0560 -0.0749
53029W        W95967  33.668  27.030  23.299  0.0545 -0.2085 -0.2401
53030W        W95968  31.460  27.265  21.647 -0.1242 -0.1239  0.1892
53031W        W95969  32.745  27.145  19.281  0.1944  0.0009 -0.0554
53032W        W95970  32.646  27.703  22.426 -0.0161  0.1454 -0.0086
53033W        W95971  33.732  25.929  23.514  0.1044  0.1417  0.1418
53034W        W95972  32.335  27.818  24.185 -0.0569 -0.1087  0.1114
53035W        W95973  32.624  26.947  21.350  0.0431  0.0601 -0.1983
53036W        W95974  33.139  24.928  18.772  0.0217  0.2439  0.1164
53037W        W95975  33.403  25.578  21.108 -0.2214  0.0994 -0.1513
53038W        W95976  32.719  26.463  22.921 -0.2144  0.2034 -0.0289
53039W        W95977  33.745  27.240  22.270 -0.1128  0.0874  0.1045
53040W        W95978  32.261  28.069  18.956  0.0850 -0.0389 -0.2662
53041W        W95979   0.213  26.219  23.584 -0.0717  0.4574 -0.1813
53042W        W95980  34.649  25.990  22.493  0.1347 -0.1308  0.1532
53043W        W95981  32.599  26.927  20.545 -0.2116 -0.0425  0.0831
53044W        W95982  34.687  27.163  22.375 -0.1634  0.1475  0.1639
53045W        W95983  34.229  28.110  22.703  0.2015 -0.0248 -0.1739
53046W        W95984  34.440  29.229  22.940 -0.2344 -0.2910 -0.2920
53047W        W95985  32.698  26.113  22.522 -0.0651 -0.2254 -0.2332
53048W        W95986  32.942  28.392  23.074 -0.2611 -0.0699  0.0938
53049W        W95987  32.653  27.037  23.156 -0.0598 -0.1191 -0.0566
53050W        W95988  33.687  28.300  24.353 -0.2670 -0.0356 -0.1815
53051W        W95989  33.040  25.873  20.742  0.2356  0.0885  0.1661
53052W        W95990  32.799  27.095  22.610 -0.2403  0.1492 -0.0740
53053W        W95991  34.562  27.763  20.140  0.1002 -0.3609 -0.2382
53054W        W95992  34.429  27.679  22.467  0.0980  0.2762  0.2389
53055W        W95993  34.063  26.698  20.955 -0.1701 -0.1116 -0.2114
53056W        W95994  34.225  29.591  21.518 -0.2050  0.4070  0.0940
53057W        W95995  33.572  26.156  22.128  0.1119 -0.3002 -0.0019
53058W        W95996  34.629  26.868  21.330 -0.0964  0.0049  0.3205
53059W        W95997   0.425  25.832  21.079  0.1405  0.0808 -0.1534
53060W        W95998  32.353  26.453  22.399 -0.1284 -0.2009 -0.1664
53061W        W95999  33.219  28.531  21.744  0.2100 -0.3258  0.2432
53062W        W96000  34.339  29.051  26.695 -0.0840  0.4350 -0.0983
53063W        W96001  33.737  27.468  25.802 -0.0671 -0.1319 -0.1301
53064W        W96002  32.625  26.057  25.676  0.2165  0.1549 -0.2956
53065W        W96003  34.426  25.066  26.560  0.3424  0.1040  0.1127
53066W        W96004  33.723  26.268  27.184  0.2032 -0.2442  0.0260
53067W        W96005  33.347  28.882  27.427  0.1369 -0.0674 -0.1153
53068W        W96006   0.162  26.012  24.494 -0.2536  0.1119 -0.1705
53069W        W96007  31.464  24.942  26.710 -0.0761 -0.1108  0.1938
53070W        W96008  31.097  26.924  24.631 -0.0607 -0.0411  0.3403
53071W        W96009  33.400  26.256  26.309  0.0578 -0.1711  0.0283
53072W        W96010   0.428  26.874  25.122  0.0544  0.2201  0.2338
53073W        W96011  34.089  25.890  26.530  0.0491 -0.0278  0.0898
53074W        W96012  33.067  28.319  23.647  0.3706  0.0504 -0.0108
53075W        W96013  31.644  26.414  23.343 -0.3185 -0.2497 -0.1012
53076W        W96014  32.324  25.305  26.710  0.1005 -0.3734  0.0080
53077W        W96015  34.241  29.598  26.687  0.0787 -0.0822 -0.0400
53078W        W96016   0.173  28.536  26.653  0.1090  0.2828  0.1311
53079W        W96017   0.259  28.862  25.884  0.0034 -0.0430 -0.0880
53080W        W96018  32.872  29.398  26.749 -0.1597  0.0039  0.1939
53081W        W96019  32.145  27.932  26.626  0.1377 -0.0100 -0.0657
53082W        W96020  33.646  27.406  25.180  0.2249  0.1242  0.1740
53083W        W96021  34.355  30.830  28.184 -0.3928  0.0160  0.1915
53084W        W96022  31.903  29.146  25.532  0.0487 -0.2158  0.1081
53085W        W96023  33.405  29.788  27.776  0.0142  0.3702  0.3549
53086W        W96024  33.373  28.689  23.889 -0.3914  0.1675  0.2924
53087W        W96025   0.089  26.976  27.895 -0.0918 -0.1940 -0.0399
53088W        W96026  33.930  27.186  27.313 -0.0366 -0.1519  0.1949
53089W        W96027  32.265  27.436  26.361 -0.2106  0.1535 -0.3972
53090W        W96028  33.153  28.778  25.417 -0.0635  0.0450 -0.0639
53091W        W96029  34.282  26.716  24.055 -0.1666  0.1985  0.3363
53092W        W96030   0.248  25.674  25.096  0.0190  0.1035  0.2023
53093W        W96031  32.841  28.408  25.691 -0.0071  0.1652 -0.0342
53094W        W96032   0.441  26.277  26.840 -0.2923  0.1916  0.3263
53095W        W96033  33.113  28.481  26.596 -0.1096 -0.0696  0.2658
53096W        W96034  33.048  27.485  25.915 -0.1354 -0.3478 -0.0478
53097W        W96035  32.374  27.787  25.613  0.1289 -0.0595 -0.1545
53098W        W96036  34.265  28.117  28.114  0.2530 -0.1347  0.2212
53099W        W96037  31.958  26.957  26.746  0.2379 -0.0821  0.0799
53100W        W96038  32.080  26.221  23.024  0.2823 -0.1623  0.1263
53101W        W96039  31.832  28.780  27.264 -0.1238 -0.0025  0.1354
53102W        W96040  34.470  28.089  26.093 -0.0134  0.0840  0.2249
53103W        W96041  33.583  26.432  23.487  0.0682 -0.0299 -0.1214
53104W        W96042  34.186  28.111  23.888 -0.0539 -0.0819 -0.0749
53105W        W96043  32.879  29.029  27.075  0.1812  0.1534  0.0111
53106W        W96044  34.015  25.824  27.159  0.2186 -0.1997 -0.0458
53107W        W96045  34.565  28.871  28.095  0.0638  0.1291  0.0185
53108W        W96046  32.927  27.367  24.905 -0.0140  0.0195 -0.1047
53109W        W96047  33.176  28.106  25.171 -0.0631 -0.1354 -0.1024
53110W        W96048  32.931  26.388  24.968 -0.0189  0.1680 -0.3732
53111W        W96049  33.313  25.646  25.515  0.2076 -0.1563 -0.5524
53112W        W96050   0.630  28.992  26.595 -0.1114 -0.1811 -0.2136
53113W        W96051  33.599  25.964  26.688 -0.0437 -0.1412  0.2831
53114W        W96052   0.157  28.386  25.650  0.4011  0.0940  0.0438
53115W        W96053  33.950  25.029  26.666 -0.2678 -0.3465  0.1231
53116W        W96054  33.062  25.978  24.098  0.0410 -0.3689  0.0092
53117W        W96055  34.486  27.371  27.436  0.0242 -0.1446 -0.0203
53118W        W96056  33.757  25.034  25.205  0.0751 -0.1415  0.1273
53119W        W96057  32.801  26.845  25.206  0.2771 -0.1794 -0.3365
53120W        W96058  33.895  26.789  25.009  0.0699 -0.0519  0.0323
53121W        W96059  32.394  28.228  23.854  0.1920  0.0335 -0.0791
53122W        W96060  34.420  25.988  26.043  0.2636 -0.2632  0.0935
53123W        W96061  34.046  25.576  23.493  0.1220  0.0862 -0.1132
53124W        W96062  32.965  28.062  26.035 -0.0492 -0.1712 -0.1426
53125W        W96063  33.805  28.064  26.093 -0.1582 -0.2628 -0.1737
53126W        W96064   0.042  26.321  24.011  0.2903 -0.1239 -0.1839
53127W        W96065  32.323  28.585  25.638 -0.1178 -0.2497 -0.0073
53128W        W96066  31.974  25.624  25.465  0.2949 -0.1727 -0.1677
53129W        W96067  32.466  28.151  25.293  0.1549  0.0185 -0.0392
53130W        W96068  32.790  28.310  24.893 -0.1360  0.1446 -0.1492
53131W        W96069  34.049  28.275  25.184 -0.3200  0.0855 -0.2840
53132W        W96070  32.960  27.993  27.628 -0.2394  0.0687 -0.1634
53133W        W96071  33.635  27.958  25.374  0.0601  0.1454 -0.2913
53134W        W96072  33.256  28.734  26.971  0.0548  0.0981  0.0469
53135W        W96073  33.009  28.486  27.282  0.2054  0.1647 -0.1257
53136W        W96074  34.689  27.577  25.449  0.1088  0.0098  0.0787
53137W        W96075  34.055  27.759  25.179 -0.2421 -0.0797 -0.0803
53138W        W96076  32.827  27.513  26.456 -0.1356 -0.1306  0.0343
53139W        W96077   0.675  23.886  26.313 -0.0331 -0.1349  0.0962
53140W        W96078  34.191  29.042  23.890 -0.0699 -0.0086  0.2039
53141W        W96079  30.912  29.809  24.105  0.1329  0.4047  0.0412
53142W        W96080   0.429  25.441  27.167  0.1108  0.1333  0.0628
53143W        W96081  32.871  28.053  24.165 -0.1065  0.1072  0.0073
53144W        W96082  33.602  25.810  27.460 -0.3496 -0.1088  0.1001
53145W        W96083  32.114  28.413  26.869  0.0812  0.3431 -0.2606
53146W        W96084  34.350  29.381  28.026  0.2027  0.1572  0.3070
53147W        W96085   0.059  26.596  27.551 -0.0515  0.1668  0.2068
53148W        W96086  33.969  28.580  24.008  0.0825  0.4237  0.0266
53149W        W96087   1.013  29.277  24.801  0.2187 -0.2535  0.3798
53150W        W96088  34.085  26.110  25.591 -0.0046 -0.3474 -0.1025
53151W        W96089  33.960  28.806  26.400  0.2548 -0.0893  0.1435
53152W        W96090  34.237  28.305  24.379  0.1393  0.0304  0.1098
53153W        W96091  32.168  28.307  24.876 -0.0594  0.0200 -0.0732
53154W        W96092  33.334  28.366  25.674 -0.0973  0.1181 -0.0509
53155W        W96093  32.692  26.372  23.984 -0.0564  0.0527  0.2776
53156W        W96094  31.967  26.400  24.965 -0.1595  0.0739  0.3918
53157W        W96095  33.322  26.587  25.181  0.2132 -0.3918 -0.2043
53158W        W96096  33.918  26.606  25.817 -0.0630  0.1040  0.0739
53159W        W96097  33.084  29.336  27.958 -0.0499  0.3595  0.1960
53160W        W96098   0.886  28.173  26.977  0.0679 -0.0913 -0.2832
53161W        W96099  32.774  26.584  23.433 -0.1442 -0.3290  0.2949
53162W        W96100  32.993  27.232  24.436  0.3415 -0.0835 -0.0445
53163W        W96101  32.565  28.629  26.219 -0.1208  0.3140  0.0842
53164W        W96102  33.134  27.313  23.971 -0.3554 -0.0436  0.0181
53165W        W96103  32.375  28.539  27.307 -0.2435 -0.0051 -0.2360
53166W        W96104  33.563  27.254  26.606 -0.2881 -0.0976  0.1372
53167W        W96105  34.539  25.894  25.369 -0.1567 -0.1581  0.1932
53168W        W96106  31.666  29.045  24.814 -0.0844 -0.1500  0.0232
53169W        W96107  33.979  26.785  24.472  0.0073 -0.2591 -0.2796
53170W        W96108  33.217  26.165  26.959  0.2882 -0.0315 -0.2372
53171W        W96109  32.808  29.026  27.590  0.1679 -0.0327 -0.0415
53172W        W96110  32.925  29.165  25.270 -0.4023 -0.1900 -0.3142
53173W        W96111  33.250  27.643  25.363  0.2247  0.0912  0.2814
53174W        W96112  31.692  28.412  24.725  0.2005  0.0633 -0.0337
53175W        W96113  34.635  26.010  26.622 -0.0994  0.0201 -0.0953
53176W        W96114  34.326  29.007  25.968  0.0850 -0.1328  0.4068
53177W        W96115  33.404  29.246  25.173 -0.0389 -0.1146 -0.1196
53178W        W96116  33.235  27.724  26.667 -0.0656 -0.0814 -0.0710
53179W        W96117  34.415  25.730  24.281 -0.0513 -0.2550 -0.0960
53180W        W96118  34.039  25.518  26.109 -0.1411  0.0832 -0.0978
53181W        W96119  32.184  25.816  26.004 -0.0919  0.3485  0.0557
53182W        W96120  33.921  27.785  27.857  0.0939  0.2135 -0.0801
53183W        W96121  32.410  26.805  22.715 -0.0138  0.1078  0.0733
53184W        W96122  33.260  27.755  27.347  0.1907 -0.2953  0.0440
53185W        W96123  33.391  27.545  24.779 -0.0142 -0.0431 -0.0502
53186W        W96124   0.051  27.919  27.908  0.0659 -0.0027  0.2034
53187W        W96125   0.390  27.097  25.605  0.1676  0.0713 -0.0601
53188W        W96126  33.071  27.999  24.640 -0.2065 -0.0503  0.1918
53189W        W96127  32.694  26.827  27.747 -0.1362 -0.0993  0.1761
53190W        W96128  34.436  26.656  26.667 -0.0805 -0.1586  0.0828
53191W        W96129  33.578  27.446  27.562  0.0844 -0.0566 -0.0939
53192W        W96130  33.835  26.388  26.662  0.3883  0.0289 -0.2671
53193W        W96131  33.283  26.365  24.327  0.3223  0.0730  0.1680
53194W        W96132  33.932  28.441  24.755 -0.1780 -0.1328  0.0827
53195W        W96133  33.150  26.940  23.590 -0.0063 -0.4137 -0.0386
53196W        W96134  32.087  29.439  27.477 -0.0858  0.0781 -0.1293
53197W        W96135  32.591  25.784  22.965 -0.0939  0.0658 -0.1302
53198W        W96136  33.766  28.823  24.372  0.4170 -0.0505  0.0754
53199W        W96137  34.571  27.537  25.969  0.1578 -0.2906 -0.1794
53200W        W96138   0.822  27.037  24.104 -0.0113 -0.1692 -0.2698
53201W        W96139  32.447  27.244  24.933 -0.2696 -0.3071 -0.0025
53202W        W96140  33.927  29.414  27.009  0.1850 -0.0332 -0.4374
53203W        W96141  32.068  27.800  26.016  0.1971  0.5286 -0.1677
53204W        W96142   0.098  26.668  25.435 -0.2364 -0.0637  0.0662
53205W        W96143  34.077  27.921  25.655 -0.1129 -0.4174  0.1533
53206W        W96144  32.685  27.161  26.111 -0.1222 -0.1722 -0.0861
53207W        W96145  33.673  28.433  26.607  0.0315  0.0725  0.0948
53208W        W96146  32.875  25.528  27.036 -0.0804  0.3433  0.0679
53209W        W96147  33.100  26.023  23.551  0.0091  0.1825 -0.1885
53210W        W96148  32.391  29.020  27.183  0.3401 -0.0494 -0.2155
53211W        W96149  32.080  26.921  27.237 -0.1281 -0.2457 -0.0533
53212W        W96150  33.654  30.989  25.683 -0.2552 -0.0531 -0.0834
53213W        W96151  33.952  27.891  24.403 -0.0265  0.2428 -0.1007
53214W        W96152  33.833  28.361  25.687  0.1396  0.0949 -0.0553
53215W        W96153  33.450  29.538  23.799 -0.0946  0.0434 -0.1659
53216W        W96154  32.459  29.151  25.444 -0.1217  0.2562  0.0406
53217W        W96155  34.225  26.435  26.289 -0.1353 -0.0581 -0.0437
53218W        W96156  32.218  25.218  24.076 -0.2194 -0.1230 -0.1602
53219W        W96157   0.079  28.423  28.090  0.0496 -0.1667 -0.0918
53220W        W96158  32.322  29.831  26.739  0.1429  0.1708 -0.0848
53221W        W96159  33.309  28.445  24.727  0.2870  0.0161 -0.2665
53222W        W96160  34.294  26.859  25.392 -0.2243  0.1989 -0.1617
53223W        W96161  34.042  27.158  24.161 -0.1627  0.0558  0.1432
53224W        W96162  34.132  28.208  26.459  0.1481 -0.0185 -0.0514
53225W        W96163  33.649  28.488  27.186 -0.2526  0.1222 -0.0640
53226W        W96164  34.689  29.445  27.053 -0.2076 -0.0249  0.0901
53227W        W96165  31.512  26.798  25.259 -0.0797 -0.1641  0.2258
53228W        W96166  33.721  26.678  26.254  0.1769 -0.1725 -0.1386
53229W        W96167  33.554  27.041  24.744 -0.0683  0.1724  0.4131
53230W        W96168  33.404  26.662  26.649  0.0337  0.1156 -0.0749
53231W        W96169   0.915  26.435  23.990 -0.2071 -0.1008  0.1169
53232W        W96170  33.801  25.485  25.418  0.0434  0.0402 -0.0351
53233W        W96171  33.377  26.837  24.260 -0.0952 -0.0948 -0.1049
53234W        W96172  33.840  26.458  25.351  0.2178 -0.3444 -0.2197
53235W        W96173  32.766  25.024  25.204  0.1417 -0.1366 -0.1867
53236W        W96174  33.708  29.816  21.292 -0.0103 -0.3261 -0.2558
53237W        W96175  33.078  26.789  24.653  0.0355 -0.1914 -0.0384
53238W        W96176   0.976  26.152  25.943  0.0013  0.0707 -0.1517
53239W        W96177  34.367  27.238  26.415 -0.1057 -0.0873 -0.1545
53240W        W96178  33.638  28.806  25.555 -0.3887 -0.1281  0.1829
53241W        W96179   0.240  28.406  25.099 -0.3148  0.0004 -0.2418
53242W        W96180   0.086  27.650  26.387  0.1164 -0.1099 -0.1050
53243W        W96181  33.910  29.646  27.937 -0.0289  0.1659  0.3368
53244W        W96182  32.630  27.360  24.115 -0.3464 -0.1736 -0.1474
53245W        W96183  34.165  29.690  28.396  0.2014 -0.2951  0.0425
53246W        W96184  34.181  28.850  22.708  0.4200  0.2025 -0.2080
53247W        W96185   0.157  28.171  24.612 -0.0655 -0.0605  0.1943
53248W        W96186   0.644  28.466  26.685 -0.0678 -0.1241  0.0260
53249W        W96187  33.532  25.661  25.029  0.2162 -0.1442  0.2396
53250W        W96188  34.408  28.697  29.123  0.1230 -0.1214  0.1110
53251W        W96189  32.529  26.925  24.488  0.1516  0.0432 -0.1759
53252W        W96190  33.658  28.035  24.847 -0.0120  0.2015 -0.0347
53253W        W96191  33.476  27.579  26.217 -0.3989 -0.1052  0.1809
53254W        W96192  33.518  25.012  27.017 -0.1419  0.0736 -0.1361
53255W        W96193  33.770  27.993  28.303  0.3100 -0.0625 -0.1003
53256W        W96194  31.876  28.310  25.874 -0.1517  0.3096  0.0068
53257W        W96195  31.989  26.974  25.096 -0.2040 -0.0165  0.1231
53258W        W96196  33.735  26.939  25.425  0.3448  0.1621  0.2982
53259W        W96197  31.759  25.752  26.255 -0.1383  0.0541 -0.0229
53260W        W96198   0.513  26.217  24.183  0.1936  0.0640 -0.1180
53261W        W96199  33.445  27.860  24.326  0.2558  0.1081 -0.0720
53262W        W96200  34.461  25.900  27.484  0.0526 -0.0660 -0.1699
53263W        W96201   0.214  25.120  27.952  0.2870  0.0348  0.4635
53264W        W96202  32.579  26.071  25.103 -0.3177 -0.0540 -0.0811
53265W        W96203   0.642  25.846  25.399 -0.2547 -0.1123  0.0755
53266W        W96204  34.558  27.518  26.812  0.0713  0.0619 -0.1297
53267W        W96205   0.305  30.042  26.369 -0.3957  0.3355 -0.0687
53268W        W96206  33.158  24.978  27.835 -0.0724  0.1628  0.0488
53269W        W96207  33.680  28.798  27.837  0.1680  0.2505 -0.1871
53270W        W96208  31.906  25.279  26.420 -0.4289  0.2078  0.0918
53271W        W96209  33.965  28.632  28.246  0.3344  0.3403 -0.4779
53272W        W96210  32.776  24.703  25.807  0.0667  0.3317 -0.1837
53273W        W96211  33.610  26.549  24.714 -0.1233 -0.1594 -0.1237
53274W        W96212   0.932  26.809  24.966  0.0940  0.1968 -0.0839
53275W        W96213   0.747  28.011  25.820  0.0592 -0.0386  0.0253
53276W        W96214  33.412  27.887  25.840 -0.0573  0.0038  0.0185
53277W        W96215   0.912  29.775  27.181 -0.1568  0.1940  0.2227
53278W        W96216  33.515  25.703  26.262  0.3096  0.1433  0.1059
53279W        W96217  33.508  27.377  24.278  0.2175  0.1930 -0.1106
53280W        W96218   0.453  29.240  26.147 -0.1805  0.0767 -0.1314
53281W        W96219  33.024  26.964  25.750  0.0748  0.2410  0.4059
53282W        W96220   1.329  29.622  27.376 -0.1675 -0.1521  0.1230
53283W        W96221  34.383  29.198  30.018 -0.2125 -0.2645 -0.1236
53284W        W96222  33.954  27.534  28.914 -0.1025  0.0336  0.0501
53285W        W96223  33.157  26.641  29.281 -0.0026  0.0242  0.1667
53286W        W96224  34.363  25.028  30.437  0.2423 -0.0955  0.0642
53287W        W96225  34.615  26.553  30.240 -0.0956  0.0603 -0.0500
53288W        W96226  34.175  27.758  31.386 -0.0672 -0.4038  0.0407
53289W        W96227  33.323  26.895  28.420  0.1737 -0.1255 -0.3752
53290W        W96228  32.892  26.106  29.962 -0.0060 -0.3837 -0.2800
53291W        W96229  33.825  28.170  29.678  0.0961  0.1218  0.0999
53292W        W96230  33.221  27.411  29.739 -0.3644  0.1246 -0.1997
53293W        W96231  34.675  28.075  29.414 -0.0986  0.1530 -0.1376
53294W        W96232  34.461  25.640  28.917  0.4416 -0.0871  0.0448
53295W        W96233   0.643  29.909  29.008  0.1865  0.0030  0.1802
53296W        W96234  33.159  27.124  26.393 -0.0445 -0.1862  0.2910
53297W        W96235  33.969  27.614  29.575  0.3231 -0.0464  0.0060
53298W        W96236  33.094  28.217  31.146  0.1690 -0.2656  0.1510
53299W        W96237  33.124  29.591  29.965  0.1542 -0.0807 -0.2413
53300W        W96238   0.227  28.452  30.229 -0.3026  0.1844  0.1942
53301W        W96239  33.430  28.960  28.208 -0.1293  0.1414 -0.2139
53302W        W96240  31.681  29.460  28.939 -0.0466 -0.0152  0.4306
53303W        W96241  33.666  29.697  29.332 -0.0057  0.0825 -0.5342
53304W        W96242  34.547  28.699  29.924  0.0071  0.1855  0.1631
53305W        W96243  33.156  28.606  28.467 -0.1242  0.0598  0.2649
53306W        W96244  33.390  27.785  31.151 -0.3960  0.1049  0.1800
53307W        W96245  33.428  29.807  28.813  0.2757 -0.1462 -0.0629
53308W        W96246   1.055  30.108  30.667  0.2144 -0.0902 -0.1488
53309W        W96247  33.906  26.866  30.258  0.0838  0.1589  0.3022
53310W        W96248  32.831  28.682  30.841  0.3173  0.0297  0.1238
53311W        W96249  34.248  30.815  27.741 -0.0224 -0.2304 -0.1992
53312W        W96250  33.967  26.928  26.577  0.0028  0.0470  0.0048
53313W        W96251  34.613  23.202  29.953  0.1640 -0.0776 -0.0377
53314W        W96252  32.895  30.146  30.555 -0.1373 -0.0363 -0.0028
53315W        W96253  34.269  24.647  29.988  0.1653  0.3887 -0.1034
53316W        W96254   0.399  28.765  29.843 -0.0880  0.1251  0.4219
53317W        W96255  33.352  28.802  28.963 -0.0959 -0.3881 -0.1932
53318W        W96256   0.133  27.051  29.004  0.1077 -0.0178 -0.1600
53319W        W96257  33.375  28.688  31.868 -0.0166 -0.0247 -0.2088
53320W        W96258  33.405  28.109  30.710  0.0755 -0.1353  0.2625
53321W        W96259  33.753  25.495  27.853  0.0716 -0.0044  0.2268
53322W        W96260  33.224  27.773  31.622  0.0054  0.4150  0.2343
53323W        W96261  34.009  29.487  30.206 -0.1339 -0.2542 -0.0618
53324W        W96262  34.062  26.841  28.921  0.2926 -0.2303  0.0180
53325W        W96263   0.147  27.917  28.822 -0.0541  0.2397  0.3365
53326W        W96264  33.286  29.079  29.898  0.0556 -0.1723  0.0913
53327W        W96265  34.478  26.867  31.255 -0.1335  0.2942 -0.0800
53328W        W96266   0.325  29.472  29.404 -0.0360  0.2070  0.0008
53329W        W96267  32.522  29.655  28.827  0.1233 -0.3103  0.1023
53330W        W96268  33.816  28.487  30.636  0.1982  0.1504  0.1358
53331W        W96269  33.001  27.283  26.838 -0.0779 -0.0519  0.0343
53332W        W96270  33.624  26.329  29.575  0.2375 -0.0260  0.1127
53333W        W96271  33.159  25.652  30.006  0.0182 -0.0517  0.0412
53334W        W96272  32.786  26.718  30.708  0.2457 -0.1114 -0.1168
53335W        W96273  33.008  29.576  28.684  0.0676 -0.1549 -0.2271
53336W        W96274  31.741  28.446  30.623  0.0122 -0.0319 -0.3031
53337W        W96275  33.604  26.711  29.859 -0.1918 -0.3715 -0.1501
53338W        W96276   0.355  24.949  28.499 -0.1038  0.0094 -0.2237
53339W        W96277  33.905  25.284  30.369  0.0693  0.1539 -0.1663
53340W        W96278  33.410  25.638  27.053  0.2382  0.1486 -0.2111
53341W        W96279  34.691  27.354  29.962  0.1195 -0.0732 -0.2180
53342W        W96280  33.477  27.087  27.837 -0.0667 -0.1220 -0.1080
53343W        W96281  33.306  27.330  31.323 -0.0007 -0.0849  0.4181
53344W        W96282  34.089  27.937  28.678 -0.0402  0.1425 -0.0688
53345W        W96283  32.863  29.664  30.419  0.3350 -0.2139 -0.4103
53346W        W96284   0.043  29.895  28.925 -0.1358 -0.0602 -0.1100
53347W        W96285  33.541  26.649  28.070 -0.1575  0.0665 -0.1610
53348W        W96286  32.507  28.467  31.183 -0.1388 -0.0291 -0.3678
53349W        W96287  34.110  24.987  27.691  0.1147 -0.1729 -0.1103
53350W        W96288  32.973  30.065  28.762 -0.0751 -0.0755 -0.2525
53351W        W96289  33.133  28.247  28.891 -0.0884 -0.2193  0.1464
53352W        W96290   0.998  30.204  28.039 -0.2735  0.0176  0.0913
53353W        W96291  32.209  27.418  29.586 -0.0335 -0.1649 -0.1836
53354W        W96292  34.059  26.689  28.097 -0.0058  0.0063 -0.4424
53355W        W96293  33.840  27.014  31.647 -0.0519 -0.3381  0.0508
53356W        W96294  32.865  28.042  31.917  0.1590  0.0306 -0.0640
53357W        W96295  34.458  27.396  29.154  0.3307 -0.0413  0.3818
53358W        W96296   0.434  28.017  30.468  0.1412 -0.1582 -0.1422
53359W        W96297  34.161  27.870  29.972  0.0828  0.0874  0.1344
53360W        W96298   0.347  27.378  30.745 -0.1063 -0.1232 -0.0386
53361W        W96299  33.920  29.177  28.120  0.1518 -0.1857 -0.0128
53362W        W96300  32.998  31.602  27.894  0.2930 -0.0597  0.1122
53363W        W96301   0.617  26.831   0.144 -0.2150  0.1622  0.2322
53364W        W96302  33.639  27.595  27.076 -0.3239  0.2459 -0.1591
53365W        W96303   0.315  25.225  31.082 -0.1613  0.0107 -0.1919
53366W        W96304  33.721  25.797  30.178  0.4052  0.0039  0.0911
53367W        W96305  34.137  28.806  30.905  0.1264 -0.2434 -0.0014
53368W        W96306   0.979  28.199  29.600 -0.1824 -0.0570 -0.0106
53369W        W96307  34.372  29.542  28.833 -0.2865  0.0955 -0.0160
53370W        W96308  32.819  27.577  27.231  0.2787  0.3029 -0.0816
53371W        W96309  34.317  25.458  29.392 -0.0748 -0.1948  0.1792
53372W        W96310  33.864  30.181  29.569  0.0875 -0.1835  0.2227
53373W        W96311  34.116  27.699  26.232  0.1446 -0.2246  0.2240
53374W        W96312  32.927  27.747  28.877 -0.4723 -0.0197  0.0716
53375W        W96313  32.158  28.886  30.427  0.2825  0.1821 -0.1363
53376W        W96314  33.231  27.198  27.310 -0.0883  0.4150 -0.0544
53377W        W96315  33.007  26.386  27.465 -0.2421 -0.3509 -0.0240
53378W        W96316  33.557  27.489  29.325  0.0953  0.0173  0.0503
53379W        W96317   0.149  25.239  29.385  0.2414 -0.1940 -0.0341
53380W        W96318  33.162  28.996  30.501  0.0752 -0.0807  0.2035
53381W        W96319  34.530  26.068  30.613 -0.0793 -0.0898 -0.3836
53382W        W96320  32.617  27.075  27.276 -0.2023  0.2141  0.0636
53383W        W96321  33.887  26.774  29.413 -0.3775  0.1101 -0.0169
53384W        W96322  34.123  30.216  28.533  0.0893 -0.0427 -0.0792
53385W        W96323  33.472  28.353  28.057  0.1436  0.1136 -0.2640
53386W        W96324   0.058  30.001  27.503 -0.0590  0.0654 -0.4253
53387W        W96325  33.817  26.352  30.214 -0.0243  0.0778  0.1597
53388W        W96326  34.524  25.628  30.244  0.2180  0.2328 -0.0153
53389W        W96327  33.567  25.698  28.686  0.2643 -0.4159  0.0704
53390W        W96328   0.106  28.574  29.423  0.1679  0.2178 -0.3257
53391W        W96329   0.345  27.581  30.274  0.0623 -0.0551  0.1976
53392W        W96330  34.109  27.270  31.267  0.2581  0.0132  0.2643
53393W        W96331  33.849  29.374  28.664  0.1268  0.4083  0.0538
53394W        W96332  31.460  28.507  31.152  0.0061  0.2061  0.2622
53395W        W96333  32.870  28.652  29.131 -0.1106 -0.0901 -0.0861
53396W        W96334  34.257  26.105  30.185  0.1079  0.0379  0.0658
53397W        W96335  33.534  29.282  30.304 -0.2116  0.0925 -0.0463
53398W        W96336  33.350  28.254  27.592  0.1121 -0.3506  0.0010
53399W        W96337  34.608  28.193  29.908  0.4326 -0.0658 -0.1508
53400W        W96338   0.149  26.946  28.391 -0.1104  0.4441  0.2125
53401W        W96339  33.101  25.132  31.233 -0.0648  0.0845  0.1529
53402W        W96340  32.844  27.049  30.027  0.0818 -0.0455 -0.1856
53403W        W96341  32.523  27.511  30.953 -0.2466  0.0500 -0.2896
53404W        W96342  34.456  26.627  28.564  0.2395 -0.0323 -0.0442
53405W        W96343   0.987  28.663  29.794 -0.2443  0.2073  0.1110
53406W        W96344   0.463  28.884  28.651  0.1072  0.2006 -0.0554
53407W        W96345  34.448  28.655  31.784  0.1262  0.2252  0.0421
53408W        W96346  34.309  27.098  29.703 -0.0049  0.1639 -0.0880
53409W        W96347  34.692  29.266  28.505 -0.1832  0.0716 -0.1404
53410W        W96348  33.953  25.070  29.138  0.4881  0.0139 -0.0028
53411W        W96349  33.844  27.853  30.940 -0.0428  0.0232  0.0423
53412W        W96350  33.420  26.858  31.828  0.5327  0.0923 -0.4957
53413W        W96351  34.266  28.331  29.432  0.2265 -0.0569  0.0834
53414W        W96352  33.551  25.980  28.243 -0.2216  0.1787  0.4325
53415W        W96353   0.799  29.350  29.258  0.1744 -0.1385  0.0932
53416W        W96354  33.074  25.966  30.449  0.0785 -0.1567 -0.0706
53417W        W96355  33.886  30.195  30.570  0.0211  0.3808 -0.1800
53418W        W96356  33.359  26.730  27.507 -0.0161  0.1930 -0.0845
53419W        W96357   0.130  25.279  26.783  0.0285 -0.3136 -0.2388
53420W        W96358   1.900  29.130  28.596  0.0606 -0.0082 -0.4715
53421W        W96359   0.371  26.437  28.810  0.1069 -0.0015  0.1350
53422W        W96360  31.466  28.758  28.304  0.1387  0.0772  0.2688
53423W        W96361   0.310  29.571  31.863  0.1329 -0.1773 -0.2033
53424W        W96362  34.021  28.548  29.946 -0.1546  0.2925  0.2548
53425W        W96363  34.640  29.767  29.464 -0.0106  0.1180 -0.2453
53426W        W96364   0.074  29.083  29.645 -0.0248  0.1370  0.2710
53427W        W96365  32.969  27.783  30.847 -0.1483  0.0314 -0.1161
53428W        W96366   0.496  28.181  29.158  0.3343 -0.4030  0.0662
53429W        W96367  32.798  26.097  30.975 -0.3537  0.0039 -0.0526
53430W        W96368  34.238  24.818  28.855  0.0572  0.0275  0.1155
53431W        W96369  34.358  29.129  31.366 -0.2272 -0.0638  0.1700
53432W        W96370  33.569  28.402  28.661 -0.1377 -0.3453  0.1669
53433W        W96371   0.945  28.919  28.466 -0.0727 -0.1439  0.0601
53434W        W96372  34.413  28.109  28.981  0.1392 -0.0712 -0.4115
53435W        W96373  32.867  30.004  29.662 -0.1111 -0.1258  0.0704
53436W        W96374  33.166  28.705  27.876 -0.0794 -0.1334  0.0008
53437W        W96375  33.286  28.573  30.744 -0.0086  0.1057  0.2658
53438W        W96376   0.110  27.201  29.483 -0.0681 -0.1792 -0.0152
53439W        W96377  33.073  26.108  27.873 -0.2652  0.2736 -0.0116
53440W        W96378  34.486  25.237  29.875  0.0320  0.2449 -0.1988
53441W        W96379  31.957  29.251  30.739 -0.2089  0.0766  0.1870
53442W        W96380  33.443  27.916  28.965  0.1914 -0.1323 -0.1584
53443W        W96381  33.898  28.087  29.209 -0.0781  0.0249 -0.2095
53444W        W96382  33.841  26.730  27.555  0.1741  0.2219  0.3218
53445W        W96383  34.102  29.111  29.008 -0.0972  0.0849 -0.0372
53446W        W96384   1.033  27.836  27.762  0.0518  0.1224  0.1444
53447W        W96385   1.392  28.435  29.668  0.2642  0.2270  0.3481
53448W        W96386  33.331  27.071  30.077  0.0642  0.1156  0.1725
53449W        W96387  34.094  25.724  30.560 -0.2649 -0.1183 -0.0502
53450W        W96388  33.812  27.161  29.782 -0.1536  0.2264  0.3988
53451W        W96389  32.987  27.293  30.737  0.1430 -0.0282  0.1565
53452W        W96390  34.090  25.725  28.103  0.1579 -0.0743  0.2577
53453W        W96391  33.639  26.496  29.035 -0.2042  0.3315 -0.0425
53454W        W96392  33.374  28.342  29.812  0.3255  0.1677 -0.0724
53455W        W96393  34.361  26.948  30.155  0.2665  0.0607  0.0648
53456W        W96394  34.595  26.343  28.994 -0.1005 -0.0090 -0.2301
53457W        W96395  33.785  29.060  27.391  0.0377  0.1774 -0.0443
53458W        W96396  34.529  27.806  30.846  0.0503  0.0576 -0.2544
53459W        W96397   0.047  25.786  29.252  0.1495  0.1554 -0.2357
53460W        W96398  33.078  27.723  29.388  0.1668 -0.1340  0.0762
53461W        W96399   0.655  30.120  27.693  0.2838 -0.3646 -0.0960
53462W        W96400  34.469  28.566  27.681  0.1624 -0.0118 -0.0599
53463W        W96401   0.672  28.706  31.096 -0.2220 -0.0021  0.0096
53464W        W96402  34.287  29.625  31.026 -0.1142 -0.3454 -0.0014
53465W        W96403  33.699  28.919  28.583  0.1987 -0.0348 -0.3086
53466W        W96404  34.205  26.950  30.799  0.0173 -0.2602 -0.0261
53467W        W96405  33.878  28.314  27.789  0.0015  0.0653 -0.1258
53468W        W96406  33.850  28.691  29.071  0.1429  0.1970 -0.1222
53469W        W96407  34.001  26.172  28.749 -0.3255  0.0093  0.1965
53470W        W96408   0.889  26.805  28.144 -0.0300 -0.3304  0.1506
53471W        W96409  34.125  27.338  31.832 -0.0734 -0.1107  0.0907
53472W        W96410  33.720  27.989  27.391 -0.0989 -0.0960  0.0322
53473W        W96411  34.317  27.041  26.981 -0.0481 -0.1716 -0.2813
53474W        W96412  33.676  28.709  29.619  0.2305  0.1812  0.3682
53475W        W96413   0.911  26.118  31.320  0.2089  0.1766  0.2600
53476W        W96414  32.519  26.094  31.538  0.1627 -0.1251 -0.3211
53477W        W96415  33.471  28.394  29.302 -0.0129 -0.1077  0.3472
53478W        W96416  33.659  27.740  29.998 -0.2291 -0.1674 -0.0895
53479W        W96417  33.999  25.532  28.864  0.0887  0.2380  0.2820
53480W        W96418  33.191  24.688  28.806 -0.0370  0.3301 -0.1996
53481W        W96419  33.795  27.164  28.526 -0.1046 -0.2970 -0.0342
53482W        W96420  33.554  29.277  27.781 -0.0818 -0.1175 -0.4845
53483W        W96421  33.231  26.447  30.824  0.4825 -0.3276  0.2025
53484W        W96422   0.044  26.341  31.554  0.1841 -0.1776 -0.1875
53485W        W96423  33.059  24.893  28.291 -0.1056  0.1306 -0.2239
53486W        W96424  34.163  26.211  28.103  0.0135  0.0926 -0.0108
53487W        W96425   0.218  27.784  29.790  0.0618 -0.0514 -0.2314
53488W        W96426  34.635  28.323  30.738  0.1122 -0.0222 -0.2390
53489W        W96427   0.034  25.786  30.983  0.3995 -0.1521  0.2498
53490W        W96428  34.653  29.127  30.932  0.1521  0.0071 -0.0287
53491W        W96429  33.504  25.565  30.662  0.2009 -0.0689  0.2610
53492W        W96430  33.675  28.333  31.102 -0.1662  0.0380  0.1408
53493W        W96431  33.974  25.985  29.732  0.0118 -0.0854 -0.1039
53494W        W96432  34.005  27.437  30.759 -0.4576  0.1578  0.1945
53495W        W96433  34.032  27.202  29.281 -0.0225  0.2213  0.1894
53496W        W96434  34.153  27.401  30.112 -0.1914 -0.3033 -0.0936
53497W        W96435  33.112  27.483  27.750  0.3381  0.2884  0.1944
53498W        W96436   0.015  30.230  30.290  0.1706 -0.0128  0.1361
53499W        W96437  32.888  24.867  30.836  0.2578  0.0532  0.0689
53500W        W96438  34.089  27.559  28.319 -0.0998  0.1338 -0.2114
53501W        W96439   0.557  28.703  28.087  0.1058  0.4061  0.3101
53502W        W96440  33.526  27.003  28.959  0.2707  0.2948  0.0186
53503W        W96441   0.106  29.761  30.903  0.0789  0.0212  0.0045
53504W        W96442  32.360  26.396  30.960 -0.1701 -0.2121 -0.0751
53505W        W96443   0.500  27.862  31.412  0.1417  0.2456 -0.0096
53506W        W96444  31.504  28.962  31.264 -0.0283 -0.1928  0.1861
53507W        W96445   0.097  28.330  31.645 -0.0582  0.0836 -0.3531
53508W        W96446   0.444  27.947  31.921 -0.1376 -0.0722  0.1838
53509W        W96447  33.426  25.625  31.483  0.2278  0.2521 -0.4334
53510W        W96448  33.612  26.250  31.043 -0.2738 -0.0149  0.0364
53511W        W96449  34.658  29.523   0.342 -0.1328 -0.2149 -0.0703
53512W        W96450  31.990  27.361  31.835  0.2318 -0.0740  0.1899
53513W        W96451  32.446  25.710  30.886 -0.1886 -0.0371  0.2894
53514W        W96452  32.876  27.571  31.331 -0.0283  0.1442 -0.1465
53515W        W96453  33.768  25.697  31.136 -0.2250 -0.1669  0.0518
53516W        W96454  32.365  28.730  31.570  0.3254  0.0840 -0.0451
53517W        W96455   0.242  26.953  30.167 -0.1798  0.2036 -0.0326
53518W        W96456  34.355  29.675  31.567 -0.1499  0.1856  0.0970
53519W        W96457  33.052  26.731   0.182 -0.2488 -0.1126 -0.1205
53520W        W96458  34.365  27.950   1.479  0.0831  0.0438 -0.0207
53521W        W96459   0.579  28.419  31.579  0.0124 -0.1791 -0.0064
53522W        W96460  34.110  25.553  29.980  0.0426 -0.0753  0.0616
53523W        W96461  32.257  27.673  30.524 -0.2826  0.1464  0.1096
53524W        W96462  33.510  27.994  31.975 -0.1011 -0.0963 -0.0763
53525W        W96463  34.101  27.375   0.375  0.3815 -0.2362  0.2618
53526W        W96464   0.642  27.191   0.530  0.2750 -0.1355  0.1065
53527W        W96465  34.287  25.275  31.270  0.2103  0.2653  0.0497
53528W        W96466  33.683  28.255  30.210  0.0789 -0.2992 -0.1861
53529W        W96467  32.880  26.538  31.235  0.0076  0.0247  0.0920
53530W        W96468  34.578  27.287  30.989 -0.1688  0.0272 -0.0909
53531W        W96469  34.332  25.708   0.626  0.0884 -0.3490 -0.0741
53532W        W96470  32.611  28.021  31.421 -0.1758  0.0328  0.0566
53533W        W96471   0.358  27.262   0.132 -0.1259  0.0386  0.0044
53534W        W96472  33.695  27.296  30.391  0.0348  0.2327  0.3905
53535W        W96473  34.036  26.139  31.299 -0.0990  0.0398 -0.2276
53536W        W96474  33.349  28.680  31.358  0.2822 -0.0915  0.1272
53537W        W96475  34.485  28.653  31.268  0.4241  0.0778 -0.0967
53538W        W96476  32.689  27.064   0.367 -0.0193  0.1454  0.0399
53539W        W96477  33.281  25.885  31.082 -0.0043  0.1780  0.0395
53540W        W96478  34.591  27.908  31.870 -0.1204  0.1747 -0.0088
53541W        W96479  34.033  26.902   0.195 -0.0741 -0.0715  0.2486
53542W        W96480  31.835  27.226  31.260 -0.0453  0.1260  0.1219
53543W        W96481  34.078  31.219  19.468 -0.0905  0.5233  0.0758
53544W        W96482  32.742  29.941  17.456  0.2735  0.0880 -0.2440
53545W        W96483  33.783  29.798  17.531  0.3202 -0.1117 -0.2106
53546W        W96484  33.384  29.898  18.953  0.0276  0.2020 -0.1950
53547W        W96485  33.644  30.755  20.167  0.2030 -0.1097  0.4111
53548W        W96486  34.456  32.056  20.311 -0.1635 -0.4235  0.0237
53549W        W96487  33.871  28.538  16.863 -0.1002 -0.0393  0.0617
53550W        W96488  32.044  30.052  18.540 -0.0866  0.0330  0.0437
53551W        W96489  32.673  30.995  17.477 -0.1550  0.3945 -0.0154
53552W        W96490  33.389  30.606  19.689  0.0407 -0.0842  0.3282
53553W        W96491   0.130  31.342  17.874 -0.0581 -0.1830 -0.3661
53554W        W96492   0.028  28.692  17.914  0.1399 -0.1980 -0.0125
53555W        W96493  34.398  30.591  16.792  0.3288 -0.1841 -0.1456
53556W        W96494  32.334  30.143  17.274 -0.0415  0.2276 -0.2302
53557W        W96495  33.690  30.955  18.538  0.3153 -0.1245  0.0320
53558W        W96496  33.604  31.012  19.566 -0.1152  0.2940  0.4669
53559W        W96497  34.438  31.879  18.942  0.1468 -0.0566 -0.0179
53560W        W96498   0.958  32.633  17.193  0.2608  0.0668 -0.0582
53561W        W96499  34.015  32.791  18.555 -0.1801  0.0329 -0.0099
53562W        W96500  32.493   0.013  17.229  0.0528  0.1778 -0.0437
53563W        W96501  33.589  32.076  17.129  0.0199 -0.0545 -0.0524
53564W        W96502  34.335  33.605  20.005 -0.3717 -0.0724  0.0797
53565W        W96503  33.529  30.470  16.889 -0.2495 -0.0406  0.2052
53566W        W96504  33.981  31.848  18.595  0.1732  0.0978  0.3264
53567W        W96505   0.259  32.456  17.677  0.2166  0.2547 -0.0212
53568W        W96506  33.568  32.084  17.948 -0.2545  0.0568 -0.0441
53569W        W96507  33.903  32.758  19.966  0.0020 -0.0899  0.5181
53570W        W96508  33.346  33.011  19.167 -0.2209  0.1085  0.1573
53571W        W96509  33.462  33.038  17.396 -0.0847  0.3212  0.1606
53572W        W96510  33.449  28.343  17.751 -0.1790 -0.1906  0.3465
53573W        W96511  34.252  28.428  18.222  0.2360  0.0153 -0.1089
53574W        W96512  33.608  33.748  17.975  0.1204  0.0810  0.2032
53575W        W96513  34.396  30.535  19.088 -0.2284 -0.0113  0.0194
53576W        W96514  34.503  31.433  18.755  0.1073 -0.0295  0.1750
53577W        W96515  33.545  31.028  17.143 -0.0767 -0.0556 -0.1389
53578W        W96516  33.570  28.589  17.349  0.0301 -0.0866  0.0580
53579W        W96517  32.292  31.247  19.753 -0.3619  0.0133 -0.3069
53580W        W96518  32.405  30.771  20.066  0.0815 -0.0952  0.4436
53581W        W96519  33.776  28.894  17.687  0.0708  0.4183  0.1826
53582W        W96520  31.999  33.299  19.568  0.0301 -0.3268 -0.0867
53583W        W96521  34.017  31.526  19.010 -0.0988  0.0209  0.0217
53584W        W96522  33.736  30.244  16.282  0.3820 -0.0922 -0.1019
53585W        W96523   0.451  31.183  17.180  0.1107  0.0317 -0.0027
53586W        W96524  33.879  33.052  19.276  0.0893 -0.0400 -0.0365
53587W        W96525  34.359  30.147  18.739 -0.0856 -0.1348  0.1055
53588W        W96526  33.633  31.812  20.312  0.4131 -0.3526 -0.0276
53589W        W96527  32.768  31.950  16.139  0.1415 -0.1774 -0.2224
53590W        W96528  32.116  31.446  18.656  0.1921  0.3104  0.1884
53591W        W96529  33.468  30.642  16.373 -0.2951  0.1091  0.0395
53592W        W96530  32.993  30.260  18.740 -0.1746  0.3774  0.1928
53593W        W96531  34.423  31.829  17.307  0.0219 -0.0844  0.3746
53594W        W96532  33.094  29.775  18.519  0.2498  0.0177 -0.0211
53595W        W96533  33.052  32.281  17.767 -0.1772  0.2620 -0.0248
53596W        W96534  33.624  31.171  18.963 -0.0432  0.0668 -0.4255
53597W        W96535  33.056  30.006  17.961 -0.0984 -0.0188  0.1177
53598W        W96536  32.276  29.255  19.348 -0.0282  0.2540 -0.0048
53599W        W96537  33.859  30.295  17.778 -0.0748  0.3465 -0.1705
53600W        W96538  33.164  28.042  16.660 -0.0626  0.1834  0.0296
53601W        W96539  34.641  31.175  18.356  0.0070 -0.1678 -0.1071
53602W        W96540  32.386  31.526  17.617 -0.0450 -0.1096 -0.0714
53603W        W96541  33.204  31.390  19.774  0.4610 -0.0664  0.0453
53604W        W96542  31.598  30.854  16.536 -0.2082  0.2795 -0.0377
53605W        W96543  34.260  32.316  19.331 -0.3042 -0.2445 -0.0092
53606W        W96544   0.193  31.296  18.983 -0.0395  0.3866 -0.0968
53607W        W96545  33.442  30.011  16.666  0.4910  0.0360  0.0951
53608W        W96546  34.137  31.026  18.928 -0.2467 -0.1836  0.0105
53609W        W96547  32.365  29.807  16.552  0.1582 -0.0350 -0.4038
53610W        W96548  33.023  31.077  17.109  0.0675  0.4433 -0.3009
53611W        W96549  32.762  31.180  18.970  0.2340 -0.0598  0.1752
53612W        W96550  34.657  30.899  18.775  0.3718 -0.3126 -0.4449
53613W        W96551  32.052  31.983  19.200 -0.2857 -0.0145 -0.0807
53614W        W96552  33.402  29.868  17.134  0.0830  0.2490 -0.1014
53615W        W96553  32.472  33.243  19.833 -0.1852  0.0745  0.2570
53616W        W96554  32.511  32.181  18.862 -0.1965  0.2766  0.0396
53617W        W96555   1.674  32.122  17.565  0.0506 -0.0492 -0.0058
53618W        W96556   0.410  32.123  18.961  0.0393  0.1393  0.1151
53619W        W96557  33.162  32.235  19.602  0.2345  0.1710  0.1153
53620W        W96558  34.481  29.168  18.861  0.1159 -0.2085 -0.3237
53621W        W96559  34.051  30.003  15.913  0.0182 -0.2749  0.0572
53622W        W96560  32.918  32.447  16.864 -0.2601  0.0182  0.0316
53623W        W96561   0.535  28.883  19.963 -0.2039  0.2943 -0.1677
53624W        W96562  32.601  32.382  17.306  0.0754  0.0586  0.0581
53625W        W96563  34.119  28.889  19.092  0.0007  0.1487 -0.1689
53626W        W96564  32.317  31.082  17.872  0.0719 -0.0853 -0.0310
53627W        W96565  33.423  33.630  19.007 -0.1524  0.0011  0.0744
53628W        W96566  34.349  30.325  20.052 -0.1753  0.0940  0.0409
53629W        W96567  33.183  32.031  16.737 -0.0272 -0.1237  0.0169
53630W        W96568  34.326  31.102  16.507  0.4329  0.2721 -0.2155
53631W        W96569  34.606  29.980  18.168  0.1044 -0.0200  0.2207
53632W        W96570   0.238  33.233  18.451 -0.0837  0.1559 -0.0326
53633W        W96571  33.098  31.065  17.744  0.1833 -0.3472  0.0520
53634W        W96572  32.954  31.875  18.126  0.0193  0.0299 -0.0436
53635W        W96573  33.446  32.866  18.229 -0.2565 -0.0455  0.2851
53636W        W96574  34.048  28.976  16.706  0.0391 -0.2139 -0.1813
53637W        W96575  33.938  29.724  16.565  0.1958  0.4480  0.1946
53638W        W96576  33.656  30.262  19.348  0.0901  0.0628  0.0270
53639W        W96577   0.310  30.270  18.134  0.0006  0.0944 -0.1893
53640W        W96578  31.007  33.522  20.419 -0.0675  0.1412 -0.3845
53641W        W96579   1.359  31.649  19.971  0.2105  0.3575  0.3572
53642W        W96580  32.693  30.027  16.914 -0.2764 -0.2653  0.1849
53643W        W96581  33.424  31.878  18.440  0.1304  0.1470 -0.2329
53644W        W96582  34.075  32.991  18.095  0.3334 -0.1426  0.1431
53645W        W96583  32.637  28.908  16.202 -0.0077  0.2542  0.2741
53646W        W96584  33.997  30.336  16.773  0.4319  0.0198  0.3832
53647W        W96585  33.130  30.240  19.358 -0.1883  0.1609  0.1378
53648W        W96586   0.125  30.441  18.859  0.1455  0.2943  0.1226
53649W        W96587  33.708  30.588  18.192  0.2791 -0.0594  0.3193
53650W        W96588   0.729  30.497  19.510  0.2346  0.3400 -0.2576
53651W        W96589  33.453  31.953  19.363 -0.3072  0.2844 -0.0202
53652W        W96590  34.185  32.661  21.267 -0.0198  0.2769  0.1391
53653W        W96591   0.246  30.936  17.563  0.3306 -0.0818  0.1818
53654W        W96592  32.989  31.684  18.645  0.1446 -0.1573 -0.5281
53655W        W96593  34.132  32.258  17.105 -0.0837 -0.1576  0.4462
53656W        W96594  34.140  29.962  17.985 -0.0359 -0.0335 -0.1592
53657W        W96595  32.682  32.305  18.200  0.0238  0.1403 -0.0519
53658W        W96596  33.098  31.187  16.625  0.2495 -0.4915  0.1132
53659W        W96597  33.417  31.730  18.895 -0.2427  0.1187 -0.0361
53660W        W96598  34.363  29.442  16.700  0.1098  0.1248 -0.1258
53661W        W96599  33.666  29.025  18.774 -0.0314  0.1795 -0.3027
53662W        W96600  32.792  30.569  19.657  0.0345  0.0783  0.0601
53663W        W96601  33.575  30.359  18.666  0.0484  0.0269  0.0023
53664W        W96602  33.199  28.432  16.404  0.1783 -0.0191  0.0860
53665W        W96603  34.118  31.594  19.915 -0.0330  0.2007  0.3912
53666W        W96604  34.577  32.314  17.266 -0.0240 -0.0728  0.3206
53667W        W96605  34.229  30.857  18.278 -0.0542 -0.0332 -0.1508
53668W        W96606   1.528  30.574  18.105 -0.2008 -0.0660  0.1904
53669W        W96607  34.240  31.572  17.749 -0.0005  0.2010 -0.3166
53670W        W96608  33.261  30.101  19.835  0.0347  0.0689  0.0936
53671W        W96609  33.938  32.213  20.310  0.1271  0.0015  0.1926
53672W        W96610  32.884  29.953  20.287  0.1616  0.2753  0.0304
53673W        W96611  32.728  31.333  17.940  0.2340 -0.1166  0.1215
53674W        W96612  34.153  29.008  16.170 -0.1464 -0.1858 -0.1629
53675W        W96613  33.271  31.903  17.487 -0.0177 -0.2121  0.1932
53676W        W96614  32.831  30.731  18.820 -0.4372  0.2308 -0.0006
53677W        W96615  33.510  33.052  19.669  0.1393 -0.0773  0.0053
53678W        W96616  33.469  29.508  16.713 -0.0980  0.0530  0.2328
53679W        W96617  33.018  30.261  16.490  0.2663  0.3800  0.2340
53680W        W96618   0.015  32.348  19.085 -0.1400  0.0081  0.0341
53681W        W96619   0.815  29.292  16.182 -0.0722  0.0433  0.3476
53682W        W96620  32.677  32.614  17.793  0.0091  0.1765 -0.1397
53683W        W96621   0.437  32.503  19.375  0.0427  0.0657 -0.3056
53684W        W96622  31.866  32.094  20.068  0.3807 -0.1421 -0.0472
53685W        W96623  33.856  31.261  18.057  0.0449 -0.1927 -0.2226
53686W        W96624   0.712  31.202  19.207 -0.3790 -0.1738 -0.0013
53687W        W96625  34.071  30.552  18.634  0.0319 -0.0530 -0.1983
53688W        W96626  33.431  32.552  19.276 -0.0938  0.0644  0.2661
53689W        W96627  31.998  28.989  20.643 -0.0732  0.2078  0.0828
53690W        W96628  34.209  28.179  17.238  0.1028 -0.3109 -0.1387
53691W        W96629  33.160  33.334  20.711 -0.1021  0.0873 -0.0326
53692W        W96630  33.428  31.000  18.127 -0.0492 -0.1506  0.1065
53693W        W96631  33.932  31.237  17.493 -0.0558  0.2149 -0.2986
53694W        W96632  33.670  30.748  17.561 -0.0919 -0.1018 -0.2115
53695W        W96633  33.880  32.271  17.480  0.2345  0.3458  0.1794
53696W        W96634  33.637  33.200  17.870  0.1886 -0.1858 -0.2117
53697W        W96635  32.741  33.709  17.843 -0.0854 -0.0836  0.2742
53698W        W96636   0.411  30.813  19.022 -0.0993 -0.0850  0.2368
53699W        W96637  32.905  29.251  16.775 -0.0555 -0.2153 -0.0203
53700W        W96638  34.520  30.435  18.379  0.3763 -0.2437  0.1418
53701W        W96639  33.614  33.535  19.444  0.3454 -0.0289  0.1092
53702W        W96640  32.575  30.465  16.622 -0.3083  0.3358  0.1898
53703W        W96641  34.627  30.872  17.904  0.1502  0.1101  0.3736
53704W        W96642   0.055  31.438  17.285 -0.0885  0.2304 -0.0664
53705W        W96643  33.852  31.808  17.510  0.0213  0.1571 -0.1731
53706W        W96644  34.280  32.797  17.155 -0.2947  0.1420  0.0877
53707W        W96645  34.326  32.506  18.276 -0.1379 -0.0598 -0.0401
53708W        W96646  32.912  29.273  17.530 -0.2361  0.0003  0.1020
53709W        W96647  34.101  29.848  20.192  0.2370 -0.0009 -0.1112
53710W        W96648  32.979  31.508  17.504 -0.0606  0.2672  0.1764
53711W        W96649  31.867  30.496  20.291 -0.1425 -0.2305 -0.0626
53712W        W96650   0.077  30.069  17.322  0.0415 -0.1299  0.0416
53713W        W96651  33.917  30.139  18.360  0.2398 -0.0269 -0.0807
53714W        W96652   0.712  31.995  17.644 -0.1276 -0.1507  0.1498
53715W        W96653  33.991  30.574  19.778  0.0852 -0.0613 -0.0147
53716W        W96654  31.065  30.285  18.171  0.1697 -0.0244 -0.0976
53717W        W96655  32.915  32.014  17.176 -0.1159 -0.1500 -0.2752
53718W        W96656  32.013  30.496  18.594 -0.0661 -0.1315 -0.2638
53719W        W96657  33.891  29.358  17.021  0.1085  0.1945  0.2085
53720W        W96658  33.456  31.475  17.721 -0.2663  0.1130 -0.4191
53721W        W96659  33.124  33.144  18.502  0.1022  0.2574  0.1444
53722W        W96660  32.649  32.069  16.678  0.0954 -0.2208 -0.0781
53723W        W96661   0.050  32.522  18.612  0.0981 -0.1313 -0.0777
53724W        W96662  33.096  33.289  21.306  0.0104  0.1435  0.0201
53725W        W96663  33.104  30.700  16.745 -0.0685 -0.3914  0.2697
53726W        W96664   0.259  30.895  20.579  0.2616 -0.2585  0.0692
53727W        W96665  33.531  32.221  18.841 -0.0648  0.1626  0.1461
53728W        W96666  33.645  32.999  16.859 -0.0472 -0.2639  0.1063
53729W        W96667   0.634  31.602  18.207 -0.2217 -0.0803 -0.2593
53730W        W96668   0.112  29.709  16.950  0.1840  0.2626 -0.2756
53731W        W96669   0.755  32.104  20.135  0.0706 -0.0002 -0.2212
53732W        W96670  33.238  30.548  17.904 -0.1351  0.3698  0.0442
53733W        W96671  32.162  30.628  17.161 -0.1553 -0.0802  0.1984
53734W        W96672  31.760  29.596  18.653  0.2650  0.1894 -0.3097
53735W        W96673  33.354  28.689  18.616  0.0872  0.2693  0.6101
53736W        W96674  32.650  29.659  19.395  0.2212 -0.2748  0.0149
53737W        W96675  33.222  30.610  19.089 -0.1372  0.0140  0.1379
53738W        W96676  32.318  29.417  17.588  0.1411  0.0974  0.1628
53739W        W96677  33.491  29.018  16.900 -0.0990  0.1602  0.0859
53740W        W96678  32.868  30.435  18.243  0.4210  0.2353  0.1456
53741W        W96679  33.699  30.238  17.283 -0.1310 -0.1858  0.4310
53742W        W96680  31.776  30.955  17.670  0.0297 -0.1666  0.0312
53743W        W96681   0.234  31.101  20.060 -0.3152 -0.0738  0.1194
53744W        W96682  33.027  30.483  20.147 -0.1621  0.2726  0.0559
53745W        W96683  32.152  31.115  16.748  0.3301 -0.1869 -0.3248
53746W        W96684   0.125  30.562  19.399 -0.1427 -0.0853  0.0953
53747W        W96685  33.651  31.323  20.004  0.1605 -0.1509  0.0164
53748W        W96686   0.032  32.267  19.622 -0.1094  0.2440  0.0832
53749W        W96687  33.987  30.040  19.693  0.1467 -0.1848 -0.2741
53750W        W96688  34.458  32.557  20.020 -0.0232 -0.2194 -0.1431
53751W        W96689  32.903  29.652  19.852 -0.1657 -0.1866  0.1564
53752W        W96690  33.151  34.008  20.780  0.0465  0.2181 -0.0676
53753W        W96691  33.313  29.334  17.225 -0.1640  0.0093 -0.7559
53754W        W96692  32.589  31.265  18.520  0.0779 -0.1865  0.0322
53755W        W96693   0.005  30.024  19.242 -0.1591 -0.1862 -0.0476
53756W        W96694  33.615  30.279  21.380 -0.1911 -0.1483  0.3094
53757W        W96695  34.652  30.068  16.002  0.2556  0.0152  0.0217
53758W        W96696   0.362  31.737  20.149  0.1795  0.0606  0.2810
53759W        W96697  33.277  30.702  18.499  0.1968 -0.2312  0.2404
53760W        W96698  34.110  32.078  18.159  0.2474  0.1553  0.0863
53761W        W96699  33.316  32.377  18.282  0.0127  0.0710  0.1301
53762W        W96700  32.779  29.490  16.282  0.3225 -0.0447  0.2947
53763W        W96701   0.064  32.337  18.130  0.2768  0.0853 -0.1691
53764W        W96702  33.782  30.065  24.320 -0.1362  0.4122  0.1704
53765W        W96703  33.620  31.324  21.674  0.1650  0.3254 -0.0317
53766W        W96704  32.746  29.685  22.206 -0.0236 -0.1089 -0.3097
53767W        W96705  33.022  28.845  23.249 -0.2158  0.1018  0.1426
53768W        W96706  32.565  28.750  23.010 -0.2114  0.1547 -0.1371
53769W        W96707   0.198  31.829  22.186 -0.0751 -0.2187 -0.7292
53770W        W96708  32.803  29.051  19.957  0.0975 -0.5898 -0.2390
53771W        W96709  33.015  29.599  22.709  0.1662  0.0819 -0.2196
53772W        W96710  32.166  32.535  21.513  0.3638  0.0975 -0.0048
53773W        W96711  33.280  30.039  21.084  0.1579  0.0849 -0.1085
53774W        W96712  34.295  30.131  21.152  0.0786  0.2572 -0.3087
53775W        W96713  33.825  28.863  23.613 -0.0933  0.2388  0.0680
53776W        W96714   0.712  31.757  20.523  0.0094 -0.2948 -0.3939
53777W        W96715  34.351  30.331  19.518  0.2408  0.0402  0.0463
53778W        W96716  32.440  29.604  23.044  0.0129 -0.3386 -0.0608
53779W        W96717  33.841  29.784  22.324  0.0183  0.1935 -0.2000
53780W        W96718  34.454  31.361  21.971  0.1722  0.0600  0.0878
53781W        W96719   0.870  33.437  21.864  0.1203  0.0200  0.1668
53782W        W96720  33.226  32.810  21.273 -0.0279 -0.1589 -0.0997
53783W        W96721  33.912  31.918  22.629  0.0020  0.1156 -0.1668
53784W        W96722  34.458  31.614  20.691 -0.0203  0.3787 -0.2053
53785W        W96723  33.326  33.043  23.556  0.0805 -0.0225 -0.3332
53786W        W96724   0.172  32.261  20.110  0.1738 -0.0064 -0.1153
53787W        W96725  32.893  34.377  24.502  0.0511  0.0248  0.3213
53788W        W96726  32.845  31.839  21.198 -0.3269  0.2770 -0.1878
53789W        W96727  34.656  32.860  20.394  0.0321  0.0602 -0.1479
53790W        W96728  33.660  30.709  25.263 -0.0593  0.2245  0.2720
53791W        W96729  31.416  31.855  22.301 -0.2330 -0.1472  0.2029
53792W        W96730  34.018  33.238  22.206 -0.0942  0.1756  0.2192
53793W        W96731  34.139  30.636  20.390 -0.1461  0.3356  0.2600
53794W        W96732  33.329  29.157  20.599  0.3870 -0.2143 -0.1699
53795W        W96733  34.501  32.246  21.884 -0.0383 -0.0713 -0.2632
53796W        W96734  33.135  29.893  23.520 -0.0440 -0.0736  0.0906
53797W        W96735  33.331  32.794  22.269  0.0975  0.2205 -0.3501
53798W        W96736  32.800  31.251  21.787 -0.2170  0.0762 -0.0067
53799W        W96737  33.766  31.021  21.176 -0.0218 -0.1422 -0.0421
53800W        W96738  32.662  30.723  23.412 -0.1168 -0.0078 -0.0735
53801W        W96739   0.260  30.707  23.503  0.3411 -0.2326 -0.1252
53802W        W96740  32.003  28.479  20.236  0.0159 -0.1415 -0.0233
53803W        W96741  31.672  32.237  22.661  0.1117  0.2668 -0.1695
53804W        W96742  34.261  30.486  22.051  0.0689 -0.2489 -0.0417
53805W        W96743  33.002  31.448  20.806 -0.0442 -0.4366  0.3416
53806W        W96744  33.240  30.796  20.467 -0.0232 -0.2907  0.1290
53807W        W96745  33.811  31.300  22.222 -0.4957 -0.1188  0.1570
53808W        W96746   0.618  29.530  23.265 -0.1792  0.1415  0.1565
53809W        W96747  34.596  32.327  24.595 -0.0913 -0.0610  0.0323
53810W        W96748  34.468  32.651  20.892  0.0775 -0.1507  0.0328
53811W        W96749  31.957  32.683  22.721 -0.0986 -0.0611  0.0012
53812W        W96750  33.039  32.580  20.707  0.0948 -0.0621 -0.0405
53813W        W96751  33.241  29.108  22.812  0.3170  0.1633  0.2741
53814W        W96752  33.554  30.559  23.587 -0.0766  0.0693 -0.0758
53815W        W96753  32.877  29.949  25.595  0.1056  0.0282  0.0388
53816W        W96754  32.484  32.022  20.451  0.0100 -0.0508 -0.1606
53817W        W96755  34.240  30.204  23.142  0.0522 -0.2549  0.0316
53818W        W96756  32.341  30.209  21.415 -0.1548  0.0179  0.2067
53819W        W96757  33.831  29.983  23.780 -0.0186  0.3648  0.0432
53820W        W96758  32.838  29.659  21.673 -0.2116 -0.3470 -0.1216
53821W        W96759  31.666  29.252  21.006 -0.0264  0.1298  0.0161
53822W        W96760  34.400  30.190  20.552 -0.0760  0.0277  0.0567
53823W        W96761  31.258  32.247  20.189  0.2878 -0.2896 -0.0031
53824W        W96762  33.606  28.515  23.342  0.1557  0.0243  0.0233
53825W        W96763  33.696  30.219  20.139  0.1221 -0.0701 -0.3130
53826W        W96764  33.363  32.391  21.517  0.2341  0.0072  0.0819
53827W        W96765  34.618  32.151  20.945 -0.1780  0.0020 -0.0146
53828W        W96766  33.378  29.242  19.510  0.0518 -0.2246 -0.1761
53829W        W96767  31.943  32.336  23.156  0.2484 -0.2418 -0.4907
53830W        W96768  32.875  29.331  20.348  0.0416 -0.1796 -0.0850
53831W        W96769  33.612  33.231  21.292  0.2898  0.2145  0.2294
53832W        W96770  32.719  31.786  21.682 -0.0013  0.0968 -0.0807
53833W        W96771   0.370  33.336  21.880  0.0928 -0.0024 -0.2690
53834W        W96772  34.697  30.169  23.392  0.1219 -0.0242  0.2714
53835W        W96773  33.780  30.657  19.039 -0.3625 -0.0080  0.0971
53836W        W96774  33.943  32.104  23.141 -0.2198 -0.5365 -0.2260
53837W        W96775  31.949  30.349  23.504  0.1007 -0.2461 -0.0999
53838W        W96776  34.483  32.142  21.404  0.1340  0.0366 -0.3169
53839W        W96777  33.871  31.046  22.827  0.0700 -0.1376 -0.0904
53840W        W96778  33.076  30.919  21.412  0.1212 -0.2214  0.0639
53841W        W96779   0.255  29.481  22.098  0.0404 -0.1132  0.0527
53842W        W96780  33.106  30.331  20.628 -0.0362  0.0163 -0.3601
53843W        W96781  32.666  33.031  19.363  0.0354  0.0356  0.0664
53844W        W96782   0.245  29.311  23.686  0.0635 -0.0503  0.1917
53845W        W96783  34.110  29.197  18.500 -0.0079 -0.2475 -0.0677
53846W        W96784   1.054  28.951  22.892 -0.1387 -0.0901  0.1779
53847W        W96785  33.681  30.419  21.909 -0.1132  0.0056 -0.0084
53848W        W96786  32.686  31.981  22.607  0.1652  0.0639  0.0729
53849W        W96787  34.079  30.451  22.682 -0.2453  0.0304  0.1833
53850W        W96788  34.565  33.133  19.797  0.1009 -0.0175 -0.2022
53851W        W96789  33.208  31.285  20.285  0.2567  0.0808 -0.0636
53852W        W96790  33.426  28.608  22.816 -0.1361 -0.1200 -0.0642
53853W        W96791   0.376  32.066  21.353  0.1132  0.0060 -0.0747
53854W        W96792  34.173  33.164  20.692  0.0578  0.1047  0.0944
53855W        W96793  34.244  32.896  21.739  0.2819 -0.0927 -0.4273
53856W        W96794  32.548  31.953  23.114 -0.0023 -0.0210  0.0445
53857W        W96795  32.989  31.749  19.546 -0.2023  0.0900 -0.3384
53858W        W96796  32.028  30.460  21.025  0.1960 -0.0015  0.1296
53859W        W96797  32.901  30.306  22.862 -0.1632  0.0071  0.1834
53860W        W96798  32.933  28.724  21.283  0.1456  0.1443  0.3297
53861W        W96799  32.764  32.543  22.379  0.0828 -0.0489 -0.0606
53862W        W96800  33.821  31.020  24.256 -0.0871  0.2735 -0.1758
53863W        W96801  32.449  29.656  21.343 -0.0376 -0.1273  0.3191
53864W        W96802  33.199  30.467  21.806  0.3112  0.2054  0.1056
53865W        W96803  33.620  32.334  21.936  0.1977  0.0904  0.0601
53866W        W96804  32.587  30.805  19.286 -0.2916  0.1512 -0.2678
53867W        W96805  33.197  31.644  21.544 -0.1942  0.1834 -0.1035
53868W        W96806  34.051  29.646  24.628  0.0750 -0.2635 -0.0542
53869W        W96807  32.660  30.028  20.873 -0.2895  0.0810  0.0761
53870W        W96808  32.981  29.596  21.248 -0.1196  0.3446 -0.0792
53871W        W96809  33.735  29.283  21.361 -0.2711  0.0456 -0.2088
53872W        W96810   0.386  30.602  22.983 -0.2123  0.0189 -0.0039
53873W        W96811  33.529  31.783  23.230 -0.1546 -0.0207 -0.1209
53874W        W96812  33.811  32.860  20.927  0.0244 -0.1334  0.1072
53875W        W96813  31.544  30.563  21.762  0.1062 -0.1319  0.0844
53876W        W96814  33.671  31.881  21.640 -0.3765  0.1225  0.1444
53877W        W96815   0.882  29.121  23.343  0.0345  0.2133  0.0687
53878W        W96816  33.217  31.244  23.110  0.1456  0.1159  0.1426
53879W        W96817  33.456  31.905  21.201 -0.2179 -0.0582  0.0655
53880W        W96818  32.154  30.866  22.820 -0.2117  0.0219 -0.0658
53881W        W96819  33.916  29.605  20.872  0.0298 -0.0342  0.1920
53882W        W96820  33.255  28.809  24.427  0.3840 -0.0848 -0.3813
53883W        W96821  32.494  29.112  23.352  0.0096  0.2817 -0.0504
53884W        W96822  34.480  29.834  22.882 -0.0320  0.0904  0.2017
53885W        W96823  32.395  29.701  20.282 -0.2818  0.2573 -0.0525
53886W        W96824  33.076  31.788  22.985 -0.1222 -0.2436  0.0505
53887W        W96825  34.462  33.170  21.281 -0.2252  0.3131 -0.0225
53888W        W96826  32.018  31.585  21.775 -0.0266  0.0479 -0.1174
53889W        W96827  34.483  31.143  20.498  0.1923 -0.1269 -0.0260
53890W        W96828   0.102  31.785  21.689 -0.0406  0.2156 -0.1837
53891W        W96829  32.600  28.968  22.346 -0.1134 -0.2565  0.1793
53892W        W96830  32.766  30.974  23.915 -0.1190 -0.1589 -0.2018
53893W        W96831  32.114  29.485  23.855 -0.0456 -0.0759 -0.0191
53894W        W96832  32.820  31.408  22.775  0.1768  0.0155 -0.0011
53895W        W96833  33.304  29.916  21.585 -0.0845 -0.3215  0.1486
53896W        W96834   0.658  33.684  20.914  0.0329  0.1030 -0.2227
53897W        W96835  31.239  29.324  21.682  0.0750 -0.2430 -0.3035
53898W        W96836  33.143  31.690  23.514 -0.0387  0.1702  0.1224
53899W        W96837  33.145  29.704  19.368 -0.0143 -0.0847 -0.0552
53900W        W96838  33.588  32.139  20.720  0.1256  0.0012  0.0227
53901W        W96839   0.196  31.885  20.598 -0.0212  0.1605 -0.1509
53902W        W96840   0.195  29.908  20.751  0.3102  0.1749  0.1131
53903W        W96841  34.023  32.371  20.825 -0.1286  0.1317 -0.1921
53904W        W96842  33.227  33.454  24.436 -0.1101  0.0841  0.0842
53905W        W96843  32.048  33.271  22.528 -0.2318  0.2937  0.1160
53906W        W96844  34.188  31.690  21.654 -0.2139 -0.1514  0.0430
53907W        W96845  33.590  30.764  23.125 -0.0475  0.0439  0.2937
53908W        W96846  33.820  30.169  20.934 -0.0395 -0.0877  0.3363
53909W        W96847  33.427  30.348  22.856  0.0521  0.0593  0.3090
53910W        W96848  33.217  29.325  24.706  0.2252  0.1083 -0.1233
53911W        W96849  33.006  29.258  22.324  0.0649 -0.0007 -0.0761
53912W        W96850  34.070  32.285  22.215 -0.0219  0.1168 -0.2360
53913W        W96851  31.892  31.717  22.422 -0.1511  0.0836 -0.0281
53914W        W96852  34.526  34.609  22.415 -0.3172  0.5548  0.1107
53915W        W96853  34.442  29.702  18.986 -0.1370 -0.2992  0.0304
53916W        W96854  32.264  32.359  22.367  0.2678 -0.2456  0.0110
53917W        W96855  34.027  32.066  21.308 -0.2878 -0.2369  0.1597
53918W        W96856   0.152  33.600  21.100 -0.1901 -0.0615 -0.1964
53919W        W96857   0.316  29.612  22.891 -0.0396  0.1889  0.1439
53920W        W96858  33.025  29.658  20.694 -0.1758 -0.2153  0.0625
53921W        W96859   0.187  31.084  23.154 -0.2169 -0.0329  0.0225
53922W        W96860  31.138  33.276  22.556  0.0564  0.0358 -0.1526
53923W        W96861  31.580  31.524  21.408 -0.2890  0.2177 -0.0847
53924W        W96862  32.962  30.168  22.118 -0.0491  0.4431 -0.1459
53925W        W96863  33.652  31.519  19.339  0.0765  0.2352  0.0826
53926W        W96864  33.545  31.523  20.719 -0.0247 -0.0035  0.0768
53927W        W96865  34.299  31.408  22.476  0.0174  0.1387 -0.2310
53928W        W96866  33.588  31.840  22.249 -0.0493  0.1674  0.3049
53929W        W96867  32.346  29.176  20.273 -0.0390 -0.1607  0.0438
53930W        W96868  33.799  30.974  23.737 -0.0138  0.1813 -0.0521
53931W        W96869  33.443  29.510  20.949 -0.0726 -0.3586 -0.1978
53932W        W96870  32.421  30.219  23.403 -0.0137  0.2598 -0.0483
53933W        W96871  34.551  30.954  19.259  0.1098  0.1017 -0.0251
53934W        W96872  32.931  28.432  20.819 -0.0234 -0.4356  0.1828
53935W        W96873  33.724  29.558  23.398  0.0856  0.1364  0.0796
53936W        W96874  33.778  30.838  22.365 -0.0784  0.1074  0.0280
53937W        W96875  32.522  28.143  22.156  0.1560  0.1230 -0.0660
53938W        W96876   1.026  32.730  19.367  0.1966 -0.0412  0.1576
53939W        W96877  32.890  30.548  21.118 -0.1123  0.1619  0.1732
53940W        W96878  33.282  29.654  20.220  0.0763  0.1768  0.0293
53941W        W96879  33.187  30.041  22.509  0.2285 -0.0989 -0.1522
53942W        W96880  33.139  32.207  22.480  0.0082 -0.0224  0.0906
53943W        W96881   0.933  33.782  21.360 -0.1265 -0.2877 -0.0249
53944W        W96882   0.464  31.600  24.121 -0.2093 -0.3575  0.0718
53945W        W96883  33.433  32.179  23.505 -0.0216  0.1636  0.0327
53946W        W96884  33.454  32.581  19.810 -0.1199  0.0021 -0.3135
53947W        W96885  34.385  30.888  22.409  0.2396 -0.2852 -0.1668
53948W        W96886  33.944  31.433  20.408  0.1183 -0.0717 -0.2106
53949W        W96887   0.000  33.083  20.877  0.0003 -0.1113  0.1873
53950W        W96888   0.407  29.423  21.088  0.1064 -0.1481  0.1580
53951W        W96889  33.421  29.726  23.063  0.0109 -0.0588 -0.2962
53952W        W96890  32.936  32.124  23.487  0.0218 -0.3157 -0.1337
53953W        W96891  33.700  31.850  19.846 -0.0246  0.1190 -0.1298
53954W        W96892  33.024  33.163  20.004 -0.3882  0.3523 -0.0154
53955W        W96893  32.965  31.196  22.321 -0.1117 -0.0682  0.1963
53956W        W96894  33.701  28.999  22.635 -0.1017  0.0580  0.0731
53957W        W96895  33.712  30.194  23.243  0.0048 -0.2044  0.1978
53958W        W96896  33.193  30.543  22.409  0.2568  0.1613  0.2597
53959W        W96897  33.371  30.752  21.035 -0.0146 -0.2291  0.0435
53960W        W96898  33.500  28.597  21.245  0.0078 -0.1151  0.1301
53961W        W96899  32.074  29.146  22.177 -0.1666 -0.1629 -0.1112
53962W        W96900  33.514  29.619  19.784 -0.1889 -0.0533  0.0236
53963W        W96901  34.474  33.543  20.822 -0.0691  0.2292 -0.0754
53964W        W96902  33.767  31.807  23.683  0.1179 -0.0119  0.1856
53965W        W96903  34.630  28.985  23.456  0.0708  0.3179 -0.0241
53966W        W96904  31.053  29.088  19.965  0.0462 -0.3513  0.2566
53967W        W96905  34.517  31.526  23.025 -0.0282  0.1223 -0.2925
53968W        W96906  34.367  31.158  23.407 -0.2318  0.0540  0.0190
53969W        W96907  33.363  29.980  24.039  0.0935  0.0868 -0.1696
53970W        W96908  33.517  29.138  24.127 -0.3641  0.2718 -0.4291
53971W        W96909  32.596  31.067  22.991 -0.1264 -0.1736  0.4118
53972W        W96910  32.634  28.107  23.363 -0.0689 -0.0904 -0.5205
53973W        W96911  31.606  30.654  23.302 -0.3133 -0.2165  0.1580
53974W        W96912  32.613  29.916  22.584  0.2674  0.1030 -0.0570
53975W        W96913  34.609  30.433  22.560  0.1144  0.0920 -0.2858
53976W        W96914  34.311  29.127  21.079 -0.1104 -0.0069  0.1834
53977W        W96915  34.590  30.547  23.123 -0.1371  0.0612 -0.3727
53978W        W96916  33.354  31.312  21.245 -0.2935 -0.0698  0.0676
53979W        W96917   0.820  32.577  21.938  0.0086 -0.1005  0.3244
53980W        W96918  34.637  28.717  21.553  0.1391  0.2418  0.0339
53981W        W96919  32.739  30.986  20.323  0.1541  0.2885  0.0027
53982W        W96920  32.347  31.569  21.353  0.3003 -0.1341 -0.2628
53983W        W96921  33.069  29.428  24.127  0.1428  0.0800  0.1286
53984W        W96922  33.545  31.439  22.742  0.0292 -0.0526  0.2917
53985W        W96923  33.780  33.182  26.586 -0.0126  0.2077 -0.0883
53986W        W96924   1.496  29.236  24.161  0.1034  0.1040  0.2055
53987W        W96925  32.991  30.849  25.946  0.0843  0.1552  0.1472
53988W        W96926  34.624  30.113  28.151 -0.0019  0.1815  0.2119
53989W        W96927   0.478  31.406  26.447  0.1503 -0.2571  0.3354
53990W        W96928  34.333  32.349  25.817  0.0944 -0.2422  0.0141
53991W        W96929  34.066  28.560  26.038  0.0914 -0.1416 -0.1706
53992W        W96930  32.764  28.979  25.753  0.1813 -0.0878 -0.2478
53993W        W96931  33.644  31.279  24.731 -0.2007 -0.2964  0.0318
53994W        W96932  33.647  31.273  26.906  0.1269  0.0881  0.1210
53995W        W96933   0.278  31.072  24.165 -0.0682  0.0722 -0.1626
53996W        W96934  34.609  30.228  27.068 -0.1567  0.2301 -0.3127
53997W        W96935  33.818  32.776  25.364  0.0113 -0.3724  0.1724
53998W        W96936  32.767  29.513  23.706 -0.1115  0.1212 -0.0182
53999W        W96937  31.811  31.238  23.991 -0.1053 -0.3992 -0.0190
54000W        W96938  33.522  30.750  26.168 -0.2536  0.1192 -0.1496
54001W        W96939  33.078  33.761  26.069 -0.1343 -0.2281 -0.0028
54002W        W96940   0.501  31.322  25.011 -0.0172 -0.0636  0.0284
54003W        W96941  33.930  31.154  25.262  0.0792 -0.2384  0.2255
54004W        W96942  32.810  33.867  25.684 -0.1031  0.1001  0.1138
54005W        W96943  33.645  32.690  24.880  0.2460 -0.1661 -0.1880
54006W        W96944   0.764  32.955  26.503 -0.1924 -0.1662 -0.4351
54007W        W96945  32.624  31.779  23.685 -0.1046 -0.0715 -0.1155
54008W        W96946  34.496  32.300  27.200  0.0580  0.1034 -0.1113
54009W        W96947  34.149  33.622  25.368 -0.1593  0.0376  0.0447
54010W        W96948  33.859  33.222  25.588 -0.0630  0.0573 -0.3166
54011W        W96949  33.225  32.293  27.135 -0.0574 -0.1798 -0.1264
54012W        W96950  33.503  31.372  25.253  0.1623 -0.2569 -0.2239
54013W        W96951  34.462  30.660  23.584  0.1579  0.3215  0.3169
54014W        W96952  32.634  29.575  25.234 -0.2310  0.0296  0.2379
54015W        W96953  33.832  30.112  27.197 -0.3011  0.0652 -0.0035
54016W        W96954  33.787  32.253  24.940 -0.1095  0.1379 -0.1802
54017W        W96955  34.054  30.783  26.574 -0.2496 -0.2525  0.0258
54018W        W96956  34.468  32.950  27.187  0.0574 -0.0903  0.2767
54019W        W96957  32.583  30.471  26.230  0.1617 -0.0179 -0.1330
54020W        W96958  33.328  30.989  24.066 -0.2086  0.2678 -0.1830
54021W        W96959  33.600  32.339  26.659 -0.1014 -0.0106  0.0369
54022W        W96960  32.789  31.223  25.692  0.2089  0.1290  0.1259
54023W        W96961  32.010  28.772  25.141  0.4700 -0.0426 -0.0910
54024W        W96962  31.835  33.329  26.371  0.0139 -0.1204 -0.4414
54025W        W96963   0.743  31.445  25.993 -0.1639  0.0123  0.3101
54026W        W96964  33.814  32.155  24.146 -0.0149  0.0687  0.1682
54027W        W96965   1.448  30.970  25.602  0.2725 -0.0731 -0.3536
54028W        W96966  33.328  33.090  26.972  0.0678  0.0140  0.0265
54029W        W96967  34.339  29.849  27.850  0.0009 -0.1602  0.0898
54030W        W96968  34.473  31.549  27.023 -0.0054  0.1050 -0.0046
54031W        W96969  33.213  32.617  23.273 -0.1826 -0.4072 -0.3029
54032W        W96970  33.109  31.641  25.207  0.1435 -0.2936 -0.0106
54033W        W96971  33.620  31.994  24.563  0.0731  0.2224 -0.0157
54034W        W96972  32.995  29.864  27.517  0.0402  0.2784  0.2085
54035W        W96973  33.504  31.749  26.646 -0.0580 -0.2316  0.0481
54036W        W96974  33.060  28.651  26.085 -0.2815  0.0817 -0.2800
54037W        W96975   0.199  29.910  24.221  0.2970  0.3117 -0.1372
54038W        W96976  32.376  31.555  26.348  0.0580  0.1603 -0.0366
54039W        W96977  33.115  30.474  26.428 -0.2396 -0.0156  0.1487
54040W        W96978  34.579  29.989  26.614 -0.6697  0.0807 -0.2705
54041W        W96979  33.297  29.367  26.507  0.1284  0.1018 -0.3350
54042W        W96980  32.125  29.932  25.083 -0.4719 -0.0706 -0.3258
54043W        W96981   0.647  30.092  25.249 -0.2726  0.2188  0.3273
54044W        W96982  34.125  31.452  24.312 -0.1828  0.3169  0.4919
54045W        W96983  30.894  30.234  25.657 -0.0352 -0.0102  0.0131
54046W        W96984  34.090  30.811  25.586  0.1030  0.0652  0.2045
54047W        W96985  33.435  33.025  24.153 -0.2116  0.2363 -0.4061
54048W        W96986  34.417  31.158  25.705 -0.1124 -0.2424 -0.3027
54049W        W96987  33.308  29.038  25.902  0.2053  0.1709 -0.3017
54050W        W96988  32.682  31.310  26.718 -0.1053  0.0489  0.0490
54051W        W96989  33.820  30.350  25.530  0.1570 -0.0052 -0.1044
54052W        W96990  31.986  32.398  24.721 -0.2259 -0.1090 -0.2898
54053W        W96991  34.570  30.578  25.662  0.2455  0.0271  0.0709
54054W        W96992  33.844  31.714  24.971  0.0087  0.1380  0.0601
54055W        W96993  32.206  31.427  26.864  0.1646 -0.1643  0.1118
54056W        W96994  33.540  29.785  25.309 -0.0544  0.0694  0.3085
54057W        W96995  33.618  31.717  27.140  0.0685 -0.0605 -0.0588
54058W        W96996  32.100  31.911  26.749  0.2196  0.1932 -0.1941
54059W        W96997  33.448  32.361  25.397  0.4191 -0.2813 -0.0593
54060W        W96998   0.743  32.426  24.524  0.0705  0.1726  0.2018
54061W        W96999   0.089  31.722  26.079 -0.1649  0.0004  0.0749
54062W        W97000   0.447  29.640  27.326  0.1814 -0.1087  0.0818
54063W        W97001   0.090  30.342  23.833  0.1301  0.1963 -0.0456
54064W        W97002  32.907  32.316  22.997 -0.0254 -0.0735 -0.0133
54065W        W97003  33.851  28.839  26.908  0.1066 -0.1131 -0.0660
54066W        W97004  34.182  30.492  26.030 -0.2138 -0.0563  0.2015
54067W        W97005  34.555  30.452  26.552  0.1106  0.0910  0.1929
54068W        W97006  33.473  32.308  26.166 -0.2408  0.2020 -0.1195
54069W        W97007  32.763  33.347  25.899  0.0745  0.0595  0.1423
54070W        W97008   0.261  29.887  26.917  0.3805  0.0175 -0.1361
54071W        W97009  32.478  32.755  24.455 -0.3524 -0.0433 -0.2415
54072W        W97010  33.287  30.992  23.581  0.0908  0.0841 -0.0333
54073W        W97011  33.546  28.535  26.069  0.3167 -0.0274 -0.2439
54074W        W97012   1.560  31.113  24.678 -0.1678  0.0676 -0.2470
54075W        W97013  33.878  33.229  25.097 -0.0562  0.2149  0.2735
54076W        W97014  33.351  33.163  25.085 -0.0125 -0.0462  0.1522
54077W        W97015  33.179  31.985  25.669 -0.1197  0.2765 -0.0488
54078W        W97016  32.931  29.298  26.180 -0.0119  0.0661  0.0835
54079W        W97017  33.150  30.225  25.274 -0.0862 -0.0920  0.2470
54080W        W97018  33.756  30.156  26.008 -0.0436  0.0230  0.0893
54081W        W97019   0.861  29.109  28.023 -0.2771 -0.1574 -0.1718
54082W        W97020  33.262  33.445  26.464 -0.0737 -0.1639 -0.0885
54083W        W97021  34.574  32.048  26.790 -0.3691 -0.2852 -0.2654
54084W        W97022  33.275  30.290  25.989  0.0816 -0.1362  0.1122
54085W        W97023  34.357  31.739  25.817  0.0552 -0.2541  0.2959
54086W        W97024  33.154  32.978  24.658 -0.1760  0.4718  0.2054
54087W        W97025   0.043  31.463  25.072  0.0234  0.3195 -0.0825
54088W        W97026  32.851  32.467  24.773 -0.2008  0.0133  0.2774
54089W        W97027   0.407  31.197  27.745 -0.1400  0.1439  0.2436
54090W        W97028  34.170  30.494  25.153  0.1764  0.2313  0.0512
54091W        W97029   0.579  30.468  24.877  0.0463 -0.2030  0.2580
54092W        W97030   0.066  29.830  25.171  0.0348 -0.1686 -0.4200
54093W        W97031  33.597  31.158  26.399 -0.0368  0.1448 -0.0127
54094W        W97032  34.605  33.414  27.100 -0.2954  0.1048  0.5163
54095W        W97033  33.165  33.088  23.108 -0.3153 -0.4174  0.0836
54096W        W97034  32.750  31.819  25.523 -0.1614  0.1512 -0.2239
54097W        W97035  33.095  31.902  24.325  0.2460 -0.1936  0.1205
54098W        W97036   0.236  28.801  27.719 -0.5132 -0.0903  0.1079
54099W        W97037  34.628  32.404  25.073 -0.0566  0.2033  0.0363
54100W        W97038   0.306  32.248  25.392 -0.5031 -0.1501 -0.2062
54101W        W97039  33.706  32.296  27.121  0.0989 -0.0297 -0.0245
54102W        W97040  34.520  30.946  24.504 -0.0695 -0.1401  0.2446
54103W        W97041  34.224  29.967  26.269 -0.0265 -0.0461 -0.2340
54104W        W97042  31.898  30.987  26.633  0.1042  0.1119  0.1382
54105W        W97043  34.400  30.672  27.196 -0.1571 -0.0317  0.2108
54106W        W97044  32.201  29.239  25.898  0.1137 -0.2338  0.2445
54107W        W97045  34.666  31.506  26.557  0.1438  0.2421 -0.1888
54108W        W97046  33.563  31.603  24.261  0.0632  0.1267  0.2693
54109W        W97047  33.570  31.848  25.312 -0.1393 -0.1415  0.0295
54110W        W97048   0.608  31.810  24.787 -0.1147  0.0320  0.0110
54111W        W97049   0.203  30.984  25.442  0.1906 -0.1935  0.4254
54112W        W97050  33.279  30.248  27.822 -0.1355  0.3932  0.0248
54113W        W97051   0.160  30.936  27.041 -0.0825  0.1250  0.0897
54114W        W97052  33.364  30.668  27.557 -0.0469 -0.0779 -0.0894
54115W        W97053  33.001  30.536  26.914  0.1974  0.0046  0.1475
54116W        W97054  32.176  27.748  25.056 -0.1114 -0.0967  0.0757
54117W        W97055  33.841  33.558  24.488  0.3407  0.2307 -0.0021
54118W        W97056  32.155  30.513  25.410 -0.0424  0.0021 -0.0173
54119W        W97057  34.544  32.648  28.041  0.0107 -0.0513  0.1715
54120W        W97058  32.216  29.214  24.900  0.0112  0.0854 -0.1925
54121W        W97059   0.977  32.493  24.097 -0.1157  0.0117  0.5061
54122W        W97060   0.413  31.811  25.250 -0.0331  0.0236  0.1409
54123W        W97061   0.041  28.966  24.044  0.0231  0.0763  0.0964
54124W        W97062  32.784  31.475  24.712 -0.1093 -0.2879  0.1532
54125W        W97063  34.564  32.576  26.712 -0.4501 -0.0928 -0.3203
54126W        W97064  34.230  32.224  28.134 -0.0189 -0.3955  0.2204
54127W        W97065  34.685  32.643  25.490  0.1163  0.0766  0.1241
54128W        W97066  34.423  31.359  26.172  0.1721 -0.0959  0.3284
54129W        W97067  33.166  31.212  26.189  0.0553 -0.6270 -0.0600
54130W        W97068   0.152  30.413  25.229  0.0059 -0.0644 -0.0210
54131W        W97069  32.550  29.479  27.292  0.0361 -0.0049 -0.1603
54132W        W97070  33.890  29.411  25.116  0.1305  0.0395 -0.1734
54133W        W97071  32.370  32.636  28.798 -0.0493  0.0874  0.2219
54134W        W97072  31.840  30.342  24.898  0.0208  0.1124 -0.1193
54135W        W97073  33.436  33.640  24.903  0.1838 -0.0318 -0.0950
54136W        W97074  34.421  28.536  24.793 -0.2290 -0.1218  0.2431
54137W        W97075  33.862  32.574  26.295  0.0313 -0.3877 -0.1197
54138W        W97076  31.616  32.639  22.317  0.0961  0.0168  0.2159
54139W        W97077  33.024  33.743  25.235 -0.0164 -0.1521  0.1104
54140W        W97078  33.707  30.404  26.442  0.0754  0.2218  0.0796
54141W        W97079  32.641  28.678  25.235 -0.0275  0.1058  0.0580
54142W        W97080  33.068  31.005  27.076 -0.1136  0.3659 -0.1404
54143W        W97081  34.081  33.171  27.035 -0.2060 -0.1777 -0.0584
54144W        W97082  34.050  30.220  24.684  0.3225 -0.1369  0.2477
54145W        W97083  34.349  31.141  27.358 -0.4560  0.5156 -0.1813
54146W        W97084  32.811  33.261  24.357 -0.0985 -0.0164  0.2024
54147W        W97085  34.500  33.006  25.852 -0.2367  0.0830 -0.0965
54148W        W97086  33.304  31.720  26.199  0.3213  0.2856 -0.0476
54149W        W97087  33.106  32.636  25.200  0.0026 -0.0366 -0.0028
54150W        W97088  32.579  30.708  24.880 -0.1005  0.1094 -0.2128
54151W        W97089  33.748  29.619  27.440 -0.0164  0.0178  0.1388
54152W        W97090   0.557  30.196  24.046 -0.1244 -0.0075  0.1118
54153W        W97091  32.324  31.026  25.269 -0.3902  0.2396 -0.1619
54154W        W97092   0.440  30.343  22.490  0.1875 -0.0158  0.0844
54155W        W97093  33.334  30.170  26.801  0.0568  0.0187  0.1691
54156W        W97094  34.278  32.005  23.985  0.0554 -0.0904 -0.2641
54157W        W97095  32.863  30.858  26.559  0.3128  0.4494  0.1138
54158W        W97096  33.419  29.860  25.805  0.0447 -0.1450 -0.1659
54159W        W97097  33.757  31.240  23.313 -0.0539 -0.3637 -0.0238
54160W        W97098  33.867  31.499  25.593  0.1892 -0.1208  0.1430
54161W        W97099  33.946  29.483  23.859  0.2337 -0.1149  0.6107
54162W        W97100   0.096  31.524  25.571 -0.0086  0.0768  0.3226
54163W        W97101  32.741  33.139  23.834  0.1617  0.1872  0.0583
54164W        W97102   0.220  33.150  24.118 -0.0359 -0.1252  0.4370
54165W        W97103   0.121  32.144  26.377 -0.0573 -0.0391 -0.3635
54166W        W97104  34.044  31.960  27.283 -0.1443  0.0826  0.1459
54167W        W97105  32.780  30.379  24.415 -0.1763  0.0146  0.6821
54168W        W97106   0.055  31.882  27.234 -0.4158 -0.1083 -0.0814
54169W        W97107  34.308  31.810  26.373 -0.1247 -0.2354  0.0140
54170W        W97108   0.330  33.078  25.573  0.1180  0.0542  0.0235
54171W        W97109   1.369  30.557  24.526  0.1034 -0.0873 -0.2192
54172W        W97110  33.458  29.485  26.046 -0.0261  0.1512 -0.0514
54173W        W97111  33.786  32.772  26.887  0.3144  0.0850  0.0801
54174W        W97112  32.893  30.876  24.486 -0.0715 -0.1250 -0.1667
54175W        W97113  34.353  29.979  23.784  0.1132  0.1056  0.1605
54176W        W97114  32.958  32.116  26.106  0.0154  0.0633  0.2161
54177W        W97115  34.309  29.040  27.191  0.3005 -0.2780  0.2564
54178W        W97116  32.590  30.291  26.888  0.1110  0.3377 -0.1845
54179W        W97117  34.244  32.051  25.003  0.1661  0.0532  0.0501
54180W        W97118   0.648  29.565  23.863  0.0157 -0.1044  0.2308
54181W        W97119  32.976  28.975  26.564 -0.0227  0.0022  0.1331
54182W        W97120  33.849  29.131  26.067 -0.0178 -0.2065  0.2070
54183W        W97121  34.080  28.763  25.078  0.1267 -0.1783  0.1572
54184W        W97122  32.277  30.896  23.826 -0.0424 -0.0737  0.1957
54185W        W97123   0.729  31.571  27.802  0.1052 -0.0902 -0.1190
54186W        W97124   1.390  30.908  27.289  0.1956  0.1789  0.0327
54187W        W97125  32.604  29.489  25.788  0.2073 -0.1086  0.2717
54188W        W97126   0.056  30.019  24.691 -0.0105 -0.0223  0.0644
54189W        W97127   0.562  31.876  26.262  0.1357 -0.0170 -0.2315
54190W        W97128  34.009  30.922  27.040  0.2840  0.0329 -0.0736
54191W        W97129  33.413  29.674  27.001  0.3601 -0.1316 -0.0487
54192W        W97130  34.094  32.885  27.664 -0.2060 -0.0663  0.0400
54193W        W97131  33.328  30.187  28.352  0.0168 -0.1741 -0.0188
54194W        W97132  33.551  32.751  27.355  0.1423 -0.1599  0.2446
54195W        W97133  33.442  28.866  26.485 -0.0134  0.1887 -0.2008
54196W        W97134  33.562  30.236  25.025  0.4063  0.1800  0.0122
54197W        W97135  32.922  29.717  24.492 -0.3499  0.1224  0.2660
54198W        W97136   0.810  31.771  26.783  0.0707  0.3114  0.0003
54199W        W97137  34.137  32.017  24.521  0.4084 -0.1133  0.0158
54200W        W97138   0.638  32.323  26.014 -0.0220  0.1078 -0.2657
54201W        W97139  32.343  29.298  26.752 -0.0963  0.0579 -0.0499
54202W        W97140  33.221  30.552  25.591  0.1072  0.0386  0.3521
54203W        W97141   1.143  30.268  26.631 -0.1174  0.0824  0.0931
54204W        W97142  34.200  29.784  27.172  0.1305 -0.0574  0.4347
54205W        W97143  34.135  32.374  26.797  0.0068  0.3210 -0.0670
54206W        W97144  34.209  32.305  31.490 -0.1519 -0.1512  0.2066
54207W        W97145  32.578  31.293  28.002 -0.1561  0.1040 -0.4512
54208W        W97146  32.690  31.590  29.566 -0.0925  0.1230  0.0761
54209W        W97147  33.151  30.916  29.989  0.1383  0.0526  0.1556
54210W        W97148  34.053  30.661  31.554  0.1213 -0.0972  0.1546
54211W        W97149   0.572  32.826  29.980 -0.1711 -0.0971  0.2576
54212W        W97150   1.171  29.341  28.390  0.2476  0.1196  0.1858
54213W        W97151  32.159  30.198  30.893 -0.3717  0.0378 -0.0688
54214W        W97152  33.729  30.961  28.287 -0.0851 -0.0694 -0.1311
54215W        W97153  33.922  29.266  31.048 -0.2123 -0.0727 -0.2231
54216W        W97154  34.558  30.670  28.665 -0.0971  0.1763  0.1949
54217W        W97155   0.736  29.279   0.473  0.0848  0.1343  0.1042
54218W        W97156   0.789  33.064  30.469 -0.2099  0.1617 -0.1686
54219W        W97157  33.656  30.573  27.089 -0.2219  0.0520 -0.1356
54220W        W97158  32.540  28.741  29.745  0.2648  0.1651 -0.1935
54221W        W97159  34.572  30.536  31.311  0.0123  0.0697 -0.0144
54222W        W97160  34.482  32.028  29.438  0.2654 -0.1867 -0.0217
54223W        W97161   1.555  33.820  27.694  0.0792  0.1157 -0.1181
54224W        W97162   0.112  29.666  27.918 -0.3142  0.0462  0.3113
54225W        W97163  33.038  31.947  29.723  0.0320  0.2897  0.1194
54226W        W97164   0.582  31.642  30.030  0.1245 -0.1983  0.1640
54227W        W97165   0.091  34.225  30.823 -0.2603 -0.2947 -0.2668
54228W        W97166  33.552  31.950  28.578 -0.2237  0.1575  0.0606
54229W        W97167  34.038  32.085  31.093  0.1806  0.0138  0.3034
54230W        W97168   0.427  32.552  27.648 -0.3207  0.3198  0.1660
54231W        W97169  34.252  32.500  30.149  0.0670 -0.3095 -0.2892
54232W        W97170  33.187  31.625   0.769 -0.0969 -0.2200 -0.0654
54233W        W97171  33.947  31.411  29.452 -0.1147  0.0805 -0.0444
54234W        W97172  33.875  32.210  28.959  0.0760 -0.0635  0.1127
54235W        W97173  33.898  31.355  27.324 -0.0377  0.2750 -0.1507
54236W        W97174  33.970  29.815  28.847 -0.1274 -0.1518 -0.2082
54237W        W97175  32.921  33.235  28.719 -0.2629  0.2926 -0.1451
54238W        W97176  34.411  30.129  31.030 -0.1456  0.0458  0.1726
54239W        W97177  32.719  31.436  31.668 -0.0581  0.0897  0.2698
54240W        W97178  33.929  30.822  29.202 -0.0805  0.1423  0.2604
54241W        W97179  34.206  29.799  29.746 -0.0025  0.6549 -0.0706
54242W        W97180  33.029  30.519  29.617  0.3497 -0.0252 -0.1620
54243W        W97181  33.251  29.472  30.618 -0.1251  0.0699 -0.0614
54244W        W97182  33.825  30.079  27.673  0.0855 -0.1852  0.3350
54245W        W97183  32.444  30.956   0.128 -0.3382  0.0752 -0.1134
54246W        W97184  34.543  32.631  30.617  0.0013  0.1035 -0.2010
54247W        W97185   0.005  30.557  27.762 -0.1932  0.4056  0.0407
54248W        W97186   0.139  32.465  28.453  0.1711  0.0216  0.0408
54249W        W97187  33.261  32.331  30.131 -0.0857  0.1156 -0.1543
54250W        W97188  34.242  31.458   0.876  0.1030  0.1165 -0.0690
54251W        W97189   0.391  32.863  31.594  0.1386 -0.0482 -0.2988
54252W        W97190  34.512  33.034  30.294 -0.2176 -0.0073  0.2085
54253W        W97191  30.673  32.111  27.948  0.1847  0.1589  0.0807
54254W        W97192  34.030  31.807  27.895 -0.0793 -0.1396 -0.4233
54255W        W97193  32.957  30.639  30.425 -0.2362 -0.0619 -0.2283
54256W        W97194  33.686  33.550  30.695  0.1755  0.2247  0.0562
54257W        W97195  34.032  30.075   0.044 -0.0284  0.0554 -0.0243
54258W        W97196  34.373  31.622  27.557 -0.1936  0.3389 -0.3698
54259W        W97197  32.556  29.928  29.226  0.0807  0.0313  0.0349
54260W        W97198  33.586  30.514  29.338 -0.2271 -0.0279 -0.0321
54261W        W97199  31.809  30.387  31.399  0.0896  0.2156 -0.1411
54262W        W97200  32.530  30.034  30.020 -0.3855  0.1351 -0.0480
54263W        W97201  33.267  29.339  29.499 -0.0074 -0.0887  0.0108
54264W        W97202   0.834  31.513  29.146  0.0635 -0.2872  0.1555
54265W        W97203  33.245  30.658  28.359  0.2883 -0.1480 -0.3856
54266W        W97204  33.602  28.958  30.730  0.1836 -0.0649  0.0894
54267W        W97205  32.960  30.645  27.912 -0.0529 -0.0095  0.0169
54268W        W97206  33.227  31.764  30.382  0.3631  0.0861  0.1218
54269W        W97207  33.819  32.243  30.182 -0.0502 -0.1697  0.3043
54270W        W97208  33.294  30.433  28.916  0.0181 -0.1466  0.0931
54271W        W97209  34.494  30.920  31.613  0.2215 -0.0787  0.1988
54272W        W97210  33.563  31.547  27.717 -0.0295 -0.3953 -0.0683
54273W        W97211  34.439  31.631  28.085 -0.0812  0.1262 -0.0743
54274W        W97212  32.578  30.842  29.141  0.3335 -0.1687  0.0308
54275W        W97213   1.312  32.198  28.242 -0.0560  0.0341  0.2790
54276W        W97214  32.523  30.599  30.780  0.0198 -0.0758 -0.1433
54277W        W97215  32.437  30.823  27.848  0.1256 -0.3187 -0.0431
54278W        W97216  33.356  31.331   0.435  0.2001  0.0960 -0.0426
54279W        W97217  31.488  31.387  30.702 -0.2660  0.3621 -0.2993
54280W        W97218   0.729  32.534  28.610  0.1645 -0.0904  0.2845
54281W        W97219  33.850  32.674  29.855 -0.2688  0.1345 -0.0687
54282W        W97220  32.400  31.816  31.644 -0.0269  0.0389  0.2092
54283W        W97221  33.060  30.476  30.871  0.3871 -0.1051 -0.0468
54284W        W97222   0.573  31.456  28.253  0.1367  0.1209  0.0278
54285W        W97223  34.136  32.605  27.254 -0.1149  0.2736 -0.1795
54286W        W97224   1.171  30.702  31.951 -0.1335  0.2074  0.0962
54287W        W97225  33.341  30.118  27.294 -0.1150  0.3802  0.0910
54288W        W97226  34.234  29.281  30.606  0.2892 -0.2270 -0.0119
54289W        W97227   0.308  31.394  30.932 -0.0958 -0.4066  0.1797
54290W        W97228  34.018  33.447  31.717 -0.1249  0.3279 -0.0276
54291W        W97229  34.207  30.131  31.469 -0.0644 -0.4087  0.2588
54292W        W97230   0.444  32.025  28.546 -0.1251 -0.2187  0.0411
54293W        W97231  34.615  31.265  27.842  0.0957 -0.3058  0.1437
54294W        W97232  33.590  29.469  29.852 -0.0537 -0.0973  0.0366
54295W        W97233  34.319  32.953  29.807 -0.3725  0.1147 -0.1197
54296W        W97234  34.478  32.817  29.358  0.0411  0.3707  0.1696
54297W        W97235  33.762  32.783  28.761  0.3896  0.0850 -0.0969
54298W        W97236  34.202  32.921  28.953 -0.2251 -0.1040  0.1146
54299W        W97237   0.372  30.466  27.440  0.1062 -0.1515  0.1106
54300W        W97238  33.338  30.832  26.681 -0.2510 -0.2818  0.1446
54301W        W97239  34.660  29.453  30.436 -0.2292  0.2805  0.2102
54302W        W97240  34.666  29.801  30.002  0.2830 -0.2914 -0.0185
54303W        W97241  34.003  31.684  30.768  0.0684  0.2090  0.3828
54304W        W97242  34.488  31.870  31.286 -0.0803  0.2476  0.0575
54305W        W97243  32.202  30.384  27.749  0.4222 -0.4984  0.1699
54306W        W97244  33.776  30.871  30.720  0.3524 -0.1037 -0.0894
54307W        W97245  34.240  31.271  28.443  0.1540 -0.0415  0.0762
54308W        W97246   0.814  32.212  29.135 -0.1044  0.2963 -0.1391
54309W        W97247  34.480  31.503  29.242 -0.0767 -0.1852  0.0954
54310W        W97248  34.115  29.086  31.870 -0.1905 -0.0601  0.0073
54311W        W97249   0.865  29.530  30.040  0.0430 -0.2188 -0.1398
54312W        W97250  33.789  31.350  28.613 -0.1154 -0.2932 -0.2757
54313W        W97251  33.520  30.479  30.973  0.2162 -0.1638  0.1713
54314W        W97252  34.464  31.351  31.108  0.0365 -0.0673  0.0032
54315W        W97253  32.129  31.535  30.868 -0.0749 -0.4227 -0.0124
54316W        W97254  34.097  30.347  26.867 -0.0334  0.1682 -0.4629
54317W        W97255  32.091  31.076  29.046  0.0560  0.1482  0.2429
54318W        W97256   1.180  31.798  29.025  0.1069  0.3508  0.4055
54319W        W97257   0.772  30.032  30.267 -0.1070 -0.1930 -0.0429
54320W        W97258  34.232  30.822  30.454 -0.0694  0.0910  0.1871
54321W        W97259  34.392  31.832  28.818  0.1278 -0.0044  0.0028
54322W        W97260   0.166  31.508  29.555 -0.1806 -0.0860  0.0616
54323W        W97261  34.313  32.023  29.939  0.1289  0.1203 -0.0693
54324W        W97262  33.450  30.535  29.880  0.2982  0.2069  0.1022
54325W        W97263  32.899  31.059  30.741  0.0043 -0.2414 -0.0431
54326W        W97264  32.485  29.999  31.860  0.0785  0.0861  0.0558
54327W        W97265  34.167  28.950  27.728 -0.1006 -0.0711 -0.0585
54328W        W97266   0.087  31.743  30.006  0.0314 -0.1428  0.2141
54329W        W97267   0.166  31.036  29.363  0.0355 -0.2411 -0.1244
54330W        W97268  34.020  31.600  31.257 -0.0210  0.1825  0.1372
54331W        W97269  34.671  32.671  28.913 -0.3870  0.0666 -0.0375
54332W        W97270  33.414  30.452  30.430 -0.1243 -0.1025 -0.2370
54333W        W97271   0.718  29.905  31.475 -0.2808  0.0399 -0.0631
54334W        W97272  33.103  30.292  31.321 -0.3009 -0.3362  0.1644
54335W        W97273  32.879  28.523  31.665 -0.1140  0.0200  0.1093
54336W        W97274  33.573  31.453  30.589 -0.1190 -0.3281  0.2813
54337W        W97275   0.263  31.674  27.798 -0.3946  0.2519 -0.0832
54338W        W97276   0.011  33.169  27.617  0.1482  0.1154 -0.0807
54339W        W97277  32.274  30.412  29.153 -0.0386 -0.3353 -0.1211
54340W        W97278  33.896  30.704  29.695  0.5387 -0.2120  0.1660
54341W        W97279  33.644  30.488  27.991 -0.0804 -0.1310  0.1424
54342W        W97280   0.906  30.636  27.486  0.1117  0.0769 -0.2044
54343W        W97281   0.237  32.991  29.222 -0.3099 -0.0754 -0.0161
54344W        W97282  34.247  29.032  28.508 -0.0359  0.1210  0.1954
54345W        W97283  33.589  31.291  29.125  0.4345  0.2097 -0.1546
54346W        W97284  33.940  32.256  29.524 -0.2348 -0.2213  0.1554
54347W        W97285  33.670  30.911  31.444  0.3190 -0.2057 -0.1519
54348W        W97286  33.884  31.769  29.779 -0.1057 -0.2074  0.3421
54349W        W97287  34.421  30.851  29.165  0.2329  0.1394  0.2082
54350W        W97288  34.090  31.280  30.458  0.0035 -0.1074 -0.0316
54351W        W97289   0.374  32.291  30.795 -0.3561 -0.2695  0.3117
54352W        W97290  32.401  31.473  30.447  0.1230  0.1448  0.3137
54353W        W97291  33.785  30.332  28.953 -0.1810 -0.1000 -0.2728
54354W        W97292  32.993  33.257  31.395  0.1057 -0.0363 -0.0895
54355W        W97293  33.895  32.612  30.659  0.1758  0.0306 -0.2525
54356W        W97294   0.068  33.682  27.533 -0.1042  0.0311 -0.0681
54357W        W97295   0.680  31.022  28.492 -0.2199  0.0926 -0.0040
54358W        W97296  33.346  32.861  29.033  0.3193  0.1046  0.1722
54359W        W97297  31.762  32.357  26.878  0.2238 -0.1994 -0.2348
54360W        W97298   0.005  32.183  28.910 -0.1663  0.0748 -0.0398
54361W        W97299   0.064  30.740  30.311  0.1664 -0.1663  0.2018
54362W        W97300  33.964  31.015  26.058  0.2188  0.2229 -0.0338
54363W        W97301   0.552  32.352  31.572  0.4799  0.0434 -0.0000
54364W        W97302  33.110  31.323  31.311 -0.2446 -0.2099 -0.1085
54365W        W97303   0.181  30.566  28.311  0.0854 -0.2697 -0.4548
54366W        W97304  33.980  31.265  29.921  0.1282 -0.2118 -0.0712
54367W        W97305   1.206  32.243  27.756 -0.2565  0.1608 -0.0748
54368W        W97306  33.692  32.543  29.273 -0.2208 -0.0167 -0.2448
54369W        W97307  34.153  32.154  30.554  0.0729 -0.0115  0.1311
54370W        W97308  34.243  33.445  30.033  0.0150 -0.2028 -0.0044
54371W        W97309  34.182  29.950  29.265  0.0038  0.5759 -0.1436
54372W        W97310  33.406  30.025  30.811 -0.3477  0.1550  0.0892
54373W        W97311   0.477  30.702  27.839  0.1746 -0.1710  0.0421
54374W        W97312  33.020  30.240  30.094  0.2026  0.1012  0.0089
54375W        W97313  33.940  30.565  27.502 -0.1997  0.2853 -0.0854
54376W        W97314  34.304  30.455  29.466  0.1218 -0.1730  0.1528
54377W        W97315  34.062  30.805  28.740  0.0096 -0.0869 -0.0941
54378W        W97316  34.444  31.631  30.314 -0.2092  0.4356 -0.0123
54379W        W97317  33.410  30.031  29.802  0.0069  0.2199  0.2912
54380W        W97318   0.056  32.224  27.676 -0.1434 -0.1390  0.4060
54381W        W97319   0.913  31.613  30.459 -0.2205 -0.0817 -0.3376
54382W        W97320   0.370  30.097  29.430 -0.1047 -0.1623  0.5058
54383W        W97321  33.889  31.778  30.311 -0.2945 -0.2626  0.0381
54384W        W97322  34.618  33.228  28.919 -0.2726  0.0309 -0.1600
54385W        W97323  34.266  32.328  28.624  0.0493 -0.2718  0.2488
54386W        W97324  34.460  33.104  30.805 -0.0883 -0.0726  0.0685
54387W        W97325  34.167  31.678   0.337  0.3048  0.1520 -0.0646
54388W        W97326  32.936  30.439  27.396  0.1283  0.3600 -0.1187
54389W        W97327   1.192  31.793  31.292 -0.3538 -0.4338 -0.0987
54390W        W97328  34.294  32.384  29.094 -0.0591 -0.1787 -0.1277
54391W        W97329   0.881  33.043  28.553 -0.1957 -0.1110  0.0829
54392W        W97330  34.687  30.217  28.603 -0.1439  0.0187 -0.1540
54393W        W97331  34.520  30.466  30.653 -0.2819  0.1289 -0.0952
54394W        W97332  34.450  31.252   0.031 -0.0838 -0.0470 -0.1220
54395W        W97333  31.944  30.958  25.589  0.4255 -0.3064  0.0697
54396W        W97334  34.045  31.830  28.403 -0.0845 -0.1351  0.0855
54397W        W97335  33.332  30.971  30.500  0.3147  0.1720  0.0280
54398W        W97336   0.252  30.578  31.947 -0.0728  0.0442  0.1071
54399W        W97337  33.537  31.647  31.093  0.0677  0.1779 -0.3264
54400W        W97338  33.294  30.076  29.314 -0.1161 -0.1447 -0.2863
54401W        W97339  34.315  28.597  26.878  0.0215  0.3296 -0.0714
54402W        W97340  34.295  31.065  29.568 -0.1651  0.0217  0.1044
54403W        W97341  33.737  29.726  30.572  0.3009 -0.1032 -0.1614
54404W        W97342  34.374  30.272  28.982  0.1296  0.2613 -0.4731
54405W        W97343  32.844  31.742  26.478  0.1099 -0.1158  0.0481
54406W        W97344   0.606  29.931  30.761  0.2672 -0.0844  0.1838
54407W        W97345   0.134  31.040  31.221 -0.0548 -0.0340 -0.1970
54408W        W97346  32.753  30.199  27.800  0.1169 -0.1809  0.1146
54409W        W97347  34.414  30.571  29.972 -0.4365  0.0493  0.1740
54410W        W97348   1.123  32.550  30.142  0.0881  0.0734  0.2576
54411W        W97349   0.885  33.872  30.648 -0.0012 -0.2382 -0.0088
54412W        W97350  33.297  29.129  31.082 -0.0120  0.0921 -0.2529
54413W        W97351  34.607  31.730  30.774  0.3432  0.0290  0.1562
54414W        W97352  32.420  29.502  31.015 -0.3778 -0.0960 -0.0265
54415W        W97353  34.033  31.098  31.116 -0.2317 -0.3606  0.0003
54416W        W97354   0.554  29.259  28.378 -0.0000  0.2222  0.0625
54417W        W97355  33.784  29.951  30.088 -0.1827  0.2297 -0.0268
54418W        W97356  33.719  30.475  28.488  0.3195 -0.0537  0.3664
54419W        W97357   1.619  30.335   0.409  0.0633  0.0285  0.3122
54420W        W97358  34.107  31.253  27.895  0.1136 -0.0542 -0.0086
54421W        W97359   0.758  33.330  30.001 -0.1887  0.0837 -0.2900
54422W        W97360  32.851  28.879  31.329 -0.3852  0.2090 -0.0797
54423W        W97361   0.328  31.880  29.112 -0.0450  0.2480 -0.1981
54424W        W97362   0.051  31.060  28.337 -0.0446  0.1342 -0.1135
54425W        W97363  34.374  30.835  30.899  0.0514 -0.2943  0.0790
54426W        W97364  33.227  34.498  29.503  0.1438  0.0472  0.0948
54427W        W97365  32.614  29.898   0.370 -0.1371  0.1191  0.2151
54428W        W97366  33.850  31.937  31.595 -0.0715 -0.4138  0.0412
54429W        W97367  33.066  33.207  31.860  0.1075 -0.1887  0.1772
54430W        W97368  33.817  33.039  31.505  0.0848 -0.1401  0.3219
54431W        W97369   0.661  30.923   0.173 -0.0896  0.0329  0.1597
54432W        W97370   0.394  29.270  30.661  0.3158  0.2563 -0.0836
54433W        W97371  34.637  31.412  31.576  0.0179  0.0043 -0.1945
54434W        W97372  32.826  31.917  31.818  0.0960  0.0650 -0.1328
54435W        W97373  33.526  30.009  31.909 -0.4696  0.1351  0.1776
54436W        W97374  34.011  28.998   0.902  0.0949 -0.2936 -0.1159
54437W        W97375  33.819  30.179   1.407 -0.1519  0.1606  0.4098
54438W        W97376  33.251  29.843  31.491 -0.0930  0.2900  0.1554
54439W        W97377  32.573  29.455  31.963  0.0123 -0.1530  0.3696
54440W        W97378   0.599  30.149   0.459  0.0272 -0.2362  0.1403
54441W        W97379  33.834  32.557  31.174 -0.3522 -0.0409  0.0054
54442W        W97380  33.223  30.850  31.167  0.0973  0.2048 -0.1897
54443W        W97381  34.664  31.146   0.884 -0.0567  0.0284  0.1005
54444W        W97382   0.556  32.018   0.043  0.1286 -0.0657  0.1068
54445W        W97383   0.745  29.782  31.946  0.0480  0.0804 -0.0579
54446W        W97384  33.605  30.244  31.432  0.0624  0.0629  0.3973
54447W        W97385  33.857  30.634   0.878  0.1067 -0.0885 -0.0540
54448W        W97386  33.609  30.845   0.471  0.1365 -0.1891 -0.3142
54449W        W97387   1.364  30.731  31.200 -0.3259 -0.0884  0.0181
54450W        W97388   0.327  30.065   0.042 -0.1922 -0.5064 -0.1124
54451W        W97389  33.281  32.429   1.049 -0.2052 -0.0499 -0.1097
54452W        W97390  34.056  30.503  31.021 -0.0031 -0.1390  0.2973
54453W        W97391   0.393  31.850   0.504  0.2574 -0.0535  0.2375
54454W        W97392  33.678  27.538  31.598 -0.0377 -0.2848 -0.1426
54455W        W97393  32.930  30.948  31.597  0.0732 -0.1757  0.1362
54456W        W97394   1.564  29.049  30.375  0.4933  0.0837 -0.2255
54457W        W97395   0.016  31.479   0.468  0.4098 -0.1844  0.2342
54458W        W97396   0.281  30.223  30.969  0.3180  0.0403  0.0611
54459W        W97397  33.946  31.897   0.809 -0.2847  0.1915 -0.0671
54460W        W97398  33.275  31.790  31.661 -0.0631  0.1516  0.1283
54461W        W97399  32.141  30.423  31.820 -0.3168  0.1335 -0.1005
54462W        W97400  31.759  31.121   1.075  0.2135  0.2794 -0.1489
54463W        W97401  34.142  30.719   0.224 -0.1225  0.2173 -0.4234
54464W        W97402  32.982  30.653   0.116 -0.3615  0.1262  0.0093
54465W        W97403  33.073  29.277   0.635  0.0664 -0.1891 -0.2708
54466W        W97404  34.002  33.697  17.428  0.0532  0.0886 -0.2767
54467W        W97405  33.083  33.833  17.148 -0.0180 -0.3082  0.0622
54468W        W97406  32.343  33.595  20.138  0.0739  0.0692 -0.0108
54469W        W97407  33.317   0.253  19.426 -0.2103  0.1759 -0.0617
54470W        W97408  33.432  32.514  16.703  0.1631  0.0877  0.1947
54471W        W97409  32.582  33.114  18.394 -0.2422 -0.1720 -0.0487
54472W        W97410  32.777  34.288  17.912  0.2756 -0.2037 -0.0468
54473W        W97411  32.891  33.505  18.886  0.1160  0.1967  0.0762
54474W        W97412  33.659  34.633  17.482  0.2991  0.3709 -0.1243
54475W        W97413  33.780  33.969  19.418  0.2207 -0.2104 -0.0289
54476W        W97414  33.774   0.442  16.815  0.3721  0.0802  0.0111
54477W        W97415  33.958  33.592  19.066 -0.0112 -0.0390 -0.2993
54478W        W97416  32.280   1.974  18.579  0.0468  0.0674  0.1785
54479W        W97417   0.167   0.753  18.572 -0.1395  0.0261  0.1754
54480W        W97418   1.090  32.357  16.776  0.1507 -0.1674 -0.2296
54481W        W97419  34.368  33.109  17.676  0.1092 -0.0261  0.1019
54482W        W97420  33.819  34.605  18.555  0.0031  0.1640 -0.0438
54483W        W97421  33.367  34.324  17.826 -0.2928  0.2149  0.0127
54484W        W97422  34.219  34.358  16.392  0.1187  0.1934 -0.1511
54485W        W97423  33.020   1.283  20.082 -0.0929  0.0817  0.0699
54486W        W97424  32.974  34.633  19.630  0.2695  0.1488 -0.1911
54487W        W97425  33.059  32.352  16.385  0.1292 -0.0497  0.1135
54488W        W97426  34.570  34.612  19.664 -0.0508  0.0439  0.2341
54489W        W97427  34.501  32.020  18.470  0.1944  0.2783 -0.0671
54490W        W97428  34.267  33.745  19.523  0.1481  0.2505 -0.0659
54491W        W97429  32.876  32.989  20.508 -0.3734 -0.1311 -0.1332
54492W        W97430  33.407  34.194  19.727 -0.0090  0.1181 -0.0891
54493W        W97431  33.760   0.718  19.173  0.0860  0.1152  0.0876
54494W        W97432  32.346  34.044  17.962  0.1821  0.1889  0.2130
54495W        W97433  33.238  32.438  17.262 -0.0618  0.1601  0.3888
54496W        W97434  33.358  34.609  18.322 -0.0110  0.0930 -0.2482
54497W        W97435  34.072  34.121  18.950  0.3768 -0.1691  0.1869
54498W        W97436  33.432  32.791  16.306  0.1930  0.0667 -0.0829
54499W        W97437  33.845  33.125  16.274  0.1880 -0.0267 -0.0757
54500W        W97438  32.683  32.889  16.025  0.0730  0.0346 -0.0385
54501W        W97439  32.716  33.914  19.245  0.0126  0.0961  0.0257
54502W        W97440  33.186   1.465  18.615  0.3832  0.0162  0.0277
54503W        W97441  32.980  33.645  16.640  0.0171 -0.1194  0.2346
54504W        W97442  34.564  33.308  18.856  0.0660 -0.0868 -0.0404
54505W        W97443  33.418  33.442  16.970 -0.0828  0.0118 -0.1718
54506W        W97444   0.180  32.778  19.801 -0.1830  0.2276  0.0570
54507W        W97445  32.978   0.134  16.773 -0.0763 -0.0228 -0.2381
54508W        W97446   0.515  33.576  18.252  0.3555 -0.5464 -0.1721
54509W        W97447   1.048  33.882  19.379  0.0459 -0.0372  0.2734
54510W        W97448  34.659  32.875  19.298 -0.0523 -0.0667 -0.1512
54511W        W97449   0.765  34.473  17.193 -0.2669  0.0638  0.0130
54512W        W97450  32.928   0.284  17.229  0.1941 -0.3351  0.1232
54513W        W97451  32.861  34.374  17.347  0.4279  0.2542  0.1777
54514W        W97452   1.284  33.780  18.649  0.0392 -0.0950 -0.1335
54515W        W97453   0.369   0.134  20.885 -0.0101  0.3310 -0.2675
54516W        W97454  32.293  33.071  16.539 -0.0870 -0.1255 -0.1568
54517W        W97455  34.448   0.312  17.985  0.2886 -0.1549 -0.0487
54518W        W97456  33.636  33.896  17.075  0.0742  0.1493 -0.1468
54519W        W97457  33.892   0.742  20.417 -0.0899  0.4326 -0.0055
54520W        W97458  34.108  33.300  18.638  0.0543  0.3029 -0.2095
54521W        W97459  33.890  33.267  17.182 -0.0717 -0.1862  0.0779
54522W        W97460  33.627   0.081  16.562 -0.3689 -0.1853 -0.2255
54523W        W97461  33.650  34.370  20.121  0.1979  0.0665  0.1011
54524W        W97462   0.162  33.714  18.723  0.0130 -0.1082  0.2899
54525W        W97463  34.011  34.276  18.099 -0.2477  0.0022 -0.2371
54526W        W97464  33.423  33.552  20.355 -0.1100  0.0104  0.0165
54527W        W97465  32.805  33.613  18.358  0.0027 -0.1007 -0.2431
54528W        W97466  33.441  34.487  19.277  0.0638 -0.1469  0.1184
54529W        W97467  33.483  32.539  17.684  0.2926 -0.2473  0.1573
54530W        W97468   0.067  34.379  18.947  0.0439 -0.0518 -0.4421
54531W        W97469   0.315   1.107  20.596  0.3082 -0.0536 -0.2721
54532W        W97470  33.316   0.594  20.548 -0.1648  0.0782  0.1213
54533W        W97471   0.673  34.617  18.978 -0.0801 -0.0723  0.0870
54534W        W97472  33.040  33.352  19.388 -0.0281  0.0611  0.0870
54535W        W97473  33.632   0.722  18.701 -0.0469 -0.0852 -0.1197
54536W        W97474  33.812  32.169  16.684 -0.1083  0.1864 -0.2035
54537W        W97475  32.650  32.684  18.634 -0.2391  0.0974  0.0601
54538W        W97476  33.823  33.564  16.604  0.4039 -0.0269  0.1111
54539W        W97477  34.273  33.899  16.504  0.0073  0.0717  0.1402
54540W        W97478   0.720  31.971  16.868 -0.2276 -0.4307 -0.3031
54541W        W97479  33.064  34.549  18.986 -0.0926 -0.4059  0.0965
54542W        W97480  34.116   0.839  18.801 -0.1898 -0.0584 -0.0623
54543W        W97481  32.538   0.579  20.530  0.1080  0.1526  0.3803
54544W        W97482  34.119  33.119  16.711  0.2654  0.1531  0.1449
54545W        W97483  34.450  33.496  16.792  0.2361  0.5637 -0.0865
54546W        W97484   0.156  34.131  18.474 -0.3040  0.1555  0.2479
54547W        W97485  33.348  33.301  16.473  0.0985  0.0910  0.0761
54548W        W97486  34.177   0.636  19.962 -0.0499 -0.3263 -0.2887
54549W        W97487  34.029  33.442  17.818  0.2307  0.1070  0.0928
54550W        W97488  34.544  34.342  18.064  0.0471  0.0098  0.1680
54551W        W97489  33.772  34.103  17.668 -0.3052  0.0149  0.0367
54552W        W97490  34.581   0.895  19.947  0.1426 -0.0807  0.1508
54553W        W97491  33.886   0.044  19.241  0.0572 -0.1726  0.0481
54554W        W97492  34.410  33.358  18.233  0.1164 -0.0972  0.0559
54555W        W97493  34.240  32.760  16.333 -0.1520  0.2753  0.1702
54556W        W97494  33.946  32.846  17.599 -0.0626  0.0352 -0.2054
54557W        W97495  34.444   0.382  18.569  0.0663  0.1291 -0.0945
54558W        W97496  34.324  34.237  18.490 -0.4000 -0.0989  0.0031
54559W        W97497  33.138  33.994  18.156  0.0866  0.1269  0.3162
54560W        W97498  31.915  34.260  17.760 -0.3879 -0.2482 -0.1048
54561W        W97499   0.072  32.924  17.434 -0.1338 -0.0212 -0.2073
54562W        W97500  32.387   0.999  20.033  0.1268 -0.0483 -0.0628
54563W        W97501   0.381   1.202  18.717  0.2386 -0.0735  0.1676
54564W        W97502  34.409  33.366  17.237  0.4088 -0.2880  0.1607
54565W        W97503   0.153  34.667  20.203 -0.2324 -0.1930  0.1297
54566W        W97504  32.790   0.984  16.280  0.2021 -0.1696  0.2622
54567W        W97505  33.908  32.050  19.062  0.0738 -0.2294 -0.3161
54568W        W97506  32.912  34.145  19.697 -0.1069 -0.1324  0.1858
54569W        W97507  32.903   0.395  19.229  0.2311 -0.0873 -0.3038
54570W        W97508  33.676  32.618  17.221 -0.2907 -0.2904 -0.0814
54571W        W97509  33.583  34.261  18.813  0.0392  0.3723  0.1259
54572W        W97510  33.769  33.726  18.630  0.0414 -0.1288  0.0107
54573W        W97511  33.147  32.955  17.832  0.0887 -0.0648 -0.0588
54574W        W97512   0.207   0.439  19.261 -0.2457 -0.2623  0.0505
54575W        W97513   0.216  32.630  21.117 -0.0817 -0.1833  0.2909
54576W        W97514  31.523  33.258  19.074 -0.0916 -0.0378 -0.0296
54577W        W97515   0.367   0.954  19.170  0.0925  0.0479 -0.0954
54578W        W97516  33.041  32.785  19.597  0.0082 -0.0856  0.0453
54579W        W97517  32.593  32.466  19.691 -0.0667 -0.0005  0.1250
54580W        W97518  33.632  34.089  18.292 -0.0661  0.3220 -0.0698
54581W        W97519  34.333  33.756  18.651 -0.2299  0.0155 -0.0660
54582W        W97520   0.435  32.914  17.762 -0.2358  0.2493  0.2979
54583W        W97521  34.376  33.284  19.379 -0.3389  0.0359  0.2565
54584W        W97522  33.760  34.695  18.102  0.0651 -0.1370  0.0712
54585W        W97523  32.934  34.312  18.448  0.2157 -0.1953  0.0527
54586W        W97524  34.217  34.636  17.761  0.4199  0.1502 -0.1239
54587W        W97525  32.476  34.019  18.452 -0.1179  0.1840 -0.0788
54588W        W97526  33.598  33.325  18.347  0.3783  0.0479  0.1292
54589W        W97527  33.502  33.698  21.009 -0.0321  0.2941  0.1288
54590W        W97528  33.062   0.285  20.842 -0.0158  0.1662  0.2622
54591W        W97529  33.167  33.543  23.889  0.0247  0.1447  0.1159
54592W        W97530  33.461  33.574  23.483 -0.3116 -0.1581  0.0038
54593W        W97531   0.749  33.807  18.611  0.0386  0.0055 -0.0642
54594W        W97532  33.053  32.293  21.109 -0.1610 -0.1342 -0.2032
54595W        W97533  34.444   0.256  20.163 -0.2081  0.4455  0.0165
54596W        W97534   0.168  34.043  23.791 -0.0958  0.0998  0.2729
54597W        W97535  33.951  34.315  19.712  0.1679 -0.0347  0.0533
54598W        W97536  33.667  33.138  23.127  0.2066 -0.2624 -0.1884
54599W        W97537  32.361  34.280  20.518 -0.1026 -0.4178  0.2238
54600W        W97538  32.934  33.557  20.320 -0.0368  0.3637 -0.3064
54601W        W97539  32.977  33.685  22.616 -0.0073 -0.0367  0.1729
54602W        W97540   1.263  34.078  22.259 -0.0166 -0.2105 -0.3219
54603W        W97541  32.674  34.012  20.150 -0.0925 -0.0854 -0.0957
54604W        W97542  34.318  34.313  21.284 -0.1370  0.1154  0.0023
54605W        W97543  34.264  33.666  23.021 -0.1611  0.1366 -0.0126
54606W        W97544  33.757  34.465  21.479 -0.2796  0.0264  0.0065
54607W        W97545   0.186  34.029  20.187 -0.1334  0.1164  0.0121
54608W        W97546  33.775   0.033  21.931  0.3997 -0.0081 -0.0580
54609W        W97547  33.359   1.607  23.870  0.3151 -0.1018 -0.2941
54610W        W97548  34.029  33.569  20.456 -0.0303 -0.1052 -0.1779
54611W        W97549  33.051   1.356  24.822  0.2029  0.1599  0.2594
54612W        W97550  32.100  33.625  22.889 -0.0127  0.1202 -0.2220
54613W        W97551  33.161  33.206  22.562  0.0918 -0.4442 -0.0877
54614W        W97552  33.806  33.678  22.001 -0.0764 -0.0016 -0.1310
54615W        W97553  33.710   0.292  20.659 -0.4130 -0.2542 -0.0097
54616W        W97554  33.430  34.439  23.697  0.0128  0.2585  0.1831
54617W        W97555  33.460  33.341  22.216 -0.1289  0.2459  0.2501
54618W        W97556  32.201  34.113  20.092  0.3090  0.3864 -0.0775
54619W        W97557  32.332   0.218  21.418  0.2178  0.1551 -0.0040
54620W        W97558  33.653  33.069  22.567 -0.4389  0.0332  0.1066
54621W        W97559  32.867  33.505  22.145 -0.2553 -0.0821  0.0507
54622W        W97560  34.693  33.498  20.364  0.0393  0.1692  0.3432
54623W        W97561  33.240  33.659  19.858 -0.1335 -0.1459  0.0731
54624W        W97562  31.345   1.247  21.095  0.0653 -0.3976  0.0484
54625W        W97563  31.403   0.588  23.063  0.1890  0.3012  0.0755
54626W        W97564  32.104  34.445  21.088 -0.0445  0.4099 -0.1386
54627W        W97565  34.114  33.070  22.863 -0.0955  0.3909  0.0164
54628W        W97566  33.875  34.461  20.572 -0.1322  0.2794 -0.1372
54629W        W97567   0.125  33.050  23.555 -0.0628 -0.2356 -0.1801
54630W        W97568   0.606  33.656  20.140  0.0632  0.0100  0.2434
54631W        W97569  33.995  32.924  23.415 -0.0169  0.4188  0.1561
54632W        W97570  34.292  33.259  23.759 -0.1478  0.1475  0.1440
54633W        W97571  33.498  32.247  22.958 -0.0488 -0.1295  0.0778
54634W        W97572  33.133  34.468  20.053 -0.2198  0.1621 -0.1600
54635W        W97573  32.975  34.467  20.987  0.3627 -0.1210  0.1860
54636W        W97574  32.578  34.530  22.363 -0.1776 -0.1212 -0.2662
54637W        W97575   0.570  32.306  23.138  0.0143  0.2639 -0.3493
54638W        W97576  33.278   0.238  22.903 -0.1112 -0.1806  0.1401
54639W        W97577   0.305  34.312  20.571  0.1515 -0.1167  0.1676
54640W        W97578   0.146  33.613  22.225  0.4686 -0.0438 -0.0225
54641W        W97579   0.389  34.379  19.810  0.0510  0.0070  0.5293
54642W        W97580  33.161   0.889  22.789 -0.0836  0.0910 -0.2675
54643W        W97581  34.665  34.064  21.634 -0.2545  0.0619  0.1159
54644W        W97582  32.835   0.732  20.921  0.1552 -0.0251 -0.0035
54645W        W97583  34.536  34.615  22.908 -0.0075  0.2681  0.1294
54646W        W97584   0.617  34.639  22.868  0.3091  0.1241 -0.1891
54647W        W97585  34.482  33.326  22.455 -0.0637  0.0063 -0.1654
54648W        W97586  33.670  33.237  21.772  0.0494  0.0412 -0.1113
54649W        W97587  33.616  33.723  21.541  0.1236  0.1700 -0.0107
54650W        W97588  33.013  33.905  23.320 -0.2886  0.0519  0.2118
54651W        W97589  33.416   2.078  24.116 -0.2093 -0.1491  0.2011
54652W        W97590  33.397  34.484  20.682  0.1097 -0.1551 -0.2696
54653W        W97591  32.202  33.536  21.512  0.2004 -0.3663  0.0390
54654W        W97592  33.060   1.222  23.542 -0.0862  0.0320  0.3559
54655W        W97593  33.298  34.282  24.202 -0.2551  0.1569 -0.0205
54656W        W97594  33.939  33.538  22.617  0.0921  0.2469  0.0479
54657W        W97595  32.771  33.527  23.514 -0.2049 -0.0185  0.1082
54658W        W97596  34.158  32.561  23.082  0.1137 -0.1057 -0.4740
54659W        W97597  34.554  33.930  19.120  0.2074  0.1104 -0.1237
54660W        W97598  32.732  34.152  21.963 -0.1819 -0.2078  0.2388
54661W        W97599  33.664  33.289  20.748  0.0017 -0.1948 -0.2451
54662W        W97600  33.913  34.003  21.275  0.2377 -0.4917  0.2412
54663W        W97601  34.365  34.497  20.822 -0.2853  0.0782 -0.1210
54664W        W97602   0.993   1.471  21.481  0.0642  0.2021  0.2338
54665W        W97603  33.568  34.144  23.255  0.0353  0.3757  0.0657
54666W        W97604  32.781   0.448  23.196 -0.2994 -0.0308  0.1247
54667W        W97605  34.507  32.688  22.135  0.1244 -0.1403 -0.3229
54668W        W97606  34.123   0.110  21.459 -0.1385  0.1671 -0.2692
54669W        W97607   1.073  34.205  21.810 -0.0999 -0.0857  0.0766
54670W        W97608   1.071  33.120  21.189 -0.0344  0.1989 -0.0819
54671W        W97609  33.246   0.496  24.168 -0.0981  0.1290 -0.2187
54672W        W97610  32.347  33.008  20.849  0.1023  0.0239  0.2361
54673W        W97611  34.547  34.143  22.252  0.0003  0.1331 -0.1621
54674W        W97612  33.782  33.158  20.252  0.2872  0.0806 -0.1348
54675W        W97613  34.302  33.668  21.996 -0.0689  0.1001 -0.2062
54676W        W97614  34.055  33.855  20.856 -0.0010 -0.3679 -0.1354
54677W        W97615  34.442  33.315  24.226 -0.1563  0.0345 -0.2736
54678W        W97616   0.142  33.465  19.387  0.3865 -0.1790  0.4671
54679W        W97617  34.449   0.616  21.413  0.0703 -0.0699  0.1206
54680W        W97618  34.020   0.465  21.809  0.3051  0.2198 -0.2076
54681W        W97619  34.034  33.965  22.303 -0.0658 -0.0947  0.1758
54682W        W97620  33.618  34.015  20.643 -0.1462  0.1473  0.3525
54683W        W97621  32.873  32.991  22.138  0.0906 -0.2601 -0.2316
54684W        W97622   0.811  32.663  20.955  0.1523  0.2563 -0.0545
54685W        W97623  34.092  32.691  22.495  0.1298  0.2235 -0.2564
54686W        W97624  34.369  34.399  19.271  0.0735 -0.1276 -0.1059
54687W        W97625  34.146  34.077  21.754  0.1386  0.0773 -0.1517
54688W        W97626  33.706  34.547  22.825  0.1633 -0.2385 -0.0957
54689W        W97627  34.202   0.360  20.644 -0.0861  0.1155  0.3053
54690W        W97628  33.717  33.266  23.786  0.1122 -0.2863  0.0230
54691W        W97629  33.228  34.032  22.857 -0.2782  0.0483 -0.2111
54692W        W97630  32.677  33.918  20.648  0.0543 -0.0381 -0.1002
54693W        W97631  34.527  33.199  22.033 -0.1588  0.1097 -0.1673
54694W        W97632  33.870  32.786  21.979 -0.0077  0.0319  0.0624
54695W        W97633  33.298  33.877  22.059  0.2171  0.1644  0.0409
54696W        W97634  34.351  33.755  21.269 -0.0182 -0.0306  0.1095
54697W        W97635  34.292   0.345  24.134 -0.1782 -0.1418 -0.1488
54698W        W97636  32.871   0.044  23.579  0.0174  0.2242  0.0933
54699W        W97637  32.599  32.210  20.894  0.0885 -0.2155  0.2679
54700W        W97638  33.998  33.705  23.547  0.0058  0.1589 -0.1258
54701W        W97639  33.379  32.839  21.777 -0.3456 -0.0625  0.3986
54702W        W97640  33.979  31.569  23.065  0.0082  0.0827  0.1009
54703W        W97641  32.752  32.951  22.688  0.2435 -0.0742  0.0497
54704W        W97642  33.697  34.157  21.878 -0.1608 -0.5829  0.4584
54705W        W97643   0.141  34.478  21.185 -0.2102 -0.1415 -0.2543
54706W        W97644  34.245  33.891  23.988  0.1315  0.3365  0.1304
54707W        W97645  33.780  33.670  19.940  0.1581 -0.2122 -0.1202
54708W        W97646  33.142  31.656  22.501 -0.2145  0.0469  0.0366
54709W        W97647  32.188  33.843  20.500  0.1196  0.1942 -0.3172
54710W        W97648  34.425   0.258  21.991 -0.1501  0.3246  0.0048
54711W        W97649  33.642  32.399  22.513 -0.2911  0.1582 -0.0258
54712W        W97650  33.827  34.301  24.094 -0.2179  0.2755  0.3624
54713W        W97651  33.505  33.831  24.214  0.0115 -0.3383 -0.1379
54714W        W97652  33.833  31.955  26.323  0.0627  0.2829 -0.0284
54715W        W97653  34.427  34.330  26.417 -0.0126  0.1779  0.2041
54716W        W97654  34.162  33.127  24.716  0.0430  0.1112 -0.1364
54717W        W97655  32.738  33.509  26.373 -0.1138 -0.1155  0.0212
54718W        W97656  32.260   0.483  24.497  0.2367 -0.1585  0.5091
54719W        W97657  33.937  34.255  26.274 -0.1273 -0.0762 -0.0277
54720W        W97658  33.990   0.205  25.556 -0.1446  0.1287  0.1621
54721W        W97659  33.974  31.912  26.774  0.2326  0.2247 -0.1006
54722W        W97660  32.627   0.091  22.863 -0.0934  0.2520 -0.4520
54723W        W97661  33.820   1.196  27.343 -0.2366 -0.2114  0.0245
54724W        W97662  33.386   0.135  26.831 -0.0463  0.1680 -0.2202
54725W        W97663  34.025   1.605  26.717  0.4404 -0.1258  0.1084
54726W        W97664  34.505  34.191  24.362 -0.1331 -0.0176 -0.2422
54727W        W97665  33.455  34.121  24.645  0.0726 -0.0575  0.0577
54728W        W97666  34.051  32.769  25.824  0.0176  0.1581  0.1469
54729W        W97667  33.654  33.696  25.347  0.0049 -0.3416  0.0951
54730W        W97668  33.946   0.562  25.028  0.3040 -0.0448 -0.1008
54731W        W97669  32.112   0.342  27.846  0.2262  0.0185  0.0253
54732W        W97670  33.399  33.825  27.344  0.2026  0.0038 -0.2916
54733W        W97671  34.473  32.748  23.871 -0.2892  0.0459  0.2713
54734W        W97672   0.414  33.488  27.190  0.1654 -0.2978 -0.1153
54735W        W97673  31.912  33.723  26.113  0.1103  0.0863 -0.0410
54736W        W97674  31.516  33.628  27.709  0.0258 -0.1097  0.0025
54737W        W97675  33.088   0.709  26.417 -0.2156  0.1226 -0.1407
54738W        W97676  33.367   0.037  24.464 -0.0860  0.1101  0.0804
54739W        W97677  32.814  33.315  28.113  0.0192  0.3449  0.0093
54740W        W97678  32.473  34.095  26.613  0.0254 -0.2121 -0.0201
54741W        W97679  32.574  33.977  23.950 -0.0093 -0.0415  0.2344
54742W        W97680  33.488   1.382  24.409  0.1737 -0.4217 -0.1394
54743W        W97681  33.697  33.570  26.998  0.0126 -0.2159 -0.1839
54744W        W97682  33.772  33.682  23.071  0.2634 -0.1511 -0.0467
54745W        W97683  32.934  34.257  23.712 -0.0945  0.3364  0.0859
54746W        W97684  33.237  32.664  22.767 -0.0464 -0.1207  0.1567
54747W        W97685  33.277   0.228  26.325  0.1310  0.0637 -0.0554
54748W        W97686  34.541  33.939  26.742  0.1061 -0.1066 -0.1633
54749W        W97687  32.010  34.343  24.062  0.1750 -0.1457 -0.0925
54750W        W97688  34.536  32.643  27.570  0.2832 -0.0755 -0.1237
54751W        W97689  31.791   1.518  23.075 -0.4387  0.1542  0.0460
54752W        W97690   0.723  33.530  25.707 -0.3607 -0.1437 -0.1071
54753W        W97691  31.858   0.116  24.247 -0.1477  0.0424 -0.0301
54754W        W97692   0.019  33.461  26.270  0.0949 -0.1139 -0.0810
54755W        W97693  34.155  33.559  28.092 -0.0767 -0.1228 -0.4038
54756W        W97694  34.565  32.027  25.417 -0.2157 -0.0015  0.0400
54757W        W97695  33.018   1.273  24.048 -0.2391 -0.1363 -0.0456
54758W        W97696  32.388  34.185  24.387 -0.1260  0.1609 -0.1006
54759W        W97697  31.901  33.368  25.722  0.1692 -0.5626 -0.0093
54760W        W97698  34.253  33.850  26.344 -0.2013 -0.0763  0.1349
54761W        W97699  33.614   0.081  28.694 -0.0149 -0.2663  0.1842
54762W        W97700  32.581   0.453  23.730  0.3325  0.1387 -0.2086
54763W        W97701  32.664   0.377  24.181 -0.3168  0.4990  0.0326
54764W        W97702  33.079   1.728  23.455  0.1637 -0.0402 -0.0753
54765W        W97703  33.827  33.705  26.472 -0.2383 -0.0883 -0.1025
54766W        W97704  34.291  32.370  26.297  0.0309 -0.3726  0.1608
54767W        W97705  32.611  33.722  24.461  0.0936  0.2566  0.1002
54768W        W97706  33.309  32.989  25.601 -0.2513  0.0292 -0.0892
54769W        W97707  34.634  33.099  26.731 -0.1111 -0.2116  0.0362
54770W        W97708  34.296  33.461  26.703  0.1011 -0.1827  0.1792
54771W        W97709  33.638  33.137  24.651 -0.0065 -0.0142 -0.2273
54772W        W97710   0.018  33.562  28.029  0.0773 -0.0135 -0.1655
54773W        W97711  32.340  33.380  26.099 -0.3616 -0.1859 -0.0887
54774W        W97712  32.746  34.558  27.435  0.1290 -0.0859 -0.1976
54775W        W97713  32.326  33.210  24.234 -0.0316  0.0360 -0.1251
54776W        W97714  32.937   0.108  27.081  0.1473  0.2287 -0.5641
54777W        W97715  33.632   0.560  26.172  0.3082  0.0250 -0.2225
54778W        W97716  33.223  33.227  27.441  0.2418  0.1324 -0.2832
54779W        W97717  33.925  33.891  24.899 -0.2543 -0.1052  0.0498
54780W        W97718  33.156  31.752  26.961  0.0232 -0.1525  0.1322
54781W        W97719  33.058  32.898  28.328  0.3511  0.0385 -0.2339
54782W        W97720  33.267  33.591  23.055  0.1156  0.1997  0.0961
54783W        W97721  32.885  34.294  26.253  0.1241  0.0369  0.3633
54784W        W97722  32.960  32.843  24.158 -0.0635 -0.0250 -0.2712
54785W        W97723  34.321   1.491  24.697  0.1806  0.1389  0.3705
54786W        W97724  34.428  34.400  23.843  0.0259 -0.1123  0.1471
54787W        W97725  33.358   0.569  25.269 -0.2426  0.2034 -0.3195
54788W        W97726  32.405   0.161  27.095  0.4474 -0.4245  0.0441
54789W        W97727  32.131  33.344  28.254 -0.0529  0.3762 -0.0480
54790W        W97728  32.518  34.569  23.953 -0.2998  0.0443  0.1031
54791W        W97729  33.019  33.888  24.228  0.1335 -0.3063 -0.1341
54792W        W97730  33.747  34.640  27.183  0.2112 -0.0495  0.0281
54793W        W97731  32.960  33.409  24.850  0.1357 -0.3315 -0.0469
54794W        W97732  34.049   0.987  26.298 -0.1255  0.0758 -0.1186
54795W        W97733  33.136  34.365  24.942 -0.3578 -0.2289  0.0561
54796W        W97734  33.143   0.935  24.387 -0.1035  0.2878 -0.2056
54797W        W97735  32.306   0.290  22.392 -0.0846  0.1532  0.0473
54798W        W97736  34.186  32.892  26.621  0.1573 -0.2268 -0.1774
54799W        W97737  32.698   0.886  23.521 -0.1009  0.0208  0.2218
54800W        W97738  33.283  33.518  25.606  0.1282 -0.2187 -0.1132
54801W        W97739  33.980  34.177  24.534 -0.1579  0.1369  0.0917
54802W        W97740  33.391  33.999  26.381 -0.0245 -0.4391 -0.2106
54803W        W97741  33.495   1.065  24.822 -0.1737 -0.4803 -0.4282
54804W        W97742  34.249   1.267  25.717 -0.2132  0.0185  0.1984
54805W        W97743  33.786  33.775  25.936  0.1050 -0.1116 -0.1028
54806W        W97744  32.836   1.026  26.095 -0.1391 -0.1536  0.0709
54807W        W97745   1.327  31.640  24.726  0.3850  0.3654  0.3467
54808W        W97746  34.140   0.501  26.351  0.1485 -0.1407  0.0910
54809W        W97747  34.556  33.558  25.043  0.0895 -0.0010  0.0319
54810W        W97748  33.557   0.156  25.129  0.0919  0.0207 -0.0016
54811W        W97749  33.934   1.228  24.423  0.0406 -0.4457 -0.2710
54812W        W97750  31.902   1.613  24.674 -0.2718  0.0513 -0.3306
54813W        W97751   0.648  32.223  27.141 -0.1009  0.2279 -0.1927
54814W        W97752  33.092   0.135  28.217  0.2839  0.1514  0.0539
54815W        W97753  32.181   1.540  25.728 -0.0168 -0.0053 -0.1067
54816W        W97754  32.208  33.028  23.736 -0.2378  0.2219 -0.2337
54817W        W97755  32.932  33.028  26.561 -0.1158  0.1829  0.0182
54818W        W97756  33.184  33.053  26.124 -0.2755 -0.1212 -0.0289
54819W        W97757   0.008  33.230  24.623  0.1211  0.1297 -0.2967
54820W        W97758   0.216  33.509  26.703 -0.1735  0.1116 -0.2062
54821W        W97759  32.953  33.908  26.562 -0.1376 -0.4340 -0.2283
54822W        W97760  31.983  34.336  23.542  0.1431  0.0861  0.3644
54823W        W97761  33.574  33.349  26.070  0.1527  0.1290  0.1523
54824W        W97762  31.463  33.372  26.082 -0.3874  0.1237 -0.3697
54825W        W97763  32.460  32.630  27.573 -0.1581 -0.1419  0.0498
54826W        W97764  33.033  33.947  24.760 -0.1093  0.0041 -0.4116
54827W        W97765   0.229   0.272  27.042 -0.4755 -0.1241 -0.0657
54828W        W97766  33.162  34.465  23.221  0.0711 -0.1269 -0.1865
54829W        W97767   0.906  34.007  26.514  0.2098 -0.1411  0.1290
54830W        W97768  32.416   0.000  23.432  0.3806 -0.3548 -0.2219
54831W        W97769  32.863  33.575  27.388 -0.1597  0.0099 -0.0406
54832W        W97770  33.038   0.821  24.919 -0.1154  0.2198  0.3815
54833W        W97771   0.395   0.600  24.826 -0.0079 -0.1293  0.2400
54834W        W97772  32.365   0.006  24.521 -0.1712  0.0368 -0.2164
54835W        W97773  33.530  34.446  28.314  0.1612  0.3273 -0.0317
54836W        W97774  33.329  33.975  28.630 -0.1302  0.1420 -0.3824
54837W        W97775  34.663  33.286  29.698  0.3813 -0.1065 -0.0654
54838W        W97776  34.604   0.485  31.175 -0.0860 -0.1576 -0.1513
54839W        W97777  34.551  32.887  28.491 -0.0390  0.2367  0.1449
54840W        W97778  33.955  33.780  29.602  0.0866 -0.1130  0.4011
54841W        W97779  33.631   0.594  27.770  0.3462 -0.0760 -0.3990
54842W        W97780  34.269  34.298  30.981  0.3044  0.0948 -0.0441
54843W        W97781  33.240  32.391  28.192  0.1084 -0.1548  0.0728
54844W        W97782  34.326  32.700  31.058 -0.1059 -0.0537 -0.0101
54845W        W97783  31.995  33.577  27.503 -0.1493  0.0198  0.0688
54846W        W97784  32.722  33.350  30.946 -0.0966  0.2432  0.1183
54847W        W97785  33.891  34.266  28.711 -0.0320 -0.1784 -0.0931
54848W        W97786   2.177  34.249  29.016 -0.1647  0.3754  0.0091
54849W        W97787  33.776  33.269  27.416  0.0156 -0.2765  0.3367
54850W        W97788  33.456  32.352  29.705 -0.3778 -0.1444 -0.1158
54851W        W97789   0.945  33.367  29.289  0.1306 -0.1542  0.1760
54852W        W97790   0.246  33.927  29.529  0.2913 -0.0333  0.1303
54853W        W97791  33.949  34.031  26.851  0.2322 -0.0705 -0.0972
54854W        W97792  33.175   0.304  29.640  0.3008 -0.1383 -0.0939
54855W        W97793  32.557  34.034  30.195  0.0390  0.0528 -0.6045
54856W        W97794  34.236  33.347  27.502  0.0844 -0.2287  0.0827
54857W        W97795  33.468  34.019  29.869 -0.0134 -0.0001  0.2579
54858W        W97796  33.738   0.077  29.668 -0.1017  0.0234 -0.1785
54859W        W97797  33.692  34.165  30.411 -0.0133 -0.1899  0.0154
54860W        W97798  34.186  33.417  30.493  0.1802  0.3732  0.0368
54861W        W97799  32.246  33.501  29.160 -0.4708  0.2385 -0.1507
54862W        W97800  34.101   0.324  30.412 -0.2948 -0.1048 -0.1017
54863W        W97801  33.514  33.501  29.647 -0.0561  0.0094 -0.4578
54864W        W97802  33.807  32.338  28.402  0.1361 -0.0380  0.2559
54865W        W97803  32.516   0.732  27.609  0.0933  0.0560 -0.1251
54866W        W97804   0.828  34.398  30.339  0.1100 -0.1320  0.0814
54867W        W97805  33.147  33.610  26.954 -0.1557  0.0687  0.0563
54868W        W97806  33.799  33.782  28.601  0.1421  0.2561  0.0245
54869W        W97807  32.691  33.133  27.541  0.0750  0.1902 -0.0044
54870W        W97808  32.168   0.234  28.294  0.1358  0.0439  0.1177
54871W        W97809  33.160   0.093   0.949 -0.0760  0.4859 -0.2010
54872W        W97810  32.329   0.131  26.481  0.1545 -0.0679  0.0303
54873W        W97811  34.503  34.047  31.391  0.1460 -0.0049 -0.3466
54874W        W97812  34.419  34.357  27.871  0.2686  0.0037 -0.1374
54875W        W97813  34.637  32.562   0.954  0.0089  0.1197 -0.0347
54876W        W97814  34.206  33.891  27.600  0.0408 -0.0734 -0.1015
54877W        W97815   1.526  33.673  30.136 -0.1952 -0.1426  0.2549
54878W        W97816   0.383  33.320  31.019  0.0482 -0.0135  0.1625
54879W        W97817  34.172  33.361  29.493  0.1195 -0.1754  0.0698
54880W        W97818  33.234  33.981  28.125 -0.1414 -0.2665  0.1540
54881W        W97819  33.831  33.678  30.110 -0.1523 -0.1175  0.2081
54882W        W97820   0.107  34.448  30.323  0.1973 -0.0174 -0.0367
54883W        W97821   1.913  32.773  29.560 -0.1518  0.4673 -0.2769
54884W        W97822  33.310   0.899  30.829  0.1032  0.0145  0.1725
54885W        W97823  32.538  33.082  29.055 -0.0073  0.4214 -0.1622
54886W        W97824  34.302  33.952  28.690  0.0126  0.0900 -0.1258
54887W        W97825  32.508   0.600  28.097  0.0802  0.1607  0.0271
54888W        W97826  34.399   0.169  30.872  0.0492  0.0078 -0.1030
54889W        W97827  34.102  34.214  29.184 -0.0841  0.0861 -0.0695
54890W        W97828  33.439  33.205  28.643  0.4181 -0.0664 -0.2199
54891W        W97829   0.338  33.603  29.879  0.2622 -0.0979  0.5360
54892W        W97830   1.083  34.321  29.213  0.0159  0.4306 -0.2767
54893W        W97831   0.313  33.509  29.267  0.0504 -0.0561 -0.0760
54894W        W97832  33.780  33.815  29.107  0.1870  0.0766  0.0447
54895W        W97833   0.614  33.422  28.900 -0.3059 -0.0704  0.0442
54896W        W97834  32.927  32.425  31.072  0.0052  0.1742 -0.0621
54897W        W97835  33.810  34.423  30.838  0.0062  0.2273 -0.2504
54898W        W97836   0.430  32.461  29.031 -0.0472  0.2672 -0.2483
54899W        W97837  34.036   0.369  29.434  0.2924  0.1774 -0.0623
54900W        W97838   0.319   0.301  29.474  0.1459 -0.0640 -0.0078
54901W        W97839  34.048  32.986  30.284 -0.0278 -0.0091  0.0584
54902W        W97840  33.369   0.241  30.904 -0.3802 -0.0519  0.0991
54903W        W97841  34.627  33.793  31.798 -0.2537 -0.3007 -0.0712
54904W        W97842  34.662  33.570  30.395  0.4722  0.0877  0.4357
54905W        W97843  32.965  34.382  28.482  0.1425 -0.4465 -0.2445
54906W        W97844  31.620  34.066  29.574  0.0994 -0.0168 -0.0015
54907W        W97845  32.352  34.347  27.225  0.1384  0.2489 -0.0186
54908W        W97846  31.945   0.759  26.919  0.1490  0.2611  0.1615
54909W        W97847   1.646  32.720  28.894  0.0256 -0.0649 -0.1031
54910W        W97848  33.379   0.767  28.181  0.0803  0.0565 -0.0458
54911W        W97849  33.929  33.264  28.560  0.1734  0.2213  0.4190
54912W        W97850  32.199  33.685  30.358  0.0318 -0.1181  0.0329
54913W        W97851  33.512  33.547  28.306  0.0466 -0.2186  0.0031
54914W        W97852  33.580  32.827  28.324 -0.2643  0.2170 -0.1566
54915W        W97853   0.495  33.199  29.618  0.1905 -0.0660 -0.2383
54916W        W97854  34.120  32.729  28.324  0.2316  0.0819  0.0709
54917W        W97855   0.779   1.387  30.615  0.2061  0.0482 -0.0133
54918W        W97856  32.453  33.871  27.407  0.1220 -0.0621  0.0376
54919W        W97857  33.642   0.355  30.081 -0.1536  0.2051 -0.0948
54920W        W97858  32.284  33.807  28.233  0.1817  0.0309  0.0496
54921W        W97859   0.476  34.182  30.002 -0.1144 -0.1244 -0.1275
54922W        W97860  34.492  33.404  28.466  0.1304  0.1030  0.1290
54923W        W97861  33.988  34.193  29.883 -0.0963 -0.2286 -0.0158
54924W        W97862  33.503  34.215  27.809  0.1243 -0.0603 -0.2018
54925W        W97863  32.517  33.846  29.752  0.3342  0.3065 -0.0022
54926W        W97864  33.043   0.943  28.759  0.3744 -0.0842  0.0408
54927W        W97865  34.604   1.051  31.043  0.0148 -0.0210  0.2503
54928W        W97866  33.410  34.382  28.952 -0.1651  0.1665  0.0379
54929W        W97867  32.696   0.331  29.588  0.2494 -0.0056  0.0795
54930W        W97868   0.465  33.825  28.429 -0.1346 -0.0599 -0.3083
54931W        W97869   0.243  33.212  30.120 -0.3135  0.1369  0.1159
54932W        W97870   0.926  33.932  28.455 -0.1203  0.1820  0.2617
54933W        W97871   0.089  33.712  28.872 -0.0829 -0.1820  0.2063
54934W        W97872   0.174   0.612  30.482 -0.2459 -0.0900 -0.6590
54935W        W97873  32.729  34.108  28.185  0.0734 -0.0006  0.2231
54936W        W97874   1.081  34.659  30.667  0.0310  0.1213  0.1480
54937W        W97875   1.374  34.394  30.965  0.0005  0.4554  0.0479
54938W        W97876  32.772   0.554  30.025 -0.2671  0.2946 -0.1017
54939W        W97877  33.577   0.258  28.192  0.0905  0.1240 -0.0299
54940W        W97878  33.965  32.930  29.366 -0.0902  0.4039  0.1960
54941W        W97879  33.347  33.628  28.991  0.0281 -0.1335 -0.1799
54942W        W97880   0.271  34.077  27.981 -0.2273  0.0245  0.3033
54943W        W97881   1.785  33.122  30.858 -0.1800  0.0451  0.1996
54944W        W97882  34.267  34.616  29.512 -0.0141  0.2251 -0.2875
54945W        W97883  33.313  33.556  27.803 -0.1554  0.1232  0.2392
54946W        W97884   0.277   0.541  30.001  0.0725 -0.1273  0.0684
54947W        W97885  33.351  33.482  30.197  0.0955 -0.0641 -0.0189
54948W        W97886  34.565  32.888  31.974 -0.0125 -0.2890  0.2078
54949W        W97887  34.222  33.557  29.004  0.2389  0.0687  0.5378
54950W        W97888  32.948  33.181  30.497  0.2787 -0.0744 -0.2288
54951W        W97889   0.928  33.649  27.929  0.1350  0.1105 -0.2688
54952W        W97890   1.520  33.762  28.206 -0.0815 -0.1865  0.2206
54953W        W97891  33.555   0.766  27.340  0.0804 -0.1468  0.0779
54954W        W97892  34.558  33.710  29.358  0.1609  0.0045  0.0786
54955W        W97893  32.620   1.231  27.526  0.0124 -0.0792 -0.0072
54956W        W97894  34.420  34.259  27.189 -0.0225  0.0561 -0.0713
54957W        W97895  33.027  34.081  29.029  0.2200 -0.1720  0.1129
54958W        W97896  32.328  34.105  31.306  0.0163 -0.2477  0.2393
54959W        W97897   0.854  34.307  30.916  0.0069  0.0662 -0.0266
54960W        W97898  33.583  33.245   0.177  0.0496 -0.1942  0.0793
54961W        W97899  33.111  33.812  31.705 -0.2417 -0.0832 -0.3713
54962W        W97900  32.727  33.221   0.448  0.2113 -0.0292  0.1848
54963W        W97901  34.306  34.550  30.538 -0.2372 -0.1444  0.1220
54964W        W97902  33.512  33.995  31.174  0.3641 -0.1818 -0.0120
54965W        W97903  33.614  33.843  31.896 -0.1467 -0.0918 -0.2396
54966W        W97904  33.506  34.661   0.133 -0.1912  0.1288  0.0381
54967W        W97905  33.312  32.607  31.364 -0.1805  0.2548 -0.0247
54968W        W97906   1.096  33.524  31.415  0.0837  0.0667  0.3569
54969W        W97907  34.474  33.345  31.862 -0.2032 -0.1900  0.1983
54970W        W97908  33.738   0.682  31.054 -0.0531  0.0698  0.0414
54971W        W97909  33.497  32.098  31.257  0.1003  0.1458 -0.0389
54972W        W97910   0.290  31.921  31.076  0.3860  0.0352 -0.0449
54973W        W97911  33.910  34.561  30.180  0.1108 -0.1174 -0.4581
54974W        W97912  33.084   0.598  29.257 -0.0687  0.0583 -0.1919
54975W        W97913  34.495  32.040   0.567  0.0494 -0.0803 -0.0063
54976ION     NA97914  13.405   8.346   8.157  0.0829 -0.5321 -0.3071
54977ION     NA97915   1.924  10.195   6.237  0.5363  0.6475  0.1048
54978ION     NA97916   1.694  29.921   4.890  0.3077 -0.1846 -0.4603
54979ION     NA97917   6.805  27.215   6.228  0.2782  0.2182 -0.2562
54980ION     NA97918   6.093  10.443   8.225 -0.6412 -0.9795  0.3132
54981ION     NA97919  20.978  22.630   8.514 -0.3597  0.1661  0.3934
54982ION     NA97920  15.278   9.193  31.659  0.0157 -0.1629  0.5267
54983ION     NA97921   8.090   8.533   4.938  0.3235 -0.6651  0.3503
54984ION     NA97922  34.230  10.275   5.423  0.0578 -0.5094  0.7210
54985ION     NA97923  18.267  13.494   2.072  0.1379  0.1786 -0.0345
54986ION     NA97924  11.259   1.645   3.455  0.5097  0.3596 -0.4496
54987ION     NA97925   3.443   2.257   8.780  0.0500  0.1784  0.1993
54988ION     NA97926  32.931  23.048   7.173 -0.7522 -0.1335  0.1188
54989ION     NA97927  12.997   4.259   6.186 -0.0926  0.2384 -0.3437
54990ION     NA97928  24.772  13.079   7.559 -0.0176 -0.6705 -0.0628
54991ION     NA97929  14.768  23.875   2.987 -0.7431 -0.3570 -0.1187
54992ION     NA97930  20.022   5.887   7.638  0.3135  0.3668 -0.7587
54993ION     NA97931  26.951   8.557   1.563 -0.4911 -0.3113  0.0802
54994ION     NA97932   1.303   8.961   0.543  0.1073 -0.1725 -0.2226
54995ION     NA97933  14.972  15.956   1.164 -0.0231 -0.3171  0.4645
54996ION     NA97934  29.994  30.066   8.360 -0.0838  0.2761 -0.2952
54997ION     NA97935  18.533  19.194  30.945  0.3013 -0.2807 -0.0427
54998ION     NA97936  11.941  32.455   6.592  0.2091  0.7378  0.2926
54999ION     NA97937   2.568  22.324   3.734  0.1748  0.3063 -0.3334
55000ION     NA97938  26.899  31.186   6.355  0.5954  0.1408 -0.0242
55001ION     NA97939  19.515  14.994   3.156 -0.5446 -0.5058 -0.2764
55002ION     NA97940   4.756   1.086   1.047 -0.2456  0.1074  0.0410
55003ION     NA97941  18.179  25.087   3.998 -0.1872 -0.1983  0.0584
55004ION     NA97942  12.229  23.716   8.425 -0.2820  0.3302  0.2925
55005ION     NA97943  10.516   7.674   1.956 -0.6198 -0.2644  0.2205
55006ION     NA97944  12.616   2.344   7.992 -0.2546  0.0578 -0.0401
55007ION     NA97945  20.241  11.730   6.535  0.1706 -0.0318 -0.4098
55008ION     NA97946  21.814   5.173   3.534 -0.3806  0.7818 -0.3860
55009ION     NA97947  20.404  14.769   2.265  0.0393 -0.1285 -0.1961
55010ION     NA97948  21.044  15.055   3.624  0.2251  0.4821 -0.4700
55011ION     NA97949  34.301   5.884   6.164  0.2739  0.6863  0.2323
55012ION     NA97950   1.454  29.253   0.323 -0.1108 -0.1182  0.4126
55013ION     NA97951   2.647  10.855   2.842  0.1237 -0.3780 -0.0592
55014ION     NA97952   9.427  15.400   0.428 -0.0176 -0.4201 -0.2104
55015ION     NA97953  24.255   5.570   2.143 -0.2046 -0.3049 -0.3314
55016ION     NA97954  19.454  17.933   1.122  0.2331 -0.0754 -0.1197
55017ION     NA97955  13.748  28.097   2.059 -0.2489 -0.1411  0.3812
55018ION     NA97956  33.379  10.795   7.222  0.2728 -0.1826  0.5214
55019ION     NA97957   1.480   7.788  31.624 -0.2967 -0.0570 -0.1594
55020ION     NA97958  17.252  16.459   6.825 -0.0350 -0.1773 -0.2440
55021ION     NA97959  32.218  26.440   8.648  0.3210 -0.1345 -0.1289
55022ION     NA97960  17.887   9.508   0.668  0.2076  0.1054  0.0187
55023ION     NA97961  20.167  28.353   2.267  0.5973  0.7011 -0.2186
55024ION     NA97962  16.777  10.594   1.693 -0.0962 -0.2057 -0.4249
55025ION     NA97963  22.373   3.689   8.764  0.1782  0.5469  0.5458
55026ION     NA97964   6.873  17.112   0.858  0.0868 -0.0892 -0.3475
55027ION     NA97965   0.644  27.413   9.007 -0.5729  0.0285  0.2042
55028ION     NA97966   4.444   0.746   8.902 -0.1154  0.5494  0.0589
55029ION     NA97967  22.043  32.302   9.664  0.0727 -0.5842 -0.3674
55030ION     NA97968  19.892  23.447   6.443 -0.3195 -0.4560 -0.1568
55031ION     NA97969  15.382  20.254   8.832  0.2429  0.2140  0.0303
55032ION     NA97970  11.931  11.675   5.493 -0.6561  0.0635  0.0635
55033ION     NA97971  33.740  32.468   7.021 -0.4833 -0.1480  0.3616
55034ION     NA97972  16.155   7.665   7.162 -0.3404 -0.1105 -0.6094
55035ION     NA97973  14.221  33.738   4.838  0.0737 -0.3734 -0.3711
55036ION     NA97974  25.940   9.159   9.200 -0.2817  0.2844  0.3785
55037ION     NA97975   8.237  29.708   7.568 -0.0858  0.0312 -0.3035
55038ION     NA97976   7.337  31.800   1.180  0.3204 -0.0415  0.3093
55039ION     NA97977  31.779  22.526   7.480 -0.2549 -0.6046 -0.1134
55040ION     NA97978  24.193  22.482   4.947 -0.0757 -0.0376  0.2455
55041ION     NA97979  23.961  16.879   2.659  0.3487  0.5945 -0.4635
55042ION     NA97980   4.901   6.799   9.665 -0.1275 -0.6963  0.2322
55043ION     NA97981  20.960  18.848   7.620 -0.4022 -0.0121  0.1673
55044ION     NA97982  33.484  16.000  31.783  0.0840 -0.4170 -0.2395
55045ION     NA97983  12.517  27.761   1.808 -0.3290 -0.3236 -0.4751
55046ION     NA97984  21.589  34.201   1.121  0.1682 -0.1334  0.3974
55047ION     NA97985  19.684  25.679   7.587  0.0011 -0.3462 -0.1454
55048ION     NA97986  30.831  30.310   7.947 -0.0582  0.2291  0.6354
55049ION     NA97987   0.798  26.163   1.698 -0.0809 -0.1248 -0.6214
55050ION     NA97988  34.253  18.830   9.374 -0.1035  0.3726  0.0502
55051ION     NA97989  20.787   7.047   9.319 -0.4760  0.5407  0.0420
55052ION     NA97990   9.803   6.841   1.440 -0.0580  0.3110  0.3643
55053ION     NA97991  17.826  12.801  30.605  0.2263  0.2157  0.5984
55054ION     NA97992   3.971  15.381   2.889  0.2418 -0.0321 -0.3254
55055ION     NA97993  10.691  24.968   7.010 -0.4982 -0.0440 -0.2739
55056ION     NA97994   1.002  31.619   2.175  0.0852 -0.4579 -0.0554
55057ION     NA97995  26.141  27.810  30.877 -0.2627  0.0712 -0.1643
55058ION     NA97996  28.388  28.733   6.032  0.1424  0.1465 -0.0554
55059ION     NA97997  29.205  17.540   5.286 -0.3784  0.0802 -0.2701
55060ION     NA97998  20.714  19.014  30.475 -0.0376  0.5791 -0.4836
55061ION     NA97999  21.169  17.268   7.281  0.2473  0.0414 -0.6709
55062ION     NA98000  10.022  13.960   1.865 -0.2842 -0.2396  0.4112
55063ION     NA98001  22.661  21.660   9.107  0.1605 -0.1299 -0.4475
55064ION     NA98002   6.708   9.917   2.295 -0.2220 -0.0296 -0.3772
55065ION     NA98003   2.881  12.080  31.633  0.2725  0.1772  0.7168
55066ION     NA98004  26.420   7.787   6.511 -0.3648  0.4074 -0.1434
55067ION     NA98005  27.090  13.258   6.317 -0.3858 -0.4447 -0.2800
55068ION     NA98006  33.189  27.722   0.075  0.1204  0.0971  0.1254
55069ION     NA98007  24.968  30.929   8.312  0.0978  0.3043 -0.6096
55070ION     NA98008  13.548  34.272   7.712  0.3021 -0.2459  0.2253
55071ION     NA98009  32.874  21.904   5.402 -0.2539  0.5987 -0.2103
55072ION     NA98010  33.943  34.679   1.586 -0.2716  0.1166 -0.0214
55073ION     NA98011  29.136  28.285   6.468 -0.4488 -0.1970 -0.1604
55074ION     NA98012  20.150  25.493   8.670 -0.3718  0.4781  0.2560
55075ION     NA98013  17.796  31.804   3.702  0.2574  0.2148  0.1873
55076ION     NA98014  32.406  30.589   3.663 -0.0405 -0.6681  0.3956
55077ION     NA98015   5.524  34.286   3.643 -0.1657 -0.0137 -0.2854
55078ION     NA98016   7.972  12.792   1.318 -0.1942 -0.2635  0.2964
55079ION     NA98017  25.748   3.084   1.274 -0.6308  0.0633  0.5236
55080ION     NA98018  11.939  13.047   6.358 -0.3123  0.0314 -0.2874
55081ION     NA98019  12.604  25.798   5.840  0.3379  0.2317 -0.1879
55082ION     NA98020   6.956  19.062   8.887  0.1698  0.2003 -0.5639
55083ION     NA98021   1.401  12.955   5.067 -0.3206 -0.6633  0.3302
55084ION     NA98022   3.858  22.876   1.951  0.2261 -0.6757 -0.1680
55085ION     NA98023   0.628  27.287   5.548 -0.1546  0.1877  0.4395
55086ION     NA98024  32.020  29.606   3.151  0.1761  0.5122  0.3631
55087ION     NA98025  24.201  32.825   2.130 -0.0721 -0.2208 -0.1991
55088ION     NA98026   6.378  33.901   4.360  0.0411 -0.1521  0.1933
55089ION     NA98027  15.271  19.871   4.104 -0.6653 -0.1205  0.0630
55090ION     NA98028  31.550  27.152   6.387 -0.0590  0.6077  0.0241
55091ION     NA98029   5.289  32.805   2.511 -0.4368  0.2444  0.3666
55092ION     NA98030   6.619  17.083   1.680 -0.0035 -0.2003 -0.0265
55093ION     NA98031  26.390  18.145   3.949  0.1475  0.1122  0.1076
55094ION     NA98032  14.024  19.896   0.337 -0.4734 -0.7042 -0.0808
55095ION     NA98033  19.502   3.481   7.563 -0.3617 -0.1564 -0.3784
55096ION     NA98034  32.828  33.458   5.735 -0.0524 -0.1748  0.2414
55097ION     NA98035  31.567   6.876   6.335 -0.1793 -0.0825 -0.1846
55098ION     NA98036   9.676  27.187   4.876  0.5109 -0.2123  0.2253
55099ION     NA98037   3.617   3.454   4.314 -0.4824  0.3329  0.4398
55100ION     NA98038   4.681  13.471   8.385 -0.2784  0.0146  0.1693
55101ION     NA98039  34.251  33.914   6.589  0.1257 -0.5805  0.8284
55102ION     NA98040  29.552   7.930   2.611 -0.4268 -0.5071  0.2969
55103ION     NA98041   4.643  16.074   4.962  0.0840 -0.1858 -0.1007
55104ION     NA98042  29.934  25.902   1.290 -0.3191  0.4576 -0.3852
55105ION     NA98043  11.032  12.326   0.777  0.3375 -0.2345 -0.7159
55106ION     NA98044  30.590  33.937   3.968 -0.7128 -0.1248 -0.3734
55107ION     NA98045  24.323  24.422   5.382  0.8564 -0.0713  0.2147
55108ION     NA98046  11.913   7.216   8.517  0.3529 -0.0366 -0.3704
55109ION     NA98047  17.463  33.951  31.934  0.6328 -0.1486  0.4522
55110ION     NA98048  27.739  26.172  31.626 -0.0652  0.5845  0.1897
55111ION     NA98049  16.737  33.442   8.458 -0.2545  0.1704  0.1197
55112ION     NA98050  25.702   4.152   9.182  0.1465  0.4747 -0.4924
55113ION     NA98051  13.299  33.597   1.850 -0.0523  0.2034 -0.0068
55114ION     NA98052  17.100   2.619   7.776  0.2468 -0.1748  0.1306
55115ION     NA98053  21.553   6.111   1.757  0.0812 -0.5940 -0.4468
55116ION     NA98054  20.366  23.851  31.478 -0.2323  0.3981 -0.1032
55117ION     NA98055  29.524  11.289   7.152  0.0284  0.4205  0.0699
55118ION     NA98056  23.487  23.155   3.677 -0.2035 -0.0085 -0.1917
55119ION     NA98057  32.712  28.516   8.766 -0.4054  0.3991  0.0468
55120ION     NA98058   6.943  25.019   3.024 -0.0566  0.3154 -0.4317
55121ION     NA98059   2.697   9.802   1.633 -0.3923  0.3675 -0.7406
55122ION     NA98060  26.157  26.166   8.150  0.0511 -0.1243  0.2052
55123ION     NA98061  25.119  25.264   6.426  0.1595  0.2750  0.2072
55124ION     NA98062  19.122  23.652   8.462  0.1535 -0.0272 -0.5649
55125ION     NA98063   3.190  27.963   4.382  0.1981 -0.6745  0.1747
55126ION     NA98064  22.201  14.553   7.945 -0.4770 -0.2951 -0.2664
55127ION     NA98065  20.455  13.241   4.139 -0.1927  0.5816  0.0754
55128ION     NA98066  30.752  29.835   0.853  0.2859 -0.1933  0.0349
55129ION     NA98067  18.649   0.543   3.015  0.2695  0.2533 -0.3345
55130ION     NA98068  16.733  11.910   7.944  0.0276 -0.6811 -0.2671
55131ION     NA98069  28.834   6.742   5.416 -0.3001 -0.7544  0.1572
55132ION     NA98070  21.252   7.833   9.130  0.2749  0.2189  0.4993
55133ION     NA98071  16.737  17.081   3.402 -0.1127 -0.0165  0.0875
55134ION     NA98072   9.375   3.288   8.553 -0.2591  0.0428 -0.3317
55135ION     NA98073  11.485  17.584   1.077 -0.2123  0.0710 -0.2910
55136ION     NA98074   4.450  29.398   9.043 -0.2732  0.2649  0.0156
55137ION     NA98075  24.768  27.650   7.156  0.0582  0.5527 -0.4094
55138ION     NA98076  32.883  23.571   1.315  0.3644  0.2967 -0.5586
55139ION     NA98077  17.823  29.609   4.704  0.1144  0.0453  0.3033
55140ION     NA98078  30.807   9.469   6.332 -0.2449 -0.0744 -0.1126
55141ION     NA98079  17.240   0.892   5.517  0.2844 -0.4007 -0.3081
55142ION     NA98080  23.397  27.936   3.417  0.4374 -0.1443 -0.0632
55143ION     NA98081  22.403   2.756   7.641 -0.1504 -0.2473  0.4873
55144ION     NA98082  10.570  21.888   8.556  0.1826 -0.0717  0.2087
55145ION     NA98083   3.643  22.081   6.698 -0.1796  0.2577 -0.2565
55146ION     NA98084  34.352  11.123   1.260  0.1064 -0.2406 -0.2103
55147ION     NA98085   0.552  18.997   4.916  0.1517  0.1121 -0.0663
55148ION     NA98086  22.556   2.752   5.976  0.0937 -0.6416 -0.2615
55149ION     NA98087  28.075  25.538   1.566 -0.5164  0.3613 -0.0090
55150ION     NA98088  17.894   1.564   2.726 -0.4585 -0.6214  0.2443
55151ION     NA98089  25.984   9.473   2.328  0.2741 -0.1637  0.2712
55152ION     NA98090  19.621  27.593   6.422 -0.2361 -0.0872  0.5340
55153ION     NA98091  23.766  25.751   7.748  0.3938 -0.0519 -0.5595
55154ION     NA98092  22.099  27.681   6.422 -0.1202  0.1002  0.5075
55155ION     NA98093  29.996  25.123   8.621  0.1168  0.1411 -0.1529
55156ION     NA98094  26.383   3.435   6.161  0.0556  0.1764  0.2382
55157ION     NA98095   8.098  32.634   5.153  0.0702 -0.0121  0.1246
55158ION     NA98096  11.893   3.795   2.358 -0.5959 -0.4487 -0.1594
55159ION     NA98097  24.733  10.658   7.621 -0.3061 -0.7297  0.1209
55160ION     NA98098  16.967   6.654   4.127  0.0500 -0.4710  0.3635
55161ION     NA98099  21.839  25.935   6.633  0.3407  0.0636 -0.0926
55162ION     NA98100  21.246  29.343   1.070  0.2914  0.8086  0.2504
55163ION     NA98101  27.015   3.569   5.485  0.2305  0.0678 -0.5785
55164ION     NA98102  12.950  20.392   7.225 -0.0870  0.3931 -0.0601
55165ION     NA98103  19.011  21.996  30.322  0.3203 -0.0428  0.1300
55166ION     NA98104  13.438  29.263   5.790  0.3972  0.0241  0.0155
55167ION     NA98105   9.611  24.063   5.388 -0.4477 -0.4755 -0.0551
55168ION     NA98106  13.542  30.860   6.275  0.2175 -0.8454  0.0993
55169ION     NA98107  34.195  18.052   2.399 -0.1798 -0.0614 -0.2640
55170ION     NA98108   0.754  28.722   8.422  0.0392  0.1595 -0.1468
55171ION     NA98109  24.938  28.991   6.613 -0.8038 -0.6586  0.0541
55172ION     NA98110  20.632  11.010   7.946 -0.6369  0.3114 -0.6103
55173ION     NA98111  34.572   2.444   4.319  0.2983  0.0112 -0.6445
55174ION     NA98112  13.638  20.990   3.332 -0.0402 -0.2982 -0.2854
55175ION     NA98113  30.552  27.627   0.273 -0.3906  0.2551  0.7595
55176ION     NA98114  15.886   2.175   8.828  0.6713  0.2586 -0.4929
55177ION     NA98115  24.754  12.343   8.318  0.0812  0.2856  0.3622
55178ION     NA98116  10.220   7.777   7.385 -0.0699 -0.1514 -0.2350
55179ION     NA98117  10.999  18.623   7.063  0.4787 -0.3888 -0.1298
55180ION     NA98118   6.924  26.380   2.511 -0.2127  0.2623  0.0253
55181ION     NA98119  15.295  16.483   0.605  0.3821  0.0440 -0.1090
55182ION     NA98120   9.324   4.311   3.547 -0.5829 -0.0233  0.6056
55183ION     NA98121   8.273   0.971   8.025  0.0187  0.3701 -0.2390
55184ION     NA98122  14.000  22.114   0.776 -0.4595  0.1014 -0.3629
55185ION     NA98123  29.431  34.085   5.701  0.0094  0.5527  0.0606
55186ION     NA98124   9.742  11.163   7.466 -0.6953 -0.0924 -0.2503
55187ION     NA98125   4.087  11.126   1.387 -0.7222  0.0704 -0.0690
55188ION     NA98126  19.947  12.202   4.465  0.0214  0.4768  0.1510
55189ION     NA98127   1.761  33.136   1.607 -0.5699 -0.7215 -0.6914
55190ION     NA98128   1.082  19.225   4.540  0.0379  0.1207 -0.2796
55191ION     NA98129  17.460   8.872   6.384  0.6189  0.0746 -0.6680
55192ION     NA98130  27.078   5.977   9.668 -0.1054  0.0631  0.5168
55193ION     NA98131  27.136  31.446   9.011 -0.0570  0.3035  0.1313
55194ION     NA98132   2.235   8.295   8.026 -0.4224 -0.1568 -0.2956
55195ION     NA98133  10.509   7.652   3.295  0.4862 -0.0090 -0.5409
55196ION     NA98134  24.718  32.806   6.770 -0.1052 -0.5140 -0.1332
55197ION     NA98135   3.998  13.254   2.309 -0.3359  0.1385 -0.1165
55198ION     NA98136  18.616  24.840   3.739  0.7087  0.0314 -0.2080
55199ION     NA98137  32.939  32.539   1.757 -0.3362 -0.4833 -0.1780
55200ION     NA98138  15.137   8.865   8.953  0.5557  0.0329 -0.0070
55201ION     NA98139  26.205  17.941   8.629 -0.2644 -0.1527 -0.2609
55202ION     NA98140  19.639   6.982   4.865 -0.2965  0.4635  0.4002
55203ION     NA98141  24.359   7.602   8.787 -0.5225 -0.2688 -0.1735
55204ION     NA98142   0.060   4.082   7.330 -0.4625 -0.1548 -0.1211
55205ION     NA98143   9.194   1.005   7.828 -0.1211  0.4685  0.2070
55206ION     NA98144  33.244  12.749   4.314 -0.1881 -0.2762 -0.1809
55207ION     NA98145   9.044  10.912   1.603  0.2892 -0.9152 -0.7136
55208ION     NA98146  21.547  12.565  31.834  0.2889  0.0217  0.2394
55209ION     NA98147   3.458  20.540   4.105 -0.3254 -0.1824 -0.4241
55210ION     NA98148   5.317   0.306   3.384 -0.5970 -0.0481  0.1999
55211ION     NA98149  27.604   3.055   4.815  0.2223 -0.3579 -0.0411
55212ION     NA98150  31.751  18.057   0.227 -0.4208  0.3408  0.0537
55213ION     NA98151  17.863  26.401   7.288  0.6504  0.0788 -0.1552
55214ION     NA98152  10.083  16.200   0.660  0.0496  0.0489 -0.0110
55215ION     NA98153   6.801   5.405   4.697  0.2726 -0.1760  0.5312
55216ION     NA98154  26.161  27.463   2.216 -0.2959  0.6151 -0.0348
55217ION     NA98155  21.358  11.596   3.334 -0.0426 -0.1826  0.2697
55218ION     NA98156  19.571  34.039   3.277 -0.8090 -0.1090  0.0243
55219ION     NA98157  17.164  20.163   6.184  0.1955  0.2179  0.0172
55220ION     NA98158  17.376   0.718   3.903  0.3854 -0.4519  0.6920
55221ION     NA98159  15.817  10.000   7.869 -0.1539  0.4136 -0.4612
55222ION     NA98160  17.193  24.360   7.564  0.0460 -0.4047 -0.0147
55223ION     NA98161  15.763   8.223   5.305  0.1067 -0.3992  0.5415
55224ION     NA98162  31.565  19.895   8.324 -0.2493 -0.2895 -0.3679
55225ION     NA98163  16.408  21.974   0.153 -0.2391  0.1548 -0.1403
55226ION     NA98164  17.036   3.580   5.812  0.5632  0.0446  0.2360
55227ION     NA98165  13.794   6.449   5.034  0.3166 -0.2986 -0.2824
55228ION     NA98166  28.901  22.878   8.379 -0.3588 -0.8916  0.2004
55229ION     NA98167   4.871   2.099   0.520  0.3017  0.1064  0.3814
55230ION     NA98168  11.502  31.568   5.532 -0.1372  0.0086 -0.0665
55231ION     NA98169  14.068  11.626   3.413 -0.1432  0.7511  0.2679
55232ION     NA98170  19.228  26.215   5.074  0.6300 -0.1297 -0.0207
55233ION     NA98171   1.861  17.137   7.724  0.2186  0.0471 -0.2639
55234ION     NA98172  16.405  21.629   6.436 -0.4137 -0.6900 -0.0038
55235ION     NA98173   5.297  15.771   8.700 -0.2891 -0.3944  0.4166
55236ION     NA98174   9.087   0.882   8.805 -0.1414 -0.2586 -0.2095
55237ION     NA98175  16.941  26.502  30.739  0.7249 -0.2468  0.1718
55238ION     NA98176  24.105  23.232   7.989  0.1643  0.3389 -0.3269
55239ION     NA98177   7.099  34.058   3.879  0.2250  0.3029  0.4618
55240ION     NA98178  11.431  31.514   3.615  0.1188  0.1650 -0.0635
55241ION     NA98179   0.657  21.752   3.911  0.1169  0.7785 -0.1800
55242ION     NA98180  21.191   8.223   6.650  0.5021  0.5637 -0.3276
55243ION     NA98181  30.701  24.076   5.439  0.3186  0.0198 -0.4030
55244ION     NA98182  28.989  21.485   6.720  0.2700 -0.1767  0.1172
55245ION     NA98183   0.634   0.349   5.782  0.1934  0.2998  0.1199
55246ION     NA98184  25.477  28.062  30.272  0.3410 -0.1471 -0.2630
55247ION     NA98185  15.964  20.769   0.058 -0.1462 -0.3551  0.4520
55248ION     NA98186  13.942  31.540   5.844  0.0163  0.3689 -0.1748
55249ION     NA98187  13.514  18.171   8.468 -0.1611 -0.0233 -0.1813
55250ION     NA98188  22.005  26.782   7.169  0.0365  0.6258  0.0171
55251ION     NA98189  33.445  24.757   0.037 -0.3551  0.1022  0.3208
55252ION     NA98190  31.910  26.396   2.126  0.1606  0.0847  0.1408
55253ION     NA98191  34.111   3.238   1.974 -0.5018 -0.0404  0.3229
55254ION     NA98192  23.252   8.568   8.511 -0.4193  0.1087  0.2761
55255ION     NA98193  11.310   8.468   5.217 -0.0522 -0.5849  0.2980
55256ION     NA98194  20.694  31.258   5.917 -0.2079 -0.2744  0.6858
55257ION     NA98195  15.362  28.934   5.508  0.1990  0.2273 -0.0863
55258ION     NA98196  10.721   9.161   4.115 -0.0904 -0.4039 -0.0247
55259ION     NA98197   3.244  28.309   2.612 -0.0207 -0.3128  0.0085
55260ION     NA98198   1.687  15.702   2.055  0.3510  0.2885 -0.6092
55261ION     NA98199   0.229  31.250   8.916  0.2144 -0.0129  0.3683
55262ION     NA98200  17.306  11.039   2.201  0.0036  0.0787  0.2082
55263ION     NA98201  34.009  28.634   2.648 -0.5803 -0.1776  0.3230
55264ION     NA98202   2.129  21.845   1.253  0.0003  0.3468  0.1381
55265ION     NA98203   7.556  13.012   8.564 -0.1400 -0.3905 -0.0360
55266ION     NA98204  25.391   7.406   9.040  0.0560 -0.0188 -0.2802
55267ION     NA98205  22.186  12.583   7.866  0.4573  0.1029 -0.1111
55268ION     NA98206  12.087  27.127   8.719 -0.4733 -0.3022  0.3007
55269ION     NA98207  20.915   4.940   6.360  0.2018 -0.1866  0.3375
55270ION     NA98208   9.250  15.362  31.250  0.2164 -0.1447  0.0772
55271ION     NA98209  25.976  23.922   2.760  0.1793 -0.2882  0.3641
55272ION     NA98210  10.052  30.985   5.157 -0.6077 -0.0174  0.7154
55273ION     NA98211  22.934  27.459   8.397  0.2057 -0.2807  0.3979
55274ION     NA98212  29.819  28.431   1.687 -0.1859 -0.3723 -0.4638
55275ION     NA98213  33.827  28.116   2.068  0.6549  0.0855 -0.2877
55276ION     NA98214   9.999   4.298   2.134 -0.2781  0.1584  0.5491
55277ION     NA98215  14.671  28.132   4.301 -0.0146 -0.0040 -0.1303
55278ION     NA98216  24.220  34.627   0.884 -0.0993 -0.0139 -0.3853
55279ION     NA98217  18.069  13.541  31.462  0.0461 -0.2629 -0.0170
55280ION     NA98218  13.111  32.598   2.730  0.0026  0.2644 -0.2657
55281ION     NA98219   2.429   4.014   8.519  0.0922  0.4201  0.2492
55282ION     NA98220   2.444  15.142   5.168 -0.1591  0.1251  0.1975
55283ION     NA98221  29.404  21.449   6.116 -0.1607  0.4223  0.4712
55284ION     NA98222  29.998  18.775   3.866 -0.1415  0.6906  0.1734
55285ION     NA98223  10.902   3.922   5.078  0.2338  0.5823  0.2052
55286ION     NA98224   3.609  30.547   2.420 -0.3772  0.5626 -0.2348
55287ION     NA98225  27.615   8.153   8.622  0.2516  0.2391 -0.0610
55288ION     NA98226   2.444  18.992   8.863  0.1640  0.3146 -0.1014
55289ION     NA98227  11.665  30.237   3.186  0.1254  0.3889  0.1653
55290ION     NA98228  24.516   0.464   0.307 -0.1941  0.0678 -0.3849
55291ION     NA98229  16.933  31.916   3.319  0.4434 -0.0013  0.6177
55292ION     NA98230  23.334  24.993   3.520 -0.5668  0.1651 -0.4586
55293ION     NA98231  20.503   6.680   0.648  0.3688 -0.5408 -0.2263
55294ION     NA98232  27.075   7.175   7.919 -0.4524  0.1760 -0.3391
55295ION     NA98233  19.980  23.269   7.848  0.1387  0.0588 -0.4361
55296ION     NA98234  28.159  31.452   7.183 -0.0403  0.0286 -0.1394
55297ION     NA98235   5.043  27.609   0.529  0.2279 -0.1780 -0.2375
55298ION     NA98236  32.365   4.933   0.872  0.1371 -0.0346 -0.0846
55299ION     NA98237  30.570  24.726   7.537  0.2931 -0.3642 -0.3566
55300ION     NA98238  31.048  25.996   4.437  0.4046  0.0600  0.0466
55301ION     NA98239  11.452  21.871   3.670 -0.1559  0.0177 -0.2770
55302ION     NA98240   9.568   5.139   3.066  0.0149  0.6024 -0.3856
55303ION     NA98241  31.393  17.376   8.885 -0.2387  0.0274 -0.5357
55304ION     NA98242   6.288  21.402   8.620 -0.1907  0.1800  0.0121
55305ION     NA98243  30.340  23.893   3.138  0.0690  0.2798  0.4047
55306ION     NA98244   3.044  18.122   3.386 -0.3401  0.2288 -0.3244
55307ION     NA98245  33.414  10.576   4.533  0.6790 -0.1091 -0.4277
55308ION     NA98246  30.320  28.229   6.458  0.1163 -0.2021 -0.4024
55309ION     NA98247   8.760  33.309   0.181  0.2818 -0.7816 -0.4263
55310ION     NA98248   9.599   0.007   6.402  0.2855  0.5183  0.3990
55311ION     NA98249  11.051   4.182   0.729  0.3509  0.2591  0.1151
55312ION     NA98250   9.644  29.953   9.445 -0.4121 -0.1978  0.2487
55313ION     NA98251   1.051  11.105   3.479  0.2957 -0.1392  0.1405
55314ION     NA98252  26.796  13.711   3.764  0.3073 -0.0036 -0.0293
55315ION     NA98253  33.442  19.133   0.653 -0.1089  0.0322  0.2037
55316ION     NA98254  28.393  19.869   2.425  0.1106  0.1351 -0.1236
55317ION     NA98255  14.222  20.290   1.645 -0.2048 -0.2268  0.2853
55318ION     NA98256   2.847  17.979   7.661  0.2215 -0.5643 -0.1797
55319ION     NA98257  17.794  25.567   5.355 -0.1948  0.0479 -0.0209
55320ION     NA98258  17.707  14.843   0.775  0.0181  0.0692 -0.5448
55321ION     NA98259  33.797  10.086   2.686 -0.1049 -0.4662 -0.4637
55322ION     NA98260  13.309  17.955   7.406  0.1065  0.1872 -0.2233
55323ION     NA98261  34.531  25.875   8.917 -0.0719  0.2262 -0.1003
55324ION     NA98262  16.293  26.040   4.032  0.2779 -0.6088 -0.0006
55325ION     NA98263  24.869  31.526   5.821 -0.2407 -0.0615 -0.0692
55326ION     NA98264  32.113  25.369   8.441  0.3789 -0.4725 -0.3906
55327ION     NA98265   1.216  11.997   9.385  0.1988  0.0920 -0.0954
55328ION     NA98266  33.855  17.436   4.152  0.0080 -0.1449 -0.4456
55329ION     NA98267  15.020  18.167  29.792  0.1730  0.0963  0.3364
55330ION     NA98268  26.991  24.616   2.354  0.4620  0.2003 -0.1905
55331ION     NA98269   7.796   4.081   8.172  0.1995  0.1216 -0.1636
55332ION     NA98270  20.545   5.650   1.911 -0.2519 -0.1893  0.8715
55333ION     NA98271  13.022  25.138   4.251 -0.2512 -0.2016  0.0854
55334ION     NA98272  19.689  15.467   1.558  0.0493  0.5366 -0.0163
55335ION     NA98273  31.813   3.464   8.214  0.0834  0.2322 -0.1681
55336ION     NA98274  11.885  33.246   8.233  0.1682 -0.5039  0.3041
55337ION     NA98275  14.413   9.522   6.797 -0.1058  0.1266  0.1711
55338ION     NA98276  12.579  20.898   2.955  0.0339  0.4670  0.3789
55339ION     NA98277  12.036   2.164   2.766 -0.5599  0.3348 -0.3993
55340ION     NA98278   7.172  13.407   2.242  0.3913  0.0037 -0.3297
55341ION     NA98279  14.408   9.534   0.616 -0.1919 -0.1389  0.1761
55342ION     NA98280   9.040  23.165   1.895  0.1491  0.3470  0.1660
55343ION     NA98281   9.045   4.376   5.393 -0.2086 -0.3062  0.1620
55344ION     NA98282  23.746  30.828  31.957  0.6580 -0.2485  0.2293
55345ION     NA98283   2.813  29.866   2.871  0.2920 -0.1968 -0.3016
55346ION     NA98284  26.570  20.427   3.872 -0.1762  0.1357 -0.1635
55347ION     NA98285  21.001  13.311   0.575 -0.8167  0.2225  0.0008
55348ION     NA98286   2.068  28.080   8.957 -0.3192 -0.2345 -0.4414
55349ION     NA98287  22.763  10.784   7.543  0.6659  0.1288 -0.6535
55350ION     NA98288  34.581  22.710   7.762 -0.0115  0.1979 -0.4333
55351ION     NA98289   8.808  11.848   7.100 -0.3193 -0.1912 -0.3844
55352ION     NA98290  15.858  32.271   6.033  0.3124 -0.0445  0.1344
55353ION     NA98291  14.104  13.102   6.953 -0.0294 -0.4220  0.8305
55354ION     NA98292  10.730   3.569   6.425  0.7066 -0.1116 -0.3386
55355ION     NA98293  23.873   8.951   1.300  0.1387 -0.7110 -0.1505
55356ION     NA98294  29.084  15.678   5.075 -0.3233 -0.4601 -0.2262
55357ION     NA98295  20.158  34.442   0.131  0.7016 -0.4285  0.1563
55358ION     NA98296  31.741  24.961   8.697 -0.0721  0.0986  0.0190
55359ION     NA98297   8.199   2.092   4.941 -0.6755 -0.5292 -0.5733
55360ION     NA98298  12.546   0.376   5.840 -0.4676 -0.1708  0.2452
55361ION     NA98299  18.240  24.195   1.129  0.4404 -0.0804  0.1802
55362ION     NA98300   4.113  25.869   2.922  0.0743  0.2817 -0.7839
55363ION     NA98301  10.213  33.571   7.223  0.3709 -0.4552 -0.2543
55364ION     NA98302  28.692   6.148   3.771 -0.5949 -0.1395  0.1947
55365ION     NA98303   7.841  27.431   5.853 -0.0012  0.5154 -0.0771
55366ION     NA98304   5.736  17.026   3.894 -0.0204 -0.1451  0.0676
55367ION     NA98305  15.199  32.681   2.081 -0.6561 -0.3033 -0.1086
55368ION     NA98306  33.778  14.195   5.845 -0.3328 -0.2165 -0.2471
55369ION     NA98307  18.437   7.165   1.749 -0.3623 -0.4415  0.2724
55370ION     NA98308   1.452  28.138   6.781  0.2593  0.1409 -0.1043
55371ION     NA98309   7.121   9.040   0.707  0.0947 -0.1730 -0.1281
55372ION     NA98310  13.668  29.919   9.331  0.4100 -0.6796 -0.0523
55373ION     NA98311   9.854   3.616   6.133  0.1388  0.0840  0.1974
55374ION     NA98312   6.821  26.723   5.401  0.5781 -0.0824 -0.3708
55375ION     NA98313  23.752  17.982   8.078  0.2303 -0.1647 -0.3620
55376ION     NA98314  10.651  28.240   8.504 -0.3378 -0.5859  0.1214
55377ION     NA98315   4.097  26.406   6.716  0.3912 -0.1688 -0.1351
55378ION     NA98316  15.518   5.221   3.969 -0.4588  0.0869 -0.2077
55379ION     NA98317  28.711  21.696   2.114  0.0693 -0.6651 -0.0956
55380ION     NA98318  24.550  10.532   1.786 -0.9264 -0.1738  0.2288
55381ION     NA98319  31.266   4.664   1.601 -0.1759 -0.4085  0.2336
55382ION     NA98320  26.952  19.694   6.506 -0.0882  0.2826 -0.4148
55383ION     NA98321  23.952  15.227   7.083 -0.3974  0.4992  0.1178
55384ION     NA98322  16.298  22.810   3.759  0.1503 -0.3447 -0.1955
55385ION     NA98323  31.819   8.809   9.657 -0.2425 -0.1784 -0.4562
55386ION     NA98324  24.292  27.878   0.120  0.2741 -0.0277 -0.3936
55387ION     NA98325   8.385  30.306   2.673 -0.0237  0.2226  0.1739
55388ION     NA98326  20.489  22.750   6.251  0.2358  0.1388 -0.6466
55389ION     NA98327  27.273   3.904   1.744 -0.2802 -0.0725 -0.3331
55390ION     NA98328  28.223  30.478   4.702  0.4887 -0.0866  0.0197
55391ION     NA98329   7.600  23.669   7.095 -0.0973  1.0962 -0.0970
55392ION     NA98330  31.789  23.855   5.356 -0.2126 -0.6108  0.1282
55393ION     NA98331  17.036  16.924   0.477 -0.0153 -0.4521  0.3154
55394ION     NA98332  10.728  20.777   1.758 -0.2646  0.2518 -0.3234
55395ION     NA98333  30.548  15.178   3.250 -0.7516  0.1225  0.1679
55396ION     NA98334   8.936  23.316   0.378  0.2215 -0.3238 -0.2292
55397ION     NA98335   0.412   5.770   2.729 -0.0419 -0.1637 -0.4578
55398ION     NA98336   5.776  25.191   8.990 -0.1307 -0.3219  0.3413
55399ION     NA98337   2.472  16.848   1.446  0.0105 -0.1627 -0.6872
55400ION     NA98338  30.725  32.051  31.662 -0.0951  0.1153 -0.3225
55401ION     NA98339  33.247   2.421   7.050  0.1713  0.4858 -0.4226
55402ION     NA98340  19.905  29.179   5.443  0.1920 -0.5411 -0.3242
55403ION     NA98341   1.264  28.385   4.637  0.0017  0.0776 -0.0497
55404ION     NA98342   7.066  28.934   1.284 -0.3137 -0.1695  0.2476
55405ION     NA98343  16.175   1.109   7.483 -0.2486  0.3910 -0.1575
55406ION     NA98344  22.809   5.426   9.405  0.1485  0.6326 -0.1998
55407ION     NA98345  13.172   7.960   5.745 -0.5411  0.0315 -0.3824
55408ION     NA98346  26.512  27.603   3.943  0.4773 -0.5562 -0.3136
55409ION     NA98347  20.769  29.009   5.609  0.4660 -0.0622  0.2360
55410ION     NA98348  13.775  11.810   8.890 -0.2898  0.3763 -0.5189
55411ION     NA98349  23.395  22.691   8.608 -0.0237 -0.3756 -0.9244
55412ION     NA98350  11.708  30.691   6.687  0.7025  0.4134  0.3341
55413ION     NA98351  26.329  31.972   5.711  0.2039 -0.0908 -0.1979
55414ION     NA98352  18.733  24.185   6.002  0.1505 -0.0386 -0.4499
55415ION     NA98353   7.388  23.373   1.040  0.0304 -0.2709 -0.4759
55416ION     NA98354  29.114  12.806   0.302 -0.1049  0.0357  0.2446
55417ION     NA98355  29.130  34.661   4.412  0.3252  0.4778  0.1264
55418ION     NA98356  27.922  18.788   6.919 -0.0879 -0.5760  0.3466
55419ION     NA98357  25.141  11.979   0.975  0.6825  0.3430  0.4367
55420ION     NA98358  23.743  12.679   5.802  0.0686 -0.2755 -0.1332
55421ION     NA98359  13.383   1.699   4.704  0.0300 -0.3132  0.4570
55422ION     NA98360  13.290  12.785   8.383  0.7504 -0.0565  0.0524
55423ION     NA98361   2.484  16.154   7.911  0.3809 -0.4791 -0.0249
55424ION     NA98362  23.519  18.730   9.125  0.0063  0.8303  0.1446
55425ION     NA98363   8.128  24.591   7.190 -0.0905 -0.0386 -0.1451
55426ION     NA98364  13.367  24.351   0.993  0.5626  0.0594 -0.2586
55427ION     NA98365  14.441  20.484   4.255 -0.0897  0.2453 -0.1501
55428ION     NA98366  12.103  34.624   7.232  0.2335 -0.5213  0.1809
55429ION     NA98367  11.003  30.942   9.258  0.0197  0.6357  0.4545
55430ION     NA98368   3.787  30.931   7.264 -0.3864  0.0408 -0.2229
55431ION     NA98369  16.703  23.130   5.633  0.2164  0.7178 -0.3952
55432ION     NA98370   0.105  12.469   6.135  0.2228 -0.1247 -0.5157
55433ION     NA98371  17.622  24.233   2.601  0.2879  0.4139  0.0666
55434ION     NA98372   6.167   2.929   1.245  0.6099  0.3940 -0.4972
55435ION     NA98373  18.980  18.233  28.948 -0.0235 -0.0158 -0.3241
55436ION     NA98374  28.348  17.010   7.441 -0.2280 -0.1364  0.7974
55437ION     NA98375  11.703  24.258   4.936  0.0832 -0.4718 -0.5429
55438ION     NA98376  12.582  16.791   0.835  0.0860 -0.0742 -0.0306
55439ION     NA98377  16.926  28.579  31.514 -0.3228 -0.6302  0.0772
55440ION     NA98378  29.444  27.887   1.696 -1.0428  0.0973  0.1101
55441ION     NA98379   6.001  34.005  31.666 -0.2737 -0.6548  0.1314
55442ION     NA98380  23.077   9.330   8.791 -0.1253 -0.2421 -0.0740
55443ION     NA98381  16.921  31.321   8.376  0.2522 -0.0281  0.0213
55444ION     NA98382   9.806  17.581   0.492  0.0848 -0.0860  0.2711
55445ION     NA98383  33.207  20.146   1.203  0.6538 -0.1828 -0.2961
55446ION     NA98384  22.165  11.461   1.499  0.2391  0.1470  0.0384
55447ION     NA98385  10.148   7.325   0.228 -0.1301  0.0876  0.1851
55448ION     NA98386  29.051  20.098   3.959 -0.2869  0.3466 -0.1899
55449ION     NA98387  21.056   3.147   0.396 -0.5156  0.0170  0.5543
55450ION     NA98388   2.745   2.975   6.100  0.3039 -0.4594  0.5437
55451ION     NA98389  30.520  18.296   7.427  0.0577 -0.4389  0.0666
55452ION     NA98390  21.745   9.334   8.788 -0.4325 -0.4238 -0.2671
55453ION     NA98391  24.166  33.526   6.813 -0.4960  0.0559 -0.1741
55454ION     NA98392   8.041   0.645   5.151 -0.3351 -0.4596  0.0118
55455ION     NA98393  16.252   2.425   5.480 -0.0322 -0.2431  0.2221
55456ION     NA98394  20.659  22.310   0.989  1.1092  0.4694 -0.2752
55457ION     NA98395  12.551  14.600   1.977 -0.2230  0.0529  0.5202
55458ION     NA98396  30.277   3.579   7.299 -0.0053  0.3352 -0.0252
55459ION     NA98397  31.869  33.147   9.268  0.0670  0.2491  0.3768
55460ION     NA98398  14.189  10.947   5.981 -0.2663 -0.2201 -0.3713
55461ION     NA98399  29.559   6.529   8.369 -0.1273  0.1107  0.2439
55462ION     NA98400  19.535  30.367   5.094 -0.3289  0.4585 -0.4333
55463ION     NA98401  14.391  21.300   7.390 -0.2771 -0.0663 -0.4736
55464ION     NA98402  13.248  15.897   7.809 -0.0529 -0.6002 -0.1116
55465ION     NA98403  20.214  25.532   2.827 -0.0227  0.2403  0.0001
55466ION     NA98404   5.810  24.423   0.909 -0.2396 -0.8174 -0.1837
55467ION     NA98405  25.560  27.983   4.074 -0.0870 -0.1180  0.2425
55468ION     NA98406  31.442  31.590   8.272 -0.8319 -0.1471  0.8221
55469ION     NA98407  11.927   3.953   7.498  0.2730  0.1129 -0.3811
55470ION     NA98408  21.513  14.380   4.288  0.5089 -0.1885  0.3758
55471ION     NA98409   8.786  29.694   9.053 -0.2219 -0.2896  0.0321
55472ION     NA98410   1.289  16.766   9.034  0.0062 -0.4296 -0.0530
55473ION     NA98411  27.396  24.528   8.848 -0.2759 -0.3094 -0.0952
55474ION     NA98412   5.507  14.365   8.090 -0.2549 -0.3612 -0.0172
55475ION     NA98413  16.857   5.577   2.326  0.0164  0.0705 -0.3028
55476ION     NA98414  31.461  17.860   6.999  0.0211 -0.2762 -0.0862
55477ION     NA98415   5.506   3.304   7.686 -0.7471  0.3494  0.1843
55478ION     NA98416  13.540  29.739   2.274  0.0305  0.2794 -0.6875
55479ION     NA98417  12.273   9.530   1.669  0.4400  0.0347 -0.2306
55480ION     NA98418  17.453   2.208   1.923 -0.0076  0.2358  0.3400
55481ION     NA98419  32.751  11.384  11.483 -0.3357 -0.1382  0.5044
55482ION     NA98420   7.906   5.591   8.629  0.0950 -0.0940  0.0291
55483ION     NA98421  13.339  21.289   8.940 -0.2615  0.0444 -0.1590
55484ION     NA98422  16.426  25.789   5.765 -0.1922 -0.3095 -0.4003
55485ION     NA98423  24.981  15.147   8.846  0.3041 -0.1364  0.2768
55486ION     NA98424  14.763  10.071   3.415  0.3441 -0.2404 -0.4670
55487ION     NA98425  12.902  18.961  31.298  0.3508  0.1181 -0.3024
55488ION     NA98426  22.087  13.706   6.063 -0.0998 -0.0535  0.7237
55489ION     NA98427   6.462  16.910   8.961 -0.4299  0.2595  0.2409
55490ION     NA98428   5.789   6.122   9.116 -0.2848 -0.2590 -0.4118
55491ION     NA98429  33.515  24.979   6.310 -0.0519  0.0609 -0.1799
55492ION     NA98430  34.243  27.548   6.135  0.3586  0.5078  0.2855
55493ION     NA98431   0.738  12.636   9.028  0.4052 -0.5989 -0.2695
55494ION     NA98432  25.445  33.970   3.980 -0.3882  0.1251 -0.3597
55495ION     NA98433  22.700  19.591   2.062 -0.0637 -0.1748 -0.0643
55496ION     NA98434  17.372  28.399   7.531 -0.4969  0.2520  0.0492
55497ION     NA98435   3.801   9.923   5.994 -0.3673 -0.0952 -0.0655
55498ION     NA98436  31.450   9.966   6.317 -0.2870  0.8348 -0.0220
55499ION     NA98437   3.835   6.576   3.537  0.1283  0.5765 -0.1232
55500ION     NA98438   6.019  23.857   9.022  0.0302  0.0762 -0.1135
55501ION     NA98439  29.587   8.496   3.178  0.2075  0.2192 -0.1006
55502ION     NA98440  16.782  21.915  31.083  0.1391  0.4222 -0.1673
55503ION     NA98441  16.852  28.122   4.759  0.1493  0.5071 -0.2918
55504ION     NA98442   9.227  21.162   0.080 -0.0036 -0.2833 -0.1373
55505ION     NA98443  32.515   2.893   9.034  0.0201 -0.1232  0.4612
55506ION     NA98444  15.543  22.682   3.697  0.4525  0.2222  0.4470
55507ION     NA98445  18.484  10.431   6.476 -0.3208 -0.1768 -0.0929
55508ION     NA98446  25.316  20.887   8.744 -0.3624  0.0544  0.2821
55509ION     NA98447  19.199  29.953   4.465 -0.3685  0.3943 -0.7012
55510ION     NA98448  26.675   2.655   8.750 -0.3716  0.4284  0.1055
55511ION     NA98449  25.407  22.834   6.023 -0.2943  0.8249  0.4482
55512ION     NA98450  32.018  32.910   1.070 -0.2947 -0.2163  0.1062
55513ION     NA98451  23.511  30.473   6.225  0.2490  0.3719 -0.0767
55514ION     NA98452  32.487  11.605  10.774  0.0649  0.0820 -0.4031
55515ION     NA98453   4.709  21.809   7.993  0.1117 -0.1827  0.6047
55516W        W98454   1.244   2.462   1.760 -0.1478  0.1655 -0.0538
55517W        W98455   1.869  34.402   0.220 -0.0616  0.0299  0.2820
55518W        W98456   4.083   0.347   0.537  0.1128 -0.0298  0.0820
55519W        W98457   4.858   2.543   0.644 -0.2123 -0.2187  0.0985
55520W        W98458   1.091   0.119   0.911  0.1318  0.0492  0.0382
55521W        W98459   1.816   2.455  31.811 -0.1818 -0.1982  0.1786
55522W        W98460   0.147  33.282   1.487  0.3334  0.0088 -0.4476
55523W        W98461   1.769   3.143   1.614  0.2105  0.3356  0.0637
55524W        W98462   2.152   3.647   3.075 -0.1316 -0.2290  0.1327
55525W        W98463   2.639   1.102  30.968  0.0527  0.3081  0.1274
55526W        W98464   1.855   0.529   1.250  0.0502 -0.0648  0.1672
55527W        W98465  34.667   4.332   2.408  0.2639  0.2038  0.1404
55528W        W98466   1.990   0.005   1.143 -0.0946  0.0886 -0.0625
55529W        W98467   0.669   0.162   1.485  0.1712  0.1108 -0.1900
55530W        W98468   2.222   1.873   2.090 -0.0276 -0.1078  0.1065
55531W        W98469   1.737   0.824  31.250  0.1654  0.0131 -0.0941
55532W        W98470   0.992  34.531   2.632 -0.1419 -0.1440  0.0952
55533W        W98471   3.291   0.446   0.159 -0.0460 -0.0861 -0.2055
55534W        W98472   1.470   3.755   0.060  0.5588  0.1666 -0.3483
55535W        W98473   2.413  34.124   3.328 -0.1415 -0.0165  0.1770
55536W        W98474   2.193   0.268   3.153 -0.0036 -0.1733  0.0239
55537W        W98475   2.080   2.743  31.239  0.3521  0.2364  0.0393
55538W        W98476   0.284   2.380  31.754 -0.2290  0.0623  0.0078
55539W        W98477   0.550   1.960   1.736 -0.1409 -0.0086  0.0303
55540W        W98478   0.928   0.377   2.280  0.0291 -0.0560  0.1976
55541W        W98479   1.927   0.812   0.781 -0.2266  0.0180  0.2571
55542W        W98480   2.498   1.655   1.059 -0.1455  0.1484 -0.3677
55543W        W98481   1.666   4.003   1.476 -0.2373  0.1500  0.3880
55544W        W98482   1.747   2.407   2.068  0.3612  0.1217  0.3834
55545W        W98483   1.855   0.993   1.932  0.3167  0.2145 -0.1654
55546W        W98484  34.074   2.270   1.087  0.1448  0.1536 -0.2752
55547W        W98485  34.093   3.360   0.518  0.0211 -0.0621  0.0505
55548W        W98486   3.799   2.716   0.159  0.0335  0.2207  0.2285
55549W        W98487   4.078   3.980   1.290 -0.2612  0.2549 -0.2203
55550W        W98488   2.491   3.178   2.386  0.2323  0.1231 -0.1371
55551W        W98489   0.678   3.167   2.289  0.1777 -0.0559 -0.0146
55552W        W98490   0.579   2.661   0.471 -0.4209 -0.0851 -0.1579
55553W        W98491   1.907   3.075   3.056 -0.2610 -0.0982  0.0823
55554W        W98492   0.517   3.106   2.987 -0.1163 -0.2410 -0.1304
55555W        W98493   2.525   0.007   2.238  0.1122 -0.0821  0.1074
55556W        W98494   2.924   1.149  31.739  0.1503 -0.1438  0.2015
55557W        W98495   2.670   3.139  29.974  0.0104 -0.0643  0.0831
55558W        W98496   1.949   1.500   2.186 -0.3120  0.3075  0.2902
55559W        W98497   0.980   2.635   3.409 -0.2228  0.1303 -0.0478
55560W        W98498   0.133   2.976   1.886  0.2404 -0.2156  0.3185
55561W        W98499   2.644   1.434   4.364  0.0018  0.2931  0.0551
55562W        W98500   0.914   2.756  30.553 -0.3069  0.1507  0.0482
55563W        W98501   2.753  34.313  31.960 -0.0921 -0.0495 -0.0197
55564W        W98502   2.079   0.685  31.589 -0.1453 -0.0760 -0.3576
55565W        W98503   3.524   1.268  31.104 -0.2191 -0.1274 -0.0622
55566W        W98504   2.919  34.392   0.426  0.0800  0.3168 -0.0045
55567W        W98505   1.889   3.455   2.095  0.0822 -0.1421 -0.0934
55568W        W98506   1.772  34.439   0.733 -0.2526  0.0746 -0.0709
55569W        W98507   2.961   1.269   2.624 -0.0272  0.0016 -0.0908
55570W        W98508   3.258   2.404   0.222 -0.1819  0.3307 -0.2618
55571W        W98509   3.139   1.011   1.713 -0.0525 -0.3552 -0.1202
55572W        W98510   1.288   2.939   1.709  0.0228  0.2997 -0.1624
55573W        W98511   0.528   1.861   1.183 -0.0866  0.0333 -0.2116
55574W        W98512   2.766   4.216   0.544  0.0961  0.0685 -0.2421
55575W        W98513   3.180   3.628   1.499 -0.3346  0.0016 -0.1539
55576W        W98514   2.566   1.623   0.096  0.1069  0.0010 -0.0293
55577W        W98515   0.869   1.139   1.055  0.2024  0.0632  0.0632
55578W        W98516   0.216   1.867   3.879  0.0054  0.0789  0.0807
55579W        W98517  34.556   1.293   2.226 -0.1692 -0.0797  0.0960
55580W        W98518   1.382  34.144   0.533  0.0047  0.1403  0.1402
55581W        W98519   2.751   1.679   2.796  0.0129 -0.1559  0.1929
55582W        W98520   1.450   1.953   2.723  0.1007  0.1645  0.1204
55583W        W98521   3.590   2.207   0.615  0.0102  0.5726 -0.3121
55584W        W98522   0.728   2.514   1.533 -0.0315  0.1907  0.1218
55585W        W98523   3.228   4.057   1.832 -0.1238  0.2047 -0.2037
55586W        W98524   3.838   1.896  31.300 -0.4179 -0.1035 -0.1856
55587W        W98525   1.048   0.804   1.974  0.0320 -0.2421  0.0804
55588W        W98526   2.610   1.157   3.177 -0.0330 -0.1742 -0.3545
55589W        W98527   2.584   1.967  31.010 -0.0371  0.0359  0.1148
55590W        W98528   1.927   3.365  31.772 -0.1197  0.2554  0.0988
55591W        W98529   2.021   1.811   3.577  0.0649 -0.1678  0.1802
55592W        W98530   4.777   2.548   0.027  0.1481 -0.1131  0.2201
55593W        W98531  34.266   3.583   2.953 -0.3551 -0.2442 -0.4192
55594W        W98532   2.074   1.769   3.101  0.2499 -0.3753  0.1006
55595W        W98533   2.630   1.053   3.710 -0.1720 -0.1197  0.0699
55596W        W98534   0.801   3.480  31.242  0.3658 -0.0535 -0.2825
55597W        W98535   0.414   2.068   0.667 -0.3240 -0.3334  0.0160
55598W        W98536   1.614   2.806  31.043 -0.1783 -0.0248 -0.2102
55599W        W98537   0.522   1.363   2.797 -0.2236  0.1676 -0.0173
55600W        W98538   2.026   2.229   2.765 -0.2770  0.0969 -0.2525
55601W        W98539   3.568   0.839   1.842 -0.1443  0.2287 -0.2896
55602W        W98540   1.461  34.582   2.987  0.0500 -0.2363  0.1398
55603W        W98541   2.814   1.272   1.247 -0.1581 -0.1195 -0.0390
55604W        W98542   1.468   3.513   1.440  0.0143 -0.0300  0.0041
55605W        W98543   3.572   3.432   1.718 -0.2147  0.0574  0.3592
55606W        W98544   3.830   0.900   0.803  0.0425 -0.0407  0.0869
55607W        W98545   3.466   3.018  31.822  0.2463 -0.3206 -0.2730
55608W        W98546   0.031   0.695   2.952  0.0102  0.0119  0.0527
55609W        W98547   0.653   0.673   0.778  0.1284  0.2748  0.0249
55610W        W98548   0.176  34.440   2.611 -0.1757 -0.2329  0.1523
55611W        W98549   1.227   1.091   0.584 -0.0929 -0.1532  0.0257
55612W        W98550   2.666   1.718   2.163  0.0046  0.0202  0.0408
55613W        W98551  34.517   0.491   0.210 -0.1105  0.1270 -0.2633
55614W        W98552   2.669   2.193   1.362 -0.2156  0.4565  0.1446
55615W        W98553   2.916   0.841   0.211 -0.0747 -0.0000 -0.1042
55616W        W98554   1.208   2.426  31.967  0.2747  0.0940  0.2694
55617W        W98555   2.945   0.693   3.434  0.1147  0.0384 -0.0593
55618W        W98556   3.877   3.613   0.451  0.3087 -0.0188  0.1327
55619W        W98557   2.267   2.741   2.817 -0.1525 -0.1610  0.1432
55620W        W98558   2.167   2.389   1.330 -0.1180 -0.2246 -0.1207
55621W        W98559   2.183   0.779   2.867  0.0169  0.2688 -0.1141
55622W        W98560  34.162   0.896   0.292 -0.2932 -0.2095 -0.5442
55623W        W98561   0.199   3.877   1.004  0.0598  0.0828  0.0220
55624W        W98562   0.344   2.943   1.457  0.0314  0.1275 -0.0555
55625W        W98563   1.352   0.371   1.278 -0.2018 -0.2445 -0.1057
55626W        W98564   2.863   3.320   2.124 -0.0070  0.2431  0.3881
55627W        W98565   1.919   1.210  31.803  0.3498  0.2688  0.2577
55628W        W98566   1.034   1.358   3.045  0.0112  0.0029  0.0359
55629W        W98567   2.994   0.940   3.041 -0.0831 -0.1273  0.0054
55630W        W98568   2.250   2.553   2.345  0.0221 -0.2625  0.0270
55631W        W98569   1.885   1.177   0.388  0.0776 -0.1565 -0.2338
55632W        W98570   2.412   1.108  31.711  0.0045  0.0394 -0.1011
55633W        W98571   2.305   3.301   1.814  0.0007 -0.0341 -0.0748
55634W        W98572  34.578   4.352   0.775 -0.2426  0.1228 -0.0155
55635W        W98573   0.211   1.597   2.045 -0.1343  0.0588  0.0123
55636W        W98574   0.665   1.454   1.780 -0.0906 -0.1388  0.1421
55637W        W98575   2.570   1.686   3.242  0.1213 -0.2820  0.2150
55638W        W98576   0.782   2.282   3.049  0.1294  0.2996  0.1447
55639W        W98577   1.652   0.135   2.122  0.2750 -0.1383  0.0120
55640W        W98578   0.123   1.519   0.638  0.1646  0.2129  0.1748
55641W        W98579   1.062   2.671   2.335  0.2647 -0.0710  0.3085
55642W        W98580   2.164   1.292   0.864 -0.0749  0.3286  0.2046
55643W        W98581   4.056   1.955   0.797 -0.1296 -0.0320 -0.0097
55644W        W98582   1.694   2.590   2.563  0.0486  0.3625 -0.0083
55645W        W98583   3.981   2.924   1.023  0.0896  0.2352  0.1612
55646W        W98584   2.578  34.597  31.089  0.2509  0.2518 -0.1015
55647W        W98585   3.936   0.893  31.444  0.0397 -0.0490 -0.0513
55648W        W98586  34.536   1.120   3.301 -0.0634  0.0056 -0.3036
55649W        W98587   1.474   1.751   1.437 -0.1298 -0.2295  0.2186
55650W        W98588   0.262   1.056   1.942  0.0570 -0.1532 -0.0975
55651W        W98589   3.073   1.363  31.284 -0.1986 -0.1247 -0.0787
55652W        W98590   6.050   3.063  31.767 -0.1477  0.0927  0.5132
55653W        W98591   1.585   1.895   0.907 -0.1845  0.2143  0.2463
55654W        W98592   1.654   1.870   4.462  0.2590  0.2188 -0.0210
55655W        W98593   1.513   2.535   0.334  0.1803 -0.2470  0.1117
55656W        W98594   2.259   0.400   2.549 -0.1903  0.3406 -0.1673
55657W        W98595   1.438   2.048  31.652  0.1475  0.1259  0.1350
55658W        W98596   1.758   0.501   1.745  0.1065  0.1955 -0.0779
55659W        W98597   0.217   3.032   0.618 -0.3074 -0.0548  0.0890
55660W        W98598   3.164   1.718   2.168 -0.2027  0.2292  0.0314
55661W        W98599   1.867   0.229   2.785  0.2941  0.4166  0.5315
55662W        W98600   1.749  33.218   3.228 -0.2189 -0.3265 -0.1888
55663W        W98601   3.016   2.227   3.946 -0.2335  0.0309 -0.0848
55664W        W98602   4.491   2.128   0.707  0.2684 -0.0501  0.0751
55665W        W98603   1.880   1.523   1.186  0.0534  0.1553  0.1794
55666W        W98604   0.691   1.113   0.452 -0.2330 -0.0939  0.1275
55667W        W98605   2.283   0.923   2.151 -0.1626  0.2624 -0.2374
55668W        W98606   1.386   2.204   2.296 -0.0238 -0.3134 -0.0303
55669W        W98607  33.914   3.954   2.448 -0.0246 -0.0276 -0.0245
55670W        W98608   2.643   2.732   3.808  0.2058  0.1177  0.1944
55671W        W98609   3.031   3.419   2.624  0.0292 -0.2284  0.2576
55672W        W98610   3.298   1.067   3.402 -0.4834  0.0564 -0.2537
55673W        W98611   3.412   1.495   0.538  0.0924  0.2056 -0.2165
55674W        W98612   1.665   3.088   0.604 -0.0767 -0.0985  0.2435
55675W        W98613   2.587   2.901  31.384 -0.3705  0.0525  0.2103
55676W        W98614   1.446  34.227   3.341 -0.4470  0.0864 -0.1339
55677W        W98615   1.105   1.738   1.884  0.1116 -0.1027  0.0684
55678W        W98616   2.669   2.327  30.636 -0.1392  0.1702 -0.0279
55679W        W98617   2.127   2.885   1.982  0.5104 -0.1649  0.2439
55680W        W98618   1.339   4.444   0.257 -0.1519 -0.1282 -0.0697
55681W        W98619   3.900  34.566   1.671 -0.1207 -0.1792 -0.0622
55682W        W98620  34.680   4.720   1.600 -0.0656  0.0926 -0.0608
55683W        W98621   1.231   0.804  31.357  0.2319  0.2042  0.1378
55684W        W98622  34.251   1.420   0.371 -0.1603  0.2154  0.2366
55685W        W98623   3.442   0.771   1.234 -0.1867 -0.0591 -0.2768
55686W        W98624   3.955   3.793  31.921 -0.1986 -0.1506  0.1633
55687W        W98625   0.541   0.245   2.559  0.1296 -0.0361  0.1456
55688W        W98626   2.134  34.570  31.598 -0.1611 -0.0552 -0.2761
55689W        W98627  34.404   3.960   2.160  0.0195 -0.1874  0.0967
55690W        W98628   2.433   1.357   2.392  0.2510  0.0984 -0.0388
55691W        W98629   4.146   1.545  31.877  0.0498  0.3122  0.0062
55692W        W98630   1.835   2.628   1.634  0.4124 -0.2376  0.0694
55693W        W98631   1.490   1.815   3.621 -0.0036 -0.1785 -0.1234
55694W        W98632  34.387   1.784   0.666  0.1407  0.1419  0.0646
55695W        W98633   3.483   1.004   2.322 -0.0135 -0.1846  0.2008
55696W        W98634   0.491   1.373   1.329 -0.0216 -0.3665 -0.0408
55697W        W98635   0.951   3.513   1.386  0.0153  0.0353  0.3322
55698W        W98636   1.981   3.086   2.531  0.2132  0.1750  0.1630
55699W        W98637   1.586   1.966   1.885  0.0308  0.3593  0.0504
55700W        W98638   0.547   1.285   2.307  0.3075 -0.0207 -0.0891
55701W        W98639   0.480  34.513   1.771  0.2248  0.2003  0.1287
55702W        W98640   2.322   1.805   2.592 -0.1521 -0.0203 -0.3283
55703W        W98641   2.300   1.255   1.358  0.0743 -0.3052  0.1216
55704W        W98642  34.438   0.414   1.205  0.2736  0.2231 -0.4792
55705W        W98643   2.503   2.513   0.878  0.0792 -0.1833  0.1543
55706W        W98644   2.576   1.585   0.572 -0.0407 -0.0079 -0.3166
55707W        W98645   1.558   1.044   2.310 -0.2597  0.1426  0.0929
55708W        W98646   1.516   3.024   2.775  0.1234  0.0254 -0.2258
55709W        W98647   2.628   0.330   1.345 -0.0693 -0.0584 -0.3410
55710W        W98648   3.003   3.004   0.764 -0.1715 -0.2527  0.1706
55711W        W98649   3.096   1.454   3.072 -0.1581 -0.0375 -0.1369
55712W        W98650   1.351   2.513  31.457  0.1053  0.0037  0.0415
55713W        W98651   0.962   1.500   2.605  0.1590  0.4569 -0.0898
55714W        W98652   2.092   2.047  31.372 -0.1216 -0.3481 -0.1103
55715W        W98653   2.312   0.444   1.989 -0.0703  0.2413 -0.1291
55716W        W98654   0.894   2.206   2.051  0.1424 -0.2835  0.3607
55717W        W98655   1.570   2.946  31.611  0.0179 -0.0022  0.0982
55718W        W98656   0.577   1.835   2.752  0.1549  0.2843 -0.1158
55719W        W98657   3.824  33.867   2.287 -0.0046  0.0065 -0.1388
55720W        W98658   2.740   2.594  31.036  0.0263  0.2573 -0.2237
55721W        W98659   1.425   0.561   2.180  0.3433 -0.3351 -0.0084
55722W        W98660   2.667   0.561   2.866  0.1347 -0.2951  0.0664
55723W        W98661   3.971   2.438   0.790  0.0238 -0.0349 -0.0742
55724W        W98662   3.508   1.122   4.127  0.1061  0.0775  0.3433
55725W        W98663   1.034   0.788   3.426 -0.3434  0.3832  0.3910
55726W        W98664   3.375   3.129   1.406 -0.2126 -0.0633 -0.1489
55727W        W98665   0.988   0.272   3.316  0.0542 -0.5321 -0.2965
55728W        W98666   3.095   3.806   3.719  0.0102 -0.3232 -0.0140
55729W        W98667   1.380   0.181   2.572  0.2759 -0.1866  0.1221
55730W        W98668   3.024   1.385   0.215 -0.0028 -0.2191 -0.0876
55731W        W98669   0.302   1.106   0.861  0.3767 -0.1139  0.0656
55732W        W98670   0.132   2.014   0.198  0.7472 -0.3537  0.3509
55733W        W98671   3.230   2.155   1.425  0.3139  0.0583 -0.2120
55734W        W98672   2.880   2.183   0.016 -0.1168 -0.2042  0.2214
55735W        W98673   3.488   1.775   1.644 -0.0176  0.0087  0.2725
55736W        W98674   1.025   1.589   0.456  0.2063  0.1275  0.0255
55737W        W98675   4.348   2.237  31.807  0.2444 -0.0010  0.3320
55738W        W98676   2.589   1.526  31.313  0.1927 -0.5689  0.0969
55739W        W98677   1.259   2.316   1.111  0.5979  0.0424  0.0143
55740W        W98678   1.252   1.307   3.633 -0.0726  0.2102  0.1527
55741W        W98679   1.482   3.335   2.378  0.2944 -0.0419  0.1210
55742W        W98680   1.467   1.382   1.950 -0.2100 -0.0871  0.0421
55743W        W98681   2.562   0.941   2.563 -0.2134  0.2270  0.1568
55744W        W98682   2.690   2.816   2.002  0.1479  0.0744 -0.1983
55745W        W98683   1.019   1.299   2.156  0.1121  0.4004  0.1807
55746W        W98684   0.364  33.073   2.895  0.0775  0.0569  0.0241
55747W        W98685   2.800   4.645   2.503  0.4761  0.0804 -0.1088
55748W        W98686   3.368  34.305  31.021 -0.0726 -0.0515 -0.2907
55749W        W98687   2.532   1.854   1.701 -0.0776 -0.3946 -0.0551
55750W        W98688   4.550   2.071   0.226  0.2125  0.1726 -0.0612
55751W        W98689   3.202   2.866   0.326 -0.3636 -0.0770 -0.0666
55752W        W98690   1.134   0.337   1.738 -0.1659 -0.0600  0.0037
55753W        W98691   2.022   0.972   3.744 -0.3135 -0.2953  0.1299
55754W        W98692   4.048   1.251   0.414 -0.0226 -0.1883 -0.0119
55755W        W98693   2.754   0.966   4.191  0.1531  0.3895  0.0461
55756W        W98694   3.492   3.175  30.673 -0.2613  0.1908  0.2262
55757W        W98695   3.015   2.751   1.288  0.1252 -0.0123 -0.0325
55758W        W98696   3.761   0.726   0.336  0.1285  0.2144 -0.2430
55759W        W98697   0.732   1.787   2.260  0.1641 -0.1762 -0.2206
55760W        W98698  34.600   2.356   3.132 -0.3515  0.2231 -0.0323
55761W        W98699   1.768   0.326  31.423 -0.1694 -0.1533  0.0707
55762W        W98700   2.190   2.423  30.359 -0.0244  0.1042 -0.0423
55763W        W98701   0.596   2.756   2.554 -0.2277 -0.0519 -0.0479
55764W        W98702   2.667   3.447   3.625 -0.0908  0.0638  0.0081
55765W        W98703   2.974  34.203   1.418 -0.1155  0.0879 -0.2233
55766W        W98704   2.323   1.361   2.855  0.0429  0.1141 -0.0373
55767W        W98705  34.622   3.491  31.834  0.2453  0.0394  0.1469
55768W        W98706   2.434   0.815   1.155 -0.2961 -0.3362  0.0815
55769W        W98707   3.088   4.871   2.051 -0.0640  0.0591  0.2206
55770W        W98708   0.262   2.319   2.660 -0.2224  0.0440  0.1901
55771W        W98709   0.113   3.889   1.611  0.0378  0.2253  0.1937
55772W        W98710   2.763  34.397   2.471  0.0786 -0.1159  0.1933
55773W        W98711   2.097   0.152   0.515 -0.0326 -0.2400 -0.2001
55774W        W98712   2.035   2.164   1.716 -0.0213 -0.1614 -0.0739
55775W        W98713   3.375   1.476   2.530 -0.1277 -0.0307 -0.1133
55776W        W98714   1.510   2.910   1.271  0.0247 -0.0411 -0.0380
55777W        W98715  34.367   1.730   1.792  0.0609  0.0583  0.1160
55778W        W98716   1.737   3.468   2.784 -0.3594  0.1839 -0.2565
55779W        W98717   3.975   1.547   1.657 -0.2266  0.0243 -0.3495
55780W        W98718   0.675   2.785   1.967  0.1022 -0.0346  0.1472
55781W        W98719   0.967  34.455   3.184 -0.0244 -0.0066 -0.1447
55782W        W98720   0.564   1.529   3.837 -0.3248 -0.0594 -0.1447
55783W        W98721   2.589   2.965   1.056 -0.0855 -0.0811  0.1328
55784W        W98722   1.648   1.210   0.831  0.1701  0.0514  0.0054
55785W        W98723   2.932   2.370  31.403 -0.0269 -0.1269 -0.0756
55786W        W98724  34.649   4.217   4.154 -0.0440  0.1294 -0.1991
55787W        W98725   0.305   2.049   2.253  0.1108  0.1396  0.1991
55788W        W98726   0.710   3.675   0.086  0.0054  0.1241 -0.0280
55789W        W98727   3.413   2.262  31.147  0.0301 -0.2472 -0.0206
55790W        W98728   2.916   1.778   1.333 -0.1810  0.1783  0.2982
55791W        W98729   2.315   3.901   1.719 -0.1264 -0.0668  0.1808
55792W        W98730   1.523   1.566   0.468 -0.3336  0.1044  0.2474
55793W        W98731   0.146   3.031   2.384  0.0223 -0.2308  0.0876
55794W        W98732  33.980   2.233  31.859  0.0417  0.1675  0.2248
55795W        W98733   3.550   3.767   2.134 -0.2788 -0.0596  0.0140
55796W        W98734   1.866   4.028   0.312  0.4339  0.1629  0.0360
55797W        W98735   3.104   2.652   4.244  0.1112  0.1222 -0.3025
55798W        W98736   4.079   0.382  31.534 -0.2504  0.1271 -0.0164
55799W        W98737   2.709   2.050   0.862 -0.1390 -0.1668 -0.0456
55800W        W98738   3.555   0.042   1.378  0.1262 -0.2375  0.1506
55801W        W98739   2.307   2.129   3.316  0.1840 -0.0713 -0.1036
55802W        W98740   1.101   0.834   2.565  0.0794  0.2730  0.1144
55803W        W98741   1.885   0.594  30.802 -0.1997  0.0888  0.1929
55804W        W98742   0.479   0.444   3.163  0.1742 -0.1217 -0.1017
55805W        W98743   3.585   0.623   3.330 -0.2390  0.0606  0.2926
55806W        W98744  34.050   2.926   3.586 -0.0302 -0.1362 -0.0317
55807W        W98745   4.344   3.843   0.248 -0.2380  0.1157 -0.0764
55808W        W98746   0.118   1.690   1.463  0.0498 -0.1743 -0.4117
55809W        W98747   0.980   1.944   0.944  0.1376  0.1272 -0.0755
55810W        W98748   2.796   0.348   1.787  0.1526  0.2443 -0.0923
55811W        W98749   2.205   1.574  30.093 -0.1181 -0.0589  0.0093
55812W        W98750   3.341   1.126   0.886  0.0905  0.1337  0.0214
55813W        W98751   2.015   2.844   1.219 -0.1928  0.0534  0.0402
55814W        W98752   0.947   2.839   2.927 -0.2228 -0.1817 -0.2213
55815W        W98753   1.482   4.202   2.232 -0.1444  0.4851  0.0441
55816W        W98754   0.102   0.671   0.932  0.1711 -0.1588 -0.0762
55817W        W98755   3.084   2.397   0.950 -0.1061  0.1361  0.1133
55818W        W98756   0.490   0.647   3.617  0.0216  0.3362 -0.0544
55819W        W98757   3.257  34.120   2.977 -0.2431  0.0710  0.0334
55820W        W98758   0.787   2.266   2.540 -0.2986  0.0403  0.0834
55821W        W98759   3.648   1.398   0.033  0.0467 -0.2792 -0.3532
55822W        W98760   0.355   1.088   3.199  0.2147  0.1104 -0.2229
55823W        W98761   0.566   0.701   1.808  0.2556  0.3669 -0.0319
55824W        W98762   1.224   3.232   0.994 -0.1435  0.1728 -0.0926
55825W        W98763   2.515   2.277   2.768 -0.1731 -0.0147 -0.2587
55826W        W98764   3.405   1.772  30.967  0.0589 -0.0132 -0.0811
55827W        W98765   2.591   3.942   3.957 -0.1088 -0.5019  0.2291
55828W        W98766   0.476   0.885   1.307  0.1103  0.0843  0.1858
55829W        W98767   3.378   0.987   0.200  0.1610 -0.0087 -0.0315
55830W        W98768   1.366   0.792   1.555  0.2046 -0.3315  0.2612
55831W        W98769   1.791   1.538   2.662 -0.2315 -0.1298 -0.2566
55832W        W98770   2.672   2.981   3.394  0.1281  0.0308 -0.2357
55833W        W98771   0.708   0.131   0.496 -0.0385 -0.2483  0.0566
55834W        W98772   5.392   2.577  31.242  0.4327 -0.1556  0.1587
55835W        W98773   3.102   2.969   2.390 -0.1280  0.1382 -0.3274
55836W        W98774   2.290   3.758   0.429 -0.1235 -0.1951 -0.1331
55837W        W98775   2.032   1.695   0.625  0.0240  0.0921  0.1489
55838W        W98776   3.036   3.780   2.231 -0.1679  0.2200 -0.1123
55839W        W98777  33.941   0.691   2.560  0.2192 -0.3652  0.6400
55840W        W98778   2.562   3.670   2.294 -0.1360 -0.0122 -0.0417
55841W        W98779   3.481   3.303   2.298 -0.1154 -0.1110 -0.1627
55842W        W98780   2.392   0.670   0.509 -0.1798 -0.2498 -0.0112
55843W        W98781   2.677   1.078   0.739  0.0681  0.2661  0.0317
55844W        W98782   0.613   2.814  31.869  0.1005 -0.0746  0.2720
55845W        W98783   2.956   1.576   0.888  0.0869  0.5848 -0.0079
55846W        W98784   2.967   1.423   3.535 -0.2340 -0.3364 -0.5690
55847W        W98785   3.212   3.141  31.414  0.0224 -0.1448  0.2454
55848W        W98786   2.787  34.372   3.098 -0.3239  0.1786 -0.1288
55849W        W98787   1.733   2.120   3.154  0.0560 -0.0454  0.0249
55850W        W98788   2.104   4.064   3.301  0.0678 -0.0259 -0.0497
55851W        W98789   0.954   0.943  31.980 -0.0115 -0.2058 -0.2076
55852W        W98790   1.592   2.900   2.137 -0.1110  0.0634 -0.2061
55853W        W98791   1.731   3.302   1.070 -0.1595  0.1615  0.3292
55854W        W98792   2.063   1.661   0.147  0.0939  0.0362  0.0861
55855W        W98793   2.181   3.562   2.611  0.0208 -0.2304  0.1033
55856W        W98794   2.461   0.680  31.937  0.1612  0.0004 -0.3609
55857W        W98795   3.561   2.639   1.118  0.2664  0.2156 -0.0612
55858W        W98796   1.654   0.128   0.221 -0.0173  0.0937  0.3086
55859W        W98797   3.581   0.136   0.866 -0.2937  0.0829  0.3226
55860W        W98798   3.234  33.557   1.590 -0.4853 -0.1958 -0.0782
55861W        W98799   1.441   0.426   3.016  0.1464 -0.0231  0.3185
55862W        W98800  34.352   2.873   0.703 -0.2022  0.1894  0.0597
55863W        W98801   1.127   1.876   0.072  0.0322 -0.1293 -0.2360
55864W        W98802   0.967   2.805   1.271  0.0049  0.1728 -0.2034
55865W        W98803   3.399  34.339   3.644  0.1234 -0.0834  0.3973
55866W        W98804  34.010   0.950   3.024 -0.0799 -0.1957 -0.0322
55867W        W98805   0.307   2.562   2.234 -0.1479  0.2447  0.0302
55868W        W98806   1.109   0.571   0.585  0.1778 -0.2366  0.2635
55869W        W98807   2.127   3.160   0.812 -0.0807  0.1890  0.1258
55870W        W98808   0.877   1.021   1.562  0.1633 -0.3230  0.2018
55871W        W98809   0.008   0.829   1.479  0.0596 -0.0070 -0.0798
55872W        W98810   2.758   3.613   1.730  0.1167  0.1072  0.0274
55873W        W98811   2.718   3.634   1.237  0.3610 -0.2569 -0.1825
55874W        W98812   1.266  34.619   0.427 -0.2581  0.2081  0.1326
55875W        W98813   2.766   3.560   4.183 -0.3295 -0.2706 -0.1222
55876W        W98814   2.567   1.977  31.567 -0.0936  0.0441  0.0973
55877W        W98815   1.763   1.376   4.496 -0.2019  0.0005  0.2802
55878W        W98816   1.405   0.951   3.162  0.0334  0.1434 -0.2405
55879W        W98817   0.266   0.148  31.320  0.2024  0.1797  0.0076
55880W        W98818   1.315   1.221   1.299  0.0435  0.2651 -0.1635
55881W        W98819   2.972   2.803  31.787  0.1664 -0.0068 -0.0537
55882W        W98820   2.395   3.494   0.029  0.3548 -0.0210 -0.2986
55883W        W98821   1.734   2.415   1.005 -0.2421  0.0189 -0.2701
55884W        W98822   0.809   3.688   2.853 -0.0524 -0.1056  0.1349
55885W        W98823   0.585  33.591   2.252 -0.0661 -0.1615  0.0870
55886W        W98824   2.463   2.412   1.833  0.1544  0.1085  0.1350
55887W        W98825   0.340   3.453   2.598 -0.1365  0.3255 -0.1884
55888W        W98826   4.307   3.193  31.597  0.1246 -0.0723 -0.0930
55889W        W98827   3.508  33.847   1.896 -0.0018 -0.3952 -0.0877
55890W        W98828   2.497   2.846   0.513 -0.0569 -0.0339 -0.2138
55891W        W98829   0.614  34.251   4.265  0.0526 -0.0729 -0.1599
55892W        W98830   0.843   0.911   2.981  0.2786 -0.1626 -0.3019
55893W        W98831   3.221   2.445   2.766  0.0199 -0.0196  0.0771
55894W        W98832   1.121  34.659   1.439 -0.1504  0.0102 -0.0082
55895W        W98833   3.873   1.792   0.367  0.0342 -0.1491  0.3359
55896W        W98834   2.280   3.309  31.460  0.2263 -0.0269 -0.0423
55897W        W98835   1.560   2.261   1.457 -0.2114  0.0702 -0.0753
55898W        W98836   3.852   1.923  31.838  0.4253  0.1175  0.1296
55899W        W98837   1.441   1.672   2.342 -0.2859 -0.0209 -0.0708
55900W        W98838   1.050   1.827   2.984 -0.0885 -0.3474 -0.0525
55901W        W98839   2.127   2.720   3.927 -0.1272  0.2876  0.1744
55902W        W98840   2.471   2.059   0.442 -0.2579  0.0036 -0.0883
55903W        W98841   4.336   1.209  31.614 -0.0353  0.3007 -0.1166
55904W        W98842   1.054   3.402   2.055 -0.1534  0.0905 -0.0816
55905W        W98843   2.680   2.732   2.503  0.0592 -0.1184  0.1459
55906W        W98844   1.753   3.844   2.421  0.0015  0.5441 -0.3380
55907W        W98845   2.008   1.984   1.229 -0.3853 -0.1907  0.3278
55908W        W98846   1.533  33.876   1.824  0.2012  0.0714 -0.1187
55909W        W98847   1.294   1.534   0.914  0.1152  0.2485 -0.0979
55910W        W98848   1.356   2.715   0.766 -0.0867 -0.2558  0.1296
55911W        W98849   3.246   1.923   3.494 -0.0738  0.3278 -0.3075
55912W        W98850   0.899   0.629   1.224  0.0098 -0.3898  0.0942
55913W        W98851   2.800   0.548   0.788 -0.0300 -0.2169 -0.0190
55914W        W98852   1.337   3.166   3.447 -0.0829 -0.1816 -0.1263
55915W        W98853   1.850   1.968   2.360  0.4010  0.1364  0.1954
55916W        W98854   0.515   3.455   7.467  0.2518 -0.0119 -0.2583
55917W        W98855   0.674   0.793   4.885 -0.2379  0.1410  0.0302
55918W        W98856   2.703   0.530   2.352 -0.0466 -0.1916 -0.1638
55919W        W98857   2.714   2.613   3.102  0.1287 -0.0232 -0.2917
55920W        W98858  34.301   0.722   5.827 -0.2267  0.0111  0.0185
55921W        W98859   3.476   1.658   5.368 -0.3716  0.1735 -0.4744
55922W        W98860   0.349  34.097   6.243 -0.0034 -0.0799  0.0251
55923W        W98861   3.321   2.321   4.674  0.0780 -0.2895 -0.0066
55924W        W98862   3.432   4.412   5.794 -0.1623 -0.3650 -0.0249
55925W        W98863  34.693   0.406   4.117 -0.2019 -0.3105  0.3072
55926W        W98864   2.939   1.025   5.817 -0.0757 -0.2162 -0.0033
55927W        W98865   1.100   2.873   7.098  0.0293 -0.0097  0.0351
55928W        W98866   1.260   0.076   3.726 -0.0114  0.2003  0.1357
55929W        W98867  33.365  34.592   7.243  0.1841  0.1349 -0.0211
55930W        W98868   3.860   2.050   6.518 -0.0618  0.0948  0.0014
55931W        W98869   0.311   1.186   4.349 -0.0442 -0.0056  0.0904
55932W        W98870   1.514   0.181   5.674  0.3821  0.2188 -0.1268
55933W        W98871   1.855   1.661   4.918 -0.2153 -0.0731  0.2847
55934W        W98872   2.103   3.264   4.894  0.0040 -0.2371 -0.0816
55935W        W98873   1.314   1.133   6.670 -0.0553  0.2598  0.3323
55936W        W98874   2.083  34.328   5.845  0.1230  0.1143 -0.4003
55937W        W98875   0.640   2.541   3.743 -0.1534  0.0100 -0.2871
55938W        W98876  34.113   1.690   3.530 -0.0031 -0.0992  0.1011
55939W        W98877   0.775   1.403   6.109 -0.1042  0.0471  0.0491
55940W        W98878   1.897   2.572   6.340 -0.1663  0.1513  0.0230
55941W        W98879   1.663   0.730   6.451  0.1857 -0.4057 -0.0511
55942W        W98880   4.452   1.861   5.171 -0.3563 -0.1598  0.0768
55943W        W98881   1.782   2.081   6.172 -0.1569  0.1524  0.1348
55944W        W98882   2.850   3.253   5.705 -0.3396 -0.1622 -0.2698
55945W        W98883   2.648   0.681   6.734  0.1281  0.1017 -0.0301
55946W        W98884   0.660   2.216   5.646 -0.0410  0.0135  0.0843
55947W        W98885   1.050   2.302   4.927  0.0538  0.0894 -0.1666
55948W        W98886   1.520   2.337   4.561 -0.0423 -0.2618 -0.2906
55949W        W98887   3.067   1.910   4.475  0.3366 -0.0525  0.0732
55950W        W98888   3.391   3.201   7.985  0.2963  0.1715  0.1393
55951W        W98889   1.237   4.910   8.815 -0.0935  0.1558  0.0528
55952W        W98890   0.205   2.375   3.590  0.0122  0.1748 -0.4502
55953W        W98891   1.699   3.394   7.513  0.0479 -0.0279 -0.1832
55954W        W98892   1.261   3.814   7.393 -0.2645  0.3443 -0.1442
55955W        W98893   2.742   1.777   6.990 -0.0113  0.1414 -0.2141
55956W        W98894   2.832   2.308   5.469 -0.2504  0.0549  0.0486
55957W        W98895  34.624   2.772   3.649  0.0038  0.2366  0.2416
55958W        W98896   1.534   1.509   7.111  0.2196  0.2719 -0.1064
55959W        W98897   2.081   3.039   7.355 -0.0290 -0.0047  0.0341
55960W        W98898   1.511   3.161   5.386 -0.0927 -0.1554  0.3925
55961W        W98899   2.958   0.383   7.508 -0.0419 -0.0224 -0.1421
55962W        W98900   1.806   2.894   3.589 -0.0518  0.0275  0.0236
55963W        W98901   1.835   0.737   3.288  0.0874 -0.0038 -0.0859
55964W        W98902   1.691   0.439   3.892  0.0387 -0.0132 -0.0722
55965W        W98903   2.124   0.314   3.678  0.3958  0.2983 -0.1892
55966W        W98904   1.529   1.658   6.565 -0.0482  0.1133  0.0970
55967W        W98905   1.197   4.045   6.964  0.1185  0.0968  0.0166
55968W        W98906   2.203   1.265   5.555  0.2983  0.3710  0.0628
55969W        W98907   4.281   3.112   5.794 -0.2489  0.0931 -0.0785
55970W        W98908   2.010   0.836   5.590  0.0080  0.1912  0.1646
55971W        W98909   2.852   2.066   6.550  0.3189  0.1675  0.2869
55972W        W98910   1.536   2.362   7.629 -0.0799  0.0714 -0.4809
55973W        W98911  34.080   0.149   6.727  0.0120  0.0898 -0.2718
55974W        W98912   3.245   3.590   3.060 -0.3264 -0.1071  0.2817
55975W        W98913   3.639   2.008   4.912  0.1962 -0.3585 -0.0531
55976W        W98914   1.012   3.279   2.617 -0.0860  0.1442  0.3107
55977W        W98915   0.485   1.131   5.793  0.0444 -0.1017 -0.0790
55978W        W98916  34.136   1.148   7.248 -0.2700  0.2053  0.2178
55979W        W98917  34.501   1.417   6.992  0.0674  0.0624  0.0936
55980W        W98918   1.215   1.547   5.303  0.0460 -0.2485  0.1268
55981W        W98919   3.084   4.373   7.284  0.0114 -0.0836  0.1871
55982W        W98920  33.793   1.951   7.461 -0.3201 -0.1571 -0.2180
55983W        W98921   3.432   1.287   5.935  0.0008  0.0628 -0.1683
55984W        W98922  34.682   1.551   6.459  0.2724  0.0075  0.1029
55985W        W98923   2.843   3.851   6.394 -0.0530  0.0514 -0.0270
55986W        W98924   2.313   2.214   3.799  0.1114 -0.0425 -0.2012
55987W        W98925   1.842   0.127   5.118 -0.3143  0.0111 -0.3816
55988W        W98926   2.181  34.541   6.612  0.1711 -0.1687 -0.3555
55989W        W98927  34.358   1.312   3.811 -0.1521 -0.2014 -0.3562
55990W        W98928   0.689   1.370   4.650  0.0925 -0.3074  0.0468
55991W        W98929   3.556   2.706   6.635 -0.0459  0.3426  0.3240
55992W        W98930   2.880   2.042   3.108 -0.1553 -0.0006 -0.1282
55993W        W98931   1.512   3.670   6.929 -0.0660 -0.2239  0.0093
55994W        W98932   2.346   1.191   6.841  0.0214  0.1445  0.0198
55995W        W98933   2.554   2.501   6.698  0.0953  0.1952  0.2232
55996W        W98934   1.432   3.085   3.989  0.0155  0.0144 -0.0175
55997W        W98935   1.553   2.976   4.521  0.0668 -0.1380  0.1160
55998W        W98936   0.693   2.284   4.542  0.0096 -0.0758 -0.1423
55999W        W98937   0.705   0.503   6.815 -0.0292  0.0152  0.2398
56000W        W98938   2.244   3.014   5.346  0.2776 -0.0652 -0.0163
56001W        W98939   3.817  34.638   4.922 -0.2687 -0.0311 -0.2097
56002W        W98940   1.396  33.753   6.857 -0.0635  0.1163 -0.0216
56003W        W98941   2.288  34.494   5.092 -0.2753 -0.1048  0.1851
56004W        W98942   0.324   1.169   4.957  0.0454 -0.0392 -0.1223
56005W        W98943   3.274   3.219   4.382 -0.2893 -0.0146 -0.1173
56006W        W98944   3.698   2.745   4.240  0.3584  0.0554 -0.4624
56007W        W98945   0.755   1.194   3.466  0.1291  0.0296  0.1549
56008W        W98946   1.794   1.239   6.549  0.4657 -0.1219 -0.1404
56009W        W98947  34.300   1.206   5.627  0.0728 -0.1392  0.0047
56010W        W98948   0.763   0.151   7.677  0.4422  0.0104  0.0933
56011W        W98949  34.679  34.653   6.795  0.1241 -0.0462 -0.0374
56012W        W98950   3.030   1.472   6.163  0.0138  0.5578  0.1732
56013W        W98951   1.527   0.054   4.336 -0.1339 -0.3591 -0.0673
56014W        W98952   2.589   1.637   6.438 -0.0525  0.2071 -0.2648
56015W        W98953   1.282   1.072   4.243 -0.1966 -0.0929 -0.0810
56016W        W98954  34.161   2.115   5.405 -0.0593 -0.3963  0.1454
56017W        W98955   3.937   1.236   7.629  0.2328 -0.1566 -0.0504
56018W        W98956   2.959   3.603   4.721  0.1196 -0.0036 -0.2260
56019W        W98957   4.251   3.063   7.327  0.0682 -0.2824  0.0809
56020W        W98958   3.293   3.402   5.511  0.2349  0.0038 -0.1603
56021W        W98959   0.451   0.837   7.260 -0.3709  0.1095 -0.1543
56022W        W98960   1.971   0.308   4.369  0.1264  0.2044 -0.0115
56023W        W98961   0.111   3.322   5.084 -0.0842  0.1091 -0.1962
56024W        W98962   2.632   3.227   4.913  0.0116 -0.2633 -0.0550
56025W        W98963  34.554   1.996   5.123 -0.0635  0.2369  0.3063
56026W        W98964   3.095   3.157   5.011  0.0740 -0.0458 -0.0153
56027W        W98965   1.797   2.809   4.888  0.1720 -0.3406 -0.0983
56028W        W98966   1.984   3.123   6.168  0.2502 -0.1301 -0.1523
56029W        W98967   3.191   0.780   6.181 -0.2369 -0.0085 -0.1068
56030W        W98968   5.108   2.088   6.121  0.2661 -0.1995  0.0107
56031W        W98969   2.706   1.792   5.478  0.0135 -0.1580 -0.0624
56032W        W98970  34.194   0.826   3.807 -0.1288 -0.0735 -0.0065
56033W        W98971   2.567   2.967   4.318 -0.2074 -0.1059 -0.1023
56034W        W98972   1.074   3.597   4.706 -0.2026  0.1402  0.2336
56035W        W98973   0.820   1.861   4.731 -0.0840 -0.3663  0.1206
56036W        W98974   0.553   1.590   5.093  0.1684 -0.0616  0.4455
56037W        W98975   4.279   1.382   5.357  0.4228  0.0119  0.1282
56038W        W98976   0.830   2.084   6.802 -0.0141 -0.2298  0.2060
56039W        W98977   3.470   0.218   7.352  0.0995 -0.0317  0.1054
56040W        W98978   0.898   1.355   4.147 -0.0366  0.0020  0.3189
56041W        W98979   1.342   3.441   7.913  0.3449 -0.0484 -0.1321
56042W        W98980   1.595   0.870   4.733 -0.2540  0.1814 -0.1544
56043W        W98981   2.770   0.220   3.205 -0.2629  0.1136 -0.2192
56044W        W98982   2.273   1.329   7.877  0.0581 -0.1834  0.1318
56045W        W98983   2.743   1.907   3.644 -0.1421  0.0350 -0.4723
56046W        W98984   1.255   1.504   4.526  0.2367  0.2984  0.1589
56047W        W98985   2.899   1.602   4.833  0.2273  0.2511 -0.0179
56048W        W98986  34.239   2.695   7.194  0.0113  0.3147 -0.1539
56049W        W98987   0.979   1.990   5.357  0.0392 -0.1275 -0.0852
56050W        W98988   2.329   3.507   5.319  0.1342 -0.5006  0.2914
56051W        W98989   1.813   0.886   4.301  0.4271  0.1370 -0.3751
56052W        W98990   3.630   2.414   3.770 -0.1453 -0.1528  0.2353
56053W        W98991   1.488   2.490   6.028 -0.0182 -0.0943  0.0683
56054W        W98992   3.057   2.409   8.046  0.0006  0.0517 -0.0928
56055W        W98993   4.227   3.296   5.285 -0.1929  0.0891 -0.1719
56056W        W98994   2.698   0.994   6.273  0.2208  0.0289 -0.1208
56057W        W98995   1.522   1.571   4.052  0.2794  0.0318 -0.0099
56058W        W98996   2.189   1.861   4.551 -0.1339 -0.1085 -0.0912
56059W        W98997   0.364   4.360   3.265 -0.1196 -0.0414  0.0374
56060W        W98998   2.468   0.884   5.856  0.1282 -0.0579  0.3703
56061W        W98999   2.497   0.423   5.674  0.0955  0.2203 -0.0593
56062W        W99000   0.348  33.732   6.561  0.0989  0.1762  0.3078
56063W        W99001   3.618   0.821   6.907  0.3131  0.1994 -0.1092
56064W        W99002   2.991   2.000   2.548 -0.1477 -0.0916  0.3602
56065W        W99003   3.787   1.404   5.635 -0.0146 -0.2083  0.0562
56066W        W99004   1.010   2.210   3.703 -0.1095  0.0319 -0.1939
56067W        W99005   1.412   1.102   7.318  0.1281  0.0833  0.0833
56068W        W99006   1.267   2.132   6.396 -0.0597 -0.0279  0.0161
56069W        W99007   0.093   2.588   6.402 -0.0269 -0.1242  0.1673
56070W        W99008   3.195   2.143   7.130  0.0315  0.0414 -0.1750
56071W        W99009   2.594   2.437   5.061 -0.1033 -0.2816  0.2119
56072W        W99010   2.435   0.184   8.087 -0.0878  0.0539  0.0136
56073W        W99011   3.280   0.763   3.817 -0.0835  0.2105 -0.0241
56074W        W99012   1.767   3.465   3.431  0.1559 -0.1421 -0.0903
56075W        W99013   0.994   1.755   3.484  0.1498 -0.1858  0.0451
56076W        W99014   0.362  34.679   5.056  0.1137  0.0676  0.1289
56077W        W99015   1.271   2.424   5.547 -0.2479  0.0271 -0.1774
56078W        W99016   0.560   1.599   3.240 -0.1918  0.0108  0.0322
56079W        W99017   4.427   2.938   6.220  0.0592 -0.2023 -0.1317
56080W        W99018   1.588   3.368   4.927  0.0232  0.1671  0.0413
56081W        W99019   3.537   0.707   5.015  0.3020 -0.2803  0.0533
56082W        W99020   0.699   2.265   6.217 -0.0620 -0.0149 -0.2792
56083W        W99021   0.534   1.756   4.285 -0.2674 -0.1761  0.1837
56084W        W99022  34.392   1.620   5.347  0.0015 -0.0378  0.1057
56085W        W99023   3.768   0.831   5.474 -0.2018 -0.1654 -0.1144
56086W        W99024   2.025   2.523   4.485 -0.0225 -0.0677 -0.1164
56087W        W99025   0.334   1.168   6.252 -0.1075 -0.0534 -0.2797
56088W        W99026   2.840   0.761   5.393  0.1556 -0.1854 -0.0797
56089W        W99027   0.583   2.902   6.282  0.0089 -0.1539 -0.1927
56090W        W99028   3.035   2.591   6.838  0.1483 -0.0652  0.0493
56091W        W99029   2.280   1.376   3.475 -0.1991 -0.1451 -0.0975
56092W        W99030   3.017   3.392   6.575 -0.0191  0.1040  0.0972
56093W        W99031   1.467   1.902   7.390 -0.0179  0.0681 -0.1121
56094W        W99032  33.707   1.963   5.510 -0.0667 -0.1858  0.0078
56095W        W99033   3.533   0.309   6.005 -0.1249 -0.5400 -0.4966
56096W        W99034   0.532   2.099   5.151 -0.0956 -0.1822 -0.0936
56097W        W99035   0.779   3.505   5.848  0.3006  0.1618 -0.1705
56098W        W99036   1.307   2.920   5.735  0.0312  0.1818  0.4326
56099W        W99037   1.084   1.074   4.785  0.0041  0.2188 -0.0806
56100W        W99038   2.056   3.004   4.315  0.0143 -0.0437  0.1302
56101W        W99039   1.610   0.731   8.032  0.0831 -0.2533 -0.4053
56102W        W99040   4.302   2.474   6.396 -0.1934 -0.0088 -0.0824
56103W        W99041   1.572   0.623   5.897 -0.3617 -0.1947  0.1581
56104W        W99042  34.465   0.424   6.699 -0.1367 -0.0005 -0.0888
56105W        W99043   2.100   2.226   4.909 -0.2459  0.0690 -0.0365
56106W        W99044   3.842   2.340   6.083 -0.2538 -0.0520 -0.3810
56107W        W99045   2.605   1.500   5.890 -0.1443  0.0183  0.1041
56108W        W99046   1.040   2.634   6.336 -0.0243  0.3378  0.1080
56109W        W99047   1.582  34.193   4.580  0.0303 -0.1231  0.0334
56110W        W99048   4.215   2.157   4.661 -0.0179  0.1969  0.2183
56111W        W99049   3.718   2.235   7.360  0.1046  0.0503  0.0083
56112W        W99050   1.149   2.065   4.423 -0.1431  0.0112  0.0128
56113W        W99051  34.094   1.676   5.785 -0.0793 -0.0085 -0.1530
56114W        W99052   0.169   1.379   5.372 -0.1167 -0.1648  0.3725
56115W        W99053   1.480   1.535   6.066 -0.0761 -0.0382  0.1325
56116W        W99054   1.028   3.230   4.360  0.0206 -0.0342 -0.0923
56117W        W99055   2.208   3.621   4.068 -0.1689  0.1453  0.0864
56118W        W99056   1.798   3.116   6.633  0.2270  0.2037 -0.2059
56119W        W99057   3.146   1.301   4.458  0.0464 -0.0680  0.1811
56120W        W99058   2.772   3.421   3.156  0.0128  0.1460 -0.0944
56121W        W99059   2.912   1.319   6.641  0.2125 -0.1451  0.2466
56122W        W99060   3.731  34.429   4.081  0.1800 -0.0153  0.1216
56123W        W99061   2.959   3.084   3.965 -0.1258  0.2219 -0.3069
56124W        W99062   1.831   0.143   6.950 -0.3104 -0.0306  0.0950
56125W        W99063  34.606   0.993   6.554 -0.1206 -0.1472 -0.2287
56126W        W99064   3.787   2.105   5.639  0.1805  0.1874  0.0901
56127W        W99065   1.720   0.215   6.407 -0.1487  0.0568 -0.0983
56128W        W99066   2.525   2.798   7.397 -0.3760  0.0571 -0.0342
56129W        W99067   1.177   2.467   6.837 -0.1262  0.1364  0.0090
56130W        W99068   2.502   2.484   4.199  0.3037 -0.0831 -0.0506
56131W        W99069   1.726   1.507   5.367 -0.3023 -0.1549 -0.1677
56132W        W99070   1.007   1.736   6.512  0.2254  0.0571 -0.0923
56133W        W99071   4.395   2.274   5.435 -0.0570 -0.2952 -0.0970
56134W        W99072   1.539   1.602   3.088  0.1232 -0.0576  0.0109
56135W        W99073   4.272   1.675   4.738  0.2107 -0.1375 -0.1281
56136W        W99074   1.854   2.811   5.718  0.1583 -0.1671 -0.1842
56137W        W99075   3.496   1.640   4.250  0.1550  0.3183  0.1751
56138W        W99076   2.512   1.922   4.981  0.0155  0.1540  0.3581
56139W        W99077   1.180   0.878   5.247 -0.1307  0.0742 -0.1620
56140W        W99078   2.174   0.939   6.403  0.0448 -0.1471 -0.0387
56141W        W99079   3.066   2.584   5.076  0.0248 -0.0687 -0.0266
56142W        W99080   3.149   0.366   5.151  0.0206  0.0726 -0.0756
56143W        W99081   3.375   1.740   7.398 -0.2685 -0.1264  0.2451
56144W        W99082   3.321   2.199   6.648 -0.0301  0.0609  0.2562
56145W        W99083   2.339   1.944   6.021  0.1536  0.1376  0.0465
56146W        W99084   1.813   1.095   6.053 -0.2739  0.3943  0.2283
56147W        W99085   3.403   3.866   5.654  0.3455  0.1983 -0.1992
56148W        W99086   3.171   0.656   2.091  0.0640  0.0310  0.1526
56149W        W99087   4.203   1.811   5.650  0.1208 -0.0042  0.5127
56150W        W99088   3.963   1.526   3.520  0.0763  0.2562 -0.2536
56151W        W99089   1.398   0.843   3.768  0.1785 -0.0123  0.0075
56152W        W99090   3.323   1.128   5.450  0.5001 -0.0213 -0.2148
56153W        W99091   2.612   1.438   7.500 -0.2387  0.0455 -0.3581
56154W        W99092   0.585   2.012   3.498  0.1357 -0.1846  0.2221
56155W        W99093   3.317   0.653   5.655  0.0943 -0.1109 -0.0248
56156W        W99094   1.444   3.875   4.799  0.2954 -0.3809 -0.2457
56157W        W99095   3.494   2.942   5.905 -0.1060 -0.1540 -0.2199
56158W        W99096   1.744   1.371   3.482 -0.3101  0.2194 -0.4182
56159W        W99097   1.249   0.967   6.163 -0.0236  0.4926 -0.1553
56160W        W99098   1.325   3.947   8.435  0.1040 -0.4130  0.3440
56161W        W99099   0.109   1.452   3.574  0.4183 -0.2759  0.1296
56162W        W99100   1.352   1.851   4.888  0.2322 -0.2350 -0.2637
56163W        W99101   1.922   1.875   7.080 -0.0557  0.0761 -0.1856
56164W        W99102   4.311   1.913   6.693  0.0822 -0.1808 -0.2053
56165W        W99103   0.825   0.344   3.833  0.2523 -0.0376 -0.2279
56166W        W99104   3.320   0.775   7.766  0.3364  0.0158  0.2835
56167W        W99105   1.747   3.822   4.067  0.0912 -0.2141 -0.1742
56168W        W99106   2.312   0.207   4.736  0.0263 -0.3230 -0.0838
56169W        W99107   1.698   3.426   5.842  0.0375 -0.1033 -0.1369
56170W        W99108  34.684   2.192   7.242  0.2672 -0.0680  0.0180
56171W        W99109   0.346   3.642   4.787  0.0009 -0.1341  0.1482
56172W        W99110   2.186   1.708   5.330 -0.2962 -0.0598 -0.2113
56173W        W99111   3.828   1.731   6.038 -0.1026  0.1585 -0.1164
56174W        W99112   3.440   2.005   6.171 -0.1145  0.1470  0.3731
56175W        W99113   4.724   2.043   5.790  0.2940 -0.1230 -0.2786
56176W        W99114   2.367   2.038   6.833  0.0750  0.0797  0.3675
56177W        W99115   1.469   1.968   5.713  0.2718 -0.0024  0.2010
56178W        W99116   3.008   2.832   7.304 -0.0521 -0.0160 -0.1696
56179W        W99117   3.222   2.029   5.637 -0.2933  0.1225  0.1485
56180W        W99118   0.310   1.834   4.763 -0.1019  0.2631 -0.0947
56181W        W99119   1.391  34.091   6.497 -0.0646  0.2990  0.0430
56182W        W99120   2.478   2.355   7.628  0.2746  0.0607 -0.0527
56183W        W99121   3.119   1.541   5.696  0.0029  0.1654  0.0926
56184W        W99122   0.852   0.879   3.903 -0.4282  0.2261 -0.1629
56185W        W99123   2.201   2.595   3.411 -0.1033 -0.2045  0.4296
56186W        W99124   0.734   4.077   7.975  0.0725  0.0060  0.1023
56187W        W99125   0.514   1.608   6.472  0.1161  0.0386 -0.1484
56188W        W99126   1.848   3.318   3.893  0.0108  0.2660  0.1266
56189W        W99127   2.993   4.348   3.720 -0.1230  0.0207  0.2308
56190W        W99128   1.229   2.241   3.239  0.1170 -0.1106  0.3064
56191W        W99129   2.236   3.371   6.593 -0.0419  0.1713 -0.0782
56192W        W99130   0.277   2.072   3.129  0.0011  0.2888 -0.2197
56193W        W99131   2.025   3.436   7.035 -0.0788 -0.0229 -0.1612
56194W        W99132  34.528   2.307   3.913  0.0988  0.1724 -0.0291
56195W        W99133   4.103   3.125   3.608  0.1406  0.2152 -0.2366
56196W        W99134   1.122   3.100   4.814  0.2821 -0.1220 -0.2555
56197W        W99135   3.105   2.889   8.308  0.0542 -0.0641 -0.0743
56198W        W99136   3.794   1.036   3.743  0.1617  0.0905  0.0528
56199W        W99137   5.304   2.688   4.622 -0.5100  0.0559  0.0182
56200W        W99138   3.094   0.414   4.205 -0.3304  0.1141 -0.3270
56201W        W99139   2.991   2.865   7.824  0.0702  0.2830 -0.0905
56202W        W99140   2.868   1.938   6.064  0.2523 -0.1374 -0.0752
56203W        W99141   1.232  34.124   2.868  0.1901 -0.1631  0.3226
56204W        W99142   2.056   2.514   6.765  0.1985  0.1116  0.2104
56205W        W99143   3.227   0.806   7.263  0.0135 -0.2918 -0.1279
56206W        W99144   0.361   2.412   7.574  0.0529  0.3034 -0.1640
56207W        W99145   3.487   3.578   4.698  0.0070  0.3054 -0.0990
56208W        W99146   0.407   0.727   4.207  0.1019  0.0318 -0.1972
56209W        W99147   0.100   1.566   5.917  0.0198  0.2753  0.0736
56210W        W99148   2.503   0.522   6.233 -0.2707  0.1017  0.1166
56211W        W99149   1.488   2.164   4.038  0.0526  0.0813 -0.1180
56212W        W99150   1.896   2.060   5.489 -0.1132  0.1256 -0.0321
56213W        W99151   2.227   3.173   3.422 -0.2431 -0.0584  0.0366
56214W        W99152   2.080   3.887   5.658 -0.1311  0.0686  0.0590
56215W        W99153   2.393   3.082   5.867  0.1196  0.0965  0.0058
56216W        W99154  33.900   1.436   5.231  0.3321 -0.0700 -0.3067
56217W        W99155   5.445  34.615   4.806  0.1827  0.0221  0.1148
56218W        W99156   1.599   1.538   7.615 -0.1629  0.2071  0.0073
56219W        W99157   1.917  33.337   4.464  0.2231 -0.0538  0.1226
56220W        W99158   0.194   0.885   5.397  0.1507 -0.1586  0.2403
56221W        W99159   3.050   1.697   3.985  0.0870 -0.1456  0.1595
56222W        W99160   3.336   2.495   6.197 -0.0386  0.0916 -0.2537
56223W        W99161   1.454   1.095   5.666 -0.0664  0.0178 -0.1470
56224W        W99162   1.092   2.655   4.558  0.1998 -0.0664  0.1816
56225W        W99163   4.041   1.524   6.587 -0.1225  0.2369 -0.0718
56226W        W99164   1.430   1.253   2.746  0.1718  0.2237  0.3253
56227W        W99165   2.642   3.275   7.146 -0.0868  0.1296 -0.0956
56228W        W99166  34.322   0.643   4.822  0.1850 -0.0371  0.0353
56229W        W99167   2.364   0.979   5.157 -0.0631 -0.0296  0.1203
56230W        W99168   0.232   1.872   5.537 -0.0465  0.2989  0.2250
56231W        W99169   2.045   2.347   5.877 -0.0754 -0.1469 -0.0579
56232W        W99170   2.653   3.078   6.638  0.1065 -0.0161 -0.0724
56233W        W99171  34.507  33.639   5.546  0.1622 -0.1354  0.0132
56234W        W99172   3.408   2.272   5.278  0.0189  0.1520  0.0172
56235W        W99173   5.620   1.705   5.683 -0.0761  0.0114  0.3067
56236W        W99174   0.740   4.748   3.187 -0.0313 -0.0890  0.2535
56237W        W99175   3.433   2.468   5.727  0.1142 -0.0346  0.0591
56238W        W99176   3.922   3.466   4.930 -0.0329 -0.3984 -0.0024
56239W        W99177  33.608   1.008   6.919  0.2509 -0.0947 -0.1920
56240W        W99178   4.392   4.400   6.695 -0.0750  0.1484 -0.1142
56241W        W99179   3.605   2.669   5.060 -0.0738 -0.2178 -0.4113
56242W        W99180   1.975   1.672   5.832 -0.0445 -0.1757 -0.1218
56243W        W99181   0.614   1.380   7.200  0.0634 -0.3557  0.0947
56244W        W99182   0.438   4.752   6.535  0.0581  0.0014  0.1208
56245W        W99183   2.197   0.469   5.290  0.0424 -0.2221 -0.1584
56246W        W99184   3.496  34.685   6.457 -0.0061  0.3566 -0.0709
56247W        W99185   0.918   2.936   3.856 -0.0882  0.2662  0.1234
56248W        W99186   2.748  34.224   5.107  0.3124  0.2714  0.0991
56249W        W99187   3.424   2.594   7.134  0.1969 -0.3569  0.2605
56250W        W99188   0.445   4.043   8.379 -0.2740 -0.0799 -0.0923
56251W        W99189  34.264   1.419   4.409 -0.0635 -0.3678 -0.3353
56252W        W99190   1.478   2.789   6.572 -0.1348 -0.0571 -0.1666
56253W        W99191   1.545   2.391   5.054  0.0354  0.0735  0.0940
56254W        W99192   1.961   2.133   4.152  0.1570 -0.2775 -0.0962
56255W        W99193   5.264   1.484   5.217  0.0363 -0.4917  0.1991
56256W        W99194   2.099   1.676   6.623 -0.2363  0.3559 -0.1917
56257W        W99195   4.705   1.476   4.879 -0.0206  0.3569 -0.2330
56258W        W99196   0.630   0.671   5.465 -0.0035 -0.2289 -0.0328
56259W        W99197   3.765  34.055   3.769 -0.1201  0.2346  0.0201
56260W        W99198   3.652   0.652   4.183  0.1989  0.3570  0.1602
56261W        W99199   2.065   2.535   5.315 -0.2167 -0.0286 -0.0404
56262W        W99200  34.631   1.916   3.444  0.1197  0.0404  0.0676
56263W        W99201   0.625   2.142   4.015 -0.3397  0.0119  0.0151
56264W        W99202   1.493   3.139   6.131 -0.1150  0.0450  0.1104
56265W        W99203   3.519   1.074   6.439 -0.0533  0.2322 -0.0617
56266W        W99204   1.286   1.940   6.909 -0.4067  0.1981 -0.1767
56267W        W99205   0.244   1.708   6.893  0.0399 -0.2038 -0.1776
56268W        W99206   0.015   0.279   3.232  0.1775 -0.1520 -0.0879
56269W        W99207   2.395   1.498   4.886 -0.0609  0.1539 -0.1217
56270W        W99208   0.246   0.143   5.961  0.0479  0.2276 -0.0462
56271W        W99209   0.269   0.504   5.043  0.1220  0.1036  0.1846
56272W        W99210   2.335   1.644   3.917 -0.4213 -0.4086  0.1035
56273W        W99211   3.002   2.066   4.968  0.0967 -0.1679  0.0499
56274W        W99212   1.284   0.480   4.963  0.2027 -0.2197 -0.2829
56275W        W99213   2.413   2.795   6.291  0.2891 -0.1832  0.3125
56276W        W99214  34.053   1.818   4.991 -0.2468  0.2738 -0.2908
56277W        W99215   1.911   1.182   7.060 -0.0333 -0.0898  0.0105
56278W        W99216   2.723   0.001   5.923 -0.2393 -0.1044  0.0681
56279W        W99217  34.686   0.720   3.628 -0.0878 -0.2368  0.0723
56280W        W99218   1.116   1.667   5.795 -0.1170  0.1730  0.0150
56281W        W99219   2.853   2.753   4.672 -0.2917 -0.0720 -0.0027
56282W        W99220   4.754   2.468   4.538  0.0781 -0.2376 -0.1663
56283W        W99221   2.264   2.244   6.382  0.1411 -0.0356 -0.0739
56284W        W99222   1.488   2.903   7.505 -0.2490 -0.1248  0.3402
56285W        W99223   1.982   0.290   5.684  0.1954  0.4415  0.4111
56286W        W99224   3.412   1.563   4.767  0.0234  0.0959  0.0524
56287W        W99225   2.196   3.531   5.992 -0.4461  0.1687  0.0621
56288W        W99226   3.408   3.309   3.941  0.0914 -0.1632  0.0981
56289W        W99227   4.035  33.721   5.066  0.0486  0.1454  0.1199
56290W        W99228   1.496   1.302   4.950  0.3739  0.0712 -0.0299
56291W        W99229  34.136  33.922   7.589 -0.0916  0.0186  0.2193
56292W        W99230   0.637   2.597   6.629 -0.1652  0.0252  0.0582
56293W        W99231   5.033   2.380   4.986 -0.0947 -0.0400 -0.1539
56294W        W99232   0.770   1.213   5.225 -0.0644  0.0474  0.3505
56295W        W99233   4.364   0.559   4.958  0.0384 -0.1962  0.0311
56296W        W99234   3.042   2.901   6.413 -0.0254 -0.0333 -0.0825
56297W        W99235   0.965   1.162   5.667 -0.1467 -0.0791 -0.1783
56298W        W99236   2.372   2.157   5.446 -0.0000  0.2867 -0.2517
56299W        W99237   2.156   2.422   7.232 -0.0556 -0.0023 -0.0982
56300W        W99238   2.778   2.449   6.180 -0.1111 -0.1108  0.2580
56301W        W99239   3.300   3.046   6.885  0.4166 -0.3251 -0.1001
56302W        W99240   1.050   1.824   3.975  0.1367 -0.1867  0.1636
56303W        W99241   4.217   1.985   2.710 -0.4057 -0.2929  0.0927
56304W        W99242   2.287   2.913   6.870 -0.2592  0.0807 -0.2816
56305W        W99243   4.319   3.994   7.002 -0.0322  0.2395 -0.2023
56306W        W99244   2.066   2.653   7.750 -0.1072 -0.2632  0.0126
56307W        W99245   4.207   2.067   6.146 -0.0034  0.0275 -0.1479
56308W        W99246   0.185  33.300   5.627 -0.0238  0.0934 -0.1008
56309W        W99247   0.659   1.580   5.585  0.0132 -0.2655  0.1802
56310W        W99248  34.195   0.895   6.304 -0.0512 -0.1763  0.1251
56311W        W99249   3.663   0.879   5.962 -0.4298 -0.0777  0.0155
56312W        W99250   0.316  34.105   5.339 -0.0253  0.0592 -0.3312
56313W        W99251   2.599   0.582   4.422 -0.0090 -0.0089 -0.0929
56314W        W99252   1.611   2.353   7.115  0.0215  0.0937 -0.3172
56315W        W99253   2.764   2.796   5.382 -0.0881 -0.1421  0.0009
56316W        W99254   0.510   4.151  10.778  0.0711  0.2936  0.1380
56317W        W99255   1.170   0.614   8.584 -0.4022  0.1411  0.1368
56318W        W99256   4.163   1.064   5.794  0.3208 -0.1907  0.0043
56319W        W99257   2.290   1.042   7.333 -0.2291 -0.0483 -0.1044
56320W        W99258   0.656   0.892   8.582  0.0710 -0.0563 -0.2590
56321W        W99259   2.603   4.347   9.421  0.1765 -0.1237 -0.1856
56322W        W99260   2.930   1.160   9.207  0.1020 -0.0427  0.0743
56323W        W99261   4.811   2.968  10.436 -0.0398  0.0661 -0.3071
56324W        W99262   2.233   1.400   6.192 -0.2667  0.2191  0.0795
56325W        W99263   1.831  34.207   8.503 -0.2628  0.0800  0.1183
56326W        W99264   0.980   0.040   7.060  0.0263  0.0830 -0.0097
56327W        W99265   0.149  32.849   8.976  0.1226 -0.0566 -0.0513
56328W        W99266   3.695   1.687   9.054 -0.2646 -0.2010  0.2501
56329W        W99267  34.606   0.130   7.691  0.0393 -0.0053 -0.0924
56330W        W99268   0.263   1.543  10.198  0.0034 -0.0159  0.0672
56331W        W99269   1.713   0.835   8.472  0.1012 -0.1446  0.0101
56332W        W99270   3.124   1.856   9.789  0.1391  0.3186  0.1840
56333W        W99271   0.368   3.103   9.169  0.0555  0.0704  0.2037
56334W        W99272   1.035   1.477   6.890  0.0928  0.0347 -0.0438
56335W        W99273   0.761   1.198  10.304 -0.1705  0.0465  0.1305
56336W        W99274   1.622   1.412   9.932 -0.3039 -0.2601 -0.0569
56337W        W99275   2.063   0.560   9.671 -0.2996 -0.3373 -0.4429
56338W        W99276   2.902   1.178   8.588 -0.0990  0.0499 -0.2049
56339W        W99277   0.738   3.026   8.634 -0.1632 -0.1146  0.0074
56340W        W99278   2.858   4.257   8.560  0.1996  0.5000 -0.1594
56341W        W99279   1.144   2.162  10.199 -0.1014 -0.1321 -0.2715
56342W        W99280   0.700   2.434   9.886  0.0811  0.1530  0.0974
56343W        W99281   0.926   3.420   9.165  0.4112  0.3439  0.0741
56344W        W99282   4.793   1.542   7.286 -0.2240  0.1506  0.0984
56345W        W99283   1.192   3.292   8.383  0.1767  0.1181  0.0397
56346W        W99284   2.985   3.964  10.644 -0.1701 -0.2009 -0.1880
56347W        W99285   2.846   2.600   8.698 -0.1684 -0.3360  0.0179
56348W        W99286   1.775   2.784   7.057  0.1557 -0.0441 -0.0925
56349W        W99287   1.763   3.355   8.729  0.1334 -0.0113 -0.1432
56350W        W99288  32.209   3.450   9.830 -0.1607  0.1910 -0.1734
56351W        W99289   0.764   2.633   8.174 -0.0704 -0.2664  0.1010
56352W        W99290   1.901   0.060   7.566  0.2323  0.1776  0.2904
56353W        W99291   1.270   0.359   6.178  0.0813  0.1989 -0.1904
56354W        W99292   2.040   0.427   7.876 -0.1870 -0.0207  0.1616
56355W        W99293   0.992  33.687   8.433 -0.2616 -0.0525  0.2518
56356W        W99294   2.553   3.039   9.421 -0.0107  0.0175  0.3061
56357W        W99295   2.327   0.726   9.266  0.1776 -0.1361 -0.2919
56358W        W99296   1.886   1.069   7.577 -0.0575 -0.2793  0.1497
56359W        W99297   3.264   1.541   9.460  0.0833 -0.0216  0.2035
56360W        W99298   1.543   7.389  10.467 -0.0854  0.1188 -0.1094
56361W        W99299   0.648   1.169   8.994 -0.4035 -0.2190 -0.0163
56362W        W99300   3.092   3.619   9.031  0.1592 -0.0171 -0.0095
56363W        W99301   3.119   3.295   8.662  0.1041 -0.1079 -0.0352
56364W        W99302   3.357   2.704   8.689  0.3331 -0.1472 -0.0010
56365W        W99303   0.256   0.498   8.365  0.0185  0.2061  0.1315
56366W        W99304  34.664  33.867   8.988 -0.0014  0.0265 -0.0363
56367W        W99305   2.814   0.682   8.502  0.1610 -0.1315 -0.2007
56368W        W99306   2.841   1.689   9.225 -0.3301  0.2215  0.2590
56369W        W99307   4.772   3.404   9.462  0.1078 -0.1526 -0.0124
56370W        W99308   2.734   2.334   7.150  0.3089 -0.0079  0.0548
56371W        W99309   3.004   1.477  10.130  0.1513  0.0117 -0.0567
56372W        W99310   2.601  34.437   9.993  0.0767  0.0306  0.2840
56373W        W99311   0.941   3.018   6.589  0.1825 -0.0168  0.2110
56374W        W99312   1.070   3.231   7.503  0.0037  0.0699 -0.3324
56375W        W99313   5.785   0.453   9.658 -0.2009 -0.1867 -0.2229
56376W        W99314   3.484   2.163   7.885 -0.0599 -0.2584 -0.0917
56377W        W99315   0.962   2.889   9.741 -0.1369  0.0459  0.0366
56378W        W99316   1.231   2.935   7.962 -0.1203  0.1472 -0.0335
56379W        W99317   0.196   1.457   9.692  0.2305 -0.1130 -0.0384
56380W        W99318   0.756   2.108   7.816  0.2803 -0.2513  0.1661
56381W        W99319   1.770  34.302   9.380 -0.1047 -0.0585  0.0482
56382W        W99320   2.059   2.904  10.166 -0.1189 -0.1671 -0.2457
56383W        W99321   3.040   0.628   9.892 -0.0042 -0.0412  0.0840
56384W        W99322   3.798  33.853   7.636  0.0428 -0.1120 -0.0926
56385W        W99323   1.193   2.071   8.705  0.1731 -0.2440  0.0990
56386W        W99324   3.319   2.765   9.444  0.0077  0.1216  0.0891
56387W        W99325   2.786   0.723   9.013  0.2973  0.1532 -0.2491
56388W        W99326   2.395   1.952   7.346 -0.0988 -0.0469 -0.0750
56389W        W99327   0.002   2.177   8.935 -0.0148  0.0492 -0.2187
56390W        W99328   2.131   1.068   9.581 -0.2978  0.3101 -0.0105
56391W        W99329   1.153  34.356   9.232  0.0023  0.0728 -0.1517
56392W        W99330   0.708  33.840   7.459  0.2376 -0.0601 -0.1064
56393W        W99331   3.148   0.406   8.884  0.1470 -0.4220 -0.1679
56394W        W99332   2.412   1.571   8.351  0.1135 -0.0362 -0.1850
56395W        W99333   1.443   1.489   8.181  0.1174 -0.3826  0.0963
56396W        W99334   2.521   4.267   8.223 -0.0613  0.0958 -0.1805
56397W        W99335   3.214   4.620   8.453  0.0023  0.0951  0.0341
56398W        W99336   2.199   3.608   8.639  0.1584 -0.2926 -0.0003
56399W        W99337   1.492   0.973   8.973 -0.3163  0.1207  0.1190
56400W        W99338   1.506  34.395   7.693  0.0642  0.1496 -0.0849
56401W        W99339   0.369   3.690   9.949  0.0362  0.2380  0.1581
56402W        W99340   2.012   3.251   9.495  0.0931 -0.0962 -0.2926
56403W        W99341   1.511   0.485   8.895  0.0434 -0.1659  0.1899
56404W        W99342   2.649   4.661  10.280 -0.4592 -0.1488 -0.4354
56405W        W99343   2.111   1.959   8.501 -0.0251 -0.0578  0.0257
56406W        W99344   3.508   1.416   9.940 -0.0133  0.0130  0.1607
56407W        W99345   3.222   1.497   8.294  0.1406 -0.2098  0.1713
56408W        W99346   2.274  34.105   8.193  0.0083  0.1520 -0.0759
56409W        W99347   1.975   3.570   9.083 -0.1726  0.1661 -0.1009
56410W        W99348  34.682   3.904   8.466 -0.1923  0.1211 -0.1537
56411W        W99349   1.649   1.304   8.569 -0.1914 -0.2019  0.0695
56412W        W99350   0.396   2.230   9.544  0.3700 -0.0678  0.2266
56413W        W99351   4.841  34.517  10.321  0.1425 -0.3327 -0.1247
56414W        W99352   1.098  34.628   8.006 -0.1728  0.0697  0.2454
56415W        W99353   2.778  34.438   8.254  0.0446  0.0634 -0.2471
56416W        W99354   2.509   1.058   8.216  0.0993 -0.1164  0.2165
56417W        W99355   5.327   2.157   8.244 -0.1804  0.1199 -0.2769
56418W        W99356   2.287   0.856   7.798 -0.0197  0.0711  0.2227
56419W        W99357   3.113   0.847   6.750  0.0379  0.2287 -0.1972
56420W        W99358   2.883   1.701   8.579 -0.0378 -0.1756  0.0104
56421W        W99359   1.753   3.276   9.923 -0.0847 -0.2081 -0.4749
56422W        W99360   2.924   0.366   6.942 -0.2622 -0.1220 -0.2132
56423W        W99361   3.686   3.313   7.526  0.1824 -0.2594 -0.0862
56424W        W99362   1.159   1.576   9.843  0.2793 -0.0612  0.2831
56425W        W99363   3.483   2.178   9.626  0.1858 -0.1470  0.0891
56426W        W99364   2.548  32.854   9.559 -0.1782  0.2502 -0.1291
56427W        W99365   2.757   1.507   8.072  0.2679  0.3920  0.3761
56428W        W99366   2.156  33.748   8.644  0.1180  0.0957 -0.0427
56429W        W99367  34.589   4.552   7.223  0.1966  0.0519 -0.0202
56430W        W99368   3.395  32.421   9.611  0.0200 -0.2440  0.0155
56431W        W99369   1.979  34.063   8.962  0.0811 -0.0531 -0.1084
56432W        W99370   2.765   1.056   7.068 -0.0416  0.1032 -0.1299
56433W        W99371   2.482   1.365   8.769 -0.0082  0.0892 -0.0500
56434W        W99372   1.123   1.791   7.767  0.0654 -0.0896  0.1402
56435W        W99373   1.638   2.408   9.286 -0.0194 -0.0462 -0.2735
56436W        W99374  33.464   5.867  10.603 -0.2024 -0.0344  0.4613
56437W        W99375   2.470   3.419   9.018 -0.0174 -0.1958  0.0903
56438W        W99376   2.105  34.405   7.203 -0.0196  0.1074  0.0071
56439W        W99377   0.752   5.106   8.127 -0.2255 -0.0563  0.0695
56440W        W99378   1.751   2.152   6.667  0.0418 -0.0441 -0.0032
56441W        W99379   3.020  33.696   9.891 -0.0244 -0.1206 -0.1490
56442W        W99380   2.106   2.780   9.282 -0.2283  0.3247 -0.1745
56443W        W99381   2.963   3.352   8.182  0.1373 -0.3345 -0.3462
56444W        W99382   4.181   2.419   9.075 -0.1188 -0.0900 -0.0319
56445W        W99383   0.496   2.903  10.304  0.0410  0.0653  0.3211
56446W        W99384   3.106  34.579   9.701 -0.1212 -0.1117  0.3665
56447W        W99385   0.527   1.996  10.041 -0.1285  0.3182 -0.1595
56448W        W99386   2.011  34.554   8.054 -0.1506  0.0157 -0.2268
56449W        W99387   0.177   1.462   7.866  0.1483 -0.3225  0.1505
56450W        W99388   2.198   0.013   8.539  0.3441 -0.0609 -0.1916
56451W        W99389   4.365   2.684   7.815 -0.4575  0.0202 -0.4154
56452W        W99390   0.159   0.806   7.944 -0.1295  0.5131 -0.1068
56453W        W99391   2.441  34.308   8.668  0.0641 -0.0568 -0.2184
56454W        W99392  34.329   3.836  10.814 -0.0499  0.0705 -0.1605
56455W        W99393   2.999   1.073   8.037 -0.1322  0.1894 -0.1565
56456W        W99394   1.037   1.205   8.717  0.1195  0.0394  0.1508
56457W        W99395   2.138   1.570   9.704  0.1013  0.3419 -0.0477
56458W        W99396   1.541  34.401   8.167 -0.0352  0.1051 -0.2069
56459W        W99397   1.388   0.975   9.607  0.1859  0.0161 -0.1161
56460W        W99398   3.693   3.562   9.889 -0.3802 -0.0636  0.2761
56461W        W99399   1.630   1.904   7.935 -0.0051 -0.0291 -0.3661
56462W        W99400   1.676   3.659   9.568  0.0149  0.0917 -0.4167
56463W        W99401   1.199   3.491   9.597  0.1311 -0.0007 -0.1598
56464W        W99402   1.265   1.047   8.290 -0.3592 -0.0734  0.2470
56465W        W99403   0.600  34.502   8.025 -0.1014  0.0168  0.4041
56466W        W99404   2.542   2.549   9.119 -0.1378 -0.0525  0.1410
56467W        W99405   4.113   2.784   9.638 -0.2154 -0.1991  0.1688
56468W        W99406   3.552   0.905   9.919  0.0449 -0.0918  0.0347
56469W        W99407   2.010  34.384  10.256 -0.0281 -0.2588  0.0515
56470W        W99408   3.782   3.131   6.960  0.1359 -0.1311 -0.0708
56471W        W99409   2.076   2.248   8.095  0.0421  0.0794  0.1741
56472W        W99410   0.184   2.548   9.945 -0.0907 -0.2781  0.5865
56473W        W99411   1.600   2.955   8.407  0.0941  0.0772 -0.0715
56474W        W99412   2.567   1.899   9.828  0.0270  0.1035 -0.3450
56475W        W99413   0.692   3.294   9.591  0.3129  0.0430  0.3579
56476W        W99414   1.825   2.407   8.599 -0.1132  0.1012  0.0347
56477W        W99415  34.303   3.093  10.773  0.0544  0.0519  0.0892
56478W        W99416   1.809   0.339   8.365 -0.0723  0.1108 -0.0658
56479W        W99417   2.543   2.494   8.085  0.3303  0.0855 -0.3094
56480W        W99418   2.137   1.195   8.469 -0.0022  0.2699  0.0984
56481W        W99419   3.134   2.487   9.084 -0.1425  0.4631  0.3038
56482W        W99420   0.374  34.168   9.018 -0.2807 -0.0253 -0.3905
56483W        W99421   3.540   1.849   8.577  0.0862 -0.2466  0.0536
56484W        W99422   2.283  34.421   7.650  0.3212 -0.0694 -0.1050
56485W        W99423   1.161   0.176   8.832  0.1344 -0.1685  0.2605
56486W        W99424   3.287   2.941   9.968 -0.0452 -0.0439  0.1272
56487W        W99425   4.395   1.741   7.527 -0.0634  0.3590  0.1425
56488W        W99426   2.403   1.823   8.886  0.0144  0.0905 -0.2038
56489W        W99427   2.255   0.105   9.875 -0.0498 -0.3047 -0.3833
56490W        W99428  34.496   3.435  10.456  0.1759  0.2739  0.0830
56491W        W99429   3.116   2.173   8.497 -0.0393 -0.2603 -0.2754
56492W        W99430   1.713   1.348   9.449  0.3384 -0.1381 -0.3854
56493W        W99431   0.454   2.414   8.562  0.1280 -0.1285  0.0646
56494W        W99432   2.405   0.883   8.729 -0.6170 -0.5862 -0.3007
56495W        W99433   1.547   0.174   7.919  0.3982 -0.2141  0.1167
56496W        W99434   2.334   3.442   9.803  0.3041 -0.2213  0.2110
56497W        W99435   3.188   1.753   6.819  0.0277 -0.1706  0.2879
56498W        W99436   0.663  33.367   9.908 -0.1018  0.0790 -0.2320
56499W        W99437   3.462   1.089   8.135 -0.1423 -0.1411 -0.0706
56500W        W99438   2.547   0.612   7.266  0.1637 -0.2449  0.2156
56501W        W99439   1.771   0.723   9.273 -0.1791  0.0573 -0.1950
56502W        W99440   1.109   0.480   7.932 -0.3509 -0.0811 -0.1083
56503W        W99441   1.738   4.156   8.200  0.0854 -0.1128 -0.1058
56504W        W99442   2.908   2.937   9.068  0.3318 -0.1973  0.1807
56505W        W99443   1.462  34.338  10.410 -0.2487 -0.1726 -0.3540
56506W        W99444   0.510  34.141   8.366  0.2332  0.1109  0.0850
56507W        W99445   0.286   1.217   6.815  0.0130 -0.0530  0.3840
56508W        W99446   1.812   1.190   8.067 -0.0135 -0.2148 -0.0330
56509W        W99447   2.732   3.572   9.432 -0.1858  0.2084  0.1592
56510W        W99448   1.414  34.672   6.717 -0.0432  0.0434 -0.0433
56511W        W99449  34.303   2.701   9.759 -0.0662 -0.2573 -0.0719
56512W        W99450   1.520  34.306   8.886  0.0938  0.4519  0.2910
56513W        W99451   0.546   4.604  10.296  0.3877 -0.0320  0.2475
56514W        W99452   2.083   2.096   9.768  0.1408 -0.0117  0.1840
56515W        W99453   2.507   1.499  10.165 -0.2049 -0.1768  0.2389
56516W        W99454   3.928   1.995   8.237 -0.1649  0.0327  0.0204
56517W        W99455   2.343   2.164  10.264 -0.1602  0.1269  0.4625
56518W        W99456   1.500   2.996   9.652  0.2853 -0.0465  0.2531
56519W        W99457   4.680   1.869   8.187  0.1635 -0.1691  0.0468
56520W        W99458   0.888   2.493   8.773  0.1361  0.1621 -0.2998
56521W        W99459   2.362   2.401   8.621 -0.0202  0.1701  0.0607
56522W        W99460   1.211  34.292   8.519  0.1878 -0.0173 -0.1620
56523W        W99461   2.733   3.285   7.692  0.1447 -0.4456  0.0826
56524W        W99462   2.750   4.222   9.926  0.1278 -0.0716  0.0300
56525W        W99463   0.930   3.680   7.691 -0.2130  0.3091  0.2610
56526W        W99464   2.876   1.964   7.496  0.0989 -0.1773  0.0211
56527W        W99465   1.648   0.798   6.950 -0.3247  0.0806 -0.0221
56528W        W99466   2.047   4.270   8.598  0.1780  0.2966 -0.0918
56529W        W99467   0.804   1.200   6.571  0.0644 -0.0980  0.1790
56530W        W99468   0.529   3.544   8.815 -0.1861 -0.3690  0.1848
56531W        W99469   0.175   2.008   8.353  0.0971 -0.0946  0.0323
56532W        W99470   3.383   3.627   8.270  0.2836 -0.0541  0.1381
56533W        W99471   1.324   5.332  10.398  0.0107 -0.1117 -0.1819
56534W        W99472   3.336   1.269   6.863 -0.4947  0.2744  0.0638
56535W        W99473   3.516   1.203   9.128 -0.1139  0.2494 -0.4101
56536W        W99474   4.214   0.795   9.298 -0.2186  0.1511  0.0338
56537W        W99475   2.477   2.000   9.317  0.0696 -0.4453  0.2054
56538W        W99476   1.793  33.715   6.499  0.2694 -0.4565  0.0320
56539W        W99477   3.653   3.051   8.469  0.0402 -0.0461 -0.0487
56540W        W99478   1.474   1.544   8.998  0.1297 -0.1046 -0.0184
56541W        W99479   1.757   2.289  10.042  0.0607 -0.0730 -0.0084
56542W        W99480   6.202  33.889   9.317 -0.1638 -0.2801 -0.5216
56543W        W99481   1.929   2.042   7.534  0.1504 -0.1079  0.0047
56544W        W99482   1.757  33.637   8.384 -0.1542 -0.2500 -0.0886
56545W        W99483   0.321   2.521   9.091  0.0122 -0.2757  0.1732
56546W        W99484   0.979   2.863  10.759 -0.0843  0.0738 -0.1393
56547W        W99485   1.608   1.833   8.499  0.5558 -0.0406 -0.4621
56548W        W99486   0.463  33.664   9.491 -0.0908  0.3356  0.1097
56549W        W99487   4.190   1.392   9.201 -0.0489  0.1386 -0.0178
56550W        W99488   1.924   2.706   9.749  0.0213  0.5107  0.2867
56551W        W99489   2.031   1.080   9.010 -0.4254  0.3465 -0.1373
56552W        W99490   3.259   0.862   8.747 -0.3434  0.2730  0.2994
56553W        W99491   4.216   1.678  10.260 -0.0154 -0.0758 -0.1328
56554W        W99492   1.592   0.552   9.885  0.0924  0.1165 -0.0026
56555W        W99493   2.142   0.748   6.905 -0.0191  0.0414 -0.1621
56556W        W99494   2.111   1.578   7.447  0.2774  0.1973  0.1150
56557W        W99495   1.476  33.929   9.680  0.2441 -0.0997 -0.0974
56558W        W99496   2.384   0.211   7.525  0.0947 -0.2205  0.2050
56559W        W99497   1.369   1.108   7.805  0.0517 -0.1364  0.0609
56560W        W99498   3.211   1.077  10.365  0.0223  0.1753  0.0572
56561W        W99499   1.079  33.758   9.143  0.1750  0.0036  0.0032
56562W        W99500   4.847   3.221   6.328  0.2315  0.0408 -0.2818
56563W        W99501   1.507   2.783  10.203  0.2295 -0.0557 -0.4011
56564W        W99502   1.670   4.612   8.881 -0.1258 -0.0988  0.1092
56565W        W99503   2.848   2.267  10.010 -0.0674 -0.2531  0.2964
56566W        W99504   2.944   2.287   9.497  0.0087  0.1303  0.0278
56567W        W99505   1.598   1.892   9.654 -0.1537 -0.1361  0.1863
56568W        W99506   3.117   5.050   9.870 -0.1263  0.2041  0.0243
56569W        W99507   3.606   2.596   9.853 -0.0054  0.2059 -0.0077
56570W        W99508   2.817  34.190   7.693 -0.2192 -0.1759  0.0107
56571W        W99509   1.890   0.275  10.228  0.0588 -0.2480 -0.2430
56572W        W99510   0.572   2.723   9.541 -0.3026 -0.1353  0.2425
56573W        W99511   2.448   1.367   9.277  0.2496  0.1164 -0.0937
56574W        W99512   2.346   3.029   7.925 -0.0987  0.0042 -0.0709
56575W        W99513   2.773   3.225   9.864  0.1250 -0.0349 -0.1443
56576W        W99514   0.783   0.403   8.262 -0.1460 -0.0877 -0.1278
56577W        W99515   2.475   1.820   7.825 -0.0119 -0.0921  0.0939
56578W        W99516   1.618   3.210   9.200  0.3795 -0.2798 -0.1833
56579W        W99517   3.064   4.261   9.075  0.0235  0.1323 -0.0152
56580W        W99518   2.887   2.105   8.940  0.2137 -0.1333  0.0563
56581W        W99519   4.694   1.796   8.903 -0.2650  0.0904  0.1378
56582W        W99520   1.990   1.774   9.270 -0.1942  0.4529 -0.0722
56583W        W99521   3.819   0.792   7.938 -0.1590 -0.2716  0.1615
56584W        W99522   3.682   0.382   8.207  0.2075 -0.2041 -0.1276
56585W        W99523   2.773   1.452   9.679 -0.2804  0.1205  0.0894
56586W        W99524   0.903   1.827   7.240  0.1914  0.3484  0.0509
56587W        W99525   1.066   2.486   7.736  0.3395 -0.1482 -0.2319
56588W        W99526   1.018   2.434   9.386  0.1080  0.1903  0.0469
56589W        W99527   1.987   1.549   8.791  0.0572  0.1631 -0.1649
56590W        W99528   0.139  33.291   9.764 -0.3846 -0.2114 -0.3160
56591W        W99529   2.542   2.839   8.418  0.1170  0.1251  0.2542
56592W        W99530   0.038   0.017   9.940 -0.1033 -0.0055  0.0195
56593W        W99531   0.762   0.426   8.763  0.2336  0.1536  0.2995
56594W        W99532   3.211   3.494   9.863 -0.4144  0.2499  0.0438
56595W        W99533   2.346   3.964   9.568 -0.1627  0.0389  0.1648
56596W        W99534   0.959  34.317   7.589 -0.1815 -0.1538 -0.0782
56597W        W99535   1.993   1.646   8.130 -0.1114  0.2649  0.0138
56598W        W99536   1.509  34.616   7.230 -0.0928  0.1792 -0.1852
56599W        W99537   2.739  33.364   9.455 -0.0344 -0.1541  0.1516
56600W        W99538   2.059   2.806   8.238 -0.0138 -0.0145 -0.6851
56601W        W99539   3.607   3.155   6.411  0.0589 -0.0037 -0.1238
56602W        W99540   1.723   0.039   8.725 -0.0603  0.0725  0.0401
56603W        W99541   3.943   2.431   7.977 -0.2252 -0.2448 -0.0829
56604W        W99542   3.614   2.348   8.405  0.2262 -0.0492 -0.1329
56605W        W99543   4.037   0.049   8.060  0.1039 -0.0020 -0.2650
56606W        W99544   3.012   1.921   8.043  0.0006 -0.1658 -0.2794
56607W        W99545   3.751   2.282  10.591 -0.1109  0.2480  0.4607
56608W        W99546   1.268  33.938   7.695  0.0088 -0.2521 -0.0489
56609W        W99547   3.028   1.436   7.218  0.3768  0.0474  0.0195
56610W        W99548   1.758   2.802   8.894 -0.0585  0.1604  0.1108
56611W        W99549   1.378   2.490   8.850 -0.0748  0.1258 -0.0637
56612W        W99550   1.571   0.601   7.488  0.2450 -0.2648 -0.1245
56613W        W99551   2.553   2.052   8.380 -0.0810 -0.3657  0.0969
56614W        W99552   0.883   0.913   8.033  0.0433  0.1166  0.0470
56615W        W99553   3.830   3.426   8.093 -0.3256  0.3744  0.0835
56616W        W99554   2.568   3.877  10.406  0.3542  0.1123 -0.2706
56617W        W99555   2.480   2.259  10.783 -0.2118  0.1746  0.0261
56618W        W99556   3.670   3.100   9.660  0.0054  0.0774 -0.3390
56619W        W99557  33.497  34.285   9.707  0.0364 -0.3057  0.2195
56620W        W99558   1.041   0.847   7.553 -0.1351  0.0641 -0.2169
56621W        W99559   2.148   3.081   8.826 -0.0820  0.1005  0.2286
56622W        W99560   2.441   0.313   8.939  0.3034  0.0665 -0.0911
56623W        W99561   2.438   0.672   9.967 -0.0184 -0.0968 -0.0865
56624W        W99562   1.292   0.432   7.039  0.1489 -0.4674 -0.0100
56625W        W99563   3.029   3.537  10.315 -0.2377 -0.3400  0.4422
56626W        W99564   2.066   2.365   9.037  0.2835 -0.0535 -0.1832
56627W        W99565   1.567   5.444   3.616 -0.1015 -0.0262 -0.1116
56628W        W99566   1.186   4.472   0.738 -0.0591  0.3623  0.2544
56629W        W99567   3.162   2.901  30.978  0.1652 -0.0820  0.0598
56630W        W99568   2.724   6.186   0.824  0.1224 -0.1824 -0.1607
56631W        W99569  33.498   3.762   1.484 -0.0019 -0.5961 -0.2692
56632W        W99570   3.730   6.045   1.059  0.4052 -0.0814 -0.0700
56633W        W99571   0.070   3.739   3.667 -0.2472 -0.0919  0.4015
56634W        W99572   1.909   5.552   1.867 -0.0865 -0.0372 -0.1382
56635W        W99573   2.049   6.979   3.328  0.1421 -0.0303  0.1419
56636W        W99574   2.260   2.085  31.950  0.0385 -0.0985  0.0930
56637W        W99575   2.264   4.057   2.828 -0.0600  0.3376  0.1101
56638W        W99576   1.014   6.953   2.677  0.0851 -0.2143  0.2159
56639W        W99577   1.626   3.177   0.164  0.0201  0.0413  0.2230
56640W        W99578  34.318   4.159   2.681 -0.3022  0.2144  0.4159
56641W        W99579   0.984   4.570   2.597  0.0555 -0.0920 -0.1728
56642W        W99580  34.031   4.508   2.384 -0.0090 -0.2422 -0.0726
56643W        W99581   0.442   4.187   2.228  0.0167 -0.1886  0.2454
56644W        W99582   2.022   2.398   0.305 -0.2781 -0.1741 -0.1141
56645W        W99583   3.020   5.734   0.408  0.0835 -0.0781  0.0127
56646W        W99584   0.637   4.992   2.680 -0.0486 -0.1685 -0.1056
56647W        W99585   1.798   2.255   3.618 -0.1501  0.0559 -0.1031
56648W        W99586   1.251   5.246  31.842 -0.1889 -0.0586  0.0757
56649W        W99587   0.266   4.406   0.373  0.1416  0.3268  0.0431
56650W        W99588  34.103   5.106   2.877  0.0980  0.1112  0.2026
56651W        W99589  34.462   6.064   3.007 -0.2348 -0.0055  0.0282
56652W        W99590   2.381   3.217   2.909  0.1307  0.2511  0.1912
56653W        W99591   3.195   5.735   0.932  0.1902 -0.2665 -0.2246
56654W        W99592   1.294   4.992   1.485 -0.0022 -0.0263  0.2731
56655W        W99593   3.494   5.432   0.292 -0.0844  0.2554  0.0326
56656W        W99594   1.216   4.623   3.609  0.3914  0.2465 -0.1212
56657W        W99595  34.460   5.228   1.226  0.1682  0.1281 -0.1411
56658W        W99596  33.958   6.447   2.336  0.0917 -0.1247  0.1436
56659W        W99597   1.071   5.574   1.507  0.0841  0.1473  0.0031
56660W        W99598   2.824   7.273   0.125  0.0501 -0.3743  0.1861
56661W        W99599   1.994   6.645   2.396  0.0279  0.0450 -0.0821
56662W        W99600   0.585   8.222   4.543  0.0036  0.2490  0.0216
56663W        W99601  33.673   8.293  31.351  0.1302  0.0846  0.3360
56664W        W99602   1.770   7.434   4.363 -0.1264 -0.2724 -0.0521
56665W        W99603  34.317   6.820   2.741  0.1519  0.1449 -0.0886
56666W        W99604   0.281   5.412   1.387  0.1731 -0.0468 -0.1601
56667W        W99605   1.560   4.802   0.849  0.1916 -0.2455 -0.2807
56668W        W99606   0.827   5.708   0.564  0.0253 -0.3456 -0.0114
56669W        W99607   2.625   7.221   2.061 -0.3810  0.1246  0.0006
56670W        W99608   1.155   6.144   3.279  0.3980 -0.3709  0.2426
56671W        W99609  34.689   6.033   1.644  0.0141  0.0972  0.0252
56672W        W99610   3.734   4.016   4.913  0.0074 -0.2718 -0.1278
56673W        W99611   0.770   6.705  30.684  0.0847 -0.1339  0.0444
56674W        W99612   3.100   5.426   1.347 -0.1438 -0.0220  0.1010
56675W        W99613  34.320   4.132   1.276 -0.0948 -0.0553  0.1935
56676W        W99614   2.330   5.141   0.949 -0.1309 -0.3889 -0.2572
56677W        W99615   1.652   2.079   0.135  0.0458  0.1959  0.3684
56678W        W99616   1.384   6.878   1.338  0.0590  0.0794 -0.1829
56679W        W99617   0.376   4.003   2.880  0.2685 -0.3073  0.0002
56680W        W99618   1.585   6.363   3.822  0.1994  0.1374  0.0837
56681W        W99619   1.364   5.736   0.801  0.4114 -0.0376  0.0927
56682W        W99620   0.108   4.336   1.296 -0.0690 -0.0659 -0.1754
56683W        W99621   0.076   6.426   2.076 -0.0094  0.0527 -0.0031
56684W        W99622   0.073   5.089   1.908 -0.0725 -0.0776 -0.0985
56685W        W99623   4.080   7.431   0.565  0.1931 -0.0771  0.3086
56686W        W99624   4.009   6.227   2.168 -0.0122  0.0839 -0.1849
56687W        W99625   2.282   6.610   0.350  0.0125  0.0186  0.0892
56688W        W99626   0.302   3.201  31.909 -0.2182  0.2221 -0.0912
56689W        W99627  34.410   5.947   4.037 -0.1687  0.0230  0.2874
56690W        W99628   0.841   5.972   2.899  0.0145  0.2045 -0.0811
56691W        W99629   2.369   2.426  31.499  0.0294 -0.2269  0.0254
56692W        W99630   4.071   5.797   2.694 -0.1324  0.1263  0.2801
56693W        W99631  34.171   4.533   3.812 -0.2551 -0.0994 -0.3072
56694W        W99632   2.825   4.514   1.068 -0.1492  0.0859 -0.1349
56695W        W99633   2.082   5.628   0.820  0.1601  0.2692 -0.0567
56696W        W99634   2.464   5.811   1.708  0.0741  0.1899 -0.2388
56697W        W99635   3.810   5.938   0.110  0.0993  0.3131 -0.1411
56698W        W99636   3.652   4.311   1.956  0.1630 -0.2732 -0.0911
56699W        W99637   3.648   4.142   2.468 -0.2565 -0.0407  0.0750
56700W        W99638   1.871   5.844  31.850 -0.0960 -0.0184  0.2621
56701W        W99639   1.544   5.472   1.373  0.1280 -0.1818  0.3075
56702W        W99640   2.005   6.786   3.758 -0.0302 -0.0481 -0.0195
56703W        W99641   3.093   5.407  31.354 -0.0962  0.0133  0.0979
56704W        W99642  34.216   6.037   2.467 -0.0490  0.3603 -0.1411
56705W        W99643   0.922   4.982   3.924 -0.1346  0.1840  0.4749
56706W        W99644   2.488   7.467   4.975 -0.0593  0.2345 -0.1034
56707W        W99645   0.752   6.748  31.682 -0.3121  0.0667  0.0026
56708W        W99646  34.383   6.758   2.234  0.0815 -0.1729 -0.0336
56709W        W99647  34.431   7.439   1.266 -0.0894 -0.1221  0.0053
56710W        W99648   0.475   3.502   3.625  0.1462 -0.0811 -0.0485
56711W        W99649   0.370   4.778   1.285 -0.1453  0.0329 -0.1848
56712W        W99650   2.472   5.837   0.285 -0.2668  0.2279  0.2280
56713W        W99651  33.362   5.103   5.648 -0.0758  0.1310  0.2315
56714W        W99652   3.034   5.804   3.037 -0.1676 -0.1195  0.1260
56715W        W99653  34.615   4.760   1.098 -0.1684 -0.2062 -0.0778
56716W        W99654   1.902   6.474   0.666 -0.4415 -0.1582 -0.0906
56717W        W99655   2.117   4.119   1.265  0.0767 -0.2583 -0.4049
56718W        W99656   4.236   6.581   0.386 -0.3250  0.0785  0.0117
56719W        W99657  34.317   4.619   3.262 -0.0752 -0.2436 -0.0385
56720W        W99658   0.039   3.957   0.539 -0.1212  0.1175  0.2198
56721W        W99659   1.029   2.432   4.133 -0.1276  0.0139 -0.4291
56722W        W99660   0.102   4.890   2.619 -0.2614 -0.0049  0.1231
56723W        W99661   1.886   4.375   2.483 -0.0648 -0.0401  0.0011
56724W        W99662   1.055   3.632  31.587 -0.1228 -0.2098  0.0980
56725W        W99663   2.486   4.142   0.975  0.1361  0.1467 -0.0346
56726W        W99664   1.263   3.744  31.127  0.0974 -0.0854  0.2870
56727W        W99665  33.810   5.259   2.571 -0.0393  0.1240 -0.0364
56728W        W99666   2.777   4.114   2.534  0.1625 -0.4951  0.0042
56729W        W99667   3.397   6.391   2.312 -0.1175  0.1460  0.0675
56730W        W99668   1.551   5.118   3.270  0.1505  0.1961  0.3805
56731W        W99669   2.892   6.791   1.086  0.1283 -0.3085 -0.3452
56732W        W99670   0.465   4.495   2.710 -0.0915  0.1582  0.1451
56733W        W99671   0.938   3.555  30.742  0.0367  0.1523 -0.0346
56734W        W99672   1.203   6.221   0.674  0.3738 -0.0588 -0.3648
56735W        W99673   0.874   6.014   1.580  0.0309  0.1590  0.2160
56736W        W99674   0.885   4.548  31.671 -0.3003 -0.1289  0.2721
56737W        W99675   2.850   5.659   2.617  0.2396 -0.0690 -0.1749
56738W        W99676   2.236   6.089   0.705 -0.0266 -0.2356  0.0528
56739W        W99677  33.407   5.784   3.380 -0.0009  0.3239  0.0545
56740W        W99678   1.779   4.102   2.898 -0.1308  0.0779 -0.1672
56741W        W99679   1.365   5.290   1.853 -0.0270 -0.0232  0.0126
56742W        W99680   1.808   4.588   0.404 -0.0685  0.0906  0.1501
56743W        W99681   0.886   2.418  31.514 -0.1690 -0.0943  0.0500
56744W        W99682   1.419   7.768   0.543 -0.0725  0.2885  0.0588
56745W        W99683   1.157   4.921  31.417  0.1403 -0.1640 -0.0067
56746W        W99684  33.916   4.843   0.247 -0.3187  0.2957 -0.0723
56747W        W99685   1.993   6.413   1.144 -0.1600 -0.2420 -0.2303
56748W        W99686   2.204   4.937   2.059 -0.4097  0.1530 -0.2572
56749W        W99687  34.428   4.710   4.174  0.0857 -0.2639  0.0380
56750W        W99688   0.305   5.333   2.840 -0.0708 -0.0770  0.0232
56751W        W99689   0.620   3.167   0.351  0.1499  0.0284 -0.0209
56752W        W99690   0.373   7.478   5.516 -0.3006  0.1433  0.2212
56753W        W99691   2.887   4.069   1.448  0.1234  0.0689 -0.5411
56754W        W99692   4.524   3.827   1.136 -0.1465  0.0762 -0.0188
56755W        W99693   1.297   6.418   1.656 -0.2299  0.1538 -0.1173
56756W        W99694   3.362   6.056   1.901  0.1383 -0.0032  0.0807
56757W        W99695   3.540   4.472   0.468  0.4090 -0.1621  0.1150
56758W        W99696   2.583   3.336   0.620 -0.0117  0.1760  0.0426
56759W        W99697   0.930   6.458   4.585 -0.1922 -0.0409 -0.0148
56760W        W99698   2.555   5.902  31.762 -0.1140  0.0768 -0.1178
56761W        W99699   1.384   6.631   2.452 -0.0407  0.0692 -0.1407
56762W        W99700   1.990   4.092   0.728 -0.2293 -0.0453 -0.2503
56763W        W99701   3.130   6.354   0.980  0.2667  0.0196  0.0853
56764W        W99702   0.420   5.196   2.252  0.0522 -0.1187  0.2277
56765W        W99703   0.654   6.484   3.006 -0.0481 -0.0072 -0.0839
56766W        W99704   1.433   5.548   0.347  0.0942 -0.0548  0.1562
56767W        W99705   1.169   4.043   3.292  0.0389  0.0280  0.1695
56768W        W99706   1.472   5.569  31.200  0.2609  0.0193 -0.0006
56769W        W99707   1.234   4.777   2.099  0.0280  0.3864  0.1960
56770W        W99708   0.662   6.022   0.211 -0.0742 -0.0268  0.1395
56771W        W99709   2.809   3.205   1.503  0.5554 -0.0558 -0.3743
56772W        W99710   3.167   4.333   2.213 -0.2320  0.1720 -0.1972
56773W        W99711   0.921   3.440   3.880 -0.1118 -0.4270 -0.1223
56774W        W99712   0.890   5.702   3.496 -0.0827  0.2679  0.2822
56775W        W99713   0.921   4.791   1.106  0.1198  0.2463 -0.1753
56776W        W99714   1.441   5.899   1.637  0.0351 -0.1865 -0.4205
56777W        W99715   1.446   4.369   1.739 -0.2327 -0.1801 -0.0526
56778W        W99716   1.333   4.155   2.664 -0.1957 -0.1120 -0.0968
56779W        W99717   0.812   5.582   3.970  0.0336 -0.2428 -0.0176
56780W        W99718   0.459   6.836   4.424  0.2906  0.0031 -0.6818
56781W        W99719   1.319   5.943   3.827  0.2546 -0.0241  0.0107
56782W        W99720   1.195   5.224   2.395 -0.2111 -0.1166 -0.1011
56783W        W99721   1.248   4.569   3.106 -0.0220  0.0581 -0.2920
56784W        W99722   1.858   3.530   0.419 -0.0450  0.0944 -0.0750
56785W        W99723   2.820   6.764   0.133  0.2765  0.0776 -0.0904
56786W        W99724   0.178   4.821   0.617 -0.1879  0.0104  0.1322
56787W        W99725   0.807   5.964   2.401 -0.2868  0.1543  0.1218
56788W        W99726   1.530   6.428   1.125  0.3004 -0.0129 -0.0947
56789W        W99727   2.380   6.035  31.215  0.2712  0.0646 -0.1519
56790W        W99728   0.061   5.568   1.854 -0.0965  0.4034  0.1156
56791W        W99729   1.651   5.370   0.776 -0.0363 -0.0423 -0.2488
56792W        W99730   3.080   5.167   2.435 -0.0868 -0.0658 -0.1321
56793W        W99731   0.480   7.507   1.676 -0.3846  0.0491 -0.1565
56794W        W99732   2.039   4.400  31.894  0.0415 -0.4566  0.0637
56795W        W99733  33.698   5.940   2.242  0.3021  0.0762  0.2643
56796W        W99734   2.202   4.466   1.862  0.1610  0.4433  0.1307
56797W        W99735   4.619   5.981   1.238  0.1733  0.0896 -0.0519
56798W        W99736   0.808   4.410   4.005 -0.0213 -0.1871 -0.0620
56799W        W99737   0.674   3.848   1.833  0.1172 -0.1838 -0.2063
56800W        W99738  33.957   4.952   3.961  0.2702 -0.1702  0.2123
56801W        W99739   0.923   5.189   2.018  0.1893 -0.4022  0.1224
56802W        W99740   2.062   2.908   0.237 -0.2349  0.1830  0.1904
56803W        W99741   3.518   7.506   2.847  0.0607  0.0262  0.1541
56804W        W99742   1.369   6.119   2.177  0.2178 -0.1481 -0.2189
56805W        W99743   0.523   4.000   0.678 -0.3269 -0.3077  0.1838
56806W        W99744   0.834   4.271   3.008  0.1815  0.0804 -0.4102
56807W        W99745   1.394   3.510   0.612 -0.0012 -0.2591  0.1507
56808W        W99746   0.230   6.937   1.282  0.0763  0.1162  0.1004
56809W        W99747   1.613   7.417   0.999  0.3162  0.2743 -0.1063
56810W        W99748   1.066   5.457  31.459 -0.0721 -0.1132  0.1314
56811W        W99749   0.340   5.796   0.954 -0.1220 -0.1208 -0.1795
56812W        W99750  34.630   4.536   3.640 -0.2013 -0.0737 -0.3530
56813W        W99751   1.305   7.170   3.657  0.1031  0.2305 -0.2535
56814W        W99752   0.388   3.387   1.927  0.2617 -0.0693  0.1009
56815W        W99753   0.445   3.552   1.377 -0.1399  0.1251 -0.0231
56816W        W99754  34.291   5.026   2.402 -0.0300 -0.0857  0.3791
56817W        W99755   2.840   6.020   1.288 -0.1020  0.0115  0.1083
56818W        W99756   1.853   6.333   3.392 -0.0113 -0.2030 -0.1923
56819W        W99757   0.608   6.124   3.377 -0.0737  0.0263  0.0163
56820W        W99758   1.857   4.064   1.910  0.0782 -0.1062  0.2757
56821W        W99759   3.394   7.441   2.024 -0.2018 -0.0351 -0.2056
56822W        W99760   1.088   5.192   3.501 -0.2409  0.3831  0.1774
56823W        W99761   1.969   5.613   0.313  0.2499  0.0615 -0.1004
56824W        W99762  33.691   5.451   3.014 -0.0368 -0.0425  0.1369
56825W        W99763   2.857   5.950  31.334 -0.3871  0.3886 -0.0910
56826W        W99764   1.751   5.561   3.108 -0.2015 -0.0245 -0.3547
56827W        W99765  34.373   6.952   1.751  0.0215 -0.2075 -0.1503
56828W        W99766   0.694   6.197   0.925 -0.0655 -0.1301 -0.1751
56829W        W99767  33.965   6.707   3.878  0.2492  0.0334 -0.1418
56830W        W99768   4.426   3.348   0.056  0.1527  0.1192  0.1888
56831W        W99769   1.885   6.708   1.686  0.1481 -0.0520  0.0674
56832W        W99770   1.119   3.961   1.564 -0.2287  0.0270  0.1146
56833W        W99771   3.857   3.581   3.026 -0.1006  0.1838  0.0619
56834W        W99772   3.182   6.512   0.432 -0.1018  0.1262 -0.1150
56835W        W99773   3.914   3.284   4.029 -0.3410 -0.0690 -0.0659
56836W        W99774   0.826   4.331   3.518  0.0068 -0.0108  0.1039
56837W        W99775   2.621   5.410   3.089 -0.1502 -0.0558 -0.0121
56838W        W99776  33.880   5.055   3.324 -0.0887  0.0755  0.1659
56839W        W99777   1.832   6.533   4.232  0.2914 -0.1525  0.0558
56840W        W99778   0.789   6.498   4.060 -0.0559 -0.2308 -0.2833
56841W        W99779   1.870   5.105   1.733  0.0670  0.4260 -0.3369
56842W        W99780   1.309   2.118   0.537  0.4367  0.1952 -0.0591
56843W        W99781   0.374   6.159   2.523  0.0436 -0.0520  0.2304
56844W        W99782   2.765   6.175   1.812  0.0138  0.1110  0.3660
56845W        W99783   0.291   5.753   0.463 -0.0734  0.0429  0.2570
56846W        W99784   2.599   5.540   1.309  0.1047 -0.1797 -0.0050
56847W        W99785   0.254   6.158   2.993 -0.0643 -0.1269 -0.2186
56848W        W99786   2.639   4.932   0.636  0.2835  0.0953 -0.3385
56849W        W99787   2.950   6.271  31.809 -0.2829  0.2944  0.0770
56850W        W99788   0.341   6.408   0.493  0.0098  0.1439  0.1190
56851W        W99789   0.624   2.883   4.419 -0.1429  0.1409 -0.2144
56852W        W99790   2.036   5.418   1.363  0.0496  0.1839  0.2956
56853W        W99791   2.366   4.522   2.401  0.0173 -0.0822 -0.1885
56854W        W99792   1.226   3.751   2.434 -0.0063  0.0878  0.0677
56855W        W99793   0.595   5.566   1.823  0.0535  0.3331  0.0910
56856W        W99794   1.257   6.217   2.767 -0.3889  0.4005  0.0839
56857W        W99795   0.583   3.217   4.112 -0.1081 -0.1096  0.0229
56858W        W99796   2.773   6.214   2.440  0.0701 -0.1261 -0.0517
56859W        W99797   3.189   3.479  30.996 -0.0907 -0.0235 -0.1015
56860W        W99798   1.780   5.774   2.630 -0.1687 -0.0168 -0.0527
56861W        W99799   3.042   4.497   1.728  0.0509  0.0594  0.0736
56862W        W99800   1.731   5.340  31.980  0.2530 -0.3671 -0.1364
56863W        W99801   1.641   5.282   2.751 -0.1636 -0.0974  0.0412
56864W        W99802   2.980   5.504   3.468  0.4806 -0.0777 -0.3682
56865W        W99803   2.774   3.390  31.577  0.0408 -0.0303 -0.1563
56866W        W99804   1.653   4.571   3.395  0.0175  0.0064  0.2429
56867W        W99805   1.178   7.809   0.059  0.2045  0.0004  0.2676
56868W        W99806   2.056   4.624   1.022 -0.0855  0.0541  0.1106
56869W        W99807   2.514   4.426   1.444 -0.0419  0.0652 -0.1617
56870W        W99808  33.400   3.703   3.583  0.1013 -0.2045  0.0411
56871W        W99809   1.090   7.818   4.273  0.2203  0.1739 -0.0137
56872W        W99810   0.852   4.581  31.081  0.1998 -0.0383 -0.2834
56873W        W99811   2.161   5.112  31.530 -0.2452 -0.1882  0.0274
56874W        W99812   1.279   6.623   3.045 -0.0573 -0.0001  0.2421
56875W        W99813   2.969   5.992   3.506  0.0825 -0.2207 -0.0457
56876W        W99814   1.979   3.580   1.492  0.0426 -0.0257  0.0903
56877W        W99815   2.650   3.953   3.290 -0.4448  0.1324 -0.2361
56878W        W99816  33.752   6.336   1.883 -0.3591 -0.1832 -0.2942
56879W        W99817   2.311   3.281   1.318 -0.0650  0.2197  0.0306
56880W        W99818   2.492   6.451   1.182  0.0592 -0.1994  0.2609
56881W        W99819  34.650   5.442   4.055  0.0292 -0.1351  0.0335
56882W        W99820   0.253   6.370   1.203 -0.1047  0.2009  0.1881
56883W        W99821   2.697   3.742   2.811 -0.5368  0.2333 -0.0798
56884W        W99822   2.413   5.286   1.717 -0.0643 -0.1650  0.3531
56885W        W99823   1.297   4.516   1.244  0.0209 -0.1920 -0.0013
56886W        W99824   3.475   4.903   3.315 -0.0098  0.1609  0.3586
56887W        W99825   0.912   7.493   2.463 -0.1252 -0.1127 -0.2617
56888W        W99826   0.821   5.139   1.491  0.4208 -0.1695  0.1931
56889W        W99827   1.153   7.792   3.095  0.1000 -0.1043  0.2752
56890W        W99828   2.978   5.748   1.723  0.1161  0.2842 -0.2296
56891W        W99829   0.412   5.945   1.396 -0.0545 -0.0109  0.1270
56892W        W99830  33.856   3.343   3.838  0.1120  0.0520 -0.1119
56893W        W99831   0.539   5.880   4.247 -0.0494 -0.2599  0.1897
56894W        W99832   0.532   6.418   1.681 -0.0928  0.5613  0.1212
56895W        W99833  34.688   2.672   2.793 -0.1451 -0.2327 -0.1297
56896W        W99834   0.582   7.282   0.032  0.2392 -0.0173 -0.0925
56897W        W99835   0.765   6.031   3.818 -0.0193 -0.0253 -0.1148
56898W        W99836   0.425   6.019   2.001  0.0945 -0.1518 -0.0167
56899W        W99837   0.585   6.750   0.906  0.2922  0.0966 -0.0927
56900W        W99838   1.945   5.065   0.459 -0.1116 -0.2072  0.1144
56901W        W99839   1.721   5.062   1.203  0.2653  0.0941 -0.4118
56902W        W99840   2.543   7.178   0.957  0.0350 -0.1011 -0.2714
56903W        W99841   1.604   3.643  31.475 -0.0711  0.0048 -0.1160
56904W        W99842   0.626   7.174   2.007 -0.3086  0.0468 -0.0750
56905W        W99843   0.294   5.226   0.271  0.0554 -0.2604 -0.1012
56906W        W99844   2.656   6.429  31.367 -0.1008 -0.1011  0.1346
56907W        W99845   0.823   5.627   1.125  0.1691 -0.3671  0.3682
56908W        W99846   2.523   5.718   3.428 -0.2142 -0.3879  0.1456
56909W        W99847   2.631   5.115   2.152  0.1654 -0.3450  0.0045
56910W        W99848   4.478   4.727   2.951 -0.3299 -0.0743  0.1262
56911W        W99849   4.033   4.299  31.864 -0.0565 -0.1627 -0.0354
56912W        W99850   2.562   7.453   2.820 -0.1310 -0.0893  0.2907
56913W        W99851   0.439   4.460   0.868 -0.2541  0.0829 -0.1969
56914W        W99852   1.731   3.740   0.936 -0.1701 -0.3287  0.1082
56915W        W99853   1.781   4.857   4.281 -0.0859 -0.2639 -0.0496
56916W        W99854   3.647   3.264   3.297  0.0080  0.0308 -0.2017
56917W        W99855   1.029   6.468   3.622  0.1118  0.1793 -0.0463
56918W        W99856   2.205   7.230   1.770 -0.1680 -0.0575 -0.1121
56919W        W99857  34.227   4.523   1.543 -0.1091 -0.0550 -0.0158
56920W        W99858  34.322   5.609   1.608  0.2064 -0.1459  0.0737
56921W        W99859   2.975   4.569   3.284  0.3681  0.1968  0.0796
56922W        W99860   2.488   7.052  31.743 -0.3421 -0.0998 -0.1113
56923W        W99861   1.916   6.023   1.578  0.1386 -0.0431  0.0575
56924W        W99862   1.740   5.957   1.119  0.4601 -0.0232  0.3421
56925W        W99863   0.583   6.671   2.156  0.3809 -0.2906  0.2337
56926W        W99864   2.107   5.876   2.155  0.2334 -0.1798 -0.1238
56927W        W99865  34.302   5.244   0.315  0.0169  0.1836 -0.3054
56928W        W99866   2.683   4.909   1.306  0.0715 -0.2184 -0.0773
56929W        W99867   2.048   5.422   3.459  0.0347 -0.0250 -0.3104
56930W        W99868   3.175   2.988   1.892  0.0140 -0.2738  0.1071
56931W        W99869   0.556   4.074   1.339 -0.2356 -0.3505  0.0725
56932W        W99870   0.959   3.951   0.400  0.2187 -0.1977 -0.0348
56933W        W99871   0.905   6.503   2.520  0.2260 -0.3000 -0.1510
56934W        W99872  33.991   6.432   2.802 -0.0389  0.0253  0.1311
56935W        W99873   1.897   4.899  31.889 -0.1798  0.0116  0.1106
56936W        W99874   2.986   5.038   3.401 -0.0960 -0.2793  0.0061
56937W        W99875   2.943   5.515  30.484 -0.0410  0.1357  0.0815
56938W        W99876   1.828   7.460   3.529 -0.1939 -0.0037 -0.2314
56939W        W99877   0.251   4.710   2.150 -0.2361 -0.1842 -0.1365
56940W        W99878   3.345   4.483   1.322  0.0962  0.0717  0.0298
56941W        W99879   2.342   6.453   1.655  0.2082 -0.2871 -0.0444
56942W        W99880   0.845   4.088   2.560 -0.5224 -0.0871  0.1387
56943W        W99881   3.367   7.773   3.747  0.2546  0.0128  0.0933
56944W        W99882   0.193   3.458   0.333  0.0362 -0.0717 -0.1225
56945W        W99883   4.556   6.931  31.469  0.2573  0.0344 -0.0824
56946W        W99884   3.846   4.747   3.628  0.3291  0.0109 -0.1660
56947W        W99885   1.352   6.909  30.682 -0.2334 -0.2059 -0.0825
56948W        W99886   2.453   7.097   0.444  0.1490 -0.1628  0.2385
56949W        W99887   3.595   6.536   2.735 -0.0039 -0.2581  0.1720
56950W        W99888   0.014   4.409   2.928 -0.1583 -0.0537  0.0162
56951W        W99889   1.794   7.062   2.222 -0.3332 -0.2059 -0.0483
56952W        W99890   1.561   5.611   2.191 -0.0597  0.1087 -0.0989
56953W        W99891   2.250   4.875   1.461  0.0217 -0.2016 -0.3620
56954W        W99892  34.196   4.063   3.152 -0.2952 -0.0314  0.0051
56955W        W99893  34.607   7.263   0.527  0.3422  0.1056  0.0611
56956W        W99894   2.542   4.385   3.130  0.1745 -0.0191  0.0448
56957W        W99895   3.114   4.061   3.201  0.0119 -0.0813 -0.1246
56958W        W99896   0.906   5.430   0.116  0.3229 -0.0424 -0.0113
56959W        W99897   2.070   5.397   2.401  0.3541 -0.0241  0.2293
56960W        W99898   1.259   7.859   2.594 -0.1446  0.0464 -0.2903
56961W        W99899   0.408   7.450   2.851 -0.0370  0.3815  0.0370
56962W        W99900   0.309   6.018  31.656 -0.1538 -0.3105  0.3664
56963W        W99901   0.899   4.125   0.977 -0.1352 -0.2054 -0.0321
56964W        W99902   1.480   4.976   0.269  0.0176 -0.0878  0.0592
56965W        W99903   1.160   6.027   1.155  0.2996 -0.1286  0.0010
56966W        W99904   4.027   7.406   2.794  0.0511 -0.2137 -0.2266
56967W        W99905   1.410   4.024   0.627 -0.3336 -0.0641  0.0345
56968W        W99906   2.345   5.693   2.681  0.3396  0.1156  0.1664
56969W        W99907   2.199   4.018   2.269 -0.0295  0.0433 -0.2017
56970W        W99908   3.528   4.755   1.740  0.0668  0.0780  0.0952
56971W        W99909   3.758   4.294   0.994  0.2669  0.1593 -0.0822
56972W        W99910   1.071   7.223   1.698 -0.2582  0.0344 -0.0410
56973W        W99911  33.698   5.911   1.316  0.2723 -0.0835 -0.1512
56974W        W99912   1.171   5.975   0.263  0.0840 -0.0016  0.2954
56975W        W99913  33.182   4.708   2.683 -0.0744 -0.0657 -0.0247
56976W        W99914   1.268   2.425   2.729  0.2970  0.2099  0.1685
56977W        W99915   0.484   4.706   3.625 -0.0646 -0.0239  0.3000
56978W        W99916  33.301   5.239   3.283 -0.1147 -0.0032  0.2849
56979W        W99917   0.816   3.534   0.815  0.0355  0.0972 -0.2126
56980W        W99918   4.329   5.206   0.598  0.1805 -0.0550 -0.1485
56981W        W99919   0.986   4.173   2.084  0.1092  0.1178  0.1377
56982W        W99920  33.711   3.488   2.848 -0.0608  0.1322 -0.1111
56983W        W99921   2.981   7.120   0.627 -0.0428 -0.0240  0.0436
56984W        W99922   4.570   5.984  31.594 -0.3076 -0.1951  0.1993
56985W        W99923   1.480   3.768   1.958  0.0945  0.3762 -0.3044
56986W        W99924   2.563   6.234   3.382  0.2279  0.0801  0.0798
56987W        W99925   1.252   6.650  31.968 -0.0885 -0.0917 -0.0666
56988W        W99926   2.016   4.418   3.720  0.1407 -0.0565  0.3309
56989W        W99927   1.385   3.579   3.752  0.1023  0.2444 -0.0516
56990W        W99928   0.718   3.325  31.709  0.0328 -0.0047 -0.2278
56991W        W99929   1.232   5.307   1.081 -0.1337  0.2816  0.0557
56992W        W99930   2.631   6.666   0.698 -0.0224 -0.2019  0.1897
56993W        W99931   1.627   7.341   0.442  0.1173 -0.2059 -0.2606
56994W        W99932   0.905   6.265   2.034  0.1037 -0.4633  0.1223
56995W        W99933   2.279   6.750   2.033 -0.1484  0.0057  0.0008
56996W        W99934   0.829   3.387   3.258 -0.0371  0.1670  0.3101
56997W        W99935   2.370   4.968   0.163 -0.0416 -0.0333 -0.2920
56998W        W99936   2.093   6.546   3.026 -0.2379  0.0670  0.2657
56999W        W99937   3.924   6.152   0.582  0.3480 -0.0278 -0.1321
57000W        W99938   3.891   4.142   3.540  0.1633  0.0617  0.0585
57001W        W99939   2.255   5.435  31.891 -0.0568  0.0122  0.1682
57002W        W99940   0.563   3.041   3.497 -0.0514  0.0378  0.1726
57003W        W99941   0.567   5.175   3.524  0.2294  0.0252  0.0156
57004W        W99942   1.827   6.325   1.978  0.3358  0.0351 -0.0923
57005W        W99943  34.510   3.392   1.908 -0.1300 -0.1084  0.1718
57006W        W99944   2.880   5.310   0.946 -0.3620 -0.1470  0.3544
57007W        W99945   4.170   6.210  31.866 -0.0493 -0.0365 -0.1729
57008W        W99946  34.274   5.437   2.087  0.2074 -0.2261  0.0098
57009W        W99947   2.620   4.190   1.982  0.2788  0.0390  0.1269
57010W        W99948   1.248   5.652   3.097  0.5022  0.0224  0.0369
57011W        W99949   2.399   6.890   1.405  0.1467 -0.0807 -0.1383
57012W        W99950   0.292   6.643   3.974 -0.0663  0.1651 -0.3055
57013W        W99951   0.834   4.430   0.313 -0.0415  0.0527  0.2959
57014W        W99952   4.360   5.078   1.419  0.2714 -0.1630 -0.3569
57015W        W99953   1.334   7.612   3.519  0.0347  0.1613 -0.0192
57016W        W99954   2.521   8.181   2.489  0.3334  0.1433 -0.0436
57017W        W99955   2.816   6.893   1.702 -0.1156  0.3856  0.0943
57018W        W99956   2.148   6.143   2.672  0.1858  0.1518 -0.0282
57019W        W99957   1.243   5.771   2.514 -0.2131  0.0752 -0.0653
57020W        W99958   1.606   4.239   1.057  0.1623 -0.2789 -0.1180
57021W        W99959   2.970   6.460   1.423 -0.0017 -0.1516  0.1705
57022W        W99960   1.718   4.694   2.077  0.0981 -0.2093  0.3183
57023W        W99961   0.386   4.297   1.742 -0.2228  0.0690 -0.0374
57024W        W99962   3.092   3.284   0.040  0.1359  0.2665  0.3109
57025W        W99963   1.773   8.119   1.798  0.0303 -0.3445  0.0216
57026W        W99964   3.155   6.485   1.857  0.2453 -0.1649  0.1361
57027W        W99965   1.449   5.667   7.602  0.0137  0.2364 -0.1171
57028W        W99966  34.361   3.554   5.099  0.2966 -0.0852  0.0088
57029W        W99967   3.201   4.028   4.637 -0.1116  0.1208 -0.3681
57030W        W99968   3.843   4.809   4.495 -0.0693 -0.2949 -0.0857
57031W        W99969   0.147   5.390   5.739 -0.1611 -0.1674 -0.0679
57032W        W99970   1.708   6.316   2.640 -0.1587 -0.1679 -0.0861
57033W        W99971   1.285   4.790   7.722  0.0442 -0.2035 -0.1631
57034W        W99972   2.431   5.476   6.515  0.1891 -0.0267  0.1550
57035W        W99973   3.827   8.107   6.587 -0.0417  0.1492  0.1915
57036W        W99974   3.828   5.103   3.975 -0.3200  0.0072  0.0476
57037W        W99975   0.401   5.218   5.380 -0.0944 -0.0930  0.1871
57038W        W99976   1.549   7.087   5.424  0.0802  0.0297 -0.0652
57039W        W99977   3.552   3.130   5.031 -0.3061 -0.0066 -0.0656
57040W        W99978   1.009   3.083   6.084  0.1097  0.2543 -0.3997
57041W        W99979   2.616   5.601   7.211 -0.1451  0.1019  0.0578
57042W        W99980   0.050   6.040   4.374 -0.2201 -0.0528 -0.1879
57043W        W99981   2.301   3.813   6.388 -0.2423 -0.4157 -0.2266
57044W        W99982   1.911   5.249   3.998  0.1068 -0.1242 -0.0750
57045W        W99983   3.147   5.894   4.384 -0.1647  0.0270  0.0863
57046W        W99984   0.271   5.712   7.411  0.0971 -0.0043 -0.0489
57047W        W99985   1.609   4.340   6.949 -0.0667  0.3672  0.1669
57048W        W99986   1.265   7.452   5.765  0.0974  0.2414  0.0184
57049W        W99987   0.308   5.005   4.914 -0.0614 -0.1448  0.3057
57050W        W99988   0.218   4.261   6.495 -0.0499  0.1610 -0.5218
57051W        W99989   0.383   4.915   7.071 -0.0243  0.2284  0.2235
57052W        W99990   2.369   4.250   6.214  0.0688  0.0205 -0.0804
57053W        W99991   2.050   5.004   7.767  0.0851 -0.1062 -0.1710
57054W        W99992   2.498   5.671   5.970 -0.0836 -0.3228 -0.2063
57055W        W99993   2.229   7.211   6.971  0.0342  0.0223  0.0235
57056W        W99994   3.372   6.199   7.933  0.2425  0.0405  0.2471
57057W        W99995   1.085   5.500   5.817  0.1615 -0.1245 -0.0427
57058W        W99996   1.117   6.844   5.295  0.1756  0.1908 -0.0596
57059W        W99997   2.141   5.697   4.650  0.2568 -0.0339 -0.0354
57060W        W99998   3.767   7.049   6.309 -0.0327  0.0435  0.1180
57061W        W99999   4.120   5.844   6.875  0.2698  0.0502  0.0541
57062W        W    0   1.652   7.722   8.034 -0.2317 -0.1685 -0.2296
57063W        W    1   0.102   4.999   4.407 -0.3599 -0.0166 -0.0470
57064W        W    2   1.362   7.576   7.585 -0.2399  0.2227  0.3869
57065W        W    3   0.747   7.799   7.716 -0.2807 -0.0064  0.5082
57066W        W    4   2.132   5.101   6.698 -0.2607 -0.2491 -0.1094
57067W        W    5   2.425   4.228   4.864  0.0515 -0.4484 -0.0129
57068W        W    6   0.993   6.066   4.270 -0.0272  0.0812  0.4253
57069W        W    7   2.749   5.427   5.570  0.1608 -0.1590  0.2614
57070W        W    8   0.864   6.418   7.308 -0.2985 -0.0065  0.2368
57071W        W    9   0.168   5.514   4.494 -0.2251 -0.1655  0.0321
57072W        W   10   3.250   4.720   7.992  0.3008 -0.2149 -0.0643
57073W        W   11  34.397   7.099   6.073 -0.0018 -0.1272 -0.2032
57074W        W   12   2.292   5.200   4.347 -0.0867 -0.1963 -0.1318
57075W        W   13   1.231   4.175   3.885  0.0896  0.2676 -0.0108
57076W        W   14   3.007   3.694   5.923  0.3724  0.1183 -0.0783
57077W        W   15   2.836   3.690   5.416  0.1351  0.1569  0.3445
57078W        W   16   1.312   5.655   4.435  0.2442  0.0172 -0.0703
57079W        W   17   0.625   4.157   6.817  0.4453  0.2413  0.1441
57080W        W   18   5.333   4.971   6.337 -0.0321  0.0127  0.4035
57081W        W   19   1.632   4.477   4.009  0.0870 -0.0036 -0.0798
57082W        W   20   1.248   4.984   7.205  0.1790  0.0898  0.0416
57083W        W   21   1.343   6.679   6.582 -0.0699 -0.1763  0.0634
57084W        W   22   0.797   5.125   5.607  0.0952  0.0326  0.2459
57085W        W   23   1.736   5.713   4.102 -0.2458 -0.0933  0.1828
57086W        W   24   3.073   4.912   4.628 -0.2105  0.0106 -0.1199
57087W        W   25   3.029   6.820   3.191 -0.1549  0.0024  0.2250
57088W        W   26  33.927   4.504   5.292  0.0680  0.1305  0.1545
57089W        W   27   0.383   6.192   7.123 -0.2188  0.0405  0.0411
57090W        W   28  33.841   5.473   6.860 -0.1258 -0.0499 -0.0005
57091W        W   29   0.098   2.943   3.210 -0.0411  0.2433 -0.0441
57092W        W   30   4.319   5.580   7.677 -0.0551  0.0144  0.0260
57093W        W   31  34.536   6.535   5.693  0.0009 -0.2432 -0.0129
57094W        W   32   3.018   4.187   5.515  0.4800 -0.0186 -0.0593
57095W        W   33   1.160   5.872   5.359 -0.1648 -0.0123 -0.0271
57096W        W   34   3.564   5.228   5.456 -0.0506 -0.1485  0.1181
57097W        W   35   1.590   6.027   3.119 -0.3581  0.0322  0.1676
57098W        W   36   3.710   3.978   6.026  0.2509  0.1064 -0.0199
57099W        W   37   1.801   3.045   7.870 -0.2162 -0.0124  0.1183
57100W        W   38  33.991   6.171   3.888  0.1962 -0.1172 -0.4008
57101W        W   39   1.248   4.995   2.770 -0.1184 -0.0791  0.1234
57102W        W   40   4.143   5.442   7.232 -0.1233 -0.0394 -0.1906
57103W        W   41   2.437   4.887   3.249  0.1944  0.1220 -0.4384
57104W        W   42   0.777   5.789   6.354 -0.0794 -0.3457  0.1039
57105W        W   43   2.315   3.936   7.791 -0.0394 -0.1487  0.0289
57106W        W   44   1.741   6.048   7.694 -0.1614  0.0216  0.2117
57107W        W   45   0.291   6.884   5.584 -0.0979 -0.0287  0.1364
57108W        W   46   0.116   4.372   5.007 -0.1649 -0.0139 -0.6081
57109W        W   47  34.432   6.542   4.031 -0.2690 -0.0389  0.2251
57110W        W   48  34.637   3.470   6.722 -0.0366  0.0487  0.2112
57111W        W   49  34.483   5.506   7.588 -0.0860 -0.0234 -0.0272
57112W        W   50   3.154   4.639   4.218  0.0827 -0.0308 -0.0632
57113W        W   51  34.580   5.536   7.083 -0.1399 -0.0680  0.0220
57114W        W   52   2.387   3.417   4.489  0.0318  0.2359 -0.2047
57115W        W   53   1.379   5.645   4.968  0.1774 -0.3610 -0.0445
57116W        W   54   2.699   6.335   4.890  0.2890 -0.1342  0.2066
57117W        W   55   2.516   4.283   3.600  0.0749 -0.0385 -0.0792
57118W        W   56   2.945   7.096   3.706 -0.1066  0.3804 -0.2069
57119W        W   57  34.465   5.449   6.125  0.1133  0.0825  0.1134
57120W        W   58   1.413   5.740   7.085 -0.2341  0.2454 -0.0410
57121W        W   59   1.118   5.374   8.565  0.0459 -0.1853 -0.0885
57122W        W   60   0.345   3.325   5.996 -0.1385 -0.2076  0.0670
57123W        W   61   2.922   5.922   7.647  0.0149 -0.3033 -0.0132
57124W        W   62   1.118   4.173   6.137 -0.1772 -0.2522  0.0461
57125W        W   63   2.179   4.441   5.517  0.0997  0.0808  0.2258
57126W        W   64   1.606   4.610   4.701 -0.0276 -0.2631  0.1030
57127W        W   65  34.040   6.974   5.043  0.1375 -0.2055 -0.1042
57128W        W   66   3.104   3.326   7.396 -0.1296 -0.2120 -0.1594
57129W        W   67   3.381   7.117   6.034  0.3245  0.2748 -0.2198
57130W        W   68   3.884   6.344   6.676  0.0352 -0.0544  0.2221
57131W        W   69   2.108   5.603   5.688  0.1444 -0.3431  0.0787
57132W        W   70   1.216   5.225   6.785  0.2110  0.0052 -0.1769
57133W        W   71  34.695   3.958   4.640  0.3607  0.1480  0.0759
57134W        W   72   2.364   7.905   5.901  0.2577 -0.1624 -0.1251
57135W        W   73   1.611   6.502   4.783  0.0097  0.3357 -0.3099
57136W        W   74   1.105   3.356   5.239  0.2052  0.1020 -0.1894
57137W        W   75   2.873   6.770   5.296 -0.1907  0.1055 -0.2444
57138W        W   76   1.836   4.208   4.820  0.0211 -0.0212 -0.0105
57139W        W   77   1.267   4.806   6.433  0.2060 -0.0419 -0.3559
57140W        W   78   2.636   3.594   6.789  0.3384  0.0022  0.5049
57141W        W   79   2.682   6.098   7.091  0.1644  0.0486 -0.0537
57142W        W   80   1.638   5.520   5.511  0.0543 -0.0479  0.3519
57143W        W   81   0.817   5.301   3.093  0.1193 -0.1058  0.2387
57144W        W   82   3.220   6.731   5.748  0.1249 -0.1619  0.2123
57145W        W   83   0.436   7.575   5.035  0.2519 -0.0011  0.1054
57146W        W   84  33.947   5.809   5.800  0.0542  0.1199  0.3487
57147W        W   85   2.935   5.899   4.972 -0.2332 -0.2342 -0.0795
57148W        W   86   2.432   5.195   3.675  0.4313 -0.2455 -0.1528
57149W        W   87   0.447   4.079   7.573 -0.1973 -0.2756 -0.1725
57150W        W   88   1.137   5.319   7.734 -0.0878 -0.0885  0.2129
57151W        W   89  34.172   5.515   3.162  0.3298  0.1709 -0.1784
57152W        W   90   0.668   5.421   7.660  0.3083 -0.1701 -0.0693
57153W        W   91   2.351   3.188   3.908 -0.2150  0.1460 -0.0313
57154W        W   92   4.245   4.606   5.668  0.2199  0.0448  0.1135
57155W        W   93   1.690   5.712   8.106  0.0093 -0.2119 -0.2184
57156W        W   94   3.593   5.526   4.200  0.5860  0.3153  0.0730
57157W        W   95   2.191   4.131   4.081 -0.1680 -0.0979 -0.0143
57158W        W   96   0.475   5.174   4.115  0.1013  0.2683 -0.2382
57159W        W   97   0.088   6.922   6.434  0.0142 -0.1210 -0.0400
57160W        W   98   2.761   5.499   3.927  0.1319  0.3219  0.2453
57161W        W   99   0.742   5.835   7.207 -0.0167 -0.2978  0.1205
57162W        W  100   2.118   4.926   4.727 -0.1366  0.1518  0.1183
57163W        W  101   4.555   6.868   4.044 -0.2554  0.0294 -0.2075
57164W        W  102   0.191   5.729   6.154  0.1591  0.0431 -0.0574
57165W        W  103   1.836   5.919   7.228 -0.2299 -0.1911  0.0695
57166W        W  104   2.221   6.113   4.384 -0.2422 -0.2902 -0.2370
57167W        W  105   2.168   3.439   7.702  0.1052  0.0248 -0.0529
57168W        W  106   1.232   4.687   4.233 -0.2769 -0.1569 -0.2846
57169W        W  107   2.332   2.757   4.785  0.1963  0.1463 -0.4012
57170W        W  108   0.214   7.911   4.615  0.1750  0.2077 -0.1737
57171W        W  109   1.616   5.298   7.227 -0.4958  0.2446 -0.1439
57172W        W  110   2.591   5.141   6.993  0.0714 -0.0403  0.1391
57173W        W  111   2.552   3.882   5.872 -0.1569  0.0948 -0.1449
57174W        W  112   3.356   5.180   7.804  0.1887 -0.2074 -0.2244
57175W        W  113   1.947   4.947   3.625  0.1777 -0.2062 -0.1251
57176W        W  114   2.279   4.740   5.978 -0.4331 -0.0019 -0.1502
57177W        W  115   1.044   5.062   4.413  0.2543 -0.2330  0.3752
57178W        W  116   1.406   4.469   8.476  0.0761 -0.0721  0.1298
57179W        W  117   1.917   4.021   6.145  0.1311 -0.0106 -0.1439
57180W        W  118   1.274   6.013   5.947  0.3157 -0.0831  0.0218
57181W        W  119   2.818   5.649   6.731  0.0301 -0.2684  0.2472
57182W        W  120   1.618   6.257   6.303  0.1645  0.3291 -0.2896
57183W        W  121   1.734   4.617   7.874 -0.2364 -0.0238 -0.1426
57184W        W  122   2.251   3.677   3.575 -0.1732  0.1195 -0.2414
57185W        W  123   1.590   6.052   5.156  0.0004 -0.0139  0.1337
57186W        W  124   1.263   6.749   3.898  0.0375 -0.3687 -0.1155
57187W        W  125   1.891   4.804   6.352 -0.1400  0.3315  0.0631
57188W        W  126   1.176   6.394   5.615 -0.1486 -0.1533  0.0222
57189W        W  127   0.979   6.929   4.355  0.1534  0.1792 -0.0398
57190W        W  128   2.517   7.224   7.855 -0.0890  0.1539  0.3994
57191W        W  129   0.064   7.205   5.195 -0.2864 -0.0144  0.0735
57192W        W  130   3.066   4.857   7.001 -0.0288  0.1002 -0.0099
57193W        W  131  33.390   7.268   6.404 -0.0478 -0.3306  0.0926
57194W        W  132   0.551   4.583   4.906 -0.1271 -0.0195 -0.1687
57195W        W  133   0.277   6.393   5.562 -0.1277 -0.0860  0.0849
57196W        W  134   3.321   3.745   4.234  0.1128 -0.0189  0.0301
57197W        W  135   2.633   4.809   4.874  0.3391  0.0485 -0.2866
57198W        W  136   1.003   3.863   6.559  0.1065  0.4860  0.0602
57199W        W  137   1.053   3.478   7.009  0.0612  0.0185 -0.1748
57200W        W  138   0.691   6.631   5.847  0.0312 -0.2278  0.1743
57201W        W  139   2.091   5.399   8.127  0.0960 -0.1111  0.1775
57202W        W  140   1.299   3.486   3.048 -0.2230  0.0499 -0.0272
57203W        W  141   2.147   5.598   7.093  0.4645 -0.1765  0.0910
57204W        W  142   0.648   5.592   8.102 -0.2997 -0.1759 -0.0318
57205W        W  143   0.316   5.685   2.334 -0.0917  0.0924  0.1046
57206W        W  144   4.133   5.447   5.540  0.0715 -0.1087  0.1930
57207W        W  145  34.694   4.318   5.766 -0.1005  0.1330 -0.0083
57208W        W  146   0.828   6.099   5.013  0.0542 -0.0027 -0.2634
57209W        W  147   2.062   5.847   6.249 -0.0066  0.2388 -0.0722
57210W        W  148   0.442   6.332   4.381  0.2308 -0.0994 -0.3609
57211W        W  149   1.735   6.054   4.616  0.1103  0.3563  0.0814
57212W        W  150   0.897   4.286   8.448  0.0271  0.5711  0.2754
57213W        W  151   3.115   6.359   7.444  0.2892 -0.1019  0.1725
57214W        W  152   1.746   4.183   5.386 -0.0827  0.2871 -0.1209
57215W        W  153   1.519   4.460   6.200 -0.2865  0.1900  0.0699
57216W        W  154   1.364   5.331   4.083  0.3230  0.2651 -0.0292
57217W        W  155   3.628   5.993   6.955 -0.0385 -0.1733  0.4094
57218W        W  156   2.282   5.907   7.442  0.0340 -0.1832 -0.4550
57219W        W  157   1.068   5.459   7.273 -0.0107  0.2377  0.3630
57220W        W  158   2.096   3.852   4.550 -0.0694 -0.0830  0.0600
57221W        W  159   3.724   6.777   4.275 -0.1612  0.0298  0.0747
57222W        W  160   1.665   4.303   7.518 -0.1019  0.0773  0.1581
57223W        W  161  34.394   6.766   3.617 -0.2280 -0.2000  0.3125
57224W        W  162   0.576   6.177   6.022  0.1488  0.0225  0.2099
57225W        W  163   1.239   5.222   4.823  0.3551 -0.0761 -0.3711
57226W        W  164   3.361   3.647   6.321 -0.0794  0.2531  0.0590
57227W        W  165   1.114   8.553   6.760 -0.1643  0.0352  0.2846
57228W        W  166   0.821   7.055   4.794 -0.2666 -0.0940 -0.3052
57229W        W  167   1.220   4.883   5.921  0.1263 -0.3067 -0.3735
57230W        W  168   3.238   3.719   5.130 -0.0521  0.1840  0.2895
57231W        W  169   2.206   7.040   4.227  0.2950 -0.0905  0.1372
57232W        W  170   2.414   3.753   7.282 -0.1009 -0.1300 -0.1664
57233W        W  171   4.123   4.117   7.974  0.2885 -0.0511 -0.0562
57234W        W  172   3.261   5.749   3.874  0.0093  0.0960 -0.1786
57235W        W  173   2.152   3.868   8.241  0.3043 -0.0687 -0.1858
57236W        W  174   1.253   3.573   6.207  0.1879 -0.1612  0.0248
57237W        W  175   3.242   5.537   5.270 -0.0800  0.2740  0.3226
57238W        W  176   0.830   3.215   8.006 -0.0814  0.0721  0.0734
57239W        W  177   2.420   6.527   6.744  0.3653 -0.1409  0.3870
57240W        W  178   0.723   5.743   8.554 -0.0905  0.2790 -0.1182
57241W        W  179   1.618   4.061   3.568  0.1282 -0.0201 -0.1432
57242W        W  180   1.022   4.302   4.472  0.2435  0.1085  0.1140
57243W        W  181   1.113   6.105   6.986  0.0436  0.1801 -0.2291
57244W        W  182   3.023   6.165   6.735 -0.0340  0.1208  0.1737
57245W        W  183   2.665   5.966   3.875  0.3433 -0.0930 -0.2029
57246W        W  184   3.429   4.200   5.242 -0.2541  0.0818  0.0991
57247W        W  185   0.591   5.362   7.073  0.0554 -0.0838  0.1098
57248W        W  186   1.833   5.850   3.569  0.2148 -0.2186  0.1406
57249W        W  187   1.767   5.372   4.511  0.1411 -0.0014 -0.4268
57250W        W  188   0.659   5.636   5.441 -0.2399  0.3053 -0.0980
57251W        W  189   0.711   3.421   6.322 -0.0472  0.1101  0.0363
57252W        W  190   1.663   5.582   6.044 -0.1705  0.0736 -0.0482
57253W        W  191   2.636   4.403   5.791 -0.2169  0.0877  0.2444
57254W        W  192   1.675   3.791   7.809 -0.0596 -0.0128 -0.1551
57255W        W  193   2.236   5.994   6.768 -0.3239  0.0585 -0.5369
57256W        W  194   0.660   6.176   8.892  0.0615 -0.0085 -0.0711
57257W        W  195   0.920   4.536   8.022 -0.0153  0.0211 -0.2669
57258W        W  196   3.152   7.213   7.122 -0.2468 -0.5273 -0.1089
57259W        W  197   3.327   4.735   3.738  0.0873  0.1967 -0.2505
57260W        W  198   2.860   3.791   8.006 -0.2183 -0.4392 -0.2202
57261W        W  199   4.520   4.297   6.140  0.1693  0.1975 -0.2763
57262W        W  200   2.643   4.739   3.733  0.0633 -0.2852  0.1016
57263W        W  201   1.308   4.305   5.654  0.0069  0.3119  0.2192
57264W        W  202   2.251   4.764   8.111  0.0781 -0.0965 -0.3833
57265W        W  203   1.505   4.918   3.833  0.3137  0.1516  0.1709
57266W        W  204   1.601   4.897   6.834 -0.1282  0.1298  0.0691
57267W        W  205   1.103   7.043   2.192  0.3448 -0.2219 -0.2456
57268W        W  206   1.779   5.708   6.750  0.1540  0.0261 -0.0868
57269W        W  207   3.010   4.106   4.159 -0.0468  0.4230  0.0159
57270W        W  208   1.344   3.343   6.593  0.1434 -0.0682  0.2892
57271W        W  209   1.874   6.853   6.845  0.0597  0.4658  0.3900
57272W        W  210   0.272   4.970   3.171 -0.1057 -0.0352 -0.1373
57273W        W  211   0.675   3.677   4.422  0.3868  0.3003  0.0144
57274W        W  212   1.945   6.429   6.612 -0.0015 -0.1977  0.2175
57275W        W  213   4.266   5.025   7.489 -0.0386  0.1629 -0.3206
57276W        W  214   1.687   2.676   3.173 -0.0225  0.0255  0.2007
57277W        W  215   2.588   4.587   7.011  0.1404  0.2430  0.1811
57278W        W  216  34.554   5.840   4.799 -0.0756  0.0199  0.0761
57279W        W  217   1.784   3.441   4.447 -0.2101 -0.0832  0.0612
57280W        W  218   0.957   5.882   7.668  0.1550  0.2772 -0.0627
57281W        W  219  33.930   7.176   7.834  0.1699 -0.2558  0.0192
57282W        W  220   1.973   4.611   5.103 -0.0252  0.0830  0.1686
57283W        W  221   2.426   4.139   6.720  0.0401  0.4818  0.0631
57284W        W  222   0.840   4.003   5.723  0.0658  0.0605 -0.0643
57285W        W  223   1.587   6.164   6.785  0.0201 -0.2083  0.1741
57286W        W  224   4.825   4.623   6.415 -0.3349 -0.0702 -0.2171
57287W        W  225   1.590   7.168   7.904  0.2315 -0.1672  0.0123
57288W        W  226   0.810   4.919   6.779 -0.2801 -0.2927 -0.0264
57289W        W  227   1.366   7.063   6.973  0.2146  0.1007  0.4013
57290W        W  228   2.878   4.051   5.008 -0.2708  0.1929 -0.0475
57291W        W  229   0.878   5.518   5.007 -0.1546 -0.3293 -0.1965
57292W        W  230   0.068   3.656   7.609 -0.1177 -0.2559 -0.2425
57293W        W  231   1.329   5.500   9.051  0.1516  0.3204  0.0715
57294W        W  232   1.873   4.450   5.877 -0.1493 -0.1657  0.0472
57295W        W  233   3.187   4.169   6.150  0.0083  0.0398 -0.1908
57296W        W  234   2.129   5.213   2.962  0.2129 -0.0982  0.0587
57297W        W  235   1.013   7.451   6.228  0.0541  0.0892  0.1012
57298W        W  236   0.265   5.268   7.918 -0.3147  0.0113  0.0250
57299W        W  237  34.449   7.445   5.673  0.3219 -0.0278 -0.1879
57300W        W  238   1.355   6.464   4.328 -0.1578  0.0215 -0.0249
57301W        W  239   2.019   4.481   4.425 -0.0196  0.1233  0.1324
57302W        W  240   3.046   6.688   4.857 -0.1010  0.2116  0.2293
57303W        W  241   0.124   4.513   4.542  0.1847 -0.0857 -0.1315
57304W        W  242   0.320   6.040   5.214  0.5136 -0.1685  0.0227
57305W        W  243  33.633   6.903   5.906  0.3321  0.0254 -0.1854
57306W        W  244   1.822   6.881   5.016 -0.0170 -0.2171 -0.2709
57307W        W  245   0.919   8.072   6.780  0.1696  0.1631  0.1339
57308W        W  246   4.229   6.148   6.316  0.2830  0.1648 -0.1604
57309W        W  247   0.751   4.627   2.193 -0.1654 -0.3852  0.0694
57310W        W  248   3.808   5.808   6.484  0.3660 -0.3531 -0.3416
57311W        W  249   3.612   4.161   4.376  0.1903 -0.0844 -0.1407
57312W        W  250   1.766   6.573   7.412  0.0222 -0.0437  0.1744
57313W        W  251   0.801   4.979   5.125 -0.2163 -0.2191  0.1404
57314W        W  252   1.545   4.147   4.410  0.1323  0.3027 -0.0121
57315W        W  253   0.600   5.280   8.598  0.2399  0.1124 -0.4027
57316W        W  254   4.018   3.444   6.685  0.2433  0.1467 -0.2205
57317W        W  255   0.253   6.605   6.057  0.1499 -0.3308  0.4232
57318W        W  256   2.383   5.243   5.058  0.3310 -0.3470 -0.0478
57319W        W  257   1.154   3.738   4.247  0.0371 -0.1099  0.4299
57320W        W  258   0.473   4.179   5.419 -0.0565  0.0514 -0.0902
57321W        W  259   3.938   4.642   6.727 -0.2332  0.1650  0.2080
57322W        W  260   1.280   6.896   4.820  0.3310  0.2776  0.3331
57323W        W  261   1.401   4.374   5.106  0.1177  0.3296  0.1549
57324W        W  262   2.508   5.709   5.146 -0.3553  0.2493  0.0306
57325W        W  263   1.644   7.255   5.987 -0.0007 -0.0953 -0.0406
57326W        W  264   1.922   5.118   5.425  0.3744  0.0573 -0.1257
57327W        W  265   0.634   2.601   4.857 -0.0981  0.1991  0.1875
57328W        W  266   4.301   3.327   4.477 -0.2071 -0.0454 -0.0932
57329W        W  267   1.049   6.406   7.777 -0.0573  0.4627 -0.2610
57330W        W  268   2.721   4.366   7.702  0.2693 -0.3890  0.0324
57331W        W  269   0.260   4.894   5.819 -0.0100  0.2611  0.1236
57332W        W  270   3.460   4.137   3.846 -0.3324  0.0094 -0.3206
57333W        W  271   2.922   5.223   7.441  0.0293 -0.0392  0.0329
57334W        W  272   0.390   3.737   6.548 -0.0226  0.2132  0.1376
57335W        W  273   0.705   5.505   2.557  0.0255 -0.2329 -0.2875
57336W        W  274   4.199   3.991   7.477  0.5093 -0.1482 -0.0064
57337W        W  275   3.079   6.222   3.926 -0.0022  0.2258 -0.4363
57338W        W  276   1.772   6.791   6.350 -0.0984  0.0573 -0.0226
57339W        W  277  34.062   4.622   6.013 -0.0212  0.0106  0.0627
57340W        W  278   0.911   4.384   5.275  0.1686 -0.2114 -0.1237
57341W        W  279   0.840   5.734   4.575  0.1205  0.4652  0.1156
57342W        W  280   2.440   5.401   7.685 -0.2766  0.1202 -0.2262
57343W        W  281   3.461   6.779   7.783  0.0921  0.0054  0.1353
57344W        W  282   2.451   4.032   5.333  0.1398  0.0158 -0.0917
57345W        W  283   1.463   7.244   2.573 -0.2815 -0.0141  0.1251
57346W        W  284   1.644   4.668   5.512  0.0989  0.1898  0.2457
57347W        W  285   1.019   7.503   3.880  0.0465 -0.2048  0.2214
57348W        W  286   2.692   5.693   4.421  0.1699 -0.2878 -0.0647
57349W        W  287   3.829   6.104   6.028  0.1542 -0.0852  0.1042
57350W        W  288   0.465   4.399   6.090 -0.0729 -0.3937 -0.0037
57351W        W  289   2.816   6.547   6.467  0.1259 -0.0706  0.1522
57352W        W  290   4.118   6.586   5.713 -0.2113  0.1942 -0.0868
57353W        W  291   1.387   2.552   3.745  0.3747 -0.1987 -0.2973
57354W        W  292   1.525   3.912   5.877 -0.0309  0.1519  0.3152
57355W        W  293   0.289   6.770   4.906  0.3586  0.3614 -0.1031
57356W        W  294   2.809   4.655   6.178 -0.0260 -0.0164 -0.1185
57357W        W  295   2.073   4.631   6.939  0.2670  0.0732  0.0212
57358W        W  296   1.372   7.166   4.180  0.3107  0.1545  0.4801
57359W        W  297   2.786   4.035   7.026  0.2768 -0.2051 -0.1790
57360W        W  298   3.176   6.664   7.026  0.1285  0.1110  0.1538
57361W        W  299   0.339   6.586   7.496  0.1384  0.3152  0.1402
57362W        W  300  33.912   5.417   4.758 -0.1287  0.0019  0.1074
57363W        W  301   0.934   6.103   8.193 -0.1464 -0.2657  0.2062
57364W        W  302   1.580   4.929   5.125 -0.1737 -0.1951 -0.3110
57365W        W  303   1.779   7.162   3.939 -0.0747  0.1082  0.3251
57366W        W  304   3.828   6.262   5.458 -0.0033  0.1116  0.2220
57367W        W  305   0.806   3.985   4.884 -0.0393  0.0806  0.1945
57368W        W  306   2.089   5.338   6.117 -0.0938 -0.0460  0.0451
57369W        W  307   0.793   4.598   5.738  0.0852 -0.4470 -0.1309
57370W        W  308   5.958   1.482   5.378  0.3192  0.5451  0.1287
57371W        W  309   2.499   3.716   4.938 -0.1022 -0.2994  0.0817
57372W        W  310   1.295   6.509   6.046 -0.0971  0.2745 -0.1522
57373W        W  311   0.423   4.118   4.316 -0.3244  0.1602 -0.0441
57374W        W  312   0.352   5.660   3.877  0.2321 -0.0780  0.0636
57375W        W  313  34.363   7.015   5.476  0.1477  0.1242  0.0112
57376W        W  314   1.599   2.554   8.124  0.0508 -0.0508  0.1298
57377W        W  315   0.248   5.224   7.429 -0.0285 -0.3864 -0.0294
57378W        W  316   1.025   6.907   6.205 -0.0396 -0.0870 -0.0304
57379W        W  317  34.627   3.509   4.543  0.2339  0.1018 -0.2729
57380W        W  318   2.758   5.306   4.725 -0.0777 -0.0639 -0.2989
57381W        W  319   1.156   4.539   6.958 -0.0481  0.3384 -0.0236
57382W        W  320   1.227   3.485   5.706  0.1453  0.2594 -0.0839
57383W        W  321   1.800   5.019   5.878  0.0732 -0.0061 -0.2916
57384W        W  322   4.722   6.501   4.332  0.2478  0.1924 -0.0364
57385W        W  323   2.018   3.825   5.077  0.0070  0.5169 -0.2282
57386W        W  324   4.306   6.296   7.157  0.2836  0.3889 -0.3499
57387W        W  325  33.410   4.835   4.124 -0.1995 -0.0797 -0.0562
57388W        W  326   1.639   4.555   9.359 -0.0252 -0.3416  0.1029
57389W        W  327   1.071   4.310   7.454 -0.2019  0.1664 -0.2704
57390W        W  328  33.632   4.142   4.443  0.0836 -0.0167 -0.1392
57391W        W  329   1.861   5.445   5.007 -0.0107 -0.0205  0.0721
57392W        W  330   1.261   6.074   4.720 -0.3246 -0.1489 -0.2835
57393W        W  331   2.089   6.223   3.844 -0.0983  0.1470 -0.2180
57394W        W  332   2.092   5.129   7.257  0.0209 -0.0190 -0.0305
57395W        W  333   0.579   5.457   5.938  0.1708  0.2215 -0.2068
57396W        W  334  34.665   3.499   8.192  0.1393 -0.1511 -0.2680
57397W        W  335   2.895   4.415   4.572  0.1193  0.1722  0.0288
57398W        W  336   1.946   5.600   7.620 -0.0656 -0.0212 -0.1838
57399W        W  337   3.451   5.032   4.234 -0.0895 -0.1401  0.0494
57400W        W  338   2.436   4.711   6.565 -0.1000 -0.2517  0.0477
57401W        W  339   2.262   4.748   4.043 -0.1490 -0.1341 -0.2830
57402W        W  340   1.367   3.658   8.971 -0.1173  0.2591 -0.0587
57403W        W  341   0.956   5.616   6.810 -0.0625  0.0032 -0.3458
57404W        W  342   3.196   5.839   7.096  0.2106 -0.1473 -0.0354
57405W        W  343   0.518   3.447   6.998  0.0427  0.2519 -0.2349
57406W        W  344   4.048   2.837   4.931  0.2666 -0.5131 -0.1770
57407W        W  345   2.228   5.733   3.862 -0.0045 -0.0855 -0.0523
57408W        W  346  34.465   5.056   7.106 -0.0455 -0.0063  0.1132
57409W        W  347   2.660   4.413   4.097 -0.1187  0.0655  0.2395
57410W        W  348   1.756   6.308   8.700 -0.0672  0.1350  0.1433
57411W        W  349   2.355   6.719   5.050 -0.0813 -0.2025  0.0984
57412W        W  350   3.161   5.374   6.910  0.3026  0.0226 -0.0775
57413W        W  351   0.632   5.264   4.611 -0.1916  0.0879  0.2316
57414W        W  352   4.486   5.773   4.114  0.1377  0.0277  0.0277
57415W        W  353   3.666   5.725   5.628  0.1292  0.1984 -0.3408
57416W        W  354   1.627   7.871   6.967  0.2571 -0.1172  0.0142
57417W        W  355   2.422   6.916   6.356 -0.3523  0.0519 -0.0848
57418W        W  356   3.830   5.277   4.588 -0.0800  0.0571 -0.0855
57419W        W  357   0.492   3.639   8.017 -0.2907  0.1643 -0.0382
57420W        W  358   1.134   4.753   4.809 -0.0158 -0.2177 -0.4553
57421W        W  359   1.232   5.258   5.372 -0.1867  0.4608 -0.0792
57422W        W  360   1.607   5.319   6.448 -0.0717 -0.1433  0.0323
57423W        W  361   0.680   2.770   7.636 -0.0675  0.1052 -0.1066
57424W        W  362   2.675   3.957   4.466  0.0816 -0.1378  0.2530
57425W        W  363   2.326   6.171   5.831 -0.0405  0.0008 -0.2523
57426W        W  364   2.800   6.151   8.079 -0.1803 -0.6980  0.0786
57427W        W  365   0.723   6.522  10.223 -0.6066 -0.2296 -0.0972
57428W        W  366   1.211   3.959   9.786 -0.0585 -0.1831 -0.2729
57429W        W  367   3.059   4.775   7.547  0.3313  0.2576  0.0762
57430W        W  368   1.685   6.318   9.449  0.3611 -0.5065  0.1874
57431W        W  369  34.590   3.984   9.297 -0.2621 -0.1571  0.1842
57432W        W  370   2.501   8.009   8.253  0.0823 -0.2739 -0.0534
57433W        W  371   1.653   6.098  10.492 -0.0018  0.1121  0.1447
57434W        W  372   2.574   7.381   8.826 -0.2824 -0.0299  0.0803
57435W        W  373   2.479   6.569   9.178 -0.1460 -0.1458  0.0213
57436W        W  374   0.225   4.042   9.624 -0.0916  0.2813 -0.1852
57437W        W  375   1.088   3.911   9.300 -0.0214  0.2854  0.3348
57438W        W  376   1.646   2.046   8.941  0.0238 -0.0771  0.2635
57439W        W  377   2.173   4.012   9.058  0.1565 -0.2058  0.2911
57440W        W  378  34.540   6.204   8.870  0.2115  0.0267  0.0177
57441W        W  379   0.710   5.542  10.221 -0.1884 -0.3856  0.0752
57442W        W  380   1.329   4.123  10.245  0.1475 -0.1888 -0.2712
57443W        W  381   4.304   3.817   9.234  0.2643  0.0164  0.0490
57444W        W  382   2.221   6.808   7.395 -0.0894  0.0891  0.0964
57445W        W  383   0.117   5.872   8.662  0.2039  0.0202 -0.2246
57446W        W  384  33.728   4.721  10.893 -0.1582  0.1895 -0.1414
57447W        W  385   0.391   6.343  10.633  0.1078 -0.3775  0.0746
57448W        W  386   2.627   5.063   8.863 -0.0559  0.1601 -0.1025
57449W        W  387   3.824   5.220   8.945 -0.0030 -0.1885  0.0796
57450W        W  388   0.701   6.459   8.429 -0.0934  0.0169 -0.0044
57451W        W  389   2.125   7.575   8.979  0.1295  0.0981  0.0739
57452W        W  390  34.273   6.749   9.445 -0.0130 -0.1372  0.0207
57453W        W  391  34.647   6.376  10.426  0.2210  0.0481 -0.0379
57454W        W  392   1.122   7.710   9.128  0.2304 -0.0222 -0.1073
57455W        W  393   3.414   7.155   9.153 -0.3203 -0.1904 -0.0456
57456W        W  394   0.192   6.772   8.310 -0.1635  0.1271  0.0864
57457W        W  395   1.832   4.435  10.272 -0.0163 -0.0347 -0.2325
57458W        W  396   1.200   6.228   9.142 -0.1628 -0.0857  0.3239
57459W        W  397   1.296   6.227   7.434  0.1357  0.2424  0.1040
57460W        W  398   2.167   4.813   8.788  0.0987 -0.0666 -0.0527
57461W        W  399   1.197   6.280   9.670  0.0522 -0.2352  0.0302
57462W        W  400   1.584   6.796   8.834 -0.0252 -0.0890  0.0630
57463W        W  401   3.759   5.234   8.179 -0.0703 -0.2420  0.0580
57464W        W  402   1.711   5.084   8.802  0.0794 -0.0920 -0.2077
57465W        W  403   2.511   4.845   7.465 -0.0914  0.1045  0.1610
57466W        W  404   1.581   3.540  10.443 -0.1560  0.2705 -0.3607
57467W        W  405  34.338   8.207   9.175 -0.5411 -0.1369 -0.2260
57468W        W  406  34.601   3.564   9.693 -0.1214 -0.2520 -0.0740
57469W        W  407   2.224   4.227   7.222  0.0386  0.1316  0.2763
57470W        W  408   1.067   5.321   9.974  0.3817 -0.0486  0.1181
57471W        W  409   0.491   6.451   9.766  0.3143 -0.2071 -0.3252
57472W        W  410   0.349   5.202  10.383 -0.0356 -0.0353  0.0657
57473W        W  411   2.208   6.348   7.138  0.0917  0.2223  0.3711
57474W        W  412   2.387   7.490   8.362 -0.1045 -0.0342 -0.3653
57475W        W  413   2.183   6.489   6.206 -0.4279  0.0051  0.2623
57476W        W  414   0.204   3.611   9.291  0.2150 -0.0344  0.1020
57477W        W  415   1.745   4.811   7.342 -0.0766 -0.0287 -0.0797
57478W        W  416   3.748   4.742   8.055 -0.1141  0.0318  0.0689
57479W        W  417   1.034   4.644  10.628 -0.2277 -0.0813 -0.0403
57480W        W  418   4.511   7.385  10.006 -0.1087 -0.0007 -0.2168
57481W        W  419   2.916   5.481   7.992  0.4091  0.3312 -0.2854
57482W        W  420   3.413   4.090   8.689 -0.1900  0.1327 -0.0663
57483W        W  421   2.534   3.342  10.262 -0.1276  0.0500 -0.0797
57484W        W  422   2.212   5.896   7.960  0.1989  0.3334  0.1554
57485W        W  423   1.286   5.386   9.539 -0.0245 -0.1455  0.1507
57486W        W  424   3.219   6.204  10.130 -0.1047  0.1974  0.1320
57487W        W  425   3.607   5.874   8.766  0.1246  0.4085 -0.2283
57488W        W  426   0.706   8.902   9.916  0.2438  0.4586 -0.2237
57489W        W  427   0.287   6.471   8.741 -0.0917  0.0636  0.2565
57490W        W  428  33.941   6.819   9.801  0.1471 -0.0590 -0.0670
57491W        W  429   0.048   6.502   7.838 -0.0834  0.1715 -0.1497
57492W        W  430  34.566   5.898  10.075  0.0599 -0.1969  0.3990
57493W        W  431   1.493   5.065   9.225 -0.2343  0.0672 -0.1931
57494W        W  432   3.345   6.146   8.445 -0.1759  0.0390  0.1610
57495W        W  433   3.621   3.157  10.245  0.0308 -0.1924  0.2477
57496W        W  434  34.636   6.635   9.116  0.0089 -0.0320  0.0314
57497W        W  435   2.232   8.054   8.745 -0.0109 -0.1722  0.0391
57498W        W  436   2.939   4.716   8.849  0.1323  0.2059  0.4961
57499W        W  437   2.663   6.594   7.225 -0.0340  0.1769 -0.1740
57500W        W  438   1.809   5.175  10.340  0.0914  0.1196  0.2455
57501W        W  439   0.919   4.349   9.478  0.0301 -0.0603 -0.1760
57502W        W  440   0.122   5.126  10.914 -0.2981  0.0301 -0.1785
57503W        W  441   0.272   3.367  10.313  0.0136  0.4127 -0.1710
57504W        W  442   2.659   4.719   8.401  0.1674  0.2713 -0.1994
57505W        W  443   1.723   4.877  10.723  0.0980  0.0776 -0.0991
57506W        W  444   0.536   6.152   7.653 -0.0301  0.0036 -0.1067
57507W        W  445   1.737   6.700   8.346 -0.3243 -0.2433  0.1220
57508W        W  446   1.283   8.457   9.591 -0.1175  0.1386 -0.1095
57509W        W  447   2.794   7.237   8.418 -0.0232 -0.0105 -0.0504
57510W        W  448   0.858   4.200  10.040 -0.2725 -0.0390  0.1730
57511W        W  449   0.233   2.887   8.734  0.1306 -0.4176 -0.2741
57512W        W  450  34.602   4.342  10.766  0.0329  0.3622 -0.3071
57513W        W  451   0.299   5.965   9.677 -0.0472  0.2289  0.3384
57514W        W  452   1.227   4.987   8.211  0.1223 -0.2051 -0.0728
57515W        W  453   3.735   6.745   9.135  0.0542  0.0218  0.1274
57516W        W  454   2.177   6.214   9.552  0.1626 -0.0742 -0.0496
57517W        W  455   1.716   6.981   9.669 -0.0967 -0.1212  0.3194
57518W        W  456   2.962   5.743  10.058  0.0848  0.2076 -0.2823
57519W        W  457   1.192   5.617   8.093  0.0103  0.0400  0.0059
57520W        W  458   1.628   7.576   8.992  0.0827  0.1708 -0.2218
57521W        W  459   0.699   5.544   9.645 -0.2391  0.1718  0.0885
57522W        W  460  34.222   5.374   9.483 -0.0886 -0.0924 -0.1957
57523W        W  461   1.878   7.103   9.182  0.1596 -0.1288  0.2165
57524W        W  462   3.431   3.149   9.024  0.1833  0.1810 -0.1662
57525W        W  463   0.477   4.895   8.998 -0.1431 -0.0843  0.1643
57526W        W  464   1.851   4.144   9.697  0.0098  0.2478 -0.0506
57527W        W  465   2.906   3.812   7.472  0.1587  0.0020 -0.2224
57528W        W  466   2.103   6.241   9.052 -0.1217 -0.2683 -0.0780
57529W        W  467   2.056   3.879   6.830  0.0545  0.2409 -0.1140
57530W        W  468   3.033   4.281   8.086 -0.0835 -0.1468 -0.0678
57531W        W  469   1.393   7.294   9.398  0.2793  0.0568  0.4128
57532W        W  470  34.423   5.302   9.975  0.0162 -0.0596 -0.1349
57533W        W  471   1.328   4.229   8.928 -0.0829 -0.0603 -0.0416
57534W        W  472   3.323   7.984   8.660 -0.0261 -0.0535 -0.1638
57535W        W  473  34.693   8.363  10.695 -0.0897 -0.1228 -0.3071
57536W        W  474   2.204   7.721   7.923 -0.0724  0.2046 -0.2580
57537W        W  475  34.555   5.196  10.507  0.3040  0.1167  0.1807
57538W        W  476   0.885   5.007   9.474 -0.2978 -0.1765  0.1631
57539W        W  477   2.681   3.897   9.023  0.2614 -0.1170  0.0063
57540W        W  478   0.235   7.662   7.926  0.1028  0.1209  0.0576
57541W        W  479   2.452   4.839   9.270  0.0702 -0.4281  0.0972
57542W        W  480   1.749   3.885   8.751 -0.1181 -0.0077  0.0479
57543W        W  481   2.554   5.720   8.289  0.1074  0.1077 -0.2313
57544W        W  482   2.102   4.419   9.233 -0.0540 -0.0030  0.0663
57545W        W  483   1.911   4.320   6.554 -0.1397  0.2023 -0.2860
57546W        W  484   1.692   5.671   9.523 -0.1233  0.0443 -0.1018
57547W        W  485   1.005   7.368  10.580 -0.1164 -0.2089 -0.3205
57548W        W  486   1.639   5.939   9.074 -0.2532  0.1938  0.1326
57549W        W  487   2.757   4.951   7.904 -0.2184  0.1619  0.0601
57550W        W  488   0.618   6.916   8.689  0.1718  0.2303 -0.0413
57551W        W  489   0.619   5.314   6.539  0.1024  0.0956 -0.2410
57552W        W  490   1.329   4.456   9.802  0.0300 -0.1306 -0.3552
57553W        W  491   2.892   8.626   9.863 -0.1029 -0.0365 -0.1483
57554W        W  492   1.062   6.239   6.373 -0.0013 -0.0744 -0.3197
57555W        W  493   2.497   7.251  10.143 -0.0762 -0.1773 -0.1174
57556W        W  494   0.144   6.745   9.588 -0.1211 -0.1493  0.1600
57557W        W  495   1.382   4.941   9.747  0.2636  0.0905 -0.1347
57558W        W  496   0.715   7.311  11.025 -0.1461  0.2464 -0.0077
57559W        W  497   1.256   6.465   8.416 -0.1766  0.2058  0.0048
57560W        W  498   0.305   5.891   9.151  0.0386 -0.5147 -0.1371
57561W        W  499   2.982   3.987   9.528 -0.0208  0.0927 -0.1545
57562W        W  500   2.367   6.287   8.245  0.0528  0.1837 -0.0718
57563W        W  501   0.814   6.023   9.432 -0.0955 -0.2245 -0.0700
57564W        W  502   2.168   4.652  10.616 -0.1329 -0.0951  0.1945
57565W        W  503   0.806   6.063   9.953  0.2238 -0.0933 -0.1374
57566W        W  504   3.094   5.084   8.330 -0.1215 -0.1501 -0.3557
57567W        W  505   0.333   4.399   7.142  0.0096  0.1834  0.3209
57568W        W  506   2.614   3.316   8.598  0.0536  0.2289  0.0591
57569W        W  507   0.818   5.025  10.331  0.1598  0.2025  0.0928
57570W        W  508   0.302   7.585   9.444 -0.2909  0.0361 -0.0140
57571W        W  509   0.283   6.136  10.137 -0.3655 -0.0165  0.1772
57572W        W  510   0.183   5.555   8.330  0.3908  0.1100  0.1378
57573W        W  511  34.479   7.273  10.230 -0.0580 -0.1422  0.0547
57574W        W  512   3.541   5.890   9.434 -0.0974 -0.2311 -0.1352
57575W        W  513   0.740   3.840   9.686 -0.3504  0.2016 -0.2054
57576W        W  514   0.838   2.880   9.150 -0.0439  0.0173 -0.1616
57577W        W  515   1.174   5.786   9.812  0.0492  0.2222  0.3570
57578W        W  516   2.327   6.379  10.618  0.2858 -0.1514  0.3288
57579W        W  517   0.718   3.312  10.098  0.0768 -0.1377  0.1016
57580W        W  518   0.973   4.724   9.969  0.2493 -0.0756 -0.1706
57581W        W  519   2.880   7.900   9.480  0.1737 -0.1695 -0.2209
57582W        W  520   0.430   6.053   8.249  0.0965  0.2545 -0.0637
57583W        W  521  34.179   8.051  11.025 -0.0140 -0.0937  0.2337
57584W        W  522   2.122   6.706   8.869 -0.2160  0.0125  0.0813
57585W        W  523   1.627   6.569  10.811  0.2411  0.1541 -0.2035
57586W        W  524   0.178   5.449   9.475 -0.2150  0.0871 -0.2329
57587W        W  525   0.214   5.498   9.957  0.1788  0.1804 -0.1606
57588W        W  526  34.336   4.776  10.755  0.0324  0.0991  0.0034
57589W        W  527   4.447   3.558   7.343 -0.1422  0.0430  0.1851
57590W        W  528   3.823   6.396   8.155  0.1452 -0.2919 -0.3359
57591W        W  529   1.669   6.081   9.864  0.0438  0.2473 -0.0026
57592W        W  530   2.588   6.289   7.587 -0.0490  0.1265 -0.1012
57593W        W  531   0.999   2.737  10.233  0.0114 -0.1783 -0.0245
57594W        W  532   2.906   6.536   8.461  0.0627  0.2147  0.1871
57595W        W  533   1.454   4.410  10.654 -0.4298 -0.1278  0.0571
57596W        W  534   0.229   4.667   7.556  0.1317  0.2007 -0.1096
57597W        W  535   1.182   6.813  10.493 -0.0482  0.0268 -0.1384
57598W        W  536   3.117   5.706   8.398  0.1745  0.0389 -0.1211
57599W        W  537   1.351   6.803   9.419  0.2249 -0.1558 -0.2997
57600W        W  538   2.336   6.742  10.226  0.2715  0.0316 -0.0620
57601W        W  539   2.743   6.739  12.539 -0.0314  0.2685 -0.1371
57602W        W  540   1.755   5.661   8.646 -0.0084 -0.2312  0.0868
57603W        W  541   1.882   6.208   8.232 -0.2993 -0.2257 -0.2199
57604W        W  542   1.245   5.787  10.298 -0.1160  0.2534 -0.1589
57605W        W  543   2.806   6.053   8.601 -0.1813 -0.0637  0.0216
57606W        W  544   2.519   4.447   8.925  0.0937  0.1474  0.1942
57607W        W  545   2.532   5.937  10.185  0.0037  0.0126  0.1379
57608W        W  546   3.438   5.134   7.292  0.0531 -0.0291  0.3345
57609W        W  547   4.299   6.345  10.135 -0.2681 -0.3095 -0.0767
57610W        W  548   3.707   7.018   8.460  0.1899 -0.3005  0.0452
57611W        W  549   1.236   4.072   7.867  0.0264  0.0173  0.2275
57612W        W  550  33.661   5.426  10.447  0.1631 -0.2527 -0.0177
57613W        W  551   1.924   3.860   7.333 -0.1362  0.0176  0.1611
57614W        W  552   2.009   7.295   8.124 -0.3201  0.0485  0.0912
57615W        W  553   2.574   5.563   8.787 -0.1565 -0.0363  0.1329
57616W        W  554   1.978   4.962   9.239  0.1655  0.1121  0.1447
57617W        W  555  34.355   4.784  10.140  0.0129  0.1503 -0.2224
57618W        W  556   0.754   4.873   7.701  0.2993  0.2838 -0.0164
57619W        W  557   1.205   6.870   8.032 -0.1035  0.0071 -0.0451
57620W        W  558   1.061   6.722   9.852 -0.0883  0.1576 -0.1191
57621W        W  559   2.635   3.423   6.191  0.0079 -0.1061  0.1547
57622W        W  560   1.381   6.870   7.507 -0.0786 -0.1078  0.1461
57623W        W  561   1.430   4.821  10.230  0.0496  0.0401  0.2032
57624W        W  562   1.131   9.343  10.678  0.0466  0.2506 -0.0729
57625W        W  563   0.866   6.554   9.390  0.1937 -0.0948 -0.4020
57626W        W  564   2.778   1.883  10.399 -0.0727 -0.1228 -0.2488
57627W        W  565   3.355   4.976   8.844 -0.0705  0.0382 -0.1023
57628W        W  566   2.109   5.307   8.657  0.0017 -0.1014 -0.0023
57629W        W  567   1.812   5.600  10.514  0.0384  0.0245 -0.3019
57630W        W  568   3.336   6.766   8.259  0.0764 -0.0180 -0.0788
57631W        W  569   0.772   7.483   9.460  0.1350 -0.1590 -0.1233
57632W        W  570   1.262   6.349  10.258  0.0610 -0.3337  0.4307
57633W        W  571   0.930   3.932   8.788  0.3993 -0.2079  0.0457
57634W        W  572   3.010   6.584   7.942 -0.0655 -0.3621  0.0329
57635W        W  573   1.757   6.645  10.333 -0.2266  0.0608  0.0708
57636W        W  574   0.094   7.446   8.932  0.0396 -0.2677  0.2557
57637W        W  575   3.244   6.940   6.504 -0.0395  0.1356 -0.1012
57638W        W  576   2.246   5.987   8.642  0.0239 -0.0590 -0.3395
57639W        W  577   2.394   7.083   9.179 -0.2714  0.0186 -0.0450
57640W        W  578   1.586   3.780  10.052 -0.0477  0.2487 -0.0463
57641W        W  579   0.750   6.020  10.477 -0.1444 -0.1693  0.1882
57642W        W  580   0.503   7.089   7.319  0.1289 -0.1088 -0.3630
57643W        W  581   2.534   6.708   7.871  0.0435  0.0051  0.0336
57644W        W  582   1.265   7.281   8.883 -0.4461  0.1292 -0.2425
57645W        W  583   3.321   4.053   6.705  0.0871  0.0989 -0.1059
57646W        W  584   3.370   4.973   9.347 -0.0278 -0.1142  0.2314
57647W        W  585   3.636   4.915   8.485 -0.1221 -0.3317 -0.1597
57648W        W  586   1.060   3.453  10.482  0.0954  0.1392 -0.1165
57649W        W  587   2.383   5.362   9.185  0.1943  0.3179  0.3359
57650W        W  588   3.233   7.444   7.572 -0.2637 -0.0209  0.0866
57651W        W  589  34.565   3.196   7.727  0.0175  0.0735 -0.0682
57652W        W  590   1.287   5.927   8.612  0.2211  0.0424  0.3996
57653W        W  591   2.898   5.166   9.307 -0.1102  0.0927  0.0535
57654W        W  592   3.650   5.610   7.339  0.2666 -0.2887  0.1507
57655W        W  593   2.151   5.811   9.287  0.0712  0.0541 -0.2462
57656W        W  594   0.373   7.788   8.575 -0.0432 -0.2745  0.0241
57657W        W  595   1.082   7.202   9.731 -0.2399  0.0151  0.1618
57658W        W  596   1.658   8.381   9.243 -0.0651  0.0427  0.0080
57659W        W  597   0.108   4.075   7.975  0.0510 -0.0799 -0.0974
57660W        W  598   3.523   4.462   9.441 -0.1000  0.2113  0.1036
57661W        W  599   0.209   3.108   9.848  0.0295 -0.1369  0.3215
57662W        W  600   0.354   7.269   8.401 -0.0132  0.0078 -0.0542
57663W        W  601   3.960   3.390   9.168 -0.1279 -0.0592 -0.1209
57664W        W  602   2.094   7.460  10.405 -0.0887 -0.2354  0.2369
57665W        W  603  33.708   3.380  10.668  0.0502 -0.1094  0.2447
57666W        W  604   0.910   5.196   9.018  0.1513 -0.0692 -0.1776
57667W        W  605   1.376   6.098   8.044 -0.0646 -0.0643  0.0384
57668W        W  606   0.568   4.555   9.764 -0.0585 -0.1288 -0.1107
57669W        W  607   2.467   3.500   8.068 -0.0484  0.2877  0.1956
57670W        W  608   0.827   4.432   8.969 -0.3249 -0.1601 -0.3913
57671W        W  609   3.121   4.528   9.833 -0.0004  0.3358 -0.0337
57672W        W  610  34.122   3.219   9.699  0.0812  0.0981  0.1748
57673W        W  611   4.045   5.961   7.499 -0.3505 -0.1655  0.0691
57674W        W  612   2.715   2.691  10.191  0.0085  0.3316 -0.2706
57675W        W  613   0.816   6.883   7.736  0.2166 -0.1632  0.1452
57676W        W  614   2.690   6.894   8.734 -0.2249  0.1195  0.1653
57677W        W  615   1.871   7.129  10.144  0.1533 -0.3264 -0.0512
57678W        W  616   0.062   4.710  10.417 -0.0362  0.0181  0.2290
57679W        W  617   1.555   8.653  10.679  0.1216  0.1117  0.2823
57680W        W  618   2.827   6.909   9.297 -0.2627 -0.1046  0.1990
57681W        W  619   1.613   5.236   7.839 -0.1097 -0.1094 -0.1728
57682W        W  620  34.457   5.681  10.988 -0.2299  0.0649 -0.0135
57683W        W  621   0.453   8.075   9.527  0.1354 -0.1075  0.0252
57684W        W  622   2.524   5.900   9.676  0.1636 -0.1690  0.1002
57685W        W  623   1.612   7.777   6.344 -0.0673 -0.0201  0.1738
57686W        W  624   0.591   6.931   9.562 -0.0061  0.2363  0.2708
57687W        W  625   0.409   4.501   8.099 -0.0756 -0.0927  0.0214
57688W        W  626   1.054   6.542   8.854  0.1859 -0.0275  0.1564
57689W        W  627   1.125   7.344   8.009  0.0603 -0.4417 -0.3275
57690W        W  628   2.010   6.660   9.350  0.0144 -0.1233  0.2954
57691W        W  629   2.670   4.908   9.746 -0.1009  0.0763 -0.1513
57692W        W  630   2.408   5.352  10.169 -0.2042 -0.0775 -0.1155
57693W        W  631   0.923   5.439  10.692  0.1354 -0.1736  0.1472
57694W        W  632   4.266   5.081   7.972  0.2291  0.5254 -0.0596
57695W        W  633   3.250   3.592   7.770 -0.0084 -0.1249 -0.1199
57696W        W  634   1.579   5.568  10.030  0.0047  0.0818 -0.0177
57697W        W  635  33.336   4.922   8.162 -0.0529 -0.1635 -0.0063
57698W        W  636   0.982   6.895   7.211  0.0176 -0.1897  0.0925
57699W        W  637   0.117   5.681  10.423  0.2380 -0.3361 -0.2482
57700W        W  638  33.822   5.966  10.243 -0.1366 -0.2722  0.1296
57701W        W  639   1.803   4.679   9.807  0.2021  0.0043  0.0576
57702W        W  640   3.415   6.238   6.435  0.2694 -0.2657  0.1403
57703W        W  641   0.214   4.173  10.325 -0.1211  0.0486 -0.0203
57704W        W  642   0.590   3.738  10.358  0.0099  0.1057 -0.0315
57705W        W  643   2.106   6.393   7.746  0.1206 -0.0929 -0.2147
57706W        W  644   1.815   7.599   8.551 -0.1081 -0.0955 -0.1616
57707W        W  645   1.690   4.052   9.218  0.0237  0.1958 -0.0182
57708W        W  646  34.339   5.777   8.561 -0.1435  0.0701 -0.2600
57709W        W  647   0.763   4.630   7.194  0.2875  0.3176  0.0133
57710W        W  648   2.233   4.867  10.122  0.0219 -0.1069  0.1943
57711W        W  649   2.997   6.875   7.536  0.1060  0.0991  0.1058
57712W        W  650   0.736   7.697   8.165  0.3583  0.0508  0.0455
57713W        W  651   0.358   4.926   9.514 -0.1290  0.1908 -0.0307
57714W        W  652   2.535   5.186   8.287  0.0737 -0.1176  0.1332
57715W        W  653   4.354   6.522   6.648  0.2394  0.1274 -0.3069
57716W        W  654   4.302   3.556  10.697  0.2587  0.0048 -0.1623
57717W        W  655   1.804   4.738   8.398 -0.0963 -0.1155  0.2192
57718W        W  656   2.928   6.502   8.982 -0.0723  0.0844 -0.0185
57719W        W  657   1.330   2.775   9.259  0.1092 -0.2262 -0.1834
57720W        W  658   2.179   4.402   7.778 -0.3499 -0.2566 -0.0867
57721W        W  659   1.531   6.529   7.838 -0.1148 -0.3947 -0.1678
57722W        W  660   1.070   8.805  10.488 -0.0558 -0.0044  0.4005
57723W        W  661   4.222   4.780  10.643  0.3589 -0.0976 -0.1277
57724W        W  662   0.636   6.860  10.582 -0.0342  0.1451  0.0404
57725W        W  663   1.694   5.215   8.340 -0.0877 -0.1501 -0.2769
57726W        W  664   4.292   6.522   8.206  0.2828  0.2265 -0.0420
57727W        W  665   3.582   8.073   9.097 -0.1760  0.0434 -0.0402
57728W        W  666   3.321   7.710   9.888  0.1561 -0.0419  0.2192
57729W        W  667   2.764   5.460   9.688  0.1295  0.1259 -0.0306
57730W        W  668   0.461   4.503   8.629 -0.0110  0.0615 -0.2582
57731W        W  669   0.506   5.422   9.069 -0.0155 -0.0438 -0.0130
57732W        W  670   1.867   5.447   9.129  0.5954  0.1965 -0.0340
57733W        W  671   3.487   3.940   9.198  0.1868  0.0418  0.0554
57734W        W  672  34.467   5.837   9.587  0.0227  0.1203 -0.1123
57735W        W  673   2.122   3.273   8.357 -0.1940 -0.2042 -0.0416
57736W        W  674   1.325   8.565  10.047 -0.1016 -0.1703  0.0962
57737W        W  675   1.231   3.219  10.066 -0.1578 -0.0079  0.2498
57738W        W  676   1.088   9.321   3.085 -0.3468  0.0199  0.2081
57739W        W  677   1.622   7.262   1.597  0.1388  0.0585 -0.3912
57740W        W  678   2.833   8.462  29.828 -0.1423 -0.2104  0.0193
57741W        W  679   3.346   8.739  31.168  0.2884  0.1836 -0.2070
57742W        W  680   1.021   7.403   0.301 -0.1558 -0.3729 -0.0839
57743W        W  681   3.721  10.060   0.552  0.0121 -0.2739 -0.3315
57744W        W  682   0.321   8.025   2.479 -0.3248 -0.1825  0.2741
57745W        W  683   1.874   8.248   0.488  0.2208  0.3161 -0.1417
57746W        W  684   2.332   9.777   2.449 -0.0024 -0.0132 -0.2267
57747W        W  685  34.621   8.372  31.377 -0.0752  0.0313  0.0924
57748W        W  686   0.739   8.890   3.347  0.2761 -0.0375  0.1506
57749W        W  687   1.760   8.534   3.193 -0.0431  0.0080 -0.1306
57750W        W  688   1.783   8.116  31.475  0.1450 -0.2333  0.0085
57751W        W  689   0.146   5.909   3.517  0.0505  0.1370 -0.2177
57752W        W  690   3.215   8.944   1.849 -0.1725  0.1291  0.4915
57753W        W  691   0.666   8.458   1.315  0.0124 -0.2660 -0.3923
57754W        W  692   0.122   7.071   2.240 -0.0740  0.2322  0.0964
57755W        W  693   0.913   7.716   1.367  0.1170 -0.0894  0.0058
57756W        W  694  34.146  12.375   2.203  0.0501  0.3829 -0.0922
57757W        W  695   0.105   7.779   3.644  0.2812  0.1554  0.1467
57758W        W  696   2.345   7.238   3.708 -0.1283 -0.0652 -0.1413
57759W        W  697   0.356   9.554   1.701 -0.2306 -0.2276 -0.0154
57760W        W  698   0.288   9.397   0.018  0.1456 -0.0399 -0.3864
57761W        W  699   0.096   8.239   3.198  0.0291  0.0470 -0.2306
57762W        W  700   0.731   8.400   3.255 -0.0269  0.1151 -0.0109
57763W        W  701   1.899   6.928   1.269 -0.0264  0.1636 -0.1033
57764W        W  702   3.333   8.771   2.353  0.0199  0.2321  0.2536
57765W        W  703   3.223   9.385   2.172 -0.0749  0.0938 -0.3922
57766W        W  704   2.208  10.901   2.160  0.1639  0.0824  0.2034
57767W        W  705   2.947   8.045   3.777  0.1479 -0.0564  0.1691
57768W        W  706  34.082   8.703   2.050 -0.0334 -0.0363  0.2109
57769W        W  707  33.882   9.939   1.425  0.0539 -0.0602 -0.2297
57770W        W  708   0.296   9.709   2.863  0.0149  0.4567  0.3429
57771W        W  709   3.509   9.299  31.714  0.0632  0.1146  0.0821
57772W        W  710   1.631   8.938   4.071  0.2085 -0.0592 -0.0339
57773W        W  711   0.123  10.954   3.113 -0.2213 -0.1796 -0.1122
57774W        W  712   0.248   9.224   1.267  0.3081  0.2521  0.2958
57775W        W  713   1.574   9.997   3.190 -0.0997 -0.0568 -0.3189
57776W        W  714   0.377   9.752   2.257  0.0187 -0.3540  0.1517
57777W        W  715   2.914   7.709   2.127  0.2699  0.0996  0.1216
57778W        W  716   0.951   8.139   1.100 -0.1877  0.1322  0.1925
57779W        W  717  34.180   9.553   1.740  0.3379 -0.2580 -0.1761
57780W        W  718   2.276   8.771  31.765 -0.1713 -0.1674 -0.2450
57781W        W  719   1.582  10.270   2.785  0.0818  0.0624  0.0701
57782W        W  720  34.479   9.814   2.086 -0.1698 -0.4543  0.0677
57783W        W  721   2.428   7.744   3.582  0.0076  0.0087 -0.0917
57784W        W  722  34.467   8.176   2.305 -0.3884 -0.1836 -0.0228
57785W        W  723   3.614   6.888   0.246  0.1189 -0.0124  0.1711
57786W        W  724   0.469   8.527  31.788 -0.0855  0.1535  0.0612
57787W        W  725   2.138   7.323   1.203 -0.2402  0.0058  0.0335
57788W        W  726   2.044   7.319   0.686 -0.3056 -0.1186  0.4413
57789W        W  727   1.439  10.551   1.964  0.1812  0.2614 -0.2539
57790W        W  728   0.918   6.776   1.793 -0.1021 -0.0921  0.2859
57791W        W  729   3.288   9.299   2.710  0.2085 -0.0056  0.1852
57792W        W  730   3.804   9.409   1.403  0.0945 -0.0272 -0.0270
57793W        W  731   3.650   8.094   2.131  0.0656 -0.3019  0.1390
57794W        W  732  34.301   8.398   3.294  0.1450 -0.0538 -0.0837
57795W        W  733   1.945   8.615   1.974 -0.3327  0.0979 -0.3301
57796W        W  734   2.039   9.870   1.078 -0.1032 -0.2272  0.0603
57797W        W  735   2.669  10.240   1.716 -0.0193  0.3014 -0.0769
57798W        W  736   1.667  10.025   0.559  0.1196 -0.0950  0.1012
57799W        W  737   0.732   8.905   1.125  0.0586 -0.1683  0.1273
57800W        W  738   0.052   8.486   4.295 -0.0678  0.3462 -0.2051
57801W        W  739   0.590   9.316   3.097 -0.1053  0.0933  0.3159
57802W        W  740  34.629   8.463   0.464  0.3515  0.1083  0.2170
57803W        W  741   1.811   8.924   3.529  0.2114  0.5405  0.0541
57804W        W  742   0.532  10.145   3.133  0.0327  0.0550  0.2420
57805W        W  743   2.872   7.792   1.543 -0.1050 -0.1433  0.0319
57806W        W  744   2.072   8.220   1.047 -0.1236  0.0594 -0.1299
57807W        W  745   2.539  10.203   2.313  0.2746 -0.2126 -0.4016
57808W        W  746   1.319  10.900  31.306  0.1502 -0.0786 -0.0759
57809W        W  747   3.469   6.936   1.906 -0.0485 -0.2041 -0.1411
57810W        W  748   2.741   8.401   1.443 -0.1764 -0.3243  0.1765
57811W        W  749   0.070   8.724   1.442 -0.1530 -0.2478 -0.0343
57812W        W  750   1.232   8.778   0.958  0.0380  0.1662  0.0911
57813W        W  751   4.122  10.055   2.466  0.0942 -0.0488 -0.0728
57814W        W  752   3.052   8.048  31.816 -0.0327  0.1768  0.0852
57815W        W  753  34.552   9.467   3.437  0.0560  0.0521  0.0330
57816W        W  754   1.374   9.766   4.243 -0.1388 -0.2642 -0.1155
57817W        W  755   1.372   9.448   3.448  0.0522 -0.1084  0.2977
57818W        W  756  33.330   9.420   2.841 -0.0836 -0.1861 -0.1225
57819W        W  757  34.670   9.933   2.578  0.0303 -0.0542 -0.2509
57820W        W  758   0.379   8.675  31.284 -0.1942 -0.0340 -0.1108
57821W        W  759  34.269   7.605   2.831 -0.0186  0.0211 -0.1047
57822W        W  760   1.014   8.749   2.870  0.1851 -0.0215  0.2733
57823W        W  761   2.091   7.323   0.092 -0.2868 -0.1981  0.1082
57824W        W  762   0.228   7.074   3.760  0.1631  0.2940 -0.1451
57825W        W  763   3.016   7.317   1.156 -0.2040  0.0658 -0.1260
57826W        W  764   0.163   8.555   2.437 -0.2363  0.0887  0.2330
57827W        W  765   3.848   8.593   1.962 -0.0314  0.1338 -0.0490
57828W        W  766   2.500   9.583   0.923  0.1848 -0.0525 -0.0011
57829W        W  767   1.476   9.512  31.866 -0.1359 -0.0266  0.2221
57830W        W  768   0.863   9.262   2.641  0.1674  0.1802  0.1088
57831W        W  769   1.831   7.629   1.909 -0.0046  0.6807  0.0683
57832W        W  770   0.841   6.956   3.761 -0.0910 -0.1774 -0.0733
57833W        W  771   0.043   7.585   2.516  0.1727 -0.1376  0.0327
57834W        W  772   2.244   8.131   2.089  0.1449 -0.0472 -0.1347
57835W        W  773   1.007   8.127   0.575  0.1106  0.1929  0.2026
57836W        W  774   3.319   7.664   1.351 -0.1494 -0.0568 -0.3003
57837W        W  775   1.614   6.889   0.872  0.2240  0.1009  0.2153
57838W        W  776  33.969   9.571   2.192 -0.0306 -0.3047  0.3170
57839W        W  777   1.050   8.262   2.905  0.2102  0.0553  0.2630
57840W        W  778   1.749   9.480   1.460  0.1827 -0.2171 -0.1154
57841W        W  779   3.274  10.747   2.365  0.1552  0.1841  0.0629
57842W        W  780   2.597  10.646   1.397 -0.0405  0.2349 -0.0793
57843W        W  781   0.534   8.587   4.184  0.0792  0.1493 -0.1157
57844W        W  782   0.074   7.663  31.965  0.0304  0.1413  0.0212
57845W        W  783   0.542  10.797   2.279 -0.3408  0.0212 -0.0956
57846W        W  784   2.434   8.512   1.812  0.0545  0.0015  0.1035
57847W        W  785   2.031   6.659  31.890 -0.2676 -0.0390 -0.2327
57848W        W  786   3.000  10.403   2.120 -0.0791  0.0841 -0.0823
57849W        W  787   1.064   8.768   1.564 -0.3413  0.1643 -0.3203
57850W        W  788   0.762   7.827   2.791 -0.1687 -0.4505  0.2491
57851W        W  789   3.028   6.586   2.657 -0.0155 -0.0778  0.1327
57852W        W  790   2.275   8.820   3.285 -0.0089 -0.0087  0.1380
57853W        W  791   2.456   7.694   1.781  0.0726  0.0381 -0.0081
57854W        W  792   0.372   7.531   0.446 -0.2091  0.3629 -0.1993
57855W        W  793   2.208  10.385   1.962 -0.1821 -0.0080 -0.1648
57856W        W  794   0.667   9.850   1.173  0.1462 -0.1400 -0.1747
57857W        W  795  34.667   7.556   3.085 -0.2040  0.0349  0.0366
57858W        W  796   1.066   9.682   2.435  0.2099  0.1420 -0.1347
57859W        W  797   3.043   7.006   2.296  0.0136 -0.2058 -0.1282
57860W        W  798   0.200   8.673   3.813  0.1876  0.1055 -0.1847
57861W        W  799   3.236   7.398   4.492  0.1619  0.0162  0.2821
57862W        W  800   0.580   8.068   1.782  0.0814  0.1638  0.0452
57863W        W  801   0.666   9.756   3.355 -0.0127 -0.0023  0.3297
57864W        W  802   1.916   8.771   0.255  0.1980  0.0554  0.2752
57865W        W  803   3.833   7.126  31.760 -0.4990 -0.3151 -0.0872
57866W        W  804   0.486   7.571   3.843 -0.2593  0.1481  0.0760
57867W        W  805   2.776  10.936   0.293 -0.0915 -0.0307 -0.1117
57868W        W  806   1.304   7.757   1.022 -0.5104  0.0188  0.1393
57869W        W  807   2.273   7.982  30.498 -0.0458  0.3668  0.0399
57870W        W  808   0.783   9.733   2.864 -0.0823 -0.1285 -0.0910
57871W        W  809   2.411   7.802   1.231 -0.2751 -0.2149 -0.0525
57872W        W  810   1.658   8.944   2.412 -0.0466 -0.0754 -0.1628
57873W        W  811   0.694   7.266  30.779 -0.4372  0.4180 -0.0695
57874W        W  812   3.158   8.562   0.290 -0.1539  0.4127  0.1108
57875W        W  813  33.970   8.792   3.580 -0.0894 -0.1093 -0.1737
57876W        W  814   2.400   9.430   3.957  0.3600  0.1127 -0.0523
57877W        W  815   2.607  10.722   1.928 -0.0377 -0.0437 -0.0683
57878W        W  816   1.381   7.432   2.062  0.3696  0.1219  0.0705
57879W        W  817   0.287   8.995   0.678 -0.1092 -0.0329 -0.2191
57880W        W  818   1.460   6.825   1.916 -0.0941 -0.2097 -0.1752
57881W        W  819  33.078  10.001   0.646 -0.0084 -0.1849 -0.0783
57882W        W  820   3.335   6.994   2.791  0.0479 -0.0521 -0.2189
57883W        W  821   1.719   6.805   2.828  0.2447  0.1352  0.2155
57884W        W  822   1.671   8.198   4.729 -0.0940  0.1013  0.1532
57885W        W  823   2.801   9.772   4.630 -0.0161 -0.2348 -0.3782
57886W        W  824   1.425   8.939   0.108 -0.0505 -0.1371 -0.1185
57887W        W  825   1.773   7.620   2.425  0.1782  0.2020  0.0765
57888W        W  826   0.689   9.042  31.536 -0.3001 -0.0180 -0.0418
57889W        W  827   0.558   7.149   4.089 -0.1032 -0.0591 -0.0949
57890W        W  828   1.194   8.456   4.095 -0.0185  0.2009 -0.3344
57891W        W  829  33.339   9.618   2.302 -0.0662 -0.0424  0.1349
57892W        W  830   2.428   8.809   4.570  0.1436  0.0644 -0.3916
57893W        W  831   1.419   8.563   2.039  0.1783 -0.1778 -0.0338
57894W        W  832   0.555   7.698   4.348 -0.3492  0.3702  0.0793
57895W        W  833   0.912   7.526  31.700 -0.0404 -0.0543 -0.0810
57896W        W  834   0.568  10.530   1.867  0.0504 -0.1926 -0.0249
57897W        W  835   1.552   8.602   0.536  0.1260  0.0906  0.0496
57898W        W  836   3.811   6.853   1.452 -0.1826  0.4216  0.0920
57899W        W  837   1.985   8.479   2.574  0.0680  0.6573 -0.0992
57900W        W  838   0.540   9.323   0.425 -0.0356  0.2137  0.1745
57901W        W  839   1.568   8.086   4.213 -0.0818  0.0117  0.5897
57902W        W  840  34.673   8.724   2.942  0.1420 -0.0106  0.3207
57903W        W  841   2.968   7.339   1.732  0.3588  0.1227 -0.0112
57904W        W  842  33.551  10.436   2.538 -0.1444  0.1121 -0.1699
57905W        W  843   1.803   7.867   0.884 -0.0472  0.1307 -0.0076
57906W        W  844   0.121   7.727   1.432 -0.0132  0.0094  0.2300
57907W        W  845   3.308   5.986   1.383 -0.0443 -0.0323 -0.1673
57908W        W  846   1.693   8.667  31.220  0.0385  0.1054  0.1222
57909W        W  847   0.905   8.458   1.971 -0.0403 -0.1749  0.0267
57910W        W  848   1.406   7.705   1.635 -0.1416  0.2123  0.0120
57911W        W  849  33.436   8.436   3.610 -0.0661 -0.1270  0.0636
57912W        W  850   1.921   8.443   4.104  0.0363  0.0933 -0.0796
57913W        W  851   2.902   7.249  31.485  0.1445 -0.1710  0.1062
57914W        W  852   3.276   9.009   3.115  0.0624  0.1051 -0.0547
57915W        W  853   1.813   9.718   3.571 -0.1925 -0.0992  0.0344
57916W        W  854  34.499   7.123   0.007  0.2757 -0.0108 -0.2550
57917W        W  855   2.645   8.261   3.033  0.0895 -0.1805  0.1651
57918W        W  856   1.434   8.188   0.308  0.1834  0.1107 -0.0917
57919W        W  857  34.398   9.990   1.520  0.1216  0.0023  0.0609
57920W        W  858   2.627  11.170   2.196 -0.2108  0.0042 -0.0226
57921W        W  859   0.451   8.629   0.386 -0.0322  0.1213  0.3647
57922W        W  860  34.567   8.830   0.981  0.0584 -0.0918  0.1530
57923W        W  861   1.228   6.394   5.093 -0.2182 -0.0180  0.1758
57924W        W  862   2.564   9.770   2.982 -0.1756 -0.0400  0.0417
57925W        W  863   1.650   8.127   2.396  0.0600 -0.1597  0.0654
57926W        W  864   1.836   7.671   1.356  0.0235 -0.0933  0.1381
57927W        W  865   2.507   7.586   0.358 -0.0239  0.0979  0.0094
57928W        W  866   1.490   8.625   2.776  0.1649 -0.0479 -0.0925
57929W        W  867   2.940   8.590   2.068 -0.1683 -0.3044 -0.1485
57930W        W  868   1.124   9.859   3.276 -0.5010  0.0660 -0.0167
57931W        W  869   2.280   5.957   1.269  0.2167 -0.2206  0.0418
57932W        W  870   3.475  10.517   0.272 -0.2122 -0.0474 -0.0553
57933W        W  871   1.614   7.623   3.108  0.1608  0.0129 -0.2419
57934W        W  872   1.481   8.073   1.335 -0.1644 -0.2700  0.0295
57935W        W  873  34.632   9.399   3.897 -0.1113  0.2235 -0.2212
57936W        W  874   2.227   8.988   1.627  0.2190 -0.0168  0.0120
57937W        W  875   1.348   8.254   3.364 -0.0483 -0.1402  0.1876
57938W        W  876   0.733  10.044   2.111 -0.2275  0.0076 -0.2359
57939W        W  877   1.390   9.093   1.357  0.0841  0.2393 -0.3690
57940W        W  878   0.650   9.048   2.244  0.3607  0.0949 -0.1565
57941W        W  879   2.163   7.786  31.738  0.0011  0.1157 -0.0727
57942W        W  880   2.165   9.205   1.072  0.3916  0.1125  0.0131
57943W        W  881   2.181   8.107   1.540 -0.1757 -0.0605 -0.1786
57944W        W  882   3.070   8.170   3.306 -0.3320 -0.0920 -0.0804
57945W        W  883   1.700   7.809   0.004  0.0260  0.0663 -0.0385
57946W        W  884   2.039   7.593   3.965 -0.1405 -0.0464  0.0750
57947W        W  885   0.344   7.241   4.680  0.0659  0.1265 -0.0216
57948W        W  886   5.041   9.926   2.253  0.1706  0.1123 -0.2087
57949W        W  887  33.933   6.460   3.495 -0.0135  0.2400 -0.0615
57950W        W  888   2.636  10.099   3.344 -0.0068  0.0721  0.0615
57951W        W  889   0.849   9.338   3.631 -0.0244 -0.2196 -0.1081
57952W        W  890   1.427   7.406  31.878 -0.0410  0.2214  0.0999
57953W        W  891   1.158   7.039  31.678  0.2884  0.0157 -0.1657
57954W        W  892   2.731   8.133   1.977 -0.2887  0.0654 -0.3591
57955W        W  893   2.913   9.208   0.912 -0.1722  0.1055  0.1337
57956W        W  894   2.098   8.559   1.371  0.0427  0.2185 -0.1218
57957W        W  895   3.345   9.566   0.719  0.0578 -0.4014 -0.0395
57958W        W  896   1.975   7.901   3.301 -0.1351  0.0404 -0.3187
57959W        W  897   2.791   7.636   0.800 -0.1440 -0.2976 -0.2680
57960W        W  898   0.777   8.493   0.797  0.1181 -0.0909  0.4930
57961W        W  899  34.687   9.254   1.793  0.2834 -0.0514  0.1121
57962W        W  900   0.977   6.929   3.260  0.2441  0.1737  0.0529
57963W        W  901   2.960  10.379   1.119 -0.3111  0.1020  0.1976
57964W        W  902   2.022   7.759   0.366  0.1281 -0.5029  0.0933
57965W        W  903   2.596   7.378   1.394 -0.0736 -0.0007  0.4582
57966W        W  904   2.772   8.580   3.748 -0.2496 -0.0399  0.0163
57967W        W  905   0.833   7.851   4.803 -0.1984  0.0351 -0.2740
57968W        W  906  33.909   7.117   3.605  0.1422 -0.0376 -0.0046
57969W        W  907   3.497   9.937   3.194 -0.1326 -0.2245  0.4357
57970W        W  908   2.680   9.435  30.422  0.0150 -0.2168 -0.0561
57971W        W  909   3.989   7.063   1.939 -0.0091  0.2357  0.1267
57972W        W  910   2.784   8.673   0.669  0.3361  0.0886  0.0623
57973W        W  911   0.962   8.360  31.822 -0.1411 -0.0788 -0.2371
57974W        W  912  34.650   7.353   1.739  0.0128 -0.1688 -0.1354
57975W        W  913   2.365   7.929   4.822  0.3680  0.0674 -0.0900
57976W        W  914  34.655   8.555  31.851 -0.0123  0.1231  0.3139
57977W        W  915   1.526   8.526   3.742 -0.1730 -0.2153  0.0223
57978W        W  916   1.318  10.532   0.034  0.0816 -0.0311 -0.1904
57979W        W  917   3.013  10.651   1.668  0.2760  0.1712  0.2167
57980W        W  918   2.481   8.187  31.768  0.0501  0.0817 -0.0129
57981W        W  919   1.159   7.281   1.233  0.1941 -0.0444 -0.2652
57982W        W  920   0.828  10.450   2.449 -0.1240 -0.0809 -0.0141
57983W        W  921  34.204   7.572   0.252  0.2957 -0.3850 -0.1087
57984W        W  922   0.167   9.854   0.392 -0.1549 -0.2693 -0.0419
57985W        W  923   1.572   8.152   2.919  0.0073  0.0602 -0.2331
57986W        W  924   3.345   8.603   5.321 -0.0960 -0.0277  0.2782
57987W        W  925   2.872   7.066  30.748 -0.1721  0.2533  0.0909
57988W        W  926   2.677   7.835   3.193 -0.0005  0.3518  0.0992
57989W        W  927  33.429   7.827   1.145 -0.1748  0.0402  0.2189
57990W        W  928   4.119   7.131   2.391  0.0515  0.1856 -0.1139
57991W        W  929   0.169  10.698   2.592  0.0023  0.1528 -0.0975
57992W        W  930  34.594   8.925   3.454 -0.0406 -0.2693 -0.2913
57993W        W  931   0.147   8.961   2.168  0.1387 -0.1972 -0.2059
57994W        W  932   1.431   7.142   3.128 -0.3667 -0.2572  0.3656
57995W        W  933   3.334   7.828   2.400  0.0921 -0.0626 -0.4590
57996W        W  934   2.483   8.607   2.301 -0.1787 -0.2405  0.1250
57997W        W  935   2.272   8.046   3.933 -0.0656  0.1737  0.0496
57998W        W  936   2.423   8.935   3.747  0.0384  0.0809 -0.0254
57999W        W  937   0.954   7.339   2.990 -0.0454 -0.0918 -0.1509
58000W        W  938   0.078  11.312   3.534 -0.0120  0.1380  0.3202
58001W        W  939   2.561   9.178   0.493  0.0663 -0.0211 -0.1274
58002W        W  940   0.844   9.479   2.073  0.4346 -0.0470  0.2775
58003W        W  941  32.962   7.112   4.029  0.0204 -0.1263 -0.1985
58004W        W  942   0.893   9.893   3.915 -0.0892 -0.0761  0.2056
58005W        W  943   2.391   8.702   2.831 -0.1070  0.0252 -0.0302
58006W        W  944   0.260   8.179   0.186  0.1177 -0.0374  0.0290
58007W        W  945   2.299   9.607   1.502 -0.3089  0.0415 -0.0570
58008W        W  946   1.396  10.017   3.752 -0.3168  0.0559 -0.0782
58009W        W  947   0.346   7.836   3.210  0.3488 -0.0733 -0.1105
58010W        W  948  34.491  10.267   1.951 -0.0976 -0.1596 -0.2908
58011W        W  949   2.556  10.278   0.846  0.1206 -0.0062 -0.2781
58012W        W  950   2.645   9.138   2.375 -0.0601 -0.0450 -0.1348
58013W        W  951   2.731  10.248   2.828 -0.0066  0.0679  0.0924
58014W        W  952   0.460   7.980   1.188  0.1752 -0.2244  0.0675
58015W        W  953   2.033  10.191   2.464 -0.3685  0.0096 -0.2583
58016W        W  954   0.831   8.978   0.602 -0.1556  0.1409  0.0704
58017W        W  955   2.747  11.091   1.562 -0.2885 -0.1767 -0.4381
58018W        W  956  33.407   9.903   1.422 -0.1043 -0.0767 -0.0326
58019W        W  957   3.545   9.426   3.199  0.2050 -0.2122  0.0846
58020W        W  958   2.227   7.911  31.251 -0.0320  0.2736 -0.0864
58021W        W  959   2.946   8.755   1.174 -0.0295  0.4557 -0.2061
58022W        W  960   4.177   8.021   1.967  0.1750  0.1231 -0.2271
58023W        W  961   2.223  10.256   2.916  0.0274  0.2625 -0.0250
58024W        W  962   1.201   8.956   3.704 -0.2420 -0.2288  0.1583
58025W        W  963   0.716   8.000   0.208 -0.0368 -0.1702  0.0210
58026W        W  964   0.883   8.615   4.609 -0.1541 -0.0413 -0.2741
58027W        W  965   3.506   6.106   4.096  0.0549  0.1261  0.0320
58028W        W  966   0.529   9.444   4.081 -0.0739 -0.2227  0.2822
58029W        W  967   3.061   9.991   1.446  0.0038  0.1783 -0.3030
58030W        W  968   0.716   6.991   1.335 -0.2001 -0.2121  0.0169
58031W        W  969   0.802   8.028   2.333  0.0537 -0.0713  0.1523
58032W        W  970   2.297   7.137   2.421  0.1138  0.0107  0.0401
58033W        W  971   1.145   9.078   1.924  0.0208 -0.0062 -0.1685
58034W        W  972   2.437   8.775   1.086  0.5271  0.1752 -0.3648
58035W        W  973  34.396  10.799   1.567 -0.2392  0.0538 -0.3248
58036W        W  974   1.422   9.392   2.262 -0.0630 -0.1393  0.1007
58037W        W  975   2.227   9.373   2.740  0.0730 -0.1074  0.0341
58038W        W  976   0.926   6.448   0.381  0.0340  0.1414 -0.1767
58039W        W  977   3.708   8.091   1.649  0.0804 -0.0922 -0.1170
58040W        W  978   0.489   6.713   3.474  0.0690  0.0199  0.0300
58041W        W  979   4.087   6.726   3.894  0.0079 -0.0728 -0.2141
58042W        W  980  34.269   7.742   2.193 -0.0468 -0.2646 -0.0949
58043W        W  981   3.184   8.167   1.350 -0.0236 -0.1858  0.2293
58044W        W  982   1.445   9.279   4.461  0.1153  0.0458 -0.0741
58045W        W  983  34.517   7.411   3.600 -0.1551 -0.0726  0.1183
58046W        W  984   1.189   9.286   0.736 -0.0592  0.0762 -0.0711
58047W        W  985   3.190   8.903   4.078  0.3452 -0.1151  0.4554
58048W        W  986   1.784   8.698  31.714 -0.1660  0.1770  0.1780
58049W        W  987   2.001  10.821   3.575  0.0149 -0.1541 -0.0505
58050W        W  988   1.111   6.795   0.847 -0.0271 -0.2617  0.2619
58051W        W  989   3.133   6.740  31.013  0.1030  0.3440 -0.1274
58052W        W  990  34.180   8.245   1.641 -0.0701 -0.0974 -0.1069
58053W        W  991   1.289   8.909   3.227 -0.1860 -0.0920  0.0750
58054W        W  992   3.722  10.474   3.732 -0.0020 -0.3242 -0.0976
58055W        W  993   0.007   7.139   2.792 -0.0458 -0.2195  0.1036
58056W        W  994   3.346   8.994   0.151 -0.3237 -0.3555 -0.3714
58057W        W  995   3.253   8.521   2.928  0.2498 -0.0559 -0.3284
58058W        W  996   1.778  10.150   1.953 -0.1936  0.0495  0.0634
58059W        W  997   2.604   9.236   1.343  0.0046  0.2564  0.0621
58060W        W  998   2.335  11.069   2.626 -0.1207 -0.1141  0.0703
58061W        W  999   0.543   6.953   2.988 -0.0665  0.1386  0.0013
58062W        W 1000   1.894   8.951   2.904 -0.2923 -0.5522 -0.0951
58063W        W 1001   3.691   8.849   2.813 -0.1218 -0.2984 -0.0597
58064W        W 1002   2.360   8.495   0.693 -0.1372  0.0319 -0.1605
58065W        W 1003   0.873   7.645   1.909  0.2175  0.2499 -0.2074
58066W        W 1004  34.305   8.883   1.610  0.0447 -0.0340 -0.0386
58067W        W 1005   3.601   8.008   2.773 -0.2102 -0.0152  0.0053
58068W        W 1006   4.584   8.116   2.267  0.1035  0.0949 -0.0817
58069W        W 1007   0.301  10.134   1.661  0.2524 -0.1933  0.1884
58070W        W 1008   4.410   7.078   2.824  0.1040  0.0883  0.0383
58071W        W 1009   1.873   9.833   2.865  0.2961  0.1197 -0.2799
58072W        W 1010   1.368   9.682   2.861 -0.0670  0.0290 -0.0538
58073W        W 1011   0.152   6.860   0.337 -0.3272  0.0254  0.0036
58074W        W 1012   1.000  10.015   4.469 -0.0001  0.1677 -0.2290
58075W        W 1013   1.605   8.553   1.463  0.1378 -0.1829 -0.5980
58076W        W 1014   1.050  10.242   1.735 -0.0357 -0.2673  0.0821
58077W        W 1015   1.817   8.980   1.381  0.2041 -0.4365 -0.0374
58078W        W 1016   2.158   8.969   0.649 -0.1980  0.0972 -0.1467
58079W        W 1017   2.146   8.936   2.466  0.3698 -0.1459  0.0997
58080W        W 1018   2.108   7.098  31.099 -0.1929 -0.1086  0.0143
58081W        W 1019   3.110   6.303   3.130  0.0580  0.0614  0.0417
58082W        W 1020   2.740   8.859   1.620 -0.2726  0.1063 -0.0891
58083W        W 1021   1.180   8.292   2.412 -0.0779  0.0053 -0.2051
58084W        W 1022  34.147   7.054   0.342 -0.1709  0.0750  0.5967
58085W        W 1023   0.299   9.785  31.646 -0.1477 -0.2463  0.1601
58086W        W 1024   0.130   7.482   4.135  0.1114  0.0585 -0.0528
58087W        W 1025   1.921   7.292   2.784 -0.0944  0.1157 -0.1482
58088W        W 1026   0.155   7.125   3.291 -0.2738  0.3486 -0.1324
58089W        W 1027   0.863   8.508   3.701 -0.0273  0.1422  0.1863
58090W        W 1028   0.681   7.163   0.620 -0.2512 -0.1344  0.1933
58091W        W 1029   3.398   8.653   1.285 -0.1752 -0.2392  0.2653
58092W        W 1030   0.525   8.362   2.834  0.1316 -0.1036 -0.1317
58093W        W 1031   0.516   7.136   2.523 -0.1808 -0.3791  0.1428
58094W        W 1032   2.991   9.503   1.622 -0.1231  0.0406  0.0821
58095W        W 1033   4.266  10.290   1.022 -0.2398 -0.0311  0.2873
58096W        W 1034   1.195   6.664  31.380 -0.0631  0.1873  0.0195
58097W        W 1035   2.549   8.208   3.519 -0.2773  0.0176  0.1005
58098W        W 1036   0.147   8.230   1.583  0.0162 -0.0196  0.2633
58099W        W 1037   1.519   7.622   3.976 -0.1589 -0.0879 -0.3213
58100W        W 1038   2.547   7.915   5.350 -0.1991  0.2168 -0.1991
58101W        W 1039  34.376   6.882   1.219  0.0605  0.1702 -0.0427
58102W        W 1040   2.201   7.799   2.770  0.1234  0.2737  0.1656
58103W        W 1041   1.156  10.996  31.806  0.2016  0.1445 -0.1260
58104W        W 1042   3.236   9.577   1.190  0.0577  0.0398 -0.0479
58105W        W 1043   1.724   9.353   3.083  0.5298 -0.0471 -0.4339
58106W        W 1044   1.353   9.166   2.731  0.2362  0.0481 -0.0781
58107W        W 1045  33.959   7.254   2.912  0.1082 -0.0803  0.2016
58108W        W 1046   1.959   9.172  31.939  0.1221  0.3187  0.0177
58109W        W 1047  34.574   7.892   4.096 -0.0740 -0.0338  0.0185
58110W        W 1048   2.528   8.102   0.314  0.2665  0.0891 -0.0041
58111W        W 1049   3.622   8.192   3.553  0.1776 -0.1438 -0.0003
58112W        W 1050   2.315   7.899   0.740 -0.2418  0.0169  0.0114
58113W        W 1051  34.486   7.129   4.672  0.2340 -0.0132 -0.1462
58114W        W 1052   1.041  10.364   4.048  0.0859  0.2200 -0.0177
58115W        W 1053   2.701   8.147   0.865  0.0676 -0.1065 -0.0242
58116W        W 1054   1.163   7.291   0.736  0.0192  0.0522 -0.2573
58117W        W 1055   1.933   7.104  31.615  0.2034 -0.1252  0.2134
58118W        W 1056   1.724   9.104   1.851 -0.3591  0.2652 -0.0658
58119W        W 1057   0.687   8.526   2.381 -0.0941  0.1978 -0.3103
58120W        W 1058   1.388   8.214   0.867  0.2309  0.0858 -0.1748
58121W        W 1059   1.165   8.210   4.600 -0.2185 -0.1388 -0.0132
58122W        W 1060  34.149  10.018   2.451 -0.0016 -0.0329  0.0889
58123W        W 1061   2.892   9.070   3.692  0.0818 -0.1645  0.1351
58124W        W 1062   0.497   7.462   1.066  0.1162 -0.3002 -0.1199
58125W        W 1063   1.998  10.348   0.802  0.3252  0.1937 -0.0497
58126W        W 1064   2.786   9.884   2.032 -0.1585 -0.3061  0.2219
58127W        W 1065   3.573  10.666   4.146  0.2533  0.2478  0.0010
58128W        W 1066   0.954  10.248   2.896  0.0023  0.0077 -0.0530
58129W        W 1067   3.432   7.448   0.681  0.3259  0.2409  0.0226
58130W        W 1068  33.708   7.597   4.288  0.2038  0.3195  0.2361
58131W        W 1069   1.043   8.200   1.599  0.3853  0.1666  0.1877
58132W        W 1070  34.468   9.305   1.346 -0.0330  0.0095  0.1140
58133W        W 1071   3.809   6.736   2.237  0.2066  0.2650  0.2578
58134W        W 1072   1.294   7.918   2.052  0.1733 -0.1492  0.3316
58135W        W 1073   1.961   7.774  30.844  0.1030 -0.1410  0.0633
58136W        W 1074   0.553  10.052   2.576 -0.0672 -0.0130  0.2129
58137W        W 1075   1.736   8.587   1.022  0.0568 -0.3043  0.2277
58138W        W 1076   0.532   9.315   7.675  0.0501  0.0094 -0.0537
58139W        W 1077   0.372   8.072   5.089  0.2191  0.0562  0.4591
58140W        W 1078   1.220   8.050   3.766  0.1855  0.2344  0.2684
58141W        W 1079   3.040  10.120   4.885 -0.0870 -0.2691 -0.3741
58142W        W 1080   1.412   7.972   5.654  0.1174 -0.1511 -0.0848
58143W        W 1081   2.360  10.961   4.401  0.2162  0.1161 -0.0276
58144W        W 1082   1.811   7.608   5.609 -0.1378  0.1643 -0.1763
58145W        W 1083   2.668  10.343   5.379 -0.1753  0.1539 -0.2444
58146W        W 1084   2.478   9.553   6.368 -0.0191 -0.1336  0.0124
58147W        W 1085   1.957   8.517   5.065 -0.0062 -0.0528 -0.6263
58148W        W 1086   1.323   8.224   7.042  0.1642  0.4550  0.4108
58149W        W 1087   0.365  10.836   6.120  0.2046  0.2595  0.1547
58150W        W 1088   0.031   6.582   4.493 -0.1040 -0.0619  0.3630
58151W        W 1089   0.111   7.267   5.944 -0.2399  0.3082 -0.2153
58152W        W 1090   3.846   8.594   6.209  0.1554 -0.3049 -0.2086
58153W        W 1091  34.575   9.999   5.339  0.0927  0.0198 -0.1700
58154W        W 1092  34.598   9.116   7.945 -0.1473  0.1168 -0.0549
58155W        W 1093   1.452   7.644   5.194 -0.3069 -0.0524  0.2184
58156W        W 1094   0.941  11.271   5.154 -0.2680 -0.0030  0.2110
58157W        W 1095   0.947   7.130   6.687  0.1056 -0.0160  0.0217
58158W        W 1096   2.052   6.970   6.009 -0.0038  0.2554 -0.2907
58159W        W 1097   2.203  10.613   5.422  0.1344 -0.0339 -0.0240
58160W        W 1098  34.392   7.519   4.367  0.0774  0.5183  0.0167
58161W        W 1099  34.659   9.271   6.126  0.1954  0.1454  0.2763
58162W        W 1100   0.468   9.449   6.161  0.1519  0.0099  0.2372
58163W        W 1101   2.328   7.570   4.467  0.2084  0.0930 -0.0961
58164W        W 1102   3.821   8.486   4.373  0.3832  0.0312 -0.0533
58165W        W 1103   1.557  10.232   4.418  0.0857  0.0605  0.1862
58166W        W 1104   1.804   8.967   4.576  0.1614 -0.1114 -0.0359
58167W        W 1105   2.518   8.049   7.783 -0.3136  0.3301  0.1411
58168W        W 1106  33.860   9.836   6.478  0.0581  0.6134  0.0392
58169W        W 1107  33.802  10.232   5.168  0.1265 -0.0429  0.2616
58170W        W 1108   1.207  10.330   5.312 -0.0568 -0.0073 -0.0474
58171W        W 1109   3.138   9.511   3.722  0.2466 -0.2341  0.0046
58172W        W 1110   3.010   9.612   6.869  0.0973 -0.1268 -0.0939
58173W        W 1111  34.621  10.965   7.000 -0.2008 -0.1710 -0.1217
58174W        W 1112   1.795   9.814   4.583 -0.0343 -0.0321 -0.0994
58175W        W 1113   0.554  10.767   7.657 -0.1827 -0.1553  0.2385
58176W        W 1114   1.188  12.931   6.538 -0.1531  0.0166  0.2440
58177W        W 1115   2.434   8.281   6.198 -0.2632  0.2795 -0.0455
58178W        W 1116   2.063   9.112   5.732  0.0532  0.1997 -0.1803
58179W        W 1117   1.434   9.982   4.911  0.6047  0.3399 -0.3248
58180W        W 1118   2.155   9.885   6.128  0.0131  0.0531  0.1293
58181W        W 1119   1.178   9.911   6.313 -0.0951 -0.0220 -0.0341
58182W        W 1120   0.953  10.354   6.209  0.0313  0.1203  0.2005
58183W        W 1121   5.454   8.600   6.906  0.1429 -0.0187 -0.0206
58184W        W 1122   2.291  10.786   4.901 -0.1400 -0.1510 -0.0138
58185W        W 1123   3.056   7.966   5.550  0.3359  0.2173  0.1333
58186W        W 1124   0.228   9.035   4.207  0.0918 -0.2075  0.1012
58187W        W 1125   2.372   6.548   4.116  0.1152 -0.1305 -0.1422
58188W        W 1126   1.777   6.023   5.654  0.0135 -0.1438 -0.1694
58189W        W 1127   1.398  10.850   5.192  0.0458 -0.0752  0.3402
58190W        W 1128   2.348   8.176   6.701 -0.0121 -0.0496  0.2719
58191W        W 1129   2.684   9.342   4.902 -0.1360  0.2566 -0.2695
58192W        W 1130   0.662   9.039   4.402  0.1092  0.2024 -0.2960
58193W        W 1131   1.854   8.971   6.188  0.1127  0.3127  0.1031
58194W        W 1132   0.089  11.546   7.180  0.0909 -0.2150 -0.1909
58195W        W 1133   1.273   8.825   5.997 -0.0868  0.0313  0.1627
58196W        W 1134   3.595  10.417   3.228 -0.0335  0.2616 -0.0208
58197W        W 1135   3.143  10.101   5.438  0.2165 -0.0363  0.0265
58198W        W 1136   2.162   9.890   3.280 -0.0098 -0.1858 -0.0006
58199W        W 1137   0.347   9.193   3.491  0.3701 -0.2357 -0.0133
58200W        W 1138   0.241  10.376   6.287 -0.0758  0.1870 -0.2304
58201W        W 1139   0.217   9.468   8.056 -0.1322  0.1745 -0.2082
58202W        W 1140  34.137   7.768   3.809  0.0723 -0.0113 -0.1608
58203W        W 1141   3.199  10.730   6.582 -0.2971 -0.0545 -0.0157
58204W        W 1142   0.078  10.550   7.912  0.1271  0.0419  0.4398
58205W        W 1143   3.407   7.404   4.991 -0.2639 -0.0431  0.0017
58206W        W 1144   1.956  10.252   5.802  0.1801  0.0364  0.0964
58207W        W 1145   2.794   8.734   6.134 -0.1778 -0.1498  0.2010
58208W        W 1146   2.843   7.632   4.588 -0.1058  0.0663 -0.0874
58209W        W 1147   4.149   7.122   4.272  0.1387  0.0076  0.0192
58210W        W 1148   3.142   7.417   6.633 -0.0950 -0.1928  0.3060
58211W        W 1149   1.009   9.842   5.340 -0.2278  0.1801 -0.1069
58212W        W 1150   1.385   9.508   5.264 -0.3038  0.0650 -0.0009
58213W        W 1151   4.325  10.926   4.678  0.2743  0.1547  0.2879
58214W        W 1152   2.558   7.647   4.055  0.3722 -0.1733 -0.0680
58215W        W 1153   1.410  11.234   6.070  0.2799 -0.0434  0.0918
58216W        W 1154   0.216   8.859   6.915  0.2541 -0.0162 -0.0122
58217W        W 1155   1.381  10.298   7.687 -0.2463 -0.0969  0.0511
58218W        W 1156   0.846  11.882   3.917  0.3156  0.4595 -0.2316
58219W        W 1157  34.465   9.910   7.360 -0.0887  0.0906 -0.0926
58220W        W 1158   0.569  10.057   5.520 -0.0869  0.0151 -0.0759
58221W        W 1159   0.467   7.150   6.765 -0.0738  0.2139  0.0909
58222W        W 1160  34.525  11.397   7.624 -0.0971  0.0719 -0.1972
58223W        W 1161   2.505   6.174   5.352 -0.2353  0.0771  0.1785
58224W        W 1162   1.610   8.272   6.062  0.1044 -0.2431  0.1564
58225W        W 1163   4.193   8.128   4.492 -0.0926 -0.0245 -0.0219
58226W        W 1164   0.395   9.944   4.563  0.0366  0.2877  0.2402
58227W        W 1165   2.703   9.707   5.925 -0.1657  0.2279  0.3313
58228W        W 1166   2.952   7.177   4.886 -0.0263  0.0167  0.0509
58229W        W 1167   2.292   9.640   4.803  0.1365  0.0484  0.0899
58230W        W 1168  34.432   8.847   6.907  0.1881  0.2277  0.0899
58231W        W 1169   0.543   9.158   6.571  0.2833 -0.1083  0.1046
58232W        W 1170   0.304   7.623   6.936 -0.0669 -0.2326  0.0816
58233W        W 1171   3.018   8.173   7.053  0.0014 -0.1661  0.2154
58234W        W 1172   3.106   9.079   7.054 -0.0987  0.0160  0.2036
58235W        W 1173   0.017   7.761   5.292  0.0528  0.0704  0.1629
58236W        W 1174   2.164   7.720   6.733 -0.0806 -0.2294 -0.2165
58237W        W 1175   1.801   8.641   5.802  0.1252 -0.0707  0.0534
58238W        W 1176  33.735   9.503   5.963 -0.0897 -0.1576  0.1335
58239W        W 1177   3.783   8.593   7.148 -0.2609 -0.1109  0.2930
58240W        W 1178   2.449   9.345   4.444 -0.1543  0.1590  0.2539
58241W        W 1179   3.137  10.212   6.377  0.1659 -0.0441  0.1325
58242W        W 1180   2.345  10.407   4.507  0.3507  0.3873 -0.0385
58243W        W 1181   0.934   9.094   6.952 -0.0713  0.0541  0.2439
58244W        W 1182  34.343   9.276   4.301 -0.0345 -0.1831  0.1875
58245W        W 1183  34.507  11.441   5.686 -0.1910  0.3516 -0.0194
58246W        W 1184   1.499  10.225   6.067  0.0325 -0.2381 -0.0770
58247W        W 1185   2.827   8.033   4.922  0.3838  0.0213 -0.0892
58248W        W 1186   4.125  10.655   5.066  0.1852 -0.0800  0.0014
58249W        W 1187   2.084   8.378   4.607 -0.4376 -0.4620 -0.0758
58250W        W 1188   0.655   9.963   6.150 -0.0306 -0.0223 -0.1957
58251W        W 1189   2.641   7.093   7.208  0.0455 -0.1824 -0.0764
58252W        W 1190   3.543   8.840   6.812 -0.0306  0.2054  0.0673
58253W        W 1191   1.584   9.170   5.825  0.1086  0.3142  0.2092
58254W        W 1192  34.526   8.840   4.569 -0.0274  0.0651  0.0187
58255W        W 1193   2.192  11.516   5.852  0.0025  0.4331 -0.2494
58256W        W 1194  33.274  11.482   4.632 -0.1599  0.0971 -0.1595
58257W        W 1195   0.043   9.175   5.373 -0.1859 -0.2359 -0.0198
58258W        W 1196   1.581   9.194   4.989 -0.0515  0.1748  0.3664
58259W        W 1197   2.237   6.165   4.906 -0.0231 -0.1022  0.0240
58260W        W 1198  33.532  10.029   8.467  0.0115  0.2372 -0.1323
58261W        W 1199   1.887   9.113   7.146 -0.1703 -0.3147 -0.1591
58262W        W 1200  34.653   7.538   4.812  0.1885 -0.3026  0.0332
58263W        W 1201   0.346  11.476   7.684  0.2053 -0.0250  0.1834
58264W        W 1202   2.752   7.241   4.199  0.3573  0.1693  0.1252
58265W        W 1203   2.168   8.228   3.016  0.1623 -0.0937 -0.3879
58266W        W 1204   2.809  10.436   6.764  0.2154 -0.0123  0.1005
58267W        W 1205   2.812   8.861   5.610 -0.2037  0.1684 -0.1668
58268W        W 1206   0.834   8.175   4.082 -0.0629  0.0884  0.0646
58269W        W 1207   2.894   7.586   3.625  0.1827 -0.1016 -0.1487
58270W        W 1208   0.056   9.903   7.824  0.0902 -0.1249 -0.2136
58271W        W 1209   3.559   7.592   4.140  0.2124 -0.1805  0.1754
58272W        W 1210   2.580  10.622   5.862 -0.0969  0.1924  0.1167
58273W        W 1211   2.137   8.514   3.660  0.0800  0.2740 -0.1355
58274W        W 1212   3.791  10.978   3.776 -0.3845 -0.2649  0.2407
58275W        W 1213   0.981   9.440   6.537  0.0195 -0.2125  0.0890
58276W        W 1214   3.000   9.707   7.392  0.2725  0.1123  0.1406
58277W        W 1215   2.016   9.449   6.165 -0.4004  0.3098  0.0730
58278W        W 1216   2.491   7.774   6.361 -0.2307  0.1605 -0.1258
58279W        W 1217   1.148   9.527   4.812 -0.0200  0.2019  0.3037
58280W        W 1218   2.078   7.216   4.713 -0.0027  0.2413  0.3108
58281W        W 1219   0.754  11.526   5.551 -0.1278  0.0541  0.2960
58282W        W 1220   2.518   7.859   7.073 -0.1778 -0.1789  0.3258
58283W        W 1221   4.031   5.872   5.203  0.2567 -0.2503  0.1342
58284W        W 1222   1.422   7.218   6.477  0.0452 -0.4047  0.0640
58285W        W 1223   3.732   7.880   7.804  0.1652  0.0409  0.0052
58286W        W 1224   2.732   7.597   5.793 -0.0572 -0.1239 -0.0242
58287W        W 1225   3.166   8.755   6.510  0.1856 -0.2185  0.0738
58288W        W 1226   1.088   9.020   4.798  0.0065  0.3578 -0.2086
58289W        W 1227   0.712   8.389   7.495 -0.0993 -0.1727 -0.0388
58290W        W 1228   0.141   9.376   6.686  0.0090  0.0224  0.3908
58291W        W 1229   0.986   9.974   6.791 -0.1118  0.1386  0.5611
58292W        W 1230   3.090  10.679   5.658  0.0889 -0.0593 -0.0961
58293W        W 1231   3.655   9.973   5.575 -0.0039  0.2512  0.2843
58294W        W 1232   2.881   8.334   6.519 -0.0074  0.0063  0.3591
58295W        W 1233   1.736   6.942   4.514  0.0309 -0.0252  0.0570
58296W        W 1234   0.845  10.745   4.257  0.2775  0.0610 -0.2417
58297W        W 1235   0.707   8.916   3.871  0.1006 -0.0222  0.0388
58298W        W 1236   2.805   7.154   5.669  0.0336 -0.0441 -0.1974
58299W        W 1237   1.346  10.634   6.379  0.0390 -0.1522 -0.3209
58300W        W 1238   1.137  10.529   4.658 -0.1885  0.0843  0.1002
58301W        W 1239   2.140   9.326   6.683 -0.0108 -0.1293 -0.0823
58302W        W 1240   0.768  10.268   4.965 -0.0164 -0.0075  0.0605
58303W        W 1241   3.726   6.859   5.731  0.0494  0.0078 -0.0107
58304W        W 1242   0.806   8.805   5.677 -0.1077  0.2304  0.3711
58305W        W 1243   1.490   7.761   4.585 -0.2481 -0.4854 -0.0685
58306W        W 1244   0.428   8.725   4.748 -0.1692  0.0540 -0.4296
58307W        W 1245   2.068   5.877   5.294 -0.1063  0.0051  0.1224
58308W        W 1246   3.054   9.597   5.225 -0.3261  0.0633  0.0436
58309W        W 1247   0.808   7.093   5.700  0.1130  0.1091 -0.0087
58310W        W 1248   2.033   6.356   5.288  0.1971  0.1013 -0.2131
58311W        W 1249  33.339   9.742   7.612  0.1846  0.1051  0.0742
58312W        W 1250   2.022   8.575   6.319 -0.0163 -0.0116 -0.0312
58313W        W 1251   1.785   7.988   3.787  0.1046 -0.0298  0.0425
58314W        W 1252   2.351  10.535   6.655  0.1262 -0.3959 -0.1896
58315W        W 1253   0.940   9.226   7.415 -0.3261 -0.0520 -0.0306
58316W        W 1254  34.383   8.097   4.538  0.0784 -0.3721 -0.0706
58317W        W 1255   3.242   7.738   6.997  0.1374  0.3261  0.3446
58318W        W 1256   2.260   7.495   5.547 -0.0208  0.4859 -0.2355
58319W        W 1257  34.472   9.940   4.697  0.1752  0.2903  0.1408
58320W        W 1258   2.369   9.933   4.277 -0.0375 -0.0401  0.0253
58321W        W 1259   0.625  10.446   4.558  0.0399 -0.4134 -0.2324
58322W        W 1260  34.040   9.936   8.337  0.0388 -0.2303 -0.0719
58323W        W 1261   2.956   9.261   6.024  0.0748  0.3332  0.0529
58324W        W 1262   1.327   9.119   6.625 -0.1941 -0.2062  0.0709
58325W        W 1263   2.287   8.380   5.436 -0.0199 -0.2306 -0.2997
58326W        W 1264   2.894   7.543   6.248 -0.0695 -0.0855 -0.0229
58327W        W 1265   3.896   9.004   5.851 -0.1168  0.1453  0.1310
58328W        W 1266   0.089   9.176   8.415  0.2490  0.2614  0.2911
58329W        W 1267   0.888   9.748   7.272  0.4722 -0.0085 -0.0870
58330W        W 1268   2.429   6.603   5.558 -0.1966 -0.0557  0.0461
58331W        W 1269   4.173  11.478   3.059 -0.2319 -0.2087  0.0298
58332W        W 1270   2.359   8.933   7.024 -0.3829  0.0111 -0.3843
58333W        W 1271   2.326   9.448   5.233 -0.1121 -0.3122  0.1623
58334W        W 1272  33.262   9.414   8.054 -0.0926  0.2178  0.3947
58335W        W 1273   3.595  10.081   4.052  0.1382  0.2653  0.2968
58336W        W 1274   1.342   8.174   6.537 -0.0068 -0.3813  0.2092
58337W        W 1275   0.947   9.294   5.979  0.0580 -0.1106 -0.3103
58338W        W 1276   1.293   8.673   5.044  0.2402  0.1395 -0.1401
58339W        W 1277   0.981  10.455   6.971  0.2286  0.0457 -0.2150
58340W        W 1278   2.798   6.704   3.996 -0.2823  0.0726 -0.0631
58341W        W 1279   3.118   8.472   4.899  0.0981 -0.2037  0.3221
58342W        W 1280   1.813   6.466   5.850 -0.4946  0.0052  0.0406
58343W        W 1281   3.582   6.943   7.245 -0.6664  0.0212  0.1329
58344W        W 1282   3.218   9.091   5.098  0.0077 -0.0280  0.1652
58345W        W 1283   2.110   9.276   8.021 -0.1884 -0.1323 -0.1412
58346W        W 1284   1.960   6.871   7.855  0.1382  0.2353  0.0767
58347W        W 1285   2.670   9.848   5.424 -0.0651  0.1573  0.0661
58348W        W 1286   1.060   7.993   7.371  0.1742 -0.1085 -0.2586
58349W        W 1287   1.826  12.830   9.252  0.1654 -0.3275  0.0654
58350W        W 1288   1.238   9.535   7.023 -0.2347  0.2616 -0.1280
58351W        W 1289   1.739   8.920   5.380  0.2436  0.3432 -0.0264
58352W        W 1290   0.602   8.367   5.953  0.1424 -0.1106 -0.2352
58353W        W 1291   0.548   9.754   6.610  0.3515  0.1037  0.2448
58354W        W 1292   2.365   8.720   5.884 -0.1884  0.1879  0.3092
58355W        W 1293   1.983   9.408   4.390 -0.4994 -0.0407  0.0296
58356W        W 1294   3.516   7.712   5.406 -0.0426  0.1792  0.0066
58357W        W 1295   1.261  10.054   7.252  0.1865  0.0934  0.0792
58358W        W 1296   3.197   8.107   4.518  0.2136 -0.0538 -0.0255
58359W        W 1297   1.799   9.481   5.541  0.1689  0.1397 -0.1997
58360W        W 1298  34.385  10.206   5.914  0.3055 -0.1245 -0.0313
58361W        W 1299   1.034   7.868   6.006  0.2876  0.1086  0.1797
58362W        W 1300   2.349   9.081   6.269  0.1560  0.2250  0.0257
58363W        W 1301   2.925   7.550   5.279  0.1046  0.2163  0.2536
58364W        W 1302   1.775   7.604   7.331  0.0709 -0.2367  0.0470
58365W        W 1303   1.546   8.692   7.042 -0.2299  0.3231  0.1527
58366W        W 1304   0.061   8.017   7.112 -0.0270  0.1218  0.0391
58367W        W 1305  32.833   7.936   6.256  0.0619 -0.0761 -0.0045
58368W        W 1306   1.984  10.218   4.854  0.1397 -0.2358 -0.0113
58369W        W 1307   3.071   7.787   4.158 -0.0169 -0.0076  0.1970
58370W        W 1308   2.849   8.352   7.551  0.0794  0.1542  0.1757
58371W        W 1309   3.202   7.496   5.746 -0.0793  0.0738 -0.2299
58372W        W 1310   1.476   8.614   4.520 -0.1527 -0.2022  0.2698
58373W        W 1311   1.155   8.399   5.644 -0.0793 -0.1901  0.0691
58374W        W 1312   2.845   7.848   6.688  0.0928 -0.0023  0.3098
58375W        W 1313   1.581   6.564   5.418  0.2785  0.0052  0.2569
58376W        W 1314   2.154   8.034   7.365  0.1299 -0.0063  0.0642
58377W        W 1315   1.612  10.631   4.790 -0.1008  0.2589  0.1093
58378W        W 1316   2.458   8.450   4.942 -0.0429 -0.1813 -0.2635
58379W        W 1317   3.538   8.182   5.487  0.0836  0.0149 -0.0682
58380W        W 1318  34.378   8.038   6.281  0.2127  0.3317  0.3103
58381W        W 1319  33.650  11.777   7.679  0.0330 -0.0622  0.0419
58382W        W 1320   1.072   7.397   4.557  0.0883  0.0714 -0.1259
58383W        W 1321   0.329  10.602   3.386  0.1163 -0.2556 -0.0647
58384W        W 1322   1.241  10.640   5.717 -0.0310 -0.1640  0.0878
58385W        W 1323   2.859  10.263   7.448  0.0093  0.0514 -0.2729
58386W        W 1324   1.580   6.783   3.480  0.0316 -0.1125  0.3857
58387W        W 1325   2.052   7.225   6.486 -0.0842 -0.0435 -0.1408
58388W        W 1326   0.706  12.132   3.337 -0.0768 -0.1400 -0.0047
58389W        W 1327   2.888   7.043   6.145 -0.2285 -0.2102 -0.1760
58390W        W 1328   0.638  10.978   5.675 -0.0117 -0.0945  0.2423
58391W        W 1329   0.113  10.349   6.961 -0.1170  0.2962  0.0907
58392W        W 1330   1.557   9.968   5.506 -0.3277 -0.1833 -0.1594
58393W        W 1331   2.672   6.587   5.975  0.2710  0.0308  0.0586
58394W        W 1332   1.301   7.533   7.135  0.3701 -0.0497 -0.0173
58395W        W 1333   2.485  10.144   4.901 -0.0156  0.1020  0.1330
58396W        W 1334   3.583   7.242   6.797 -0.1145  0.1086  0.2050
58397W        W 1335   1.156  11.159   6.492  0.0373 -0.2020 -0.3528
58398W        W 1336   1.459   9.441   6.230  0.3700 -0.1840  0.0859
58399W        W 1337   2.725   9.127   6.692  0.1869  0.0337  0.2526
58400W        W 1338   3.566   8.798   4.917  0.1123 -0.0621 -0.1006
58401W        W 1339   1.294   9.586   5.779 -0.0171  0.0165  0.1995
58402W        W 1340  34.402   7.829   7.456 -0.0708 -0.0656  0.0189
58403W        W 1341   1.575   9.178   8.098 -0.4159  0.1730  0.1155
58404W        W 1342   1.849   9.651   5.103  0.1617  0.1028 -0.0566
58405W        W 1343   2.732   6.258   4.329  0.0533  0.0858  0.0341
58406W        W 1344   2.693   9.650   3.496  0.2472  0.0445 -0.2751
58407W        W 1345   0.856  10.525   8.504  0.1002  0.1534 -0.1706
58408W        W 1346  34.282   8.997   6.441 -0.3466 -0.3108  0.1399
58409W        W 1347   0.559  11.036   2.911 -0.2948  0.1148  0.2103
58410W        W 1348   2.811   8.728   3.226 -0.0008 -0.2756  0.4853
58411W        W 1349   0.347  10.167   3.653  0.0289  0.2133  0.0810
58412W        W 1350   2.924  11.765   5.525  0.0824  0.3854 -0.0551
58413W        W 1351   1.539   8.644   6.412 -0.1718 -0.0466 -0.1270
58414W        W 1352   0.645  10.266   6.559 -0.2555 -0.0888 -0.3518
58415W        W 1353   0.235  10.181   5.046  0.2298  0.3332  0.1292
58416W        W 1354   3.285  10.341   4.423  0.2967  0.2715 -0.0788
58417W        W 1355   0.746   9.683   5.747  0.1719 -0.1864  0.2295
58418W        W 1356   2.870   8.657   6.940  0.0707 -0.3212 -0.0341
58419W        W 1357   2.277   7.641   2.337 -0.2847  0.2126  0.1383
58420W        W 1358   3.547   9.379   5.374 -0.1193 -0.1192  0.1229
58421W        W 1359   4.045   8.283   4.008 -0.0102  0.3203  0.0505
58422W        W 1360   0.906   9.761   7.766 -0.3376 -0.0926  0.1486
58423W        W 1361   1.229   8.883   5.482 -0.2035 -0.0844 -0.0432
58424W        W 1362   1.058   7.323   5.303 -0.1379 -0.2731  0.0230
58425W        W 1363   2.669  10.303   6.233 -0.1574  0.0420 -0.3916
58426W        W 1364   3.473   6.055   7.425 -0.1575 -0.1218 -0.2240
58427W        W 1365  33.923  12.107   8.146 -0.1994 -0.0002 -0.3158
58428W        W 1366   1.995   7.933   4.363  0.2781  0.2896 -0.0404
58429W        W 1367   0.001   8.271   5.329 -0.0182 -0.1962 -0.2766
58430W        W 1368   1.322   8.180   5.084  0.0427  0.0326 -0.0407
58431W        W 1369   4.348   6.021   5.782  0.2059 -0.0345  0.1239
58432W        W 1370   1.118   8.961   4.213 -0.0238 -0.3010  0.0253
58433W        W 1371   2.536   7.358   6.598  0.0436  0.2276  0.1026
58434W        W 1372   2.184  10.105   5.363  0.0577  0.1901 -0.1904
58435W        W 1373   0.803  10.445   5.711  0.4768 -0.4421  0.0748
58436W        W 1374   1.293  11.018   4.750  0.0687 -0.1131 -0.0378
58437W        W 1375  33.666   7.077   4.151 -0.4938  0.1034 -0.1525
58438W        W 1376   4.061   7.573   4.090  0.1474 -0.0370 -0.1198
58439W        W 1377   2.342   8.908   5.391 -0.1242  0.0761  0.3846
58440W        W 1378   4.018   7.381   8.424 -0.1469 -0.2707 -0.0744
58441W        W 1379   0.917   8.930   6.315 -0.0928 -0.1169 -0.0737
58442W        W 1380   3.174   8.483   5.773  0.2738  0.1938  0.1909
58443W        W 1381   2.780   9.292   5.425 -0.1144  0.0272 -0.2087
58444W        W 1382   0.273   8.465   7.319  0.1320 -0.0631 -0.2130
58445W        W 1383   0.968   9.423   4.370  0.0386  0.2771  0.0714
58446W        W 1384   3.258   8.596   7.324 -0.1736  0.0261 -0.0420
58447W        W 1385   2.875   8.533   4.482  0.3274 -0.0873  0.1970
58448W        W 1386   2.243  10.635   7.932  0.1640 -0.2052  0.0404
58449W        W 1387   1.557   8.449   5.410  0.2096  0.0072  0.1090
58450W        W 1388   1.951   7.702   4.821 -0.4172  0.3196  0.3150
58451W        W 1389   0.567   8.454   5.379 -0.2638 -0.0051  0.0980
58452W        W 1390   2.464   7.305   6.062  0.1698  0.2045 -0.0008
58453W        W 1391   2.499  11.099   8.134 -0.1985 -0.3006 -0.0023
58454W        W 1392   0.604   7.108   5.190  0.2297 -0.0676  0.1230
58455W        W 1393   2.654   8.123   4.438  0.0001 -0.0054  0.0778
58456W        W 1394   1.740   7.057   7.298 -0.0286 -0.0189  0.1640
58457W        W 1395  34.589  10.497   3.861  0.0926 -0.3135 -0.1506
58458W        W 1396   3.502   9.445   6.097 -0.1586  0.0775 -0.0172
58459W        W 1397   1.269  10.847   6.852 -0.4132  0.0906  0.2475
58460W        W 1398   0.536   7.930   6.324 -0.4483 -0.1401  0.2317
58461W        W 1399   2.179  10.966   6.462 -0.0914 -0.1897 -0.0563
58462W        W 1400   3.859   9.551   5.744  0.0330  0.0993 -0.1230
58463W        W 1401   1.854   8.204   6.634 -0.1833 -0.0869 -0.2404
58464W        W 1402   1.194   7.670   6.647 -0.2222 -0.3604  0.2284
58465W        W 1403   0.335  10.709   4.855 -0.0673 -0.2437 -0.3770
58466W        W 1404   3.587   7.487   6.284  0.0765  0.0743 -0.2395
58467W        W 1405   2.051   8.486   7.024 -0.1262  0.0253  0.0349
58468W        W 1406   2.106   9.337   3.412 -0.0034 -0.0084  0.0696
58469W        W 1407   4.178   8.234   8.314  0.1801  0.1579 -0.2176
58470W        W 1408   1.790  10.084   7.394  0.2904 -0.2946 -0.0058
58471W        W 1409   1.751  10.632   8.025 -0.0967  0.1901  0.0253
58472W        W 1410   0.293  10.587   4.217 -0.1043 -0.1421 -0.1757
58473W        W 1411   1.693   9.439   6.776 -0.2884 -0.1063 -0.0641
58474W        W 1412   1.710   9.785   5.969 -0.0697 -0.0765  0.2260
58475W        W 1413   1.176  11.171   5.575 -0.0626  0.0287 -0.0957
58476W        W 1414   1.801  11.057   5.641  0.1876 -0.0004 -0.3255
58477W        W 1415   2.938   8.038   6.075 -0.3318 -0.0561 -0.1518
58478W        W 1416   3.261   9.060   5.685 -0.0140  0.1161 -0.1378
58479W        W 1417   1.568   7.319   4.833  0.0732  0.3404  0.0635
58480W        W 1418   3.262   6.546   4.288 -0.0405  0.1759  0.1202
58481W        W 1419   2.702   6.857   4.563 -0.3163 -0.0818 -0.1577
58482W        W 1420   0.550  10.058   7.055 -0.0690  0.3005 -0.0511
58483W        W 1421   0.581  10.217   4.163 -0.1994 -0.0296 -0.3551
58484W        W 1422   1.268   9.360   3.972  0.1240  0.2334  0.2616
58485W        W 1423   0.149   9.793   5.918 -0.0638 -0.1217 -0.3328
58486W        W 1424   2.813   6.934   6.782 -0.2646 -0.0390  0.4469
58487W        W 1425  33.973   8.146   6.605 -0.2286  0.2659  0.0124
58488W        W 1426   1.005   8.457   6.213  0.3061  0.1172 -0.0673
58489W        W 1427   1.993   6.867   5.522  0.0079 -0.1171 -0.0288
58490W        W 1428   2.691   8.966   4.165 -0.2220 -0.0308  0.0359
58491W        W 1429   2.045   7.582   6.142  0.5138  0.0640 -0.1825
58492W        W 1430   0.676   8.563   7.034  0.1481 -0.2302 -0.2248
58493W        W 1431   2.525   9.216   5.841  0.1874 -0.0799 -0.2482
58494W        W 1432   2.133   9.066   4.968  0.0143 -0.2387  0.2467
58495W        W 1433   1.839   8.053   5.198  0.0549 -0.0191 -0.0196
58496W        W 1434   3.306  11.679   6.605 -0.4014  0.0069  0.0560
58497W        W 1435  34.409   9.044   5.017  0.0236 -0.0979  0.0770
58498W        W 1436   0.178   8.061   7.564 -0.0489  0.0785 -0.2910
58499W        W 1437   0.616   7.329   7.847  0.0691  0.1074  0.1214
58500W        W 1438  34.574   7.013   4.115  0.0458  0.0741 -0.2081
58501W        W 1439   1.921   8.884   6.699 -0.0360  0.1017 -0.1751
58502W        W 1440   2.621  10.266   3.840  0.2916  0.1018  0.0894
58503W        W 1441   2.271  10.372   3.488  0.1234 -0.1593 -0.1207
58504W        W 1442   2.225  10.469   6.183  0.0061 -0.1728  0.4498
58505W        W 1443   1.860  10.520   6.580 -0.2865 -0.1509 -0.3663
58506W        W 1444  34.455   7.953   5.698 -0.0309 -0.1955 -0.1197
58507W        W 1445   2.151   8.951   4.175 -0.0215 -0.0229  0.0661
58508W        W 1446   0.948  10.045   8.228  0.2466  0.1641 -0.2451
58509W        W 1447   3.834   9.509   3.630  0.0983  0.2575 -0.1579
58510W        W 1448   3.982   6.561   6.219  0.0402  0.1248 -0.2710
58511W        W 1449   2.646   8.364   5.766 -0.3761 -0.1362  0.1674
58512W        W 1450   0.390   7.598   7.423 -0.2378  0.0337  0.1330
58513W        W 1451  34.152   9.595   7.088  0.2786  0.2701  0.3135
58514W        W 1452   4.874   8.047   6.543 -0.1504 -0.0208  0.0594
58515W        W 1453   0.621   7.555   5.987  0.1184 -0.1044 -0.0312
58516W        W 1454   0.796   8.349   4.979  0.3309 -0.0827 -0.0942
58517W        W 1455   1.902  11.035   4.613  0.1714  0.2507 -0.0530
58518W        W 1456   0.126   8.905   6.465 -0.0716  0.1511  0.2564
58519W        W 1457   1.951   8.120   5.707  0.2548 -0.0008  0.0372
58520W        W 1458   1.689   9.944   6.916 -0.1158  0.0958 -0.2043
58521W        W 1459   2.219   9.713   5.698  0.0798  0.0798  0.0952
58522W        W 1460   2.478   8.667   6.582  0.1368 -0.0141  0.0388
58523W        W 1461   0.483   8.916   6.051  0.2569 -0.1632 -0.1009
58524W        W 1462   3.775   9.265   4.972  0.0193 -0.0185 -0.1190
58525W        W 1463   2.538  10.626   7.184 -0.4581 -0.1049 -0.3488
58526W        W 1464   3.617  10.804   6.120  0.1859  0.0169  0.0776
58527W        W 1465   1.219   9.169   7.803 -0.0261  0.1682  0.3984
58528W        W 1466   3.769   7.878   4.490 -0.2725 -0.1238  0.2628
58529W        W 1467   0.631   8.530   6.492 -0.1114 -0.1214  0.1371
58530W        W 1468   1.052  10.048   5.807 -0.0902 -0.1432 -0.2922
58531W        W 1469   0.917   9.279   5.411  0.1713  0.1684  0.1277
58532W        W 1470   3.303   7.904   6.397  0.0579  0.0285 -0.1296
58533W        W 1471   1.740   7.379   6.870  0.0252  0.1363 -0.1222
58534W        W 1472   1.949   7.366   5.196  0.0364  0.0328 -0.0952
58535W        W 1473   1.163  12.779   6.014 -0.1390  0.2188  0.3443
58536W        W 1474   2.503  10.134   5.791 -0.1336  0.1599 -0.2979
58537W        W 1475  34.584  10.444  10.657 -0.2001 -0.0421 -0.1193
58538W        W 1476  34.466   8.688   8.773  0.0464 -0.1751  0.3065
58539W        W 1477   3.267   8.026   7.712 -0.0910 -0.1157 -0.0510
58540W        W 1478   4.703   9.454   8.793 -0.2268  0.0417  0.0745
58541W        W 1479   0.729   8.536   9.519 -0.0973 -0.2004 -0.2274
58542W        W 1480   3.891  11.120   7.777  0.0942 -0.1400 -0.1833
58543W        W 1481   2.217  10.493   9.879  0.0380  0.1540  0.1148
58544W        W 1482   4.116  10.142  10.019  0.0543  0.3753  0.1491
58545W        W 1483   3.106  11.156   7.269  0.2482  0.0580 -0.0340
58546W        W 1484   1.533   8.968   9.885 -0.1397 -0.1132 -0.1198
58547W        W 1485   2.093   7.310   7.590  0.4692  0.0799 -0.1089
58548W        W 1486   0.265   6.701  10.175  0.1035 -0.1501  0.1564
58549W        W 1487   3.724   9.506   9.150 -0.1776 -0.1728 -0.5070
58550W        W 1488   0.137   8.429   9.037 -0.0297  0.0617 -0.2187
58551W        W 1489   1.209   8.632   9.061  0.1532  0.1648 -0.1904
58552W        W 1490   2.456   9.652   6.884 -0.3905  0.0207 -0.2090
58553W        W 1491   2.696   9.405  10.405  0.1476 -0.1812 -0.2557
58554W        W 1492   2.661  10.256  10.014  0.0673 -0.1248 -0.0068
58555W        W 1493   2.718  10.604   8.335  0.1184  0.0089  0.0581
58556W        W 1494  34.239   9.038   7.383 -0.3916 -0.1539 -0.1282
58557W        W 1495   0.450   8.369   9.915 -0.1265 -0.3600  0.0777
58558W        W 1496   2.036   9.436  10.279 -0.0090  0.0848 -0.0387
58559W        W 1497   3.138   8.620   9.404  0.4806 -0.3331 -0.1984
58560W        W 1498   2.635  10.358   9.472  0.4206  0.1889 -0.0871
58561W        W 1499   2.129  10.444   9.380 -0.0996 -0.1416 -0.4131
58562W        W 1500   1.468  10.521   9.181 -0.0609 -0.2121  0.2265
58563W        W 1501  33.459   9.633  10.611 -0.0733  0.0161  0.0112
58564W        W 1502   0.494   9.777   9.579 -0.1458 -0.0700 -0.0636
58565W        W 1503   0.395  10.270   8.334  0.0309  0.2265  0.1925
58566W        W 1504   4.391   9.077   8.474  0.1670  0.1119 -0.1139
58567W        W 1505  33.639  10.367   8.908  0.1157  0.1130 -0.0165
58568W        W 1506   2.404   9.663   8.778 -0.0228 -0.0733 -0.1981
58569W        W 1507   2.199  10.875   9.572 -0.0281  0.2161  0.1071
58570W        W 1508   2.543  10.119   7.097 -0.0635 -0.3121  0.3614
58571W        W 1509   3.576  10.145   8.544  0.1202  0.1221 -0.2745
58572W        W 1510   0.958   9.373   9.302  0.3314 -0.0184 -0.2347
58573W        W 1511   0.790   9.302   8.038 -0.1180  0.3526  0.2409
58574W        W 1512   4.138   7.791   9.931  0.1690  0.1573  0.0251
58575W        W 1513  34.637   8.445   6.575 -0.1756  0.2625  0.2358
58576W        W 1514   2.805   8.903   7.925  0.0071 -0.1253 -0.1767
58577W        W 1515   2.424   6.914   8.317 -0.0739 -0.0448  0.0752
58578W        W 1516   1.330   9.311   9.651 -0.0278 -0.0103  0.0728
58579W        W 1517   2.983   9.164   8.654 -0.0223  0.0167  0.0507
58580W        W 1518   1.831   9.586   8.371 -0.1530  0.0970 -0.0657
58581W        W 1519   1.913   7.583   9.432  0.3279 -0.0277 -0.0325
58582W        W 1520   2.320   9.022  10.257  0.2208  0.2809 -0.0411
58583W        W 1521   1.053   8.658   7.304  0.1506  0.2669  0.1240
58584W        W 1522   2.482  11.210   6.756 -0.1114 -0.0795 -0.1667
58585W        W 1523   4.860   9.435   8.251 -0.2136 -0.0397 -0.1987
58586W        W 1524   1.644  11.637   9.065 -0.1168  0.0985 -0.0482
58587W        W 1525  34.144   8.816   7.822  0.1050  0.0044  0.1751
58588W        W 1526   0.474   8.111   8.012 -0.0450  0.1506 -0.1030
58589W        W 1527   3.156   7.472   8.811  0.2349  0.3054  0.1429
58590W        W 1528   3.557  11.592  10.817  0.0810 -0.0559 -0.1218
58591W        W 1529   5.896   9.859   9.702 -0.2467  0.1834  0.2113
58592W        W 1530   2.724   8.838   7.456  0.1590 -0.0662  0.3978
58593W        W 1531   2.101   8.562   9.350 -0.0005 -0.1252 -0.0522
58594W        W 1532   3.011   8.740   8.923  0.1140  0.0018 -0.1739
58595W        W 1533   0.504   9.440   7.036  0.1572  0.3138  0.0015
58596W        W 1534   2.115   8.958   7.539 -0.0392 -0.0766 -0.1067
58597W        W 1535   4.418   9.875   8.701  0.0587 -0.0831  0.0596
58598W        W 1536   2.318   8.800   8.074  0.0340  0.1553 -0.0997
58599W        W 1537   1.490  10.010   9.822 -0.0309  0.1230 -0.2927
58600W        W 1538   0.025  10.624   8.417 -0.0547 -0.2256 -0.0994
58601W        W 1539   1.928  12.074  12.031  0.2003  0.3565  0.4611
58602W        W 1540  33.985   9.951   8.867 -0.1995  0.0148 -0.4984
58603W        W 1541   0.074   8.487   9.574 -0.0325  0.0007 -0.2015
58604W        W 1542   2.711   9.728  10.014 -0.0032 -0.3798  0.1179
58605W        W 1543   3.967   9.104   8.956 -0.1025  0.3410 -0.4175
58606W        W 1544   2.441   7.629   9.408 -0.2118  0.1592 -0.0842
58607W        W 1545  34.444   9.836   8.919 -0.0469 -0.3310  0.1640
58608W        W 1546   3.479  11.406   7.845 -0.1136 -0.0277 -0.2211
58609W        W 1547   4.280  10.076   7.297  0.2310  0.0769 -0.0204
58610W        W 1548   2.683  10.885   6.424  0.1315  0.2649 -0.1549
58611W        W 1549  33.879   8.429  10.253 -0.0680  0.0249 -0.2588
58612W        W 1550   0.279   8.700   8.525 -0.4135  0.1145 -0.2169
58613W        W 1551   0.972   7.003   9.185  0.3848 -0.0595 -0.0590
58614W        W 1552  34.623   8.156   8.025  0.3508 -0.3424 -0.1146
58615W        W 1553   2.128   9.702   9.310  0.1411 -0.0828 -0.2017
58616W        W 1554   1.363   9.238   9.055  0.0205  0.1250  0.2319
58617W        W 1555  34.165  10.959   9.876 -0.0588  0.4130  0.3132
58618W        W 1556   2.570  10.224   7.947  0.0161  0.1024  0.0119
58619W        W 1557   4.985  10.185   6.927 -0.1672 -0.0117 -0.3961
58620W        W 1558   3.366  10.399   7.563  0.2916 -0.1812 -0.3933
58621W        W 1559   2.301   9.937  10.275  0.1344 -0.4298  0.2189
58622W        W 1560   0.071   9.023   7.505 -0.0845 -0.1095 -0.0640
58623W        W 1561  34.412   9.287   8.860  0.0972 -0.1409  0.2021
58624W        W 1562   2.455   9.894   9.647  0.2497  0.1293  0.3815
58625W        W 1563   0.404   8.271   8.611 -0.2246  0.0184 -0.1046
58626W        W 1564   4.049  10.709   9.082 -0.1403 -0.0173 -0.2357
58627W        W 1565   1.809   9.761   8.905  0.1260  0.1071  0.0177
58628W        W 1566   1.552   8.924   9.360  0.0862  0.0175  0.0907
58629W        W 1567   3.024   9.465   9.094 -0.0074 -0.2438  0.3637
58630W        W 1568   0.547   6.548   7.954 -0.0035 -0.0073 -0.0989
58631W        W 1569   1.592  10.963   8.363 -0.1459 -0.0650 -0.2057
58632W        W 1570   0.424   9.752   7.523 -0.0044 -0.0014  0.0945
58633W        W 1571  33.616   9.062   9.551  0.1694 -0.0966  0.3230
58634W        W 1572   0.768   9.568   8.836 -0.0754  0.3754 -0.1419
58635W        W 1573   2.055   6.265  10.219 -0.1368  0.3331  0.0705
58636W        W 1574   0.135   9.779   6.926 -0.1730 -0.3786  0.0767
58637W        W 1575   1.585   7.161   8.406  0.2032  0.2696 -0.2501
58638W        W 1576   2.629   8.754   8.528  0.1201  0.4742  0.0999
58639W        W 1577   3.153  10.066   6.960  0.0162  0.0302  0.0599
58640W        W 1578   2.001   7.997   8.296 -0.1199  0.1921  0.1022
58641W        W 1579   1.837   8.452   8.016  0.1590  0.1099  0.1890
58642W        W 1580   1.931   9.705   7.739 -0.2084 -0.2468  0.3299
58643W        W 1581   3.464   9.416   8.635 -0.0336  0.1896 -0.2223
58644W        W 1582  34.582   8.554   7.646  0.1783  0.0408  0.0878
58645W        W 1583   3.980  10.021   6.499  0.0698  0.0571 -0.0887
58646W        W 1584   0.850   8.480  10.164  0.0986 -0.0962  0.0440
58647W        W 1585   2.903  10.973   6.871  0.1530 -0.0197 -0.0927
58648W        W 1586   2.088   5.834   9.942 -0.2516 -0.0636  0.2062
58649W        W 1587   2.207   9.449   7.282 -0.1114 -0.0852 -0.3201
58650W        W 1588   1.185   7.885   7.949  0.4687  0.2274  0.0413
58651W        W 1589  34.546  11.267   9.072 -0.1624 -0.1485  0.1301
58652W        W 1590   2.030   6.618   9.860  0.1309 -0.0028  0.1916
58653W        W 1591   0.892   7.968  10.189  0.0667 -0.1318 -0.0368
58654W        W 1592   2.750   9.654   8.056  0.0392  0.1874 -0.1487
58655W        W 1593   2.204   8.708   8.822 -0.1574  0.2476 -0.1322
58656W        W 1594   0.817   8.840   7.747  0.0737  0.0554  0.0262
58657W        W 1595   2.067   8.065   9.790  0.0510 -0.0955  0.1221
58658W        W 1596   0.744  10.222   9.831  0.1286  0.0332 -0.0832
58659W        W 1597   1.958  10.049   8.388 -0.1946 -0.2025  0.0962
58660W        W 1598   0.873   7.890   8.685  0.1079  0.0629  0.0699
58661W        W 1599   1.424  10.962   7.819  0.0669  0.0079 -0.0041
58662W        W 1600   0.536  10.201   7.859  0.0613  0.0399 -0.0406
58663W        W 1601   1.845   8.012   9.008 -0.1850 -0.2398  0.0384
58664W        W 1602   1.672   7.623  12.242  0.0561 -0.1609 -0.4387
58665W        W 1603   1.785   9.809   6.424  0.1714 -0.0762  0.0236
58666W        W 1604   4.470  10.836   9.485  0.0936  0.0862 -0.3841
58667W        W 1605   0.273   9.280   9.753 -0.1174  0.1042 -0.1386
58668W        W 1606   2.331   8.093   9.273 -0.2162  0.1733 -0.2956
58669W        W 1607  33.963   8.675   9.784  0.1555 -0.2640 -0.0486
58670W        W 1608   1.843   8.062   7.749  0.0213  0.0508  0.0822
58671W        W 1609  34.208   9.647   9.285  0.0792  0.3271 -0.1003
58672W        W 1610   2.625   8.533   9.190  0.0193  0.2797  0.2819
58673W        W 1611   3.242   9.256   6.543 -0.2097  0.2451  0.1277
58674W        W 1612   0.690   7.803  10.599 -0.1637  0.0154  0.3124
58675W        W 1613   1.843   8.798   8.355 -0.2097  0.1239  0.2836
58676W        W 1614   1.762   9.857  10.220  0.0464  0.1659  0.0004
58677W        W 1615   2.258   8.409   8.429 -0.0434  0.3694 -0.2108
58678W        W 1616  33.814   9.252   7.441 -0.0196 -0.1470 -0.2367
58679W        W 1617   1.152   7.525  10.144 -0.3577  0.2440  0.0287
58680W        W 1618   1.286   8.778   8.565  0.1380 -0.0872  0.1251
58681W        W 1619   0.198  10.667   9.252 -0.0919 -0.2213  0.3106
58682W        W 1620   2.363  10.579  10.423 -0.2401  0.1261 -0.0226
58683W        W 1621   1.260   9.641   8.841  0.3136 -0.0427 -0.0112
58684W        W 1622  34.641   8.660   8.204 -0.0080  0.0650  0.2710
58685W        W 1623   3.335   6.926  10.450  0.0613  0.1072  0.0210
58686W        W 1624   1.872   8.782  10.303 -0.3749 -0.1067 -0.0313
58687W        W 1625   0.750   8.701   8.270 -0.0997 -0.1101 -0.0600
58688W        W 1626   3.261   8.960   9.799  0.1360 -0.0875  0.3629
58689W        W 1627   3.602  10.978   8.322  0.2614 -0.0490 -0.0529
58690W        W 1628   1.565   8.010   9.592 -0.2809 -0.1754  0.0991
58691W        W 1629   2.047   7.154   8.711  0.1556 -0.1750  0.0534
58692W        W 1630   4.554  10.478   6.075 -0.1242 -0.1453  0.1636
58693W        W 1631   1.276   8.704   8.074 -0.0244 -0.3271 -0.0798
58694W        W 1632  34.147   9.787  10.145  0.1421 -0.2633  0.0611
58695W        W 1633   1.612   9.209   8.581  0.2144  0.3107  0.4131
58696W        W 1634   2.614   8.316   8.771 -0.2703 -0.0239 -0.0485
58697W        W 1635  34.639   9.309   9.319  0.2113 -0.0975 -0.0531
58698W        W 1636   0.435   9.978   8.807  0.1454  0.4067 -0.2646
58699W        W 1637   1.004  11.256  11.082 -0.1589 -0.2610  0.1297
58700W        W 1638   4.107   7.655   7.489 -0.1255  0.1361 -0.4794
58701W        W 1639   3.151  10.251   8.323  0.2341  0.1834  0.0318
58702W        W 1640   2.104   9.267   8.694  0.1668  0.1508  0.0781
58703W        W 1641   3.151   9.176   7.553 -0.0537 -0.4326  0.0791
58704W        W 1642   1.532   6.602   9.908  0.0941 -0.1268  0.1011
58705W        W 1643   3.762  10.262   9.125  0.1716  0.4419  0.2479
58706W        W 1644   1.563   8.762   7.580 -0.0308 -0.0012 -0.1715
58707W        W 1645   1.279   7.751   8.418 -0.0427  0.2285 -0.1773
58708W        W 1646   0.589   8.626   8.970 -0.0730  0.2729  0.0201
58709W        W 1647   4.667   9.445   9.450  0.0419  0.3801  0.3843
58710W        W 1648   1.598  11.012   7.254 -0.1737 -0.0692 -0.1664
58711W        W 1649   3.116  10.255   9.666  0.0635  0.1241 -0.2238
58712W        W 1650   0.809  10.945  10.752 -0.0696  0.0449 -0.1359
58713W        W 1651   2.498  10.026   9.096  0.2525  0.0953 -0.1276
58714W        W 1652   2.428   9.806   7.649 -0.1157 -0.0322 -0.2399
58715W        W 1653   1.428   9.688   9.298  0.0960  0.0249 -0.0693
58716W        W 1654   2.019  11.234  10.434 -0.0134 -0.0447 -0.2216
58717W        W 1655   3.033   8.401   8.454 -0.0343  0.1902 -0.0554
58718W        W 1656   3.769  10.590   8.755 -0.1606 -0.3625 -0.0746
58719W        W 1657   3.473   8.335   6.838  0.0481  0.2619 -0.2111
58720W        W 1658   6.221   9.249   9.679 -0.0071  0.3769  0.1874
58721W        W 1659   3.610  10.093   8.006 -0.0126  0.0621 -0.0978
58722W        W 1660   2.716   9.294   7.229  0.1782 -0.0141 -0.0334
58723W        W 1661   0.209   7.234   9.867 -0.0664 -0.1991 -0.0439
58724W        W 1662   0.853   7.420   8.578 -0.0380 -0.4496 -0.3948
58725W        W 1663   2.261  10.658   8.480 -0.2874 -0.2447 -0.1737
58726W        W 1664   3.941   9.888   9.379  0.0031  0.0745  0.3852
58727W        W 1665   3.080   9.315   8.196  0.0591 -0.0616 -0.0443
58728W        W 1666   0.336   8.895   9.441 -0.1356  0.0750 -0.1229
58729W        W 1667   0.613   7.983   7.145 -0.0452 -0.1327 -0.0952
58730W        W 1668   1.739   9.256   7.638 -0.0800 -0.4324 -0.1112
58731W        W 1669   1.532  11.066  10.485  0.0013  0.2940 -0.0330
58732W        W 1670   1.385   9.102   7.253 -0.3873  0.0360 -0.1278
58733W        W 1671   0.049  10.271   8.877  0.0200  0.2784 -0.3063
58734W        W 1672   2.502   6.412   8.705 -0.2040  0.0359 -0.4920
58735W        W 1673   0.208   9.524   8.801  0.3249  0.0627 -0.1303
58736W        W 1674   1.102   9.240   8.498  0.1365 -0.1751 -0.1548
58737W        W 1675   0.681   8.483  10.690  0.0464 -0.0313 -0.0026
58738W        W 1676   4.019   8.337   9.153  0.2265  0.0622 -0.0109
58739W        W 1677   1.825   9.314   9.311 -0.2064  0.0635  0.3051
58740W        W 1678   0.935   9.042   8.937  0.0050  0.1504 -0.1458
58741W        W 1679   3.545  10.522   9.559  0.1035  0.1136  0.2529
58742W        W 1680   1.981   8.984   9.682 -0.1732 -0.1390  0.1214
58743W        W 1681   2.526   9.169   8.875 -0.1106 -0.0516 -0.0316
58744W        W 1682   0.403   8.194  10.378 -0.4695 -0.0992  0.2908
58745W        W 1683   1.620  10.036   8.019  0.0013  0.0196 -0.2798
58746W        W 1684   2.458   8.782   9.637  0.0438 -0.2359  0.1197
58747W        W 1685   0.473  11.028   9.435 -0.2115 -0.3817  0.1224
58748W        W 1686   2.947   9.662   8.629  0.0549  0.0804 -0.3526
58749W        W 1687   2.617  10.006   6.596  0.3537  0.2339  0.1310
58750W        W 1688   1.233  10.816  10.166 -0.1907  0.2156 -0.0375
58751W        W 1689   0.542   8.884   7.358  0.1015 -0.1398  0.0523
58752W        W 1690  34.256   9.285  10.405  0.2809 -0.1514  0.0397
58753W        W 1691  33.512  10.799   9.303  0.0523  0.2858  0.5532
58754W        W 1692   3.775  10.882   6.723  0.0194 -0.0141 -0.0497
58755W        W 1693   0.189   9.775   9.206  0.4504  0.1342  0.0149
58756W        W 1694   2.768   7.645   7.991  0.1583  0.3453 -0.3431
58757W        W 1695   2.798   9.008   9.348 -0.2670  0.1208 -0.1233
58758W        W 1696   3.250   9.782   8.263 -0.0259  0.2526  0.0093
58759W        W 1697   0.877   8.103   9.742 -0.0180  0.0163  0.3876
58760W        W 1698   1.395   8.344   7.799 -0.0316  0.2118  0.2586
58761W        W 1699   2.315  10.815   9.039  0.2290 -0.1660  0.0397
58762W        W 1700   0.916   8.345   7.927 -0.2680 -0.3199  0.0182
58763W        W 1701   1.767   8.861   8.891 -0.1689 -0.2926 -0.2186
58764W        W 1702   2.534   6.038   9.058  0.2691  0.0325 -0.0432
58765W        W 1703   2.098  10.063   6.666 -0.3905 -0.1326  0.0119
58766W        W 1704   0.908   8.381   8.635 -0.2737 -0.3099 -0.0360
58767W        W 1705   0.006  10.192   9.402  0.2778 -0.3845 -0.0614
58768W        W 1706   1.707  10.501   9.682  0.0898 -0.0425 -0.0198
58769W        W 1707   2.638  10.861   9.832  0.0517  0.1478 -0.2233
58770W        W 1708  34.456   6.930   8.046 -0.2517  0.2235  0.1540
58771W        W 1709   3.333   9.078   9.103 -0.5351  0.2151 -0.0793
58772W        W 1710  34.566  11.560  10.671 -0.1556 -0.1313  0.0903
58773W        W 1711   0.381   8.570   7.801 -0.1288  0.2073 -0.3168
58774W        W 1712   3.716   9.539   8.219  0.0796  0.0429  0.1321
58775W        W 1713   3.659  10.116   9.867 -0.2818 -0.0828  0.1130
58776W        W 1714   1.165   7.730   9.647  0.0308 -0.2486  0.0213
58777W        W 1715   2.505   8.453   7.156  0.1350  0.1847 -0.3006
58778W        W 1716   1.424   9.618   7.472  0.0483  0.1153  0.1915
58779W        W 1717   0.430   7.079   9.111  0.0599 -0.1411 -0.2302
58780W        W 1718   2.283   8.476   7.650 -0.0163 -0.2153  0.1250
58781W        W 1719  33.747   7.302   9.876  0.0157 -0.0167 -0.0326
58782W        W 1720   2.505  10.256   8.673 -0.2311 -0.1042  0.0622
58783W        W 1721   0.614   7.590   8.991  0.1207  0.2529  0.3560
58784W        W 1722   4.385   9.806   6.868  0.3529 -0.1570  0.2211
58785W        W 1723   4.565   7.970  10.067  0.2049  0.0776  0.3583
58786W        W 1724   2.068  10.906   6.933 -0.3611 -0.0667 -0.0147
58787W        W 1725   4.607   9.968   9.611  0.1070 -0.0930  0.2581
58788W        W 1726   2.636  11.988   9.135  0.1269 -0.0754 -0.0562
58789W        W 1727   0.692  10.285  10.923  0.0154  0.5095 -0.2690
58790W        W 1728   3.449   9.908   9.489 -0.0911  0.0588 -0.3705
58791W        W 1729   4.719  10.252   8.554  0.0212  0.4744 -0.1324
58792W        W 1730   1.304   8.153   8.801 -0.0853  0.1851 -0.2445
58793W        W 1731   0.915   8.141   9.185  0.2798 -0.0806 -0.0813
58794W        W 1732   0.703  11.476   8.975  0.1494 -0.0585 -0.5154
58795W        W 1733   3.132  10.634   9.965 -0.0047  0.2507  0.0882
58796W        W 1734   0.396   8.973   8.076 -0.3154 -0.0004  0.0307
58797W        W 1735   1.976  10.071   9.764  0.3799  0.1929 -0.1712
58798W        W 1736  34.431   9.594   8.341  0.0267 -0.0502  0.0126
58799W        W 1737   2.574   9.283   7.708 -0.1127 -0.0219  0.0347
58800W        W 1738   1.346  11.145   9.143 -0.2526  0.0891  0.0217
58801W        W 1739   2.439  11.441  10.225 -0.3224  0.1378 -0.1492
58802W        W 1740   2.223   9.072   9.247 -0.0229  0.0573  0.1120
58803W        W 1741   3.141  10.038   7.827  0.1584 -0.1573 -0.2408
58804W        W 1742   1.463   8.265   8.312  0.0959  0.1720  0.0544
58805W        W 1743   3.967   7.854   8.892 -0.0946  0.3524  0.3606
58806W        W 1744   1.750   8.365   8.679 -0.3400  0.0602  0.1418
58807W        W 1745   2.564   9.469   9.317  0.1973 -0.1125  0.1257
58808W        W 1746  34.472   7.501   7.827 -0.2901  0.0576 -0.2323
58809W        W 1747  34.111   9.353   7.859 -0.1379  0.0568  0.1234
58810W        W 1748   1.548   9.214  10.377 -0.2420 -0.1553 -0.1048
58811W        W 1749   1.114   8.914   9.497 -0.1384 -0.3587  0.2660
58812W        W 1750   1.109   6.911   8.555  0.0032  0.1104  0.1148
58813W        W 1751   3.824  10.633   7.787 -0.0396  0.0173 -0.1448
58814W        W 1752  34.668   7.115   9.391 -0.1975  0.3342  0.1956
58815W        W 1753   0.867   5.733   9.020 -0.2243 -0.0716 -0.1376
58816W        W 1754   3.885  11.644   7.712  0.0395 -0.0700 -0.0426
58817W        W 1755   2.267   9.742   8.160  0.1741  0.0267 -0.1884
58818W        W 1756   1.337   7.993  10.046 -0.0586 -0.2027 -0.0196
58819W        W 1757  34.536   9.466   7.619 -0.2009 -0.1128  0.0337
58820W        W 1758  34.612   7.699   8.289 -0.0033  0.0160 -0.3075
58821W        W 1759   0.306   7.368  10.365 -0.1736  0.0888 -0.0005
58822W        W 1760   1.452   9.961   8.510 -0.0664  0.0963 -0.2378
58823W        W 1761   2.996  10.528   7.861  0.1731 -0.1102 -0.1285
58824W        W 1762  34.628   6.854  10.535 -0.0228  0.1713  0.2357
58825W        W 1763   3.373   9.491   7.857  0.1823 -0.0445  0.3054
58826W        W 1764   3.915   9.869   8.823 -0.0225 -0.1025 -0.1097
58827W        W 1765   1.583   7.540   9.809  0.3781 -0.0521 -0.1063
58828W        W 1766   2.950   9.908   9.392 -0.0563 -0.1201  0.0991
58829W        W 1767   3.462  10.572   8.078  0.1642 -0.0554 -0.2878
58830W        W 1768  34.539   7.500   9.754  0.1649 -0.0931 -0.1594
58831W        W 1769   3.060   9.419   9.558 -0.3498  0.1960 -0.0572
58832W        W 1770   1.325  10.446   8.267  0.1083 -0.0137  0.0173
58833W        W 1771   0.726   7.522   9.912 -0.1344 -0.0909 -0.2734
58834W        W 1772   2.678   8.478   8.123 -0.2329  0.0923 -0.1277
58835W        W 1773   2.040  10.244   8.868  0.2159  0.1680 -0.0940
58836W        W 1774   2.553   9.258   8.343  0.2017  0.0325 -0.0581
58837W        W 1775   4.033   9.679   7.217  0.0222  0.0182  0.1531
58838W        W 1776   1.824  11.421  10.002 -0.2721 -0.2488  0.0723
58839W        W 1777   0.353  12.015  10.693 -0.2932  0.0801  0.0826
58840W        W 1778   4.254   9.661   9.746  0.1329 -0.3751  0.0790
58841W        W 1779   1.118   9.143  10.086  0.1995 -0.1372 -0.0263
58842W        W 1780   0.568   9.773   8.337 -0.0161 -0.4577 -0.0642
58843W        W 1781   0.632   9.094   8.567 -0.0838  0.0729 -0.4014
58844W        W 1782   1.769   9.608   9.731 -0.0171  0.2060 -0.1148
58845W        W 1783   1.324   9.579  10.097  0.2671 -0.1301 -0.1216
58846W        W 1784   1.752   8.340   7.378 -0.3646 -0.1275 -0.1128
58847W        W 1785   2.498  11.323   9.759  0.0412  0.0435  0.0151
58848W        W 1786   4.353   9.436   8.123 -0.0268 -0.5496 -0.2087
58849W        W 1787   0.513  14.681   2.822  0.1564 -0.3166 -0.3210
58850W        W 1788   0.790  12.812   1.231 -0.0127  0.2076  0.2381
58851W        W 1789   3.526  11.630   1.828 -0.0903 -0.0867  0.0494
58852W        W 1790   1.952  12.455   0.651 -0.0730 -0.1951  0.1670
58853W        W 1791   0.786  10.586   0.015  0.0182 -0.0069 -0.3108
58854W        W 1792   2.827  11.925   2.001  0.0309  0.1122  0.2647
58855W        W 1793  34.523   9.849   3.797 -0.0035  0.3075  0.1217
58856W        W 1794   3.028  13.146   1.937 -0.1803 -0.0674  0.3799
58857W        W 1795   1.630  14.159   3.032  0.4330  0.0078  0.5241
58858W        W 1796   1.709  13.322  31.603 -0.0809 -0.1950 -0.1555
58859W        W 1797   0.401  12.154   2.587  0.0789 -0.0648 -0.0258
58860W        W 1798   0.854  14.309   1.098 -0.0228 -0.1654  0.4182
58861W        W 1799   1.637  10.974   0.062  0.0084  0.2369 -0.1693
58862W        W 1800  34.421  10.702   2.903 -0.0409 -0.0865  0.4921
58863W        W 1801   3.109  13.391   3.728  0.0918 -0.1303  0.2958
58864W        W 1802   0.470  13.103   0.966  0.2863 -0.0558 -0.2759
58865W        W 1803   1.315  10.423   3.262 -0.0545  0.3402  0.0698
58866W        W 1804   1.247  11.727   0.906  0.1712 -0.2402  0.0478
58867W        W 1805   1.342  13.964   1.630 -0.0059 -0.0256 -0.1916
58868W        W 1806   1.648  12.695   2.852  0.0898  0.0577 -0.3264
58869W        W 1807   1.371  11.460   3.328 -0.1098 -0.0624  0.1000
58870W        W 1808   0.716  14.309  31.935  0.0120 -0.1870 -0.2400
58871W        W 1809   0.399  12.114   0.498 -0.3263  0.0001  0.3873
58872W        W 1810  33.382  12.188   1.636  0.2363  0.2198 -0.0503
58873W        W 1811   1.287  11.116   2.000  0.2572 -0.3651  0.2812
58874W        W 1812   2.093  11.537   2.613 -0.1431 -0.2448 -0.0009
58875W        W 1813   4.090  11.640   1.751 -0.2359  0.1146  0.1806
58876W        W 1814   0.944  13.500   1.757 -0.0406  0.0837  0.0565
58877W        W 1815   1.048  13.789   2.763 -0.0521 -0.3599 -0.1095
58878W        W 1816   1.213  12.732   2.527 -0.1115 -0.0748  0.2880
58879W        W 1817  34.544  12.499   1.276 -0.0575  0.4154 -0.0724
58880W        W 1818  34.286  12.952   1.184 -0.1410 -0.2962  0.0423
58881W        W 1819   1.808  13.761   0.530 -0.2006 -0.0547 -0.1940
58882W        W 1820   2.940  13.177   1.006  0.1381  0.3451 -0.0677
58883W        W 1821   2.005  14.281   3.296  0.0601 -0.1693  0.0237
58884W        W 1822   1.711  14.657   3.144  0.3055 -0.2055  0.4149
58885W        W 1823  34.542  12.976   1.607  0.0064 -0.1989 -0.2074
58886W        W 1824   0.627  14.538   3.296  0.1436 -0.0572 -0.1187
58887W        W 1825  34.669  14.948   2.539 -0.0217  0.2805 -0.2168
58888W        W 1826   1.371  13.615   3.048  0.0108 -0.3366 -0.0837
58889W        W 1827   3.176  12.647   1.805 -0.1911 -0.2159 -0.0716
58890W        W 1828   1.363  13.208   1.323  0.0553 -0.1438 -0.0894
58891W        W 1829   2.256  12.736   2.301  0.1895  0.2723  0.2316
58892W        W 1830   1.952  12.888   3.694  0.0585 -0.1467 -0.1742
58893W        W 1831  34.346  11.868   2.507 -0.2790  0.0375 -0.1501
58894W        W 1832   3.848  11.225   1.808 -0.0784  0.1436 -0.1834
58895W        W 1833   1.381  14.308  31.671 -0.0162  0.0535 -0.1531
58896W        W 1834   1.244  12.533   0.350  0.0964 -0.1255 -0.1074
58897W        W 1835   2.292  10.751   0.988 -0.1639 -0.1535 -0.0606
58898W        W 1836   2.764  10.758   0.866  0.1222  0.1585  0.0474
58899W        W 1837   1.028   9.524   1.162 -0.3156  0.0839  0.0955
58900W        W 1838  34.567  14.373   2.787 -0.0971 -0.0205  0.3638
58901W        W 1839   1.619  12.310   3.375  0.1827  0.3223  0.1836
58902W        W 1840   3.454  13.369   1.040  0.2313 -0.1664  0.1685
58903W        W 1841   2.569  11.519   1.777  0.0787  0.0145 -0.0235
58904W        W 1842   2.256  10.760   3.025  0.2743  0.0914  0.0719
58905W        W 1843   2.221  12.720   1.779  0.3342  0.0219  0.0779
58906W        W 1844  33.852  12.306   1.388  0.3096 -0.3329  0.0017
58907W        W 1845   4.419  14.752   0.624 -0.0684  0.1677  0.2642
58908W        W 1846   1.560  13.866   2.123 -0.0350 -0.0203 -0.3288
58909W        W 1847   1.565  13.605   0.043  0.1472  0.1148 -0.1413
58910W        W 1848   1.223  10.272   0.593 -0.1476  0.0676 -0.1026
58911W        W 1849   0.101  13.291   1.868 -0.2911  0.2202  0.1332
58912W        W 1850   0.772  11.302   2.142  0.1737  0.1487  0.3804
58913W        W 1851   1.697  11.855   0.916  0.3517 -0.0676 -0.0686
58914W        W 1852   3.144  13.614   3.268  0.0877  0.1930 -0.3703
58915W        W 1853   1.006  13.530   3.719 -0.0128  0.1202 -0.1561
58916W        W 1854   3.551  11.841   1.310 -0.2300  0.0132  0.1874
58917W        W 1855   0.638  13.468   2.597 -0.0175 -0.1388  0.0273
58918W        W 1856   1.445  13.555   2.498 -0.0734  0.1242 -0.0644
58919W        W 1857   3.432  13.354  31.514  0.1761  0.0160 -0.1928
58920W        W 1858   2.062  11.395   1.360  0.4015  0.1268  0.0031
58921W        W 1859   1.862  11.142   2.428 -0.0889  0.0504  0.2218
58922W        W 1860   1.369  11.123   0.755 -0.0938 -0.0858  0.3210
58923W        W 1861   0.422  12.601   0.743 -0.0227  0.0480 -0.3688
58924W        W 1862   2.001  14.474   2.771 -0.4744  0.1206  0.3375
58925W        W 1863   3.602  10.997   0.565 -0.1386 -0.0324 -0.3082
58926W        W 1864   0.155  14.011   2.640  0.1917  0.1449 -0.1758
58927W        W 1865   1.354  12.734   3.487  0.0400  0.0015  0.1959
58928W        W 1866   0.157  13.505   2.528 -0.1796  0.1388  0.0640
58929W        W 1867   1.319  12.719   1.160  0.1816  0.1438 -0.1290
58930W        W 1868   0.457  12.840   1.906 -0.0103 -0.4373  0.1124
58931W        W 1869  33.620  13.663   0.742 -0.0320 -0.3014 -0.2747
58932W        W 1870  34.446  11.832   3.021  0.0811 -0.0717  0.0505
58933W        W 1871   0.570  13.790   2.988 -0.1635  0.1224  0.0195
58934W        W 1872   3.762  11.469   0.882  0.0198  0.1723 -0.3051
58935W        W 1873   0.018  12.366   3.647 -0.1023  0.3289 -0.2806
58936W        W 1874   2.993  11.171   2.645  0.4242  0.1356 -0.4978
58937W        W 1875   0.251  11.715   0.814  0.4149 -0.4204  0.2449
58938W        W 1876   2.518  13.826   2.392  0.1755  0.0507  0.1390
58939W        W 1877   3.712  13.187   2.009  0.1845 -0.2864 -0.3671
58940W        W 1878   2.208  12.881   0.471  0.0565  0.1265 -0.3212
58941W        W 1879  34.358  12.719   3.033 -0.1650  0.1978 -0.0504
58942W        W 1880  34.487  11.487   1.503  0.1337  0.3736 -0.0402
58943W        W 1881   1.029  10.869   3.807  0.1400 -0.1358  0.0921
58944W        W 1882   1.001  10.715   2.064  0.2893 -0.0644  0.1231
58945W        W 1883   3.334  12.822   2.278  0.0018  0.0135  0.1711
58946W        W 1884   0.735   8.863   0.015 -0.2308 -0.0904 -0.2089
58947W        W 1885   4.092  11.512   1.274  0.1399 -0.0824 -0.2615
58948W        W 1886   1.151  11.540   2.536  0.2197  0.3034 -0.0765
58949W        W 1887  33.286  12.953   0.944 -0.0249  0.3063  0.3572
58950W        W 1888   4.062  10.597   3.266 -0.5868  0.1912 -0.1406
58951W        W 1889   2.197  14.081   1.312 -0.2519  0.0436  0.0782
58952W        W 1890   2.967  14.418   3.828  0.0124 -0.2965 -0.0651
58953W        W 1891   2.290  13.577   1.943 -0.3847 -0.0266 -0.4197
58954W        W 1892   0.116  11.745   2.668  0.1595 -0.0235  0.0940
58955W        W 1893   0.307  10.511   0.879 -0.0200  0.0221  0.3005
58956W        W 1894  34.675  13.761   1.604  0.0721 -0.0055 -0.1428
58957W        W 1895   0.834  13.966   1.814 -0.0291 -0.4029 -0.0431
58958W        W 1896   2.063   9.315   2.183 -0.1861  0.0184 -0.1906
58959W        W 1897   3.867  14.568   2.589  0.0517  0.0588 -0.0184
58960W        W 1898   0.860  13.399   1.247 -0.0867  0.2570 -0.1162
58961W        W 1899   0.676  12.501   2.998 -0.0760 -0.0328  0.1853
58962W        W 1900   1.852  10.591   2.244  0.3765  0.1361 -0.0433
58963W        W 1901   2.803  12.751   2.278 -0.1039 -0.0385 -0.3428
58964W        W 1902   2.313  12.228   1.657  0.5736 -0.0317 -0.0322
58965W        W 1903   1.032  10.621   1.041 -0.0516 -0.4886 -0.2569
58966W        W 1904   0.816  14.733   2.399  0.0139 -0.0454  0.1690
58967W        W 1905   0.256  13.625   0.382 -0.2234  0.0831 -0.1048
58968W        W 1906   0.929  11.631   1.305 -0.0704  0.0660 -0.1950
58969W        W 1907   0.792  14.766   1.373  0.3788 -0.2593 -0.0737
58970W        W 1908   3.302  11.132   1.600  0.2460 -0.2732 -0.0466
58971W        W 1909   0.066  11.874   1.767 -0.3226  0.1708  0.1173
58972W        W 1910   2.796  11.177   3.152 -0.0326 -0.3248  0.1306
58973W        W 1911   1.358  11.365   0.207  0.1152 -0.0940  0.2693
58974W        W 1912   0.327  13.221   2.915  0.0594 -0.2273  0.0733
58975W        W 1913   2.258  11.047   1.673 -0.1084  0.3296  0.1136
58976W        W 1914   2.267   9.954   0.655  0.0584  0.0853 -0.2515
58977W        W 1915   1.057  13.881   2.249  0.1645 -0.1085 -0.0491
58978W        W 1916   1.771  12.621   0.164 -0.1548  0.2623  0.2075
58979W        W 1917   1.654  12.130   0.353  0.0143 -0.1396 -0.0114
58980W        W 1918   1.661  10.208   1.100 -0.1495 -0.1348 -0.1411
58981W        W 1919   0.732  13.396   3.318  0.0677  0.1074 -0.0737
58982W        W 1920   2.623  11.558   2.646  0.2479  0.1735  0.1094
58983W        W 1921   1.025  13.016   1.700  0.3306 -0.2528  0.0811
58984W        W 1922   0.727  12.522   1.672 -0.1353 -0.2241 -0.1919
58985W        W 1923   3.095  13.377   1.458  0.2365 -0.2096 -0.0914
58986W        W 1924   0.302  11.847   2.214 -0.0141 -0.3860  0.1158
58987W        W 1925   2.344  13.453   2.789 -0.0930 -0.2748 -0.3294
58988W        W 1926   2.952  13.648   1.046 -0.0658 -0.0332 -0.0458
58989W        W 1927   1.416  11.106   2.803 -0.1559  0.2018  0.1302
58990W        W 1928   1.808  11.335   0.410 -0.0506  0.0553 -0.0885
58991W        W 1929   1.945  11.972   2.473 -0.3064  0.2067  0.2637
58992W        W 1930  33.052  13.159  31.779 -0.1504  0.0629 -0.1816
58993W        W 1931   2.803  10.740   2.463  0.0710  0.1049  0.2488
58994W        W 1932   1.388  10.499   1.415  0.1085  0.1498 -0.1978
58995W        W 1933   1.808  10.707   2.792  0.0983 -0.1255 -0.0614
58996W        W 1934   2.700  11.759   3.187  0.1692  0.1454 -0.1652
58997W        W 1935   3.390  10.486   1.311 -0.0061 -0.0922 -0.0680
58998W        W 1936   2.761  12.106   1.568 -0.1173 -0.0608  0.2040
58999W        W 1937   0.746  11.796   0.841 -0.3552 -0.0134 -0.1550
59000W        W 1938   1.884  10.551   1.672 -0.1098  0.3630  0.0059
59001W        W 1939   1.140  11.915   1.625 -0.2941 -0.0807  0.2011
59002W        W 1940   0.730  15.060   3.207  0.2122 -0.3652 -0.0794
59003W        W 1941   2.045  12.391   2.688  0.0778 -0.1177  0.0462
59004W        W 1942   2.264  12.705   1.283 -0.2386  0.1185  0.2933
59005W        W 1943   1.950  11.300   3.469  0.3152 -0.1925 -0.2490
59006W        W 1944   0.695  10.377   1.278  0.0809  0.2975 -0.0871
59007W        W 1945   0.446  13.668   1.383  0.2577 -0.2046  0.1856
59008W        W 1946   1.075  12.158   1.190  0.1959 -0.1411 -0.0176
59009W        W 1947   1.269  10.264   2.419 -0.1541 -0.4071 -0.1653
59010W        W 1948   0.212  13.034   2.262  0.0785 -0.2304  0.0065
59011W        W 1949   0.634  12.873  31.742 -0.0380 -0.2743  0.2031
59012W        W 1950   2.237  14.240   2.356  0.1764 -0.1279 -0.2184
59013W        W 1951   0.712  13.864   0.337 -0.1121 -0.1358 -0.2835
59014W        W 1952   3.265  10.280   2.880 -0.2921 -0.0222 -0.2694
59015W        W 1953   1.153  14.776   1.924  0.0796 -0.1188 -0.2063
59016W        W 1954   0.545  12.401   1.147  0.0981 -0.1422 -0.3630
59017W        W 1955  33.882  11.066   0.695 -0.0714  0.0418 -0.0009
59018W        W 1956   1.831  11.028   0.847 -0.0348  0.1970  0.0494
59019W        W 1957   4.125  12.036  31.772 -0.2474 -0.0084  0.0721
59020W        W 1958  34.593  11.497   2.309 -0.0097  0.1101  0.2939
59021W        W 1959   1.573  11.918   1.422  0.2056  0.1994  0.1398
59022W        W 1960   0.008  15.482   1.743  0.0187 -0.1648 -0.0626
59023W        W 1961   1.412  13.090   2.837 -0.0582 -0.1421 -0.1154
59024W        W 1962   2.472  11.242   1.102  0.0222  0.1085 -0.0791
59025W        W 1963   1.375  14.731   1.274 -0.0130 -0.2072 -0.0996
59026W        W 1964   0.768  14.258   2.204  0.0488 -0.2454 -0.2104
59027W        W 1965  34.616  11.406   1.060 -0.0645 -0.2928 -0.3441
59028W        W 1966   5.731  11.779   1.362  0.2838  0.0706 -0.0034
59029W        W 1967   0.248  10.610   1.492 -0.0148 -0.0934 -0.0061
59030W        W 1968  33.841  13.567   1.656  0.0117  0.1151  0.2411
59031W        W 1969   1.301  14.213   2.543  0.1860  0.2152  0.0965
59032W        W 1970   1.005  11.408   0.599 -0.0326 -0.2494 -0.3190
59033W        W 1971   2.885  14.558   1.518  0.2445  0.2667  0.1749
59034W        W 1972   1.640  11.558   2.233  0.2426 -0.2374 -0.1265
59035W        W 1973   2.679  13.315   2.409  0.0014 -0.3226  0.2367
59036W        W 1974   1.861  10.930   1.345 -0.0431  0.0027 -0.1138
59037W        W 1975   0.378  11.250   2.444  0.0340 -0.0528  0.0800
59038W        W 1976   1.540  12.825   0.645 -0.1587 -0.0391  0.0072
59039W        W 1977   2.505  13.108   1.968  0.1021  0.3442  0.0802
59040W        W 1978   1.441  12.788   1.975 -0.0468  0.1036  0.1777
59041W        W 1979   1.216  13.237   3.330  0.2005 -0.2301 -0.0147
59042W        W 1980   2.172   9.828   1.968 -0.2120  0.2632  0.0642
59043W        W 1981   5.280  13.742   1.110  0.3082  0.1324  0.0843
59044W        W 1982   2.357  11.889   2.232  0.1178 -0.0300 -0.0227
59045W        W 1983   1.755  13.244   0.385 -0.1248  0.1280  0.1997
59046W        W 1984  33.511  12.860   2.886  0.1009 -0.0053 -0.2271
59047W        W 1985   1.962  13.635   2.386 -0.0480 -0.0504 -0.2597
59048W        W 1986   2.899  13.624   2.793 -0.1487  0.2440  0.1987
59049W        W 1987  34.639  13.741   2.112 -0.1212 -0.0936  0.0417
59050W        W 1988   0.747  13.279   0.579 -0.1478  0.1289 -0.1489
59051W        W 1989   1.376  15.106   4.560 -0.3107  0.0361  0.1987
59052W        W 1990   4.576  10.082   0.449  0.2781 -0.2116  0.4620
59053W        W 1991   1.164  13.309  31.684  0.3135  0.0961  0.0104
59054W        W 1992   1.672  12.114   2.874 -0.2315 -0.1355 -0.1233
59055W        W 1993   3.854  10.460   1.669 -0.0436 -0.1780  0.0114
59056W        W 1994   2.327  13.970   0.470 -0.0038  0.2123 -0.1027
59057W        W 1995   2.302  11.456   3.118  0.0092 -0.0538  0.0542
59058W        W 1996   1.619  11.569   2.791  0.1979 -0.0682 -0.3288
59059W        W 1997   3.872  13.589   1.394  0.0405  0.3963  0.1029
59060W        W 1998   0.567  11.143   3.432 -0.0668 -0.1432 -0.1214
59061W        W 1999   2.446  14.668   3.646  0.0944 -0.0853 -0.2026
59062W        W 2000   0.511  13.996   3.509  0.0273  0.0944 -0.0883
59063W        W 2001   2.315  10.596   2.546  0.2527 -0.1261  0.1452
59064W        W 2002  34.246  11.136   0.367  0.1342  0.0438 -0.1874
59065W        W 2003   2.073  12.588   3.214 -0.0106  0.0281 -0.3184
59066W        W 2004   3.606  13.129   1.493  0.1332 -0.2762 -0.0349
59067W        W 2005   0.910  13.415   0.102  0.1057  0.0718  0.2684
59068W        W 2006   1.832  12.381   1.163  0.2153  0.3612 -0.2531
59069W        W 2007   0.496  13.889   2.318 -0.0692  0.1062  0.0523
59070W        W 2008   3.327  12.599   0.073 -0.3167 -0.0260  0.0113
59071W        W 2009   1.414  12.317   0.776 -0.0552 -0.0785 -0.2814
59072W        W 2010   0.442  12.249   1.959 -0.0679  0.1324  0.1033
59073W        W 2011  34.167  10.911   4.304 -0.1968  0.1260  0.2110
59074W        W 2012   1.963  12.990   0.976  0.0780  0.0289  0.0205
59075W        W 2013   2.296  11.940   2.851 -0.3071  0.0941 -0.1815
59076W        W 2014   2.032  11.740   1.758 -0.1238 -0.5027  0.0345
59077W        W 2015   1.894  11.165   2.953  0.2296  0.3703  0.0884
59078W        W 2016   0.828  11.901   2.281  0.0795  0.0773 -0.0193
59079W        W 2017  32.826  11.805   4.977  0.0210 -0.2336  0.1480
59080W        W 2018   2.073  14.828   2.342 -0.2275  0.5037  0.1472
59081W        W 2019   4.427  11.243   1.634  0.0052 -0.1481  0.1484
59082W        W 2020   3.340  11.843   2.233  0.2072 -0.0510 -0.0083
59083W        W 2021   4.390  12.899   0.908 -0.0708  0.1840  0.2045
59084W        W 2022   2.572  11.685   0.848 -0.1753  0.1577  0.0898
59085W        W 2023   0.990  11.277   1.663 -0.2558 -0.3761 -0.1221
59086W        W 2024   3.372  12.664   4.055 -0.2299 -0.1129 -0.0833
59087W        W 2025  34.595  10.400   1.255  0.0077  0.2465 -0.1925
59088W        W 2026   1.392  10.930   3.271 -0.0265  0.0890  0.0723
59089W        W 2027   1.860  13.633  31.217  0.0526 -0.1850 -0.0257
59090W        W 2028   0.545  13.135   1.542  0.0679  0.1072 -0.1167
59091W        W 2029   3.620  11.986   0.810 -0.0339 -0.0927 -0.0485
59092W        W 2030   0.356   9.346   2.571  0.2769  0.0331 -0.1830
59093W        W 2031   1.078  12.838   3.073 -0.2093  0.1224  0.1118
59094W        W 2032   1.128  10.944   0.348 -0.1285  0.3547 -0.2800
59095W        W 2033   0.377  12.474  31.641  0.3253  0.1399 -0.2075
59096W        W 2034   2.071  12.329   2.106 -0.0254 -0.2551 -0.0736
59097W        W 2035   2.073  13.010   2.836 -0.2156 -0.0087 -0.0858
59098W        W 2036   1.122  10.067   1.056  0.0765 -0.0293 -0.4130
59099W        W 2037   2.617  12.951   2.762  0.0281  0.0361  0.1544
59100W        W 2038  34.124  13.397  31.795  0.0831 -0.0624  0.1387
59101W        W 2039   1.651   9.861   2.456 -0.0659  0.2791  0.2349
59102W        W 2040   0.368  15.128   4.030 -0.2663 -0.0176  0.0261
59103W        W 2041  33.970  12.483   2.650 -0.1629  0.0516 -0.0316
59104W        W 2042   0.813  12.459   0.024 -0.3192  0.1737 -0.2314
59105W        W 2043   0.661  11.577   2.803  0.1161  0.2907 -0.0189
59106W        W 2044   3.301  12.175   1.759 -0.1644 -0.4043 -0.1637
59107W        W 2045   2.914  11.944   2.514  0.2293 -0.0835 -0.3595
59108W        W 2046   3.848  11.984   2.073  0.0932  0.1773  0.2188
59109W        W 2047   1.809  13.402   2.830  0.2187  0.5406  0.0287
59110W        W 2048   0.055  10.305   2.928  0.0045  0.0050 -0.1285
59111W        W 2049   1.032  14.734   2.876  0.0624  0.3142  0.1365
59112W        W 2050   3.959  12.753   1.262 -0.0973 -0.2408  0.2287
59113W        W 2051   1.580  12.419   2.324  0.1540 -0.0581  0.3366
59114W        W 2052  33.290  12.342   3.571 -0.1391  0.1016  0.1381
59115W        W 2053   1.910  13.235   1.956  0.2097 -0.4172 -0.1153
59116W        W 2054   2.538  12.359   2.063 -0.2242  0.1006  0.0176
59117W        W 2055   0.782   9.791   1.633  0.1193 -0.1251  0.0131
59118W        W 2056   2.037  13.214  31.918  0.0317 -0.2190 -0.2044
59119W        W 2057  34.164  14.216   3.705  0.2642  0.3265 -0.4824
59120W        W 2058  34.610  11.187   2.738 -0.0275 -0.0106  0.1590
59121W        W 2059   0.253  14.459   2.459 -0.1595 -0.0738  0.0488
59122W        W 2060   4.336  12.440   1.043  0.1496 -0.2302  0.1090
59123W        W 2061   2.533  13.358   1.123  0.1647 -0.3039 -0.3500
59124W        W 2062   1.060  14.447   1.603 -0.2663 -0.2168 -0.0990
59125W        W 2063   0.970  10.763   1.540 -0.1544 -0.1941  0.0463
59126W        W 2064  34.609  14.246   2.160  0.0168 -0.0850 -0.0736
59127W        W 2065  33.418  11.991   1.134 -0.1302 -0.4418  0.1616
59128W        W 2066   1.234  13.626   0.461 -0.1819  0.3805  0.0963
59129W        W 2067   1.365  13.380   1.940  0.1171 -0.3078  0.0924
59130W        W 2068   3.181  15.028   3.238 -0.0872  0.1104  0.3817
59131W        W 2069   3.580  10.853   1.936 -0.0428  0.0221  0.1258
59132W        W 2070   4.885  14.002   1.282  0.3053 -0.0048  0.0981
59133W        W 2071   2.943  11.388   1.223 -0.2694 -0.0473 -0.3656
59134W        W 2072   3.254  14.342   2.562  0.1462  0.3343  0.0122
59135W        W 2073   1.759  11.040   1.899 -0.0446 -0.0300 -0.3496
59136W        W 2074   0.682  10.171  31.638 -0.2433 -0.1879  0.0375
59137W        W 2075   0.955  13.302   2.897 -0.2161  0.2751  0.1274
59138W        W 2076   4.914  11.055   1.847  0.1846  0.2392 -0.1912
59139W        W 2077   0.189  14.119   3.122  0.0837 -0.0924  0.0562
59140W        W 2078   4.050  14.051  31.252 -0.2061 -0.2051 -0.2795
59141W        W 2079  34.379  11.969   0.064  0.1332  0.2753  0.3215
59142W        W 2080   1.423  10.990   1.521 -0.3096 -0.0414  0.2325
59143W        W 2081   5.038  10.609   2.971  0.2680  0.3294 -0.4568
59144W        W 2082   0.118  12.875  31.799 -0.0651  0.0255  0.0407
59145W        W 2083   2.452  11.739   1.316 -0.2592 -0.0385 -0.3469
59146W        W 2084   2.191  13.163   1.482 -0.2378 -0.0483 -0.1098
59147W        W 2085   0.775  14.945   3.741  0.0447 -0.0445 -0.0403
59148W        W 2086   1.743  13.885   1.207 -0.2833 -0.0754  0.2098
59149W        W 2087   0.583   8.810   1.684 -0.0127  0.1140 -0.0418
59150W        W 2088   3.210  11.630   0.782  0.0919 -0.1859  0.0937
59151W        W 2089   1.265  11.848   3.082 -0.0772 -0.0716 -0.0540
59152W        W 2090   3.105  10.757   2.888  0.0323  0.0538  0.0458
59153W        W 2091  34.103  12.372   0.047  0.1478 -0.2929 -0.0435
59154W        W 2092   3.668  11.384   1.386 -0.0492 -0.1439 -0.3242
59155W        W 2093   0.669  13.246   2.084 -0.2139 -0.0369  0.0584
59156W        W 2094  34.450  12.682   2.511 -0.0249 -0.1148  0.0842
59157W        W 2095   2.503  11.544   0.346 -0.2169 -0.1847 -0.3062
59158W        W 2096   4.231  13.198   1.301 -0.1028 -0.1118  0.3632
59159W        W 2097   1.210  11.865   0.436  0.3585  0.1100 -0.1227
59160W        W 2098  33.834  15.770   3.578 -0.1440 -0.0828  0.0790
59161W        W 2099  34.489  11.177   1.920 -0.1426  0.1260  0.2303
59162W        W 2100   2.366  11.040  31.982  0.2785  0.2264  0.1571
59163W        W 2101  33.760  12.827   1.114 -0.1794  0.0626 -0.1263
59164W        W 2102   1.378  11.959   2.471 -0.0319 -0.0013  0.2755
59165W        W 2103   2.162  15.217   3.570  0.0456 -0.3353 -0.0985
59166W        W 2104   1.420  10.828   2.383 -0.0915  0.0519  0.0786
59167W        W 2105   2.465  13.858   0.930 -0.0927  0.1901 -0.3187
59168W        W 2106   3.445  12.347   2.610  0.1001 -0.3886 -0.0836
59169W        W 2107   1.932  14.879   1.177 -0.0834  0.0081 -0.1434
59170W        W 2108   4.306  12.256   0.508  0.0787 -0.4024  0.2712
59171W        W 2109   3.449  15.294   2.347 -0.1791  0.0198  0.2835
59172W        W 2110  34.362  11.424   4.331 -0.2024  0.0136  0.1294
59173W        W 2111   2.414  14.801   2.725  0.2704  0.1046 -0.2493
59174W        W 2112   3.706  13.407   0.593  0.2721 -0.1382 -0.0319
59175W        W 2113   1.124   8.837   2.403  0.0989 -0.0146  0.1892
59176W        W 2114   1.171  11.598   2.007  0.0981 -0.0055 -0.0913
59177W        W 2115  34.287  14.084   1.025  0.6673  0.3096 -0.0470
59178W        W 2116   2.162  11.358   2.043 -0.1471  0.0339 -0.3764
59179W        W 2117   1.163  10.655   2.747 -0.0306  0.0403  0.0992
59180W        W 2118   0.503  11.290   0.863  0.3828  0.0384  0.1751
59181W        W 2119   3.809  10.008   3.583  0.2176 -0.0484  0.2590
59182W        W 2120   1.773  15.271   3.250 -0.2161  0.2093 -0.0606
59183W        W 2121   0.750  14.296   4.142  0.1872  0.1564 -0.2222
59184W        W 2122   0.271  12.783   1.270 -0.0025  0.1771 -0.1225
59185W        W 2123   2.860  12.451   1.191  0.1478 -0.2665  0.0372
59186W        W 2124  34.597  12.738   0.837 -0.2090  0.0633 -0.0081
59187W        W 2125   0.656  14.782   0.144  0.1473 -0.0779 -0.1304
59188W        W 2126   2.684  13.066   1.491  0.0642  0.0910  0.0456
59189W        W 2127   1.043  11.143   1.134  0.0292  0.0754 -0.1321
59190W        W 2128   2.839  13.601   1.997 -0.3263  0.1507 -0.2785
59191W        W 2129   1.582  11.531   1.724 -0.1116 -0.4803  0.1958
59192W        W 2130   4.205  10.360   0.558  0.1732 -0.2585  0.0198
59193W        W 2131   3.256   9.131   1.376  0.0691 -0.1936  0.0192
59194W        W 2132   1.213  12.368   2.998  0.1095  0.0488  0.1927
59195W        W 2133  34.092  12.495   1.017  0.1020 -0.1055  0.2231
59196W        W 2134  34.668  12.339  31.916  0.0505  0.1160 -0.1568
59197W        W 2135   0.029  13.313   1.343 -0.3629  0.1630 -0.0049
59198W        W 2136   2.281   9.894   3.749 -0.1108 -0.0398  0.1760
59199W        W 2137   0.047  11.853   3.459 -0.1907  0.1946  0.2297
59200W        W 2138  34.487  12.270   1.777  0.3369 -0.0352  0.2592
59201W        W 2139   0.555  10.896   1.163  0.0485  0.1163 -0.3267
59202W        W 2140   4.061  15.005   1.212  0.3250 -0.0903  0.1749
59203W        W 2141   0.922  11.042   2.616 -0.1999  0.0802 -0.2187
59204W        W 2142   0.141  11.084   1.496 -0.1112  0.1548  0.0047
59205W        W 2143   2.944  14.427   0.598 -0.0018 -0.1862 -0.0431
59206W        W 2144   3.465  12.831   1.043  0.0585 -0.0489  0.3188
59207W        W 2145   1.260   9.478   1.662 -0.2310  0.2227  0.1583
59208W        W 2146   4.516  13.042   3.228  0.2471 -0.1808 -0.0136
59209W        W 2147   0.427  13.261   0.032  0.0957 -0.2207 -0.2742
59210W        W 2148   1.721  13.016   3.226  0.1028  0.4367  0.1030
59211W        W 2149   1.901   9.800   4.064 -0.0104 -0.1930  0.0254
59212W        W 2150   1.526   9.668   1.081  0.0672  0.0035  0.1411
59213W        W 2151   3.158  11.601   2.768  0.1680 -0.0233 -0.0307
59214W        W 2152   0.434  14.266  31.501 -0.2045 -0.0269 -0.0373
59215W        W 2153   1.578  13.262   0.847  0.2899  0.2329 -0.1997
59216W        W 2154   1.677  14.343   2.154  0.0710 -0.0931 -0.1033
59217W        W 2155   1.118  13.197   2.393  0.0014  0.1617 -0.1384
59218W        W 2156   0.514  10.539   2.866  0.0760 -0.0687 -0.0578
59219W        W 2157   3.895  13.153   0.933  0.1896  0.0427 -0.0428
59220W        W 2158   1.203  14.281   2.002 -0.0889  0.0014 -0.0699
59221W        W 2159   4.030  14.220   0.100 -0.1914  0.1309 -0.2710
59222W        W 2160   3.327   9.877   1.927 -0.1501 -0.1670 -0.1818
59223W        W 2161   3.076  11.615   1.641 -0.0196 -0.0873  0.1409
59224W        W 2162   0.852  10.248   3.516 -0.2931  0.0903  0.0590
59225W        W 2163   0.625  12.938   2.560  0.6128 -0.2582 -0.4279
59226W        W 2164   2.736  12.621   1.653  0.0994 -0.1134 -0.1016
59227W        W 2165  33.382   9.974   2.694 -0.0566  0.4853 -0.1273
59228W        W 2166   4.599  11.598   1.252 -0.1647 -0.0460  0.0320
59229W        W 2167   1.769  12.884   1.450 -0.1819 -0.0215  0.2669
59230W        W 2168  34.632  12.216   2.283 -0.0403  0.0437  0.7068
59231W        W 2169   0.981  11.245   3.070 -0.1841 -0.3613  0.0638
59232W        W 2170   2.048  11.608   3.944  0.2645 -0.0384 -0.3194
59233W        W 2171   1.560  12.023   1.996  0.2435  0.2913 -0.3186
59234W        W 2172   1.512  11.093   3.698  0.0974 -0.1777  0.0117
59235W        W 2173   0.920  12.217   0.587  0.1094  0.1707  0.1620
59236W        W 2174   5.420  12.259   1.609  0.2644  0.3047 -0.2248
59237W        W 2175   2.174  14.725   3.243  0.2385 -0.0437  0.1226
59238W        W 2176   3.093  12.968   3.108  0.0564 -0.0413  0.0473
59239W        W 2177   0.394  14.964   2.240  0.0276  0.1659 -0.1352
59240W        W 2178   2.459  13.429   0.166  0.0472  0.1425 -0.0353
59241W        W 2179  33.829   9.640   2.643 -0.1419 -0.0255 -0.1126
59242W        W 2180   0.064  12.203   0.934 -0.0346  0.2698  0.0659
59243W        W 2181   1.248  12.424   1.613 -0.1525 -0.3708 -0.2590
59244W        W 2182   2.603  12.298   2.515 -0.1177 -0.0757  0.0438
59245W        W 2183   0.619  11.831   1.834 -0.0956  0.0389 -0.0364
59246W        W 2184   3.312  10.675   0.836  0.2579  0.0285  0.0143
59247W        W 2185   1.647  14.491   1.670  0.1709  0.2081  0.0619
59248W        W 2186   3.147  12.816   1.361  0.0414  0.2617 -0.0294
59249W        W 2187   1.383  13.866   4.964 -0.1172 -0.1368 -0.4847
59250W        W 2188  34.099  12.199   4.642  0.2013 -0.0538 -0.1514
59251W        W 2189   3.010  10.017   2.459 -0.1492  0.2098  0.1443
59252W        W 2190   2.166  11.430   4.457  0.0623  0.1572 -0.0110
59253W        W 2191   0.469  11.049   4.495  0.0131 -0.4338  0.3794
59254W        W 2192   3.128  14.601   4.333 -0.0644 -0.1033 -0.0140
59255W        W 2193   0.466  12.191   6.266  0.1657 -0.0069  0.0721
59256W        W 2194   2.010  14.044   5.744  0.1708  0.2953  0.1206
59257W        W 2195   2.362  13.736   5.559  0.1696  0.1920  0.1894
59258W        W 2196   2.466  12.876   3.443 -0.0737  0.1367  0.1048
59259W        W 2197  34.688  12.027   6.052 -0.1136  0.0007  0.3339
59260W        W 2198   1.086  13.658   5.459  0.0040 -0.0285  0.0694
59261W        W 2199   0.805  10.874   4.824  0.0554  0.0338 -0.4585
59262W        W 2200  34.597  10.677   6.076  0.2606 -0.2037  0.5142
59263W        W 2201   2.054  12.051   5.832 -0.1327  0.0034  0.0837
59264W        W 2202   0.705  12.355   4.291  0.1104  0.0202  0.0194
59265W        W 2203   0.900  12.001   5.559  0.3511  0.0763  0.0494
59266W        W 2204   0.584  10.581   3.798 -0.1805  0.0795  0.0391
59267W        W 2205   4.281  13.780   4.949  0.1971  0.3786  0.0071
59268W        W 2206   1.483  11.313   6.869 -0.0207 -0.2675 -0.2188
59269W        W 2207   2.664  10.997   8.653  0.3447  0.3295 -0.2516
59270W        W 2208   1.032  13.899   3.345 -0.0411 -0.0351 -0.0793
59271W        W 2209  33.786  13.096   6.368 -0.1125  0.1724  0.0095
59272W        W 2210   0.747  13.098   6.170 -0.4920  0.2617 -0.0228
59273W        W 2211   2.127  10.280   4.033  0.2245  0.0050  0.2338
59274W        W 2212   1.881  11.680   5.404  0.0949 -0.1666  0.0217
59275W        W 2213   1.507  13.984   5.429 -0.0253 -0.2189  0.2434
59276W        W 2214   2.001  12.491   4.304  0.0789 -0.3414  0.0300
59277W        W 2215   3.055  13.112   7.101  0.0259  0.4671 -0.0795
59278W        W 2216   0.290  13.232   6.014 -0.0543 -0.1172 -0.1566
59279W        W 2217  33.950  13.840   5.580 -0.2378 -0.0632  0.2018
59280W        W 2218  34.305  13.585   4.635  0.0734 -0.1918 -0.0344
59281W        W 2219   4.086  13.036   4.040  0.1134 -0.0592  0.2794
59282W        W 2220   2.362  13.675   5.036  0.1279  0.0954 -0.2108
59283W        W 2221   1.402  14.140   7.465  0.0740  0.3158 -0.0691
59284W        W 2222   1.309  13.436   4.124  0.0728  0.0652  0.2464
59285W        W 2223   2.121  13.231   7.298 -0.0952  0.3254 -0.0258
59286W        W 2224   0.980  14.321   7.844  0.2797 -0.1727  0.3749
59287W        W 2225   0.771  13.288   5.309  0.0027 -0.0880 -0.0368
59288W        W 2226   1.792  12.461   4.744  0.1920 -0.2232 -0.2757
59289W        W 2227   1.599  11.737   3.695 -0.1444  0.2743 -0.2747
59290W        W 2228   1.336  12.118   4.770 -0.0901  0.4533  0.0311
59291W        W 2229   2.406  12.710   6.545  0.3577  0.0588  0.0889
59292W        W 2230   0.791  12.944   6.839  0.1299 -0.0254  0.3318
59293W        W 2231   3.077  12.505   7.847 -0.1596 -0.0822  0.0915
59294W        W 2232   1.929  13.686   3.294  0.4640 -0.1759  0.0848
59295W        W 2233   2.876  10.706   3.732 -0.1200 -0.0316 -0.0000
59296W        W 2234   1.471  10.591   3.697 -0.0689 -0.1305 -0.0524
59297W        W 2235   3.604  11.217   4.243  0.2107  0.2215 -0.2768
59298W        W 2236   0.516  11.385   4.869 -0.0271 -0.0400 -0.1289
59299W        W 2237  33.781  13.917   5.069 -0.1795  0.1309  0.4916
59300W        W 2238   1.539  10.495   7.119  0.3168  0.0239  0.0232
59301W        W 2239   3.935  12.291   5.919  0.1080  0.0126 -0.2609
59302W        W 2240   0.884  11.614   3.355  0.0531 -0.0824 -0.5397
59303W        W 2241   0.785  12.621   6.406  0.2589  0.0663 -0.0572
59304W        W 2242   1.835  13.729   7.144  0.0532  0.0471  0.0715
59305W        W 2243   2.094  13.339   5.643  0.0057 -0.5077  0.4429
59306W        W 2244   4.186  15.494   3.277 -0.2145  0.0964  0.1198
59307W        W 2245   2.225  14.541   4.551  0.2049  0.2631  0.0623
59308W        W 2246   1.082  14.713   3.459  0.2721  0.2034  0.0419
59309W        W 2247   0.309  12.338   5.071 -0.0985 -0.0350 -0.0627
59310W        W 2248   1.080  12.239   6.916 -0.0142 -0.0151 -0.1088
59311W        W 2249   0.934  11.125   7.684 -0.1026  0.2036 -0.0729
59312W        W 2250   0.266  10.909   3.785 -0.0630 -0.2660 -0.0376
59313W        W 2251   3.406  13.007   6.727  0.1132 -0.0404 -0.0345
59314W        W 2252   0.337  13.109   6.492  0.0922 -0.0075 -0.1291
59315W        W 2253   2.237  10.968   5.966 -0.0053  0.3381  0.1061
59316W        W 2254   0.556  13.440   4.864  0.0029 -0.2327  0.0359
59317W        W 2255   1.688  13.381   5.264  0.3474  0.1014  0.0340
59318W        W 2256   2.999  14.930   3.726  0.0387 -0.0343 -0.0526
59319W        W 2257   2.612  11.432   5.268 -0.0217  0.3668  0.0491
59320W        W 2258   3.001  10.225   5.907 -0.1157  0.1160  0.0382
59321W        W 2259   0.117  12.820   2.814 -0.0715  0.1492 -0.0651
59322W        W 2260   1.996  12.123   3.772 -0.1573 -0.2446  0.0279
59323W        W 2261   3.446  12.988   5.669 -0.1117  0.0696 -0.1126
59324W        W 2262   2.536  11.672   4.116 -0.0032  0.0795 -0.3674
59325W        W 2263   0.860  13.730   6.992 -0.5606 -0.0353 -0.3616
59326W        W 2264   1.092  12.149   8.298 -0.1503  0.1146 -0.0058
59327W        W 2265   3.203  13.397   5.838  0.0845  0.2107  0.1118
59328W        W 2266   0.426  14.881   5.492  0.0985 -0.0188  0.0352
59329W        W 2267  33.342  13.030   6.156 -0.0885 -0.0327  0.4119
59330W        W 2268   0.263  13.492   3.430 -0.0630  0.0020 -0.2919
59331W        W 2269   0.374  11.876   5.782  0.2698 -0.0497  0.2912
59332W        W 2270   1.975  12.967   6.547  0.2409  0.1050  0.0755
59333W        W 2271   4.676  11.533   3.960 -0.0962 -0.2112 -0.0508
59334W        W 2272  34.597  12.873   6.348 -0.2615 -0.0434  0.0912
59335W        W 2273   2.662  10.837   5.322  0.0414  0.1575  0.4430
59336W        W 2274  34.090  12.001   5.110 -0.1233  0.0053 -0.1091
59337W        W 2275   1.390  15.504   4.256  0.0851  0.2028 -0.1791
59338W        W 2276   3.189  10.380   3.951  0.1364  0.0712 -0.1112
59339W        W 2277   2.295  15.312   3.106  0.3132  0.1127  0.2912
59340W        W 2278   0.793  11.013   6.939 -0.0397 -0.0111 -0.0415
59341W        W 2279   0.859  13.325   4.301  0.2835  0.0358  0.0949
59342W        W 2280   0.106  10.987   7.482 -0.3278 -0.1028 -0.2559
59343W        W 2281   0.380  10.773   6.642  0.3930 -0.2626 -0.0065
59344W        W 2282   2.420  12.493   5.996 -0.0846  0.2571  0.0524
59345W        W 2283  33.690  10.912   4.510 -0.1094 -0.2753  0.0479
59346W        W 2284   2.740   9.783   3.979 -0.1962 -0.1218 -0.1952
59347W        W 2285   1.679  11.645   4.387 -0.2043  0.0457 -0.1313
59348W        W 2286  34.073  13.133   4.304 -0.2591 -0.0946  0.0153
59349W        W 2287   3.351  11.607   6.108  0.0133  0.0260  0.1380
59350W        W 2288   2.606  14.583   4.950 -0.1084  0.0172 -0.2405
59351W        W 2289   3.448  13.012   4.421 -0.1558 -0.2044 -0.1076
59352W        W 2290   2.822  14.248   5.460  0.0015  0.2133 -0.2431
59353W        W 2291  34.678  12.185   6.553 -0.0324  0.0317  0.0633
59354W        W 2292   0.086  11.697   4.390 -0.0308 -0.0871 -0.0869
59355W        W 2293  34.623  14.017   5.453 -0.0739 -0.1348 -0.0146
59356W        W 2294   1.976  13.978   4.743 -0.2065  0.1031 -0.3233
59357W        W 2295   0.715  11.935   6.602 -0.0936  0.1269 -0.2271
59358W        W 2296   1.065  13.661   4.625 -0.2414 -0.1340 -0.1166
59359W        W 2297   0.551  11.975   4.762 -0.2103  0.0665  0.0828
59360W        W 2298   2.457  12.191   6.790  0.3468  0.0421 -0.1401
59361W        W 2299   3.536  11.215   6.361  0.2022  0.0777  0.0822
59362W        W 2300   2.802  12.411   6.468 -0.1104  0.1059  0.0530
59363W        W 2301   1.133  12.156   6.366 -0.0831 -0.2536  0.3496
59364W        W 2302   0.875  10.708   3.315 -0.2675 -0.0432  0.3563
59365W        W 2303   0.994  13.431   5.881  0.2056 -0.1430  0.0643
59366W        W 2304   0.143  14.682   3.181  0.0009 -0.0654 -0.0259
59367W        W 2305  33.854  11.506   5.087  0.0734 -0.0282  0.0805
59368W        W 2306   0.227  14.118   4.005 -0.1215  0.4544 -0.2755
59369W        W 2307   2.619  12.041   6.163  0.3740  0.0354  0.1333
59370W        W 2308   0.652  11.231   8.050  0.0104 -0.2222  0.2540
59371W        W 2309   2.093  11.344   7.233 -0.0514  0.0737 -0.0003
59372W        W 2310  34.156  12.267   3.728  0.2635  0.2690  0.1310
59373W        W 2311   1.334  13.311   7.871 -0.2085  0.1556 -0.0272
59374W        W 2312   1.887   9.324   3.887 -0.0395  0.0063  0.1559
59375W        W 2313   3.736  10.170   2.785  0.0473 -0.0541 -0.0176
59376W        W 2314   2.088  12.551   6.945  0.0771 -0.3048 -0.0871
59377W        W 2315   2.550  13.131   3.857 -0.2560  0.0023  0.0682
59378W        W 2316   4.582  10.933   2.180  0.1038  0.1872  0.0245
59379W        W 2317   2.401  10.695   3.919 -0.0907 -0.2715  0.1628
59380W        W 2318   1.522  13.162   7.374 -0.0613 -0.0964 -0.4427
59381W        W 2319   1.131  12.120   3.598 -0.1030  0.0570 -0.0133
59382W        W 2320   1.567  12.165   5.550 -0.1323  0.1620  0.0178
59383W        W 2321   1.376  10.775   4.195  0.1393 -0.0663 -0.0317
59384W        W 2322   4.217  14.293   3.803  0.2077  0.0599 -0.0219
59385W        W 2323   0.659  12.549   4.787 -0.2068 -0.2911  0.2947
59386W        W 2324   2.492  14.247   5.793 -0.1921  0.2384 -0.2652
59387W        W 2325   2.401  12.922   5.541 -0.3649 -0.1768 -0.1889
59388W        W 2326   1.084  10.724   7.437 -0.0118  0.1091 -0.0118
59389W        W 2327   0.924  11.987   2.775  0.1459 -0.0780  0.2759
59390W        W 2328   1.766  12.369   6.040 -0.5465 -0.1323 -0.1232
59391W        W 2329  34.514  14.711   4.584  0.0197  0.2047  0.0920
59392W        W 2330   2.910  11.121   4.892 -0.0427 -0.1783 -0.2286
59393W        W 2331   2.718  11.145   5.756 -0.1100  0.0067 -0.0408
59394W        W 2332   1.815  10.644   7.497  0.2755  0.2583  0.1307
59395W        W 2333   3.170  11.683   7.618 -0.1328  0.1500  0.0107
59396W        W 2334   3.395  11.142   2.901  0.0769 -0.3263 -0.2033
59397W        W 2335   1.800  11.554   4.893 -0.0419  0.2395 -0.4809
59398W        W 2336   0.816  12.409   2.533  0.2602  0.1433  0.1596
59399W        W 2337   3.369  11.208   6.848  0.1587  0.0221  0.1843
59400W        W 2338   0.936  11.465   6.824  0.2729 -0.0505  0.1095
59401W        W 2339   0.826  14.068   7.364  0.3996 -0.3704  0.0004
59402W        W 2340   2.561  13.426   5.928  0.2011 -0.0941  0.2149
59403W        W 2341   2.704  12.040   5.078 -0.0068  0.0958  0.0253
59404W        W 2342   2.253  12.106   7.986  0.0834 -0.0248  0.2714
59405W        W 2343   1.971  10.669   4.223 -0.0994 -0.0633  0.3882
59406W        W 2344  34.637  14.463   3.791  0.0338  0.1825  0.1257
59407W        W 2345   1.656  13.351   3.561  0.0821  0.0785  0.0824
59408W        W 2346   0.780  11.877   6.045 -0.2806  0.0425 -0.2305
59409W        W 2347   1.292  11.795   5.214 -0.0208  0.0751  0.1020
59410W        W 2348   1.727  13.694   3.925 -0.2466 -0.0977  0.2592
59411W        W 2349   3.097  12.565   5.964 -0.0798 -0.0393  0.0805
59412W        W 2350  34.155  15.035   4.986  0.0930 -0.0663  0.1465
59413W        W 2351   3.251  10.850   4.531  0.1291  0.0030 -0.2653
59414W        W 2352   0.684  12.421   5.435  0.0577  0.1124  0.0293
59415W        W 2353   0.177  11.348   4.044 -0.1315 -0.1801  0.5819
59416W        W 2354  34.469  12.826   4.138  0.0936 -0.0774 -0.3789
59417W        W 2355   2.595  11.999   3.693  0.0581 -0.0725  0.2774
59418W        W 2356   2.403  12.445   3.602  0.1860  0.0508  0.1292
59419W        W 2357  34.559  11.417   6.781 -0.2261 -0.0611  0.0038
59420W        W 2358   2.277  12.935   4.643 -0.2855 -0.0819  0.1829
59421W        W 2359  34.551  12.711   5.800 -0.2385  0.0940  0.0988
59422W        W 2360   2.530  11.706   6.538  0.1545 -0.1552 -0.1744
59423W        W 2361   3.640  11.869   2.611 -0.0642  0.2108 -0.0220
59424W        W 2362   3.708  14.217   6.155  0.1230 -0.0756  0.0353
59425W        W 2363   0.721  14.424   8.300  0.1359 -0.0024  0.3231
59426W        W 2364   0.137  12.167   4.506 -0.2526  0.0850 -0.1388
59427W        W 2365   2.780  12.928   5.160 -0.2283  0.1463 -0.1681
59428W        W 2366   1.782  12.973   4.902  0.2037 -0.0310 -0.0457
59429W        W 2367  33.912  13.243   5.721 -0.2245  0.4119  0.0017
59430W        W 2368   0.941  14.262   3.700 -0.1424  0.0157  0.1451
59431W        W 2369   0.234  12.574   2.413  0.2190 -0.3997  0.0560
59432W        W 2370   1.231  12.393   4.321  0.1420 -0.1072 -0.1928
59433W        W 2371   1.992  11.983   6.724 -0.0926 -0.0953 -0.2251
59434W        W 2372   2.906  12.905   6.691  0.3547  0.3311  0.1713
59435W        W 2373   1.439  13.246   5.928  0.4367  0.1865  0.0413
59436W        W 2374  34.599  12.258   2.779 -0.0689 -0.2184  0.3820
59437W        W 2375  34.138  11.873   4.211  0.0460  0.3753 -0.1652
59438W        W 2376   1.220  12.520   5.611 -0.2326  0.2347  0.1887
59439W        W 2377   1.995  11.630   8.509  0.2529 -0.3076 -0.3660
59440W        W 2378   1.247  12.714   6.998  0.2204  0.1390  0.0944
59441W        W 2379   1.740  10.688   5.993 -0.2790 -0.0147 -0.2229
59442W        W 2380   3.960  13.779   3.598 -0.1092 -0.1538  0.1990
59443W        W 2381   1.584  12.002   6.299  0.2246  0.1426  0.1320
59444W        W 2382   0.251  12.454   3.218  0.2886 -0.0828  0.0887
59445W        W 2383   0.506  12.958   5.034 -0.0980  0.3052  0.0953
59446W        W 2384   0.999  13.014   3.764  0.3492 -0.0790 -0.1725
59447W        W 2385   0.534  11.692   7.162 -0.1007  0.2234  0.1534
59448W        W 2386  34.676  13.521   6.729  0.1004  0.0353 -0.1048
59449W        W 2387   1.251  12.646   4.790  0.0628  0.1024 -0.1915
59450W        W 2388   0.281  12.401   5.727 -0.2159 -0.0609 -0.0142
59451W        W 2389   3.797  11.648   4.038 -0.1856  0.1151 -0.3252
59452W        W 2390   2.192  13.198   2.365  0.4389  0.1262 -0.0523
59453W        W 2391   1.133  11.672   6.386 -0.0704  0.3042  0.2897
59454W        W 2392   2.793  11.884   8.589 -0.0403 -0.0293 -0.2148
59455W        W 2393   2.727  10.589   3.149 -0.0073 -0.1215 -0.0250
59456W        W 2394   1.900  11.252   6.179  0.0636 -0.2313 -0.2961
59457W        W 2395   0.932  10.859   6.085 -0.1414  0.2339 -0.2203
59458W        W 2396   2.200  13.531   4.586 -0.3346  0.1016 -0.1022
59459W        W 2397  34.254  11.265   7.112  0.0560 -0.1537 -0.0154
59460W        W 2398   0.965  14.090   8.744 -0.2584 -0.3056 -0.0702
59461W        W 2399  32.790  13.307   7.650 -0.3959 -0.1129 -0.2859
59462W        W 2400   1.856  10.978   5.119  0.3357 -0.0837  0.1496
59463W        W 2401   0.923  10.739   5.328 -0.1192  0.2023 -0.0717
59464W        W 2402   1.006  12.789   5.214  0.2327 -0.1137  0.1795
59465W        W 2403   3.014  13.444   4.472 -0.0953 -0.0615 -0.2419
59466W        W 2404   1.665  12.124   4.297 -0.1648  0.4126  0.1531
59467W        W 2405   0.983  11.922   4.447  0.1928  0.1317  0.1584
59468W        W 2406   1.592  11.512   6.442 -0.3133 -0.0493 -0.2064
59469W        W 2407   1.583  12.836   5.757 -0.0559  0.3025 -0.0033
59470W        W 2408   1.782  12.007   5.035 -0.0447 -0.2181 -0.0446
59471W        W 2409   1.010  12.558   3.924  0.0687  0.0320 -0.0155
59472W        W 2410   1.726  11.749   7.417 -0.2357  0.1680  0.0039
59473W        W 2411   1.284  11.705   4.093 -0.0716 -0.0849 -0.0684
59474W        W 2412   1.734  10.438   5.366 -0.2123  0.1002  0.1373
59475W        W 2413   1.999  10.404   7.035  0.4162 -0.1043  0.0248
59476W        W 2414   2.086  12.072   7.236  0.0923 -0.1734 -0.1265
59477W        W 2415   1.402  11.863   6.799 -0.0040 -0.0066 -0.2764
59478W        W 2416   0.382  11.290   6.831  0.2950 -0.0285  0.2411
59479W        W 2417   4.305  12.977   6.388 -0.0227 -0.2055 -0.0394
59480W        W 2418   2.263  12.019   3.345  0.1173 -0.3358  0.0141
59481W        W 2419   1.748  12.188   7.759  0.1924 -0.4462  0.4907
59482W        W 2420   2.841  10.610   4.746  0.0034 -0.5266  0.0523
59483W        W 2421   1.795  11.214   4.173  0.0800  0.3697  0.0022
59484W        W 2422  34.012  13.126   7.572 -0.0866 -0.0990 -0.1103
59485W        W 2423   2.938  11.276   7.822 -0.1065 -0.0401  0.0768
59486W        W 2424   0.582  11.587   4.335 -0.1456  0.1854  0.4224
59487W        W 2425   2.667  10.878   7.669 -0.2119  0.1474 -0.1317
59488W        W 2426   1.476  13.860   3.558  0.1609 -0.2241  0.2167
59489W        W 2427   1.596  12.567   5.206 -0.1776 -0.0546 -0.0375
59490W        W 2428   3.562  10.450   4.861  0.1020  0.0673 -0.2109
59491W        W 2429  33.961  11.353   5.631  0.0032  0.1285 -0.1239
59492W        W 2430   0.841  13.301   7.577  0.3547  0.2561  0.1978
59493W        W 2431  34.354  11.118   3.197  0.2341 -0.1016 -0.2843
59494W        W 2432   0.319  11.889   3.079 -0.0586  0.0773 -0.0337
59495W        W 2433   2.251  13.928   6.181 -0.1122  0.0402  0.0465
59496W        W 2434   3.280  12.544   6.476  0.1398 -0.1158 -0.1141
59497W        W 2435   1.815  10.440   3.211 -0.1552  0.1824  0.1069
59498W        W 2436   3.412  12.128   5.854 -0.4788  0.1132  0.0414
59499W        W 2437   0.522  14.556   3.830  0.1095  0.3011  0.2044
59500W        W 2438   1.677  11.014   6.530  0.3713  0.0721  0.1071
59501W        W 2439  34.554  13.377   6.239  0.2255  0.0165  0.1437
59502W        W 2440  34.121  12.763   6.581 -0.2545 -0.1318 -0.3518
59503W        W 2441   1.225  13.123   5.512 -0.0257  0.2201 -0.0305
59504W        W 2442   2.500  11.293   6.216 -0.3753 -0.0529  0.0720
59505W        W 2443   2.228  12.215   4.771  0.3218  0.0798  0.0660
59506W        W 2444   2.147  12.086   5.339 -0.1822  0.0502 -0.0295
59507W        W 2445   2.713  11.793   7.941 -0.1322  0.3170  0.3587
59508W        W 2446   2.020  12.856   6.062  0.0587 -0.2235 -0.0086
59509W        W 2447   0.066  13.097   5.058  0.1946  0.0417 -0.0348
59510W        W 2448   1.429  13.243   4.567 -0.1275 -0.2629  0.0684
59511W        W 2449   2.288  11.193   3.917  0.1165  0.0313  0.0714
59512W        W 2450   0.579  13.570   5.724 -0.3049  0.0184  0.3127
59513W        W 2451  34.600  12.721   7.358 -0.0011 -0.1869 -0.1911
59514W        W 2452   1.707  13.639   5.757  0.2627  0.0679 -0.3200
59515W        W 2453   3.465  11.440   5.562 -0.2401 -0.0246 -0.0549
59516W        W 2454   0.251  11.966   3.996  0.1244  0.1735 -0.1602
59517W        W 2455   3.679  14.360   3.798 -0.1135  0.0365 -0.4672
59518W        W 2456   0.444  14.186   6.166  0.2081 -0.1462  0.1254
59519W        W 2457   0.660  12.470   6.864 -0.0903 -0.0155 -0.1426
59520W        W 2458   0.061  14.743   4.138  0.2807  0.1459 -0.2195
59521W        W 2459   3.102  12.655   0.754  0.3373 -0.0277  0.1093
59522W        W 2460   3.230  12.477   3.146 -0.0899  0.1936 -0.0491
59523W        W 2461   2.426  14.157   4.837 -0.0191  0.2111 -0.0046
59524W        W 2462   0.479  11.569   3.731  0.0909 -0.0384  0.2824
59525W        W 2463   0.575  13.864   4.582  0.2418 -0.0406  0.0318
59526W        W 2464   0.206  13.092   4.123 -0.0975  0.2175 -0.0447
59527W        W 2465   2.512  13.591   3.584 -0.1886 -0.2483 -0.0148
59528W        W 2466   0.377  12.769   6.061  0.1356 -0.1374 -0.0831
59529W        W 2467   2.890  13.714   5.668 -0.0293 -0.3401 -0.1633
59530W        W 2468   3.419  11.280   2.402  0.0586  0.1323 -0.0340
59531W        W 2469   2.421  12.283   4.106 -0.3418  0.0321  0.1754
59532W        W 2470   2.201  12.652   5.011 -0.3903 -0.3551  0.3485
59533W        W 2471   2.666  14.491   7.244 -0.1022 -0.2482 -0.3130
59534W        W 2472   1.124  11.172   4.263 -0.0135 -0.1679 -0.4016
59535W        W 2473   1.498  11.355   5.242  0.1900 -0.0761 -0.0432
59536W        W 2474   1.294  12.074   7.557  0.0597 -0.0917  0.0494
59537W        W 2475   3.810  11.782   5.901 -0.2348 -0.0638 -0.2512
59538W        W 2476   0.061  13.901   8.789 -0.1607 -0.1723 -0.3912
59539W        W 2477   2.688  13.580   4.054  0.0127 -0.0422 -0.0563
59540W        W 2478   0.576  12.335   3.776 -0.1092 -0.0251  0.0682
59541W        W 2479   0.049  11.296   4.736 -0.3382 -0.1110  0.3843
59542W        W 2480   3.615  11.185   5.135  0.0254  0.1699  0.0385
59543W        W 2481   2.094  13.981   3.750 -0.3538 -0.0125 -0.0236
59544W        W 2482   2.275  11.705   4.954  0.0381 -0.0872 -0.3049
59545W        W 2483   0.151  13.625   3.899 -0.3017  0.0412  0.0421
59546W        W 2484   1.324  13.622   7.400  0.1293 -0.0783 -0.3934
59547W        W 2485   0.199  13.413   5.429 -0.0837  0.3029 -0.1547
59548W        W 2486  34.421  10.340   4.975 -0.0084 -0.0978  0.2279
59549W        W 2487   2.856  12.932   4.559 -0.1172  0.1319 -0.2146
59550W        W 2488   1.058  11.799   7.195  0.4625  0.4360  0.2475
59551W        W 2489   2.052  11.437   6.636 -0.0248 -0.0683  0.2845
59552W        W 2490   0.816  12.632   3.476  0.1151 -0.2811 -0.1095
59553W        W 2491   1.850  10.198   3.610  0.2517  0.0298 -0.0980
59554W        W 2492   2.358  12.991   6.909  0.1693 -0.0474  0.0140
59555W        W 2493   0.294  12.627   6.516  0.0017 -0.1290 -0.0837
59556W        W 2494   0.996  11.392   3.790  0.3810 -0.0226 -0.4697
59557W        W 2495   2.764  12.898   6.135  0.2047  0.4382  0.1396
59558W        W 2496   2.853  12.324   3.433  0.0365  0.1206  0.1208
59559W        W 2497   2.494  14.276   6.777 -0.0381  0.1876  0.0555
59560W        W 2498  34.549  12.175   5.001 -0.0098 -0.0934  0.1248
59561W        W 2499   2.487  10.898   3.457  0.0013  0.0545 -0.0677
59562W        W 2500  33.850  11.825   5.521 -0.1065 -0.3176 -0.0478
59563W        W 2501   1.604  12.775   6.311 -0.6234  0.2071  0.1662
59564W        W 2502   1.540  14.638   6.300  0.1509 -0.1231  0.0125
59565W        W 2503   0.128  10.972   5.688  0.1245  0.2635 -0.0660
59566W        W 2504   2.197  13.963   2.903  0.0277  0.0452  0.0276
59567W        W 2505   2.672  12.072   4.566 -0.2062  0.3768 -0.2178
59568W        W 2506   1.008  14.281   3.051 -0.4646  0.3334  0.1960
59569W        W 2507   3.291  11.944   3.203 -0.1210 -0.1117  0.0678
59570W        W 2508   2.802  13.790   5.171 -0.0784 -0.0903 -0.1114
59571W        W 2509  34.599  12.555   6.871 -0.2205 -0.1012 -0.0592
59572W        W 2510   1.933  13.852   5.270  0.0608  0.2117  0.2664
59573W        W 2511   2.598  13.736   4.526 -0.0785  0.1599  0.2012
59574W        W 2512   2.436  11.262   4.842  0.2889  0.2196  0.0622
59575W        W 2513   0.486  11.847   5.230 -0.0376  0.0788  0.2176
59576W        W 2514  34.455  13.952   4.165  0.0311  0.3866  0.1902
59577W        W 2515   3.938  11.524   5.367 -0.1851 -0.0785  0.2237
59578W        W 2516   1.073  11.305   7.246 -0.0276  0.2923  0.0314
59579W        W 2517   2.662  15.257   3.817  0.0350 -0.0431 -0.0210
59580W        W 2518   3.052  10.663   6.149 -0.0126  0.2398  0.4140
59581W        W 2519   2.366  13.837   6.997  0.1144 -0.0973  0.3622
59582W        W 2520   1.756  12.892   7.054 -0.0955  0.0447  0.1112
59583W        W 2521   0.229  12.784   3.659  0.0595 -0.0495  0.1306
59584W        W 2522   2.170  14.628   5.863  0.0010 -0.1460  0.1268
59585W        W 2523   2.498  14.288   3.991  0.1509  0.3556 -0.0847
59586W        W 2524   2.167  13.473   3.963 -0.3933 -0.2332  0.1096
59587W        W 2525   2.149  13.253   3.315  0.2668  0.3278 -0.2018
59588W        W 2526   1.305  11.511   4.715  0.0471 -0.0547  0.0695
59589W        W 2527   1.833  13.326   4.315 -0.2615 -0.1124  0.0177
59590W        W 2528   0.416  11.388   5.899 -0.2550 -0.1316 -0.1627
59591W        W 2529   2.792  11.185   4.434 -0.0615  0.1687  0.1017
59592W        W 2530   3.000   9.357   4.246  0.1051  0.0466  0.0550
59593W        W 2531   0.918  12.658   8.332 -0.1288  0.2183 -0.2643
59594W        W 2532  33.714  12.149   4.300  0.1320 -0.0275 -0.1415
59595W        W 2533   0.134  12.710   4.744  0.1649 -0.0870 -0.1686
59596W        W 2534   0.780  12.915   5.703 -0.1734 -0.1261  0.0305
59597W        W 2535   1.478  12.412   6.611  0.2847 -0.1882  0.0702
59598W        W 2536   0.842  10.273   7.466  0.0681 -0.0221 -0.4007
59599W        W 2537  34.073  12.502   5.255  0.2829  0.1451  0.1273
59600W        W 2538   0.688  11.252   6.397  0.0376 -0.0989 -0.4676
59601W        W 2539   3.422  13.630   4.226 -0.1048 -0.2985  0.0507
59602W        W 2540   1.237  12.090   5.892  0.1929  0.1622  0.0211
59603W        W 2541   0.043  11.990   5.448 -0.1979 -0.1205  0.0306
59604W        W 2542   1.636  12.458   3.950  0.2158  0.2340 -0.3509
59605W        W 2543   2.562  13.244   4.374 -0.0517 -0.1251 -0.2201
59606W        W 2544   0.885  12.156   5.096  0.1743 -0.1394 -0.1717
59607W        W 2545   3.468  14.635   7.494 -0.0706  0.0694  0.4020
59608W        W 2546  34.139  13.170   3.815 -0.0173  0.0376  0.0239
59609W        W 2547   0.561  11.218   7.304 -0.1011  0.1479  0.0482
59610W        W 2548   2.231  10.901   7.405 -0.4432  0.0762 -0.0685
59611W        W 2549   0.093  10.326   4.628 -0.0831 -0.0437  0.0565
59612W        W 2550   1.578  13.261   6.384  0.0587  0.1572  0.0866
59613W        W 2551   0.772  12.398   5.927 -0.1502 -0.0590  0.1749
59614W        W 2552   2.959  14.547   3.353 -0.1531 -0.0770 -0.0425
59615W        W 2553   1.154  13.544   6.472  0.2634  0.0303  0.0117
59616W        W 2554   0.088  13.259   8.097 -0.0529 -0.0462  0.1427
59617W        W 2555   1.375  10.236   6.664 -0.1046 -0.0848  0.2691
59618W        W 2556   3.086  11.689   3.753  0.3263 -0.0519  0.0544
59619W        W 2557   1.879  13.346   7.763  0.0594 -0.1077  0.1247
59620W        W 2558   2.624  13.794   3.163  0.2674 -0.1383  0.3455
59621W        W 2559   2.864  11.221   3.830 -0.0693  0.3691  0.2739
59622W        W 2560   0.953  11.747   4.882 -0.0798  0.0335  0.0584
59623W        W 2561  34.418  10.904   7.790  0.0585  0.0214 -0.0966
59624W        W 2562   2.501  13.173   6.474 -0.1152  0.0371  0.0816
59625W        W 2563   1.182  13.345   5.043  0.2327 -0.0318  0.1036
59626W        W 2564   0.948  11.351   5.982  0.2657 -0.1475 -0.0128
59627W        W 2565   3.168  10.472   3.430  0.1789  0.0742 -0.0478
59628W        W 2566   2.741  14.264   4.434  0.1950 -0.0832 -0.2134
59629W        W 2567  34.362  12.439   6.222  0.0855 -0.0471 -0.1720
59630W        W 2568   0.050  11.671   5.058  0.2253  0.0706 -0.0304
59631W        W 2569   1.851  12.081   8.247  0.1379  0.0611 -0.2120
59632W        W 2570   1.100  14.155   4.484  0.0517  0.1947  0.0132
59633W        W 2571   2.481  11.798   7.487 -0.1797  0.3145 -0.3729
59634W        W 2572  34.428  12.341   4.122 -0.1440 -0.1319  0.1715
59635W        W 2573   2.997  13.032   4.056 -0.3264  0.2597 -0.1287
59636W        W 2574   2.359  12.395   7.548 -0.3783 -0.0280  0.1088
59637W        W 2575   3.783  14.285   7.310 -0.3985 -0.0510  0.0284
59638W        W 2576   0.907  13.063   4.741 -0.0574  0.2105  0.2714
59639W        W 2577   2.115  11.945   4.371 -0.1923 -0.1135  0.0661
59640W        W 2578   0.867  10.730   6.550 -0.0543  0.0041 -0.0154
59641W        W 2579   0.628  12.865   4.135 -0.2159  0.0400  0.1425
59642W        W 2580   1.578  12.804   4.417 -0.2043 -0.3027  0.2266
59643W        W 2581   2.285  11.126   5.432  0.2739  0.1933  0.0279
59644W        W 2582   1.233  11.643   5.700  0.2275 -0.1582  0.1511
59645W        W 2583   3.084  10.019   3.613  0.1185 -0.0660 -0.0783
59646W        W 2584   1.030  13.769   7.813  0.1386  0.1584  0.1635
59647W        W 2585   2.058  13.983   6.660 -0.1204 -0.1601 -0.2760
59648W        W 2586   3.740  12.838   9.586  0.2379  0.0799 -0.2050
59649W        W 2587   0.455  10.528   8.816 -0.0391 -0.2802  0.0173
59650W        W 2588   2.977  12.145   6.795 -0.2312  0.0844  0.0537
59651W        W 2589   3.374  12.902   9.215  0.1030 -0.0600  0.1564
59652W        W 2590  34.666  11.837   9.675  0.1444 -0.2049  0.0042
59653W        W 2591   3.587  13.262   7.486  0.2009 -0.0426 -0.1215
59654W        W 2592   3.132  13.992   7.797 -0.1011  0.1518  0.0437
59655W        W 2593   2.681  14.936   7.635 -0.3431  0.1118  0.0960
59656W        W 2594   2.862  11.871   7.195  0.0845  0.0843  0.1038
59657W        W 2595   1.839  12.525   9.629 -0.1300 -0.1379 -0.0129
59658W        W 2596   1.581  11.825   9.514 -0.5161  0.0690 -0.3513
59659W        W 2597   0.157  10.078   9.959 -0.1534  0.0844 -0.1226
59660W        W 2598   3.288  11.960   9.981  0.0278  0.2956  0.1140
59661W        W 2599   0.966  11.843   8.700  0.0819 -0.1329 -0.1499
59662W        W 2600   0.046  12.873  10.459  0.4476  0.3122  0.0315
59663W        W 2601   1.728  11.266   8.778  0.0687  0.1009 -0.2114
59664W        W 2602   2.459  13.605   9.472  0.2451  0.3785 -0.1327
59665W        W 2603   1.155  11.683  11.441  0.3909 -0.3525 -0.0305
59666W        W 2604   2.200  14.233   8.345  0.1344 -0.1422  0.1768
59667W        W 2605   0.203  11.739   6.727  0.0912  0.2155 -0.0580
59668W        W 2606   1.254  12.554  10.582 -0.4119  0.0362 -0.3722
59669W        W 2607   0.402  12.644  10.799 -0.0211  0.1215 -0.2192
59670W        W 2608   2.002  11.059   8.104 -0.1302  0.0851 -0.1794
59671W        W 2609   2.175  13.279   9.149 -0.2878  0.0217  0.0493
59672W        W 2610   2.452  14.205   9.023 -0.2889  0.1025  0.0771
59673W        W 2611   2.875  12.905   8.969  0.0653  0.0796 -0.0531
59674W        W 2612  33.881  13.337  11.325  0.0584 -0.1426 -0.4478
59675W        W 2613   0.678  13.348   9.275 -0.0529 -0.0154 -0.1899
59676W        W 2614   0.491  13.721   8.856 -0.0598  0.2364 -0.1119
59677W        W 2615   3.887  13.405   8.377  0.1848  0.0798  0.1217
59678W        W 2616   1.422  14.326   8.009  0.1225 -0.0161 -0.0225
59679W        W 2617   1.143  11.371  10.531  0.1590  0.0860  0.3138
59680W        W 2618   1.957  11.539   9.596 -0.1969  0.0515  0.1299
59681W        W 2619   1.323  12.196   9.775  0.2174  0.3115  0.0072
59682W        W 2620   0.963  11.135   9.609 -0.3172  0.2716  0.2650
59683W        W 2621  34.338  12.591  10.332 -0.1172 -0.0435 -0.0967
59684W        W 2622   0.170  13.592   9.791  0.1099  0.1545 -0.2316
59685W        W 2623   2.450  11.604   8.353 -0.1457  0.1653  0.2712
59686W        W 2624   1.091  11.508   8.184 -0.2633  0.2643  0.1689
59687W        W 2625   1.779  13.056   8.146  0.0775  0.0764  0.2515
59688W        W 2626   0.698  11.526   9.471 -0.0782 -0.4696  0.2562
59689W        W 2627   1.395  13.880   9.080  0.0787 -0.2595 -0.0730
59690W        W 2628   0.351  11.040   9.907 -0.0385 -0.0406 -0.3219
59691W        W 2629   0.846  11.972   9.177  0.0290  0.1498  0.1223
59692W        W 2630   0.548  12.047  10.220  0.2365  0.1627  0.3551
59693W        W 2631   1.580  13.566  10.563 -0.0148  0.5493 -0.1215
59694W        W 2632   1.521  12.453  10.170  0.0596 -0.2770 -0.2195
59695W        W 2633   2.309  14.748   6.808 -0.0934  0.1293  0.1858
59696W        W 2634   2.741  12.777   8.424  0.0696 -0.0273 -0.2616
59697W        W 2635   2.277  13.761   7.466 -0.1815 -0.0718  0.1801
59698W        W 2636  34.611  11.780   9.141 -0.1467 -0.3721  0.0237
59699W        W 2637   1.328  11.479   7.629  0.1399 -0.2291  0.0850
59700W        W 2638   2.205  11.205   8.625 -0.2083 -0.2185 -0.1866
59701W        W 2639   1.345  12.703   9.540  0.1116  0.2475 -0.1869
59702W        W 2640   3.983  14.753   9.583 -0.0489 -0.0289  0.2575
59703W        W 2641   2.450  13.355   7.864 -0.0465 -0.1415  0.0160
59704W        W 2642   1.114  10.246   9.472  0.0548 -0.2348  0.4390
59705W        W 2643   1.932  10.796  10.680 -0.3253  0.4313  0.3464
59706W        W 2644   2.109  12.433   9.098  0.2497 -0.1161 -0.0743
59707W        W 2645   0.880  12.313   8.764  0.0015  0.2734  0.0888
59708W        W 2646   3.340  13.614   9.524 -0.2689  0.0608  0.1042
59709W        W 2647   3.171  13.112   6.281  0.1436  0.0983  0.1701
59710W        W 2648   1.930  14.028   9.804 -0.1966 -0.1384  0.3675
59711W        W 2649   1.168  13.853   8.351  0.3090  0.3073 -0.1539
59712W        W 2650  34.485  12.254   9.969 -0.2645  0.0802  0.0953
59713W        W 2651   0.965  12.953   9.210  0.0629  0.2033  0.1846
59714W        W 2652   1.273  11.304  10.039 -0.2506 -0.0104  0.1671
59715W        W 2653  33.405  13.102  11.673 -0.0868 -0.1235  0.1839
59716W        W 2654   1.696  10.426   8.556  0.1705  0.2169  0.2114
59717W        W 2655   2.705  11.154   9.345 -0.0045  0.1021  0.0682
59718W        W 2656  34.447  12.129   8.435 -0.1426  0.0533  0.1999
59719W        W 2657   3.489  13.540   8.663 -0.1888 -0.0285 -0.0463
59720W        W 2658   3.096  11.981   8.978  0.1080  0.1682  0.0309
59721W        W 2659   2.078  13.548   8.275 -0.1279  0.0779  0.2787
59722W        W 2660   0.190  11.949  11.237  0.0454 -0.1666  0.3340
59723W        W 2661   0.189  11.509   8.807 -0.1311  0.0894 -0.2386
59724W        W 2662   0.220  10.020  10.483 -0.3072 -0.2259  0.1592
59725W        W 2663  34.528  10.762   8.959  0.1286 -0.1899 -0.0452
59726W        W 2664   1.525  11.863   8.514  0.3038  0.2252 -0.1444
59727W        W 2665   0.802  12.010   9.735 -0.2149 -0.2632  0.3458
59728W        W 2666   0.485  12.570   8.684  0.1437  0.0877  0.0158
59729W        W 2667   2.139  13.671   8.763  0.0882 -0.0337 -0.0973
59730W        W 2668   1.674  14.206   9.419 -0.4567 -0.3136 -0.2252
59731W        W 2669   3.008  13.363   8.634  0.1569  0.3385  0.4168
59732W        W 2670  34.267   9.004  10.813  0.0105 -0.3452  0.1820
59733W        W 2671   1.085  10.900   8.225  0.1321  0.2360 -0.2538
59734W        W 2672   1.052  14.371  10.027  0.0000 -0.1149  0.1015
59735W        W 2673   1.062  12.643  10.003 -0.0846 -0.3821 -0.0122
59736W        W 2674   1.596  11.432   8.206  0.0912 -0.1641 -0.1567
59737W        W 2675   2.154  14.986   8.885 -0.0039 -0.4252 -0.1960
59738W        W 2676   1.151  11.599   9.157  0.0924  0.1600  0.2895
59739W        W 2677   6.701  12.368   9.303 -0.2025  0.2549 -0.3131
59740W        W 2678   0.843  11.195  10.184  0.0406  0.0668 -0.0615
59741W        W 2679   0.515  10.603   7.179 -0.1422 -0.0874 -0.0072
59742W        W 2680   1.952  14.260   7.763 -0.1246  0.0170 -0.1348
59743W        W 2681   0.328  14.771   8.410  0.2655  0.2727 -0.1835
59744W        W 2682  34.269  12.646  10.888  0.0083  0.1834  0.2995
59745W        W 2683   0.566  13.822   9.547  0.0841 -0.0595 -0.2471
59746W        W 2684   2.248  11.763   9.892 -0.2822 -0.3093 -0.1391
59747W        W 2685  34.315  10.341   8.638  0.1392 -0.0458  0.2090
59748W        W 2686   1.735  10.909   9.325 -0.1748 -0.0203  0.2497
59749W        W 2687   2.308  13.057   8.257  0.2174  0.0559 -0.1850
59750W        W 2688   3.888  11.556   8.635 -0.1997  0.2145 -0.1843
59751W        W 2689   2.018  12.067   9.424 -0.0212 -0.1431 -0.0389
59752W        W 2690   1.469  11.859   7.986 -0.0065  0.1609  0.0168
59753W        W 2691   0.889  13.816   9.141 -0.1813 -0.0099 -0.0773
59754W        W 2692   0.718  12.527  10.365 -0.2123 -0.2130  0.0706
59755W        W 2693   2.122  13.397   6.181 -0.0416 -0.0875 -0.2273
59756W        W 2694   2.862  14.814   6.868 -0.0768 -0.1898  0.0033
59757W        W 2695   0.142  10.251  11.537 -0.4173 -0.2809  0.1441
59758W        W 2696   3.245  12.754   8.264 -0.2937  0.1680  0.1311
59759W        W 2697   1.327  13.008  10.293 -0.1676  0.1073 -0.1533
59760W        W 2698   2.121  12.300   6.351  0.0022 -0.0454 -0.0170
59761W        W 2699   1.291  10.742   9.630 -0.0840  0.4197 -0.0301
59762W        W 2700   0.420  14.191   8.616  0.0721  0.1358 -0.1493
59763W        W 2701   1.220  10.376   9.949  0.0323 -0.1604  0.0400
59764W        W 2702   1.058  12.196  10.214 -0.0181  0.0381  0.3221
59765W        W 2703   2.303  12.031   8.542  0.1436  0.1089  0.0710
59766W        W 2704   2.667  12.595   9.293 -0.0075  0.1058  0.0769
59767W        W 2705   1.262  12.537   7.490  0.2629  0.3502  0.2754
59768W        W 2706   1.732  10.943  10.042  0.2660 -0.2129  0.2026
59769W        W 2707   2.297  13.171  10.196  0.3822  0.0808 -0.1052
59770W        W 2708   2.869  13.352   9.366  0.0450  0.3493 -0.0678
59771W        W 2709   1.928  12.567   8.609  0.0531  0.0318 -0.0445
59772W        W 2710   0.532  14.108   7.819  0.1009  0.1419  0.1677
59773W        W 2711   0.925  13.354   8.169 -0.1794  0.0244 -0.2691
59774W        W 2712   0.944  10.047   8.713  0.0115 -0.2587  0.0224
59775W        W 2713   1.324  13.107  10.842 -0.2108 -0.0728 -0.0384
59776W        W 2714   1.575  13.847   8.615  0.0776  0.0099  0.1987
59777W        W 2715   4.530  12.706   8.978 -0.0195 -0.2606  0.1177
59778W        W 2716   0.340  12.974  10.074  0.0764  0.3451  0.2458
59779W        W 2717   4.475  10.484   9.809  0.0223  0.1423 -0.0540
59780W        W 2718  34.029  13.729  11.055  0.0759 -0.1346  0.1883
59781W        W 2719   0.874  11.650   7.615 -0.0635 -0.0662  0.0709
59782W        W 2720  34.395  11.642   8.635 -0.0425  0.0236  0.1919
59783W        W 2721   3.134  10.985   8.189  0.1782 -0.0292  0.0991
59784W        W 2722   2.131  12.937   7.723  0.0473 -0.1306  0.1032
59785W        W 2723  34.266   9.852  10.601 -0.2098 -0.0011 -0.3693
59786W        W 2724   1.874  10.798   8.817 -0.0106  0.1492 -0.0992
59787W        W 2725   2.007  13.509   9.819  0.1895  0.0573 -0.6839
59788W        W 2726   2.031  11.645   8.010 -0.1888  0.2760  0.1585
59789W        W 2727   0.905  10.448   9.032  0.2396  0.2194 -0.1286
59790W        W 2728   5.042  11.377  10.046 -0.0738 -0.1279 -0.0635
59791W        W 2729   1.164  11.632   9.636  0.2020 -0.2452  0.1309
59792W        W 2730  34.594  12.949   9.348 -0.1731  0.0966  0.4934
59793W        W 2731   4.516  12.723   9.800 -0.0510 -0.0334 -0.2088
59794W        W 2732   1.413  12.484   8.024  0.1972  0.2456 -0.0347
59795W        W 2733   1.541  12.844   8.839 -0.0321 -0.1720  0.0413
59796W        W 2734   4.276  11.894   9.549 -0.0060 -0.2807  0.5192
59797W        W 2735   0.831  12.914  10.852  0.0817 -0.1090 -0.0463
59798W        W 2736   0.339  10.522   9.772 -0.1689 -0.1795 -0.1696
59799W        W 2737   2.302  12.300   9.765  0.2041 -0.2500  0.2415
59800W        W 2738   3.128  12.506   9.109 -0.3524 -0.0178 -0.2684
59801W        W 2739   1.338  10.078   8.992  0.1712  0.0235 -0.0491
59802W        W 2740   1.861  10.388  10.263  0.1395 -0.2164  0.0174
59803W        W 2741   4.002  14.767   7.461  0.0022  0.3422 -0.1200
59804W        W 2742   1.036  12.830   7.785 -0.0020  0.3732 -0.0550
59805W        W 2743  34.232  12.164  12.018 -0.1487  0.3664  0.1080
59806W        W 2744   0.903  13.034   8.728  0.1252 -0.1143  0.1264
59807W        W 2745   0.793  13.066  10.248 -0.1033  0.0957 -0.0660
59808W        W 2746   0.393  13.136  10.663  0.1019  0.2442 -0.1606
59809W        W 2747   1.389  12.454   8.578 -0.0502  0.0763  0.0382
59810W        W 2748  33.399  13.853  11.171  0.0608  0.0056 -0.0565
59811W        W 2749   3.544  10.485   6.899  0.0721 -0.0906 -0.0046
59812W        W 2750   1.532  13.507   8.259 -0.0457 -0.2127  0.0857
59813W        W 2751   2.253  11.002  10.088 -0.0461  0.1704  0.0338
59814W        W 2752   2.545  13.029   7.434  0.0598 -0.2289  0.2071
59815W        W 2753   0.805  10.652   9.475 -0.0429  0.1542  0.0943
59816W        W 2754   3.350  12.959   8.729 -0.0113 -0.2324  0.2258
59817W        W 2755   1.769  12.422  10.678  0.0169 -0.0360 -0.0634
59818W        W 2756   1.262   9.669   8.074 -0.1116  0.1841  0.0651
59819W        W 2757   0.598  12.505   9.889 -0.0298  0.3341  0.0673
59820W        W 2758   3.535  12.490   8.792 -0.0096  0.0903 -0.2645
59821W        W 2759   1.751  13.980   8.153  0.0856 -0.2998 -0.0466
59822W        W 2760   2.787  10.996  10.293  0.0374  0.0202 -0.3235
59823W        W 2761   2.619  13.227   9.807 -0.1450  0.1762  0.3452
59824W        W 2762   1.344  13.314   8.706 -0.3425  0.5439 -0.6269
59825W        W 2763   1.948  12.552   7.954 -0.0528 -0.0709 -0.4259
59826W        W 2764   1.338  12.085  10.556  0.1806  0.3099  0.1337
59827W        W 2765   3.273  13.145   9.648  0.0276  0.1153  0.0577
59828W        W 2766   1.845  11.211   7.644  0.2750  0.1132 -0.2063
59829W        W 2767   3.898  14.175   9.274 -0.1859 -0.0872 -0.1875
59830W        W 2768   3.385  12.067   7.856 -0.3328  0.0098  0.2549
59831W        W 2769   4.660  12.096   9.969  0.2285  0.0259 -0.0644
59832W        W 2770   2.870  13.640   9.787 -0.1843 -0.0580 -0.0144
59833W        W 2771   1.585  12.856   7.776 -0.0112  0.1188  0.1738
59834W        W 2772   0.162  11.432   9.422  0.0570 -0.3713  0.0390
59835W        W 2773   0.139  11.048   8.031  0.0701  0.0201  0.3267
59836W        W 2774   0.681  14.640   8.702  0.0697  0.0292 -0.0882
59837W        W 2775   2.207  12.503  10.293  0.0547  0.0340  0.1227
59838W        W 2776   0.746  12.945   9.677 -0.1011  0.0406  0.0334
59839W        W 2777  34.252  12.015   9.394  0.0330  0.1436  0.1621
59840W        W 2778   0.817  12.255   7.345  0.0629 -0.0655  0.0848
59841W        W 2779   1.867  12.532   7.455 -0.1699  0.0001 -0.0785
59842W        W 2780   0.451  10.931  10.388  0.2370  0.0092  0.2632
59843W        W 2781   2.286  10.301   7.532 -0.2828  0.1661 -0.0878
59844W        W 2782   1.892  12.901  10.014 -0.0807 -0.1100 -0.0786
59845W        W 2783   2.445  13.704  10.003 -0.0099 -0.0359 -0.0927
59846W        W 2784   4.381  14.108   9.339  0.1758  0.2126 -0.3211
59847W        W 2785   2.561  13.978   8.593 -0.4092  0.3085 -0.1697
59848W        W 2786   0.918  10.452  10.418 -0.0862 -0.0005 -0.1452
59849W        W 2787   0.856  11.883  10.636 -0.0129 -0.3087 -0.0037
59850W        W 2788   1.545  12.294   9.289 -0.0648  0.0557 -0.0071
59851W        W 2789  34.666  12.240   9.376  0.0093  0.0441 -0.0353
59852W        W 2790   2.971  12.202   9.455  0.1200  0.0047  0.0589
59853W        W 2791   0.833  12.449   9.393 -0.2232 -0.1480  0.1761
59854W        W 2792   2.537  12.745   9.962  0.3028 -0.1422 -0.3026
59855W        W 2793   0.924  10.521   7.928 -0.1174  0.0351  0.1329
59856W        W 2794   2.093  13.527  10.541  0.1543 -0.1333 -0.1236
59857W        W 2795   0.995  14.951   9.336 -0.4881  0.0380  0.1269
59858W        W 2796   2.915  13.261   7.579  0.0913 -0.0306 -0.1216
59859W        W 2797   1.732  13.507   8.996  0.0614  0.0283  0.1357
59860W        W 2798   3.252  14.410   9.371  0.0551  0.0061  0.0870
59861W        W 2799   2.558  12.404   8.803  0.0406 -0.1514  0.0748
59862W        W 2800   0.959  13.894  10.414 -0.1473  0.2247 -0.0932
59863W        W 2801  34.212  13.666   7.522  0.3663 -0.0879  0.1555
59864W        W 2802   2.200  13.493   6.657  0.1957  0.1466 -0.2473
59865W        W 2803   1.280  13.343   9.190 -0.1882 -0.1217 -0.0497
59866W        W 2804   2.564  12.701   7.928 -0.1008  0.2396  0.1271
59867W        W 2805   2.129  11.712   8.980 -0.2245  0.2932  0.1895
59868W        W 2806   2.783  12.238   8.213  0.0622  0.0601 -0.0747
59869W        W 2807   0.799  10.686   9.965  0.0426  0.0972  0.1123
59870W        W 2808   1.610  12.270   7.106 -0.1505 -0.1767  0.2240
59871W        W 2809   2.973  13.602   6.258 -0.0657 -0.0064  0.0435
59872W        W 2810   0.385  11.908   9.403  0.1969 -0.3119  0.1972
59873W        W 2811   0.092  12.667   9.742  0.0807  0.1424  0.0153
59874W        W 2812   3.360  11.355   9.512  0.1460  0.1413 -0.0674
59875W        W 2813   0.681  13.951   8.273  0.3891  0.0953 -0.0390
59876W        W 2814   3.563  12.315   9.644  0.1593 -0.0474  0.2063
59877W        W 2815   1.087  14.901   9.842 -0.0568  0.3869 -0.1754
59878W        W 2816   0.441  12.790   9.298  0.2089  0.0253  0.2435
59879W        W 2817   6.203  13.693   9.170 -0.2379 -0.1255 -0.2636
59880W        W 2818  34.641  10.920  10.609  0.3679 -0.3090 -0.0295
59881W        W 2819   3.019  10.658   7.290  0.0216  0.2263  0.0355
59882W        W 2820   2.188  15.366  10.194 -0.1060 -0.3283  0.0011
59883W        W 2821   1.146  11.259   8.653 -0.1497 -0.0637 -0.0148
59884W        W 2822   2.861  11.473   6.857  0.0646  0.3363  0.5364
59885W        W 2823   1.845  12.069   9.926  0.2960  0.0958  0.0302
59886W        W 2824   0.045   9.820  11.896  0.0874 -0.3473  0.0775
59887W        W 2825   0.939  13.590   8.675 -0.1179  0.1363  0.0523
59888W        W 2826   2.033  11.784   6.253 -0.0459 -0.1551 -0.0253
59889W        W 2827   1.776  10.068   9.285  0.0263  0.1387 -0.3194
59890W        W 2828   1.943  13.178   8.635 -0.2279  0.0114  0.2654
59891W        W 2829   0.006  11.589   8.081  0.0495  0.0222  0.0248
59892W        W 2830   0.699  12.040  11.240  0.2436 -0.0058  0.0728
59893W        W 2831  34.361  11.415   9.539  0.1169  0.3659 -0.1335
59894W        W 2832   3.346  11.995   5.370 -0.1136 -0.2390  0.0771
59895W        W 2833   2.670  11.967   9.814  0.2919 -0.0436  0.1613
59896W        W 2834   0.529  13.539   7.924  0.3806  0.0644 -0.3494
59897W        W 2835   2.907  13.192   8.112  0.2163  0.0942  0.2385
59898W        W 2836   1.421  14.732  10.324 -0.0490 -0.0124 -0.2340
59899W        W 2837  33.885  12.711  12.130  0.1830  0.2428  0.3752
59900W        W 2838   4.093  15.241   9.663  0.0544 -0.0753 -0.3282
59901W        W 2839   2.571  13.469   8.480  0.2956  0.1128 -0.0009
59902W        W 2840   2.066  10.192   7.929  0.1747  0.1675 -0.1870
59903W        W 2841   0.490  10.727   8.141  0.0303 -0.1762 -0.1613
59904W        W 2842   1.148  14.124   9.529 -0.1177 -0.2177  0.0158
59905W        W 2843   2.080  11.236   9.153 -0.0201 -0.0507  0.3749
59906W        W 2844   2.921  13.700   8.105 -0.0106 -0.0141  0.1021
59907W        W 2845   0.558  12.649  12.006  0.1635 -0.1663  0.2145
59908W        W 2846   0.246  12.197   7.039  0.2340  0.1543  0.0704
59909W        W 2847   1.212  12.565   9.039  0.0500 -0.1377 -0.2014
59910W        W 2848   1.090  13.580   9.635 -0.1108  0.0716  0.1537
59911W        W 2849   3.261  13.394   9.068 -0.2028  0.0936  0.0304
59912W        W 2850   1.404  11.570  11.055 -0.1781 -0.1239 -0.0928
59913W        W 2851   3.765  13.292   9.318 -0.2266 -0.0337 -0.5401
59914W        W 2852   1.520  11.257   9.609 -0.1850  0.0857 -0.1836
59915W        W 2853   4.083  10.376   6.806 -0.0114  0.3735  0.3155
59916W        W 2854   3.271  10.999   7.709  0.2509  0.2362 -0.0698
59917W        W 2855   0.979  12.588  11.218 -0.1221 -0.0616 -0.0399
59918W        W 2856   0.210  11.847   8.465  0.2250  0.0993 -0.4689
59919W        W 2857   0.489  12.551   8.016  0.0692  0.1785  0.0341
59920W        W 2858   0.123  12.415  10.271  0.3822 -0.1653 -0.2695
59921W        W 2859  34.266  14.079  10.386  0.1983 -0.2063 -0.3328
59922W        W 2860   0.666  10.995   8.587 -0.2375  0.2319  0.0283
59923W        W 2861   3.821  12.769   6.462  0.3524 -0.0452 -0.1535
59924W        W 2862   0.398  11.420  10.360  0.3805  0.0588 -0.3237
59925W        W 2863   0.741  12.310  10.827  0.1249  0.0483 -0.2026
59926W        W 2864   3.103  12.317   8.604 -0.0700  0.2353 -0.0504
59927W        W 2865   2.485  14.194   7.557  0.2696  0.0840  0.2184
59928W        W 2866   1.254  10.707   8.782 -0.1715  0.2417 -0.0267
59929W        W 2867   0.525  13.489   8.429  0.0585  0.3918 -0.0271
59930W        W 2868  34.604  12.118   7.543 -0.2719  0.0657  0.3532
59931W        W 2869   2.035  13.810   9.282  0.1531  0.0688 -0.1438
59932W        W 2870   1.675  13.247   9.541 -0.0746  0.1580 -0.0419
59933W        W 2871   3.252  14.061   6.412  0.2056 -0.1065  0.0831
59934W        W 2872  34.349  10.240  10.160  0.1514  0.0903 -0.1562
59935W        W 2873   2.588  13.677   8.999 -0.0161 -0.0853  0.1611
59936W        W 2874   2.966  13.404   6.707 -0.0045 -0.0590  0.2050
59937W        W 2875   2.969  12.334  10.030 -0.0049 -0.3616  0.1979
59938W        W 2876   2.354  12.942   8.816 -0.3416 -0.0208 -0.0965
59939W        W 2877   3.403  11.888   9.466 -0.1025 -0.3657  0.0883
59940W        W 2878   1.473  10.505  10.514 -0.1874 -0.1995 -0.0758
59941W        W 2879   1.817  12.142   8.798 -0.0945  0.0512 -0.1944
59942W        W 2880   1.344  12.974   8.308  0.2577  0.1183 -0.2330
59943W        W 2881   2.006  11.892  10.321  0.0213  0.3821 -0.2710
59944W        W 2882   1.317  12.046   8.968 -0.1417 -0.1635  0.0221
59945W        W 2883   1.268  13.103   9.779  0.0803 -0.1458  0.1934
59946W        W 2884  34.177  12.585   9.681  0.0993  0.0460 -0.2799
59947W        W 2885   3.392  13.494   6.501  0.0159 -0.1342  0.0349
59948W        W 2886   2.577  14.563   9.913 -0.0423 -0.0842  0.0911
59949W        W 2887   1.414  14.156  10.395  0.1445 -0.0285 -0.2064
59950W        W 2888   3.790  11.853   9.840  0.1459  0.1909 -0.0167
59951W        W 2889   0.906   9.715  10.324  0.2204 -0.1143  0.0040
59952W        W 2890   0.349  13.209   8.951 -0.3301 -0.2276 -0.0982
59953W        W 2891   0.577  12.156   8.338 -0.2076 -0.1143  0.0579
59954W        W 2892   2.603  10.916  10.891 -0.3239 -0.0946  0.2905
59955W        W 2893   0.450  12.332   9.102  0.1996  0.0319 -0.1057
59956W        W 2894   2.411  11.392   7.742  0.0914 -0.1190 -0.1997
59957W        W 2895   2.726  15.001   9.501 -0.1909 -0.4668 -0.1353
59958W        W 2896   2.572  12.019  10.495 -0.0290 -0.2058  0.1133
59959W        W 2897   1.111  16.032   3.051  0.0583  0.0304  0.0020
59960W        W 2898   0.968  16.144   1.347  0.0492  0.1972  0.0850
59961W        W 2899   4.059  13.810  31.698 -0.1434 -0.2676  0.1222
59962W        W 2900   3.802  17.019   0.410 -0.1599  0.3812  0.2357
59963W        W 2901  33.995  14.559   0.825 -0.0259 -0.1091 -0.1150
59964W        W 2902   1.093  16.993   2.639  0.0050  0.3690 -0.3133
59965W        W 2903  34.068  13.952   3.158 -0.2384 -0.2952  0.1201
59966W        W 2904   0.844  16.453   2.959  0.0317  0.0157  0.4540
59967W        W 2905   2.721  20.436   1.290 -0.1048 -0.0306 -0.0346
59968W        W 2906   1.184  16.768   0.646  0.1786  0.2881  0.0893
59969W        W 2907   1.779  16.382   2.409  0.0388 -0.3116 -0.2789
59970W        W 2908   0.994  17.419   2.929 -0.0187  0.0358  0.0503
59971W        W 2909   1.106  15.774  31.869 -0.2796 -0.1469  0.0626
59972W        W 2910  34.121  14.407   1.978 -0.0841  0.0943  0.2171
59973W        W 2911   3.639  16.094   3.191 -0.0117 -0.2952  0.2076
59974W        W 2912   0.956  16.479   2.041 -0.1401  0.0233 -0.0647
59975W        W 2913   0.846  15.182   2.216 -0.1871  0.2513  0.1578
59976W        W 2914   2.385  14.630   1.236  0.0680  0.1176 -0.2825
59977W        W 2915   1.623  18.499   0.856  0.3805  0.0210  0.0672
59978W        W 2916  34.177  15.106   2.545 -0.1783 -0.0560 -0.0857
59979W        W 2917   2.582  14.458   3.054  0.0761  0.1035  0.0367
59980W        W 2918   2.204  18.281  31.752  0.1523 -0.1206  0.0073
59981W        W 2919   1.301  16.456   1.540 -0.0174  0.0818 -0.0342
59982W        W 2920  33.970  14.890   2.149  0.2257 -0.2751  0.2232
59983W        W 2921   0.057  15.530   2.483 -0.2831 -0.2080  0.3194
59984W        W 2922   3.526  14.949   1.325 -0.2951 -0.1432  0.0804
59985W        W 2923   4.014  15.806   1.394 -0.1890  0.1618  0.2824
59986W        W 2924   1.969  18.925   1.370  0.1020 -0.1139  0.0371
59987W        W 2925   3.040  18.839   2.369 -0.1184 -0.0435 -0.1358
59988W        W 2926   2.993  15.732   2.591  0.1617 -0.0038 -0.0703
59989W        W 2927   2.364  18.132   1.170 -0.1355 -0.1347  0.1325
59990W        W 2928   0.153  16.002   1.737  0.1510 -0.1508 -0.2114
59991W        W 2929   2.122  18.477   1.412  0.0946  0.0190  0.1411
59992W        W 2930   2.263  16.644   1.091 -0.0215  0.2079  0.1541
59993W        W 2931   3.389  16.462   3.362  0.2269 -0.0579 -0.0023
59994W        W 2932   1.526  17.871   3.668  0.0186 -0.1465  0.1988
59995W        W 2933   0.919  18.679   0.425 -0.0521  0.1105  0.2090
59996W        W 2934   2.286  19.125   1.691 -0.1513  0.0566  0.0041
59997W        W 2935   1.406  17.944   2.591  0.2638  0.1179  0.4535
59998W        W 2936   2.088  17.883   1.588  0.0958 -0.0397  0.3785
59999W        W 2937   1.771  15.298   2.330 -0.0697  0.0419  0.1222
60000W        W 2938   1.473  17.343   0.650 -0.1283  0.1618 -0.0973
60001W        W 2939   3.826  18.013   1.815 -0.0806  0.3391 -0.3198
60002W        W 2940   1.873  15.681   4.094 -0.2549 -0.0572 -0.1155
60003W        W 2941   1.085  17.297   2.254  0.2954  0.1179  0.0793
60004W        W 2942   3.152  16.030   3.027 -0.3487 -0.2603 -0.1769
60005W        W 2943   1.347  17.870   0.850  0.0824  0.0901 -0.1764
60006W        W 2944   4.612  14.797  31.195 -0.1766 -0.1179  0.0825
60007W        W 2945   2.375  17.125  30.459 -0.0235 -0.0858 -0.0659
60008W        W 2946   3.020  15.298   0.188  0.2440  0.1388  0.3044
60009W        W 2947   2.172  15.522   2.136 -0.0193 -0.1551 -0.0716
60010W        W 2948   2.294  18.494   0.840 -0.0202 -0.2050 -0.0386
60011W        W 2949   0.859  15.672   2.128  0.2853  0.1717 -0.1972
60012W        W 2950   2.938  17.503   1.665  0.0341 -0.1824  0.1862
60013W        W 2951   1.856  14.411   1.193  0.0237 -0.2287  0.1538
60014W        W 2952   1.357  14.230   1.239  0.0497 -0.1967 -0.4453
60015W        W 2953   1.681  18.583   2.714 -0.0487  0.0468  0.1889
60016W        W 2954   0.244  15.719   1.307  0.1289  0.0568 -0.1033
60017W        W 2955   2.013  19.591   0.015 -0.0894 -0.1336  0.0489
60018W        W 2956   3.929  19.207   0.823  0.0983  0.0672  0.0174
60019W        W 2957   3.304  18.453   0.256 -0.2586 -0.1671 -0.0977
60020W        W 2958  34.126  16.477   2.532 -0.0955 -0.1344  0.0562
60021W        W 2959  33.315  16.046   2.782 -0.1600 -0.2903 -0.2048
60022W        W 2960   0.282  15.330   3.163 -0.0534  0.0793 -0.0344
60023W        W 2961   0.352  13.321  31.389  0.0167  0.2904 -0.2057
60024W        W 2962   3.949  16.234   0.918  0.2138 -0.2084 -0.0782
60025W        W 2963  34.564  17.732   3.956 -0.3274  0.2262  0.1952
60026W        W 2964   4.163  13.871   1.830  0.0811 -0.1838  0.2350
60027W        W 2965   1.339  15.008   3.206 -0.3788 -0.0331 -0.1180
60028W        W 2966   2.262  16.879   3.096 -0.1148  0.1646  0.1196
60029W        W 2967   0.277  17.381   2.180  0.1039  0.2318 -0.2114
60030W        W 2968   3.946  15.455   2.460  0.1173 -0.1546 -0.0578
60031W        W 2969   1.525  14.673   2.679  0.0791 -0.1881 -0.0681
60032W        W 2970   2.329  17.605   1.151  0.1034  0.3709 -0.0185
60033W        W 2971   2.779  18.101   0.772 -0.0454 -0.0413  0.0923
60034W        W 2972   2.742  17.461   2.826  0.0929 -0.2105 -0.0653
60035W        W 2973   4.350  14.807  31.785 -0.1227  0.4930  0.1021
60036W        W 2974   0.348  17.710   2.520 -0.0612 -0.1949  0.3094
60037W        W 2975   2.095  16.185   2.756 -0.2733  0.3698 -0.1861
60038W        W 2976   2.404  17.376   3.219  0.2097  0.0976 -0.0963
60039W        W 2977   0.938  17.211   0.460 -0.3683 -0.3109  0.3246
60040W        W 2978  34.268  16.615   3.289  0.0264  0.1499 -0.2263
60041W        W 2979   1.731  16.963   2.494 -0.0610 -0.0464 -0.1581
60042W        W 2980  34.204  15.641   2.999  0.3510  0.1428  0.0078
60043W        W 2981   1.401  17.355   2.601 -0.3352 -0.1910 -0.0592
60044W        W 2982   3.863  14.959   1.772 -0.1256  0.1261  0.1722
60045W        W 2983  34.449  16.069   2.592  0.1840  0.1454 -0.0718
60046W        W 2984   5.819  14.844   1.801 -0.0008  0.2153 -0.1618
60047W        W 2985   0.090  16.841   2.189 -0.0885  0.1905 -0.4845
60048W        W 2986   3.186  18.349   0.754 -0.0622  0.3467  0.3131
60049W        W 2987   1.962  16.281   1.617 -0.2039  0.1970  0.2966
60050W        W 2988   2.722  17.775   0.360 -0.1283 -0.1190  0.1566
60051W        W 2989   0.991  15.300   1.747 -0.1316  0.1918 -0.3584
60052W        W 2990   0.668  14.429   0.621 -0.1006 -0.1337  0.0848
60053W        W 2991   1.481  14.385   3.570  0.0779  0.1502 -0.0443
60054W        W 2992  34.367  14.786   2.947  0.1918  0.0631 -0.1035
60055W        W 2993   1.714  15.794   2.462  0.2823 -0.0399 -0.2599
60056W        W 2994   0.353  14.191   1.899 -0.3502 -0.0130 -0.0388
60057W        W 2995   2.327  15.963   0.650 -0.1631  0.1647 -0.0657
60058W        W 2996   0.309  15.900   2.348 -0.0944 -0.1343  0.0942
60059W        W 2997  34.119  17.081   1.637  0.1963  0.0628  0.1479
60060W        W 2998   2.670  15.323   2.257  0.2881 -0.1798 -0.0236
60061W        W 2999   3.344  18.612   2.051 -0.0916 -0.2161  0.0914
60062W        W 3000   3.840  17.498   2.271  0.3137  0.0369 -0.0291
60063W        W 3001   1.883  17.510   0.933  0.0826 -0.0678 -0.2464
60064W        W 3002  34.409  15.354   3.362  0.2031 -0.0490  0.1389
60065W        W 3003   1.603  15.007   1.584  0.0727  0.0444 -0.3924
60066W        W 3004   0.881  18.924   3.204 -0.0106  0.0773 -0.1579
60067W        W 3005   2.107  17.180   3.561 -0.1076 -0.2666  0.0769
60068W        W 3006   1.033  15.010   0.336  0.0990  0.2207  0.0386
60069W        W 3007   2.067  17.595   1.999  0.3979 -0.0206 -0.1224
60070W        W 3008   3.289  17.345   1.207 -0.2066 -0.0310 -0.0979
60071W        W 3009   0.522  15.172   2.753 -0.2761  0.1796 -0.1577
60072W        W 3010   2.320  15.617   3.816 -0.2451  0.1104 -0.2283
60073W        W 3011   4.126  15.946   2.355  0.0409  0.1730 -0.0168
60074W        W 3012   2.949  15.239  31.727 -0.2291  0.2576  0.0373
60075W        W 3013   2.005  14.449   0.321 -0.0006 -0.0574  0.0763
60076W        W 3014   2.589  16.865   3.499 -0.0230  0.2879  0.0363
60077W        W 3015   1.018  17.730   0.477  0.2552  0.1490  0.3690
60078W        W 3016  34.135  16.183   3.538  0.0858 -0.4522  0.1411
60079W        W 3017   2.356  19.005   0.978 -0.2854  0.0198  0.2180
60080W        W 3018   3.436  14.008   2.108 -0.0889  0.1756  0.4569
60081W        W 3019   0.169  17.091   4.526 -0.1830 -0.0065  0.2372
60082W        W 3020   1.903  15.649   3.527  0.0636  0.0258 -0.2644
60083W        W 3021   1.625  14.825   2.102  0.1808  0.0150  0.3022
60084W        W 3022   1.087  16.744   3.472 -0.1924 -0.0737  0.1798
60085W        W 3023   3.406  14.719   2.332  0.0380  0.3993  0.0170
60086W        W 3024   1.443  14.066   0.780  0.1038 -0.1365 -0.1000
60087W        W 3025   1.665  16.901   3.425 -0.1887 -0.1453  0.0193
60088W        W 3026   1.948  17.007   0.738 -0.2812  0.2953  0.0561
60089W        W 3027   2.256  15.504  31.542 -0.2874 -0.0475 -0.2269
60090W        W 3028   3.776  14.888   0.721 -0.0242  0.1002 -0.1310
60091W        W 3029  34.602  18.065   3.526 -0.0953 -0.1963  0.0661
60092W        W 3030   2.169  17.157   1.247  0.0068  0.0357  0.1107
60093W        W 3031   2.420  16.306   2.321 -0.1601 -0.2339 -0.0360
60094W        W 3032   1.193  15.427  31.536 -0.2887  0.1299 -0.1587
60095W        W 3033   5.585  17.913   2.161 -0.3349  0.1890 -0.3595
60096W        W 3034   0.634  17.729   3.797  0.0633 -0.3705  0.3808
60097W        W 3035   1.673  17.575   3.001 -0.0729 -0.3329 -0.2712
60098W        W 3036   2.971  17.066   2.005  0.0981 -0.0257  0.0192
60099W        W 3037   0.845  15.832   3.515  0.0286  0.0807 -0.2379
60100W        W 3038   1.738  15.110  31.182 -0.0420 -0.1508 -0.0084
60101W        W 3039   2.882  14.145   1.240 -0.1672  0.0803 -0.3019
60102W        W 3040  34.401  17.612   0.987 -0.1542  0.2003 -0.0221
60103W        W 3041   1.263  15.061   2.435 -0.0521  0.3008 -0.0838
60104W        W 3042   2.518  14.637   2.257 -0.0801  0.0412  0.1671
60105W        W 3043   1.461  16.002   4.413  0.1790  0.0450 -0.2075
60106W        W 3044   2.543  16.599   4.269  0.0276 -0.0813 -0.0338
60107W        W 3045   3.281  15.430   1.108  0.0101  0.1410 -0.0436
60108W        W 3046   2.390  17.302   1.792  0.1278  0.0101 -0.0653
60109W        W 3047  34.091  16.286   1.196 -0.2103  0.2659  0.1567
60110W        W 3048   1.954  15.573   2.846 -0.0696 -0.0655  0.0564
60111W        W 3049   0.852  16.133   2.495  0.0469 -0.1430  0.0913
60112W        W 3050   1.223  18.302   3.547  0.2340  0.1457  0.3276
60113W        W 3051   2.668  16.047   2.961  0.2904  0.1391 -0.2443
60114W        W 3052   2.705  16.195   0.293  0.0067  0.0125 -0.4152
60115W        W 3053   3.043  15.060   1.446  0.2138 -0.0819 -0.1310
60116W        W 3054   2.039  13.509   1.030 -0.1101  0.2617 -0.0215
60117W        W 3055   1.869  16.002   0.421 -0.0744  0.0286 -0.2435
60118W        W 3056   0.635  17.610   0.782  0.2319  0.0871  0.1713
60119W        W 3057   1.627  13.050   2.400  0.0065  0.0403  0.0296
60120W        W 3058   1.307  16.611   2.434 -0.4082 -0.0040  0.0499
60121W        W 3059   1.208  17.429   0.082 -0.0526 -0.1083  0.4294
60122W        W 3060   2.896  16.167   2.340 -0.1344 -0.0206  0.2156
60123W        W 3061   1.868  17.292   1.598 -0.2467  0.2764 -0.0338
60124W        W 3062   3.338  15.066   1.905  0.2650  0.0422 -0.2998
60125W        W 3063   2.146  16.709   2.618  0.2128 -0.0986  0.2207
60126W        W 3064   1.331  15.698   0.961 -0.3965 -0.2400  0.2529
60127W        W 3065   0.717  17.908   1.557 -0.4136  0.1584 -0.0582
60128W        W 3066   1.775  14.013   2.619 -0.1421  0.0411 -0.0762
60129W        W 3067   2.401  17.244   0.786  0.1834 -0.0744  0.5859
60130W        W 3068  34.240  15.631   2.514 -0.1154  0.0129 -0.1527
60131W        W 3069   2.583  13.693   1.530 -0.0477 -0.1005 -0.2329
60132W        W 3070  34.060  17.737   2.687  0.0658  0.2952 -0.4039
60133W        W 3071   1.250  17.157   3.239 -0.3255 -0.4427 -0.0463
60134W        W 3072   4.931  15.539  31.722  0.0789 -0.0131 -0.1274
60135W        W 3073   3.364  19.404   1.664  0.2969 -0.2671 -0.3347
60136W        W 3074   0.865  16.350   3.417  0.1779  0.3081 -0.1701
60137W        W 3075   0.242  14.115   0.825  0.1562 -0.2793 -0.3086
60138W        W 3076   3.802  16.125   2.648 -0.3100 -0.3733  0.2072
60139W        W 3077  34.687  14.696   2.009 -0.2193 -0.0792 -0.2644
60140W        W 3078   1.601  16.033   1.777  0.1805  0.0338 -0.0492
60141W        W 3079   2.190  18.661   1.889 -0.3085 -0.0475  0.1194
60142W        W 3080   1.551  16.452   1.984  0.1120  0.1792  0.0892
60143W        W 3081   1.449  18.159   1.279 -0.2983 -0.0809 -0.0037
60144W        W 3082   0.140  15.670   4.930 -0.1343 -0.0692 -0.0530
60145W        W 3083   3.589  16.541   2.379 -0.2035  0.2802 -0.3518
60146W        W 3084   1.111  15.134   1.248  0.1245  0.1466  0.2249
60147W        W 3085   0.572  16.127   2.015 -0.3480  0.2569 -0.1192
60148W        W 3086   2.542  15.485   1.727 -0.0554  0.0436  0.1930
60149W        W 3087   2.515  16.781   1.878  0.1107 -0.0772  0.0264
60150W        W 3088   0.068  16.760   3.561  0.0118  0.3614 -0.1807
60151W        W 3089   2.067  17.724   3.305  0.1447 -0.1355  0.1503
60152W        W 3090   1.120  12.275   2.119  0.3202  0.0686 -0.0010
60153W        W 3091   4.599  17.405   1.036 -0.2578  0.0276  0.0761
60154W        W 3092   1.291  15.641   4.704 -0.0492  0.0127 -0.2114
60155W        W 3093   2.042  16.579   2.058 -0.1176  0.4033  0.0570
60156W        W 3094   0.527  15.387   3.599  0.0092 -0.0181 -0.1678
60157W        W 3095   1.127  16.537   1.106  0.0014  0.0200  0.3297
60158W        W 3096   0.461  16.260   1.466  0.1846  0.3269  0.1614
60159W        W 3097   1.907  17.980   2.751  0.0999 -0.0492  0.0822
60160W        W 3098   1.560  16.950   1.741 -0.2316  0.0317 -0.2375
60161W        W 3099  34.089  17.596   3.754  0.2018 -0.2826  0.0853
60162W        W 3100   4.532  14.366   0.096 -0.0495 -0.0299 -0.2235
60163W        W 3101   2.040  15.623  31.151  0.1334  0.2562 -0.1701
60164W        W 3102   1.024  15.609   1.317 -0.4244  0.0152 -0.0684
60165W        W 3103   3.881  14.117   2.463  0.1054 -0.1542 -0.1016
60166W        W 3104   3.934  15.205  31.730  0.2115  0.2360  0.2560
60167W        W 3105   4.177  14.721   3.457  0.0522 -0.0251 -0.1810
60168W        W 3106   1.154  15.730   2.558 -0.0661 -0.0943  0.1600
60169W        W 3107   1.730  18.280   1.723 -0.1313  0.0887  0.0973
60170W        W 3108  33.997  15.132   3.533 -0.1502  0.2246  0.0275
60171W        W 3109   2.773  18.956   3.571  0.2682  0.0661  0.1356
60172W        W 3110   0.067  15.936   4.569 -0.2307 -0.0484  0.1426
60173W        W 3111   1.494  15.441   0.540  0.1850 -0.0436 -0.1964
60174W        W 3112   0.405  14.562   1.072  0.3499 -0.1817 -0.2000
60175W        W 3113   2.286  15.816   3.259  0.1034 -0.0513  0.2350
60176W        W 3114   1.768  16.583   2.958  0.0860 -0.0782 -0.1474
60177W        W 3115   2.117  15.793   1.646  0.2959 -0.2089 -0.2952
60178W        W 3116   3.204  16.716   0.939  0.1930 -0.3960  0.3330
60179W        W 3117   0.695  15.591   3.124  0.0739 -0.0554 -0.0023
60180W        W 3118   2.678  15.760   2.116 -0.1164 -0.0427 -0.0349
60181W        W 3119   1.361  16.241  31.752  0.0999  0.2739 -0.0516
60182W        W 3120   2.149  17.066   2.203 -0.3000  0.5685  0.2691
60183W        W 3121   0.640  15.638   2.631 -0.4761  0.1086 -0.0559
60184W        W 3122   3.411  17.218   1.681  0.1319  0.4156 -0.3316
60185W        W 3123   2.492  14.968   1.518 -0.2311 -0.0986  0.0703
60186W        W 3124   2.684  14.932   3.185 -0.0758  0.4022 -0.0544
60187W        W 3125   2.763  16.101   3.431 -0.0675 -0.2126  0.1161
60188W        W 3126   2.091  16.115   3.646  0.1386  0.0571  0.4603
60189W        W 3127  33.650  14.810   2.930 -0.3210 -0.1756 -0.0866
60190W        W 3128   3.423  18.121   2.688 -0.1512 -0.0767 -0.0842
60191W        W 3129   4.791  15.752   0.329  0.2174  0.0190 -0.0177
60192W        W 3130   4.131  15.024   2.661 -0.0702 -0.4246 -0.2559
60193W        W 3131   2.890  15.896   1.693 -0.0140 -0.1176 -0.1487
60194W        W 3132   2.697  15.767  31.697 -0.0730 -0.0353 -0.2595
60195W        W 3133  34.510  15.889   2.088 -0.1235 -0.1441  0.0656
60196W        W 3134   3.918  16.549   3.937  0.2224 -0.0377 -0.2626
60197W        W 3135   1.500  15.037  31.729  0.0550 -0.1644  0.0789
60198W        W 3136   1.857  15.179   4.007  0.1798 -0.1055  0.1030
60199W        W 3137   3.046  19.085   0.922  0.4188  0.1814 -0.0885
60200W        W 3138   2.522  18.344   1.623 -0.0451 -0.0380 -0.0377
60201W        W 3139   2.395  14.979   0.939 -0.2184 -0.2355  0.1989
60202W        W 3140  34.454  15.311   2.166 -0.1056  0.0616 -0.1673
60203W        W 3141   0.381  17.337   4.167  0.1064  0.1190  0.0209
60204W        W 3142  34.308  15.393  31.487 -0.1058  0.0203  0.1658
60205W        W 3143   0.653  15.753   1.641 -0.1907  0.0935 -0.1183
60206W        W 3144   1.352  15.574   3.224 -0.0993 -0.0053  0.2416
60207W        W 3145   3.616  17.273   0.754 -0.0276  0.3255 -0.1254
60208W        W 3146   2.807  14.727   1.047  0.0472  0.2402 -0.3049
60209W        W 3147   2.364  15.766   2.597 -0.1700 -0.0564  0.1560
60210W        W 3148  34.642  17.696  31.671 -0.0373  0.0785 -0.0111
60211W        W 3149   2.545  14.015   1.923  0.0785  0.0513  0.2226
60212W        W 3150   1.750  19.141   3.280 -0.0275  0.1054  0.4589
60213W        W 3151  33.992  16.954   2.923 -0.0752 -0.0741 -0.2068
60214W        W 3152   1.517  17.487   1.324 -0.1036  0.3789  0.2910
60215W        W 3153   0.996  15.289   2.809  0.2298 -0.1554  0.1173
60216W        W 3154   2.998  15.416   1.861  0.1030 -0.0600  0.0686
60217W        W 3155   2.436  16.087   1.864  0.1319  0.0259 -0.4430
60218W        W 3156   3.369  16.121   2.368 -0.0232  0.0652 -0.0307
60219W        W 3157   1.233  17.737   2.089 -0.2036  0.0828 -0.0031
60220W        W 3158  34.603  17.954   2.504  0.2278  0.2048 -0.1470
60221W        W 3159   2.497  17.294   3.847  0.1309 -0.0278  0.0238
60222W        W 3160   4.128  16.533   2.344  0.1329  0.2904 -0.1392
60223W        W 3161   1.984  18.197   3.629 -0.3777 -0.2790 -0.0440
60224W        W 3162  32.976  15.614   4.285  0.0387 -0.0560  0.1865
60225W        W 3163   1.688  16.142   3.957 -0.0313 -0.1720  0.3334
60226W        W 3164   2.863  16.376   1.835  0.2598 -0.1439 -0.0325
60227W        W 3165   2.043  14.787   1.673 -0.1051  0.0090 -0.2125
60228W        W 3166   2.111  17.459   0.495 -0.0349  0.1675 -0.0075
60229W        W 3167   0.735  17.917   2.942  0.0721 -0.0548 -0.0983
60230W        W 3168   0.382  16.342   2.531 -0.0393  0.1177 -0.2732
60231W        W 3169   1.626  19.145   2.787 -0.0980 -0.2801 -0.0062
60232W        W 3170   3.686  17.628   0.336  0.1242 -0.1984 -0.1035
60233W        W 3171   2.803  15.794   0.692 -0.0676  0.1246  0.0382
60234W        W 3172   3.596  19.073   1.152  0.1903  0.3287  0.0610
60235W        W 3173   1.977  14.189   0.777 -0.1342  0.2479 -0.2748
60236W        W 3174   0.734  17.539   1.945 -0.1999 -0.0149  0.1341
60237W        W 3175   0.377  17.092   0.010 -0.0938 -0.1360 -0.0708
60238W        W 3176   2.767  18.664   0.877  0.1516 -0.0484 -0.1787
60239W        W 3177   1.282  18.601   1.787  0.2684  0.0613 -0.0025
60240W        W 3178   2.265  16.335   3.208  0.4930  0.2988  0.0675
60241W        W 3179   1.746  15.483  31.668 -0.0678 -0.0991 -0.2982
60242W        W 3180   2.566  16.998   2.415 -0.3032 -0.0507 -0.1505
60243W        W 3181   4.480  15.105   0.264 -0.1619 -0.2619  0.1142
60244W        W 3182   2.819  18.060   3.769 -0.2416 -0.0429  0.1550
60245W        W 3183   0.938  13.871   1.337 -0.4687 -0.5243 -0.1920
60246W        W 3184   1.180  14.143   0.356 -0.0474  0.0017  0.1532
60247W        W 3185  34.593  17.176   3.956  0.0942 -0.1636  0.1750
60248W        W 3186   3.492  14.654   3.419 -0.0153 -0.0746  0.2661
60249W        W 3187  34.672  18.395   3.058 -0.0554 -0.1372  0.2293
60250W        W 3188   2.639  19.261   0.529 -0.2143 -0.0483 -0.3923
60251W        W 3189  34.406  15.028   0.789  0.0131  0.0130  0.4055
60252W        W 3190   2.116  15.258   1.428  0.2645  0.2175  0.0539
60253W        W 3191   3.872  14.975   2.271 -0.2468 -0.0700  0.0841
60254W        W 3192   1.062  16.909   1.851  0.2778  0.1199  0.2986
60255W        W 3193   1.314  16.047   2.242  0.2100 -0.2346  0.1425
60256W        W 3194   0.915  18.796   2.292 -0.0406 -0.2063 -0.1970
60257W        W 3195   0.654  17.250   2.597  0.1759 -0.1914 -0.1207
60258W        W 3196   1.171  18.038   1.719 -0.1257  0.0004  0.5146
60259W        W 3197   0.205  15.104   0.745 -0.2774  0.2967  0.0581
60260W        W 3198   2.983  15.862   1.112 -0.3172  0.0230 -0.1741
60261W        W 3199   0.108  16.677   4.075 -0.0224 -0.2213  0.3215
60262W        W 3200   3.281  15.346   3.675 -0.0956 -0.2118  0.0089
60263W        W 3201   0.822  16.961   3.041 -0.0146  0.1310  0.2630
60264W        W 3202   2.841  13.934   0.575  0.1211  0.2014  0.2104
60265W        W 3203   1.280  16.741   2.982  0.1748 -0.1213  0.0279
60266W        W 3204   0.207  14.630   1.571  0.3322  0.0582  0.1755
60267W        W 3205   0.681  15.832   1.057 -0.1106  0.0376  0.0246
60268W        W 3206   4.284  16.003   1.846 -0.0874  0.0785 -0.0815
60269W        W 3207   1.938  15.454   0.283 -0.0483  0.2551 -0.1558
60270W        W 3208   2.704  18.874   1.912 -0.0617  0.0570  0.1373
60271W        W 3209  34.099  14.382   1.428  0.0526  0.0424  0.0714
60272W        W 3210   1.731  15.933  31.446  0.2035  0.1843 -0.0472
60273W        W 3211   1.362  15.469   2.128  0.3551 -0.2817  0.0212
60274W        W 3212   0.404  17.082   5.048 -0.0763 -0.3493  0.1520
60275W        W 3213   3.175  19.153   2.809 -0.0388 -0.2546  0.3591
60276W        W 3214   0.269  14.519   0.331 -0.0385 -0.0386  0.0745
60277W        W 3215   3.876  17.063  31.239 -0.2450 -0.0355  0.0475
60278W        W 3216   3.492  14.608   1.694 -0.2136  0.1142  0.2539
60279W        W 3217   2.284  17.908   0.671 -0.2118 -0.0709 -0.4470
60280W        W 3218   3.786  15.901   1.841 -0.0183 -0.0634 -0.2206
60281W        W 3219   2.761  18.138   2.075 -0.1402  0.0381  0.1556
60282W        W 3220  33.737  15.537   2.674 -0.0282 -0.3457  0.2491
60283W        W 3221   3.678  16.554   2.939  0.0618 -0.0588 -0.1211
60284W        W 3222   3.234  16.456   2.767  0.2060 -0.0865 -0.2676
60285W        W 3223   2.083  13.656   1.482 -0.1445 -0.2420  0.0367
60286W        W 3224   1.800  15.384   1.832  0.1281 -0.3500 -0.1131
60287W        W 3225  34.519  18.274   1.654  0.1169 -0.3605 -0.1261
60288W        W 3226   3.755  15.377   1.439  0.4581 -0.0348 -0.2194
60289W        W 3227   2.391  14.426   1.700 -0.0348 -0.1643 -0.0061
60290W        W 3228   3.285  17.620   0.707 -0.0275  0.1542 -0.2020
60291W        W 3229   2.973  14.720   2.745 -0.3590 -0.0959  0.2232
60292W        W 3230   2.380  17.847   2.799 -0.0899 -0.0028 -0.2715
60293W        W 3231   1.200  18.167   3.044  0.0002  0.1595 -0.0385
60294W        W 3232   1.208  17.063   1.304 -0.1427  0.1947  0.1696
60295W        W 3233   2.556  18.839   1.370  0.0927 -0.1096 -0.1209
60296W        W 3234   1.782  17.951   2.209  0.4004 -0.1040 -0.0315
60297W        W 3235   2.420  19.753   1.165 -0.0206 -0.1604 -0.0920
60298W        W 3236   2.773  17.833   1.281 -0.2870 -0.1011 -0.1430
60299W        W 3237   1.756  15.586   1.371 -0.2807 -0.2060 -0.0053
60300W        W 3238   4.076  18.343   0.741 -0.1461 -0.0968  0.2886
60301W        W 3239   2.305  15.573   1.085 -0.0579 -0.2649 -0.1566
60302W        W 3240   5.178  14.178   0.880 -0.2101 -0.0960 -0.2447
60303W        W 3241   3.952  14.789   0.204  0.0690 -0.2961 -0.0889
60304W        W 3242   1.784  15.961   3.137  0.0235 -0.3358  0.0423
60305W        W 3243  33.950  18.163   1.984  0.1646 -0.1990  0.0785
60306W        W 3244   0.497  18.010   1.116  0.0972  0.3660  0.0313
60307W        W 3245  33.644  16.013   3.215 -0.0752 -0.0366  0.3340
60308W        W 3246   1.008  15.376   3.493 -0.3555 -0.0099 -0.0660
60309W        W 3247   0.344  16.619   3.032  0.0701 -0.0822  0.0001
60310W        W 3248  34.332  14.654   2.401  0.0568  0.1044  0.3010
60311W        W 3249   0.445  15.156   0.317  0.0166 -0.0974  0.1699
60312W        W 3250   3.076  17.325  31.558 -0.1278  0.0112 -0.4808
60313W        W 3251   1.865  15.027   2.805  0.1123  0.0265 -0.0065
60314W        W 3252  33.896  14.672   2.573 -0.0949  0.2236  0.1597
60315W        W 3253   3.356  16.162   1.825  0.1469  0.0898  0.1243
60316W        W 3254   4.314  16.963   1.092  0.3529 -0.0133 -0.1181
60317W        W 3255   2.013  14.010   1.946  0.0281 -0.1090 -0.0541
60318W        W 3256   2.473  17.752   2.228  0.1211  0.0994  0.2071
60319W        W 3257   0.285  17.121   0.991 -0.2667 -0.0214  0.3869
60320W        W 3258   2.236  15.405   4.278  0.3633  0.1587  0.1251
60321W        W 3259   0.710  14.778   4.205  0.1893  0.1182  0.0836
60322W        W 3260  33.530  16.129   1.056  0.0953 -0.1503  0.0227
60323W        W 3261   1.469  16.182   2.750 -0.4278  0.0042  0.0422
60324W        W 3262   2.532  17.792   1.725 -0.2247  0.3031 -0.0211
60325W        W 3263   3.055  18.870   0.444  0.0153  0.1325 -0.4452
60326W        W 3264   2.198  18.155   2.006 -0.0866 -0.1569 -0.0533
60327W        W 3265   2.036  18.405   3.075 -0.1682 -0.0324 -0.0971
60328W        W 3266   0.441  15.886   3.848  0.1662 -0.1876  0.0470
60329W        W 3267   1.616  16.603   0.765 -0.2199 -0.0626 -0.0070
60330W        W 3268   1.917  16.696   4.936 -0.0258 -0.0071  0.1637
60331W        W 3269   2.803  17.544   0.827 -0.3144 -0.2545  0.1240
60332W        W 3270   2.999  13.968   2.342 -0.0501  0.0844  0.5614
60333W        W 3271   2.861  15.130   0.676 -0.1640 -0.0567 -0.1827
60334W        W 3272   0.227  14.918   3.624 -0.0811  0.1652  0.4472
60335W        W 3273   1.445  16.399   3.348  0.0450  0.6061 -0.0555
60336W        W 3274   2.480  18.529   2.831  0.0022  0.3299  0.0465
60337W        W 3275   0.443  13.664   1.860  0.1420  0.0952 -0.0001
60338W        W 3276   2.833  14.820   1.887 -0.1617 -0.3800 -0.2194
60339W        W 3277   3.629  17.074  31.658  0.1083 -0.0978 -0.0241
60340W        W 3278   0.237  17.149   3.272  0.2408 -0.5709  0.1460
60341W        W 3279   0.423  15.471   2.108  0.2564  0.2059 -0.1422
60342W        W 3280   2.040  16.602   3.588 -0.2230  0.2067 -0.1505
60343W        W 3281   1.373  15.620   1.669  0.3147 -0.2948 -0.3252
60344W        W 3282   3.316  16.631   1.938 -0.0580  0.0091  0.0546
60345W        W 3283   1.593  15.228   1.083 -0.1595 -0.0072 -0.1600
60346W        W 3284   2.819  14.835   0.120 -0.0351  0.0604 -0.2908
60347W        W 3285   1.263  19.119   3.455  0.0635 -0.0264 -0.3440
60348W        W 3286   3.079  18.012   1.639 -0.0144  0.0762 -0.2907
60349W        W 3287   0.281  18.579   2.308 -0.0134  0.0191  0.0587
60350W        W 3288   3.068  16.300   1.369  0.2867 -0.0385 -0.1413
60351W        W 3289  34.483  14.351   3.313  0.1488  0.1865 -0.0077
60352W        W 3290   0.826  16.590   1.540  0.3142  0.1734  0.2936
60353W        W 3291   1.997  16.027   2.120  0.3793  0.0267  0.1730
60354W        W 3292   3.067  14.433   2.083  0.0974  0.3020 -0.5497
60355W        W 3293   1.637  13.566   1.546 -0.0494 -0.0860  0.1977
60356W        W 3294   2.498  14.307   0.892 -0.0262 -0.1198 -0.1153
60357W        W 3295   2.320  18.581   3.475 -0.1569 -0.1017 -0.0810
60358W        W 3296   0.726  17.537   3.321 -0.1127 -0.1619  0.0187
60359W        W 3297   1.604  17.425   6.997 -0.3246  0.1497  0.2083
60360W        W 3298   0.051  16.070   6.112  0.2390 -0.0736  0.1100
60361W        W 3299   3.606  15.683   2.849  0.0178  0.1125  0.3477
60362W        W 3300   3.229  15.657   4.097  0.2055  0.2093 -0.0123
60363W        W 3301   0.058  15.403   5.361 -0.0500  0.1792 -0.4179
60364W        W 3302   3.209  17.683   5.442  0.1010 -0.1600  0.0636
60365W        W 3303   0.564  13.863   5.348 -0.2001  0.1856  0.0974
60366W        W 3304   2.788  16.085   4.497  0.0509  0.2153 -0.0551
60367W        W 3305   2.916  17.622   5.002 -0.0355  0.1353 -0.0155
60368W        W 3306   2.109  16.381   4.121 -0.1526  0.1236 -0.0631
60369W        W 3307   1.341  15.699   5.424 -0.1045 -0.0107  0.3413
60370W        W 3308   3.257  18.497   5.743  0.0071  0.0337 -0.2916
60371W        W 3309   1.176  14.615   3.969 -0.2449 -0.1487  0.2027
60372W        W 3310  34.429  13.419   4.139  0.0435 -0.1912 -0.0770
60373W        W 3311   2.413  14.764   5.377  0.0573 -0.1283 -0.3621
60374W        W 3312  32.791  17.339   4.972 -0.2285  0.0707 -0.2650
60375W        W 3313  34.341  13.699   5.791 -0.2087  0.0776  0.0518
60376W        W 3314   1.046  16.218   4.764 -0.3076 -0.0600  0.1300
60377W        W 3315   0.909  17.680   6.325  0.2076  0.0035 -0.2825
60378W        W 3316   1.592  14.125   7.005 -0.0221  0.5068 -0.0570
60379W        W 3317   1.744  13.315   6.845  0.1539 -0.0318  0.3803
60380W        W 3318   1.489  17.730   5.441  0.1688  0.1101  0.1630
60381W        W 3319   0.391  16.307   3.587 -0.2881 -0.1757 -0.2647
60382W        W 3320  33.082  15.290   6.222 -0.1283  0.0305  0.2792
60383W        W 3321   1.120  16.303   5.799 -0.2125 -0.1174  0.0448
60384W        W 3322   1.706  14.346   5.055 -0.3728  0.3592  0.0512
60385W        W 3323   2.220  15.259   4.832  0.0893 -0.4460 -0.0544
60386W        W 3324   1.996  17.996   5.797 -0.2699  0.2362 -0.1404
60387W        W 3325   2.305  17.611   5.818  0.2098 -0.1092  0.1281
60388W        W 3326   3.332  13.761   5.524  0.2095 -0.1204  0.1200
60389W        W 3327   0.563  16.200   5.053  0.0491  0.0005 -0.4164
60390W        W 3328  34.285  18.918   5.773 -0.0734  0.1517 -0.2413
60391W        W 3329   2.086  18.516   5.567  0.2955  0.0287  0.0825
60392W        W 3330   3.840  17.383   3.894  0.1575  0.0630  0.2029
60393W        W 3331   3.789  17.603   5.806 -0.2063  0.2109  0.1452
60394W        W 3332   3.064  18.534   7.948 -0.1872 -0.0892 -0.1235
60395W        W 3333  34.488  18.046   5.423  0.2925  0.3440  0.1286
60396W        W 3334   2.404  17.801   6.311  0.3079  0.1224 -0.0760
60397W        W 3335   1.382  18.539   7.383  0.1491 -0.0967 -0.0168
60398W        W 3336   0.892  15.485   6.202  0.1337  0.1808  0.2885
60399W        W 3337   1.172  15.233   5.025  0.0381 -0.0604  0.0419
60400W        W 3338   2.084  17.307   4.871 -0.0034  0.1530 -0.1822
60401W        W 3339   0.942  17.805   5.258  0.0100 -0.1571  0.0379
60402W        W 3340   1.096  16.631   6.217  0.0727  0.0495 -0.1753
60403W        W 3341   0.288  18.129   5.217 -0.1840  0.0464 -0.2822
60404W        W 3342   2.885  14.766   6.392 -0.0458 -0.0625 -0.0680
60405W        W 3343   0.270  17.985   3.157 -0.2548  0.1000  0.0872
60406W        W 3344   1.715  16.696   4.027 -0.1952 -0.1170 -0.0256
60407W        W 3345   2.258  15.943   4.430 -0.3581 -0.0490  0.0109
60408W        W 3346   3.312  15.913   3.551 -0.0204  0.1460  0.0137
60409W        W 3347   0.386  13.129   4.553  0.1954 -0.0477 -0.0310
60410W        W 3348   2.438  17.520   5.210 -0.2389  0.1311 -0.2178
60411W        W 3349   1.091  14.430   6.241  0.0558  0.0085 -0.3700
60412W        W 3350   3.051  16.935   6.441  0.2654 -0.0601  0.1637
60413W        W 3351   1.828  15.501   4.592 -0.3149  0.1955 -0.0191
60414W        W 3352   1.289  13.837   5.956  0.0538 -0.2861 -0.0164
60415W        W 3353   1.806  17.062   6.109  0.2749 -0.0509  0.0345
60416W        W 3354   0.067  15.603   6.371 -0.0360 -0.0594  0.0317
60417W        W 3355   2.556  17.460   4.678 -0.3552 -0.1934 -0.0031
60418W        W 3356   5.528  18.128   3.782 -0.2915  0.0486 -0.1269
60419W        W 3357   2.932  16.508   3.185  0.3643 -0.4134  0.2134
60420W        W 3358   1.293  17.328   5.253  0.0137 -0.0079  0.0784
60421W        W 3359   0.166  15.693   8.593 -0.0903 -0.1956 -0.2484
60422W        W 3360   0.766  15.791   7.446 -0.1865  0.0843  0.1174
60423W        W 3361   0.461  15.480   4.453 -0.4034 -0.1001 -0.0515
60424W        W 3362   2.978  16.739   5.789  0.0141 -0.2787 -0.0076
60425W        W 3363   0.938  16.911   6.614  0.0692  0.0781 -0.1916
60426W        W 3364   3.259  15.177   5.018 -0.0927 -0.1972 -0.3862
60427W        W 3365   1.718  18.205   5.406 -0.0908  0.0391 -0.2201
60428W        W 3366   1.512  16.991   4.850  0.0831 -0.0392 -0.0309
60429W        W 3367   2.596  16.515   2.818  0.1538 -0.0664  0.0608
60430W        W 3368   1.539  13.786   4.419  0.3129  0.2021 -0.2528
60431W        W 3369   0.415  16.653   5.347 -0.1358 -0.1627  0.1806
60432W        W 3370   0.599  16.753   3.503  0.0249  0.1674 -0.1041
60433W        W 3371   4.204  17.544   5.449  0.0192 -0.1006  0.2059
60434W        W 3372   2.324  15.037   2.005  0.0898  0.0104 -0.2993
60435W        W 3373   0.107  17.566   5.686  0.3136 -0.1100  0.0888
60436W        W 3374   1.674  15.348   7.692 -0.0548 -0.0363 -0.4454
60437W        W 3375   2.100  16.659   5.970 -0.0923  0.2630  0.3140
60438W        W 3376   0.821  18.033   3.459  0.1318  0.1606  0.2262
60439W        W 3377   0.469  17.228   5.630  0.0138 -0.0597  0.1123
60440W        W 3378  33.375  17.019   6.329  0.3906 -0.3358 -0.0517
60441W        W 3379  34.303  14.451   6.292  0.1189 -0.0018  0.2428
60442W        W 3380   0.935  15.812   4.381  0.1089  0.2154  0.4791
60443W        W 3381   2.265  14.822   4.091  0.3256 -0.1961 -0.5322
60444W        W 3382   0.106  14.553   7.697 -0.0293  0.1835 -0.4270
60445W        W 3383   4.013  14.799   4.770 -0.1609 -0.0027 -0.0135
60446W        W 3384  34.355  17.317   4.724  0.4225  0.3978 -0.0333
60447W        W 3385   4.802  17.614   4.134 -0.0209  0.0084 -0.0314
60448W        W 3386   3.737  17.316   2.712  0.1913  0.0321 -0.0255
60449W        W 3387   2.424  17.713   3.604 -0.1667  0.2606 -0.1323
60450W        W 3388   1.031  15.715   6.651 -0.1250  0.2786 -0.0477
60451W        W 3389  34.357  15.976   4.822  0.0254 -0.0941 -0.0349
60452W        W 3390   1.099  14.674   6.636  0.0853 -0.2340 -0.5466
60453W        W 3391  34.624  14.898   5.221  0.3080  0.3686 -0.5375
60454W        W 3392   2.462  15.505   6.307  0.3186  0.1079 -0.1484
60455W        W 3393  34.054  15.574   4.977  0.0566  0.0900 -0.0180
60456W        W 3394   2.609  14.775   4.427 -0.3567  0.3370 -0.5587
60457W        W 3395   1.013  16.620   4.402 -0.1783 -0.2325  0.0507
60458W        W 3396  33.595  15.738   4.170  0.3192 -0.0967 -0.0170
60459W        W 3397   2.606  15.644   6.797  0.3025 -0.0843 -0.2859
60460W        W 3398   4.146  18.209   3.863  0.2227 -0.1580 -0.0539
60461W        W 3399   3.562  17.012   5.774  0.1193 -0.0091  0.1918
60462W        W 3400   3.705  18.708   4.556 -0.0943  0.1243 -0.2390
60463W        W 3401   0.374  14.298   5.600 -0.4018  0.2446  0.1646
60464W        W 3402   0.302  14.765   4.949  0.1502 -0.0836  0.2531
60465W        W 3403  33.819  16.383   5.742  0.1497  0.3375 -0.0579
60466W        W 3404   0.781  17.842   5.810 -0.0079  0.0632 -0.3030
60467W        W 3405   0.672  14.369   4.757  0.1239 -0.1975  0.0891
60468W        W 3406   4.081  18.362   5.402  0.1752  0.2374 -0.2440
60469W        W 3407   1.646  17.545   4.986 -0.1635  0.0348  0.0891
60470W        W 3408   1.421  16.552   7.152 -0.1450 -0.0992 -0.0686
60471W        W 3409   1.752  13.834   7.636  0.5539 -0.0052 -0.3583
60472W        W 3410   2.526  16.265   6.701  0.1629 -0.0615 -0.1203
60473W        W 3411   2.002  17.639   3.808  0.1726  0.2047  0.2096
60474W        W 3412   0.302  14.478   4.446  0.0872 -0.3011 -0.1085
60475W        W 3413   4.207  17.236   3.031  0.0641 -0.0671 -0.1784
60476W        W 3414   0.288  17.402   3.671  0.1139 -0.3678  0.3022
60477W        W 3415  33.238  14.827   4.859  0.0595 -0.1140 -0.0873
60478W        W 3416   0.835  19.298   4.888  0.2989 -0.1790  0.0649
60479W        W 3417   4.036  14.461   5.245  0.0011  0.1248 -0.0208
60480W        W 3418   0.726  16.645   7.063 -0.1556  0.3290 -0.2969
60481W        W 3419   2.367  15.617   5.794  0.0321  0.0760  0.1992
60482W        W 3420   0.574  16.225   5.552 -0.2129 -0.0290 -0.1573
60483W        W 3421   1.990  15.910   5.429 -0.1737 -0.1728 -0.1175
60484W        W 3422   1.925  14.515   3.752 -0.4084 -0.0009 -0.1357
60485W        W 3423   3.747  15.588   3.508 -0.1240  0.0113 -0.1008
60486W        W 3424   3.426  16.576   6.011 -0.0211 -0.1558  0.3476
60487W        W 3425   2.968  16.522   3.720 -0.2431  0.0808  0.0726
60488W        W 3426   3.504  17.005   4.059 -0.0129  0.1030  0.0768
60489W        W 3427   2.772  15.435   3.283  0.1414 -0.1568 -0.0111
60490W        W 3428   1.960  16.206   7.228  0.0936  0.1962  0.2377
60491W        W 3429   1.748  17.911   4.166  0.0591 -0.1507  0.2388
60492W        W 3430   1.791  17.094   5.265 -0.1408  0.3576 -0.0898
60493W        W 3431   2.506  16.072   4.015 -0.0123 -0.2626 -0.0163
60494W        W 3432   4.835  17.071   3.589 -0.4019  0.2274 -0.2309
60495W        W 3433   0.548  15.572   6.687 -0.1828 -0.0837  0.1829
60496W        W 3434   3.088  15.552   4.668 -0.0232  0.0290  0.2066
60497W        W 3435   3.774  17.864   3.692 -0.3827  0.0965 -0.0454
60498W        W 3436   0.747  13.748   6.173  0.2761  0.1567  0.1035
60499W        W 3437   1.470  15.875   3.616 -0.1081 -0.0580  0.2808
60500W        W 3438   1.091  12.899   4.300  0.0972  0.0163 -0.0850
60501W        W 3439   0.034  17.419   5.014  0.2536 -0.3441 -0.2271
60502W        W 3440   4.070  14.917   6.037  0.2938  0.3048  0.0577
60503W        W 3441   3.597  14.248   4.677 -0.1023  0.3165  0.0668
60504W        W 3442   1.763  13.896   6.210  0.4847  0.0347  0.0487
60505W        W 3443   2.608  14.976   6.049 -0.0343 -0.1128 -0.2516
60506W        W 3444   4.033  17.822   4.123 -0.1878  0.2021 -0.1395
60507W        W 3445   2.088  16.283   5.146 -0.1926  0.0660 -0.0646
60508W        W 3446   0.742  16.203   4.109  0.2433  0.0795 -0.1350
60509W        W 3447   2.658  15.169   6.643  0.2293  0.0374 -0.0192
60510W        W 3448   1.161  15.158   6.765 -0.2483 -0.0636 -0.1606
60511W        W 3449   0.941  17.416   5.570 -0.2496  0.2173  0.1898
60512W        W 3450   2.822  17.476   6.236  0.0364 -0.1255  0.2003
60513W        W 3451   0.638  16.609   4.769  0.3360  0.0340  0.0706
60514W        W 3452   1.732  15.136   4.928  0.0098 -0.0847 -0.1709
60515W        W 3453   1.111  15.100   4.083  0.1840 -0.2324 -0.0176
60516W        W 3454   1.401  18.011   5.062  0.0367 -0.0423 -0.0332
60517W        W 3455   1.292  16.450   3.941 -0.2365  0.0113  0.3670
60518W        W 3456   0.033  15.074   5.812  0.1077  0.1387 -0.2142
60519W        W 3457   2.525  16.802   4.733  0.2132 -0.2474  0.0708
60520W        W 3458   1.058  17.785   4.708 -0.0385 -0.0762  0.0025
60521W        W 3459   2.966  16.322   5.481  0.1384  0.2387  0.0571
60522W        W 3460   0.667  18.049   4.916 -0.1960 -0.1382  0.1502
60523W        W 3461   3.704  13.446   5.710  0.2923 -0.0827 -0.1986
60524W        W 3462  32.880  17.258   5.885 -0.0567 -0.1730  0.3421
60525W        W 3463   1.282  16.865   5.369  0.0351  0.2732  0.0433
60526W        W 3464  34.408  16.819   4.447 -0.0119 -0.3376 -0.1215
60527W        W 3465   0.788  14.850   4.868 -0.0998 -0.0303  0.0989
60528W        W 3466   2.492  16.417   3.666 -0.0182  0.1329 -0.1057
60529W        W 3467   0.016  14.234   5.914  0.1540  0.1005  0.0126
60530W        W 3468   1.143  14.405   4.969  0.2872 -0.2061  0.2463
60531W        W 3469   1.926  15.964   5.965  0.0106 -0.0113  0.0434
60532W        W 3470   3.415  14.752   3.919 -0.1296 -0.3413 -0.2904
60533W        W 3471   2.452  14.178   3.454  0.2277 -0.0474 -0.0007
60534W        W 3472   3.031  17.382   6.717 -0.4205 -0.2312 -0.0630
60535W        W 3473   2.543  16.586   7.211 -0.2615 -0.4603 -0.0625
60536W        W 3474   0.638  16.742   4.096  0.1103  0.2087 -0.3258
60537W        W 3475   3.887  15.907   5.481 -0.0353  0.2501  0.0742
60538W        W 3476  34.604  16.548   5.431  0.0225 -0.0190 -0.1448
60539W        W 3477   0.453  17.464   6.026  0.1118  0.0127 -0.1758
60540W        W 3478   2.939  17.971   5.858 -0.1979 -0.2711  0.3073
60541W        W 3479   1.221  18.368   5.360 -0.0680 -0.2403  0.0828
60542W        W 3480   1.065  18.875   5.118  0.0707 -0.0295 -0.3913
60543W        W 3481   1.242  14.689   8.237  0.4507 -0.3297  0.1638
60544W        W 3482   2.197  15.387   6.673  0.0465 -0.0870 -0.2573
60545W        W 3483   0.481  15.215   5.086  0.2085 -0.1415 -0.3531
60546W        W 3484   0.905  13.969   5.018  0.0305  0.0539 -0.3957
60547W        W 3485   0.883  15.434   5.349 -0.1161  0.1981  0.0498
60548W        W 3486   3.253  16.181   4.460  0.0648 -0.3551 -0.1089
60549W        W 3487   2.643  15.219   4.571 -0.0806  0.1173 -0.2759
60550W        W 3488   1.446  17.769   6.618  0.1276 -0.1079 -0.0153
60551W        W 3489   1.977  14.379   6.242  0.0781  0.0166 -0.2049
60552W        W 3490   5.385  18.181   4.865  0.0385 -0.1290  0.0544
60553W        W 3491   3.634  14.897   5.505  0.2137 -0.0773 -0.0019
60554W        W 3492   0.201  16.505   4.525  0.1219  0.1119  0.0166
60555W        W 3493  33.676  16.124   6.230 -0.1072 -0.3014 -0.1371
60556W        W 3494   1.519  17.199   5.701 -0.0424 -0.0024 -0.0102
60557W        W 3495   0.924  14.006   6.549 -0.3806  0.3300  0.0641
60558W        W 3496   1.500  16.009   5.032  0.0242  0.1267  0.2241
60559W        W 3497   1.421  17.484   4.176  0.1330  0.2499  0.1280
60560W        W 3498   0.339  16.898   6.671  0.1450 -0.2486 -0.0673
60561W        W 3499   3.736  15.977   4.111  0.0643 -0.1596  0.0562
60562W        W 3500   1.160  15.972   3.967 -0.2501  0.2090  0.1120
60563W        W 3501   1.902  15.003   4.477 -0.0417  0.2365 -0.4172
60564W        W 3502   2.488  14.527   6.299  0.0591  0.2212 -0.0477
60565W        W 3503   3.311  16.973   4.543 -0.0106 -0.0994 -0.2278
60566W        W 3504   2.687  14.166   8.025 -0.2329 -0.0529  0.0978
60567W        W 3505   0.160  13.754   5.866 -0.1717  0.0383  0.1036
60568W        W 3506   1.798  17.200   3.936  0.0776  0.3471 -0.1170
60569W        W 3507   0.619  15.075   6.729 -0.0966  0.0583 -0.1153
60570W        W 3508   2.640  18.305   6.385  0.1921 -0.0314  0.0401
60571W        W 3509   0.574  14.743   7.763 -0.2437  0.0025 -0.3197
60572W        W 3510   0.612  13.284   3.799 -0.1420 -0.0881  0.0058
60573W        W 3511   1.573  14.284   4.513 -0.2882 -0.3383 -0.0828
60574W        W 3512   1.517  16.658   5.811 -0.0500  0.1803 -0.0983
60575W        W 3513   2.869  17.427   5.673 -0.0497  0.3181  0.4166
60576W        W 3514   2.202  18.052   5.363 -0.0129  0.1299  0.0085
60577W        W 3515   1.760  13.509   4.787  0.4466  0.0718  0.0114
60578W        W 3516   1.410  15.390   6.371  0.0902  0.3333 -0.0950
60579W        W 3517  34.636  14.552   5.582 -0.1667  0.1063  0.3349
60580W        W 3518   2.296  16.848   3.953 -0.1881  0.2214  0.0258
60581W        W 3519  34.041  16.636   5.390 -0.0662  0.1230 -0.2677
60582W        W 3520  34.626  14.895   6.284  0.0635  0.3236  0.2722
60583W        W 3521   1.432  16.505   5.098 -0.0886  0.1369  0.1242
60584W        W 3522   2.620  15.163   5.612 -0.1145  0.2751 -0.1842
60585W        W 3523   1.165  14.315   5.521 -0.0004 -0.0227  0.0297
60586W        W 3524   1.981  15.099   5.465 -0.0667  0.1830  0.2294
60587W        W 3525   1.209  14.619   7.503 -0.1440 -0.1899 -0.1488
60588W        W 3526   1.058  14.199   6.981 -0.1182 -0.1550  0.0201
60589W        W 3527   4.285  17.552   5.907 -0.0129 -0.0389 -0.0667
60590W        W 3528   3.157  15.264   2.738 -0.2508 -0.1472 -0.0064
60591W        W 3529   3.076  13.400   5.291 -0.0089  0.1081 -0.1068
60592W        W 3530   2.975  16.562   4.752  0.2881  0.0917 -0.0010
60593W        W 3531   3.447  16.495   3.893 -0.1175  0.1971  0.1964
60594W        W 3532   0.455  15.350   5.651 -0.3081 -0.0612 -0.0422
60595W        W 3533   1.734  15.056   6.020 -0.1925  0.0278 -0.3009
60596W        W 3534  34.094  14.573   4.803 -0.1955  0.1399 -0.0715
60597W        W 3535   2.271  15.349   7.629  0.2076  0.3904 -0.0546
60598W        W 3536   2.480  17.897   4.884  0.0256 -0.0647 -0.0990
60599W        W 3537   2.272  17.262   4.321  0.0329 -0.2198 -0.0645
60600W        W 3538   1.748  15.571   5.176  0.0594 -0.3150 -0.0123
60601W        W 3539  33.751  14.887   4.599 -0.3363  0.0119  0.2871
60602W        W 3540   2.180  17.879   7.358 -0.0166  0.2137  0.3484
60603W        W 3541   2.598  15.668   4.777  0.1319 -0.1953  0.0138
60604W        W 3542  34.147  14.771   3.894 -0.0028 -0.1231  0.1999
60605W        W 3543   2.261  15.507   5.309  0.2126 -0.0687  0.0774
60606W        W 3544   3.811  16.511   5.663 -0.1292  0.0355 -0.4485
60607W        W 3545   2.074  13.861   4.253  0.0556  0.4271 -0.2396
60608W        W 3546   2.942  14.485   6.001  0.1091 -0.0364 -0.1481
60609W        W 3547  33.528  17.470   4.985 -0.1879 -0.1687 -0.2720
60610W        W 3548   2.061  12.524   5.573  0.1265 -0.0643  0.1358
60611W        W 3549   0.857  15.066   5.865 -0.1628 -0.1620 -0.1567
60612W        W 3550  34.523  16.971   7.463 -0.2980 -0.1314 -0.1241
60613W        W 3551  34.378  17.373   6.136 -0.1654  0.0434  0.1395
60614W        W 3552   2.264  14.196   5.329  0.0575 -0.1462 -0.0688
60615W        W 3553   3.415  14.222   4.158 -0.0092 -0.4901 -0.2713
60616W        W 3554   0.931  14.932   5.370  0.2972  0.1047 -0.2713
60617W        W 3555   4.108  15.494   5.746  0.2670 -0.0738  0.2343
60618W        W 3556   1.526  17.919   6.144  0.0097 -0.1971  0.3342
60619W        W 3557   1.953  17.912   4.948  0.4437  0.1864 -0.1751
60620W        W 3558   3.160  16.823   7.401  0.1099 -0.1358 -0.1115
60621W        W 3559   3.467  15.900   4.811  0.0750  0.1581 -0.0345
60622W        W 3560   0.568  16.939   6.131  0.2000 -0.1740 -0.1726
60623W        W 3561  33.501  15.386   7.048 -0.1817  0.1650  0.1950
60624W        W 3562   1.607  15.999   6.945  0.1666 -0.1548  0.0066
60625W        W 3563   2.016  16.773   4.462  0.1277  0.1130  0.0059
60626W        W 3564  33.484  13.597   4.381 -0.0748  0.0889 -0.1365
60627W        W 3565   1.692  17.407   3.472  0.4239  0.2133 -0.1928
60628W        W 3566   1.107  17.470   6.908 -0.0365  0.0351 -0.0378
60629W        W 3567  34.136  16.816   6.740 -0.1005 -0.0628 -0.0297
60630W        W 3568   0.077  17.020   5.388  0.3150 -0.0050  0.3565
60631W        W 3569   3.240  17.330   2.947 -0.3428  0.0323 -0.0164
60632W        W 3570   3.415  17.736   4.055 -0.1896  0.0323  0.1605
60633W        W 3571   1.937  17.569   5.476  0.0196 -0.0860  0.2080
60634W        W 3572   2.111  15.760   4.938  0.1567  0.2226 -0.2104
60635W        W 3573  34.328  17.471   5.481  0.0977 -0.1029 -0.1007
60636W        W 3574  33.188  16.731   4.490 -0.6247 -0.1030 -0.3326
60637W        W 3575   4.358  17.770   3.037  0.0537  0.0710  0.0533
60638W        W 3576  33.363  17.096   5.812 -0.1630  0.1193 -0.2830
60639W        W 3577   1.261  15.348   5.846  0.0637  0.1044 -0.4350
60640W        W 3578   2.249  15.298   2.537 -0.0287  0.0156  0.4610
60641W        W 3579   3.246  15.215   5.521  0.0587  0.1873 -0.0871
60642W        W 3580   3.613  16.617   4.346  0.0317 -0.1667 -0.0774
60643W        W 3581   2.816  17.836   6.645 -0.0557  0.4067 -0.0619
60644W        W 3582   0.817  15.661   4.871 -0.2586 -0.2270  0.0736
60645W        W 3583   0.675  14.175   2.689 -0.2538 -0.0600 -0.0342
60646W        W 3584   0.313  14.735   6.561  0.1302  0.1095 -0.0971
60647W        W 3585   3.190  14.044   5.859 -0.0689  0.1194  0.3326
60648W        W 3586   0.643  17.288   6.492  0.2454  0.2383 -0.1408
60649W        W 3587   2.900  17.890   2.656  0.1548  0.1830  0.3065
60650W        W 3588  34.294  16.192   5.377  0.2031 -0.0460 -0.1192
60651W        W 3589   0.309  14.117   5.024 -0.2260 -0.0167 -0.0912
60652W        W 3590   3.284  14.133   5.137  0.1508  0.0393  0.1151
60653W        W 3591   2.201  17.219   2.707 -0.1210 -0.1615  0.0268
60654W        W 3592   2.077  14.778   4.992 -0.2451  0.2584  0.2054
60655W        W 3593   0.740  18.262   5.458 -0.2613 -0.2480 -0.0654
60656W        W 3594   2.018  16.908   6.497  0.0219 -0.0500 -0.2169
60657W        W 3595   0.911  16.459   5.279 -0.0142 -0.0841 -0.2640
60658W        W 3596  34.431  15.664   5.606 -0.1989  0.1717 -0.1091
60659W        W 3597   3.648  15.417   4.670  0.1094  0.1911 -0.2098
60660W        W 3598   1.206  14.991   6.193 -0.1059 -0.0667  0.2208
60661W        W 3599   1.587  14.215   5.884 -0.2882  0.0364 -0.1989
60662W        W 3600   1.670  16.213   7.614 -0.0973 -0.0233 -0.0208
60663W        W 3601   3.696  15.472   3.994  0.0504  0.2088  0.1136
60664W        W 3602   2.453  15.147   7.110  0.0994 -0.2383  0.0040
60665W        W 3603   1.230  14.761   5.760 -0.0260 -0.0318 -0.1246
60666W        W 3604   0.417  14.984   4.549 -0.0943  0.1369 -0.3411
60667W        W 3605   2.655  16.434   6.031  0.1765 -0.2733  0.1075
60668W        W 3606   2.719  15.617   4.211  0.3910 -0.2997  0.1759
60669W        W 3607   2.951  19.606   6.542  0.0929  0.0040 -0.1025
60670W        W 3608  34.630  13.178   3.691  0.3204 -0.0590 -0.0036
60671W        W 3609   1.626  14.708   4.174  0.1561  0.0368  0.0486
60672W        W 3610   1.005  15.978   5.236 -0.1749  0.0135  0.1069
60673W        W 3611   0.731  14.795   6.279 -0.2948 -0.0210 -0.1267
60674W        W 3612   4.048  17.318   6.290 -0.3688  0.1074  0.1798
60675W        W 3613  34.659  14.142   4.591 -0.3680  0.1208  0.4959
60676W        W 3614   2.827  17.330   3.448 -0.1838  0.0218 -0.4109
60677W        W 3615   3.809  15.298   5.307 -0.0082 -0.3649  0.1359
60678W        W 3616   0.555  17.585   4.626 -0.1325 -0.1813 -0.0692
60679W        W 3617   2.775  15.409   5.156 -0.0882 -0.0511  0.2910
60680W        W 3618   3.215  18.980   4.738 -0.1466 -0.2122  0.1987
60681W        W 3619   0.469  15.234   6.256 -0.1522  0.1250  0.2585
60682W        W 3620   2.596  17.020   6.035 -0.0247 -0.2096  0.2886
60683W        W 3621   3.688  17.864   5.306 -0.3502  0.2509 -0.0442
60684W        W 3622   1.153  14.661   4.510  0.1356 -0.1009  0.2980
60685W        W 3623  34.249  16.552   4.909  0.0739 -0.1600 -0.1462
60686W        W 3624  33.805  17.152   5.347  0.2989 -0.0490  0.0606
60687W        W 3625   2.857  14.924   5.234 -0.0171  0.4302 -0.0346
60688W        W 3626   1.331  13.750   6.884  0.5702  0.0497  0.1251
60689W        W 3627   0.545  16.049   4.555  0.2798 -0.1178 -0.0118
60690W        W 3628   2.790  13.980   7.188  0.2194 -0.1591  0.0559
60691W        W 3629   2.187  17.115   5.678  0.1763 -0.0149 -0.0474
60692W        W 3630   2.059  18.722   8.908  0.1584 -0.1000  0.0636
60693W        W 3631   0.122  16.072   5.559 -0.1727 -0.0511 -0.1130
60694W        W 3632   1.567  16.177   5.561  0.0251 -0.3431 -0.1249
60695W        W 3633   1.987  18.425   5.104 -0.2354  0.1297 -0.2280
60696W        W 3634   2.291  16.907   5.227 -0.1922  0.2869 -0.0902
60697W        W 3635   3.886  16.832   6.069  0.4129 -0.1292  0.0444
60698W        W 3636   0.751  16.751   5.715  0.2803  0.2461 -0.1755
60699W        W 3637   3.370  17.396   4.886  0.0062 -0.0814 -0.1602
60700W        W 3638   1.219  13.954   3.991  0.4756 -0.1568 -0.0651
60701W        W 3639   3.853  12.642   4.289  0.0491  0.3437 -0.1177
60702W        W 3640   0.886  15.215   4.487 -0.1129 -0.2274 -0.0511
60703W        W 3641   0.823  15.761   5.772 -0.0055 -0.1853  0.2872
60704W        W 3642  33.706  16.209   3.953 -0.2611 -0.0566  0.3062
60705W        W 3643   0.833  17.022   5.281 -0.1033 -0.1269  0.0975
60706W        W 3644   0.712  14.473   5.274  0.1545  0.0208  0.1860
60707W        W 3645   1.478  14.161   6.487 -0.0452  0.1508  0.0389
60708W        W 3646   0.809  15.427   7.062 -0.1260  0.3099 -0.1342
60709W        W 3647   0.486  15.727   5.370  0.2316  0.2153  0.2902
60710W        W 3648   0.694  13.745   4.094 -0.0542  0.4269 -0.2434
60711W        W 3649   2.784  17.174   4.325 -0.2035  0.2768 -0.1436
60712W        W 3650   0.650  13.511   6.628  0.1256  0.6787  0.0603
60713W        W 3651  33.377  13.173   5.143 -0.0223 -0.0541  0.1754
60714W        W 3652   2.319  16.375   4.657  0.0141  0.4195  0.1792
60715W        W 3653   3.971  18.123   4.983  0.1897 -0.0787  0.1571
60716W        W 3654   0.796  14.043   5.744 -0.0708 -0.0967  0.1250
60717W        W 3655   3.139  17.145   6.029  0.0773  0.2881 -0.3696
60718W        W 3656   1.035  16.878   4.848  0.0608 -0.0103 -0.2209
60719W        W 3657   1.492  14.859   7.796  0.1153 -0.0691 -0.4826
60720W        W 3658   0.259  14.646   6.000  0.1074  0.0313  0.1024
60721W        W 3659   0.062  15.477   3.716  0.0426  0.1609 -0.3565
60722W        W 3660   1.807  14.522   5.545 -0.1337 -0.0377  0.1983
60723W        W 3661   2.924  17.069   4.824  0.2155 -0.0199 -0.1809
60724W        W 3662   3.598  18.034   3.253 -0.0262  0.1153  0.1626
60725W        W 3663   1.877  16.616   5.462  0.1239 -0.2029  0.2601
60726W        W 3664   2.312  17.843   6.808  0.4247 -0.1211  0.1898
60727W        W 3665   0.279  13.647   6.378 -0.0310 -0.0206  0.0361
60728W        W 3666   3.583  14.630   5.118  0.4428 -0.0216  0.1776
60729W        W 3667   3.259  18.005   6.263  0.1126 -0.0040  0.0572
60730W        W 3668   5.092  17.769   2.782 -0.0229 -0.1179  0.0068
60731W        W 3669   3.984  14.308   4.228  0.0956  0.0941 -0.0522
60732W        W 3670   4.223  16.070   4.257  0.2306  0.4023  0.0650
60733W        W 3671   0.605  13.000   7.971  0.3359  0.2102 -0.3798
60734W        W 3672   1.957  15.960   6.552 -0.1957  0.0411  0.0015
60735W        W 3673   3.052  17.042   3.846  0.1695  0.0075  0.1287
60736W        W 3674   0.173  13.577   4.446  0.2251 -0.1055 -0.0593
60737W        W 3675   1.472  16.524   4.580 -0.0065  0.0975 -0.2402
60738W        W 3676   2.959  16.935   2.868 -0.1670  0.1489 -0.3203
60739W        W 3677   0.515  15.818   6.277 -0.0154 -0.1667  0.0122
60740W        W 3678   1.610  14.695   4.772 -0.3381  0.0126 -0.0613
60741W        W 3679   1.438  14.765   5.240 -0.1195 -0.1633 -0.2881
60742W        W 3680   1.760  17.347   4.513  0.2119 -0.0161 -0.3423
60743W        W 3681   4.589  17.187   6.622  0.0815  0.3185 -0.0688
60744W        W 3682   0.865  15.544   3.964 -0.1998 -0.0674 -0.3659
60745W        W 3683   3.454  17.086   2.196  0.2184  0.1447  0.0087
60746W        W 3684   3.907  17.514   5.010  0.0370 -0.4843  0.2797
60747W        W 3685   2.210  19.001   6.570  0.1133  0.1904  0.0213
60748W        W 3686   2.909  18.084   4.685 -0.2816 -0.1822  0.2303
60749W        W 3687   3.031  15.666   5.510  0.2961 -0.0239  0.1759
60750W        W 3688   0.307  13.878   6.987 -0.5072  0.2834  0.0006
60751W        W 3689   0.706  17.092   4.619  0.1506 -0.0120 -0.1035
60752W        W 3690  34.322  17.068   5.242 -0.1586  0.0700  0.0248
60753W        W 3691   1.498  15.181   5.476 -0.0645 -0.1452 -0.3999
60754W        W 3692  34.224  14.265   5.689 -0.0875  0.1029 -0.1199
60755W        W 3693   1.589  14.884   3.604  0.1763  0.0338 -0.1149
60756W        W 3694   2.714  18.675   4.757 -0.0395 -0.0368 -0.3219
60757W        W 3695   2.483  16.698   5.631  0.1839 -0.1431 -0.0910
60758W        W 3696   1.100  20.080  10.495  0.2809  0.4925  0.1750
60759W        W 3697   1.038  16.794   7.409 -0.2181 -0.2748 -0.0253
60760W        W 3698   2.845  16.328   8.084 -0.0560 -0.3669  0.0410
60761W        W 3699   3.752  15.896   6.713  0.1547 -0.0626 -0.2255
60762W        W 3700   0.299  15.863  10.195  0.0572  0.0395  0.0494
60763W        W 3701   2.360  17.715   8.182 -0.0985 -0.4572 -0.1603
60764W        W 3702   2.410  16.945   8.898 -0.1730 -0.1459 -0.0888
60765W        W 3703   4.125  19.037   9.431  0.0192  0.5278 -0.1341
60766W        W 3704   1.500  15.898   6.434 -0.0016  0.0324 -0.2998
60767W        W 3705   3.222  16.610  10.008 -0.1238 -0.0375  0.2335
60768W        W 3706   1.031  15.110   7.838  0.0969  0.3283  0.1847
60769W        W 3707   1.077  13.458  10.603 -0.2042  0.0039  0.4682
60770W        W 3708   1.663  15.186   8.720  0.0293 -0.1550  0.0372
60771W        W 3709   0.852  16.533   7.833  0.0562 -0.0369 -0.0373
60772W        W 3710   1.861  15.992   9.584  0.0805  0.4317 -0.3991
60773W        W 3711   1.848  15.030  10.164 -0.0443 -0.1034  0.0395
60774W        W 3712   2.696  17.878   7.245 -0.0185  0.1666 -0.1035
60775W        W 3713   2.214  14.526   8.687 -0.1336 -0.1910 -0.1951
60776W        W 3714   1.843  17.862   6.940  0.2500  0.2528 -0.1594
60777W        W 3715   0.947  15.041   7.316 -0.2308  0.0421  0.0224
60778W        W 3716  34.560  14.494  10.361 -0.0476  0.2350 -0.0375
60779W        W 3717   1.720  16.234   9.140 -0.2149  0.1855  0.0972
60780W        W 3718   3.052  16.434   7.032 -0.5135 -0.0908 -0.3630
60781W        W 3719   2.362  17.043   6.959 -0.0640  0.0827  0.1153
60782W        W 3720   2.624  18.602   8.858  0.1461 -0.1730  0.1510
60783W        W 3721   2.518  19.214   9.648 -0.2460 -0.0940 -0.1211
60784W        W 3722   0.778  16.481  10.140  0.1689 -0.0066  0.2312
60785W        W 3723   1.231  16.850   9.482 -0.1793  0.0731  0.2416
60786W        W 3724   1.504  18.196   7.819  0.2298 -0.0362 -0.0168
60787W        W 3725   4.017  17.025   7.263 -0.0701  0.0962 -0.5147
60788W        W 3726   1.676  16.800   9.303  0.0437  0.2044 -0.0587
60789W        W 3727   2.058  16.596   9.060 -0.0191  0.0420 -0.0587
60790W        W 3728   2.090  16.737   8.583 -0.4618  0.0376 -0.0487
60791W        W 3729   0.900  17.467   8.079  0.0883 -0.2379 -0.0337
60792W        W 3730   2.374  16.437   8.260 -0.0768 -0.3232  0.0833
60793W        W 3731  34.138  17.043   9.681 -0.2051 -0.0798  0.1755
60794W        W 3732   1.132  19.164   8.738  0.0366  0.3826  0.3749
60795W        W 3733   3.553  15.081   6.276 -0.0537 -0.4252 -0.1367
60796W        W 3734   0.567  15.310   7.596 -0.1675 -0.0180 -0.0255
60797W        W 3735   2.819  15.393   7.829  0.0253  0.1492  0.0388
60798W        W 3736   1.535  13.712   9.564 -0.0118  0.1234 -0.0211
60799W        W 3737   2.477  18.147   8.477 -0.0456  0.3045 -0.1487
60800W        W 3738   0.158  14.516  11.949 -0.4876 -0.1151  0.3242
60801W        W 3739   3.180  17.789   6.941 -0.1526 -0.0610  0.1663
60802W        W 3740   2.169  12.968   9.609 -0.0249  0.0113 -0.4273
60803W        W 3741   2.045  18.507   9.595 -0.3575 -0.2854 -0.2371
60804W        W 3742   1.836  16.468   8.289 -0.1241 -0.3445 -0.1947
60805W        W 3743   3.556  17.127   6.416  0.0289 -0.0843  0.3385
60806W        W 3744   2.872  18.197   8.729  0.0768 -0.1138  0.3946
60807W        W 3745   4.497  17.145   6.130  0.0814  0.0699  0.0806
60808W        W 3746   0.677  16.067   7.886  0.1640  0.1612  0.0880
60809W        W 3747   1.463  14.615   6.965  0.0887 -0.1108 -0.2919
60810W        W 3748   2.846  14.956   8.627  0.1606 -0.0684 -0.1840
60811W        W 3749   1.119  18.939   9.503 -0.2079  0.2171  0.1113
60812W        W 3750   2.109  17.079   9.424  0.0932  0.1007 -0.0813
60813W        W 3751   2.872  15.973   6.488  0.1688 -0.0130  0.3011
60814W        W 3752   2.941  15.418   9.161  0.0373  0.2042  0.0061
60815W        W 3753   2.262  13.875   7.955 -0.2019 -0.2109  0.0333
60816W        W 3754   1.640  15.995   8.135 -0.0555 -0.0312 -0.0667
60817W        W 3755   1.586  16.316   6.164 -0.1733 -0.0909 -0.0384
60818W        W 3756   3.918  16.138   9.116 -0.0818 -0.2846  0.1091
60819W        W 3757   3.098  15.933   7.166 -0.0537 -0.0809  0.0812
60820W        W 3758   2.814  17.637  10.257 -0.1316  0.1667  0.3279
60821W        W 3759   1.351  17.897   8.439  0.1912 -0.2704 -0.2682
60822W        W 3760  32.663  16.308   9.045  0.0978  0.0014 -0.1011
60823W        W 3761   0.120  16.245   8.514 -0.0567  0.2108 -0.0853
60824W        W 3762   2.082  12.835  10.938 -0.2828 -0.2169 -0.1430
60825W        W 3763   1.991  15.837   9.074 -0.0490  0.1160  0.3400
60826W        W 3764   3.526  14.875   8.406  0.0811  0.2334 -0.0342
60827W        W 3765   3.018  14.334   6.862  0.0414  0.0461 -0.0046
60828W        W 3766   1.421  17.037   8.753 -0.0789  0.1295 -0.1038
60829W        W 3767   4.223  17.480   6.784  0.1627  0.2618 -0.2170
60830W        W 3768   3.347  15.068   7.762 -0.2236 -0.0274  0.0978
60831W        W 3769   1.931  15.495   6.234  0.1955 -0.0952 -0.0370
60832W        W 3770   1.273  15.727  10.302  0.2942 -0.0642 -0.1791
60833W        W 3771   0.300  16.908   7.294  0.1887 -0.1040 -0.1042
60834W        W 3772   2.148  14.962   9.388 -0.2480 -0.0609  0.0391
60835W        W 3773   0.588  14.772   9.188 -0.0678 -0.3548  0.4059
60836W        W 3774   2.514  15.314   8.874  0.1565  0.2013  0.1042
60837W        W 3775   2.378  15.424   9.286  0.0230 -0.0762 -0.0928
60838W        W 3776  33.151  15.547   9.825 -0.2997  0.1235  0.0499
60839W        W 3777   3.847  17.961   7.744  0.0750  0.2774 -0.0960
60840W        W 3778   3.740  20.750   8.827  0.1587 -0.1124  0.0494
60841W        W 3779   4.281  17.779   7.998  0.0036  0.0193  0.3265
60842W        W 3780   2.247  15.695   9.735  0.1436 -0.0994  0.1646
60843W        W 3781   1.368  14.605   9.461 -0.3524  0.2064 -0.1559
60844W        W 3782  34.570  18.136   7.964 -0.2230  0.0355 -0.0942
60845W        W 3783   0.911  19.270   9.789 -0.0814  0.2091  0.4938
60846W        W 3784   1.183  15.129   8.534 -0.2044 -0.2713  0.0765
60847W        W 3785   4.166  17.802   8.505 -0.2350  0.1957  0.1195
60848W        W 3786   2.239  18.611   8.456 -0.1079  0.1816  0.0843
60849W        W 3787   2.152  16.013   8.288  0.3533 -0.2914  0.0593
60850W        W 3788   1.779  16.939   6.980 -0.2617  0.2983  0.0629
60851W        W 3789  34.551  14.558   8.567  0.0225  0.1131  0.1782
60852W        W 3790   1.739  17.422   8.610  0.3055  0.2294  0.0063
60853W        W 3791   2.030  18.098   9.311  0.0405 -0.1371  0.0009
60854W        W 3792   1.148  15.954   7.779 -0.0911 -0.0403 -0.1953
60855W        W 3793   1.784  18.801   7.312  0.2776 -0.4978 -0.1686
60856W        W 3794   2.994  15.220   9.837  0.0819  0.0530 -0.0345
60857W        W 3795  34.175  15.745   8.187 -0.2684  0.2173  0.1408
60858W        W 3796   1.468  14.409   8.935 -0.0535 -0.0459 -0.3043
60859W        W 3797   3.416  14.701   7.001 -0.0945 -0.0179 -0.1644
60860W        W 3798   3.606  16.581   6.538  0.0545  0.1330  0.1308
60861W        W 3799   1.958  15.451   7.191  0.2460 -0.2879 -0.0111
60862W        W 3800   2.640  13.813   6.573 -0.4110 -0.1807 -0.0242
60863W        W 3801   2.310  17.268   8.408  0.0575  0.3082  0.2807
60864W        W 3802   3.041  16.954   8.244 -0.4579  0.1003 -0.0628
60865W        W 3803   1.113  15.915   8.258 -0.0115 -0.1360 -0.0334
60866W        W 3804   5.818  17.038   6.316 -0.1383 -0.2102 -0.0529
60867W        W 3805   1.459  16.439   9.631  0.2363 -0.0863  0.0110
60868W        W 3806   1.975  17.218   7.309 -0.0883 -0.2361 -0.0808
60869W        W 3807   1.870  14.130   8.766  0.0070 -0.2908  0.2388
60870W        W 3808   1.431  15.186   7.212  0.0656 -0.3601  0.0189
60871W        W 3809   2.086  14.937   8.372  0.1073  0.0407 -0.1959
60872W        W 3810   1.423  18.105   6.981  0.1298  0.0371 -0.3477
60873W        W 3811   2.710  16.107   8.460  0.0416 -0.1493 -0.0250
60874W        W 3812   2.945  15.668   8.660 -0.0568  0.0372 -0.0223
60875W        W 3813   3.214  15.094   6.628 -0.0061 -0.2465 -0.2448
60876W        W 3814   2.438  15.652   8.473  0.1449  0.1413  0.1125
60877W        W 3815   0.546  16.448   7.457  0.0811  0.2147 -0.1570
60878W        W 3816   1.021  17.011   9.920 -0.1376  0.0811 -0.0597
60879W        W 3817   1.524  17.338   9.125 -0.0945 -0.1668  0.0495
60880W        W 3818   2.065  17.388   6.840  0.0565 -0.3231  0.0051
60881W        W 3819   3.360  16.176   6.783  0.0402  0.4292  0.3156
60882W        W 3820   0.116  18.960   9.623  0.0064  0.0846 -0.2970
60883W        W 3821   0.673  16.172   7.079 -0.3445  0.1192  0.1078
60884W        W 3822   1.967  16.474   9.560 -0.1956  0.0894 -0.1022
60885W        W 3823   1.917  17.083   8.959  0.3998  0.0357  0.2471
60886W        W 3824   2.032  18.538   6.707  0.2249  0.0231  0.1921
60887W        W 3825   2.681  16.559   9.105 -0.1209 -0.0149 -0.1492
60888W        W 3826   0.766  17.155   7.054  0.0394 -0.1324  0.0881
60889W        W 3827   3.201  14.546   8.622  0.2067  0.0278 -0.1900
60890W        W 3828  33.778  16.914   9.281  0.1338  0.2632  0.1828
60891W        W 3829   1.205  15.271   9.021  0.0403 -0.1424  0.0150
60892W        W 3830   0.982  15.944   9.724  0.1015 -0.0384 -0.0474
60893W        W 3831   2.492  16.541   7.684 -0.1073 -0.1006  0.0863
60894W        W 3832   3.612  15.591   7.169 -0.1007 -0.0573  0.2629
60895W        W 3833   1.388  15.210   9.473 -0.2154  0.0710 -0.1853
60896W        W 3834   0.955  14.418  10.548 -0.0404  0.1010  0.0607
60897W        W 3835   2.563  13.734  10.495  0.0369 -0.1977 -0.3023
60898W        W 3836   2.782  15.848   5.992  0.1824  0.1567 -0.0802
60899W        W 3837  34.532  14.605   7.281 -0.1439  0.2658  0.1398
60900W        W 3838   2.653  15.840   9.466 -0.0675  0.1125 -0.0936
60901W        W 3839   1.342  16.365   8.012  0.1606 -0.0379  0.2032
60902W        W 3840   0.067  16.821   8.327  0.1347  0.0885  0.1166
60903W        W 3841   3.122  17.461   9.349  0.2275  0.2716 -0.1080
60904W        W 3842   1.367  16.329   8.522  0.2163 -0.2168 -0.0504
60905W        W 3843   1.362  17.250   8.296  0.1408 -0.1937 -0.1679
60906W        W 3844   2.265  14.214  10.158  0.0867  0.1453 -0.0312
60907W        W 3845   2.022  17.571  10.200  0.0290 -0.1808 -0.0135
60908W        W 3846   1.349  15.954   8.830 -0.1193  0.0147  0.2823
60909W        W 3847   1.822  15.362   9.804 -0.0466 -0.2847  0.2013
60910W        W 3848   3.133  17.253   7.716  0.1088 -0.2947 -0.1843
60911W        W 3849   2.394  16.222   9.311 -0.0497 -0.0254 -0.0155
60912W        W 3850   2.045  14.502   9.139 -0.0266 -0.0030  0.0838
60913W        W 3851   3.272  17.601   8.028 -0.0672  0.2905  0.0787
60914W        W 3852   1.380  17.665   7.955 -0.1797 -0.1088  0.0880
60915W        W 3853  32.271  17.029   9.852  0.0458 -0.0205  0.3493
60916W        W 3854   1.271  17.517   8.756  0.0063  0.2088  0.0004
60917W        W 3855   1.824  14.598   8.170  0.0702 -0.1164  0.1623
60918W        W 3856   1.669  16.604   8.770 -0.1297 -0.0405 -0.1792
60919W        W 3857   1.681  17.948   7.444  0.0967 -0.0608  0.1778
60920W        W 3858   2.468  17.407   9.963  0.1295 -0.1756  0.3029
60921W        W 3859   4.476  15.169   8.387  0.2684 -0.0421  0.1189
60922W        W 3860   1.641  16.785   7.913  0.2154 -0.5950  0.0322
60923W        W 3861   2.376  15.178   8.096  0.1932 -0.1792  0.0362
60924W        W 3862   2.965  15.402   7.018 -0.2044  0.0602 -0.0076
60925W        W 3863   1.872  14.455  10.377 -0.0008  0.0846 -0.4166
60926W        W 3864   3.149  15.491   7.439 -0.0507 -0.0778 -0.2131
60927W        W 3865   2.546  15.578   7.318 -0.1040  0.1982  0.3874
60928W        W 3866   0.744  15.036   8.283  0.2178 -0.0506  0.2977
60929W        W 3867  33.728  17.956   9.598  0.2195 -0.0432  0.2091
60930W        W 3868   5.696  19.862   8.887  0.3823 -0.1915 -0.2660
60931W        W 3869   1.636  17.445   7.559 -0.0607 -0.2116 -0.1229
60932W        W 3870   3.650  16.495   8.727 -0.1328  0.2535 -0.2259
60933W        W 3871   0.850  18.075  10.030  0.0311 -0.0093 -0.0149
60934W        W 3872   2.129  14.861   6.343  0.1691 -0.1237 -0.2144
60935W        W 3873   2.935  16.303   7.534 -0.0522 -0.1423 -0.2952
60936W        W 3874   1.037  16.301   7.471 -0.1141 -0.0078 -0.3815
60937W        W 3875   2.802  17.106   8.631  0.1164  0.0163 -0.3015
60938W        W 3876   3.257  16.211   8.592  0.1105 -0.0338 -0.1455
60939W        W 3877   3.749  18.038   8.921  0.2227 -0.0563  0.0081
60940W        W 3878   2.875  16.928   6.978  0.1634 -0.1669 -0.3103
60941W        W 3879   3.156  16.517   9.009 -0.0866 -0.0489 -0.1996
60942W        W 3880   3.456  15.565   9.102  0.0949 -0.1021 -0.2218
60943W        W 3881   2.221  15.871   7.006 -0.1978  0.1675 -0.1315
60944W        W 3882   1.469  14.357  10.896  0.3467 -0.3367 -0.2910
60945W        W 3883   1.960  15.789   7.798 -0.3655  0.0348  0.2346
60946W        W 3884   3.356  16.947   6.845  0.0374 -0.1843  0.1660
60947W        W 3885   3.807  16.667   8.242  0.1639 -0.3101 -0.1527
60948W        W 3886   1.592  15.127   8.227  0.0142  0.0212  0.3427
60949W        W 3887   0.633  15.949   8.362  0.1054 -0.0651  0.0167
60950W        W 3888  34.554  15.703   9.040  0.0842 -0.1479  0.0463
60951W        W 3889   1.907  15.003   6.988  0.0501  0.0469 -0.4308
60952W        W 3890   3.189  17.423   8.565 -0.1053 -0.2020  0.2191
60953W        W 3891   2.042  14.230   7.266  0.1234 -0.0223 -0.0908
60954W        W 3892   0.625  18.321   7.777 -0.1964  0.1694 -0.0245
60955W        W 3893   2.672  14.483   8.527 -0.0510  0.2578 -0.2026
60956W        W 3894   1.961  18.049   9.809  0.1646 -0.0147  0.0707
60957W        W 3895   2.147  18.224   8.131 -0.0442 -0.0883  0.4165
60958W        W 3896   3.067  13.807   8.842  0.3876 -0.0283  0.4698
60959W        W 3897   2.742  16.588   8.622  0.3564 -0.2299 -0.1394
60960W        W 3898   2.026  16.645   7.521 -0.0160 -0.0928 -0.2729
60961W        W 3899   1.019  16.744   8.662  0.2008  0.0654 -0.0097
60962W        W 3900   2.871  15.725   8.181  0.0703  0.1883 -0.0216
60963W        W 3901   1.660  16.048  10.411  0.0429 -0.2688  0.0972
60964W        W 3902   1.714  14.713   8.625  0.0511 -0.4891 -0.1754
60965W        W 3903   1.976  15.453   8.167  0.1251 -0.1126 -0.0343
60966W        W 3904   1.271  17.035   7.029 -0.2460 -0.0951 -0.2489
60967W        W 3905   1.395  15.235  10.169 -0.2075  0.0361  0.0355
60968W        W 3906   1.265  17.177   7.800 -0.1036  0.1418 -0.1628
60969W        W 3907   3.660  16.152   7.184 -0.3689 -0.2909  0.1660
60970W        W 3908   2.669  17.052   7.488  0.3550 -0.2851 -0.4454
60971W        W 3909   4.055  20.008   9.534 -0.1397  0.0972 -0.1384
60972W        W 3910   1.567  15.709   7.343 -0.1817  0.0611 -0.1238
60973W        W 3911   0.936  18.520   9.796  0.3663  0.2141 -0.0228
60974W        W 3912  33.995  17.224   8.028 -0.2248 -0.2577  0.1873
60975W        W 3913   2.662  16.071   7.115 -0.0644 -0.0802  0.0908
60976W        W 3914   2.245  17.694   9.507  0.2763 -0.2633 -0.0131
60977W        W 3915   2.713  14.025   6.147  0.1338 -0.1691 -0.0077
60978W        W 3916   3.631  16.626   7.175  0.0369 -0.1945 -0.1360
60979W        W 3917   4.780  16.339   8.305  0.0683 -0.0058 -0.1269
60980W        W 3918   2.713  17.717   9.627 -0.1287  0.1320  0.0993
60981W        W 3919   1.392  14.276   8.497  0.1674 -0.0123  0.3220
60982W        W 3920   2.431  17.479   7.244  0.0246 -0.0620 -0.3002
60983W        W 3921   0.924  16.466   9.634 -0.1435  0.1147 -0.1472
60984W        W 3922   1.177  16.794   8.152 -0.0294 -0.1351 -0.0668
60985W        W 3923   2.465  15.858   8.959 -0.2161  0.2975  0.1980
60986W        W 3924   1.347  15.791   6.012 -0.0355 -0.2588 -0.1156
60987W        W 3925   2.554  16.910   8.188  0.0927 -0.1650  0.1118
60988W        W 3926   3.696  19.035   8.685  0.1683  0.0534  0.0176
60989W        W 3927   3.401  18.534   9.407  0.6409 -0.1198 -0.0245
60990W        W 3928   2.886  18.893   9.263  0.2472 -0.0181  0.1497
60991W        W 3929   0.386  15.240   8.040 -0.1609  0.0355  0.0576
60992W        W 3930   4.879  15.944   8.632  0.5145  0.2952 -0.0010
60993W        W 3931   1.935  15.861  10.061  0.0905  0.1694 -0.4618
60994W        W 3932   0.929  15.725   8.917 -0.4223  0.0391  0.2120
60995W        W 3933   3.885  15.702   9.404  0.0048  0.1904 -0.2249
60996W        W 3934   3.064  14.842   9.095  0.1567 -0.0870 -0.0551
60997W        W 3935   1.861  15.352   9.192  0.1785 -0.0453 -0.0089
60998W        W 3936   0.933  16.281   8.841 -0.0194  0.0547  0.0305
60999W        W 3937   1.155  15.903   7.144 -0.1227  0.0419  0.0683
61000W        W 3938   2.077  14.554   9.716  0.0506 -0.1207 -0.0209
61001W        W 3939   2.384  16.040   7.505 -0.2412  0.0893 -0.3210
61002W        W 3940   2.286  17.334   7.777  0.1216 -0.1265  0.4382
61003W        W 3941   1.723  16.965   8.363 -0.1201 -0.1214 -0.6861
61004W        W 3942   1.156  14.773   8.878  0.1262 -0.0781  0.2196
61005W        W 3943   2.172  16.589   6.924 -0.0597  0.3478 -0.1288
61006W        W 3944   2.818  17.713   8.664 -0.0334 -0.2324  0.0415
61007W        W 3945   1.778  18.855   6.345  0.0284  0.0590  0.0882
61008W        W 3946   2.403  15.761   7.917 -0.0837  0.1626  0.0551
61009W        W 3947   4.543  19.153   9.182  0.2987  0.1171  0.0073
61010W        W 3948   1.163  16.127   9.304 -0.1149 -0.1928  0.1405
61011W        W 3949   3.723  18.952   9.187 -0.2573 -0.1070 -0.1771
61012W        W 3950   3.146  18.169   7.372 -0.1798 -0.1688 -0.0172
61013W        W 3951   1.959  14.948   7.793 -0.3109 -0.1171  0.0288
61014W        W 3952   0.976  15.412   9.914 -0.0334 -0.1754  0.2293
61015W        W 3953   0.166  17.721   7.907  0.2287 -0.1104 -0.2328
61016W        W 3954   3.011  17.026   9.085 -0.1008  0.1615  0.0155
61017W        W 3955   2.640  18.489   5.562 -0.0941  0.1090  0.2932
61018W        W 3956   2.897  17.272   9.758 -0.1174 -0.0493 -0.1031
61019W        W 3957  34.640  15.899   8.187  0.0397 -0.1823  0.2229
61020W        W 3958   2.754  17.571   7.669 -0.2864  0.1156 -0.0596
61021W        W 3959   2.055  19.240   7.344  0.1294  0.1321  0.1898
61022W        W 3960   3.022  18.073   9.815  0.0796  0.2712 -0.0718
61023W        W 3961   2.030  15.541   8.685  0.1090 -0.0610  0.1590
61024W        W 3962   3.562  17.230   8.246  0.1354 -0.2525 -0.3314
61025W        W 3963   0.389  15.560   9.077 -0.1190 -0.1066 -0.0535
61026W        W 3964   2.934  14.464   7.681  0.2079  0.3992  0.1759
61027W        W 3965   1.871  14.446   6.739 -0.3314  0.0557  0.1273
61028W        W 3966   3.061  14.154   9.854 -0.2589  0.0893 -0.1968
61029W        W 3967   0.635  16.874   8.249  0.0287 -0.1664  0.4201
61030W        W 3968   1.677  16.447   6.708  0.3221 -0.3466 -0.3336
61031W        W 3969   0.694  16.964   9.581 -0.1664 -0.0187 -0.0149
61032W        W 3970   0.780  15.982  10.223  0.0872  0.0603 -0.2688
61033W        W 3971   1.127  15.510   7.510 -0.0574 -0.0005 -0.1220
61034W        W 3972   3.488  16.946   7.761  0.2531  0.4109  0.1267
61035W        W 3973   1.680  14.839   9.093  0.2296 -0.1364 -0.0549
61036W        W 3974   0.447  14.305   9.218 -0.0463  0.1162 -0.4160
61037W        W 3975   4.244  16.798   6.407 -0.2300 -0.2373 -0.0920
61038W        W 3976   3.875  16.945   6.759 -0.0226 -0.3622 -0.0069
61039W        W 3977   2.929  16.271   9.447 -0.1051 -0.3446 -0.1436
61040W        W 3978   1.186  17.364   7.367  0.4319 -0.0694 -0.1846
61041W        W 3979   0.254  14.347   8.184  0.1798 -0.0015 -0.1331
61042W        W 3980   2.566  14.735   9.071  0.2421  0.1503  0.0998
61043W        W 3981   1.970  17.769   7.812 -0.0434  0.1646 -0.0711
61044W        W 3982   2.501  17.381   6.613  0.4626  0.0910 -0.2118
61045W        W 3983   2.331  16.319   8.749 -0.0999  0.0955  0.1832
61046W        W 3984   2.514  16.739   6.444  0.2202  0.0035 -0.1373
61047W        W 3985   4.349  16.028   7.648 -0.0013  0.0445  0.0992
61048W        W 3986   2.659  15.756   9.965 -0.1424  0.1123 -0.0798
61049W        W 3987   2.087  16.296   7.863 -0.1217  0.3945  0.0996
61050W        W 3988   1.805  16.081   8.630  0.2081  0.0385 -0.0292
61051W        W 3989   0.261  15.094   8.772  0.1259  0.0405  0.0795
61052W        W 3990   2.866  15.844   7.703 -0.0705 -0.0270 -0.2098
61053W        W 3991   1.909  17.707   6.455 -0.3277  0.0747  0.1589
61054W        W 3992  34.532  15.503   9.847  0.1954 -0.0468  0.1874
61055W        W 3993   1.529  15.578   8.504 -0.2407  0.2145  0.0912
61056W        W 3994   3.245  17.911   8.461  0.1404 -0.2094 -0.0041
61057W        W 3995   1.591  16.939   7.435  0.1367 -0.0993 -0.1332
61058W        W 3996   3.111  16.191   5.898 -0.1302 -0.0152  0.2356
61059W        W 3997   3.762  17.499   8.670 -0.0249  0.1289  0.1054
61060W        W 3998   3.241  17.724   7.492  0.2419 -0.1236 -0.1100
61061W        W 3999   3.741  16.987   8.680  0.0993  0.2477  0.3657
61062W        W 4000  34.317  13.138  10.322 -0.0117 -0.2556  0.1781
61063W        W 4001   1.789  17.363   8.083 -0.2072  0.2366  0.3550
61064W        W 4002   2.090  16.948   8.057 -0.0114  0.0826 -0.3715
61065W        W 4003   2.949  15.945   9.043 -0.0338  0.0068 -0.3856
61066W        W 4004   1.521  15.706   9.284  0.4270 -0.2499 -0.1831
61067W        W 4005   1.741  14.611   7.394  0.1430 -0.3654  0.0734
61068W        W 4006   1.206  18.883  10.019  0.1122  0.2368 -0.1666
61069W        W 4007   2.472  17.952   8.994  0.0741 -0.0661  0.0408
61070W        W 4008   2.362  21.602   2.138  0.0264 -0.3367 -0.0675
61071W        W 4009   0.781  20.586   1.838  0.0303 -0.0274  0.2319
61072W        W 4010   2.265  18.389   0.319 -0.1982 -0.2765 -0.3044
61073W        W 4011   3.934  20.692   0.447  0.1123  0.1274 -0.1147
61074W        W 4012   0.251  18.100   2.094  0.1391  0.2524 -0.1363
61075W        W 4013   0.501  20.738   0.106 -0.0731 -0.3703 -0.1048
61076W        W 4014   1.647  17.097   2.960 -0.0043 -0.2018 -0.0781
61077W        W 4015   1.966  19.930   0.967 -0.1067 -0.0547  0.2434
61078W        W 4016   2.488  21.228   1.326 -0.2440  0.0322 -0.0588
61079W        W 4017   2.007  22.044   0.420 -0.1766 -0.1744 -0.2655
61080W        W 4018   1.306  20.246   3.571  0.0648 -0.1315 -0.0440
61081W        W 4019   2.781  21.276   2.230  0.2905  0.1123 -0.1626
61082W        W 4020   2.875  18.102  31.934 -0.0826 -0.4198  0.1960
61083W        W 4021   0.896  18.345   1.415  0.2279  0.0482 -0.1039
61084W        W 4022   3.487  20.703   2.650  0.2198  0.2967  0.0021
61085W        W 4023   0.575  18.785   1.509 -0.2355 -0.4867 -0.0169
61086W        W 4024   1.870  19.589   3.081  0.2661  0.0434  0.0014
61087W        W 4025   2.640  20.417   1.851  0.2154 -0.0540 -0.0161
61088W        W 4026   1.235  20.884   1.688 -0.2753  0.3248 -0.2143
61089W        W 4027   0.902  19.534   3.466 -0.0331  0.0032  0.2058
61090W        W 4028   3.126  20.315   3.422  0.0506 -0.0019  0.1652
61091W        W 4029   3.130  20.874   0.839  0.0896  0.1149  0.4010
61092W        W 4030  34.663  18.345   0.333  0.0780 -0.2780 -0.4088
61093W        W 4031  34.441  21.219   2.036 -0.1794 -0.0912 -0.1591
61094W        W 4032  34.601  20.425   3.519  0.0341  0.0680 -0.1573
61095W        W 4033   2.960  19.992   3.032  0.1822  0.2577  0.0873
61096W        W 4034   3.345  20.167   0.377 -0.1060 -0.1454  0.0823
61097W        W 4035   2.738  22.644   2.537  0.1000 -0.1315  0.0095
61098W        W 4036   1.020  20.890   2.864  0.2854  0.1717  0.0867
61099W        W 4037   3.420  19.558   3.250  0.1352 -0.0044  0.2393
61100W        W 4038   0.123  21.110   0.249 -0.0492 -0.0643 -0.3432
61101W        W 4039  34.361  21.619   1.673  0.2741 -0.1039 -0.0129
61102W        W 4040   0.651  21.306   1.157 -0.0121 -0.1323 -0.0204
61103W        W 4041   5.203  20.568   0.162 -0.1519  0.2002  0.0934
61104W        W 4042   4.260  21.308   1.292  0.0223  0.2485 -0.1106
61105W        W 4043  34.688  21.818   2.597  0.1048  0.0267  0.2475
61106W        W 4044  33.557  22.031   0.411 -0.1628 -0.2997  0.2271
61107W        W 4045   1.683  21.060   3.773 -0.5569 -0.0022  0.1734
61108W        W 4046   1.483  22.630   2.401  0.1216 -0.2620 -0.0562
61109W        W 4047   3.014  21.311   4.209 -0.0942  0.1950 -0.4185
61110W        W 4048   2.435  20.708   0.927 -0.1606 -0.0468  0.0989
61111W        W 4049   2.703  21.472   0.282  0.1051 -0.0798  0.2233
61112W        W 4050   1.931  20.370   2.587 -0.1702 -0.2091  0.0673
61113W        W 4051   3.302  21.218   3.452  0.3520  0.0879 -0.2865
61114W        W 4052   0.364  21.097   3.681  0.1389  0.0109  0.2721
61115W        W 4053   2.776  18.789   3.098  0.2187 -0.0805 -0.0449
61116W        W 4054   0.921  20.421   0.259 -0.0571  0.0106 -0.3601
61117W        W 4055   1.053  18.852   1.424  0.1839  0.4712 -0.1953
61118W        W 4056   1.600  19.831   1.387  0.1097 -0.1061 -0.0403
61119W        W 4057   2.780  19.499   2.936  0.0726  0.0256  0.1151
61120W        W 4058   1.813  19.327   1.624  0.1715 -0.1264  0.0194
61121W        W 4059   0.378  22.198   0.833 -0.1228  0.1171  0.2707
61122W        W 4060   1.987  18.733   3.849 -0.2435  0.0234  0.1252
61123W        W 4061   3.732  19.833   2.742 -0.1312 -0.1000 -0.0363
61124W        W 4062   1.628  19.503   1.016  0.3192 -0.1553  0.2639
61125W        W 4063   2.560  18.612   2.324 -0.2306  0.1876 -0.2407
61126W        W 4064   1.528  22.100   2.385 -0.0796  0.1190 -0.0476
61127W        W 4065   0.629  20.757   1.093  0.1519 -0.2715  0.1209
61128W        W 4066   2.828  21.777   0.719  0.0805  0.1467 -0.2532
61129W        W 4067   5.150  21.641   2.181  0.0644  0.0349 -0.1516
61130W        W 4068   2.218  20.554   0.468 -0.1554 -0.4522 -0.2637
61131W        W 4069   0.585  19.286   1.077  0.0490  0.1246 -0.0155
61132W        W 4070   0.150  20.851   4.073 -0.0123  0.1253 -0.0884
61133W        W 4071   0.420  20.208   3.330 -0.1716 -0.0321  0.4358
61134W        W 4072   1.879  18.092   0.904 -0.1392  0.0228 -0.1278
61135W        W 4073   4.331  20.907   3.167 -0.2672  0.1433  0.0049
61136W        W 4074   1.153  21.440   3.162  0.1607 -0.2628 -0.1996
61137W        W 4075   5.037  21.066   2.213  0.0747  0.0248 -0.1917
61138W        W 4076   0.377  20.901   1.906 -0.0065  0.1250 -0.3914
61139W        W 4077   2.635  21.510   1.730 -0.0428 -0.2543 -0.1757
61140W        W 4078   3.437  21.044  31.810  0.1010 -0.0479 -0.1012
61141W        W 4079   3.101  19.186   3.337  0.2025  0.0374 -0.0524
61142W        W 4080   2.871  18.223   3.025  0.1974  0.0986 -0.0690
61143W        W 4081   1.115  21.744  30.929  0.0927  0.0920 -0.0235
61144W        W 4082   2.088  20.963   1.189  0.1107 -0.1092  0.1970
61145W        W 4083   2.660  23.100   1.771  0.0477 -0.1125 -0.3602
61146W        W 4084   2.201  19.470   0.739  0.1995  0.0992  0.2751
61147W        W 4085   0.706  20.978   1.532 -0.1603 -0.2705  0.1223
61148W        W 4086   2.169  17.715   4.473  0.1749 -0.1234  0.1481
61149W        W 4087   1.944  21.362   3.458 -0.0696  0.1554  0.1121
61150W        W 4088  34.193  22.774   1.965 -0.1599 -0.0337 -0.0088
61151W        W 4089   0.508  20.475   2.279 -0.2943 -0.3420 -0.0481
61152W        W 4090  34.571  22.303   0.830  0.0286 -0.2622  0.0435
61153W        W 4091  33.839  18.300   2.828  0.1649  0.1339 -0.0938
61154W        W 4092   1.919  21.894   2.703  0.1374  0.0310  0.1742
61155W        W 4093   3.498  19.393  31.922  0.0886  0.0939  0.2680
61156W        W 4094   0.796  18.862   4.575  0.3116 -0.2054 -0.0324
61157W        W 4095   4.305  18.539   0.287  0.1899 -0.0964 -0.1530
61158W        W 4096   1.218  21.214   2.457  0.3024  0.2617  0.0496
61159W        W 4097   1.259  21.366   1.326 -0.0248  0.4119  0.2191
61160W        W 4098   4.326  17.977  31.533  0.4394 -0.1233  0.0466
61161W        W 4099   2.967  20.761  31.894 -0.0654 -0.1238 -0.1704
61162W        W 4100  34.588  20.054   1.972  0.0649 -0.0044 -0.0330
61163W        W 4101   1.475  19.595   2.423  0.1626  0.1662  0.3140
61164W        W 4102   0.854  20.041   3.597 -0.1130  0.2449 -0.2369
61165W        W 4103  34.438  18.525   3.506 -0.3556  0.4225  0.1135
61166W        W 4104   3.235  19.668   2.736 -0.1157 -0.2060 -0.1163
61167W        W 4105   1.570  17.371   2.027  0.0567  0.0684 -0.0979
61168W        W 4106   4.188  19.915   2.225  0.1506 -0.0319 -0.1694
61169W        W 4107   1.944  20.543   0.909 -0.1792  0.4742  0.2831
61170W        W 4108   1.199  19.377   0.734 -0.3781  0.1329 -0.1835
61171W        W 4109   2.762  20.360   2.323 -0.2410  0.3899  0.3323
61172W        W 4110   1.695  21.662   1.340  0.2138 -0.2649 -0.0970
61173W        W 4111   3.899  21.037   2.896 -0.1857  0.1617 -0.0854
61174W        W 4112   2.411  22.235   1.223 -0.0603  0.1644  0.0607
61175W        W 4113   0.644  21.112   3.221 -0.1099  0.1977 -0.2682
61176W        W 4114   0.303  17.733   1.793 -0.0423 -0.0088  0.0630
61177W        W 4115   0.123  22.726   0.685  0.0897  0.1057  0.4135
61178W        W 4116   2.219  21.952   1.660  0.3196 -0.2523  0.0764
61179W        W 4117   1.522  20.184   2.319 -0.0523  0.0432  0.4218
61180W        W 4118   2.848  23.413   1.282  0.0248 -0.2107  0.0482
61181W        W 4119   1.064  20.027   1.603 -0.2750 -0.0113 -0.1095
61182W        W 4120   1.260  20.589   3.236  0.2310 -0.0429  0.1429
61183W        W 4121   3.813  17.812   2.867  0.0200 -0.0580 -0.0188
61184W        W 4122   4.098  19.419   2.443  0.4527  0.1044  0.3042
61185W        W 4123   2.476  20.792   1.562  0.0122 -0.2938  0.0877
61186W        W 4124   2.262  17.928   0.094  0.0030  0.1278 -0.2072
61187W        W 4125   2.482  21.954   0.366  0.0009  0.0932  0.0371
61188W        W 4126   1.208  21.522   0.802 -0.1253  0.3020 -0.1948
61189W        W 4127   1.315  20.105   0.500 -0.0201 -0.1032 -0.0602
61190W        W 4128   1.619  20.745   0.600  0.0476 -0.2870 -0.0634
61191W        W 4129   3.530  19.491   2.169 -0.1905  0.2128 -0.1165
61192W        W 4130  34.081  20.043   4.719 -0.0699 -0.2766  0.3949
61193W        W 4131   2.166  20.646   2.053  0.3989 -0.1844  0.3089
61194W        W 4132  34.312  19.563  30.987  0.2000 -0.0640 -0.0296
61195W        W 4133   1.109  21.017   3.449  0.2875  0.1849  0.2129
61196W        W 4134   3.789  19.088   1.812 -0.2001  0.3335 -0.0458
61197W        W 4135   3.909  19.512  31.263  0.1717  0.1892  0.1996
61198W        W 4136   2.245  19.746   2.731  0.2434  0.2673  0.2012
61199W        W 4137   2.558  20.220   0.194 -0.2351  0.0315  0.0499
61200W        W 4138   1.343  19.089   1.830  0.0054 -0.0668 -0.2096
61201W        W 4139   1.325  18.901   0.662  0.0670 -0.0124 -0.1108
61202W        W 4140   2.608  21.577   4.055  0.0240  0.2115 -0.2398
61203W        W 4141   2.547  21.744   1.299 -0.3261 -0.1086 -0.3408
61204W        W 4142   1.963  20.567   1.446 -0.0954 -0.1242  0.1333
61205W        W 4143   1.757  18.583  31.947  0.1533 -0.0917  0.0382
61206W        W 4144   3.425  19.684   0.451 -0.0473 -0.3415 -0.0127
61207W        W 4145   0.549  20.494   2.883 -0.1099 -0.1858  0.1506
61208W        W 4146   3.267  21.119   4.923 -0.1355  0.1889 -0.0470
61209W        W 4147   2.696  22.074   1.632  0.0628  0.1880 -0.3069
61210W        W 4148   3.528  18.853   3.108 -0.3058  0.0050 -0.3883
61211W        W 4149   0.755  19.195   0.599  0.0609  0.1175 -0.1231
61212W        W 4150   2.070  19.380   1.245  0.2236  0.0279  0.0478
61213W        W 4151  34.003  23.284   1.212 -0.0987 -0.1569  0.1635
61214W        W 4152   3.577  18.966   2.267 -0.1550  0.3878  0.3818
61215W        W 4153   2.496  19.561   2.339  0.2053  0.2425  0.1581
61216W        W 4154   1.325  17.014   3.864  0.1772 -0.0010 -0.1053
61217W        W 4155   3.208  18.748   3.559 -0.0209  0.2502 -0.0512
61218W        W 4156   1.518  19.448  31.303  0.1588 -0.1337  0.2280
61219W        W 4157   2.577  20.839   2.408 -0.3032  0.0781 -0.0900
61220W        W 4158  34.577  19.183  31.838 -0.0313  0.2132  0.4933
61221W        W 4159   1.170  18.594   2.740 -0.0811  0.3570 -0.0624
61222W        W 4160   2.353  19.328   3.192 -0.1649  0.0069 -0.1488
61223W        W 4161   1.065  22.231   2.714 -0.2266  0.1751  0.1111
61224W        W 4162   3.722  22.106   2.458 -0.2596  0.0691 -0.0703
61225W        W 4163   2.307  20.035   2.294  0.2554 -0.5269  0.1009
61226W        W 4164   3.530  19.998   3.508 -0.1463 -0.1159  0.0088
61227W        W 4165   2.625  19.329   1.266 -0.2995  0.1466 -0.2029
61228W        W 4166   1.591  22.227   0.666  0.1732 -0.3268  0.4707
61229W        W 4167   1.719  21.107   1.531  0.1264  0.1392  0.0081
61230W        W 4168   1.396  19.927   3.093  0.1426  0.1013 -0.1820
61231W        W 4169   4.153  22.047   1.910 -0.2501  0.0547 -0.4900
61232W        W 4170   1.785  19.717  31.603  0.3136 -0.2249  0.1052
61233W        W 4171   1.514  20.687   2.328  0.2317 -0.2417  0.0141
61234W        W 4172   1.721  22.688   1.532  0.3533 -0.2609 -0.0650
61235W        W 4173   3.256  18.662   1.179 -0.1006  0.4612  0.4026
61236W        W 4174   0.721  20.406   0.729 -0.0011  0.1057 -0.1486
61237W        W 4175   0.645  20.044   1.904  0.0954  0.2726 -0.0433
61238W        W 4176   1.385  18.857   2.315 -0.1053  0.0291 -0.0536
61239W        W 4177   3.080  19.584   0.762 -0.0574 -0.1626  0.2140
61240W        W 4178   3.569  19.070  30.502  0.2735  0.0187 -0.0705
61241W        W 4179   1.668  18.016   3.226  0.2318  0.0322 -0.0044
61242W        W 4180   1.381  19.190   1.358  0.1767  0.1233  0.0639
61243W        W 4181   0.173  22.751   2.189 -0.2454  0.2270 -0.0432
61244W        W 4182   1.776  19.962   3.439  0.2779  0.0365  0.0456
61245W        W 4183   2.779  18.421   0.399  0.1652  0.3615 -0.2132
61246W        W 4184   3.249  20.752   3.605  0.1696  0.0207 -0.3825
61247W        W 4185   2.195  21.271   2.460  0.2379  0.1958 -0.0123
61248W        W 4186   0.371  19.342   1.591 -0.2023 -0.3409 -0.0770
61249W        W 4187   3.976  20.297   2.430 -0.1826  0.3414 -0.2538
61250W        W 4188   1.692  20.649   1.865  0.0513 -0.2159  0.3800
61251W        W 4189   0.660  19.725   1.343 -0.0205 -0.1021 -0.0521
61252W        W 4190   2.792  22.616   1.097  0.3490  0.3013  0.1251
61253W        W 4191   1.628  20.352  31.714  0.1995  0.2845 -0.1480
61254W        W 4192   0.208  20.478   0.982  0.2004  0.3664 -0.0131
61255W        W 4193   1.522  20.994   2.819  0.4782  0.1585 -0.1443
61256W        W 4194   1.769  20.461   3.614  0.2856 -0.4672 -0.3620
61257W        W 4195   3.044  19.073   1.467  0.0976 -0.3046  0.2653
61258W        W 4196   2.211  20.242   1.778  0.1767 -0.2400 -0.2024
61259W        W 4197   2.501  20.306   2.740 -0.2128 -0.0363  0.1165
61260W        W 4198   1.011  20.515   1.313 -0.0194  0.1609 -0.1421
61261W        W 4199   2.001  19.242   4.522 -0.0743  0.0611 -0.1576
61262W        W 4200   0.323  21.794   4.231  0.4029  0.2395 -0.3031
61263W        W 4201   1.831  17.527   2.455  0.0828  0.0752 -0.0349
61264W        W 4202   5.153  20.784   0.776 -0.2166 -0.2382 -0.0415
61265W        W 4203   3.284  21.927   2.751  0.1763 -0.0351 -0.0277
61266W        W 4204   0.659  22.152   0.228 -0.2170  0.1192 -0.3169
61267W        W 4205   0.148  21.091   2.392  0.2078  0.0091  0.1024
61268W        W 4206   1.760  20.067   1.881 -0.0522 -0.0068  0.0995
61269W        W 4207   1.729  18.747   1.799 -0.0489 -0.3225 -0.1340
61270W        W 4208   0.245  19.872   1.639 -0.1858 -0.0826  0.2581
61271W        W 4209   0.304  20.012  31.767 -0.0101 -0.1086 -0.3884
61272W        W 4210   0.889  21.951   3.137  0.0685 -0.0400  0.1129
61273W        W 4211   2.607  19.739   0.634  0.1405 -0.1610  0.2252
61274W        W 4212   1.478  20.829   1.145 -0.1807 -0.0472 -0.1311
61275W        W 4213   2.970  19.306   2.402 -0.0588 -0.3610  0.0376
61276W        W 4214   4.180  17.978   2.571 -0.1170  0.0780 -0.1946
61277W        W 4215   2.887  20.384   0.741 -0.1013  0.1115  0.3780
61278W        W 4216   2.499  18.742   3.980  0.3123 -0.5184 -0.1636
61279W        W 4217  33.735  18.774   2.660  0.1680 -0.0340 -0.0529
61280W        W 4218   2.782  19.930   2.566 -0.4624 -0.0186 -0.1616
61281W        W 4219   0.301  19.817   2.964  0.2133  0.2905 -0.2173
61282W        W 4220   3.132  21.639   3.609 -0.0962 -0.0181 -0.1863
61283W        W 4221   1.065  20.668   4.338 -0.1357 -0.3834 -0.1750
61284W        W 4222   2.279  20.237   1.271  0.3141  0.0738 -0.1671
61285W        W 4223   0.941  18.995   0.983 -0.0550 -0.1422  0.1506
61286W        W 4224   1.358  21.877   1.709 -0.0640  0.1009 -0.3148
61287W        W 4225   3.800  21.672   2.779  0.3361  0.1760 -0.2186
61288W        W 4226   2.165  19.918   0.389 -0.1322 -0.1822  0.1559
61289W        W 4227   3.550  19.569   1.005 -0.1635  0.0328 -0.0741
61290W        W 4228   1.968  19.632   2.273 -0.2742 -0.3261  0.1010
61291W        W 4229   1.759  19.931   2.740  0.1382 -0.1346 -0.1207
61292W        W 4230   0.634  20.662  31.455 -0.4006 -0.2883 -0.0629
61293W        W 4231   0.960  20.082   1.063  0.0104 -0.0872 -0.2406
61294W        W 4232  34.146  18.214   3.219  0.1469  0.0160 -0.0561
61295W        W 4233   3.103  21.356   1.882  0.4154  0.1439 -0.2093
61296W        W 4234   3.424  20.369   3.054 -0.1162 -0.0414  0.3150
61297W        W 4235   4.017  18.827   2.206  0.2588 -0.2485 -0.0968
61298W        W 4236   2.918  18.398   2.587  0.1974 -0.1672 -0.0444
61299W        W 4237   1.674  19.215   3.819 -0.0455  0.2893 -0.4082
61300W        W 4238   1.289  18.332   2.210  0.1536  0.3039  0.4062
61301W        W 4239   2.949  22.335   2.055  0.2082 -0.1251  0.0260
61302W        W 4240   3.896  19.429   1.394  0.0957  0.0208 -0.1282
61303W        W 4241   3.890  18.871   2.713 -0.3286 -0.0367 -0.1801
61304W        W 4242   2.154  19.696   1.733 -0.0452  0.0347 -0.0034
61305W        W 4243   0.895  19.308   1.491 -0.1569 -0.0617 -0.1777
61306W        W 4244  34.571  17.607   1.511 -0.3227  0.3720 -0.1737
61307W        W 4245   3.109  20.285   4.496  0.0657 -0.1760 -0.1090
61308W        W 4246   0.452  18.492   0.591 -0.2995 -0.2079 -0.1480
61309W        W 4247   3.331  18.629   2.699 -0.1893 -0.0071  0.2370
61310W        W 4248   1.040  20.768  31.924  0.2714  0.2847 -0.0551
61311W        W 4249   2.437  22.733   3.080  0.0125  0.2493 -0.3116
61312W        W 4250   3.965  18.508   1.301  0.5117 -0.1119  0.0229
61313W        W 4251   1.181  19.910   2.638  0.1156  0.0894  0.3866
61314W        W 4252   1.755  23.570   1.305  0.2124  0.4288 -0.0593
61315W        W 4253   0.327  18.926   0.333  0.0687 -0.0608 -0.1253
61316W        W 4254   1.765  19.685   0.559  0.1458  0.3057  0.4241
61317W        W 4255   2.855  21.135   2.820 -0.0532  0.0287 -0.1699
61318W        W 4256   4.063  20.082   4.287  0.0692 -0.1151  0.0893
61319W        W 4257   2.048  16.790   1.622 -0.2937 -0.0229  0.2492
61320W        W 4258   5.186  18.322   2.963 -0.0418  0.0574 -0.2065
61321W        W 4259   0.699  20.347  31.822 -0.3582 -0.1887 -0.1107
61322W        W 4260   2.696  19.942   2.018 -0.1949 -0.1305 -0.1180
61323W        W 4261   0.580  23.166   2.290  0.2508 -0.0620  0.2534
61324W        W 4262   0.794  21.448   2.834 -0.1258 -0.1698 -0.1790
61325W        W 4263   1.222  20.423   1.959  0.2059  0.0118 -0.0865
61326W        W 4264   0.890  17.654   4.203 -0.1724  0.3122 -0.1882
61327W        W 4265   2.102  20.601   3.236  0.0368  0.1897  0.1955
61328W        W 4266   1.665  21.443   2.444  0.3174  0.3995 -0.2821
61329W        W 4267   4.100  20.430   3.437  0.3455 -0.0052 -0.2047
61330W        W 4268   1.471  21.444   3.585 -0.2997  0.3257 -0.0008
61331W        W 4269   1.165  21.268   3.914 -0.3002  0.0112  0.0417
61332W        W 4270   2.430  22.025   4.110  0.4874 -0.0698 -0.1243
61333W        W 4271   4.966  22.407   0.892 -0.0293  0.0347 -0.0321
61334W        W 4272   2.134  20.110   3.030 -0.2724 -0.1259  0.0808
61335W        W 4273   0.793  20.557   3.294 -0.1973 -0.3039 -0.1669
61336W        W 4274   2.673  20.049   3.741  0.1678  0.0565 -0.1949
61337W        W 4275   1.491  20.347   1.381 -0.2626 -0.1024  0.0093
61338W        W 4276   1.391  19.685   3.602  0.0048  0.0591  0.0853
61339W        W 4277   0.430  20.302   0.286 -0.0629  0.0890  0.3550
61340W        W 4278   1.411  22.329   1.449  0.2079 -0.0959  0.1225
61341W        W 4279   0.153  20.656   2.625 -0.0111  0.0069  0.0610
61342W        W 4280   0.736  21.704   0.842  0.2820  0.0987  0.0688
61343W        W 4281   2.510  17.982  31.488 -0.1407  0.2116  0.4259
61344W        W 4282   3.244  18.430  31.721 -0.2340  0.0872  0.0841
61345W        W 4283   3.293  22.907   2.736  0.2923  0.2213 -0.0922
61346W        W 4284   1.277  18.339   0.444 -0.2251 -0.0046 -0.2491
61347W        W 4285   0.648  22.254   2.325 -0.0113 -0.2467  0.0731
61348W        W 4286  34.212  21.921   1.201 -0.0107  0.2075  0.1026
61349W        W 4287   3.319  21.701   2.319 -0.1513  0.3001 -0.1158
61350W        W 4288   1.497  23.002   0.241 -0.1410  0.1250 -0.0580
61351W        W 4289   3.170  21.857   1.659 -0.0578  0.1234 -0.3521
61352W        W 4290   2.176  19.162   0.317 -0.0418 -0.1106 -0.4830
61353W        W 4291   4.578  19.202   1.050 -0.1129  0.2511  0.3809
61354W        W 4292   3.846  20.442  31.846 -0.0325  0.5539  0.1869
61355W        W 4293   1.587  21.513   2.966  0.0739  0.0893 -0.0303
61356W        W 4294   1.844  19.010   0.880 -0.0168 -0.1575  0.1045
61357W        W 4295   0.446  19.238   3.508  0.2691 -0.2560 -0.0416
61358W        W 4296   3.748  17.959   2.285 -0.0517 -0.1139  0.0136
61359W        W 4297  34.223  21.668   3.043 -0.1168  0.1182 -0.0835
61360W        W 4298   2.142  21.500   0.405 -0.0598 -0.2529  0.0040
61361W        W 4299  34.162  19.535   2.575 -0.2846 -0.0836  0.1483
61362W        W 4300   0.267  20.356   1.885 -0.0223  0.1514  0.2063
61363W        W 4301   2.271  18.227   2.478  0.2557 -0.2101  0.0174
61364W        W 4302   2.105  20.216   0.011 -0.2611  0.0284 -0.1834
61365W        W 4303   1.761  19.202   2.127 -0.1744  0.0351 -0.1429
61366W        W 4304   0.525  20.923   0.620  0.3342  0.1611  0.0607
61367W        W 4305   1.941  21.258   2.046 -0.3693  0.1491  0.1792
61368W        W 4306   0.065  23.337   3.119  0.1849  0.0769 -0.1331
61369W        W 4307   0.931  17.721   2.475  0.0894 -0.1234 -0.0342
61370W        W 4308   4.674  18.012   2.764  0.0176 -0.0643  0.0048
61371W        W 4309   2.304  21.678   3.580  0.2152  0.1057 -0.4461
61372W        W 4310   3.817  18.578   1.823 -0.2197 -0.1948  0.2749
61373W        W 4311   2.366  20.223   0.762  0.1202  0.1915  0.2093
61374W        W 4312   3.968  19.053   0.349 -0.0243 -0.0855  0.0931
61375W        W 4313   1.785  21.767   1.962 -0.1721 -0.0224  0.0649
61376W        W 4314   0.771  18.224   2.522 -0.1244  0.2325 -0.1886
61377W        W 4315   0.336  18.302   1.601  0.4007 -0.0206 -0.1599
61378W        W 4316   3.579  19.545   4.143 -0.2122  0.0400 -0.0410
61379W        W 4317   1.112  19.187   0.242 -0.0175  0.2645 -0.0421
61380W        W 4318   2.682  21.421   3.352 -0.0948 -0.1106  0.1710
61381W        W 4319   1.163  19.274   2.257  0.2022  0.2002 -0.0201
61382W        W 4320   2.648  19.128   0.032 -0.1581 -0.3364  0.0328
61383W        W 4321   1.224  20.439   2.758  0.0889 -0.1803 -0.0068
61384W        W 4322   2.098  19.243   2.613 -0.0957 -0.1477  0.2447
61385W        W 4323   4.556  21.530   5.157  0.0072  0.1348  0.0367
61386W        W 4324   0.175  17.177   1.532 -0.0273 -0.0851  0.0597
61387W        W 4325   3.521  20.016  31.912 -0.2213 -0.2219 -0.0820
61388W        W 4326   3.104  19.837   1.652  0.1713 -0.0073  0.1020
61389W        W 4327   1.070  22.015  31.932 -0.0127  0.2723 -0.0339
61390W        W 4328   4.589  20.467   1.488  0.1239  0.1703  0.2170
61391W        W 4329   2.147  22.491   1.751 -0.1416  0.0219  0.0947
61392W        W 4330  34.028  19.093   2.368 -0.0625  0.0878 -0.0282
61393W        W 4331   2.123  21.501   1.528 -0.1895  0.1364  0.1817
61394W        W 4332   3.006  21.490   1.333  0.2242  0.0724  0.3371
61395W        W 4333   1.508  18.657   1.355  0.0183  0.1432  0.0127
61396W        W 4334   1.668  22.231   1.873  0.2909  0.2646 -0.3673
61397W        W 4335  34.326  23.161   0.740  0.0360  0.2810 -0.2857
61398W        W 4336   4.066  19.666   0.870  0.0211 -0.1769 -0.0535
61399W        W 4337   3.144  20.284   3.992 -0.0254  0.1267 -0.1802
61400W        W 4338   2.049  21.069   0.680  0.2576 -0.1320 -0.0465
61401W        W 4339   4.230  18.846   1.617  0.0888 -0.1168  0.0392
61402W        W 4340   3.351  21.377   2.700  0.0072  0.3960 -0.0614
61403W        W 4341   1.333  21.859   3.385 -0.0132  0.1531 -0.2955
61404W        W 4342   0.420  19.590   0.701  0.2191 -0.2360  0.1852
61405W        W 4343   1.652  20.959   3.302 -0.1579  0.0463  0.0858
61406W        W 4344   0.926  21.518   1.663  0.1889  0.1300  0.2987
61407W        W 4345   2.349  21.863   0.810 -0.0180 -0.1853 -0.0687
61408W        W 4346   2.543  24.266   1.486 -0.2365 -0.1195  0.0999
61409W        W 4347   3.074  21.154   0.230 -0.2889  0.0221  0.1942
61410W        W 4348   4.837  22.095   1.309  0.2069  0.0087  0.0227
61411W        W 4349   0.967  20.689   2.357  0.0506 -0.1370 -0.0555
61412W        W 4350   3.675  18.152   0.507 -0.3346 -0.2363  0.1883
61413W        W 4351   2.836  19.415   1.869  0.0166  0.0832 -0.0038
61414W        W 4352   1.432  20.291   4.087  0.0535 -0.0408  0.0145
61415W        W 4353  34.690  19.251  31.340 -0.0453  0.0418 -0.0783
61416W        W 4354   1.410  20.509   0.185 -0.3191 -0.1439  0.0379
61417W        W 4355   1.956  20.842   2.517 -0.2719  0.1559 -0.2971
61418W        W 4356   3.295  18.425   3.183 -0.0463 -0.1874 -0.2812
61419W        W 4357   0.762  19.565   2.901 -0.0196  0.0316  0.1115
61420W        W 4358   0.260  20.713   3.267  0.2788  0.0475  0.3253
61421W        W 4359   0.420  18.907   0.816 -0.2048  0.0427 -0.0406
61422W        W 4360   3.862  20.227   0.356 -0.0824 -0.1071 -0.2456
61423W        W 4361  34.482  19.084   2.176 -0.2312  0.2299  0.2095
61424W        W 4362   0.806  18.461   1.903  0.1578  0.1990 -0.3346
61425W        W 4363   2.563  21.213   0.721 -0.0213  0.0988 -0.4817
61426W        W 4364   3.702  20.447   1.135 -0.2709 -0.2814  0.2111
61427W        W 4365   4.301  18.326   1.654 -0.1151  0.0325 -0.2097
61428W        W 4366   2.471  21.441   2.891  0.2058  0.0554 -0.2125
61429W        W 4367   0.252  20.981  31.664 -0.3054  0.0022 -0.0098
61430W        W 4368   2.468  19.265   4.482  0.0722 -0.1671 -0.3181
61431W        W 4369   2.212  19.051   3.581  0.0720 -0.0650  0.1804
61432W        W 4370   0.784  20.161   2.524 -0.0124 -0.1149 -0.3922
61433W        W 4371   2.214  18.783   4.367  0.2166  0.0411  0.1731
61434W        W 4372   1.637  21.697   0.502 -0.0547  0.0480 -0.2578
61435W        W 4373   1.892  20.731   0.064 -0.0362  0.0966 -0.2926
61436W        W 4374   1.957  21.784   3.972 -0.0633 -0.0126 -0.0875
61437W        W 4375   1.998  21.053   4.453  0.1628 -0.0414 -0.0855
61438W        W 4376   0.366  18.220   3.620  0.0681 -0.2454  0.2059
61439W        W 4377   4.716  17.553   0.577  0.1676  0.0182 -0.0924
61440W        W 4378   1.556  22.028   3.871  0.2073 -0.2748  0.2561
61441W        W 4379   2.703  20.752   0.435 -0.3173  0.1725 -0.2393
61442W        W 4380   4.317  18.759   1.074 -0.0942 -0.0444 -0.0487
61443W        W 4381   2.830  19.936   1.017 -0.2214  0.1187 -0.4545
61444W        W 4382   1.148  17.552   3.698  0.3598  0.1237 -0.0882
61445W        W 4383  34.561  20.958   3.505 -0.1722  0.0726 -0.2024
61446W        W 4384   2.999  20.792   2.197  0.1389 -0.0821 -0.1118
61447W        W 4385   1.671  20.363   3.086  0.1790 -0.3359  0.1442
61448W        W 4386   3.488  20.528   0.693  0.0613 -0.2904  0.0852
61449W        W 4387   2.816  20.951   1.176  0.0293 -0.1516  0.0183
61450W        W 4388   0.801  19.566   1.989  0.1444 -0.1451  0.0747
61451W        W 4389   2.570  19.039   2.680 -0.0027 -0.2459  0.2274
61452W        W 4390   1.280  20.185   4.942  0.0463  0.1641 -0.1111
61453W        W 4391   2.938  22.855   2.117 -0.1659 -0.1095  0.1149
61454W        W 4392   3.773  21.267   3.457  0.0700  0.3861 -0.2050
61455W        W 4393   0.911  21.141   1.990  0.0974  0.0373  0.0692
61456W        W 4394   4.206  19.563   0.010  0.2682  0.0357 -0.1659
61457W        W 4395   2.961  20.577   2.817 -0.0260  0.1198 -0.0995
61458W        W 4396   3.446  21.255   4.466  0.2282  0.0311 -0.0380
61459W        W 4397   2.479  21.862   2.572 -0.1735 -0.0281 -0.1912
61460W        W 4398   0.983  19.091   2.723  0.0279 -0.1011  0.0826
61461W        W 4399  34.447  18.322   2.141 -0.4495  0.1915  0.0048
61462W        W 4400   1.018  19.647  31.218  0.0985 -0.0721  0.1200
61463W        W 4401   2.452  21.062   1.944  0.1149  0.4557  0.0830
61464W        W 4402   3.617  19.333   2.635  0.0794  0.0486 -0.1031
61465W        W 4403   0.849  20.079   3.048  0.0040  0.3013 -0.0708
61466W        W 4404   2.362  20.902   2.847 -0.0285 -0.2649 -0.1517
61467W        W 4405   1.437  23.349   3.341  0.2070  0.1754  0.0661
61468W        W 4406   3.646  22.709   1.559  0.0912  0.0181  0.0493
61469W        W 4407   1.037  21.089   6.246  0.0240 -0.2215 -0.5165
61470W        W 4408   0.833  20.509   4.732  0.1846 -0.2581  0.0584
61471W        W 4409   2.899  19.656   3.477  0.0697 -0.1703  0.0278
61472W        W 4410   3.863  19.081   4.151  0.0658 -0.0070  0.1147
61473W        W 4411   1.131  18.403   4.802 -0.1519 -0.1407 -0.0229
61474W        W 4412   3.059  21.573   5.247 -0.2211  0.1342 -0.1422
61475W        W 4413   2.458  18.121   5.872 -0.2266 -0.1055  0.0752
61476W        W 4414   2.655  20.236   5.937 -0.0380 -0.3055 -0.1658
61477W        W 4415   3.915  21.450   5.370  0.2061 -0.3120  0.1302
61478W        W 4416   2.342  21.024   3.449  0.0216  0.1289  0.0686
61479W        W 4417   2.147  20.386   5.817  0.0147 -0.1971  0.0300
61480W        W 4418   1.868  21.791   6.296 -0.0503  0.2435  0.1893
61481W        W 4419   2.751  17.769   3.245 -0.1883  0.0143  0.0443
61482W        W 4420  34.363  19.653   6.824 -0.2492 -0.0801  0.0136
61483W        W 4421   3.220  20.295   7.281 -0.0372 -0.0601 -0.3001
61484W        W 4422   1.954  19.573   5.814 -0.2350 -0.1649 -0.0274
61485W        W 4423   1.326  18.984   5.891  0.1123 -0.1326 -0.2605
61486W        W 4424   1.597  18.302   3.876  0.1275  0.1709  0.0126
61487W        W 4425   2.583  20.800   5.749 -0.1004  0.0176  0.1414
61488W        W 4426   3.005  18.733   5.149  0.3164 -0.0860  0.0985
61489W        W 4427   3.027  19.338   5.324 -0.0909 -0.1944  0.2361
61490W        W 4428   1.480  21.048   4.225  0.2214 -0.1308 -0.2759
61491W        W 4429   0.029  21.135   4.499 -0.3091 -0.0858  0.1286
61492W        W 4430  34.488  19.861   5.928 -0.1758  0.0682  0.0528
61493W        W 4431   0.968  19.708   5.741  0.0767  0.0155 -0.2327
61494W        W 4432   3.586  18.822   5.034  0.0561  0.4512 -0.3560
61495W        W 4433   3.756  20.010   5.756  0.0908 -0.0210 -0.0686
61496W        W 4434   0.479  21.334   6.554  0.0943 -0.1119 -0.4190
61497W        W 4435   2.230  22.046   5.481  0.0187  0.0216  0.1230
61498W        W 4436   3.367  19.775   6.723 -0.5412 -0.2350  0.0006
61499W        W 4437  34.428  20.496   5.367  0.2862 -0.2764  0.3039
61500W        W 4438  33.275  21.236   6.018 -0.0659 -0.0651  0.0091
61501W        W 4439   1.025  21.219   4.360  0.2111 -0.0727 -0.0347
61502W        W 4440   3.668  21.418   5.833 -0.1207  0.1044 -0.5193
61503W        W 4441   4.141  22.252   7.442 -0.2002  0.2111 -0.0353
61504W        W 4442   0.190  20.851   8.142 -0.1060 -0.1978 -0.0158
61505W        W 4443   0.586  20.852   4.322 -0.2009  0.1694 -0.3827
61506W        W 4444   1.169  21.969   6.953 -0.1228  0.0675 -0.1383
61507W        W 4445   1.499  21.601   7.654 -0.2484 -0.0337 -0.2369
61508W        W 4446   1.693  19.837   6.538  0.1576  0.3816 -0.0218
61509W        W 4447   2.620  20.550   3.773  0.1001 -0.2652  0.1031
61510W        W 4448   1.916  21.815   5.204 -0.3687  0.0028 -0.2791
61511W        W 4449   1.524  21.570   4.107  0.0228  0.0142 -0.1874
61512W        W 4450   1.314  20.439   7.256 -0.3807  0.1573 -0.2736
61513W        W 4451  34.438  19.770   5.386  0.0307 -0.2569 -0.1166
61514W        W 4452   4.091  17.521   7.303 -0.0182 -0.1823 -0.0370
61515W        W 4453   0.800  20.860   3.810  0.1659 -0.0349  0.2768
61516W        W 4454   1.952  19.563   3.655  0.2765 -0.1905 -0.1496
61517W        W 4455   1.948  20.195   4.435  0.0375 -0.1588 -0.1719
61518W        W 4456   2.416  18.132   3.287 -0.0046  0.0541  0.1145
61519W        W 4457   3.115  18.209   5.332  0.0433 -0.0301 -0.0982
61520W        W 4458   1.408  22.451   6.283  0.3410  0.0329 -0.0880
61521W        W 4459  34.353  17.842   6.405  0.2176 -0.1534  0.1073
61522W        W 4460   3.106  20.546   6.247  0.1024  0.1729 -0.1518
61523W        W 4461   2.299  20.188   4.091 -0.2271 -0.0463  0.0222
61524W        W 4462   2.464  18.391   5.111  0.0002 -0.0968 -0.0904
61525W        W 4463   0.391  21.324   5.990  0.0276  0.0004  0.0665
61526W        W 4464   0.334  20.364   5.017 -0.3193  0.1826  0.2008
61527W        W 4465   3.472  20.108   4.848  0.2140 -0.1891 -0.0546
61528W        W 4466   4.123  21.273   7.008  0.2193 -0.2603 -0.2694
61529W        W 4467   1.975  21.237   2.906 -0.0257 -0.3788 -0.0212
61530W        W 4468   1.057  19.587   4.346 -0.0200  0.1493 -0.2459
61531W        W 4469   0.813  20.257   7.393  0.0108 -0.0115 -0.4031
61532W        W 4470   1.579  20.332   6.731 -0.0414 -0.4180  0.1047
61533W        W 4471   1.389  18.854   3.067 -0.0430  0.0021  0.1588
61534W        W 4472   3.888  21.227   7.437  0.3485  0.1605  0.1220
61535W        W 4473  34.677  21.894   7.887  0.0634 -0.1309  0.2668
61536W        W 4474   3.082  17.654   4.495  0.3160 -0.1058  0.1132
61537W        W 4475   1.403  20.062   5.432  0.0597 -0.2412 -0.2679
61538W        W 4476   3.369  21.476   6.296  0.1460 -0.0196  0.1898
61539W        W 4477   3.041  20.779   4.117  0.0071 -0.0796 -0.2139
61540W        W 4478   1.162  19.327   3.960 -0.4829 -0.1195 -0.4006
61541W        W 4479   3.485  18.001   5.778  0.2929  0.2037 -0.1217
61542W        W 4480   1.513  19.885   4.545  0.2010  0.1907  0.0686
61543W        W 4481   1.736  20.845   4.842  0.4412  0.2320  0.2066
61544W        W 4482   2.700  22.224   6.522 -0.1114 -0.1993  0.1441
61545W        W 4483   3.298  18.963   4.235 -0.3934 -0.1301  0.1166
61546W        W 4484   0.682  20.347   6.558  0.0035  0.0474 -0.1212
61547W        W 4485   2.671  18.979   6.098  0.0333  0.1188 -0.0785
61548W        W 4486   1.534  20.581   5.896 -0.0860  0.1023  0.0625
61549W        W 4487   0.802  22.058   3.626 -0.0797  0.2135  0.0279
61550W        W 4488   0.028  20.619   5.780  0.1784 -0.2011 -0.2112
61551W        W 4489   1.323  20.736   3.860 -0.2225  0.0872 -0.0844
61552W        W 4490   1.450  17.406   6.327 -0.0916 -0.2044 -0.5050
61553W        W 4491   1.476  21.548   5.796 -0.2615 -0.1795 -0.1762
61554W        W 4492   3.793  18.485   3.473  0.0243 -0.0680  0.0484
61555W        W 4493   2.359  18.368   7.034 -0.1744 -0.0363 -0.1101
61556W        W 4494   3.921  19.180   3.183  0.1286  0.1228  0.0414
61557W        W 4495   1.834  19.176   5.011 -0.0459 -0.0132  0.0986
61558W        W 4496   4.048  21.079   6.066  0.2609  0.2698  0.2843
61559W        W 4497   3.729  18.460   2.409  0.0981 -0.2626  0.4324
61560W        W 4498   2.778  20.870   3.274 -0.3244  0.3158 -0.0367
61561W        W 4499   0.776  18.952   7.843  0.2170 -0.2469  0.0560
61562W        W 4500   1.533  18.718   5.087  0.5164  0.0270  0.3907
61563W        W 4501   0.819  18.675   7.451 -0.1736  0.2364 -0.1426
61564W        W 4502   0.402  18.156   6.797  0.0967 -0.1299 -0.0907
61565W        W 4503   2.705  21.253   6.775  0.0213  0.1569  0.3066
61566W        W 4504   0.163  19.210   4.070  0.0907  0.0541 -0.3210
61567W        W 4505   3.618  19.272   4.585 -0.1662 -0.4301  0.0055
61568W        W 4506   2.257  20.984   5.005 -0.1662  0.1221  0.1795
61569W        W 4507  34.672  21.259   5.098  0.1863  0.0016  0.2169
61570W        W 4508   2.529  19.092   5.287 -0.0067  0.0735  0.2878
61571W        W 4509   1.303  21.023   4.705  0.3314 -0.2721 -0.1632
61572W        W 4510   3.650  21.248   6.899  0.1423  0.1620  0.0083
61573W        W 4511   2.718  21.922   6.158  0.2823 -0.0336 -0.0562
61574W        W 4512   1.527  18.665   6.861  0.0511 -0.1501  0.1154
61575W        W 4513   1.178  18.051   4.070  0.2553  0.1356  0.0765
61576W        W 4514   0.863  22.622   4.845 -0.0139  0.0960 -0.2119
61577W        W 4515   2.271  21.763   5.923  0.2477 -0.5120 -0.0027
61578W        W 4516   2.669  17.804   4.320 -0.0683  0.1734 -0.0646
61579W        W 4517   5.622  21.440   6.593  0.0202 -0.0953 -0.0442
61580W        W 4518   2.152  19.201   4.045  0.0034  0.0843 -0.1297
61581W        W 4519   0.421  20.418   7.032 -0.0396 -0.2750 -0.0790
61582W        W 4520   3.220  18.425   6.609  0.1378 -0.4655 -0.1273
61583W        W 4521   2.180  19.945   6.118 -0.0524 -0.1742  0.0795
61584W        W 4522   1.036  19.754   4.783  0.0386  0.1483 -0.1911
61585W        W 4523   0.411  20.413   4.478  0.2167  0.1369 -0.0852
61586W        W 4524   2.785  22.306   4.593  0.2485  0.1111  0.3710
61587W        W 4525  34.495  22.381   2.971  0.1078  0.0092  0.1257
61588W        W 4526   0.513  19.471   6.084 -0.0607  0.0682 -0.0051
61589W        W 4527   1.228  21.653   4.547 -0.1352  0.0826  0.3859
61590W        W 4528   2.284  18.943   4.901 -0.0390  0.0791 -0.2464
61591W        W 4529   0.926  20.801   7.613  0.0299 -0.0781 -0.0242
61592W        W 4530   2.198  20.712   5.433  0.2121  0.3017  0.0596
61593W        W 4531   1.830  20.612   4.166  0.1516 -0.0980 -0.0577
61594W        W 4532   1.137  20.047   6.608  0.0465  0.0311 -0.0772
61595W        W 4533   3.027  18.640   3.993  0.2761 -0.1525  0.0452
61596W        W 4534   3.156  19.672   4.967 -0.1097  0.2530  0.0134
61597W        W 4535   2.204  20.822   6.137  0.4439  0.2842 -0.1138
61598W        W 4536   3.698  20.441   4.572  0.1913 -0.1133  0.1411
61599W        W 4537   3.768  18.392   2.923  0.3204 -0.0853 -0.0896
61600W        W 4538   2.123  18.750   2.456 -0.3008  0.1420  0.0401
61601W        W 4539   1.491  19.975   7.796  0.3507  0.0314 -0.0011
61602W        W 4540   1.941  21.889   4.726 -0.0068 -0.2675 -0.0284
61603W        W 4541   1.006  20.856   5.588  0.2317  0.1020 -0.1490
61604W        W 4542   2.137  18.893   3.070 -0.0920  0.0963 -0.1621
61605W        W 4543   3.959  20.846   4.155  0.1778  0.0649 -0.0243
61606W        W 4544   0.368  21.292   7.132  0.1183 -0.2194  0.3413
61607W        W 4545   1.660  21.931   7.349 -0.1255 -0.0103 -0.1376
61608W        W 4546   2.672  21.306   5.026  0.2488  0.1497  0.1432
61609W        W 4547   1.554  19.100   5.455 -0.1351 -0.1860 -0.2694
61610W        W 4548   2.671  20.315   3.252 -0.0231 -0.1830 -0.2827
61611W        W 4549   1.832  17.568   5.965 -0.0445  0.1435 -0.1824
61612W        W 4550  34.311  22.491   4.329  0.0250 -0.0143 -0.2186
61613W        W 4551   3.318  18.363   4.884  0.0315 -0.0089 -0.1000
61614W        W 4552   3.156  18.535   4.435 -0.1069 -0.2214  0.3502
61615W        W 4553   2.123  18.200   6.313 -0.1390  0.0553 -0.0805
61616W        W 4554   2.851  20.695   6.704 -0.0888 -0.1690 -0.1326
61617W        W 4555   2.459  19.878   3.268 -0.1859  0.0574 -0.3916
61618W        W 4556   3.000  21.009   5.951  0.1327  0.4119 -0.2532
61619W        W 4557   0.611  19.998   4.216 -0.1539 -0.1632 -0.3135
61620W        W 4558   2.144  19.584   5.353 -0.0513 -0.2724 -0.1931
61621W        W 4559   2.125  20.137   7.529 -0.0085 -0.0263  0.2200
61622W        W 4560   0.500  21.831   6.318  0.2289 -0.1614  0.1133
61623W        W 4561   2.432  20.404   6.872  0.0259 -0.1383 -0.0768
61624W        W 4562   3.448  19.765   5.357 -0.0119  0.2056  0.1148
61625W        W 4563   2.829  19.302   4.873 -0.0786 -0.0232 -0.3677
61626W        W 4564   3.087  18.088   4.196 -0.0108 -0.3852 -0.1723
61627W        W 4565   0.608  22.199   4.214  0.0798 -0.1400  0.0275
61628W        W 4566   2.296  20.587   4.484 -0.0448 -0.1542  0.0864
61629W        W 4567   2.222  17.305   6.240  0.1979  0.0598  0.2516
61630W        W 4568   2.105  21.958   7.072 -0.4055 -0.3694 -0.0317
61631W        W 4569   1.336  18.709   3.812 -0.1438 -0.1311  0.0587
61632W        W 4570   2.696  21.764   6.687  0.0591 -0.0667 -0.0733
61633W        W 4571   0.482  21.623   3.128  0.1811  0.0583 -0.1458
61634W        W 4572   2.946  17.570   4.003  0.1621 -0.1705  0.1384
61635W        W 4573  34.675  21.690   5.973  0.1632  0.0317 -0.3039
61636W        W 4574   1.405  18.522   4.296  0.0638 -0.2393  0.1586
61637W        W 4575   0.947  18.498   4.047 -0.0151 -0.2227 -0.3300
61638W        W 4576   2.504  19.435   3.719  0.0752  0.0722  0.0777
61639W        W 4577   2.691  20.489   4.248 -0.0573 -0.2402  0.0390
61640W        W 4578   0.524  18.854   6.134 -0.2072 -0.2909 -0.0824
61641W        W 4579   1.442  16.811   6.488  0.0386 -0.2160  0.0500
61642W        W 4580   0.474  20.442   5.557  0.2194 -0.0409 -0.0487
61643W        W 4581   2.449  20.458   6.342  0.3248  0.2835  0.2669
61644W        W 4582   1.629  18.514   3.373  0.2764  0.2865 -0.4143
61645W        W 4583   2.536  21.261   5.936 -0.0116 -0.1504 -0.4411
61646W        W 4584   3.074  19.886   6.021  0.0191 -0.0618 -0.0972
61647W        W 4585   1.134  18.947   4.229  0.1313  0.2571  0.1991
61648W        W 4586   3.887  19.282   6.347  0.1008 -0.0610  0.1545
61649W        W 4587   1.665  18.299   4.706  0.1551 -0.2857 -0.0231
61650W        W 4588  34.184  21.544   4.890  0.2029  0.2332  0.0067
61651W        W 4589   3.147  21.647   5.888 -0.1156 -0.0301  0.3831
61652W        W 4590   0.536  19.979   5.568 -0.1919  0.0816 -0.1380
61653W        W 4591   0.827  21.473   4.838  0.0440 -0.1075  0.0769
61654W        W 4592   2.565  18.704   6.720  0.2969  0.0589  0.3335
61655W        W 4593   2.313  22.568   6.091  0.1438 -0.1594  0.1408
61656W        W 4594   2.695  18.347   4.355  0.0340  0.0832 -0.0595
61657W        W 4595   0.405  17.628   5.199 -0.2074 -0.0147 -0.2948
61658W        W 4596   2.249  19.233   6.078 -0.1001  0.1827 -0.2968
61659W        W 4597   3.622  20.718   6.301  0.0230 -0.3013 -0.0178
61660W        W 4598   2.323  18.888   5.744  0.1370  0.0652 -0.1539
61661W        W 4599   0.503  19.967   7.832 -0.1122 -0.0387  0.1150
61662W        W 4600   1.865  16.140   4.688 -0.2154  0.0998  0.2198
61663W        W 4601   2.411  21.162   5.463  0.1813 -0.0339 -0.1119
61664W        W 4602   2.943  20.243   5.178 -0.4283  0.0206  0.0616
61665W        W 4603   0.512  19.529   4.567  0.1320  0.0454  0.2330
61666W        W 4604  34.081  20.133   6.334 -0.0609 -0.0527  0.3703
61667W        W 4605   0.814  19.672   6.479 -0.0087 -0.0376  0.1058
61668W        W 4606   2.284  19.449   4.878  0.1262 -0.1480 -0.0230
61669W        W 4607   1.023  21.917   5.717  0.1803 -0.2493  0.2392
61670W        W 4608   1.602  20.584   5.355  0.0215 -0.0085 -0.0494
61671W        W 4609   0.636  20.892   7.185  0.0855 -0.3324 -0.1238
61672W        W 4610   4.497  17.432   3.422  0.2682 -0.1496 -0.1629
61673W        W 4611   2.851  21.453   6.305 -0.1995  0.5596  0.2516
61674W        W 4612   3.090  19.552   4.434 -0.1856 -0.0193 -0.0602
61675W        W 4613   4.630  19.173   5.664  0.2809  0.0346 -0.0109
61676W        W 4614   2.114  21.297   3.949 -0.0551  0.0071  0.0094
61677W        W 4615   2.472  19.849   5.675  0.5365 -0.0334 -0.1096
61678W        W 4616   0.103  17.328   6.496  0.1218  0.2330 -0.0633
61679W        W 4617   3.896  21.438   4.501  0.0593  0.1134 -0.1234
61680W        W 4618   0.535  18.935   5.367  0.2033  0.2128 -0.1018
61681W        W 4619   1.169  20.927   7.179  0.2768 -0.0102  0.0094
61682W        W 4620   0.891  20.529   7.003 -0.1164  0.4280 -0.2541
61683W        W 4621   2.285  18.077   4.036  0.0181 -0.3024  0.3096
61684W        W 4622   1.458  16.968   4.359 -0.0847 -0.0399 -0.1978
61685W        W 4623   0.755  19.984   6.121 -0.1151  0.2615 -0.0510
61686W        W 4624   4.856  20.817   6.485  0.0837  0.1334  0.1797
61687W        W 4625   3.395  21.554   4.085 -0.1058  0.1115 -0.4405
61688W        W 4626   3.678  18.999   5.911  0.0020 -0.0081 -0.2280
61689W        W 4627   0.249  20.036   5.953  0.2479 -0.0639 -0.1891
61690W        W 4628   2.584  19.716   5.180  0.2264  0.0634 -0.0461
61691W        W 4629   2.209  20.152   3.594  0.2071  0.2224 -0.0031
61692W        W 4630   0.107  19.561   6.351  0.1858  0.0837  0.1559
61693W        W 4631   1.077  18.551   7.892 -0.2704  0.1244  0.0464
61694W        W 4632   4.068  21.861   5.130  0.1142  0.1403  0.2051
61695W        W 4633   1.798  18.773   4.683  0.2718 -0.2198  0.0057
61696W        W 4634   3.431  17.904   4.918 -0.1590  0.3107 -0.0581
61697W        W 4635   5.029  20.000   6.104  0.1632 -0.0483  0.1552
61698W        W 4636   1.592  18.642   5.671  0.0353  0.0320  0.0447
61699W        W 4637   1.053  18.526   7.017  0.1330 -0.1152 -0.0705
61700W        W 4638   3.208  21.959   6.426  0.3393 -0.1327  0.1305
61701W        W 4639   2.691  19.771   4.670  0.3767 -0.1751 -0.2531
61702W        W 4640   4.335  19.961   6.305 -0.1792  0.1664  0.1500
61703W        W 4641   4.444  18.297   4.770 -0.2097 -0.2519  0.4171
61704W        W 4642   2.555  21.037   4.071 -0.1352  0.0562 -0.1721
61705W        W 4643   0.787  19.147   5.809 -0.0545  0.1031 -0.2321
61706W        W 4644   2.077  20.122   6.703  0.4636  0.0848  0.2501
61707W        W 4645   1.228  17.352   4.603  0.2231 -0.0874  0.1291
61708W        W 4646   1.997  19.674   7.032  0.2260 -0.0247  0.0510
61709W        W 4647   0.848  21.537   3.586  0.3294  0.0883  0.1538
61710W        W 4648   3.466  20.998   5.929 -0.1241 -0.2624  0.0757
61711W        W 4649   1.770  19.650   4.901  0.1263  0.1390  0.0098
61712W        W 4650   0.283  19.105   5.786  0.0708  0.1720  0.0913
61713W        W 4651   1.110  20.199   5.831 -0.2726  0.0853  0.2893
61714W        W 4652   0.472  19.733   3.431 -0.1588 -0.1727  0.2633
61715W        W 4653   1.424  19.480   5.818  0.1604  0.0106 -0.1081
61716W        W 4654   1.693  20.013   5.795 -0.0948 -0.0654  0.1148
61717W        W 4655   2.949  20.682   7.311 -0.2352 -0.3731  0.1788
61718W        W 4656   2.797  18.926   4.329 -0.2575  0.0812 -0.0825
61719W        W 4657   3.644  18.985   6.657  0.1765 -0.0434  0.2774
61720W        W 4658  34.312  20.972   5.301  0.3273 -0.2232  0.0300
61721W        W 4659   1.337  19.268   4.975 -0.0163  0.0290 -0.3374
61722W        W 4660   1.214  20.679   6.609  0.2484  0.0062 -0.0954
61723W        W 4661   0.256  20.086   8.349 -0.3465  0.0201  0.0933
61724W        W 4662   1.310  21.437   4.969 -0.3577  0.0634  0.0066
61725W        W 4663   2.990  18.570   6.122  0.4070  0.0160 -0.2792
61726W        W 4664   3.381  18.938   5.493  0.0360  0.1792 -0.1257
61727W        W 4665   1.444  20.486   4.600 -0.1594 -0.0524  0.2717
61728W        W 4666   2.987  19.771   5.545 -0.0375  0.0121  0.0358
61729W        W 4667   2.511  22.298   7.041 -0.1935  0.1742 -0.0993
61730W        W 4668   1.038  19.250   5.431 -0.0520  0.0792 -0.0435
61731W        W 4669   1.867  21.542   7.086 -0.2167 -0.0620  0.3681
61732W        W 4670   4.353  21.267   5.630  0.0616 -0.0427  0.3007
61733W        W 4671   0.441  21.257   5.093  0.1200 -0.0002 -0.1992
61734W        W 4672   0.908  19.478   6.994 -0.1221  0.0986  0.0589
61735W        W 4673   1.960  20.096   5.358  0.1999  0.0568 -0.2067
61736W        W 4674   2.689  20.779   5.199  0.2380 -0.0039  0.0103
61737W        W 4675   0.155  18.152   5.814  0.0842  0.0990 -0.2081
61738W        W 4676   1.796  21.876   3.476  0.0931  0.0721  0.2285
61739W        W 4677   0.758  20.094   8.274  0.1987 -0.1535  0.0483
61740W        W 4678   0.452  20.684   7.633 -0.0124 -0.1427 -0.1773
61741W        W 4679   1.094  21.766   3.927  0.1884  0.0873  0.1984
61742W        W 4680   2.694  20.961   6.338  0.2566 -0.1344  0.0177
61743W        W 4681   1.767  20.297   4.920 -0.3121 -0.1100 -0.0254
61744W        W 4682   2.082  22.235   7.543 -0.4143  0.2294  0.1139
61745W        W 4683   0.634  19.999   4.951  0.0204 -0.0657  0.1070
61746W        W 4684   0.714  21.611   5.380 -0.1706 -0.0384  0.1006
61747W        W 4685   0.048  22.364   3.457  0.2095 -0.0312  0.2877
61748W        W 4686   3.411  20.830   5.363 -0.0217  0.1747  0.2272
61749W        W 4687   0.416  22.822   6.031 -0.0697 -0.1181 -0.0242
61750W        W 4688   3.089  21.568   7.677 -0.0656  0.1751  0.0502
61751W        W 4689   2.800  18.447   3.480 -0.1840 -0.0031 -0.1739
61752W        W 4690   2.909  21.165   5.491 -0.0515 -0.1490 -0.0665
61753W        W 4691   5.534  18.180   5.398  0.0266  0.0976 -0.1653
61754W        W 4692   3.482  22.376   6.947  0.1846  0.0149  0.0045
61755W        W 4693   1.632  19.365   6.310 -0.0794 -0.4096  0.2943
61756W        W 4694   1.835  18.444   2.176 -0.0805  0.1195 -0.0742
61757W        W 4695   1.701  19.212   7.789 -0.0662 -0.3972  0.2847
61758W        W 4696   4.437  18.071   7.027  0.0697 -0.0394 -0.0377
61759W        W 4697  34.395  21.067   8.045  0.1581  0.0765  0.1766
61760W        W 4698   2.286  22.208   4.539 -0.0058 -0.0779  0.0937
61761W        W 4699   0.515  18.612   4.214 -0.2798 -0.0569 -0.2670
61762W        W 4700   1.077  19.319   6.193  0.1545 -0.1843 -0.1982
61763W        W 4701   4.150  17.798   4.650 -0.3595  0.1502 -0.0393
61764W        W 4702   1.143  19.897   4.012 -0.0946 -0.1865 -0.0549
61765W        W 4703   2.094  19.740   4.433  0.2833  0.0637  0.1719
61766W        W 4704   2.077  22.332   5.102  0.1323  0.0702 -0.1426
61767W        W 4705   0.851  21.327   5.715 -0.1090  0.0193 -0.0698
61768W        W 4706   0.935  21.201   5.237  0.3751  0.1938  0.0010
61769W        W 4707   0.811  18.161   4.417  0.2474 -0.0355 -0.4642
61770W        W 4708   4.268  19.758   5.534 -0.0062 -0.1218  0.1306
61771W        W 4709   1.344  19.004   6.545 -0.0009 -0.3146 -0.2011
61772W        W 4710   4.168  17.831   6.344  0.1735 -0.1800  0.0781
61773W        W 4711   1.642  18.960   4.243  0.0595  0.0969 -0.0384
61774W        W 4712   4.583  18.312   3.471 -0.0052 -0.0409  0.2345
61775W        W 4713   2.307  20.922   6.636  0.0408 -0.1057 -0.1413
61776W        W 4714   1.580  19.564   5.332 -0.0996 -0.1376  0.3493
61777W        W 4715   1.687  19.638   4.077  0.1903 -0.2304 -0.0096
61778W        W 4716   3.318  20.233   6.563  0.2299  0.1012 -0.1975
61779W        W 4717   1.257  19.470   3.101 -0.0120 -0.1647 -0.0620
61780W        W 4718   2.408  22.613   7.436 -0.2773  0.0448  0.1142
61781W        W 4719  34.657  18.533   5.477  0.0128  0.0990  0.1433
61782W        W 4720   3.470  19.262   5.154  0.2334  0.0187 -0.0199
61783W        W 4721   1.194  19.057   7.032 -0.0539 -0.3078  0.1286
61784W        W 4722   2.214  20.494   4.965  0.0057  0.3434  0.0914
61785W        W 4723   2.962  22.552   7.037 -0.0342 -0.0391 -0.1723
61786W        W 4724  34.469  18.273   6.156 -0.2556 -0.0267 -0.0020
61787W        W 4725   3.998  20.876   3.664 -0.1122  0.0337 -0.0769
61788W        W 4726   4.658  19.101   6.628  0.0237 -0.1571 -0.0442
61789W        W 4727   0.894  21.989   4.791  0.0264 -0.3196 -0.0698
61790W        W 4728   4.517  21.372   6.210  0.0248 -0.0376  0.3808
61791W        W 4729   2.268  22.157   6.337  0.3489  0.2303  0.0394
61792W        W 4730   1.270  18.998   7.621 -0.1747  0.1776 -0.0166
61793W        W 4731   2.696  22.250   5.711  0.1216 -0.0162 -0.1740
61794W        W 4732   5.372  21.070   5.728 -0.3606  0.0288 -0.1468
61795W        W 4733   1.887  18.395   4.200  0.1650  0.2620 -0.0527
61796W        W 4734   1.450  20.255   6.255 -0.0978 -0.2190 -0.5039
61797W        W 4735   0.132  20.835   5.349 -0.0681  0.2243 -0.1325
61798W        W 4736   3.543  18.637   6.274  0.1621 -0.3707 -0.1186
61799W        W 4737   3.747  18.459   5.803  0.1428 -0.1510 -0.2257
61800W        W 4738   2.289  21.906   3.129 -0.1029  0.2091  0.0045
61801W        W 4739   3.651  17.635   6.329 -0.1349 -0.0915  0.1155
61802W        W 4740   1.335  21.088   5.866  0.2307  0.0685 -0.0334
61803W        W 4741   1.055  21.382   7.815  0.1711 -0.0469 -0.5918
61804W        W 4742  34.341  21.113   4.048 -0.0547  0.2011  0.2546
61805W        W 4743   1.311  19.788   6.204  0.1093 -0.2161 -0.1462
61806W        W 4744   1.529  21.157   5.402  0.1456  0.1787 -0.2574
61807W        W 4745   1.034  22.532   5.801 -0.0754 -0.2423 -0.1335
61808W        W 4746   2.992  20.528   5.614  0.1989 -0.2288 -0.0611
61809W        W 4747   2.191  18.226   4.605 -0.2011 -0.0773 -0.0689
61810W        W 4748   3.966  22.187   5.892  0.0771 -0.1084  0.1713
61811W        W 4749   1.850  19.050   5.868  0.0372 -0.0140  0.1365
61812W        W 4750   3.330  18.284   3.679 -0.2076  0.0940  0.3037
61813W        W 4751   3.209  17.748   3.554 -0.0600  0.0848  0.1451
61814W        W 4752   2.482  20.309   5.499 -0.0806  0.1281  0.1511
61815W        W 4753   0.677  19.586   3.913 -0.2937 -0.2386 -0.1918
61816W        W 4754   0.682  21.328   3.978  0.2046  0.0057 -0.1362
61817W        W 4755   0.689  20.780   5.233  0.1158  0.1955 -0.0519
61818W        W 4756   2.502  19.768   6.659  0.0525  0.2769 -0.0341
61819W        W 4757   1.317  18.612   6.235  0.1712 -0.0569 -0.4868
61820W        W 4758   2.089  19.526   6.478 -0.2025 -0.2929 -0.2319
61821W        W 4759  34.655  18.683   6.011 -0.1241 -0.1492  0.2540
61822W        W 4760   2.859  20.808   4.648  0.1867 -0.2131 -0.0999
61823W        W 4761  34.617  18.204   6.700 -0.1028 -0.0190  0.1097
61824W        W 4762   0.787  18.367   6.018 -0.1539  0.0541  0.0481
61825W        W 4763   3.410  21.296   5.433  0.0792 -0.0571  0.0126
61826W        W 4764   3.845  20.945   4.604  0.0229 -0.0686 -0.2936
61827W        W 4765   1.526  19.413   4.534  0.3878 -0.0697  0.1474
61828W        W 4766   3.901  21.702   7.290 -0.0274 -0.0135 -0.0336
61829W        W 4767  34.157  21.631   4.341  0.0078 -0.0742 -0.4057
61830W        W 4768   1.702  18.418   8.298 -0.1139  0.0844 -0.1677
61831W        W 4769   3.212  19.017   5.986 -0.0540  0.0079 -0.0705
61832W        W 4770   0.680  18.361   3.134  0.0192 -0.3034 -0.0717
61833W        W 4771   2.225  19.990   4.900  0.2867 -0.2388 -0.2092
61834W        W 4772   1.230  20.643   5.029 -0.1084 -0.3632  0.1715
61835W        W 4773   2.730  21.964   3.555 -0.0831  0.0667 -0.2026
61836W        W 4774   2.532  21.270   4.550  0.0064 -0.1211 -0.0144
61837W        W 4775   1.548  20.886   6.264  0.3314  0.5504 -0.4064
61838W        W 4776   0.862  18.801   6.450  0.0532 -0.0825  0.0153
61839W        W 4777   2.588  19.648   4.129  0.4564  0.2459  0.1017
61840W        W 4778   3.059  22.067   6.881  0.2973 -0.3754  0.1039
61841W        W 4779   3.675  20.473   3.747  0.0032 -0.1290  0.0303
61842W        W 4780   3.564  18.261   4.126  0.1785  0.1384  0.0914
61843W        W 4781   2.109  20.788   3.795 -0.0113  0.0019 -0.0453
61844W        W 4782   0.539  17.702   6.718  0.2209  0.2420 -0.2249
61845W        W 4783   0.918  20.597   6.079  0.1254  0.0051 -0.1130
61846W        W 4784   4.101  20.753   7.299 -0.0081  0.1555  0.0723
61847W        W 4785   0.653  18.586   5.015  0.1781 -0.2600  0.1755
61848W        W 4786   2.948  19.252   3.889  0.3057 -0.0618  0.3661
61849W        W 4787   1.838  21.310   5.024 -0.0496 -0.0183  0.1213
61850W        W 4788   1.105  19.697   5.254 -0.1397 -0.0246  0.2405
61851W        W 4789   2.635  20.300   4.724 -0.3935  0.1817 -0.1323
61852W        W 4790   4.761  18.420   5.811  0.1693  0.0498 -0.2781
61853W        W 4791   1.426  22.011   6.052 -0.2698 -0.1206  0.0279
61854W        W 4792   2.408  21.516   7.216  0.2227  0.2727  0.1143
61855W        W 4793   0.465  21.338   4.478  0.1971  0.1748  0.2152
61856W        W 4794   3.487  21.021   4.014  0.2282 -0.2071 -0.0297
61857W        W 4795   0.893  21.630   6.100 -0.1874 -0.0582 -0.3065
61858W        W 4796   4.656  20.573   8.417 -0.2438 -0.2604  0.3851
61859W        W 4797   1.630  20.830   6.740  0.0967 -0.1877 -0.0349
61860W        W 4798   3.417  20.278   5.970  0.2479 -0.0971  0.0969
61861W        W 4799   1.223  18.202   5.857 -0.1411 -0.0092 -0.2958
61862W        W 4800   0.826  20.972   4.767 -0.1718 -0.1947 -0.0770
61863W        W 4801   0.921  20.298   5.396  0.1603  0.0420  0.1064
61864W        W 4802   2.872  18.889   5.620 -0.0581 -0.0575 -0.2258
61865W        W 4803   2.677  17.953   5.418  0.3485 -0.3654 -0.2313
61866W        W 4804   3.348  16.871   5.054 -0.0297  0.0963  0.0111
61867W        W 4805   1.912  20.392   6.285 -0.1362  0.2347 -0.0246
61868W        W 4806   1.705  21.980   5.612  0.0697  0.2533 -0.2205
61869W        W 4807  34.634  19.720   8.410  0.2672 -0.0371 -0.1138
61870W        W 4808   1.817  19.039   8.260 -0.0705  0.1055 -0.0861
61871W        W 4809   2.039  18.952   5.372 -0.0038 -0.1244 -0.0998
61872W        W 4810   3.611  19.803   8.037 -0.1650  0.1028  0.1731
61873W        W 4811   1.481  19.533   8.663 -0.0001  0.3494  0.3069
61874W        W 4812   3.637  21.602   7.687 -0.0769 -0.4799  0.1090
61875W        W 4813   4.195  20.404   8.555  0.1627  0.2925  0.1301
61876W        W 4814   3.350  22.795   9.189 -0.0099 -0.0215  0.0418
61877W        W 4815   1.899  21.237   6.148 -0.0351 -0.0160  0.1165
61878W        W 4816   2.931  18.628   9.640 -0.1807  0.1358  0.1839
61879W        W 4817   2.560  18.219   9.556  0.1696 -0.1185  0.1044
61880W        W 4818   0.424  17.281   8.027 -0.2553 -0.1765  0.2060
61881W        W 4819   4.149  19.688   8.046  0.2049  0.2103 -0.1502
61882W        W 4820   2.320  20.200   8.328 -0.0031 -0.3674  0.1493
61883W        W 4821   3.310  18.084   9.369 -0.0937  0.1685  0.3318
61884W        W 4822   1.466  17.991   9.571 -0.0958 -0.0695 -0.0349
61885W        W 4823   2.888  21.687   7.187  0.1025 -0.1882 -0.1493
61886W        W 4824   3.893  19.779   8.480  0.1585  0.0132 -0.2021
61887W        W 4825   2.308  20.422   7.892  0.2813 -0.0033  0.2222
61888W        W 4826   1.550  19.408   7.331 -0.1538  0.2673  0.1517
61889W        W 4827  33.996  17.874   7.862  0.0593  0.4874 -0.2479
61890W        W 4828   0.206  20.127   9.752  0.1133  0.3177  0.2310
61891W        W 4829   3.364  20.396   9.236 -0.0669  0.1356 -0.1359
61892W        W 4830   2.861  20.605   9.476  0.1276  0.1711 -0.1723
61893W        W 4831   2.783  21.819   9.058 -0.2520 -0.2719 -0.2770
61894W        W 4832   2.636  21.149   9.655  0.2520 -0.1264  0.1614
61895W        W 4833   1.730  19.120   8.872 -0.4372 -0.0870  0.1773
61896W        W 4834   0.973  21.229   9.253 -0.2296 -0.0365  0.0366
61897W        W 4835   1.268  20.463   7.759 -0.2459 -0.3075 -0.4640
61898W        W 4836   3.856  20.962   7.838 -0.3612  0.0424  0.2245
61899W        W 4837  34.418  20.225   8.530 -0.3696  0.0365  0.1395
61900W        W 4838   3.601  19.525   8.826 -0.1991  0.1351 -0.0554
61901W        W 4839   3.882  20.054   7.702  0.0358  0.1793 -0.2448
61902W        W 4840   0.771  20.397   7.892  0.0206  0.1223  0.1575
61903W        W 4841   2.662  21.404   9.263 -0.0390  0.0686 -0.1947
61904W        W 4842   1.706  19.976   8.649  0.4119 -0.0950 -0.0587
61905W        W 4843  34.427  21.319   9.558  0.0528  0.1549 -0.4295
61906W        W 4844   3.034  20.358   7.798  0.1643  0.3835  0.3687
61907W        W 4845   2.678  19.570   8.130 -0.0121 -0.1512  0.2745
61908W        W 4846   3.960  18.952   7.718 -0.1149 -0.1487 -0.1526
61909W        W 4847   1.744  17.506   9.590  0.1613  0.1037 -0.0778
61910W        W 4848   0.982  21.172   8.772 -0.1463  0.1079  0.1237
61911W        W 4849   1.966  18.253   8.729  0.0273 -0.0701  0.1401
61912W        W 4850   2.600  19.222   7.285  0.3560 -0.2327  0.4024
61913W        W 4851   4.958  19.401   9.053 -0.2558 -0.2379  0.0245
61914W        W 4852   1.684  21.469   9.921 -0.3124 -0.1170 -0.1856
61915W        W 4853   0.314  18.923   8.695 -0.1494  0.2090 -0.2958
61916W        W 4854   3.597  22.099   7.957 -0.2360  0.1072 -0.0685
61917W        W 4855   4.131  21.413   7.861  0.0130  0.1372 -0.1196
61918W        W 4856   2.560  20.887   7.085 -0.0988  0.1309  0.1585
61919W        W 4857   0.966  19.548   8.403  0.1993 -0.1328  0.0438
61920W        W 4858   2.278  18.732   7.543  0.0085 -0.0449 -0.0584
61921W        W 4859   4.463  18.759   8.585 -0.0362 -0.0843 -0.3109
61922W        W 4860   1.360  20.906   8.598 -0.3286 -0.1479  0.1902
61923W        W 4861   4.040  21.974   9.246 -0.1339 -0.5484 -0.1887
61924W        W 4862   3.153  21.057   6.490 -0.0318 -0.0951  0.1656
61925W        W 4863   2.833  18.012   8.110 -0.1937  0.2471 -0.1392
61926W        W 4864   0.875  17.905   9.014 -0.0085  0.0502  0.1822
61927W        W 4865   1.754  20.414   7.598 -0.3641 -0.2972 -0.0506
61928W        W 4866   2.895  20.241   6.926 -0.3123 -0.0768 -0.0760
61929W        W 4867   4.436  20.237   9.284 -0.2016 -0.2564 -0.0108
61930W        W 4868   3.452  20.762   7.239 -0.0232  0.1465 -0.1737
61931W        W 4869   0.131  21.472   9.324 -0.0208  0.0361  0.2755
61932W        W 4870   0.673  21.306   7.514 -0.0782 -0.2085  0.0113
61933W        W 4871   1.555  19.203   9.749 -0.0904  0.2625 -0.0752
61934W        W 4872   0.833  20.447   9.330  0.2400  0.2786  0.1180
61935W        W 4873   0.485  19.568  10.121  0.0174 -0.2793  0.0235
61936W        W 4874   2.899  18.392   9.233 -0.1767  0.0239 -0.1999
61937W        W 4875   3.393  20.736   6.767 -0.1327  0.4922  0.1619
61938W        W 4876   4.066  19.453   9.109  0.0514  0.1927  0.0570
61939W        W 4877   1.567  20.471   8.875 -0.0376  0.0108 -0.2232
61940W        W 4878   3.595  22.800   7.694 -0.1226 -0.1865  0.0254
61941W        W 4879   3.411  19.209   7.364  0.0695  0.2222 -0.2550
61942W        W 4880   3.533  21.275   8.184 -0.0178 -0.1473 -0.1155
61943W        W 4881  34.504  18.483   9.261  0.1032 -0.1859  0.2285
61944W        W 4882   1.525  20.374   9.420 -0.1308  0.1079 -0.0914
61945W        W 4883   1.481  18.564   9.674  0.0639  0.2322  0.2562
61946W        W 4884   0.976  18.043   8.093 -0.0509 -0.0412 -0.0883
61947W        W 4885   3.468  20.279   8.109  0.4162  0.2047 -0.0207
61948W        W 4886   1.283  19.929   8.311 -0.0952 -0.4342 -0.1214
61949W        W 4887   2.262  19.346   7.975  0.1417 -0.1314 -0.0085
61950W        W 4888   1.784  21.899   7.897 -0.0480  0.0249 -0.0068
61951W        W 4889   3.201  22.096   8.941 -0.1914 -0.1946 -0.1386
61952W        W 4890   3.056  21.337   8.391 -0.0828  0.1406 -0.0481
61953W        W 4891   1.693  18.433   9.109 -0.0228  0.4187  0.2602
61954W        W 4892   0.355  18.775   7.612 -0.2552 -0.0467  0.1374
61955W        W 4893  34.638  22.499   9.070 -0.1796 -0.0914 -0.0096
61956W        W 4894   2.864  20.463   8.284  0.2707 -0.3635 -0.0340
61957W        W 4895   1.975  17.559   9.053 -0.1569  0.3102 -0.0372
61958W        W 4896   3.946  22.353   8.803 -0.1416 -0.0612 -0.0550
61959W        W 4897   2.109  20.753   7.466  0.0378  0.4441 -0.0734
61960W        W 4898   5.171  20.075   8.869 -0.2025 -0.0869 -0.0659
61961W        W 4899   3.251  21.105   7.644 -0.3612  0.1927 -0.1665
61962W        W 4900   1.044  18.306   6.489 -0.0559  0.0882  0.0205
61963W        W 4901   4.044  22.472   9.864 -0.0878 -0.1417 -0.1469
61964W        W 4902   1.586  21.259   8.047  0.0220 -0.1337  0.2538
61965W        W 4903  34.134  20.249   9.468  0.0597  0.1049 -0.3084
61966W        W 4904   2.234  21.213   9.049 -0.0376  0.1820  0.2290
61967W        W 4905   2.916  20.413   8.971  0.0162  0.2174  0.3557
61968W        W 4906   1.476  19.479   8.165  0.0483  0.0693  0.1354
61969W        W 4907   2.124  19.154   8.600  0.1199  0.0536 -0.2985
61970W        W 4908   4.887  18.705   6.788 -0.3347  0.0667  0.2382
61971W        W 4909   4.570  20.872   6.102 -0.0363 -0.0711 -0.3415
61972W        W 4910   3.039  19.652   7.115  0.0216 -0.0424 -0.0438
61973W        W 4911   3.724  17.455   6.911  0.1766 -0.1283 -0.1645
61974W        W 4912   3.106  21.415   9.503 -0.1603  0.1983 -0.0335
61975W        W 4913   1.423  21.308   9.095  0.2368  0.1288  0.1157
61976W        W 4914   2.463  18.023   7.792 -0.0210 -0.1863  0.2001
61977W        W 4915   4.094  21.892   7.842 -0.1475  0.3360 -0.0269
61978W        W 4916  34.300  20.705   8.887 -0.3245  0.0650 -0.2299
61979W        W 4917   2.875  20.865   8.550 -0.1476  0.2792 -0.0427
61980W        W 4918   2.793  17.402   8.192  0.2802 -0.0905 -0.1781
61981W        W 4919   2.719  20.718   7.746 -0.1196 -0.0994 -0.0220
61982W        W 4920   2.763  19.162   8.609 -0.2739 -0.2510 -0.3582
61983W        W 4921   0.472  21.480   8.072 -0.0553  0.0289  0.1035
61984W        W 4922   3.279  19.169   8.989 -0.1674  0.2875 -0.0324
61985W        W 4923   1.755  18.934   9.377  0.1055  0.4153 -0.0434
61986W        W 4924   3.214  18.756   6.969  0.0414  0.1912  0.0700
61987W        W 4925   3.142  20.871   8.121 -0.1490 -0.1920 -0.3075
61988W        W 4926   2.233  19.857   7.994  0.1778  0.4054  0.0838
61989W        W 4927   3.075  16.116   9.958  0.2078 -0.0972  0.0716
61990W        W 4928  34.358  21.786   9.244  0.1971  0.0970 -0.0657
61991W        W 4929   2.076  21.385   8.592 -0.0701  0.1080 -0.4061
61992W        W 4930   2.481  18.961   8.274 -0.2804 -0.1952  0.1127
61993W        W 4931   1.115  20.658   8.157 -0.2440  0.0110 -0.4409
61994W        W 4932   1.598  19.968   7.290  0.1568  0.1628  0.0081
61995W        W 4933   2.967  19.005   8.162 -0.0464 -0.2142  0.1919
61996W        W 4934   1.478  20.884   9.549  0.1604  0.2276  0.1018
61997W        W 4935   1.875  20.891   5.764 -0.1445  0.4669  0.1191
61998W        W 4936   1.012  21.961   9.487 -0.0422  0.0336  0.2118
61999W        W 4937   1.688  20.823   7.266 -0.0874 -0.2061 -0.1839
62000W        W 4938   4.500  16.932   7.558  0.0387 -0.2093 -0.1311
62001W        W 4939   1.105  20.359   8.559  0.1044  0.0841 -0.0125
62002W        W 4940   1.442  19.468   6.816  0.3062 -0.3029 -0.0239
62003W        W 4941   0.997  19.881   7.894  0.3166  0.2509  0.1997
62004W        W 4942   2.893  18.305   6.981 -0.0019 -0.2805  0.1146
62005W        W 4943   4.288  21.068   6.503  0.0923  0.3167 -0.1621
62006W        W 4944   0.886  17.823   9.523 -0.0580  0.0561 -0.2892
62007W        W 4945   3.094  18.744   8.793  0.3165 -0.0671 -0.2893
62008W        W 4946  34.316  22.247   9.497 -0.0565 -0.0981 -0.1254
62009W        W 4947   3.978  17.933   6.806 -0.1505 -0.0849 -0.0344
62010W        W 4948   1.811  19.183   6.891 -0.0032 -0.1155 -0.3289
62011W        W 4949   4.128  19.267   8.599  0.2339  0.0547  0.0177
62012W        W 4950   1.858  19.462   9.386 -0.0926  0.0535 -0.0854
62013W        W 4951   0.830  22.392   9.461  0.2139  0.0643 -0.1365
62014W        W 4952   3.078  20.072   9.497  0.0341  0.0613  0.0841
62015W        W 4953   2.730  18.917   7.677 -0.3615  0.0552 -0.2935
62016W        W 4954   1.115  20.036   9.488  0.2844  0.5852 -0.0149
62017W        W 4955   5.290  20.505   9.982 -0.0106  0.2755  0.0869
62018W        W 4956   2.736  19.901   9.067  0.0166 -0.1827  0.0120
62019W        W 4957  33.983  16.736  10.010  0.1694 -0.0111  0.1282
62020W        W 4958   1.999  19.626   8.931  0.1846  0.2259  0.0325
62021W        W 4959   2.662  20.456   9.855  0.1062 -0.1514 -0.0947
62022W        W 4960   2.707  19.357   9.163 -0.0374  0.1357 -0.0604
62023W        W 4961  34.439  21.344  12.575 -0.1299 -0.2826 -0.0151
62024W        W 4962   4.206  23.226   8.280  0.0927 -0.0630  0.1012
62025W        W 4963   0.273  20.395   8.002 -0.1478 -0.0324  0.3027
62026W        W 4964   1.224  17.668  10.026  0.0331  0.1899  0.1362
62027W        W 4965   2.228  19.225   9.130  0.0913 -0.1517  0.0401
62028W        W 4966   3.099  19.786   7.973 -0.0181  0.1833 -0.0925
62029W        W 4967  34.657  20.452   9.488 -0.1250  0.0295 -0.3557
62030W        W 4968   1.982  19.602   8.316  0.3302  0.0570  0.1105
62031W        W 4969  33.886  21.871   8.903 -0.1738 -0.0923 -0.1026
62032W        W 4970   3.715  17.476   7.648  0.1957 -0.0267  0.0632
62033W        W 4971   1.959  20.413   7.096  0.0035 -0.0327  0.1739
62034W        W 4972   3.434  20.621   7.731  0.1831 -0.1875  0.0605
62035W        W 4973   3.072  21.052   7.024 -0.2276 -0.0517 -0.0174
62036W        W 4974   2.453  18.733   9.847 -0.0362 -0.0077 -0.1439
62037W        W 4975   4.842  20.249   7.713 -0.1490 -0.1319  0.3100
62038W        W 4976   2.672  19.200   6.591  0.0396  0.2897 -0.1110
62039W        W 4977   2.040  18.275   7.640 -0.0899  0.0150  0.0571
62040W        W 4978   2.245  19.759   9.342 -0.0281 -0.0524  0.1172
62041W        W 4979   3.676  20.205   8.757  0.1470 -0.1172  0.2662
62042W        W 4980   1.902  20.205   8.002 -0.2859 -0.1855 -0.1604
62043W        W 4981   2.798  20.073   8.607 -0.4226 -0.1532 -0.0160
62044W        W 4982   0.732  19.799   9.752  0.2406  0.3600 -0.2943
62045W        W 4983   3.732  19.279   8.128 -0.1493 -0.1097  0.0179
62046W        W 4984   4.484  20.907   6.963  0.3159 -0.0406 -0.0600
62047W        W 4985   1.292  20.838   9.086 -0.0315  0.0902 -0.1398
62048W        W 4986   3.765  20.664   8.339 -0.1182 -0.0859  0.1599
62049W        W 4987   3.333  19.393   7.879  0.1403  0.1751 -0.0134
62050W        W 4988   2.710  18.724  12.494 -0.0745 -0.0490  0.1197
62051W        W 4989   3.850  18.696   7.106  0.0109 -0.0706  0.1470
62052W        W 4990   4.513  19.493   8.804  0.1494  0.2504  0.0820
62053W        W 4991   4.243  19.122   8.082  0.1442  0.2790 -0.1249
62054W        W 4992   2.844  19.440   7.661  0.0773  0.1228 -0.4948
62055W        W 4993   0.234  19.662   9.016 -0.0518  0.2737 -0.1050
62056W        W 4994   1.737  18.348   6.031 -0.2073  0.2867  0.0360
62057W        W 4995   2.053  21.480   7.968 -0.1573  0.0117  0.0860
62058W        W 4996   2.231  21.974   9.665  0.1521  0.1430  0.2928
62059W        W 4997   2.749  21.218   7.387  0.0399 -0.0682  0.0884
62060W        W 4998  34.237  17.967   8.845 -0.0127 -0.0670  0.0270
62061W        W 4999   1.226  17.576   5.896 -0.3664 -0.1982  0.1269
62062W        W 5000   3.477  21.571   8.615 -0.0104  0.4972 -0.3239
62063W        W 5001   1.776  21.757   8.873 -0.0113  0.2154 -0.3393
62064W        W 5002   1.807  17.855   8.301 -0.1106  0.0173 -0.1062
62065W        W 5003   0.424  20.165   9.325  0.2186 -0.0365  0.1622
62066W        W 5004   1.593  18.694   7.862  0.1197 -0.1689  0.1049
62067W        W 5005  33.507  22.476  10.072  0.1465  0.0248  0.0319
62068W        W 5006   1.910  20.916   9.328  0.1747  0.3294 -0.1842
62069W        W 5007   1.269  17.729   9.229 -0.2039  0.1695  0.0439
62070W        W 5008   3.454  18.896   8.320 -0.2322  0.2600 -0.0099
62071W        W 5009   4.017  20.446   9.079  0.0067  0.0680 -0.0551
62072W        W 5010   0.846  18.899   9.075  0.4012 -0.2001  0.2705
62073W        W 5011   3.592  21.193   9.000  0.2032  0.0818 -0.1025
62074W        W 5012   1.305  20.020   9.943 -0.2228  0.0827 -0.1639
62075W        W 5013   3.762  20.958   9.442 -0.1371 -0.2874  0.0487
62076W        W 5014   2.026  19.068   9.748  0.1201 -0.1356 -0.2864
62077W        W 5015   2.110  21.112   7.072 -0.1278 -0.1128  0.2193
62078W        W 5016   1.295  19.563   9.558  0.0328 -0.3188  0.3153
62079W        W 5017   0.509  21.058   9.483 -0.3673  0.2412  0.3791
62080W        W 5018   3.171  20.871   9.030 -0.4103  0.1164 -0.0261
62081W        W 5019   3.335  21.447   7.248 -0.0649 -0.0607 -0.2123
62082W        W 5020   2.458  21.342   8.310 -0.0225 -0.0585 -0.2420
62083W        W 5021   1.495  18.778   8.628 -0.1026 -0.4024  0.1285
62084W        W 5022   1.729  20.510   9.946  0.0269  0.0024  0.1758
62085W        W 5023   0.847  19.356   9.296  0.0262  0.0741  0.1927
62086W        W 5024   4.377  22.270   6.850 -0.5663 -0.0402  0.1318
62087W        W 5025   1.581  20.393   8.320  0.2069  0.0256 -0.0408
62088W        W 5026   2.650  19.341   5.702  0.0972 -0.0600 -0.0483
62089W        W 5027   4.550  21.065   8.204 -0.1695  0.1416  0.3268
62090W        W 5028   4.031  18.696   8.417  0.0145  0.0927  0.1046
62091W        W 5029   2.473  20.279   9.266  0.0132 -0.1881 -0.1628
62092W        W 5030   2.688  18.732   7.178  0.0424 -0.0520 -0.0501
62093W        W 5031   4.327  22.700   7.264 -0.1719  0.0530 -0.1343
62094W        W 5032   1.179  18.433   8.346 -0.1850  0.5644 -0.0283
62095W        W 5033   2.349  20.960   8.623  0.3626 -0.0857 -0.0111
62096W        W 5034   3.773  19.904   9.167 -0.0561 -0.1457  0.1181
62097W        W 5035   2.462  20.465   7.383 -0.1594 -0.0487  0.0517
62098W        W 5036   3.371  19.925   7.587 -0.1138  0.0526  0.0809
62099W        W 5037   1.340  21.881   9.126  0.1151 -0.0138  0.1857
62100W        W 5038   0.653  21.538   9.460 -0.1092 -0.1126  0.0489
62101W        W 5039   1.726  21.612   9.425  0.0713 -0.0044  0.0194
62102W        W 5040   0.775  18.266   8.522  0.0400 -0.2532  0.1089
62103W        W 5041   3.742  18.242   8.406  0.3579 -0.1146  0.0258
62104W        W 5042  34.429  17.525   9.735  0.0249 -0.0596 -0.1281
62105W        W 5043   1.679  19.913   9.642  0.1328  0.1034 -0.0082
62106W        W 5044   3.304  18.101   7.872  0.1132 -0.1010 -0.1270
62107W        W 5045   1.269  21.412   9.625 -0.0160 -0.2310  0.2371
62108W        W 5046   3.022  19.091   9.732  0.2687 -0.0148 -0.2299
62109W        W 5047   4.230  20.264   7.347  0.0257  0.3546  0.1141
62110W        W 5048   2.380  19.999   7.136 -0.1276  0.0258  0.1598
62111W        W 5049   2.193  17.696   8.616 -0.0055 -0.4393 -0.0400
62112W        W 5050   3.106  18.651   7.478 -0.0355  0.0569  0.1807
62113W        W 5051   3.134  19.581   9.236 -0.1041 -0.2847  0.0186
62114W        W 5052   2.095  21.320   9.542 -0.2771 -0.1022  0.1938
62115W        W 5053   0.239  17.428   9.739 -0.1875 -0.3135  0.3280
62116W        W 5054   3.753  20.285   7.232  0.0644  0.1891  0.1495
62117W        W 5055   4.827  21.587   9.563  0.1649  0.1606  0.0290
62118W        W 5056   1.893  21.823   8.375 -0.0039 -0.0378 -0.2088
62119W        W 5057   3.979  20.188   8.192  0.3360  0.2676 -0.2460
62120W        W 5058   2.533  21.538   7.722 -0.1893  0.0110 -0.1205
62121W        W 5059   2.366  18.728   9.289 -0.0071 -0.1020 -0.0961
62122W        W 5060   3.598  21.431   9.742  0.1832 -0.2194 -0.1559
62123W        W 5061   2.254  20.754   9.986  0.4079  0.0916  0.1241
62124W        W 5062   2.090  18.713   7.997 -0.0007  0.0231 -0.2333
62125W        W 5063   3.774  20.459   9.617 -0.2840 -0.2103  0.1849
62126W        W 5064   0.441  21.728   9.053  0.1681 -0.1598  0.1884
62127W        W 5065   3.304  18.308   8.941  0.1279 -0.1142  0.1971
62128W        W 5066   1.882  21.265   7.523  0.0146 -0.1908  0.0019
62129W        W 5067   1.793  22.493   9.024  0.1927 -0.0181 -0.0926
62130W        W 5068   0.207  20.270   7.439 -0.6098  0.1690  0.0169
62131W        W 5069   3.405  20.998   8.592  0.3291 -0.0735 -0.1647
62132W        W 5070   1.786  20.790   7.911  0.2611  0.0047  0.3388
62133W        W 5071   4.043  21.180   8.242  0.0295  0.0110 -0.2017
62134W        W 5072   3.260  19.993   8.959  0.0572  0.3043  0.0033
62135W        W 5073   2.628  21.374   8.773 -0.2306 -0.3263 -0.1955
62136W        W 5074   3.039  19.620   8.686 -0.0632 -0.0140  0.0820
62137W        W 5075   2.752  18.587   8.386  0.3608  0.1349 -0.1755
62138W        W 5076   2.908  17.472   7.186  0.2271  0.3728 -0.1315
62139W        W 5077   2.586  17.276   9.374  0.1207 -0.0237 -0.2293
62140W        W 5078   0.644  18.398   8.963 -0.3572 -0.2776 -0.4528
62141W        W 5079   2.781  20.086   7.438 -0.0435  0.1091  0.0077
62142W        W 5080   2.111  20.512   9.036 -0.0696  0.2956 -0.1555
62143W        W 5081   0.413  19.343   9.688 -0.0825  0.1432 -0.0609
62144W        W 5082   1.621  18.282   6.544 -0.0263 -0.0089  0.4702
62145W        W 5083   4.212  20.639   8.056 -0.2016 -0.1655  0.2477
62146W        W 5084  33.532  16.609   9.679  0.1273  0.1366  0.3423
62147W        W 5085  34.665  17.358   8.354  0.0719 -0.1309  0.2792
62148W        W 5086   4.941  19.590   8.505 -0.1600  0.0844  0.0714
62149W        W 5087   2.837  22.345   7.461  0.0656 -0.0349  0.2743
62150W        W 5088   1.857  18.296   7.125  0.0014  0.0893  0.1684
62151W        W 5089   1.052  19.642   8.904 -0.1229 -0.2303 -0.0654
62152W        W 5090   0.568  18.662   6.950 -0.3713  0.0197  0.1422
62153W        W 5091   2.446  19.577   8.653 -0.3502 -0.0398 -0.0658
62154W        W 5092   2.794  21.153   7.974 -0.4089  0.1064  0.0291
62155W        W 5093   1.430  21.366   7.226 -0.1688 -0.0099  0.2746
62156W        W 5094   1.949  16.438  10.117 -0.0946  0.1189 -0.3454
62157W        W 5095   3.339  19.377   8.405 -0.0049 -0.1189  0.2590
62158W        W 5096   4.649  20.643   7.340 -0.1356  0.1485  0.2385
62159W        W 5097   6.182  18.908   8.485 -0.0269  0.0649  0.1045
62160W        W 5098   4.055  19.755   7.280  0.0221 -0.1152 -0.2948
62161W        W 5099   3.283  20.430   8.620 -0.3211 -0.0725  0.3367
62162W        W 5100   2.548  18.498   7.919  0.2305  0.4401  0.0494
62163W        W 5101   3.418  18.867   7.780  0.0625  0.0766 -0.2189
62164W        W 5102   3.223  21.543   6.774 -0.2603 -0.1008 -0.0431
62165W        W 5103   0.638  19.337   8.805  0.1245  0.0935 -0.1189
62166W        W 5104   2.338  19.611   7.482 -0.1000 -0.2116  0.2185
62167W        W 5105   1.966  20.450   8.574  0.2657  0.2205  0.0183
62168W        W 5106   2.654  20.096   7.994 -0.2777 -0.0338 -0.1119
62169W        W 5107   4.411  20.210   7.939  0.1596  0.4593 -0.1100
62170W        W 5108   2.519  23.630   8.938 -0.0652  0.2424  0.0163
62171W        W 5109   0.394  21.103  10.120  0.1017  0.1553  0.1181
62172W        W 5110   2.631  20.875   9.004 -0.4316  0.2007 -0.3072
62173W        W 5111   0.139  17.575   8.783 -0.1811  0.1187  0.1221
62174W        W 5112   2.278  20.028   8.871 -0.1651 -0.1543  0.2179
62175W        W 5113   2.512  20.499   8.672  0.4451 -0.0333 -0.0462
62176W        W 5114   2.919  17.881   9.133  0.4097  0.0985  0.1372
62177W        W 5115   1.125  18.314   9.276 -0.1958  0.0648 -0.0506
62178W        W 5116   2.273  18.656   6.210 -0.0862 -0.2903  0.0041
62179W        W 5117   1.889  20.107   9.213  0.0074 -0.1952 -0.3413
62180W        W 5118   4.327  20.916   8.638 -0.4763  0.3004 -0.1045
62181W        W 5119   1.015  25.357   2.176 -0.2118  0.0476  0.0517
62182W        W 5120   0.065  20.996   1.092  0.0350  0.0206 -0.2433
62183W        W 5121   4.088  24.077  31.581 -0.0221  0.1413 -0.0301
62184W        W 5122   3.651  23.409   0.780  0.1491  0.0145  0.0590
62185W        W 5123   0.948  23.343   1.333  0.1392 -0.0691 -0.0151
62186W        W 5124   3.315  25.848   1.840  0.0042 -0.2085  0.2795
62187W        W 5125   0.561  23.141   3.071 -0.0283  0.1176  0.0081
62188W        W 5126   2.744  24.621   2.446  0.1785 -0.2884 -0.2400
62189W        W 5127   3.181  25.796   1.298 -0.2078 -0.0428  0.2342
62190W        W 5128   3.553  24.763   0.402 -0.1623  0.0720  0.0124
62191W        W 5129   1.857  22.480   2.675 -0.2051 -0.1194  0.0470
62192W        W 5130   0.925  26.350   0.764 -0.2003  0.1596  0.1194
62193W        W 5131   0.110  21.871   1.163 -0.0120 -0.0813 -0.0364
62194W        W 5132   0.523  21.406   2.226 -0.1019  0.3006 -0.0528
62195W        W 5133   3.674  24.077   2.375  0.0050 -0.0297 -0.3674
62196W        W 5134   1.256  24.848   1.901  0.2580  0.1963  0.0635
62197W        W 5135   1.842  23.441   1.960 -0.0538 -0.3480  0.1634
62198W        W 5136   2.403  22.833   0.717  0.3724  0.2878 -0.3874
62199W        W 5137   1.247  25.582   1.743  0.0082  0.2739  0.0455
62200W        W 5138   2.905  21.606   2.566  0.0213  0.2483 -0.0665
62201W        W 5139   2.239  23.548   2.330 -0.0254 -0.0084  0.0046
62202W        W 5140   1.180  24.421   0.300  0.3403 -0.1719 -0.6758
62203W        W 5141  34.656  22.978  31.332 -0.1534 -0.0188 -0.1601
62204W        W 5142  34.613  23.650   2.815  0.0132 -0.1495  0.0748
62205W        W 5143   0.926  24.130   2.879  0.0696 -0.0979 -0.0763
62206W        W 5144   2.899  22.440   3.516 -0.0516 -0.2791 -0.1051
62207W        W 5145   3.290  23.908   1.812 -0.1958 -0.4062 -0.3159
62208W        W 5146   2.002  25.111   1.294 -0.0697  0.0523 -0.2097
62209W        W 5147   2.147  25.914   1.696 -0.0466 -0.0164 -0.0965
62210W        W 5148   3.380  22.134   2.030 -0.1654 -0.0068 -0.0716
62211W        W 5149   1.485  24.004   2.575 -0.1224  0.2597  0.2974
62212W        W 5150   1.225  25.309   1.095  0.4548 -0.3484 -0.0226
62213W        W 5151   1.970  25.575   1.413 -0.1862 -0.3649  0.0289
62214W        W 5152   3.557  24.625   0.884  0.1714  0.2836 -0.2238
62215W        W 5153   2.678  24.290   3.348 -0.2638  0.2958 -0.2300
62216W        W 5154   2.617  26.228   3.073  0.0006  0.0370 -0.0717
62217W        W 5155   1.103  25.211  31.416 -0.3446  0.2691  0.0097
62218W        W 5156   2.349  25.255   3.929 -0.2476  0.1366 -0.0247
62219W        W 5157   1.837  26.323   2.776  0.1360  0.0152  0.1472
62220W        W 5158   2.532  22.828   3.617  0.1015 -0.1908  0.2021
62221W        W 5159   2.515  23.813   0.371 -0.1492 -0.0925  0.1419
62222W        W 5160   2.657  26.363   0.957 -0.0373  0.0162  0.0842
62223W        W 5161   1.575  24.426   1.212  0.3137 -0.1056  0.0137
62224W        W 5162   1.746  25.290   2.509 -0.0514  0.0448  0.0572
62225W        W 5163   1.228  24.876   1.384 -0.0804  0.1416 -0.0082
62226W        W 5164   3.819  21.946   4.085  0.0709  0.0126 -0.0435
62227W        W 5165   2.316  25.380  31.839 -0.0763 -0.0311 -0.3588
62228W        W 5166   2.997  23.077   0.884 -0.0591  0.1430 -0.0906
62229W        W 5167   0.750  23.179  30.825  0.1902  0.0934  0.1229
62230W        W 5168   3.662  23.152   1.208 -0.0279  0.0429  0.1792
62231W        W 5169   0.703  22.555   0.675 -0.1531 -0.0285  0.1513
62232W        W 5170  34.298  26.774   2.051  0.3728  0.1033  0.0267
62233W        W 5171   1.405  23.171   0.745 -0.2637  0.1722  0.1488
62234W        W 5172   4.166  23.900   2.533 -0.1216  0.1487  0.0624
62235W        W 5173   0.440  22.718   0.120 -0.0319 -0.0700 -0.0681
62236W        W 5174   2.869  21.812   2.060 -0.0790 -0.1899  0.0730
62237W        W 5175   2.213  25.221   2.280  0.3224  0.1454  0.2202
62238W        W 5176   1.320  24.404   1.625  0.3719 -0.1293  0.0809
62239W        W 5177   1.502  26.446  31.175 -0.0553  0.1176  0.1247
62240W        W 5178   4.563  25.362   0.218  0.0221 -0.2152  0.1345
62241W        W 5179   1.446  26.857   2.806  0.4036  0.1195 -0.1777
62242W        W 5180  34.606  23.502  31.754 -0.2647  0.1051 -0.2088
62243W        W 5181  34.151  24.140   1.720  0.0953  0.1698 -0.0719
62244W        W 5182  33.832  25.564   3.557  0.2319 -0.0948 -0.2562
62245W        W 5183   1.458  21.672   0.034  0.1264 -0.2021 -0.1744
62246W        W 5184   3.150  24.158   3.624 -0.5236  0.1738  0.0658
62247W        W 5185  34.683  25.495   3.511 -0.1176  0.1096  0.1527
62248W        W 5186   2.565  22.995   1.289  0.0117 -0.0329 -0.0763
62249W        W 5187   1.846  22.339   4.682  0.2559  0.0908 -0.1399
62250W        W 5188   3.095  24.762   3.861 -0.2395  0.4217 -0.0908
62251W        W 5189   2.054  25.979  31.596  0.1692 -0.1413  0.0714
62252W        W 5190   3.015  22.030   1.247 -0.1606  0.0140 -0.1022
62253W        W 5191   2.285  23.084   2.132 -0.3148 -0.2610 -0.2118
62254W        W 5192   1.371  23.957   0.369 -0.4834  0.1206  0.4026
62255W        W 5193   1.412  23.814  31.875 -0.1402  0.1712 -0.0702
62256W        W 5194   3.148  24.958   2.282  0.1587  0.2144 -0.1357
62257W        W 5195   3.019  23.599   0.423  0.1581 -0.1243 -0.1561
62258W        W 5196   0.660  26.564   1.485  0.0025 -0.0915  0.3108
62259W        W 5197   1.160  22.359   3.271 -0.0577  0.1508 -0.0610
62260W        W 5198   1.642  24.848   4.479 -0.0274 -0.1251  0.1278
62261W        W 5199  34.322  25.696   0.073 -0.0857  0.0994  0.0010
62262W        W 5200   0.469  23.914   1.263  0.0499  0.1884  0.1043
62263W        W 5201  34.595  24.305   0.272 -0.1309 -0.0467 -0.3252
62264W        W 5202   2.336  23.491   2.914 -0.0497  0.1482  0.0834
62265W        W 5203   1.776  23.586   2.604  0.0444 -0.0775  0.0216
62266W        W 5204   3.025  22.111   0.381  0.2254  0.0008  0.1621
62267W        W 5205   0.328  23.537   3.486 -0.1258  0.0474 -0.1190
62268W        W 5206   4.912  22.957   0.867  0.0665  0.0331  0.0076
62269W        W 5207   1.294  24.409  31.766 -0.0978  0.0032 -0.2927
62270W        W 5208   2.873  25.309   1.000  0.2923  0.1242 -0.1659
62271W        W 5209   3.246  24.442   0.004 -0.0808 -0.2029 -0.0523
62272W        W 5210   2.138  24.934  31.590  0.0473 -0.3265 -0.0233
62273W        W 5211   0.283  24.859   2.506  0.3728  0.1005 -0.0555
62274W        W 5212   0.619  22.896   1.059 -0.3026 -0.1772  0.3947
62275W        W 5213   1.141  23.899   3.929 -0.1535 -0.0207 -0.0830
62276W        W 5214  33.714  22.880   2.134 -0.1449  0.1411 -0.3215
62277W        W 5215   3.381  22.626   3.313  0.0814  0.0562 -0.3854
62278W        W 5216   0.973  22.369   1.121  0.1652  0.0931 -0.2107
62279W        W 5217   1.628  23.930   1.713  0.3045  0.1213  0.0535
62280W        W 5218   1.292  22.620   1.885 -0.1350 -0.1270  0.2660
62281W        W 5219   0.304  24.952   1.536 -0.1807 -0.0857 -0.0273
62282W        W 5220   3.252  22.625   3.820  0.2990 -0.1807  0.0907
62283W        W 5221   2.836  24.125   0.208  0.1508 -0.2426 -0.1545
62284W        W 5222   2.406  24.368   2.826 -0.0449  0.1043 -0.0864
62285W        W 5223   2.230  25.286   0.357 -0.0962  0.2645  0.1168
62286W        W 5224   1.185  22.486   3.814 -0.2654  0.1212  0.0692
62287W        W 5225   0.947  21.550  31.832 -0.2545  0.1738 -0.0925
62288W        W 5226   1.263  25.711   3.100 -0.1759  0.1663  0.1167
62289W        W 5227   2.703  25.261   2.236  0.1010  0.0165 -0.0055
62290W        W 5228   1.676  22.108  31.621  0.1315 -0.2198 -0.1890
62291W        W 5229   3.448  25.244   1.028 -0.1176  0.0266 -0.0726
62292W        W 5230   2.814  24.530   0.550 -0.1145 -0.1351  0.0864
62293W        W 5231   1.341  24.286   3.077 -0.0912 -0.1033 -0.0369
62294W        W 5232   3.457  21.669   3.172 -0.0623  0.1123  0.2404
62295W        W 5233   4.174  23.795   3.114  0.0083 -0.1135 -0.2938
62296W        W 5234   2.052  24.755   2.575 -0.0538  0.1418  0.1143
62297W        W 5235   1.720  22.532  31.226  0.2399  0.0662 -0.0559
62298W        W 5236   3.381  26.533   1.800 -0.0494 -0.0899 -0.1641
62299W        W 5237   0.306  25.541   1.561 -0.2197  0.1896  0.1304
62300W        W 5238   0.909  22.187   1.652  0.0115  0.0398  0.0876
62301W        W 5239   2.398  25.772   0.248 -0.2890  0.0105  0.1630
62302W        W 5240   2.522  23.137   2.554 -0.2124  0.0384 -0.1148
62303W        W 5241   0.398  24.796   3.831  0.2222 -0.5258 -0.0181
62304W        W 5242   3.455  23.270   3.619  0.0377  0.3518  0.1583
62305W        W 5243  34.013  23.938  31.281  0.0885  0.0806  0.2933
62306W        W 5244   0.969  25.197   1.631 -0.0679  0.1123  0.0097
62307W        W 5245   1.834  23.482   0.810  0.3969 -0.0272  0.2280
62308W        W 5246   4.319  23.685   2.126 -0.0119 -0.1292  0.0696
62309W        W 5247   1.364  23.817   3.449 -0.1109 -0.2340 -0.1215
62310W        W 5248   2.901  24.664   1.863 -0.0231  0.0860  0.2500
62311W        W 5249   3.296  21.792   0.920 -0.2592 -0.1694  0.1968
62312W        W 5250   3.950  20.840   1.802  0.2237 -0.5290  0.1052
62313W        W 5251   0.726  25.130   2.703  0.0441 -0.1916 -0.1074
62314W        W 5252   0.802  25.622   1.533  0.0346 -0.1858  0.0237
62315W        W 5253   1.724  24.660   1.600 -0.1204  0.2131 -0.0666
62316W        W 5254   1.718  23.071   1.161 -0.2621  0.1169 -0.1393
62317W        W 5255   3.802  26.193   0.519 -0.1319 -0.1877  0.2032
62318W        W 5256  34.266  25.064   1.146 -0.1928  0.1937  0.0626
62319W        W 5257   1.746  23.548   3.669 -0.0780 -0.0224  0.2038
62320W        W 5258   2.930  24.349   2.898  0.0801 -0.0022 -0.1442
62321W        W 5259   1.595  22.332   3.450  0.1079  0.0213  0.0290
62322W        W 5260   2.991  24.858   0.201  0.1986 -0.1470 -0.1602
62323W        W 5261   1.065  21.673   2.117 -0.1073  0.0002  0.3905
62324W        W 5262  34.565  23.435  30.539  0.0281 -0.2277 -0.0392
62325W        W 5263   2.661  22.579   1.575 -0.2336 -0.1893  0.0150
62326W        W 5264   3.305  22.908   0.529  0.3091  0.2575  0.1348
62327W        W 5265   2.018  22.193   2.244  0.2041 -0.5168  0.1698
62328W        W 5266   3.812  22.758   3.576 -0.3761 -0.0279  0.0145
62329W        W 5267   2.362  24.748   1.422 -0.1151 -0.0579 -0.0753
62330W        W 5268   2.705  23.665   2.620  0.1172  0.1409  0.0922
62331W        W 5269   0.918  22.687  31.225 -0.1454  0.0318 -0.1491
62332W        W 5270   2.123  23.066   1.651  0.2894  0.0020  0.3912
62333W        W 5271   0.413  24.122   3.046 -0.2347 -0.1126 -0.0042
62334W        W 5272   0.343  25.849   2.757  0.2905 -0.4329  0.0798
62335W        W 5273   1.986  24.953   3.076  0.2811 -0.2612  0.0865
62336W        W 5274   2.697  25.066   0.591  0.0513 -0.0781  0.3224
62337W        W 5275   1.698  22.594   3.875 -0.0904  0.0884 -0.1089
62338W        W 5276   2.262  23.342   0.605 -0.0595  0.1992  0.0118
62339W        W 5277   1.951  25.637   0.088 -0.0930  0.4011  0.3852
62340W        W 5278   3.645  24.756  31.902 -0.1130  0.4165 -0.0898
62341W        W 5279   1.274  21.884   1.130  0.0127  0.3277 -0.0987
62342W        W 5280   2.722  23.889   3.719 -0.0280  0.2281 -0.1543
62343W        W 5281   2.518  24.880  31.943  0.1177 -0.1272  0.1243
62344W        W 5282   2.049  24.448   3.292  0.1146  0.0229  0.1170
62345W        W 5283   1.659  25.091  31.474 -0.0062 -0.3614  0.0564
62346W        W 5284   3.491  24.096   1.360 -0.1992 -0.0727  0.1536
62347W        W 5285   1.433  25.758   2.288  0.2762  0.1170  0.1121
62348W        W 5286   0.469  23.811  31.650 -0.1821 -0.2674 -0.1151
62349W        W 5287   0.364  24.460   1.347  0.2690 -0.0218 -0.0560
62350W        W 5288   1.443  23.158   1.781  0.1623 -0.0615 -0.0879
62351W        W 5289   3.942  24.329   1.021 -0.1478 -0.3046 -0.1909
62352W        W 5290   1.419  21.349   1.929  0.2733  0.3001 -0.3623
62353W        W 5291   1.135  23.094   3.117  0.0122  0.1979  0.0109
62354W        W 5292   1.126  24.967   2.487 -0.1320  0.0551  0.1424
62355W        W 5293   2.509  22.564   2.077 -0.0675  0.1598  0.1049
62356W        W 5294   3.563  21.749   1.365 -0.2868 -0.1571  0.1368
62357W        W 5295   3.424  24.788   1.748 -0.1957  0.0431 -0.1427
62358W        W 5296   1.049  24.958   3.572  0.2871  0.3188  0.2947
62359W        W 5297   0.874  23.456  31.525  0.1228 -0.2921 -0.0188
62360W        W 5298   4.073  23.427   2.436 -0.1172 -0.1915 -0.0735
62361W        W 5299   1.072  22.826   0.890 -0.1399  0.1681 -0.1822
62362W        W 5300   1.513  23.488   0.296 -0.1799  0.1705  0.0110
62363W        W 5301   3.902  23.975   3.584 -0.3747  0.0212  0.0697
62364W        W 5302   1.760  23.879  31.152  0.0592 -0.1310 -0.0941
62365W        W 5303   0.539  25.295   1.177 -0.3797  0.2227  0.1765
62366W        W 5304   1.854  23.251   4.561 -0.3092 -0.1181 -0.1530
62367W        W 5305   2.290  23.953   3.193 -0.0796  0.0168 -0.0286
62368W        W 5306   2.329  24.723   0.578 -0.0600 -0.0641  0.1894
62369W        W 5307   2.223  22.711   2.501 -0.2065 -0.0839  0.2764
62370W        W 5308   2.300  23.857   0.867  0.1471 -0.0697  0.1659
62371W        W 5309   1.960  23.917   2.092 -0.0763 -0.3935 -0.0695
62372W        W 5310   2.413  22.308   2.767 -0.1273  0.2876 -0.1164
62373W        W 5311   0.952  24.334   3.431  0.0024 -0.1242  0.2912
62374W        W 5312   1.872  22.199   1.346  0.1248  0.1596 -0.1710
62375W        W 5313   5.001  25.914  31.783 -0.0716  0.0220 -0.3660
62376W        W 5314   3.441  23.327   2.622  0.3821  0.1801  0.0223
62377W        W 5315   2.282  23.449   0.074  0.1805 -0.1851 -0.3422
62378W        W 5316  34.498  25.617   2.596 -0.0828  0.0271 -0.1938
62379W        W 5317   2.526  24.578  31.385  0.0088  0.2208 -0.1618
62380W        W 5318   1.936  23.188   0.309  0.0310 -0.2404  0.0226
62381W        W 5319   0.580  25.327   1.899  0.0698  0.1581 -0.0844
62382W        W 5320   0.935  23.998  31.561 -0.1938 -0.1210  0.2281
62383W        W 5321   1.401  23.596   2.106 -0.0183  0.2566  0.0544
62384W        W 5322   2.729  22.585  31.936 -0.1241  0.1273  0.1629
62385W        W 5323   2.779  24.495  31.825  0.1853  0.1014  0.3475
62386W        W 5324   1.910  22.820   4.319 -0.1113  0.2938 -0.2235
62387W        W 5325   4.260  22.292   3.863  0.2787  0.2995  0.0185
62388W        W 5326   4.304  23.020  31.533  0.1286 -0.4551 -0.3480
62389W        W 5327   2.795  21.854   3.042 -0.2454 -0.1039 -0.0766
62390W        W 5328   0.554  22.333   3.310  0.0479 -0.0566 -0.0065
62391W        W 5329   3.068  24.324   1.517 -0.3769 -0.1650 -0.0505
62392W        W 5330   1.162  22.151   2.067  0.1474  0.0851  0.1540
62393W        W 5331   2.337  23.864   4.083  0.0113 -0.1000  0.3498
62394W        W 5332  33.901  24.827   2.487 -0.2229  0.0469  0.0023
62395W        W 5333   2.496  22.094   2.143 -0.2606  0.0948  0.2875
62396W        W 5334   0.816  23.805   0.931 -0.2834  0.2516  0.1535
62397W        W 5335   2.414  22.349   3.345 -0.0269 -0.4255 -0.2641
62398W        W 5336   2.814  24.168   1.917  0.2504  0.1495 -0.1545
62399W        W 5337   2.414  24.389   0.193  0.1742  0.4429 -0.1750
62400W        W 5338   1.027  24.028   2.403  0.3015  0.2328 -0.0756
62401W        W 5339   1.244  22.956   1.330 -0.1919  0.1860  0.1757
62402W        W 5340   2.833  23.987   0.721  0.0152  0.2048  0.1806
62403W        W 5341   3.704  23.354  30.881 -0.1533  0.0305  0.0667
62404W        W 5342   1.878  25.135   0.005  0.0122  0.0732  0.0781
62405W        W 5343   2.328  23.420   4.382  0.2769 -0.0289 -0.1363
62406W        W 5344   2.633  23.487   3.345 -0.3665  0.0798  0.0425
62407W        W 5345   2.683  23.507   0.807 -0.1481  0.0489 -0.2272
62408W        W 5346   3.284  22.498   2.439  0.0119 -0.3050  0.0094
62409W        W 5347   3.290  23.914   3.228  0.0200 -0.0119  0.1590
62410W        W 5348   1.835  22.756   3.100 -0.0707  0.0306  0.0790
62411W        W 5349   0.566  22.259   2.824  0.5015 -0.0406  0.0820
62412W        W 5350   3.753  25.785   3.195  0.1402  0.1664  0.1583
62413W        W 5351   3.139  25.431  31.752  0.2185  0.0840 -0.1000
62414W        W 5352   5.390  24.341   2.771  0.1023 -0.1721  0.0888
62415W        W 5353   5.149  24.195   2.305 -0.0318 -0.1390 -0.1890
62416W        W 5354   1.923  22.871   0.713 -0.2902 -0.4373 -0.0766
62417W        W 5355  34.575  24.125   2.075  0.0131  0.1480 -0.1453
62418W        W 5356   2.179  23.461   4.919  0.1331 -0.1430  0.0462
62419W        W 5357   1.569  22.114   0.167 -0.0348  0.1062 -0.0865
62420W        W 5358   2.867  22.398   3.008 -0.1465  0.2525 -0.1353
62421W        W 5359   1.519  24.811   0.196  0.0646  0.0121  0.0023
62422W        W 5360   1.987  24.412   1.954 -0.0990 -0.2799  0.1794
62423W        W 5361   4.322  22.664   0.447  0.0711  0.0749 -0.4285
62424W        W 5362   0.503  24.227   2.534  0.0826 -0.1001  0.0173
62425W        W 5363   0.867  25.495   3.439  0.0744  0.1230  0.0811
62426W        W 5364   0.498  23.550   0.198  0.1821 -0.0659 -0.3469
62427W        W 5365   2.735  24.740   0.979  0.3129  0.2763 -0.2533
62428W        W 5366   1.863  24.322   2.454 -0.1348  0.0375  0.1063
62429W        W 5367   3.061  24.893   2.789 -0.4056 -0.1088  0.3238
62430W        W 5368   2.103  21.465   1.009 -0.2600  0.2222  0.1794
62431W        W 5369   3.431  22.199   4.365 -0.1901 -0.1467  0.0554
62432W        W 5370   0.220  24.986   0.429  0.0988  0.0528 -0.2506
62433W        W 5371   1.848  21.931   0.929 -0.0983 -0.0831 -0.0780
62434W        W 5372   2.001  25.946   3.140  0.1204  0.0805 -0.3069
62435W        W 5373  34.109  24.541   2.027 -0.1587  0.0196  0.1617
62436W        W 5374   1.490  25.285   2.036 -0.1173  0.1891  0.1500
62437W        W 5375   1.554  22.068   2.948  0.1256  0.1042  0.2487
62438W        W 5376   1.703  23.150   2.377 -0.2653  0.2983  0.2625
62439W        W 5377   0.639  24.280   0.895 -0.1586  0.2191 -0.0843
62440W        W 5378   3.705  23.863   2.823 -0.0616 -0.1318 -0.0160
62441W        W 5379   2.791  23.886   3.141 -0.1172  0.1170  0.1580
62442W        W 5380   1.155  23.984   1.373  0.0505  0.0507 -0.1895
62443W        W 5381   3.436  25.126   3.609 -0.0327 -0.0700 -0.2400
62444W        W 5382   2.488  24.927   1.981 -0.1058 -0.0239  0.3108
62445W        W 5383   0.728  24.868   1.309  0.1010 -0.0301 -0.2032
62446W        W 5384   0.328  22.135   3.781  0.0896  0.0715  0.1772
62447W        W 5385   0.447  23.358   4.269 -0.2984  0.2636 -0.0141
62448W        W 5386   1.857  24.955   0.632  0.3356 -0.0556 -0.0939
62449W        W 5387   2.106  22.244  31.361  0.1917  0.2055 -0.2084
62450W        W 5388   2.021  24.508  31.292 -0.2521  0.0376  0.0664
62451W        W 5389   1.638  25.725   3.390  0.1691  0.0974  0.1412
62452W        W 5390  34.629  25.172   2.711 -0.2642 -0.2324 -0.0006
62453W        W 5391   1.792  26.566   0.515  0.1043 -0.2935 -0.0634
62454W        W 5392   2.875  24.723  30.918  0.2625 -0.3521 -0.1526
62455W        W 5393   2.481  25.011  31.118  0.4056 -0.0345  0.1887
62456W        W 5394   3.369  26.054   3.458  0.1724  0.4136  0.0322
62457W        W 5395   1.040  22.991   0.415 -0.0900  0.2637 -0.1042
62458W        W 5396   1.989  26.247   2.153  0.0796 -0.1344 -0.3308
62459W        W 5397  34.049  23.742   0.833  0.0626  0.1645 -0.3682
62460W        W 5398   2.362  25.109   0.971 -0.0419  0.0158 -0.0655
62461W        W 5399   1.407  26.556   0.786  0.2654  0.0146 -0.1487
62462W        W 5400   3.525  25.212   2.571 -0.2854 -0.1536 -0.1118
62463W        W 5401   2.548  20.837  31.490 -0.0174 -0.3436 -0.0839
62464W        W 5402   3.186  23.887   2.739  0.1167 -0.0133 -0.0217
62465W        W 5403   3.154  24.396   0.989 -0.1306 -0.0831  0.1601
62466W        W 5404   1.390  24.243   3.723  0.3446  0.2410  0.2422
62467W        W 5405   2.016  24.115   1.419  0.0086  0.0353  0.2925
62468W        W 5406   2.728  23.200   0.435 -0.0806 -0.0824 -0.2104
62469W        W 5407   1.859  23.523   3.210 -0.1589  0.0097  0.2228
62470W        W 5408   4.084  21.809   3.613 -0.0504 -0.0796  0.0706
62471W        W 5409  34.238  26.308   3.030 -0.2252 -0.1282 -0.1555
62472W        W 5410   3.213  24.876   1.331 -0.1453  0.1805  0.0114
62473W        W 5411   0.539  23.031   0.514  0.1374  0.0507  0.1306
62474W        W 5412   1.720  24.672  31.711 -0.0032 -0.0745 -0.1878
62475W        W 5413   3.637  23.191   1.724  0.1484  0.0168  0.4062
62476W        W 5414   3.669  24.636  29.998 -0.2908  0.2643  0.0001
62477W        W 5415   2.157  22.698   1.185  0.1031  0.1161  0.0430
62478W        W 5416   1.097  26.552   1.202  0.1434  0.0392 -0.0308
62479W        W 5417   1.600  25.169   1.554 -0.2638 -0.4256  0.0249
62480W        W 5418   3.132  26.743   2.829  0.1443 -0.0180  0.0300
62481W        W 5419   0.453  22.395   1.760 -0.0402  0.0145  0.0108
62482W        W 5420   3.297  23.595   1.393 -0.1556  0.0288  0.0469
62483W        W 5421   0.796  22.690   3.002  0.1517 -0.1308  0.2053
62484W        W 5422   4.591  22.719   3.148  0.1223 -0.1590  0.2331
62485W        W 5423   1.174  24.683   0.788  0.0960  0.0689  0.0094
62486W        W 5424   2.510  24.335   0.922  0.0409  0.0180  0.0036
62487W        W 5425   1.613  24.738   2.316 -0.0058 -0.1499  0.1341
62488W        W 5426   0.701  23.594   2.559  0.0888  0.0637  0.1902
62489W        W 5427   2.335  22.923   0.219  0.3989 -0.1363  0.1661
62490W        W 5428   2.236  23.637   3.606  0.0531  0.0632 -0.0778
62491W        W 5429   3.727  24.198   0.002 -0.2763  0.1335  0.1915
62492W        W 5430   2.496  25.366   3.431  0.2613  0.0812  0.0224
62493W        W 5431   0.853  23.169   1.810  0.2880  0.0058  0.1876
62494W        W 5432   2.723  22.063  31.937 -0.0326  0.0191  0.1410
62495W        W 5433   1.549  23.179   2.852  0.2166 -0.1274 -0.0126
62496W        W 5434   0.923  22.782   3.488 -0.0807  0.2153  0.0085
62497W        W 5435   2.574  25.609   2.620 -0.3315 -0.3583 -0.0749
62498W        W 5436  34.410  21.457   0.819  0.0673  0.2422  0.2255
62499W        W 5437   3.724  26.024  31.375  0.2691  0.2959  0.2227
62500W        W 5438   2.679  23.396   2.146  0.0486 -0.1952  0.2550
62501W        W 5439   1.162  26.049   1.507  0.0993 -0.2038 -0.0248
62502W        W 5440   2.002  24.631   1.035  0.2456 -0.1185 -0.1853
62503W        W 5441   2.640  25.223   1.398  0.0831 -0.0585 -0.1192
62504W        W 5442   0.190  25.002   2.054  0.4957  0.1988  0.1497
62505W        W 5443   2.369  25.788   2.183  0.0506 -0.3287 -0.1524
62506W        W 5444   3.738  24.564   2.292  0.1633 -0.0537 -0.0054
62507W        W 5445   1.884  22.590   0.310  0.1456  0.2397  0.2323
62508W        W 5446   1.719  23.994   0.678 -0.1688  0.1599 -0.0753
62509W        W 5447  33.915  25.455   0.971 -0.1160  0.2455  0.1834
62510W        W 5448   3.678  23.637   2.149  0.3311  0.1626  0.0026
62511W        W 5449   4.124  22.215   2.709  0.0182 -0.0809  0.0038
62512W        W 5450   1.968  25.688   0.627 -0.0184  0.1707  0.0971
62513W        W 5451   3.632  21.721   3.659 -0.1732 -0.2998  0.1297
62514W        W 5452   2.197  23.966   2.568  0.0472 -0.4495  0.0646
62515W        W 5453   2.844  25.945   3.412 -0.3706  0.1413 -0.0380
62516W        W 5454   0.980  22.896  31.741  0.0661 -0.1639  0.0140
62517W        W 5455   2.258  23.158   3.299 -0.1116  0.1676 -0.2907
62518W        W 5456   1.533  24.265   2.095 -0.3197  0.0187 -0.1003
62519W        W 5457   2.943  27.076   0.514 -0.3333 -0.0338  0.0496
62520W        W 5458   4.116  24.775   1.298  0.1429  0.1436  0.1046
62521W        W 5459   2.470  23.908   2.119  0.1896 -0.2251 -0.2165
62522W        W 5460   2.926  25.781   2.231  0.0768  0.3029 -0.3098
62523W        W 5461   1.879  22.650   2.108 -0.1586 -0.1396  0.0668
62524W        W 5462   3.332  22.748   1.158  0.3393  0.2229 -0.0220
62525W        W 5463   2.217  22.092  31.896 -0.0966  0.0776  0.1267
62526W        W 5464   0.866  24.646   2.907  0.1772 -0.0403  0.1717
62527W        W 5465  34.569  24.564  30.368 -0.0138  0.3526  0.1933
62528W        W 5466   0.760  24.083   0.476 -0.0634  0.0705  0.1373
62529W        W 5467   0.161  23.433   2.055  0.1686  0.3362  0.2662
62530W        W 5468   2.141  22.170   3.722  0.3355  0.0893  0.2185
62531W        W 5469   0.437  23.652   2.978 -0.1335  0.2088  0.0325
62532W        W 5470   0.712  24.191   1.600  0.3259 -0.2997 -0.1446
62533W        W 5471   1.686  22.721  31.879 -0.2571  0.0294 -0.0910
62534W        W 5472   3.905  25.565  31.555 -0.0730  0.0391  0.0048
62535W        W 5473   0.425  21.603   1.487 -0.0092 -0.0149 -0.2312
62536W        W 5474  33.940  23.305   2.295  0.2232  0.2446  0.4151
62537W        W 5475   1.944  24.967   1.923  0.1284 -0.0457 -0.4184
62538W        W 5476   3.538  25.762   0.331  0.2370  0.0036  0.3569
62539W        W 5477   2.243  23.325   1.114 -0.0713  0.0594  0.0139
62540W        W 5478   4.444  24.487   3.867  0.0169  0.3187  0.0635
62541W        W 5479  34.358  23.931  31.743  0.0475 -0.2242  0.0298
62542W        W 5480   1.702  22.752   5.190  0.3569 -0.1452 -0.0679
62543W        W 5481   1.946  22.233   3.186  0.0306 -0.1485  0.3425
62544W        W 5482   1.281  21.824  31.511  0.2362  0.0869  0.4854
62545W        W 5483   2.305  23.525   1.839  0.0092 -0.2887  0.0400
62546W        W 5484   2.311  25.618   1.084  0.1851  0.3254 -0.2386
62547W        W 5485   4.396  26.034  31.357 -0.2000 -0.0971  0.4389
62548W        W 5486   0.881  25.989   3.246  0.1519  0.3730  0.1177
62549W        W 5487   1.355  26.275   2.935 -0.1748  0.3370  0.1115
62550W        W 5488   0.209  22.040   3.035 -0.1069  0.1367  0.0934
62551W        W 5489   2.996  23.213   2.471 -0.0896  0.0255 -0.0229
62552W        W 5490   1.180  25.441   2.726  0.2154  0.1681 -0.1804
62553W        W 5491   2.596  25.572   0.674  0.1068  0.2985  0.1629
62554W        W 5492   5.186  21.444   2.654 -0.1047  0.0250 -0.0352
62555W        W 5493   2.205  22.979  31.366  0.3750 -0.0567 -0.3505
62556W        W 5494   0.506  22.874   4.089  0.1719 -0.1990 -0.0386
62557W        W 5495   1.020  24.453   2.157 -0.1443 -0.3158 -0.0712
62558W        W 5496   2.814  24.113   2.451  0.4962  0.0734 -0.2180
62559W        W 5497   1.556  22.564   1.036  0.1478  0.0517  0.2302
62560W        W 5498   3.544  22.111   0.553 -0.1513  0.4571  0.3237
62561W        W 5499   1.738  26.109   0.753  0.0889  0.2026 -0.0858
62562W        W 5500   1.283  23.565   1.586 -0.1373 -0.0861  0.0661
62563W        W 5501   2.070  24.247   0.535 -0.0463  0.2787 -0.0152
62564W        W 5502   2.224  24.958   3.523 -0.0057  0.0498 -0.2457
62565W        W 5503   1.569  24.945   1.043 -0.0580  0.2028  0.2301
62566W        W 5504   2.082  22.665   3.524 -0.1768  0.3181  0.0728
62567W        W 5505   1.227  23.792  30.621  0.3611 -0.1002  0.1639
62568W        W 5506   3.945  23.582  31.312 -0.1074 -0.2668  0.0784
62569W        W 5507   2.865  27.193   2.758  0.1243 -0.0442 -0.1633
62570W        W 5508   3.353  25.396   2.091  0.2979  0.1903  0.0188
62571W        W 5509   2.661  24.783   3.110 -0.3358  0.0479 -0.0280
62572W        W 5510   2.357  24.402   2.266  0.0333  0.0359  0.2389
62573W        W 5511   2.073  23.082   2.775  0.0990 -0.2749 -0.0656
62574W        W 5512   2.006  24.667   0.194 -0.2017 -0.1714 -0.0819
62575W        W 5513   1.928  23.795   0.245 -0.1628  0.1960  0.0650
62576W        W 5514   4.527  23.233   1.823 -0.1215 -0.2062  0.1313
62577W        W 5515   1.271  23.541   2.663 -0.0478  0.0204  0.1640
62578W        W 5516   1.634  21.251   0.900 -0.0996  0.1473  0.1852
62579W        W 5517   1.956  25.997   1.207 -0.1244  0.1012  0.0252
62580W        W 5518   3.091  25.425   2.511 -0.0002 -0.1573 -0.0908
62581W        W 5519   1.824  24.409   6.266  0.1721 -0.3645 -0.5315
62582W        W 5520  34.682  23.698   4.034 -0.1091 -0.2468 -0.2593
62583W        W 5521   2.582  22.945   4.966 -0.0972  0.0900  0.2993
62584W        W 5522   2.707  23.505   4.674  0.1502  0.0534  0.1250
62585W        W 5523  34.391  22.006   4.510 -0.5024  0.1128 -0.1109
62586W        W 5524   3.162  25.300   4.173  0.0426  0.0239  0.0232
62587W        W 5525   0.927  21.333   7.043  0.1726 -0.1079 -0.1083
62588W        W 5526   2.166  24.120   5.059  0.2653  0.3304 -0.2089
62589W        W 5527   2.504  24.921   7.694 -0.0998  0.1060  0.0321
62590W        W 5528   2.142  25.381   2.832 -0.2864  0.1526 -0.1188
62591W        W 5529   0.584  23.090   7.184  0.1213  0.3365 -0.2436
62592W        W 5530   0.280  22.727   6.688  0.1249  0.0133 -0.0979
62593W        W 5531   0.962  22.191   5.242 -0.1285  0.0985 -0.0232
62594W        W 5532   0.422  21.694   7.638 -0.3349 -0.1788  0.0084
62595W        W 5533   1.114  22.826   7.190  0.1619 -0.1858 -0.1116
62596W        W 5534   0.669  24.331   3.878  0.0244  0.1389 -0.1050
62597W        W 5535   0.183  21.762   6.706 -0.1857  0.0085 -0.2164
62598W        W 5536   1.418  23.101   5.443  0.1886 -0.0361 -0.1723
62599W        W 5537   1.791  25.994   4.245 -0.1821  0.0122 -0.2327
62600W        W 5538   0.703  22.587   6.376  0.0046  0.3575 -0.1166
62601W        W 5539   3.107  23.534   6.991  0.0968 -0.0418  0.3832
62602W        W 5540   2.403  24.616   5.425 -0.0752  0.2053  0.3674
62603W        W 5541  34.550  23.780   3.585 -0.1138  0.0254  0.0720
62604W        W 5542   0.068  24.872   6.091  0.0654  0.5337 -0.0452
62605W        W 5543   0.799  24.263   6.006 -0.1715  0.0157  0.0060
62606W        W 5544   3.939  23.027   6.909  0.0400  0.3765 -0.0257
62607W        W 5545   1.905  23.449   4.099  0.0181  0.0404 -0.1243
62608W        W 5546   1.891  24.673   4.871  0.2221  0.1225 -0.0711
62609W        W 5547   3.402  25.274   5.632  0.3390  0.0077 -0.0515
62610W        W 5548   3.632  21.886   6.201  0.0124 -0.0980  0.3180
62611W        W 5549   0.952  24.552   5.593 -0.4514 -0.1702  0.1734
62612W        W 5550   0.630  25.293   5.360 -0.0918 -0.0254  0.2583
62613W        W 5551   0.632  24.935   4.795  0.0973  0.0280 -0.0732
62614W        W 5552   3.692  23.842   4.245 -0.1967 -0.2256 -0.2108
62615W        W 5553   3.998  25.511   7.034  0.0356 -0.1320  0.0001
62616W        W 5554   0.560  25.829   5.680 -0.5034 -0.2560  0.1971
62617W        W 5555  34.580  24.657   2.241  0.3351 -0.0356 -0.1127
62618W        W 5556   1.651  24.884   6.865  0.1242 -0.1962 -0.2122
62619W        W 5557   2.530  25.990   6.190  0.1104  0.1229 -0.0917
62620W        W 5558   1.879  22.646   6.293  0.0693  0.0470  0.0443
62621W        W 5559   1.379  22.963   5.931 -0.1304 -0.0696 -0.0198
62622W        W 5560   0.636  26.255   2.875 -0.0127 -0.0053  0.2654
62623W        W 5561   2.180  23.713   5.508 -0.0335  0.0388  0.2696
62624W        W 5562   1.363  23.705   6.614  0.3020  0.0573 -0.0504
62625W        W 5563   0.957  24.289   6.442 -0.0590  0.1283  0.0959
62626W        W 5564   3.804  23.657   8.074 -0.4045 -0.3035 -0.1081
62627W        W 5565   1.563  24.946   2.827  0.3116 -0.2723 -0.0046
62628W        W 5566   2.935  22.990   4.601  0.2048  0.0757  0.0301
62629W        W 5567   1.574  22.813   4.682 -0.0563  0.0898 -0.0840
62630W        W 5568   3.505  22.985   4.017  0.1592  0.2989 -0.0578
62631W        W 5569   1.533  22.566   5.675 -0.0507 -0.0969  0.0607
62632W        W 5570   1.056  24.086   4.720  0.0313 -0.2652 -0.0205
62633W        W 5571   1.356  21.799   5.339  0.3180  0.1399  0.0045
62634W        W 5572   2.191  23.471   6.459  0.3072 -0.3129  0.3720
62635W        W 5573   2.497  22.519   5.271 -0.2531 -0.0347 -0.0874
62636W        W 5574   1.765  22.267   6.615  0.0988  0.1727  0.1207
62637W        W 5575   1.431  25.567   5.920  0.0658 -0.0216 -0.0120
62638W        W 5576   0.550  23.100   6.408  0.2882 -0.1725 -0.2332
62639W        W 5577   2.896  25.435   2.975 -0.2913  0.0305 -0.0166
62640W        W 5578   2.294  24.176   3.715  0.2349 -0.1653  0.1383
62641W        W 5579   2.885  25.217   3.791  0.0757 -0.2759  0.1839
62642W        W 5580   1.475  23.654   4.841 -0.2102  0.1372 -0.1785
62643W        W 5581  34.087  24.698   6.270  0.0127  0.3596  0.0014
62644W        W 5582  33.927  22.741   7.442  0.1381  0.0900  0.2293
62645W        W 5583   0.338  23.041   1.752  0.0248  0.0380  0.0919
62646W        W 5584   2.754  24.538   7.437 -0.0721  0.2367 -0.1112
62647W        W 5585   0.048  23.999   6.358 -0.1409  0.1139 -0.1549
62648W        W 5586   4.277  23.214   7.172  0.0338 -0.2614 -0.3446
62649W        W 5587   0.293  23.518   5.659  0.0365 -0.0153  0.1364
62650W        W 5588   3.063  23.392   5.562  0.2781  0.2931  0.3200
62651W        W 5589   1.295  25.416   3.659 -0.2338 -0.0660 -0.2180
62652W        W 5590   4.002  22.052   6.486  0.1726 -0.2565  0.1633
62653W        W 5591   3.156  22.491   6.520  0.0688 -0.0123 -0.3825
62654W        W 5592   0.251  24.191   4.154  0.2630  0.2795  0.2337
62655W        W 5593   1.889  24.012   3.479  0.0224  0.2368  0.1607
62656W        W 5594   2.899  25.117   7.916  0.1007  0.1418 -0.1776
62657W        W 5595   2.528  23.354   5.460 -0.3534 -0.2016 -0.0138
62658W        W 5596   1.229  25.093   5.927 -0.3420 -0.1933  0.0801
62659W        W 5597   2.606  23.312   6.686  0.1833  0.2165  0.1842
62660W        W 5598   1.603  25.041   8.308 -0.0826  0.2623 -0.0016
62661W        W 5599   0.540  25.794   3.739 -0.1152  0.0561  0.2501
62662W        W 5600  34.017  24.309   4.207 -0.0780 -0.0701 -0.1933
62663W        W 5601   1.052  25.056   5.309 -0.1797 -0.1392 -0.2554
62664W        W 5602  34.574  22.779   5.303 -0.1609  0.1126 -0.0017
62665W        W 5603   0.350  23.959   5.442 -0.1578 -0.0835  0.0411
62666W        W 5604   4.082  23.702   6.870 -0.4534 -0.3010  0.0858
62667W        W 5605   0.337  22.482   7.201  0.0962 -0.0440  0.1515
62668W        W 5606   4.490  21.955   6.098  0.1109  0.1631  0.0117
62669W        W 5607   0.173  24.507   3.290  0.3223  0.4912  0.2062
62670W        W 5608   4.154  24.434   5.449 -0.0397 -0.0770 -0.1469
62671W        W 5609   3.548  22.885   6.552  0.0210 -0.1908  0.1130
62672W        W 5610   2.800  24.375   3.944 -0.0105  0.0706 -0.1853
62673W        W 5611  34.604  22.633   6.305 -0.1283  0.1828  0.0308
62674W        W 5612   0.590  23.723   3.821 -0.1589  0.2578 -0.2465
62675W        W 5613   1.403  21.024   7.646 -0.3537  0.2791 -0.0186
62676W        W 5614  34.134  24.311   5.302 -0.0164 -0.0253 -0.0740
62677W        W 5615   3.048  23.024   7.013 -0.2609 -0.0593  0.2161
62678W        W 5616   0.998  23.016   3.936  0.0705 -0.2167  0.1585
62679W        W 5617   3.178  22.776   5.029  0.2959 -0.0364 -0.2122
62680W        W 5618   1.626  23.081   3.956  0.0375 -0.0512  0.1266
62681W        W 5619   1.107  24.402   4.245  0.0897  0.0503  0.0921
62682W        W 5620   3.832  21.677   6.705 -0.0554  0.1695  0.2736
62683W        W 5621   2.281  25.064   4.506  0.1761 -0.0496 -0.1386
62684W        W 5622   3.286  25.323   7.230  0.0906  0.0644  0.1429
62685W        W 5623   3.295  24.346   4.139  0.4416  0.2673 -0.0147
62686W        W 5624   0.153  21.931   8.326 -0.1519 -0.3304  0.1629
62687W        W 5625   1.929  22.257   4.183  0.1675  0.1596  0.0041
62688W        W 5626   0.243  25.162   5.074 -0.1505 -0.0282  0.0982
62689W        W 5627   0.584  23.941   4.854 -0.0012  0.0583  0.0891
62690W        W 5628   1.334  22.346   4.750  0.3650  0.2748  0.1547
62691W        W 5629   3.110  25.138   6.064 -0.0876 -0.1976 -0.0171
62692W        W 5630   1.281  23.445   3.786  0.2287  0.0343 -0.1934
62693W        W 5631   0.932  23.415   6.505  0.0543 -0.1122 -0.0731
62694W        W 5632   2.799  22.809   6.515 -0.0187 -0.2102 -0.0390
62695W        W 5633   3.273  23.955   6.614 -0.0011  0.0732  0.0007
62696W        W 5634   1.644  24.370   5.236 -0.1809  0.1495 -0.3310
62697W        W 5635   0.167  23.236   3.889 -0.5485 -0.1404 -0.1310
62698W        W 5636   2.679  25.971   4.241 -0.0071  0.1088  0.1944
62699W        W 5637   1.337  24.778   3.230 -0.2916  0.2954  0.2031
62700W        W 5638   0.762  23.798   5.611  0.1529 -0.4313 -0.2512
62701W        W 5639   2.232  25.171   5.124  0.4358  0.0888 -0.1746
62702W        W 5640   3.370  24.402   6.643 -0.1534  0.1881  0.1090
62703W        W 5641  34.342  24.912   5.868 -0.0175 -0.0226  0.1119
62704W        W 5642   3.222  23.296   7.431  0.1751 -0.2356 -0.1647
62705W        W 5643   1.277  23.084   4.367 -0.0073 -0.1100 -0.0347
62706W        W 5644   0.963  24.035   6.823 -0.2670 -0.0086  0.3027
62707W        W 5645   2.688  22.078   5.284 -0.2746  0.2622  0.1005
62708W        W 5646   3.559  21.556   5.004 -0.2316 -0.4704 -0.0155
62709W        W 5647   2.784  23.856   6.761  0.1167  0.0306 -0.0570
62710W        W 5648   3.477  23.235   5.187 -0.2599 -0.2133 -0.0574
62711W        W 5649   3.193  22.669   4.381  0.0210  0.2958 -0.0299
62712W        W 5650   1.471  22.488   4.277  0.1123 -0.1261  0.2427
62713W        W 5651   0.305  25.052   7.147 -0.2592 -0.0718 -0.1010
62714W        W 5652   1.943  24.351   4.464  0.0066 -0.1562  0.0582
62715W        W 5653   1.308  23.437   6.182  0.1348 -0.0107  0.0000
62716W        W 5654   1.800  23.364   5.221 -0.1686 -0.3326  0.2818
62717W        W 5655   2.952  23.949   4.742 -0.2240  0.0506  0.3374
62718W        W 5656   1.156  24.103   5.686  0.0786  0.1093  0.2306
62719W        W 5657   1.953  24.445   6.763 -0.3570 -0.1816 -0.0470
62720W        W 5658   2.935  24.829   4.882 -0.0012  0.1227  0.2036
62721W        W 5659   1.193  21.934   7.438  0.0710  0.1196  0.0601
62722W        W 5660   1.850  23.064   3.534 -0.0495 -0.0712 -0.3383
62723W        W 5661   2.692  23.100   6.004  0.2656 -0.0921 -0.0872
62724W        W 5662   0.592  27.180   2.782 -0.0022 -0.2942 -0.1071
62725W        W 5663   4.780  24.513   6.696  0.1527 -0.1381 -0.2014
62726W        W 5664   1.987  22.930   5.866 -0.1758 -0.2965  0.3217
62727W        W 5665   2.349  21.393   6.360 -0.0256 -0.1094  0.0608
62728W        W 5666   3.206  23.116   6.002 -0.1928 -0.3221 -0.0516
62729W        W 5667   3.281  22.039   3.900  0.1287 -0.0872 -0.0400
62730W        W 5668   2.258  22.606   6.600  0.0646  0.0224 -0.0156
62731W        W 5669   1.459  24.892   4.005  0.0969 -0.1595  0.2731
62732W        W 5670   1.141  22.476   6.772 -0.0938  0.1598 -0.1381
62733W        W 5671   0.749  22.841   6.807 -0.1462 -0.3593 -0.0261
62734W        W 5672   1.606  25.242   5.514 -0.2734 -0.5687  0.0126
62735W        W 5673   1.972  24.962   7.543  0.0387 -0.1463  0.1028
62736W        W 5674   1.306  24.004   5.147  0.0236  0.1018 -0.1546
62737W        W 5675   2.014  22.463   7.056 -0.1010 -0.0317 -0.2110
62738W        W 5676   1.594  21.964   4.366  0.0339 -0.2359  0.1868
62739W        W 5677   1.509  25.488   5.079  0.1600 -0.3558 -0.0846
62740W        W 5678   1.438  24.016   4.359 -0.0755  0.1917 -0.0392
62741W        W 5679   0.355  22.244   6.084 -0.0681  0.0335 -0.1246
62742W        W 5680   2.567  25.013   5.869 -0.0731 -0.0469 -0.1141
62743W        W 5681   1.765  25.083   3.607 -0.2009 -0.0942 -0.0851
62744W        W 5682   2.330  23.680   6.943  0.0399 -0.0791 -0.1493
62745W        W 5683   0.553  26.707   2.581 -0.1524 -0.0865  0.0435
62746W        W 5684   3.498  21.892   7.033  0.3536  0.0013 -0.1123
62747W        W 5685  34.603  23.671   5.957  0.5438 -0.2297  0.0015
62748W        W 5686   0.911  24.805   4.038 -0.0945  0.4023  0.4167
62749W        W 5687  33.759  24.357   3.468 -0.0673 -0.1258 -0.2625
62750W        W 5688   4.027  21.564   6.284  0.3552  0.1773 -0.1760
62751W        W 5689   2.692  24.536   5.869 -0.0147  0.2554  0.3467
62752W        W 5690  34.559  22.180   5.928  0.2394  0.1581 -0.0552
62753W        W 5691   2.050  22.895   4.899  0.1475 -0.1472 -0.2180
62754W        W 5692   1.689  24.425   5.706 -0.2643  0.0147 -0.5109
62755W        W 5693   2.910  22.651   5.970 -0.0081 -0.2274  0.1575
62756W        W 5694   3.514  23.373   6.381 -0.1408  0.2632  0.2331
62757W        W 5695   2.866  25.476   5.572  0.0135 -0.0466 -0.0174
62758W        W 5696   0.561  24.101   7.151 -0.0757  0.0784 -0.0181
62759W        W 5697  34.017  24.071   4.696  0.1233  0.0338  0.2169
62760W        W 5698   2.862  22.866   7.506 -0.1055  0.2825  0.0850
62761W        W 5699  34.534  23.060   6.555 -0.2367  0.0378  0.0718
62762W        W 5700   0.749  25.259   3.880 -0.3723  0.2435  0.2961
62763W        W 5701   1.411  24.776   5.532 -0.1559  0.1727 -0.1306
62764W        W 5702   1.857  25.212   4.766  0.0538  0.1839 -0.1292
62765W        W 5703   2.302  26.538   3.214 -0.1258 -0.1038 -0.0402
62766W        W 5704   0.209  22.946   7.549 -0.1107  0.2710 -0.2188
62767W        W 5705   1.967  22.935   7.281 -0.0245 -0.2579 -0.1503
62768W        W 5706   1.507  22.269   5.218 -0.0158 -0.1573 -0.3622
62769W        W 5707   0.273  23.737   4.513  0.0093  0.1405  0.2993
62770W        W 5708   0.852  23.056   5.567  0.2095  0.2922 -0.1453
62771W        W 5709   1.619  22.816   6.901  0.1000 -0.1270  0.0827
62772W        W 5710   2.547  22.892   7.038  0.1556 -0.0764  0.1476
62773W        W 5711   1.192  24.855   8.235 -0.1232 -0.2654 -0.0746
62774W        W 5712   1.427  21.450   6.280  0.1099 -0.2346  0.0248
62775W        W 5713   3.819  24.347   3.329 -0.2316 -0.4047 -0.0009
62776W        W 5714   2.597  24.732   6.766 -0.0561 -0.0521 -0.1632
62777W        W 5715   0.962  23.553   3.041  0.0933 -0.2314  0.1373
62778W        W 5716  33.639  24.521   5.373 -0.0815  0.2818  0.0747
62779W        W 5717   1.841  23.934   3.983  0.1924 -0.3030  0.3336
62780W        W 5718   1.875  22.258   5.976 -0.1326 -0.0540 -0.1906
62781W        W 5719   0.149  24.556   6.943 -0.0143  0.0082 -0.1981
62782W        W 5720   1.455  23.578   4.213 -0.0926  0.0706  0.1977
62783W        W 5721  33.529  24.543   6.890 -0.1436  0.1451 -0.1221
62784W        W 5722   2.021  22.478   5.575 -0.2046  0.1322 -0.1343
62785W        W 5723   2.225  26.121   4.574  0.2209 -0.0233  0.2553
62786W        W 5724   2.719  23.563   4.089 -0.2717  0.1936 -0.0835
62787W        W 5725   3.933  22.106   6.991 -0.0882 -0.2048 -0.1026
62788W        W 5726   2.301  22.577   4.007  0.1427 -0.2444  0.1073
62789W        W 5727   1.669  21.820   6.755  0.0166 -0.0927 -0.1525
62790W        W 5728   1.267  21.168   6.683  0.0891 -0.2597 -0.3453
62791W        W 5729   3.940  24.041   5.165  0.0098 -0.3452 -0.1761
62792W        W 5730  34.055  23.692   6.057 -0.0834  0.3237  0.0677
62793W        W 5731   0.993  26.003   5.795 -0.0803 -0.1982  0.2979
62794W        W 5732   1.717  23.954   5.815  0.0853 -0.0810  0.0671
62795W        W 5733   2.716  21.728   5.651 -0.0122  0.2630  0.2813
62796W        W 5734   0.142  23.744   5.022 -0.2435  0.1184 -0.1378
62797W        W 5735   1.783  23.614   6.164  0.1010 -0.1021  0.0853
62798W        W 5736   2.781  24.449   4.521 -0.2618  0.3769 -0.0727
62799W        W 5737   1.703  25.656   2.842  0.2140  0.3343 -0.2940
62800W        W 5738   3.990  23.015   7.549  0.1178  0.0814 -0.0505
62801W        W 5739   0.321  24.314   5.131 -0.2398 -0.5103  0.2414
62802W        W 5740   0.622  23.433   5.258  0.0702 -0.0042  0.0815
62803W        W 5741   2.998  23.096   3.829  0.5435 -0.2785  0.1432
62804W        W 5742   0.931  23.502   4.147 -0.0028 -0.1782 -0.1514
62805W        W 5743  34.564  21.448   6.362 -0.0161 -0.0751  0.0729
62806W        W 5744   3.873  23.684   6.395  0.2129  0.0522 -0.2400
62807W        W 5745   2.813  23.805   7.356  0.2027 -0.0440 -0.1143
62808W        W 5746   1.176  21.836   6.473  0.2114  0.0309  0.1242
62809W        W 5747   3.403  24.489   7.321  0.3690  0.0856  0.0524
62810W        W 5748   1.510  23.181   7.241  0.0073 -0.5189 -0.0795
62811W        W 5749   0.335  22.243   6.642  0.0118 -0.1970  0.1136
62812W        W 5750   3.908  26.528   6.316 -0.3614 -0.3524 -0.2165
62813W        W 5751   3.533  21.767   4.535  0.0283  0.2180 -0.1255
62814W        W 5752   3.958  22.279   5.315 -0.2997  0.2581 -0.0769
62815W        W 5753   3.163  22.185   5.871  0.1042 -0.0292  0.1586
62816W        W 5754   2.388  22.724   4.502  0.0428 -0.3895  0.0845
62817W        W 5755   0.438  22.024   5.336  0.2138  0.3616 -0.0639
62818W        W 5756   2.132  25.057   6.982 -0.0411  0.0418  0.5382
62819W        W 5757   2.561  21.813   4.581 -0.2144  0.0274  0.1764
62820W        W 5758   1.486  22.799   7.504  0.1042  0.1189  0.0813
62821W        W 5759   2.737  25.353   4.760  0.0662 -0.1377  0.0107
62822W        W 5760   2.581  24.120   5.447 -0.2151 -0.0670 -0.3339
62823W        W 5761   3.497  23.951   5.881 -0.0158 -0.1156  0.0276
62824W        W 5762  33.680  22.359   4.937 -0.1412 -0.0983  0.0904
62825W        W 5763   1.130  24.760   6.924 -0.0495 -0.0937  0.1888
62826W        W 5764   1.428  22.828   3.477 -0.2404 -0.0068  0.0376
62827W        W 5765   1.053  24.849   4.501  0.3661 -0.0750 -0.1371
62828W        W 5766   1.905  24.904   6.421 -0.3578 -0.0400 -0.4697
62829W        W 5767   3.115  24.108   7.120  0.2935  0.0541  0.4239
62830W        W 5768   1.681  21.432   4.545  0.2343 -0.0320 -0.2247
62831W        W 5769   3.602  22.382   6.407  0.2461 -0.0149 -0.2371
62832W        W 5770   0.425  25.186   3.467 -0.4800  0.0396 -0.0343
62833W        W 5771   2.997  22.581   5.464  0.1756 -0.0589 -0.0129
62834W        W 5772   1.559  26.307   4.526 -0.0139 -0.0916  0.1457
62835W        W 5773  34.332  23.288   6.049 -0.0348  0.1040  0.0009
62836W        W 5774   1.698  24.083   4.813  0.1669 -0.4424 -0.3114
62837W        W 5775   0.731  23.367   5.930  0.0401 -0.0670  0.0308
62838W        W 5776   3.700  23.015   5.973  0.1492 -0.0776  0.0025
62839W        W 5777   1.806  23.150   6.285 -0.1214  0.0329 -0.0530
62840W        W 5778   4.332  23.298   6.721 -0.1624  0.1290 -0.0364
62841W        W 5779   2.329  24.681   7.195 -0.0168 -0.0369  0.0853
62842W        W 5780   0.125  23.186   6.225 -0.2643  0.3148 -0.0239
62843W        W 5781   2.138  23.995   6.526  0.1847 -0.2440 -0.0479
62844W        W 5782   3.367  23.685   3.916 -0.2855 -0.2143 -0.1537
62845W        W 5783   1.770  23.841   5.250  0.0658  0.0762 -0.1078
62846W        W 5784  34.107  22.847   5.650  0.0920 -0.0624  0.1102
62847W        W 5785   0.974  23.850   7.303 -0.2219  0.3437  0.2103
62848W        W 5786   1.306  22.922   6.467 -0.2247 -0.1966 -0.2874
62849W        W 5787   0.924  23.621   4.886 -0.0153  0.0342 -0.0852
62850W        W 5788   1.762  23.963   3.002 -0.2673 -0.1756 -0.0533
62851W        W 5789   1.587  25.176   7.299  0.0200  0.1793  0.2724
62852W        W 5790   0.614  24.870   5.901  0.0164 -0.1399  0.0527
62853W        W 5791   0.755  26.704   4.574  0.1585 -0.1882 -0.0533
62854W        W 5792   1.366  23.162   4.977 -0.1787  0.1273  0.0463
62855W        W 5793   1.876  23.771   4.455 -0.1455 -0.0458  0.0516
62856W        W 5794   3.159  25.456   6.445 -0.0332 -0.0761 -0.0752
62857W        W 5795   1.123  22.093   4.342 -0.0269  0.0849  0.0736
62858W        W 5796   1.493  24.938   5.092 -0.3459 -0.2356  0.1022
62859W        W 5797  34.038  24.718   3.869  0.1761 -0.1573  0.2049
62860W        W 5798   3.189  24.725   4.450  0.0401  0.0556 -0.0328
62861W        W 5799   0.872  25.413   5.822 -0.0606 -0.0121 -0.1674
62862W        W 5800   3.683  24.028   6.941 -0.5650 -0.1970 -0.1654
62863W        W 5801   2.401  21.701   5.105 -0.2378 -0.3282  0.2658
62864W        W 5802   3.671  24.109   6.278 -0.0465  0.0809  0.1693
62865W        W 5803   3.919  22.682   5.010 -0.1394 -0.2339  0.1329
62866W        W 5804   1.936  26.074   5.230  0.2903  0.1244  0.1173
62867W        W 5805   0.906  23.119   4.962 -0.2094 -0.1974 -0.1631
62868W        W 5806   2.825  22.505   4.101  0.0495  0.5146 -0.1100
62869W        W 5807   0.067  23.490   7.265 -0.0737 -0.0073  0.1433
62870W        W 5808   4.534  22.541   7.685 -0.0333  0.0067 -0.1590
62871W        W 5809  34.525  25.588   4.508  0.0043 -0.1562  0.0587
62872W        W 5810   4.360  25.631   3.614  0.0595  0.2001  0.1490
62873W        W 5811  34.532  24.240   4.953  0.0056 -0.2537 -0.1419
62874W        W 5812   1.136  22.709   5.243  0.1035  0.1072 -0.1171
62875W        W 5813   4.371  21.762   6.541 -0.1343 -0.2062  0.1339
62876W        W 5814   0.624  24.683   3.432 -0.0743  0.1823  0.1633
62877W        W 5815   3.153  24.171   6.211 -0.0363 -0.0310  0.2085
62878W        W 5816   1.094  26.175   4.214  0.0653  0.1663  0.0919
62879W        W 5817   1.247  25.286   4.702 -0.2573 -0.1080 -0.1261
62880W        W 5818   0.369  23.976   5.978  0.1528  0.1436  0.2368
62881W        W 5819  33.563  22.647   3.597 -0.2729 -0.2278 -0.0581
62882W        W 5820   4.414  22.140   5.614 -0.1749 -0.0060  0.0403
62883W        W 5821   2.592  23.569   6.247 -0.0829 -0.0240  0.1860
62884W        W 5822   3.923  23.601   7.380  0.0028  0.2187 -0.2293
62885W        W 5823   0.069  23.231   5.137 -0.2927  0.1309 -0.0987
62886W        W 5824   2.969  23.222   5.076 -0.3724 -0.1165  0.1092
62887W        W 5825   1.687  24.031   6.609 -0.0974 -0.0874 -0.3511
62888W        W 5826  34.548  23.517   6.466  0.1072  0.0302 -0.0680
62889W        W 5827   1.696  24.585   3.613  0.0751 -0.0898 -0.0491
62890W        W 5828   3.029  23.977   5.673 -0.0368 -0.1837  0.1510
62891W        W 5829   0.809  23.297   3.533  0.0958 -0.3443  0.1163
62892W        W 5830   3.020  26.032   6.231 -0.1952  0.0552 -0.1054
62893W        W 5831   0.455  22.201   4.875  0.1965 -0.0435 -0.1260
62894W        W 5832   3.397  22.631   6.057 -0.2610  0.1230 -0.2276
62895W        W 5833   0.640  24.747   5.284  0.0390 -0.0846  0.0085
62896W        W 5834   0.483  24.088   6.602  0.1321  0.1260 -0.2723
62897W        W 5835   2.491  24.789   8.165  0.0955  0.2118 -0.1668
62898W        W 5836   0.123  21.363   3.996 -0.2548 -0.0651  0.1795
62899W        W 5837   3.843  25.430   3.621  0.2276 -0.2443 -0.1536
62900W        W 5838   2.681  23.461   7.742  0.0820 -0.0020 -0.1243
62901W        W 5839   0.898  26.684   2.973 -0.3210  0.1308 -0.0737
62902W        W 5840   2.246  23.377   5.904 -0.1527  0.1282  0.2569
62903W        W 5841   2.217  25.706   4.109 -0.0495 -0.2373  0.3904
62904W        W 5842   0.065  22.589   4.854  0.0940 -0.0609 -0.2137
62905W        W 5843   2.646  23.711   5.759  0.4186 -0.5239  0.2094
62906W        W 5844   3.199  24.415   5.813  0.1227  0.1145 -0.2085
62907W        W 5845   1.914  21.417   5.565 -0.2740  0.2196 -0.0461
62908W        W 5846   0.124  22.523   5.652  0.1377 -0.1445 -0.0182
62909W        W 5847   0.184  25.296   3.967 -0.0192 -0.0650 -0.2162
62910W        W 5848   3.951  22.548   6.740 -0.0926  0.0623  0.2966
62911W        W 5849   2.875  22.589   7.897 -0.3533 -0.1208  0.1101
62912W        W 5850   3.381  25.369   3.045  0.1433 -0.0139  0.3242
62913W        W 5851   4.014  23.180   6.348  0.1860 -0.1204 -0.0734
62914W        W 5852   2.622  24.108   6.312 -0.0780 -0.2901  0.0122
62915W        W 5853   2.129  24.679   5.841 -0.0941 -0.0853 -0.2290
62916W        W 5854   0.298  24.038   3.562 -0.4059 -0.2624 -0.1413
62917W        W 5855   1.970  23.976   7.065 -0.1017 -0.0367 -0.0788
62918W        W 5856   1.641  24.463   4.107  0.2726 -0.2827 -0.2610
62919W        W 5857   2.005  25.588   5.374  0.0500  0.3210 -0.1398
62920W        W 5858   3.192  24.344   4.898 -0.2160 -0.1100 -0.2340
62921W        W 5859   2.114  21.559   4.378 -0.1024 -0.0568 -0.1241
62922W        W 5860   1.915  25.137   4.156 -0.0851  0.1536 -0.0873
62923W        W 5861   0.480  22.491   5.228 -0.1944  0.2088 -0.2553
62924W        W 5862   3.464  22.816   5.489 -0.1609  0.0309 -0.0013
62925W        W 5863   3.024  21.786   4.262  0.0002  0.0967 -0.1394
62926W        W 5864   0.353  23.625   6.368  0.1052 -0.1918  0.4239
62927W        W 5865  34.503  24.187   4.349 -0.0312  0.1613  0.0851
62928W        W 5866   0.073  25.573   2.056  0.1031  0.2524 -0.3057
62929W        W 5867   0.099  24.642   4.891 -0.2096 -0.2074  0.1043
62930W        W 5868   0.774  22.107   6.642  0.1438 -0.1454  0.0974
62931W        W 5869   0.268  23.040   5.572 -0.0185 -0.0833  0.1882
62932W        W 5870   0.478  24.409   5.628  0.0615 -0.4580  0.1750
62933W        W 5871  34.181  24.257   3.731  0.0835  0.0036 -0.0502
62934W        W 5872   2.455  24.744   4.891 -0.1873  0.0722  0.3667
62935W        W 5873   0.783  20.935   6.744  0.1716  0.5050 -0.1925
62936W        W 5874   1.490  21.873   4.863  0.1878 -0.2291 -0.1746
62937W        W 5875   2.546  23.775   5.105 -0.1487 -0.1448  0.1490
62938W        W 5876   2.633  24.287   4.968  0.0455 -0.1839 -0.4340
62939W        W 5877   2.166  22.956   5.358  0.1513  0.1307 -0.1430
62940W        W 5878   3.575  25.223   8.826  0.0410 -0.2867  0.0568
62941W        W 5879  34.523  24.780   4.309  0.0379 -0.1765 -0.0908
62942W        W 5880   2.338  23.014   6.303 -0.2906 -0.0256  0.0503
62943W        W 5881   0.747  22.724   7.553 -0.1813 -0.3657 -0.2319
62944W        W 5882   0.778  23.045   4.479 -0.0418 -0.1064 -0.0836
62945W        W 5883   2.140  23.116   6.804 -0.1228  0.2375 -0.0402
62946W        W 5884   2.712  25.843   4.789  0.1359  0.0562  0.1461
62947W        W 5885   2.381  24.535   4.305  0.1209  0.1587 -0.0568
62948W        W 5886   1.929  24.816   5.390 -0.0109 -0.0342  0.0970
62949W        W 5887   1.800  23.414   5.707  0.0689  0.0872 -0.1331
62950W        W 5888   0.046  21.657   7.253  0.0213 -0.2350 -0.4072
62951W        W 5889   2.805  23.019   2.923  0.3160 -0.5760  0.2556
62952W        W 5890   0.333  24.399   6.210 -0.0983  0.2187 -0.0774
62953W        W 5891   3.398  23.077   4.657  0.0341  0.0836  0.0395
62954W        W 5892   3.150  23.121   7.876  0.0922 -0.1747 -0.2573
62955W        W 5893   2.618  22.974   4.088 -0.0284 -0.1304 -0.3440
62956W        W 5894   0.896  21.860   7.848  0.2721 -0.0942 -0.1788
62957W        W 5895  34.415  24.267   6.851  0.0379  0.1575  0.2864
62958W        W 5896   3.045  23.789   5.177  0.0681 -0.1243 -0.0394
62959W        W 5897   0.923  22.163   6.175  0.2006  0.0665 -0.3286
62960W        W 5898   3.592  22.384   5.673  0.3522 -0.1621 -0.0456
62961W        W 5899   2.104  24.250   5.587  0.0809  0.3968 -0.0262
62962W        W 5900  34.683  22.051   6.359  0.1385  0.0996 -0.1650
62963W        W 5901   3.224  22.005   5.363  0.1921 -0.3020 -0.0975
62964W        W 5902   1.437  22.359   7.161  0.0051 -0.2788 -0.2069
62965W        W 5903   2.144  25.154   5.620  0.1998 -0.3848  0.1025
62966W        W 5904   2.002  24.840   8.077 -0.1298  0.0402  0.2499
62967W        W 5905   0.974  23.107   2.656 -0.3476  0.0336 -0.0725
62968W        W 5906   3.093  23.577   3.562  0.3360 -0.0661  0.1054
62969W        W 5907   2.683  25.487   6.048 -0.0005  0.0538 -0.2373
62970W        W 5908   3.485  25.672   8.520 -0.0930  0.1027 -0.2112
62971W        W 5909   2.370  25.355   7.417 -0.4620  0.2928 -0.2856
62972W        W 5910   3.111  23.654   6.103 -0.1627  0.1721 -0.0621
62973W        W 5911  34.150  21.063   6.485 -0.0564  0.2701 -0.1890
62974W        W 5912   0.206  24.187   4.635 -0.0806  0.1600 -0.4033
62975W        W 5913   0.730  24.070   4.295 -0.1079  0.1062 -0.2652
62976W        W 5914   0.932  22.940   6.081 -0.2263  0.0889  0.2099
62977W        W 5915  34.577  22.885   5.861  0.2223 -0.2330  0.2086
62978W        W 5916   2.175  23.100   3.895 -0.2071  0.1177 -0.2554
62979W        W 5917   2.389  24.602   6.342  0.4795  0.0066 -0.1952
62980W        W 5918   2.740  25.108   6.377  0.1590  0.0148 -0.2425
62981W        W 5919   0.067  24.688   9.587  0.2943  0.0364 -0.3688
62982W        W 5920   0.826  22.467   8.791 -0.3039 -0.0997 -0.3513
62983W        W 5921   3.475  24.103   9.189 -0.1248 -0.1957  0.0899
62984W        W 5922   3.574  24.994   8.021 -0.0373 -0.0191 -0.1414
62985W        W 5923  34.543  22.392   8.564  0.2133  0.2074 -0.3252
62986W        W 5924   1.359  25.533   7.594 -0.0405  0.0851  0.0980
62987W        W 5925   2.086  24.461  10.081 -0.1255  0.1020  0.1015
62988W        W 5926   2.260  23.940   9.737  0.0799 -0.2085 -0.2266
62989W        W 5927   1.867  23.270   7.665  0.2792  0.0435  0.2103
62990W        W 5928   1.759  23.146   8.312 -0.0984  0.2586 -0.0375
62991W        W 5929   2.509  21.979   7.470  0.1357  0.0898 -0.0588
62992W        W 5930  33.998  21.749   9.773  0.1646 -0.2205  0.4665
62993W        W 5931   5.927  24.613   9.498  0.1527  0.1757 -0.1627
62994W        W 5932  33.488  23.227   6.605  0.0084 -0.1193  0.3230
62995W        W 5933   0.691  23.929   9.804 -0.0378 -0.2166  0.2480
62996W        W 5934   1.575  22.223   8.412 -0.0895  0.0043  0.0099
62997W        W 5935   0.841  24.621   8.592 -0.2232  0.0815  0.2391
62998W        W 5936   3.000  22.718   9.602  0.0855  0.0273  0.0580
62999W        W 5937   1.787  23.604   8.056 -0.2234 -0.1243  0.3772
63000W        W 5938  34.268  24.148   6.256  0.3104  0.0158 -0.1521
63001W        W 5939  33.494  25.256   8.639 -0.2608  0.1651  0.0232
63002W        W 5940  33.910  24.275   9.849  0.2118  0.2995  0.0616
63003W        W 5941   3.333  21.725   8.086 -0.1285 -0.0056  0.0367
63004W        W 5942   1.798  22.061   9.283 -0.0998  0.0875 -0.2171
63005W        W 5943   0.610  25.302   7.403 -0.2327 -0.0845 -0.1177
63006W        W 5944   2.064  24.687   8.890  0.3983 -0.0900 -0.0368
63007W        W 5945   0.011  22.955   7.029  0.0257 -0.0749  0.1360
63008W        W 5946  34.017  24.558   8.596 -0.0719 -0.0601  0.1011
63009W        W 5947   1.037  24.772   9.520  0.1088 -0.1939 -0.1734
63010W        W 5948   4.489  24.684   8.300 -0.4376 -0.0160 -0.3651
63011W        W 5949   1.387  24.531   6.533 -0.1048  0.0637  0.1245
63012W        W 5950   5.259  25.875   9.560  0.0697  0.0324 -0.3187
63013W        W 5951   0.352  23.755   8.538 -0.0822  0.1187  0.1386
63014W        W 5952   1.469  24.260   7.063  0.1151  0.0386 -0.0735
63015W        W 5953   0.947  25.118   8.603 -0.2882 -0.3150  0.0197
63016W        W 5954  34.561  23.829   7.682  0.0378 -0.0962  0.2358
63017W        W 5955   1.515  25.737   7.144 -0.1579 -0.3011  0.1174
63018W        W 5956   2.423  22.643   8.827 -0.1600  0.2257 -0.1922
63019W        W 5957   0.192  23.472   7.899 -0.0144 -0.1585 -0.1319
63020W        W 5958   2.408  23.100   7.547  0.1217 -0.0825  0.1628
63021W        W 5959   2.209  21.487  10.028 -0.5564 -0.1401 -0.0162
63022W        W 5960   0.602  26.308   9.033  0.1188 -0.0250  0.1206
63023W        W 5961   1.451  23.502   8.591  0.0844  0.0594  0.0423
63024W        W 5962   2.273  23.266   7.982  0.1176 -0.2093  0.1323
63025W        W 5963   1.331  22.287   8.868  0.0814  0.2274 -0.0030
63026W        W 5964   0.186  24.054   9.443 -0.1342  0.3732  0.0277
63027W        W 5965   1.341  23.636  10.189  0.1520  0.0666  0.1830
63028W        W 5966   3.311  25.306   7.702 -0.1172  0.2620 -0.0606
63029W        W 5967   3.020  25.378   8.749 -0.0645 -0.1166 -0.0830
63030W        W 5968   1.543  26.464   5.060 -0.4852 -0.4303 -0.2244
63031W        W 5969   0.255  23.279   6.808 -0.3821 -0.2808  0.2210
63032W        W 5970   1.634  23.263   6.706  0.0807 -0.0992 -0.1152
63033W        W 5971   2.255  21.746   9.032 -0.1765 -0.0089  0.2855
63034W        W 5972   0.351  26.025   9.295  0.1568 -0.0989  0.1815
63035W        W 5973   2.045  25.172   8.938  0.0936 -0.0656  0.2713
63036W        W 5974   2.975  24.622   7.985 -0.4616  0.2768 -0.3047
63037W        W 5975   1.884  23.075   9.673 -0.0948  0.2308 -0.1411
63038W        W 5976   1.811  20.961   9.926  0.0117 -0.0876  0.3354
63039W        W 5977   1.271  23.621   5.727 -0.0754 -0.1188 -0.0173
63040W        W 5978  34.266  24.206   8.850 -0.0563  0.0503 -0.1268
63041W        W 5979   1.259  23.821   9.708  0.1695  0.0842  0.2657
63042W        W 5980   4.392  24.943   7.653  0.3536  0.1411  0.1475
63043W        W 5981  34.514  26.216   9.176 -0.0596 -0.0385  0.1901
63044W        W 5982   0.396  25.766   7.688  0.1997 -0.1576  0.1406
63045W        W 5983   0.416  24.967   8.861 -0.0645 -0.1205 -0.4670
63046W        W 5984   0.049  24.089   7.251 -0.3418 -0.0777 -0.0199
63047W        W 5985  34.525  24.346   9.296  0.0136 -0.1859 -0.3360
63048W        W 5986   2.375  24.955   9.755  0.0246  0.1447  0.1997
63049W        W 5987   3.503  22.967   7.178  0.1338  0.1466  0.3807
63050W        W 5988   4.951  21.993  10.040 -0.3207 -0.0362  0.1487
63051W        W 5989  34.450  23.219   7.456  0.3745 -0.0972 -0.1149
63052W        W 5990   3.368  23.603   8.916 -0.1006  0.1170  0.2298
63053W        W 5991   3.316  23.787   9.672 -0.3239 -0.1871  0.2425
63054W        W 5992   3.838  24.517   7.080 -0.2152  0.0838  0.0459
63055W        W 5993  34.679  20.868   9.230 -0.2546  0.0597  0.0425
63056W        W 5994   0.820  22.344   7.090  0.2444  0.0216 -0.0333
63057W        W 5995   0.618  22.755   9.190 -0.1197  0.0810 -0.1050
63058W        W 5996   0.595  21.737   8.593 -0.4211 -0.2543 -0.0717
63059W        W 5997   2.303  21.921   7.977 -0.2455  0.1055  0.0577
63060W        W 5998   0.040  23.895   8.158  0.1266 -0.0531 -0.1031
63061W        W 5999   0.823  22.403   7.978 -0.1133  0.0396 -0.0381
63062W        W 6000   2.905  26.991   7.527  0.2684  0.0013 -0.0245
63063W        W 6001   2.832  24.231   8.346 -0.1249  0.0790 -0.0885
63064W        W 6002   3.600  25.721   9.073 -0.0005 -0.0719 -0.0708
63065W        W 6003   1.259  22.727   9.751  0.1944 -0.1586 -0.2953
63066W        W 6004   0.679  20.607   8.403 -0.2203  0.0132 -0.0424
63067W        W 6005  34.144  26.021   7.751  0.3143 -0.1878 -0.0924
63068W        W 6006   0.294  25.090   9.470  0.4761  0.1035  0.1816
63069W        W 6007   0.713  20.988   7.991 -0.1921  0.2764 -0.2137
63070W        W 6008   0.718  25.074   9.193  0.1058 -0.1289  0.0142
63071W        W 6009   2.345  25.186   9.306 -0.2580  0.0763  0.3249
63072W        W 6010   2.483  24.360   7.890  0.1950 -0.0497  0.2823
63073W        W 6011   1.839  22.671   8.550 -0.2006 -0.0607  0.1047
63074W        W 6012   0.396  22.656   7.899 -0.0987  0.0787  0.0393
63075W        W 6013   2.563  23.629   9.475  0.0488 -0.0416 -0.0312
63076W        W 6014  34.549  25.424   6.970  0.0237 -0.0704  0.0610
63077W        W 6015   1.175  22.929  10.266  0.1220  0.0464 -0.2937
63078W        W 6016   1.090  24.532   7.763  0.2452 -0.1929 -0.0526
63079W        W 6017   2.865  22.644   9.039  0.0910  0.3740  0.0462
63080W        W 6018  33.859  23.091   7.064 -0.4733  0.0066 -0.1452
63081W        W 6019   2.285  22.217   9.172  0.1416 -0.2649 -0.3218
63082W        W 6020   3.331  24.383   8.167 -0.0688 -0.1586 -0.0967
63083W        W 6021   2.564  23.749   8.362 -0.0537  0.1622 -0.2554
63084W        W 6022   2.090  21.717   7.528  0.0022 -0.0256 -0.2721
63085W        W 6023   2.394  22.445   7.898  0.2140  0.0576  0.1130
63086W        W 6024   2.148  25.007   8.510  0.0466  0.0495 -0.0190
63087W        W 6025   0.511  25.355   8.506 -0.1534 -0.1849  0.1695
63088W        W 6026   1.113  23.146   8.316  0.0644 -0.3006 -0.1335
63089W        W 6027   4.714  25.331   7.612 -0.2437  0.1612 -0.1109
63090W        W 6028   0.002  25.212   9.036  0.1761 -0.0564 -0.3518
63091W        W 6029   3.987  24.672   8.524 -0.2871 -0.1520  0.1092
63092W        W 6030   1.138  22.676   9.132 -0.0847 -0.0539  0.0775
63093W        W 6031   1.146  22.428   7.568 -0.0152  0.0005  0.0353
63094W        W 6032   2.684  22.221   8.847 -0.1578  0.1300  0.1563
63095W        W 6033   0.325  25.333   6.749  0.2628 -0.0519 -0.3341
63096W        W 6034   2.497  22.612   9.555 -0.1521  0.0975  0.1822
63097W        W 6035   2.183  23.083   8.761 -0.0752 -0.0635 -0.1411
63098W        W 6036   1.280  23.715   8.185  0.3510 -0.1820  0.1303
63099W        W 6037   1.244  21.659   8.690 -0.3680 -0.0457  0.0063
63100W        W 6038   0.959  23.774   6.174 -0.1553 -0.2152  0.0741
63101W        W 6039   2.078  23.470   8.487 -0.2251  0.0492  0.0185
63102W        W 6040   0.254  27.953   9.013  0.0215  0.0400 -0.0485
63103W        W 6041   2.074  24.115   9.172  0.0699 -0.0050 -0.0247
63104W        W 6042   1.565  22.646   8.097 -0.0653  0.1171 -0.0461
63105W        W 6043   1.984  26.110   6.381 -0.0137 -0.0014 -0.0682
63106W        W 6044   1.288  23.614   7.678  0.3401  0.2232 -0.1614
63107W        W 6045   0.942  23.528   8.634  0.1159  0.0022  0.3513
63108W        W 6046   0.667  24.657   8.133  0.0794  0.2529  0.1435
63109W        W 6047   2.131  25.231   6.183  0.0323  0.2356 -0.0174
63110W        W 6048   0.859  26.348   9.488  0.0941  0.1045 -0.3771
63111W        W 6049  34.458  23.804   8.577 -0.1559 -0.0483 -0.0789
63112W        W 6050   3.702  23.084   8.180 -0.1373  0.2330  0.1491
63113W        W 6051   0.976  24.399   7.203  0.0857  0.2928 -0.0415
63114W        W 6052   1.388  24.161   7.539 -0.0489  0.1439  0.1726
63115W        W 6053   0.007  22.381   8.009  0.1764 -0.1749 -0.0725
63116W        W 6054   4.641  23.418   8.179 -0.1330  0.2480 -0.3149
63117W        W 6055   2.596  23.211   8.460  0.2289  0.0832 -0.0995
63118W        W 6056  33.253  23.826   8.878  0.3156 -0.0746 -0.2668
63119W        W 6057   0.694  22.778   8.293 -0.1914 -0.1280 -0.4791
63120W        W 6058   0.102  23.424   9.009  0.0311 -0.1522 -0.1481
63121W        W 6059   1.618  22.326   7.630 -0.0405 -0.0677 -0.1099
63122W        W 6060   0.418  22.016   7.203  0.1629 -0.0210  0.5755
63123W        W 6061   3.731  23.783   9.903 -0.3792  0.3782 -0.2186
63124W        W 6062   0.844  22.975   8.763  0.2740  0.1052 -0.4533
63125W        W 6063   0.575  24.346   7.585  0.2039 -0.0123 -0.2976
63126W        W 6064   3.137  24.934   8.941  0.0769  0.0206 -0.1218
63127W        W 6065  34.207  22.819   6.813 -0.1317 -0.0002 -0.1800
63128W        W 6066   0.971  24.048   7.827 -0.3587  0.0754 -0.0298
63129W        W 6067   1.760  23.911   9.535  0.2755  0.1168 -0.2972
63130W        W 6068   1.588  22.834   9.361  0.1660  0.0939 -0.1464
63131W        W 6069   1.270  22.179   8.007  0.4219  0.0493  0.2899
63132W        W 6070   1.938  23.528   9.826  0.3049  0.2719  0.1011
63133W        W 6071   0.512  25.526   9.433 -0.0575 -0.0075  0.4567
63134W        W 6072   0.910  23.605   9.392  0.1693 -0.0014 -0.0005
63135W        W 6073   2.202  20.309   9.704 -0.3580 -0.1483 -0.4622
63136W        W 6074   3.446  27.005   8.672 -0.3487  0.1299 -0.1933
63137W        W 6075  34.257  23.848   7.198 -0.1231 -0.0123  0.0595
63138W        W 6076  32.119  23.696   9.559 -0.3268  0.1238  0.2376
63139W        W 6077   1.785  24.498   8.566 -0.0324  0.3132 -0.3096
63140W        W 6078  34.556  21.837   9.678 -0.1296 -0.3317  0.1886
63141W        W 6079  33.996  25.124   7.842 -0.0602  0.0727  0.0765
63142W        W 6080   1.456  23.755   7.085  0.0010 -0.2528  0.0196
63143W        W 6081  34.276  24.599   9.761 -0.2414  0.0545  0.3188
63144W        W 6082   3.629  22.191   7.439  0.1159 -0.4041 -0.1420
63145W        W 6083   1.389  24.694   7.363  0.0148 -0.0222 -0.1615
63146W        W 6084   1.378  24.131   8.780 -0.1101 -0.0958 -0.4156
63147W        W 6085   2.480  22.262   8.351  0.2158 -0.0322 -0.3473
63148W        W 6086  33.567  21.646   9.550 -0.2764  0.3754 -0.3191
63149W        W 6087   2.241  25.628   8.274 -0.1860  0.4401 -0.3220
63150W        W 6088   1.457  21.899   9.718  0.0296  0.1275 -0.0773
63151W        W 6089   2.291  21.042   7.821 -0.2970 -0.0852  0.3432
63152W        W 6090  34.663  24.328   9.913 -0.0421  0.0565  0.0009
63153W        W 6091   1.407  24.735  10.131 -0.0158  0.0573  0.2148
63154W        W 6092   2.257  24.496   8.457  0.0346 -0.2751  0.2533
63155W        W 6093   2.551  23.144   9.075  0.0881 -0.3664  0.1665
63156W        W 6094   0.013  23.422   8.375 -0.0750  0.1308  0.0774
63157W        W 6095   2.828  24.352  10.367 -0.2594 -0.0043 -0.2818
63158W        W 6096   3.073  23.141   8.932 -0.0555 -0.0533 -0.0765
63159W        W 6097  34.508  24.466   8.373 -0.1802  0.1267 -0.2061
63160W        W 6098   0.596  23.952   8.120  0.0920  0.1224 -0.1895
63161W        W 6099   3.108  22.012   9.631 -0.0660 -0.3172 -0.0347
63162W        W 6100   2.139  25.616   9.270  0.0433 -0.1463 -0.0775
63163W        W 6101   2.925  23.544   8.666  0.2721  0.1571  0.0396
63164W        W 6102   1.203  23.211   9.810  0.0546  0.1096 -0.2352
63165W        W 6103   2.668  22.998   8.029  0.1973  0.2455  0.1750
63166W        W 6104   2.674  23.356   7.220 -0.2189 -0.0617  0.4501
63167W        W 6105   0.906  21.950   8.917 -0.0348 -0.1107 -0.0352
63168W        W 6106   1.025  23.204   7.462 -0.0628 -0.0501  0.3278
63169W        W 6107   0.349  23.927   7.619 -0.2190 -0.2447  0.1105
63170W        W 6108   0.530  24.226   8.869  0.1300  0.0793 -0.1555
63171W        W 6109   1.991  22.310   8.120 -0.1896  0.3546 -0.1254
63172W        W 6110   1.742  22.606  10.038  0.2162 -0.0128  0.2611
63173W        W 6111   0.722  22.204   7.549  0.1021 -0.0369 -0.1533
63174W        W 6112   0.838  23.510   7.971  0.1511 -0.1404 -0.0770
63175W        W 6113   0.132  26.484   9.530  0.0617  0.2518 -0.0575
63176W        W 6114   1.774  21.323   6.594  0.1301  0.4948 -0.1069
63177W        W 6115  33.968  24.586   7.116  0.3722 -0.2183  0.1864
63178W        W 6116   1.583  21.321   8.554  0.2002 -0.4925 -0.0873
63179W        W 6117  32.865  27.959   9.556  0.2060 -0.1566 -0.0612
63180W        W 6118   1.239  24.288   9.339 -0.0151  0.1687 -0.4880
63181W        W 6119   3.638  22.251   9.190 -0.1195 -0.1058 -0.0331
63182W        W 6120   2.209  22.794  10.040 -0.1800  0.1427  0.1158
63183W        W 6121   1.176  25.225   9.998  0.1515  0.0697  0.2455
63184W        W 6122   1.397  23.843   9.179 -0.0134 -0.0894 -0.0523
63185W        W 6123   2.729  23.961   7.889  0.0073 -0.3033  0.0761
63186W        W 6124   1.818  23.880   7.583  0.0978  0.2434  0.0943
63187W        W 6125   0.861  20.697   8.885  0.2763  0.2606  0.0129
63188W        W 6126   0.695  24.511   6.817  0.0945  0.3454  0.1816
63189W        W 6127   0.940  23.962   9.016 -0.0233  0.3310 -0.0391
63190W        W 6128   1.077  25.132   7.309  0.0587 -0.1178 -0.1535
63191W        W 6129   3.062  25.684   8.262 -0.2217 -0.1907  0.0026
63192W        W 6130   1.557  24.551   7.986 -0.1391 -0.0665  0.1247
63193W        W 6131   1.209  24.318   8.284 -0.0879 -0.1084 -0.0269
63194W        W 6132  34.624  22.471   6.919  0.1877 -0.2894 -0.4686
63195W        W 6133   1.890  24.849   9.832 -0.0272 -0.3813 -0.0817
63196W        W 6134  33.948  24.347   6.589  0.0038 -0.0189 -0.1781
63197W        W 6135   3.392  25.744   7.508  0.3172 -0.1979 -0.3222
63198W        W 6136   1.679  24.934   8.806  0.1534  0.0413 -0.1548
63199W        W 6137   3.610  23.405   6.987  0.1939  0.3231 -0.2021
63200W        W 6138   1.733  26.291  11.841  0.0239  0.2206  0.2083
63201W        W 6139   2.951  24.562   9.214  0.0144  0.2950  0.0833
63202W        W 6140   0.870  23.992   8.502  0.4020  0.1722 -0.0035
63203W        W 6141   1.411  23.184   7.960 -0.1703 -0.4008  0.0949
63204W        W 6142   3.574  25.578   7.968  0.2661 -0.2000  0.2684
63205W        W 6143  34.254  21.571   8.206  0.1148 -0.0168  0.1045
63206W        W 6144  34.357  24.905   8.700  0.1873 -0.1744  0.1205
63207W        W 6145   3.567  22.161   8.439 -0.1979 -0.2038  0.0312
63208W        W 6146   3.063  25.626   6.923 -0.2597  0.5020  0.1602
63209W        W 6147   2.095  22.214   8.655  0.0688  0.1337 -0.1644
63210W        W 6148   0.274  24.313   7.971 -0.1872 -0.1593  0.0906
63211W        W 6149  34.688  25.731   8.500 -0.3462 -0.2108 -0.2098
63212W        W 6150   0.352  24.594   9.193 -0.0222 -0.0617 -0.3532
63213W        W 6151  34.462  21.457   7.695 -0.1259  0.0542 -0.0919
63214W        W 6152   2.257  22.825   8.297 -0.1793  0.0045  0.1139
63215W        W 6153   1.080  24.343   9.774  0.0612 -0.0502  0.2006
63216W        W 6154   0.536  23.471   7.526 -0.0818  0.0826 -0.1915
63217W        W 6155   2.621  24.096   9.252  0.0973  0.1178 -0.4968
63218W        W 6156   1.271  23.306   9.034  0.0252  0.0537 -0.1740
63219W        W 6157   0.909  23.085   9.415  0.0241  0.1051  0.0021
63220W        W 6158   1.901  23.456   7.126 -0.0766 -0.1451 -0.2773
63221W        W 6159   1.368  24.046   6.218  0.0422  0.0873  0.2528
63222W        W 6160   0.715  21.603  10.061  0.0038  0.0294 -0.1157
63223W        W 6161   0.221  21.132   7.670  0.1799  0.0129 -0.2044
63224W        W 6162   0.448  22.071   7.919  0.5363 -0.2817 -0.1988
63225W        W 6163  34.486  22.729   9.597 -0.0314 -0.1128 -0.0075
63226W        W 6164   0.722  23.432   9.988  0.4364  0.0501  0.1558
63227W        W 6165   2.630  25.555   7.922  0.2291  0.0462 -0.0100
63228W        W 6166   1.395  22.381   9.434  0.0850 -0.0225 -0.0450
63229W        W 6167   2.932  25.145   6.856 -0.0839 -0.3082  0.3808
63230W        W 6168   2.057  23.445   9.354 -0.0708  0.1169  0.1587
63231W        W 6169   0.641  25.937   8.680 -0.3034  0.0040  0.1739
63232W        W 6170  34.373  23.950   9.701 -0.1855  0.0266  0.2232
63233W        W 6171   2.779  23.991  10.004 -0.3180 -0.2610 -0.0682
63234W        W 6172   4.427  25.285  10.083 -0.0608  0.4503 -0.0225
63235W        W 6173   2.514  20.745   8.215  0.2205 -0.2269  0.1356
63236W        W 6174   0.393  23.136   8.622  0.1516  0.1658 -0.1934
63237W        W 6175  34.611  25.098   6.568 -0.0190 -0.2013 -0.1127
63238W        W 6176   3.249  22.640   8.664  0.0751 -0.1510 -0.2003
63239W        W 6177   0.698  25.720   6.206 -0.1302  0.2471  0.2014
63240W        W 6178   0.289  25.449   9.882  0.3182  0.0777 -0.2291
63241W        W 6179  33.886  23.523   6.847 -0.0626  0.0097  0.0291
63242W        W 6180   0.033  24.557   8.814 -0.0319  0.3143 -0.2273
63243W        W 6181   1.066  25.053   7.763  0.1169 -0.0232  0.0615
63244W        W 6182   2.000  24.356   7.747  0.1750  0.2437  0.0614
63245W        W 6183   1.152  22.511   8.365 -0.0903  0.1707 -0.0450
63246W        W 6184   4.063  24.797   8.034  0.1080 -0.0060  0.2370
63247W        W 6185   1.962  22.773   7.734 -0.0484 -0.3164 -0.2399
63248W        W 6186   2.979  22.298   8.373  0.0953 -0.2003 -0.2046
63249W        W 6187   2.777  21.641   8.130 -0.0387 -0.0045  0.5210
63250W        W 6188   0.569  24.628   9.693  0.0943  0.0711 -0.2929
63251W        W 6189  33.636  23.639   7.301  0.2045 -0.2378  0.1848
63252W        W 6190   0.733  24.782   7.350  0.1046  0.0495 -0.4250
63253W        W 6191   0.422  23.812   9.092  0.1416 -0.0832 -0.0069
63254W        W 6192   0.308  24.261   8.427  0.0392 -0.3183 -0.0073
63255W        W 6193   1.408  21.688   8.192 -0.0835 -0.2038  0.0139
63256W        W 6194   2.929  25.333   9.807  0.2160 -0.0611  0.1701
63257W        W 6195  34.003  23.668   9.799 -0.1352  0.3484 -0.1023
63258W        W 6196   1.949  22.515   9.580 -0.0487 -0.1414 -0.1145
63259W        W 6197   2.126  24.049   8.635 -0.1518 -0.2771  0.0205
63260W        W 6198   3.274  25.253   8.297 -0.0705 -0.0689 -0.1212
63261W        W 6199   1.796  20.931   8.847 -0.2201  0.3358  0.0447
63262W        W 6200  34.348  23.363   6.888 -0.2307  0.0517 -0.2271
63263W        W 6201  33.433  21.683   6.911 -0.0324 -0.2798 -0.0925
63264W        W 6202   1.807  23.690   8.925 -0.1951  0.0720  0.1050
63265W        W 6203   1.742  25.546   8.014  0.4583  0.3455 -0.1410
63266W        W 6204   2.141  25.367   7.844 -0.0639  0.0751  0.2618
63267W        W 6205   1.498  19.866   9.080 -0.3376 -0.0893  0.1344
63268W        W 6206   2.136  24.005   8.040  0.2503  0.3582  0.2471
63269W        W 6207   3.157  24.806   7.599 -0.5893 -0.0450 -0.2085
63270W        W 6208   2.421  21.797   8.506  0.1013  0.1814 -0.1462
63271W        W 6209   1.569  24.058   8.023  0.1925  0.0452 -0.2715
63272W        W 6210   3.925  23.269   9.342 -0.2663  0.3143 -0.2410
63273W        W 6211   3.009  21.803   8.556 -0.0749 -0.1519 -0.0279
63274W        W 6212   3.443  21.742   9.343  0.2072  0.1636  0.1384
63275W        W 6213   2.721  24.530   8.759 -0.2411 -0.1426 -0.3871
63276W        W 6214  34.430  25.081   9.520  0.0883  0.4632 -0.4359
63277W        W 6215   1.132  23.359   7.008  0.1633 -0.1181  0.3117
63278W        W 6216   0.868  24.569   9.078  0.4333 -0.2718 -0.1247
63279W        W 6217   1.375  22.857   8.716 -0.0335  0.0916  0.2036
63280W        W 6218   4.470  25.039   6.168 -0.0409 -0.1306  0.1317
63281W        W 6219   1.939  24.373   9.576  0.2728 -0.0542  0.1064
63282W        W 6220   1.498  25.395   9.164 -0.2252  0.0397 -0.4978
63283W        W 6221   1.292  24.611   8.794  0.2566 -0.1300 -0.1399
63284W        W 6222   0.139  22.009   8.830  0.2479 -0.0681 -0.0712
63285W        W 6223   1.076  22.831   7.917  0.0351 -0.0970  0.2555
63286W        W 6224   1.710  23.874   8.499  0.0546  0.2975 -0.1341
63287W        W 6225   2.684  21.761   9.597 -0.1216 -0.0371  0.0221
63288W        W 6226   0.222  21.457   9.811 -0.0773 -0.1062 -0.0770
63289W        W 6227   1.841  20.974   8.359 -0.2498  0.0710  0.1332
63290W        W 6228  34.514  26.148   8.205  0.1545 -0.1397 -0.0585
63291W        W 6229  34.061  26.624   8.711  0.0997  0.1259 -0.3442
63292W        W 6230   1.717  28.558   3.186  0.0443 -0.0771 -0.1994
63293W        W 6231   1.685  27.847   0.436  0.0391  0.0316 -0.0030
63294W        W 6232   4.240  27.643   0.362  0.1335 -0.4497  0.1311
63295W        W 6233   4.520  27.464   1.187 -0.0856 -0.1867 -0.0870
63296W        W 6234  33.977  26.006   0.861  0.0974  0.0292 -0.1369
63297W        W 6235   1.970  28.813   0.316 -0.3489  0.1534 -0.0063
63298W        W 6236  34.675  24.945   3.185  0.0129 -0.0823 -0.2447
63299W        W 6237   2.393  28.401   1.540  0.0451 -0.1950 -0.2987
63300W        W 6238   4.210  29.554   2.833 -0.0714  0.0992  0.2378
63301W        W 6239   3.158  26.654  31.129 -0.0976 -0.2420  0.3680
63302W        W 6240  34.671  26.541   3.540 -0.0455  0.0772 -0.0375
63303W        W 6241   1.190  29.633   2.538  0.0277  0.2735 -0.3661
63304W        W 6242   2.471  26.966   0.288  0.1003 -0.3946  0.3131
63305W        W 6243   0.731  25.634   2.436 -0.1171 -0.3029 -0.0009
63306W        W 6244   4.119  27.086   1.202 -0.2137 -0.0054  0.0797
63307W        W 6245   0.430  28.350   1.829  0.0780 -0.1050  0.1489
63308W        W 6246   2.276  26.903   1.729 -0.2100  0.0872 -0.3099
63309W        W 6247   2.195  27.482   0.406  0.1797 -0.1482 -0.1080
63310W        W 6248   3.022  29.139   1.737  0.1496 -0.0619 -0.0239
63311W        W 6249   2.656  26.256   2.298  0.1481 -0.0131  0.1096
63312W        W 6250   3.130  24.573   3.333  0.0952  0.0745  0.1773
63313W        W 6251   2.973  29.186   1.230 -0.1391 -0.0164 -0.2449
63314W        W 6252  34.013  26.077  31.874  0.0005  0.1086  0.2176
63315W        W 6253   0.425  26.074   1.494 -0.0221 -0.2164 -0.0843
63316W        W 6254   1.327  27.748   2.294 -0.0846 -0.1688 -0.1100
63317W        W 6255   4.561  26.597   1.120 -0.1814  0.2427 -0.0181
63318W        W 6256   4.047  27.177   0.641  0.0111  0.1047 -0.1064
63319W        W 6257   1.887  28.432   1.031 -0.0252  0.3373  0.0216
63320W        W 6258   1.069  30.182   2.242 -0.2355  0.1711  0.3293
63321W        W 6259   3.670  26.793   2.669  0.0520  0.2444  0.1118
63322W        W 6260   2.529  27.360   1.808  0.1342 -0.2513 -0.0547
63323W        W 6261   0.981  28.869   1.381  0.0038 -0.0212  0.0888
63324W        W 6262   2.225  29.128   0.617 -0.0728 -0.2768 -0.2659
63325W        W 6263   3.567  28.822   0.401 -0.0550 -0.4714 -0.2172
63326W        W 6264   2.654  28.050   3.020 -0.0685  0.1449 -0.1734
63327W        W 6265   1.643  30.830   2.993 -0.0618 -0.0449 -0.0248
63328W        W 6266   0.661  27.401  31.718  0.5092  0.1127  0.0114
63329W        W 6267   1.208  28.510   3.307 -0.0890  0.2444  0.0042
63330W        W 6268   1.429  28.978   3.297  0.0788  0.3429  0.1712
63331W        W 6269   2.674  27.026   2.104 -0.2236  0.1352 -0.0757
63332W        W 6270   3.209  27.508   0.513 -0.1781 -0.2004 -0.1169
63333W        W 6271   1.877  29.371   0.359  0.1758 -0.1896 -0.0513
63334W        W 6272   2.857  27.826   0.944  0.1330 -0.5500 -0.0171
63335W        W 6273   0.914  28.119   3.112  0.1692  0.1026  0.0881
63336W        W 6274   0.486  28.777   1.419  0.1752  0.2285  0.4263
63337W        W 6275   4.235  25.239   2.284  0.2762  0.0612  0.0515
63338W        W 6276   1.667  29.396   1.076  0.0907  0.1499  0.3861
63339W        W 6277   3.634  27.191  31.801  0.1592 -0.1503 -0.0962
63340W        W 6278   1.165  26.700   0.297  0.3861  0.0755 -0.2461
63341W        W 6279   3.759  27.787   1.596  0.1356 -0.0053 -0.1720
63342W        W 6280   2.913  26.205   1.365  0.1575  0.1593 -0.0585
63343W        W 6281   1.069  29.364   2.066  0.0812  0.0387 -0.1555
63344W        W 6282   1.686  25.481   1.009  0.0516 -0.3096  0.3475
63345W        W 6283   2.444  28.179   2.184 -0.3353  0.0708  0.0785
63346W        W 6284   1.661  28.305   0.173  0.0215  0.0666 -0.1692
63347W        W 6285   4.283  27.488   2.642 -0.1023 -0.2633 -0.0619
63348W        W 6286   2.756  28.706   0.970  0.1119 -0.1875  0.0504
63349W        W 6287   0.498  25.945   0.754 -0.0002 -0.0055 -0.0377
63350W        W 6288   4.060  30.050   1.592 -0.4181  0.1837 -0.0837
63351W        W 6289   3.571  29.174   1.945  0.2765  0.0592 -0.1402
63352W        W 6290   3.090  30.161   1.080  0.0937  0.0718 -0.1026
63353W        W 6291   0.851  27.473   1.112  0.3157  0.1553 -0.1763
63354W        W 6292   0.517  26.979   1.702  0.2513  0.0669 -0.1829
63355W        W 6293   0.130  27.063   2.825 -0.0533 -0.0450  0.2855
63356W        W 6294   3.229  24.811  31.665  0.4163  0.1290  0.3432
63357W        W 6295   4.175  27.029   1.962  0.1179  0.0671  0.0988
63358W        W 6296   1.005  28.485   1.910 -0.3001  0.1522 -0.0639
63359W        W 6297   5.389  25.830   1.151  0.3471 -0.0049  0.1976
63360W        W 6298   2.412  28.268   0.981 -0.2568  0.1287  0.2156
63361W        W 6299   3.235  28.439   2.150  0.0105  0.1140 -0.0145
63362W        W 6300   4.204  27.425  31.087  0.2760  0.1773  0.2172
63363W        W 6301   2.387  25.482   1.705 -0.3467 -0.0430  0.1710
63364W        W 6302   2.034  26.454   1.669 -0.0765 -0.2784 -0.1331
63365W        W 6303   1.219  29.214  31.373 -0.3513  0.2648  0.1651
63366W        W 6304   1.238  28.130   0.148  0.1390 -0.2236  0.0872
63367W        W 6305   3.436  28.745   2.649 -0.1287  0.1207  0.1511
63368W        W 6306   3.990  28.196   0.512 -0.1366  0.3492 -0.4840
63369W        W 6307   1.276  28.506   1.490 -0.2486 -0.1178 -0.2208
63370W        W 6308   3.151  25.792   3.987  0.1232  0.3572  0.0700
63371W        W 6309   1.845  29.054   2.262  0.2516 -0.0001 -0.2687
63372W        W 6310  34.584  27.484  31.570  0.0499  0.2047 -0.1137
63373W        W 6311   1.719  27.915   0.914  0.2500 -0.1409  0.3798
63374W        W 6312  33.928  27.747   0.730 -0.1193  0.0913 -0.1225
63375W        W 6313   1.926  25.563   2.014 -0.0487  0.0229  0.2770
63376W        W 6314   0.347  28.378   1.099  0.0186  0.3160  0.0806
63377W        W 6315   4.519  25.703  31.825  0.1888 -0.1932 -0.0656
63378W        W 6316   0.579  25.886   1.953  0.0506  0.0005  0.1348
63379W        W 6317   4.048  26.108  31.772  0.0927 -0.0844  0.0822
63380W        W 6318   1.433  28.272   1.090 -0.2430 -0.1079  0.0535
63381W        W 6319   3.888  30.953   2.433  0.5121 -0.0773  0.0835
63382W        W 6320   4.762  26.764  31.090 -0.1241  0.2509 -0.1558
63383W        W 6321   3.172  27.204   0.106  0.2461 -0.1749 -0.1122
63384W        W 6322   2.484  26.238   1.793 -0.2330 -0.1045 -0.2351
63385W        W 6323   1.942  26.496   1.077 -0.1941 -0.3618 -0.2582
63386W        W 6324   0.874  26.664   2.172  0.1111 -0.0063  0.1107
63387W        W 6325   1.076  26.005   2.075  0.0747  0.0005 -0.0984
63388W        W 6326   4.390  27.057   2.439  0.0988 -0.1155  0.0447
63389W        W 6327  33.995  26.143  30.756 -0.0395 -0.2780  0.1681
63390W        W 6328   2.860  26.295   0.070 -0.1410 -0.1682 -0.1243
63391W        W 6329   1.268  27.035   1.053  0.5186 -0.1983 -0.1594
63392W        W 6330   1.727  27.411   0.696  0.0938  0.0527  0.0217
63393W        W 6331   3.388  25.782   2.455 -0.2495 -0.1445 -0.1496
63394W        W 6332   3.048  30.243   0.565  0.1629  0.1614 -0.0252
63395W        W 6333   3.102  28.938   3.253  0.0467 -0.1417  0.1095
63396W        W 6334   2.907  28.999   2.765  0.0027  0.0620 -0.1532
63397W        W 6335  34.462  26.164   2.553  0.1838  0.1520 -0.0351
63398W        W 6336   0.535  26.373   0.421 -0.0480  0.1494  0.1721
63399W        W 6337   0.328  30.107   2.741  0.0525  0.2260 -0.3062
63400W        W 6338   2.737  29.095   2.278 -0.1048 -0.1517  0.4026
63401W        W 6339   1.843  26.702  30.611  0.2237  0.0295 -0.0277
63402W        W 6340   4.349  29.098   2.474 -0.1406 -0.0258  0.0104
63403W        W 6341   2.432  27.977   0.443 -0.1291 -0.1540  0.0824
63404W        W 6342   1.332  28.273   2.359 -0.1234  0.2020  0.0178
63405W        W 6343   3.757  25.965   2.713 -0.4635 -0.0107 -0.0258
63406W        W 6344   5.300  26.435   2.399  0.0332 -0.2454 -0.0180
63407W        W 6345   3.109  27.109   0.978  0.2522 -0.0143  0.0212
63408W        W 6346   0.951  25.960   0.508 -0.1880  0.0331  0.0665
63409W        W 6347   2.785  28.285   0.170  0.1876  0.2008 -0.3331
63410W        W 6348   1.052  27.931   1.262  0.1154  0.2312  0.1559
63411W        W 6349   1.433  27.257   1.449 -0.2406  0.1067 -0.0337
63412W        W 6350   2.059  28.586   2.156 -0.3705 -0.0544 -0.0919
63413W        W 6351   4.319  25.796   0.446  0.3268 -0.0073 -0.1536
63414W        W 6352  34.413  28.029   3.175 -0.0135 -0.1589  0.0722
63415W        W 6353   2.713  25.676   3.777  0.0435  0.3597 -0.0330
63416W        W 6354   2.272  27.710  31.509 -0.1728  0.0401 -0.1611
63417W        W 6355   1.803  28.348   3.593 -0.0653 -0.2125  0.0060
63418W        W 6356   3.140  26.646   1.290 -0.0972 -0.1224 -0.1152
63419W        W 6357   3.674  26.121   0.976 -0.4250 -0.0525 -0.2411
63420W        W 6358   2.322  28.365   2.648 -0.0860  0.0036  0.0108
63421W        W 6359   3.577  27.806  31.606 -0.1031 -0.0138  0.1986
63422W        W 6360   2.418  26.825  31.754  0.0732  0.1117 -0.0058
63423W        W 6361   2.686  25.741  31.837  0.1887  0.1384  0.0427
63424W        W 6362   0.552  27.873   2.448 -0.2578  0.1560 -0.2484
63425W        W 6363   2.857  29.266   0.547  0.0210  0.1671  0.1042
63426W        W 6364   3.053  27.406   1.862 -0.4691 -0.1575  0.0734
63427W        W 6365   1.477  27.059   0.011  0.2238 -0.3683  0.2725
63428W        W 6366   3.868  28.711   1.212  0.1335  0.0843 -0.0058
63429W        W 6367   0.278  27.229   1.367  0.2635 -0.0050  0.0610
63430W        W 6368   1.338  27.895   2.811  0.2423  0.3509 -0.1773
63431W        W 6369   2.804  28.635   2.031 -0.2989  0.2236 -0.0657
63432W        W 6370   2.926  25.961   2.692  0.0619 -0.0754  0.0940
63433W        W 6371   1.588  25.992  31.893 -0.0835  0.1770 -0.3891
63434W        W 6372   2.340  26.036   0.810  0.0586 -0.2846 -0.1645
63435W        W 6373   0.693  27.961  29.996  0.0388  0.0974  0.0620
63436W        W 6374   3.649  28.303   1.957  0.0216  0.0315 -0.1268
63437W        W 6375   3.241  27.167   3.152  0.0889  0.0091 -0.1867
63438W        W 6376   2.526  25.033   2.691  0.0877  0.0759  0.1645
63439W        W 6377   3.838  26.197   3.529 -0.2023  0.0585 -0.1756
63440W        W 6378   3.975  26.638   0.936 -0.0851  0.0860  0.0916
63441W        W 6379   2.836  27.481   1.336  0.3011 -0.3091  0.1368
63442W        W 6380   1.898  26.958  31.628  0.0921  0.1946  0.1070
63443W        W 6381   2.669  26.750   3.015  0.0586  0.2764 -0.0159
63444W        W 6382   1.216  27.812   3.513  0.1105 -0.0893  0.1188
63445W        W 6383   0.434  28.364   2.327 -0.1862 -0.2285  0.3606
63446W        W 6384   2.896  27.647   3.195  0.1875 -0.1354  0.0630
63447W        W 6385   3.166  28.094   0.399  0.0738  0.2997 -0.0547
63448W        W 6386   1.852  27.323   3.754 -0.2725 -0.2833 -0.0998
63449W        W 6387   3.123  25.870   0.102 -0.1758 -0.2103  0.1660
63450W        W 6388   0.215  29.062   0.665  0.1591  0.2437  0.1433
63451W        W 6389   1.705  28.598  31.211 -0.2046 -0.0019  0.1571
63452W        W 6390   1.036  25.929   2.691  0.4150  0.2793 -0.3020
63453W        W 6391   3.175  29.607   3.028  0.1072  0.2581 -0.0240
63454W        W 6392   1.714  27.194  30.764  0.1053  0.0770  0.0277
63455W        W 6393   2.086  29.289   2.758 -0.0419  0.0305 -0.1011
63456W        W 6394   1.135  29.143   0.978 -0.1768 -0.1538  0.1303
63457W        W 6395   3.144  27.624   2.670 -0.0802 -0.3006  0.0337
63458W        W 6396   0.834  28.258   2.649  0.0735 -0.1947 -0.1050
63459W        W 6397  34.597  27.035   0.282  0.0346  0.1179 -0.1586
63460W        W 6398   1.235  27.683   1.683 -0.0787 -0.1521 -0.1630
63461W        W 6399   3.383  25.415   1.533  0.2790  0.1519 -0.0770
63462W        W 6400   3.194  27.386  31.591 -0.3644  0.3056  0.2625
63463W        W 6401  34.588  26.214   1.327 -0.2312 -0.1895  0.5106
63464W        W 6402   3.855  27.196   2.424  0.0624 -0.0643  0.3093
63465W        W 6403  34.336  29.193   3.174 -0.1691 -0.0263 -0.1499
63466W        W 6404   2.995  26.348   3.709 -0.0547 -0.0911  0.0374
63467W        W 6405   3.744  27.664   0.459  0.1567 -0.1569 -0.0610
63468W        W 6406   4.114  27.847   2.990  0.2678 -0.2724 -0.1942
63469W        W 6407   1.777  28.173   2.840  0.0696 -0.2060  0.2681
63470W        W 6408   1.400  26.255   0.378 -0.1775  0.2136  0.3548
63471W        W 6409   3.291  27.874   1.841 -0.1352  0.2699 -0.1548
63472W        W 6410   2.646  26.929   0.965  0.1084  0.3813  0.0402
63473W        W 6411  33.659  27.274   0.669  0.1476 -0.0879 -0.2904
63474W        W 6412   3.818  28.774   1.674  0.0752 -0.0230  0.0693
63475W        W 6413   1.268  27.597   0.110  0.3021 -0.2145  0.0043
63476W        W 6414   0.844  28.941   1.868 -0.0917 -0.3279  0.1362
63477W        W 6415   3.415  27.106   3.643 -0.2980  0.0702 -0.1873
63478W        W 6416   2.047  28.182   1.864  0.3368 -0.0132 -0.2564
63479W        W 6417   3.444  26.200   1.422 -0.0031  0.1257 -0.1424
63480W        W 6418   2.439  26.077   1.322  0.3037 -0.2198  0.0481
63481W        W 6419   3.407  27.463   2.283  0.0889 -0.1543 -0.0587
63482W        W 6420   3.808  28.045   1.076 -0.2151  0.2634 -0.1847
63483W        W 6421   1.663  27.816   3.790  0.1815  0.3896  0.0381
63484W        W 6422   0.946  27.516   3.132  0.1261 -0.1496 -0.2396
63485W        W 6423   1.630  25.894   1.723 -0.1683  0.2044  0.0495
63486W        W 6424   4.796  29.312   0.849 -0.3428 -0.0774 -0.2306
63487W        W 6425   4.610  27.194   2.011 -0.0289  0.3344 -0.1340
63488W        W 6426   1.638  27.848   1.422 -0.1408  0.2331  0.2007
63489W        W 6427  34.462  27.518   2.455 -0.3900 -0.3236 -0.0303
63490W        W 6428   1.575  28.594   0.661  0.1966  0.2656  0.1735
63491W        W 6429   1.808  26.802   1.935 -0.2561  0.2067  0.0334
63492W        W 6430   0.940  28.009   2.141 -0.1771 -0.1804  0.1376
63493W        W 6431   0.760  27.623   0.231 -0.0115 -0.2837 -0.1892
63494W        W 6432   1.620  28.614   1.990 -0.2243 -0.1875  0.1670
63495W        W 6433   3.328  26.265   0.456 -0.1841 -0.2368  0.0865
63496W        W 6434   3.213  28.598   0.052  0.0010  0.3863 -0.0014
63497W        W 6435   3.152  26.211   0.933 -0.0337 -0.0693 -0.0079
63498W        W 6436   3.342  25.874   3.002  0.0938 -0.0553 -0.2004
63499W        W 6437   2.107  27.845  31.969 -0.3708 -0.1884  0.0296
63500W        W 6438   2.452  26.219   3.558 -0.0782 -0.2441  0.4053
63501W        W 6439   0.425  26.721   3.103  0.1257 -0.1994 -0.0171
63502W        W 6440   2.224  28.436   0.290  0.2346  0.0625 -0.0848
63503W        W 6441  34.498  26.708   3.038  0.2794 -0.0705 -0.0732
63504W        W 6442   2.400  28.943   4.411  0.2254  0.0791  0.0258
63505W        W 6443   1.768  26.768   2.427 -0.0376  0.1015  0.1871
63506W        W 6444   2.568  27.886   1.412  0.4336  0.1851  0.1574
63507W        W 6445   0.568  25.596   0.206 -0.0160  0.0645  0.2948
63508W        W 6446   1.975  27.223   1.600  0.2462  0.0932  0.0990
63509W        W 6447   4.126  27.977   1.896  0.0491 -0.0632  0.3256
63510W        W 6448   0.075  28.315   0.198  0.0220  0.2496  0.2515
63511W        W 6449   3.648  27.416   1.882 -0.2319 -0.0573 -0.1317
63512W        W 6450   1.331  27.307   3.430  0.3532 -0.1015 -0.2543
63513W        W 6451   3.417  26.346  31.492  0.2077  0.0065 -0.1279
63514W        W 6452   2.177  27.729   1.680 -0.0643 -0.2151 -0.2467
63515W        W 6453   2.508  26.547   1.386 -0.0204  0.2273  0.2033
63516W        W 6454   0.321  25.396   2.488 -0.4048 -0.1037  0.0185
63517W        W 6455   3.910  27.904   0.016 -0.0945 -0.0470  0.3761
63518W        W 6456   3.701  26.951   1.655  0.1546  0.0079  0.2057
63519W        W 6457   2.946  26.200   1.892 -0.0067 -0.0176  0.2754
63520W        W 6458   3.183  27.093   1.498  0.0296 -0.2188 -0.0112
63521W        W 6459   2.545  27.777   4.330 -0.2552  0.0170  0.0689
63522W        W 6460   0.902  27.560   2.570  0.0360 -0.3044 -0.0769
63523W        W 6461   3.566  28.819   3.118 -0.1487 -0.0326 -0.4686
63524W        W 6462   2.648  27.395   0.751  0.3250  0.1707  0.1394
63525W        W 6463   3.373  27.186   2.688  0.1430  0.2759  0.3162
63526W        W 6464   3.964  27.582   0.930 -0.1678  0.1118  0.0901
63527W        W 6465   3.867  27.799  31.068 -0.2724 -0.2796  0.0629
63528W        W 6466   0.591  27.092   2.215  0.1858 -0.1534 -0.0712
63529W        W 6467   2.060  27.786   4.457 -0.1949 -0.2034  0.0055
63530W        W 6468   0.908  25.364  31.818 -0.2048 -0.3937  0.2459
63531W        W 6469   3.644  24.722   3.802 -0.1106 -0.2679 -0.2063
63532W        W 6470   2.765  30.275  31.550  0.0770  0.1856  0.0088
63533W        W 6471   2.932  28.304   1.685  0.4114 -0.1972 -0.1289
63534W        W 6472   2.873  28.320   1.183  0.1705 -0.2847  0.0308
63535W        W 6473   1.547  26.283   1.243  0.1849  0.0991  0.0361
63536W        W 6474  34.213  29.159   4.273 -0.1584 -0.2470  0.2849
63537W        W 6475   1.230  26.300  31.637 -0.2180  0.0375 -0.1143
63538W        W 6476   2.787  28.284   0.655 -0.1191  0.4726 -0.1166
63539W        W 6477   2.343  28.891   2.506 -0.0066  0.1014  0.0529
63540W        W 6478   3.706  26.679   2.171 -0.2140 -0.2606 -0.5188
63541W        W 6479   1.041  24.889   0.351 -0.0317  0.0809 -0.2431
63542W        W 6480   3.509  26.851   4.581  0.0762 -0.3016  0.2677
63543W        W 6481   0.075  28.969   2.950  0.1428 -0.0235  0.0707
63544W        W 6482   3.664  27.346   1.325  0.3189 -0.0847  0.0283
63545W        W 6483  34.677  28.953   2.352 -0.4018  0.0965 -0.0464
63546W        W 6484   0.539  27.893   1.195 -0.0551  0.1605 -0.2417
63547W        W 6485   1.735  28.390   1.511 -0.0570  0.0825 -0.0614
63548W        W 6486   2.253  26.715   2.180  0.0943 -0.0496 -0.0148
63549W        W 6487   3.421  28.236   1.511 -0.2079  0.2263  0.1024
63550W        W 6488   2.075  28.030   1.242  0.1202 -0.0208  0.2190
63551W        W 6489   3.366  26.252   2.674 -0.1783  0.0619  0.0904
63552W        W 6490   2.127  28.573   4.340  0.1289  0.2167  0.0734
63553W        W 6491   1.517  26.272   2.356  0.2022  0.2664 -0.1100
63554W        W 6492   2.790  28.021   2.534  0.1352 -0.1410  0.3100
63555W        W 6493   3.486  29.051   0.876 -0.0877  0.2118 -0.2308
63556W        W 6494   1.546  28.860   1.256 -0.0242  0.0935 -0.0795
63557W        W 6495  34.009  26.887   4.148 -0.1709  0.0435  0.1475
63558W        W 6496   2.358  27.185   3.015  0.2181 -0.0963  0.0738
63559W        W 6497   4.601  27.695   1.796 -0.1336 -0.2482 -0.0308
63560W        W 6498   0.140  25.890   0.418  0.1055  0.1240 -0.2112
63561W        W 6499   1.218  27.934   0.659 -0.0684  0.0692 -0.0590
63562W        W 6500   0.022  28.137   2.804 -0.1069  0.1511  0.1638
63563W        W 6501   1.641  26.744   1.426  0.0773  0.1855 -0.1651
63564W        W 6502   1.611  29.369   1.996 -0.0383 -0.2547  0.3122
63565W        W 6503   2.243  27.253  31.930 -0.1456 -0.2457 -0.0148
63566W        W 6504   2.739  25.881   1.018 -0.0267  0.0472 -0.2025
63567W        W 6505   1.779  29.741   1.650 -0.1561 -0.2146  0.1018
63568W        W 6506   2.039  28.150   0.641  0.1178  0.2295 -0.0569
63569W        W 6507   1.852  27.445   1.166 -0.1011  0.1845 -0.1650
63570W        W 6508  34.535  27.165   1.098  0.1616 -0.2050  0.0637
63571W        W 6509   3.341  29.493   1.187 -0.0086 -0.3768  0.0173
63572W        W 6510   0.566  29.658   1.840  0.2039  0.2850  0.1817
63573W        W 6511   3.268  27.305   4.087 -0.0872 -0.0215  0.0276
63574W        W 6512   4.252  26.040  29.288 -0.0478  0.3715  0.1372
63575W        W 6513   5.027  27.872   1.617  0.1234 -0.3406 -0.2757
63576W        W 6514   4.751  27.903   0.309  0.2938  0.0057 -0.2201
63577W        W 6515   2.908  28.303   3.371  0.0173  0.1366  0.0911
63578W        W 6516   2.729  26.741   2.469 -0.0098  0.1552  0.0218
63579W        W 6517   1.471  26.990   0.539 -0.0676  0.0570  0.1713
63580W        W 6518   1.960  27.456   3.252 -0.1019  0.1566  0.1571
63581W        W 6519   4.106  26.086   2.308  0.0106 -0.0478  0.1913
63582W        W 6520  34.604  28.494   3.130  0.1159 -0.3468  0.0405
63583W        W 6521   4.377  29.195   0.606  0.2630 -0.2113 -0.0867
63584W        W 6522   0.172  25.854   1.089 -0.1953 -0.0439 -0.2399
63585W        W 6523   1.817  26.993   1.001 -0.1915  0.0536 -0.0502
63586W        W 6524   4.574  27.046   1.458 -0.1669 -0.0119 -0.3674
63587W        W 6525   1.157  28.612   0.953 -0.3380 -0.2390 -0.0342
63588W        W 6526   3.653  27.077   0.904  0.0140 -0.2597  0.1341
63589W        W 6527   1.990  28.951   1.038 -0.1371  0.0010  0.1446
63590W        W 6528   1.234  29.721   1.086 -0.2129  0.1165  0.2031
63591W        W 6529   2.385  29.856   2.669 -0.0735  0.1879  0.2089
63592W        W 6530  34.253  25.752   1.241 -0.2004  0.1566 -0.1786
63593W        W 6531   4.142  27.400   1.599  0.2533 -0.1686 -0.0249
63594W        W 6532   1.783  27.723   2.485  0.1936  0.2466 -0.1682
63595W        W 6533   4.062  26.280   3.009  0.0484 -0.0648 -0.0923
63596W        W 6534   2.236  27.121   0.749 -0.2500 -0.0441  0.3557
63597W        W 6535   3.637  26.718   1.251 -0.1133 -0.2669  0.0099
63598W        W 6536   2.867  27.476   2.317  0.2838  0.2241 -0.1040
63599W        W 6537  34.511  26.337   2.076 -0.0096  0.0219  0.0261
63600W        W 6538   1.515  26.548  31.981 -0.2001  0.1185 -0.1072
63601W        W 6539   4.128  26.871   2.824  0.0387  0.0916 -0.1267
63602W        W 6540   2.718  27.350  31.761  0.2987 -0.1645  0.2887
63603W        W 6541   2.368  28.395   3.592 -0.0267 -0.1264  0.1196
63604W        W 6542   1.554  26.398   1.892  0.0633 -0.1768 -0.2046
63605W        W 6543   2.015  26.606   0.054  0.1631 -0.2548 -0.2917
63606W        W 6544   0.759  27.969   1.664 -0.2291 -0.1359 -0.0111
63607W        W 6545   1.397  27.249   2.492 -0.0657  0.6166 -0.0936
63608W        W 6546   4.989  28.819   2.592 -0.0782 -0.1987  0.2307
63609W        W 6547   1.637  24.484   0.640 -0.0549  0.0383 -0.1242
63610W        W 6548   3.574  28.267   0.183 -0.1357  0.2567 -0.1603
63611W        W 6549   3.233  27.998   2.327  0.2068 -0.0804 -0.0795
63612W        W 6550   1.948  29.693   0.776  0.1416 -0.1001 -0.1068
63613W        W 6551   4.383  27.885   0.814  0.2281 -0.1408 -0.0981
63614W        W 6552   3.175  28.906   2.185 -0.0709  0.1172  0.0995
63615W        W 6553  33.906  27.031   1.112 -0.0301  0.0578 -0.2024
63616W        W 6554   2.296  29.006   1.969  0.0474  0.0704 -0.0825
63617W        W 6555   4.537  28.160   2.084 -0.1701 -0.0851 -0.1247
63618W        W 6556   1.001  25.425   0.384 -0.2405  0.3117  0.1731
63619W        W 6557   3.115  27.884   1.367 -0.1653 -0.1085  0.1204
63620W        W 6558   0.519  29.230   2.146  0.2011  0.2777 -0.1178
63621W        W 6559   6.083  27.769   2.860  0.2562 -0.1785 -0.0762
63622W        W 6560   2.168  27.010   3.435  0.0854 -0.2180  0.2119
63623W        W 6561  33.795  28.369  31.803  0.0194  0.0246 -0.0191
63624W        W 6562   3.276  24.415   2.559  0.0625  0.0689 -0.3028
63625W        W 6563   2.139  27.814   2.895 -0.2066 -0.0520  0.0842
63626W        W 6564   1.900  29.218   3.319  0.1700 -0.3959  0.0848
63627W        W 6565   1.025  28.575  31.898 -0.3546  0.0645  0.2388
63628W        W 6566   2.221  27.774   2.209 -0.2783  0.0875  0.0653
63629W        W 6567   3.299  28.106   0.979  0.3185  0.0619 -0.1487
63630W        W 6568   1.138  29.145  31.952  0.0725 -0.0988  0.0896
63631W        W 6569   3.686  28.727   2.193 -0.2080  0.2413  0.1833
63632W        W 6570   2.212  26.926   1.267 -0.0842  0.1276  0.4563
63633W        W 6571   4.135  29.014   2.000 -0.1228  0.2600 -0.2763
63634W        W 6572   2.435  26.301   0.353 -0.1131 -0.0915  0.2782
63635W        W 6573   3.913  25.211   0.989  0.0623  0.0497  0.0344
63636W        W 6574   4.178  26.157   0.822 -0.1414  0.0803 -0.2944
63637W        W 6575   1.252  26.764   3.281 -0.1243 -0.0838 -0.1536
63638W        W 6576  33.935  27.750   1.848 -0.0717  0.1135 -0.2187
63639W        W 6577   1.010  27.156   0.161  0.3389 -0.1771 -0.4138
63640W        W 6578   1.726  27.735   1.986 -0.3735  0.4246 -0.0494
63641W        W 6579   2.454  25.760   3.123  0.2774  0.0604  0.1635
63642W        W 6580   2.016  26.777   2.918 -0.1289  0.1100  0.0952
63643W        W 6581   1.088  26.973   1.622 -0.1365  0.1417  0.1963
63644W        W 6582   0.743  26.089   1.137 -0.1505  0.1337 -0.0378
63645W        W 6583   3.370  27.702   0.028  0.0707 -0.1803 -0.0747
63646W        W 6584   2.098  27.282   2.022 -0.1156 -0.1384  0.2050
63647W        W 6585   0.793  24.672   1.743 -0.1871 -0.0056 -0.0466
63648W        W 6586   3.509  30.445   0.615  0.0961  0.1699  0.0419
63649W        W 6587   3.631  28.830  31.751 -0.2432 -0.1616 -0.0469
63650W        W 6588   2.278  26.640   0.681  0.3850  0.3240 -0.0104
63651W        W 6589   3.839  27.297   2.904 -0.1145 -0.1163 -0.0650
63652W        W 6590  34.224  27.042   0.738  0.0280 -0.1175 -0.0481
63653W        W 6591   2.547  27.342   3.755  0.0352  0.2502 -0.0178
63654W        W 6592   2.837  27.844   2.026 -0.0181 -0.2792 -0.1747
63655W        W 6593   0.369  24.678   0.010 -0.2608 -0.1687 -0.2202
63656W        W 6594   3.164  26.478   2.264 -0.2000 -0.0057  0.0414
63657W        W 6595   2.376  28.901   1.413 -0.2172 -0.1790 -0.1554
63658W        W 6596   3.266  29.851   0.740  0.3230 -0.0511 -0.0111
63659W        W 6597   1.878  29.062   1.703  0.3347  0.3436  0.0116
63660W        W 6598   2.056  28.799   3.479 -0.0370 -0.0651  0.0069
63661W        W 6599  34.196  26.608   3.426  0.1552  0.0086  0.3193
63662W        W 6600   2.854  26.678   1.703  0.0188 -0.1667 -0.0280
63663W        W 6601   2.041  28.772   2.874 -0.2721  0.1467 -0.0859
63664W        W 6602   3.980  28.636  31.305 -0.3766  0.1616 -0.0137
63665W        W 6603   5.558  27.836   2.114  0.2091  0.2786  0.1454
63666W        W 6604   1.446  26.763  31.533 -0.1921  0.0964  0.2412
63667W        W 6605   0.721  24.920   2.183 -0.1826 -0.1664  0.0856
63668W        W 6606   0.351  28.303   3.307 -0.0532 -0.0129  0.2993
63669W        W 6607   3.514  28.320   2.981 -0.2582 -0.1563  0.1054
63670W        W 6608   1.741  27.461   0.106  0.0619  0.0679 -0.2541
63671W        W 6609   2.828  26.045   0.496  0.0290  0.1973 -0.1917
63672W        W 6610   3.088  28.735   0.581  0.1368 -0.0289  0.2315
63673W        W 6611   1.104  26.484   2.574  0.1704  0.1198  0.1291
63674W        W 6612   3.496  27.027   0.423  0.1813 -0.0889  0.0232
63675W        W 6613   1.712  28.677   2.516 -0.4480  0.1389  0.0732
63676W        W 6614   4.248  27.878   1.306 -0.2404 -0.0205  0.1607
63677W        W 6615   3.663  27.736   2.661  0.1804 -0.0740  0.3049
63678W        W 6616   2.682  27.043   1.426 -0.2320 -0.2938 -0.1900
63679W        W 6617   3.728  27.291  31.202  0.1374 -0.1736  0.0992
63680W        W 6618   3.614  27.653   3.174 -0.0647  0.1632 -0.1135
63681W        W 6619   2.898  29.189   4.547 -0.1848  0.1931  0.0411
63682W        W 6620   0.878  29.252   2.509 -0.2133  0.0412  0.1109
63683W        W 6621   4.013  28.292   1.504 -0.3382 -0.2332 -0.2626
63684W        W 6622   0.151  26.000   2.291  0.2705 -0.2012  0.1054
63685W        W 6623   1.593  27.238   2.050  0.0487  0.2299  0.2229
63686W        W 6624   2.254  27.715   0.899  0.0307 -0.1368  0.0826
63687W        W 6625   3.306  27.543   1.010 -0.3067 -0.0330  0.1975
63688W        W 6626   2.378  27.212   2.474  0.1737 -0.0036  0.0836
63689W        W 6627   2.761  27.629   0.275 -0.1807 -0.0331 -0.1786
63690W        W 6628   1.106  28.798   2.887 -0.1945  0.0064  0.1704
63691W        W 6629   2.593  27.585   2.790 -0.0995  0.0539 -0.0028
63692W        W 6630   0.798  27.510   6.808 -0.1014  0.1371  0.0846
63693W        W 6631   0.371  25.890   3.289  0.1191  0.4245  0.2237
63694W        W 6632   3.143  25.676   4.496  0.0975 -0.0151  0.2348
63695W        W 6633   4.315  27.335   3.164  0.2723  0.1806  0.1110
63696W        W 6634   0.202  25.097   4.536 -0.1151 -0.0201  0.2460
63697W        W 6635   2.257  28.903   4.923 -0.2077 -0.3455 -0.0004
63698W        W 6636   2.148  26.274   5.906 -0.1300 -0.0954 -0.0255
63699W        W 6637   3.090  25.456   5.088  0.3069  0.0511 -0.0639
63700W        W 6638   3.857  28.339   5.364  0.1949 -0.1369  0.1292
63701W        W 6639   3.045  27.427   3.684  0.0334  0.1073  0.3357
63702W        W 6640   1.599  25.859   5.589 -0.0157 -0.0312  0.1909
63703W        W 6641   1.321  29.169   5.052  0.1545 -0.0506 -0.0462
63704W        W 6642   1.215  26.521   3.845 -0.0958 -0.3064  0.1061
63705W        W 6643   0.338  25.604   4.739 -0.1231  0.0117  0.1049
63706W        W 6644   3.510  26.317   6.219  0.1158  0.0670 -0.1632
63707W        W 6645   0.853  27.204   4.797 -0.2846  0.0882 -0.1137
63708W        W 6646   0.584  27.815   4.710 -0.2260 -0.0222  0.2123
63709W        W 6647   2.897  26.373   4.981  0.1573  0.1723  0.2791
63710W        W 6648   0.657  28.626   5.690  0.1063  0.3841 -0.1719
63711W        W 6649   1.671  25.697   6.360  0.5733 -0.1705  0.1621
63712W        W 6650   2.624  26.480   5.897  0.1684  0.1043  0.1556
63713W        W 6651   1.810  28.894   4.586  0.2077  0.1939  0.3624
63714W        W 6652   0.713  27.591   2.087 -0.2825 -0.0760 -0.0721
63715W        W 6653  32.591  25.756   5.971  0.1788  0.0155 -0.2075
63716W        W 6654   0.449  26.892   5.546  0.0379 -0.0504  0.0424
63717W        W 6655   2.354  26.095   5.496  0.2219 -0.0167 -0.0315
63718W        W 6656   3.025  27.814   6.291  0.0375  0.2078  0.1391
63719W        W 6657   1.648  28.374   4.438  0.1512  0.1552 -0.1431
63720W        W 6658   2.276  27.414   5.661 -0.0467 -0.0877 -0.2958
63721W        W 6659   2.188  27.217   7.047  0.0019  0.1966 -0.0030
63722W        W 6660  34.297  28.142   5.087 -0.1652  0.1113 -0.0473
63723W        W 6661   0.990  28.377   4.191 -0.2757 -0.0147  0.1289
63724W        W 6662   0.512  28.643   4.286  0.0442  0.1305 -0.1994
63725W        W 6663   1.951  28.165   4.040 -0.3364 -0.1985 -0.1744
63726W        W 6664   4.313  27.832   5.445  0.5300  0.1696  0.1965
63727W        W 6665   0.893  28.566   6.868 -0.3532  0.0745  0.0948
63728W        W 6666   0.883  29.627   5.016  0.1014 -0.2034  0.2265
63729W        W 6667   1.420  27.561   5.917 -0.3957 -0.0202 -0.2589
63730W        W 6668   0.338  28.148   6.391  0.2993  0.3412 -0.0975
63731W        W 6669   2.140  27.501   5.195 -0.0848 -0.1631 -0.1356
63732W        W 6670   2.324  28.205   4.671 -0.0319 -0.0289  0.2483
63733W        W 6671   1.666  27.473   4.304 -0.0935 -0.0465  0.3207
63734W        W 6672   3.669  28.171   4.386  0.0143 -0.2921  0.0621
63735W        W 6673   1.072  27.951   6.876 -0.0109 -0.0982 -0.2323
63736W        W 6674   0.236  29.126   5.650 -0.2539 -0.1160 -0.1009
63737W        W 6675   3.788  26.000   7.795 -0.0025 -0.0099  0.1212
63738W        W 6676   0.292  27.366   3.678 -0.2108 -0.0528 -0.0443
63739W        W 6677   4.200  26.625   2.244  0.2035  0.0009 -0.0130
63740W        W 6678   0.800  26.555   3.445 -0.2808 -0.0266  0.0216
63741W        W 6679   2.587  26.732   3.614  0.0209  0.2175 -0.0274
63742W        W 6680   2.082  26.635   4.334 -0.3814 -0.0543 -0.0609
63743W        W 6681   2.149  28.836   5.359 -0.0437 -0.1271 -0.0251
63744W        W 6682   1.169  25.553   5.439 -0.2475 -0.0513  0.1609
63745W        W 6683   4.441  27.085   7.179  0.0929  0.4230 -0.0067
63746W        W 6684   2.029  26.422   4.940  0.0938  0.0263  0.2150
63747W        W 6685   1.847  26.955   5.262 -0.3378  0.0499  0.2202
63748W        W 6686   0.618  28.619   5.189 -0.1103 -0.0869  0.1297
63749W        W 6687   0.484  26.994   5.030 -0.3433 -0.0296  0.0343
63750W        W 6688   3.799  27.918   5.137 -0.0941 -0.2405 -0.0430
63751W        W 6689   1.812  29.741   3.403 -0.1724  0.2864  0.0247
63752W        W 6690  34.411  27.267   4.853 -0.3795 -0.3661 -0.1347
63753W        W 6691  34.295  27.711   5.373 -0.1229 -0.1871  0.0676
63754W        W 6692  33.554  27.729   4.922 -0.2781  0.0760 -0.3153
63755W        W 6693   1.739  24.522   2.931  0.1054 -0.0010  0.1641
63756W        W 6694   4.439  28.987   7.500  0.1415 -0.0674 -0.1519
63757W        W 6695  33.763  28.319   5.646 -0.1669 -0.0117  0.3356
63758W        W 6696   3.751  25.592   5.747  0.2711  0.1018  0.0114
63759W        W 6697   0.790  27.460   3.639 -0.3661 -0.1745  0.0443
63760W        W 6698   3.099  27.215   5.467 -0.1695 -0.2036  0.1626
63761W        W 6699   3.007  28.282   4.179 -0.1295  0.1152  0.1711
63762W        W 6700   3.497  26.067   5.787  0.1170  0.1017 -0.1002
63763W        W 6701   3.606  25.135   6.079  0.0121 -0.1520 -0.1302
63764W        W 6702   1.643  27.905   3.302 -0.1901  0.1325 -0.2254
63765W        W 6703   2.884  28.114   4.690  0.0990 -0.1056  0.0895
63766W        W 6704   5.143  29.401   6.012  0.0557 -0.1651 -0.1115
63767W        W 6705   5.333  27.662   3.501 -0.0224 -0.2162 -0.2946
63768W        W 6706   0.477  27.874   6.019 -0.1762 -0.0745  0.2269
63769W        W 6707   2.229  26.613   5.339 -0.0563  0.1010 -0.1028
63770W        W 6708   2.513  28.153   7.963  0.0722  0.1086 -0.1488
63771W        W 6709   0.135  31.218   4.648  0.1425  0.0881 -0.1029
63772W        W 6710   0.003  26.789   4.842  0.0767  0.2146  0.0212
63773W        W 6711   0.465  26.842   3.610  0.1391 -0.0599  0.0347
63774W        W 6712   1.111  25.279   4.206  0.2746 -0.0024 -0.1237
63775W        W 6713   1.664  28.801   5.601  0.1712 -0.2760  0.1502
63776W        W 6714   3.717  26.396   4.657  0.0464  0.3267 -0.2740
63777W        W 6715   1.139  25.412   6.322  0.0730 -0.0231 -0.1677
63778W        W 6716   2.754  24.947   4.189  0.4582 -0.0737 -0.1565
63779W        W 6717   1.113  27.690   4.942 -0.0841 -0.0027  0.0837
63780W        W 6718   3.359  28.040   5.349 -0.0310  0.2370 -0.1755
63781W        W 6719   4.550  26.732   3.918 -0.1387 -0.0413  0.0333
63782W        W 6720   3.387  28.034   3.997  0.2129 -0.2433  0.1993
63783W        W 6721  33.816  28.001   5.227 -0.0914 -0.0893 -0.0314
63784W        W 6722  34.165  26.816   4.635  0.0687 -0.1317 -0.0307
63785W        W 6723   1.400  25.010   6.476 -0.2371 -0.0059 -0.4116
63786W        W 6724  33.590  25.713   5.830  0.3624 -0.4934 -0.1364
63787W        W 6725   4.361  28.061   6.883  0.0593  0.2914 -0.0197
63788W        W 6726   0.028  26.260   4.068  0.1533  0.1136 -0.0631
63789W        W 6727   3.996  25.094   5.659  0.2860  0.0274 -0.0901
63790W        W 6728   1.053  27.152   4.215  0.0827 -0.1097 -0.1903
63791W        W 6729   0.586  27.093   4.007 -0.3473  0.1848  0.1668
63792W        W 6730   3.669  26.609   5.795 -0.1273  0.0436 -0.2947
63793W        W 6731   1.752  29.680   4.367  0.1846 -0.3565  0.1282
63794W        W 6732   4.830  27.439   6.211 -0.2195  0.3656 -0.0390
63795W        W 6733   2.700  29.147   4.060  0.1176  0.0686 -0.3111
63796W        W 6734   1.137  25.988   6.243  0.1897  0.1979 -0.0975
63797W        W 6735   2.291  26.213   4.060  0.0575  0.1245 -0.0478
63798W        W 6736   0.844  30.190   4.899  0.2622  0.2200  0.0769
63799W        W 6737   1.565  27.709   5.164  0.1899  0.0168 -0.0121
63800W        W 6738  33.210  26.618   4.826  0.2272  0.0269 -0.0798
63801W        W 6739   3.822  27.929   5.677 -0.6512 -0.2768  0.1684
63802W        W 6740   2.829  28.008   5.176  0.2180 -0.1382  0.0170
63803W        W 6741   0.846  28.025   5.602  0.0069 -0.1740 -0.0866
63804W        W 6742   2.757  27.434   6.506 -0.1945 -0.0913  0.1756
63805W        W 6743   3.871  26.997   5.441  0.0759  0.1016  0.2538
63806W        W 6744   2.743  25.951   5.757 -0.2578 -0.1621  0.1593
63807W        W 6745  34.245  25.927   3.359  0.0962  0.1433 -0.1248
63808W        W 6746   3.005  27.779   5.577 -0.0108 -0.0014  0.1494
63809W        W 6747   0.864  29.274   3.816 -0.2615  0.2008  0.0272
63810W        W 6748  34.541  27.063   4.414  0.0717 -0.4035  0.1671
63811W        W 6749   2.642  28.546   4.454  0.1029 -0.2854  0.0780
63812W        W 6750   3.144  26.257   4.395  0.0043  0.0817 -0.1545
63813W        W 6751   0.036  27.097   6.592  0.2364  0.0426  0.1073
63814W        W 6752   3.081  26.853   5.939 -0.0798  0.1550  0.1153
63815W        W 6753   0.163  27.432   4.664 -0.0889  0.2837  0.1205
63816W        W 6754   0.980  28.325   5.113 -0.2197 -0.2542 -0.0260
63817W        W 6755   1.631  25.514   4.304  0.0289 -0.2076 -0.1552
63818W        W 6756   3.021  25.075   3.334  0.0685  0.0462 -0.1909
63819W        W 6757   2.436  27.889   6.464 -0.0293  0.0295 -0.1493
63820W        W 6758   3.634  27.590   3.876  0.1779  0.0311  0.0824
63821W        W 6759   1.777  26.142   3.650  0.2335 -0.1988  0.0201
63822W        W 6760   3.084  26.734   3.389  0.0320 -0.0878 -0.2144
63823W        W 6761  34.592  28.146   5.990 -0.0566  0.0210 -0.1132
63824W        W 6762   2.146  26.957   4.712 -0.3987 -0.1761  0.0697
63825W        W 6763   1.926  28.280   5.396 -0.1742  0.1179 -0.0665
63826W        W 6764   2.131  25.811   3.605 -0.1057 -0.1524 -0.4139
63827W        W 6765   3.465  27.623   4.390  0.1191  0.0973  0.3761
63828W        W 6766   0.363  28.235   5.638  0.0314 -0.3309 -0.1316
63829W        W 6767   3.454  27.775   6.701  0.0648  0.1323 -0.1697
63830W        W 6768   2.322  27.988   5.250  0.1520 -0.2312 -0.1018
63831W        W 6769   2.715  25.691   6.521 -0.1829  0.2946 -0.0580
63832W        W 6770   1.656  26.998   4.166 -0.1955  0.0900  0.1696
63833W        W 6771   2.421  26.192   5.016  0.0842  0.0810  0.1312
63834W        W 6772  34.258  28.109   4.458 -0.4533  0.0995  0.0248
63835W        W 6773   3.154  25.636   5.936  0.1289 -0.3719 -0.1654
63836W        W 6774   2.597  26.722   4.893 -0.1082 -0.2960  0.1130
63837W        W 6775   2.430  27.133   6.653  0.0648  0.2094 -0.1455
63838W        W 6776   4.215  26.421   5.905 -0.2222 -0.2581  0.1797
63839W        W 6777   2.189  27.706   3.973 -0.2128  0.0825  0.0036
63840W        W 6778   2.785  27.494   5.969 -0.4698  0.2440  0.0263
63841W        W 6779   0.093  26.598   2.609 -0.0265  0.0993 -0.1013
63842W        W 6780   1.463  27.001   7.380 -0.1053  0.1149  0.0161
63843W        W 6781   0.197  27.421   5.207  0.1180 -0.0718  0.0301
63844W        W 6782   0.122  28.286   6.793  0.2083 -0.1446 -0.0802
63845W        W 6783   3.460  27.264   6.616 -0.2037 -0.1541  0.2566
63846W        W 6784   2.932  27.643   4.571  0.3028 -0.1203 -0.0335
63847W        W 6785   3.538  26.655   7.304 -0.2403 -0.1256 -0.1045
63848W        W 6786   1.737  27.024   3.211  0.1388  0.1415 -0.1914
63849W        W 6787  33.924  29.492   4.411  0.5033  0.0356  0.0595
63850W        W 6788   3.146  27.200   4.683  0.0435  0.0511 -0.0720
63851W        W 6789   1.053  24.639   5.020  0.0847  0.3840 -0.2126
63852W        W 6790   3.004  28.411   5.559  0.0666 -0.2323  0.0430
63853W        W 6791   1.376  29.458   3.444  0.1471  0.0109 -0.2146
63854W        W 6792   3.169  27.853   7.143  0.0343  0.0664 -0.3184
63855W        W 6793   0.584  27.532   4.229 -0.0115  0.2483 -0.1573
63856W        W 6794   3.019  24.908   5.643  0.1338  0.0056 -0.0137
63857W        W 6795  34.058  28.880   6.468  0.1108  0.1092 -0.1378
63858W        W 6796   0.364  27.056   4.486 -0.2856 -0.0819 -0.0011
63859W        W 6797   1.022  26.968   3.752 -0.0474  0.2609 -0.0717
63860W        W 6798   3.483  26.711   4.098  0.1373 -0.1266  0.3971
63861W        W 6799   5.094  27.301   2.896 -0.0688  0.2194 -0.1270
63862W        W 6800   1.019  26.013   5.265 -0.3666 -0.3025 -0.1678
63863W        W 6801   0.573  26.148   4.214 -0.1939  0.2162 -0.0735
63864W        W 6802   0.019  28.566   5.634  0.1006 -0.1735 -0.1100
63865W        W 6803   3.538  27.160   5.815 -0.1189  0.4653 -0.0094
63866W        W 6804   3.163  25.563   3.487  0.0396 -0.0312 -0.2259
63867W        W 6805   3.018  27.422   6.888  0.0642  0.0470  0.2083
63868W        W 6806   1.408  26.227   7.028 -0.0696 -0.0941  0.1417
63869W        W 6807   1.430  27.443   2.946 -0.2107  0.0131 -0.0675
63870W        W 6808   2.940  26.531   6.314  0.2399 -0.1156  0.1675
63871W        W 6809   1.256  26.694   4.384 -0.3734 -0.1651  0.0030
63872W        W 6810  34.495  29.014   4.782 -0.1643 -0.0399  0.0624
63873W        W 6811   4.180  28.741   4.982  0.2280  0.1935 -0.0495
63874W        W 6812   1.622  26.428   4.027 -0.2829  0.1298 -0.1327
63875W        W 6813  34.249  28.642   5.077  0.1127 -0.0678 -0.4041
63876W        W 6814   0.608  27.119   5.961  0.1699  0.1517  0.0357
63877W        W 6815   3.004  26.867   5.129 -0.2341 -0.0615 -0.2130
63878W        W 6816   1.340  27.247   5.129 -0.0028 -0.1016 -0.3261
63879W        W 6817   0.810  25.756   4.543 -0.1569  0.1872  0.2882
63880W        W 6818   2.742  27.298   4.190  0.0101  0.0619 -0.1405
63881W        W 6819   4.359  26.662   6.502 -0.2595  0.2346  0.0662
63882W        W 6820   1.739  27.384   5.489  0.1141 -0.2663  0.5351
63883W        W 6821   1.715  26.860   5.819 -0.0114  0.0385  0.1311
63884W        W 6822   2.237  27.017   3.978 -0.1403 -0.2448 -0.2772
63885W        W 6823   3.231  29.288   5.023 -0.0107  0.0300 -0.2088
63886W        W 6824   1.728  27.325   7.158  0.1262 -0.2447 -0.0067
63887W        W 6825   0.735  26.593   3.963 -0.0365 -0.0442  0.3180
63888W        W 6826  34.565  27.706   4.990 -0.1603  0.1898 -0.0562
63889W        W 6827   2.634  27.943   3.646  0.1078  0.0816 -0.0923
63890W        W 6828   1.781  25.634   3.877  0.2726 -0.1076  0.1332
63891W        W 6829  34.630  28.896   5.986 -0.2745  0.1724  0.0666
63892W        W 6830   0.399  27.438   3.147  0.0220 -0.0482  0.1238
63893W        W 6831  34.517  27.692   5.848 -0.0862 -0.1433 -0.2019
63894W        W 6832   3.665  24.756   4.325 -0.1189 -0.2648 -0.3875
63895W        W 6833   3.230  28.818   4.818 -0.1283  0.1760 -0.1998
63896W        W 6834   1.696  26.788   4.671  0.0510  0.0598  0.0286
63897W        W 6835   4.009  25.724   6.509 -0.1656 -0.0158 -0.0263
63898W        W 6836   3.739  27.135   4.065 -0.3762 -0.2645 -0.0990
63899W        W 6837   4.163  25.969   6.862  0.5948  0.0878  0.0602
63900W        W 6838   0.872  26.431   6.193 -0.5103 -0.2544  0.1240
63901W        W 6839   2.632  28.904   5.580  0.1167 -0.2818  0.0900
63902W        W 6840   1.343  26.317   5.571  0.2082 -0.1330  0.0144
63903W        W 6841   2.353  29.591   6.502  0.0302  0.0736  0.1076
63904W        W 6842   1.488  26.704   6.961  0.2150 -0.0329  0.3709
63905W        W 6843   2.904  25.952   5.249 -0.0810 -0.1635  0.2110
63906W        W 6844   0.993  25.134   3.101  0.4519  0.0478  0.0077
63907W        W 6845   1.748  27.436   4.790 -0.0876  0.1826 -0.0262
63908W        W 6846   3.613  27.446   4.881 -0.1853  0.0711  0.1493
63909W        W 6847   2.926  27.786   4.038 -0.0366  0.3448 -0.0277
63910W        W 6848   3.200  27.282   6.192  0.3992  0.0490 -0.1101
63911W        W 6849   0.808  27.545   5.830  0.1139 -0.2326 -0.0394
63912W        W 6850   4.576  26.306   2.159  0.0714  0.0720  0.0286
63913W        W 6851   1.480  27.876   4.647 -0.1410 -0.1030  0.2535
63914W        W 6852   0.881  28.583   4.627  0.1903 -0.1555 -0.1866
63915W        W 6853   0.401  26.161   6.374  0.1403 -0.0383 -0.1644
63916W        W 6854   4.158  26.761   6.935  0.3719  0.0963 -0.0392
63917W        W 6855   3.912  25.012   6.545  0.0458 -0.1168  0.2783
63918W        W 6856   1.733  25.977   6.774  0.0951 -0.1180  0.0170
63919W        W 6857   2.674  26.668   6.799  0.0586 -0.2133  0.0129
63920W        W 6858   0.685  27.552   5.162 -0.1265 -0.1110  0.0931
63921W        W 6859   1.261  25.747   6.703 -0.2282  0.0104 -0.0817
63922W        W 6860   2.822  28.253   7.105 -0.0444  0.0007 -0.0977
63923W        W 6861   3.513  26.589   3.594 -0.1810 -0.0509 -0.1782
63924W        W 6862   2.488  27.775   4.841 -0.3811  0.2409  0.0436
63925W        W 6863   5.040  26.737   3.090 -0.3137 -0.1916  0.1968
63926W        W 6864   2.771  27.161   3.355 -0.0585 -0.1001  0.0548
63927W        W 6865  34.409  26.399   4.962  0.0988  0.1622 -0.0204
63928W        W 6866   2.202  26.136   8.451  0.1635  0.1598  0.4028
63929W        W 6867   1.371  27.192   4.570  0.1323 -0.1852  0.1323
63930W        W 6868   3.281  25.989   6.662  0.1151 -0.1461 -0.0223
63931W        W 6869   0.072  29.243   4.300 -0.3053  0.0720 -0.3122
63932W        W 6870   4.043  27.462   5.071 -0.2997 -0.0062 -0.0030
63933W        W 6871   2.282  27.335   4.391  0.1236  0.4701  0.0643
63934W        W 6872   0.190  25.554   5.393  0.0430 -0.4319 -0.3172
63935W        W 6873   0.314  27.605   6.636 -0.2452 -0.1522 -0.1050
63936W        W 6874   1.745  26.495   3.291  0.2151 -0.1201  0.1120
63937W        W 6875   2.129  28.301   3.184 -0.0791 -0.0055  0.2307
63938W        W 6876   3.362  27.616   5.878 -0.2636 -0.1991  0.0628
63939W        W 6877   4.550  26.987   6.139 -0.1135  0.1760  0.4587
63940W        W 6878   1.904  27.216   2.784  0.2630 -0.1569  0.1377
63941W        W 6879   5.627  26.129   6.320  0.2049  0.1697 -0.1766
63942W        W 6880   0.155  28.647   3.761 -0.1554 -0.1997 -0.1890
63943W        W 6881   2.319  25.595   4.601 -0.0596 -0.0737 -0.0761
63944W        W 6882   0.572  29.615   6.828  0.1992 -0.2820 -0.0664
63945W        W 6883   0.344  26.456   5.097  0.2115  0.0531 -0.1139
63946W        W 6884   1.290  27.514   3.943 -0.0323 -0.0317 -0.0064
63947W        W 6885   3.597  25.579   6.311  0.1654 -0.1856  0.1609
63948W        W 6886   2.612  27.236   4.775 -0.2187 -0.0091 -0.1184
63949W        W 6887   3.517  26.848   6.279 -0.0671 -0.1223 -0.1415
63950W        W 6888   4.664  26.448   6.105  0.1785 -0.3041  0.1099
63951W        W 6889   3.969  27.040   6.495  0.3240  0.0369  0.1203
63952W        W 6890   0.989  26.955   6.326 -0.0926 -0.0927  0.1477
63953W        W 6891   2.783  29.209   6.598 -0.4915 -0.1143  0.1234
63954W        W 6892   4.310  27.939   4.324  0.1678  0.0115  0.3304
63955W        W 6893   1.186  27.184   5.792 -0.0415 -0.1099  0.3303
63956W        W 6894  34.412  27.188   6.068 -0.3245 -0.0254  0.1310
63957W        W 6895   2.352  27.363   6.235  0.0506  0.5003 -0.2265
63958W        W 6896   3.099  27.556   5.109  0.1399  0.1277  0.4136
63959W        W 6897   0.202  26.325   3.156  0.0931  0.2896 -0.3459
63960W        W 6898   1.207  28.719   3.789  0.0048 -0.1537  0.0350
63961W        W 6899  34.538  29.183   7.311 -0.1743  0.0107  0.0778
63962W        W 6900   0.179  27.329   6.206  0.0922  0.0086  0.1646
63963W        W 6901   0.362  29.330   4.747 -0.1122 -0.2682  0.1231
63964W        W 6902   3.171  28.395   5.067 -0.0978 -0.3373  0.1830
63965W        W 6903   2.381  27.088   5.211  0.1248 -0.0675 -0.0349
63966W        W 6904   3.018  28.773   6.538 -0.2341 -0.0845  0.1488
63967W        W 6905   1.853  25.751   4.695  0.1217  0.1076 -0.1931
63968W        W 6906   0.542  28.057   4.284 -0.0677 -0.0069  0.2660
63969W        W 6907   1.382  28.976   1.772 -0.4064  0.0012  0.0317
63970W        W 6908   3.217  27.897   3.503 -0.1043 -0.1063  0.1555
63971W        W 6909   1.456  28.239   4.988  0.0970  0.1170 -0.0372
63972W        W 6910   3.966  27.774   6.626  0.4086 -0.1292  0.2368
63973W        W 6911   3.110  26.307   3.126  0.1293 -0.1661 -0.0301
63974W        W 6912   4.136  26.592   3.472 -0.0992 -0.2790 -0.0160
63975W        W 6913   4.253  25.113   3.388  0.0236 -0.2439 -0.1036
63976W        W 6914   3.480  28.343   7.755 -0.2954  0.0221 -0.1153
63977W        W 6915   2.645  26.954   5.606  0.1871 -0.0505 -0.0180
63978W        W 6916   2.359  26.525   2.688 -0.1088 -0.3096 -0.4023
63979W        W 6917   1.030  27.453   6.287 -0.1625 -0.1070  0.1146
63980W        W 6918   3.855  26.305   7.089  0.2526  0.0137 -0.1746
63981W        W 6919  34.369  28.230   6.511 -0.2077  0.1195  0.2261
63982W        W 6920   4.419  28.211   3.670  0.2197 -0.0516  0.1962
63983W        W 6921   0.015  27.038   3.367 -0.2231  0.1574 -0.1976
63984W        W 6922   1.413  27.920   6.424  0.0573 -0.1785  0.3853
63985W        W 6923   3.450  25.696   5.340 -0.0311  0.0993 -0.0395
63986W        W 6924   1.868  28.185   2.352  0.2798 -0.0306  0.2881
63987W        W 6925   1.521  26.979   6.262  0.0407 -0.0474 -0.1264
63988W        W 6926   1.974  28.486   4.816 -0.0859  0.1173  0.2240
63989W        W 6927   1.623  28.405   5.841 -0.1478  0.1626  0.0406
63990W        W 6928   0.695  29.322   5.997 -0.0415  0.0992  0.2082
63991W        W 6929   0.026  26.780   4.035 -0.0494 -0.2990  0.0964
63992W        W 6930   3.225  25.191   4.674  0.0155 -0.2728 -0.1580
63993W        W 6931   1.865  27.299   5.979 -0.0700 -0.3528 -0.2841
63994W        W 6932   3.624  25.847   7.035 -0.1360  0.1188  0.2272
63995W        W 6933   0.992  27.740   4.305  0.2253 -0.2096  0.1161
63996W        W 6934   3.009  26.938   3.912  0.2182  0.2029  0.1527
63997W        W 6935   0.491  28.064   5.176 -0.0829  0.2600 -0.1588
63998W        W 6936   0.910  27.043   5.275 -0.2558 -0.2247 -0.2944
63999W        W 6937   2.097  27.959   3.490 -0.2243  0.2174 -0.0269
64000W        W 6938   3.913  27.422   5.697  0.0207  0.2670  0.3957
64001W        W 6939   2.434  27.632   3.243 -0.0873  0.1204 -0.3492
64002W        W 6940   3.287  29.239   6.757 -0.0637 -0.0305 -0.3968
64003W        W 6941   0.853  25.508   4.970 -0.0205  0.0702 -0.1900
64004W        W 6942   1.580  26.834   3.676  0.2691 -0.1529 -0.0886
64005W        W 6943   1.176  26.846   4.894  0.1174 -0.2324 -0.1566
64006W        W 6944   2.239  26.805   5.880  0.2191 -0.0312 -0.1045
64007W        W 6945   3.077  28.296   6.370 -0.1071  0.1424 -0.2052
64008W        W 6946   0.944  26.149   3.759  0.0592 -0.0281 -0.3524
64009W        W 6947   2.535  28.713   3.977  0.1752 -0.2462  0.0446
64010W        W 6948   3.931  26.031   6.095  0.2678 -0.1704 -0.0195
64011W        W 6949   0.915  28.976   3.344 -0.2230  0.2651  0.0509
64012W        W 6950   4.630  27.067   2.887 -0.0776  0.2005 -0.1547
64013W        W 6951   4.757  29.346   5.368  0.0353 -0.1092 -0.0815
64014W        W 6952  34.328  25.883   6.040  0.3651  0.0055  0.2123
64015W        W 6953   3.000  28.836   5.950  0.1286  0.0129 -0.3219
64016W        W 6954   4.504  27.709   6.452 -0.1578 -0.0127  0.2641
64017W        W 6955   1.998  25.385   3.293 -0.2855  0.1819  0.2404
64018W        W 6956   1.306  26.177   3.411  0.1398  0.3810 -0.2166
64019W        W 6957   0.252  29.041   5.159 -0.0004  0.0801 -0.0847
64020W        W 6958   3.525  25.571   4.883  0.0497  0.1139  0.0175
64021W        W 6959   3.122  26.349   5.834 -0.1415 -0.0057 -0.2772
64022W        W 6960   0.817  29.016   4.872 -0.1002 -0.1626  0.0272
64023W        W 6961   3.019  26.033   7.126  0.2469 -0.0086  0.0348
64024W        W 6962   3.752  27.440   6.259 -0.2758 -0.1780  0.1878
64025W        W 6963   1.066  27.380   7.260 -0.1606 -0.5318 -0.0243
64026W        W 6964   0.677  26.101   2.382  0.0302  0.1624 -0.0411
64027W        W 6965   1.083  26.585   6.663 -0.1313 -0.1111 -0.1261
64028W        W 6966   1.345  28.773   4.422 -0.2085  0.2002  0.1401
64029W        W 6967   0.664  29.777   4.575 -0.0306 -0.3524  0.5576
64030W        W 6968   4.094  27.889   6.162  0.0857 -0.3527  0.2305
64031W        W 6969   2.691  26.332   4.582  0.0122  0.1298 -0.1830
64032W        W 6970   4.352  27.517   4.717 -0.2062  0.4732 -0.0119
64033W        W 6971   0.555  25.893   5.185 -0.0369  0.0150 -0.1035
64034W        W 6972   3.641  25.716   4.007  0.0029  0.0562  0.0307
64035W        W 6973   3.676  25.130   4.030 -0.0661 -0.4868  0.3034
64036W        W 6974   1.174  27.580   5.472 -0.1762 -0.2899 -0.0677
64037W        W 6975   1.106  27.279   2.076  0.3028 -0.1379 -0.0450
64038W        W 6976   1.329  28.227   3.741  0.2108  0.1175  0.2054
64039W        W 6977   1.273  28.682   4.924  0.2853 -0.2239 -0.2482
64040W        W 6978   2.408  25.614   5.693 -0.1466  0.1498  0.3554
64041W        W 6979   0.812  26.037   6.636  0.2605  0.0474 -0.4592
64042W        W 6980  33.979  27.358   4.652  0.0860  0.1216  0.4731
64043W        W 6981   0.305  24.654   4.321 -0.1044  0.1257  0.0506
64044W        W 6982   3.271  28.403   4.565  0.0320  0.0018 -0.1863
64045W        W 6983   0.361  26.576   4.300  0.1006  0.1516 -0.0490
64046W        W 6984   1.499  26.012   5.114  0.1270  0.2340  0.1647
64047W        W 6985   2.660  27.507   5.344 -0.1531 -0.2267  0.0031
64048W        W 6986   5.026  26.833   3.674 -0.1777  0.0048  0.0312
64049W        W 6987   1.360  25.874   4.640  0.0028 -0.0712 -0.1152
64050W        W 6988   3.989  28.784   7.492  0.1418 -0.1124 -0.0348
64051W        W 6989   0.439  27.894   2.962  0.3250 -0.0261 -0.0671
64052W        W 6990   1.937  27.806   5.627 -0.0114 -0.1796 -0.1394
64053W        W 6991   1.831  26.446   5.589 -0.1481 -0.2459  0.2285
64054W        W 6992   0.762  25.613   2.941 -0.0232 -0.1191 -0.3070
64055W        W 6993   2.680  25.433   4.273  0.0964  0.1428 -0.1312
64056W        W 6994   0.836  29.022   4.332 -0.2023  0.0526  0.3020
64057W        W 6995   1.562  29.655   2.959 -0.1054 -0.1158  0.0998
64058W        W 6996   1.321  28.090   5.474  0.1167 -0.2539  0.0934
64059W        W 6997   2.139  28.146   6.030 -0.2557 -0.2819 -0.2476
64060W        W 6998   0.341  24.786   6.502 -0.3063 -0.0741 -0.0829
64061W        W 6999   4.637  26.986   3.397 -0.0452 -0.0627 -0.1011
64062W        W 7000   3.514  27.522   7.325  0.1341 -0.0534  0.0396
64063W        W 7001   5.745  27.941   4.247  0.1342 -0.2380  0.0096
64064W        W 7002   3.725  24.468   5.159 -0.0678 -0.0349 -0.0736
64065W        W 7003   2.007  26.581   3.765  0.1111  0.0069  0.0224
64066W        W 7004   0.806  25.546   6.672 -0.2331  0.0102  0.0001
64067W        W 7005   2.659  26.979   6.195  0.1175  0.4270 -0.0703
64068W        W 7006   4.413  27.181   5.584  0.0861 -0.2432  0.1939
64069W        W 7007   0.840  24.214   5.227 -0.0040 -0.2192  0.1762
64070W        W 7008   2.641  24.742   3.626  0.0863 -0.0416  0.0657
64071W        W 7009   1.818  29.393   3.802 -0.0999 -0.3982 -0.1671
64072W        W 7010   0.272  27.438   5.727  0.0833 -0.1565  0.3898
64073W        W 7011   2.506  25.631   5.194 -0.3041 -0.2509 -0.0966
64074W        W 7012   1.779  27.033   6.697 -0.0219 -0.1369 -0.1691
64075W        W 7013   1.912  27.942   4.922 -0.0047  0.3864 -0.0522
64076W        W 7014   2.983  26.420   8.209 -0.0925  0.0445 -0.3285
64077W        W 7015   0.779  27.054   3.263  0.1027 -0.1652 -0.2418
64078W        W 7016   4.953  27.342   3.426  0.1652  0.0082  0.0508
64079W        W 7017   1.960  28.675   6.055  0.0337  0.0555 -0.0262
64080W        W 7018   4.228  29.693   6.197  0.0425 -0.1285 -0.0456
64081W        W 7019   2.870  27.909   6.761 -0.3043 -0.1838  0.1785
64082W        W 7020   3.337  27.964   4.821 -0.3015 -0.0327  0.2396
64083W        W 7021   1.954  25.695   5.994 -0.2428  0.1699  0.0749
64084W        W 7022   0.400  26.338   3.762 -0.4664  0.2770 -0.2018
64085W        W 7023   1.381  27.994   4.185  0.2620  0.0114  0.0442
64086W        W 7024   3.803  27.065   7.177  0.0312  0.0241 -0.2345
64087W        W 7025   1.342  26.806   5.426  0.1832 -0.1977  0.1623
64088W        W 7026   2.078  24.715   3.891 -0.2659 -0.2361 -0.0236
64089W        W 7027   2.379  28.412   5.590  0.1821  0.1336  0.0110
64090W        W 7028   3.256  26.492   6.756  0.1256  0.3029  0.2432
64091W        W 7029  34.140  26.983   8.234 -0.1824 -0.4133 -0.0306
64092W        W 7030   2.207  25.869   7.505 -0.1127 -0.2029 -0.0484
64093W        W 7031   2.992  26.511   7.263 -0.2148 -0.1159 -0.3576
64094W        W 7032   2.591  26.044   8.103  0.1786  0.3952  0.1034
64095W        W 7033  32.973  25.218   8.506  0.2373 -0.1570  0.1107
64096W        W 7034   3.557  27.828   8.113  0.0462 -0.2649 -0.2285
64097W        W 7035   2.195  28.360   8.412 -0.1454  0.1770  0.1308
64098W        W 7036   2.866  28.533   9.978  0.1090  0.0720  0.0608
64099W        W 7037   3.836  26.544   7.747  0.3113  0.3091 -0.0694
64100W        W 7038   1.714  24.474   9.136 -0.0966  0.2058 -0.1919
64101W        W 7039   1.861  24.551   7.306 -0.1673 -0.0413 -0.0700
64102W        W 7040  34.127  24.140   8.298  0.0571  0.0717 -0.2127
64103W        W 7041   3.590  26.941  10.133 -0.0027 -0.1838  0.1753
64104W        W 7042   1.937  26.882   8.009  0.0102  0.0934 -0.2091
64105W        W 7043   3.034  24.611   9.815 -0.0294 -0.0736 -0.2149
64106W        W 7044   1.514  26.491   7.468  0.0406  0.1349  0.3914
64107W        W 7045   1.154  28.298   6.519  0.0240  0.2498 -0.1741
64108W        W 7046  34.435  26.612  12.130  0.1146 -0.1593  0.0383
64109W        W 7047   0.720  27.713   7.305 -0.1088  0.2903  0.0206
64110W        W 7048   0.559  27.189   6.535 -0.1001  0.1797  0.4286
64111W        W 7049  33.435  26.303   8.263  0.1862  0.2189  0.0900
64112W        W 7050  34.174  25.526   9.084 -0.0290  0.0368  0.2236
64113W        W 7051   2.688  29.175   9.239 -0.1814  0.0473 -0.1122
64114W        W 7052   2.674  26.431   9.291  0.3348 -0.0471  0.1533
64115W        W 7053   1.502  28.023   9.439 -0.3271  0.1513  0.3335
64116W        W 7054   0.492  28.122   7.935 -0.0002  0.0505  0.0575
64117W        W 7055  33.803  28.572   9.510  0.1264  0.2086 -0.1426
64118W        W 7056   2.194  27.716   7.712  0.0287 -0.0429  0.1698
64119W        W 7057   4.709  28.013   9.150  0.0913 -0.1654 -0.0766
64120W        W 7058   0.805  27.855   6.393 -0.3140 -0.1946  0.1325
64121W        W 7059   2.375  27.335   9.017 -0.0521 -0.0379 -0.0991
64122W        W 7060   1.201  26.246   8.501  0.0336 -0.2911  0.0958
64123W        W 7061  34.522  27.372   6.944 -0.1177  0.0403  0.2228
64124W        W 7062   1.059  25.408   9.409  0.1168 -0.2183  0.0503
64125W        W 7063   0.488  27.614   7.703  0.3165 -0.1186 -0.2347
64126W        W 7064   1.311  28.413   7.124 -0.1854 -0.1266 -0.2414
64127W        W 7065   4.913  27.015   7.328 -0.1021 -0.0941  0.0915
64128W        W 7066   2.047  26.957   6.295 -0.0921  0.0833  0.0839
64129W        W 7067   3.392  26.412   7.895 -0.0907 -0.3532  0.0579
64130W        W 7068   1.858  25.540   7.452  0.2106  0.0631 -0.2177
64131W        W 7069   1.593  27.934   8.206  0.1007  0.3225 -0.4150
64132W        W 7070   0.571  26.616   7.231  0.2737 -0.3419  0.3260
64133W        W 7071   3.477  26.906   7.756  0.1434  0.0338  0.0186
64134W        W 7072   1.905  28.007   8.588  0.0274  0.2746 -0.0539
64135W        W 7073   0.885  28.339   8.210 -0.1507 -0.0829 -0.0894
64136W        W 7074   0.790  26.102   8.221 -0.2867 -0.4129  0.2664
64137W        W 7075   3.285  28.299   6.808 -0.3468 -0.2149  0.1463
64138W        W 7076   3.753  26.923   8.286  0.1292  0.2305  0.2735
64139W        W 7077   3.025  28.268   7.592  0.0046 -0.1676 -0.2615
64140W        W 7078   0.652  26.554   7.802  0.0072 -0.2394 -0.1226
64141W        W 7079   1.839  26.527   6.165 -0.0756  0.0248 -0.0289
64142W        W 7080   4.383  25.818   9.641  0.2224  0.3918 -0.1036
64143W        W 7081   1.205  27.149   8.462 -0.1739 -0.1411 -0.0554
64144W        W 7082   2.275  25.002  10.223 -0.2943 -0.0612 -0.0763
64145W        W 7083   2.707  27.142   7.058 -0.0337 -0.1540 -0.0847
64146W        W 7084   2.610  25.039   8.881 -0.3223  0.0837  0.0397
64147W        W 7085   3.222  27.173   9.748  0.2767  0.3151 -0.1611
64148W        W 7086   0.097  27.207   7.527  0.2912  0.0906 -0.2304
64149W        W 7087   1.724  26.198   8.312 -0.0323  0.2740  0.0134
64150W        W 7088   3.032  26.760   9.382 -0.0280  0.2285  0.1562
64151W        W 7089   4.117  26.807   7.433  0.2233  0.1581 -0.1428
64152W        W 7090   0.542  27.300   9.532 -0.0572 -0.0332  0.0506
64153W        W 7091   0.374  30.419   6.551  0.3997 -0.0047  0.0814
64154W        W 7092  33.730  27.162   9.983  0.0106  0.1675  0.0358
64155W        W 7093   1.044  26.886   7.676 -0.2399  0.1206 -0.1291
64156W        W 7094   0.209  26.134   8.827  0.2050  0.1224 -0.1704
64157W        W 7095   1.311  27.722   9.108  0.0675 -0.0092  0.1971
64158W        W 7096   4.821  26.254   7.667 -0.1661 -0.0377 -0.0067
64159W        W 7097   2.587  25.235   8.370 -0.2504 -0.1300  0.0474
64160W        W 7098  34.584  26.155   7.437  0.2534  0.2484 -0.2620
64161W        W 7099   3.236  28.750   7.994 -0.1181  0.1354  0.0290
64162W        W 7100   3.429  26.206   7.443 -0.3531 -0.4340  0.1295
64163W        W 7101   3.696  27.962   7.145 -0.1468  0.1302 -0.0641
64164W        W 7102   0.356  27.150   8.820  0.1887 -0.1111  0.3966
64165W        W 7103   0.834  27.032   6.944 -0.2562  0.1440  0.2949
64166W        W 7104   0.841  26.224   7.093  0.0090  0.2013 -0.0399
64167W        W 7105   0.746  25.080   6.827 -0.0493  0.0830  0.0720
64168W        W 7106   3.029  26.508   8.904  0.0974  0.1477  0.0582
64169W        W 7107   2.708  25.978   7.575  0.2913  0.1767 -0.0885
64170W        W 7108   0.366  26.753   6.205 -0.0396  0.0903 -0.0241
64171W        W 7109   0.815  28.241   7.234 -0.0184  0.3648 -0.0183
64172W        W 7110   3.194  29.060   9.207 -0.1233 -0.1266 -0.2642
64173W        W 7111   2.074  29.601   7.025  0.1025 -0.1332 -0.1091
64174W        W 7112   1.083  26.340   9.028 -0.1438 -0.1206 -0.0664
64175W        W 7113  34.440  26.806   6.327  0.2081  0.2710  0.0285
64176W        W 7114  33.699  29.259   9.626  0.0851  0.1703 -0.0162
64177W        W 7115   1.057  27.701   9.596 -0.2318  0.1823  0.2999
64178W        W 7116   1.885  26.228   7.238  0.0990  0.0821  0.2252
64179W        W 7117   4.585  28.531   9.087  0.1514 -0.3369 -0.1543
64180W        W 7118   0.864  25.856   9.266  0.1479 -0.2200  0.2585
64181W        W 7119  34.237  26.395   9.618  0.1007  0.2370  0.1379
64182W        W 7120   2.317  26.436   8.076 -0.2636 -0.3608 -0.2667
64183W        W 7121   1.605  26.085   6.021  0.0703  0.1645  0.0113
64184W        W 7122   2.147  29.296   7.869  0.0316 -0.0965 -0.0447
64185W        W 7123   1.363  27.466   7.644  0.0602  0.0383 -0.3507
64186W        W 7124  34.444  27.539   7.804  0.0690  0.2310 -0.3067
64187W        W 7125   1.792  27.500   8.008  0.2083  0.1235 -0.1832
64188W        W 7126   2.446  24.608   9.191  0.0117  0.2099 -0.0148
64189W        W 7127   0.967  25.581   7.204  0.1127  0.0637 -0.2925
64190W        W 7128   1.974  26.636   8.433 -0.1802 -0.0904  0.0337
64191W        W 7129   3.732  26.142   6.657  0.1625 -0.0359 -0.0591
64192W        W 7130   3.713  27.694   8.654  0.1038  0.3003 -0.0419
64193W        W 7131   2.331  26.565   6.296  0.1819 -0.1163 -0.1991
64194W        W 7132   3.328  26.225   5.357  0.1394 -0.1999 -0.0190
64195W        W 7133   1.960  26.477   9.682 -0.2016 -0.0868  0.3552
64196W        W 7134   1.370  26.769   8.728  0.1710 -0.1755 -0.0737
64197W        W 7135   1.574  25.127   7.804 -0.0846  0.0868  0.0335
64198W        W 7136   3.538  27.375   8.281 -0.1042 -0.3457 -0.2246
64199W        W 7137   1.688  27.119   8.444  0.1464 -0.0993  0.0320
64200W        W 7138   2.866  27.809   7.801  0.3123 -0.0643  0.0367
64201W        W 7139   0.925  26.791   8.196  0.2009 -0.1402 -0.1121
64202W        W 7140   1.571  27.450   6.408  0.0764 -0.0064  0.3209
64203W        W 7141   2.038  25.934   8.003  0.1357 -0.0804 -0.1479
64204W        W 7142   0.485  28.592   6.597 -0.3340 -0.1996  0.0578
64205W        W 7143   0.602  23.308   9.076  0.1036  0.3443  0.1055
64206W        W 7144   2.434  26.884   7.774 -0.1234 -0.3167 -0.2652
64207W        W 7145   3.021  26.940   6.569 -0.4416  0.0659  0.3229
64208W        W 7146   2.618  26.960   9.480 -0.1150 -0.2332 -0.1130
64209W        W 7147   2.141  25.635   6.461 -0.0230  0.3306 -0.1248
64210W        W 7148   2.018  27.360   9.404 -0.1306 -0.0757 -0.1007
64211W        W 7149   1.069  27.207   9.839  0.1643  0.0607  0.1434
64212W        W 7150   2.485  26.714   7.261 -0.2382  0.2069 -0.1834
64213W        W 7151   2.531  26.239   7.171 -0.4435  0.0475  0.0531
64214W        W 7152   1.853  29.415   6.380  0.0288 -0.3528  0.3941
64215W        W 7153   2.971  27.450   7.420 -0.0352  0.0602 -0.1004
64216W        W 7154   1.367  25.359   8.669 -0.0006 -0.0093 -0.1831
64217W        W 7155   0.828  25.510   8.875 -0.2249  0.0622 -0.1037
64218W        W 7156   1.239  28.019   5.954 -0.3113  0.2928 -0.1052
64219W        W 7157   1.579  26.249   8.824 -0.4068 -0.0250 -0.0145
64220W        W 7158   1.619  28.417   7.507  0.0008  0.5085  0.2163
64221W        W 7159   1.867  24.950   9.347  0.6170 -0.3040 -0.0048
64222W        W 7160  33.686  27.271   7.567  0.0453 -0.1114  0.0423
64223W        W 7161   0.042  25.730   6.659 -0.3118  0.0278 -0.2647
64224W        W 7162   0.301  27.181   6.999 -0.0241 -0.2802 -0.3762
64225W        W 7163   2.949  24.865   8.398  0.0367 -0.1780  0.0361
64226W        W 7164   3.284  27.033   7.071 -0.3094 -0.0579  0.1837
64227W        W 7165  34.195  25.737   8.236 -0.4241 -0.3251 -0.1797
64228W        W 7166   1.556  25.200   9.679  0.1651 -0.0118 -0.1537
64229W        W 7167  33.482  28.120   9.554 -0.0559 -0.0424  0.1504
64230W        W 7168   3.122  26.001   7.914 -0.1894  0.0632 -0.2229
64231W        W 7169   0.062  25.368   7.511  0.1704 -0.1476 -0.2000
64232W        W 7170   3.790  26.905   9.605  0.1849 -0.3909 -0.5037
64233W        W 7171   0.868  25.536   7.784  0.2229  0.1460 -0.1067
64234W        W 7172   0.809  28.751   7.313  0.1187  0.0986  0.0861
64235W        W 7173   2.298  28.733   9.318 -0.0435  0.1632 -0.1398
64236W        W 7174   1.190  26.033   7.421 -0.3507 -0.1729  0.3045
64237W        W 7175   1.045  26.693   7.212  0.0233 -0.2091 -0.2112
64238W        W 7176   2.636  28.392   9.358  0.0041 -0.2528  0.3531
64239W        W 7177   2.218  26.446   8.892 -0.0555  0.0873  0.3468
64240W        W 7178   1.318  25.900   7.952  0.0508  0.0542 -0.1302
64241W        W 7179   1.837  26.459   6.633  0.0469 -0.1219 -0.2526
64242W        W 7180   1.809  28.646   8.256 -0.1077  0.4034  0.2472
64243W        W 7181   2.098  25.944   9.784 -0.0645  0.3973 -0.4457
64244W        W 7182   2.025  25.356   9.872  0.0514 -0.0563 -0.0712
64245W        W 7183   3.820  29.299   7.507 -0.2198 -0.0761 -0.1031
64246W        W 7184   1.777  26.728   9.000  0.1680  0.2405 -0.2724
64247W        W 7185  34.220  27.824   8.643 -0.2511  0.0440  0.0607
64248W        W 7186   1.231  25.438   8.130 -0.1448 -0.0535  0.1488
64249W        W 7187   3.497  27.577   9.594  0.1359 -0.0648  0.1545
64250W        W 7188   1.243  27.921   7.370  0.1407  0.0382 -0.2173
64251W        W 7189   1.859  26.416   7.859  0.3100  0.0384 -0.3833
64252W        W 7190  32.496  31.004   9.487  0.0575 -0.2917  0.1856
64253W        W 7191   3.932  26.394   8.188  0.1129 -0.0428  0.1125
64254W        W 7192   3.714  26.644   6.788  0.0545  0.4345 -0.1242
64255W        W 7193   2.641  26.286   8.683  0.1330  0.2979 -0.1715
64256W        W 7194   1.920  27.724   6.207  0.0926  0.3671 -0.0080
64257W        W 7195   0.523  25.945   9.724  0.1356 -0.2810  0.2380
64258W        W 7196   2.980  23.344   9.780 -0.0111 -0.2591 -0.2536
64259W        W 7197   1.691  25.394   6.858  0.2366 -0.3134 -0.0696
64260W        W 7198   1.735  24.978   5.922  0.1810  0.0697 -0.0463
64261W        W 7199   0.995  27.590   8.747 -0.0916  0.0361 -0.3270
64262W        W 7200   3.301  27.646  10.042 -0.0012  0.1616 -0.0295
64263W        W 7201   2.577  27.517   9.488 -0.3592  0.1128 -0.2597
64264W        W 7202   2.694  25.941  10.111  0.1899 -0.3764 -0.1713
64265W        W 7203   0.428  25.759   8.206 -0.2194 -0.1449 -0.0857
64266W        W 7204   1.712  26.872   9.513 -0.2388  0.1678 -0.0335
64267W        W 7205   2.010  27.512   6.678  0.1964  0.0264  0.0735
64268W        W 7206   2.472  27.340   7.503 -0.1921  0.2069 -0.0514
64269W        W 7207   1.268  26.666   9.743  0.1377 -0.0576  0.2341
64270W        W 7208   2.889  25.515   7.545 -0.1765  0.0107 -0.2216
64271W        W 7209   1.396  28.751   8.756  0.1659 -0.0202  0.2779
64272W        W 7210   5.393  26.811   7.138  0.4500  0.0717  0.2275
64273W        W 7211   1.721  25.675   9.540 -0.0723 -0.3153  0.1605
64274W        W 7212   2.966  27.175   8.583  0.2617  0.0302 -0.1280
64275W        W 7213   2.169  26.728   6.865 -0.2485 -0.4224  0.0790
64276W        W 7214  33.611  26.933   8.725 -0.0773 -0.0722 -0.1879
64277W        W 7215   1.968  27.239   7.612 -0.1237 -0.0141 -0.1918
64278W        W 7216   2.578  27.927   7.407 -0.0602  0.1482  0.3774
64279W        W 7217   1.398  25.933   9.251  0.0500  0.2261  0.0601
64280W        W 7218   2.615  25.703   7.105 -0.1790  0.1013  0.1896
64281W        W 7219   0.340  26.327   8.396  0.1730  0.0048 -0.1558
64282W        W 7220  34.309  24.835   7.660  0.0875 -0.0820 -0.2027
64283W        W 7221   0.379  26.242   6.918 -0.0819  0.0997  0.2010
64284W        W 7222   2.004  30.700   9.941  0.1769 -0.0942  0.1987
64285W        W 7223   2.110  25.678   7.016  0.4338 -0.1959  0.0973
64286W        W 7224  34.158  27.992   7.864  0.0291 -0.1515  0.3477
64287W        W 7225   1.291  24.939   9.191 -0.0244 -0.0061  0.0326
64288W        W 7226   1.416  28.382   8.371 -0.2437  0.0500  0.2289
64289W        W 7227   1.448  27.033   8.045  0.1401 -0.2380  0.1739
64290W        W 7228   1.231  25.825   8.820  0.2301  0.3353  0.0115
64291W        W 7229   2.778  24.983   9.445  0.3143 -0.2227 -0.0233
64292W        W 7230   2.529  26.493   9.791  0.1023  0.2336 -0.0697
64293W        W 7231   0.100  27.126   8.282  0.0362 -0.1263 -0.1722
64294W        W 7232   2.824  27.738   8.844 -0.2798  0.0071  0.0399
64295W        W 7233  34.530  26.975   7.872  0.1408  0.0245  0.2864
64296W        W 7234   1.424  29.177   9.113  0.3001  0.2242  0.1143
64297W        W 7235   1.911  25.427   8.528  0.0548 -0.0003 -0.1566
64298W        W 7236   2.531  27.591   6.934 -0.1332 -0.0693 -0.2729
64299W        W 7237  34.645  26.681   8.248 -0.0132 -0.2058 -0.1883
64300W        W 7238   1.727  28.125   7.158 -0.3402  0.2013  0.4458
64301W        W 7239   2.308  27.914   9.256  0.1501  0.1574  0.0350
64302W        W 7240   2.724  26.823   8.259 -0.1980  0.3860  0.1091
64303W        W 7241   1.493  26.419   9.321 -0.0621 -0.0395  0.2490
64304W        W 7242   2.829  26.207   6.702 -0.0742  0.2942  0.2717
64305W        W 7243   1.449  28.739   7.921  0.3109  0.1938  0.0884
64306W        W 7244   0.242  30.049   6.115  0.0298  0.0241  0.1268
64307W        W 7245   2.069  28.714   7.213 -0.1165 -0.4007 -0.1787
64308W        W 7246   0.339  28.672   8.457 -0.2668 -0.1915 -0.0126
64309W        W 7247   3.655  24.955   7.495  0.2419 -0.0303  0.0694
64310W        W 7248   4.587  26.774   9.839 -0.2277 -0.3292  0.1477
64311W        W 7249   3.200  24.457   8.728  0.2044 -0.2194  0.2406
64312W        W 7250   1.753  27.273   8.926 -0.3440  0.0075 -0.1094
64313W        W 7251   1.208  25.279   6.863  0.1085  0.0167  0.3425
64314W        W 7252   3.276  27.420   7.781  0.1523  0.2361 -0.0976
64315W        W 7253  34.636  25.672   7.968 -0.0970 -0.2772 -0.1074
64316W        W 7254   1.512  25.769   8.382 -0.1466 -0.0574 -0.1410
64317W        W 7255   0.690  24.233   9.361 -0.2289 -0.1961 -0.1405
64318W        W 7256   4.044  26.961   6.004  0.2237 -0.1519 -0.0692
64319W        W 7257   0.733  25.144   8.108 -0.0288  0.0524 -0.3275
64320W        W 7258   1.747  29.147   8.178  0.0393 -0.3142 -0.2618
64321W        W 7259   1.274  27.248   6.805  0.2388  0.1724 -0.1332
64322W        W 7260   1.491  27.366   9.489  0.1944 -0.1172  0.2409
64323W        W 7261  32.488  25.346   6.907  0.1752  0.0899  0.0008
64324W        W 7262   3.767  27.428   9.942  0.2146  0.2020 -0.1375
64325W        W 7263  34.622  25.739   9.329  0.2701  0.0856 -0.0206
64326W        W 7264   0.462  26.825   8.399 -0.0377 -0.3637  0.0291
64327W        W 7265   2.565  25.915   9.318 -0.0105 -0.3040 -0.0414
64328W        W 7266   2.467  28.237   8.863  0.3698 -0.1695  0.1811
64329W        W 7267  33.845  25.702  10.236 -0.0473 -0.3302 -0.1802
64330W        W 7268   1.654  26.026   7.636  0.1691  0.0842  0.0239
64331W        W 7269   4.511  26.295   6.824 -0.1937  0.1096 -0.1100
64332W        W 7270   0.260  24.759   8.442  0.0807  0.0642 -0.3067
64333W        W 7271   3.554  25.396   6.765  0.0272 -0.2333 -0.0313
64334W        W 7272   0.184  26.744   7.538  0.0792 -0.0062 -0.1169
64335W        W 7273   2.122  27.034   8.691  0.0350 -0.0058 -0.1909
64336W        W 7274   0.062  24.067   8.883 -0.3397 -0.1346  0.2590
64337W        W 7275   4.404  27.552   6.963  0.3461 -0.1677 -0.0741
64338W        W 7276   0.090  26.654   8.751  0.1677 -0.0684  0.2037
64339W        W 7277   1.838  28.898   6.480  0.0476  0.0953 -0.1120
64340W        W 7278   2.199  26.934   9.209 -0.0469 -0.2565  0.2905
64341W        W 7279   2.757  29.203   8.689 -0.2484 -0.0472  0.1619
64342W        W 7280  34.374  25.228   8.170  0.0174 -0.1330  0.4650
64343W        W 7281   0.997  27.330   9.293 -0.2117 -0.2220  0.0499
64344W        W 7282   4.129  28.511  10.179 -0.1989 -0.3068 -0.1025
64345W        W 7283   1.778  25.743   8.885  0.3481  0.1806  0.1503
64346W        W 7284  34.053  26.410   9.135  0.2520 -0.0227 -0.0656
64347W        W 7285  34.455  28.424   7.547 -0.1063 -0.0583  0.0050
64348W        W 7286   2.747  25.425   9.176  0.0522  0.2532  0.0431
64349W        W 7287   1.410  28.745   6.154  0.0724  0.1412 -0.5099
64350W        W 7288   1.910  29.159   8.771 -0.1906 -0.0838 -0.0548
64351W        W 7289  34.551  27.199   5.466 -0.1942  0.0262  0.1805
64352W        W 7290   1.382  26.557   8.213 -0.0371 -0.2169  0.2474
64353W        W 7291   2.544  28.510   7.545  0.0802  0.2296  0.0943
64354W        W 7292   1.422  28.481   9.189 -0.3501  0.0678  0.0154
64355W        W 7293   2.361  26.003   6.711  0.1005 -0.2677  0.2042
64356W        W 7294   2.840  28.729   9.026 -0.0030 -0.0158 -0.0139
64357W        W 7295   1.148  26.387   7.824 -0.0133  0.0245 -0.2131
64358W        W 7296   3.445  26.561   8.412  0.0087  0.3564 -0.1050
64359W        W 7297   2.977  25.818   8.980  0.2184 -0.1893  0.3382
64360W        W 7298   0.638  27.256   8.375  0.2075 -0.0980  0.0123
64361W        W 7299   0.558  26.644   6.705  0.1461 -0.1597 -0.0033
64362W        W 7300   2.560  27.685   8.186  0.0599  0.1237  0.1987
64363W        W 7301   0.566  29.103   8.280 -0.3367 -0.1186 -0.1547
64364W        W 7302   1.544  27.669   8.680 -0.1768  0.1837  0.2088
64365W        W 7303   0.467  26.173   7.420 -0.0049 -0.2966  0.5265
64366W        W 7304   3.101  27.626   8.231 -0.1047 -0.1907  0.0850
64367W        W 7305   0.038  25.194   8.527 -0.1011 -0.0393  0.0743
64368W        W 7306   0.244  25.243   8.024 -0.2441  0.2302  0.0038
64369W        W 7307   3.005  28.074   9.444  0.2928  0.0201  0.2247
64370W        W 7308   2.774  29.034   8.141 -0.0410  0.2628  0.2487
64371W        W 7309   2.457  25.352   6.716  0.0529  0.0936  0.2514
64372W        W 7310   0.139  26.704   7.014  0.2008 -0.0526  0.1467
64373W        W 7311   0.166  25.831   5.967  0.2974  0.0876 -0.4622
64374W        W 7312   3.277  26.187   9.138  0.2553 -0.1520  0.2233
64375W        W 7313   1.719  27.845   7.613 -0.0451 -0.1853 -0.0424
64376W        W 7314   2.558  28.688   6.983  0.3959 -0.2305  0.0658
64377W        W 7315   0.158  26.416   7.894 -0.1890 -0.1077 -0.2729
64378W        W 7316   2.894  28.817   9.543 -0.2018  0.0906 -0.0071
64379W        W 7317   4.055  27.286   8.209 -0.2976 -0.3284  0.0481
64380W        W 7318   2.217  25.939   8.929 -0.1699  0.2084 -0.1243
64381W        W 7319   2.770  27.289   7.940 -0.2691  0.0795  0.1794
64382W        W 7320   2.603  28.175   9.780  0.2470 -0.1860  0.0679
64383W        W 7321   0.340  24.904   7.622  0.2303  0.1159  0.0289
64384W        W 7322   2.697  25.797   8.528  0.0891 -0.2052 -0.0130
64385W        W 7323   1.511  27.675   6.889 -0.1815  0.1611  0.2092
64386W        W 7324  33.878  27.799   8.292  0.1156 -0.1980  0.5266
64387W        W 7325   2.318  26.331   7.608 -0.1133  0.1425  0.0827
64388W        W 7326   2.400  28.911   8.887  0.1156 -0.0558 -0.1143
64389W        W 7327   1.955  26.750   7.446 -0.2598 -0.0169  0.0771
64390W        W 7328   3.138  28.117   8.079  0.2184  0.1064 -0.0471
64391W        W 7329   3.568  26.606   9.074 -0.3240 -0.0225  0.2753
64392W        W 7330   1.191  28.058   8.718 -0.1537 -0.1580 -0.2741
64393W        W 7331   3.020  28.290   8.915  0.0996 -0.2758  0.1080
64394W        W 7332  34.689  24.756   7.967 -0.1821 -0.2230  0.1371
64395W        W 7333   0.919  27.335   7.804 -0.0340  0.0731 -0.1191
64396W        W 7334   2.266  27.309   8.006 -0.0043  0.3446 -0.0780
64397W        W 7335   3.256  26.127   9.991 -0.0220 -0.3242  0.3227
64398W        W 7336  34.364  25.634   9.828 -0.3186  0.0584  0.0074
64399W        W 7337   2.780  26.489   7.757 -0.0075  0.0117 -0.2421
64400W        W 7338   1.040  28.805   9.152  0.1281 -0.2360  0.2310
64401W        W 7339   2.031  27.505   8.488 -0.1585 -0.1888 -0.3586
64402W        W 7340   1.470  32.098   3.856  0.0217  0.1719  0.4021
64403W        W 7341   0.950  30.491   1.906 -0.1458  0.0570 -0.1314
64404W        W 7342   3.852  30.425  31.348  0.1790 -0.0065 -0.0628
64405W        W 7343   2.850  30.961   1.382  0.1744 -0.0348 -0.1996
64406W        W 7344   1.442  30.946   0.442  0.0209  0.0705  0.0603
64407W        W 7345   2.747  30.175   1.437  0.0913 -0.2315  0.2318
64408W        W 7346   1.152  30.054   3.003 -0.3724  0.0251 -0.0383
64409W        W 7347   2.987  32.545   2.886 -0.2454 -0.0139 -0.0801
64410W        W 7348   2.904  33.209   1.691  0.1489 -0.2099  0.3222
64411W        W 7349   3.041  30.717  31.620 -0.2641  0.2788 -0.0206
64412W        W 7350   0.556  30.275   2.249  0.1333 -0.0755  0.3368
64413W        W 7351   1.317  31.813   3.151 -0.2208  0.2625  0.4686
64414W        W 7352   0.644  29.308   1.093 -0.0131 -0.0779  0.0596
64415W        W 7353  34.533  29.527   2.517  0.1577 -0.0929 -0.0719
64416W        W 7354   1.929  30.008   2.821 -0.3976  0.1328  0.2879
64417W        W 7355   0.977  31.159   0.558  0.1942  0.1337  0.1576
64418W        W 7356   0.551  31.389   1.830  0.1257 -0.1793 -0.3522
64419W        W 7357   1.642  31.384   1.751  0.2325  0.1626  0.1211
64420W        W 7358  34.436  33.209   0.424 -0.2686  0.1573 -0.2180
64421W        W 7359   2.298  30.346   2.407  0.1566  0.1367 -0.2213
64422W        W 7360   2.106  29.017   3.974 -0.0131  0.0939 -0.1406
64423W        W 7361   2.787  31.818   0.754 -0.3947 -0.2396 -0.0971
64424W        W 7362   1.430  30.109   1.521  0.0977 -0.0536  0.0429
64425W        W 7363   1.013  31.014   3.653 -0.0627  0.2635  0.0595
64426W        W 7364   0.321  31.060   2.853 -0.0475  0.0798  0.3914
64427W        W 7365   3.032  29.476   2.073 -0.0345  0.0003 -0.2387
64428W        W 7366   3.377  29.174   2.850  0.0350 -0.1770 -0.0066
64429W        W 7367   2.225  32.176   2.781 -0.1366  0.1745 -0.0201
64430W        W 7368   2.224  31.510   2.878 -0.2140  0.0085 -0.1366
64431W        W 7369   1.986  29.991   3.934 -0.0575 -0.0369 -0.1718
64432W        W 7370  34.440  31.466   1.857 -0.1586 -0.1312 -0.0286
64433W        W 7371  34.512  33.072   1.948 -0.1164  0.0853 -0.0975
64434W        W 7372   0.221  33.014   0.702 -0.1783  0.1733 -0.1003
64435W        W 7373   4.473  32.613   2.360 -0.0312 -0.1139 -0.1505
64436W        W 7374   3.003  32.563   3.380 -0.0079  0.1565 -0.0048
64437W        W 7375   3.532  32.484   3.093 -0.1707  0.1725 -0.0537
64438W        W 7376   0.641  30.175   1.591 -0.4489  0.1364  0.0621
64439W        W 7377   2.785  33.870   2.407  0.1977  0.0750  0.0853
64440W        W 7378   0.373  31.605   3.887 -0.0649 -0.0095  0.2452
64441W        W 7379   1.722  31.396   2.571 -0.0179  0.2263 -0.0356
64442W        W 7380   1.885  31.631   2.160  0.0328 -0.2471  0.0878
64443W        W 7381   0.162  33.382  31.569  0.2463 -0.0593 -0.3746
64444W        W 7382   1.235  31.894   1.402  0.2385 -0.1268  0.1177
64445W        W 7383   1.262  32.613   3.138  0.1562 -0.1850  0.2379
64446W        W 7384  32.812  31.705   1.612 -0.0397  0.1366 -0.1992
64447W        W 7385   3.352  31.575   3.480  0.1457  0.1531 -0.2481
64448W        W 7386   0.342  32.976   1.163 -0.0951 -0.0925 -0.1173
64449W        W 7387   4.140  30.616   0.753  0.0494  0.1766 -0.0167
64450W        W 7388   3.107  31.002   0.046 -0.3282 -0.0672  0.1181
64451W        W 7389   3.928  30.758  31.786 -0.0723  0.0682 -0.2761
64452W        W 7390   2.426  29.440   2.388  0.0572 -0.1339 -0.0853
64453W        W 7391   1.529  33.380   1.902 -0.3003  0.1508 -0.1332
64454W        W 7392   1.035  28.764   2.335 -0.4909  0.0121  0.2746
64455W        W 7393   4.352  31.921   2.225 -0.0219 -0.0301  0.2559
64456W        W 7394   1.384  32.114   0.956 -0.2268  0.0266  0.1028
64457W        W 7395   1.680  30.481   3.516 -0.1178 -0.4021 -0.1470
64458W        W 7396   0.397  32.134   2.246 -0.0498  0.1228 -0.1917
64459W        W 7397  33.791  30.704   2.632 -0.1767  0.1391  0.0398
64460W        W 7398   3.241  31.796   0.482 -0.1125  0.2369  0.0066
64461W        W 7399   3.282  31.551   1.957 -0.1119  0.0153 -0.2089
64462W        W 7400   2.922  32.039  31.809 -0.0511  0.0365  0.1178
64463W        W 7401   0.330  29.157   0.197 -0.0439 -0.2406 -0.0181
64464W        W 7402  34.580  32.315   3.237  0.1852 -0.0089  0.0993
64465W        W 7403   0.349  32.022   2.714 -0.0576 -0.2503 -0.2629
64466W        W 7404  34.448  28.853   0.282  0.0394 -0.1721  0.0593
64467W        W 7405   4.105  32.540   3.092  0.1556  0.0246 -0.3394
64468W        W 7406  33.650  32.598   3.079  0.1981 -0.1920  0.0323
64469W        W 7407   2.687  29.897   1.928 -0.2992  0.0807  0.3196
64470W        W 7408   1.033  32.656   0.837  0.0068  0.0796 -0.0477
64471W        W 7409   2.725  33.615   3.448  0.0567  0.2538 -0.2044
64472W        W 7410   4.183  29.997   1.082 -0.0184  0.0294  0.2977
64473W        W 7411   2.280  29.627   3.176 -0.1990  0.1330  0.0895
64474W        W 7412   3.471  29.292   3.331 -0.0180  0.0852 -0.3070
64475W        W 7413   1.827  30.739  31.961 -0.0211  0.1207  0.1170
64476W        W 7414   0.998  30.612   0.413 -0.0188 -0.3165 -0.1663
64477W        W 7415   3.149  32.136   3.192  0.0335  0.1331 -0.1957
64478W        W 7416   3.346  31.532  31.247  0.0494  0.0206 -0.2520
64479W        W 7417   1.154  32.469   1.326  0.1433  0.1207 -0.1034
64480W        W 7418   2.310  30.457   3.803  0.1767 -0.2442  0.4725
64481W        W 7419   2.625  30.842   5.119 -0.0254 -0.0375  0.2527
64482W        W 7420  34.562  33.668   0.331  0.0816 -0.1481 -0.1711
64483W        W 7421  34.640  30.726   2.275 -0.0839  0.3509 -0.1501
64484W        W 7422  34.507  31.490   1.358 -0.0932 -0.1553  0.0158
64485W        W 7423  34.663  29.073   1.617 -0.0008 -0.1441 -0.1058
64486W        W 7424  34.628  32.660   2.858  0.1754  0.0958  0.1377
64487W        W 7425   3.332  30.445   2.095 -0.1783  0.1950 -0.1115
64488W        W 7426   0.128  29.888   3.429 -0.1262  0.2190 -0.0980
64489W        W 7427   3.298  28.700   1.721  0.2583  0.1300 -0.0498
64490W        W 7428  34.020  31.176   2.882 -0.0338 -0.0490 -0.0496
64491W        W 7429   1.826  31.089   1.301  0.1845 -0.4927 -0.0995
64492W        W 7430   3.799  30.220  31.819  0.1120 -0.0403  0.4301
64493W        W 7431   2.728  30.550   1.117  0.0234 -0.0462 -0.0318
64494W        W 7432   0.319  30.711   3.742 -0.2214  0.0727  0.0258
64495W        W 7433   0.888  31.236   1.026 -0.0694 -0.1535  0.0161
64496W        W 7434   0.705  29.641   2.866 -0.1906 -0.1650  0.0613
64497W        W 7435   0.246  30.048   1.849 -0.0668 -0.0050 -0.2914
64498W        W 7436   2.905  30.873   3.256 -0.0677  0.0062 -0.1687
64499W        W 7437   0.894  30.718   0.962 -0.1122  0.1533 -0.2087
64500W        W 7438   2.821  28.731   1.500  0.1343 -0.1901  0.1179
64501W        W 7439   0.584  32.566   1.480  0.5546  0.0246  0.4213
64502W        W 7440   0.818  31.960   2.702  0.3438  0.1114 -0.2477
64503W        W 7441   1.689  29.202   4.275  0.0276  0.0695 -0.0426
64504W        W 7442   3.230  34.595   0.097 -0.2958 -0.1245  0.2863
64505W        W 7443   4.163  33.458   2.433  0.1774  0.2132 -0.0688
64506W        W 7444   2.358  32.819   1.069 -0.0805 -0.2866  0.0219
64507W        W 7445   1.753  29.619   2.454 -0.1352  0.1054 -0.1430
64508W        W 7446   2.070  29.439  31.868 -0.3418  0.2559  0.1653
64509W        W 7447   1.985  33.813   1.462  0.0759  0.1607  0.5395
64510W        W 7448   0.742  32.416   2.061  0.0339  0.2967 -0.2121
64511W        W 7449   1.438  29.430   1.522  0.0413 -0.0541  0.2500
64512W        W 7450   3.155  31.174   2.753  0.3111  0.1883 -0.4367
64513W        W 7451   2.141  32.422   1.820 -0.1617 -0.1609 -0.0214
64514W        W 7452  33.868  32.843   3.489 -0.0397 -0.2412 -0.1025
64515W        W 7453   2.555  28.571   3.029  0.0276  0.0309 -0.1181
64516W        W 7454   2.463  30.627   3.357  0.1236  0.1486 -0.0324
64517W        W 7455   1.322  31.029   2.649  0.0556 -0.1566  0.2584
64518W        W 7456   0.688  28.807   0.224  0.2034 -0.1359 -0.3007
64519W        W 7457   2.599  33.335   0.843  0.1712 -0.0894  0.3506
64520W        W 7458   0.043  32.325   1.381 -0.0741 -0.0403  0.0238
64521W        W 7459   1.089  31.472   1.771 -0.0915 -0.1719 -0.2975
64522W        W 7460   2.709  32.448   1.897  0.0751  0.3491 -0.3647
64523W        W 7461   2.577  29.303   1.648 -0.1723  0.1419  0.0024
64524W        W 7462  33.848  31.316   4.303 -0.0401 -0.1304 -0.2968
64525W        W 7463   2.233  29.514   4.004  0.0457  0.0259  0.1630
64526W        W 7464   0.550  30.323   1.068 -0.0174  0.2998  0.0642
64527W        W 7465  34.234  32.433   4.738 -0.4065 -0.1954 -0.2809
64528W        W 7466   2.897  29.614   0.951  0.5034  0.1617 -0.1006
64529W        W 7467   4.187  30.843   0.330 -0.2480 -0.2050 -0.0288
64530W        W 7468   0.832  32.379   3.013  0.0043 -0.2207 -0.2005
64531W        W 7469   4.220  32.159   1.475  0.0829  0.1200 -0.0664
64532W        W 7470   2.172  29.784   0.244  0.1718 -0.1077 -0.1932
64533W        W 7471   3.126  28.098  31.858 -0.3830 -0.2635 -0.0015
64534W        W 7472  34.572  30.714   4.047 -0.0878 -0.1195  0.4643
64535W        W 7473   2.139  32.102   2.233 -0.1425 -0.1569 -0.0990
64536W        W 7474   1.075  31.727   0.981  0.0114  0.0381  0.0973
64537W        W 7475   2.126  30.183   0.736 -0.1892 -0.2490  0.1969
64538W        W 7476   4.459  31.647   0.923 -0.2054  0.2004  0.2029
64539W        W 7477   0.598  30.833   1.907 -0.4491 -0.0178 -0.0275
64540W        W 7478   2.417  31.251   2.496 -0.1754 -0.5865 -0.1981
64541W        W 7479   2.854  31.002   2.383 -0.2198  0.3105 -0.0335
64542W        W 7480   2.017  30.619   2.024 -0.0718  0.0807 -0.0140
64543W        W 7481   1.041  30.216   0.797 -0.3167  0.0451 -0.2318
64544W        W 7482   2.001  30.703   1.525 -0.0193  0.0107  0.1204
64545W        W 7483  34.181  32.075   1.938 -0.0627 -0.1732  0.5037
64546W        W 7484   2.795  29.321   3.310 -0.2086 -0.0432 -0.0815
64547W        W 7485   1.921  30.257   1.677 -0.0893  0.0697  0.1506
64548W        W 7486   1.658  29.099   2.861 -0.0053 -0.2244 -0.1728
64549W        W 7487   2.757  30.838   3.758 -0.4261  0.3913  0.0330
64550W        W 7488   2.063  31.070   1.924 -0.1568  0.0375  0.1962
64551W        W 7489   2.116  29.448   1.964 -0.1309 -0.2039 -0.1493
64552W        W 7490   0.466  30.614   0.648  0.2428  0.1163 -0.1564
64553W        W 7491   1.416  30.044   2.582  0.2805  0.1314 -0.1064
64554W        W 7492  34.492  31.530   3.014 -0.2408  0.1284  0.0982
64555W        W 7493  34.175  34.142   3.133  0.1236  0.0037  0.2467
64556W        W 7494   2.375  31.155   3.286 -0.1232 -0.0485  0.0618
64557W        W 7495   2.058  31.373   0.846 -0.3148 -0.1417  0.3309
64558W        W 7496   0.212  30.271   4.216 -0.0122  0.3696 -0.1794
64559W        W 7497   1.565  30.097   0.836  0.0494 -0.1281  0.0689
64560W        W 7498  34.413  32.067   1.068 -0.1131 -0.3229 -0.3301
64561W        W 7499   0.939  32.313   0.323 -0.2538  0.2592 -0.0214
64562W        W 7500   2.390  29.037   3.147  0.0770  0.0387  0.0315
64563W        W 7501  34.452  32.310   2.505 -0.0617  0.0096  0.0773
64564W        W 7502   1.920  32.025   1.054 -0.1157  0.1598  0.0664
64565W        W 7503   1.196  30.530   2.819  0.1072 -0.0768  0.1357
64566W        W 7504   0.721  33.010   0.810 -0.0412 -0.1555 -0.2038
64567W        W 7505   2.793  28.540   2.512 -0.1457  0.0601  0.0647
64568W        W 7506   0.315  33.220   2.054 -0.2299 -0.0889 -0.2616
64569W        W 7507   0.745  29.812   0.795  0.4016  0.2996 -0.1939
64570W        W 7508   0.067  31.504   2.596  0.0320  0.0296  0.3015
64571W        W 7509   2.490  29.249   1.046  0.0394 -0.3284  0.1448
64572W        W 7510   2.206  31.137  31.931 -0.4295 -0.4030  0.2801
64573W        W 7511   0.823  31.150   2.675  0.0149 -0.0280  0.1313
64574W        W 7512   1.677  30.414   1.215 -0.0168 -0.0005 -0.3818
64575W        W 7513  33.713  33.497   1.914 -0.0334 -0.3700  0.1182
64576W        W 7514   2.382  30.835   2.258 -0.2208  0.1974 -0.2375
64577W        W 7515   3.131  30.760   0.480  0.2214 -0.1444 -0.1445
64578W        W 7516   2.829  31.491   2.384  0.1059 -0.0746 -0.1716
64579W        W 7517   0.719  31.909   3.233 -0.1119 -0.0619 -0.1767
64580W        W 7518  34.060  29.311   0.459 -0.2762  0.3787  0.1461
64581W        W 7519   2.454  29.988   4.088 -0.0958 -0.2152  0.0297
64582W        W 7520   2.282  29.853   1.566 -0.0267  0.2588  0.1816
64583W        W 7521   1.051  32.234   1.738  0.0621  0.0614 -0.0434
64584W        W 7522   2.823  32.349   1.169  0.0322  0.0497 -0.1804
64585W        W 7523   2.322  31.735   1.151  0.1404  0.1683 -0.0922
64586W        W 7524   0.771  32.146   1.295  0.1430  0.0223  0.0306
64587W        W 7525   0.715  30.629   2.956 -0.1754  0.0211 -0.1242
64588W        W 7526   2.740  31.096   1.900 -0.0194 -0.1548 -0.3007
64589W        W 7527   1.923  31.217   0.389 -0.0349  0.0077  0.1032
64590W        W 7528   0.021  30.605   1.041 -0.1620  0.1186  0.1405
64591W        W 7529   1.234  31.340   1.354 -0.1853  0.0765  0.0688
64592W        W 7530   1.800  30.843   2.441 -0.1471  0.0631  0.1015
64593W        W 7531   0.563  29.407   4.209 -0.0254  0.1151 -0.0128
64594W        W 7532   0.378  32.534   4.442 -0.0733  0.1477 -0.2329
64595W        W 7533   2.000  29.983   2.122  0.1027 -0.1419 -0.1771
64596W        W 7534   3.869  33.937   0.735  0.2914 -0.1116  0.0129
64597W        W 7535   1.779  30.331   2.404 -0.0165  0.2366  0.1449
64598W        W 7536   2.364  30.964   1.285  0.2650 -0.0696  0.2022
64599W        W 7537  33.513  30.107   1.766  0.0526  0.0461  0.0697
64600W        W 7538   1.403  31.822   1.987  0.1624 -0.0432  0.1495
64601W        W 7539   1.508  29.828   2.079 -0.1992 -0.1797  0.1404
64602W        W 7540   0.959  32.747   1.760 -0.1215 -0.3321  0.0956
64603W        W 7541   1.246  32.481   2.137  0.3065 -0.1275 -0.0585
64604W        W 7542  33.944  32.083   2.478  0.0625  0.0939  0.1481
64605W        W 7543   3.761  30.416   1.094  0.0399 -0.1941 -0.3622
64606W        W 7544   2.227  32.946   0.637 -0.0086  0.3603 -0.3759
64607W        W 7545   1.540  30.333   1.980 -0.3273 -0.0273  0.1003
64608W        W 7546   2.691  29.570   3.789  0.0025  0.1573 -0.1280
64609W        W 7547   1.740  31.917   1.572  0.0438  0.3115  0.1153
64610W        W 7548   2.171  30.325   4.295  0.2082 -0.2283 -0.6169
64611W        W 7549   0.094  29.529   2.972 -0.2286 -0.2699  0.2025
64612W        W 7550   3.074  31.383   1.425  0.1601 -0.0334  0.0664
64613W        W 7551  34.212  30.466   2.627  0.1516  0.2897  0.0974
64614W        W 7552   2.360  31.744   2.434 -0.2741  0.4169 -0.0656
64615W        W 7553   1.238  30.539   3.834 -0.0360 -0.0056  0.1305
64616W        W 7554   2.376  30.245   1.867 -0.1017 -0.1358 -0.1794
64617W        W 7555   1.562  29.493  31.951  0.0246  0.3286 -0.0016
64618W        W 7556   0.334  31.371   1.331  0.3584 -0.0032  0.0234
64619W        W 7557   3.760  32.855   1.642  0.1963  0.1269  0.0780
64620W        W 7558   1.937  32.456   0.825 -0.0167 -0.1615  0.3091
64621W        W 7559   2.084  30.523   2.859  0.0186 -0.0136 -0.4296
64622W        W 7560   0.417  30.956   1.066 -0.0170  0.1407  0.0533
64623W        W 7561   3.238  31.644   0.967 -0.1129 -0.3406  0.0460
64624W        W 7562   1.494  32.126  31.500  0.3388  0.1556  0.3673
64625W        W 7563   0.577  31.588   0.886 -0.3085 -0.3779  0.0909
64626W        W 7564   0.290  30.872   4.227  0.1933  0.1494 -0.0619
64627W        W 7565   2.853  31.630   1.766  0.1452  0.3856 -0.1638
64628W        W 7566   2.466  29.949  31.778 -0.0067 -0.0819 -0.0434
64629W        W 7567   3.896  30.667   3.779  0.0647  0.0228  0.1987
64630W        W 7568   3.531  30.863   2.773 -0.1328 -0.2630 -0.0685
64631W        W 7569   1.836  30.599   4.485  0.0384  0.2309 -0.0866
64632W        W 7570  34.497  30.154   4.777  0.2148 -0.2999  0.0692
64633W        W 7571   3.755  33.375   3.661  0.3267  0.0463  0.1336
64634W        W 7572   3.058  29.598   0.212 -0.4566 -0.0845  0.0067
64635W        W 7573   3.225  30.014   2.706  0.1743 -0.2410  0.3022
64636W        W 7574   4.376  31.539   3.119 -0.0144  0.4622 -0.0936
64637W        W 7575   4.901  30.784  31.112 -0.1657 -0.1972  0.0715
64638W        W 7576   1.061  29.798   1.703 -0.1581  0.2466  0.3489
64639W        W 7577   3.864  31.165   4.144 -0.0174 -0.0192  0.1065
64640W        W 7578   3.073  30.038  31.964 -0.2503  0.0741  0.0606
64641W        W 7579   1.029  30.140   4.435  0.2669  0.0888  0.0933
64642W        W 7580   1.752  32.289  31.981  0.2162  0.0267  0.0102
64643W        W 7581   1.615  32.105   2.322  0.1966  0.0950  0.1985
64644W        W 7582   3.739  31.469   1.557  0.0919  0.1438 -0.3302
64645W        W 7583  34.535  30.021   2.736  0.3242  0.0222  0.2062
64646W        W 7584  34.686  33.319   3.354  0.0359  0.3725 -0.0610
64647W        W 7585   1.006  30.466   1.382 -0.2813  0.2754 -0.1945
64648W        W 7586   2.715  31.286  31.857 -0.3375  0.1192  0.3007
64649W        W 7587   3.161  31.664   2.983 -0.4205 -0.1142  0.1872
64650W        W 7588   2.723  31.310   2.967 -0.0856 -0.1778 -0.2382
64651W        W 7589   3.179  28.663  31.507  0.0763 -0.1592  0.0720
64652W        W 7590   2.590  29.597   4.346  0.1110 -0.0396  0.4266
64653W        W 7591   0.219  31.663   2.014 -0.1666  0.2227  0.2007
64654W        W 7592   2.108  29.395   1.382  0.3892 -0.0873 -0.3191
64655W        W 7593   0.561  33.058   3.440  0.2043 -0.0049 -0.0477
64656W        W 7594  34.169  32.576   2.224 -0.0306  0.0119 -0.1425
64657W        W 7595   1.641  32.428   1.819 -0.0280 -0.0187 -0.0438
64658W        W 7596   0.761  29.735   2.325 -0.0363 -0.0938 -0.0730
64659W        W 7597   2.487  30.264   3.058 -0.0682 -0.2694 -0.2515
64660W        W 7598   1.517  29.771   3.849  0.0640 -0.0135 -0.0011
64661W        W 7599   3.766  31.662   4.142 -0.0552 -0.1688 -0.3058
64662W        W 7600   2.728  33.360   2.420 -0.0946  0.0179 -0.0223
64663W        W 7601   0.060  30.609   1.821  0.1896  0.0259 -0.0387
64664W        W 7602   2.035  30.785   3.313 -0.0682  0.0886  0.3166
64665W        W 7603   2.885  31.868   1.275 -0.0977  0.2126  0.1627
64666W        W 7604   1.718  31.694   0.162 -0.2555 -0.3250 -0.2094
64667W        W 7605  33.670  30.824   4.114  0.0017 -0.1488 -0.0219
64668W        W 7606   2.144  31.951   3.243  0.0288  0.0124  0.0475
64669W        W 7607   1.364  31.361   2.182  0.2552 -0.0039  0.1769
64670W        W 7608   1.475  28.810   0.145  0.0634  0.4301  0.3894
64671W        W 7609   3.391  31.795   1.413  0.0134 -0.0026 -0.1164
64672W        W 7610  32.984  31.668   3.470  0.0408 -0.2253  0.1384
64673W        W 7611  34.139  31.566   3.772  0.2859  0.4070 -0.1932
64674W        W 7612  33.742  31.390   0.751 -0.1535 -0.1123 -0.0096
64675W        W 7613   3.598  30.873   1.504 -0.3567  0.1528 -0.1954
64676W        W 7614   2.683  30.989   0.254 -0.0483  0.1203  0.2145
64677W        W 7615   2.655  32.293   2.552 -0.1755  0.0964 -0.1966
64678W        W 7616   1.118  29.681  31.151 -0.2175  0.1555 -0.0131
64679W        W 7617   1.609  32.227   3.381 -0.2374 -0.2421  0.0402
64680W        W 7618  33.581  32.308   0.661 -0.2998  0.1676  0.1794
64681W        W 7619   2.904  31.360   0.561  0.2898  0.2285 -0.0139
64682W        W 7620   1.461  34.282   1.600  0.0135 -0.0878  0.2283
64683W        W 7621   3.288  31.710   3.952  0.3084 -0.0086  0.2756
64684W        W 7622   3.177  31.091   0.904 -0.0683 -0.4023 -0.1848
64685W        W 7623   3.290  30.563   3.622  0.0540  0.5695  0.0810
64686W        W 7624   3.699  31.210   2.005  0.0574 -0.1310  0.1027
64687W        W 7625   2.170  32.472   3.136 -0.0760  0.3532  0.1299
64688W        W 7626   0.393  31.210   2.302  0.2248  0.0203  0.1672
64689W        W 7627   1.992  30.210  31.729 -0.1022 -0.0391  0.0856
64690W        W 7628   0.694  31.512   3.541  0.0590  0.0772 -0.2696
64691W        W 7629   3.957  30.033   3.027  0.1611  0.1082  0.0138
64692W        W 7630  33.772  34.021   3.759 -0.1621 -0.1039  0.0803
64693W        W 7631   4.249  31.933   0.106  0.0540 -0.2141 -0.0332
64694W        W 7632   0.642  31.634   2.318  0.0500  0.1851  0.0203
64695W        W 7633   0.811  30.211   2.655  0.3182 -0.1467  0.1889
64696W        W 7634   3.597  29.119   1.415  0.1513  0.2377  0.0304
64697W        W 7635   2.374  30.330   0.145  0.2283 -0.1464  0.1265
64698W        W 7636   2.879  29.650   1.527  0.1583 -0.2653  0.2694
64699W        W 7637   1.453  32.944   1.318 -0.3304  0.0862  0.1280
64700W        W 7638   0.372  32.373   3.128  0.0992 -0.2819  0.0078
64701W        W 7639   1.081  32.028   2.275  0.0424 -0.0483 -0.0011
64702W        W 7640   0.530  30.670   1.438 -0.0845  0.0308 -0.1820
64703W        W 7641   3.680  30.006   1.980  0.0017 -0.0984 -0.1693
64704W        W 7642   0.867  30.677   2.438 -0.3846  0.3282  0.1688
64705W        W 7643   3.532  28.848   3.626 -0.5832 -0.3167 -0.1381
64706W        W 7644   2.389  29.745   1.097  0.0979 -0.1808 -0.2779
64707W        W 7645   3.247  31.063   1.821  0.1858  0.0781 -0.1218
64708W        W 7646   1.859  30.601   3.966 -0.1311  0.2596 -0.0054
64709W        W 7647   0.568  30.999   3.355 -0.3101  0.1734 -0.1578
64710W        W 7648   0.892  30.764  31.467 -0.3881  0.1829  0.0016
64711W        W 7649   2.723  31.832   2.764  0.2857 -0.0671 -0.0067
64712W        W 7650   3.683  30.865   0.872 -0.0784  0.1775  0.0613
64713W        W 7651   2.204  33.088   3.440  0.4276 -0.3228 -0.3523
64714W        W 7652   0.420  30.696   2.459 -0.0785 -0.2917  0.0730
64715W        W 7653   2.645  29.770  31.300  0.2421  0.2161 -0.0413
64716W        W 7654  34.543  29.894  31.968 -0.0626 -0.2345 -0.0127
64717W        W 7655   1.375  30.084   3.507  0.1346  0.2192  0.0195
64718W        W 7656   2.989  32.018   3.704  0.3689  0.0912  0.1096
64719W        W 7657   1.293  30.744   2.145  0.0394  0.1016  0.0937
64720W        W 7658   4.491  31.270   1.852  0.0359 -0.0891  0.2730
64721W        W 7659   2.758  29.836   3.280 -0.1213 -0.0456 -0.2603
64722W        W 7660   2.408  34.170   0.298 -0.0451  0.1390 -0.6034
64723W        W 7661   2.590  30.469   0.545 -0.0763  0.2179 -0.0575
64724W        W 7662   3.121  32.176   0.818 -0.0595  0.2615 -0.0946
64725W        W 7663   0.573  31.579   2.825  0.2716  0.1055 -0.0335
64726W        W 7664   2.822  33.899   0.337  0.1964 -0.0571  0.0232
64727W        W 7665   3.775  31.566   3.222  0.0413 -0.0197  0.1836
64728W        W 7666   3.604  30.392   1.590 -0.0679  0.2506 -0.3924
64729W        W 7667   1.634  31.605   1.142 -0.2009 -0.1067 -0.1752
64730W        W 7668  33.667  32.911   0.676  0.2119 -0.1170  0.0572
64731W        W 7669   2.392  29.953   3.587 -0.3877  0.0182 -0.0546
64732W        W 7670   2.817  30.387   3.636 -0.0326 -0.1642  0.0535
64733W        W 7671   0.754  32.652  31.963 -0.2327  0.0542  0.0932
64734W        W 7672   3.954  28.443   3.703  0.1227 -0.3466  0.0024
64735W        W 7673   2.184  32.653   2.633  0.4210  0.2665  0.1904
64736W        W 7674   1.363  32.629   3.637 -0.0498 -0.0809 -0.0446
64737W        W 7675   1.474  31.555   0.630  0.0249 -0.1029  0.2662
64738W        W 7676   0.934  31.422   3.114 -0.1879 -0.0826  0.4284
64739W        W 7677   2.514  31.348   1.508  0.2636  0.1020 -0.3812
64740W        W 7678   0.518  32.803   0.387 -0.2455  0.2000  0.0917
64741W        W 7679   3.394  30.954   2.318  0.0385 -0.0915  0.3085
64742W        W 7680   3.380  31.236   0.401 -0.0105 -0.1737  0.2562
64743W        W 7681   2.554  30.634   1.617  0.2674 -0.1365 -0.0428
64744W        W 7682   0.756  31.129   1.468 -0.1956 -0.3924  0.1171
64745W        W 7683   4.270  30.396   1.314  0.2516  0.0740  0.1211
64746W        W 7684   2.603  30.078   0.885 -0.3876 -0.0229 -0.1243
64747W        W 7685  33.962  31.586   2.482 -0.4580 -0.2748  0.1091
64748W        W 7686   0.121  31.106   1.906  0.0808  0.1443 -0.1416
64749W        W 7687  34.559  31.938   1.665  0.0974 -0.0297  0.2186
64750W        W 7688   0.825  31.665   1.409  0.1656 -0.0696 -0.0183
64751W        W 7689   2.522  29.400   4.835  0.3361 -0.0335 -0.1258
64752W        W 7690  34.339  29.663   4.112  0.2600 -0.1112 -0.3310
64753W        W 7691  34.330  30.924   1.800 -0.0449  0.1485  0.1666
64754W        W 7692   0.044  30.276   2.353  0.0704  0.0868 -0.1228
64755W        W 7693   4.379  31.148   0.807 -0.1093 -0.0569  0.0735
64756W        W 7694  34.432  29.792   2.035 -0.0978 -0.1126 -0.0979
64757W        W 7695   0.432  29.867   1.255  0.2054 -0.0748 -0.0052
64758W        W 7696   3.986  30.416   2.290 -0.0185  0.1875  0.0502
64759W        W 7697   1.626  30.862   1.813  0.1666  0.1269 -0.0158
64760W        W 7698   2.205  30.760   0.297 -0.3207  0.2102  0.2345
64761W        W 7699   2.563  32.776   3.114 -0.0338 -0.0366 -0.1230
64762W        W 7700   0.503  32.555   0.990  0.3692  0.1915 -0.1035
64763W        W 7701   0.791  28.355   3.508  0.2635 -0.1699  0.0942
64764W        W 7702   0.294  29.150   3.859 -0.2199 -0.0948  0.3712
64765W        W 7703   1.129  30.095   0.312  0.0320  0.2261 -0.0080
64766W        W 7704   2.793  29.778   2.390 -0.1301  0.1199 -0.2246
64767W        W 7705   1.823  33.054   0.962 -0.1030  0.0996  0.0767
64768W        W 7706   2.411  33.828   0.663 -0.2602  0.0254 -0.1572
64769W        W 7707   2.471  31.497   2.023  0.3162 -0.2168 -0.3037
64770W        W 7708   2.049  32.356   3.700  0.0871 -0.0903  0.3155
64771W        W 7709   0.853  27.952   3.846  0.1430 -0.2964 -0.2306
64772W        W 7710   0.749  32.207   0.757  0.0338 -0.3891  0.2643
64773W        W 7711   1.885  31.345   3.200 -0.2298 -0.3508 -0.2406
64774W        W 7712   4.570  31.423   0.466  0.0684  0.1058  0.1228
64775W        W 7713   3.016  29.189   3.687 -0.0836 -0.0075 -0.1695
64776W        W 7714   1.400  30.807   1.369 -0.0840 -0.2122 -0.3693
64777W        W 7715   1.353  29.119   2.401  0.1043  0.3622  0.1576
64778W        W 7716   1.704  31.762   3.490  0.0574  0.0896 -0.0519
64779W        W 7717   3.225  30.088   1.622  0.2022  0.1300  0.3796
64780W        W 7718   2.627  29.405   2.830  0.1461 -0.3545  0.0720
64781W        W 7719   3.795  31.183  31.927  0.0704 -0.1239  0.0582
64782W        W 7720   2.074  32.465   0.344 -0.2863 -0.2808 -0.1835
64783W        W 7721  34.357  30.720   3.541  0.4761 -0.1553  0.2318
64784W        W 7722   3.422  29.384   0.491 -0.0643 -0.1238 -0.0123
64785W        W 7723   0.901  31.174   2.183  0.0108  0.3056 -0.2336
64786W        W 7724   2.603  32.225   3.182  0.2628 -0.2126  0.0485
64787W        W 7725   3.727  30.273   3.441  0.1889 -0.0213  0.0590
64788W        W 7726   1.805  30.944   0.816  0.0061  0.0214  0.0320
64789W        W 7727   4.789  31.617  31.637 -0.4184 -0.0316  0.0104
64790W        W 7728   3.048  32.457   2.272  0.0029 -0.0870  0.1270
64791W        W 7729   3.540  33.633   4.065  0.0688 -0.0166 -0.4158
64792W        W 7730   2.851  32.000   2.083 -0.2099  0.0901  0.2528
64793W        W 7731   2.762  30.233   2.555  0.0295 -0.0008  0.0101
64794W        W 7732  34.391  30.050   1.532 -0.1435  0.0424 -0.3089
64795W        W 7733  34.404  30.441  31.842 -0.0676  0.4833  0.0949
64796W        W 7734  34.363  30.613   0.650 -0.0259 -0.0175  0.0602
64797W        W 7735   2.969  30.419   3.105 -0.0162  0.0133 -0.1100
64798W        W 7736   1.118  30.972   1.749 -0.0195  0.1422 -0.3577
64799W        W 7737   1.923  29.961   1.219 -0.1403 -0.0902  0.0069
64800W        W 7738   1.274  31.679   2.586  0.1123 -0.1692 -0.0936
64801W        W 7739   1.220  30.564   3.330  0.1338  0.0986  0.0240
64802W        W 7740   1.053  32.879   5.711  0.0891 -0.0432  0.1556
64803W        W 7741  34.517  30.619   5.011  0.1617  0.0949 -0.0058
64804W        W 7742   2.968  30.029   4.405  0.0244  0.3151  0.0835
64805W        W 7743   3.207  31.114   3.704 -0.0115 -0.0326  0.0919
64806W        W 7744   0.271  30.370   5.108 -0.5389 -0.2036  0.0969
64807W        W 7745   2.231  31.598   3.577 -0.2156 -0.3783 -0.2052
64808W        W 7746  34.317  29.953   6.763 -0.0349  0.1684  0.0593
64809W        W 7747   3.655  32.825   5.405  0.2623 -0.0208 -0.0932
64810W        W 7748   3.020  32.552   6.097  0.1204  0.1868 -0.1124
64811W        W 7749   1.570  30.948   3.494  0.1201  0.0771 -0.1382
64812W        W 7750   1.046  30.817   6.081 -0.1457  0.1109 -0.2603
64813W        W 7751   1.300  31.374   4.415  0.0931 -0.3396  0.1538
64814W        W 7752   1.209  29.281   4.532  0.0678  0.1019  0.1378
64815W        W 7753  33.789  28.758   6.101 -0.1151  0.3150 -0.2691
64816W        W 7754   4.075  31.104   6.555 -0.1367  0.2653  0.2949
64817W        W 7755  33.400  31.470   5.123  0.0837 -0.1685 -0.2380
64818W        W 7756   2.656  28.483   5.140 -0.1381 -0.1365 -0.1007
64819W        W 7757   0.601  29.777   3.677  0.1338 -0.1160 -0.1036
64820W        W 7758   1.814  33.765   4.690 -0.0621  0.1607  0.2518
64821W        W 7759   2.304  29.310   5.261  0.4674  0.2201  0.0561
64822W        W 7760   2.239  28.194   6.915 -0.3020 -0.0527  0.2433
64823W        W 7761   1.044  32.303   5.496  0.1776  0.0306  0.0230
64824W        W 7762   0.644  29.373   3.361  0.0349 -0.3530  0.0082
64825W        W 7763  34.375  31.575   5.210 -0.1363  0.0047 -0.0951
64826W        W 7764   0.704  29.913   6.449 -0.1424  0.1590  0.2486
64827W        W 7765   3.831  28.920   6.109 -0.3014 -0.0528 -0.0990
64828W        W 7766   3.076  30.801   4.278 -0.0524 -0.2432 -0.1619
64829W        W 7767   2.508  32.127   3.763  0.1760 -0.0006 -0.2765
64830W        W 7768   2.423  32.762   4.609  0.1280  0.1263  0.0961
64831W        W 7769   3.175  30.667   5.978 -0.0283 -0.0580 -0.1018
64832W        W 7770   0.479  31.393   4.328 -0.0584  0.0923 -0.0197
64833W        W 7771  34.651  32.740   4.699  0.0802 -0.0128  0.0025
64834W        W 7772   2.225  32.772   3.979 -0.1501 -0.0514  0.0647
64835W        W 7773   3.470  32.332   6.014 -0.1267  0.1059 -0.1647
64836W        W 7774   2.388  32.669   6.776 -0.2437 -0.1265 -0.3138
64837W        W 7775   1.600  32.464   6.390  0.0584  0.3814  0.0217
64838W        W 7776  33.758  32.599   4.846 -0.0814  0.0889  0.3006
64839W        W 7777  34.482  32.884   6.291 -0.0472 -0.1196  0.0452
64840W        W 7778   0.171  32.202   5.763 -0.0592 -0.0642 -0.3687
64841W        W 7779   3.142  31.156   6.737 -0.1472  0.1645  0.3668
64842W        W 7780   1.701  31.974   4.311 -0.3736 -0.1621  0.0944
64843W        W 7781   1.337  31.421   3.496 -0.1606  0.2041 -0.1762
64844W        W 7782   2.347  32.659   5.067  0.4087  0.0774 -0.1628
64845W        W 7783   0.708  31.954   7.109 -0.1902 -0.2451 -0.0110
64846W        W 7784   0.834  31.665   4.569 -0.0058  0.0551 -0.2042
64847W        W 7785   3.485  28.787   6.702  0.0084 -0.1612 -0.0658
64848W        W 7786  33.548  30.994   4.647  0.1552 -0.1707 -0.0485
64849W        W 7787   2.659  29.822   5.050 -0.1177 -0.0704 -0.0003
64850W        W 7788  34.543  30.246   3.184  0.0088  0.2177  0.0065
64851W        W 7789   2.349  29.241   3.605 -0.2416 -0.0367 -0.1016
64852W        W 7790   2.226  29.112   5.824 -0.0929 -0.2313 -0.1078
64853W        W 7791   1.604  33.081   5.241 -0.2484  0.2297 -0.3019
64854W        W 7792   2.608  29.374   6.157 -0.1227  0.0080  0.0817
64855W        W 7793   3.730  32.564   6.372  0.0707 -0.3331 -0.0136
64856W        W 7794   2.004  31.852   3.897  0.0148  0.0554 -0.2585
64857W        W 7795   3.443  30.685   6.413 -0.1293  0.3048 -0.0088
64858W        W 7796   2.215  31.245   6.637  0.2312  0.0188 -0.1054
64859W        W 7797   0.295  30.941   5.124  0.0285 -0.1341 -0.0904
64860W        W 7798   3.960  32.950   3.848 -0.2620 -0.2785 -0.3741
64861W        W 7799   4.752  32.028   5.388 -0.1713  0.0477 -0.1279
64862W        W 7800   3.085  31.186   4.646  0.0632 -0.3060 -0.0738
64863W        W 7801   1.439  31.114   5.137  0.1150  0.2576 -0.2127
64864W        W 7802  34.517  31.231   6.970  0.2275 -0.0476 -0.0723
64865W        W 7803   0.756  30.556   7.747  0.0528 -0.0559 -0.2163
64866W        W 7804   0.696  28.821   3.823 -0.0203 -0.2675 -0.2303
64867W        W 7805   3.140  32.535   7.685 -0.2666 -0.1318 -0.2165
64868W        W 7806   1.078  31.511   6.625 -0.0692  0.2303  0.0417
64869W        W 7807   2.564  30.093   4.669  0.0559 -0.0932 -0.2880
64870W        W 7808   1.936  32.221   4.832  0.0262  0.1819  0.0332
64871W        W 7809   3.800  32.688   5.929 -0.1124  0.0920 -0.0915
64872W        W 7810   3.639  32.904   2.836  0.0632  0.2112 -0.0791
64873W        W 7811   4.245  28.310   5.816  0.0084  0.0344 -0.1673
64874W        W 7812   2.535  28.675   6.112  0.1259 -0.4220  0.1297
64875W        W 7813   0.900  31.458   4.073  0.0573 -0.0160  0.3142
64876W        W 7814   1.431  31.343   2.994 -0.1501  0.0794 -0.0223
64877W        W 7815   2.017  31.888   6.800 -0.1189 -0.0306 -0.1098
64878W        W 7816   1.708  30.139   4.538 -0.1433 -0.0667 -0.0404
64879W        W 7817   0.574  31.369   6.191  0.0487 -0.1625 -0.4033
64880W        W 7818   1.626  30.407   5.771  0.2136  0.1570 -0.0283
64881W        W 7819   2.823  32.726   8.128 -0.4001 -0.1483 -0.0575
64882W        W 7820  34.058  34.045   4.185  0.0573  0.2971  0.1471
64883W        W 7821  34.517  31.096   5.080  0.0742 -0.0931  0.1734
64884W        W 7822  33.602  31.013   5.183  0.3336 -0.2573 -0.3873
64885W        W 7823   0.844  30.600   4.550  0.2899  0.0203  0.3820
64886W        W 7824   1.041  31.769   5.705  0.0603  0.0473 -0.0492
64887W        W 7825   4.729  28.305   4.954  0.1385 -0.0388 -0.0663
64888W        W 7826  34.649  29.290   7.847  0.1790  0.0423 -0.0385
64889W        W 7827   2.790  28.215   5.970  0.2374  0.1483  0.2148
64890W        W 7828  33.859  31.431   5.417 -0.1315 -0.4181  0.2630
64891W        W 7829   3.657  31.917   5.851 -0.0002 -0.2002 -0.1582
64892W        W 7830   2.749  28.982   5.037  0.0237  0.0321  0.3224
64893W        W 7831   3.026  32.067   4.230  0.2625  0.2196 -0.0136
64894W        W 7832   0.006  29.627   5.517  0.0195 -0.2108 -0.1716
64895W        W 7833  34.181  29.615   5.501 -0.1344  0.1583 -0.0997
64896W        W 7834   0.346  29.564   6.334  0.1490 -0.0958 -0.1216
64897W        W 7835   0.813  29.071   5.357 -0.1967 -0.2548  0.1591
64898W        W 7836   3.978  30.654   6.279 -0.1576  0.1697  0.2923
64899W        W 7837   0.630  30.020   4.136 -0.0696  0.1926 -0.2329
64900W        W 7838   4.083  29.723   5.729  0.0890  0.1079  0.1609
64901W        W 7839   2.850  31.577   4.411 -0.2849  0.1266 -0.2908
64902W        W 7840  33.921  30.594   6.176 -0.0871  0.1932 -0.2166
64903W        W 7841   3.348  29.141   6.180 -0.2245  0.0864  0.0367
64904W        W 7842   2.216  33.722   3.574 -0.1599  0.1800 -0.0256
64905W        W 7843   2.290  32.479   7.357  0.2601  0.0701  0.0659
64906W        W 7844   3.216  33.451   6.004 -0.1578 -0.0895 -0.1736
64907W        W 7845  34.407  29.631   4.638 -0.4018  0.1489  0.0715
64908W        W 7846   0.184  29.806   3.917  0.1987 -0.1776 -0.3470
64909W        W 7847   0.389  31.469   5.023 -0.0791 -0.0922  0.2210
64910W        W 7848   1.553  32.083   5.650 -0.2461  0.2120 -0.0539
64911W        W 7849   1.269  30.013   5.262 -0.4526 -0.3054  0.3828
64912W        W 7850   3.989  33.049   5.128  0.0054 -0.1432  0.1300
64913W        W 7851   3.249  32.130   4.926 -0.3074  0.1209 -0.2542
64914W        W 7852   0.541  31.765   6.623 -0.2425 -0.0081 -0.1401
64915W        W 7853   2.617  30.365   6.111  0.1148  0.1834  0.0557
64916W        W 7854   3.404  31.967   6.460  0.2694 -0.1897 -0.2238
64917W        W 7855   3.372  31.020   5.563  0.0178  0.0316  0.0673
64918W        W 7856   0.562  28.845   2.460  0.0617 -0.0346  0.0185
64919W        W 7857   0.605  32.805   3.974 -0.1625  0.2714 -0.1221
64920W        W 7858  34.093  33.042   4.896 -0.0198  0.1267 -0.0493
64921W        W 7859   0.738  30.483   3.483 -0.2853  0.2319 -0.0260
64922W        W 7860   2.881  33.403   5.141  0.0607  0.1424 -0.0544
64923W        W 7861   3.547  29.036   5.701  0.1449 -0.2759  0.0607
64924W        W 7862  34.341  30.003   5.774 -0.1174 -0.2754  0.3067
64925W        W 7863   2.280  31.553   5.305  0.0048  0.0718  0.0730
64926W        W 7864   0.084  29.361   3.467 -0.0873 -0.1133 -0.2148
64927W        W 7865   1.023  30.089   6.794  0.2978 -0.2282  0.1061
64928W        W 7866   3.653  29.470   5.326 -0.2436 -0.0847  0.0465
64929W        W 7867   3.607  28.507   4.897 -0.0178  0.0036 -0.1425
64930W        W 7868   2.551  31.604   6.140 -0.1447 -0.2324 -0.2419
64931W        W 7869   3.517  32.596   4.910 -0.2095  0.2818  0.1056
64932W        W 7870   0.894  31.016   4.272 -0.2203  0.2984  0.0298
64933W        W 7871   2.158  29.860   4.521  0.1001 -0.4497 -0.2117
64934W        W 7872  34.181  31.621   6.024 -0.1243  0.3784 -0.2683
64935W        W 7873  33.844  31.313   4.862 -0.1488 -0.5331  0.0311
64936W        W 7874   1.816  30.694   4.951 -0.0313 -0.3115  0.3358
64937W        W 7875   2.027  29.666   4.986  0.2535 -0.1326 -0.0931
64938W        W 7876   2.791  32.334   5.694  0.1585  0.1801  0.0751
64939W        W 7877   1.049  30.973   6.681  0.0815  0.1545  0.3565
64940W        W 7878   2.442  31.962   7.818  0.0204 -0.3461 -0.1653
64941W        W 7879   2.579  32.212   6.599 -0.1457 -0.2016  0.1189
64942W        W 7880   2.618  28.340   6.585  0.2249 -0.0607  0.1905
64943W        W 7881   0.069  31.712   4.269  0.0380 -0.0276 -0.2700
64944W        W 7882   3.408  29.428   4.554  0.0840 -0.1284  0.1698
64945W        W 7883  34.606  31.526   3.574  0.0929  0.0967 -0.1996
64946W        W 7884   4.830  28.465   3.764 -0.1240  0.0873 -0.1928
64947W        W 7885   2.592  30.401   5.605 -0.2601  0.0290 -0.0354
64948W        W 7886   0.784  28.317   6.170  0.0118 -0.0714  0.1803
64949W        W 7887   2.580  30.405   6.591  0.1058  0.1278 -0.0877
64950W        W 7888   3.078  30.109   4.958  0.2416  0.1781  0.4325
64951W        W 7889   3.090  31.147   6.067 -0.0277 -0.3041 -0.1250
64952W        W 7890  34.130  30.086   4.015  0.1366 -0.1479  0.2189
64953W        W 7891   1.633  28.351   6.308  0.0284  0.1057  0.1880
64954W        W 7892   0.721  30.660   6.887  0.2286  0.1223 -0.1405
64955W        W 7893  33.406  32.639   6.351 -0.0978 -0.1328 -0.0381
64956W        W 7894   1.909  32.923   6.909  0.0225 -0.0841  0.1743
64957W        W 7895   2.754  32.880   4.938  0.1106  0.0331 -0.0941
64958W        W 7896   2.094  28.436   6.456  0.1096 -0.0733  0.1669
64959W        W 7897   1.857  29.372   5.585  0.0178  0.3166  0.2842
64960W        W 7898   1.971  33.437   3.893 -0.2051 -0.0508 -0.0295
64961W        W 7899  34.341  31.298   4.649  0.2386 -0.1241 -0.4191
64962W        W 7900   1.364  29.269   5.535  0.0499  0.0658 -0.0867
64963W        W 7901   1.891  31.913   5.245 -0.1609  0.0427  0.0816
64964W        W 7902   0.687  31.912   4.094 -0.0681  0.0353 -0.0098
64965W        W 7903   2.040  31.653   5.877  0.0019  0.0428 -0.2690
64966W        W 7904   0.028  32.683   4.090  0.0102 -0.1607  0.2485
64967W        W 7905   3.543  27.930   6.208  0.0079  0.0273  0.0191
64968W        W 7906  33.158  30.744   4.870  0.0493  0.1414  0.0144
64969W        W 7907   0.640  30.069   3.205  0.1991  0.0941 -0.1163
64970W        W 7908  33.006  30.261   5.657  0.1777 -0.1210 -0.0239
64971W        W 7909   2.459  28.198   4.091  0.2341  0.1967 -0.1629
64972W        W 7910   3.558  30.843   4.556 -0.0844 -0.0937  0.0246
64973W        W 7911   0.349  30.345   5.695 -0.0398  0.2729 -0.0201
64974W        W 7912   1.683  29.376   4.736  0.3924  0.1094 -0.3239
64975W        W 7913  34.163  31.962   6.443 -0.0454 -0.3028  0.1437
64976W        W 7914   2.779  29.831   5.586 -0.1697  0.0122  0.0814
64977W        W 7915   2.963  29.641   4.682  0.0723  0.0684  0.2096
64978W        W 7916   2.296  32.025   6.155  0.1675  0.1431 -0.3575
64979W        W 7917   1.395  31.056   7.027 -0.0401  0.5444 -0.1648
64980W        W 7918  34.391  30.448   4.359  0.2244 -0.3091  0.0045
64981W        W 7919   3.005  31.694   6.441 -0.3055 -0.1389 -0.1707
64982W        W 7920   1.295  29.793   4.721 -0.1039  0.1787 -0.0019
64983W        W 7921  34.433  30.948   6.173  0.2060 -0.3735  0.2444
64984W        W 7922   3.361  31.579   6.119  0.2390  0.0160 -0.0285
64985W        W 7923   1.146  31.976   4.880 -0.2244  0.1193  0.1152
64986W        W 7924  34.279  32.813   5.839 -0.1040  0.0691 -0.0921
64987W        W 7925   2.142  30.487   5.361  0.3021  0.2015  0.2548
64988W        W 7926   3.597  31.201   6.988  0.0105 -0.3554 -0.1642
64989W        W 7927   2.715  31.364   4.912 -0.0923 -0.0029  0.0170
64990W        W 7928   0.775  30.473   4.027 -0.2774 -0.4114 -0.4932
64991W        W 7929   1.340  30.343   4.849 -0.4088  0.2926  0.2219
64992W        W 7930   4.393  31.994   5.009  0.0043 -0.1959 -0.1353
64993W        W 7931   1.769  29.891   5.595  0.0377 -0.0097 -0.0492
64994W        W 7932   2.530  31.825   5.694  0.1949  0.0148 -0.2331
64995W        W 7933   2.497  27.903   5.698 -0.1641  0.1583 -0.0356
64996W        W 7934   3.865  32.356   5.542  0.0919  0.2324 -0.0367
64997W        W 7935   3.075  29.548   6.365  0.2561 -0.0859  0.1426
64998W        W 7936  34.390  32.654   5.171  0.2370  0.1709  0.1348
64999W        W 7937   1.540  31.617   5.847 -0.0366  0.3372  0.0771
65000W        W 7938   1.061  33.523   4.973 -0.0445 -0.0551  0.2040
65001W        W 7939   3.001  29.344   5.885 -0.2610 -0.2441  0.1669
65002W        W 7940   0.018  31.353   6.010 -0.1363  0.1050  0.1048
65003W        W 7941  32.703  30.856   5.069  0.2071 -0.0416 -0.1828
65004W        W 7942   0.061  32.101   6.701  0.0907  0.2237 -0.2488
65005W        W 7943   5.155  28.980   4.472 -0.2605 -0.3660 -0.0918
65006W        W 7944   1.585  30.288   3.042  0.3173  0.2032  0.3204
65007W        W 7945   1.677  30.261   5.250  0.4755  0.2468  0.3771
65008W        W 7946   4.687  29.670   4.896 -0.2549 -0.0894  0.4062
65009W        W 7947   2.066  31.005   2.808 -0.1080 -0.0540  0.0997
65010W        W 7948   2.062  29.681   6.012 -0.2381 -0.2921 -0.0152
65011W        W 7949   0.775  29.309   6.476  0.0088 -0.1362  0.2849
65012W        W 7950   2.494  32.579   6.255 -0.0058 -0.2040 -0.2464
65013W        W 7951   0.605  30.757   5.561  0.3416  0.2854  0.0091
65014W        W 7952   2.524  32.464   8.491 -0.0643  0.1417 -0.1485
65015W        W 7953   1.934  30.402   6.393  0.0152 -0.0224 -0.0620
65016W        W 7954   3.588  29.929   5.634 -0.2251 -0.0421  0.1573
65017W        W 7955   1.008  29.763   3.397 -0.0396 -0.0396 -0.0253
65018W        W 7956   3.386  31.595   5.437 -0.0141  0.0580 -0.2023
65019W        W 7957   3.224  33.027   5.180 -0.3182  0.0663 -0.0075
65020W        W 7958   1.846  31.384   4.321  0.0236 -0.2973  0.0873
65021W        W 7959   3.217  29.666   5.295 -0.0957 -0.2615 -0.1167
65022W        W 7960   1.076  31.430   4.956  0.1362 -0.1416  0.1871
65023W        W 7961   3.129  31.181   5.160  0.0432  0.0249 -0.0774
65024W        W 7962   0.591  29.108   2.954 -0.2334 -0.0559 -0.1071
65025W        W 7963   0.196  31.918   5.246  0.0880  0.0126 -0.0029
65026W        W 7964   1.028  29.672   6.151  0.0004  0.1240 -0.2388
65027W        W 7965   1.983  31.443   4.885 -0.5099  0.0806 -0.2261
65028W        W 7966   2.877  29.361   5.400  0.0222  0.1775 -0.1588
65029W        W 7967   2.136  30.231   5.815  0.0470  0.0456 -0.0282
65030W        W 7968   2.927  30.734   6.362  0.1704 -0.0567 -0.0641
65031W        W 7969   1.799  31.391   5.337  0.4130  0.0642  0.1388
65032W        W 7970   1.608  29.661   6.886  0.0259  0.1155 -0.1393
65033W        W 7971   3.014  32.447   6.790 -0.1516 -0.0890 -0.1685
65034W        W 7972   3.208  30.204   5.416  0.0491  0.0061 -0.3881
65035W        W 7973   4.379  30.427   6.213 -0.3701 -0.1568 -0.1202
65036W        W 7974   2.870  30.479   4.645 -0.1821 -0.0752 -0.0918
65037W        W 7975   1.544  30.224   4.037  0.0272  0.1254  0.0340
65038W        W 7976   0.917  29.512   5.559  0.2002  0.0643  0.2151
65039W        W 7977   2.152  31.503   7.206 -0.0155 -0.1030 -0.3022
65040W        W 7978   1.107  29.371   2.990  0.1981  0.1553  0.0721
65041W        W 7979   2.564  29.503   6.954  0.0890  0.0272  0.3006
65042W        W 7980   1.697  32.551   4.030 -0.4719  0.1261  0.0233
65043W        W 7981   2.537  31.862   4.204 -0.1038 -0.3265  0.0839
65044W        W 7982   2.066  30.194   3.336  0.0960 -0.0180  0.0418
65045W        W 7983  34.465  29.460   5.117 -0.1899  0.0137  0.2485
65046W        W 7984   1.733  32.578   7.332 -0.0043 -0.3635 -0.1986
65047W        W 7985  33.879  29.541   3.269  0.2491  0.2486 -0.1612
65048W        W 7986   1.836  31.294   3.744  0.0454  0.0943  0.0764
65049W        W 7987   1.576  31.654   4.711 -0.4945  0.0658  0.0997
65050W        W 7988   2.522  31.697   6.607 -0.1609  0.2287  0.2655
65051W        W 7989   0.170  30.500   4.628  0.3869 -0.0328 -0.1998
65052W        W 7990   2.007  30.652   6.014  0.0135  0.1897  0.2071
65053W        W 7991  33.982  32.620   3.896  0.0582 -0.5194 -0.4339
65054W        W 7992   3.494  28.504   5.685  0.0879  0.2690  0.1242
65055W        W 7993   0.292  33.497   6.109  0.0238  0.4301 -0.0696
65056W        W 7994  34.391  32.287   7.244 -0.0823  0.0451  0.2612
65057W        W 7995  34.694  32.257   4.898  0.0590  0.0637  0.2449
65058W        W 7996   2.667  29.857   6.063  0.2800  0.0682 -0.0781
65059W        W 7997   3.131  29.917   5.945  0.0069 -0.2122 -0.1367
65060W        W 7998   2.374  30.534   4.760  0.0271 -0.2382  0.0628
65061W        W 7999   4.806  30.865   7.178  0.1289  0.1519 -0.0068
65062W        W 8000   2.016  31.614   6.388  0.0633  0.0588 -0.2749
65063W        W 8001   0.948  30.441   5.737  0.0262 -0.1907 -0.0115
65064W        W 8002   2.910  31.465   5.763  0.1191  0.0373  0.3037
65065W        W 8003   3.472  32.115   5.435 -0.1292  0.0730  0.1554
65066W        W 8004   1.472  32.183   5.152  0.1205 -0.0847 -0.0335
65067W        W 8005   0.603  30.463   6.087  0.0232  0.0293  0.1560
65068W        W 8006   2.295  32.225   5.264  0.4305 -0.0405 -0.0301
65069W        W 8007   2.925  31.926   5.329  0.0793  0.1558 -0.0082
65070W        W 8008   1.277  29.135   4.021  0.1046  0.3104  0.3546
65071W        W 8009   2.187  30.967   3.736  0.0901 -0.1067 -0.1990
65072W        W 8010   0.992  32.554   7.627 -0.1726  0.1490 -0.0151
65073W        W 8011   1.190  30.546   6.916 -0.1527  0.5535 -0.0991
65074W        W 8012   0.768  32.833   4.450 -0.0114 -0.0489 -0.0844
65075W        W 8013   2.813  31.913   4.822 -0.1396  0.2129 -0.0515
65076W        W 8014   2.092  31.784   4.488 -0.2184 -0.2417 -0.1443
65077W        W 8015   0.731  33.814   4.605 -0.1950 -0.1070 -0.0749
65078W        W 8016   1.009  30.039   3.834 -0.0230 -0.0120  0.1815
65079W        W 8017  34.598  31.788   5.756 -0.0913  0.1031  0.0425
65080W        W 8018  34.420  32.033   5.265 -0.1996 -0.2730  0.2041
65081W        W 8019   0.853  32.206   4.511  0.1524  0.1192 -0.5870
65082W        W 8020   1.330  31.713   5.333  0.0398 -0.0207 -0.1253
65083W        W 8021   1.871  31.034   7.117  0.0333  0.0139  0.2179
65084W        W 8022   3.038  28.635   3.805 -0.0477 -0.1077 -0.1434
65085W        W 8023   3.606  30.204   5.151 -0.3742 -0.0798 -0.0429
65086W        W 8024   2.722  31.143   4.138 -0.0800 -0.2390 -0.1420
65087W        W 8025   3.241  31.910   9.793  0.3420  0.0950  0.2566
65088W        W 8026   1.509  30.852   6.075 -0.0896  0.0083  0.2165
65089W        W 8027   1.702  28.703   4.034 -0.1287 -0.0090 -0.0994
65090W        W 8028   0.418  29.684   7.289  0.1599 -0.0111  0.2795
65091W        W 8029   4.490  29.255   6.647  0.0762  0.2515  0.0361
65092W        W 8030   0.045  31.947   7.218 -0.0723 -0.0258 -0.2250
65093W        W 8031   2.682  31.595   3.813  0.0603  0.0092 -0.2091
65094W        W 8032  33.672  29.976   5.080 -0.1516  0.1141 -0.0167
65095W        W 8033   2.315  31.845   4.931 -0.1129 -0.1170 -0.1737
65096W        W 8034   3.715  28.818   5.253  0.0662  0.2165  0.0201
65097W        W 8035   2.523  30.712   2.794  0.0691  0.2785  0.1961
65098W        W 8036   2.066  30.140   4.912 -0.1145  0.0603  0.2362
65099W        W 8037  34.431  33.247   4.567 -0.0861 -0.3521 -0.2867
65100W        W 8038   0.217  32.023   6.213 -0.0870  0.0394 -0.1740
65101W        W 8039   1.473  32.295   4.613  0.1131  0.2379 -0.1470
65102W        W 8040  33.928  29.962   4.542  0.0256 -0.0920 -0.1067
65103W        W 8041   4.807  31.272   5.464 -0.1310 -0.0672 -0.1829
65104W        W 8042   1.241  30.599   5.306  0.1247 -0.1276 -0.1556
65105W        W 8043   4.525  28.504   4.553 -0.0637 -0.1829  0.1746
65106W        W 8044   1.251  31.252   5.562  0.2111 -0.0526 -0.0301
65107W        W 8045   3.099  29.504   4.131  0.1470  0.2427  0.1131
65108W        W 8046   2.070  32.147   5.702  0.1874 -0.2192 -0.2694
65109W        W 8047  34.528  29.808   6.341 -0.1697  0.4515  0.0866
65110W        W 8048   2.156  30.987   4.695 -0.1137 -0.1907  0.0435
65111W        W 8049   3.364  30.738   6.924  0.2154  0.1049 -0.0134
65112W        W 8050   3.331  31.158   3.245 -0.1866  0.1311  0.2512
65113W        W 8051   2.020  32.357   6.957  0.1334  0.1467  0.3270
65114W        W 8052   1.553  29.634   5.201  0.3471 -0.0223 -0.1428
65115W        W 8053   3.139  28.846   5.293  0.1810  0.1844  0.3245
65116W        W 8054   0.405  31.692   5.830 -0.0375  0.4123  0.0912
65117W        W 8055   2.677  31.158   5.457  0.2409  0.0566 -0.0971
65118W        W 8056   2.995  32.978   7.639  0.0364 -0.1992 -0.2944
65119W        W 8057  33.796  29.774   5.754  0.0787  0.2022 -0.3739
65120W        W 8058   3.935  32.962   3.275 -0.0161 -0.1852  0.1579
65121W        W 8059   3.774  30.882   5.199 -0.2161  0.0010  0.0044
65122W        W 8060   1.238  32.492   4.259  0.2641 -0.1187  0.0381
65123W        W 8061   3.436  30.300   4.569 -0.1273 -0.0308 -0.2438
65124W        W 8062   4.262  32.515   6.387  0.3225 -0.0994 -0.0020
65125W        W 8063   0.086  29.848   5.102 -0.2671  0.1663 -0.3202
65126W        W 8064   1.833  32.450   5.404 -0.0997 -0.0597 -0.1578
65127W        W 8065   3.242  33.251   6.584 -0.2115  0.3222  0.0549
65128W        W 8066   1.059  29.696   4.206 -0.4449  0.2120  0.1209
65129W        W 8067   0.784  31.202   5.232  0.0320  0.0241  0.0840
65130W        W 8068  34.578  32.288   4.381  0.3888 -0.3219 -0.0695
65131W        W 8069   4.061  30.350   5.787  0.1017 -0.1078  0.1539
65132W        W 8070   4.501  29.790   5.381 -0.0305 -0.0560 -0.0308
65133W        W 8071   1.149  32.256   3.419 -0.4104  0.1289  0.0918
65134W        W 8072   3.066  28.736   7.019 -0.1038 -0.1026  0.0889
65135W        W 8073   1.819  32.710   4.964 -0.0942 -0.0471  0.1116
65136W        W 8074   0.757  32.740   5.225  0.0505  0.0737 -0.1974
65137W        W 8075   1.131  30.953   4.697  0.1008 -0.1132 -0.1207
65138W        W 8076   1.835  31.735   7.739 -0.1607 -0.2922 -0.2917
65139W        W 8077   0.648  33.392   4.079  0.1166  0.3039 -0.0425
65140W        W 8078   1.535  31.613   4.002 -0.2290  0.1364 -0.1923
65141W        W 8079   2.784  32.135   6.161 -0.1193 -0.4837  0.1305
65142W        W 8080   3.523  30.579   5.466 -0.4444  0.0162 -0.1952
65143W        W 8081   2.405  33.082   6.468  0.1389  0.1341  0.0902
65144W        W 8082   1.212  28.684   5.427 -0.0640  0.1065 -0.0339
65145W        W 8083   3.967  26.780   4.346 -0.2786  0.1052 -0.1973
65146W        W 8084   4.072  28.350   4.719 -0.1358 -0.0113  0.1175
65147W        W 8085   1.688  30.797   5.450  0.0612  0.0525  0.0172
65148W        W 8086  33.956  30.551   3.844 -0.2352 -0.2161 -0.1447
65149W        W 8087   0.581  31.093   4.723  0.3127  0.0847  0.0163
65150W        W 8088   0.009  31.719   4.784 -0.1041  0.3507 -0.0518
65151W        W 8089   2.363  29.556   5.666  0.3551  0.2032  0.1604
65152W        W 8090   1.391  30.599   6.456  0.0947  0.2340 -0.2314
65153W        W 8091  34.120  30.174   6.308  0.0294 -0.0256 -0.2041
65154W        W 8092   1.730  28.840   5.101  0.2275 -0.0151 -0.0110
65155W        W 8093   2.666  30.904   4.576 -0.0788 -0.1379 -0.1590
65156W        W 8094   1.471  29.568   5.905 -0.0314 -0.0259 -0.1565
65157W        W 8095   0.911  28.844   6.321  0.0662 -0.0546 -0.2400
65158W        W 8096   2.739  32.898   4.184 -0.4362 -0.1594 -0.0214
65159W        W 8097   3.368  31.833   4.517 -0.0069  0.4042  0.1151
65160W        W 8098   2.211  30.907   5.643  0.0740  0.1427 -0.4134
65161W        W 8099   3.282  31.531   7.487 -0.1975 -0.0460  0.2609
65162W        W 8100   0.565  31.116   3.893  0.0751  0.2725 -0.1769
65163W        W 8101   3.295  29.770   6.748  0.2122 -0.2455  0.0958
65164W        W 8102   1.197  29.965   5.748  0.0250  0.2504  0.2223
65165W        W 8103  34.570  30.375   5.470  0.1491 -0.1158  0.2082
65166W        W 8104   1.167  31.897   4.277  0.3636  0.0571 -0.1045
65167W        W 8105   1.531  33.795   5.126  0.0464  0.0802 -0.0440
65168W        W 8106   4.109  31.725   4.578 -0.1029  0.1655  0.1212
65169W        W 8107   1.563  32.968   5.752 -0.1921 -0.2570  0.3415
65170W        W 8108   0.174  31.315   5.485  0.1944  0.0159 -0.1776
65171W        W 8109  34.268  28.236   5.603 -0.1974  0.0501  0.0636
65172W        W 8110   2.614  30.354   5.113  0.2807  0.2481 -0.1794
65173W        W 8111   1.203  32.052   6.088  0.0811 -0.0972  0.0468
65174W        W 8112   2.608  32.379   4.183  0.1059 -0.0872  0.0836
65175W        W 8113   3.657  29.071   4.798 -0.1113 -0.0328 -0.0347
65176W        W 8114   1.841  31.845   2.691  0.1056 -0.0826 -0.2650
65177W        W 8115   0.727  30.032   5.921 -0.0871  0.0989 -0.0944
65178W        W 8116   0.226  29.964   6.667 -0.1978  0.1531 -0.1462
65179W        W 8117   2.444  33.534   6.235 -0.0309 -0.1196  0.0772
65180W        W 8118   1.173  29.150   5.970 -0.1409 -0.2146  0.1642
65181W        W 8119   4.010  28.730   5.611 -0.0856  0.0567  0.0682
65182W        W 8120   2.311  31.395   4.059  0.0090 -0.4069  0.0370
65183W        W 8121   1.678  30.029   6.062 -0.1815  0.1464 -0.0146
65184W        W 8122   2.150  31.023   5.194 -0.1418  0.1275 -0.1650
65185W        W 8123   2.234  31.170   6.045  0.0875 -0.3219 -0.0785
65186W        W 8124   2.376  32.235   4.657 -0.1166  0.1553  0.0483
65187W        W 8125   1.925  29.868   6.504  0.2489  0.0411  0.1988
65188W        W 8126   1.454  30.966   4.081  0.3592 -0.1679  0.2631
65189W        W 8127   3.982  32.316   4.897  0.3979 -0.0066  0.1562
65190W        W 8128   1.327  32.472   5.895 -0.0165  0.1892  0.0482
65191W        W 8129   2.713  31.386   8.576 -0.2912  0.0080  0.1534
65192W        W 8130   0.550  32.680   5.722 -0.1248 -0.0358  0.0626
65193W        W 8131   2.882  32.398   5.151 -0.2372 -0.0360  0.1635
65194W        W 8132   1.384  28.707   6.636 -0.0282  0.0480  0.1141
65195W        W 8133   1.631  31.037   4.658 -0.1916  0.0059 -0.2280
65196W        W 8134   1.309  32.707   5.273  0.2164 -0.0957  0.0487
65197W        W 8135   3.659  30.254   6.563 -0.0727 -0.2642  0.1972
65198W        W 8136   0.721  30.690   5.062 -0.1742  0.2365  0.2757
65199W        W 8137   2.124  29.333   4.555 -0.0478 -0.0229  0.0541
65200W        W 8138   1.016  33.031   4.922 -0.2699 -0.0795  0.1812
65201W        W 8139   2.708  30.856   5.840  0.0719  0.2259 -0.1004
65202W        W 8140   1.246  29.715   9.311 -0.2265 -0.1342  0.0302
65203W        W 8141   0.873  30.848   8.634  0.0018 -0.0080  0.0789
65204W        W 8142   4.126  31.161   5.526  0.0426 -0.0995 -0.4604
65205W        W 8143   3.250  30.131   7.125 -0.0721  0.1139  0.0758
65206W        W 8144   0.560  30.250   9.412 -0.1980  0.1106 -0.0831
65207W        W 8145   2.301  31.638   8.872  0.0051  0.1431 -0.2415
65208W        W 8146   1.093  30.944   7.785 -0.1415 -0.1116 -0.0646
65209W        W 8147   3.366  30.879   9.139  0.2852 -0.0840  0.3353
65210W        W 8148   2.132  33.493   7.376 -0.0070 -0.0148 -0.0337
65211W        W 8149   1.858  29.622   8.524 -0.0782  0.3017  0.4111
65212W        W 8150   0.434  28.603   7.065 -0.1420  0.0629 -0.1198
65213W        W 8151   0.487  28.638   7.995 -0.0224  0.0237  0.2354
65214W        W 8152   5.651  29.955   9.859 -0.0918  0.0154 -0.0226
65215W        W 8153   0.473  30.564   7.310  0.1587 -0.0633 -0.1759
65216W        W 8154   1.536  30.045   9.563  0.3266 -0.3280  0.0697
65217W        W 8155   1.686  29.756   7.408  0.0616  0.5321 -0.0446
65218W        W 8156   2.681  32.048   8.910 -0.1880 -0.3379 -0.3316
65219W        W 8157   1.636  28.079   8.986  0.1597  0.0697 -0.0443
65220W        W 8158   2.932  31.830   8.446 -0.0765 -0.1900 -0.0605
65221W        W 8159   0.423  30.647   8.385 -0.0452  0.0733 -0.1113
65222W        W 8160   3.010  31.311   9.156  0.4276  0.1480  0.0721
65223W        W 8161   0.669  31.603   9.500 -0.1082  0.0127  0.0533
65224W        W 8162   1.959  28.953   9.620  0.2887 -0.0949 -0.0878
65225W        W 8163   3.636  30.655   8.669  0.3093  0.1991 -0.2336
65226W        W 8164   2.989  30.973   8.770 -0.1228 -0.1146 -0.0103
65227W        W 8165   2.162  31.566   9.462 -0.1627 -0.0970  0.0180
65228W        W 8166   2.053  30.377   8.819  0.1422 -0.1218 -0.2597
65229W        W 8167  34.690  33.894   9.569 -0.2864  0.1286  0.1589
65230W        W 8168   1.946  32.687   8.192 -0.2163  0.0049 -0.1576
65231W        W 8169   2.964  30.435   8.006 -0.1733  0.0736  0.1603
65232W        W 8170   0.876  32.679   6.110  0.1122 -0.0322  0.1940
65233W        W 8171   2.077  29.373   9.273 -0.1878 -0.1051 -0.1448
65234W        W 8172   1.985  30.649   7.469  0.0559  0.2189  0.0437
65235W        W 8173   1.654  31.442   7.345 -0.0712 -0.0037 -0.2421
65236W        W 8174   1.209  29.690   8.759 -0.1347 -0.1490  0.1004
65237W        W 8175   0.253  29.849  10.129 -0.5051  0.1822 -0.2897
65238W        W 8176   1.524  31.802   6.544 -0.0453 -0.0204  0.1114
65239W        W 8177   3.551  30.540   7.328  0.1134 -0.1014  0.0015
65240W        W 8178   2.166  29.121   6.847 -0.0137 -0.1789 -0.1564
65241W        W 8179   4.121  29.697   7.718  0.0420  0.1832 -0.2541
65242W        W 8180   1.383  28.185   7.846 -0.2252  0.1418  0.0803
65243W        W 8181   1.639  31.716   9.577 -0.0279  0.1167 -0.1364
65244W        W 8182   1.688  29.677   8.965 -0.1988 -0.0233 -0.3427
65245W        W 8183   2.180  30.573   6.865  0.1665 -0.1767 -0.0291
65246W        W 8184   1.880  30.607   9.510  0.1093  0.3266 -0.2734
65247W        W 8185   0.408  32.904   9.549 -0.1299 -0.1122 -0.3823
65248W        W 8186  34.045  30.400   9.275  0.0024  0.2316 -0.0865
65249W        W 8187   3.048  30.890   7.798 -0.1535 -0.0046  0.0743
65250W        W 8188   3.730  30.972   8.237  0.2967 -0.0415  0.0127
65251W        W 8189   2.405  31.492   7.654  0.0119  0.1253  0.0221
65252W        W 8190   0.285  30.909   7.693 -0.0211  0.1523  0.0952
65253W        W 8191   0.217  27.602   7.233  0.0308  0.2177  0.0345
65254W        W 8192   2.611  29.753   7.786 -0.0710 -0.0315 -0.1067
65255W        W 8193   1.965  31.147   8.106  0.1325  0.2197 -0.1931
65256W        W 8194   1.501  26.863  12.151 -0.1616 -0.1615  0.2475
65257W        W 8195   2.690  31.677   7.197 -0.0704 -0.0874 -0.0084
65258W        W 8196   2.000  28.496   8.961 -0.2543  0.1517  0.3468
65259W        W 8197   0.983  28.529   8.730 -0.0535  0.1269  0.2869
65260W        W 8198   1.539  30.766   7.930  0.1753 -0.0583  0.2389
65261W        W 8199   1.549  30.453   7.246 -0.0290  0.0817 -0.0677
65262W        W 8200   2.660  31.728   9.346  0.0013 -0.0389 -0.1301
65263W        W 8201   4.968  31.112   6.337  0.0056 -0.2819 -0.1115
65264W        W 8202   1.580  32.406   9.558  0.0853 -0.4215 -0.0828
65265W        W 8203   1.813  32.510   5.920  0.3560 -0.1415 -0.2134
65266W        W 8204   0.270  31.313   9.380  0.0076 -0.2334  0.0361
65267W        W 8205   0.684  31.235   7.501  0.3274 -0.0284  0.0667
65268W        W 8206  34.522  29.809   9.328  0.3754 -0.2981  0.1683
65269W        W 8207   1.397  30.609   9.444 -0.1907  0.2377 -0.2858
65270W        W 8208   1.883  29.235   7.320  0.1956  0.0504  0.0018
65271W        W 8209   3.746  28.796   8.598  0.2161 -0.1103 -0.1746
65272W        W 8210  34.588  31.527   9.151 -0.0240  0.0342  0.1384
65273W        W 8211   1.953  32.984  10.035  0.2145  0.1805 -0.1634
65274W        W 8212   3.639  31.135   6.292  0.0724 -0.0917 -0.1761
65275W        W 8213   1.940  31.344   9.028 -0.0403  0.1052  0.0532
65276W        W 8214   0.689  30.011   9.869  0.3075 -0.1550 -0.1573
65277W        W 8215   0.939  29.458   8.401 -0.1855  0.2956 -0.1059
65278W        W 8216  34.402  27.571   9.593 -0.0291 -0.0631  0.3621
65279W        W 8217   1.088  29.584   6.839  0.0512  0.0543  0.0578
65280W        W 8218   2.022  30.155   7.368 -0.0729 -0.3451 -0.0285
65281W        W 8219   2.553  30.238   8.679 -0.1590 -0.2117 -0.4276
65282W        W 8220   0.446  30.913   8.874  0.1731 -0.2544  0.0396
65283W        W 8221   1.319  31.737   7.647  0.3047 -0.2847 -0.2523
65284W        W 8222   2.053  30.850   9.061 -0.3057 -0.1703  0.1822
65285W        W 8223   3.780  32.440   9.209  0.1897 -0.2373 -0.1951
65286W        W 8224   1.315  27.561   8.092 -0.0313  0.2557  0.0307
65287W        W 8225  33.789  30.116   8.423 -0.1562  0.1570  0.4512
65288W        W 8226   0.031  32.435   8.729  0.1013 -0.0777 -0.0374
65289W        W 8227   2.144  30.264   8.333  0.0835  0.0565 -0.0739
65290W        W 8228   0.493  28.025   6.901 -0.2981 -0.1058  0.1922
65291W        W 8229   3.292  30.711   8.254 -0.0054  0.1538  0.3209
65292W        W 8230   2.701  31.239   6.432 -0.0551 -0.0315  0.1859
65293W        W 8231   3.440  29.505   9.784 -0.2740 -0.3740  0.0080
65294W        W 8232   1.756  28.494   6.873  0.1127 -0.1377 -0.3811
65295W        W 8233   0.033  29.488   6.938  0.2415 -0.1646 -0.1907
65296W        W 8234   1.785  31.211   9.846 -0.0064 -0.0751 -0.0538
65297W        W 8235   1.788  32.014   6.145  0.1967 -0.2040 -0.0511
65298W        W 8236  34.384  31.147   9.451 -0.2456 -0.1964  0.0069
65299W        W 8237   2.216  33.189   7.813 -0.2431 -0.0347  0.2149
65300W        W 8238   2.465  29.621   9.502 -0.0149  0.0797  0.1962
65301W        W 8239   0.311  30.417   8.928 -0.3672  0.0857  0.0224
65302W        W 8240   2.745  28.101   8.456  0.0011 -0.4130  0.1021
65303W        W 8241   2.807  29.965   6.508 -0.2454  0.1271 -0.0123
65304W        W 8242   1.286  30.119   9.998 -0.2514  0.0841 -0.1477
65305W        W 8243   2.714  30.767   6.906  0.2422  0.0502 -0.1192
65306W        W 8244   2.117  29.786   7.755 -0.1751  0.2269 -0.1156
65307W        W 8245   2.501  32.318   9.375 -0.1485  0.1048 -0.0659
65308W        W 8246   1.597  29.524   7.860 -0.0796 -0.1630 -0.1673
65309W        W 8247   1.718  29.104   5.984 -0.1339  0.0162 -0.1212
65310W        W 8248   3.978  31.284   7.933 -0.3628 -0.1106 -0.0662
65311W        W 8249   1.025  29.273   9.403  0.3152 -0.1199  0.1358
65312W        W 8250   2.477  31.066   7.822  0.2807 -0.0779 -0.0074
65313W        W 8251  34.335  28.589   9.536 -0.6330 -0.0648  0.0748
65314W        W 8252   0.983  30.287   7.303 -0.0272  0.0634  0.5516
65315W        W 8253   2.374  28.837   8.001  0.1441 -0.0473 -0.1165
65316W        W 8254   0.330  32.443   7.908  0.0795  0.1705  0.1929
65317W        W 8255   2.738  29.740   8.901 -0.0780  0.0916 -0.1152
65318W        W 8256   1.622  30.658   8.908  0.1495 -0.3723 -0.0232
65319W        W 8257   3.405  30.491   7.790 -0.4969 -0.0555 -0.0801
65320W        W 8258   2.330  29.426   8.805 -0.2141 -0.2177  0.1738
65321W        W 8259   0.635  30.025   5.373  0.0631  0.1026  0.0545
65322W        W 8260   1.981  28.296   9.383 -0.1697  0.3669  0.0099
65323W        W 8261   1.809  31.760   8.681 -0.3157 -0.5247  0.0824
65324W        W 8262   2.805  30.192   7.606 -0.1452 -0.3729  0.0235
65325W        W 8263   2.374  29.120   7.272 -0.0581  0.0793  0.0552
65326W        W 8264   2.191  31.973   7.303  0.1203 -0.2395 -0.0094
65327W        W 8265   1.967  31.157   7.647 -0.0307  0.0219 -0.1526
65328W        W 8266   1.163  29.042   6.991 -0.0053  0.2948  0.1614
65329W        W 8267   1.342  31.176   8.854  0.1908  0.2545 -0.0947
65330W        W 8268   1.439  31.287   6.341 -0.2751 -0.1342  0.0975
65331W        W 8269   2.538  30.588   9.557  0.2065 -0.1212 -0.1448
65332W        W 8270   1.377  32.899   8.206  0.3197 -0.0272  0.1637
65333W        W 8271   3.002  29.329   9.618  0.0086 -0.0415  0.1944
65334W        W 8272   0.561  29.687   8.725 -0.3825 -0.2048  0.0144
65335W        W 8273   1.319  30.963   8.379  0.2558  0.2835  0.2340
65336W        W 8274  34.144  30.691   8.439  0.0450  0.2276  0.0243
65337W        W 8275   2.751  30.190   9.139 -0.1703  0.3690 -0.2159
65338W        W 8276   2.531  30.621   7.609  0.2409 -0.0076 -0.0273
65339W        W 8277   1.389  29.698   8.321 -0.0731  0.3748  0.0441
65340W        W 8278   1.768  28.835   9.166  0.2166  0.3240 -0.1092
65341W        W 8279   0.793  31.737   8.703  0.1738  0.2418 -0.0529
65342W        W 8280   2.298  30.057   6.305 -0.0571  0.1823 -0.2622
65343W        W 8281   0.339  29.052   7.320 -0.0086  0.0354 -0.0264
65344W        W 8282   1.358  28.872   9.541  0.1548 -0.1971  0.0072
65345W        W 8283   1.323  29.416   7.289 -0.0309 -0.1907 -0.1682
65346W        W 8284  34.631  31.947   8.909 -0.2049  0.2594  0.1246
65347W        W 8285   0.701  31.203   9.865  0.1207 -0.2522  0.0703
65348W        W 8286   1.370  30.176   8.198 -0.2442 -0.0061  0.0687
65349W        W 8287   0.528  31.579   8.198 -0.1097 -0.1450  0.1173
65350W        W 8288   0.646  29.659   9.312 -0.1456  0.0929 -0.0457
65351W        W 8289   2.125  27.877   8.163 -0.0004  0.0095  0.0117
65352W        W 8290   1.941  29.627   9.739  0.3971 -0.0647  0.1138
65353W        W 8291   1.340  30.263   9.101  0.2250 -0.0673  0.0737
65354W        W 8292   0.573  29.516   9.843 -0.1210 -0.2291  0.3623
65355W        W 8293   0.890  31.335   8.945  0.3589 -0.0342 -0.0997
65356W        W 8294   1.963  27.680   9.046  0.2041  0.1658 -0.2255
65357W        W 8295   4.165  32.489   8.902 -0.0015  0.3110 -0.2448
65358W        W 8296   0.505  31.283   6.732  0.0775  0.3956 -0.0182
65359W        W 8297  34.367  32.582   9.934 -0.3150 -0.3264  0.1926
65360W        W 8298   1.206  30.432   7.766 -0.0448 -0.0462  0.1378
65361W        W 8299   1.017  28.199   9.241  0.2054  0.0555 -0.2859
65362W        W 8300  33.319  32.316  10.094 -0.3410 -0.1793  0.0919
65363W        W 8301   1.743  31.448   6.840  0.2271 -0.3909 -0.1881
65364W        W 8302   0.862  30.664   9.678  0.0300 -0.2693  0.1634
65365W        W 8303   3.129  30.281   6.278  0.1894 -0.1490 -0.2756
65366W        W 8304   2.060  31.871   8.150 -0.1789  0.1716  0.1410
65367W        W 8305   2.842  28.500   8.091  0.2857  0.1309 -0.1907
65368W        W 8306   3.032  30.576   7.301  0.0673  0.0198  0.3587
65369W        W 8307   1.232  26.856   9.242 -0.0094 -0.3276  0.3073
65370W        W 8308   2.260  30.297   9.245  0.1185 -0.1631  0.0228
65371W        W 8309   1.993  28.230   7.879  0.0004  0.0535 -0.0524
65372W        W 8310   0.661  29.031   6.878  0.1071  0.1869  0.1665
65373W        W 8311   0.407  31.605   8.991 -0.1156 -0.2156  0.0214
65374W        W 8312   2.501  31.264   9.241 -0.1659  0.2065 -0.2367
65375W        W 8313   0.144  31.105   8.234 -0.2252 -0.1723  0.2868
65376W        W 8314   2.937  29.757   9.350  0.1588 -0.0430 -0.2020
65377W        W 8315   0.529  29.139   9.306 -0.0659 -0.4545 -0.1043
65378W        W 8316   3.243  29.256   8.241  0.3628 -0.0719  0.0863
65379W        W 8317   2.344  30.756   6.393 -0.0425  0.0353  0.1859
65380W        W 8318   1.494  31.269   7.880  0.0691 -0.1451  0.0514
65381W        W 8319   2.525  30.639   8.113 -0.2658 -0.1558  0.0569
65382W        W 8320   2.734  29.516   8.280  0.0064  0.0199 -0.1264
65383W        W 8321   2.554  30.656   9.010 -0.0772 -0.0712  0.1693
65384W        W 8322   4.175  30.220   6.740  0.0103  0.0967 -0.0403
65385W        W 8323   4.301  29.983   9.548 -0.0920 -0.0219  0.1458
65386W        W 8324   3.937  30.530   7.574 -0.1983 -0.2368  0.2799
65387W        W 8325   1.773  31.168   5.821  0.3435 -0.1712 -0.0398
65388W        W 8326   0.577  28.901   8.815 -0.0827  0.3749 -0.0391
65389W        W 8327   1.503  30.136   6.562 -0.2562  0.0958 -0.2899
65390W        W 8328  34.474  32.278   6.132 -0.1366 -0.2162  0.0720
65391W        W 8329   2.207  31.460   8.450 -0.0036  0.0698  0.0604
65392W        W 8330   2.243  29.112   6.321  0.1404  0.0205 -0.1348
65393W        W 8331   0.133  28.813   9.317 -0.0665 -0.0534  0.0914
65394W        W 8332   0.887  29.974   7.991 -0.0849 -0.1580 -0.0438
65395W        W 8333   1.507  30.927   7.488 -0.4496  0.0638  0.0426
65396W        W 8334   1.740  30.599   8.433  0.0776  0.1448 -0.0292
65397W        W 8335   0.224  28.159   7.335 -0.0068 -0.1036 -0.0637
65398W        W 8336   0.384  31.675   7.441  0.0936 -0.1267  0.1288
65399W        W 8337   0.734  27.781   9.176 -0.1264  0.1924  0.0494
65400W        W 8338   0.190  34.128  10.228  0.0342 -0.0131  0.0215
65401W        W 8339   2.717  32.740   7.161 -0.0068  0.2334  0.2533
65402W        W 8340  34.683  28.004   9.752  0.1787 -0.2992 -0.1707
65403W        W 8341   2.251  29.139   8.363  0.0228  0.0251 -0.0103
65404W        W 8342   1.694  30.300   7.749 -0.2368  0.0325 -0.0457
65405W        W 8343   1.317  29.869   7.677 -0.0317  0.3274  0.0190
65406W        W 8344   4.094  29.958   9.078 -0.1079 -0.1892 -0.1133
65407W        W 8345   1.083  31.885   8.359  0.0724  0.0278 -0.1365
65408W        W 8346   2.382  29.825   7.328  0.0152 -0.0457  0.1967
65409W        W 8347   1.424  29.681   6.414 -0.2525  0.1245  0.0102
65410W        W 8348   0.976  30.850   7.295  0.1847 -0.0370  0.3043
65411W        W 8349   1.062  30.188   9.546 -0.4109 -0.0823  0.0843
65412W        W 8350   1.324  32.218   7.490 -0.2304 -0.0456  0.5035
65413W        W 8351   2.039  30.620   7.998  0.0715 -0.2890  0.2431
65414W        W 8352   3.874  30.708   6.793  0.0820 -0.4236 -0.1150
65415W        W 8353   1.313  32.116   9.272 -0.1878  0.0293 -0.2046
65416W        W 8354   0.913  30.442   6.471  0.1321 -0.0957  0.2117
65417W        W 8355   1.392  31.944   8.830 -0.0851 -0.2074 -0.0079
65418W        W 8356   1.030  31.437   7.942  0.0154 -0.3724 -0.2537
65419W        W 8357   3.213  31.554   8.758  0.0891 -0.1112 -0.2024
65420W        W 8358   1.688  32.311   9.031 -0.0864 -0.0154 -0.1357
65421W        W 8359   2.942  28.746   7.494 -0.2223  0.2807  0.2443
65422W        W 8360   2.163  29.911   8.968  0.1447 -0.0144 -0.2862
65423W        W 8361   3.152  29.484   8.839 -0.1584  0.1509  0.0532
65424W        W 8362   1.832  31.109   8.576 -0.2339 -0.3134  0.0996
65425W        W 8363   1.211  30.503   8.664  0.2883  0.1705 -0.0896
65426W        W 8364   4.096  31.739   8.147 -0.0413 -0.1111 -0.0629
65427W        W 8365  33.852  31.377   9.091 -0.0727  0.0411 -0.2934
65428W        W 8366   1.873  28.822   7.780  0.1117  0.1459 -0.0613
65429W        W 8367   4.272  26.870   8.509 -0.1941 -0.0064  0.3299
65430W        W 8368   1.732  31.973   7.270 -0.2617  0.1871  0.3853
65431W        W 8369   3.290  28.516   9.419 -0.1685 -0.1780 -0.1742
65432W        W 8370   1.562  31.485   8.300  0.1305 -0.0182  0.1671
65433W        W 8371   1.189  31.282   7.455 -0.0221  0.1508  0.0797
65434W        W 8372   0.885  32.875   9.839  0.0417  0.1691  0.2287
65435W        W 8373   0.146  28.976   6.747 -0.1558 -0.1356  0.1348
65436W        W 8374   4.302  30.440   8.246 -0.1531  0.1073  0.0617
65437W        W 8375   1.822  30.160   9.216  0.4634 -0.1572  0.1533
65438W        W 8376   0.262  29.868   9.591 -0.3234  0.3961 -0.0598
65439W        W 8377   4.510  29.679   9.891  0.0265  0.1770  0.1327
65440W        W 8378   0.974  30.091   8.533 -0.0929  0.0100 -0.2109
65441W        W 8379   0.842  30.520   9.112  0.0200 -0.3023  0.3098
65442W        W 8380   1.862  30.152   6.915  0.2022  0.0861 -0.1114
65443W        W 8381   2.366  30.006   6.823  0.0448  0.0069  0.4107
65444W        W 8382   1.552  28.853   7.277 -0.0663 -0.2671 -0.0422
65445W        W 8383   1.848  27.993   6.618 -0.1202 -0.0509  0.1515
65446W        W 8384   0.172  31.495   8.564 -0.1578 -0.1356  0.2214
65447W        W 8385   1.094  29.704   9.784  0.1884 -0.0106  0.0064
65448W        W 8386   0.571  27.215   7.448  0.2310 -0.0118  0.2220
65449W        W 8387   2.380  31.007   7.229  0.0764  0.1110  0.1871
65450W        W 8388   1.800  29.953   8.094  0.2124 -0.0345  0.3268
65451W        W 8389   1.294  32.889   6.790  0.2028 -0.2902 -0.0062
65452W        W 8390   2.473  30.360   7.210 -0.1358  0.0368  0.0671
65453W        W 8391   1.706  31.052   9.365 -0.2511  0.2084 -0.0809
65454W        W 8392   0.926  29.353   8.911  0.0401  0.1414  0.0418
65455W        W 8393   3.028  32.274   9.233 -0.3167  0.1106  0.1916
65456W        W 8394   2.946  33.806   9.261 -0.2706 -0.2840 -0.3058
65457W        W 8395   3.333  27.888   7.634  0.1803 -0.0613 -0.5308
65458W        W 8396   0.540  30.151   8.358  0.0041  0.0145  0.1916
65459W        W 8397   2.206  32.176   8.989 -0.1797  0.1238 -0.0085
65460W        W 8398   2.811  29.904   7.042 -0.0452 -0.2979 -0.1145
65461W        W 8399   0.812  31.767   6.186 -0.0212 -0.4099  0.2884
65462W        W 8400   1.490  32.047   8.004 -0.0754  0.2188  0.0163
65463W        W 8401   1.362  30.032   7.131  0.2450 -0.1844  0.2127
65464W        W 8402   0.276  31.390   7.821 -0.2202  0.0948 -0.1425
65465W        W 8403   3.174  31.719   9.292 -0.1285 -0.0949  0.3890
65466W        W 8404   2.039  32.526   9.732 -0.2370 -0.4592 -0.2019
65467W        W 8405   2.725  29.256   7.652 -0.0628 -0.1294  0.1532
65468W        W 8406   3.317  32.442   8.197 -0.0820  0.1598  0.0348
65469W        W 8407   1.683  29.140   6.879  0.1103  0.2835 -0.0101
65470W        W 8408   3.239  29.215   7.662  0.0572 -0.0620 -0.0385
65471W        W 8409   3.714  29.011   7.992  0.1276 -0.3558 -0.0472
65472W        W 8410   1.438  29.286   8.617  0.4071  0.1449 -0.0393
65473W        W 8411  33.832  30.183   7.293 -0.3606 -0.2692  0.0867
65474W        W 8412   0.869  31.396   7.093 -0.1624 -0.1428  0.1507
65475W        W 8413   1.008  31.748   9.146  0.3301  0.0272 -0.0994
65476W        W 8414   0.289  29.938   9.085  0.1853  0.0475 -0.0621
65477W        W 8415   0.741  29.000   7.726 -0.0886  0.0214 -0.3823
65478W        W 8416   2.486  31.966   8.473 -0.1029 -0.0844 -0.0473
65479W        W 8417   2.136  28.264   7.416 -0.0855 -0.2459 -0.1860
65480W        W 8418  34.346  28.848   7.878 -0.0412  0.1806  0.2806
65481W        W 8419   3.815  30.505   8.122 -0.0298 -0.2979 -0.0939
65482W        W 8420   3.189  31.789   7.967  0.0351  0.1952 -0.0961
65483W        W 8421   2.189  28.553   9.749  0.0922 -0.1508  0.1842
65484W        W 8422   0.315  31.114   7.173  0.0025 -0.1751  0.0930
65485W        W 8423  33.919  27.246   7.129 -0.3181 -0.1123  0.0995
65486W        W 8424   1.270  29.207   8.095  0.1381  0.2653  0.0791
65487W        W 8425   2.002  32.980   9.548 -0.0998 -0.0877 -0.0549
65488W        W 8426   2.501  32.832   7.682 -0.2117  0.0349 -0.0273
65489W        W 8427   3.918  25.972   9.646 -0.0024  0.3380  0.3057
65490W        W 8428   3.372  30.243   8.486 -0.0249 -0.2801 -0.2386
65491W        W 8429   3.334  30.059   7.592 -0.0549  0.0406  0.0415
65492W        W 8430   4.210  29.127   8.851  0.0430  0.2618 -0.1358
65493W        W 8431   2.312  29.829   8.466  0.2413  0.1434  0.2694
65494W        W 8432   5.615  30.707   9.842 -0.0333  0.0006  0.1907
65495W        W 8433   1.393  29.171   6.446 -0.0988  0.0135  0.1223
65496W        W 8434   2.433  29.104   9.677  0.0340 -0.0884 -0.2840
65497W        W 8435   1.714  30.734   6.815  0.0450  0.1412  0.0461
65498W        W 8436   0.660  30.348  10.234 -0.4330  0.2516 -0.0853
65499W        W 8437   0.640  31.081   8.014 -0.2839  0.1796  0.1326
65500W        W 8438   2.838  31.996   7.542 -0.1986  0.1026  0.1172
65501W        W 8439   0.917  30.487   8.207 -0.2331 -0.0079  0.4748
65502W        W 8440   3.789  31.346   7.464 -0.0409  0.2130  0.1862
65503W        W 8441   3.912  31.996   8.674  0.1054  0.0816  0.2085
65504W        W 8442   0.229  30.414   9.768  0.0201  0.2427  0.0919
65505W        W 8443   1.562  30.103   8.608  0.1173 -0.3023 -0.0919
65506W        W 8444   0.891  27.941   7.733  0.3426  0.0586  0.0031
65507W        W 8445   0.942  29.448   7.782 -0.0037  0.3340 -0.0953
65508W        W 8446   0.686  32.291   8.314 -0.0013  0.0091  0.0664
65509W        W 8447   4.669  29.113   9.872  0.4289 -0.0310  0.2336
65510W        W 8448   2.355  27.807   8.641 -0.2555 -0.2213  0.1795
65511W        W 8449   3.038  30.387   6.775 -0.0422  0.6588 -0.1017
65512W        W 8450   2.293  33.303   9.770 -0.0606  0.4769  0.0603
65513W        W 8451   0.800  29.998   9.029  0.2269 -0.0642  0.0332
65514W        W 8452   3.044   0.376  31.282  0.2588  0.0109 -0.1606
65515W        W 8453   2.454  32.387   0.772 -0.0991 -0.0396 -0.0147
65516W        W 8454   3.645  33.876  31.750 -0.0329 -0.1883  0.0763
65517W        W 8455   1.314  33.865   1.373  0.1641 -0.0979  0.2063
65518W        W 8456   0.933  32.439   2.532 -0.0452  0.0394  0.0135
65519W        W 8457   1.567  34.490  29.803  0.1995 -0.0738 -0.0118
65520W        W 8458   2.096  34.560   2.554  0.1221 -0.1375 -0.1733
65521W        W 8459   1.285  33.115   0.847  0.1014 -0.0528 -0.0340
65522W        W 8460   0.619  33.351   1.114 -0.3952  0.2063  0.0575
65523W        W 8461   2.281  34.443   0.720  0.0352 -0.0352 -0.1334
65524W        W 8462   0.247  34.474   0.175  0.1408 -0.4246  0.1413
65525W        W 8463   1.191  33.528   2.253  0.1313  0.5261  0.1141
65526W        W 8464   3.471   0.244  31.622  0.2388 -0.0470  0.1731
65527W        W 8465   1.804  32.824   2.893 -0.1938 -0.2022 -0.0369
65528W        W 8466   1.823  32.701   2.257  0.0046  0.0517  0.0427
65529W        W 8467   0.908  34.418   0.102 -0.2815  0.2945  0.2889
65530W        W 8468   0.443   0.257   0.942 -0.0976 -0.2439 -0.2984
65531W        W 8469   0.971  34.233   1.675 -0.3008 -0.1464  0.0031
65532W        W 8470   3.719  33.361   2.647  0.1997  0.0580  0.0398
65533W        W 8471   2.614   0.976   1.700  0.0936 -0.3199  0.0967
65534W        W 8472   2.674  33.253   4.574  0.0293  0.1769 -0.2880
65535W        W 8473   1.906   0.629   2.263 -0.1898  0.3239 -0.0318
65536W        W 8474   2.710  34.190   0.809 -0.0475  0.3142 -0.2657
65537W        W 8475   4.588  34.091   2.979 -0.3345 -0.0787  0.2459
65538W        W 8476   3.169   0.707  31.711  0.1531  0.0298 -0.0310
65539W        W 8477   0.907  32.698  31.495  0.3499 -0.0214 -0.2889
65540W        W 8478   3.405  32.990   0.071  0.0762 -0.1076  0.0429
65541W        W 8479   1.891  32.691   1.388 -0.1514 -0.1004 -0.0114
65542W        W 8480   1.256  34.599   1.966 -0.2799  0.0122 -0.1808
65543W        W 8481   3.284   0.693   0.629  0.2765 -0.4181 -0.1389
65544W        W 8482   1.916  34.077   2.446  0.0391 -0.3458 -0.1909
65545W        W 8483   0.251   0.407   1.480  0.0569 -0.2653 -0.2015
65546W        W 8484   0.656  33.959   0.268 -0.2723  0.0541  0.1439
65547W        W 8485   0.677  33.914   3.875 -0.1336  0.0512 -0.1132
65548W        W 8486   0.053   0.032   4.573 -0.0398 -0.0104 -0.0900
65549W        W 8487   1.101  33.447   0.003  0.0619 -0.2125 -0.3592
65550W        W 8488   2.226  33.199   2.389  0.1485  0.3050 -0.0748
65551W        W 8489   2.026  33.431   1.764 -0.3706  0.2334 -0.3153
65552W        W 8490   2.576  34.211   2.015 -0.1757  0.0770 -0.0709
65553W        W 8491   3.044  34.540   0.931  0.0065 -0.0911 -0.1424
65554W        W 8492   2.036   1.137   2.523 -0.2731 -0.0123 -0.0744
65555W        W 8493   0.475  33.589   1.675  0.1016 -0.2317 -0.0149
65556W        W 8494   3.760  32.284  31.860  0.1995  0.1740 -0.1104
65557W        W 8495   1.195  34.103   2.110  0.1110 -0.0220  0.2266
65558W        W 8496   2.308  32.322   1.285  0.2106  0.1429 -0.0255
65559W        W 8497   4.164  34.209   1.035 -0.1181 -0.0811  0.0117
65560W        W 8498   0.545  34.036   2.014 -0.2028 -0.0733  0.1274
65561W        W 8499   0.633  33.559  31.728 -0.0021  0.2009  0.0482
65562W        W 8500   2.253  33.119   2.922  0.1880  0.0615 -0.2174
65563W        W 8501   1.688  34.107   1.128 -0.2366  0.1044  0.3822
65564W        W 8502   2.318  33.667   3.087 -0.0192 -0.3618 -0.0940
65565W        W 8503   0.301  32.046   1.022  0.2342 -0.1023 -0.1972
65566W        W 8504   2.829  32.905   1.225  0.1664 -0.4433  0.0103
65567W        W 8505   2.026   0.791   0.163 -0.0928 -0.0828 -0.0101
65568W        W 8506   3.070  33.670   3.839 -0.1447  0.0024  0.0448
65569W        W 8507   0.601  34.350   2.855 -0.3443  0.2317 -0.1510
65570W        W 8508   0.649   0.090  31.014  0.2880 -0.1522  0.0950
65571W        W 8509   2.469  33.638  31.650  0.2251  0.0087  0.0397
65572W        W 8510   2.787  33.362   2.913 -0.0104  0.2541 -0.2952
65573W        W 8511   2.455  34.150   1.495 -0.0883  0.2562 -0.0768
65574W        W 8512   1.893  34.612  30.803  0.2970  0.2397 -0.1855
65575W        W 8513  34.636  34.664   0.997 -0.0963 -0.0465 -0.0149
65576W        W 8514   4.060  33.642   1.860  0.0035  0.2247  0.0520
65577W        W 8515   0.575  34.517   3.802  0.0698 -0.1756 -0.2625
65578W        W 8516   2.379  34.195   2.803  0.0291  0.2270 -0.1672
65579W        W 8517   1.204   0.492   0.105  0.0381 -0.1217  0.0011
65580W        W 8518   2.089  33.229   1.330  0.0720  0.0342 -0.0068
65581W        W 8519   3.687  31.801   0.724 -0.0184  0.0397 -0.0972
65582W        W 8520   2.623   0.084   0.661 -0.0374  0.2672 -0.0708
65583W        W 8521   3.172   0.173   0.583 -0.1033  0.1725 -0.1653
65584W        W 8522   2.028  33.486   0.540  0.0965  0.0199  0.4256
65585W        W 8523   2.400  32.756   2.197  0.0841  0.1719  0.0747
65586W        W 8524  34.457  33.219  31.325 -0.0280  0.1738 -0.4543
65587W        W 8525   2.060  33.995   1.945 -0.1532  0.2988 -0.1206
65588W        W 8526   2.867  32.960   2.124 -0.0686 -0.3341 -0.0980
65589W        W 8527   1.434  32.636   2.564  0.0413  0.1736 -0.0450
65590W        W 8528   2.599  32.615   3.654  0.2449  0.0027  0.1482
65591W        W 8529   3.861  34.490   3.578 -0.2840  0.1314  0.3596
65592W        W 8530   2.862  33.435   0.030 -0.2283 -0.3305 -0.0758
65593W        W 8531   2.584  34.569   1.725  0.2552 -0.1692 -0.1705
65594W        W 8532   1.911  32.367  31.450  0.1227  0.1277 -0.3423
65595W        W 8533   3.156  32.993   3.052 -0.1036 -0.0171  0.1154
65596W        W 8534   3.230  33.315   3.504 -0.0234 -0.3221  0.0563
65597W        W 8535   2.081   0.358  31.944 -0.0905  0.0218 -0.0414
65598W        W 8536   0.839  33.240   2.065  0.1320 -0.0998 -0.0176
65599W        W 8537   3.204  32.868   2.506 -0.1965 -0.3314 -0.2963
65600W        W 8538   2.379  34.665   0.166  0.1844 -0.3211  0.0163
65601W        W 8539   0.614  34.166  31.719  0.1479  0.0354  0.0410
65602W        W 8540   3.276  33.056   0.888 -0.3283 -0.0777  0.2675
65603W        W 8541   1.144  33.018   2.371  0.0029 -0.0369  0.0815
65604W        W 8542   1.696  34.293   2.063 -0.0352 -0.3021  0.2257
65605W        W 8543   1.843  33.620   2.258 -0.1051  0.0921  0.1496
65606W        W 8544   3.543  34.433  30.414 -0.0266 -0.0913 -0.3840
65607W        W 8545   0.417  33.609   3.499  0.1098  0.0157 -0.1288
65608W        W 8546   0.785  33.791   1.314 -0.0192 -0.1498  0.2145
65609W        W 8547   3.563   0.120   3.411  0.3651  0.0967 -0.2971
65610W        W 8548   1.525   0.311   0.755  0.1347 -0.2932  0.2383
65611W        W 8549   2.753   0.268   0.250  0.3024 -0.0692 -0.0785
65612W        W 8550   0.770  32.631   3.537 -0.2926 -0.0622  0.0835
65613W        W 8551   1.606  33.794   3.032  0.3798 -0.0299  0.1582
65614W        W 8552  33.935  33.825   1.005 -0.1393 -0.2445  0.0229
65615W        W 8553   1.662   0.058   1.544  0.2485  0.0328  0.1324
65616W        W 8554   3.167  33.409   2.139  0.2735  0.1701 -0.0346
65617W        W 8555   2.715  32.901   2.643 -0.1572 -0.2981  0.2669
65618W        W 8556   1.673   0.183   3.384 -0.1552  0.1971 -0.1536
65619W        W 8557   1.163  33.231   1.644 -0.1235 -0.1861  0.0725
65620W        W 8558   2.075  32.975   0.201  0.2193  0.4086  0.0496
65621W        W 8559   2.417  33.668   2.114  0.0334  0.0643  0.3099
65622W        W 8560   3.471  32.856   3.442 -0.2130 -0.1011  0.1628
65623W        W 8561   3.223  34.030   0.997  0.0491 -0.3723 -0.0535
65624W        W 8562   2.748  33.119   3.455 -0.1424 -0.0175 -0.0202
65625W        W 8563   1.263  32.185   2.817 -0.1270 -0.0921  0.0488
65626W        W 8564   1.086  31.832   3.683 -0.0541 -0.1715 -0.1516
65627W        W 8565   0.492   0.386   4.543  0.0810  0.1088 -0.1146
65628W        W 8566  34.121  33.363   0.846 -0.0730  0.0017  0.3055
65629W        W 8567  34.610  32.227   0.021 -0.1281  0.0457 -0.1416
65630W        W 8568   1.487  34.398   2.469 -0.1000 -0.2509  0.1825
65631W        W 8569   3.794  32.936   2.359  0.1055  0.1805  0.2680
65632W        W 8570   0.469   0.732   2.743 -0.2317 -0.1537  0.0142
65633W        W 8571   2.538  34.531   1.125  0.0780 -0.2106 -0.0684
65634W        W 8572   1.441  32.894   1.875 -0.0899  0.3589 -0.0648
65635W        W 8573   1.660  33.193   2.466 -0.2165 -0.2037  0.1388
65636W        W 8574   2.355  33.743   2.578  0.0941 -0.0193  0.0343
65637W        W 8575   3.456  33.767   3.455  0.1651 -0.5083  0.0634
65638W        W 8576   1.779  32.685   3.374 -0.1336 -0.0391  0.1038
65639W        W 8577   0.263  33.117   3.808  0.3944 -0.0742  0.3053
65640W        W 8578   3.891   1.384  31.410  0.0912  0.1328 -0.0180
65641W        W 8579   3.880  34.348   2.603 -0.0101  0.1838  0.0358
65642W        W 8580   3.332  34.043  31.412  0.2880 -0.0232  0.0374
65643W        W 8581   2.864  32.736   0.657 -0.1344  0.3442 -0.5354
65644W        W 8582   1.422  33.758   0.878  0.3896  0.2738 -0.2601
65645W        W 8583   2.664   0.544   3.862 -0.0554 -0.4257 -0.0309
65646W        W 8584   1.169  33.038  31.201  0.0587  0.3519 -0.0395
65647W        W 8585   2.687  34.160   4.227 -0.1462  0.0836  0.1056
65648W        W 8586   2.164   0.819   1.583  0.4203 -0.2557  0.1392
65649W        W 8587  33.611  33.149   1.531  0.0398  0.1139  0.1058
65650W        W 8588   2.323  33.139  31.790  0.1094 -0.0319 -0.3307
65651W        W 8589   2.401   0.287  31.514 -0.3087  0.1661 -0.0268
65652W        W 8590   2.953   0.274  31.743  0.0952 -0.2622  0.2475
65653W        W 8591   3.179  34.580   3.260  0.1398  0.1217  0.2685
65654W        W 8592   2.468  33.234   1.928 -0.2055  0.0241  0.0587
65655W        W 8593   3.258  33.329   2.652 -0.0364 -0.0894  0.0309
65656W        W 8594   1.784  34.219   2.873  0.0865  0.0293 -0.1491
65657W        W 8595   2.524   0.002   2.785  0.0083 -0.0633 -0.3357
65658W        W 8596   4.955  34.433   1.673 -0.2387  0.2362  0.1567
65659W        W 8597   1.009  33.889  31.869 -0.0386  0.0534  0.1347
65660W        W 8598  34.102  34.567   3.705 -0.3302  0.0182 -0.1251
65661W        W 8599   1.490  33.431   0.501 -0.1547 -0.2964  0.1431
65662W        W 8600   1.120  33.809   0.359 -0.1799 -0.0548  0.0956
65663W        W 8601   3.152  33.209  31.171 -0.0823 -0.0792 -0.0522
65664W        W 8602   1.975  34.313   1.441  0.0482 -0.2537 -0.2485
65665W        W 8603   4.435  33.125   1.114 -0.2082 -0.0614 -0.0744
65666W        W 8604   0.790  33.350   3.150 -0.1743 -0.0582 -0.1187
65667W        W 8605   2.261  34.097  31.819  0.1901  0.0460 -0.3748
65668W        W 8606   0.823  34.539   2.181 -0.0238  0.1324  0.0236
65669W        W 8607   4.219  33.283   3.529  0.0633 -0.1978 -0.0277
65670W        W 8608   0.994  32.245  31.250  0.1251  0.0200 -0.1656
65671W        W 8609   1.464  34.537   1.081 -0.0460  0.1181 -0.2292
65672W        W 8610   3.351  32.037   2.185 -0.1773  0.1240  0.3476
65673W        W 8611   1.818   1.050   1.295 -0.0673 -0.1386 -0.2232
65674W        W 8612   1.140   0.370  31.584  0.1262  0.1713  0.1372
65675W        W 8613   3.276  33.851   2.546  0.2002  0.1680  0.1509
65676W        W 8614   1.060  33.025   3.475 -0.2640  0.0553  0.0091
65677W        W 8615   4.072  33.166   1.920 -0.0356  0.0832 -0.1175
65678W        W 8616   2.043  32.904   1.885  0.0369 -0.2780 -0.0421
65679W        W 8617   2.713  31.451   1.036 -0.0329  0.2054 -0.0045
65680W        W 8618   1.411  33.356   3.870 -0.2166  0.1022  0.1173
65681W        W 8619   2.703  34.123  30.939 -0.1619  0.1813  0.1502
65682W        W 8620   5.154  33.846   2.738 -0.2617  0.0729  0.1010
65683W        W 8621   3.933  34.693  31.222  0.1829 -0.0378 -0.0208
65684W        W 8622   1.325  34.020  31.422 -0.0125  0.0095 -0.2902
65685W        W 8623   3.653  33.382   2.135  0.1025 -0.0038  0.0819
65686W        W 8624   0.672  34.563   1.068  0.0308 -0.2097  0.3418
65687W        W 8625   0.883  34.069   2.504  0.0269  0.1756  0.3895
65688W        W 8626  33.350  31.939   1.116  0.0912  0.3206  0.1570
65689W        W 8627   3.654  34.354   3.071  0.4100  0.1577  0.1411
65690W        W 8628   2.894  33.829   1.893 -0.0302 -0.1080  0.0704
65691W        W 8629   0.445  34.098   1.476  0.0739  0.0345  0.0584
65692W        W 8630   0.566  34.013   0.875 -0.1177  0.0511 -0.1703
65693W        W 8631   2.120  34.545   1.895  0.0121 -0.4091 -0.0926
65694W        W 8632   4.513  32.285   1.957 -0.2261 -0.0787  0.1822
65695W        W 8633   3.382  32.917   2.009 -0.2138 -0.0802 -0.0474
65696W        W 8634   3.693  33.841   2.827 -0.2738 -0.2575  0.2466
65697W        W 8635   1.918  33.535   2.719 -0.0761  0.1461  0.0390
65698W        W 8636   2.200  33.567   1.038  0.0570  0.2178  0.1243
65699W        W 8637   3.565  33.503   1.156  0.2220  0.1715 -0.0933
65700W        W 8638   2.678  30.938   0.838 -0.1437 -0.0233  0.0876
65701W        W 8639   1.460  33.848   2.474  0.1034  0.0746 -0.2855
65702W        W 8640  34.624   2.273  31.432  0.0512  0.1134 -0.1472
65703W        W 8641   0.960  32.270   3.878 -0.1006  0.0808  0.1977
65704W        W 8642   0.844  32.885   2.948 -0.1690  0.3384 -0.4408
65705W        W 8643   1.318   0.849   1.007 -0.0737  0.1024 -0.0715
65706W        W 8644  34.584  33.821   0.837  0.0564  0.2615  0.1405
65707W        W 8645   1.748  32.327   2.780 -0.1346  0.1327  0.1037
65708W        W 8646   0.219  32.772   1.793 -0.1287  0.0053  0.0986
65709W        W 8647   2.351  33.659   0.201 -0.0490 -0.0481 -0.0998
65710W        W 8648   3.025  34.033   3.470  0.4212 -0.0844 -0.4539
65711W        W 8649   2.460  32.846   1.587 -0.1106 -0.1999 -0.2933
65712W        W 8650  33.449  32.922  31.826 -0.3124  0.0138 -0.2969
65713W        W 8651   2.710  33.809   1.148  0.0901 -0.1316  0.4887
65714W        W 8652  34.211  33.251   3.504  0.0218  0.3693 -0.0218
65715W        W 8653   5.841  33.168   2.875  0.1020  0.2909 -0.1051
65716W        W 8654   3.322  33.928   0.498 -0.2266  0.2250  0.1093
65717W        W 8655  34.520  32.840   3.312 -0.0489 -0.0265  0.1027
65718W        W 8656   0.960  32.923   1.290 -0.1294 -0.1609  0.2553
65719W        W 8657   3.821  33.857   1.400 -0.1507 -0.0214  0.4416
65720W        W 8658   2.195  34.082   1.081 -0.0958  0.0797 -0.4348
65721W        W 8659   2.941  33.653   0.748 -0.1147  0.2156  0.3222
65722W        W 8660   1.367  33.084   2.823 -0.1623  0.0349  0.1190
65723W        W 8661   3.456  34.372   0.601  0.2873  0.0458 -0.2019
65724W        W 8662   3.591   2.751   0.644  0.2828 -0.3123 -0.2801
65725W        W 8663  34.443  32.494   3.722  0.1054 -0.2337 -0.3198
65726W        W 8664   0.497  34.354  31.230  0.2664 -0.1026  0.2096
65727W        W 8665   0.900  34.253   0.570  0.0416 -0.2497 -0.1908
65728W        W 8666   3.098  34.334   2.031 -0.0430 -0.0588 -0.0794
65729W        W 8667   1.688  33.608  31.171  0.1048  0.0018  0.0514
65730W        W 8668   2.468  33.686   1.659 -0.3166  0.0488  0.1405
65731W        W 8669   1.091  34.322   4.588 -0.0892 -0.0699  0.1024
65732W        W 8670   1.760  32.970   3.808  0.1099 -0.0732 -0.0303
65733W        W 8671   2.094  33.765   4.207 -0.3526 -0.0547  0.2034
65734W        W 8672  34.631  33.099   4.984 -0.0488 -0.0483 -0.1156
65735W        W 8673   0.288  33.011   6.088 -0.2187  0.1153 -0.1092
65736W        W 8674   1.644   2.682   4.154 -0.0153  0.1163  0.1344
65737W        W 8675   2.362  33.617   4.592  0.0692  0.1678  0.0427
65738W        W 8676  34.075  32.341   4.268  0.1406  0.0305 -0.2258
65739W        W 8677   0.513  33.770   5.037  0.3574  0.1546  0.0757
65740W        W 8678   1.936  34.571   4.723  0.0539 -0.1727 -0.1754
65741W        W 8679  34.453   0.008   4.150 -0.0380 -0.1496  0.0406
65742W        W 8680   1.092  32.901   3.994 -0.0894 -0.0796 -0.1344
65743W        W 8681   0.679  33.311   4.614 -0.0779 -0.0454  0.3478
65744W        W 8682   0.836  33.968   6.445 -0.2619 -0.2264  0.3682
65745W        W 8683   2.794  33.466   6.619  0.0418 -0.1186 -0.0459
65746W        W 8684   0.451  34.024   3.234  0.2556 -0.0939 -0.4432
65747W        W 8685  34.685   1.004   5.923  0.0565  0.2602  0.0991
65748W        W 8686   1.122   0.342   5.395 -0.2329 -0.0590  0.2210
65749W        W 8687   3.017  34.676   5.519  0.1216 -0.1477  0.1418
65750W        W 8688   2.678   1.024   4.713  0.3489 -0.2556  0.0233
65751W        W 8689   3.727  34.134   8.082 -0.0899 -0.1788 -0.3456
65752W        W 8690   1.657  33.958   6.077  0.1516  0.0599 -0.0093
65753W        W 8691   2.249   1.151   4.187 -0.0256  0.1109  0.1969
65754W        W 8692   4.180  33.491   5.941 -0.3071 -0.1103  0.2948
65755W        W 8693   3.193  34.557   4.971 -0.0557  0.0083  0.0072
65756W        W 8694   2.460  34.662   3.498  0.2318  0.3234  0.1405
65757W        W 8695   2.762  33.803   4.785 -0.1364 -0.2121 -0.0386
65758W        W 8696   1.327  33.740   4.627 -0.2225 -0.0478 -0.0314
65759W        W 8697   0.686  33.246   5.704  0.1616  0.1822  0.3436
65760W        W 8698   2.220  34.324   3.814 -0.0651  0.2413  0.0962
65761W        W 8699   3.393  34.269   6.838 -0.1254 -0.2296  0.0701
65762W        W 8700   0.378   0.636   5.880  0.0748 -0.1284 -0.0661
65763W        W 8701   0.108  34.264   4.156 -0.0917 -0.0030  0.0266
65764W        W 8702   0.563  34.560   6.325  0.0182 -0.2451 -0.1567
65765W        W 8703   2.037  33.944   7.527 -0.1073 -0.0876 -0.0426
65766W        W 8704   1.280  33.460   3.252 -0.0364  0.0798  0.1637
65767W        W 8705   2.264  33.211   4.833 -0.0783 -0.0448  0.0016
65768W        W 8706   2.345  33.196   4.246 -0.0147 -0.0918 -0.0243
65769W        W 8707   1.288  33.751   5.718 -0.1306  0.1430 -0.0382
65770W        W 8708   3.123   1.100   4.977 -0.2338  0.1435  0.1762
65771W        W 8709   1.314  33.353   5.954 -0.0087 -0.0440  0.0663
65772W        W 8710   0.653  33.253   5.162 -0.0377  0.1842  0.0569
65773W        W 8711   2.559  33.930   3.818 -0.0724  0.0365 -0.3704
65774W        W 8712   0.542  33.190   6.708  0.1499 -0.1593  0.5184
65775W        W 8713   2.728  33.611   5.838 -0.3080  0.0171 -0.2955
65776W        W 8714   2.780  33.891   2.936  0.2946  0.1668 -0.0330
65777W        W 8715  34.612  33.781   6.342  0.2927  0.0695 -0.1249
65778W        W 8716  34.591  34.433   4.943 -0.0029  0.0985  0.0462
65779W        W 8717  33.442  33.906   7.499  0.0318 -0.1390  0.0864
65780W        W 8718  34.359  33.127   5.434 -0.1550  0.2915  0.2762
65781W        W 8719   3.816  34.599   6.069  0.0161 -0.3773  0.0621
65782W        W 8720   0.903  33.523   3.663  0.0508 -0.1627  0.4375
65783W        W 8721   1.682  34.268   5.030  0.3706  0.4185  0.0272
65784W        W 8722   2.086  34.500   3.224 -0.0939 -0.3394  0.0663
65785W        W 8723   3.942  33.020   7.645 -0.0518  0.2281 -0.1068
65786W        W 8724   1.221  33.274   7.072  0.1321  0.2229  0.0363
65787W        W 8725   0.276  33.115   4.324  0.0744  0.3631  0.0895
65788W        W 8726   0.044  34.679   3.766  0.0887 -0.3311  0.0183
65789W        W 8727   1.694  33.134   7.838 -0.0769  0.0901 -0.0938
65790W        W 8728   2.096   1.008   4.661  0.1448  0.1910  0.0766
65791W        W 8729   1.070  33.832   4.179 -0.0776  0.1415 -0.1121
65792W        W 8730  34.610  34.272   6.423 -0.1444  0.0236  0.1756
65793W        W 8731   3.352  33.091   5.675  0.0276 -0.1119  0.0289
65794W        W 8732   0.326  34.505   7.572 -0.1338 -0.0061 -0.1779
65795W        W 8733   2.608   0.083   6.572 -0.0890 -0.1647 -0.2810
65796W        W 8734   1.547  32.968   4.260 -0.0188  0.0947 -0.1274
65797W        W 8735   2.648  33.330   3.874  0.1019 -0.2062  0.2032
65798W        W 8736   4.287  32.631   4.052  0.3420  0.2899 -0.1566
65799W        W 8737   3.617  34.040   4.341  0.0537  0.0054  0.0235
65800W        W 8738   3.009  32.485   3.951 -0.0268  0.1000  0.0235
65801W        W 8739   2.769   0.124   4.578 -0.1674  0.1955 -0.1319
65802W        W 8740   2.413  34.159   5.492 -0.2121  0.1096 -0.0048
65803W        W 8741   1.384   0.520   4.493  0.0947  0.2069 -0.1233
65804W        W 8742   1.380  34.265   4.125  0.2174 -0.0161  0.0720
65805W        W 8743   1.868  33.427   5.997 -0.0899  0.1172 -0.2432
65806W        W 8744   2.514  33.736   7.760 -0.1837  0.1936  0.0292
65807W        W 8745   1.190  33.270   5.410  0.2174 -0.1535 -0.2412
65808W        W 8746   3.172  33.675   6.916 -0.1537  0.1079  0.1082
65809W        W 8747   1.026  34.644   5.135 -0.0029  0.2408  0.2818
65810W        W 8748   2.440  33.613   5.099  0.0271  0.0712 -0.1902
65811W        W 8749   1.203  33.551   2.798 -0.1512 -0.1449  0.0389
65812W        W 8750   2.252  33.831   5.851 -0.1881  0.1931  0.0434
65813W        W 8751   1.747  33.985   5.539  0.2178 -0.1408  0.1616
65814W        W 8752   1.714  33.654   3.547 -0.0167  0.0279 -0.2133
65815W        W 8753   1.914  33.468   5.069 -0.2139 -0.1835 -0.0475
65816W        W 8754   2.856  32.782   5.425 -0.0820 -0.0144  0.0976
65817W        W 8755   0.961  34.644   4.172 -0.2139 -0.1200 -0.1780
65818W        W 8756   0.409   0.043   4.219  0.0980  0.3170 -0.1156
65819W        W 8757   2.491  33.134   5.251 -0.0206 -0.2031 -0.5129
65820W        W 8758   0.893  33.680   5.477  0.0806  0.0115  0.3289
65821W        W 8759   1.614  34.487   6.060 -0.0511  0.1028 -0.2146
65822W        W 8760   2.820  33.928   6.741  0.0755  0.1599  0.1056
65823W        W 8761   3.432  32.342   3.581 -0.0450  0.0815  0.1328
65824W        W 8762   2.352  33.922   6.667 -0.4160 -0.2057 -0.2302
65825W        W 8763  34.421  34.187   3.872  0.1484 -0.2330 -0.1179
65826W        W 8764   2.362  34.662   5.567  0.0105  0.0668  0.0562
65827W        W 8765   0.669  34.237   5.006  0.0655  0.1068  0.1050
65828W        W 8766   1.872   1.049   5.138  0.4223 -0.2781 -0.1026
65829W        W 8767   1.952  33.811   7.049 -0.0476  0.1477  0.0471
65830W        W 8768   1.479  34.645   4.796  0.0288 -0.1795 -0.3008
65831W        W 8769   0.350  33.739   4.263  0.2106  0.0550  0.1268
65832W        W 8770   1.908  34.439   4.250 -0.0465  0.0339 -0.1089
65833W        W 8771   2.500  33.117   6.989  0.0968  0.0622  0.2497
65834W        W 8772   1.970  32.691   4.440  0.0494 -0.1096  0.2643
65835W        W 8773   2.151   0.364   6.584  0.2574  0.0640 -0.0868
65836W        W 8774   2.497  33.565   7.040  0.0534 -0.1885 -0.1545
65837W        W 8775   2.763  33.680   4.223 -0.3012  0.2593 -0.0356
65838W        W 8776   1.051  34.085   5.946  0.1517  0.3220  0.2528
65839W        W 8777   4.120  34.075   7.278  0.0277  0.2404  0.2349
65840W        W 8778   3.526   1.080   4.662 -0.0898 -0.1111 -0.0169
65841W        W 8779   3.587  33.426   7.949  0.2283  0.2778  0.0299
65842W        W 8780   0.958   0.118   5.886  0.1716  0.4573 -0.1603
65843W        W 8781   1.483  33.569   7.475 -0.0545  0.2894 -0.4888
65844W        W 8782  33.965  34.056   6.276  0.2379  0.0287 -0.1654
65845W        W 8783   1.359  32.767   4.686 -0.2864 -0.1572 -0.0946
65846W        W 8784   2.353  34.520   4.350 -0.0637 -0.1489  0.2721
65847W        W 8785   2.333   0.146   7.010 -0.3408  0.1571 -0.2269
65848W        W 8786   4.412  33.547   5.467 -0.0619 -0.0034 -0.0909
65849W        W 8787   2.850   1.341   5.307  0.0475 -0.2282  0.1016
65850W        W 8788   1.681   0.582   5.307 -0.0434 -0.0097 -0.0949
65851W        W 8789   0.567  32.724   6.495 -0.0369  0.2274 -0.0217
65852W        W 8790   1.834  34.487   5.495 -0.0893 -0.2754 -0.1939
65853W        W 8791   2.054  32.901   5.466 -0.2254 -0.0758 -0.0742
65854W        W 8792   2.465  34.234   6.169 -0.0614 -0.0117 -0.1330
65855W        W 8793   2.587  34.389   6.880  0.0589 -0.2286 -0.2406
65856W        W 8794  34.517  32.517   6.653 -0.0750 -0.0879 -0.0045
65857W        W 8795   3.423  34.448   2.427 -0.0435 -0.0013 -0.1795
65858W        W 8796   4.236  34.463   6.387 -0.0867  0.1832  0.1235
65859W        W 8797   3.400  34.538   4.443 -0.1922 -0.0399  0.4480
65860W        W 8798   2.966  34.639   4.123 -0.2460  0.0932 -0.0351
65861W        W 8799   1.148  34.094   5.010  0.2023 -0.5399 -0.2398
65862W        W 8800   2.083   0.594   7.391 -0.0082  0.1984 -0.2653
65863W        W 8801   1.670   0.727   2.690 -0.4006  0.1651 -0.1991
65864W        W 8802   2.791  33.727   7.379  0.2191  0.0663  0.1094
65865W        W 8803   1.196  33.723   6.217 -0.1349 -0.2205  0.0479
65866W        W 8804  34.578   0.198   5.033  0.4145  0.0335 -0.0977
65867W        W 8805   0.553  32.193   3.615  0.0754 -0.1557 -0.1451
65868W        W 8806   1.876   1.246   3.039 -0.1239 -0.5060 -0.2822
65869W        W 8807   0.453  32.954   4.823  0.2145  0.1065 -0.2446
65870W        W 8808   3.050  34.331   6.318  0.0990 -0.1750  0.0298
65871W        W 8809   2.242   0.029   6.095  0.2848 -0.1023  0.0122
65872W        W 8810   0.776  33.597   6.014 -0.0168  0.0335 -0.2068
65873W        W 8811   3.251   0.265   4.643  0.3441  0.0969  0.1535
65874W        W 8812   2.076  33.949   5.188 -0.1144  0.0927 -0.1179
65875W        W 8813   3.571  34.511   8.404 -0.1070 -0.2086  0.3021
65876W        W 8814   0.651  34.579   4.646 -0.1893 -0.0988  0.0786
65877W        W 8815  34.113  33.912   5.385  0.1713 -0.3037  0.4876
65878W        W 8816   0.274  32.211   4.059  0.2519 -0.0574  0.1443
65879W        W 8817   1.770  34.603   3.787 -0.2509 -0.1960  0.3168
65880W        W 8818   2.640  31.699   3.330  0.3736 -0.0391 -0.0766
65881W        W 8819   3.530  34.194   4.798  0.1020 -0.0402 -0.2468
65882W        W 8820   3.837   0.367   5.206  0.0131 -0.1661 -0.1891
65883W        W 8821   2.026   0.508   6.116 -0.1987  0.0010  0.0793
65884W        W 8822   2.147  32.231   4.241 -0.0563  0.0677 -0.0498
65885W        W 8823   1.769  34.239   6.859 -0.2452 -0.2951  0.0470
65886W        W 8824   4.277  32.630   7.952 -0.1345 -0.1815 -0.0547
65887W        W 8825   1.769  34.084   3.896 -0.1171  0.0270  0.0155
65888W        W 8826   1.051   0.164   4.588 -0.3777  0.3452 -0.0070
65889W        W 8827   2.839  33.892   6.229 -0.0817  0.1103 -0.0708
65890W        W 8828   2.358  33.142   5.961 -0.2689 -0.2581 -0.3361
65891W        W 8829  34.511  34.182   5.408  0.0889  0.0473  0.2840
65892W        W 8830   3.910  33.173   4.672  0.4072 -0.0864 -0.2594
65893W        W 8831   1.918  34.211   6.376  0.0724  0.1094  0.1632
65894W        W 8832   3.320  32.960   6.206 -0.3453 -0.2608 -0.1390
65895W        W 8833   1.323  34.203   5.476 -0.0631 -0.0859 -0.2503
65896W        W 8834   3.628  34.370   5.290 -0.1508 -0.0220 -0.0922
65897W        W 8835  34.683  33.331   6.487  0.0782  0.1722  0.2782
65898W        W 8836   1.908  34.078   3.382 -0.0318  0.3971 -0.3216
65899W        W 8837   4.124  34.270   5.233  0.0337  0.2466 -0.0138
65900W        W 8838   2.529   0.099   3.978  0.1225  0.2943  0.3588
65901W        W 8839   0.259  33.410   4.745  0.1028 -0.1110  0.0518
65902W        W 8840   2.861  34.428   3.721  0.1529 -0.3626  0.0255
65903W        W 8841   0.734   0.314   5.032 -0.0523 -0.1847  0.0409
65904W        W 8842   1.098   0.696   6.539 -0.1444  0.0538  0.0403
65905W        W 8843   0.420  32.481   4.975 -0.2137  0.1887  0.1462
65906W        W 8844   3.476   0.192   5.515 -0.2628 -0.0516  0.0324
65907W        W 8845   2.647   1.942   4.195 -0.3033 -0.1425 -0.3078
65908W        W 8846   0.004  33.874   4.992 -0.0227  0.1965  0.2621
65909W        W 8847   1.581  33.751   4.175 -0.0009  0.2937  0.0868
65910W        W 8848   0.224   0.351   5.517  0.1601 -0.2952  0.2320
65911W        W 8849   3.843  33.435   5.533  0.0991  0.1919  0.2038
65912W        W 8850   3.673  33.813   7.111  0.3551  0.2903 -0.0972
65913W        W 8851   3.593  32.484   7.324  0.2292  0.0895 -0.2113
65914W        W 8852   2.688   0.591   4.937 -0.3192 -0.0071 -0.3851
65915W        W 8853   0.779  34.383   6.714  0.1130  0.1011  0.2955
65916W        W 8854   2.335  32.636   5.731  0.1239  0.0920  0.1121
65917W        W 8855   3.241  33.587   5.493  0.0736 -0.0167 -0.1594
65918W        W 8856   0.588   0.038   5.551  0.1368 -0.3663  0.0724
65919W        W 8857  34.152   0.149   3.262  0.0444 -0.2656 -0.1316
65920W        W 8858   1.655  33.430   5.560  0.2322 -0.0718  0.2654
65921W        W 8859   0.650  34.394   7.212 -0.0709  0.0727  0.2361
65922W        W 8860   1.065   0.644   5.800 -0.1327  0.0207 -0.1721
65923W        W 8861  34.555  33.772   4.525 -0.0624  0.1759  0.1625
65924W        W 8862   0.646  32.032   4.959 -0.0607  0.2147  0.0424
65925W        W 8863  33.536  32.045   4.881  0.1049  0.3175  0.0253
65926W        W 8864   1.116  33.361   4.380 -0.0110  0.0003  0.4591
65927W        W 8865   3.456  33.416   7.325 -0.3612  0.2092  0.1961
65928W        W 8866   1.874  33.049   6.335 -0.1043  0.2482  0.3473
65929W        W 8867  32.943  32.646   3.203 -0.3386 -0.1410 -0.1058
65930W        W 8868   0.271  34.146   4.625 -0.2343 -0.2665  0.0237
65931W        W 8869  33.537  31.678   5.865 -0.0082  0.0596  0.0024
65932W        W 8870   2.862  33.172   6.222 -0.0444 -0.3025  0.0527
65933W        W 8871   4.025   1.290   4.633 -0.1359 -0.0902  0.1004
65934W        W 8872   0.905  33.219   6.263 -0.1510  0.0373 -0.3788
65935W        W 8873   1.020  32.461   4.870 -0.3936  0.1163 -0.0246
65936W        W 8874   1.465  33.283   4.792  0.1434  0.1059  0.1765
65937W        W 8875   1.102  34.484   6.251  0.1819 -0.0289 -0.0582
65938W        W 8876   2.244   0.652   4.075  0.3812 -0.0732 -0.1068
65939W        W 8877   2.494  34.087   7.276 -0.0733  0.0819 -0.0668
65940W        W 8878   1.317  33.889   3.707 -0.1471 -0.0164 -0.0339
65941W        W 8879   4.161  34.675   3.987  0.1557 -0.0273 -0.0711
65942W        W 8880   0.642  31.237   5.697  0.1238  0.4255  0.0505
65943W        W 8881   2.457   0.653   3.409 -0.1207  0.0834 -0.1819
65944W        W 8882   1.969   0.541   4.828  0.0777  0.3235 -0.1184
65945W        W 8883   2.829  34.234   5.785  0.1236 -0.0972 -0.5414
65946W        W 8884  33.879  33.392   5.290 -0.2247 -0.0547  0.3482
65947W        W 8885   3.098  33.288   4.242 -0.0116 -0.0394  0.4589
65948W        W 8886   2.275  33.502   8.230 -0.2446  0.1382  0.2743
65949W        W 8887   4.893  34.253   7.298 -0.2173  0.0494 -0.0944
65950W        W 8888   3.348   0.318   7.822 -0.1748 -0.2129 -0.1753
65951W        W 8889   1.788  34.067   7.928 -0.1264  0.3260 -0.0806
65952W        W 8890   1.575  34.059   7.333  0.0446  0.0892 -0.1108
65953W        W 8891   1.956  33.774   9.458  0.0647 -0.0036  0.0322
65954W        W 8892   2.076  32.349   6.441 -0.1069  0.1433  0.0551
65955W        W 8893  32.386  31.632   8.343 -0.0056 -0.2328  0.2083
65956W        W 8894   3.509  34.579   8.960  0.2682  0.4046  0.0194
65957W        W 8895  34.631  34.061   7.774 -0.0659 -0.0138  0.0420
65958W        W 8896   0.701  32.818   9.164 -0.2345  0.1976 -0.0070
65959W        W 8897   1.312  32.428   8.367  0.5383 -0.1955 -0.1634
65960W        W 8898   0.867  34.510   9.678  0.1574  0.1857  0.2762
65961W        W 8899   1.273  32.783   7.271  0.0330  0.0630  0.0455
65962W        W 8900  34.677   0.479   8.861 -0.2113 -0.3051 -0.1320
65963W        W 8901  34.550  34.314   9.165  0.0726  0.0791 -0.0032
65964W        W 8902   2.107  32.646   9.267 -0.1612 -0.0508 -0.0167
65965W        W 8903   3.658  33.532   8.913  0.2062  0.2121  0.2792
65966W        W 8904   2.454  32.840  10.099 -0.3664  0.4171  0.0591
65967W        W 8905   2.410  34.236   9.179 -0.0344 -0.0408 -0.2419
65968W        W 8906   3.015  34.599   6.746  0.2271  0.1644 -0.2240
65969W        W 8907   2.195  33.408   5.580  0.0634 -0.1128 -0.2416
65970W        W 8908   2.573  33.322   7.495  0.0251 -0.1233  0.0290
65971W        W 8909   1.290  32.794   9.566 -0.1129 -0.0574  0.1472
65972W        W 8910   0.457  34.085   9.735 -0.0543 -0.0230  0.1451
65973W        W 8911   3.377  33.956   7.446  0.0035  0.0351 -0.1571
65974W        W 8912   1.219  33.255   9.891 -0.1399 -0.2335 -0.2567
65975W        W 8913  34.258  34.489   7.842 -0.1729  0.1963  0.2174
65976W        W 8914   0.091  33.448   8.650 -0.0474  0.1631 -0.0603
65977W        W 8915   0.519  32.582   7.452 -0.2348  0.0429  0.0524
65978W        W 8916   3.177  32.856   7.153 -0.1062  0.2779  0.0531
65979W        W 8917   1.701  32.842   9.128 -0.1514 -0.1157  0.0317
65980W        W 8918   3.216  30.000   9.697  0.4645 -0.0448 -0.3105
65981W        W 8919   3.431   0.355   6.793  0.1838 -0.0369  0.0595
65982W        W 8920  33.751  34.113   9.250 -0.0691 -0.3086  0.1008
65983W        W 8921   3.299  33.788   8.235  0.2929 -0.1260  0.2411
65984W        W 8922   3.757  32.934   8.800  0.0861 -0.0509 -0.3054
65985W        W 8923   3.633  34.595   7.803  0.1359  0.1015  0.0455
65986W        W 8924   0.406  32.286  10.167 -0.4234  0.2416 -0.1833
65987W        W 8925   0.970  33.158   8.168 -0.1216 -0.0884  0.0053
65988W        W 8926  34.051  31.274   9.820  0.0035 -0.2377 -0.3478
65989W        W 8927   0.525  33.400   8.328  0.1367 -0.1860  0.0444
65990W        W 8928   3.315  32.584   8.968 -0.2149 -0.2931  0.0749
65991W        W 8929   0.801  34.065   8.793 -0.1082  0.1918  0.0529
65992W        W 8930   0.059  32.340   9.724 -0.0447  0.1543  0.0252
65993W        W 8931   0.946  33.522   6.689 -0.2071 -0.1434 -0.0519
65994W        W 8932   2.399  32.988   8.228  0.1329  0.2904  0.2256
65995W        W 8933   1.000  34.108   9.940 -0.0107 -0.1419  0.1244
65996W        W 8934   1.950  32.236   7.728 -0.5075 -0.0658  0.1866
65997W        W 8935   0.541   0.155   9.628 -0.1779 -0.0270  0.0952
65998W        W 8936   3.248  33.087   8.956 -0.0991  0.0744  0.0147
65999W        W 8937  33.786  34.329   7.979  0.3294 -0.0779 -0.2063
66000W        W 8938   3.243  32.841   8.507 -0.1747  0.0231  0.3113
66001W        W 8939   3.757  32.944   7.161 -0.1822  0.0828 -0.1622
66002W        W 8940   2.710  33.334   7.966  0.1102  0.0007  0.3898
66003W        W 8941   1.719  33.356   6.946  0.0870  0.3770 -0.1608
66004W        W 8942   1.685  33.111   7.346  0.0694 -0.1248  0.1259
66005W        W 8943   0.947  32.338   9.951 -0.0654  0.0354  0.2812
66006W        W 8944   1.117  33.749   7.223  0.0393  0.2185  0.3717
66007W        W 8945   1.519  32.777   8.700 -0.2184 -0.0963 -0.1707
66008W        W 8946   3.333  30.804   9.683  0.0670  0.3183  0.2084
66009W        W 8947   2.758  32.908   8.620  0.0359 -0.1524  0.1163
66010W        W 8948   2.725   0.596   7.960 -0.1118  0.1221  0.1430
66011W        W 8949   0.880  33.353  10.717 -0.0221 -0.0391 -0.1727
66012W        W 8950   1.420  33.391   6.507  0.1421  0.2571  0.0472
66013W        W 8951   0.862  28.854   9.607  0.0361 -0.1259  0.1747
66014W        W 8952   2.887  33.441   8.474 -0.0214 -0.0221 -0.0553
66015W        W 8953   1.002  32.127   7.901 -0.0336  0.0334 -0.0740
66016W        W 8954   1.515  31.544   9.114  0.2073 -0.1185 -0.0103
66017W        W 8955   0.862  32.876   6.993 -0.0813  0.2052 -0.0931
66018W        W 8956   0.137  34.493   8.110 -0.2201  0.0632 -0.0380
66019W        W 8957   2.833  32.223   8.052 -0.0129  0.0711 -0.2027
66020W        W 8958   1.760  33.597   8.951  0.2629  0.1452  0.2477
66021W        W 8959   3.569  32.006   9.405  0.3130  0.0762 -0.2558
66022W        W 8960   4.044  32.793   8.380  0.2362  0.0005  0.1624
66023W        W 8961   0.547  32.956   7.921  0.0316  0.1483 -0.0289
66024W        W 8962   0.457  33.054   8.683 -0.1535 -0.0744 -0.2567
66025W        W 8963   2.791  33.895   8.286 -0.0767 -0.0551 -0.3222
66026W        W 8964   1.219   0.210   7.498 -0.0881  0.1294 -0.1974
66027W        W 8965   3.962   1.228  10.089 -0.1865  0.0048 -0.2538
66028W        W 8966   2.362  33.030   9.096  0.3292  0.1228 -0.0649
66029W        W 8967   0.478  33.675   8.789  0.1065 -0.0316 -0.2292
66030W        W 8968   1.384  33.902   8.160 -0.1644 -0.1586 -0.0720
66031W        W 8969   1.006  33.645   9.695  0.0831  0.0148  0.0639
66032W        W 8970   3.009  31.382   9.652  0.3407  0.0219  0.1161
66033W        W 8971   0.519  34.487  10.002  0.0175  0.0962 -0.1623
66034W        W 8972   3.010  32.337   8.598 -0.0544  0.0437 -0.0218
66035W        W 8973   2.441  33.849   9.503 -0.1241  0.0454 -0.1878
66036W        W 8974   2.714  34.601   7.331  0.0175 -0.1835  0.0540
66037W        W 8975   0.173  31.493   9.847  0.1061  0.0280  0.1938
66038W        W 8976   2.890   0.063   7.877  0.1168 -0.0278  0.2011
66039W        W 8977   1.478  32.245   6.910  0.0990  0.2542 -0.1831
66040W        W 8978   1.825  33.938  10.008  0.1709  0.1801 -0.1622
66041W        W 8979   1.714  33.442   9.959 -0.4627  0.1652 -0.2607
66042W        W 8980   0.654  34.619   8.935 -0.2528  0.0021 -0.1604
66043W        W 8981   3.222  34.278   8.014 -0.0458  0.0253  0.1740
66044W        W 8982   2.477  34.630   9.452 -0.0571  0.0014 -0.1943
66045W        W 8983   4.039  33.260   8.113  0.2073 -0.0844 -0.0481
66046W        W 8984   0.880  33.225   9.437  0.1168  0.0818 -0.1494
66047W        W 8985   1.185  31.393   9.472 -0.0454 -0.1067 -0.0338
66048W        W 8986   2.983  34.191   7.156 -0.2353  0.0204  0.0178
66049W        W 8987  33.873  34.542   9.006 -0.0115 -0.0034 -0.2361
66050W        W 8988   1.494  32.617   7.816 -0.0173  0.0519 -0.1937
66051W        W 8989   2.773  33.342   8.958 -0.2904 -0.0155  0.0350
66052W        W 8990  34.624  34.269   7.236 -0.3538  0.2745  0.1768
66053W        W 8991   0.236  33.790   7.325 -0.0817 -0.0329 -0.1507
66054W        W 8992   0.994   0.187   6.585  0.0621 -0.0027  0.0356
66055W        W 8993   2.369  32.486   8.006  0.0696 -0.1591 -0.2448
66056W        W 8994   4.043  33.328   8.654 -0.0906 -0.0032  0.1766
66057W        W 8995   2.082  32.006   9.642 -0.1552 -0.1692 -0.1774
66058W        W 8996   1.471  33.513   9.428 -0.0360  0.0294 -0.0568
66059W        W 8997   1.919  33.135   8.309  0.3046 -0.0649 -0.2500
66060W        W 8998   0.337   0.247   9.154 -0.1621 -0.1638 -0.1294
66061W        W 8999   0.718  32.209   5.887  0.0367  0.2068 -0.0935
66062W        W 9000   3.183  34.537   7.564  0.1294  0.0974 -0.0518
66063W        W 9001   2.565  31.635   8.129 -0.1078 -0.0845  0.1061
66064W        W 9002   2.675  32.632   9.041  0.2114  0.1119 -0.2790
66065W        W 9003   4.055  32.908   9.189 -0.1040 -0.0445  0.0530
66066W        W 9004   0.040  34.252   8.658  0.0095  0.1756 -0.1022
66067W        W 9005   1.953  32.738   7.720  0.2229  0.4459 -0.1548
66068W        W 9006   0.377   0.054   8.535 -0.0595 -0.2250 -0.0302
66069W        W 9007   2.078  32.668   8.760 -0.0763 -0.0159 -0.4302
66070W        W 9008   1.904  31.815   9.172  0.4515 -0.0901  0.4887
66071W        W 9009   2.320  33.643   9.088  0.2307  0.0725  0.4902
66072W        W 9010   1.053  32.497   6.501  0.0812  0.0017 -0.2472
66073W        W 9011   3.307  33.476   9.374 -0.2206  0.2244 -0.3731
66074W        W 9012   2.063  34.573   9.028  0.3133  0.2724 -0.0871
66075W        W 9013   2.369  33.276   8.648  0.1748 -0.1896  0.0450
66076W        W 9014   4.019  32.790   9.669  0.0002 -0.2857  0.2479
66077W        W 9015   1.955  33.164   8.870 -0.0873 -0.0497 -0.2853
66078W        W 9016   2.159  33.418   6.704  0.2886  0.0593 -0.0568
66079W        W 9017   3.683   0.587   6.384 -0.0370  0.0185  0.0825
66080W        W 9018  34.556  32.911   9.525 -0.2288 -0.2292 -0.3668
66081W        W 9019   1.943  33.601   7.867 -0.1165 -0.1951 -0.1812
66082W        W 9020   2.029   0.541   8.807  0.0552  0.1851  0.4083
66083W        W 9021   0.891  33.255   8.830  0.2077  0.1380 -0.0699
66084W        W 9022   1.236  33.053   7.745 -0.2317 -0.2253 -0.1232
66085W        W 9023   2.637  33.841   8.791 -0.1292  0.1171 -0.0402
66086W        W 9024   3.470  32.923   7.659  0.1290 -0.2007 -0.2035
66087W        W 9025   1.408  33.839   8.719 -0.0978 -0.1429  0.1911
66088W        W 9026   1.355  32.934   6.213  0.0463 -0.2368 -0.0328
66089W        W 9027   0.324  33.473   7.789  0.0890 -0.3031 -0.0498
66090W        W 9028   5.065  32.983   9.192 -0.1315 -0.3431  0.0541
66091W        W 9029   2.160   0.741   8.246 -0.0415 -0.0795  0.2386
66092W        W 9030  34.602  33.315   9.121  0.5565  0.1438  0.1235
66093W        W 9031   4.563  32.057   7.970  0.2724  0.0268  0.0981
66094W        W 9032   2.964  33.269   7.116 -0.1439  0.0462 -0.1675
66095W        W 9033   1.757  32.290   8.553 -0.1852 -0.0997  0.0031
66096W        W 9034   0.171  33.435   6.974 -0.2070 -0.0359  0.1625
66097W        W 9035   1.580   0.031   9.180  0.2601 -0.1509 -0.1962
66098W        W 9036   0.763  33.678   7.980 -0.3406  0.1547  0.1939
66099W        W 9037   0.916  32.476   9.497 -0.0719 -0.0702  0.0303
66100W        W 9038  34.620  32.491   8.168  0.1746 -0.0076  0.1479
66101W        W 9039   3.152  33.163   8.087  0.0374  0.1117 -0.1529
66102W        W 9040   0.369  33.027   7.168  0.2187 -0.0102  0.2242
66103W        W 9041   2.171  34.221   9.709 -0.1273  0.0447  0.1435
66104W        W 9042  33.117  32.854   9.136 -0.1120  0.2096  0.1026
66105W        W 9043   3.450  31.995   8.926 -0.1366 -0.0607  0.1253
66106W        W 9044   3.080  34.274   8.639 -0.0642  0.1306 -0.0229
66107W        W 9045  34.628  32.104  10.213 -0.0092  0.1681 -0.1035
66108W        W 9046   3.687  31.534   8.926  0.0623 -0.1002  0.0161
66109W        W 9047   0.956  32.772   8.642  0.0179 -0.2822 -0.1420
66110W        W 9048   3.024  32.825   9.393  0.1297 -0.1172 -0.5671
66111W        W 9049   0.999  33.445   7.619  0.2774  0.2263  0.0984
66112W        W 9050   3.218   0.642   8.272  0.2548  0.5573  0.0936
66113W        W 9051   1.242  32.618   9.076 -0.0648  0.0394  0.1652
66114W        W 9052   1.006  34.195   8.096 -0.2057  0.1273  0.1889
66115W        W 9053   1.270  33.108   9.135 -0.0237 -0.1216  0.1701
66116W        W 9054   2.027   0.282   9.261 -0.0001 -0.2886 -0.0233
66117W        W 9055   0.925  32.655   8.126 -0.0498 -0.3042  0.0064
66118W        W 9056   4.200  33.526   7.701  0.0843 -0.3347  0.1764
66119W        W 9057   5.206   2.147   2.975  0.0854 -0.1095 -0.0619
66120W        W 9058   4.663   1.165   0.653  0.0714  0.3339 -0.0491
66121W        W 9059   6.858   0.396   0.695 -0.1945  0.5344 -0.0880
66122W        W 9060   6.765   2.785   0.613  0.0371  0.2886  0.0628
66123W        W 9061   3.110   0.195   2.269  0.3998 -0.1255 -0.2542
66124W        W 9062   5.398   3.067   1.060 -0.0448  0.0709  0.0207
66125W        W 9063   5.209   0.026   2.166 -0.2854 -0.2426 -0.0943
66126W        W 9064   6.808   2.231   1.663 -0.2940  0.0497  0.1985
66127W        W 9065   7.851   2.685   3.201 -0.1397 -0.1588  0.0553
66128W        W 9066   6.316   3.100  31.294  0.1833  0.2368 -0.1677
66129W        W 9067   5.594  34.635   1.869  0.0867  0.1625 -0.0409
66130W        W 9068   5.110   2.619   3.005 -0.0508 -0.0026 -0.0155
66131W        W 9069   4.550   0.331   0.412  0.2310 -0.1749 -0.0081
66132W        W 9070   5.279   0.221   1.604  0.3212 -0.3332  0.4038
66133W        W 9071   7.258   0.858   1.986  0.1900  0.0411  0.2946
66134W        W 9072   3.679   1.701   2.139  0.3361 -0.0029  0.1909
66135W        W 9073   3.245   0.462   1.662 -0.0078  0.1287  0.2267
66136W        W 9074   4.863   0.217   1.900  0.1938  0.5033 -0.1802
66137W        W 9075   4.699   2.981   0.303 -0.3217 -0.0299 -0.4389
66138W        W 9076   5.005   0.951   2.524 -0.3051 -0.1591  0.3943
66139W        W 9077   5.914   0.397   2.680  0.0090 -0.1128  0.0938
66140W        W 9078   5.288   3.059  31.855 -0.3055 -0.1952  0.2987
66141W        W 9079   4.823   1.413  30.330 -0.1459 -0.0082  0.1844
66142W        W 9080   3.018   1.827   0.452 -0.2707  0.2010  0.3247
66143W        W 9081   3.516   1.322   1.863 -0.3075  0.0915 -0.0726
66144W        W 9082   7.705   0.250   2.854  0.0369 -0.0530  0.0272
66145W        W 9083   7.054   1.347   1.210 -0.0548  0.1400 -0.1238
66146W        W 9084   4.997   3.027   1.707  0.0470 -0.1516  0.1075
66147W        W 9085   4.556   3.053   2.149  0.0093 -0.2147 -0.0666
66148W        W 9086   6.301   1.058   2.986  0.2917 -0.1781 -0.5019
66149W        W 9087   3.937   3.077   1.496 -0.0782  0.1044 -0.1232
66150W        W 9088   3.802   4.393   1.477  0.2385  0.0809  0.1264
66151W        W 9089   3.378   3.606   0.586 -0.2821  0.0003 -0.0177
66152W        W 9090   4.879   2.097   1.941 -0.2475 -0.1000  0.0539
66153W        W 9091   5.511   2.552   2.136  0.2135 -0.0863 -0.2441
66154W        W 9092   5.198   2.359   3.448 -0.2416 -0.2139 -0.1503
66155W        W 9093   3.590   3.212   0.866 -0.0836  0.1168 -0.1860
66156W        W 9094   4.524   2.043   2.289  0.2369 -0.1234  0.1247
66157W        W 9095   5.009   1.852   2.339 -0.0330 -0.1852 -0.2272
66158W        W 9096   5.610   1.701   3.039 -0.0899  0.2100 -0.0549
66159W        W 9097   6.667   1.516   1.494 -0.3236 -0.0436  0.2096
66160W        W 9098   4.142   3.982   0.810 -0.2113  0.1376  0.1495
66161W        W 9099   5.768   2.804   1.378  0.0412 -0.3354  0.0351
66162W        W 9100   6.207   1.100   4.131  0.2560  0.1315  0.3028
66163W        W 9101   3.943   2.118   1.627  0.1145 -0.0461  0.2846
66164W        W 9102   7.445   1.138   2.384 -0.1829  0.0731  0.1999
66165W        W 9103   2.876   3.620   0.297  0.0321 -0.0665 -0.2080
66166W        W 9104   7.054   1.666   0.742  0.2045  0.3896  0.0269
66167W        W 9105   5.761  34.200   0.377 -0.2397 -0.0063  0.2431
66168W        W 9106   5.601   1.546   0.871 -0.1627  0.0996  0.1184
66169W        W 9107   6.545  34.440   1.572 -0.1053 -0.1413 -0.0298
66170W        W 9108   4.167   3.923   2.676  0.1608  0.4202 -0.0699
66171W        W 9109   5.558  34.122   1.910 -0.0468  0.4728  0.0154
66172W        W 9110   7.194   1.800   3.258 -0.0372 -0.1525 -0.0507
66173W        W 9111   7.142   1.492   0.269  0.2107 -0.3611  0.1589
66174W        W 9112   7.206   0.626   2.648 -0.0406 -0.0235 -0.0635
66175W        W 9113   4.794   3.308   3.038  0.0629 -0.1139 -0.1535
66176W        W 9114   3.027   1.472   1.718  0.0134  0.1038  0.6256
66177W        W 9115   6.274   3.669   0.514 -0.0103  0.2052  0.1211
66178W        W 9116   7.314   3.110   1.647 -0.0650 -0.0799  0.1448
66179W        W 9117   5.835   4.185   0.372  0.0324 -0.0982 -0.0196
66180W        W 9118   3.017   2.534   1.728  0.1096  0.1347  0.3391
66181W        W 9119   4.281   3.327   2.910 -0.1633  0.3070  0.1126
66182W        W 9120   4.204   2.241   3.147 -0.1485  0.0193 -0.0593
66183W        W 9121   5.123   0.653  31.791 -0.0714  0.1233 -0.2067
66184W        W 9122   6.468   3.305   4.254 -0.1480 -0.3740 -0.1809
66185W        W 9123   2.888   3.027   2.849 -0.0618 -0.2330  0.0920
66186W        W 9124   7.968  34.015   1.833  0.1117  0.1662 -0.1441
66187W        W 9125   5.617   2.216   0.153  0.0020 -0.1607  0.2068
66188W        W 9126   7.623   0.891   2.902  0.0313 -0.0631 -0.1257
66189W        W 9127   6.207   2.558   1.429  0.2868  0.1666 -0.0728
66190W        W 9128   7.586   0.119   1.956 -0.0340  0.1796  0.1119
66191W        W 9129   6.383   0.051   2.985 -0.2768 -0.3169  0.0268
66192W        W 9130   5.210  34.652  31.439  0.0144 -0.2060 -0.3611
66193W        W 9131   4.198   0.282   1.553 -0.1688 -0.0763  0.2367
66194W        W 9132   5.635   2.399   1.719  0.4945  0.0605 -0.0824
66195W        W 9133   7.750   1.888   0.790 -0.2157 -0.1056 -0.0887
66196W        W 9134   4.420   2.523   2.219 -0.4705  0.3378  0.1835
66197W        W 9135   5.617   0.570   3.539 -0.0449  0.0669 -0.2988
66198W        W 9136   5.876   2.371   3.902 -0.1296  0.1213 -0.3759
66199W        W 9137   5.324   4.179  30.490  0.3323 -0.1447 -0.1513
66200W        W 9138   2.959   2.022   1.866  0.1395 -0.0116 -0.0331
66201W        W 9139   3.398   2.124   2.021 -0.3154 -0.0331  0.0017
66202W        W 9140   3.049   0.813   2.584 -0.0855 -0.3171  0.2633
66203W        W 9141   5.417   1.976   1.014 -0.1318 -0.0317 -0.0542
66204W        W 9142   8.979   0.275   0.598  0.3619  0.0883 -0.1607
66205W        W 9143   4.043   0.468   3.008 -0.3041 -0.2971  0.1224
66206W        W 9144   7.866   0.160   1.436  0.0751 -0.1793  0.1006
66207W        W 9145   4.307   1.670   0.361 -0.1379 -0.0422 -0.1177
66208W        W 9146   6.999   3.723   1.892 -0.0616 -0.0404  0.1652
66209W        W 9147   6.907   0.773   0.409 -0.4045 -0.5361 -0.2274
66210W        W 9148   6.744   2.353   1.182  0.2251 -0.0131  0.0790
66211W        W 9149   3.023   2.449   2.256  0.1658  0.0238 -0.0776
66212W        W 9150   4.688   0.172   1.362  0.1515  0.3507  0.3927
66213W        W 9151   4.375   1.185   2.744 -0.0185  0.1669  0.0366
66214W        W 9152   3.547  34.254   1.492 -0.4568  0.0660  0.0380
66215W        W 9153   6.700   0.814   1.878 -0.2636 -0.3313 -0.3940
66216W        W 9154   3.640   0.087   0.291 -0.0835 -0.4655  0.1627
66217W        W 9155   5.731   0.390   1.712 -0.2111 -0.0671 -0.0242
66218W        W 9156   5.762   2.219   0.744  0.1797  0.1869  0.2189
66219W        W 9157   4.295   2.862   0.008  0.0948 -0.1937  0.4058
66220W        W 9158   8.443   0.380   3.233  0.3001 -0.1811 -0.1625
66221W        W 9159   6.237   4.757  31.198 -0.1192  0.5652 -0.3001
66222W        W 9160   6.033   1.996   4.632 -0.0950  0.3807  0.2004
66223W        W 9161   6.298   3.067   0.646 -0.0329 -0.1291  0.0030
66224W        W 9162   4.225   0.737   3.504 -0.2072 -0.2934 -0.1152
66225W        W 9163   4.362   0.654  31.904 -0.1001 -0.0247  0.3578
66226W        W 9164   3.503   2.539   1.668 -0.2825  0.0910 -0.2667
66227W        W 9165   4.747   2.020   1.478  0.0650 -0.0100 -0.0015
66228W        W 9166   5.163   1.045   1.193  0.2187 -0.0727  0.0763
66229W        W 9167   7.952   3.406   1.968 -0.0681 -0.0146  0.2157
66230W        W 9168   6.341   1.988   1.495 -0.0606  0.0409 -0.2862
66231W        W 9169   4.025   2.398   2.480  0.1884  0.0067  0.0506
66232W        W 9170   7.520  34.630   3.827  0.3160 -0.1159  0.2721
66233W        W 9171   7.323   2.609   2.692  0.0626  0.1390  0.0536
66234W        W 9172   6.403  34.535   1.094 -0.4261 -0.1005 -0.4132
66235W        W 9173   3.516   0.152  31.066  0.0798  0.1515  0.0003
66236W        W 9174   4.557   3.272   1.172 -0.2059  0.0321 -0.1097
66237W        W 9175   5.095   2.622  31.651  0.1746 -0.0327 -0.1421
66238W        W 9176   3.692   2.124   1.221 -0.1214 -0.1779 -0.1225
66239W        W 9177   4.960   2.286   1.075  0.1122  0.0710 -0.3313
66240W        W 9178   6.342   0.651   2.214  0.0909  0.2960  0.3240
66241W        W 9179   1.936   1.632   1.697  0.1966 -0.4031  0.3669
66242W        W 9180   6.032   1.583   1.853  0.0295 -0.5448 -0.2632
66243W        W 9181   5.029   1.272   0.046  0.1695 -0.0073 -0.0757
66244W        W 9182   3.405   3.719   2.618  0.0043  0.2477  0.0894
66245W        W 9183   5.957  33.591  31.782  0.0820 -0.1299 -0.0912
66246W        W 9184   7.850   0.408  30.668 -0.1024 -0.0190  0.2582
66247W        W 9185   6.733   0.911   4.092 -0.0813 -0.0055  0.2978
66248W        W 9186   7.240   2.109   0.794  0.1471 -0.3360 -0.3206
66249W        W 9187   5.617  33.853  31.453  0.1751 -0.1228 -0.1211
66250W        W 9188   5.351   0.685  31.348  0.4371  0.2827  0.0743
66251W        W 9189   4.769   1.357   2.390 -0.2200  0.0428  0.3881
66252W        W 9190   5.124   2.089   0.162  0.0406  0.0523  0.2427
66253W        W 9191   4.807   1.020   2.020  0.0928 -0.1690 -0.0552
66254W        W 9192   5.326   1.233  31.539  0.0345  0.1632  0.0689
66255W        W 9193   7.838   3.632   1.021  0.2489  0.0099 -0.1251
66256W        W 9194   4.455   2.441   2.728  0.0544  0.4401 -0.2521
66257W        W 9195   6.341   2.037   3.332  0.0273 -0.0201  0.0603
66258W        W 9196   5.075   3.992   1.957  0.0030  0.3188  0.2090
66259W        W 9197   5.546   0.132   2.496 -0.0906  0.2314 -0.3294
66260W        W 9198   6.507   1.534   0.590  0.0601 -0.0340 -0.0180
66261W        W 9199   6.615  34.038   1.255 -0.0285  0.2889  0.0549
66262W        W 9200   3.573   4.173   0.005  0.4446 -0.3030 -0.2412
66263W        W 9201   6.519  34.360   2.623  0.1352  0.1884  0.1651
66264W        W 9202   6.861  34.678   2.355 -0.2333 -0.1792  0.1814
66265W        W 9203   5.956   1.342   2.783 -0.2644  0.1405  0.0523
66266W        W 9204   6.337   1.156   1.610  0.1525 -0.0000  0.1870
66267W        W 9205   6.619   1.395   2.061 -0.0437  0.2114  0.1336
66268W        W 9206   5.577   1.321   0.408  0.5475 -0.1896 -0.1132
66269W        W 9207   5.399   0.615   2.689 -0.0751 -0.1807 -0.1341
66270W        W 9208   4.496   2.875   3.085 -0.3690  0.3709 -0.3616
66271W        W 9209   3.655   2.944   1.901  0.1304  0.0024 -0.3208
66272W        W 9210   5.378   2.120   2.146 -0.1866 -0.0605 -0.0218
66273W        W 9211   5.980   1.555   0.111  0.0026  0.0237 -0.1012
66274W        W 9212   6.107  34.485   3.394 -0.1187 -0.0899  0.1681
66275W        W 9213   5.331   0.121   1.071  0.0339 -0.5043 -0.0647
66276W        W 9214   4.959   4.154   0.178 -0.2803  0.0451 -0.0938
66277W        W 9215   5.229   1.810   0.590  0.0141 -0.0159 -0.0080
66278W        W 9216   5.226  33.384   0.265 -0.2182 -0.1112 -0.2045
66279W        W 9217   4.068   2.003   2.132 -0.1061 -0.0220  0.3168
66280W        W 9218   4.890   2.490  30.114  0.2826  0.0055  0.0631
66281W        W 9219   7.251   2.392   1.356  0.1442 -0.0735 -0.2172
66282W        W 9220   4.616   3.760   2.909  0.0814  0.1691  0.1388
66283W        W 9221   6.819  34.160   2.044 -0.0643 -0.2181 -0.1433
66284W        W 9222   3.131   3.301   3.510 -0.0276  0.1629  0.1470
66285W        W 9223   5.456   1.601   1.941 -0.2260 -0.2842 -0.2210
66286W        W 9224   2.155   0.286   1.533 -0.1712  0.0029  0.1775
66287W        W 9225   8.185   0.037   0.996  0.1411 -0.1847  0.1336
66288W        W 9226   7.416   1.645   1.583  0.0835  0.0888 -0.3852
66289W        W 9227   2.967   0.799   1.299 -0.2209 -0.1817  0.1618
66290W        W 9228   3.622   0.586   2.694 -0.5565 -0.0071  0.1255
66291W        W 9229   2.494   2.800   1.533  0.1416 -0.1175  0.1341
66292W        W 9230   5.760   1.362   2.218 -0.0063 -0.0147 -0.1188
66293W        W 9231   6.059   0.830   1.200 -0.4329  0.0667  0.2010
66294W        W 9232   6.100   2.912   1.764 -0.2558 -0.5269 -0.0734
66295W        W 9233   4.347   1.875   3.439  0.1201 -0.0894 -0.1024
66296W        W 9234   3.102   0.373   1.184  0.1841  0.1257 -0.1056
66297W        W 9235   8.464   0.767   2.706  0.1433  0.0871  0.1043
66298W        W 9236   5.109   1.725   1.595  0.0968  0.0881 -0.0147
66299W        W 9237   3.130   3.447   1.063  0.2780  0.0095 -0.3031
66300W        W 9238   5.750   1.810   1.528 -0.1450  0.1348  0.1264
66301W        W 9239   5.449   1.396   1.338  0.3388 -0.0816 -0.1697
66302W        W 9240   4.654   1.684   0.929  0.0214  0.1220  0.2100
66303W        W 9241   5.968   0.723   4.880 -0.0318 -0.0527 -0.5292
66304W        W 9242   7.018   1.572   2.801  0.4049  0.0531  0.2812
66305W        W 9243   4.303   0.760   1.512  0.3686 -0.1185  0.2165
66306W        W 9244   3.728   0.400   1.713  0.0604 -0.4817 -0.1375
66307W        W 9245   5.153   1.190   1.656 -0.2769  0.1917 -0.0875
66308W        W 9246   7.463   1.520   1.033  0.4378 -0.1864  0.0659
66309W        W 9247   6.465  34.524   2.084 -0.3183  0.0772  0.1274
66310W        W 9248   4.418   0.961   2.357 -0.2502 -0.1006  0.1642
66311W        W 9249   5.325  33.526   1.279 -0.4359  0.2008 -0.0408
66312W        W 9250   6.476   3.371  31.695  0.1201 -0.1248  0.1315
66313W        W 9251   6.337   0.687   2.692 -0.0130 -0.1718 -0.1843
66314W        W 9252   4.415   1.541   1.395 -0.0009  0.1338  0.5792
66315W        W 9253   4.072   3.800   2.156 -0.1234 -0.2007 -0.2627
66316W        W 9254   4.982   2.563   1.939 -0.0891  0.2210 -0.1256
66317W        W 9255   5.060  33.978   1.950 -0.2008  0.0414  0.3074
66318W        W 9256   3.472   4.025   1.388 -0.0337 -0.2094 -0.0390
66319W        W 9257   4.425   2.999   0.774  0.2722  0.1902 -0.4590
66320W        W 9258   4.750   2.044   2.729  0.0464  0.1019  0.2407
66321W        W 9259   6.141   1.110  31.216 -0.0433 -0.2124 -0.0596
66322W        W 9260   6.502   3.247   1.100  0.1870 -0.0217  0.2826
66323W        W 9261   6.138   0.642   1.743 -0.0201 -0.0747 -0.1618
66324W        W 9262   8.384   1.193   2.467  0.1698 -0.5316 -0.3310
66325W        W 9263   6.405   2.639   2.513 -0.1005  0.0948  0.3748
66326W        W 9264   6.717  34.011   3.585 -0.0180 -0.1589  0.2676
66327W        W 9265   3.525   1.048   2.882  0.0815  0.0444  0.0918
66328W        W 9266   6.730   2.345   2.158  0.3945 -0.0890 -0.1331
66329W        W 9267   4.756   0.467   3.358  0.2691 -0.0546 -0.2763
66330W        W 9268   7.269   1.697   3.817 -0.2365  0.2841  0.0662
66331W        W 9269   4.111   0.593   2.301  0.2232  0.1549  0.1244
66332W        W 9270   5.561  33.922   1.437 -0.1132  0.0373 -0.3057
66333W        W 9271   5.622  33.073   0.423  0.0089 -0.0998  0.0204
66334W        W 9272   3.868   1.295   2.420  0.1430 -0.5282 -0.0351
66335W        W 9273   5.324   0.988   2.073 -0.2530 -0.0861  0.0289
66336W        W 9274   4.355   1.806   1.796  0.0598 -0.2731  0.1005
66337W        W 9275   6.660   0.304   2.024  0.2077  0.0214 -0.1877
66338W        W 9276   4.034   3.323   1.982  0.1125 -0.0030  0.1486
66339W        W 9277   6.254   2.236   0.981 -0.3939 -0.3243  0.1126
66340W        W 9278   5.715   2.614   0.446 -0.0756 -0.1779 -0.1531
66341W        W 9279   6.553   1.788   1.084 -0.0742 -0.3011 -0.0385
66342W        W 9280   5.085   2.024   4.440 -0.0032 -0.0001  0.1684
66343W        W 9281   5.994   2.660   2.166 -0.1724 -0.0199  0.1772
66344W        W 9282   4.967  34.441   1.147 -0.0536 -0.1202  0.2144
66345W        W 9283   6.587  34.352   3.162  0.1423 -0.1127  0.0787
66346W        W 9284   5.760   0.747   3.103 -0.0218 -0.0110  0.1251
66347W        W 9285   4.422   1.249   3.822 -0.2357  0.3178 -0.2132
66348W        W 9286   4.046   0.947   1.959  0.0499  0.1133 -0.1667
66349W        W 9287   5.359   3.373   2.432  0.0737 -0.0642  0.0098
66350W        W 9288   6.947   2.405   0.236  0.1205 -0.0236  0.0465
66351W        W 9289   8.798   0.935   2.267 -0.0595  0.5135  0.2824
66352W        W 9290   7.415   1.004   1.137  0.0723 -0.1513  0.0921
66353W        W 9291   5.820   1.944  31.795 -0.0123  0.0737 -0.0704
66354W        W 9292   3.920   0.970   1.311 -0.3408  0.1968  0.0958
66355W        W 9293   6.897   0.913   3.612  0.0527  0.0172  0.0558
66356W        W 9294   4.355   0.780   0.527 -0.0502 -0.1769 -0.3993
66357W        W 9295   8.017   0.793   2.512  0.1521  0.2762 -0.1412
66358W        W 9296   5.379   3.968   0.790 -0.0676  0.2893  0.3449
66359W        W 9297   5.836   3.720   2.337 -0.0406 -0.2292 -0.1694
66360W        W 9298   7.002   1.375   2.338 -0.0469  0.0760  0.2040
66361W        W 9299   3.765   1.422   0.904  0.0398  0.2562  0.0592
66362W        W 9300   5.594   1.757   4.403 -0.0674 -0.1273  0.1560
66363W        W 9301   4.620   1.610  31.879  0.1096 -0.2050 -0.0915
66364W        W 9302   3.936   2.826  31.640 -0.2275  0.3226 -0.0922
66365W        W 9303   5.299   1.387   2.412  0.0809  0.0408 -0.1438
66366W        W 9304   7.085   1.075   2.744  0.1583 -0.4293 -0.2199
66367W        W 9305   5.991   0.501   0.350  0.1202  0.2650  0.3241
66368W        W 9306   8.692   0.815   3.184  0.2141 -0.2350  0.3125
66369W        W 9307   4.144   3.522   1.042 -0.0401 -0.2001 -0.0171
66370W        W 9308   6.499  33.945   1.769  0.2280 -0.3917  0.3061
66371W        W 9309   3.442   3.211   2.805  0.0392 -0.0135 -0.0710
66372W        W 9310   2.587   2.188   2.262 -0.0301  0.1298  0.2254
66373W        W 9311   4.570   4.016   2.032  0.1448  0.0907 -0.1632
66374W        W 9312   7.240  34.336   3.515  0.1423  0.1312 -0.1690
66375W        W 9313   6.803   0.091   1.283 -0.4418  0.0999  0.0211
66376W        W 9314   6.199   0.133   1.794  0.1197 -0.1549  0.3618
66377W        W 9315   8.350   1.728   3.074  0.1574 -0.0868 -0.1121
66378W        W 9316   5.994   2.051   1.976 -0.0272  0.0536 -0.2134
66379W        W 9317   4.381   1.310   1.962  0.1649  0.1012 -0.1944
66380W        W 9318   5.569   2.942   1.833  0.0249 -0.0734  0.1915
66381W        W 9319   7.889   1.807   1.750 -0.2012  0.2109  0.2696
66382W        W 9320   3.782   2.360  31.564  0.1972 -0.2776  0.1142
66383W        W 9321   2.283   1.309   1.874  0.0396 -0.0331 -0.2839
66384W        W 9322   4.704   1.518   3.481  0.1121  0.3586 -0.1440
66385W        W 9323   4.873   1.523   1.963  0.2992  0.0537 -0.3608
66386W        W 9324   5.611   0.528   1.156 -0.1266 -0.1309 -0.1551
66387W        W 9325   5.779   3.991  31.730  0.1401 -0.1031 -0.0158
66388W        W 9326   3.996   2.231   4.148  0.0734 -0.1804 -0.1994
66389W        W 9327   2.785   1.108   2.145  0.1077 -0.0361 -0.2767
66390W        W 9328   4.601   5.027   1.878 -0.0510  0.1491 -0.4149
66391W        W 9329   6.484   2.739   0.991 -0.1324  0.1779 -0.1562
66392W        W 9330   4.835   1.598   0.383  0.2801 -0.1178 -0.1070
66393W        W 9331   6.155   3.333   1.485 -0.0242 -0.0879  0.2333
66394W        W 9332   6.007  34.646  31.660  0.3497  0.0016 -0.4664
66395W        W 9333   4.363   2.617   0.465  0.1358 -0.0360 -0.0789
66396W        W 9334   2.219   3.689   0.993  0.2171  0.0211 -0.1379
66397W        W 9335   5.840   3.403   1.940  0.1309  0.1825  0.3951
66398W        W 9336   3.604   2.763   2.745  0.1272 -0.0305 -0.1533
66399W        W 9337   7.207   3.133   3.349  0.1622  0.2108 -0.3812
66400W        W 9338   7.076  33.533   0.343  0.0387  0.1027  0.0048
66401W        W 9339   9.226   1.443   1.474 -0.0348  0.0341 -0.0031
66402W        W 9340   7.802   0.053   2.376  0.4213 -0.1318  0.3186
66403W        W 9341   6.529   2.792   2.004 -0.1257  0.0362 -0.3473
66404W        W 9342   5.826   0.919   2.504 -0.1083  0.0628 -0.1487
66405W        W 9343   5.002   0.350   0.380 -0.1706  0.2131  0.2846
66406W        W 9344   4.606   0.570   2.550 -0.0012  0.0369  0.0037
66407W        W 9345   8.371  34.480   4.027  0.0240  0.0122 -0.0983
66408W        W 9346   4.919   1.468   1.239  0.1542  0.0980  0.2380
66409W        W 9347   5.849   3.706   1.538 -0.2148  0.0237  0.3203
66410W        W 9348   4.685   0.664   1.219  0.1363 -0.4301 -0.0229
66411W        W 9349   5.806   2.274   1.264  0.0419 -0.0493 -0.0713
66412W        W 9350   7.079   0.476   2.185  0.3035  0.3199  0.0182
66413W        W 9351   5.495   1.603   0.039  0.1199 -0.0346 -0.1820
66414W        W 9352   5.733   1.831   0.466 -0.0344  0.0209 -0.3090
66415W        W 9353   3.630   3.625   1.132  0.4509  0.0413 -0.1844
66416W        W 9354   4.707   4.012   1.555  0.1014 -0.1551 -0.0497
66417W        W 9355   4.430   2.337   1.773 -0.2728  0.1781 -0.1614
66418W        W 9356   4.287   2.000   1.251  0.0633  0.0921 -0.0821
66419W        W 9357   8.524   0.392   0.771 -0.2245 -0.1695  0.0989
66420W        W 9358   4.515   0.780   3.003 -0.0566 -0.3795 -0.0558
66421W        W 9359   7.563  34.450   2.768  0.0791  0.0986  0.0751
66422W        W 9360   4.230   1.462   0.852 -0.0557 -0.3894  0.3499
66423W        W 9361   5.818   0.909   2.011  0.0651  0.0686  0.2598
66424W        W 9362   5.663   1.243   3.287 -0.0486  0.0690 -0.1583
66425W        W 9363   3.211   0.420   2.952  0.0704 -0.2009  0.0729
66426W        W 9364   7.028   1.255   1.700 -0.2026 -0.0451 -0.2072
66427W        W 9365   7.651   2.281   2.605 -0.1121  0.4248  0.0821
66428W        W 9366   4.840   2.081  31.666 -0.1864 -0.2042 -0.0832
66429W        W 9367   6.866   2.149   3.325 -0.0032  0.1077  0.1088
66430W        W 9368   3.785  33.800   0.229 -0.2095 -0.0214  0.1845
66431W        W 9369   5.981  34.275   1.240  0.0731  0.2358  0.2232
66432W        W 9370   3.355   1.906   2.949 -0.0986 -0.2721  0.1239
66433W        W 9371   4.815   1.196   2.909  0.0210  0.0950  0.1472
66434W        W 9372   6.379   2.945   2.899 -0.0540 -0.0946 -0.0176
66435W        W 9373   2.265   0.329   0.942  0.0252 -0.1261  0.1009
66436W        W 9374   9.481   2.235  30.631  0.0212  0.0962 -0.0064
66437W        W 9375   7.581   0.531   2.324  0.2039 -0.1741 -0.0278
66438W        W 9376   4.197   3.370  31.122 -0.0374 -0.1770  0.0224
66439W        W 9377   7.885   1.271   2.605  0.4468 -0.0112  0.2386
66440W        W 9378   6.622   4.253   1.243  0.0721 -0.4785 -0.0959
66441W        W 9379   3.330   1.455   1.241 -0.1211  0.1680 -0.1683
66442W        W 9380   6.739   3.463   2.368 -0.2557  0.3798  0.0040
66443W        W 9381   7.282   2.100   1.764 -0.1701  0.0208 -0.1482
66444W        W 9382   5.733  33.430   1.572 -0.1282  0.1484  0.1378
66445W        W 9383   5.076   0.671   1.759  0.1986  0.3151  0.1438
66446W        W 9384   4.221   2.839   1.881 -0.1585  0.3740 -0.1582
66447W        W 9385   8.313   0.007   2.288  0.1281 -0.0135  0.0366
66448W        W 9386   7.334   0.125   2.514  0.2471  0.1432 -0.3621
66449W        W 9387   6.400   2.643  31.716  0.2368  0.0218 -0.0693
66450W        W 9388   7.738  34.323   3.277  0.0033  0.0001  0.0597
66451W        W 9389   5.506   1.795   2.599 -0.1767 -0.1585  0.3082
66452W        W 9390   2.833   2.406   3.521  0.0229 -0.0344  0.1061
66453W        W 9391   5.888   0.624  31.123 -0.3424 -0.0469  0.0258
66454W        W 9392   6.023   1.024   3.495  0.0331  0.0136 -0.0990
66455W        W 9393   5.973   2.643   0.965  0.4602  0.2874 -0.3565
66456W        W 9394   4.189   3.599   1.529 -0.1839 -0.3019  0.1724
66457W        W 9395   5.273   2.334   0.595  0.1090 -0.0758 -0.1140
66458W        W 9396   5.572   0.947   1.534 -0.0431 -0.1852  0.1271
66459W        W 9397   6.912   3.374   1.421  0.1819 -0.0752  0.0523
66460W        W 9398   4.668   1.116   1.540 -0.3587 -0.2730  0.3404
66461W        W 9399   7.022  34.270   1.540 -0.2167  0.0126 -0.0283
66462W        W 9400   7.314   0.150   1.493  0.1038  0.1667 -0.0673
66463W        W 9401   6.062  34.262   1.899 -0.1414 -0.0664  0.0789
66464W        W 9402   4.330   0.984   1.012  0.4753  0.3936 -0.1957
66465W        W 9403   4.592   3.323   1.737  0.0162  0.2474  0.0143
66466W        W 9404   4.078   2.495   1.297 -0.1307 -0.3210 -0.0272
66467W        W 9405   6.092  34.126   2.888  0.0050 -0.0461 -0.2031
66468W        W 9406   4.736   2.407   3.183 -0.0285  0.0093 -0.4025
66469W        W 9407   3.284   1.919   0.930  0.1420 -0.1223 -0.1282
66470W        W 9408   6.115   0.330   1.266 -0.3040 -0.0375 -0.0324
66471W        W 9409   7.331   3.904   0.137  0.1889  0.0458  0.1526
66472W        W 9410   5.462   0.517   2.090  0.0582  0.1889 -0.1265
66473W        W 9411   3.418   0.020   1.894  0.0006 -0.1604 -0.2074
66474W        W 9412   6.371   2.879   0.167 -0.0911  0.0559 -0.2282
66475W        W 9413   6.077   3.701   1.135 -0.0364 -0.1647 -0.0354
66476W        W 9414   4.641  34.046   0.977  0.0868  0.0112 -0.0122
66477W        W 9415   7.349   1.789   4.981 -0.1354  0.0560 -0.1170
66478W        W 9416   4.286   1.667  31.366  0.2624  0.2302 -0.1442
66479W        W 9417   6.709   0.803   3.103 -0.1476 -0.0412 -0.0905
66480W        W 9418   4.802  34.413   2.140  0.0982  0.1334  0.2494
66481W        W 9419   3.521   0.623  31.309 -0.2735 -0.2156 -0.3209
66482W        W 9420   6.093   1.543   1.264  0.1722 -0.0731 -0.3786
66483W        W 9421   5.489   3.710  31.413 -0.0295 -0.2889  0.2587
66484W        W 9422   7.140   2.591   1.794  0.0088 -0.1001  0.2468
66485W        W 9423   5.430   1.095   2.807 -0.1154  0.4483  0.1770
66486W        W 9424   5.164   1.392   3.284 -0.0271 -0.0250  0.1146
66487W        W 9425   3.031   0.207   3.669  0.0827 -0.1008  0.1027
66488W        W 9426   6.509   3.007   1.483  0.1280  0.0015 -0.4308
66489W        W 9427   6.239   1.650   2.372 -0.0653  0.1097 -0.1654
66490W        W 9428   7.203   2.996   0.548 -0.0779  0.0683 -0.0951
66491W        W 9429   6.737   0.937   2.396  0.0268  0.1102 -0.2335
66492W        W 9430   6.509   2.302   0.013  0.0368 -0.1671  0.1346
66493W        W 9431   4.047  34.673   3.052 -0.2070 -0.1275 -0.2281
66494W        W 9432   4.377   1.222   3.324 -0.2045  0.0486 -0.2107
66495W        W 9433   7.890   2.698   2.681  0.1725 -0.3881 -0.2477
66496W        W 9434   5.006   0.536   2.288  0.0683  0.1196 -0.0994
66497W        W 9435   6.258  33.292   0.441  0.0776  0.1436  0.0016
66498W        W 9436   5.558   3.483  31.913  0.0464 -0.2257 -0.1436
66499W        W 9437   4.445   2.569   0.983  0.2567  0.0833  0.3126
66500W        W 9438   6.004   1.249   0.724  0.0244 -0.0980 -0.1239
66501W        W 9439   5.926   0.457   2.220 -0.1023  0.1532 -0.1008
66502W        W 9440   8.036   3.373   1.496 -0.0481 -0.0827 -0.1464
66503W        W 9441   6.874   2.603   2.838  0.1463  0.0109 -0.0266
66504W        W 9442   6.099   1.769   0.816 -0.3069 -0.0061 -0.1466
66505W        W 9443   7.852   1.411  31.644  0.0881 -0.0904 -0.2222
66506W        W 9444   6.526   2.223   2.836 -0.1704  0.0891 -0.2467
66507W        W 9445   6.484   3.431   2.782 -0.1292 -0.1724  0.1041
66508W        W 9446   5.352   3.908   2.341 -0.2227  0.0213  0.1256
66509W        W 9447   6.815   1.894   2.445  0.2520  0.0980 -0.1486
66510W        W 9448   5.289  34.002   1.023 -0.3106 -0.0611 -0.0397
66511W        W 9449   5.122   0.519   1.258 -0.3511  0.1810 -0.0607
66512W        W 9450   5.235   2.714   0.207 -0.1475 -0.0462 -0.1314
66513W        W 9451   8.151   0.338   2.617  0.2552  0.3590 -0.1012
66514W        W 9452   3.900   0.479   1.164 -0.0080 -0.0266  0.1578
66515W        W 9453   5.929  34.031   0.776  0.1288  0.2835 -0.1368
66516W        W 9454   4.082   2.691   2.920  0.1144 -0.3148 -0.3437
66517W        W 9455   5.746   2.241   2.572 -0.1864 -0.0380 -0.1885
66518W        W 9456   6.063   2.473   5.256  0.0143  0.0594 -0.0606
66519W        W 9457   4.993   0.152   4.693 -0.2666 -0.3967 -0.2379
66520W        W 9458   6.951   0.304   3.023  0.3297  0.0179 -0.0736
66521W        W 9459   7.835   1.308   3.653  0.1997  0.3599 -0.0449
66522W        W 9460   3.479   0.177   3.909  0.5822 -0.0778 -0.2871
66523W        W 9461   6.068   3.050   4.529 -0.0880  0.1357 -0.1070
66524W        W 9462   4.127   0.961   7.172  0.1813  0.2000  0.0186
66525W        W 9463   5.702   2.135   5.844 -0.1034  0.2350  0.1712
66526W        W 9464   7.156   0.724   7.045  0.0311  0.2303  0.0751
66527W        W 9465   4.309   1.549   2.421 -0.0344  0.0964 -0.0065
66528W        W 9466   5.359   0.224   7.466 -0.2146 -0.2545 -0.0369
66529W        W 9467   5.770   3.613   5.974  0.0134  0.0474 -0.3823
66530W        W 9468   5.202   0.381   5.508 -0.1586  0.0795 -0.3623
66531W        W 9469   3.982   0.908   4.924 -0.5682 -0.1874 -0.0073
66532W        W 9470   5.578   1.341   6.513  0.3532  0.0863  0.1456
66533W        W 9471   3.365   2.416   3.251 -0.1734 -0.2089  0.0279
66534W        W 9472   4.516   0.521   6.507 -0.0081 -0.1675 -0.1025
66535W        W 9473   5.829   1.446   4.102  0.0147 -0.0504  0.2800
66536W        W 9474   5.802   4.152   5.571  0.2022  0.1411  0.2991
66537W        W 9475   4.468  34.642   4.932  0.1078 -0.1848 -0.0503
66538W        W 9476   5.909  34.425   6.889 -0.1127  0.0270  0.1222
66539W        W 9477   6.548   1.450   5.289 -0.1871 -0.0463  0.1962
66540W        W 9478   3.785   1.775   2.679  0.1006 -0.1292  0.0207
66541W        W 9479   3.899   1.430   4.062  0.0938  0.2478 -0.2964
66542W        W 9480   5.585   0.677   7.014  0.0734  0.2242  0.2210
66543W        W 9481   6.689   0.075   4.834  0.0729 -0.2099 -0.1189
66544W        W 9482   6.393   0.731   6.023  0.0632 -0.2182  0.1136
66545W        W 9483   5.679   1.074   5.108  0.0671  0.1098  0.1566
66546W        W 9484   6.257   1.497   4.926 -0.0440  0.2703 -0.0157
66547W        W 9485   6.332   0.920   7.402  0.0487 -0.1458  0.5121
66548W        W 9486   6.257   1.652   5.765 -0.0518 -0.2600  0.1457
66549W        W 9487   2.455   2.601   5.726  0.0868 -0.0659 -0.0875
66550W        W 9488   5.178   2.311   5.592  0.0231 -0.1006 -0.1049
66551W        W 9489   8.281   2.596   6.623  0.0705 -0.3262 -0.0572
66552W        W 9490   5.641   2.683   6.633  0.0675  0.2832 -0.0296
66553W        W 9491   4.470   3.443   6.476  0.2549  0.1246  0.0178
66554W        W 9492   3.174   2.769   3.667  0.1029  0.3651 -0.2256
66555W        W 9493   5.832   1.063   6.808 -0.0529 -0.1253  0.0161
66556W        W 9494   4.218   3.874   6.259 -0.2265  0.0462 -0.2219
66557W        W 9495   5.548   2.421   5.232  0.2044 -0.0517 -0.0761
66558W        W 9496   6.150   0.009   5.455 -0.0797  0.3214 -0.0370
66559W        W 9497   6.220   1.553   4.454 -0.0376  0.0864 -0.2031
66560W        W 9498   7.544   1.647   5.769  0.2189 -0.1607 -0.0809
66561W        W 9499   5.186   1.673   8.008 -0.2019  0.2663 -0.1290
66562W        W 9500   3.902   2.616   5.624  0.3106 -0.0451  0.2265
66563W        W 9501   7.058   1.730   7.102  0.0381  0.0289 -0.1338
66564W        W 9502   4.041   2.708   3.886  0.0097  0.2903  0.3742
66565W        W 9503   7.373   0.016   3.113  0.2153 -0.0093  0.0469
66566W        W 9504   5.236   0.711   3.237 -0.1641 -0.0935  0.0064
66567W        W 9505   6.520   1.857   1.989 -0.1837  0.0651  0.0221
66568W        W 9506   7.064   0.009   7.550 -0.1427  0.1169 -0.0626
66569W        W 9507   5.346   2.625   3.887  0.2623 -0.2978  0.2182
66570W        W 9508   6.252   1.035   5.230  0.0268 -0.0241 -0.1968
66571W        W 9509   8.328   1.552   7.209 -0.0268  0.1243  0.0418
66572W        W 9510   5.824   0.432   4.455 -0.0995  0.5821 -0.2570
66573W        W 9511   6.268   1.023   6.595  0.2013  0.1783 -0.0636
66574W        W 9512   4.163   2.931   6.692  0.0206  0.1729  0.1255
66575W        W 9513   4.266   0.098   5.926  0.0251 -0.0939 -0.0763
66576W        W 9514   7.382   2.339   3.139 -0.1298 -0.3698 -0.0782
66577W        W 9515   6.940   2.929   5.574  0.0584 -0.1712  0.0690
66578W        W 9516   6.626   1.745   2.978  0.1057 -0.3756 -0.1237
66579W        W 9517   5.277   1.072   4.296 -0.3243  0.3064 -0.0174
66580W        W 9518   4.595   2.004   7.145  0.0634  0.0880 -0.1883
66581W        W 9519   5.134   0.856   5.262 -0.1838 -0.1050  0.0619
66582W        W 9520   4.841   0.973   3.357 -0.0393 -0.0357  0.1408
66583W        W 9521   8.815   1.598   7.331 -0.0938  0.1081  0.0966
66584W        W 9522   3.474   2.817   7.589 -0.2243 -0.1716 -0.5460
66585W        W 9523   8.091   1.050   4.255 -0.1687  0.2067  0.3613
66586W        W 9524   6.432   0.610   5.543  0.0423  0.0130  0.2019
66587W        W 9525   7.485   2.308   6.624 -0.2069 -0.0918  0.1626
66588W        W 9526   7.209   1.326   4.821  0.1796  0.3174 -0.0007
66589W        W 9527   6.632  33.969   5.913  0.1987  0.1106 -0.1025
66590W        W 9528   6.260   0.200   5.955 -0.2787 -0.2865  0.0431
66591W        W 9529   4.331   1.405   4.289 -0.0480  0.1551  0.2931
66592W        W 9530   5.330   1.555   3.847  0.2288  0.0664  0.1440
66593W        W 9531   7.090   2.493   6.235  0.3573 -0.6220  0.2738
66594W        W 9532   7.498   0.981   3.848  0.3586  0.0073 -0.1018
66595W        W 9533   4.555   3.521   5.966  0.0370 -0.3473  0.1305
66596W        W 9534   5.047  34.624   5.326 -0.2567 -0.1824 -0.1756
66597W        W 9535   7.076   2.663   6.717  0.0510 -0.0367 -0.0201
66598W        W 9536   3.793   3.146   4.565  0.1198  0.1115 -0.1556
66599W        W 9537   3.944   1.793   5.229  0.1229  0.0847  0.1684
66600W        W 9538   4.232   2.639   3.404  0.0546 -0.1335 -0.2164
66601W        W 9539   3.998   0.198   6.481  0.1221  0.2151  0.3822
66602W        W 9540   5.907   1.426   5.979  0.0743  0.1860  0.0708
66603W        W 9541   6.522  33.606   5.543  0.0967  0.0623  0.1896
66604W        W 9542   5.312   0.275   6.941  0.0485  0.2739 -0.1871
66605W        W 9543   6.773  34.670   5.386  0.1300  0.2204  0.2498
66606W        W 9544   4.422   2.463   4.114  0.1258  0.2718  0.2407
66607W        W 9545   6.833   2.333   5.094  0.1822  0.0079  0.2742
66608W        W 9546   8.468   0.714   4.107  0.2919 -0.0918  0.0504
66609W        W 9547   6.279   2.708   3.903  0.0564 -0.0580 -0.0843
66610W        W 9548   3.911   0.457   5.733 -0.0494 -0.1375 -0.4035
66611W        W 9549   4.591   0.781   3.825  0.1487  0.0305 -0.2342
66612W        W 9550   5.552  33.891   6.671  0.2510  0.4020 -0.2938
66613W        W 9551   3.097   0.789   4.525 -0.1864 -0.2142  0.3176
66614W        W 9552   8.927   1.043   7.019 -0.1026  0.0283  0.0788
66615W        W 9553   2.673   0.161   5.217  0.1720  0.0093  0.2774
66616W        W 9554   9.465   0.685   4.375  0.4206 -0.0526 -0.0368
66617W        W 9555   4.753   0.174   5.632 -0.1198  0.0339 -0.0510
66618W        W 9556   3.732   1.844   3.808 -0.0161 -0.3009  0.2862
66619W        W 9557   6.963   0.860   7.491  0.0435 -0.0326  0.2240
66620W        W 9558   5.639   3.735   4.147 -0.0506 -0.1754  0.3374
66621W        W 9559   7.076   3.332   6.411  0.4470 -0.0179  0.0659
66622W        W 9560   5.950   2.488   6.284  0.2156 -0.0232 -0.1065
66623W        W 9561   4.985   1.189   6.140 -0.1432 -0.0213 -0.1382
66624W        W 9562   4.652   1.052   5.125  0.2260  0.0767  0.0116
66625W        W 9563   4.351   2.821   5.323  0.2309 -0.1306 -0.1039
66626W        W 9564   5.383   2.868   2.652  0.0407  0.0036 -0.1564
66627W        W 9565   5.648   1.766   6.207 -0.2422 -0.1168  0.1977
66628W        W 9566   6.789   3.081   6.074 -0.1499  0.0328  0.2894
66629W        W 9567   6.217   1.057   4.618 -0.1459  0.1686  0.3836
66630W        W 9568   4.782   2.942   5.821  0.0166 -0.0936  0.0453
66631W        W 9569   6.087  34.695   7.635 -0.1470 -0.0792 -0.3013
66632W        W 9570   7.786   2.742   5.459  0.0643  0.1857  0.1123
66633W        W 9571   7.124   0.552   5.499 -0.0579  0.0187  0.0227
66634W        W 9572   4.026   0.891   2.727  0.0965 -0.2957 -0.0267
66635W        W 9573   6.503   2.534   5.543 -0.1753 -0.4147 -0.1787
66636W        W 9574   4.574   1.992   4.329 -0.0114  0.2120 -0.2939
66637W        W 9575   4.637   0.443   4.508  0.1754  0.2262 -0.3663
66638W        W 9576   4.618   2.240   3.646  0.0072  0.2071  0.1800
66639W        W 9577   7.104  34.576   4.639  0.0338  0.1912 -0.0035
66640W        W 9578   3.508   1.552   6.454  0.2725 -0.3348  0.1433
66641W        W 9579   6.401   1.322   7.690 -0.2183 -0.2919 -0.1099
66642W        W 9580   3.927   1.025   3.240 -0.2617  0.0578  0.1422
66643W        W 9581   3.949   2.828   6.115 -0.1784 -0.1052 -0.0964
66644W        W 9582   7.144   0.113   4.101  0.2358  0.1793 -0.3677
66645W        W 9583   7.750  34.349   4.208 -0.0192  0.2175  0.3507
66646W        W 9584   5.872   0.482   7.375 -0.1426 -0.1530 -0.0954
66647W        W 9585   4.986   1.214   3.790  0.1205 -0.1587 -0.2415
66648W        W 9586   8.074   0.637   3.040  0.0901 -0.2480  0.2612
66649W        W 9587   6.324  34.218   4.109 -0.0288  0.0516 -0.0116
66650W        W 9588   3.973   2.963   7.848  0.2152  0.1330 -0.3964
66651W        W 9589   6.441   1.965   5.084  0.1756  0.0988  0.1128
66652W        W 9590   5.795   1.353   4.644 -0.0419  0.2492 -0.1701
66653W        W 9591   6.366   0.601   4.208  0.1549  0.0291  0.1349
66654W        W 9592   7.668   1.742   4.480 -0.2770 -0.0198  0.2968
66655W        W 9593   5.487   2.333   6.300 -0.2077  0.2467 -0.0358
66656W        W 9594   6.374   1.674   7.318 -0.1933  0.0733 -0.2227
66657W        W 9595   7.180   1.217   5.719  0.0908  0.0559  0.0741
66658W        W 9596   5.948   0.634   5.797  0.0534 -0.0486 -0.0123
66659W        W 9597   3.916   1.769   4.427  0.3295  0.2126 -0.1531
66660W        W 9598   6.584  34.448   5.764 -0.1167  0.1053  0.1026
66661W        W 9599   3.021   2.754   5.866 -0.2704  0.0799  0.0398
66662W        W 9600   6.118   0.583   6.929 -0.0707  0.0664  0.2692
66663W        W 9601   6.182   0.498   6.423 -0.1251 -0.1404  0.0628
66664W        W 9602   5.105   0.677   7.276  0.0551  0.1106  0.1450
66665W        W 9603   8.033   0.646   8.870  0.2399 -0.0527 -0.3181
66666W        W 9604   7.660   0.943   3.395 -0.0027  0.1222  0.1170
66667W        W 9605   7.037   1.735   5.772 -0.0362  0.0120 -0.4045
66668W        W 9606   5.563   1.133   3.764 -0.0449  0.1369  0.1417
66669W        W 9607   5.853   0.986   6.200 -0.2995  0.1349  0.2443
66670W        W 9608   4.487   1.526   6.906  0.0199  0.0309 -0.2483
66671W        W 9609   4.962   2.857   5.051 -0.1126 -0.0845 -0.3187
66672W        W 9610   7.451   2.148   7.973  0.0083 -0.0469  0.0035
66673W        W 9611   7.366   2.067   5.888  0.0458 -0.1622  0.0158
66674W        W 9612   6.014   0.877   7.853  0.0789 -0.3261  0.0811
66675W        W 9613   5.951  34.016   4.346 -0.1835  0.0863 -0.0167
66676W        W 9614   4.710   3.856   4.015 -0.0723 -0.0946  0.0422
66677W        W 9615   6.580   1.762   4.181 -0.0540  0.1559  0.0223
66678W        W 9616   6.195  34.685   6.616  0.5423 -0.0613 -0.0217
66679W        W 9617   5.584   3.657   5.512 -0.3295 -0.2108 -0.5681
66680W        W 9618   5.080   1.641   2.820 -0.5778 -0.0162  0.3844
66681W        W 9619   5.149   1.980   7.156 -0.4242  0.0744 -0.2762
66682W        W 9620   4.314   1.763   3.933 -0.1147 -0.1319  0.2660
66683W        W 9621   6.720  34.638   7.055  0.1379  0.0957  0.2197
66684W        W 9622   3.115   3.260   6.115  0.3429  0.0301  0.1254
66685W        W 9623   4.023   1.508   3.039  0.2899  0.0906  0.2027
66686W        W 9624   3.461   1.467   3.713 -0.0847  0.1164  0.0313
66687W        W 9625   6.327  34.141   4.698  0.1004  0.2328  0.1398
66688W        W 9626   7.912   1.404   3.079  0.0270  0.2461  0.2483
66689W        W 9627   3.827   1.350   7.026 -0.0200  0.0143  0.1248
66690W        W 9628   6.920   0.339   7.222  0.3213 -0.0545 -0.0485
66691W        W 9629   4.823   2.529   6.191  0.1442  0.2962 -0.1527
66692W        W 9630   5.183   0.968   6.870 -0.0454  0.2312 -0.2895
66693W        W 9631   7.172   0.265   3.608  0.0491  0.0713 -0.0472
66694W        W 9632   5.886   2.107   6.588 -0.2731 -0.0486  0.1855
66695W        W 9633   3.632   1.899   6.984 -0.0084  0.1305 -0.1568
66696W        W 9634   3.549   1.496   3.243 -0.0491 -0.2309  0.1806
66697W        W 9635   7.081   0.952   5.216  0.2617 -0.2195  0.1316
66698W        W 9636   4.781   0.462   5.221  0.2421  0.2431 -0.0952
66699W        W 9637   4.566   2.525   4.972 -0.1626  0.2018 -0.0813
66700W        W 9638   6.194   2.918   6.393 -0.0322  0.0038  0.0659
66701W        W 9639   5.043   1.220   5.614  0.3982  0.1615 -0.0689
66702W        W 9640   5.429   1.956   5.281  0.3786  0.2094  0.1517
66703W        W 9641   5.347   0.265   8.070  0.1495  0.0035  0.1115
66704W        W 9642   6.177   0.118   7.140  0.2659  0.0509 -0.1118
66705W        W 9643   6.920   1.137   6.190  0.3530  0.2367  0.0867
66706W        W 9644   4.537  34.467   5.410 -0.4759  0.2047 -0.1115
66707W        W 9645   5.617   0.480   6.318 -0.0298 -0.2948  0.1288
66708W        W 9646   5.505   2.350   6.954 -0.1651 -0.2448  0.1192
66709W        W 9647   5.386   0.962   6.331 -0.2375  0.2945  0.2011
66710W        W 9648   5.223   2.851   6.440  0.3167  0.1194  0.4577
66711W        W 9649   5.795  33.493   5.500  0.0732 -0.0044 -0.1068
66712W        W 9650   8.030   3.586   6.052  0.0843  0.0968 -0.0455
66713W        W 9651   7.037   1.261   6.880  0.0158  0.0511 -0.4411
66714W        W 9652   5.052   0.601   4.301 -0.0469 -0.3843  0.0422
66715W        W 9653   4.614   1.513   5.850 -0.1038 -0.2635  0.1465
66716W        W 9654   5.000   1.954   3.769 -0.1551  0.2099 -0.2028
66717W        W 9655   5.681  33.766   5.002 -0.1413 -0.0181  0.2011
66718W        W 9656   5.851   2.628   5.786 -0.1679  0.3014 -0.0131
66719W        W 9657   4.121   2.229   3.686 -0.0051  0.3284 -0.2462
66720W        W 9658   4.236   2.309   7.466 -0.2547 -0.0281 -0.0453
66721W        W 9659   8.174  34.164   4.415 -0.0260  0.2331 -0.1668
66722W        W 9660   5.820   1.574   3.621  0.2732 -0.1474 -0.2646
66723W        W 9661   6.840   0.498   4.385  0.0771  0.2024 -0.0244
66724W        W 9662   7.649   0.182   7.507  0.2084  0.0513  0.0595
66725W        W 9663   5.767   0.916   4.382 -0.0855  0.3607 -0.1877
66726W        W 9664   6.518  34.280   7.919  0.2986  0.1207  0.0225
66727W        W 9665   4.122   0.803   6.262  0.1150 -0.0457 -0.1223
66728W        W 9666   7.206   1.087   4.338 -0.4879 -0.1637 -0.0405
66729W        W 9667   2.933   0.509   5.877  0.0039 -0.1030 -0.1380
66730W        W 9668   7.228   2.637   7.706 -0.0917  0.0484  0.2914
66731W        W 9669   4.430   3.279   6.947 -0.0524  0.3867 -0.2230
66732W        W 9670   5.481   0.745   5.913  0.2585  0.0904  0.1789
66733W        W 9671   5.645  34.091   6.071 -0.0174 -0.0555  0.0256
66734W        W 9672   6.667   1.309   5.796  0.0118  0.3784 -0.1336
66735W        W 9673   7.359   0.474   4.500 -0.1351  0.1014  0.4135
66736W        W 9674   5.890   0.783   3.873 -0.2419 -0.0927  0.0434
66737W        W 9675   5.321   3.192   6.072 -0.1420  0.4813  0.1098
66738W        W 9676   7.074   0.836   4.708 -0.0196  0.1130 -0.0908
66739W        W 9677   5.595  34.660   5.301  0.0732 -0.0636 -0.0351
66740W        W 9678   4.921   0.778   4.787  0.0386 -0.0131 -0.0088
66741W        W 9679   5.137   1.190   7.336 -0.0869 -0.3151  0.1299
66742W        W 9680   6.757   1.139   4.914  0.0366 -0.0684  0.4439
66743W        W 9681   6.918  34.140   5.430  0.1096 -0.1713  0.1320
66744W        W 9682   6.047   1.458   6.543 -0.4196 -0.2411 -0.0581
66745W        W 9683   7.427   1.500   6.632 -0.1839 -0.2383  0.1955
66746W        W 9684   5.784   0.223   6.831  0.1099 -0.1963  0.2029
66747W        W 9685   3.795  34.606   6.885  0.1840  0.3270  0.1744
66748W        W 9686   6.723   1.652   6.207  0.1039 -0.2057 -0.1297
66749W        W 9687   8.027   0.707   3.847  0.2265 -0.0469 -0.2251
66750W        W 9688   7.726   0.627   6.303 -0.0111 -0.1832  0.0122
66751W        W 9689   8.165   0.155   4.947 -0.0478 -0.0689 -0.1624
66752W        W 9690   7.153   0.644   4.089  0.2669  0.1748  0.1688
66753W        W 9691   3.179  34.133   5.408 -0.0253  0.1513  0.0199
66754W        W 9692   4.763   1.010   6.574  0.0330  0.1562  0.1061
66755W        W 9693   6.165   0.153   4.096  0.1333 -0.1846 -0.2333
66756W        W 9694   7.193   0.021   5.694 -0.0584  0.3758  0.2531
66757W        W 9695   6.321   3.405   3.799 -0.2463 -0.1420 -0.1568
66758W        W 9696   7.191   3.460   4.677  0.1720  0.0909  0.0699
66759W        W 9697   7.754   0.408   4.817 -0.1301  0.1740  0.1578
66760W        W 9698   4.451   1.056   4.645  0.5163 -0.0437  0.0956
66761W        W 9699   4.617   3.140   7.689  0.1751  0.1007  0.1553
66762W        W 9700   3.821   1.972   3.231 -0.0084  0.2016 -0.1722
66763W        W 9701   5.116   1.516   4.359 -0.3033  0.0770 -0.0773
66764W        W 9702   6.742   2.187   5.997 -0.0993 -0.0203  0.0574
66765W        W 9703   6.003   0.975   8.825  0.1535  0.2353 -0.1307
66766W        W 9704   6.175   1.091   5.740 -0.0568  0.0497 -0.0215
66767W        W 9705   6.334   1.306   6.169  0.3693 -0.1212 -0.0208
66768W        W 9706   5.665   1.157   5.678  0.2365 -0.1325 -0.0424
66769W        W 9707   7.802  33.926   5.372  0.2179 -0.2199 -0.0421
66770W        W 9708   5.108   3.850   5.497 -0.5782 -0.2408 -0.1588
66771W        W 9709   3.936   2.672   7.278  0.0072 -0.0072 -0.0111
66772W        W 9710   3.493   2.148   4.235 -0.2074 -0.2809  0.0679
66773W        W 9711   5.908  33.767   6.352 -0.1227  0.1549  0.0416
66774W        W 9712   7.966   1.036   5.198 -0.0762 -0.1875  0.3333
66775W        W 9713   5.909   2.007   5.379  0.1990 -0.0551  0.2327
66776W        W 9714   6.526  34.459   6.243 -0.1741  0.1064 -0.0354
66777W        W 9715   6.657   1.533   6.689  0.0508 -0.2190  0.0808
66778W        W 9716   4.882   0.666   6.086 -0.0491 -0.3707 -0.1595
66779W        W 9717   5.315   1.656   7.518  0.0541  0.0827  0.1105
66780W        W 9718   8.073   2.481   4.775 -0.1470 -0.1761 -0.2386
66781W        W 9719   5.078   3.466   5.793  0.0716 -0.1223  0.1148
66782W        W 9720   3.135   1.410   7.716  0.4214 -0.3756 -0.6470
66783W        W 9721   4.019   1.161   8.177  0.1055  0.1173 -0.0934
66784W        W 9722   8.457   1.344   5.772  0.0850 -0.0436 -0.1161
66785W        W 9723   3.596  33.846   5.349  0.2370 -0.2879 -0.0821
66786W        W 9724   4.995   3.017   4.003  0.0181 -0.0638 -0.2607
66787W        W 9725   4.077   2.809   8.320 -0.0310  0.2907 -0.1344
66788W        W 9726   3.490   2.705   8.073  0.2744 -0.0603  0.2965
66789W        W 9727   3.982   2.326   5.139  0.1266  0.2138  0.1618
66790W        W 9728   5.965   2.640   3.525  0.0676  0.0066  0.1318
66791W        W 9729   6.788   1.278   3.173  0.2221 -0.1761  0.0896
66792W        W 9730   6.833   1.716   4.846 -0.0403 -0.0293 -0.0341
66793W        W 9731   6.378   0.758   3.732  0.1612  0.1878 -0.2390
66794W        W 9732   4.783   2.593   5.457  0.1677 -0.0427 -0.1576
66795W        W 9733   3.268   2.896   5.405 -0.0092 -0.0488 -0.2042
66796W        W 9734   5.687   2.204   3.423 -0.0554  0.0342 -0.1932
66797W        W 9735   5.688   1.661   4.968 -0.1579 -0.0600 -0.1472
66798W        W 9736   6.984   1.589   7.659 -0.1554 -0.4464 -0.1186
66799W        W 9737   7.561   0.438   3.854  0.0673 -0.1376 -0.1948
66800W        W 9738   7.676   1.876   5.361  0.1855 -0.0829  0.3505
66801W        W 9739   8.076   2.095   4.471 -0.2904  0.2561 -0.2188
66802W        W 9740   5.451   1.498   7.050  0.3086  0.1101 -0.1027
66803W        W 9741   4.637   0.933   7.060  0.0609  0.0745  0.3129
66804W        W 9742   6.238   0.655   3.235  0.2255 -0.0402 -0.1990
66805W        W 9743   4.299   1.121   6.675  0.0988  0.1538 -0.0600
66806W        W 9744   7.104  34.590   8.526 -0.0191 -0.0610  0.0567
66807W        W 9745   3.737   4.172   7.108 -0.2914  0.0041 -0.0288
66808W        W 9746   5.590   2.328   4.329  0.3418  0.5272 -0.3708
66809W        W 9747   4.780   1.115   4.258  0.0507 -0.1340  0.0326
66810W        W 9748   5.367   1.415   5.968  0.2909  0.2430 -0.0923
66811W        W 9749   7.658  34.500   7.004  0.2680  0.1086 -0.3416
66812W        W 9750   6.478   1.234   3.562 -0.0741  0.2308  0.3284
66813W        W 9751   6.213  34.581   4.499 -0.0409 -0.0536  0.0010
66814W        W 9752   6.061   2.569   4.369  0.1271  0.2527 -0.0101
66815W        W 9753   6.015   1.949   4.141 -0.1107 -0.0840 -0.2673
66816W        W 9754   4.865   2.050   5.301 -0.0648  0.3053 -0.1239
66817W        W 9755   5.518   0.612   4.093  0.1967 -0.0341 -0.2265
66818W        W 9756   8.074   0.820   4.741 -0.3333 -0.0722 -0.1429
66819W        W 9757   3.681   0.727   7.435 -0.0027 -0.0134  0.1354
66820W        W 9758   6.272  34.370   7.216  0.2780  0.0051  0.1924
66821W        W 9759   5.263   1.154   4.829  0.2175 -0.1063  0.1651
66822W        W 9760   7.718   0.744   4.263 -0.1128 -0.1834  0.1208
66823W        W 9761   6.079   2.921   5.018  0.2322  0.0596  0.0200
66824W        W 9762   4.203   0.671   4.506 -0.3501  0.1951 -0.0662
66825W        W 9763   5.415   0.192   4.376  0.0448  0.0051 -0.1086
66826W        W 9764   7.266   1.206   7.421 -0.3010 -0.4891  0.1832
66827W        W 9765   6.741   0.438   2.571 -0.1209 -0.2411  0.0342
66828W        W 9766   5.989   2.279   7.060  0.0829 -0.2424  0.2565
66829W        W 9767   4.758  34.224   4.040 -0.1161 -0.0785 -0.0546
66830W        W 9768   6.875  34.619   3.393  0.0453  0.0863 -0.1266
66831W        W 9769   5.438   0.667   4.672  0.3098 -0.0510 -0.1420
66832W        W 9770   4.394   0.463   7.293  0.4062  0.1695 -0.0867
66833W        W 9771   7.299   2.698   7.217 -0.1047  0.1698  0.0755
66834W        W 9772   3.969  34.621   5.525  0.0067 -0.1421 -0.0508
66835W        W 9773   6.559   2.379   3.639 -0.0876  0.0760 -0.0109
66836W        W 9774   7.223   1.573   6.167  0.0892 -0.3154 -0.1197
66837W        W 9775   4.841   2.677   2.508 -0.1112  0.3420 -0.1368
66838W        W 9776   6.845   0.783   5.797 -0.2193  0.2253  0.0709
66839W        W 9777   6.601   2.104   4.637  0.0263  0.1739 -0.0781
66840W        W 9778   4.497   1.076   6.128  0.2723  0.0056 -0.0856
66841W        W 9779   6.184   1.273   7.034  0.0972  0.0863  0.0412
66842W        W 9780   7.460   2.368   5.416 -0.1818  0.0063  0.1532
66843W        W 9781   6.251  34.528   4.995 -0.0654  0.2487 -0.0142
66844W        W 9782   4.346   0.305   5.437 -0.0315 -0.1327  0.2236
66845W        W 9783   3.843   2.448   4.674 -0.1770 -0.3769 -0.0171
66846W        W 9784   8.068   0.441   5.970 -0.0580  0.3994  0.2373
66847W        W 9785   6.863   0.666   6.513  0.1718  0.1485  0.0356
66848W        W 9786   4.883   2.674   3.671  0.1217  0.0941  0.0936
66849W        W 9787   5.989  34.458   8.651 -0.3746  0.0064 -0.2262
66850W        W 9788   5.223   2.804   6.920  0.2616 -0.0163 -0.1338
66851W        W 9789   4.359   2.439   6.915  0.4274 -0.1464  0.0818
66852W        W 9790   3.730   2.291   2.868 -0.0268 -0.0573  0.1008
66853W        W 9791   4.413   1.218   7.454 -0.0103 -0.0314  0.0806
66854W        W 9792   6.604   1.985   5.525  0.3089 -0.1734 -0.0026
66855W        W 9793   4.863   3.601   4.839 -0.0316 -0.1219 -0.4658
66856W        W 9794   7.663   2.362   6.157  0.1108  0.0996  0.1882
66857W        W 9795   6.700   0.623   4.982  0.0914 -0.0056  0.3309
66858W        W 9796   7.346   2.098   4.199  0.2158 -0.0513 -0.0116
66859W        W 9797   6.472  34.673   3.687 -0.0583 -0.0209 -0.2782
66860W        W 9798   7.979  34.310   3.722  0.1532 -0.0648 -0.0464
66861W        W 9799   6.102   0.341   3.601 -0.1104 -0.0732  0.1501
66862W        W 9800   4.673   0.880   5.616  0.1472 -0.5094 -0.0508
66863W        W 9801   2.586   2.229   4.622 -0.0876  0.0731 -0.1361
66864W        W 9802   4.437   0.550   5.860 -0.1143 -0.1478  0.0016
66865W        W 9803   6.198   2.128   5.739  0.0468 -0.2571  0.1013
66866W        W 9804   5.719  33.594   8.110  0.1291  0.4315 -0.2281
66867W        W 9805   3.877   1.884   7.688 -0.0061  0.1157  0.4296
66868W        W 9806   5.055   1.798   4.891  0.1858 -0.2667  0.1557
66869W        W 9807   5.962   0.226   3.146 -0.1242  0.0471 -0.1537
66870W        W 9808   7.277   2.895   4.683  0.0712  0.0225 -0.2626
66871W        W 9809   4.248  34.219   3.632 -0.0337 -0.4398 -0.1738
66872W        W 9810   3.746   1.302   5.130  0.1377  0.1218 -0.0302
66873W        W 9811   6.930   2.360   5.573 -0.0856 -0.5083 -0.1548
66874W        W 9812   6.808   3.121   4.642 -0.1563  0.2193  0.0580
66875W        W 9813   5.992  34.450   5.852 -0.0067 -0.0828  0.0277
66876W        W 9814   6.335   1.929   6.324 -0.0946  0.0603 -0.1443
66877W        W 9815   3.516   2.502   2.300 -0.2364  0.0677  0.3835
66878W        W 9816   6.027  34.330   8.180  0.4089  0.0852 -0.1304
66879W        W 9817   5.316  34.530   6.090  0.0047  0.2274 -0.0308
66880W        W 9818   3.810   0.173   4.321  0.1752  0.0909 -0.1269
66881W        W 9819   5.213   0.283   5.999  0.4024  0.0539  0.0008
66882W        W 9820   6.747   0.265   5.815 -0.0044  0.1080  0.1730
66883W        W 9821   6.756   1.701   3.522 -0.1183 -0.1081 -0.3319
66884W        W 9822   5.850   3.380   5.146 -0.0476 -0.2624 -0.2067
66885W        W 9823   5.739   2.422   7.555 -0.0870  0.0076 -0.2572
66886W        W 9824   3.246  33.997   5.939  0.3070  0.0814  0.0303
66887W        W 9825   7.096   0.314   5.047 -0.1465  0.2143 -0.0627
66888W        W 9826   5.206   1.622   6.371  0.1792  0.1322 -0.0696
66889W        W 9827   7.295   2.287   4.887 -0.0098  0.2271 -0.0492
66890W        W 9828   7.659  34.511   5.607 -0.1363 -0.2170 -0.1497
66891W        W 9829   6.869   1.367   3.971 -0.1249 -0.2668  0.1163
66892W        W 9830   5.144   0.043   6.566 -0.0547  0.0941 -0.2093
66893W        W 9831   4.651   2.079   6.351 -0.1684  0.1659 -0.1786
66894W        W 9832   7.948   1.442   5.592  0.1032 -0.1618  0.3152
66895W        W 9833   5.404  34.312   5.628  0.0239  0.2318  0.0946
66896W        W 9834   6.627   0.084   4.228 -0.2990 -0.2447 -0.0492
66897W        W 9835   5.337   1.826   3.432  0.1643  0.1942  0.1001
66898W        W 9836   5.117   1.733   5.601  0.0606  0.1267  0.0278
66899W        W 9837   6.421   0.304   5.182 -0.1398 -0.1945 -0.2366
66900W        W 9838   5.553   0.948   7.474  0.1072 -0.0561  0.1353
66901W        W 9839   7.166   2.707   5.176 -0.3189 -0.0376 -0.1886
66902W        W 9840   7.285   0.932   6.507 -0.2101  0.1136 -0.1345
66903W        W 9841   4.776   1.578   4.043 -0.0240  0.0558 -0.0075
66904W        W 9842   7.830   1.273   4.751  0.2400 -0.2765 -0.1142
66905W        W 9843   5.638   3.128   6.779  0.0844 -0.0984  0.0888
66906W        W 9844   6.689   3.496   7.073  0.0550  0.0406 -0.2424
66907W        W 9845   5.095   2.379   6.607 -0.3737 -0.0500  0.2213
66908W        W 9846   8.307   1.555   6.646  0.0448 -0.1226  0.1104
66909W        W 9847   4.885   0.090   4.200  0.3683 -0.1780 -0.0856
66910W        W 9848   4.743   1.506   5.349 -0.5789 -0.1831 -0.2989
66911W        W 9849   5.178   0.784   3.731 -0.0681  0.0230 -0.2359
66912W        W 9850   8.041   0.911   6.013  0.0579 -0.0074  0.0461
66913W        W 9851   4.911  34.356   5.732 -0.1476  0.2622 -0.0468
66914W        W 9852   7.639   0.118   4.335 -0.0284 -0.0702 -0.1301
66915W        W 9853   5.101   4.429   5.804 -0.2662  0.0939 -0.2088
66916W        W 9854   6.658   1.259   4.432 -0.0289  0.1895 -0.2919
66917W        W 9855   4.861   5.201   9.259  0.1833  0.0150 -0.2658
66918W        W 9856   3.827   0.830   8.487 -0.3271  0.0281  0.0288
66919W        W 9857   6.752   1.252   7.282 -0.1970  0.1030 -0.1507
66920W        W 9858   7.728   1.734   9.458  0.0763 -0.0463 -0.1004
66921W        W 9859   3.180   0.655   9.342 -0.0055  0.1873  0.3627
66922W        W 9860   6.688   2.252   8.010  0.2299 -0.2461 -0.0399
66923W        W 9861   5.868   3.817  10.195  0.0136 -0.2369  0.1068
66924W        W 9862   7.314   2.925   8.789 -0.1402  0.0280  0.1451
66925W        W 9863   4.152   1.782   7.117 -0.0568  0.0074 -0.2193
66926W        W 9864   5.984   1.478  10.114  0.2594 -0.1736 -0.0644
66927W        W 9865   5.405  33.567   7.335  0.0045 -0.2008 -0.0396
66928W        W 9866   3.640   0.295   8.753  0.2834  0.1284  0.2545
66929W        W 9867   6.988   2.749   9.762  0.0221 -0.1658  0.0183
66930W        W 9868   4.710   0.226   9.456 -0.1435  0.2356  0.2449
66931W        W 9869   5.453   0.809   9.925  0.2846  0.1115 -0.0234
66932W        W 9870   4.861   1.900   7.633 -0.0965  0.2190 -0.0206
66933W        W 9871   6.320   1.832   9.866  0.0079 -0.0939 -0.0312
66934W        W 9872   5.292  32.984   9.911 -0.0624  0.0012  0.0541
66935W        W 9873   5.672   2.827   8.513 -0.3538  0.1005 -0.1697
66936W        W 9874   5.393   1.924   6.733 -0.1865  0.1551 -0.0385
66937W        W 9875   3.831   1.225   9.608  0.0198  0.0366  0.0194
66938W        W 9876   5.059   0.943   9.261  0.1572 -0.2076 -0.2178
66939W        W 9877   6.739   1.248   8.826  0.3474  0.0714 -0.2055
66940W        W 9878   7.072   2.297   9.962 -0.0232 -0.2115  0.1252
66941W        W 9879   5.628   2.499   8.126 -0.1998 -0.0152 -0.2541
66942W        W 9880   7.431   2.091   9.090 -0.2914  0.1478 -0.3819
66943W        W 9881   4.767   1.892   9.670 -0.0661  0.0152 -0.1422
66944W        W 9882   4.010   2.295   9.579  0.1269  0.0735 -0.0772
66945W        W 9883   4.542   2.591   9.407  0.2579  0.1518 -0.1620
66946W        W 9884   8.678   3.479   9.546 -0.1778  0.2368 -0.0641
66947W        W 9885   4.873   3.174   7.258 -0.1164 -0.0037  0.0650
66948W        W 9886   6.555   4.204   9.753  0.2226  0.0272 -0.0976
66949W        W 9887   4.760   0.692   8.169 -0.3662  0.2783  0.3853
66950W        W 9888   4.285   2.912   8.785 -0.0960  0.0792  0.0006
66951W        W 9889   5.202   3.704   9.685 -0.1107  0.0812 -0.1176
66952W        W 9890   3.941   4.447   9.732 -0.1293  0.1083 -0.1438
66953W        W 9891   5.026   3.325   6.774  0.0218  0.1230 -0.0045
66954W        W 9892   5.623   1.972   7.274  0.0624  0.0163  0.1946
66955W        W 9893   3.756   1.527   8.236  0.0914 -0.0520 -0.0664
66956W        W 9894   5.762   0.499   9.083 -0.1095 -0.1072  0.2766
66957W        W 9895   4.509  34.125   8.512  0.0620  0.0028 -0.0650
66958W        W 9896   4.006   3.832   8.833 -0.4190  0.0906 -0.0075
66959W        W 9897   4.732  34.456   9.824  0.0111  0.3626 -0.0982
66960W        W 9898   5.516   2.238   8.692 -0.2150 -0.1807 -0.0057
66961W        W 9899   6.856   1.763   9.804 -0.3651 -0.2081 -0.4027
66962W        W 9900   4.151   4.963   9.694 -0.1859  0.2213 -0.0361
66963W        W 9901   2.883   2.737   9.683 -0.1026 -0.1241 -0.1989
66964W        W 9902   7.700   2.865   6.763  0.3775 -0.3014 -0.0405
66965W        W 9903   7.493   4.384   8.442  0.1442 -0.0529 -0.0843
66966W        W 9904   5.259   2.531   7.316  0.0654 -0.1051 -0.3402
66967W        W 9905   3.606   0.719   9.066 -0.1910 -0.1001 -0.0085
66968W        W 9906   5.201  33.904   7.039 -0.2790  0.0692 -0.3259
66969W        W 9907   6.196  34.339   9.611 -0.1391  0.0107  0.0035
66970W        W 9908   4.545   2.310   9.852  0.3254  0.1649  0.0655
66971W        W 9909   6.202   3.839   9.775  0.0487  0.0664  0.0858
66972W        W 9910   6.006   1.901   7.610 -0.1237  0.1370 -0.1169
66973W        W 9911   6.015  34.303  10.121  0.0158 -0.1226  0.0420
66974W        W 9912   6.676   1.581   9.339  0.0741 -0.1200  0.1191
66975W        W 9913   4.258   1.593   8.019 -0.2229 -0.1000 -0.0601
66976W        W 9914   5.019   1.797   8.520 -0.0771 -0.0029 -0.0073
66977W        W 9915   7.405   1.649   9.835 -0.0492  0.3025 -0.0524
66978W        W 9916   6.150   2.263   7.943  0.2734 -0.0344  0.3573
66979W        W 9917   3.425   5.395  10.095 -0.0331 -0.0552  0.5931
66980W        W 9918   4.879   2.315   8.107  0.1024 -0.1618 -0.0374
66981W        W 9919   3.918   2.885   9.188 -0.0075  0.1272  0.2235
66982W        W 9920   4.627   2.727   7.286  0.1088 -0.0152 -0.1027
66983W        W 9921   2.845   0.052   9.126  0.0657 -0.1276  0.1845
66984W        W 9922   4.728   3.827   9.750  0.0673  0.3286 -0.1403
66985W        W 9923   6.794  33.910  10.203 -0.1064  0.1491  0.0489
66986W        W 9924   6.428  33.608  10.296  0.1989 -0.2053  0.0544
66987W        W 9925   3.558   1.316   8.613  0.1090 -0.1766  0.1485
66988W        W 9926   7.722   2.677   8.452  0.1034 -0.0272 -0.0150
66989W        W 9927   8.303   2.552   9.158 -0.1600  0.1520 -0.3448
66990W        W 9928   6.005   2.352   9.312  0.3309  0.1430 -0.0622
66991W        W 9929   5.482   1.373   9.599 -0.4718  0.2025 -0.1087
66992W        W 9930   4.368   1.131   9.709  0.0690 -0.2847 -0.0252
66993W        W 9931   4.714  34.076   9.526 -0.0767 -0.2088  0.1541
66994W        W 9932   4.786   0.494   6.891  0.0912  0.2184  0.1152
66995W        W 9933   4.865   0.976   8.678  0.1392  0.0557 -0.1106
66996W        W 9934   5.166   1.271   8.366 -0.0226  0.1458  0.0996
66997W        W 9935   3.244   1.615   8.963 -0.0116  0.3772 -0.1954
66998W        W 9936   7.616   3.148   7.133 -0.0631 -0.1588 -0.1181
66999W        W 9937   4.683   3.346   9.968  0.0955  0.1575 -0.2109
67000W        W 9938   6.947   3.013   8.449 -0.0338  0.0113  0.1559
67001W        W 9939   3.269  34.143   9.179  0.0471  0.0443 -0.0233
67002W        W 9940   4.411  34.356   7.031 -0.2177  0.3235 -0.1321
67003W        W 9941   2.845   6.038  10.497 -0.2146  0.0526  0.1273
67004W        W 9942   5.389   3.003   8.067  0.5339  0.1628  0.0404
67005W        W 9943   4.415   0.940   8.478  0.1342  0.1744 -0.0964
67006W        W 9944   5.364   3.622   9.101 -0.0509  0.0568  0.1582
67007W        W 9945   6.639   2.234   8.784  0.2942 -0.0762 -0.0711
67008W        W 9946   7.317   1.142   8.816 -0.2036  0.2297 -0.0081
67009W        W 9947   5.472   2.376   9.293 -0.2423  0.1261 -0.1845
67010W        W 9948   4.144   0.669   6.768 -0.0405  0.2237 -0.2188
67011W        W 9949   6.925   2.966   7.210 -0.0454  0.2482  0.1062
67012W        W 9950   4.804   2.439   7.625 -0.1581 -0.0605 -0.2109
67013W        W 9951   4.105   0.681   9.952  0.4682  0.2055 -0.1308
67014W        W 9952   6.417   3.097   7.662 -0.1949 -0.1182 -0.0360
67015W        W 9953   6.486   0.738   8.948 -0.1765 -0.1198  0.2275
67016W        W 9954   4.215   1.642   8.564 -0.2295 -0.1912  0.0434
67017W        W 9955   5.561   1.198   8.639  0.0607 -0.1457 -0.0106
67018W        W 9956   6.319  34.628   8.988  0.1004  0.0505  0.0368
67019W        W 9957   6.087   2.114   8.872  0.0054  0.3281 -0.3694
67020W        W 9958   5.752   0.505   7.858  0.0988  0.2763 -0.4067
67021W        W 9959   5.945   1.199   8.261  0.2268 -0.0227  0.0814
67022W        W 9960   5.295   2.145   7.632 -0.0472 -0.2612  0.0259
67023W        W 9961   7.930   2.814   9.430  0.0700 -0.1454  0.2005
67024W        W 9962   5.821   0.146   8.178 -0.2671 -0.1641  0.2667
67025W        W 9963   6.366   2.115   8.383 -0.2870  0.0401  0.1182
67026W        W 9964   3.858   2.007  10.015  0.1055  0.2177 -0.0907
67027W        W 9965   6.665   2.582   8.457  0.1969 -0.0789 -0.2277
67028W        W 9966   4.906   0.191   9.937 -0.0673  0.0617  0.2060
67029W        W 9967   4.864   2.377   7.061 -0.1864 -0.1532 -0.0111
67030W        W 9968   5.130   0.512   9.582  0.2020 -0.0404  0.0184
67031W        W 9969   3.538   3.616   8.785 -0.1422 -0.0706 -0.1270
67032W        W 9970   6.989  33.639   8.121  0.1924 -0.1005 -0.2358
67033W        W 9971   5.413  33.975   8.781  0.1701  0.4111  0.1135
67034W        W 9972   7.120   2.556   8.229  0.0921  0.0761  0.1210
67035W        W 9973   5.669   1.762   9.802 -0.2060  0.2279 -0.0570
67036W        W 9974   4.427   0.437   7.837 -0.0451  0.1731  0.2122
67037W        W 9975   6.315   1.254   9.066  0.0453 -0.3086  0.1883
67038W        W 9976   4.125   3.175   9.971  0.1804 -0.2674  0.0617
67039W        W 9977   6.664   3.194   9.459  0.3859  0.0459  0.0661
67040W        W 9978   5.316   0.276   9.063  0.1878 -0.0301 -0.1418
67041W        W 9979   5.913   3.017   8.152  0.1546  0.0873 -0.0837
67042W        W 9980   4.762   2.591   8.943  0.0942  0.4715  0.2939
67043W        W 9981   6.546   0.059   9.636 -0.0128 -0.0401 -0.0777
67044W        W 9982   6.180   2.938   9.326 -0.2504  0.0571 -0.0038
67045W        W 9983   4.880   1.909   6.756 -0.0766 -0.0048  0.1300
67046W        W 9984   5.563   0.913   9.459  0.0554 -0.1861 -0.0037
67047W        W 9985   5.091   1.667   9.290  0.0040  0.2304  0.1028
67048W        W 9986   8.483   0.743   8.525  0.2057 -0.2465  0.3266
67049W        W 9987   3.906   3.943   9.511 -0.3022 -0.4759 -0.0050
67050W        W 9988   5.190   0.584   7.758 -0.0629  0.2030  0.0081
67051W        W 9989   3.476   1.672   7.894  0.0618  0.1640  0.0493
67052W        W 9990   7.883   1.126   8.865 -0.0023 -0.0651  0.0038
67053W        W 9991   6.434   2.843   9.801 -0.0780  0.1703  0.1967
67054W        W 9992   6.263   0.139  10.033 -0.0302  0.2716  0.1263
67055W        W 9993   5.429   0.856   8.065 -0.0445 -0.2683  0.1064
67056W        W 9994   5.284   3.156   9.716 -0.1244 -0.2790  0.0266
67057W        W 9995   5.737  34.031   8.433  0.0991  0.3301 -0.1341
67058W        W 9996   3.910   1.244   6.181  0.2592 -0.3574 -0.1679
67059W        W 9997   7.919   2.202   9.300  0.4032  0.2554 -0.1896
67060W        W 9998   2.411   2.474   9.731  0.0480 -0.1280 -0.3719
67061W        W 9999   3.375   2.043   9.140 -0.1264 -0.0463  0.1030
67062W        W10000   5.345   4.791   9.085  0.2331 -0.0723  0.0405
67063W        W10001   4.347   0.173   9.041 -0.0479 -0.0555  0.2453
67064W        W10002   5.005   2.456   9.368 -0.3491 -0.3285 -0.0789
67065W        W10003   5.894   2.043   8.405  0.0926  0.2261 -0.2660
67066W        W10004   5.623   1.879   9.250 -0.0433  0.0092 -0.1611
67067W        W10005   4.646   1.495   9.332 -0.4750 -0.2351  0.1939
67068W        W10006   6.045   2.501   8.496  0.0313 -0.1638  0.0266
67069W        W10007   7.164   3.088   9.259  0.1732  0.3385  0.1393
67070W        W10008   5.562   3.409  10.150 -0.0117 -0.0626  0.0399
67071W        W10009   5.379   2.066  10.178 -0.1090 -0.4956  0.1394
67072W        W10010   6.310   3.973   9.315 -0.0136  0.1161  0.0701
67073W        W10011   4.325   2.091   7.892 -0.0640  0.2712 -0.0945
67074W        W10012   4.109   1.890   9.252 -0.0526 -0.0255  0.1612
67075W        W10013   4.391   2.192   8.544 -0.0060  0.4227 -0.0179
67076W        W10014   5.449   0.155  10.021  0.1059  0.1740 -0.2488
67077W        W10015   5.734   2.259   9.733 -0.0209 -0.3260  0.0318
67078W        W10016   4.988   2.272   8.606  0.1906 -0.0670  0.3272
67079W        W10017   4.375   3.460   8.905 -0.0786 -0.3770  0.0691
67080W        W10018   6.989   0.320   8.316  0.1843 -0.1466  0.1642
67081W        W10019   5.265   2.571   7.835  0.0771  0.0176 -0.3280
67082W        W10020   4.056   0.545   8.867  0.1215 -0.0312  0.1137
67083W        W10021   6.132   1.826   6.914 -0.0819  0.2793  0.4460
67084W        W10022   4.566  34.635   8.666 -0.3040  0.0325  0.2113
67085W        W10023   6.874   3.567   8.913  0.0253 -0.0017  0.2539
67086W        W10024   5.024   0.077   8.580 -0.0938  0.2537  0.0344
67087W        W10025   3.891   0.133   9.163  0.0961 -0.1683  0.1436
67088W        W10026   6.558   2.281   9.747 -0.0988  0.1602  0.1395
67089W        W10027   7.033   2.082   8.525 -0.2519 -0.2892  0.2625
67090W        W10028   5.940   1.313   7.499 -0.4686 -0.2040 -0.0461
67091W        W10029   7.100   0.410   9.354  0.1755 -0.2064 -0.0406
67092W        W10030   2.792   0.883  10.242  0.1537  0.1395  0.1412
67093W        W10031   5.122   1.340   8.894  0.0757 -0.0236  0.1023
67094W        W10032   5.258  34.356   6.948 -0.1593 -0.0792  0.1063
67095W        W10033   4.586   2.133   9.245  0.0931 -0.1779  0.2113
67096W        W10034   5.488   4.142  10.002  0.1584  0.0597  0.2372
67097W        W10035   5.541   1.206  10.175 -0.0342  0.3319  0.2927
67098W        W10036   4.834   5.184  10.187  0.1467 -0.1900  0.3277
67099W        W10037   7.171   1.527   8.546 -0.1049 -0.2903 -0.0225
67100W        W10038   7.944   2.418   9.779 -0.2903  0.1399 -0.1468
67101W        W10039   7.057   0.790  10.050 -0.0787 -0.0240 -0.0169
67102W        W10040   6.076   1.647   8.048  0.2435 -0.1452 -0.2518
67103W        W10041   1.425   4.571  12.094 -0.1894 -0.1960 -0.0604
67104W        W10042   5.084   1.162   7.829 -0.1888  0.2551 -0.0447
67105W        W10043   5.105   4.217   6.273  0.0195  0.3165 -0.0205
67106W        W10044   4.997   4.199   9.714 -0.2161 -0.1462  0.0840
67107W        W10045   6.548   0.855  10.042 -0.2378 -0.0002 -0.0047
67108W        W10046   2.678   0.964   9.572  0.0226  0.2409  0.0767
67109W        W10047   3.896   0.382   7.133  0.0612 -0.1436 -0.0695
67110W        W10048   5.660   1.953   7.969 -0.2029 -0.0221  0.2538
67111W        W10049   5.321   2.832  10.239  0.0404 -0.4998  0.0749
67112W        W10050   4.891   0.026   7.880 -0.2329 -0.2611 -0.0426
67113W        W10051   4.231   3.699   8.227 -0.1365 -0.1503  0.1859
67114W        W10052   5.697   0.040   9.267 -0.0089  0.0941 -0.2849
67115W        W10053   4.025   4.816  10.135 -0.1279  0.1402 -0.0129
67116W        W10054   5.233   2.644   8.357 -0.1312 -0.0133 -0.2575
67117W        W10055   9.540   2.134  10.047  0.0849 -0.0539 -0.0017
67118W        W10056   6.190   1.340   9.539  0.4244 -0.1277  0.1482
67119W        W10057   5.796   2.611   8.930 -0.1108 -0.0574  0.0245
67120W        W10058   4.195   1.620   9.720 -0.1698  0.1440  0.0023
67121W        W10059   7.008   0.791   9.007  0.0727  0.3348  0.4878
67122W        W10060   4.045   3.544  10.322 -0.3123 -0.2299 -0.0419
67123W        W10061   5.134   2.111   9.022  0.1436 -0.0560  0.0198
67124W        W10062   4.807   0.265   7.461  0.0810 -0.1287  0.0339
67125W        W10063   5.563   1.611   8.341  0.1660 -0.0698 -0.0398
67126W        W10064   3.403   2.171  10.125 -0.1767 -0.0472 -0.2047
67127W        W10065   3.562   4.283   8.120  0.0803  0.2648  0.2018
67128W        W10066   7.104   1.875   6.611 -0.0191  0.0003 -0.0712
67129W        W10067   6.355   1.421   8.549 -0.3364  0.1884 -0.1106
67130W        W10068   5.668   2.834   9.347  0.1093 -0.4690  0.0696
67131W        W10069   4.493   1.058   7.967 -0.1299 -0.2427 -0.0338
67132W        W10070   5.172   1.667  10.032 -0.0049 -0.0272 -0.0350
67133W        W10071   2.869   3.727   8.525 -0.0633 -0.0273 -0.1499
67134W        W10072   6.365   3.394   8.029  0.1092 -0.0958 -0.0351
67135W        W10073   3.117   3.236   9.498  0.2072  0.0881  0.0812
67136W        W10074   7.531   1.126   8.370 -0.2632 -0.5955 -0.0431
67137W        W10075   7.046   1.219   9.734 -0.3739 -0.0764 -0.0266
67138W        W10076   6.453   0.944   8.446  0.1525 -0.2220  0.1752
67139W        W10077   3.162   4.548  10.291 -0.2612 -0.1577 -0.4724
67140W        W10078   5.506  34.065   7.969 -0.0946 -0.2708  0.2644
67141W        W10079   7.424   2.092   7.103 -0.1394  0.0769  0.0433
67142W        W10080   3.496   1.250   7.337 -0.1735  0.0541 -0.3295
67143W        W10081   6.455   2.144   9.191  0.2262 -0.1252 -0.3940
67144W        W10082   7.619  34.455  11.778  0.2616  0.1366 -0.1028
67145W        W10083   4.707   1.483   7.820  0.1184  0.1296 -0.2519
67146W        W10084   5.654   3.418   9.499 -0.1786  0.1642 -0.2497
67147W        W10085   3.921   4.758   9.310 -0.2917 -0.1119 -0.0693
67148W        W10086   4.947   3.920   9.302 -0.0477 -0.2194 -0.0901
67149W        W10087   5.078   3.024   8.635 -0.0156  0.0134 -0.3101
67150W        W10088   4.203   0.332   9.556 -0.1722 -0.0642 -0.1018
67151W        W10089   7.252   1.676   9.372 -0.1886 -0.3728 -0.0841
67152W        W10090   5.799   1.271   9.207  0.1444 -0.0514 -0.0164
67153W        W10091   4.645   0.739   9.516 -0.0673  0.0145 -0.0179
67154W        W10092   5.960   1.607   8.744 -0.0667  0.0395 -0.4000
67155W        W10093   4.639   2.459  10.330 -0.2094  0.0989  0.0837
67156W        W10094   3.177   1.066   9.646  0.1421  0.1693  0.1610
67157W        W10095   5.181   0.583   8.464  0.0345 -0.1024 -0.0203
67158W        W10096   5.954  34.187   7.665  0.0045 -0.1630  0.2057
67159W        W10097   2.638   0.266  10.173 -0.1234  0.0931  0.0575
67160W        W10098   5.789  34.628   9.738 -0.2716  0.0541  0.1615
67161W        W10099   3.654   2.423   9.158 -0.3035 -0.3807 -0.0941
67162W        W10100   4.569   1.095   9.072 -0.5141  0.1849 -0.0368
67163W        W10101   4.043  34.384   8.931  0.1062 -0.0840 -0.1106
67164W        W10102   6.621   0.833   7.989  0.2229  0.0333 -0.1498
67165W        W10103   6.706   1.331   8.202 -0.0100  0.1148 -0.1682
67166W        W10104   5.426   3.182   7.215 -0.0006 -0.1257  0.2108
67167W        W10105   6.327   2.581   8.970 -0.1884  0.0386  0.3566
67168W        W10106   5.388   4.210   9.422  0.1189  0.2368  0.1466
67169W        W10107   3.644  34.341   9.437 -0.4179 -0.0947  0.0120
67170W        W10108   4.950   5.376   9.714  0.0168  0.0802  0.2387
67171W        W10109   6.696   3.656   9.889  0.1594  0.1212 -0.0845
67172W        W10110   5.375  34.155   7.435  0.2478  0.1421  0.0431
67173W        W10111   2.530  33.843   9.997 -0.1204  0.1632  0.0554
67174W        W10112   3.531   3.502   9.396 -0.0229 -0.1552 -0.3689
67175W        W10113   8.011  34.376   9.703  0.1051 -0.0083  0.0743
67176W        W10114   5.688   2.803   7.172 -0.0838  0.1106  0.1581
67177W        W10115   4.528   2.784   9.945 -0.1781  0.0633 -0.1486
67178W        W10116   4.670   2.609   8.409 -0.1431  0.0254 -0.0210
67179W        W10117   4.593   3.213   8.507 -0.0314  0.0028  0.1107
67180W        W10118   5.189   3.003   7.580  0.2524  0.2492  0.2405
67181W        W10119   6.829   3.165   9.965  0.0998 -0.2623  0.3652
67182W        W10120   5.943   0.954   9.808 -0.1515  0.2749 -0.1556
67183W        W10121   6.723   1.778   8.458 -0.1644  0.2948 -0.0484
67184W        W10122   4.706   1.890  10.249 -0.1593 -0.3651 -0.0543
67185W        W10123   8.751  34.280   8.933  0.0245 -0.0009  0.1031
67186W        W10124   6.500  33.428   8.108  0.2267  0.0011 -0.0121
67187W        W10125   4.632   1.503   9.975 -0.1324 -0.0651 -0.0519
67188W        W10126   3.179   2.406   7.529 -0.1125  0.0336  0.0329
67189W        W10127   4.593   1.582   6.417 -0.1966 -0.0008 -0.1205
67190W        W10128   4.527   3.778  10.277 -0.4511 -0.1720  0.2041
67191W        W10129   0.784  34.027  12.398  0.0647 -0.3722  0.0687
67192W        W10130   4.080   0.116   8.572  0.3368  0.1060 -0.2858
67193W        W10131   6.581   1.785   7.887 -0.1255  0.0337 -0.2498
67194W        W10132   4.371   0.258  10.030 -0.2198  0.1119  0.5055
67195W        W10133   4.044  33.408   9.254  0.0079  0.1847  0.0239
67196W        W10134   6.264   2.667   7.321  0.2089  0.0443 -0.0828
67197W        W10135   6.399   3.487   8.955 -0.0654 -0.1516 -0.1616
67198W        W10136   4.040   1.136   8.820  0.0888  0.3080 -0.0031
67199W        W10137   3.876   2.368   6.877  0.0448 -0.1480 -0.0668
67200W        W10138   3.682   0.585   9.555  0.0407  0.0600 -0.2461
67201W        W10139   5.439   1.739   8.795 -0.0687  0.0502  0.1729
67202W        W10140   6.483   2.203   7.481 -0.0935 -0.0220  0.2775
67203W        W10141   7.084   2.122   7.551  0.0188 -0.1428  0.4581
67204W        W10142   3.454  34.306  10.026  0.1634  0.3879  0.3631
67205W        W10143   7.447   1.508   8.000 -0.2544 -0.0644  0.2894
67206W        W10144   7.422   1.223  10.153  0.1144 -0.0379  0.1859
67207W        W10145   6.884   0.010   9.194  0.1783  0.2678 -0.1745
67208W        W10146   7.026   0.998   8.363  0.1920 -0.0474  0.0607
67209W        W10147   8.459   3.041   9.413 -0.0645 -0.0169 -0.0386
67210W        W10148   4.158   0.784   7.619  0.2702  0.2143  0.0732
67211W        W10149   5.447  34.474   8.868 -0.0064  0.3146 -0.2173
67212W        W10150   5.002   1.427   6.843 -0.2217  0.2266  0.1651
67213W        W10151   4.086   2.536  10.077 -0.1093 -0.0136  0.2379
67214W        W10152   4.785   0.535   9.052  0.1375  0.0171  0.1289
67215W        W10153   7.977   2.928   9.911  0.0361  0.2050 -0.1239
67216W        W10154   4.654   1.327   8.367 -0.0092 -0.0473 -0.0737
67217W        W10155   7.432   3.148   7.614 -0.0141 -0.0107  0.2468
67218W        W10156   5.726   2.781   9.832 -0.0530  0.0555  0.0204
67219W        W10157   4.218   3.680   9.810 -0.1241 -0.0979  0.0746
67220W        W10158   7.218   2.508   9.385 -0.0620 -0.0274  0.0973
67221W        W10159   3.302  34.025   9.652 -0.1690  0.2047  0.2744
67222W        W10160   3.763   1.761   9.594  0.0575 -0.0459 -0.0674
67223W        W10161   6.920   1.669  10.301 -0.1434  0.5820  0.0547
67224W        W10162   6.623   1.344   9.905  0.0037 -0.1552  0.0690
67225W        W10163   3.914   0.053   9.828  0.1455  0.2955  0.0949
67226W        W10164   4.085  34.314   8.433  0.0985  0.1538  0.0992
67227W        W10165   5.042   3.619  10.195 -0.0760 -0.4829 -0.1645
67228W        W10166   8.432   2.477   9.761  0.1617  0.4243  0.1171
67229W        W10167   4.481   6.170   2.639  0.0607 -0.0676 -0.0321
67230W        W10168   4.069   4.789  31.663  0.3996 -0.3350  0.1679
67231W        W10169   6.130   5.101   0.021  0.0350  0.0872 -0.2839
67232W        W10170   7.482   3.987   1.123 -0.4019 -0.0318  0.3077
67233W        W10171   2.852   4.859   2.904  0.0627  0.0711  0.0831
67234W        W10172   4.293   6.942  31.856 -0.5761 -0.2824 -0.1913
67235W        W10173   3.152   5.260   3.014 -0.0261  0.0784 -0.1671
67236W        W10174   6.510   5.071   1.962  0.0341  0.0067 -0.0862
67237W        W10175   7.084   5.729   2.888  0.1146  0.3014 -0.1937
67238W        W10176   6.383   6.466  30.920 -0.0649  0.0288  0.3485
67239W        W10177   4.774   2.621   1.477  0.3440  0.0930  0.1599
67240W        W10178   5.722   6.077   2.931  0.0961  0.1441 -0.2596
67241W        W10179   6.241   4.491   0.650  0.2098  0.0459  0.0367
67242W        W10180   3.251   4.426   2.721 -0.1983 -0.3071  0.1490
67243W        W10181   6.506   5.640   2.390 -0.0299  0.0383 -0.2152
67244W        W10182   3.447   5.290   0.811  0.3168  0.1772 -0.0739
67245W        W10183   4.564   4.235   3.014 -0.2827 -0.1073  0.2989
67246W        W10184   5.116   4.449   1.118 -0.2228  0.1653 -0.1886
67247W        W10185   6.452   6.470   1.814 -0.1282 -0.1976 -0.1589
67248W        W10186   6.467   3.386   1.881 -0.1255 -0.0244  0.0618
67249W        W10187   5.281   3.236   3.024 -0.0784  0.1918 -0.0410
67250W        W10188   5.789   6.024   2.375  0.0979 -0.0311 -0.1404
67251W        W10189   3.049   5.194   0.450  0.0188  0.3025  0.1704
67252W        W10190   2.663   5.706   0.751  0.1671  0.2250  0.0080
67253W        W10191   4.713   3.992   3.456 -0.0263 -0.0233  0.0072
67254W        W10192   7.188   4.273   1.892 -0.0236 -0.0300 -0.3685
67255W        W10193   6.947   5.262   1.831 -0.1581 -0.0376  0.0807
67256W        W10194   4.447   4.664   2.266  0.0018  0.1183  0.0213
67257W        W10195   6.553   5.523   1.675 -0.0857  0.3165  0.1274
67258W        W10196   5.824   4.512   2.458  0.2700  0.2251 -0.1279
67259W        W10197   2.485   6.710   2.535 -0.1190  0.2128 -0.4992
67260W        W10198   3.652   5.540   1.283 -0.0699 -0.2080 -0.0994
67261W        W10199   5.594   5.573   1.981 -0.1761 -0.2267  0.2294
67262W        W10200   7.348   5.752   0.889  0.0201  0.2180 -0.0855
67263W        W10201   6.632   5.986   2.966  0.3382  0.1653 -0.0199
67264W        W10202   5.335   6.227   3.739  0.3987  0.0822 -0.0336
67265W        W10203   3.262   7.109  31.922 -0.1716 -0.0155  0.0454
67266W        W10204   5.855   5.042   4.129  0.1309  0.0464  0.1043
67267W        W10205   5.953   6.455   2.563  0.3113 -0.0439 -0.2001
67268W        W10206   6.348   3.921   3.655 -0.0456 -0.1339  0.0610
67269W        W10207   4.601   4.563   1.412  0.0092  0.1184  0.1500
67270W        W10208   4.435   5.242   0.064  0.0244 -0.0704 -0.4844
67271W        W10209   5.116   4.446   0.593  0.1998 -0.1837 -0.0263
67272W        W10210   4.215   7.191   3.761  0.0785  0.2509  0.0230
67273W        W10211   4.212   6.581   1.891  0.2808 -0.1742  0.1389
67274W        W10212   5.871   3.683   3.677  0.3277 -0.0108  0.0114
67275W        W10213   3.799   5.918   1.570 -0.2999 -0.1113 -0.1453
67276W        W10214   6.008   5.619  31.203 -0.2244 -0.1126 -0.0275
67277W        W10215   5.482   2.554   1.037  0.0826 -0.3028 -0.2468
67278W        W10216   5.788   3.030   0.645 -0.0962 -0.1353 -0.2192
67279W        W10217   5.168   3.974   1.218  0.1387 -0.0016 -0.0670
67280W        W10218   4.774   7.634   2.190  0.0876  0.0132 -0.0237
67281W        W10219   4.980   3.712   2.571  0.3026  0.0176 -0.3941
67282W        W10220   8.478   5.878   1.766 -0.0737 -0.4258 -0.4399
67283W        W10221   5.696   4.077   1.252  0.2397  0.1985  0.0887
67284W        W10222   6.916   5.264   2.309  0.1528 -0.1259 -0.1305
67285W        W10223   4.436   6.633   2.519  0.0316  0.0139  0.1048
67286W        W10224   3.185   6.126   2.664 -0.2285 -0.1170 -0.0302
67287W        W10225   7.941   6.938   1.800  0.1482  0.0884 -0.1762
67288W        W10226   8.176   7.574   1.432  0.1623  0.1711 -0.0605
67289W        W10227   4.931   6.330   0.513  0.5505  0.1312  0.0669
67290W        W10228   4.210   4.404   1.166  0.0445  0.0980 -0.0911
67291W        W10229   4.608   5.704   2.822  0.0603 -0.2310  0.0604
67292W        W10230   1.590   4.687   2.617  0.0757  0.0810 -0.1513
67293W        W10231   4.881   4.255  30.823 -0.0940 -0.1210 -0.3930
67294W        W10232   7.620   5.117   3.064  0.1422  0.3548 -0.0269
67295W        W10233   2.312   6.304   2.177 -0.0060  0.2192  0.0735
67296W        W10234   6.994   4.760   1.956  0.1413  0.3450  0.1080
67297W        W10235   4.393   5.759   2.322 -0.0795  0.0192  0.0095
67298W        W10236   6.939   6.379   1.661  0.0323  0.0170  0.0147
67299W        W10237   6.353   5.530   0.409 -0.0400 -0.0421  0.0659
67300W        W10238   5.755   4.731   1.940  0.2865 -0.0581  0.0414
67301W        W10239   7.967   3.170   2.841  0.1062 -0.1857  0.0600
67302W        W10240   5.239   4.017  31.739 -0.1138  0.1801 -0.0688
67303W        W10241   5.228   5.760   1.611  0.0811  0.0964 -0.0611
67304W        W10242   7.169   5.011   3.533  0.4328  0.0418 -0.0671
67305W        W10243   8.672   6.900   0.639 -0.0686  0.1642  0.0109
67306W        W10244   4.775   5.583   3.305 -0.2343  0.1180 -0.0480
67307W        W10245   4.164   4.115   1.755 -0.0403 -0.3623  0.2427
67308W        W10246   5.390   5.304   3.834 -0.3554  0.2347 -0.1417
67309W        W10247   4.825   6.666  31.157  0.3456 -0.1415 -0.4824
67310W        W10248   3.960   6.863   2.868 -0.1231  0.0914  0.2615
67311W        W10249   3.689   5.858  30.949 -0.0968  0.0387  0.1071
67312W        W10250   4.126   4.451   2.733 -0.0648 -0.0960 -0.3292
67313W        W10251   4.163   5.461   3.905 -0.3309  0.0009  0.1535
67314W        W10252   6.190   4.732   1.706  0.0108 -0.2163 -0.3183
67315W        W10253   3.714   2.781   3.379 -0.3031 -0.1291  0.0826
67316W        W10254   5.962   3.311   2.767  0.3552 -0.1269 -0.1925
67317W        W10255   4.710   7.392   1.716  0.2232 -0.0599  0.0779
67318W        W10256   5.528   5.778  31.934  0.3669 -0.3342  0.2176
67319W        W10257   6.708   4.228   1.709 -0.1454  0.2664 -0.6445
67320W        W10258   7.457   6.524  31.813 -0.2516  0.1473  0.1560
67321W        W10259   1.063   5.686   2.042 -0.1247 -0.0022 -0.1216
67322W        W10260   4.169   5.573   1.460 -0.2344  0.1945 -0.0077
67323W        W10261   5.260   3.875   3.841  0.0086 -0.3347 -0.3166
67324W        W10262   3.847   5.315   3.489 -0.1695 -0.0887  0.2807
67325W        W10263   6.866   4.881   2.579 -0.1552  0.0745  0.4143
67326W        W10264   4.889   4.184  31.313  0.5937 -0.1143  0.1433
67327W        W10265   7.741   4.719   2.296 -0.2546 -0.2285  0.0371
67328W        W10266   5.086   4.847   1.554  0.1614 -0.0932 -0.1431
67329W        W10267   5.331   6.149   0.762 -0.1220  0.0921  0.1692
67330W        W10268   6.074   3.833   3.285  0.0117 -0.0419 -0.2156
67331W        W10269   5.650   7.779  31.235  0.2825  0.1396 -0.2203
67332W        W10270   7.394   6.738   2.614 -0.1071 -0.0583 -0.1242
67333W        W10271   6.498   6.076   1.474  0.1596  0.2822 -0.0140
67334W        W10272   3.562   3.803   3.463 -0.0070  0.1194 -0.1637
67335W        W10273   4.873   4.076   0.734  0.0747  0.0248 -0.4890
67336W        W10274   4.126   6.272   1.405  0.0638 -0.1464 -0.0341
67337W        W10275   3.859   5.215   1.669 -0.0675 -0.0158 -0.1411
67338W        W10276   5.930   4.541  31.855 -0.2910 -0.2354 -0.3210
67339W        W10277   5.388   6.325   1.778  0.1942 -0.0734 -0.1563
67340W        W10278   5.883   5.222   0.461  0.1019 -0.0321 -0.1779
67341W        W10279   3.881   5.817   3.231  0.0102  0.3570 -0.3046
67342W        W10280   6.751   3.959   4.003  0.3033  0.2363 -0.1094
67343W        W10281   7.178   6.651   1.266 -0.1637  0.2247 -0.1745
67344W        W10282   6.056   5.802   1.898  0.0798  0.4847  0.3445
67345W        W10283   2.661   3.087   0.127  0.1674  0.0247  0.3572
67346W        W10284   5.029   6.522   2.062  0.0535  0.0027 -0.0374
67347W        W10285   3.822   7.761   0.862 -0.1057 -0.1887 -0.0934
67348W        W10286   3.625   5.964   2.438 -0.1520  0.1937 -0.4350
67349W        W10287   4.279   5.432   1.912 -0.0897  0.1132 -0.1361
67350W        W10288   6.456   3.796   1.451  0.0478 -0.0469  0.2362
67351W        W10289   3.634   4.547   4.070 -0.1131  0.2641  0.1459
67352W        W10290   6.414   4.356   3.891 -0.0278 -0.2631 -0.0260
67353W        W10291   3.954   4.371  31.258  0.1608  0.1590  0.2496
67354W        W10292   3.819   5.414   2.943  0.0537 -0.4238  0.1122
67355W        W10293   5.819   4.108   1.933 -0.1788 -0.0065 -0.0155
67356W        W10294   6.886   5.590   0.141  0.1330 -0.1291  0.0081
67357W        W10295   4.701   4.516   1.863  0.1280 -0.2260  0.0548
67358W        W10296   7.749   5.877   1.857 -0.4369  0.0863 -0.1662
67359W        W10297   6.691   5.234   1.341  0.0277  0.3010 -0.3186
67360W        W10298   4.786   5.354   0.449  0.2542 -0.2865  0.1855
67361W        W10299   4.645   5.324   3.769  0.1627 -0.0007 -0.3621
67362W        W10300   5.926   6.524   1.003  0.0088 -0.0995 -0.1777
67363W        W10301   4.776   4.832   0.596  0.0489 -0.1349 -0.2989
67364W        W10302   5.376   4.206  31.073 -0.1582 -0.3923 -0.0204
67365W        W10303   7.180   7.170   1.173 -0.2009  0.1108  0.0323
67366W        W10304   3.498   6.097   3.483 -0.0449 -0.0389 -0.1514
67367W        W10305   4.342   5.293   2.863 -0.1122  0.0861  0.1353
67368W        W10306   5.435   7.195   0.628  0.0422  0.1123  0.2371
67369W        W10307   4.061   4.352   4.504  0.1945 -0.1718  0.1849
67370W        W10308   6.764   4.150   0.149  0.2608  0.1761  0.1889
67371W        W10309   5.079   3.453   1.442 -0.2351  0.0533 -0.0423
67372W        W10310   1.794   7.556  31.527  0.0796 -0.2021 -0.0967
67373W        W10311   7.509   5.776   1.354  0.1378  0.2338  0.1587
67374W        W10312   7.468   3.475   2.868 -0.1430  0.2246 -0.0455
67375W        W10313   4.561   1.637   2.962  0.2757 -0.2105  0.4497
67376W        W10314   6.645   3.934   2.248 -0.1717 -0.2786  0.0105
67377W        W10315   7.669   4.238   0.353  0.1366  0.1001 -0.0062
67378W        W10316   6.736   5.888   1.976 -0.2252 -0.0537  0.1415
67379W        W10317   5.479   5.389  31.527  0.0180 -0.3136  0.1411
67380W        W10318   5.922   2.919   3.088  0.1707  0.4243 -0.0665
67381W        W10319   3.511   6.590   3.205  0.0011  0.2111 -0.1488
67382W        W10320   3.600   7.185   2.430 -0.0387  0.2240  0.2908
67383W        W10321   6.095   4.667   2.922 -0.0340  0.0882  0.2208
67384W        W10322   6.108   5.749   1.422  0.0224 -0.3321 -0.0040
67385W        W10323   5.194   2.974   2.200  0.1022 -0.1496 -0.0311
67386W        W10324   5.537   3.592   1.147 -0.1668  0.1658 -0.0505
67387W        W10325   3.154   7.620   0.069  0.1337 -0.0795  0.0801
67388W        W10326   4.918   4.960   1.123  0.2157 -0.0686  0.0732
67389W        W10327   3.897   2.452   2.004 -0.1020 -0.1155 -0.3571
67390W        W10328   6.351   6.734   2.316  0.0217  0.0624  0.0935
67391W        W10329   4.668   5.722   0.127  0.0330  0.1038  0.3720
67392W        W10330   6.889   6.101   2.499 -0.0297 -0.0588  0.1308
67393W        W10331   4.693   5.835   0.597 -0.0399  0.1819 -0.0699
67394W        W10332   7.220   2.926   2.165  0.3715  0.4860  0.2032
67395W        W10333   4.295   7.007   1.553 -0.1729 -0.0275  0.2044
67396W        W10334   5.235   4.878  31.680  0.0623  0.1795  0.0918
67397W        W10335   3.920   4.171   0.386 -0.0076  0.0607 -0.1789
67398W        W10336   6.492   3.931   2.714 -0.3131 -0.2496 -0.0735
67399W        W10337   7.473   6.274   1.606  0.3365  0.0561  0.0140
67400W        W10338   3.673   4.562   2.873 -0.4563 -0.0651 -0.1377
67401W        W10339   4.922   3.144   2.564  0.0150 -0.0482 -0.2434
67402W        W10340   5.292   5.494   2.395 -0.2461 -0.4051 -0.2228
67403W        W10341   4.887   4.888   2.346 -0.1332  0.0863  0.1750
67404W        W10342   5.888   3.177   1.101 -0.2134  0.0180 -0.0906
67405W        W10343   6.344   4.239   3.080 -0.1507 -0.0052  0.0831
67406W        W10344   3.433   5.490   1.797  0.0404  0.0104 -0.3233
67407W        W10345   4.515   4.373   0.378 -0.0418  0.3578 -0.0340
67408W        W10346   7.781   3.827   1.923  0.0031  0.0740 -0.1107
67409W        W10347   5.181   5.096   0.735 -0.3994  0.2814  0.2773
67410W        W10348   3.538   6.475   1.321  0.1518  0.0833  0.2132
67411W        W10349   5.888   6.910   0.641 -0.0087  0.4976  0.1202
67412W        W10350   3.966   5.826  31.465 -0.1563  0.2262 -0.2151
67413W        W10351   4.629   6.258   2.151 -0.1303  0.1374 -0.0399
67414W        W10352   3.131   5.390   4.256  0.1013  0.1576  0.1202
67415W        W10353   6.294   3.618   2.380 -0.0818  0.0079  0.0081
67416W        W10354   5.441   4.389   2.101 -0.0969 -0.1878 -0.0379
67417W        W10355   4.106   4.953   2.066 -0.1258  0.3694 -0.2811
67418W        W10356   5.781   4.493   3.210  0.0616 -0.0065  0.2941
67419W        W10357   5.255   5.918   3.319 -0.0282 -0.1126  0.0321
67420W        W10358   4.397   2.969   2.594 -0.3365 -0.0862  0.2781
67421W        W10359   4.248   5.906   3.677 -0.0016  0.0747  0.0496
67422W        W10360   6.146   4.129   1.512  0.0847  0.0040 -0.2610
67423W        W10361   6.153   7.180   0.114  0.1664  0.2798 -0.1788
67424W        W10362   6.247   4.634   3.480  0.2738  0.1646  0.3076
67425W        W10363   4.697   7.337  31.754  0.3392 -0.1096  0.0827
67426W        W10364   3.589   6.124   2.999  0.2461  0.2005 -0.1785
67427W        W10365   4.647   5.401   0.984 -0.2407  0.3426 -0.0001
67428W        W10366   5.129   3.511   4.082  0.1464  0.3731 -0.2700
67429W        W10367   3.330   5.577   2.642  0.1488  0.0943 -0.2038
67430W        W10368   4.924   6.128   1.703  0.1644 -0.1473  0.4279
67431W        W10369   4.872   5.869   2.420  0.0312 -0.0181  0.0205
67432W        W10370   5.590   4.405   0.886 -0.0005 -0.0715 -0.0305
67433W        W10371   5.930   6.822  31.794 -0.0034 -0.0280 -0.0356
67434W        W10372   5.506   4.811   0.551 -0.2165 -0.0359  0.2238
67435W        W10373   7.128   3.609   3.687  0.1421 -0.3932  0.6122
67436W        W10374   6.937   4.801   1.124  0.0891  0.1362  0.0685
67437W        W10375   5.696   3.059   2.293 -0.0495  0.0652 -0.3505
67438W        W10376   5.048   4.303   3.260 -0.0515  0.0285 -0.0013
67439W        W10377   6.025   5.410   2.242 -0.4292 -0.0583 -0.1800
67440W        W10378   2.032   4.903   2.576 -0.2483 -0.0643 -0.0086
67441W        W10379   5.960   7.993   3.789 -0.0958  0.1369 -0.4739
67442W        W10380   4.237   5.054   4.275 -0.2039 -0.1411  0.2729
67443W        W10381   5.310   2.724   1.461 -0.5500 -0.0292 -0.4118
67444W        W10382   6.698   3.811  30.752  0.1274  0.0306 -0.2675
67445W        W10383   4.933   4.527   2.790  0.0945  0.1565 -0.1075
67446W        W10384   6.647   6.761   1.425 -0.1630  0.0397  0.1046
67447W        W10385   5.970   6.256   1.428  0.3583 -0.0813 -0.4724
67448W        W10386   6.351   4.378   2.530  0.0665 -0.0925 -0.1580
67449W        W10387   1.641   5.110   2.278 -0.2471 -0.2202  0.0994
67450W        W10388   6.934   5.102   0.466  0.2867  0.0418  0.1324
67451W        W10389   3.817   6.645  31.722 -0.4359  0.0020  0.2277
67452W        W10390   5.459   4.837   1.212  0.1699 -0.1704  0.0488
67453W        W10391   4.965   3.577   3.536  0.0098  0.2188  0.2326
67454W        W10392   5.375   4.716   2.540 -0.0208  0.1104 -0.2881
67455W        W10393   5.521   5.047   1.661 -0.2528  0.1013  0.1340
67456W        W10394   7.178   3.958   2.280  0.1519  0.1816 -0.1941
67457W        W10395   6.250   3.111   2.377 -0.2328 -0.0750  0.0509
67458W        W10396   3.935   3.783   4.466  0.0685 -0.0220 -0.1784
67459W        W10397   3.998   2.938   2.319  0.2750  0.0037 -0.1783
67460W        W10398   4.745   6.074   3.596 -0.0117  0.0749  0.0168
67461W        W10399   5.627   5.104   0.002  0.0367 -0.0077  0.1066
67462W        W10400   6.452   2.555   3.206 -0.2928 -0.0548  0.1870
67463W        W10401   7.590   4.408   1.465  0.0280 -0.0406 -0.2163
67464W        W10402   5.777   6.345   0.542 -0.1104 -0.0980 -0.4421
67465W        W10403   2.903   5.223   1.753  0.0705  0.2616  0.1816
67466W        W10404   6.964   4.389   4.083  0.0986  0.1087 -0.0180
67467W        W10405   5.157   5.359   1.252  0.2420  0.0625  0.2291
67468W        W10406   4.940   4.367   2.285 -0.0618  0.1762 -0.3358
67469W        W10407   6.493   6.784  31.872  0.1391  0.2843 -0.0324
67470W        W10408   6.722   7.042   2.116 -0.0489 -0.0200  0.3000
67471W        W10409   7.098   4.314   1.413  0.2079  0.0559 -0.3862
67472W        W10410   2.583   5.258   2.620  0.0242 -0.2109 -0.1725
67473W        W10411   3.786   7.371   3.242 -0.1408  0.1320 -0.2960
67474W        W10412   4.933   3.639  31.833 -0.1756  0.0650 -0.0767
67475W        W10413   7.340   3.884  31.638  0.0294  0.2212 -0.0741
67476W        W10414   5.946   5.418   3.472  0.0174  0.0274 -0.1733
67477W        W10415   6.661   4.614   2.957  0.1081 -0.1474 -0.0362
67478W        W10416   5.224   2.888   0.653  0.0213  0.0345  0.5515
67479W        W10417   7.093   5.711   2.313  0.3029  0.1220  0.0416
67480W        W10418   2.396   5.324   0.485  0.0051 -0.1047  0.0053
67481W        W10419   6.109   5.223   1.234 -0.0727 -0.0451  0.0392
67482W        W10420   4.475   8.290   2.803 -0.0873 -0.0083  0.3407
67483W        W10421   2.644   6.503   2.999  0.0247 -0.1427 -0.0059
67484W        W10422   5.095   5.864   1.108 -0.2091  0.2363 -0.1083
67485W        W10423   5.253   2.344   2.526  0.0576  0.0888  0.0527
67486W        W10424   7.586   5.568   2.205 -0.0080 -0.0650  0.0898
67487W        W10425   5.631   5.067   2.262  0.2836 -0.0912  0.0403
67488W        W10426   6.820   4.490   3.427 -0.3983  0.0359 -0.2874
67489W        W10427   5.998   6.739   2.966 -0.1245 -0.1836  0.0517
67490W        W10428   4.155   4.459   3.260 -0.0566 -0.1086 -0.0327
67491W        W10429   4.820   5.676   1.962  0.0817 -0.0433  0.2824
67492W        W10430   7.914   5.934   2.761 -0.0647  0.3714  0.1747
67493W        W10431   4.465   5.126   2.366  0.3082 -0.1914  0.2792
67494W        W10432   2.025   4.559   3.100  0.0069 -0.1442  0.1359
67495W        W10433   5.344   4.216   2.755  0.1140 -0.3094  0.0556
67496W        W10434   5.640   5.904   1.090 -0.1210 -0.1312  0.1268
67497W        W10435   5.972   5.203   1.788 -0.0208 -0.0720 -0.0265
67498W        W10436   5.242   5.598   0.752  0.0228  0.0396  0.1939
67499W        W10437   2.320   6.999   2.942  0.0978 -0.1753 -0.0999
67500W        W10438   2.754   6.609   2.141 -0.4616 -0.4174 -0.1268
67501W        W10439   2.704   5.622   2.118 -0.2209 -0.3230 -0.1827
67502W        W10440   5.660   5.835   0.567 -0.1264 -0.0602 -0.0957
67503W        W10441   4.945   6.808  31.715 -0.2261  0.0915  0.2996
67504W        W10442   5.730   7.162   1.623 -0.2897  0.4090 -0.1177
67505W        W10443   5.939   4.742   0.345  0.1207 -0.4212  0.1008
67506W        W10444   4.730   6.673   1.613 -0.0589  0.2967  0.1126
67507W        W10445   2.527   6.464  31.824  0.1732 -0.0182 -0.0464
67508W        W10446   5.109   6.690   0.188  0.0818 -0.2464 -0.1027
67509W        W10447   5.478   6.394   2.352  0.1295 -0.5298 -0.0759
67510W        W10448   7.300   6.381   2.291 -0.1022 -0.2363 -0.0523
67511W        W10449   6.132   3.333   0.155  0.0999  0.0775 -0.2077
67512W        W10450   7.580   5.260   1.775 -0.1657  0.1398 -0.3504
67513W        W10451   5.959   4.551   1.300  0.0700 -0.0378  0.3057
67514W        W10452   6.489   7.147   4.082 -0.1795 -0.4141  0.3136
67515W        W10453   5.483   3.696   2.777  0.1270  0.1718 -0.2448
67516W        W10454   6.633   4.225  31.196 -0.1992 -0.1059 -0.2791
67517W        W10455   3.956   4.929   3.138  0.2082 -0.0831 -0.3426
67518W        W10456   6.268   3.321   3.248  0.0162  0.0440  0.0688
67519W        W10457   3.535   6.616   3.854  0.0898  0.0439  0.3326
67520W        W10458   6.033   5.883  31.655 -0.0594  0.0798 -0.2139
67521W        W10459   3.989   5.219   0.981 -0.0784  0.1610  0.0065
67522W        W10460   3.597   5.111   2.136 -0.0492  0.1230  0.0764
67523W        W10461   7.214   3.369   2.475  0.1038 -0.1739  0.2427
67524W        W10462   5.623   5.348   0.914  0.2126 -0.0509 -0.2081
67525W        W10463   5.434   3.962   1.628  0.2698  0.0493  0.3964
67526W        W10464   5.536   6.843   2.055  0.3468 -0.0259 -0.0170
67527W        W10465   5.327   5.987   2.635  0.0373  0.4722  0.1167
67528W        W10466   4.938   7.127   2.043 -0.2049  0.0679  0.0423
67529W        W10467   4.879   3.293   0.757 -0.0139 -0.1399  0.2301
67530W        W10468   9.417   4.619   0.228 -0.1185  0.1318 -0.1577
67531W        W10469   3.436   4.404   3.400 -0.1434 -0.0222  0.2546
67532W        W10470   7.485   2.988   2.928  0.0025 -0.0926 -0.2931
67533W        W10471   3.873   4.886   1.363 -0.1308  0.1358 -0.3327
67534W        W10472   8.016   4.085   0.725 -0.1555 -0.1213  0.1152
67535W        W10473   4.319   4.223   3.688 -0.0885  0.0498 -0.1033
67536W        W10474   3.158   5.731   2.202 -0.0764  0.1997  0.1426
67537W        W10475   6.340   5.131   0.827 -0.1054 -0.0082 -0.5920
67538W        W10476   8.506   5.399   2.225 -0.3102 -0.2590  0.1350
67539W        W10477   6.179   6.103   0.946 -0.3685  0.1162  0.5653
67540W        W10478   5.727   6.912   4.106 -0.2481  0.0779  0.0615
67541W        W10479   3.932   3.437   2.520 -0.0635 -0.1106  0.0007
67542W        W10480   6.386   4.719   1.138  0.0223 -0.0020 -0.1160
67543W        W10481   6.359   6.114   2.279 -0.0652 -0.2685  0.1779
67544W        W10482   6.175   4.841   2.247 -0.1286 -0.1073 -0.1274
67545W        W10483   7.027   6.506   2.956  0.0199  0.2086 -0.1176
67546W        W10484   2.641   4.790   1.823 -0.0686  0.1947 -0.1629
67547W        W10485   6.387   5.715  30.911 -0.0577  0.1605  0.0719
67548W        W10486   7.325   4.910   2.685 -0.2202 -0.1113 -0.1082
67549W        W10487   5.486   6.383   1.217  0.1669  0.1084  0.5038
67550W        W10488   6.335   7.137   1.724 -0.4255  0.0173  0.0401
67551W        W10489   6.877   6.901   0.284 -0.0921 -0.0890  0.0528
67552W        W10490   3.505   5.032   2.697  0.2466  0.1092 -0.2630
67553W        W10491   6.665   5.468   2.808  0.1783 -0.0695  0.2645
67554W        W10492   7.165   6.048   1.955 -0.3519  0.2633 -0.0306
67555W        W10493   5.174   4.799   2.003 -0.2706  0.2209  0.2956
67556W        W10494   4.267   5.513   3.397 -0.3051 -0.3132 -0.2428
67557W        W10495   4.509   6.304   0.773 -0.2956  0.1548  0.1193
67558W        W10496   7.248   4.501   2.369 -0.2141  0.1316  0.2535
67559W        W10497   6.930   3.177   1.910  0.1546 -0.3459  0.0981
67560W        W10498   5.109   5.798   0.304 -0.0770 -0.1311  0.2429
67561W        W10499   6.930   2.490   4.168  0.2385 -0.1958 -0.0565
67562W        W10500   5.087   5.669   2.929  0.2163 -0.2046  0.0419
67563W        W10501   4.684   5.082   3.321  0.1791  0.4029  0.0870
67564W        W10502   4.304   4.798   0.262 -0.1853  0.3238 -0.1896
67565W        W10503   5.126   3.094   3.574 -0.3366  0.1814  0.1651
67566W        W10504   5.463   5.428   0.334  0.1798 -0.0248  0.3296
67567W        W10505   4.960   6.408   1.030 -0.1516  0.3511 -0.3977
67568W        W10506   7.275   5.610   1.758 -0.3140 -0.2006 -0.5295
67569W        W10507   5.081   4.392   1.594 -0.2112 -0.2900  0.2301
67570W        W10508   8.047   5.985   1.469  0.2660 -0.0358  0.0814
67571W        W10509   5.557   4.461   1.585 -0.0573  0.0174 -0.5543
67572W        W10510   5.570   3.255   1.467 -0.0060  0.2125 -0.0300
67573W        W10511   8.072   4.142   0.085 -0.2877 -0.2359 -0.2170
67574W        W10512   3.407   5.668   3.291 -0.0092 -0.1224 -0.3550
67575W        W10513   2.155   5.372  31.058 -0.2119  0.2001 -0.3396
67576W        W10514   5.002   7.179   0.287  0.0671  0.2422 -0.0282
67577W        W10515   4.085   4.368   2.176 -0.1280  0.1942 -0.1634
67578W        W10516   6.045   2.346   3.048 -0.0230  0.1393  0.1250
67579W        W10517   3.579   3.991   2.970 -0.1949  0.3539 -0.0398
67580W        W10518   3.649   6.463   1.821  0.2274  0.1730  0.2448
67581W        W10519   4.646   4.450   0.918 -0.0847 -0.4008 -0.3040
67582W        W10520   6.571   5.796   1.048  0.0386  0.1884 -0.0381
67583W        W10521   4.194   4.654   1.687 -0.1851  0.0327 -0.1351
67584W        W10522   3.631   4.661   2.363  0.2790  0.3102  0.1753
67585W        W10523   5.639   6.700   0.252  0.0173 -0.3218 -0.1387
67586W        W10524   6.124   6.665   0.251  0.2353 -0.1452  0.0973
67587W        W10525   5.450   4.428   0.126  0.1587  0.1244  0.0746
67588W        W10526   6.176   7.476   3.649 -0.1931  0.1175 -0.0287
67589W        W10527   3.236   4.722   0.852  0.0055  0.2965  0.1142
67590W        W10528   5.892   2.707   2.636 -0.0430 -0.0444  0.1408
67591W        W10529   5.227   2.229   1.508 -0.0579  0.1244 -0.2625
67592W        W10530   4.360   3.439   0.548  0.2058 -0.0213  0.1660
67593W        W10531   4.470   4.239   2.477  0.3420 -0.0823  0.0018
67594W        W10532   4.227   7.494   1.600  0.0366 -0.3146 -0.0856
67595W        W10533   7.782   6.469  31.458 -0.0386  0.3030 -0.1111
67596W        W10534   3.977   4.911   2.642 -0.1262 -0.0189  0.0384
67597W        W10535   5.583   5.766   3.793 -0.2500 -0.2758  0.0927
67598W        W10536   3.366   2.831   4.662  0.2386 -0.0197 -0.1270
67599W        W10537   7.313   4.474   1.017  0.1562  0.2951 -0.1408
67600W        W10538   4.353   5.982   3.199 -0.1412  0.5154  0.4280
67601W        W10539   7.391   6.273   0.665 -0.0026  0.1898  0.0888
67602W        W10540   8.073   4.819   1.894  0.1921  0.1121 -0.1620
67603W        W10541   7.348   4.911   1.387 -0.1403 -0.1746  0.0099
67604W        W10542   3.692   3.744   4.015 -0.0862 -0.0897  0.1179
67605W        W10543   2.812   7.049   2.749 -0.2410  0.0351 -0.1781
67606W        W10544   5.806   6.987   2.532  0.1965  0.3974 -0.3210
67607W        W10545   3.793   3.845   1.703  0.1879 -0.0286  0.1717
67608W        W10546   5.946   4.814   0.898 -0.0321  0.0275 -0.0680
67609W        W10547   5.998   7.584   0.990  0.2721  0.1520 -0.0933
67610W        W10548   1.848   4.541   1.500 -0.0836 -0.0319  0.1261
67611W        W10549   6.975   5.913   1.413  0.0823 -0.1088 -0.0159
67612W        W10550   5.828   4.191   4.195  0.0372  0.2374 -0.3154
67613W        W10551   5.349   5.181   2.744  0.0560 -0.0999 -0.3259
67614W        W10552   6.142   5.997   4.342 -0.1648 -0.3096 -0.0827
67615W        W10553   6.328   4.798  31.736 -0.4120  0.3905  0.0186
67616W        W10554   7.248   5.152   0.023 -0.2067 -0.4292  0.1544
67617W        W10555   7.049   7.015   1.693 -0.0573 -0.0687  0.0130
67618W        W10556   6.230   7.074   3.242  0.0389  0.0836  0.2069
67619W        W10557   5.737   5.510   2.622  0.0923 -0.0555  0.1062
67620W        W10558   6.172   5.890   2.682 -0.3607 -0.1414  0.0692
67621W        W10559   5.125   3.797   3.121 -0.2639  0.0365 -0.1234
67622W        W10560   5.216   5.292   1.958  0.2158 -0.0397  0.0582
67623W        W10561   4.227   5.842   0.909  0.2315 -0.0734 -0.0915
67624W        W10562   6.694   4.690   1.595  0.2130 -0.3912 -0.0119
67625W        W10563   3.854   5.721   2.027 -0.2045 -0.0327  0.4941
67626W        W10564   5.374   3.861   0.216  0.1537 -0.2273 -0.2652
67627W        W10565   4.880   6.161   3.138  0.0959 -0.0185  0.0257
67628W        W10566   3.981   5.422   2.377  0.0162  0.1073  0.1290
67629W        W10567   6.136   7.232   4.774  0.1430  0.4153  0.0235
67630W        W10568   4.978   4.547   4.297 -0.1479 -0.0637  0.0292
67631W        W10569   4.896   2.998   4.541 -0.2444 -0.1997 -0.1859
67632W        W10570   7.611   4.043   4.403 -0.0175  0.0125  0.0839
67633W        W10571   3.594   4.354   6.384  0.1408  0.0806  0.0926
67634W        W10572   5.290   5.643   5.238  0.0161 -0.0745 -0.0585
67635W        W10573   5.092   3.690   6.197  0.0517 -0.2189  0.0315
67636W        W10574   6.969   4.752   4.970 -0.0064 -0.0783 -0.2238
67637W        W10575   7.616   5.508   6.746  0.2407  0.3160 -0.1612
67638W        W10576   5.933   5.038   2.680 -0.4318 -0.2781 -0.2044
67639W        W10577   4.679   5.169   7.190 -0.2099 -0.2226  0.0311
67640W        W10578   5.616   6.386   6.364 -0.0316  0.0477 -0.2311
67641W        W10579   5.496   2.117   4.784  0.2532 -0.0779  0.3330
67642W        W10580   4.676   2.062   4.774 -0.4083 -0.1432 -0.1059
67643W        W10581   6.856   4.519   6.164 -0.1785 -0.3140 -0.1078
67644W        W10582   3.417   4.969   5.000  0.0731 -0.0327  0.0154
67645W        W10583   4.008   5.168   6.569  0.2756 -0.1012  0.2702
67646W        W10584   4.435   4.259   4.189  0.0609  0.0672  0.0951
67647W        W10585   4.172   7.546   5.963  0.0132 -0.0705 -0.2371
67648W        W10586   5.312   4.050   7.637  0.0855 -0.2350 -0.0135
67649W        W10587   6.438   4.081   7.484 -0.1205 -0.2109 -0.1151
67650W        W10588   4.977   5.537   4.166 -0.0030  0.2814 -0.3249
67651W        W10589   2.133   5.947   3.145 -0.0621  0.0515 -0.0183
67652W        W10590   2.889   4.355   6.606  0.2013 -0.0084  0.0176
67653W        W10591   4.916   5.313   5.484  0.2062 -0.5887  0.1477
67654W        W10592   5.172   3.365   5.154  0.1449 -0.0793  0.0082
67655W        W10593   6.062   3.828   5.107 -0.0065  0.2658  0.1743
67656W        W10594   5.242   6.371   5.515 -0.1284  0.0318 -0.0629
67657W        W10595   4.892   4.773   5.417  0.1921 -0.2059 -0.1482
67658W        W10596   6.167   5.484   7.019  0.0490 -0.0713  0.2212
67659W        W10597   4.171   5.618   4.653 -0.0292  0.0197  0.2544
67660W        W10598   3.328   6.181   4.756 -0.2356  0.2818 -0.0383
67661W        W10599   3.251   5.453   4.694  0.2362 -0.3476 -0.1052
67662W        W10600   7.122   5.197   4.973  0.1640  0.1565  0.0800
67663W        W10601   6.921   7.311   7.022 -0.0702 -0.1983 -0.1886
67664W        W10602   3.571   9.135   7.188 -0.1325 -0.0826 -0.2914
67665W        W10603   3.967   6.345   3.223 -0.0758  0.0122 -0.3124
67666W        W10604   5.970   6.582   6.015  0.1989 -0.0899  0.1500
67667W        W10605   4.438   7.253   6.828 -0.0655 -0.2012 -0.2967
67668W        W10606   5.572   4.114   6.864  0.1796 -0.0953 -0.0898
67669W        W10607   6.836   4.126   3.038  0.1617 -0.2277  0.0232
67670W        W10608   5.720   6.120   4.650  0.2033  0.0925 -0.0536
67671W        W10609   5.644   5.895   6.176 -0.2101  0.2306  0.1623
67672W        W10610   5.104   5.490   7.114 -0.0754 -0.0440  0.3947
67673W        W10611   4.961   7.083   5.224  0.0103  0.0604  0.0677
67674W        W10612   7.102   3.833   6.372 -0.0176  0.1684 -0.0594
67675W        W10613   4.058   6.418   4.979 -0.1773  0.1619  0.2335
67676W        W10614   6.215   5.046   4.451 -0.0968 -0.2485 -0.1005
67677W        W10615   4.851   3.511   2.143 -0.0233  0.1271 -0.2825
67678W        W10616   6.004   3.411   4.199  0.0333  0.0669  0.1164
67679W        W10617   4.293   2.822   4.454  0.0752 -0.2370  0.0880
67680W        W10618   4.499   5.900   4.940  0.2189  0.2891  0.0254
67681W        W10619   4.607   4.845   5.941 -0.1497  0.0386  0.0333
67682W        W10620   6.101   5.084   6.206  0.1207 -0.1852 -0.1948
67683W        W10621   3.433   4.745   5.423  0.3894  0.2806 -0.2047
67684W        W10622   6.699   4.638   6.710 -0.1112 -0.0241  0.3657
67685W        W10623   5.129   6.135   4.574  0.2290  0.2187  0.2442
67686W        W10624   2.896   5.182   6.516 -0.3169  0.1573  0.2051
67687W        W10625   6.207   6.628   4.013  0.2272 -0.0186 -0.2681
67688W        W10626   6.327   5.223   5.336  0.0754 -0.1011  0.3378
67689W        W10627   6.910   5.766   4.385  0.1150  0.0191  0.1309
67690W        W10628   3.489   4.545   4.717  0.0219 -0.0194 -0.0872
67691W        W10629   5.095   6.108   7.202 -0.0252  0.0669 -0.0099
67692W        W10630   4.938   4.235   6.817  0.2735 -0.2306 -0.5283
67693W        W10631   4.253   3.689   3.988 -0.1048  0.2210 -0.0598
67694W        W10632   7.371   6.224   6.231  0.1249 -0.1515 -0.1335
67695W        W10633   4.734   7.352   8.261 -0.1046 -0.1725  0.2870
67696W        W10634   8.134   5.548   4.376 -0.3099  0.0573 -0.2672
67697W        W10635   4.881   5.473   4.990 -0.0607 -0.3070  0.1208
67698W        W10636   6.725   5.186   4.300 -0.2546 -0.1930 -0.1711
67699W        W10637   5.627   5.647   3.216  0.0035 -0.0743 -0.0062
67700W        W10638   5.367   2.683   5.909 -0.1333 -0.0487  0.3627
67701W        W10639   6.542   3.080   6.729  0.2348  0.0551  0.1447
67702W        W10640   4.838   4.468   4.893 -0.2164 -0.1024 -0.4252
67703W        W10641   4.626   5.253   4.496 -0.1485  0.1929 -0.0026
67704W        W10642   6.900   6.363   6.273 -0.2959  0.2110  0.0048
67705W        W10643   5.494   4.455   3.722  0.2647 -0.0114  0.0898
67706W        W10644   3.944   7.316   5.277 -0.3030  0.1639  0.3741
67707W        W10645   5.229   3.477   8.491 -0.3648  0.2922  0.0166
67708W        W10646   4.882   5.646   7.693  0.1335  0.0663  0.3432
67709W        W10647   5.312   6.420   4.177  0.0563 -0.2633  0.0643
67710W        W10648   2.943   5.113   5.166 -0.2030  0.1924  0.1332
67711W        W10649   3.797   4.920   5.747 -0.1840  0.3198 -0.0909
67712W        W10650   3.800   3.123   5.599 -0.2648 -0.4344  0.1293
67713W        W10651   3.744   5.442   6.912 -0.0512  0.0855 -0.3806
67714W        W10652   6.371   2.952   3.514  0.1255 -0.0112 -0.0003
67715W        W10653   5.132   3.495   7.679  0.0921  0.0602  0.1127
67716W        W10654   6.360   2.596   6.024  0.0481  0.2794  0.1650
67717W        W10655   4.781   3.994   5.117  0.0220  0.1012  0.1518
67718W        W10656   7.485   4.827   5.168  0.2749  0.0079 -0.2336
67719W        W10657   5.812   3.471   4.674  0.1349  0.1700  0.0322
67720W        W10658   6.001   7.296   4.231  0.0721 -0.1473  0.0496
67721W        W10659   3.211   4.810   6.481  0.0105 -0.0391  0.1942
67722W        W10660   4.117   3.572   5.662 -0.1560  0.0224 -0.4236
67723W        W10661   3.893   3.976   6.629 -0.0256 -0.3098  0.2689
67724W        W10662   3.817   4.380   5.509  0.1386  0.0601  0.0189
67725W        W10663   6.252   4.871   6.699  0.1747  0.1152  0.0095
67726W        W10664   3.244   2.947   3.191 -0.0331 -0.2101  0.0105
67727W        W10665   5.320   3.281   4.704 -0.3052  0.0885  0.1786
67728W        W10666   4.400   5.027   5.499 -0.3736 -0.1187 -0.0505
67729W        W10667   2.363   5.133   5.662  0.1035  0.3749  0.1659
67730W        W10668   6.322   4.965   7.648 -0.0765  0.1289  0.4123
67731W        W10669   6.628   6.248   5.656 -0.1103  0.1421  0.3500
67732W        W10670   6.468   6.625   6.069 -0.0029 -0.3286  0.0129
67733W        W10671   6.186   7.113   6.016 -0.2012  0.2003  0.0366
67734W        W10672   4.709   3.733   6.879 -0.0997 -0.2140 -0.1080
67735W        W10673   4.192   4.657   4.012 -0.2383  0.0367 -0.0574
67736W        W10674   3.733   6.331   4.525  0.0760  0.2807 -0.0340
67737W        W10675   4.562   6.958   4.626  0.0361  0.3049 -0.1315
67738W        W10676   5.288   4.110   4.269  0.1533  0.0793  0.1623
67739W        W10677   7.711   5.767   5.609  0.4782  0.1852  0.0627
67740W        W10678   4.801   6.262   5.633  0.4050 -0.1716  0.0317
67741W        W10679   4.616   5.545   5.865 -0.2378  0.0014 -0.0160
67742W        W10680   6.625   2.685   6.410 -0.3031  0.1247  0.1827
67743W        W10681   8.138   4.631   6.779  0.1037  0.0210  0.4555
67744W        W10682   5.210   4.851   4.621  0.1466  0.1554  0.0403
67745W        W10683   4.484   3.488   3.380  0.0691 -0.0168  0.1899
67746W        W10684   6.050   5.396   5.782  0.0476 -0.1911  0.2714
67747W        W10685   4.434   6.328   3.973 -0.0719  0.5530 -0.0146
67748W        W10686   3.763   4.838   6.303 -0.0655 -0.0573  0.1135
67749W        W10687   6.068   4.839   4.919 -0.2774  0.2913  0.3122
67750W        W10688   8.349   3.919   5.734  0.0228  0.1604  0.1591
67751W        W10689   3.909   4.955   7.119 -0.3939 -0.0208  0.0312
67752W        W10690   5.965   3.184   7.360  0.1564  0.1676 -0.2114
67753W        W10691   4.211   4.076   5.278 -0.3102  0.0525 -0.2920
67754W        W10692   4.901   6.885   6.060  0.1663  0.0194 -0.0630
67755W        W10693   4.402   4.210   4.821  0.1351  0.2313  0.1222
67756W        W10694   7.231   4.563   3.690  0.0241 -0.1675 -0.1494
67757W        W10695   7.188   4.822   6.396 -0.0718  0.1368  0.1007
67758W        W10696   6.908   6.268   4.388 -0.2288  0.1366  0.0272
67759W        W10697   5.671   4.006   4.587  0.1788  0.0742 -0.0591
67760W        W10698   6.182   4.514   4.389  0.1138 -0.0047 -0.0333
67761W        W10699   4.724   6.320   7.000 -0.1230 -0.0054 -0.0308
67762W        W10700   6.163   6.414   5.149 -0.0212 -0.3141  0.0190
67763W        W10701   5.675   5.910   6.685  0.0549 -0.1291  0.0960
67764W        W10702   4.382   2.864   1.405 -0.1302 -0.2732 -0.1005
67765W        W10703   6.586   5.962   4.666 -0.2953 -0.1325 -0.0353
67766W        W10704   4.760   5.103   6.361  0.0513 -0.0894  0.0920
67767W        W10705   4.554   6.475   6.048 -0.0470 -0.0427 -0.1242
67768W        W10706   6.208   5.666   5.391  0.1017  0.0662  0.1966
67769W        W10707   5.771   2.918   6.148 -0.0086  0.0377 -0.0696
67770W        W10708   4.402   3.494   2.384  0.0467 -0.1908 -0.0731
67771W        W10709   5.272   4.222   4.750 -0.2137 -0.1569 -0.1847
67772W        W10710   2.585   6.746   3.437 -0.0337 -0.1456 -0.0746
67773W        W10711   6.377   2.450   4.827 -0.2478  0.2303  0.3267
67774W        W10712   5.199   2.860   5.469 -0.2895  0.1679  0.1185
67775W        W10713   5.104   3.612   7.172  0.0541  0.2768 -0.1649
67776W        W10714   7.182   5.745   7.949 -0.1244  0.0501  0.2570
67777W        W10715   5.758   5.624   5.074 -0.1185  0.1194 -0.3242
67778W        W10716   5.422   4.021   5.898  0.0666 -0.0368  0.1142
67779W        W10717   4.673   3.387   3.882 -0.0986  0.0447 -0.1135
67780W        W10718   6.248   4.358   6.644 -0.3580 -0.0905  0.3696
67781W        W10719   4.667   4.734   7.457  0.1916  0.0263 -0.1981
67782W        W10720   3.623   6.738   6.708  0.3633  0.1823 -0.2722
67783W        W10721   6.712   7.170   5.796 -0.0969 -0.1566 -0.1293
67784W        W10722   6.030   5.577   3.998  0.2041 -0.5318 -0.3954
67785W        W10723   4.624   4.359   7.184  0.1800 -0.0785  0.1967
67786W        W10724   6.179   3.768   6.188 -0.0583 -0.0135  0.0365
67787W        W10725   6.064   6.264   5.607 -0.0932 -0.0957  0.0915
67788W        W10726   5.842   5.575   4.442 -0.1542  0.2236 -0.1283
67789W        W10727   4.527   3.086   4.972 -0.0138  0.3798  0.3461
67790W        W10728   6.141   5.902   4.859 -0.0162 -0.0395  0.2158
67791W        W10729   4.344   6.390   3.492 -0.1368 -0.2683 -0.0940
67792W        W10730   6.207   5.895   6.699  0.2152 -0.0249  0.3276
67793W        W10731   3.669   5.807   4.618 -0.5290  0.2497  0.1248
67794W        W10732   6.123   3.441   5.610  0.2346 -0.0309  0.1906
67795W        W10733   5.143   5.855   6.282 -0.2315  0.0640  0.0298
67796W        W10734   4.421   3.817   4.547  0.2598 -0.2261  0.1779
67797W        W10735   2.954   5.652   6.268  0.0744 -0.3932 -0.0872
67798W        W10736   7.311   4.048   3.962  0.2594  0.0863  0.4011
67799W        W10737   7.250   5.809   3.995  0.1757 -0.0389  0.0184
67800W        W10738   4.787   3.983   5.904  0.0533 -0.2746 -0.0570
67801W        W10739   5.701   3.101   5.599  0.3009 -0.1135 -0.1624
67802W        W10740   3.416   6.220   5.706 -0.0469 -0.1113  0.0692
67803W        W10741   6.187   2.947   5.490  0.0021  0.0959 -0.4306
67804W        W10742   5.582   4.554   4.441 -0.2078  0.0475 -0.2491
67805W        W10743   5.113   4.482   7.465  0.4568 -0.1388 -0.1073
67806W        W10744   5.228   6.720   6.387  0.0666  0.0426 -0.0712
67807W        W10745   2.632   4.853   4.383  0.0064  0.0715 -0.0420
67808W        W10746   7.014   3.941   5.836  0.0076  0.3280 -0.4253
67809W        W10747   5.377   5.289   5.558  0.1469  0.3716  0.1202
67810W        W10748   3.178   5.813   5.676 -0.2839  0.3682 -0.2945
67811W        W10749   6.131   6.308   7.061 -0.0592 -0.4168  0.0016
67812W        W10750   2.607   5.175   6.114 -0.0266  0.1044 -0.1572
67813W        W10751   3.378   5.258   6.390  0.0458  0.2505 -0.0223
67814W        W10752   4.279   4.785   6.321  0.1596  0.0604 -0.0402
67815W        W10753   6.052   5.542   6.294 -0.4185  0.0835  0.0699
67816W        W10754   6.057   4.275   6.137  0.1494 -0.0177 -0.3528
67817W        W10755   4.619   4.276   5.519 -0.2530 -0.2534 -0.0941
67818W        W10756   5.218   5.146   5.040 -0.0773  0.0433  0.0241
67819W        W10757   6.739   5.949   6.657 -0.0782 -0.1075  0.0754
67820W        W10758   6.111   3.346   6.900  0.2097  0.0290 -0.1450
67821W        W10759   3.054   7.147   7.985 -0.1861  0.0950  0.0211
67822W        W10760   5.775   2.564   4.793  0.0882 -0.0843 -0.1229
67823W        W10761   8.005   6.274   4.988 -0.1363 -0.1211  0.3247
67824W        W10762   6.513   4.125   6.168 -0.4905  0.1150  0.0579
67825W        W10763   3.924   6.220   3.759  0.2333 -0.0487 -0.2165
67826W        W10764   4.218   5.592   6.270  0.3818  0.2675  0.0233
67827W        W10765   5.349   5.689   4.759 -0.0371 -0.1702 -0.1954
67828W        W10766   5.021   4.987   6.716 -0.5254 -0.0487 -0.1524
67829W        W10767   4.283   7.130   7.522 -0.2943  0.2837  0.0500
67830W        W10768   3.950   5.872   4.184  0.1437 -0.1841 -0.0478
67831W        W10769   5.057   6.179   7.742 -0.0675 -0.0874 -0.0732
67832W        W10770   7.821   3.420   3.814  0.2485 -0.0544  0.3314
67833W        W10771   4.219   3.936   3.167  0.0684  0.1588  0.1023
67834W        W10772   4.387   5.357   5.118  0.0077 -0.1581 -0.0051
67835W        W10773   7.768   2.883   6.036 -0.1551  0.1734  0.2645
67836W        W10774   5.745   4.965   3.572  0.0406 -0.2111 -0.1594
67837W        W10775   7.909   3.226   7.595 -0.1387 -0.2518 -0.0926
67838W        W10776   3.451   4.555   6.872  0.1846 -0.1947  0.0254
67839W        W10777   6.451   5.508   4.491 -0.1283  0.0018  0.0772
67840W        W10778   3.280   5.747   6.598 -0.1478  0.0124 -0.1656
67841W        W10779   7.439   7.723   7.702  0.0369 -0.0448  0.1060
67842W        W10780   3.742   6.407   7.630 -0.2381  0.3544 -0.1265
67843W        W10781   5.708   5.078   4.643  0.3615  0.0305 -0.2703
67844W        W10782   4.917   2.342   4.074  0.0001 -0.0602 -0.1401
67845W        W10783   4.161   4.952   4.834  0.0985  0.2596  0.2408
67846W        W10784   6.589   5.993   5.221 -0.2451 -0.2155 -0.0069
67847W        W10785   4.943   4.297   3.783 -0.0692  0.1573 -0.0015
67848W        W10786   6.773   3.974   4.895  0.1121  0.0826 -0.0038
67849W        W10787   4.415   6.271   5.331  0.1661 -0.5141 -0.2312
67850W        W10788   6.453   4.535   4.785  0.0363 -0.1907 -0.2151
67851W        W10789   5.676   3.508   3.254 -0.0789 -0.1138 -0.0994
67852W        W10790   5.116   4.961   5.812  0.0835  0.0134 -0.1398
67853W        W10791   6.619   2.631   6.988 -0.1029  0.0257 -0.1945
67854W        W10792   5.981   4.336   4.798  0.1480 -0.2304  0.3038
67855W        W10793   5.169   5.274   3.255  0.1798 -0.2437 -0.0000
67856W        W10794   6.227   3.238   6.032  0.3753 -0.3283 -0.0302
67857W        W10795   5.574   3.980   6.364 -0.1060  0.4185 -0.2397
67858W        W10796   5.521   5.006   6.792  0.2945 -0.3836  0.0924
67859W        W10797   5.203   4.081   7.174  0.1220  0.0661 -0.0245
67860W        W10798   5.159   7.627   5.054 -0.0292 -0.0362 -0.3159
67861W        W10799   6.820   4.715   4.431 -0.0891  0.3019 -0.3419
67862W        W10800   6.478   4.041   6.917 -0.0369  0.0306  0.0741
67863W        W10801   6.279   3.858   4.167  0.2705 -0.1224 -0.1353
67864W        W10802   4.624   3.073   3.533 -0.0247  0.1927 -0.0730
67865W        W10803   3.911   4.458   5.994  0.0148 -0.1204 -0.0436
67866W        W10804   5.953   5.429   7.510  0.1690 -0.1756  0.1791
67867W        W10805   3.968   4.141   4.021  0.3831  0.2253 -0.1532
67868W        W10806   6.829   4.978   7.965 -0.1646  0.1535 -0.1585
67869W        W10807   5.464   6.876   4.609 -0.0286  0.0626 -0.0722
67870W        W10808   5.553   4.470   6.039  0.4982  0.2390  0.1574
67871W        W10809   6.057   4.480   5.245  0.0524 -0.1113  0.0231
67872W        W10810   3.103   4.510   5.037 -0.2257 -0.4822  0.0793
67873W        W10811   4.495   7.334   8.688 -0.0839  0.2592 -0.1241
67874W        W10812   3.410   5.300   3.718 -0.2111 -0.5079  0.1821
67875W        W10813   5.345   4.803   3.099  0.1870 -0.1400  0.0375
67876W        W10814   6.483   5.885   6.250  0.2643 -0.2547  0.2670
67877W        W10815   6.087   6.191   6.284  0.1027  0.0077 -0.0486
67878W        W10816   5.415   2.813   3.324  0.2753  0.2015 -0.0113
67879W        W10817   6.105   2.798   6.850 -0.0535 -0.0345  0.0625
67880W        W10818   3.876   5.378   5.136 -0.0047  0.0367  0.2213
67881W        W10819   6.004   3.868   6.645 -0.0605 -0.1182 -0.2179
67882W        W10820   5.375   6.421   4.916 -0.0719 -0.1824 -0.2240
67883W        W10821   3.733   5.392   5.977  0.3230  0.3751  0.3229
67884W        W10822   3.473   5.975   5.204  0.0023  0.0154 -0.2333
67885W        W10823   5.461   3.462   6.474  0.1022 -0.0974  0.0309
67886W        W10824   5.592   4.713   4.987 -0.2334 -0.0043 -0.0074
67887W        W10825   6.671   4.796   3.823 -0.0854 -0.0232 -0.0523
67888W        W10826   5.820   5.382   6.701 -0.3170  0.0854  0.2707
67889W        W10827   5.211   6.283   6.075 -0.0495  0.2761  0.3364
67890W        W10828   4.560   5.714   5.389  0.2158 -0.2400 -0.1045
67891W        W10829   6.608   7.320   6.247 -0.0797 -0.0666  0.1148
67892W        W10830   7.571   4.356   5.025  0.1187 -0.2038 -0.0094
67893W        W10831   5.230   5.881   5.644  0.0450 -0.0163 -0.3412
67894W        W10832   3.537   4.607   7.315  0.3663 -0.3099 -0.0281
67895W        W10833   5.267   5.423   6.591  0.1557  0.1703  0.1022
67896W        W10834   5.089   5.453   5.938 -0.3997  0.2796  0.3302
67897W        W10835   4.773   3.282   5.410 -0.0633 -0.2371 -0.2075
67898W        W10836   7.068   6.037   4.867 -0.1220 -0.0205 -0.3124
67899W        W10837   3.239   5.367   5.855 -0.1553 -0.0013 -0.3167
67900W        W10838   4.409   5.412   6.794 -0.1559  0.0799 -0.2913
67901W        W10839   4.087   6.894   3.350  0.2205 -0.4479  0.0030
67902W        W10840   5.947   4.631   3.876  0.0657 -0.3381  0.3784
67903W        W10841   4.667   4.696   3.928  0.0059 -0.0706  0.2814
67904W        W10842   6.619   5.773   5.644  0.5978  0.1090 -0.2246
67905W        W10843   4.028   3.647   3.514  0.1158  0.0480 -0.1210
67906W        W10844   3.438   5.791   6.093  0.3891  0.1778 -0.2506
67907W        W10845   3.070   6.523   3.551  0.0625  0.0199 -0.2403
67908W        W10846   5.436   5.344   4.347 -0.1878  0.4158  0.0639
67909W        W10847   3.465   6.951   4.721  0.4316  0.3055 -0.3031
67910W        W10848   7.031   6.426   7.305 -0.4762  0.1465  0.0026
67911W        W10849   5.375   3.761   4.944 -0.4756  0.1436  0.0711
67912W        W10850   6.591   2.922   5.166 -0.0257 -0.3389  0.2339
67913W        W10851   7.475   4.101   5.489  0.0305  0.0383 -0.1200
67914W        W10852   5.797   7.575   7.346  0.0237  0.1191  0.3437
67915W        W10853   5.194   4.339   5.318 -0.1547  0.0536  0.1266
67916W        W10854   5.816   2.875   4.008  0.0786 -0.1706  0.1043
67917W        W10855   4.983   4.872   8.345  0.0457 -0.1696 -0.2997
67918W        W10856   8.165   2.993   6.901  0.2873  0.3121 -0.0264
67919W        W10857   3.735   7.266   7.645  0.0101  0.4303  0.0655
67920W        W10858   6.736   6.320   3.417 -0.0062 -0.1160 -0.2570
67921W        W10859   4.385   3.671   5.027 -0.1096  0.1429 -0.0925
67922W        W10860   5.030   6.048   5.042 -0.0922  0.1184 -0.1707
67923W        W10861   6.750   2.188   6.585  0.0810 -0.1271  0.2175
67924W        W10862   5.427   4.822   4.047  0.1228  0.0189  0.0445
67925W        W10863   5.573   4.180   5.118 -0.0407 -0.1013  0.0519
67926W        W10864   2.907   6.310   5.627 -0.0517 -0.3303  0.4058
67927W        W10865   5.678   6.567   5.283 -0.0217 -0.1661  0.0501
67928W        W10866   5.632   7.069   5.570 -0.0826 -0.3514  0.1558
67929W        W10867   2.867   4.961   5.704  0.1354  0.1504  0.1648
67930W        W10868   8.838   5.599   5.687  0.1449  0.3295 -0.0264
67931W        W10869   4.586   5.675   7.163 -0.0302  0.1252  0.0647
67932W        W10870   6.040   4.106   7.102  0.0530  0.0705 -0.0663
67933W        W10871   4.876   4.048   4.557  0.2339 -0.0796  0.1099
67934W        W10872   6.634   4.256   4.418  0.0372 -0.0987 -0.0008
67935W        W10873   6.385   4.642   6.263  0.4932 -0.0318  0.2327
67936W        W10874   5.640   4.805   7.304  0.0705 -0.0012 -0.0248
67937W        W10875   5.597   2.473   3.031  0.0575 -0.0733  0.0884
67938W        W10876   7.280   5.816   6.534 -0.3088 -0.2562 -0.1152
67939W        W10877   5.457   3.426   3.724  0.1649 -0.0532 -0.3141
67940W        W10878   6.245   6.797   5.602  0.0421  0.1324 -0.0472
67941W        W10879   4.544   3.728   5.490 -0.1320  0.0951 -0.1261
67942W        W10880   6.338   3.393   4.804 -0.2478 -0.5080  0.0155
67943W        W10881   4.753   5.564   6.409 -0.0751  0.1999  0.1552
67944W        W10882   5.647   5.274   7.170 -0.2245  0.0349  0.1128
67945W        W10883   4.205   6.541   7.663  0.1002  0.1319  0.1787
67946W        W10884   4.746   3.472   4.400  0.5034  0.1100 -0.4116
67947W        W10885   7.450   5.966   2.584 -0.1644  0.2277 -0.1341
67948W        W10886   6.532   3.525   5.224 -0.1997 -0.0628  0.0078
67949W        W10887   4.685   6.322   4.780  0.0600  0.1648 -0.0041
67950W        W10888   5.904   4.200   3.642  0.2279  0.0243  0.2408
67951W        W10889   6.596   7.154   7.413 -0.0303 -0.2000 -0.2018
67952W        W10890   3.573   5.021   6.809  0.0126  0.1583 -0.1034
67953W        W10891   6.894   6.881   6.166 -0.1340 -0.0710 -0.3849
67954W        W10892   7.258   6.669   6.442  0.0041 -0.3611 -0.1062
67955W        W10893   5.858   3.184   3.528 -0.0947 -0.1950  0.0089
67956W        W10894   4.167   5.124   5.981  0.1223  0.1980 -0.3711
67957W        W10895   2.625   6.006   2.958 -0.2886 -0.1295 -0.0778
67958W        W10896   6.854   4.403   5.640  0.0453  0.0939 -0.2558
67959W        W10897   6.352   4.362   5.687  0.2463  0.2078 -0.0440
67960W        W10898   5.854   6.399   1.995 -0.0185  0.1088  0.0077
67961W        W10899   6.854   4.333   7.081 -0.1229 -0.1988 -0.0617
67962W        W10900   5.636   6.314   7.629 -0.1557 -0.0837 -0.3973
67963W        W10901   5.078   5.446   8.091 -0.0547  0.2622 -0.1840
67964W        W10902   4.480   4.680   4.542 -0.0150  0.0552  0.2149
67965W        W10903   5.725   5.742   5.579  0.0121 -0.1215  0.4827
67966W        W10904   5.524   4.606   5.555 -0.0613 -0.0776  0.1373
67967W        W10905   5.409   7.068   5.094  0.0370  0.0532  0.1525
67968W        W10906   7.129   5.775   5.351  0.3446  0.2529  0.1177
67969W        W10907   4.937   5.019   4.202 -0.1348  0.1855  0.1539
67970W        W10908   8.415   6.899   5.716  0.2791  0.1818 -0.3681
67971W        W10909   3.958   4.485   4.981 -0.1680 -0.0145  0.1619
67972W        W10910   6.765   2.929   3.806  0.1460  0.1676  0.1470
67973W        W10911   6.998   3.257   5.132  0.0178  0.1172 -0.1983
67974W        W10912   5.551   5.414   6.143 -0.0862  0.1187  0.0418
67975W        W10913   4.439   2.992   4.011 -0.1729 -0.0378  0.2464
67976W        W10914   3.753   5.752   3.757  0.4515 -0.0529 -0.2437
67977W        W10915   3.288   4.915   5.990 -0.2448 -0.0378  0.1258
67978W        W10916   6.293   2.355   6.688  0.1100 -0.0927 -0.1113
67979W        W10917   4.715   3.884   6.411 -0.0328 -0.0178  0.2177
67980W        W10918   2.543   6.081   6.347 -0.0975  0.3592  0.0770
67981W        W10919   6.190   6.277   3.062 -0.3313 -0.1254  0.0227
67982W        W10920   3.527   3.605   6.794 -0.1727 -0.0049  0.2445
67983W        W10921   3.773   3.768   5.326  0.0195 -0.0407  0.2832
67984W        W10922   6.263   5.060   3.748 -0.1354  0.0509  0.2714
67985W        W10923   7.026   6.509   5.806  0.2411  0.1081 -0.4077
67986W        W10924   4.841   1.933   3.259  0.2119 -0.1484 -0.0047
67987W        W10925   6.472   6.350   6.583 -0.0178 -0.0681 -0.1412
67988W        W10926   3.557   6.983   3.483  0.1425 -0.2996 -0.2603
67989W        W10927   4.165   4.630   8.255  0.1653 -0.1413  0.1063
67990W        W10928   7.217   3.123   6.797 -0.0621  0.0216 -0.1678
67991W        W10929   3.949   4.894   5.266 -0.3212  0.2725  0.1776
67992W        W10930   6.286   3.933   5.505  0.0502 -0.2748  0.0500
67993W        W10931   5.812   6.445   4.314  0.2264 -0.0451 -0.0383
67994W        W10932   5.896   7.625   2.829  0.2977 -0.1510 -0.1750
67995W        W10933   6.137   5.845   5.879  0.0716  0.1604  0.1177
67996W        W10934   5.280   7.244   6.028  0.1375 -0.0572 -0.1555
67997W        W10935   5.178   3.814   6.704 -0.1489  0.1651  0.3556
67998W        W10936   4.250   6.114   4.598 -0.0082 -0.2128  0.1251
67999W        W10937   5.061   5.892   6.797  0.0181  0.1396  0.1305
68000W        W10938   6.376   5.592   3.642  0.1676 -0.1537 -0.0482
68001W        W10939   6.074   4.811   5.630  0.0568  0.2614  0.2241
68002W        W10940   5.074   4.843   3.646 -0.1878  0.0131  0.0204
68003W        W10941   3.833   2.630   8.742  0.3053 -0.3675  0.0563
68004W        W10942   5.016   6.741   4.763  0.2242 -0.1617 -0.1332
68005W        W10943   8.022   5.267   6.888  0.0754 -0.2682 -0.1149
68006W        W10944   4.420   2.553   5.882 -0.0670 -0.0737  0.1591
68007W        W10945   5.466   3.186   4.228  0.0217  0.0816  0.3099
68008W        W10946   4.848   5.348   2.562 -0.0531 -0.0557  0.0222
68009W        W10947   3.668   3.515   5.902 -0.1929 -0.0913  0.1581
68010W        W10948   5.509   2.967   5.127  0.0191 -0.2316 -0.0613
68011W        W10949   5.772   5.184   5.292 -0.1036  0.3041 -0.2271
68012W        W10950   5.720   6.086   5.227  0.1348  0.6076  0.2822
68013W        W10951   5.662   6.183   7.123 -0.4547  0.1787 -0.2530
68014W        W10952   4.639   4.555   3.397  0.0152  0.2211  0.0008
68015W        W10953   6.582   5.014   3.321 -0.2373  0.1030 -0.1861
68016W        W10954   6.752   8.156   5.966 -0.1521  0.3660 -0.1397
68017W        W10955   6.975   7.925   7.845  0.0845  0.1100  0.1684
68018W        W10956   4.748   5.993   6.068  0.0857 -0.0828 -0.3304
68019W        W10957   7.086   5.531   5.809 -0.1912  0.0030  0.1014
68020W        W10958   4.209   4.062   5.798  0.2595  0.1126 -0.0827
68021W        W10959   2.622   4.481   5.253 -0.1467 -0.1063  0.0106
68022W        W10960   4.278   5.040   3.574 -0.0567  0.2249 -0.5058
68023W        W10961   5.508   2.021   3.846  0.4061  0.0942  0.4038
68024W        W10962   4.020   3.314   6.154  0.0535  0.4124 -0.2328
68025W        W10963   6.481   2.843   4.390  0.1523 -0.0819 -0.1691
68026W        W10964   4.762   7.261   5.715 -0.2650 -0.4179 -0.0266
68027W        W10965   4.449   4.654   5.148 -0.1944  0.2393 -0.0234
68028W        W10966   2.979   5.264  10.381  0.2606 -0.0374  0.1714
68029W        W10967   3.263   4.059   7.753 -0.3038  0.0602 -0.2053
68030W        W10968   6.362   4.968   8.170 -0.0076 -0.1556 -0.0346
68031W        W10969   6.357   6.571   8.016 -0.0615  0.1165  0.2897
68032W        W10970   5.288   4.118   8.914  0.0292 -0.1032  0.0896
68033W        W10971   5.592   7.418   8.346  0.3478  0.1235 -0.3134
68034W        W10972   7.300   7.011   8.926  0.1367 -0.1252  0.0022
68035W        W10973   7.072   7.630   9.880 -0.0013  0.2819  0.0437
68036W        W10974   5.173   4.984   7.204  0.0149  0.1120  0.1263
68037W        W10975   4.711   4.383   9.343 -0.1568  0.3905  0.0779
68038W        W10976   5.013   3.929   7.970 -0.0003  0.1292 -0.0983
68039W        W10977   2.741   3.726   9.933 -0.1292 -0.1543  0.1592
68040W        W10978   6.857   3.857   9.440  0.0009  0.0709 -0.1879
68041W        W10979   4.138   5.592   8.700 -0.1567  0.1840  0.0869
68042W        W10980   5.392   5.787   9.759 -0.1472 -0.0597 -0.2130
68043W        W10981   4.687   4.836  10.861  0.1637  0.0050 -0.2556
68044W        W10982   4.857   6.783   8.347 -0.0149  0.1433 -0.0104
68045W        W10983   3.593   4.419  10.091 -0.1379  0.1936  0.2800
68046W        W10984   5.485   6.410   9.001  0.1054  0.0053 -0.1260
68047W        W10985   3.462   5.752   7.804 -0.0829  0.2871 -0.0684
68048W        W10986   2.320   5.249   9.689 -0.0434  0.1064 -0.0489
68049W        W10987   3.792   5.268   9.480  0.0592  0.2763 -0.0334
68050W        W10988   5.319   7.367  10.258 -0.1325  0.1383 -0.0747
68051W        W10989   4.917   5.169   8.733 -0.1286  0.1973 -0.2397
68052W        W10990   3.569   5.833   9.957  0.1537  0.2279  0.0651
68053W        W10991   6.329   6.683   7.493  0.0382  0.1424 -0.1348
68054W        W10992   3.780   5.770   8.250 -0.0996 -0.2066  0.0330
68055W        W10993   2.686   7.260   9.679 -0.0220  0.3411 -0.1866
68056W        W10994   5.706   6.735   9.288  0.2158 -0.1480 -0.1114
68057W        W10995   7.323   6.152   9.232 -0.1414  0.0291 -0.0090
68058W        W10996   4.236   8.343   6.332  0.0935 -0.1639  0.0180
68059W        W10997   4.630   4.696  10.297  0.0107  0.0814 -0.3264
68060W        W10998   3.921   5.684   9.188  0.0478 -0.0295  0.2270
68061W        W10999   3.538   5.422   8.556 -0.0892 -0.0495  0.1373
68062W        W11000   5.498   7.787   9.766 -0.1631  0.0313 -0.0333
68063W        W11001   4.079   7.102   8.822 -0.0835 -0.2162  0.0393
68064W        W11002   3.644   7.376   8.127 -0.1168  0.2476 -0.0182
68065W        W11003   5.585   3.687   7.420  0.2405  0.0718 -0.3742
68066W        W11004   4.690   3.929   7.489  0.2295  0.0676 -0.0188
68067W        W11005   5.640   4.233   7.351 -0.0201 -0.1102  0.0747
68068W        W11006   6.619   2.985   8.903  0.2771  0.2310  0.1137
68069W        W11007   3.871   7.361   9.236 -0.2220  0.3935  0.0118
68070W        W11008   5.570   3.174   8.875 -0.0625 -0.0153 -0.0166
68071W        W11009   4.533   4.752   8.590 -0.4310  0.0503  0.1758
68072W        W11010   5.658   4.786   8.708 -0.1666  0.0078  0.0235
68073W        W11011   2.972   7.384  10.324 -0.3512 -0.4749 -0.3801
68074W        W11012   4.244   5.572   8.222  0.0445  0.1060 -0.0864
68075W        W11013   6.650   6.559   7.039 -0.0588  0.2014 -0.0890
68076W        W11014   6.828   6.780   7.555 -0.0501  0.1827 -0.0623
68077W        W11015   4.816   6.569   7.440 -0.2273 -0.1302  0.2472
68078W        W11016   3.255   6.684   9.306 -0.1640  0.1528  0.1620
68079W        W11017   4.705   2.786   6.695 -0.3894 -0.0763 -0.2251
68080W        W11018   6.476   3.691   8.450  0.0335  0.2943  0.1761
68081W        W11019   5.167   5.570   9.010  0.0685 -0.3768  0.0772
68082W        W11020   3.790   4.442  10.612 -0.3419  0.3714  0.0874
68083W        W11021   5.475   6.982   7.011 -0.0726  0.1694 -0.0583
68084W        W11022   5.871   3.535   9.013 -0.0324 -0.1933  0.0087
68085W        W11023   6.100   1.836   9.392  0.1120 -0.0906  0.0434
68086W        W11024   5.408   4.584   6.596 -0.2999  0.0711  0.0521
68087W        W11025   3.510   4.536   8.859  0.2081 -0.0129  0.3139
68088W        W11026   6.972   6.708   9.131  0.0220 -0.0291  0.1810
68089W        W11027   6.914   5.499   7.134  0.2217  0.0057  0.0246
68090W        W11028   2.967   6.612   9.699  0.5648  0.0554  0.0642
68091W        W11029   3.452   8.164   8.162  0.0124  0.0556 -0.0025
68092W        W11030   3.297   5.404   9.560 -0.1035 -0.0969 -0.2140
68093W        W11031   4.584   5.893   8.016 -0.0619  0.0382  0.2338
68094W        W11032   2.252   4.322   9.991 -0.2730  0.0230 -0.1621
68095W        W11033   3.489   4.909  10.298 -0.0411 -0.1844 -0.1376
68096W        W11034   5.590   5.426   8.039  0.0735 -0.0992  0.1686
68097W        W11035   7.333   4.934   7.851  0.3233 -0.1240  0.1003
68098W        W11036   5.375   5.804   7.813 -0.0386 -0.0519 -0.0103
68099W        W11037   7.725   7.344   7.832  0.0631 -0.2707  0.0995
68100W        W11038   6.096   5.551   8.739  0.1543  0.1359 -0.0800
68101W        W11039   6.128   5.350   7.992  0.1521 -0.2596 -0.1190
68102W        W11040   4.239   5.318   9.316  0.1576 -0.0449  0.1089
68103W        W11041   2.567   6.358   9.853 -0.2812  0.1128 -0.3333
68104W        W11042   2.954   4.713   9.368 -0.0188  0.0687 -0.2172
68105W        W11043   4.884   2.829   8.031  0.1378 -0.0947  0.4560
68106W        W11044   8.019   5.344   9.130 -0.0403 -0.1566 -0.0168
68107W        W11045   2.987   5.377   8.837 -0.0630 -0.1050  0.0124
68108W        W11046   3.661   6.460   7.129 -0.0038 -0.0484  0.2324
68109W        W11047   3.996   6.613   8.669  0.2575  0.0972  0.1683
68110W        W11048   6.872   7.895   8.943  0.0105  0.0474 -0.0779
68111W        W11049   5.115   6.392   8.487  0.1651 -0.2567 -0.1545
68112W        W11050   4.060   3.978  10.548  0.2265  0.2442 -0.2678
68113W        W11051   5.154   3.052   9.198  0.0945  0.2294 -0.1617
68114W        W11052   4.610   7.395   7.799 -0.1618  0.2303 -0.3085
68115W        W11053   5.879   7.276   9.241 -0.0737  0.0594  0.1193
68116W        W11054   6.028   3.429   8.447 -0.2509  0.1253  0.0848
68117W        W11055   6.214   8.155   9.908 -0.2314 -0.1373 -0.1278
68118W        W11056   6.461   4.509   7.959  0.1531 -0.1231 -0.0242
68119W        W11057   5.286   2.677   8.911 -0.2215  0.0355 -0.0148
68120W        W11058   4.436   5.122   8.908 -0.1808  0.1518 -0.2078
68121W        W11059   4.326   4.192   8.515 -0.0855  0.0431  0.1725
68122W        W11060   5.997   6.479   8.969 -0.1038 -0.0063 -0.0014
68123W        W11061   4.363   7.472   9.250 -0.1879 -0.1901  0.0140
68124W        W11062   3.446   5.493   9.066  0.1565 -0.2477 -0.2845
68125W        W11063   6.909   6.261   8.879  0.0352  0.0786 -0.0870
68126W        W11064   5.938   5.848   9.482 -0.2565 -0.0405 -0.2621
68127W        W11065   4.194   4.568   7.735 -0.1566  0.1371 -0.1317
68128W        W11066   6.193   2.717   7.802  0.0393 -0.1777 -0.0021
68129W        W11067   5.856   4.631   6.879 -0.5743  0.1461 -0.2832
68130W        W11068   4.623   5.838   8.512 -0.3056 -0.0951 -0.0886
68131W        W11069   5.621   3.581   6.939 -0.0336  0.0640  0.0518
68132W        W11070   7.818   2.762   7.494  0.0436  0.2546  0.2891
68133W        W11071   5.297   5.349   7.588  0.2009 -0.1928 -0.0138
68134W        W11072   4.492   6.318   8.688  0.0424 -0.1715  0.0672
68135W        W11073   5.452   3.684   8.092 -0.0141  0.3402 -0.2389
68136W        W11074   7.901   7.275   6.984  0.1134 -0.0660  0.2888
68137W        W11075   3.357   6.356   9.624 -0.3704  0.0571  0.0816
68138W        W11076   6.608   6.691   9.564 -0.3832  0.3747  0.1464
68139W        W11077   5.530   4.683   9.751 -0.0503  0.0107  0.0403
68140W        W11078   4.648   3.597   7.845 -0.0695  0.0361  0.1459
68141W        W11079   5.284   2.040   9.578  0.3296  0.0333 -0.1197
68142W        W11080   3.954   7.337   7.170  0.3955  0.4446 -0.0893
68143W        W11081   6.804   6.338   9.873 -0.1197  0.0105  0.0227
68144W        W11082   5.602   5.399   8.589 -0.2163 -0.1666 -0.0401
68145W        W11083   6.345   5.777   7.691 -0.4052  0.1089 -0.0879
68146W        W11084   5.948   6.277  10.036 -0.2317 -0.1139 -0.0778
68147W        W11085   4.401   4.910   6.803  0.2171  0.2114  0.1877
68148W        W11086   5.656   5.726   9.057 -0.0321 -0.1403 -0.0806
68149W        W11087   3.918   6.586   9.584 -0.1895 -0.0826 -0.4253
68150W        W11088   3.829   4.349   8.551 -0.4073 -0.0997 -0.1134
68151W        W11089   4.880   3.556   8.969 -0.0691  0.1598  0.3043
68152W        W11090   4.649   7.926   8.014  0.0872  0.0154 -0.1349
68153W        W11091   5.210   6.637   7.881  0.0946 -0.0500 -0.1628
68154W        W11092   4.777   4.129   8.841 -0.4625  0.0586  0.0999
68155W        W11093   4.927   5.856   9.422  0.1052  0.2444 -0.0062
68156W        W11094   4.612   6.715   5.630  0.3074  0.1743 -0.1081
68157W        W11095   4.837   4.138  10.217 -0.1694 -0.4418  0.1690
68158W        W11096   4.095   6.070   7.971 -0.0156 -0.2100  0.2896
68159W        W11097   6.075   3.932   8.683 -0.0746  0.3137  0.0841
68160W        W11098   4.328   3.236   8.134  0.1661  0.1980  0.2920
68161W        W11099   3.289   6.175   9.001  0.0651  0.0926  0.0801
68162W        W11100   6.739   4.172   8.376 -0.1485  0.2682  0.0397
68163W        W11101   5.433   6.045   8.568 -0.3804  0.1546  0.0483
68164W        W11102   2.111   3.794  10.051  0.2362 -0.3121  0.1043
68165W        W11103   4.834   2.937   9.565 -0.1386  0.0325 -0.2202
68166W        W11104   1.728   8.298  10.333 -0.1216  0.0173 -0.0178
68167W        W11105   6.279   3.589   7.447 -0.0481 -0.1691  0.0925
68168W        W11106   3.772   4.960   7.663 -0.1174 -0.0354  0.0133
68169W        W11107   6.411   4.988   9.363  0.1017 -0.0920  0.1288
68170W        W11108   5.305   4.557   8.497 -0.1713 -0.1067  0.1304
68171W        W11109   3.955   6.928   7.929  0.4725 -0.0143  0.2031
68172W        W11110   3.156   7.073   9.609  0.0588 -0.3092 -0.2591
68173W        W11111   3.461   3.809   7.376  0.0347  0.1938  0.0953
68174W        W11112   4.729   6.328   8.178 -0.1319 -0.0850  0.2913
68175W        W11113   6.205   4.627   9.945 -0.0859  0.1723 -0.0637
68176W        W11114   2.520   4.298  10.720  0.0359  0.0718 -0.1932
68177W        W11115   3.880   4.257   9.081  0.1251 -0.0013 -0.0413
68178W        W11116   4.820   4.683   8.992 -0.1684 -0.3494 -0.1837
68179W        W11117   6.609   5.343   9.136 -0.0224  0.2005 -0.1038
68180W        W11118   5.106   4.675   9.504  0.1328 -0.2209  0.3036
68181W        W11119   5.254   2.434   9.842 -0.2629  0.0567  0.1559
68182W        W11120   7.456   6.639   8.272  0.0274 -0.0632 -0.4002
68183W        W11121   4.560   5.943   6.718  0.2132  0.2843  0.1018
68184W        W11122   2.988   5.715   9.194 -0.0179 -0.0174  0.0084
68185W        W11123   4.599   6.234   9.333 -0.0205  0.2931  0.2116
68186W        W11124   4.275   5.243  10.352 -0.2632  0.1073  0.0019
68187W        W11125   2.095   7.518   9.875  0.3350 -0.3351 -0.1203
68188W        W11126   5.088   7.190   8.627  0.0880  0.0356  0.0495
68189W        W11127   4.377   5.394   9.895 -0.2714 -0.0363 -0.0960
68190W        W11128   6.730   2.671   7.533  0.1789  0.1642 -0.1657
68191W        W11129   5.831   5.014   7.723 -0.1259 -0.0015  0.1038
68192W        W11130   5.652   5.214   9.031 -0.4568 -0.0648  0.1235
68193W        W11131   5.886   4.676   6.376  0.2152 -0.1323 -0.2075
68194W        W11132   3.094   5.905   9.635 -0.0259 -0.1346  0.1800
68195W        W11133   6.047   6.191   8.183 -0.5450  0.1975  0.1707
68196W        W11134   5.133   4.920   7.767  0.3643 -0.0279 -0.0340
68197W        W11135   5.920   3.816   8.176  0.0522 -0.3413 -0.1535
68198W        W11136   6.171   5.472   9.797 -0.0019 -0.2728  0.0919
68199W        W11137   5.649   6.319   9.587  0.1133 -0.2232 -0.1780
68200W        W11138   4.745   4.352   8.347 -0.0932  0.2795 -0.1005
68201W        W11139   5.725   5.441   9.560 -0.2017  0.0043 -0.0026
68202W        W11140   4.649   5.187   8.258  0.1468 -0.3864 -0.0830
68203W        W11141   6.117   5.005   7.148 -0.2002  0.0425 -0.1076
68204W        W11142   5.521   4.626   7.762 -0.0535 -0.0102 -0.1754
68205W        W11143   3.801   6.234   9.072 -0.3223  0.0861  0.0571
68206W        W11144   7.583   5.489   8.975  0.0052  0.1678 -0.2048
68207W        W11145   6.221   4.224   8.258  0.0091 -0.0924  0.4354
68208W        W11146   7.184   7.106   9.489 -0.3050  0.1044 -0.0003
68209W        W11147   6.175   4.660   8.545 -0.2769 -0.0105 -0.0233
68210W        W11148   6.849   5.717   7.558 -0.1349 -0.2124 -0.2976
68211W        W11149   4.619   4.303   7.874  0.2244 -0.2412  0.4237
68212W        W11150   1.709   3.602   8.311 -0.0454 -0.2459  0.1764
68213W        W11151   4.964   3.329   8.120  0.1468 -0.0286  0.1705
68214W        W11152   5.098   5.947   8.207 -0.2750  0.0230 -0.2964
68215W        W11153   7.036   7.204   8.477  0.2437  0.3346  0.1420
68216W        W11154   5.432   4.968   8.205 -0.3376  0.1469  0.3011
68217W        W11155   3.169   3.993  10.156  0.0044 -0.0573 -0.1185
68218W        W11156   4.142   4.486   7.145  0.0287  0.3798  0.1071
68219W        W11157   4.691   4.813   7.974  0.1814 -0.2428 -0.0477
68220W        W11158   5.959   6.730   9.713  0.1373 -0.1876  0.1744
68221W        W11159   5.569   4.181   8.017  0.0065  0.0772  0.2260
68222W        W11160   4.530   6.827   8.774  0.0601  0.2485  0.0400
68223W        W11161   4.692   3.753   8.444  0.0006 -0.1004  0.1983
68224W        W11162   4.874   8.285   9.551  0.0325  0.3525  0.1817
68225W        W11163   4.773   6.347   9.741 -0.2616  0.1788  0.1999
68226W        W11164   4.345   4.184   9.589  0.1086 -0.3187  0.0843
68227W        W11165   6.643   4.111   8.967 -0.1448 -0.0926  0.0638
68228W        W11166   5.212   6.252   9.852  0.3774  0.1747  0.3468
68229W        W11167   5.079   6.458   9.338 -0.1005 -0.1101 -0.3383
68230W        W11168   7.345   4.959   7.353  0.0788  0.1249  0.1381
68231W        W11169   6.284   7.265   9.674 -0.3552  0.1871  0.1013
68232W        W11170   6.352   5.769   8.403  0.0351  0.1641 -0.2236
68233W        W11171   5.911   3.415   7.850 -0.3147  0.1989 -0.2919
68234W        W11172   4.317   5.983   8.984  0.2535 -0.1064  0.0611
68235W        W11173   4.056   6.091   9.489 -0.0389 -0.0638 -0.1153
68236W        W11174   3.499   6.549   8.715 -0.0395 -0.0637 -0.1774
68237W        W11175   5.346   4.540   7.045  0.1354  0.1935 -0.2552
68238W        W11176   4.119   5.081   8.505  0.1580 -0.0095 -0.1718
68239W        W11177   6.181   6.563   8.520  0.0280  0.2414  0.0912
68240W        W11178   5.184   4.075   8.418 -0.2000 -0.1589 -0.0010
68241W        W11179   3.343   7.680   9.339 -0.4977  0.4270  0.0147
68242W        W11180   4.336   7.766   8.404 -0.0376 -0.2071 -0.1189
68243W        W11181   5.767   6.627   6.767 -0.0749  0.0612  0.1882
68244W        W11182   4.227   6.993   9.263 -0.2998  0.0369 -0.2196
68245W        W11183   7.595   3.358   6.416 -0.3986  0.0252 -0.1356
68246W        W11184   6.770   5.361   8.422 -0.1665  0.1041  0.0066
68247W        W11185   6.515   4.663   9.002 -0.1382  0.3661 -0.0878
68248W        W11186   5.873   4.958   9.484 -0.0280 -0.0203 -0.2300
68249W        W11187   5.685   2.916   7.704  0.4160  0.1953  0.3540
68250W        W11188   6.647   6.448   8.441  0.1644  0.3618 -0.1256
68251W        W11189   3.756   3.886   8.397  0.1813 -0.2495 -0.1547
68252W        W11190   4.357   4.422   8.963  0.3514 -0.2024  0.1051
68253W        W11191   7.111   3.432   9.648  0.2080 -0.1617 -0.1179
68254W        W11192   5.348   6.315   6.755  0.2488 -0.0314 -0.3994
68255W        W11193   6.307   6.285   9.453  0.0698  0.2006  0.2141
68256W        W11194   3.638   7.536   8.755 -0.0775  0.1363  0.0060
68257W        W11195   4.028   5.877  10.193 -0.3884 -0.0162 -0.2978
68258W        W11196   3.209   9.599  10.047  0.1735  0.0807 -0.1446
68259W        W11197   3.115   3.627   7.006 -0.3899  0.0767  0.1825
68260W        W11198   7.402   4.901   8.528  0.2318  0.1927  0.0283
68261W        W11199   3.493   4.015   9.719  0.0540  0.1777 -0.5511
68262W        W11200   4.080   6.094   8.533  0.2248 -0.1048  0.2275
68263W        W11201   6.056   4.853   9.034 -0.2878  0.1906 -0.0730
68264W        W11202   4.409   5.750   9.475  0.3541  0.2096  0.0996
68265W        W11203   5.264   7.379   9.602  0.0818  0.1476  0.1853
68266W        W11204   5.131   4.453   8.018 -0.1740 -0.1239 -0.1250
68267W        W11205   5.632   4.984   5.911  0.1848 -0.1669 -0.1968
68268W        W11206   3.968   3.383   8.622  0.2355  0.0392 -0.1497
68269W        W11207   4.238   6.532   9.146 -0.3489  0.1481  0.0104
68270W        W11208   3.645   4.843   9.797  0.1395  0.0926 -0.2713
68271W        W11209   3.841   2.100   8.841 -0.2228 -0.2569  0.4256
68272W        W11210   5.833   6.668   7.246 -0.0112  0.0532  0.1892
68273W        W11211   6.153   5.907   9.090 -0.2514  0.0927  0.0486
68274W        W11212   2.899   7.769   8.498  0.0246  0.0362  0.2116
68275W        W11213   6.652   5.430   7.882  0.1861  0.3730 -0.2473
68276W        W11214   7.817   6.620   9.779 -0.0964  0.2977 -0.1052
68277W        W11215   3.539   3.909  10.446  0.1461  0.0769  0.1105
68278W        W11216   5.353   6.738   9.709  0.0914 -0.0283  0.1599
68279W        W11217   6.140   5.401   9.250  0.0236 -0.1365  0.3110
68280W        W11218   3.976   3.630   7.152  0.1293  0.0544  0.0551
68281W        W11219   4.454   4.797   9.359 -0.1188 -0.0497  0.4060
68282W        W11220   3.059   8.837   8.310 -0.1157 -0.0740  0.0885
68283W        W11221   5.397   5.207  10.001 -0.1045 -0.2759 -0.0555
68284W        W11222   4.685   7.764   8.871 -0.0048  0.0888  0.3783
68285W        W11223   6.120   7.151  10.162 -0.1600  0.0971 -0.2854
68286W        W11224   4.553   6.173   7.592 -0.3014 -0.1477 -0.1184
68287W        W11225   5.052   6.691   8.891 -0.3332 -0.1668 -0.0613
68288W        W11226   4.792   7.245   9.094 -0.2206  0.1572  0.3326
68289W        W11227   6.816   5.395   9.681 -0.0534 -0.1266  0.0081
68290W        W11228   5.376   6.061   9.308  0.1083 -0.0558  0.1008
68291W        W11229   7.531   6.545   8.824 -0.1722  0.2022 -0.1170
68292W        W11230   5.543   3.795   8.681  0.0216  0.3354 -0.3968
68293W        W11231   8.246   3.411   7.934 -0.0609  0.0803 -0.2353
68294W        W11232   6.480   3.111   7.198 -0.3380  0.1400 -0.1781
68295W        W11233   5.682   4.540  10.204 -0.4438  0.1343  0.0551
68296W        W11234   4.751   5.194   7.659  0.0225  0.0409 -0.2798
68297W        W11235   5.055   6.664   6.869  0.2797 -0.0094  0.2368
68298W        W11236   4.689   6.721   9.273 -0.2039  0.1714 -0.1581
68299W        W11237   5.374   5.118   9.447  0.1284 -0.4255 -0.2327
68300W        W11238   3.704   3.794   7.830 -0.4395  0.0738  0.2185
68301W        W11239   6.833   6.244   9.370 -0.0307 -0.0242 -0.4553
68302W        W11240   4.602   7.118   9.594 -0.4191 -0.1670  0.0530
68303W        W11241   3.897   3.960  10.056 -0.3775 -0.0350  0.1808
68304W        W11242   5.632   6.505   8.523 -0.0215  0.1468 -0.2159
68305W        W11243   7.307   6.440   7.697  0.0401  0.1132  0.1378
68306W        W11244   6.331   2.995   8.417 -0.1227  0.0252 -0.2421
68307W        W11245   3.477   6.745   9.939  0.0080  0.1504  0.3572
68308W        W11246   3.708   4.251   7.637  0.1416 -0.3081 -0.0072
68309W        W11247   4.930   6.060   8.971 -0.1292 -0.2719 -0.1168
68310W        W11248   8.064   5.784   9.567  0.1881 -0.1982  0.0426
68311W        W11249   4.558   6.844   7.128 -0.1706  0.0310 -0.3053
68312W        W11250   1.821   5.167   9.666  0.0892 -0.0629  0.2912
68313W        W11251   5.477   5.786   7.303 -0.2568  0.3012 -0.0065
68314W        W11252   6.032   5.876   7.293 -0.1548 -0.0478  0.4118
68315W        W11253   5.934   4.573   8.068 -0.1297  0.1990  0.2233
68316W        W11254   5.146   5.611   8.529  0.0030 -0.0288  0.0512
68317W        W11255   7.197   5.620   9.944 -0.3119 -0.0203  0.0065
68318W        W11256   4.690   3.066   8.996  0.3081 -0.1117 -0.1236
68319W        W11257   5.957   4.005   7.606  0.1416  0.2717  0.2417
68320W        W11258   7.035   5.753   9.436  0.0677 -0.1693 -0.0912
68321W        W11259   2.505   6.812   9.711  0.0055 -0.2197 -0.1905
68322W        W11260   4.154   3.523   7.725 -0.3414  0.1778 -0.0521
68323W        W11261   6.376   5.952   9.809  0.3691  0.0806  0.2184
68324W        W11262   3.837   5.463   7.754  0.2582 -0.0033 -0.0728
68325W        W11263   6.116   6.225   7.625 -0.1667 -0.0342 -0.3029
68326W        W11264   5.841   5.708  10.047  0.0595 -0.0429  0.3324
68327W        W11265   1.198   8.338  10.558 -0.0568 -0.2365  0.1351
68328W        W11266   7.131   5.765   8.952 -0.0351  0.1361  0.0079
68329W        W11267   4.372   3.117   9.373  0.3721 -0.0354 -0.1007
68330W        W11268   5.067   6.985  10.015 -0.1794 -0.0620  0.0705
68331W        W11269   4.004   4.741   8.837  0.0628 -0.1831 -0.1006
68332W        W11270   5.669   6.853  10.123 -0.0915  0.0532 -0.0334
68333W        W11271   2.834   6.241   9.422 -0.1603 -0.2592  0.1955
68334W        W11272   5.793   4.272   8.484 -0.0587  0.4736  0.1539
68335W        W11273   3.772   6.287   9.958  0.0955 -0.0044 -0.1389
68336W        W11274   4.668   5.588   8.952 -0.0885  0.2006 -0.4519
68337W        W11275   5.747   9.689   2.564  0.1939  0.1649  0.1007
68338W        W11276   3.664   8.238   0.531  0.0680 -0.2823  0.0261
68339W        W11277   6.824   7.799  31.955 -0.0799 -0.1615 -0.0293
68340W        W11278   5.052   8.343   0.899  0.3183 -0.0836  0.0285
68341W        W11279   3.850   7.029   0.769 -0.0966 -0.3384  0.1463
68342W        W11280   7.202  10.016   0.641  0.0174  0.1901 -0.3672
68343W        W11281   4.262   7.431   3.278 -0.0577  0.0542 -0.0706
68344W        W11282   6.409  10.666   2.160  0.0342 -0.0074  0.2800
68345W        W11283   6.243  11.146   1.962  0.1531 -0.0570  0.2547
68346W        W11284   6.253  10.060   0.790 -0.0315  0.0250 -0.3873
68347W        W11285   4.710   7.444   3.088  0.1136 -0.0741 -0.0967
68348W        W11286   5.950  10.397   3.237 -0.0340  0.3945 -0.1575
68349W        W11287   4.864   7.303   0.755  0.0960 -0.0159  0.4847
68350W        W11288   5.280   5.955   2.129  0.0059  0.0784  0.0321
68351W        W11289   6.862   9.528   2.026 -0.4961  0.0497  0.2615
68352W        W11290   4.670   8.261  31.616 -0.1344  0.1091 -0.2406
68353W        W11291   4.084   8.474   0.901  0.0083  0.0952  0.1420
68354W        W11292   4.050   7.047   0.262  0.2463  0.0133 -0.1329
68355W        W11293   6.082  11.753   0.139  0.2404  0.1567  0.0139
68356W        W11294   5.322   8.582   2.308 -0.1490 -0.1378  0.0377
68357W        W11295   5.811   8.102   2.870 -0.1926  0.1226  0.1513
68358W        W11296   4.389   9.292  31.924  0.0006  0.0666  0.0908
68359W        W11297   4.167   9.030  30.858 -0.0875  0.0657 -0.4313
68360W        W11298   4.006   8.540   1.444 -0.2633  0.0160 -0.0889
68361W        W11299   4.163   8.776   3.066  0.1958  0.0033  0.4983
68362W        W11300   4.286   7.539   2.154  0.0197 -0.1689  0.3581
68363W        W11301   7.229   8.639   0.868 -0.0970 -0.1648 -0.0939
68364W        W11302   5.676   9.501   1.369 -0.1629  0.2391 -0.0924
68365W        W11303   4.708   9.361   2.411  0.1405  0.2633  0.1599
68366W        W11304   5.758   7.808   1.429 -0.0762 -0.3671  0.2884
68367W        W11305   4.086   8.606   2.588 -0.2499  0.5159 -0.0807
68368W        W11306   2.888   8.623   2.603 -0.0791 -0.0713  0.2214
68369W        W11307   3.260   8.404   0.826  0.0813 -0.0055  0.0690
68370W        W11308   7.260  10.445   0.276  0.2100 -0.2892  0.1200
68371W        W11309   6.892  10.001   3.868 -0.3790 -0.2626 -0.2296
68372W        W11310   4.553  10.056   4.069  0.0626 -0.2211  0.0015
68373W        W11311   4.949  10.434  30.756 -0.0841  0.1387  0.1079
68374W        W11312   5.933  10.787   2.851  0.1203  0.1596 -0.0614
68375W        W11313   5.050   9.215   3.255  0.1086  0.0737 -0.0030
68376W        W11314   5.894   8.443   1.960 -0.0214 -0.2680  0.2716
68377W        W11315   4.581   8.701   2.322  0.0079  0.0383  0.0025
68378W        W11316   5.512   9.516  31.669  0.0611  0.0911 -0.0025
68379W        W11317   5.395   8.178   1.699  0.0725  0.0982 -0.0030
68380W        W11318   4.077   8.816   4.101 -0.0043  0.0912  0.1120
68381W        W11319   2.781   9.054   2.836  0.2053  0.0931  0.1837
68382W        W11320   6.002   7.004   2.102 -0.1404 -0.1377 -0.1410
68383W        W11321   3.126  10.297  31.937  0.0114 -0.0371 -0.2767
68384W        W11322   6.628   8.952   0.109  0.3105  0.3127 -0.1529
68385W        W11323   3.663   7.358   0.251 -0.0227  0.1156 -0.1946
68386W        W11324   5.425   9.224   1.822 -0.2301  0.1088 -0.0184
68387W        W11325   6.784   6.480   2.204  0.1257  0.3250 -0.0951
68388W        W11326   6.112   9.873   3.426  0.3467 -0.0713  0.1171
68389W        W11327   4.729   5.547   1.467  0.0128 -0.1863  0.0651
68390W        W11328   7.414   9.478   2.929 -0.5116  0.0251 -0.0002
68391W        W11329   5.641   8.227   0.693 -0.3900 -0.3150 -0.0607
68392W        W11330   7.026   9.010   1.433 -0.0582  0.2920  0.0682
68393W        W11331   5.316  10.019   4.469 -0.3735  0.1244 -0.1585
68394W        W11332   3.810   7.662   2.460 -0.0050  0.1485 -0.0072
68395W        W11333   6.920  10.105   0.122 -0.1518 -0.4067 -0.3242
68396W        W11334   6.086  11.978   0.618  0.0286 -0.1608 -0.0824
68397W        W11335   4.905   9.380   0.033  0.1677  0.1120 -0.0245
68398W        W11336   3.986   8.965   1.193  0.1383  0.0079  0.1138
68399W        W11337   4.694   9.803   3.108 -0.2520 -0.1429  0.0747
68400W        W11338   3.853   7.733   3.620  0.1316 -0.0877 -0.0919
68401W        W11339   4.972   6.841   0.666 -0.0525  0.0356  0.0676
68402W        W11340   7.958   9.805   3.911  0.1554 -0.5371 -0.2972
68403W        W11341   3.085   9.680   3.109 -0.1080 -0.0721 -0.3594
68404W        W11342   6.888   7.823   0.656 -0.1682  0.0482  0.1171
68405W        W11343   3.625   9.232   0.954 -0.0810 -0.2551 -0.1380
68406W        W11344   6.619  11.410   1.345  0.0956  0.0491  0.2644
68407W        W11345   5.188   9.137   0.721 -0.2290  0.0452 -0.2199
68408W        W11346   6.048   7.335   0.559 -0.0787  0.0067 -0.0517
68409W        W11347   5.288   6.875   2.669  0.0177  0.1613 -0.0487
68410W        W11348   3.492   7.838   0.393 -0.0429  0.5279 -0.1124
68411W        W11349   6.064   9.655   1.737 -0.1426 -0.1209 -0.1131
68412W        W11350   7.735   9.833   2.920 -0.1857 -0.2832 -0.4686
68413W        W11351   7.355   8.839  31.126 -0.1988  0.4481 -0.0278
68414W        W11352   5.478   9.477   3.242  0.2267 -0.1668 -0.0483
68415W        W11353   6.806  10.151   2.623  0.0268  0.0660 -0.1207
68416W        W11354   1.892   9.568   0.701 -0.2336  0.1844 -0.3599
68417W        W11355   3.408   8.463   1.797  0.3773 -0.1096 -0.2271
68418W        W11356   4.580   8.614   0.738 -0.0530 -0.4965 -0.0238
68419W        W11357   3.572   8.063   4.100  0.0050  0.1167 -0.2233
68420W        W11358   4.026   9.914   3.148  0.0652 -0.3234  0.3112
68421W        W11359   6.788   8.372   1.777 -0.0741  0.1705  0.0356
68422W        W11360   3.049   7.496   2.592  0.1781 -0.1471 -0.4323
68423W        W11361   6.183   7.245   1.253 -0.0268 -0.2591 -0.2883
68424W        W11362   4.918   8.726   1.570  0.0722 -0.1838  0.3180
68425W        W11363   7.580  11.707   1.415  0.1567 -0.0134 -0.3502
68426W        W11364   6.384   8.539  31.578  0.0951  0.0396  0.1884
68427W        W11365   6.616  10.519   0.316 -0.1904  0.2689 -0.3340
68428W        W11366   3.588   8.439   2.540 -0.1000  0.1420  0.0718
68429W        W11367   2.980   7.938   0.428 -0.5166 -0.0208 -0.0408
68430W        W11368   4.222   7.384   4.693 -0.1224  0.2399  0.1394
68431W        W11369   3.957   7.816   3.026 -0.0666 -0.1330 -0.0238
68432W        W11370   7.709   8.971   4.190 -0.0877  0.2482  0.0331
68433W        W11371   3.563   6.490   0.768 -0.2814 -0.1832 -0.2672
68434W        W11372   6.287   7.820   1.445  0.0039 -0.0434  0.0201
68435W        W11373   5.438   7.685   0.197  0.5613 -0.0495  0.5032
68436W        W11374   3.365   9.491   0.248 -0.3336  0.2700  0.2038
68437W        W11375   5.639   7.341   2.178 -0.1625  0.1558 -0.2392
68438W        W11376   4.823  11.040   0.053 -0.3741  0.1002  0.2657
68439W        W11377   7.508  11.168   3.190 -0.0185 -0.0509 -0.0028
68440W        W11378   6.931  10.806   1.931 -0.2237 -0.1220 -0.2340
68441W        W11379   5.454   8.755   1.789 -0.2288  0.1314  0.0802
68442W        W11380   3.400   6.908   0.952  0.0484 -0.2046 -0.2342
68443W        W11381   5.169   9.548   1.543 -0.1502  0.3641 -0.1770
68444W        W11382   7.676  10.211   0.561  0.1762  0.0503  0.0129
68445W        W11383   4.952   8.094   0.037 -0.0311 -0.1315  0.1720
68446W        W11384   7.883  11.010   0.796 -0.1446 -0.0045 -0.1504
68447W        W11385   3.696   8.748   0.837  0.3659  0.0029  0.0565
68448W        W11386   3.936   9.069   3.539 -0.1536  0.0426 -0.1176
68449W        W11387   6.229   5.726   3.174 -0.1298 -0.0059  0.0513
68450W        W11388   7.146  10.416   1.740 -0.0256 -0.3006 -0.0277
68451W        W11389   4.755   8.264   1.396 -0.3092 -0.2476 -0.0259
68452W        W11390   3.646   6.387   0.237  0.1212  0.0770 -0.0655
68453W        W11391   5.761  11.301   1.972 -0.1820  0.0599  0.0335
68454W        W11392   3.130  10.811  31.980 -0.0118 -0.2401 -0.1273
68455W        W11393   3.383  10.064   0.945 -0.0442 -0.1004  0.0259
68456W        W11394   4.557   9.785  31.948  0.1628 -0.1886 -0.0984
68457W        W11395   6.170   8.016   1.941 -0.1491  0.2005 -0.1757
68458W        W11396   3.659   8.790   3.864 -0.0611  0.3933 -0.0333
68459W        W11397   5.024   8.958   2.121 -0.0672  0.1291 -0.3331
68460W        W11398   3.932   7.940   0.160 -0.0050  0.3302  0.0479
68461W        W11399   3.868   9.622   2.762  0.1910 -0.1949  0.3525
68462W        W11400   6.418   7.013   0.498  0.0862  0.3225 -0.3502
68463W        W11401   6.656   6.534  31.504  0.1874 -0.3043  0.2027
68464W        W11402   6.833  10.379   3.097  0.0061  0.0004 -0.1063
68465W        W11403   7.676   8.885   1.825 -0.1306 -0.0171  0.0829
68466W        W11404   6.774   9.181   0.525  0.0786  0.0764 -0.1630
68467W        W11405   3.798   7.105  30.873  0.0740 -0.0955 -0.1248
68468W        W11406   3.184   8.399   4.087  0.2558 -0.3310  0.0121
68469W        W11407   4.221   9.872   0.769  0.1749  0.0287  0.1511
68470W        W11408   5.110   8.033   2.278 -0.1961 -0.1579  0.4378
68471W        W11409   5.345   8.148  31.400  0.0807  0.0058 -0.3285
68472W        W11410   8.202  10.843  31.478 -0.1217 -0.1035 -0.0082
68473W        W11411   4.979   9.753   2.717 -0.1547  0.3162 -0.1940
68474W        W11412   6.427  10.292   3.448 -0.1136 -0.0148  0.3772
68475W        W11413   6.194   9.902   1.331 -0.0802  0.1608 -0.1152
68476W        W11414   5.498   6.852   3.130 -0.3347  0.1216  0.2637
68477W        W11415   6.343   7.091  31.484 -0.2237  0.0493  0.2470
68478W        W11416   6.264   6.864   0.942  0.3177  0.0682  0.0942
68479W        W11417   3.656   8.957   1.592 -0.0775  0.0852 -0.0786
68480W        W11418   6.442   6.427   2.664 -0.2343 -0.0347  0.0930
68481W        W11419   5.383   7.398   1.337  0.1511  0.0319  0.1171
68482W        W11420   5.077   7.170   3.252 -0.0378 -0.1365 -0.0479
68483W        W11421   5.448   7.847   2.633 -0.0491  0.0725  0.0962
68484W        W11422   4.694   8.870   0.241 -0.1120  0.1753  0.0457
68485W        W11423   5.968   8.152   1.076  0.0247  0.1176  0.1885
68486W        W11424   3.772   7.409  31.277  0.1358  0.0378 -0.0188
68487W        W11425   4.483   9.006   3.362  0.2008  0.6085  0.1735
68488W        W11426   4.764   7.990   4.960 -0.1254 -0.0400  0.1570
68489W        W11427   3.855  11.416   2.684 -0.2004  0.0906  0.1110
68490W        W11428   6.866   8.931   4.094 -0.0680 -0.3690  0.0593
68491W        W11429   5.801   8.922   1.283  0.0861 -0.1346 -0.0226
68492W        W11430   6.351   7.761   2.702  0.1039  0.3075 -0.2918
68493W        W11431   4.476   8.174   0.902 -0.2398 -0.2859  0.0052
68494W        W11432   5.178   9.796  31.963  0.1318  0.2187  0.0534
68495W        W11433   3.196  11.050  31.550 -0.2079  0.0306 -0.1416
68496W        W11434   5.676   5.961   1.681 -0.0535 -0.1347  0.0068
68497W        W11435   5.381  10.328   2.080  0.3578 -0.3059 -0.0639
68498W        W11436   4.217   8.294  31.877  0.1769 -0.1778 -0.1533
68499W        W11437   7.156  10.017   2.166 -0.1263 -0.0074  0.0385
68500W        W11438   3.634   9.694   2.267  0.1411 -0.1716 -0.0604
68501W        W11439   6.118   6.753   1.521 -0.1704  0.2482  0.0585
68502W        W11440   5.025  10.387   2.519 -0.3210 -0.1534  0.1951
68503W        W11441   3.595   7.701  31.853 -0.2453 -0.0230 -0.0465
68504W        W11442   3.185   7.891   0.915 -0.2641 -0.1860  0.1594
68505W        W11443   6.860   7.570   1.093  0.3619 -0.0530 -0.0837
68506W        W11444   7.053   9.280   1.010 -0.2028  0.0258 -0.1611
68507W        W11445   4.617   8.514   3.235 -0.3251 -0.3344 -0.1561
68508W        W11446   5.042   7.328   2.707 -0.1523 -0.0607 -0.1525
68509W        W11447   4.195   9.562   1.952  0.3126  0.0377  0.2768
68510W        W11448   6.373   8.662   1.795 -0.3764 -0.2507  0.1066
68511W        W11449   6.512   7.579   0.424  0.0639  0.1576 -0.1229
68512W        W11450   6.818  10.539   3.813 -0.0847 -0.1982 -0.1191
68513W        W11451   5.334   8.804   3.797 -0.1559 -0.1269 -0.1161
68514W        W11452   4.229   8.011   1.297  0.0947 -0.4247  0.1615
68515W        W11453   6.906   8.889   3.103 -0.1857 -0.2709  0.0951
68516W        W11454   4.187   8.951   0.330 -0.0484  0.0047 -0.0099
68517W        W11455   3.684  10.867   1.301  0.0711  0.2137 -0.0522
68518W        W11456   5.919   9.939   2.151 -0.3727  0.2299  0.4194
68519W        W11457   3.950   9.069  31.830 -0.3082 -0.0806  0.1782
68520W        W11458   4.153   9.237   2.610  0.0441 -0.0109 -0.0172
68521W        W11459   5.466   8.441   3.396  0.2426 -0.2459 -0.1800
68522W        W11460   6.413   9.411   3.413 -0.2687 -0.1638 -0.2094
68523W        W11461   4.653   7.282   1.208  0.0425  0.1305 -0.0743
68524W        W11462   4.897   8.445   2.027  0.1546  0.0948 -0.0646
68525W        W11463   4.883   7.826   0.942 -0.1031  0.1307 -0.3057
68526W        W11464   7.332   9.486   2.263 -0.1204  0.2942 -0.0799
68527W        W11465   5.960   7.769   2.350 -0.1844  0.0693  0.0952
68528W        W11466   4.817  10.269   3.316 -0.2160  0.0241  0.1605
68529W        W11467   6.004   7.545   1.845  0.0109 -0.1554 -0.1534
68530W        W11468   6.665  11.155   2.179 -0.2227  0.0500  0.2579
68531W        W11469   4.936   8.644   4.167  0.1158  0.0534  0.0042
68532W        W11470   5.823   9.088  31.878 -0.0466 -0.2830 -0.0792
68533W        W11471   2.603  10.844  31.578 -0.1107 -0.0202  0.1453
68534W        W11472   5.651   6.694   1.573  0.0349 -0.0315 -0.0264
68535W        W11473   5.565   8.631   2.973 -0.1447 -0.2853  0.4376
68536W        W11474   5.640  10.494   3.666  0.1821  0.2706  0.2153
68537W        W11475   6.019   9.119   0.846  0.2662  0.2759  0.0438
68538W        W11476   3.672   9.153   2.314 -0.1844 -0.1102 -0.0139
68539W        W11477   5.985   7.868   0.602 -0.0835 -0.1416  0.3432
68540W        W11478   5.629   9.957   0.088 -0.2259 -0.1476  0.1992
68541W        W11479   6.940   9.028   2.577 -0.0115  0.0208  0.0409
68542W        W11480   6.412   7.016   2.776  0.2809 -0.3468  0.4175
68543W        W11481   7.283   9.417   0.545 -0.0110 -0.0267 -0.0412
68544W        W11482   5.362   7.906   4.076  0.1447 -0.0416 -0.1423
68545W        W11483   3.646   7.298   1.606 -0.2081  0.0185  0.2626
68546W        W11484   7.524   9.023   0.890  0.2599 -0.3251 -0.1697
68547W        W11485   3.400   9.075   3.580  0.2830 -0.0475  0.1777
68548W        W11486   6.300  11.481   2.866 -0.0205  0.2194 -0.2602
68549W        W11487   5.748   9.114   3.913  0.1099  0.0567  0.1953
68550W        W11488   5.214   8.289   2.756  0.1034  0.1940 -0.0903
68551W        W11489   4.083   7.839  31.555  0.2425  0.1105 -0.0308
68552W        W11490   5.107   9.130   2.682 -0.2101 -0.0341 -0.0913
68553W        W11491   7.747  10.215   0.031  0.0835 -0.1072 -0.1139
68554W        W11492   5.824   8.421   1.463  0.1352 -0.3829 -0.1956
68555W        W11493   6.705   7.433   1.525  0.0708 -0.1535  0.3062
68556W        W11494   4.293   9.769   3.585  0.0521  0.3844 -0.2663
68557W        W11495   6.454   7.400   0.850  0.0910 -0.1716  0.1659
68558W        W11496   4.508   7.861   0.038 -0.2909  0.1079  0.1288
68559W        W11497   4.595   9.756   1.563 -0.3871 -0.0073 -0.2193
68560W        W11498   4.443   7.736   2.615  0.2648 -0.3487  0.0674
68561W        W11499   5.390   9.629   0.871  0.0613  0.2661 -0.1374
68562W        W11500   6.723   7.883   1.768 -0.2015  0.4091  0.0846
68563W        W11501   4.835   6.854   2.907  0.1277 -0.0529 -0.0469
68564W        W11502   5.586   8.996   2.349  0.1487  0.0874  0.1384
68565W        W11503   7.283   9.878   2.638 -0.1733 -0.1191 -0.1514
68566W        W11504   3.254   7.007   4.160 -0.1722  0.0379  0.0294
68567W        W11505   6.354  10.455   2.830 -0.3258 -0.2725 -0.4318
68568W        W11506   6.662   8.076  31.620 -0.3239  0.1933 -0.2617
68569W        W11507   6.767   8.035   1.283 -0.0810 -0.2154  0.0126
68570W        W11508   6.821   8.508  31.950  0.0428 -0.0508 -0.0900
68571W        W11509   6.468   7.944   0.939 -0.4885  0.1052  0.1151
68572W        W11510   3.273   7.910   1.795  0.2144 -0.0242  0.0925
68573W        W11511   4.891   7.847   2.718 -0.1492  0.0827  0.0277
68574W        W11512   5.100   6.892   1.160 -0.0016  0.1990 -0.3554
68575W        W11513   5.973   6.896   3.621 -0.1553 -0.1793  0.0121
68576W        W11514   4.347  11.145   0.156 -0.1676 -0.0479 -0.0732
68577W        W11515   4.452   8.748   1.206 -0.2939 -0.1256  0.0475
68578W        W11516   6.805   8.865   0.903 -0.0646 -0.2503  0.2504
68579W        W11517   3.826   7.666   1.947 -0.1554  0.0746 -0.0629
68580W        W11518   4.550  10.014   2.036  0.2790 -0.1119 -0.1555
68581W        W11519   3.359   7.911  31.125 -0.1769 -0.0722  0.1501
68582W        W11520   4.150   8.419   0.341  0.2551 -0.2361  0.1328
68583W        W11521   6.714  10.228   0.730  0.0556 -0.0950 -0.0892
68584W        W11522   7.319   8.568   3.993 -0.1778  0.0537  0.0985
68585W        W11523   4.372   6.472  31.462  0.0836 -0.4155 -0.2449
68586W        W11524   6.961   7.795   2.298 -0.1146 -0.0656 -0.0159
68587W        W11525   3.728  10.166  31.813 -0.1636 -0.3342 -0.0004
68588W        W11526   5.638   5.431   1.422  0.1131  0.2002 -0.0541
68589W        W11527   5.862  10.398   2.464  0.5291  0.0173 -0.0391
68590W        W11528   3.638   9.626   4.315  0.1902 -0.0101 -0.0834
68591W        W11529   5.286   9.492   2.333 -0.0793 -0.0908 -0.2262
68592W        W11530   5.712   5.155   3.095 -0.1326 -0.1954 -0.1720
68593W        W11531   6.000   8.396   3.259  0.1336 -0.0695 -0.0186
68594W        W11532   4.116   9.233   0.769 -0.0566 -0.1489 -0.1177
68595W        W11533   6.544   8.129   2.248  0.2074 -0.1530 -0.1537
68596W        W11534   4.533   9.164   2.862 -0.0266 -0.0187 -0.0573
68597W        W11535   4.286   7.434   0.000 -0.2671  0.0763  0.0952
68598W        W11536   6.764   8.527   3.688  0.0919 -0.3109 -0.2312
68599W        W11537   6.980   8.716   0.463 -0.2328 -0.0545  0.2329
68600W        W11538   3.843   9.243   4.061 -0.0036 -0.2834 -0.1398
68601W        W11539   3.357   8.652   4.479 -0.2814  0.1923  0.2408
68602W        W11540   5.527   8.959   3.336  0.1763  0.1054 -0.1217
68603W        W11541   4.294   9.370   1.231 -0.0922 -0.1844  0.1422
68604W        W11542   4.253   7.950   0.543  0.3410  0.3839 -0.1512
68605W        W11543   5.312   9.529   0.402 -0.1053  0.0147  0.1853
68606W        W11544   3.365   9.838   2.744 -0.0511  0.0833 -0.1165
68607W        W11545   5.454  10.119   2.515  0.0283  0.3612 -0.4299
68608W        W11546   3.715   9.053   0.475 -0.2453 -0.1766 -0.1438
68609W        W11547   5.622   8.736   0.231 -0.2230 -0.2296 -0.0767
68610W        W11548   5.569   8.750   0.819 -0.1504 -0.0787 -0.0644
68611W        W11549   6.020   9.287   2.581 -0.3002  0.2396 -0.1778
68612W        W11550   5.697   7.021   1.137  0.4271 -0.4038 -0.2472
68613W        W11551   3.838   9.566   0.393 -0.0026 -0.3409 -0.1592
68614W        W11552   2.589   9.305   1.912 -0.0120  0.0438 -0.2096
68615W        W11553   7.626  10.106   1.042 -0.2632  0.1804  0.0722
68616W        W11554   4.681   9.207   1.502 -0.0554 -0.2145 -0.0224
68617W        W11555   8.903  10.197   2.525 -0.0383 -0.0429 -0.0643
68618W        W11556   6.884   6.524  31.971  0.0497 -0.2344 -0.1241
68619W        W11557   6.797   9.692   0.656  0.0922  0.3276  0.0457
68620W        W11558   6.832   8.588   1.320 -0.0425  0.1442 -0.1914
68621W        W11559   6.993  11.002   3.016  0.0920 -0.0300  0.2623
68622W        W11560   5.505   7.307   2.944  0.1815 -0.2786 -0.1902
68623W        W11561   4.777   8.471  30.854 -0.4295  0.4550 -0.0124
68624W        W11562   5.016   8.647   3.458  0.0291  0.0773  0.0211
68625W        W11563   7.501   6.820   3.181  0.1037 -0.2143 -0.0054
68626W        W11564   4.035  10.858   4.241  0.1581 -0.0600 -0.0201
68627W        W11565   6.187  11.365   0.530  0.0481 -0.1615  0.2651
68628W        W11566   3.842   7.686   1.330  0.0662 -0.3418  0.1149
68629W        W11567   4.068   9.025   2.097 -0.0273  0.0700  0.1092
68630W        W11568   7.334   5.410   2.656 -0.0698 -0.1083  0.0933
68631W        W11569   4.955   8.601  31.893 -0.0999 -0.1468  0.0696
68632W        W11570   4.773   8.754   2.796 -0.2202 -0.0213 -0.4324
68633W        W11571   4.945   9.914   1.050  0.1880 -0.0402 -0.0879
68634W        W11572   5.549   7.865   2.066 -0.2161  0.1631 -0.0238
68635W        W11573   4.733  10.275   1.394 -0.1019  0.0494  0.0916
68636W        W11574   4.082   6.681   1.036  0.2029 -0.2148 -0.1559
68637W        W11575   7.810   9.321   0.441 -0.1469 -0.1265 -0.1350
68638W        W11576   4.514   8.818   3.891  0.4106  0.0135 -0.2002
68639W        W11577   6.151   7.330   2.437  0.2096  0.0209  0.2825
68640W        W11578   3.549   7.334   1.098  0.3526  0.0849  0.0409
68641W        W11579   7.298   7.597   0.874 -0.3873  0.0905 -0.0311
68642W        W11580   5.005  10.124   1.788  0.1058  0.0503  0.1747
68643W        W11581   2.445   8.478   4.168  0.0986  0.0082  0.2414
68644W        W11582   4.666   7.941  30.767  0.1758  0.0790  0.0565
68645W        W11583   7.892   9.427   2.478  0.1890  0.0559  0.0053
68646W        W11584   5.219   9.188  31.523  0.0248 -0.0334 -0.0729
68647W        W11585   5.576  10.878   3.231 -0.1250  0.0516  0.1223
68648W        W11586   4.400   5.983   1.770  0.1143 -0.2879 -0.4314
68649W        W11587   5.472   7.723   0.702 -0.1951  0.0825  0.1644
68650W        W11588   4.929   8.895   1.083 -0.0818  0.4161 -0.0097
68651W        W11589   3.677   8.695   3.328  0.0501 -0.0095 -0.0490
68652W        W11590   7.130  10.169   3.492  0.2920  0.0165 -0.2098
68653W        W11591   3.325   6.969   1.437 -0.0453 -0.0457 -0.0145
68654W        W11592   6.746   9.282  31.691  0.2855 -0.0695  0.0718
68655W        W11593   6.404   9.752   2.108 -0.1587 -0.0128  0.1193
68656W        W11594   3.824   9.640  31.889 -0.3094 -0.3423 -0.0344
68657W        W11595   5.401   8.543   1.233 -0.1932 -0.4428 -0.0975
68658W        W11596   4.118   9.794   1.366  0.1514  0.1979 -0.1112
68659W        W11597   4.064   8.096   2.517  0.1321 -0.2484 -0.0811
68660W        W11598   5.774  10.017   1.583  0.0599 -0.2014  0.1982
68661W        W11599   6.943   9.866   1.106 -0.4278 -0.1053  0.1794
68662W        W11600   5.412   6.776  31.694 -0.1103  0.0898  0.0436
68663W        W11601   4.877   9.499   1.910  0.0359  0.0848 -0.4588
68664W        W11602   2.223  10.340   1.280  0.1466  0.1545  0.0542
68665W        W11603   6.876   6.435   0.515  0.0231  0.0765  0.5187
68666W        W11604   6.085   8.702   2.876  0.2689  0.0423 -0.1924
68667W        W11605   5.649   9.272  31.281  0.1150  0.0458  0.1628
68668W        W11606   6.485   6.868   3.645 -0.2765 -0.2725  0.1688
68669W        W11607   6.410  10.978   1.520  0.2071  0.1260  0.0285
68670W        W11608   6.932   9.420   3.125 -0.0465  0.0052 -0.1692
68671W        W11609   2.451  10.562   0.445  0.1815 -0.1014 -0.2313
68672W        W11610   6.435   9.992   3.053 -0.3117  0.2062  0.3106
68673W        W11611   5.860   8.993   1.928  0.2144 -0.0610  0.1398
68674W        W11612   5.227  12.673   1.415 -0.0217 -0.0124 -0.0465
68675W        W11613   6.117   9.307   1.415  0.1615 -0.2516  0.0678
68676W        W11614   5.220   8.553   0.400 -0.1274  0.0166 -0.1260
68677W        W11615   7.444  11.867   2.249  0.0290  0.0062  0.1485
68678W        W11616   4.318   7.683   0.987 -0.1449  0.1248  0.5341
68679W        W11617   7.310   7.127   0.206  0.1983  0.3333 -0.3379
68680W        W11618   5.193   7.304  31.823 -0.0487  0.2120  0.3414
68681W        W11619   5.885   9.373   3.521  0.4836  0.1854  0.0729
68682W        W11620   3.457   8.156   0.057  0.1081 -0.1079  0.3126
68683W        W11621   3.445   9.389   1.729  0.1712 -0.2592  0.1124
68684W        W11622   4.669   7.777   1.383  0.1901  0.1601 -0.3558
68685W        W11623   5.045   5.704   3.728 -0.0891 -0.0476 -0.0870
68686W        W11624   3.821   8.372   2.960  0.0219 -0.0624  0.2819
68687W        W11625   4.151   9.154   1.660 -0.2389  0.1665  0.1361
68688W        W11626   4.538   7.085   0.275  0.1310 -0.3101  0.0454
68689W        W11627   6.570  11.028   0.507 -0.0669 -0.1990 -0.0473
68690W        W11628   4.840   8.013   1.834  0.0520  0.2918  0.0634
68691W        W11629   2.690   7.208   3.271 -0.0266  0.1914  0.2834
68692W        W11630   5.358  10.163   0.709  0.1178 -0.2904  0.1653
68693W        W11631   7.439  12.396   1.672  0.2812 -0.0853 -0.2678
68694W        W11632   3.815   8.676   0.065 -0.1997 -0.0639  0.2309
68695W        W11633   8.142  10.663   3.031  0.2229  0.1462  0.0328
68696W        W11634   1.093   8.591   0.290 -0.0758  0.1975 -0.3726
68697W        W11635   5.628   9.155   2.877 -0.0257  0.1452  0.0286
68698W        W11636   5.860   6.039   3.396 -0.0271  0.2074  0.4511
68699W        W11637   2.424   7.394  31.371  0.2181  0.0969 -0.2343
68700W        W11638   4.157   8.639   3.577  0.1828  0.1724  0.0654
68701W        W11639   6.137   9.907  31.965  0.3646  0.1090 -0.0530
68702W        W11640   7.940  10.943  31.037 -0.1403  0.0002 -0.2894
68703W        W11641   5.990   9.557   3.049  0.1238 -0.1415  0.3502
68704W        W11642   5.093  11.078   3.254  0.0577 -0.2037 -0.1336
68705W        W11643   4.481   6.999   2.094  0.0527 -0.0845  0.1371
68706W        W11644   4.648   9.180   0.627 -0.0167  0.1884 -0.0211
68707W        W11645   5.322   9.358   3.723  0.0742  0.1343  0.1133
68708W        W11646   7.557   9.238   1.425 -0.1732 -0.1867  0.4612
68709W        W11647   6.471   7.597   2.082  0.0394  0.1174  0.3770
68710W        W11648   6.482   8.735   0.547 -0.1051  0.2738  0.1970
68711W        W11649   3.070   8.067   2.799  0.0747  0.0914  0.1638
68712W        W11650   4.646   8.374   3.671  0.4314 -0.3290 -0.0674
68713W        W11651   6.030   9.064   3.174 -0.3150 -0.2852  0.0536
68714W        W11652   5.267   7.045   1.652  0.0995 -0.5403  0.5165
68715W        W11653   5.833   8.276   0.172 -0.2418  0.0563  0.3828
68716W        W11654   4.891  10.341   0.761 -0.0522  0.1811 -0.1626
68717W        W11655   4.359   9.662   2.780  0.0630 -0.0251 -0.3395
68718W        W11656   3.625   8.167  31.545 -0.0104 -0.0753  0.0466
68719W        W11657   4.552   9.093   1.994  0.0426  0.2670 -0.0507
68720W        W11658   5.754   9.470   2.126 -0.1130 -0.0173 -0.0986
68721W        W11659   6.291  10.177   1.796 -0.2643 -0.0619  0.3659
68722W        W11660   5.221   8.079   0.436 -0.1605  0.0804  0.1039
68723W        W11661   7.847   9.059  31.190  0.2459  0.1055 -0.0816
68724W        W11662   6.350  10.975   2.508 -0.2436 -0.2073  0.1172
68725W        W11663   6.371  10.588   5.152  0.2204  0.3430 -0.1814
68726W        W11664   5.282  10.053   1.347  0.0317 -0.2041 -0.4365
68727W        W11665   6.307   8.875   1.334  0.1576 -0.3447 -0.0761
68728W        W11666   5.199   7.553   1.892 -0.0586  0.0287 -0.2088
68729W        W11667   4.420   8.528   1.782 -0.1049 -0.2055 -0.0927
68730W        W11668   3.276   9.818  31.869  0.0171 -0.1299  0.0294
68731W        W11669   6.341   8.273   1.429 -0.1086 -0.0235 -0.2435
68732W        W11670   4.026   7.247   1.166  0.3012 -0.3208 -0.0970
68733W        W11671   4.375   7.020   0.782  0.1153  0.0512 -0.2105
68734W        W11672   4.700  10.825   2.655 -0.0897  0.0654  0.2023
68735W        W11673   6.609  10.546   1.617  0.2300 -0.3067  0.2630
68736W        W11674   4.356   8.900   6.122 -0.1559 -0.3254 -0.6318
68737W        W11675   5.133   8.310   3.813  0.0477  0.1320 -0.0060
68738W        W11676   5.821   6.257   3.864 -0.0175 -0.0697 -0.0526
68739W        W11677   6.021   8.734   5.478 -0.0446  0.0386  0.1224
68740W        W11678   2.967   4.998   3.974  0.0274 -0.0300  0.2175
68741W        W11679   7.278  10.792   5.340 -0.0095 -0.0038 -0.2157
68742W        W11680   3.828   7.702   6.882 -0.0915  0.0717  0.1894
68743W        W11681   5.033   9.894   7.506  0.0487 -0.1555 -0.1589
68744W        W11682   6.570  10.355   4.216 -0.3401  0.3939 -0.0017
68745W        W11683   4.495   8.346   4.159  0.1120 -0.3782  0.0036
68746W        W11684   6.027   7.777   5.603  0.1239  0.0118 -0.0438
68747W        W11685   4.521   9.948   6.081 -0.0059  0.4026  0.0959
68748W        W11686   4.052   6.916   4.874  0.0353 -0.2279 -0.0021
68749W        W11687   2.428   7.108   5.333 -0.4114  0.3221  0.0670
68750W        W11688   5.317   9.153   6.318 -0.1502  0.2992  0.1643
68751W        W11689   3.164   9.847   4.220  0.2904 -0.1188 -0.2182
68752W        W11690   3.771   8.929   5.368  0.3331  0.0435 -0.1736
68753W        W11691   5.169   7.555   3.687  0.2550 -0.2829 -0.2081
68754W        W11692   5.372   9.074   6.884 -0.0207  0.0577 -0.1690
68755W        W11693   4.303   6.984   6.212 -0.0156  0.0681 -0.1689
68756W        W11694   5.793   7.202   6.752  0.1164 -0.2389  0.2946
68757W        W11695   5.404  10.725   4.877  0.1192  0.2051  0.0817
68758W        W11696   3.136   8.255   2.349  0.2262 -0.1994 -0.2229
68759W        W11697   4.707   8.518   6.294 -0.1030  0.0529 -0.1533
68760W        W11698   4.773  10.080   4.657  0.2540  0.2811 -0.2917
68761W        W11699   6.168   7.642   5.123  0.0369 -0.1954 -0.1186
68762W        W11700   5.906   8.450   5.064  0.0359  0.2115 -0.0975
68763W        W11701   3.938  10.443   4.489  0.2397 -0.3543  0.2805
68764W        W11702   4.468  10.989   5.171 -0.2442 -0.0856 -0.3816
68765W        W11703   5.847   8.265   5.603 -0.1185 -0.0831  0.0306
68766W        W11704   3.195   9.596   5.680  0.1918 -0.1025 -0.0553
68767W        W11705   4.178  10.035   4.447 -0.1131  0.1317 -0.2539
68768W        W11706   4.679   9.021   4.900  0.1218  0.0451  0.0283
68769W        W11707   5.479   8.952   5.180  0.0819 -0.2268  0.1518
68770W        W11708   7.089   9.219   5.516 -0.1353  0.0695  0.1282
68771W        W11709   4.941  11.295   6.948 -0.1096 -0.0670  0.1013
68772W        W11710   5.138  10.112   2.947 -0.0551 -0.1222  0.1537
68773W        W11711   5.489  10.053   6.171  0.1525 -0.0181 -0.0476
68774W        W11712   4.999   9.899   5.288  0.2449  0.0119 -0.0737
68775W        W11713   5.853   9.041   6.756 -0.3254 -0.0889 -0.3994
68776W        W11714   5.093   8.719   5.588 -0.2407  0.0412 -0.0333
68777W        W11715   5.221  10.271   3.840  0.2108 -0.0841  0.0493
68778W        W11716   4.016  10.059   4.915 -0.1168 -0.2206  0.0970
68779W        W11717   4.848   9.237   6.587  0.3805  0.4425  0.2148
68780W        W11718   4.618  10.959   3.693  0.1116 -0.1316 -0.0214
68781W        W11719   6.008   7.124   7.421 -0.3829  0.1027 -0.0874
68782W        W11720   5.679  10.255   4.098  0.0555  0.0222  0.1737
68783W        W11721   5.487   7.955   5.206  0.1364 -0.3627 -0.0670
68784W        W11722   4.973   6.346   2.548 -0.1485 -0.2876  0.1417
68785W        W11723   6.371   7.968   3.456 -0.0906  0.0456  0.1862
68786W        W11724   5.952   7.017   5.175 -0.1150 -0.0030 -0.2590
68787W        W11725   4.728  11.398   5.177 -0.0090  0.2619 -0.1165
68788W        W11726   4.625   7.725   4.593  0.3007 -0.2891 -0.0287
68789W        W11727   6.691   9.083   5.808  0.0202 -0.1405  0.2388
68790W        W11728   5.105   9.262   5.694 -0.2021  0.1709  0.0621
68791W        W11729   6.059   9.483   6.658  0.1230  0.0492  0.0866
68792W        W11730   3.447   8.934   6.134  0.2178 -0.3676  0.0340
68793W        W11731   7.796  10.189   4.227  0.1185  0.2114  0.0374
68794W        W11732   9.146   9.229   4.231  0.2026 -0.2238  0.1541
68795W        W11733   6.807   9.654   2.633  0.3460  0.2065 -0.0779
68796W        W11734   4.169   9.358   3.146 -0.2605  0.0938 -0.0141
68797W        W11735   4.546   8.775   6.728  0.1062 -0.0093 -0.2490
68798W        W11736   3.450   9.817   6.485 -0.0261 -0.3778 -0.0521
68799W        W11737   4.014   6.289   2.714  0.5663  0.3828 -0.2480
68800W        W11738   8.077   9.075   6.608  0.1212  0.1995  0.1248
68801W        W11739   3.376   9.895   6.002  0.0299  0.1065 -0.1574
68802W        W11740   7.019   6.948   4.960 -0.0916 -0.1544 -0.1556
68803W        W11741   4.462   8.148   5.462 -0.0689  0.3714  0.1438
68804W        W11742   6.217   9.616   5.445 -0.0443 -0.0275 -0.1585
68805W        W11743   6.802  10.324   2.049  0.3044  0.1253 -0.0936
68806W        W11744   5.311   7.769   4.535 -0.0571 -0.0544  0.2083
68807W        W11745   5.855   8.063   6.129  0.0320  0.1356  0.1287
68808W        W11746   5.113   9.866   3.386 -0.2727 -0.0077 -0.0271
68809W        W11747   5.084   8.818   4.623  0.0329  0.1177  0.1397
68810W        W11748   6.189   8.996   5.967  0.1959  0.2278  0.1614
68811W        W11749   6.800   9.262   4.483  0.1872 -0.0357 -0.0890
68812W        W11750   4.804  11.267   4.730  0.0259  0.3478 -0.0754
68813W        W11751   4.297   7.864   4.975  0.2425 -0.0409  0.1463
68814W        W11752   5.967   9.760   7.065  0.0164  0.0103 -0.1432
68815W        W11753   4.313  10.244   3.529 -0.0020 -0.2754  0.0361
68816W        W11754   2.884   8.422   5.337 -0.0307 -0.0303  0.5021
68817W        W11755   4.165   8.668   5.550  0.1253 -0.0265 -0.1279
68818W        W11756   3.484   8.153   7.267  0.0099  0.0972 -0.1538
68819W        W11757   5.372   9.287   4.788  0.1872  0.1618 -0.1578
68820W        W11758   6.402   6.374   4.464 -0.0019 -0.0259 -0.1337
68821W        W11759   4.423   6.997   5.217  0.0851 -0.1725 -0.0147
68822W        W11760   7.167   6.997   5.474 -0.0601 -0.2664 -0.2269
68823W        W11761   4.438  10.224   3.003 -0.0020 -0.0635 -0.2673
68824W        W11762   6.287  10.029   5.091 -0.0813  0.0519 -0.0054
68825W        W11763   6.146   6.885   4.417  0.1744 -0.1041 -0.1354
68826W        W11764   6.372  10.845   3.846 -0.0246 -0.1514 -0.1859
68827W        W11765   3.991   8.213   5.264 -0.0517  0.0290 -0.0438
68828W        W11766   3.551   8.240   4.861 -0.0328  0.3367 -0.1410
68829W        W11767   5.522   7.749   6.448 -0.0305  0.2207 -0.1388
68830W        W11768   3.145   6.334   5.217 -0.3977  0.1504 -0.0527
68831W        W11769   6.713   7.899   6.396  0.1620 -0.1805 -0.3564
68832W        W11770   3.503   7.815   3.237  0.1204 -0.0404  0.1784
68833W        W11771   6.521   8.279   4.568 -0.3567 -0.1029 -0.0664
68834W        W11772   5.441   8.415   4.415  0.0266 -0.1495 -0.1446
68835W        W11773   4.181  10.709   3.749 -0.1405  0.0448  0.0082
68836W        W11774   6.994   7.415   5.277  0.5600  0.1367 -0.0514
68837W        W11775   5.289  11.121   4.602 -0.0890  0.0087 -0.1068
68838W        W11776   6.831  10.537   5.490 -0.0218  0.0676  0.0479
68839W        W11777   5.415  10.346   3.267  0.1414 -0.1404 -0.1235
68840W        W11778   4.686   7.458   6.385  0.3551 -0.0073  0.1711
68841W        W11779   5.360   5.840   4.224 -0.1044  0.1676  0.0261
68842W        W11780   3.612  10.005   4.616 -0.0908 -0.1867  0.1255
68843W        W11781   4.417  10.440   4.696 -0.2039 -0.1421 -0.1087
68844W        W11782   4.720   7.401   3.596 -0.3453  0.0120  0.2115
68845W        W11783   9.116  11.050   4.368  0.3468 -0.0740 -0.1735
68846W        W11784   5.110   8.634   5.105  0.0011  0.0626  0.0545
68847W        W11785   4.729   9.515   5.434 -0.0593  0.5727 -0.0751
68848W        W11786   7.239   7.970   6.116 -0.0174  0.1526 -0.0762
68849W        W11787   5.309   8.059   6.883  0.2187 -0.0686 -0.0353
68850W        W11788   4.989   8.206   3.206  0.0146  0.3016 -0.0339
68851W        W11789   3.720   7.165   3.877 -0.2314  0.2826 -0.2135
68852W        W11790   6.383  10.690   5.634  0.2252  0.2466 -0.3209
68853W        W11791   4.102   9.751   4.030  0.1496  0.2088  0.1632
68854W        W11792   4.470   8.834   4.409 -0.1231  0.4415  0.1053
68855W        W11793   4.760   9.932   3.651  0.1387 -0.0036 -0.1177
68856W        W11794   7.287   6.747   4.212 -0.1000 -0.1369  0.0315
68857W        W11795   4.073   8.702   6.680  0.2616 -0.0407  0.0675
68858W        W11796   4.963   8.126   7.603  0.1480  0.0717  0.0409
68859W        W11797   4.117   8.196   3.335 -0.2351  0.0742  0.3019
68860W        W11798   4.379   9.378   6.460 -0.3232  0.1935 -0.2342
68861W        W11799   5.580   6.439   3.394 -0.1396  0.1447  0.0717
68862W        W11800   7.241   7.748   3.265 -0.2208  0.0430 -0.1182
68863W        W11801   5.565   8.939   7.891  0.0371 -0.3448 -0.0204
68864W        W11802   5.831   9.458   4.842 -0.0965 -0.1319  0.0203
68865W        W11803   6.543   6.706   3.160 -0.0613 -0.0176 -0.1581
68866W        W11804   5.412   7.292   4.261 -0.0200 -0.4374  0.1683
68867W        W11805   3.963  10.648   5.707 -0.4047 -0.3107  0.1433
68868W        W11806   5.002  10.331   4.278 -0.0822 -0.0965  0.1966
68869W        W11807   5.008   9.668   6.906  0.1144 -0.3436  0.0045
68870W        W11808   5.001   7.040   3.805  0.2586 -0.4278 -0.1051
68871W        W11809   7.601  12.159   3.326  0.0638 -0.2706 -0.0615
68872W        W11810   2.789   8.860   5.079  0.3219 -0.1529 -0.0339
68873W        W11811   4.268   8.777   7.124  0.1332 -0.1734  0.0653
68874W        W11812   5.815  10.997   4.575 -0.1542 -0.0858 -0.2854
68875W        W11813   6.239   7.290   5.594 -0.0820  0.0564 -0.0980
68876W        W11814   5.636   8.352   3.980 -0.1628  0.0655 -0.3163
68877W        W11815   4.386   7.585   5.472 -0.0108 -0.1196 -0.1104
68878W        W11816   5.595   9.907   3.048  0.0800 -0.1149  0.1777
68879W        W11817   8.493   6.491   7.220 -0.1830  0.0726 -0.1035
68880W        W11818   6.274   8.128   5.867 -0.2904 -0.1454  0.0507
68881W        W11819   4.601   6.760   7.906 -0.0633 -0.1419  0.2898
68882W        W11820   6.652   8.146   6.811 -0.1088  0.0779 -0.3416
68883W        W11821   5.386   7.947   3.587  0.1146  0.4911 -0.3620
68884W        W11822   5.068   8.751   6.539  0.2674  0.0166  0.2369
68885W        W11823   5.243   9.775   3.999 -0.1891 -0.0441 -0.2444
68886W        W11824   4.092   7.541   6.510  0.3001  0.2088  0.2329
68887W        W11825   5.422   7.512   7.024 -0.3885  0.0519  0.0558
68888W        W11826   4.090  10.267   5.415 -0.0535 -0.1557 -0.3317
68889W        W11827   7.097   9.550   5.859 -0.1297 -0.2470  0.0186
68890W        W11828   5.512   8.474   5.378 -0.0525  0.0415 -0.0135
68891W        W11829   4.954   8.864   6.054 -0.0896 -0.0293 -0.1534
68892W        W11830   4.947   6.528   3.867  0.1880  0.1098 -0.0414
68893W        W11831   4.899  10.881   4.056 -0.1080  0.1245 -0.1933
68894W        W11832   7.440  10.837   1.862 -0.1687  0.1167  0.0945
68895W        W11833   7.674   8.215   4.953 -0.0663 -0.4349  0.1767
68896W        W11834   4.325   9.427   5.995  0.1578 -0.0841  0.3999
68897W        W11835   6.378  10.200   2.304 -0.3632 -0.0427 -0.1837
68898W        W11836   6.864   8.987   6.828  0.1953  0.0813 -0.1367
68899W        W11837   5.590   9.920   3.513 -0.2536 -0.2047 -0.1148
68900W        W11838   7.120   6.536   4.758  0.1449 -0.2741 -0.0745
68901W        W11839   3.997   9.662   5.239 -0.1093  0.2214 -0.1157
68902W        W11840   3.204   7.320   3.156 -0.1822 -0.0400  0.2659
68903W        W11841   4.873   7.911   3.680  0.0395 -0.2409  0.0786
68904W        W11842   5.626   6.177   5.797 -0.1826  0.1022 -0.2478
68905W        W11843   5.989   8.671   4.156 -0.3204 -0.0113 -0.2396
68906W        W11844   3.992   8.259   5.832 -0.0157  0.1443 -0.0836
68907W        W11845   3.443   7.881   5.922 -0.0867 -0.1909  0.0420
68908W        W11846   3.116  11.090   5.356 -0.0179 -0.1958  0.2671
68909W        W11847   5.819   8.222   6.589 -0.4671  0.2474  0.2937
68910W        W11848   7.710   6.857   3.893 -0.0702 -0.3031  0.0038
68911W        W11849   7.184   9.247   7.150  0.1411 -0.2524  0.0081
68912W        W11850   5.594   9.425   7.621  0.0374  0.1942  0.0217
68913W        W11851   4.213   8.895   5.060  0.0543 -0.0315 -0.1597
68914W        W11852   7.957   8.525   6.153  0.2729  0.0393  0.1677
68915W        W11853   4.955   6.947   4.295 -0.1334 -0.0311  0.0131
68916W        W11854   4.295   9.306   3.709  0.0222  0.2183 -0.2817
68917W        W11855   5.525   9.490   6.660  0.1917  0.3650 -0.1828
68918W        W11856   5.860   8.717   3.623 -0.0527  0.0215 -0.2908
68919W        W11857   4.883  10.713   4.618  0.3467 -0.2395  0.1712
68920W        W11858   4.046   7.011   6.683 -0.1197  0.1803 -0.4434
68921W        W11859   7.286   8.810   7.273  0.0208  0.1772 -0.2505
68922W        W11860   4.179   9.211   5.445 -0.1466 -0.1408  0.0218
68923W        W11861   4.857   7.765   5.396  0.0251  0.0947 -0.1016
68924W        W11862   4.632   8.688   5.356  0.0255 -0.1729 -0.0909
68925W        W11863   6.592   8.631   6.094  0.1022 -0.1121  0.0060
68926W        W11864   5.534   7.880   5.777  0.0921 -0.1517 -0.0534
68927W        W11865   3.657   9.542   6.865  0.0588  0.0847 -0.1058
68928W        W11866   6.726   6.756   4.512  0.0052 -0.2628  0.0749
68929W        W11867   8.137   9.756   3.405  0.1977 -0.3251  0.1350
68930W        W11868   6.232   8.513   7.495 -0.2539  0.0401 -0.1393
68931W        W11869   5.621   8.770   4.728 -0.2367  0.0354 -0.0721
68932W        W11870   3.808   7.791   5.012 -0.2638 -0.0189  0.0151
68933W        W11871   5.208   8.201   4.827  0.0503  0.1978  0.1349
68934W        W11872   5.266   7.422   5.548 -0.0301  0.0625 -0.0334
68935W        W11873   3.025   9.665   6.275  0.2583  0.0732 -0.0249
68936W        W11874   3.483   9.133   4.411  0.0534  0.0400  0.0858
68937W        W11875   3.616  10.327   5.863 -0.0198  0.1735 -0.0844
68938W        W11876   6.702   6.530   3.980  0.2222  0.2307 -0.2919
68939W        W11877   6.614   9.740   4.287  0.4193  0.0314 -0.1010
68940W        W11878   6.464   8.634   5.614  0.1367 -0.1486 -0.2432
68941W        W11879   8.379   7.446   6.922 -0.0184 -0.0114 -0.1464
68942W        W11880   6.254   9.688   2.547  0.1944 -0.0172 -0.0935
68943W        W11881   5.299   7.203   6.566 -0.0595 -0.1744  0.0900
68944W        W11882   6.187   8.077   4.908  0.3086 -0.1622  0.2402
68945W        W11883   6.110   9.494   7.484  0.0578  0.1342 -0.0489
68946W        W11884   3.263   7.896   5.004 -0.0355 -0.2384 -0.1199
68947W        W11885   5.524  11.919   7.454  0.3839  0.2078  0.0206
68948W        W11886   4.216   8.282   6.909 -0.1635  0.2809  0.0517
68949W        W11887   6.448   6.857   5.010  0.0399  0.0271 -0.0699
68950W        W11888   4.562   7.884   4.112 -0.0363  0.3049 -0.1222
68951W        W11889   5.792   9.673   6.237 -0.1215  0.1303  0.0536
68952W        W11890   8.568   9.391   4.916  0.3151 -0.2450 -0.0534
68953W        W11891   4.012   9.528   4.596  0.1639  0.0397 -0.1926
68954W        W11892   6.310   8.146   5.378  0.0061  0.0162 -0.1997
68955W        W11893   4.306   9.792   5.598 -0.1299  0.0882  0.2172
68956W        W11894   6.166   7.667   4.528 -0.4529  0.1544  0.0831
68957W        W11895   4.681   9.455   3.427  0.1808 -0.0147 -0.2427
68958W        W11896   4.895   9.498   4.919 -0.1947 -0.3079  0.0151
68959W        W11897   5.302   6.536   7.280  0.1583  0.1213  0.0181
68960W        W11898   5.558   8.760   6.434  0.0260 -0.0563 -0.1125
68961W        W11899   6.114   5.347   4.829 -0.2525  0.3465  0.0376
68962W        W11900   5.013   7.665   6.023  0.0764  0.0684 -0.2081
68963W        W11901   5.480   8.426   5.891  0.4097 -0.0719 -0.0851
68964W        W11902   5.177   7.135   7.997 -0.0264 -0.1496  0.3174
68965W        W11903   3.012   6.143   6.172  0.3005  0.2223  0.4267
68966W        W11904   5.876  10.700   5.005 -0.0273  0.2057  0.0909
68967W        W11905   5.311   6.391   2.937 -0.3494 -0.0802 -0.2344
68968W        W11906   7.598   7.611   6.074  0.2525  0.1827  0.1969
68969W        W11907   6.588   7.323   4.544 -0.1785  0.0083 -0.2714
68970W        W11908   5.188   9.262   4.167 -0.2006 -0.1164 -0.2486
68971W        W11909   3.732   7.408   5.775 -0.0086  0.1069 -0.1613
68972W        W11910   6.396   8.973   7.257  0.0621  0.0385 -0.2058
68973W        W11911   4.634   6.909   3.411 -0.1179 -0.1039  0.0433
68974W        W11912   7.048   7.498   6.458  0.1759  0.1602 -0.1020
68975W        W11913   5.046  10.659   3.525  0.1504  0.2475 -0.0186
68976W        W11914   6.774   9.385   5.184 -0.2293  0.4969 -0.1375
68977W        W11915   5.155   7.683   3.123  0.1475 -0.1837 -0.1737
68978W        W11916   3.866   7.931   6.164  0.1485  0.2122 -0.2270
68979W        W11917   4.086  10.619   6.299  0.3634  0.1844 -0.0597
68980W        W11918   3.949   8.965   4.573  0.3745  0.0446 -0.2847
68981W        W11919   6.446   9.129   2.903 -0.0044  0.0690  0.3055
68982W        W11920   5.793   9.161   6.254  0.0653 -0.3225 -0.1758
68983W        W11921   6.419   9.174   7.774 -0.0263 -0.1005 -0.0364
68984W        W11922   4.754   5.794   4.545 -0.0002 -0.0509 -0.0658
68985W        W11923   6.808   7.795   4.391 -0.1090 -0.2910  0.0081
68986W        W11924   4.653  10.493   3.829 -0.0228  0.0507  0.0834
68987W        W11925   5.676   8.092   4.750  0.0774  0.0434 -0.0956
68988W        W11926   4.479  10.611   5.571  0.2006 -0.4074  0.1785
68989W        W11927   3.860   9.153   6.405  0.0719  0.2705  0.0194
68990W        W11928   4.999   9.842   5.884  0.2312  0.2838 -0.0462
68991W        W11929   5.811   7.436   6.148 -0.0405  0.2398  0.1511
68992W        W11930   6.481   8.596   4.184 -0.1330  0.2192 -0.2984
68993W        W11931   4.923   9.609   4.408  0.2088  0.0108 -0.5541
68994W        W11932   6.045   8.999   4.864  0.1888 -0.0227  0.1251
68995W        W11933   5.585   8.934   5.824 -0.0626  0.0213 -0.0529
68996W        W11934   4.083   8.501   4.788  0.0620  0.1948  0.1009
68997W        W11935   6.300  10.387   6.758 -0.0261 -0.1828 -0.2527
68998W        W11936   7.770   8.672   5.163 -0.3238  0.0324 -0.3548
68999W        W11937   4.401   9.422   5.045 -0.2707  0.1249 -0.1560
69000W        W11938   3.420   8.373   6.226 -0.0261 -0.0118 -0.0012
69001W        W11939   4.761   8.666   7.593  0.4199  0.0301 -0.3371
69002W        W11940   6.297   9.732   5.996 -0.5025  0.0358 -0.0820
69003W        W11941   4.874   6.044   4.091  0.0931 -0.0032 -0.1356
69004W        W11942   5.618   9.598   4.431  0.0042 -0.0784  0.0238
69005W        W11943   4.434   9.294   6.938  0.1999 -0.2484 -0.2454
69006W        W11944   3.993   9.127   6.917  0.1552 -0.1046  0.2535
69007W        W11945   4.459  12.060   4.789  0.1416 -0.3088  0.0947
69008W        W11946   6.145   9.658   4.474 -0.0286 -0.1808  0.2594
69009W        W11947   6.345   9.891   3.843 -0.2753 -0.0647  0.0265
69010W        W11948   5.869   9.967   5.757  0.0860  0.0095  0.0083
69011W        W11949   4.338   7.755   3.676  0.1147  0.0747 -0.0709
69012W        W11950   3.133  10.544   5.150 -0.0723 -0.1099  0.2150
69013W        W11951   2.577   9.179   3.234  0.0012  0.2154 -0.4994
69014W        W11952   7.534  10.676   4.210 -0.2800 -0.1837 -0.4693
69015W        W11953   2.847  10.726   4.206 -0.3629 -0.2532 -0.5410
69016W        W11954   6.361   9.447   7.050 -0.2513  0.0353 -0.0318
69017W        W11955   5.614   7.513   3.862  0.4247 -0.1351 -0.2267
69018W        W11956   6.533   7.332   5.061  0.0055  0.3178  0.2204
69019W        W11957   7.388   7.684   4.271  0.2987 -0.2211 -0.1421
69020W        W11958   6.544  10.040   6.295  0.1341 -0.0659 -0.0105
69021W        W11959   4.595   9.070   5.682  0.0460 -0.0529  0.0649
69022W        W11960   4.618   7.459   5.065  0.1535 -0.0847  0.0501
69023W        W11961   3.489   9.679   7.351 -0.2386 -0.1250  0.2293
69024W        W11962   6.656   7.681   7.300  0.2490 -0.1630  0.0798
69025W        W11963   3.551  10.923   5.575 -0.0633  0.1702  0.1039
69026W        W11964   7.598   9.832   3.402 -0.0677  0.0390 -0.4354
69027W        W11965   4.567   7.381   4.075  0.0053 -0.1040 -0.1552
69028W        W11966   4.506   7.930   3.234 -0.0123 -0.1026  0.0953
69029W        W11967   6.143   7.798   6.419 -0.1458  0.0623  0.2406
69030W        W11968   5.499  10.552   2.821  0.1617  0.1945 -0.0640
69031W        W11969   6.202   8.157   4.211  0.0717 -0.1280 -0.1129
69032W        W11970   4.516  10.628   4.236 -0.1804  0.0245  0.0233
69033W        W11971   4.889  11.027   5.580  0.1176  0.0170 -0.1699
69034W        W11972   5.400   9.432   5.342  0.2229  0.1642  0.1626
69035W        W11973   2.174   6.617   4.606 -0.1035  0.0729  0.1893
69036W        W11974   7.776   7.914   5.362  0.0666  0.1139  0.1055
69037W        W11975   3.976   7.799   5.528  0.1055 -0.3379  0.2646
69038W        W11976   7.404   7.364   6.781  0.1564  0.3278 -0.0021
69039W        W11977   6.455   8.930   3.766  0.0190  0.2525 -0.1387
69040W        W11978   6.694   6.732   5.472 -0.0976 -0.1968  0.0396
69041W        W11979   5.150   8.478   7.269 -0.0618  0.1156 -0.2444
69042W        W11980   5.176   9.698   6.330  0.2174 -0.0409  0.0462
69043W        W11981   4.443   6.575   3.045  0.1102 -0.2004  0.2041
69044W        W11982   7.110   9.081   7.900 -0.0474 -0.1624 -0.3286
69045W        W11983   4.935   7.317   4.713  0.0060  0.1010  0.1449
69046W        W11984   6.107   8.775   6.431 -0.1087  0.1035 -0.0801
69047W        W11985   4.606   8.535   5.795 -0.1533  0.2318 -0.1977
69048W        W11986   5.785   7.835   4.247 -0.0922  0.0022  0.2119
69049W        W11987   4.963   9.113   5.247  0.0556  0.0920  0.0848
69050W        W11988   4.819   9.377   6.113  0.1463 -0.0112 -0.1382
69051W        W11989   7.817   9.532   5.404  0.0391 -0.2125  0.2432
69052W        W11990   3.726   7.385   4.625 -0.0601 -0.1167 -0.0027
69053W        W11991   7.078   9.552   4.227 -0.1594 -0.0750 -0.1992
69054W        W11992   6.834   7.664   5.942  0.0339  0.0990  0.0439
69055W        W11993   4.146  12.021   3.812 -0.1567  0.1633  0.2288
69056W        W11994   6.581   8.930   4.737 -0.0855 -0.4709  0.1396
69057W        W11995   6.671   9.470   3.838  0.1624  0.0398  0.0350
69058W        W11996   4.465   8.232   7.385  0.0673 -0.1954 -0.0002
69059W        W11997   6.253  10.493   6.102 -0.1441  0.1203 -0.2171
69060W        W11998   6.742   9.664   4.783  0.2533  0.0543 -0.3207
69061W        W11999   3.637   6.609   5.151  0.2355  0.0743 -0.0881
69062W        W12000   3.370   9.543   4.762  0.2548 -0.0371  0.1928
69063W        W12001   2.789  10.231   4.385  0.0592 -0.0429 -0.0288
69064W        W12002   6.359   7.652   5.977  0.1062 -0.1936  0.1163
69065W        W12003   6.309   9.477   4.962 -0.1315 -0.4111  0.0237
69066W        W12004   5.415   9.749   1.958 -0.3711  0.2451 -0.0231
69067W        W12005   5.682   6.903   6.337  0.2289 -0.1037 -0.1756
69068W        W12006   5.786  10.399   6.328 -0.1572 -0.0676 -0.0265
69069W        W12007   5.139  10.999   7.376  0.2392  0.0683 -0.0057
69070W        W12008   4.725   8.398   4.678 -0.0021  0.0655  0.0252
69071W        W12009   3.962   9.613   6.268 -0.0632  0.0718  0.1227
69072W        W12010   6.887   9.498   6.803 -0.0760  0.0887 -0.1825
69073W        W12011   6.302  11.197   4.360  0.0040  0.2797  0.1035
69074W        W12012   6.888  10.072   5.726  0.2654  0.0152  0.2410
69075W        W12013   6.679   6.414   4.954 -0.4346  0.0853  0.2194
69076W        W12014   7.285  10.886   4.758 -0.4040  0.1031 -0.2864
69077W        W12015   5.038   8.228   6.060 -0.4131 -0.0041 -0.0144
69078W        W12016   7.281   7.580   5.663  0.0428  0.0875  0.0698
69079W        W12017   7.167   5.328   4.439  0.0073  0.0825  0.1066
69080W        W12018   4.925   8.265   5.434 -0.2425  0.0235  0.0903
69081W        W12019   3.249   8.580   3.630  0.0491 -0.1300  0.0924
69082W        W12020   5.354  10.658   4.180 -0.1102  0.0382 -0.1810
69083W        W12021   3.498  10.030   5.082  0.0348  0.0796  0.0920
69084W        W12022   4.664   7.902   5.835  0.1524 -0.1983  0.2806
69085W        W12023   3.653   8.644   8.152  0.0405 -0.2588  0.3307
69086W        W12024   3.077   9.023   4.630  0.0506  0.0832 -0.0754
69087W        W12025   5.010   8.167   4.306  0.0095  0.1539 -0.0199
69088W        W12026   5.679  10.243   5.169  0.2164  0.1652 -0.0039
69089W        W12027   4.250   7.163   5.686 -0.1159 -0.2325 -0.1298
69090W        W12028   3.466   6.622   6.158  0.1181  0.4222  0.0399
69091W        W12029   4.477   9.674   4.646 -0.0947  0.4147  0.0629
69092W        W12030   5.859   9.127   4.419  0.0225 -0.0169 -0.2462
69093W        W12031   5.708   7.411   4.667 -0.0140  0.1559 -0.1759
69094W        W12032   6.881   9.954   7.247 -0.0609 -0.1168 -0.0592
69095W        W12033   2.818   9.558   2.607 -0.1699  0.1187 -0.0067
69096W        W12034   4.149   7.588   7.990  0.1582 -0.3427  0.2254
69097W        W12035   5.096   6.884   5.637 -0.0326 -0.2777 -0.0826
69098W        W12036   2.240   7.443   3.179 -0.1276  0.1312  0.0055
69099W        W12037   3.621   8.619   5.767  0.0864 -0.0716 -0.1643
69100W        W12038   5.992  11.323   3.974  0.3384 -0.2014  0.0196
69101W        W12039   4.842  11.963   4.109 -0.1140  0.1149 -0.6007
69102W        W12040   5.432   8.900   7.373 -0.2617  0.0622 -0.0663
69103W        W12041   5.432   9.568   5.935 -0.2200  0.1216  0.0124
69104W        W12042   4.086   6.784   7.192  0.2606 -0.1498  0.1217
69105W        W12043   6.031   8.521   6.000  0.2406  0.0476  0.0840
69106W        W12044   4.736   9.726   6.493 -0.0823 -0.1589 -0.0730
69107W        W12045   6.904   8.529   4.846  0.0212  0.0632 -0.0063
69108W        W12046   6.606   7.759   5.425 -0.1017  0.0013 -0.1798
69109W        W12047   4.892   9.095   3.707 -0.2098 -0.0763 -0.2111
69110W        W12048   4.315   7.032   8.274  0.1281  0.2387 -0.0009
69111W        W12049   4.491   9.564   7.335 -0.5370  0.1209 -0.1654
69112W        W12050   7.779   8.443   5.595  0.1677  0.1640 -0.4258
69113W        W12051   4.206   6.556   4.382 -0.3387  0.3668  0.4588
69114W        W12052   5.903   6.651   4.785 -0.0671 -0.2056 -0.1819
69115W        W12053   5.103  10.461   5.419  0.1506  0.2233  0.0931
69116W        W12054   3.587  10.476   5.387 -0.1133  0.1456 -0.1080
69117W        W12055   6.745   7.857   4.990 -0.2981  0.0443 -0.2099
69118W        W12056   5.300  10.547   6.825 -0.1020 -0.2086 -0.0452
69119W        W12057   4.420   9.304   4.311 -0.2626  0.3340 -0.1897
69120W        W12058   6.239   8.499   6.828 -0.1408 -0.0495  0.0400
69121W        W12059   5.030   6.552   3.405  0.1364  0.3471 -0.2566
69122W        W12060   6.094   8.551   4.598 -0.1667  0.5440 -0.1010
69123W        W12061   5.632  10.905   6.346 -0.0138 -0.0456  0.0499
69124W        W12062   6.539   9.512   6.423  0.0759 -0.0960 -0.1620
69125W        W12063   5.367  10.007   5.559 -0.4616  0.2029 -0.1293
69126W        W12064   6.955   8.342   6.343  0.0070 -0.1496  0.1785
69127W        W12065   4.685   5.019   4.973 -0.0629 -0.0273  0.0994
69128W        W12066   4.673   9.561   3.939  0.1423  0.2271 -0.0362
69129W        W12067   4.980   7.650   4.176 -0.1247 -0.1874  0.2389
69130W        W12068   7.050   7.826   6.807 -0.2654  0.3291 -0.1319
69131W        W12069   3.339   7.006   5.319  0.0742  0.0077  0.0665
69132W        W12070   4.905   6.531   5.199 -0.2169  0.2163 -0.2809
69133W        W12071   5.216  10.972   6.608  0.0214 -0.1864  0.2441
69134W        W12072   6.436   9.090   6.714  0.0286 -0.0114  0.0520
69135W        W12073   3.377   9.846   8.935 -0.0226  0.1642 -0.0757
69136W        W12074   7.434   8.448   9.559 -0.0382 -0.1910 -0.1799
69137W        W12075   5.438   6.701   5.922 -0.3607 -0.3551 -0.1060
69138W        W12076   8.209   8.023   7.356  0.1666  0.1647 -0.2718
69139W        W12077   2.914   7.389   9.261  0.0308 -0.1223 -0.0152
69140W        W12078   4.537  11.005   8.489 -0.1987  0.1298  0.2028
69141W        W12079   5.581   9.655   9.407 -0.1607 -0.0732 -0.1518
69142W        W12080   8.078  10.085   9.104 -0.2719 -0.0212  0.1120
69143W        W12081   6.428   8.065   7.521  0.2114 -0.0666  0.2938
69144W        W12082   5.946   7.011   8.356 -0.2156  0.2148 -0.0083
69145W        W12083   3.808   7.791   8.379  0.1059 -0.2549  0.2672
69146W        W12084   3.856   6.548  10.422 -0.0677 -0.0616  0.0723
69147W        W12085   8.659   5.783   8.920 -0.1409  0.1077  0.4356
69148W        W12086   3.786  10.093   7.519 -0.2938 -0.0027 -0.1948
69149W        W12087   5.277   9.048   8.335  0.0632 -0.1022  0.0645
69150W        W12088   5.533   7.609   7.849  0.2924  0.0749  0.3025
69151W        W12089   5.209  10.254   8.532  0.1473  0.1019 -0.0744
69152W        W12090   3.659   7.051   9.551  0.2173  0.3377 -0.0281
69153W        W12091   5.814   9.299   7.150 -0.1529 -0.0717  0.0023
69154W        W12092   3.635   7.654   7.387  0.3596 -0.4019  0.0870
69155W        W12093   1.802   7.053  10.681 -0.4006 -0.1602 -0.1657
69156W        W12094   4.984   8.490   8.977  0.1327 -0.0623  0.2196
69157W        W12095   5.100   7.657   8.415 -0.0114 -0.4682 -0.1505
69158W        W12096   7.959   7.577   9.549 -0.1821  0.0749 -0.3045
69159W        W12097   4.593  11.263   9.949  0.1917 -0.0944 -0.1544
69160W        W12098   7.285   9.482   8.977 -0.1625  0.0489  0.4602
69161W        W12099   4.049   9.943   8.275 -0.3589  0.0267 -0.1973
69162W        W12100   3.772  10.591  10.093  0.2005 -0.0109  0.0319
69163W        W12101   6.086   9.162   8.181 -0.4542  0.0148  0.2236
69164W        W12102   8.081  10.312   8.564  0.1599 -0.1635  0.0384
69165W        W12103   4.811   8.912   8.170 -0.0522 -0.1753  0.0765
69166W        W12104   6.653  11.423   9.297 -0.1059  0.1010 -0.1905
69167W        W12105   5.949   8.740   9.312 -0.1584  0.1846  0.0512
69168W        W12106   4.807  10.581   6.498 -0.2335 -0.1558 -0.0698
69169W        W12107   4.891  10.798   9.801  0.1557  0.1134 -0.1456
69170W        W12108   2.250   9.391   9.792 -0.0530 -0.2648 -0.3091
69171W        W12109   4.341  10.987   5.902 -0.1544  0.2372  0.2443
69172W        W12110   6.430   7.985   8.007 -0.3145  0.0651 -0.0664
69173W        W12111   4.394   7.935   6.575 -0.0470  0.5657  0.1533
69174W        W12112   6.188   6.850   6.980 -0.2465 -0.2675 -0.2035
69175W        W12113   4.881   7.622   9.801 -0.1413 -0.2821 -0.1955
69176W        W12114   4.608  10.763  10.221 -0.0399 -0.2004 -0.1659
69177W        W12115   5.562   7.006   8.856 -0.3579 -0.0033  0.0232
69178W        W12116   6.246   7.847   8.492  0.0370 -0.1385  0.2643
69179W        W12117   7.806   7.596   8.847  0.2106  0.1015 -0.0324
69180W        W12118   4.255   9.667   9.110 -0.2371 -0.2216 -0.2457
69181W        W12119   2.717   7.862   9.004  0.1569 -0.2227 -0.2157
69182W        W12120   6.641   8.651   6.558 -0.1065  0.1538 -0.1492
69183W        W12121   6.236  10.116   8.002 -0.5122 -0.1153  0.3823
69184W        W12122   7.486   9.868   6.414  0.0304 -0.1413  0.3860
69185W        W12123   3.047   7.888  10.401 -0.1679  0.1601 -0.3671
69186W        W12124   4.929   7.106   6.932 -0.0199 -0.0361 -0.0433
69187W        W12125   8.551   8.357   8.782  0.1413  0.0499 -0.0108
69188W        W12126   6.993   9.340   9.410 -0.3458 -0.0592 -0.0918
69189W        W12127   5.653  10.265   9.440 -0.0015 -0.1270 -0.1751
69190W        W12128   6.293   8.261   6.362 -0.0367 -0.1151  0.1912
69191W        W12129   6.649   7.465   7.932  0.2410 -0.1615  0.1750
69192W        W12130   5.281   6.957   9.262  0.0169  0.0681  0.0879
69193W        W12131   5.007   7.573   6.728 -0.2256 -0.0827 -0.1522
69194W        W12132   5.041  10.314   8.986 -0.2183  0.1137  0.1533
69195W        W12133   7.650  10.453   9.636  0.1729  0.2302  0.1966
69196W        W12134   5.889   7.907   8.022 -0.3319 -0.2271  0.1892
69197W        W12135   2.951  10.126   8.870 -0.3014 -0.1001 -0.2655
69198W        W12136   2.844  11.618   5.989  0.1189  0.2706 -0.4378
69199W        W12137   4.116   9.489   8.636 -0.0046 -0.1349  0.0653
69200W        W12138   4.918   8.896   7.053 -0.0835 -0.0099  0.2357
69201W        W12139   1.357   7.024  10.090  0.1421 -0.0099 -0.0196
69202W        W12140   6.395   7.442   9.170 -0.3444  0.0698 -0.3662
69203W        W12141   7.464   8.252   6.992  0.0357  0.2052  0.2173
69204W        W12142   6.191   6.976   8.848  0.4567  0.0114 -0.1830
69205W        W12143   4.030  10.413   9.499 -0.0680  0.0022 -0.0024
69206W        W12144   5.950   9.628   7.930  0.0784  0.2306 -0.5523
69207W        W12145   6.701   9.020   8.200  0.1863 -0.0003  0.1765
69208W        W12146   5.731  11.351   7.522 -0.0072 -0.1273 -0.1038
69209W        W12147   4.413   6.637   9.696  0.0708 -0.1483  0.0015
69210W        W12148   3.974   8.125   7.297  0.2959  0.0883  0.1825
69211W        W12149   2.411   8.034  10.255 -0.4605  0.2097  0.0648
69212W        W12150   4.391   7.820   7.055  0.1653 -0.1796 -0.0336
69213W        W12151   7.320   7.656   8.592  0.1277 -0.0686  0.0781
69214W        W12152   6.325   8.300   9.433 -0.2172  0.0871  0.1222
69215W        W12153   5.190  10.025   9.381  0.0681 -0.0597 -0.0299
69216W        W12154   5.709   9.187   8.525  0.0475  0.0797 -0.2251
69217W        W12155   5.865  10.887   8.772  0.1675 -0.0533 -0.1718
69218W        W12156   6.044   9.993   7.546 -0.1643  0.3495  0.1789
69219W        W12157   0.665   9.237  10.319  0.1629  0.1715  0.3641
69220W        W12158   3.507   9.081   8.215  0.1546 -0.0343 -0.0706
69221W        W12159   4.755   9.535   7.758  0.4400  0.1579 -0.5032
69222W        W12160   7.078   8.329   9.126  0.2369  0.0327  0.0397
69223W        W12161   4.723   7.389   7.268  0.3256  0.1166 -0.0629
69224W        W12162   8.972   6.574   9.827 -0.2746 -0.0410 -0.1626
69225W        W12163   5.721  11.320   9.294  0.2702 -0.0403  0.1253
69226W        W12164   5.263   8.682   9.710  0.0378  0.1074  0.1192
69227W        W12165   5.266   8.056   8.008 -0.1286 -0.1758 -0.1410
69228W        W12166   3.093   8.249   8.990 -0.0087 -0.1468 -0.0227
69229W        W12167   5.369   9.874   8.927  0.1430  0.0731  0.0745
69230W        W12168   4.721  10.549   5.120 -0.1128 -0.1701 -0.0209
69231W        W12169   3.643   8.316   8.634 -0.0666  0.1973 -0.1646
69232W        W12170   6.219   8.724   8.383 -0.2111  0.3264 -0.0431
69233W        W12171   6.611   8.302   8.444  0.3505 -0.1663 -0.0587
69234W        W12172   3.500   9.212  10.154  0.2027  0.1332 -0.2746
69235W        W12173   6.661   6.344   7.675  0.1848  0.1043  0.0481
69236W        W12174   6.546   7.049   8.263  0.1577  0.1353  0.0281
69237W        W12175   6.040   8.287   8.251 -0.0549  0.1812  0.1346
69238W        W12176   6.223   7.288   6.560 -0.0211 -0.1473 -0.1694
69239W        W12177   5.574   6.149   8.123 -0.0970  0.1009  0.5257
69240W        W12178   6.950   9.565   8.343  0.0163 -0.1507  0.0934
69241W        W12179   4.441  11.112   9.028  0.2569  0.2231  0.0176
69242W        W12180   4.706   8.302   6.925 -0.0829 -0.0306 -0.0044
69243W        W12181   6.958   9.930   8.683 -0.1359 -0.0176  0.1669
69244W        W12182   4.522   7.972   9.458 -0.0154 -0.1262  0.1203
69245W        W12183   5.952   9.609   8.488  0.2936  0.0536  0.2692
69246W        W12184   3.266  10.303   9.203  0.3432 -0.0858  0.0125
69247W        W12185   5.665   7.487   5.224 -0.1453  0.0401 -0.2797
69248W        W12186   5.195   7.963   8.833  0.0289  0.3124  0.0676
69249W        W12187   4.122  10.205   7.842  0.0945 -0.1884 -0.1332
69250W        W12188   6.737   8.058   9.436  0.2086 -0.0743 -0.0338
69251W        W12189   5.787   7.197   9.793 -0.0134  0.2623 -0.3127
69252W        W12190   7.763   9.696   8.897  0.0897  0.0004 -0.0026
69253W        W12191   7.582   9.909   9.356 -0.0615  0.2302 -0.1086
69254W        W12192   4.199   8.641   7.633 -0.0239 -0.2282 -0.0534
69255W        W12193   4.130   7.153   9.771 -0.1452 -0.1011 -0.2266
69256W        W12194   3.688   9.054   9.462  0.0971 -0.2098 -0.0218
69257W        W12195   5.914   8.032   7.549 -0.1290 -0.0296 -0.1628
69258W        W12196   4.934   7.918   7.149 -0.0232 -0.0434  0.1661
69259W        W12197   4.133  10.911   8.166 -0.3933  0.1199  0.2738
69260W        W12198   5.044   7.649   7.864  0.0976  0.2125  0.0960
69261W        W12199   5.452   8.645   9.258  0.0544 -0.0353 -0.0684
69262W        W12200   4.559   9.854  10.135  0.0548  0.2305  0.0301
69263W        W12201   5.412  10.005   6.678  0.0980  0.1062  0.0898
69264W        W12202   6.750   9.418   8.946  0.0002  0.0021 -0.0862
69265W        W12203   4.048  10.963   7.271  0.3393  0.0917 -0.2716
69266W        W12204   6.231   7.095   7.875  0.1494 -0.1308  0.1852
69267W        W12205   4.287  10.695   7.705 -0.2269 -0.1533 -0.1465
69268W        W12206   5.906   8.775   7.171  0.1419 -0.1666  0.0309
69269W        W12207   3.632   8.651   9.100 -0.1421 -0.3728 -0.3635
69270W        W12208   5.360   6.881   8.299 -0.2705  0.2013  0.1817
69271W        W12209   5.753  10.291   6.869 -0.0778  0.1780  0.3287
69272W        W12210   4.295   8.318   9.732 -0.3289 -0.0658  0.2170
69273W        W12211   5.886   6.059   8.728 -0.2094  0.0695  0.3272
69274W        W12212   2.879  10.548  10.554  0.0320  0.0541 -0.0597
69275W        W12213   4.249   8.694   8.163  0.1467 -0.0167  0.1923
69276W        W12214   3.901   9.021   8.495 -0.1577 -0.1774  0.0007
69277W        W12215   7.565   7.998   9.789  0.0350  0.3364  0.0576
69278W        W12216   5.404   8.971   8.861 -0.1702 -0.0256  0.2295
69279W        W12217   4.141   9.183   7.432 -0.0144 -0.1249  0.2335
69280W        W12218   6.769  10.569   9.180 -0.0161 -0.0591  0.0418
69281W        W12219   3.604   8.849   7.635 -0.1727  0.0716 -0.0931
69282W        W12220   4.460  10.454   8.156  0.1062  0.2683  0.0626
69283W        W12221   3.828   7.233  10.179 -0.1107 -0.1004 -0.2253
69284W        W12222   4.783   8.029   8.469 -0.1273  0.0632  0.5245
69285W        W12223   5.701   8.714   8.310 -0.4504  0.1779 -0.0404
69286W        W12224   4.343   9.346  12.075  0.1929  0.0589  0.0445
69287W        W12225   6.702   8.967   9.394 -0.0696  0.3929  0.1143
69288W        W12226   7.105   8.154   9.946 -0.2264 -0.1795  0.0289
69289W        W12227   3.983   5.668   9.690 -0.2663 -0.0513 -0.0650
69290W        W12228   8.065  11.377   7.704  0.5952  0.0470 -0.0699
69291W        W12229   5.611   8.392   7.416  0.0291  0.0395 -0.2707
69292W        W12230   5.823   8.461   9.750  0.0440 -0.0258  0.0389
69293W        W12231   6.377   9.246   8.561 -0.2865  0.1840  0.1041
69294W        W12232   9.206   9.283   9.809  0.1602 -0.2157 -0.2003
69295W        W12233   4.974   9.158   9.761 -0.1518  0.2181 -0.0115
69296W        W12234   4.487   9.085   7.770 -0.1603 -0.1661  0.0874
69297W        W12235   2.242   8.498  10.012  0.0598  0.0219  0.0476
69298W        W12236   5.826   7.764   6.854  0.0063  0.0893 -0.1638
69299W        W12237   4.892  10.410   7.376  0.2560  0.2056  0.2097
69300W        W12238   4.915   8.992   8.661  0.1780  0.1588 -0.0928
69301W        W12239   5.858   9.039   7.554 -0.1155  0.1627  0.0459
69302W        W12240   4.341   8.169   8.784 -0.1803 -0.1351 -0.3939
69303W        W12241   7.043  10.524   8.624 -0.0231 -0.2903 -0.2062
69304W        W12242   6.503   6.561   9.040 -0.2870 -0.0457 -0.0999
69305W        W12243   4.051   8.631   8.729  0.3656 -0.0814  0.0422
69306W        W12244   5.791   7.864   8.837 -0.2173 -0.4104 -0.0284
69307W        W12245   7.008  11.498   8.698  0.0222 -0.1850 -0.0879
69308W        W12246   5.041   9.313   7.382 -0.0985 -0.3162 -0.0976
69309W        W12247   7.715   8.198   9.267  0.1596  0.1244 -0.1929
69310W        W12248   4.983  10.252   9.877 -0.0172 -0.1357  0.0467
69311W        W12249   8.190   8.992   8.983 -0.0369 -0.1553 -0.0271
69312W        W12250   5.616   8.325   8.703 -0.0127 -0.0027  0.0365
69313W        W12251   5.688   9.426   8.992 -0.0523 -0.0179  0.1784
69314W        W12252   7.610   8.953   9.733  0.2171  0.2125  0.1024
69315W        W12253   6.001   7.432   8.649 -0.0663  0.1022  0.1810
69316W        W12254   8.112  13.569   9.644 -0.2089 -0.0092 -0.2501
69317W        W12255   6.623   8.510   7.119  0.3110  0.1606  0.0028
69318W        W12256   6.678   6.918   8.731  0.0799 -0.0438 -0.0098
69319W        W12257   7.631   9.239   8.641 -0.2101 -0.0023 -0.1366
69320W        W12258   6.234   7.908   7.095 -0.3343 -0.1624  0.0292
69321W        W12259   3.335   7.197  10.083  0.1630 -0.0099  0.0849
69322W        W12260   4.922   7.033   7.579  0.1840 -0.2171 -0.1355
69323W        W12261   5.419   7.914   7.416  0.0518  0.1150  0.0279
69324W        W12262   5.674   8.338   7.938  0.1288  0.2170 -0.4777
69325W        W12263   7.064   9.037   8.937  0.0120 -0.2527 -0.1402
69326W        W12264   3.613   8.572   9.607 -0.2778 -0.0194 -0.0578
69327W        W12265   4.221   8.091   7.791  0.0420 -0.0096  0.0214
69328W        W12266   5.947   8.708   8.768  0.2265  0.0321  0.2969
69329W        W12267   5.037   7.787  10.317 -0.0315 -0.0629  0.0354
69330W        W12268   4.970   9.080   9.164 -0.1055  0.1502  0.1610
69331W        W12269   5.212   8.606   8.519  0.0278  0.0016 -0.0578
69332W        W12270   5.841   5.763   8.334  0.1306  0.0441  0.0589
69333W        W12271   6.914   8.525   9.639 -0.2037 -0.0736 -0.3108
69334W        W12272   4.753   9.908   9.075 -0.0320  0.1631 -0.0278
69335W        W12273   4.509   6.888  10.089  0.0785 -0.0384  0.0935
69336W        W12274   6.552   7.449   8.679 -0.0688 -0.0962  0.2084
69337W        W12275   2.826  10.656   9.083  0.0582 -0.4763  0.0209
69338W        W12276   4.099   8.739   9.385  0.0839  0.4005 -0.0417
69339W        W12277   8.220  10.671   9.417  0.0634  0.1749  0.1981
69340W        W12278   4.130   9.295   9.439  0.3979 -0.0924 -0.1226
69341W        W12279   7.485  10.251   8.954  0.4199  0.1449 -0.0667
69342W        W12280   3.293   8.141   9.532  0.2670 -0.3789 -0.1944
69343W        W12281   5.534   9.441   8.121  0.1665 -0.0207  0.0101
69344W        W12282   3.979   9.110   7.962  0.1411 -0.0672 -0.3347
69345W        W12283   3.608  10.342   6.345  0.0796 -0.1723  0.3013
69346W        W12284   5.077   9.865   8.055 -0.1196 -0.1038  0.1854
69347W        W12285   6.531   9.797   7.600  0.0603  0.0218 -0.1715
69348W        W12286   4.971  10.776   9.155  0.0431 -0.1836  0.0021
69349W        W12287   4.741   6.825   6.524  0.0699  0.0958 -0.1341
69350W        W12288   5.131   9.524   9.202 -0.0535 -0.0595  0.2980
69351W        W12289   3.724   9.998   6.964 -0.1179 -0.0412 -0.0344
69352W        W12290   5.405   9.653   7.175  0.1431  0.0702  0.1406
69353W        W12291   3.867  10.494   7.319 -0.1191  0.1062 -0.2936
69354W        W12292   5.262   7.411   7.489 -0.2098  0.0122  0.0921
69355W        W12293   6.646   8.330   8.982  0.3449  0.0170  0.1306
69356W        W12294   7.593   8.771   7.715 -0.0472 -0.1912 -0.0752
69357W        W12295   7.772   6.138   9.919 -0.0002  0.0357 -0.1119
69358W        W12296   4.584   7.776   7.517  0.0479  0.2361  0.0431
69359W        W12297   6.022  10.467   7.299 -0.0694  0.4701  0.0033
69360W        W12298   4.551   8.962   9.543 -0.0559 -0.0021  0.1589
69361W        W12299   3.799   8.111   9.710 -0.0998 -0.2274  0.0689
69362W        W12300   4.839   5.849   9.952 -0.0426 -0.2961 -0.0482
69363W        W12301   5.904   8.256   7.065  0.1116  0.0436  0.0525
69364W        W12302   4.800   8.500  10.005 -0.2861 -0.2662  0.0838
69365W        W12303   5.503   9.103   9.470 -0.2690 -0.0794 -0.0493
69366W        W12304   3.240  10.638   8.613 -0.3641 -0.0409 -0.1139
69367W        W12305   4.168  10.893   9.927  0.0920 -0.2049  0.1918
69368W        W12306   2.813   7.750   7.496  0.1944 -0.2296 -0.0281
69369W        W12307   7.388   7.772   9.046  0.2109 -0.0523  0.0540
69370W        W12308   3.433   8.874   8.653 -0.0393  0.3801 -0.2667
69371W        W12309   4.703   8.444   8.113 -0.0615 -0.0275 -0.2016
69372W        W12310   7.587   8.909   8.295  0.9269  0.1145 -0.2084
69373W        W12311   4.146   7.407  10.522 -0.1369  0.0449  0.1326
69374W        W12312   5.989   7.670   9.536  0.0983  0.1588  0.4720
69375W        W12313   8.050   9.138   8.432 -0.3251  0.2320  0.0360
69376W        W12314   6.123   8.276   8.824 -0.0667 -0.0307 -0.3551
69377W        W12315   5.932   9.942   9.135 -0.0086 -0.0894  0.2737
69378W        W12316   4.878   6.310   6.502 -0.0528 -0.2791 -0.2905
69379W        W12317   3.274   7.676   8.078 -0.4081 -0.6170  0.0854
69380W        W12318   4.007   9.282   9.928  0.1327  0.1972  0.1621
69381W        W12319   4.304  10.184   9.134  0.0539 -0.2705  0.1085
69382W        W12320   6.500   8.560   7.974 -0.2738  0.0515 -0.1757
69383W        W12321   7.652  10.103   8.486 -0.2740 -0.1155  0.1878
69384W        W12322   4.394  11.239   6.989 -0.1626  0.3575  0.1673
69385W        W12323   7.157   9.139   8.391  0.0758 -0.0494 -0.1522
69386W        W12324   6.932  10.999   9.479  0.0109  0.3358 -0.0921
69387W        W12325   1.766   8.511   9.713 -0.1999 -0.0730 -0.1597
69388W        W12326   5.495  10.627   8.976  0.0925 -0.3448 -0.0222
69389W        W12327   8.171  10.023   9.623 -0.3111  0.0021 -0.1816
69390W        W12328   4.582   8.619   8.559  0.1635  0.0356  0.1550
69391W        W12329   1.333   7.836  10.575 -0.1193  0.2521  0.0978
69392W        W12330   4.523  10.166   6.538  0.3851 -0.2487  0.0767
69393W        W12331   6.192   7.556   7.616 -0.0059 -0.2061  0.0321
69394W        W12332   5.432  11.153   6.989 -0.2873  0.1024 -0.0282
69395W        W12333   5.830  10.797   9.266 -0.0041 -0.1194 -0.2030
69396W        W12334   3.690   8.356   7.733  0.0979  0.0437 -0.2343
69397W        W12335   5.558   9.934   7.869 -0.2012 -0.2500 -0.1345
69398W        W12336   4.316   9.740   7.742 -0.1695  0.2107 -0.0938
69399W        W12337   6.413   9.475  12.190 -0.0170  0.2158 -0.3982
69400W        W12338   5.299   8.192   9.293 -0.1624 -0.1427 -0.1157
69401W        W12339   7.158  11.401   9.217 -0.2732 -0.2075  0.0971
69402W        W12340   4.420   9.079   9.073  0.0847  0.2442  0.1378
69403W        W12341   7.023   6.268   8.139  0.0188 -0.0277 -0.3058
69404W        W12342   6.144   6.772   6.456  0.2711 -0.2182 -0.0025
69405W        W12343   3.739   7.529   9.746  0.0612  0.0334  0.1620
69406W        W12344   2.580   8.199   9.760  0.0203  0.2462  0.1321
69407W        W12345   3.872   9.550   7.689 -0.0469  0.1624  0.0619
69408W        W12346   5.217   8.579   7.762  0.0432  0.0734 -0.1212
69409W        W12347   5.317  10.624   9.574  0.0514 -0.1701 -0.3220
69410W        W12348   2.934   8.078   8.068 -0.0744 -0.0636 -0.0080
69411W        W12349   7.345   9.715   7.419  0.1167  0.1169 -0.1583
69412W        W12350   2.871   6.920  10.130  0.1491  0.4871  0.0514
69413W        W12351   2.639   7.726   9.949  0.0976 -0.0693  0.1901
69414W        W12352   4.988  10.336   8.092  0.1235  0.0474  0.1976
69415W        W12353   5.680  10.238   8.757  0.3632  0.2959  0.0654
69416W        W12354   5.013   7.753   9.284 -0.0376  0.4020  0.0695
69417W        W12355   4.836  10.800   6.958 -0.0849  0.0973 -0.0443
69418W        W12356   3.220   8.504   7.839  0.2330 -0.1380 -0.3087
69419W        W12357   5.543   7.927   8.416 -0.0181  0.0970  0.0365
69420W        W12358   7.006  10.104   7.729  0.2589 -0.0542  0.0765
69421W        W12359   8.081  11.554   6.629 -0.4022 -0.3335 -0.0685
69422W        W12360   3.537   7.669  10.318 -0.2073 -0.0170  0.2350
69423W        W12361   6.772   8.747   8.649  0.0906 -0.0909 -0.1136
69424W        W12362   7.630   9.378   8.106  0.0256  0.4626  0.0085
69425W        W12363   7.296   8.944   9.369  0.1079  0.1030 -0.2434
69426W        W12364   6.386   8.965   9.024 -0.2144 -0.1620  0.0606
69427W        W12365   7.934  12.856   8.781  0.0667  0.1113  0.0858
69428W        W12366   5.444   7.506   8.785  0.1305 -0.2094  0.2864
69429W        W12367   5.517   6.944   7.577  0.1868  0.0075 -0.0259
69430W        W12368   5.880  10.849   8.225  0.0581  0.1271 -0.0816
69431W        W12369   1.508   9.669  10.615  0.0458  0.0092  0.3376
69432W        W12370   5.349   8.302   6.449 -0.2876 -0.1865 -0.1502
69433W        W12371   7.012   9.816   9.240 -0.2692  0.1552 -0.2400
69434W        W12372   5.995   8.713   7.906 -0.2973  0.0975  0.0358
69435W        W12373   6.961   9.577   7.742 -0.2160  0.0650 -0.1168
69436W        W12374   3.907  10.978   9.497  0.3148 -0.1746  0.0956
69437W        W12375   5.851  10.616   9.792  0.2329  0.0699 -0.3448
69438W        W12376   5.677   9.348   9.947 -0.0060 -0.2364  0.0201
69439W        W12377   2.180   7.139   9.581  0.1058  0.2716 -0.0931
69440W        W12378   6.401   9.593   9.403  0.1265 -0.1821 -0.0534
69441W        W12379   4.202  10.302   8.657 -0.0871 -0.1189 -0.3304
69442W        W12380   6.882   7.555   9.416  0.2273 -0.2630  0.3345
69443W        W12381   4.065   7.820   9.384 -0.0910 -0.3381 -0.4152
69444W        W12382   7.332   7.035   7.982  0.2554 -0.1666  0.1027
69445W        W12383   4.619  11.663   9.051  0.3195  0.2649  0.2136
69446W        W12384   4.493   8.496   9.149 -0.1027 -0.2026  0.0907
69447W        W12385   4.981  14.020   2.644  0.0148  0.0480 -0.2542
69448W        W12386   4.459  11.070   1.104  0.0476 -0.5118 -0.0592
69449W        W12387   5.194  11.770   0.554  0.0071  0.0699  0.1848
69450W        W12388   6.799  11.055   0.003 -0.0772  0.1833 -0.0875
69451W        W12389   4.538  12.081   1.400 -0.0470  0.0441 -0.0268
69452W        W12390   5.228  14.508   1.307 -0.0502  0.1477  0.1341
69453W        W12391   4.178  11.804   2.685  0.3127 -0.0209  0.2699
69454W        W12392   6.289  12.618   3.194  0.3158 -0.0180 -0.0328
69455W        W12393   6.212  14.289   2.381 -0.0560  0.0200  0.2371
69456W        W12394   5.718  12.876  30.850 -0.1185 -0.2152 -0.2179
69457W        W12395   6.198  12.966   2.511 -0.1109  0.0598  0.0993
69458W        W12396   4.440  13.640   1.431 -0.3510  0.2103  0.1101
69459W        W12397   5.335   9.050   1.370 -0.2783  0.0920 -0.0150
69460W        W12398   4.937   9.427   1.095 -0.0852 -0.1517  0.2130
69461W        W12399   5.666  12.649   1.906  0.0634 -0.2222 -0.0162
69462W        W12400   3.664  13.201   2.545  0.0936  0.0181 -0.0201
69463W        W12401   4.648  10.776   1.493 -0.0031 -0.1798 -0.3136
69464W        W12402   5.813  10.841   1.194 -0.1673  0.3199  0.2422
69465W        W12403   6.153  12.548   2.217  0.0136 -0.0995  0.2033
69466W        W12404   4.943  12.085   2.823 -0.2104  0.1419  0.1836
69467W        W12405   5.093  11.485   3.660 -0.0255 -0.0504 -0.1994
69468W        W12406   5.277  12.294   2.085 -0.0737  0.1064 -0.2587
69469W        W12407   3.091  12.461  31.588 -0.1509 -0.3548 -0.0350
69470W        W12408   3.587  12.491   1.477 -0.1225 -0.0875  0.2192
69471W        W12409   4.352  11.411   2.163 -0.0102  0.0315  0.1134
69472W        W12410   6.859  11.995   2.004 -0.2540 -0.3880 -0.2025
69473W        W12411   5.864  12.440   0.656 -0.0196  0.2003  0.2612
69474W        W12412   6.627  13.834   1.138 -0.1668  0.3429  0.0458
69475W        W12413   5.820  13.952   1.666 -0.0366 -0.1211  0.0591
69476W        W12414   6.237  12.492   2.691  0.1826  0.1641  0.0439
69477W        W12415   3.084  12.355   2.288 -0.0873 -0.0781 -0.0673
69478W        W12416   3.337  14.126   0.740  0.2553 -0.0012 -0.0859
69479W        W12417   5.423  14.621   3.148 -0.1557  0.0259 -0.0692
69480W        W12418   8.322  13.739   2.094  0.0460 -0.1924  0.2408
69481W        W12419   5.840  14.381   3.750 -0.0359 -0.3957  0.0869
69482W        W12420   4.375  14.609   2.885  0.1412  0.6582 -0.0500
69483W        W12421   4.889  13.471  31.949 -0.2256  0.2324 -0.0629
69484W        W12422   5.420  13.404   4.082 -0.1533 -0.0007 -0.5374
69485W        W12423   4.924  15.193   2.156  0.0253  0.2187  0.0230
69486W        W12424   4.964  13.637   3.005 -0.1206  0.2426 -0.2003
69487W        W12425   5.933  11.581   0.962  0.0453 -0.2555  0.2565
69488W        W12426   5.744  13.580   3.001  0.2016  0.1496  0.0402
69489W        W12427   4.697  12.683   2.139 -0.0342 -0.0045 -0.3704
69490W        W12428   4.813  13.118   2.833 -0.2429 -0.0859  0.1572
69491W        W12429   4.214  14.480   1.814 -0.3942  0.0065 -0.0327
69492W        W12430   6.111  10.163   4.336  0.0734 -0.0238 -0.1383
69493W        W12431   4.820  13.880   0.798  0.0753  0.1516  0.0269
69494W        W12432   6.275  11.970  31.003 -0.4757 -0.1143  0.2057
69495W        W12433   5.081  11.500   0.017 -0.1179 -0.1238  0.0117
69496W        W12434   6.062  11.327   1.400 -0.3042  0.1259 -0.2560
69497W        W12435   6.318  11.227   0.985 -0.1218  0.1216  0.3456
69498W        W12436   5.966  14.552   0.970  0.1663  0.0186  0.1652
69499W        W12437   5.796  12.154   2.216  0.0409  0.0043  0.3316
69500W        W12438   7.036  13.874   2.059  0.2654  0.1663  0.2288
69501W        W12439   4.877  10.751   0.451  0.3480  0.1739 -0.2649
69502W        W12440   6.538  12.784   3.572 -0.0251 -0.0495 -0.0383
69503W        W12441   3.417  14.680   2.932  0.1786 -0.0708 -0.0363
69504W        W12442   4.812  11.587   1.775 -0.2198  0.0912  0.0727
69505W        W12443   5.600  14.108   0.037 -0.0151  0.0219 -0.1225
69506W        W12444   8.130  14.079   1.780  0.1755 -0.2291 -0.1795
69507W        W12445   5.677  14.634   2.272 -0.3100  0.3199 -0.0119
69508W        W12446   4.397  12.349   2.240  0.1257  0.1116  0.3968
69509W        W12447   3.866  11.535   2.206  0.1061 -0.4259  0.0317
69510W        W12448   4.652  11.318   2.958 -0.0553  0.3529  0.2705
69511W        W12449   3.946  10.565  31.546  0.0016 -0.2686 -0.1110
69512W        W12450   7.696  13.700   0.985 -0.0285 -0.0101  0.2175
69513W        W12451   3.854  12.389   3.448  0.2646 -0.2738 -0.0242
69514W        W12452   8.498  12.583   1.655  0.1210  0.4103 -0.3731
69515W        W12453   5.625  12.509   2.447  0.1489  0.2622  0.1698
69516W        W12454   6.476  14.357   1.557  0.0215 -0.1529 -0.0483
69517W        W12455   6.614  12.083   0.023  0.0781 -0.2525  0.1037
69518W        W12456   6.755  10.666   2.568  0.0634 -0.1951  0.3889
69519W        W12457   7.482  11.148   3.786 -0.2860 -0.0318  0.1172
69520W        W12458   4.264  13.291   0.630 -0.1473  0.1393  0.3019
69521W        W12459   4.842  12.468   0.803  0.3116  0.0407 -0.1897
69522W        W12460   5.609  15.480   3.542 -0.2747 -0.1819 -0.0645
69523W        W12461   7.639  12.181  31.946  0.0732  0.1662  0.1047
69524W        W12462   3.245  14.945   0.951  0.0319  0.0078  0.4163
69525W        W12463   5.158  11.570   4.932 -0.2057  0.0703 -0.0757
69526W        W12464   4.790  13.749   2.233 -0.0472  0.0462  0.0691
69527W        W12465   4.612  14.998   1.127 -0.0680 -0.2628 -0.1191
69528W        W12466   2.653  13.282   3.202  0.2713  0.2349  0.1295
69529W        W12467   3.315  12.302   1.089  0.1015 -0.1514 -0.4320
69530W        W12468   3.433  10.195   2.312 -0.1509 -0.0336  0.0796
69531W        W12469   4.927  13.473   1.420  0.0118  0.2393 -0.0118
69532W        W12470   5.454  11.153  31.902  0.0938 -0.0079 -0.2570
69533W        W12471   4.523  10.316   2.471 -0.1926  0.0730 -0.1107
69534W        W12472   6.909  11.162   1.042  0.1865 -0.0639 -0.2553
69535W        W12473   2.078  11.873   0.344  0.1633 -0.1602 -0.0824
69536W        W12474   6.815  14.039   0.686  0.3755 -0.0982  0.1506
69537W        W12475   6.193  10.818   0.233 -0.0415  0.1351  0.1645
69538W        W12476   6.347  12.335   0.374  0.2501 -0.1884  0.2188
69539W        W12477   4.312  13.019   2.118 -0.0766  0.0284  0.0428
69540W        W12478   4.917  11.420   0.924  0.2234 -0.1418 -0.1770
69541W        W12479   3.594  10.654   2.815 -0.3041  0.2677 -0.3523
69542W        W12480   3.430  10.374   1.857  0.1240  0.3472 -0.3948
69543W        W12481   6.711  12.809   2.490 -0.0232  0.0445  0.1947
69544W        W12482   4.254   9.680  31.480  0.0904 -0.0233  0.1783
69545W        W12483   5.574  10.450   1.477 -0.0022 -0.1107 -0.3308
69546W        W12484   5.105  11.237   0.446 -0.3198 -0.1609  0.1110
69547W        W12485   2.560  12.706   0.846  0.0044 -0.0818  0.3637
69548W        W12486   6.927  11.072   3.613  0.0440 -0.1304  0.1663
69549W        W12487   4.752  14.510   1.171  0.1801  0.1997 -0.0285
69550W        W12488   6.536  14.269   2.837 -0.0047 -0.1798  0.0714
69551W        W12489   8.054  12.696   2.112  0.0959  0.0500  0.2739
69552W        W12490   4.805  11.329   2.470 -0.3529 -0.0529 -0.1556
69553W        W12491   5.210  10.470   1.155 -0.1614 -0.3030 -0.2106
69554W        W12492   4.383  14.818   1.581 -0.0615 -0.0127  0.1753
69555W        W12493   4.916  12.336   1.701  0.2040  0.2066  0.1391
69556W        W12494   5.778  10.097   1.104  0.0256 -0.0167  0.3795
69557W        W12495   5.168  15.138   3.296  0.0985  0.0941 -0.4138
69558W        W12496   5.188  11.667   1.310 -0.1653 -0.1078 -0.3125
69559W        W12497   4.103  12.771   3.010 -0.0260 -0.0169  0.0292
69560W        W12498   7.420  12.019   3.812 -0.5174 -0.1730 -0.1645
69561W        W12499   7.988  13.232   2.089 -0.3696  0.2113  0.5221
69562W        W12500   6.774  12.825   3.064 -0.0439  0.0618 -0.2023
69563W        W12501   3.784  10.543   0.754  0.0938 -0.0681  0.1985
69564W        W12502   5.693  13.072   2.700 -0.1140 -0.3072 -0.2003
69565W        W12503   5.259  13.724   2.125  0.0373  0.1399 -0.0499
69566W        W12504   3.785  12.401   0.988  0.1172 -0.0057 -0.3528
69567W        W12505   5.805  12.107   2.787 -0.4141 -0.0999  0.0276
69568W        W12506   6.402  12.244   1.410  0.1212  0.3077  0.1968
69569W        W12507   3.951  12.829   2.384  0.0608 -0.1571 -0.2056
69570W        W12508   6.197  12.309   3.817 -0.0599  0.3816 -0.0797
69571W        W12509   5.276  11.420   1.742 -0.1679  0.0837  0.0184
69572W        W12510   4.108  13.356   1.739  0.1536  0.2156  0.1729
69573W        W12511   5.917  10.996   0.753  0.3047  0.4098  0.1994
69574W        W12512   6.063  10.451   1.368 -0.0775 -0.0297  0.3767
69575W        W12513   5.160  12.331   3.887  0.2474  0.0442 -0.2708
69576W        W12514   5.972  13.179   0.685 -0.0351  0.1635 -0.2247
69577W        W12515   6.491  10.244  31.898  0.0264  0.1167  0.1452
69578W        W12516   6.431  10.882  31.751  0.0440 -0.2999  0.0039
69579W        W12517   3.403  13.493   2.875 -0.3890  0.1750 -0.0065
69580W        W12518   4.414  12.610   1.553 -0.1263  0.0368  0.1828
69581W        W12519   4.545  11.823   3.121 -0.1745 -0.1886 -0.0214
69582W        W12520   5.263  11.948   0.079 -0.1650  0.2208 -0.2848
69583W        W12521   6.538  14.468   0.975 -0.1104 -0.0559 -0.1143
69584W        W12522   4.648  13.006   1.711 -0.0050 -0.0054 -0.1257
69585W        W12523   5.114  13.174   3.422 -0.1059  0.0815 -0.2385
69586W        W12524   6.576  13.513   1.760  0.2615 -0.0226  0.0086
69587W        W12525   4.272  11.188   2.601 -0.2290  0.1044 -0.1323
69588W        W12526   4.804  13.017   0.642  0.0023 -0.1521 -0.1539
69589W        W12527   7.058  11.226   1.515  0.1277 -0.2045 -0.4115
69590W        W12528   4.124  13.604   0.981  0.2287  0.1301 -0.2223
69591W        W12529   5.778  13.093   2.205 -0.1391 -0.0312  0.1685
69592W        W12530   5.896  10.949   1.665  0.0424  0.0158 -0.0728
69593W        W12531   4.633  10.789   3.232  0.4505  0.0774  0.0488
69594W        W12532   7.664  12.866   3.022  0.1406  0.0591  0.1174
69595W        W12533   5.575  12.802   0.438 -0.2405  0.3010 -0.1727
69596W        W12534   5.804  13.770   1.160  0.2953 -0.1603  0.0504
69597W        W12535   4.190  11.144  31.464  0.0635 -0.1607 -0.1058
69598W        W12536   5.809  11.881   3.750  0.4201 -0.3033 -0.0959
69599W        W12537   4.688  13.187   2.368  0.1322 -0.2391  0.2334
69600W        W12538   3.299  13.457   2.195  0.0992  0.2613 -0.1178
69601W        W12539   5.686  13.907   3.860 -0.1959  0.0625 -0.3656
69602W        W12540   6.291  12.664   1.725 -0.0554  0.0438 -0.3309
69603W        W12541   5.427  11.911   3.059  0.2055  0.1644  0.2241
69604W        W12542   4.317   9.580   0.338  0.0148  0.1632  0.1019
69605W        W12543   5.649  14.260   1.120  0.2247 -0.3569  0.1125
69606W        W12544   4.611  12.197  31.485 -0.0789  0.1584  0.1734
69607W        W12545   5.612  12.009   0.841 -0.0763 -0.2995  0.1783
69608W        W12546   5.097  13.510   2.535 -0.0111 -0.1993 -0.1558
69609W        W12547   4.519  13.282  31.587 -0.1410  0.1804 -0.2742
69610W        W12548   6.998  13.420   3.546  0.0843  0.2709  0.0044
69611W        W12549   5.060  12.805   0.268  0.3411 -0.4324  0.0715
69612W        W12550   6.058  11.395   2.399 -0.0696 -0.0205 -0.1722
69613W        W12551   3.640  14.114   1.643  0.0751  0.0530  0.0095
69614W        W12552   5.788  10.510   0.590  0.0785 -0.0446  0.2469
69615W        W12553   3.965  13.080   0.283 -0.1635 -0.2239  0.0619
69616W        W12554   7.361  11.025   0.881 -0.2340  0.2762 -0.3007
69617W        W12555   7.839  12.428  31.451  0.1821 -0.0921 -0.1957
69618W        W12556   4.195  10.806   1.783 -0.0572 -0.1217 -0.1800
69619W        W12557   5.313  10.923   1.423 -0.0476 -0.1057 -0.0345
69620W        W12558   3.015  14.994   2.296 -0.0208  0.0032 -0.1627
69621W        W12559   6.193  13.559   1.446  0.1350  0.1792 -0.0988
69622W        W12560   7.003  10.744   0.653  0.1621 -0.1201 -0.1234
69623W        W12561   5.194  12.847   3.070 -0.5071  0.1152 -0.1119
69624W        W12562   6.745  12.017   4.644  0.0058  0.0903  0.1235
69625W        W12563   3.749   9.748   0.991  0.3842 -0.3019 -0.0218
69626W        W12564   7.040  12.426   3.349 -0.1713  0.1418  0.1990
69627W        W12565   6.023  11.749   2.078 -0.5390  0.0418 -0.0178
69628W        W12566   3.524  13.624   1.787 -0.0288 -0.3834 -0.1562
69629W        W12567   4.668  14.758   1.973 -0.0845  0.0884 -0.0807
69630W        W12568   5.849  10.456   1.894 -0.2684  0.0174 -0.1191
69631W        W12569   4.422  14.012   0.980  0.0564 -0.2083  0.1358
69632W        W12570   5.367  12.373   2.883 -0.2008  0.2321  0.1215
69633W        W12571   5.725  13.601   1.948 -0.0087 -0.0625 -0.1990
69634W        W12572   5.633  11.158   2.659 -0.1145  0.1906 -0.2674
69635W        W12573   4.842   9.656   0.513 -0.0177 -0.0270 -0.1652
69636W        W12574   6.217  13.349   2.127  0.1358  0.0996 -0.2322
69637W        W12575   5.807  14.450   2.799 -0.0335  0.2991  0.0151
69638W        W12576   5.078  12.744   2.543  0.3939 -0.1361 -0.2881
69639W        W12577   2.814  12.538   3.916  0.3513 -0.2415  0.0165
69640W        W12578   5.309  11.249   2.246  0.0097 -0.0270 -0.0873
69641W        W12579   6.458  13.080   0.778 -0.0246  0.0732  0.2628
69642W        W12580   6.374  12.070   4.981 -0.1543  0.0935 -0.0262
69643W        W12581   4.597  11.169   0.600 -0.1349  0.0804 -0.3135
69644W        W12582   3.850  12.299   2.940 -0.2211  0.0929 -0.1792
69645W        W12583   5.131  13.351   0.371  0.0514 -0.1091  0.1605
69646W        W12584   6.216  11.968   2.499  0.0609 -0.0771  0.2711
69647W        W12585   4.272  14.479   1.024  0.0915 -0.0420  0.1851
69648W        W12586   5.370  13.251  31.904 -0.1929  0.0996 -0.0736
69649W        W12587   3.766  13.653   2.276 -0.3493 -0.2161  0.1431
69650W        W12588   7.090  10.716   1.363  0.0024 -0.3234  0.2157
69651W        W12589   6.677  12.681   0.684  0.1123 -0.2488 -0.0921
69652W        W12590   5.120  11.127   2.763  0.0873 -0.1771  0.0487
69653W        W12591   7.174  11.477   3.352 -0.1966 -0.2366 -0.2165
69654W        W12592   6.309  12.587  31.755 -0.3577 -0.2223  0.2067
69655W        W12593   5.996  10.863   3.469  0.3045 -0.1725 -0.1977
69656W        W12594   4.184  10.673   1.305 -0.0442  0.0693  0.1070
69657W        W12595   6.828  13.358  31.909 -0.1098  0.2123  0.0764
69658W        W12596   3.879  10.989   2.984 -0.2928 -0.2358 -0.2544
69659W        W12597   4.739  13.492   3.414  0.2481  0.2287  0.4433
69660W        W12598   4.530  12.721   2.615 -0.1407 -0.1356 -0.0973
69661W        W12599   5.126  10.218   0.272  0.2537  0.1997  0.3029
69662W        W12600   3.424  10.150  31.124 -0.2502  0.0033 -0.0776
69663W        W12601   4.311  13.520   2.179  0.0631  0.3371  0.2333
69664W        W12602   7.911  12.551   1.655  0.0631  0.2548 -0.3185
69665W        W12603   4.628  12.703  31.552  0.3385  0.1273 -0.0377
69666W        W12604   5.916  12.220   1.716  0.0505 -0.0486 -0.0694
69667W        W12605   5.098  10.819   2.303  0.0569 -0.0527  0.0629
69668W        W12606   6.689  12.674   0.090 -0.1720 -0.0096  0.0812
69669W        W12607   4.689  13.524   0.465 -0.2260 -0.0300 -0.0794
69670W        W12608   4.736  12.819   1.232  0.1489  0.1384 -0.1088
69671W        W12609   6.040  10.052   2.783 -0.3240 -0.1980  0.1866
69672W        W12610   5.632  12.888   0.953 -0.0395  0.1456 -0.1831
69673W        W12611   7.204  10.384   2.770 -0.1151 -0.0404 -0.2596
69674W        W12612   6.708  11.406   3.138 -0.2498 -0.1093  0.2001
69675W        W12613   5.338  13.329   2.977 -0.0196 -0.0450 -0.0869
69676W        W12614   5.314  12.823   3.710  0.0641  0.0948  0.2737
69677W        W12615   3.226  12.853   3.608 -0.0549  0.0896  0.2354
69678W        W12616   5.351  14.354   2.613 -0.2045 -0.2342 -0.2399
69679W        W12617   6.819  10.682  30.866 -0.0590 -0.0765  0.0995
69680W        W12618   7.886  11.633   2.354  0.4131  0.1024  0.1360
69681W        W12619   6.401  12.320   0.889 -0.3188 -0.0273  0.3325
69682W        W12620   4.340  11.537   0.825 -0.2006  0.2944 -0.2037
69683W        W12621   3.002  11.477   2.213 -0.2041 -0.0943  0.0368
69684W        W12622   6.071  12.928   3.475  0.1006 -0.1022 -0.0559
69685W        W12623   4.953  11.122  31.543  0.3082 -0.2787 -0.2832
69686W        W12624   5.371  12.040   2.528 -0.2008 -0.1680  0.1790
69687W        W12625   6.062  14.094   0.159  0.0063  0.2230  0.0342
69688W        W12626   6.327  13.979   1.819 -0.0201 -0.1598  0.0922
69689W        W12627   7.226  10.934   2.566 -0.0842 -0.2364 -0.0893
69690W        W12628   3.050  11.051   1.969 -0.0141  0.2659  0.1634
69691W        W12629   3.413  14.088   3.338 -0.1410 -0.0872 -0.0886
69692W        W12630   4.468  10.508   0.180  0.0591  0.0793 -0.0434
69693W        W12631   4.614  12.013   0.869  0.0690  0.0620  0.2286
69694W        W12632   4.302  14.693   2.305  0.2355 -0.0750  0.0999
69695W        W12633   7.932  13.630   1.793  0.0721 -0.1102 -0.0039
69696W        W12634   5.068  12.383  31.812  0.2124 -0.1843  0.1278
69697W        W12635   7.030  11.624   2.379 -0.0353  0.0465  0.0089
69698W        W12636   1.641  14.039   0.173 -0.1306 -0.0368 -0.0014
69699W        W12637   6.610  10.763   1.059  0.0424 -0.1886  0.2700
69700W        W12638   5.796  15.743   2.185  0.2235  0.0307 -0.2486
69701W        W12639   3.113  13.167   2.625 -0.0667 -0.0935  0.0536
69702W        W12640   5.368  15.028   2.033 -0.1149  0.0607 -0.1221
69703W        W12641   6.653  10.760   3.357  0.1451 -0.0223  0.1573
69704W        W12642   6.362  11.809   1.603  0.2015  0.2597 -0.3951
69705W        W12643   5.214  12.993   1.768  0.0403  0.0119  0.1174
69706W        W12644   6.990  13.281   2.617  0.2524  0.1396  0.0973
69707W        W12645   5.811  12.642   2.979 -0.0017 -0.0643 -0.0283
69708W        W12646   4.850  13.836   1.759  0.0695  0.1219  0.2398
69709W        W12647   5.928  14.008   3.338  0.1606 -0.0516  0.0849
69710W        W12648   7.934  13.186   1.115 -0.1102  0.1759 -0.1751
69711W        W12649   3.052  13.975   1.704  0.4308 -0.1719 -0.3906
69712W        W12650   4.173  12.627   3.780 -0.3720  0.2187 -0.0609
69713W        W12651   4.793  12.514   2.980  0.0900 -0.1651  0.4613
69714W        W12652   5.645  13.256   0.308  0.0412  0.2928 -0.2952
69715W        W12653   3.902  10.944  31.936 -0.0710  0.1638  0.0516
69716W        W12654   4.233  13.006  31.227  0.0558  0.2911  0.2331
69717W        W12655   4.588  13.583   2.673 -0.2288  0.0945  0.0582
69718W        W12656   4.474  11.966   1.887  0.0850 -0.0584  0.0314
69719W        W12657   5.129  15.466   0.740 -0.0603 -0.2122  0.1334
69720W        W12658   7.183  12.737  31.269 -0.0205  0.0798  0.5069
69721W        W12659   4.585  12.952  31.977 -0.2491  0.0875 -0.2527
69722W        W12660   6.053  14.466   1.937 -0.1579  0.2509  0.3308
69723W        W12661   4.315  10.152  31.660  0.0469 -0.2404 -0.0919
69724W        W12662   3.415  13.807   1.295 -0.1486  0.0206 -0.1419
69725W        W12663   3.884  14.710  31.655  0.5036  0.3092  0.3890
69726W        W12664   6.317  13.672   0.787  0.2929  0.2415 -0.0784
69727W        W12665   3.829  14.253  30.874  0.1595 -0.1079  0.0617
69728W        W12666   7.272  11.409   2.857 -0.0034  0.2497 -0.1051
69729W        W12667   6.295  10.590   0.680  0.1490  0.2157 -0.0710
69730W        W12668   5.974  12.282   1.108 -0.3104 -0.2953 -0.1269
69731W        W12669   8.174  11.964  31.401 -0.1210 -0.0895 -0.0722
69732W        W12670   6.473  13.063   4.903 -0.0941 -0.3523  0.0911
69733W        W12671   5.398  10.839   1.908  0.2878  0.1678  0.0698
69734W        W12672   5.643  10.967   0.382 -0.1703 -0.0673 -0.0254
69735W        W12673   3.847  11.046   2.342 -0.0337  0.4334 -0.0416
69736W        W12674   7.721  10.875   2.797 -0.2430 -0.1479  0.1341
69737W        W12675   3.533  13.344   3.389 -0.0110  0.1248  0.1072
69738W        W12676   7.598  13.785   0.511  0.2524  0.2160 -0.0332
69739W        W12677   3.568  12.397   2.091  0.2934 -0.0798  0.1293
69740W        W12678   4.423  12.236   2.754  0.0997  0.0741  0.2016
69741W        W12679   8.283  10.726   3.564  0.0143  0.3379 -0.2167
69742W        W12680   5.924  12.492   0.061  0.1121 -0.2335  0.1580
69743W        W12681   7.220  10.622   3.241  0.0412 -0.1213  0.1628
69744W        W12682   5.066  14.161   2.134  0.0629 -0.1156  0.0296
69745W        W12683   5.570  13.409   0.884 -0.3278  0.0333 -0.2900
69746W        W12684   5.487  14.394   1.753  0.0847  0.3890  0.0496
69747W        W12685   3.862   9.978   1.955  0.2199  0.1117 -0.3379
69748W        W12686   8.443  11.603   1.403 -0.1623  0.0987  0.0331
69749W        W12687   4.979  11.639   3.176  0.1402  0.0947  0.3057
69750W        W12688   7.287  10.630   3.752  0.1799  0.1428  0.0169
69751W        W12689   5.597  11.294   1.388 -0.0975  0.1356  0.4275
69752W        W12690   7.108  10.370   0.987 -0.0551  0.3702 -0.0904
69753W        W12691   6.543  13.201   2.787 -0.0448  0.0043 -0.0410
69754W        W12692   4.844  12.237   2.359  0.1814 -0.1816  0.1163
69755W        W12693   4.845  12.247  30.772  0.1886 -0.1139  0.2140
69756W        W12694   6.755  11.537   1.798  0.0967  0.0216  0.1753
69757W        W12695   6.194  12.081  31.808 -0.0410 -0.5961 -0.3833
69758W        W12696   5.131  14.873   2.860 -0.2535 -0.1103 -0.1121
69759W        W12697   4.508  10.667   0.799 -0.1789  0.1572  0.0479
69760W        W12698   3.252   8.927   0.667  0.0710  0.0768  0.2688
69761W        W12699   3.947  12.832   1.724  0.1782  0.2284 -0.1732
69762W        W12700   5.425  11.419   3.130 -0.1029 -0.1562  0.0201
69763W        W12701   7.464  12.539   3.920 -0.0259 -0.3244  0.0400
69764W        W12702   3.635   9.875   1.502 -0.2167 -0.2905 -0.3526
69765W        W12703   7.634  13.248  30.795  0.0060 -0.1316 -0.0846
69766W        W12704   6.354  13.088   1.518  0.0748  0.2271 -0.1343
69767W        W12705   5.296  14.902   0.431 -0.1779  0.2475  0.4114
69768W        W12706   5.217  12.810   0.749 -0.1213  0.3282  0.1735
69769W        W12707   5.916  13.225   1.186 -0.3698  0.2546 -0.1422
69770W        W12708   3.844  10.536   2.351  0.0902  0.2416  0.2501
69771W        W12709   6.096  13.430   2.606 -0.1017  0.0256 -0.1473
69772W        W12710   7.589  14.041   1.399 -0.1083 -0.0899 -0.1021
69773W        W12711   5.521  11.845   1.949 -0.1393  0.1606 -0.3359
69774W        W12712   4.042  12.413   1.920  0.1598  0.0012 -0.1034
69775W        W12713   3.561  12.610   0.609  0.2667  0.3977  0.1717
69776W        W12714   5.851  13.050   1.718 -0.1962 -0.0525 -0.0541
69777W        W12715   6.806  12.339   2.866 -0.4144 -0.1655 -0.1969
69778W        W12716   7.753  13.667  31.764  0.0819 -0.0934 -0.1122
69779W        W12717   7.846  12.021   1.774  0.3208  0.1305  0.0742
69780W        W12718   5.533  14.739   3.640  0.0515 -0.1161  0.1256
69781W        W12719   4.073  13.014   3.430  0.1908 -0.0984 -0.0520
69782W        W12720   4.097  11.961   1.049  0.0430 -0.1407  0.1220
69783W        W12721   4.092  14.198   2.882 -0.0935 -0.0433  0.3428
69784W        W12722   5.330  13.970   1.572  0.1381  0.0947  0.2674
69785W        W12723   5.872  13.686   0.562 -0.1742  0.3145  0.0250
69786W        W12724   7.180  13.999   1.042 -0.0905  0.1173  0.2162
69787W        W12725   4.897  11.176   1.367 -0.0155 -0.1597  0.2851
69788W        W12726   6.847  12.410   1.070 -0.3767 -0.4893  0.0420
69789W        W12727   5.661  11.634   2.468  0.0186 -0.1449  0.0180
69790W        W12728   7.506  11.348   2.406  0.0513  0.0161  0.1087
69791W        W12729   5.440  11.373   0.918  0.2339  0.2695 -0.0009
69792W        W12730   3.882  13.264   3.028 -0.1371  0.1462  0.1707
69793W        W12731   3.270  12.133   0.463 -0.0188  0.0821  0.2462
69794W        W12732   5.284  13.808   0.588 -0.1873 -0.0717 -0.0541
69795W        W12733   5.059  11.749   2.270  0.1416 -0.0792  0.1007
69796W        W12734   5.918   9.383   5.813 -0.0456 -0.1512  0.1351
69797W        W12735   6.224  11.772   4.104 -0.0242  0.4702  0.1308
69798W        W12736   4.920  13.389   1.925  0.2347  0.2118  0.0313
69799W        W12737   2.936   9.553   0.475  0.1011 -0.0565 -0.0480
69800W        W12738   8.040  14.447   0.950 -0.2171 -0.1438  0.2795
69801W        W12739   5.822  10.867   2.249  0.0219  0.0223 -0.0495
69802W        W12740   4.230  10.631   2.745 -0.2326 -0.3051 -0.1856
69803W        W12741   6.611  13.360   1.157  0.1397  0.1627  0.2294
69804W        W12742   7.779  12.898  31.056 -0.2329  0.0819  0.3858
69805W        W12743   5.082  10.572   1.632 -0.1318 -0.2068 -0.1309
69806W        W12744   7.230  14.488   2.230  0.1751 -0.0644 -0.2112
69807W        W12745   4.887  13.943  31.648 -0.0845  0.0663 -0.0627
69808W        W12746   4.594  11.423   3.436  0.1189 -0.2742  0.2927
69809W        W12747   5.867  10.825   3.958 -0.0571 -0.2210  0.3607
69810W        W12748   2.672  10.707  31.101 -0.1022 -0.1167  0.2261
69811W        W12749   6.367  12.145   1.973 -0.1190  0.0525  0.1438
69812W        W12750   6.603  13.694   0.359  0.1115  0.1243 -0.1752
69813W        W12751   5.681  12.836  31.370  0.0744  0.2354  0.1474
69814W        W12752   5.667  13.574   2.481  0.2482  0.1251  0.0421
69815W        W12753   5.140  15.052   1.068  0.1971  0.1672 -0.1427
69816W        W12754   4.190  10.382   2.081  0.3019 -0.1109 -0.3908
69817W        W12755   6.252  12.836   0.334  0.0307  0.0860  0.3070
69818W        W12756   4.572  14.004   2.956 -0.1115  0.1164 -0.0367
69819W        W12757   6.274  12.682   1.168 -0.1228 -0.0687  0.0193
69820W        W12758   6.873  11.868   1.393 -0.0698  0.1714 -0.0785
69821W        W12759   5.330  11.546  31.597  0.3090 -0.1033 -0.4280
69822W        W12760   3.615  11.831   3.605 -0.2847  0.1060 -0.2369
69823W        W12761   4.917  12.713   4.140  0.1011  0.3458 -0.2576
69824W        W12762   6.533  11.664   2.209  0.2504 -0.1153  0.0219
69825W        W12763   3.821  10.222   1.208  0.1435 -0.3898 -0.0852
69826W        W12764   6.426  11.434  31.938  0.1312  0.1447 -0.4596
69827W        W12765   6.824  12.504  31.609  0.0551 -0.0603 -0.2834
69828W        W12766   3.928  12.274   2.452  0.2059  0.0279 -0.0085
69829W        W12767   4.943  10.850   1.008  0.1101 -0.1151 -0.2930
69830W        W12768   4.929  14.425   3.002  0.0303  0.2138  0.2691
69831W        W12769   4.743  14.414   2.431 -0.0357 -0.0205  0.0500
69832W        W12770   5.932  13.511   3.435 -0.1456 -0.0135  0.1257
69833W        W12771   5.236  13.160   1.197  0.0088 -0.0913 -0.3748
69834W        W12772   6.955  12.983   0.943 -0.0008 -0.1455  0.1755
69835W        W12773   5.172  13.891   3.883  0.1074 -0.2195  0.0837
69836W        W12774   6.160  14.829   2.658 -0.2734 -0.0942 -0.0247
69837W        W12775   4.933  14.733   0.765 -0.2408  0.1019  0.2676
69838W        W12776   6.907  13.211   1.511 -0.0021 -0.1042  0.0133
69839W        W12777   4.628  10.493   1.915 -0.0767 -0.0609 -0.4128
69840W        W12778   5.369  13.469   1.650 -0.3334  0.2254 -0.1513
69841W        W12779   4.410  14.193   1.447  0.3199  0.0967 -0.3006
69842W        W12780   5.290  13.082   2.273  0.1493  0.0718  0.0609
69843W        W12781   4.133  10.010   0.160  0.0117 -0.1830 -0.0431
69844W        W12782   6.504  12.123  31.463  0.3453 -0.1295 -0.0560
69845W        W12783   3.386  15.719   2.124 -0.1668  0.1524 -0.0375
69846W        W12784   6.699  12.698   1.464  0.1328  0.0975  0.0086
69847W        W12785   4.731  12.468   6.332  0.2260  0.0335 -0.0011
69848W        W12786   4.173  12.415   5.481 -0.1147 -0.3098 -0.0454
69849W        W12787   6.667  10.198   4.698 -0.0593 -0.1881 -0.2772
69850W        W12788   6.366  13.230   3.831  0.0335 -0.0356 -0.1784
69851W        W12789   2.514  11.515   3.631  0.1157  0.2464 -0.1251
69852W        W12790   5.422  13.686   3.410 -0.1534  0.1831 -0.1060
69853W        W12791   5.043  10.376   5.892 -0.3353  0.4732 -0.1991
69854W        W12792   6.364  13.701   4.324  0.4101  0.0589 -0.1630
69855W        W12793   6.322  14.386   6.229 -0.0076  0.4485  0.0083
69856W        W12794   6.447  14.392   4.165 -0.0246  0.0772  0.0161
69857W        W12795   5.199  11.720   5.872  0.0141  0.2756  0.0262
69858W        W12796   4.164  13.947   6.229 -0.0886 -0.2202 -0.0169
69859W        W12797   5.716  11.446   4.792 -0.0559 -0.1867  0.3646
69860W        W12798   2.862  12.040   4.120  0.2195 -0.1282 -0.3078
69861W        W12799   5.405  12.837   5.162  0.2066  0.2488  0.1808
69862W        W12800   3.401  11.954   4.078 -0.4679  0.1037  0.4342
69863W        W12801   4.061  11.119   6.373  0.0990  0.1717 -0.0446
69864W        W12802   3.696  11.336   3.401  0.0853 -0.0801  0.0537
69865W        W12803   5.959  12.969   5.057 -0.4096 -0.1097 -0.1295
69866W        W12804   5.639  12.515   7.421 -0.1363 -0.2114 -0.3707
69867W        W12805   6.392  10.072   7.172 -0.0563  0.0055  0.0586
69868W        W12806   4.322  14.080   5.333  0.0856  0.0197  0.0433
69869W        W12807   3.718  12.781   3.741 -0.1063 -0.1554 -0.0992
69870W        W12808   3.057  11.552   4.224  0.1976  0.2975 -0.2146
69871W        W12809   3.464  12.738   7.382 -0.3579  0.0444  0.1549
69872W        W12810   7.082  11.704   5.540  0.1903 -0.0242 -0.0445
69873W        W12811   6.220  12.726   5.693 -0.0222 -0.0498 -0.2126
69874W        W12812   4.928  14.872   6.513 -0.0622 -0.2928  0.2287
69875W        W12813   4.701  12.979   4.776  0.2928  0.3051 -0.1548
69876W        W12814   6.482  12.054   7.425  0.2066 -0.0982  0.1399
69877W        W12815   2.539  12.721   4.247 -0.0641 -0.0732  0.2366
69878W        W12816   2.608  13.350   5.383  0.0332  0.2095 -0.0106
69879W        W12817   3.990  14.221   3.366 -0.0591 -0.0518 -0.0392
69880W        W12818   6.702  13.466   4.597  0.3268  0.2302  0.0570
69881W        W12819   6.020  13.198   7.073 -0.0706 -0.1197  0.2104
69882W        W12820   4.121  15.532   6.899 -0.1958  0.0227  0.3070
69883W        W12821   3.594  12.824   3.284 -0.1085  0.0791  0.1611
69884W        W12822   4.935  13.599   6.702 -0.3466 -0.0754 -0.4144
69885W        W12823   6.299  13.268   7.514 -0.1559 -0.0945  0.0608
69886W        W12824   5.674  12.789   5.741 -0.2182 -0.0464  0.0563
69887W        W12825   5.392  11.855   4.013  0.0391  0.0123 -0.1694
69888W        W12826   4.542  14.376   3.370 -0.0406  0.1832 -0.0800
69889W        W12827   5.421  12.727   4.226  0.0642  0.3479  0.1480
69890W        W12828   5.559  13.849   8.408  0.0743  0.0113 -0.1506
69891W        W12829   3.483  12.537   5.568 -0.2411  0.2378  0.2116
69892W        W12830   6.388  11.765   7.823  0.2268 -0.0289 -0.1639
69893W        W12831   4.900  13.341   3.914  0.2113 -0.0398 -0.2226
69894W        W12832   6.346  11.021   3.104 -0.1008 -0.1472 -0.0035
69895W        W12833   4.597  11.889   3.660  0.2962 -0.1501  0.0541
69896W        W12834   7.772  11.517   3.975  0.1552  0.1708 -0.0426
69897W        W12835   5.124  11.512   4.255 -0.1284  0.0063 -0.1846
69898W        W12836   5.257  14.088   5.485 -0.0231 -0.0889 -0.1377
69899W        W12837   3.239  11.570   5.081  0.2752 -0.0445  0.1979
69900W        W12838   5.882  12.307   5.764  0.1945  0.0667 -0.0286
69901W        W12839   5.442  12.164   4.986 -0.2091 -0.1535 -0.2163
69902W        W12840   6.056  11.911   5.367 -0.2397  0.0768 -0.1974
69903W        W12841   3.846  13.412   7.903  0.2139  0.0143 -0.0995
69904W        W12842   4.038  11.960   6.767  0.2823  0.1786 -0.2398
69905W        W12843   7.531  14.911   2.960  0.3847 -0.0421 -0.3372
69906W        W12844   6.897  12.974   4.489 -0.0126  0.0034 -0.5052
69907W        W12845   6.154  14.023   3.983  0.2184  0.3308 -0.0737
69908W        W12846   4.695  12.596   5.675  0.1724 -0.2702 -0.1774
69909W        W12847   2.557  12.462   5.437 -0.0582 -0.0750 -0.0526
69910W        W12848   2.802  12.159   7.638  0.1568  0.2240  0.0885
69911W        W12849   5.695  11.371   3.562 -0.2945 -0.1353  0.0174
69912W        W12850   6.122  12.530   8.430 -0.1799  0.1741  0.1768
69913W        W12851   3.593  13.792   7.651 -0.0686  0.0130 -0.3836
69914W        W12852   7.914  11.307   5.605 -0.1205  0.1849  0.2123
69915W        W12853   4.944  13.768   5.610 -0.2467 -0.0714  0.2139
69916W        W12854   5.182  13.539   6.213 -0.3171  0.1203  0.0633
69917W        W12855   5.395  12.488   3.389 -0.0569 -0.0949 -0.0886
69918W        W12856   6.177  10.682   4.328 -0.1758 -0.2759  0.3179
69919W        W12857   6.137  10.791   6.441 -0.0024 -0.0229 -0.2321
69920W        W12858   4.599  12.357   3.835  0.2543 -0.0748 -0.1156
69921W        W12859   3.444  12.279   4.416  0.4691  0.1467  0.1233
69922W        W12860   6.056  12.365   6.618  0.0003 -0.1020  0.3107
69923W        W12861   5.858  12.220   3.290  0.0780  0.1639 -0.0599
69924W        W12862   3.513  13.735   6.077  0.0604 -0.1402  0.1337
69925W        W12863   4.658  11.325   6.086 -0.1187  0.0736  0.1029
69926W        W12864   5.108  14.328   6.617 -0.1130  0.1209 -0.2819
69927W        W12865   4.266  13.150   2.642 -0.5540 -0.0219  0.2605
69928W        W12866   2.664  12.496   4.862 -0.2099  0.0852 -0.2275
69929W        W12867   1.841  11.785   3.218 -0.0654  0.1408 -0.0658
69930W        W12868   2.907  11.623   4.702  0.0520 -0.0746 -0.1246
69931W        W12869   4.215  12.410   6.547  0.3970  0.0629  0.0161
69932W        W12870   7.836  10.604   3.822 -0.1380 -0.0657 -0.3165
69933W        W12871   4.298  11.768   5.151 -0.1359  0.2451 -0.1169
69934W        W12872   6.792  10.889   5.077  0.3807 -0.1866  0.0033
69935W        W12873   4.099  13.552   5.367  0.1919 -0.0086 -0.0946
69936W        W12874   6.972  14.368   4.108  0.0394  0.0902 -0.1983
69937W        W12875   7.139  13.167   3.096  0.2069 -0.1274 -0.2668
69938W        W12876   5.579  14.107   2.211  0.0355 -0.1763  0.0930
69939W        W12877   3.184  12.605   6.963 -0.1789 -0.1465  0.2033
69940W        W12878   4.163  11.973   6.268 -0.3871 -0.0897 -0.0456
69941W        W12879   4.620  11.937   6.600  0.1835 -0.0749 -0.1358
69942W        W12880   3.744  12.303   3.905 -0.0347  0.0929 -0.2795
69943W        W12881   6.584  11.967   6.060  0.0073 -0.1269  0.0956
69944W        W12882   5.568  11.154   4.157 -0.2329 -0.0688 -0.0262
69945W        W12883   7.406  11.230   4.363 -0.2201  0.2720  0.0843
69946W        W12884   3.259  12.301   3.682  0.0466 -0.1199 -0.3319
69947W        W12885   2.685  13.313   4.871  0.0556  0.0966  0.1337
69948W        W12886   5.761  10.802   6.803  0.3047 -0.0671  0.3592
69949W        W12887   4.667  13.830   6.290  0.0574 -0.0920 -0.1116
69950W        W12888   6.173  12.852   6.554 -0.0277 -0.3656  0.2059
69951W        W12889   6.033  14.338   4.959 -0.2677 -0.0807 -0.1619
69952W        W12890   4.440  12.284   7.884  0.0052 -0.0404 -0.0351
69953W        W12891   4.615  12.347   5.200 -0.0641 -0.2991 -0.1000
69954W        W12892   3.813  13.574   4.843  0.0223  0.3266  0.4060
69955W        W12893   4.740  13.527   4.797  0.1275 -0.0616  0.1236
69956W        W12894   4.676  12.307   4.434 -0.1544 -0.1444 -0.0295
69957W        W12895   6.132  13.822   6.381 -0.1270 -0.1616  0.1697
69958W        W12896   4.990  12.346   4.837 -0.0974  0.0611 -0.0654
69959W        W12897   4.104  13.549   7.006 -0.0278 -0.0076 -0.2795
69960W        W12898   6.348  10.113   5.633 -0.1275  0.0982 -0.2492
69961W        W12899   5.619  11.658   6.166 -0.0062 -0.2175  0.1259
69962W        W12900   5.989  12.398   4.851  0.0800  0.0306  0.1707
69963W        W12901   4.126  11.581   3.532 -0.0264  0.0457  0.2147
69964W        W12902   5.695  13.429   4.999  0.0917  0.3391  0.0206
69965W        W12903   4.289  13.385   3.707 -0.0511 -0.4819 -0.0923
69966W        W12904   2.513  11.910   5.665 -0.2566 -0.0780  0.2928
69967W        W12905   4.402  14.514   4.215 -0.0354  0.2128  0.0636
69968W        W12906   7.083  11.882   5.991  0.0430  0.0444  0.3017
69969W        W12907   2.950  12.735   7.411 -0.1406 -0.1266 -0.2031
69970W        W12908   5.920  11.761   6.661 -0.1683 -0.1790 -0.3118
69971W        W12909   4.392  12.458   3.321 -0.0631 -0.3866 -0.2042
69972W        W12910   3.662  13.226   6.183  0.3223 -0.0501 -0.0411
69973W        W12911   5.604  11.116   5.156 -0.2797  0.0800 -0.2481
69974W        W12912   6.301  12.039   3.081 -0.1757  0.1963 -0.5290
69975W        W12913   4.248  13.531   6.453  0.1127  0.1194  0.1179
69976W        W12914   7.689  14.009   3.825 -0.0022  0.2004 -0.0828
69977W        W12915   6.659  11.791   2.697  0.0281  0.1561 -0.1115
69978W        W12916   5.135  10.223   4.928  0.2034  0.1217  0.1884
69979W        W12917   4.097  13.672   7.482 -0.4655  0.3349  0.2154
69980W        W12918   5.746  12.261   4.457  0.2761 -0.0336  0.0513
69981W        W12919   4.728  11.741   5.600 -0.3046  0.1421 -0.0530
69982W        W12920   5.908  11.709   3.188 -0.3604  0.1205  0.1834
69983W        W12921   8.027  14.187   4.355  0.4097  0.0182  0.0222
69984W        W12922   4.559  13.109   5.638 -0.3401  0.2448 -0.5460
69985W        W12923   5.591  14.069   7.437 -0.3098  0.0776 -0.2578
69986W        W12924   6.710  13.945   3.950 -0.0919  0.2848  0.2777
69987W        W12925   7.131  10.383   6.373  0.2394  0.0805  0.3424
69988W        W12926   4.896  12.165   3.321 -0.0054  0.0219 -0.1218
69989W        W12927   5.012  10.952   5.112  0.4177  0.2520  0.2152
69990W        W12928   3.794  15.206   3.246 -0.2813 -0.3618  0.2549
69991W        W12929   7.213  12.398   5.850  0.1857  0.0029 -0.0012
69992W        W12930   6.340   9.850   6.743  0.0311  0.0557  0.2264
69993W        W12931   5.336  10.554   6.263  0.3386 -0.0182 -0.1137
69994W        W12932   7.250  12.698   7.466  0.0972  0.0255 -0.1517
69995W        W12933   6.370  13.684   2.980 -0.1131 -0.0895  0.2057
69996W        W12934   5.587  12.605   4.766  0.3036  0.2628  0.0781
69997W        W12935   4.647  11.756   2.526 -0.3377  0.1286 -0.1000
69998W        W12936   5.340  11.748   6.601 -0.0797  0.1218  0.0338
69999W        W12937   5.556  12.222   6.543 -0.1617  0.2608  0.2346
70000W        W12938   3.772  12.763   5.942 -0.0200 -0.0426  0.3502
70001W        W12939   6.674  13.932   7.522 -0.0830  0.0597 -0.1814
70002W        W12940   6.802  11.744   3.654  0.0076  0.0275 -0.2131
70003W        W12941   4.429  11.720   7.032  0.0076  0.2584  0.2283
70004W        W12942   6.590  10.792   4.553  0.0513  0.0531 -0.1485
70005W        W12943   4.694  13.783   3.843  0.1368  0.1066 -0.0764
70006W        W12944   3.474  13.190   3.918 -0.2470 -0.0461 -0.0506
70007W        W12945   4.554  11.145   4.252 -0.0796 -0.1694 -0.3203
70008W        W12946   4.033  14.886   6.953 -0.0863 -0.0854  0.1479
70009W        W12947   4.051  13.602   2.647  0.1425 -0.1645  0.2285
70010W        W12948   6.337  12.171   5.650 -0.1597  0.1930  0.0070
70011W        W12949   3.387  13.846   3.773 -0.0034  0.0512 -0.2297
70012W        W12950   7.394   8.843   2.992 -0.1171  0.2117  0.0433
70013W        W12951   2.976  12.444   4.396 -0.0083 -0.1631  0.1932
70014W        W12952   4.450  12.585   4.783 -0.0777 -0.0830 -0.0049
70015W        W12953   3.542  11.765   4.568  0.0710 -0.1354 -0.0813
70016W        W12954   6.164  10.455   4.744 -0.2868  0.1253  0.1730
70017W        W12955   6.497  12.557   4.184  0.1451 -0.0802 -0.2226
70018W        W12956   4.972  10.167   6.321  0.2136 -0.0741  0.0344
70019W        W12957   4.918  10.884   6.108 -0.0043 -0.1487  0.1043
70020W        W12958   4.690  14.439   6.273 -0.2772 -0.0950 -0.0315
70021W        W12959   5.178  12.564   6.739  0.1541  0.1179 -0.0839
70022W        W12960   7.070  10.460   5.018  0.4718  0.1067 -0.1657
70023W        W12961   5.429  13.893   6.474  0.2319 -0.0771  0.0672
70024W        W12962   4.091  13.268   5.983  0.4720  0.0260 -0.0018
70025W        W12963   2.485  12.397   3.025  0.1386 -0.0852  0.0713
70026W        W12964   5.993  11.444   5.484 -0.2599 -0.0268 -0.1738
70027W        W12965   3.165  12.085   4.831  0.1512  0.2284 -0.1900
70028W        W12966   1.487  12.999   3.926 -0.0763 -0.1212  0.1339
70029W        W12967   6.012  13.804   4.779  0.2157  0.1398  0.1473
70030W        W12968   6.285  11.852   3.566 -0.0470 -0.0366 -0.3922
70031W        W12969   4.577  12.966   3.818 -0.1198 -0.1470 -0.2692
70032W        W12970   4.941  11.798   6.930  0.0123 -0.0644 -0.2185
70033W        W12971   6.351  13.838   5.852  0.3260 -0.0781 -0.1513
70034W        W12972   5.280  11.288   6.217  0.0927 -0.0027  0.1623
70035W        W12973   4.191  11.272   3.926  0.0517  0.0646  0.0341
70036W        W12974   5.524  10.405   5.818 -0.2101  0.1797  0.2399
70037W        W12975   6.116  13.344   4.702 -0.1557 -0.0370  0.0072
70038W        W12976   6.518  11.729   5.461 -0.4138 -0.5653  0.1129
70039W        W12977   4.273  13.262   7.678  0.2584 -0.0806 -0.1765
70040W        W12978   5.348   9.787   4.926 -0.1374  0.0236  0.3060
70041W        W12979   6.576  14.156   3.344 -0.4182  0.1797  0.1543
70042W        W12980   6.090  11.758   5.889 -0.0443 -0.1382  0.2581
70043W        W12981   2.909  12.165   2.926 -0.0940 -0.1800  0.0113
70044W        W12982   2.183  13.120   5.149 -0.2691 -0.2539  0.1390
70045W        W12983   4.034  12.978   4.575  0.3942 -0.0480  0.0144
70046W        W12984   5.538  10.657   5.392  0.1878  0.0031  0.1688
70047W        W12985   4.471  14.091   5.791 -0.1150 -0.0410 -0.0569
70048W        W12986   3.637  12.655   4.714 -0.2189 -0.1658 -0.1575
70049W        W12987   4.019  13.070   5.536 -0.1598  0.3328 -0.0146
70050W        W12988   5.624  10.442   4.543 -0.1809 -0.0974 -0.1679
70051W        W12989   4.859  14.351   1.699 -0.0116  0.1620 -0.0361
70052W        W12990   6.229  11.606   4.631  0.0911  0.2401  0.1255
70053W        W12991   7.331  11.025   5.784 -0.0996 -0.2000 -0.2280
70054W        W12992   6.610  12.226   3.422  0.0461 -0.0704 -0.1449
70055W        W12993   6.497  10.574   7.166  0.1996 -0.2889 -0.0346
70056W        W12994   3.824  11.259   5.881  0.3303  0.0640 -0.0238
70057W        W12995   6.779  13.948   4.437  0.1787 -0.0550  0.0971
70058W        W12996   5.063  12.123   6.450 -0.3460  0.0866  0.0275
70059W        W12997   5.455  13.367   6.861  0.1061 -0.0921 -0.1675
70060W        W12998   3.827  12.698   5.227  0.0490  0.1567 -0.1233
70061W        W12999   6.040  10.952   5.385  0.0963 -0.1592  0.1722
70062W        W13000   4.225  11.043   3.365  0.0295 -0.1817  0.0316
70063W        W13001   4.910  11.497   6.510  0.2562  0.1905 -0.2251
70064W        W13002   5.962  12.093   6.238 -0.0373  0.2554  0.0133
70065W        W13003   5.169  12.810   4.762  0.0263  0.1630 -0.1715
70066W        W13004   7.644  12.955   4.390 -0.0544 -0.4894  0.0509
70067W        W13005   3.320  12.881   5.157 -0.2226 -0.0729 -0.1154
70068W        W13006   6.261  12.194   4.440  0.2891  0.2369  0.1180
70069W        W13007   5.852  11.897   4.831  0.0694  0.0392  0.1297
70070W        W13008   5.157  12.236   4.383  0.0749  0.1517  0.0440
70071W        W13009   4.211  11.504   6.073 -0.0725  0.1996  0.0471
70072W        W13010   6.095  12.786   3.974  0.1316 -0.2489 -0.2511
70073W        W13011   6.853  11.169   4.651 -0.0492  0.0782  0.2697
70074W        W13012   6.468  10.908   6.816 -0.3003 -0.0141 -0.0418
70075W        W13013   6.424  10.967   6.063 -0.1688  0.1371 -0.2178
70076W        W13014   3.154  11.743   8.196  0.1564 -0.1031  0.0734
70077W        W13015   3.488  10.842   7.279 -0.1535 -0.0789  0.1036
70078W        W13016   5.424  13.114   6.356  0.2091 -0.0587  0.1721
70079W        W13017   7.136  12.106   2.614 -0.1967 -0.1060  0.1339
70080W        W13018   8.303  11.013   5.704  0.1515  0.0805  0.2722
70081W        W13019   7.187  13.473   4.495  0.2312 -0.2933 -0.1989
70082W        W13020   6.276  11.365   3.475 -0.4284 -0.0530 -0.2789
70083W        W13021   4.683  11.843   6.104 -0.2794  0.2016  0.1025
70084W        W13022   6.077  12.658   7.002  0.0870  0.0040  0.0576
70085W        W13023   4.261  10.234   1.553 -0.0415 -0.0225 -0.1214
70086W        W13024   6.128  11.769   7.309 -0.2443  0.2518  0.4688
70087W        W13025   6.344  14.950   3.828  0.2011 -0.1442  0.0652
70088W        W13026   5.751  13.214   3.798  0.1670  0.1122 -0.2680
70089W        W13027   6.333  13.449   5.166 -0.2595  0.1289  0.0831
70090W        W13028   1.672  11.665   5.897  0.0218  0.3036 -0.0733
70091W        W13029   3.954  13.966   5.716 -0.1601  0.2472 -0.2942
70092W        W13030   5.202  11.605   2.676 -0.3160  0.2061  0.2212
70093W        W13031   5.819  11.651   4.342 -0.0237  0.0906 -0.1978
70094W        W13032   4.629  13.289   6.190 -0.0352 -0.1314  0.0133
70095W        W13033   7.598  12.960   6.487  0.0918  0.3245 -0.0411
70096W        W13034   6.091  10.410   3.803 -0.0783 -0.1948  0.2165
70097W        W13035   5.528  10.656   7.331 -0.0125  0.2538 -0.2906
70098W        W13036   3.856  13.422   4.200  0.0107  0.0915 -0.2324
70099W        W13037   5.941  11.210   7.061  0.0536  0.3838 -0.0070
70100W        W13038   4.087  14.241   4.762 -0.1074 -0.1254 -0.3007
70101W        W13039   2.929  13.021   5.679 -0.0868 -0.1130 -0.2240
70102W        W13040   4.338  13.256   4.971  0.0961  0.1982 -0.1952
70103W        W13041   5.797   9.802   5.293  0.1250 -0.0087  0.0098
70104W        W13042   5.325  13.428   5.411  0.1684 -0.1446 -0.0695
70105W        W13043   5.605  13.139   4.492  0.1251 -0.2406  0.3693
70106W        W13044   6.032  11.279   6.114 -0.0642 -0.0214 -0.2978
70107W        W13045   4.823  11.899   5.126  0.1627  0.0177 -0.2666
70108W        W13046   5.206  12.921   5.708  0.1897  0.0827 -0.0015
70109W        W13047   6.230  12.680   7.497  0.1274 -0.0366  0.1323
70110W        W13048   6.814  13.220   5.802  0.0297 -0.3867  0.3008
70111W        W13049   4.419  12.225   5.908  0.1916 -0.1869 -0.0394
70112W        W13050   2.950  12.196   5.715 -0.0441  0.2270 -0.2796
70113W        W13051   5.550  11.325   5.772 -0.2495 -0.1378  0.0960
70114W        W13052   5.228  13.795   5.068  0.0348 -0.0856 -0.3261
70115W        W13053   3.406  11.380   3.796  0.0059 -0.0062 -0.1081
70116W        W13054   4.869  12.631   3.504 -0.3629 -0.2205 -0.0553
70117W        W13055   4.027  12.367   8.190 -0.0772  0.2596 -0.3142
70118W        W13056   4.229  11.848   5.712  0.0339 -0.1737  0.3653
70119W        W13057   4.875  14.384   5.626 -0.0271  0.0478  0.0941
70120W        W13058   4.895  11.829   4.606 -0.0117  0.0384  0.0577
70121W        W13059   4.546  13.169   4.251 -0.2171 -0.1721  0.0570
70122W        W13060   5.523  13.326   5.944 -0.1278 -0.0309  0.0721
70123W        W13061   5.442  10.964   3.711  0.0408 -0.1380 -0.1558
70124W        W13062   3.938  14.510   5.774 -0.0835  0.1790  0.2991
70125W        W13063   2.940  14.030   3.517  0.2817  0.2947 -0.0554
70126W        W13064   7.039  14.760   3.131  0.0634  0.0219  0.1333
70127W        W13065   5.015  13.227   4.431  0.1210 -0.1893  0.1479
70128W        W13066   4.932  13.603   7.922 -0.0882 -0.2885  0.3052
70129W        W13067   7.562  11.808   4.319  0.0426 -0.0287 -0.1149
70130W        W13068   6.388  12.286   6.966 -0.1230 -0.2044 -0.2772
70131W        W13069   7.216  12.962   3.984 -0.2900  0.2583 -0.1091
70132W        W13070   4.969  13.281   7.092  0.1548  0.0244 -0.4518
70133W        W13071   5.235  12.623   6.195  0.0087  0.1000 -0.0674
70134W        W13072   4.080  11.989   3.277  0.1985 -0.2276  0.0270
70135W        W13073   3.750  12.565   6.977 -0.0805  0.0621 -0.3802
70136W        W13074   7.850  10.616   7.025  0.4435  0.0162  0.1533
70137W        W13075   4.757  14.417   7.444  0.1261  0.0111  0.2092
70138W        W13076   6.695  14.725   4.517 -0.0529  0.3500 -0.1242
70139W        W13077   3.349  11.001   3.456 -0.1986  0.1231  0.3011
70140W        W13078   6.431  11.553   6.228 -0.0567  0.2139 -0.2618
70141W        W13079   6.746  10.194   6.776  0.0581 -0.1821  0.2000
70142W        W13080   5.337  12.000   3.553  0.0943 -0.0504  0.0158
70143W        W13081   6.675  11.549   4.398 -0.4037 -0.2323  0.1705
70144W        W13082   5.116  14.027   4.671 -0.3687 -0.1140 -0.0597
70145W        W13083   4.952  13.349   5.844  0.2041  0.0798  0.5527
70146W        W13084   3.104  15.112   5.989 -0.1551  0.1422 -0.0059
70147W        W13085   3.229  10.990   4.026  0.2749 -0.1129  0.2286
70148W        W13086   7.264  11.539   3.974 -0.0595 -0.0812 -0.3500
70149W        W13087   3.749  12.269   6.379 -0.0990  0.2141  0.0844
70150W        W13088   6.018  10.038   6.427  0.1278  0.1415  0.5384
70151W        W13089   4.377  12.683   4.258 -0.0065 -0.4085 -0.1690
70152W        W13090   6.442  11.214   5.330 -0.1677 -0.1867  0.0552
70153W        W13091   4.755  14.063   5.106  0.1791  0.0236 -0.4218
70154W        W13092   3.458  12.133   6.853 -0.2134  0.0447  0.1162
70155W        W13093   4.423  11.643   4.419 -0.2551  0.0823  0.0255
70156W        W13094   5.755  13.500   6.387  0.0664  0.3147  0.0776
70157W        W13095   5.901  11.236   3.072 -0.1525 -0.1239 -0.3115
70158W        W13096   6.196  13.788   7.385  0.1150  0.2627 -0.3906
70159W        W13097   5.176  11.458   5.454 -0.0792 -0.0735  0.2893
70160W        W13098   5.667  12.416   3.838  0.0203 -0.1847  0.2844
70161W        W13099   2.151  13.002   4.143  0.1512 -0.1886 -0.1419
70162W        W13100   4.237  12.846   5.905  0.1065 -0.0778 -0.1263
70163W        W13101   5.811  13.496   7.457 -0.0410  0.0909  0.0354
70164W        W13102   4.107  10.273   4.026 -0.1004 -0.4103  0.2851
70165W        W13103   6.425  13.105   4.381 -0.2151  0.0632 -0.2130
70166W        W13104   6.826  12.137   5.637  0.0049 -0.0692 -0.0687
70167W        W13105   3.622  14.243   2.934  0.0975 -0.2119 -0.0689
70168W        W13106   5.934  13.613   5.924 -0.0437  0.0507  0.1361
70169W        W13107   5.742  14.900   5.503  0.2491  0.1728 -0.0168
70170W        W13108   3.134  12.073   6.282 -0.1086  0.3149  0.1406
70171W        W13109   5.978  13.230   5.492 -0.1976  0.3094 -0.1450
70172W        W13110   6.810  11.961   7.034 -0.0444 -0.4002  0.0805
70173W        W13111   4.465  10.010   5.143  0.2819  0.3495 -0.2415
70174W        W13112   5.312  10.887   5.778 -0.3093  0.1413  0.2334
70175W        W13113   4.422  13.932   3.474 -0.0968  0.0727 -0.2722
70176W        W13114   6.466  11.353   5.792 -0.2123  0.2540 -0.3356
70177W        W13115   5.902  10.796   5.967  0.0166 -0.0590 -0.0051
70178W        W13116   5.025  14.582   3.526  0.1132  0.0339 -0.3016
70179W        W13117   7.253  10.560   5.792  0.2265 -0.0076  0.0983
70180W        W13118   4.751  12.804   6.941 -0.1978 -0.0446 -0.0495
70181W        W13119   4.231  14.359   7.571 -0.6098 -0.2795 -0.0155
70182W        W13120   3.028  12.660   2.685  0.1554  0.1141 -0.1950
70183W        W13121   4.232  12.745   6.902  0.0172  0.1829  0.1347
70184W        W13122   4.512  13.559   5.797 -0.0481 -0.2687  0.0761
70185W        W13123   4.829  14.253   4.286  0.2207  0.0192 -0.1505
70186W        W13124   7.206  14.892   3.611 -0.2385  0.0835 -0.1644
70187W        W13125   4.377  12.849   5.253 -0.0783  0.1840  0.2520
70188W        W13126   6.392  13.410   6.227 -0.0779 -0.1629 -0.1956
70189W        W13127   5.664  11.378   6.576 -0.1318 -0.3164 -0.1029
70190W        W13128   7.619  11.406   4.882 -0.1250  0.1223 -0.2022
70191W        W13129   6.250  10.991   4.883 -0.0610  0.2579  0.2917
70192W        W13130   3.656  12.205   7.315  0.1584 -0.4213 -0.0538
70193W        W13131   3.160  11.453   3.328 -0.2978 -0.1243 -0.0007
70194W        W13132   3.736  11.708   3.073  0.0676  0.1223 -0.0965
70195W        W13133   4.034  11.758   4.681 -0.1971 -0.3721 -0.1514
70196W        W13134   4.395  10.734   6.727 -0.1872 -0.0054  0.1125
70197W        W13135   4.164  11.301   4.998 -0.2039 -0.4080 -0.0191
70198W        W13136   4.225  12.120   4.323  0.1294 -0.1051  0.2918
70199W        W13137   3.738  12.201   4.903  0.0810  0.5034  0.2051
70200W        W13138   6.776  15.293   2.050 -0.0158  0.1417 -0.1657
70201W        W13139   4.391  11.381   5.573 -0.1890  0.2439 -0.1225
70202W        W13140   3.369  11.287   4.735 -0.0976  0.1739 -0.2717
70203W        W13141   5.404  11.805   4.612  0.1831 -0.2373  0.1885
70204W        W13142   5.392  14.227   3.535 -0.0756  0.2394 -0.0464
70205W        W13143   5.608  11.719   5.368 -0.3422 -0.0859 -0.2445
70206W        W13144   7.626  15.197   6.863  0.0229 -0.1346  0.0225
70207W        W13145   3.535  12.817   2.789  0.1963  0.1415 -0.0195
70208W        W13146   5.779  12.148   7.024  0.1482  0.1730 -0.1024
70209W        W13147   3.233  11.149   5.960 -0.3858  0.1191  0.1390
70210W        W13148   3.723  10.907   4.714  0.1524 -0.0814  0.0645
70211W        W13149   5.193  12.009   5.401  0.0312 -0.3222  0.2550
70212W        W13150   6.574  14.334   4.761 -0.0149  0.0792  0.3147
70213W        W13151   6.085  15.152   3.376  0.1385  0.1857 -0.0862
70214W        W13152   4.853  12.870   6.073  0.0293  0.0253 -0.2493
70215W        W13153   5.023  14.067   6.040 -0.0747 -0.2247 -0.1480
70216W        W13154   4.042  11.038   5.418 -0.0536  0.4334 -0.0800
70217W        W13155   5.986  12.840   4.520  0.2569 -0.0052 -0.0662
70218W        W13156   4.945  13.044   6.519  0.0620  0.0209 -0.2328
70219W        W13157   7.199  13.858   4.045 -0.0437  0.3785 -0.0379
70220W        W13158   7.488  11.290   5.386 -0.2451 -0.0597  0.0304
70221W        W13159   5.139  13.263   4.935 -0.2883 -0.0328 -0.3348
70222W        W13160   4.114  10.229   6.012 -0.3125  0.0223  0.0228
70223W        W13161   4.568  13.682   7.080 -0.2259 -0.3990 -0.3106
70224W        W13162   5.585  12.791   6.750  0.1687 -0.1162 -0.2520
70225W        W13163   3.154  12.582   4.814  0.0926 -0.0842  0.2257
70226W        W13164   6.997  10.589   4.344  0.1998  0.1242  0.2895
70227W        W13165   4.789  14.240   3.776 -0.0885 -0.0006 -0.0788
70228W        W13166   3.036  12.399   5.253 -0.1458  0.1380  0.0508
70229W        W13167   4.633  13.463   5.271 -0.1675 -0.0263 -0.0167
70230W        W13168   5.757  12.652   6.262 -0.1396  0.2433 -0.2212
70231W        W13169   4.558  14.563   5.250 -0.0616 -0.0792 -0.0244
70232W        W13170   4.409  12.993   7.273 -0.3013 -0.0550  0.1471
70233W        W13171   5.227  12.482   5.502  0.0990 -0.0022 -0.0040
70234W        W13172   6.942  12.435   4.385 -0.0318 -0.0048  0.0597
70235W        W13173   5.528  13.916   5.988 -0.4195 -0.0260  0.1526
70236W        W13174   6.791  14.237   8.074 -0.0748 -0.0195  0.0683
70237W        W13175   4.480  13.245   6.804  0.0311 -0.1372  0.1219
70238W        W13176   6.489  11.353   3.960  0.1025  0.1179  0.1158
70239W        W13177   4.086  11.316   4.461  0.1385 -0.0125 -0.2049
70240W        W13178   4.926  12.859   5.219 -0.0312  0.0258 -0.1447
70241W        W13179   4.246  13.494   4.523  0.0311 -0.0648 -0.2705
70242W        W13180   7.633  11.772   5.563  0.2673 -0.0663  0.1626
70243W        W13181   3.892  12.042   5.370 -0.0981 -0.2022  0.1461
70244W        W13182   7.668  11.678   3.504  0.2697  0.1410 -0.1672
70245W        W13183   4.446  14.025   6.661 -0.0874  0.0119 -0.1908
70246W        W13184   6.535  12.489   4.748 -0.0300  0.0387  0.2172
70247W        W13185   4.057  12.214   9.946  0.1572 -0.0977  0.1494
70248W        W13186   4.072  11.432   8.222  0.1633  0.0649  0.2000
70249W        W13187   6.228  11.312   7.562 -0.2049 -0.2027  0.0781
70250W        W13188   6.789  11.555   8.257  0.0294 -0.3830 -0.2129
70251W        W13189   3.926  10.494   8.287 -0.0758 -0.1661 -0.0612
70252W        W13190   5.873  14.161   8.137  0.2982  0.0645 -0.3085
70253W        W13191   6.063  11.999   8.621  0.4222 -0.0185 -0.0547
70254W        W13192   7.649  16.810   9.045 -0.1624  0.1071  0.0051
70255W        W13193   4.959  12.175   5.851  0.0443 -0.0597 -0.1391
70256W        W13194   3.489  12.872  10.033 -0.1352 -0.1636 -0.0191
70257W        W13195   5.284  11.126   9.241  0.1151 -0.1652 -0.2235
70258W        W13196   2.916  11.550   9.981  0.0454 -0.0593 -0.1684
70259W        W13197   5.769  12.912   8.253 -0.3235 -0.2709 -0.3138
70260W        W13198   4.089  12.993   8.056 -0.1169  0.3599 -0.2332
70261W        W13199   3.037  11.110   9.890  0.1750 -0.1249  0.1327
70262W        W13200   4.077  11.826   9.059 -0.0522  0.1451 -0.2667
70263W        W13201   7.369  14.428   8.712 -0.2959  0.3637  0.2785
70264W        W13202   5.111  12.171   9.203  0.0951 -0.0234  0.0592
70265W        W13203   6.081  13.738   8.371 -0.1154  0.1656  0.0007
70266W        W13204   3.367  13.279   8.254 -0.2184  0.1301  0.0663
70267W        W13205   2.397  11.740   9.440 -0.2353 -0.3212 -0.1166
70268W        W13206   3.791  11.615   9.412  0.0180 -0.2662 -0.1964
70269W        W13207   6.481   9.973   9.064 -0.2790  0.2073 -0.2504
70270W        W13208   5.900  12.612   7.927  0.0534 -0.1643  0.1621
70271W        W13209   6.591  13.824   8.315 -0.0431 -0.0618  0.0835
70272W        W13210   6.547  11.903   9.583  0.2480  0.2482  0.0242
70273W        W13211   3.207  14.886   9.588  0.0374  0.0878  0.1545
70274W        W13212   2.720  13.754   7.664 -0.0887 -0.1631 -0.1034
70275W        W13213   5.846  13.347   8.680 -0.0532  0.0365  0.2471
70276W        W13214   7.099  12.934   8.463  0.2302  0.0350 -0.1991
70277W        W13215   3.257  13.504   7.818 -0.1545  0.1866 -0.0343
70278W        W13216   7.006  12.958   9.709  0.1005  0.0549  0.3264
70279W        W13217   5.364  12.739   7.806  0.3463 -0.1684  0.1782
70280W        W13218   4.399  13.178   8.461  0.2234 -0.0466  0.2258
70281W        W13219   6.772  13.224   8.924  0.0470 -0.0773  0.1761
70282W        W13220   3.358  13.983   9.185 -0.0196 -0.0717  0.0550
70283W        W13221   5.462  13.861   7.865  0.0147 -0.2055 -0.1793
70284W        W13222   6.240  10.802   7.528 -0.2458  0.0086  0.1381
70285W        W13223   3.175  12.248   7.304 -0.2368 -0.1576  0.3203
70286W        W13224   6.021  11.381   8.012  0.1427  0.4021  0.1178
70287W        W13225   6.742   9.625   9.772  0.0534 -0.0125  0.1175
70288W        W13226   4.819  14.887   9.019 -0.0048 -0.1221 -0.0520
70289W        W13227   3.605   9.516   9.755 -0.0070  0.1570  0.0204
70290W        W13228   5.706  11.770   8.284 -0.1911 -0.2359 -0.2170
70291W        W13229   5.427  10.986   8.554 -0.3603 -0.2174  0.0888
70292W        W13230   3.518  15.113   9.227 -0.0276  0.0475 -0.0093
70293W        W13231   3.397  11.578   9.026  0.0207  0.0228 -0.2165
70294W        W13232   7.480  13.444   7.181  0.1891  0.1485  0.0290
70295W        W13233   7.805  15.443   9.447 -0.0707 -0.1769  0.1857
70296W        W13234   5.197  14.019   8.768  0.0997 -0.3068  0.2166
70297W        W13235   4.108  12.467   9.479  0.0576 -0.1411  0.0238
70298W        W13236   4.270  12.249   7.099 -0.2057 -0.0858 -0.0003
70299W        W13237   6.126  12.846   9.440 -0.2229  0.0537 -0.1661
70300W        W13238   5.455  13.871   9.672  0.0873 -0.0306  0.1268
70301W        W13239   8.393  16.125   9.412  0.2853 -0.0339  0.2223
70302W        W13240   5.308  13.237   7.893 -0.0340  0.1263 -0.0897
70303W        W13241   6.361  11.951   9.089 -0.0417 -0.2375  0.0646
70304W        W13242   6.511  11.512   8.833 -0.1025  0.3038 -0.1010
70305W        W13243   3.317  12.975   7.794  0.3626 -0.3613  0.1600
70306W        W13244   3.670  12.499   7.785  0.0209  0.3385 -0.0501
70307W        W13245   7.735  13.310   8.830 -0.0586  0.5583 -0.0852
70308W        W13246   5.647  12.264   8.467  0.4380 -0.0644 -0.0749
70309W        W13247   4.334  13.587   8.692  0.1654 -0.1543  0.0133
70310W        W13248   4.243  15.191   7.288 -0.1661 -0.1274  0.1339
70311W        W13249   3.815  13.243   9.902  0.0622 -0.1840 -0.0529
70312W        W13250   3.487  12.280   8.297  0.1579 -0.1312  0.0858
70313W        W13251   4.068  12.717   8.641 -0.2800 -0.0963 -0.0222
70314W        W13252   5.766  13.363   9.203  0.2117  0.1153 -0.1000
70315W        W13253   6.442  12.419   7.820 -0.0324 -0.1086  0.0727
70316W        W13254   5.380  10.701  10.070  0.1143 -0.2093  0.0932
70317W        W13255   4.367  14.849   9.294  0.1895 -0.0252  0.1097
70318W        W13256   7.486  14.629   9.173  0.0413  0.1324  0.4513
70319W        W13257   4.980  12.350   7.887 -0.2624  0.1835 -0.0917
70320W        W13258   1.437  11.807  10.037 -0.0596 -0.1564 -0.3593
70321W        W13259   2.931  11.591   9.363  0.2628  0.1569 -0.0069
70322W        W13260   2.316  12.485   8.361 -0.0346 -0.0529 -0.0805
70323W        W13261   2.685  12.595   6.978 -0.0038  0.3356 -0.1385
70324W        W13262   7.842  10.515   9.158  0.2843 -0.3507 -0.3489
70325W        W13263   4.345  11.715   7.920 -0.1020 -0.4546 -0.1407
70326W        W13264   3.926  14.839   9.080  0.3679  0.1552  0.1899
70327W        W13265   5.109  14.095   8.151  0.0216  0.2756 -0.0527
70328W        W13266   8.509  16.609   8.738  0.0671 -0.3646 -0.0910
70329W        W13267   7.117  13.450   8.587  0.2220 -0.2046  0.3108
70330W        W13268   4.170  12.315   9.005 -0.1524 -0.0112 -0.5773
70331W        W13269   3.551  10.842   9.166 -0.4021 -0.1008 -0.2407
70332W        W13270   4.284  15.028   8.828 -0.2131  0.2421 -0.1853
70333W        W13271   6.302  10.701   8.506  0.0450  0.1074  0.0415
70334W        W13272   4.432  10.558   7.178  0.0642 -0.0916  0.0417
70335W        W13273   5.315  13.094   9.465 -0.0514  0.0233  0.2539
70336W        W13274   3.824  13.840   8.564 -0.2214 -0.1679  0.1821
70337W        W13275   6.840  13.462   9.349 -0.1345  0.0938  0.0558
70338W        W13276   5.333  11.646   7.843  0.0762  0.1239 -0.1661
70339W        W13277   4.420  11.485   6.573 -0.1757 -0.1104 -0.0362
70340W        W13278   7.342  13.598   9.092  0.2243 -0.3275  0.0802
70341W        W13279   3.775  14.401   7.797 -0.0011  0.0681 -0.1585
70342W        W13280   5.126  14.015   9.267 -0.0154  0.2239 -0.0642
70343W        W13281   5.221  12.571   9.507  0.0057  0.0470 -0.1136
70344W        W13282   8.278  11.700   9.255  0.1728 -0.0735  0.2760
70345W        W13283   3.440  11.893   8.628  0.0006 -0.0110 -0.1224
70346W        W13284   6.415  10.682   8.002 -0.0296  0.3088  0.0998
70347W        W13285   6.946  11.412   6.986  0.1910  0.0331  0.0619
70348W        W13286   6.958  13.824   7.928  0.0539 -0.2475 -0.1403
70349W        W13287   5.172  11.577   7.341  0.0121  0.1086  0.2058
70350W        W13288   5.483  10.136   7.328 -0.0461 -0.4416  0.3030
70351W        W13289   5.607  14.296   9.117  0.0802 -0.4471 -0.0835
70352W        W13290   6.638  13.470   7.885 -0.4281  0.1209  0.1651
70353W        W13291   5.444  12.137   6.025  0.1278  0.1364  0.1471
70354W        W13292   7.109  14.714   8.372 -0.2089  0.0298  0.0138
70355W        W13293   2.320  16.131   9.870  0.0866 -0.4808 -0.1229
70356W        W13294   6.460  14.114   8.803 -0.2153 -0.3022 -0.0496
70357W        W13295   6.645  13.683   9.806  0.1626 -0.0359  0.2100
70358W        W13296   4.995  12.986   7.557  0.2994  0.6017  0.2633
70359W        W13297   5.204  12.079   8.315  0.0812  0.0224 -0.1098
70360W        W13298   4.653  13.154   7.994 -0.2571  0.2631 -0.2496
70361W        W13299   5.479  11.417   8.852  0.0503 -0.1477 -0.1612
70362W        W13300   4.766  11.246   9.359  0.2453  0.0506  0.2188
70363W        W13301   4.909  12.410   8.598  0.1147 -0.2859  0.0654
70364W        W13302   4.868  11.229   8.783 -0.0889 -0.0911  0.0701
70365W        W13303   3.832  11.694   7.192 -0.0913  0.1543 -0.0572
70366W        W13304   4.557  10.589   8.905  0.0940 -0.1525 -0.0080
70367W        W13305   4.210  14.602   8.032  0.0216  0.2985 -0.1193
70368W        W13306   6.884  14.343   8.613  0.1947 -0.2812  0.1463
70369W        W13307   5.625  11.678   7.053 -0.1768  0.1283 -0.1261
70370W        W13308   4.442  14.631   8.503 -0.0638 -0.0384 -0.0630
70371W        W13309   4.855  13.101   8.476 -0.0250 -0.2721  0.1760
70372W        W13310   3.589  10.957   9.859 -0.3576  0.0738 -0.2695
70373W        W13311   4.686  13.939   9.707  0.0480  0.1636  0.2628
70374W        W13312   4.542  13.882   7.570 -0.0978  0.4169  0.0426
70375W        W13313   4.817  12.922   9.326 -0.1333  0.2179 -0.1618
70376W        W13314   5.233  14.603   8.853  0.0301 -0.1858 -0.1627
70377W        W13315   5.695  10.312   8.252  0.3451  0.0643  0.3027
70378W        W13316   2.227  14.791   7.410  0.1895  0.1750 -0.1768
70379W        W13317   3.779  11.852   8.144  0.1890 -0.2766  0.2103
70380W        W13318   3.011  12.681   9.645  0.5276  0.0651 -0.2279
70381W        W13319   5.488   9.900   8.405  0.0449  0.4543 -0.2504
70382W        W13320   7.329  12.456   8.219  0.0676  0.2498  0.0425
70383W        W13321   5.709  11.486   9.784  0.1205 -0.3292 -0.0194
70384W        W13322   7.195  10.330   9.371  0.1452  0.3327  0.0325
70385W        W13323   2.911  14.336   8.961  0.2056  0.0484  0.1447
70386W        W13324   7.200  11.722   7.333 -0.1009  0.1750 -0.0325
70387W        W13325   3.048  11.267   6.419 -0.0414 -0.0077 -0.1264
70388W        W13326   6.278  11.066   8.980  0.4543  0.0588  0.0259
70389W        W13327   3.329  11.676   7.170  0.0934  0.1011 -0.2647
70390W        W13328   3.757  13.705   9.082  0.0961  0.0167  0.2662
70391W        W13329   5.817  14.688   9.556  0.1884  0.0362  0.0836
70392W        W13330   2.587  11.272   7.286  0.0621  0.2162 -0.4158
70393W        W13331   4.229  13.580   9.188  0.0916  0.2671 -0.0005
70394W        W13332   5.080  11.678   8.982 -0.2734  0.2362 -0.0630
70395W        W13333   4.628  10.978   7.351  0.1780 -0.0767 -0.0527
70396W        W13334   4.960  11.296   7.750  0.4306 -0.0243  0.2505
70397W        W13335   4.938  12.781   8.139 -0.1475  0.0407  0.1537
70398W        W13336   6.376  12.950   8.592  0.2282 -0.0327  0.1146
70399W        W13337   5.389  12.498   8.849  0.0408 -0.1929  0.2687
70400W        W13338   7.680   9.206   9.128 -0.0548  0.1629 -0.0164
70401W        W13339   6.647  14.874   8.641 -0.1768 -0.2196 -0.0846
70402W        W13340   3.622  12.044   9.043  0.1080 -0.3128  0.2496
70403W        W13341   3.818  12.784   9.099  0.2328  0.2030 -0.1191
70404W        W13342   4.429  12.726   8.279  0.1926  0.1585 -0.1024
70405W        W13343   5.281  12.063   9.824 -0.1250  0.0177 -0.0744
70406W        W13344   2.862  14.011   9.311 -0.1582  0.1642  0.1619
70407W        W13345   4.643  12.517   7.367 -0.0240  0.1280  0.1231
70408W        W13346   5.522  14.314   8.511  0.2235  0.1428 -0.1721
70409W        W13347   6.729  10.891   7.664 -0.1500  0.1452 -0.1135
70410W        W13348   5.244  13.784   7.057  0.0790  0.0027 -0.1507
70411W        W13349   4.434  11.194   7.817  0.0458  0.0312 -0.2348
70412W        W13350   5.647  13.049   7.387  0.1288 -0.2608 -0.1293
70413W        W13351   4.925  10.694   8.595 -0.0204 -0.0882  0.3054
70414W        W13352   6.677  12.931   9.355 -0.0635  0.1704 -0.1074
70415W        W13353   3.816  11.272   9.041  0.1835 -0.1261 -0.0738
70416W        W13354   3.485  11.406   8.370 -0.3112 -0.0245 -0.0026
70417W        W13355   4.458  13.354   9.608 -0.1110 -0.2484  0.0121
70418W        W13356   7.963  11.806   8.002 -0.1724 -0.0264  0.0556
70419W        W13357   5.098  13.585   8.392  0.0200  0.0821  0.0544
70420W        W13358   6.192  11.419   9.557  0.2216 -0.3056  0.0643
70421W        W13359   4.647  12.173   9.033  0.0027  0.0844 -0.2554
70422W        W13360   6.190  12.339   9.383 -0.2015  0.1835 -0.3570
70423W        W13361   5.272  10.843   7.797  0.1164  0.2365 -0.4826
70424W        W13362   3.440  11.093   8.774  0.0231 -0.0845  0.0898
70425W        W13363   5.386  12.618   8.286  0.1528 -0.1467 -0.2279
70426W        W13364   5.368  10.387   7.752 -0.0601  0.0487 -0.1080
70427W        W13365   6.352  14.764   9.578 -0.5093 -0.0562  0.1367
70428W        W13366   6.660  11.098   7.236  0.0173 -0.1513  0.5032
70429W        W13367   8.880  12.876   9.155  0.0076  0.0340 -0.1701
70430W        W13368   5.830  12.867   8.751 -0.2368  0.1948 -0.0857
70431W        W13369   5.273  12.160   7.010 -0.0592  0.1356 -0.0094
70432W        W13370   4.256  11.991   7.503 -0.1123  0.0258 -0.0505
70433W        W13371   3.767  11.723   6.381  0.0499  0.0086 -0.2452
70434W        W13372   5.476  14.893   8.431  0.0979  0.0228  0.2570
70435W        W13373   7.345  14.291   8.239  0.3140 -0.0633  0.1000
70436W        W13374   6.393  11.692   6.912  0.3157 -0.1363  0.3165
70437W        W13375   2.622  11.529   8.862 -0.1593 -0.0482  0.0213
70438W        W13376   5.264  12.814   7.187  0.1088 -0.2137  0.2066
70439W        W13377   4.795  11.947   8.075 -0.0614  0.2299  0.0583
70440W        W13378   5.954  11.837   9.290 -0.0761  0.0651 -0.2144
70441W        W13379   5.076   9.133   7.842  0.1147  0.0517  0.3266
70442W        W13380   3.156  13.663   7.331  0.2353  0.2304 -0.0056
70443W        W13381   4.797  10.774   7.814  0.3517  0.0792  0.0707
70444W        W13382   2.369  15.121   9.806 -0.0639 -0.0627  0.0577
70445W        W13383   4.645  12.308   9.533 -0.1114  0.1125 -0.0034
70446W        W13384   5.384  10.668   8.217 -0.1485  0.1144  0.3299
70447W        W13385   5.991  12.228   7.588  0.0940 -0.0853 -0.0277
70448W        W13386   4.460  12.783   7.737 -0.2012 -0.0519 -0.2407
70449W        W13387   3.718  12.756   8.288 -0.0652 -0.0069 -0.1820
70450W        W13388   8.088  14.016   9.352 -0.1988 -0.1120 -0.0631
70451W        W13389   4.214  14.134   8.419 -0.1227  0.0471  0.4219
70452W        W13390   7.142  13.054   6.847 -0.1506 -0.0302 -0.0579
70453W        W13391   4.929   9.851   8.646 -0.1334 -0.1155 -0.1336
70454W        W13392   6.683  15.572   8.406 -0.0216  0.1547 -0.0561
70455W        W13393   1.561  11.648  10.460  0.1799 -0.1954 -0.3117
70456W        W13394   4.714  13.975   8.955  0.0693 -0.1575  0.0716
70457W        W13395   7.806  14.071   8.286 -0.1113  0.0011 -0.0607
70458W        W13396   5.371  13.113   8.445 -0.1359 -0.2182  0.0838
70459W        W13397   5.569  12.212   9.390  0.0557 -0.1404 -0.1158
70460W        W13398   3.899  11.421   6.771 -0.2234  0.0754 -0.0257
70461W        W13399   3.989  13.696   9.556  0.0253  0.0554  0.1920
70462W        W13400   2.683  13.497   7.212  0.3769 -0.0746  0.1185
70463W        W13401   7.486  14.904   8.618  0.2399 -0.1329 -0.0959
70464W        W13402   4.418  13.676   8.081 -0.0303 -0.2101 -0.0321
70465W        W13403   6.466  10.368   7.621 -0.0049 -0.0967 -0.0660
70466W        W13404   8.439  12.825   8.244 -0.0834 -0.1799  0.1321
70467W        W13405   6.978  11.348   7.677  0.1832  0.0774  0.3699
70468W        W13406   4.402  11.498   8.636  0.1098 -0.2337  0.3160
70469W        W13407   4.676  11.039   6.535  0.0815 -0.0670  0.0541
70470W        W13408   5.856  14.399   7.732  0.0451  0.0617  0.1525
70471W        W13409   4.534   9.896   8.124  0.0434  0.2562  0.1453
70472W        W13410   3.893  12.221   8.627 -0.2828 -0.0149 -0.0448
70473W        W13411   7.083  13.911   8.450  0.0718  0.1472  0.0416
70474W        W13412   4.710  13.382   7.533 -0.3173 -0.1863 -0.1723
70475W        W13413   7.218  13.908  10.154  0.2924 -0.2113  0.0238
70476W        W13414   4.892  14.439   9.163 -0.0752  0.0276 -0.2184
70477W        W13415   7.237  14.394  10.321 -0.0444  0.2297  0.1593
70478W        W13416   6.168  14.843   8.650 -0.1221 -0.0680  0.0299
70479W        W13417   4.695  10.162   5.625  0.1892 -0.1356  0.2783
70480W        W13418   6.474   9.791   8.577  0.1920  0.1760  0.0668
70481W        W13419   4.042  11.371   9.895  0.1760  0.2246  0.1210
70482W        W13420   3.025  11.442   8.579 -0.1562 -0.1504  0.1769
70483W        W13421   5.835  11.778   7.784 -0.0356  0.0657  0.1935
70484W        W13422   5.334  14.403   9.579  0.1255 -0.2748  0.1282
70485W        W13423   3.988  13.230   8.809  0.0578 -0.2265  0.1049
70486W        W13424   4.873  12.068   7.413 -0.1772 -0.3285  0.0279
70487W        W13425   6.258  11.333   6.592 -0.0714  0.0929 -0.0926
70488W        W13426   3.499  11.414  10.045 -0.1796 -0.2808 -0.0014
70489W        W13427   4.651  10.166   7.734 -0.2059  0.0309 -0.2156
70490W        W13428   4.718  13.903   8.425  0.1539 -0.0095  0.2774
70491W        W13429   5.055   9.664   9.809  0.3752 -0.2526 -0.0516
70492W        W13430   3.097  10.800   9.451 -0.3208 -0.0789  0.0518
70493W        W13431   6.377  14.032   7.921  0.2116 -0.0705 -0.0644
70494W        W13432   7.580  16.610   9.500  0.0779  0.0902  0.1268
70495W        W13433   4.620  14.339   7.929  0.0042  0.0739  0.2037
70496W        W13434   7.084  14.204   9.196 -0.0161  0.0609 -0.3058
70497W        W13435   6.750  15.110   9.657 -0.0977 -0.0701  0.0430
70498W        W13436   3.310  10.110  10.254 -0.2006 -0.0280 -0.0330
70499W        W13437   6.551  12.223   8.716 -0.1236  0.1445 -0.1115
70500W        W13438   8.265  15.179   8.209  0.1819  0.3991 -0.1394
70501W        W13439   5.274   9.428   8.668 -0.1579 -0.0953  0.2923
70502W        W13440   4.220  11.872   8.418 -0.1698  0.1106 -0.3196
70503W        W13441   3.638  14.286   8.336 -0.3085 -0.0339 -0.0282
70504W        W13442   5.642  12.601   9.775 -0.3449 -0.1371 -0.1196
70505W        W13443   6.630  14.508   7.089  0.0093  0.0006  0.1087
70506W        W13444   4.421  12.296   8.559  0.3411 -0.4533 -0.3156
70507W        W13445   3.851  13.272   6.640  0.2644 -0.0083  0.1069
70508W        W13446   5.693  13.456   8.113 -0.3400 -0.2549 -0.2406
70509W        W13447   5.861  13.942   8.772 -0.0155  0.1484  0.1772
70510W        W13448   8.288  13.330   9.090 -0.2037  0.1387  0.0354
70511W        W13449   5.568  11.186   8.072  0.1264 -0.2379 -0.0356
70512W        W13450   8.014  13.644   8.131 -0.2970 -0.2455 -0.0699
70513W        W13451   5.527  11.049   9.648 -0.1866  0.0393  0.0219
70514W        W13452   5.959  11.308   8.488  0.0514 -0.2132  0.0166
70515W        W13453   5.808  10.923   7.753 -0.1277 -0.1576 -0.0342
70516W        W13454   5.390  13.513   8.834 -0.3797  0.1708  0.0378
70517W        W13455   3.419  13.446   6.979 -0.1231 -0.1143  0.1247
70518W        W13456   4.005  12.600   7.450  0.2451 -0.2244 -0.4033
70519W        W13457   4.459  13.175   9.047 -0.0091 -0.1810 -0.0193
70520W        W13458   2.998  12.923  10.131 -0.0086  0.2452 -0.2740
70521W        W13459   4.641  11.595   7.517  0.1177 -0.1997  0.0033
70522W        W13460   6.126  13.604   7.842  0.0313  0.3739  0.0328
70523W        W13461   3.680  11.289   7.365 -0.1486  0.0347 -0.2728
70524W        W13462   3.021  11.214   8.998 -0.1315  0.2337  0.0036
70525W        W13463   7.075  13.196   7.312 -0.0297 -0.1932 -0.3118
70526W        W13464   5.881  13.120   7.811  0.1160 -0.1992 -0.1712
70527W        W13465   4.721  11.900   8.615 -0.2075  0.1857  0.2186
70528W        W13466   3.834  13.987   5.108  0.2504 -0.1414 -0.1136
70529W        W13467   2.326  11.692   6.973  0.2304  0.0679  0.1888
70530W        W13468   5.053  11.119   8.244  0.2476  0.0170 -0.0714
70531W        W13469   7.733  14.592   8.105 -0.0845  0.1415  0.0318
70532W        W13470   6.584  15.003   7.012 -0.0304  0.0466  0.2108
70533W        W13471   4.805  10.395   9.403 -0.1298  0.1400  0.2116
70534W        W13472   6.906  12.936   7.971  0.4486 -0.3623 -0.4480
70535W        W13473   8.071  13.371   7.350  0.0771 -0.1504  0.2654
70536W        W13474   6.454  11.172   8.406  0.0741 -0.0194 -0.0043
70537W        W13475   5.575  12.020   8.873  0.1266 -0.0454 -0.0440
70538W        W13476   7.487  12.544   8.668 -0.0879 -0.1521 -0.1103
70539W        W13477   4.082  11.062   8.648  0.0316 -0.1940 -0.1496
70540W        W13478   5.528  12.245   7.892 -0.0576 -0.0141 -0.2799
70541W        W13479   6.712  13.238   8.401 -0.1370 -0.0348 -0.0892
70542W        W13480   3.276  11.014  10.313  0.2097 -0.0348  0.0744
70543W        W13481   4.207  11.397   7.405 -0.1168 -0.1034  0.1119
70544W        W13482   4.421  14.485   8.997 -0.4647  0.0978  0.1994
70545W        W13483   5.178  12.416   7.452  0.3225  0.1763  0.1184
70546W        W13484   6.961  11.412   6.090 -0.1596 -0.0277  0.0182
70547W        W13485   7.273  15.583   9.634  0.1952 -0.1456  0.0122
70548W        W13486   5.629  12.729   9.268 -0.0375 -0.3598  0.2795
70549W        W13487   6.054  12.109   8.076  0.1065 -0.3820 -0.0572
70550W        W13488   6.236  10.327   9.531 -0.1114  0.0036 -0.0987
70551W        W13489   4.332  14.127   7.165  0.0764 -0.4079 -0.0460
70552W        W13490   4.741  12.341   6.912 -0.0498  0.2304  0.2032
70553W        W13491   7.636  13.612   9.603 -0.0043  0.0957  0.1677
70554W        W13492   4.220  11.393   9.422 -0.0098 -0.1298 -0.0815
70555W        W13493   7.943  10.993   7.385 -0.0555  0.1244  0.1052
70556W        W13494   4.415  15.647   9.583 -0.2119 -0.2659  0.0130
70557W        W13495   4.846  11.857   9.520  0.1371  0.2166 -0.0826
70558W        W13496   3.795  17.148   1.273  0.2423  0.2088  0.0568
70559W        W13497   5.920  15.630   1.071 -0.2301 -0.1132  0.0299
70560W        W13498   6.942  15.787   0.233 -0.1118 -0.0975  0.0198
70561W        W13499   8.545  17.386   0.462 -0.0909  0.2728 -0.2926
70562W        W13500   4.980  13.957   0.215 -0.0182  0.0492 -0.0880
70563W        W13501   7.272  18.638  31.699  0.0962  0.0915 -0.2800
70564W        W13502   3.651  15.102   2.766 -0.0966  0.1201 -0.1969
70565W        W13503   7.318  16.529   0.906 -0.2204  0.0816  0.0006
70566W        W13504   7.047  17.132   1.608  0.2886  0.0483  0.1342
70567W        W13505   4.727  16.154   0.590  0.0622 -0.0630 -0.1626
70568W        W13506   4.960  15.751   1.882  0.0973  0.0258  0.3039
70569W        W13507   3.333  17.650   2.537  0.1853 -0.5470 -0.0397
70570W        W13508   5.971  16.282   0.100 -0.1183  0.0047  0.0602
70571W        W13509   3.484  13.886   2.630 -0.1148 -0.1630 -0.2573
70572W        W13510   6.781  17.163   1.243 -0.0891 -0.1350  0.0625
70573W        W13511   3.290  15.684   0.679 -0.0726 -0.2468 -0.0846
70574W        W13512   5.113  14.713   2.309  0.0623 -0.2863 -0.3218
70575W        W13513   5.944  14.452   1.487  0.0580  0.0454  0.3121
70576W        W13514   5.833  17.858   1.190 -0.5234 -0.3973  0.3200
70577W        W13515   4.568  16.261   2.195 -0.0103 -0.1959 -0.1010
70578W        W13516   6.404  16.533   2.997 -0.0659  0.0444 -0.0435
70579W        W13517   5.607  17.378   0.051  0.4038 -0.0220 -0.0637
70580W        W13518   4.019  15.341   0.256  0.0201  0.4530 -0.0105
70581W        W13519   3.337  16.254   0.876  0.0933  0.1324  0.2844
70582W        W13520   7.289  15.247   2.142 -0.1510 -0.0526  0.0761
70583W        W13521   7.491  15.385   2.843  0.3057 -0.4451  0.4504
70584W        W13522   5.734  17.424   3.030 -0.2346 -0.0037 -0.0762
70585W        W13523   6.211  18.710   1.589 -0.1083 -0.0618 -0.0812
70586W        W13524   7.048  15.477   2.498  0.0715  0.0669  0.2123
70587W        W13525   4.039  16.726   1.468  0.2551  0.1788  0.4192
70588W        W13526   3.472  18.307   1.463  0.0817  0.0513 -0.2183
70589W        W13527   4.570  18.421   0.751 -0.0953 -0.1071 -0.0036
70590W        W13528   7.966  16.658   0.350  0.2578  0.1150  0.0393
70591W        W13529   6.165  18.058   2.595 -0.3239  0.3004 -0.2437
70592W        W13530   6.115  17.807   2.081 -0.0438  0.0287 -0.1458
70593W        W13531   5.198  15.957   0.625  0.0760  0.3165  0.1661
70594W        W13532   5.367  18.948   3.379  0.0477  0.0407 -0.0118
70595W        W13533   5.177  16.772   3.326  0.1521 -0.0290  0.1581
70596W        W13534   5.508  16.049   1.932  0.2649 -0.1388 -0.3326
70597W        W13535   7.114  16.816   0.528  0.0988  0.5808  0.1262
70598W        W13536   5.571  18.440  31.916 -0.1460 -0.1831 -0.0245
70599W        W13537   7.244  16.717   0.021 -0.0924 -0.4834 -0.5479
70600W        W13538   4.606  15.240   3.531 -0.0188  0.0769 -0.1108
70601W        W13539   4.806  18.225   1.663 -0.1337 -0.0586 -0.4299
70602W        W13540   8.046  14.963   3.883 -0.3583 -0.3962  0.4663
70603W        W13541   4.276  17.125   1.618 -0.0391 -0.2726  0.3124
70604W        W13542   7.145  15.476  31.101 -0.2004  0.0949  0.2705
70605W        W13543   3.853  15.074  30.230  0.0112  0.0961  0.1000
70606W        W13544   5.936  13.468  31.606 -0.0183 -0.2595  0.1671
70607W        W13545   5.347  14.052   3.045  0.0342 -0.1852  0.0716
70608W        W13546   5.613  17.803   0.560 -0.1326 -0.0188 -0.0320
70609W        W13547   5.399  16.498   1.737  0.2949  0.1797 -0.1100
70610W        W13548   7.275  15.726   3.390  0.1830  0.0883  0.0926
70611W        W13549   6.110  16.667   1.426 -0.0622  0.0586  0.0379
70612W        W13550   7.025  16.550   2.300  0.3666  0.1078 -0.1396
70613W        W13551   5.271  17.605   2.310 -0.1577 -0.0713  0.0211
70614W        W13552   3.111  15.812   0.085  0.3247 -0.0634 -0.1135
70615W        W13553   6.125  15.651  31.435  0.1365 -0.0291 -0.2330
70616W        W13554   6.733  17.902   1.140  0.1386  0.0669  0.0989
70617W        W13555   7.154  17.893  31.190 -0.0498 -0.2243  0.0518
70618W        W13556   6.647  15.717   2.377 -0.0027 -0.1709  0.1750
70619W        W13557   3.989  16.820   2.721  0.0190  0.2048 -0.3773
70620W        W13558   4.537  16.662   1.434 -0.1937 -0.1584 -0.0597
70621W        W13559   4.993  14.027  31.123  0.2676 -0.2580 -0.1987
70622W        W13560   7.370  16.591   3.022 -0.1594 -0.0451 -0.1288
70623W        W13561   2.990  18.565   1.681 -0.2747  0.0918 -0.3887
70624W        W13562   6.845  15.122   0.223  0.2539  0.2483 -0.3882
70625W        W13563   6.292  15.448   2.148 -0.0068  0.0796  0.0872
70626W        W13564   6.339  17.055   1.261  0.2467 -0.0459  0.3794
70627W        W13565   7.679  16.517  31.893 -0.3046  0.3205 -0.0540
70628W        W13566   7.038  14.522   0.802 -0.1070  0.2376  0.0170
70629W        W13567   6.995  14.845   1.932  0.1547  0.0206 -0.0665
70630W        W13568   6.380  17.422  30.880 -0.1317 -0.1854 -0.0803
70631W        W13569   6.126  17.151   0.302 -0.1496  0.0878  0.3006
70632W        W13570   6.489  16.763   4.105  0.1986 -0.0373  0.0498
70633W        W13571   6.851  16.232   1.164 -0.0444  0.0886  0.1324
70634W        W13572   2.706  16.843   1.005  0.1068  0.0711  0.0072
70635W        W13573   5.607  17.088   2.455 -0.2438 -0.2420 -0.1291
70636W        W13574   6.220  18.649   2.306  0.0807  0.1210 -0.0948
70637W        W13575   4.656  18.168   0.265 -0.2061  0.0417 -0.0510
70638W        W13576   3.777  17.779   0.889  0.1026 -0.1070 -0.2510
70639W        W13577   3.099  17.104   0.689  0.0697 -0.1033  0.2446
70640W        W13578   4.258  15.464   1.146  0.1028  0.1251 -0.1192
70641W        W13579   5.394  16.448   2.281  0.1172 -0.0856 -0.1006
70642W        W13580   7.121  15.730   1.546 -0.0934  0.2782  0.0274
70643W        W13581   3.805  16.355   1.984  0.0111 -0.1713  0.0502
70644W        W13582   7.943  14.585   2.041  0.1924 -0.2490  0.2334
70645W        W13583   5.948  16.257   1.561  0.0468  0.0628  0.0112
70646W        W13584   7.389  18.744   2.204 -0.0410 -0.1124 -0.1182
70647W        W13585   5.303  15.676   0.133  0.0621 -0.1324  0.0508
70648W        W13586   6.331  18.225  31.839 -0.1729 -0.2462  0.3650
70649W        W13587   3.738  16.226   1.467 -0.0278 -0.0476  0.0464
70650W        W13588   3.574  15.190   0.378  0.1819 -0.1522  0.0299
70651W        W13589   3.006  14.145   3.037  0.1346 -0.0315  0.1709
70652W        W13590   3.925  14.109   1.220 -0.0150  0.1132  0.0020
70653W        W13591   7.936  15.509   4.103 -0.0103  0.1035 -0.0789
70654W        W13592   4.762  13.058  31.234 -0.2645  0.0001 -0.0946
70655W        W13593   5.963  16.684   2.432 -0.3221  0.2882 -0.2737
70656W        W13594   5.602  16.021   1.004 -0.0301 -0.0089 -0.0201
70657W        W13595   5.162  17.475   0.356 -0.1437  0.2567  0.1503
70658W        W13596   6.603  14.574   2.461 -0.2598 -0.3121  0.0634
70659W        W13597   6.426  18.247   0.357  0.1012  0.0550 -0.0967
70660W        W13598   8.234  18.504   2.838 -0.2634  0.0954  0.1092
70661W        W13599   5.669  15.875   3.230  0.2825  0.0006 -0.1420
70662W        W13600   4.724  15.264  31.341 -0.2802  0.1152 -0.1058
70663W        W13601   4.257  17.803   2.097  0.1594  0.0672 -0.0449
70664W        W13602   6.183  18.237   1.842 -0.1021 -0.5470 -0.1034
70665W        W13603   5.572  15.283   0.289 -0.0016  0.3008 -0.1842
70666W        W13604   8.520  16.973   1.745 -0.2647  0.0663  0.3391
70667W        W13605   6.423  16.596   0.982 -0.0656  0.2410  0.0823
70668W        W13606   5.728  16.886   3.289 -0.3043  0.0922  0.3574
70669W        W13607   6.552  16.060   2.968 -0.0873  0.0748 -0.3543
70670W        W13608   7.440  17.436   2.977 -0.1508  0.1384  0.0004
70671W        W13609   7.127  16.187   1.757 -0.1689  0.2081  0.0565
70672W        W13610   1.797  14.556  31.868 -0.1021  0.0788  0.0086
70673W        W13611   5.786  17.870   1.674  0.0684 -0.1390 -0.1656
70674W        W13612   4.175  16.668   0.700 -0.0315  0.3763  0.0493
70675W        W13613   2.723  16.302   0.848 -0.0063 -0.0308  0.1700
70676W        W13614   5.972  17.448   0.771  0.1592  0.3031 -0.1938
70677W        W13615   6.510  15.079   2.405  0.0213  0.1430 -0.0658
70678W        W13616   4.142  15.967   3.361 -0.0394  0.2442 -0.4054
70679W        W13617   7.250  16.268   3.528  0.1782 -0.2803  0.0902
70680W        W13618   6.279  15.871  31.954 -0.1038  0.1724 -0.1563
70681W        W13619   3.245  16.925   3.286  0.2966 -0.0736 -0.0847
70682W        W13620   6.128  13.207   3.061  0.2995 -0.1682 -0.4219
70683W        W13621   6.007  15.947   0.586 -0.0049 -0.0110 -0.1248
70684W        W13622   6.868  15.683   2.940  0.1309  0.0129 -0.0023
70685W        W13623   7.267  17.301   0.633 -0.1092 -0.1804 -0.0028
70686W        W13624   6.144  16.104  30.604  0.0305  0.0808  0.1930
70687W        W13625   6.264  14.737  31.418  0.0675  0.2116 -0.0081
70688W        W13626   4.043  17.565   3.383  0.2310 -0.2968  0.0373
70689W        W13627   7.152  17.507   1.241  0.2317  0.2414  0.0639
70690W        W13628   5.434  17.545   1.560  0.0559 -0.1606 -0.2510
70691W        W13629   5.635  14.713  30.268  0.3513 -0.2576  0.0671
70692W        W13630   9.018  17.508   1.298 -0.1750 -0.1819 -0.1643
70693W        W13631   5.076  17.355   1.924 -0.0148 -0.2102  0.0708
70694W        W13632   6.323  16.270   4.256  0.1804 -0.1160  0.0142
70695W        W13633   6.586  17.545   1.482 -0.1151 -0.0463  0.1747
70696W        W13634   5.965  15.240   2.884 -0.1265 -0.2088 -0.1186
70697W        W13635   5.411  16.893  31.670  0.0999  0.0390 -0.4167
70698W        W13636   6.071  13.820   2.216 -0.1873  0.1849  0.1221
70699W        W13637   3.525  18.706   0.773  0.1399  0.0698  0.2149
70700W        W13638   7.713  15.653   2.428  0.1029 -0.4141 -0.2825
70701W        W13639   6.223  14.161   1.223  0.1883 -0.4908  0.2055
70702W        W13640   4.950  15.518   2.510  0.0054  0.1212  0.0881
70703W        W13641   7.802  15.173   4.370 -0.2863  0.3610  0.1309
70704W        W13642   6.762  15.871   0.745 -0.1297 -0.1827 -0.0479
70705W        W13643   6.720  16.217   2.067 -0.1705  0.1537  0.1830
70706W        W13644   5.959  16.471  31.613 -0.2089 -0.0357  0.0179
70707W        W13645   5.639  15.070   3.230 -0.0672  0.1315  0.1910
70708W        W13646   4.573  16.002   2.629  0.2634 -0.0304 -0.3401
70709W        W13647   4.216  16.247   1.382 -0.0885 -0.0084 -0.0758
70710W        W13648   6.751  17.943   2.872 -0.1381  0.2876  0.1984
70711W        W13649   6.823  17.120   0.253 -0.2626  0.0214 -0.2404
70712W        W13650   6.002  16.169   2.932  0.2011 -0.1146 -0.1437
70713W        W13651   5.650  16.269   0.474  0.1332 -0.2551  0.1900
70714W        W13652   4.528  17.301   2.067 -0.2402 -0.1720 -0.0074
70715W        W13653   4.879  17.521  31.402 -0.1456  0.0747 -0.0473
70716W        W13654   3.911  14.598   1.409 -0.4055  0.2824  0.1436
70717W        W13655   4.658  16.469   2.768 -0.3976 -0.1686 -0.2180
70718W        W13656   5.679  14.162   0.583 -0.0665  0.3871  0.2020
70719W        W13657   5.578  16.645   3.744  0.1233 -0.1273 -0.0134
70720W        W13658   4.040  18.015   1.306  0.0516 -0.3252 -0.4026
70721W        W13659   7.604  14.801   2.451 -0.5127 -0.0751  0.0488
70722W        W13660   4.617  17.097   0.628 -0.0356  0.2764  0.1297
70723W        W13661   2.505  14.599  31.222 -0.0223  0.1773 -0.1746
70724W        W13662   2.705  13.467   0.633  0.1783  0.1963  0.2292
70725W        W13663   7.253  12.437   0.821  0.0318 -0.2185  0.1229
70726W        W13664   7.242  17.366   0.094 -0.0515 -0.3328 -0.1233
70727W        W13665   4.389  15.238   2.164  0.2276  0.0945  0.0792
70728W        W13666   4.985  14.845   1.498 -0.0592 -0.0040  0.0792
70729W        W13667   3.919  17.455   1.701  0.0702  0.1454 -0.0972
70730W        W13668   5.978  15.240   1.387 -0.0671 -0.2803  0.0684
70731W        W13669   5.928  15.523  31.927  0.1519  0.0221 -0.1677
70732W        W13670   6.750  16.281   3.954  0.0286 -0.1580  0.1553
70733W        W13671   6.302  18.048   3.103  0.0985  0.0152  0.1304
70734W        W13672   4.401  15.940   1.006 -0.3210 -0.2561 -0.0242
70735W        W13673   8.773  16.040   4.279  0.1982  0.0668 -0.4179
70736W        W13674   5.399  14.613   0.825  0.2488  0.2353 -0.0541
70737W        W13675   3.460  17.612   1.988  0.0831  0.2925 -0.0061
70738W        W13676   7.200  17.014   2.182  0.0945 -0.0020 -0.0082
70739W        W13677   5.348  18.217   1.473 -0.1250 -0.0608  0.1904
70740W        W13678   4.169  17.516   1.271  0.0642  0.0240 -0.0161
70741W        W13679   5.512  16.152   2.828 -0.2044  0.1874 -0.0836
70742W        W13680   7.125  16.671   1.436 -0.2052 -0.1205 -0.3323
70743W        W13681   4.905  15.333   1.681  0.2417 -0.1661  0.1172
70744W        W13682   4.999  15.283   0.265  0.1695  0.2323 -0.1924
70745W        W13683   5.983  15.022   2.207 -0.2061  0.1158 -0.0631
70746W        W13684   6.887  16.586   2.769  0.0869 -0.0947  0.1317
70747W        W13685   6.190  15.730   1.503 -0.0057  0.1059  0.0583
70748W        W13686   5.020  16.785   2.425 -0.0486  0.0638  0.1889
70749W        W13687   6.680  15.704   1.845 -0.0100  0.2500 -0.0790
70750W        W13688   8.708  17.448  31.063  0.0044 -0.3664 -0.0642
70751W        W13689   6.905  17.064   3.063 -0.1406  0.0646 -0.0560
70752W        W13690   4.954  16.012   1.099  0.0494 -0.2382 -0.0768
70753W        W13691   3.051  16.726   2.397  0.0568  0.1393  0.0839
70754W        W13692   4.180  16.656  30.799 -0.1648  0.1968 -0.0872
70755W        W13693   7.450  16.210   2.202 -0.3227  0.1368  0.1070
70756W        W13694   4.885  17.239   2.476  0.2205  0.0390  0.1760
70757W        W13695   3.437  16.708   0.485 -0.0397 -0.0709 -0.1125
70758W        W13696   4.095  17.316   0.799  0.2739  0.0728  0.0550
70759W        W13697   7.251  14.538  31.190 -0.1118  0.1326 -0.0990
70760W        W13698   7.143  17.150  31.675  0.1917  0.3942  0.0238
70761W        W13699   5.404  15.219   1.568  0.1700  0.1112 -0.2838
70762W        W13700   6.993  14.203   3.000 -0.2968 -0.0318  0.0433
70763W        W13701   7.212  17.668  31.626  0.0945 -0.0270  0.0625
70764W        W13702   7.077  16.166   3.022  0.5224  0.2174  0.1338
70765W        W13703   3.727  15.384   1.978  0.0618 -0.1787 -0.2139
70766W        W13704   6.872  15.297   1.304  0.3649  0.0075 -0.0258
70767W        W13705   2.729  15.342   1.178 -0.1297  0.0313 -0.0655
70768W        W13706   6.872  18.366   4.728  0.0145 -0.2326  0.0667
70769W        W13707   3.403  16.904   2.670  0.1903  0.0791 -0.0128
70770W        W13708   6.734  14.857   1.478  0.1820  0.2702 -0.0335
70771W        W13709   5.946  14.986   0.015 -0.1245 -0.0161  0.4851
70772W        W13710   6.420  14.361  31.748 -0.1569 -0.1952 -0.0359
70773W        W13711   7.438  16.472   0.445 -0.0376  0.0378 -0.0929
70774W        W13712   6.199  16.973   1.832 -0.2089  0.2378  0.0235
70775W        W13713   6.739  14.282   1.993  0.2000 -0.2816 -0.1605
70776W        W13714   4.629  16.471   0.997  0.1846 -0.1054 -0.0749
70777W        W13715   6.642  17.190  31.759 -0.0836  0.1221  0.2028
70778W        W13716   7.363  16.152   1.353  0.1024 -0.0638  0.2663
70779W        W13717   4.901  17.740   1.347  0.0754 -0.0723 -0.0355
70780W        W13718   5.094  14.602   4.029 -0.1058  0.1833  0.2141
70781W        W13719   7.685  16.226   1.763  0.0141  0.0174  0.1789
70782W        W13720   6.687  15.767   1.253 -0.1662  0.1162 -0.4160
70783W        W13721   6.906  16.570   3.246  0.2317 -0.0440  0.1205
70784W        W13722   7.883  15.192   2.587 -0.0412 -0.1443 -0.0237
70785W        W13723   4.563  15.702   2.188  0.2190  0.1018 -0.2473
70786W        W13724   3.889  14.719   3.064  0.1397  0.0394 -0.0001
70787W        W13725   7.304  17.978   2.906 -0.4216  0.2994 -0.2719
70788W        W13726   6.418  14.824  30.937 -0.0478  0.2229 -0.0383
70789W        W13727   6.515  16.578   3.606 -0.2507  0.2213 -0.3513
70790W        W13728   7.233  16.061   0.548 -0.0157 -0.0506 -0.2172
70791W        W13729   6.713  14.745   0.489  0.1683  0.3001 -0.0314
70792W        W13730   3.563  15.868   1.078  0.0014 -0.2016  0.1469
70793W        W13731   7.332  16.415   4.774 -0.4547  0.1432 -0.0752
70794W        W13732   3.732  16.230   0.456  0.0935 -0.0311  0.0651
70795W        W13733   6.126  15.519   3.692  0.0359  0.1122 -0.1844
70796W        W13734   6.880  18.153   0.000  0.2488  0.3135 -0.3865
70797W        W13735   6.506  17.487   0.357  0.1054 -0.2230  0.0170
70798W        W13736   5.621  14.888   2.706  0.0829 -0.2486 -0.0494
70799W        W13737   4.807  15.463   1.110  0.0371  0.2904  0.2686
70800W        W13738   2.963  17.585   2.175  0.0334 -0.0927 -0.0420
70801W        W13739   4.862  16.061  30.861  0.2391 -0.0347  0.0521
70802W        W13740   6.066  15.480   0.633  0.2615 -0.0147  0.1898
70803W        W13741   5.861  17.457   4.065 -0.0443 -0.0871  0.0309
70804W        W13742   7.808  16.207   2.609  0.1273  0.3462  0.0683
70805W        W13743   5.190  14.392  31.865 -0.2734  0.2631 -0.0446
70806W        W13744   6.464  14.759   1.942 -0.1686  0.0247  0.0016
70807W        W13745   3.218  17.925   1.134  0.0853 -0.3464 -0.0242
70808W        W13746   4.589  13.361   0.996 -0.0360 -0.1264  0.0787
70809W        W13747   4.309  17.361   2.511  0.1366  0.1995 -0.1501
70810W        W13748   3.688  16.749   0.942 -0.0330  0.0427  0.1014
70811W        W13749   5.242  18.347   1.977  0.0413 -0.1235 -0.1451
70812W        W13750   7.222  15.615   1.094 -0.3835  0.0315  0.0012
70813W        W13751   7.381  16.588   1.910  0.2742 -0.0333 -0.0814
70814W        W13752   6.468  17.203   0.795  0.0042  0.1861 -0.0988
70815W        W13753   7.749  15.629   3.220 -0.0335  0.0348  0.0239
70816W        W13754   6.361  17.080   3.162  0.1634 -0.0339  0.0918
70817W        W13755   5.137  16.400   0.863  0.0803 -0.1546 -0.0272
70818W        W13756   6.911  17.503   2.775 -0.1882 -0.0791 -0.2435
70819W        W13757   8.288  16.364  31.456  0.0436  0.2753  0.2337
70820W        W13758   5.788  18.392   2.219 -0.1513  0.3271 -0.3503
70821W        W13759   4.133  15.831   2.873 -0.1197  0.0336 -0.0954
70822W        W13760   6.030  16.977   4.228 -0.3885 -0.1390 -0.1184
70823W        W13761   6.905  16.701   1.876 -0.0304  0.0691  0.1052
70824W        W13762   4.812  14.714   0.270  0.1074  0.0214 -0.0100
70825W        W13763   5.138  17.361  31.763 -0.3671  0.0777 -0.2126
70826W        W13764   4.821  16.908   2.930  0.1660  0.3864  0.1460
70827W        W13765   3.743  17.055   3.133 -0.1856  0.0068  0.0047
70828W        W13766   5.183  18.201  31.576  0.0529 -0.0415  0.3941
70829W        W13767   6.832  16.432   0.173  0.3278 -0.1441  0.1754
70830W        W13768   5.519  16.456  31.920  0.1112  0.1535  0.0688
70831W        W13769   6.304  18.080   1.409 -0.2814 -0.0678 -0.1119
70832W        W13770   2.561  14.699   0.535 -0.1885  0.1728 -0.1537
70833W        W13771   2.661  17.215   1.296 -0.1684 -0.0130 -0.1103
70834W        W13772   5.523  16.768   0.715  0.0034  0.2195 -0.0365
70835W        W13773   5.857  17.947  31.900 -0.1109  0.0430  0.1385
70836W        W13774   6.681  18.494  31.577  0.0117  0.1548 -0.1477
70837W        W13775   6.625  17.541   3.175 -0.0698  0.1854  0.1821
70838W        W13776   6.987  14.342  31.732  0.0396  0.1026  0.2280
70839W        W13777   7.094  15.786   2.138 -0.2191  0.1896  0.0983
70840W        W13778   7.657  14.157   0.834 -0.1052  0.3282  0.3261
70841W        W13779   6.209  17.537   2.830 -0.6966  0.1492 -0.0458
70842W        W13780   5.619  16.651   2.726  0.0554  0.0426  0.1163
70843W        W13781   5.883  14.516  31.714 -0.2299 -0.0298  0.0608
70844W        W13782   4.738  16.688   1.891  0.0390 -0.3385  0.1764
70845W        W13783   7.719  14.776   3.444  0.3104 -0.0910  0.0374
70846W        W13784   3.229  17.805   3.043 -0.0803 -0.1639  0.5904
70847W        W13785   7.871  17.928   0.077  0.1903 -0.0531 -0.1009
70848W        W13786   4.893  15.000  31.723  0.1742  0.1255  0.0524
70849W        W13787   5.569  15.278   1.076  0.0898  0.0251  0.3459
70850W        W13788   6.900  14.364   1.267 -0.3288 -0.2133  0.0964
70851W        W13789   6.032  17.060  30.724 -0.0174  0.0970  0.4599
70852W        W13790   6.460  15.437   2.806  0.1020  0.1048 -0.2149
70853W        W13791   5.636  17.205   1.224  0.3546 -0.1250 -0.1169
70854W        W13792   4.502  16.884   2.452  0.2343 -0.0652 -0.0408
70855W        W13793   6.175  17.256   2.345  0.2073  0.0779 -0.1817
70856W        W13794   3.152  14.401   0.148  0.1130 -0.1009 -0.0889
70857W        W13795   7.875  16.477   0.776  0.0907  0.3057  0.0675
70858W        W13796   4.234  16.634   1.896  0.0136  0.0943 -0.0131
70859W        W13797   8.071  14.708   2.508 -0.1903 -0.2660  0.0833
70860W        W13798   4.890  16.894   1.035 -0.0826  0.4061  0.1603
70861W        W13799   6.432  15.269   1.119  0.3931 -0.0641 -0.1402
70862W        W13800   6.396  16.350   2.530 -0.0677 -0.2289  0.1228
70863W        W13801   4.417  15.432   2.692 -0.2729  0.1617  0.1302
70864W        W13802   5.219  15.601   1.387  0.1259  0.0687  0.2783
70865W        W13803   7.549  15.677   3.815  0.0799  0.0576  0.1467
70866W        W13804   6.440  15.721   0.414 -0.0897  0.1760 -0.1486
70867W        W13805   7.540  19.309   2.355  0.1432 -0.0627  0.0527
70868W        W13806   4.408  13.990   2.484  0.1062 -0.0287  0.1462
70869W        W13807   5.444  14.178  31.536 -0.0732  0.0922 -0.4817
70870W        W13808   5.678  15.702   1.534 -0.3281  0.4039 -0.1102
70871W        W13809   6.623  16.659   1.431 -0.1259 -0.1731  0.0301
70872W        W13810   7.000  17.930   3.335 -0.1075  0.2159 -0.0797
70873W        W13811   4.544  14.146   2.041  0.0012  0.1702 -0.1247
70874W        W13812   9.181  16.779  30.646  0.1292 -0.1123  0.1044
70875W        W13813   8.518  17.458   2.011  0.1633 -0.2329 -0.1660
70876W        W13814   5.122  17.802  29.805 -0.1414 -0.2656 -0.0700
70877W        W13815   6.763  17.590  31.923 -0.0580  0.0897  0.0804
70878W        W13816   6.866  17.905   2.259 -0.1592 -0.2380  0.2101
70879W        W13817   4.213  15.412   1.634  0.3943 -0.0134  0.0208
70880W        W13818   6.884  16.709   0.999  0.0215 -0.0075  0.1853
70881W        W13819   7.666  16.952   0.687  0.2723 -0.0086  0.1518
70882W        W13820   6.388  15.249   1.675 -0.0442  0.2880  0.1764
70883W        W13821   5.079  16.551   1.360  0.3448  0.2045 -0.1118
70884W        W13822   2.860  18.291   1.268  0.0687 -0.0312 -0.1624
70885W        W13823   9.243  14.928   1.525  0.0808 -0.1099  0.3619
70886W        W13824   5.772  15.747   2.705  0.0378  0.3313 -0.0773
70887W        W13825   6.029  16.606   0.462 -0.0753  0.2840  0.1231
70888W        W13826   5.584  13.014   3.284  0.1675  0.0425 -0.0560
70889W        W13827   5.599  16.618   1.249  0.3089  0.2498 -0.0954
70890W        W13828   4.212  16.357   2.954 -0.2940 -0.0353 -0.0855
70891W        W13829   5.631  14.528   0.279  0.3618  0.0234  0.0771
70892W        W13830   4.524  16.789   3.276  0.4435  0.2611  0.0429
70893W        W13831   5.714  16.878   1.643  0.1946 -0.1729 -0.0843
70894W        W13832   5.183  17.839   1.893  0.0524 -0.5856 -0.5181
70895W        W13833   8.034  17.725   1.379 -0.0680 -0.1212 -0.3288
70896W        W13834   5.643  14.826   1.275  0.3993  0.2592  0.0918
70897W        W13835   7.842  17.016   1.198 -0.0394 -0.0227 -0.1614
70898W        W13836   5.396  15.479   2.002  0.0364  0.0961 -0.2063
70899W        W13837   4.749  14.447  31.610 -0.2651 -0.1305  0.0801
70900W        W13838   6.240  14.216   0.669 -0.1647  0.2151  0.0241
70901W        W13839   5.930  16.355   0.943  0.4100  0.0235 -0.0369
70902W        W13840   3.191  17.629   0.066 -0.2627  0.0512 -0.1122
70903W        W13841   5.788  17.415  31.593  0.2258  0.1714  0.1679
70904W        W13842   6.210  15.949   2.015  0.1206 -0.0895 -0.2431
70905W        W13843   4.303  13.505   3.122  0.1479  0.3323 -0.0089
70906W        W13844   5.023  15.978   2.931 -0.1594  0.2635 -0.3773
70907W        W13845   3.623  15.730   0.303 -0.2833 -0.0911  0.1491
70908W        W13846   3.767  15.314   0.952  0.0633 -0.3771  0.0684
70909W        W13847   6.683  17.772  30.357 -0.0699 -0.3084 -0.1761
70910W        W13848   5.300  15.830   2.359  0.1227  0.0947 -0.3494
70911W        W13849   4.754  15.160   0.670 -0.0352  0.2421 -0.0185
70912W        W13850   6.390  18.490   1.071  0.1363  0.0439  0.1440
70913W        W13851   7.462  19.074   0.877 -0.2870  0.0551 -0.1969
70914W        W13852   5.444  14.847  31.927 -0.2279 -0.1664  0.1225
70915W        W13853   7.314  17.644   2.440 -0.0872  0.0441  0.1411
70916W        W13854   3.971  15.752   0.760 -0.0332  0.1890 -0.0798
70917W        W13855   6.220  15.848   2.558 -0.0131 -0.0886  0.1436
70918W        W13856   4.568  14.716   3.800 -0.1502  0.1922 -0.1212
70919W        W13857   4.263  15.089  31.353  0.0487 -0.3511  0.2094
70920W        W13858   6.317  16.467   1.897 -0.0296  0.2089  0.0384
70921W        W13859   5.673  17.376   1.982  0.1914  0.1832 -0.0539
70922W        W13860   8.488  16.865   0.281  0.0834  0.2369  0.1312
70923W        W13861   3.715  16.851   1.805 -0.2391 -0.2785 -0.2639
70924W        W13862   5.785  17.385   3.537  0.1066  0.0514 -0.1865
70925W        W13863   2.758  14.299   2.592  0.0082  0.0653  0.1317
70926W        W13864   6.165  17.473  31.938  0.1014 -0.0475  0.0173
70927W        W13865   5.115  16.125   4.912 -0.0311  0.1424  0.2226
70928W        W13866   7.522  17.406  31.352  0.1556  0.1989  0.3977
70929W        W13867   6.555  15.617   3.382 -0.1052  0.2609 -0.2561
70930W        W13868   5.869  15.364   1.842 -0.1352  0.0632 -0.0521
70931W        W13869   4.310  15.050   3.117  0.0379  0.0361 -0.0860
70932W        W13870   4.943  17.567   3.666  0.0376  0.0487  0.2043
70933W        W13871   7.507  16.637   2.402 -0.0316 -0.0969  0.0140
70934W        W13872   3.385  15.697   1.595  0.0630  0.0347  0.0796
70935W        W13873   5.208  14.335   0.398  0.0674 -0.0018  0.3681
70936W        W13874   6.253  16.748  31.022 -0.1308 -0.0966 -0.3857
70937W        W13875   5.006  16.231   2.484 -0.1477  0.0347  0.0846
70938W        W13876   7.033  16.726  31.330  0.0026  0.2939  0.0424
70939W        W13877   6.599  16.915   2.180 -0.0431  0.0308 -0.1060
70940W        W13878   5.823  16.540   2.014 -0.2593  0.0756  0.1571
70941W        W13879   7.272  15.936   2.600  0.0474  0.1633  0.0046
70942W        W13880   4.010  16.162  31.692  0.2096  0.1094 -0.0843
70943W        W13881   6.767  17.992  31.479 -0.0996  0.3425 -0.1311
70944W        W13882   6.570  18.981   3.900 -0.1823 -0.1281  0.2575
70945W        W13883   8.700  18.373   3.067  0.0421  0.1766 -0.1178
70946W        W13884   6.492  17.364   1.968  0.0159  0.1883 -0.1183
70947W        W13885   7.566  16.850   1.538  0.0088  0.2865 -0.0266
70948W        W13886   3.781  14.545   2.089 -0.0975  0.1767  0.2718
70949W        W13887   4.591  15.690   1.528  0.1201  0.3025 -0.0358
70950W        W13888   5.136  17.337   1.161  0.0254 -0.0377  0.1861
70951W        W13889   7.097  16.114   4.474 -0.2039 -0.2233  0.1868
70952W        W13890   5.338  16.079   1.457  0.0006  0.2974 -0.2086
70953W        W13891   6.598  16.787   0.553  0.2032 -0.0096  0.0315
70954W        W13892   5.185  16.499   2.937  0.4716  0.2206  0.0291
70955W        W13893   8.102  17.232   1.791  0.2143 -0.2250  0.2394
70956W        W13894   4.357  17.103   5.337 -0.2442  0.1039 -0.1792
70957W        W13895   4.470  15.274   4.020 -0.0796 -0.2410  0.1198
70958W        W13896   5.274  15.163   3.796  0.0196 -0.0947 -0.1455
70959W        W13897   6.442  15.653   4.522  0.1725 -0.3367  0.0826
70960W        W13898   3.729  16.115   3.663  0.1719  0.0855 -0.2054
70961W        W13899   5.807  16.467   4.330 -0.0769  0.0234 -0.2231
70962W        W13900   3.892  13.021   7.159  0.0834  0.4869 -0.1646
70963W        W13901   5.857  15.487   5.237 -0.1769  0.0310 -0.1555
70964W        W13902   7.513  17.689   6.334 -0.1476 -0.0493  0.0429
70965W        W13903   7.742  16.457   4.420 -0.1416 -0.0871 -0.1699
70966W        W13904   4.931  15.351   5.230  0.1071 -0.0741 -0.1741
70967W        W13905   5.097  17.087   5.905  0.1829  0.4132 -0.0266
70968W        W13906   5.029  15.633   3.373 -0.0757  0.0815  0.0148
70969W        W13907   4.429  14.634   5.842 -0.1556  0.2756  0.0189
70970W        W13908   6.156  15.673   5.969 -0.1301  0.1893  0.0056
70971W        W13909   4.704  16.507   4.163 -0.0778  0.0333  0.0230
70972W        W13910   3.426  15.619   5.220  0.1021  0.0029  0.1631
70973W        W13911   5.953  15.540   4.663 -0.0261  0.1312  0.2120
70974W        W13912   6.520  16.532   6.218 -0.2913 -0.3541  0.0011
70975W        W13913   4.919  15.396   6.551  0.0613  0.0072 -0.0389
70976W        W13914   6.113  14.288   7.240 -0.0195  0.1988  0.0499
70977W        W13915   6.415  16.550   5.638  0.0546 -0.2384  0.4717
70978W        W13916   3.949  17.014   2.242  0.1392 -0.2866  0.0729
70979W        W13917   1.685  14.177   4.057  0.1489 -0.0070  0.2115
70980W        W13918   4.505  15.132   5.882  0.0532 -0.1435 -0.0857
70981W        W13919   6.331  14.803   4.971  0.0944  0.3615  0.0180
70982W        W13920   6.937  16.246   5.003 -0.2234  0.1723  0.0330
70983W        W13921   6.581  15.983   6.470  0.3665  0.0575 -0.1844
70984W        W13922   7.536  17.268   5.740 -0.0893 -0.1535 -0.1466
70985W        W13923   5.575  16.309   5.817  0.0389  0.1650  0.2268
70986W        W13924   4.306  16.332   4.868  0.0548 -0.0879 -0.0894
70987W        W13925   5.020  17.979   3.934 -0.0046 -0.0232  0.0148
70988W        W13926   4.555  18.323   5.335  0.1305  0.0897 -0.0940
70989W        W13927   7.597  17.384   4.321  0.2877  0.1141  0.0309
70990W        W13928   6.902  15.651   6.269  0.2802  0.0259  0.3729
70991W        W13929   5.729  18.969   7.044 -0.0702 -0.1130  0.0218
70992W        W13930   3.024  17.256   2.516 -0.2117 -0.1124 -0.1004
70993W        W13931   6.372  18.030   6.077  0.1214  0.1501  0.0450
70994W        W13932   5.036  18.562   6.340  0.3889  0.1334 -0.0043
70995W        W13933   4.880  16.879   6.347  0.0460 -0.0621 -0.1620
70996W        W13934   6.340  16.976   6.009 -0.2060 -0.2635 -0.1268
70997W        W13935   5.303  16.248   3.952  0.1366  0.3999  0.0354
70998W        W13936   4.843  15.726   4.738 -0.1766  0.0931  0.1876
70999W        W13937   3.680  16.033   5.908 -0.0372 -0.1767  0.2868
71000W        W13938   3.025  16.694   4.217 -0.1371 -0.4224 -0.3581
71001W        W13939   6.689  14.337   6.636  0.2406 -0.2484 -0.0366
71002W        W13940   4.830  17.418   5.137 -0.2376 -0.3917  0.1514
71003W        W13941   7.433  16.867   4.474  0.2140 -0.0438 -0.1574
71004W        W13942   4.954  15.238   4.724 -0.2942 -0.2424 -0.0059
71005W        W13943   7.007  15.612   4.606 -0.2197 -0.0527  0.0256
71006W        W13944   6.491  15.163   4.470  0.0294 -0.2512  0.3558
71007W        W13945   4.649  17.633   6.239  0.1995  0.0154 -0.5242
71008W        W13946   4.493  15.028   4.968  0.0757  0.1372 -0.0140
71009W        W13947   7.507  17.444   7.400  0.0844  0.0656  0.0987
71010W        W13948   4.857  15.991   3.938  0.1012  0.0285 -0.0132
71011W        W13949   5.705  15.905   6.127 -0.2463 -0.4677 -0.0686
71012W        W13950   5.115  18.105   5.663 -0.1328 -0.1809  0.1342
71013W        W13951   2.869  15.673   3.730 -0.2894  0.0448  0.4091
71014W        W13952   6.758  18.825   3.032 -0.0086  0.0814  0.1305
71015W        W13953   6.427  16.388   5.008 -0.1830 -0.0015 -0.2482
71016W        W13954   7.289  17.055   4.045  0.0065 -0.0519  0.2162
71017W        W13955   4.566  16.950   4.227 -0.1504  0.1461  0.0791
71018W        W13956   2.900  16.787   5.272 -0.0544 -0.0726  0.1105
71019W        W13957   2.392  16.140   5.698  0.0913  0.2944  0.1321
71020W        W13958   4.850  13.704   4.338 -0.1265  0.0673  0.1968
71021W        W13959   8.685  18.335   7.263 -0.2896  0.3271 -0.1141
71022W        W13960   3.346  16.622   5.505  0.0514  0.2556  0.1406
71023W        W13961   5.366  14.159   4.234 -0.0019 -0.0362 -0.2453
71024W        W13962   4.117  15.299   4.833 -0.0469 -0.2241 -0.1422
71025W        W13963   6.024  15.193   5.800  0.2523  0.1831  0.0459
71026W        W13964   7.275  18.190   2.405 -0.3317 -0.0382  0.4676
71027W        W13965   5.590  14.108   4.796 -0.0777  0.2079  0.0246
71028W        W13966   5.421  14.432   5.790 -0.0935  0.0320 -0.2273
71029W        W13967   4.607  15.747   3.055  0.3253  0.0699  0.2474
71030W        W13968   6.055  16.475   3.832 -0.0995 -0.0145 -0.3398
71031W        W13969   8.024  16.952   5.878 -0.1232  0.1041 -0.2299
71032W        W13970   7.973  16.308   3.948  0.1051 -0.0950 -0.0322
71033W        W13971   3.805  17.086   4.576 -0.0585 -0.2413  0.1985
71034W        W13972   5.178  16.525   6.088  0.1237  0.1374 -0.0398
71035W        W13973   5.983  17.161   5.754  0.1579 -0.3630  0.1534
71036W        W13974   5.943  18.793   4.738 -0.0387 -0.2702  0.1131
71037W        W13975   2.953  15.995   5.045 -0.3470 -0.0623  0.2133
71038W        W13976   4.095  16.488   3.484  0.1015  0.1218  0.0216
71039W        W13977   3.258  14.168   7.293 -0.2029 -0.1557 -0.2111
71040W        W13978   4.248  16.571   5.898 -0.1459  0.0371 -0.2154
71041W        W13979   6.951  15.787   5.397 -0.0593  0.2823  0.1076
71042W        W13980   3.480  14.734   5.934 -0.0329 -0.1724  0.2440
71043W        W13981   6.386  15.576   5.497  0.3328 -0.1021  0.0103
71044W        W13982   5.894  15.086   4.953  0.0121  0.3009 -0.1252
71045W        W13983   6.938  17.966   5.001  0.0045 -0.1289  0.1887
71046W        W13984   7.222  14.737   4.306  0.0906  0.0871 -0.0741
71047W        W13985   7.051  16.589   4.251  0.3921  0.0032  0.2529
71048W        W13986   2.358  16.078   6.218 -0.0608  0.1283 -0.0518
71049W        W13987   3.867  15.706   5.015 -0.0071  0.0855  0.3440
71050W        W13988   4.118  14.023   7.892  0.2080  0.2355 -0.1513
71051W        W13989   3.567  13.346   5.214 -0.3113 -0.0397 -0.0725
71052W        W13990   5.421  16.142   6.627  0.1375 -0.2327 -0.1848
71053W        W13991   4.051  14.755   3.924  0.2971 -0.2405  0.0377
71054W        W13992   6.188  14.613   4.547 -0.2676  0.1993  0.1598
71055W        W13993   4.640  14.428   4.721 -0.0115 -0.1664  0.1012
71056W        W13994   4.366  15.524   5.286  0.1665 -0.1329  0.2882
71057W        W13995   7.671  14.378   5.943  0.1971  0.0450 -0.2497
71058W        W13996   6.048  18.007   5.287 -0.1482 -0.0076  0.0268
71059W        W13997   7.613  17.217   4.773  0.4001  0.0551 -0.2164
71060W        W13998   7.893  19.175   4.002 -0.0782  0.1922  0.0858
71061W        W13999   4.474  14.899   6.412  0.1698 -0.1560  0.0508
71062W        W14000   4.760  14.841   3.192 -0.0804 -0.0148  0.2278
71063W        W14001   4.378  17.366   4.878  0.0426  0.3083 -0.2344
71064W        W14002   5.157  16.843   4.605 -0.0819  0.0001  0.1258
71065W        W14003   6.160  15.710   3.081 -0.4110  0.3655 -0.2194
71066W        W14004   7.964  17.729   3.677  0.0087  0.0198  0.0710
71067W        W14005   6.792  16.721   5.217  0.0134 -0.0158  0.1490
71068W        W14006   4.374  15.830   6.639 -0.0922  0.0046 -0.1466
71069W        W14007   5.076  15.659   7.328  0.0479 -0.0789  0.2524
71070W        W14008   6.651  15.951   5.947  0.0754 -0.4008  0.1015
71071W        W14009   5.897  16.121   6.738 -0.1099 -0.0411 -0.0360
71072W        W14010   4.401  16.150   3.800  0.0523 -0.0563 -0.0385
71073W        W14011   6.596  17.192   4.405  0.1250  0.0368  0.1318
71074W        W14012   5.234  17.704   4.917 -0.1126  0.3681 -0.0940
71075W        W14013   3.877  16.205   4.589 -0.0157  0.1555  0.1059
71076W        W14014   6.217  16.083   5.739  0.1477 -0.0057 -0.1591
71077W        W14015   6.103  16.053   4.710  0.2213 -0.2560  0.1075
71078W        W14016   1.781  15.530   5.717  0.0238 -0.1288 -0.1896
71079W        W14017   5.279  15.704   6.897 -0.0159  0.1502  0.0438
71080W        W14018   5.268  16.198   3.458  0.0766 -0.1334 -0.4905
71081W        W14019   5.247  18.160   6.673  0.1011  0.2577  0.1129
71082W        W14020   5.724  14.502   4.461  0.1913  0.0082 -0.1672
71083W        W14021   6.149  15.965   5.215 -0.0928 -0.0117 -0.2731
71084W        W14022   5.435  16.095   7.617  0.1186  0.5876 -0.1886
71085W        W14023   8.159  16.776   3.954  0.2528 -0.2971 -0.2694
71086W        W14024   6.085  16.592   3.361 -0.1682  0.3131 -0.2261
71087W        W14025   6.559  14.666   3.232 -0.1437 -0.3445 -0.3239
71088W        W14026   3.839  16.997   5.266 -0.2906 -0.0167  0.0485
71089W        W14027   6.113  16.214   6.283 -0.0066  0.2115 -0.1449
71090W        W14028   4.229  16.145   5.710 -0.3623  0.0194 -0.2904
71091W        W14029   5.955  16.022   4.080 -0.0738 -0.4415  0.3588
71092W        W14030   6.887  17.772   3.770  0.0875 -0.0159 -0.0111
71093W        W14031   3.346  15.575   5.909 -0.3311 -0.1756 -0.3035
71094W        W14032   6.904  16.850   6.528 -0.2175  0.1054 -0.2103
71095W        W14033   7.496  16.248   5.881 -0.1902 -0.1233  0.2112
71096W        W14034   4.010  15.129   6.510 -0.0842 -0.0836  0.1510
71097W        W14035   2.673  15.294   2.785 -0.0308 -0.1265 -0.0771
71098W        W14036   4.948  14.804   4.950  0.3045  0.0976 -0.0232
71099W        W14037   3.232  18.043   2.201 -0.0037  0.4720  0.1716
71100W        W14038   5.249  14.700   5.416  0.1782 -0.0855  0.0067
71101W        W14039   5.392  14.956   5.924 -0.2415 -0.1532  0.0234
71102W        W14040   5.790  14.270   6.374  0.0578  0.0748 -0.0291
71103W        W14041   6.900  16.338   6.680  0.2627 -0.0287 -0.3169
71104W        W14042   7.228  16.991   5.164  0.1624 -0.2663  0.0053
71105W        W14043   5.992  14.685   4.109  0.3914 -0.0340 -0.3315
71106W        W14044   3.443  16.707   1.399 -0.0374 -0.4622  0.0706
71107W        W14045   4.883  14.784   5.931 -0.0251 -0.1345  0.0026
71108W        W14046   3.429  16.162   6.291 -0.0591  0.1215 -0.1102
71109W        W14047   3.581  18.364   5.270 -0.1755  0.3228  0.0358
71110W        W14048   6.125  16.687   6.485 -0.1797 -0.4092  0.1545
71111W        W14049   5.282  17.187   4.999  0.2951 -0.0419 -0.1957
71112W        W14050   4.808  14.096   6.978  0.2437  0.2420 -0.0732
71113W        W14051   5.730  13.817   4.331 -0.0895 -0.3386 -0.3263
71114W        W14052   5.224  18.389   4.262 -0.1001 -0.1370  0.0896
71115W        W14053   5.612  15.874   4.371  0.4074  0.3121  0.0648
71116W        W14054   3.612  14.304   5.469 -0.1015  0.0317  0.0244
71117W        W14055   5.559  17.315   5.981  0.2811  0.0794 -0.0611
71118W        W14056   5.405  17.767   3.495  0.1636 -0.1692  0.0610
71119W        W14057   5.973  16.692   5.914  0.0215  0.1590 -0.1929
71120W        W14058   4.568  15.751   3.544  0.0492  0.0401  0.0950
71121W        W14059   5.655  14.315   5.293  0.2808  0.0265 -0.1380
71122W        W14060   2.493  15.946   5.267  0.1174  0.0692  0.0884
71123W        W14061   5.786  16.099   3.648  0.1966 -0.0975 -0.1024
71124W        W14062   4.035  15.562   4.418  0.0980 -0.3703 -0.0722
71125W        W14063   6.162  14.455   5.459  0.1843 -0.0617  0.1737
71126W        W14064   8.290  17.206   3.707  0.1758 -0.0496  0.1402
71127W        W14065   4.047  14.372   6.810  0.1166 -0.0688  0.1420
71128W        W14066   4.283  15.788   4.760  0.0025  0.1046 -0.1836
71129W        W14067   3.277  17.616   5.960  0.1429  0.3004 -0.3470
71130W        W14068   5.154  16.030   6.232 -0.0648  0.3133  0.0870
71131W        W14069   6.834  14.710   5.008 -0.2217  0.3087  0.1277
71132W        W14070   8.810  17.651   6.203  0.0118  0.3583 -0.1178
71133W        W14071   4.558  16.051   7.039  0.0588 -0.1552 -0.0801
71134W        W14072   4.037  15.239   3.736  0.0739  0.1660  0.0038
71135W        W14073   7.500  14.895   6.094  0.2247  0.0163  0.1437
71136W        W14074   3.307  14.966   4.549 -0.2465  0.2189  0.0962
71137W        W14075   4.357  16.756   3.794  0.0202 -0.0252 -0.0635
71138W        W14076   7.746  15.297   6.357 -0.1470  0.1270 -0.1865
71139W        W14077   4.589  15.743   4.256  0.0326  0.1210  0.1321
71140W        W14078   4.752  16.916   5.087 -0.0551 -0.0809 -0.0361
71141W        W14079   5.695  15.745   8.584 -0.0479  0.0536  0.2205
71142W        W14080   6.287  15.282   6.698 -0.2399  0.2558  0.1696
71143W        W14081   5.365  13.590   4.569  0.0533  0.2619 -0.1748
71144W        W14082   4.629  14.947   2.630  0.0651  0.0000 -0.0504
71145W        W14083   5.342  15.608   5.327  0.4721  0.1565 -0.0521
71146W        W14084   6.451  15.402   6.251 -0.3008 -0.0213 -0.1893
71147W        W14085   4.627  15.052   6.875 -0.1977 -0.1409 -0.0653
71148W        W14086   5.078  17.052   5.439 -0.3689 -0.0596  0.2502
71149W        W14087   3.783  14.646   6.418 -0.3666  0.0503 -0.0992
71150W        W14088   7.188  18.393   3.176 -0.1164  0.1302 -0.0052
71151W        W14089   5.649  15.519   7.290 -0.0313 -0.1716  0.0601
71152W        W14090   5.350  15.583   4.754 -0.3404 -0.0780 -0.2488
71153W        W14091   0.780  14.558   5.813 -0.2238 -0.2550 -0.1503
71154W        W14092   3.963  18.258   4.454  0.0224 -0.2288  0.1951
71155W        W14093   5.607  15.631   6.534 -0.0627 -0.1243  0.1905
71156W        W14094   4.199  16.584   4.402 -0.4219  0.0433  0.0493
71157W        W14095   3.607  17.534   3.213  0.0821 -0.0093  0.0424
71158W        W14096   4.325  17.447   4.332  0.0131 -0.2246 -0.0340
71159W        W14097   7.317  14.453   3.390  0.0277  0.3413 -0.2195
71160W        W14098   7.254  16.129   3.998 -0.2123 -0.1734  0.1418
71161W        W14099   5.530  14.899   4.129  0.1349 -0.0052 -0.0698
71162W        W14100   7.574  15.657   6.876  0.2092  0.0796 -0.0874
71163W        W14101   6.672  16.567   4.629  0.0692  0.0196  0.1052
71164W        W14102   5.552  14.759   7.940  0.3377 -0.0292  0.2746
71165W        W14103   3.685  15.235   5.831 -0.2056 -0.1261 -0.3513
71166W        W14104   6.169  16.663   4.574  0.0657  0.2533 -0.3358
71167W        W14105   3.697  13.837   7.115  0.0984  0.1369  0.1710
71168W        W14106   7.150  18.015   6.193  0.1388  0.0209  0.5224
71169W        W14107   4.217  16.890   4.843 -0.0252 -0.1453  0.0017
71170W        W14108   6.353  16.140   3.413  0.2481 -0.2408  0.2295
71171W        W14109   4.870  15.499   3.841 -0.0860  0.3866  0.2258
71172W        W14110   5.158  16.372   4.454  0.1006 -0.0849  0.2845
71173W        W14111   7.505  15.614   4.437 -0.1492 -0.1813  0.0407
71174W        W14112   5.358  17.110   3.693  0.1104 -0.2375 -0.1133
71175W        W14113   6.878  15.108   4.770 -0.1516  0.0974 -0.0401
71176W        W14114   4.639  16.647   4.681  0.0653  0.1389  0.0289
71177W        W14115   6.433  15.878   3.967  0.4172  0.5498 -0.2236
71178W        W14116   6.343  15.482   4.972  0.0281  0.1580 -0.0601
71179W        W14117   4.636  16.770   5.627 -0.0592 -0.1826  0.2241
71180W        W14118   3.843  13.899   6.647  0.1658  0.0792 -0.1677
71181W        W14119   6.587  16.119   5.412  0.0522 -0.1236 -0.2338
71182W        W14120   5.629  14.655   4.959 -0.1657 -0.1697  0.1376
71183W        W14121   5.717  15.242   6.873 -0.0500  0.2288  0.0474
71184W        W14122   6.337  16.418   7.282 -0.0003  0.1507 -0.3294
71185W        W14123   5.356  16.938   6.277 -0.2911  0.0678  0.2468
71186W        W14124   3.307  14.570   6.494 -0.1912 -0.2242  0.1199
71187W        W14125   6.202  18.314   5.636 -0.2685  0.0964  0.1957
71188W        W14126   6.822  14.880   4.010 -0.1591  0.0465 -0.3795
71189W        W14127   7.318  15.464   6.023 -0.0361  0.1322  0.0683
71190W        W14128   7.047  16.295   5.489 -0.2907 -0.0019  0.0801
71191W        W14129   5.682  16.883   4.642  0.1917  0.3213 -0.1569
71192W        W14130   4.157  14.958   5.504 -0.0382  0.0569  0.2102
71193W        W14131   5.108  16.553   6.568 -0.1772  0.1175  0.1810
71194W        W14132   5.130  15.260   4.221  0.2844  0.0290  0.2136
71195W        W14133   5.639  14.575   7.335 -0.0181 -0.1283 -0.2856
71196W        W14134   5.135  17.433   4.507 -0.3375  0.0599  0.0450
71197W        W14135   4.488  16.003   6.150 -0.1139  0.0211  0.1151
71198W        W14136   5.873  16.432   5.448  0.1268  0.2726 -0.2088
71199W        W14137   2.993  15.176   4.197  0.0188 -0.1115  0.1649
71200W        W14138   3.900  18.416   6.661 -0.0504 -0.2968  0.0709
71201W        W14139   4.663  14.911   4.300  0.1880 -0.1259 -0.2568
71202W        W14140   4.680  16.173   1.566  0.1302 -0.1716  0.2787
71203W        W14141   7.869  16.496   5.611 -0.2920 -0.0690  0.1415
71204W        W14142   7.131  17.523   6.007  0.2364 -0.3739 -0.1782
71205W        W14143   5.169  14.569   4.573 -0.1850 -0.2337  0.0036
71206W        W14144   6.202  14.159   6.723 -0.0749 -0.0274 -0.1450
71207W        W14145   4.119  17.092   3.479  0.1027  0.2426 -0.1783
71208W        W14146   7.272  14.756   4.799  0.4182  0.1784 -0.0292
71209W        W14147   5.103  17.611   5.968 -0.0102 -0.1506 -0.0647
71210W        W14148   2.066  16.417   6.400 -0.0143  0.1377  0.0521
71211W        W14149   5.667  17.655   5.207 -0.0289 -0.2017 -0.1788
71212W        W14150   5.214  14.374   5.029  0.5140  0.3411  0.1292
71213W        W14151   5.906  15.332   6.322 -0.1836  0.5491  0.1306
71214W        W14152   5.324  15.469   6.152  0.2231 -0.1945  0.0057
71215W        W14153   8.089  15.064   6.617  0.3550  0.0505 -0.1522
71216W        W14154   5.920  14.800   7.004  0.2262  0.2488 -0.2390
71217W        W14155   4.831  15.607   6.062  0.0669  0.2739  0.3850
71218W        W14156   6.070  16.624   7.010  0.4203 -0.0806 -0.0305
71219W        W14157   7.755  16.665   6.195  0.0322  0.1881  0.0384
71220W        W14158   4.708  16.361   5.228  0.1888  0.1695  0.1057
71221W        W14159   2.561  16.450   5.160  0.2233  0.0459 -0.1545
71222W        W14160   6.031  15.687   6.979  0.0707  0.1075 -0.3261
71223W        W14161   7.061  17.186   5.605  0.2283 -0.1142 -0.2341
71224W        W14162   5.404  15.017   4.633 -0.1247  0.2940 -0.3499
71225W        W14163   6.244  17.567   3.450  0.1364  0.0868  0.2685
71226W        W14164   4.105  17.165   5.738  0.3888  0.0274 -0.1357
71227W        W14165   3.434  16.084   5.384 -0.0165  0.1820  0.0106
71228W        W14166   4.898  16.492   3.648  0.0903 -0.1878  0.1000
71229W        W14167   6.786  16.806   5.805 -0.0732 -0.0234 -0.0284
71230W        W14168   5.518  16.415   4.788  0.2238 -0.0389  0.3518
71231W        W14169   7.199  17.657   5.503 -0.0203 -0.1272  0.0394
71232W        W14170   6.113  15.502   4.198 -0.3412 -0.2986  0.1159
71233W        W14171   4.392  17.850   5.112 -0.4680 -0.4336 -0.1008
71234W        W14172   3.687  16.866   3.601  0.0895  0.1845  0.1618
71235W        W14173   7.487  18.514   3.646 -0.0215 -0.5108  0.0677
71236W        W14174   3.705  17.529   4.393 -0.1294  0.0044  0.1765
71237W        W14175   6.925  16.358   6.058  0.1230  0.1041  0.0507
71238W        W14176   5.974  13.322   4.209 -0.1876  0.2132  0.1564
71239W        W14177   8.049  15.632   3.646 -0.0165  0.1119 -0.3218
71240W        W14178   6.202  15.115   5.334  0.0581  0.0329 -0.1234
71241W        W14179   5.079  16.170   6.989  0.0803 -0.1063  0.2726
71242W        W14180   4.720  14.938   5.484 -0.0434  0.0520  0.1052
71243W        W14181   5.039  16.210   1.965 -0.0099 -0.1226 -0.0088
71244W        W14182   4.301  15.451   6.244 -0.0054  0.2531  0.2983
71245W        W14183   7.117  14.062   6.685  0.0231  0.2166 -0.1085
71246W        W14184   4.086  18.057   5.807  0.2921 -0.0918  0.1724
71247W        W14185   6.422  18.873   3.420 -0.2168 -0.4832  0.0769
71248W        W14186   3.280  15.540   3.196 -0.2787  0.4602 -0.1626
71249W        W14187   4.294  16.621   5.307  0.1063  0.2737  0.0093
71250W        W14188   7.263  16.062   6.330 -0.1081  0.0473  0.0863
71251W        W14189   5.246  16.700   4.143 -0.2390 -0.2047  0.1008
71252W        W14190   5.595  15.366   5.659  0.4659 -0.1574  0.2557
71253W        W14191   5.205  17.887   4.432 -0.3464 -0.1255 -0.1495
71254W        W14192   4.037  16.970   4.142 -0.0477  0.0474  0.0086
71255W        W14193   5.976  17.873   5.835  0.1695  0.0984  0.3527
71256W        W14194   3.192  14.007   4.577  0.3011 -0.1063  0.0822
71257W        W14195   7.774  15.997   4.651 -0.1646  0.0037  0.0704
71258W        W14196   4.010  15.833   6.288 -0.0367 -0.1874  0.0933
71259W        W14197   5.206  14.344   7.209 -0.2804  0.0011  0.1019
71260W        W14198   4.716  16.169   4.542 -0.0230 -0.0262 -0.0012
71261W        W14199   5.916  16.523   4.996 -0.0473 -0.3306  0.0194
71262W        W14200   5.384  15.101   5.169  0.1616  0.0507  0.3200
71263W        W14201   3.161  14.646   5.553  0.2812  0.0742 -0.3778
71264W        W14202   6.076  17.011   3.636  0.1650 -0.0821 -0.0350
71265W        W14203   7.272  17.173   6.934 -0.2064  0.1491 -0.0447
71266W        W14204   5.650  15.962   5.016 -0.2897 -0.0698  0.0192
71267W        W14205   5.644  16.555   6.756  0.0038 -0.0582  0.5153
71268W        W14206   3.310  13.640   4.901 -0.0106 -0.2602  0.0507
71269W        W14207   6.349  14.379   3.690 -0.2049 -0.1021  0.0913
71270W        W14208   3.785  16.622   4.842  0.0456  0.0451  0.0209
71271W        W14209   4.232  15.056   7.886 -0.0928 -0.1633  0.1432
71272W        W14210   6.052  16.908   5.326  0.0235  0.0192 -0.0288
71273W        W14211   3.112  14.546   4.858  0.0585 -0.0718 -0.2009
71274W        W14212   6.953  16.746   3.763  0.1394 -0.2923 -0.0107
71275W        W14213   5.828  14.738   6.485  0.1210  0.1379 -0.0488
71276W        W14214   4.420  17.806   3.766 -0.1276 -0.1265 -0.0293
71277W        W14215   7.561  17.400   5.255 -0.0179  0.1043 -0.0681
71278W        W14216   7.545  17.797   5.850  0.1475  0.0170 -0.2630
71279W        W14217   3.694  14.753   4.322  0.1247 -0.0204  0.0370
71280W        W14218   7.197  17.500   4.883  0.1025  0.3332 -0.0470
71281W        W14219   7.409  15.451   5.556  0.0246 -0.0361  0.3251
71282W        W14220   4.509  15.355   4.518 -0.0316 -0.0674  0.1596
71283W        W14221   3.016  16.113   4.015  0.1235 -0.0643 -0.1294
71284W        W14222   4.464  17.323   3.876  0.1139  0.0692 -0.0425
71285W        W14223   5.954  15.049   4.462  0.0093  0.2092 -0.3431
71286W        W14224   7.105  14.610   6.878 -0.2456  0.1293  0.1713
71287W        W14225   6.811  17.297   3.989 -0.2062 -0.2092  0.3220
71288W        W14226   6.566  13.964   7.023  0.1030  0.0797 -0.1071
71289W        W14227   6.462  17.569   5.915  0.2735 -0.1194  0.1510
71290W        W14228   4.797  17.312   7.769  0.0458  0.2303 -0.1083
71291W        W14229   4.711  16.204   3.203 -0.0645  0.2993  0.0972
71292W        W14230   5.172  15.883   5.714 -0.3226 -0.1058 -0.3740
71293W        W14231   5.516  16.749   5.239 -0.3394 -0.2821  0.0456
71294W        W14232   7.701  16.765   4.912  0.1234 -0.3011  0.0404
71295W        W14233   5.451  14.708   6.833  0.0007 -0.2002 -0.0325
71296W        W14234   7.515  16.596   3.968  0.0523  0.0270 -0.1120
71297W        W14235   5.003  15.275   5.741 -0.1397 -0.1544  0.0585
71298W        W14236   7.160  15.464   5.067  0.0944  0.0239  0.2133
71299W        W14237   6.191  14.142   4.472  0.2532  0.2076 -0.0402
71300W        W14238   4.659  16.437   6.196  0.0436  0.1952  0.2008
71301W        W14239   5.344  15.587   2.963 -0.2049 -0.0697  0.1307
71302W        W14240   3.437  17.261   3.615  0.1571 -0.1123 -0.0490
71303W        W14241   3.393  16.360   4.973 -0.2368  0.0848  0.1464
71304W        W14242   5.002  14.788   7.067  0.0503  0.1324 -0.0817
71305W        W14243   2.983  15.528   6.318  0.1450  0.3006  0.1171
71306W        W14244   3.017  16.456   6.465 -0.0102  0.1350  0.1246
71307W        W14245   3.890  13.884   4.493 -0.0664  0.1836  0.1181
71308W        W14246   5.841  17.234   5.045  0.1215  0.0645 -0.1384
71309W        W14247   4.195  14.462   6.287  0.0786  0.0358 -0.0608
71310W        W14248   4.184  13.763   4.007 -0.0731 -0.1872 -0.0004
71311W        W14249   5.100  16.604   5.022 -0.1085  0.0938 -0.0984
71312W        W14250   6.573  17.565   4.768 -0.2399 -0.0583  0.0474
71313W        W14251   5.372  15.086   6.486 -0.1651  0.1541 -0.0326
71314W        W14252   6.997  19.047   6.353  0.0269 -0.1852  0.1565
71315W        W14253   4.152  15.714   3.842 -0.2932  0.4189  0.1326
71316W        W14254   6.366  15.763   7.733  0.0451 -0.2327  0.2745
71317W        W14255   4.390  14.637   7.167 -0.4457 -0.0432  0.0438
71318W        W14256   3.763  13.778   3.035 -0.2873 -0.0685 -0.3862
71319W        W14257   5.462  15.046   7.298  0.0742 -0.0476  0.0250
71320W        W14258   6.841  17.073   4.859 -0.1538  0.0197  0.0585
71321W        W14259   6.659  18.365   3.330  0.1215 -0.0746  0.0263
71322W        W14260   4.785  16.121   6.587 -0.3047 -0.0870  0.0559
71323W        W14261   5.534  17.291   5.466 -0.0496 -0.2063  0.1223
71324W        W14262   3.653  15.529   6.372  0.1549  0.1923  0.4711
71325W        W14263   6.558  15.376   3.925  0.0939  0.2149  0.5412
71326W        W14264   5.741  17.322   7.685 -0.0089  0.1719  0.1172
71327W        W14265   6.589  17.877   1.881 -0.0032 -0.0046 -0.1445
71328W        W14266   6.516  14.360   5.765  0.2321 -0.4501 -0.1138
71329W        W14267   5.352  15.746   3.902 -0.1740 -0.3055  0.0501
71330W        W14268   3.184  13.868   6.883 -0.1604  0.2616  0.0613
71331W        W14269   4.282  16.282   6.513 -0.1656 -0.2927 -0.3031
71332W        W14270   7.329  15.931   4.861  0.2008 -0.0934 -0.1684
71333W        W14271   4.075  15.080   4.360  0.0770  0.3171 -0.3655
71334W        W14272   6.321  17.304   3.951 -0.2431  0.1210  0.1943
71335W        W14273   7.676  16.009   4.170  0.3328  0.0186  0.0333
71336W        W14274   3.900  16.274   5.140 -0.1828  0.1122  0.3259
71337W        W14275   5.115  15.871   4.363 -0.0698 -0.3506 -0.1668
71338W        W14276   5.201  15.203   6.925  0.0379  0.0691  0.1933
71339W        W14277   4.821  15.867   5.294  0.1124  0.0456 -0.3265
71340W        W14278   6.382  16.335   6.739 -0.1014  0.2312  0.0577
71341W        W14279   5.649  16.402   3.240  0.0989  0.5097  0.1098
71342W        W14280   9.594  16.341   4.715  0.2343 -0.0016 -0.0860
71343W        W14281   5.539  17.798   5.791 -0.3551 -0.4191  0.2149
71344W        W14282   6.484  17.564   7.340 -0.1349  0.3332  0.1968
71345W        W14283   6.723  17.267   6.200  0.1208  0.0735 -0.1027
71346W        W14284   6.155  15.741   6.454  0.0210 -0.2811  0.0669
71347W        W14285   2.918  13.984   4.066 -0.2102  0.0317  0.0441
71348W        W14286   4.829  15.309   2.969 -0.0974  0.0081  0.3600
71349W        W14287   5.696  15.953   5.479 -0.0082 -0.0663  0.3003
71350W        W14288   5.310  14.589   6.251 -0.0179 -0.2254  0.0080
71351W        W14289   4.440  13.960   4.463 -0.1881  0.1048 -0.2856
71352W        W14290   4.937  13.991   3.381  0.3766 -0.3794 -0.1462
71353W        W14291   5.344  17.638   6.889 -0.1566 -0.0608 -0.0648
71354W        W14292   5.635  15.381   4.306  0.1266 -0.1440  0.0775
71355W        W14293   4.777  16.097   9.841  0.0335  0.3588  0.5208
71356W        W14294   5.300  14.809   9.316 -0.1243  0.4104  0.0363
71357W        W14295   6.786  14.904   7.498 -0.1442 -0.0064  0.1951
71358W        W14296   6.328  17.025   7.247  0.0066 -0.0462 -0.0980
71359W        W14297   3.223  16.043   7.967  0.0350 -0.4989 -0.0401
71360W        W14298   5.637  16.978   7.184  0.1376  0.0732 -0.0906
71361W        W14299   6.014  17.848   8.231  0.0604  0.1449  0.1102
71362W        W14300   5.513  18.764   9.453 -0.1704  0.0934  0.0903
71363W        W14301   4.980  16.971   7.346 -0.0225 -0.1350 -0.4671
71364W        W14302   4.221  14.013   8.912  0.0110  0.0303  0.0403
71365W        W14303   6.358  15.291   8.755  0.0679  0.1301  0.0947
71366W        W14304   3.488  14.134   8.770 -0.2409 -0.2444 -0.2581
71367W        W14305   7.842  16.375   8.022 -0.1119 -0.0908 -0.3242
71368W        W14306   4.384  15.517   8.032 -0.1456 -0.2279 -0.2052
71369W        W14307   2.687  16.439  10.063 -0.2216 -0.2707 -0.1469
71370W        W14308   5.147  14.575   8.284 -0.2228  0.5133  0.0374
71371W        W14309   6.165  17.524   8.777  0.0218 -0.3296 -0.0840
71372W        W14310   5.184  14.817   9.879 -0.1868 -0.0279  0.2073
71373W        W14311   5.360  18.593   8.617 -0.0164  0.2970  0.0604
71374W        W14312   3.933  16.324   6.214 -0.0236  0.0386  0.0375
71375W        W14313   3.512  14.065   9.664  0.1301 -0.2375  0.1462
71376W        W14314   6.225  13.938  10.016 -0.3105 -0.0743  0.4082
71377W        W14315   6.647  15.163   9.158  0.0894 -0.1181  0.3031
71378W        W14316   6.319  15.057   7.811  0.5264 -0.0732  0.0625
71379W        W14317   4.695  18.441   8.960 -0.1349  0.1179  0.1083
71380W        W14318   5.653  17.492   9.293  0.1954  0.0170 -0.1076
71381W        W14319   3.740  17.797   8.179  0.0575 -0.0196 -0.1825
71382W        W14320   3.645  18.490   8.001 -0.2116 -0.0773 -0.1810
71383W        W14321   5.125  18.084   7.604 -0.1610  0.4220  0.0634
71384W        W14322   7.541  16.286   7.680 -0.1945 -0.2847  0.2166
71385W        W14323   4.479  17.226   7.148  0.0935 -0.1058  0.1958
71386W        W14324   6.148  16.637   8.799  0.1702  0.0378  0.1922
71387W        W14325   4.828  14.409   8.704 -0.1811 -0.1692  0.0836
71388W        W14326   5.544  17.957   7.848 -0.3069  0.0412 -0.1055
71389W        W14327   4.207  16.009   8.195  0.3164 -0.2010  0.1977
71390W        W14328   3.616  17.573   9.302 -0.1631  0.2550 -0.1810
71391W        W14329   5.699  18.062   6.869 -0.3369  0.0243 -0.1004
71392W        W14330   6.324  14.457   7.694 -0.0326 -0.1128 -0.2943
71393W        W14331   5.031  13.911   7.478 -0.0259  0.3149 -0.1138
71394W        W14332   6.828  14.424   7.533  0.0056  0.0113  0.0033
71395W        W14333   4.046  14.991  12.599 -0.0940  0.2732 -0.2412
71396W        W14334   4.323  18.164   9.210  0.2888  0.1239 -0.2112
71397W        W14335   4.938  13.432   9.350  0.1990 -0.0311 -0.4250
71398W        W14336   5.519  16.049   7.110  0.1591  0.2453  0.1120
71399W        W14337   6.551  15.780   9.176  0.2179  0.1167  0.3228
71400W        W14338   4.510  16.296   8.822  0.0519  0.1225 -0.0971
71401W        W14339   3.080  16.765   9.525  0.2598 -0.0566 -0.1611
71402W        W14340   7.832  18.130   7.450  0.2667  0.1130  0.2225
71403W        W14341   6.517  18.030   7.731 -0.0077  0.3538  0.1385
71404W        W14342   6.262  17.310   6.409  0.3361  0.0834 -0.1314
71405W        W14343   5.092  15.675   7.814 -0.1786 -0.0213 -0.0809
71406W        W14344   6.066  14.705   8.069 -0.0175  0.1305  0.0128
71407W        W14345   8.120  16.510   6.894 -0.2662 -0.1693  0.0515
71408W        W14346   4.207  16.853   8.543 -0.1162 -0.0451 -0.0247
71409W        W14347   5.953  15.825   9.375  0.0603  0.2081 -0.2337
71410W        W14348   5.788  17.991   6.262  0.2887 -0.1024 -0.1039
71411W        W14349   6.494  17.859   8.955  0.2811  0.1730  0.4625
71412W        W14350   3.979  14.489   8.718 -0.0204  0.3739 -0.0077
71413W        W14351   4.044  15.705   7.464  0.1833  0.1170  0.3935
71414W        W14352   5.760  15.590   8.095 -0.1721  0.1371  0.0294
71415W        W14353   6.014  18.342   9.067 -0.0053 -0.1680  0.3436
71416W        W14354   6.521  15.671   6.851 -0.0037 -0.3699 -0.0429
71417W        W14355   4.132  16.327   8.552 -0.1519  0.0518  0.0545
71418W        W14356   6.224  17.831   6.541 -0.0599 -0.0662 -0.0732
71419W        W14357   2.944  16.745   7.807 -0.1237  0.2808  0.1989
71420W        W14358   4.339  16.798   6.943  0.2728  0.1731 -0.1629
71421W        W14359   4.833  13.509   8.794 -0.2302  0.2474  0.0199
71422W        W14360   3.411  16.031   9.238 -0.0897 -0.0544 -0.0859
71423W        W14361   7.143  15.204   7.062  0.1925  0.0715  0.1316
71424W        W14362   6.009  14.398   8.667 -0.0606  0.1624  0.0132
71425W        W14363   4.725  15.952   9.228  0.0725 -0.2842 -0.1451
71426W        W14364   6.821  17.986   7.347  0.1553 -0.0206 -0.1744
71427W        W14365   7.165  16.276   7.375 -0.0029 -0.0315 -0.0192
71428W        W14366   5.073  17.366   6.382  0.1689  0.1289  0.1000
71429W        W14367   3.422  15.706   8.368  0.1743 -0.2325 -0.0685
71430W        W14368   4.140  15.532   8.493  0.1122  0.0079 -0.1307
71431W        W14369   3.297  14.542   7.998 -0.1131 -0.0429 -0.0813
71432W        W14370   4.743  14.798   8.011 -0.2563 -0.0460 -0.1890
71433W        W14371   6.898  15.742   7.681 -0.1472  0.1310  0.0762
71434W        W14372   5.792  16.217   9.758 -0.1872 -0.0911 -0.0963
71435W        W14373   4.124  16.447   7.404  0.0886 -0.1853 -0.0390
71436W        W14374   4.729  17.634   8.155  0.2156  0.0760  0.4530
71437W        W14375   6.531  16.527   9.442  0.2343  0.1445 -0.0142
71438W        W14376   7.554  18.348   7.833  0.1448  0.2866  0.0416
71439W        W14377   3.704  15.244   8.723 -0.0896 -0.1367  0.2948
71440W        W14378   4.567  15.775   5.665 -0.1211  0.0683 -0.1990
71441W        W14379   4.790  16.818   6.860 -0.1467 -0.1592  0.1131
71442W        W14380   5.394  17.936   9.218  0.0551 -0.0700 -0.1366
71443W        W14381   3.702  15.350   8.204  0.1678  0.2424 -0.1162
71444W        W14382   8.193  18.392   8.192 -0.0993 -0.0864 -0.1146
71445W        W14383   5.183  16.045   9.060 -0.0395  0.0843  0.0711
71446W        W14384   8.436  15.883   7.851  0.1051  0.2051  0.0409
71447W        W14385   5.845  15.118   8.215  0.1262 -0.1580 -0.2901
71448W        W14386   4.026  14.934   8.421 -0.1478  0.0695  0.0059
71449W        W14387   6.501  17.584   7.977 -0.3985 -0.2102  0.2262
71450W        W14388   4.783  17.717   6.831  0.0831  0.1558  0.1071
71451W        W14389   4.365  16.177   9.500  0.1265  0.1712  0.1900
71452W        W14390   4.438  17.733   9.455 -0.2109 -0.1489 -0.5449
71453W        W14391   7.645  15.956   8.120  0.0023  0.2697 -0.0162
71454W        W14392   3.795  15.294   7.673  0.3771 -0.2907 -0.1761
71455W        W14393   6.345  15.147   8.292  0.1724  0.1967  0.3915
71456W        W14394   7.603  14.779   6.573 -0.1979 -0.1901  0.1828
71457W        W14395   5.645  17.529   8.181 -0.0504 -0.0814 -0.0859
71458W        W14396   5.844  14.969   7.587 -0.4378  0.1190  0.1900
71459W        W14397   4.927  15.209   7.322  0.2822  0.3963  0.0700
71460W        W14398   5.201  17.691   8.428 -0.3766  0.2321 -0.1092
71461W        W14399   5.432  17.217   8.663 -0.1589 -0.0595  0.0840
71462W        W14400   5.739  14.752   8.859  0.0157 -0.4664  0.2980
71463W        W14401   7.715  18.825   7.910 -0.0355 -0.1200  0.0035
71464W        W14402   2.441  16.670   9.503 -0.4762 -0.0508 -0.2211
71465W        W14403   5.269  16.649   7.040 -0.0026 -0.2921 -0.1370
71466W        W14404   3.562  14.560   8.981  0.1223 -0.1108  0.0981
71467W        W14405   4.850  16.056   7.539  0.3308 -0.1946 -0.2222
71468W        W14406   6.142  14.582   9.123 -0.0011  0.1973 -0.2908
71469W        W14407   5.807  17.529   6.554 -0.1250  0.1716 -0.1832
71470W        W14408   7.664  15.789   9.086  0.1994 -0.1926 -0.1694
71471W        W14409   7.218  15.173   8.133 -0.0865 -0.3776 -0.2862
71472W        W14410   6.276  14.746   7.335 -0.0149 -0.0393 -0.1936
71473W        W14411   6.646  14.720   7.985  0.1676 -0.2960  0.1889
71474W        W14412   4.284  15.981   5.202 -0.1375 -0.0058  0.4176
71475W        W14413   6.056  15.665   8.932 -0.0787 -0.0097 -0.1423
71476W        W14414   4.935  17.318   8.713  0.1838 -0.1146 -0.0116
71477W        W14415   5.939  16.849   7.567  0.0591 -0.2306 -0.1279
71478W        W14416   5.238  14.356   7.745  0.6142  0.0227 -0.2631
71479W        W14417   5.032  18.979   5.938 -0.2183  0.0379  0.0537
71480W        W14418   4.760  15.264   7.837 -0.4564  0.1159  0.1806
71481W        W14419   5.251  13.045   8.927  0.0112 -0.1026  0.2398
71482W        W14420   5.403  19.275   9.238 -0.2815 -0.2548 -0.0994
71483W        W14421   4.499  17.038   8.068  0.0803  0.0447  0.2172
71484W        W14422   6.948  17.438   9.487 -0.0251  0.1361 -0.2939
71485W        W14423   3.412  16.424   7.607  0.0333  0.1017 -0.0438
71486W        W14424   6.267  16.178   9.062 -0.1405  0.1846  0.1679
71487W        W14425   4.541  16.619   9.445  0.1257 -0.4221  0.0130
71488W        W14426   5.147  15.035   8.125  0.1785 -0.0568 -0.0110
71489W        W14427   3.637  15.057   7.264 -0.0925  0.0150  0.0167
71490W        W14428   7.425  14.310   9.626  0.2414  0.1829 -0.0686
71491W        W14429   7.737  17.223   7.740 -0.3826 -0.1285  0.0415
71492W        W14430   3.510  13.779   8.173  0.0319  0.2092  0.2607
71493W        W14431   8.800  16.362   9.655 -0.0481  0.0703  0.1971
71494W        W14432   5.251  18.413   9.055 -0.0930  0.1171  0.0108
71495W        W14433   7.407  13.328   7.680 -0.5207  0.1789 -0.1258
71496W        W14434   4.571  15.584   7.436 -0.2078 -0.1003 -0.2158
71497W        W14435   6.889  15.961   9.556  0.0234  0.0834 -0.1428
71498W        W14436   4.600  15.378   9.190 -0.2303  0.2420  0.3313
71499W        W14437   5.367  18.383   7.139 -0.1526  0.0781 -0.4111
71500W        W14438   5.861  16.440   9.347  0.4019  0.0900  0.1473
71501W        W14439   5.699  16.531   6.273  0.1952  0.3559  0.1556
71502W        W14440   5.330  16.690   8.263 -0.0089  0.1267 -0.0537
71503W        W14441  10.440  17.830  10.103  0.1728 -0.0275  0.0464
71504W        W14442   3.152  15.711   9.564 -0.0262 -0.2320  0.1055
71505W        W14443   3.320  15.545   7.911  0.1332 -0.3607 -0.1696
71506W        W14444   4.234  15.872   8.840 -0.0944  0.0659 -0.0636
71507W        W14445   6.606  17.358   9.023 -0.1567 -0.1549 -0.0826
71508W        W14446   6.468  17.062   9.763  0.0377  0.3092  0.0103
71509W        W14447   7.132  13.435   9.855 -0.1316  0.3291  0.0003
71510W        W14448   5.486  16.734   8.806 -0.0782 -0.0096  0.1224
71511W        W14449   4.047  16.956   7.779  0.2319  0.0866  0.2651
71512W        W14450   3.620  15.089   9.824  0.0478  0.0343  0.0941
71513W        W14451   3.650  15.270   6.818  0.0331  0.1002 -0.0503
71514W        W14452   6.423  15.238  10.054 -0.0495  0.1762 -0.1441
71515W        W14453   6.082  16.146   8.633  0.1356  0.2002 -0.5626
71516W        W14454   5.259  17.563   8.976 -0.1502  0.2171 -0.0025
71517W        W14455   4.662  17.785   8.879 -0.3335 -0.2914 -0.3011
71518W        W14456   7.940  16.077   6.880 -0.2448  0.0701 -0.2203
71519W        W14457   5.192  17.601   7.915  0.1952  0.1043  0.2172
71520W        W14458   6.652  14.509   9.264 -0.0688  0.1304 -0.3653
71521W        W14459   6.164  15.234   7.245  0.1786  0.1433  0.1287
71522W        W14460   4.864  15.004   9.540 -0.2607  0.0229 -0.0484
71523W        W14461   7.682  17.149   8.281  0.0525  0.0917  0.1109
71524W        W14462   4.774  14.476   9.691 -0.1433 -0.2657 -0.1399
71525W        W14463   4.551  14.879   7.558  0.1351 -0.4672 -0.0541
71526W        W14464   6.115  16.066   8.103  0.2553 -0.0181 -0.0235
71527W        W14465   6.529  15.958   8.610 -0.2053 -0.0734 -0.1705
71528W        W14466   5.113  17.186   8.162  0.0612  0.2822 -0.1531
71529W        W14467   6.323  15.403   9.371 -0.0532 -0.1930 -0.0581
71530W        W14468   5.316  16.223   8.554 -0.1644 -0.0479 -0.2455
71531W        W14469   7.061  14.737   8.913 -0.0858 -0.3001 -0.1398
71532W        W14470   5.531  16.575   7.841 -0.1533  0.3228  0.0752
71533W        W14471   5.747  18.197   9.513  0.0055 -0.0573 -0.1343
71534W        W14472   7.189  16.941   8.261 -0.3202 -0.1449  0.0755
71535W        W14473   5.294  16.341   9.469  0.1306 -0.1146 -0.3531
71536W        W14474   6.174  17.383   9.282  0.1380  0.1957 -0.0220
71537W        W14475   7.011  13.556   6.915 -0.0564  0.1061  0.2480
71538W        W14476   7.390  16.145   9.310 -0.3007 -0.0620  0.2939
71539W        W14477   8.063  15.694   8.125  0.0354  0.2012  0.1544
71540W        W14478   5.414  15.267   7.774  0.2611  0.0223 -0.2673
71541W        W14479   5.412  15.081   8.895 -0.4112  0.2635  0.0815
71542W        W14480   3.557  14.269   6.855 -0.0120  0.2249  0.1378
71543W        W14481   5.967  17.076   6.826 -0.0392 -0.1197 -0.1052
71544W        W14482   6.353  15.930   7.269 -0.0934  0.0462 -0.2100
71545W        W14483   6.508  14.723  10.067 -0.1128 -0.1907  0.0544
71546W        W14484   3.210  15.255   8.777 -0.0673  0.1463 -0.0683
71547W        W14485   4.608  14.490   6.740  0.3919 -0.2685 -0.0467
71548W        W14486   4.632  15.511   6.971 -0.0528 -0.1280 -0.2744
71549W        W14487   6.172  15.628   8.424  0.0325  0.1959 -0.1247
71550W        W14488   5.611  14.248   6.971 -0.1542  0.2030  0.1484
71551W        W14489   3.431  17.255   7.227 -0.0127  0.0606 -0.0824
71552W        W14490   6.233  13.174   9.033 -0.3678  0.0242 -0.2158
71553W        W14491   4.089  17.194   8.891  0.0891  0.0109 -0.1608
71554W        W14492   4.371  16.559   8.161  0.0138 -0.3549  0.0680
71555W        W14493   5.425  11.706   9.362  0.1594 -0.0720 -0.0890
71556W        W14494   5.283  15.849   8.233 -0.0329  0.1000 -0.2513
71557W        W14495   6.683  15.973   8.089  0.2006 -0.0406  0.2396
71558W        W14496   4.087  16.623   8.965  0.2107  0.2885 -0.2501
71559W        W14497   7.195  15.578   9.105  0.1039 -0.3040 -0.3265
71560W        W14498   5.686  17.635   8.744 -0.1210 -0.0792 -0.1941
71561W        W14499   6.302  17.211   7.706 -0.0815 -0.0246  0.1860
71562W        W14500   5.322  13.452   7.404  0.2568  0.0919 -0.0818
71563W        W14501   5.492  16.854   5.792  0.2462  0.1616 -0.0457
71564W        W14502   3.347  17.710   8.942  0.3228 -0.3301 -0.1471
71565W        W14503   3.607  17.820   7.227 -0.1119  0.4078 -0.1297
71566W        W14504   5.635  16.468   7.360 -0.3376  0.3949  0.2730
71567W        W14505   5.684  16.972   8.097 -0.2366 -0.0263  0.2000
71568W        W14506   6.221  16.852   9.271 -0.2977  0.0027  0.1494
71569W        W14507   5.389  15.416   8.450  0.1516  0.0344 -0.2637
71570W        W14508   5.820  18.167   7.394 -0.4410  0.2535  0.2711
71571W        W14509   5.145  16.536   7.536  0.1788  0.1703  0.0150
71572W        W14510   7.384  17.913   7.611  0.0039 -0.0353 -0.1954
71573W        W14511   4.459  18.442   7.375  0.1291 -0.0269 -0.2231
71574W        W14512   6.601  13.812   6.517 -0.0034 -0.2454 -0.0029
71575W        W14513   6.023  16.472   7.827 -0.0469 -0.2641  0.0799
71576W        W14514   7.176  15.821   7.286 -0.1110 -0.0891 -0.0595
71577W        W14515   5.105  14.798   7.584 -0.0726  0.1506  0.3599
71578W        W14516   6.838  18.645   7.832  0.0226  0.2265  0.2581
71579W        W14517   3.113  15.218   8.200 -0.2151  0.0320  0.2224
71580W        W14518   5.551  15.289   9.494 -0.0242 -0.0470 -0.2211
71581W        W14519   6.811  14.228   9.749 -0.0626  0.1056 -0.0172
71582W        W14520   4.618  16.479   7.730  0.2491 -0.1663  0.0273
71583W        W14521   5.553  15.569   8.986 -0.1152  0.0360  0.2030
71584W        W14522   5.479  18.621   6.687 -0.2996  0.2484 -0.4508
71585W        W14523   4.959  18.517   7.454 -0.1855 -0.2229 -0.0459
71586W        W14524   4.866  18.080   9.291 -0.1069 -0.0415 -0.2448
71587W        W14525   4.852  15.574   8.266  0.0652 -0.1598 -0.1944
71588W        W14526   7.792  15.061   8.224 -0.1042 -0.1581  0.2201
71589W        W14527   4.914  17.515   9.404  0.2018 -0.0809  0.0840
71590W        W14528   3.289  16.560   8.098 -0.0892  0.1936  0.0104
71591W        W14529   8.577  15.197   8.571  0.1924 -0.2147 -0.1700
71592W        W14530   4.490  17.312   9.188  0.6640  0.1554 -0.1420
71593W        W14531   2.601  18.210  10.078  0.0372 -0.4133  0.0622
71594W        W14532   4.688  15.974   8.014  0.0969 -0.2393  0.2466
71595W        W14533   5.983  15.452   7.639 -0.1280  0.1936 -0.1464
71596W        W14534   3.765  14.855   7.989 -0.0291 -0.0567  0.0635
71597W        W14535   7.152  13.738   7.446  0.0847 -0.2312  0.2239
71598W        W14536   3.427  15.861   7.546  0.3879 -0.0695  0.2425
71599W        W14537   4.052  17.385   8.203 -0.1847  0.0093  0.0098
71600W        W14538   3.881  15.768   7.920  0.2019  0.2643  0.1003
71601W        W14539   8.342  16.725   7.366 -0.0858 -0.6263 -0.0946
71602W        W14540   6.929  16.290   8.469  0.0704  0.2255 -0.1428
71603W        W14541   5.299  17.022   7.682  0.1330  0.1318  0.0794
71604W        W14542   5.941  16.023   7.479 -0.1247 -0.0685 -0.0377
71605W        W14543   6.052  19.599   9.225 -0.1207  0.0210 -0.0552
71606W        W14544   2.797  14.483   9.465 -0.0983  0.4166  0.2114
71607W        W14545   4.569  16.890   8.944 -0.0136 -0.0943  0.0817
71608W        W14546   6.595  18.408   9.139  0.0024  0.1129  0.1379
71609W        W14547   5.017  15.505   9.480  0.0244  0.2521  0.0067
71610W        W14548   3.747  16.097   8.267  0.2635 -0.0757 -0.1617
71611W        W14549   3.550  18.441   7.490 -0.1332  0.2441 -0.2169
71612W        W14550   6.867  16.996   8.830 -0.1774  0.3998  0.0266
71613W        W14551   5.494  17.123   6.712 -0.0884  0.3570  0.2635
71614W        W14552   3.896  17.137   9.349 -0.1638 -0.1496 -0.1364
71615W        W14553   4.075  16.314   6.942  0.1173 -0.0229 -0.1364
71616W        W14554   4.730  16.884   8.451  0.0686  0.0373  0.0493
71617W        W14555   6.150  20.390   9.279 -0.1571  0.1013 -0.2602
71618W        W14556   7.839  16.814   7.507  0.2143 -0.2402 -0.0233
71619W        W14557   5.832  15.268   8.694 -0.0373 -0.3644 -0.0875
71620W        W14558   7.829  17.241   8.794  0.0122 -0.0805  0.0865
71621W        W14559   4.921  14.921   8.529 -0.1560  0.0343 -0.2370
71622W        W14560   8.447  15.362   7.671  0.2631  0.0129 -0.0660
71623W        W14561   7.118  13.353   8.104 -0.0084 -0.3898 -0.0267
71624W        W14562   3.930  17.932   9.494  0.0731  0.3457 -0.0381
71625W        W14563   2.204  15.151   5.902  0.1382  0.1583 -0.1762
71626W        W14564   3.932  16.414   7.886 -0.1600 -0.0717  0.0726
71627W        W14565   4.460  17.304   8.503  0.1128 -0.0404 -0.0685
71628W        W14566   2.462  17.420   8.897 -0.1155 -0.4059  0.0198
71629W        W14567   4.608  15.532   8.678 -0.2133  0.0952  0.1012
71630W        W14568   7.240  17.156   7.778 -0.2515  0.0642  0.0445
71631W        W14569   4.193  12.962   9.391  0.0723 -0.1250  0.2408
71632W        W14570   2.843  14.803   8.116  0.0245 -0.0500  0.2337
71633W        W14571   6.920  16.727   7.692 -0.3503 -0.2514  0.3482
71634W        W14572   6.997  18.098   7.847  0.0876 -0.0100  0.0779
71635W        W14573   6.322  14.346   8.281 -0.0231 -0.0831 -0.0529
71636W        W14574   3.284  15.628   6.767 -0.0355  0.0777  0.1187
71637W        W14575   3.146  14.993   7.301 -0.0193  0.1574 -0.3516
71638W        W14576   5.063  15.491   8.895 -0.1995 -0.0596 -0.3261
71639W        W14577   6.692  17.116   8.028  0.1476 -0.0319  0.1097
71640W        W14578   6.713  17.785   6.334  0.0102 -0.0768  0.0174
71641W        W14579   2.354  14.614   7.938 -0.1393 -0.1739  0.2811
71642W        W14580   6.425  16.753   7.681 -0.1935  0.0388  0.0669
71643W        W14581   7.427  17.564   7.950 -0.1119 -0.2058  0.1178
71644W        W14582   7.980  17.007   9.665 -0.0175  0.2259 -0.1779
71645W        W14583   5.881  16.550   8.344 -0.0223  0.4295  0.0248
71646W        W14584   7.638  17.286   9.873  0.3879 -0.2422  0.1755
71647W        W14585   5.964  15.102   9.772  0.1413  0.1963  0.0712
71648W        W14586   7.180  15.278   7.557 -0.1099  0.0823 -0.4405
71649W        W14587   5.815  17.119   9.038  0.1338  0.0061  0.3930
71650W        W14588   3.691  15.852   8.750 -0.1443  0.0522  0.0906
71651W        W14589   5.931  15.190   9.168  0.0445  0.0676  0.0675
71652W        W14590   4.919  16.732   8.050  0.0668 -0.0045  0.0263
71653W        W14591   5.108  16.247   7.963  0.0447 -0.0388 -0.1580
71654W        W14592   8.668  16.526   7.021 -0.1305  0.1039  0.0994
71655W        W14593   6.081  19.517   9.798  0.0943 -0.0193  0.0078
71656W        W14594   3.431  17.215   9.026  0.3095 -0.0883 -0.3265
71657W        W14595   8.031  16.648   8.676 -0.0034 -0.1124 -0.0585
71658W        W14596   5.924  13.416   9.694  0.1836  0.0353  0.3200
71659W        W14597   3.565  16.762   9.144 -0.3035  0.0817  0.0179
71660W        W14598   5.682  16.077   9.035  0.0281  0.1629  0.1280
71661W        W14599   6.623  13.958   9.245  0.2062 -0.0365  0.3023
71662W        W14600   3.144  14.070   8.383 -0.2251 -0.1085 -0.0649
71663W        W14601   6.986  15.184   8.599 -0.2626 -0.2747  0.2199
71664W        W14602   4.882  18.721   9.414  0.0197  0.3943 -0.0944
71665W        W14603   6.429  18.876   9.886  0.0889  0.0879  0.0141
71666W        W14604   3.931  20.803   2.454 -0.0439 -0.2765  0.0002
71667W        W14605   4.855  18.041   0.870 -0.0816 -0.2942  0.0534
71668W        W14606   5.844  18.198  31.473 -0.1864  0.1385  0.0466
71669W        W14607   7.766  21.017   0.342  0.0321  0.3353  0.2131
71670W        W14608   4.926  16.673   0.542 -0.0987 -0.1483 -0.1203
71671W        W14609   5.962  21.658   0.007 -0.0982  0.4190  0.3160
71672W        W14610   4.125  18.702   3.154  0.1809 -0.1616  0.1237
71673W        W14611   5.959  20.360   2.346  0.3859  0.0414  0.2092
71674W        W14612   7.935  21.651   1.201  0.0575 -0.1289 -0.0127
71675W        W14613   6.583  21.256   0.320  0.4506 -0.0601  0.1159
71676W        W14614   5.331  18.578   2.517 -0.2644 -0.3196  0.1228
71677W        W14615   5.572  21.122   3.037 -0.2489  0.3010 -0.0379
71678W        W14616   5.301  18.140  30.539 -0.3530 -0.0222  0.1080
71679W        W14617   5.275  16.993   1.503  0.0870  0.1789  0.4612
71680W        W14618   7.568  19.975   1.468 -0.0873 -0.1571 -0.1301
71681W        W14619   4.688  20.390   0.969 -0.0045  0.2722  0.1669
71682W        W14620   3.599  20.372   2.082  0.1272 -0.0468  0.0605
71683W        W14621   5.071  18.277   0.091  0.1244  0.0328 -0.1632
71684W        W14622   6.044  22.081   1.046 -0.0869  0.0633  0.1417
71685W        W14623   5.311  16.924   2.008  0.0199  0.0513  0.1115
71686W        W14624   5.620  19.516   2.562 -0.4632  0.1920 -0.3179
71687W        W14625   5.388  20.951   1.273  0.0764 -0.1256 -0.1086
71688W        W14626   4.763  20.234   0.477  0.0187 -0.1234 -0.0178
71689W        W14627   3.499  21.039   2.087  0.1150  0.1360 -0.2242
71690W        W14628   4.663  18.595   3.011 -0.1596  0.0005 -0.0720
71691W        W14629   6.634  18.860   1.361  0.5224  0.0830 -0.3290
71692W        W14630   4.787  20.798   2.626  0.1465  0.0656 -0.0093
71693W        W14631   5.212  21.535   3.251 -0.2932  0.1268  0.0480
71694W        W14632   7.432  20.824   2.200 -0.0950 -0.0037  0.3887
71695W        W14633   7.108  20.115   3.220 -0.2106  0.3166 -0.1034
71696W        W14634   2.962  20.864   1.683 -0.4794 -0.2665  0.1979
71697W        W14635   4.009  22.519   1.859 -0.1806  0.0409 -0.0503
71698W        W14636   5.426  21.831   0.854  0.1739 -0.1965 -0.0128
71699W        W14637   6.436  21.147   0.895  0.0623 -0.0453 -0.1509
71700W        W14638   7.172  21.216   3.323  0.0344  0.1742 -0.1001
71701W        W14639   5.201  21.748   3.758 -0.0129  0.0347 -0.3683
71702W        W14640   2.112  22.395   0.764  0.3465 -0.0333  0.3353
71703W        W14641   5.644  21.756   3.001 -0.1092 -0.0462  0.0479
71704W        W14642   3.122  20.379   1.726 -0.1595 -0.2357 -0.0610
71705W        W14643   5.760  18.885   2.503  0.0725  0.1033  0.0416
71706W        W14644   4.332  20.498   2.057 -0.1579  0.0332 -0.1982
71707W        W14645   4.682  19.728   0.274 -0.1455 -0.1989  0.1487
71708W        W14646   4.388  20.516   2.602  0.4309  0.1292  0.3734
71709W        W14647   3.954  21.412   3.955  0.0103 -0.2268  0.0136
71710W        W14648   3.248  22.329   1.561  0.0758  0.3940 -0.1289
71711W        W14649   7.138  16.974   2.656  0.1463  0.0351 -0.0986
71712W        W14650   4.514  22.905  31.093  0.3126 -0.0439 -0.1081
71713W        W14651   5.974  19.151   0.752  0.1346  0.1632 -0.0876
71714W        W14652   7.067  20.018   1.376  0.0897 -0.1826 -0.1719
71715W        W14653   7.205  18.548   0.230 -0.0594 -0.3148 -0.4676
71716W        W14654   6.079  17.398   1.542  0.0872 -0.1592 -0.4238
71717W        W14655   4.525  21.703   1.493  0.1363  0.2898  0.0424
71718W        W14656   6.560  18.985   2.516 -0.1378  0.1750  0.1169
71719W        W14657   7.571  21.861   1.490  0.0483  0.1168 -0.1516
71720W        W14658   5.196  19.991   1.763 -0.0017 -0.2535 -0.3551
71721W        W14659   5.914  19.612   0.761  0.1669 -0.1556  0.1801
71722W        W14660   3.420  22.645   1.997  0.0707 -0.0532 -0.0294
71723W        W14661   4.304  19.833   1.685 -0.1005  0.1079 -0.0276
71724W        W14662   5.701  22.396   0.865 -0.1826  0.0542  0.1094
71725W        W14663   8.045  23.304   1.756 -0.3397 -0.0421  0.1271
71726W        W14664   7.812  22.255   0.220 -0.0365  0.0436 -0.0426
71727W        W14665   5.294  20.114   1.087  0.1197  0.2078  0.0718
71728W        W14666   3.343  21.173   1.250  0.0014  0.1186 -0.0182
71729W        W14667   3.966  19.947   3.207  0.1976 -0.0864  0.1459
71730W        W14668   5.186  16.881   0.111  0.0954 -0.1680 -0.1322
71731W        W14669   6.644  21.649   4.019 -0.0023 -0.1650  0.0344
71732W        W14670   3.273  20.928   3.068 -0.0683 -0.0393  0.2065
71733W        W14671   8.540  18.736   0.612  0.0693 -0.1463  0.2750
71734W        W14672   4.903  19.332   2.256  0.1893  0.0161  0.1520
71735W        W14673   7.339  21.185   1.790 -0.3548  0.1205  0.1807
71736W        W14674   7.547  20.453   0.391 -0.1321 -0.1665 -0.0447
71737W        W14675   6.854  19.232   1.592  0.2728 -0.0638 -0.0581
71738W        W14676   5.876  18.354   1.323  0.2324  0.0113  0.0986
71739W        W14677   5.602  20.441   0.493  0.2307 -0.1425  0.0583
71740W        W14678   5.324  19.431  31.630 -0.0264  0.0739  0.1007
71741W        W14679   6.542  21.799   3.072  0.1772  0.1845 -0.2682
71742W        W14680   6.479  20.319   0.236  0.0707  0.0710  0.0962
71743W        W14681   4.598  21.828   2.062  0.3537  0.1402 -0.2280
71744W        W14682   5.791  19.538   3.118  0.2037  0.3689 -0.0321
71745W        W14683   4.791  21.231   3.419 -0.2155 -0.1022  0.2788
71746W        W14684   4.878  22.196  31.377  0.1890  0.0771 -0.5305
71747W        W14685   2.358  19.068   2.193 -0.1433 -0.4038 -0.1686
71748W        W14686   3.893  21.786   0.450 -0.0765 -0.2061 -0.0118
71749W        W14687   3.194  19.046   1.924 -0.1693 -0.1515 -0.0981
71750W        W14688   4.863  21.045   1.290 -0.1298 -0.4234  0.0594
71751W        W14689   8.187  18.712   0.309 -0.1781  0.3060 -0.1317
71752W        W14690   4.751  17.411   2.958 -0.1775 -0.0795 -0.1300
71753W        W14691   6.942  17.490   1.877  0.0265 -0.1909  0.0667
71754W        W14692   3.880  20.002   1.242 -0.2195 -0.0711  0.0301
71755W        W14693   7.026  21.893  31.254  0.0695 -0.1800 -0.1288
71756W        W14694   5.659  20.143   1.398 -0.3077 -0.3370  0.3941
71757W        W14695   7.114  20.246  30.733 -0.1094  0.0449 -0.1945
71758W        W14696   3.591  20.301   1.580 -0.3304  0.0811  0.0636
71759W        W14697   4.495  19.647   1.220 -0.0891 -0.3750  0.0658
71760W        W14698   5.887  16.185   2.410 -0.4820 -0.1047 -0.2070
71761W        W14699   4.475  18.647   2.067 -0.5481 -0.1188  0.1014
71762W        W14700   8.016  18.310   1.368 -0.3323 -0.2081  0.0926
71763W        W14701   3.528  18.756  31.454 -0.4855  0.1737  0.2030
71764W        W14702   6.947  19.684   1.740 -0.2138 -0.2144  0.1480
71765W        W14703   4.597  19.217   1.630  0.0902  0.0821  0.1859
71766W        W14704   2.910  22.123   2.520 -0.0187 -0.1364  0.0344
71767W        W14705   7.344  18.566   2.704  0.4045  0.2255 -0.0383
71768W        W14706   5.226  21.492  31.820 -0.1864 -0.0934 -0.0943
71769W        W14707   7.412  22.353   1.385 -0.1249 -0.1194 -0.2318
71770W        W14708   7.623  20.945   1.432 -0.1369  0.2662 -0.4948
71771W        W14709   4.547  19.874   3.298  0.0073 -0.0252  0.1438
71772W        W14710   3.006  19.682  31.254  0.1603  0.0057  0.2354
71773W        W14711   3.621  21.581   0.015  0.1246 -0.1007  0.0943
71774W        W14712   6.349  21.073   2.011  0.0264  0.0810  0.2125
71775W        W14713   4.790  17.108   1.515 -0.1788 -0.2469  0.0452
71776W        W14714   6.383  21.821   2.142  0.0666 -0.3398  0.2002
71777W        W14715   5.708  20.187   1.916  0.0106  0.2439 -0.0487
71778W        W14716   4.581  20.449   3.610  0.4030 -0.0887 -0.1598
71779W        W14717   5.915  18.490   2.741 -0.3498 -0.3863 -0.2236
71780W        W14718   5.378  19.815   3.099 -0.1622 -0.0949  0.1023
71781W        W14719   5.467  19.655   1.489 -0.0646  0.1864 -0.2552
71782W        W14720   3.473  18.811   1.576  0.1005 -0.0228 -0.1003
71783W        W14721   5.712  20.656   1.476  0.1129  0.1386 -0.1639
71784W        W14722   3.907  21.270   0.450 -0.1267  0.0814  0.1008
71785W        W14723   4.479  20.645   0.473 -0.1321  0.0926 -0.1106
71786W        W14724   5.617  20.450   2.700 -0.2862 -0.1171  0.1718
71787W        W14725   7.865  18.902   2.176  0.1881 -0.0774 -0.2838
71788W        W14726   3.090  19.833   3.958  0.0351  0.2759 -0.0780
71789W        W14727   5.891  18.920   3.431 -0.1969  0.2979 -0.0797
71790W        W14728   3.721  18.729   0.035  0.0866  0.1757  0.0957
71791W        W14729   4.397  22.032   3.157 -0.0494  0.1167 -0.0912
71792W        W14730   6.983  18.515   1.352 -0.1350 -0.0451 -0.3750
71793W        W14731   7.698  18.253   2.033  0.0331 -0.1437 -0.2576
71794W        W14732   6.462  18.518   3.742 -0.1015 -0.3527  0.0375
71795W        W14733   7.408  21.646   0.465  0.2371  0.0116  0.0368
71796W        W14734   5.893  19.797   2.267 -0.0309 -0.3155 -0.2461
71797W        W14735   8.150  18.709  30.767  0.2051  0.2655 -0.1118
71798W        W14736   3.627  20.109   4.097 -0.0907 -0.0642 -0.2477
71799W        W14737   4.544  20.996   2.227  0.1036 -0.3110 -0.3253
71800W        W14738   6.094  20.383   2.843  0.1452  0.1826 -0.1198
71801W        W14739   4.446  17.693   0.069 -0.2169 -0.4145  0.2807
71802W        W14740   7.946  22.779   0.026 -0.0775  0.1579 -0.1673
71803W        W14741   4.056  21.739   1.553  0.1389  0.0687 -0.0852
71804W        W14742   4.604  21.244   2.876  0.1360 -0.1282 -0.1628
71805W        W14743   6.531  22.746   1.597  0.0556  0.0302 -0.2935
71806W        W14744   4.780  18.521   2.546  0.0300  0.1812 -0.0938
71807W        W14745   5.030  16.797  31.340  0.1033 -0.1961  0.1394
71808W        W14746   6.370  19.289   0.009 -0.4714 -0.1501 -0.0062
71809W        W14747   3.862  22.463   0.321  0.1930 -0.2866 -0.0372
71810W        W14748   4.666  20.137   2.366 -0.1763 -0.0553 -0.2409
71811W        W14749   6.294  19.355   1.262 -0.3265 -0.1354  0.0048
71812W        W14750   5.266  17.707   0.848  0.2188  0.0933 -0.1684
71813W        W14751   8.347  19.931   2.763 -0.0328 -0.1209  0.1518
71814W        W14752   6.923  18.996   0.885 -0.0280 -0.0718 -0.0024
71815W        W14753   7.138  20.622   3.131 -0.0042  0.1256  0.0107
71816W        W14754   4.431  19.041   0.060  0.1280 -0.0757  0.0332
71817W        W14755   6.537  18.295   2.295  0.1565  0.0079 -0.0576
71818W        W14756   3.600  21.697   1.868  0.0795  0.0960 -0.1907
71819W        W14757   4.141  22.928   3.183 -0.0607  0.1330  0.0275
71820W        W14758   7.009  20.445   2.142  0.0739  0.0629  0.1418
71821W        W14759   5.930  19.684   1.757 -0.3236  0.2584 -0.1298
71822W        W14760   5.115  18.275   3.520 -0.1820  0.3736  0.0998
71823W        W14761   6.515  18.931   1.944 -0.1696 -0.0283  0.2439
71824W        W14762   4.697  20.584  31.482 -0.1107  0.1368 -0.1984
71825W        W14763   5.039  21.322  30.870 -0.0062 -0.0258 -0.0129
71826W        W14764   5.500  17.934   3.061  0.0811 -0.0332  0.0781
71827W        W14765   5.959  20.925   2.312  0.0621  0.1540 -0.1410
71828W        W14766   4.319  20.087   1.145 -0.1378  0.0320  0.2212
71829W        W14767   6.757  20.281   3.570 -0.1665 -0.1512  0.1693
71830W        W14768   4.057  22.254   0.711  0.1766  0.2020  0.0993
71831W        W14769   6.891  18.720   2.218 -0.0233  0.2718 -0.3895
71832W        W14770   2.826  23.668   1.726  0.0237 -0.2821  0.1052
71833W        W14771   5.376  17.692  30.347  0.3726 -0.0200  0.0063
71834W        W14772   4.102  20.350   0.786  0.0896 -0.1091 -0.0434
71835W        W14773   6.474  17.881   0.747  0.0405  0.3529  0.2534
71836W        W14774   7.497  21.829   0.947  0.0379  0.1006  0.0928
71837W        W14775   3.917  19.155  31.744  0.2147  0.1116 -0.0299
71838W        W14776   5.940  18.887   1.995 -0.0137  0.0617 -0.2731
71839W        W14777   3.158  23.303   1.932 -0.1117 -0.0363  0.1887
71840W        W14778   5.712  19.531   4.158 -0.2135 -0.2521 -0.2434
71841W        W14779   8.673  19.546   0.782 -0.0258 -0.2079 -0.1054
71842W        W14780   6.817  21.470   3.580 -0.1281 -0.2383 -0.0012
71843W        W14781   4.534  19.613   2.519 -0.2988 -0.4785  0.3649
71844W        W14782   3.049  19.547   1.237  0.1142  0.1394  0.1509
71845W        W14783   7.301  20.120   2.438  0.1199 -0.1975 -0.0418
71846W        W14784   4.044  19.523   1.970 -0.0869  0.4968 -0.0145
71847W        W14785   4.222  21.412   2.068 -0.1534  0.2021 -0.0419
71848W        W14786   7.162  20.713   1.667 -0.1040  0.0656 -0.0146
71849W        W14787   4.710  19.869   0.833 -0.0308 -0.2496 -0.2432
71850W        W14788   5.359  21.156   0.386 -0.1792 -0.1079  0.1322
71851W        W14789   4.350  19.066   2.915 -0.0816 -0.0414  0.2758
71852W        W14790   7.897  19.668   3.030 -0.1395  0.1294 -0.4252
71853W        W14791   5.199  18.682   1.651  0.3002 -0.1905  0.0048
71854W        W14792   5.739  18.542   1.753  0.5460 -0.1787 -0.1867
71855W        W14793   4.694  19.720   2.045  0.1021  0.0546 -0.0154
71856W        W14794   5.324  20.887   2.587  0.0638 -0.0111  0.0156
71857W        W14795   5.267  19.084   2.458 -0.0247 -0.0544 -0.3004
71858W        W14796   4.929  20.364   5.189  0.0666  0.2670  0.0191
71859W        W14797   6.005  17.046   2.776  0.2069 -0.3797 -0.0431
71860W        W14798   7.833  22.736   1.043 -0.5680  0.1628  0.0630
71861W        W14799   5.486  19.199   2.942  0.1406  0.0830  0.2253
71862W        W14800   3.921  20.764  31.502 -0.0537 -0.1900 -0.0293
71863W        W14801   3.098  21.354   0.735  0.7113 -0.1258 -0.1655
71864W        W14802   5.131  19.600   0.045 -0.2416 -0.0624  0.3602
71865W        W14803   5.078  18.170   2.472  0.0940 -0.1198  0.1143
71866W        W14804   4.394  21.032   1.694  0.0571  0.0524 -0.4158
71867W        W14805   3.885  21.725  31.599 -0.1063 -0.0352 -0.1080
71868W        W14806   5.543  21.225   2.233 -0.0121 -0.0954 -0.1287
71869W        W14807   8.783  17.905  31.951 -0.0719 -0.0308  0.0059
71870W        W14808   5.851  21.090   1.653 -0.1844 -0.0482 -0.1105
71871W        W14809   4.632  20.157   1.858  0.4562  0.3619 -0.1471
71872W        W14810   9.053  20.246   3.771  0.0104 -0.0103 -0.1107
71873W        W14811   5.977  20.644   1.927  0.2320  0.0382 -0.1644
71874W        W14812   6.521  17.114   2.698  0.0301  0.1020  0.1078
71875W        W14813   5.257  17.224   2.820 -0.3334  0.0117 -0.2272
71876W        W14814   6.701  22.024   0.896 -0.2665  0.0061  0.0192
71877W        W14815   5.820  17.594   2.461  0.0829 -0.3518 -0.1323
71878W        W14816   7.056  22.715   5.172  0.2439  0.0408 -0.1106
71879W        W14817   3.169  20.103   2.177 -0.3878 -0.0441 -0.1891
71880W        W14818   5.712  18.568   0.791 -0.1711 -0.2084 -0.3113
71881W        W14819   4.717  17.244   0.177 -0.0555  0.3159  0.2206
71882W        W14820   4.914  19.627   3.516  0.0750  0.3680 -0.0353
71883W        W14821   6.676  21.483   1.210  0.1661 -0.4209  0.3974
71884W        W14822   5.567  20.228   0.051  0.0290  0.3229  0.1535
71885W        W14823   6.120  20.620   1.162 -0.1840  0.2455  0.0514
71886W        W14824   4.109  20.303   1.647 -0.1782 -0.2230  0.3043
71887W        W14825   3.619  20.035   0.782  0.1060  0.1202 -0.0057
71888W        W14826   6.548  20.245   1.306  0.1244  0.2816  0.1466
71889W        W14827   4.334  21.445   0.645  0.0810 -0.2929 -0.0353
71890W        W14828   4.781  17.725   2.345 -0.2887 -0.2321 -0.1980
71891W        W14829   6.486  19.516   1.962  0.0089 -0.3111  0.0417
71892W        W14830   5.965  16.906   0.934  0.1967  0.2982  0.0067
71893W        W14831   6.148  19.241   1.739  0.4153 -0.0113  0.1670
71894W        W14832   6.934  19.214   2.125 -0.3272 -0.1502 -0.3503
71895W        W14833   5.783  20.010   2.783  0.1525  0.0479 -0.1874
71896W        W14834   4.500  18.876   4.962 -0.1315 -0.1713  0.2612
71897W        W14835   7.074  21.923   1.257 -0.0970 -0.1854  0.3321
71898W        W14836   5.966  18.375   0.202 -0.2791 -0.0784 -0.2123
71899W        W14837   8.914  18.578   1.350 -0.0205 -0.2303 -0.0365
71900W        W14838   7.213  19.575   0.907 -0.3306 -0.3150 -0.1506
71901W        W14839   5.682  19.091   1.555 -0.1655  0.0674  0.0087
71902W        W14840   3.548  20.776   1.550  0.0817  0.0126  0.1524
71903W        W14841   7.381  19.114   3.683 -0.2023 -0.1965  0.0703
71904W        W14842   5.969  18.707  31.736 -0.0824  0.2017  0.0777
71905W        W14843   5.942  17.973   3.565  0.0548 -0.1301 -0.3072
71906W        W14844   5.974  23.537   1.003  0.1072 -0.0221 -0.1501
71907W        W14845   6.132  21.550   1.350 -0.1207  0.0497 -0.1331
71908W        W14846   7.616  18.012   1.553 -0.2488  0.0871  0.3317
71909W        W14847   4.501  17.808   1.623  0.2000  0.0615  0.1305
71910W        W14848   3.840  22.565   2.316 -0.0657 -0.0342 -0.2114
71911W        W14849   4.991  19.094  31.488  0.1214  0.4373 -0.0187
71912W        W14850   5.940  19.727   1.219  0.1216  0.0533 -0.4531
71913W        W14851   6.490  21.179   2.677 -0.3250  0.2091 -0.1461
71914W        W14852   7.436  19.870   2.890 -0.0560 -0.0703  0.0642
71915W        W14853   6.219  17.403  31.329 -0.3334  0.2489  0.2204
71916W        W14854   7.546  20.327   3.106 -0.0411  0.1828  0.2243
71917W        W14855   3.147  22.866   1.568  0.1671 -0.1246  0.1568
71918W        W14856   5.419  18.813   2.048  0.0042  0.2937 -0.3420
71919W        W14857   3.714  22.218   1.623  0.0560 -0.0869  0.0307
71920W        W14858   3.340  20.038   1.194  0.2249  0.2482 -0.3384
71921W        W14859   4.614  22.209   1.735  0.0084  0.1291  0.1294
71922W        W14860   5.036  19.113   3.719 -0.0067 -0.0014  0.1580
71923W        W14861   4.960  18.969   0.867  0.1841 -0.1385  0.0199
71924W        W14862   5.112  20.364   2.606  0.0515 -0.0468 -0.5117
71925W        W14863   7.432  20.553   2.646 -0.1763  0.0130  0.2558
71926W        W14864   4.168  21.293   2.579 -0.0844 -0.0243  0.1537
71927W        W14865   4.824  18.539   3.981  0.3095  0.2442 -0.1379
71928W        W14866   7.441  19.613   1.894 -0.1226  0.0164  0.0955
71929W        W14867   7.224  19.041   1.330  0.0077  0.1761 -0.4160
71930W        W14868   5.446  20.883   1.871  0.2954 -0.2901 -0.2801
71931W        W14869   4.094  18.109   3.363  0.2064 -0.1905 -0.1072
71932W        W14870   4.818  20.025   2.806  0.0539 -0.0330 -0.0947
71933W        W14871   4.950  18.745   2.135  0.0222 -0.0240 -0.2102
71934W        W14872   6.323  16.773   0.106  0.0502  0.2083 -0.0613
71935W        W14873   5.602  20.654  31.767 -0.3332 -0.1337 -0.0479
71936W        W14874   2.901  21.165   3.728 -0.0135 -0.1328  0.2640
71937W        W14875   4.672  21.676   0.310  0.3378  0.1081 -0.2975
71938W        W14876   4.662  21.523   1.068 -0.3263  0.0653 -0.4284
71939W        W14877   4.902  21.205   0.406  0.1045 -0.2721 -0.0042
71940W        W14878   5.509  20.103   2.384  0.2512  0.1053 -0.2175
71941W        W14879   6.931  20.956   2.172  0.1071 -0.0782 -0.3805
71942W        W14880   3.930  18.128   0.055 -0.2494  0.1998 -0.1348
71943W        W14881   5.038  20.583   1.300 -0.2945 -0.1906  0.0006
71944W        W14882   3.532  19.835  31.399  0.2901  0.0981 -0.0818
71945W        W14883   5.573  21.601   0.404  0.0661  0.0718 -0.2522
71946W        W14884   4.766  20.800   0.038 -0.1075  0.1159 -0.1463
71947W        W14885   6.538  21.252   3.194  0.1599  0.1957  0.0448
71948W        W14886   7.698  17.443   0.938 -0.0369  0.2036 -0.2784
71949W        W14887   6.288  20.127   2.010 -0.2970  0.1887  0.2177
71950W        W14888   7.982  19.998   1.131 -0.0471  0.0618 -0.0164
71951W        W14889   6.330  20.836   3.369 -0.0431  0.1604 -0.3937
71952W        W14890   5.516  18.715   3.002 -0.0607 -0.0157 -0.3174
71953W        W14891   6.442  18.979   0.942 -0.0767 -0.0200 -0.2345
71954W        W14892   4.626  19.012   2.516 -0.2315 -0.0699 -0.1413
71955W        W14893   6.332  19.498   3.277 -0.2254  0.1831 -0.1574
71956W        W14894   3.751  21.448   2.351  0.0543  0.0825 -0.1651
71957W        W14895   5.629  22.045   0.485 -0.0970  0.0725  0.1922
71958W        W14896   4.638  18.656   1.503  0.1676  0.2169  0.1422
71959W        W14897   4.826  20.624   3.149 -0.0469  0.0385 -0.3995
71960W        W14898   7.500  19.134   2.831 -0.3155  0.0039 -0.2247
71961W        W14899   6.080  19.419   0.348 -0.0492  0.1581 -0.1649
71962W        W14900   7.428  20.443   1.340  0.0695  0.3425  0.3602
71963W        W14901   5.444  20.573   2.231 -0.0377  0.2338 -0.1443
71964W        W14902   4.911  20.784   1.761  0.3438  0.2003  0.1225
71965W        W14903   6.575  21.900   1.451 -0.1062 -0.1456  0.0471
71966W        W14904   4.276  18.374  31.324  0.1742  0.1191  0.0295
71967W        W14905   7.459  20.060   0.981  0.2139  0.2817  0.1364
71968W        W14906   3.689  19.948   2.295 -0.2060 -0.0007 -0.3627
71969W        W14907   8.480  18.810   1.261  0.0866  0.3232 -0.2282
71970W        W14908   5.528  19.138   0.981 -0.0536 -0.0794  0.0658
71971W        W14909   6.378  19.769   1.509  0.1883 -0.2657 -0.3407
71972W        W14910   6.012  21.236   3.377  0.0788 -0.1189  0.0723
71973W        W14911   3.198  20.208   2.618 -0.1759  0.0155  0.0435
71974W        W14912   5.541  18.956  31.806 -0.1307 -0.2266  0.0962
71975W        W14913   8.136  19.832   2.324  0.1365 -0.1081 -0.0888
71976W        W14914   6.715  20.676   1.154 -0.1417 -0.0927  0.2328
71977W        W14915   5.810  22.233   2.730  0.2579 -0.1533  0.1604
71978W        W14916   4.288  19.406   0.471 -0.1970 -0.2538  0.0147
71979W        W14917   5.492  18.650   1.277 -0.1344  0.0912  0.0329
71980W        W14918   3.648  19.831   1.795 -0.0275 -0.1601  0.3193
71981W        W14919   5.081  19.869   2.391 -0.1293  0.0080 -0.0349
71982W        W14920   6.168  19.925   3.108 -0.0002  0.1172  0.0503
71983W        W14921   5.462  18.144   0.957  0.1861 -0.3007  0.0351
71984W        W14922   7.647  23.133   0.746  0.2875  0.0600  0.2815
71985W        W14923   6.149  19.244   2.306  0.0888 -0.2013 -0.0931
71986W        W14924   3.377  21.493  31.580  0.2386 -0.4280 -0.1902
71987W        W14925   7.844  19.180   1.294 -0.0144  0.2993 -0.0929
71988W        W14926   5.974  21.890   3.298 -0.0594  0.0558  0.2118
71989W        W14927   4.238  19.550   3.012  0.2953  0.1380  0.2134
71990W        W14928   6.139  21.496   2.963 -0.0837 -0.0457  0.0179
71991W        W14929   6.804  22.252   2.982  0.0769  0.0207  0.0852
71992W        W14930   5.094  17.947   0.442 -0.1168 -0.0505 -0.1826
71993W        W14931   4.382  17.886   0.955 -0.1686 -0.0748  0.0142
71994W        W14932   5.775  20.998   0.178 -0.1846  0.2111 -0.3636
71995W        W14933   8.468  20.060   0.892  0.3868 -0.1944  0.3695
71996W        W14934   8.118  18.059   3.015 -0.1542  0.1698  0.1234
71997W        W14935   3.997  21.672   1.010  0.4325  0.5982 -0.0321
71998W        W14936   6.468  17.655   2.387  0.0937 -0.4302  0.2217
71999W        W14937   6.189  21.386   2.396 -0.0843 -0.0823  0.2632
72000W        W14938   3.649  20.735   3.311  0.4489 -0.0162  0.0131
72001W        W14939   5.264  20.025   0.560  0.0166 -0.1470 -0.0822
72002W        W14940   4.304  21.490   3.235  0.1363 -0.0105 -0.1467
72003W        W14941   4.936  19.622   1.454  0.0914 -0.2694  0.0650
72004W        W14942   4.274  22.141   0.269  0.1127 -0.2729  0.2366
72005W        W14943   7.570  21.134   0.779 -0.0081 -0.3000 -0.0424
72006W        W14944   5.691  19.283   2.045  0.1711  0.2086  0.0635
72007W        W14945   7.282  21.472   1.342  0.2514 -0.2291  0.1870
72008W        W14946   6.126  17.749   0.343  0.1782 -0.2011  0.0657
72009W        W14947   7.666  18.810   0.445  0.1715  0.0984 -0.2624
72010W        W14948   7.377  17.998   0.724 -0.3172 -0.0980  0.1454
72011W        W14949   4.133  18.294   2.122 -0.0574  0.0042 -0.3826
72012W        W14950   3.770  17.976  31.426 -0.3143 -0.1535 -0.1703
72013W        W14951   5.672  19.767  31.818  0.0519  0.0731  0.0264
72014W        W14952   3.728  20.937   0.997  0.0825 -0.1417  0.3122
72015W        W14953   6.698  18.434   1.765 -0.1323  0.1495  0.2049
72016W        W14954   4.293  18.645   2.541 -0.1605 -0.0175  0.0198
72017W        W14955   5.159  19.058   1.341  0.1089  0.1437 -0.3114
72018W        W14956   4.588  18.256   1.238 -0.2029 -0.0288 -0.0995
72019W        W14957   6.976  22.843   0.135 -0.0673 -0.2550 -0.1088
72020W        W14958   5.662  18.099   2.619  0.1611  0.1147 -0.0093
72021W        W14959   1.127  19.906   2.143 -0.3278  0.0844 -0.1682
72022W        W14960   6.334  20.998   1.458 -0.1027 -0.1226 -0.3150
72023W        W14961   6.869  21.134   1.693  0.1054  0.1554 -0.4065
72024W        W14962   5.219  19.177   1.834 -0.0416 -0.0562 -0.2746
72025W        W14963   8.080  23.052   3.336  0.2226  0.0298 -0.0772
72026W        W14964   3.485  19.504  30.968  0.2772 -0.0631 -0.0647
72027W        W14965   7.824  20.115   2.696 -0.3202 -0.0423 -0.2512
72028W        W14966   5.963  18.407   3.833  0.2918  0.0845 -0.0209
72029W        W14967   1.382  18.794   0.129  0.0498 -0.2768  0.1161
72030W        W14968   5.088  19.517   0.924  0.0001  0.0556 -0.1199
72031W        W14969   5.971  21.166   1.093 -0.2958  0.2872 -0.0485
72032W        W14970   7.451  24.139   0.631 -0.0176  0.2892  0.1030
72033W        W14971   5.437  21.099   3.566 -0.1023 -0.1689  0.2060
72034W        W14972   4.632  22.039   2.573  0.2206  0.3142 -0.1064
72035W        W14973   4.691  18.175   2.122  0.3317  0.1691  0.2006
72036W        W14974   6.077  20.290   1.536  0.2232  0.3477 -0.2613
72037W        W14975   4.139  22.426   3.311  0.0232 -0.0824 -0.2332
72038W        W14976   7.209  22.708   0.564  0.1306 -0.1110 -0.0171
72039W        W14977   8.609  17.903   1.547  0.2597 -0.1932 -0.0166
72040W        W14978   6.516  20.454   0.687 -0.3389  0.1029 -0.1199
72041W        W14979   4.289  18.300   2.943 -0.3000 -0.0189 -0.3196
72042W        W14980   4.533  20.345   4.860  0.1932  0.1997  0.2259
72043W        W14981   6.324  20.010   2.567 -0.0034 -0.0196  0.0665
72044W        W14982   5.023  18.536   1.127 -0.0045  0.0688  0.1047
72045W        W14983   6.909  18.162   0.611 -0.1381 -0.3562 -0.3362
72046W        W14984   5.566  20.517   1.021  0.2448 -0.0495  0.0989
72047W        W14985   4.447  19.220   2.113  0.0740 -0.0627 -0.1358
72048W        W14986   5.986  18.169   0.769  0.1615  0.0283  0.1371
72049W        W14987   5.704  19.018   4.255 -0.2153 -0.1313  0.0956
72050W        W14988   6.698  20.011   2.264  0.2262  0.2470  0.0154
72051W        W14989   6.826  19.722   3.221 -0.1093  0.2457 -0.0955
72052W        W14990   3.052  21.620  31.955  0.1587  0.1741  0.0580
72053W        W14991   6.423  21.632   0.817 -0.0051 -0.4095  0.2571
72054W        W14992   6.701  21.387   2.218  0.2773  0.0703  0.1476
72055W        W14993   6.141  22.067   3.745  0.2074  0.1246  0.0279
72056W        W14994   6.316  22.345   1.449  0.1917  0.1588 -0.1976
72057W        W14995   7.639  21.286   2.250  0.0545  0.0478 -0.1680
72058W        W14996   3.626  17.723   1.370 -0.4614  0.3891 -0.1636
72059W        W14997   3.219  20.573   1.265  0.2996 -0.0001  0.1140
72060W        W14998   4.854  20.078   1.352  0.2678 -0.0519 -0.1824
72061W        W14999   7.063  18.792   1.729 -0.2702  0.2093 -0.4815
72062W        W15000   4.424  18.927   0.572 -0.0424 -0.2948 -0.1507
72063W        W15001   6.876  17.548   0.825  0.1670  0.0035 -0.0380
72064W        W15002   4.639  21.551   2.480  0.3219 -0.4198 -0.2737
72065W        W15003   7.830  19.998   1.918 -0.2058  0.0081 -0.1823
72066W        W15004   6.252  20.691   6.162  0.1196  0.0771  0.0292
72067W        W15005   4.534  19.383   4.779 -0.1219 -0.2295 -0.3664
72068W        W15006   6.438  19.293   4.291 -0.0164  0.0842  0.1114
72069W        W15007   6.487  19.895   3.537  0.1724 -0.0987 -0.0189
72070W        W15008   4.538  18.097   4.271  0.1820  0.1846  0.0112
72071W        W15009   6.688  20.715   4.269 -0.0131  0.1286  0.0192
72072W        W15010   5.371  17.733   6.359 -0.3243 -0.0135  0.2348
72073W        W15011   6.239  21.433   5.204 -0.1693 -0.2383  0.1329
72074W        W15012   7.819  21.331   4.834 -0.0740  0.2142 -0.0908
72075W        W15013   5.455  19.499   3.511 -0.1765  0.1043  0.2239
72076W        W15014   5.444  18.751   6.152  0.2348  0.0894 -0.3186
72077W        W15015   5.841  20.500   5.125 -0.0929 -0.0220  0.0254
72078W        W15016   5.390  16.291   5.269 -0.0559 -0.2706  0.1921
72079W        W15017   3.223  17.163   5.462 -0.1600  0.2288 -0.1399
72080W        W15018   5.448  19.110   5.768 -0.3573 -0.0004  0.3482
72081W        W15019   4.306  19.323   5.271 -0.2371  0.0003  0.1241
72082W        W15020   4.294  19.830   5.035  0.0264 -0.2392  0.2465
72083W        W15021   5.018  18.960   2.936  0.0158  0.2571 -0.2671
72084W        W15022   5.701  22.685   5.051 -0.2485 -0.0673 -0.1280
72085W        W15023   4.038  18.799   6.361  0.1531 -0.3318 -0.1799
72086W        W15024   6.186  17.982   7.045  0.0071 -0.3653 -0.3706
72087W        W15025   5.506  20.998   4.745 -0.0212 -0.0578  0.5372
72088W        W15026   3.814  19.565   3.575 -0.1855  0.0306 -0.1413
72089W        W15027   4.616  17.919   5.653  0.0295 -0.3811 -0.0234
72090W        W15028   4.209  20.402   5.337  0.0729 -0.1997  0.1239
72091W        W15029   7.209  18.383   5.100 -0.1900 -0.2521 -0.0489
72092W        W15030   7.337  19.686   4.054 -0.0226 -0.1969 -0.0906
72093W        W15031   4.897  22.121   5.859  0.1025 -0.3415  0.3213
72094W        W15032   5.944  20.381   3.729  0.1092 -0.3579 -0.3829
72095W        W15033   7.427  18.667   5.487  0.1010  0.4499  0.1824
72096W        W15034   3.778  20.569   5.115 -0.0525 -0.2641 -0.1715
72097W        W15035   4.978  23.667   6.384 -0.0441  0.0176  0.1392
72098W        W15036   4.853  20.645   4.658 -0.5023  0.4433  0.0574
72099W        W15037   7.216  19.110   4.709 -0.0408  0.2520 -0.1401
72100W        W15038   5.980  20.649   7.242  0.1645 -0.4107  0.1269
72101W        W15039   6.370  22.801   7.643  0.2436 -0.0506 -0.1144
72102W        W15040   4.343  21.235   4.391  0.0069 -0.0303  0.3749
72103W        W15041   5.910  21.546   7.135  0.1402 -0.0618  0.2096
72104W        W15042   5.429  22.217   7.648 -0.2092  0.2376  0.0309
72105W        W15043   6.950  18.799   5.025  0.0509  0.0476  0.4119
72106W        W15044   4.974  19.055   4.625 -0.1861 -0.4462  0.2818
72107W        W15045   5.595  21.902   5.590  0.2242  0.1219  0.1384
72108W        W15046   6.124  19.801   5.162  0.1285  0.0808 -0.1327
72109W        W15047   4.186  20.053   6.857  0.1000  0.0474 -0.1761
72110W        W15048   5.085  20.742   5.482 -0.0387  0.0356  0.0349
72111W        W15049   8.513  18.767   5.648 -0.1214 -0.2788  0.1341
72112W        W15050   3.762  22.152   4.724  0.0749 -0.0153 -0.2439
72113W        W15051   6.677  19.321   2.919 -0.3025  0.0417  0.0392
72114W        W15052   5.086  19.471   2.725  0.2044 -0.3342  0.0477
72115W        W15053   7.809  17.720   2.719  0.0365 -0.1227 -0.2053
72116W        W15054   6.452  17.978   3.660 -0.0728  0.3234 -0.0445
72117W        W15055   5.941  21.103   6.409  0.3042 -0.0071  0.0139
72118W        W15056   5.358  18.608   5.613  0.0095 -0.1123  0.1884
72119W        W15057   7.749  20.825   7.559 -0.3578  0.1556 -0.0197
72120W        W15058   4.527  19.005   3.366  0.0429  0.0960 -0.0281
72121W        W15059   5.711  19.498   5.274  0.1414 -0.0655 -0.1593
72122W        W15060   6.096  21.470   6.113 -0.0121 -0.0423  0.2617
72123W        W15061   3.823  19.299   5.461  0.1680  0.1600  0.3121
72124W        W15062   7.026  21.164   3.910  0.0894  0.1165 -0.2718
72125W        W15063   8.209  20.413   4.115 -0.0367  0.1279 -0.2473
72126W        W15064   6.491  21.176   3.823  0.1262 -0.0199 -0.1684
72127W        W15065   4.090  19.570   4.536  0.0001 -0.1678  0.1370
72128W        W15066   5.448  20.840   7.201 -0.0561 -0.0479  0.0561
72129W        W15067   4.922  21.500   7.112 -0.1139  0.0721  0.3407
72130W        W15068   5.632  18.365   3.342  0.0504 -0.2459 -0.0955
72131W        W15069   8.578  20.399   6.475  0.2688  0.0259 -0.1483
72132W        W15070   5.067  22.813   7.141  0.0878 -0.2495 -0.2208
72133W        W15071   8.010  18.423   3.371  0.1318  0.0454 -0.1773
72134W        W15072   4.135  20.296   5.816  0.2457 -0.1246 -0.4247
72135W        W15073   6.198  21.841   5.705 -0.0060 -0.1554 -0.2359
72136W        W15074   6.039  19.990   4.385 -0.0150 -0.1711  0.0918
72137W        W15075   7.255  18.035   4.621  0.0610 -0.0071 -0.2043
72138W        W15076   6.247  18.493   6.168  0.0511  0.3195  0.1327
72139W        W15077   5.012  20.830   3.596 -0.0207 -0.0328 -0.0044
72140W        W15078   5.489  19.905   4.477  0.1312 -0.0514 -0.1027
72141W        W15079   7.697  20.343   6.879 -0.0400 -0.0522 -0.1840
72142W        W15080   7.392  19.101   4.148  0.1551 -0.1392  0.3364
72143W        W15081   6.172  22.004   7.006  0.2864 -0.0435 -0.1053
72144W        W15082   6.009  18.920   6.118  0.4212  0.2829 -0.1420
72145W        W15083   6.068  20.309   7.682  0.0157  0.1369 -0.1760
72146W        W15084   4.736  21.652   4.079 -0.3190 -0.1500 -0.0333
72147W        W15085   3.432  20.292   5.383  0.0308 -0.0819  0.3067
72148W        W15086   3.493  19.171   3.623 -0.1959  0.3299 -0.2228
72149W        W15087   5.913  18.744   5.576 -0.2529  0.0185 -0.2133
72150W        W15088   5.605  21.308   6.081 -0.0960  0.0724 -0.0993
72151W        W15089   6.783  20.188   4.045  0.0816 -0.2547  0.0894
72152W        W15090   4.422  18.570   6.802 -0.1167  0.2053 -0.1568
72153W        W15091   7.330  17.996   3.785 -0.0970  0.0390  0.0423
72154W        W15092   4.854  21.220   5.821  0.1654  0.0056  0.0961
72155W        W15093   7.743  21.430   5.464  0.2575  0.0861  0.0409
72156W        W15094   9.251  19.454   4.735  0.2797 -0.0412 -0.0598
72157W        W15095   6.007  21.468   3.817  0.2205  0.2793  0.2637
72158W        W15096   3.491  18.244   6.980 -0.0028 -0.3841  0.1628
72159W        W15097   4.710  17.663   4.651  0.3602  0.0710 -0.2670
72160W        W15098   6.594  18.388   5.123 -0.0538 -0.1293 -0.0372
72161W        W15099   3.883  18.831   5.440  0.0865  0.1487 -0.2035
72162W        W15100   6.772  18.387   5.670  0.1432 -0.1149  0.4444
72163W        W15101   4.646  18.650   4.512 -0.1035  0.3235 -0.0064
72164W        W15102   5.657  20.061   3.990 -0.1233 -0.0777  0.0821
72165W        W15103   5.277  20.330   5.808 -0.0092 -0.2794  0.0946
72166W        W15104   3.837  19.558   5.000  0.0231 -0.0595 -0.0455
72167W        W15105   7.240  18.750   5.978 -0.4869  0.1715  0.0784
72168W        W15106   6.698  22.773   4.847 -0.2009  0.0259  0.1371
72169W        W15107   6.791  20.682   6.237 -0.0138  0.0576 -0.0562
72170W        W15108   7.964  21.543   6.277  0.0840  0.0957 -0.3102
72171W        W15109   5.931  18.349   6.522  0.1112  0.1253  0.2704
72172W        W15110   4.907  18.719   3.488 -0.0697 -0.0744  0.3019
72173W        W15111   4.454  22.896   6.243  0.0795  0.0495 -0.1535
72174W        W15112   6.778  19.338   4.833 -0.2769 -0.2956  0.5105
72175W        W15113   6.113  17.670   4.958 -0.1134  0.0125 -0.0498
72176W        W15114   5.074  19.743   7.532  0.1101 -0.2575  0.5036
72177W        W15115   6.879  20.430   2.627  0.0224  0.2083  0.0909
72178W        W15116   5.173  21.244   6.367 -0.3355  0.2496  0.1952
72179W        W15117   6.644  18.267   6.398 -0.1300  0.3063 -0.1085
72180W        W15118   7.786  18.253   5.007  0.2238 -0.0548  0.0618
72181W        W15119   6.991  18.938   5.628 -0.0413 -0.1394  0.1108
72182W        W15120   5.260  19.991   3.716  0.1540 -0.3222 -0.1779
72183W        W15121   7.696  21.740   5.086 -0.3058 -0.1162  0.1608
72184W        W15122   4.269  19.978   2.742 -0.3358  0.2621 -0.1143
72185W        W15123   4.590  20.682   5.565 -0.3343 -0.0977 -0.0144
72186W        W15124   5.497  21.691   4.826 -0.0271  0.0563 -0.0225
72187W        W15125   8.522  18.704   3.425 -0.3065 -0.2140  0.1557
72188W        W15126   3.568  19.800   6.236 -0.2002 -0.1343  0.0428
72189W        W15127   6.355  17.174   4.946  0.2335  0.1728 -0.3696
72190W        W15128   5.372  18.644   3.781  0.1601  0.2455 -0.0714
72191W        W15129   5.150  21.400   7.896  0.0864 -0.1000 -0.1871
72192W        W15130   5.799  18.427   5.961  0.2609  0.2107 -0.1114
72193W        W15131   6.653  17.095   3.559 -0.1022  0.0489  0.0649
72194W        W15132   5.750  19.825   6.589  0.3914  0.0212  0.0233
72195W        W15133   6.288  20.522   4.998 -0.3601 -0.0496  0.0663
72196W        W15134   5.924  19.387   3.610  0.0613  0.0482 -0.2244
72197W        W15135   7.125  17.255   4.435 -0.0158  0.1008 -0.0077
72198W        W15136   3.884  20.808   6.805  0.2905  0.0893  0.1321
72199W        W15137   5.168  20.755   4.984  0.0621 -0.0675 -0.1407
72200W        W15138   7.630  20.891   5.160  0.1879  0.0065  0.4448
72201W        W15139   6.613  19.550   2.457 -0.1712  0.3186  0.1310
72202W        W15140   7.979  22.183   5.279  0.2374  0.1570  0.0997
72203W        W15141   4.989  21.739   7.643  0.3248  0.1091 -0.0832
72204W        W15142   6.553  20.292   5.858  0.1983  0.2889 -0.0226
72205W        W15143   7.115  20.156   5.082 -0.4074  0.2469 -0.0581
72206W        W15144   5.617  17.586   4.527 -0.0031  0.1450  0.0710
72207W        W15145   4.258  20.754   4.953 -0.2416  0.2542 -0.2383
72208W        W15146   6.466  17.066   5.518  0.2392 -0.1267  0.5440
72209W        W15147   3.339  20.776   4.504 -0.1833  0.0270 -0.0200
72210W        W15148   8.178  17.341   5.313 -0.2755 -0.0289  0.1748
72211W        W15149   6.812  17.453   5.231 -0.0421 -0.1714  0.2673
72212W        W15150   6.436  18.802   6.496 -0.0837 -0.0536  0.0566
72213W        W15151   7.258  20.047   7.053  0.1375 -0.2355 -0.0462
72214W        W15152   7.340  19.816   5.458  0.2641 -0.1588  0.1980
72215W        W15153   7.592  18.710   5.012  0.0377  0.1046 -0.0207
72216W        W15154   3.902  20.437   2.860 -0.0422 -0.2842 -0.2191
72217W        W15155   5.998  17.382   7.265  0.1463 -0.2329  0.0446
72218W        W15156   5.769  20.398   6.386  0.1637 -0.1509 -0.0854
72219W        W15157   5.472  21.850   6.909 -0.2551  0.1292 -0.4378
72220W        W15158   6.844  20.976   7.815 -0.0160  0.2687  0.1654
72221W        W15159   7.685  19.803   5.101 -0.2042  0.2275  0.0581
72222W        W15160   5.060  16.565   5.512 -0.0305  0.5413 -0.1763
72223W        W15161   6.454  18.906   4.966  0.1090 -0.0085 -0.2649
72224W        W15162   4.951  20.621   3.999  0.1058  0.1002 -0.3276
72225W        W15163   4.076  19.616   4.010 -0.1809 -0.1662  0.0880
72226W        W15164   4.956  18.706   4.933  0.2573 -0.3282 -0.1401
72227W        W15165   4.822  21.118   4.404  0.3337 -0.1044  0.0432
72228W        W15166   5.335  20.667   3.068 -0.1084 -0.0623 -0.1234
72229W        W15167   6.913  19.683   7.000  0.3935  0.1995 -0.1845
72230W        W15168   3.040  21.518   4.733  0.1369 -0.0762  0.0026
72231W        W15169   7.401  17.941   5.150 -0.3168 -0.0851  0.0836
72232W        W15170   3.752  21.186   6.408  0.1640 -0.3423  0.0479
72233W        W15171   4.678  19.993   3.798 -0.0815  0.2662 -0.1662
72234W        W15172   4.278  18.627   4.169 -0.1088 -0.3162 -0.0450
72235W        W15173   7.678  19.560   3.758 -0.2563 -0.2137  0.0915
72236W        W15174   6.882  19.896   2.727  0.0873  0.0142  0.0426
72237W        W15175   4.519  18.735   6.322  0.1878 -0.0780  0.0395
72238W        W15176   6.317  18.232   4.160 -0.3509  0.2244  0.1418
72239W        W15177   5.601  20.901   5.317 -0.1259  0.1510  0.1140
72240W        W15178   6.415  19.817   6.543 -0.5016  0.1107 -0.1440
72241W        W15179   7.259  18.651   4.493  0.0343 -0.0881  0.2476
72242W        W15180   6.934  20.060   4.588 -0.1887  0.2261 -0.2412
72243W        W15181   4.679  20.314   4.288  0.0407  0.0236  0.2920
72244W        W15182   4.308  19.060   4.437 -0.1277  0.2056  0.1499
72245W        W15183   7.958  17.756   5.277  0.1810 -0.0857  0.1276
72246W        W15184   5.853  18.545   4.340 -0.0617 -0.0648  0.0735
72247W        W15185   4.278  21.753   4.091  0.1415  0.0642 -0.0210
72248W        W15186   5.778  20.106   5.949  0.1758  0.1081 -0.1676
72249W        W15187   4.699  19.418   2.997 -0.0320  0.3176 -0.1252
72250W        W15188   4.575  21.761   3.596 -0.1348 -0.1335 -0.0571
72251W        W15189   4.235  18.902   7.274 -0.3597  0.3132 -0.1166
72252W        W15190   8.851  19.646   5.538 -0.0156 -0.1768  0.1004
72253W        W15191   5.226  19.553   6.120  0.0206  0.1041  0.0303
72254W        W15192   5.266  19.541   4.946  0.0059 -0.0888  0.0874
72255W        W15193   5.066  18.359   5.258 -0.1640  0.2393  0.0012
72256W        W15194   6.543  20.107   5.001  0.0910  0.0771 -0.1160
72257W        W15195   6.129  17.550   5.473  0.4623  0.1732  0.0414
72258W        W15196   5.138  20.444   7.382  0.0651  0.0834 -0.0199
72259W        W15197   6.127  17.379   4.509 -0.1690  0.1103  0.2114
72260W        W15198   7.342  20.648   4.845 -0.3196 -0.0992 -0.0210
72261W        W15199   7.656  18.218   5.488 -0.0937  0.1704  0.0577
72262W        W15200   2.633  19.553   6.139 -0.0323 -0.0357  0.1659
72263W        W15201   2.791  20.118   6.415  0.0227 -0.0078 -0.3035
72264W        W15202   4.926  21.224   5.367 -0.1244 -0.1006  0.0432
72265W        W15203   6.371  18.514   4.665 -0.1330 -0.0611  0.0576
72266W        W15204   6.147  20.234   5.497 -0.1204 -0.0184  0.1128
72267W        W15205   3.977  20.031   3.764 -0.1025  0.0717 -0.2068
72268W        W15206   4.975  20.471   6.896 -0.1247  0.3799 -0.0058
72269W        W15207   7.308  18.273   4.156 -0.1668  0.0349  0.0661
72270W        W15208   5.007  20.140   3.269 -0.0722  0.1535  0.0538
72271W        W15209   6.721  18.630   4.178 -0.0775 -0.0035 -0.0359
72272W        W15210   7.736  18.731   5.853 -0.4438 -0.0592 -0.0097
72273W        W15211   6.317  20.109   3.977 -0.5509  0.1453 -0.1240
72274W        W15212   6.771  17.276   6.848 -0.3482  0.2642 -0.1559
72275W        W15213   4.759  19.628   5.844 -0.0412  0.2413 -0.4955
72276W        W15214   6.392  19.741   4.724 -0.0592 -0.1228  0.0639
72277W        W15215   4.359  19.339   7.037 -0.0503  0.1150  0.0813
72278W        W15216   6.974  21.133   6.421 -0.1218 -0.0482 -0.2924
72279W        W15217   4.311  19.614   6.626  0.0627  0.0649 -0.2250
72280W        W15218   6.522  17.917   5.407  0.0752  0.0098 -0.0278
72281W        W15219   5.457  18.842   4.630  0.2294 -0.2027 -0.0019
72282W        W15220   5.979  20.146   4.865 -0.1805 -0.0785 -0.1229
72283W        W15221   6.760  20.316   5.388 -0.1607  0.0834  0.1896
72284W        W15222   4.249  20.569   4.448  0.2094 -0.2643  0.0578
72285W        W15223   5.152  19.935   5.468 -0.3286  0.1389 -0.1065
72286W        W15224   5.514  19.689   5.704 -0.2511 -0.1697 -0.2689
72287W        W15225   6.066  19.025   3.903 -0.3602  0.1811 -0.2158
72288W        W15226   5.801  20.782   3.355 -0.1765 -0.1073 -0.0700
72289W        W15227   3.758  20.619   5.720 -0.0606  0.0312 -0.1558
72290W        W15228   5.045  19.510   6.825  0.1112  0.0630  0.0733
72291W        W15229   5.988  20.847   4.775 -0.0515 -0.3022 -0.0136
72292W        W15230   7.943  19.147   5.717 -0.0157  0.3182 -0.4552
72293W        W15231   5.997  18.911   6.617 -0.0959 -0.2328  0.3444
72294W        W15232   6.278  17.456   6.883 -0.0541  0.2343  0.0392
72295W        W15233   4.677  20.148   5.648  0.0245 -0.0812  0.3376
72296W        W15234   4.241  18.648   5.842  0.1869  0.0907 -0.2145
72297W        W15235   6.972  19.918   6.038 -0.0273 -0.1409  0.0988
72298W        W15236   7.677  18.350   3.068 -0.2010 -0.0954 -0.2604
72299W        W15237   7.966  17.515   5.720 -0.1815 -0.0215 -0.0610
72300W        W15238   7.943  19.491   5.388 -0.0662  0.0265  0.1238
72301W        W15239   5.401  20.498   3.543  0.1369  0.1810 -0.2515
72302W        W15240   5.442  17.122   4.257  0.0305 -0.2482 -0.0206
72303W        W15241   5.232  19.839   6.543 -0.1507 -0.0976  0.0829
72304W        W15242   6.177  18.882   2.973 -0.2090 -0.3568  0.1133
72305W        W15243   7.325  19.517   6.119 -0.0052 -0.3094  0.0462
72306W        W15244   5.625  21.602   3.539 -0.0421  0.0754  0.1963
72307W        W15245   5.402  20.408   5.277 -0.0543 -0.0950  0.1807
72308W        W15246   6.941  18.255   3.776 -0.1412  0.2811 -0.3744
72309W        W15247   5.328  17.582   4.053  0.0840  0.2620 -0.1391
72310W        W15248   4.399  21.421   7.452  0.2716 -0.0423  0.2482
72311W        W15249   4.755  19.556   4.101  0.1339  0.1530 -0.2856
72312W        W15250   6.175  19.535   2.714 -0.1031 -0.0890 -0.3211
72313W        W15251   4.969  21.970   4.707 -0.1449 -0.2479  0.0668
72314W        W15252   6.602  19.334   6.728  0.3469 -0.1570  0.3072
72315W        W15253   6.155  18.493   3.330 -0.2780 -0.1240  0.2589
72316W        W15254   6.797  17.945   5.829 -0.0609 -0.0754  0.0341
72317W        W15255   3.740  21.082   5.067  0.0958  0.0524  0.2726
72318W        W15256   7.253  18.225   5.734  0.1075  0.2026  0.5018
72319W        W15257   4.383  21.760   7.072 -0.0426 -0.0238  0.4722
72320W        W15258   4.620  21.348   6.729  0.1590 -0.0403 -0.0825
72321W        W15259   3.658  21.900   5.514  0.1216  0.3487  0.0237
72322W        W15260   7.256  16.656   5.765 -0.6223 -0.1607  0.0385
72323W        W15261   7.069  19.548   4.527  0.0976  0.0591  0.0185
72324W        W15262   8.147  19.668   5.819 -0.4902 -0.1268 -0.0669
72325W        W15263   8.070  18.264   6.382  0.0851 -0.1683  0.1611
72326W        W15264   3.837  20.255   6.563 -0.1410  0.1077 -0.2790
72327W        W15265   5.509  20.051   4.981  0.4291  0.1237  0.0589
72328W        W15266   6.495  20.881   4.663 -0.2917 -0.6949  0.2924
72329W        W15267   6.452  20.236   4.447  0.1999 -0.0083  0.1047
72330W        W15268   5.405  21.368   5.195 -0.0591 -0.1657 -0.3592
72331W        W15269   3.370  19.364   6.405  0.0233 -0.0999 -0.0240
72332W        W15270   6.126  19.413   6.981  0.2340 -0.1514  0.3205
72333W        W15271   5.715  20.017   5.401  0.1410 -0.1683 -0.1058
72334W        W15272   5.118  17.406   3.255  0.0906  0.1971  0.0474
72335W        W15273   5.907  22.386   4.629  0.0812 -0.1287 -0.3470
72336W        W15274   4.753  22.377   7.137 -0.0673 -0.1319 -0.0295
72337W        W15275   5.580  20.398   6.841  0.1687 -0.1081  0.3089
72338W        W15276   6.155  21.779   4.240 -0.2126  0.1123 -0.0451
72339W        W15277   6.110  20.560   4.252 -0.2091  0.1053  0.4470
72340W        W15278   5.565  20.730   3.912  0.4078  0.2251 -0.2882
72341W        W15279   7.198  20.285   5.640  0.1243 -0.2023  0.0221
72342W        W15280   5.881  19.868   3.523 -0.0881  0.1188  0.0010
72343W        W15281   5.814  21.430   5.519  0.1762 -0.3370  0.1816
72344W        W15282   3.463  19.830   4.515 -0.0833  0.4722  0.1917
72345W        W15283   6.625  21.730   5.531  0.1556 -0.1309  0.2138
72346W        W15284   4.684  21.562   4.656 -0.4822  0.4281 -0.1055
72347W        W15285   7.662  19.578   5.785  0.0186 -0.1389 -0.2941
72348W        W15286   7.754  20.373   2.303  0.0429  0.2389  0.0445
72349W        W15287   8.170  20.142   5.095  0.2306  0.2738 -0.2722
72350W        W15288   7.942  19.837   4.042 -0.0171  0.0639  0.2297
72351W        W15289   7.209  20.462   6.656  0.3674 -0.1567  0.2436
72352W        W15290   5.905  18.197   4.784 -0.0224 -0.0931 -0.1467
72353W        W15291   5.621  18.092   4.351 -0.3772 -0.3126 -0.0010
72354W        W15292   4.807  19.267   5.168  0.0732  0.1273  0.1908
72355W        W15293   7.453  18.253   6.562 -0.0529  0.0830  0.3040
72356W        W15294   4.919  22.824   6.542  0.2132 -0.0421  0.0254
72357W        W15295   6.837  20.571   4.800 -0.1690  0.0081 -0.4304
72358W        W15296   4.942  19.575   4.567  0.2242  0.0804  0.0686
72359W        W15297   4.539  19.910   4.588 -0.3490  0.1284  0.0535
72360W        W15298   8.513  18.377   6.084 -0.2756  0.0902  0.0513
72361W        W15299   5.466  19.695   2.003  0.1226  0.0722 -0.4746
72362W        W15300   5.396  19.389   4.507  0.0372 -0.0473 -0.1859
72363W        W15301   4.731  21.697   5.667  0.0092  0.3858  0.3406
72364W        W15302   5.520  21.397   3.978  0.1237  0.1029  0.1347
72365W        W15303   4.338  22.398   6.317  0.1856  0.1151  0.2970
72366W        W15304   4.374  19.430   3.588  0.0744 -0.0304 -0.3536
72367W        W15305   7.145  18.720   3.993  0.0491 -0.0476  0.1020
72368W        W15306   4.092  19.156   5.813 -0.2564  0.3130 -0.0644
72369W        W15307   8.601  18.852   6.957  0.0298  0.3477 -0.0875
72370W        W15308   3.708  18.648   3.913 -0.4273 -0.2783 -0.1088
72371W        W15309   8.069  19.711   3.521 -0.0947 -0.1607 -0.0467
72372W        W15310   5.854  21.291   4.960  0.0702 -0.0945  0.0688
72373W        W15311   5.099  20.736   5.978 -0.1853  0.1193  0.1706
72374W        W15312   5.741  20.281   3.230  0.2292  0.0755 -0.0838
72375W        W15313   7.942  20.134   6.030 -0.1280  0.1153 -0.0504
72376W        W15314   7.713  18.698   4.105  0.0962  0.1397 -0.2057
72377W        W15315   6.860  20.682   5.756 -0.2170  0.5893 -0.2571
72378W        W15316   4.060  19.126   4.883  0.0309  0.0768  0.3132
72379W        W15317   6.762  18.898   4.605  0.0045  0.1061 -0.0114
72380W        W15318   4.032  19.652   6.048 -0.2536 -0.1318 -0.1293
72381W        W15319   5.732  19.200   4.898  0.0515  0.0276 -0.1859
72382W        W15320   7.644  20.526   6.263  0.1457  0.0848  0.1957
72383W        W15321   5.178  17.629   5.481 -0.1021 -0.1523 -0.2750
72384W        W15322   6.637  20.163   3.082  0.2965 -0.2717 -0.0525
72385W        W15323   7.798  19.228   4.920 -0.3362 -0.1318 -0.3578
72386W        W15324   5.766  20.930   4.307 -0.0991 -0.1443 -0.3623
72387W        W15325   8.024  18.830   3.676  0.4673 -0.0044  0.0035
72388W        W15326   7.180  20.671   5.275  0.1181  0.0327 -0.1019
72389W        W15327   4.075  18.626   4.973 -0.2153 -0.2012  0.1129
72390W        W15328   7.445  20.015   6.009 -0.1845  0.2317 -0.1955
72391W        W15329   8.084  20.475   5.708 -0.1465  0.1485  0.0347
72392W        W15330   4.752  16.218   5.770 -0.0932  0.1115  0.2751
72393W        W15331   4.972  17.116   4.085  0.1501 -0.2703 -0.0765
72394W        W15332   4.122  21.733   5.698  0.0959 -0.1092  0.0557
72395W        W15333   8.434  18.616   5.189  0.2267 -0.0129  0.0568
72396W        W15334   7.637  17.722   4.778 -0.0035  0.0140 -0.2336
72397W        W15335   6.065  20.982   2.917  0.0284 -0.1223  0.1515
72398W        W15336   6.671  18.755   6.064  0.1996  0.1940 -0.1237
72399W        W15337   5.513  19.378   6.792 -0.0381  0.0651 -0.2383
72400W        W15338   5.471  22.514   7.247 -0.0490  0.3220 -0.1107
72401W        W15339   4.008  20.205   4.806 -0.1845 -0.0144  0.1530
72402W        W15340   6.078  19.111   5.197 -0.1626  0.3146  0.1356
72403W        W15341   5.828  19.661   4.754  0.0284  0.1927  0.0945
72404W        W15342   5.075  21.323   4.829  0.1431  0.2885 -0.1226
72405W        W15343   7.327  21.119   5.540  0.2216 -0.0326  0.3557
72406W        W15344   6.259  18.845   4.303  0.2393 -0.2894  0.2802
72407W        W15345   6.766  21.176   5.533 -0.2250 -0.2812 -0.0359
72408W        W15346   5.512  19.117   3.835  0.0251 -0.1487 -0.3136
72409W        W15347   7.206  17.388   3.493 -0.2779 -0.0267  0.2325
72410W        W15348   6.843  18.126   4.275 -0.0663  0.1117  0.2086
72411W        W15349   5.297  19.095   5.193  0.0038 -0.1924 -0.1341
72412W        W15350   3.988  19.119   3.661 -0.1039 -0.0157 -0.1721
72413W        W15351   6.022  20.917   3.810 -0.0048 -0.0947 -0.3293
72414W        W15352   4.692  20.986   4.993 -0.0222 -0.2218 -0.1624
72415W        W15353   5.580  17.705   7.356 -0.0538  0.0288 -0.0545
72416W        W15354   4.902  18.080   7.176  0.1245 -0.4183 -0.0821
72417W        W15355   3.281  20.617   4.954 -0.2239  0.2594 -0.2050
72418W        W15356   4.233  18.679   3.654  0.2764  0.3149 -0.1822
72419W        W15357   7.324  21.578   3.664 -0.0762 -0.1671 -0.0594
72420W        W15358   4.881  17.897   5.238  0.2853 -0.3597  0.0648
72421W        W15359   4.397  18.267   6.186 -0.1289 -0.1120  0.2724
72422W        W15360   4.846  19.824   5.016  0.2521  0.2000  0.2005
72423W        W15361   7.857  20.444   4.858  0.1753  0.1725 -0.2565
72424W        W15362   4.802  17.161   4.652  0.3634 -0.1617  0.0344
72425W        W15363   6.114  21.432   6.659 -0.1382 -0.0271  0.0240
72426W        W15364   3.866  20.039   5.230 -0.0520 -0.1021 -0.1811
72427W        W15365   4.953  18.279   4.670  0.1655 -0.1554 -0.3574
72428W        W15366   4.776  16.492   7.206  0.0331  0.0088  0.1594
72429W        W15367   4.806  17.858   3.294 -0.1165  0.1548 -0.4378
72430W        W15368   6.949  19.522   5.734  0.0171 -0.4754  0.0455
72431W        W15369   5.034  20.160   4.684  0.0923 -0.1368  0.3033
72432W        W15370   5.655  21.829   3.991 -0.3093 -0.2159  0.2795
72433W        W15371   4.679  20.359   6.067 -0.0574 -0.2379  0.0107
72434W        W15372   6.525  21.074   6.041  0.1021  0.2488 -0.1479
72435W        W15373   4.761  18.249   6.658  0.1662  0.1349  0.1669
72436W        W15374   7.236  20.102   3.718 -0.3374 -0.2339 -0.1485
72437W        W15375   4.504  19.786   7.559  0.1202  0.0340  0.1088
72438W        W15376   6.501  20.663   3.818  0.0908  0.1444  0.1614
72439W        W15377   6.494  18.048   4.651  0.0020  0.0682 -0.1035
72440W        W15378   5.254  19.596   4.026 -0.1131 -0.0536 -0.1422
72441W        W15379   4.846  18.764   5.426  0.0324  0.3005  0.0638
72442W        W15380   5.236  20.050   7.014  0.2649 -0.0786 -0.2619
72443W        W15381   6.692  20.225   6.336 -0.4869  0.3077  0.0173
72444W        W15382   6.457  18.743   5.480  0.1627 -0.0794 -0.4128
72445W        W15383   6.871  18.737   3.554  0.0027  0.2124  0.1358
72446W        W15384   5.578  20.437   4.702  0.1073 -0.1320 -0.2663
72447W        W15385   4.606  18.992   3.950 -0.1933 -0.0592  0.0627
72448W        W15386   6.194  19.261   4.708 -0.0261  0.0174  0.0462
72449W        W15387   5.621  18.629   5.109  0.0694  0.0364 -0.1994
72450W        W15388   5.705  21.823   6.089 -0.0413  0.0725 -0.1618
72451W        W15389   5.746  20.558   5.686  0.2136  0.1996 -0.0375
72452W        W15390   5.112  18.936   4.171  0.1770  0.0583  0.1075
72453W        W15391   6.876  19.690   3.815 -0.0340 -0.1859  0.1505
72454W        W15392   5.763  22.106   7.297  0.0863 -0.0857  0.1394
72455W        W15393   5.931  21.702   8.380  0.1075  0.0657 -0.1547
72456W        W15394   6.226  21.888   6.311  0.2680  0.0982 -0.1726
72457W        W15395   6.967  21.447   5.991 -0.0709  0.2778 -0.2170
72458W        W15396   4.704  17.410   5.749  0.3880  0.1210 -0.0764
72459W        W15397   4.388  18.858   5.410  0.0779  0.1402 -0.0583
72460W        W15398   4.068  20.906   5.416 -0.0875  0.2467 -0.1826
72461W        W15399   6.590  19.136   5.723 -0.2842  0.0510  0.0575
72462W        W15400   3.761  18.163   6.206  0.2097 -0.1231  0.2898
72463W        W15401   6.069  17.870   4.439  0.0300  0.0055  0.1261
72464W        W15402   5.562  20.732   6.171 -0.1402  0.1557 -0.0304
72465W        W15403   7.214  20.410   6.154 -0.1509 -0.2561  0.1512
72466W        W15404   6.979  21.313   9.582 -0.0219 -0.0171 -0.0415
72467W        W15405   6.372  19.353   8.442  0.3715  0.0060  0.2671
72468W        W15406   6.533  19.887   5.545  0.1229 -0.1208 -0.1224
72469W        W15407   6.422  19.830   7.070 -0.1922  0.0526  0.2248
72470W        W15408   3.741  19.516   7.642  0.0336 -0.0952  0.0864
72471W        W15409   5.923  20.576   8.120 -0.1338  0.2984 -0.0089
72472W        W15410   7.562  20.351   8.847  0.3020  0.0816 -0.2099
72473W        W15411   6.666  21.359  10.076  0.0676  0.2638  0.2754
72474W        W15412   5.847  19.638   6.086 -0.0446  0.2576  0.2782
72475W        W15413   6.801  18.294  10.224  0.1966  0.0604 -0.3644
72476W        W15414   6.463  16.918   6.757 -0.0976  0.0650 -0.1059
72477W        W15415   3.955  18.460   9.327  0.0619 -0.2002  0.0767
72478W        W15416   7.853  20.791   8.574 -0.0631  0.1614  0.1529
72479W        W15417   4.699  20.007   8.845 -0.0774  0.0978  0.0703
72480W        W15418   4.570  19.927   9.857  0.3980  0.2144  0.1252
72481W        W15419   5.149  18.140   8.240 -0.1111  0.0027 -0.1272
72482W        W15420   5.078  21.821   8.185 -0.3076  0.0766  0.2564
72483W        W15421   4.032  15.468   8.993  0.0385 -0.3510  0.1101
72484W        W15422   5.998  20.706   6.677  0.2245 -0.0438 -0.0981
72485W        W15423   3.802  19.661   6.738  0.1260 -0.2897 -0.1744
72486W        W15424   4.520  19.451   8.268 -0.1947 -0.0155 -0.2018
72487W        W15425   6.388  20.344   8.647  0.2425  0.3604  0.1356
72488W        W15426   7.007  19.784   8.457  0.1025  0.3109 -0.2144
72489W        W15427   7.719  19.369   8.003 -0.0003 -0.1503  0.0446
72490W        W15428   5.206  22.839   8.394 -0.1722  0.1037 -0.2988
72491W        W15429   5.453  21.475   8.303 -0.1120  0.1106 -0.0854
72492W        W15430   3.830  21.714   8.199 -0.2507 -0.0603 -0.2745
72493W        W15431   3.078  21.414   8.999  0.2054  0.1253  0.1912
72494W        W15432   5.472  21.801   7.903  0.1887 -0.0568  0.1068
72495W        W15433   7.070  20.594   8.048  0.1044  0.0535 -0.4004
72496W        W15434   4.413  20.520   6.601 -0.0847  0.0715  0.1779
72497W        W15435   5.664  18.922   8.985 -0.2189 -0.2381  0.0224
72498W        W15436   4.953  20.066   8.389  0.0280 -0.0981  0.5039
72499W        W15437   6.433  20.815   7.100 -0.0060  0.1655  0.1212
72500W        W15438   5.116  21.130   9.609 -0.1679 -0.1613 -0.1602
72501W        W15439   5.643  21.534   8.791 -0.0077  0.1410 -0.3819
72502W        W15440   4.296  21.906   8.786 -0.0614 -0.2887 -0.2043
72503W        W15441   6.377  19.243   6.169 -0.1874 -0.0748 -0.1673
72504W        W15442   5.340  18.250   6.120  0.0440  0.2797 -0.2266
72505W        W15443   7.998  19.425   6.700  0.1271 -0.2037 -0.0898
72506W        W15444   4.902  18.475   8.477 -0.1902 -0.0878 -0.2118
72507W        W15445   3.974  21.422   8.752  0.0737  0.2811 -0.1463
72508W        W15446   3.251  16.846   8.657 -0.1249  0.0260 -0.2640
72509W        W15447   5.215  19.058   6.450 -0.0409  0.0811  0.0614
72510W        W15448   7.596  19.337   9.372  0.0950 -0.2113  0.1519
72511W        W15449   4.788  22.622   8.173  0.0512 -0.6261 -0.2800
72512W        W15450   5.143  20.567   8.729  0.0501 -0.2248  0.1623
72513W        W15451   6.371  20.292   7.281  0.1379  0.2170 -0.0387
72514W        W15452   7.275  21.204   8.615 -0.0463 -0.2212 -0.0646
72515W        W15453   5.698  20.210   7.334  0.1491 -0.1188  0.2742
72516W        W15454   4.288  19.284   7.585  0.0674  0.0344 -0.0110
72517W        W15455   5.637  18.343   8.262  0.0037  0.0716 -0.0282
72518W        W15456   7.264  18.691   7.615 -0.2815 -0.1779  0.2259
72519W        W15457   3.757  18.552   8.862  0.0987  0.0950  0.0993
72520W        W15458   6.453  21.323   9.028 -0.0178  0.1856  0.1041
72521W        W15459   7.334  20.644   7.118  0.2752  0.1872  0.1556
72522W        W15460   6.598  16.500   8.901 -0.0423  0.2347 -0.0206
72523W        W15461   6.607  20.422   9.532 -0.1997 -0.1435  0.0623
72524W        W15462   4.016  18.216   7.219  0.1474 -0.0337  0.1145
72525W        W15463   6.138  18.333   8.320  0.2477  0.0879  0.0293
72526W        W15464   6.401  20.990   9.779 -0.0520  0.0467 -0.2045
72527W        W15465   7.056  19.801   6.495 -0.1692  0.0975  0.1164
72528W        W15466   4.569  21.929   9.347 -0.0206 -0.0287 -0.1869
72529W        W15467   4.934  22.198   7.823  0.1885 -0.1463 -0.2144
72530W        W15468   5.948  19.088   9.468  0.0513 -0.0391  0.2213
72531W        W15469   4.234  20.628   9.503 -0.0709 -0.0939 -0.1976
72532W        W15470   5.062  18.073   8.782 -0.1726  0.1826 -0.3959
72533W        W15471   7.013  20.722   9.624  0.4309  0.0921  0.0985
72534W        W15472   7.667  19.077   7.128  0.2446 -0.1944 -0.0956
72535W        W15473   5.222  18.357   9.569 -0.2830 -0.2935  0.2706
72536W        W15474   5.587  19.352   7.368 -0.0294 -0.1760 -0.2466
72537W        W15475   6.904  21.550   7.249 -0.4274  0.1751 -0.2388
72538W        W15476   8.271  19.745   6.447  0.2204 -0.1328 -0.0712
72539W        W15477   6.188  20.180   6.220  0.2460  0.0192  0.0519
72540W        W15478   5.440  19.459   8.764 -0.1173  0.0362 -0.0466
72541W        W15479   3.872  19.274   7.175 -0.3901 -0.0309  0.0604
72542W        W15480   4.166  18.323   8.758 -0.1131  0.2717  0.0392
72543W        W15481   4.976  17.283   6.958 -0.0767 -0.3454 -0.0949
72544W        W15482   6.021  20.059   9.870 -0.4111  0.2298  0.3339
72545W        W15483   5.848  18.725   8.005  0.0702 -0.0216 -0.0732
72546W        W15484   5.154  20.920   9.114 -0.2489  0.1502  0.0080
72547W        W15485   5.501  22.583   8.687 -0.0472 -0.2383  0.1946
72548W        W15486   7.726  21.868   9.299  0.2179  0.0673  0.2613
72549W        W15487   6.777  22.296   9.651 -0.0054 -0.1965 -0.2826
72550W        W15488   4.125  17.691   9.063 -0.0522  0.0518 -0.0854
72551W        W15489   6.526  18.438   6.870 -0.0430 -0.1473 -0.3276
72552W        W15490   4.482  22.177   8.014 -0.1491  0.1513 -0.0560
72553W        W15491   5.525  21.311   9.254 -0.2484  0.1242  0.1449
72554W        W15492   5.713  19.763   7.089 -0.0945 -0.0842 -0.2622
72555W        W15493   6.932  22.287   9.144 -0.3675  0.0138 -0.2713
72556W        W15494   5.356  20.151   7.707 -0.0749  0.0378  0.0114
72557W        W15495   7.429  17.753   9.346  0.0958  0.3937 -0.0071
72558W        W15496   6.705  21.020   9.332  0.2701 -0.2327 -0.1970
72559W        W15497   2.615  18.319   7.453 -0.0983  0.0975  0.0766
72560W        W15498   6.062  22.158   8.498 -0.0703  0.0933 -0.2383
72561W        W15499   4.361  20.979   7.660  0.0725 -0.0311  0.0519
72562W        W15500   4.737  19.406   7.810 -0.0470  0.0915  0.1888
72563W        W15501   4.981  21.364   8.425 -0.3984  0.0098  0.1789
72564W        W15502   6.269  20.078   8.214 -0.1153  0.2484  0.1075
72565W        W15503   4.173  19.002   6.745  0.0177 -0.1585  0.0668
72566W        W15504   6.192  16.846   8.151  0.1007  0.0992 -0.0921
72567W        W15505   7.000  18.253   6.793 -0.2524 -0.3844  0.0331
72568W        W15506   6.862  20.550   7.313  0.1550 -0.0742  0.3916
72569W        W15507   6.087  19.699   5.643  0.3589  0.1460  0.0994
72570W        W15508   6.026  18.472   7.002  0.1182 -0.0384  0.2673
72571W        W15509   6.386  21.415   8.164  0.0664 -0.0717 -0.2801
72572W        W15510   6.080  20.618   8.867  0.0543 -0.0232 -0.1482
72573W        W15511   6.443  19.412   5.178 -0.3051  0.1992 -0.0329
72574W        W15512   6.393  20.390   6.679 -0.0636  0.2548 -0.0117
72575W        W15513   5.219  20.170   9.582 -0.1163 -0.0736  0.0087
72576W        W15514   6.246  22.689   8.403 -0.1783  0.0863 -0.1899
72577W        W15515   4.939  19.213   9.510 -0.2840  0.0225  0.2005
72578W        W15516   4.806  20.088   6.566  0.2060  0.1130  0.2969
72579W        W15517   6.442  17.681   8.436  0.1131 -0.0461 -0.1695
72580W        W15518   2.774  22.081   7.923  0.1202  0.2502 -0.2617
72581W        W15519   6.608  18.599   8.246 -0.0397 -0.1545 -0.0489
72582W        W15520   6.307  18.609   7.835  0.1261 -0.0887  0.1067
72583W        W15521   6.252  18.927   6.999 -0.1185  0.1430 -0.1791
72584W        W15522   5.217  21.839   9.234  0.4055  0.1579  0.1712
72585W        W15523   5.072  19.435   5.556  0.1713  0.2276  0.3487
72586W        W15524   6.953  16.107   9.060  0.2473  0.1801  0.3102
72587W        W15525   4.795  23.099   9.530  0.1228 -0.0092 -0.0082
72588W        W15526   6.592  19.322   8.973 -0.0300 -0.3194 -0.1821
72589W        W15527   6.021  18.191   7.866 -0.1433  0.1037 -0.1397
72590W        W15528   4.845  20.974   8.709 -0.2375  0.1857  0.0348
72591W        W15529   4.719  18.962   8.118 -0.0904  0.2560 -0.1609
72592W        W15530   4.416  18.627   9.365 -0.2031  0.2504  0.0795
72593W        W15531   3.931  21.518   9.275  0.1691 -0.0906  0.2334
72594W        W15532   5.921  21.040   5.794 -0.1198  0.1643  0.2070
72595W        W15533   5.707  20.720   8.526 -0.1461 -0.1653 -0.0904
72596W        W15534   6.705  21.447   8.604 -0.1340  0.3495 -0.1397
72597W        W15535   6.303  16.494   9.923 -0.1054 -0.0217 -0.1770
72598W        W15536   3.548  19.936   9.622 -0.0407 -0.2492  0.1992
72599W        W15537   4.462  19.306   6.112  0.1385  0.1986 -0.1187
72600W        W15538   3.537  19.652   7.174  0.1875 -0.0698 -0.0422
72601W        W15539   6.887  18.547   7.272  0.0603  0.0326 -0.3322
72602W        W15540   7.701  18.641   7.371  0.2056  0.3581 -0.0399
72603W        W15541   5.567  19.795   9.803  0.0615  0.1060  0.1080
72604W        W15542   6.037  18.017   8.707  0.2267 -0.0115  0.3144
72605W        W15543   1.571  23.447   9.466  0.0268  0.1294 -0.0518
72606W        W15544   6.790  19.488   6.256 -0.0442 -0.0239  0.1134
72607W        W15545   3.154  19.226   6.859  0.0764 -0.0370  0.0000
72608W        W15546   8.005  19.987   9.364 -0.1566  0.2295  0.1454
72609W        W15547   5.245  19.743   8.023  0.2254  0.3303 -0.0008
72610W        W15548   4.319  22.371   9.313  0.0294  0.0328  0.0818
72611W        W15549   6.082  21.718   8.881 -0.4512  0.0861 -0.1397
72612W        W15550   4.971  21.153   7.498 -0.3309  0.0800 -0.0133
72613W        W15551   5.557  21.974   8.338  0.2812 -0.2099 -0.2021
72614W        W15552   8.350  19.751   8.744 -0.1158 -0.1032 -0.1872
72615W        W15553   5.602  18.961   8.415  0.4621 -0.1396  0.0489
72616W        W15554   4.012  18.445   7.637  0.0108 -0.1606  0.2216
72617W        W15555   5.437  19.963   8.464  0.1689 -0.2383  0.2686
72618W        W15556   6.347  19.885   9.526  0.0913 -0.2192 -0.0610
72619W        W15557   4.172  19.961   8.871  0.1167 -0.0776  0.0195
72620W        W15558   6.647  18.478   9.637 -0.0015  0.0151  0.0609
72621W        W15559   8.537  21.852   6.701  0.0454  0.0104 -0.2363
72622W        W15560   5.874  20.262   8.597 -0.3444  0.1190 -0.3202
72623W        W15561   3.769  21.921   8.846  0.3727  0.1925 -0.0675
72624W        W15562   5.149  20.922   8.250 -0.0090 -0.4968  0.1902
72625W        W15563   5.249  18.652   8.093  0.2500  0.1307 -0.0642
72626W        W15564   4.595  20.940   9.259  0.4108 -0.3530  0.1915
72627W        W15565   5.223  20.338   6.411  0.3381  0.2208  0.0981
72628W        W15566   2.380  20.758   9.504  0.0602 -0.0249 -0.0031
72629W        W15567   7.124  17.654   7.157  0.3299  0.1138 -0.1483
72630W        W15568   6.792  20.046   7.326  0.1855 -0.0278  0.0541
72631W        W15569   6.208  18.845   8.997 -0.1234 -0.0323  0.0863
72632W        W15570   6.753  18.933   6.990 -0.2011 -0.0775 -0.1500
72633W        W15571   4.980  16.531   8.759  0.0838 -0.0925  0.0118
72634W        W15572   6.496  21.433   9.516  0.3461  0.3863 -0.0439
72635W        W15573   6.517  18.807   7.472 -0.2522  0.2578  0.3064
72636W        W15574   5.485  18.881   7.494 -0.0682  0.2576  0.1320
72637W        W15575   5.351  21.838   9.736 -0.1514 -0.0702  0.2676
72638W        W15576   6.722  20.203   8.299  0.5087  0.1085  0.0507
72639W        W15577   5.685  19.729   7.687  0.2641 -0.1397 -0.0914
72640W        W15578   6.944  19.214   9.328  0.0273  0.3043 -0.3999
72641W        W15579   4.564  21.348   8.826  0.0459  0.1356  0.0649
72642W        W15580   6.483  19.927   7.701  0.0640  0.3464 -0.1336
72643W        W15581   6.656  19.628   8.109 -0.1217  0.2293 -0.1740
72644W        W15582   5.712  20.135   9.441  0.0636 -0.4449 -0.0457
72645W        W15583   6.622  20.597   9.035  0.0774  0.1510 -0.1276
72646W        W15584   6.585  19.106   8.053  0.1080  0.0350 -0.2409
72647W        W15585   7.504  21.493   9.027 -0.0918 -0.1123 -0.1179
72648W        W15586   8.071  19.025   7.608  0.2075  0.0682 -0.1763
72649W        W15587   7.191  16.584   8.913 -0.0204  0.3287  0.2484
72650W        W15588   6.519  19.817   8.577  0.1534  0.0002  0.1027
72651W        W15589   6.079  19.694   7.401 -0.1494 -0.1338 -0.1673
72652W        W15590   4.114  18.230   8.042  0.1385 -0.2080  0.2937
72653W        W15591   4.940  17.995   6.241  0.1377  0.2285  0.0707
72654W        W15592   6.433  22.259   8.891  0.0763 -0.1755  0.4516
72655W        W15593   5.985  21.225   8.849 -0.1224  0.0699  0.1487
72656W        W15594   6.872  19.118   7.611 -0.3972  0.1676  0.2169
72657W        W15595   4.314  17.950   7.540 -0.2451 -0.0228 -0.1209
72658W        W15596   4.635  18.901   7.658  0.3229  0.1556  0.2737
72659W        W15597   4.688  20.138   7.249  0.0386 -0.0828 -0.1056
72660W        W15598   4.533  22.447   8.576 -0.0602 -0.0929  0.0988
72661W        W15599   6.881  17.165   7.344 -0.2097 -0.1392  0.1446
72662W        W15600   3.800  22.565   8.429 -0.0209 -0.2281  0.1030
72663W        W15601   6.194  18.658   9.469  0.3888 -0.2597  0.0992
72664W        W15602   5.027  20.454   9.182 -0.0218  0.1977 -0.0985
72665W        W15603   5.936  21.001   9.666  0.0731 -0.1193 -0.0233
72666W        W15604   5.837  18.568   8.653 -0.0811 -0.1968 -0.0917
72667W        W15605   6.902  20.389  10.050  0.0255  0.0249  0.0917
72668W        W15606   4.596  20.568   8.940 -0.3418 -0.1726  0.0458
72669W        W15607   4.926  19.929   9.303 -0.0375  0.0479  0.1714
72670W        W15608   7.207  18.978   7.206  0.2935 -0.1503  0.2166
72671W        W15609   5.406  21.080   8.681 -0.0770 -0.0833 -0.1055
72672W        W15610   5.778  20.092   8.111  0.1500 -0.1407  0.0715
72673W        W15611   4.527  18.489   8.180  0.1597 -0.0053 -0.1386
72674W        W15612   4.739  19.620   6.393 -0.1687 -0.0305  0.2117
72675W        W15613   4.873  19.106   8.592 -0.2057 -0.4506 -0.1294
72676W        W15614   4.379  21.607   9.790  0.0811  0.1627 -0.0531
72677W        W15615   7.200  20.302   7.620  0.0476  0.2810  0.0973
72678W        W15616   5.368  20.378   8.165  0.2635 -0.0467 -0.1143
72679W        W15617   6.933  21.892   9.446 -0.1401 -0.0149 -0.1468
72680W        W15618   5.107  19.107   7.713  0.2732  0.3060 -0.0858
72681W        W15619   6.006  22.772   9.325  0.2391 -0.0114 -0.2053
72682W        W15620   4.673  21.373   7.835 -0.1459 -0.1366 -0.0066
72683W        W15621   5.908  21.431   7.882 -0.0149  0.1742 -0.2512
72684W        W15622   4.272  22.625   8.213 -0.0318 -0.4177  0.0931
72685W        W15623   7.780  18.699   6.386  0.0183  0.2951  0.1703
72686W        W15624   6.573  19.336   7.238 -0.0333  0.0870  0.1450
72687W        W15625   7.088  18.594   6.406  0.0153  0.2816  0.1249
72688W        W15626   4.517  19.678   9.396 -0.1019 -0.0614  0.1528
72689W        W15627   6.126  18.517   5.135 -0.0252 -0.0299 -0.0022
72690W        W15628   7.014  19.999   7.943  0.1406 -0.2285 -0.2600
72691W        W15629   4.621  17.645   7.298  0.0809  0.0235  0.0392
72692W        W15630   4.754  19.851   7.961 -0.1025 -0.0073  0.0874
72693W        W15631   9.111  19.984  10.477 -0.1791  0.1222  0.0440
72694W        W15632   5.912  19.227   5.692 -0.2212  0.1293 -0.0664
72695W        W15633   6.876  20.131   8.819 -0.4117  0.0512 -0.0014
72696W        W15634   5.398  21.713   7.419 -0.2973 -0.1888 -0.1551
72697W        W15635   4.128  23.330   9.842 -0.0376  0.1101  0.0197
72698W        W15636   5.753  21.446   9.726  0.0293 -0.3212  0.3734
72699W        W15637   4.319  17.368   7.702  0.1241 -0.1222 -0.0981
72700W        W15638   7.361  18.274   9.131 -0.2541 -0.1927  0.2149
72701W        W15639   4.545  19.012   9.729 -0.1497  0.3384 -0.3026
72702W        W15640   5.190  20.715   7.798  0.2336 -0.1283 -0.5883
72703W        W15641   5.432  20.646   9.513 -0.0032 -0.1592  0.3131
72704W        W15642   4.734  21.183   9.911 -0.0016 -0.1114 -0.1075
72705W        W15643   4.754  20.579   9.601 -0.0882 -0.0172 -0.2646
72706W        W15644   6.098  19.106   7.979 -0.0416 -0.0019 -0.1093
72707W        W15645   5.606  19.230   6.225 -0.1465  0.0147  0.2060
72708W        W15646   4.715  18.108   7.888  0.2730  0.2437  0.1126
72709W        W15647   5.515  18.460   7.754 -0.1394  0.2060  0.1014
72710W        W15648   3.331  19.915   8.460  0.0070 -0.1931  0.3044
72711W        W15649   5.119  21.374   8.899 -0.2532  0.0747  0.2384
72712W        W15650   3.247  18.405   8.407 -0.0108 -0.1368 -0.1691
72713W        W15651   7.516  20.106   6.524 -0.1895  0.0027 -0.0257
72714W        W15652   7.699  19.548   8.902 -0.0736  0.1046  0.0313
72715W        W15653   4.305  21.598   8.352 -0.1098 -0.3686 -0.1871
72716W        W15654   6.839  20.649   8.562  0.0768 -0.1719 -0.0916
72717W        W15655   8.153  21.821   9.554 -0.2706 -0.0497  0.2867
72718W        W15656   5.653  20.870   9.009  0.2294 -0.3446  0.0241
72719W        W15657   6.857  21.048   8.884  0.5049 -0.0746 -0.2040
72720W        W15658   8.673  21.112   7.854  0.1629 -0.2411 -0.0087
72721W        W15659   5.184  19.090   7.095  0.3861 -0.2049  0.0563
72722W        W15660   4.714  20.662   7.944  0.1783  0.0662 -0.1417
72723W        W15661   5.021  22.568   7.566 -0.1814  0.2196  0.1306
72724W        W15662   7.138  18.883   8.532 -0.2065  0.0357 -0.2193
72725W        W15663   5.805  21.129   6.921  0.1374  0.0024 -0.0675
72726W        W15664   6.645  22.689   9.984 -0.0649  0.0100 -0.0029
72727W        W15665   5.650  20.607   7.616  0.2615  0.2586  0.1637
72728W        W15666   5.911  21.188   8.395  0.0582  0.1913  0.4107
72729W        W15667   5.141  22.270   8.379 -0.2755  0.1352  0.0400
72730W        W15668   7.944  20.017   8.806  0.1354 -0.0533  0.1322
72731W        W15669   5.567  20.321   8.971  0.0137 -0.0344  0.2287
72732W        W15670   7.087  21.436   8.152 -0.2150  0.0064 -0.1879
72733W        W15671   5.927  19.292   8.727  0.3815  0.0527 -0.4327
72734W        W15672   6.464  19.424   7.702  0.2865 -0.2468  0.2033
72735W        W15673   6.390  18.291   7.382 -0.2815 -0.2285  0.2290
72736W        W15674   6.019  19.827   8.533 -0.0375  0.3286  0.0208
72737W        W15675   4.364  19.934   8.402 -0.0192 -0.0322  0.0058
72738W        W15676   3.390  19.477   5.804 -0.3244  0.0051 -0.1132
72739W        W15677   4.421  21.432   9.279  0.0802 -0.2663  0.0456
72740W        W15678   5.672  19.582   8.283 -0.1396  0.1281  0.2386
72741W        W15679   5.066  17.613   7.420 -0.5374 -0.2492 -0.0664
72742W        W15680   6.392  20.625   8.238  0.0114  0.0516  0.2497
72743W        W15681   4.999  18.882   8.968  0.0402 -0.0036 -0.0880
72744W        W15682   4.590  18.044   8.383 -0.1659  0.0581  0.1879
72745W        W15683   6.102  19.176   7.452  0.0190 -0.0880  0.2001
72746W        W15684   6.234  20.995   7.957  0.1201  0.4091  0.1079
72747W        W15685   5.997  18.705   7.445 -0.0938 -0.0413  0.1191
72748W        W15686   4.554  22.024   7.535  0.2500  0.1604  0.2417
72749W        W15687   3.099  18.926   6.454  0.1676 -0.1722  0.2023
72750W        W15688   5.573  18.153   8.776 -0.3355  0.3232 -0.0112
72751W        W15689   5.718  21.817   9.311 -0.4128 -0.0690 -0.1109
72752W        W15690   6.034  22.370   6.416 -0.2644 -0.3472  0.3416
72753W        W15691   4.193  18.835   8.941 -0.1529 -0.2607  0.1212
72754W        W15692   6.375  20.733   7.567  0.2928  0.1355 -0.2424
72755W        W15693   6.804  20.211   6.880 -0.2562 -0.2319  0.0482
72756W        W15694   5.986  17.855   9.238  0.0471 -0.0099  0.2459
72757W        W15695   7.503  19.075   6.626  0.0228 -0.2330 -0.1474
72758W        W15696   6.148  20.947   9.219  0.1328 -0.4210  0.0026
72759W        W15697   4.699  18.991   7.103  0.2255 -0.1278  0.2413
72760W        W15698   6.040  19.393   6.492  0.1869  0.0740  0.1491
72761W        W15699   6.524  21.813   9.156 -0.0088 -0.0394  0.0357
72762W        W15700   5.209  19.273   8.244 -0.0237  0.0388  0.2156
72763W        W15701   4.662  19.810   6.911 -0.1129  0.0181 -0.0809
72764W        W15702   6.130  19.623   8.019 -0.1340 -0.3196 -0.1142
72765W        W15703   6.626  17.827   6.862 -0.2004 -0.1453  0.1082
72766W        W15704   7.085  19.248   6.791 -0.2319  0.2769 -0.3345
72767W        W15705   5.194  24.506  10.347  0.0909 -0.1466  0.3636
72768W        W15706   5.380  19.751   9.250  0.1876 -0.1178  0.2243
72769W        W15707   6.458  19.324   9.538  0.2470 -0.2544 -0.0403
72770W        W15708   5.115  19.671   9.627  0.1528  0.3233  0.0439
72771W        W15709   4.812  19.453   7.288  0.2350  0.1964  0.0193
72772W        W15710   6.363  20.956   8.629 -0.0280  0.2954  0.0482
72773W        W15711   6.443  22.726   9.087 -0.0633  0.0301 -0.0669
72774W        W15712   5.612  19.203   7.880  0.1940  0.0568 -0.2162
72775W        W15713   6.083  17.698   7.659 -0.1749  0.1505  0.1419
72776W        W15714   4.246  22.018  10.027  0.2276 -0.1044 -0.0333
72777W        W15715   6.369  20.528   9.955  0.1911  0.1295  0.0269
72778W        W15716   2.927  25.374   1.826  0.0107  0.0821  0.4796
72779W        W15717   5.419  22.789   1.344  0.2327  0.2025 -0.2678
72780W        W15718   7.539  23.759   0.299 -0.1055  0.0087 -0.1554
72781W        W15719   6.896  24.715   0.526 -0.2459 -0.2293  0.2113
72782W        W15720   4.130  22.577   1.331  0.2079 -0.0112 -0.3644
72783W        W15721   6.438  25.403   2.210 -0.1408  0.1099 -0.0958
72784W        W15722   4.436  22.618   0.937  0.0166  0.1063 -0.1534
72785W        W15723   7.252  24.460   2.272  0.0825  0.2197  0.0840
72786W        W15724   7.939  25.494   2.414 -0.1678  0.2816 -0.0376
72787W        W15725   8.475  24.263   0.958 -0.1280 -0.0807  0.0031
72788W        W15726   4.567  23.175   2.881 -0.1732  0.2787 -0.1261
72789W        W15727   4.730  24.439   2.152 -0.0279  0.1501 -0.0777
72790W        W15728   5.923  23.226   0.423 -0.2303  0.2527  0.0446
72791W        W15729   4.038  22.976   0.905  0.0495  0.1325 -0.2306
72792W        W15730   6.074  21.842   2.641  0.1496  0.1659  0.0273
72793W        W15731   2.972  23.925   1.174  0.0314  0.1398 -0.4927
72794W        W15732   5.164  22.349   1.636  0.1844 -0.1804 -0.1630
72795W        W15733   5.195  22.792  31.959  0.2358 -0.3309  0.0828
72796W        W15734   6.177  26.312   0.835 -0.1528 -0.2633  0.1129
72797W        W15735   6.091  21.897   1.725 -0.1151  0.0800  0.0576
72798W        W15736   6.600  21.673   2.608  0.1615  0.0382  0.1913
72799W        W15737   5.042  24.376   1.777  0.1107 -0.2044  0.0388
72800W        W15738   4.043  20.754   1.296 -0.3335  0.1208  0.2076
72801W        W15739   3.280  24.404   1.976  0.0968  0.0076  0.0161
72802W        W15740   4.844  23.701   1.921 -0.1795 -0.0402 -0.2676
72803W        W15741   7.214  23.461   0.641  0.1434  0.3262 -0.1462
72804W        W15742   7.139  22.443   2.672  0.0936  0.0097  0.0554
72805W        W15743   4.589  24.970   0.425 -0.1158  0.2232 -0.3006
72806W        W15744   5.613  25.115   0.448 -0.0978  0.0680  0.0326
72807W        W15745   7.068  23.041   4.082 -0.2106 -0.0981  0.0547
72808W        W15746   4.430  24.875  31.894 -0.0176  0.1826  0.1327
72809W        W15747   4.922  26.014   1.184 -0.0982  0.2503 -0.0959
72810W        W15748   5.671  24.950   1.330  0.1440  0.2005  0.0550
72811W        W15749   7.698  23.086   1.493  0.0219 -0.1646 -0.1106
72812W        W15750   6.598  24.996   3.309 -0.2529  0.1583 -0.2071
72813W        W15751   5.757  25.959   3.113  0.3953 -0.1014  0.2842
72814W        W15752   4.489  23.958   0.635  0.0262 -0.5204 -0.2183
72815W        W15753   6.630  24.773   2.860 -0.0368  0.1820  0.1062
72816W        W15754   5.039  24.802   3.430  0.1159  0.1357 -0.0377
72817W        W15755   4.660  23.958   2.401  0.1705 -0.4258 -0.3941
72818W        W15756   5.776  24.021   0.925 -0.0362  0.2596  0.2628
72819W        W15757   5.807  26.141   1.137 -0.1651 -0.1439 -0.0470
72820W        W15758   5.679  25.214   1.735 -0.2795 -0.1864  0.2397
72821W        W15759   4.209  23.954   4.088 -0.0741 -0.1025 -0.1082
72822W        W15760   4.604  25.513   2.507 -0.4943  0.0545 -0.2631
72823W        W15761   7.195  22.115   3.766  0.0924  0.0692 -0.3520
72824W        W15762   4.773  25.526   1.173  0.0255  0.2058  0.0900
72825W        W15763   7.536  23.192  31.335  0.0837  0.5652  0.0557
72826W        W15764   4.632  24.221  30.582  0.6022 -0.0196 -0.2045
72827W        W15765   6.372  22.923  31.356 -0.0137 -0.2968  0.2343
72828W        W15766   6.968  21.458   2.881 -0.0691 -0.1480 -0.1933
72829W        W15767   4.243  25.670   1.993 -0.1605 -0.2908 -0.0563
72830W        W15768   6.029  22.646   1.134 -0.0580  0.0038  0.1607
72831W        W15769   4.317  24.264   3.404  0.0223 -0.1841  0.0760
72832W        W15770   5.091  25.186   0.511  0.1300 -0.2500 -0.1240
72833W        W15771   6.200  23.115   1.929 -0.0598  0.2216  0.0440
72834W        W15772   5.725  25.069   2.925  0.1382  0.3589  0.3290
72835W        W15773   4.319  23.529   0.942  0.0741  0.2281  0.1738
72836W        W15774   5.677  25.071  31.222  0.1851  0.0323  0.0515
72837W        W15775   7.317  22.930   1.109  0.0140 -0.2415 -0.0203
72838W        W15776   4.966  24.685   0.623 -0.0391  0.1731  0.4335
72839W        W15777   3.901  24.688   1.815 -0.0034  0.2574 -0.1202
72840W        W15778   3.619  23.033   3.137  0.2101  0.2145  0.1740
72841W        W15779   3.705  23.603   3.300  0.0980 -0.2588 -0.0176
72842W        W15780   5.590  23.604   0.680 -0.3399 -0.0952 -0.0774
72843W        W15781   6.922  22.141   4.514  0.0548  0.3541  0.0892
72844W        W15782   3.459  24.352   3.014 -0.0528 -0.1360 -0.1663
72845W        W15783   5.911  21.604   0.802 -0.0285 -0.0851 -0.0064
72846W        W15784   4.673  24.135   1.603 -0.1935 -0.2568 -0.0829
72847W        W15785   7.638  24.620   2.653 -0.0860 -0.3524 -0.2235
72848W        W15786   7.063  23.801  31.369  0.1457  0.0437 -0.1010
72849W        W15787   7.760  22.657   0.527  0.1364  0.4297 -0.0278
72850W        W15788   6.558  22.825   2.054 -0.2092 -0.0808  0.2475
72851W        W15789   5.272  24.211  30.906  0.1663  0.0512  0.1724
72852W        W15790   5.994  25.576   2.016  0.0787 -0.0130 -0.2666
72853W        W15791   7.304  26.075   2.510  0.2027  0.1235  0.0333
72854W        W15792   7.838  24.583  31.530 -0.2277  0.1808  0.1060
72855W        W15793   4.468  24.595   1.763  0.2232 -0.0363 -0.0778
72856W        W15794   5.604  22.399   4.145 -0.1586  0.0113 -0.2579
72857W        W15795   5.804  24.532   2.992 -0.0485 -0.0818  0.1352
72858W        W15796   4.035  25.200  31.204  0.3028 -0.1315  0.1654
72859W        W15797   4.680  24.950   2.392 -0.0215  0.0923  0.0210
72860W        W15798   3.148  23.825  31.961 -0.0611 -0.2782 -0.2640
72861W        W15799   4.174  22.888   2.201 -0.1759 -0.1208  0.0225
72862W        W15800   4.224  24.762   2.210  0.2023 -0.0668  0.1996
72863W        W15801   6.642  23.759   0.185 -0.1620  0.1744  0.1413
72864W        W15802   5.749  21.367   2.644  0.0628  0.0856  0.0939
72865W        W15803   6.868  23.044   0.617 -0.1846 -0.1113  0.1889
72866W        W15804   4.908  23.767   0.985 -0.1087 -0.2099 -0.3743
72867W        W15805   7.321  25.622   1.050  0.1287  0.1028 -0.1779
72868W        W15806   8.461  22.798   0.752 -0.1125  0.2735  0.0719
72869W        W15807   6.538  24.531  31.494  0.2685 -0.1391  0.1199
72870W        W15808   4.030  23.333   1.956 -0.0470 -0.1395  0.0347
72871W        W15809   3.709  24.192   1.804 -0.0671  0.2804  0.4068
72872W        W15810   3.824  22.089   3.063  0.2766 -0.1423 -0.1586
72873W        W15811   4.041  23.786   0.203  0.0185 -0.0614 -0.3374
72874W        W15812   7.151  20.508   4.443 -0.0008 -0.2221  0.0086
72875W        W15813   4.766  22.220   0.448  0.1639  0.0125  0.0722
72876W        W15814   5.994  23.483   4.034  0.0551  0.2040  0.0168
72877W        W15815   5.968  21.437   1.940  0.2542  0.1326  0.0178
72878W        W15816   3.492  24.839   3.224  0.1039 -0.1832 -0.2520
72879W        W15817   5.788  22.160   1.983  0.3125  0.1133 -0.1632
72880W        W15818   4.915  24.255   0.933  0.2324 -0.0701 -0.1625
72881W        W15819   6.388  25.388   3.462  0.1603  0.0396 -0.0271
72882W        W15820   7.425  22.820   1.824 -0.2955  0.1557  0.2311
72883W        W15821   5.150  22.425   2.595 -0.1524  0.0076 -0.1485
72884W        W15822   5.014  22.204  31.863  0.2197  0.2484 -0.4603
72885W        W15823   4.054  25.516   2.720 -0.1262  0.0000  0.3114
72886W        W15824   6.022  25.379   0.634  0.2499  0.0380 -0.4058
72887W        W15825   5.810  23.070   0.970  0.3841 -0.0542  0.1366
72888W        W15826   6.124  25.296   2.584  0.1674 -0.3171  0.0390
72889W        W15827   5.721  23.617   0.191  0.0218 -0.1034 -0.4404
72890W        W15828   3.068  23.457   2.999 -0.1119  0.2119 -0.0096
72891W        W15829   6.323  22.890   2.936  0.0694 -0.0659  0.4294
72892W        W15830   5.452  23.339   2.820 -0.2333 -0.0008 -0.1694
72893W        W15831   6.611  22.178   0.430 -0.2207  0.3163 -0.0148
72894W        W15832   4.057  23.223   0.301 -0.0030  0.0347 -0.1067
72895W        W15833   5.425  24.791   0.832  0.0209 -0.0621 -0.1250
72896W        W15834   3.307  24.307   0.548  0.2161  0.1734  0.1378
72897W        W15835   2.438  23.780   1.400 -0.1562 -0.1566 -0.0067
72898W        W15836   5.119  24.736   2.304  0.0460 -0.1398 -0.1867
72899W        W15837   7.942  22.122   1.316  0.3130 -0.3588  0.2267
72900W        W15838   3.832  23.181   4.820  0.0017 -0.0444  0.0513
72901W        W15839   5.062  23.516   3.111 -0.0068  0.0266 -0.0747
72902W        W15840   3.929  23.873   0.727 -0.1845 -0.2273  0.0509
72903W        W15841   4.082  24.720   3.546 -0.1229  0.1037  0.0569
72904W        W15842   6.127  22.311   0.545 -0.0770  0.3884  0.0908
72905W        W15843   8.479  22.032   0.435 -0.3334  0.0620 -0.1924
72906W        W15844   5.288  22.929   2.407  0.2281  0.1927 -0.0412
72907W        W15845   7.560  22.307   1.872  0.0429 -0.0602  0.0328
72908W        W15846   7.180  23.170  31.726  0.0266 -0.1200 -0.3231
72909W        W15847   4.677  21.340  31.878 -0.1772 -0.0913  0.0691
72910W        W15848   5.465  23.794   3.078  0.1659  0.1630  0.1138
72911W        W15849   5.671  24.104   0.408 -0.0687 -0.1160  0.1971
72912W        W15850   4.558  23.315   2.324 -0.0568 -0.2996  0.0421
72913W        W15851   5.258  23.527   0.190 -0.4150  0.0325 -0.3086
72914W        W15852   7.922  24.076   0.269 -0.2073 -0.0444  0.2644
72915W        W15853   4.257  25.050   1.789  0.3665 -0.0696 -0.1194
72916W        W15854   5.353  24.868   2.704  0.2509  0.1606  0.1491
72917W        W15855   7.026  24.656   1.622  0.0139 -0.0431  0.2206
72918W        W15856   5.411  22.265   3.085  0.2491  0.3679  0.0946
72919W        W15857   5.829  23.493  31.549  0.0302 -0.5435  0.2222
72920W        W15858   5.518  21.945   1.644 -0.1712 -0.0155  0.0324
72921W        W15859   4.488  27.081   0.835  0.2220 -0.2790 -0.2057
72922W        W15860   7.909  22.203   2.193  0.2272  0.0129  0.1630
72923W        W15861   6.696  22.135   2.467 -0.0307  0.1133 -0.0999
72924W        W15862   5.178  21.507   4.351 -0.2408 -0.2322 -0.1936
72925W        W15863   6.263  23.628   1.914  0.0017 -0.2105 -0.0929
72926W        W15864   6.270  22.942   0.751  0.1001  0.1530 -0.4530
72927W        W15865   6.622  23.274   1.679  0.1478 -0.0048  0.1117
72928W        W15866   5.990  23.887  31.198 -0.0102  0.0186 -0.0417
72929W        W15867   6.801  20.898   3.474 -0.0139  0.0222  0.0776
72930W        W15868   5.063  23.956   2.713  0.0094  0.2175 -0.0986
72931W        W15869   5.457  25.633   2.389  0.1604  0.1309  0.2447
72932W        W15870   7.067  24.163   1.792 -0.0593 -0.0006  0.1588
72933W        W15871   6.028  23.448   1.498 -0.0878 -0.1408 -0.0146
72934W        W15872   5.482  22.709   2.900  0.1725  0.1079 -0.0701
72935W        W15873   6.491  22.532  31.929 -0.2825  0.3840  0.1534
72936W        W15874   4.421  26.600   0.634 -0.3169  0.1392 -0.2693
72937W        W15875   5.304  21.924  31.549  0.0389  0.1824 -0.1718
72938W        W15876   5.070  21.078   2.959 -0.2002  0.0838 -0.1257
72939W        W15877   5.228  24.793   1.333 -0.0517  0.2147 -0.0753
72940W        W15878   3.994  23.882   1.231 -0.0655 -0.1916 -0.0874
72941W        W15879   6.852  23.682   1.950  0.2040  0.2398 -0.3003
72942W        W15880   5.505  25.545   2.866 -0.3101 -0.1143 -0.0984
72943W        W15881   6.286  22.391   2.889  0.2117 -0.1718  0.0303
72944W        W15882   3.748  25.074   1.451  0.0474  0.0661 -0.0457
72945W        W15883   4.057  23.919  30.510  0.2072  0.2017 -0.1582
72946W        W15884   3.523  23.873   0.384 -0.0287 -0.0598  0.1857
72947W        W15885   8.268  22.381   1.790 -0.1664 -0.3464 -0.2513
72948W        W15886   6.361  23.364  31.462  0.1009  0.0164 -0.1295
72949W        W15887   5.592  21.514   1.358  0.3421  0.1013 -0.1177
72950W        W15888   6.385  22.282   3.383 -0.2017 -0.3421 -0.0968
72951W        W15889   3.886  25.960   1.784  0.0624 -0.1191  0.2824
72952W        W15890   3.252  22.104   3.391 -0.3695 -0.0153 -0.2382
72953W        W15891   8.026  23.455   0.261 -0.3469 -0.1018  0.1030
72954W        W15892   4.519  24.169   2.922  0.3943 -0.2006 -0.0401
72955W        W15893   2.635  22.294   0.728 -0.2009  0.1323 -0.2706
72956W        W15894   5.932  23.517   2.929 -0.1905 -0.3116  0.1119
72957W        W15895   5.040  23.161   1.370  0.0008 -0.3367  0.0270
72958W        W15896   4.309  25.547   1.006  0.2130 -0.0586  0.1254
72959W        W15897   6.157  25.009   2.117 -0.3299  0.5537 -0.1679
72960W        W15898   3.440  25.156   0.072  0.0454 -0.0614  0.0332
72961W        W15899   3.638  24.540   1.378 -0.0988 -0.0837 -0.1718
72962W        W15900   4.836  22.288   2.963  0.2746  0.2614 -0.0598
72963W        W15901   4.977  24.467   3.826  0.1699 -0.2116  0.1489
72964W        W15902   5.620  22.567   2.406 -0.0654  0.1925 -0.0168
72965W        W15903   4.441  23.106   0.618 -0.1511 -0.3264 -0.2271
72966W        W15904   6.357  23.123   1.236  0.1789 -0.3689  0.3154
72967W        W15905   6.156  24.348   1.180 -0.0533  0.3105 -0.2311
72968W        W15906   5.793  22.904   2.152  0.1322 -0.0969  0.4020
72969W        W15907   5.068  24.164   3.159 -0.0317  0.0968  0.2814
72970W        W15908   6.455  22.454   0.962 -0.0043  0.1171 -0.1750
72971W        W15909   7.600  26.408   1.845  0.0460 -0.2788 -0.2146
72972W        W15910   5.712  23.993   1.434 -0.2195 -0.0358 -0.2464
72973W        W15911   3.942  25.517   0.153 -0.1873 -0.0169 -0.2719
72974W        W15912   3.096  23.740   2.263  0.0737  0.5124 -0.0488
72975W        W15913   4.593  25.143   1.466  0.1962  0.1778 -0.0739
72976W        W15914   5.790  23.022   3.164  0.1332 -0.1759  0.0988
72977W        W15915   3.620  23.065   2.248  0.0597 -0.0726  0.1441
72978W        W15916   3.990  24.792   0.707 -0.1948 -0.1767  0.0102
72979W        W15917   6.091  26.242   2.013  0.1795 -0.3765  0.4469
72980W        W15918   8.240  20.992   1.652  0.0545 -0.0743 -0.0190
72981W        W15919   9.320  24.553   0.612 -0.3020 -0.1660  0.0234
72982W        W15920   7.037  21.825   2.119 -0.1172  0.0303  0.1374
72983W        W15921   6.702  21.992   3.670  0.1256 -0.0090 -0.2690
72984W        W15922   7.996  24.511   0.842  0.1154  0.4162 -0.1614
72985W        W15923   6.785  19.617   1.162 -0.0801 -0.1513 -0.3508
72986W        W15924   4.479  22.694   1.650  0.1775 -0.1547  0.0321
72987W        W15925   7.061  24.029   0.341  0.1478 -0.0283  0.1773
72988W        W15926   4.057  23.337   2.937  0.0906 -0.1515  0.0694
72989W        W15927   7.297  24.010   3.778 -0.0143  0.0011  0.3555
72990W        W15928   3.123  23.052   3.347 -0.1147 -0.2397  0.0011
72991W        W15929   5.828  22.735   0.554  0.0929 -0.0706 -0.1807
72992W        W15930   6.742  21.540  31.416 -0.0757 -0.1633 -0.0876
72993W        W15931   5.225  23.600   1.580 -0.4139  0.3661  0.1043
72994W        W15932   6.426  23.629   1.310  0.0071  0.0586 -0.2079
72995W        W15933   7.784  23.539   1.303  0.0267 -0.0841 -0.2076
72996W        W15934   6.757  22.854   1.123 -0.0782  0.0347  0.1730
72997W        W15935   4.945  24.983   1.767 -0.3760 -0.0248 -0.4183
72998W        W15936   6.900  21.734   0.389  0.4640  0.2815 -0.2202
72999W        W15937   6.635  24.141   1.282 -0.0579  0.0759 -0.0939
73000W        W15938   5.162  21.872   0.198 -0.0966  0.0336 -0.0478
73001W        W15939   4.387  21.269   3.731  0.0054  0.0587 -0.0394
73002W        W15940   6.454  22.493   3.804  0.0312 -0.1351 -0.4350
73003W        W15941   4.834  22.736   0.378  0.1837  0.2838 -0.1272
73004W        W15942   5.737  23.684   1.872  0.0516  0.3216  0.0545
73005W        W15943   5.792  23.024   2.656  0.0588 -0.1911  0.0707
73006W        W15944   4.306  22.701   2.673 -0.1403 -0.1586 -0.1986
73007W        W15945   4.360  22.414   2.258 -0.0524  0.0666 -0.1063
73008W        W15946   6.282  24.512   2.174  0.3545 -0.1411  0.0061
73009W        W15947   8.395  23.958   0.140 -0.3783  0.2367 -0.0675
73010W        W15948   8.399  24.479   1.763  0.0351  0.2598  0.0686
73011W        W15949   8.286  22.862   1.686  0.4374  0.0126 -0.0278
73012W        W15950   6.661  22.147  31.554  0.4096 -0.0346  0.1333
73013W        W15951   5.475  22.574   1.902  0.1325 -0.2313 -0.1302
73014W        W15952   5.914  24.373   3.528 -0.0379 -0.2003 -0.1375
73015W        W15953   5.239  22.438   0.354  0.0327  0.1299 -0.1169
73016W        W15954   5.315  23.238   0.864  0.2173  0.2275 -0.1835
73017W        W15955   4.951  25.270  31.854 -0.0138  0.2383  0.0704
73018W        W15956   6.785  24.511   2.071  0.2385  0.0970  0.2938
73019W        W15957   4.509  21.997   0.852  0.0556  0.4856 -0.2527
73020W        W15958   4.740  25.429   4.009 -0.1076  0.0301 -0.0255
73021W        W15959   4.838  23.557  31.872 -0.0471 -0.2653 -0.1859
73022W        W15960   5.669  24.258  31.806 -0.0289 -0.0881 -0.3095
73023W        W15961   5.764  22.389   1.496 -0.1680 -0.0841  0.0434
73024W        W15962   6.263  24.396   2.896  0.0220  0.2583  0.0310
73025W        W15963   4.649  21.038   0.849  0.2330 -0.3613 -0.2012
73026W        W15964   7.097  21.881   2.665 -0.2085  0.0593 -0.0177
73027W        W15965   4.292  24.613   0.399  0.2222 -0.2188 -0.0982
73028W        W15966   7.339  22.162   2.324 -0.1274 -0.0544  0.0203
73029W        W15967   6.458  27.169   1.784  0.0306  0.1199  0.1109
73030W        W15968   4.601  23.686   2.764 -0.1464  0.0946 -0.1142
73031W        W15969   4.422  24.444   0.835  0.0347  0.1291  0.1144
73032W        W15970   6.028  23.723   2.476 -0.1810 -0.0295 -0.0576
73033W        W15971   7.149  23.062   2.493  0.0183 -0.0810 -0.0313
73034W        W15972   7.277  23.387   1.457  0.0573 -0.0272  0.4036
73035W        W15973   7.392  23.987   2.130  0.0284 -0.0370  0.1295
73036W        W15974   5.291  23.767   2.103  0.1688 -0.0760 -0.0325
73037W        W15975   5.584  21.740   2.427 -0.2288  0.3114  0.0572
73038W        W15976   6.181  26.047   2.920 -0.0069 -0.4331 -0.0915
73039W        W15977   6.560  23.303   2.168  0.0481 -0.0627 -0.0254
73040W        W15978   5.672  24.456   1.316 -0.2888  0.1528 -0.1303
73041W        W15979   3.249  23.518   4.714  0.2060 -0.1082 -0.0870
73042W        W15980   5.574  24.870   3.410 -0.0731 -0.4729 -0.0172
73043W        W15981   6.255  23.210   2.537 -0.0387 -0.0365  0.0274
73044W        W15982   5.305  20.465   1.764  0.0886  0.0771  0.1643
73045W        W15983   6.187  25.255   1.634 -0.1328  0.0583  0.0511
73046W        W15984   5.628  26.097   2.157  0.1502  0.0115  0.2837
73047W        W15985   4.104  24.165   2.100  0.0703 -0.1626  0.4825
73048W        W15986   5.456  25.381   1.009 -0.0509 -0.1639 -0.0040
73049W        W15987   8.768  23.299   0.841 -0.0342 -0.1723  0.1914
73050W        W15988   6.921  25.075   0.883 -0.2250 -0.0158  0.1752
73051W        W15989   7.453  25.609   2.586 -0.2006  0.1264 -0.2519
73052W        W15990   6.538  23.203   0.318  0.1029 -0.0376  0.0825
73053W        W15991   4.418  26.082   1.292  0.1593 -0.4278  0.3263
73054W        W15992   3.569  24.044  30.503 -0.0174 -0.1427  0.0426
73055W        W15993   5.724  25.540  31.432  0.3858 -0.0197 -0.2557
73056W        W15994   4.525  26.679   1.867 -0.0093 -0.0147  0.0027
73057W        W15995   6.282  24.009   3.393 -0.0418 -0.0544 -0.1458
73058W        W15996   7.042  23.350   0.175  0.0709  0.1054 -0.0208
73059W        W15997   8.849  22.688   1.776 -0.1503  0.0015  0.3221
73060W        W15998   7.857  22.603   1.515  0.0679 -0.3843 -0.3567
73061W        W15999   5.272  25.160   3.122 -0.0320 -0.1618 -0.0996
73062W        W16000   5.327  22.123   2.162 -0.0166 -0.0922  0.0613
73063W        W16001   4.501  23.553   0.342 -0.1000 -0.2470 -0.0346
73064W        W16002   3.613  22.503   2.792  0.0932 -0.2448 -0.1998
73065W        W16003   8.223  22.323   3.909  0.2554 -0.1606 -0.2890
73066W        W16004   3.760  25.004   2.183 -0.0947  0.3363  0.0025
73067W        W16005   7.959  24.790   1.614 -0.2334  0.1959 -0.4357
73068W        W16006   5.268  22.961   0.442 -0.0157 -0.0859  0.1173
73069W        W16007   5.519  24.253   1.855  0.1577  0.0062 -0.0846
73070W        W16008   7.641  21.976   3.976  0.1257 -0.0886 -0.1310
73071W        W16009   4.853  23.956   0.249 -0.2220  0.2167 -0.0369
73072W        W16010   6.094  22.578   1.866 -0.1255 -0.1441 -0.0283
73073W        W16011   5.572  26.887   1.400  0.0629 -0.1146 -0.5903
73074W        W16012   4.706  24.599   1.233  0.3122 -0.1680  0.0129
73075W        W16013   6.512  24.600   1.574 -0.1621  0.0625  0.0997
73076W        W16014   3.393  21.636   0.448  0.1572  0.0660  0.0697
73077W        W16015   7.598  22.329   0.869 -0.1387  0.0306 -0.2659
73078W        W16016   5.080  22.829   1.790 -0.0421 -0.1469 -0.2288
73079W        W16017   7.541  23.482   1.877 -0.0663  0.0546  0.1556
73080W        W16018   3.682  23.588  31.883  0.0170  0.0302  0.1643
73081W        W16019   8.272  23.302   0.847  0.2902 -0.3178  0.1762
73082W        W16020   5.312  24.146   4.042  0.2306 -0.2755 -0.1354
73083W        W16021   3.858  22.935   2.661 -0.2503  0.1417  0.1101
73084W        W16022   6.991  24.297  31.738  0.0219 -0.0444  0.0792
73085W        W16023   6.252  23.384   3.403  0.0603 -0.2713 -0.0596
73086W        W16024   7.518  23.084   0.248  0.0298 -0.0337 -0.1338
73087W        W16025   7.004  25.861   4.346  0.0716  0.0376  0.2854
73088W        W16026   5.108  21.300   0.829  0.1186  0.1064  0.0934
73089W        W16027   5.243  23.425  30.804  0.0075  0.1298  0.0388
73090W        W16028   4.142  24.299   1.527 -0.0059  0.1400 -0.1497
73091W        W16029   5.916  24.656   1.782  0.1416 -0.1789 -0.0077
73092W        W16030   6.836  24.752   3.728  0.0636 -0.0406  0.1736
73093W        W16031   5.379  22.205   1.183  0.0411 -0.1936  0.2568
73094W        W16032   7.148  23.553  30.345 -0.0933  0.0764  0.1495
73095W        W16033   6.326  23.825   2.889 -0.3052  0.2954  0.1113
73096W        W16034   5.220  23.949   0.582  0.0707  0.3785 -0.1114
73097W        W16035   7.253  23.803   1.092 -0.1537 -0.0182 -0.0469
73098W        W16036   6.564  25.048   1.319 -0.0695  0.0814  0.1117
73099W        W16037   3.742  23.665   1.668  0.0831 -0.1746  0.0205
73100W        W16038   6.514  25.751   3.155  0.1442  0.0772 -0.0179
73101W        W16039   7.567  24.755   3.140  0.0009  0.3778  0.0882
73102W        W16040   7.003  21.631   1.696  0.3319 -0.1556 -0.0027
73103W        W16041   4.516  23.112   1.277  0.0694 -0.2733 -0.0001
73104W        W16042   4.454  23.970  31.897 -0.2372  0.2245 -0.3082
73105W        W16043   6.959  22.621   1.890 -0.0436 -0.1830  0.1739
73106W        W16044   6.376  22.241   4.598 -0.3093  0.2631 -0.0272
73107W        W16045   6.293  23.972   0.924 -0.1490 -0.1042 -0.0202
73108W        W16046   6.176  22.214   2.312 -0.0438 -0.0224  0.1767
73109W        W16047   5.923  25.738   2.520 -0.1245 -0.0370  0.0447
73110W        W16048   4.880  24.481   2.644 -0.1322  0.1136 -0.0072
73111W        W16049   3.836  24.329   0.465 -0.1316  0.0532 -0.1905
73112W        W16050   4.090  22.965   1.611 -0.2335 -0.2125 -0.3620
73113W        W16051   5.187  24.089   1.383 -0.2897 -0.0859 -0.4052
73114W        W16052   5.395  26.846   0.880  0.1928 -0.1572 -0.3126
73115W        W16053   6.884  23.745   1.456 -0.1862  0.3952 -0.2181
73116W        W16054   6.901  23.313   1.113 -0.2932  0.0121 -0.4776
73117W        W16055   7.031  22.973   1.524 -0.1768 -0.0271 -0.3061
73118W        W16056   5.554  23.189   1.816  0.0020  0.1708  0.4294
73119W        W16057   6.513  22.270   1.954 -0.0780  0.1130  0.1561
73120W        W16058   7.064  22.145   1.789  0.0066 -0.0530 -0.0807
73121W        W16059   4.679  23.837   3.231 -0.0329  0.1770 -0.3965
73122W        W16060   5.189  23.253  31.726  0.0400 -0.1914 -0.2953
73123W        W16061   5.395  24.299   0.838  0.4576 -0.3618 -0.0566
73124W        W16062   5.281  25.216   2.061 -0.1307 -0.1088 -0.3484
73125W        W16063   6.374  21.652   3.562 -0.3100  0.1102  0.1043
73126W        W16064   3.722  22.523   4.069  0.1179 -0.2251  0.0931
73127W        W16065   2.777  25.796   1.596  0.1288  0.1781  0.1447
73128W        W16066   6.107  22.198   0.019 -0.1020 -0.2623  0.0632
73129W        W16067   5.258  24.935  31.449  0.0057  0.1040 -0.0581
73130W        W16068   5.017  21.852   1.752  0.1590 -0.0677 -0.2679
73131W        W16069   4.167  20.989   0.738 -0.2530  0.4208 -0.0619
73132W        W16070   6.062  24.327   0.606 -0.1064 -0.0819 -0.0886
73133W        W16071   6.749  24.691   0.009 -0.5164  0.0810  0.3410
73134W        W16072   5.105  21.650   1.230 -0.0852  0.0887 -0.1199
73135W        W16073   7.174  24.056   3.270  0.1365 -0.2332  0.3527
73136W        W16074   4.173  25.023  30.658 -0.1439 -0.2164 -0.2207
73137W        W16075   3.709  22.185   3.603 -0.1194 -0.1345  0.1114
73138W        W16076   5.072  22.583   3.271 -0.0249 -0.0682  0.0419
73139W        W16077   4.219  21.638   0.047  0.0161 -0.3643  0.0006
73140W        W16078   6.147  24.795   1.311  0.0776 -0.1659 -0.2561
73141W        W16079   5.970  24.792   0.710 -0.0993 -0.0506 -0.0375
73142W        W16080   6.096  25.065   0.244 -0.2114 -0.0298  0.1019
73143W        W16081   6.050  25.534   3.076  0.3654  0.0692 -0.1234
73144W        W16082   6.103  24.812   2.575  0.0265  0.0384 -0.0359
73145W        W16083   4.794  21.331   1.912 -0.1128  0.0248  0.0338
73146W        W16084   6.558  24.144   1.861 -0.0647 -0.0648 -0.1035
73147W        W16085   5.885  24.189   2.504 -0.0757 -0.0104  0.1427
73148W        W16086   7.496  23.908   1.577 -0.1623 -0.0437  0.2576
73149W        W16087   7.615  23.104   2.267 -0.2525 -0.0491  0.1340
73150W        W16088   6.484  23.410   0.804  0.1915 -0.0989  0.1931
73151W        W16089   4.165  21.809   2.381 -0.2171  0.2113 -0.0324
73152W        W16090   4.663  23.644   1.461  0.0279 -0.1782 -0.0914
73153W        W16091   6.018  24.088   2.034 -0.1120  0.2800 -0.1649
73154W        W16092   4.941  22.684   1.327  0.0980  0.1804  0.1037
73155W        W16093   5.919  22.948   1.550  0.0013 -0.0556  0.0988
73156W        W16094   6.674  25.177   0.430 -0.1458 -0.1437 -0.1076
73157W        W16095   4.486  23.224   3.410 -0.0060 -0.1849  0.0275
73158W        W16096   3.749  21.268   1.583 -0.0979 -0.1199  0.2772
73159W        W16097   4.143  24.937   3.953 -0.1626 -0.4184  0.1392
73160W        W16098   6.204  25.930   1.565 -0.1175  0.2917 -0.0663
73161W        W16099   5.526  25.672   1.876 -0.1773 -0.0549 -0.0038
73162W        W16100   6.206  24.008   1.535  0.1879 -0.1662  0.0618
73163W        W16101   9.737  22.171   0.299  0.1151  0.0995 -0.0374
73164W        W16102   6.979  25.295   2.619 -0.0046 -0.1346 -0.2121
73165W        W16103   6.895  25.338   3.742 -0.0879  0.3919 -0.0449
73166W        W16104   5.264  26.130   3.733  0.3458  0.0142  0.0368
73167W        W16105   4.232  23.871   1.716  0.0497  0.2168 -0.0971
73168W        W16106   4.147  23.442   1.424  0.3005 -0.0123 -0.1287
73169W        W16107   4.480  24.063   1.179  0.0445 -0.1244 -0.2244
73170W        W16108   5.571  23.372   1.282 -0.1135 -0.0899 -0.1406
73171W        W16109   5.679  24.603   2.312 -0.0320  0.0945 -0.1598
73172W        W16110   3.704  22.635   0.790  0.2270  0.2741  0.0198
73173W        W16111   5.419  20.892  31.400 -0.0239  0.2804  0.2941
73174W        W16112   5.722  25.559   1.374  0.0483  0.0630  0.1877
73175W        W16113   5.651  25.143   2.399  0.0223  0.1856 -0.0331
73176W        W16114   5.649  24.233   7.516  0.2068  0.0760  0.2017
73177W        W16115   4.187  23.061   5.851 -0.0001 -0.0572  0.0817
73178W        W16116   6.302  22.740   4.489  0.2122  0.0388  0.0477
73179W        W16117   4.854  23.869   5.417 -0.0318 -0.0921 -0.0576
73180W        W16118   4.344  22.660   4.784 -0.0808  0.3685 -0.1583
73181W        W16119   8.259  24.256   3.902 -0.1136  0.3163 -0.0794
73182W        W16120   5.184  21.846   6.483  0.0986  0.1481 -0.0014
73183W        W16121   5.772  23.043   4.751 -0.2105  0.2293 -0.0773
73184W        W16122   7.314  25.353   5.635 -0.0166  0.2767  0.0753
73185W        W16123   5.500  23.807   2.543  0.1911  0.1654  0.0070
73186W        W16124   3.960  22.718   5.514  0.1070 -0.0712 -0.1320
73187W        W16125   6.293  24.699   6.372  0.1170 -0.0898 -0.0366
73188W        W16126   5.377  20.372   4.258  0.1885 -0.1930 -0.0874
73189W        W16127   4.875  22.361   6.360  0.2461 -0.4738 -0.2342
73190W        W16128   7.459  23.236   6.166 -0.1036  0.1033  0.3731
73191W        W16129   4.394  22.788   4.309 -0.2031  0.0013 -0.1682
73192W        W16130   5.464  22.214   6.274 -0.0742  0.1813  0.1097
73193W        W16131   5.336  23.202   3.420 -0.0503  0.2512  0.1275
73194W        W16132   5.829  25.260   5.998  0.2167 -0.3110 -0.0460
73195W        W16133   6.427  21.459   7.138 -0.0377 -0.0402  0.2407
73196W        W16134   6.565  21.783   5.997 -0.2520 -0.0922 -0.1607
73197W        W16135   6.072  25.819   3.503 -0.0680 -0.1868  0.2958
73198W        W16136   4.083  22.282   4.375 -0.2106  0.3922 -0.1090
73199W        W16137   3.930  23.222   5.502  0.0873 -0.0525  0.2053
73200W        W16138   5.074  23.797   5.876 -0.2747 -0.2486 -0.1364
73201W        W16139   7.747  22.781   5.570  0.1001  0.2130 -0.3430
73202W        W16140   8.128  22.731   5.041 -0.0240  0.1810 -0.1486
73203W        W16141   4.489  25.491   4.475  0.1131 -0.0402 -0.1306
73204W        W16142   6.175  24.488   4.566 -0.1506  0.3995 -0.1699
73205W        W16143   5.729  22.401   6.839 -0.2515 -0.0614  0.0466
73206W        W16144   5.663  24.196   5.436 -0.0306  0.1019  0.1072
73207W        W16145   3.692  24.999   4.777  0.1007  0.1771 -0.1785
73208W        W16146   4.104  24.519   4.798 -0.3303  0.2931 -0.1128
73209W        W16147   6.759  24.384   4.663 -0.0700 -0.1609 -0.2649
73210W        W16148   6.655  24.929   6.851 -0.2207  0.2732 -0.3060
73211W        W16149   5.132  25.083   5.386 -0.0983 -0.2597 -0.0119
73212W        W16150   3.792  24.285   4.007  0.1406  0.2067 -0.1047
73213W        W16151   5.959  24.756   5.958 -0.0035  0.0431  0.3658
73214W        W16152   3.550  24.926   6.977  0.1302  0.4038 -0.1437
73215W        W16153   5.956  22.192   5.953  0.0384 -0.1136  0.2082
73216W        W16154   4.604  22.352   3.472 -0.0842 -0.0652  0.0000
73217W        W16155   4.298  24.366   2.503 -0.1421 -0.0013  0.0294
73218W        W16156   4.954  22.467   4.333  0.1144  0.0497  0.0729
73219W        W16157   5.819  24.407   6.357 -0.0486  0.2172  0.0700
73220W        W16158   3.403  24.169   5.386 -0.3174 -0.1464  0.1449
73221W        W16159   6.748  21.670   7.776  0.0201  0.0560 -0.1877
73222W        W16160   3.610  24.748   2.746 -0.0171  0.0080 -0.0033
73223W        W16161   5.559  24.611   3.881  0.2962  0.1324  0.1743
73224W        W16162   5.167  22.114   5.382 -0.2008  0.0549 -0.0078
73225W        W16163   5.780  23.607   3.387 -0.1225 -0.2136  0.1881
73226W        W16164   5.567  22.099   5.098  0.0842 -0.1095 -0.1517
73227W        W16165   5.353  24.513   6.606  0.3622 -0.0578  0.1202
73228W        W16166   5.818  22.173   7.993  0.1411  0.3310  0.4352
73229W        W16167   6.034  23.450   7.073  0.2112  0.0564  0.0200
73230W        W16168   5.243  23.874   3.557  0.2177 -0.2084  0.2428
73231W        W16169   7.477  22.341   5.922 -0.2100 -0.0587 -0.1349
73232W        W16170   4.490  23.413   5.488  0.1912 -0.0326 -0.0712
73233W        W16171   3.737  24.332   5.742 -0.1394  0.1076 -0.0309
73234W        W16172   7.937  25.750   3.801 -0.1070 -0.2892  0.0338
73235W        W16173   6.985  26.026   5.105 -0.0557 -0.2470  0.1399
73236W        W16174   7.620  24.953   4.332 -0.0166 -0.1237  0.0437
73237W        W16175   4.297  22.815   3.636  0.0414 -0.0290  0.1745
73238W        W16176   2.344  24.144   7.406 -0.0037  0.2727 -0.1243
73239W        W16177   2.894  24.368   6.658  0.0324  0.0074  0.2280
73240W        W16178   4.209  20.438   3.942 -0.0178  0.0781 -0.0300
73241W        W16179   7.749  24.529   6.921  0.2522  0.3885 -0.3053
73242W        W16180   4.516  25.475   7.071 -0.0431 -0.5529  0.0652
73243W        W16181   7.036  22.965   4.601 -0.2320 -0.1239 -0.0901
73244W        W16182   3.536  23.832   5.008 -0.0566 -0.0785  0.1690
73245W        W16183   6.199  25.187   6.299 -0.2416  0.2175 -0.2119
73246W        W16184   4.719  24.016   3.725  0.2142 -0.0159  0.0674
73247W        W16185   5.671  23.175   6.213  0.0298 -0.2247  0.3682
73248W        W16186   7.752  22.071   6.253  0.0302 -0.1206 -0.0663
73249W        W16187   4.998  22.045   3.410  0.0388  0.1441  0.0664
73250W        W16188   4.496  23.619   4.545  0.1497 -0.1555 -0.0072
73251W        W16189   6.886  23.940   7.023  0.1233  0.0423  0.1845
73252W        W16190   6.717  23.167   2.763 -0.0640  0.2925  0.0907
73253W        W16191   4.482  24.835   5.609 -0.1371 -0.0109 -0.1390
73254W        W16192   5.464  22.806   6.770 -0.3400  0.1442  0.0102
73255W        W16193   6.235  23.142   5.567  0.0197  0.1819 -0.1561
73256W        W16194   3.786  25.488   1.818  0.1673  0.0180  0.4138
73257W        W16195   4.392  25.656   5.647  0.1886  0.2538 -0.2405
73258W        W16196   4.004  23.695   4.645  0.2630  0.0992  0.0543
73259W        W16197   4.453  22.739   6.750  0.2042 -0.1030 -0.1662
73260W        W16198   4.267  23.830   5.521  0.2347 -0.0244  0.1554
73261W        W16199   6.414  21.870   5.026  0.1039  0.2303  0.1353
73262W        W16200   3.518  23.962   7.793  0.0053 -0.1971  0.0852
73263W        W16201   7.867  20.031   5.505 -0.4698  0.2898  0.2065
73264W        W16202   4.043  23.544   5.167  0.0403 -0.0950 -0.1551
73265W        W16203   7.226  25.837   5.491  0.0093  0.0764 -0.0279
73266W        W16204   6.508  23.411   3.843 -0.1169  0.1282  0.0340
73267W        W16205   5.932  25.415   3.780  0.0120 -0.1286  0.1468
73268W        W16206   4.312  24.569   6.878 -0.0657 -0.0615 -0.2347
73269W        W16207   5.336  22.407   4.740  0.0939  0.2503  0.2836
73270W        W16208   5.197  21.862   8.678  0.3240 -0.2078 -0.1074
73271W        W16209   4.928  21.643   6.131  0.3341  0.0095  0.1031
73272W        W16210   6.704  22.731   7.080 -0.3239  0.2141 -0.2643
73273W        W16211   4.535  20.854   4.087  0.0499  0.1550  0.1025
73274W        W16212   6.225  22.985   5.047 -0.1477 -0.2308 -0.4669
73275W        W16213   4.870  23.503   3.542  0.1622  0.3451  0.2148
73276W        W16214   2.710  25.115   5.305 -0.0083 -0.0099  0.1234
73277W        W16215   7.040  22.369   7.056 -0.2446 -0.3049  0.0871
73278W        W16216   5.582  25.747   3.669 -0.1191  0.2917  0.2893
73279W        W16217   7.184  25.681   5.952 -0.2329  0.0163 -0.2861
73280W        W16218   8.842  25.379   5.613 -0.0804 -0.0169  0.0035
73281W        W16219   5.303  23.217   6.530 -0.3109 -0.0982  0.0702
73282W        W16220   4.226  22.236   4.882  0.0906  0.1280 -0.1184
73283W        W16221   5.428  24.543   5.936 -0.2888  0.1374 -0.1016
73284W        W16222   6.003  24.021   4.334  0.0208 -0.0033 -0.2206
73285W        W16223   3.526  22.312   5.138  0.4124  0.1690 -0.1064
73286W        W16224   7.615  27.046   4.969 -0.1669  0.3461 -0.1991
73287W        W16225   5.836  23.919   3.861  0.1627 -0.2007 -0.0200
73288W        W16226   3.099  23.175   6.530 -0.1548 -0.2039  0.1562
73289W        W16227   6.203  22.148   7.555 -0.5243 -0.1220  0.1132
73290W        W16228   6.474  23.899   6.053  0.0768  0.1573 -0.3004
73291W        W16229   6.485  22.701   5.384 -0.2246  0.1390 -0.1006
73292W        W16230   4.718  21.694   3.034  0.1877  0.5976 -0.0434
73293W        W16231   5.559  24.995   4.485 -0.0128 -0.2797  0.2473
73294W        W16232   3.721  24.236   4.596  0.0318  0.2500  0.0831
73295W        W16233   3.591  23.360   4.325  0.1653  0.2752 -0.0660
73296W        W16234   5.699  23.704   5.249  0.1433 -0.1597 -0.0625
73297W        W16235   8.085  23.168   5.952 -0.0006 -0.0044  0.2399
73298W        W16236   3.448  23.756   7.319 -0.3102 -0.1683 -0.1017
73299W        W16237   7.402  23.345   6.705 -0.1373  0.0284 -0.2487
73300W        W16238   3.556  22.567   4.681 -0.0542  0.0106 -0.3471
73301W        W16239   3.951  25.258   7.871  0.3717  0.1231 -0.0633
73302W        W16240   5.706  21.418   4.484  0.0567 -0.0312  0.1364
73303W        W16241   7.429  22.419   5.422 -0.1246 -0.0157 -0.0314
73304W        W16242   6.927  22.589   6.633  0.1042  0.2953 -0.1285
73305W        W16243   7.238  23.191   4.997  0.3105 -0.0426  0.4993
73306W        W16244   7.101  22.900   3.149 -0.0178 -0.1202  0.1721
73307W        W16245   4.853  22.966   3.529 -0.1834  0.3050  0.1100
73308W        W16246   4.271  25.428   7.493 -0.0349 -0.0136 -0.2134
73309W        W16247   6.356  25.502   4.054 -0.0660  0.1110  0.0371
73310W        W16248   6.676  23.345   4.811  0.0710 -0.2017 -0.2220
73311W        W16249   6.196  22.946   4.014 -0.1957 -0.1502  0.1142
73312W        W16250   6.935  25.453   3.126 -0.0852 -0.1932  0.4934
73313W        W16251   4.106  24.062   6.017  0.1285 -0.0303  0.0573
73314W        W16252   4.843  24.341   8.005 -0.0013  0.1946 -0.0186
73315W        W16253   7.501  23.877   4.206  0.0036  0.1475 -0.0396
73316W        W16254   5.725  22.652   6.069 -0.0385 -0.1388 -0.2973
73317W        W16255   4.773  22.141   3.882  0.0724  0.0162 -0.0324
73318W        W16256   5.234  21.577   5.719  0.6196  0.2684  0.0021
73319W        W16257   3.819  25.567   2.267  0.2325 -0.0469  0.1912
73320W        W16258   7.010  21.663   6.440  0.1585 -0.0747  0.1220
73321W        W16259   6.246  22.526   7.233  0.1155 -0.1717 -0.1635
73322W        W16260   5.393  21.367   7.075  0.1433  0.1614  0.3845
73323W        W16261   6.870  22.951   7.486  0.3054  0.2283  0.1051
73324W        W16262   5.163  23.442   4.159 -0.2753 -0.0811  0.0248
73325W        W16263   6.083  20.956   5.286 -0.0941  0.1653 -0.1006
73326W        W16264   5.843  24.036   2.986 -0.1734  0.4436 -0.0010
73327W        W16265   5.561  23.242   7.011 -0.2231 -0.2138 -0.0340
73328W        W16266   5.434  22.960   5.755 -0.0601  0.3901 -0.1983
73329W        W16267   4.870  25.546   5.319  0.0924 -0.1666  0.0605
73330W        W16268   6.044  25.436   6.938 -0.2232 -0.1308 -0.1497
73331W        W16269   6.389  24.119   5.404  0.1588 -0.0907 -0.1394
73332W        W16270   6.002  22.756   8.797 -0.0865 -0.1346  0.0480
73333W        W16271   6.733  22.308   5.039  0.3147  0.2589 -0.0327
73334W        W16272   5.032  24.604   5.227  0.1730  0.1389  0.1414
73335W        W16273   4.169  24.482   4.270 -0.0245 -0.0846 -0.0808
73336W        W16274   5.855  21.922   6.625 -0.0777  0.3054  0.1016
73337W        W16275   4.697  22.674   3.969 -0.1484 -0.1872  0.1296
73338W        W16276   5.664  25.373   3.317  0.1974 -0.1976  0.1491
73339W        W16277   6.067  23.961   6.291 -0.0298 -0.0830 -0.3305
73340W        W16278   3.936  23.482   3.974 -0.3504 -0.0347 -0.0193
73341W        W16279   7.139  21.565   5.484 -0.3461 -0.0106 -0.0116
73342W        W16280   3.351  24.882   5.146  0.0534 -0.1621  0.2248
73343W        W16281   4.965  23.353   2.618  0.0421 -0.3057 -0.0209
73344W        W16282   3.495  24.626   6.169  0.1275 -0.2349  0.1185
73345W        W16283   6.518  22.244   5.528 -0.0023 -0.1019  0.1089
73346W        W16284   6.890  23.749   3.694  0.0344 -0.1900  0.1250
73347W        W16285   4.804  21.930   6.853  0.2347  0.0375 -0.0494
73348W        W16286   7.363  22.108   5.031  0.0723 -0.1312 -0.0225
73349W        W16287   3.686  25.259   5.222 -0.0848 -0.1322  0.3788
73350W        W16288   7.299  22.978   5.541  0.0449 -0.0280 -0.3164
73351W        W16289   7.225  22.490   4.766 -0.0321 -0.1092 -0.1293
73352W        W16290   6.147  23.764   5.635 -0.0234 -0.1618 -0.2339
73353W        W16291   5.298  22.779   6.277  0.2429  0.1279 -0.3799
73354W        W16292   3.178  22.075   4.847 -0.0001 -0.0532  0.0095
73355W        W16293   6.341  23.057   7.092  0.0112 -0.2057  0.0398
73356W        W16294   6.141  22.411   4.153  0.0952 -0.0367  0.1407
73357W        W16295   4.854  24.709   4.653 -0.0028 -0.0730  0.2991
73358W        W16296   6.119  23.500   5.069 -0.0839 -0.0061  0.0996
73359W        W16297   4.137  23.292   4.387 -0.0786 -0.2062 -0.5171
73360W        W16298   3.920  24.271   2.801 -0.1131  0.0675 -0.4497
73361W        W16299   4.354  22.551   5.843 -0.0856 -0.1927 -0.1759
73362W        W16300   7.128  24.447   7.174 -0.1892  0.2740  0.0532
73363W        W16301   6.028  22.691   5.623  0.0492 -0.2222 -0.0895
73364W        W16302   4.587  22.022   5.125  0.0139 -0.1072  0.0299
73365W        W16303   4.421  22.513   5.267 -0.5474 -0.0644  0.1258
73366W        W16304   7.835  24.034   5.754 -0.0071 -0.2043 -0.1227
73367W        W16305   4.935  24.816   5.801 -0.0923  0.0368  0.0362
73368W        W16306   5.147  24.241   5.609  0.0958  0.1024  0.2326
73369W        W16307   6.865  19.757   5.170 -0.1863  0.0269  0.2567
73370W        W16308   8.064  24.488   4.955 -0.0535  0.3717 -0.1274
73371W        W16309   6.665  24.182   7.536 -0.3201 -0.2320 -0.0083
73372W        W16310   5.021  23.263   2.040 -0.2794 -0.1511 -0.2399
73373W        W16311   3.369  24.959   6.497 -0.3505  0.1259  0.0018
73374W        W16312   5.462  24.430   4.973  0.0574  0.1094  0.1242
73375W        W16313   6.767  21.305   6.814 -0.4916 -0.2153 -0.0020
73376W        W16314   4.621  23.851   5.886  0.0208 -0.0469  0.1189
73377W        W16315   4.073  25.946   3.878 -0.1150  0.0627  0.1275
73378W        W16316   3.071  24.697   7.026 -0.1093 -0.0391  0.0051
73379W        W16317   6.653  21.228   4.336  0.2841  0.1664 -0.1751
73380W        W16318   5.374  23.786   1.064  0.1216 -0.1838  0.1123
73381W        W16319   5.120  23.257   6.057  0.0194 -0.2063 -0.1366
73382W        W16320   7.534  21.259   6.327 -0.2043 -0.2637 -0.1423
73383W        W16321   4.808  22.829   2.674 -0.0214  0.1684  0.0184
73384W        W16322   6.533  21.803   6.749  0.1706  0.1791 -0.3674
73385W        W16323   5.232  22.340   6.753  0.1665  0.0770  0.0492
73386W        W16324   5.718  23.178   5.297  0.0181  0.1381  0.2444
73387W        W16325   3.308  22.538   7.384 -0.0529  0.0812  0.0354
73388W        W16326   6.867  25.052   7.368 -0.2887 -0.1192  0.0296
73389W        W16327   2.776  25.040   7.321 -0.0297  0.1658 -0.0287
73390W        W16328   6.297  22.543   5.976 -0.0622  0.2612  0.1601
73391W        W16329   4.971  21.241   3.908  0.2185  0.1397 -0.1039
73392W        W16330   4.269  22.994   5.187  0.0756  0.0497 -0.0344
73393W        W16331   6.604  24.954   5.294  0.0310  0.0138 -0.0181
73394W        W16332   4.682  22.834   2.163 -0.1528 -0.0474 -0.4717
73395W        W16333   6.619  23.113   4.353  0.0391 -0.0055  0.4028
73396W        W16334   5.766  24.910   6.370 -0.1107  0.2450  0.2538
73397W        W16335   6.187  22.818   3.461 -0.0862  0.2051  0.0957
73398W        W16336   6.041  24.852   3.622 -0.1154  0.0300 -0.2913
73399W        W16337   4.043  23.560   5.901  0.3263  0.0220 -0.0374
73400W        W16338   5.135  22.091   7.220 -0.4168 -0.1390  0.4161
73401W        W16339   5.861  22.773   4.338 -0.0710  0.1149 -0.1507
73402W        W16340   7.216  23.470   5.398  0.0838  0.1519 -0.3343
73403W        W16341   5.260  22.681   5.281  0.2940 -0.2612 -0.4117
73404W        W16342   6.239  22.729   6.777 -0.0694  0.2180 -0.1146
73405W        W16343   5.064  24.028   6.731 -0.1170  0.2247 -0.2882
73406W        W16344   5.358  23.657   6.822 -0.0146  0.0208 -0.2894
73407W        W16345   5.765  24.448   6.852 -0.1692 -0.0520 -0.2267
73408W        W16346   5.899  22.498   3.153 -0.1803  0.0677 -0.3661
73409W        W16347   7.155  23.544   7.162 -0.1565 -0.2943 -0.0058
73410W        W16348   5.589  23.784   4.276 -0.2297  0.2187 -0.0046
73411W        W16349   5.324  24.157   4.587 -0.3130  0.3006  0.3656
73412W        W16350   2.474  22.786   5.684  0.1699  0.2537 -0.3235
73413W        W16351   6.346  25.082   5.762  0.4258 -0.1717 -0.2623
73414W        W16352   5.139  21.922   2.684  0.1029 -0.1793 -0.3443
73415W        W16353   6.929  22.372   6.134 -0.1643  0.2058  0.0157
73416W        W16354   4.587  24.910   3.657 -0.0527 -0.0906 -0.2771
73417W        W16355   6.156  23.270   4.469  0.3355 -0.0074 -0.4265
73418W        W16356   6.073  22.136   5.241 -0.0744 -0.0063 -0.4410
73419W        W16357   3.940  22.799   4.488 -0.2023 -0.3085 -0.0660
73420W        W16358   3.549  26.072   8.242  0.2104 -0.1935 -0.0563
73421W        W16359   5.048  23.033   3.098  0.0044  0.1853  0.0409
73422W        W16360   5.600  23.345   2.291  0.4017 -0.0812  0.2138
73423W        W16361   6.729  24.527   5.433 -0.0229  0.3409 -0.0823
73424W        W16362   6.681  23.341   6.235 -0.0402 -0.1396 -0.4737
73425W        W16363   6.027  21.900   4.761 -0.2464 -0.2419 -0.2455
73426W        W16364   7.132  21.910   6.009 -0.0851  0.2271  0.1129
73427W        W16365   2.909  24.449   5.353 -0.0203 -0.2827 -0.1474
73428W        W16366   6.221  22.520   4.977 -0.0509  0.0295  0.0378
73429W        W16367   5.992  24.327   5.046  0.0636  0.0668  0.3433
73430W        W16368   3.504  24.784   5.659 -0.1313 -0.0484 -0.0897
73431W        W16369   4.763  25.025   5.092  0.0038 -0.4845 -0.0705
73432W        W16370   7.181  22.760   6.003 -0.2124 -0.2250  0.0509
73433W        W16371   7.125  22.982   7.017  0.0059  0.1897  0.0286
73434W        W16372   5.644  23.513   4.728 -0.4442 -0.2027 -0.1726
73435W        W16373   6.152  24.508   7.205  0.2089 -0.1186 -0.0186
73436W        W16374   8.720  24.595   6.167  0.2201  0.1224  0.2421
73437W        W16375   4.855  24.320   6.067  0.1518  0.0870  0.0605
73438W        W16376   6.672  23.464   7.045 -0.0028  0.3671 -0.2062
73439W        W16377   7.329  23.506   3.923 -0.1592 -0.0474  0.1545
73440W        W16378   4.076  24.933   4.460 -0.2208 -0.2708  0.1656
73441W        W16379   3.419  23.497   8.391  0.2022 -0.2010 -0.0358
73442W        W16380   4.532  22.931   5.575  0.0627  0.1844  0.0669
73443W        W16381   6.200  22.994   6.243 -0.1004 -0.1229  0.1872
73444W        W16382   4.203  21.258   4.945  0.0424 -0.4165 -0.1037
73445W        W16383   4.562  24.947   4.206  0.1158 -0.1880 -0.0208
73446W        W16384   4.776  25.050   7.183 -0.0277  0.2479  0.2491
73447W        W16385   3.003  24.671   6.254 -0.1553  0.0321  0.2600
73448W        W16386   4.446  26.271   3.782  0.0219  0.0188  0.0242
73449W        W16387   6.467  24.188   4.321  0.1703  0.0237  0.1144
73450W        W16388   6.436  24.894   4.323  0.1648 -0.2248  0.2636
73451W        W16389   5.346  25.461   5.594  0.0105 -0.1738 -0.0423
73452W        W16390   4.348  23.641   3.628  0.3879 -0.1819  0.1465
73453W        W16391   3.743  23.730   5.516  0.0690 -0.2629  0.1116
73454W        W16392   2.330  24.028   4.562 -0.0790 -0.2176 -0.0575
73455W        W16393   4.711  23.609   4.015 -0.3909  0.3054 -0.0379
73456W        W16394   4.145  24.838   5.162 -0.0317 -0.0498  0.0626
73457W        W16395   6.516  23.882   6.618  0.0734  0.0503 -0.2107
73458W        W16396   7.683  21.293   3.258  0.2551  0.0918 -0.4318
73459W        W16397   6.435  24.582   4.997 -0.2142  0.0459  0.0151
73460W        W16398   6.604  22.131   4.134 -0.0445 -0.0344  0.2899
73461W        W16399   6.557  24.600   5.915 -0.1528 -0.0271 -0.1986
73462W        W16400   5.286  24.171   6.254 -0.0189  0.0216 -0.1140
73463W        W16401   4.881  22.285   2.211  0.3093  0.1983 -0.0779
73464W        W16402   5.010  24.790   6.292 -0.0242  0.0415 -0.0688
73465W        W16403   6.041  20.140   6.904  0.0409 -0.1201  0.0675
73466W        W16404   3.785  25.467   7.450  0.2207 -0.2682 -0.0613
73467W        W16405   5.975  24.456   4.097 -0.2033 -0.0452  0.0173
73468W        W16406   4.181  21.777   4.673  0.1600 -0.0757 -0.0113
73469W        W16407   5.395  22.793   4.434 -0.1278 -0.0686 -0.1057
73470W        W16408   8.011  21.841   5.834 -0.0862  0.1348 -0.2302
73471W        W16409   6.151  24.940   3.125  0.0181 -0.0107  0.0207
73472W        W16410   7.772  22.425   4.854 -0.0471  0.0097  0.2260
73473W        W16411   6.018  25.032   4.130  0.2767 -0.0830 -0.0303
73474W        W16412   4.540  24.570   5.058 -0.1281 -0.0804 -0.2330
73475W        W16413   4.821  24.114   4.881 -0.1715  0.2314  0.1557
73476W        W16414   5.132  22.501   3.809 -0.0383  0.1833 -0.0472
73477W        W16415   7.093  21.750   4.219  0.0668 -0.0188 -0.0650
73478W        W16416   4.833  23.480   5.087 -0.0536 -0.2752  0.0404
73479W        W16417   6.413  20.998   6.551  0.0865 -0.1022 -0.1285
73480W        W16418   4.889  22.921   4.511 -0.1857  0.0731  0.1167
73481W        W16419   7.033  22.072   5.543  0.1490  0.1230 -0.0553
73482W        W16420   5.786  23.998   4.767 -0.2678 -0.0815 -0.0814
73483W        W16421   4.756  23.245   6.462  0.0192 -0.1557 -0.0334
73484W        W16422   5.617  22.010   4.467  0.0191  0.2871 -0.1095
73485W        W16423   5.894  23.523   7.980  0.1419  0.1601  0.2280
73486W        W16424   8.164  21.885   4.926 -0.1567 -0.3692  0.2190
73487W        W16425   7.185  25.602   6.504  0.1273 -0.0848 -0.0982
73488W        W16426   4.996  21.703   5.137 -0.2087 -0.0678 -0.3269
73489W        W16427   5.288  23.169   5.001 -0.0462  0.1302  0.2349
73490W        W16428   4.411  23.221   3.971  0.2883  0.0442 -0.0392
73491W        W16429   4.922  23.964   4.431 -0.0471  0.2924  0.2130
73492W        W16430   6.111  24.948   6.789  0.5897 -0.0259  0.2463
73493W        W16431   4.553  22.139   4.416 -0.1177  0.1877 -0.2035
73494W        W16432   6.413  24.070   2.373 -0.0328 -0.0074 -0.0891
73495W        W16433   6.810  24.183   5.056  0.1360  0.0013 -0.1302
73496W        W16434   5.415  25.462   4.574  0.0082 -0.1945 -0.2998
73497W        W16435   6.843  23.946   5.575  0.1715  0.1827  0.1808
73498W        W16436   6.562  23.544   5.706 -0.0600 -0.0096 -0.0968
73499W        W16437   3.856  22.639   7.275 -0.2494  0.0341  0.0709
73500W        W16438   5.223  24.666   4.305  0.1026 -0.1019 -0.2497
73501W        W16439   6.982  24.003   6.529 -0.0468 -0.1823  0.0719
73502W        W16440   5.280  20.833   4.340  0.1910 -0.0139  0.2140
73503W        W16441   5.653  22.379   5.519 -0.1873 -0.1720  0.1426
73504W        W16442   5.221  25.030   4.871  0.1746 -0.2223 -0.1282
73505W        W16443   7.468  20.866   6.687 -0.2159  0.2244 -0.1896
73506W        W16444   7.538  22.241   6.847  0.3281  0.0977 -0.0206
73507W        W16445   4.723  24.412   4.285 -0.0485 -0.0564  0.2905
73508W        W16446   5.371  20.825   6.573 -0.0912 -0.1134  0.0120
73509W        W16447   6.824  23.146   5.296  0.0361 -0.2052  0.0208
73510W        W16448   5.574  25.685   6.065  0.1547  0.0025 -0.0094
73511W        W16449   4.755  22.921   5.024 -0.0555 -0.1018  0.2730
73512W        W16450   5.653  23.455   5.792  0.1363 -0.0353 -0.1827
73513W        W16451   5.110  23.577   4.702  0.1726  0.1808 -0.0656
73514W        W16452   6.369  25.492   5.428  0.0909  0.2643 -0.2614
73515W        W16453   6.169  24.269   5.958 -0.0445  0.1928  0.0877
73516W        W16454   6.711  22.622   4.244  0.0629 -0.1959  0.0725
73517W        W16455   7.377  24.354   4.991 -0.1960  0.1578 -0.1582
73518W        W16456   6.637  20.788   5.242  0.0175  0.1152  0.2323
73519W        W16457   6.184  21.097   4.267 -0.0728  0.0021  0.0005
73520W        W16458   7.069  21.637   4.751 -0.0088 -0.1264 -0.0904
73521W        W16459   4.143  25.035   7.124 -0.0743 -0.2808 -0.0299
73522W        W16460   3.118  23.319   4.239  0.0454 -0.3887 -0.1059
73523W        W16461   3.963  22.977   4.016 -0.0099 -0.2864  0.0470
73524W        W16462   4.609  24.280   5.568 -0.1185 -0.0520  0.2446
73525W        W16463   5.759  23.548   6.587  0.0172 -0.1969 -0.0955
73526W        W16464   4.403  23.296   4.874  0.1699  0.1714  0.2310
73527W        W16465   4.377  23.644   6.352  0.1379 -0.3011  0.1209
73528W        W16466   5.268  22.443   5.829  0.1124 -0.1372  0.1041
73529W        W16467   5.516  23.491   3.786  0.1249 -0.3181  0.0389
73530W        W16468   4.865  22.557   5.551 -0.4051  0.0402 -0.0611
73531W        W16469   3.539  23.445   5.841  0.2187 -0.0416  0.0401
73532W        W16470   7.026  24.850   5.771 -0.1168 -0.1598  0.1155
73533W        W16471   6.339  25.599   6.588 -0.1238  0.0006  0.4070
73534W        W16472   5.112  23.007   3.960 -0.0696  0.3925 -0.2260
73535W        W16473   7.828  24.025   7.153  0.0871 -0.3654 -0.1960
73536W        W16474   3.026  23.920   4.239 -0.2288 -0.1316  0.0708
73537W        W16475   6.523  21.445   6.366  0.0558  0.0301  0.0021
73538W        W16476   5.552  21.233   7.558  0.2181 -0.3479  0.1328
73539W        W16477   4.861  22.474   4.857  0.2075  0.1305 -0.3087
73540W        W16478   6.937  22.546   5.627  0.1814 -0.2835  0.1174
73541W        W16479   4.920  25.417   4.840  0.1070  0.1583  0.0270
73542W        W16480   7.014  24.711   5.028  0.0787  0.1818  0.0114
73543W        W16481   5.491  23.698   6.178  0.1056  0.0634  0.3154
73544W        W16482   6.746  26.348   6.631 -0.2494 -0.3058  0.2510
73545W        W16483   5.023  21.007   6.968  0.0924  0.0264 -0.0239
73546W        W16484   7.191  24.630   4.520  0.0302  0.0922 -0.1024
73547W        W16485   6.604  24.278   6.370 -0.2614  0.0419 -0.0646
73548W        W16486   6.840  23.223   3.375 -0.3829 -0.0102 -0.1252
73549W        W16487   7.393  23.763   6.423  0.0624  0.0559 -0.0447
73550W        W16488   5.594  23.182   4.221 -0.0113  0.0682 -0.4230
73551W        W16489   4.760  23.007   7.496  0.0406 -0.0409  0.1131
73552W        W16490   5.369  24.210   7.093 -0.1158 -0.0028  0.4411
73553W        W16491   6.953  23.715   6.124  0.2005 -0.1186  0.0613
73554W        W16492   6.593  22.286   6.892  0.1705 -0.1182 -0.0585
73555W        W16493   6.248  21.448   4.586 -0.2193 -0.0158  0.3780
73556W        W16494   4.738  25.268   3.266  0.2909  0.1522  0.0786
73557W        W16495   4.414  24.570   6.304 -0.0698 -0.2711  0.0624
73558W        W16496   5.197  22.048   4.147 -0.0980  0.1597  0.0081
73559W        W16497   6.212  23.475   6.057  0.0897  0.0856  0.0191
73560W        W16498   4.430  23.778   5.045  0.0467 -0.0998 -0.1331
73561W        W16499   5.467  23.780   8.448  0.2024  0.4153 -0.1376
73562W        W16500   5.416  24.338   3.450  0.1587  0.0977 -0.1350
73563W        W16501   6.939  23.493   4.285 -0.4404  0.0417  0.1142
73564W        W16502   5.702  24.124   5.955 -0.0657  0.0533  0.1999
73565W        W16503   6.365  26.541   8.216 -0.0464 -0.3555  0.1317
73566W        W16504   5.515  26.026   4.940 -0.1667 -0.0368 -0.3136
73567W        W16505   7.230  23.867   5.031 -0.1205  0.0177 -0.0462
73568W        W16506   4.097  20.552   6.250 -0.1380 -0.4399  0.2101
73569W        W16507   4.479  25.025   4.736  0.2624  0.2212  0.2354
73570W        W16508   3.975  23.231   3.562  0.2125  0.0466 -0.1563
73571W        W16509   6.521  22.282   6.396  0.2454  0.0729 -0.3469
73572W        W16510   3.955  22.701   6.202 -0.1782  0.2191 -0.1393
73573W        W16511   5.878  22.601   3.811 -0.3405  0.0889  0.0430
73574W        W16512   5.449  26.051   6.765  0.1646  0.1730  0.0474
73575W        W16513   5.796  23.899   7.073  0.3659  0.1053  0.0382
73576W        W16514   3.588  31.264  12.515  0.3675 -0.0996 -0.0279
73577W        W16515   4.307  24.244   8.398  0.2653 -0.2600 -0.1415
73578W        W16516   7.283  21.339   6.817 -0.1685 -0.2406  0.1968
73579W        W16517   7.178  24.011   9.304 -0.1489  0.0793 -0.1458
73580W        W16518   2.941  23.442   8.176  0.0391  0.0096  0.2228
73581W        W16519   5.853  22.889   7.208 -0.2079 -0.3043  0.1204
73582W        W16520   6.318  23.506   8.363 -0.0027  0.1937  0.0454
73583W        W16521   6.322  23.588   8.848  0.1312  0.1495  0.0043
73584W        W16522   5.186  23.363   7.352 -0.1854  0.1121  0.0710
73585W        W16523   2.796  22.263   9.326  0.1663  0.2737 -0.0361
73586W        W16524   4.644  21.984   8.421  0.0259 -0.0357 -0.1289
73587W        W16525   3.611  21.987   9.759 -0.2170  0.3321  0.3160
73588W        W16526   8.508  23.759   9.195  0.0415 -0.4423 -0.1372
73589W        W16527   4.189  23.389   7.746  0.0483 -0.1140 -0.1859
73590W        W16528   3.447  24.585  10.097 -0.2002  0.2245  0.0096
73591W        W16529   4.314  23.469   8.784  0.2365 -0.1463 -0.2869
73592W        W16530   7.071  24.998   8.519 -0.2213  0.1541 -0.2121
73593W        W16531   4.568  22.723   9.016 -0.0144  0.0008 -0.0898
73594W        W16532   5.840  25.052   7.266  0.2345  0.0432 -0.1506
73595W        W16533   4.591  24.601   7.347 -0.1901  0.1790 -0.0237
73596W        W16534   3.697  22.894   9.579 -0.1204 -0.1253 -0.1876
73597W        W16535   4.233  25.200   9.540  0.2445  0.0356 -0.2632
73598W        W16536   7.333  22.690   8.950  0.2815  0.2528  0.0313
73599W        W16537   7.647  22.158   8.319  0.0784 -0.1586  0.1377
73600W        W16538   5.720  24.808   9.072  0.2758  0.1509  0.2653
73601W        W16539   6.711  25.369   8.616  0.0438 -0.2545 -0.2522
73602W        W16540   3.879  24.364  10.025  0.0068  0.2538 -0.1091
73603W        W16541   3.999  25.781   8.779 -0.0981  0.2982 -0.1823
73604W        W16542   4.792  25.004   9.011  0.3458 -0.0729  0.0495
73605W        W16543   6.652  23.961   8.490 -0.1063  0.1839 -0.3273
73606W        W16544   4.028  24.634   7.513  0.0272 -0.2287 -0.1613
73607W        W16545   5.820  25.161   9.406  0.0199 -0.1333 -0.2458
73608W        W16546   7.354  24.820   9.342 -0.0451 -0.0852 -0.3258
73609W        W16547   5.133  24.760   6.974 -0.1840 -0.0046  0.1645
73610W        W16548   4.749  24.522   9.290 -0.3456  0.0746 -0.1699
73611W        W16549   3.782  24.216   8.681 -0.0538  0.0001 -0.2281
73612W        W16550   5.673  25.135   7.693  0.0422  0.0223 -0.1054
73613W        W16551   6.575  23.249   7.802 -0.1995  0.0916  0.0056
73614W        W16552   4.436  23.673   7.287 -0.2314 -0.1274 -0.0835
73615W        W16553   6.603  21.943   7.288  0.0136 -0.1526 -0.1271
73616W        W16554   5.994  21.410   9.312  0.0835  0.0148 -0.0424
73617W        W16555   4.041  25.679   9.299 -0.1580  0.1773 -0.0059
73618W        W16556   6.395  23.753   9.852  0.0257 -0.0672  0.0654
73619W        W16557   5.471  23.869   9.504  0.4393 -0.3033  0.0437
73620W        W16558   6.203  21.514   9.894  0.0315  0.0003  0.0059
73621W        W16559   4.756  24.703  10.186  0.0458  0.1481  0.0472
73622W        W16560   2.552  22.361  10.032  0.0894 -0.0859  0.2350
73623W        W16561   7.216  23.353   7.635 -0.1137 -0.0565 -0.0750
73624W        W16562   7.146  25.425   9.171  0.1674 -0.0507 -0.1611
73625W        W16563   6.237  25.102   7.729 -0.1074  0.0598  0.0806
73626W        W16564   2.234  23.647   7.641 -0.1517  0.0124 -0.1258
73627W        W16565   4.420  23.163   9.176  0.1831 -0.4056 -0.1520
73628W        W16566   7.066  21.961   7.449  0.1441  0.1359  0.0298
73629W        W16567   5.312  23.449   7.793  0.1113 -0.0234 -0.1122
73630W        W16568   3.399  25.467   9.733  0.0904 -0.1117 -0.2332
73631W        W16569   5.953  23.856   7.552  0.4498  0.1795  0.1358
73632W        W16570   7.202  22.000   9.888 -0.2567 -0.3038  0.2091
73633W        W16571   8.604  21.919   8.887  0.3652  0.1477  0.1258
73634W        W16572   4.582  24.145   6.929 -0.1755  0.1540 -0.1255
73635W        W16573   5.579  24.950   6.863  0.1216  0.1338  0.0736
73636W        W16574   7.055  24.134   8.794 -0.1710  0.2109  0.0120
73637W        W16575   7.222  23.966   7.422  0.0131 -0.1327 -0.2752
73638W        W16576   3.911  25.328   8.453  0.0434  0.0840 -0.0287
73639W        W16577   5.722  25.958   5.702  0.0961  0.1845  0.0620
73640W        W16578   4.090  23.926   9.075  0.2408 -0.0423  0.2774
73641W        W16579   3.586  24.508   7.755  0.0089 -0.1450  0.2637
73642W        W16580   8.064  24.885   9.776 -0.0544  0.0860  0.0315
73643W        W16581   4.225  24.437   8.969  0.2612  0.2072 -0.3420
73644W        W16582   6.500  21.229   7.599  0.0755 -0.0153 -0.1022
73645W        W16583   7.191  22.351   7.730 -0.0281  0.1401  0.0215
73646W        W16584   4.098  23.987   7.728  0.2402 -0.3506  0.4417
73647W        W16585   7.368  25.682   9.562 -0.0105 -0.2079 -0.0899
73648W        W16586   6.832  23.493   8.708  0.0784 -0.1097 -0.0138
73649W        W16587   5.224  24.775   8.777  0.1538  0.0733  0.1164
73650W        W16588   0.949  25.690   8.416  0.0784  0.0279 -0.0745
73651W        W16589   2.770  22.712   8.510  0.2648 -0.1212  0.1243
73652W        W16590   3.921  22.774   9.152 -0.0275 -0.0964 -0.0496
73653W        W16591   4.196  22.824   8.702 -0.4739  0.5155  0.1026
73654W        W16592   7.615  23.075   7.926  0.3590 -0.0831  0.1703
73655W        W16593   5.064  23.725   8.178 -0.1667 -0.1775  0.0544
73656W        W16594   5.298  24.793   7.755 -0.0984 -0.4280  0.2353
73657W        W16595   6.970  25.803   7.080 -0.2102 -0.2474  0.0596
73658W        W16596   7.324  25.053   9.832  0.1333  0.1949 -0.2253
73659W        W16597   5.305  25.959  10.093 -0.1675 -0.0730 -0.2877
73660W        W16598   3.409  22.441   9.697 -0.2551 -0.1221  0.3210
73661W        W16599   4.499  22.984   7.922  0.2675 -0.1178 -0.3583
73662W        W16600   4.395  25.053   8.715 -0.3762 -0.1700  0.1717
73663W        W16601   5.878  24.336   8.173  0.2684 -0.0779 -0.0171
73664W        W16602   3.185  21.993   7.424  0.0884 -0.0105 -0.1776
73665W        W16603   7.979  25.136   8.982 -0.1384 -0.2060 -0.0477
73666W        W16604   6.662  24.591   7.257  0.0295 -0.0650 -0.2230
73667W        W16605   5.764  23.590   9.268 -0.0644  0.3467  0.1648
73668W        W16606   6.589  22.298   8.365 -0.1020  0.1816  0.1023
73669W        W16607   5.675  23.002   7.848 -0.1545  0.1165 -0.2577
73670W        W16608   6.673  25.231   7.904 -0.1663 -0.1466  0.1674
73671W        W16609   5.616  25.540   7.383 -0.0801 -0.4057  0.1743
73672W        W16610   3.150  23.685   7.734  0.0030  0.1216 -0.0422
73673W        W16611   5.428  24.370   9.173 -0.0271 -0.0595  0.4275
73674W        W16612   7.268  21.954   8.054  0.2009  0.0546 -0.2207
73675W        W16613   3.882  24.310   8.118 -0.2390 -0.2316  0.2101
73676W        W16614   6.676  21.835   9.845  0.2420 -0.1142  0.1808
73677W        W16615   6.154  23.043   7.997  0.2796  0.2404 -0.0481
73678W        W16616   6.410  23.726   7.761  0.2837 -0.1143 -0.0089
73679W        W16617   5.919  23.090   8.447  0.2513 -0.0555 -0.0973
73680W        W16618   6.683  22.365   7.602 -0.1207 -0.0468 -0.2896
73681W        W16619   4.683  23.063   6.998  0.1923  0.0107 -0.3263
73682W        W16620   5.469  24.977   9.698  0.0094  0.0218 -0.2828
73683W        W16621   6.283  23.460   6.551 -0.0504 -0.2199  0.1216
73684W        W16622   6.164  26.096   7.593  0.2017 -0.1842  0.2400
73685W        W16623   2.570  24.416   9.720  0.2430 -0.1919 -0.2763
73686W        W16624   7.543  24.614   8.388 -0.1829 -0.0295 -0.1752
73687W        W16625   7.626  21.603   8.141 -0.0002 -0.2920  0.0924
73688W        W16626   5.395  23.816   7.371 -0.0359  0.1550 -0.1195
73689W        W16627   6.232  21.898   9.525  0.0058 -0.1324 -0.3108
73690W        W16628   5.037  24.473   7.480 -0.2045  0.1469 -0.1996
73691W        W16629   4.782  23.467   7.701  0.1523 -0.3536  0.0254
73692W        W16630   7.821  22.000   9.957  0.3059  0.2932  0.0933
73693W        W16631   5.748  23.529   8.741  0.2706 -0.3112 -0.2798
73694W        W16632   4.277  25.269   6.649 -0.0787 -0.1335 -0.1205
73695W        W16633   7.365  22.279   9.333 -0.0892  0.1277 -0.0274
73696W        W16634   5.859  23.599   9.876 -0.0495 -0.3484 -0.2744
73697W        W16635   6.809  23.648   7.510 -0.0801  0.3674 -0.1267
73698W        W16636   6.053  21.094   7.438 -0.2377  0.3113  0.1007
73699W        W16637   3.447  25.964   9.570  0.2153 -0.0947 -0.0829
73700W        W16638   6.108  24.815   8.553 -0.2528  0.2645 -0.1780
73701W        W16639   5.188  22.753   9.503  0.0823  0.0461 -0.4306
73702W        W16640   4.693  24.598   8.748 -0.1942  0.0358 -0.0169
73703W        W16641   6.629  24.838   8.367  0.0613 -0.0738  0.5419
73704W        W16642   6.964  24.470   9.332 -0.1504 -0.1806  0.0625
73705W        W16643   4.697  24.989   6.633  0.1389 -0.1153 -0.2637
73706W        W16644   6.797  21.830   8.208 -0.0952 -0.1960  0.2475
73707W        W16645   0.884  24.551  10.128 -0.0990 -0.3266 -0.2165
73708W        W16646   4.659  23.663   6.831 -0.1101  0.0435  0.0955
73709W        W16647   4.135  24.085   6.558 -0.0118 -0.1139 -0.2959
73710W        W16648   6.650  23.033   8.280  0.1543  0.0648 -0.0737
73711W        W16649   6.860  23.936   7.925 -0.1489 -0.0157 -0.1878
73712W        W16650   2.109  22.828   9.204 -0.0169  0.0032  0.1258
73713W        W16651   5.579  23.118   9.500  0.0673  0.2687  0.2800
73714W        W16652   2.458  23.517   9.989 -0.2508  0.3000  0.1716
73715W        W16653   5.925  23.066   6.662 -0.1243  0.1357  0.0525
73716W        W16654   4.982  23.099   5.524 -0.1377 -0.2120 -0.1148
73717W        W16655   8.439  20.227   9.604 -0.0876 -0.2425  0.2041
73718W        W16656   4.365  24.381  10.204 -0.0326 -0.3041  0.1273
73719W        W16657   3.441  26.459   9.533 -0.2525  0.2398 -0.1035
73720W        W16658   6.277  25.131   9.548 -0.1673  0.0035  0.1513
73721W        W16659   4.653  23.007   8.487 -0.0858  0.0718 -0.2485
73722W        W16660   5.537  24.659   7.311  0.1004 -0.1961 -0.0467
73723W        W16661   5.592  23.973   8.938 -0.1788  0.0093 -0.0514
73724W        W16662   5.171  22.278   8.941 -0.0313  0.2993 -0.1324
73725W        W16663   5.329  22.945   7.545  0.0647  0.3680  0.0797
73726W        W16664   7.289  23.270   8.696 -0.1236 -0.0355 -0.0705
73727W        W16665   6.290  22.438   9.527  0.1062  0.0932 -0.0435
73728W        W16666   5.253  23.410   9.848 -0.2735 -0.0045 -0.0030
73729W        W16667   4.090  21.074   9.099  0.1889 -0.1543  0.0290
73730W        W16668   6.584  25.756   7.453  0.0742  0.4539 -0.1244
73731W        W16669   4.929  23.839   7.214  0.2833 -0.2415  0.0146
73732W        W16670   1.619  24.277   9.901  0.0485  0.1448 -0.0715
73733W        W16671   4.740  23.652   8.607 -0.0131  0.0365 -0.0471
73734W        W16672   7.199  22.266   8.570 -0.0067 -0.0157  0.3214
73735W        W16673   3.935  24.898   8.968  0.1012 -0.1912 -0.1336
73736W        W16674   5.425  25.509   6.909 -0.0128 -0.0722  0.0150
73737W        W16675   2.513  23.132   9.651  0.2361  0.0622  0.2450
73738W        W16676   6.274  21.916   8.027 -0.1193  0.0958  0.5918
73739W        W16677   4.525  24.083   7.514 -0.1613  0.2482 -0.1636
73740W        W16678   4.767  21.773   8.940  0.1757 -0.3071  0.1571
73741W        W16679   6.911  23.526   6.601  0.0690 -0.0879 -0.2662
73742W        W16680   4.841  22.407   9.287 -0.4596 -0.0969 -0.4546
73743W        W16681   8.038  24.595   7.607 -0.0269  0.0835 -0.0979
73744W        W16682   5.776  22.304   9.649  0.0970  0.1247 -0.3998
73745W        W16683   4.240  23.656   9.441  0.1352 -0.1419 -0.1595
73746W        W16684   5.125  22.263   9.674 -0.2187  0.1286  0.0995
73747W        W16685   7.574  23.567   9.194  0.1720  0.0778  0.0146
73748W        W16686   5.055  23.288   8.450  0.0183  0.1672  0.0230
73749W        W16687   7.725  22.610   8.510  0.3745  0.3384 -0.2927
73750W        W16688   5.457  23.436  10.360 -0.1282 -0.0358  0.2091
73751W        W16689   7.675  23.640   8.677 -0.0155  0.2522 -0.0912
73752W        W16690   6.224  24.254   6.703 -0.3108 -0.0500  0.0509
73753W        W16691   4.700  24.930   9.610 -0.2675 -0.0080  0.3847
73754W        W16692   7.085  22.991   7.969 -0.3739 -0.2691  0.1584
73755W        W16693   5.526  22.483   9.226 -0.1271 -0.0637  0.3602
73756W        W16694   6.336  23.652   9.329 -0.1373  0.4952  0.2037
73757W        W16695   7.299  23.351   8.239  0.1276  0.3101  0.2468
73758W        W16696   6.458  23.288  12.248 -0.0231 -0.1602  0.2031
73759W        W16697   8.499  22.898   8.346  0.1578  0.2649  0.0045
73760W        W16698   5.689  23.378   7.512 -0.0529  0.0726 -0.1662
73761W        W16699   3.897  24.619   9.434  0.2462  0.2025  0.0714
73762W        W16700   5.482  23.209   8.244 -0.3358  0.0410  0.0870
73763W        W16701   5.188  25.408   7.761  0.2581  0.1747  0.0448
73764W        W16702   5.333  24.329   7.961  0.5065  0.1662  0.1366
73765W        W16703   6.259  22.428   7.963  0.1357  0.1677  0.0548
73766W        W16704   3.301  23.253   9.400  0.0883 -0.1280  0.1724
73767W        W16705   4.899  22.719   6.004  0.0229 -0.2319 -0.0927
73768W        W16706   5.587  24.699   8.286  0.1659  0.3184  0.0560
73769W        W16707   6.118  25.635   9.236  0.0183  0.2583  0.2025
73770W        W16708   5.606  20.950   8.049  0.1692  0.0764 -0.0603
73771W        W16709   4.864  24.979   7.964 -0.0803  0.0309 -0.1225
73772W        W16710   6.008  22.197   9.145 -0.0621  0.3357  0.0097
73773W        W16711   5.059  24.217   9.557 -0.2583 -0.4540 -0.1098
73774W        W16712   5.364  25.288   8.884  0.3893 -0.1347  0.1127
73775W        W16713   3.961  22.414   7.869  0.1718 -0.3153  0.0051
73776W        W16714   6.454  22.937   9.554  0.0417  0.0327  0.0406
73777W        W16715   5.323  25.347   9.405  0.1027 -0.1143 -0.3376
73778W        W16716   4.543  24.052   8.812 -0.1438 -0.3210 -0.3105
73779W        W16717   6.804  22.554   8.695 -0.0158 -0.4207  0.2742
73780W        W16718   3.042  24.165   9.592  0.3433  0.2896 -0.0741
73781W        W16719   6.907  23.000   8.787 -0.0897  0.2856  0.1974
73782W        W16720   4.514  24.089   9.326  0.1497 -0.2361 -0.0098
73783W        W16721   5.557  23.882   7.916 -0.0139 -0.1512  0.0381
73784W        W16722   5.378  24.323   8.565 -0.0236 -0.1234 -0.0068
73785W        W16723   5.297  25.112   7.360 -0.0094  0.1092 -0.1567
73786W        W16724   7.901  25.896   7.921 -0.0374 -0.0299 -0.1252
73787W        W16725   5.157  23.779   8.952 -0.0250  0.0892 -0.0100
73788W        W16726   5.645  24.490  10.099  0.1471  0.0822  0.1009
73789W        W16727   3.006  23.996   8.806 -0.3636 -0.2252  0.3131
73790W        W16728   4.220  24.836   9.991  0.1657  0.2619 -0.1390
73791W        W16729   4.439  25.750   7.821 -0.0294  0.1445  0.0038
73792W        W16730   7.552  24.231   7.940  0.0653 -0.0720  0.0705
73793W        W16731   4.964  25.195   8.587  0.4013 -0.0354 -0.0658
73794W        W16732   6.244  21.640   7.603  0.0130 -0.1441 -0.1653
73795W        W16733   8.948  23.865   8.732 -0.1549  0.1320 -0.3929
73796W        W16734   8.303  21.554   7.770 -0.3142  0.2166  0.0782
73797W        W16735   5.019  24.281   8.884 -0.1072  0.1113  0.0295
73798W        W16736   5.828  22.534   7.601  0.1984  0.2154  0.2140
73799W        W16737   7.105  24.360   7.723 -0.3633  0.0224 -0.0886
73800W        W16738   3.605  23.344   7.759 -0.2214 -0.0953 -0.0788
73801W        W16739   4.732  23.630   9.191 -0.1229 -0.0193 -0.1511
73802W        W16740   7.467  19.869   8.669  0.0824 -0.3718 -0.1011
73803W        W16741   5.594  24.054   6.628  0.0695  0.3919  0.0477
73804W        W16742   5.107  22.733   9.004  0.1693 -0.0446 -0.0481
73805W        W16743   4.967  26.736   7.921  0.0612 -0.0339 -0.0923
73806W        W16744   5.147  24.649   9.834 -0.2699  0.4032  0.0359
73807W        W16745   5.043  25.513  10.219  0.0107 -0.2776  0.1066
73808W        W16746   3.174  23.052   8.383 -0.1163  0.3846  0.5123
73809W        W16747   7.913  23.478   7.890  0.0596 -0.0899  0.0639
73810W        W16748   1.771  23.200   8.970  0.0739 -0.2616  0.0125
73811W        W16749   3.766  24.185   7.418  0.0537  0.0320 -0.0520
73812W        W16750   6.784  22.604   8.046 -0.0124 -0.1370 -0.1915
73813W        W16751   6.735  25.105  10.054  0.0499  0.0464  0.2291
73814W        W16752   3.976  23.991  10.323  0.0185 -0.2107  0.0819
73815W        W16753   5.049  23.949   7.731 -0.2814 -0.0339  0.1540
73816W        W16754   6.185  23.208   7.519  0.0090  0.0337 -0.0675
73817W        W16755   3.397  22.617   8.089 -0.2791 -0.0648 -0.1759
73818W        W16756   5.449  23.137   9.018  0.3480 -0.1915  0.1343
73819W        W16757   3.134  24.241   7.679  0.1411 -0.0571  0.0508
73820W        W16758   4.589  22.329   9.710  0.1296  0.0182 -0.2432
73821W        W16759   4.353  22.863   9.539 -0.0613 -0.0190 -0.2365
73822W        W16760   8.096  24.360   8.033 -0.0460  0.2592  0.0293
73823W        W16761   6.761  23.852   9.492  0.0639  0.1710 -0.3351
73824W        W16762   6.319  23.945   7.061 -0.1461  0.2524 -0.0085
73825W        W16763   7.239  22.850   8.452  0.0192 -0.1130  0.0669
73826W        W16764   6.328  26.036  10.132 -0.1017  0.0643 -0.1008
73827W        W16765   4.371  23.924   9.868  0.0790  0.1054 -0.0603
73828W        W16766   6.428  26.918   9.483 -0.4300  0.2843 -0.0342
73829W        W16767   8.363  24.325   8.438 -0.0668  0.0817 -0.2074
73830W        W16768   5.635  22.094   8.827  0.1667 -0.0869  0.1937
73831W        W16769   3.779  23.157   8.782  0.1173 -0.2991 -0.1978
73832W        W16770   4.590  25.981   7.259  0.1984 -0.5251 -0.0477
73833W        W16771   6.050  22.806   9.934 -0.0237 -0.0475  0.3017
73834W        W16772   6.741  25.851   6.692  0.1035 -0.0576  0.1435
73835W        W16773   5.437  23.964  10.034 -0.2496 -0.1424 -0.0940
73836W        W16774   4.844  24.117   8.444  0.2020 -0.1043  0.1585
73837W        W16775   4.249  23.726   8.322  0.1268 -0.0414 -0.2446
73838W        W16776   5.959  25.546   8.364 -0.2091  0.1061  0.1806
73839W        W16777   6.599  23.254   9.146  0.0214  0.0267  0.0327
73840W        W16778   6.397  23.121   8.679 -0.1067  0.0586  0.0783
73841W        W16779   7.415  23.601   9.710 -0.0627 -0.3248 -0.0021
73842W        W16780   6.013  23.914   8.575 -0.1626 -0.1217 -0.0019
73843W        W16781   7.257  21.902   9.039 -0.1469  0.0472  0.1900
73844W        W16782   6.387  21.812   8.524 -0.3464  0.2230 -0.0999
73845W        W16783   4.574  26.657  10.385 -0.2586 -0.0349  0.0702
73846W        W16784   4.158  24.130   7.161 -0.2526  0.2145  0.1186
73847W        W16785   4.630  23.345   5.970 -0.4125  0.1493 -0.2167
73848W        W16786   4.036  25.687   8.135  0.3008  0.0166 -0.1448
73849W        W16787   3.970  24.092   9.507 -0.0479  0.2110  0.3791
73850W        W16788   4.797  24.177  10.221  0.1184 -0.0426  0.0792
73851W        W16789   7.185  25.140   7.752  0.4971 -0.0054 -0.3256
73852W        W16790   4.892  23.192   8.894 -0.0577 -0.0027  0.0094
73853W        W16791   4.079  22.128   8.379  0.2567  0.1981  0.1430
73854W        W16792   7.492  24.123   8.569  0.0291 -0.1037 -0.0071
73855W        W16793   6.203  24.768   9.060 -0.2740 -0.2528  0.1594
73856W        W16794   5.306  22.579   8.004 -0.1868 -0.1569  0.1190
73857W        W16795   2.464  24.230   6.914  0.0699  0.0417  0.2133
73858W        W16796   3.820  23.727   8.657 -0.1717 -0.1943 -0.0278
73859W        W16797   3.894  25.515   9.924  0.0414 -0.2052  0.0729
73860W        W16798   5.374  25.105   8.149  0.1223  0.0640  0.1243
73861W        W16799   6.833  24.804   6.413 -0.2208 -0.0047  0.0219
73862W        W16800   3.548  23.323   9.900  0.1562  0.1945 -0.3604
73863W        W16801   7.155  23.840   8.353 -0.1924  0.3362  0.0240
73864W        W16802   8.290  23.634   7.517 -0.3743 -0.1190  0.5457
73865W        W16803   8.078  20.952   9.653  0.3941 -0.1397  0.1903
73866W        W16804   7.363  22.814   7.456  0.2433  0.0621  0.3260
73867W        W16805   7.515  25.108   8.847 -0.3274 -0.1791 -0.2706
73868W        W16806   1.846  22.040   9.969  0.0357  0.1094 -0.2503
73869W        W16807   5.829  22.659   8.141  0.0192 -0.0015  0.2882
73870W        W16808   6.222  23.955   8.095 -0.0960  0.0779 -0.0265
73871W        W16809   4.371  24.471   7.813  0.0990  0.3122  0.0327
73872W        W16810   4.622  23.898   8.001 -0.0221  0.0292 -0.1893
73873W        W16811   6.322  24.370   8.465 -0.1634 -0.1413 -0.0981
73874W        W16812   5.039  24.687   8.316 -0.0379  0.0572 -0.0885
73875W        W16813   8.223  21.593   7.066  0.0945  0.2721  0.1726
73876W        W16814   4.144  27.555  10.238  0.0959 -0.0191 -0.1014
73877W        W16815   4.720  26.538   9.110 -0.0564  0.1270 -0.0469
73878W        W16816   7.832  23.942   8.228 -0.1347 -0.0207 -0.1279
73879W        W16817   6.063  23.262   9.600  0.0360 -0.0566  0.0844
73880W        W16818   4.468  25.200   8.128 -0.0000  0.3762  0.3526
73881W        W16819   5.165  23.477   9.357 -0.0371 -0.2366 -0.1988
73882W        W16820   7.186  24.092   9.789 -0.1367 -0.2313  0.0395
73883W        W16821   3.733  23.698   9.360 -0.0718  0.0573  0.1668
73884W        W16822   5.006  23.001   7.988 -0.0258  0.0468  0.0368
73885W        W16823   6.497  24.642   9.506 -0.1866 -0.1223  0.3001
73886W        W16824   4.862  23.723   9.747  0.0608 -0.0748 -0.1493
73887W        W16825   5.638  28.431   3.332 -0.1748 -0.0130 -0.2636
73888W        W16826   5.434  28.161   1.762 -0.0782 -0.3579  0.0299
73889W        W16827   7.860  26.295   0.293 -0.0468  0.2002  0.2882
73890W        W16828   7.389  26.104   1.414  0.1998 -0.0120  0.0370
73891W        W16829   5.631  27.433   0.501 -0.2536  0.2333 -0.1415
73892W        W16830   6.668  29.085   0.727  0.4008  0.2227  0.0790
73893W        W16831   5.859  26.457   3.206  0.1613 -0.0344 -0.2812
73894W        W16832   7.940  29.452   1.842  0.0548  0.2655 -0.0667
73895W        W16833   8.452  27.324   2.016  0.1580  0.0736  0.1231
73896W        W16834   5.919  28.335   0.927  0.1806  0.2226  0.0186
73897W        W16835   8.212  27.308   3.648  0.0207  0.0864 -0.1401
73898W        W16836   5.478  28.022   2.533 -0.1724 -0.2460 -0.1667
73899W        W16837   5.765  26.195  31.025 -0.0250  0.3631  0.0769
73900W        W16838   3.579  26.183   2.169 -0.1703 -0.0270  0.2509
73901W        W16839   6.576  27.987   2.440  0.1891 -0.1808 -0.0325
73902W        W16840   4.911  28.674  31.447 -0.1297 -0.1860  0.0360
73903W        W16841   5.888  27.043   3.818 -0.1563  0.3026 -0.0334
73904W        W16842   6.073  27.296   2.728  0.3287 -0.2468 -0.3398
73905W        W16843   5.559  29.622   1.661 -0.1577  0.2210  0.1728
73906W        W16844   5.808  26.223   3.629 -0.1932 -0.2295  0.0706
73907W        W16845   6.502  25.246   2.900  0.0117  0.0612 -0.0272
73908W        W16846   6.792  28.219   0.447 -0.2363 -0.0727  0.2242
73909W        W16847   5.651  28.505   0.368  0.1759  0.0877 -0.1123
73910W        W16848   4.953  26.942   1.759  0.0119  0.0087 -0.0464
73911W        W16849   4.435  25.580   3.011 -0.0628 -0.0623  0.2540
73912W        W16850   6.555  26.061   1.153  0.1542  0.1274  0.1171
73913W        W16851   7.465  27.574   2.119 -0.0075  0.0563 -0.0236
73914W        W16852   6.603  28.066   2.926 -0.1279  0.2828 -0.2455
73915W        W16853   7.136  28.502   2.485  0.2306 -0.2423  0.1719
73916W        W16854   7.437  25.752   3.931  0.1000  0.0019  0.0319
73917W        W16855   3.677  27.871   2.159  0.1478  0.0697 -0.1020
73918W        W16856   5.084  28.778   0.369  0.3029  0.0870 -0.2660
73919W        W16857   5.401  28.452   2.172 -0.0062 -0.0854 -0.0591
73920W        W16858   8.105  27.224   1.277  0.1000 -0.0816 -0.2948
73921W        W16859   8.014  27.259   2.748 -0.1244  0.1356  0.0329
73922W        W16860   5.157  30.245   2.678  0.0650 -0.2687  0.0464
73923W        W16861   3.273  30.623   1.053  0.0151 -0.0656 -0.2616
73924W        W16862   4.813  29.443   3.199  0.0428  0.0768 -0.3342
73925W        W16863   5.235  28.701   3.531  0.2173 -0.1534  0.3837
73926W        W16864   5.765  27.398   3.502  0.1299  0.0355 -0.1685
73927W        W16865   5.821  27.857   1.524  0.0068  0.1314  0.1020
73928W        W16866   6.189  28.364   2.469 -0.0857 -0.0348  0.4863
73929W        W16867   5.593  27.985   3.775 -0.0013 -0.2832 -0.5712
73930W        W16868   4.989  29.256   2.260  0.2452  0.2694 -0.3404
73931W        W16869   7.714  25.952   3.403 -0.1334  0.0766  0.1164
73932W        W16870   4.750  29.778   1.117  0.0026 -0.0803  0.2941
73933W        W16871   7.104  26.740   1.095 -0.0144  0.1290 -0.0026
73934W        W16872   5.999  27.512  31.514  0.0819  0.1082  0.1889
73935W        W16873   7.368  26.644  31.665 -0.0449 -0.2352  0.0257
73936W        W16874   4.633  25.339   2.038 -0.3075  0.2172  0.2029
73937W        W16875   4.758  29.689   1.816  0.0155 -0.4651  0.0054
73938W        W16876   5.441  26.534   1.910  0.3619 -0.2013 -0.2887
73939W        W16877   7.607  28.080   3.516  0.2111  0.0095 -0.1774
73940W        W16878   4.419  28.315   1.078 -0.2354 -0.3604 -0.0414
73941W        W16879   6.206  26.903   2.457 -0.1619  0.0983  0.0831
73942W        W16880   4.051  28.508   3.193 -0.4675  0.0468 -0.0332
73943W        W16881   4.658  28.142   1.501 -0.2584  0.2529  0.4227
73944W        W16882   7.445  30.125   0.371  0.3913 -0.0454 -0.1462
73945W        W16883   7.280  28.637   1.622  0.2703 -0.0500 -0.0455
73946W        W16884   5.981  29.544   1.406 -0.1790  0.1229  0.1029
73947W        W16885   5.656  28.665   1.246 -0.2273 -0.0992  0.2421
73948W        W16886   3.969  26.322   1.374  0.4807  0.1853 -0.1420
73949W        W16887   4.852  26.364   3.453  0.0788 -0.3635  0.0349
73950W        W16888   5.852  25.472   0.168  0.0054  0.0131  0.0709
73951W        W16889   6.801  27.397   4.818  0.0160 -0.1220 -0.2131
73952W        W16890   3.766  28.044   3.420 -0.0450 -0.2703 -0.0194
73953W        W16891   7.546  26.103   0.897  0.2563 -0.1370 -0.1112
73954W        W16892   6.037  27.868   2.334  0.0951 -0.2618  0.0436
73955W        W16893   7.993  27.917   1.685  0.3552  0.0925 -0.0159
73956W        W16894   7.187  27.577  31.759 -0.1868  0.0968 -0.1216
73957W        W16895   6.795  26.038   2.304 -0.1417 -0.0793  0.4140
73958W        W16896   6.656  26.714   2.625  0.0822 -0.0239  0.1564
73959W        W16897   5.326  28.576   0.753  0.1097 -0.1810  0.1976
73960W        W16898   5.693  28.018   0.527  0.1856 -0.1575  0.0242
73961W        W16899   8.005  26.991   3.175 -0.0987  0.1645  0.0396
73962W        W16900   9.047  26.142  31.652 -0.4509 -0.1109  0.0605
73963W        W16901   4.575  28.767   2.162  0.4142 -0.2848 -0.0615
73964W        W16902   5.595  26.149   4.101 -0.0320 -0.1218 -0.0081
73965W        W16903   6.365  27.241   3.847 -0.1432 -0.2844  0.2255
73966W        W16904   5.191  28.230   0.326  0.1983 -0.1022 -0.1042
73967W        W16905   5.987  28.351   1.536 -0.1726  0.0380 -0.1273
73968W        W16906   5.347  27.684   0.794 -0.0067 -0.2658  0.2979
73969W        W16907   4.158  26.746   1.521 -0.3057 -0.2489  0.1277
73970W        W16908   4.573  28.633   2.724 -0.3592 -0.1429  0.0948
73971W        W16909   7.656  25.627  31.544 -0.1126 -0.0847  0.1722
73972W        W16910   4.916  26.230   3.002  0.1747 -0.0586 -0.1444
73973W        W16911   6.488  25.661   2.622 -0.1930 -0.0922 -0.2363
73974W        W16912   5.798  29.407   0.881 -0.1976  0.2922 -0.1544
73975W        W16913   6.853  28.429   1.716 -0.0068 -0.2262 -0.1176
73976W        W16914   6.938  27.815  30.589  0.1333 -0.1211  0.1123
73977W        W16915   7.521  29.246   0.322  0.0615  0.0208  0.1377
73978W        W16916   3.768  25.575   1.239  0.0147 -0.0325  0.3187
73979W        W16917   5.460  27.306   1.114  0.1110  0.1631 -0.3256
73980W        W16918   5.390  26.022   2.766  0.1861 -0.0977 -0.1892
73981W        W16919   4.143  25.404   1.458  0.3431 -0.0536 -0.1964
73982W        W16920   7.602  26.205   2.886  0.0661 -0.2077  0.2127
73983W        W16921   5.524  26.183   0.743  0.0122 -0.0691 -0.3284
73984W        W16922   7.309  26.390   0.572  0.1938  0.3070 -0.0314
73985W        W16923   5.823  27.229   2.268 -0.0390 -0.0484 -0.0168
73986W        W16924   4.923  28.094   0.724  0.0775 -0.0162 -0.1563
73987W        W16925   6.480  25.932   4.229  0.1603  0.1051  0.2723
73988W        W16926   5.426  30.416   2.267 -0.0666 -0.0378  0.0541
73989W        W16927   7.122  28.569   3.518  0.0962  0.1641  0.2660
73990W        W16928   7.757  28.799   1.758  0.1893 -0.0360 -0.1749
73991W        W16929   4.788  26.514   2.635 -0.2491 -0.0228 -0.1208
73992W        W16930   4.681  25.436   0.691 -0.0574  0.0649 -0.3248
73993W        W16931   4.984  30.117   1.950  0.0187 -0.1379 -0.1426
73994W        W16932   7.355  27.268   2.665  0.0371 -0.2469  0.2399
73995W        W16933   5.223  26.557   0.379 -0.0698  0.2578 -0.1449
73996W        W16934   7.537  27.982   1.847 -0.3995 -0.3330 -0.3082
73997W        W16935   6.099  27.595   0.526  0.3036 -0.1635  0.0493
73998W        W16936   4.684  27.683   2.876 -0.0705 -0.2079  0.0134
73999W        W16937   7.144  24.826   2.722  0.0267  0.1189 -0.1970
74000W        W16938   8.506  27.236   2.759  0.0073 -0.2680  0.0360
74001W        W16939   7.629  28.562   3.414  0.1590  0.2014  0.2301
74002W        W16940   5.426  24.658   0.334 -0.1457 -0.0974  0.1844
74003W        W16941   5.212  29.611   1.979  0.3147 -0.0445 -0.1582
74004W        W16942   5.288  27.725   0.229 -0.1890 -0.0611  0.2664
74005W        W16943   5.375  27.796   1.289  0.0490  0.0109 -0.2134
74006W        W16944   6.391  28.245   1.888  0.1411  0.1864  0.0849
74007W        W16945   6.589  26.230   1.838  0.1094 -0.2192 -0.0366
74008W        W16946   4.134  27.766   3.529  0.1037 -0.1473 -0.0291
74009W        W16947   7.782  27.627   3.771  0.0025 -0.1190  0.4644
74010W        W16948   6.391  25.591   0.335  0.1137  0.2577 -0.2648
74011W        W16949   4.711  27.780   3.347 -0.3877  0.1215  0.2287
74012W        W16950   6.620  25.734   1.802  0.0671 -0.1052 -0.0441
74013W        W16951   6.630  25.988   0.146  0.1053 -0.0613  0.3504
74014W        W16952   6.341  26.325   3.869 -0.1984 -0.1186 -0.1546
74015W        W16953   6.074  26.106  31.924  0.0793 -0.0542  0.2366
74016W        W16954   6.035  26.005   0.460 -0.0460 -0.2686 -0.0936
74017W        W16955   5.361  25.625   0.287  0.3063  0.1572 -0.6039
74018W        W16956   4.795  27.799   3.842  0.1765  0.0916 -0.1234
74019W        W16957   5.052  28.858   2.051 -0.2486 -0.1674 -0.0583
74020W        W16958   7.818  28.427   3.835 -0.1051 -0.0995 -0.0365
74021W        W16959   4.205  26.271   0.258 -0.2074 -0.1687 -0.1423
74022W        W16960   7.479  26.875   0.626  0.0782  0.0646  0.3063
74023W        W16961   4.694  29.334   2.699 -0.2784  0.1565  0.0997
74024W        W16962   5.764  28.580   3.895 -0.0473 -0.2193  0.0289
74025W        W16963   5.786  28.477  31.191  0.0177 -0.4380  0.0859
74026W        W16964   4.849  24.913   2.907  0.2083 -0.0687 -0.2154
74027W        W16965   7.191  28.163   1.431 -0.0771  0.2242  0.1465
74028W        W16966   5.439  26.381   1.436 -0.4472  0.2276  0.2003
74029W        W16967   3.991  28.742   0.112 -0.0995  0.4160  0.0351
74030W        W16968   7.050  26.941   2.932 -0.0680 -0.1024  0.2966
74031W        W16969   6.696  26.574   3.132  0.3963  0.0889 -0.2675
74032W        W16970   4.883  26.191   4.004  0.0440  0.2662  0.0588
74033W        W16971   7.118  24.996   4.121 -0.3180 -0.2405 -0.0868
74034W        W16972   6.750  27.471   1.456  0.0430  0.1591 -0.0748
74035W        W16973   7.909  28.376   1.936  0.0121  0.1519  0.0396
74036W        W16974   5.830  27.103   0.837  0.1053 -0.0055  0.1775
74037W        W16975   6.182  25.427   4.561 -0.1879 -0.1397  0.2544
74038W        W16976   5.381  27.049   3.252  0.1125 -0.1133  0.0578
74039W        W16977   3.071  28.526   2.944 -0.1599 -0.1070  0.4604
74040W        W16978   6.153  27.944   4.616 -0.2403 -0.0921 -0.3012
74041W        W16979   6.971  27.253   1.929  0.2493 -0.0714 -0.0673
74042W        W16980   6.803  26.385   3.623 -0.1366 -0.1029 -0.1046
74043W        W16981   5.120  26.446   1.046  0.1640 -0.0585  0.2512
74044W        W16982   4.564  30.037   1.494 -0.1737  0.0619 -0.0470
74045W        W16983   4.226  28.331  31.949 -0.0279  0.0081 -0.2560
74046W        W16984   5.417  24.761   1.867 -0.1791 -0.0195 -0.0572
74047W        W16985   6.682  28.498   2.733 -0.2704  0.0755 -0.0642
74048W        W16986   4.805  28.606   0.768 -0.0501  0.0735  0.0160
74049W        W16987   7.358  28.801   3.878  0.0450  0.1621  0.0632
74050W        W16988   4.662  27.501   0.627  0.0661 -0.0862  0.1424
74051W        W16989   6.298  26.766   1.981 -0.0669  0.2770 -0.1430
74052W        W16990   4.109  27.919   2.423  0.0513  0.0898  0.2099
74053W        W16991   4.879  27.034  31.663  0.2610  0.1647 -0.1737
74054W        W16992   4.494  26.680  31.528 -0.1259  0.1367 -0.2329
74055W        W16993   5.939  26.523   1.635 -0.3358  0.1023 -0.0049
74056W        W16994   7.403  28.641   0.993  0.1125  0.0236 -0.2491
74057W        W16995   4.187  27.504   2.096  0.3412 -0.0083 -0.0000
74058W        W16996   6.154  25.758   0.974  0.1511  0.1332  0.2873
74059W        W16997   3.851  29.229   2.351 -0.0818 -0.1530 -0.0951
74060W        W16998   8.326  28.008   4.376 -0.3032 -0.0598  0.1729
74061W        W16999   7.408  25.187   0.635  0.0077 -0.1583  0.1360
74062W        W17000   8.196  27.925   3.752 -0.1310 -0.2137  0.0071
74063W        W17001   4.510  26.539   3.100  0.0647 -0.1248 -0.0368
74064W        W17002   5.573  26.968   0.336 -0.0499  0.0552 -0.0952
74065W        W17003   6.348  27.407   2.278  0.0229  0.2391 -0.0303
74066W        W17004   6.263  27.623   1.446 -0.1430 -0.2283 -0.0199
74067W        W17005   4.572  27.668   2.290  0.0665 -0.0844 -0.0092
74068W        W17006   5.935  29.305   1.893  0.0410 -0.3126 -0.1721
74069W        W17007   6.400  27.575   0.073  0.1390 -0.2416  0.0009
74070W        W17008   5.274  27.258   0.011  0.0767  0.1725  0.0198
74071W        W17009   6.037  26.297   4.345 -0.0126 -0.0158 -0.2139
74072W        W17010   6.731  27.240   3.226  0.2575 -0.1464  0.1743
74073W        W17011   5.407  27.420   1.629 -0.0102 -0.1851 -0.1484
74074W        W17012   5.027  26.895   1.283  0.4023 -0.1070  0.2555
74075W        W17013   6.574  27.683   3.327 -0.1019 -0.0928  0.0388
74076W        W17014   7.988  28.228   2.529  0.0016  0.2935  0.2028
74077W        W17015   5.347  27.047   2.088  0.0507 -0.0221 -0.0046
74078W        W17016   5.380  27.866   2.986 -0.3101  0.0648 -0.2079
74079W        W17017   6.105  26.655   3.612  0.0364  0.1961 -0.2691
74080W        W17018   7.753  28.553   0.620  0.2604  0.1547 -0.0006
74081W        W17019   7.678  29.266   4.088  0.1751  0.1378 -0.3656
74082W        W17020   5.033  29.035  31.887 -0.2210  0.2731 -0.2568
74083W        W17021   4.138  28.320   2.729 -0.1321 -0.3460  0.3541
74084W        W17022   4.652  28.728   1.454  0.2067 -0.1594  0.1726
74085W        W17023   6.804  25.378   4.248  0.2036  0.1807  0.1459
74086W        W17024   7.220  27.303   3.263  0.3632 -0.3625  0.0730
74087W        W17025   4.327  28.552   1.756  0.1055 -0.1982 -0.0187
74088W        W17026   4.360  29.033   3.017  0.0522  0.0638  0.1066
74089W        W17027   6.597  24.999   2.366  0.2046  0.0300 -0.2677
74090W        W17028   6.149  26.969   1.353 -0.1198  0.1267 -0.0763
74091W        W17029   6.605  25.894   3.717  0.1911 -0.0562  0.1819
74092W        W17030   7.967  26.057   1.825  0.2892 -0.1603  0.0362
74093W        W17031   6.167  28.709   1.086  0.3166  0.3702  0.2359
74094W        W17032   5.585  26.366   4.530 -0.2329  0.2165 -0.1083
74095W        W17033   5.192  26.907   2.632 -0.1366  0.1451 -0.5172
74096W        W17034   6.315  26.392   0.301  0.1582 -0.3094  0.2998
74097W        W17035   4.983  26.047   2.451 -0.2490  0.0846  0.1656
74098W        W17036   6.965  29.194   3.019  0.1556 -0.2485 -0.0632
74099W        W17037   5.104  28.035   4.646  0.0018 -0.1066 -0.1132
74100W        W17038   7.002  25.559   2.213  0.1540  0.1520 -0.0683
74101W        W17039   6.530  24.168   0.442  0.0700 -0.0963 -0.1525
74102W        W17040   5.567  27.406   2.918  0.3352 -0.0717 -0.0612
74103W        W17041   7.694  27.812   2.672  0.2403  0.0090  0.0310
74104W        W17042   5.111  28.887   1.136 -0.0192 -0.1216 -0.1336
74105W        W17043   8.484  29.445   1.747  0.2407  0.0945  0.0980
74106W        W17044   3.665  29.649   2.741  0.3407 -0.0790 -0.0360
74107W        W17045   7.066  26.052   3.873  0.0772  0.0559  0.2488
74108W        W17046   5.331  28.314  31.453 -0.0088 -0.0424 -0.1152
74109W        W17047   6.711  27.997   1.446  0.1351 -0.1917  0.1439
74110W        W17048   6.354  26.200   3.363 -0.1187 -0.3014  0.2414
74111W        W17049   7.580  27.776   1.407 -0.0580 -0.0297 -0.1623
74112W        W17050   6.304  26.479   1.309 -0.0658 -0.1855 -0.2191
74113W        W17051   6.891  26.004   3.298 -0.1125 -0.2294 -0.0092
74114W        W17052   7.422  27.582   4.295 -0.3020 -0.0663 -0.0108
74115W        W17053   6.298  26.785   4.081 -0.3325 -0.2147 -0.6891
74116W        W17054   4.449  26.085   2.773  0.0251 -0.0683  0.0343
74117W        W17055   6.918  28.949   2.613 -0.3573 -0.0169  0.0892
74118W        W17056   8.579  27.377   0.060 -0.1439 -0.0469 -0.3455
74119W        W17057   7.329  27.021   2.192  0.3868  0.2190  0.2142
74120W        W17058   5.817  26.609   0.613 -0.1447  0.1194  0.2256
74121W        W17059   6.626  26.868   1.252  0.1317  0.1676  0.0282
74122W        W17060   5.790  27.850   3.281 -0.0413 -0.1859 -0.0456
74123W        W17061   6.650  27.949   5.664  0.0797 -0.0508  0.1010
74124W        W17062   5.404  25.173  31.905  0.2653  0.1092 -0.2136
74125W        W17063   7.046  26.887   3.506  0.4346 -0.0206 -0.0773
74126W        W17064   5.331  28.514  31.925  0.0489  0.0150 -0.0742
74127W        W17065   8.422  27.917   3.029  0.4061 -0.0453  0.0119
74128W        W17066   6.893  26.435   1.451  0.1197 -0.1331  0.1603
74129W        W17067   7.066  28.012   2.063 -0.2410  0.1867 -0.0304
74130W        W17068   5.207  28.023   4.125 -0.3749  0.2332 -0.1327
74131W        W17069   5.443  26.472  30.817  0.2349 -0.5269 -0.0077
74132W        W17070   4.871  26.925   0.232 -0.2781  0.3032  0.2601
74133W        W17071   7.894  28.883   3.704 -0.0027  0.0871 -0.0303
74134W        W17072   8.247  25.663   4.184  0.0364 -0.0835  0.2690
74135W        W17073   5.031  25.735   2.004  0.0521  0.3271 -0.2333
74136W        W17074   7.161  27.209   4.076  0.2138  0.1347 -0.1523
74137W        W17075   5.019  28.374   1.207  0.3409 -0.1158  0.0679
74138W        W17076   5.756  26.324   2.695 -0.2552 -0.3153  0.3124
74139W        W17077   5.331  28.806   2.989  0.0061 -0.0904  0.2388
74140W        W17078   4.997  28.440   1.718  0.0041 -0.0303  0.1057
74141W        W17079   5.399  28.699   1.680  0.1689 -0.0659  0.0248
74142W        W17080   6.347  26.296   2.436 -0.1763 -0.2344  0.0395
74143W        W17081   6.549  27.721   1.858  0.2546  0.2213 -0.2556
74144W        W17082   6.518  26.904   3.470 -0.1458 -0.1514 -0.0915
74145W        W17083   8.583  26.008   3.986 -0.1708 -0.1456 -0.0299
74146W        W17084   6.498  27.578   2.796  0.2480  0.1972  0.1161
74147W        W17085   5.025  27.776   2.534  0.1329  0.1243 -0.2361
74148W        W17086   6.626  28.315   3.360 -0.1464  0.0496  0.2624
74149W        W17087   8.074  26.329   0.778  0.0344 -0.1282 -0.1453
74150W        W17088   5.021  28.085   2.138  0.1418  0.3438 -0.0070
74151W        W17089   4.852  27.261   2.456  0.1704  0.0107 -0.0139
74152W        W17090   6.042  26.358   4.815  0.1983 -0.0121 -0.1129
74153W        W17091   7.912  27.913   3.095  0.2124  0.0741 -0.1253
74154W        W17092   4.653  25.644   1.635 -0.4231  0.1522 -0.0675
74155W        W17093   6.084  27.134   0.351  0.0490 -0.1217 -0.0954
74156W        W17094   3.121  28.048   2.932  0.1303 -0.0282 -0.1887
74157W        W17095   6.162  27.699   3.606 -0.0334  0.1223  0.0109
74158W        W17096   4.393  29.564   2.253 -0.1239 -0.1545  0.1271
74159W        W17097   7.524  28.145   2.372  0.0526  0.1229  0.2109
74160W        W17098   6.934  27.601   2.297  0.1531 -0.1179  0.2227
74161W        W17099   5.471  29.149   1.924 -0.3522 -0.1393  0.1586
74162W        W17100   5.347  26.805  31.826  0.2151 -0.3118  0.0907
74163W        W17101   6.552  27.779   0.986  0.0400  0.2861 -0.1261
74164W        W17102   3.929  29.137   1.004  0.1962  0.0052 -0.1172
74165W        W17103   6.715  26.452   0.910  0.1862 -0.1526 -0.0146
74166W        W17104   3.984  29.792   2.410 -0.0332 -0.2111  0.0989
74167W        W17105   6.651  28.260   4.741  0.1942 -0.0218 -0.1612
74168W        W17106   7.809  25.254  31.808  0.1714  0.1528 -0.0803
74169W        W17107   8.150  26.688   1.173 -0.2763 -0.1237  0.1624
74170W        W17108   7.530  25.429  31.122  0.1726 -0.0034 -0.1349
74171W        W17109   7.039  28.245   4.293 -0.0212 -0.1720 -0.1856
74172W        W17110   6.772  26.374   4.153  0.1003 -0.0530  0.0896
74173W        W17111   6.791  26.838   1.751 -0.0720 -0.1228 -0.0118
74174W        W17112   5.389  27.444   2.445  0.2427 -0.1098 -0.0463
74175W        W17113   7.199  25.076   3.464 -0.1926  0.2057  0.2072
74176W        W17114   3.510  28.544   4.046 -0.0862 -0.0762  0.0603
74177W        W17115   7.725  27.216   0.418 -0.0216  0.3041 -0.0244
74178W        W17116   4.951  27.397   1.494 -0.2172 -0.2692 -0.2227
74179W        W17117   5.794  26.678   2.238  0.0080  0.0401 -0.0872
74180W        W17118   6.656  26.142   2.768  0.1952 -0.1386  0.3497
74181W        W17119   6.331  28.586  31.930 -0.0914  0.0964 -0.2545
74182W        W17120   6.716  26.536   2.184 -0.1839  0.1080  0.0353
74183W        W17121   4.118  28.474   2.215  0.1154  0.1567  0.0632
74184W        W17122   5.646  29.132   1.393 -0.0326  0.0608  0.0121
74185W        W17123   4.834  29.798   2.367  0.1407  0.0415 -0.0507
74186W        W17124   4.905  26.799   0.769 -0.4888  0.1133 -0.2113
74187W        W17125   8.822  25.854   1.282  0.1145  0.0019 -0.3843
74188W        W17126   4.437  26.421   4.255 -0.1375 -0.0751  0.0430
74189W        W17127   6.855  24.435   2.569 -0.2258  0.0640  0.0225
74190W        W17128   5.437  27.197  31.490  0.0409  0.2977  0.0490
74191W        W17129   6.257  26.869   0.794  0.1272 -0.2589  0.0654
74192W        W17130   7.121  27.988   2.593  0.0187 -0.1876 -0.1119
74193W        W17131   5.955  27.550   1.880 -0.2607  0.1660 -0.4434
74194W        W17132   7.252  27.141   1.370  0.0867 -0.0169 -0.1752
74195W        W17133   7.739  26.840   2.726  0.1410  0.1056 -0.2051
74196W        W17134   7.403  27.729   0.301  0.0480  0.0868 -0.0449
74197W        W17135   7.471  29.021   3.277  0.0333  0.2507 -0.0666
74198W        W17136   5.245  25.977   1.614 -0.1537 -0.1661 -0.2862
74199W        W17137   4.988  27.370   0.980  0.0965 -0.0122  0.1762
74200W        W17138   5.163  29.215   1.580  0.0917 -0.2298 -0.0486
74201W        W17139   4.980  26.243   1.923 -0.1381 -0.1693 -0.1546
74202W        W17140   7.068  28.288   3.068  0.0724 -0.0026 -0.1449
74203W        W17141   4.911  26.420   1.474  0.2473  0.1228  0.0951
74204W        W17142   7.672  26.597   1.035  0.3349 -0.0135 -0.1633
74205W        W17143   7.174  27.687   1.650  0.0557  0.2538  0.0163
74206W        W17144   5.152  30.084   0.923  0.1562  0.0489  0.1514
74207W        W17145   6.516  28.354   0.996  0.1855  0.2402 -0.1402
74208W        W17146   4.258  30.071   2.026  0.1432  0.3821  0.0941
74209W        W17147   3.256  26.999   2.202  0.2034  0.1388 -0.0934
74210W        W17148   6.128  28.856   2.563  0.0287 -0.0452 -0.0324
74211W        W17149   8.432  27.807   2.112  0.1990 -0.0048 -0.0905
74212W        W17150   5.055  24.844   0.089  0.3365  0.0178  0.0182
74213W        W17151   5.085  26.337   4.532 -0.1328 -0.2517 -0.2994
74214W        W17152   4.174  29.151   1.416  0.0397 -0.2054 -0.2009
74215W        W17153   7.516  26.836   3.255 -0.0033 -0.1560  0.3314
74216W        W17154   7.232  25.673   3.498 -0.1591  0.1015 -0.1999
74217W        W17155   5.528  29.059  31.968  0.0896 -0.1920 -0.1411
74218W        W17156   7.238  26.676   2.568 -0.0082 -0.3900 -0.1265
74219W        W17157   6.192  28.533   2.996  0.1305  0.0628  0.0931
74220W        W17158   4.225  29.637   3.855  0.3326 -0.0886 -0.2222
74221W        W17159   4.842  27.864   1.134 -0.0780 -0.0241  0.1259
74222W        W17160   6.578  27.922   3.820  0.2388  0.5823  0.2433
74223W        W17161   6.170  28.050   1.164  0.3222  0.1726  0.0687
74224W        W17162   6.222  28.075   0.618 -0.2483  0.0505  0.1157
74225W        W17163   8.555  29.617   2.219  0.5293  0.0094 -0.2851
74226W        W17164   6.050  25.303   1.101  0.1248  0.0159 -0.2398
74227W        W17165   8.915  27.814   2.158 -0.3157 -0.2734 -0.2424
74228W        W17166   5.809  27.012   1.832  0.1098 -0.0339  0.2034
74229W        W17167   7.976  26.013  31.320  0.0706 -0.0416 -0.0181
74230W        W17168   7.207  24.939   2.236 -0.0301 -0.3178 -0.0703
74231W        W17169   5.380  26.324   3.293 -0.0041  0.0448  0.0623
74232W        W17170   3.410  28.222  31.224  0.2427 -0.0502 -0.2921
74233W        W17171   4.430  28.823   1.022  0.1981  0.1135  0.2409
74234W        W17172   5.459  28.215   1.077  0.0600  0.0411 -0.2426
74235W        W17173   5.284  25.571   4.095  0.0787 -0.2002 -0.2528
74236W        W17174   5.590  26.676   3.568  0.0544  0.1282 -0.0078
74237W        W17175   5.847  27.507   3.989  0.0219  0.0057 -0.1985
74238W        W17176   4.394  26.137   1.756  0.1658  0.1639  0.2249
74239W        W17177   7.565  28.266   2.949  0.1627  0.1440 -0.3335
74240W        W17178   5.734  26.039   1.644  0.0265 -0.0665 -0.4174
74241W        W17179   3.885  25.718   0.709  0.1702 -0.3391  0.0566
74242W        W17180   6.805  29.393   1.274 -0.0318  0.0163 -0.3752
74243W        W17181   6.487  29.195   2.745 -0.0473  0.0905 -0.2251
74244W        W17182   5.077  25.334   2.537  0.0052  0.0059 -0.1744
74245W        W17183   7.615  29.932   3.079  0.0409 -0.0452 -0.0217
74246W        W17184   4.344  29.328   0.117  0.0884  0.1335 -0.3852
74247W        W17185   7.220  26.290   4.291 -0.2296 -0.0523 -0.1662
74248W        W17186   4.166  27.027   3.869 -0.1451  0.1635  0.0675
74249W        W17187   3.687  25.244   0.508  0.0073 -0.0574  0.1809
74250W        W17188   5.915  26.946   3.273  0.3368 -0.3041 -0.1307
74251W        W17189   6.217  28.792   2.048 -0.1225  0.2371  0.1354
74252W        W17190   6.992  27.779   0.638 -0.0835  0.1797 -0.1010
74253W        W17191   5.153  28.113   3.576  0.0299 -0.0322 -0.1304
74254W        W17192   6.174  28.301   3.719 -0.2070  0.0102 -0.0550
74255W        W17193   3.971  26.436   1.875  0.4300  0.1156 -0.0271
74256W        W17194   5.648  26.253   0.264 -0.4312 -0.4648  0.0390
74257W        W17195   6.243  27.758   4.167  0.0275 -0.1723 -0.1227
74258W        W17196   8.044  29.120   1.417  0.1254  0.0761  0.2767
74259W        W17197   7.189  26.554   2.105  0.1053 -0.0945 -0.1242
74260W        W17198   6.539  26.869   0.281 -0.2234  0.3735 -0.1471
74261W        W17199   5.055  27.491   2.016 -0.4297 -0.1136 -0.1667
74262W        W17200   3.826  26.996   3.367  0.0026  0.3519  0.0280
74263W        W17201   7.621  27.142   1.039  0.1384 -0.1698 -0.0262
74264W        W17202   5.173  25.417   1.450 -0.1061 -0.0958 -0.0991
74265W        W17203   6.642  25.501   0.795  0.2014  0.0884 -0.2948
74266W        W17204   6.936  28.130   0.938  0.0146 -0.1910  0.3231
74267W        W17205   3.670  28.293   2.511 -0.0617  0.1372 -0.4786
74268W        W17206   5.658  26.937   2.701 -0.1979 -0.0352 -0.0859
74269W        W17207   6.847  27.244   2.652 -0.3242 -0.0608  0.1163
74270W        W17208   7.134  27.618   1.136  0.4313  0.0385 -0.0940
74271W        W17209   7.290  27.644   3.615 -0.3672 -0.0281  0.1072
74272W        W17210   5.153  27.199   0.541  0.1941 -0.0363 -0.0073
74273W        W17211   7.247  27.222   0.251  0.1048 -0.1068 -0.2281
74274W        W17212   6.823  28.412   3.892 -0.1185 -0.3652 -0.0993
74275W        W17213   7.705  29.394   4.768  0.1237  0.1211 -0.2265
74276W        W17214   6.668  28.820   3.088 -0.0236  0.0228 -0.0505
74277W        W17215   7.621  29.162   2.174 -0.1896 -0.0351 -0.0223
74278W        W17216   4.857  26.738   2.200 -0.0693 -0.4169 -0.3240
74279W        W17217   5.855  27.674   0.940  0.1663  0.0381 -0.2853
74280W        W17218   5.833  28.428  31.737  0.1671  0.0370  0.1931
74281W        W17219   7.503  27.205   3.688  0.3248  0.0843  0.1277
74282W        W17220   5.853  27.391   1.354 -0.1740  0.0948  0.1178
74283W        W17221   5.701  25.731   0.732 -0.1808  0.4433 -0.0711
74284W        W17222   4.946  28.104   3.010  0.0855 -0.2882  0.1043
74285W        W17223   7.401  29.058   2.675 -0.0559 -0.1635  0.1221
74286W        W17224   4.426  27.174   6.577 -0.1193  0.2486 -0.2083
74287W        W17225   4.991  25.177   4.379 -0.2067 -0.0357  0.0113
74288W        W17226   7.756  26.276   4.675 -0.1041 -0.1684  0.1980
74289W        W17227   8.326  26.639   4.177 -0.0499 -0.1156  0.2437
74290W        W17228   4.218  26.514   4.748 -0.0992 -0.0380 -0.1434
74291W        W17229   5.612  28.079   4.713  0.1394  0.0213 -0.1395
74292W        W17230   4.944  25.766   5.743  0.1957  0.2933 -0.3480
74293W        W17231   7.077  27.700   5.541 -0.0912  0.2487 -0.2092
74294W        W17232   8.391  29.311   7.573  0.3653 -0.4563 -0.3071
74295W        W17233   8.005  29.072   2.717  0.3127 -0.0538  0.1536
74296W        W17234   6.423  26.641   5.605  0.0314 -0.0073 -0.3257
74297W        W17235   6.162  29.308   5.650  0.0040 -0.0522 -0.1530
74298W        W17236   6.122  25.712   4.988 -0.0955 -0.2562  0.1137
74299W        W17237   5.221  23.932   5.082 -0.1394 -0.1927 -0.4209
74300W        W17238   7.090  29.474   6.284 -0.1574  0.1919  0.0214
74301W        W17239   4.128  27.010   4.862  0.3439  0.2396  0.1097
74302W        W17240   5.931  27.794   6.084  0.1286 -0.1741  0.2316
74303W        W17241   5.311  25.904   4.466  0.2641  0.0797 -0.3909
74304W        W17242   5.728  28.483   4.976 -0.1954 -0.0070 -0.0021
74305W        W17243   5.184  25.912   7.822 -0.0095  0.0693 -0.2078
74306W        W17244   6.724  26.585   7.680 -0.0744  0.0018 -0.1904
74307W        W17245   5.852  28.910   4.264  0.1434  0.2747  0.0048
74308W        W17246   4.503  24.642   3.104 -0.1690  0.1157  0.2092
74309W        W17247   4.919  26.457   5.544 -0.0639 -0.0990  0.1411
74310W        W17248   5.204  27.439   5.489 -0.0768 -0.1631  0.0668
74311W        W17249   7.602  26.161   5.291  0.2840 -0.1150 -0.1393
74312W        W17250   7.766  26.993   5.769 -0.0507 -0.0842 -0.0566
74313W        W17251   5.797  29.709   5.418  0.0433  0.0405  0.4211
74314W        W17252   6.428  29.093   4.791 -0.0053 -0.2481  0.0518
74315W        W17253   6.518  26.929   7.971  0.4134 -0.0134  0.2626
74316W        W17254   3.955  27.280   4.494 -0.0004  0.1435  0.0315
74317W        W17255   4.429  27.088   4.332 -0.0400  0.1967 -0.4207
74318W        W17256   4.747  27.565   5.445  0.0314 -0.1641 -0.1504
74319W        W17257   7.511  28.696   6.381  0.0108 -0.1253 -0.2255
74320W        W17258   5.651  28.994   7.143 -0.0439 -0.3402 -0.0279
74321W        W17259   4.578  30.357   7.522  0.1629 -0.2028 -0.2522
74322W        W17260   3.441  29.049   4.231  0.1115 -0.0497  0.1028
74323W        W17261   5.189  27.760   7.168 -0.1299 -0.0015  0.1700
74324W        W17262   4.466  29.379   5.744 -0.0423 -0.1474 -0.2070
74325W        W17263   6.552  28.798   6.206  0.2025 -0.2410 -0.2670
74326W        W17264   5.685  28.763   6.232 -0.2467  0.1653 -0.0216
74327W        W17265   5.790  28.144   2.878  0.0010  0.1643 -0.1171
74328W        W17266   5.061  27.800   5.814  0.3837 -0.2288  0.1266
74329W        W17267   4.139  27.710   8.884  0.0318  0.0563 -0.1657
74330W        W17268   2.996  26.736   4.579  0.0248 -0.2175 -0.3409
74331W        W17269   9.594  26.589   6.618 -0.0968  0.2517 -0.0956
74332W        W17270   4.278  29.099   4.056  0.1665 -0.0568  0.2329
74333W        W17271   7.282  26.757   4.016 -0.5055 -0.0859 -0.1367
74334W        W17272   5.716  26.710   4.148  0.3622 -0.1989  0.1838
74335W        W17273   6.846  25.587   5.281 -0.1173  0.1648 -0.2224
74336W        W17274   6.058  24.541   5.474  0.0186 -0.0711  0.4405
74337W        W17275   4.827  28.211   5.675 -0.0799  0.2937  0.0227
74338W        W17276   4.914  25.492   6.180 -0.2133  0.1878 -0.0949
74339W        W17277   8.036  27.797   6.987  0.0123 -0.0439  0.0194
74340W        W17278   6.419  27.069   6.222  0.0044 -0.0315 -0.2035
74341W        W17279   7.019  28.585   6.133 -0.1233  0.0138  0.0077
74342W        W17280   4.219  29.182   6.176 -0.2125  0.0906  0.1536
74343W        W17281   3.542  27.500   5.378 -0.2649 -0.0142 -0.1482
74344W        W17282   6.490  27.880   5.020 -0.0574  0.1392  0.1351
74345W        W17283   8.403  27.604   4.819  0.0978  0.2402 -0.0494
74346W        W17284   6.046  27.558   5.259  0.3424 -0.3258  0.5761
74347W        W17285   5.382  27.105   3.932 -0.2213 -0.1955 -0.1135
74348W        W17286   5.536  29.281   6.308  0.0892 -0.0067  0.1494
74349W        W17287   4.528  26.129   5.628 -0.3637 -0.1979 -0.4818
74350W        W17288   6.242  26.545   2.870 -0.1337  0.0660  0.0608
74351W        W17289   7.434  27.841   6.544  0.2431  0.2193  0.0465
74352W        W17290   3.813  28.212   6.712 -0.2885  0.0164  0.2109
74353W        W17291   7.906  27.567   5.100 -0.0747 -0.0784 -0.3289
74354W        W17292   7.205  27.410   5.148  0.2865 -0.1525 -0.1421
74355W        W17293   8.259  28.623   6.738 -0.1492 -0.3594 -0.0893
74356W        W17294   7.823  27.963   4.169  0.3688  0.0303 -0.0849
74357W        W17295   7.364  26.400   6.196 -0.6215 -0.2859  0.0686
74358W        W17296   7.195  26.453   5.328 -0.2851  0.2851 -0.1354
74359W        W17297   5.881  28.238   2.037 -0.1336  0.0054 -0.2317
74360W        W17298   5.996  26.809   4.579  0.0632 -0.1643 -0.1144
74361W        W17299   8.326  28.885   6.317 -0.0001  0.0588  0.0865
74362W        W17300   7.305  26.342   3.390  0.1019  0.1851  0.1633
74363W        W17301   5.009  27.932   6.293 -0.1714 -0.1000  0.3545
74364W        W17302   5.870  26.225   7.157 -0.2458  0.4540 -0.1523
74365W        W17303   7.039  29.945   7.048  0.2717  0.3317 -0.0065
74366W        W17304   3.054  28.768   4.308 -0.0622 -0.0040 -0.0523
74367W        W17305   4.398  28.992   5.395 -0.0018  0.0680  0.2023
74368W        W17306   5.378  27.579   4.016 -0.1291  0.3302 -0.1281
74369W        W17307   3.825  24.487   6.552  0.4110 -0.0307 -0.0948
74370W        W17308   5.360  28.818   6.730 -0.0399 -0.2499 -0.3169
74371W        W17309   7.238  24.230   5.443  0.0817 -0.0553 -0.2351
74372W        W17310   4.629  25.952   6.088  0.1258 -0.0918  0.0395
74373W        W17311   6.729  26.898   5.865 -0.0208  0.2299 -0.0086
74374W        W17312   4.782  27.225   3.959 -0.0971 -0.3784  0.1235
74375W        W17313   5.171  30.820   4.682 -0.0373  0.1652 -0.1721
74376W        W17314   7.732  26.035   4.224 -0.1301  0.0721  0.1662
74377W        W17315   7.039  28.074   3.555  0.2324 -0.0910 -0.0091
74378W        W17316   5.878  27.556   4.702  0.1027 -0.2608  0.2339
74379W        W17317   5.128  26.415   5.020 -0.0147  0.1365  0.1773
74380W        W17318   5.754  26.597   8.014 -0.4137 -0.0861 -0.1159
74381W        W17319   4.053  25.327   6.185 -0.1388 -0.0791 -0.2987
74382W        W17320   4.021  24.974   2.624  0.2897  0.1926  0.0852
74383W        W17321   8.710  27.329   6.018  0.0903  0.0014  0.0402
74384W        W17322   5.160  26.133   6.015 -0.1598 -0.1324 -0.2685
74385W        W17323   3.922  28.006   3.953 -0.0558 -0.1006 -0.1999
74386W        W17324   7.059  26.214   7.589 -0.2396  0.0166 -0.4167
74387W        W17325   6.774  28.891   4.041 -0.2331 -0.3555  0.0996
74388W        W17326   8.020  30.206   6.898 -0.0706  0.3170  0.0436
74389W        W17327   7.147  28.765   4.360 -0.0886  0.2079  0.2328
74390W        W17328   6.912  25.969   6.233 -0.3111  0.1483 -0.3442
74391W        W17329   4.864  25.802   4.395 -0.2886  0.0725  0.2019
74392W        W17330   3.759  29.406   6.313  0.0077  0.0484  0.0494
74393W        W17331   5.000  26.898   5.781 -0.2062  0.2051  0.0204
74394W        W17332   6.472  26.075   5.025 -0.3894  0.0031  0.3020
74395W        W17333   8.710  29.299   6.347  0.0806 -0.0867  0.1242
74396W        W17334   5.720  27.499   5.643  0.0946  0.1437  0.0653
74397W        W17335   5.182  28.847   6.243  0.0930 -0.1317  0.0217
74398W        W17336   8.606  26.287   6.430  0.0427 -0.0501  0.3052
74399W        W17337   6.903  28.031   6.513 -0.1545 -0.2550  0.0796
74400W        W17338   6.582  26.236   5.908  0.3958  0.0327  0.0059
74401W        W17339   4.009  24.801   3.070 -0.0752 -0.1798  0.0325
74402W        W17340   7.056  29.608   4.346  0.2081  0.1226  0.2736
74403W        W17341   4.788  27.731   4.358  0.0693  0.0706 -0.0189
74404W        W17342   3.995  26.117   4.331  0.3667  0.0420  0.1065
74405W        W17343   6.086  28.819   5.277  0.1623 -0.2461  0.1109
74406W        W17344   6.453  26.060   6.361 -0.0597  0.1760  0.0154
74407W        W17345   5.566  26.542   6.758 -0.2388 -0.3431  0.0169
74408W        W17346   7.647  26.440   7.349 -0.0358 -0.1675  0.1623
74409W        W17347   5.314  26.780   4.533  0.2995 -0.1033 -0.1421
74410W        W17348   3.995  28.973   6.597 -0.1596  0.0474 -0.0035
74411W        W17349   7.778  25.650   5.436 -0.2439  0.1310  0.0085
74412W        W17350   8.142  24.520   4.312  0.2982  0.0554  0.0737
74413W        W17351   5.223  27.464   6.542 -0.0353  0.3189 -0.3063
74414W        W17352   7.499  27.661   4.799  0.0126  0.0807 -0.2676
74415W        W17353   6.024  24.948   4.717 -0.0183  0.1845  0.2488
74416W        W17354   5.027  24.984   3.933 -0.1713  0.0621 -0.2800
74417W        W17355   4.852  28.640   7.554 -0.0647 -0.2632 -0.4634
74418W        W17356   6.666  27.509   5.291 -0.2657 -0.1496 -0.1367
74419W        W17357   5.711  27.527   6.501 -0.0052  0.0206 -0.1776
74420W        W17358   5.788  25.343   4.889  0.0476  0.1354 -0.1611
74421W        W17359   6.249  28.438   5.785 -0.0909 -0.1644 -0.0546
74422W        W17360   4.554  27.788   5.885  0.1945  0.0272 -0.0858
74423W        W17361   6.525  27.900   6.853  0.0142  0.2367  0.2376
74424W        W17362   7.627  28.556   4.270  0.0305  0.0433 -0.0128
74425W        W17363   6.434  26.529   6.301 -0.0287  0.1287  0.2349
74426W        W17364   5.681  27.305   5.060  0.1279  0.2565  0.2161
74427W        W17365   5.646  24.855   5.131 -0.1606 -0.4308  0.1613
74428W        W17366   3.130  29.645   3.551  0.0985  0.0408  0.0468
74429W        W17367   7.685  27.269   6.234  0.0585  0.2155  0.2627
74430W        W17368   5.268  25.145   5.959 -0.1947  0.1155  0.0752
74431W        W17369   6.352  25.036   7.245  0.0564 -0.1540 -0.3119
74432W        W17370   7.979  26.634   6.844 -0.2102 -0.0414  0.0720
74433W        W17371   7.973  26.732   4.647 -0.0407  0.0648 -0.0154
74434W        W17372   6.721  26.290   5.423 -0.4792 -0.4620 -0.0418
74435W        W17373   6.403  26.994   2.962  0.2811 -0.0068 -0.0245
74436W        W17374   6.655  25.402   7.083 -0.2423 -0.0428  0.2704
74437W        W17375   4.127  28.249   7.228 -0.0660  0.2072 -0.1555
74438W        W17376   5.603  29.466   5.837  0.0337 -0.0224  0.3619
74439W        W17377   6.341  28.744   7.535  0.2126  0.2011 -0.1452
74440W        W17378   6.283  27.641   5.762  0.1395  0.0383 -0.2131
74441W        W17379   6.331  26.557   7.251  0.3651 -0.0782 -0.0991
74442W        W17380   6.606  25.722   4.695 -0.0308 -0.0595 -0.0722
74443W        W17381   5.021  27.962   5.207  0.1514  0.0862  0.1216
74444W        W17382   6.369  27.521   4.627  0.3306  0.0994 -0.1360
74445W        W17383   5.218  26.542   6.305  0.3550  0.1875  0.2203
74446W        W17384   6.828  29.766   5.257 -0.1035  0.1850 -0.1778
74447W        W17385   6.238  27.334   3.261  0.0822  0.1573 -0.0151
74448W        W17386   5.956  27.842   7.603 -0.1597  0.1379  0.0668
74449W        W17387   4.384  28.214   6.396 -0.0779  0.0988  0.2565
74450W        W17388   7.180  26.649   6.636 -0.0930  0.0958  0.0042
74451W        W17389   4.859  27.586   4.891 -0.1629 -0.4641 -0.0896
74452W        W17390   4.477  25.887   4.106 -0.0938  0.0194  0.4026
74453W        W17391   2.557  26.723   4.197 -0.1364  0.1065 -0.0829
74454W        W17392   7.275  27.220   5.843 -0.1452 -0.1777 -0.1492
74455W        W17393   7.490  28.277   5.003 -0.1908  0.1205  0.2793
74456W        W17394   4.672  24.045   6.458  0.0987 -0.0423 -0.0696
74457W        W17395   6.892  26.540   6.161  0.0186 -0.0414  0.1373
74458W        W17396   4.810  26.982   5.360 -0.0084  0.2324  0.2441
74459W        W17397   6.845  28.744   7.175 -0.2039  0.4673  0.0354
74460W        W17398   5.571  24.958   5.612  0.0428 -0.1915  0.0099
74461W        W17399   8.161  28.732   7.231 -0.2467  0.3293 -0.2214
74462W        W17400   5.304  27.357   5.954  0.2175 -0.1209 -0.0133
74463W        W17401   4.397  25.140   2.859 -0.1248  0.0080 -0.0315
74464W        W17402   6.674  27.738   6.125 -0.0558  0.1700  0.2252
74465W        W17403   5.677  26.701   4.948  0.0081  0.0165 -0.2421
74466W        W17404   4.219  28.447   4.168 -0.0812 -0.1222 -0.1083
74467W        W17405   7.955  29.211   6.363 -0.0950  0.1024  0.3671
74468W        W17406   6.430  26.564   4.574  0.1088 -0.0038 -0.1948
74469W        W17407   3.964  27.862   4.655 -0.2929  0.0398  0.0166
74470W        W17408   4.187  26.316   8.778  0.3486 -0.1962  0.2011
74471W        W17409   6.132  27.360   7.422  0.0620 -0.1484  0.2483
74472W        W17410   6.088  26.798   5.956  0.0804  0.2225 -0.0043
74473W        W17411   4.511  25.647   4.983 -0.1305 -0.3052  0.3155
74474W        W17412   6.079  26.252   6.001 -0.1149  0.0854  0.0662
74475W        W17413   7.953  28.524   6.198 -0.0399 -0.3050  0.2501
74476W        W17414   6.852  26.690   7.165 -0.1986  0.0848  0.0082
74477W        W17415   4.776  28.347   6.626  0.0569 -0.0175 -0.0462
74478W        W17416   5.723  25.451   6.474 -0.1182  0.1778 -0.0033
74479W        W17417   7.579  29.661   5.733  0.3177 -0.0539  0.0354
74480W        W17418   6.475  28.373   7.164 -0.0656  0.0196  0.3377
74481W        W17419   5.608  27.762   5.233 -0.0780  0.0474  0.3901
74482W        W17420   3.256  26.034   4.871 -0.2897 -0.1353 -0.1463
74483W        W17421   5.058  27.323   4.410  0.0085  0.1314  0.0444
74484W        W17422   6.765  26.932   6.557 -0.1654 -0.0673  0.3457
74485W        W17423   3.877  28.324   6.220  0.1943 -0.0110  0.0445
74486W        W17424   5.261  28.695   4.019  0.2606 -0.1714 -0.3254
74487W        W17425   5.644  26.956   5.827  0.0532 -0.2718  0.0338
74488W        W17426   7.651  25.179   5.245  0.0055 -0.3868  0.1405
74489W        W17427   7.714  27.457   3.228 -0.1915  0.0921  0.0708
74490W        W17428   6.254  26.147   5.472 -0.0821  0.0404  0.1628
74491W        W17429   7.513  26.147   7.711  0.2671 -0.2679 -0.1579
74492W        W17430   7.995  28.568   3.018 -0.1594  0.0923  0.3182
74493W        W17431   7.174  26.147   6.630  0.0009 -0.1373  0.3072
74494W        W17432   4.571  25.680   6.610 -0.1322  0.2474 -0.0507
74495W        W17433   6.774  28.447   5.670 -0.0586 -0.2553 -0.2109
74496W        W17434   3.292  26.733   5.482 -0.2335  0.0355 -0.0900
74497W        W17435   5.804  28.093   6.564 -0.2000 -0.0586  0.0449
74498W        W17436   5.018  26.979   6.444 -0.0235  0.0386 -0.0494
74499W        W17437   6.159  25.775   5.750  0.1614  0.0051 -0.1777
74500W        W17438   5.264  25.807   3.289 -0.2544  0.1186  0.0044
74501W        W17439   5.369  28.419   6.414  0.1513 -0.0138 -0.1358
74502W        W17440   8.385  28.565   5.886 -0.1049 -0.1774 -0.0987
74503W        W17441   6.302  27.142   5.542  0.0045 -0.3676  0.2403
74504W        W17442   7.256  26.352   4.859 -0.0732  0.0559 -0.0092
74505W        W17443   5.386  27.924   6.694 -0.1086  0.3372 -0.2119
74506W        W17444   7.273  26.983   5.398 -0.1309 -0.3126  0.1645
74507W        W17445   5.647  27.232   4.384 -0.0916 -0.0220  0.0521
74508W        W17446   6.118  27.252   4.303 -0.2689 -0.1305 -0.0574
74509W        W17447   5.376  26.258   7.233 -0.3616 -0.2981  0.0162
74510W        W17448   7.425  28.902   6.857  0.1482  0.0705  0.0827
74511W        W17449   6.512  25.625   6.133 -0.0792  0.0043 -0.0870
74512W        W17450   6.338  26.785   6.709  0.0390 -0.3063  0.2074
74513W        W17451   6.198  26.534   7.757 -0.0876  0.0056 -0.0705
74514W        W17452   5.997  26.020   8.414 -0.0971 -0.2961  0.0388
74515W        W17453   4.798  28.446   6.120  0.1684 -0.2392 -0.0955
74516W        W17454   8.317  29.556   6.126  0.1227  0.1469  0.0752
74517W        W17455   6.781  26.192   4.623 -0.2022 -0.0859 -0.1119
74518W        W17456   6.734  25.799   5.700  0.0818  0.1427  0.2787
74519W        W17457   6.820  28.153   5.261 -0.1548  0.0743  0.0154
74520W        W17458   7.331  28.250   3.883  0.2048 -0.2385  0.2467
74521W        W17459   4.091  25.301   4.882 -0.0384  0.4761 -0.0381
74522W        W17460   6.029  27.036   8.212  0.0568 -0.1177  0.1503
74523W        W17461   5.563  25.106   3.843 -0.0906  0.0593  0.0655
74524W        W17462   7.084  27.181   7.090 -0.0815  0.0640  0.0369
74525W        W17463   5.560  28.593   4.505  0.0897 -0.1866  0.1776
74526W        W17464   6.569  29.185   5.308  0.0097  0.0458 -0.0049
74527W        W17465   7.423  25.610   5.048  0.3625  0.1249  0.1054
74528W        W17466   3.621  25.447   4.421  0.4217 -0.0802  0.3333
74529W        W17467   6.721  28.504   6.617 -0.0375  0.0539  0.2880
74530W        W17468   4.884  25.812   3.598 -0.1511 -0.0565  0.1709
74531W        W17469   5.270  26.477   4.082 -0.0633  0.0536  0.2223
74532W        W17470   5.421  28.997   5.829  0.1236 -0.1374  0.2486
74533W        W17471   6.511  27.417   7.724  0.2706 -0.1088  0.1090
74534W        W17472   5.158  25.335   3.586  0.2800 -0.2128 -0.1612
74535W        W17473   7.334  27.231   6.672 -0.0638  0.0479  0.1922
74536W        W17474   4.414  27.418   3.673  0.0925 -0.3372 -0.0854
74537W        W17475   5.022  25.898   4.867  0.1937 -0.0662 -0.4027
74538W        W17476   5.345  29.475   4.306 -0.1025  0.0125  0.2631
74539W        W17477   3.694  26.051   5.022 -0.2273 -0.3335  0.0072
74540W        W17478   5.233  28.348   5.016 -0.0388 -0.2511 -0.3495
74541W        W17479   6.811  25.284   5.722  0.2435  0.2021  0.0591
74542W        W17480   5.836  25.516   5.403 -0.0253  0.1002  0.2108
74543W        W17481   6.299  28.054   6.436  0.0739  0.2197 -0.1701
74544W        W17482   6.556  27.418   7.147  0.0737  0.3116 -0.1103
74545W        W17483   5.602  28.082   7.234 -0.0726  0.0248  0.1864
74546W        W17484   5.141  27.160   4.869 -0.0095 -0.1284 -0.1483
74547W        W17485   6.033  27.489   7.970  0.0812  0.0058  0.0109
74548W        W17486   8.426  28.108   4.878  0.2019  0.1264 -0.0422
74549W        W17487   6.307  26.631   5.146 -0.0019 -0.1574  0.0954
74550W        W17488   4.379  26.404   7.270  0.1394 -0.2103 -0.2410
74551W        W17489   4.893  26.082   6.525 -0.4517  0.0128 -0.2806
74552W        W17490   7.062  28.989   6.496 -0.0189 -0.0935 -0.0792
74553W        W17491   4.340  24.113   4.710  0.1019 -0.1191  0.0046
74554W        W17492   6.300  28.375   5.330 -0.1767 -0.1765  0.1224
74555W        W17493   4.361  28.683   6.279 -0.0988 -0.4537 -0.1273
74556W        W17494   4.279  27.396   6.065  0.3085  0.0429  0.0867
74557W        W17495   5.015  28.533   4.516 -0.2247 -0.1851 -0.2604
74558W        W17496   6.442  27.023   4.619 -0.1966  0.1807 -0.2651
74559W        W17497   6.917  26.869   4.461 -0.0195  0.0180 -0.3134
74560W        W17498   7.227  28.176   5.584 -0.0251 -0.1957 -0.0059
74561W        W17499   4.573  26.088   4.679  0.2441  0.0307  0.1324
74562W        W17500   2.853  26.438   5.436 -0.2300  0.0718 -0.3115
74563W        W17501   3.886  28.838   4.015 -0.5086  0.1656 -0.2618
74564W        W17502   7.046  27.786   4.003  0.1574  0.2560  0.1547
74565W        W17503   4.289  29.200   4.826 -0.0526 -0.0722 -0.0246
74566W        W17504   5.877  28.689   7.769 -0.0289 -0.0483  0.0777
74567W        W17505   6.041  25.916   3.981  0.1505 -0.1369 -0.2673
74568W        W17506   7.255  28.306   6.693 -0.1343  0.0837  0.2136
74569W        W17507   9.355  25.352   4.645 -0.2535  0.1202  0.1019
74570W        W17508   7.536  30.152   7.019 -0.0756 -0.0444  0.1707
74571W        W17509   6.044  27.298   5.953 -0.1518 -0.1651 -0.0298
74572W        W17510   5.841  25.895   4.571  0.2903  0.0692 -0.0785
74573W        W17511   4.508  26.699   5.620  0.1324 -0.2224  0.0944
74574W        W17512   7.933  25.703   6.848  0.2961  0.2325  0.1404
74575W        W17513   6.552  29.639   6.839 -0.1883  0.0917  0.0785
74576W        W17514   8.148  29.302   4.987  0.0995  0.1508  0.0671
74577W        W17515   3.564  25.898   4.484  0.1140  0.0914  0.0305
74578W        W17516   5.236  28.493   5.902 -0.2747 -0.0269  0.0999
74579W        W17517   7.966  26.196   5.617 -0.0643 -0.1906  0.0582
74580W        W17518   4.719  26.806   4.699 -0.0464  0.2556 -0.2048
74581W        W17519   6.666  26.183   7.225 -0.1727  0.0853 -0.0790
74582W        W17520   4.668  28.809   4.217  0.2397  0.1280  0.0943
74583W        W17521   4.986  28.984   5.670 -0.0886  0.0464 -0.0341
74584W        W17522   5.464  29.978   5.106 -0.0052  0.2128  0.1662
74585W        W17523   3.514  26.173   4.042  0.1228 -0.0822  0.0771
74586W        W17524   8.111  27.114   6.427 -0.0523  0.0489 -0.2917
74587W        W17525   5.096  26.466   6.782 -0.0640  0.1635 -0.2051
74588W        W17526   7.172  27.486   6.258  0.3464 -0.4316 -0.3430
74589W        W17527   4.551  26.637   5.135 -0.1376 -0.0104 -0.1846
74590W        W17528   8.154  27.578   4.206 -0.0719  0.0452  0.3542
74591W        W17529   4.935  27.305   6.926  0.0373 -0.3959  0.3906
74592W        W17530   4.592  27.172   4.964 -0.1204  0.3426  0.2292
74593W        W17531   6.777  27.814   4.422 -0.0709  0.1965 -0.1714
74594W        W17532   7.059  27.633   6.846 -0.5019 -0.6322 -0.2676
74595W        W17533   7.406  27.794   3.129  0.3859 -0.0349  0.2036
74596W        W17534   6.498  30.203   7.081  0.1094  0.0210 -0.1824
74597W        W17535   5.277  26.025   5.379  0.2534 -0.0833  0.0964
74598W        W17536   8.069  25.267   3.842  0.4070  0.1770 -0.1351
74599W        W17537   4.192  28.834   4.515  0.1074 -0.1688  0.1526
74600W        W17538   5.494  27.002   6.498  0.3050 -0.1612 -0.0503
74601W        W17539   6.583  28.671   7.983 -0.1191  0.2094 -0.0356
74602W        W17540   4.079  25.459   4.209  0.0371  0.2249 -0.0986
74603W        W17541   5.806  28.484   5.577 -0.0140  0.0203 -0.1498
74604W        W17542   7.538  27.819   5.296  0.2320 -0.0397 -0.2763
74605W        W17543   3.979  29.046   3.476  0.3521  0.0748 -0.0748
74606W        W17544   6.653  28.721   5.099  0.3711  0.2659  0.0958
74607W        W17545   7.402  28.670   5.826  0.6891 -0.1573  0.2980
74608W        W17546   3.992  26.089   5.575  0.1268 -0.1807  0.0693
74609W        W17547   7.209  28.575   5.301  0.0216 -0.0995 -0.2348
74610W        W17548   7.887  29.668   6.821 -0.1646 -0.1364  0.2206
74611W        W17549   5.757  25.536   4.233 -0.1267  0.1806  0.4345
74612W        W17550   5.481  26.451   5.524  0.1384  0.2236 -0.0986
74613W        W17551   4.359  28.739   3.722 -0.1572  0.3001 -0.1151
74614W        W17552   7.202  26.747   5.804  0.1985 -0.1203  0.2929
74615W        W17553   5.864  26.910   6.947 -0.1802  0.1436 -0.2291
74616W        W17554   6.286  28.665   4.003  0.3601  0.2873  0.2014
74617W        W17555   7.695  26.252   6.657 -0.0167 -0.3541  0.1351
74618W        W17556   4.973  27.768   7.756 -0.0007  0.1324  0.0379
74619W        W17557   5.263  28.109   8.055  0.3919 -0.2230  0.0330
74620W        W17558   4.951  26.803   4.224  0.1145 -0.3473  0.0992
74621W        W17559   5.975  26.525   5.540  0.1705  0.0027 -0.2012
74622W        W17560   5.816  26.947   5.364  0.1428 -0.0731 -0.0821
74623W        W17561   6.007  28.064   5.080  0.1219  0.0208 -0.0921
74624W        W17562   7.747  28.569   5.430  0.1924 -0.0344 -0.0025
74625W        W17563   6.114  25.036   5.328 -0.0125  0.0949 -0.3958
74626W        W17564   9.679  27.276   5.298 -0.1029  0.0024  0.3607
74627W        W17565   4.736  25.292   5.785 -0.1015 -0.0293  0.1243
74628W        W17566   8.484  25.000   5.201  0.1959 -0.2012  0.2030
74629W        W17567   6.432  25.053   3.789 -0.2671 -0.0835 -0.1556
74630W        W17568   4.858  27.794   6.772 -0.2879 -0.1860 -0.0453
74631W        W17569   4.492  26.081   3.252 -0.0060  0.1368  0.1589
74632W        W17570   5.935  28.835   3.486  0.0981 -0.4503 -0.2080
74633W        W17571   3.480  27.012   5.128  0.2276 -0.0315 -0.2504
74634W        W17572   5.645  26.003   7.633  0.2197  0.0105 -0.1522
74635W        W17573   5.595  26.489   5.987 -0.1613 -0.0951  0.0677
74636W        W17574   3.873  26.480   3.930 -0.1867  0.2480  0.2677
74637W        W17575   5.347  25.534   5.067  0.2515  0.0435  0.2284
74638W        W17576   6.621  27.011   5.123 -0.3421 -0.0074 -0.0465
74639W        W17577   5.269  25.209   6.431  0.0491 -0.0183  0.1817
74640W        W17578   4.225  26.076   5.031  0.2702  0.2463  0.1005
74641W        W17579   6.166  27.156   5.065 -0.1621 -0.2188  0.1511
74642W        W17580   7.025  27.976   4.821 -0.3240  0.2041  0.1802
74643W        W17581   4.035  25.752   4.638 -0.1625 -0.0210 -0.0435
74644W        W17582  10.165  28.713   6.808  0.3475  0.1097 -0.0644
74645W        W17583   4.068  27.539   4.100  0.0942 -0.0995 -0.3342
74646W        W17584   5.979  26.975   7.728 -0.0783 -0.3077  0.0636
74647W        W17585   6.012  26.454   6.486  0.0313  0.0961  0.2486
74648W        W17586   3.873  25.305   3.122  0.0915  0.0482  0.1360
74649W        W17587   6.270  27.535   6.352 -0.1657 -0.0712 -0.2547
74650W        W17588   5.380  27.611   4.614 -0.0351 -0.0870  0.1264
74651W        W17589   6.715  29.412   3.931 -0.1559 -0.1360  0.0123
74652W        W17590   5.470  27.861   6.196  0.2495 -0.6034  0.1462
74653W        W17591   4.677  28.869   4.895  0.0025 -0.3932  0.2121
74654W        W17592   4.360  25.312   5.297  0.2853  0.0359 -0.2069
74655W        W17593   6.731  27.325   4.273 -0.0723  0.0044 -0.3908
74656W        W17594   5.212  28.287   7.055  0.0229 -0.2008  0.0998
74657W        W17595   6.368  29.078   4.303  0.2699 -0.1026  0.0941
74658W        W17596   8.232  26.623   6.366 -0.0877 -0.0798 -0.0813
74659W        W17597   8.716  25.860   3.318  0.4018 -0.1277 -0.0345
74660W        W17598   4.978  25.403   6.741  0.4222 -0.3276  0.0213
74661W        W17599   3.813  28.560   7.027  0.0669  0.0424 -0.0648
74662W        W17600   7.456  29.778   6.582 -0.0867  0.0808 -0.1529
74663W        W17601   3.981  25.654   5.287 -0.1563  0.1204  0.0404
74664W        W17602   6.799  24.919   4.671  0.1670 -0.1670  0.0184
74665W        W17603   6.008  28.030   5.606 -0.2929  0.0647 -0.0522
74666W        W17604   5.298  26.903   5.260 -0.3854  0.0043 -0.1849
74667W        W17605   5.667  24.493   4.497  0.0081  0.0226 -0.1427
74668W        W17606   6.129  27.388   6.881 -0.2230  0.0190  0.0677
74669W        W17607   5.850  28.956   6.651  0.1731  0.0315  0.1451
74670W        W17608   5.739  26.612   7.481 -0.0870 -0.1327  0.2957
74671W        W17609   6.460  25.224   4.934  0.1585 -0.1911 -0.3103
74672W        W17610   7.857  27.210   4.547  0.0761 -0.1305 -0.1667
74673W        W17611   7.506  29.252   6.537 -0.3973  0.1479  0.2383
74674W        W17612   5.512  28.575   7.393 -0.1370  0.1890 -0.0226
74675W        W17613   6.532  29.213   7.056  0.0469  0.2561  0.0666
74676W        W17614   6.560  26.976   7.431 -0.0011 -0.3032  0.2583
74677W        W17615   4.020  24.790   6.067 -0.2472  0.0805  0.1656
74678W        W17616   3.346  26.546   4.957 -0.0796  0.2130  0.1265
74679W        W17617   5.856  28.298   6.077  0.1123 -0.0103 -0.4647
74680W        W17618   7.183  26.939   6.237 -0.2357  0.2559  0.1296
74681W        W17619   4.082  26.545   5.273  0.1129 -0.1116 -0.2323
74682W        W17620   7.819  25.467   4.225  0.0346  0.1682 -0.3776
74683W        W17621   5.249  29.348   5.427  0.0253  0.1124 -0.2974
74684W        W17622   7.299  28.573   7.203  0.1369 -0.2060  0.0793
74685W        W17623   1.942  26.186   9.240  0.2595  0.0893  0.0702
74686W        W17624   3.705  26.186   8.761  0.1281 -0.1743  0.1514
74687W        W17625   5.569  27.570   9.283  0.0302  0.1267  0.1875
74688W        W17626   5.863  27.675   8.866  0.0969  0.0314 -0.1147
74689W        W17627   4.924  25.517   9.053 -0.0738 -0.0335 -0.0268
74690W        W17628   6.129  28.768   7.061  0.0503 -0.0146  0.1485
74691W        W17629   9.810  30.260  10.344  0.0442  0.2846  0.1441
74692W        W17630   6.200  29.163   7.791 -0.0034  0.3809  0.1251
74693W        W17631   5.173  26.812   9.014  0.2286 -0.2330  0.0550
74694W        W17632   4.981  25.081   9.936  0.0539 -0.4818  0.0958
74695W        W17633   6.048  26.174   8.868  0.1380 -0.0941  0.0817
74696W        W17634   3.511  24.284   9.662  0.1614 -0.0349 -0.0692
74697W        W17635   6.592  26.952   8.536 -0.3323 -0.1620 -0.1732
74698W        W17636   3.772  27.635   9.165 -0.2698 -0.2005  0.0124
74699W        W17637   4.811  25.916   9.349 -0.0040  0.2709  0.0322
74700W        W17638   4.801  25.996   8.159  0.0569  0.2145 -0.2052
74701W        W17639   5.494  29.174   8.947 -0.1637  0.1712  0.0465
74702W        W17640   4.785  25.406   9.612 -0.0327  0.1600 -0.0947
74703W        W17641   5.516  27.014   8.289 -0.0476  0.1197  0.2628
74704W        W17642   4.702  26.756   6.867 -0.1574  0.0017  0.0655
74705W        W17643   3.306  24.099  10.076  0.0613  0.0734 -0.1022
74706W        W17644   3.269  28.994   9.852 -0.4648 -0.1160 -0.1742
74707W        W17645   5.467  25.492   9.859 -0.0932 -0.1320  0.0489
74708W        W17646   7.481  27.748   9.054  0.0321 -0.1883 -0.0817
74709W        W17647   5.252  28.040   9.741  0.0565 -0.1113 -0.1789
74710W        W17648   5.447  30.616   7.916  0.0960  0.2581 -0.1120
74711W        W17649   4.183  26.819   7.982  0.1651 -0.0149  0.3782
74712W        W17650   3.620  28.446   8.202  0.2263 -0.1397 -0.1083
74713W        W17651   4.822  27.871   8.260  0.3095 -0.0341 -0.0312
74714W        W17652   7.880  27.941   9.293  0.0699 -0.0580 -0.1275
74715W        W17653   4.467  27.961   7.608 -0.0052 -0.1936  0.2712
74716W        W17654   7.460  27.388   9.482 -0.0100 -0.0345 -0.1938
74717W        W17655   5.672  27.153   9.588 -0.4925  0.2496  0.0268
74718W        W17656   4.818  28.885   6.754 -0.5497  0.1130 -0.0210
74719W        W17657   5.447  26.743   9.486  0.0194  0.2312 -0.3717
74720W        W17658   3.087  27.627   9.328 -0.2484  0.1554  0.1593
74721W        W17659   4.757  29.652   7.818  0.0703 -0.0051 -0.0719
74722W        W17660   8.722  26.806   7.359 -0.1985 -0.0503  0.2493
74723W        W17661   4.881  26.474   7.251 -0.2314 -0.0177 -0.1124
74724W        W17662   7.075  25.336   8.196 -0.2233  0.0170 -0.1231
74725W        W17663   6.346  25.227   8.284  0.0354  0.0802 -0.0611
74726W        W17664   4.644  27.708  10.406 -0.1604  0.2089  0.0253
74727W        W17665   4.473  26.943   9.359 -0.0572  0.1101  0.1172
74728W        W17666   5.175  26.314   8.262 -0.0564 -0.2512 -0.2319
74729W        W17667   6.558  27.587   9.176 -0.1404  0.0872 -0.0209
74730W        W17668   4.365  26.305   9.956  0.0570 -0.2041  0.0319
74731W        W17669   3.182  26.077   8.549  0.0629 -0.0610 -0.3145
74732W        W17670   6.252  28.318   8.283 -0.4622  0.0312 -0.2382
74733W        W17671   6.925  29.405   8.538 -0.5072 -0.0138  0.0170
74734W        W17672   6.861  28.408   7.661  0.0699  0.1485 -0.2780
74735W        W17673   3.742  27.380   7.744 -0.0160  0.0709 -0.0744
74736W        W17674   6.345  25.831   7.042  0.2121 -0.0919  0.0777
74737W        W17675   6.568  25.675   8.256  0.0042  0.0082 -0.1811
74738W        W17676   5.633  28.047   9.080  0.3751  0.1726 -0.0456
74739W        W17677   8.066  28.759   9.592 -0.3616 -0.1437 -0.0784
74740W        W17678   6.653  27.384   6.616  0.0979  0.1610 -0.0695
74741W        W17679   5.923  24.108   9.928 -0.0668 -0.0112 -0.1186
74742W        W17680   7.598  25.600   9.078 -0.0786  0.1899 -0.1303
74743W        W17681   4.576  27.493   7.451  0.1965 -0.0359 -0.1886
74744W        W17682   5.769  27.616   7.130 -0.1393  0.3367  0.0414
74745W        W17683   8.086  28.177   9.695 -0.2715  0.1809 -0.1301
74746W        W17684   6.125  27.811   8.398 -0.1832 -0.1169  0.1975
74747W        W17685   5.032  29.622   9.747 -0.3201  0.2766 -0.2474
74748W        W17686   4.221  28.934   7.023  0.3233  0.2446  0.2687
74749W        W17687   3.755  26.329   9.972  0.2509  0.0215 -0.3130
74750W        W17688   3.229  26.981   8.241 -0.2740 -0.2802  0.2436
74751W        W17689   3.217  23.587  10.214  0.0386  0.2471 -0.0556
74752W        W17690   4.118  28.280   9.664  0.0058 -0.1571 -0.2617
74753W        W17691   7.461  25.655   8.210 -0.4749 -0.2473 -0.1910
74754W        W17692   5.130  26.305   8.857  0.1015  0.1913 -0.0029
74755W        W17693   4.236  29.240   7.824  0.2622  0.1167 -0.0171
74756W        W17694   6.335  28.901   9.261 -0.1624 -0.1363 -0.0364
74757W        W17695   6.460  26.579   8.926  0.1422 -0.0228 -0.1222
74758W        W17696   6.694  28.091   9.205 -0.1635  0.1034 -0.0909
74759W        W17697   2.854  24.839  10.231  0.0300 -0.1246 -0.0072
74760W        W17698   3.422  27.085   9.227 -0.0404 -0.3262 -0.1443
74761W        W17699   4.046  26.432   9.590  0.1951 -0.2350 -0.0755
74762W        W17700   4.073  25.894   7.398  0.2560 -0.1362  0.4018
74763W        W17701   6.145  25.757   7.946  0.2079 -0.1837  0.0390
74764W        W17702   4.048  27.712   9.667  0.0307 -0.0094  0.2622
74765W        W17703   3.305  27.495   8.834  0.0338 -0.0108  0.3991
74766W        W17704   5.793  28.362   8.159  0.0997  0.0003 -0.1442
74767W        W17705   7.705  27.272  10.109 -0.1045  0.1070  0.1023
74768W        W17706   6.339  29.323   8.680 -0.0171  0.0360 -0.1067
74769W        W17707   2.957  25.803   9.569 -0.1992 -0.0417  0.1097
74770W        W17708   4.556  26.724   7.646  0.0756 -0.1955  0.1572
74771W        W17709   4.926  28.667   8.155 -0.1640  0.0613  0.2700
74772W        W17710   7.253  28.677   9.870 -0.0211 -0.0754  0.2887
74773W        W17711   5.261  25.717   6.470  0.0797 -0.1185  0.3611
74774W        W17712   8.368  29.203   9.545 -0.0771 -0.5510  0.0326
74775W        W17713   7.230  28.647   9.387  0.0343  0.1020 -0.0358
74776W        W17714   7.649  25.260   9.438  0.2218  0.0684 -0.1193
74777W        W17715   6.126  27.079   9.841 -0.1492 -0.0227 -0.0508
74778W        W17716   4.262  26.200   6.379 -0.0970  0.3222 -0.0043
74779W        W17717   5.464  30.287   9.547  0.0216  0.0611  0.4131
74780W        W17718   3.889  28.046   7.606  0.0807 -0.3320 -0.0064
74781W        W17719   2.637  26.810   8.749  0.1194  0.3323 -0.4264
74782W        W17720   6.999  28.276   9.619  0.1116 -0.2502  0.3269
74783W        W17721   6.880  26.472   8.357  0.2679 -0.0157  0.2367
74784W        W17722   4.583  25.527   8.562 -0.3348 -0.1572  0.1979
74785W        W17723   3.927  27.190   8.752 -0.2531 -0.1724 -0.1267
74786W        W17724   7.120  25.151   6.857  0.4599 -0.2513  0.1827
74787W        W17725   6.954  28.137  10.213  0.0205  0.2048 -0.1483
74788W        W17726   7.943  28.103   6.621  0.0342 -0.0185  0.1579
74789W        W17727   7.042  27.039   8.232 -0.4946  0.1766  0.0602
74790W        W17728   5.384  27.337   8.698 -0.0059 -0.1459  0.1603
74791W        W17729   6.770  28.602   9.150 -0.0671  0.2159 -0.3481
74792W        W17730   6.090  27.953   7.113 -0.2101  0.1028  0.1210
74793W        W17731   7.890  27.987   8.351 -0.0579 -0.1397 -0.0886
74794W        W17732   2.499  29.354  10.107  0.1119 -0.0858  0.0857
74795W        W17733   6.273  27.966   8.878  0.4561  0.0033 -0.1655
74796W        W17734   6.504  26.109   9.149  0.1363  0.0580  0.2525
74797W        W17735   5.224  27.375   7.436 -0.1067 -0.0172  0.0613
74798W        W17736   5.688  25.554   7.925  0.1815 -0.0859  0.4545
74799W        W17737   2.903  29.235   7.180  0.0819 -0.1955  0.0228
74800W        W17738   6.788  25.650   9.492 -0.0920  0.0615  0.2247
74801W        W17739   7.258  25.886   9.985  0.1093 -0.1252  0.2152
74802W        W17740   6.767  28.213   8.144  0.2520 -0.1552  0.0512
74803W        W17741   4.066  26.689  10.038  0.1030  0.0095 -0.1475
74804W        W17742   5.354  26.890   7.629  0.0397 -0.1466  0.2959
74805W        W17743   4.345  24.857   9.167  0.1415  0.0349  0.1177
74806W        W17744   3.695  28.726   9.824 -0.2696 -0.1206 -0.1849
74807W        W17745   5.623  27.073   9.054  0.0847  0.0104 -0.3913
74808W        W17746   6.500  26.170   7.951 -0.2737  0.0817 -0.0464
74809W        W17747   4.618  28.579   7.158 -0.0761 -0.0654 -0.0202
74810W        W17748   5.279  27.849   8.601  0.1949  0.1106 -0.1481
74811W        W17749   5.365  25.870   9.033  0.0164 -0.2518 -0.1932
74812W        W17750   5.455  28.926   8.402 -0.0434 -0.3951  0.0572
74813W        W17751   6.005  28.430   7.351  0.1725 -0.0117 -0.0032
74814W        W17752   4.829  25.871   9.863 -0.0897  0.0169  0.3201
74815W        W17753   6.030  28.381   9.093  0.3725  0.1916 -0.1742
74816W        W17754   6.294  24.119   9.472  0.0500  0.1168 -0.0961
74817W        W17755   4.778  27.238   9.698  0.1096 -0.0549 -0.0558
74818W        W17756   5.017  25.966   6.986  0.0528 -0.1995  0.1184
74819W        W17757   3.844  26.650   8.692 -0.0083  0.1754 -0.3231
74820W        W17758   5.901  25.221   9.990 -0.2341 -0.0542 -0.1382
74821W        W17759   7.564  28.115   8.707 -0.1091 -0.2687  0.0012
74822W        W17760   3.523  24.847   8.518 -0.0714 -0.1782 -0.0011
74823W        W17761   4.453  25.844   8.927  0.0093 -0.2194 -0.2761
74824W        W17762   4.479  27.615   9.284 -0.1116  0.0752  0.0618
74825W        W17763   7.678  26.727   7.749 -0.3792 -0.0985  0.1167
74826W        W17764   4.313  26.035   8.331  0.0323  0.2089  0.3026
74827W        W17765   6.496  26.181   8.580  0.3264 -0.0656 -0.4913
74828W        W17766   4.962  27.744   9.507  0.1888 -0.1032 -0.0215
74829W        W17767   3.213  27.976   8.576  0.0677 -0.1813  0.1543
74830W        W17768   5.178  28.248   9.204  0.4135  0.0312 -0.0143
74831W        W17769   4.587  27.538   8.019 -0.1640 -0.2693 -0.0756
74832W        W17770   3.771  28.089   9.347  0.4380  0.2760 -0.0793
74833W        W17771   8.452  28.644  10.421  0.0395  0.0239 -0.0609
74834W        W17772   4.838  26.110  10.303 -0.0065  0.0765  0.2048
74835W        W17773   4.968  27.242   7.868 -0.1290 -0.0975  0.0245
74836W        W17774   5.095  26.445   9.896 -0.1336  0.0923 -0.0215
74837W        W17775   5.506  27.867  10.221  0.4136 -0.0516 -0.0802
74838W        W17776   5.166  26.374   9.350 -0.2222 -0.2893  0.0262
74839W        W17777   5.685  25.074   8.597 -0.1026 -0.0209  0.1499
74840W        W17778   6.577  29.555   7.828  0.0567  0.1953  0.2601
74841W        W17779   4.796  27.218   9.156 -0.1383  0.2009  0.1677
74842W        W17780   5.920  25.795   9.706  0.2554 -0.1380 -0.1496
74843W        W17781   5.417  27.520   9.821  0.1345 -0.6947 -0.2257
74844W        W17782   4.339  26.217   9.238  0.2333  0.0429 -0.1353
74845W        W17783   3.380  27.947   9.034  0.2218  0.1218 -0.3262
74846W        W17784   4.741  27.721   8.744 -0.1209 -0.0548 -0.1485
74847W        W17785   3.246  29.024   8.677  0.0992  0.3672  0.3102
74848W        W17786   7.520  26.855   7.007 -0.3638 -0.1479 -0.3382
74849W        W17787   5.538  27.263   7.911  0.4327  0.0507 -0.1582
74850W        W17788   5.549  26.263   9.637 -0.1850 -0.1782  0.3646
74851W        W17789   6.082  27.055   8.798 -0.0645 -0.1279 -0.0199
74852W        W17790   5.857  24.410   8.786 -0.1871  0.0736  0.0903
74853W        W17791   7.665  28.470   9.624 -0.3712  0.1298  0.0193
74854W        W17792   6.977  27.144   7.628 -0.0883 -0.1059 -0.0156
74855W        W17793   5.362  26.424   7.802  0.0075  0.1695  0.4647
74856W        W17794   6.096  26.487   9.724  0.0401 -0.1804 -0.3013
74857W        W17795   8.512  27.892   9.759  0.0286  0.1223 -0.0431
74858W        W17796   4.288  27.762   8.416  0.0081 -0.0913 -0.0162
74859W        W17797   6.606  26.563   9.862  0.0333 -0.0116  0.1712
74860W        W17798   4.268  25.763  10.136  0.0423  0.0398  0.0936
74861W        W17799   7.320  27.221   8.609 -0.0668 -0.2379  0.5921
74862W        W17800   4.578  26.496   8.108  0.1557 -0.1594  0.1222
74863W        W17801   4.091  27.252   9.319 -0.0931 -0.3062  0.4113
74864W        W17802   9.561  26.425   9.522  0.0822  0.1179 -0.0519
74865W        W17803   5.200  24.867   9.287  0.0638  0.0208  0.2377
74866W        W17804   6.493  28.850   8.732 -0.4089  0.0952 -0.0542
74867W        W17805   7.750  25.821   7.345  0.0117 -0.1055  0.1033
74868W        W17806   6.328  24.211   8.990  0.0854 -0.2226 -0.1733
74869W        W17807   8.122  28.672   8.139  0.0333 -0.2746 -0.0654
74870W        W17808   4.907  25.482   8.179 -0.0226  0.3532  0.2528
74871W        W17809   4.214  27.116   9.778  0.0517 -0.1126 -0.0064
74872W        W17810   5.992  27.146   6.445 -0.0295  0.4402 -0.1811
74873W        W17811   4.862  28.253   7.874  0.0872 -0.0939 -0.2326
74874W        W17812   8.703  28.833   9.712  0.0085  0.1264  0.1026
74875W        W17813   6.265  24.657   8.086  0.2059  0.0643  0.1126
74876W        W17814   2.473  25.588   9.694  0.0158  0.2090  0.1149
74877W        W17815   4.725  26.142   5.151  0.1452  0.0945  0.2632
74878W        W17816   4.460  28.188   8.159  0.3405 -0.1285  0.0097
74879W        W17817   5.466  29.434   8.364 -0.0433 -0.1106  0.2930
74880W        W17818   6.735  24.365   6.840 -0.1171 -0.1885 -0.3599
74881W        W17819   5.322  28.426   8.506 -0.2201 -0.0597  0.1061
74882W        W17820   5.496  26.577   8.554  0.2669 -0.0501 -0.1649
74883W        W17821   2.607  25.400  10.205  0.0326 -0.2550  0.2531
74884W        W17822   4.750  27.955   7.208  0.0775 -0.2103  0.0476
74885W        W17823   6.333  25.723   8.832  0.1314  0.0673  0.1503
74886W        W17824   5.138  27.629   9.070  0.1591  0.2303  0.0391
74887W        W17825   4.668  26.230   8.632 -0.2837  0.0770  0.3073
74888W        W17826   3.785  27.968  10.012  0.1310 -0.0794 -0.2004
74889W        W17827   8.597  27.049   9.669 -0.1335 -0.1954  0.4219
74890W        W17828   4.245  28.032   9.223  0.0707 -0.2308  0.0947
74891W        W17829   4.547  28.637   9.811  0.0384  0.0883  0.3560
74892W        W17830   4.249  26.263   7.848 -0.1836 -0.2440  0.0030
74893W        W17831   6.197  29.349   6.710 -0.2489  0.4236  0.0551
74894W        W17832   3.270  25.392   9.271 -0.2004  0.1889  0.5204
74895W        W17833   3.892  29.651   8.220 -0.2057 -0.0602 -0.2238
74896W        W17834   6.572  28.337   8.719  0.1139 -0.2652  0.1289
74897W        W17835   6.999  26.143   9.629  0.2420  0.1697  0.3024
74898W        W17836   5.557  28.762   9.845  0.2099 -0.1043 -0.1670
74899W        W17837   5.895  25.068   8.157 -0.2477  0.2477  0.0631
74900W        W17838   4.119  28.522   8.410 -0.1133 -0.0198  0.0073
74901W        W17839   4.127  27.704   7.875 -0.1495 -0.1152 -0.1030
74902W        W17840   7.553  29.259   7.775 -0.0775 -0.0996  0.2279
74903W        W17841   3.060  29.717   7.450  0.2413  0.3251  0.0985
74904W        W17842   6.864  27.383   8.642 -0.2136  0.0325 -0.2618
74905W        W17843   5.515  26.048   8.631 -0.2037 -0.1255 -0.3342
74906W        W17844   8.905  26.278   8.258  0.1414 -0.1330  0.2351
74907W        W17845   4.715  26.296   9.610  0.2661  0.4004 -0.1119
74908W        W17846   5.831  24.688   7.772  0.0295 -0.3787 -0.1917
74909W        W17847   5.223  27.571   8.193 -0.0723 -0.4051 -0.1759
74910W        W17848   5.607  26.062   8.101 -0.0913  0.0030  0.1595
74911W        W17849   4.617  28.135   9.663 -0.0765  0.4838 -0.2031
74912W        W17850   6.191  25.244   8.838 -0.1482 -0.0218  0.0423
74913W        W17851   6.158  28.342   6.807 -0.0229 -0.0951 -0.0334
74914W        W17852   7.165  27.618  10.126  0.3577  0.0444 -0.1805
74915W        W17853   3.968  28.073   8.217  0.2809  0.1784  0.0015
74916W        W17854   3.737  28.678   9.303 -0.1348  0.0040  0.0784
74917W        W17855   3.742  29.111   9.509  0.0536 -0.0051  0.1857
74918W        W17856   4.643  27.014   8.200  0.0019  0.2561 -0.0534
74919W        W17857   7.391  24.897   7.201  0.2014 -0.2560  0.0373
74920W        W17858   3.772  24.925   9.797  0.4960 -0.0464  0.0314
74921W        W17859   5.011  27.481  10.127  0.0875  0.2601  0.1766
74922W        W17860   6.909  28.079   7.159  0.2882 -0.2679  0.0545
74923W        W17861   8.008  28.871  10.499  0.4990 -0.0225  0.0243
74924W        W17862   3.381  24.831   9.481  0.1271 -0.2821  0.0859
74925W        W17863   5.425  27.292   6.997 -0.1648 -0.0209 -0.1014
74926W        W17864   5.686  27.150   7.377 -0.3438 -0.1506  0.3039
74927W        W17865   3.791  25.159   9.362 -0.1241 -0.1638  0.0225
74928W        W17866   6.122  25.577   7.501 -0.2351 -0.1011 -0.0370
74929W        W17867   5.734  28.113   8.581  0.2916  0.1092 -0.0506
74930W        W17868   6.435  28.405   9.438 -0.0528 -0.1693  0.0947
74931W        W17869   3.829  26.158   9.218 -0.2067  0.2419 -0.3057
74932W        W17870   6.878  28.686   8.421  0.1326  0.0489 -0.0200
74933W        W17871   5.202  27.078   9.963  0.1018  0.0361  0.3257
74934W        W17872   4.878  29.194   7.583 -0.1777  0.1762 -0.1831
74935W        W17873   8.008  27.821  10.107  0.1104 -0.2392 -0.1262
74936W        W17874   6.718  29.232   9.020  0.1157 -0.1315  0.0018
74937W        W17875   4.953  26.848   9.474  0.0429  0.1537  0.1561
74938W        W17876   4.767  28.908   9.425  0.0162  0.1740 -0.4461
74939W        W17877   6.614  27.054   9.016 -0.0526 -0.4012  0.0222
74940W        W17878   5.826  25.602   8.848 -0.1488  0.1330  0.1265
74941W        W17879   4.860  28.060  10.111 -0.3145  0.1604 -0.0577
74942W        W17880   3.904  28.159   8.763  0.2366 -0.2179 -0.2227
74943W        W17881   5.926  26.126   9.303  0.2267  0.0084 -0.0208
74944W        W17882   3.521  29.529   7.904 -0.4430  0.2202  0.1343
74945W        W17883   6.610  27.947   9.751 -0.0912  0.0905  0.0885
74946W        W17884   4.412  27.244   8.840  0.0765 -0.1468 -0.2181
74947W        W17885   5.644  28.217   7.742  0.2145 -0.3676 -0.0250
74948W        W17886   5.752  27.419   8.383  0.1783  0.0576 -0.0858
74949W        W17887   8.089  27.194   9.456  0.1247 -0.1838 -0.1965
74950W        W17888   5.972  26.548   8.575  0.0600 -0.1737  0.0789
74951W        W17889   6.647  29.153   7.541 -0.1551  0.0526  0.1344
74952W        W17890   5.902  26.764   9.276 -0.4641 -0.3455  0.0122
74953W        W17891   6.579  25.274   9.102 -0.1143  0.1287 -0.3827
74954W        W17892   6.174  24.302   7.724  0.1173 -0.1485 -0.1485
74955W        W17893   4.346  28.013  10.125  0.3207  0.2006  0.0386
74956W        W17894   2.378  25.491   8.779 -0.1680  0.1626 -0.1983
74957W        W17895   4.102  27.655   7.332 -0.1813  0.4075 -0.1852
74958W        W17896   4.566  27.655   9.826  0.0264  0.0076 -0.1024
74959W        W17897   3.127  26.678   9.869  0.0146  0.1357  0.2308
74960W        W17898   2.887  27.220   9.132 -0.1015 -0.2258 -0.2971
74961W        W17899   6.598  29.169   8.179 -0.0466 -0.1109 -0.0182
74962W        W17900   3.048  23.715   9.256  0.0989  0.4683 -0.0956
74963W        W17901   3.536  24.634   9.064 -0.1758  0.1662 -0.2208
74964W        W17902   5.796  27.319  10.240  0.0275 -0.0568 -0.0440
74965W        W17903   7.057  28.222   8.621  0.0127  0.0726 -0.0227
74966W        W17904   5.427  25.513   8.406  0.1444 -0.1259  0.0267
74967W        W17905   4.264  27.217   7.633 -0.3750  0.1020 -0.0516
74968W        W17906   5.096  25.600   7.304  0.0253  0.1508  0.0378
74969W        W17907   4.691  26.853   8.782  0.0547 -0.1742  0.2845
74970W        W17908   5.961  28.561   8.613 -0.0262  0.0703 -0.0804
74971W        W17909   7.826  29.678   6.153  0.0428  0.0690  0.1245
74972W        W17910   4.487  24.466   9.731  0.0233 -0.2933  0.0852
74973W        W17911   6.339  27.454   8.761 -0.2786  0.2092  0.0534
74974W        W17912   7.742  27.948   7.464  0.0146 -0.0096 -0.2524
74975W        W17913   7.674  24.548   9.849  0.0043  0.3397 -0.1069
74976W        W17914   5.186  27.303   9.447  0.1260 -0.0288 -0.0654
74977W        W17915   6.363  25.547   9.879  0.2550 -0.1181 -0.2282
74978W        W17916   4.053  26.714   9.174  0.4368 -0.0776 -0.0223
74979W        W17917   6.679  24.367   8.032 -0.1508 -0.0444 -0.5966
74980W        W17918   6.198  28.861   8.202 -0.1282 -0.1044  0.1282
74981W        W17919   1.505  24.662   9.571  0.0884  0.0636 -0.2081
74982W        W17920   6.334  26.289   6.868 -0.0218  0.1689 -0.1857
74983W        W17921   4.726  29.725   7.216  0.3458 -0.3263  0.0601
74984W        W17922   4.902  27.274   8.568 -0.0801 -0.0806  0.0424
74985W        W17923   6.454  27.814   8.020  0.2338  0.2050  0.0369
74986W        W17924   5.694  27.990   9.605 -0.0668  0.1073 -0.0430
74987W        W17925   5.975  27.581   9.745 -0.0863 -0.1932 -0.1801
74988W        W17926   5.707  26.774   9.991  0.2900  0.0638  0.0440
74989W        W17927   4.475  25.358   9.132 -0.4782 -0.0832  0.1389
74990W        W17928   2.505  27.339   8.547 -0.0554 -0.3653 -0.2923
74991W        W17929   5.932  28.954   8.916  0.0857 -0.0825  0.0874
74992W        W17930   4.556  27.159  10.210  0.0553  0.0363 -0.2707
74993W        W17931   5.067  26.821   8.426  0.1385 -0.2171 -0.2230
74994W        W17932   7.232  26.352   7.093 -0.0445  0.1620 -0.1251
74995W        W17933   3.650  29.048   9.008  0.1537  0.1006  0.1177
74996W        W17934   6.205  27.903   9.424  0.1790  0.2077  0.0651
74997W        W17935   4.042  31.583   2.754 -0.1762 -0.2240  0.3571
74998W        W17936   5.205  31.563   0.939  0.3181  0.1035  0.0533
74999W        W17937   7.412  30.120   1.021  0.0280 -0.0580 -0.0577
75000W        W17938   8.278  30.414   0.968 -0.0186 -0.0156 -0.1943
75001W        W17939   5.581  30.296   0.830  0.1194 -0.0006 -0.0163
75002W        W17940   8.938  31.792  31.535 -0.0269 -0.0275 -0.1419
75003W        W17941   5.123  28.338   2.596  0.2731  0.2641  0.2731
75004W        W17942   7.016  32.259   3.098 -0.2110  0.1619  0.0976
75005W        W17943   8.169  31.175   2.785  0.1975  0.0507 -0.1905
75006W        W17944   7.021  32.066   1.333 -0.0526  0.1262 -0.2142
75007W        W17945   4.622  30.492   1.879 -0.0120 -0.3250  0.2301
75008W        W17946   4.144  31.575   3.795 -0.1448 -0.0259 -0.1813
75009W        W17947   5.773  28.844   0.802  0.3131 -0.2597 -0.0025
75010W        W17948   3.225  28.707   1.165  0.2790 -0.0859  0.2886
75011W        W17949   6.051  31.681   2.783 -0.0488 -0.0893 -0.1689
75012W        W17950   4.576  30.216   0.899 -0.0692 -0.0818  0.2143
75013W        W17951   4.414  29.286   3.434 -0.1669  0.0334 -0.1204
75014W        W17952   4.730  29.298   1.342  0.0240 -0.2727  0.1096
75015W        W17953   8.240  31.591   2.421 -0.0313  0.0736  0.0186
75016W        W17954   4.131  30.224   3.697  0.2063  0.0244 -0.1455
75017W        W17955   4.640  28.160   2.596 -0.2918 -0.0852  0.0437
75018W        W17956   5.767  31.775   2.346 -0.0004 -0.1778 -0.1409
75019W        W17957   4.042  28.744   0.653  0.2138  0.1552  0.0484
75020W        W17958   3.196  29.944   2.072 -0.0359  0.1109 -0.1062
75021W        W17959   5.631  29.437   2.878  0.0493 -0.2125  0.2100
75022W        W17960   5.750  28.763   2.145  0.1630  0.0605 -0.0731
75023W        W17961   8.214  29.912   1.857  0.4278 -0.0016 -0.2528
75024W        W17962   4.883  34.010   1.445 -0.1542 -0.2302  0.3797
75025W        W17963   6.518  31.898   1.493  0.0858 -0.0337 -0.1119
75026W        W17964   7.714  29.960   3.638 -0.1751 -0.0968 -0.0270
75027W        W17965   4.654  31.234   1.238  0.0279  0.0331 -0.1614
75028W        W17966   4.748  32.154   0.949 -0.0115  0.0553  0.1640
75029W        W17967   4.882  31.784   1.233  0.0226  0.1614 -0.1826
75030W        W17968   8.042  30.951   0.163 -0.2398 -0.2684 -0.1799
75031W        W17969   6.676  32.855   5.403 -0.0546  0.1409  0.3807
75032W        W17970   4.965  32.520   3.231 -0.0423  0.0064 -0.2443
75033W        W17971   3.256  32.616   1.155  0.2430  0.0897  0.2280
75034W        W17972   5.312  32.156   3.217  0.1219 -0.0639  0.2033
75035W        W17973   5.543  30.907   3.175  0.2635  0.1378 -0.0868
75036W        W17974   4.640  30.756   3.228  0.0594  0.0685 -0.1525
75037W        W17975   7.213  30.875   2.849 -0.1900  0.1074 -0.0387
75038W        W17976   5.353  31.252   1.418  0.0788 -0.3735 -0.2973
75039W        W17977   6.266  31.065   2.192  0.3759  0.2747 -0.4531
75040W        W17978   3.156  31.635   4.976 -0.0610 -0.4030  0.0185
75041W        W17979   3.116  32.088   2.652  0.0462 -0.2185  0.0272
75042W        W17980   7.809  30.364   3.208 -0.1161  0.0507  0.0027
75043W        W17981   6.172  32.261   0.285 -0.3766  0.1838  0.0838
75044W        W17982   6.734  30.564   1.390  0.2436  0.0390 -0.0665
75045W        W17983   6.001  30.219   0.044  0.1890 -0.0827  0.0805
75046W        W17984   5.484  29.376  31.618  0.2098  0.0646  0.2560
75047W        W17985   5.720  28.526   2.572 -0.0139  0.0827  0.1674
75048W        W17986   3.555  32.408   1.895 -0.0859  0.2208 -0.1338
75049W        W17987   4.684  29.838   2.833  0.0379 -0.0505 -0.2169
75050W        W17988   6.901  34.053   2.930  0.2758 -0.0101 -0.1130
75051W        W17989   5.358  31.064   0.951 -0.0528 -0.0316 -0.0536
75052W        W17990   6.777  30.241   2.415 -0.3243  0.2662  0.1783
75053W        W17991   3.172  32.196   1.599 -0.0842 -0.0026  0.2062
75054W        W17992   4.424  30.718   2.684 -0.0941 -0.2663 -0.0053
75055W        W17993   7.410  33.511   0.958  0.0729  0.1804 -0.0634
75056W        W17994   8.514  31.356   1.058 -0.0091 -0.1910 -0.0122
75057W        W17995   5.966  33.103   0.065  0.1531  0.1089 -0.0255
75058W        W17996   5.820  31.270   1.201 -0.0390 -0.1187  0.1419
75059W        W17997   4.000  30.672   4.281 -0.1359 -0.1815  0.0505
75060W        W17998   3.753  31.860   3.633  0.5021  0.0638  0.0236
75061W        W17999   6.406  30.237   1.212 -0.0723  0.0678  0.0486
75062W        W18000   7.963  31.610   4.459 -0.1039 -0.2879  0.1245
75063W        W18001   2.797  31.298   3.489  0.1989 -0.1051  0.0283
75064W        W18002   8.185  28.498   1.553 -0.2851  0.1653  0.1507
75065W        W18003   5.298  31.369   1.876 -0.3345 -0.1013  0.1740
75066W        W18004   7.103  31.352   2.612  0.0128  0.2249 -0.1220
75067W        W18005   6.722  31.567   0.608  0.2329 -0.0184  0.2274
75068W        W18006   6.097  29.827   2.684  0.2946 -0.0536 -0.0669
75069W        W18007   4.919  30.691   2.739  0.0638  0.0357  0.0748
75070W        W18008   5.139  29.735  31.548 -0.0492  0.0553 -0.2105
75071W        W18009   5.291  32.075   0.973  0.0805 -0.0038 -0.3356
75072W        W18010   7.985  32.087   3.540 -0.0669 -0.0998  0.4025
75073W        W18011   6.787  29.375   1.917  0.2063 -0.2913  0.0433
75074W        W18012   4.097  32.699   1.982 -0.1312 -0.1106 -0.0504
75075W        W18013   5.805  29.336   3.403 -0.0967 -0.3691  0.0158
75076W        W18014   6.034  31.888   4.053  0.0991  0.0934 -0.0565
75077W        W18015   4.660  32.615  31.204  0.0097  0.0929 -0.2585
75078W        W18016   3.196  30.548   2.593  0.0851  0.0744 -0.2658
75079W        W18017   3.953  30.188   0.656 -0.3498 -0.1893  0.0223
75080W        W18018   2.660  28.879   3.514 -0.3534 -0.0894 -0.0368
75081W        W18019   4.757  31.630   2.166  0.1421  0.0616  0.1025
75082W        W18020   8.148  28.208   0.288  0.1601  0.1231 -0.3269
75083W        W18021   3.128  29.429   2.563  0.0175  0.3848  0.2263
75084W        W18022   8.382  28.923   1.816  0.4838  0.2126 -0.1138
75085W        W18023   5.541  30.873   1.897 -0.2385 -0.0273 -0.2408
75086W        W18024   7.401  32.323   1.744  0.2346  0.1972 -0.5369
75087W        W18025   6.435  28.562   1.482 -0.2337  0.2109 -0.1641
75088W        W18026   7.320  31.227   1.585  0.1639  0.1022 -0.0491
75089W        W18027   3.742  31.192   3.679  0.1691 -0.2123  0.0339
75090W        W18028   5.103  30.767   2.239 -0.1244  0.2578  0.1953
75091W        W18029   3.974  30.066   4.734  0.0928  0.1248  0.0491
75092W        W18030   3.508  29.594   2.203 -0.1981  0.2621  0.1664
75093W        W18031   6.445  30.455   3.854 -0.1399 -0.0691 -0.0857
75094W        W18032   5.243  30.604   1.022  0.0941  0.3340  0.0921
75095W        W18033   7.154  30.750   1.586 -0.0786  0.2060 -0.0668
75096W        W18034   4.951  30.475   0.593  0.1709 -0.0113  0.1225
75097W        W18035   3.853  31.347   0.539 -0.2564 -0.3568  0.1595
75098W        W18036   6.116  29.114   3.876  0.0399  0.0379  0.0556
75099W        W18037   5.343  30.753   0.519 -0.3922 -0.1904  0.2151
75100W        W18038   7.741  32.974   2.762  0.1252  0.0591  0.1540
75101W        W18039   7.707  32.093   1.457 -0.1065  0.2569  0.0299
75102W        W18040   4.042  31.055   2.875  0.0309 -0.1860 -0.0865
75103W        W18041   5.357  29.714   0.590 -0.3701  0.1446 -0.1243
75104W        W18042   3.027  33.441   1.205  0.4116 -0.1200 -0.1852
75105W        W18043   6.210  31.547   2.350 -0.1972  0.1935 -0.0563
75106W        W18044   4.082  31.055   1.705  0.0974  0.2802 -0.0619
75107W        W18045   8.142  32.714   2.201  0.0318  0.2368  0.3199
75108W        W18046   6.338  30.765   1.090 -0.2804 -0.2947 -0.2796
75109W        W18047   4.866  32.952   2.673 -0.1616 -0.1156  0.3858
75110W        W18048   7.332  30.451   3.341 -0.0866  0.0847 -0.2596
75111W        W18049   7.188  29.282   1.599  0.0151 -0.0084 -0.0269
75112W        W18050   7.168  30.566   1.119  0.0199  0.0174  0.2676
75113W        W18051   5.102  29.149  31.318 -0.4653  0.4337 -0.0131
75114W        W18052   7.403  32.203   0.984 -0.1404  0.0229 -0.0062
75115W        W18053   6.032  31.907  31.956  0.1353 -0.0390 -0.0203
75116W        W18054   5.270  31.630   2.296  0.2436  0.3128 -0.0184
75117W        W18055   6.326  32.347   1.403  0.0641  0.2338 -0.1491
75118W        W18056   8.382  28.348   2.132  0.2353  0.4947  0.2080
75119W        W18057   2.998  29.973   3.885 -0.2128  0.2347  0.1231
75120W        W18058   4.866  31.592   3.150 -0.2354  0.1792 -0.1535
75121W        W18059   4.693  30.729   0.118  0.0678  0.1452 -0.0300
75122W        W18060   5.442  32.146   2.481  0.0413 -0.1102 -0.2817
75123W        W18061   7.069  30.913   2.220  0.3072  0.0598 -0.1545
75124W        W18062   6.807  30.321   0.089  0.1074  0.1171  0.0368
75125W        W18063   5.350  30.904   2.733 -0.2636 -0.0729  0.3561
75126W        W18064   8.090  31.622   0.940  0.1518  0.3024 -0.3057
75127W        W18065   6.244  28.743  31.346 -0.1227 -0.2421 -0.0934
75128W        W18066   6.734  28.468   2.210  0.2041 -0.2264 -0.0888
75129W        W18067   5.619  33.347   2.055  0.0098  0.0606 -0.2706
75130W        W18068   5.681  31.583   0.169 -0.0467 -0.0129 -0.2019
75131W        W18069   5.564  32.826   2.184 -0.1554 -0.0838 -0.2736
75132W        W18070   4.342  29.603   1.562 -0.3157  0.1556 -0.1885
75133W        W18071   8.157  32.724   0.975 -0.0401  0.2169  0.0796
75134W        W18072   4.189  30.875   3.415  0.0935 -0.1521 -0.2036
75135W        W18073   6.209  32.097   3.015 -0.2351  0.0499  0.1374
75136W        W18074   7.303  33.186   1.906 -0.0565 -0.3560 -0.0260
75137W        W18075   5.253  29.192   3.342 -0.2204 -0.1000 -0.0954
75138W        W18076   6.058  29.891   0.988 -0.3073 -0.0201  0.4565
75139W        W18077   4.657  29.151   1.858 -0.0598  0.1033  0.0881
75140W        W18078   3.806  31.543  31.523  0.1450  0.0802 -0.0334
75141W        W18079   7.463  30.441   2.814 -0.3553 -0.1107  0.1587
75142W        W18080   5.892  30.241   2.462 -0.0164  0.3047  0.0976
75143W        W18081   5.813  28.966   2.892 -0.2506 -0.0415 -0.1974
75144W        W18082   7.475  31.154   4.714 -0.3374 -0.1074 -0.0102
75145W        W18083   6.722  30.955   1.860  0.0120  0.1415  0.0583
75146W        W18084   5.048  31.373   2.699  0.1897  0.1779  0.3762
75147W        W18085   5.350  29.173   0.576 -0.1424 -0.0670 -0.0035
75148W        W18086   7.406  30.289   3.994 -0.0720  0.0477 -0.1269
75149W        W18087   3.743  32.093   3.208 -0.1330  0.2033 -0.1099
75150W        W18088   4.518  32.795   2.989  0.1240 -0.1667 -0.2012
75151W        W18089   4.827  32.362   2.757  0.1611  0.2627 -0.0003
75152W        W18090   7.510  30.839   2.413  0.2762  0.0455  0.1546
75153W        W18091   5.301  30.403   4.364  0.0441 -0.3173 -0.1466
75154W        W18092   6.833  30.076   1.109  0.2871 -0.3173 -0.1363
75155W        W18093   5.321  33.617   1.770  0.1846  0.4199 -0.1695
75156W        W18094   5.463  32.598   1.357 -0.0452  0.1245  0.1637
75157W        W18095   3.926  29.504   1.876 -0.0377 -0.1126  0.2631
75158W        W18096   5.496  33.754   2.360 -0.1304 -0.2481  0.2940
75159W        W18097   4.895  31.229   0.147  0.0534 -0.0950  0.0378
75160W        W18098   6.680  31.264   2.351 -0.1051  0.3555 -0.0385
75161W        W18099   5.594  30.844   1.332  0.0878 -0.0575 -0.0178
75162W        W18100   7.981  30.363   2.741 -0.2109 -0.1024 -0.0595
75163W        W18101   2.384  31.841   1.670  0.0158 -0.1277 -0.1568
75164W        W18102   6.057  30.185   1.974  0.1770  0.1419 -0.1361
75165W        W18103   4.356  30.456  31.326 -0.0198  0.0230 -0.1278
75166W        W18104   7.725  29.584   1.001  0.1435 -0.4629  0.0278
75167W        W18105   8.216  31.559  31.960  0.2445 -0.0484 -0.1407
75168W        W18106   4.249  30.136   2.628 -0.0093 -0.1191  0.0562
75169W        W18107   5.133  29.239   2.784  0.1353 -0.2719  0.0801
75170W        W18108   3.619  31.325   2.844  0.2168  0.0917  0.0654
75171W        W18109   5.583  29.889   2.700  0.1373 -0.1202 -0.1749
75172W        W18110   6.262  29.236   0.084 -0.0691 -0.1513 -0.1407
75173W        W18111   7.461  32.113   2.664 -0.4697 -0.4262 -0.0401
75174W        W18112   4.315  31.390   4.245 -0.0735 -0.2096 -0.0275
75175W        W18113   4.321  30.322  31.830 -0.1227 -0.1034  0.0264
75176W        W18114   8.209  30.708   3.911 -0.1264 -0.2387  0.1740
75177W        W18115   4.220  31.325   2.409 -0.2866 -0.0100  0.1515
75178W        W18116   4.169  31.417   1.310  0.1393  0.0437  0.1584
75179W        W18117   6.983  32.002   2.494  0.1781 -0.2391 -0.0678
75180W        W18118   5.245  32.176  30.732 -0.0309 -0.0495 -0.0210
75181W        W18119   3.825  31.691   2.325 -0.0926 -0.0575  0.0475
75182W        W18120   3.626  30.290   3.911  0.0660 -0.0573  0.0538
75183W        W18121   7.953  32.365   2.985  0.0164 -0.0308 -0.0676
75184W        W18122   5.859  30.651   2.191  0.0471 -0.1291  0.2090
75185W        W18123   4.421  30.374   0.447  0.2275 -0.1674  0.0727
75186W        W18124   6.467  30.811   3.073  0.0133 -0.1205 -0.2478
75187W        W18125   8.287  31.896   2.030 -0.0047  0.0208  0.0563
75188W        W18126   6.822  30.057   3.169 -0.2676  0.4321 -0.0985
75189W        W18127   4.713  32.315   3.977 -0.3074 -0.1901  0.1173
75190W        W18128   5.368  29.486   2.412 -0.1912  0.0886  0.1211
75191W        W18129   8.727  32.633   0.145  0.2045  0.0875  0.4087
75192W        W18130   5.663  30.505   2.835  0.0693 -0.1073 -0.1170
75193W        W18131   4.761  31.917   0.044  0.1762  0.0521  0.1987
75194W        W18132   2.786  30.560   2.081  0.4128  0.2025  0.0437
75195W        W18133   3.986  32.974   1.041  0.1728  0.0400  0.0050
75196W        W18134   6.632  30.466   3.403 -0.1818  0.0443 -0.1059
75197W        W18135   3.542  32.473   2.430 -0.1728  0.0471 -0.1173
75198W        W18136   3.788  31.644   0.123  0.0554 -0.0470  0.0792
75199W        W18137   4.559  31.718   2.662 -0.1476  0.0783 -0.2233
75200W        W18138   6.204  29.186   1.174 -0.1693 -0.1750  0.1402
75201W        W18139   6.834  29.897   1.981 -0.1421  0.0317 -0.1843
75202W        W18140   5.059  31.095   3.176  0.2148  0.0305 -0.0788
75203W        W18141   6.574  29.019   2.244 -0.0625  0.1508  0.2334
75204W        W18142   6.658  31.058   0.759 -0.1542 -0.2465  0.0629
75205W        W18143   7.235  30.464   2.370  0.1198  0.1301 -0.2222
75206W        W18144   3.496  30.327   3.009 -0.0775  0.2574 -0.1524
75207W        W18145   6.909  31.044   1.306 -0.1534 -0.1575 -0.3064
75208W        W18146   3.565  29.829   3.228  0.3297  0.0312 -0.0563
75209W        W18147   4.650  31.238   3.441 -0.3111 -0.3408  0.3650
75210W        W18148   5.600  31.826   2.880  0.2632 -0.1596 -0.2145
75211W        W18149   5.839  29.738   2.202  0.1506 -0.1730 -0.0048
75212W        W18150   5.559  30.213   1.347 -0.1447 -0.1183  0.0851
75213W        W18151   4.976  30.981   1.798 -0.1656  0.0183  0.1644
75214W        W18152   6.761  31.335   3.081 -0.2015  0.2427  0.0374
75215W        W18153   6.046  31.924   0.607  0.2248  0.0032 -0.3148
75216W        W18154   8.105  29.586   2.421  0.1994  0.0368 -0.0420
75217W        W18155   4.967  32.045   2.337 -0.1812 -0.0183 -0.0059
75218W        W18156   6.606  29.832   1.480 -0.0701 -0.1073 -0.0346
75219W        W18157   6.203  31.217   0.897 -0.1235 -0.1174  0.1951
75220W        W18158   5.734  31.598   1.558  0.1420  0.1565 -0.2840
75221W        W18159   4.946  30.041   3.234  0.0786 -0.0407 -0.1436
75222W        W18160   7.909  31.263   3.290  0.2009 -0.0523  0.0625
75223W        W18161   6.355  29.967   2.290 -0.0104 -0.1842  0.0718
75224W        W18162   6.912  29.480   2.523 -0.1035 -0.2265 -0.0662
75225W        W18163   7.870  31.636   2.072  0.0878 -0.0056 -0.0580
75226W        W18164   6.640  29.579   3.068 -0.0651  0.0328 -0.1200
75227W        W18165   3.611  29.330   3.816  0.0662 -0.1474  0.1459
75228W        W18166   6.768  30.807   3.747 -0.1572 -0.0500  0.0862
75229W        W18167   7.051  30.077   0.634  0.1149  0.0922 -0.2070
75230W        W18168   8.470  31.103   3.249 -0.1578 -0.0692  0.1129
75231W        W18169   8.325  30.018   0.509  0.0313 -0.1456 -0.4874
75232W        W18170   4.821  30.486  31.625  0.1671  0.0637  0.0829
75233W        W18171   3.857  29.266   3.006  0.0755 -0.0121  0.1382
75234W        W18172   7.290  30.775   3.811 -0.0656  0.0392 -0.0872
75235W        W18173   6.506  30.264   1.742  0.3956  0.1708  0.2676
75236W        W18174   7.645  30.849   3.333 -0.1439  0.2307 -0.0352
75237W        W18175   6.167  32.269  31.632  0.0331 -0.0073 -0.1402
75238W        W18176   6.152  31.636   1.275  0.0782 -0.2510 -0.1072
75239W        W18177   6.280  29.716   1.851  0.0024  0.2341  0.1272
75240W        W18178   3.480  29.637   1.666 -0.0654  0.0639  0.1841
75241W        W18179   3.675  33.374   3.172 -0.0187  0.0036 -0.1179
75242W        W18180   6.001  30.052   1.496  0.2270 -0.0515  0.1740
75243W        W18181   5.311  31.319   0.502 -0.1582  0.1604  0.3163
75244W        W18182   5.782  31.239   2.592  0.0118 -0.1253  0.1125
75245W        W18183   7.542  32.185   3.262 -0.1285 -0.1730 -0.0851
75246W        W18184   5.583  28.313  30.234  0.1342  0.0013  0.0870
75247W        W18185   7.605  30.122   2.506 -0.1811 -0.0923 -0.0058
75248W        W18186   4.956  31.688   0.536 -0.0708 -0.0628  0.1746
75249W        W18187   5.288  29.948   2.305  0.0204 -0.2919  0.2310
75250W        W18188   5.759  32.324   2.100 -0.1463 -0.1363 -0.1562
75251W        W18189   3.670  32.034   2.699  0.1028  0.5805  0.3603
75252W        W18190   4.134  33.010   2.764 -0.1322  0.0273 -0.0768
75253W        W18191   5.908  29.330   2.420  0.1210 -0.1268 -0.1097
75254W        W18192   6.368  29.428   2.292 -0.1332  0.2511 -0.0301
75255W        W18193   6.614  30.852   2.592 -0.4181 -0.1368  0.1289
75256W        W18194   6.373  29.195   3.340  0.0628 -0.0055  0.3162
75257W        W18195   4.824  29.034   3.558 -0.2485 -0.1198  0.0412
75258W        W18196   5.450  31.362   2.965  0.1281  0.2693 -0.0477
75259W        W18197   5.416  30.157   3.115 -0.0120  0.0475 -0.0139
75260W        W18198   6.565  31.684   0.029  0.3003 -0.0523 -0.0978
75261W        W18199   4.253  32.741   1.515  0.2116  0.0981 -0.0433
75262W        W18200   3.331  31.302   4.243  0.1674  0.1827 -0.3202
75263W        W18201   4.771  30.566   4.424 -0.0472  0.3754 -0.1392
75264W        W18202   6.236  32.032   2.297 -0.3630  0.2906  0.3708
75265W        W18203   3.647  30.149   2.526 -0.1750  0.0273 -0.0774
75266W        W18204   5.631  31.327  31.676  0.1954  0.0796 -0.0205
75267W        W18205   4.543  32.349   3.400  0.0416 -0.0565 -0.2099
75268W        W18206   5.327  31.770   1.410 -0.2288 -0.0036 -0.0175
75269W        W18207   4.104  31.583   1.925  0.0232 -0.0274  0.3317
75270W        W18208   7.915  30.772   0.785 -0.0143  0.1083  0.3899
75271W        W18209   7.634  30.810   1.823  0.0737  0.1521  0.1680
75272W        W18210   6.324  31.247   2.744 -0.2973  0.2316  0.1212
75273W        W18211   5.138  29.803   1.428  0.4097  0.0182  0.0769
75274W        W18212   3.881  32.501   1.214  0.0842 -0.1718  0.1593
75275W        W18213   3.750  31.371   1.037  0.1172 -0.2775  0.0781
75276W        W18214   5.789  30.787   0.852  0.1558  0.0333 -0.4653
75277W        W18215   5.236  30.557   1.674  0.0095  0.0009  0.4618
75278W        W18216   6.090  30.182   3.531 -0.1031  0.2147  0.3364
75279W        W18217   6.195  29.656   0.525  0.1049 -0.2142 -0.2216
75280W        W18218   8.420  30.379   1.876  0.5194 -0.1089 -0.2979
75281W        W18219   8.740  29.494   1.306 -0.2354  0.1388  0.0339
75282W        W18220   5.980  31.101   3.113  0.1239  0.1293 -0.1937
75283W        W18221   6.426  30.586   2.198  0.1060  0.2035 -0.0671
75284W        W18222   6.945  28.513   1.229  0.1412 -0.0910  0.1720
75285W        W18223   4.733  31.129   2.307 -0.0786  0.1499  0.3162
75286W        W18224   6.975  29.558   3.497 -0.1352 -0.1360  0.2849
75287W        W18225   3.584  32.122   4.033  0.3493 -0.1201 -0.0821
75288W        W18226   8.056  32.754  31.905  0.0537 -0.1454  0.3313
75289W        W18227   4.083  30.544   1.826 -0.0795 -0.1553  0.0290
75290W        W18228   5.695  31.825   1.068 -0.1608  0.1096 -0.0910
75291W        W18229   7.485  29.556   1.929  0.0660 -0.1275 -0.0774
75292W        W18230   4.651  30.006  31.640 -0.0673  0.0421  0.1924
75293W        W18231   5.032  30.929   1.335 -0.0284  0.1549 -0.1057
75294W        W18232   5.608  33.069   1.200  0.2132 -0.3804  0.0553
75295W        W18233   6.025  32.537   3.423  0.2203 -0.0056 -0.0674
75296W        W18234   6.013  31.890   1.852  0.2152 -0.0997 -0.0833
75297W        W18235   3.697  30.733   2.040 -0.2970  0.0269  0.0562
75298W        W18236   8.744  30.759   2.049 -0.1289  0.0044  0.0612
75299W        W18237   4.585  31.148   2.841 -0.0247 -0.0411  0.2237
75300W        W18238   8.082  29.744   3.351  0.1041  0.1524 -0.0551
75301W        W18239   4.559  30.831   1.525  0.3602 -0.0234 -0.1410
75302W        W18240   6.656  28.901   1.206 -0.1316  0.0845  0.0139
75303W        W18241   4.323  32.263   4.530  0.0123  0.0489 -0.2048
75304W        W18242   4.917  29.857   3.716  0.4942 -0.2338  0.2530
75305W        W18243   6.554  30.050   0.676 -0.1778  0.4301  0.1313
75306W        W18244   7.610  32.187   2.196 -0.1017  0.1297  0.1281
75307W        W18245   6.379  30.420   0.336  0.1650 -0.1870 -0.0607
75308W        W18246   6.035  32.501   4.041 -0.1653  0.3092 -0.0468
75309W        W18247   4.300  30.884   2.153  0.0887 -0.1324 -0.3312
75310W        W18248   7.203  29.603   1.153 -0.1294 -0.0708  0.0730
75311W        W18249   5.161  32.256   0.495  0.1588 -0.2531 -0.1340
75312W        W18250   5.497  28.964   2.512  0.0016  0.2979  0.0335
75313W        W18251   5.289  30.674   3.808  0.2222  0.1281  0.2453
75314W        W18252   4.141  30.849   1.274 -0.0887  0.0033 -0.1490
75315W        W18253   7.567  31.750   0.845 -0.2429  0.2304 -0.0229
75316W        W18254   7.927  31.140   2.322  0.2420 -0.1553  0.1935
75317W        W18255   6.500  31.684  31.085 -0.1760 -0.0311 -0.0533
75318W        W18256   8.030  31.127   1.134 -0.2608  0.2392 -0.0873
75319W        W18257   6.403  33.598   3.633 -0.2802  0.3161  0.0271
75320W        W18258   3.141  30.088   3.423 -0.0188  0.2771  0.0865
75321W        W18259   7.410  32.894   2.346 -0.2344  0.0509 -0.0880
75322W        W18260   7.118  31.583   2.064  0.0688  0.0338  0.0396
75323W        W18261   5.120  29.735   2.814 -0.1123 -0.1778 -0.0905
75324W        W18262   5.152  30.564   3.235 -0.2944  0.0030  0.1870
75325W        W18263   3.368  31.572   2.419  0.0730 -0.0662  0.1931
75326W        W18264   7.786  29.897   2.050 -0.1326  0.0450  0.3065
75327W        W18265   7.286  29.963   2.207  0.1250 -0.1967  0.2222
75328W        W18266   5.883  32.565   1.723 -0.0134  0.0246  0.0514
75329W        W18267   7.197  28.723   2.956 -0.0020  0.0322 -0.0436
75330W        W18268   5.650  31.182   3.601  0.2666 -0.0951 -0.0876
75331W        W18269   5.302  32.492   2.841 -0.0492 -0.0181 -0.0789
75332W        W18270   4.930  31.425   1.585  0.0515  0.3484  0.0615
75333W        W18271   7.018  30.352   3.694  0.2072  0.2032  0.0717
75334W        W18272   5.996  31.064   1.727 -0.2755 -0.1336  0.1918
75335W        W18273   5.729  32.326   0.698  0.1070  0.1579 -0.0909
75336W        W18274   8.641  32.242   1.584  0.3385 -0.0260 -0.1109
75337W        W18275   5.790  31.284   2.075  0.0637  0.3075  0.0986
75338W        W18276   7.843  30.472   2.130 -0.0994 -0.1756  0.0520
75339W        W18277   4.637  30.310   2.976  0.0326 -0.3497  0.3205
75340W        W18278   8.683  29.875   1.649  0.1085  0.1845 -0.0519
75341W        W18279   5.477  30.107   1.819  0.1934  0.1296 -0.1365
75342W        W18280   4.485  29.895   3.262  0.0345  0.1295 -0.0548
75343W        W18281   4.322  31.508  31.587 -0.0727  0.0750 -0.0330
75344W        W18282   3.102  32.760  31.333 -0.0953 -0.0562 -0.0220
75345W        W18283   3.687  33.360   1.626 -0.2705 -0.0210  0.2478
75346W        W18284   6.491  28.199   4.242  0.2469 -0.2243  0.4565
75347W        W18285   4.302  31.114   3.817  0.1796  0.1268  0.0249
75348W        W18286   3.909  32.210   2.163 -0.0976  0.0299  0.2714
75349W        W18287   4.903  30.415   1.313  0.2677 -0.1318 -0.0713
75350W        W18288   7.487  30.944   1.150  0.1306 -0.0399  0.1185
75351W        W18289   3.934  30.534   2.816 -0.1953  0.1854 -0.0469
75352W        W18290   3.112  30.607   1.672 -0.0646 -0.1245 -0.0174
75353W        W18291   6.720  31.482   1.098 -0.0878  0.0226  0.2067
75354W        W18292   8.485  32.059   0.048 -0.0155 -0.3502 -0.1116
75355W        W18293   5.229  29.408   1.089  0.0257  0.0335 -0.2165
75356W        W18294   8.289  31.605   4.057 -0.0298  0.2833 -0.3796
75357W        W18295   4.485  31.069  31.318  0.0267  0.0995 -0.0693
75358W        W18296   4.859  28.680   3.162  0.0544 -0.0991  0.1065
75359W        W18297   4.466  30.635   4.055  0.1039  0.0613  0.0693
75360W        W18298   5.579  29.797   1.117 -0.1065 -0.0321 -0.0191
75361W        W18299   6.367  30.361   2.635 -0.0519 -0.1301  0.2371
75362W        W18300   5.522  31.882   1.948 -0.2274  0.0421 -0.0418
75363W        W18301   6.366  31.210   1.389 -0.1385 -0.0307  0.0614
75364W        W18302   4.176  32.116   2.825 -0.0366  0.1595  0.2623
75365W        W18303   4.566  31.743   1.686  0.0713 -0.3089  0.2113
75366W        W18304   3.430  28.358   3.622  0.5280 -0.0537 -0.0471
75367W        W18305   7.187  30.880   0.695 -0.1092 -0.0210 -0.2821
75368W        W18306   4.008  32.529   2.603 -0.0540 -0.1465 -0.0772
75369W        W18307   6.827  30.785  31.893  0.0114 -0.1622  0.1750
75370W        W18308   8.558  28.655   1.173 -0.2964  0.1386  0.4098
75371W        W18309   6.870  31.452   1.617 -0.1271 -0.0620 -0.3021
75372W        W18310   3.984  28.835   2.744  0.2666  0.3154 -0.0783
75373W        W18311   3.164  32.973   3.866 -0.1165 -0.0307 -0.0251
75374W        W18312   8.316  32.027   2.820 -0.1371  0.3501 -0.0356
75375W        W18313   4.697  30.365   2.347  0.0207  0.0977 -0.1413
75376W        W18314   7.059  30.192   1.569  0.2936 -0.2437  0.1438
75377W        W18315   7.693  31.519   1.266  0.0134 -0.1816  0.0983
75378W        W18316   4.985  32.596   2.375  0.0163  0.3759 -0.0200
75379W        W18317   6.016  28.875   1.582  0.1974  0.0201 -0.0239
75380W        W18318   6.619  29.903   2.742 -0.0777 -0.0226  0.1505
75381W        W18319   5.943  32.300   2.602  0.0253  0.2530  0.0459
75382W        W18320   7.309  31.378   3.130 -0.0731 -0.1691  0.1227
75383W        W18321   6.160  30.312   0.769 -0.0888  0.0458  0.1820
75384W        W18322   8.250  31.019  31.722  0.0157  0.1951  0.4634
75385W        W18323   6.948  30.861   3.282 -0.1679  0.0899  0.0935
75386W        W18324   7.870  32.526   3.897 -0.4385 -0.1005 -0.3243
75387W        W18325   8.027  32.106   2.453 -0.3858  0.0254  0.0125
75388W        W18326   7.896  31.202   1.709 -0.0522 -0.1315  0.0006
75389W        W18327   3.828  29.558   1.344 -0.0288 -0.1581 -0.1117
75390W        W18328   4.911  31.098   0.740  0.4612 -0.0442 -0.4029
75391W        W18329   4.547  31.860  30.676  0.1162 -0.0817  0.0865
75392W        W18330   7.583  29.547   2.506 -0.0055  0.2165  0.1643
75393W        W18331   4.303  29.496   1.071  0.1784  0.0224  0.0157
75394W        W18332   6.587  28.784   0.367 -0.2056  0.1482 -0.1834
75395W        W18333   5.096  31.948   2.847  0.3241 -0.0684 -0.0325
75396W        W18334   6.037  30.771   2.671  0.2039 -0.0579 -0.1539
75397W        W18335   4.580  32.231   7.525 -0.1495 -0.2751  0.3199
75398W        W18336   4.082  32.139   3.866  0.0396  0.0886  0.1942
75399W        W18337   7.209  29.272   4.018 -0.0546 -0.0978  0.4999
75400W        W18338   6.930  30.513   4.754 -0.2358  0.1363 -0.1501
75401W        W18339   4.508  30.062   5.882  0.1613  0.0425 -0.3092
75402W        W18340   5.628  31.682   3.800 -0.3010  0.0922  0.1051
75403W        W18341   5.616  29.955   6.050 -0.0440 -0.0329  0.2801
75404W        W18342   6.830  32.419   4.568 -0.0758  0.0233 -0.1593
75405W        W18343   7.134  33.041   5.645 -0.3176 -0.0218 -0.2506
75406W        W18344   5.546  31.595   4.816  0.1596 -0.3101  0.1085
75407W        W18345   4.560  28.729   5.819 -0.1264  0.3676  0.1913
75408W        W18346   4.991  32.420   6.799  0.3547 -0.2563  0.0979
75409W        W18347   5.569  29.044   3.789  0.0439  0.0851 -0.2211
75410W        W18348   3.418  28.609   6.277  0.0166 -0.2279 -0.1279
75411W        W18349   7.671  30.223   6.465 -0.1023 -0.0534 -0.0112
75412W        W18350   3.119  31.889   5.824 -0.0657  0.0352 -0.3149
75413W        W18351   5.689  29.190   5.416 -0.0995  0.1959  0.1477
75414W        W18352   4.265  30.688   4.877 -0.4354  0.0019 -0.1761
75415W        W18353   4.850  32.788   3.704  0.1067  0.0646  0.2598
75416W        W18354   4.925  29.719   5.713  0.1497  0.2421  0.1233
75417W        W18355   6.827  29.150   5.999 -0.0990  0.1930  0.0221
75418W        W18356   5.843  31.116   4.873 -0.3113 -0.0514 -0.1799
75419W        W18357   5.011  31.957   1.828 -0.3233 -0.0325 -0.1014
75420W        W18358   4.750  30.575   4.948 -0.1742 -0.2832 -0.0237
75421W        W18359   5.555  30.401   6.266 -0.1474 -0.1153 -0.0529
75422W        W18360   7.694  30.210   5.823 -0.1241 -0.0281 -0.0029
75423W        W18361   7.400  30.442   5.415 -0.2479 -0.2931 -0.0865
75424W        W18362   5.581  32.352   5.207 -0.0674  0.2102  0.1417
75425W        W18363   6.050  30.749   5.711 -0.1456 -0.1140  0.0101
75426W        W18364   7.967  29.321   7.305  0.0720  0.1368 -0.0988
75427W        W18365   5.117  31.740   5.545  0.1589 -0.1971 -0.2213
75428W        W18366   3.546  32.609   3.950 -0.2311  0.1634  0.1710
75429W        W18367   4.387  31.576   5.359  0.3159  0.0935 -0.3355
75430W        W18368   7.437  31.861   3.804 -0.4144  0.3154 -0.1817
75431W        W18369   6.808  33.269   7.172  0.0430 -0.0088  0.0843
75432W        W18370   4.529  31.032   6.802  0.0659 -0.0806 -0.0086
75433W        W18371   3.342  32.405   4.456 -0.1350  0.2053 -0.3351
75434W        W18372   6.230  30.983   6.896 -0.4127 -0.1778 -0.0366
75435W        W18373   4.463  34.034   6.603 -0.0060 -0.0083 -0.0491
75436W        W18374   5.801  31.059   5.975 -0.2149 -0.4703 -0.1716
75437W        W18375   5.203  32.405   3.717 -0.4478  0.0515 -0.2708
75438W        W18376   4.650  31.936   4.598 -0.0855  0.1075 -0.0576
75439W        W18377   6.378  32.143   4.837  0.1718  0.0368  0.0555
75440W        W18378   5.698  30.476   8.428 -0.0444 -0.0877  0.0293
75441W        W18379   4.138  32.973   5.660 -0.1926 -0.2432 -0.0460
75442W        W18380   8.030  28.932   7.684 -0.0720 -0.0445 -0.1770
75443W        W18381   5.228  32.981   4.525  0.0678  0.4962 -0.0884
75444W        W18382   6.469  30.802   4.346 -0.0729 -0.2496 -0.0615
75445W        W18383   3.742  30.773   3.227 -0.5052  0.1343 -0.1722
75446W        W18384   7.008  30.494   4.173 -0.0321 -0.1009  0.0892
75447W        W18385   5.186  29.714   4.704  0.0424  0.1391  0.1870
75448W        W18386   4.570  33.212   6.424 -0.1567  0.1005  0.1102
75449W        W18387   5.591  29.427   4.993 -0.0805 -0.2769  0.1615
75450W        W18388   6.858  32.672   6.573 -0.0551 -0.0051  0.0535
75451W        W18389   3.748  29.860   3.722  0.0888 -0.3334 -0.1082
75452W        W18390   6.829  30.747   6.476 -0.2923 -0.0116 -0.0760
75453W        W18391   3.703  33.322   6.885 -0.3721 -0.0034 -0.0409
75454W        W18392   4.478  31.457   4.754  0.0396 -0.0930 -0.0764
75455W        W18393   7.513  31.665   4.584  0.0910 -0.3710  0.2331
75456W        W18394   7.000  31.916   4.552 -0.1930  0.2016  0.0305
75457W        W18395   4.650  32.673   4.451  0.3413  0.1823  0.2475
75458W        W18396   4.768  31.069   4.902 -0.0391  0.0191 -0.0284
75459W        W18397   3.163  31.607   6.994 -0.3057 -0.1356 -0.0141
75460W        W18398   3.640  31.367   5.794 -0.0432  0.0331  0.2219
75461W        W18399   4.782  29.389   4.010  0.1342 -0.0429  0.0101
75462W        W18400   6.613  31.915   5.386  0.1632 -0.0868 -0.1236
75463W        W18401   2.205  33.001   7.365  0.0198 -0.1370  0.0839
75464W        W18402   7.356  30.693   4.542  0.0789 -0.0972  0.0268
75465W        W18403   4.625  32.501   4.948 -0.2864 -0.0071 -0.2302
75466W        W18404   6.657  33.124   6.360  0.2979 -0.5699  0.2072
75467W        W18405   6.120  29.977   4.016  0.2335  0.1097 -0.0432
75468W        W18406   7.016  28.989   5.547  0.0976 -0.2134  0.2191
75469W        W18407   5.015  29.262   6.513  0.4334 -0.0484 -0.0997
75470W        W18408   3.330  30.597   4.939 -0.0017 -0.3008  0.3290
75471W        W18409   3.959  31.907   5.397  0.4103  0.1095 -0.2509
75472W        W18410   7.199  32.226   6.822 -0.1988  0.1744 -0.0850
75473W        W18411   6.216  30.697   3.498  0.3354  0.2241 -0.1708
75474W        W18412   2.886  32.919   6.739  0.2628  0.0289  0.1939
75475W        W18413   6.046  29.714   5.923  0.2871  0.3104  0.1659
75476W        W18414   5.220  31.642   7.221  0.1768  0.2883  0.4057
75477W        W18415   4.923  32.012   3.503  0.2351 -0.1363 -0.0775
75478W        W18416   3.574  31.507   6.600  0.0673  0.0761 -0.0646
75479W        W18417   3.854  32.677   4.435  0.2501 -0.1640 -0.4077
75480W        W18418   4.824  30.147   4.705  0.1520 -0.1380 -0.1855
75481W        W18419   4.669  32.769   6.606  0.2857 -0.3337 -0.1300
75482W        W18420   8.055  29.896   2.883 -0.1322  0.1843 -0.0534
75483W        W18421   4.327  30.278   4.440 -0.0175  0.2826 -0.0086
75484W        W18422   8.705  29.659   6.806  0.2738  0.0708  0.1360
75485W        W18423   4.408  32.581   5.924  0.0380  0.0645 -0.1840
75486W        W18424   6.919  32.700   3.809  0.0912  0.3368  0.1368
75487W        W18425   6.102  30.564   4.137 -0.1189  0.0263 -0.0876
75488W        W18426   5.687  30.481   3.907  0.0438  0.1742  0.3194
75489W        W18427   4.370  30.755   5.772 -0.1903  0.1762 -0.0488
75490W        W18428   3.947  29.836   5.201 -0.1643 -0.2678  0.2333
75491W        W18429   3.779  29.831   7.387 -0.1756 -0.0836  0.1162
75492W        W18430   4.030  30.437   5.293 -0.5162  0.2701 -0.2174
75493W        W18431   6.473  31.032   5.967 -0.0984  0.0350  0.1193
75494W        W18432   4.387  28.365   5.335  0.0017 -0.0729 -0.0498
75495W        W18433   6.486  30.296   5.066 -0.0801  0.1857 -0.0313
75496W        W18434   5.295  29.701   3.301 -0.0119  0.1284  0.0343
75497W        W18435   2.365  31.378   4.588  0.2897 -0.2068 -0.2008
75498W        W18436   6.036  29.269   7.254 -0.2607 -0.0735 -0.0153
75499W        W18437   4.882  33.039   3.280  0.3960 -0.1139  0.0342
75500W        W18438   7.512  32.587   7.192 -0.2613  0.2888  0.3892
75501W        W18439   7.355  32.058   4.908 -0.0998  0.2043 -0.0447
75502W        W18440   4.879  29.797   6.708 -0.1783  0.3431  0.0979
75503W        W18441   4.430  29.810   4.506  0.0714 -0.0267  0.1015
75504W        W18442   5.153  34.400   4.395 -0.2612 -0.1477  0.2455
75505W        W18443   4.586  32.496   5.439  0.1232 -0.0270  0.0368
75506W        W18444   3.501  29.823   4.856 -0.2453  0.2888  0.1415
75507W        W18445   5.277  31.212   5.260  0.3160  0.2010 -0.2907
75508W        W18446   4.528  31.446   6.341  0.0069 -0.1451  0.0376
75509W        W18447   4.322  31.722   6.667 -0.1433 -0.0268 -0.2724
75510W        W18448   7.513  29.063   5.545 -0.1324  0.0670 -0.0839
75511W        W18449   7.698  31.750   6.592 -0.2067  0.1166 -0.1420
75512W        W18450   6.051  30.183   5.323 -0.1826  0.3822 -0.0619
75513W        W18451   4.349  27.948   4.961 -0.1348 -0.3054 -0.0073
75514W        W18452   5.985  32.505   4.939 -0.0366 -0.3652 -0.1298
75515W        W18453   4.447  33.773   3.447  0.1711  0.0034  0.2316
75516W        W18454   3.033  30.617   5.364 -0.2913 -0.2481  0.1963
75517W        W18455   4.521  33.066   3.948  0.0569 -0.1401  0.1533
75518W        W18456   6.577  29.616   5.862  0.5293  0.1197  0.1804
75519W        W18457   2.878  31.152   7.352 -0.0592  0.2073 -0.1497
75520W        W18458   5.986  30.137   6.265 -0.0481  0.0386  0.0689
75521W        W18459   3.475  30.840   4.035  0.0975  0.1259  0.0421
75522W        W18460   3.753  33.058   6.484 -0.0088 -0.0843 -0.0933
75523W        W18461   5.856  30.309   4.890  0.3869  0.1865  0.1296
75524W        W18462   6.013  29.783   5.016 -0.1031  0.0907 -0.3412
75525W        W18463   6.111  30.077   6.752  0.1001 -0.0809 -0.1991
75526W        W18464   7.872  30.449   5.269  0.0968 -0.2449 -0.2401
75527W        W18465   6.530  30.021   3.654 -0.0268 -0.0900 -0.0903
75528W        W18466   5.817  29.914   3.150 -0.0436 -0.1589 -0.0248
75529W        W18467   3.436  32.163   7.714 -0.0735  0.1811  0.0542
75530W        W18468   4.426  30.967   4.462 -0.1275 -0.0411 -0.0219
75531W        W18469   4.543  31.264   5.849  0.1046 -0.2696  0.1690
75532W        W18470   5.305  29.559   3.785 -0.1943  0.0266 -0.1046
75533W        W18471   6.158  30.636   4.718 -0.1095  0.0077  0.0994
75534W        W18472   3.890  32.056   6.566 -0.0306  0.3520 -0.0555
75535W        W18473   5.851  31.991   5.006 -0.2400  0.0938  0.1521
75536W        W18474   8.107  31.112   4.743 -0.1951  0.1168 -0.0390
75537W        W18475   5.860  29.552   4.062 -0.0415  0.2219  0.1977
75538W        W18476   4.790  30.843   3.714  0.3326  0.1135  0.1544
75539W        W18477   7.477  29.230   5.974  0.3034  0.2918 -0.2067
75540W        W18478   4.151   0.831   3.984  0.0258 -0.0860 -0.2532
75541W        W18479   7.638  29.002   5.065 -0.4413  0.0858 -0.0581
75542W        W18480   6.774  29.998   4.765 -0.2542  0.0957 -0.2962
75543W        W18481   7.109  29.512   5.662 -0.2341 -0.0656 -0.0317
75544W        W18482   6.318  30.172   5.933 -0.2269  0.0250  0.3152
75545W        W18483   6.110  30.382   3.047  0.3840  0.1308 -0.0629
75546W        W18484   5.485  30.773   5.105 -0.0245  0.1505  0.0356
75547W        W18485   4.184  30.453   3.218 -0.0448  0.2368 -0.2107
75548W        W18486   7.206  30.405   5.857  0.0380 -0.0449 -0.0084
75549W        W18487   5.294  29.703   6.362 -0.0254 -0.1104  0.0456
75550W        W18488   4.662  33.507   7.379  0.0804  0.0023 -0.3880
75551W        W18489   5.634  31.676   5.868  0.4559 -0.2411 -0.1085
75552W        W18490   5.219  31.417   4.031  0.1459  0.0970 -0.0214
75553W        W18491   6.603  30.116   5.557  0.2216  0.3602  0.0969
75554W        W18492   6.462  29.673   4.347 -0.2961 -0.5345 -0.0820
75555W        W18493   5.738  33.142   4.381  0.1385  0.3393  0.2222
75556W        W18494   5.143  31.710   4.524 -0.1606  0.1190 -0.2857
75557W        W18495   5.383  28.696   5.428  0.2888 -0.2755 -0.3115
75558W        W18496   6.313  31.136   5.424  0.2424 -0.1448  0.0008
75559W        W18497   4.892  30.299   3.963  0.1587  0.1326 -0.0946
75560W        W18498   6.894  32.176   6.348  0.4840  0.3102 -0.2707
75561W        W18499   4.009  33.389   4.108 -0.0090  0.1556 -0.1885
75562W        W18500   8.640  28.455   5.157 -0.0479  0.1147  0.0365
75563W        W18501   4.338  32.096   5.661 -0.2578 -0.1977  0.1518
75564W        W18502   3.988  31.098   4.625 -0.1826 -0.0315  0.2010
75565W        W18503   3.965  29.556   4.809 -0.0162  0.1130 -0.1736
75566W        W18504   7.850  29.458   5.339  0.2115  0.2061  0.0588
75567W        W18505   6.664  31.241   4.008  0.0536 -0.0674 -0.2143
75568W        W18506   5.077  29.316   4.969 -0.1299 -0.0437 -0.2777
75569W        W18507   6.462  29.631   4.878 -0.3355  0.1102  0.1727
75570W        W18508   4.149  33.440   6.456 -0.3298 -0.1270  0.0840
75571W        W18509   6.435  31.276   6.460  0.0592 -0.0632  0.2401
75572W        W18510   6.175  29.620   3.556  0.1758  0.0788  0.0945
75573W        W18511   6.442  32.391   5.329  0.2965 -0.0851  0.1980
75574W        W18512   4.476  30.941   6.266  0.0679  0.0839  0.0542
75575W        W18513   2.233  29.990   5.353 -0.0692  0.1560  0.1507
75576W        W18514   6.932  30.673   5.414 -0.0431  0.0132 -0.0536
75577W        W18515   5.447  29.935   4.138  0.0806 -0.2864 -0.1955
75578W        W18516   4.294  32.817   4.705  0.1642  0.0910 -0.2426
75579W        W18517   6.009  31.490   5.666  0.1228 -0.0312 -0.3436
75580W        W18518   4.154  32.616   5.244 -0.1082  0.0084  0.0012
75581W        W18519   5.113  31.886   3.959 -0.3335  0.0095 -0.1416
75582W        W18520   4.541  30.331   5.428  0.2210  0.0346  0.1087
75583W        W18521   6.874  32.203   5.062 -0.0734 -0.1298  0.2750
75584W        W18522   5.985  30.653   5.188  0.0642  0.1427 -0.1230
75585W        W18523   5.571  30.377   5.366  0.4388 -0.0615 -0.0918
75586W        W18524   4.990  30.098   6.115  0.2084 -0.2401  0.0511
75587W        W18525   7.057  32.118   5.514 -0.2881 -0.2799  0.2696
75588W        W18526   6.843  30.326   6.802  0.1836  0.0848  0.0852
75589W        W18527   4.955  30.646   6.375  0.2253  0.0496 -0.2918
75590W        W18528   7.415  29.098   4.545  0.2342 -0.4264  0.1424
75591W        W18529   7.715  31.734   3.414 -0.2226  0.2531 -0.2062
75592W        W18530   5.030  31.214   7.602  0.1747 -0.1593 -0.0572
75593W        W18531   3.626  31.433   4.610 -0.2379 -0.1766 -0.2202
75594W        W18532   5.100  31.590   6.057  0.0286  0.1285  0.1995
75595W        W18533   5.051  32.372   5.264  0.0431  0.1805 -0.0063
75596W        W18534   7.207  30.168   4.481 -0.0578  0.1711 -0.1028
75597W        W18535   5.331  31.249   5.722 -0.1861  0.0271 -0.2344
75598W        W18536   3.799  32.111   4.469 -0.1550  0.3336 -0.0921
75599W        W18537   4.391  31.929   6.201 -0.0014  0.0643  0.2842
75600W        W18538   7.728  30.742   4.191  0.0073 -0.1018 -0.2175
75601W        W18539   5.170  31.193   3.635 -0.0034  0.1966  0.1695
75602W        W18540   6.108  29.335   5.162  0.1388  0.1680 -0.1224
75603W        W18541   7.890  29.889   7.318  0.4900 -0.1432 -0.2464
75604W        W18542   8.159  30.758   3.350  0.0423  0.0283 -0.1024
75605W        W18543   6.167  29.166   6.233  0.1978 -0.0981 -0.2628
75606W        W18544   4.279  28.514   6.780 -0.0427 -0.1929 -0.0118
75607W        W18545   8.096  32.133   5.702  0.2760  0.1752  0.0769
75608W        W18546   4.962  29.848   4.230 -0.0979 -0.0972 -0.2332
75609W        W18547   6.328  33.335   7.078  0.0495 -0.0447 -0.2466
75610W        W18548   4.033  32.259   6.042  0.2285 -0.0854  0.2897
75611W        W18549   6.339  29.932   3.168  0.0096  0.0690 -0.1067
75612W        W18550   4.056  29.633   3.340  0.0231  0.1405 -0.0085
75613W        W18551   3.678  31.838   6.925  0.0181  0.0740 -0.2807
75614W        W18552   7.221  32.469   6.174 -0.1040 -0.1841 -0.2911
75615W        W18553   5.578  32.116   4.151 -0.2654  0.3116  0.0944
75616W        W18554   5.329  30.343   5.777  0.1362  0.1331  0.1581
75617W        W18555   3.967  31.576   6.247  0.0210  0.0077  0.2602
75618W        W18556   6.180  31.065   3.928 -0.1754  0.1685  0.4056
75619W        W18557   6.126  29.468   3.029 -0.2258 -0.3088  0.0952
75620W        W18558   4.497  30.884   5.270  0.1513  0.1227 -0.4109
75621W        W18559   3.785  29.831   6.841 -0.2857 -0.0820 -0.1367
75622W        W18560   5.903  30.608   6.728 -0.2132  0.4186 -0.0014
75623W        W18561   8.082  29.849   4.919  0.0397  0.1948  0.0783
75624W        W18562   8.142  29.865   5.692 -0.3964 -0.0926  0.1547
75625W        W18563   6.466  30.800   7.284 -0.0036  0.1679 -0.2162
75626W        W18564   6.336  28.823   6.620  0.2672  0.2080 -0.0482
75627W        W18565   4.691  29.119   6.149  0.1063 -0.0644 -0.2010
75628W        W18566   6.146  31.963   5.412 -0.3564  0.2301 -0.1772
75629W        W18567   8.214  30.601   4.472  0.2904  0.2326 -0.3116
75630W        W18568   6.212  30.137   4.641 -0.0164  0.1204  0.1651
75631W        W18569   8.812  31.474   4.778  0.0162 -0.1656 -0.3104
75632W        W18570   5.669  29.774   4.573 -0.1352 -0.1987  0.0199
75633W        W18571   5.109  30.242   5.345 -0.2924 -0.2231 -0.0432
75634W        W18572   6.607  32.969   6.835 -0.0445 -0.1232 -0.2405
75635W        W18573   5.059  30.903   4.197 -0.1360 -0.0223  0.1612
75636W        W18574   6.431  29.593   7.331 -0.1734 -0.2999  0.4741
75637W        W18575   4.262  33.788   3.893  0.0630  0.0491 -0.2060
75638W        W18576   6.021  31.431   6.180  0.0138 -0.0554 -0.0170
75639W        W18577   6.895  29.948   3.960  0.0427  0.1951  0.0733
75640W        W18578   3.584  29.514   5.865  0.1131  0.1753  0.0478
75641W        W18579   4.339  32.939   7.152  0.2313 -0.1895 -0.0968
75642W        W18580   2.653  30.485   4.171 -0.1072 -0.0040 -0.2583
75643W        W18581   4.474  30.019   4.015 -0.0224  0.0493  0.2924
75644W        W18582   4.645  31.744   5.764 -0.0639 -0.2548  0.1900
75645W        W18583   6.620  31.313   6.917  0.0002  0.0479  0.1809
75646W        W18584   6.822  27.410   3.714  0.2324  0.1687  0.2110
75647W        W18585   7.935  30.401   8.174  0.0387 -0.0592 -0.0345
75648W        W18586   4.472  31.910   4.158 -0.0571  0.0623 -0.1287
75649W        W18587   8.177  30.321   4.913 -0.0001  0.1120 -0.0680
75650W        W18588   5.032  31.876   6.811 -0.2676 -0.1147  0.0443
75651W        W18589   2.657  31.292   6.893 -0.0569 -0.1638 -0.0197
75652W        W18590   4.825  31.255   4.390 -0.0760 -0.2961 -0.0902
75653W        W18591   6.442  28.888   5.693  0.2565 -0.1618 -0.3084
75654W        W18592   6.886  31.335   6.104 -0.2037  0.2001  0.0969
75655W        W18593   6.418  30.569   6.739 -0.1124  0.0118 -0.1139
75656W        W18594   7.286  30.797   7.772 -0.3419 -0.1833 -0.2582
75657W        W18595   5.429  31.601   6.748 -0.2255  0.3444  0.1461
75658W        W18596   4.873  30.919   5.851  0.1757  0.0006 -0.1802
75659W        W18597   6.528  31.510   5.696  0.4269 -0.1430  0.1956
75660W        W18598   8.056  31.685   5.856  0.2439  0.1578 -0.2192
75661W        W18599   5.521  32.836   4.946 -0.2679 -0.2242 -0.0402
75662W        W18600   4.103  31.155   6.027  0.1678  0.0174  0.1446
75663W        W18601   6.638  29.279   6.508 -0.0673 -0.0917 -0.0451
75664W        W18602   5.881  31.004   6.466  0.2478 -0.1434  0.1109
75665W        W18603   5.302  28.847   4.922 -0.1911 -0.3558  0.0848
75666W        W18604   5.757  30.573   3.438  0.1524 -0.0472 -0.3476
75667W        W18605   3.182  32.201   7.205  0.1295 -0.0968 -0.1902
75668W        W18606   4.156  32.085   6.992 -0.0551 -0.2490 -0.0742
75669W        W18607   5.069  32.684   4.147 -0.0548 -0.3019 -0.1690
75670W        W18608   4.705  31.519   3.861 -0.0526  0.2317 -0.1305
75671W        W18609   5.301  30.338   4.823  0.1121  0.1159  0.0899
75672W        W18610   6.152  33.221   5.610 -0.2382 -0.0923  0.1659
75673W        W18611   5.293  31.672   3.403  0.3791  0.0430 -0.0801
75674W        W18612   4.373  33.240   4.407 -0.1070 -0.0107 -0.2243
75675W        W18613   3.929  33.754   3.363 -0.0465  0.3107 -0.1170
75676W        W18614   7.161  31.798   3.361 -0.0268 -0.0977  0.0003
75677W        W18615   3.644  33.513   6.310  0.1082  0.0061 -0.4750
75678W        W18616   6.675  32.561   7.173  0.3259  0.0852  0.1467
75679W        W18617   5.715  29.844   3.669 -0.1558 -0.1022  0.0943
75680W        W18618   5.995  31.556   4.609  0.0051 -0.0718 -0.0481
75681W        W18619   5.644  30.706   4.493 -0.1602  0.2672 -0.2471
75682W        W18620   6.405  32.588   6.184 -0.0243  0.0648 -0.2288
75683W        W18621   3.591  30.319   5.904  0.0535  0.1973 -0.0134
75684W        W18622   6.036  28.389   4.352  0.0884  0.1217  0.1125
75685W        W18623   5.106  30.563   6.926 -0.0233  0.1871 -0.1177
75686W        W18624   6.951  29.586   7.374 -0.0585 -0.0892 -0.2478
75687W        W18625   2.649  32.219   7.116 -0.3840 -0.2142 -0.2675
75688W        W18626   7.803  33.260   4.589 -0.0936 -0.0951 -0.3145
75689W        W18627   3.736  28.690   4.474 -0.0878 -0.1655 -0.1727
75690W        W18628   7.358  31.473   5.743 -0.1075 -0.1009  0.0682
75691W        W18629   8.535  29.031   4.516 -0.0113 -0.2215 -0.0935
75692W        W18630   3.674  31.829   4.922 -0.2967  0.0761  0.0480
75693W        W18631   5.382  31.220   4.498 -0.1859  0.0276  0.0697
75694W        W18632   6.369  32.783   3.751 -0.2706  0.2953  0.0440
75695W        W18633   4.586  33.210   5.850  0.1634  0.0508  0.0766
75696W        W18634   5.446  32.524   6.487 -0.1857 -0.0693 -0.1507
75697W        W18635   3.904  29.244   4.345  0.0511 -0.2716 -0.2770
75698W        W18636   5.809  30.244   4.422  0.0209  0.3302  0.1865
75699W        W18637   3.799  30.793   5.858  0.2234 -0.0260 -0.1017
75700W        W18638   8.433  29.114   6.708 -0.0544  0.4649  0.2813
75701W        W18639   6.330  29.705   5.408  0.1346 -0.2179 -0.1753
75702W        W18640   6.608  30.805   5.028 -0.1773 -0.1255  0.1315
75703W        W18641   5.373  30.798   6.612 -0.0244  0.3004 -0.2304
75704W        W18642   5.306  30.864   6.100  0.0991  0.2157  0.1000
75705W        W18643   3.907  31.363   5.071 -0.0336  0.1959 -0.1859
75706W        W18644   6.983  31.196   6.623 -0.3127  0.0347 -0.1025
75707W        W18645   6.331  31.167   4.817  0.0338  0.0068 -0.0619
75708W        W18646   7.622  32.467   7.840 -0.1424 -0.0492  0.0172
75709W        W18647   4.604  29.204   4.434  0.0358  0.1226 -0.3646
75710W        W18648   6.874  29.165   4.441 -0.2242 -0.3015  0.2838
75711W        W18649   4.847  32.365   6.295 -0.0797  0.0099 -0.1516
75712W        W18650   5.349  29.873   7.016  0.3046 -0.2558 -0.3684
75713W        W18651   6.885  30.929   9.336  0.1685 -0.0023  0.2492
75714W        W18652   4.385  30.147   4.999  0.1265  0.2536  0.1962
75715W        W18653   6.938  31.387   3.588 -0.5007  0.1620 -0.2806
75716W        W18654   7.698  30.710   5.919 -0.1201 -0.3168 -0.3394
75717W        W18655   4.646  33.627   4.154  0.1818  0.2575  0.0554
75718W        W18656   7.776  31.222   6.024  0.0510 -0.0868  0.0315
75719W        W18657   6.301  31.531   3.214  0.0229  0.0862  0.1591
75720W        W18658   5.044  29.771   5.234 -0.0590  0.0569 -0.0185
75721W        W18659   5.290  31.967   5.098 -0.0504  0.0619  0.3007
75722W        W18660   8.257  32.878   5.437  0.0814  0.0050 -0.0657
75723W        W18661   6.051  29.355   4.557 -0.1450  0.0105 -0.1677
75724W        W18662   4.524  29.988   6.461  0.1917 -0.1868 -0.0164
75725W        W18663   4.515  33.055   5.266  0.2293 -0.2249 -0.1957
75726W        W18664   7.967  31.033   6.627  0.0966  0.0671  0.0221
75727W        W18665   7.947  29.365   5.783 -0.2842  0.2577  0.2146
75728W        W18666   5.797  31.639   3.318 -0.4212  0.0067 -0.2336
75729W        W18667   8.302  29.891   6.567 -0.1029  0.0140 -0.2563
75730W        W18668   4.801  31.437   6.821 -0.3052  0.0758  0.1166
75731W        W18669   5.511  32.067   6.813 -0.0234 -0.1849 -0.4430
75732W        W18670   4.897  31.638   5.096  0.1354 -0.0812 -0.0100
75733W        W18671   6.709  31.304   5.123 -0.2060 -0.2086 -0.0862
75734W        W18672   5.759  31.152   5.378 -0.2326 -0.0828 -0.4505
75735W        W18673   5.186  32.482   4.787  0.3793 -0.2872  0.1014
75736W        W18674   8.053  32.120   5.155 -0.0219 -0.0890 -0.3869
75737W        W18675   6.385  29.798   6.386  0.1774 -0.3176 -0.3542
75738W        W18676   6.750  31.403   4.491 -0.0471 -0.0906 -0.3296
75739W        W18677   4.708  28.223   4.190  0.0160  0.1710 -0.0714
75740W        W18678   7.758  30.278   4.460 -0.0215 -0.4185  0.1629
75741W        W18679   6.538  28.773   3.603  0.0520  0.0551  0.0171
75742W        W18680   4.160  32.954   6.177  0.2656  0.3693 -0.0517
75743W        W18681   3.161  30.376   4.090  0.1456 -0.0824  0.0956
75744W        W18682   4.239  31.902   3.396 -0.1982  0.0955  0.0677
75745W        W18683   3.745  33.164   6.026 -0.0181  0.2272 -0.2531
75746W        W18684   7.353  29.925   6.103  0.0399  0.0259 -0.1266
75747W        W18685   5.682  28.494   6.954  0.0192 -0.0459  0.3140
75748W        W18686   3.617  32.340   6.839  0.0219 -0.0818  0.0664
75749W        W18687   3.465  29.798   4.164  0.1349  0.1265  0.0998
75750W        W18688   5.513  32.075   4.705  0.2004 -0.1757 -0.0387
75751W        W18689   4.895  28.553   5.343  0.2365  0.2533  0.1685
75752W        W18690   3.995  30.030   4.170  0.0051  0.3155  0.2939
75753W        W18691   6.446  30.646   5.457  0.2219 -0.1621  0.1897
75754W        W18692   7.430  32.038   4.255 -0.4008 -0.0104  0.0643
75755W        W18693   5.919  28.918   4.807 -0.0773  0.0345  0.1367
75756W        W18694   6.786  31.279   7.395 -0.2199  0.1143  0.0487
75757W        W18695   3.981  32.474   3.534 -0.0457 -0.1075  0.0564
75758W        W18696   6.895  29.905   6.545  0.0809  0.2274  0.1423
75759W        W18697   5.947  28.899   5.844  0.1138 -0.2080  0.3558
75760W        W18698   2.294  30.819   4.171 -0.0678  0.1230 -0.0469
75761W        W18699   5.744  31.672   7.273  0.0056  0.3137 -0.2049
75762W        W18700   7.591  30.763   6.422  0.1560  0.0924  0.4276
75763W        W18701   6.327  31.575   4.267  0.0797 -0.4571  0.0159
75764W        W18702   5.853  31.784   6.492  0.3240 -0.2416  0.0046
75765W        W18703   4.103  31.103   7.032 -0.0257  0.1837  0.1520
75766W        W18704   4.141  29.392   5.246  0.0098 -0.1985 -0.0746
75767W        W18705   6.185  31.525   3.671  0.1207  0.1291 -0.0546
75768W        W18706   5.746  30.439   7.568  0.3118  0.3032  0.0630
75769W        W18707   7.980  32.013   4.100  0.6092 -0.0701 -0.1854
75770W        W18708   6.603  31.706   6.603 -0.1199 -0.2854 -0.0816
75771W        W18709   5.314  30.160   3.647 -0.0131  0.0717  0.0641
75772W        W18710   3.436  28.372   7.280 -0.1407  0.0488  0.0795
75773W        W18711   4.166  31.633   5.787  0.0411  0.1327  0.1430
75774W        W18712   6.169  30.648   6.215 -0.1385 -0.4116 -0.1447
75775W        W18713   4.452  28.220   3.141  0.0426  0.3939 -0.1742
75776W        W18714   5.597  30.989   4.061 -0.4126  0.0927  0.0184
75777W        W18715   5.686  32.560   4.478  0.3872 -0.0650 -0.3037
75778W        W18716   4.811  31.850   6.412 -0.2453 -0.2060 -0.1489
75779W        W18717   6.232  28.481   4.864  0.1879 -0.2367 -0.0067
75780W        W18718   5.810  30.353   5.821 -0.1171 -0.0310  0.1181
75781W        W18719   7.399  31.673   5.225 -0.0499 -0.0602  0.1462
75782W        W18720   6.992  31.577   5.461 -0.2199  0.1610 -0.2014
75783W        W18721   5.041  30.784   5.378  0.0882 -0.1332  0.2110
75784W        W18722   7.110  31.007   4.235  0.1917 -0.1010 -0.1632
75785W        W18723   6.426  32.158   5.807 -0.0182  0.2514  0.1148
75786W        W18724   6.647  32.368   8.100  0.1096  0.1049 -0.0456
75787W        W18725   5.962  32.026   6.067 -0.0759  0.2800  0.0106
75788W        W18726   7.922  32.540   5.513  0.0163 -0.0717 -0.0101
75789W        W18727   3.256  28.135   5.874 -0.0134  0.0716  0.2111
75790W        W18728   3.838  30.539   4.828  0.0974  0.2130 -0.4076
75791W        W18729   5.609  31.616   4.268 -0.0117 -0.1241 -0.2503
75792W        W18730   7.273  29.880   4.934  0.1258  0.2527 -0.4524
75793W        W18731   5.886  29.689   6.873  0.0634 -0.1031  0.2495
75794W        W18732   4.638  30.372   3.572  0.1990  0.1087  0.3210
75795W        W18733   4.497  32.178   6.633 -0.0098  0.0226 -0.1085
75796W        W18734   6.144  31.575   5.123 -0.2222  0.0266 -0.0341
75797W        W18735   4.409  32.027   8.835  0.1823 -0.0160 -0.0010
75798W        W18736   3.521  29.897   6.268 -0.4626  0.1109  0.1887
75799W        W18737   7.728  29.942   5.325 -0.0430 -0.0888 -0.0835
75800W        W18738   7.268  30.302   8.174  0.1966 -0.3150 -0.0990
75801W        W18739   3.342  29.762   8.374 -0.0695 -0.0282 -0.2092
75802W        W18740   5.613  32.329   7.712 -0.0813 -0.0446 -0.0575
75803W        W18741   6.948  30.787   8.222 -0.0591 -0.0205  0.1062
75804W        W18742   5.073  33.481   9.485 -0.0162  0.2767 -0.0765
75805W        W18743   5.325  30.778   7.478  0.0278  0.1009  0.2227
75806W        W18744   4.552  32.217   9.768  0.0161  0.0465 -0.4958
75807W        W18745   4.335  29.427   7.295  0.0197  0.0633  0.1209
75808W        W18746   3.186  28.491   8.455 -0.0561  0.0394 -0.0194
75809W        W18747   7.840  29.263   9.675 -0.0828 -0.2227 -0.1005
75810W        W18748   3.367  31.027   7.404 -0.3989 -0.0950  0.1843
75811W        W18749   5.089  30.025  10.039 -0.0275 -0.3004 -0.2626
75812W        W18750   6.757  30.301   8.161 -0.1738  0.0866 -0.3768
75813W        W18751   5.188  31.055   9.036 -0.3245  0.0243  0.1103
75814W        W18752   6.945  27.741   9.484 -0.2921  0.1467  0.0382
75815W        W18753   3.644  31.522   8.283 -0.1190 -0.3512  0.0943
75816W        W18754   4.562  30.518   6.667  0.1614 -0.2210 -0.2305
75817W        W18755   3.212  29.984   8.948  0.0320  0.3788 -0.4202
75818W        W18756   3.115  30.387   9.423 -0.3560 -0.3357 -0.0765
75819W        W18757   5.744  28.563  10.508 -0.1186 -0.2956 -0.3634
75820W        W18758   5.456  30.988   8.366  0.1074 -0.2864 -0.3286
75821W        W18759   6.306  32.003   7.969  0.0185  0.0665  0.1286
75822W        W18760   6.125  30.360  10.020 -0.5417 -0.2012  0.2272
75823W        W18761   2.863  31.022   8.248 -0.3374 -0.0270 -0.1507
75824W        W18762   3.506  31.353   9.360  0.0563  0.0619 -0.0446
75825W        W18763   6.540  32.103   8.913  0.1277 -0.4411  0.1190
75826W        W18764   5.773  31.225   6.978  0.0152 -0.5225  0.0433
75827W        W18765   2.250  30.749   8.518  0.0964 -0.1222  0.3134
75828W        W18766   1.280  27.239   8.923 -0.2861 -0.1967  0.0403
75829W        W18767   5.733  29.953   9.240 -0.2007  0.1356  0.0179
75830W        W18768   5.108  32.191   7.724 -0.0782  0.2745  0.1851
75831W        W18769   4.986  30.136   8.687  0.0333  0.0344  0.0259
75832W        W18770   3.439  31.160   8.674  0.0820  0.2262  0.2007
75833W        W18771   4.059  32.607   6.924  0.4472 -0.3152  0.3075
75834W        W18772   6.118  30.504   7.163 -0.1910  0.0002 -0.1677
75835W        W18773   5.896  29.632   6.380  0.0534 -0.2204 -0.1564
75836W        W18774   5.481  32.282   7.258  0.1664 -0.1938  0.2168
75837W        W18775   5.059  29.285   8.600  0.3774  0.1772 -0.2060
75838W        W18776   5.500  31.623   8.352 -0.1813  0.0232  0.0097
75839W        W18777   1.519  29.401   9.571 -0.0645 -0.0635 -0.0582
75840W        W18778   5.383  29.959   8.341 -0.1803  0.0139 -0.1524
75841W        W18779  12.328  33.858   9.821  0.1363  0.1506 -0.2282
75842W        W18780   1.131  31.899   9.656  0.0458  0.0083 -0.0673
75843W        W18781   2.311  30.239   7.786 -0.1186  0.0828  0.0422
75844W        W18782   6.146  31.936   7.433  0.0893 -0.1758  0.0273
75845W        W18783   6.355  31.550   9.129  0.2725 -0.2365 -0.1351
75846W        W18784   5.229  32.723   7.261 -0.1456  0.4129  0.3254
75847W        W18785   4.159  30.841   7.929  0.1573  0.3008  0.0602
75848W        W18786   5.174  30.208   6.576 -0.0460  0.0318  0.0262
75849W        W18787   7.624  29.482   8.229 -0.2529 -0.1474 -0.1090
75850W        W18788   4.811  33.065   9.719  0.0582  0.2592  0.1537
75851W        W18789   6.511  32.555   9.796  0.2137 -0.2569 -0.0815
75852W        W18790   6.215  31.747  10.104 -0.1556  0.1862 -0.1318
75853W        W18791   8.243  28.885  10.022 -0.1282 -0.2080 -0.0202
75854W        W18792   6.806  28.819   9.595 -0.1125 -0.0763  0.3282
75855W        W18793   5.240  31.134   6.966  0.1172  0.2182  0.2166
75856W        W18794   4.985  31.806   8.061 -0.2594 -0.4385 -0.2042
75857W        W18795   6.550  31.343   9.964 -0.3567 -0.2156  0.3354
75858W        W18796   6.991  30.458   7.217  0.3126  0.0112 -0.2735
75859W        W18797   4.117  30.985   9.705  0.0297  0.2226  0.0810
75860W        W18798   4.249  32.587   7.482  0.2435  0.1936  0.1333
75861W        W18799  34.275  29.032   9.758 -0.0763  0.1319 -0.1330
75862W        W18800   5.696  30.186   7.045  0.1700 -0.2513 -0.1552
75863W        W18801   4.156  28.996   9.907 -0.0727  0.0935 -0.0789
75864W        W18802   5.890  30.901   9.293 -0.3418 -0.1967  0.3656
75865W        W18803   6.668  30.019   7.486  0.1012 -0.2496  0.0826
75866W        W18804   5.981  28.659   9.526  0.1044  0.0031 -0.1099
75867W        W18805   4.616  30.847   8.173  0.2273  0.2905  0.7398
75868W        W18806   5.675  32.172   8.636 -0.1833  0.1787 -0.1289
75869W        W18807   6.978  30.391   7.742 -0.0680 -0.2074  0.0804
75870W        W18808   5.493  31.249   7.374  0.0489 -0.0954 -0.1818
75871W        W18809   4.259  32.325   8.402  0.1127  0.1543 -0.0629
75872W        W18810   3.661  29.324   8.529 -0.2249 -0.0676 -0.0016
75873W        W18811   4.039  28.444   7.899  0.1655 -0.1145 -0.0517
75874W        W18812   3.480  28.826   7.428 -0.1386  0.1745 -0.3589
75875W        W18813   6.600  29.766   8.324 -0.2131 -0.2373  0.0885
75876W        W18814   5.333  30.612   8.774  0.0871  0.2509 -0.2139
75877W        W18815   4.587  30.883   7.667  0.1967 -0.3079  0.1263
75878W        W18816   5.739  30.516   9.091 -0.0442 -0.0828  0.1315
75879W        W18817   9.302  33.045   9.905  0.0735 -0.3803 -0.3892
75880W        W18818   5.793  33.126   8.320 -0.1482 -0.0529 -0.1027
75881W        W18819   6.073  28.166   9.800 -0.1080  0.0079 -0.1335
75882W        W18820   3.678  29.052   7.033  0.1043 -0.2665  0.0099
75883W        W18821   2.056  30.170   9.700 -0.0081 -0.0005 -0.3411
75884W        W18822   4.821  30.698   8.961 -0.0612 -0.0339  0.0533
75885W        W18823   4.413  29.666   8.175 -0.0859  0.2078  0.0390
75886W        W18824   6.563  33.425   9.436  0.0705  0.0341 -0.0512
75887W        W18825   5.912  31.330   8.586 -0.0557 -0.4708 -0.1112
75888W        W18826   4.794  29.157   8.977  0.1251 -0.0322 -0.0228
75889W        W18827   4.874  28.281   8.677 -0.0075 -0.0402  0.1968
75890W        W18828   7.184  29.139   7.267  0.0098  0.3505  0.0285
75891W        W18829   6.818  31.808   9.224 -0.0543 -0.1069  0.0390
75892W        W18830   4.962  30.546   7.812  0.0263  0.0103 -0.2400
75893W        W18831   3.560  30.081   8.021 -0.1969  0.0716 -0.3456
75894W        W18832   5.493  31.305   9.450  0.2005  0.0794 -0.5359
75895W        W18833   7.280  29.498  10.011  0.1138 -0.1368 -0.1499
75896W        W18834   4.831  30.456   5.815  0.2682  0.0092  0.1317
75897W        W18835   5.516  28.425   9.519 -0.0356 -0.4352  0.0112
75898W        W18836   6.136  30.015   7.367  0.0453  0.0620 -0.4249
75899W        W18837   5.947  31.865   8.299 -0.2377 -0.2437 -0.0835
75900W        W18838   5.991  29.624   7.655 -0.0878  0.2805 -0.3541
75901W        W18839   5.446  29.411   6.827 -0.0591  0.0020 -0.2560
75902W        W18840   6.135  29.398   9.151  0.1529 -0.1323  0.0573
75903W        W18841   7.209  30.472  10.048  0.1713  0.2526  0.2542
75904W        W18842   5.555  29.978   7.451  0.0633 -0.0572  0.1592
75905W        W18843   6.358  31.539   8.206 -0.0074 -0.0574 -0.1836
75906W        W18844   4.651  29.448   9.450 -0.1251 -0.2681 -0.2378
75907W        W18845   6.940  29.925   7.907  0.3980 -0.1307  0.1599
75908W        W18846   5.925  28.111  10.518  0.1927  0.0935  0.1367
75909W        W18847   4.546  31.288   7.295 -0.0400  0.0758 -0.0781
75910W        W18848   5.770  30.200   7.990  0.0697 -0.4395  0.1008
75911W        W18849   4.555  31.719   8.377  0.1547  0.0655  0.1905
75912W        W18850   6.014  31.016   9.954 -0.0256 -0.1832 -0.2953
75913W        W18851   5.698  29.025   9.396  0.0658 -0.0569  0.0410
75914W        W18852   5.187  29.428   7.914  0.0512 -0.1238 -0.1611
75915W        W18853   3.918  29.478   9.098 -0.3014 -0.0093 -0.0613
75916W        W18854   5.548  30.801   5.623  0.0664 -0.1220  0.0134
75917W        W18855   6.758  30.332  10.136 -0.2483 -0.1473  0.2163
75918W        W18856   4.604  31.179   8.670 -0.0534  0.1370 -0.0122
75919W        W18857   6.131  29.738   9.546 -0.0027  0.2119  0.0134
75920W        W18858   5.129  28.846   7.196 -0.0030  0.3596 -0.1880
75921W        W18859   5.847  31.867   7.809  0.0728 -0.1177 -0.0130
75922W        W18860   5.348  30.759   9.393 -0.0761 -0.3503 -0.0230
75923W        W18861   2.727  28.684   8.528  0.2760 -0.3694  0.1760
75924W        W18862   4.580  31.725   9.293  0.1270 -0.2955 -0.2080
75925W        W18863   5.994  30.674   8.056 -0.1677 -0.0350 -0.0545
75926W        W18864   7.063  31.458   9.992  0.3472 -0.1745  0.1058
75927W        W18865   3.660  30.478   9.441  0.3010  0.0857 -0.1012
75928W        W18866   6.241  30.097   9.164 -0.3971 -0.1525 -0.0021
75929W        W18867   2.550  31.033   9.901 -0.0937 -0.1692 -0.0827
75930W        W18868   4.001  29.227   5.734  0.1924  0.1148  0.1574
75931W        W18869   3.644  30.246   8.968  0.0219  0.0811  0.2551
75932W        W18870   6.192  29.209   9.612 -0.0438  0.1020 -0.0563
75933W        W18871   5.573  30.703   7.086 -0.2464 -0.0007  0.1739
75934W        W18872   3.395  29.465   9.326 -0.3193  0.0774  0.5156
75935W        W18873   6.158  29.843   8.736 -0.0804 -0.0888  0.0027
75936W        W18874   0.636  32.080   9.642 -0.1983 -0.1504  0.1066
75937W        W18875   6.910  30.949   7.071 -0.2717 -0.1182 -0.1703
75938W        W18876   3.031  29.894   7.963 -0.0042  0.3580  0.2173
75939W        W18877   8.557  29.001  10.762  0.0803 -0.1349 -0.0018
75940W        W18878   4.589  30.278   9.152  0.1325  0.0764  0.0278
75941W        W18879   3.382  31.961   8.401  0.0151  0.4180  0.1101
75942W        W18880   6.006  31.413   9.623  0.4145 -0.1521  0.1858
75943W        W18881   4.048  31.584   7.089  0.0862  0.1842  0.1916
75944W        W18882   2.407  30.330  10.018 -0.1140 -0.2351 -0.2978
75945W        W18883   7.559  29.816   9.567 -0.0440  0.0293 -0.0155
75946W        W18884   4.208  30.454   8.918  0.0971  0.0919  0.1247
75947W        W18885   4.948  29.284   6.999  0.3007  0.1657 -0.2458
75948W        W18886   4.143  29.598   8.658 -0.0327 -0.1032 -0.1010
75949W        W18887   6.605  29.220   9.989  0.1312 -0.5540 -0.2366
75950W        W18888   2.872  30.570   8.477 -0.1120 -0.1288 -0.0698
75951W        W18889   6.671  27.083  10.036  0.1031 -0.1025  0.3115
75952W        W18890   7.433  32.815   8.546 -0.0546  0.3514 -0.0786
75953W        W18891   3.785  30.250   7.034 -0.0164  0.2527 -0.1144
75954W        W18892   4.638  30.241   9.870 -0.1116  0.1484  0.4112
75955W        W18893   5.063  30.995   8.057 -0.0212  0.3318  0.2136
75956W        W18894   4.977  28.877  10.152 -0.1880  0.1688 -0.3439
75957W        W18895   4.199  30.458   9.441  0.4675  0.2408  0.0381
75958W        W18896   3.805  32.570   7.812  0.0694  0.1931 -0.1353
75959W        W18897   1.138  30.902   9.216 -0.0915 -0.2151 -0.0955
75960W        W18898   6.324  28.217   7.743  0.0142 -0.5908  0.2403
75961W        W18899   6.566  30.248   6.392  0.0016  0.1567  0.0430
75962W        W18900   5.477  30.115   8.843  0.2808  0.0484 -0.1291
75963W        W18901   6.332  32.528   6.672  0.1197  0.0469 -0.1188
75964W        W18902   7.174  27.176   9.899  0.2272 -0.0127 -0.0176
75965W        W18903   7.077  29.668   9.554  0.1875  0.1168  0.3046
75966W        W18904   5.156  29.709   7.476  0.1488 -0.0033  0.1037
75967W        W18905   5.020  28.741   8.746 -0.1866 -0.2166 -0.1377
75968W        W18906   3.655  29.801   8.726  0.2181 -0.1423 -0.1255
75969W        W18907   5.538  33.214   9.269  0.0677  0.0889 -0.1304
75970W        W18908   4.791  29.673   9.036 -0.0649  0.2296  0.2369
75971W        W18909   6.588  29.468   9.498  0.1134 -0.2754  0.1569
75972W        W18910   5.706  29.545   9.520 -0.4089 -0.1194 -0.0411
75973W        W18911   6.345  31.137   8.448 -0.0426  0.1123  0.0987
75974W        W18912   5.365  31.747   7.716  0.0133  0.1534  0.2007
75975W        W18913   3.116  30.440   8.898 -0.1572 -0.0906 -0.2138
75976W        W18914   6.014  30.321   9.508 -0.3350 -0.3941 -0.1000
75977W        W18915   6.517  30.264   8.705 -0.4718 -0.1434 -0.0208
75978W        W18916   6.644  32.030   9.993 -0.1659 -0.0166 -0.0498
75979W        W18917   7.978  29.521   7.824  0.3296 -0.0473 -0.3944
75980W        W18918   8.311  28.270  10.092  0.0227  0.1428 -0.0828
75981W        W18919   5.834  29.905   8.351  0.0819  0.0939  0.0866
75982W        W18920   7.127  30.320   6.393  0.0568 -0.0272 -0.2103
75983W        W18921   4.646  30.491   8.564  0.0308  0.0532  0.1403
75984W        W18922   4.616  30.186   7.020 -0.3011 -0.1842 -0.1483
75985W        W18923   4.213  31.691   7.561 -0.2665  0.0751 -0.2006
75986W        W18924   5.041  30.389   9.324 -0.2875 -0.0338  0.2953
75987W        W18925   5.876  29.156   8.510 -0.0591 -0.1681 -0.0360
75988W        W18926   3.562  28.407   8.959  0.2106 -0.2117 -0.2943
75989W        W18927   5.381  29.866   5.595  0.3487 -0.2309 -0.0334
75990W        W18928   4.220  30.048   7.347  0.2987  0.0833 -0.2159
75991W        W18929   6.130  29.510  10.024  0.0143  0.0379  0.1346
75992W        W18930   5.473  27.728   7.627  0.0587  0.6266 -0.0824
75993W        W18931   3.815  31.976   7.348 -0.2793  0.0062 -0.1346
75994W        W18932   5.646  29.205   9.990 -0.0707  0.0777  0.0621
75995W        W18933   2.379  31.130   8.769  0.1990  0.1334  0.0071
75996W        W18934   4.344  30.899   9.055  0.0728  0.2369 -0.4789
75997W        W18935   5.075  28.656   9.737  0.2852  0.0727 -0.0311
75998W        W18936   7.470  31.697  10.411 -0.1375  0.3279  0.1999
75999W        W18937   5.161  29.399   9.242 -0.0715  0.0786 -0.1174
76000W        W18938   3.676  31.250   9.816 -0.1833 -0.1025  0.5887
76001W        W18939   7.894  30.685  10.669  0.2233 -0.0258  0.1518
76002W        W18940   3.912  30.114   8.448 -0.0733  0.0853  0.3610
76003W        W18941   5.663  28.339  10.047  0.1384  0.2834 -0.1623
76004W        W18942   4.211  29.170   8.320  0.1396 -0.0037 -0.1850
76005W        W18943   6.241  32.343   7.190  0.1183  0.0279  0.4017
76006W        W18944   2.953  30.012   8.537  0.1097 -0.0644 -0.0865
76007W        W18945   4.696  31.308   7.939 -0.2021  0.0653 -0.3584
76008W        W18946   6.954  31.663   7.005  0.2189  0.2940  0.1350
76009W        W18947   5.698  30.947   8.845  0.1223  0.4530  0.2773
76010W        W18948   5.330  34.347   9.924  0.0664 -0.1210 -0.1130
76011W        W18949   4.724  29.597   6.182 -0.0750  0.0183  0.0449
76012W        W18950   3.132  31.411   8.298  0.1565  0.1722  0.2691
76013W        W18951   3.700  31.747   7.796 -0.0636 -0.3467 -0.2847
76014W        W18952   5.800  32.282   9.275  0.0938 -0.2264  0.0757
76015W        W18953   3.918  31.115   8.804  0.2583 -0.2661 -0.1047
76016W        W18954   5.611  29.541   7.253 -0.4764 -0.0795 -0.1772
76017W        W18955   6.805  30.900   9.861  0.2564 -0.1133  0.1117
76018W        W18956   8.061  30.009   7.796  0.0594  0.3331  0.1345
76019W        W18957   5.211  28.833   9.230 -0.0364 -0.1274  0.1601
76020W        W18958   4.186  30.219   7.844 -0.3797 -0.0236  0.1339
76021W        W18959   6.108  32.306   8.784  0.1048 -0.0956 -0.1979
76022W        W18960   4.994  30.884   8.532  0.0498 -0.1474 -0.1282
76023W        W18961   3.695  30.912   7.732  0.0603 -0.0899  0.0168
76024W        W18962   8.054  29.975   8.673 -0.3178 -0.0172 -0.1749
76025W        W18963   4.315  30.595   7.109 -0.0128 -0.0156  0.0647
76026W        W18964   7.022  27.812   8.928 -0.2072 -0.1643 -0.0544
76027W        W18965   5.196  31.939   8.603 -0.1760  0.0834 -0.3628
76028W        W18966   5.009  31.071   9.536  0.1894  0.0049 -0.2254
76029W        W18967   5.729  34.171   9.578  0.0035  0.1685  0.1167
76030W        W18968   3.967  30.101   6.208 -0.1142  0.1118  0.3197
76031W        W18969   7.899  29.923   9.185 -0.0347  0.2822  0.1386
76032W        W18970   3.602  29.932   9.320  0.1624  0.1107 -0.3450
76033W        W18971   4.147  31.035   7.502 -0.0285 -0.0087 -0.0357
76034W        W18972   5.567  29.724   7.878 -0.0674  0.2050 -0.1483
76035W        W18973   4.414  28.146   8.750 -0.0609  0.2514 -0.2922
76036W        W18974   5.566  28.557   8.991  0.0599 -0.2175  0.3454
76037W        W18975   6.491  31.754   6.109  0.0958 -0.2709 -0.2248
76038W        W18976   6.855  30.118   6.022 -0.0011 -0.2536 -0.0361
76039W        W18977   4.626  28.939   8.589  0.1798 -0.0276 -0.0779
76040W        W18978   5.600  30.024   6.586  0.0913  0.1469  0.1072
76041W        W18979   2.705  30.122   9.609 -0.4240 -0.2138  0.1863
76042W        W18980   3.037  29.455  10.121 -0.2726  0.2102 -0.1578
76043W        W18981   4.407  28.461   7.582  0.0663  0.1219  0.0205
76044W        W18982   5.903  31.244   8.111 -0.2405  0.1660  0.0151
76045W        W18983   8.904  30.458   9.729  0.0699 -0.2126  0.4499
76046W        W18984   4.820  32.991   7.103  0.0739  0.2514  0.1447
76047W        W18985   6.176  29.548   8.231  0.1274 -0.0953 -0.1836
76048W        W18986   6.063  31.809   8.810  0.3817 -0.0594  0.5005
76049W        W18987  34.152  29.120  12.272 -0.0746  0.0574 -0.2895
76050W        W18988   5.049  31.377   8.395  0.0341 -0.1578  0.0271
76051W        W18989   8.207  29.842  10.416  0.3268  0.0317 -0.2408
76052W        W18990   5.183  28.140   7.524  0.0250  0.2604 -0.1377
76053W        W18991   5.248  29.162   9.713  0.3120  0.0923  0.3571
76054W        W18992   3.772  32.168   8.207  0.1188  0.1482  0.1274
76055W        W18993   8.535  28.350   9.534 -0.1497 -0.2080  0.0672
76056W        W18994   5.690  30.973   7.738 -0.1548 -0.1426  0.0667
76057W        W18995   4.637  30.700   9.490 -0.0584 -0.2546 -0.0456
76058W        W18996   4.313  29.789   6.936  0.1197 -0.0989 -0.0059
76059W        W18997   4.779  29.923   9.505 -0.2392 -0.1483 -0.1566
76060W        W18998   4.771  31.697   7.593  0.0791 -0.2471 -0.4010
76061W        W18999   6.747  32.247   9.439  0.1484 -0.3186  0.0740
76062W        W19000   5.227  29.870   9.304  0.3054 -0.0037 -0.0057
76063W        W19001   6.500  32.626   8.540 -0.2222  0.3817  0.2694
76064W        W19002   4.678  29.196   8.075 -0.2583  0.2381 -0.0107
76065W        W19003   7.187  28.214   9.171  0.0401  0.2841 -0.5031
76066W        W19004   5.386  28.830   7.876 -0.0077  0.0485  0.0020
76067W        W19005   4.026  31.313   9.289 -0.1261  0.1362 -0.0956
76068W        W19006   2.873  31.414   7.784  0.2523 -0.2355  0.0742
76069W        W19007   4.576  31.806   7.134 -0.2105 -0.0065  0.0013
76070W        W19008   2.882  30.856   9.373 -0.1216 -0.2755  0.3720
76071W        W19009   2.627  30.139   8.199 -0.0898  0.1839 -0.2116
76072W        W19010   6.168  30.313   8.375 -0.3569 -0.2164  0.1702
76073W        W19011   6.221  32.528   7.715 -0.2447 -0.0748  0.0016
76074W        W19012   4.950  29.679   8.340 -0.1495  0.3939 -0.1564
76075W        W19013   4.423  28.751   8.024  0.1057 -0.0472 -0.1610
76076W        W19014   6.275  28.722   9.919 -0.1006 -0.1001 -0.2380
76077W        W19015   6.867  32.982   8.695 -0.0428 -0.0764  0.0967
76078W        W19016   5.140  30.538   8.257  0.1506 -0.0589  0.0867
76079W        W19017   1.863  30.938   6.403 -0.1606 -0.2652  0.1042
76080W        W19018   3.482  29.502   7.180 -0.0050 -0.1340 -0.0383
76081W        W19019   4.231  29.186   9.350  0.0552  0.3671 -0.4960
76082W        W19020   5.790  29.154   8.007 -0.0423 -0.0021 -0.4406
76083W        W19021   6.264  32.877   8.166 -0.0924 -0.2035  0.0983
76084W        W19022   4.249  28.681   9.417 -0.0922  0.4387 -0.1711
76085W        W19023   6.484  30.392   7.724  0.2434 -0.1747  0.0062
76086W        W19024   5.462  31.336   6.317  0.0399 -0.1236  0.1976
76087W        W19025   7.957  30.049  10.788 -0.0388 -0.1522 -0.1921
76088W        W19026   5.973  30.932   7.300  0.0699  0.3004 -0.2032
76089W        W19027   8.948  29.521  10.228 -0.1252 -0.0272 -0.3367
76090W        W19028   3.930  29.556   9.645 -0.0380  0.2231 -0.1775
76091W        W19029   5.203  30.104   7.907 -0.0107 -0.0855  0.1691
76092W        W19030   6.728  30.435   9.535  0.2422 -0.2329  0.0730
76093W        W19031   4.493  30.007   8.758  0.2766 -0.0335 -0.1646
76094W        W19032   5.471  29.200   7.553  0.0466 -0.1449  0.0071
76095W        W19033   6.327  30.585   9.197 -0.0795  0.2461 -0.1267
76096W        W19034   4.716  30.217   8.099 -0.1593 -0.0257 -0.0690
76097W        W19035   8.528  29.819   7.908  0.1313 -0.3694 -0.1548
76098W        W19036   5.171  32.161   9.561 -0.0590 -0.2636 -0.0647
76099W        W19037   3.899  30.830   9.189  0.2990 -0.3688 -0.1057
76100W        W19038   5.226  29.709   8.821  0.1767 -0.0261  0.2503
76101W        W19039   4.080  28.574   8.900  0.0829  0.0042 -0.0575
76102W        W19040   3.426  31.269   7.907 -0.0045 -0.0717 -0.1188
76103W        W19041   4.590  29.475   8.619  0.0882  0.1300 -0.1264
76104W        W19042   6.458  30.068   9.710 -0.2079 -0.3748  0.1826
76105W        W19043   7.061  28.659  10.349  0.5294 -0.0267  0.0008
76106W        W19044   5.140  30.273   7.381 -0.2071  0.3200 -0.0096
76107W        W19045   7.322  33.937  10.205  0.1597 -0.0115 -0.1416
76108W        W19046   6.428  30.703  10.221  0.1569  0.1305  0.2228
76109W        W19047   5.722  32.394  31.700  0.4451 -0.0001 -0.2144
76110W        W19048   6.628  34.194   0.235  0.0265 -0.0716  0.4652
76111W        W19049   6.412   0.676   0.145  0.0754 -0.0769  0.3391
76112W        W19050   3.373  33.415   0.531 -0.2000 -0.0491  0.1802
76113W        W19051   5.034  33.578   2.235  0.1392  0.4381  0.0944
76114W        W19052   5.633  33.658   0.847  0.3480  0.1799 -0.0352
76115W        W19053   4.522  33.185   1.621 -0.0380  0.0941  0.2309
76116W        W19054   5.157  32.824   0.436 -0.0449 -0.0066 -0.0599
76117W        W19055   3.089  32.706   1.672  0.4674  0.2013 -0.2799
76118W        W19056   5.912  33.649   2.677 -0.3342 -0.1444  0.2432
76119W        W19057   3.055   0.002   1.514  0.0274 -0.0793  0.1105
76120W        W19058   4.697  33.653   1.886  0.2706  0.1819 -0.2252
76121W        W19059   4.675  32.842   0.249  0.3639  0.0772  0.3466
76122W        W19060   4.852  33.726   3.208 -0.4370 -0.3357 -0.2595
76123W        W19061   5.918  33.386   3.764 -0.1958  0.2879 -0.1467
76124W        W19062   5.528  34.401   0.837 -0.1229  0.1380 -0.1661
76125W        W19063   4.100  34.126   1.786  0.1252  0.0402  0.3179
76126W        W19064   4.424  34.636   1.814  0.0378  0.1249 -0.0515
76127W        W19065   6.744  33.608   3.186 -0.0595  0.0546 -0.0857
76128W        W19066   7.298  34.398   0.588  0.0977 -0.2285  0.0372
76129W        W19067   6.334   0.443   4.657  0.1862 -0.2706 -0.2870
76130W        W19068   7.002  34.639   1.856  0.0060 -0.0993  0.3304
76131W        W19069   6.083  33.209   1.316  0.3579  0.2512 -0.0665
76132W        W19070   7.232  34.294   4.206  0.0798 -0.0905 -0.2301
76133W        W19071   6.748  33.588   0.744  0.0455 -0.0732  0.0538
76134W        W19072   5.569  32.614   0.247  0.1263  0.0249 -0.2277
76135W        W19073   6.944  33.987   0.551 -0.3019  0.0210  0.0977
76136W        W19074   6.615  31.721   2.137  0.3941 -0.0917  0.0206
76137W        W19075   6.141  33.816   1.412 -0.0756 -0.2246 -0.0491
76138W        W19076   5.986  32.990   0.848 -0.1308 -0.1374  0.1204
76139W        W19077   6.274  34.019   2.273  0.2582 -0.0978  0.0594
76140W        W19078   3.907  32.169   0.416 -0.0727 -0.0780 -0.0269
76141W        W19079   3.931  34.387  31.679 -0.4674 -0.5228  0.0258
76142W        W19080   4.128  34.141   3.069  0.0020  0.0577 -0.1629
76143W        W19081   4.249  34.353   2.230  0.1067 -0.0491  0.0819
76144W        W19082   6.976  33.169   0.939  0.0523 -0.1873  0.0167
76145W        W19083   6.768  33.304   1.764  0.1140  0.0984 -0.2898
76146W        W19084   6.655  31.677   2.704  0.2077 -0.0889 -0.1621
76147W        W19085   7.046  34.031   2.475 -0.0740  0.0431 -0.4093
76148W        W19086   7.577  34.369   1.564 -0.2249 -0.1316  0.0010
76149W        W19087   5.443  34.417   3.169  0.1197 -0.2908 -0.0915
76150W        W19088   4.177  33.951   2.624 -0.1318  0.1291 -0.1020
76151W        W19089   6.907  33.018   1.387 -0.2945  0.0166  0.1826
76152W        W19090   4.545  33.279   3.035 -0.1391  0.1527 -0.1172
76153W        W19091   8.153  33.064   1.325  0.0772  0.0236 -0.2709
76154W        W19092   7.428  33.995  31.256 -0.3310  0.1069  0.0354
76155W        W19093   3.036  34.674   2.763 -0.0258 -0.3494 -0.2191
76156W        W19094   6.130  34.310   0.061 -0.2258 -0.0391  0.0297
76157W        W19095   5.147   0.264   3.795  0.2077 -0.1920  0.3891
76158W        W19096   4.065  33.447   1.285  0.0633 -0.1050  0.3211
76159W        W19097   6.328  33.920   3.307  0.0309  0.0965  0.2635
76160W        W19098   4.385  31.007  31.851 -0.1301 -0.0161  0.0278
76161W        W19099   5.977  32.676   1.229  0.1045  0.4548  0.0068
76162W        W19100   5.865  33.779   1.968 -0.1122 -0.2285  0.1011
76163W        W19101   7.452  33.946   2.853 -0.4005  0.1017 -0.2086
76164W        W19102   5.018  33.348   2.932 -0.0039  0.0567 -0.1969
76165W        W19103   4.564  32.025   0.497 -0.0215 -0.2708  0.2405
76166W        W19104   5.123  32.944   1.224  0.3284  0.0145  0.2487
76167W        W19105   6.669  31.891   3.193 -0.1874 -0.0464  0.0500
76168W        W19106   7.596  33.062   1.110 -0.0093  0.0018 -0.2028
76169W        W19107   5.211  31.575  31.967  0.1543  0.0024  0.0940
76170W        W19108   3.683  34.271   1.056  0.1410 -0.0145  0.1421
76171W        W19109   7.402  34.065   1.896  0.2128 -0.0166  0.2950
76172W        W19110   3.967   0.408   3.773 -0.0099 -0.0119 -0.1208
76173W        W19111   6.253   1.128   2.324  0.0387  0.1257 -0.2143
76174W        W19112   4.368   0.477   0.913 -0.0410 -0.0406 -0.2017
76175W        W19113   6.475  31.980   0.961 -0.1582  0.0825 -0.3392
76176W        W19114   7.816  34.281   0.683 -0.1146  0.0795 -0.0871
76177W        W19115   6.352   0.248   0.691 -0.1576  0.0294  0.1507
76178W        W19116   5.222  31.883  31.526 -0.2219  0.0014 -0.1371
76179W        W19117   5.981  32.180   1.134 -0.1296 -0.1732  0.3067
76180W        W19118   8.371  32.594   2.743  0.2562 -0.3958 -0.3265
76181W        W19119   6.517  32.943   0.550  0.0020  0.1334 -0.2171
76182W        W19120   6.850  32.476   1.591 -0.4237  0.0287 -0.1092
76183W        W19121   7.889  33.198   2.192 -0.0385  0.2428 -0.2400
76184W        W19122   6.429  33.099   2.147 -0.4094 -0.2634 -0.1317
76185W        W19123   5.428  34.087   4.068  0.1868  0.0614 -0.1953
76186W        W19124   8.632  34.131   2.994 -0.1099  0.2525 -0.0435
76187W        W19125   6.368   0.205   2.458 -0.1371  0.1805 -0.2776
76188W        W19126   7.300  34.382   2.235 -0.1537 -0.0203 -0.0593
76189W        W19127   4.849  32.119  31.073 -0.1218 -0.0026 -0.0679
76190W        W19128   5.455  33.201   2.522  0.0267 -0.2663  0.1410
76191W        W19129   5.067   0.195   2.640  0.0112  0.0212  0.1060
76192W        W19130   6.889  32.023   1.797 -0.3044  0.5493 -0.2568
76193W        W19131   5.994  33.019   1.885 -0.2718  0.2600  0.2285
76194W        W19132   8.587  32.028   3.419  0.2966 -0.0428 -0.0956
76195W        W19133   4.972  33.684   0.814  0.0920 -0.0332  0.1816
76196W        W19134   4.884   0.284   0.905  0.1360 -0.2546  0.0728
76197W        W19135   7.750  33.111   1.585  0.0200  0.2449 -0.0615
76198W        W19136   4.369  33.850   2.192  0.0346  0.0489  0.0938
76199W        W19137   4.620  33.672   2.712 -0.0505  0.1897 -0.0857
76200W        W19138   5.299  34.277   2.393  0.2432  0.1276 -0.2397
76201W        W19139   7.030  31.884   0.874  0.0771  0.2400 -0.1204
76202W        W19140   3.602   0.357   2.281  0.0384 -0.1735 -0.0755
76203W        W19141   3.930  31.851   1.232 -0.0785  0.0510  0.1287
76204W        W19142   8.548  32.653   1.287  0.2682 -0.1290  0.0117
76205W        W19143   5.926  33.201   2.405 -0.1107 -0.0702 -0.2198
76206W        W19144   4.877  33.068   0.792 -0.0477 -0.0698 -0.2085
76207W        W19145   4.699  34.088   2.487  0.1225  0.0401  0.1092
76208W        W19146   7.111  31.771   2.899  0.0826  0.2290 -0.2290
76209W        W19147   5.668  32.137   1.548 -0.0010  0.0274 -0.0105
76210W        W19148   4.823   0.733   0.746  0.1237  0.1008  0.0437
76211W        W19149   6.578  32.277   2.627  0.1845  0.0040  0.1819
76212W        W19150   6.711  32.742   2.937 -0.0269 -0.0077  0.0936
76213W        W19151   6.444  32.281   3.876 -0.4200 -0.0435  0.1216
76214W        W19152   6.322  33.076   2.686 -0.0321  0.1910 -0.0388
76215W        W19153   7.812  32.246   0.755 -0.1186  0.2553  0.1182
76216W        W19154   5.449  31.860   0.586  0.1279  0.3274 -0.1333
76217W        W19155   6.697  33.064   3.488  0.2719 -0.0077  0.1167
76218W        W19156   7.614  33.542   0.296  0.0688  0.0411  0.1557
76219W        W19157   6.254  32.952   3.318  0.0959  0.1107 -0.0797
76220W        W19158   6.566  33.604   2.184  0.2083  0.1167  0.1547
76221W        W19159   5.017  33.216   1.684 -0.1248  0.2228 -0.0281
76222W        W19160   5.053   0.073   3.161  0.0144  0.3496  0.0126
76223W        W19161   5.538  32.772   0.809 -0.1450  0.3041 -0.0962
76224W        W19162   5.672  31.457   0.793 -0.1282 -0.1165  0.2934
76225W        W19163   4.504   0.554   1.997  0.2975 -0.1623  0.1105
76226W        W19164   7.776  33.318   0.703  0.2661  0.1589  0.2329
76227W        W19165   3.602   0.108   2.903  0.0393 -0.3106  0.0489
76228W        W19166   5.250  33.891   0.488  0.0861  0.0938  0.0903
76229W        W19167   4.628  32.004   3.053 -0.0629  0.4415  0.1015
76230W        W19168   7.123  32.365   2.131 -0.3736 -0.0654  0.1974
76231W        W19169   7.241  33.030   2.821 -0.1232 -0.2342  0.0125
76232W        W19170   7.044  33.679   2.153  0.2622 -0.1949  0.3172
76233W        W19171   4.419   0.138   2.339 -0.0586  0.0829  0.0278
76234W        W19172   4.798  34.140   3.511 -0.1082 -0.3821 -0.3995
76235W        W19173   6.898  34.366   1.003 -0.1661  0.0517 -0.0436
76236W        W19174   7.697  33.547   1.874  0.0969 -0.0828  0.2059
76237W        W19175   6.996   0.426   1.669  0.2089 -0.1502  0.0520
76238W        W19176   6.611  32.302   2.099 -0.0079  0.0819  0.1403
76239W        W19177   4.748  32.627   1.407  0.0636  0.2157 -0.2591
76240W        W19178   5.809  34.111   2.358 -0.3092 -0.0298  0.0230
76241W        W19179   5.401  32.899  31.411 -0.0607  0.1709 -0.1588
76242W        W19180   6.756  33.295   2.762 -0.1803 -0.0685  0.3990
76243W        W19181   6.645  32.216  31.908  0.1453  0.3001 -0.1401
76244W        W19182   4.341  33.854   1.327 -0.1453 -0.0609 -0.0918
76245W        W19183   3.106  34.003  31.908 -0.2610  0.1203 -0.0318
76246W        W19184   4.220  33.667   0.399 -0.3941 -0.2388 -0.0898
76247W        W19185   6.613  32.716   1.095 -0.0080 -0.3711  0.0994
76248W        W19186   7.819  34.223   2.342  0.2488 -0.1163 -0.1848
76249W        W19187   6.914  32.818   1.985 -0.0349  0.0447 -0.2902
76250W        W19188   7.481  32.612   2.991  0.5101 -0.2182  0.1099
76251W        W19189   6.308  33.436   3.049  0.1492  0.1842  0.1924
76252W        W19190   5.821  33.517   0.354 -0.1893  0.0763  0.3278
76253W        W19191   8.870   0.252   3.479  0.1121 -0.1503 -0.1897
76254W        W19192   4.527  34.611   0.763 -0.2896  0.0385 -0.1648
76255W        W19193   3.998   0.239   2.613  0.1520  0.0145  0.1097
76256W        W19194   5.094  32.525   0.930  0.0087 -0.1698 -0.1820
76257W        W19195   5.269  32.389   2.048 -0.0598 -0.0066  0.1268
76258W        W19196   7.805  33.618  31.723  0.0495  0.2893 -0.0163
76259W        W19197   7.031  33.863   1.087  0.2061  0.1594 -0.2562
76260W        W19198   7.030  33.784   1.592 -0.0707  0.0607 -0.3291
76261W        W19199   6.283  33.695   0.929 -0.1163  0.0856  0.0317
76262W        W19200   5.264  30.774  31.495  0.1181  0.0167 -0.4349
76263W        W19201   4.280   0.180   3.481  0.1182 -0.0921 -0.1038
76264W        W19202   7.145  31.580   4.142  0.3188  0.0479 -0.2893
76265W        W19203   4.354  32.388  31.818 -0.0408 -0.0947 -0.0381
76266W        W19204   5.393  34.399   1.391  0.0518 -0.2813 -0.0843
76267W        W19205   8.599  33.026   2.832 -0.1553 -0.0276  0.0728
76268W        W19206   6.898  32.212   3.592 -0.1372 -0.3082  0.2031
76269W        W19207   4.322  33.168   0.088  0.0022  0.0643 -0.3390
76270W        W19208   7.538  33.830   1.335  0.0387 -0.2131  0.2185
76271W        W19209   4.419  34.447   2.703 -0.1304 -0.4221 -0.2678
76272W        W19210   6.665  33.194   4.011 -0.3412 -0.0491  0.2235
76273W        W19211   4.345  34.171   0.525  0.3465 -0.1370 -0.1421
76274W        W19212   6.456  33.205   0.958  0.2457 -0.3893 -0.0705
76275W        W19213   4.593  34.097   1.849  0.0582 -0.1896 -0.1258
76276W        W19214   7.666  32.702   0.803 -0.1368 -0.1326  0.2339
76277W        W19215   8.299  33.881   2.607 -0.1557  0.0892  0.2451
76278W        W19216   7.206   0.166   0.359  0.2697 -0.2387  0.1934
76279W        W19217   4.374  32.993   0.650 -0.0151 -0.0497  0.1414
76280W        W19218   7.220  32.684   1.048 -0.2110 -0.0087  0.0658
76281W        W19219   3.983   0.109   2.127  0.1873  0.0560  0.2504
76282W        W19220   3.725  34.299   2.107 -0.0096  0.3356  0.0909
76283W        W19221   3.836  33.394   0.755 -0.1346 -0.2612  0.2067
76284W        W19222   6.695  32.764   2.435  0.0643  0.2517 -0.0001
76285W        W19223   6.515   0.412   1.540 -0.0100  0.1506  0.0361
76286W        W19224   5.520  32.943   1.729 -0.2914  0.0920  0.1252
76287W        W19225   6.291  31.724  31.555 -0.3139 -0.0432  0.2609
76288W        W19226   5.098  33.075   2.148 -0.2104 -0.1130  0.0828
76289W        W19227   8.791  32.589   1.938  0.0041  0.4946 -0.0241
76290W        W19228   6.286  33.548   4.129  0.0933  0.1000 -0.0897
76291W        W19229   6.504  33.184   4.540 -0.0525  0.0270  0.0226
76292W        W19230   6.252  33.490   1.794  0.1128 -0.1278  0.2003
76293W        W19231   6.333  31.520   1.816 -0.2149  0.3156 -0.1575
76294W        W19232   7.824  33.459   1.224 -0.0594  0.2205 -0.1214
76295W        W19233   7.212  31.402   1.041 -0.1121  0.0160 -0.2509
76296W        W19234   4.921   0.553   2.905  0.0518 -0.1109 -0.2360
76297W        W19235   3.948  34.521   0.676 -0.1956  0.1588 -0.4053
76298W        W19236   5.474  32.617   3.332  0.2009 -0.2871 -0.2159
76299W        W19237   4.542   0.205   2.870  0.0566  0.0896 -0.0000
76300W        W19238   4.502  34.397   1.351 -0.0829  0.1830 -0.0803
76301W        W19239   3.701  31.891   1.825  0.2318  0.2713 -0.1936
76302W        W19240   5.091  32.715   1.762 -0.3185  0.2163  0.0326
76303W        W19241   5.123  32.232   1.413  0.1400  0.1173  0.0577
76304W        W19242   6.048  32.737   0.395  0.2006  0.1725 -0.3416
76305W        W19243   7.005  34.566   2.843  0.0657  0.3087  0.2619
76306W        W19244   4.555  33.198   2.281 -0.0787 -0.1880 -0.2970
76307W        W19245   3.916  32.707   0.464  0.2183  0.1661  0.0260
76308W        W19246   5.922  34.647   2.242  0.0033  0.0077  0.5710
76309W        W19247   4.109  33.571   2.929 -0.2754 -0.1372 -0.0421
76310W        W19248   7.464  33.365   2.443 -0.2619  0.0907 -0.3382
76311W        W19249   6.490  32.897   1.614 -0.1158 -0.2934  0.0391
76312W        W19250   4.767  33.444   3.631 -0.1992  0.1595  0.0255
76313W        W19251   4.613  32.832   1.925  0.2140 -0.1140 -0.0738
76314W        W19252   7.672  32.701   1.943  0.2554 -0.0602  0.0131
76315W        W19253   4.219  32.130   0.877 -0.1420  0.0843 -0.2043
76316W        W19254   4.818  33.482   1.283 -0.1393 -0.1998 -0.0217
76317W        W19255   5.950  34.572   2.753 -0.0871  0.3887  0.2409
76318W        W19256   4.463  32.549   1.013  0.1149  0.2367  0.2203
76319W        W19257   6.824   1.002  31.930 -0.1534  0.2982  0.1178
76320W        W19258   3.305  33.102   1.417 -0.4232  0.2442  0.1120
76321W        W19259   3.966  34.683   1.147  0.0135 -0.1318  0.1670
76322W        W19260   5.723   0.066   1.355  0.0552 -0.1185 -0.1319
76323W        W19261   6.527  33.726   2.738 -0.0295 -0.2126  0.1333
76324W        W19262   6.218  32.567   2.187  0.2169 -0.3801  0.1444
76325W        W19263   8.226  32.381   0.382 -0.2339 -0.3315 -0.1159
76326W        W19264   3.607  33.383   5.110  0.3784  0.1493  0.0023
76327W        W19265   7.940  33.314   3.608 -0.2901  0.0926 -0.2053
76328W        W19266   8.213   0.971   3.450 -0.2867 -0.4146 -0.0821
76329W        W19267   3.224  33.353   4.759 -0.1939 -0.1260 -0.1092
76330W        W19268   4.580  33.974   5.731 -0.2712 -0.3142 -0.0995
76331W        W19269   5.849  34.099   3.362  0.0189  0.0013 -0.0112
76332W        W19270   4.885  33.581   5.583  0.1863 -0.2648  0.0053
76333W        W19271   5.976  32.137   4.475  0.0115  0.2067  0.1092
76334W        W19272   4.783  33.062   4.810 -0.2663 -0.3272  0.2739
76335W        W19273   7.345   0.431   6.554  0.2819 -0.0306 -0.1039
76336W        W19274   3.203  33.785   4.443  0.0751 -0.3274 -0.2490
76337W        W19275   4.556  33.973   5.151  0.0580 -0.0295  0.0530
76338W        W19276   5.750   0.498   5.367  0.0424 -0.2376 -0.0346
76339W        W19277   5.845  32.657   7.412  0.0177 -0.0423 -0.2850
76340W        W19278   6.269  32.852   7.193  0.0006  0.0715  0.0719
76341W        W19279   3.028  34.242   4.651  0.0378 -0.0067 -0.2465
76342W        W19280   3.649  33.750   5.901 -0.0682 -0.3110  0.1881
76343W        W19281   5.597  34.383   6.555  0.1537  0.1373 -0.1284
76344W        W19282   6.914  33.051   4.884  0.2287 -0.1681 -0.1322
76345W        W19283   5.297  33.650   5.249  0.1717  0.1889  0.2532
76346W        W19284   5.283  33.592   7.870 -0.1361 -0.1141 -0.1502
76347W        W19285   5.045  33.073   6.615  0.2055  0.3315  0.0114
76348W        W19286   5.821  34.166   5.427  0.3133  0.0155 -0.0484
76349W        W19287   6.330  33.419   7.578 -0.2244  0.3278 -0.0611
76350W        W19288   5.596  33.807   3.711 -0.4446  0.0733 -0.1850
76351W        W19289   5.303  33.978   3.358 -0.1974  0.1518 -0.0067
76352W        W19290   5.717  32.742   2.638  0.3883 -0.1304 -0.1076
76353W        W19291   5.632  31.717   5.349 -0.0006  0.0088  0.1611
76354W        W19292   3.668  34.231   5.742 -0.0872  0.0689 -0.0990
76355W        W19293   5.734   0.237   3.944 -0.0379  0.0377  0.3558
76356W        W19294   5.111  33.854   4.826 -0.1972  0.1012  0.0186
76357W        W19295   4.037  33.912   6.205 -0.1339 -0.0137  0.0092
76358W        W19296   4.671   0.016   3.756  0.1240  0.0991 -0.2042
76359W        W19297   3.008   0.354   6.416  0.0486 -0.0177 -0.2399
76360W        W19298   4.829  33.658   6.623 -0.0598 -0.0058  0.2974
76361W        W19299   5.711  32.266   3.667 -0.0319  0.1047 -0.0395
76362W        W19300   7.730  33.872   5.988  0.3328 -0.1005  0.0330
76363W        W19301   5.796  32.895   5.864 -0.0774  0.0870  0.1222
76364W        W19302   6.632  32.168   7.563  0.0785 -0.0983 -0.1126
76365W        W19303   8.464   0.455   3.718 -0.1063 -0.1636 -0.1659
76366W        W19304   6.207  33.064   6.111  0.1234 -0.0035 -0.0039
76367W        W19305   2.750  33.807   5.380 -0.2150  0.1585 -0.3254
76368W        W19306   7.430  33.450   3.616 -0.3140 -0.2370  0.0756
76369W        W19307   4.031  33.940   5.583 -0.3274  0.0643  0.0275
76370W        W19308   7.033  32.964   4.379 -0.1009 -0.3410 -0.3445
76371W        W19309   7.657  33.834   4.355  0.1527  0.0625 -0.0479
76372W        W19310   4.933  34.181   6.513  0.2660  0.1897  0.0727
76373W        W19311   4.178  33.683   4.482 -0.2126 -0.1319  0.2083
76374W        W19312   4.487  33.076   7.659  0.3518 -0.0509 -0.2385
76375W        W19313   3.358  34.542   5.888 -0.0498 -0.3312 -0.0460
76376W        W19314   5.587  34.545   7.774 -0.1437 -0.1887 -0.1002
76377W        W19315   5.053  32.208   4.387 -0.1032  0.0024  0.1072
76378W        W19316   6.567  33.656   4.652  0.1985  0.0030 -0.0718
76379W        W19317   5.854  34.265   4.833 -0.0819 -0.2927  0.2636
76380W        W19318   5.988  33.231   7.870 -0.2440  0.1801  0.1201
76381W        W19319   4.630  34.251   6.131 -0.1464 -0.0415 -0.0552
76382W        W19320   2.853  32.440   4.615  0.0380 -0.0693 -0.0744
76383W        W19321   5.402  34.550   3.956 -0.2592  0.1526 -0.3505
76384W        W19322   5.789  32.643   6.945 -0.0278 -0.1406  0.0075
76385W        W19323   6.752  33.742   5.123  0.3189 -0.0634  0.1354
76386W        W19324   5.236  33.485   3.396 -0.0694 -0.1349  0.0096
76387W        W19325   4.622  34.554   3.214 -0.0833  0.0900  0.2038
76388W        W19326   7.525  33.555   5.626 -0.1874  0.0523 -0.2549
76389W        W19327   3.302  33.845   6.439  0.1508  0.1339  0.1025
76390W        W19328   6.217  33.393   6.508 -0.3282  0.0319 -0.3707
76391W        W19329   5.516  34.053   4.585 -0.3299 -0.1914  0.5460
76392W        W19330   5.906  32.871   3.770 -0.5834  0.0186  0.1202
76393W        W19331   7.924  33.837   3.962 -0.1039  0.1618  0.1195
76394W        W19332   5.475  33.518   2.944  0.0225  0.3632 -0.0887
76395W        W19333   5.617  34.063   2.828  0.1273  0.1538  0.0914
76396W        W19334   5.882  33.581   3.246 -0.2213  0.0271 -0.1414
76397W        W19335   5.540  32.979   5.442 -0.1268 -0.0825  0.0312
76398W        W19336   5.616   0.019   3.514  0.1175 -0.3363 -0.0109
76399W        W19337   6.471  32.092   4.375 -0.0950  0.0602  0.0645
76400W        W19338   6.878  33.317   5.310 -0.1124  0.0477  0.2152
76401W        W19339   5.434  32.093   5.653  0.1288  0.4434 -0.0725
76402W        W19340   5.291  32.830   6.111 -0.1899 -0.4416 -0.1399
76403W        W19341   6.588  33.914   6.423 -0.0839  0.2348  0.2618
76404W        W19342   6.727  34.298   4.409 -0.1438  0.0203 -0.1130
76405W        W19343   7.227  33.874   5.113 -0.0399 -0.0925  0.0573
76406W        W19344   5.017  34.440   2.794  0.0309 -0.0223  0.0706
76407W        W19345   6.393  33.551   6.069 -0.1228 -0.0466  0.1870
76408W        W19346   5.418  33.153   8.016  0.1469  0.3097  0.0566
76409W        W19347   6.239  32.574   4.462 -0.0848  0.0489 -0.3410
76410W        W19348   4.838  33.506   5.111 -0.2020 -0.1181 -0.2773
76411W        W19349   6.913  33.288   7.769  0.0977  0.0633 -0.1473
76412W        W19350   5.282   0.398   5.020 -0.2919  0.2222  0.1554
76413W        W19351   6.202  33.010   4.180 -0.3072  0.0450  0.2687
76414W        W19352   6.422  33.193   5.100 -0.0460  0.0867  0.0141
76415W        W19353   5.219  33.290   4.913 -0.1907 -0.0818 -0.0817
76416W        W19354   5.269  32.072   6.268  0.0690  0.2430 -0.1534
76417W        W19355   6.844   0.111   6.503  0.0022 -0.0126 -0.1718
76418W        W19356   7.184  33.175   3.943  0.0840  0.0137  0.2461
76419W        W19357   5.620  34.582   7.245  0.0522 -0.0954  0.1408
76420W        W19358   3.203  34.197   4.093 -0.1231 -0.1693 -0.1276
76421W        W19359   7.110  33.237   6.674 -0.0565  0.1164 -0.2639
76422W        W19360   6.086  32.974   4.755 -0.0960 -0.0493  0.2219
76423W        W19361   4.462   0.384   4.016  0.0900 -0.0056 -0.0742
76424W        W19362   5.626  32.416   6.015 -0.2731 -0.0928  0.1731
76425W        W19363   4.148  34.201   4.734  0.0560  0.1851 -0.0593
76426W        W19364   4.962  34.381   4.912  0.0430 -0.0096 -0.0366
76427W        W19365   5.791  34.692   6.216 -0.0835 -0.0107  0.0186
76428W        W19366   6.053  34.262   6.430 -0.0764 -0.1169  0.2713
76429W        W19367   4.928  32.135   5.864  0.2312 -0.0420 -0.2374
76430W        W19368   6.154  33.800   7.958 -0.0688 -0.0620 -0.3010
76431W        W19369   6.015  32.785   5.342 -0.1868  0.0002 -0.0071
76432W        W19370   7.211  32.506   4.175  0.0452  0.1686 -0.0832
76433W        W19371   6.115  33.790   5.719 -0.0775 -0.0012  0.1046
76434W        W19372   8.874  32.880   5.902 -0.1620 -0.1819  0.2689
76435W        W19373   5.872  34.433   3.864  0.0768 -0.1599  0.1881
76436W        W19374   6.378  32.080   8.442  0.1115  0.1778  0.1116
76437W        W19375   5.438  33.781   5.728 -0.0060  0.1694 -0.0188
76438W        W19376   4.937   0.008   7.004  0.2944  0.3304 -0.0883
76439W        W19377   4.558  34.533   7.536  0.0751 -0.2165  0.1494
76440W        W19378   6.057  33.654   4.631 -0.0480  0.0157 -0.0539
76441W        W19379   5.392  33.557   4.551  0.1834  0.3243 -0.0856
76442W        W19380   5.611   0.160   5.749 -0.0907  0.0546  0.0874
76443W        W19381   6.660  33.153   5.808 -0.0445  0.0107 -0.1234
76444W        W19382   4.246   0.854   5.336 -0.1209  0.1176 -0.1034
76445W        W19383   5.552  32.626   3.958  0.1608 -0.0609  0.4108
76446W        W19384   4.911  32.955   5.625 -0.2355 -0.2715  0.0275
76447W        W19385   6.269  32.696   5.729  0.0549 -0.0012  0.1268
76448W        W19386   6.515  32.934   7.700  0.0996  0.0239 -0.0627
76449W        W19387   5.843  33.431   6.839 -0.0962  0.1637 -0.0120
76450W        W19388   4.197  33.004   6.658  0.4419 -0.1224 -0.0611
76451W        W19389   6.939  33.536   3.684  0.0233  0.0533 -0.1815
76452W        W19390   6.872  33.525   6.229  0.1205 -0.1582  0.0772
76453W        W19391   7.302  33.704   4.039 -0.4111 -0.1004 -0.1223
76454W        W19392   4.546  34.483   4.430 -0.0736  0.1520 -0.0064
76455W        W19393   5.692   0.686   8.483 -0.0814 -0.0580  0.3757
76456W        W19394   4.891  33.180   4.215  0.0691  0.3018  0.0406
76457W        W19395   6.626  33.757   7.159 -0.3087 -0.2118 -0.0939
76458W        W19396   6.193  33.698   5.173  0.1576 -0.1755  0.1094
76459W        W19397   3.156  32.871   4.577 -0.0120  0.3255 -0.1806
76460W        W19398   5.494   0.228   2.977 -0.0496  0.1416  0.2275
76461W        W19399   6.585   0.406   3.388  0.0225  0.0865  0.2320
76462W        W19400   5.752  32.306   3.055  0.3493  0.3514  0.0043
76463W        W19401   7.461  33.353   6.077  0.0356 -0.2415  0.1305
76464W        W19402   5.923  32.734   6.375 -0.0901 -0.0183  0.1977
76465W        W19403   5.292  32.593   5.685 -0.0098  0.3034  0.0023
76466W        W19404   6.072  33.016   6.745 -0.4688  0.3225  0.1614
76467W        W19405   6.395  34.134   5.356 -0.2283  0.1485 -0.1515
76468W        W19406   7.447  34.026   7.302 -0.1076 -0.1090 -0.0847
76469W        W19407   4.331   0.162   6.849  0.0293 -0.2508  0.1061
76470W        W19408   4.473  33.340   6.895 -0.2079  0.0158 -0.0867
76471W        W19409   6.469  32.714   4.886 -0.2128 -0.3470 -0.2155
76472W        W19410   5.691  33.108   3.313  0.1065  0.1203  0.1988
76473W        W19411   6.698  33.867   4.059  0.1577 -0.2030 -0.1484
76474W        W19412   6.977  34.535   6.062 -0.0039 -0.0534  0.0923
76475W        W19413   7.520  32.861   4.311  0.0092  0.2609  0.1303
76476W        W19414   5.078   0.582   6.500  0.1850 -0.0216 -0.0444
76477W        W19415   5.368  33.451   4.071 -0.1871 -0.0628  0.1935
76478W        W19416   5.510  33.044   7.535 -0.1612  0.0659 -0.0119
76479W        W19417   8.555  33.267   6.888  0.2005  0.0832  0.0611
76480W        W19418   3.566  33.119   4.144  0.2702  0.1600  0.1859
76481W        W19419   4.127  34.304   5.881 -0.2101  0.0958  0.1047
76482W        W19420   8.520  31.665   7.183 -0.0612 -0.1347 -0.1722
76483W        W19421   6.871  33.491   4.325  0.2060  0.2463  0.0422
76484W        W19422   3.197  33.552   3.071  0.1879 -0.0945 -0.1941
76485W        W19423   7.074  33.929   4.427  0.2633  0.0324 -0.1751
76486W        W19424   5.879  33.440   5.983 -0.1575 -0.0987  0.1769
76487W        W19425   7.078  32.950   6.123  0.2976 -0.0389 -0.1331
76488W        W19426   5.116  34.499   3.560 -0.1257 -0.0663 -0.1964
76489W        W19427   7.061  33.495   4.845  0.1186  0.1100  0.2640
76490W        W19428   4.661  34.580   6.605 -0.0154 -0.1385 -0.1587
76491W        W19429   5.065  33.810   3.781 -0.2463 -0.1468 -0.0660
76492W        W19430   7.312  33.652   6.456 -0.4177  0.0909  0.2853
76493W        W19431   6.140  32.652   2.965 -0.3680 -0.2398  0.1680
76494W        W19432   3.920  34.174   6.694  0.0578  0.1924  0.0468
76495W        W19433   6.059  33.921   3.848 -0.0283 -0.0642 -0.1398
76496W        W19434   4.828  33.508   4.620  0.0328  0.1370 -0.2809
76497W        W19435   5.289  33.319   5.700  0.2587  0.1276 -0.3972
76498W        W19436   3.237  32.530   5.621 -0.1532  0.2572  0.0158
76499W        W19437   7.964  34.136   6.459  0.3945  0.0732  0.0755
76500W        W19438   7.369  33.214   5.204  0.2154 -0.2025 -0.0835
76501W        W19439   2.868  33.209   5.640  0.4321 -0.0262 -0.3353
76502W        W19440   5.335  33.020   3.719 -0.1007  0.1936 -0.0924
76503W        W19441   5.398  34.201   5.092  0.1128 -0.1227  0.3497
76504W        W19442   6.736  33.515   6.700 -0.1838  0.0897 -0.1848
76505W        W19443   7.593  33.064   7.057 -0.2489  0.0766  0.3170
76506W        W19444   6.957  32.747   7.646  0.0594  0.1137  0.2295
76507W        W19445   5.048  33.890   4.327 -0.0172 -0.0847 -0.1730
76508W        W19446   5.894  33.281   5.063 -0.0145  0.2374 -0.0766
76509W        W19447   6.751  34.284   4.971  0.1795 -0.2958  0.1566
76510W        W19448   6.185  32.001   3.542 -0.0512 -0.0536 -0.0089
76511W        W19449   5.792  33.684   7.630 -0.3385  0.0207  0.1125
76512W        W19450   4.684  34.038   4.603 -0.0384  0.0761  0.1668
76513W        W19451   6.291  32.056   6.484 -0.0254  0.0057 -0.3561
76514W        W19452   4.347  33.370   4.897 -0.1651 -0.0369 -0.0570
76515W        W19453   3.800   0.471   4.718 -0.3087 -0.1172 -0.1445
76516W        W19454   4.416  32.861   3.454  0.0259 -0.0623  0.0102
76517W        W19455   4.507  32.452   7.065  0.0591  0.0703  0.1212
76518W        W19456   3.161  33.834   5.019  0.3399 -0.1674 -0.0299
76519W        W19457   6.618  31.768   3.780 -0.0777 -0.0137  0.3339
76520W        W19458   6.569  34.666   7.544 -0.0099 -0.2799 -0.1343
76521W        W19459   4.973  32.157   7.234  0.0613 -0.0075  0.0209
76522W        W19460   3.624  33.679   4.676 -0.0817  0.0633 -0.3142
76523W        W19461   4.999  34.024   5.351 -0.1695 -0.3137  0.1978
76524W        W19462   4.613  33.875   7.039  0.1854  0.1408 -0.0357
76525W        W19463   7.344  32.471   4.650 -0.1130  0.0154 -0.0780
76526W        W19464   5.753  34.490   4.403  0.2892  0.0133  0.1037
76527W        W19465   3.426  32.773   6.707  0.0180  0.2682 -0.1935
76528W        W19466   6.679  32.693   4.210  0.2352  0.2184 -0.0561
76529W        W19467   6.524  32.511   3.375  0.1486 -0.1700  0.5412
76530W        W19468   5.073  33.940   6.080 -0.4232  0.2138 -0.0242
76531W        W19469   5.887   0.215   4.924 -0.0897  0.0546  0.2912
76532W        W19470   6.653   0.860   6.989 -0.0780  0.1745  0.0290
76533W        W19471   5.817  33.608   4.181 -0.0129  0.0497 -0.0608
76534W        W19472   7.355  33.399   4.404  0.1165 -0.2062  0.2416
76535W        W19473   3.648  34.190   6.274  0.2829  0.3175 -0.0846
76536W        W19474   4.228  34.175   4.226 -0.0561 -0.4317 -0.0632
76537W        W19475   6.740   0.427   3.857 -0.0697  0.1327 -0.3975
76538W        W19476   6.996  33.628   5.716 -0.0913  0.3649 -0.0376
76539W        W19477   4.545  33.753   6.193  0.1985  0.1911 -0.1586
76540W        W19478   5.355  32.956   2.953  0.0483 -0.1536 -0.0548
76541W        W19479   4.034  34.275   7.730  0.3684 -0.0588  0.0876
76542W        W19480   5.729  34.029   7.131 -0.4509  0.0134  0.3446
76543W        W19481   6.413  33.148   8.582 -0.1438 -0.2506 -0.2007
76544W        W19482   3.632  32.437   8.621 -0.2398 -0.0810  0.0748
76545W        W19483   5.544   0.210   8.646 -0.0726  0.3450 -0.1019
76546W        W19484   6.139   0.252   9.343  0.3636 -0.0469 -0.0520
76547W        W19485   5.117  33.444   8.303  0.3816 -0.1567  0.1333
76548W        W19486   2.214  30.995   9.548  0.0630 -0.2679 -0.1277
76549W        W19487   4.912  34.657   9.085  0.3038 -0.1406  0.0402
76550W        W19488   3.913   0.335   7.681 -0.1683 -0.0414 -0.0508
76551W        W19489   4.323  34.531   9.494 -0.0929 -0.4363 -0.0703
76552W        W19490   4.221  31.884   9.575 -0.1505 -0.0146  0.1700
76553W        W19491   8.739  34.425   9.963  0.0061  0.0751  0.0051
76554W        W19492   4.149  33.744   6.872 -0.1348  0.1484 -0.3329
76555W        W19493   2.902  32.419   9.731 -0.0343 -0.1822 -0.2255
76556W        W19494   2.917  33.175   9.892 -0.1665 -0.2174 -0.0447
76557W        W19495   4.819  32.564   9.504 -0.2923  0.3294  0.1141
76558W        W19496   5.348   0.818   8.885 -0.3385  0.0828 -0.0263
76559W        W19497   5.505  33.730   9.208  0.0487  0.1570 -0.0183
76560W        W19498   6.128   0.803   9.336 -0.1337  0.0582 -0.3415
76561W        W19499   6.070  32.372   8.197  0.1107 -0.1751  0.3196
76562W        W19500   4.942  33.442   6.072  0.2329 -0.1183 -0.0003
76563W        W19501   5.526  33.560   8.553 -0.1197  0.3616  0.0846
76564W        W19502   5.348  31.483   8.806 -0.1130 -0.1499 -0.0983
76565W        W19503   5.542   0.988  11.971 -0.0707  0.1189  0.7025
76566W        W19504   5.047  34.215   7.832 -0.3418 -0.0858  0.0126
76567W        W19505   5.304  34.199   9.312 -0.0310  0.1618  0.2642
76568W        W19506   3.701  33.216   9.647  0.2818  0.0301  0.0466
76569W        W19507   4.691   0.819   7.588  0.2986 -0.1227  0.1435
76570W        W19508   4.775  32.689   7.495 -0.0093 -0.0168 -0.3518
76571W        W19509   7.111  33.181   8.313  0.0446  0.3076  0.1209
76572W        W19510   5.970  31.405   7.619 -0.1956  0.0926  0.1375
76573W        W19511   4.891  33.054   8.661 -0.2197  0.1615  0.1071
76574W        W19512   7.452  34.424   7.835 -0.1010  0.0601 -0.1839
76575W        W19513   4.606  32.656  10.015  0.1508  0.1733  0.3695
76576W        W19514   6.859  31.983   8.523  0.0279 -0.1949 -0.2936
76577W        W19515   8.528  33.677   8.589  0.1394  0.0177  0.0805
76578W        W19516   4.855  34.388   8.269  0.0576  0.3315  0.2417
76579W        W19517   3.861  32.253   9.715 -0.2199  0.3927  0.1433
76580W        W19518   5.456  31.949   9.070  0.0237  0.0294 -0.1439
76581W        W19519   4.181  31.356   8.430  0.1642  0.1225 -0.0311
76582W        W19520   5.198  32.454   9.151  0.0151  0.2992 -0.2278
76583W        W19521   5.915  34.279   9.139 -0.1827  0.2749  0.0704
76584W        W19522   3.193  33.718   8.860  0.0948  0.1706 -0.0952
76585W        W19523   4.629  33.689   9.963  0.0437 -0.1056 -0.0615
76586W        W19524   4.066  33.365   7.265  0.3284 -0.0416  0.3433
76587W        W19525   4.719  31.254   9.182 -0.2612  0.1793  0.2352
76588W        W19526   6.310   0.596   9.700  0.1838  0.4001 -0.0378
76589W        W19527   4.981  33.456   7.022  0.1350  0.1380  0.0503
76590W        W19528   3.820  33.692   8.395 -0.5246 -0.1623 -0.0236
76591W        W19529   6.308  32.979   9.552  0.1989 -0.0663  0.2991
76592W        W19530   3.657  34.386   7.347  0.0761  0.1664  0.0881
76593W        W19531   5.909  33.203   8.808  0.2570 -0.0966  0.0934
76594W        W19532   6.337  32.950   9.025  0.0949 -0.1077 -0.1162
76595W        W19533   5.893  33.209   7.261 -0.1180 -0.0146  0.0777
76596W        W19534   5.746  32.762   7.922  0.0950  0.3939  0.1077
76597W        W19535   4.974  32.939   8.097  0.2362  0.2386  0.3566
76598W        W19536   5.855  33.030   9.767  0.3559 -0.1193 -0.0449
76599W        W19537   5.748  33.203   6.369 -0.1311 -0.1765 -0.1346
76600W        W19538   5.187  32.516   8.655 -0.3355 -0.1594  0.1333
76601W        W19539   5.952  33.805   8.876  0.1303 -0.4798 -0.3688
76602W        W19540   4.282  33.174   9.858 -0.0109 -0.0414 -0.1516
76603W        W19541   6.370  33.587   8.904 -0.2719  0.0530 -0.0163
76604W        W19542   6.705  33.385   9.940  0.3193 -0.0165 -0.0472
76605W        W19543   5.031  32.871   5.166  0.1368  0.0019  0.0770
76606W        W19544   7.078  31.906   9.614  0.0063  0.1533  0.0963
76607W        W19545   5.915  32.855   9.241 -0.1061 -0.2292 -0.0973
76608W        W19546   5.061  30.500   9.785  0.2247  0.1628 -0.0235
76609W        W19547   6.759  32.908   8.146  0.3754  0.2217  0.1920
76610W        W19548   3.966  31.923   9.161  0.3628  0.0509  0.1034
76611W        W19549   3.216   0.104   8.326 -0.1266  0.4256  0.1315
76612W        W19550   6.160  31.943   9.361  0.0007  0.1237  0.1585
76613W        W19551   4.202  30.837   8.452  0.0996  0.1049  0.1327
76614W        W19552   5.587  32.633   8.402  0.2110 -0.0108 -0.1253
76615W        W19553   5.435  33.058   8.701 -0.1979  0.1502 -0.0794
76616W        W19554   3.142  33.572   7.728  0.0546 -0.0427 -0.1444
76617W        W19555   6.819  33.218  10.397  0.0016 -0.0083  0.0745
76618W        W19556   5.773  33.847   9.984 -0.1019  0.1010 -0.3535
76619W        W19557   4.735   0.200   6.139  0.4230  0.0298  0.0294
76620W        W19558   7.491   0.772   9.091  0.0955 -0.1501 -0.1496
76621W        W19559   5.640  31.840   9.543  0.1659  0.0259  0.0572
76622W        W19560   4.180  33.896   8.853 -0.0653  0.0886  0.2755
76623W        W19561   6.121  32.124   9.845  0.2366 -0.0272  0.1826
76624W        W19562   6.976  32.441   9.861  0.0598  0.1379  0.2672
76625W        W19563   4.819  31.680   8.776 -0.0185 -0.5535 -0.2788
76626W        W19564   2.786  34.189   9.544 -0.3163 -0.0665  0.2836
76627W        W19565   6.483  31.574   7.735 -0.4246 -0.0184  0.2857
76628W        W19566   6.108  33.445   9.856 -0.1653 -0.0048 -0.1910
76629W        W19567   4.824  33.425   7.920 -0.1787 -0.4926 -0.1404
76630W        W19568   4.533   0.891  10.150  0.1732 -0.1432 -0.1234
76631W        W19569   4.503  33.420   8.903  0.4809  0.0608 -0.1129
76632W        W19570   4.505  33.151   8.251 -0.2251 -0.2652  0.0448
76633W        W19571   3.603  34.051   8.735  0.1409  0.1225 -0.2023
76634W        W19572   6.181  32.507  10.215 -0.0966 -0.0141  0.1052
76635W        W19573   4.133   0.524   8.271 -0.2571 -0.0548 -0.0053
76636W        W19574   4.567  33.584   9.441 -0.1224  0.1401  0.0639
76637W        W19575   4.534  34.265   9.045  0.0356 -0.1684  0.0240
76638W        W19576   6.487  34.209   6.797  0.0897  0.0285 -0.1869
76639W        W19577   5.513  32.709   9.516 -0.0790 -0.0366  0.1837
76640W        W19578   6.384  33.024  10.018 -0.4049 -0.1992 -0.0369
76641W        W19579   5.004  34.266   8.705  0.1062 -0.0692 -0.2657
76642W        W19580   4.569  33.041   9.247  0.0300 -0.0838 -0.3086
76643W        W19581   5.451  33.552   6.140 -0.0706 -0.2653 -0.0527
76644W        W19582   6.375  34.060   8.781  0.2515 -0.1452  0.2732
76645W        W19583   4.788  32.659   8.927  0.5119 -0.0669 -0.1132
76646W        W19584   4.781  32.852   6.085  0.0818  0.2698 -0.0737
76647W        W19585   5.378  33.473   6.642 -0.3633  0.0243  0.1665
76648W        W19586   5.445  31.324   7.927 -0.1325 -0.2137  0.0385
76649W        W19587   5.094  31.557   9.293  0.0436  0.1117  0.0213
76650W        W19588   5.278  34.679   9.508  0.2049  0.1359 -0.2319
76651W        W19589   7.381  33.269   8.836  0.0496 -0.2955  0.4511
76652W        W19590   7.331   0.812   9.647  0.2664  0.1422 -0.1738
76653W        W19591   5.174  34.098  10.401  0.4988 -0.0977 -0.2058
76654W        W19592   4.755  33.896   8.113  0.3147 -0.4793  0.0738
76655W        W19593   5.559  32.088   8.172  0.1854 -0.0515 -0.0576
76656W        W19594   7.396  32.490   8.940  0.0547 -0.2272 -0.0130
76657W        W19595   6.338  33.888   9.855 -0.0458 -0.2714 -0.1084
76658W        W19596   5.375  33.514   9.956 -0.0791 -0.5306 -0.1456
76659W        W19597   4.954   1.224   9.680 -0.0923  0.3005 -0.3949
76660W        W19598   5.015  33.799   7.457  0.1140 -0.1399 -0.2068
76661W        W19599   4.052  34.677   7.339 -0.2845 -0.0365 -0.0291
76662W        W19600   3.440   0.187   9.415 -0.0729  0.0949  0.2525
76663W        W19601   7.545  33.120   9.326  0.3980 -0.0934 -0.2459
76664W        W19602   4.854  33.720   8.639  0.0046 -0.0599  0.2342
76665W        W19603   4.792  32.488   7.930 -0.1523  0.0747  0.1828
76666W        W19604   7.933  34.448   8.799 -0.1419  0.0436  0.1094
76667W        W19605   6.336  32.513   9.305  0.0462 -0.0432 -0.0862
76668W        W19606   4.194  33.892   8.024 -0.0105 -0.2692 -0.0508
76669W        W19607   5.480  34.473   8.279  0.3113 -0.2393  0.0472
76670W        W19608   2.711   0.145   8.570  0.1183  0.1622  0.2216
76671W        W19609   5.012  33.192   7.495 -0.1693 -0.1005  0.0663
76672W        W19610   6.649  33.806   7.733  0.1177 -0.0376  0.0389
76673W        W19611   3.255  32.820   9.877  0.2743  0.1956  0.0343
76674W        W19612   5.248  33.959   8.324 -0.1111 -0.0062  0.3591
76675W        W19613   4.471   0.104   8.226 -0.0436  0.1128 -0.0750
76676W        W19614   5.072   1.659  10.500  0.0114 -0.0213 -0.2281
76677W        W19615   4.357  33.663   8.465  0.1711 -0.0343  0.0371
76678W        W19616   4.008  33.603   9.718  0.0928  0.2223 -0.1593
76679W        W19617   6.714   0.279   8.788 -0.3996  0.0664  0.0343
76680W        W19618   3.539  32.868   9.302 -0.1406  0.0590 -0.2159
76681W        W19619   4.807  32.152   9.115 -0.1264 -0.0836 -0.2880
76682W        W19620   3.701  33.810   9.404  0.0582  0.0093 -0.0516
76683W        W19621   6.679  32.570  10.303 -0.0758 -0.1247  0.3638
76684W        W19622   4.430  34.319   8.054  0.1406 -0.0713  0.3646
76685W        W19623   5.108  33.959   9.747 -0.3338 -0.0497  0.0641
76686W        W19624   7.010  32.468   8.526 -0.0714 -0.2948  0.0799
76687W        W19625   4.811  32.190   8.395  0.2773  0.1569  0.1276
76688W        W19626   4.919  33.887   9.125 -0.1784 -0.4346  0.3802
76689W        W19627   2.819   0.958   7.560 -0.1580 -0.2593  0.2276
76690W        W19628   2.660   0.434   9.394  0.0865 -0.1099  0.1598
76691W        W19629   3.415  33.381   8.487  0.1103 -0.2180 -0.0623
76692W        W19630   5.795  31.508   9.115  0.0727  0.0272  0.1064
76693W        W19631   4.379  32.401   9.362  0.0421 -0.0210 -0.3648
76694W        W19632   4.643  32.673   8.396  0.0748 -0.0376 -0.0212
76695W        W19633   3.657  32.945   8.179  0.2637  0.4633  0.4514
76696W        W19634   6.029  33.422   9.265  0.3670  0.1270 -0.0786
76697W        W19635   6.988   1.100  10.404  0.2240  0.1656 -0.0483
76698W        W19636   7.036  33.265   9.545 -0.0691  0.1452  0.0160
76699W        W19637   5.457  33.130   7.026  0.0380 -0.3845  0.0391
76700W        W19638   4.103  32.169   7.822  0.2196  0.0449 -0.1195
76701W        W19639   5.188  33.431   8.920  0.1256  0.3000 -0.0310
76702W        W19640   4.163  34.037   9.408 -0.0417  0.1638 -0.2842
76703W        W19641   5.981  32.770   8.612  0.0235  0.2084 -0.0548
76704W        W19642   5.230  32.402   8.194 -0.1039 -0.1022 -0.0780
76705W        W19643   8.276  34.441   7.338 -0.4451 -0.0397  0.2348
76706W        W19644   4.293  31.528   8.875  0.1120  0.1637  0.0170
76707W        W19645   4.479  33.980   7.601 -0.1580  0.1801  0.1312
76708W        W19646   4.481   0.450   8.615 -0.1981 -0.1010 -0.0567
76709W        W19647   6.876  32.931   9.952 -0.0828  0.1695 -0.0395
76710W        W19648   5.612  32.575   8.910  0.2354  0.1110 -0.0159
76711W        W19649   5.230  32.721   7.756  0.0027 -0.1011 -0.1050
76712W        W19650   8.762   2.732   0.702 -0.0889  0.1142 -0.3426
76713W        W19651   7.900   1.483   1.327  0.1599  0.3166 -0.1022
76714W        W19652  10.583   1.489  31.882 -0.0379 -0.1700  0.1270
76715W        W19653  13.469   2.685  31.773  0.2948  0.0468 -0.0907
76716W        W19654   8.801   1.187   1.641  0.3945 -0.5322 -0.2861
76717W        W19655  10.710   1.178   0.834  0.2362  0.2201 -0.0916
76718W        W19656   8.157  33.235   2.674  0.1271  0.2300 -0.0149
76719W        W19657   9.738   2.693   1.859 -0.1337  0.1666  0.1732
76720W        W19658  11.144   3.143   2.357 -0.2550 -0.1927 -0.0502
76721W        W19659  10.088   1.472   0.032 -0.0771 -0.0759  0.2740
76722W        W19660   9.566   1.604   3.320  0.4132  0.5360  0.0545
76723W        W19661   8.476   2.906   2.524  0.1271  0.2537  0.5138
76724W        W19662   8.158   0.170   0.367 -0.0858 -0.1479 -0.1385
76725W        W19663   8.943   0.264   2.040  0.1691  0.1399 -0.0334
76726W        W19664  10.590   3.595   2.160 -0.0217  0.0893  0.0224
76727W        W19665   8.042   1.865  31.823 -0.0442  0.1036 -0.1198
76728W        W19666   9.590   1.590   1.816 -0.0500 -0.0235  0.0452
76729W        W19667  10.273   0.907   0.784  0.0344  0.2230 -0.5456
76730W        W19668   8.645   3.747  31.932  0.2341  0.0809 -0.4718
76731W        W19669   8.679  34.618   3.164  0.2217  0.0749 -0.3177
76732W        W19670   9.529  34.338   4.441 -0.1431  0.1979 -0.0402
76733W        W19671   7.643   2.611   2.208 -0.0345  0.1000  0.1903
76734W        W19672   8.217   0.283  31.863 -0.2410 -0.0105 -0.1044
76735W        W19673   6.570   1.332   2.651  0.3248  0.0404  0.0528
76736W        W19674   8.095   2.206   2.373  0.2168  0.1051  0.0490
76737W        W19675  10.131   1.470   1.967  0.2863  0.0929  0.1566
76738W        W19676  11.309   3.226   1.302  0.3696  0.0009 -0.0152
76739W        W19677   9.180   3.130   0.629  0.1398  0.5338  0.0446
76740W        W19678   8.817   3.010   1.870  0.0447 -0.0915 -0.0632
76741W        W19679  11.169   1.122   3.879 -0.0102  0.3407  0.3245
76742W        W19680   7.100   0.582   1.225  0.2944  0.4223  0.2681
76743W        W19681   7.486   4.755   1.838  0.0285 -0.1237  0.2617
76744W        W19682   7.154   2.615   0.921  0.1950 -0.2224  0.2683
76745W        W19683  10.160   3.269   0.279  0.1016 -0.1384  0.0918
76746W        W19684   9.183   3.021   3.355  0.0032  0.0254  0.0683
76747W        W19685   7.994   3.328   4.277  0.0670  0.2462 -0.4587
76748W        W19686   7.931   4.707  31.856  0.0941  0.0476  0.1675
76749W        W19687   7.733   3.251   3.277 -0.3036 -0.1428 -0.3221
76750W        W19688   8.299   3.481   3.774  0.0345 -0.1044  0.0128
76751W        W19689   9.234   1.997   2.945  0.4486  0.2318  0.3479
76752W        W19690   9.204   1.210   1.950 -0.6162 -0.0372  0.1129
76753W        W19691   9.455   3.601   1.320  0.1470 -0.3063  0.0352
76754W        W19692   8.269   2.805   0.811  0.0173 -0.2005  0.0283
76755W        W19693   8.100   2.842   2.141 -0.2336 -0.1556 -0.3262
76756W        W19694   6.086   1.930   2.808 -0.2342  0.0501 -0.1458
76757W        W19695  11.537   1.540   3.778  0.1294  0.0154  0.2932
76758W        W19696   7.027   1.872   1.368 -0.0108 -0.0746 -0.2095
76759W        W19697  10.491  34.519   0.985  0.3248 -0.3013  0.1293
76760W        W19698   8.703   2.039   1.119 -0.2041  0.2849 -0.3055
76761W        W19699   9.831   0.190   1.040 -0.0148 -0.1761 -0.3155
76762W        W19700   9.439  34.319   1.889 -0.3297  0.1181 -0.1988
76763W        W19701   7.537   3.506   1.360  0.0812 -0.3051  0.1696
76764W        W19702   9.936   0.710   3.023 -0.3296  0.0066  0.1444
76765W        W19703   9.101   3.024   2.768 -0.0686 -0.1808  0.2501
76766W        W19704   9.879   0.473   1.858  0.1271  0.1436 -0.1065
76767W        W19705   9.828   2.434   3.391 -0.0728  0.1414  0.3311
76768W        W19706   7.844   3.654   2.406 -0.0675 -0.0383 -0.0146
76769W        W19707   8.951  34.089   1.869 -0.0081 -0.0401  0.1022
76770W        W19708  10.038   3.998   0.552 -0.0955 -0.4141 -0.1315
76771W        W19709  10.607   4.287  31.855  0.1437  0.2031  0.1403
76772W        W19710   8.776   2.895  31.640  0.0689 -0.1442 -0.0567
76773W        W19711   9.681   2.250   1.688 -0.1662  0.2678 -0.0028
76774W        W19712   8.707   2.071   2.991  0.2295 -0.1928 -0.0282
76775W        W19713   8.373   1.215   3.006 -0.1952 -0.1344  0.0652
76776W        W19714   8.799   1.245   0.623 -0.4818 -0.0361 -0.1990
76777W        W19715  11.080   2.814   3.143 -0.1248 -0.0708 -0.2979
76778W        W19716   7.128   1.641   4.363 -0.2883  0.1548 -0.5782
76779W        W19717  11.253   2.741   0.483 -0.1601 -0.1365  0.0743
76780W        W19718   8.956   2.203   2.101 -0.1296 -0.1582 -0.1900
76781W        W19719  10.973   3.569   1.431  0.3296 -0.3850 -0.1665
76782W        W19720  11.122   1.083   0.347  0.0698  0.1395 -0.0960
76783W        W19721  11.550   0.419   2.872  0.1439 -0.0823  0.2183
76784W        W19722   9.565  34.013   3.367  0.1752  0.1070 -0.2077
76785W        W19723   7.595   2.003  30.831 -0.0103 -0.0231  0.3746
76786W        W19724   9.208   2.563   0.484  0.0953 -0.2562  0.1384
76787W        W19725  10.252   2.472   3.020  0.0971  0.0130  0.2956
76788W        W19726  11.725   0.154   0.006  0.1022 -0.0879  0.0501
76789W        W19727   7.567   2.791   1.341  0.2704  0.1230  0.0813
76790W        W19728   9.043   1.718   2.001  0.0607  0.0514 -0.2357
76791W        W19729  10.622   2.514   1.951 -0.1394 -0.0964 -0.3744
76792W        W19730   7.726   4.501   0.781  0.1200 -0.0969 -0.1798
76793W        W19731   7.149   2.101   2.771  0.2062  0.0514  0.0254
76794W        W19732   7.744   2.631   0.095 -0.0190 -0.0805  0.0582
76795W        W19733   8.720   1.391   2.119 -0.1065 -0.0742  0.0031
76796W        W19734   8.495   1.827   2.540 -0.1331  0.0981  0.1218
76797W        W19735  10.786  34.338   1.929  0.0563  0.0390  0.0565
76798W        W19736   9.255   0.871   2.466  0.0347  0.0265 -0.0851
76799W        W19737  10.489   1.710   2.276 -0.0018  0.1292  0.0402
76800W        W19738   8.336   1.262   1.304 -0.0602 -0.0893  0.1283
76801W        W19739  10.805   4.559   2.499 -0.1244 -0.0512 -0.2221
76802W        W19740   9.912   0.930   2.137 -0.2525 -0.2278  0.4676
76803W        W19741   9.983   2.418   0.029 -0.1188  0.0256 -0.3948
76804W        W19742   7.073   1.672   1.939 -0.1605  0.0849 -0.0290
76805W        W19743   9.078  34.499   2.223  0.0413  0.1166 -0.0309
76806W        W19744   9.396   1.065   4.131 -0.0935 -0.1282  0.0940
76807W        W19745   7.500  33.869   2.346  0.0613 -0.2564 -0.2075
76808W        W19746  10.334   3.164   2.603 -0.1823  0.2117 -0.1605
76809W        W19747   7.776   0.617   1.177 -0.1067 -0.1612  0.1508
76810W        W19748  11.170   1.682   1.592  0.0109  0.2107 -0.1420
76811W        W19749   8.104   1.323   1.941 -0.2402  0.2300  0.1270
76812W        W19750   7.578   1.430   2.015 -0.2482 -0.0493  0.1429
76813W        W19751  12.261   1.271   2.364  0.0542  0.0978  0.1788
76814W        W19752   8.403   5.576  31.449 -0.0040  0.1906  0.0188
76815W        W19753  10.929   3.732   3.562 -0.1952 -0.2006  0.1427
76816W        W19754  10.027   3.864   2.053  0.2308  0.2683 -0.0622
76817W        W19755   7.779   1.770   3.879 -0.0100 -0.0284  0.2432
76818W        W19756   7.045  34.379   0.161 -0.1149  0.2408 -0.0989
76819W        W19757   8.183   3.960   2.204 -0.1489 -0.1409  0.1291
76820W        W19758   8.027   3.311   0.596  0.0628  0.1396 -0.2054
76821W        W19759   9.951  34.400   1.031  0.0110  0.1013  0.0459
76822W        W19760   9.993   5.160   2.891 -0.0631 -0.1710 -0.0784
76823W        W19761  10.498   1.723   0.708 -0.0265  0.0339  0.0544
76824W        W19762   8.339   1.673   1.596 -0.1872 -0.4008 -0.0128
76825W        W19763  11.003   1.698   3.840  0.1616  0.0971  0.0784
76826W        W19764  11.946   1.266   3.159  0.1075  0.0733 -0.2012
76827W        W19765  10.797   0.912   3.032 -0.0180  0.3358 -0.0059
76828W        W19766   6.477  34.474  31.704 -0.2761 -0.3184 -0.1169
76829W        W19767   9.712   2.854   1.062  0.3836  0.0008  0.0181
76830W        W19768   6.903   3.828   0.512  0.2213  0.1323 -0.0565
76831W        W19769   8.041   0.840   1.577  0.0217 -0.1373 -0.1813
76832W        W19770   8.608   4.192   1.393 -0.0193  0.1570  0.0941
76833W        W19771  12.453   0.821   1.564  0.1355 -0.0526 -0.0603
76834W        W19772   7.405   1.352   3.010  0.0388 -0.2658 -0.0494
76835W        W19773  10.901   2.060   2.203  0.0133  0.1846  0.4187
76836W        W19774   8.301   2.088   1.396  0.2300 -0.1633  0.2595
76837W        W19775   6.144   1.567   3.242  0.1316 -0.0940  0.1053
76838W        W19776   9.616   1.102   1.725  0.1262 -0.0341  0.0735
76839W        W19777  10.321   1.126   2.889  0.1071  0.0044 -0.1985
76840W        W19778  11.236   2.361   3.086  0.0707  0.1320 -0.1500
76841W        W19779  10.874   2.109   0.672 -0.2003 -0.1201 -0.4411
76842W        W19780   9.667   1.408   0.332  0.1840 -0.0061 -0.1676
76843W        W19781  10.117   0.819  31.155 -0.0442  0.0476  0.0242
76844W        W19782   7.029   2.540   3.593  0.1656 -0.3688 -0.1180
76845W        W19783   8.562   2.307   0.543 -0.0871 -0.0401 -0.1962
76846W        W19784   8.514   2.586   1.984  0.0586 -0.2010  0.1663
76847W        W19785   9.778  34.693  31.681 -0.1807  0.0597 -0.0933
76848W        W19786  10.653   3.121   0.531  0.2984 -0.1866  0.1495
76849W        W19787   7.397   2.627   4.020 -0.0469 -0.0170 -0.0907
76850W        W19788  10.013   2.152   3.752  0.0743  0.1370  0.0967
76851W        W19789  12.061   2.478   1.480 -0.0959 -0.0791 -0.1531
76852W        W19790   9.746   0.733   3.488  0.2035  0.3303 -0.0242
76853W        W19791   8.182   2.219   0.929 -0.1650 -0.0305  0.1913
76854W        W19792   9.453  33.823   1.826  0.1709 -0.0627  0.1200
76855W        W19793   6.619   3.274   0.338 -0.0479  0.0534  0.1334
76856W        W19794  10.694   1.199   2.576 -0.4429  0.1150  0.0394
76857W        W19795   9.253  32.827   1.160  0.1501  0.3738 -0.2695
76858W        W19796   9.255   0.739   3.367 -0.1686 -0.0157 -0.1374
76859W        W19797  11.604   2.692   3.260  0.0154  0.1498 -0.3848
76860W        W19798  10.444   1.334   1.567 -0.2249  0.0695  0.2628
76861W        W19799  10.050   2.634   1.474  0.1307  0.0150 -0.1119
76862W        W19800   8.736   1.489   0.218 -0.2172  0.0121  0.0718
76863W        W19801   9.974   1.691   3.627 -0.1957 -0.0309 -0.1732
76864W        W19802   9.534   1.373   2.835  0.1493 -0.0115  0.0247
76865W        W19803   7.368   1.807   2.307  0.3573  0.4272 -0.3356
76866W        W19804  11.176   2.248   2.611  0.1807 -0.1743 -0.3173
76867W        W19805   9.587   1.346   1.175  0.1604  0.0494 -0.1055
76868W        W19806  10.759  34.452   3.478  0.0593  0.2428  0.1524
76869W        W19807   9.954   1.022  31.619 -0.0447 -0.0872 -0.0871
76870W        W19808   8.267   4.547   0.704 -0.0560  0.5808  0.2291
76871W        W19809   8.643   4.190   0.888 -0.1658 -0.2147  0.0383
76872W        W19810   8.583  33.669   1.917  0.1826 -0.1014  0.3246
76873W        W19811  10.244   1.916   1.595  0.0485  0.1461  0.2860
76874W        W19812   7.858   5.553   0.090 -0.0331  0.2692 -0.1019
76875W        W19813   9.868   2.306   2.341  0.0316  0.0906 -0.1479
76876W        W19814   8.331   4.602   0.218 -0.0109  0.3794 -0.0055
76877W        W19815  11.222   0.691   2.248  0.3712  0.0751 -0.0645
76878W        W19816   6.792   2.955   2.443  0.1897  0.1930 -0.0617
76879W        W19817   7.267   2.204  31.854 -0.0304  0.1478 -0.0401
76880W        W19818   6.780   0.938   1.412  0.1440  0.1029 -0.2062
76881W        W19819  10.857  34.572   2.401  0.2764 -0.0746 -0.0291
76882W        W19820  11.247   1.131   0.823 -0.0701  0.2438 -0.1156
76883W        W19821   9.117   1.363   2.448  0.1511 -0.0544 -0.0046
76884W        W19822  10.722   0.193   3.185  0.3925  0.1771  0.0945
76885W        W19823   7.710   3.101   2.345 -0.0684  0.0551 -0.0153
76886W        W19824   9.982   2.909   3.225  0.1617  0.2554 -0.1445
76887W        W19825  10.379   0.591   2.013 -0.1293  0.1033 -0.0097
76888W        W19826  11.089   3.706   2.475  0.0345  0.0013 -0.0206
76889W        W19827   8.430   2.470   4.307 -0.0641  0.0202  0.2191
76890W        W19828   6.632  34.561   0.567 -0.0532 -0.2385 -0.0804
76891W        W19829  11.388   1.440   1.227  0.2272 -0.0372 -0.1403
76892W        W19830   8.278  34.693   3.534  0.2731  0.1040  0.1381
76893W        W19831   7.548   1.796   2.847 -0.1402 -0.0039 -0.2298
76894W        W19832  10.411   2.920   1.637 -0.1126 -0.1583 -0.2793
76895W        W19833   8.246   0.837   0.991  0.0826 -0.1129  0.2521
76896W        W19834   7.552   0.560   1.666  0.2445 -0.0089  0.0639
76897W        W19835   8.294   2.389   2.838  0.0280  0.1081 -0.2043
76898W        W19836  11.064   2.650   1.812 -0.1809 -0.2030 -0.1482
76899W        W19837   9.133   0.377   1.599  0.0000 -0.2264  0.0006
76900W        W19838   9.843  34.153   2.124  0.2475 -0.2153 -0.0433
76901W        W19839  10.129   1.929   2.576  0.0504 -0.3665  0.0282
76902W        W19840  11.094   3.711   3.029 -0.1615 -0.1201 -0.0577
76903W        W19841   9.680   1.829   2.713  0.2460 -0.1979  0.2868
76904W        W19842   9.169   3.462   3.009 -0.0001  0.0449  0.0223
76905W        W19843   9.487   0.316   3.327  0.4244  0.0552 -0.2833
76906W        W19844  10.113   5.245  31.799  0.0364 -0.1562  0.1487
76907W        W19845  11.175   1.861   3.002  0.0146 -0.2317  0.3642
76908W        W19846   6.868   1.896  31.910 -0.1855  0.2147  0.0834
76909W        W19847   6.931   0.951   0.961 -0.0453 -0.0943  0.2367
76910W        W19848   6.967   2.840   1.322 -0.1689  0.2527  0.0074
76911W        W19849  10.316   0.835   3.301 -0.0870 -0.0370  0.1232
76912W        W19850   6.298   2.131   2.354 -0.1943  0.2088 -0.0855
76913W        W19851   8.601   3.245   0.658  0.2620  0.1632 -0.1562
76914W        W19852   6.321   2.404   1.846  0.2222 -0.1668 -0.0413
76915W        W19853  11.191   0.658   1.705  0.0569  0.1997 -0.0798
76916W        W19854   9.799   3.027   0.595  0.1291 -0.0429  0.1749
76917W        W19855  10.424   1.140   2.099  0.0378  0.2105 -0.0620
76918W        W19856  10.875   1.412   2.180  0.1237  0.2499  0.1179
76919W        W19857   8.610   1.746   0.621 -0.2850 -0.2029  0.0718
76920W        W19858  10.787   1.594   3.318 -0.0910 -0.0553  0.0453
76921W        W19859   8.483   0.376   1.702 -0.0006 -0.0904  0.0326
76922W        W19860   9.917   1.450   1.471  0.1848  0.1785  0.1774
76923W        W19861   8.200   1.664   3.606 -0.0479 -0.1142  0.1996
76924W        W19862  10.151   3.443   2.224  0.2667  0.2551 -0.3275
76925W        W19863   9.083   0.575   2.889  0.1243  0.1971  0.0359
76926W        W19864  10.273  34.532   1.452  0.1548 -0.2211 -0.1960
76927W        W19865   7.339   0.641   0.778  0.3673 -0.1211 -0.2652
76928W        W19866   9.716   0.616   1.433 -0.1749 -0.0582  0.1634
76929W        W19867  10.473   4.145   2.192 -0.2824  0.4272 -0.0525
76930W        W19868   8.867   3.497   0.328  0.3648  0.4401 -0.0371
76931W        W19869  10.836   2.181   1.581 -0.0124  0.1117  0.0356
76932W        W19870   9.885   1.997   3.140  0.2177 -0.1790 -0.4067
76933W        W19871  10.538   1.709   1.192  0.0095  0.0352  0.0345
76934W        W19872   8.161   1.989   0.514  0.0627  0.0374 -0.0252
76935W        W19873   9.217   2.096   1.574 -0.0489 -0.0855  0.0813
76936W        W19874   9.809   1.276   4.018 -0.0015 -0.1700  0.2287
76937W        W19875   9.952   3.145   1.765 -0.0024 -0.0030 -0.1042
76938W        W19876   9.947   0.959   1.156 -0.2917 -0.1723 -0.0988
76939W        W19877  10.345   1.421   3.351 -0.1246  0.2849  0.3828
76940W        W19878  10.008   1.546   2.994  0.0893 -0.1199  0.1505
76941W        W19879   8.955   2.237   3.381 -0.0259  0.1499 -0.2306
76942W        W19880   8.397  34.199   3.459  0.0094 -0.1112 -0.0564
76943W        W19881  10.723   4.047   2.618 -0.3776  0.0929  0.0695
76944W        W19882  11.685   1.389  31.895  0.2454 -0.1678  0.0206
76945W        W19883  10.914   1.135   3.454  0.0187  0.2029  0.0581
76946W        W19884   9.921   0.434   2.397  0.2178  0.3038  0.3378
76947W        W19885  10.215   0.355   1.461  0.2102  0.3023  0.0480
76948W        W19886   8.040   0.394   2.148  0.2307 -0.0610 -0.3466
76949W        W19887  11.103   2.499   3.608  0.0534  0.1667 -0.3194
76950W        W19888   9.212   1.219   0.877 -0.2404  0.0074  0.0585
76951W        W19889  11.026   1.356   2.911  0.3334 -0.0353  0.1872
76952W        W19890   8.999   3.015   0.169  0.1171 -0.0063 -0.1525
76953W        W19891   9.169   2.727  31.358  0.2031  0.0617  0.0706
76954W        W19892  10.012   1.535   0.966 -0.0543 -0.0304  0.2997
76955W        W19893   8.362   0.882   2.010 -0.2415 -0.1355 -0.1392
76956W        W19894   8.334   3.258   4.913 -0.2998 -0.0502 -0.0869
76957W        W19895   7.850   0.879   2.052  0.2903 -0.0687 -0.2716
76958W        W19896   9.320   1.833  31.583  0.0132  0.0589  0.1325
76959W        W19897   9.429   2.599   1.413 -0.1214 -0.0551 -0.0715
76960W        W19898  10.835   2.236   3.916 -0.2662  0.0677 -0.0222
76961W        W19899   9.115   0.119  30.947 -0.0039 -0.1497  0.1844
76962W        W19900  11.813   0.677   3.889 -0.1449 -0.2036  0.0186
76963W        W19901   7.832   3.171   1.116 -0.0830 -0.0055  0.0786
76964W        W19902   9.977   0.030   1.822 -0.0346  0.2303  0.3558
76965W        W19903   8.485   2.525   1.192  0.1932  0.2924 -0.2971
76966W        W19904   8.864   1.529   2.869  0.2661  0.0031  0.1755
76967W        W19905   8.142   2.320   1.823 -0.2575 -0.0846  0.2683
76968W        W19906   9.414  34.377   3.933 -0.0319  0.0641  0.0022
76969W        W19907  11.272   1.175   2.508 -0.0009 -0.1465 -0.0447
76970W        W19908  10.050   1.417   2.465 -0.2518 -0.1592 -0.0442
76971W        W19909  11.477   2.014   2.280  0.2273 -0.1822 -0.3400
76972W        W19910   9.479   2.356   3.994  0.1588 -0.0131 -0.1872
76973W        W19911   9.025   2.365   1.217  0.0413 -0.2163  0.1476
76974W        W19912   9.067   3.456   1.573  0.0319  0.2520 -0.1139
76975W        W19913  10.148   3.210   1.320  0.3205 -0.1548 -0.0787
76976W        W19914   8.278   3.749   1.670  0.1942  0.6433 -0.3472
76977W        W19915   7.242   1.340   3.490  0.1791  0.1353 -0.2649
76978W        W19916  11.301   0.723   3.628  0.2695 -0.0591 -0.2024
76979W        W19917   9.489   0.780   0.473 -0.0107 -0.0106  0.2519
76980W        W19918   9.833   0.535  31.506  0.0561  0.0260 -0.0516
76981W        W19919   9.387   2.207  31.974 -0.1673 -0.1510 -0.1897
76982W        W19920   7.768   2.378   3.803  0.1362  0.0351 -0.0121
76983W        W19921   7.555   1.086   1.630  0.0245 -0.3804  0.0885
76984W        W19922   6.569   3.781   0.980 -0.5524  0.1703  0.1260
76985W        W19923  11.233   1.944   1.140  0.3059  0.1302  0.3836
76986W        W19924   9.117   1.693   0.568  0.3633  0.6587  0.0515
76987W        W19925   9.480   3.104   1.505 -0.0462  0.0211 -0.0078
76988W        W19926   8.797   1.021   1.078  0.1426 -0.1585  0.0056
76989W        W19927   7.434   3.459   1.997 -0.2154 -0.1850  0.1597
76990W        W19928   7.887   3.177  31.044  0.2085 -0.3848  0.1139
76991W        W19929   9.814   3.337  31.351  0.2992 -0.1193  0.0857
76992W        W19930   7.884   3.749   0.382  0.2184 -0.3973  0.0237
76993W        W19931  10.434   2.184   2.291  0.0378 -0.0411  0.0102
76994W        W19932  10.159   0.255  31.876 -0.0380 -0.1601  0.1711
76995W        W19933  11.554   2.525   1.601  0.3396 -0.0555  0.0984
76996W        W19934  10.699   2.670   1.351 -0.3182  0.1352  0.0417
76997W        W19935   9.641   3.277   3.302 -0.0965  0.3144 -0.0862
76998W        W19936   8.998   1.882   2.467 -0.1802 -0.3165  0.3856
76999W        W19937   9.392   0.344  31.692  0.2159  0.1929 -0.2496
77000W        W19938   8.580   0.451   2.323 -0.0636  0.0228 -0.1872
77001W        W19939  10.151  33.977   4.202 -0.0197 -0.0705  0.1431
77002W        W19940   7.358   2.170   3.626 -0.3325 -0.3708  0.1369
77003W        W19941   9.674   3.593   1.847  0.0131  0.0602 -0.1294
77004W        W19942   9.387   0.723   2.029  0.2289 -0.1956 -0.6416
77005W        W19943   9.906   1.902   2.072 -0.1223  0.0013  0.0933
77006W        W19944  12.622   0.492   2.945 -0.0845  0.1200  0.1573
77007W        W19945   8.381   3.748   0.396 -0.0693  0.2243 -0.1382
77008W        W19946   9.155   2.570   1.816 -0.1002  0.0936 -0.2668
77009W        W19947   8.723   4.637   0.546  0.1340  0.2175 -0.0285
77010W        W19948   9.497   2.316   0.983 -0.0315 -0.0493  0.1514
77011W        W19949   9.388   3.326   2.465 -0.0789  0.0021  0.0732
77012W        W19950   7.448  34.417   1.071  0.0777 -0.1274 -0.4173
77013W        W19951  10.484   1.582   2.820  0.1155 -0.0071  0.0775
77014W        W19952   9.582   1.377   2.236 -0.3283 -0.0293  0.1453
77015W        W19953  11.842   0.010   2.812  0.1494 -0.0778 -0.1686
77016W        W19954   7.669   0.977   0.504  0.1659  0.3217 -0.0189
77017W        W19955   9.082  34.501   0.949  0.1429  0.1611 -0.2752
77018W        W19956   8.307   2.590   3.745  0.0396  0.1510 -0.4577
77019W        W19957   9.096   2.371   2.558 -0.1784 -0.0126 -0.2912
77020W        W19958   9.593   1.662   0.763  0.0008 -0.1193 -0.0759
77021W        W19959  11.585   2.072   2.815  0.0381  0.0402 -0.2587
77022W        W19960   9.227   0.828   1.362 -0.0262 -0.1823  0.2802
77023W        W19961   9.221   4.034   3.173 -0.2946  0.0573 -0.1845
77024W        W19962   8.655   0.162  31.576  0.0899 -0.2249  0.1409
77025W        W19963   9.190  33.940   0.376  0.0109 -0.1213 -0.0784
77026W        W19964  10.009   2.071   1.098  0.0825 -0.1406  0.3112
77027W        W19965   9.009   1.707   3.449 -0.2566  0.5890  0.1012
77028W        W19966   8.996   2.830   1.396  0.0102 -0.2618 -0.2106
77029W        W19967   8.156  33.449   1.708  0.1945 -0.0329  0.0259
77030W        W19968   9.123   1.747   1.108  0.1193  0.0260 -0.2498
77031W        W19969  11.745   1.256   2.208 -0.0635 -0.2677  0.1402
77032W        W19970   8.222   6.425  31.711  0.2708  0.0818 -0.0517
77033W        W19971   9.489   2.138   0.509  0.1430 -0.0512 -0.0968
77034W        W19972  10.644   4.160   3.190 -0.1241 -0.1303 -0.1166
77035W        W19973   8.041   1.763   2.259  0.4124  0.0082 -0.0046
77036W        W19974   7.980   4.104   2.687 -0.0488  0.2705  0.2022
77037W        W19975  10.927   2.651   2.379  0.1376  0.0857  0.1464
77038W        W19976  10.818  33.480  31.343  0.1131  0.0936 -0.2297
77039W        W19977   8.472   1.976   2.033  0.0089 -0.0769 -0.2049
77040W        W19978   7.665   2.488   1.666 -0.1121  0.1518  0.0487
77041W        W19979  10.117   2.349   1.919  0.1296  0.4046 -0.0331
77042W        W19980  10.432   2.335   3.574 -0.0845 -0.2239  0.2287
77043W        W19981   8.950   5.041   0.883  0.2485 -0.1230 -0.1732
77044W        W19982  12.228  34.047   3.580 -0.0319 -0.3193 -0.1208
77045W        W19983   8.774   2.654   2.828  0.1469  0.0638 -0.0392
77046W        W19984   9.244   3.524   3.502 -0.1826 -0.0846 -0.0307
77047W        W19985   8.203   1.747   1.003  0.1539  0.3773  0.2412
77048W        W19986   9.432   2.119   3.424  0.3303  0.1397  0.0760
77049W        W19987   8.099   1.313   0.179  0.1563  0.5919  0.3564
77050W        W19988   9.956   4.140   1.274  0.0043 -0.4873  0.1637
77051W        W19989  11.088   3.514   1.946  0.0351 -0.2641 -0.0519
77052W        W19990   9.004   0.804   0.565  0.2964 -0.1805 -0.1029
77053W        W19991  11.035   4.910   1.773  0.0832 -0.2346  0.1973
77054W        W19992   9.078  34.584   1.568 -0.0260 -0.0256 -0.0888
77055W        W19993  10.869   0.334   2.064 -0.1229 -0.1016  0.2012
77056W        W19994  10.490   0.090   1.858  0.5707 -0.1420  0.2232
77057W        W19995   8.860   2.594   3.948  0.0117  0.1861 -0.4010
77058W        W19996   7.968   2.429   0.480 -0.0076 -0.1958  0.0993
77059W        W19997   8.285   3.341   1.027  0.1636  0.1747 -0.2908
77060W        W19998   8.637   2.991   1.130 -0.1391 -0.0126  0.1174
77061W        W19999  10.606  34.148   4.865  0.4449 -0.3216  0.1818
77062W        W20000   8.267   1.230   3.850 -0.0450 -0.2468 -0.0189
77063W        W20001   8.332   2.950   1.673 -0.0882 -0.1647  0.0517
77064W        W20002   7.668   0.055   0.571  0.1873 -0.2472 -0.2462
77065W        W20003  10.407   3.603   0.604  0.1140 -0.3317  0.1006
77066W        W20004   9.157  34.313   2.684 -0.0019 -0.3290 -0.1941
77067W        W20005   9.444   0.188   2.001  0.0666 -0.0859  0.1263
77068W        W20006   9.153   3.686   2.116  0.0293  0.0417 -0.2346
77069W        W20007  10.584   3.308   1.171  0.0131  0.0775  0.2006
77070W        W20008   9.153  34.575   0.428  0.3794 -0.1148 -0.0600
77071W        W20009   8.753   3.868   2.926 -0.0434  0.0321 -0.1102
77072W        W20010   8.298   3.920  31.620 -0.2566 -0.0875 -0.0004
77073W        W20011   9.103   1.211   3.740 -0.1105 -0.0658  0.0642
77074W        W20012   9.547   1.162   3.588  0.0128 -0.0175  0.1408
77075W        W20013   6.411   0.081  30.329  0.3499  0.2006  0.0867
77076W        W20014   9.621  34.685   2.484  0.2683  0.0390  0.0783
77077W        W20015   9.022   2.164   0.753  0.0189 -0.0221  0.1825
77078W        W20016   9.418   4.887  31.348 -0.3435 -0.2048  0.1912
77079W        W20017   9.453   1.852   2.237  0.2802  0.1133  0.2712
77080W        W20018   9.304   3.033   1.949  0.0763 -0.0910 -0.1289
77081W        W20019   8.357  34.231   2.169 -0.2502  0.2701 -0.1280
77082W        W20020  10.747   1.488   0.337 -0.1073  0.1654 -0.0335
77083W        W20021   8.913   2.730   2.277 -0.0476  0.0949  0.1577
77084W        W20022  11.281   1.059  31.835 -0.1306 -0.1736 -0.4804
77085W        W20023  11.229   1.090   1.973  0.1995 -0.0734 -0.1717
77086W        W20024   9.982   2.103  31.188  0.0228 -0.0999  0.1454
77087W        W20025   8.813  34.037   2.360  0.0781  0.4340  0.0447
77088W        W20026   8.811   3.571   3.862  0.1670  0.1374 -0.3239
77089W        W20027  11.502   3.941   2.595  0.1799 -0.3248  0.2783
77090W        W20028  10.319  34.123   3.530  0.1535  0.1895 -0.1068
77091W        W20029  10.994  34.664   0.146  0.1717 -0.1275 -0.1672
77092W        W20030   9.041   2.568  31.939 -0.0847  0.1302  0.2001
77093W        W20031   7.780   2.105   1.315  0.0817  0.0862  0.0397
77094W        W20032   9.868   0.605   0.765  0.0986  0.4242 -0.0817
77095W        W20033   9.133   1.285   3.226 -0.0628  0.4037  0.2756
77096W        W20034  11.332   2.338   0.785  0.3018  0.0130 -0.1616
77097W        W20035  10.387   1.960   3.167 -0.0795  0.3374 -0.1772
77098W        W20036   8.480   1.958   0.165 -0.0880  0.0590  0.1369
77099W        W20037  11.200   1.426  31.465  0.0174  0.0629 -0.0778
77100W        W20038   8.605   3.444   1.403 -0.0234 -0.1812 -0.0950
77101W        W20039   9.607   3.734   2.921  0.0820  0.1663 -0.1669
77102W        W20040   9.845   3.254   2.728  0.0611  0.4874  0.0289
77103W        W20041  11.393   2.493   2.202  0.4336 -0.1679  0.0230
77104W        W20042   6.977  33.230   2.310 -0.2256 -0.1780 -0.0330
77105W        W20043   7.350   2.444   0.456  0.0151  0.0420  0.3756
77106W        W20044   8.813   1.752   1.545  0.0255 -0.2266  0.1645
77107W        W20045  10.687   1.727   1.844  0.0687 -0.2599 -0.0711
77108W        W20046   9.180   0.106   2.917  0.3331 -0.3185 -0.1250
77109W        W20047   9.645  34.593   1.441 -0.0618 -0.0013 -0.1674
77110W        W20048   8.281   3.709   2.681  0.2146 -0.1889 -0.0334
77111W        W20049   9.612   1.870   1.334 -0.0384  0.1141  0.0861
77112W        W20050   8.893   2.831   7.373 -0.0029  0.0211 -0.0711
77113W        W20051   8.501   0.265   4.467 -0.2100 -0.0014  0.0531
77114W        W20052  10.623   1.302   3.795 -0.1008  0.0412  0.1963
77115W        W20053  10.131   3.665   3.674  0.1691 -0.1011  0.1547
77116W        W20054   8.464   0.538   4.984 -0.0057 -0.0110  0.0609
77117W        W20055  10.435   3.902   4.764  0.3437  0.2053  0.2031
77118W        W20056   8.711   0.732   6.450  0.1282 -0.0887 -0.0221
77119W        W20057   9.426   1.662   5.286 -0.5154 -0.2485  0.1662
77120W        W20058  11.067   5.197   5.341 -0.0673 -0.1314 -0.4060
77121W        W20059  10.147   1.104   3.693  0.1546  0.1013  0.0561
77122W        W20060   9.223   1.252   7.350 -0.1598 -0.3285  0.2152
77123W        W20061   9.455   4.338   5.675 -0.2561 -0.2275  0.0049
77124W        W20062   9.445   0.317   4.864  0.3172  0.1416 -0.0700
77125W        W20063   7.625  34.289   4.662  0.1909 -0.1132 -0.2379
77126W        W20064  10.226   1.635   6.622  0.4669 -0.0888 -0.0428
77127W        W20065   8.772   0.218   4.050  0.0339  0.4212  0.0526
77128W        W20066   8.496   1.053   7.399 -0.0230  0.0729  0.0864
77129W        W20067   9.249   2.547   3.127 -0.1010 -0.0355  0.0049
77130W        W20068   9.585   2.597   4.568  0.1158  0.1230 -0.2275
77131W        W20069   9.074   0.232   5.252 -0.2616  0.2348  0.0321
77132W        W20070   8.652   0.113   7.281 -0.0062 -0.1303 -0.1030
77133W        W20071   9.707   3.915   4.755 -0.0265 -0.1447  0.1751
77134W        W20072   8.019   2.164   3.289 -0.0585  0.1971  0.0398
77135W        W20073   7.089   1.449   5.311  0.1237  0.1407 -0.1523
77136W        W20074   9.628   2.017   6.980 -0.0791  0.0001  0.0698
77137W        W20075   9.958   0.489   5.563 -0.0002  0.1697  0.1389
77138W        W20076  10.773   1.596   5.396  0.1119 -0.1052 -0.2681
77139W        W20077   9.460   4.037   3.870 -0.1067 -0.2323  0.1988
77140W        W20078   9.103   3.033   5.790  0.0146  0.1866  0.1312
77141W        W20079  11.745   2.443   6.148  0.3059 -0.3032 -0.2524
77142W        W20080   7.559   0.843   4.832  0.2152 -0.2309 -0.0795
77143W        W20081   8.506   2.808   5.801  0.0205 -0.2821 -0.2544
77144W        W20082   9.048   3.254   4.414  0.0338 -0.3341  0.2104
77145W        W20083  11.017   3.132   4.751  0.0655 -0.0009 -0.0076
77146W        W20084  11.510   3.341   6.124 -0.1905  0.2242 -0.1978
77147W        W20085   8.580   2.351   6.209 -0.3091  0.1331 -0.2602
77148W        W20086   7.808   2.948   4.614  0.1327  0.1514  0.3581
77149W        W20087  10.310   2.517   6.850 -0.4660 -0.0164 -0.2537
77150W        W20088   8.595   2.212   5.703  0.2122 -0.3760  0.2482
77151W        W20089   8.912   1.250   5.470 -0.1187 -0.1092  0.0496
77152W        W20090   8.658   1.972   4.214  0.2198 -0.0838 -0.0801
77153W        W20091  10.324   2.672   4.268 -0.0804 -0.0434  0.0181
77154W        W20092   9.502   1.492   4.371  0.2141  0.1355 -0.0039
77155W        W20093  10.281   2.395   7.847 -0.1992 -0.1745 -0.0873
77156W        W20094   8.763   1.776   5.589 -0.1148  0.0907  0.2041
77157W        W20095  10.545   2.062   6.959 -0.0216  0.0411  0.2815
77158W        W20096   9.706   3.546   4.361  0.1011  0.1804 -0.0519
77159W        W20097  11.339   2.103   3.955 -0.2696  0.2216 -0.0524
77160W        W20098  10.350   1.106   4.176  0.2020 -0.0261 -0.1293
77161W        W20099  10.882   0.482   5.055  0.1467 -0.0254  0.2354
77162W        W20100   9.298   1.377   4.827  0.3612  0.0642  0.1306
77163W        W20101   7.277   3.951   4.891 -0.0065 -0.3982  0.3228
77164W        W20102   8.829   1.484   6.056  0.2282 -0.4943  0.1603
77165W        W20103  11.091   2.466   5.849 -0.1129 -0.2128 -0.1315
77166W        W20104   9.939   2.330   4.269  0.3668  0.0160 -0.0561
77167W        W20105   9.237   0.626   6.112 -0.1656  0.1609 -0.0609
77168W        W20106   9.033   3.860   5.077 -0.2827 -0.0788 -0.0428
77169W        W20107   8.317   1.259   4.841  0.2470 -0.2402 -0.0130
77170W        W20108  11.352   2.407   4.321  0.3828 -0.1499 -0.1145
77171W        W20109  10.402   3.214   3.618 -0.0508  0.3620 -0.4596
77172W        W20110  10.187   2.817   2.056 -0.1145 -0.3342  0.0873
77173W        W20111   7.542   1.345   5.337  0.1962 -0.2475 -0.0144
77174W        W20112   7.973   2.299   5.340 -0.1292  0.0247  0.0098
77175W        W20113   8.425   1.057   6.831 -0.0068  0.0999  0.1522
77176W        W20114   8.506  33.402   5.320 -0.0494  0.0989 -0.1328
77177W        W20115  11.309   2.676   6.797  0.2923  0.3229  0.2274
77178W        W20116   7.052   1.879   8.046 -0.1504  0.1048 -0.1571
77179W        W20117  10.760   2.095   4.899 -0.0640 -0.0680 -0.1704
77180W        W20118   8.097   1.679   5.036 -0.0651  0.2304  0.0532
77181W        W20119  10.929   4.216   5.380 -0.2193 -0.1163  0.1672
77182W        W20120   9.569   2.824   2.854  0.0979  0.1671 -0.2839
77183W        W20121  10.117   0.558   7.089  0.1195  0.1389 -0.1077
77184W        W20122   9.939   1.053   5.984  0.0211  0.0258 -0.1173
77185W        W20123   9.081   3.706   4.253  0.0747 -0.3116 -0.1004
77186W        W20124   9.797   1.844   4.860 -0.0802 -0.1095 -0.1524
77187W        W20125  12.067   3.314   6.323 -0.1125 -0.0364 -0.0396
77188W        W20126  11.665   0.834   5.099 -0.0173 -0.1072 -0.0586
77189W        W20127   8.398   3.566   3.261 -0.1872  0.0594  0.4053
77190W        W20128   8.114   0.805   7.674 -0.3639 -0.1458 -0.2565
77191W        W20129   9.443   3.717   6.310 -0.1760 -0.2503 -0.3130
77192W        W20130   6.756   3.327   3.470  0.1082  0.0518  0.2624
77193W        W20131   7.490   3.566   5.371  0.3407  0.1266  0.0717
77194W        W20132   8.284   2.959   4.091 -0.2273  0.2091  0.1966
77195W        W20133   7.267   0.518   7.591 -0.1451 -0.1427 -0.0236
77196W        W20134   8.891   1.709   4.643 -0.3453 -0.1344  0.2371
77197W        W20135  10.738   0.394   4.403  0.0353  0.1179  0.0066
77198W        W20136   6.513   0.327   6.822 -0.1864 -0.3597  0.0163
77199W        W20137  10.451  34.474   6.515 -0.0978 -0.0943  0.0197
77200W        W20138   9.195   3.075   3.886 -0.4112 -0.0986  0.3848
77201W        W20139  10.556   3.592   2.806 -0.0295 -0.1274 -0.0566
77202W        W20140  11.649   1.692   3.229 -0.0183 -0.0020 -0.0963
77203W        W20141  10.206   3.637   4.389 -0.0236 -0.0306  0.1358
77204W        W20142   7.816   1.080   6.525  0.1213 -0.2696 -0.2070
77205W        W20143   7.527  34.099   3.818  0.1645  0.1395  0.1107
77206W        W20144   8.172   0.618   6.470  0.1295  0.1543  0.4107
77207W        W20145   7.574   0.424   5.703  0.4128 -0.0375 -0.1932
77208W        W20146  11.829   1.447   7.964  0.0635 -0.3604  0.3230
77209W        W20147   7.918   0.397   3.441 -0.1050 -0.1610 -0.0682
77210W        W20148  10.133   0.966   4.801  0.0623  0.0283 -0.1085
77211W        W20149  10.340   0.139   4.161 -0.2391  0.0344  0.0569
77212W        W20150   8.825   3.525   4.729  0.0897 -0.0881  0.1128
77213W        W20151  10.990   0.899   6.513  0.3107 -0.1269  0.1167
77214W        W20152  10.463   3.265   4.698 -0.3076 -0.1961 -0.1044
77215W        W20153  11.815   3.670   7.200  0.3431 -0.0401  0.0935
77216W        W20154   9.916   4.085   5.504 -0.0936 -0.2549 -0.1110
77217W        W20155   9.382   1.256   6.845 -0.3554  0.0724 -0.3739
77218W        W20156   9.232  34.531   3.449 -0.0529 -0.0536  0.0666
77219W        W20157   7.081   3.483   5.573  0.0700 -0.2326 -0.0269
77220W        W20158  11.449   1.605   4.694  0.2755 -0.1614  0.1771
77221W        W20159   8.060  34.617   4.535  0.0169 -0.2059 -0.0262
77222W        W20160  10.893   4.659   5.658 -0.2335  0.0698 -0.1037
77223W        W20161   8.356   2.882   4.574 -0.0382 -0.0477  0.1619
77224W        W20162   8.338   1.782   5.957 -0.1522  0.0068 -0.3080
77225W        W20163   9.239  34.502   6.724  0.4225  0.2528 -0.0945
77226W        W20164  11.460   1.614   6.963 -0.0099  0.0671 -0.1315
77227W        W20165  11.173   1.965   4.479 -0.1170 -0.0987 -0.2141
77228W        W20166   9.217   0.272   2.459 -0.1303 -0.0041  0.1546
77229W        W20167  10.648   3.935   4.327 -0.0018 -0.0954  0.1038
77230W        W20168   7.028   3.603   3.165  0.1377 -0.0307 -0.0924
77231W        W20169   7.714   3.164   5.082 -0.0515 -0.4648 -0.0290
77232W        W20170   8.858   2.607   5.513 -0.0831  0.2212  0.4848
77233W        W20171   9.859   1.018   5.388 -0.0134  0.1170  0.0006
77234W        W20172   5.595   1.329   7.885 -0.0733  0.4427 -0.1273
77235W        W20173   9.101   1.132   5.904  0.0469  0.0618 -0.0683
77236W        W20174   7.467   0.491   3.277  0.0335 -0.1813  0.2105
77237W        W20175  10.255   1.865   5.637  0.0524  0.3428 -0.0647
77238W        W20176  10.084   0.076   5.115  0.2207  0.0921 -0.1487
77239W        W20177  12.139   1.812   4.869 -0.1468 -0.1358 -0.2087
77240W        W20178   9.330   2.141   5.681  0.1022  0.0555 -0.3323
77241W        W20179   9.541   3.386   5.081 -0.1351 -0.0240 -0.2365
77242W        W20180  11.882   1.447   4.540 -0.0219 -0.0468 -0.1190
77243W        W20181  10.765   0.606   3.488 -0.0671 -0.0497 -0.2062
77244W        W20182   7.899   2.024   5.875 -0.1876 -0.2827 -0.4743
77245W        W20183   8.982   4.047   5.665  0.1993  0.2428 -0.0232
77246W        W20184   9.707   2.168   5.293 -0.0063  0.1548  0.3157
77247W        W20185   9.448   1.581   3.842 -0.0500  0.2691  0.1425
77248W        W20186   9.773   3.377   5.592  0.3142  0.3686  0.1761
77249W        W20187   8.238   1.889   5.469 -0.1988 -0.1663 -0.0741
77250W        W20188   9.902   2.546   8.241  0.2075  0.1525 -0.1125
77251W        W20189   8.590   2.829   5.070 -0.0352  0.0705 -0.1497
77252W        W20190   8.496   0.469   6.859  0.1268 -0.1729  0.1521
77253W        W20191   8.852   0.762   3.666  0.0149 -0.0094 -0.0556
77254W        W20192   9.817   1.032   4.460  0.1574 -0.0937 -0.0440
77255W        W20193   6.872   2.626   4.715 -0.2438 -0.2603  0.1856
77256W        W20194   9.658   0.327   6.192  0.3212 -0.2023 -0.2942
77257W        W20195   8.320   1.218   6.276 -0.3046 -0.2034  0.1370
77258W        W20196  10.947   0.204   5.911  0.0005  0.0794 -0.0686
77259W        W20197  10.779   1.055   5.236  0.1307  0.2682  0.1303
77260W        W20198   9.799   1.890   4.121  0.1813  0.0935 -0.0327
77261W        W20199  10.304   0.787   5.199 -0.3543  0.4276 -0.2601
77262W        W20200  10.005   2.746   2.543  0.1511  0.0977 -0.1028
77263W        W20201   8.962   0.825   7.495  0.1498  0.2037  0.0798
77264W        W20202   8.323   1.353   7.763  0.2565 -0.1235  0.1571
77265W        W20203   7.846   1.813   6.795  0.0345  0.3714 -0.1292
77266W        W20204  10.975   3.443   6.753 -0.0403  0.2447  0.2332
77267W        W20205  10.353   2.154   4.153  0.1417 -0.0175  0.1864
77268W        W20206  10.199   0.647   6.178 -0.0487 -0.2235  0.0374
77269W        W20207   9.897   1.163   3.247 -0.3524  0.0091  0.1991
77270W        W20208   8.665   3.097   3.796  0.0786  0.1618 -0.0677
77271W        W20209   9.548   3.098   4.528 -0.2496  0.1713  0.1246
77272W        W20210   8.725   0.040   4.920  0.1829 -0.3853 -0.0674
77273W        W20211   8.850   3.736   6.007 -0.2758  0.1378 -0.0501
77274W        W20212  10.185   3.368   3.087 -0.0608  0.1005 -0.0439
77275W        W20213  10.426   2.190   6.473 -0.1169  0.2142 -0.1264
77276W        W20214   8.569   2.320   2.448 -0.0915 -0.1250  0.0804
77277W        W20215  10.118  34.176   4.862 -0.0509  0.0212 -0.2447
77278W        W20216   6.554   3.235   5.650 -0.1313  0.2493  0.0613
77279W        W20217   8.081   1.620   4.194 -0.2748 -0.3239 -0.0187
77280W        W20218   8.223   2.117   3.890  0.0551  0.1728  0.1850
77281W        W20219   9.865   0.434   4.578 -0.3596  0.2591 -0.0770
77282W        W20220   9.624   3.820   3.438 -0.2565  0.0521 -0.0212
77283W        W20221   7.819   0.608   6.816  0.1185  0.1850  0.0736
77284W        W20222   8.835   1.201   6.477 -0.3210  0.0183  0.1573
77285W        W20223   8.131   2.449   5.789  0.2400 -0.2151  0.0300
77286W        W20224  10.200   1.396   5.792  0.4604  0.0778 -0.1397
77287W        W20225  12.092   1.040   4.273 -0.0257 -0.0530  0.0399
77288W        W20226   9.619   3.842   5.857 -0.1225  0.0970  0.2143
77289W        W20227   9.009   2.190   7.847 -0.2500  0.2085  0.4179
77290W        W20228   8.042   0.412   4.391  0.0044  0.0304 -0.0891
77291W        W20229  11.084  34.652   4.855  0.0097  0.1738  0.1371
77292W        W20230   8.767   1.134   4.957  0.3051 -0.0856  0.0006
77293W        W20231   7.306   2.707   5.842  0.2131 -0.0122 -0.0999
77294W        W20232   9.395   3.024   5.419  0.3434 -0.3971 -0.1632
77295W        W20233   7.669   1.715   3.379  0.1253  0.0698  0.2359
77296W        W20234   8.579   3.329   4.262  0.0922 -0.1989  0.3835
77297W        W20235   6.826  34.617   8.006 -0.0725 -0.1062 -0.3896
77298W        W20236  10.542   1.567   7.031  0.1159  0.2538 -0.2737
77299W        W20237   8.445   0.993   5.379 -0.0692 -0.1629  0.3068
77300W        W20238   8.106   0.664   5.567  0.1585 -0.3422  0.2810
77301W        W20239   9.777   1.278   4.942 -0.1644  0.0806 -0.3175
77302W        W20240  10.432   4.809   5.728  0.1973  0.2719 -0.0768
77303W        W20241   9.918   1.543   6.162 -0.1056  0.1669 -0.1899
77304W        W20242   9.086   3.516   5.542 -0.2614  0.3639 -0.0411
77305W        W20243   8.916   0.202   5.722  0.0061  0.1014 -0.3370
77306W        W20244  10.715   3.121   4.321  0.3349 -0.2092 -0.0835
77307W        W20245  10.431   1.650   6.172 -0.2471 -0.2069  0.0100
77308W        W20246  10.693   1.867   4.446 -0.4010 -0.0218 -0.2337
77309W        W20247   8.502   1.470   5.296 -0.1169 -0.0185  0.4106
77310W        W20248   9.486   2.688   2.376 -0.2311  0.0622 -0.1187
77311W        W20249   8.543   0.312   6.110 -0.0752  0.3218  0.1078
77312W        W20250   8.270   2.059   6.840 -0.2280  0.1301  0.1180
77313W        W20251   7.928   2.617   4.197  0.0712 -0.1180 -0.0896
77314W        W20252   7.580   1.875   6.379  0.2418 -0.4816  0.1870
77315W        W20253  11.363   0.792   4.152  0.1628 -0.0449  0.2438
77316W        W20254   9.187   2.710   4.308 -0.4441  0.0452  0.2032
77317W        W20255   9.404   0.878   4.877  0.0012  0.0733  0.3437
77318W        W20256  10.742   0.683   6.045 -0.1574  0.0666  0.0800
77319W        W20257  11.369   2.900   4.429 -0.0453 -0.2668 -0.0011
77320W        W20258   9.241   0.876   6.608 -0.1807  0.1100 -0.0409
77321W        W20259   7.549   1.048   6.948 -0.2130 -0.1274 -0.1191
77322W        W20260  10.780   5.118   4.853 -0.1881 -0.1087 -0.0657
77323W        W20261   9.004   2.294   6.538 -0.2082  0.3529 -0.2895
77324W        W20262   9.490   2.826   6.122  0.3477 -0.4256  0.1805
77325W        W20263   7.881   1.508   6.165  0.3802 -0.1438 -0.2061
77326W        W20264   8.976   0.311   4.587 -0.0560  0.1619  0.3340
77327W        W20265   8.570  34.479   4.455 -0.0821  0.1277 -0.0032
77328W        W20266   9.229   1.712   7.049  0.0663  0.2412  0.3509
77329W        W20267  11.208   3.390   5.746 -0.1362 -0.2524  0.1957
77330W        W20268   9.792   2.719   5.211  0.1644 -0.0864 -0.3535
77331W        W20269  10.604   2.134   5.428  0.2401  0.1080 -0.0101
77332W        W20270   8.437   2.392   5.255  0.0556  0.0256 -0.0624
77333W        W20271   9.351   2.517   5.363  0.4007  0.0185 -0.2004
77334W        W20272  10.236   1.624   4.082 -0.1629  0.1087 -0.2377
77335W        W20273   9.021   1.097   4.474  0.2137  0.1166  0.0056
77336W        W20274   9.338   0.809   7.153  0.1433  0.1510  0.1935
77337W        W20275  11.223   2.172   4.921 -0.0091  0.0959 -0.2274
77338W        W20276   8.851  34.286   5.093 -0.0752 -0.1827  0.1118
77339W        W20277  10.120   1.115   6.579  0.0716  0.1839 -0.2958
77340W        W20278  11.247   1.976   5.449  0.0771  0.0636  0.1603
77341W        W20279   8.957   0.537   7.018  0.1318 -0.1534 -0.2343
77342W        W20280   7.105   1.166   7.924  0.3997  0.1809  0.2453
77343W        W20281  10.648   4.687   6.116 -0.4113  0.0175 -0.1936
77344W        W20282  11.861   1.232   3.623 -0.2730 -0.1980  0.0711
77345W        W20283  11.215   1.477   5.671  0.1421 -0.0705 -0.0318
77346W        W20284  10.995   2.761   4.129  0.1947  0.2456 -0.3163
77347W        W20285  10.669   2.781   4.718  0.0854  0.3963 -0.0610
77348W        W20286   7.481  34.309   6.040 -0.0179  0.0553 -0.1244
77349W        W20287  11.227   2.713   6.323 -0.1265  0.0895  0.1623
77350W        W20288   9.160  34.051   3.673 -0.1139 -0.0175 -0.1292
77351W        W20289   9.947   0.486   7.741  0.1054  0.3428 -0.2109
77352W        W20290   9.953   3.309   4.777  0.0711 -0.3175 -0.0051
77353W        W20291   9.878   2.355   4.827  0.0666  0.2785  0.0943
77354W        W20292  11.212   1.655   5.105  0.0882 -0.3557  0.2239
77355W        W20293   7.825  33.656   2.697 -0.1746  0.1138  0.3040
77356W        W20294   9.167   2.490   5.981 -0.1563 -0.5062 -0.0015
77357W        W20295   8.724   1.118   4.000  0.0450 -0.0217  0.0500
77358W        W20296   9.638   2.329   2.809 -0.0027  0.2361 -0.1871
77359W        W20297  10.157   2.630   6.037 -0.0037 -0.1656 -0.2610
77360W        W20298  11.896   1.960   6.984  0.0583 -0.0047 -0.0269
77361W        W20299   9.890   0.742   4.035 -0.0355 -0.5030 -0.1664
77362W        W20300  10.971   2.100   6.243  0.3243  0.0562  0.3304
77363W        W20301   7.638   1.353   4.179  0.0012  0.2459 -0.0028
77364W        W20302   9.848   0.634   5.022  0.0341  0.1758 -0.1390
77365W        W20303   8.109   2.848   5.062 -0.0372  0.1998 -0.1612
77366W        W20304   8.120   2.188   6.362  0.1422  0.1437  0.0309
77367W        W20305   7.883   2.861   3.785  0.2593 -0.0784  0.0198
77368W        W20306   9.595   1.327   5.737  0.1610 -0.0114 -0.0008
77369W        W20307  10.365   1.324   5.293  0.0460 -0.0543 -0.1861
77370W        W20308   8.618   0.911   5.963 -0.1356  0.1812 -0.0010
77371W        W20309  11.116   1.351   6.676 -0.1663  0.1401 -0.1778
77372W        W20310  10.997   3.178   6.188 -0.0048  0.1316  0.2723
77373W        W20311   9.038   1.974   3.879  0.0842 -0.2907 -0.1604
77374W        W20312   9.649   4.534   6.157  0.0216 -0.0364  0.0730
77375W        W20313  11.686   2.640   3.714 -0.2418 -0.0202 -0.0301
77376W        W20314   9.535   2.102   4.465  0.0927  0.1732 -0.3444
77377W        W20315   7.572   1.559   7.131  0.0372  0.1337 -0.1581
77378W        W20316   9.394   2.513   8.034 -0.0964 -0.3863 -0.1742
77379W        W20317   9.755   1.819   5.740  0.0599  0.2579  0.1895
77380W        W20318   9.748   0.292   3.833 -0.0967  0.0054  0.0758
77381W        W20319  10.093   2.758   3.721 -0.0171 -0.1902  0.0359
77382W        W20320   6.994   2.284   7.009 -0.0151  0.1864  0.1963
77383W        W20321   9.349   2.073   4.923 -0.0640  0.1738 -0.3072
77384W        W20322   9.770   2.855   4.099  0.2483 -0.2142  0.2967
77385W        W20323   9.802   3.196   3.773 -0.3908  0.0338 -0.2712
77386W        W20324   9.018   1.535   4.183 -0.0050 -0.0833 -0.0689
77387W        W20325   9.240   4.771   5.374  0.2405  0.0914 -0.3508
77388W        W20326  10.896   2.067   3.434 -0.3617 -0.1168  0.1085
77389W        W20327   6.889   2.062   3.874 -0.4222 -0.1614 -0.1510
77390W        W20328   8.977   4.852   3.559  0.0057 -0.2000 -0.0980
77391W        W20329   6.532   3.687   5.823  0.1645 -0.2027  0.0792
77392W        W20330  10.799   2.922   5.165 -0.3356 -0.1530 -0.0941
77393W        W20331  11.669   0.866   3.090  0.3017  0.0760 -0.0142
77394W        W20332  10.337   2.373   4.743  0.0453  0.0586 -0.1575
77395W        W20333  11.590   2.351   5.664 -0.2611  0.1563 -0.3312
77396W        W20334  10.581   2.354   8.195 -0.1340 -0.3142 -0.0839
77397W        W20335   9.445   1.887   6.105 -0.1319 -0.3530 -0.2494
77398W        W20336   9.242   0.175   3.872  0.0153 -0.1717  0.0565
77399W        W20337   9.109   0.235   7.600 -0.5419 -0.0992 -0.1805
77400W        W20338  10.900   0.128   7.640 -0.1056 -0.5194 -0.0359
77401W        W20339   7.909   2.040   7.188  0.7012  0.1522 -0.3756
77402W        W20340  12.690   2.788   3.114  0.2382  0.3862  0.3998
77403W        W20341   8.825   1.084   2.783  0.2192 -0.3094 -0.1309
77404W        W20342   8.404   1.727   4.626 -0.0262  0.0348 -0.2297
77405W        W20343  11.061  33.855   6.936 -0.0817  0.4720 -0.1785
77406W        W20344   9.385   3.517   3.967 -0.0240  0.0644  0.1591
77407W        W20345   9.550   2.219   6.472  0.2999 -0.2442  0.4108
77408W        W20346   7.509   2.476   4.492 -0.2233 -0.1987 -0.5356
77409W        W20347   8.566   1.906   5.124 -0.3793  0.2041 -0.2494
77410W        W20348  10.023   3.710   5.229  0.1777  0.1496  0.0773
77411W        W20349   8.598   1.613   3.872 -0.2282  0.0588  0.1066
77412W        W20350  11.044   1.041   4.449  0.0728  0.0046  0.2368
77413W        W20351   9.472   1.323   6.245  0.1151 -0.0236 -0.0045
77414W        W20352  10.454   0.354   5.806  0.0084  0.1748  0.3151
77415W        W20353   8.697   3.144   5.526 -0.2464  0.0102  0.0519
77416W        W20354  10.849   2.349   4.478  0.1974  0.3604 -0.2917
77417W        W20355  10.708   2.700   6.139  0.0617 -0.1854 -0.4460
77418W        W20356   8.906   1.974   6.046  0.2854  0.0881 -0.1711
77419W        W20357   9.588   2.830   3.539  0.1376 -0.1807 -0.0549
77420W        W20358  11.371   3.192   6.599 -0.0789  0.1658 -0.5023
77421W        W20359  10.547   2.696   2.682  0.3269 -0.0394  0.1208
77422W        W20360  10.482   3.017   7.062  0.0537  0.1165 -0.2325
77423W        W20361   7.305  34.404   5.258 -0.2275  0.0016  0.0498
77424W        W20362  10.170   0.006   3.710  0.7231 -0.3583 -0.0191
77425W        W20363   7.621   0.647   5.282 -0.0710 -0.3113 -0.0539
77426W        W20364   9.722   1.577   6.653 -0.0620  0.1573  0.2307
77427W        W20365  10.290   3.830   6.540 -0.0988 -0.0285  0.0189
77428W        W20366   8.362  33.876   5.337  0.1082 -0.1410 -0.2150
77429W        W20367   8.883   3.242   2.333 -0.0878 -0.2540 -0.1151
77430W        W20368  11.028   0.415   4.009 -0.1845  0.1668  0.1254
77431W        W20369   8.160   4.085   4.399  0.1968  0.0180 -0.0617
77432W        W20370  10.256   2.072   5.113 -0.2409  0.0407 -0.1690
77433W        W20371  10.323   3.271   5.212  0.4768  0.0262  0.1975
77434W        W20372   7.507   1.152   6.156 -0.1898 -0.0988  0.0418
77435W        W20373   9.801   4.603   5.384 -0.0041  0.0347 -0.0157
77436W        W20374  10.062   2.859   4.679 -0.0439 -0.2724  0.2683
77437W        W20375  10.491   1.697   4.925  0.3114  0.3655  0.0200
77438W        W20376   9.206   1.659   5.731  0.2083 -0.1883 -0.1229
77439W        W20377   7.404   3.226   3.858  0.1807 -0.3654  0.1015
77440W        W20378  10.696  34.114   6.682 -0.3083  0.0668 -0.1741
77441W        W20379   9.608  34.299   6.978 -0.1930  0.2090 -0.0092
77442W        W20380   8.782   3.315   3.323  0.3116 -0.3135  0.3416
77443W        W20381  10.998   0.290   6.444 -0.1583  0.0683  0.3882
77444W        W20382   9.417   3.252   6.565  0.2653  0.2069 -0.0421
77445W        W20383   8.927   2.097   7.375 -0.0888  0.0983 -0.0923
77446W        W20384   8.484   2.069   3.462 -0.0702  0.2139 -0.1711
77447W        W20385   9.686   0.818   6.294  0.1106 -0.2234 -0.0759
77448W        W20386   8.490   1.303   4.371 -0.3060 -0.0342  0.0967
77449W        W20387   8.975   3.236   5.128  0.1872 -0.0775 -0.0500
77450W        W20388  11.760   2.132   4.625  0.3536 -0.1458 -0.1872
77451W        W20389   9.393   0.689   3.850  0.0970 -0.3378 -0.1572
77452W        W20390  10.443   2.599   5.190  0.3463 -0.4235  0.4394
77453W        W20391   9.382  33.832   5.373  0.0532 -0.2957 -0.0022
77454W        W20392  10.438   0.340   5.266 -0.1200  0.0170  0.2322
77455W        W20393  10.356   0.661   3.787  0.1645 -0.0818 -0.0062
77456W        W20394   7.984   1.249   6.967 -0.1919 -0.1477 -0.2418
77457W        W20395   8.025   1.955   2.807  0.3147  0.0436  0.1324
77458W        W20396   8.364   2.894   2.983 -0.2175  0.0279 -0.2372
77459W        W20397   8.846   2.812   4.628  0.1690  0.2791 -0.0936
77460W        W20398   8.755  34.423   7.578 -0.3141  0.2245  0.1142
77461W        W20399   8.724   1.677   8.041 -0.1039 -0.0386 -0.0912
77462W        W20400   7.050   1.963   5.287 -0.4842  0.1417  0.2617
77463W        W20401  10.323   0.635   4.282  0.2256  0.0365  0.0367
77464W        W20402  11.367   4.051   4.486 -0.3573  0.2861 -0.2116
77465W        W20403   7.318   0.692   6.035 -0.0586 -0.1955 -0.1544
77466W        W20404   7.464   0.150   6.147 -0.1105  0.2271 -0.2019
77467W        W20405  10.188   3.167   4.236  0.2733 -0.3076 -0.2254
77468W        W20406   9.415   3.825   5.361  0.2037  0.1916  0.0930
77469W        W20407   8.800  34.431   3.669 -0.2467 -0.0594 -0.0919
77470W        W20408  12.052   2.824   6.839 -0.0246 -0.1806 -0.0085
77471W        W20409   8.778   2.721   3.363 -0.0684  0.1381  0.1133
77472W        W20410   9.191   1.354   8.120  0.3359 -0.2233  0.0486
77473W        W20411   8.490  34.149   6.546 -0.3608 -0.2964  0.1513
77474W        W20412   7.183   0.917   3.188  0.4372 -0.0744 -0.2295
77475W        W20413   8.992   2.158   5.339 -0.0844  0.0224 -0.0838
77476W        W20414  11.865   3.194   3.045  0.0514  0.0170  0.0604
77477W        W20415  10.030   4.274   5.042 -0.2070  0.0043  0.3029
77478W        W20416   9.691   2.378   6.057  0.0863  0.1294 -0.0129
77479W        W20417   9.761   2.518   6.988 -0.1367 -0.2478  0.3334
77480W        W20418   8.762   1.475   6.857  0.0381  0.4036  0.0264
77481W        W20419  10.267   3.470   5.670  0.4901 -0.0159  0.0778
77482W        W20420   9.395   2.055   7.535  0.1522 -0.2475 -0.1324
77483W        W20421  11.789   2.200   3.241 -0.0053 -0.1596 -0.1675
77484W        W20422  11.079   0.978   5.780 -0.0371 -0.1632 -0.0847
77485W        W20423   8.580   2.195   4.737  0.2006 -0.0591  0.1589
77486W        W20424   7.976  34.601   6.020 -0.1121 -0.0441  0.0964
77487W        W20425   8.387   1.996   7.854  0.0891 -0.3266  0.0932
77488W        W20426  10.674   3.552   6.008  0.4220 -0.1777 -0.2857
77489W        W20427   7.934   0.249   5.383  0.1158  0.0554 -0.0028
77490W        W20428  10.360   0.860   5.717  0.0986  0.1498 -0.1476
77491W        W20429   8.963   2.453   4.950  0.1286 -0.0019 -0.0937
77492W        W20430   7.864   3.217   5.642  0.1306 -0.1407 -0.2407
77493W        W20431  10.772   1.406   4.261 -0.0824 -0.0787  0.0591
77494W        W20432   8.962   0.772   5.594  0.2108  0.0481  0.0752
77495W        W20433  10.211   1.934   4.571  0.1117  0.3729 -0.1820
77496W        W20434  10.469   2.921   6.555 -0.0326 -0.1920  0.1886
77497W        W20435   9.002   0.731   4.144  0.1852 -0.0026  0.0735
77498W        W20436  11.379   0.291   5.038  0.3432  0.1238  0.0024
77499W        W20437   9.468   2.694   6.612  0.1411 -0.1581 -0.1661
77500W        W20438  10.211   4.302   8.139 -0.2496  0.2197  0.0104
77501W        W20439   9.504   3.350   6.001 -0.0225  0.2367 -0.0993
77502W        W20440  11.161   2.646   4.875  0.3322 -0.4334 -0.2031
77503W        W20441   7.036  33.988   6.140  0.1572 -0.1757 -0.0476
77504W        W20442   8.538   0.833   4.599 -0.0925  0.1026  0.0459
77505W        W20443   8.963   1.632   5.111  0.5652 -0.0337 -0.2617
77506W        W20444   9.408   0.595   5.352  0.0367  0.2283 -0.1646
77507W        W20445   7.708   0.962   5.652 -0.2917  0.2343  0.0685
77508W        W20446  11.660   0.373   3.419 -0.1624 -0.1935  0.0767
77509W        W20447   8.454   3.682   6.402  0.1173 -0.0524  0.1650
77510W        W20448  10.547   2.170   5.941  0.1072  0.1452  0.1104
77511W        W20449   8.558   0.569   9.467 -0.3214 -0.1360 -0.3822
77512W        W20450   6.784  34.366   8.817 -0.1822 -0.0307  0.1664
77513W        W20451  10.015   1.361   7.574 -0.0610  0.1667 -0.1991
77514W        W20452  10.118   1.524   8.017  0.3389  0.2246  0.0690
77515W        W20453   8.078   0.230   8.556  0.2046 -0.0668 -0.3578
77516W        W20454   9.164   3.597   8.286 -0.0205 -0.1304  0.3259
77517W        W20455   8.959   2.482   9.848 -0.1424 -0.3253  0.1496
77518W        W20456   8.763   2.617   9.375 -0.1104  0.2046 -0.1714
77519W        W20457  11.024   1.658   7.320  0.0616  0.0727 -0.1726
77520W        W20458   9.104   2.742   8.966 -0.1946  0.0893  0.0991
77521W        W20459   7.719   0.672   8.250 -0.4746 -0.1449  0.0510
77522W        W20460   6.613   0.422   9.264  0.0982 -0.1364 -0.0143
77523W        W20461  10.201   0.849   9.559  0.2396  0.3168  0.1837
77524W        W20462   7.835   1.525   8.442  0.1239  0.1633 -0.0159
77525W        W20463   7.918   1.318   7.995 -0.0911 -0.0799  0.1534
77526W        W20464   9.297   1.137   8.540  0.2288  0.0188 -0.1823
77527W        W20465   9.770   2.394   7.603 -0.2911  0.0273  0.1076
77528W        W20466   8.134   1.156  10.283 -0.2639  0.1020 -0.1971
77529W        W20467   9.218   2.510   7.458 -0.1858  0.0763 -0.1950
77530W        W20468   8.826   1.231   7.763  0.1001  0.0077 -0.1966
77531W        W20469   7.051   1.251   9.232 -0.1203  0.1806  0.0276
77532W        W20470   8.752   3.807   8.070 -0.0779 -0.5129 -0.0267
77533W        W20471  10.545   1.863   9.126  0.0735  0.1975 -0.2685
77534W        W20472  11.141   1.788   7.829 -0.0049 -0.0986  0.0057
77535W        W20473   8.354   3.975   8.717 -0.1445 -0.0690 -0.0840
77536W        W20474  10.285   2.819   8.491 -0.0681  0.0965 -0.1782
77537W        W20475   8.086   1.052   8.407 -0.4235 -0.1321 -0.1204
77538W        W20476   5.709   4.492   9.190 -0.0736  0.0145  0.0289
77539W        W20477   8.594   3.161   8.257  0.0455  0.1798  0.2370
77540W        W20478   9.648   2.166   8.372 -0.0194 -0.1425  0.0485
77541W        W20479   7.523   1.825   7.541  0.1821  0.1974  0.1426
77542W        W20480   8.706   1.537   9.677  0.0947 -0.2021 -0.1146
77543W        W20481   7.914   2.324   8.799  0.4075  0.1884  0.2311
77544W        W20482   9.741   3.013  10.299  0.0148  0.0420 -0.0109
77545W        W20483   6.957   2.595   8.921  0.0789  0.1095 -0.0648
77546W        W20484   8.823   3.936   6.666  0.1017  0.0931 -0.2273
77547W        W20485   9.610   1.743   7.965  0.0087  0.0575 -0.2798
77548W        W20486   8.175   0.182   6.995  0.1895  0.0393 -0.0450
77549W        W20487   9.333  34.555   7.813 -0.1995 -0.0907 -0.2522
77550W        W20488   9.098  34.044   7.675 -0.4309 -0.0828  0.3108
77551W        W20489   8.118   3.802   7.464  0.1298  0.1349  0.1190
77552W        W20490   8.850   0.676   9.853 -0.0277  0.0570 -0.1954
77553W        W20491   8.278   3.377   8.546  0.0604 -0.0304 -0.1215
77554W        W20492  13.656  34.436   9.359  0.1290  0.0506 -0.0010
77555W        W20493   8.515   4.192   8.175 -0.1941  0.0782  0.0175
77556W        W20494   8.526   3.303   8.981  0.0892 -0.1476  0.1568
77557W        W20495  10.868   2.471   6.649  0.0724 -0.1140 -0.0408
77558W        W20496  10.333   3.256   8.584 -0.0440  0.0874 -0.3158
77559W        W20497  10.143   2.756   7.498  0.0580 -0.0796  0.1199
77560W        W20498   6.420   1.751   8.916  0.1278  0.3380  0.2154
77561W        W20499   8.847  34.527   8.087 -0.0028  0.1789 -0.1442
77562W        W20500   8.443   0.268  10.088 -0.1715 -0.3043  0.2673
77563W        W20501   9.166   3.558   7.761  0.0661  0.2248  0.0684
77564W        W20502  13.043   1.170   9.457 -0.0407 -0.1680  0.0015
77565W        W20503   9.901   3.022   6.246  0.2793 -0.1762 -0.1909
77566W        W20504  11.126   2.166   8.579 -0.0706  0.0344 -0.0103
77567W        W20505   8.922   1.124   9.559 -0.0821  0.1969 -0.2054
77568W        W20506   7.550   2.336   7.487 -0.3229  0.4137 -0.0932
77569W        W20507   8.786   2.309   8.906 -0.2677  0.2167  0.2022
77570W        W20508  11.388   3.373   8.869  0.0490 -0.1556  0.3389
77571W        W20509  11.165   0.118   7.176 -0.2024 -0.1149  0.0815
77572W        W20510   7.654   3.898   8.691  0.0113 -0.1352  0.1041
77573W        W20511   8.179   2.501   7.166 -0.0730 -0.0039 -0.0885
77574W        W20512   7.532   1.209   9.349 -0.0200 -0.0962 -0.0384
77575W        W20513   9.348   3.988   7.925  0.0732  0.0567  0.0484
77576W        W20514   6.651   0.952   9.492 -0.0896 -0.2336 -0.1854
77577W        W20515   8.325   3.271   9.918  0.1185  0.1523  0.2584
77578W        W20516   9.139   1.284   9.011  0.2615  0.2994  0.1721
77579W        W20517  10.652   0.847  10.057  0.4593 -0.0751  0.2569
77580W        W20518   8.266   0.519   8.134 -0.0686 -0.1537  0.0707
77581W        W20519  11.996   2.915   7.993  0.3175  0.0600 -0.2228
77582W        W20520  10.337   0.802   7.532  0.1124 -0.2144 -0.4174
77583W        W20521  10.547   1.988   8.580  0.2638 -0.1151  0.0761
77584W        W20522   7.431  34.539   8.875 -0.1862  0.1272 -0.2986
77585W        W20523   8.536   1.222   8.222 -0.0229 -0.3625  0.2954
77586W        W20524   7.660   0.412   9.421  0.4740 -0.2781  0.1471
77587W        W20525   8.598   0.546   7.369  0.1304  0.2084 -0.1524
77588W        W20526  11.024   1.731   8.877  0.1416 -0.3768  0.2168
77589W        W20527   8.375   1.501   8.662  0.0064 -0.4606 -0.4420
77590W        W20528   7.377   2.408   8.686  0.0305  0.1547 -0.1564
77591W        W20529  10.111   3.775   8.306  0.0737  0.5131 -0.2927
77592W        W20530   9.132   3.448   8.925 -0.2322 -0.1520  0.0266
77593W        W20531  11.532   3.712   7.672  0.0735 -0.3906  0.2433
77594W        W20532   6.707  33.902   9.406 -0.2770  0.0294  0.0829
77595W        W20533   7.770   0.224   8.965 -0.0292 -0.0917 -0.1059
77596W        W20534   7.496   4.457   8.975 -0.3217 -0.2054 -0.0443
77597W        W20535   9.264   2.113   8.734  0.4069 -0.2564  0.1969
77598W        W20536   8.232   1.626   8.206  0.0336  0.3884  0.2181
77599W        W20537  11.293   4.198  10.026  0.4775  0.0328 -0.0480
77600W        W20538   9.862   2.909   7.889 -0.3795  0.0079 -0.4142
77601W        W20539  13.008   0.708   9.713 -0.0686 -0.2889 -0.2997
77602W        W20540  10.951   0.955   8.161 -0.0190  0.3641  0.0601
77603W        W20541   7.567   0.211   8.453 -0.4033 -0.0390 -0.0705
77604W        W20542  10.675   3.037   8.960 -0.1624 -0.2281  0.0351
77605W        W20543   6.208   3.428   9.398  0.0872 -0.1033 -0.0641
77606W        W20544   7.260   0.261   8.875  0.4448  0.1058  0.0498
77607W        W20545   7.508   3.613   9.233  0.1106  0.0679 -0.1213
77608W        W20546   8.907   1.546   8.510 -0.0424  0.0858 -0.0766
77609W        W20547   7.361   0.678   8.613 -0.1976 -0.1033 -0.4877
77610W        W20548   8.222  34.288   9.204 -0.0232  0.2263  0.0980
77611W        W20549   9.705   0.802   6.849 -0.3376 -0.0280  0.1040
77612W        W20550  11.120   3.377   7.747  0.2729 -0.1494  0.0864
77613W        W20551   9.918   0.937   7.894 -0.2316  0.0409 -0.0769
77614W        W20552   9.809   0.892   7.404 -0.2351  0.3936 -0.0625
77615W        W20553   8.980   2.333   8.429 -0.0793 -0.0524  0.0053
77616W        W20554   8.629   2.104   9.438 -0.4937 -0.3165 -0.2735
77617W        W20555   8.598   0.195   7.845 -0.1502 -0.3161  0.2712
77618W        W20556  11.721   2.355   8.221 -0.1026 -0.0855 -0.1518
77619W        W20557   6.975   2.084   9.436  0.0388  0.0025 -0.0330
77620W        W20558   9.233   2.972   7.736 -0.0425  0.1300 -0.0358
77621W        W20559   6.510  34.313   9.287 -0.1783  0.1292  0.3856
77622W        W20560   7.567   1.947   8.600 -0.0951  0.0236  0.1891
77623W        W20561   7.823  33.743   8.097  0.3386  0.1961 -0.0820
77624W        W20562   8.559   2.434   7.617 -0.1299  0.1823 -0.0395
77625W        W20563   9.799   2.617   9.965  0.0766 -0.0152 -0.3593
77626W        W20564   8.124   0.399   9.335 -0.1187 -0.0997 -0.1633
77627W        W20565  10.380   0.594   8.075 -0.0829 -0.0065  0.3334
77628W        W20566   8.494   0.489   8.933  0.2112 -0.2058 -0.0008
77629W        W20567   7.653   2.692   7.934  0.0123  0.0194 -0.1776
77630W        W20568  10.192   0.995   8.324 -0.1577 -0.1536  0.0618
77631W        W20569   6.924   4.887   9.336  0.0063  0.2706  0.1518
77632W        W20570  10.118   2.398   8.730  0.1123  0.0001 -0.0435
77633W        W20571   9.659   0.389   7.187  0.0797  0.2040  0.0592
77634W        W20572   8.842   2.761   7.965  0.1757 -0.1093 -0.0866
77635W        W20573   8.621   1.985   8.444  0.3181 -0.1177  0.2135
77636W        W20574   7.855  33.923   8.549  0.1916  0.0491 -0.1552
77637W        W20575  10.181   3.505   9.769  0.1963  0.1629  0.0459
77638W        W20576   9.936   2.582   6.552 -0.2159 -0.2849  0.0842
77639W        W20577  11.076   1.820  10.142  0.0208 -0.0846 -0.0449
77640W        W20578   7.406   3.159   8.318 -0.0006 -0.0296 -0.1076
77641W        W20579  10.014  33.179  10.403 -0.0470  0.0679 -0.1351
77642W        W20580   8.217   3.864   9.349 -0.0666 -0.1547  0.0627
77643W        W20581   7.844   0.355   7.897  0.1546  0.1628 -0.0572
77644W        W20582   7.387  34.682   9.321 -0.2621  0.1171  0.0967
77645W        W20583   7.873  33.877   9.757 -0.3670 -0.4303  0.2146
77646W        W20584  11.410   2.215   6.461  0.1440 -0.0479 -0.1906
77647W        W20585  11.455  33.679  11.866 -0.2781  0.1154 -0.0517
77648W        W20586   7.510  34.445   9.995 -0.1680 -0.0432 -0.2584
77649W        W20587   5.686   3.877   9.602 -0.0155  0.2984 -0.1549
77650W        W20588  10.050  34.310   7.376  0.0988  0.1067 -0.1194
77651W        W20589   7.148   0.691   8.052  0.0757 -0.1216  0.0200
77652W        W20590   9.322   2.721  10.215  0.3028 -0.1838  0.1886
77653W        W20591   9.260   0.992   9.910  0.1162 -0.1391  0.0737
77654W        W20592   7.975   4.329   9.067 -0.0676  0.3611 -0.3363
77655W        W20593   9.046   1.627   9.371 -0.0199  0.0404 -0.1277
77656W        W20594   9.595   1.727   8.508 -0.6383 -0.0325 -0.2112
77657W        W20595   7.795   3.169   8.652  0.0797 -0.1379 -0.1846
77658W        W20596   9.792   2.076   8.911  0.0910 -0.0302  0.2465
77659W        W20597   7.848  34.144  10.212 -0.1707  0.3293 -0.2592
77660W        W20598   7.975   1.736   8.966  0.0222  0.0600  0.2457
77661W        W20599   9.472   1.288   9.377  0.4138 -0.0482 -0.0439
77662W        W20600   9.957   2.046   9.597 -0.2614 -0.1701  0.1405
77663W        W20601  11.015   2.593   9.162  0.0160 -0.0544 -0.2149
77664W        W20602   7.794   0.769   9.988  0.0138 -0.2031 -0.0549
77665W        W20603  10.901   2.943   6.880  0.0167 -0.0146  0.1031
77666W        W20604   7.800   1.147   7.525  0.2964 -0.1157  0.1932
77667W        W20605   7.822   1.543  10.229  0.1375  0.1782 -0.0056
77668W        W20606   7.444   3.861   8.264 -0.1781  0.1677 -0.1317
77669W        W20607   7.513   1.611   8.958  0.1185  0.1240  0.0496
77670W        W20608   7.650   3.161   9.151  0.0489 -0.1790  0.0355
77671W        W20609   6.613   1.932   6.986 -0.3116 -0.1589  0.0555
77672W        W20610   7.490   3.807   9.684 -0.1333  0.2412 -0.1607
77673W        W20611   9.418   0.628   8.561  0.0481  0.0354 -0.0951
77674W        W20612   8.509   2.421   8.116  0.0769  0.2124 -0.1724
77675W        W20613   9.448   0.911   8.140  0.1810  0.0257  0.1342
77676W        W20614   9.936   1.925   7.645 -0.1524  0.0711 -0.1942
77677W        W20615   8.416  34.335  11.895  0.1324 -0.1433 -0.4633
77678W        W20616  10.022   2.635   9.455 -0.1063 -0.1943 -0.0127
77679W        W20617   9.462   0.666   7.676 -0.0537  0.0658  0.2802
77680W        W20618   6.118   0.518   8.242 -0.0091 -0.1238  0.5598
77681W        W20619   8.387   1.569  10.065  0.1996 -0.2109  0.1658
77682W        W20620  10.531   1.783   8.019 -0.1693  0.1728 -0.2044
77683W        W20621  10.123   1.724   8.549  0.0082  0.0407  0.0283
77684W        W20622   6.714   2.603   9.354  0.3740 -0.1491 -0.1245
77685W        W20623  10.420   1.133   7.913  0.2753 -0.0414 -0.1926
77686W        W20624   9.603   1.607   7.393 -0.0675  0.0094  0.1931
77687W        W20625   9.543   1.799   9.563  0.0798  0.0452 -0.0404
77688W        W20626   9.722   2.998   8.370 -0.2098  0.1652 -0.1397
77689W        W20627   7.824  34.255   8.137  0.0325 -0.0797  0.3887
77690W        W20628   9.922   4.460   8.664 -0.0077  0.3161  0.0781
77691W        W20629  10.448   1.836   7.479 -0.1424 -0.2045 -0.0400
77692W        W20630   9.635   1.327   8.846 -0.0792  0.0488 -0.3413
77693W        W20631  10.073   2.081   8.169  0.4289 -0.1680  0.0593
77694W        W20632   8.941   0.865   8.356  0.1176  0.1203 -0.0981
77695W        W20633   8.370   0.922   9.112 -0.1598  0.0680  0.3125
77696W        W20634   7.994  33.873   7.179 -0.2125  0.1159  0.1559
77697W        W20635  10.167   2.295   7.279  0.0087 -0.3164  0.1768
77698W        W20636   9.489   2.451   9.057  0.1431  0.1210 -0.0577
77699W        W20637   8.992  34.294   8.503  0.0427 -0.0552  0.0413
77700W        W20638   8.780   1.174  10.047  0.0463  0.1828 -0.0819
77701W        W20639   9.043   1.661   6.476  0.0764  0.0368 -0.0753
77702W        W20640   9.155   1.674   7.729  0.0832 -0.2584 -0.0208
77703W        W20641  10.753   2.064   9.605  0.1046 -0.2359 -0.0990
77704W        W20642   9.636  34.200   7.741  0.3804 -0.0159  0.0156
77705W        W20643   7.403   3.450   8.730  0.0038  0.4282  0.3531
77706W        W20644   8.781  34.496   9.381 -0.2979 -0.0106 -0.0774
77707W        W20645   8.280   0.754   9.833 -0.1245 -0.1948  0.0003
77708W        W20646   8.236   4.847   8.951  0.3028  0.0593  0.0913
77709W        W20647   8.524  34.442   8.454 -0.1214 -0.0992 -0.1681
77710W        W20648   9.256   0.633   9.469 -0.0084  0.2750 -0.0825
77711W        W20649   9.554   2.280   9.539  0.1429  0.1597  0.0346
77712W        W20650   7.663   2.628   9.036 -0.1537  0.2478  0.0005
77713W        W20651  10.777   2.140   7.756 -0.3245 -0.0213  0.3328
77714W        W20652   9.471   3.239   9.348  0.0348  0.1691  0.0529
77715W        W20653  10.451   2.842   7.990 -0.0882  0.0995 -0.1400
77716W        W20654   6.548  34.541   8.468 -0.0428 -0.0578 -0.0583
77717W        W20655  10.052   1.806   7.185  0.2433 -0.0762  0.0281
77718W        W20656   8.706   2.723   8.431 -0.2212  0.0403  0.0036
77719W        W20657   8.320   2.914   7.366  0.0167 -0.1374  0.0147
77720W        W20658  11.649   2.409   7.086 -0.0735  0.0078 -0.2565
77721W        W20659  10.878   3.501   8.996  0.0735  0.2399 -0.0730
77722W        W20660   9.527   3.336   8.095 -0.2292  0.0758  0.2457
77723W        W20661   9.067   0.573   7.985 -0.3323  0.0265 -0.0189
77724W        W20662   8.493   4.244   9.156 -0.3967  0.1544 -0.1518
77725W        W20663   8.788   2.009   6.901 -0.0690  0.0554 -0.1037
77726W        W20664  10.571   3.143   7.636 -0.0111  0.1415  0.0388
77727W        W20665   6.876   3.884   7.352  0.3263 -0.2079 -0.1126
77728W        W20666   9.863   0.004   6.837  0.0991 -0.0969 -0.2142
77729W        W20667  11.350   1.649   9.757  0.0923  0.0409  0.2803
77730W        W20668  10.566   1.343   7.508 -0.1609  0.1973 -0.1682
77731W        W20669   7.970   1.257   9.771 -0.0941 -0.1132 -0.1052
77732W        W20670   9.190   0.109   7.128  0.0207  0.1324  0.0197
77733W        W20671  11.797   5.000   7.140 -0.0878 -0.1562 -0.3883
77734W        W20672   8.637   0.808   7.876  0.3225 -0.1229  0.1053
77735W        W20673   6.948   1.845   8.961 -0.0323  0.0327 -0.0737
77736W        W20674  12.184   1.242   8.883  0.0372  0.0621 -0.1100
77737W        W20675  11.492   2.821   5.900 -0.0670 -0.0735 -0.4841
77738W        W20676   8.360   2.459   8.651  0.1475  0.0364 -0.0101
77739W        W20677   8.000   4.290   8.489  0.1227 -0.0504 -0.0452
77740W        W20678   7.132   4.207   9.766  0.2054  0.1402 -0.1741
77741W        W20679   8.214   2.838   8.406  0.0466 -0.4328  0.1623
77742W        W20680   6.815   0.375   7.829 -0.0635 -0.0036 -0.1411
77743W        W20681  11.057   1.055   7.555  0.2074 -0.2755 -0.1377
77744W        W20682   9.607  34.067  10.061 -0.1294 -0.0901  0.2628
77745W        W20683   8.435   1.156   9.549 -0.0795  0.0554 -0.4374
77746W        W20684   9.713   1.321   8.281  0.1557  0.0321  0.2325
77747W        W20685   9.241   4.034   9.859 -0.1439  0.0576 -0.2153
77748W        W20686   6.674  34.318   9.882  0.1835 -0.0227 -0.1723
77749W        W20687   7.823   1.841   8.068 -0.1263 -0.4407 -0.0324
77750W        W20688  10.647   2.618   7.502  0.1001  0.1623 -0.1557
77751W        W20689   7.077  34.258   9.252  0.0102 -0.1763  0.0113
77752W        W20690   9.555   1.261   7.735 -0.1640 -0.1241  0.0357
77753W        W20691   8.753   1.778   8.953 -0.0680 -0.2235  0.1252
77754W        W20692  10.250   1.655   9.603  0.1145  0.0241 -0.0649
77755W        W20693   7.256  33.625   9.223 -0.0475 -0.0956 -0.0149
77756W        W20694  11.415   1.274   8.103 -0.0095  0.1890 -0.1620
77757W        W20695   9.339   2.759   9.439 -0.2020 -0.0436 -0.0848
77758W        W20696   7.499   3.561   6.907  0.1267  0.3200 -0.0748
77759W        W20697  10.165   2.168   9.169 -0.0537  0.0449  0.1235
77760W        W20698  10.592   3.052   9.940  0.1308 -0.2140  0.1199
77761W        W20699   7.347   0.368   9.906  0.0228 -0.1579  0.3594
77762W        W20700  11.649   3.767   8.943  0.0516  0.1781 -0.0241
77763W        W20701  11.368   2.511   9.689 -0.1149  0.0977 -0.2708
77764W        W20702   7.946  34.540   7.718 -0.1531  0.2209  0.0210
77765W        W20703   8.034   1.863   9.911 -0.1354  0.1836  0.0449
77766W        W20704   8.059   3.651   8.916 -0.0381 -0.2512 -0.3645
77767W        W20705  12.062  34.552  10.070 -0.0317 -0.0999  0.1999
77768W        W20706  10.063   2.032   6.114 -0.1022  0.2029  0.2235
77769W        W20707   8.302   2.096   8.982  0.0006  0.2415  0.1557
77770W        W20708   8.004   1.685   7.624 -0.2071 -0.1691 -0.0830
77771W        W20709   8.724   3.634   8.593 -0.2270  0.0571 -0.3957
77772W        W20710   8.431   1.996   7.371  0.0876  0.0577 -0.0345
77773W        W20711  11.312   3.260   8.331  0.2804  0.1108 -0.0634
77774W        W20712   9.443   1.741   9.007  0.1592  0.1923  0.0492
77775W        W20713  10.921   2.797   7.901 -0.0872 -0.0438  0.3122
77776W        W20714   8.296   1.760   9.508 -0.2711 -0.1532  0.1623
77777W        W20715  10.638   1.405   9.003 -0.2098  0.1279 -0.3196
77778W        W20716   9.862  34.187   9.109 -0.1452  0.1728 -0.1732
77779W        W20717   8.165   2.981   8.946  0.2202  0.2099  0.0411
77780W        W20718   7.509   2.175   9.631 -0.1133  0.2427 -0.1837
77781W        W20719   8.040   2.280   7.654 -0.1016 -0.1377 -0.0827
77782W        W20720   7.257   0.443  10.383 -0.3030  0.0216  0.0624
77783W        W20721   8.770   1.917  10.020  0.1326 -0.1071  0.1475
77784W        W20722   8.187   0.257   7.533 -0.0651 -0.2547  0.3548
77785W        W20723  10.487   2.581   9.151 -0.1452  0.0556  0.2740
77786W        W20724   6.824   0.092  10.053 -0.1045 -0.2702 -0.1667
77787W        W20725   6.732  33.577   8.563 -0.4462  0.2372 -0.4614
77788W        W20726  10.920   1.761   8.378  0.0073 -0.0449  0.1538
77789W        W20727   9.953   3.322   9.291 -0.2398 -0.1219  0.1209
77790W        W20728   9.021  33.804   8.734 -0.1746 -0.0435  0.0120
77791W        W20729   8.637   1.909   6.465  0.1246 -0.0628 -0.1970
77792W        W20730   6.078   0.298   8.677 -0.1835 -0.2000 -0.0148
77793W        W20731  10.266   1.274   9.316 -0.1307  0.2080 -0.1233
77794W        W20732  10.623   3.670   8.528  0.0216 -0.2722 -0.3532
77795W        W20733  10.668   3.640   7.653 -0.0181 -0.1489 -0.3592
77796W        W20734   6.014  32.596   9.663 -0.0123 -0.0989  0.0490
77797W        W20735   9.475   2.898   7.248 -0.2638 -0.2103 -0.0352
77798W        W20736  12.344   1.569   8.224  0.2630  0.3519  0.2575
77799W        W20737   9.129   0.198  10.059 -0.1113  0.0022  0.1078
77800W        W20738   8.909   3.139   8.648  0.0089  0.1284 -0.0786
77801W        W20739  10.782   2.662   9.606  0.2785  0.1416  0.1174
77802W        W20740   7.668  34.177   9.235 -0.1351 -0.0222 -0.4567
77803W        W20741   9.200  34.573   8.890 -0.0495 -0.2546 -0.3066
77804W        W20742   9.225   1.907   8.224  0.2461 -0.0944  0.1303
77805W        W20743   7.487   2.646   9.919  0.1391 -0.1153 -0.1330
77806W        W20744   7.886  34.636   9.315 -0.0062  0.0513 -0.2714
77807W        W20745   9.431   2.580   8.556  0.0316  0.1143 -0.0092
77808W        W20746   8.511   1.425   9.136  0.2188  0.3475 -0.1802
77809W        W20747  11.469   1.986   7.306 -0.2690 -0.1071 -0.1818
77810W        W20748   9.594   3.073   8.866  0.1867 -0.3086  0.1737
77811W        W20749   9.309   3.866   8.665  0.0345  0.2212 -0.0021
77812W        W20750   9.923   1.696   9.241  0.2035 -0.3968 -0.2173
77813W        W20751   8.209  32.140   9.900 -0.4412  0.0561 -0.2362
77814W        W20752   8.027   2.333   8.160  0.1705  0.3370 -0.0322
77815W        W20753   8.707   3.742   9.109 -0.0199  0.2052 -0.0718
77816W        W20754  11.125   1.272   8.796 -0.1476 -0.1012  0.0274
77817W        W20755   8.723   1.125   8.771 -0.3039  0.1802 -0.3080
77818W        W20756   9.420  33.972   7.286 -0.0337 -0.0944  0.1200
77819W        W20757  10.495   3.468   9.350  0.0772 -0.0826 -0.0647
77820W        W20758   8.635   2.808   8.890  0.2470 -0.1035  0.1940
77821W        W20759   7.197   8.251   2.026 -0.2998  0.1214 -0.0445
77822W        W20760   7.683   6.096   0.242 -0.1972  0.1684  0.0807
77823W        W20761   9.678   3.915   0.875  0.1111 -0.1430  0.0924
77824W        W20762  11.976   5.630   1.424  0.3172 -0.2879 -0.1837
77825W        W20763   7.888   3.957   1.469  0.0858 -0.0004 -0.1237
77826W        W20764  10.485   7.908  31.435 -0.2490 -0.3658 -0.0166
77827W        W20765   7.714   4.505   2.792 -0.0909 -0.1684  0.1277
77828W        W20766   9.152   6.169   2.497  0.2619 -0.1287 -0.1222
77829W        W20767  10.338   7.253   3.235  0.1342  0.1584  0.3177
77830W        W20768   7.289   6.580   0.268  0.1151 -0.0255 -0.0329
77831W        W20769  10.547   5.430   2.609 -0.3006  0.1602  0.3591
77832W        W20770   8.610   7.048   2.755  0.2378  0.0803 -0.0967
77833W        W20771   8.928   4.388   2.718 -0.5640  0.0111  0.2614
77834W        W20772   6.223   3.821   1.880  0.2373  0.5082 -0.0311
77835W        W20773  10.329   4.982   2.568  0.2139 -0.2690  0.1092
77836W        W20774   8.407   6.822   1.818  0.1754 -0.0233  0.2529
77837W        W20775   8.478   4.170   2.547  0.2258  0.1226  0.2375
77838W        W20776   9.111   4.551   0.833  0.1436 -0.0342  0.0973
77839W        W20777   7.844   7.394  31.457 -0.0983  0.0739 -0.0890
77840W        W20778   8.942   4.986   3.095  0.0015 -0.4898 -0.1540
77841W        W20779   9.050   3.981   3.612  0.0187 -0.1124 -0.0062
77842W        W20780   8.243   6.680  30.523 -0.1518  0.1068  0.0546
77843W        W20781   8.236   5.157  31.626 -0.0778 -0.2895 -0.1724
77844W        W20782   6.978   5.169   2.988 -0.2455 -0.0231 -0.1967
77845W        W20783   8.719   3.366   2.809  0.0932  0.0797 -0.0618
77846W        W20784  10.222   4.654   2.027  0.3786  0.1623 -0.2841
77847W        W20785  10.309   5.312   1.496  0.0044 -0.0581  0.0887
77848W        W20786   8.624   7.263   1.559 -0.1084  0.0670 -0.1556
77849W        W20787   7.922   8.922   1.321 -0.0849  0.0628  0.0965
77850W        W20788   9.840   5.429   3.291 -0.1982  0.2541 -0.1916
77851W        W20789   7.084   6.060   0.157 -0.2067 -0.2432 -0.0309
77852W        W20790   7.508   8.337   0.605  0.1560  0.3167 -0.1306
77853W        W20791   9.507   7.283   0.577  0.1552  0.0611  0.1391
77854W        W20792  12.138   6.700   1.217  0.0529 -0.0316 -0.2288
77855W        W20793  10.055   4.715   3.332 -0.1485 -0.1404  0.1468
77856W        W20794   7.281   8.757   2.198 -0.2215  0.4201  0.2777
77857W        W20795   7.988   6.470   0.196 -0.0049 -0.0537 -0.2779
77858W        W20796   7.894   6.659   3.461  0.0933 -0.0091 -0.3585
77859W        W20797   8.901   5.883   3.219  0.2542  0.0057 -0.0051
77860W        W20798   8.920   5.969   0.877  0.1829  0.0843 -0.0078
77861W        W20799   9.401   5.023   1.239  0.3583  0.2612  0.0544
77862W        W20800   8.445   6.452   1.458  0.0818 -0.0469  0.2131
77863W        W20801   8.603   4.693   1.117 -0.4428 -0.1342 -0.3993
77864W        W20802   7.625   5.530   4.325  0.0440  0.3500 -0.1099
77865W        W20803   8.020   5.456   1.655 -0.1486  0.2734  0.0834
77866W        W20804  10.686   4.374   4.109 -0.1504 -0.4189 -0.0409
77867W        W20805   7.635   6.973   1.118  0.0474 -0.1741 -0.0708
77868W        W20806  11.224   4.826   0.268  0.0669 -0.0831  0.0017
77869W        W20807   9.548   5.126  30.010  0.2168 -0.0779  0.1391
77870W        W20808   9.813   5.194   0.219 -0.3419 -0.0725 -0.0400
77871W        W20809  10.489   3.997   1.363  0.1022  0.1709 -0.2625
77872W        W20810   8.719   7.787   0.596 -0.1407 -0.1580  0.0926
77873W        W20811  10.016   4.515   2.476 -0.1057  0.0987 -0.1089
77874W        W20812   9.380   5.865   2.862  0.1742 -0.0924 -0.0863
77875W        W20813   9.968   5.595   0.615 -0.1559  0.0416  0.0794
77876W        W20814  10.364   5.505   3.140  0.0648  0.1336 -0.0008
77877W        W20815   6.763   9.001   1.877  0.1750  0.1695  0.1876
77878W        W20816   8.084   5.859  31.697  0.0150  0.0911  0.1062
77879W        W20817  10.329   8.332  31.221  0.4045 -0.1018  0.1776
77880W        W20818   9.902   6.551   0.977  0.1763 -0.0742  0.0294
77881W        W20819   7.897   5.996  31.213 -0.3758 -0.1689 -0.0802
77882W        W20820   8.676   4.174   0.346 -0.3690  0.3368 -0.1630
77883W        W20821   7.139   4.622   3.048  0.1699  0.1162 -0.2211
77884W        W20822   8.940   5.261   2.487 -0.1318  0.4763  0.2630
77885W        W20823   8.017   3.232  31.920  0.2828 -0.3230  0.1153
77886W        W20824  10.802   8.232   4.011 -0.1406  0.0319 -0.0815
77887W        W20825   8.543   6.120   2.861  0.0679 -0.4722  0.0839
77888W        W20826   9.950   5.115   1.208 -0.1888  0.0582  0.2084
77889W        W20827   8.407   5.672   2.769 -0.1198  0.1994 -0.1419
77890W        W20828   9.732   7.080   3.597  0.2377 -0.0080 -0.2032
77891W        W20829  10.354   6.634  31.808 -0.3113  0.3003  0.3024
77892W        W20830   9.027   4.190   2.262  0.3394  0.1564 -0.0000
77893W        W20831  10.462   3.453   1.707 -0.1503 -0.1518  0.1068
77894W        W20832   7.324   5.938  31.285 -0.1775 -0.0361 -0.2393
77895W        W20833   8.885   5.434   0.495  0.3248 -0.0820  0.1495
77896W        W20834  10.042   5.704   1.961  0.1588  0.2110  0.0566
77897W        W20835  10.418   5.398   0.566 -0.2854 -0.1953  0.1025
77898W        W20836   7.869   5.457   2.620  0.1043  0.2288 -0.1991
77899W        W20837   9.142   4.511   3.154 -0.0066 -0.0334  0.2240
77900W        W20838   9.441   6.622   2.755 -0.0603 -0.1144  0.0408
77901W        W20839   8.038   6.436   1.801  0.1708 -0.2254 -0.0833
77902W        W20840   8.358   5.994   0.735 -0.0904  0.2519  0.1976
77903W        W20841   6.790   6.177  31.131 -0.0452 -0.1173  0.0262
77904W        W20842   8.601   4.498   2.113  0.3543  0.2313  0.0425
77905W        W20843   9.545   6.879   2.235 -0.1739 -0.2046 -0.0619
77906W        W20844  10.304   4.518   0.342  0.1003 -0.0014 -0.1931
77907W        W20845   8.592   4.690   1.639  0.0922  0.1604 -0.2611
77908W        W20846  11.253   4.765   2.339  0.2041  0.0368 -0.1581
77909W        W20847   9.188   6.550  31.447 -0.2089  0.0162  0.0637
77910W        W20848  10.057   7.386  31.773  0.1289 -0.1056 -0.1144
77911W        W20849  11.430   5.427   0.456 -0.2213 -0.1816  0.3787
77912W        W20850   8.268   8.265  31.306  0.1524  0.1896  0.0387
77913W        W20851   8.413   5.768   3.287 -0.0034  0.1019  0.2872
77914W        W20852   9.143   4.998   0.376 -0.2630 -0.0388 -0.0550
77915W        W20853   7.390   3.923   1.605 -0.2459 -0.0249  0.0775
77916W        W20854   8.350   2.532   3.284 -0.0913  0.0437  0.1522
77917W        W20855  10.257   5.854   2.461  0.2799 -0.1266 -0.1513
77918W        W20856   7.568   4.643  31.503  0.0838 -0.3215 -0.2572
77919W        W20857  10.718   4.739   0.099 -0.0284  0.0097 -0.0726
77920W        W20858   9.680   4.558   1.994 -0.0304  0.0406  0.2299
77921W        W20859   7.219   6.900   2.143 -0.0633  0.0539 -0.1576
77922W        W20860   9.750   3.062   2.187  0.1013  0.2053 -0.0586
77923W        W20861   9.020   6.018  31.439 -0.0898  0.2036  0.2076
77924W        W20862  11.066   7.342   3.748 -0.0800 -0.1636 -0.0632
77925W        W20863  10.623   6.744   0.279 -0.1331 -0.2902  0.0123
77926W        W20864   8.446   4.648   2.734 -0.1713 -0.0909 -0.1634
77927W        W20865   5.402   3.550   1.886  0.1078 -0.1367  0.0559
77928W        W20866   8.616   6.932   1.175 -0.2005  0.3251  0.3613
77929W        W20867   9.074   7.078   1.956  0.0385 -0.1492  0.1485
77930W        W20868   8.208   4.257   1.683 -0.1500  0.1253 -0.2550
77931W        W20869  10.849   7.286   0.197  0.2252  0.2321 -0.1457
77932W        W20870   9.936   6.477   0.104  0.3438  0.3245  0.2374
77933W        W20871   7.484   6.327   3.095 -0.0295 -0.2392  0.0236
77934W        W20872   9.261   3.957   2.648 -0.0650 -0.1621 -0.1938
77935W        W20873   9.391   5.235   3.455 -0.1083 -0.1025  0.0145
77936W        W20874  10.034   6.187   1.608  0.2032  0.0526 -0.0399
77937W        W20875   7.842   4.727   0.382 -0.1195  0.0601 -0.0995
77938W        W20876   9.455   8.117   0.865  0.1036  0.0149  0.1377
77939W        W20877   8.186   7.118   0.453 -0.0807 -0.1417  0.3032
77940W        W20878   8.361   5.099   1.250 -0.0438  0.1919 -0.0543
77941W        W20879   8.604   7.337   0.221 -0.3935  0.1065 -0.2567
77942W        W20880  10.152   3.950   2.524 -0.1498 -0.0299 -0.0461
77943W        W20881   6.954   5.894   3.548 -0.0202 -0.0454 -0.1544
77944W        W20882  10.570   5.776   3.570 -0.3428 -0.1811  0.2854
77945W        W20883   9.208   5.477   0.927  0.1150  0.0327  0.2196
77946W        W20884   6.865   6.856   2.561 -0.2947 -0.0439 -0.1278
77947W        W20885   9.548   2.682   0.182 -0.2536 -0.0291  0.0029
77948W        W20886  10.243   3.170   0.839 -0.0681  0.0805 -0.2858
77949W        W20887   8.474   5.184   2.714 -0.2111  0.1059 -0.4116
77950W        W20888   9.770   7.046   0.924 -0.1610 -0.2381  0.1413
77951W        W20889   8.723   5.211  31.723 -0.2163  0.1371  0.1473
77952W        W20890   8.868   3.698  31.401 -0.0691 -0.3799  0.0138
77953W        W20891   7.658   6.688   2.148  0.0165 -0.0770 -0.0261
77954W        W20892  10.630   6.444   0.735  0.0498 -0.0622 -0.0623
77955W        W20893   8.958   6.679   1.577 -0.0884 -0.0168 -0.2654
77956W        W20894   8.760   5.548  30.564  0.1683  0.2161  0.0440
77957W        W20895  11.263   7.846   1.260 -0.1600  0.1738 -0.1178
77958W        W20896   7.750   6.178   2.254  0.0522  0.0515 -0.0224
77959W        W20897   9.447   6.919   3.213 -0.0102  0.2193  0.0994
77960W        W20898   9.474   7.410   1.963  0.0028  0.1412 -0.1619
77961W        W20899   9.104   3.285   1.104 -0.0380 -0.1959 -0.1406
77962W        W20900   8.594   6.442   0.054 -0.2295 -0.0422  0.0716
77963W        W20901   9.628   3.332   0.976 -0.2846  0.1121  0.0364
77964W        W20902   6.312   6.297  31.781  0.1261  0.2390  0.2865
77965W        W20903   9.799   5.921   3.586 -0.2197  0.2108 -0.0265
77966W        W20904   9.716   3.675   2.421  0.3928 -0.1541  0.1136
77967W        W20905   9.279   4.571   3.864 -0.3001  0.1455  0.0510
77968W        W20906   9.024   6.639   4.267  0.2031 -0.0717  0.1730
77969W        W20907  10.183   5.593   0.151 -0.1147  0.0972 -0.2826
77970W        W20908   9.224   5.879   0.128  0.0484 -0.1469  0.1632
77971W        W20909   8.701   5.496   0.945 -0.0028  0.0498  0.1829
77972W        W20910   9.465   4.757   3.452 -0.1730  0.1258 -0.1040
77973W        W20911   8.914   5.298   1.368 -0.1850 -0.0033 -0.2771
77974W        W20912   7.191   7.720   1.417 -0.2885 -0.1297 -0.0554
77975W        W20913  10.301   7.042   2.631 -0.0173 -0.1039  0.0758
77976W        W20914   9.375   6.729   1.215  0.2578 -0.1506  0.0735
77977W        W20915   7.897   5.278   3.973  0.0962 -0.3692  0.3155
77978W        W20916   8.585   5.996  31.794  0.0936 -0.2381  0.1153
77979W        W20917   7.343   7.752   1.928 -0.0788 -0.1448 -0.4285
77980W        W20918   9.261   7.767   0.281 -0.2075  0.4125 -0.0338
77981W        W20919   9.832   2.427   0.634  0.1119 -0.0872 -0.1335
77982W        W20920   9.517   6.401   2.188  0.0604 -0.0618  0.2678
77983W        W20921   7.504   6.222   1.144  0.2213  0.0870  0.0545
77984W        W20922   8.897   5.716   2.629  0.0588 -0.1527 -0.2160
77985W        W20923   8.515   6.429   0.906  0.0127 -0.1764  0.0932
77986W        W20924  10.091   3.868   3.007 -0.2710 -0.1228 -0.1263
77987W        W20925   8.928   6.418   0.500  0.2881  0.4052  0.0764
77988W        W20926   8.984   6.660   0.922 -0.1555 -0.0999  0.1160
77989W        W20927   6.712   4.432   2.172 -0.2456 -0.3298 -0.2834
77990W        W20928  10.892   5.543   0.639  0.3535  0.1974 -0.0171
77991W        W20929  10.685   5.221   0.957  0.3244  0.1793  0.3012
77992W        W20930   7.033   3.760   2.713 -0.0843 -0.1584 -0.0944
77993W        W20931   8.870   4.759   2.423  0.0133  0.1593  0.2827
77994W        W20932   7.271   6.841   0.775  0.2499  0.1411  0.1417
77995W        W20933   9.747   6.204   2.621 -0.0865 -0.1053  0.1904
77996W        W20934   9.001   5.640  31.792  0.0563  0.0354  0.0211
77997W        W20935  10.217   5.988   3.223  0.0113 -0.1818 -0.0154
77998W        W20936   9.179   5.394   2.068 -0.4543 -0.0373  0.0190
77999W        W20937   7.349   5.591   0.361 -0.1093  0.0540  0.1402
78000W        W20938  10.687   6.141   3.103  0.2649 -0.0100  0.1429
78001W        W20939   9.168   4.082   1.773  0.2926  0.0724  0.1839
78002W        W20940   7.637   7.389   1.322  0.1087 -0.0529 -0.0732
78003W        W20941   8.692   7.406   2.158 -0.1239  0.1124 -0.1098
78004W        W20942   8.373   6.537   0.479 -0.2311  0.0540 -0.1548
78005W        W20943   8.136   5.458   0.979 -0.3471 -0.0913 -0.0403
78006W        W20944   8.038   4.737   3.082  0.0815 -0.1453 -0.2017
78007W        W20945  10.753   5.039   2.251 -0.2698  0.0191 -0.0861
78008W        W20946  10.014   3.730   1.555 -0.2066  0.1758  0.1634
78009W        W20947   8.318   3.921   1.147  0.0633 -0.2810  0.0177
78010W        W20948   9.559   5.808   1.795  0.1214  0.1307 -0.0055
78011W        W20949   9.212   7.799   2.181 -0.0232 -0.0607 -0.2096
78012W        W20950  10.087   5.205   1.931 -0.2436 -0.0373 -0.1925
78013W        W20951   7.395   5.923   3.400  0.0117  0.1321 -0.0477
78014W        W20952   8.926   3.834   1.155  0.0671  0.0337  0.0294
78015W        W20953  11.221   8.516   0.172 -0.0806 -0.0886  0.0340
78016W        W20954   9.646   5.065   1.685  0.1468 -0.1864  0.0424
78017W        W20955   7.777   5.521   0.669  0.0581 -0.0043  0.2126
78018W        W20956   6.261   5.252   3.045 -0.2480 -0.0007  0.1400
78019W        W20957   8.967   7.558   1.798  0.0304  0.2904  0.0234
78020W        W20958   8.634   4.031   1.971 -0.0132  0.0747  0.0186
78021W        W20959   7.668   8.322   1.747 -0.1660 -0.1064  0.2693
78022W        W20960   6.767   6.729   0.890  0.2424 -0.1202 -0.2759
78023W        W20961   7.806   6.457   2.686  0.3038 -0.2268  0.1489
78024W        W20962   9.523   4.901   0.731  0.0322 -0.1015 -0.3056
78025W        W20963  10.415   6.621  31.290 -0.2136 -0.0590 -0.0197
78026W        W20964   9.349   5.477   1.444  0.2056 -0.1643  0.1697
78027W        W20965  10.104   4.167   3.458  0.0294  0.1447 -0.1249
78028W        W20966  10.400   4.608  31.221 -0.0693  0.0259  0.1381
78029W        W20967   9.544   5.375   4.406 -0.0214 -0.0443 -0.1753
78030W        W20968   8.205   3.368   2.392 -0.2107 -0.1187  0.1511
78031W        W20969   9.635   6.358   1.404 -0.1348 -0.1139  0.1315
78032W        W20970   7.622   4.133   2.355  0.0853  0.1780  0.1209
78033W        W20971   8.126   6.633   3.930  0.2238 -0.1417  0.0928
78034W        W20972   6.835   3.968   3.523 -0.1635  0.4886  0.2249
78035W        W20973  10.165   3.738   1.051  0.1137 -0.1155  0.0561
78036W        W20974   8.817   4.717   0.017 -0.2726  0.1559 -0.1244
78037W        W20975   8.410   5.117   1.771  0.1469  0.0881  0.0446
78038W        W20976   9.872   5.527   1.470  0.0084 -0.3198 -0.3797
78039W        W20977  10.137   6.977  31.510 -0.0696  0.2628 -0.0976
78040W        W20978   9.724   4.147   1.686  0.4416  0.0293 -0.0322
78041W        W20979   8.231   6.246   2.444 -0.0301 -0.1128 -0.3861
78042W        W20980  10.464   4.860   0.689  0.0030  0.0937  0.0102
78043W        W20981   8.920   5.734  31.044 -0.0953  0.0350  0.0804
78044W        W20982   8.764   5.472   1.792  0.2826 -0.1825  0.0759
78045W        W20983   8.332   4.085   3.075 -0.1160  0.0609  0.1055
78046W        W20984  10.346   5.928   0.693 -0.3481 -0.1811  0.0924
78047W        W20985   9.431   4.063   1.296  0.2599 -0.2050 -0.3927
78048W        W20986  10.988   4.129   2.119  0.0851 -0.2330  0.0259
78049W        W20987  10.901   5.585   3.009 -0.2515  0.1331  0.0871
78050W        W20988   7.687   4.346   3.702 -0.0135 -0.4289 -0.0183
78051W        W20989   7.126   4.385   4.672 -0.2025 -0.1462  0.1112
78052W        W20990  10.293   7.975   1.642 -0.0634 -0.1515  0.0231
78053W        W20991   9.007   6.842  31.746 -0.1442 -0.2676 -0.1713
78054W        W20992  10.487   3.692   3.292 -0.0606 -0.0529 -0.0153
78055W        W20993  10.709   5.528   0.204  0.2865  0.0025  0.0744
78056W        W20994   9.545   5.897  30.001 -0.2405 -0.2340 -0.3901
78057W        W20995   9.080   4.546   1.965 -0.1667  0.1772  0.0134
78058W        W20996   9.316   4.992   2.726  0.0396 -0.2514 -0.0296
78059W        W20997   7.615   5.125   0.401 -0.1242 -0.2381 -0.1061
78060W        W20998   9.662   4.305   3.179 -0.1457  0.0908  0.0841
78061W        W20999   7.380   7.969  31.000  0.2466  0.2534 -0.0295
78062W        W21000   8.514   6.337   1.952  0.0050 -0.0201 -0.1888
78063W        W21001   9.100   4.987  30.965 -0.1219 -0.0815  0.2490
78064W        W21002   7.688   5.303   1.262  0.0004  0.2437 -0.2760
78065W        W21003   7.152   7.286   2.442  0.0369  0.0701  0.1947
78066W        W21004   8.449   5.557  31.962 -0.0680 -0.1047  0.0192
78067W        W21005   8.329   6.149  31.313  0.0304  0.1367  0.1117
78068W        W21006   8.171   6.732   2.278  0.2384 -0.1871 -0.3363
78069W        W21007  10.226   6.985   4.348 -0.1181 -0.2672  0.2018
78070W        W21008   9.905   6.009   0.331  0.0327 -0.2422 -0.1157
78071W        W21009  10.569   4.827   4.030  0.0302 -0.0748 -0.2456
78072W        W21010   8.183   6.628  31.191  0.0028  0.2845  0.1534
78073W        W21011   8.734   3.733   2.399 -0.2029  0.1998  0.0038
78074W        W21012   8.982   7.333   0.562 -0.0112  0.4406 -0.1130
78075W        W21013   6.958   7.456   1.932  0.0337 -0.0282  0.1091
78076W        W21014   9.272   6.829   0.557 -0.4363 -0.2946  0.2651
78077W        W21015   9.375   4.518   2.532  0.1430 -0.1345  0.2111
78078W        W21016   8.739   5.995   0.301 -0.0776  0.1105 -0.5373
78079W        W21017   9.637   5.393   2.121  0.1167 -0.2610 -0.1928
78080W        W21018  11.255   4.385   2.667 -0.2507  0.0396 -0.1764
78081W        W21019   8.712   6.354   3.870  0.2459  0.2064 -0.3412
78082W        W21020   8.088   5.407   3.074 -0.0202 -0.2073  0.1028
78083W        W21021   8.617   6.024   2.305  0.0926  0.1009  0.0594
78084W        W21022  10.598   6.885   1.752 -0.1107 -0.2777 -0.0282
78085W        W21023   8.958   8.193   1.446  0.0606 -0.0183 -0.1307
78086W        W21024   7.582   4.675   3.314  0.2115  0.3245  0.1765
78087W        W21025   8.158   4.402   3.472 -0.1737 -0.2573 -0.0972
78088W        W21026   9.013   4.263   0.005 -0.2651  0.2079  0.0721
78089W        W21027   9.571   4.119   2.253  0.0172 -0.0771  0.0525
78090W        W21028   7.833   6.916  30.275  0.0963  0.0830 -0.1116
78091W        W21029   7.818   7.141   2.976 -0.0487 -0.2610 -0.0145
78092W        W21030   7.933   5.814   3.323 -0.3694  0.3236 -0.1395
78093W        W21031   8.783   7.476   1.102 -0.1087  0.0216 -0.1415
78094W        W21032  10.343   6.233   1.137 -0.3950  0.0935  0.1235
78095W        W21033   9.816   8.205   2.548 -0.2139  0.2404  0.0607
78096W        W21034   8.988   3.372  31.759 -0.0394  0.3883 -0.0216
78097W        W21035   8.109   6.795   0.930 -0.1195  0.0693  0.3348
78098W        W21036   7.709   6.800   0.549 -0.0528 -0.0511  0.0456
78099W        W21037  11.091   5.980  30.899  0.0032 -0.3328  0.3176
78100W        W21038   7.805   8.734   0.505  0.0870 -0.2123  0.1339
78101W        W21039   9.263   7.276   3.717 -0.3190  0.1552 -0.2860
78102W        W21040   9.386   3.576   0.615 -0.0475 -0.4364  0.4972
78103W        W21041  10.314   6.128   0.086  0.0115  0.0724 -0.2458
78104W        W21042  11.920   4.620   1.541 -0.0626  0.0148 -0.1044
78105W        W21043   8.507   6.705   4.322  0.0167 -0.3469  0.0182
78106W        W21044   9.994   6.177   2.186  0.0007 -0.0047  0.1669
78107W        W21045   9.230   2.740   0.969 -0.1616 -0.1192 -0.1003
78108W        W21046   8.510   4.953   3.358 -0.1823  0.0377 -0.1703
78109W        W21047  10.639   2.107   2.727  0.0059 -0.0168 -0.2670
78110W        W21048   7.614   7.638   2.935 -0.2649 -0.0936 -0.1352
78111W        W21049   9.380   7.081  30.404  0.0190  0.1708 -0.0237
78112W        W21050   7.315   4.753   0.597  0.1310 -0.3667  0.1133
78113W        W21051   9.649   4.425   0.927  0.0278 -0.1403  0.2341
78114W        W21052  11.053   4.402   1.655 -0.0572  0.2587  0.0491
78115W        W21053   9.363   6.309   0.914 -0.0850 -0.2198 -0.1722
78116W        W21054   9.676   5.680   0.108  0.1129  0.0555 -0.3004
78117W        W21055   9.427   6.351   0.425  0.2788  0.1779 -0.0379
78118W        W21056   8.045   6.383   1.198 -0.1015  0.0941 -0.0833
78119W        W21057   8.203   8.028   1.803 -0.1597 -0.0071  0.0708
78120W        W21058   6.880   5.457   0.887 -0.0333  0.2981  0.1957
78121W        W21059  11.507   5.068   1.201  0.1437  0.1319 -0.2943
78122W        W21060   8.028   6.295   3.174 -0.1791  0.0252  0.0466
78123W        W21061  11.651   4.432   2.969 -0.0267 -0.1207 -0.1464
78124W        W21062   7.870   4.961   0.915  0.1897  0.1552 -0.2435
78125W        W21063  10.338   5.618   1.083 -0.1039  0.0013 -0.0721
78126W        W21064  10.482   5.469   2.125  0.3691 -0.4856  0.0878
78127W        W21065   8.666   4.494   3.259 -0.6151  0.1272  0.1985
78128W        W21066   7.375   5.823  30.287 -0.2691 -0.2009 -0.2117
78129W        W21067  10.140   6.416   3.506  0.3752  0.0407 -0.0471
78130W        W21068   8.501   5.542   1.415  0.1399  0.1797  0.0038
78131W        W21069   8.868   6.661   3.048 -0.0027  0.3095  0.1197
78132W        W21070   8.148   4.421   2.263  0.0278 -0.1135 -0.0398
78133W        W21071   8.339   5.533   0.471 -0.2800  0.0271 -0.0275
78134W        W21072   7.744   4.385   1.961 -0.0277  0.2065  0.0914
78135W        W21073   9.171   4.989   1.676  0.0967 -0.4243 -0.1546
78136W        W21074   8.639   7.538   2.724 -0.1608  0.1745 -0.1010
78137W        W21075   6.975   3.827   1.333  0.1078  0.1219 -0.0292
78138W        W21076   9.263   7.473  31.240  0.0719 -0.0037  0.0048
78139W        W21077  10.889   6.536   1.950  0.0830  0.1810 -0.0385
78140W        W21078   7.840   8.142   0.266  0.0054  0.1610  0.0419
78141W        W21079  10.622   5.180  31.843 -0.1745  0.0415  0.2762
78142W        W21080   8.092   8.342   1.413  0.0548 -0.1573  0.1208
78143W        W21081   7.393   5.095   2.211 -0.2297  0.1477  0.3270
78144W        W21082   9.305   7.698   1.296 -0.0508 -0.0589 -0.2903
78145W        W21083  10.166   7.748   2.179  0.2856  0.2604  0.0312
78146W        W21084   8.922   2.125   0.277  0.1929 -0.1404  0.1916
78147W        W21085   9.290   4.904   2.224  0.0246  0.0482  0.0333
78148W        W21086   8.589   6.028   1.238 -0.0278  0.1734 -0.0084
78149W        W21087  10.947   5.057   3.292 -0.0687 -0.0189  0.0232
78150W        W21088   9.759   4.172   2.741 -0.1549  0.1402  0.1396
78151W        W21089   8.471   7.609  30.274  0.2633  0.0255  0.1619
78152W        W21090  11.815   3.655   2.766  0.0777  0.1496  0.0240
78153W        W21091   9.993   5.447   2.431  0.3352 -0.2617  0.0008
78154W        W21092   8.126   7.114   3.630  0.3525 -0.2635  0.0296
78155W        W21093   7.895   5.948   1.001 -0.0769  0.0409  0.0824
78156W        W21094   8.413   5.181   3.998  0.4358 -0.2526  0.1577
78157W        W21095   8.950   5.795   1.500  0.1545 -0.0417  0.2503
78158W        W21096  10.080   6.846  31.004  0.1890  0.4285 -0.0194
78159W        W21097   9.850   7.097   1.805 -0.3129 -0.1560  0.2555
78160W        W21098   8.219   6.043   0.188 -0.0215  0.0951 -0.3742
78161W        W21099  10.133   7.161   1.383  0.2809 -0.1587 -0.0923
78162W        W21100   6.972   3.219   2.832 -0.0977  0.0138  0.0388
78163W        W21101  12.060   3.629   1.965  0.2046  0.1183 -0.1643
78164W        W21102  10.059   4.658   1.536  0.1304 -0.3938  0.2799
78165W        W21103   9.049   5.903   2.084 -0.1684  0.1442 -0.2444
78166W        W21104   6.959   6.191   0.977  0.3849 -0.2280 -0.4021
78167W        W21105   7.743   5.183  31.809 -0.2891  0.1929 -0.2364
78168W        W21106   7.974   5.248   2.116 -0.2074  0.0863 -0.0254
78169W        W21107   8.806   4.012   4.661  0.0265  0.0497 -0.3451
78170W        W21108   6.862   4.349   2.610 -0.5039  0.1183 -0.2810
78171W        W21109   7.863   4.858   1.407  0.0078 -0.0655  0.2153
78172W        W21110   7.295   3.120   1.038  0.1678  0.1335 -0.1085
78173W        W21111   9.190   7.146   0.966  0.2135  0.0883  0.0527
78174W        W21112   8.632   3.495   1.935  0.1644  0.0675 -0.1484
78175W        W21113   6.270   4.347   1.945  0.1709 -0.2984 -0.1281
78176W        W21114   9.816   6.594   1.801 -0.0261  0.0053  0.3130
78177W        W21115  10.175   7.784   0.322  0.2279  0.0904 -0.0218
78178W        W21116   9.698   5.453   0.985  0.1890  0.1547  0.4742
78179W        W21117  10.683   8.757   4.267  0.1152 -0.2289  0.3380
78180W        W21118   6.421   6.429   1.187  0.0172  0.3102  0.0914
78181W        W21119   8.765   4.393   3.739 -0.2515 -0.1743 -0.0195
78182W        W21120   8.262   3.060   3.448  0.0779  0.1302 -0.0266
78183W        W21121   6.329   4.453   0.162  0.2282 -0.1023 -0.1122
78184W        W21122   8.937   6.513   2.117  0.1504 -0.0137 -0.0804
78185W        W21123   9.405   6.827   1.694  0.0671  0.1161  0.2333
78186W        W21124   9.803   9.240  31.881  0.0260  0.3571 -0.1574
78187W        W21125   8.716   5.798   3.779 -0.0532 -0.0530  0.2689
78188W        W21126   7.939   7.516   1.960 -0.1767 -0.0184 -0.0014
78189W        W21127   8.708   2.267   1.686  0.1468  0.0776 -0.0416
78190W        W21128   9.721   6.742   0.537  0.2826  0.0258  0.2174
78191W        W21129   8.250   7.411   3.130 -0.4782 -0.4725  0.1649
78192W        W21130  10.428   7.086   0.002  0.0262  0.0368 -0.1931
78193W        W21131   9.539   4.551   1.487  0.0750  0.1585  0.0670
78194W        W21132   8.575   5.112   0.188 -0.0176 -0.5405 -0.1318
78195W        W21133   7.482   3.976   2.862 -0.2287 -0.1096  0.2923
78196W        W21134   8.807   4.995   2.016  0.3678 -0.0384  0.1877
78197W        W21135  10.048   7.509   2.697 -0.0776 -0.2433 -0.0376
78198W        W21136   8.139   4.407   1.193  0.3022 -0.0621  0.1225
78199W        W21137  10.715   4.552   1.978 -0.1314 -0.0557  0.0091
78200W        W21138   9.452   5.771  31.088 -0.4577  0.0848  0.2769
78201W        W21139   8.278   4.935   2.336  0.0035 -0.1218  0.0639
78202W        W21140   9.875   6.003   0.893  0.0897  0.2773  0.3331
78203W        W21141   9.584   5.415   2.716 -0.2300  0.0173 -0.3564
78204W        W21142   9.243   6.272   1.783  0.0832 -0.0095 -0.0977
78205W        W21143   9.571   7.132   2.715 -0.0397 -0.3593 -0.0776
78206W        W21144   8.398   6.900  31.960  0.0014 -0.1885  0.0585
78207W        W21145  11.391   7.067  30.895 -0.1610 -0.4166  0.2259
78208W        W21146   9.499   7.616   2.770  0.0661 -0.1094  0.0153
78209W        W21147   8.934   7.089   3.426  0.4238 -0.3500  0.0733
78210W        W21148   9.146   7.384   2.385 -0.7018  0.1525 -0.2053
78211W        W21149  10.926   5.174   2.769 -0.0915 -0.0413 -0.0531
78212W        W21150   7.713   2.084   2.101  0.4635 -0.0478  0.1994
78213W        W21151   9.001   6.315   1.300  0.0320  0.1311  0.0025
78214W        W21152   9.455   5.875   0.593 -0.2905 -0.0651 -0.0854
78215W        W21153   9.750   4.953   2.385  0.1438 -0.1297  0.1644
78216W        W21154   7.802   2.963   1.766 -0.1859 -0.0196 -0.0638
78217W        W21155   9.046   4.515   1.387 -0.0579  0.0035 -0.3801
78218W        W21156   9.377   8.416   2.926  0.2152  0.0225 -0.1282
78219W        W21157  10.532   7.558   1.560  0.3271  0.3579 -0.0722
78220W        W21158   7.089   5.266   6.689  0.3323  0.0128 -0.1132
78221W        W21159   7.554   4.947   4.289 -0.0159  0.0046 -0.1600
78222W        W21160  10.239   6.086   3.864  0.1864 -0.2008 -0.0845
78223W        W21161  11.069   6.852   4.814  0.1112 -0.1670  0.2668
78224W        W21162   6.501   2.246   4.150  0.0665 -0.2582  0.0221
78225W        W21163   9.207   8.230   5.808 -0.1386 -0.1202 -0.1550
78226W        W21164   8.996   4.408   4.880 -0.2121 -0.2132 -0.2136
78227W        W21165   9.218   7.155   4.265 -0.0203  0.1458  0.0681
78228W        W21166   9.759   7.763   5.073 -0.5307  0.0858 -0.0703
78229W        W21167   9.005   6.020   4.142  0.0431  0.0365  0.0942
78230W        W21168   9.302   3.638   4.722  0.3115  0.2621 -0.1631
78231W        W21169   8.851   5.791   5.181 -0.2945  0.0284 -0.0809
78232W        W21170   9.651   4.411   4.188  0.0129 -0.0037  0.0412
78233W        W21171   7.624   2.643   4.961 -0.1328  0.0442 -0.2062
78234W        W21172  11.357   5.359   7.391  0.2413  0.1806 -0.4524
78235W        W21173   7.448   4.506   4.160  0.1114 -0.2362 -0.0020
78236W        W21174   8.186   4.526   6.226  0.1610 -0.1570  0.0393
78237W        W21175   9.465   4.242   5.099  0.0036 -0.0147  0.0161
78238W        W21176   7.972   8.569   4.037  0.0096 -0.1983 -0.2632
78239W        W21177   8.500   3.242   6.617 -0.2192 -0.3313 -0.2237
78240W        W21178   9.043   4.266   7.163 -0.0131 -0.1992 -0.1156
78241W        W21179   7.294   5.642   4.779  0.0782 -0.1407 -0.0531
78242W        W21180   7.766   4.234   3.212 -0.0510  0.1265 -0.1839
78243W        W21181   7.508   4.018   6.670 -0.1150  0.0709  0.2135
78244W        W21182   9.557   4.983   6.417 -0.1674 -0.3892 -0.1864
78245W        W21183  11.292   4.148   5.044  0.1366  0.1585  0.2832
78246W        W21184   9.707   6.125   5.490  0.1227  0.0193  0.2978
78247W        W21185   8.487   7.284   6.105  0.0862  0.0604  0.0900
78248W        W21186   9.353   6.945   7.191 -0.1390 -0.0489  0.4526
78249W        W21187   9.599   4.276   7.139  0.5582  0.0661  0.1092
78250W        W21188   7.466   6.881   4.660 -0.4030  0.0583  0.2438
78251W        W21189   8.056   5.880   5.953 -0.3252  0.0399 -0.0136
78252W        W21190   7.680   6.422   4.160  0.0831  0.2296 -0.1155
78253W        W21191  11.783   6.073   4.829 -0.1147  0.0308 -0.1457
78254W        W21192   9.296   6.584   6.794  0.1237 -0.1174 -0.0430
78255W        W21193   8.362   6.595   6.660 -0.1625  0.0107 -0.1084
78256W        W21194   7.122   7.341   3.607  0.1017  0.2212  0.0396
78257W        W21195   7.265   6.879   7.337 -0.3064  0.0113  0.0953
78258W        W21196   8.555   6.202   6.348  0.1353 -0.0569  0.0427
78259W        W21197   8.313   5.460   5.710 -0.2872 -0.1306 -0.0120
78260W        W21198   7.649   5.536   5.120 -0.1508 -0.1220 -0.3509
78261W        W21199   7.689   5.720   3.768  0.1379  0.2719  0.0794
78262W        W21200   8.830   5.871   6.762  0.0792  0.0571  0.0775
78263W        W21201   7.759   5.851   7.281 -0.2907 -0.1298  0.0503
78264W        W21202   7.065   5.084   5.938 -0.1965  0.2198  0.1352
78265W        W21203  11.695   4.838   8.055 -0.1052  0.1189  0.3736
78266W        W21204   7.300   7.196   2.926 -0.4602  0.3019 -0.0862
78267W        W21205   8.669   5.384   3.125 -0.0773 -0.0083 -0.0908
78268W        W21206   7.618   4.868   3.819 -0.1301 -0.1694  0.1050
78269W        W21207   9.506   4.881   4.333 -0.0936  0.1137 -0.0061
78270W        W21208   9.022   2.241   4.486 -0.0592 -0.1920 -0.1708
78271W        W21209   7.875   6.908   4.941 -0.2301 -0.0124  0.2101
78272W        W21210   7.935   4.104   6.318  0.0790 -0.2410 -0.1679
78273W        W21211  10.939   5.198   5.920 -0.1574 -0.0234  0.1418
78274W        W21212   9.405   5.695   3.419 -0.0304  0.2181 -0.0706
78275W        W21213  10.075   4.499   5.823  0.2690 -0.0405  0.2210
78276W        W21214   7.920   5.557   6.318 -0.0521  0.1910  0.3290
78277W        W21215   7.064   4.817   6.958  0.2078 -0.1916 -0.3252
78278W        W21216  11.012   6.584   5.655 -0.0639 -0.0579 -0.2116
78279W        W21217  11.597   6.935   6.451 -0.0393 -0.0526  0.0684
78280W        W21218   8.804   7.083   4.582  0.0921 -0.2741  0.0473
78281W        W21219   8.648   5.046   5.725  0.0700  0.2077  0.0005
78282W        W21220   7.512   4.995   6.766  0.0512  0.0193  0.0559
78283W        W21221   6.888   4.989   7.426  0.1975 -0.1622 -0.0628
78284W        W21222   7.463   2.750   3.526 -0.0629 -0.1870 -0.2721
78285W        W21223  10.099   5.989   6.478  0.3664 -0.1615 -0.2815
78286W        W21224   6.900   6.768   8.070 -0.1761  0.1271 -0.0298
78287W        W21225  10.773   6.004   4.757 -0.2523 -0.1310 -0.0498
78288W        W21226   7.702   4.868   6.250  0.1023 -0.1212 -0.2840
78289W        W21227   9.866   7.071   5.918  0.1369  0.0966  0.2469
78290W        W21228   9.634   6.450   3.530  0.3141 -0.0535  0.1360
78291W        W21229   8.906   5.388   4.802  0.2018 -0.2510  0.2320
78292W        W21230  10.245   3.454   6.263  0.0644  0.1046 -0.1234
78293W        W21231   8.114   4.537   5.302  0.2766  0.2289  0.1907
78294W        W21232   7.635   6.249   3.634 -0.0296  0.2504  0.0439
78295W        W21233  10.532   6.847   6.523  0.0179  0.2591  0.1247
78296W        W21234   9.847   6.365   3.082  0.0132 -0.0965  0.0595
78297W        W21235   8.117   7.713   6.070 -0.0040 -0.0238  0.0461
78298W        W21236   8.167   5.720   7.731 -0.0583  0.3035  0.1537
78299W        W21237   8.867   5.510   6.465 -0.2496 -0.2461 -0.4066
78300W        W21238   7.538   7.281   3.408 -0.1549 -0.1282  0.1159
78301W        W21239   6.512   4.267   5.204  0.3024 -0.1004  0.1230
78302W        W21240   6.841   5.324   3.804 -0.3080 -0.0465 -0.3267
78303W        W21241   6.659   3.669   4.529 -0.1526  0.0230 -0.0804
78304W        W21242   7.858   5.960   4.250 -0.2324 -0.0684  0.0607
78305W        W21243  11.581   5.049   5.372  0.1220  0.0269 -0.0941
78306W        W21244   7.730   2.506   7.041 -0.2157  0.1416 -0.0912
78307W        W21245  10.452   5.531   4.700 -0.0917 -0.0441 -0.2916
78308W        W21246   6.589   6.045   4.040  0.1958 -0.0415 -0.0935
78309W        W21247   9.930   6.781   3.954  0.1946  0.1314 -0.1617
78310W        W21248  10.565   5.711   4.169  0.0943  0.0944 -0.0660
78311W        W21249   9.143   6.609   3.545  0.0404  0.5660 -0.2991
78312W        W21250   6.088   4.550   7.516 -0.0665 -0.0988 -0.0332
78313W        W21251   8.334   3.424   5.698 -0.0765 -0.0127 -0.1903
78314W        W21252   7.533   4.397   7.946  0.2875  0.0726  0.4248
78315W        W21253   7.402   2.849   6.347 -0.0459  0.0781  0.0341
78316W        W21254  11.512   5.674   6.874  0.3972  0.2666  0.1633
78317W        W21255   7.786   2.092   4.905 -0.0522  0.0199  0.1306
78318W        W21256   7.290   4.190   3.286 -0.3452  0.3241 -0.0854
78319W        W21257   7.430   3.559   4.277 -0.1506  0.1587 -0.0605
78320W        W21258   5.521   3.956   3.400  0.0580  0.0297 -0.1811
78321W        W21259   9.866   3.004   6.827 -0.3331  0.0861 -0.0857
78322W        W21260   8.424   7.476   5.007 -0.2674 -0.0499 -0.2320
78323W        W21261  10.967   7.404   6.542  0.2533  0.1344  0.2491
78324W        W21262   9.409   7.849   5.584 -0.3123  0.0486  0.0176
78325W        W21263   8.652   4.194   6.105 -0.0266  0.1668  0.2123
78326W        W21264   7.571   3.729   3.395  0.0440  0.2012  0.3257
78327W        W21265   7.608   7.096   6.410  0.1185  0.0692 -0.2937
78328W        W21266   7.461   5.338   5.574 -0.1655 -0.1544  0.2929
78329W        W21267   8.329   4.224   3.945  0.0647  0.1541  0.1361
78330W        W21268   9.047   7.340   6.324 -0.1575 -0.3687  0.1543
78331W        W21269   8.160   4.941   5.878 -0.2013 -0.0783 -0.3564
78332W        W21270   7.006   6.864   6.887 -0.3376 -0.0864 -0.1035
78333W        W21271   9.004   5.872   6.145 -0.3279 -0.0247  0.2990
78334W        W21272  10.282   5.329   7.309  0.2934 -0.0711  0.2572
78335W        W21273   8.187   5.371   4.849 -0.1827  0.1364 -0.3751
78336W        W21274   7.943   3.699   3.015 -0.0450  0.1450 -0.0001
78337W        W21275   9.374   7.350   5.357 -0.0869  0.0952 -0.0249
78338W        W21276   6.333   7.514   3.153 -0.0658  0.5763 -0.2578
78339W        W21277   7.049   4.309   5.177 -0.1851 -0.1339  0.3459
78340W        W21278   7.890   6.797   4.406 -0.0102 -0.0461  0.2450
78341W        W21279   8.436   4.114   7.210  0.1753 -0.1293 -0.2570
78342W        W21280   5.966   5.116   8.432  0.2386 -0.0125 -0.0998
78343W        W21281  10.418   5.266   5.858 -0.0168  0.2636  0.2220
78344W        W21282   6.542   3.750   3.187 -0.0120 -0.0536 -0.0573
78345W        W21283   7.275   5.960   7.012 -0.3953  0.0791 -0.2128
78346W        W21284  10.408   4.320   5.337 -0.2746  0.2265 -0.3660
78347W        W21285  10.187   5.298   4.238 -0.1003 -0.1687  0.0900
78348W        W21286   9.828   5.341   6.041 -0.0609  0.0179 -0.0547
78349W        W21287   8.526   7.508   4.478 -0.0246  0.0049 -0.1682
78350W        W21288   9.286   4.106   4.529 -0.3155  0.1663  0.0405
78351W        W21289  11.458   4.934   3.981  0.3223 -0.2481 -0.0261
78352W        W21290   7.043   6.336   6.808  0.0771  0.3320  0.3794
78353W        W21291   9.788   6.067   6.969 -0.1765  0.1707  0.1210
78354W        W21292   7.973   5.227   5.290  0.1501 -0.0799 -0.0893
78355W        W21293   8.596   4.017   3.445 -0.1150 -0.0939 -0.1824
78356W        W21294  11.986   7.427   5.567  0.3925 -0.2504  0.0808
78357W        W21295   8.396   6.390   5.747  0.1132  0.0234 -0.1269
78358W        W21296   9.353   5.459   6.180 -0.1581  0.1439  0.1255
78359W        W21297   8.967   6.121   5.514  0.0263  0.2008 -0.0150
78360W        W21298   9.757   2.829   5.741  0.1772  0.2525 -0.3980
78361W        W21299   8.841   5.853   4.635  0.0408 -0.1121 -0.2883
78362W        W21300   9.161   4.084   6.226  0.4256 -0.1481 -0.0229
78363W        W21301   7.134   7.655   4.737  0.0125 -0.1537 -0.2645
78364W        W21302   9.488   4.922   5.893 -0.6638 -0.2520 -0.2728
78365W        W21303   8.704   4.149   5.305  0.1636  0.0206  0.1898
78366W        W21304   8.053   3.443   7.098 -0.1821  0.0257 -0.1153
78367W        W21305   9.907   3.938   6.880 -0.0464  0.3111 -0.2838
78368W        W21306   9.235   5.106   3.899 -0.1156 -0.2446 -0.3042
78369W        W21307   8.535   4.743   4.849  0.0111  0.2225  0.0703
78370W        W21308   6.330   6.042   3.594 -0.2068 -0.0905 -0.2577
78371W        W21309   8.844   6.329   5.958 -0.1013  0.0018  0.5759
78372W        W21310   6.419   5.393   7.395 -0.2406  0.1182 -0.0480
78373W        W21311   7.833   6.335   5.993 -0.1563 -0.3941  0.2705
78374W        W21312   9.875   6.896   7.259 -0.0615  0.0272  0.0761
78375W        W21313   8.638   5.612   4.226 -0.0739 -0.0935 -0.1695
78376W        W21314   9.878   4.031   6.358  0.0751  0.0381  0.3023
78377W        W21315   9.847   5.086   4.697  0.3539  0.3968  0.0390
78378W        W21316   7.901   7.274   4.134  0.1658  0.4289 -0.1386
78379W        W21317   7.189   6.497   3.522  0.1617  0.3142 -0.2110
78380W        W21318   7.414   3.095   5.533  0.0516 -0.1916 -0.1068
78381W        W21319   7.862   6.718   5.445  0.0506  0.0852  0.1415
78382W        W21320   8.585   6.738   3.565  0.0361  0.0197  0.2194
78383W        W21321   9.061   5.666   7.238  0.1059  0.1343 -0.3485
78384W        W21322   7.804   5.855   4.739  0.0440 -0.0214 -0.3933
78385W        W21323   9.750   4.469   4.680  0.0727 -0.0625  0.0829
78386W        W21324   7.923   6.211   5.482 -0.2264 -0.3181 -0.0229
78387W        W21325   8.835   4.849   4.100 -0.0466 -0.1011  0.0007
78388W        W21326   7.923   4.560   4.064  0.3966 -0.0191  0.0333
78389W        W21327  10.763   4.596   5.055  0.2099 -0.2788  0.0781
78390W        W21328   9.430   6.804   3.914 -0.2710 -0.1499  0.0243
78391W        W21329   7.308   3.224   5.991  0.0146  0.1319 -0.2610
78392W        W21330   8.671   3.660   5.355 -0.3087 -0.0271  0.1583
78393W        W21331   8.409   7.616   6.470 -0.0841 -0.0053 -0.1899
78394W        W21332   8.584   4.759   6.135  0.2061 -0.0051 -0.0045
78395W        W21333  11.318   5.491   3.587  0.0830  0.1139 -0.1486
78396W        W21334  10.212   6.719   5.189  0.1220 -0.0904  0.0119
78397W        W21335   7.851   6.830   7.225 -0.0440  0.1613  0.1519
78398W        W21336   5.988   3.970   2.807 -0.1036 -0.2059 -0.0615
78399W        W21337  10.886   5.281   6.433  0.0809 -0.0578  0.1197
78400W        W21338   8.209   4.609   4.491  0.0317 -0.2158 -0.0036
78401W        W21339   6.584   5.090   4.828 -0.0559  0.2521  0.0407
78402W        W21340   9.244   6.566   5.353  0.3764  0.4627  0.0438
78403W        W21341   7.360   5.259   3.971  0.1470  0.3293 -0.0803
78404W        W21342   8.041   4.833   4.884  0.1517  0.0286  0.0091
78405W        W21343   8.416   4.106   7.692 -0.2302 -0.1803  0.0837
78406W        W21344  10.521   5.731   6.564  0.1487 -0.2823 -0.0271
78407W        W21345   8.109   4.894   3.639  0.0431 -0.2464  0.2882
78408W        W21346   6.946   3.501   4.141 -0.2287 -0.1240  0.1840
78409W        W21347   8.427   3.806   4.933  0.0241 -0.1060  0.0753
78410W        W21348   9.564   6.805   6.118 -0.3678 -0.4303  0.1083
78411W        W21349   8.495   5.265   6.159 -0.4286 -0.1782  0.1773
78412W        W21350   8.569   4.539   6.981  0.0180  0.3335  0.0823
78413W        W21351   9.148   2.567   6.960  0.1250  0.1853 -0.1276
78414W        W21352  10.117   7.302   5.116 -0.2850  0.2169 -0.0899
78415W        W21353  10.436   5.648   7.681  0.0515  0.1551  0.0918
78416W        W21354   6.995   6.899   3.319 -0.1713 -0.1136 -0.0383
78417W        W21355   7.712   4.461   6.583  0.2352 -0.0436  0.2071
78418W        W21356   8.308   5.904   4.662 -0.0785 -0.0058  0.0061
78419W        W21357   9.222   6.334   6.292  0.1582 -0.4512 -0.2798
78420W        W21358   6.919   5.965   5.994 -0.1337  0.2059  0.1065
78421W        W21359   6.708   5.505   3.294  0.4835  0.1276 -0.2045
78422W        W21360   7.532   6.860   6.850  0.0602  0.2947 -0.2365
78423W        W21361   9.892   3.971   4.031 -0.0754 -0.1273 -0.0014
78424W        W21362   8.254   5.371   3.554 -0.2276 -0.2761  0.0186
78425W        W21363   7.885   3.938   4.005 -0.0487  0.0979 -0.2334
78426W        W21364  10.295   5.784   5.100 -0.1466  0.3009 -0.2940
78427W        W21365   9.726   4.717   2.893 -0.1435  0.1162  0.0646
78428W        W21366  10.024   2.080   6.747  0.3087  0.0996 -0.0360
78429W        W21367   9.012   3.144   6.805  0.1623 -0.1083 -0.1603
78430W        W21368   8.624   6.197   4.996 -0.1793 -0.0761  0.1002
78431W        W21369   7.191   4.437   6.697 -0.1390 -0.0872  0.4167
78432W        W21370   9.554   6.871   7.684  0.1633  0.1654  0.2180
78433W        W21371   6.531   6.064   7.081  0.0074  0.1149  0.0030
78434W        W21372   8.642   4.383   4.331 -0.1708  0.3253 -0.3025
78435W        W21373   6.148   3.903   4.632  0.0328  0.1588  0.3153
78436W        W21374  10.176   6.487   4.530  0.0461  0.3182 -0.0128
78437W        W21375  10.475   6.442   5.481  0.0312 -0.2809 -0.1054
78438W        W21376   7.190   6.291   3.923 -0.1996  0.0000  0.0371
78439W        W21377   9.826   7.027   5.402  0.0172 -0.2247 -0.2032
78440W        W21378   8.862   6.399   6.718 -0.1336  0.0719  0.0563
78441W        W21379   9.344   5.620   5.304  0.0522 -0.2169 -0.3279
78442W        W21380   8.039   5.069   4.410 -0.0608  0.2243  0.2568
78443W        W21381   7.724   4.919   5.599  0.2220  0.2520 -0.2847
78444W        W21382   9.052   4.783   7.030  0.2461  0.0563  0.1142
78445W        W21383   9.882   6.344   6.068  0.0027  0.1346  0.3014
78446W        W21384  10.572   4.313   5.807  0.0713 -0.1336 -0.0284
78447W        W21385   9.019   5.215   5.267 -0.0629  0.0705 -0.0858
78448W        W21386   9.732   5.624   5.639 -0.1752 -0.4801  0.0782
78449W        W21387   7.176   4.512   7.531  0.3338  0.2133 -0.0686
78450W        W21388   7.861   4.697   7.699  0.0781 -0.3115  0.1893
78451W        W21389   8.619   7.863   5.866 -0.2109  0.1917 -0.0709
78452W        W21390   9.041   5.327   4.349 -0.0940  0.1534 -0.4962
78453W        W21391   9.563   5.170   5.329 -0.1313 -0.0367 -0.0102
78454W        W21392  10.293   4.804   5.165 -0.0392  0.1185  0.2116
78455W        W21393   8.766   4.669   5.286  0.1650  0.1350  0.1948
78456W        W21394   8.482   3.682   6.911  0.2466 -0.1485  0.0506
78457W        W21395  10.758   5.267   7.472  0.0414 -0.0348  0.3071
78458W        W21396   7.055   2.980   4.196 -0.0973  0.0899 -0.4770
78459W        W21397  10.200   4.375   6.303  0.0656  0.0158  0.0523
78460W        W21398   8.057   7.662   4.458  0.0452  0.3890 -0.2416
78461W        W21399   9.602   5.933   6.169 -0.2202 -0.2358  0.1614
78462W        W21400   8.557   5.058   4.503  0.0376 -0.1366 -0.0025
78463W        W21401   6.555   4.744   5.397 -0.0550 -0.3547  0.1703
78464W        W21402   8.022   6.134   6.400 -0.0831 -0.1108  0.2465
78465W        W21403   8.160   5.721   3.921 -0.0286 -0.0838  0.0929
78466W        W21404   6.448   5.145   2.564  0.1570 -0.2539  0.2957
78467W        W21405  10.139   6.541   6.649 -0.0534  0.0164  0.3056
78468W        W21406  10.445   5.983   8.123 -0.2080 -0.0871  0.1890
78469W        W21407   9.252   2.867   4.894 -0.2300  0.0556  0.0920
78470W        W21408  10.328   5.025   4.681  0.2878  0.0914 -0.1813
78471W        W21409   7.307   4.807   4.652 -0.2722  0.1839  0.1279
78472W        W21410   9.317   5.341   5.695  0.0711  0.1687  0.0161
78473W        W21411   7.446   7.840   6.541 -0.0325 -0.1296 -0.0393
78474W        W21412   6.898   5.540   6.292 -0.2220 -0.0962  0.2968
78475W        W21413   8.145   7.140   5.319  0.0809  0.0733  0.2069
78476W        W21414   9.302   4.533   6.677  0.0261  0.0147  0.0392
78477W        W21415   9.469   5.335   4.896  0.1179  0.2031  0.1350
78478W        W21416   8.085   5.759   5.194  0.0411 -0.0663  0.0200
78479W        W21417  11.601   4.706   5.865 -0.0249  0.0385 -0.1119
78480W        W21418   8.925   5.192   7.537 -0.1104  0.0817  0.0335
78481W        W21419   8.104   5.124   6.377  0.1291 -0.0238 -0.0418
78482W        W21420   8.148   7.101   6.470 -0.2435  0.1733  0.1332
78483W        W21421   9.366   5.796   4.293 -0.0337 -0.1114 -0.2770
78484W        W21422   8.493   5.938   5.479 -0.0054 -0.2165  0.1850
78485W        W21423   7.368   4.078   7.244 -0.1092 -0.0989 -0.2122
78486W        W21424   8.798   5.319   7.024 -0.1510 -0.0717 -0.0843
78487W        W21425   9.635   6.624   4.331 -0.1574  0.2712  0.1306
78488W        W21426   9.049   4.203   4.104 -0.1533  0.1411  0.0256
78489W        W21427   8.569   7.978   4.442 -0.3645  0.3322  0.0738
78490W        W21428   7.608   6.231   6.726 -0.1903  0.1020  0.0421
78491W        W21429   6.721   5.020   6.383  0.2018 -0.0444  0.0008
78492W        W21430   7.392   6.040   4.420 -0.0580  0.2962  0.0783
78493W        W21431   9.479   7.969   4.458 -0.1316  0.0644  0.0579
78494W        W21432   9.165   5.596   3.891 -0.0942  0.0232  0.0036
78495W        W21433   9.355   6.337   5.806  0.0187 -0.1633  0.3044
78496W        W21434   8.025   3.894   3.493 -0.0024  0.0949  0.1209
78497W        W21435   7.421   6.245   5.696  0.1401  0.0545  0.2101
78498W        W21436   7.721   5.287   3.499  0.1531 -0.1178  0.0423
78499W        W21437  10.398   6.888   3.540 -0.2566  0.1906 -0.1295
78500W        W21438   7.850   7.118   5.952  0.2522  0.1357  0.4257
78501W        W21439  11.459   5.159   6.210 -0.0001  0.1583 -0.0869
78502W        W21440   9.710   4.380   3.662 -0.0480 -0.1064 -0.1299
78503W        W21441  10.976   5.637   5.143 -0.1552 -0.1769  0.0099
78504W        W21442  11.460   6.095   4.377  0.1103  0.0223 -0.1542
78505W        W21443   9.314   5.838   6.557 -0.0549  0.2150  0.1190
78506W        W21444   8.404   4.263   4.823  0.0468  0.0783  0.2443
78507W        W21445   8.423   4.681   3.947 -0.0410  0.1613  0.1432
78508W        W21446   6.574   5.116   7.008  0.0187 -0.0377  0.1866
78509W        W21447  11.049   4.201   6.071 -0.0053 -0.1123 -0.1383
78510W        W21448   6.266   7.416   7.110  0.1472  0.1676  0.3834
78511W        W21449   8.952   7.480   5.008  0.0882 -0.1275 -0.1279
78512W        W21450   7.105   4.873   4.054  0.0418  0.0259 -0.3046
78513W        W21451   7.832   3.800   5.667 -0.0469  0.2256  0.1879
78514W        W21452  10.747   3.355   5.490  0.1705  0.0843  0.1819
78515W        W21453   8.146   6.197   3.694 -0.0605  0.3633  0.2871
78516W        W21454   9.284   5.174   6.812  0.0540  0.3380 -0.1832
78517W        W21455   8.842   7.022   3.908 -0.1167  0.0208 -0.1806
78518W        W21456   7.835   5.328   5.907  0.0288  0.0511  0.1537
78519W        W21457   8.197   6.669   6.178 -0.1701  0.2028  0.2402
78520W        W21458   6.856   3.879   5.391  0.4270 -0.2226 -0.1373
78521W        W21459   9.757   6.223   4.777 -0.2023  0.4621 -0.3547
78522W        W21460   8.734   4.388   6.555  0.1712 -0.0779  0.0922
78523W        W21461   9.137   4.697   6.261  0.3912 -0.0407 -0.1595
78524W        W21462   6.594   4.892   5.888  0.3861  0.1041 -0.0410
78525W        W21463   9.804   5.757   5.128 -0.1361  0.0226  0.2063
78526W        W21464   9.324   6.150   5.137  0.1369 -0.3247 -0.2256
78527W        W21465   6.777   4.154   6.558  0.1201  0.2683  0.1032
78528W        W21466   8.740   5.293   3.673  0.0301 -0.0782 -0.0397
78529W        W21467  10.645   5.672   5.514  0.0633 -0.2516 -0.2934
78530W        W21468   9.253   6.325   3.175  0.2054 -0.1134  0.0647
78531W        W21469  10.036   8.242   7.254 -0.2063  0.0331 -0.1767
78532W        W21470   7.859   3.974   4.830 -0.4001 -0.2079  0.3944
78533W        W21471   9.297   5.749   4.830  0.1969  0.1554  0.1870
78534W        W21472   6.567   5.561   5.005 -0.0851  0.1921 -0.3741
78535W        W21473   7.420   5.315   6.276  0.0802  0.0089 -0.1920
78536W        W21474   8.964   7.282   7.214  0.0667  0.0073 -0.1736
78537W        W21475   7.675   3.505   4.681  0.1265  0.1009 -0.2584
78538W        W21476   8.520   7.362   3.615 -0.3198  0.0340 -0.4338
78539W        W21477  10.170   5.730   5.974  0.2004  0.2399  0.1853
78540W        W21478   7.633   8.483   3.339  0.4660  0.0557 -0.1956
78541W        W21479   9.210   6.064   3.677  0.0915  0.0145 -0.0091
78542W        W21480  10.818   8.086   4.494  0.0505  0.1954 -0.1754
78543W        W21481   5.936   3.403   6.416 -0.4242  0.1902  0.0765
78544W        W21482   9.023   6.514   4.856 -0.0523  0.1851 -0.0483
78545W        W21483  11.326   5.997   5.364  0.0785 -0.0537  0.5228
78546W        W21484  10.413   4.426   4.759  0.2594  0.1738  0.2327
78547W        W21485   8.153   4.033   5.300  0.0591 -0.1771  0.0819
78548W        W21486   8.534   5.923   5.950  0.0323 -0.1314 -0.2713
78549W        W21487   9.307   5.851   5.744 -0.0016 -0.3318 -0.2526
78550W        W21488  10.175   3.899   5.959  0.0113 -0.0572  0.4029
78551W        W21489   8.684   6.489   2.571  0.2223 -0.0685 -0.0933
78552W        W21490  10.015   5.074   6.595  0.1163 -0.2284  0.0510
78553W        W21491   9.269   6.058   7.019 -0.1391 -0.1488  0.1080
78554W        W21492   8.250   5.973   7.267 -0.1558 -0.1002 -0.1658
78555W        W21493   7.076   3.916   4.458  0.0264  0.1110  0.0328
78556W        W21494  10.075   4.227   7.270 -0.2993 -0.3139 -0.2663
78557W        W21495   8.362   6.068   4.165  0.2284  0.0543  0.0625
78558W        W21496  10.529   7.113   4.783 -0.3898 -0.1022 -0.3281
78559W        W21497  10.675   6.474   6.106  0.1368  0.0290 -0.0194
78560W        W21498   8.399   4.950   5.284  0.6587 -0.0549  0.4052
78561W        W21499  11.957   6.386   5.718  0.3371 -0.2874 -0.1180
78562W        W21500   8.766   3.213   6.057 -0.0755 -0.1051 -0.1202
78563W        W21501  11.226   4.444   4.284  0.0979 -0.1420 -0.0583
78564W        W21502  10.137   4.451   3.869  0.0712 -0.2023 -0.1765
78565W        W21503   6.813   5.310   5.456 -0.3225  0.2937  0.0990
78566W        W21504   7.632   5.198   4.724  0.1696 -0.1138  0.1993
78567W        W21505   7.253   5.486   3.365 -0.2802  0.1420 -0.4999
78568W        W21506   8.687   6.298   4.510 -0.2756 -0.1524  0.0609
78569W        W21507   9.735   3.717   7.858  0.0161  0.2898  0.0089
78570W        W21508   7.949   3.656   6.673 -0.1014  0.0110 -0.1785
78571W        W21509   7.084   4.818   5.512  0.0315 -0.0042 -0.1929
78572W        W21510   7.717   4.565   4.578 -0.2302 -0.1779  0.0826
78573W        W21511  10.687   7.019   4.014 -0.2083 -0.0024  0.0416
78574W        W21512   8.027   3.071   6.395  0.1981 -0.0771 -0.0693
78575W        W21513   7.392   4.266   6.229  0.2375 -0.1206 -0.3591
78576W        W21514   9.312   6.881   4.698  0.1896 -0.0127  0.4214
78577W        W21515  10.747   6.860   5.217  0.0050  0.1094  0.1937
78578W        W21516   8.061   3.571   5.154  0.3352  0.0382  0.1198
78579W        W21517  10.975   6.907   7.238  0.3605  0.3909  0.0122
78580W        W21518   7.610   5.666   2.993  0.4872  0.1772 -0.1346
78581W        W21519   8.962   5.161   6.069  0.0382  0.1229 -0.0787
78582W        W21520   8.297   4.107   6.662  0.1588  0.0756 -0.1982
78583W        W21521   6.810   2.859   3.274  0.0076  0.2030 -0.0589
78584W        W21522   8.499   4.484   5.707 -0.0794 -0.1724 -0.1171
78585W        W21523   9.004   6.773   5.883  0.1642  0.1818 -0.1160
78586W        W21524   8.637   6.286   3.292  0.0842  0.0316  0.3560
78587W        W21525   8.908   5.035   6.555  0.3988 -0.1927 -0.2167
78588W        W21526   8.676   7.133   6.632 -0.1531 -0.1501  0.0855
78589W        W21527   6.462   3.588   6.548 -0.1160 -0.1270 -0.1779
78590W        W21528  10.215   6.011   4.669 -0.2105 -0.0675  0.0292
78591W        W21529   8.437   5.086   7.362  0.0337  0.0514  0.1452
78592W        W21530  11.265   7.927   4.427  0.1170  0.4154  0.0760
78593W        W21531  10.012   5.051   5.593 -0.0085  0.0698 -0.1214
78594W        W21532   8.519   5.454   5.193 -0.0596 -0.0442  0.3015
78595W        W21533   8.625   3.252   7.172  0.1102 -0.1748 -0.0768
78596W        W21534   6.468   5.448   6.565 -0.1107  0.1254 -0.3139
78597W        W21535  10.164   6.232   5.137 -0.2254  0.2746 -0.1753
78598W        W21536   8.596   3.901   4.215  0.0333 -0.2301 -0.1905
78599W        W21537   9.316   4.855   4.887  0.0519 -0.1804 -0.0615
78600W        W21538   9.069   7.558   4.508  0.0489 -0.0575  0.0071
78601W        W21539   7.426   3.743   6.016  0.1517 -0.2205  0.1403
78602W        W21540   9.339   6.193   4.555  0.2798 -0.3177 -0.6071
78603W        W21541   7.491   5.477   7.219 -0.2696 -0.1415 -0.0353
78604W        W21542   8.412   6.809   4.875 -0.0147  0.1088  0.1897
78605W        W21543  10.116   5.616   6.864  0.0994  0.0871 -0.2580
78606W        W21544   7.935   4.459   5.794 -0.0036  0.3065 -0.3391
78607W        W21545   9.162   5.418   3.024  0.0049 -0.3625 -0.0001
78608W        W21546   8.991   6.893   7.693 -0.2573 -0.5207 -0.1878
78609W        W21547   9.729   6.919   8.159 -0.0011 -0.0717  0.2536
78610W        W21548   8.454   5.048   6.737  0.1897  0.2527  0.2158
78611W        W21549   9.679   6.298   6.517 -0.1758  0.2266 -0.0066
78612W        W21550   8.625   2.821   6.858  0.1482 -0.0288  0.0083
78613W        W21551   7.401   4.678   5.869  0.1406 -0.0087  0.1200
78614W        W21552   8.712   6.683   6.283 -0.1093  0.1357 -0.2118
78615W        W21553   9.779   5.593   6.460  0.3192  0.0666 -0.0257
78616W        W21554   8.249   3.622   4.542 -0.0644  0.1920 -0.0126
78617W        W21555  10.106   4.647   4.375 -0.0452  0.0936  0.1767
78618W        W21556   8.559   6.897   7.482  0.4966  0.0220 -0.0544
78619W        W21557   8.763   6.721   5.432  0.0397 -0.1558  0.0512
78620W        W21558   7.213   6.596   9.581  0.0187  0.0133  0.0297
78621W        W21559   9.554   4.900   8.441 -0.1075 -0.3216 -0.1010
78622W        W21560  10.316   4.824   7.433 -0.0572 -0.0865  0.0815
78623W        W21561  12.046   4.797   8.948 -0.0948 -0.2359  0.0922
78624W        W21562   7.828   4.680   8.720 -0.0046 -0.1774 -0.1383
78625W        W21563   9.036   7.390   8.494  0.1918 -0.1960  0.0522
78626W        W21564  13.913   7.482   9.699  0.0335 -0.2935 -0.1416
78627W        W21565   9.715   7.939   9.692 -0.2273  0.0056 -0.2525
78628W        W21566   9.505   5.511   8.301 -0.1450 -0.1466 -0.0641
78629W        W21567   9.668   4.735   9.044 -0.2777  0.2690 -0.1774
78630W        W21568   7.904   3.118   8.106 -0.0925  0.0619  0.0055
78631W        W21569   6.430   5.106   8.713  0.1585 -0.0813 -0.1607
78632W        W21570   9.866   5.423   9.489  0.2787  0.1952  0.0750
78633W        W21571   8.106   5.534   8.263  0.2167  0.0121 -0.1334
78634W        W21572   7.100   3.982   8.677 -0.2363 -0.1000 -0.1637
78635W        W21573   8.816   4.124   8.582  0.0866  0.2552  0.1602
78636W        W21574   9.946   7.982   7.720  0.1251 -0.4413 -0.0142
78637W        W21575   9.226   4.687   9.347  0.3284 -0.1769  0.1239
78638W        W21576   9.075   5.140   8.349 -0.0757  0.1385 -0.0797
78639W        W21577   6.347   4.535   7.084  0.0238  0.2536 -0.1161
78640W        W21578   5.869   4.358   9.718  0.2450  0.0171 -0.2453
78641W        W21579   8.631   5.628   9.579 -0.3447 -0.1419 -0.2117
78642W        W21580   9.448   4.581   8.049  0.0879 -0.2774 -0.0095
78643W        W21581  10.665   4.929   9.302 -0.2776  0.0831  0.3022
78644W        W21582   8.332   7.290   9.639 -0.1189  0.0523  0.0920
78645W        W21583  11.302   5.513   9.328  0.0230  0.2118 -0.1650
78646W        W21584   8.388   6.095   9.285 -0.0251 -0.2350 -0.1665
78647W        W21585  10.032   7.799  11.838  0.0664 -0.0796  0.1797
78648W        W21586   9.607   4.871   9.734 -0.0074 -0.3169 -0.3017
78649W        W21587  11.253   5.889   8.720 -0.2688  0.0875 -0.1499
78650W        W21588   7.301   8.159   7.576 -0.0442 -0.0172  0.0901
78651W        W21589   8.251   5.973   8.613 -0.2721  0.2080 -0.1665
78652W        W21590  10.456   4.118   8.521  0.0240  0.0143  0.0127
78653W        W21591   9.420   5.020   7.493 -0.1395 -0.1140 -0.0258
78654W        W21592   9.830   7.606   9.216 -0.3755  0.1893 -0.2209
78655W        W21593   7.608   8.264   8.814 -0.0290 -0.0111  0.1432
78656W        W21594   8.078   5.403   7.350 -0.0475 -0.1405 -0.2236
78657W        W21595   9.456   5.144   7.989  0.0359  0.2287  0.2352
78658W        W21596   8.666   3.665   7.499  0.1136 -0.1269 -0.2701
78659W        W21597  10.753   3.368   7.222 -0.1502  0.1514 -0.0626
78660W        W21598   8.594   3.170   7.712 -0.0853 -0.4222  0.0928
78661W        W21599   7.889   6.479   8.012  0.1500  0.1163 -0.2484
78662W        W21600   8.031   3.379   9.428  0.0152  0.2181 -0.1601
78663W        W21601  10.103   4.754   6.985  0.4662 -0.3388 -0.4203
78664W        W21602   7.068   4.532   8.782 -0.1456 -0.2307 -0.1070
78665W        W21603   8.208   7.955   9.299 -0.3958  0.1787  0.1651
78666W        W21604   8.068   5.220   9.597  0.0629  0.3436  0.0579
78667W        W21605  10.145   6.470   8.198  0.1982  0.1547 -0.2245
78668W        W21606  10.118   7.908   8.226 -0.0586 -0.1217 -0.1017
78669W        W21607   8.429   6.150   7.688 -0.3329 -0.2846  0.2274
78670W        W21608   6.720   3.606   7.713  0.1637 -0.0730 -0.2166
78671W        W21609   8.883   2.801   6.385 -0.0414  0.0160 -0.0024
78672W        W21610  11.176   3.789   8.632  0.3816  0.3263 -0.0492
78673W        W21611  10.090   5.044  10.068 -0.2740  0.0253  0.0902
78674W        W21612  10.662   5.699   9.785  0.2867 -0.1623 -0.1367
78675W        W21613  10.583   6.589   7.031 -0.3321 -0.1143 -0.1550
78676W        W21614  11.664   2.908   8.415 -0.1366 -0.1223  0.1700
78677W        W21615  12.851   4.251   9.487 -0.0639 -0.1059  0.7113
78678W        W21616   7.895   4.967   7.261 -0.1680  0.0450 -0.2507
78679W        W21617   9.002   4.855   7.950 -0.1892  0.0566  0.1451
78680W        W21618  11.714   6.279  10.003 -0.3480 -0.2350 -0.0681
78681W        W21619   9.817   4.533   6.616  0.1968 -0.0077 -0.3241
78682W        W21620   8.853   4.996   9.674  0.0410 -0.3964  0.2137
78683W        W21621   8.383   4.610   7.724  0.0259  0.0076 -0.2057
78684W        W21622   6.763   7.211   9.776 -0.0658 -0.2365 -0.0707
78685W        W21623   7.516   6.380   7.254 -0.0364 -0.3153  0.0074
78686W        W21624   6.468   6.692  10.054 -0.2678 -0.0644  0.2350
78687W        W21625   8.434   6.934   8.943 -0.2208  0.0855 -0.0671
78688W        W21626  10.814   3.081   8.364 -0.0080 -0.2347  0.1911
78689W        W21627  11.505   4.138   9.537 -0.2028 -0.2845 -0.0545
78690W        W21628   7.313   6.175   8.624 -0.0389  0.1546 -0.1520
78691W        W21629  10.240   6.748   8.774  0.2248  0.3270  0.0334
78692W        W21630  10.479   5.276   6.824  0.2264 -0.1295 -0.3712
78693W        W21631   9.833   6.438   7.708  0.1654  0.1162 -0.2777
78694W        W21632   6.692   4.711   8.497 -0.1933  0.0338  0.1707
78695W        W21633   7.588   3.618   7.425  0.0205  0.0231 -0.1080
78696W        W21634   6.060   3.316   9.860 -0.1573 -0.1060  0.0316
78697W        W21635   6.937   3.116   7.707 -0.0985  0.2820 -0.1630
78698W        W21636  10.561   3.363   8.050  0.0235  0.0133 -0.0675
78699W        W21637   8.060   4.338   7.966 -0.0152 -0.0454  0.0944
78700W        W21638   7.559   6.117   8.188  0.0555  0.1372 -0.0647
78701W        W21639   9.243   7.042   8.137 -0.3023  0.0449  0.3947
78702W        W21640  12.791   6.324   9.427 -0.0170  0.0068  0.0077
78703W        W21641   8.459   9.016   9.837 -0.2632  0.0994  0.1433
78704W        W21642   5.269   4.908  10.414 -0.0926 -0.3182  0.4172
78705W        W21643   8.186   5.005   8.393 -0.2988 -0.1161 -0.1142
78706W        W21644   7.594   8.424   8.306  0.1423 -0.1096 -0.1688
78707W        W21645   8.641   5.272   7.998 -0.2385  0.1039 -0.2475
78708W        W21646   9.950   4.710   7.896 -0.0497 -0.1520 -0.0429
78709W        W21647  10.949   8.244   9.206 -0.1754  0.2731 -0.2215
78710W        W21648   8.422   5.598   6.929 -0.0244 -0.1760 -0.0415
78711W        W21649  11.888   6.458   9.441 -0.2217  0.0068 -0.0271
78712W        W21650   8.946   4.632   8.467  0.0531  0.1997 -0.3126
78713W        W21651   7.027   4.546   8.079  0.0914  0.1154 -0.0314
78714W        W21652   8.484   5.292   9.193 -0.3102  0.0497 -0.0362
78715W        W21653   7.886   6.152   7.622  0.0530  0.0193  0.1324
78716W        W21654   7.233   5.359   8.663 -0.0023  0.0866 -0.4523
78717W        W21655   8.476   6.862   7.987  0.1318  0.1902 -0.1406
78718W        W21656  11.028   4.071   8.242  0.3324  0.1420 -0.0036
78719W        W21657   7.777   5.201   8.647 -0.0590 -0.2454 -0.1501
78720W        W21658   9.185   2.952   8.259  0.0145 -0.0673 -0.0855
78721W        W21659  10.225   3.894   7.707  0.1245  0.1041  0.2921
78722W        W21660   9.085   6.010   8.112  0.1290 -0.0168  0.0923
78723W        W21661   9.141   5.739   8.546 -0.1011  0.1214  0.3122
78724W        W21662   9.488   3.468   7.035 -0.1709 -0.1891 -0.2312
78725W        W21663   8.814   4.702   7.467 -0.1701 -0.0142  0.2570
78726W        W21664   9.749   6.547   8.785 -0.0984 -0.0329 -0.1238
78727W        W21665   9.018   4.621   5.793 -0.1203 -0.0450 -0.3076
78728W        W21666   9.884   7.761   8.683 -0.2055 -0.0137  0.3941
78729W        W21667   7.821   3.565   8.397  0.2933 -0.3016  0.0192
78730W        W21668  10.337   5.651   9.289  0.0872 -0.0213  0.0237
78731W        W21669   9.249   5.359   9.836  0.1312  0.1098  0.1133
78732W        W21670   7.650   5.195   7.630  0.3605 -0.1187  0.0485
78733W        W21671   9.824   5.211   7.069  0.0961 -0.0580 -0.0869
78734W        W21672   7.013   7.434   7.602 -0.3276  0.0873 -0.0289
78735W        W21673  10.082   3.842   9.388  0.2729  0.6128 -0.0359
78736W        W21674  10.456   5.282   9.586 -0.0927  0.2128 -0.0167
78737W        W21675  10.269   6.126   7.581 -0.1412 -0.2079 -0.3769
78738W        W21676   9.498   4.358   9.587  0.3277 -0.2340  0.0508
78739W        W21677   6.940   5.829   8.370 -0.1452 -0.1127  0.1637
78740W        W21678   8.968   3.116   9.349 -0.1875  0.0533  0.2178
78741W        W21679   5.816   8.187   9.309 -0.1752 -0.0146  0.2029
78742W        W21680  10.415   5.419   8.196 -0.0859  0.0717 -0.1869
78743W        W21681   9.851   3.486   6.578  0.0665 -0.0171 -0.1776
78744W        W21682   8.032   7.542   7.511 -0.1983 -0.3705 -0.1380
78745W        W21683   7.632   4.547   7.194  0.3969  0.1711 -0.0331
78746W        W21684   9.686   4.092   8.260 -0.3791  0.2164 -0.1359
78747W        W21685   9.581   6.226   9.129 -0.0102 -0.1036 -0.0047
78748W        W21686   8.376   5.721   6.440  0.1722 -0.1329 -0.0652
78749W        W21687   8.466   6.393   8.789  0.0230 -0.0534 -0.1558
78750W        W21688   8.272   5.354   8.742 -0.3220  0.0496 -0.2897
78751W        W21689  10.140   3.347   7.665 -0.1529 -0.1184  0.1414
78752W        W21690   6.951   7.377   8.953  0.0054  0.0655  0.2308
78753W        W21691   7.777   4.189   7.543 -0.2425  0.0412  0.1150
78754W        W21692   6.530   6.057   8.054  0.1131 -0.0555 -0.1423
78755W        W21693  10.348   2.561   9.873  0.2033  0.2171  0.2001
78756W        W21694  10.871   5.485   7.906 -0.1139 -0.4416  0.3125
78757W        W21695   8.862   4.022   9.496 -0.4430  0.2121  0.2428
78758W        W21696   8.496   4.715   8.213  0.1704 -0.0171  0.3339
78759W        W21697   6.831   4.384   9.329 -0.1076  0.3033  0.0948
78760W        W21698   9.371   3.939   6.782  0.1446  0.0448 -0.0549
78761W        W21699   6.524   5.387   6.037 -0.0170  0.0459  0.3828
78762W        W21700   9.247   6.277   8.546  0.1048  0.2791 -0.1125
78763W        W21701   7.038   3.516   8.430  0.1893 -0.2141  0.2529
78764W        W21702   7.771   5.973   8.621 -0.0108  0.1430  0.2130
78765W        W21703   9.206   5.720   9.429  0.1290 -0.0292  0.0885
78766W        W21704   7.891   4.024   7.062  0.0727 -0.0183 -0.4307
78767W        W21705   7.356   6.514  10.064  0.2390  0.0987 -0.2329
78768W        W21706   9.680   5.975   8.624 -0.0502 -0.0168 -0.1513
78769W        W21707  10.107   2.978   8.952  0.1425 -0.1705  0.1174
78770W        W21708   9.994   3.342   7.136  0.0915 -0.1420  0.4119
78771W        W21709   8.521   4.492   8.685 -0.2233  0.1423  0.3931
78772W        W21710  11.798   5.565   9.473 -0.0505  0.1599  0.1249
78773W        W21711  10.705   5.391   9.086 -0.0189 -0.2479  0.0834
78774W        W21712   8.718   2.915   9.847  0.0546 -0.0028 -0.1681
78775W        W21713  10.840   7.450   9.240 -0.2468  0.3125  0.1294
78776W        W21714   7.298   6.001   7.483  0.0301  0.0358 -0.4425
78777W        W21715   5.893   5.008  10.041 -0.1427  0.1784  0.2193
78778W        W21716   7.141   5.334   9.182  0.1219  0.1609  0.1500
78779W        W21717   8.774   3.955  10.002  0.1049 -0.1968 -0.0718
78780W        W21718   7.686   5.220   8.138  0.2288 -0.2178  0.1096
78781W        W21719   6.368   6.127   8.705 -0.4571 -0.2450 -0.1299
78782W        W21720   6.634   5.719   8.790 -0.1325  0.2829  0.2440
78783W        W21721  11.075   3.025   7.399  0.1387  0.0848 -0.0524
78784W        W21722   9.051   6.554   8.112 -0.1663  0.4407 -0.1701
78785W        W21723  11.047   3.994   7.675  0.2523  0.0933  0.0712
78786W        W21724   9.898   5.138   7.635  0.0682 -0.0675  0.0931
78787W        W21725   8.131   1.945   8.535  0.1772  0.2662  0.0082
78788W        W21726  10.805   6.211   9.595  0.1106  0.1230  0.0339
78789W        W21727  10.772   4.559   8.255  0.2673 -0.4374 -0.0837
78790W        W21728   9.293   3.876   7.413 -0.0246  0.2916  0.1005
78791W        W21729   8.315   4.154   9.749 -0.2356 -0.1529 -0.3974
78792W        W21730   9.269   6.422   7.663  0.0847  0.3659  0.0270
78793W        W21731   9.637   3.685   9.594  0.3654 -0.2209 -0.1491
78794W        W21732   9.585   3.637   9.030 -0.0721 -0.1761  0.1238
78795W        W21733   7.837   7.158   9.717 -0.0020 -0.1865  0.0261
78796W        W21734   9.891   5.505   8.634  0.3695 -0.1652 -0.0069
78797W        W21735  10.169   5.546   5.504 -0.0965 -0.1812  0.1104
78798W        W21736   7.873   4.800   9.368  0.1482 -0.0375 -0.2227
78799W        W21737  10.778   7.820   9.567 -0.4638 -0.2291 -0.1206
78800W        W21738   9.772   3.478   8.528 -0.3791  0.2357  0.1026
78801W        W21739  12.220   5.917   8.654  0.0895 -0.2949  0.2833
78802W        W21740  11.810   5.692   8.491  0.2334  0.0478 -0.1895
78803W        W21741   8.660   5.048   8.651  0.3508  0.4459 -0.0253
78804W        W21742  11.060   4.499   8.693  0.2497 -0.2132 -0.0952
78805W        W21743   9.317   4.469   7.530 -0.0210  0.3481  0.0473
78806W        W21744   6.854   4.085   7.834 -0.5371  0.3936  0.1818
78807W        W21745   8.981   3.646   7.052 -0.1665 -0.1277  0.0486
78808W        W21746   8.628   5.585   7.500 -0.1543  0.0082  0.1274
78809W        W21747  10.044   6.377   9.206  0.1310  0.0662  0.4179
78810W        W21748  10.972   3.573   8.186  0.1378 -0.2258 -0.0439
78811W        W21749   6.330   4.537   9.443  0.1544  0.0783  0.1913
78812W        W21750   6.418   3.906   7.971  0.0922 -0.2145  0.5272
78813W        W21751   7.185   5.293   8.168  0.2066 -0.2467  0.2413
78814W        W21752  11.065   7.872   8.893  0.2480 -0.2369  0.1436
78815W        W21753   8.958   3.494   6.451 -0.1270 -0.1723 -0.2023
78816W        W21754   7.678   5.674   7.878  0.0782 -0.2037 -0.1425
78817W        W21755   9.798   3.743   7.367  0.3306  0.0220 -0.2250
78818W        W21756   8.640   7.642   9.263  0.6135  0.2899  0.1431
78819W        W21757   8.538   6.428   8.295 -0.2164  0.1726  0.0785
78820W        W21758   9.158   3.633   9.482  0.0698  0.3336 -0.3030
78821W        W21759   7.545   5.770   9.364 -0.1372  0.1263  0.0425
78822W        W21760   8.392   4.812   9.430  0.2517  0.2202 -0.0396
78823W        W21761   8.599   5.836   8.057 -0.0646  0.3383  0.1029
78824W        W21762  12.396   6.568   9.304  0.2167  0.0011 -0.1447
78825W        W21763   9.176   4.877   8.776  0.0423  0.1026 -0.1808
78826W        W21764   8.145   6.076   8.112  0.1048 -0.0760 -0.1058
78827W        W21765   8.258   2.806   7.868 -0.0422  0.0151 -0.0720
78828W        W21766  10.764   5.898   7.138  0.1081 -0.1186  0.0411
78829W        W21767   8.694   5.466   8.428 -0.0628 -0.0640 -0.3530
78830W        W21768   8.910   6.537   8.908  0.1211  0.4291  0.0648
78831W        W21769   9.564   4.787   7.041 -0.0411  0.4615 -0.3238
78832W        W21770   9.778   4.226   7.695 -0.1162 -0.3328  0.0997
78833W        W21771  12.724   6.644  10.125  0.2263  0.1730  0.0417
78834W        W21772   8.066   6.392   6.996 -0.0872  0.2075  0.1479
78835W        W21773   9.332   7.738   9.396  0.1687 -0.2740  0.0171
78836W        W21774   7.130   8.098   8.547  0.2573 -0.1269 -0.3417
78837W        W21775   9.366   5.502   7.586 -0.2451 -0.1526 -0.0220
78838W        W21776   7.082   6.668   8.534 -0.1142  0.1627 -0.1720
78839W        W21777  11.133   3.671   6.330 -0.1070 -0.1653  0.1304
78840W        W21778   8.969   5.905   7.676 -0.1029  0.2139  0.2372
78841W        W21779  10.475   3.437   6.752 -0.2626 -0.1737  0.0821
78842W        W21780   7.481   4.959   9.048 -0.1962 -0.1868 -0.3122
78843W        W21781   9.115   3.301   7.348 -0.0560  0.0323  0.0498
78844W        W21782  10.803   7.722   7.781 -0.0802  0.2883  0.1872
78845W        W21783   7.322   4.019   7.739 -0.1801  0.0465  0.3505
78846W        W21784   8.379   6.581   9.684  0.1561  0.0823 -0.1025
78847W        W21785  10.887   3.635   9.585  0.0980 -0.1985 -0.0398
78848W        W21786  10.292   6.068   6.944 -0.1241  0.0061  0.0129
78849W        W21787   8.975   4.354   8.965 -0.0639 -0.1813 -0.1337
78850W        W21788   8.185   6.573   7.638  0.0182  0.0160  0.1319
78851W        W21789   4.599   4.613   9.805 -0.0640 -0.1747 -0.1083
78852W        W21790  10.008   4.348   9.420  0.0827  0.1076 -0.1189
78853W        W21791   8.666   2.425   7.128 -0.0107 -0.0258 -0.0449
78854W        W21792  11.181   4.515   7.955 -0.1074  0.0107 -0.2674
78855W        W21793   7.358   4.641   9.426 -0.4503  0.0635  0.3324
78856W        W21794   6.908   5.022   8.837 -0.1246 -0.3371 -0.1081
78857W        W21795  10.007   5.213   9.091 -0.1129 -0.2318  0.0431
78858W        W21796   6.725   4.682   9.765  0.0524  0.1392  0.0180
78859W        W21797   7.411   6.955   9.916  0.5460  0.4055 -0.0978
78860W        W21798  10.342   4.877   8.234 -0.0646  0.1680  0.3413
78861W        W21799   9.803   4.676   7.431 -0.0898  0.0344 -0.1725
78862W        W21800   7.261   4.066   9.165  0.0860 -0.0025 -0.2633
78863W        W21801   9.633   3.326   7.513 -0.0234  0.0198  0.3298
78864W        W21802   7.494   5.661   8.362 -0.1473 -0.1154  0.0623
78865W        W21803   9.979   5.881   8.990 -0.1895 -0.0476 -0.0739
78866W        W21804   6.622   2.846   8.039  0.1066 -0.0591 -0.1046
78867W        W21805   9.561   5.640   7.012 -0.1068 -0.1174  0.1326
78868W        W21806   9.106   6.010   9.014 -0.0701  0.1266  0.0756
78869W        W21807   8.733   6.017   7.240  0.2037 -0.0836  0.2632
78870W        W21808  11.282   5.179   7.925  0.4326  0.2203 -0.3738
78871W        W21809  10.341   6.133   9.866  0.1079 -0.0920  0.2149
78872W        W21810   4.281   4.267  10.089 -0.0521 -0.1304 -0.1680
78873W        W21811   8.847   7.760   8.741  0.0241 -0.1741  0.0351
78874W        W21812  11.992   7.862   9.114  0.0567  0.1489  0.1062
78875W        W21813   7.815   3.717   7.870 -0.0743 -0.0743 -0.0394
78876W        W21814   9.966   4.176   9.893 -0.0674  0.0643 -0.2326
78877W        W21815   7.667   6.803   7.660 -0.1594 -0.1675 -0.0124
78878W        W21816   9.408   4.390   8.589  0.1313 -0.0905 -0.1609
78879W        W21817   8.455   6.146   6.855 -0.3787  0.0533  0.0767
78880W        W21818  13.054   7.251   9.502 -0.1763  0.0266 -0.0663
78881W        W21819   7.154   5.332   7.635  0.0401  0.3660 -0.3001
78882W        W21820   9.384   5.167   9.335  0.1773 -0.1445 -0.0052
78883W        W21821   9.349   6.864   8.593  0.1522 -0.0629 -0.1028
78884W        W21822  13.399   6.893   9.444  0.3324 -0.1381 -0.3049
78885W        W21823   7.708   4.259   9.511  0.1816  0.1723 -0.4008
78886W        W21824  12.142   6.427   8.932  0.1684  0.1877 -0.1309
78887W        W21825   8.793   4.871   9.069 -0.0612 -0.1723 -0.3392
78888W        W21826  11.823   2.849   8.933  0.2101  0.0052  0.0055
78889W        W21827  10.091   4.884   6.093  0.2072 -0.2186 -0.0635
78890W        W21828   7.931   4.579   9.768 -0.1450  0.0948 -0.1840
78891W        W21829   7.836   4.722   8.196  0.2020 -0.0298  0.3106
78892W        W21830   9.100   5.492   8.019 -0.0184  0.0640 -0.2733
78893W        W21831   6.154   4.333   8.966  0.2168 -0.2570  0.0669
78894W        W21832   6.394   5.075   9.870  0.0725  0.2732  0.1112
78895W        W21833   7.291   3.518   7.892  0.3392  0.2489  0.0054
78896W        W21834   9.955   5.786   8.267  0.1964 -0.0513  0.0259
78897W        W21835   8.804   4.467   9.673  0.3643 -0.0202  0.2427
78898W        W21836   6.631   4.564   7.491  0.0343  0.0566 -0.3303
78899W        W21837   6.557   5.719   9.428  0.1397 -0.1405 -0.0290
78900W        W21838   9.164   7.323   9.605 -0.3558  0.1021  0.0223
78901W        W21839   6.985   3.819   6.867 -0.0717 -0.0818 -0.0749
78902W        W21840   5.883   5.863   7.857 -0.1637 -0.0243 -0.0094
78903W        W21841   7.131   3.433   7.335 -0.0612  0.0811 -0.2130
78904W        W21842  10.249   4.778   9.080  0.0303 -0.2614 -0.1912
78905W        W21843   9.659   6.437   8.168 -0.2915  0.1255  0.1283
78906W        W21844   9.471   7.377   7.376  0.2860 -0.2472  0.0833
78907W        W21845   5.812   3.996   9.129  0.1560 -0.0240 -0.0232
78908W        W21846  10.593   6.583   8.039  0.0399 -0.2377  0.1529
78909W        W21847  10.707   6.057   8.630 -0.0678  0.0091  0.1735
78910W        W21848  10.901   5.007   8.731 -0.0494  0.1104  0.1523
78911W        W21849   9.450   5.268   8.857  0.0311  0.0071 -0.0857
78912W        W21850   9.766   6.532  10.056 -0.0369 -0.0805 -0.2425
78913W        W21851   6.094   3.096   8.839 -0.2180 -0.1978  0.0829
78914W        W21852  10.829   4.885   7.696  0.0515  0.0070 -0.1860
78915W        W21853   9.956   5.729   7.310 -0.4471 -0.2793  0.1581
78916W        W21854   7.156   5.017   9.806 -0.0527  0.1130 -0.2226
78917W        W21855  10.029   4.934   9.492 -0.0164 -0.1807  0.3749
78918W        W21856  10.825   6.960   8.744 -0.1549  0.2035 -0.1757
78919W        W21857   8.916   4.269   7.903  0.0289 -0.0600  0.2948
78920W        W21858  11.717   6.112   8.802 -0.0156 -0.5595 -0.1954
78921W        W21859   9.331   6.773   9.195 -0.0561  0.0137 -0.1029
78922W        W21860   7.735   6.230   9.446 -0.2900 -0.0651  0.1132
78923W        W21861  11.503   6.309   8.368  0.0657  0.0437 -0.0856
78924W        W21862   7.982   3.704   9.835 -0.0815 -0.1185 -0.2126
78925W        W21863   8.100   4.508   7.291 -0.4112  0.4410  0.0717
78926W        W21864   9.017   5.333   9.047 -0.1904  0.1336 -0.2034
78927W        W21865  10.012   5.969   9.538 -0.3413  0.2178 -0.2805
78928W        W21866   7.598   3.272   9.765 -0.3087 -0.0636 -0.0058
78929W        W21867   8.160   3.837   8.217  0.1751  0.0126 -0.4155
78930W        W21868   9.499   8.896   9.884  0.0515 -0.0026  0.0855
78931W        W21869   9.525   5.727   9.022  0.0544 -0.1526  0.5058
78932W        W21870   7.686   9.860   2.263 -0.1292 -0.0287 -0.1157
78933W        W21871   8.505  10.111   1.108 -0.1110 -0.1258  0.3044
78934W        W21872  10.896  10.137  31.431 -0.3577  0.3202 -0.1593
78935W        W21873   9.392   9.330   1.455  0.1278 -0.1867  0.0781
78936W        W21874   6.817   8.353   0.821 -0.1065 -0.0855  0.2054
78937W        W21875   9.863  10.090   1.870  0.4819 -0.1845 -0.1214
78938W        W21876   6.622   8.668   2.672  0.0782 -0.1390 -0.1645
78939W        W21877  10.095  10.909   0.266 -0.0355 -0.2430  0.2037
78940W        W21878   9.810  10.770   1.215  0.1557  0.0633  0.0364
78941W        W21879  10.207   9.108  30.955 -0.2356  0.1468  0.1694
78942W        W21880   8.026   7.835  31.884  0.1368  0.1884 -0.4208
78943W        W21881   8.542   9.495   1.739  0.0866 -0.0408 -0.1466
78944W        W21882   9.266   7.702   0.764  0.2319 -0.2100 -0.2907
78945W        W21883   8.141   5.752   2.292  0.1051  0.1491  0.2001
78946W        W21884  10.508   8.845   1.266  0.0993  0.0824  0.1198
78947W        W21885   7.394   8.949   0.352  0.2998 -0.0025  0.1327
78948W        W21886   7.465   9.072   2.559  0.0761  0.1471 -0.1288
78949W        W21887   8.036   7.603   0.397 -0.0204  0.1738 -0.1845
78950W        W21888   7.480  11.865   2.920 -0.1405  0.1090 -0.4107
78951W        W21889   7.681   8.487   2.241  0.0103 -0.0881 -0.1491
78952W        W21890   8.773   7.522   3.979 -0.2227  0.1392 -0.0959
78953W        W21891   9.675  10.271  31.563 -0.0749 -0.2668  0.2138
78954W        W21892   8.235   8.651  30.588 -0.2538 -0.1080 -0.1966
78955W        W21893   7.155   8.098   1.024 -0.0257  0.2261 -0.2530
78956W        W21894   7.280   9.191   1.815 -0.0706 -0.1837 -0.0045
78957W        W21895  10.224   9.566  31.955 -0.3293 -0.2150 -0.2807
78958W        W21896   9.983   8.697   0.517  0.0721  0.1831 -0.2289
78959W        W21897   9.385  10.265   2.185 -0.0002 -0.0322 -0.0529
78960W        W21898   9.200  10.674   1.939  0.2971  0.1489 -0.1640
78961W        W21899   9.408   8.285   2.160 -0.0691  0.0662  0.0726
78962W        W21900   5.683  11.586   0.372 -0.2705 -0.4769 -0.0280
78963W        W21901   9.201  10.642   2.563  0.3425  0.3061  0.0407
78964W        W21902   8.981   9.115   0.044 -0.2161  0.1217 -0.0597
78965W        W21903  11.082  11.619  31.880  0.1667 -0.2985 -0.0594
78966W        W21904  10.646  10.812   2.407 -0.0544 -0.2792 -0.0294
78967W        W21905  10.301  10.010   2.254 -0.2040  0.0622  0.1439
78968W        W21906   8.416   9.255  31.845 -0.1331 -0.1978  0.1102
78969W        W21907  10.263  11.516   1.599 -0.3333  0.1385  0.2397
78970W        W21908   9.364   9.189   2.443 -0.0864 -0.6576  0.0929
78971W        W21909   8.095   7.904   3.031  0.0395 -0.0191  0.2106
78972W        W21910   9.499   8.856   0.076 -0.0118 -0.4146 -0.1663
78973W        W21911   8.311  11.170   1.107  0.1536 -0.3530 -0.0902
78974W        W21912   9.048   9.495   2.658 -0.0955 -0.0184 -0.0195
78975W        W21913   8.134   8.601   2.581  0.0116 -0.1759  0.0056
78976W        W21914   7.108  11.296   2.016 -0.0324  0.0479  0.0570
78977W        W21915   9.129   7.982   3.090 -0.2773  0.0103  0.0639
78978W        W21916   7.781  10.513  31.157 -0.1559  0.4701 -0.0363
78979W        W21917  12.228   9.208  31.302 -0.2240 -0.0201  0.1868
78980W        W21918   9.937   8.696  31.189 -0.1689 -0.1583  0.0334
78981W        W21919  10.810   8.271  30.905  0.1618  0.0047  0.2202
78982W        W21920   9.091   7.146   1.445 -0.0408  0.0452 -0.1554
78983W        W21921   8.465  10.356   2.379 -0.0024 -0.2210  0.0304
78984W        W21922   8.037   7.609   3.530 -0.0919  0.1618 -0.0160
78985W        W21923   9.977  10.551   2.858 -0.0298 -0.0354 -0.3228
78986W        W21924  10.358   8.642   0.233 -0.0460 -0.1866 -0.0186
78987W        W21925   8.772   7.560   3.232  0.1028  0.1191 -0.0583
78988W        W21926   8.276   9.816   1.483 -0.0103 -0.2384  0.3398
78989W        W21927   8.491   9.705  31.483  0.3129 -0.0970  0.4653
78990W        W21928   9.567  10.741  31.454  0.0106 -0.5202 -0.0513
78991W        W21929  11.706  11.025   0.785  0.0409 -0.2823 -0.2283
78992W        W21930  10.545  11.186   0.061 -0.2579 -0.0061  0.0414
78993W        W21931   8.839  10.331   1.460  0.0300 -0.0427  0.2364
78994W        W21932   6.230   9.365   3.872  0.0033 -0.2273 -0.3409
78995W        W21933   7.652   8.241   3.790 -0.1010 -0.0596 -0.3011
78996W        W21934   8.875   6.878   0.226 -0.2404  0.0320 -0.2343
78997W        W21935  10.663   8.418   3.478  0.1118 -0.0016  0.0907
78998W        W21936   8.036  10.261   3.378 -0.1726  0.1897 -0.1804
78999W        W21937  10.904   8.746   1.698  0.0690  0.4839 -0.1776
79000W        W21938   7.650  10.857   2.275  0.1323  0.2625  0.0052
79001W        W21939  10.688   9.718   3.240  0.2916  0.1121  0.1561
79002W        W21940  11.645  10.938  31.439  0.0357 -0.0229  0.1409
79003W        W21941   9.987   8.260   0.878  0.0632 -0.0105  0.2375
79004W        W21942   9.693   7.722   2.324  0.1045 -0.0100  0.3697
79005W        W21943   9.973   8.735  31.711  0.0483  0.1307 -0.1970
79006W        W21944   7.466   9.841   0.248 -0.0289 -0.2032 -0.1563
79007W        W21945  10.595  10.640   1.655 -0.1548  0.0440  0.1702
79008W        W21946  10.809  10.364  31.876  0.0784 -0.0192  0.3607
79009W        W21947   8.624   9.787   2.828  0.0823  0.0036 -0.0325
79010W        W21948   9.937   7.595   1.597  0.2873  0.3453  0.1562
79011W        W21949   8.427  11.362   2.885 -0.2327 -0.1415 -0.1213
79012W        W21950   7.499  11.324  31.750  0.0277  0.0372 -0.1133
79013W        W21951   6.533  10.235   1.202 -0.1222  0.1197  0.0476
79014W        W21952   8.337  10.847   0.692  0.1407  0.4260  0.3263
79015W        W21953   6.264   8.447   3.792 -0.0521  0.1174 -0.0430
79016W        W21954   8.427   9.370   1.121  0.0899  0.1219 -0.1164
79017W        W21955   9.991   8.356   0.119  0.3683  0.0538  0.1848
79018W        W21956   6.673   7.423   2.476  0.0879  0.1113  0.0343
79019W        W21957  10.900   8.200   0.804 -0.0104  0.0353  0.1540
79020W        W21958   9.153   9.388   0.605 -0.1858 -0.2236  0.0987
79021W        W21959  11.142  11.400   0.575 -0.0732  0.2937  0.0586
79022W        W21960  12.557   9.953  31.098  0.1828 -0.0674 -0.0565
79023W        W21961  10.519  11.573  30.761  0.1139  0.0320 -0.4161
79024W        W21962   6.438   8.745   3.287 -0.2806 -0.2231  0.1534
79025W        W21963   7.366   8.502   0.149  0.0675  0.2033 -0.2290
79026W        W21964   6.751   7.869   3.218 -0.1667  0.0417  0.0399
79027W        W21965   6.150   8.747   2.351  0.3179  0.0891  0.0138
79028W        W21966   9.722   8.152   3.452  0.4112  0.0115 -0.3659
79029W        W21967   6.685   7.130   1.143 -0.0710  0.0044  0.0035
79030W        W21968  10.943   8.773   1.040  0.1336 -0.0652  0.1110
79031W        W21969  10.527   8.432   1.631  0.0448  0.2322  0.1807
79032W        W21970   6.886   8.809  31.408 -0.1473 -0.3433 -0.2426
79033W        W21971   9.987   7.616   4.064 -0.0870 -0.1317  0.0572
79034W        W21972   9.636   9.146   0.599  0.2939 -0.1461 -0.3363
79035W        W21973   9.442  11.397   2.285 -0.0616  0.2212 -0.4143
79036W        W21974  11.125  10.192   1.200 -0.1086 -0.0326  0.0800
79037W        W21975   5.902   7.834   3.306  0.0599  0.0728  0.3294
79038W        W21976   7.861   7.988  31.395 -0.1045  0.0881 -0.1412
79039W        W21977   8.290  11.133   1.610  0.0071 -0.2607  0.3422
79040W        W21978   8.050   9.911   1.927 -0.2893 -0.2865 -0.3462
79041W        W21979   9.633   8.631   0.863  0.1035 -0.1357 -0.2255
79042W        W21980  10.766  11.463   1.441 -0.0953 -0.0362  0.0837
79043W        W21981   8.629   8.177  31.677 -0.0745  0.1683 -0.0602
79044W        W21982   8.461   9.228   2.636  0.3618  0.0991 -0.4787
79045W        W21983  10.887   8.239   1.873  0.1994 -0.1784  0.1912
79046W        W21984  10.489   9.327   0.807  0.0276  0.1650  0.0933
79047W        W21985   7.502   7.759  31.643  0.1165  0.1177 -0.3412
79048W        W21986  10.339  10.507   1.198 -0.1021 -0.0349 -0.1810
79049W        W21987   9.141  10.050   0.355  0.1463  0.0343  0.0086
79050W        W21988   7.414   9.622   1.178 -0.0986 -0.2402  0.1028
79051W        W21989   8.845  10.339   2.018 -0.1300  0.2751 -0.2436
79052W        W21990  10.370   7.825   0.755 -0.0735 -0.1172  0.2874
79053W        W21991   5.823   9.776   3.933  0.2502  0.2624 -0.1558
79054W        W21992  10.215   8.944   3.064  0.1296  0.1451  0.0715
79055W        W21993   7.904   9.361  30.785 -0.0373  0.2585  0.0965
79056W        W21994   7.829   7.999   2.638 -0.0973  0.0370  0.2444
79057W        W21995   8.392   8.684   0.716  0.0950  0.0376 -0.1205
79058W        W21996  10.366   8.108  31.918  0.1227  0.1897 -0.0678
79059W        W21997   8.014   7.493   2.652  0.2055 -0.3646  0.2238
79060W        W21998  12.757  10.152   0.372 -0.1276  0.1973  0.3367
79061W        W21999   9.451   8.074  31.520 -0.0834  0.0318 -0.0858
79062W        W22000   8.681   6.430  31.535 -0.1313  0.0170  0.0389
79063W        W22001   6.662   9.855   3.476  0.3243 -0.0052  0.3344
79064W        W22002   9.452   9.874  31.982  0.2365 -0.0310  0.3710
79065W        W22003   9.247   8.897   1.650  0.1046 -0.4474  0.1670
79066W        W22004   7.901   8.820  29.847  0.2850 -0.2243  0.0550
79067W        W22005  11.016  11.682  31.398 -0.2134 -0.0350 -0.2120
79068W        W22006   7.786   9.434   1.893  0.2036 -0.4140 -0.1242
79069W        W22007   9.514   9.644   2.716  0.0211 -0.0744 -0.1746
79070W        W22008   9.299  10.582   1.408 -0.2696  0.1674  0.0131
79071W        W22009  10.768   7.820   2.258 -0.1715  0.1255  0.0610
79072W        W22010  10.371   9.708   0.468  0.0077  0.2113 -0.3233
79073W        W22011  10.433   8.249   0.575 -0.1092  0.1967  0.1562
79074W        W22012   8.270   9.533   0.614  0.1197  0.0364  0.1413
79075W        W22013   9.210   8.818   2.181  0.0567  0.0021 -0.0226
79076W        W22014   9.091   7.145   2.928  0.3115  0.2100 -0.0312
79077W        W22015   7.500   7.610   2.418  0.0485  0.1183  0.1293
79078W        W22016  10.407   9.447   2.947 -0.1705 -0.1800  0.3836
79079W        W22017  11.564   8.661  31.154 -0.1334  0.1297 -0.1471
79080W        W22018   8.868   9.268   1.350  0.0382 -0.1225 -0.0724
79081W        W22019   8.937   9.545  31.277 -0.4567  0.1586 -0.0947
79082W        W22020   7.708   7.132   2.368 -0.1507  0.1175  0.0447
79083W        W22021   7.913   8.919   2.274  0.1342 -0.1162  0.1065
79084W        W22022   7.042   9.561   1.487 -0.1041  0.1268 -0.1794
79085W        W22023   8.545  10.423   3.321  0.0224 -0.0381  0.1914
79086W        W22024  11.144   9.903   0.026 -0.2237  0.2356  0.3853
79087W        W22025   8.828   8.711   1.355  0.2231 -0.0415  0.0736
79088W        W22026   9.766   7.825   0.592  0.0029 -0.2438  0.0158
79089W        W22027   8.262  12.065   0.938  0.0837  0.1493 -0.1153
79090W        W22028   9.518   9.727   0.541  0.1830 -0.2486 -0.2504
79091W        W22029   7.997   8.059   0.718 -0.0833 -0.1765  0.0780
79092W        W22030   9.047  11.129   2.032  0.1343 -0.1867  0.1022
79093W        W22031   8.414  10.032   0.609 -0.0590 -0.1422  0.2480
79094W        W22032   8.850   8.073   2.705 -0.1222  0.1873  0.2453
79095W        W22033   7.881   9.828  31.722  0.0070 -0.1013 -0.0851
79096W        W22034  11.393   8.797   1.389  0.2746 -0.2628  0.0428
79097W        W22035   8.355   8.884   3.014 -0.2789 -0.0211 -0.1539
79098W        W22036   9.260   8.913  31.563  0.0793 -0.2214  0.1811
79099W        W22037   7.142   7.571   0.328  0.3770  0.1163 -0.1458
79100W        W22038  10.205   6.676   1.449  0.0282  0.1628  0.1169
79101W        W22039  11.866  10.071  31.879 -0.0793  0.2733  0.3153
79102W        W22040   5.433   7.011   3.589  0.2672 -0.0115 -0.0627
79103W        W22041   8.200   8.508   0.331  0.2777  0.1305  0.1728
79104W        W22042   8.158   9.581   2.901  0.1728  0.2625  0.0993
79105W        W22043   9.333   7.929   1.700 -0.0052 -0.1583 -0.0870
79106W        W22044  11.551   7.468   0.888  0.0211  0.2148  0.0145
79107W        W22045   9.834   9.674   1.528 -0.1327 -0.0585 -0.3443
79108W        W22046   8.131   9.171   3.586 -0.1844  0.1300  0.0021
79109W        W22047   6.333   8.167   0.490  0.0300 -0.1064 -0.1407
79110W        W22048   9.640   8.887   1.314 -0.1055  0.1617  0.0452
79111W        W22049   7.984   8.533   0.907 -0.1524 -0.1901  0.2929
79112W        W22050   7.399  10.457  31.766 -0.1399  0.3184  0.1757
79113W        W22051  10.490  11.781   1.183  0.1970 -0.1170  0.1856
79114W        W22052   9.233   8.882   0.523  0.0293  0.2039 -0.0297
79115W        W22053   7.193  12.303   2.188  0.4481 -0.0858  0.0510
79116W        W22054   7.375   8.177   3.002  0.0912 -0.1522 -0.1053
79117W        W22055  10.098   9.106   1.489  0.0158  0.1299 -0.1226
79118W        W22056   8.111   8.720   1.779 -0.2283 -0.0314  0.1938
79119W        W22057   8.052   7.334   1.000  0.0826  0.2465  0.0845
79120W        W22058   9.690   8.858   1.820  0.0740 -0.1941 -0.0166
79121W        W22059   9.753   9.383   1.078 -0.0614  0.1279 -0.2381
79122W        W22060   8.657   7.918   1.981 -0.0502 -0.2117 -0.1512
79123W        W22061   8.033  10.586   4.373  0.0820 -0.1177  0.2714
79124W        W22062  10.076   8.566   1.350 -0.1928 -0.1062 -0.2559
79125W        W22063  12.082  10.562   0.974  0.2335  0.2845 -0.0352
79126W        W22064   9.995   8.490   1.981 -0.0495  0.0638  0.0930
79127W        W22065   8.566   8.656  31.401 -0.0454 -0.1155 -0.0363
79128W        W22066   7.329  10.041   1.422  0.0926  0.0162 -0.2636
79129W        W22067   8.112   9.797   1.010  0.0609 -0.0006  0.3091
79130W        W22068   8.387   8.954   1.444  0.0348  0.0168  0.2601
79131W        W22069   7.352   9.733   1.784  0.0577  0.2140 -0.3508
79132W        W22070  10.071  10.273  30.817  0.4712 -0.5134  0.1310
79133W        W22071   7.638   9.732   0.710  0.3939 -0.1831  0.1285
79134W        W22072  11.324   8.464  31.597  0.1928  0.2184 -0.1944
79135W        W22073   9.205   9.859  30.972  0.0282 -0.0542 -0.0951
79136W        W22074  10.837   8.892   0.047 -0.1785 -0.0488  0.0396
79137W        W22075  11.090   8.656   2.741 -0.2075 -0.0183 -0.2496
79138W        W22076  10.451  11.007  30.666 -0.0895  0.0185  0.0453
79139W        W22077   8.314   6.901   3.190 -0.1019 -0.3355 -0.1126
79140W        W22078   6.649   8.661   2.198 -0.2059  0.1418  0.1851
79141W        W22079  10.431  10.336  31.096 -0.3770  0.0782 -0.1750
79142W        W22080   6.334   8.516   0.981  0.0622  0.1172 -0.0122
79143W        W22081   9.992  10.510   3.368  0.2092  0.1708  0.0345
79144W        W22082   7.308   9.141   3.912 -0.1179 -0.0542  0.1002
79145W        W22083  10.818   8.010  31.780  0.0384 -0.3095  0.1418
79146W        W22084   7.861   6.991   0.091  0.0901 -0.0737  0.1571
79147W        W22085   7.211   8.217   1.522 -0.4662  0.0321  0.1049
79148W        W22086  10.420   8.769   0.764 -0.0527 -0.1093 -0.0481
79149W        W22087  10.211   9.134   0.481 -0.0213  0.1183 -0.1096
79150W        W22088   9.828   8.217  31.148 -0.0164  0.1717 -0.1273
79151W        W22089   8.062  10.351   0.967  0.1142 -0.0871 -0.2682
79152W        W22090  11.098   9.309   0.792  0.0918 -0.1560 -0.2824
79153W        W22091   9.928   9.490   0.334 -0.0487 -0.3063 -0.1151
79154W        W22092   8.088   9.044   0.819 -0.0916 -0.1731 -0.0042
79155W        W22093   7.788   8.020   2.130 -0.0012  0.2224 -0.0497
79156W        W22094   8.766   9.518   0.854  0.1191 -0.0507 -0.3961
79157W        W22095   9.699   9.893   0.984  0.0965  0.2526  0.2209
79158W        W22096  10.468   8.271   1.091 -0.2028 -0.0605 -0.2386
79159W        W22097   9.814   7.960   1.864 -0.0699  0.1490  0.2534
79160W        W22098   8.112   8.383   3.072  0.0227 -0.1021 -0.0862
79161W        W22099   7.184   8.239   3.552  0.1954  0.3756  0.2200
79162W        W22100  10.984  10.643   2.014  0.0791 -0.2494 -0.0093
79163W        W22101  11.639   8.952   0.911  0.1992 -0.3866  0.4336
79164W        W22102  10.605   8.581   2.918 -0.1341  0.1029 -0.0467
79165W        W22103  11.448   9.707   0.388  0.1111 -0.0160 -0.4128
79166W        W22104  11.095   9.350  31.736 -0.0771  0.3995  0.2464
79167W        W22105   6.296   9.267   1.895  0.1233  0.0757  0.1631
79168W        W22106  10.329  10.526   2.082 -0.6344  0.0567  0.1889
79169W        W22107   8.196   7.044   1.372  0.2186  0.0272 -0.2288
79170W        W22108   8.319   8.147   2.640  0.2965  0.0379  0.1015
79171W        W22109   9.970  11.143  30.676 -0.3006 -0.0875 -0.1668
79172W        W22110  10.417  10.673  31.812 -0.1886  0.0449 -0.1154
79173W        W22111  10.075   9.994  31.295 -0.2405  0.0891 -0.3227
79174W        W22112   8.683   7.729  31.878 -0.0543 -0.2310  0.1291
79175W        W22113   7.883   9.013   2.817  0.2500  0.1909  0.1156
79176W        W22114   8.177   8.915  31.579 -0.0768  0.2556  0.1631
79177W        W22115   9.999   8.187  31.618  0.3193 -0.0576  0.3743
79178W        W22116   8.393   8.848   2.167 -0.1325 -0.1978 -0.0153
79179W        W22117   9.961   9.501   2.566  0.0478 -0.0370 -0.2271
79180W        W22118   9.658   7.171  30.985  0.1397 -0.1357 -0.1835
79181W        W22119  10.307   9.025   2.538 -0.1619  0.0924  0.0072
79182W        W22120   7.045  11.215   0.500 -0.2693 -0.1966 -0.0367
79183W        W22121   9.667   8.130   1.296  0.0786 -0.1135  0.1617
79184W        W22122   9.492  11.000   1.647  0.1806  0.2725  0.0020
79185W        W22123   8.625   8.422   2.350  0.1074  0.0564  0.1999
79186W        W22124   9.108  10.651   0.408  0.1638 -0.1314 -0.0288
79187W        W22125   8.572   8.543   1.739 -0.1207  0.5134  0.1764
79188W        W22126   8.410  10.548   1.329 -0.2442  0.2058  0.1701
79189W        W22127   8.732   8.982   1.777 -0.0434 -0.1910 -0.0651
79190W        W22128  10.556   9.154   1.697 -0.0541  0.1215 -0.1125
79191W        W22129   8.536   8.497   2.840  0.0930 -0.4006 -0.0654
79192W        W22130   7.642  10.730   0.450 -0.1761 -0.2792 -0.1040
79193W        W22131  10.140  10.854   1.613 -0.2107  0.0010  0.3850
79194W        W22132   8.949   9.767   1.843 -0.3023 -0.2749  0.1197
79195W        W22133   8.164  10.250   3.928  0.1824  0.4344  0.2514
79196W        W22134   6.630   7.356   3.643 -0.2014  0.0300  0.3139
79197W        W22135   9.903   8.938   3.924  0.0235  0.0195  0.0216
79198W        W22136  11.086   8.871   0.564  0.1019  0.1127  0.1295
79199W        W22137   8.466   7.376   0.763 -0.0314  0.0648  0.0902
79200W        W22138   8.652  10.505   0.498 -0.0540  0.4757  0.4251
79201W        W22139   7.353   9.211   3.414  0.1167 -0.4448 -0.0365
79202W        W22140   6.905   9.179   3.551  0.1201  0.2697 -0.0237
79203W        W22141   7.766  12.059   0.887 -0.4461  0.1839  0.1741
79204W        W22142   9.239  11.289  31.793 -0.0548 -0.2190  0.1712
79205W        W22143   9.273   9.574   1.076 -0.1155 -0.0978  0.0477
79206W        W22144   9.958  10.045   0.530  0.1854  0.0624 -0.0081
79207W        W22145   9.496   8.531  31.372  0.0404 -0.2357  0.1113
79208W        W22146   7.955  10.381   2.124  0.2222 -0.3548 -0.1386
79209W        W22147   6.159   9.644   0.529 -0.1267 -0.3307 -0.1395
79210W        W22148   9.393   9.355   0.179 -0.0731 -0.2234 -0.1578
79211W        W22149   8.899  10.855   0.012 -0.4144  0.4720  0.0495
79212W        W22150   9.718   9.839   2.297  0.1939  0.1631  0.2123
79213W        W22151  10.425   7.486   1.069 -0.0018  0.1103  0.1760
79214W        W22152  11.370   8.483   0.795 -0.0385  0.2371  0.2409
79215W        W22153  10.334   9.089  31.906  0.1177 -0.0562  0.1188
79216W        W22154   9.584   9.972   3.217 -0.0626 -0.1348 -0.1609
79217W        W22155   7.627   8.266   1.133 -0.2206  0.0475  0.2040
79218W        W22156   8.373   8.197  30.804  0.0826 -0.0021  0.2408
79219W        W22157   8.828   9.788   1.343  0.4780 -0.2449  0.3260
79220W        W22158  11.651   7.194   1.995  0.2294 -0.0816  0.0129
79221W        W22159   8.358  10.989   4.051  0.0665 -0.0826  0.0898
79222W        W22160  10.229  10.370   0.311  0.1573  0.1411 -0.1044
79223W        W22161   7.841   8.772  31.949  0.1496  0.1002 -0.1641
79224W        W22162   7.588  10.180   1.874  0.2412 -0.0821  0.1374
79225W        W22163   9.767   7.557   1.041 -0.0401 -0.0975  0.3826
79226W        W22164  10.485   9.995  30.764  0.0424 -0.0264 -0.1193
79227W        W22165   8.880   7.969   1.037 -0.0104 -0.2398 -0.2434
79228W        W22166   9.841  11.939   0.117  0.0725 -0.3796 -0.2701
79229W        W22167   7.617  10.498   1.485 -0.0575  0.0792  0.2161
79230W        W22168   9.506  10.190   2.723 -0.0414  0.2109 -0.0546
79231W        W22169   7.928   9.343  31.882 -0.2705  0.0803  0.1649
79232W        W22170  11.549   9.630   0.904 -0.0584  0.0342  0.0319
79233W        W22171   8.210   8.360   2.144  0.1786  0.0872 -0.4100
79234W        W22172  10.954   7.254   4.335 -0.0847  0.2627  0.1818
79235W        W22173   8.549   8.232   0.654 -0.0276 -0.4721  0.2315
79236W        W22174  10.388  10.183  31.644 -0.1568 -0.0294 -0.1091
79237W        W22175   8.745   9.033   0.954 -0.1069  0.1482  0.2279
79238W        W22176   6.798  10.050   1.613 -0.0910  0.2166  0.1093
79239W        W22177   8.023   7.724  31.007 -0.0115  0.1782 -0.0859
79240W        W22178  11.023   8.669   3.276 -0.0167  0.1414  0.1901
79241W        W22179   9.846   7.988  30.679 -0.1989  0.2066  0.2077
79242W        W22180   9.698  10.598   1.753 -0.5228 -0.1154 -0.1867
79243W        W22181   7.574   7.820   0.530 -0.0549  0.3322  0.1282
79244W        W22182   9.339   8.514   1.225  0.0509  0.1202  0.1192
79245W        W22183   8.590  11.175   0.353 -0.1247 -0.1865 -0.2198
79246W        W22184   7.112   8.520   2.664 -0.1204 -0.0194  0.1174
79247W        W22185  10.087  11.082   0.785  0.2238  0.1600  0.5137
79248W        W22186   6.841   8.164   0.291 -0.2635 -0.4098 -0.0074
79249W        W22187  12.677  11.760   0.232 -0.1605 -0.1344 -0.0349
79250W        W22188  12.012   9.762   0.763 -0.0071 -0.1246  0.2345
79251W        W22189   8.905  10.952   0.732  0.0153 -0.0197 -0.1823
79252W        W22190   9.567   8.311   0.419 -0.1634  0.3488 -0.1336
79253W        W22191  10.069  13.135   1.874  0.1437 -0.2554 -0.2694
79254W        W22192   7.176   8.647   1.706 -0.1313 -0.2529 -0.0208
79255W        W22193   8.913  10.036   0.795  0.0534 -0.2287 -0.1039
79256W        W22194  11.313  10.256   2.117 -0.2113  0.0274 -0.2044
79257W        W22195  10.494   7.357  30.723 -0.1979  0.1690  0.0940
79258W        W22196   8.412   8.019   0.232  0.2036  0.1620  0.0992
79259W        W22197   8.067  10.626   2.556 -0.0523  0.0355 -0.1058
79260W        W22198   9.722   9.336   1.842 -0.1079 -0.1761 -0.1425
79261W        W22199  10.794   9.110   2.742 -0.2993 -0.3754 -0.3911
79262W        W22200  10.011  11.631  30.579  0.1080  0.1075 -0.2203
79263W        W22201  11.365   8.333   4.177  0.2090 -0.0427 -0.0994
79264W        W22202  10.196   9.465   2.018 -0.0643 -0.2586  0.0397
79265W        W22203   8.767  10.396   4.913  0.0717  0.1365  0.3340
79266W        W22204   8.739   9.627   0.316  0.1893  0.1152  0.2944
79267W        W22205   8.926   8.485   3.124  0.3752 -0.2166 -0.0004
79268W        W22206   8.204  10.218  31.775  0.2589 -0.0721 -0.3333
79269W        W22207   9.117  10.391  31.873  0.2277 -0.2133 -0.2019
79270W        W22208   9.759  10.323   1.311 -0.0182 -0.0351 -0.1893
79271W        W22209   9.487   8.373  31.945  0.2508 -0.0652  0.2111
79272W        W22210  11.383  10.546   0.646  0.0603  0.3254  0.0064
79273W        W22211   9.047   8.263   0.544  0.2285  0.0147 -0.0913
79274W        W22212  11.324   7.030   1.143 -0.1574 -0.0444 -0.3866
79275W        W22213  10.483   7.122  31.204  0.1025  0.1298 -0.0400
79276W        W22214   7.817   9.372   1.052  0.0825  0.4678 -0.1245
79277W        W22215   8.903   9.060  30.515 -0.0552 -0.4114 -0.3980
79278W        W22216   8.478   8.699  31.914 -0.1479  0.2092 -0.3306
79279W        W22217   7.972  10.801   1.259 -0.0889 -0.1259 -0.2416
79280W        W22218   9.137   7.801   3.557 -0.2509 -0.0644 -0.2166
79281W        W22219   6.513   9.216   2.307  0.3171  0.1017  0.3512
79282W        W22220   6.629   9.290   1.400  0.0520 -0.1946  0.3087
79283W        W22221   7.511   6.778   1.620 -0.2276 -0.1459 -0.0893
79284W        W22222   9.296   9.896  31.524 -0.1010  0.1713 -0.0887
79285W        W22223   8.650   7.801   1.474  0.1264  0.1300  0.1446
79286W        W22224   6.198   8.279   2.558 -0.2306  0.3138 -0.0635
79287W        W22225  10.970  10.810   0.720 -0.1182  0.2254  0.0109
79288W        W22226  10.871  11.090   1.710  0.0124 -0.2658 -0.1275
79289W        W22227   9.744   7.443   0.200  0.1915  0.1747  0.2161
79290W        W22228   9.785  10.957   3.226 -0.1337 -0.3643 -0.0091
79291W        W22229   6.004   8.583   0.614  0.0742  0.2784  0.1992
79292W        W22230   9.341   8.080   2.607  0.0090 -0.1057 -0.2333
79293W        W22231   7.357   8.072   2.463  0.1164 -0.2301 -0.2764
79294W        W22232   6.925   6.940  31.712  0.0018  0.2733  0.2961
79295W        W22233   9.054   8.496   2.560 -0.0821  0.0688 -0.1951
79296W        W22234  10.407  11.139   2.027 -0.1507  0.0205  0.2804
79297W        W22235   8.424  10.279   1.747  0.3037 -0.2469 -0.1321
79298W        W22236   8.959  10.504   0.970 -0.0243 -0.1917 -0.0681
79299W        W22237   9.237   9.356   1.952 -0.1364 -0.3816  0.0407
79300W        W22238   7.468   7.260   1.906  0.1970  0.0955 -0.0350
79301W        W22239  11.735   9.390  31.332  0.0070  0.3045 -0.0010
79302W        W22240   7.772   9.760   1.519 -0.3134 -0.4117  0.2470
79303W        W22241  11.196  10.024   0.690  0.0830 -0.1119  0.0388
79304W        W22242  12.184   7.449   3.233  0.1109  0.1622  0.0329
79305W        W22243  10.805   8.483   0.389 -0.1332 -0.0490 -0.4156
79306W        W22244   7.424   7.748   3.752 -0.0719  0.0469  0.2008
79307W        W22245   7.689   8.514   2.778 -0.0756 -0.1332  0.0937
79308W        W22246   9.853   9.104   3.417 -0.0841  0.2065  0.0014
79309W        W22247   8.342   7.849   0.980  0.1984  0.1877 -0.2949
79310W        W22248   8.467   8.325   1.128  0.1235  0.1776  0.3015
79311W        W22249  10.186   9.949   1.309  0.1807  0.3026  0.2064
79312W        W22250   7.471   8.732   1.314 -0.0502 -0.1060 -0.1293
79313W        W22251   6.671   7.305   0.039  0.4271  0.0775 -0.1077
79314W        W22252   9.571   8.403   1.690 -0.1968 -0.1375 -0.0126
79315W        W22253  10.721   9.325   0.237 -0.1323  0.1030 -0.0272
79316W        W22254  10.372   9.824   1.761  0.1209  0.2148  0.2714
79317W        W22255   8.862   8.555   0.870  0.4033  0.1798  0.0874
79318W        W22256   8.895   9.683  31.795 -0.1080  0.0987 -0.0177
79319W        W22257  10.139  11.262   2.849 -0.0293  0.1211  0.0189
79320W        W22258  11.274  11.334   2.695  0.0812 -0.1420  0.1043
79321W        W22259   9.297  12.408   1.883  0.1098  0.0511  0.1965
79322W        W22260  10.659   9.741   1.057  0.2266 -0.1340  0.0898
79323W        W22261   7.649   7.853   1.517 -0.1342  0.1671  0.1113
79324W        W22262   8.664   9.132   0.494 -0.0921  0.0662  0.1248
79325W        W22263   9.305   9.031   0.988 -0.2516 -0.2412  0.2479
79326W        W22264   9.640   8.664   2.383 -0.0681  0.1264 -0.0029
79327W        W22265   7.756   7.765   1.013  0.3655  0.1573 -0.2008
79328W        W22266  10.025   7.367   0.633 -0.0414 -0.2427  0.1313
79329W        W22267   9.880   9.080   2.273 -0.3147  0.2102  0.1991
79330W        W22268   9.627  10.369   0.163 -0.0525 -0.0885 -0.1187
79331W        W22269   7.229  10.259   6.873 -0.5522  0.0048 -0.0207
79332W        W22270   7.194   8.760   3.510  0.2162 -0.2678  0.0325
79333W        W22271  10.511   8.851   3.695  0.2126 -0.1550  0.0628
79334W        W22272   9.737   9.242   5.393  0.2074  0.1067 -0.2155
79335W        W22273   7.649   7.351   4.543 -0.3133  0.1115 -0.2080
79336W        W22274   9.338  12.175   3.179  0.2345  0.1056 -0.0030
79337W        W22275   8.801   6.828   7.026  0.1617 -0.3121  0.3395
79338W        W22276   9.060  10.420   6.246 -0.2321 -0.1217 -0.0103
79339W        W22277   9.116  11.384   5.654  0.0381  0.1731  0.3667
79340W        W22278   8.218   7.844   2.266  0.2071 -0.0589  0.1086
79341W        W22279   8.675   8.246   5.450  0.0025  0.0946 -0.0633
79342W        W22280   8.577  10.610   5.874 -0.0538  0.3585 -0.0232
79343W        W22281   8.170   7.171   4.613  0.2156  0.0754 -0.2341
79344W        W22282   7.246   7.265   6.117 -0.1702  0.1441  0.0427
79345W        W22283   9.302   8.851   6.159 -0.0679 -0.1802  0.0692
79346W        W22284   7.189   8.065   4.051 -0.2459  0.3730 -0.1106
79347W        W22285   8.736   8.224   7.402 -0.0522  0.0360 -0.1659
79348W        W22286   8.336   7.755   4.027 -0.2289 -0.0469 -0.3282
79349W        W22287   7.470   9.916   4.511  0.1977 -0.0113  0.0837
79350W        W22288   8.459   8.387   3.988  0.4119  0.0627  0.2666
79351W        W22289   9.028   6.449   7.256  0.1273 -0.3275  0.1172
79352W        W22290   7.464   9.749   3.943 -0.0073  0.0911 -0.0607
79353W        W22291   7.149   7.745   2.786 -0.1277  0.2721  0.0008
79354W        W22292   7.243  10.210   5.431  0.0245  0.0857  0.0874
79355W        W22293   9.844  10.075   5.923  0.1200  0.0799 -0.0377
79356W        W22294  10.182   8.387   5.233  0.4232  0.0566 -0.2268
79357W        W22295   9.966  10.122   4.542 -0.3644 -0.0788 -0.2521
79358W        W22296   8.705  10.644   5.333 -0.0049  0.3889 -0.2129
79359W        W22297   9.841   7.512   5.576  0.4620  0.2317  0.1334
79360W        W22298   6.777  10.114   5.234  0.2041  0.2253  0.3540
79361W        W22299   7.063  11.397   5.112  0.0317 -0.1289  0.2941
79362W        W22300   9.192   9.750   3.676 -0.0471  0.2265 -0.0398
79363W        W22301  11.377   9.738   4.261 -0.1381  0.1381 -0.2185
79364W        W22302  10.265  11.215   6.347 -0.0029 -0.1588  0.0169
79365W        W22303   8.048  10.990   6.557 -0.0953 -0.1394 -0.4609
79366W        W22304   7.566  10.261   3.612 -0.1190  0.0208 -0.1576
79367W        W22305   9.068   9.812   7.955 -0.0596  0.2568 -0.1154
79368W        W22306   9.411   9.694   8.371 -0.0081 -0.2391 -0.2479
79369W        W22307   9.784   8.594   6.126 -0.0598  0.0902 -0.1290
79370W        W22308   9.961   8.740   2.725 -0.0524 -0.3025 -0.1530
79371W        W22309   9.014  10.251   3.517 -0.0533  0.2509  0.1046
79372W        W22310   8.049   9.964   5.589  0.2208 -0.0143 -0.0042
79373W        W22311   7.956   9.156   7.792  0.0698 -0.2638 -0.3307
79374W        W22312   7.215   9.604   5.300 -0.1566  0.0977 -0.0248
79375W        W22313  11.149   9.778   7.591 -0.1709 -0.1261 -0.1726
79376W        W22314   8.433   9.614   3.803  0.2891 -0.2958  0.2341
79377W        W22315   9.891   9.561   3.083 -0.1037  0.1263 -0.1403
79378W        W22316   8.553   8.927   3.870  0.4014  0.1331 -0.2524
79379W        W22317   9.046   8.188   4.592 -0.2079  0.1087  0.2042
79380W        W22318   8.347   7.459   5.695 -0.0358 -0.0838 -0.0057
79381W        W22319   8.573   9.739   4.510  0.0587 -0.0827  0.1914
79382W        W22320   8.302   8.186   6.196 -0.2916 -0.0296 -0.0339
79383W        W22321  10.187  10.385   6.073  0.2026  0.2491  0.1425
79384W        W22322   8.133   8.118   4.297 -0.0880 -0.3690 -0.0625
79385W        W22323   9.265   8.537   7.006  0.1926 -0.0029 -0.1762
79386W        W22324   7.788  10.252   5.923 -0.0863 -0.1309  0.0976
79387W        W22325   8.424   8.417   4.648 -0.0797 -0.0473 -0.0985
79388W        W22326   9.350  12.735   2.639  0.3596  0.3716 -0.0658
79389W        W22327   9.036  10.708   3.713  0.0240  0.1013 -0.0440
79390W        W22328   9.402   9.468   3.178 -0.1986 -0.0356  0.1470
79391W        W22329   7.424   8.594   4.656  0.1092  0.4130 -0.2935
79392W        W22330   7.214   8.089   5.650 -0.2922  0.1470  0.3061
79393W        W22331   7.801   8.683   6.795  0.2800  0.0353 -0.0900
79394W        W22332   8.432   7.171   4.076  0.0633 -0.0569  0.3051
79395W        W22333   9.570   9.635   6.156 -0.0766 -0.0232  0.0515
79396W        W22334   7.924  11.035   4.199 -0.0477  0.2132 -0.0691
79397W        W22335   9.095   8.830   3.736 -0.2242 -0.0237 -0.0375
79398W        W22336   9.190   8.724   4.623 -0.0303 -0.2259 -0.1140
79399W        W22337  10.321   9.264   5.398 -0.0567  0.2178  0.2365
79400W        W22338   9.994   8.526   4.803  0.0192 -0.1864  0.2220
79401W        W22339  10.346   7.760   5.041  0.0463  0.0449  0.1265
79402W        W22340  10.189   8.905   5.039  0.0554  0.0787 -0.0686
79403W        W22341   7.917   8.872   3.295 -0.4444  0.2307 -0.1069
79404W        W22342   8.033   9.350   4.116  0.1290  0.1761  0.4014
79405W        W22343   9.342   9.872   6.500  0.3206 -0.1213 -0.1459
79406W        W22344  10.099   8.862   4.465  0.0494  0.0644 -0.1466
79407W        W22345   8.207   9.367   4.568 -0.1383  0.1846 -0.1313
79408W        W22346   8.284   7.823   8.296  0.0463  0.0021  0.3840
79409W        W22347   9.293   9.310   6.453  0.1319  0.0269 -0.1652
79410W        W22348   7.024  10.022   4.393  0.0555  0.1405 -0.2402
79411W        W22349   6.825   8.280   5.389 -0.0330 -0.0160  0.4035
79412W        W22350   7.244   9.009   4.370 -0.3458 -0.1572 -0.0577
79413W        W22351   7.235   7.818   5.188  0.1162 -0.0964  0.0263
79414W        W22352   8.737   9.909   5.005 -0.1089  0.1316  0.2204
79415W        W22353   9.746   7.146   4.291  0.3339  0.1355  0.0531
79416W        W22354   6.971   8.163   7.190  0.0289 -0.1797  0.1782
79417W        W22355  10.665   8.253   5.491 -0.0724 -0.1322 -0.0082
79418W        W22356   8.892   9.647   4.134 -0.1783 -0.0931  0.1528
79419W        W22357   9.421  11.292   4.077 -0.4217  0.1331 -0.0026
79420W        W22358  10.551   9.902   2.815  0.1251  0.1592  0.1878
79421W        W22359   9.618  10.065   3.740 -0.3488 -0.3003  0.2180
79422W        W22360   8.149   8.225   5.265  0.1075  0.1072 -0.0083
79423W        W22361   6.350   9.089   4.264  0.1617  0.0275  0.2557
79424W        W22362   7.417   8.344   6.505 -0.1569  0.0001 -0.0838
79425W        W22363   8.294   6.496   5.276  0.3249  0.2687 -0.0645
79426W        W22364   9.183   9.184   5.531  0.0173 -0.0428 -0.1699
79427W        W22365   8.907   9.311   3.680 -0.0493  0.2132  0.0148
79428W        W22366   9.151   8.455   4.170 -0.3940  0.0534  0.2649
79429W        W22367   7.592   8.218   4.355 -0.2297  0.0059  0.0354
79430W        W22368   5.828   9.994   4.737  0.1568  0.0117 -0.2762
79431W        W22369  10.658   7.690   6.869 -0.2715 -0.2201 -0.0119
79432W        W22370   8.447  11.803   5.925  0.0238  0.2012  0.1333
79433W        W22371   9.831  10.783   7.201 -0.0382 -0.1960  0.0924
79434W        W22372  10.226  10.970   4.738 -0.1435 -0.0215 -0.2605
79435W        W22373   7.795   8.479   7.312  0.0208 -0.1471 -0.0330
79436W        W22374   8.332   8.671   3.491 -0.0323 -0.3011  0.3164
79437W        W22375   7.649  10.465   5.211 -0.0965  0.3511  0.0697
79438W        W22376  10.502   9.936   4.690 -0.2471 -0.1495 -0.0588
79439W        W22377   8.116   8.183   3.597  0.1045 -0.0231 -0.1314
79440W        W22378   9.654  10.684   4.643  0.0166 -0.1386  0.1816
79441W        W22379   7.958   8.520   4.521 -0.1411  0.0515  0.2051
79442W        W22380   8.555  10.224   7.188 -0.1784  0.2689 -0.0320
79443W        W22381   9.090   8.133   6.702  0.0082  0.0207  0.0749
79444W        W22382  10.636   7.774   5.686  0.1547 -0.2335 -0.4397
79445W        W22383  11.384   9.385   5.817  0.2612  0.2360 -0.2144
79446W        W22384   7.372   7.210   4.081 -0.0755 -0.2463  0.0129
79447W        W22385   9.167  11.762   3.419  0.0991  0.1143 -0.0869
79448W        W22386   7.256  10.523   2.253 -0.0871 -0.0442 -0.0995
79449W        W22387   7.297   8.398   5.214 -0.1088 -0.0675  0.2051
79450W        W22388   9.195   9.622   4.533  0.1225  0.2093 -0.2709
79451W        W22389  10.430   7.802   3.904  0.3305  0.0017  0.0285
79452W        W22390   7.219  10.212   8.233  0.0800 -0.0271 -0.0444
79453W        W22391   9.458   8.434   6.447 -0.2038  0.0647  0.0683
79454W        W22392   6.446   7.704   4.045 -0.0112 -0.1124 -0.0490
79455W        W22393   8.447   9.760   5.906  0.2072 -0.1546  0.0071
79456W        W22394   9.041   6.958   5.137 -0.1461  0.0451 -0.3198
79457W        W22395  10.805   7.886   3.623 -0.2302 -0.1139  0.0148
79458W        W22396   8.485   9.306   6.229 -0.1891  0.3596 -0.2147
79459W        W22397  10.481   9.719   3.834  0.1497 -0.1221 -0.0879
79460W        W22398   9.743   8.666   3.245  0.0023  0.0958  0.1519
79461W        W22399   8.265   6.650   2.794  0.2036  0.0563 -0.0379
79462W        W22400   6.641  10.597   6.454  0.1637 -0.2753 -0.0476
79463W        W22401  10.369   8.350   4.499 -0.0842 -0.0443  0.1872
79464W        W22402   9.121   8.237   5.206 -0.1485  0.0907 -0.0139
79465W        W22403   7.690   7.933   3.341  0.0832 -0.3419 -0.1637
79466W        W22404   9.575  11.065   3.662 -0.2993  0.0834  0.2402
79467W        W22405   7.948   8.998   6.013 -0.1604 -0.0314 -0.1565
79468W        W22406   9.070  10.423   5.739 -0.2176 -0.1596 -0.1082
79469W        W22407   9.686  10.319   4.154  0.4463  0.1769  0.0426
79470W        W22408   9.391   6.947   5.661  0.0420 -0.2594 -0.2911
79471W        W22409   8.123   9.329   1.568  0.4306 -0.1524  0.3633
79472W        W22410   9.445   9.410   4.962  0.0025  0.2848  0.3408
79473W        W22411   7.651  10.303   2.579  0.4618 -0.1731  0.1955
79474W        W22412  10.311   7.442   6.557 -0.0567  0.1714 -0.1857
79475W        W22413   9.851   6.979   4.814  0.1474 -0.0376  0.3732
79476W        W22414   9.169   7.797   7.224  0.0320 -0.0699  0.2992
79477W        W22415  10.153   8.874   6.582  0.0447  0.1854  0.3919
79478W        W22416  10.557   8.165   4.911  0.0589 -0.0262  0.2074
79479W        W22417   8.759   8.401   6.043 -0.1838 -0.0606 -0.1052
79480W        W22418   6.922   8.407   3.202 -0.2412  0.3432 -0.0422
79481W        W22419   8.420   8.740   6.268 -0.1071 -0.1455  0.0024
79482W        W22420   5.907   9.212   5.313 -0.1585 -0.0365 -0.3975
79483W        W22421   7.565   9.152   5.187  0.2753 -0.0365  0.1731
79484W        W22422  10.274   9.221   4.052  0.1057 -0.0750  0.0078
79485W        W22423   9.778  11.172   4.496 -0.1853  0.4250 -0.0499
79486W        W22424   8.671   7.794   7.207 -0.1454 -0.0887  0.1894
79487W        W22425   9.349   7.480   3.240 -0.1177  0.2778 -0.0202
79488W        W22426   9.421  10.153   4.525 -0.3237 -0.2832 -0.0071
79489W        W22427   9.470   9.804   1.865 -0.3059  0.0130 -0.4672
79490W        W22428   8.172   7.929   4.896 -0.0317 -0.1889  0.1997
79491W        W22429   8.709   9.051   5.259  0.2012  0.0161  0.1687
79492W        W22430   9.150  10.551   4.354  0.2737  0.1794 -0.1550
79493W        W22431   9.875   7.877   5.894 -0.0980  0.2384 -0.3805
79494W        W22432   8.479  10.056   3.602  0.1902  0.1441  0.2257
79495W        W22433   9.417   7.716   6.540  0.0213 -0.2648 -0.2166
79496W        W22434   7.251   9.459   4.755  0.1848  0.0777 -0.3361
79497W        W22435   6.489   8.275   3.054 -0.1548 -0.1657  0.0029
79498W        W22436   5.758   8.522   2.548  0.2040  0.1665 -0.2012
79499W        W22437   9.890   6.567   5.597  0.3447 -0.1337  0.1976
79500W        W22438   9.546   8.844   4.237  0.3393 -0.3248  0.2575
79501W        W22439   8.465   8.012   6.793 -0.0641  0.1621  0.4268
79502W        W22440   9.754   8.364   4.391  0.1921  0.0917 -0.0593
79503W        W22441   9.129   9.844   2.255  0.2063  0.2267  0.0177
79504W        W22442   8.678   8.032   5.003  0.1187 -0.2013 -0.3021
79505W        W22443   8.795   8.411   3.579  0.2722  0.0379  0.0688
79506W        W22444   9.024   9.775   5.692  0.1183  0.2084 -0.1785
79507W        W22445   8.229   9.462   8.055  0.0131 -0.0654 -0.1968
79508W        W22446   5.742   7.345   3.421  0.0878 -0.2209  0.2024
79509W        W22447  12.349   9.109   6.231 -0.0918 -0.2483 -0.2196
79510W        W22448   8.393   7.813   5.392  0.0873  0.0337  0.0528
79511W        W22449   8.633  10.077   4.119  0.1824 -0.1385  0.0330
79512W        W22450   9.402  11.552   5.114  0.0797  0.1950 -0.1750
79513W        W22451   7.856   9.382   3.190  0.0658 -0.0992  0.0691
79514W        W22452   8.251   8.902   4.300 -0.1721  0.1106 -0.0381
79515W        W22453   8.000   8.124   6.921 -0.0694  0.2266 -0.1980
79516W        W22454   9.307  10.032   5.997 -0.1286 -0.1248 -0.1936
79517W        W22455   8.896   7.600   6.776 -0.0911 -0.1718  0.0094
79518W        W22456   6.665   8.176   4.012  0.0131  0.1685  0.3193
79519W        W22457   8.976   9.519   5.154  0.1617 -0.0353  0.1682
79520W        W22458   9.666  10.186   4.926  0.2425  0.1286 -0.2536
79521W        W22459   9.394   8.691   5.699  0.3979  0.1438  0.0901
79522W        W22460   6.977   9.887   6.462  0.3041  0.1496 -0.1248
79523W        W22461   9.640   6.640   5.067 -0.0057  0.2171  0.0944
79524W        W22462  10.623  11.251   4.606  0.1920 -0.2061  0.3807
79525W        W22463   9.513  10.106   5.504 -0.0821 -0.1529 -0.3342
79526W        W22464   7.556   9.470   4.324 -0.2166 -0.2577  0.3232
79527W        W22465   7.925   7.516   5.035  0.0921 -0.0682  0.0131
79528W        W22466   9.335   8.935   3.304  0.1848  0.0328 -0.0569
79529W        W22467   7.771   7.949   7.412  0.3740 -0.4712 -0.2007
79530W        W22468   7.798   9.945   5.120  0.0948 -0.0316  0.1657
79531W        W22469   7.696   8.830   3.725  0.2458 -0.1766  0.0130
79532W        W22470   7.244  10.014   4.951 -0.2617  0.1478  0.3010
79533W        W22471  11.342   8.930   6.145 -0.1016  0.0034  0.3333
79534W        W22472  10.591  10.130   4.147  0.1935 -0.3789  0.4403
79535W        W22473   8.102   8.055   5.742  0.1622 -0.0143  0.1123
79536W        W22474   9.552   6.516   7.207  0.0012  0.4188  0.1244
79537W        W22475   9.722   9.603   3.541  0.3836 -0.2476 -0.2647
79538W        W22476  10.195   7.666   6.980 -0.3090  0.0887  0.0410
79539W        W22477   6.572   6.966   6.610  0.0341 -0.1476 -0.2503
79540W        W22478  10.642   9.681   5.309  0.1295 -0.0221 -0.1828
79541W        W22479   6.955   8.642   5.776 -0.1938 -0.0221  0.1353
79542W        W22480   8.791  10.623   6.830  0.1782  0.0673 -0.1639
79543W        W22481   7.523   9.245   7.547 -0.2379 -0.0345 -0.1111
79544W        W22482   9.175   6.894   6.428 -0.1486  0.4140  0.0295
79545W        W22483   6.918   7.422   3.122 -0.2164  0.0542  0.2179
79546W        W22484   7.307   9.031   5.957  0.0646 -0.2733  0.1380
79547W        W22485  10.774   9.359   3.759 -0.1495  0.0819 -0.2006
79548W        W22486   8.792   9.715   3.338  0.0901 -0.2102 -0.1581
79549W        W22487   9.599   8.990   4.734  0.0213 -0.0069  0.0447
79550W        W22488   7.085   8.849   6.376  0.2743 -0.0023 -0.3493
79551W        W22489  10.021   8.187   3.936  0.0432 -0.1618 -0.0751
79552W        W22490  10.257   9.933   3.403 -0.2421  0.0109  0.1858
79553W        W22491   9.307   8.768   5.166  0.2620 -0.1850  0.3120
79554W        W22492   7.913   6.945   8.106  0.1473  0.0532 -0.1421
79555W        W22493  10.107   9.949   5.022 -0.2563  0.3412 -0.2714
79556W        W22494   9.533   7.449   4.633 -0.1042  0.1840  0.3086
79557W        W22495   7.625   9.364   6.331 -0.1390 -0.0067 -0.1411
79558W        W22496   9.906   7.750   6.550 -0.3574  0.2167  0.1004
79559W        W22497   8.601   8.763   7.525 -0.2646 -0.0942 -0.0662
79560W        W22498   7.215   7.779   7.243 -0.1217 -0.1373 -0.0743
79561W        W22499   8.994  10.900   5.906  0.2843  0.0188  0.0673
79562W        W22500  11.691   7.907   4.113 -0.0219 -0.2268  0.3665
79563W        W22501  10.053   7.489   6.081 -0.0529  0.0169 -0.0056
79564W        W22502  10.539   9.142   4.495 -0.2073 -0.1800 -0.0736
79565W        W22503  10.329   9.345   3.480 -0.0081  0.1458 -0.0189
79566W        W22504   8.902   7.732   5.456  0.3519  0.2308  0.1019
79567W        W22505  10.118   8.967   5.755 -0.0715  0.1552  0.0633
79568W        W22506   8.640   6.909   2.262 -0.2679  0.3588  0.1715
79569W        W22507   9.613   7.221   6.390 -0.2583 -0.2779 -0.2473
79570W        W22508   8.955   9.223   3.024 -0.0849  0.1593 -0.0833
79571W        W22509   9.788   9.352   4.302  0.0726  0.1134  0.1306
79572W        W22510   9.272   7.678   4.045 -0.2589 -0.4957 -0.1681
79573W        W22511   7.437   6.565   5.208 -0.0565 -0.0425 -0.1666
79574W        W22512   6.958  10.467   7.377 -0.2199 -0.1520  0.2773
79575W        W22513   6.915   7.449   4.032 -0.2534 -0.0157 -0.0807
79576W        W22514   8.253   9.365   2.138 -0.2823  0.1884  0.3183
79577W        W22515   8.125   9.421   5.817  0.2881  0.2757 -0.5343
79578W        W22516  10.457   9.589   7.097 -0.0238  0.0408  0.0664
79579W        W22517   8.126   6.408   4.476 -0.0969 -0.0018  0.2783
79580W        W22518  10.150   8.681   8.756  0.2506 -0.1755  0.1321
79581W        W22519   6.477   8.467   5.040  0.1853  0.1545  0.0452
79582W        W22520   8.722   7.255   5.379 -0.1194  0.1219 -0.1953
79583W        W22521   8.078  10.156   7.676  0.0224  0.1485 -0.1182
79584W        W22522   6.588   9.038   6.286 -0.0445  0.0831  0.2382
79585W        W22523   9.011  10.193   5.337 -0.0988 -0.1236  0.1010
79586W        W22524   9.554   8.116   7.017  0.2803 -0.0693  0.2814
79587W        W22525   9.735   8.262   5.542 -0.0338 -0.0426 -0.1255
79588W        W22526   7.881   7.555   5.649  0.1275 -0.1840 -0.0585
79589W        W22527  10.882   9.218   5.915 -0.1371 -0.1069  0.0671
79590W        W22528   8.931   8.693   5.570  0.1150 -0.0788 -0.0484
79591W        W22529   6.685   9.587   5.611  0.0881 -0.0171  0.3746
79592W        W22530   9.749   9.494   6.641 -0.3925 -0.1319  0.2092
79593W        W22531  10.932  10.099   5.373  0.0125  0.1409  0.1598
79594W        W22532   9.007   9.189   4.712  0.0213  0.0552  0.3396
79595W        W22533   7.853   8.125   6.431  0.0325  0.0269 -0.0874
79596W        W22534   7.690   8.314   7.777 -0.3299  0.0573 -0.1737
79597W        W22535   9.709   9.715   4.619  0.2299 -0.0184  0.1881
79598W        W22536   6.982   6.325   5.329 -0.0740  0.0037 -0.4087
79599W        W22537   9.428  10.540   3.486 -0.5336  0.0237  0.0285
79600W        W22538   7.297  10.111   5.994 -0.0713 -0.0516 -0.0344
79601W        W22539   7.444   8.525   6.003 -0.3391  0.2140  0.1415
79602W        W22540   8.436  11.015   2.555 -0.2135 -0.1701  0.0763
79603W        W22541  10.835  10.596   3.497  0.0013  0.1000  0.0567
79604W        W22542   9.457   9.199   3.795  0.0670 -0.1319 -0.2079
79605W        W22543   9.277   9.910   4.986 -0.0652 -0.2836  0.0081
79606W        W22544   8.723   8.936   3.374  0.1629  0.1502  0.1163
79607W        W22545   8.943  10.074   4.551 -0.1148 -0.1606  0.1673
79608W        W22546   8.479   9.342   3.192  0.0216  0.0856 -0.0324
79609W        W22547   9.158  10.398   3.022 -0.2284  0.0393 -0.0533
79610W        W22548   7.978   9.764   4.419  0.0295 -0.0061 -0.0880
79611W        W22549   9.503  10.390   7.205 -0.0948 -0.1208 -0.1912
79612W        W22550   9.917   7.190   2.314  0.1942 -0.0239 -0.2600
79613W        W22551  10.989   9.150   5.466  0.3817 -0.0927 -0.0788
79614W        W22552  11.011   8.881   3.843 -0.1349  0.0639 -0.2868
79615W        W22553   9.012  10.477   7.286  0.0254  0.0658 -0.0310
79616W        W22554   8.222   8.463   6.602  0.0953  0.1011  0.0793
79617W        W22555   9.616   7.651   3.650  0.0778 -0.0485 -0.1333
79618W        W22556   7.989   9.923   8.076 -0.0426  0.0386 -0.0318
79619W        W22557   9.290   7.274   6.808 -0.5326 -0.3362 -0.2040
79620W        W22558   5.925  10.457   7.837 -0.0799 -0.0392 -0.0029
79621W        W22559   9.892  12.134   3.673  0.0695  0.1161 -0.2914
79622W        W22560   6.787   8.027   2.685 -0.6260  0.3088 -0.2267
79623W        W22561   8.693   9.018   6.641 -0.0214 -0.1276 -0.0596
79624W        W22562   9.078   7.778   6.027 -0.1320  0.0010  0.1035
79625W        W22563   9.676   8.035   3.013  0.1924 -0.1230  0.1957
79626W        W22564   7.863   7.766   4.010  0.2430  0.2148  0.0297
79627W        W22565   8.345  10.172   4.516  0.1550  0.3244  0.3023
79628W        W22566   8.740  10.104   6.042  0.2199 -0.0873 -0.4138
79629W        W22567   8.227   9.757   4.903 -0.1997 -0.3430  0.1709
79630W        W22568   7.663   6.401   4.692  0.3121 -0.0138 -0.2081
79631W        W22569  10.244   9.433   6.613 -0.4827  0.2818  0.3713
79632W        W22570   8.950   7.916   7.757 -0.1954 -0.2734 -0.3547
79633W        W22571  10.870   8.077   6.001 -0.2112 -0.0036 -0.0150
79634W        W22572   7.599   7.822   4.680 -0.3459 -0.0997 -0.0115
79635W        W22573   8.709   8.717   4.338  0.1777 -0.2856  0.0548
79636W        W22574   8.760   8.489   6.879 -0.0612  0.1369  0.0841
79637W        W22575   7.364   8.772   5.510 -0.1239 -0.1026 -0.0004
79638W        W22576   8.803   8.948   2.432  0.2236 -0.0907 -0.0757
79639W        W22577  11.397   9.980   7.020  0.0827 -0.1347 -0.1672
79640W        W22578  11.339   8.595   1.877  0.0366  0.1156  0.0733
79641W        W22579   9.505  11.727   7.098 -0.0271 -0.0748 -0.0219
79642W        W22580   7.650   8.050   5.850 -0.0619  0.0299  0.1574
79643W        W22581   8.262   7.228   2.304 -0.1269 -0.1053 -0.1114
79644W        W22582  10.023   9.694   5.576  0.0877  0.0460  0.1237
79645W        W22583   8.431   8.932   5.700  0.2676  0.1495  0.1203
79646W        W22584  11.085  12.430   6.833 -0.1088  0.3879  0.1327
79647W        W22585   7.447   7.257   5.042  0.2123 -0.0770 -0.1394
79648W        W22586  11.470  10.285   3.032 -0.0381  0.0525 -0.2022
79649W        W22587  10.161   8.176   6.715  0.2187  0.0057 -0.3314
79650W        W22588   8.355  11.134   4.514 -0.1550 -0.0327  0.3576
79651W        W22589   9.688   9.763   5.215 -0.1509  0.1930 -0.1034
79652W        W22590   9.004  12.549   6.174 -0.1590 -0.2355  0.1398
79653W        W22591   7.384   6.807   5.922 -0.3889 -0.2366 -0.4219
79654W        W22592  10.129  10.462   4.840 -0.2017 -0.1137 -0.2409
79655W        W22593  10.222  12.565   4.757  0.0960  0.1406 -0.0386
79656W        W22594   7.034   7.234   4.464 -0.1641 -0.1613 -0.2752
79657W        W22595   8.794   8.587   5.019 -0.1314  0.2019  0.0479
79658W        W22596   7.801  10.902   4.755 -0.1530  0.3321  0.0197
79659W        W22597  10.602   8.748   4.825  0.1614 -0.0066 -0.3044
79660W        W22598  10.102   6.987   6.370 -0.1789  0.1643  0.2828
79661W        W22599   8.826  11.351   2.431 -0.0545 -0.3468  0.1333
79662W        W22600   9.562   8.024   6.229 -0.0167  0.0787  0.0436
79663W        W22601   8.071   9.385   7.163 -0.0966  0.0722 -0.4628
79664W        W22602   8.564  10.341   7.661  0.1211  0.3216  0.0964
79665W        W22603   8.460   8.881   4.782  0.1348  0.0371 -0.0658
79666W        W22604   8.272  10.589   6.824  0.0651  0.1296  0.3036
79667W        W22605  10.214   8.614   4.077  0.0079 -0.1217  0.0004
79668W        W22606   9.188  11.765   4.026 -0.2684  0.2717 -0.1785
79669W        W22607   7.804   9.513   4.863 -0.0989  0.0293  0.0968
79670W        W22608   8.598   8.054   3.135 -0.1407 -0.2209 -0.1036
79671W        W22609   9.566  10.570   5.740 -0.1973 -0.2680 -0.0560
79672W        W22610   7.215   8.123   4.699  0.0865 -0.1025  0.3340
79673W        W22611   8.894   8.069   3.950 -0.4404 -0.2796 -0.1814
79674W        W22612  11.442   7.483   4.150  0.1465 -0.1578  0.2195
79675W        W22613   7.571   9.402   5.812 -0.1747 -0.0880 -0.1068
79676W        W22614   6.984   8.465   4.364  0.2217 -0.1723  0.2636
79677W        W22615   7.133   9.010   4.888 -0.2642  0.1794 -0.3219
79678W        W22616   9.506   9.688   4.109  0.1425 -0.1390 -0.2540
79679W        W22617   8.131   7.059   7.640 -0.1948 -0.2490  0.1544
79680W        W22618   8.690   9.535   7.121 -0.0561 -0.2158 -0.2426
79681W        W22619   8.270   8.710   5.309 -0.1100 -0.0164 -0.0352
79682W        W22620   7.506   6.047   5.112 -0.4313 -0.2170 -0.0429
79683W        W22621  10.749  10.505   2.825  0.2380  0.2718  0.1808
79684W        W22622   8.338   6.991   7.032  0.3153  0.1492  0.1879
79685W        W22623   7.486   5.703   6.042  0.6647 -0.3313 -0.1528
79686W        W22624   9.256  10.481   4.903 -0.1920  0.1497 -0.0352
79687W        W22625   9.952   9.387   4.891 -0.1701 -0.0810 -0.0064
79688W        W22626   6.917   7.831   3.733  0.3202 -0.0247  0.2185
79689W        W22627   9.986  11.155   6.831  0.3794 -0.5211  0.0319
79690W        W22628   5.416   8.864   4.303 -0.1881  0.1409 -0.0614
79691W        W22629   9.808   7.768   7.284  0.0517  0.1222  0.2205
79692W        W22630   8.296   8.527   7.164  0.0218 -0.0217  0.0024
79693W        W22631   6.935   6.958   3.939 -0.1315 -0.0955 -0.2068
79694W        W22632   8.774   7.913   6.394 -0.1340 -0.2961  0.2926
79695W        W22633   9.445  11.308   3.152 -0.4132 -0.0946  0.0110
79696W        W22634   9.253  10.205   1.692 -0.1562 -0.3046  0.0622
79697W        W22635   8.655   9.360   5.707 -0.1614  0.1807  0.1919
79698W        W22636   9.525   9.659   5.677  0.0378  0.2745  0.1360
79699W        W22637   7.693   7.717   6.993 -0.2251  0.2586  0.0415
79700W        W22638   9.968   9.709   3.963 -0.0749 -0.5485  0.1158
79701W        W22639   8.516   9.808   6.349 -0.1710  0.0613  0.0626
79702W        W22640   9.480  10.731   2.927 -0.0289  0.2087  0.1430
79703W        W22641  10.673   7.676   6.208  0.2797  0.0543 -0.0439
79704W        W22642   9.603   8.260   5.028 -0.3178  0.0674  0.0507
79705W        W22643   7.165   7.546   8.078 -0.0382  0.1195  0.2572
79706W        W22644   7.558   9.886   5.620  0.0287  0.0223  0.0821
79707W        W22645  11.626  10.403   5.729  0.1283  0.3553 -0.1779
79708W        W22646   7.874   7.543   6.487  0.2139  0.1699 -0.0281
79709W        W22647   9.503   8.107   3.999 -0.1412 -0.2536 -0.0563
79710W        W22648   9.578   8.611   3.793 -0.0673  0.2876  0.2079
79711W        W22649   8.150   9.175   5.117 -0.0636  0.2190  0.0032
79712W        W22650   8.986   8.403   1.966  0.0490 -0.3041  0.1732
79713W        W22651   8.819   8.927   6.036 -0.3318 -0.3228  0.3350
79714W        W22652   8.566  10.094   5.498 -0.0408  0.2845  0.0522
79715W        W22653  10.419  10.827   6.021 -0.0862  0.1022 -0.0551
79716W        W22654   7.937   8.978   4.702 -0.0790 -0.0360  0.0372
79717W        W22655   9.971  10.722   3.847 -0.1423  0.1565  0.0090
79718W        W22656   9.227   9.385   6.917  0.0550 -0.0296 -0.3462
79719W        W22657  10.707  11.364   6.963 -0.2165 -0.0342  0.0104
79720W        W22658   7.918   9.018   5.537 -0.2261  0.1470 -0.2351
79721W        W22659  10.504   9.469   5.779  0.2175  0.1222  0.1345
79722W        W22660   6.515   7.640   6.742  0.1163 -0.0309 -0.1027
79723W        W22661   8.654   9.202   4.350 -0.0115  0.0028  0.1162
79724W        W22662   9.617   9.126   2.879 -0.0157 -0.3669  0.0018
79725W        W22663   9.265   7.846   5.002 -0.3881 -0.0059 -0.1418
79726W        W22664   8.950   7.288   5.827 -0.1103 -0.0453  0.4174
79727W        W22665   8.566   7.954   3.619 -0.1545 -0.2473  0.2204
79728W        W22666   8.531  10.494   6.417 -0.1700 -0.2624  0.4279
79729W        W22667   8.336   8.460   5.787 -0.0385 -0.4212  0.2196
79730W        W22668   8.304   9.627  10.055  0.2238 -0.2055 -0.0927
79731W        W22669   8.378   9.266   7.534 -0.1456  0.2918  0.2818
79732W        W22670   9.576   8.320   7.475  0.0432 -0.1112 -0.2086
79733W        W22671  10.181  10.844   8.102 -0.0565  0.0839 -0.2044
79734W        W22672   7.536   7.124   8.465  0.1277 -0.0404 -0.1836
79735W        W22673  10.126   9.834   6.879  0.3065 -0.0145  0.1534
79736W        W22674   9.825   9.956   8.057  0.0101  0.3482 -0.0311
79737W        W22675  10.274  12.124   9.064  0.1493 -0.0934  0.1354
79738W        W22676   8.496   7.386   7.403 -0.0228  0.0471 -0.3281
79739W        W22677   7.217   8.001   9.445 -0.0955  0.1217 -0.1438
79740W        W22678   9.398   7.698   8.716 -0.0320 -0.2445  0.2687
79741W        W22679   6.958   8.777  10.036 -0.3034  0.1119  0.2552
79742W        W22680   8.563   9.257   9.260  0.0327 -0.2265 -0.0007
79743W        W22681   7.832  10.446   8.099  0.0947 -0.0759  0.0553
79744W        W22682   8.698   7.142   9.289  0.0443 -0.1723  0.1913
79745W        W22683   8.912   8.928   7.922  0.2748  0.1176  0.0048
79746W        W22684  10.777  11.348   9.784  0.1417 -0.1423 -0.0400
79747W        W22685  10.146   8.665   9.844 -0.0564  0.1463  0.2836
79748W        W22686  10.549  10.091   9.724  0.0700 -0.0563 -0.0872
79749W        W22687   7.852   8.965   7.223  0.1322  0.0490  0.1247
79750W        W22688   8.947   8.884   8.459  0.2689  0.1114 -0.1440
79751W        W22689   7.594   9.604  10.015 -0.1467  0.0997  0.0649
79752W        W22690  10.634   9.191   8.327 -0.2081 -0.0954 -0.0833
79753W        W22691   8.626  10.017   8.825 -0.2500 -0.1526 -0.2672
79754W        W22692  10.013  11.696   8.996  0.1461 -0.1755 -0.1346
79755W        W22693  10.710  10.008   8.031 -0.1536 -0.1228 -0.1189
79756W        W22694   7.613  10.602   8.584 -0.0368  0.0057 -0.0389
79757W        W22695   6.140  10.187   8.553 -0.4325  0.3079  0.1463
79758W        W22696   9.212  10.273   7.739  0.3278 -0.1441  0.0080
79759W        W22697  10.427  11.687   7.245  0.1223  0.0507  0.1161
79760W        W22698   7.695  10.105   6.867  0.2689 -0.1456  0.2907
79761W        W22699   9.353   9.149   8.180  0.0377  0.2961 -0.1311
79762W        W22700   9.574   8.720   7.798  0.0203  0.2625  0.0014
79763W        W22701   9.353  10.678   7.992  0.2338 -0.3194  0.0974
79764W        W22702  10.321   9.433   7.543 -0.1872 -0.0986  0.0342
79765W        W22703   8.018   8.690   8.158 -0.5265  0.0895 -0.1454
79766W        W22704   7.127   9.441   6.344 -0.1942 -0.1137  0.0319
79767W        W22705  10.070   9.391   6.065  0.0632 -0.0075 -0.1564
79768W        W22706   8.301   6.936   8.463 -0.0024 -0.3048 -0.1322
79769W        W22707  10.269   8.881   7.509  0.0461 -0.0116 -0.4217
79770W        W22708   7.953   6.409   9.012  0.3358  0.3216 -0.2214
79771W        W22709  10.729  10.003   8.827 -0.4151 -0.0659 -0.2476
79772W        W22710   8.902   7.020   8.831  0.3579 -0.1297 -0.0794
79773W        W22711   8.174   8.283   7.931 -0.1237  0.1002 -0.0647
79774W        W22712  10.048   9.009   9.114  0.2575  0.0096  0.2821
79775W        W22713   8.671   9.105   8.784  0.2566  0.1941  0.0586
79776W        W22714   8.217   7.330   9.158 -0.0099 -0.0988 -0.1370
79777W        W22715  10.157  11.185   7.417 -0.1755 -0.0214 -0.0443
79778W        W22716  12.184  11.288   8.933 -0.1337  0.0214  0.3169
79779W        W22717   9.683   9.525   7.155  0.0068  0.3512 -0.3416
79780W        W22718   8.477   9.853   7.845  0.4170  0.1742  0.0617
79781W        W22719   8.794   6.436   7.667 -0.2940 -0.0787 -0.2627
79782W        W22720  11.842   8.678   8.023  0.1291  0.0096 -0.0478
79783W        W22721   8.510   9.399   8.461  0.0242  0.1211  0.2022
79784W        W22722  11.549  12.813   9.049 -0.4165 -0.0802 -0.1357
79785W        W22723   8.983   9.529   6.094  0.1711  0.1877  0.0960
79786W        W22724  10.409   7.983   9.908 -0.4176 -0.0461  0.1492
79787W        W22725   9.131   6.287   9.448 -0.1201 -0.2464  0.1357
79788W        W22726   8.123  10.411   5.567  0.0360 -0.4055 -0.2652
79789W        W22727   8.428   9.461   6.745  0.1179 -0.0853 -0.3123
79790W        W22728  10.262  10.569   9.403  0.0109  0.0728  0.2578
79791W        W22729  10.062   9.220   7.049 -0.2219 -0.3161 -0.1061
79792W        W22730   7.999  10.989   8.963 -0.2107  0.1185 -0.0382
79793W        W22731   8.446  11.770   7.785  0.2951  0.4084 -0.2100
79794W        W22732   5.990  11.094   9.934 -0.2527  0.1961  0.3879
79795W        W22733   6.444   9.615   8.085  0.1328 -0.2375  0.0843
79796W        W22734   3.996   6.757  10.024 -0.0332 -0.0751  0.2410
79797W        W22735   7.539  11.416   8.816 -0.0691  0.4009  0.2100
79798W        W22736  10.335   6.686   9.457  0.1204  0.0368  0.3566
79799W        W22737   8.400   9.949   8.343  0.3451 -0.0817  0.1554
79800W        W22738  10.544  10.836   7.780 -0.4038  0.4653  0.3672
79801W        W22739  11.627   9.681   7.422  0.0597  0.1168 -0.0540
79802W        W22740   9.603   9.974   6.922 -0.0317  0.0692 -0.1595
79803W        W22741   6.219   6.908   9.313  0.0732 -0.0920  0.1593
79804W        W22742   7.396   7.989   8.097  0.0321  0.3256  0.1872
79805W        W22743   6.719   7.105   9.260 -0.1409  0.4118 -0.0480
79806W        W22744   7.874   6.938   8.822 -0.0224  0.1656  0.0442
79807W        W22745  10.324   9.473   8.782  0.0407 -0.1993 -0.3102
79808W        W22746  10.583   7.543   8.172 -0.0163 -0.4839  0.3064
79809W        W22747   7.322   8.636   8.669 -0.2183 -0.1006 -0.0002
79810W        W22748  10.000  10.742   8.624  0.0818  0.1829  0.1230
79811W        W22749  10.582  10.510   8.729  0.0859 -0.1103 -0.3500
79812W        W22750   9.885   9.651   8.959  0.5440  0.0730  0.1420
79813W        W22751   8.003   5.810   9.055 -0.3046 -0.0150 -0.1690
79814W        W22752   6.781   8.467   7.569 -0.0565 -0.0077 -0.0887
79815W        W22753   7.725  11.017   7.919 -0.0035  0.1086 -0.0315
79816W        W22754   8.620  10.838   8.179 -0.0374 -0.0397 -0.0656
79817W        W22755   8.749   7.709   8.173  0.0932 -0.2655  0.1985
79818W        W22756  10.080  12.357  10.008  0.1114 -0.0661 -0.1828
79819W        W22757  10.288   9.703   7.947 -0.3734 -0.0838  0.0119
79820W        W22758  11.457   9.458   9.646  0.2227  0.1687  0.0571
79821W        W22759   9.520   8.647   8.422  0.0156  0.1674  0.1849
79822W        W22760   6.782   7.770   8.343 -0.3028 -0.1563 -0.0902
79823W        W22761  11.053  11.330   7.618  0.2511 -0.0728 -0.0388
79824W        W22762   7.286   9.725   6.973  0.1996 -0.3574  0.2669
79825W        W22763   8.070   9.019   9.468  0.0124 -0.0322  0.2720
79826W        W22764   9.036  10.653   8.319 -0.1187 -0.1621 -0.2326
79827W        W22765  10.671   8.410   8.769  0.2982  0.0015  0.2305
79828W        W22766   7.657   9.347   6.906 -0.2340  0.1149 -0.3288
79829W        W22767   9.598   7.755   8.235 -0.0766 -0.2983 -0.0969
79830W        W22768  10.704   8.718   8.387 -0.2843 -0.1664  0.3324
79831W        W22769  11.674  10.249   8.361 -0.2805 -0.2483  0.1278
79832W        W22770   9.271   8.881   7.360  0.1646 -0.2514 -0.3280
79833W        W22771  10.028   7.350   7.334  0.3958  0.0740 -0.2081
79834W        W22772   8.223  10.848   7.813  0.3722  0.2718 -0.2695
79835W        W22773   9.572   9.926   9.165  0.1757  0.3396 -0.0813
79836W        W22774   8.762   7.301   7.836 -0.2700  0.4469 -0.2872
79837W        W22775  10.207  10.142   8.923 -0.1769 -0.1342  0.1044
79838W        W22776   9.155   7.917   8.320  0.1715  0.1973 -0.0243
79839W        W22777   9.592   9.184   5.883  0.1230  0.3159  0.0855
79840W        W22778   9.642   8.015   9.117 -0.1827 -0.2693  0.2153
79841W        W22779   8.446   7.750   7.772  0.0176  0.0221 -0.0285
79842W        W22780   9.595   7.302   8.513  0.2757 -0.0312 -0.1348
79843W        W22781   7.525   9.834   7.828  0.0828 -0.5050  0.0573
79844W        W22782   9.648   6.512   9.548  0.0347 -0.1698 -0.0537
79845W        W22783  10.444   9.292   9.312 -0.2077  0.0405  0.0958
79846W        W22784  10.264   8.325   8.463  0.1144  0.3399  0.0922
79847W        W22785  10.375   9.165   7.952  0.0662 -0.1318 -0.0235
79848W        W22786   7.102   8.540   6.846 -0.1439 -0.2843  0.6411
79849W        W22787  10.003   9.204  10.056 -0.2034  0.4192 -0.0215
79850W        W22788   9.100  11.647   9.499 -0.1742  0.4399  0.0971
79851W        W22789  11.195   9.230   7.410 -0.0136  0.0089 -0.1722
79852W        W22790  10.095   8.088   9.445 -0.3617 -0.2103  0.0953
79853W        W22791   7.390  10.410   7.811 -0.0778 -0.3447 -0.3132
79854W        W22792   8.840   9.784   8.383 -0.0801 -0.0739  0.0354
79855W        W22793   7.605   5.253   9.431  0.3020  0.3954  0.2113
79856W        W22794  10.230  10.638   7.467  0.1234  0.1765  0.1349
79857W        W22795   8.314  10.344   8.094 -0.1657  0.0137  0.2468
79858W        W22796   9.685   9.315   8.586  0.0593 -0.0346 -0.1797
79859W        W22797   7.262  11.046   8.672 -0.0694 -0.0035 -0.0117
79860W        W22798  11.892   3.954   9.820 -0.2215  0.0222  0.1991
79861W        W22799   5.958  11.576   8.855  0.2445  0.1970  0.0210
79862W        W22800   7.805   7.905   8.444  0.2244 -0.0697 -0.0547
79863W        W22801   6.771   9.453   7.323  0.1061 -0.0181  0.1645
79864W        W22802  10.062   9.079   9.577  0.0501 -0.1448  0.0929
79865W        W22803   9.980  10.373   6.817  0.2500 -0.2640 -0.0689
79866W        W22804   6.475   7.703   9.763  0.1845  0.0433  0.2306
79867W        W22805   8.745   6.073   9.762 -0.1961 -0.2682 -0.0343
79868W        W22806   5.497  11.206  10.129  0.0147  0.0949  0.0761
79869W        W22807   9.715   6.803   6.748  0.0100 -0.0049  0.0187
79870W        W22808   6.398   9.153   5.389  0.1026 -0.0289 -0.0864
79871W        W22809   9.414  10.898   9.510  0.1678  0.1425 -0.4318
79872W        W22810   9.401   8.948   8.791  0.2117 -0.0040  0.1230
79873W        W22811   7.352  10.765   8.225  0.3149 -0.1409  0.0890
79874W        W22812   8.753   9.430   8.030  0.0873  0.3525  0.0696
79875W        W22813   7.609   8.856   6.331 -0.2622  0.5482 -0.2843
79876W        W22814   8.306  10.514   8.923 -0.3316  0.0559  0.0346
79877W        W22815  12.892  10.056   9.553 -0.2642 -0.1888 -0.3290
79878W        W22816   7.582  10.995   9.408  0.0366 -0.3643 -0.0084
79879W        W22817   9.051   8.343   8.676 -0.0131  0.0628  0.0361
79880W        W22818   9.099   9.723   9.482 -0.0301  0.0484 -0.0280
79881W        W22819   9.843  10.791   7.712  0.4388 -0.1576 -0.2215
79882W        W22820  10.101  10.401   9.866 -0.2019 -0.1588 -0.1301
79883W        W22821   8.733   6.031   8.489 -0.0958 -0.1280  0.0447
79884W        W22822   9.215  10.334   6.795 -0.0280  0.0853 -0.0320
79885W        W22823   7.460   9.686   8.422  0.0780 -0.0750 -0.0060
79886W        W22824   8.447   8.705   9.287 -0.2169 -0.5221 -0.0636
79887W        W22825   8.215   9.565   9.402 -0.0424  0.2233  0.1644
79888W        W22826   9.588   8.176   8.532  0.1425 -0.0429 -0.2127
79889W        W22827   7.499   9.402   9.590 -0.2970 -0.3813  0.1485
79890W        W22828   8.590  10.407   8.484 -0.4008 -0.0548 -0.0148
79891W        W22829   8.485  11.005   9.154  0.0657 -0.1620 -0.2734
79892W        W22830  10.013   7.204   8.711  0.3048  0.0163 -0.3690
79893W        W22831   8.900   9.614   6.565 -0.1128  0.1660 -0.0055
79894W        W22832   9.521   7.215   9.032  0.1617 -0.0133  0.2975
79895W        W22833  10.355   8.630   6.984  0.2046  0.0136  0.1926
79896W        W22834   9.331   8.318   9.432 -0.3403 -0.0195 -0.2549
79897W        W22835  10.826  10.404   7.696 -0.2584  0.1055 -0.1188
79898W        W22836   8.540   7.367   8.644 -0.1019  0.0466  0.0158
79899W        W22837   8.303   7.328   8.046  0.0891  0.0435  0.0468
79900W        W22838   8.752   9.420   9.708  0.3305 -0.3974 -0.0450
79901W        W22839  10.187  10.257   8.366 -0.3057  0.1017  0.1089
79902W        W22840   9.714  10.050   8.664 -0.2454  0.3003  0.1643
79903W        W22841  10.616   8.342   9.653  0.0001 -0.3080 -0.1293
79904W        W22842   8.905   7.826   9.720  0.0160 -0.1620 -0.3418
79905W        W22843  10.635   9.648   8.419 -0.3571 -0.0857  0.1840
79906W        W22844   9.163   8.867   6.653  0.2255  0.0095 -0.2110
79907W        W22845   6.617  10.342   8.779  0.0521  0.0319  0.0634
79908W        W22846   9.844   8.929   8.162 -0.0517  0.3052  0.2842
79909W        W22847  10.139   8.132   8.902 -0.2200 -0.1789  0.1452
79910W        W22848  11.078  11.784   9.465  0.0763 -0.1647 -0.1283
79911W        W22849  10.021  10.180   7.288 -0.2319  0.0582 -0.0042
79912W        W22850  11.905   8.843   9.275 -0.0421  0.3310 -0.3137
79913W        W22851  10.760   8.879   7.669  0.3120  0.2335  0.1621
79914W        W22852   7.442   7.361   7.318 -0.2398  0.2047  0.0363
79915W        W22853   5.509   7.661   9.243  0.1343  0.3660 -0.2058
79916W        W22854   7.965   5.838   6.790  0.0452 -0.2171  0.1698
79917W        W22855   9.374  10.835   7.419  0.0558 -0.0978 -0.0240
79918W        W22856   8.376   9.002   7.096 -0.1385 -0.0901  0.1968
79919W        W22857   9.050   8.437   8.200  0.0281 -0.3606 -0.0406
79920W        W22858   8.387   9.009   7.958  0.2105 -0.1341 -0.1041
79921W        W22859   7.097   8.469   7.971  0.0210 -0.0699  0.3169
79922W        W22860   8.817  10.204   8.080 -0.0305  0.2707 -0.2003
79923W        W22861  11.501  11.942   9.341  0.3303 -0.0804 -0.2621
79924W        W22862   8.095   5.165   7.855  0.0993 -0.1571  0.1224
79925W        W22863   7.373  10.733   7.210  0.0941 -0.1082  0.5084
79926W        W22864  10.486   4.672   8.649 -0.0668  0.1490 -0.1478
79927W        W22865   9.994   9.857   9.865  0.1095 -0.4137  0.0520
79928W        W22866  10.616  10.525   8.179  0.1462 -0.0338 -0.2175
79929W        W22867   8.743   6.630   9.378 -0.0118 -0.1324  0.1158
79930W        W22868  10.157   9.145   8.471  0.0489 -0.0304 -0.0491
79931W        W22869   9.978   9.634   8.411 -0.0303  0.0669 -0.2501
79932W        W22870   8.102   8.698   7.625  0.1053  0.0556 -0.0251
79933W        W22871   9.131   9.255   9.187  0.1424  0.2658 -0.0894
79934W        W22872   7.363  10.756   9.046 -0.2911  0.1915 -0.1353
79935W        W22873   9.577   8.454   8.942 -0.2106  0.1109 -0.1376
79936W        W22874   9.369   8.191   7.935 -0.0082  0.1301 -0.3830
79937W        W22875   8.853   9.290   7.546 -0.1676 -0.0060 -0.0306
79938W        W22876   9.248   7.497   7.964 -0.0737 -0.0436 -0.2841
79939W        W22877   6.712  10.146   8.153 -0.0775 -0.2609 -0.0912
79940W        W22878   9.621   9.063   6.997  0.2128  0.1794 -0.0733
79941W        W22879   9.972   9.811   7.625  0.1258  0.0622  0.0941
79942W        W22880  10.946  12.102   7.913  0.0864 -0.2115 -0.0839
79943W        W22881   8.126   8.287   8.475  0.3670 -0.2414  0.5057
79944W        W22882   8.445  10.980   8.668 -0.4446 -0.2212  0.0905
79945W        W22883   6.808   8.937   7.490 -0.0216 -0.3711  0.0413
79946W        W22884  10.876   9.872   7.162 -0.1368  0.2275  0.1827
79947W        W22885   6.912  10.540   7.951  0.0728  0.0457  0.3707
79948W        W22886  10.105   7.028   7.801  0.0869 -0.1475 -0.4656
79949W        W22887   9.840  10.467   8.104 -0.2635 -0.2985 -0.1428
79950W        W22888  10.379   8.612   8.021 -0.2709 -0.0024  0.1036
79951W        W22889   9.624   9.262   9.167 -0.2698  0.1109 -0.2769
79952W        W22890   9.749   7.468   7.800 -0.2567  0.1953  0.2068
79953W        W22891   9.370  10.164   8.199 -0.0131  0.4622 -0.0307
79954W        W22892   7.967   7.384   8.401 -0.0207 -0.0712 -0.0495
79955W        W22893   8.472   8.699   8.352  0.2970  0.0836 -0.0572
79956W        W22894  11.069   9.987   9.177 -0.0884 -0.1106  0.0802
79957W        W22895   8.861   8.891   7.116 -0.0760  0.1843 -0.2273
79958W        W22896  10.061  10.120   9.439  0.2039  0.0005 -0.1814
79959W        W22897   8.910  11.014   7.204  0.1512 -0.1571 -0.0836
79960W        W22898   9.215  10.553   9.007  0.0007 -0.2098  0.1083
79961W        W22899   6.785  10.967   8.826 -0.5230 -0.0740  0.0721
79962W        W22900   8.043   8.476   9.574 -0.1932 -0.0237 -0.0692
79963W        W22901  11.094  10.854   7.748  0.3403  0.2060 -0.0423
79964W        W22902   7.588   7.312   9.234 -0.3158 -0.3530  0.0472
79965W        W22903   9.047   9.389   8.511 -0.2959 -0.1131 -0.0096
79966W        W22904   9.951   9.602   9.454  0.0862  0.3386  0.0051
79967W        W22905  10.703  10.918   9.514 -0.2994 -0.1175  0.1314
79968W        W22906   7.679   8.695   9.141  0.2361 -0.1021 -0.3427
79969W        W22907   8.638   8.416   7.880  0.1377 -0.0912  0.1607
79970W        W22908   9.779   8.531   6.859  0.2183  0.1599  0.0099
79971W        W22909   8.092   6.868   9.356 -0.1030 -0.0884  0.0703
79972W        W22910   9.835   8.558   9.411  0.0929  0.1460 -0.1600
79973W        W22911   8.365   9.767   7.378 -0.2811 -0.2293 -0.1134
79974W        W22912   9.417   8.843   9.333  0.0516  0.4000 -0.0033
79975W        W22913   7.646   6.732   9.344 -0.0872 -0.0789  0.0791
79976W        W22914   9.216  11.296   7.413  0.3310  0.0304 -0.2210
79977W        W22915  11.732   9.382   9.201  0.3208 -0.2570  0.0925
79978W        W22916   7.623  11.295   6.462  0.0775  0.0318  0.2050
79979W        W22917  10.487   9.924   7.551 -0.1924 -0.1362  0.3776
79980W        W22918  10.767   9.439   7.899  0.2764  0.1941  0.2842
79981W        W22919   6.252   7.861   9.029  0.2444  0.2060 -0.1408
79982W        W22920   8.903  10.758   9.396  0.0939 -0.0390  0.2153
79983W        W22921  10.580   8.904   8.898 -0.1750  0.0656 -0.1668
79984W        W22922   9.595   6.047   7.459  0.2104 -0.0714  0.1421
79985W        W22923   7.993   9.621   8.458  0.2408  0.1630 -0.4712
79986W        W22924   8.658   8.149   8.376  0.0984  0.1970 -0.2892
79987W        W22925  11.155   8.319   8.613  0.1261 -0.1180 -0.0989
79988W        W22926   9.008  11.606   7.891 -0.0310 -0.0338  0.2572
79989W        W22927   8.757  10.681   8.918  0.1058  0.0815 -0.3988
79990W        W22928   8.871   9.929   7.516 -0.2208 -0.0720 -0.0031
79991W        W22929   9.078  10.208   8.587  0.0945  0.2859  0.0844
79992W        W22930   9.711  10.935   8.240  0.0592 -0.0047 -0.2001
79993W        W22931   9.676   9.495   7.940  0.2030  0.0734  0.3078
79994W        W22932   8.342   7.801   8.805 -0.0033  0.0021 -0.2060
79995W        W22933  11.422   8.998   9.246 -0.0320  0.0948  0.1676
79996W        W22934  10.035   8.487   7.725  0.1719 -0.3313 -0.0499
79997W        W22935  11.165   7.423   8.163 -0.0833 -0.3893  0.2630
79998W        W22936  10.360   8.536   9.247  0.1218 -0.1185  0.0452
79999W        W22937   6.318  10.848   9.522 -0.0429 -0.3727  0.0843
80000W        W22938   7.366   8.988   6.717 -0.2570  0.0666 -0.0426
80001W        W22939   7.969   9.627   7.646  0.1848  0.1177  0.1215
80002W        W22940   8.865   8.743   9.710 -0.0599  0.0398 -0.0825
80003W        W22941   7.881   8.737   8.712  0.2301  0.0783  0.2418
80004W        W22942   8.058   6.443   8.527 -0.0985 -0.1286 -0.0437
80005W        W22943   9.944  11.248   7.894  0.1519 -0.1148 -0.0602
80006W        W22944   8.433   8.006   9.767 -0.1409 -0.0989  0.2893
80007W        W22945   6.168   7.477   8.150 -0.1871 -0.0289  0.0955
80008W        W22946   9.828   8.715   7.305  0.0074  0.1958  0.2973
80009W        W22947   9.464   9.921   7.470 -0.1828  0.1606 -0.1087
80010W        W22948  10.495   8.130   8.053 -0.0371 -0.1184  0.1703
80011W        W22949   7.906   9.778   6.095 -0.1558  0.1535  0.1407
80012W        W22950   5.909   6.670   7.792 -0.1745  0.1276  0.0811
80013W        W22951   9.892   6.889   9.254 -0.1206  0.1625  0.0988
80014W        W22952   8.627   9.826   9.343 -0.0166  0.3648  0.2199
80015W        W22953   9.773  10.752   6.134 -0.0486 -0.0302 -0.2154
80016W        W22954   8.106   8.404   9.010 -0.0474  0.1238  0.0780
80017W        W22955  11.191  10.322   7.353  0.0339 -0.4295  0.2295
80018W        W22956  10.997  10.249   6.828 -0.0652  0.0237  0.0155
80019W        W22957  11.050   8.739   9.029  0.0369  0.2876 -0.0628
80020W        W22958   9.856   9.201   7.551  0.0672  0.0723  0.0686
80021W        W22959  11.087   8.961   8.573 -0.1172  0.2460 -0.1163
80022W        W22960   7.932   7.825   7.954  0.0613 -0.0697 -0.2171
80023W        W22961  10.250   7.553   7.814 -0.2747 -0.0106 -0.2120
80024W        W22962   9.542  10.536   8.601  0.0210  0.0655 -0.1909
80025W        W22963   8.656   8.205   9.222  0.3203 -0.1061 -0.1146
80026W        W22964   9.457   7.823   7.631  0.1691 -0.4174 -0.1564
80027W        W22965   8.313   9.620   8.850  0.2382  0.1454 -0.0295
80028W        W22966   9.082   8.513   7.654 -0.1410 -0.1497  0.1268
80029W        W22967  10.859   8.463   7.985  0.0329  0.0747  0.0806
80030W        W22968  11.783   9.831   9.938 -0.2489 -0.0857  0.1612
80031W        W22969  10.807  10.498   9.842  0.1049 -0.0247  0.1108
80032W        W22970  10.287  10.274   7.855 -0.2285  0.0759  0.1754
80033W        W22971   9.539   6.053   9.679 -0.2113  0.1873 -0.0554
80034W        W22972   8.844   9.606   8.906  0.0300 -0.0415  0.2413
80035W        W22973   9.359   9.623   8.869  0.0080  0.2637 -0.0794
80036W        W22974  11.612   9.837   9.279  0.0399  0.0033  0.1557
80037W        W22975   9.842   8.367   8.169  0.2889  0.1178 -0.1155
80038W        W22976   8.786   6.980   8.328 -0.0562 -0.1290  0.0545
80039W        W22977   6.250  10.521   9.056  0.1902 -0.4044  0.4755
80040W        W22978  11.277   9.936   9.703 -0.0068 -0.2346 -0.5802
80041W        W22979   8.862  14.820   2.697 -0.0507 -0.0259 -0.1872
80042W        W22980   8.325  12.558   0.405 -0.1233  0.1026  0.0220
80043W        W22981   9.597  12.539   0.621  0.0170 -0.0196 -0.0499
80044W        W22982  10.541  12.463  31.060  0.1225  0.1718  0.0566
80045W        W22983   6.689  11.535   0.838 -0.3949  0.1616 -0.3543
80046W        W22984  10.655  15.038  31.227  0.2705  0.4944  0.2119
80047W        W22985  10.092  10.896   2.379 -0.1161  0.0394  0.0220
80048W        W22986  10.234  13.596   1.777  0.1539  0.0368  0.0138
80049W        W22987  10.997  14.725   1.535  0.1851  0.0174 -0.0346
80050W        W22988   9.803  13.873  30.592  0.0506 -0.1483  0.4342
80051W        W22989   8.416  12.082   1.694 -0.2804 -0.2806 -0.0728
80052W        W22990   8.498  13.798   1.571 -0.1870 -0.0220  0.0571
80053W        W22991   8.117  12.133   2.174  0.0841  0.3908 -0.1314
80054W        W22992   6.955   9.926   3.048 -0.0820  0.1051  0.0357
80055W        W22993  10.740  13.166   1.164 -0.4241  0.0647  0.1054
80056W        W22994   7.754  12.773   0.461  0.0512  0.2232 -0.2371
80057W        W22995   9.114  11.819   0.918  0.1401 -0.0656  0.0231
80058W        W22996   9.817  13.621  31.544 -0.4551 -0.3951 -0.0239
80059W        W22997   8.900  14.784   0.573  0.1344  0.3953  0.1270
80060W        W22998   8.630  10.566   2.830 -0.0323  0.1802  0.0678
80061W        W22999   8.627  12.292   2.811  0.1748 -0.4304 -0.2885
80062W        W23000   8.126  13.107   0.268 -0.2722  0.2488  0.1512
80063W        W23001   8.792  12.725  30.777 -0.0098 -0.1077 -0.3109
80064W        W23002   7.898  12.225   0.399  0.0743  0.0095  0.0000
80065W        W23003   7.845  13.888   2.341  0.2425  0.0401 -0.0195
80066W        W23004   8.949  12.410   1.442 -0.2220 -0.2846  0.0165
80067W        W23005  10.603  13.418   0.420 -0.0500  0.1351  0.1072
80068W        W23006   8.595  14.550   0.950 -0.0909  0.0978  0.2088
80069W        W23007   8.473  12.953   2.110 -0.0370 -0.3311 -0.3172
80070W        W23008   9.664  13.220   2.314 -0.0588 -0.0433 -0.0532
80071W        W23009   8.108  14.106   0.503  0.2312 -0.3125 -0.0363
80072W        W23010   6.773  13.897   1.580 -0.1688  0.0235  0.1890
80073W        W23011   9.179  14.422  31.669  0.2738 -0.1158 -0.3491
80074W        W23012  11.352  14.491  30.144 -0.0253  0.3453  0.0764
80075W        W23013   9.324  13.634   1.910 -0.1963  0.1576  0.1473
80076W        W23014   9.195  14.913   4.211 -0.3056 -0.1526  0.0116
80077W        W23015   6.822  13.477   0.756 -0.4929  0.1807  0.0138
80078W        W23016   8.907  13.985   3.982 -0.1653  0.0067  0.2910
80079W        W23017   6.060  13.921   2.716 -0.2538 -0.1857  0.0468
80080W        W23018   9.266  11.444   1.732 -0.2196 -0.1248 -0.0117
80081W        W23019   8.977  13.395   0.433 -0.2753  0.0125  0.1523
80082W        W23020   7.930  14.527   1.445  0.1725  0.3304  0.0562
80083W        W23021   9.080  13.167   0.991  0.0941 -0.0944  0.0877
80084W        W23022   7.937  14.218   3.473 -0.2732  0.0411  0.3948
80085W        W23023   6.944  12.276   1.623  0.1043  0.0056  0.0234
80086W        W23024   9.660  12.765   3.930  0.0297 -0.1206 -0.0331
80087W        W23025   8.290  13.397  31.812  0.1632  0.0214 -0.0472
80088W        W23026   9.357  11.632   0.221 -0.1109  0.1146  0.2194
80089W        W23027   8.796  11.427   1.074  0.0315  0.1187 -0.0329
80090W        W23028  10.513  12.732  31.892 -0.0177 -0.0177  0.0736
80091W        W23029   8.174   9.874   2.433 -0.0261  0.1884  0.0644
80092W        W23030   8.767  14.058   1.178  0.2216 -0.0230 -0.0822
80093W        W23031   8.763  11.297   1.578 -0.1061  0.0284  0.1849
80094W        W23032  10.588  15.342   2.023  0.0334 -0.0675 -0.1174
80095W        W23033   9.656  11.268   0.500  0.1401 -0.3712 -0.0123
80096W        W23034  10.775  12.444   2.469 -0.0420  0.1022  0.0541
80097W        W23035   8.793  13.615   1.943  0.3005  0.4565  0.0361
80098W        W23036   7.222  12.684   1.272 -0.2580 -0.2320 -0.2586
80099W        W23037  10.695  13.368  29.543 -0.1308  0.3550 -0.0075
80100W        W23038  10.159  13.706   0.708 -0.2753  0.0965  0.1003
80101W        W23039   8.640  13.180  31.518  0.0290  0.0345  0.2769
80102W        W23040   8.721  11.676  31.128 -0.0892 -0.2068  0.0734
80103W        W23041   7.650  12.351   2.119  0.0468 -0.1809 -0.4598
80104W        W23042   8.031  13.025   1.669  0.0547  0.1823  0.2033
80105W        W23043   7.564  10.368  30.296 -0.0344 -0.2038 -0.2546
80106W        W23044   9.508  13.886   3.673 -0.2150  0.3223  0.0732
80107W        W23045   6.681  12.997   1.960 -0.1045  0.0959  0.1812
80108W        W23046  11.665  12.400   0.504  0.0609 -0.0065  0.1158
80109W        W23047   8.805  14.428   0.175  0.0443  0.2368  0.3918
80110W        W23048  12.052  12.746   1.674 -0.0061 -0.2102  0.1482
80111W        W23049  11.785  14.204  30.384  0.1890  0.1090  0.1181
80112W        W23050  11.225  11.556   1.895  0.1286 -0.1877  0.2972
80113W        W23051   9.899  11.252   1.425  0.2783  0.1771  0.3718
80114W        W23052   9.445  13.904  30.990 -0.0090  0.0560 -0.1344
80115W        W23053  10.232  13.105   0.260  0.1831  0.0145  0.0872
80116W        W23054  10.673  13.753   2.353  0.3167 -0.1287  0.0651
80117W        W23055  10.305  13.563  31.627  0.2010  0.0776 -0.0310
80118W        W23056   9.308  16.333   1.571  0.2296 -0.0478 -0.0619
80119W        W23057   8.334  10.763   2.137  0.2078  0.0417  0.1299
80120W        W23058   9.250  15.380   4.796 -0.1049 -0.0356 -0.1056
80121W        W23059   7.226  14.837   1.403  0.1705  0.0857 -0.3792
80122W        W23060   7.717  12.458   1.223  0.0285  0.1280  0.1693
80123W        W23061   7.462  12.638   0.116 -0.0134  0.0436  0.2441
80124W        W23062   7.597  10.616   0.972  0.1553 -0.2736 -0.1334
80125W        W23063   8.317  13.935   0.916  0.2516 -0.1328 -0.0511
80126W        W23064  10.806  10.416   0.918 -0.4696  0.3242 -0.2263
80127W        W23065   8.487  11.249   3.576  0.2615 -0.2496  0.0711
80128W        W23066  11.700  11.206   1.250 -0.1168  0.0989 -0.1411
80129W        W23067   8.234  12.987   0.739  0.0202 -0.2346  0.2700
80130W        W23068  10.551  13.893   0.420 -0.1163 -0.1272  0.1313
80131W        W23069  11.633  11.803   2.255 -0.2361  0.0461  0.3330
80132W        W23070  10.628  14.934  29.303  0.0042  0.0137 -0.2354
80133W        W23071   6.627  12.249   2.409  0.0541 -0.1885  0.0976
80134W        W23072   7.865  11.697  31.839 -0.1274  0.0173  0.0260
80135W        W23073   8.610  11.937   2.301 -0.3364  0.2217  0.2247
80136W        W23074   8.161  10.914   0.217  0.1873  0.0993 -0.0147
80137W        W23075  10.071  13.850   2.295  0.0781 -0.0370  0.0333
80138W        W23076   7.503  11.477   0.661 -0.1252  0.1022 -0.0904
80139W        W23077   9.671  12.094   0.977  0.0351  0.2431  0.0347
80140W        W23078  10.403  13.188   0.791  0.0099  0.4707  0.3833
80141W        W23079   7.043  13.563   1.213  0.0037  0.1570 -0.3734
80142W        W23080   9.828  13.553   1.994 -0.0434 -0.1950 -0.2149
80143W        W23081   7.468  13.739  31.319 -0.1619 -0.1311  0.2275
80144W        W23082  10.787  14.166   1.609  0.2052  0.0085  0.1815
80145W        W23083   9.083  14.941   2.287 -0.0278 -0.2036 -0.0114
80146W        W23084   8.023  10.222   1.450 -0.0592  0.1662  0.0773
80147W        W23085   8.153  11.295   0.476 -0.0634 -0.0817 -0.0343
80148W        W23086   7.528  13.268   2.489 -0.0379  0.0734  0.1431
80149W        W23087   8.927  13.869   0.268 -0.2082 -0.2824  0.1718
80150W        W23088   9.190  11.182   1.299  0.0434 -0.0310 -0.0399
80151W        W23089  10.791  13.613   1.447  0.0229 -0.1296  0.0331
80152W        W23090   9.775  12.437   1.426 -0.0920 -0.0476  0.0516
80153W        W23091   7.326  13.587   2.898  0.3490 -0.1177 -0.0382
80154W        W23092  10.415  11.380   3.221 -0.1799 -0.3329  0.0972
80155W        W23093  11.581  14.017   2.046  0.0750  0.0916 -0.0127
80156W        W23094   9.454  11.596   1.280 -0.1060  0.0712 -0.0161
80157W        W23095   8.128  10.391   0.291 -0.1050 -0.3748  0.1980
80158W        W23096   7.845  14.950   1.095 -0.1520  0.2553  0.3315
80159W        W23097   7.406  13.290   1.052  0.1605  0.0365 -0.0255
80160W        W23098   7.916  11.761   0.505  0.0492  0.0160  0.0781
80161W        W23099   8.603  13.279   0.816  0.0576  0.2525  0.3615
80162W        W23100  12.177  11.906   0.701  0.4792 -0.2503  0.2426
80163W        W23101   7.933  12.114   3.696  0.0694  0.2492  0.0689
80164W        W23102  10.247  12.603   1.593  0.2683 -0.1291  0.7329
80165W        W23103   6.777  12.211   0.525 -0.0351  0.0221  0.0048
80166W        W23104   7.958  13.527   3.755  0.0845 -0.0813 -0.0888
80167W        W23105   9.229  11.159   0.310 -0.1180 -0.3960  0.0161
80168W        W23106  11.000  11.157   0.133  0.1286 -0.2230  0.0019
80169W        W23107   8.972  13.070   2.274  0.2542  0.0624 -0.3011
80170W        W23108  11.126  13.742  31.170  0.1574 -0.1118 -0.2200
80171W        W23109  11.070  13.839  29.752 -0.0447  0.0263  0.0082
80172W        W23110   8.907  11.647   0.516 -0.1385 -0.0234 -0.0434
80173W        W23111   6.831  13.721   2.728 -0.2602  0.0740 -0.0982
80174W        W23112   9.847  13.833  31.982 -0.0726  0.0153 -0.1039
80175W        W23113   8.900  12.934   1.403 -0.2140  0.0909 -0.0761
80176W        W23114   8.379  12.864  31.866  0.1476 -0.0803  0.2608
80177W        W23115  10.233  13.722  30.749 -0.0227  0.1683 -0.2086
80178W        W23116   7.291  13.306   1.829 -0.0568 -0.1196 -0.0696
80179W        W23117   7.819  12.089   2.588 -0.0339  0.0059 -0.1320
80180W        W23118  10.432  13.983   1.960 -0.2639 -0.1918  0.3487
80181W        W23119   7.956  11.305   2.697 -0.1282  0.0377  0.1603
80182W        W23120   8.344  12.932   1.200  0.2829 -0.3138  0.2425
80183W        W23121   9.430  13.389   0.749 -0.2440 -0.1774  0.0651
80184W        W23122   7.140  14.668   0.168  0.6672 -0.0732 -0.1563
80185W        W23123   9.768  12.459   2.266 -0.0211  0.2369 -0.1297
80186W        W23124  10.745  12.499   1.620  0.3433 -0.2169  0.1094
80187W        W23125   8.881  11.395   3.156  0.1849 -0.0039  0.1755
80188W        W23126  10.934  12.347   1.172 -0.0115  0.2534 -0.0049
80189W        W23127  10.928  13.255  30.939 -0.1915 -0.2998 -0.0368
80190W        W23128  10.486  12.663   1.185 -0.0471  0.3161  0.1446
80191W        W23129   9.489  12.061  31.355 -0.3158 -0.2798  0.0556
80192W        W23130   8.820  10.752   2.270 -0.0029  0.0688 -0.0416
80193W        W23131   7.116  12.801   1.753  0.1959  0.2408 -0.0296
80194W        W23132   5.644  15.335   2.403 -0.0658  0.0650  0.1205
80195W        W23133   9.126  13.556   2.325  0.1554 -0.0696  0.1960
80196W        W23134  10.370  12.655   0.599  0.1380 -0.1381  0.0733
80197W        W23135   9.158  12.335   2.772 -0.0558 -0.0918 -0.0824
80198W        W23136   9.072  11.736  31.561 -0.1531  0.1987 -0.1227
80199W        W23137   9.051  13.945  31.316  0.1204  0.0867 -0.0064
80200W        W23138   8.619  13.677  31.520 -0.0638 -0.4454 -0.1814
80201W        W23139   8.772   9.369   2.176  0.3075 -0.0555 -0.0700
80202W        W23140   9.722  15.309   2.357 -0.0216 -0.0728  0.0695
80203W        W23141   9.351  12.505  29.885  0.4965  0.1866 -0.0068
80204W        W23142   9.786  13.333   2.874  0.0369  0.0643  0.0565
80205W        W23143   9.018  13.691  30.816 -0.0894 -0.1902  0.2312
80206W        W23144  11.109  12.576   2.785 -0.2476 -0.1224  0.0658
80207W        W23145   8.710  12.034   1.204  0.1151 -0.4881 -0.1947
80208W        W23146   8.186  12.151  31.963 -0.1352  0.0533  0.0737
80209W        W23147   7.940  12.621   0.017  0.1846  0.1355  0.0494
80210W        W23148  10.013  12.714   0.995 -0.0784 -0.1670 -0.2195
80211W        W23149  10.737  14.099  30.555  0.2871  0.0392 -0.1197
80212W        W23150   7.751  10.749   3.345 -0.1142 -0.1642 -0.1664
80213W        W23151   9.580  10.788   0.522  0.3294 -0.3535  0.0079
80214W        W23152   6.754  13.429   2.201 -0.2504  0.0962 -0.1406
80215W        W23153   9.598  13.722   2.461  0.5332 -0.1416  0.3502
80216W        W23154   9.744  11.169  31.317 -0.0781 -0.0297 -0.1763
80217W        W23155  11.491  13.466   1.816  0.0679  0.4023  0.1385
80218W        W23156   7.736  12.996   3.895  0.1532 -0.1110  0.0233
80219W        W23157   5.466  12.456   1.073  0.0415 -0.0596  0.3443
80220W        W23158  10.541  12.849   2.694 -0.1773  0.0290  0.1960
80221W        W23159   7.455  11.981   0.496  0.0234 -0.1358 -0.2763
80222W        W23160   8.032  13.861   1.341 -0.4638 -0.0280  0.1077
80223W        W23161   9.945  14.352   2.111 -0.2231  0.2644  0.0197
80224W        W23162   9.706  12.623  31.317  0.0926  0.1750 -0.0836
80225W        W23163   7.692  13.293   0.632  0.0503  0.0142  0.0231
80226W        W23164   8.535  11.220   2.018  0.0011  0.2317  0.0775
80227W        W23165  11.259  12.691   0.468  0.3802 -0.0169 -0.0265
80228W        W23166   8.981  11.785   1.534  0.0157 -0.0917  0.1970
80229W        W23167   8.380  11.865   0.362 -0.0195 -0.1125 -0.3576
80230W        W23168   9.226  11.361   0.769 -0.1047  0.2577  0.0704
80231W        W23169  10.780  13.120   2.407 -0.0576 -0.2711 -0.1886
80232W        W23170   9.870  12.135   1.836  0.1508  0.0719 -0.1309
80233W        W23171   8.965  13.836   3.460  0.0784  0.0722 -0.0674
80234W        W23172   9.214   8.887   2.814  0.1141  0.1537  0.0718
80235W        W23173  11.059  13.219   0.547  0.0513 -0.1482  0.3246
80236W        W23174   9.606  13.235   1.689 -0.3125 -0.0104  0.0791
80237W        W23175   8.658  14.115   1.869 -0.2193  0.1665 -0.0847
80238W        W23176   6.734  12.518   1.957  0.0611  0.2250 -0.0758
80239W        W23177   7.800  15.851   1.359 -0.2009 -0.1192 -0.1591
80240W        W23178  10.048  11.538   1.035  0.0262  0.1488  0.1116
80241W        W23179   8.892  13.677   0.861  0.2014  0.1703 -0.0667
80242W        W23180   9.311  13.784  30.399  0.2572 -0.5240  0.0865
80243W        W23181   6.014  14.519   3.273 -0.0136 -0.1410  0.3179
80244W        W23182  10.358  11.958   0.321  0.0223  0.0080 -0.0062
80245W        W23183   9.275  14.392  31.108  0.2680  0.3444  0.1560
80246W        W23184   9.222  12.105   0.458 -0.2417 -0.0762 -0.2183
80247W        W23185  11.023  12.213   4.238 -0.1787  0.1508  0.1790
80248W        W23186  11.158  12.309  29.467  0.0035  0.1817  0.3331
80249W        W23187  10.345  11.717   2.147 -0.1534 -0.1185  0.1569
80250W        W23188   8.354  11.498   2.390  0.2682 -0.2660  0.2008
80251W        W23189  11.405  13.536   0.630  0.2942 -0.3672 -0.4179
80252W        W23190   8.019  11.701   3.068 -0.0459 -0.0871 -0.2509
80253W        W23191  11.064  14.397   4.217  0.0030  0.1763 -0.0801
80254W        W23192   9.387  12.127   1.409 -0.0099  0.1434  0.3798
80255W        W23193   9.890  11.857   1.365  0.1332 -0.1801  0.0290
80256W        W23194   7.172  11.534  31.439  0.2019  0.2421  0.3094
80257W        W23195   8.871  12.788   1.890  0.2516 -0.0514 -0.1480
80258W        W23196  10.111  14.121   0.362  0.0491  0.1381  0.1290
80259W        W23197   9.657  14.293   0.982  0.2063  0.0622 -0.3706
80260W        W23198   9.485  12.851   0.988  0.2615 -0.1410 -0.1209
80261W        W23199  11.618  13.675  31.547 -0.2673 -0.2370 -0.1302
80262W        W23200  10.171  11.967  30.927 -0.0047  0.1181 -0.2523
80263W        W23201   9.551  14.540   1.907  0.0128  0.2009 -0.0854
80264W        W23202   8.194  10.157   2.854  0.1313  0.5144 -0.3394
80265W        W23203   8.513  13.635   0.510  0.1105  0.1705  0.0130
80266W        W23204   9.689  11.200   0.024  0.1776  0.2089 -0.0678
80267W        W23205  10.358  11.039   1.213  0.1350  0.0493 -0.1435
80268W        W23206   9.315  12.762   1.575 -0.3607  0.0365 -0.0540
80269W        W23207   8.480  12.705   3.028 -0.2593 -0.0396 -0.1310
80270W        W23208   7.313  11.954   1.792  0.0016 -0.0281  0.2591
80271W        W23209   9.421  14.146   3.183  0.0062  0.0804  0.1199
80272W        W23210  10.606  13.370  30.596  0.1378 -0.2002  0.0791
80273W        W23211   9.910  12.956   1.415 -0.3502  0.0898  0.0653
80274W        W23212  11.323  12.197   2.439 -0.0665  0.1752  0.0946
80275W        W23213   7.900  11.368   1.523 -0.1278 -0.2869 -0.0405
80276W        W23214   7.651  10.347   3.045 -0.1600  0.0399 -0.0182
80277W        W23215   9.763  14.088   2.822 -0.0693  0.0721  0.2696
80278W        W23216   7.473  11.891  31.490  0.2952 -0.1105 -0.0137
80279W        W23217   9.793  11.643   1.787 -0.1555  0.1150  0.1046
80280W        W23218   8.474  14.364  30.643 -0.0866 -0.1640 -0.0817
80281W        W23219   9.150  12.872   0.600 -0.3757 -0.1474 -0.2221
80282W        W23220   9.835  12.958   0.592  0.0030  0.0955  0.0545
80283W        W23221   8.011  11.174   2.010  0.1470 -0.2808  0.0392
80284W        W23222   8.406  15.258   3.675  0.3495  0.2629 -0.0186
80285W        W23223   8.363  12.408  31.505 -0.0964 -0.1005  0.1684
80286W        W23224   9.788  13.477   0.455 -0.1007 -0.0437  0.3464
80287W        W23225   9.138  14.051   2.112 -0.0446  0.3201 -0.1543
80288W        W23226   9.216  12.617   3.606  0.0263 -0.2560  0.1238
80289W        W23227   9.548  12.848  31.828 -0.1802 -0.0526 -0.2184
80290W        W23228  10.445  13.134   3.383 -0.1160 -0.2330 -0.0248
80291W        W23229   7.280  13.719   1.615  0.3064  0.1244 -0.1996
80292W        W23230   9.336  10.845   0.951  0.0769  0.0220 -0.2209
80293W        W23231   8.625  14.422   2.790 -0.2359 -0.3719 -0.2108
80294W        W23232   6.964  14.176   2.503  0.2063  0.1197 -0.0418
80295W        W23233   8.938  13.517   1.375 -0.0478 -0.0082  0.0282
80296W        W23234   9.662  11.224   0.988 -0.0373 -0.1957 -0.0840
80297W        W23235  10.838  12.773   0.824 -0.0760 -0.1544  0.0565
80298W        W23236   8.569  13.249   1.700  0.1922  0.0007 -0.1471
80299W        W23237   9.725  13.655   3.313  0.2405  0.2145 -0.0348
80300W        W23238   8.976  14.387   2.438  0.0504 -0.0334  0.2273
80301W        W23239   7.088  12.939  31.830 -0.0475 -0.1110 -0.0149
80302W        W23240   9.614  14.798   2.399 -0.1480 -0.0001  0.0520
80303W        W23241  10.947  14.193   2.046  0.2523  0.0891 -0.3435
80304W        W23242   9.364  12.853   2.088  0.0476 -0.0175  0.4804
80305W        W23243   6.755  11.306   2.633 -0.0055  0.0809 -0.0920
80306W        W23244   8.003  13.219   3.413 -0.1219 -0.0516 -0.1083
80307W        W23245   9.928  13.249   1.009  0.2015  0.1876 -0.1458
80308W        W23246   8.411  11.550   0.793  0.1405 -0.3576  0.0852
80309W        W23247  10.171  12.802  31.170 -0.0801 -0.0405  0.0176
80310W        W23248   6.501  13.717   3.532  0.1055  0.2248 -0.0025
80311W        W23249   7.665  13.468   1.426  0.3202  0.2852 -0.0081
80312W        W23250   8.789  15.298   1.349 -0.2122 -0.0976 -0.2491
80313W        W23251   9.413  13.651   0.250 -0.0893  0.0153 -0.0422
80314W        W23252  10.000  12.508  30.814 -0.1465  0.2473 -0.0935
80315W        W23253   8.299  14.246   2.216 -0.4665 -0.1648  0.0335
80316W        W23254   7.879  11.534   1.016 -0.1215  0.0064  0.0132
80317W        W23255   8.127  14.278   2.814  0.1637  0.0442  0.0712
80318W        W23256   7.955  14.665   0.467 -0.0968  0.1859  0.0277
80319W        W23257   9.819  14.169  30.984 -0.2419 -0.0731  0.0415
80320W        W23258   7.222  14.307   1.728 -0.2978 -0.0814  0.3542
80321W        W23259   9.518  14.282   2.396 -0.0185  0.0121  0.0297
80322W        W23260  11.779  12.072   0.128  0.0803  0.1910  0.0732
80323W        W23261  11.117  13.014  31.949 -0.0618 -0.0197  0.0599
80324W        W23262  11.021  12.515   0.017 -0.0481 -0.1558 -0.0044
80325W        W23263   9.201  13.519   3.827 -0.2093  0.0401 -0.1269
80326W        W23264   9.811  12.720   1.841  0.1895 -0.1452  0.0160
80327W        W23265   8.732  12.473  31.866 -0.1407 -0.0379 -0.0545
80328W        W23266   8.239  13.179   2.984  0.0707 -0.0779 -0.1986
80329W        W23267   9.901  11.915   2.262 -0.0216  0.1917 -0.1214
80330W        W23268   7.692  12.617   2.523  0.1115 -0.1635  0.3272
80331W        W23269   9.751  15.001   0.551  0.1832  0.1714  0.1291
80332W        W23270   7.636  11.527   1.925 -0.0122 -0.3092  0.0121
80333W        W23271   7.965  12.992   2.536 -0.0234 -0.0716  0.0018
80334W        W23272  10.751  12.133   2.067 -0.0952 -0.2000  0.0595
80335W        W23273  10.419  13.721  29.699  0.1531 -0.1461 -0.2059
80336W        W23274   9.181  12.402   0.966  0.1057 -0.1863 -0.0154
80337W        W23275   9.885  14.265   1.578 -0.0247 -0.2132  0.1060
80338W        W23276   8.717  13.961   2.393 -0.1809  0.1480  0.2998
80339W        W23277   9.042  15.701   2.568  0.4851  0.6374  0.0862
80340W        W23278   7.233  11.533   1.110  0.3843  0.2968  0.4052
80341W        W23279  11.415  13.858   0.995 -0.1298  0.1481 -0.4079
80342W        W23280   7.638  12.916   2.030  0.0414 -0.3315  0.2841
80343W        W23281   9.839  11.095   1.927  0.0478  0.2159  0.0264
80344W        W23282   8.708  12.947   0.345 -0.1610 -0.0242  0.0798
80345W        W23283  11.922  12.965  31.916  0.0696  0.1335 -0.1454
80346W        W23284  10.337  13.271   2.865  0.1640  0.0170 -0.0424
80347W        W23285   8.185  11.713   1.909  0.0080  0.2732  0.1545
80348W        W23286  10.471  12.415  30.320 -0.0844 -0.2055  0.1603
80349W        W23287  11.146  14.413   2.478  0.2413 -0.1514 -0.0333
80350W        W23288   9.249  12.990  31.321  0.0302 -0.0477 -0.2396
80351W        W23289   9.525  15.513   1.704  0.0505 -0.3002 -0.0596
80352W        W23290   8.698  12.126   0.731  0.2715 -0.2217  0.1106
80353W        W23291   9.925  12.546   0.233 -0.0273 -0.1973 -0.1439
80354W        W23292   8.683  14.123   0.628  0.1770  0.1558 -0.2589
80355W        W23293   8.928  12.538   2.367 -0.1909 -0.1889 -0.2542
80356W        W23294  11.394  16.191   3.402 -0.0556 -0.0779 -0.0890
80357W        W23295   8.047  11.870   1.335  0.1250 -0.1133 -0.0420
80358W        W23296  10.434  15.335  30.845  0.2079 -0.1282 -0.0935
80359W        W23297  11.432  12.590   0.941  0.2161 -0.1359 -0.1369
80360W        W23298   8.727  14.522  31.601  0.0280  0.2595  0.1837
80361W        W23299  11.846  12.158   0.957  0.0219  0.3796  0.1232
80362W        W23300   9.771  15.785   2.176  0.0842  0.0492 -0.2340
80363W        W23301   7.308  12.148   1.288 -0.1167 -0.0596  0.0348
80364W        W23302  10.598  14.840   1.841  0.0504 -0.1411  0.1038
80365W        W23303  11.933  14.415   0.586  0.0133  0.1678 -0.0903
80366W        W23304   9.396  10.804  31.949  0.1111 -0.1186  0.1796
80367W        W23305   8.947  12.888  31.767 -0.0216  0.2212  0.0039
80368W        W23306   7.588  12.871   0.934 -0.0875 -0.0640 -0.2896
80369W        W23307  12.146  11.372   2.334 -0.1653 -0.0097 -0.1213
80370W        W23308  11.382  12.080   1.299 -0.2668 -0.1486  0.0782
80371W        W23309   9.649  15.039  31.776  0.1424  0.3656  0.2030
80372W        W23310  11.455  11.245   4.627 -0.0119  0.2870  0.0570
80373W        W23311   8.520  15.657   2.502 -0.0102  0.0971  0.1403
80374W        W23312   8.879  14.551   4.419  0.1288 -0.1582  0.1043
80375W        W23313   7.291  10.909   0.160  0.0701  0.2436  0.0402
80376W        W23314   7.726  14.451   3.072  0.2032  0.0178  0.3032
80377W        W23315   9.393  13.849  31.792  0.0363  0.0562 -0.2738
80378W        W23316   8.332  14.269   1.335  0.0322  0.1388  0.2999
80379W        W23317  10.344  14.485   1.588 -0.0395 -0.0887 -0.2363
80380W        W23318  10.201  12.272   1.095  0.0791 -0.1719  0.2019
80381W        W23319  11.912  13.927   0.877 -0.1111 -0.0133 -0.4723
80382W        W23320   8.631  10.786   1.721  0.0208  0.0081 -0.2012
80383W        W23321  10.464  11.623   0.736  0.0973 -0.0453  0.1504
80384W        W23322   8.717  12.041  31.561  0.3641  0.2860 -0.3217
80385W        W23323   8.312  11.914   2.669  0.0042  0.4208 -0.1033
80386W        W23324   7.395  11.761   0.024 -0.1277  0.3889  0.2201
80387W        W23325   8.821  12.470   0.392 -0.0285 -0.1440 -0.1549
80388W        W23326   8.357  13.438   1.290  0.1753  0.2321  0.2227
80389W        W23327   9.875  10.403   2.341 -0.0945  0.1816 -0.0764
80390W        W23328   8.009  11.163   3.621 -0.1803 -0.0527 -0.0387
80391W        W23329   7.532  12.972   1.491 -0.2488  0.0796  0.3784
80392W        W23330   8.203  12.372   1.305 -0.0184 -0.2452 -0.3660
80393W        W23331  11.057  15.832  29.125  0.5656 -0.0048  0.0109
80394W        W23332   8.522   9.891   2.126  0.0631 -0.0067 -0.1261
80395W        W23333   7.522  11.023   1.442 -0.4266  0.1125  0.0633
80396W        W23334  11.705  12.529   1.381 -0.3870 -0.1483 -0.3805
80397W        W23335  10.562  13.273  30.000  0.0800 -0.0262 -0.1536
80398W        W23336   8.807  11.973   0.082  0.0395  0.1518 -0.2327
80399W        W23337  10.026  13.928   3.801  0.1081 -0.1368  0.0073
80400W        W23338   7.264  13.051   0.544 -0.0716  0.3215 -0.0355
80401W        W23339   9.094  11.842   2.527 -0.0415 -0.0627 -0.0132
80402W        W23340   9.125   9.872   2.980 -0.0135 -0.1550  0.1211
80403W        W23341   8.023  10.674   1.707 -0.2390 -0.1021 -0.0058
80404W        W23342  10.146  11.441   0.263 -0.2192 -0.1624  0.1568
80405W        W23343  10.318  15.333   1.490 -0.0183  0.2299 -0.1586
80406W        W23344  10.347  13.991   1.449  0.0405  0.4443 -0.2118
80407W        W23345   8.391  13.628   3.208  0.2612  0.0071  0.1458
80408W        W23346   9.109  12.809   4.193  0.2980  0.1979  0.1037
80409W        W23347   7.308  10.235   4.060  0.2573  0.0952 -0.0682
80410W        W23348   9.142  14.388   0.968 -0.1238 -0.1628 -0.1164
80411W        W23349  10.189  14.578   3.546 -0.2011 -0.0842 -0.1765
80412W        W23350  12.726  14.784  30.606 -0.4217 -0.0589 -0.2749
80413W        W23351  10.576  11.358   2.505 -0.0261  0.1125 -0.2537
80414W        W23352  10.732  12.424   0.410  0.1915 -0.1236  0.0324
80415W        W23353   6.997  11.054   4.109 -0.1324  0.3110 -0.0802
80416W        W23354   7.269  12.843   2.743 -0.1389  0.1281 -0.0232
80417W        W23355  10.804  13.405   2.859 -0.2744  0.1820 -0.0981
80418W        W23356   8.768  10.888   1.266 -0.1557 -0.2074  0.0410
80419W        W23357  10.698  12.907   0.310  0.0390  0.2151  0.1568
80420W        W23358   9.765  13.718   1.036 -0.0070  0.3453 -0.0162
80421W        W23359   8.026  12.553   0.842 -0.1910 -0.2156 -0.1193
80422W        W23360  10.038  12.250   0.598  0.2007 -0.2203 -0.1523
80423W        W23361   8.248  12.499   2.560  0.1287 -0.1047  0.1664
80424W        W23362   9.843  13.735   1.521  0.1156 -0.1489 -0.1988
80425W        W23363   9.593  14.022   1.972 -0.3459 -0.0063 -0.4471
80426W        W23364   8.826  13.446  31.970 -0.1988 -0.0828  0.0161
80427W        W23365  10.347  13.355  31.121  0.2223  0.0521  0.3861
80428W        W23366   9.994  15.288   1.006  0.2010 -0.0446  0.0881
80429W        W23367   9.819  14.656   3.017 -0.0234 -0.2824  0.0934
80430W        W23368   8.630  13.444   2.370  0.0939  0.0118 -0.4261
80431W        W23369   9.689  13.972   0.571 -0.3075 -0.0658 -0.1703
80432W        W23370   8.589  10.526   3.878  0.2059 -0.2910  0.2509
80433W        W23371   7.741  13.312  31.361 -0.0028 -0.0588 -0.1692
80434W        W23372   8.634  12.674   0.899  0.0710  0.0252 -0.1409
80435W        W23373  10.441  10.693   0.767  0.2453 -0.5343  0.0875
80436W        W23374   8.496  12.493   2.135  0.0182 -0.1715 -0.0780
80437W        W23375   9.578  11.689  31.717 -0.1668  0.0470 -0.1128
80438W        W23376   8.048  16.247   3.103  0.4936  0.1933 -0.0600
80439W        W23377   9.313  13.236   2.707  0.0632  0.0782  0.2156
80440W        W23378   7.007  12.143   6.623  0.0781 -0.2789  0.0634
80441W        W23379   7.685  12.378   4.391  0.0612  0.3820  0.2282
80442W        W23380   8.687  13.338   2.882  0.0090  0.4848 -0.1677
80443W        W23381  10.018  13.059   4.134  0.0397  0.0266  0.4645
80444W        W23382   8.336  10.673   4.861 -0.0257 -0.2739 -0.5550
80445W        W23383   8.805  14.450   5.412  0.3100  0.2150  0.2245
80446W        W23384   7.591  10.794   6.115  0.4722  0.2525 -0.1251
80447W        W23385   9.197  14.240   5.793 -0.1890 -0.2276  0.1318
80448W        W23386   9.820  14.691   6.461  0.1515  0.0518  0.2042
80449W        W23387   9.896  13.124   3.377  0.3268  0.1898 -0.0240
80450W        W23388   8.542  11.173   5.035 -0.2653 -0.2225 -0.1011
80451W        W23389   6.636  12.966   5.386 -0.1467 -0.1089 -0.0972
80452W        W23390   9.534  10.814   2.282  0.2141  0.0455  0.0115
80453W        W23391   8.133  11.059   5.222  0.2769 -0.2228  0.1847
80454W        W23392   9.190  12.911   5.766 -0.4527  0.1698 -0.2692
80455W        W23393   8.017  12.720   3.391  0.2855  0.0074 -0.0139
80456W        W23394   7.849  11.178   6.051  0.0055  0.0012 -0.2022
80457W        W23395   8.796  11.140   3.919  0.2229 -0.2158 -0.2620
80458W        W23396   6.158  13.962   5.261 -0.2321 -0.1491 -0.3142
80459W        W23397   9.937  12.068   7.271  0.0675 -0.2068 -0.2261
80460W        W23398   9.725  10.770   6.617  0.3295  0.2252 -0.1464
80461W        W23399   8.706  14.479   3.851  0.4159  0.0098 -0.0039
80462W        W23400   7.992  11.968   4.169  0.1324 -0.1200 -0.3270
80463W        W23401   6.649  12.084   3.943  0.0997 -0.0206  0.0589
80464W        W23402   8.771  12.095   6.330 -0.0668  0.2382 -0.2299
80465W        W23403   9.477  12.148   4.961  0.1488 -0.0945  0.0965
80466W        W23404   8.831  13.292   6.026 -0.0190  0.0219 -0.1643
80467W        W23405   7.722  14.012   5.163 -0.0767 -0.2428  0.0377
80468W        W23406   8.468  14.209   4.190  0.2513 -0.1794 -0.1178
80469W        W23407   9.803  11.627   6.650  0.0158 -0.0297 -0.1785
80470W        W23408   7.249  13.706   5.397 -0.0304  0.2608  0.2039
80471W        W23409   6.746  14.176   6.170 -0.0410 -0.0128  0.0005
80472W        W23410   7.875  13.690   3.312  0.1073 -0.1758 -0.1444
80473W        W23411  10.374  12.993   4.483 -0.1369 -0.0959  0.0934
80474W        W23412  10.676  13.149   5.317  0.0591 -0.2019 -0.1171
80475W        W23413   9.841  14.388   7.253  0.2397 -0.5840 -0.1971
80476W        W23414   7.422  14.021   3.139  0.1479  0.0930 -0.1218
80477W        W23415   8.357  14.560   5.678 -0.2915  0.1529  0.1717
80478W        W23416   7.961  12.264   6.271  0.1461 -0.0135  0.0060
80479W        W23417   7.474  12.349   6.497  0.0353 -0.1430 -0.0929
80480W        W23418   7.634  14.411   4.653 -0.0141  0.3150  0.2964
80481W        W23419   8.406  13.825   2.729 -0.3886 -0.0352 -0.1845
80482W        W23420   8.224  13.012   5.164 -0.0630 -0.1100  0.2025
80483W        W23421   7.665  13.000   7.422  0.2577  0.1311  0.1286
80484W        W23422   5.731  13.735   5.444 -0.1271  0.1981 -0.3608
80485W        W23423   9.444  11.075   8.678 -0.2734  0.1142 -0.3879
80486W        W23424   9.086  14.306   3.564  0.2223  0.1021  0.0968
80487W        W23425   8.487  12.965   2.581 -0.1549 -0.2292  0.0177
80488W        W23426   8.059  12.299   3.107  0.0210 -0.3123 -0.2925
80489W        W23427   9.665  11.733   3.671  0.0209  0.1451 -0.0542
80490W        W23428   8.823  11.512   4.302  0.0441  0.3327  0.3074
80491W        W23429   5.990  14.627   5.957  0.1558 -0.1284  0.0041
80492W        W23430   8.236  10.251   5.100  0.1228 -0.0329  0.2437
80493W        W23431   8.420  13.683   7.010 -0.2138  0.0606  0.1199
80494W        W23432   8.283  13.085   5.657  0.0128  0.1882  0.0859
80495W        W23433   8.491  12.561   6.321 -0.0110  0.0558  0.0212
80496W        W23434   7.399  13.539   6.503 -0.1042  0.0816  0.0931
80497W        W23435   7.101  12.796   5.502 -0.3167 -0.4439  0.1340
80498W        W23436  10.417  14.716   4.402 -0.3115  0.3312 -0.1228
80499W        W23437  10.282  13.422   4.215  0.3489 -0.0633  0.2573
80500W        W23438   9.961  14.825   4.621 -0.2411 -0.1851  0.1867
80501W        W23439   8.317  11.464   4.123  0.1049 -0.0066  0.3751
80502W        W23440   6.812  11.658   6.548  0.1271  0.1178  0.0889
80503W        W23441   6.416  12.075   6.502 -0.0679 -0.2846 -0.1491
80504W        W23442   8.898  12.080   4.671 -0.1225 -0.0858  0.1046
80505W        W23443  11.264  13.331   4.912  0.0246 -0.4280  0.0984
80506W        W23444   7.528  12.428   7.792  0.0964 -0.0642  0.2520
80507W        W23445  10.712  10.298   6.180 -0.2972 -0.0795  0.2211
80508W        W23446   8.353  13.126   6.162 -0.3051 -0.3196  0.1957
80509W        W23447   9.800  13.023   6.418 -0.0266  0.2098 -0.2154
80510W        W23448   9.808  13.067   5.035  0.3133 -0.2655  0.5894
80511W        W23449   9.167  12.310   4.133  0.0377  0.1255  0.0357
80512W        W23450  10.159  11.433   5.473  0.3291  0.0630 -0.2407
80513W        W23451   8.082  12.599   5.418  0.4902  0.2755 -0.1093
80514W        W23452   6.880  13.423   4.057 -0.1390 -0.1153  0.2381
80515W        W23453  11.492  13.779   4.956  0.3232  0.1378  0.1688
80516W        W23454   9.593  14.457   3.707 -0.0050  0.0193  0.0173
80517W        W23455   7.369  13.448   5.956 -0.1974  0.1396  0.0359
80518W        W23456   7.400  13.234   5.521 -0.0552  0.2858  0.0853
80519W        W23457   8.025  13.439   6.319  0.2473  0.1718  0.2037
80520W        W23458   8.258  14.639   3.448  0.2009 -0.0027  0.2271
80521W        W23459   6.569  13.021   7.106 -0.0924 -0.0884 -0.1606
80522W        W23460   8.009  13.243   4.258  0.1259 -0.1403 -0.1663
80523W        W23461   5.982  10.419   5.504 -0.0579  0.0481  0.0157
80524W        W23462   6.934  12.869   4.966 -0.0601  0.0841  0.1383
80525W        W23463   9.372  12.155   3.699  0.3420 -0.1207  0.0469
80526W        W23464   8.258  10.216   6.104 -0.1100 -0.2268 -0.2061
80527W        W23465  10.332  11.897   5.505  0.2899 -0.1717  0.0584
80528W        W23466   7.415  13.668   3.513  0.0557  0.1427  0.4298
80529W        W23467  10.331  14.542   4.935 -0.2559  0.2643 -0.1094
80530W        W23468   9.896  11.357   5.003  0.0098  0.3179 -0.0806
80531W        W23469   8.870  15.181   4.474 -0.1256  0.1613 -0.0886
80532W        W23470   5.751  12.463   5.298  0.3023 -0.0532  0.0456
80533W        W23471   8.565  11.749   4.926 -0.2710 -0.2036 -0.3097
80534W        W23472   9.386  11.415   4.645 -0.0318  0.1127 -0.1700
80535W        W23473   8.669  11.330   5.879  0.1834 -0.0038 -0.0069
80536W        W23474   8.543  12.672   7.013  0.3492  0.1837 -0.2274
80537W        W23475   7.743  12.223   5.313 -0.1494 -0.1137 -0.1066
80538W        W23476   9.131  12.466   5.502  0.1631 -0.0435  0.3218
80539W        W23477   8.120  12.715   5.922 -0.0009 -0.0094 -0.1644
80540W        W23478   6.359  13.338   5.749  0.2011  0.0775 -0.3259
80541W        W23479   9.496  12.220   7.354 -0.0430 -0.2869  0.3285
80542W        W23480   9.231  14.846   3.688  0.3586  0.0682  0.1746
80543W        W23481   9.355  13.822   7.637  0.0021 -0.0946  0.1995
80544W        W23482  10.182  13.164   5.464 -0.0962 -0.0141 -0.0659
80545W        W23483   8.789  11.116   5.458 -0.1634  0.0367 -0.1170
80546W        W23484   8.156  11.429   4.922 -0.1411 -0.2584 -0.3814
80547W        W23485   6.530  15.062   5.830 -0.3554 -0.1501  0.0418
80548W        W23486   8.202  13.951   5.667  0.0399 -0.0868  0.1217
80549W        W23487   8.584  12.516   5.317 -0.0112  0.1745  0.0765
80550W        W23488   9.334  14.119   4.723  0.0342 -0.0962 -0.1149
80551W        W23489   8.484  13.416   3.823  0.1067 -0.1218  0.2945
80552W        W23490   7.345  13.951   5.997  0.1305  0.1003  0.0964
80553W        W23491   8.363   9.619   5.353 -0.0640 -0.2158 -0.4301
80554W        W23492   9.981  13.822   5.990  0.0781  0.0050 -0.3790
80555W        W23493   8.617  13.595   5.647 -0.0805 -0.2244  0.0295
80556W        W23494   7.428  10.421   4.669  0.0202  0.0087  0.4130
80557W        W23495   9.947  15.324   4.856  0.0320  0.2326  0.0190
80558W        W23496   8.143  13.995   4.859  0.0792 -0.0385 -0.0403
80559W        W23497   6.315  12.502   6.182  0.2098  0.1558  0.2872
80560W        W23498   7.506  13.867   4.717 -0.1489 -0.1422 -0.2494
80561W        W23499   9.122  11.300   6.177  0.1001 -0.0697 -0.0022
80562W        W23500   7.196  12.566   6.952 -0.2084  0.1338  0.0027
80563W        W23501   8.753  10.139   6.642 -0.1889  0.1712 -0.0599
80564W        W23502   8.057  11.146   3.137  0.0826 -0.3262  0.0588
80565W        W23503   8.176  13.835   6.590  0.2216  0.0455 -0.2439
80566W        W23504  10.035  12.154   4.565  0.0246 -0.1267  0.1791
80567W        W23505   9.431  13.085   3.544  0.0710  0.1215 -0.2844
80568W        W23506   9.101  13.357   5.559  0.1133  0.2422 -0.0759
80569W        W23507   8.548  13.760   5.180  0.1898  0.1901  0.0432
80570W        W23508   9.129  13.189   1.792 -0.2893  0.1288 -0.0062
80571W        W23509  10.234  12.211   5.170 -0.0948 -0.2280 -0.0966
80572W        W23510   8.199  14.318   6.095  0.0118 -0.0314 -0.5108
80573W        W23511   8.975  13.932   5.391  0.1206  0.1822  0.3417
80574W        W23512   8.561  13.409   6.460  0.0162  0.3941  0.0723
80575W        W23513   8.465  13.007   3.412 -0.1748 -0.3995 -0.3683
80576W        W23514  11.458  13.806   3.395  0.4485 -0.0155  0.0953
80577W        W23515   6.700  12.650   6.709  0.0985 -0.2116 -0.0318
80578W        W23516   9.212  13.382   7.262  0.0152  0.2779 -0.1782
80579W        W23517   9.283  15.994   4.321 -0.1033  0.4466 -0.1024
80580W        W23518   9.022   9.914   7.048  0.1547 -0.0176  0.2467
80581W        W23519   8.871  11.618   1.989  0.0645 -0.5194  0.3438
80582W        W23520   8.376  12.227   4.963 -0.0489  0.0332  0.0313
80583W        W23521   6.557  13.911   2.313  0.1579 -0.0465  0.4011
80584W        W23522   9.826  11.773   5.724 -0.2072 -0.2592 -0.0036
80585W        W23523   9.328  11.877   5.474  0.1167  0.0287  0.0289
80586W        W23524   8.181  10.133   6.602 -0.2011  0.1872  0.1328
80587W        W23525  10.759  12.619   6.475  0.1157 -0.1572  0.0836
80588W        W23526  10.175  12.021   4.073  0.2364 -0.2375 -0.1765
80589W        W23527   8.786  14.022   6.551  0.0889  0.3338 -0.1742
80590W        W23528   7.940  12.546   3.992  0.0686  0.0240 -0.1262
80591W        W23529   9.108  11.883   6.770 -0.0937 -0.2723  0.0884
80592W        W23530   7.574  12.642   5.656 -0.1927  0.0830 -0.1973
80593W        W23531   7.428  13.952   7.022 -0.0364 -0.0358 -0.1665
80594W        W23532   8.697  14.646   7.254 -0.0876 -0.0160  0.2075
80595W        W23533   8.478  12.722   4.803 -0.1089 -0.0146  0.0143
80596W        W23534   8.771  11.537   7.412 -0.1134  0.2272  0.1719
80597W        W23535   8.289  12.292   4.368 -0.0759 -0.3476 -0.0840
80598W        W23536   7.765  13.765   4.231  0.0652  0.1184 -0.0670
80599W        W23537   7.634  13.397   4.630  0.0709 -0.1723  0.1113
80600W        W23538   7.545  12.084   6.019 -0.0093 -0.1404  0.0905
80601W        W23539   7.880  14.367   5.460 -0.3112  0.1030  0.3053
80602W        W23540   7.544  13.582   2.130  0.0010 -0.0293  0.0921
80603W        W23541   9.424  13.286   6.769 -0.1816  0.2113  0.0050
80604W        W23542   8.129  13.508   5.298 -0.1095 -0.1004  0.1956
80605W        W23543  10.097  12.064   6.439 -0.2409  0.2645  0.1294
80606W        W23544   7.584  14.159   6.491 -0.2023 -0.3921 -0.3132
80607W        W23545   9.617  11.690   2.639  0.0770  0.1280  0.0126
80608W        W23546   6.950  11.908   3.177  0.1229 -0.1147 -0.0662
80609W        W23547   9.842  12.794   4.565  0.2388 -0.1649 -0.3199
80610W        W23548   8.577  13.718   4.596  0.1952 -0.2121  0.0802
80611W        W23549   8.908  11.625   5.266 -0.1276 -0.0935  0.1436
80612W        W23550   8.099  12.141   5.782 -0.2377  0.0214 -0.0282
80613W        W23551   6.748  14.668   6.095 -0.1244 -0.1990  0.0157
80614W        W23552  10.309  11.761   6.731 -0.0378 -0.3756 -0.3791
80615W        W23553  10.252  13.382   2.329 -0.1711  0.1420 -0.1423
80616W        W23554   9.172  13.285   5.029  0.0047  0.0218  0.0732
80617W        W23555   8.481  12.013   5.444 -0.1217 -0.0785  0.0522
80618W        W23556   7.108  12.982   2.192 -0.4337  0.0754  0.0136
80619W        W23557  10.476  11.083   5.616  0.1899  0.0218  0.0297
80620W        W23558   8.956  10.872   4.967 -0.0369  0.1023  0.2334
80621W        W23559   8.338  13.723   4.157 -0.0828  0.2082 -0.2124
80622W        W23560   9.931  13.597   5.534  0.2450 -0.0328  0.0806
80623W        W23561   8.120  12.788   4.414  0.0305 -0.0379 -0.2707
80624W        W23562   8.215  13.003   3.852  0.0345  0.0635  0.0603
80625W        W23563   7.930  11.915   6.956  0.1194 -0.3176 -0.1117
80626W        W23564   9.472  12.514   6.876  0.0122 -0.0746 -0.3618
80627W        W23565   7.392  12.574   5.097  0.0840 -0.2666 -0.0988
80628W        W23566   9.101  11.250   3.549 -0.1217 -0.0006 -0.2691
80629W        W23567   7.956  12.440   4.894 -0.4090 -0.1990 -0.1402
80630W        W23568   8.785  12.975   6.384  0.2000  0.2579 -0.0132
80631W        W23569   8.960  12.712   4.920 -0.3014  0.2374  0.0629
80632W        W23570   8.852  13.897   7.035  0.1869 -0.1571 -0.0136
80633W        W23571   9.463  10.752   3.977  0.0644  0.0237  0.2233
80634W        W23572  10.167  13.805   4.475 -0.3138 -0.1419  0.0999
80635W        W23573   8.826  13.366   6.913  0.0558 -0.0886  0.1867
80636W        W23574   7.788  13.865   2.855 -0.0080  0.1138  0.2098
80637W        W23575   6.292  12.616   5.178 -0.1647  0.0155  0.1804
80638W        W23576   7.116  14.049   3.593  0.2229 -0.3261 -0.1283
80639W        W23577   9.387  11.962   4.480 -0.2468 -0.0224 -0.1352
80640W        W23578   6.550  12.940   6.130 -0.1823 -0.0946  0.1117
80641W        W23579   8.724  14.899   3.502 -0.3193 -0.2016  0.1615
80642W        W23580   6.999  14.136   7.173 -0.0366  0.2674  0.0265
80643W        W23581  10.289  12.820   2.224 -0.0333  0.2921 -0.0504
80644W        W23582   7.490  12.670   3.395 -0.0075 -0.0811 -0.2810
80645W        W23583   8.716  12.005   4.226  0.0715 -0.1812 -0.3517
80646W        W23584  11.249  12.123   8.437 -0.1971 -0.0613 -0.0206
80647W        W23585   8.486  14.059   3.709  0.0626 -0.2388 -0.1923
80648W        W23586  10.893  11.598   8.041 -0.3790 -0.3127 -0.0057
80649W        W23587   8.090  10.757   6.072 -0.0230 -0.0129  0.0977
80650W        W23588   9.292  13.579   4.573  0.2172 -0.4321  0.0285
80651W        W23589   6.752  10.552   5.982  0.4171  0.1468  0.0687
80652W        W23590   9.063  13.517   7.876  0.0926  0.0464 -0.5130
80653W        W23591   7.781  13.176   5.950  0.2296 -0.1899 -0.0558
80654W        W23592   9.679  12.287   4.112 -0.0400 -0.1351  0.3949
80655W        W23593   7.845  10.202   4.731 -0.2316  0.0480 -0.0623
80656W        W23594   6.028  13.113   6.055 -0.0469 -0.0183 -0.1217
80657W        W23595   9.707  12.552   5.020  0.1437 -0.0705 -0.1473
80658W        W23596   8.992  14.374   3.100 -0.0614 -0.0885 -0.1301
80659W        W23597   9.636  13.169   5.572 -0.1198  0.2388  0.0156
80660W        W23598   6.832  11.968   5.166 -0.0705  0.1522 -0.2362
80661W        W23599   7.584  13.512   5.105  0.1267 -0.0560  0.1797
80662W        W23600   8.100  13.483   2.537 -0.0053  0.2279 -0.1208
80663W        W23601   5.722  13.757   6.949 -0.0038 -0.1353 -0.1861
80664W        W23602   7.996   9.679   6.708  0.1921  0.1709 -0.1333
80665W        W23603   8.935  14.039   4.475 -0.0722  0.3578 -0.0725
80666W        W23604   9.991  11.408   2.294  0.0266  0.0046 -0.0455
80667W        W23605   8.657  12.309   5.780 -0.3741 -0.1897  0.0010
80668W        W23606   9.765  12.240   5.446  0.0128  0.1099  0.0649
80669W        W23607   9.285  12.300   6.466 -0.0744  0.0527  0.1044
80670W        W23608   6.967  10.818   6.909  0.3219  0.0629  0.2806
80671W        W23609  10.330  14.779   6.282 -0.2336  0.1776 -0.1261
80672W        W23610   9.686  12.278   2.766 -0.4423 -0.0490  0.0650
80673W        W23611   9.768  11.748   4.710  0.1399 -0.0011  0.0120
80674W        W23612   9.521  13.712   5.174  0.4104  0.0596 -0.0593
80675W        W23613   8.374  11.954   3.851 -0.0342  0.1057  0.0725
80676W        W23614   8.916  11.376   4.742 -0.2524  0.5442 -0.1528
80677W        W23615   9.925  13.023   7.394 -0.0578 -0.1920  0.1645
80678W        W23616   9.033  10.859   3.236 -0.0142 -0.0445  0.0643
80679W        W23617   9.457  11.035   5.868  0.2124  0.1295 -0.2838
80680W        W23618   9.706  13.389   3.814 -0.1384 -0.3494 -0.0273
80681W        W23619   8.896  13.122   4.597  0.0373 -0.0017 -0.1254
80682W        W23620   8.806  12.959   5.354 -0.0910 -0.2516 -0.0061
80683W        W23621   7.411  12.109   4.710 -0.2154  0.0656 -0.1318
80684W        W23622   7.744  14.021   7.380 -0.0422  0.4389 -0.0249
80685W        W23623   6.756  12.919   4.010  0.0761  0.0900  0.0817
80686W        W23624   9.156  14.843   3.132 -0.1264 -0.1661  0.0321
80687W        W23625   8.393  14.259   5.205  0.0009 -0.0809  0.0079
80688W        W23626  10.966  13.470   7.114 -0.1422  0.0268  0.0641
80689W        W23627  10.206  11.551   4.447 -0.1380  0.1039  0.0812
80690W        W23628  10.883  12.805   6.030  0.1216 -0.0257 -0.1943
80691W        W23629   7.000  11.898   4.238  0.2738 -0.1873 -0.1106
80692W        W23630   8.339  11.802   4.473  0.0863 -0.4397  0.2528
80693W        W23631   6.555  13.869   4.870 -0.0562  0.0052 -0.0500
80694W        W23632   7.417  12.090   7.038 -0.1065  0.0647  0.1559
80695W        W23633   7.246  14.482   6.432 -0.1687 -0.0975  0.0841
80696W        W23634   8.559  12.087   6.853 -0.2064 -0.0728  0.2402
80697W        W23635   8.137  13.476   5.874  0.3035  0.3319  0.0308
80698W        W23636   7.834  13.031   5.462  0.0777 -0.1342  0.2644
80699W        W23637   9.642  11.960   6.289 -0.0341  0.1995 -0.0676
80700W        W23638  10.586  13.676   6.301 -0.2623 -0.1583  0.0906
80701W        W23639   6.738  12.647   5.814  0.0935  0.1395  0.0090
80702W        W23640   8.694  14.487   6.435  0.3414  0.1152  0.0008
80703W        W23641   9.506  14.517   4.524  0.0465 -0.2487 -0.1754
80704W        W23642   7.672  12.672   6.113 -0.3062 -0.0225  0.0244
80705W        W23643   7.453  10.773   6.649  0.0530 -0.0380  0.2413
80706W        W23644   9.023  11.481   6.956  0.0440  0.1615 -0.0904
80707W        W23645   8.555  13.010   4.272  0.4108 -0.1819 -0.0461
80708W        W23646   8.713  11.620   3.761 -0.0818  0.2164  0.1958
80709W        W23647   8.747  13.408   3.372  0.3501 -0.0810 -0.1412
80710W        W23648   7.736  14.825   7.239 -0.2078  0.1753 -0.2074
80711W        W23649   6.671  11.582   4.906  0.3824 -0.2457 -0.1394
80712W        W23650   7.221  14.986   5.214  0.1286 -0.4770 -0.2692
80713W        W23651   8.629  12.666   3.864  0.1338  0.0090 -0.1412
80714W        W23652   7.690  13.637   5.578  0.1344 -0.0552 -0.0782
80715W        W23653  10.443  15.614   7.402 -0.1159  0.0875  0.0049
80716W        W23654   9.202  11.109   2.713 -0.1122 -0.1147  0.2062
80717W        W23655   7.540  14.526   3.825 -0.1993 -0.1960  0.1715
80718W        W23656   7.520  13.194   3.404  0.2164 -0.4021  0.1991
80719W        W23657   9.807  14.230   4.103 -0.0799 -0.0686 -0.1101
80720W        W23658   5.979  14.154   5.840 -0.0294  0.1787  0.2521
80721W        W23659  10.885  12.413   7.392 -0.0530 -0.1571 -0.0167
80722W        W23660  11.093  12.607   2.108  0.1049 -0.1718 -0.1934
80723W        W23661  10.083  11.631   6.178 -0.3243  0.1478  0.0451
80724W        W23662  11.370  12.904   5.793 -0.0962  0.2802 -0.4476
80725W        W23663   9.201  14.085   6.284  0.0141 -0.2298  0.2055
80726W        W23664   7.313  12.678   4.617 -0.0447  0.1703  0.1710
80727W        W23665   9.209  10.163   4.065 -0.1460  0.0102 -0.0919
80728W        W23666   7.328  13.083   4.928 -0.5085 -0.0610  0.0747
80729W        W23667  11.615  12.144   7.824  0.0145 -0.0733  0.2209
80730W        W23668   7.022  13.245   6.286 -0.0399 -0.2521  0.0027
80731W        W23669   8.952  14.283   4.949 -0.0358  0.3982  0.0777
80732W        W23670   7.000  12.390   4.875 -0.0112  0.0681 -0.0748
80733W        W23671   6.755  13.635   5.444  0.0159  0.1719 -0.2761
80734W        W23672   9.558  11.512   5.997  0.3347 -0.2697  0.3037
80735W        W23673   7.358  13.921   2.498  0.1692  0.0662 -0.2690
80736W        W23674   8.735  12.502   4.430  0.0382 -0.1808  0.0280
80737W        W23675   6.846  13.673   6.073  0.0862 -0.1147  0.1143
80738W        W23676   7.440  14.129   5.541 -0.0203 -0.0419 -0.3031
80739W        W23677   7.802  13.661   7.690 -0.0530  0.1599 -0.0142
80740W        W23678   7.905  11.452   4.473  0.2563 -0.1787  0.1093
80741W        W23679  11.052  12.517   5.078  0.2130 -0.1736 -0.2454
80742W        W23680   8.696  10.967   6.249  0.1148 -0.0839  0.0620
80743W        W23681   9.974  11.136   5.883 -0.0316  0.0920  0.1657
80744W        W23682   7.410  12.437   2.933 -0.2264 -0.1944  0.0015
80745W        W23683   8.647  13.305   5.035 -0.0751  0.0461  0.1940
80746W        W23684   9.578  13.677   6.284 -0.0664  0.1002  0.0801
80747W        W23685   6.857  12.357   6.199  0.0662 -0.3812 -0.3680
80748W        W23686   8.519  10.967   3.150 -0.0709  0.3106  0.3116
80749W        W23687  10.015  12.872   5.972 -0.1843 -0.1483  0.0650
80750W        W23688   7.768  13.389   2.948 -0.0958  0.2752  0.2565
80751W        W23689   9.326  13.159   6.171 -0.4125 -0.3401  0.2199
80752W        W23690   6.176  11.556   5.073 -0.0228  0.0676 -0.0020
80753W        W23691   8.898  12.106   1.901  0.1191  0.0783  0.0189
80754W        W23692   6.714  12.476   5.305  0.0169 -0.0190 -0.3185
80755W        W23693   8.297  11.948   6.433  0.4659  0.3031  0.0594
80756W        W23694   9.919  13.558   6.714 -0.0577 -0.0603  0.0359
80757W        W23695   7.159   9.630   3.602  0.2406 -0.1540  0.0287
80758W        W23696   8.821  13.790   2.969  0.0037 -0.1118 -0.0888
80759W        W23697  10.870  11.857   5.689  0.1097 -0.0523 -0.1814
80760W        W23698   8.840  15.679   4.620  0.1208 -0.0070  0.0100
80761W        W23699   8.857  13.490   4.219 -0.2137 -0.3649 -0.2133
80762W        W23700   9.025  14.874   6.329 -0.0097  0.3528 -0.1449
80763W        W23701   8.305  11.286   6.224  0.0858  0.3325 -0.0892
80764W        W23702  10.080  12.711   5.319 -0.1743  0.0006 -0.0988
80765W        W23703   9.328  13.952   4.202  0.1661  0.2668 -0.2093
80766W        W23704   9.336  11.825   2.101  0.4982 -0.1614  0.0692
80767W        W23705   7.351  11.794   5.095  0.0867  0.1575 -0.0191
80768W        W23706   7.826  14.651   4.205  0.1147 -0.1590  0.0613
80769W        W23707  10.685  12.361   4.734 -0.1425  0.2082 -0.0434
80770W        W23708  10.414  12.018   6.033 -0.3219 -0.1037  0.0405
80771W        W23709   9.175  15.499   3.105  0.2278  0.1128  0.1457
80772W        W23710  10.918  12.551   8.208 -0.0246 -0.0117  0.1612
80773W        W23711   9.367  13.906   6.757 -0.0496  0.1993 -0.1469
80774W        W23712   8.900  14.198   7.509 -0.0933 -0.0107  0.1989
80775W        W23713   7.829  12.990   4.876 -0.3132  0.1903 -0.2344
80776W        W23714   8.675  12.787   5.891 -0.0278 -0.3931  0.0970
80777W        W23715   8.226  13.367   4.683 -0.1454  0.1054 -0.3159
80778W        W23716   7.098  13.997   5.035 -0.0670  0.0509 -0.1972
80779W        W23717   8.995  13.727   4.914 -0.1188  0.0151 -0.0219
80780W        W23718   9.369  12.966   4.685  0.1218  0.0800  0.0027
80781W        W23719   9.962  14.247   4.600 -0.0317 -0.1434  0.3086
80782W        W23720   8.449  11.959   3.226  0.1400  0.0602  0.0688
80783W        W23721  10.276  11.788   4.903 -0.1381  0.1617  0.1614
80784W        W23722  10.727  12.111   5.171  0.2707 -0.1782  0.0506
80785W        W23723   8.009  11.671   6.063  0.0261 -0.2640  0.2896
80786W        W23724   6.925  12.474   3.800  0.1151 -0.0187 -0.0707
80787W        W23725   6.617  13.258   3.259  0.0165 -0.2034 -0.2609
80788W        W23726   6.942  13.398   5.042 -0.2911  0.1923  0.1884
80789W        W23727   9.265  10.815   6.916  0.3876  0.2690  0.0231
80790W        W23728   6.705  11.169   6.471  0.1145 -0.2670  0.0989
80791W        W23729   7.238  12.180   5.385  0.0920  0.1081 -0.2352
80792W        W23730   7.711   9.410   3.714  0.0875  0.0368 -0.0097
80793W        W23731   9.399  12.462   4.563  0.0349  0.1156  0.2146
80794W        W23732   7.775  10.840   5.644 -0.0866  0.2207 -0.1437
80795W        W23733   7.880  11.999   4.688  0.0383  0.2364 -0.5427
80796W        W23734   9.234  14.402   4.075  0.0339  0.1344  0.1324
80797W        W23735   9.389  12.869   5.255  0.3213  0.1359 -0.1313
80798W        W23736   8.589  10.595   4.364  0.0182  0.1163 -0.0642
80799W        W23737  10.522  13.704   7.187  0.0252 -0.1326 -0.1756
80800W        W23738   8.174  14.428   3.872 -0.1203 -0.1414  0.0797
80801W        W23739   8.370  11.532   5.481  0.1240 -0.0981 -0.2226
80802W        W23740   8.082  10.200   7.198 -0.2509  0.0077 -0.0019
80803W        W23741   7.196  11.568   4.631  0.3286  0.2057 -0.5771
80804W        W23742   7.768  11.900   6.494  0.1640 -0.3193  0.0967
80805W        W23743   8.478  14.202   3.242 -0.0054 -0.0662  0.4069
80806W        W23744  10.188  13.736   2.748 -0.3208 -0.1609  0.1586
80807W        W23745   8.651  14.136   5.803  0.1293  0.0632 -0.1173
80808W        W23746   7.789  13.858   6.120  0.1077  0.2165  0.0195
80809W        W23747   7.046  10.915   6.192  0.1054 -0.0648 -0.2431
80810W        W23748  11.226  12.331   5.548 -0.1399 -0.4190 -0.1411
80811W        W23749   8.385  13.791   6.129  0.0138 -0.1432 -0.0476
80812W        W23750  10.123  12.600   4.166  0.1667  0.1258  0.2762
80813W        W23751   9.666  10.605   5.215 -0.0901  0.3140  0.0008
80814W        W23752   8.885  13.092   3.801 -0.1562  0.2846  0.0175
80815W        W23753   6.772   8.861   5.270  0.2651 -0.1987  0.0666
80816W        W23754   6.636  13.270   6.667 -0.1905  0.1276 -0.0665
80817W        W23755  10.606  12.140   6.484 -0.2470  0.0970  0.5099
80818W        W23756   9.487  11.024   4.991 -0.0415 -0.3890  0.5247
80819W        W23757   9.793  11.736   4.150 -0.1872  0.2650 -0.2724
80820W        W23758   9.159  14.025   2.657  0.0600  0.0081  0.0780
80821W        W23759   7.881  11.788   5.141  0.1059 -0.1678  0.1259
80822W        W23760   8.914  12.800   2.800  0.2054 -0.0156  0.1566
80823W        W23761   9.027  12.662   7.429  0.1458 -0.0255 -0.1863
80824W        W23762   8.215  14.928   5.231  0.0047  0.0701 -0.1608
80825W        W23763   9.851  12.463   6.507  0.0553  0.0702 -0.0215
80826W        W23764   8.386  12.413   3.524  0.1311  0.0316 -0.2990
80827W        W23765   8.788  12.171   3.741  0.0627 -0.1361  0.3127
80828W        W23766  10.111  13.444   7.158  0.0881 -0.2010  0.2745
80829W        W23767  11.391  14.289   7.799 -0.2276 -0.2389 -0.1485
80830W        W23768   9.962  14.072   5.039 -0.2718  0.2813 -0.2288
80831W        W23769   9.620  12.674   5.645  0.0264 -0.1200  0.0190
80832W        W23770   7.692  10.356   6.401  0.2923 -0.1665  0.2739
80833W        W23771   6.976  12.931   3.564  0.1102  0.1251 -0.0670
80834W        W23772   7.527  13.359   4.119 -0.0675  0.0170 -0.3073
80835W        W23773   9.396  12.200   5.908  0.1622  0.2613  0.0482
80836W        W23774   8.157  11.625   3.574  0.3357 -0.0700  0.0068
80837W        W23775  10.177  12.279   3.034  0.2318 -0.1985  0.2525
80838W        W23776   9.094  15.526   6.249  0.1795  0.2095 -0.2358
80839W        W23777   9.833  14.256   6.768 -0.1661 -0.2195  0.0334
80840W        W23778   8.874  13.391   9.165 -0.0560 -0.2226  0.0309
80841W        W23779   8.895  11.123   6.635  0.0373 -0.0306  0.0268
80842W        W23780   9.288  12.812   6.552 -0.1630 -0.0450  0.0967
80843W        W23781  10.880  12.933   8.979 -0.2010  0.1772  0.1787
80844W        W23782   8.733  12.120   7.564  0.0150 -0.2122 -0.0401
80845W        W23783  10.814  14.199   7.061  0.3480 -0.0292 -0.0157
80846W        W23784   9.496  14.028   9.313 -0.1209  0.1302  0.0559
80847W        W23785  10.619  13.395   9.678 -0.0218 -0.0184 -0.0024
80848W        W23786   9.799  12.796   8.035 -0.2227 -0.0362 -0.1126
80849W        W23787   9.512  13.292   9.694 -0.0822 -0.0035 -0.4160
80850W        W23788   7.765  11.127   6.918  0.2032 -0.0061 -0.2093
80851W        W23789   7.272  10.916   7.676 -0.0519 -0.1172  0.4216
80852W        W23790   9.371  14.097   8.642 -0.2993 -0.3635  0.1613
80853W        W23791   7.361  11.981   7.841 -0.0173 -0.2986  0.1089
80854W        W23792   8.205  11.427   8.787  0.1049 -0.1367  0.1404
80855W        W23793   7.805  10.593   7.622  0.0718  0.1163 -0.2021
80856W        W23794   9.733  14.183   8.216  0.2045  0.1134  0.0858
80857W        W23795  11.350  12.403   9.337  0.1867  0.0448 -0.1671
80858W        W23796   8.699  13.910   7.848 -0.0085 -0.0484  0.2526
80859W        W23797   6.801  10.974   5.783  0.0253  0.0271  0.2640
80860W        W23798   6.377  12.632   8.964 -0.0382  0.0080 -0.0778
80861W        W23799   8.255  12.007   8.848 -0.1051 -0.1933  0.0902
80862W        W23800   8.645  11.502   8.257 -0.1247  0.0989 -0.0242
80863W        W23801  10.055  11.440   8.365  0.2191  0.2357  0.1095
80864W        W23802   8.676  14.440   9.747  0.0520  0.2200  0.0916
80865W        W23803   9.933  13.812   9.252 -0.1504  0.0147 -0.1913
80866W        W23804   7.562  12.733   9.196  0.1705  0.5276 -0.3835
80867W        W23805   8.225  14.847   8.664 -0.0210  0.2021  0.2664
80868W        W23806   8.107  13.201   8.455 -0.0890 -0.1017 -0.0022
80869W        W23807  10.064  13.267   7.858  0.2399 -0.0732  0.0263
80870W        W23808   8.233  13.847   7.517  0.1266 -0.2318  0.0253
80871W        W23809   8.840  11.899   8.612  0.1270  0.0447 -0.1439
80872W        W23810   9.335  13.209   8.259 -0.0662  0.1860 -0.0377
80873W        W23811   8.363  13.494   7.806 -0.0959 -0.1132 -0.0129
80874W        W23812   9.070  12.385   9.430  0.0038 -0.2455  0.2160
80875W        W23813   8.338  14.765   9.838  0.2072 -0.1381 -0.4777
80876W        W23814   9.383  14.305   7.666  0.1578 -0.0410  0.0077
80877W        W23815  11.567  11.738   8.229 -0.0826 -0.0110  0.4781
80878W        W23816   8.931  12.188   5.181 -0.1701 -0.0764 -0.0396
80879W        W23817  11.217  11.608   9.910 -0.1472  0.1694 -0.1542
80880W        W23818   9.054  11.139   8.146 -0.1781 -0.1815  0.1346
80881W        W23819   9.280  14.046   8.079 -0.0053 -0.1590  0.3679
80882W        W23820   8.818  12.593   7.964  0.3047 -0.0629  0.0493
80883W        W23821  10.167  12.695   9.036 -0.4601 -0.1198  0.0511
80884W        W23822   8.483  10.404   9.861  0.2316 -0.0950 -0.3729
80885W        W23823   8.638  13.470   8.711 -0.0593 -0.0447 -0.2646
80886W        W23824   8.200  12.318   7.208  0.0869 -0.0778 -0.3092
80887W        W23825   9.968  14.801   6.908  0.1379  0.1978 -0.0164
80888W        W23826  12.440  12.890  10.188  0.2605 -0.0309  0.4835
80889W        W23827   7.810  13.082   6.940 -0.0335  0.0150 -0.0194
80890W        W23828   9.259  12.260   7.803  0.0962 -0.0506 -0.1291
80891W        W23829   8.278  10.643   7.328 -0.1458 -0.2612  0.1428
80892W        W23830   9.553  11.197   7.074 -0.0078  0.1216 -0.2239
80893W        W23831  10.435  13.651   8.805 -0.0273 -0.1438  0.0802
80894W        W23832   8.637  12.897   8.735 -0.0724 -0.3123 -0.0785
80895W        W23833   9.702  13.880   7.162  0.1678  0.0833  0.0273
80896W        W23834  11.383  11.356   9.423 -0.1925  0.0874  0.2980
80897W        W23835   9.508  11.730   8.911 -0.2751 -0.0376 -0.0182
80898W        W23836   8.071  12.827   6.505  0.0306 -0.0208  0.1600
80899W        W23837   8.372  13.887   8.315  0.0545  0.1018  0.0259
80900W        W23838   9.946  13.444   9.589  0.1156 -0.0318 -0.2727
80901W        W23839  12.583  12.935   8.489 -0.2218  0.0778  0.0791
80902W        W23840   9.274  14.600   8.811 -0.0589  0.0147 -0.0879
80903W        W23841   7.256  14.699   7.364  0.2624  0.1341 -0.1811
80904W        W23842   8.300  12.790   9.178  0.0107 -0.0018 -0.0079
80905W        W23843   7.640  13.356   8.346  0.0283 -0.5094  0.2981
80906W        W23844   8.172  12.450   8.181  0.2622  0.2424 -0.2369
80907W        W23845   7.399  13.164   9.454 -0.5775 -0.4374 -0.1595
80908W        W23846  10.461  11.954   7.794 -0.2391 -0.1575  0.0937
80909W        W23847  12.173  10.152   9.210  0.0063 -0.0030 -0.0110
80910W        W23848   6.726  12.571   8.415  0.1574  0.0273  0.0655
80911W        W23849  11.887  14.086   7.869 -0.0206  0.0573 -0.2240
80912W        W23850  11.612  13.542   8.316 -0.0095 -0.0332 -0.3763
80913W        W23851  10.379  12.742   7.332  0.2090 -0.0630  0.0867
80914W        W23852   6.881  11.949   9.100  0.0726 -0.1070  0.1574
80915W        W23853   7.190  11.296   8.217 -0.2902  0.1802 -0.0733
80916W        W23854   7.052  12.111   8.596 -0.0982 -0.1199 -0.0102
80917W        W23855   7.443  11.188   7.290 -0.1156  0.2715 -0.0371
80918W        W23856  10.090  10.985   9.634  0.1823  0.0973  0.0476
80919W        W23857   9.159  11.818   7.413 -0.1373 -0.1048  0.0238
80920W        W23858   6.956  12.457   7.922 -0.0001 -0.2043  0.0094
80921W        W23859  10.174  15.045   7.964  0.1743  0.1094 -0.4468
80922W        W23860  12.338  14.585   9.597  0.1463 -0.1917 -0.2682
80923W        W23861  11.076  14.187   8.498  0.0603 -0.0567  0.1658
80924W        W23862   9.034  12.942   9.678  0.0434  0.2956 -0.3224
80925W        W23863   7.993  11.475   7.198 -0.2247  0.0626 -0.2424
80926W        W23864   7.688  14.891   9.594  0.0165  0.1033 -0.0993
80927W        W23865   9.467  12.163   8.699 -0.2529  0.0319 -0.0127
80928W        W23866   8.536  11.609   6.811 -0.0438 -0.0046  0.1980
80929W        W23867  11.544  15.048   8.560  0.2667 -0.2113  0.0517
80930W        W23868   9.697  12.778   8.979  0.1725  0.2478  0.0617
80931W        W23869   8.295  12.509   8.713 -0.2965  0.1291 -0.2339
80932W        W23870  10.814   9.544   9.559  0.1976 -0.1052  0.0075
80933W        W23871   8.449  11.065   6.883  0.1712  0.0123 -0.2114
80934W        W23872   9.205  14.447   9.968 -0.5329  0.0402  0.0235
80935W        W23873   8.430  14.327   7.491  0.0494  0.0773 -0.2821
80936W        W23874   6.907  12.643   8.884 -0.2432 -0.0136 -0.2471
80937W        W23875   8.642  13.521   7.434 -0.3593 -0.0526 -0.0476
80938W        W23876  10.992  12.160   9.048 -0.1340 -0.1825  0.4666
80939W        W23877   6.599  11.600   7.377 -0.2556 -0.2354  0.3675
80940W        W23878   9.730  10.283   7.662  0.0839 -0.0994  0.3672
80941W        W23879  11.305  12.556   8.728  0.0093 -0.2872  0.0888
80942W        W23880   9.474  12.610   6.149 -0.2862 -0.3900 -0.0287
80943W        W23881  10.098  11.711   7.626  0.0868  0.1183  0.4202
80944W        W23882   9.762  12.330   8.248  0.4615  0.0311  0.0297
80945W        W23883  10.311  12.885   8.031 -0.0552 -0.0073 -0.1600
80946W        W23884  10.515  14.242   9.451 -0.0746 -0.0942 -0.0189
80947W        W23885  10.597  12.359   5.698 -0.2343  0.0534 -0.1873
80948W        W23886  11.330  13.741   7.736 -0.0367  0.3205 -0.0422
80949W        W23887   6.872  13.760   8.844 -0.0943  0.0498 -0.1474
80950W        W23888  10.248  13.718   7.591 -0.4152  0.0439  0.2296
80951W        W23889   8.642  10.302   9.356 -0.0316  0.0919  0.2067
80952W        W23890   7.217  12.951   5.959  0.0354  0.1040  0.2027
80953W        W23891   9.155  11.066   9.078  0.0569  0.1640 -0.2116
80954W        W23892   6.798  14.814   6.580 -0.0586 -0.1605  0.0776
80955W        W23893   9.195  11.504   8.610 -0.2330 -0.0352 -0.2024
80956W        W23894  12.393  11.463   9.366 -0.0001  0.2828  0.0780
80957W        W23895  10.666  12.624   7.772 -0.0789 -0.0764 -0.0150
80958W        W23896  10.077  12.979   9.488  0.2662  0.2843  0.0038
80959W        W23897   7.450  11.521   5.976  0.0458  0.1311 -0.3194
80960W        W23898   7.053  10.445  12.322  0.0914 -0.1415 -0.1909
80961W        W23899   7.533  13.749   8.649 -0.1185 -0.0223  0.1776
80962W        W23900  10.132  12.398   8.643  0.1383 -0.1907 -0.1371
80963W        W23901   7.959  12.715   7.748  0.0539  0.0608  0.0596
80964W        W23902   7.503  15.527   8.305  0.1074 -0.1962  0.0915
80965W        W23903   7.930  11.734   8.513 -0.2205 -0.4461  0.2779
80966W        W23904   8.747   9.928   9.907 -0.1550 -0.0592 -0.2164
80967W        W23905   8.657  14.549   8.751 -0.1949  0.1726 -0.0894
80968W        W23906   9.365  14.537   6.605 -0.1321 -0.3429  0.0125
80969W        W23907  10.540  14.791   8.551 -0.0325 -0.0192 -0.0952
80970W        W23908   7.322  14.131   7.712  0.1340  0.0120 -0.3871
80971W        W23909  10.681  12.196   9.604 -0.1474  0.2030  0.1163
80972W        W23910   6.293  14.276   9.483 -0.0629 -0.0894  0.3552
80973W        W23911   8.748  12.383   8.533 -0.0608 -0.2880  0.0674
80974W        W23912   6.199  13.284   8.220 -0.2142  0.0652 -0.0053
80975W        W23913   9.778  10.359   9.008  0.1060 -0.0542  0.0749
80976W        W23914  11.433  13.607   7.272  0.2368 -0.2739  0.0479
80977W        W23915   8.071  10.807   8.400 -0.1069 -0.0380  0.0162
80978W        W23916  10.294  12.502   9.504  0.3601  0.0363  0.1299
80979W        W23917   7.197  13.841   9.603 -0.0111 -0.1837 -0.2689
80980W        W23918   7.171  11.202   6.605  0.0714 -0.0060  0.0473
80981W        W23919   7.302  11.734   6.432  0.3227  0.0492 -0.2566
80982W        W23920   9.374  11.905   8.200  0.0219  0.0914 -0.1806
80983W        W23921   8.170  12.843   7.301 -0.0475 -0.1179 -0.3927
80984W        W23922   8.280  14.402   8.313 -0.2782  0.0268  0.0004
80985W        W23923   9.878  14.129   9.794 -0.1995 -0.0539  0.1775
80986W        W23924   7.535  11.431   7.737 -0.0906 -0.0776  0.2747
80987W        W23925   8.996  14.193   9.542  0.1293 -0.0489  0.4315
80988W        W23926   8.202  14.161   8.783 -0.3263  0.0256 -0.0834
80989W        W23927  10.108  12.471   7.780 -0.1726  0.0092  0.1358
80990W        W23928   8.372  11.975   8.282 -0.0869 -0.2281  0.1878
80991W        W23929   9.078  12.850   8.440  0.2238  0.0871  0.0339
80992W        W23930   7.809  14.072   9.900  0.1688  0.4388  0.0493
80993W        W23931   7.652  11.141   8.373 -0.1456  0.2430 -0.0331
80994W        W23932   9.790  11.847   8.542  0.2482  0.2428 -0.1334
80995W        W23933  12.301  13.514   7.661 -0.2219 -0.2369 -0.1028
80996W        W23934   6.760  12.563   7.340 -0.3423 -0.3740  0.0873
80997W        W23935  10.272  13.839   9.715  0.2595  0.1606  0.0869
80998W        W23936   7.845  13.683   9.109 -0.1098 -0.0739 -0.0787
80999W        W23937  11.984  11.165   9.396 -0.0103 -0.0177 -0.0911
81000W        W23938   7.570  14.610   9.972 -0.2704 -0.4196  0.0228
81001W        W23939   6.694  12.980   7.562 -0.0606 -0.2418  0.0540
81002W        W23940   9.095  16.064   9.930  0.2305 -0.2636  0.0990
81003W        W23941  10.558  11.504   8.337  0.1455 -0.0466  0.0024
81004W        W23942   8.597  14.425   7.953  0.0070 -0.1699  0.2578
81005W        W23943  10.413  11.051   8.551 -0.1654  0.2261  0.0493
81006W        W23944   9.892  12.343   6.007  0.3042 -0.0736 -0.1736
81007W        W23945   6.213   9.571   8.919  0.0290 -0.0270  0.2365
81008W        W23946  10.567  12.840   8.493  0.1066  0.0270 -0.3611
81009W        W23947   7.096  12.670   9.332  0.0612 -0.1974  0.0274
81010W        W23948   8.473  11.143   7.406  0.0750 -0.0568  0.0020
81011W        W23949   8.366  16.671   8.229 -0.2737 -0.0508  0.0221
81012W        W23950  10.952  13.754   8.764  0.2240 -0.0757 -0.0586
81013W        W23951   9.397  13.109   8.816 -0.0481  0.2638 -0.2109
81014W        W23952  11.479  11.296   8.690  0.0049  0.0556 -0.3416
81015W        W23953   7.550  14.082   9.017  0.2380  0.0586 -0.0447
81016W        W23954  10.706  12.400   8.660  0.0275  0.0307  0.0518
81017W        W23955   8.335  13.097   6.818  0.2133 -0.4595 -0.2164
81018W        W23956   9.302  12.725   7.889  0.1055 -0.1379 -0.2648
81019W        W23957  11.270  12.172   9.768 -0.1320 -0.1831 -0.2757
81020W        W23958   9.456  11.163   7.803  0.0214  0.2559  0.2652
81021W        W23959  10.681  14.726   9.519 -0.0093 -0.0079 -0.0140
81022W        W23960  11.330  13.167   8.139  0.1187 -0.0010  0.1043
81023W        W23961   9.661  12.731   9.690  0.1447  0.0610 -0.1927
81024W        W23962  11.523  13.128   7.595 -0.1895 -0.0847  0.2204
81025W        W23963   9.947  12.529   7.043  0.3429 -0.1595 -0.1887
81026W        W23964   8.570  12.559   7.548 -0.3525  0.0221  0.0564
81027W        W23965   8.111  12.156   7.680 -0.1976 -0.4298 -0.1915
81028W        W23966   8.149  14.141   7.899 -0.0079  0.0330  0.0685
81029W        W23967   9.381  12.864   9.307  0.1715 -0.1059 -0.2035
81030W        W23968   9.761  12.098   7.788 -0.2078 -0.0559 -0.0615
81031W        W23969   7.732  12.472   7.345 -0.2084 -0.1012 -0.1370
81032W        W23970   8.405  11.828   7.262  0.1274  0.0434 -0.3154
81033W        W23971   9.562  12.700   8.495 -0.2272 -0.1474 -0.0820
81034W        W23972   7.864  12.047   9.171 -0.4942 -0.2724 -0.2770
81035W        W23973   8.929  10.739   7.739 -0.0397  0.1605  0.0410
81036W        W23974   6.651  13.513   7.274  0.1780 -0.1716  0.0521
81037W        W23975   9.862  11.235   8.773  0.1299 -0.0988 -0.1466
81038W        W23976   7.029  14.763   9.986 -0.0512 -0.2706  0.0696
81039W        W23977   9.016  13.880   9.118  0.0801  0.2486  0.0708
81040W        W23978  10.384  11.320   9.418  0.0946 -0.0590 -0.0675
81041W        W23979   8.856  12.089   8.075  0.1768 -0.2217  0.0307
81042W        W23980   9.047  12.013   9.040  0.1536 -0.0753  0.0161
81043W        W23981   5.827  14.315  12.280  0.2185 -0.0251 -0.3846
81044W        W23982  11.708  11.409   9.078  0.0049 -0.2070  0.1613
81045W        W23983   8.562  13.070   9.476 -0.0331 -0.1008 -0.1538
81046W        W23984   9.183  13.261  10.039 -0.1598  0.0856  0.1399
81047W        W23985   9.528  11.433   8.201  0.0093 -0.3396 -0.5367
81048W        W23986   8.629  13.067   7.271 -0.0439 -0.2322  0.0045
81049W        W23987   7.891  13.075   9.263  0.1381 -0.0260 -0.2129
81050W        W23988   7.134  12.718   6.389 -0.1315 -0.0023  0.2571
81051W        W23989   9.142  13.555   8.718 -0.2847  0.1251  0.0525
81052W        W23990  10.038  12.869   8.524  0.0057 -0.0588 -0.1036
81053W        W23991   8.737  14.002   8.713 -0.3206  0.1480  0.2030
81054W        W23992   9.274  10.852   6.323  0.4678 -0.0322 -0.2206
81055W        W23993   7.846  14.458   8.635 -0.0281 -0.1439  0.1797
81056W        W23994   6.368  12.915   7.933  0.0309 -0.0570 -0.0296
81057W        W23995   9.794  13.050   6.909 -0.2453 -0.0350  0.0684
81058W        W23996   8.242  14.595   9.158  0.0129  0.1885  0.1283
81059W        W23997  10.234  10.766   6.456  0.1523  0.1398  0.0657
81060W        W23998  11.744  12.265   8.374  0.2660  0.2456 -0.0583
81061W        W23999  12.444  13.286   8.938  0.1031 -0.4691 -0.0783
81062W        W24000   9.370  13.471   9.237  0.0633  0.0175  0.2841
81063W        W24001   9.180  11.799   6.206  0.1340  0.1175 -0.1964
81064W        W24002  11.078  13.585   8.279  0.2169 -0.0744 -0.2941
81065W        W24003   7.805  12.193   8.287 -0.0800  0.0280 -0.4363
81066W        W24004   8.984  13.106   7.659  0.1585 -0.0797 -0.0551
81067W        W24005  12.251  12.224   9.366  0.1737  0.0386  0.1077
81068W        W24006   9.060  12.892   6.996 -0.1166 -0.0680 -0.0073
81069W        W24007  10.619  12.483   9.146  0.1052 -0.3151 -0.3142
81070W        W24008   9.532  15.315   7.151 -0.2536 -0.1047 -0.0114
81071W        W24009   7.540  12.734   9.805 -0.0438 -0.1086 -0.1668
81072W        W24010  10.725  15.235   8.850  0.0762  0.0737  0.1482
81073W        W24011   6.868  11.940   7.753  0.0142  0.0948  0.2868
81074W        W24012  12.363  12.466   8.410 -0.0554 -0.1905 -0.0075
81075W        W24013   5.920  12.400   8.968  0.1378  0.2140 -0.0641
81076W        W24014   7.254  13.087   8.950  0.0376 -0.0697 -0.1128
81077W        W24015  12.138  12.187   7.950 -0.0233  0.1877  0.5712
81078W        W24016   8.631  14.297   9.250 -0.1120 -0.2461 -0.2668
81079W        W24017   5.239  11.603   8.494 -0.2561  0.3036 -0.1704
81080W        W24018   8.722  11.559   6.395 -0.2379 -0.2236 -0.2074
81081W        W24019   9.479  12.841   7.258 -0.0560 -0.0289  0.0651
81082W        W24020   6.824  10.898   8.312  0.1239 -0.0137  0.1329
81083W        W24021   9.594  10.852   9.064 -0.0334 -0.0015  0.2827
81084W        W24022   6.561  12.073   8.199  0.1646  0.0055  0.0449
81085W        W24023   9.839  11.272   9.258 -0.0799  0.2079 -0.1918
81086W        W24024   7.797   9.760   7.159 -0.2035 -0.2437 -0.0275
81087W        W24025  10.430  14.113   6.064  0.1603  0.0410  0.0139
81088W        W24026   8.503  13.519   9.987  0.0004  0.0319 -0.0717
81089W        W24027   9.546  13.360   7.857 -0.1888  0.0272 -0.1807
81090W        W24028  10.429  12.371   8.227 -0.2979  0.0881 -0.0470
81091W        W24029  10.243  14.133   8.504  0.0396  0.3026 -0.1727
81092W        W24030   6.856  16.861   9.290 -0.2454  0.1105  0.2218
81093W        W24031   9.977  13.665   8.609  0.2507 -0.3619 -0.4766
81094W        W24032  11.724  13.403   8.809  0.1430  0.0339 -0.1812
81095W        W24033   8.639  11.237   7.840 -0.1606 -0.2585  0.2758
81096W        W24034   7.811  12.737   8.268  0.1985  0.4391  0.2234
81097W        W24035   7.577  14.917   7.775  0.3334  0.2687  0.0039
81098W        W24036  11.148  12.917   9.391  0.1736 -0.3152 -0.0409
81099W        W24037   7.865  13.680   6.965  0.0647  0.0190  0.0215
81100W        W24038  10.636  13.882   8.321  0.2847  0.0127 -0.2338
81101W        W24039   7.511  11.566   6.885 -0.1887 -0.3168 -0.0919
81102W        W24040   8.140  13.649   8.695  0.0154 -0.0593 -0.0167
81103W        W24041   7.965  13.212   7.781  0.0274  0.2031  0.1555
81104W        W24042  10.386  13.151   8.873  0.1498 -0.1224  0.3374
81105W        W24043  10.364  11.850   8.665  0.1682 -0.2780 -0.1459
81106W        W24044  12.190  12.642   9.837  0.1898 -0.1516  0.1315
81107W        W24045   8.933  11.076   8.615 -0.0958 -0.2293 -0.0535
81108W        W24046  11.537  10.646   8.614 -0.2877 -0.1161 -0.1335
81109W        W24047   9.352   9.402   7.529 -0.0069 -0.1051 -0.0387
81110W        W24048   8.411  15.088   9.050 -0.1386  0.0505 -0.1402
81111W        W24049   7.128  12.247   7.371  0.2979 -0.5907  0.1411
81112W        W24050   7.397  12.958   8.082 -0.0923 -0.3550 -0.3508
81113W        W24051   6.398  13.527   8.684  0.0119  0.1743  0.1380
81114W        W24052   9.177  12.534   8.870  0.1475  0.2223 -0.2325
81115W        W24053   7.639  11.968   7.431 -0.1902 -0.2134  0.0997
81116W        W24054  10.635  13.616   7.926 -0.1266  0.0161  0.1211
81117W        W24055   6.533  11.242   7.961 -0.0762  0.0678 -0.1872
81118W        W24056   6.344  11.687   8.364 -0.0973 -0.0367 -0.2193
81119W        W24057  10.361  13.362   8.388 -0.1075 -0.0362 -0.0648
81120W        W24058  10.099  13.700   8.112  0.0339  0.1408  0.3965
81121W        W24059  10.094  11.985   8.171  0.3814 -0.3181  0.2326
81122W        W24060   8.466  13.008   7.727  0.0136  0.1014 -0.1639
81123W        W24061   7.440  10.201   7.362  0.3338  0.2091  0.1743
81124W        W24062   9.731  12.180   9.127  0.2108  0.0193  0.0184
81125W        W24063   8.935  13.771   8.322  0.0554 -0.1796  0.1126
81126W        W24064   9.854  14.538   7.835  0.1112 -0.0782 -0.0707
81127W        W24065   4.719  11.496   8.280  0.0370 -0.2445  0.1078
81128W        W24066   9.202  12.398   8.343 -0.0144  0.2182  0.1866
81129W        W24067  10.988  13.602   6.606 -0.2562  0.0646 -0.1787
81130W        W24068  11.805  12.431   9.009  0.1124 -0.2254 -0.1623
81131W        W24069   8.731  13.294   8.230 -0.0199  0.1809  0.1649
81132W        W24070  11.809  12.285   9.632  0.2855 -0.1390  0.1017
81133W        W24071   8.173  11.283   8.182  0.0869 -0.2714  0.2414
81134W        W24072   9.566  11.645   7.641 -0.0114 -0.0181  0.2160
81135W        W24073   8.506  13.815   9.162  0.2907  0.1250 -0.0473
81136W        W24074   7.520  11.990   8.739 -0.0713 -0.0646 -0.1471
81137W        W24075  10.392  12.182   7.373 -0.0651 -0.0161  0.0427
81138W        W24076   7.851  14.436   9.452 -0.1218  0.1267 -0.1096
81139W        W24077   9.005  12.261   7.151  0.3239  0.1042 -0.1077
81140W        W24078  11.582  13.030   6.605  0.0213  0.1101 -0.3706
81141W        W24079  10.593  14.385   8.258 -0.0189 -0.1768 -0.1127
81142W        W24080   9.853  15.054   9.554  0.0659 -0.0451 -0.1545
81143W        W24081  10.680  14.182   8.761  0.2536  0.1227  0.0365
81144W        W24082   8.867  11.554   9.015  0.1253 -0.2922 -0.1030
81145W        W24083   7.795  12.521   6.853 -0.0877 -0.0954 -0.1525
81146W        W24084   8.686  12.312   9.062 -0.0593 -0.3236  0.2319
81147W        W24085  10.546  12.995   9.331 -0.0235  0.0434 -0.0020
81148W        W24086   7.457  11.713   8.279 -0.2096  0.1394 -0.0053
81149W        W24087  10.713  11.974   8.371 -0.1136 -0.0296 -0.1849
81150W        W24088   8.361  16.114   8.877 -0.3342  0.0294  0.1021
81151W        W24089   9.568  13.732   8.852  0.1654  0.0618  0.0656
81152W        W24090   8.910  16.890   2.112 -0.0422  0.2967  0.0203
81153W        W24091   9.900  15.700   1.336  0.0803 -0.1630  0.4034
81154W        W24092  10.128  14.352  31.373  0.0379 -0.0168  0.1119
81155W        W24093  11.306  16.030  30.510  0.1217 -0.0818  0.1055
81156W        W24094   6.318  14.942   0.771  0.0509 -0.1501  0.0410
81157W        W24095  10.720  17.483   0.993  0.0047  0.2677 -0.2070
81158W        W24096   9.030  15.716   3.893  0.4098  0.2893 -0.1831
81159W        W24097  10.940  18.475   2.949  0.0401 -0.0981 -0.0448
81160W        W24098  12.272  18.363   2.970  0.1664 -0.0873 -0.1501
81161W        W24099  10.810  14.735  31.597  0.0939  0.2918  0.1944
81162W        W24100   9.573  15.507   0.803  0.0566  0.0330  0.0120
81163W        W24101   9.082  18.110   3.258  0.1702  0.0700 -0.0396
81164W        W24102   9.754  15.049  30.054  0.0301 -0.2084  0.1265
81165W        W24103   8.772  15.341   2.243 -0.0099 -0.3934  0.1085
81166W        W24104   8.892  16.552   3.023 -0.0936 -0.3294 -0.4111
81167W        W24105   6.550  16.126   1.573 -0.4043  0.0004 -0.0712
81168W        W24106   7.536  16.037   3.020 -0.1608  0.3678  0.5102
81169W        W24107   7.558  14.701   1.758  0.0913  0.2087  0.0146
81170W        W24108   9.660  17.425   2.458 -0.0284  0.0498 -0.0055
81171W        W24109  10.379  15.842   3.125 -0.1556  0.0575  0.2279
81172W        W24110   8.764  15.015   3.995 -0.0485 -0.2106  0.2599
81173W        W24111  10.238  16.019  31.923  0.0583  0.1266 -0.1553
81174W        W24112  10.418  18.574  31.918  0.0706 -0.0248 -0.2204
81175W        W24113   7.602  15.673   1.929 -0.0055 -0.1343 -0.3516
81176W        W24114   8.506  16.508   1.903  0.1919  0.3772 -0.1887
81177W        W24115  10.451  14.422   2.067  0.1203 -0.0986 -0.0472
81178W        W24116  10.199  16.755   1.902  0.4577 -0.1206 -0.0108
81179W        W24117   7.807  16.087   0.350  0.0469 -0.0911 -0.2271
81180W        W24118   9.446  17.196   1.391  0.3145  0.0363  0.2404
81181W        W24119   8.750  17.148   3.998  0.2308  0.1712  0.1535
81182W        W24120   8.509  17.457   1.387 -0.1538  0.1645  0.0983
81183W        W24121   8.239  17.543   0.917  0.3007 -0.1230  0.1162
81184W        W24122   9.088  17.895   1.726 -0.0185 -0.0806 -0.2023
81185W        W24123  11.121  17.649   1.347  0.0654 -0.1818 -0.1890
81186W        W24124  10.332  16.850   1.056  0.2967  0.2011  0.1347
81187W        W24125   9.184  17.274   3.782  0.4980 -0.1982 -0.1034
81188W        W24126   8.847  18.060  30.337 -0.2902 -0.0777 -0.3955
81189W        W24127  10.026  17.378   3.938  0.1139 -0.1220 -0.0038
81190W        W24128   7.991  17.224   2.755 -0.0293 -0.0357 -0.0696
81191W        W24129   8.418  16.079   2.801  0.1777 -0.0968 -0.0447
81192W        W24130   8.618  15.412   0.442 -0.2525 -0.0256  0.0235
81193W        W24131  10.056  17.996   0.062  0.2051  0.1080  0.1296
81194W        W24132  10.621  17.014   1.397  0.1414 -0.0435  0.1210
81195W        W24133   8.332  16.685   3.516  0.0497  0.0049  0.1682
81196W        W24134   7.458  17.403   2.009 -0.2199 -0.0236 -0.1378
81197W        W24135  10.348  14.847   2.720  0.0437 -0.2169 -0.0134
81198W        W24136   8.801  17.581  31.553  0.0986  0.1325  0.4233
81199W        W24137  11.023  14.183  30.961  0.0874 -0.3113  0.1814
81200W        W24138   8.943  15.001  31.304  0.3609  0.1995  0.2899
81201W        W24139   9.592  14.468   0.546 -0.0987 -0.1283  0.2178
81202W        W24140   7.996  15.555   0.470 -0.2985 -0.1025 -0.0536
81203W        W24141   7.858  18.208   2.601 -0.1662 -0.0254 -0.2346
81204W        W24142   9.815  16.134   1.804  0.2020  0.0618  0.0162
81205W        W24143   9.382  16.626   2.982 -0.0363 -0.2311  0.0420
81206W        W24144   9.033  14.874  31.821  0.0492 -0.0273  0.0481
81207W        W24145   8.996  16.369   2.061 -0.1232 -0.2615 -0.0266
81208W        W24146   9.240  18.270   2.086 -0.0202  0.2051 -0.1781
81209W        W24147   8.027  16.699   2.606 -0.1380  0.2678  0.0343
81210W        W24148  11.058  18.980   1.319  0.0727 -0.0007  0.2255
81211W        W24149  12.126  17.430   1.673 -0.0884 -0.0873  0.0304
81212W        W24150  10.094  16.395  31.091  0.0084 -0.1889 -0.2895
81213W        W24151   6.866  14.916   0.966 -0.2310  0.1554 -0.1639
81214W        W24152   8.525  17.004   3.154  0.2578  0.2178  0.2743
81215W        W24153   8.368  17.673   2.739  0.0320  0.1044 -0.0019
81216W        W24154   7.771  15.436  31.962  0.1054 -0.1068  0.0332
81217W        W24155  10.915  17.681   2.953 -0.0471 -0.0710  0.1450
81218W        W24156   7.706  17.877   3.280  0.2837 -0.4457  0.0713
81219W        W24157  10.432  15.874   1.379 -0.0166  0.1470  0.1090
81220W        W24158   8.894  17.300   1.716  0.0488  0.2007  0.0332
81221W        W24159   9.665  16.305   0.822 -0.1344  0.2944  0.2782
81222W        W24160  10.037  18.988  31.928  0.1293  0.1053 -0.1038
81223W        W24161  10.837  15.716   1.716 -0.0330 -0.2490  0.1474
81224W        W24162  11.041  14.773   2.087  0.4053 -0.0612 -0.0849
81225W        W24163   9.279  17.693  31.818  0.1311  0.4970 -0.0332
81226W        W24164   9.957  15.947  31.377  0.1265  0.0132 -0.5041
81227W        W24165  11.789  16.858   1.667  0.0660  0.0981  0.0297
81228W        W24166  11.300  16.878   0.470 -0.2297 -0.1023  0.2400
81229W        W24167   8.310  18.476   3.868 -0.1756 -0.2322 -0.1362
81230W        W24168   8.879  15.832   2.091 -0.0402  0.3522  0.1980
81231W        W24169   9.710  18.302   3.944 -0.0773 -0.0800 -0.0200
81232W        W24170   7.857  17.601  30.572  0.0048  0.4127 -0.0021
81233W        W24171   8.045  16.868  31.896 -0.0124 -0.1832  0.0443
81234W        W24172   9.549  16.804   0.341 -0.4351  0.2057  0.0719
81235W        W24173   6.892  14.464   3.651 -0.1631 -0.1598  0.2919
81236W        W24174   8.391  16.365   0.585  0.2267  0.4817 -0.1035
81237W        W24175  10.274  13.612   0.148 -0.2008  0.2048 -0.1937
81238W        W24176   8.451  14.986   2.514 -0.2372  0.1996  0.0429
81239W        W24177  10.260  13.499   1.277 -0.0710 -0.3251  0.0070
81240W        W24178  10.054  16.401  31.630  0.0945 -0.1542 -0.0305
81241W        W24179  11.147  19.425   1.585  0.1018  0.1828 -0.0252
81242W        W24180  11.479  16.903  31.469 -0.2905 -0.1478  0.1735
81243W        W24181  11.364  17.286  31.722 -0.0077  0.0713  0.1830
81244W        W24182   6.691  15.110   3.500  0.0778 -0.0180 -0.3557
81245W        W24183   8.249  15.812   0.157  0.1041  0.0881  0.1033
81246W        W24184   7.982  15.161   3.345 -0.1624  0.0039 -0.1393
81247W        W24185   7.282  14.489   2.747  0.0521  0.0943  0.2502
81248W        W24186  11.477  17.342   2.372 -0.0088  0.2347  0.3144
81249W        W24187   7.641  14.047   1.927 -0.3421 -0.1847 -0.0378
81250W        W24188   9.148  15.232   0.803  0.3374  0.2592 -0.0925
81251W        W24189   6.345  16.007   0.965 -0.2239 -0.0765 -0.1033
81252W        W24190   7.343  17.029   1.080  0.1137  0.0485 -0.1156
81253W        W24191  11.027  14.872   3.249 -0.2416 -0.0605  0.0144
81254W        W24192   9.965  16.731   0.025  0.3325 -0.2232  0.4697
81255W        W24193  10.783  16.847   4.230 -0.1339 -0.0349 -0.1798
81256W        W24194  11.342  18.727   2.219  0.1187  0.1773  0.3136
81257W        W24195   7.053  15.253   3.146 -0.4465 -0.0362 -0.0713
81258W        W24196   6.278  14.809   1.311 -0.0126  0.1851 -0.0454
81259W        W24197   9.344  17.560   2.060  0.2032  0.0260  0.0478
81260W        W24198   9.464  17.137  31.930 -0.0910 -0.1685 -0.0494
81261W        W24199   6.750  15.363   0.749 -0.1044 -0.1703 -0.1962
81262W        W24200  12.012  17.755   1.228 -0.0890 -0.2125  0.1031
81263W        W24201   9.710  16.667   1.372  0.0725 -0.0024  0.0838
81264W        W24202   8.165  15.450   2.243  0.0271  0.1568  0.5580
81265W        W24203   9.731  14.921   3.534  0.1235  0.2288 -0.2677
81266W        W24204  10.103  16.650   2.701  0.0637 -0.0237 -0.3332
81267W        W24205   9.942  15.890   0.905 -0.0087  0.2500 -0.2009
81268W        W24206   8.067  15.093   0.280  0.1186 -0.1188 -0.0436
81269W        W24207  10.254  18.023   3.005  0.2233  0.0854 -0.1308
81270W        W24208   7.610  18.025  30.595  0.0982 -0.0948 -0.1214
81271W        W24209   6.266  15.191  31.665  0.2799 -0.0741  0.0030
81272W        W24210  10.308  17.173   0.690 -0.1846  0.1858  0.3817
81273W        W24211   9.858  15.062   2.744  0.1933  0.1267 -0.1459
81274W        W24212   9.149  16.414   4.486  0.1751  0.0746  0.1160
81275W        W24213   9.631  16.279   2.754  0.1315  0.1128  0.1866
81276W        W24214   7.603  14.905   0.132  0.1444  0.0813 -0.2426
81277W        W24215   8.056  15.727   2.774  0.3043 -0.0749  0.0916
81278W        W24216   9.579  14.242   0.074 -0.3252 -0.1007  0.0144
81279W        W24217  11.420  16.407   0.325  0.3943 -0.1306 -0.6591
81280W        W24218   9.814  17.073   4.593 -0.0396  0.1121  0.2720
81281W        W24219  10.284  16.790  31.287 -0.2260  0.4804 -0.0052
81282W        W24220  10.065  15.711  30.929 -0.0418 -0.0223 -0.2160
81283W        W24221   9.605  15.571  31.373 -0.2496  0.2758  0.3087
81284W        W24222   8.067  17.072   3.251 -0.0204  0.0385 -0.2657
81285W        W24223   9.467  17.295   0.398 -0.0434  0.0151  0.2088
81286W        W24224   9.060  16.967   0.439  0.0779  0.0181 -0.0973
81287W        W24225  10.237  14.900   1.263  0.2081 -0.3657 -0.4354
81288W        W24226  12.436  18.200   0.344 -0.1216  0.1322  0.3293
81289W        W24227   7.919  17.720   1.866  0.0488  0.3139  0.0852
81290W        W24228   8.665  18.173   4.093 -0.0400 -0.0083  0.2718
81291W        W24229  10.125  17.968   1.115  0.1101 -0.1250 -0.3644
81292W        W24230   9.306  15.457   1.289 -0.0608  0.0676 -0.1768
81293W        W24231   9.774  16.357   0.362 -0.2590 -0.3773  0.1276
81294W        W24232   9.109  15.681   0.480 -0.0195 -0.1348  0.3230
81295W        W24233   8.064  18.886   0.773  0.4010 -0.1167  0.1285
81296W        W24234  10.771  15.395   0.414 -0.0949 -0.0463 -0.5026
81297W        W24235  10.766  15.338   3.139 -0.1717 -0.0015 -0.0645
81298W        W24236   9.631  15.175   3.146 -0.0536  0.0083  0.0455
81299W        W24237  11.726  16.419   2.496  0.1500 -0.0331  0.2117
81300W        W24238   9.259  15.737  31.967  0.2494  0.2134 -0.1098
81301W        W24239   9.312  14.425   1.419 -0.0837  0.1315  0.0934
81302W        W24240   7.984  15.513  31.450 -0.4342  0.0488 -0.0889
81303W        W24241  10.794  16.134   3.116 -0.2086 -0.0408 -0.0914
81304W        W24242   7.927  16.503   2.137  0.2039  0.0140  0.1650
81305W        W24243   9.215  17.565   3.349 -0.0682  0.0410 -0.0293
81306W        W24244  10.268  16.903   4.002 -0.0795 -0.1171  0.2804
81307W        W24245  10.228  16.361   1.571  0.3437 -0.0564  0.0404
81308W        W24246  10.490  16.121   3.663  0.1792 -0.1329 -0.0207
81309W        W24247   9.336  15.464  30.548 -0.0996  0.0043  0.1914
81310W        W24248   9.919  17.997   0.591  0.2143 -0.2411 -0.4168
81311W        W24249   7.595  15.866   0.837  0.0493 -0.0161 -0.0175
81312W        W24250   8.448  14.938   1.288 -0.3057 -0.2173 -0.1744
81313W        W24251   9.934  17.101   1.490  0.0295 -0.0725 -0.1224
81314W        W24252   6.803  18.677   0.496 -0.2086 -0.0035  0.0847
81315W        W24253  10.130  17.164   2.539  0.1112 -0.1744 -0.1468
81316W        W24254   8.992  17.311   0.001 -0.4366 -0.2389  0.0794
81317W        W24255   8.657  14.656   2.176  0.3377 -0.1472 -0.0712
81318W        W24256   6.951  18.019   1.616 -0.3255  0.1743 -0.1065
81319W        W24257   8.225  14.918   0.737 -0.1504  0.1988 -0.0440
81320W        W24258   7.621  17.047   0.145 -0.4141 -0.1746 -0.2249
81321W        W24259  10.655  16.517   2.827  0.2798  0.3161 -0.1404
81322W        W24260  10.517  16.650  31.666 -0.0351  0.2041  0.0581
81323W        W24261   8.538  16.123   2.262  0.0009 -0.0121 -0.1423
81324W        W24262   9.843  15.220   1.453  0.0906 -0.1415 -0.0817
81325W        W24263   8.856  18.303   1.761  0.0919 -0.0980  0.0184
81326W        W24264   8.722  16.113   1.626 -0.2905  0.0275  0.0001
81327W        W24265  10.224  14.772  30.031 -0.0775 -0.4637  0.0848
81328W        W24266   9.770  16.836   2.370 -0.0288 -0.1149 -0.2199
81329W        W24267   9.012  17.848   2.723  0.3411  0.1706  0.0043
81330W        W24268   7.265  13.807  31.921 -0.0927  0.1528  0.1195
81331W        W24269  10.085  15.960   2.699  0.2321 -0.0775 -0.0410
81332W        W24270   9.115  15.177   0.215 -0.1159  0.2619  0.1603
81333W        W24271   7.705  17.827  31.606  0.3795  0.1099 -0.1083
81334W        W24272  10.754  16.904   3.579  0.0735  0.1751 -0.2227
81335W        W24273   7.456  15.722   0.254 -0.1276 -0.1340 -0.1018
81336W        W24274   8.528  16.659  31.804  0.1363  0.0727  0.4151
81337W        W24275   9.108  16.242   3.873  0.2067 -0.1373  0.0138
81338W        W24276  10.595  16.991   2.642 -0.4280  0.0504 -0.0585
81339W        W24277  10.092  15.714   1.796 -0.0926 -0.2984  0.1309
81340W        W24278   7.781  15.135   2.085 -0.1663  0.2252 -0.0932
81341W        W24279   8.969  15.396   1.792  0.2292  0.4205  0.1467
81342W        W24280  10.322  16.099   2.072  0.0074  0.3317  0.2205
81343W        W24281   7.486  15.229   3.365 -0.2501 -0.1893 -0.5946
81344W        W24282   8.557  16.589   2.536 -0.1036 -0.1745 -0.0196
81345W        W24283   9.184  13.982   1.601 -0.0498 -0.2177 -0.1856
81346W        W24284  11.378  16.012   0.640 -0.2949 -0.1472  0.1531
81347W        W24285   9.307  15.486   2.173 -0.0697 -0.2558  0.0005
81348W        W24286   7.540  15.827  31.765  0.2266 -0.1186 -0.0958
81349W        W24287   8.037  16.709   1.636  0.1422  0.2651 -0.0375
81350W        W24288   9.213  18.160   0.066 -0.1287 -0.0066  0.2322
81351W        W24289  10.712  15.698   2.801 -0.0041  0.0432 -0.1714
81352W        W24290   8.565  18.146   2.667  0.4084  0.0358 -0.0725
81353W        W24291  10.328  17.513  30.147 -0.1225 -0.1019 -0.3101
81354W        W24292   7.313  17.847   1.989  0.1001 -0.0478  0.1832
81355W        W24293  10.617  14.508  31.229  0.0253  0.3602  0.1391
81356W        W24294  10.385  17.066   0.176  0.2510 -0.2309  0.1099
81357W        W24295   8.643  15.139   0.847 -0.0287  0.0718  0.0858
81358W        W24296  11.372  15.205   2.951  0.2064 -0.0848 -0.2360
81359W        W24297   9.599  17.190  30.977  0.0028  0.1670 -0.1955
81360W        W24298  12.121  16.259   3.155  0.0989 -0.1130  0.1614
81361W        W24299   9.065  14.522   1.834 -0.0274  0.0192  0.2542
81362W        W24300  10.094  16.162  30.633 -0.3075  0.2292 -0.1753
81363W        W24301   7.491  15.062   3.964  0.0187  0.0565 -0.1854
81364W        W24302   9.743  19.202   3.707  0.0987  0.0077 -0.0082
81365W        W24303   8.510  16.212   3.573  0.2076  0.2992  0.1856
81366W        W24304   8.859  15.638   0.946 -0.2590  0.0232  0.0318
81367W        W24305   8.433  14.549   1.786  0.1651 -0.3031  0.1328
81368W        W24306   9.325  16.068   2.330  0.2401 -0.0524  0.0465
81369W        W24307  11.180  17.652   1.833 -0.3218 -0.0443  0.4189
81370W        W24308   8.819  16.066   0.570 -0.0636  0.0138  0.1728
81371W        W24309  10.359  15.099   0.481 -0.1403  0.0285  0.0901
81372W        W24310   8.232  16.918   2.144  0.2895 -0.1799 -0.1412
81373W        W24311   9.387  16.076   0.374 -0.0135  0.3523 -0.2166
81374W        W24312   9.828  16.907  29.922 -0.3315 -0.2786 -0.0072
81375W        W24313   9.142  16.454   1.091 -0.1928  0.0087  0.1184
81376W        W24314   9.509  15.546   3.527 -0.0150  0.0442  0.1980
81377W        W24315  10.118  16.402   1.101  0.0405 -0.2809  0.0631
81378W        W24316   9.095  15.876   1.364 -0.0191  0.2817  0.0280
81379W        W24317  10.369  15.661   2.351  0.1100 -0.0063  0.1502
81380W        W24318  10.955  16.768   2.416  0.2560 -0.1013 -0.1460
81381W        W24319   9.295  16.540   3.454 -0.2001  0.2491  0.0269
81382W        W24320   8.268  14.963   4.683 -0.0263 -0.0642 -0.1947
81383W        W24321   9.989  17.685   2.255 -0.0092  0.2629  0.2920
81384W        W24322  10.514  15.572  31.394 -0.2017 -0.0999 -0.1106
81385W        W24323   9.991  15.255   1.918  0.0189 -0.0084 -0.3844
81386W        W24324  10.749  14.016   1.137 -0.0999  0.0407 -0.0028
81387W        W24325  10.489  16.120  30.992 -0.2063 -0.0859 -0.2059
81388W        W24326   8.197  16.187   1.595  0.0293 -0.1973 -0.0020
81389W        W24327   9.913  16.133   3.162 -0.0223 -0.0408 -0.0649
81390W        W24328   8.754  14.559   1.408 -0.1970 -0.3160  0.1839
81391W        W24329  10.253  14.261   2.995  0.0549 -0.2423  0.0562
81392W        W24330  10.359  16.493   0.144 -0.0540 -0.0182 -0.2236
81393W        W24331  10.223  17.550   0.263  0.0117 -0.0914  0.2304
81394W        W24332   9.708  14.728   1.374  0.1621  0.1116 -0.4346
81395W        W24333   8.413  15.307   1.681  0.2217  0.2084  0.1559
81396W        W24334   8.444  17.192   2.499 -0.3491  0.0329  0.0420
81397W        W24335   7.700  15.188   0.613 -0.2134 -0.0087  0.0917
81398W        W24336   9.023  16.690  31.946 -0.1584 -0.0163  0.0144
81399W        W24337   9.370  17.073   2.236 -0.1670  0.1607 -0.2613
81400W        W24338  11.172  16.660   3.777  0.0140  0.0903  0.0346
81401W        W24339   9.286  13.841   1.126 -0.0746  0.0300 -0.0611
81402W        W24340  10.139  15.824   4.008  0.2756  0.0724 -0.0916
81403W        W24341   8.204  17.516   0.013 -0.3384  0.6011  0.0400
81404W        W24342   7.749  15.391   1.240 -0.1323 -0.0810  0.3406
81405W        W24343   8.730  16.334   0.166 -0.2683  0.1484  0.0596
81406W        W24344   8.637  17.754   3.174  0.1892  0.1408  0.0302
81407W        W24345   8.534  15.763   1.348 -0.0991 -0.2684 -0.0541
81408W        W24346   9.983  14.767   1.797  0.0256 -0.0638  0.2212
81409W        W24347  10.691  16.165   1.683  0.0150  0.4660 -0.4691
81410W        W24348   8.293  15.380   1.177  0.3595 -0.2808 -0.2385
81411W        W24349   9.854  16.621   3.246 -0.1161 -0.2018 -0.3226
81412W        W24350   7.972  15.993   2.121 -0.0252  0.0555  0.0710
81413W        W24351   9.341  15.904   1.890  0.1570  0.0175 -0.0463
81414W        W24352   8.834  17.022   1.290  0.1475 -0.0193  0.0775
81415W        W24353   9.670  16.032  31.862  0.1918  0.1110  0.2530
81416W        W24354   9.343  16.851   1.777 -0.1235  0.1977  0.1264
81417W        W24355   8.586  15.683   3.662  0.1171 -0.1376  0.1036
81418W        W24356   9.580  15.668   2.717  0.0178  0.0271 -0.1150
81419W        W24357   9.865  17.068   1.005  0.1007 -0.1312 -0.1065
81420W        W24358   7.381  14.449   1.142 -0.0385  0.2266 -0.2024
81421W        W24359   9.634  18.121  31.845 -0.0841  0.1649 -0.2485
81422W        W24360   8.653  19.144   3.065 -0.0330 -0.1362  0.1866
81423W        W24361   8.236  15.290   2.893 -0.0254  0.0925 -0.2555
81424W        W24362   8.885  19.178   0.480 -0.0935 -0.0361  0.0330
81425W        W24363  10.834  16.565   0.172  0.1851  0.1490 -0.0829
81426W        W24364  10.617  16.588  30.954 -0.0482 -0.1257  0.3323
81427W        W24365  10.699  16.914   0.595  0.0982 -0.1715  0.1408
81428W        W24366   8.629  14.955   0.199 -0.1926 -0.0461 -0.0057
81429W        W24367   9.897  17.552   1.148  0.2560 -0.0740 -0.1802
81430W        W24368   8.430  18.394  31.025  0.0021  0.0461  0.1257
81431W        W24369  10.071  18.589   1.657  0.2717  0.3164  0.1740
81432W        W24370   8.190  16.866   0.758  0.1220  0.0349 -0.3644
81433W        W24371   9.669  17.444   3.622 -0.1429  0.0046  0.0985
81434W        W24372  10.728  16.165  31.917 -0.1945  0.0660  0.1351
81435W        W24373   9.890  15.900   0.363 -0.3366 -0.2804 -0.1428
81436W        W24374  11.497  14.149  31.776 -0.4601  0.0583  0.0720
81437W        W24375  10.565  17.453   4.724 -0.0327 -0.0892 -0.1063
81438W        W24376  10.004  17.177  31.837  0.0565  0.2897 -0.0012
81439W        W24377   8.010  12.893  31.516  0.2321  0.3572  0.0742
81440W        W24378   8.544  16.644   5.042 -0.0037  0.1921 -0.1297
81441W        W24379   9.347  14.511   2.815 -0.1298  0.1533 -0.2680
81442W        W24380   7.527  18.551   1.463 -0.2574  0.2104  0.3490
81443W        W24381  10.727  17.454   1.749  0.0355 -0.0581  0.4047
81444W        W24382   7.229  14.979   0.560 -0.2693  0.0280 -0.0661
81445W        W24383   9.235  15.957   0.902 -0.0801  0.2452  0.1058
81446W        W24384  10.917  15.202   1.649  0.2855 -0.0211 -0.1371
81447W        W24385   9.745  17.577   0.025  0.0190 -0.0779 -0.0182
81448W        W24386   8.393  15.793   1.867 -0.1783  0.2972  0.0125
81449W        W24387   9.753  17.167   1.935 -0.0755  0.2976 -0.0806
81450W        W24388   6.844  17.346   2.341 -0.4028 -0.2358  0.3006
81451W        W24389  10.495  16.645   2.310 -0.1471 -0.3160  0.0289
81452W        W24390   6.612  14.227   0.238 -0.2397 -0.2092 -0.0671
81453W        W24391  10.515  15.574   0.028 -0.1677 -0.2833 -0.0081
81454W        W24392   8.771  15.769   2.997 -0.2543 -0.0499 -0.1090
81455W        W24393   9.886  14.118   3.303 -0.0585  0.1213 -0.2191
81456W        W24394   8.684  16.149   1.075 -0.2142 -0.0882 -0.1692
81457W        W24395   9.950  14.766  31.258 -0.0647  0.1458  0.1609
81458W        W24396  11.253  16.007   1.655  0.3150  0.0029  0.3113
81459W        W24397   8.068  14.795   3.000 -0.2587  0.4121  0.1061
81460W        W24398   8.762  15.800   0.152 -0.1373  0.3153 -0.0367
81461W        W24399  10.791  17.291   3.278 -0.0265 -0.1707 -0.1136
81462W        W24400  11.011  16.738  31.232  0.0935 -0.0034 -0.0200
81463W        W24401  10.639  18.749   3.580 -0.1552  0.1291  0.0455
81464W        W24402   8.270  14.996   2.011  0.0412 -0.0358 -0.2484
81465W        W24403  10.639  13.806  31.000  0.0588 -0.0424 -0.1260
81466W        W24404   6.611  17.033  31.265 -0.3212 -0.1808 -0.2276
81467W        W24405   8.863  16.729   3.626 -0.1000  0.2086 -0.0166
81468W        W24406   9.842  17.738   3.248  0.1113 -0.0838 -0.3077
81469W        W24407   8.784  15.351   2.794 -0.1176  0.1186 -0.1965
81470W        W24408  10.916  17.078   0.078 -0.0571  0.1425  0.4031
81471W        W24409  10.626  16.674   1.749 -0.1733  0.1387  0.1253
81472W        W24410   9.488  17.576   0.825  0.0282 -0.0734 -0.2754
81473W        W24411  10.441  15.617   0.776  0.1604 -0.0975  0.3538
81474W        W24412  12.244  17.757   2.139  0.0716  0.0468 -0.0792
81475W        W24413   6.996  15.433   3.688  0.2051 -0.1832  0.2310
81476W        W24414  10.494  16.112   0.883  0.0812  0.0782 -0.1775
81477W        W24415  12.299  17.156   1.184 -0.3064 -0.0712  0.1644
81478W        W24416   9.240  15.302  31.660 -0.0233 -0.0927  0.0230
81479W        W24417   8.185  16.343   0.045 -0.1637 -0.1501  0.0238
81480W        W24418   7.681  17.368  31.802  0.0847 -0.3350 -0.0149
81481W        W24419  10.598  14.547   1.164 -0.1303 -0.0114 -0.1078
81482W        W24420  10.285  15.413   2.788  0.2227 -0.0122  0.1414
81483W        W24421   9.669  19.139   1.086 -0.0302  0.0824  0.1470
81484W        W24422  10.099  14.418   2.571 -0.3590  0.1915  0.0832
81485W        W24423   8.882  18.396   3.662 -0.2315 -0.0653 -0.1084
81486W        W24424   7.915  17.439   2.317  0.3738 -0.1245  0.2187
81487W        W24425   7.999  15.980  31.680 -0.3453 -0.0981 -0.2303
81488W        W24426   9.939  16.313   2.295  0.1861  0.0771 -0.0345
81489W        W24427   9.573  15.206  30.998 -0.2472 -0.3300 -0.3900
81490W        W24428   9.930  17.166   0.352 -0.0273  0.1361 -0.0441
81491W        W24429  11.491  17.281   1.839  0.1353  0.0576 -0.2360
81492W        W24430   9.568  16.070   1.266  0.0750  0.1876 -0.1603
81493W        W24431  12.187  18.609   2.529  0.0993 -0.0041  0.1555
81494W        W24432   7.427  15.208   1.655 -0.0985 -0.2067  0.1835
81495W        W24433  10.684  15.064   1.011 -0.1512  0.2878  0.1718
81496W        W24434   9.397  13.343   1.251  0.0724 -0.0586 -0.0612
81497W        W24435   9.416  15.248   3.956 -0.0151  0.0572 -0.1642
81498W        W24436   7.209  14.018   0.400 -0.0727 -0.3380 -0.0119
81499W        W24437   9.462  17.800   0.341 -0.1177  0.0831  0.0102
81500W        W24438   8.389  15.746   0.851 -0.0692  0.0125 -0.1629
81501W        W24439  10.560  15.474   3.593 -0.1368 -0.3459  0.0927
81502W        W24440   8.297  15.750   3.231  0.3664 -0.1678 -0.0441
81503W        W24441   8.104  16.175   1.065  0.2234 -0.0176 -0.1687
81504W        W24442   7.701  16.484   1.225  0.1965 -0.0764 -0.1369
81505W        W24443  11.361  16.788  31.951  0.0314 -0.2073 -0.0483
81506W        W24444   7.945  15.452   1.700  0.0833 -0.0264 -0.0313
81507W        W24445   7.991  14.979   1.593 -0.5549 -0.0679  0.0596
81508W        W24446  11.178  17.538   0.133  0.3260 -0.0589  0.0789
81509W        W24447  10.730  17.386   0.457 -0.0763 -0.1619  0.0770
81510W        W24448   8.276  15.331  31.907 -0.2208 -0.3427  0.2393
81511W        W24449  10.500  17.855   3.924 -0.0852 -0.1146 -0.0714
81512W        W24450   7.762  16.748  30.757 -0.0391  0.2192  0.2237
81513W        W24451   7.021  14.898   5.715 -0.1386 -0.1758 -0.1569
81514W        W24452   9.668  15.671   3.994  0.1922 -0.3675  0.1179
81515W        W24453   6.618  15.513  31.882  0.0130  0.1246  0.2795
81516W        W24454   8.947  16.056   3.436  0.2322  0.1749 -0.0354
81517W        W24455  11.809  17.418   0.833  0.0198 -0.1864 -0.1062
81518W        W24456  10.418  17.818   0.703  0.0288 -0.0135  0.0721
81519W        W24457   8.971  16.938   2.681 -0.0557  0.2508  0.4173
81520W        W24458  10.463  17.852   1.502  0.0014 -0.0176 -0.0092
81521W        W24459   8.522  14.896   3.036 -0.3440 -0.3852  0.1676
81522W        W24460  10.967  16.870   1.048 -0.1253 -0.0090  0.1977
81523W        W24461   8.849  17.894   2.217  0.2753  0.1140 -0.0454
81524W        W24462  11.803  16.638  31.781  0.2323  0.2325 -0.0670
81525W        W24463  10.233  14.692   0.729  0.0662  0.1729 -0.0444
81526W        W24464   9.200  16.455   0.610 -0.0956  0.0421  0.3052
81527W        W24465   6.648  15.859   4.889  0.0694  0.0555 -0.3857
81528W        W24466   9.476  17.054   2.728 -0.1907  0.0399 -0.0873
81529W        W24467  11.032  16.435   1.425  0.0013  0.0247  0.3141
81530W        W24468   7.676  14.313   2.548 -0.1101  0.3163  0.0397
81531W        W24469  10.016  14.638   0.211  0.0846  0.0143 -0.1660
81532W        W24470  11.151  16.945  30.792 -0.2233  0.0759 -0.1047
81533W        W24471   7.723  16.997   2.071 -0.1807  0.0153  0.0987
81534W        W24472   8.975  14.846   1.059 -0.4393  0.0915 -0.0339
81535W        W24473   9.985  16.226   3.757  0.1384 -0.2263 -0.1375
81536W        W24474   8.751  16.739   0.903  0.1308 -0.1666 -0.0625
81537W        W24475   9.564  17.060   3.316 -0.0991 -0.1725  0.0772
81538W        W24476   7.355  15.139   1.007 -0.2314 -0.2047 -0.0547
81539W        W24477  11.214  16.229  31.893  0.1631  0.0932 -0.0016
81540W        W24478   9.197  18.584   3.001  0.0511  0.1853  0.2044
81541W        W24479  10.210  17.420   3.002 -0.3115 -0.1319  0.0979
81542W        W24480  10.076  17.127   3.443 -0.2123  0.0611  0.1399
81543W        W24481  11.007  17.140   2.102 -0.0085 -0.0366 -0.2556
81544W        W24482   8.736  14.965   1.790  0.4188 -0.1794  0.0654
81545W        W24483   9.510  16.786   0.864 -0.0092 -0.0621 -0.1643
81546W        W24484   8.543  16.555   1.380  0.0287  0.1987 -0.0963
81547W        W24485  10.258  16.627   3.584  0.2622  0.0084  0.0347
81548W        W24486   7.727  16.069   3.463 -0.0232  0.1392 -0.2635
81549W        W24487   9.292  14.653   0.207  0.1804 -0.2236  0.1198
81550W        W24488  10.435  17.608   2.557 -0.2167 -0.2619 -0.1913
81551W        W24489   9.517  15.057   1.930 -0.1763 -0.0469 -0.0571
81552W        W24490   7.116  17.352   6.470  0.1867  0.2376 -0.0384
81553W        W24491   8.296  15.856   4.547 -0.2132 -0.1121 -0.3219
81554W        W24492   9.918  15.572   3.053  0.0966 -0.0435  0.0576
81555W        W24493  10.715  16.951   4.847 -0.3584  0.0646 -0.0880
81556W        W24494   6.667  14.960   2.903  0.0078 -0.0242  0.0955
81557W        W24495   9.815  17.766   5.443  0.2596 -0.1396  0.1433
81558W        W24496   9.001  13.759   5.980  0.0610  0.4936 -0.0003
81559W        W24497   9.663  17.970   6.609  0.0772 -0.1031 -0.2713
81560W        W24498  10.802  17.912   5.945 -0.2513  0.2027  0.1875
81561W        W24499   9.585  15.165   4.497 -0.0552 -0.0222  0.0616
81562W        W24500  10.070  15.222   7.331  0.0910  0.0319 -0.1393
81563W        W24501   8.046  17.366   4.111  0.0167 -0.2072  0.1235
81564W        W24502   8.338  15.187   4.217  0.0733  0.0465 -0.2293
81565W        W24503   6.241  13.587   6.826  0.4891  0.1128  0.2081
81566W        W24504  10.010  15.182   6.578 -0.2580 -0.4572 -0.0107
81567W        W24505   7.753  15.676   5.030 -0.1133 -0.1616  0.1017
81568W        W24506   9.197  14.945   5.641 -0.4283  0.2842 -0.1359
81569W        W24507   6.235  14.930   6.277 -0.1710 -0.0419  0.0892
81570W        W24508   9.447  18.615   5.573 -0.1536 -0.2731  0.1355
81571W        W24509   6.950  14.049   5.661  0.0991  0.1202 -0.1658
81572W        W24510   9.655  13.993   5.609  0.2540  0.1800  0.1856
81573W        W24511  10.021  17.839   4.821  0.2090 -0.1306  0.0529
81574W        W24512   9.210  16.778   3.947  0.0711 -0.2071  0.2912
81575W        W24513   7.063  14.459   5.409 -0.0089 -0.1708  0.0392
81576W        W24514   8.697  17.130   6.329 -0.2370 -0.2021 -0.1923
81577W        W24515  11.311  14.889   6.240 -0.0641 -0.4089  0.1119
81578W        W24516  10.633  15.663   6.569  0.1639  0.0275  0.1209
81579W        W24517  10.017  18.844   4.840 -0.1794  0.1460 -0.1853
81580W        W24518   7.984  17.899   6.037 -0.1642 -0.1791 -0.3940
81581W        W24519  11.364  14.958   7.977  0.1471  0.1923 -0.2124
81582W        W24520   7.745  14.896   4.821 -0.1046 -0.0746 -0.1632
81583W        W24521   7.934  16.978   4.444 -0.1065  0.3198  0.1236
81584W        W24522   9.219  18.188   3.962  0.0950  0.1355 -0.1214
81585W        W24523  10.380  18.088   6.214 -0.0717  0.0001 -0.0184
81586W        W24524  10.630  18.953   7.041  0.0515 -0.0402  0.3643
81587W        W24525   9.078  18.704   6.364 -0.2988  0.1420  0.0746
81588W        W24526   7.690  17.358   3.344  0.1482  0.2725  0.0372
81589W        W24527   9.944  18.317   5.716 -0.0875 -0.3644 -0.2451
81590W        W24528   8.912  18.201   6.317 -0.0165  0.2258  0.3184
81591W        W24529   9.787  17.964   6.018 -0.1568  0.0678  0.2840
81592W        W24530   8.924  15.749   5.114  0.0666 -0.1951  0.1115
81593W        W24531   9.292  16.607   2.406 -0.3881 -0.0344 -0.0035
81594W        W24532   8.834  17.299   6.917  0.3039 -0.0401  0.1953
81595W        W24533   8.793  17.992   6.778 -0.0759 -0.1836 -0.4175
81596W        W24534   8.369  16.905   5.466 -0.1103  0.1595  0.1244
81597W        W24535  11.009  15.495   7.596  0.0228  0.1862 -0.2697
81598W        W24536   9.410  18.469   3.406 -0.0774 -0.0223 -0.0835
81599W        W24537  10.321  16.980   4.501  0.0118 -0.0801 -0.2689
81600W        W24538   9.299  17.187   4.645  0.1755 -0.0954 -0.1301
81601W        W24539  10.077  15.305   3.675  0.1273  0.3561  0.0843
81602W        W24540   7.794  15.260   5.833  0.1517 -0.1486  0.1859
81603W        W24541   9.172  18.263   5.275  0.2718 -0.4055  0.1418
81604W        W24542  10.170  14.029   5.569  0.2713 -0.0421 -0.0695
81605W        W24543  10.712  16.038   7.714 -0.2199 -0.0488 -0.1319
81606W        W24544   9.507  16.733   4.390 -0.1184 -0.3460  0.0532
81607W        W24545   9.555  15.927   8.067 -0.1565 -0.0640  0.1603
81608W        W24546   8.428  17.241   5.824 -0.0321 -0.1585  0.1657
81609W        W24547   7.466  15.956   5.401 -0.1688  0.0247 -0.1460
81610W        W24548  10.260  17.457   4.356 -0.1017  0.0612 -0.1547
81611W        W24549   9.609  17.500   4.986  0.2802  0.0417 -0.2740
81612W        W24550  10.101  17.317   4.903  0.0170  0.1687 -0.0416
81613W        W24551   7.448  16.517   5.276  0.2380  0.0687 -0.1572
81614W        W24552   8.106  17.390   8.036  0.1584  0.0828 -0.1768
81615W        W24553   9.652  16.313   6.135 -0.2973  0.0139  0.0768
81616W        W24554   8.627  15.377   3.276  0.1490 -0.0598  0.1750
81617W        W24555  10.712  18.295   7.052 -0.1193 -0.1544 -0.1835
81618W        W24556   8.181  17.294   7.183 -0.1556  0.3522 -0.0142
81619W        W24557  10.668  14.315   4.522 -0.1613 -0.2085 -0.0464
81620W        W24558   7.531  17.772   6.881  0.1092  0.1037 -0.0025
81621W        W24559  10.299  16.557   5.900 -0.0372  0.3643 -0.1035
81622W        W24560  10.286  16.296   4.117  0.0224  0.0585 -0.2249
81623W        W24561   9.454  14.606   6.120 -0.1519  0.1565  0.2895
81624W        W24562  10.895  14.872   6.696  0.0723 -0.1374  0.2505
81625W        W24563   8.931  16.207   2.635  0.2635  0.2933 -0.1601
81626W        W24564   8.966  16.702   5.446  0.0535  0.1718 -0.3377
81627W        W24565  10.582  17.855   7.242  0.0665  0.1061  0.1158
81628W        W24566  10.621  15.945   4.142  0.1440  0.2921  0.0757
81629W        W24567   8.607  18.215   5.555  0.1017  0.0339 -0.0333
81630W        W24568   8.327  15.818   6.352 -0.1492  0.4390  0.3897
81631W        W24569  11.009  18.072   7.508  0.1965  0.1221  0.1602
81632W        W24570   8.754  17.428   3.473  0.2413  0.0089  0.0586
81633W        W24571   8.105  17.434   4.620  0.1428  0.1267  0.3204
81634W        W24572   8.425  16.913   4.365  0.2419  0.0194  0.3573
81635W        W24573   7.164  14.571   7.853  0.2317 -0.0491 -0.0707
81636W        W24574   8.117  16.826   6.492  0.2805 -0.2165  0.0487
81637W        W24575  10.534  14.191   3.516 -0.0285 -0.1415 -0.0557
81638W        W24576   7.227  15.133   6.532  0.1636 -0.0228 -0.1909
81639W        W24577  11.336  14.668   3.870  0.2107  0.0219 -0.2868
81640W        W24578   8.597  17.398   4.455  0.2489 -0.0952  0.2641
81641W        W24579  11.599  16.604   4.379 -0.2616 -0.2863 -0.0669
81642W        W24580  10.888  16.052   4.790  0.0576  0.1392 -0.0339
81643W        W24581  10.414  17.678   3.374 -0.3338  0.0856 -0.1934
81644W        W24582   8.471  14.258   6.922 -0.1212  0.0762 -0.0504
81645W        W24583   6.608  14.272   5.254  0.0505  0.0161  0.1429
81646W        W24584   8.500  14.856   6.780 -0.0859 -0.1693  0.0834
81647W        W24585   7.721  15.005   5.294 -0.0354 -0.1426 -0.0300
81648W        W24586  11.390  16.268   9.178  0.3313 -0.1320  0.1564
81649W        W24587   7.115  15.213   4.282  0.3528  0.0271  0.0659
81650W        W24588   9.496  13.597   5.811  0.5339  0.1564  0.0477
81651W        W24589   9.093  15.182   5.243  0.2752  0.1104  0.1417
81652W        W24590   8.319  16.290   4.295  0.1677 -0.0793 -0.3161
81653W        W24591   9.687  13.482   7.410 -0.1155 -0.0305 -0.2617
81654W        W24592   9.931  16.739   6.246  0.0472 -0.0149 -0.0147
81655W        W24593  10.157  19.242   8.334  0.1330 -0.0204  0.1808
81656W        W24594   9.522  17.020   6.414  0.2889  0.1631 -0.0258
81657W        W24595   7.249  16.682   6.896  0.0175  0.0482  0.1452
81658W        W24596   8.429  14.681   4.245 -0.0224  0.2763 -0.0848
81659W        W24597   7.787  17.069   3.792  0.0732 -0.1094 -0.2452
81660W        W24598   9.063  17.527   4.203 -0.0214 -0.0051 -0.0230
81661W        W24599   8.219  15.663   5.758  0.0307  0.2711  0.0122
81662W        W24600  11.577  18.440   5.860  0.2962 -0.0547  0.1433
81663W        W24601   9.923  18.350   6.438  0.0063  0.0409  0.0539
81664W        W24602   7.832  17.251   6.243 -0.0625 -0.3134 -0.1456
81665W        W24603  10.993  13.874   7.432  0.3570  0.0707 -0.1755
81666W        W24604  10.777  17.908   5.423  0.1408 -0.1075 -0.1028
81667W        W24605   8.723  15.429   5.494 -0.2543 -0.0278 -0.0248
81668W        W24606   6.905  13.766   3.195  0.2109 -0.0761  0.0001
81669W        W24607   9.978  18.831   5.647  0.0294  0.1404  0.0426
81670W        W24608   8.679  19.286   4.268 -0.0516  0.1573  0.0097
81671W        W24609   8.702  16.569   4.596  0.0589 -0.0249  0.0397
81672W        W24610   8.872  17.458   4.980 -0.1043  0.1698 -0.1982
81673W        W24611   9.377  14.253   5.310 -0.0992  0.2886 -0.0782
81674W        W24612   8.512  17.558   6.694  0.1120 -0.1582 -0.0074
81675W        W24613   9.355  15.527   7.674 -0.4414  0.1264 -0.1040
81676W        W24614   9.542  15.008   5.064 -0.2947  0.0151  0.0304
81677W        W24615   8.354  16.393   5.532 -0.0181 -0.1651 -0.1951
81678W        W24616  10.123  14.855   3.996 -0.0355 -0.0803  0.1573
81679W        W24617  11.478  15.012   3.391 -0.2140 -0.0592 -0.1967
81680W        W24618  10.839  16.898   7.420 -0.1294 -0.0432 -0.2208
81681W        W24619   9.806  16.392   5.165  0.2399 -0.0515 -0.0109
81682W        W24620   9.977  15.778   3.521 -0.2040  0.1135  0.0415
81683W        W24621   9.400  15.572   5.222  0.3454  0.0251  0.0108
81684W        W24622   7.938  17.820   6.559  0.0711  0.1530 -0.1921
81685W        W24623   8.348  16.181   4.909 -0.1458  0.1113  0.0876
81686W        W24624   9.389  16.354   5.669 -0.1857 -0.0263  0.0619
81687W        W24625  11.118  15.599   4.930  0.1400 -0.0448 -0.1108
81688W        W24626   9.878  17.009   5.184 -0.1209  0.1215  0.1594
81689W        W24627   7.091  17.788   6.668 -0.1676 -0.0425  0.0809
81690W        W24628  10.423  17.311   7.353 -0.0883 -0.2855 -0.1236
81691W        W24629  10.447  18.331   5.597 -0.0888  0.1667 -0.3158
81692W        W24630   9.116  14.708   5.214 -0.0899 -0.4356 -0.0530
81693W        W24631   9.860  15.834   4.977 -0.1570  0.0627  0.1610
81694W        W24632   8.121  14.574   6.565 -0.0332 -0.1808  0.4236
81695W        W24633   8.110  17.589   3.144  0.0050 -0.0160 -0.1216
81696W        W24634  10.531  16.503   7.633 -0.0534  0.1073 -0.0719
81697W        W24635   9.949  16.557   7.233  0.2985  0.2100 -0.1526
81698W        W24636   8.532  14.284   4.714 -0.0549 -0.0313  0.4455
81699W        W24637  10.746  17.164   6.522  0.0065  0.1996 -0.0183
81700W        W24638  10.974  15.559   3.992  0.1289 -0.0657  0.0183
81701W        W24639   9.293  16.236   5.097 -0.0608 -0.3705  0.2637
81702W        W24640   9.558  16.003   3.596 -0.0853 -0.3472 -0.0316
81703W        W24641   9.476  14.716   7.050 -0.0653  0.3422 -0.2330
81704W        W24642   7.515  16.965   6.549 -0.0095 -0.1870  0.2701
81705W        W24643   7.974  17.748   7.076  0.2848  0.0169 -0.2070
81706W        W24644   9.660  15.530   6.337 -0.0085 -0.1935 -0.0438
81707W        W24645   9.206  17.094   5.146  0.1547  0.2853  0.1462
81708W        W24646  10.565  14.628   7.861 -0.0983  0.1379  0.0429
81709W        W24647   8.634  14.751   4.988  0.5443  0.1255  0.1949
81710W        W24648   9.509  17.192   4.136  0.3490  0.2172  0.0285
81711W        W24649   9.068  17.037   3.255  0.0039 -0.3181 -0.4247
81712W        W24650   8.847  14.594   5.938 -0.0760 -0.0575  0.1826
81713W        W24651  10.232  17.881   5.767  0.0418  0.1767  0.0192
81714W        W24652   8.915  17.899   3.634 -0.2977  0.1062 -0.0619
81715W        W24653  10.057  17.991   7.010  0.1950 -0.0157 -0.1342
81716W        W24654   8.758  18.554   4.381  0.1768 -0.1691 -0.1554
81717W        W24655  10.304  14.369   6.598 -0.0398  0.0538 -0.2494
81718W        W24656   8.284  17.018   4.920 -0.1233 -0.2195 -0.0016
81719W        W24657   8.545  15.922   5.570  0.1317 -0.0573  0.1557
81720W        W24658   7.832  16.236   5.069 -0.1849  0.0489  0.0161
81721W        W24659  12.123  14.401   4.618  0.1983  0.1882  0.0863
81722W        W24660   9.842  16.615   5.686 -0.0407 -0.0085  0.2283
81723W        W24661   7.180  14.431   5.917  0.1752 -0.0811 -0.0899
81724W        W24662   9.047  15.908   5.557 -0.0225 -0.1262 -0.2752
81725W        W24663   8.192  16.629   4.709  0.3647 -0.0915 -0.0513
81726W        W24664   9.610  16.432   7.973 -0.2324  0.0152  0.4196
81727W        W24665  10.933  14.480   3.574 -0.2993 -0.1984 -0.1054
81728W        W24666  10.728  19.276   5.624 -0.0908  0.1902  0.2221
81729W        W24667   9.548  17.491   6.384  0.1265  0.0152 -0.0967
81730W        W24668   7.038  14.862   2.571 -0.1609  0.1520  0.2129
81731W        W24669  12.218  15.838   5.801 -0.1339 -0.2869  0.0041
81732W        W24670   8.706  15.676   5.977 -0.1344 -0.2596 -0.0868
81733W        W24671   7.134  17.706   4.169 -0.1928 -0.1866 -0.2431
81734W        W24672  10.852  17.346   7.810  0.1274  0.2873  0.0531
81735W        W24673   8.853  16.106   4.782 -0.1127  0.2556 -0.3365
81736W        W24674   8.638  17.958   4.502  0.0958  0.3565  0.0702
81737W        W24675   9.088  15.275   7.390 -0.0506 -0.1852  0.3708
81738W        W24676  10.278  16.096   7.490 -0.2224  0.1154  0.1256
81739W        W24677   8.834  15.847   6.538 -0.4074 -0.1907 -0.0666
81740W        W24678   8.789  15.143   5.922 -0.2673 -0.0996  0.0343
81741W        W24679  10.588  15.982   7.072 -0.2312 -0.1780 -0.2165
81742W        W24680  11.906  16.629   5.484  0.4214  0.1848  0.0434
81743W        W24681  10.423  16.418   6.930 -0.1819  0.1393 -0.0990
81744W        W24682   8.982  18.459   6.809 -0.1071 -0.3588  0.1768
81745W        W24683   8.677  14.904   5.511 -0.2913 -0.0110 -0.0110
81746W        W24684  10.257  18.678   3.931 -0.2909  0.1976  0.0048
81747W        W24685  10.318  16.712   8.162  0.0169  0.1251  0.1091
81748W        W24686   8.308  15.881   4.003 -0.0250  0.1108 -0.1983
81749W        W24687   6.751  15.252   5.319  0.0667  0.0251  0.0781
81750W        W24688   8.535  17.687   3.916 -0.0214 -0.1624  0.1843
81751W        W24689   8.501  15.284   4.938  0.2063  0.2633 -0.0742
81752W        W24690   8.215  18.179   5.223 -0.1465 -0.1214 -0.4199
81753W        W24691   9.908  17.732   2.750 -0.0172  0.2770 -0.1703
81754W        W24692   8.613  18.605   6.502  0.1837  0.2658  0.0883
81755W        W24693  11.292  14.403   4.639  0.0334  0.1605 -0.0293
81756W        W24694   9.750  15.720   4.482 -0.0336 -0.0883  0.3331
81757W        W24695   8.108  15.374   5.311 -0.0162 -0.2296  0.1104
81758W        W24696  10.956  14.784   7.183  0.2083 -0.1295 -0.0073
81759W        W24697   8.780  16.313   5.738 -0.1335  0.0745  0.2572
81760W        W24698  11.409  14.752   7.480  0.0061  0.1531  0.1399
81761W        W24699   7.758  14.470   7.575 -0.6050  0.1301  0.0852
81762W        W24700   9.120  17.258   6.149 -0.1332  0.0308 -0.0715
81763W        W24701   7.765  16.925   7.010 -0.3385  0.0752 -0.1897
81764W        W24702  11.744  17.592   6.159 -0.1093  0.3799  0.0423
81765W        W24703   8.295  18.109   6.825  0.0402  0.0707 -0.0841
81766W        W24704   6.863  15.436   5.790  0.0620 -0.0171 -0.2817
81767W        W24705   9.274  15.205   2.698 -0.2899 -0.0050 -0.1558
81768W        W24706   7.192  17.038   6.058  0.2126 -0.4051 -0.4899
81769W        W24707  10.824  17.356   6.042  0.0856 -0.2586  0.0991
81770W        W24708   9.221  17.752   4.626  0.0319 -0.0042  0.1248
81771W        W24709  10.437  16.002   6.072  0.0467  0.0728  0.0660
81772W        W24710   7.959  17.329   6.754  0.0451 -0.0450 -0.1534
81773W        W24711  10.047  16.129   4.548 -0.0860  0.3217 -0.1370
81774W        W24712  10.204  16.144   5.400 -0.0360  0.0301  0.0592
81775W        W24713   8.426  17.685   4.959  0.1576 -0.0254  0.1377
81776W        W24714   8.041  14.894   6.172 -0.2454  0.4227  0.1870
81777W        W24715   9.332  15.156   6.073 -0.4059 -0.2935 -0.2109
81778W        W24716   9.715  13.848   4.665 -0.1428 -0.1401 -0.1472
81779W        W24717  10.919  14.046   7.901  0.1663  0.1189  0.0675
81780W        W24718  12.332  16.139   7.517 -0.0496  0.0001  0.4546
81781W        W24719   9.171  16.296   8.256 -0.1178 -0.0402 -0.2861
81782W        W24720   8.453  16.038   6.782  0.1322 -0.0913 -0.0298
81783W        W24721  10.841  20.026   6.459 -0.1731 -0.2938  0.0962
81784W        W24722  11.075  16.185   3.835 -0.1329 -0.1831 -0.1212
81785W        W24723  12.397  15.858   7.944 -0.1125 -0.0545 -0.1875
81786W        W24724  10.640  16.246   5.637  0.0429  0.1925  0.0031
81787W        W24725  10.502  15.268   4.066 -0.1009  0.0813 -0.0465
81788W        W24726   9.178  15.516   5.752  0.2248  0.1013  0.0439
81789W        W24727  10.039  15.768   7.893  0.0271 -0.0515 -0.2407
81790W        W24728   6.938  15.769   4.137  0.0306 -0.0449 -0.0013
81791W        W24729  10.576  15.935   8.217  0.0141  0.0962 -0.0191
81792W        W24730   9.537  17.727   4.034  0.0623 -0.0894  0.2285
81793W        W24731  10.806  17.315   7.013  0.0495  0.1964  0.2242
81794W        W24732   9.508  16.804   5.985  0.0827 -0.0684  0.1006
81795W        W24733   8.028  14.492   4.932 -0.0643 -0.0554  0.4518
81796W        W24734   7.459  19.603   6.651  0.0500 -0.1592  0.1920
81797W        W24735   9.219  15.496   4.349  0.1208 -0.0066  0.1868
81798W        W24736   8.683  16.558   4.103  0.2317 -0.0002  0.2374
81799W        W24737  10.267  18.573   5.170  0.0804 -0.1786 -0.0788
81800W        W24738  11.247  17.553   6.422 -0.0472 -0.0893  0.2177
81801W        W24739   8.981  15.287   3.612  0.0151  0.2504 -0.1025
81802W        W24740  11.127  17.528   7.349  0.3595 -0.2304 -0.1205
81803W        W24741   6.527  17.756   4.120 -0.0428 -0.2046  0.2817
81804W        W24742  10.884  15.171   4.850 -0.1901  0.2298 -0.2457
81805W        W24743   9.460  18.346   6.102 -0.0770 -0.0757 -0.2064
81806W        W24744   8.246  17.496   6.209  0.0775 -0.3367  0.1885
81807W        W24745   8.710  17.715   5.421 -0.1207  0.4027  0.0086
81808W        W24746   9.446  15.837   5.951 -0.0550 -0.3423  0.1121
81809W        W24747   9.908  15.669   5.831 -0.3067  0.4022  0.1551
81810W        W24748   9.291  17.200   6.854 -0.0635  0.0839  0.0185
81811W        W24749  11.450  15.581   6.765 -0.0500  0.2110  0.5650
81812W        W24750   9.939  16.627   6.747 -0.0946 -0.0393  0.0873
81813W        W24751   8.596  15.165   7.197 -0.0010  0.0477 -0.2378
81814W        W24752  10.430  18.009   6.723 -0.0230  0.0036  0.5180
81815W        W24753  10.806  15.063   6.243  0.2215  0.2299  0.0786
81816W        W24754   8.466  17.798   5.901 -0.0474  0.2219  0.0808
81817W        W24755   6.794  16.032   7.125  0.0112 -0.2132  0.0430
81818W        W24756   9.065  16.758   6.229  0.0750  0.0142  0.2901
81819W        W24757   9.095  16.172   6.099 -0.3034  0.3008 -0.1085
81820W        W24758   9.816  14.556   5.496 -0.0074 -0.3693  0.3075
81821W        W24759   8.977  16.923   4.390 -0.1199 -0.0063 -0.1420
81822W        W24760   7.476  18.001   8.218 -0.0005  0.0321 -0.1904
81823W        W24761   7.652  16.486   6.661  0.0169 -0.2700  0.0780
81824W        W24762   8.183  17.807   4.196  0.1632  0.0882 -0.1867
81825W        W24763  10.449  17.063   5.794  0.2210  0.1347 -0.2108
81826W        W24764  11.282  15.501   5.718  0.0369  0.1648  0.2363
81827W        W24765  10.336  19.532   5.005  0.0535  0.2864 -0.0513
81828W        W24766   9.994  16.643   4.321  0.1099  0.3799  0.0846
81829W        W24767   8.048  18.343   5.834 -0.2689  0.1567  0.0517
81830W        W24768   6.867  18.382   2.633 -0.0043  0.3171 -0.1976
81831W        W24769   9.413  19.190   4.183 -0.0648  0.1053 -0.1791
81832W        W24770   7.787  18.719   2.623  0.3156 -0.1361 -0.0933
81833W        W24771   9.501  17.381   7.298  0.3182  0.1035 -0.4375
81834W        W24772  10.609  13.869   3.086 -0.3604 -0.5341  0.3297
81835W        W24773  11.403  15.709   7.291  0.2025 -0.0091 -0.1619
81836W        W24774  10.187  14.919   5.695 -0.3181 -0.2256  0.2546
81837W        W24775  10.240  18.564   7.271  0.3257  0.0683 -0.0717
81838W        W24776   8.639  16.150   6.194 -0.2448  0.1335  0.1338
81839W        W24777   9.268  16.002   3.020  0.0369  0.0642 -0.0171
81840W        W24778   7.043  15.754   6.745  0.0322  0.1485  0.0306
81841W        W24779  10.931  14.156   6.605 -0.1613  0.1208 -0.4416
81842W        W24780   7.936  18.754   6.848  0.0537  0.0072 -0.0535
81843W        W24781  11.093  15.947   4.321 -0.2436 -0.3029  0.1638
81844W        W24782   8.682  15.520   4.185 -0.2490 -0.1775 -0.2914
81845W        W24783   8.283  16.495   5.993  0.0661 -0.3467  0.0420
81846W        W24784  10.059  13.939   6.443  0.2091  0.1153  0.0555
81847W        W24785   9.684  16.590   1.956 -0.0298 -0.1728  0.0153
81848W        W24786   9.805  15.146   6.078 -0.2491  0.1842  0.0997
81849W        W24787   7.566  17.540   3.857 -0.2039 -0.0550 -0.0478
81850W        W24788   8.414  18.323   4.764 -0.1158 -0.0157 -0.1448
81851W        W24789   9.258  17.730   5.269 -0.0518  0.0557 -0.3129
81852W        W24790   7.395  15.196   4.687 -0.2413 -0.2733  0.3835
81853W        W24791  11.090  15.298   5.324 -0.1161 -0.1088 -0.2683
81854W        W24792   9.175  15.557   6.805 -0.0249  0.1363 -0.2236
81855W        W24793  11.892  15.692   7.210 -0.3441  0.1327 -0.2017
81856W        W24794   8.827  16.213   5.266  0.0622 -0.0594 -0.2723
81857W        W24795  10.108  13.582   5.007  0.2216  0.1401  0.2249
81858W        W24796   9.138  16.574   7.025  0.3721  0.2321  0.1102
81859W        W24797   8.712  17.124   7.364  0.2948  0.1101 -0.0453
81860W        W24798   9.675  15.977   5.512 -0.2921  0.2476 -0.0541
81861W        W24799  11.623  16.719   6.500 -0.0451  0.0522  0.2769
81862W        W24800   9.590  16.313   4.090  0.0968  0.0923  0.0900
81863W        W24801  10.492  18.118   7.669  0.1492  0.0061 -0.2435
81864W        W24802   7.455  14.262   4.224 -0.0039  0.0764  0.0944
81865W        W24803  10.028  14.917   5.143  0.2004  0.2127  0.2218
81866W        W24804   8.064  16.647   5.170  0.0784 -0.1134  0.1643
81867W        W24805   8.908  16.843   6.719 -0.2573  0.1294 -0.0289
81868W        W24806  10.449  17.080   7.867  0.3991  0.1274 -0.1293
81869W        W24807   7.972  14.822   5.699 -0.5385 -0.1126 -0.3660
81870W        W24808   9.624  17.298   5.474 -0.0606 -0.3038 -0.1489
81871W        W24809  10.878  16.329   6.176 -0.0810 -0.0629 -0.2381
81872W        W24810   8.880  18.900   4.018  0.4049 -0.0297  0.0822
81873W        W24811  10.014  16.148   5.828 -0.2196  0.4056  0.0017
81874W        W24812  11.296  18.050   6.058  0.0223  0.0194  0.1775
81875W        W24813   6.551  14.791   5.440  0.0050  0.1850 -0.2112
81876W        W24814   9.832  18.914   7.653 -0.1128  0.2905 -0.2393
81877W        W24815   9.992  17.610   7.317 -0.0164 -0.3079 -0.1109
81878W        W24816   9.640  15.217   5.606  0.2587 -0.2683  0.1256
81879W        W24817   9.209  17.086   5.704  0.0288  0.1312 -0.1152
81880W        W24818   7.427  16.930   3.498 -0.0766  0.1965 -0.0667
81881W        W24819  11.043  15.887   6.490  0.2191 -0.0560 -0.0488
81882W        W24820  11.580  16.042   6.876  0.0287 -0.2389 -0.2667
81883W        W24821   9.783  18.850   4.061  0.0499  0.1735  0.0652
81884W        W24822   9.044  13.533   6.462 -0.0085  0.1421  0.0629
81885W        W24823   9.281  18.079   6.832 -0.0269 -0.1600  0.2118
81886W        W24824   8.903  18.436   7.710 -0.1434  0.1285 -0.0538
81887W        W24825   6.864  15.991   3.513  0.4579 -0.0221 -0.2328
81888W        W24826   8.432  17.933   6.373  0.0098  0.0111  0.2946
81889W        W24827   8.967  19.101   4.559  0.1634 -0.3409 -0.1870
81890W        W24828  10.044  17.977   4.236 -0.1507  0.2783 -0.2813
81891W        W24829  11.866  17.518   6.895 -0.0015  0.0959  0.0258
81892W        W24830  10.238  15.532   6.952  0.1587 -0.2734  0.3224
81893W        W24831  11.909  18.102   6.067 -0.1381  0.0050  0.1603
81894W        W24832   8.086  15.963   5.389  0.0928 -0.0057 -0.1539
81895W        W24833   9.685  14.554   4.965  0.1080 -0.3176  0.0856
81896W        W24834  10.494  14.999   5.180  0.0526  0.0670  0.1342
81897W        W24835   8.538  16.563   6.480 -0.2543  0.1035 -0.2506
81898W        W24836   9.486  16.728   5.367  0.3985  0.1765  0.2122
81899W        W24837   8.889  17.386   2.902 -0.1287 -0.0767  0.3467
81900W        W24838   8.729  16.842   5.878 -0.0746  0.1627  0.1096
81901W        W24839  10.624  15.176   7.209  0.0021 -0.0532 -0.0097
81902W        W24840   6.873  15.109   6.174  0.1368  0.0067 -0.0082
81903W        W24841   7.144  15.886   5.805  0.0563  0.1893 -0.1553
81904W        W24842   7.477  14.775   5.632  0.2355 -0.1714  0.0647
81905W        W24843   8.879  17.441   5.783  0.0338 -0.1466 -0.3124
81906W        W24844   8.425  15.733   5.149  0.1923  0.0213 -0.0685
81907W        W24845   7.079  14.303   4.663  0.0425  0.2643 -0.0128
81908W        W24846  10.084  16.612   4.797  0.0266  0.0228 -0.1240
81909W        W24847  10.949  18.271   4.519  0.0795  0.1026  0.1661
81910W        W24848   9.187  14.826   4.744 -0.0862  0.4089  0.1508
81911W        W24849  10.652  17.658   6.478  0.1775  0.0705 -0.0452
81912W        W24850   7.546  17.215   2.517 -0.1053 -0.1633  0.0546
81913W        W24851  10.394  16.958   6.846 -0.0401  0.2276  0.0934
81914W        W24852  10.272  14.802   7.506 -0.1601  0.1443 -0.3668
81915W        W24853   5.835  15.183   3.880  0.1783 -0.0479 -0.0637
81916W        W24854  11.162  16.031   7.529  0.2246  0.0997 -0.1546
81917W        W24855   9.551  16.787   4.894  0.1457  0.1162  0.2411
81918W        W24856  10.447  18.558   2.643 -0.5220 -0.4197 -0.1765
81919W        W24857   9.721  18.777   6.067  0.0083  0.0538 -0.1115
81920W        W24858   8.928  18.695   5.390 -0.2714 -0.0460  0.0372
81921W        W24859   6.286  14.661   6.763 -0.1714 -0.0204  0.1484
81922W        W24860  10.472  16.021   4.992  0.0656 -0.0601  0.0233
81923W        W24861   9.990  17.138   7.083 -0.1899  0.1049  0.1804
81924W        W24862  11.666  16.069   4.353 -0.4486  0.4756 -0.1177
81925W        W24863  11.091  16.050   7.021 -0.1339 -0.2934  0.2636
81926W        W24864  10.039  15.348   5.360 -0.2128 -0.0936  0.0929
81927W        W24865   9.008  14.904   6.926 -0.1475 -0.2616  0.0005
81928W        W24866   9.203  16.954   7.387 -0.1325 -0.1129  0.1524
81929W        W24867  10.045  16.105   7.016 -0.0801 -0.0756 -0.1276
81930W        W24868   7.517  14.561   5.187 -0.0044  0.0082 -0.0417
81931W        W24869  10.546  15.511   5.073  0.0040  0.1295  0.3584
81932W        W24870   9.349  17.614   5.745  0.2184 -0.0717  0.1525
81933W        W24871   8.745  17.216   5.393  0.1663 -0.0348 -0.1237
81934W        W24872   9.372  15.864   4.757 -0.1108 -0.1265 -0.0536
81935W        W24873  10.903  16.828   7.940  0.0558 -0.2218  0.0550
81936W        W24874   9.465  18.096   5.654  0.2888 -0.2634  0.0474
81937W        W24875  10.213  18.541   6.774 -0.1883  0.2577  0.3529
81938W        W24876   8.039  15.381   4.791  0.0349  0.4561 -0.3614
81939W        W24877  10.930  15.591   6.094 -0.1004 -0.0412  0.3025
81940W        W24878  10.233  18.633   6.176 -0.3612  0.2123 -0.3796
81941W        W24879  10.307  19.014   7.881  0.1941  0.4273  0.4045
81942W        W24880   9.907  19.580   5.341 -0.1357  0.5096  0.1965
81943W        W24881  10.201  16.302   6.387  0.0157  0.0684 -0.5220
81944W        W24882   8.516  14.869   6.195  0.0355 -0.3743  0.1681
81945W        W24883   8.735  17.016   4.848 -0.2224 -0.2478  0.0676
81946W        W24884   9.057  16.647   4.960  0.1812 -0.0070 -0.1893
81947W        W24885  10.340  15.328   5.971  0.1830  0.0973 -0.0845
81948W        W24886   7.895  16.013   5.988 -0.0853 -0.0452 -0.2188
81949W        W24887  10.727  16.461   3.949  0.0099 -0.1733 -0.1899
81950W        W24888   9.663  17.550   6.896 -0.3837 -0.2800 -0.0378
81951W        W24889   9.741  16.148   6.584  0.2598  0.0586  0.1522
81952W        W24890   6.785  17.982   9.701 -0.1148  0.1630 -0.3194
81953W        W24891   8.101  16.278   7.335 -0.0875 -0.1466  0.1868
81954W        W24892  10.306  14.042   9.049 -0.1619 -0.1577  0.2441
81955W        W24893  11.332  16.736   9.015  0.0335  0.0875 -0.0194
81956W        W24894   7.476  16.095   8.723  0.2120  0.0722 -0.0331
81957W        W24895  10.792  16.532   9.848  0.0442 -0.0674  0.1535
81958W        W24896   9.096  18.189   9.165 -0.1615 -0.0242 -0.0897
81959W        W24897   9.842  17.428   9.536  0.2003  0.0636 -0.1074
81960W        W24898   9.674  15.708   6.858  0.1460 -0.1828  0.0092
81961W        W24899   8.952  14.655   9.185  0.1059  0.4963 -0.2149
81962W        W24900   8.712  14.787   8.270  0.1712  0.2120 -0.3175
81963W        W24901   7.371  15.087   9.216  0.1095  0.2309 -0.1571
81964W        W24902   8.745  14.775  10.127 -0.1963 -0.1017  0.2071
81965W        W24903   7.629  16.456   7.175  0.2183  0.3113  0.0765
81966W        W24904   7.327  17.124   9.334  0.3856 -0.2251 -0.3010
81967W        W24905   8.904  14.405   6.877 -0.1663  0.1864  0.0803
81968W        W24906   9.326  19.522   8.877  0.3498 -0.2527 -0.4093
81969W        W24907  10.409  17.312   9.837  0.0888 -0.0512  0.1120
81970W        W24908   9.304  17.777   8.372  0.0156 -0.0675 -0.4213
81971W        W24909   8.529  15.418   6.721  0.2285 -0.0814 -0.1898
81972W        W24910   7.947  15.870   8.691  0.2817 -0.2003 -0.0667
81973W        W24911   8.245  15.557   9.221 -0.0303  0.2716 -0.0360
81974W        W24912  10.818  13.413   9.097  0.0033 -0.0922 -0.0711
81975W        W24913  10.323  15.606   9.888  0.1860 -0.1479  0.2283
81976W        W24914   8.752  18.483   9.744  0.1475 -0.0597  0.3924
81977W        W24915   7.372  17.497   8.411  0.0189  0.3525  0.1142
81978W        W24916   5.889  17.054   8.537 -0.3381 -0.3154  0.0404
81979W        W24917   6.085  17.339   8.154  0.2662  0.2985  0.1826
81980W        W24918   9.144  17.668   7.119 -0.0088  0.2574 -0.0867
81981W        W24919  11.854  18.177   9.039  0.3066  0.2727 -0.0732
81982W        W24920   7.939  17.659   7.562 -0.2960 -0.2275 -0.0466
81983W        W24921   9.166  17.198   8.572  0.0451  0.1736 -0.3460
81984W        W24922   9.795  15.305   7.750 -0.0749  0.1518  0.0469
81985W        W24923   9.692  18.237   8.477  0.2490 -0.2276  0.4046
81986W        W24924   8.228  16.945   7.828 -0.1433  0.0897  0.1206
81987W        W24925   6.936  17.913   8.624  0.0539  0.4460  0.4893
81988W        W24926   8.883  18.271   8.166 -0.0586  0.0400  0.0939
81989W        W24927  10.954  14.877   7.752  0.2389 -0.1282  0.3241
81990W        W24928   9.559  15.091   6.680  0.3892  0.2627 -0.2442
81991W        W24929  10.400  15.857   8.684  0.2585 -0.3925 -0.0184
81992W        W24930   9.868  14.126   8.816 -0.0696  0.0677  0.0161
81993W        W24931   7.836  18.278   8.962  0.1094  0.3426  0.1638
81994W        W24932   8.806  15.354   8.074  0.1977 -0.0995  0.0569
81995W        W24933   9.955  15.743   7.379 -0.0360  0.0217 -0.2574
81996W        W24934   8.961  15.389   9.807 -0.1538  0.1460 -0.1099
81997W        W24935   8.220  18.513   9.154 -0.0229  0.2737 -0.1235
81998W        W24936   7.503  15.732   7.730  0.0199 -0.0194  0.1422
81999W        W24937  10.017  17.378   8.695 -0.0901 -0.1607 -0.0578
82000W        W24938  11.403  18.488   8.624 -0.2056  0.1461 -0.1437
82001W        W24939  10.032  17.686   6.466  0.0828  0.0443  0.1805
82002W        W24940   7.122  16.248   7.958  0.1482  0.3140 -0.1456
82003W        W24941   7.572  14.442   6.987  0.1008 -0.0458  0.1517
82004W        W24942  11.263  15.365   8.853 -0.1534 -0.3073 -0.1306
82005W        W24943   9.746  17.014   9.285  0.0977  0.0519  0.1444
82006W        W24944  10.192  16.981   9.508  0.0391 -0.0551  0.1406
82007W        W24945   9.921  17.166   6.598  0.2124  0.0793 -0.0971
82008W        W24946   9.720  14.600   8.568  0.1528  0.1067 -0.2503
82009W        W24947   9.992  14.359   9.320 -0.0076  0.2924  0.0189
82010W        W24948   9.563  16.811   6.996 -0.2073 -0.0257  0.0321
82011W        W24949   9.431  15.351   8.187 -0.2965  0.2398 -0.1267
82012W        W24950  10.292  17.830  11.516  0.1399  0.0367 -0.0007
82013W        W24951  10.202  16.196   8.018  0.1447 -0.4329  0.0531
82014W        W24952   8.255  18.393   9.662 -0.4937 -0.0186  0.0851
82015W        W24953   7.309  18.274   7.300  0.2604 -0.0804 -0.0888
82016W        W24954   7.801  17.296   9.334  0.0321 -0.0598 -0.1368
82017W        W24955   7.285  16.837   7.366  0.0524 -0.1482  0.0529
82018W        W24956   8.991  17.698   9.320  0.1780  0.1829  0.1065
82019W        W24957   8.890  16.873   9.543 -0.0839  0.1145 -0.1329
82020W        W24958  11.893  14.629   8.627 -0.0527  0.1032 -0.0266
82021W        W24959   9.765  14.943   8.149  0.2181 -0.0625 -0.1093
82022W        W24960   9.169  16.605   7.875  0.0189  0.3001  0.3543
82023W        W24961  12.560  18.731   7.057  0.0466  0.3846 -0.0224
82024W        W24962  10.335  16.320   8.449  0.0427  0.0387 -0.0029
82025W        W24963  11.323  17.232   8.210 -0.1840  0.0278 -0.3568
82026W        W24964   6.407  16.369   8.379  0.1066 -0.0005  0.0557
82027W        W24965   7.928  15.295   7.847 -0.2062  0.1007 -0.0556
82028W        W24966   3.613  16.159   9.860  0.0484  0.3511 -0.0800
82029W        W24967   8.325  15.330   6.178  0.1269 -0.1891 -0.0812
82030W        W24968  10.607  15.235   9.367  0.2495 -0.2917 -0.0127
82031W        W24969   9.764  15.546   8.714  0.2654 -0.1755 -0.2050
82032W        W24970   6.474  16.216   7.723  0.0923 -0.1723  0.1741
82033W        W24971  10.497  17.436   9.324 -0.1051 -0.0097 -0.1904
82034W        W24972   8.669  17.806   8.980 -0.0833 -0.1570  0.0082
82035W        W24973  10.151  16.351   9.818 -0.0396 -0.1174  0.0991
82036W        W24974  10.221  14.897   9.195 -0.4911 -0.0915  0.1968
82037W        W24975   8.112  14.439   7.135 -0.0303  0.0960 -0.0708
82038W        W24976   6.954  18.007   9.103 -0.0481 -0.1670  0.0408
82039W        W24977   8.322  17.856   8.326  0.1888  0.1918  0.0404
82040W        W24978   8.021  15.585   6.719  0.0502  0.1019  0.1221
82041W        W24979   9.594  15.817  10.053 -0.0875  0.1502  0.1221
82042W        W24980   9.395  16.457   7.473 -0.0020  0.0747  0.1041
82043W        W24981  11.802  14.864   9.864  0.0387 -0.1432  0.3103
82044W        W24982   8.866  15.967   8.938 -0.0750 -0.1830  0.0334
82045W        W24983   7.280  16.550   6.355 -0.1551 -0.1581 -0.0495
82046W        W24984   9.570  16.882   7.706  0.1257 -0.1843  0.1042
82047W        W24985   7.942  17.964   7.935  0.0760 -0.0369 -0.3888
82048W        W24986   7.721  15.825   6.436  0.0760  0.1131  0.0316
82049W        W24987   9.655  19.113   8.184 -0.1630  0.1967  0.5386
82050W        W24988  11.548  14.743   9.017 -0.1651 -0.1349  0.2047
82051W        W24989   8.444  17.032   6.877 -0.3487  0.2438  0.1166
82052W        W24990   8.292  14.005   9.862 -0.2537  0.1064  0.0887
82053W        W24991  11.139  16.458   8.210  0.1659 -0.2444 -0.0192
82054W        W24992  11.422  18.283   7.865 -0.2701 -0.0918  0.2433
82055W        W24993  10.468  14.673   7.010 -0.0285 -0.0159 -0.2144
82056W        W24994  10.275  14.176   7.970  0.0360  0.1618  0.0658
82057W        W24995   8.925  15.548   8.537 -0.1336  0.2103  0.0351
82058W        W24996   9.419  16.829   8.229 -0.0927  0.0577 -0.1072
82059W        W24997   9.183  14.790   7.407  0.3871 -0.2180  0.2088
82060W        W24998  10.627  18.544   7.934 -0.1473 -0.2575 -0.2164
82061W        W24999   6.038  15.807   9.974 -0.0427  0.0716  0.1385
82062W        W25000   9.740  16.803  10.303  0.3694 -0.1849 -0.0144
82063W        W25001   9.266  15.474   9.025 -0.0723 -0.3032 -0.1334
82064W        W25002   9.513  16.224   7.006  0.0633 -0.0402 -0.4119
82065W        W25003  10.454  15.303   8.348  0.1441 -0.2802 -0.0512
82066W        W25004   8.657  19.690   8.023  0.2298 -0.0553 -0.0349
82067W        W25005   9.582  14.171  10.216 -0.1216 -0.0095  0.0711
82068W        W25006  10.004  15.878   9.034  0.0169 -0.1748  0.4964
82069W        W25007  10.035  16.809   8.579  0.1795  0.2589  0.0707
82070W        W25008   9.468  15.955   9.033  0.0642  0.1768  0.1566
82071W        W25009   9.335  15.938   6.516  0.1695  0.3195 -0.3746
82072W        W25010   8.999  15.039   8.810 -0.3028  0.1561 -0.1475
82073W        W25011   8.677  18.045   9.444  0.1615 -0.1355  0.1234
82074W        W25012  10.384  16.164   9.147  0.1763  0.1215 -0.0389
82075W        W25013   9.215  15.040   7.817 -0.0253 -0.1971 -0.0812
82076W        W25014   9.267  19.098   8.472 -0.0459 -0.1690  0.1673
82077W        W25015   9.580  17.303   8.211 -0.0821  0.1718  0.0930
82078W        W25016   9.038  14.357   8.414  0.1688  0.0347  0.0547
82079W        W25017   7.696  17.293  12.282 -0.2936 -0.0189  0.2240
82080W        W25018   9.029  17.419   7.560 -0.0660 -0.1964 -0.2350
82081W        W25019   9.582  16.461   9.115 -0.0940 -0.0729  0.2539
82082W        W25020   6.707  16.800   8.413  0.2970  0.0724 -0.0088
82083W        W25021  10.635  14.650   8.996 -0.0002 -0.0493  0.0678
82084W        W25022   7.928  18.078   8.494  0.0454  0.1138  0.2611
82085W        W25023   7.640  15.979   7.272  0.1031 -0.0318  0.1959
82086W        W25024   5.616  16.197   8.169 -0.0286  0.0665  0.1360
82087W        W25025  11.332  15.586   8.406 -0.0456  0.1421  0.2869
82088W        W25026  11.836  16.970   6.904  0.0193 -0.1934  0.1192
82089W        W25027   7.054  15.823   8.645  0.2694  0.1364 -0.0706
82090W        W25028   9.718  14.702   9.076  0.2036 -0.0990 -0.0522
82091W        W25029   7.467  18.004   8.692 -0.0403  0.3617  0.1229
82092W        W25030   9.866  13.291   8.322 -0.1669 -0.2249 -0.0861
82093W        W25031   6.766  15.316   6.619  0.2124 -0.0090  0.0500
82094W        W25032  11.234  16.244   8.666 -0.4481  0.3190 -0.0308
82095W        W25033   8.820  15.688   7.588  0.0543  0.0157  0.0399
82096W        W25034   8.274  16.454   7.772  0.0843 -0.1050 -0.4376
82097W        W25035   8.909  15.226   9.307 -0.1239  0.1197  0.0942
82098W        W25036  10.012  16.632   7.745 -0.0501 -0.1824 -0.1822
82099W        W25037   8.487  17.494   7.625  0.0263  0.1216 -0.0312
82100W        W25038   9.790  13.528  10.060  0.0691 -0.1507 -0.1580
82101W        W25039  10.929  15.164   9.748  0.0378 -0.1071  0.0026
82102W        W25040   7.367  16.126   6.851 -0.0298  0.1127 -0.2067
82103W        W25041   8.660  15.506   8.964 -0.1992 -0.1474  0.0092
82104W        W25042   8.642  17.034   8.559  0.1374 -0.2074 -0.3029
82105W        W25043   9.492  13.772   9.736 -0.3932  0.0321 -0.0138
82106W        W25044  10.756  13.832   9.295 -0.0024  0.0520  0.1918
82107W        W25045   9.954  18.698   8.479  0.0237  0.1641 -0.1322
82108W        W25046   9.781  16.128   7.611 -0.2947  0.0928 -0.1620
82109W        W25047   6.397  17.149   8.560  0.1856 -0.1169  0.0869
82110W        W25048   9.996  18.104   7.538 -0.0981 -0.1984 -0.1460
82111W        W25049   9.924  16.236  10.242  0.3629 -0.0194 -0.3360
82112W        W25050   7.076  17.505   8.941  0.3004 -0.2388  0.0974
82113W        W25051   8.659  17.286   8.115  0.1744 -0.1167  0.0050
82114W        W25052   8.683  18.576   9.058 -0.5383  0.0055  0.0062
82115W        W25053  12.431  13.972   7.881  0.0215 -0.3269 -0.0320
82116W        W25054   9.964  15.840   9.657  0.2257 -0.0787  0.0070
82117W        W25055  10.888  15.582   6.998  0.3662  0.1233 -0.0775
82118W        W25056   9.895  15.968   8.460  0.0957 -0.2979 -0.0108
82119W        W25057   8.172  14.732   7.901 -0.1030  0.1596 -0.1640
82120W        W25058   9.788  16.678   9.817 -0.1508 -0.2898 -0.1929
82121W        W25059  10.486  15.522   7.869 -0.2192 -0.0052 -0.0824
82122W        W25060   8.108  15.253   7.077  0.1312  0.0532 -0.0971
82123W        W25061   6.271  18.142   9.515 -0.2006 -0.4583 -0.3187
82124W        W25062  10.690  16.374   8.103 -0.0673 -0.3155  0.2459
82125W        W25063   9.569  16.329   8.583 -0.1097  0.0992  0.0634
82126W        W25064  10.737  12.707   9.663 -0.1318 -0.0068  0.4195
82127W        W25065   8.412  16.947   9.460  0.2223 -0.0365 -0.0203
82128W        W25066   9.876  15.181   9.046  0.2358 -0.0832  0.0654
82129W        W25067  10.394  17.667   8.450  0.0971  0.0105 -0.0632
82130W        W25068   8.598  16.150   7.417 -0.0603 -0.1620 -0.2425
82131W        W25069   8.469  18.904   9.757  0.1257  0.3518 -0.0454
82132W        W25070   7.783  16.273   9.047  0.1570  0.1008  0.0189
82133W        W25071   9.214  18.477   9.559  0.0918  0.3506 -0.0831
82134W        W25072  11.061  15.378   6.532  0.3216 -0.0494  0.0655
82135W        W25073  10.359  15.055   9.780  0.2055 -0.2147  0.0367
82136W        W25074   9.636  16.179   9.488  0.0654  0.0597  0.0971
82137W        W25075   9.139  14.865   9.705 -0.1873  0.0392 -0.1322
82138W        W25076   5.490  15.801   9.485 -0.0186  0.1733  0.3097
82139W        W25077   8.012  16.286   6.370 -0.4094 -0.5254 -0.0725
82140W        W25078   9.994  17.179   7.601  0.1244 -0.3618  0.0408
82141W        W25079   9.049  16.436   8.794 -0.0174 -0.3523  0.1142
82142W        W25080   8.724  15.719   7.125  0.1058  0.1155 -0.1346
82143W        W25081   6.339  16.068   9.640  0.2750 -0.0901 -0.1403
82144W        W25082   8.327  15.181   5.692  0.0982 -0.1806 -0.2031
82145W        W25083  10.298  17.526   6.891  0.0730  0.0648 -0.1933
82146W        W25084   8.046  15.362   8.639 -0.1782 -0.0170  0.1458
82147W        W25085  10.243  12.837   6.684  0.0711 -0.2101 -0.0524
82148W        W25086   7.494  16.760   7.938  0.1599  0.2926 -0.1975
82149W        W25087   9.498  14.499   9.551 -0.0985 -0.0025 -0.1522
82150W        W25088   9.267  18.523  10.121 -0.0416 -0.1649 -0.0964
82151W        W25089   8.079  18.606   8.639 -0.1502 -0.1209 -0.2209
82152W        W25090   9.875  15.465   8.244 -0.0008  0.0828 -0.2375
82153W        W25091  10.049  14.997   8.636  0.0403  0.1083 -0.3054
82154W        W25092   8.731  16.539   9.172 -0.2062 -0.0456 -0.0601
82155W        W25093   9.364  17.536  10.302  0.3947 -0.1322  0.0879
82156W        W25094  11.151  15.215   9.335  0.0049  0.1995  0.1643
82157W        W25095   8.932  16.710   8.337 -0.1279 -0.0707  0.5538
82158W        W25096  11.262  15.781   9.394 -0.2064  0.2412  0.2109
82159W        W25097   8.271  15.837   7.224  0.2616 -0.2198  0.4313
82160W        W25098  10.447  17.159   8.462  0.0046  0.2036 -0.1040
82161W        W25099   8.868  15.850   8.124 -0.0626 -0.0028  0.2310
82162W        W25100   8.151  17.083   8.434  0.0795  0.0918  0.1008
82163W        W25101  11.263  17.526   8.662 -0.2232 -0.0050  0.2872
82164W        W25102   8.800  17.734   7.986  0.0584  0.0729 -0.0492
82165W        W25103   8.083  19.497   9.304  0.1815 -0.1613  0.0970
82166W        W25104   8.911  16.351   6.650 -0.0752  0.1658  0.5869
82167W        W25105   7.397  17.794   9.831  0.0357 -0.1156 -0.2363
82168W        W25106   6.763  16.628   7.110 -0.1717  0.2528  0.0193
82169W        W25107  10.340  16.977   8.946  0.0709 -0.0522 -0.5106
82170W        W25108   7.802  18.273   6.927  0.4523  0.3120  0.0362
82171W        W25109  11.499  14.490   8.248 -0.0462  0.1581  0.1845
82172W        W25110   8.130  16.533   9.192  0.0133  0.0427  0.0397
82173W        W25111  10.961  15.502   8.076 -0.1958 -0.2205  0.0320
82174W        W25112   9.177  14.940   8.354 -0.5177 -0.1129  0.0627
82175W        W25113   8.689  14.951   7.773  0.3031 -0.0109 -0.0908
82176W        W25114  10.593  18.257   9.304 -0.0116  0.0195  0.1284
82177W        W25115   7.640  15.452   7.337  0.2387  0.1535  0.0345
82178W        W25116   7.953  15.956   7.660  0.0920 -0.0888 -0.1359
82179W        W25117   9.502  15.044   8.766 -0.0437  0.1504  0.0540
82180W        W25118   9.139  17.134   7.997 -0.1672  0.0920 -0.0744
82181W        W25119   9.722  15.566   9.308 -0.0881  0.3791 -0.1711
82182W        W25120   8.452  19.388   9.713 -0.2061  0.0346  0.0242
82183W        W25121   8.316  17.490   8.727 -0.2149 -0.1696 -0.0376
82184W        W25122   7.879  17.619   8.460  0.1253 -0.0265  0.1376
82185W        W25123   6.665  15.476   7.266 -0.0620 -0.1774  0.0863
82186W        W25124  11.071  15.835   8.934  0.4006  0.0147 -0.1252
82187W        W25125   8.612  17.345   9.667  0.0637  0.0289  0.2373
82188W        W25126   9.022  16.106   7.108  0.0513  0.2896  0.0581
82189W        W25127  10.856  15.592   8.544 -0.0540 -0.0097  0.0912
82190W        W25128   7.530  16.633   8.448  0.1627 -0.0361 -0.3696
82191W        W25129   9.410  15.108   9.288 -0.1360 -0.1100 -0.1065
82192W        W25130  10.152  14.607   8.260  0.1041  0.1999  0.0065
82193W        W25131   9.405  15.764   7.277 -0.0416 -0.0014 -0.0124
82194W        W25132   9.301  15.626   9.538 -0.1731 -0.4608  0.0530
82195W        W25133   9.258  14.148   7.166 -0.1888 -0.2131  0.1792
82196W        W25134   8.719  16.834   7.849 -0.1248  0.2252  0.1218
82197W        W25135   9.787  17.619  10.004 -0.4165  0.0156 -0.1397
82198W        W25136   7.048  14.745   9.437  0.3186  0.0210  0.2420
82199W        W25137  11.627  17.434   7.351  0.2135  0.1129  0.3285
82200W        W25138   9.953  17.158   9.956 -0.0664 -0.2509  0.3396
82201W        W25139   9.295  17.898   6.167  0.0766 -0.1067  0.3102
82202W        W25140   9.440  17.069   9.916  0.0692  0.0724  0.2502
82203W        W25141   8.996  18.125   9.945 -0.1574 -0.0676 -0.2680
82204W        W25142   7.560  15.400   8.850  0.1333 -0.0471 -0.2755
82205W        W25143   9.326  17.631   7.919  0.0137  0.3987 -0.2009
82206W        W25144  11.804  17.224   9.381  0.3460  0.1796  0.0998
82207W        W25145  10.181  14.051   7.044  0.2036 -0.3006  0.2451
82208W        W25146   8.384  17.053   8.974 -0.0077  0.1591  0.0314
82209W        W25147   8.188  18.485   7.183  0.0533  0.3223  0.1035
82210W        W25148  11.026  16.066   9.789  0.2147 -0.0586  0.2630
82211W        W25149   9.114  17.631   6.595 -0.0155 -0.0430  0.1213
82212W        W25150   7.359  17.043   8.735  0.2379  0.1308 -0.1382
82213W        W25151   8.882  16.506   7.505  0.0572 -0.1767 -0.0884
82214W        W25152  10.136  17.793   9.697  0.1886 -0.0365 -0.0884
82215W        W25153  11.052  17.084   8.727  0.3018  0.0460 -0.1829
82216W        W25154  11.672  17.718  10.175 -0.2645  0.2975 -0.0578
82217W        W25155  10.273  15.438   8.809 -0.0376  0.0163  0.1469
82218W        W25156  11.129  15.924  10.837  0.2590  0.2762 -0.3244
82219W        W25157   8.244  16.527   9.748  0.1696 -0.0040 -0.1835
82220W        W25158  12.493  15.939   8.568 -0.4542 -0.1431 -0.2380
82221W        W25159   9.588  13.704   8.277  0.1950 -0.2830 -0.2520
82222W        W25160   8.659  16.126   8.484 -0.3842 -0.0777 -0.2202
82223W        W25161   9.158  16.108   7.751 -0.0779  0.0331 -0.1305
82224W        W25162   9.444  16.553   6.607 -0.0307 -0.1529 -0.0937
82225W        W25163   6.606  18.090   8.225  0.2006 -0.1748  0.1306
82226W        W25164   6.736  15.291   7.890  0.0428  0.0482 -0.1418
82227W        W25165   8.216  14.815   7.414  0.4143 -0.1906 -0.1902
82228W        W25166  10.773  17.464   8.909 -0.4401  0.0726  0.0034
82229W        W25167   7.845  15.007   9.027 -0.0022  0.2110 -0.0446
82230W        W25168   8.270  15.156   9.513 -0.0528  0.1020 -0.1704
82231W        W25169   8.747  16.303   7.969 -0.1721 -0.2938  0.0830
82232W        W25170  12.381  18.740  10.060  0.1952  0.2962 -0.1080
82233W        W25171  11.036  15.135   8.400 -0.4024  0.0158  0.2670
82234W        W25172   8.686  17.726   7.250 -0.1171 -0.4277  0.2139
82235W        W25173   7.466  13.766   8.040 -0.0711 -0.2991 -0.2757
82236W        W25174   9.167  16.194   9.342  0.0794  0.2081 -0.1332
82237W        W25175  10.061  15.737  10.303  0.2254 -0.1566  0.1923
82238W        W25176  10.875  17.399   8.353  0.4820 -0.0904  0.0092
82239W        W25177   7.123  15.781   8.124 -0.2347  0.1605  0.4122
82240W        W25178   9.859  16.942   8.101  0.0700 -0.4184  0.0311
82241W        W25179  10.874  17.875   8.606  0.0452  0.1533  0.2384
82242W        W25180  11.637  12.286  10.117  0.1114 -0.0450  0.0078
82243W        W25181   9.509  16.819   8.675  0.0295 -0.4256 -0.0366
82244W        W25182  11.558  16.794   7.970  0.0550 -0.1016 -0.0969
82245W        W25183   8.656  14.872   9.515  0.3620 -0.1545  0.2092
82246W        W25184  10.862  14.387   7.556 -0.0725  0.0521  0.0512
82247W        W25185  10.064  17.388   8.056 -0.0116  0.1277  0.2557
82248W        W25186   8.185  16.118   8.336  0.0504 -0.3444 -0.2906
82249W        W25187   9.421  14.539   8.120 -0.4258  0.3035  0.0384
82250W        W25188  10.058  16.334   8.835  0.0644  0.3648  0.0481
82251W        W25189   9.832  14.052   7.670 -0.3461  0.0487 -0.1330
82252W        W25190  11.031  16.014   8.284 -0.0608  0.0416  0.0806
82253W        W25191   9.582  19.469  10.076 -0.1483 -0.0925  0.0682
82254W        W25192   8.435  15.690   8.460 -0.1686  0.0085 -0.1038
82255W        W25193  10.430  18.257   9.846  0.3100  0.0341  0.4238
82256W        W25194   7.056  16.475   9.520 -0.0151  0.0869 -0.1115
82257W        W25195   9.642  14.892   7.536 -0.0095  0.3086 -0.3887
82258W        W25196   9.606  18.270   8.994 -0.0974 -0.0695 -0.3238
82259W        W25197   8.932  16.874   8.906 -0.1895  0.0405  0.1046
82260W        W25198   9.022  14.597   7.859 -0.1299 -0.0492  0.0329
82261W        W25199  10.388  14.216   7.522 -0.0990  0.0424  0.2701
82262W        W25200   6.958  17.710   8.123 -0.2147 -0.2443 -0.0605
82263W        W25201   9.010  16.610  10.071 -0.1278  0.0188 -0.0129
82264W        W25202   8.170  21.481   3.459  0.0305  0.1008 -0.0763
82265W        W25203   9.233  19.971   0.287 -0.1627  0.0977  0.1394
82266W        W25204  11.481  19.071   0.324 -0.1762 -0.2588  0.0320
82267W        W25205  10.822  19.432  31.574 -0.1838  0.1171  0.0158
82268W        W25206   8.501  18.283   1.224 -0.0764 -0.3357  0.0321
82269W        W25207  10.905  22.363  31.940  0.2670  0.4334  0.0906
82270W        W25208   8.305  18.209   1.808 -0.2085 -0.2433  0.1537
82271W        W25209  10.118  21.781   2.317 -0.2773  0.3480  0.0554
82272W        W25210  11.113  21.574   1.293 -0.2163 -0.0936  0.0341
82273W        W25211  11.406  20.957   0.308  0.0610 -0.2350 -0.1841
82274W        W25212   8.270  19.196   3.376 -0.0850  0.2834 -0.1344
82275W        W25213   9.103  20.642   2.543 -0.0566 -0.0660  0.0957
82276W        W25214  10.401  18.347   1.359  0.1696  0.2351 -0.0838
82277W        W25215   8.643  17.836   0.827 -0.0436  0.2528  0.0513
82278W        W25216  10.195  20.136   1.700  0.2029 -0.0646  0.0700
82279W        W25217   8.208  19.337  31.710  0.2370 -0.0947 -0.0193
82280W        W25218   9.191  18.724   2.331 -0.1143 -0.0985  0.0257
82281W        W25219   7.875  18.501  31.149 -0.1773 -0.2506 -0.0445
82282W        W25220   8.868  21.084   1.307 -0.1054  0.1390 -0.1399
82283W        W25221   8.289  19.470   3.957 -0.0318 -0.1342  0.2376
82284W        W25222   9.721  18.452   1.949 -0.0431 -0.2481  0.0777
82285W        W25223   8.476  20.583   0.595 -0.0428 -0.0966 -0.0537
82286W        W25224   6.481  19.755   0.390 -0.1999  0.1836 -0.0763
82287W        W25225   7.252  18.030   1.231  0.0988  0.2165 -0.0798
82288W        W25226  10.027  19.505   2.410  0.4397  0.2897  0.3912
82289W        W25227  11.636  20.182   1.648  0.1046  0.0951 -0.0890
82290W        W25228  10.923  20.322   0.476 -0.0884 -0.0083  0.0469
82291W        W25229   8.751  21.631   1.082  0.1884 -0.4195 -0.0141
82292W        W25230  10.111  20.904   2.936 -0.0231  0.0429  0.1968
82293W        W25231  12.015  20.309   4.582  0.1979  0.0736  0.1385
82294W        W25232   8.399  21.401   1.342  0.3474  0.1865 -0.2857
82295W        W25233   7.132  21.370   2.437  0.3280  0.1648 -0.0958
82296W        W25234   8.600  21.080   0.416 -0.2467 -0.2200 -0.1771
82297W        W25235  11.017  21.466  31.752  0.0687  0.2004 -0.3427
82298W        W25236   9.992  20.295   2.260  0.1987  0.1745 -0.0954
82299W        W25237   7.985  21.845   1.843 -0.3338  0.2205 -0.3611
82300W        W25238   7.658  19.580   1.043 -0.3878 -0.1699  0.0160
82301W        W25239  10.070  21.593   3.509 -0.0938 -0.1222 -0.0780
82302W        W25240   8.891  20.411   1.195  0.1864  0.0706 -0.2806
82303W        W25241  11.091  18.512   1.802 -0.0022  0.3450  0.3122
82304W        W25242  11.413  17.974   1.194 -0.2748 -0.0842 -0.1342
82305W        W25243   9.159  20.437  31.829  0.4063  0.1888 -0.1437
82306W        W25244  10.055  19.425   0.837 -0.1907  0.2462 -0.0353
82307W        W25245   8.681  20.676   4.016 -0.1151  0.1602 -0.0841
82308W        W25246   7.856  21.444   2.754  0.1356 -0.1878  0.0798
82309W        W25247  11.930  18.961   2.070 -0.1613 -0.1915 -0.0200
82310W        W25248   7.215  20.689   0.745 -0.1667  0.0446  0.1264
82311W        W25249  11.039  19.763   0.545  0.2173 -0.1930 -0.0239
82312W        W25250   9.509  19.152  31.845 -0.1216  0.1782 -0.0757
82313W        W25251  10.601  19.533   0.685  0.0908  0.2436 -0.2307
82314W        W25252  10.261  17.283   1.927 -0.0223 -0.1280 -0.5345
82315W        W25253   9.439  21.042   0.755 -0.0613  0.1006  0.3736
82316W        W25254   9.488  18.057   2.982 -0.1466 -0.2383  0.3202
82317W        W25255   9.408  19.888   3.008 -0.0032  0.1153  0.2043
82318W        W25256  11.181  20.248  31.615 -0.1343  0.2611 -0.1861
82319W        W25257  10.434  19.753   1.064 -0.0037 -0.3943  0.0809
82320W        W25258   7.579  20.539   1.793  0.1910 -0.1385 -0.0202
82321W        W25259   8.614  20.337   2.637 -0.0537 -0.4140  0.0218
82322W        W25260   9.706  21.421   0.995  0.3499 -0.0775  0.2088
82323W        W25261  11.803  22.683   1.308  0.2421  0.2708  0.1093
82324W        W25262  10.706  20.602   0.050 -0.0413  0.0692  0.2091
82325W        W25263   9.260  19.017   1.374 -0.1886  0.0665 -0.1637
82326W        W25264   7.470  21.069   3.709  0.1522 -0.3926  0.1313
82327W        W25265   7.874  18.863   1.639 -0.0200  0.0544  0.0050
82328W        W25266   7.631  17.593   0.312 -0.0083  0.1166  0.2867
82329W        W25267  11.788  20.880   3.169 -0.3307  0.0767 -0.3536
82330W        W25268   8.032  20.123   3.190 -0.0570  0.2047  0.0810
82331W        W25269  11.268  18.137   0.321  0.1033 -0.1966  0.0099
82332W        W25270   8.971  20.291   2.222 -0.0903  0.0509  0.2272
82333W        W25271  11.712  21.449   1.118 -0.0411  0.1181  0.4127
82334W        W25272   9.564  18.338   0.421  0.3624 -0.0267 -0.1597
82335W        W25273   9.864  19.147   0.444  0.3016  0.0506  0.0460
82336W        W25274   8.926  16.613   1.645  0.1262 -0.3617 -0.1824
82337W        W25275   7.078  20.774  30.844 -0.0586 -0.2200 -0.4087
82338W        W25276   8.033  21.148   1.075  0.1773 -0.0129  0.1509
82339W        W25277  11.275  19.187  31.868  0.2977  0.0135 -0.0051
82340W        W25278   6.474  20.545   2.286  0.2117  0.1332  0.1363
82341W        W25279   8.741  18.741   2.611  0.2263 -0.5316 -0.2086
82342W        W25280   9.551  19.855   1.747  0.1982  0.1564 -0.1789
82343W        W25281   7.600  21.605  31.902  0.1051  0.2793 -0.2174
82344W        W25282   6.383  19.480   0.796 -0.2048 -0.0716 -0.1916
82345W        W25283   8.156  19.628   0.798 -0.1589  0.1835  0.1803
82346W        W25284   7.835  19.590   1.558  0.1049 -0.1241  0.1868
82347W        W25285   8.294  21.997   3.421 -0.0988 -0.0743  0.1562
82348W        W25286  11.738  19.534  31.907 -0.1263  0.0693 -0.4203
82349W        W25287   8.826  18.921   1.779  0.1285  0.0412  0.1676
82350W        W25288  10.927  18.029   1.606 -0.0911  0.1241  0.1369
82351W        W25289   9.068  20.796   0.930  0.2666 -0.3405 -0.2357
82352W        W25290  10.487  22.458   1.037 -0.1261 -0.0251 -0.0880
82353W        W25291  11.377  19.638  30.494  0.2004  0.0075  0.1435
82354W        W25292   9.661  21.390  30.929 -0.1179  0.0378  0.1258
82355W        W25293   7.285  19.536   1.383  0.2349 -0.4200  0.1487
82356W        W25294   8.994  18.035   1.183  0.1074 -0.2745  0.0856
82357W        W25295   9.797  18.789   2.304 -0.1467 -0.1487 -0.2053
82358W        W25296   9.419  17.766   1.383 -0.4037  0.0561  0.0741
82359W        W25297   9.915  20.490   2.835 -0.1270  0.1195 -0.0300
82360W        W25298   7.384  18.091   0.074 -0.1076  0.0126  0.1146
82361W        W25299  10.457  20.446   0.613  0.1306  0.0860  0.0746
82362W        W25300  10.150  19.550   1.598  0.0871  0.2823 -0.0845
82363W        W25301   8.476  21.629   0.136 -0.0902  0.0792 -0.1719
82364W        W25302  10.340  18.135   2.388 -0.0768  0.1833  0.1139
82365W        W25303  10.128  21.009   1.777 -0.1919  0.2394 -0.1216
82366W        W25304  11.930  21.523   1.566 -0.2127 -0.1572  0.0667
82367W        W25305  12.975  21.250   0.727 -0.3307  0.0851  0.0251
82368W        W25306  10.285  19.581   2.852 -0.1715  0.1274  0.1454
82369W        W25307   9.537  19.830   2.321 -0.3392 -0.0408 -0.0110
82370W        W25308   8.955  20.140   1.605 -0.0617 -0.3445 -0.1238
82371W        W25309   8.453  20.137   1.472 -0.0031 -0.0126 -0.1029
82372W        W25310   9.994  16.726   0.635  0.1244  0.1012 -0.1931
82373W        W25311  11.772  22.053   1.600 -0.1566  0.0487  0.0681
82374W        W25312   8.890  19.900   1.134  0.5735 -0.1245  0.1839
82375W        W25313   6.966  20.916   2.729  0.0093  0.1064 -0.4312
82376W        W25314  11.539  18.261   2.211  0.0126 -0.4387  0.1313
82377W        W25315  11.309  19.908   2.935  0.3185  0.0399 -0.1162
82378W        W25316  10.315  20.320   1.074 -0.0212  0.2215 -0.2138
82379W        W25317   6.831  18.833  31.923 -0.3075 -0.0855  0.0669
82380W        W25318  10.192  21.243   1.190  0.2861 -0.1883 -0.2077
82381W        W25319   7.441  19.833  31.699  0.3981  0.3243 -0.0594
82382W        W25320   7.841  20.649   0.007 -0.0196  0.2151 -0.1118
82383W        W25321  10.231  19.501   0.302 -0.1602 -0.4905  0.1129
82384W        W25322  10.552  19.874   0.332 -0.0218  0.2708  0.2867
82385W        W25323   9.080  19.819   3.387 -0.1314  0.0879 -0.1307
82386W        W25324   9.544  19.571   3.402  0.0766 -0.1777 -0.2880
82387W        W25325   7.815  20.110  31.956  0.0724  0.2622  0.2759
82388W        W25326   9.145  21.863   2.526 -0.2217  0.2798  0.2510
82389W        W25327  10.385  19.033   0.459  0.3043  0.0430 -0.0710
82390W        W25328  11.241  18.352  31.503 -0.1147 -0.4635 -0.4070
82391W        W25329  10.846  20.011   1.297 -0.5175 -0.2751 -0.2062
82392W        W25330  10.603  21.930  31.915 -0.0591  0.3445  0.1273
82393W        W25331  10.837  17.884   0.303  0.1679 -0.1078 -0.1533
82394W        W25332  11.039  17.805   0.793 -0.1680 -0.0462  0.2517
82395W        W25333   7.254  19.596   3.497 -0.1418 -0.0385  0.1388
82396W        W25334   9.375  20.960   1.249 -0.1232  0.0159  0.0776
82397W        W25335   8.830  19.058   2.223 -0.0596  0.0443 -0.0732
82398W        W25336   9.303  18.323   1.526 -0.1230  0.1838 -0.0297
82399W        W25337  11.453  20.296  31.208  0.0486  0.0664 -0.3260
82400W        W25338   7.061  21.579   0.870 -0.5109  0.0806 -0.0259
82401W        W25339  10.045  22.231   5.014  0.4159 -0.0859  0.1228
82402W        W25340  10.931  21.353   0.681 -0.0459 -0.0195 -0.0978
82403W        W25341  10.270  18.567   2.170 -0.2238  0.1982 -0.0791
82404W        W25342   9.402  19.005   0.603  0.0931  0.4189 -0.3458
82405W        W25343   9.620  18.711   1.382  0.1935  0.0140  0.0424
82406W        W25344   8.356  21.763  31.026  0.0321  0.4853 -0.1691
82407W        W25345  10.186  18.878   0.905  0.0956 -0.1534  0.1508
82408W        W25346   9.505  17.524   2.903 -0.1301  0.0181  0.2354
82409W        W25347  10.691  18.922   3.026  0.1204 -0.0318 -0.1696
82410W        W25348  10.429  18.478   3.162 -0.1616 -0.0210  0.0751
82411W        W25349  10.914  18.947   1.903  0.0050  0.1661  0.1487
82412W        W25350  10.108  19.956   0.631  0.3543  0.0130  0.0654
82413W        W25351   8.534  19.257   0.082 -0.0943  0.0814  0.1148
82414W        W25352  10.922  19.903   3.355 -0.2556  0.1198  0.0775
82415W        W25353   7.519  21.748   2.017  0.3317 -0.1704  0.0136
82416W        W25354   8.758  21.819   3.204  0.1428  0.2953  0.0662
82417W        W25355  10.191  21.249   2.611 -0.0852  0.1991 -0.0382
82418W        W25356   9.843  19.510  31.881  0.0731  0.3273 -0.0189
82419W        W25357   9.560  18.948   3.281 -0.2011  0.2344 -0.2329
82420W        W25358  10.490  19.211  31.938  0.1601  0.0255  0.0525
82421W        W25359   8.494  21.061   0.942 -0.0330  0.0257 -0.4392
82422W        W25360   9.925  19.724   1.134 -0.2057 -0.6323 -0.2292
82423W        W25361   9.999  17.610   1.659 -0.1473  0.0138  0.1182
82424W        W25362   8.777  21.221   1.995  0.1494  0.1637  0.3491
82425W        W25363   8.239  20.825   0.168  0.1911 -0.0316 -0.1108
82426W        W25364  10.621  19.453   2.375  0.3208  0.0396 -0.1016
82427W        W25365   9.753  21.968   1.159 -0.1419 -0.0123 -0.2793
82428W        W25366  10.112  18.053   1.916 -0.0292  0.1125  0.0361
82429W        W25367   8.715  19.630   1.683  0.0705  0.2219 -0.1955
82430W        W25368   9.675  19.413   1.458 -0.0582 -0.2791 -0.1977
82431W        W25369   7.237  18.545   0.886 -0.1100  0.1628  0.2930
82432W        W25370  11.211  20.314   1.438 -0.0252  0.1896 -0.2746
82433W        W25371  10.958  21.025   0.052  0.0869 -0.2732  0.2083
82434W        W25372   7.386  19.136   1.855  0.1129  0.3380 -0.2719
82435W        W25373   9.533  18.130   0.980  0.0843  0.1750 -0.1796
82436W        W25374   7.647  20.813   3.029 -0.1654  0.1727  0.2111
82437W        W25375  11.228  18.880   0.845 -0.1022 -0.1967 -0.1200
82438W        W25376  10.866  18.881  31.958  0.0351  0.1107 -0.0229
82439W        W25377  10.428  20.547   1.926 -0.3251 -0.2569 -0.2784
82440W        W25378   6.282  20.337   3.363  0.1546  0.3366 -0.4036
82441W        W25379   8.201  19.927  31.764 -0.0885  0.2309  0.1953
82442W        W25380  10.677  18.975   2.494 -0.0123  0.0155 -0.0957
82443W        W25381   9.271  18.707   1.796 -0.1508  0.0499  0.0533
82444W        W25382   7.928  21.466   0.594  0.1843  0.1842  0.1453
82445W        W25383  10.640  21.535   1.550 -0.2459  0.1004  0.2921
82446W        W25384   8.663  20.072  31.945  0.0782 -0.0625  0.2146
82447W        W25385   8.148  20.428   1.817  0.2401  0.2657 -0.1576
82448W        W25386   8.724  19.261   3.558  0.3190  0.2365 -0.1924
82449W        W25387  10.935  20.374   1.832 -0.0950  0.0870 -0.2986
82450W        W25388   9.701  18.982   1.803  0.4688  0.0152  0.0422
82451W        W25389   7.751  18.049   1.076  0.1406  0.0169 -0.1324
82452W        W25390   9.969  19.873   2.040  0.0894 -0.0094  0.2579
82453W        W25391  11.288  23.482   2.635  0.0314  0.0903  0.0130
82454W        W25392  11.458  20.258   2.632  0.2094  0.0646  0.2441
82455W        W25393   8.135  20.090   4.530  0.2799 -0.0539 -0.1108
82456W        W25394  10.605  18.337   1.857  0.3538 -0.1476  0.2274
82457W        W25395  10.806  22.134  31.449  0.0121  0.0489  0.0275
82458W        W25396  11.471  20.655   2.266 -0.3208 -0.0674 -0.1442
82459W        W25397   7.991  20.276   0.714 -0.2704  0.0781  0.1984
82460W        W25398   8.319  19.206   0.542  0.0465  0.2015  0.1994
82461W        W25399   8.573  20.112   2.047 -0.2342  0.3560 -0.0027
82462W        W25400  10.960  19.415   2.048  0.0608  0.0308  0.1527
82463W        W25401   9.136  20.091   2.668  0.1180  0.1574  0.3285
82464W        W25402   8.216  20.272   0.187 -0.0952  0.3042 -0.0095
82465W        W25403   7.122  21.891   3.236 -0.1085 -0.0265 -0.0109
82466W        W25404  10.599  17.811   2.049 -0.1406 -0.2246 -0.1877
82467W        W25405   8.814  20.467   0.240 -0.0336 -0.1064 -0.1367
82468W        W25406  10.656  19.407   1.541  0.3497  0.0946 -0.2453
82469W        W25407  11.103  19.905   1.711 -0.1881  0.2654 -0.0561
82470W        W25408  10.503  21.047   0.346 -0.1142  0.0302  0.3455
82471W        W25409  10.746  18.529   4.011  0.0581 -0.2266  0.3618
82472W        W25410   9.499  18.494   2.636  0.0369 -0.0394  0.0796
82473W        W25411  10.525  21.055   0.849 -0.1461  0.0124 -0.0638
82474W        W25412   7.256  18.355   1.881  0.1177  0.0480  0.0048
82475W        W25413   9.698  21.905   3.215 -0.1007 -0.0767  0.2981
82476W        W25414   7.433  21.171   2.753  0.0626 -0.0040 -0.1108
82477W        W25415   9.908  20.291   0.277 -0.1090  0.1721  0.3656
82478W        W25416   8.624  18.055  31.367 -0.1102 -0.0411  0.0668
82479W        W25417   9.432  21.359   2.674 -0.0476 -0.1366  0.0677
82480W        W25418  10.572  21.029   1.477  0.2390 -0.0243 -0.0660
82481W        W25419   8.737  19.238   1.403 -0.1097 -0.2702 -0.0813
82482W        W25420  11.521  19.777   1.330 -0.1046  0.2369 -0.2861
82483W        W25421   8.252  19.759   1.824 -0.4268 -0.1460  0.0967
82484W        W25422  11.231  20.577   0.087 -0.2291  0.0186  0.1154
82485W        W25423  10.037  19.074   1.384  0.0683  0.5978  0.1511
82486W        W25424   7.889  20.852   1.946  0.0170  0.6679 -0.1733
82487W        W25425   9.942  18.475   2.819 -0.2139  0.1734 -0.4957
82488W        W25426  10.835  20.574   0.999 -0.0019 -0.4373 -0.0867
82489W        W25427   8.310  17.899   2.278  0.0101  0.0669  0.0081
82490W        W25428   9.474  17.891   2.457  0.0155 -0.0284  0.2796
82491W        W25429  10.809  19.893   2.798  0.0023 -0.0899  0.3372
82492W        W25430   9.504  20.976   3.113 -0.0689  0.2256 -0.0072
82493W        W25431   7.867  18.883   3.073 -0.3329  0.2143  0.1052
82494W        W25432  10.574  21.101   1.988  0.0503  0.4226  0.2831
82495W        W25433  10.684  19.971  31.490 -0.1328 -0.0364 -0.1765
82496W        W25434  12.065  20.350   2.512 -0.1391  0.0495  0.1509
82497W        W25435  11.531  19.194   1.279  0.3730 -0.1072 -0.0084
82498W        W25436  10.783  18.441  31.592 -0.1366  0.3952  0.1579
82499W        W25437   9.491  19.192   2.406  0.2084  0.0230  0.0717
82500W        W25438  10.656  19.929   1.974 -0.2588  0.1650  0.2611
82501W        W25439   6.871  19.345   0.032 -0.1152 -0.2788  0.0385
82502W        W25440  11.850  19.500   3.768  0.0328  0.0084  0.1026
82503W        W25441   9.971  21.006  31.531  0.3545 -0.0862 -0.2033
82504W        W25442   9.941  20.388   0.773 -0.0478 -0.2589  0.1208
82505W        W25443  10.331  18.373   0.834  0.1570  0.2506 -0.2370
82506W        W25444   8.358  17.010   1.181 -0.0343 -0.2322 -0.0521
82507W        W25445   8.640  21.547   2.310  0.2720 -0.1556 -0.0286
82508W        W25446   7.126  21.014   1.235  0.0540 -0.0613 -0.0570
82509W        W25447   9.179  20.625  31.274  0.1050  0.0413 -0.2324
82510W        W25448  10.361  19.923   2.447  0.1449  0.1707 -0.0799
82511W        W25449   9.508  21.207   3.755  0.1247 -0.0021  0.2114
82512W        W25450   9.745  18.121   1.443  0.1240 -0.3398  0.0355
82513W        W25451  10.682  19.946   3.823  0.1213 -0.0094 -0.1860
82514W        W25452   7.224  22.144   0.612 -0.1536  0.2583 -0.1834
82515W        W25453  10.836  18.275   0.682  0.0357  0.0022 -0.0502
82516W        W25454   9.276  21.455   1.214 -0.1195  0.1503  0.2002
82517W        W25455   6.445  21.487   1.765 -0.5154  0.2030  0.0002
82518W        W25456   8.690  19.778   2.427  0.3719 -0.3076 -0.1787
82519W        W25457  10.652  18.815   1.514  0.0642 -0.1219  0.1044
82520W        W25458  11.016  19.905   2.366  0.3322 -0.1612 -0.0303
82521W        W25459   8.451  19.347   2.115 -0.2053 -0.1896  0.2856
82522W        W25460  10.976  21.180   1.739 -0.1444 -0.2117 -0.0535
82523W        W25461  10.181  19.100   2.625 -0.0899  0.0979  0.0051
82524W        W25462   8.227  20.645   1.062  0.1303 -0.0761  0.1136
82525W        W25463  10.403  19.091   2.015 -0.0111 -0.1128 -0.0055
82526W        W25464  11.406  21.235   0.782  0.0734 -0.0357 -0.2356
82527W        W25465   7.311  20.139   1.904  0.3417  0.3220  0.3422
82528W        W25466   7.670  19.765   2.421 -0.2321  0.1849 -0.1324
82529W        W25467   9.637  19.507   2.777  0.0327  0.0346 -0.0658
82530W        W25468   8.996  20.224   0.704 -0.1020  0.0778 -0.0301
82531W        W25469   8.034  17.223   0.447  0.1404  0.1948 -0.2014
82532W        W25470   9.071  20.923   0.429  0.1583  0.0548 -0.0458
82533W        W25471   7.887  21.745   3.169 -0.1389 -0.0241  0.4186
82534W        W25472   6.743  19.247   3.511  0.0704  0.0071  0.1620
82535W        W25473   8.033  22.962  31.384  0.0253 -0.3236  0.0107
82536W        W25474   9.888  20.327   1.321  0.3741 -0.0546 -0.1511
82537W        W25475   9.535  20.970   0.281 -0.0463  0.0069 -0.1529
82538W        W25476  10.201  22.003   0.419  0.0665 -0.2529  0.2470
82539W        W25477  10.498  20.166  31.907  0.1334 -0.0087  0.1063
82540W        W25478   8.824  21.574   1.582  0.2548 -0.3098 -0.2202
82541W        W25479   8.343  22.791  30.987  0.2697 -0.2302  0.1044
82542W        W25480   9.210  19.353   1.000 -0.0736  0.0742  0.0091
82543W        W25481   8.744  22.169   0.814 -0.1204 -0.0012 -0.2824
82544W        W25482  11.277  20.791   3.781  0.2769  0.0277 -0.2300
82545W        W25483   9.982  18.430   1.130 -0.2233 -0.1626  0.0541
82546W        W25484   9.080  20.783   1.999  0.3706 -0.0097  0.1341
82547W        W25485  11.384  20.094   0.366  0.1199 -0.1953 -0.1153
82548W        W25486   9.722  20.941   2.606  0.1122 -0.0249  0.1808
82549W        W25487   8.433  19.975   3.889  0.2201  0.1571  0.1793
82550W        W25488   8.539  20.055  30.838 -0.4294  0.0963 -0.1788
82551W        W25489   8.259  20.478   2.333  0.1789 -0.0647  0.2723
82552W        W25490  11.173  18.568   3.713 -0.0086  0.4286  0.0362
82553W        W25491   9.282  21.659   3.617 -0.2512 -0.0038  0.1013
82554W        W25492  12.885  22.078  31.885 -0.0759  0.2244 -0.1281
82555W        W25493   8.403  19.655   1.307  0.2309 -0.0498  0.0529
82556W        W25494   8.813  19.768   2.884  0.1828 -0.2626 -0.0765
82557W        W25495  11.303  18.351   2.654  0.1757  0.1294 -0.0286
82558W        W25496   9.401  20.327   1.199  0.2863 -0.5352 -0.0383
82559W        W25497   9.798  18.255   2.366 -0.0693  0.0795 -0.1363
82560W        W25498   8.922  21.449   0.274 -0.1172  0.0020  0.0404
82561W        W25499   8.515  20.277   3.196 -0.1814  0.0579 -0.1858
82562W        W25500   8.115  20.961   3.058 -0.0111 -0.1102 -0.0860
82563W        W25501   8.246  18.280   0.069 -0.1224  0.0771  0.1233
82564W        W25502  11.444  18.877   1.635 -0.1314  0.0437 -0.1846
82565W        W25503   9.933  20.022   2.680  0.3616 -0.0904  0.1095
82566W        W25504  11.483  18.160   1.691 -0.0955  0.0689 -0.1957
82567W        W25505   9.250  18.525   1.000  0.0951 -0.1350  0.0457
82568W        W25506  11.457  19.706   1.998  0.1404  0.2547  0.0539
82569W        W25507   9.533  20.018   0.698 -0.0583  0.1041 -0.0791
82570W        W25508   8.392  18.799   1.988  0.1382  0.0254  0.0216
82571W        W25509  10.086  18.574   0.448 -0.0477  0.0827 -0.1399
82572W        W25510   9.453  20.577   3.527  0.0000 -0.0101 -0.0780
82573W        W25511   9.770  19.369  30.748  0.1498  0.1781  0.0423
82574W        W25512   9.794  22.504   3.957  0.0121  0.0279  0.0798
82575W        W25513   8.720  18.263   0.295  0.2176  0.2604  0.0111
82576W        W25514   9.575  19.482   0.722  0.0905  0.0939 -0.1921
82577W        W25515   8.665  20.840   2.373 -0.2286 -0.0705 -0.1273
82578W        W25516   8.281  19.262   1.657  0.0274 -0.0643  0.0297
82579W        W25517   9.908  20.364   3.309  0.0312  0.1899  0.1142
82580W        W25518   8.750  18.468   2.200 -0.0918  0.2140  0.0769
82581W        W25519  11.279  22.555  30.292 -0.0822 -0.2116  0.0387
82582W        W25520  10.711  20.018   0.810  0.0651  0.0244  0.1286
82583W        W25521   9.678  20.613  31.907 -0.1369 -0.0953 -0.0779
82584W        W25522  11.060  20.810   1.498  0.1051  0.1212 -0.1882
82585W        W25523  12.562  21.041   0.570 -0.1846 -0.2189  0.3508
82586W        W25524   9.078  19.870   1.998  0.0976 -0.0929  0.1530
82587W        W25525   9.571  20.874   1.735  0.2550  0.0671  0.1605
82588W        W25526  10.433  21.508   0.550 -0.1217 -0.0258  0.1430
82589W        W25527  10.460  19.214   1.127 -0.0273  0.2842  0.1031
82590W        W25528   8.397  19.237   1.030  0.3627 -0.3370 -0.0352
82591W        W25529   7.729  20.702   0.988  0.0475  0.2663 -0.1758
82592W        W25530  11.814  20.037   2.230  0.0990  0.0065 -0.2869
82593W        W25531  10.478  18.257   3.660  0.2097 -0.3311 -0.0381
82594W        W25532   9.433  20.979  31.044 -0.1318 -0.2898 -0.1812
82595W        W25533  11.210  17.156   3.688  0.2558 -0.2970 -0.0972
82596W        W25534  10.150  20.809   2.263 -0.0148 -0.1071  0.2074
82597W        W25535   8.617  20.994   4.735 -0.0107  0.4257 -0.1707
82598W        W25536   7.145  19.971   0.592 -0.0157 -0.0785 -0.1056
82599W        W25537   9.510  20.113   3.432 -0.2293  0.0181 -0.1185
82600W        W25538   8.950  19.644   0.128  0.1066 -0.3779  0.0272
82601W        W25539   9.172  21.205   1.688  0.0010  0.0354  0.1157
82602W        W25540  10.703  22.108   2.281 -0.1735 -0.3008 -0.0108
82603W        W25541  11.494  19.718   2.502 -0.0188  0.3544  0.0076
82604W        W25542  11.392  21.763   0.742  0.1097 -0.1654 -0.2834
82605W        W25543   8.324  18.250   0.654 -0.0250  0.3669 -0.0887
82606W        W25544  10.918  18.425   1.304 -0.2658 -0.2237  0.0664
82607W        W25545  11.127  18.637   0.412 -0.2583  0.0887  0.1536
82608W        W25546   9.883  20.851   3.345 -0.3751  0.2165 -0.1400
82609W        W25547   8.225  19.641   0.231  0.0598  0.4521  0.1110
82610W        W25548   7.628  21.109  31.832 -0.0439  0.2436  0.0673
82611W        W25549   7.942  20.450   1.390 -0.0633 -0.0805 -0.3656
82612W        W25550  10.497  17.313   3.846 -0.1801 -0.1242 -0.1993
82613W        W25551   7.624  19.316   3.278  0.0607 -0.1992 -0.1161
82614W        W25552   6.536  20.613   1.747  0.4031 -0.1091 -0.0371
82615W        W25553   9.027  17.495   0.617  0.0557  0.3678  0.2687
82616W        W25554  11.248  22.050  30.082  0.0796  0.2361  0.0507
82617W        W25555   8.283  18.487  31.517 -0.0236  0.0135  0.0505
82618W        W25556   7.760  18.593   1.036  0.0925  0.1085 -0.1050
82619W        W25557  10.528  21.936   0.785 -0.2987 -0.2195  0.1759
82620W        W25558   9.439  19.803   1.131  0.0294 -0.0149 -0.1831
82621W        W25559  11.588  17.596   1.492 -0.0653  0.2530  0.0646
82622W        W25560  10.920  21.759   1.877  0.1262 -0.0368  0.1890
82623W        W25561   7.338  20.097   0.128  0.3160  0.2162  0.2651
82624W        W25562   9.044  18.316   2.539  0.2436 -0.3024 -0.1849
82625W        W25563   7.965  19.365   2.608 -0.3860  0.1725  0.2285
82626W        W25564   9.117  18.633   0.535 -0.4132  0.2223 -0.1468
82627W        W25565  10.158  20.732   1.400  0.1186  0.1341 -0.1680
82628W        W25566   9.185  20.566   1.539 -0.1563  0.2926  0.1652
82629W        W25567  10.009  21.092   0.110  0.1769 -0.0664  0.3158
82630W        W25568   9.252  19.274   1.921 -0.0930 -0.1359 -0.0512
82631W        W25569   9.906  22.146   1.661 -0.3990  0.2760 -0.2442
82632W        W25570   9.573  17.895   1.851 -0.1478  0.3406 -0.1057
82633W        W25571  10.941  19.521   0.135  0.3493  0.2596 -0.1116
82634W        W25572   9.473  20.353   2.460  0.2099 -0.2395  0.2163
82635W        W25573  10.637  21.499   1.066 -0.2582  0.2774 -0.0192
82636W        W25574  12.354  19.350   2.894 -0.1444  0.0530 -0.0991
82637W        W25575   9.158  19.492   1.484  0.0750 -0.0753 -0.3281
82638W        W25576   8.985  17.351   2.337  0.0832  0.0987 -0.1377
82639W        W25577   8.086  20.973   3.543  0.2343  0.1768 -0.0308
82640W        W25578  12.290  21.436   0.329 -0.1060  0.1716 -0.2240
82641W        W25579   8.657  17.347   0.941  0.2434  0.0959 -0.2557
82642W        W25580  11.000  19.473   1.077 -0.1139  0.0987  0.2440
82643W        W25581   9.577  20.105  31.950  0.3082  0.2758 -0.1160
82644W        W25582   7.936  19.408   2.051  0.1758 -0.1288  0.2134
82645W        W25583   9.478  20.572   0.755 -0.3816  0.3598  0.0993
82646W        W25584  11.032  20.276   3.073  0.1079 -0.2292 -0.2241
82647W        W25585  10.966  20.859   0.593  0.0362 -0.0797 -0.0022
82648W        W25586  10.143  18.884   3.062 -0.1386  0.0145 -0.2681
82649W        W25587   9.136  19.716   0.698 -0.1166 -0.2531  0.0430
82650W        W25588  12.574  20.383  30.211  0.1717  0.2412  0.0020
82651W        W25589  10.954  21.689   3.108  0.0806 -0.1465 -0.0325
82652W        W25590  12.182  22.522   3.117  0.0211 -0.1796 -0.3496
82653W        W25591   9.021  21.278   2.474 -0.1575  0.2079  0.2002
82654W        W25592   9.451  20.425   2.989 -0.0289 -0.2413  0.2232
82655W        W25593   8.797  18.428   0.855 -0.1516  0.0074 -0.2325
82656W        W25594   8.853  18.925   0.962 -0.0843 -0.2707 -0.0221
82657W        W25595   9.749  19.423   2.029 -0.0483  0.1518 -0.0630
82658W        W25596   9.740  18.680   0.785 -0.1485  0.0815  0.3148
82659W        W25597   9.136  18.142   0.616 -0.0592 -0.0337  0.1065
82660W        W25598  10.312  17.359   1.345  0.1808  0.0867 -0.2567
82661W        W25599   8.321  21.239   2.694  0.0503 -0.2015 -0.2824
82662W        W25600   9.470  20.310   1.827 -0.1897 -0.0526  0.0123
82663W        W25601   9.093  20.451   6.724  0.3565 -0.1296 -0.0003
82664W        W25602  10.408  20.247   3.435 -0.0009  0.2583  0.1959
82665W        W25603  11.825  20.432   4.075 -0.0069  0.1758  0.1978
82666W        W25604   9.019  20.305   3.182 -0.1855  0.4082 -0.0783
82667W        W25605   8.409  19.285   5.623  0.1679 -0.0165 -0.5171
82668W        W25606  10.320  20.462   4.598  0.0439 -0.3912 -0.1609
82669W        W25607   8.943  19.280   7.202  0.0178 -0.0044 -0.0929
82670W        W25608  10.467  19.965   4.380  0.0486 -0.1419  0.1404
82671W        W25609  10.031  21.683   5.680 -0.1516 -0.2227  0.0217
82672W        W25610  10.381  20.440   2.505 -0.1189 -0.0172  0.0910
82673W        W25611   8.431  20.187   6.062 -0.1376 -0.1974  0.0040
82674W        W25612   8.962  23.091   7.087  0.0636  0.0641  0.1180
82675W        W25613   9.465  19.747   3.951  0.0126 -0.1868  0.1451
82676W        W25614   9.108  18.232   4.528  0.0222 -0.0613  0.0015
82677W        W25615  10.899  20.606   5.567  0.3061 -0.3707 -0.0911
82678W        W25616   8.820  19.257   5.224 -0.2648 -0.1435  0.2497
82679W        W25617   8.983  18.782   7.265 -0.0274  0.0932 -0.0689
82680W        W25618   9.835  19.894   4.228  0.1553  0.3959 -0.2380
82681W        W25619   9.756  21.389   3.117  0.0740 -0.1651 -0.1452
82682W        W25620   9.385  18.613   7.626  0.2258  0.0109 -0.1228
82683W        W25621   9.774  17.720   7.765 -0.4048 -0.0502 -0.1793
82684W        W25622   9.496  20.243   3.936 -0.0960  0.3049  0.1676
82685W        W25623   7.168  19.553   2.508 -0.2234  0.0791 -0.2944
82686W        W25624   8.041  18.730   4.823  0.2182  0.0205  0.1235
82687W        W25625   9.732  18.368   7.191  0.4625  0.1170 -0.1501
82688W        W25626  10.808  19.455   3.634  0.2693  0.0620 -0.1522
82689W        W25627  10.764  19.541   4.204  0.1812  0.3680  0.0375
82690W        W25628   9.184  20.475   6.100 -0.2803 -0.0190 -0.3915
82691W        W25629   9.359  20.922   5.354 -0.4506  0.2013 -0.2143
82692W        W25630  10.036  18.974   6.470  0.3574 -0.0083  0.0166
82693W        W25631   6.393  19.745   6.052  0.2522 -0.0725  0.0262
82694W        W25632   7.573  21.001   4.614  0.1575 -0.0566  0.0166
82695W        W25633   8.640  21.415   5.724  0.0531  0.1175  0.0136
82696W        W25634  11.957  21.326   4.282  0.0330  0.0216 -0.1379
82697W        W25635   9.201  21.379   5.527  0.0545 -0.2054  0.2540
82698W        W25636   8.516  22.318   6.515 -0.1562 -0.1330 -0.0385
82699W        W25637   6.595  20.659   2.973 -0.0384  0.0052  0.0260
82700W        W25638  10.553  22.085   6.916  0.0151  0.1529 -0.1188
82701W        W25639   7.840  22.993   6.448  0.2036 -0.1158 -0.3354
82702W        W25640  10.126  20.329   8.297 -0.2278  0.0141 -0.0344
82703W        W25641   8.909  20.637   4.995 -0.0395 -0.0378 -0.2608
82704W        W25642   9.391  20.343   5.106  0.1617  0.0248 -0.2026
82705W        W25643   8.859  20.200   5.770 -0.1142  0.1286  0.0812
82706W        W25644   8.338  20.898   7.572 -0.1164 -0.0711 -0.0997
82707W        W25645   7.521  20.243   4.076 -0.2719  0.1448 -0.0933
82708W        W25646   9.873  18.881   7.027  0.2322 -0.0512  0.0104
82709W        W25647   8.682  22.537   3.843 -0.0206  0.1133 -0.2044
82710W        W25648  11.483  21.588   4.191 -0.2083  0.0656  0.0306
82711W        W25649   8.150  18.471   2.320  0.0061  0.1680  0.1622
82712W        W25650  11.460  20.453   4.566  0.0440  0.2278  0.1652
82713W        W25651   9.514  18.000   4.947 -0.2638  0.0162 -0.0739
82714W        W25652   9.552  22.431   6.105 -0.1059 -0.0002  0.0783
82715W        W25653   9.496  18.609   6.797  0.1826 -0.0159  0.0888
82716W        W25654  11.135  20.959   6.834  0.0953  0.1187 -0.2988
82717W        W25655   8.592  19.440   4.757  0.0475 -0.2112  0.1048
82718W        W25656   9.791  18.395   5.268 -0.1466 -0.2373 -0.0360
82719W        W25657   8.125  21.344   5.789  0.0238 -0.0689 -0.0666
82720W        W25658   9.403  20.041   5.951 -0.0522 -0.2259 -0.2826
82721W        W25659  11.661  22.187   2.422 -0.2408 -0.1980  0.0237
82722W        W25660  11.731  22.146   5.998  0.1312 -0.2426 -0.2379
82723W        W25661   8.761  22.101   3.680  0.3030 -0.0970  0.1636
82724W        W25662   9.158  20.150   4.261 -0.1564  0.1970 -0.0589
82725W        W25663   8.074  21.923   6.618  0.0357  0.1676 -0.0157
82726W        W25664   8.728  18.952   6.096  0.0044  0.2788  0.2376
82727W        W25665   7.831  16.608   3.550 -0.0578 -0.3473  0.2731
82728W        W25666  10.442  20.572   6.842 -0.0739  0.2545  0.1218
82729W        W25667   8.342  21.116   6.170 -0.0522 -0.0078  0.1661
82730W        W25668  10.603  19.109   4.775 -0.0015  0.0529  0.2080
82731W        W25669   9.547  19.764   5.030  0.5054 -0.1183  0.1873
82732W        W25670  11.291  20.309   6.210  0.3253  0.2313 -0.1191
82733W        W25671   9.286  21.661   3.090 -0.2694 -0.0082 -0.3948
82734W        W25672  10.981  17.773   4.728  0.3383 -0.1989  0.1843
82735W        W25673  11.012  18.446   8.302 -0.3661  0.0219 -0.0289
82736W        W25674   6.943  19.298   4.125 -0.2547 -0.2561  0.1759
82737W        W25675   9.866  20.388   4.340 -0.0785 -0.1931 -0.5919
82738W        W25676  10.247  20.947   5.578  0.0230  0.0065  0.3045
82739W        W25677  11.188  19.752   3.849  0.0021 -0.1090 -0.1686
82740W        W25678   7.447  22.611   6.420 -0.3159 -0.2003 -0.2166
82741W        W25679  10.362  19.650   8.602 -0.0501  0.2312 -0.3979
82742W        W25680   9.033  20.823   6.374 -0.0360 -0.1997  0.5038
82743W        W25681   7.625  21.787   2.489 -0.1058 -0.1961 -0.2825
82744W        W25682   6.617  19.749   4.221 -0.2816  0.0869 -0.1985
82745W        W25683   8.351  20.490   3.659 -0.0576 -0.1044  0.3461
82746W        W25684   8.918  18.544   4.930 -0.1922  0.0066 -0.0388
82747W        W25685   9.696  21.043   5.862 -0.1042 -0.0101  0.1306
82748W        W25686  10.898  18.107   6.463 -0.1403 -0.0222 -0.2539
82749W        W25687   8.196  19.109   7.068  0.1286 -0.1271 -0.1174
82750W        W25688   9.756  17.544   4.496  0.0467 -0.1147 -0.0943
82751W        W25689   7.959  18.716   5.396  0.2546  0.0010 -0.1431
82752W        W25690  12.613  21.763   3.139 -0.0123 -0.1105  0.3266
82753W        W25691  11.088  19.213   4.536  0.2244 -0.4365  0.3242
82754W        W25692  10.455  19.733   3.350 -0.2348  0.1897  0.2617
82755W        W25693   8.103  19.356   6.196  0.0455  0.0332  0.0725
82756W        W25694   9.205  19.240   3.642  0.1093  0.0509 -0.1378
82757W        W25695   8.184  18.940   8.093  0.0582  0.0831  0.0972
82758W        W25696   7.676  18.385   4.547  0.1144  0.0546 -0.0468
82759W        W25697  10.063  20.399   5.483  0.2616  0.0346 -0.0652
82760W        W25698   8.121  18.313   4.310 -0.2566  0.1286  0.1592
82761W        W25699   9.819  20.832   5.131  0.1523 -0.0381 -0.0482
82762W        W25700   9.232  20.633   4.099  0.1362  0.2161 -0.2030
82763W        W25701   7.053  21.113   4.673  0.1655  0.2277  0.2912
82764W        W25702  10.523  19.496   8.094  0.1436  0.0398  0.0321
82765W        W25703   9.269  21.986   3.964 -0.0326 -0.1582  0.0114
82766W        W25704  10.811  22.212   5.529 -0.1059 -0.1513 -0.0419
82767W        W25705  11.421  22.521   4.676 -0.2372  0.0484 -0.2962
82768W        W25706   9.420  19.511   7.210  0.0415 -0.1380  0.2470
82769W        W25707   7.302  18.880   3.207 -0.0521  0.1963  0.0079
82770W        W25708   9.212  21.889   4.467  0.0076  0.0888 -0.3332
82771W        W25709   8.879  21.796   5.398 -0.1322  0.0522 -0.1859
82772W        W25710   9.957  19.718   4.680 -0.1922  0.1571  0.3116
82773W        W25711  11.296  22.441   5.397 -0.2978  0.2205 -0.2071
82774W        W25712  10.353  20.272   4.024  0.0472  0.2029 -0.1570
82775W        W25713   8.292  20.156   7.047 -0.0644 -0.0153  0.3084
82776W        W25714  11.588  19.047   7.474 -0.1434  0.1173 -0.0053
82777W        W25715  10.285  20.537   5.093  0.1430 -0.2598 -0.1570
82778W        W25716  11.239  20.772   5.858 -0.1125  0.1333  0.0353
82779W        W25717   7.170  19.422   3.052  0.0254  0.3364 -0.0827
82780W        W25718  10.905  21.913   5.004 -0.1570  0.1737 -0.2259
82781W        W25719   9.188  21.076   4.324  0.2116  0.0243  0.0861
82782W        W25720   8.734  20.145   5.211 -0.0316  0.1669  0.0096
82783W        W25721  10.442  22.763   6.041 -0.1405 -0.3457 -0.2052
82784W        W25722  10.001  18.472   4.355 -0.0346  0.1122  0.1675
82785W        W25723   7.427  19.151   5.688 -0.1350 -0.2571 -0.4206
82786W        W25724  10.588  19.607   6.166 -0.0996 -0.1289 -0.0758
82787W        W25725   8.100  19.654   4.839 -0.1599  0.0111  0.0959
82788W        W25726   7.539  21.965   5.600  0.0358  0.1365 -0.2205
82789W        W25727  10.608  19.735   5.340 -0.1196 -0.1132  0.1455
82790W        W25728   9.992  19.350   3.227  0.2495  0.1866  0.0007
82791W        W25729   9.212  20.949   5.880  0.0175 -0.3389 -0.2582
82792W        W25730  10.407  20.937   6.368  0.0491  0.4325 -0.2363
82793W        W25731  11.581  19.324   3.075  0.0067 -0.0974  0.2813
82794W        W25732   9.903  17.026   2.973 -0.0851  0.1094  0.2994
82795W        W25733   7.434  21.132   7.236 -0.1016 -0.0306 -0.0548
82796W        W25734  11.324  20.324   5.668  0.0209 -0.1361 -0.0346
82797W        W25735  10.645  19.607   6.691 -0.0092 -0.0211  0.0831
82798W        W25736   9.928  18.276   3.345 -0.1661  0.0525  0.1698
82799W        W25737  10.927  21.179   3.303  0.2919  0.0357 -0.1895
82800W        W25738   8.158  20.613   5.204 -0.0506 -0.0444 -0.1994
82801W        W25739   9.754  20.054   8.492  0.2016 -0.3724 -0.1904
82802W        W25740  11.271  21.396   4.563  0.1806 -0.0796  0.2098
82803W        W25741   9.795  19.268   4.986 -0.1042  0.2002 -0.0388
82804W        W25742   8.592  19.850   3.397  0.2488  0.1978  0.1122
82805W        W25743  10.634  20.082   4.963 -0.0033  0.0668  0.3129
82806W        W25744   9.407  22.119   2.905  0.2903  0.1592 -0.1657
82807W        W25745  10.165  18.062   5.286  0.1998  0.1758  0.2152
82808W        W25746   9.569  18.971   4.601 -0.2332  0.0149  0.0253
82809W        W25747   8.622  18.718   8.027 -0.2258 -0.1932 -0.0786
82810W        W25748  10.537  19.761   7.171  0.1579 -0.1381 -0.2873
82811W        W25749  10.289  19.406   4.533 -0.4034 -0.0184  0.1336
82812W        W25750  10.139  21.260   5.091  0.3236 -0.1288 -0.0182
82813W        W25751   8.360  19.530   3.026 -0.3771 -0.0087  0.0968
82814W        W25752  10.634  19.136   6.564 -0.1560 -0.0638  0.1234
82815W        W25753   8.869  19.815   7.152 -0.1679  0.1337 -0.2869
82816W        W25754   6.310  20.699   5.636  0.1921  0.0720  0.0105
82817W        W25755   9.966  19.766   6.942 -0.0187  0.1054  0.3460
82818W        W25756   8.825  21.144   6.069 -0.1678  0.1530 -0.1637
82819W        W25757  10.780  18.907   6.114 -0.2457  0.4015  0.0401
82820W        W25758   9.912  20.513   3.795 -0.2464 -0.0737 -0.1572
82821W        W25759   9.175  21.819   4.949  0.2050 -0.2031  0.0699
82822W        W25760   9.869  19.923   3.710 -0.1303 -0.0276  0.0615
82823W        W25761   9.607  19.160   5.603 -0.0020 -0.3651 -0.1569
82824W        W25762   9.622  21.861   5.252  0.0784 -0.0405 -0.0511
82825W        W25763  10.597  20.416   6.368 -0.0698 -0.2525  0.0287
82826W        W25764  10.743  20.556   5.084  0.0807 -0.0263 -0.0475
82827W        W25765   8.708  21.210   4.234  0.3581 -0.0258 -0.2598
82828W        W25766  10.887  18.417   6.023  0.2207 -0.0723 -0.0355
82829W        W25767   7.932  20.927   5.508  0.1403 -0.0786  0.1025
82830W        W25768   8.648  19.313   2.617 -0.0189  0.1815  0.3914
82831W        W25769   8.416  18.994   3.842 -0.0629  0.2264 -0.1065
82832W        W25770   9.948  18.809   3.586  0.3880 -0.1338 -0.3620
82833W        W25771  10.858  21.173   4.865  0.0109  0.1261  0.1647
82834W        W25772   7.815  16.966   5.436 -0.0459 -0.5121 -0.0123
82835W        W25773   9.459  19.642   6.337 -0.0087 -0.1712 -0.2314
82836W        W25774   8.378  20.905   5.747  0.2078  0.1641 -0.1168
82837W        W25775   9.470  20.100   6.951  0.0394 -0.0215  0.0371
82838W        W25776  10.103  20.500   6.522  0.1146  0.2282 -0.0364
82839W        W25777   9.463  21.787   5.789  0.0588 -0.2088  0.2700
82840W        W25778   9.762  19.957   6.547 -0.3071  0.2050 -0.0521
82841W        W25779   8.371  18.076   3.482 -0.0285 -0.1983  0.3133
82842W        W25780  11.709  19.964   7.651 -0.3151 -0.1590  0.0477
82843W        W25781   8.556  19.919   4.834 -0.0878  0.2142  0.1024
82844W        W25782   8.280  20.880   4.290 -0.0526 -0.1418 -0.2951
82845W        W25783  10.428  20.572   5.807  0.0379 -0.2067 -0.0751
82846W        W25784   9.120  19.398   3.143  0.0235 -0.2597  0.0395
82847W        W25785   7.514  20.017   4.619  0.0582  0.2243  0.0166
82848W        W25786   8.211  19.642   7.139  0.1793 -0.3686  0.0317
82849W        W25787  11.156  19.309   5.968  0.2018 -0.0804 -0.1843
82850W        W25788   8.651  19.951   6.716  0.2093 -0.0420 -0.0349
82851W        W25789   9.200  18.969   5.032 -0.1330  0.0856  0.0587
82852W        W25790   9.695  20.286   6.214 -0.1152  0.1098  0.1416
82853W        W25791  10.218  20.081   6.237 -0.1644  0.1674 -0.2609
82854W        W25792  10.265  19.991   5.700 -0.0621  0.2361  0.2672
82855W        W25793   7.874  21.436   6.787 -0.1284 -0.0887 -0.1192
82856W        W25794   9.016  18.018   5.784 -0.4448 -0.1034 -0.0992
82857W        W25795  11.388  21.607   2.415 -0.2744  0.0956 -0.0638
82858W        W25796  10.173  19.586   6.374 -0.0552 -0.1590  0.1195
82859W        W25797   8.974  20.910   3.688  0.0548 -0.1083 -0.2840
82860W        W25798   8.380  20.063   5.593 -0.1749  0.1490  0.0714
82861W        W25799   8.654  21.812   4.627 -0.1225 -0.2581  0.0556
82862W        W25800   9.913  19.791   5.983  0.0991 -0.0382  0.0830
82863W        W25801   8.738  20.634   5.994 -0.1017  0.1072 -0.1956
82864W        W25802  10.351  21.026   4.720  0.0505  0.0299 -0.4050
82865W        W25803   8.589  20.556   5.504 -0.0329  0.0692 -0.1112
82866W        W25804  10.034  17.925   3.697  0.4321  0.0747  0.1788
82867W        W25805   9.096  21.654   2.010  0.0481  0.0128 -0.2145
82868W        W25806  10.409  20.044   6.730  0.0793  0.0604  0.1688
82869W        W25807  10.096  18.509   7.842  0.2723 -0.0592 -0.0260
82870W        W25808  11.565  19.391   4.706 -0.1620  0.3166 -0.2126
82871W        W25809  10.678  19.286   8.520  0.0598  0.1876 -0.2126
82872W        W25810   9.788  19.317   6.104  0.2893 -0.1925  0.1783
82873W        W25811  11.372  22.116   4.989 -0.4272 -0.4286 -0.1153
82874W        W25812   7.272  19.552   4.998 -0.0625 -0.3391  0.0039
82875W        W25813   9.066  22.094   5.851 -0.1693  0.1678 -0.1154
82876W        W25814   8.513  19.832   7.541 -0.0448  0.0211  0.0404
82877W        W25815  10.480  19.226   3.299  0.4632 -0.0003 -0.1308
82878W        W25816   9.378  18.774   3.843 -0.1404 -0.0556  0.1102
82879W        W25817  10.024  20.719   6.040  0.0572  0.0415 -0.0338
82880W        W25818  10.040  18.323   4.845 -0.2626 -0.3174  0.1590
82881W        W25819  10.007  19.892   3.244  0.0872  0.1762 -0.1450
82882W        W25820  10.924  20.809   6.282  0.1231 -0.1507  0.2447
82883W        W25821   9.809  19.821   7.447 -0.3447 -0.1382  0.2406
82884W        W25822  11.572  20.040   4.831  0.1387 -0.1377  0.1294
82885W        W25823  10.240  21.616   3.015 -0.0840  0.2326 -0.2003
82886W        W25824   8.487  20.953   5.236 -0.2112  0.2615  0.4373
82887W        W25825   9.187  18.725   8.156  0.4371 -0.2587  0.0676
82888W        W25826  10.991  21.066   5.435 -0.1415  0.0437  0.0065
82889W        W25827   9.905  20.263   4.867  0.0073  0.2959  0.1781
82890W        W25828   9.654  19.372   6.763 -0.0313 -0.2632  0.2127
82891W        W25829  10.220  19.251   6.880  0.1979 -0.0150 -0.0746
82892W        W25830   9.493  18.994   6.459  0.0055  0.0614  0.0454
82893W        W25831   8.181  18.839   6.057 -0.1523 -0.2179  0.0443
82894W        W25832  10.344  21.642   6.815  0.1777 -0.0347 -0.1059
82895W        W25833  11.350  18.399   4.193  0.0987 -0.2676  0.4268
82896W        W25834  10.263  19.178   6.055  0.1522  0.1434  0.1014
82897W        W25835  11.268  20.820   3.203 -0.1166  0.3575 -0.1837
82898W        W25836  11.469  20.129   3.580 -0.0340  0.3972  0.2071
82899W        W25837   7.544  20.314   5.257 -0.3875 -0.4279 -0.0968
82900W        W25838   9.919  19.571   8.739  0.0760  0.3078  0.0841
82901W        W25839   8.497  20.395   4.806 -0.1783  0.3715  0.1370
82902W        W25840  10.957  19.384   6.965  0.0953  0.2131  0.0715
82903W        W25841   8.794  21.873   4.167 -0.0552  0.2726  0.0408
82904W        W25842  10.306  22.641   4.798  0.1395 -0.1751  0.0400
82905W        W25843   9.400  20.434   4.575 -0.0031 -0.1628 -0.1376
82906W        W25844   8.346  19.122   5.101  0.0218 -0.2240 -0.2636
82907W        W25845   9.769  22.770   7.163 -0.3915 -0.0819  0.1839
82908W        W25846   9.089  19.070   2.725  0.1105 -0.0694  0.1045
82909W        W25847  10.951  19.453   3.083 -0.0733  0.1262  0.0640
82910W        W25848   9.774  21.298   4.648  0.0559  0.0103  0.1146
82911W        W25849  10.578  20.835   8.274 -0.0189  0.2131 -0.2293
82912W        W25850  10.176  18.930   4.366 -0.0786  0.1418  0.2092
82913W        W25851  10.819  18.992   7.958 -0.2078 -0.2426  0.0904
82914W        W25852   8.696  21.468   3.690 -0.0482  0.0224  0.2185
82915W        W25853  10.229  20.005   5.192  0.2936 -0.2777  0.2423
82916W        W25854   8.906  22.511   6.113  0.0702 -0.2164  0.2090
82917W        W25855   8.529  19.425   6.836  0.0511  0.1096  0.3022
82918W        W25856   9.135  20.493   5.459 -0.1422 -0.0405 -0.1849
82919W        W25857   9.403  18.986   7.249  0.1713  0.2564  0.2170
82920W        W25858  10.294  19.073   5.199 -0.3164 -0.0194 -0.3553
82921W        W25859   9.563  20.775   6.247  0.1293  0.3181  0.0176
82922W        W25860  11.050  19.405   6.432 -0.0049 -0.0406  0.1298
82923W        W25861  11.624  21.157   7.091 -0.0490 -0.2802  0.0536
82924W        W25862   9.277  18.937   5.974 -0.0493  0.0417  0.0732
82925W        W25863   9.004  21.811   6.681  0.2520  0.0714 -0.5379
82926W        W25864  10.228  20.744   4.211 -0.2031 -0.1024  0.1552
82927W        W25865   9.472  20.928   4.809 -0.0363 -0.0353 -0.2808
82928W        W25866   7.360  19.092   5.201  0.0299 -0.1022  0.0619
82929W        W25867   9.335  20.041   7.486 -0.0910  0.1173 -0.0867
82930W        W25868  11.485  20.810   5.415  0.3156 -0.4008 -0.0611
82931W        W25869   9.068  18.843   3.418 -0.2194 -0.1971  0.1875
82932W        W25870   7.878  20.558   3.362  0.2139 -0.2812 -0.0562
82933W        W25871   7.448  21.461   5.895  0.1538 -0.1368 -0.1308
82934W        W25872   9.668  18.853   5.173  0.0071 -0.0347 -0.1482
82935W        W25873   9.867  22.880   4.322 -0.0290  0.1136 -0.0750
82936W        W25874   8.585  20.812   2.850 -0.1940  0.0797  0.1394
82937W        W25875  10.772  22.410   5.031  0.0221  0.0204 -0.2284
82938W        W25876   9.514  22.655   5.148 -0.1281 -0.0154 -0.0563
82939W        W25877  11.079  18.804   4.217 -0.2096  0.1713 -0.0493
82940W        W25878   8.351  21.689   5.391 -0.1800  0.0044 -0.1392
82941W        W25879   7.822  21.496   3.798 -0.0367  0.3079  0.1767
82942W        W25880  10.548  21.197   4.258 -0.0461 -0.2279  0.0975
82943W        W25881   7.790  21.111   4.204  0.0234  0.0782 -0.2301
82944W        W25882   9.954  21.159   6.433 -0.1993 -0.1954  0.0584
82945W        W25883  11.838  18.474   3.125  0.0573  0.0985 -0.0128
82946W        W25884  12.063  19.862   4.785  0.1239  0.0581  0.2370
82947W        W25885  11.327  17.191   5.138 -0.0348 -0.1570 -0.3301
82948W        W25886   9.556  20.556   5.692  0.0497 -0.0407 -0.1460
82949W        W25887  10.819  20.248   5.895 -0.0557 -0.2089  0.1469
82950W        W25888   9.472  18.002   3.580  0.1402  0.3358 -0.2777
82951W        W25889   8.995  19.659   7.589  0.3416  0.0911  0.5205
82952W        W25890  11.047  19.017   7.303  0.0513  0.0540  0.0941
82953W        W25891   7.808  20.942   6.033 -0.3510 -0.3617 -0.0879
82954W        W25892  11.036  21.745   3.612 -0.1988  0.1525 -0.0697
82955W        W25893   8.616  20.072   4.343 -0.0271 -0.2116 -0.0613
82956W        W25894   9.954  20.765   4.669  0.0630 -0.3284 -0.0502
82957W        W25895  10.282  19.058   7.359  0.1138 -0.3573  0.2318
82958W        W25896   8.133  20.506   2.824  0.1751 -0.0672  0.0061
82959W        W25897   9.751  20.008   5.540 -0.2411  0.0232 -0.0998
82960W        W25898   8.930  22.243   4.732  0.1950  0.0365 -0.2163
82961W        W25899  10.111  21.738   5.135  0.1687  0.3105 -0.0829
82962W        W25900   8.878  21.012   5.519 -0.1915 -0.1036 -0.1602
82963W        W25901   6.343  19.536   3.839 -0.0006  0.2105  0.3506
82964W        W25902  11.858  19.398   5.130 -0.0294 -0.0977  0.4089
82965W        W25903   9.216  18.354   7.250  0.0726  0.0880 -0.0541
82966W        W25904  11.002  19.876   6.921 -0.0026 -0.1345 -0.1094
82967W        W25905   8.326  19.647   4.395 -0.0509  0.0833  0.3460
82968W        W25906  11.145  20.836   5.061 -0.0902  0.4898 -0.2213
82969W        W25907   9.469  19.871   4.577  0.1249 -0.2323  0.1471
82970W        W25908   8.944  19.133   5.687 -0.1982 -0.1382  0.0647
82971W        W25909   9.682  18.906   2.793 -0.2192  0.0399 -0.1708
82972W        W25910  10.604  21.439   6.184 -0.0627  0.2256  0.1578
82973W        W25911   9.158  19.541   2.591  0.2708  0.2154  0.0092
82974W        W25912   9.866  22.036   7.562  0.0962 -0.0221 -0.0324
82975W        W25913   9.367  19.592   5.802 -0.0613  0.0219 -0.0751
82976W        W25914   9.026  21.025   3.085 -0.1853  0.0849  0.0080
82977W        W25915   8.974  19.716   5.036  0.0483 -0.0276  0.1860
82978W        W25916   9.981  20.274   6.937  0.2792  0.4365 -0.0043
82979W        W25917   9.381  21.460   6.867 -0.0210 -0.1662 -0.1691
82980W        W25918   7.779  18.199   3.861  0.0008  0.2179  0.1605
82981W        W25919  10.901  20.542   4.049 -0.2502  0.3944  0.1518
82982W        W25920  11.517  19.847   5.889 -0.2999  0.1231  0.1965
82983W        W25921   7.568  21.673   4.577  0.3172  0.1069  0.0864
82984W        W25922  10.979  20.102   4.242 -0.0245 -0.2428 -0.2269
82985W        W25923  11.978  21.402   6.501  0.0715 -0.0087  0.0328
82986W        W25924   7.716  18.972   4.517 -0.0181 -0.0553 -0.5142
82987W        W25925  10.368  23.070   5.496  0.0495 -0.0398  0.1091
82988W        W25926  11.863  21.222   5.369  0.1830  0.4022 -0.0925
82989W        W25927  10.700  19.633   4.694 -0.0433  0.0184  0.0182
82990W        W25928   9.902  19.337   4.181  0.1257  0.0403 -0.1527
82991W        W25929   9.043  21.109   5.021 -0.0398  0.0511 -0.1895
82992W        W25930  11.096  19.834   5.066 -0.1500 -0.1300 -0.2832
82993W        W25931  11.440  20.432   5.070 -0.2824 -0.3158 -0.0939
82994W        W25932   8.549  20.820   3.352 -0.1353  0.1040  0.0889
82995W        W25933  10.472  17.868   8.951  0.1455  0.1115 -0.0478
82996W        W25934   9.758  21.357   5.436 -0.0659 -0.1048  0.0104
82997W        W25935   8.520  21.960   7.403  0.1108  0.1851  0.2646
82998W        W25936   8.282  18.965   2.444 -0.2111  0.0232 -0.2146
82999W        W25937  10.219  20.661   7.459  0.4304 -0.0334  0.1337
83000W        W25938   9.230  19.928   5.372 -0.0893  0.0916  0.1511
83001W        W25939   9.196  22.638   4.710 -0.0199 -0.1449 -0.0363
83002W        W25940  10.589  20.996   5.194  0.1408 -0.0910 -0.3017
83003W        W25941   8.166  19.195   4.602  0.2115  0.0858 -0.2758
83004W        W25942  11.670  20.584   6.041 -0.1661 -0.1417 -0.1383
83005W        W25943   8.799  18.071   4.971  0.1483  0.2014 -0.0205
83006W        W25944  11.098  18.171   5.070  0.1679 -0.0001  0.1508
83007W        W25945  10.306  19.230   3.765 -0.0658 -0.0297 -0.2417
83008W        W25946   8.615  19.480   6.020 -0.1132  0.0005  0.1499
83009W        W25947   8.855  20.609   4.453  0.1579  0.2927 -0.0363
83010W        W25948   7.898  20.642   3.873  0.1363  0.1095 -0.0919
83011W        W25949   7.565  19.481   4.513 -0.0285  0.1142  0.3651
83012W        W25950   9.064  19.074   6.719  0.4197  0.1826  0.1978
83013W        W25951   8.056  17.983   4.678  0.2013  0.0549 -0.1353
83014W        W25952   9.251  20.087   6.488 -0.1965  0.0759 -0.1703
83015W        W25953  10.288  19.648   4.012 -0.0948  0.1270  0.2235
83016W        W25954  11.463  21.224   5.070  0.0959 -0.1539 -0.0465
83017W        W25955   8.864  19.716   3.871  0.0394  0.1156  0.1245
83018W        W25956   7.116  19.038   2.541 -0.4313  0.1242  0.1221
83019W        W25957   8.561  21.284   3.172  0.3509  0.0516 -0.0833
83020W        W25958  10.772  21.224   3.785 -0.1392  0.2063 -0.1450
83021W        W25959   9.341  19.384   5.262  0.1784  0.0395 -0.1336
83022W        W25960   9.414  21.984   6.886  0.0537 -0.2086 -0.0538
83023W        W25961   7.872  20.122   3.687  0.0255  0.1878  0.0045
83024W        W25962   9.926  19.381   7.833 -0.2803  0.1708 -0.2550
83025W        W25963   9.163  19.319   8.036  0.3754  0.0873  0.0983
83026W        W25964   6.395  18.452   2.812 -0.2180  0.0943  0.2019
83027W        W25965   9.900  19.375   7.306  0.0095 -0.0238 -0.1385
83028W        W25966   9.879  21.887   4.224 -0.2053  0.0873  0.0237
83029W        W25967  11.395  21.775   2.883  0.0365  0.0927 -0.3117
83030W        W25968  10.524  21.405   5.602  0.0079 -0.1164  0.2889
83031W        W25969   9.394  21.269   6.317  0.1480  0.0684  0.1617
83032W        W25970   7.591  18.244   6.112 -0.0771 -0.2496  0.1501
83033W        W25971  10.764  21.608   4.568 -0.2734 -0.1559 -0.3420
83034W        W25972   8.720  21.372   6.951 -0.1690 -0.0286 -0.0010
83035W        W25973  11.224  21.969   4.028  0.2496 -0.0878 -0.2641
83036W        W25974  10.581  18.156   4.873  0.0012  0.2626 -0.2008
83037W        W25975   9.469  21.370   5.030 -0.1346 -0.0636  0.1390
83038W        W25976   8.000  20.578   7.188 -0.1663  0.2161 -0.1962
83039W        W25977   8.649  20.608   6.975 -0.0544  0.1893  0.0338
83040W        W25978  10.597  20.268   5.450 -0.0493 -0.0765 -0.1377
83041W        W25979   9.430  18.570   4.317 -0.1384 -0.1009 -0.1656
83042W        W25980  10.126  17.307   5.511 -0.0777 -0.4519 -0.0968
83043W        W25981   9.654  20.817   4.091 -0.1300 -0.0699  0.1127
83044W        W25982   8.544  18.836   4.740  0.0458 -0.0617  0.1520
83045W        W25983  10.046  20.997   3.792  0.1514 -0.2006  0.0596
83046W        W25984  10.567  20.010   7.958  0.5155  0.0762 -0.0391
83047W        W25985   9.707  21.873   4.683 -0.0605 -0.0143  0.0794
83048W        W25986  11.166  19.365   8.234 -0.3853  0.1408 -0.3835
83049W        W25987   8.622  20.654   1.858  0.3563 -0.1304  0.0545
83050W        W25988  11.298  21.310   3.834  0.1925  0.2048 -0.0962
83051W        W25989  10.120  22.073   6.532 -0.0389  0.0015 -0.2455
83052W        W25990  10.612  21.479   7.163  0.0203 -0.3917  0.0425
83053W        W25991   9.421  22.566   5.646  0.0172  0.3423 -0.1631
83054W        W25992  11.670  21.699   5.138 -0.1023  0.0780  0.0735
83055W        W25993   8.338  18.852   4.286 -0.2133 -0.2232  0.1232
83056W        W25994   9.043  20.185   4.817  0.1209  0.0204  0.4138
83057W        W25995   8.454  19.589   5.218 -0.0365  0.0654 -0.2458
83058W        W25996  11.014  20.236   4.729 -0.3666  0.0374 -0.0261
83059W        W25997   8.942  19.718   4.417  0.4357  0.1932  0.1882
83060W        W25998  10.702  20.754   4.482  0.1797  0.1684  0.1084
83061W        W25999  10.021  22.476   6.240  0.0313 -0.3652  0.1463
83062W        W26000  10.162  21.648   4.604  0.1933  0.1571  0.1918
83063W        W26001   8.515  21.393   8.737  0.0354 -0.1863 -0.0652
83064W        W26002   8.534  18.074   7.767  0.1047 -0.0037  0.0775
83065W        W26003  10.615  19.988   8.835 -0.1201  0.3455 -0.1585
83066W        W26004   9.811  20.629   7.804  0.2439 -0.1499  0.3147
83067W        W26005   7.187  18.264   9.624 -0.4887 -0.1816 -0.0786
83068W        W26006   9.809  21.283   8.802 -0.2463 -0.1094  0.1630
83069W        W26007   9.581  22.883   9.803  0.0605  0.3062 -0.0921
83070W        W26008   9.649  20.551   9.748 -0.2975 -0.2005 -0.2369
83071W        W26009   9.089  19.614   6.724 -0.0226 -0.0066 -0.0090
83072W        W26010   9.486  20.144   9.455 -0.2380  0.1453  0.1483
83073W        W26011   9.359  18.241   7.984 -0.2016 -0.0627  0.0760
83074W        W26012   8.372  17.762   9.810 -0.3409 -0.0825 -0.1110
83075W        W26013  10.252  19.191   8.829 -0.0776 -0.2377  0.0616
83076W        W26014   9.017  20.277   7.192  0.2706  0.1011  0.2671
83077W        W26015   6.803  19.732   9.275 -0.3027 -0.0800  0.1527
83078W        W26016   9.384  19.142   9.209 -0.1013 -0.1486 -0.1505
83079W        W26017   9.330  21.309   9.242  0.1667 -0.1865  0.0817
83080W        W26018  10.971  17.027  10.205 -0.0368  0.1864  0.1262
83081W        W26019   9.026  21.014   6.845 -0.0295 -0.1783 -0.2796
83082W        W26020   7.594  19.078   6.143 -0.2261  0.0883 -0.3610
83083W        W26021   6.677  18.785   8.717  0.3319 -0.3164 -0.0055
83084W        W26022   9.639  19.266   9.624 -0.0606  0.3733 -0.2409
83085W        W26023   8.946  18.635   8.568 -0.0695 -0.1515 -0.0776
83086W        W26024   9.889  20.996   9.856 -0.0429  0.2935 -0.2135
83087W        W26025   8.707  21.005   9.113  0.1710  0.2326  0.0587
83088W        W26026  10.319  20.831   9.508  0.0885  0.1492 -0.0978
83089W        W26027   6.655  20.394   7.793 -0.2056 -0.1368  0.1084
83090W        W26028   6.736  21.027   8.293  0.4200  0.1511  0.2450
83091W        W26029   8.837  20.590   7.770  0.1390  0.0581  0.0690
83092W        W26030   9.128  21.711   9.563  0.2319 -0.1544 -0.0695
83093W        W26031   8.472  21.616   6.183 -0.1907 -0.1107  0.1136
83094W        W26032   9.206  19.616   9.344  0.0783 -0.0361 -0.1736
83095W        W26033   9.619  20.116   8.990  0.1356  0.0013  0.1960
83096W        W26034   9.570  21.680   7.318  0.1589 -0.3904  0.0871
83097W        W26035   9.587  21.391   9.712  0.4115  0.0348 -0.0046
83098W        W26036   6.866  21.091   7.269 -0.0813  0.0294  0.0149
83099W        W26037   8.727  21.458   7.447 -0.1454  0.0019 -0.0621
83100W        W26038   9.250  20.731   8.131 -0.3517 -0.3380  0.2033
83101W        W26039  10.002  19.694   8.210  0.2918  0.2549  0.3982
83102W        W26040  10.054  20.000   9.317 -0.0146  0.1372  0.0574
83103W        W26041   9.671  17.805   8.780 -0.0153 -0.1402 -0.2981
83104W        W26042   7.549  20.501   7.874  0.0296 -0.0074 -0.2731
83105W        W26043   6.839  17.326   8.456 -0.1083  0.2431  0.0462
83106W        W26044   9.513  19.586   8.322  0.1319  0.1622  0.1701
83107W        W26045   9.098  20.321   9.020 -0.3477  0.0101 -0.4820
83108W        W26046   8.841  21.288   9.580  0.0877  0.3427 -0.1222
83109W        W26047   7.074  19.528   8.880 -0.1106  0.1086 -0.1102
83110W        W26048   9.869  20.807   7.047 -0.2449 -0.1407  0.0047
83111W        W26049   9.610  20.094  10.322 -0.3655 -0.4601  0.0089
83112W        W26050   9.391  22.155   7.338 -0.0101 -0.0121  0.0840
83113W        W26051   7.982  19.967   7.680  0.1472 -0.1455  0.1105
83114W        W26052   8.483  18.316   8.624  0.0311 -0.0000 -0.0237
83115W        W26053   9.348  19.948   9.964 -0.1320  0.1126 -0.0030
83116W        W26054   9.503  20.553   9.205  0.1964  0.1526  0.1180
83117W        W26055   8.630  20.774   9.672  0.1909  0.2173 -0.0980
83118W        W26056  10.175  21.615   6.319 -0.1901 -0.2244 -0.3101
83119W        W26057   9.353  15.821   8.529 -0.1511  0.1537  0.0421
83120W        W26058  11.820  17.952   9.660  0.0759 -0.0511  0.1146
83121W        W26059   9.281  20.982   7.701 -0.0612  0.0038  0.1770
83122W        W26060   9.315  20.495   7.687 -0.0431  0.5721  0.0099
83123W        W26061  12.282  21.704   9.145  0.1312 -0.2722  0.1624
83124W        W26062  10.698  21.002   7.715  0.0428 -0.0578  0.2895
83125W        W26063   7.278  21.527  10.141 -0.1618 -0.2500 -0.3121
83126W        W26064   7.860  20.997   7.026  0.1545 -0.3023 -0.0439
83127W        W26065   7.363  19.226   7.630  0.2808 -0.3079  0.0648
83128W        W26066   8.078  20.182   6.540 -0.1290  0.0703 -0.1306
83129W        W26067   6.461  20.004   9.033  0.1623  0.1829 -0.1216
83130W        W26068   7.497  18.841   9.388 -0.1070 -0.3088  0.1427
83131W        W26069  12.170  18.340   9.735 -0.4830  0.0630 -0.3658
83132W        W26070  10.821  17.497  10.131 -0.0039  0.0898  0.1130
83133W        W26071   8.588  20.302   7.415 -0.2795  0.1145 -0.1226
83134W        W26072  11.937  21.316   9.137  0.0536  0.1054 -0.1378
83135W        W26073   9.761  21.115   7.822 -0.0022 -0.1407 -0.0002
83136W        W26074   9.942  22.033   6.049  0.1022  0.1099  0.3949
83137W        W26075   8.601  16.898   9.983  0.1759  0.1361  0.0194
83138W        W26076   7.680  20.234   7.409  0.1439 -0.0269  0.3005
83139W        W26077   7.701  18.496   9.777  0.1786 -0.0132  0.0681
83140W        W26078   8.174  19.533   7.878 -0.2294 -0.0164 -0.0995
83141W        W26079  10.742  20.644   9.658 -0.0835  0.2559  0.1316
83142W        W26080   7.494  19.819   7.616  0.3028 -0.2011  0.1518
83143W        W26081   7.305  19.474   7.214  0.2653 -0.2967 -0.1351
83144W        W26082   9.867  21.283   8.295 -0.3577 -0.4078 -0.2950
83145W        W26083  11.274  20.865   9.507 -0.0778 -0.0974  0.1358
83146W        W26084   9.219  21.788   8.934  0.0842 -0.1495  0.0785
83147W        W26085   9.159  17.734   8.835 -0.2798  0.1122 -0.0000
83148W        W26086   8.537  18.752   7.515 -0.3302 -0.0551 -0.1025
83149W        W26087   7.647  21.815   8.708 -0.2494 -0.0014  0.1360
83150W        W26088   8.085  21.523   8.495 -0.0146  0.0704 -0.3349
83151W        W26089   6.970  17.602   7.656 -0.4156 -0.0662 -0.2063
83152W        W26090   8.508  20.502  10.076  0.3246  0.2273  0.0479
83153W        W26091   8.910  20.349   8.247  0.2105 -0.0662 -0.0688
83154W        W26092   9.561  21.772   8.359 -0.2460 -0.0862 -0.0099
83155W        W26093  10.010  19.412  10.312 -0.2775  0.0647  0.0409
83156W        W26094   8.165  18.492   7.695 -0.2458  0.2812  0.4829
83157W        W26095   8.145  22.120   9.120  0.1370 -0.4987  0.2150
83158W        W26096   8.004  21.298   7.416 -0.2859 -0.0327 -0.2366
83159W        W26097   6.939  19.636   7.581 -0.0010  0.1413 -0.4171
83160W        W26098   7.778  22.299   7.853  0.0035  0.0648 -0.0784
83161W        W26099  13.324  19.172   9.609  0.0770  0.1690  0.2421
83162W        W26100   7.813  19.598   8.414 -0.1722 -0.1278 -0.1659
83163W        W26101  10.569  18.307   8.515 -0.0951  0.0716 -0.0535
83164W        W26102  10.998  18.893   8.544 -0.1020  0.1023  0.1055
83165W        W26103  10.962  21.121   8.264 -0.1199 -0.2581 -0.1211
83166W        W26104  10.896  19.784   8.368 -0.1927  0.1426  0.1782
83167W        W26105  10.208  18.058   8.111 -0.1822  0.0231  0.3939
83168W        W26106  10.665  20.818   7.219 -0.1256 -0.0778  0.1146
83169W        W26107   8.187  21.098   8.984 -0.1021 -0.1243  0.1507
83170W        W26108   9.652  19.126   8.755 -0.0393  0.1290  0.3567
83171W        W26109  10.473  21.222   9.224 -0.2123  0.0962 -0.0014
83172W        W26110   7.543  20.903   9.681 -0.2417  0.0769 -0.0560
83173W        W26111   9.975  20.514   9.351  0.1467 -0.3489  0.1224
83174W        W26112   9.556  17.745   9.264  0.1507 -0.0612  0.1114
83175W        W26113   7.923  20.713   8.106 -0.1934  0.2087 -0.2742
83176W        W26114  10.048  17.692   9.151  0.2423  0.0490 -0.0512
83177W        W26115   7.250  20.952   6.018  0.1426 -0.3404  0.5615
83178W        W26116   9.981  20.439  10.298  0.0171  0.1027  0.1737
83179W        W26117   9.680  18.682  10.434 -0.1296  0.0853 -0.1116
83180W        W26118   9.592  20.905   8.413  0.1019 -0.2256  0.0162
83181W        W26119   9.317  17.591   9.781 -0.0043  0.1353 -0.2425
83182W        W26120   9.924  20.083   7.882 -0.0053  0.0845 -0.2237
83183W        W26121  12.482  17.096   8.991 -0.1109 -0.2783  0.1225
83184W        W26122   7.901  22.256   9.553 -0.2086 -0.2086  0.1246
83185W        W26123   8.934  20.415   9.729  0.2956 -0.3824 -0.0078
83186W        W26124   9.819  17.799   8.313 -0.0850  0.4755  0.2701
83187W        W26125   9.623  22.565   7.574 -0.0480  0.0887  0.2533
83188W        W26126   9.711  21.155   7.341  0.0741 -0.1691  0.1380
83189W        W26127   9.439  16.419   9.928  0.3521  0.0862 -0.0867
83190W        W26128   8.915  21.433   9.002 -0.0655 -0.2755 -0.0907
83191W        W26129   8.330  21.415   6.609  0.3201  0.2496  0.0571
83192W        W26130   8.737  20.500   9.266 -0.1375 -0.0066  0.1599
83193W        W26131   7.953  21.178   7.877  0.1684 -0.1691  0.0535
83194W        W26132  10.746  17.872   9.742  0.2773  0.1497  0.0924
83195W        W26133   7.121  21.306   7.617  0.0427  0.2650  0.0510
83196W        W26134   9.099  17.968   7.626 -0.0692 -0.0024 -0.1078
83197W        W26135   7.333  18.615   6.856 -0.1225  0.1419  0.0097
83198W        W26136   9.212  18.652   9.070 -0.2070 -0.1129  0.3581
83199W        W26137  10.670  20.323   7.171 -0.0255 -0.1598  0.0610
83200W        W26138   7.858  17.738   8.905  0.0593  0.1826 -0.0211
83201W        W26139   7.972  18.917   9.636 -0.2976 -0.0604 -0.3978
83202W        W26140   7.179  20.279   8.390 -0.3513 -0.0534 -0.2743
83203W        W26141  10.270  19.697   7.650 -0.1603 -0.1605 -0.1192
83204W        W26142   7.600  17.889   4.303 -0.2281  0.3198  0.4003
83205W        W26143   8.835  17.334   9.007  0.0971 -0.2825 -0.2188
83206W        W26144   8.590  19.179   7.885 -0.0807  0.2598  0.0037
83207W        W26145   6.855  22.015   8.751 -0.2020 -0.0003 -0.0540
83208W        W26146   9.053  22.201   9.292 -0.0697  0.1261 -0.0901
83209W        W26147   8.709  19.946   8.433 -0.0077  0.1165  0.0158
83210W        W26148   9.213  20.958   8.934  0.1319  0.1038  0.1823
83211W        W26149   9.375  22.681   9.356 -0.0772  0.2047 -0.0162
83212W        W26150   9.861  18.358   9.990  0.2908 -0.1369  0.0436
83213W        W26151   9.469  18.664   8.606  0.2383  0.0114 -0.0314
83214W        W26152   8.301  20.699   9.284 -0.3410 -0.0681 -0.1557
83215W        W26153  10.271  18.688   9.486  0.0265 -0.1562  0.1383
83216W        W26154   9.564  22.124  10.231 -0.1902 -0.0010  0.1911
83217W        W26155   9.343  16.705   9.511  0.0024 -0.1003  0.1697
83218W        W26156  10.799  22.199   8.356  0.1189 -0.1111 -0.1661
83219W        W26157   7.924  20.965   6.524  0.1069  0.2451 -0.0202
83220W        W26158   6.549  18.240   8.663  0.1932 -0.3125  0.1085
83221W        W26159   9.631  21.620   7.887  0.0126  0.0912  0.1721
83222W        W26160   7.890  18.840   9.012 -0.1238  0.0266 -0.1443
83223W        W26161   8.927  19.088  10.044  0.0993  0.0274  0.1617
83224W        W26162   8.289  22.810   7.424 -0.1109  0.1438  0.2470
83225W        W26163   8.145  20.501   8.846 -0.3239  0.4048 -0.0681
83226W        W26164  10.685  18.913   8.930  0.1279  0.0875  0.3254
83227W        W26165   9.531  20.964   6.692  0.2810  0.3489 -0.1616
83228W        W26166   8.957  19.039   8.919  0.1537 -0.0656 -0.2559
83229W        W26167  10.103  20.932   9.033 -0.0543  0.1032 -0.4329
83230W        W26168   9.313  17.261   9.437  0.0112 -0.0055 -0.5397
83231W        W26169  10.775  20.173   9.823 -0.1878 -0.0724  0.1322
83232W        W26170  10.178  18.654   8.968 -0.0564 -0.1545 -0.1536
83233W        W26171   7.841  19.450   7.478  0.2062  0.0196  0.0849
83234W        W26172   9.823  19.846   9.735 -0.1071  0.0655 -0.1926
83235W        W26173  10.007  21.853   9.605 -0.1418 -0.0330 -0.0375
83236W        W26174   8.492  19.834   9.216  0.0636  0.1138  0.4715
83237W        W26175  10.420  19.761   9.888  0.1375  0.2556  0.1051
83238W        W26176   7.090  18.731   9.105  0.0900  0.1297 -0.0603
83239W        W26177   9.005  19.454  11.229 -0.0004 -0.1356  0.3002
83240W        W26178   9.379  20.507   8.651  0.1556  0.1184 -0.0509
83241W        W26179   9.022  21.102   8.461  0.0679  0.3897 -0.0643
83242W        W26180  11.695  19.387   8.911  0.4041  0.1965  0.1214
83243W        W26181   9.152  19.506   9.858 -0.4257  0.1315  0.1168
83244W        W26182  10.517  21.708   9.070 -0.0767 -0.2643  0.0432
83245W        W26183  10.281  20.159   7.460  0.0119 -0.0473  0.1929
83246W        W26184  12.610  18.619   9.592  0.0924  0.0709 -0.2935
83247W        W26185  10.664  20.327   8.327  0.0704 -0.1076 -0.1713
83248W        W26186  10.754  19.416   8.995 -0.2857 -0.2429 -0.2453
83249W        W26187   7.304  20.729   8.617 -0.0692 -0.2647  0.3560
83250W        W26188   8.138  19.956   8.326 -0.2300  0.1368  0.0864
83251W        W26189   9.171  21.287   7.262  0.0564  0.2014  0.1135
83252W        W26190   8.898  20.604   8.642  0.0111  0.0347  0.1583
83253W        W26191   9.854  19.054   9.169  0.0929 -0.0380 -0.1398
83254W        W26192   7.006  18.827   9.761  0.1179 -0.0172  0.1156
83255W        W26193   8.944  18.527   5.946 -0.1163  0.3054  0.2354
83256W        W26194   8.398  19.426   8.320  0.1050 -0.0137 -0.2964
83257W        W26195   7.178  22.607   9.829  0.0401  0.0444 -0.0393
83258W        W26196   9.556  17.874   7.333  0.1728  0.1532 -0.4108
83259W        W26197   8.346  21.111   7.053  0.0475 -0.1629  0.2208
83260W        W26198   9.647  18.499   9.402 -0.0872  0.2990 -0.2095
83261W        W26199   8.266  21.120   8.255  0.1445 -0.0272 -0.2231
83262W        W26200   9.409  21.298   8.155  0.0353  0.0816 -0.1571
83263W        W26201   7.809  18.978   8.507 -0.2517  0.1025 -0.1293
83264W        W26202   9.709  20.926   9.414  0.0280  0.2661  0.2153
83265W        W26203   9.113  20.907   9.487  0.1835 -0.0404  0.1356
83266W        W26204   8.903  19.796   8.913 -0.0002  0.2729  0.2149
83267W        W26205  11.549  20.425   8.628  0.1802  0.0586  0.0030
83268W        W26206   8.642  19.401   8.763  0.2035 -0.2297 -0.0236
83269W        W26207   9.191  18.231   8.698  0.2427  0.0628 -0.5959
83270W        W26208   8.155  19.257   8.827  0.0557  0.1965  0.0144
83271W        W26209   8.086  20.441   7.656 -0.0719 -0.0298  0.0294
83272W        W26210   8.111  22.097   8.578 -0.0819  0.1158  0.0347
83273W        W26211   7.540  22.728   6.921  0.1510  0.2445 -0.0010
83274W        W26212   9.887  20.532   8.732 -0.0624 -0.2085  0.1938
83275W        W26213   9.587  20.470   6.663 -0.2276  0.0649  0.0816
83276W        W26214  11.175  23.660   9.172 -0.0282  0.2885  0.2926
83277W        W26215   9.010  18.962   7.721  0.0862 -0.2456 -0.1706
83278W        W26216   7.315  20.995   9.089 -0.1632  0.1692 -0.2907
83279W        W26217   9.372  20.818   7.181 -0.0208  0.4302  0.2871
83280W        W26218  10.861  21.981   7.887  0.1410 -0.1048 -0.0479
83281W        W26219   8.407  20.392   8.420 -0.1719  0.1256 -0.2964
83282W        W26220  10.709  18.002   8.155 -0.0460 -0.1504  0.1493
83283W        W26221  10.840  21.200   9.631  0.2056  0.4233  0.3026
83284W        W26222  10.152  20.093   8.795  0.0450  0.0569  0.2933
83285W        W26223   8.761  19.412   9.320  0.5808  0.1609 -0.1820
83286W        W26224   9.677  18.628   8.100  0.2230  0.1118 -0.1000
83287W        W26225  11.117  21.277   6.311  0.0623 -0.2311 -0.2053
83288W        W26226   7.092  19.475   8.023 -0.0340  0.0895  0.2024
83289W        W26227   9.114  19.837   8.113 -0.3382  0.1382  0.0710
83290W        W26228   9.517  18.071   9.605 -0.2650  0.2071  0.0688
83291W        W26229   8.556  20.940   6.591  0.0025 -0.0147 -0.2865
83292W        W26230   7.422  19.883   9.154  0.3029 -0.0265 -0.1413
83293W        W26231   9.198  22.678   7.195  0.3335  0.0172  0.2666
83294W        W26232   8.488  20.838   8.673 -0.1043 -0.2171 -0.0690
83295W        W26233   7.967  20.391   9.665  0.1775  0.0006  0.2154
83296W        W26234   7.093  18.378   8.218  0.1961  0.2103 -0.0283
83297W        W26235  10.464  20.432   9.194 -0.2066  0.2310 -0.1467
83298W        W26236   7.711  20.288   8.338  0.0744  0.0062 -0.1149
83299W        W26237   7.811  19.849   6.911 -0.1146  0.4181 -0.4255
83300W        W26238  10.779  18.843   9.379 -0.0311 -0.0128 -0.3470
83301W        W26239   9.264  18.911   9.753 -0.1710 -0.0754 -0.2170
83302W        W26240   9.182  16.894  10.426  0.1764  0.1890  0.0115
83303W        W26241   9.473  20.259   8.105  0.1220 -0.2498 -0.2810
83304W        W26242   8.908  20.118   7.762 -0.0900 -0.0811 -0.2897
83305W        W26243   8.822  19.108   8.327 -0.2340  0.4768 -0.0824
83306W        W26244   9.244  20.000   8.618 -0.1492 -0.0827 -0.1250
83307W        W26245   7.597  20.554   5.720  0.0125  0.0634 -0.1600
83308W        W26246   7.371  19.080   8.932  0.0695  0.0410 -0.1247
83309W        W26247   7.268  19.011   8.064 -0.1617  0.3156  0.3098
83310W        W26248   9.729  20.398   7.329  0.0826  0.0619  0.1416
83311W        W26249  10.103  21.358   9.584  0.2349 -0.0962 -0.1804
83312W        W26250  10.082  21.650   8.074 -0.0066  0.0949  0.3952
83313W        W26251   8.631  21.039  10.070 -0.0809 -0.2715  0.1501
83314W        W26252   9.168  21.018  10.157 -0.3883 -0.0431  0.1699
83315W        W26253   7.003  18.429   8.742 -0.1043 -0.0501  0.0352
83316W        W26254  10.901  22.024   9.213 -0.1393 -0.1368  0.0193
83317W        W26255   9.385  22.098   7.846  0.0984 -0.2960  0.1083
83318W        W26256  10.477  17.645   7.886  0.1059  0.0709 -0.1023
83319W        W26257   7.338  19.363   8.476  0.3104  0.0868 -0.3850
83320W        W26258   7.357  21.071   8.007 -0.2066  0.1829 -0.2043
83321W        W26259  10.200  19.578   9.138  0.2364  0.1006 -0.2771
83322W        W26260   9.993  21.495   7.602  0.1511 -0.2379  0.0156
83323W        W26261   8.736  19.861   9.892  0.2557 -0.0280 -0.0582
83324W        W26262   8.388  19.100   6.475 -0.0499  0.0684 -0.3432
83325W        W26263   8.416  20.145   7.958 -0.2511 -0.2452 -0.1739
83326W        W26264   7.962  22.755   7.767  0.1204  0.1138  0.1169
83327W        W26265  11.859  22.232   9.786  0.3281 -0.2012 -0.3086
83328W        W26266   8.904  18.882   9.453 -0.0658 -0.2154 -0.0173
83329W        W26267  10.931  21.492   9.204  0.2426 -0.0706 -0.0518
83330W        W26268   8.380  19.026   9.243 -0.3120  0.1030 -0.0029
83331W        W26269  10.555  19.211   9.775 -0.3606 -0.0322 -0.3280
83332W        W26270  10.992  17.470   9.547  0.2319 -0.2148 -0.0861
83333W        W26271   7.136  20.202   9.568  0.1596 -0.0305 -0.2469
83334W        W26272   9.042  19.314   6.249 -0.0517  0.3317 -0.3644
83335W        W26273   8.231  20.607   6.738 -0.2549  0.0894 -0.0550
83336W        W26274   7.127  20.541   9.122  0.0420 -0.0735  0.1598
83337W        W26275   7.469  19.844   8.185 -0.1223  0.0745  0.1812
83338W        W26276   7.622  18.521   8.264  0.2838 -0.1351 -0.3914
83339W        W26277  10.342  21.093   6.811 -0.0269  0.1039  0.0246
83340W        W26278   8.074  19.273  10.048 -0.2882 -0.2211  0.0333
83341W        W26279   6.851  19.264   8.499 -0.1168 -0.2276  0.4369
83342W        W26280   8.392  21.423   9.404 -0.1177  0.0952 -0.3034
83343W        W26281   9.048  22.248   8.805  0.2069  0.3620 -0.1683
83344W        W26282   8.472  18.885   8.543  0.4621  0.0843  0.0822
83345W        W26283   7.757  19.729   6.292  0.0374  0.0219  0.2009
83346W        W26284   8.477  19.325   7.421 -0.0495 -0.0468 -0.1827
83347W        W26285  11.228  17.761   9.999 -0.2928 -0.2659  0.0099
83348W        W26286  10.477  21.335   8.211  0.2108 -0.1457 -0.1611
83349W        W26287  10.166  23.122   7.501  0.0556  0.1477  0.3768
83350W        W26288   7.882  16.211   9.579 -0.2423 -0.1693  0.0105
83351W        W26289   9.527  19.781   7.857  0.1654 -0.1222 -0.2649
83352W        W26290  11.702  21.179   9.564 -0.0355 -0.3011  0.0358
83353W        W26291  11.553  17.491   9.723  0.3306  0.0603 -0.0269
83354W        W26292   9.667  19.588   9.238 -0.0034 -0.1358  0.2938
83355W        W26293  10.531  23.080   9.252 -0.1454  0.1820  0.2524
83356W        W26294   7.503  18.603   8.801  0.0643 -0.0905  0.0541
83357W        W26295  10.943  18.464   9.640  0.2151 -0.1335  0.1630
83358W        W26296   9.134  22.286   6.517  0.2582 -0.1140  0.0717
83359W        W26297   6.629  18.880   9.259  0.3681 -0.1584 -0.1375
83360W        W26298  10.061  20.799   8.294 -0.0246 -0.1962  0.2527
83361W        W26299   8.645  20.235   8.808  0.2472 -0.2341  0.2326
83362W        W26300   9.012  19.542   8.512  0.0011 -0.1969  0.0759
83363W        W26301  10.245  21.000   7.907  0.0969 -0.6730 -0.0359
83364W        W26302  12.206  23.069   9.866  0.1526 -0.0114 -0.3398
83365W        W26303   6.080  23.206   9.110 -0.0797 -0.2306 -0.0684
83366W        W26304  11.533  26.691   9.612 -0.1447 -0.0780 -0.1675
83367W        W26305   8.777  17.661   8.520 -0.0118 -0.1734  0.1621
83368W        W26306   7.250  20.771   7.624 -0.0321 -0.1808  0.0806
83369W        W26307   8.444  20.659   8.031  0.2832 -0.0780 -0.0169
83370W        W26308   9.581  17.269   8.917 -0.1532 -0.1132  0.0521
83371W        W26309   8.337  17.588   9.267  0.1376 -0.1230 -0.3537
83372W        W26310   9.443  19.271   7.677 -0.1483  0.0196  0.2608
83373W        W26311  11.159  22.878   9.953  0.0665 -0.1142  0.1597
83374W        W26312  10.073  22.176   9.130 -0.2734 -0.1035  0.2790
83375W        W26313   7.525  23.233   3.141 -0.0539 -0.1368 -0.3189
83376W        W26314   8.330  23.554   1.456 -0.3254 -0.1090 -0.1440
83377W        W26315  11.802  23.381  30.541 -0.0935  0.4132 -0.0074
83378W        W26316  10.563  23.791  30.795  0.0835 -0.0377 -0.2182
83379W        W26317   6.827  22.385   1.410 -0.0537  0.2341  0.6528
83380W        W26318  10.189  25.780   1.339  0.1134  0.1964  0.1702
83381W        W26319   8.894  22.521   3.307  0.0362  0.2104  0.0874
83382W        W26320  12.008  25.591   1.582  0.0354  0.0395 -0.2870
83383W        W26321  12.030  24.801   1.850  0.2343  0.0785 -0.1298
83384W        W26322  10.188  23.709  31.157  0.0040 -0.0249 -0.0230
83385W        W26323   9.322  22.810   1.923  0.3515  0.1347  0.0799
83386W        W26324   8.191  24.547   2.300  0.1962  0.0210 -0.2411
83387W        W26325   9.490  21.857   0.746  0.1046 -0.2298  0.2760
83388W        W26326   8.135  21.585   2.280 -0.1962 -0.0552 -0.1312
83389W        W26327  11.072  22.881   0.769 -0.0791 -0.1594 -0.2002
83390W        W26328   7.353  24.706  31.799 -0.0721 -0.1484 -0.0948
83391W        W26329   9.236  23.393   1.055  0.2523  0.0496 -0.1065
83392W        W26330  10.161  24.926   2.605 -0.1437 -0.1477 -0.0175
83393W        W26331  10.172  23.807   2.544  0.1826  0.0476 -0.0478
83394W        W26332   9.831  22.366   3.428  0.1481 -0.2524  0.1070
83395W        W26333   9.151  23.758  30.851  0.2880 -0.1788  0.0069
83396W        W26334   5.516  23.785  31.078 -0.1016 -0.0169  0.1775
83397W        W26335   7.991  21.734   0.176  0.3055  0.1078 -0.0533
83398W        W26336   9.324  23.783   2.817 -0.0891 -0.1871 -0.0023
83399W        W26337   9.987  23.739   3.419  0.0555  0.0099 -0.0844
83400W        W26338  11.383  23.953   2.920  0.2038  0.1065 -0.1858
83401W        W26339   9.437  26.419   1.835  0.3641 -0.0329  0.0116
83402W        W26340   9.634  24.660   2.655 -0.1551  0.0918  0.2155
83403W        W26341   8.587  22.939   3.579  0.0021 -0.0560  0.0339
83404W        W26342   7.850  24.213   2.446 -0.1345  0.0881 -0.2016
83405W        W26343   6.894  24.653   1.163 -0.1972 -0.1726  0.0727
83406W        W26344  10.894  24.984   1.358  0.0703 -0.0465 -0.0454
83407W        W26345  12.385  25.280   0.754 -0.4372  0.0691  0.1377
83408W        W26346   9.810  25.332   3.848 -0.3137 -0.3457 -0.1415
83409W        W26347   8.108  25.546   3.372  0.1123  0.0053 -0.3682
83410W        W26348   7.709  24.279  31.901 -0.1522 -0.0590  0.3785
83411W        W26349   8.822  24.055   2.845  0.1061  0.1761 -0.1525
83412W        W26350   7.950  23.875   3.834 -0.1382  0.1180 -0.0901
83413W        W26351   9.474  22.865   2.378 -0.2908 -0.2993 -0.3521
83414W        W26352   9.471  22.440   1.095 -0.1876 -0.1498 -0.4248
83415W        W26353   9.550  25.254   0.028  0.3020  0.2923  0.0169
83416W        W26354   9.256  23.836   1.266  0.1805 -0.0715  0.0487
83417W        W26355   7.952  22.866   3.811  0.1214  0.2048  0.1396
83418W        W26356   7.456  24.926   1.754  0.1903  0.1439 -0.0381
83419W        W26357  12.705  22.377   5.459  0.1680 -0.1138  0.1726
83420W        W26358   8.959  26.331   1.228 -0.1257  0.0054  0.2474
83421W        W26359  12.176  22.340  31.345  0.2428 -0.0426 -0.0951
83422W        W26360   9.587  22.966   0.166 -0.0233  0.3113  0.1476
83423W        W26361  10.981  23.533  31.711  0.2254 -0.0009  0.2461
83424W        W26362   8.818  22.345   1.342  0.5121  0.1683  0.3882
83425W        W26363   8.885  26.394   0.604 -0.0533 -0.2312 -0.2835
83426W        W26364   9.141  23.043   1.485 -0.0070  0.2045  0.1266
83427W        W26365  10.275  23.720   3.879  0.1065  0.1863  0.2586
83428W        W26366   9.576  22.968   1.044  0.3896  0.1666  0.0159
83429W        W26367  10.098  22.583   1.705 -0.0119 -0.0073 -0.2674
83430W        W26368   7.535  25.370   2.108 -0.0135 -0.3348  0.2632
83431W        W26369   8.049  22.873   2.463  0.1855 -0.0055  0.1024
83432W        W26370   9.730  25.278   1.086 -0.3020  0.0178 -0.0424
83433W        W26371  10.832  25.262   0.370 -0.1213  0.2589  0.0961
83434W        W26372  10.574  24.179  31.047 -0.0336 -0.2838  0.3818
83435W        W26373   8.832  22.040   1.878  0.1016 -0.0248 -0.0143
83436W        W26374   6.965  23.946   2.796  0.0880 -0.0975 -0.2936
83437W        W26375   7.718  23.279   3.624  0.1742 -0.0154 -0.0423
83438W        W26376   8.950  20.895  31.932  0.1969 -0.0027 -0.0193
83439W        W26377  11.161  24.085   4.220 -0.0582  0.2479  0.4057
83440W        W26378   7.374  25.207   2.963  0.1465 -0.0558  0.2486
83441W        W26379  10.072  22.804   0.827  0.3089  0.0467  0.1495
83442W        W26380  10.726  24.791   3.451 -0.1236  0.2572 -0.3412
83443W        W26381  12.045  27.341   1.587  0.2304 -0.0499 -0.2240
83444W        W26382  11.231  23.416   0.519  0.0630  0.2485 -0.1989
83445W        W26383  10.215  22.102   1.261  0.1507  0.0387 -0.2662
83446W        W26384  10.648  22.688   2.183  0.0601  0.0121 -0.1939
83447W        W26385   8.871  25.493   0.177  0.1813  0.2178  0.1538
83448W        W26386   8.862  23.223  31.952  0.4803 -0.1462  0.0393
83449W        W26387  10.781  24.270   1.265  0.0270  0.1066 -0.1601
83450W        W26388  10.871  23.318   0.819 -0.1028 -0.4099  0.1009
83451W        W26389   8.371  23.607   1.934  0.1279  0.0377 -0.1377
83452W        W26390   9.322  23.375   4.126 -0.1854  0.3154 -0.2147
83453W        W26391   8.359  24.201   2.875  0.0088  0.3420  0.0326
83454W        W26392   7.148  25.997  30.517 -0.0987  0.1518  0.1368
83455W        W26393   7.897  25.296   2.912 -0.3426 -0.0087  0.0808
83456W        W26394   9.074  25.079  31.758 -0.2513  0.0890 -0.2738
83457W        W26395   7.930  21.345   1.840  0.1033  0.1081  0.2380
83458W        W26396   8.994  24.616   2.877  0.0782  0.1252  0.1671
83459W        W26397  10.864  23.365   0.156  0.0867  0.2789 -0.0347
83460W        W26398   9.211  22.941   3.382 -0.1855  0.1041 -0.0395
83461W        W26399  11.250  22.058   1.623  0.1815  0.1945 -0.0169
83462W        W26400   7.708  25.289   1.017  0.2140 -0.0620 -0.1923
83463W        W26401  11.482  26.682   1.129 -0.0245 -0.0032  0.1961
83464W        W26402  12.126  23.548   0.819  0.1216 -0.2020  0.1422
83465W        W26403  11.942  25.067  31.610 -0.1618 -0.4371 -0.1200
83466W        W26404   7.360  22.615   2.282  0.1411 -0.3428  0.1259
83467W        W26405   9.255  22.255   0.641  0.0594 -0.1925 -0.2766
83468W        W26406   9.762  23.597   2.766  0.0234  0.3856 -0.5264
83469W        W26407   9.293  22.352   1.538  0.3357 -0.2911 -0.0421
83470W        W26408  11.620  24.633   2.395  0.1204 -0.0204 -0.3066
83471W        W26409   9.002  21.767   0.665  0.1871 -0.0841  0.0614
83472W        W26410   9.689  23.310   0.730 -0.2409  0.0666 -0.1357
83473W        W26411   9.033  23.596   1.936  0.0794 -0.2149  0.1637
83474W        W26412   7.539  24.998   0.195  0.0905  0.0478  0.1870
83475W        W26413  11.170  23.285   3.676  0.1117  0.1581  0.1929
83476W        W26414   9.809  25.565  30.053 -0.2119 -0.3197  0.0305
83477W        W26415  10.950  24.708   3.012 -0.1911 -0.0046 -0.0470
83478W        W26416   9.451  24.735  30.670 -0.1819 -0.2068 -0.0666
83479W        W26417   9.669  23.013   2.892 -0.0069 -0.0252 -0.0781
83480W        W26418   8.526  21.630  31.661  0.2104 -0.2407  0.2065
83481W        W26419   8.330  23.954   2.364 -0.3237  0.2373  0.2938
83482W        W26420   7.162  24.272   1.250 -0.1353 -0.1982 -0.1025
83483W        W26421   9.878  21.619   0.420  0.0855 -0.0427  0.0795
83484W        W26422  12.482  25.854   2.243 -0.0873 -0.0015 -0.1482
83485W        W26423   8.507  23.584   2.662 -0.3256 -0.3048  0.1166
83486W        W26424   6.648  22.698   3.304  0.0694  0.0989  0.0643
83487W        W26425  10.638  20.902   2.445 -0.2090  0.2677 -0.3532
83488W        W26426  12.343  24.178   1.063  0.4612  0.1106 -0.0215
83489W        W26427   9.762  23.512   1.279  0.1184 -0.1891 -0.1844
83490W        W26428  10.209  21.565   0.104 -0.1776  0.2664  0.2490
83491W        W26429   9.897  24.503   1.659  0.3089 -0.3911  0.0505
83492W        W26430   7.485  25.701   1.696 -0.0188 -0.1003 -0.1664
83493W        W26431   8.822  23.438   1.342 -0.0541  0.0585  0.0585
83494W        W26432   8.061  25.928   2.310  0.0531  0.4007 -0.2279
83495W        W26433  10.110  21.705   0.913  0.2227  0.0013 -0.0669
83496W        W26434   5.519  22.706   3.507  0.1668 -0.0714 -0.2722
83497W        W26435  10.569  23.469   4.188  0.4287 -0.0339 -0.0733
83498W        W26436   9.580  23.264  31.625  0.0745  0.0601  0.3176
83499W        W26437   7.003  25.816   2.770 -0.1093  0.0619 -0.2819
83500W        W26438  10.015  20.717   0.440  0.2777  0.0665 -0.1160
83501W        W26439  12.096  23.257  31.682 -0.1484 -0.2603 -0.2251
83502W        W26440  11.024  23.875   2.491  0.1770 -0.1987 -0.0005
83503W        W26441  11.538  25.008   0.940 -0.0321  0.1922 -0.0934
83504W        W26442  11.519  23.070   0.956  0.0524  0.0341  0.1039
83505W        W26443  10.535  22.347   0.513 -0.0809  0.2484 -0.0437
83506W        W26444   7.571  25.102   2.520  0.0207 -0.1086 -0.1815
83507W        W26445  10.205  24.097   1.494  0.0753  0.4057  0.1097
83508W        W26446   8.744  24.214   3.418 -0.4508  0.2196  0.0638
83509W        W26447   9.388  21.451   0.455 -0.1504  0.2743  0.0565
83510W        W26448  12.558  25.641   0.241  0.1049  0.1674 -0.3685
83511W        W26449   6.484  24.515   3.426  0.3284 -0.4118 -0.0810
83512W        W26450  10.109  24.168   3.664 -0.0028  0.0979  0.3038
83513W        W26451   9.302  25.325   2.730 -0.0689 -0.0632  0.1569
83514W        W26452   8.751  21.564   2.807 -0.1149 -0.2303  0.3018
83515W        W26453   8.813  23.717  31.647 -0.2417 -0.1068  0.0993
83516W        W26454  10.111  21.682   1.506  0.2747  0.0765 -0.2615
83517W        W26455   6.809  23.759   0.914  0.0239  0.0607 -0.3134
83518W        W26456   9.676  21.695   1.910 -0.2479 -0.0119 -0.0419
83519W        W26457  10.993  23.804   0.918 -0.1395 -0.2244 -0.0572
83520W        W26458  10.626  20.487   1.401  0.2520  0.1190  0.2415
83521W        W26459   9.370  23.880   4.241  0.1525 -0.0785 -0.0495
83522W        W26460  10.059  22.520   0.403 -0.1454 -0.1009  0.0305
83523W        W26461   8.999  22.956   2.312  0.2210  0.0332 -0.0354
83524W        W26462   7.844  23.701  31.866  0.2099  0.1809  0.0918
83525W        W26463   8.553  23.799   3.214  0.2242 -0.1612 -0.0184
83526W        W26464   5.758  23.110   3.674  0.0291  0.2834 -0.0434
83527W        W26465   8.120  24.962   2.499  0.0952 -0.3138  0.1172
83528W        W26466  11.481  23.758   3.370 -0.0348  0.0858  0.0454
83529W        W26467  11.865  25.232   0.648  0.1151  0.2759  0.0572
83530W        W26468   9.230  22.175   3.412 -0.1548 -0.0892  0.0059
83531W        W26469   9.819  21.408  31.737  0.1690  0.1117 -0.0459
83532W        W26470   8.478  26.880   0.598  0.2387  0.0160 -0.0909
83533W        W26471   8.762  24.293   0.155 -0.1954 -0.1707 -0.2657
83534W        W26472   7.913  20.890   2.591 -0.0198 -0.0363  0.1726
83535W        W26473   8.601  24.844   2.144  0.0410 -0.1794  0.0072
83536W        W26474   8.692  25.863  31.883  0.0643  0.0877  0.0758
83537W        W26475   9.851  23.213   2.439 -0.0120 -0.0676  0.0350
83538W        W26476   8.445  25.668  30.157  0.0002 -0.0271  0.0734
83539W        W26477  11.181  22.036   2.150 -0.1313  0.0052  0.0501
83540W        W26478   7.631  23.678   0.803 -0.0424  0.1905  0.2625
83541W        W26479   7.616  24.158   1.105  0.0813 -0.1411  0.3543
83542W        W26480   8.693  22.955   1.213 -0.0978  0.1468 -0.0768
83543W        W26481  10.608  22.930   0.922  0.0094 -0.0004  0.3142
83544W        W26482  11.876  23.773   1.230 -0.1491 -0.4220  0.1298
83545W        W26483   9.297  21.918   0.196  0.1222  0.1525 -0.0406
83546W        W26484  10.871  22.971   2.508  0.1223  0.0806 -0.0099
83547W        W26485   7.549  24.641   1.339 -0.0144 -0.3106 -0.0780
83548W        W26486  10.622  22.970   3.836 -0.0791 -0.2680 -0.0219
83549W        W26487  10.542  23.156   0.427  0.0252  0.0107  0.4805
83550W        W26488  11.256  24.573   1.317  0.1671 -0.0276 -0.2491
83551W        W26489   7.064  23.552   2.399 -0.1714 -0.0285  0.1397
83552W        W26490   9.601  22.681   0.595 -0.2616  0.0178  0.0029
83553W        W26491  11.498  22.936   3.041  0.0439 -0.1614 -0.2843
83554W        W26492   9.266  22.425   2.572  0.0402  0.0478 -0.1069
83555W        W26493   7.965  24.299   1.438  0.1151 -0.1964 -0.1053
83556W        W26494   9.671  24.232   4.057 -0.3981 -0.0429 -0.2763
83557W        W26495   9.235  22.329  31.521 -0.5203  0.0198  0.1180
83558W        W26496   8.118  24.163   2.012  0.2107 -0.1453  0.0834
83559W        W26497   6.195  22.717   2.434 -0.0742 -0.1476  0.0862
83560W        W26498   9.912  23.800  31.570  0.0418  0.0315  0.0344
83561W        W26499   9.732  22.570   2.076 -0.0247 -0.0541 -0.0085
83562W        W26500   9.941  20.496   1.795  0.3065 -0.0887  0.1058
83563W        W26501   8.664  22.034   2.634  0.2184  0.3507 -0.0624
83564W        W26502   9.102  24.107   0.850  0.0673 -0.3259 -0.0533
83565W        W26503  10.554  21.511   3.437 -0.0208  0.1592 -0.0748
83566W        W26504   7.099  23.440   2.924 -0.0462  0.2009 -0.1100
83567W        W26505   9.404  21.158   2.162  0.1198 -0.0190  0.0937
83568W        W26506  11.890  25.443  31.334 -0.0046  0.0350  0.0128
83569W        W26507   9.779  23.188   1.730 -0.1431  0.0170 -0.2864
83570W        W26508   9.584  23.721   2.280  0.1186  0.1410  0.0996
83571W        W26509   6.886  24.033   2.281 -0.2903 -0.4886  0.2598
83572W        W26510   9.127  24.329   2.032 -0.1462  0.0086  0.1706
83573W        W26511  10.118  22.876   2.198  0.0141  0.4077  0.1029
83574W        W26512   8.083  25.050   2.051 -0.0258 -0.1368 -0.0625
83575W        W26513   8.090  23.874   1.128  0.1804  0.0698  0.0564
83576W        W26514   6.621  23.660   2.519  0.0187 -0.1081  0.2261
83577W        W26515  11.406  21.939   0.219  0.4108 -0.4651  0.0843
83578W        W26516  10.504  24.014   0.320 -0.1834 -0.4157  0.0158
83579W        W26517   9.970  22.216   0.820  0.2617  0.0131 -0.4222
83580W        W26518  10.218  22.271   2.141  0.0395  0.0948 -0.1156
83581W        W26519   9.542  23.812   0.856 -0.0377 -0.0124  0.0273
83582W        W26520  10.062  21.271   4.223  0.1474  0.0412  0.1598
83583W        W26521   8.433  22.005   2.121  0.0782 -0.0809 -0.0726
83584W        W26522  11.527  25.555   0.915 -0.0630  0.0934 -0.0618
83585W        W26523   7.888  23.759   2.195  0.1118 -0.0460 -0.0612
83586W        W26524   9.413  25.594   3.724  0.3227  0.2373  0.0911
83587W        W26525   7.376  23.351   4.529 -0.2309 -0.0619 -0.1028
83588W        W26526  11.070  22.264   0.411  0.0801 -0.1049  0.2274
83589W        W26527   8.091  20.871   0.662  0.2204 -0.0884  0.0891
83590W        W26528   8.084  23.333   2.346  0.1447  0.0380  0.2047
83591W        W26529  10.498  23.591   3.138  0.0435 -0.0425  0.0052
83592W        W26530   8.815  24.448   0.605  0.1149 -0.0759 -0.2612
83593W        W26531  10.217  23.339   0.882  0.2306 -0.0173  0.3542
83594W        W26532   7.564  22.835   2.776 -0.2387 -0.1477  0.2176
83595W        W26533   8.890  23.679   0.140  0.3608  0.0857  0.2671
83596W        W26534   9.631  23.947   0.193  0.2557 -0.1574  0.1867
83597W        W26535   8.474  24.739   0.814 -0.0665  0.0709  0.0404
83598W        W26536   9.860  21.304   2.207  0.1568 -0.1760  0.3906
83599W        W26537  12.342  25.224   1.770  0.1542  0.1253 -0.1336
83600W        W26538   9.327  23.481   1.575  0.0237  0.2894  0.0325
83601W        W26539  10.920  22.368   3.434 -0.1522 -0.3145 -0.0261
83602W        W26540   9.270  23.305   2.540 -0.0970 -0.0649 -0.1480
83603W        W26541   8.804  24.291   2.404  0.2931 -0.1414  0.1017
83604W        W26542   7.396  20.553   3.602  0.0453  0.0205  0.0769
83605W        W26543  10.122  25.945   2.921 -0.1324 -0.0341  0.0844
83606W        W26544  11.680  21.219  29.944  0.0370  0.1999 -0.0058
83607W        W26545  11.829  22.653   2.815 -0.1240 -0.1988 -0.2420
83608W        W26546  10.072  23.988   0.868  0.3267 -0.2627 -0.0788
83609W        W26547  10.902  22.742   0.323  0.0611 -0.1172  0.1522
83610W        W26548   9.797  23.129   3.378  0.0563  0.1908  0.1045
83611W        W26549   9.592  24.229   2.008  0.0607  0.3016  0.1195
83612W        W26550  10.548  23.709  31.907 -0.2764 -0.0323  0.3045
83613W        W26551  10.587  21.566   2.223 -0.1310  0.1500 -0.2362
83614W        W26552  10.519  24.851   0.300  0.0986 -0.3843 -0.0162
83615W        W26553  10.748  24.258   2.148  0.0190  0.0780  0.4326
83616W        W26554   8.730  22.083  31.961  0.0264  0.0069  0.3942
83617W        W26555   8.522  21.532   0.628 -0.0842 -0.1878 -0.0377
83618W        W26556   7.624  25.379   3.351 -0.1308  0.0992 -0.3069
83619W        W26557   8.133  23.078   1.257 -0.0291 -0.1382  0.0799
83620W        W26558   9.304  23.352   0.162  0.0242 -0.1614  0.0586
83621W        W26559  10.454  24.885   3.062 -0.1191 -0.0470 -0.0322
83622W        W26560   9.974  24.571   4.437 -0.0428  0.2543 -0.1503
83623W        W26561   9.611  22.376  31.025 -0.1180 -0.1241  0.0133
83624W        W26562  10.036  22.704   3.116  0.2783 -0.1300 -0.2747
83625W        W26563   7.672  24.547   0.419 -0.1040 -0.0940 -0.2814
83626W        W26564  11.367  21.566   1.867  0.0232 -0.0037  0.0078
83627W        W26565  10.206  25.823   1.893  0.2321 -0.1564 -0.1273
83628W        W26566   7.421  25.770   3.079 -0.3410  0.4270  0.0470
83629W        W26567   9.219  24.916   1.451  0.1486  0.1861  0.0453
83630W        W26568  10.228  21.521   1.918  0.0777  0.0009  0.0780
83631W        W26569  10.106  24.007   3.041  0.1036 -0.2862  0.2800
83632W        W26570   7.527  24.406   1.809  0.0386  0.3634 -0.0409
83633W        W26571  12.050  23.681   2.890  0.2689  0.1873  0.2159
83634W        W26572  11.301  24.968   1.707  0.3494  0.3327 -0.0223
83635W        W26573   6.973  24.240   0.809  0.0503 -0.0893 -0.3093
83636W        W26574  10.943  25.532   2.249 -0.0795  0.0368  0.0345
83637W        W26575  11.722  24.696   0.522 -0.0274 -0.0102  0.0580
83638W        W26576   7.966  23.808   1.681  0.1534 -0.1316 -0.3383
83639W        W26577   6.712  22.661   2.536  0.1946 -0.1576 -0.2181
83640W        W26578   8.021  21.637   4.267 -0.1799 -0.1205  0.0907
83641W        W26579  10.662  24.154   0.772 -0.1457 -0.1871 -0.0660
83642W        W26580   8.446  21.246  31.331  0.0447 -0.0027  0.1605
83643W        W26581  10.401  25.395   0.483  0.2407  0.0809 -0.2779
83644W        W26582   7.366  24.460   3.502  0.2157 -0.1438 -0.1888
83645W        W26583   7.112  23.166   2.004 -0.0424 -0.1144  0.3318
83646W        W26584   7.338  25.505  31.944 -0.1053 -0.0869  0.2062
83647W        W26585  11.859  24.292  31.096 -0.0990 -0.3262 -0.0497
83648W        W26586  11.126  24.389   0.814 -0.0806  0.1285  0.1996
83649W        W26587   9.655  25.173   2.410  0.1824 -0.0437 -0.0548
83650W        W26588  10.058  21.169   0.620  0.5190 -0.1402  0.0369
83651W        W26589   6.930  25.920   1.471 -0.0295 -0.3604 -0.2345
83652W        W26590   6.719  25.019   1.861 -0.0442  0.0957 -0.1903
83653W        W26591  11.629  24.522  31.493 -0.0650 -0.3195 -0.2041
83654W        W26592   7.397  24.662   0.796 -0.0220 -0.0051  0.0286
83655W        W26593  10.696  23.958   3.978 -0.4495 -0.0506  0.0536
83656W        W26594  10.806  22.941  31.544  0.2549  0.0256  0.0975
83657W        W26595  11.351  24.036   1.181 -0.0402 -0.1935  0.1220
83658W        W26596  12.368  23.660   1.343  0.3070  0.1782 -0.0565
83659W        W26597   7.990  23.251   2.784  0.1121  0.2860 -0.1443
83660W        W26598   9.955  22.503   1.229  0.0325  0.0181  0.1487
83661W        W26599   9.862  22.358  31.482 -0.0925  0.1338  0.1836
83662W        W26600   7.128  22.403   3.320 -0.3435  0.2215 -0.0023
83663W        W26601  12.735  21.674   1.871 -0.3873  0.1753 -0.4365
83664W        W26602   7.024  24.642   3.204  0.5276  0.1178  0.0292
83665W        W26603  11.042  25.110   0.798  0.0125  0.3869 -0.1503
83666W        W26604   9.211  23.085   0.617 -0.1300  0.0422 -0.0009
83667W        W26605   8.628  23.217   1.774  0.1933 -0.1025  0.1828
83668W        W26606  10.678  22.102   2.984 -0.0827  0.0991 -0.1993
83669W        W26607   8.676  23.975   0.569 -0.1283  0.1424  0.0424
83670W        W26608   9.603  22.746   1.540  0.0418 -0.0167 -0.2892
83671W        W26609   8.827  25.938   0.341  0.0721 -0.0215  0.2136
83672W        W26610   7.675  25.245   1.518 -0.0616  0.0747 -0.2958
83673W        W26611   8.150  26.474   3.230  0.1384  0.2444  0.4187
83674W        W26612   7.894  21.983   0.626 -0.1645  0.0269 -0.0225
83675W        W26613  10.719  21.988   1.284 -0.1036 -0.2398 -0.1759
83676W        W26614   9.785  21.736   2.736  0.0729  0.2032  0.1817
83677W        W26615  10.063  23.061   1.290 -0.0382 -0.0010 -0.2594
83678W        W26616   9.392  22.158   2.016  0.0727  0.0928 -0.1741
83679W        W26617  11.339  22.526   1.013 -0.0282  0.2320  0.0769
83680W        W26618   9.763  24.112   2.619  0.0880  0.0926  0.2839
83681W        W26619   9.789  22.584   2.607  0.2608 -0.3312 -0.3399
83682W        W26620  10.371  22.359   0.002  0.2293  0.2317  0.0979
83683W        W26621   9.766  23.438   0.116 -0.0084  0.2328 -0.1336
83684W        W26622  10.082  23.866   0.057 -0.1574  0.4477  0.1211
83685W        W26623  10.709  24.717   2.599 -0.0641 -0.1628  0.1543
83686W        W26624   6.701  20.145   1.743  0.0210 -0.3324 -0.2433
83687W        W26625  11.181  23.055  31.906 -0.0113  0.0744 -0.0756
83688W        W26626   9.115  23.607   0.644 -0.0079 -0.2244 -0.2842
83689W        W26627  10.244  22.866   2.719  0.0676  0.0107 -0.0242
83690W        W26628  10.687  25.272   3.579  0.0171 -0.2678 -0.5009
83691W        W26629   8.137  21.902  31.741 -0.1623 -0.0831 -0.2949
83692W        W26630  11.424  23.773  30.422  0.0481  0.0858 -0.2238
83693W        W26631  10.540  23.789   2.196  0.0595 -0.1772  0.1575
83694W        W26632  10.087  24.796  30.622  0.4077 -0.3155  0.1215
83695W        W26633  10.539  24.676   1.417 -0.0612  0.1013 -0.0888
83696W        W26634  12.109  24.878   0.892  0.0475  0.0583 -0.0439
83697W        W26635   9.416  21.835   1.539 -0.3159 -0.0119 -0.1731
83698W        W26636  10.448  24.911   2.196 -0.3541  0.0240 -0.0645
83699W        W26637  10.510  22.790   1.420  0.1411 -0.1405  0.4380
83700W        W26638   8.562  20.032   0.430  0.1120  0.1350  0.5820
83701W        W26639   8.701  23.363   2.233  0.1744  0.0487  0.0606
83702W        W26640   8.321  24.631   1.311  0.0835 -0.0849  0.0577
83703W        W26641  10.621  23.501   1.785  0.1673 -0.0403 -0.1809
83704W        W26642  11.138  22.526   2.208  0.2029 -0.1073  0.0846
83705W        W26643   8.861  24.639   1.114  0.0117  0.2078  0.0845
83706W        W26644   9.782  22.159   2.386 -0.4744  0.0240 -0.0998
83707W        W26645   8.920  23.764   2.421  0.1383  0.0470 -0.0362
83708W        W26646   8.537  24.684   2.627 -0.3199  0.1588  0.0308
83709W        W26647   8.492  23.494   0.378 -0.0108  0.0083 -0.1185
83710W        W26648   9.108  23.776   3.326 -0.1646 -0.1503 -0.1520
83711W        W26649   9.793  23.814   1.721  0.0766 -0.1805 -0.4626
83712W        W26650   8.426  24.149   1.413  0.1457 -0.2008 -0.0104
83713W        W26651  11.119  25.452   1.799  0.0421 -0.1425  0.0217
83714W        W26652  10.554  23.673   0.713  0.0832 -0.1397  0.1346
83715W        W26653  10.634  23.996   1.725  0.1540  0.0106  0.2568
83716W        W26654   9.149  22.008   1.157  0.1219  0.0778 -0.1996
83717W        W26655  10.863  22.379   1.834 -0.2404 -0.1511  0.1708
83718W        W26656  10.880  22.510   1.344  0.2825 -0.2172  0.1874
83719W        W26657   9.277  24.191   2.502  0.0681 -0.1890  0.2579
83720W        W26658   8.574  24.818   0.296 -0.0155  0.1843  0.1973
83721W        W26659   8.494  24.095  31.458 -0.1209  0.0369 -0.1846
83722W        W26660   8.870  23.415   2.946 -0.0913  0.0285  0.0111
83723W        W26661   9.957  22.209   2.881 -0.1246 -0.2577  0.0180
83724W        W26662   8.409  22.837   4.137  0.2898  0.4190  0.2021
83725W        W26663   8.463  22.810   2.150  0.0537 -0.1303  0.0063
83726W        W26664   8.852  22.478   0.373 -0.2478  0.3604 -0.1044
83727W        W26665  11.556  25.459  31.669 -0.2108  0.0884 -0.2039
83728W        W26666   8.340  21.731   2.974 -0.1211  0.3819  0.1320
83729W        W26667   8.334  21.931   0.963 -0.0239  0.0439  0.1698
83730W        W26668  10.544  23.837   1.226  0.3545  0.2739  0.0814
83731W        W26669  10.873  26.746  31.381 -0.3911 -0.0389  0.0689
83732W        W26670   9.722  21.336   1.482 -0.3110 -0.1284 -0.0726
83733W        W26671  10.180  24.374   2.613 -0.0533  0.1328  0.1617
83734W        W26672   8.373  24.337   0.484  0.2378  0.0772 -0.1050
83735W        W26673   8.996  22.391   4.217  0.0843 -0.0865 -0.1286
83736W        W26674   8.752  22.582   2.774  0.2167 -0.2301  0.1268
83737W        W26675   9.076  21.843  31.656 -0.5602  0.2983 -0.4075
83738W        W26676   8.287  22.690   2.921  0.1719  0.1629  0.1892
83739W        W26677  10.253  24.416   0.439  0.1276  0.0616  0.0278
83740W        W26678  11.781  24.248   0.342  0.1153 -0.3507 -0.1517
83741W        W26679   9.241  24.179   3.073 -0.0444 -0.0299 -0.0795
83742W        W26680   7.700  23.991   3.453  0.0895  0.3160  0.1288
83743W        W26681   8.408  21.563   1.825 -0.1342  0.0629  0.2055
83744W        W26682   9.728  24.459   0.277  0.0522  0.0042 -0.1458
83745W        W26683   7.521  23.708   2.975  0.0217 -0.0560  0.0340
83746W        W26684  11.237  25.199   0.028 -0.2319 -0.3178 -0.1068
83747W        W26685  10.861  22.963   1.826  0.1157 -0.2066  0.2120
83748W        W26686  10.073  23.004   0.203  0.0363  0.1382  0.1309
83749W        W26687   8.865  22.429   2.250  0.1029 -0.0698 -0.0328
83750W        W26688   7.534  23.330   2.653  0.0277  0.0358  0.0285
83751W        W26689  11.086  23.432   3.132 -0.0985  0.0825  0.1607
83752W        W26690   9.837  20.901   1.018 -0.1496  0.0328 -0.0632
83753W        W26691  10.516  22.836  31.950  0.1267 -0.0074 -0.5931
83754W        W26692  10.531  25.412   1.965  0.0975 -0.0345 -0.0254
83755W        W26693   8.362  22.409   2.461  0.1418 -0.0288 -0.1193
83756W        W26694   9.900  22.489  31.926 -0.1578 -0.0827  0.2427
83757W        W26695   9.823  24.014   4.501 -0.1444  0.3526  0.2741
83758W        W26696   8.425  25.350   2.304 -0.0192  0.0470  0.1169
83759W        W26697  11.352  22.324   3.696 -0.1623  0.2046 -0.0645
83760W        W26698   8.682  22.994   0.374 -0.1224 -0.0675  0.0554
83761W        W26699  11.324  23.472   1.206  0.1612  0.0534 -0.1525
83762W        W26700  10.621  26.227   2.649  0.0748  0.1864 -0.0631
83763W        W26701  10.758  25.853   3.587 -0.0732 -0.0507 -0.1367
83764W        W26702   7.805  24.257   2.993 -0.1621 -0.2820 -0.0863
83765W        W26703  11.907  24.297   1.442  0.2178  0.2053 -0.0259
83766W        W26704   9.422  23.260   2.061  0.1163 -0.0022 -0.0061
83767W        W26705   9.784  24.288  31.748 -0.1428 -0.1443 -0.1909
83768W        W26706   7.260  24.362   2.862  0.0466 -0.0238  0.2031
83769W        W26707  10.718  23.482   2.619 -0.0505  0.0453  0.0337
83770W        W26708   8.327  22.579   1.210  0.4276 -0.1383 -0.1427
83771W        W26709  10.956  22.235   0.905 -0.1126  0.3883  0.1171
83772W        W26710   8.132  24.663   3.008  0.4600  0.3609 -0.1191
83773W        W26711  10.152  24.914   1.736 -0.3072 -0.3407 -0.2010
83774W        W26712   8.619  24.593   7.165 -0.2570 -0.0551  0.0776
83775W        W26713   7.610  22.627   3.252  0.2043  0.0620  0.0794
83776W        W26714  12.325  23.375   2.575  0.2860  0.1141 -0.3484
83777W        W26715  10.040  23.909   5.273  0.0050 -0.0512  0.2886
83778W        W26716   8.290  21.383   4.647  0.0765  0.2789 -0.5791
83779W        W26717   9.799  25.123   4.442 -0.2179  0.1823  0.1919
83780W        W26718   8.642  22.450   7.419 -0.2776  0.1151  0.3119
83781W        W26719  10.060  23.461   6.477  0.2203  0.0666 -0.1152
83782W        W26720  10.298  25.388   6.384  0.0620  0.0009  0.1698
83783W        W26721   8.377  23.365   3.125 -0.1435  0.0485  0.0622
83784W        W26722   9.924  22.702   5.731 -0.0831 -0.0906  0.0537
83785W        W26723   8.760  24.296   5.083 -0.2614  0.1553 -0.0691
83786W        W26724   9.492  22.605   3.141 -0.1565  0.1329  0.3358
83787W        W26725   6.676  21.280   4.921  0.1955 -0.0147 -0.2099
83788W        W26726   9.999  23.130   6.891  0.0145  0.0429 -0.0894
83789W        W26727   6.300  23.891   4.765 -0.1152 -0.0548  0.1897
83790W        W26728  10.479  21.960   4.344 -0.3863 -0.0484  0.2390
83791W        W26729   9.089  21.449   4.663 -0.2162  0.1468 -0.2296
83792W        W26730   8.825  23.735   4.390  0.1573 -0.1605 -0.0441
83793W        W26731   9.806  22.935   7.911  0.0217 -0.2405  0.1192
83794W        W26732   8.593  23.785   5.374 -0.3099 -0.0181 -0.1617
83795W        W26733   9.497  24.461   5.595 -0.1963  0.2121  0.1441
83796W        W26734   8.123  21.951   2.613 -0.0500 -0.2640  0.0494
83797W        W26735   6.960  22.551   3.774 -0.2255 -0.0461 -0.0307
83798W        W26736   7.704  24.152   6.337 -0.0383  0.1596  0.1050
83799W        W26737  10.653  23.489   3.692  0.0493 -0.0251 -0.2271
83800W        W26738  10.305  24.610   6.202  0.0324  0.1461 -0.4677
83801W        W26739   9.603  24.453   6.193 -0.0318  0.2738  0.1755
83802W        W26740   9.074  24.201   6.116 -0.0061  0.0604  0.0266
83803W        W26741  10.502  23.772   6.408  0.2678  0.1718 -0.1841
83804W        W26742   7.404  24.816   5.488 -0.1490  0.1010 -0.1592
83805W        W26743   5.852  26.076   5.230  0.1102 -0.0347  0.0465
83806W        W26744   8.683  24.484   3.872  0.0040 -0.2773  0.2720
83807W        W26745  12.388  25.523   4.149 -0.1210 -0.2418 -0.0631
83808W        W26746  10.089  25.593   6.985  0.0446 -0.0575 -0.1059
83809W        W26747   7.710  24.844   3.737 -0.0468 -0.1229  0.2410
83810W        W26748   9.492  25.966   7.636  0.0110 -0.0461  0.0835
83811W        W26749   7.596  25.358   7.247 -0.0080  0.0986  0.3032
83812W        W26750   9.547  23.209   6.406 -0.1415  0.0149 -0.1442
83813W        W26751   9.380  23.381   3.641  0.1494 -0.1814 -0.0337
83814W        W26752   7.823  23.492   4.147  0.1231 -0.0195  0.1206
83815W        W26753   6.853  24.237   3.631  0.1402  0.4369 -0.2546
83816W        W26754   8.295  25.343   6.866 -0.0639  0.0814 -0.1501
83817W        W26755   8.982  24.307   5.670 -0.0699  0.2921  0.0181
83818W        W26756  11.332  22.676   7.287  0.2462  0.1505  0.0847
83819W        W26757   7.861  24.521   3.424 -0.1224  0.0076  0.1401
83820W        W26758  11.124  23.393   4.114  0.1780  0.1821 -0.3012
83821W        W26759   9.379  22.795   4.209 -0.2069  0.2511 -0.3209
83822W        W26760   9.764  23.411   4.383 -0.0059  0.0436  0.2084
83823W        W26761   8.155  21.291   5.221  0.0521  0.0624  0.0858
83824W        W26762   8.253  25.447   5.537  0.0040  0.0298  0.2205
83825W        W26763   8.610  23.233   5.690 -0.1320 -0.2450 -0.3807
83826W        W26764  10.325  22.925   6.488  0.2303  0.2497  0.0262
83827W        W26765  10.109  23.278   2.968 -0.0460 -0.1582  0.0134
83828W        W26766   9.898  23.157   5.626 -0.0038 -0.1632 -0.0016
83829W        W26767   7.861  24.738   6.372 -0.2289 -0.0009  0.0655
83830W        W26768   7.657  23.806   5.349 -0.0317  0.0708 -0.1818
83831W        W26769  10.786  25.152   2.795  0.0301 -0.0604 -0.2269
83832W        W26770  12.289  25.544   6.004  0.1598  0.0635 -0.1810
83833W        W26771   8.522  23.100   2.651  0.0072  0.1333  0.2642
83834W        W26772   7.775  22.472   4.153 -0.0016  0.0189 -0.1757
83835W        W26773   7.938  24.007   7.717 -0.0488 -0.2389 -0.2349
83836W        W26774   7.070  23.065   6.463 -0.0015  0.1280  0.2659
83837W        W26775   8.309  21.128   2.152 -0.1595 -0.2585 -0.1945
83838W        W26776  11.143  25.332   5.486  0.1579 -0.3204  0.1716
83839W        W26777   7.245  24.640   6.740  0.1194  0.1113 -0.3310
83840W        W26778  10.493  22.463   3.612 -0.0234  0.0973  0.2164
83841W        W26779   8.638  25.797   6.413  0.0165 -0.3459  0.1676
83842W        W26780  10.513  24.301   6.523  0.3283 -0.1062  0.0837
83843W        W26781   9.934  24.330   4.861  0.0034  0.2215  0.2574
83844W        W26782  10.279  22.600   5.360 -0.3110 -0.1557  0.1716
83845W        W26783  11.995  22.941   7.081 -0.1514 -0.1152 -0.2166
83846W        W26784   7.991  22.303   3.124  0.0377  0.0688  0.1295
83847W        W26785   8.088  23.098   5.400  0.2266  0.1183 -0.2034
83848W        W26786  11.198  24.305   6.110  0.0270 -0.1771 -0.0033
83849W        W26787  10.736  24.088   4.456  0.1596  0.3603  0.0155
83850W        W26788   8.152  25.445   5.023  0.0888 -0.0423 -0.0767
83851W        W26789   7.574  23.478   5.768 -0.0116 -0.1123 -0.1257
83852W        W26790   8.261  23.871   6.532 -0.0997 -0.4376  0.0520
83853W        W26791   8.580  24.645   3.364  0.1566 -0.0384 -0.0409
83854W        W26792   6.606  23.694   5.208  0.0620  0.0349  0.4384
83855W        W26793   6.797  24.565   4.201 -0.2904  0.1855  0.1607
83856W        W26794   6.624  21.759   4.520 -0.0898 -0.1490  0.1480
83857W        W26795   9.051  25.509   6.313 -0.1142 -0.2285  0.0087
83858W        W26796  10.468  24.409   3.087 -0.0646  0.0031 -0.1596
83859W        W26797   8.265  22.551   5.538  0.1126  0.1494  0.0056
83860W        W26798  10.361  22.080   5.430  0.1889  0.1439  0.2009
83861W        W26799   6.965  24.046   4.182  0.1102 -0.3228  0.3848
83862W        W26800  10.258  25.459   4.298  0.2898  0.1761 -0.0934
83863W        W26801  11.651  22.184   2.982 -0.2038 -0.1118  0.1505
83864W        W26802  11.596  25.619   3.975 -0.1477 -0.0727  0.0164
83865W        W26803   7.175  21.849   6.921 -0.5181 -0.1220  0.1495
83866W        W26804   6.909  21.822   5.144  0.1171  0.0548  0.1841
83867W        W26805   8.615  23.118   6.692 -0.0850 -0.4626  0.0370
83868W        W26806   6.601  23.074   6.603  0.0710  0.2447  0.1507
83869W        W26807  10.243  23.255   6.006 -0.1397  0.2424 -0.0001
83870W        W26808   7.867  20.661   4.380  0.1274  0.3094  0.0219
83871W        W26809  10.312  24.185   4.239  0.2172 -0.1370 -0.0832
83872W        W26810   9.513  23.061   4.690  0.1923 -0.2864 -0.1113
83873W        W26811   6.387  24.557   3.895 -0.1791  0.0284  0.1036
83874W        W26812  10.844  22.621   6.842 -0.0028  0.0013 -0.0286
83875W        W26813   9.023  24.560   4.584  0.0089 -0.1003  0.2568
83876W        W26814  11.472  25.879   5.031  0.1818  0.1286 -0.3068
83877W        W26815  11.635  25.319   5.152  0.0115 -0.0773  0.0334
83878W        W26816   6.696  22.821   6.154 -0.0743 -0.3788 -0.0065
83879W        W26817   6.671  22.977   3.756  0.4099  0.0429 -0.0526
83880W        W26818   8.417  25.027   5.738  0.0886  0.2778 -0.0216
83881W        W26819   8.047  23.566   5.061 -0.3723 -0.0583 -0.0742
83882W        W26820  10.101  22.290   4.500  0.1340 -0.4483  0.0682
83883W        W26821  11.222  24.291   4.701  0.3547  0.2411  0.2109
83884W        W26822   9.702  23.482   4.862 -0.2314 -0.2229  0.2434
83885W        W26823   7.785  23.726   6.713  0.0754 -0.3122 -0.0314
83886W        W26824   9.675  23.501   5.982 -0.5787 -0.1077 -0.0220
83887W        W26825  11.291  24.343   5.204 -0.1579 -0.1544 -0.4134
83888W        W26826   9.250  23.572   4.628 -0.1784 -0.3247 -0.1125
83889W        W26827   6.980  20.629   3.864  0.2616  0.0506  0.4099
83890W        W26828  12.191  25.314   5.081  0.1288  0.0374 -0.2194
83891W        W26829   8.937  25.277   5.065  0.2187 -0.2415 -0.1364
83892W        W26830   5.255  23.512   5.468  0.2111 -0.0203 -0.0645
83893W        W26831   9.013  24.873   4.045  0.0592 -0.0147 -0.1644
83894W        W26832  11.555  23.670   4.312  0.4693  0.0929 -0.0137
83895W        W26833  10.098  23.617   7.212  0.0322 -0.0789 -0.7287
83896W        W26834   5.457  22.171   3.576 -0.0187 -0.1859 -0.0421
83897W        W26835   8.503  24.252   5.790 -0.0563 -0.2945 -0.3422
83898W        W26836  10.266  21.636   4.007 -0.3270  0.4237 -0.2330
83899W        W26837  10.258  23.730   4.499  0.1665 -0.0257 -0.0184
83900W        W26838   8.790  24.737   5.565  0.4051 -0.0747 -0.1481
83901W        W26839  10.831  25.093   4.127  0.2700 -0.2282 -0.2726
83902W        W26840  10.058  22.839   3.693 -0.0122 -0.0395  0.3157
83903W        W26841   8.492  22.365   4.327 -0.1447  0.1748 -0.0078
83904W        W26842   8.136  24.312   6.777  0.0555 -0.2709 -0.2762
83905W        W26843   8.874  24.033   3.917 -0.1750  0.1320 -0.0118
83906W        W26844   8.101  22.667   4.523 -0.0348  0.0210  0.1283
83907W        W26845  10.223  22.041   3.258  0.0045 -0.0664 -0.2211
83908W        W26846  10.940  24.743   4.911 -0.2342 -0.1678  0.0815
83909W        W26847   6.971  24.236   6.069 -0.3158  0.2724  0.2753
83910W        W26848   9.964  24.166   7.294 -0.0172 -0.2815  0.1956
83911W        W26849   9.298  24.312   5.175  0.0304 -0.1528 -0.1119
83912W        W26850   9.350  21.799   6.329 -0.0601  0.0280 -0.1106
83913W        W26851   9.183  22.919   2.799 -0.0979 -0.1224 -0.5067
83914W        W26852   8.301  23.099   4.742 -0.4748  0.1995 -0.0252
83915W        W26853   7.453  25.890   4.611 -0.1358 -0.2537 -0.0842
83916W        W26854  11.120  23.447   4.994  0.0287 -0.0621 -0.1864
83917W        W26855  10.726  23.446   5.388  0.2531  0.0040  0.0146
83918W        W26856   8.800  22.451   5.637  0.1897 -0.1405  0.0851
83919W        W26857   9.597  24.080   7.656  0.0345  0.0597 -0.0937
83920W        W26858  12.137  23.057   3.751  0.2511 -0.1948  0.0779
83921W        W26859  10.482  22.903   4.366  0.0220 -0.0438 -0.3958
83922W        W26860   7.870  22.773   1.991  0.4161 -0.1506  0.2792
83923W        W26861   8.984  23.035   4.989 -0.3414  0.0405  0.0550
83924W        W26862   7.619  24.425   7.415 -0.2616  0.0823  0.2967
83925W        W26863   7.061  25.180   6.150  0.2270 -0.2373 -0.0289
83926W        W26864   9.986  26.123   6.829 -0.1080  0.0976 -0.2025
83927W        W26865  10.884  24.276   5.596 -0.2715  0.2001  0.0977
83928W        W26866   9.786  22.783   6.552  0.1745  0.1018 -0.1658
83929W        W26867   9.472  22.227   4.932  0.1257  0.2004  0.1645
83930W        W26868   8.285  24.768   3.794  0.0819  0.3633  0.1583
83931W        W26869   7.959  23.073   4.270 -0.1014  0.2921  0.0342
83932W        W26870  10.490  22.393   6.486  0.0443  0.0666 -0.2202
83933W        W26871   9.542  23.929   4.954  0.0026 -0.1759  0.2348
83934W        W26872   7.954  23.721   2.681 -0.2476 -0.1550  0.1237
83935W        W26873  11.107  23.713   6.240 -0.1278  0.2422 -0.0654
83936W        W26874   9.003  24.751   5.070 -0.0338  0.3447 -0.0841
83937W        W26875  10.160  21.247   5.978  0.2049 -0.5420 -0.1974
83938W        W26876   7.962  25.168   6.538  0.2976 -0.1794  0.1344
83939W        W26877   7.286  21.296   5.078  0.0011 -0.1542 -0.0562
83940W        W26878   6.455  23.934   3.886 -0.0301  0.2742  0.1209
83941W        W26879   9.584  21.419   4.188  0.2387 -0.2250 -0.1057
83942W        W26880  10.967  24.582   4.387  0.2112  0.2186  0.2095
83943W        W26881   7.399  23.983   6.900  0.2662 -0.2328 -0.2231
83944W        W26882   9.748  21.779   6.651  0.2678 -0.2252  0.2287
83945W        W26883   6.048  25.765   6.241  0.0646  0.1878  0.0884
83946W        W26884   7.879  24.089   4.463 -0.0586  0.0357 -0.0948
83947W        W26885  10.356  22.348   2.625  0.2650 -0.0176 -0.2134
83948W        W26886   9.953  25.124   6.794 -0.1978 -0.0208  0.2684
83949W        W26887   9.648  23.504   6.760  0.1204 -0.2103  0.0705
83950W        W26888   7.444  21.635   3.003  0.1084 -0.2185 -0.2535
83951W        W26889  10.660  23.647   5.933  0.2084  0.0690  0.1513
83952W        W26890   6.963  23.274   5.835 -0.0249  0.1508  0.0485
83953W        W26891   7.731  24.333   5.393  0.0510 -0.3108 -0.1449
83954W        W26892   9.976  24.638   6.621 -0.2178 -0.0234 -0.0252
83955W        W26893   8.197  24.160   3.379 -0.5026  0.0464  0.2506
83956W        W26894   7.771  24.079   4.950  0.0617  0.1866 -0.0988
83957W        W26895   8.291  22.145   6.998 -0.3053 -0.1936  0.0948
83958W        W26896   9.260  23.826   6.822 -0.3231 -0.0413  0.2583
83959W        W26897   9.533  22.285   4.367  0.3318 -0.3363 -0.0743
83960W        W26898   6.403  23.669   4.335 -0.0704  0.2674 -0.1372
83961W        W26899   8.654  21.426   5.104 -0.2440 -0.2641 -0.3170
83962W        W26900  10.368  24.221   5.693  0.1022 -0.2899  0.2699
83963W        W26901   9.137  23.930   5.386  0.1171 -0.0194  0.1521
83964W        W26902   8.366  25.554   7.855  0.2651 -0.0219 -0.0316
83965W        W26903   8.830  21.927   6.255  0.0591  0.1610  0.1129
83966W        W26904  11.512  25.895   4.550  0.0410 -0.1222  0.3806
83967W        W26905  10.418  23.421   6.802  0.1578  0.1467 -0.1407
83968W        W26906   7.253  23.594   3.370  0.0496  0.1380 -0.1355
83969W        W26907   7.331  25.031   4.857 -0.3312  0.0122  0.0981
83970W        W26908   8.924  25.054   4.551  0.0966 -0.0012  0.0653
83971W        W26909   9.738  21.499   6.141 -0.2249  0.3193  0.2315
83972W        W26910   9.520  25.690   6.201  0.2074  0.0620  0.1940
83973W        W26911   7.446  24.030   2.595  0.2017  0.0286 -0.1231
83974W        W26912   7.574  24.927   5.953 -0.1424 -0.0253 -0.0030
83975W        W26913  12.062  22.665   2.335  0.0784 -0.1363 -0.2005
83976W        W26914   8.811  23.537   3.945  0.1504  0.2632 -0.1993
83977W        W26915  10.983  22.063   4.481 -0.0846  0.4026 -0.2016
83978W        W26916  10.535  23.048   5.021 -0.2101 -0.0306  0.2285
83979W        W26917  10.689  24.458   3.866 -0.0996  0.1256 -0.2585
83980W        W26918  11.494  22.225   6.650  0.3707 -0.2306 -0.3470
83981W        W26919   8.611  22.846   5.246 -0.1497  0.1076 -0.0406
83982W        W26920  10.382  24.070   4.846  0.0226 -0.0742  0.6156
83983W        W26921   8.155  23.384   6.688  0.0819 -0.2415  0.3152
83984W        W26922   9.748  26.376   8.408 -0.0268 -0.0533  0.1170
83985W        W26923   8.625  24.015   6.239  0.0961  0.2237  0.0117
83986W        W26924   9.250  22.140   5.350 -0.0926 -0.4022 -0.2031
83987W        W26925   8.470  21.917   1.415  0.1863  0.0522  0.0861
83988W        W26926   9.021  25.032   6.550 -0.0450  0.1437  0.2277
83989W        W26927   9.401  23.967   5.792 -0.1435 -0.0213  0.1562
83990W        W26928   8.503  23.674   4.844  0.4704  0.1918 -0.1303
83991W        W26929  10.728  24.079   6.075 -0.1302 -0.0494  0.0285
83992W        W26930   8.343  23.750   5.989  0.2558 -0.1582 -0.0339
83993W        W26931  11.425  23.900   4.867  0.0116 -0.1971 -0.1447
83994W        W26932   8.710  23.410   3.469 -0.0054 -0.2583 -0.0483
83995W        W26933   7.486  22.530   3.725 -0.1205  0.1605  0.2138
83996W        W26934   8.415  23.334   6.271  0.2179  0.5120  0.0620
83997W        W26935   9.625  23.639   5.419  0.0420  0.0981 -0.3147
83998W        W26936  10.214  23.423   5.080  0.0735 -0.1349 -0.0494
83999W        W26937   9.446  23.043   5.894 -0.2635  0.0735  0.0822
84000W        W26938  11.178  22.737   5.818  0.0748  0.1079 -0.1012
84001W        W26939   8.099  23.622   5.583  0.3642 -0.0619  0.0612
84002W        W26940   8.880  22.247   6.902  0.0725  0.1624 -0.1409
84003W        W26941  10.063  25.914   6.350  0.3402  0.1031  0.0612
84004W        W26942  11.700  22.815   4.369  0.0324 -0.2410  0.3510
84005W        W26943  10.817  22.735   5.495  0.0241  0.1282 -0.1651
84006W        W26944  11.086  23.776   3.673  0.0818  0.0332  0.0402
84007W        W26945  10.507  24.022   3.382 -0.0855  0.2829 -0.1242
84008W        W26946   7.815  23.165   4.759  0.1326 -0.1193  0.2921
84009W        W26947  10.121  23.831   7.638  0.1465 -0.0158 -0.1512
84010W        W26948   8.360  22.504   3.439 -0.0819 -0.0307 -0.1286
84011W        W26949  10.408  23.432   7.827 -0.0113  0.0845  0.0632
84012W        W26950   9.495  24.674   4.304 -0.1809  0.2087 -0.2920
84013W        W26951  10.238  23.597   5.572 -0.2365 -0.0802  0.0974
84014W        W26952   9.173  22.544   3.735  0.0526 -0.0873 -0.0655
84015W        W26953   7.435  22.123   4.441  0.1332 -0.0552 -0.3399
84016W        W26954   8.289  24.783   6.811 -0.0293 -0.0493  0.0627
84017W        W26955   7.371  21.310   4.316 -0.1129  0.1285 -0.1652
84018W        W26956   8.193  23.284   3.821 -0.2984  0.0283  0.0296
84019W        W26957   8.517  23.257   4.299  0.0126 -0.0581 -0.2265
84020W        W26958  11.062  24.866   6.841 -0.0474  0.2440  0.0434
84021W        W26959   8.496  22.261   3.000 -0.1093  0.1424  0.2266
84022W        W26960  10.115  22.561   6.826  0.1311 -0.1048  0.2414
84023W        W26961   7.686  24.501   4.621 -0.1606 -0.1113  0.0359
84024W        W26962  10.381  22.487   4.129 -0.2482 -0.1301 -0.1408
84025W        W26963   7.639  25.781   6.419 -0.2172 -0.0586  0.2206
84026W        W26964   8.280  24.536   5.423 -0.1505 -0.1166  0.1141
84027W        W26965   7.627  23.631   4.825 -0.1547  0.1394 -0.3304
84028W        W26966   8.873  21.371   6.531  0.0416  0.0685 -0.0637
84029W        W26967  10.355  23.153   3.414  0.2630 -0.0060  0.2911
84030W        W26968   9.180  24.282   6.637 -0.0029  0.2015 -0.0665
84031W        W26969  10.565  22.506   7.229  0.1041 -0.1759 -0.1659
84032W        W26970   9.816  25.548   6.546  0.0714 -0.0516 -0.2550
84033W        W26971   8.956  23.518   5.062 -0.0957 -0.5840 -0.3385
84034W        W26972  10.089  23.921   6.840 -0.4424  0.2857 -0.0054
84035W        W26973  10.593  24.382   5.190  0.0669 -0.1052  0.1626
84036W        W26974   8.490  25.476   5.991 -0.4809  0.0754  0.0706
84037W        W26975   8.887  23.111   6.086 -0.2275 -0.0893 -0.2476
84038W        W26976   7.981  23.493   7.112 -0.3087 -0.0919 -0.2707
84039W        W26977   9.212  24.747   6.156  0.0484  0.4457 -0.0266
84040W        W26978   8.358  21.823   3.901  0.2769 -0.2239  0.1160
84041W        W26979   8.475  23.847   3.737  0.2375  0.3121  0.1264
84042W        W26980   7.868  24.990   7.034 -0.0244 -0.0797 -0.2212
84043W        W26981   8.010  24.984   5.472  0.2077 -0.0422 -0.0539
84044W        W26982   9.659  24.708   5.031  0.0827 -0.0745 -0.2583
84045W        W26983   9.456  24.298   4.659 -0.2876  0.2772  0.0397
84046W        W26984   8.330  23.895   4.252  0.0435  0.2072  0.0183
84047W        W26985  10.461  25.033   6.055  0.2873 -0.3485  0.0882
84048W        W26986   7.916  22.080   4.479 -0.0432  0.1886 -0.0512
84049W        W26987   7.744  24.362   3.959  0.1173  0.0645 -0.1329
84050W        W26988   6.738  24.305   3.042  0.1945 -0.1606  0.0899
84051W        W26989   9.808  25.595   4.808 -0.1122  0.0198 -0.3138
84052W        W26990   8.901  25.784   5.964 -0.0620  0.0915 -0.1862
84053W        W26991  10.333  25.127   7.290 -0.2057 -0.1549  0.2415
84054W        W26992  10.855  23.028   3.416  0.1923  0.2064 -0.1062
84055W        W26993  11.119  23.159   5.453 -0.0853 -0.2505 -0.0207
84056W        W26994  11.513  23.099   4.028  0.1682  0.0809  0.0114
84057W        W26995   9.370  25.345   5.893 -0.2819 -0.3717 -0.0629
84058W        W26996  10.182  23.206   3.994  0.0266 -0.0258 -0.0841
84059W        W26997   9.008  23.017   3.865  0.0807  0.1163 -0.3913
84060W        W26998   8.253  24.250   7.373  0.0444 -0.2450 -0.2052
84061W        W26999  10.093  22.423   7.363  0.1134  0.1340  0.0648
84062W        W27000   5.952  25.928   6.706  0.0146  0.0070 -0.2533
84063W        W27001  11.414  24.261   3.469  0.1741  0.1102 -0.0989
84064W        W27002   7.644  22.066   3.491 -0.1804 -0.1427 -0.0851
84065W        W27003   8.987  22.535   5.152  0.2419  0.0289  0.3448
84066W        W27004  11.081  22.962   4.977 -0.1273 -0.3170  0.1865
84067W        W27005   8.718  22.964   3.110 -0.0067 -0.2913  0.0971
84068W        W27006   9.770  22.582   4.733  0.0847  0.3442 -0.1503
84069W        W27007  10.012  24.585   5.828  0.0983 -0.0051 -0.4553
84070W        W27008   7.970  24.563   5.805  0.1304 -0.0417 -0.0825
84071W        W27009  10.486  25.332   6.866  0.1877 -0.1660  0.1275
84072W        W27010   7.812  22.448   2.602 -0.0970 -0.0505 -0.4545
84073W        W27011  10.640  23.579   4.782  0.1482  0.1905  0.1601
84074W        W27012   8.866  23.855   5.806 -0.1660 -0.0452 -0.0380
84075W        W27013   9.640  22.252   6.538  0.0969 -0.0082  0.1125
84076W        W27014   7.551  22.893   4.037 -0.0412 -0.1656  0.0523
84077W        W27015  11.006  21.517   4.144 -0.0782 -0.2902  0.1480
84078W        W27016   9.130  23.609   6.102 -0.0230  0.1012 -0.1623
84079W        W27017   7.339  24.474   6.312 -0.2105 -0.2006 -0.1063
84080W        W27018   9.968  22.960   5.160  0.2078  0.2842  0.1348
84081W        W27019  10.668  23.275   6.325 -0.0073 -0.3443 -0.2274
84082W        W27020   9.391  23.399   3.154  0.0534  0.4015 -0.0473
84083W        W27021  10.718  26.003   7.521  0.1265 -0.0965  0.0034
84084W        W27022   7.180  22.558   4.249 -0.2117  0.1611 -0.0577
84085W        W27023   9.701  21.867   3.768  0.1985  0.3253 -0.1663
84086W        W27024   6.977  25.370   4.812  0.3222  0.1851 -0.1096
84087W        W27025   9.431  23.165   5.284 -0.1135 -0.1733  0.2806
84088W        W27026  10.516  23.998   7.978 -0.1893  0.0576  0.0611
84089W        W27027   8.111  20.958   4.845 -0.2926 -0.0555 -0.3131
84090W        W27028  10.312  25.112   3.878  0.1374  0.2489  0.0750
84091W        W27029  10.538  23.921   5.354  0.1242  0.2908  0.1879
84092W        W27030   8.665  24.199   4.427  0.3455 -0.2283  0.1496
84093W        W27031   8.428  25.048   2.953  0.0094 -0.1449  0.5918
84094W        W27032  10.154  25.212   5.685  0.2669 -0.1198 -0.1793
84095W        W27033   7.507  24.417   5.821  0.0553  0.0521 -0.4942
84096W        W27034   9.921  25.477   6.065 -0.1122  0.1592  0.1431
84097W        W27035  12.264  24.594   6.218 -0.4825  0.1974  0.4097
84098W        W27036   9.094  21.429   4.008  0.0651  0.3383  0.1852
84099W        W27037   7.559  22.762   4.522 -0.1256 -0.4046 -0.0128
84100W        W27038   7.566  26.495   5.673  0.0272  0.0867 -0.0292
84101W        W27039  11.078  22.883   4.188  0.0016  0.0884 -0.1860
84102W        W27040  10.219  23.770   6.032 -0.0975  0.2964 -0.1602
84103W        W27041   9.747  25.588   1.927  0.1988 -0.0489 -0.3283
84104W        W27042  10.203  21.791   7.264 -0.2557  0.1581  0.0248
84105W        W27043   9.475  24.758   6.618 -0.2653  0.2049  0.1215
84106W        W27044   8.277  24.943   7.379  0.2398 -0.1664  0.1369
84107W        W27045   7.244  24.458   4.071 -0.0338 -0.2088  0.0858
84108W        W27046   7.923  23.668   6.195 -0.0245  0.3036 -0.0738
84109W        W27047   8.039  23.636   3.261  0.1214  0.0889  0.2062
84110W        W27048   8.568  25.101   3.950  0.0815  0.1362 -0.0235
84111W        W27049   9.929  24.385   5.393 -0.1631 -0.3349  0.2854
84112W        W27050   8.292  24.047   4.702 -0.0862  0.0998  0.1854
84113W        W27051  12.717  25.381   5.094  0.0185  0.1479  0.1479
84114W        W27052   8.432  22.720   5.981  0.0378 -0.0039  0.2890
84115W        W27053  10.836  22.433   3.949 -0.1231 -0.0772 -0.0470
84116W        W27054  11.306  21.453   3.312 -0.0837 -0.0968  0.1048
84117W        W27055   7.236  22.126   6.463 -0.1460  0.0313 -0.1428
84118W        W27056   6.857  23.826   4.681  0.3857  0.0649  0.0171
84119W        W27057   7.303  23.001   3.600  0.0260  0.1168  0.0765
84120W        W27058   7.103  25.136   5.288 -0.1787 -0.2570 -0.0235
84121W        W27059   9.807  22.196   5.558 -0.0710  0.1004  0.2645
84122W        W27060   8.208  20.614   6.210 -0.1547  0.0483 -0.2427
84123W        W27061   8.142  23.524   4.547  0.2101 -0.1481  0.0354
84124W        W27062   7.387  20.788   4.107 -0.4450  0.0625  0.0464
84125W        W27063  12.396  24.869   4.880 -0.0615  0.0957 -0.0203
84126W        W27064   7.652  23.320   5.258 -0.3131 -0.3150 -0.2251
84127W        W27065   7.554  22.852   5.136 -0.3761 -0.2268 -0.1133
84128W        W27066   9.896  24.022   5.749 -0.0975  0.0467 -0.4424
84129W        W27067  11.540  25.353   4.607 -0.2720 -0.1293 -0.1834
84130W        W27068   9.039  22.953   5.482  0.0053  0.1535 -0.0443
84131W        W27069  11.342  25.594   7.178  0.1417 -0.1326  0.0512
84132W        W27070   6.718  23.830   3.223  0.0130 -0.0395  0.2184
84133W        W27071   8.636  24.248   6.755 -0.0573  0.1682 -0.5307
84134W        W27072   9.919  22.965   6.157  0.2086 -0.4143  0.1871
84135W        W27073   8.328  21.185   3.893  0.0346 -0.1798 -0.1848
84136W        W27074   8.491  23.332   5.208  0.1596 -0.4047  0.2855
84137W        W27075  10.233  24.721   5.067 -0.0643  0.0947 -0.0962
84138W        W27076   9.037  24.825   3.518  0.2200 -0.0407  0.0605
84139W        W27077   8.480  24.635   4.798 -0.0559  0.1650  0.0943
84140W        W27078   9.505  26.072   6.704 -0.2126  0.1151  0.2823
84141W        W27079   8.784  22.686   6.562  0.0232  0.1503 -0.0140
84142W        W27080   9.316  23.937   3.765 -0.0732  0.1901 -0.0422
84143W        W27081   9.426  24.346   7.149 -0.2283  0.0270 -0.0537
84144W        W27082  11.264  21.918   5.588  0.0039  0.0387  0.3524
84145W        W27083  11.241  22.797   3.652 -0.0989 -0.0143  0.1516
84146W        W27084   8.770  20.980   7.296 -0.0933  0.0198 -0.1478
84147W        W27085  11.026  25.049   5.928 -0.1270 -0.1645 -0.1561
84148W        W27086   8.551  22.177   5.216  0.2288 -0.2246 -0.2570
84149W        W27087   7.544  22.153   2.926  0.4963  0.2017  0.0834
84150W        W27088   9.135  24.383   4.158  0.2028  0.2500 -0.1293
84151W        W27089   8.302  22.313   4.769 -0.1207 -0.2683  0.0443
84152W        W27090   8.673  22.731   4.722 -0.3684 -0.1529  0.1764
84153W        W27091   9.810  24.710   7.078  0.3371 -0.1144  0.0525
84154W        W27092  10.047  24.142   6.362  0.0367  0.1463 -0.1979
84155W        W27093  10.667  24.630   7.324 -0.0918  0.0234  0.1082
84156W        W27094   9.556  22.875   3.761  0.1467 -0.1641 -0.1058
84157W        W27095  10.605  21.990   3.814 -0.0006 -0.1637 -0.0440
84158W        W27096  10.780  25.479   5.920  0.0254 -0.4531  0.1281
84159W        W27097  11.313  25.108   6.341  0.1261 -0.4099 -0.0541
84160W        W27098   8.334  24.919   6.251 -0.1602  0.1759 -0.1237
84161W        W27099  11.742  23.934   5.315  0.1466  0.0261 -0.1842
84162W        W27100   8.531  21.929   5.775 -0.1722  0.2137 -0.1242
84163W        W27101   7.329  24.088   4.596 -0.3182 -0.4356  0.0825
84164W        W27102   9.005  23.077   4.455  0.0491 -0.1544  0.3838
84165W        W27103  11.251  23.774   5.354  0.1574 -0.0242  0.3523
84166W        W27104   9.087  21.529   6.002 -0.1601 -0.3197 -0.3162
84167W        W27105  10.846  22.531   2.654  0.0689  0.1785  0.0055
84168W        W27106   6.734  25.341   6.569 -0.1079  0.0807 -0.2863
84169W        W27107  10.103  23.199   4.651 -0.2572 -0.2381 -0.0519
84170W        W27108   7.055  24.556   9.825  0.0156 -0.2631 -0.0820
84171W        W27109   8.590  23.581   8.048 -0.0383 -0.2398 -0.1241
84172W        W27110  10.684  21.881   7.397 -0.1877 -0.1400 -0.0361
84173W        W27111  10.570  23.398   7.294 -0.0924 -0.0621 -0.1336
84174W        W27112   7.477  22.321   7.346 -0.0372  0.0502  0.0282
84175W        W27113  10.278  25.144   7.978  0.1391 -0.0506 -0.1141
84176W        W27114   8.308  25.468   8.860  0.3448  0.1172  0.0821
84177W        W27115  10.004  25.949   8.560  0.2816  0.0496  0.1291
84178W        W27116   8.715  25.058   6.994  0.0369  0.2067  0.2154
84179W        W27117   9.707  23.629   9.411 -0.3763  0.1927 -0.1004
84180W        W27118   8.975  21.960   7.600  0.1478  0.0018 -0.0688
84181W        W27119   7.787  21.478   9.645 -0.0665  0.1147 -0.1051
84182W        W27120  11.957  23.145   9.321 -0.1385  0.0843  0.0237
84183W        W27121   8.675  23.625   6.542  0.2140 -0.0542  0.0600
84184W        W27122   8.258  22.690   9.414 -0.2105  0.0135 -0.2224
84185W        W27123   9.352  22.977   7.593 -0.1020 -0.2536  0.2647
84186W        W27124   8.763  22.667   9.845  0.1156 -0.0338  0.0678
84187W        W27125   6.966  22.806   9.245 -0.1841  0.0760  0.1002
84188W        W27126   9.369  24.912   7.396 -0.0094 -0.3617  0.0379
84189W        W27127   7.939  22.527   7.191  0.0548  0.0254  0.0315
84190W        W27128   9.567  23.196  10.323 -0.0068  0.2685 -0.2545
84191W        W27129  10.866  23.679   8.739  0.0779 -0.0139  0.0688
84192W        W27130  10.537  22.192   8.886 -0.0363 -0.1293  0.0509
84193W        W27131  10.646  22.862   8.446 -0.0105  0.0465 -0.0521
84194W        W27132  10.294  23.720   9.639  0.0563  0.0210  0.0215
84195W        W27133   9.805  24.841   9.358 -0.3369 -0.1941  0.0024
84196W        W27134   7.575  24.358   9.435 -0.1049 -0.2146  0.1837
84197W        W27135   7.266  24.584   8.889 -0.0659 -0.0195  0.0287
84198W        W27136   9.559  24.326   8.620  0.2426 -0.0684 -0.1495
84199W        W27137  11.080  25.436   8.612  0.0623 -0.1847  0.2040
84200W        W27138   8.852  25.013   8.322  0.1997 -0.3104 -0.1388
84201W        W27139   8.005  24.182  10.024  0.0820  0.1783 -0.1007
84202W        W27140   8.527  22.614   7.900  0.6511  0.0257 -0.0218
84203W        W27141   8.321  25.064   7.841  0.1805  0.1458  0.1111
84204W        W27142   8.877  22.683   9.318  0.1007  0.0485  0.2599
84205W        W27143   6.702  23.884   9.015  0.1262 -0.1360 -0.2025
84206W        W27144   7.546  25.064   8.179  0.3046 -0.0158  0.1276
84207W        W27145  10.499  22.931   7.000  0.1470 -0.1812  0.2382
84208W        W27146   8.301  22.820   6.467 -0.1039 -0.2695  0.1034
84209W        W27147   8.825  22.871   7.594 -0.1098 -0.0478  0.4284
84210W        W27148   7.086  23.397   9.255  0.0296 -0.1316  0.2211
84211W        W27149   6.977  24.928   9.004  0.3287 -0.0185  0.0662
84212W        W27150   8.936  20.024   9.424  0.2472 -0.3190 -0.0473
84213W        W27151   9.630  24.124   6.788  0.0026  0.0553 -0.0320
84214W        W27152  10.126  22.115   8.614 -0.2550 -0.1650 -0.4796
84215W        W27153   6.848  23.107   9.772  0.0384 -0.0133  0.0748
84216W        W27154   8.929  22.771   8.140  0.2790 -0.3832  0.2129
84217W        W27155  10.174  24.667   7.396 -0.0117  0.1426  0.1368
84218W        W27156  10.704  24.676   9.192  0.1706  0.2910  0.1134
84219W        W27157  10.654  25.441   8.200  0.0359  0.0993  0.1268
84220W        W27158   7.379  23.773   7.860 -0.0420 -0.1255 -0.1513
84221W        W27159   7.902  22.635   6.047  0.1891  0.3264 -0.2519
84222W        W27160  10.045  22.492   7.835  0.1427  0.0561 -0.0611
84223W        W27161   9.764  23.366   8.272 -0.0923  0.1383 -0.0238
84224W        W27162  12.025  25.430   9.940 -0.2343  0.1662  0.2075
84225W        W27163  10.422  24.802   6.748 -0.3179 -0.2710  0.1687
84226W        W27164   9.355  21.422   8.650 -0.0125 -0.0479 -0.2022
84227W        W27165   8.251  22.789   9.918 -0.2001  0.0054  0.2097
84228W        W27166   9.126  25.284   7.226 -0.1461  0.0953 -0.4068
84229W        W27167   8.812  23.595   7.007  0.0141  0.1555 -0.1310
84230W        W27168  10.420  24.878  10.005 -0.1695  0.0118 -0.2262
84231W        W27169  10.615  24.183   8.417 -0.1724 -0.2007  0.4460
84232W        W27170   8.779  23.614   9.594 -0.2941  0.0289  0.2227
84233W        W27171   8.581  25.273   6.471  0.1112 -0.1934 -0.0724
84234W        W27172   7.925  23.671   9.987 -0.1160  0.1525 -0.1787
84235W        W27173   8.422  23.997   7.846  0.2724 -0.1289  0.1388
84236W        W27174   7.221  23.704   8.871  0.1779  0.2360 -0.1469
84237W        W27175   8.961  23.227   7.929  0.2241  0.1988  0.3648
84238W        W27176  10.921  21.637   8.251 -0.4318 -0.1685  0.1453
84239W        W27177   9.515  22.166   9.014 -0.0543  0.0750 -0.1278
84240W        W27178   7.689  23.638   7.493 -0.0361 -0.0151  0.0729
84241W        W27179   9.155  25.090   9.392 -0.1645 -0.0274 -0.0564
84242W        W27180  11.494  23.733   8.093  0.0145  0.1097  0.0129
84243W        W27181   9.551  25.998   8.810 -0.3076  0.2475 -0.2433
84244W        W27182   8.939  23.425   9.103  0.0198  0.1897 -0.1459
84245W        W27183   8.306  22.253   6.077 -0.4145 -0.1119  0.4567
84246W        W27184   8.598  23.467   8.556 -0.1992 -0.0738 -0.1324
84247W        W27185   7.413  21.628   7.255 -0.1568  0.4273  0.1656
84248W        W27186   9.082  21.426   7.753  0.1159 -0.0342 -0.0647
84249W        W27187   8.979  23.883   7.794  0.0900  0.1849 -0.1349
84250W        W27188   7.041  24.819   8.041 -0.1827 -0.1577  0.0926
84251W        W27189   9.479  25.610   7.096  0.1557 -0.2360  0.3421
84252W        W27190  10.431  25.466   9.235  0.1633 -0.0162  0.0504
84253W        W27191   9.672  25.250   9.059  0.2198  0.1272 -0.3857
84254W        W27192   8.145  23.248   8.691 -0.1149 -0.0563 -0.0977
84255W        W27193   8.854  23.403   7.477  0.2815  0.0981  0.3328
84256W        W27194   7.912  24.791   8.093 -0.0261  0.5493  0.0302
84257W        W27195   8.548  24.428   9.916 -0.0470 -0.1709  0.1729
84258W        W27196   8.027  21.839   7.460 -0.2178  0.3444 -0.0857
84259W        W27197   9.102  24.538   9.397 -0.0791  0.1146 -0.2755
84260W        W27198  11.303  22.771   6.796 -0.0564 -0.0256  0.0963
84261W        W27199  10.927  21.869   8.750  0.0052  0.2238  0.2298
84262W        W27200   9.378  23.031   8.190 -0.1857  0.1903  0.2288
84263W        W27201   8.474  22.620   6.932  0.3108  0.1031 -0.1136
84264W        W27202  10.065  25.198   8.793  0.0862 -0.0141 -0.2493
84265W        W27203   8.902  26.087   7.685 -0.0726  0.1168  0.0065
84266W        W27204   7.635  24.002   9.031 -0.0360 -0.3405 -0.2435
84267W        W27205   7.790  25.281   9.919 -0.1985 -0.3227 -0.0285
84268W        W27206  10.406  24.179   9.943 -0.1351  0.3545 -0.1734
84269W        W27207   7.964  23.182   7.503  0.1008  0.2143  0.1120
84270W        W27208  10.636  21.457   8.683 -0.1734 -0.3269 -0.0941
84271W        W27209  11.804  23.873   7.724  0.2342 -0.2991  0.0162
84272W        W27210  11.096  24.516   8.317  0.0906 -0.2367  0.0937
84273W        W27211  11.071  23.375   7.673  0.2299  0.1192  0.0255
84274W        W27212   9.246  22.817   6.380 -0.1094  0.2140  0.0452
84275W        W27213   9.104  23.671   8.208 -0.2546  0.0828 -0.1191
84276W        W27214  11.141  24.166   7.873 -0.1391  0.1447 -0.1830
84277W        W27215  10.610  23.916   6.887  0.1585  0.1062 -0.3653
84278W        W27216  10.159  24.457   9.169  0.1803 -0.1895  0.1738
84279W        W27217   9.997  22.812  10.071 -0.2138 -0.2503  0.0697
84280W        W27218   9.724  23.250   7.305 -0.0376  0.0951  0.1098
84281W        W27219   9.143  22.923  10.023  0.2506  0.1806  0.1169
84282W        W27220   7.368  23.959   5.912 -0.4043  0.1026 -0.2260
84283W        W27221   8.588  22.237   8.463 -0.2726  0.0308 -0.1647
84284W        W27222   7.895  26.200   6.198 -0.2286  0.1515  0.1376
84285W        W27223  11.461  23.088   9.603  0.0896  0.3733  0.1253
84286W        W27224   9.626  23.042   8.688  0.2957 -0.1954  0.4534
84287W        W27225   9.732  24.553   7.591 -0.2202  0.0711  0.1469
84288W        W27226   9.466  23.886   8.937  0.0844 -0.2323 -0.1277
84289W        W27227   6.800  23.515   8.141 -0.1759  0.0654  0.2043
84290W        W27228   9.265  21.709  10.091  0.1807 -0.1440  0.2036
84291W        W27229   9.173  22.924   8.977 -0.0426  0.3529  0.2913
84292W        W27230   9.385  23.512   8.559 -0.0504  0.0700 -0.0363
84293W        W27231   9.087  22.444   7.674  0.0473  0.0416 -0.0557
84294W        W27232   9.892  26.016   8.004 -0.0275  0.0862  0.2150
84295W        W27233   7.809  25.042   7.641  0.0342  0.0029  0.1972
84296W        W27234   7.852  23.964   9.511 -0.0448  0.1409 -0.3210
84297W        W27235   8.272  24.587   8.861  0.0473 -0.3255 -0.0565
84298W        W27236   8.639  25.379   7.398 -0.0262 -0.0377 -0.0095
84299W        W27237   9.877  22.733   8.425  0.2290 -0.0880 -0.1880
84300W        W27238   8.748  25.672   8.157  0.3887  0.1987  0.0109
84301W        W27239   9.139  22.225   8.316  0.0559 -0.5039  0.1995
84302W        W27240   8.020  26.154   7.042  0.0170 -0.2765 -0.0283
84303W        W27241   9.875  22.119   8.158  0.0705  0.3597 -0.1295
84304W        W27242   8.530  22.388   9.086 -0.2978  0.0118 -0.2718
84305W        W27243  10.197  21.622   8.566  0.2465  0.0200  0.1390
84306W        W27244   9.825  25.070   7.796  0.0087  0.2285  0.2058
84307W        W27245   7.978  24.022   8.678 -0.2053  0.0550 -0.4122
84308W        W27246   8.489  22.223   9.530 -0.1221 -0.1958 -0.2001
84309W        W27247   7.028  26.785   8.744  0.1457  0.1342  0.0625
84310W        W27248  11.391  21.338   8.158 -0.1821 -0.0004  0.0897
84311W        W27249   7.591  21.445   7.701 -0.0191 -0.5065 -0.6902
84312W        W27250  12.322  22.656   8.644  0.0299 -0.0900  0.0076
84313W        W27251   9.411  23.426   9.047 -0.1735  0.0228  0.0182
84314W        W27252   7.484  24.718   7.803 -0.4278  0.1319 -0.0529
84315W        W27253  11.402  24.106   9.403 -0.0558  0.0034 -0.0730
84316W        W27254   8.722  24.022   8.270 -0.0607 -0.0050 -0.0430
84317W        W27255   7.564  25.576   7.741 -0.4394  0.2498  0.1730
84318W        W27256   8.716  21.697   9.840  0.0992 -0.0430 -0.2684
84319W        W27257   8.686  21.822   9.367 -0.0139  0.1168 -0.2129
84320W        W27258   8.125  22.640   8.880  0.3494 -0.1804  0.0025
84321W        W27259   8.717  24.930   9.188  0.2805 -0.0302  0.2114
84322W        W27260  10.445  24.133   8.870  0.1002 -0.0942 -0.3090
84323W        W27261   5.866  24.193   9.249 -0.0658  0.0449 -0.1314
84324W        W27262   8.052  21.932   8.001 -0.0573 -0.1002 -0.0527
84325W        W27263  11.091  25.069   7.857 -0.0105  0.2013 -0.2425
84326W        W27264   8.197  24.298   6.264  0.0703  0.0262 -0.0597
84327W        W27265   5.047  25.761   8.650 -0.2782 -0.0946  0.0430
84328W        W27266   9.145  23.795   7.313 -0.0174 -0.0851 -0.1557
84329W        W27267   8.926  21.701   8.550 -0.2293  0.0306  0.4179
84330W        W27268   7.077  24.389   8.331 -0.1943 -0.1464  0.1041
84331W        W27269   9.170  25.743   7.941 -0.0512 -0.0766 -0.1118
84332W        W27270   6.791  25.726   8.975 -0.2300 -0.3378 -0.0901
84333W        W27271  11.359  21.839   7.948 -0.0482  0.1794 -0.0118
84334W        W27272  10.282  24.342   6.960  0.0728 -0.2106 -0.1023
84335W        W27273   7.214  21.735   8.519 -0.0146  0.0167 -0.0971
84336W        W27274  11.214  21.758   7.439  0.1671 -0.0297  0.4082
84337W        W27275  10.361  22.623   9.292  0.0696  0.2454  0.0086
84338W        W27276   9.721  23.088   9.249 -0.1555  0.0431  0.0982
84339W        W27277   9.440  23.024   6.875  0.1279 -0.0852 -0.3736
84340W        W27278   8.192  22.322   7.601 -0.0010 -0.3086 -0.2558
84341W        W27279   8.778  22.687   8.675 -0.1846 -0.0167  0.2292
84342W        W27280   8.379  24.055   9.561 -0.1791 -0.1232 -0.1201
84343W        W27281   9.067  25.091   8.893 -0.1553 -0.0247 -0.4885
84344W        W27282  10.972  23.208   8.480  0.0500  0.2308 -0.0571
84345W        W27283   9.000  23.129   8.491  0.1772  0.2344  0.1169
84346W        W27284  10.777  23.139   8.027  0.3715  0.1163 -0.0494
84347W        W27285   9.109  24.728   6.967  0.1803  0.2136  0.1319
84348W        W27286   8.466  23.918   8.732  0.1392 -0.0901  0.1328
84349W        W27287   8.358  24.570   9.406 -0.1846  0.0823  0.2741
84350W        W27288   9.774  23.508   7.740  0.0854  0.1686 -0.1380
84351W        W27289   7.722  24.498   8.856  0.0149  0.0268  0.0954
84352W        W27290  11.365  24.081   6.903  0.0393  0.0150  0.0966
84353W        W27291  11.064  23.140   8.987  0.2200  0.2444  0.1220
84354W        W27292   9.895  23.469   8.820 -0.2231 -0.2008 -0.0871
84355W        W27293   9.838  22.158   7.031  0.1640 -0.1183  0.0291
84356W        W27294   7.535  21.937   7.625  0.1176 -0.0238 -0.2225
84357W        W27295   7.985  22.486   6.677  0.1408  0.1962 -0.2019
84358W        W27296  10.321  26.248   7.818 -0.2263  0.3616  0.1865
84359W        W27297   9.465  24.730   9.016  0.1431 -0.0692  0.1361
84360W        W27298  10.313  22.874   8.000 -0.2680  0.0784  0.0033
84361W        W27299   7.461  23.047   9.314  0.1417  0.1341 -0.0645
84362W        W27300   7.793  21.863   7.008 -0.0799  0.0255  0.1035
84363W        W27301   8.540  24.529   7.725  0.0300  0.1726 -0.1753
84364W        W27302   7.848  25.910   9.994  0.1021 -0.2616  0.3726
84365W        W27303   9.887  21.398   6.950 -0.4511 -0.4067 -0.0845
84366W        W27304   7.920  25.367   8.026 -0.1647 -0.0497  0.1207
84367W        W27305   8.610  21.556   8.188  0.0448  0.0546  0.1265
84368W        W27306   6.613  24.715   7.718  0.1335 -0.1135  0.1871
84369W        W27307   9.044  24.470   7.544  0.0852 -0.2836  0.1563
84370W        W27308   8.083  22.453   8.250  0.3054  0.1719  0.2932
84371W        W27309  10.153  23.029   8.963 -0.0029 -0.4599 -0.1953
84372W        W27310  10.998  23.339   9.633  0.1601  0.1272 -0.2653
84373W        W27311   8.557  22.106   7.979  0.3864 -0.1063 -0.1379
84374W        W27312   9.875  24.815   9.933  0.3012  0.0811  0.0505
84375W        W27313   8.894  24.156   9.684 -0.2117  0.1146  0.0590
84376W        W27314  10.119  23.691   8.128  0.3943 -0.0148  0.3105
84377W        W27315   6.968  21.512   9.040  0.0153  0.0609  0.2200
84378W        W27316   8.882  24.930   7.456  0.1534 -0.0912 -0.0116
84379W        W27317  10.697  22.703   8.971 -0.0266 -0.1015 -0.2341
84380W        W27318   9.025  25.894   8.524 -0.0215  0.0634  0.1982
84381W        W27319  10.649  24.999   7.658  0.2763 -0.1210  0.0675
84382W        W27320   8.895  24.691   8.010 -0.0254 -0.1530  0.0829
84383W        W27321  11.190  21.541   9.593  0.0714 -0.2654  0.1151
84384W        W27322   9.543  22.505   8.075 -0.0861 -0.1580  0.1008
84385W        W27323   7.807  24.747   9.283  0.1726 -0.2863 -0.1124
84386W        W27324   7.476  25.849   6.902  0.2168  0.3597 -0.3316
84387W        W27325   9.063  24.322   8.368  0.1048 -0.3391  0.1200
84388W        W27326   8.984  25.240   7.867  0.2033 -0.1311  0.2546
84389W        W27327  10.963  21.424   7.790  0.0141 -0.1363  0.0211
84390W        W27328  11.394  24.034   9.926  0.2221 -0.0110 -0.1731
84391W        W27329  10.408  22.185   7.665 -0.1298  0.2431 -0.2469
84392W        W27330   8.472  23.161   7.758 -0.1371  0.1368 -0.2063
84393W        W27331   9.106  23.347   6.652  0.1149 -0.1271  0.2367
84394W        W27332  10.887  25.890   7.959 -0.0901 -0.3112 -0.1704
84395W        W27333   8.114  22.985   6.971 -0.0623  0.1383  0.2760
84396W        W27334   9.854  22.682   8.958  0.0275  0.0688  0.2656
84397W        W27335  11.789  22.795  10.064  0.1270 -0.1739 -0.1411
84398W        W27336   9.569  23.794   6.351 -0.0376  0.1219 -0.0174
84399W        W27337   9.772  21.786   8.809  0.0805 -0.0447 -0.0195
84400W        W27338   9.949  25.599   7.526 -0.0700 -0.1713 -0.1947
84401W        W27339   9.686  24.298   9.089  0.0762 -0.1980 -0.0668
84402W        W27340   7.679  23.050   8.863 -0.0373  0.1864 -0.2008
84403W        W27341   6.832  20.753   6.864 -0.1210  0.0412  0.0827
84404W        W27342  10.930  23.093   6.760  0.1345 -0.0054  0.0883
84405W        W27343  12.409  23.377   9.234 -0.3013  0.0681 -0.1101
84406W        W27344   8.450  23.299   7.149 -0.1654 -0.0599 -0.0831
84407W        W27345  10.554  22.828   7.596 -0.0513 -0.1327  0.1031
84408W        W27346   8.059  23.118   9.220 -0.0837  0.2279 -0.0870
84409W        W27347   7.689  22.284   8.900  0.0848 -0.1771 -0.1909
84410W        W27348   8.306  23.900   7.036 -0.3212 -0.0233 -0.0113
84411W        W27349  11.384  22.444   6.221 -0.0689 -0.2542 -0.0680
84412W        W27350   7.754  21.205   8.344  0.3693 -0.0147  0.2922
84413W        W27351  11.381  21.730   8.509 -0.0346  0.0348  0.4967
84414W        W27352   8.161  23.610   8.379  0.0463 -0.2561 -0.1465
84415W        W27353  11.503  23.596   9.580  0.4080 -0.1384  0.0714
84416W        W27354   8.049  21.610   9.016  0.1902 -0.1508 -0.0777
84417W        W27355  10.894  23.555   6.671 -0.0113  0.4400 -0.2867
84418W        W27356  11.501  25.335   9.399 -0.2670 -0.2227 -0.2486
84419W        W27357   9.494  25.171   6.316  0.2628 -0.0170 -0.1965
84420W        W27358   8.574  23.911  10.038 -0.3571  0.1462 -0.1867
84421W        W27359   9.258  25.427   8.374  0.1227  0.1727  0.0793
84422W        W27360   8.616  23.067   8.927  0.1273 -0.3080 -0.0744
84423W        W27361   8.275  23.290   9.969 -0.2267  0.1245  0.1035
84424W        W27362   9.704  25.553   8.611  0.0567 -0.2040  0.1360
84425W        W27363   9.661  22.289   8.559  0.0858 -0.0929  0.0102
84426W        W27364   7.753  22.722   9.786 -0.2008 -0.3082  0.0516
84427W        W27365   7.227  25.539   8.663  0.0577 -0.1011 -0.1075
84428W        W27366  10.829  23.803   7.594  0.1700  0.0417 -0.0432
84429W        W27367   9.814  26.365   7.627 -0.0016  0.3440  0.1115
84430W        W27368   8.716  24.860   9.712 -0.3581 -0.1475 -0.1006
84431W        W27369   8.682  23.907   7.403 -0.4007 -0.2030 -0.1079
84432W        W27370  10.641  23.543   8.284 -0.3929  0.1405  0.5008
84433W        W27371   8.797  25.488   8.671 -0.1612 -0.1218 -0.3873
84434W        W27372   7.992  25.592   9.374  0.0470 -0.1596  0.2628
84435W        W27373   9.273  23.764   9.707 -0.0247 -0.1605 -0.0623
84436W        W27374  10.105  25.181   9.579 -0.2003 -0.2770 -0.2266
84437W        W27375   7.709  23.126   8.391 -0.1984  0.1614 -0.0357
84438W        W27376  11.572  22.038   7.098 -0.3122  0.1131 -0.2965
84439W        W27377   9.632  21.812   9.315  0.3913 -0.1211 -0.1090
84440W        W27378   6.594  24.359   9.873 -0.0417  0.0022  0.0631
84441W        W27379   7.360  22.538   8.122  0.1178  0.1925  0.0685
84442W        W27380   8.935  24.195   7.104 -0.0258 -0.2701 -0.2096
84443W        W27381   8.416  24.831   8.264 -0.1691 -0.0141  0.2669
84444W        W27382   8.159  24.161   9.130 -0.1111 -0.0041  0.1095
84445W        W27383   7.523  21.720   6.587  0.2061  0.0022  0.1835
84446W        W27384   9.813  23.889   8.570 -0.0492  0.0961  0.0578
84447W        W27385   7.791  22.627   9.266 -0.0948 -0.2350  0.3088
84448W        W27386   8.701  24.219   9.049 -0.3452  0.0383 -0.0509
84449W        W27387  10.505  24.114   9.420  0.1045  0.0611 -0.2597
84450W        W27388   9.596  25.284   9.543  0.0560 -0.0540 -0.0452
84451W        W27389   9.013  21.761   7.172 -0.4138  0.0771 -0.2126
84452W        W27390   7.572  23.225   7.130  0.0159 -0.3024 -0.0830
84453W        W27391   6.323  21.372   5.669 -0.1112 -0.2083 -0.0398
84454W        W27392   9.202  23.194   9.549  0.1440 -0.2067 -0.0092
84455W        W27393   9.345  24.897   7.924 -0.0811 -0.0496  0.5349
84456W        W27394  10.904  25.324   9.132 -0.2850  0.1885 -0.3279
84457W        W27395   7.021  23.001  10.262  0.1145  0.1541  0.2239
84458W        W27396  10.697  24.933   8.202  0.1883  0.0866  0.0528
84459W        W27397  11.482  25.301   7.637 -0.2164 -0.2938 -0.4100
84460W        W27398  10.380  20.656  10.005  0.4356  0.1145 -0.0543
84461W        W27399  10.535  25.153   8.626 -0.1786  0.2399 -0.1491
84462W        W27400  10.199  23.214   8.390 -0.1649  0.2348  0.2178
84463W        W27401   7.781  23.253   9.637 -0.1350  0.1046 -0.1092
84464W        W27402   9.274  22.627   8.546  0.1088 -0.2348 -0.2657
84465W        W27403   9.644  23.773   7.269  0.1825 -0.1138 -0.0207
84466W        W27404   9.310  24.764   8.484  0.2500  0.0991 -0.2724
84467W        W27405  10.465  21.903   8.123 -0.2211  0.2241 -0.1720
84468W        W27406  10.464  24.646   8.683  0.1465  0.2323 -0.1859
84469W        W27407   9.310  23.453   7.629  0.0325 -0.3402  0.0658
84470W        W27408  11.311  24.517   6.584  0.0359  0.0160  0.4759
84471W        W27409   9.029  25.717   9.466 -0.2428 -0.1635 -0.1658
84472W        W27410   7.807  25.337   8.556  0.0387  0.0984 -0.0377
84473W        W27411   9.578  23.402   9.856 -0.1311  0.3488  0.1105
84474W        W27412   7.762  20.690   9.221  0.1580  0.0165 -0.0793
84475W        W27413   9.317  24.331   7.974 -0.0065  0.0607 -0.4085
84476W        W27414   9.917  24.752   8.728  0.2315  0.1561  0.5198
84477W        W27415  11.777  23.815   9.122  0.1196  0.0288  0.0107
84478W        W27416   9.123  21.739   8.113  0.2337  0.0497 -0.0287
84479W        W27417  10.472  21.463   7.736  0.0824  0.1142 -0.1196
84480W        W27418   9.217  22.450   9.753 -0.2833 -0.0122 -0.2676
84481W        W27419   8.858  24.675   8.699 -0.2575  0.0678 -0.2112
84482W        W27420   9.827  28.642   4.487 -0.2372  0.3826  0.3167
84483W        W27421   9.411  26.415   0.940  0.0242 -0.1016 -0.0079
84484W        W27422  10.602  25.842  29.620  0.0182 -0.0356 -0.1058
84485W        W27423  10.331  27.849  31.859 -0.1292  0.0137 -0.1100
84486W        W27424   6.898  25.598   0.230 -0.0401  0.0752  0.1482
84487W        W27425   9.029  28.747  30.933 -0.0940  0.0534 -0.4539
84488W        W27426   8.389  25.789   1.795  0.2333 -0.2280  0.2503
84489W        W27427   9.313  28.133   2.180  0.1749 -0.1047  0.0890
84490W        W27428  10.578  28.825   3.375  0.1013  0.2345 -0.2912
84491W        W27429   9.939  24.925   0.218 -0.1039 -0.1864  0.1328
84492W        W27430   9.001  25.781   2.518  0.3475  0.0766 -0.3074
84493W        W27431  10.761  29.407   4.823 -0.2261  0.0636  0.2908
84494W        W27432   9.651  24.118   1.295  0.3350 -0.0328 -0.0365
84495W        W27433   7.129  26.052   1.960 -0.0410 -0.1378 -0.2426
84496W        W27434  10.416  26.740   3.541 -0.2586 -0.1531  0.2188
84497W        W27435   6.995  28.624   0.145  0.2004  0.3276 -0.3072
84498W        W27436  10.204  26.393   3.147  0.0049  0.0342  0.2656
84499W        W27437   9.036  25.991   0.812  0.0145 -0.2486 -0.1994
84500W        W27438   9.914  27.799   1.616  0.3129 -0.1408 -0.1368
84501W        W27439   9.580  26.130   4.604 -0.0730 -0.0456 -0.3193
84502W        W27440   9.382  24.558   3.782 -0.1887  0.4236  0.2127
84503W        W27441   8.786  28.584   1.682 -0.1973 -0.2368 -0.2565
84504W        W27442   6.802  27.264   0.955 -0.4075 -0.1835 -0.0039
84505W        W27443   7.760  27.285   2.346  0.1074  0.1722 -0.1703
84506W        W27444   9.329  25.973   1.322  0.0398  0.4303 -0.2311
84507W        W27445  10.721  27.059   2.621  0.1845  0.2404 -0.1669
84508W        W27446  10.845  27.286   1.672 -0.1285 -0.2333  0.2177
84509W        W27447   8.616  26.360   3.513  0.1682 -0.0771 -0.4245
84510W        W27448  10.066  27.143   0.941  0.0931 -0.2632  0.5542
84511W        W27449   9.888  25.017   3.018  0.0920 -0.0069  0.1599
84512W        W27450   9.307  27.837   1.218 -0.1952 -0.0456 -0.1034
84513W        W27451   9.017  29.083   2.062  0.0828  0.0674 -0.0898
84514W        W27452   9.888  27.007   1.849  0.0381 -0.1842 -0.0259
84515W        W27453   9.987  26.913   0.464 -0.0199 -0.1772 -0.2182
84516W        W27454  10.596  28.661   2.550 -0.0007 -0.1332 -0.2998
84517W        W27455  10.139  29.654   3.458  0.0439 -0.0039  0.0938
84518W        W27456   8.182  27.685   0.983 -0.2024 -0.0637  0.0719
84519W        W27457   9.833  27.599   3.387  0.1938 -0.0176 -0.2478
84520W        W27458   9.440  27.892   4.516 -0.1111  0.1056 -0.3656
84521W        W27459   9.305  25.401   1.782 -0.0762  0.1053 -0.5360
84522W        W27460   9.759  25.906   1.031 -0.3602  0.0240  0.1415
84523W        W27461   8.379  26.289   0.353 -0.2581 -0.0241  0.1028
84524W        W27462   9.739  26.534   0.087 -0.3729 -0.2636 -0.0283
84525W        W27463   8.686  26.676   3.091  0.0413 -0.1872 -0.2594
84526W        W27464   9.575  28.460   2.545  0.1415  0.2098 -0.1420
84527W        W27465  11.104  25.901   4.285 -0.0129 -0.2544 -0.1104
84528W        W27466   6.622  27.347   0.499 -0.0769  0.1912 -0.3264
84529W        W27467  11.905  26.084   0.707 -0.0720 -0.1106 -0.2752
84530W        W27468   9.227  27.002  31.317  0.1239 -0.0974 -0.1984
84531W        W27469  10.308  26.472  31.075  0.2117 -0.1655 -0.0187
84532W        W27470  10.087  23.519   2.059 -0.1002  0.0639  0.2328
84533W        W27471   8.954  27.151   3.048  0.0168  0.1050  0.2033
84534W        W27472   9.327  25.525   0.869  0.0052  0.0283 -0.0173
84535W        W27473   8.810  27.280   2.386 -0.0264 -0.1034  0.1127
84536W        W27474  10.036  25.756  31.634  0.0490 -0.3505 -0.0147
84537W        W27475  10.723  27.455   2.959 -0.3321 -0.3285 -0.2383
84538W        W27476   8.534  26.811   2.111 -0.0089  0.1077  0.1894
84539W        W27477   8.363  27.620   1.499  0.0921  0.0657  0.0624
84540W        W27478  10.255  29.972  31.315  0.1218  0.1764 -0.1310
84541W        W27479  10.773  27.950   1.947  0.2017  0.4884 -0.1043
84542W        W27480   9.197  27.974  31.743  0.0949 -0.3524  0.3552
84543W        W27481   8.531  26.081   0.816  0.1732  0.0103 -0.2379
84544W        W27482   7.979  26.825   3.658 -0.0533  0.1834 -0.2677
84545W        W27483   8.607  26.177   2.996 -0.0368  0.1605 -0.1049
84546W        W27484   9.321  25.768   0.406 -0.1113  0.1931 -0.1180
84547W        W27485  11.390  26.420   3.689  0.0285 -0.0119 -0.2385
84548W        W27486   7.902  27.835   2.213  0.0641 -0.1965 -0.1043
84549W        W27487  12.164  25.653   0.587  0.0977 -0.2944  0.2140
84550W        W27488   8.017  28.008  31.810  0.0326 -0.2822 -0.3225
84551W        W27489  10.648  29.641   2.549 -0.0756  0.0938 -0.0232
84552W        W27490  10.494  27.146  31.712 -0.1710 -0.4100 -0.1436
84553W        W27491  10.045  25.259   2.132 -0.0628 -0.0803  0.3311
84554W        W27492   9.705  25.032   1.780 -0.3043  0.0162 -0.1329
84555W        W27493   9.210  28.295   0.435  0.0190  0.0565  0.1113
84556W        W27494  10.026  27.537   0.511  0.0142 -0.0579 -0.0713
84557W        W27495  11.554  27.323   3.261 -0.2444 -0.2199  0.1930
84558W        W27496  10.497  25.802   0.822  0.1629 -0.0683 -0.0832
84559W        W27497   8.207  27.459   3.140 -0.1205  0.0178 -0.2619
84560W        W27498   9.848  25.850   3.792  0.2270 -0.2402  0.2428
84561W        W27499   9.176  27.389   4.111 -0.0087  0.0457  0.0787
84562W        W27500   8.851  28.232   0.834  0.0135  0.2906 -0.1751
84563W        W27501   6.263  27.387   0.964  0.1548  0.0159  0.0452
84564W        W27502   9.706  28.022   0.602  0.0011 -0.1066 -0.1406
84565W        W27503   8.461  26.342   1.933 -0.0833  0.1967  0.2200
84566W        W27504   9.695  26.305   3.110 -0.0118 -0.0900  0.1394
84567W        W27505  10.772  25.796   0.388 -0.2220  0.3811 -0.1458
84568W        W27506   7.896  25.815   2.809  0.0167 -0.0558 -0.4051
84569W        W27507  11.801  26.933   1.724 -0.0103 -0.0342  0.4277
84570W        W27508   8.566  26.542   0.970  0.0555  0.0348  0.0209
84571W        W27509  10.434  29.443   2.113  0.0912  0.0502 -0.1239
84572W        W27510  11.104  27.106  31.807 -0.0537  0.0502  0.0102
84573W        W27511   9.966  28.342   0.913 -0.4701  0.1991 -0.0459
84574W        W27512   7.567  27.210   1.794 -0.1275 -0.1251 -0.2619
84575W        W27513   8.711  26.332  31.952  0.1766  0.1988  0.1212
84576W        W27514   9.551  25.777   2.344 -0.1104  0.2880 -0.1444
84577W        W27515   8.653  26.673   1.625 -0.3214 -0.0418  0.0286
84578W        W27516  10.934  26.237   3.975  0.0497  0.0093 -0.1298
84579W        W27517   9.660  24.979  31.169  0.4207  0.2289 -0.1212
84580W        W27518  10.404  26.693   0.164  0.1573 -0.2387  0.0433
84581W        W27519   9.191  26.244   0.237  0.0716 -0.1486  0.0714
84582W        W27520   7.892  27.719   0.269 -0.0638  0.2817 -0.1301
84583W        W27521  10.238  25.462   2.951  0.1052  0.0053  0.0952
84584W        W27522   9.559  28.317  31.493 -0.2251  0.3040 -0.2149
84585W        W27523  10.453  28.133   2.284  0.0027 -0.2399 -0.2641
84586W        W27524   9.342  28.319   1.004 -0.2475  0.0160 -0.1304
84587W        W27525   9.787  25.874   3.290 -0.2097  0.1498  0.4900
84588W        W27526   9.549  26.189  31.820 -0.0122  0.0400 -0.1837
84589W        W27527   8.604  27.170   1.567 -0.2062  0.1672 -0.2162
84590W        W27528   9.510  26.616   2.711  0.3159 -0.2130  0.0066
84591W        W27529   9.762  25.858   0.150  0.4044 -0.2717 -0.1739
84592W        W27530   9.073  28.060   2.622  0.4037 -0.3121  0.0894
84593W        W27531   8.753  26.820   0.175 -0.1394 -0.0462  0.3663
84594W        W27532   8.949  27.300   3.644 -0.0881 -0.1801 -0.2838
84595W        W27533   9.958  24.552   2.162 -0.2301  0.2055 -0.1749
84596W        W27534  11.749  26.056   1.642  0.0856 -0.1690  0.0671
84597W        W27535  10.422  26.723   0.893  0.0159 -0.1910 -0.0596
84598W        W27536   7.414  25.773   0.540  0.2830  0.2746 -0.0080
84599W        W27537  10.029  29.458  31.527  0.0354 -0.2170  0.1581
84600W        W27538   6.960  26.810   0.631  0.2082  0.3464 -0.1556
84601W        W27539   6.544  25.583   1.326  0.0313  0.2017  0.0850
84602W        W27540   8.687  27.684   2.590 -0.2292  0.0849 -0.0191
84603W        W27541  10.478  26.892   1.679 -0.2961  0.0051 -0.1505
84604W        W27542   8.320  28.576   4.565  0.1759  0.0707  0.0206
84605W        W27543  11.354  25.833   2.446 -0.0140 -0.0298  0.1438
84606W        W27544   7.761  25.821   0.160 -0.0055 -0.1296  0.0592
84607W        W27545  10.328  28.311   4.180 -0.1591 -0.0412 -0.1935
84608W        W27546   9.002  24.978   1.920  0.0959  0.0741 -0.0098
84609W        W27547  11.474  24.988  31.614  0.2660 -0.0677 -0.0329
84610W        W27548  10.488  27.113   3.852  0.1101 -0.0533  0.1360
84611W        W27549  10.686  27.951   1.445  0.2769  0.0908  0.0040
84612W        W27550  11.327  25.636   0.219  0.0738  0.0563  0.1735
84613W        W27551   8.514  25.946  31.462  0.0932  0.1676 -0.0346
84614W        W27552   8.149  29.311   3.647  0.0649  0.2433 -0.1278
84615W        W27553   9.625  26.171   0.562  0.0428  0.0109 -0.1911
84616W        W27554  10.273  27.017   2.898  0.2208  0.0318 -0.0351
84617W        W27555  10.008  25.357   1.494 -0.0929 -0.1079 -0.2819
84618W        W27556   9.599  28.639   0.741  0.0561 -0.3640  0.0861
84619W        W27557   7.069  25.388   1.618 -0.0744 -0.0755 -0.4779
84620W        W27558  10.312  26.252   3.726 -0.0895 -0.0768  0.0465
84621W        W27559  10.322  28.830   0.290  0.0494  0.4383  0.0943
84622W        W27560   9.455  24.741   2.136  0.1046  0.0583 -0.2702
84623W        W27561   8.008  28.606   1.105  0.5779 -0.0021  0.1242
84624W        W27562   9.770  24.822   0.838 -0.0350  0.1940 -0.3108
84625W        W27563   7.499  30.517   0.765  0.2948  0.0214 -0.0486
84626W        W27564  10.750  26.813   3.096  0.1555  0.2212 -0.2505
84627W        W27565  10.286  24.625   3.615  0.0107  0.1541  0.3084
84628W        W27566  11.160  24.887   2.588  0.1226  0.0188 -0.1086
84629W        W27567  11.210  25.877   3.774 -0.1009  0.2191 -0.0039
84630W        W27568  10.767  26.097  31.663 -0.0922 -0.2628  0.2467
84631W        W27569   9.629  26.930   1.292  0.2177 -0.1485 -0.2561
84632W        W27570   9.537  27.010   0.085  0.3345 -0.0819  0.0771
84633W        W27571   9.862  26.806   3.062  0.1820  0.2509  0.0234
84634W        W27572   9.406  26.074   3.539  0.0714  0.0469 -0.0926
84635W        W27573   8.541  27.080   1.017  0.3115  0.0856  0.1809
84636W        W27574  11.069  27.932   3.603 -0.1554  0.4452 -0.0934
84637W        W27575   9.816  27.450   2.101 -0.4373  0.1437  0.1277
84638W        W27576  10.664  25.662   2.687 -0.2551  0.3253  0.3127
84639W        W27577   9.740  25.477   0.485  0.1056 -0.0833 -0.0202
84640W        W27578   7.977  28.101   1.232 -0.0805  0.0507 -0.0283
84641W        W27579   9.090  28.654   0.728 -0.0941  0.0237  0.0897
84642W        W27580   8.623  24.079   1.970 -0.4356  0.1573 -0.0078
84643W        W27581   9.401  27.880   3.060 -0.1843 -0.2600  0.0449
84644W        W27582   8.365  27.815   0.161  0.1452 -0.1277 -0.1171
84645W        W27583   9.841  27.042   2.411 -0.2381  0.1139 -0.1578
84646W        W27584   9.030  26.781   0.908  0.3950  0.1169 -0.0998
84647W        W27585  10.723  26.083   1.183  0.0315 -0.3183 -0.1592
84648W        W27586   9.296  28.529   2.986  0.4104  0.2641  0.1293
84649W        W27587   9.412  26.670   0.392 -0.1357 -0.3945  0.0630
84650W        W27588   6.514  25.967   0.662 -0.1001 -0.0324  0.0214
84651W        W27589  12.499  24.751   2.080  0.0692 -0.0820 -0.0319
84652W        W27590  11.432  28.164  31.271  0.0647 -0.4780  0.1470
84653W        W27591   8.592  26.362   2.431  0.3346  0.1354 -0.0020
84654W        W27592   9.934  24.486   3.042 -0.1858 -0.0899 -0.0589
84655W        W27593   8.928  27.103   1.946 -0.3032 -0.0701 -0.1193
84656W        W27594  10.718  25.589   3.162  0.0931 -0.0303 -0.0718
84657W        W27595  10.536  25.828   2.234 -0.1683  0.4869  0.0990
84658W        W27596  10.397  29.807   3.021  0.0586  0.0978  0.2386
84659W        W27597   8.943  26.780   3.501  0.0693  0.3305  0.3247
84660W        W27598   7.161  25.659  31.401  0.0281 -0.0419 -0.1320
84661W        W27599  11.949  26.875   1.131  0.4828 -0.0486 -0.0897
84662W        W27600   9.783  24.842   1.328  0.0499  0.0181 -0.2870
84663W        W27601   7.466  27.735   0.787  0.0018  0.0225  0.1228
84664W        W27602   9.423  27.118   2.764  0.1094 -0.1912 -0.0271
84665W        W27603   8.466  26.320   1.372  0.0686  0.3567  0.0633
84666W        W27604   9.178  27.394   1.466 -0.2089  0.4846  0.1137
84667W        W27605   9.469  26.110   4.045  0.0354  0.1104  0.1934
84668W        W27606   9.896  27.905   2.872 -0.1328  0.1658 -0.1031
84669W        W27607   9.278  24.960   0.930  0.1203  0.1009  0.1649
84670W        W27608   8.010  25.875   0.728 -0.2608  0.0337 -0.0610
84671W        W27609   9.777  26.177   2.621 -0.2364 -0.1452 -0.1161
84672W        W27610  10.059  26.586   2.548  0.4626 -0.2146  0.0385
84673W        W27611   9.732  26.025   1.621 -0.2670 -0.0557 -0.2310
84674W        W27612   8.118  30.278   3.584  0.0655 -0.0780  0.0473
84675W        W27613   9.382  24.479   1.635 -0.0786  0.2400 -0.1423
84676W        W27614  10.880  29.553   0.809  0.3141  0.1605 -0.1849
84677W        W27615  10.047  27.108   3.450  0.3685  0.1634 -0.0522
84678W        W27616   8.186  27.021   1.711 -0.1273 -0.0800 -0.0008
84679W        W27617   6.677  27.013   2.218 -0.0055 -0.3092  0.1765
84680W        W27618   7.982  26.862   0.646  0.1976 -0.1586 -0.0196
84681W        W27619   9.167  25.429   2.257 -0.1030 -0.0263 -0.2279
84682W        W27620   8.107  28.304   3.455 -0.2274  0.1444 -0.2182
84683W        W27621   8.712  27.623   1.054 -0.0711  0.0138 -0.2322
84684W        W27622   6.936  27.647   2.936  0.1369  0.0126  0.0718
84685W        W27623  11.758  25.033   0.101  0.2026  0.0163  0.3069
84686W        W27624  10.141  26.226   0.004  0.2656 -0.2141 -0.2958
84687W        W27625  11.558  26.197   2.160 -0.2756 -0.2284  0.1993
84688W        W27626  11.087  26.405   2.982 -0.3090  0.0311  0.0434
84689W        W27627  10.767  27.556  31.790  0.1406 -0.2456 -0.1723
84690W        W27628   9.896  24.782   3.956  0.3110 -0.0240  0.2839
84691W        W27629   8.791  25.532   2.926 -0.0565  0.1431  0.0216
84692W        W27630   9.844  27.303   2.923  0.3023  0.1737 -0.0691
84693W        W27631   7.998  27.481   1.918  0.0453 -0.0355  0.1554
84694W        W27632   9.446  29.172   4.951 -0.2638 -0.1051  0.2280
84695W        W27633   9.100  25.858   4.305  0.0293  0.0940  0.0706
84696W        W27634  12.142  24.411   0.662 -0.0886  0.1858  0.0196
84697W        W27635   8.073  24.874   0.536 -0.0613  0.0144 -0.0839
84698W        W27636   8.185  27.713   2.610 -0.0265 -0.1705 -0.0229
84699W        W27637  10.271  27.339   2.544  0.1863  0.0232 -0.0094
84700W        W27638   8.835  27.542   0.500 -0.1420  0.0722 -0.0337
84701W        W27639  10.279  27.348   2.004 -0.1634  0.2284  0.3726
84702W        W27640   7.761  26.818   1.489 -0.3305  0.0894  0.0385
84703W        W27641  11.450  26.043   1.067  0.2194  0.0156  0.1749
84704W        W27642  10.188  26.287   1.021 -0.0696  0.1130 -0.0462
84705W        W27643   9.016  26.267   2.754 -0.0827  0.0113 -0.1602
84706W        W27644   9.156  25.466   3.246  0.2899  0.0094 -0.0071
84707W        W27645   9.322  26.958   2.327  0.2014  0.2926  0.0884
84708W        W27646  10.713  26.106   3.169 -0.2637 -0.0603 -0.1356
84709W        W27647   8.859  25.099   3.115 -0.0831  0.1455  0.0084
84710W        W27648  11.704  26.368   3.314  0.1523  0.0560 -0.3697
84711W        W27649   9.672  25.394   3.332 -0.3524 -0.0165 -0.1436
84712W        W27650   7.995  25.799   4.604  0.1986  0.0948  0.2484
84713W        W27651  10.410  28.277   3.661 -0.0223  0.0505 -0.1687
84714W        W27652  11.307  27.510  31.692 -0.0359  0.0516  0.0569
84715W        W27653  11.539  26.491   1.656 -0.2664  0.1154  0.0572
84716W        W27654  11.324  27.067   1.932 -0.0368  0.2018 -0.0940
84717W        W27655  10.778  24.934  31.846  0.2099 -0.2128  0.0714
84718W        W27656   8.976  26.564   2.070 -0.1124 -0.0364 -0.2265
84719W        W27657  11.486  27.013   4.773 -0.2254  0.1909 -0.1115
84720W        W27658   9.502  27.461   0.542  0.0595  0.2027 -0.2558
84721W        W27659  10.052  26.544   1.906 -0.0558 -0.1118 -0.3713
84722W        W27660   8.870  28.012   0.181  0.3412  0.1027  0.1522
84723W        W27661   8.779  27.626   1.708  0.2485  0.0301 -0.2008
84724W        W27662  10.660  27.709   0.896 -0.0839 -0.0297 -0.2471
84725W        W27663   8.635  25.906   2.209 -0.0942  0.0362  0.1929
84726W        W27664   9.574  28.693   3.584  0.0143 -0.0897 -0.2397
84727W        W27665   9.144  25.732  31.377  0.0517 -0.0823 -0.3166
84728W        W27666  10.318  26.163  31.448 -0.2009 -0.0301 -0.1473
84729W        W27667   9.161  27.522   2.748  0.2176 -0.1610  0.0330
84730W        W27668  10.116  28.609   3.368  0.1983  0.2336  0.1017
84731W        W27669  10.242  25.035   1.184 -0.0604 -0.1277 -0.0506
84732W        W27670  10.287  25.854   3.437  0.2907 -0.0409  0.0617
84733W        W27671   8.933  28.177   3.147  0.1042  0.3499 -0.2448
84734W        W27672   9.146  25.397   1.308 -0.1005 -0.1276 -0.0224
84735W        W27673   7.516  28.604   2.128  0.0465  0.1166  0.0978
84736W        W27674   9.442  26.756   3.341  0.0199 -0.0659 -0.0893
84737W        W27675   9.398  27.119   1.860 -0.2420  0.1231 -0.1785
84738W        W27676  11.711  25.497   2.625 -0.0326 -0.0778  0.2681
84739W        W27677  10.092  27.729   2.377 -0.1297  0.1380 -0.1153
84740W        W27678   9.688  26.624   2.233  0.2005  0.2401 -0.1568
84741W        W27679  12.789  25.823   2.665 -0.4822 -0.0239  0.2875
84742W        W27680   8.959  27.921   3.548  0.0565  0.0487 -0.0182
84743W        W27681   9.801  26.116   2.135  0.2100  0.2061 -0.2041
84744W        W27682  10.137  27.995   3.272  0.0968  0.1152  0.0673
84745W        W27683   9.948  27.939   0.135  0.3240 -0.0828 -0.4451
84746W        W27684   8.151  26.484   2.246 -0.0810  0.0581  0.0505
84747W        W27685   7.697  25.400   4.698  0.1623 -0.0927  0.1594
84748W        W27686   9.290  26.975   4.465  0.1118 -0.1866 -0.1626
84749W        W27687   9.860  26.640   0.839  0.3099 -0.4764 -0.3518
84750W        W27688   8.028  24.941   1.065  0.1258 -0.3713 -0.3064
84751W        W27689   8.462  27.414  31.188 -0.1795 -0.3151 -0.1303
84752W        W27690   8.968  28.618   3.388  0.0641 -0.1037  0.0995
84753W        W27691   8.152  26.255   2.705  0.1479 -0.1745 -0.0156
84754W        W27692   7.829  29.698   0.490  0.3989 -0.2777 -0.1831
84755W        W27693  10.067  28.387  31.838  0.0087 -0.0736  0.1683
84756W        W27694   9.948  27.409  31.633  0.1138 -0.0847 -0.0408
84757W        W27695   9.387  27.666   3.674  0.4347  0.2143  0.2848
84758W        W27696  11.426  25.231   0.471 -0.2102  0.0944 -0.0061
84759W        W27697   9.043  28.455   3.836 -0.0091  0.0581 -0.1715
84760W        W27698   8.025  27.752  30.977  0.0240 -0.1682  0.1139
84761W        W27699  10.411  29.290  31.838  0.1664  0.0603  0.1506
84762W        W27700   8.478  28.127   1.146  0.0466 -0.0344 -0.0919
84763W        W27701  10.811  27.505   3.710  0.0065 -0.0684 -0.1155
84764W        W27702  11.321  25.197  31.055  0.1078 -0.0106  0.0900
84765W        W27703  10.575  27.657   0.301  0.2609 -0.0291  0.2002
84766W        W27704  12.247  26.503  31.975 -0.2553  0.0189 -0.1125
84767W        W27705  10.422  27.533   4.252 -0.2674 -0.2097  0.0196
84768W        W27706   9.270  25.878   1.858  0.2463 -0.1948  0.3049
84769W        W27707   9.251  25.674  31.858  0.1828 -0.1707 -0.1061
84770W        W27708   8.718  26.349   4.300 -0.0932 -0.1351  0.1443
84771W        W27709  11.492  25.162   2.216 -0.2028 -0.1377  0.0850
84772W        W27710   6.193  28.098   3.266  0.2693 -0.2843 -0.0550
84773W        W27711   9.401  28.199   1.628  0.0459  0.0511 -0.0790
84774W        W27712   8.202  26.233  31.831 -0.0938 -0.0708  0.0652
84775W        W27713  10.113  25.503   0.895  0.1812  0.2476 -0.0048
84776W        W27714  11.569  25.703   2.020 -0.0500  0.1491  0.0854
84777W        W27715  10.046  26.949  31.893  0.1602  0.3453 -0.0853
84778W        W27716  10.176  26.715   1.299  0.1184  0.2579  0.0074
84779W        W27717  10.296  26.911   2.235  0.1043  0.0515  0.1328
84780W        W27718  10.275  26.226   2.229 -0.0334 -0.1188 -0.0559
84781W        W27719   9.112  28.290   4.883  0.0537  0.0970 -0.1153
84782W        W27720   6.990  25.916  31.801  0.0300  0.1211 -0.0116
84783W        W27721  10.842  26.782   0.505  0.2284  0.0117 -0.0497
84784W        W27722   9.403  26.554   3.782 -0.1654  0.2957  0.0167
84785W        W27723  11.235  25.372   2.590  0.1683 -0.1480 -0.1936
84786W        W27724   8.760  25.472   1.875  0.1299 -0.0194 -0.0511
84787W        W27725  11.084  26.333   1.409 -0.0453 -0.0233  0.2119
84788W        W27726   8.241  26.717   2.753 -0.0133  0.0126 -0.2330
84789W        W27727   8.977  26.323   3.853 -0.0225  0.1146 -0.0818
84790W        W27728  10.732  25.660  30.607  0.3152 -0.1493 -0.0312
84791W        W27729  11.188  27.349   2.435 -0.2927 -0.0987 -0.0602
84792W        W27730   9.584  26.778  31.560  0.2288  0.1847 -0.2714
84793W        W27731  10.629  28.667   3.902  0.2100 -0.3011  0.2958
84794W        W27732   7.634  26.386   2.400 -0.0161  0.0585  0.1312
84795W        W27733   9.236  26.582  31.878  0.1274 -0.1719  0.0614
84796W        W27734   7.688  28.647   2.612  0.0698 -0.1295  0.1819
84797W        W27735  10.082  26.847   3.985  0.0440  0.0223  0.0040
84798W        W27736  11.656  29.434   4.745  0.1655 -0.3365  0.0252
84799W        W27737   8.165  25.323   1.412 -0.0755  0.0463 -0.2641
84800W        W27738  11.266  29.433   0.192  0.0942  0.1415  0.1483
84801W        W27739  10.603  26.287   0.629 -0.3682 -0.1842 -0.2714
84802W        W27740   9.741  29.225   0.529 -0.0465 -0.1655  0.3007
84803W        W27741  10.164  28.476  31.277 -0.2752  0.2127  0.0574
84804W        W27742   8.894  28.510   2.609  0.0197 -0.3240  0.0584
84805W        W27743   7.085  26.367   2.913 -0.0988 -0.0537  0.0094
84806W        W27744  10.094  28.328   5.151  0.0513  0.2828 -0.0395
84807W        W27745  10.190  27.996   0.635 -0.1782  0.1387 -0.2367
84808W        W27746   9.398  24.543   1.117 -0.4442 -0.0239  0.0080
84809W        W27747   7.984  26.236   1.281 -0.0299 -0.0744 -0.2459
84810W        W27748   7.121  28.930   2.147  0.0462 -0.1976  0.2092
84811W        W27749  12.884  25.612   1.074 -0.4105  0.1716 -0.0391
84812W        W27750  11.908  26.622   2.134  0.0511 -0.2071  0.3109
84813W        W27751   9.051  28.457  31.939  0.1907  0.2720  0.0553
84814W        W27752   9.630  24.161   3.420  0.0300  0.2246  0.1277
84815W        W27753   8.822  27.648   3.150  0.2579 -0.3119  0.0413
84816W        W27754   8.977  29.763   2.423 -0.2432  0.0232 -0.4222
84817W        W27755   8.458  26.846  31.682  0.1760  0.1503  0.1115
84818W        W27756   8.232  27.041   2.397  0.2971 -0.0010  0.0374
84819W        W27757   8.628  28.269   3.571  0.2506 -0.1750  0.0369
84820W        W27758   9.055  28.651   1.264  0.4445  0.0591  0.0469
84821W        W27759  10.725  27.133   0.134  0.2174 -0.0125 -0.1966
84822W        W27760   8.919  26.193   1.724 -0.1490  0.1066 -0.0671
84823W        W27761  10.584  27.206   1.089 -0.1632  0.2376 -0.0390
84824W        W27762   9.023  24.754   2.409 -0.2071  0.0924  0.0793
84825W        W27763  10.685  24.950   1.783  0.2459  0.0921 -0.1309
84826W        W27764  10.180  25.856   0.422 -0.0588  0.0546 -0.3921
84827W        W27765   9.054  26.346   3.323  0.1927 -0.0965 -0.2801
84828W        W27766   7.294  26.157   0.123  0.1123 -0.1012 -0.0086
84829W        W27767   8.208  26.788   0.122 -0.2298  0.0511 -0.0141
84830W        W27768   7.288  26.691   1.582  0.0163  0.1457 -0.2245
84831W        W27769   8.772  25.126   2.604  0.0819  0.0615  0.0115
84832W        W27770   8.432  25.739   2.655  0.0749  0.1500  0.2963
84833W        W27771   6.994  25.988   0.758 -0.1512 -0.2532  0.2871
84834W        W27772   7.398  25.139  31.535  0.3103 -0.1985 -0.2442
84835W        W27773  11.107  27.286   1.120  0.1634 -0.0430 -0.0339
84836W        W27774   8.494  25.110   3.469 -0.0418 -0.4605 -0.0727
84837W        W27775   6.321  25.888   2.184 -0.4477 -0.1253 -0.1624
84838W        W27776  10.270  26.593  31.663 -0.0220 -0.0235  0.0962
84839W        W27777   9.202  28.649   2.213  0.3780  0.1548  0.1746
84840W        W27778   7.941  25.567   1.841  0.1852 -0.3853 -0.0125
84841W        W27779  10.929  29.256   3.507 -0.0441  0.2974  0.1846
84842W        W27780   8.802  26.539  31.452  0.0120 -0.0484  0.4308
84843W        W27781   9.793  24.683   3.490 -0.1264  0.1879  0.0696
84844W        W27782  10.395  25.349   2.460  0.2693 -0.0754  0.4159
84845W        W27783   8.309  25.845   1.290 -0.1447  0.0830  0.1000
84846W        W27784  10.060  25.685   2.454  0.1180 -0.1764 -0.1911
84847W        W27785   9.210  27.394   0.939 -0.0274  0.2708 -0.0290
84848W        W27786  10.502  28.232   0.162 -0.0914 -0.1228 -0.0038
84849W        W27787   9.123  27.899   4.079 -0.1983 -0.2206 -0.0392
84850W        W27788   9.629  28.181   4.936  0.2791 -0.0700 -0.2248
84851W        W27789   7.833  26.856   2.097 -0.2624 -0.1428 -0.1098
84852W        W27790  10.125  27.184   1.431  0.0746  0.2922 -0.4048
84853W        W27791   9.352  27.356   3.239  0.2532  0.0508  0.1702
84854W        W27792  11.879  26.808   0.180  0.4261  0.1255 -0.1108
84855W        W27793  12.138  25.915   3.936  0.1806 -0.0828  0.1498
84856W        W27794   9.673  27.451   1.423  0.0924 -0.1903 -0.1799
84857W        W27795   8.052  24.958   4.824  0.1885 -0.1322 -0.0484
84858W        W27796   8.122  28.854   4.175 -0.3234  0.0606 -0.1278
84859W        W27797  10.959  28.192   3.077 -0.0086 -0.1245  0.2865
84860W        W27798   8.472  24.995   1.638  0.2856  0.0597  0.1975
84861W        W27799  11.044  25.541   1.273  0.1237  0.0954 -0.0174
84862W        W27800   9.122  28.841   0.308  0.2767 -0.1437 -0.0709
84863W        W27801   8.066  26.505   1.710  0.0516  0.2105 -0.2397
84864W        W27802   7.992  24.764   0.062 -0.0157  0.0848 -0.0643
84865W        W27803  10.434  27.900   2.793 -0.0712  0.2375  0.0036
84866W        W27804   9.548  27.891   2.517  0.0438  0.4509 -0.1800
84867W        W27805  11.260  26.391   4.342  0.1510 -0.3038 -0.2219
84868W        W27806   9.097  27.133   0.507 -0.0789 -0.0572  0.2768
84869W        W27807  11.169  26.339  31.495 -0.1106  0.2351 -0.0912
84870W        W27808   9.232  29.545   3.405 -0.2977  0.0728 -0.2622
84871W        W27809  10.608  28.431   4.959  0.1554 -0.1335  0.0854
84872W        W27810   9.725  28.268   3.158  0.0964 -0.1523  0.0344
84873W        W27811  10.663  26.657   4.080 -0.2897  0.1049 -0.1945
84874W        W27812   7.737  24.716   2.166  0.2046 -0.0120 -0.0574
84875W        W27813  10.213  26.216   1.533  0.1456 -0.0540  0.2052
84876W        W27814   9.322  26.210   2.290 -0.0578  0.3023 -0.2924
84877W        W27815  10.694  25.807   1.631 -0.0023  0.0198 -0.0708
84878W        W27816   7.763  25.712   1.252 -0.1233  0.1772 -0.1015
84879W        W27817  11.043  24.767   0.320 -0.0961  0.1340  0.0957
84880W        W27818  10.278  26.588   4.383 -0.2804 -0.0165  0.0336
84881W        W27819  11.005  27.005   3.513 -0.0395  0.0834  0.0180
84882W        W27820   8.670  27.120   6.505  0.1568  0.1426 -0.1859
84883W        W27821   7.462  28.069   4.514 -0.1022 -0.2424  0.0133
84884W        W27822  12.512  25.646   3.105 -0.0953  0.1280  0.1795
84885W        W27823  10.655  27.898   3.895 -0.1708 -0.0368 -0.2597
84886W        W27824   7.538  26.023   5.827  0.0702 -0.0282  0.1542
84887W        W27825  10.846  27.205   4.177  0.1160 -0.2281 -0.1275
84888W        W27826   8.858  26.352   7.191 -0.0980 -0.1374 -0.2849
84889W        W27827  10.434  29.122   5.735 -0.0851 -0.2480 -0.0539
84890W        W27828  10.994  28.469   7.015  0.1217  0.0907  0.1100
84891W        W27829   9.916  27.407   3.861 -0.0754 -0.0637 -0.3281
84892W        W27830   8.469  26.697   5.969  0.0257 -0.1454  0.1473
84893W        W27831   9.621  27.654   6.224 -0.0258  0.2417  0.1113
84894W        W27832   9.689  25.647   4.243  0.0553  0.3701  0.1758
84895W        W27833   7.064  26.244   5.764 -0.0455 -0.1349 -0.1724
84896W        W27834   9.162  27.805   6.157 -0.2041 -0.0376  0.0595
84897W        W27835   7.270  27.176   4.581 -0.0769  0.0785  0.0385
84898W        W27836   8.856  26.818   6.847 -0.0110  0.0242  0.2346
84899W        W27837   7.282  25.403   4.373 -0.1707  0.1227 -0.2522
84900W        W27838   8.710  29.428   5.699 -0.0422 -0.1543 -0.1878
84901W        W27839  10.424  26.562   7.433  0.2322  0.1745 -0.3963
84902W        W27840  10.934  26.469   7.379  0.1913  0.1599 -0.1860
84903W        W27841   8.642  27.606   4.239  0.0595 -0.2994 -0.1751
84904W        W27842   7.445  26.728   4.561  0.3283 -0.2721 -0.0596
84905W        W27843   7.599  27.374   5.479  0.0315 -0.1634  0.0936
84906W        W27844   7.484  28.248   6.219 -0.2612 -0.1027 -0.2068
84907W        W27845   8.616  25.648   5.184  0.1856  0.0339  0.0234
84908W        W27846  10.915  26.290   5.886 -0.0139  0.1157  0.0821
84909W        W27847   8.989  29.148   6.766  0.3034  0.2664 -0.1814
84910W        W27848   9.500  29.513   5.869 -0.0711  0.0053  0.2739
84911W        W27849  10.390  25.795   6.691 -0.0925 -0.0773 -0.1224
84912W        W27850   8.488  28.309   6.362 -0.1102  0.0985  0.0919
84913W        W27851   7.357  29.494   5.244 -0.3698 -0.0176 -0.0245
84914W        W27852   8.560  28.811   5.480  0.0698  0.1045 -0.2145
84915W        W27853  11.012  27.867   4.760  0.1128 -0.0862 -0.4231
84916W        W27854  11.021  29.032   5.931  0.1929  0.1411  0.2091
84917W        W27855   8.723  28.819   7.984  0.1997 -0.2619 -0.2837
84918W        W27856   7.914  28.331   4.589 -0.4347 -0.1620 -0.1496
84919W        W27857   9.713  30.485   7.508  0.2976  0.0767 -0.1737
84920W        W27858   9.470  29.188   6.832 -0.0983  0.0156  0.0132
84921W        W27859   8.684  27.893   6.101  0.4943 -0.0964 -0.2451
84922W        W27860   8.688  28.267   6.931  0.3073 -0.1980 -0.0118
84923W        W27861   9.092  28.809   5.103 -0.0875 -0.1850 -0.1940
84924W        W27862   8.565  26.124   5.145 -0.1968  0.0611  0.1714
84925W        W27863   9.841  27.373   7.251 -0.2375  0.0262 -0.2785
84926W        W27864   9.111  29.122   5.684 -0.0218  0.0772  0.0472
84927W        W27865  11.108  26.519   6.269  0.2871 -0.0400 -0.2445
84928W        W27866   9.048  29.027   3.127  0.1159 -0.0531  0.0340
84929W        W27867   9.877  26.570   3.532  0.2074  0.2538 -0.1183
84930W        W27868   9.223  25.361   4.143  0.1107 -0.2008 -0.1079
84931W        W27869  10.689  25.751   4.544  0.2627  0.2073 -0.0899
84932W        W27870   8.172  24.024   5.335 -0.1873 -0.1397  0.1602
84933W        W27871  10.291  29.757   5.594 -0.0506 -0.0573 -0.1908
84934W        W27872  10.075  26.614   7.023 -0.0803 -0.2651  0.0324
84935W        W27873   9.916  29.916   7.713  0.0639  0.0041  0.3999
84936W        W27874   7.908  27.806   4.615  0.1537  0.2551 -0.1315
84937W        W27875  11.138  27.209   5.543  0.0915 -0.0503 -0.1603
84938W        W27876   9.854  29.453   7.384  0.1353 -0.3983  0.4804
84939W        W27877   8.438  26.482   6.832  0.0550  0.1549 -0.1982
84940W        W27878  10.493  28.957   4.812  0.1266  0.1252 -0.4051
84941W        W27879   9.957  27.572   4.504  0.1558  0.0358 -0.1077
84942W        W27880   9.624  27.666   4.132  0.1609  0.0907 -0.2499
84943W        W27881   9.278  26.795   6.302 -0.1211 -0.2416 -0.0547
84944W        W27882   8.466  27.687   7.270  0.1774  0.0385 -0.0339
84945W        W27883   7.054  27.506   8.016  0.2142 -0.1206  0.0853
84946W        W27884   8.534  25.306   4.719  0.0871 -0.0086  0.0448
84947W        W27885  10.232  28.206   6.651  0.0367  0.1343 -0.1909
84948W        W27886   7.944  27.467   7.334  0.2967 -0.1017  0.1972
84949W        W27887  10.806  25.138   4.620 -0.3546  0.0966  0.2357
84950W        W27888   9.091  27.163   5.466 -0.1287 -0.0890 -0.0976
84951W        W27889   9.435  30.042   6.938  0.2566  0.0593 -0.1656
84952W        W27890   9.639  27.143   4.161  0.4194 -0.0645  0.0728
84953W        W27891  11.168  25.190   4.995 -0.3279 -0.2025 -0.0628
84954W        W27892   9.816  26.469   5.265  0.0226  0.0292 -0.2462
84955W        W27893   8.914  26.711   2.532 -0.0431 -0.2887 -0.0059
84956W        W27894  10.307  27.321   6.088  0.0908 -0.0102  0.1936
84957W        W27895  10.986  29.505   6.694  0.0870 -0.0808 -0.0048
84958W        W27896  10.447  25.939   5.060 -0.0821 -0.0503 -0.1827
84959W        W27897   8.740  28.716   6.581  0.0553  0.3914 -0.0735
84960W        W27898   9.709  27.678   4.952  0.0130  0.2301 -0.0515
84961W        W27899  10.043  27.744   6.951  0.1167 -0.1315 -0.0825
84962W        W27900   7.235  29.959   3.488 -0.0840 -0.1983 -0.0469
84963W        W27901   8.217  28.137   5.980  0.0649  0.3387  0.2978
84964W        W27902   7.550  28.677   4.762  0.0845  0.0904  0.0759
84965W        W27903   9.170  26.411   6.082 -0.0656 -0.1279  0.0359
84966W        W27904   9.382  28.242   6.286 -0.1979 -0.1927 -0.0135
84967W        W27905  10.346  25.801   3.915 -0.1314  0.1626 -0.1440
84968W        W27906   8.972  26.697   5.772 -0.2844  0.3221  0.2251
84969W        W27907  10.892  25.673   5.167  0.2380 -0.0797  0.1881
84970W        W27908   8.390  27.093   4.444  0.0458  0.0187 -0.0022
84971W        W27909  11.399  28.531   5.083  0.0672 -0.1818  0.2558
84972W        W27910  11.239  24.951   4.541 -0.4453 -0.1374 -0.0295
84973W        W27911  10.141  27.386   4.966 -0.3211 -0.0245  0.1457
84974W        W27912   7.743  26.727   6.328 -0.0007 -0.0233 -0.1604
84975W        W27913   9.631  25.999   5.417 -0.0743  0.1132 -0.0740
84976W        W27914   7.543  27.608   7.013  0.0202  0.1301 -0.1060
84977W        W27915   8.136  28.344   5.534  0.0234 -0.0816 -0.0089
84978W        W27916   9.267  27.017   6.777 -0.0122  0.4199  0.0562
84979W        W27917   8.158  25.046   4.296 -0.1797  0.2378  0.1333
84980W        W27918  10.700  27.426   5.696 -0.2160  0.2245  0.1911
84981W        W27919   9.899  28.754   4.967  0.0258 -0.2830  0.2833
84982W        W27920   6.630  28.240   6.155 -0.1200  0.3905 -0.3520
84983W        W27921  10.349  25.652   5.906 -0.0080  0.1373 -0.1385
84984W        W27922  10.266  28.830   4.343  0.1440 -0.1247  0.0468
84985W        W27923  11.206  29.973   5.380 -0.1103  0.0671  0.0203
84986W        W27924  10.465  27.902   5.871 -0.0518  0.2766  0.0339
84987W        W27925  10.404  25.574   7.737 -0.1854 -0.5452  0.1265
84988W        W27926   8.042  25.026   3.318  0.0163  0.1171  0.0133
84989W        W27927   8.312  29.493   5.465  0.0078 -0.3793 -0.5352
84990W        W27928  10.538  28.243   5.452  0.3266  0.2354 -0.1253
84991W        W27929   8.599  24.743   4.329 -0.1042  0.0991 -0.2429
84992W        W27930  11.703  27.920   5.184 -0.1332  0.1329 -0.2726
84993W        W27931   9.417  27.423   4.612 -0.0262 -0.0774  0.0557
84994W        W27932   8.358  27.639   5.824 -0.4807  0.1159  0.4208
84995W        W27933   9.869  25.926   5.841 -0.1119  0.1057  0.1773
84996W        W27934  10.596  27.221   6.497 -0.0363  0.2486 -0.0857
84997W        W27935  10.790  26.889   5.436 -0.2153  0.0489 -0.1104
84998W        W27936   9.384  25.046   3.158 -0.0486 -0.0505 -0.1372
84999W        W27937  10.654  29.406   5.339  0.2430 -0.1131  0.1017
85000W        W27938   8.762  28.681   4.144  0.2316 -0.1977 -0.0406
85001W        W27939   7.903  27.837   5.607  0.1445 -0.0069 -0.2536
85002W        W27940   9.857  28.135   4.438 -0.0034  0.1546 -0.0381
85003W        W27941   9.406  26.280   5.010  0.1557  0.0463 -0.3975
85004W        W27942   8.284  27.687   8.536  0.0283 -0.1137  0.1745
85005W        W27943   8.926  27.355   6.906 -0.1941 -0.2896  0.0708
85006W        W27944   8.459  25.587   3.697 -0.2068 -0.2825 -0.0031
85007W        W27945   7.724  28.442   6.867  0.1144  0.1266  0.2164
85008W        W27946   9.358  25.789   4.979 -0.1206 -0.0960  0.2150
85009W        W27947  10.471  26.139   4.264  0.0036 -0.2205  0.2629
85010W        W27948   8.952  28.209   6.535  0.2413  0.0260 -0.2627
85011W        W27949  11.934  27.499   5.493  0.1158  0.0843  0.2536
85012W        W27950   8.815  26.869   4.200  0.2944 -0.2373  0.1900
85013W        W27951  10.382  25.458   4.824  0.0480 -0.1951 -0.0582
85014W        W27952   8.225  28.258   7.100 -0.0551 -0.1467 -0.0630
85015W        W27953   9.585  26.743   4.776 -0.2165  0.1965  0.0266
85016W        W27954   9.463  28.036   5.833 -0.3244 -0.1196 -0.3286
85017W        W27955  10.778  26.449   4.490  0.1291  0.0840 -0.3220
85018W        W27956  11.096  28.494   4.764  0.2312 -0.4545  0.1975
85019W        W27957   7.893  27.840   6.152 -0.1111 -0.1002  0.0247
85020W        W27958  10.569  28.394   7.197 -0.1169  0.0672  0.0987
85021W        W27959   9.682  28.277   5.415  0.2000  0.1198 -0.1539
85022W        W27960   8.372  26.182   6.021 -0.2346 -0.1143  0.1843
85023W        W27961   8.509  27.173   3.965  0.0649 -0.1962 -0.0142
85024W        W27962   9.885  24.893   5.448 -0.0757  0.0533  0.3332
85025W        W27963   7.460  29.753   4.029  0.0093  0.5693 -0.1585
85026W        W27964  10.730  25.139   6.509 -0.1270 -0.3828 -0.0561
85027W        W27965   9.975  24.954   6.252  0.0289  0.1288  0.1249
85028W        W27966  10.685  26.594   7.871  0.2149  0.2367  0.0571
85029W        W27967  10.879  25.888   6.872 -0.0232  0.2203  0.0368
85030W        W27968  11.014  27.363   4.662  0.0066 -0.0211 -0.5223
85031W        W27969   8.848  27.756   6.567 -0.0604  0.1298 -0.0727
85032W        W27970   8.173  26.190   3.709 -0.3578 -0.0151 -0.0352
85033W        W27971   9.390  26.979   5.862  0.0372 -0.0448 -0.1491
85034W        W27972   7.939  27.741   7.883  0.1128 -0.1203  0.1174
85035W        W27973   9.969  29.272   6.801  0.0473 -0.3186 -0.0535
85036W        W27974  10.093  28.553   6.275  0.0213 -0.0668 -0.1624
85037W        W27975  11.179  27.598   5.137 -0.1302 -0.1765  0.3225
85038W        W27976   9.462  26.879   7.998  0.1724 -0.2149 -0.0368
85039W        W27977   9.022  26.659   4.736 -0.1599 -0.0342  0.0970
85040W        W27978   8.238  28.326   4.066  0.1437 -0.1944  0.0765
85041W        W27979   8.517  27.109   3.328 -0.0757 -0.0402  0.0326
85042W        W27980   8.135  27.331   5.492 -0.0206 -0.1323  0.0049
85043W        W27981   8.836  27.917   5.153 -0.0402 -0.0027 -0.1033
85044W        W27982   7.795  26.533   4.209 -0.0581 -0.1628 -0.2683
85045W        W27983   9.294  27.789   6.722 -0.0041 -0.0356  0.2219
85046W        W27984   9.144  29.030   4.280 -0.0623 -0.0379 -0.2552
85047W        W27985  11.384  24.660   5.775  0.3932 -0.0331 -0.1747
85048W        W27986   8.006  28.111   5.103 -0.1646  0.1966  0.1109
85049W        W27987   8.135  27.082   4.986 -0.0152 -0.0727  0.0783
85050W        W27988   7.089  26.864   4.970 -0.1709 -0.0851 -0.3944
85051W        W27989  11.200  25.386   4.267  0.1679 -0.0800  0.0661
85052W        W27990  10.607  28.098   4.550 -0.0589 -0.1446  0.3293
85053W        W27991   9.177  26.725   7.202  0.2113  0.0511 -0.2257
85054W        W27992   9.980  26.376   4.668 -0.1287 -0.1806 -0.2308
85055W        W27993   8.381  27.981   6.716  0.0933  0.0063 -0.3187
85056W        W27994  10.192  27.091   6.989  0.2131  0.0003  0.0332
85057W        W27995  10.519  25.480   5.469 -0.0808  0.0405  0.1288
85058W        W27996  10.205  29.274   6.300  0.1966 -0.0853  0.1434
85059W        W27997   8.385  27.422   6.810 -0.1386  0.1024  0.0666
85060W        W27998   8.209  26.150   4.280 -0.0949  0.3737  0.1347
85061W        W27999  10.107  25.624   5.236 -0.2137 -0.1240  0.2560
85062W        W28000   8.457  26.778   3.720  0.2454 -0.1304 -0.2402
85063W        W28001   8.804  28.844   6.029  0.1223 -0.0604 -0.0611
85064W        W28002   9.695  29.025   6.013  0.3444  0.0228 -0.3147
85065W        W28003   8.671  28.076   4.006 -0.0029  0.2389  0.5011
85066W        W28004  10.046  28.740   3.879  0.2093 -0.0935  0.2344
85067W        W28005   8.805  26.024   6.784  0.0297 -0.0040  0.0343
85068W        W28006  10.000  29.067   7.630  0.0840 -0.1408  0.0067
85069W        W28007   9.892  26.402   5.756 -0.2117 -0.3818 -0.2287
85070W        W28008   8.151  26.439   5.049  0.0400  0.0604  0.2020
85071W        W28009   9.451  26.810   5.278 -0.0195 -0.3832 -0.0548
85072W        W28010   9.177  27.349   6.450 -0.1116 -0.1352 -0.1508
85073W        W28011  10.426  26.139   5.984  0.0663 -0.4091 -0.2609
85074W        W28012   8.272  28.064   7.621 -0.0147  0.1255  0.0009
85075W        W28013  10.358  24.956   4.649 -0.1231  0.3420 -0.1213
85076W        W28014  10.637  30.230   5.957  0.4074 -0.1220 -0.3531
85077W        W28015  10.705  27.000   7.255 -0.1808  0.0958  0.2611
85078W        W28016   7.937  27.097   4.085 -0.0390  0.1736  0.1344
85079W        W28017   7.688  26.577   5.070  0.1551  0.2296 -0.1729
85080W        W28018   8.497  29.742   4.269  0.0163  0.1026 -0.1756
85081W        W28019   8.003  25.782   5.909 -0.0825 -0.1590  0.3159
85082W        W28020   9.240  28.079   5.375 -0.0757 -0.1293  0.1606
85083W        W28021   8.831  28.658   4.675 -0.0130 -0.1134 -0.0872
85084W        W28022   7.123  29.396   6.823  0.2068 -0.2121 -0.0600
85085W        W28023  11.317  26.059   3.306  0.0858 -0.3187 -0.1413
85086W        W28024  11.879  26.435   3.742 -0.0019 -0.1723  0.2216
85087W        W28025   9.422  26.410   5.589 -0.0613 -0.3330 -0.0230
85088W        W28026  10.549  26.588   6.231 -0.3352  0.1064  0.0497
85089W        W28027  10.935  26.483   3.530 -0.0369 -0.2492  0.0692
85090W        W28028  11.277  25.849   7.642 -0.1094  0.1994  0.0781
85091W        W28029   8.205  26.043   6.598  0.2220  0.0760  0.0636
85092W        W28030  10.342  28.620   5.836 -0.0179 -0.0851  0.1353
85093W        W28031   8.020  25.229   6.003 -0.4215 -0.0837  0.0593
85094W        W28032  10.064  29.372   8.082  0.1846 -0.3630  0.1180
85095W        W28033   7.796  28.237   7.900 -0.0039 -0.0954 -0.0262
85096W        W28034  11.038  27.064   5.071  0.2784  0.0146 -0.1821
85097W        W28035   8.933  25.287   3.658 -0.1054 -0.0430 -0.3272
85098W        W28036   8.980  28.577   5.624  0.1664  0.4341  0.4503
85099W        W28037  10.593  27.454   6.948  0.2201  0.0434 -0.0169
85100W        W28038   9.674  26.645   4.287 -0.1172  0.3563 -0.1748
85101W        W28039  10.339  27.797   5.424 -0.1974  0.0223  0.0891
85102W        W28040   9.297  28.658   6.584  0.1761 -0.2376 -0.0693
85103W        W28041  10.181  26.106   5.458  0.3186 -0.0953  0.3704
85104W        W28042   8.893  27.266   4.644  0.0331  0.1179 -0.3837
85105W        W28043   9.944  28.927   5.550 -0.0838 -0.1276 -0.0439
85106W        W28044  10.169  26.379   6.369 -0.1523 -0.4320 -0.0982
85107W        W28045  11.333  28.034   5.944  0.0744  0.1681  0.2052
85108W        W28046  10.105  25.887   4.534  0.1004 -0.1552 -0.1814
85109W        W28047  10.041  25.157   5.039 -0.3005  0.0287  0.0631
85110W        W28048  10.573  28.814   6.241 -0.2007 -0.1911  0.0745
85111W        W28049   9.312  27.275   7.203  0.1993  0.1869  0.1966
85112W        W28050   8.196  25.960   7.498  0.0869 -0.1029 -0.1163
85113W        W28051  10.132  30.260   5.671  0.3306 -0.0472  0.1813
85114W        W28052  13.422  25.840   3.306 -0.2199  0.1065 -0.2629
85115W        W28053  10.259  26.612   5.455  0.4741  0.2559 -0.0168
85116W        W28054  10.568  26.978   4.470  0.0713 -0.1481 -0.2679
85117W        W28055   9.951  27.050   4.578  0.0214 -0.2040 -0.1595
85118W        W28056   9.326  26.002   5.868 -0.4664  0.2044 -0.0737
85119W        W28057  11.285  27.792   6.399 -0.0191 -0.0663  0.0441
85120W        W28058   8.922  25.626   4.735 -0.0843 -0.1947 -0.0174
85121W        W28059  10.408  26.337   6.824 -0.1131  0.0631  0.3028
85122W        W28060   9.600  29.440   4.478 -0.3849  0.0775 -0.0742
85123W        W28061  10.180  27.919   4.831  0.1395  0.2798  0.0535
85124W        W28062   8.718  27.356   5.132  0.2849  0.1744  0.2841
85125W        W28063   8.002  26.572   5.897 -0.2725 -0.2777 -0.5073
85126W        W28064   9.574  27.878   7.198 -0.1096 -0.0305 -0.1409
85127W        W28065   8.969  25.759   3.763 -0.1189  0.1183 -0.0668
85128W        W28066   8.579  27.127   5.595 -0.0846  0.0428  0.0964
85129W        W28067  11.053  28.270   6.477  0.0796  0.1294 -0.1831
85130W        W28068  10.358  27.369   7.377  0.0791 -0.0102  0.1612
85131W        W28069   9.775  26.702   6.183 -0.3082 -0.0292  0.2057
85132W        W28070   8.762  29.210   5.283  0.0445 -0.1472 -0.1294
85133W        W28071   9.052  24.012   4.798 -0.1503  0.3355 -0.0053
85134W        W28072   9.776  28.860   6.542 -0.0164 -0.1556  0.1255
85135W        W28073   8.748  28.320   7.421 -0.2375 -0.1254 -0.3008
85136W        W28074  10.349  28.745   5.258  0.1105  0.1316  0.1061
85137W        W28075   9.102  26.049   6.378 -0.2410  0.2327 -0.1344
85138W        W28076   9.244  25.553   5.433 -0.0049  0.3637 -0.1959
85139W        W28077   9.508  28.753   5.413  0.2151 -0.0069 -0.0204
85140W        W28078  12.105  27.997   6.673  0.0269  0.1235  0.0794
85141W        W28079   9.805  28.404   7.609  0.0509 -0.1148  0.3216
85142W        W28080   7.682  28.219   5.797 -0.3175  0.3192 -0.0318
85143W        W28081   9.750  28.336   6.617 -0.1870 -0.0090  0.1590
85144W        W28082  12.184  27.865   5.226 -0.1337  0.1424 -0.0270
85145W        W28083   9.975  27.670   5.870  0.0168  0.1008  0.1570
85146W        W28084   7.235  26.731   7.465  0.1231 -0.1308  0.1539
85147W        W28085   9.697  26.964   6.979 -0.1745  0.0711 -0.0803
85148W        W28086   8.186  27.174   5.959  0.2291 -0.1074 -0.0829
85149W        W28087   8.939  25.123   6.033  0.1003 -0.1136  0.0074
85150W        W28088   8.801  28.137   4.497  0.2718  0.1237 -0.0903
85151W        W28089   7.952  29.135   6.862  0.0066  0.1557  0.1534
85152W        W28090   7.902  28.867   5.902  0.2031 -0.1704  0.3050
85153W        W28091   9.527  29.236   5.429 -0.1031 -0.1778 -0.1029
85154W        W28092  11.112  26.775   3.947 -0.1916 -0.2662 -0.1169
85155W        W28093  11.387  27.230   4.286 -0.2670 -0.2649  0.0361
85156W        W28094  11.600  30.367   4.975  0.0235 -0.0740 -0.4219
85157W        W28095   9.424  25.084   3.667  0.1386 -0.2719 -0.2095
85158W        W28096   9.435  27.457   5.825 -0.0743 -0.0237 -0.1208
85159W        W28097   8.044  28.614   4.988 -0.1530 -0.1106 -0.0810
85160W        W28098  10.304  27.617   3.578 -0.3317 -0.1395  0.0188
85161W        W28099   9.016  29.687   6.007 -0.2749 -0.0880  0.4370
85162W        W28100  10.563  28.634   7.675  0.0844  0.0440 -0.0948
85163W        W28101  10.091  25.113   3.446 -0.2027 -0.2401 -0.1352
85164W        W28102  11.403  28.208   5.477  0.0261  0.0806  0.0299
85165W        W28103  11.131  25.499   3.462 -0.1871 -0.0063  0.1348
85166W        W28104  10.480  29.101   7.885  0.0676 -0.3363 -0.0901
85167W        W28105   7.846  27.595   6.585  0.2795  0.0218  0.0225
85168W        W28106   9.705  25.591   2.781 -0.4854  0.4136 -0.1035
85169W        W28107   7.422  28.095   7.063  0.0437 -0.1875 -0.0211
85170W        W28108  11.109  25.403   6.790 -0.3461  0.1208 -0.1378
85171W        W28109   8.582  29.288   7.119 -0.2355 -0.1628 -0.1057
85172W        W28110  10.789  28.844   5.459  0.0122 -0.0819 -0.0274
85173W        W28111   8.202  26.009   3.223 -0.0550 -0.1225  0.2145
85174W        W28112   8.366  27.773   5.320  0.5032  0.2768 -0.1807
85175W        W28113  11.890  23.958   6.081  0.2596 -0.2066  0.1370
85176W        W28114   8.603  27.645   3.648  0.0536 -0.0091  0.3022
85177W        W28115  10.215  27.285   5.587  0.2078 -0.0229  0.0082
85178W        W28116   9.016  27.691   4.775  0.2189 -0.3980  0.1664
85179W        W28117   9.480  30.096   5.250  0.1127  0.3643  0.0944
85180W        W28118  10.004  29.704   6.571 -0.0825 -0.0887  0.1448
85181W        W28119   8.757  25.540   4.122  0.0179  0.2485 -0.1698
85182W        W28120  11.636  27.485   4.964 -0.0924 -0.0781  0.3928
85183W        W28121   9.763  26.021   7.270  0.0445  0.0725  0.0073
85184W        W28122  10.721  25.895   5.628 -0.1242 -0.1242  0.2945
85185W        W28123   7.134  29.013   5.024 -0.2101 -0.1111  0.3486
85186W        W28124  10.422  26.455   4.895  0.1241  0.0437  0.1317
85187W        W28125   9.661  29.140   7.986 -0.0722  0.1045 -0.0739
85188W        W28126   9.191  25.675   6.727  0.0157 -0.0600  0.0496
85189W        W28127   9.218  26.404   4.359  0.0455 -0.0735  0.0172
85190W        W28128  11.529  27.742   7.601 -0.0880  0.0471  0.3609
85191W        W28129   9.237  27.601   5.262 -0.1906 -0.1683  0.0246
85192W        W28130   9.307  31.531   9.598 -0.2140 -0.1541 -0.1694
85193W        W28131   8.845  26.234   5.712 -0.1197 -0.0312  0.0076
85194W        W28132  10.576  24.504   4.698  0.2159 -0.0369  0.1715
85195W        W28133   6.795  26.886   3.979  0.2676  0.2141  0.0519
85196W        W28134   9.825  27.167   6.031 -0.1789 -0.1150  0.1669
85197W        W28135  10.075  30.381   7.864  0.0730  0.0352 -0.1549
85198W        W28136   8.460  25.876   4.684 -0.1228  0.1378 -0.2006
85199W        W28137  11.592  29.891   3.977  0.2436 -0.2136 -0.1073
85200W        W28138  11.231  25.671   5.815  0.2242  0.1451 -0.0664
85201W        W28139   8.975  29.515   4.093  0.1489  0.1147 -0.0963
85202W        W28140  11.874  26.696   5.465  0.0221 -0.2057  0.0875
85203W        W28141  10.452  29.676   6.040  0.0578  0.0526 -0.1156
85204W        W28142   8.065  26.820   5.413  0.3562 -0.2097  0.1278
85205W        W28143  10.705  30.969   5.655  0.0160  0.0637  0.0394
85206W        W28144  10.987  28.335   5.267 -0.2366 -0.1701 -0.0239
85207W        W28145   8.039  25.979   5.160 -0.0345 -0.2854  0.1405
85208W        W28146   9.816  26.870   5.591 -0.1261 -0.0070 -0.3168
85209W        W28147   6.597  28.696   4.498 -0.1402  0.1012  0.0450
85210W        W28148  10.558  25.113   5.123  0.0582  0.3471 -0.0077
85211W        W28149   9.117  26.408   6.717  0.2447  0.0060  0.1489
85212W        W28150   9.602  28.224   4.035 -0.2329  0.0699  0.5622
85213W        W28151  10.235  25.994   7.340  0.0989 -0.0146  0.0460
85214W        W28152   9.468  28.473   7.949  0.1445 -0.1896  0.1007
85215W        W28153   8.606  28.800   7.053 -0.0528  0.1132  0.1929
85216W        W28154   7.659  26.275   3.736 -0.1126 -0.1434 -0.0311
85217W        W28155   8.310  27.596   6.349 -0.2299 -0.1784 -0.0995
85218W        W28156  10.645  27.463   5.170 -0.0515  0.2693 -0.1262
85219W        W28157   9.128  29.839   5.493 -0.1081 -0.0513  0.0599
85220W        W28158  11.044  28.756   6.386 -0.4215 -0.0804 -0.0493
85221W        W28159  11.508  27.782   4.585  0.0195  0.0886 -0.1381
85222W        W28160  11.238  29.497   5.012  0.2959  0.1830  0.1143
85223W        W28161   9.533  25.297   5.111 -0.0206  0.0883 -0.1397
85224W        W28162  11.720  25.936   3.632  0.0555 -0.1595 -0.5574
85225W        W28163  10.418  24.658   4.210 -0.0602  0.1652 -0.0260
85226W        W28164   6.988  27.589   7.361  0.2048  0.3160 -0.1512
85227W        W28165   7.456  27.730   5.902 -0.3003  0.0348 -0.0270
85228W        W28166   7.111  28.480   4.756 -0.2539 -0.0071 -0.0248
85229W        W28167   7.057  27.994   6.016  0.0530 -0.0683 -0.1590
85230W        W28168   9.514  25.932   8.296  0.0220  0.0708 -0.0025
85231W        W28169   6.519  27.859   7.426  0.1625 -0.0932  0.0879
85232W        W28170   6.762  27.409   5.786 -0.2946  0.0356  0.0046
85233W        W28171   9.030  26.509   5.219  0.0404 -0.0486  0.2841
85234W        W28172  11.341  28.226   4.390  0.0510 -0.2773  0.1833
85235W        W28173   7.531  25.419   6.138  0.1095  0.0019  0.1386
85236W        W28174   9.594  24.893   5.849 -0.2128  0.2549 -0.1836
85237W        W28175   9.663  27.728   5.477  0.0108 -0.2525 -0.2055
85238W        W28176  10.965  27.947   5.607 -0.0053 -0.0154  0.3188
85239W        W28177   8.952  26.125   4.802  0.3053 -0.0416 -0.1617
85240W        W28178  11.743  28.413   7.052  0.1551  0.0362  0.2299
85241W        W28179   5.378  28.118   5.606 -0.0450 -0.0776 -0.2765
85242W        W28180   9.606  26.443   7.088  0.1634 -0.1299 -0.1610
85243W        W28181   8.132  25.623   6.322  0.0759 -0.0020 -0.0912
85244W        W28182   9.241  24.975   5.556 -0.0845  0.2087  0.0885
85245W        W28183   9.217  27.102   4.975 -0.2783 -0.0714 -0.1771
85246W        W28184   8.584  26.812   5.198 -0.1955  0.0349  0.1089
85247W        W28185   9.093  29.610   5.028 -0.0057 -0.3798  0.0472
85248W        W28186   8.982  27.854   7.127 -0.1809 -0.0492 -0.2586
85249W        W28187  10.386  29.559   7.639  0.2214  0.2031  0.0347
85250W        W28188   7.529  25.361   6.718 -0.1597  0.0923 -0.0687
85251W        W28189  10.061  28.218   5.705  0.1261 -0.0829  0.1752
85252W        W28190   9.918  29.900   6.123  0.4243 -0.1938  0.1032
85253W        W28191  10.544  27.543   4.710 -0.4399 -0.0447  0.0927
85254W        W28192  11.475  24.068   5.759  0.1556 -0.0267 -0.1305
85255W        W28193   9.617  26.206   6.244  0.2026 -0.2394  0.0836
85256W        W28194   8.770  25.521   6.875  0.3406  0.1234  0.0553
85257W        W28195   9.639  27.966   7.813  0.1681 -0.0900 -0.0233
85258W        W28196  11.453  27.644   5.571  0.0469 -0.1135 -0.3272
85259W        W28197   8.420  25.910   5.624  0.0969 -0.0714 -0.1613
85260W        W28198   9.973  26.246   4.147 -0.0871 -0.0996 -0.0438
85261W        W28199   9.445  27.140   3.683  0.0223  0.0539 -0.3873
85262W        W28200   9.277  26.085   7.146 -0.0880  0.1183 -0.2151
85263W        W28201   9.968  26.935   5.039 -0.0825  0.2841 -0.0779
85264W        W28202   9.721  25.477   5.551 -0.1735  0.2832  0.0729
85265W        W28203  10.814  28.436   5.867  0.0719  0.3781  0.1829
85266W        W28204  10.061  27.337   7.766  0.1683  0.0701 -0.1367
85267W        W28205   8.484  26.602   4.687 -0.4282 -0.1254 -0.0414
85268W        W28206  11.564  26.116   4.080 -0.0890  0.1711 -0.1739
85269W        W28207  10.482  29.250   6.771  0.2637 -0.2907 -0.0225
85270W        W28208  10.761  29.229   7.462 -0.2133  0.4094  0.2745
85271W        W28209  10.351  30.182   6.878 -0.3093  0.2866  0.0118
85272W        W28210  10.630  28.627   6.717 -0.1456  0.0975  0.3072
85273W        W28211   9.424  25.195   6.822  0.1511  0.2238 -0.1241
85274W        W28212   8.936  27.601   5.661  0.2013 -0.1275  0.0070
85275W        W28213   8.935  28.311   6.037 -0.1280 -0.3262  0.0910
85276W        W28214   9.913  26.066   5.030  0.1122 -0.2049 -0.0275
85277W        W28215   8.422  26.404   5.518  0.0736 -0.1767  0.0929
85278W        W28216   9.016  25.979   5.269 -0.1005  0.1229 -0.1081
85279W        W28217   9.204  29.274   6.200  0.0161  0.3366 -0.1863
85280W        W28218  10.779  26.140   6.379 -0.0361  0.2823 -0.1916
85281W        W28219   9.129  27.095   9.534 -0.0816  0.0185  0.2436
85282W        W28220   8.879  27.339   8.031  0.1413  0.2143  0.0102
85283W        W28221  12.196  26.296   7.509  0.0276 -0.4226 -0.0214
85284W        W28222  10.527  27.765   7.703  0.1842  0.0043  0.0813
85285W        W28223   8.427  26.544   8.273  0.0331  0.0636 -0.3000
85286W        W28224  10.099  27.969   9.549  0.1489  0.3686 -0.3776
85287W        W28225   9.836  28.476   9.851 -0.0626  0.2321 -0.1219
85288W        W28226  11.661  27.526  10.044 -0.0421 -0.1272 -0.0799
85289W        W28227  10.082  27.807   7.967  0.0940 -0.1790  0.2369
85290W        W28228   7.705  27.563   8.611 -0.1107  0.0361 -0.1659
85291W        W28229   8.043  25.700   8.395  0.1159 -0.3382 -0.0284
85292W        W28230   7.258  25.960   8.990 -0.0989 -0.0390  0.1981
85293W        W28231   9.314  28.193   8.412  0.1148  0.0712  0.0300
85294W        W28232   7.327  27.978   8.118  0.1135  0.3141 -0.4080
85295W        W28233   8.349  26.427   7.326 -0.1181 -0.1085 -0.2192
85296W        W28234   8.511  25.863   8.512  0.2503  0.0394  0.0414
85297W        W28235  10.165  27.895   8.452 -0.3575 -0.0503 -0.1729
85298W        W28236   7.561  26.772   8.824  0.0898 -0.2339 -0.3338
85299W        W28237   8.822  28.271   8.014 -0.1984  0.2475 -0.0414
85300W        W28238   8.144  26.484   7.794  0.2052 -0.1019 -0.3404
85301W        W28239   6.819  25.133   9.546 -0.0594  0.0125  0.0892
85302W        W28240   7.870  27.203   6.875 -0.0849  0.2342 -0.1476
85303W        W28241  10.105  24.831   8.288  0.0809 -0.1880  0.1730
85304W        W28242  10.069  27.454   8.679 -0.0954  0.0313 -0.1866
85305W        W28243  10.228  29.041   9.392 -0.2130 -0.0588  0.0994
85306W        W28244  11.224  26.888   8.681  0.0527  0.4171  0.2545
85307W        W28245   8.667  27.718   8.871  0.0008 -0.2985 -0.2341
85308W        W28246   8.554  28.256   8.901 -0.1205  0.1371  0.1103
85309W        W28247   9.839  28.173  10.279  0.3238  0.4512  0.2112
85310W        W28248  10.240  28.181   7.617  0.1163 -0.1779 -0.1888
85311W        W28249   8.162  28.407   8.590 -0.0936  0.0562 -0.0743
85312W        W28250   8.505  25.806   9.635 -0.3332  0.0870  0.0527
85313W        W28251   9.985  26.719   9.813  0.3003 -0.4652  0.1395
85314W        W28252   9.364  28.297   6.946  0.2120  0.0196  0.0699
85315W        W28253   9.896  26.746   9.257 -0.0872  0.0014 -0.3458
85316W        W28254   8.545  27.765  10.356  0.0822 -0.3172  0.0227
85317W        W28255   8.733  27.482   8.456  0.1461 -0.1947 -0.3323
85318W        W28256   9.087  27.121   8.491  0.1502 -0.0692  0.1234
85319W        W28257  10.036  26.742   7.885  0.2506  0.0272 -0.2120
85320W        W28258  11.265  26.101   7.184 -0.0704 -0.0498  0.0163
85321W        W28259   9.442  25.436   7.601  0.1225  0.1961 -0.0525
85322W        W28260   8.998  28.482   8.617 -0.1037  0.2249 -0.1909
85323W        W28261   8.117  26.187   9.589 -0.1267  0.0916 -0.0382
85324W        W28262   9.553  27.864   8.915  0.0286 -0.0905 -0.1821
85325W        W28263   9.763  26.116   9.930 -0.1248 -0.1797  0.2839
85326W        W28264   7.716  27.283   9.040  0.3291 -0.0477  0.1977
85327W        W28265   6.085  27.246   9.284 -0.0029  0.3405 -0.1848
85328W        W28266  10.690  28.655   8.293 -0.1718  0.3423 -0.2101
85329W        W28267  11.084  28.536   8.540 -0.2626 -0.1160 -0.2195
85330W        W28268   9.131  28.692   7.672  0.3875 -0.3161  0.0452
85331W        W28269   7.521  27.197   7.348  0.2556 -0.1671  0.0333
85332W        W28270   8.906  25.802   7.276  0.1223 -0.0485 -0.2058
85333W        W28271  11.618  26.171   8.734  0.2043  0.0321  0.3987
85334W        W28272   9.598  28.776  10.215 -0.0209  0.3464  0.2026
85335W        W28273  11.995  28.163   9.520  0.0232  0.1161 -0.2708
85336W        W28274  10.122  28.709   7.906 -0.2205  0.0062 -0.2316
85337W        W28275  10.448  25.661   8.726  0.1216  0.0878 -0.1739
85338W        W28276  11.506  26.358  10.131  0.2749  0.1979  0.1815
85339W        W28277   8.837  27.363   7.479 -0.0959  0.2361 -0.1806
85340W        W28278   9.070  26.951   7.668  0.2171 -0.0335 -0.0906
85341W        W28279  11.425  28.207   9.358 -0.1326 -0.0750  0.1024
85342W        W28280  11.304  26.660   7.119  0.1145 -0.1084  0.0165
85343W        W28281   7.345  29.197   9.579 -0.2096 -0.0609  0.0667
85344W        W28282   8.574  28.581   8.390  0.0824  0.1387 -0.0370
85345W        W28283   6.976  25.822   7.996 -0.0466 -0.0534  0.0048
85346W        W28284   7.307  28.196   7.595 -0.0037 -0.3914  0.0833
85347W        W28285   8.146  26.183   8.452  0.0877  0.3465  0.3186
85348W        W28286   8.478  26.746   8.751  0.1554 -0.2411 -0.0729
85349W        W28287   8.983  24.640  10.037  0.2537 -0.0213 -0.0045
85350W        W28288  10.768  27.060   8.231 -0.1024 -0.1015 -0.2436
85351W        W28289   8.138  27.586   9.053 -0.1070 -0.0771  0.0706
85352W        W28290  10.709  30.556   9.408 -0.2425 -0.0931  0.1387
85353W        W28291  11.049  26.387   6.748  0.0926  0.2480 -0.0797
85354W        W28292   9.208  28.986   8.737 -0.2049  0.0242 -0.0765
85355W        W28293   7.866  27.236   7.753 -0.2562  0.3707 -0.0936
85356W        W28294   7.595  27.525   8.133  0.0579 -0.1856 -0.0034
85357W        W28295   8.010  25.897   8.852 -0.0267  0.0813  0.1572
85358W        W28296   7.420  24.992   6.409  0.0539  0.2606 -0.1705
85359W        W28297  10.490  27.881   7.214  0.2199 -0.1870  0.1688
85360W        W28298   8.409  27.228   8.868  0.1189 -0.2689  0.0009
85361W        W28299   8.118  28.412   9.179  0.1015 -0.2045  0.1123
85362W        W28300   9.770  30.157   8.266  0.1226  0.2204  0.0678
85363W        W28301  13.380  28.915   9.514  0.5324 -0.1849  0.0234
85364W        W28302   9.692  28.714   9.441  0.3482  0.5657 -0.1394
85365W        W28303   5.597  26.379   9.042 -0.0464  0.0895  0.1413
85366W        W28304   8.136  25.450   7.363 -0.0345 -0.0000 -0.0231
85367W        W28305   8.598  29.663   9.462  0.0491 -0.1211  0.0550
85368W        W28306   7.325  26.440   9.199  0.1244 -0.1127 -0.0054
85369W        W28307   7.907  26.909   8.135  0.0602  0.1025 -0.0166
85370W        W28308  11.728  28.545   9.217  0.0570 -0.1075  0.0420
85371W        W28309  10.315  27.458   9.123  0.2500  0.3324 -0.2277
85372W        W28310  13.472  30.972   9.354 -0.0810  0.2337  0.1605
85373W        W28311  11.870  28.079   7.700 -0.0164 -0.1460 -0.1187
85374W        W28312   9.295  26.425   7.576  0.1626 -0.1897 -0.0052
85375W        W28313   9.148  28.534   9.648 -0.1009 -0.0736 -0.1872
85376W        W28314   7.795  28.436   7.426  0.0189 -0.0043 -0.0051
85377W        W28315   6.658  27.828   8.524  0.1524 -0.2603 -0.1306
85378W        W28316   9.437  28.194   9.512 -0.0105  0.1053 -0.0487
85379W        W28317  11.388  27.087   7.306 -0.1824  0.4468  0.0574
85380W        W28318   7.105  27.359   9.054 -0.0444 -0.1721 -0.2923
85381W        W28319   9.602  23.828   8.098  0.2987  0.2747 -0.3019
85382W        W28320  12.591  25.993   8.813 -0.0150 -0.3866 -0.1611
85383W        W28321  11.134  28.643   9.295 -0.0274  0.1699 -0.2102
85384W        W28322  11.862  25.474   7.290 -0.2209 -0.2390  0.2158
85385W        W28323  10.267  26.960   8.304  0.0527  0.0134 -0.0587
85386W        W28324   9.313  28.375  10.084  0.0667 -0.0234 -0.1146
85387W        W28325   9.564  27.775  10.025 -0.3479 -0.0975 -0.0082
85388W        W28326  10.683  26.730   6.695  0.1254 -0.1123 -0.4144
85389W        W28327  11.053  29.922   8.646  0.2461 -0.0932  0.1588
85390W        W28328   7.211  27.710   8.508 -0.1101 -0.5799 -0.1037
85391W        W28329  10.073  27.919   8.938  0.3100 -0.2009 -0.0365
85392W        W28330   8.046  23.610   9.000  0.0245  0.2491  0.1305
85393W        W28331   8.341  27.447   7.712  0.0710 -0.1276  0.0375
85394W        W28332   8.741  25.362   9.755 -0.3506 -0.2587  0.2782
85395W        W28333  10.038  25.728   9.547 -0.0958 -0.2727  0.0349
85396W        W28334   9.942  24.167   9.584 -0.0187 -0.0487  0.0318
85397W        W28335  10.980  26.963   7.660 -0.0959  0.0059 -0.0678
85398W        W28336   9.432  26.953   9.008 -0.0179 -0.1479 -0.2072
85399W        W28337   8.764  27.866   7.682  0.1252  0.0499 -0.0800
85400W        W28338  10.415  27.530  10.061 -0.0327  0.0802  0.1288
85401W        W28339   8.587  26.876   9.189  0.1200 -0.1084  0.2656
85402W        W28340  10.597  26.665   9.677 -0.2465 -0.0970  0.1830
85403W        W28341   9.650  25.127   8.376 -0.2455 -0.3062 -0.0947
85404W        W28342   9.750  29.737   8.598  0.1863 -0.2962 -0.1186
85405W        W28343   9.146  27.852   8.050  0.1684  0.1712 -0.1700
85406W        W28344   9.185  24.311   8.969 -0.4655 -0.1822 -0.3651
85407W        W28345   9.342  29.180   9.727  0.0184  0.0156 -0.2723
85408W        W28346   9.832  28.223   8.638 -0.2359 -0.0087 -0.0627
85409W        W28347   9.251  27.319   9.992 -0.0517 -0.1190 -0.1408
85410W        W28348   8.750  28.038   8.443 -0.1505  0.3246  0.0145
85411W        W28349  10.091  26.261   9.563  0.0112 -0.2684  0.1329
85412W        W28350   7.273  28.649   8.821  0.1377 -0.2791  0.0504
85413W        W28351   9.380  27.400   8.141 -0.2211 -0.0167  0.2378
85414W        W28352   7.174  26.572   7.911  0.0921 -0.0314 -0.1586
85415W        W28353   9.569  26.521   8.950  0.1395  0.2056 -0.0437
85416W        W28354  10.054  28.244   7.092  0.1559 -0.0801 -0.1037
85417W        W28355   7.716  26.305   8.878 -0.0200 -0.0209 -0.2761
85418W        W28356   8.225  26.375   9.035 -0.2111  0.1687 -0.1461
85419W        W28357   7.505  26.730  10.095  0.6691  0.0371  0.2539
85420W        W28358  11.203  26.672   8.257  0.2687 -0.0356 -0.0223
85421W        W28359   7.309  26.210   8.212  0.4589  0.0566 -0.2477
85422W        W28360  10.563  27.807   8.793 -0.1395  0.1390 -0.1807
85423W        W28361   9.265  26.300   8.605 -0.0131  0.1581  0.0255
85424W        W28362   8.269  28.891   8.635 -0.0722  0.1766 -0.0772
85425W        W28363   9.245  25.218   9.941 -0.0725  0.1189 -0.2088
85426W        W28364   8.371  27.184   7.258 -0.2485  0.2013  0.1488
85427W        W28365   8.258  27.018  10.104 -0.0423  0.0374  0.1354
85428W        W28366   8.911  27.151   8.958  0.1375  0.3848  0.0426
85429W        W28367   8.120  27.400   8.192  0.2725 -0.1550  0.3410
85430W        W28368   8.435  26.483   9.925  0.1337  0.0950  0.1415
85431W        W28369  10.655  27.833   8.299  0.3297  0.1383 -0.0425
85432W        W28370  10.362  27.008   8.948 -0.0411  0.1311  0.1466
85433W        W28371   8.537  23.150   9.588  0.0186  0.0149  0.0079
85434W        W28372   9.539  25.932   9.302 -0.0617  0.0956 -0.0084
85435W        W28373  11.741  29.625   9.020 -0.1126 -0.0978  0.0827
85436W        W28374   9.222  27.746   7.579 -0.0429  0.1867  0.2007
85437W        W28375   6.342  25.984   9.628 -0.2315 -0.1000  0.0906
85438W        W28376   9.176  28.728   7.153 -0.0755 -0.1684  0.1597
85439W        W28377  10.125  26.510   8.760 -0.1544  0.1629 -0.0942
85440W        W28378   7.696  26.929   9.660  0.2832  0.0480  0.0720
85441W        W28379   9.413  28.265   7.440  0.1807 -0.3622 -0.0082
85442W        W28380   7.516  26.271   9.732 -0.1242 -0.0293 -0.1116
85443W        W28381  10.885  25.502   7.649  0.0612 -0.1470  0.0156
85444W        W28382   9.598  28.690   8.433 -0.1844 -0.1358  0.0450
85445W        W28383   8.392  25.916   9.185  0.2498  0.1079  0.1016
85446W        W28384  10.405  28.227   8.110  0.0890  0.2707  0.0804
85447W        W28385   8.001  24.860   8.563  0.1206 -0.1172 -0.3980
85448W        W28386  11.037  28.047   8.631  0.1484 -0.0357  0.1784
85449W        W28387  10.534  26.151   8.664 -0.1714  0.0504  0.0025
85450W        W28388   8.448  26.063   7.966 -0.1736  0.1398 -0.0083
85451W        W28389   8.651  26.291   8.737  0.2452 -0.1666 -0.0466
85452W        W28390   9.862  27.183  10.053  0.2558  0.1013  0.0530
85453W        W28391   8.488  27.736   8.072  0.2999 -0.3117 -0.0687
85454W        W28392  10.002  27.817   7.460 -0.0902  0.1250 -0.0577
85455W        W28393   8.466  27.927   9.274  0.2840  0.4386 -0.0998
85456W        W28394  12.144  26.351   8.507 -0.1287  0.0309  0.0184
85457W        W28395   9.531  27.367   8.636  0.0670 -0.1019  0.1426
85458W        W28396   8.325  28.184   8.132 -0.3175 -0.0008 -0.1230
85459W        W28397   9.138  26.658   9.282 -0.3379 -0.4458 -0.1869
85460W        W28398   9.547  27.336   7.646  0.0202  0.0762 -0.1605
85461W        W28399  10.123  29.974   9.599 -0.1719  0.2051  0.0508
85462W        W28400  10.181  26.843   6.573 -0.1684  0.1751 -0.0267
85463W        W28401   8.455  25.141  10.104  0.0702 -0.1336  0.0257
85464W        W28402  11.683  26.480   8.333  0.1429  0.0141 -0.2535
85465W        W28403  10.082  26.931   7.422  0.0409  0.1993 -0.0996
85466W        W28404   6.720  24.497   8.802 -0.3575  0.0150  0.0953
85467W        W28405  10.166  25.503   8.334  0.0238  0.0047  0.2372
85468W        W28406   9.680  28.680   7.065  0.0163  0.0466 -0.1600
85469W        W28407  10.306  27.043   9.922 -0.1635  0.2262 -0.0659
85470W        W28408   9.119  26.201   9.480  0.0387  0.1562  0.3855
85471W        W28409   6.989  25.913   8.497 -0.2952  0.1012 -0.1612
85472W        W28410   7.951  26.862   7.322 -0.0443 -0.1015  0.3678
85473W        W28411   9.844  28.329   8.195 -0.2292  0.3302  0.1004
85474W        W28412  12.172  25.678  10.417  0.2463 -0.1359 -0.0613
85475W        W28413   9.673  25.556   8.032 -0.1473 -0.1921  0.3234
85476W        W28414   9.042  28.085   8.935 -0.1886 -0.1704  0.2337
85477W        W28415   8.501  25.022   8.762 -0.0747 -0.1889  0.0529
85478W        W28416   7.362  27.994   9.614 -0.0810  0.2277 -0.3364
85479W        W28417   8.540  29.241   9.087  0.1306  0.4771  0.0983
85480W        W28418   9.880  26.994   8.814 -0.0210  0.0870 -0.0836
85481W        W28419  10.548  27.317   8.629  0.1673  0.0766  0.1258
85482W        W28420   9.110  27.588   9.153  0.2173  0.0179 -0.0737
85483W        W28421   6.296  26.799  10.274  0.1614  0.0647 -0.2746
85484W        W28422  11.502  28.290   8.372 -0.0217 -0.3074 -0.3278
85485W        W28423   9.419  27.648   9.550  0.1436  0.3532  0.2547
85486W        W28424  10.382  26.496   9.229  0.1800  0.1491 -0.0682
85487W        W28425   8.378  25.329   8.294 -0.2592  0.3130 -0.0954
85488W        W28426  10.205  30.823   8.051  0.6198 -0.2174 -0.0878
85489W        W28427   8.910  26.737   8.133 -0.1589 -0.1502  0.0440
85490W        W28428   8.365  28.521   7.705 -0.4323 -0.3398  0.0237
85491W        W28429  11.493  28.667   7.560  0.2359 -0.3371  0.2779
85492W        W28430  10.278  28.403   8.559  0.3548  0.0874 -0.0127
85493W        W28431  10.185  28.584   9.513  0.2224 -0.0786  0.0971
85494W        W28432   8.337  26.944   7.749 -0.0200 -0.0451  0.0097
85495W        W28433   8.696  29.074  10.237  0.1879 -0.0511  0.0346
85496W        W28434   7.194  28.449   8.045  0.0599  0.1166  0.1185
85497W        W28435   8.962  28.032   9.521 -0.1857 -0.1021  0.0134
85498W        W28436  11.592  25.830   9.201 -0.0758  0.1384 -0.1413
85499W        W28437  11.682  27.053   8.184  0.2279 -0.1377  0.3292
85500W        W28438   9.042  25.998   8.994 -0.1104  0.0416  0.1452
85501W        W28439   9.058  27.888  10.068 -0.0622  0.2627 -0.0589
85502W        W28440   9.372  26.371   8.067 -0.2030  0.1930 -0.0519
85503W        W28441  10.148  28.821   8.416 -0.1341 -0.1057 -0.1431
85504W        W28442   6.867  26.707   9.266  0.0133 -0.0560  0.0173
85505W        W28443   6.934  27.910   7.761  0.1967  0.2282 -0.0782
85506W        W28444   8.190  23.578   9.547 -0.2292  0.1454  0.0527
85507W        W28445   9.834  27.187   8.247 -0.1094 -0.0701  0.2127
85508W        W28446  10.400  27.446   8.176 -0.3165  0.0075  0.0186
85509W        W28447  10.673  28.535   9.550 -0.0042  0.1258 -0.2448
85510W        W28448  10.194  28.724   9.003  0.0195  0.4463 -0.2755
85511W        W28449   7.843  29.712  10.034  0.1527  0.0278 -0.2421
85512W        W28450   8.393  25.801   7.086 -0.1797  0.0944 -0.1204
85513W        W28451  11.776  26.741   8.752  0.1637 -0.0141 -0.0267
85514W        W28452   7.717  26.034   9.308 -0.0630  0.1212  0.1654
85515W        W28453   7.399  27.082   7.882  0.0589 -0.0356 -0.1965
85516W        W28454  11.127  26.323   7.821  0.0491  0.1341 -0.2640
85517W        W28455   7.984  27.161   8.628  0.0255 -0.1872  0.3490
85518W        W28456   8.284  27.440   9.819  0.2211  0.2008 -0.5211
85519W        W28457   9.571  26.847   7.543  0.0981 -0.0726  0.3147
85520W        W28458   9.713  27.100   6.504  0.0977 -0.0376 -0.0168
85521W        W28459   6.489  27.358   8.282  0.1729  0.1900 -0.0466
85522W        W28460   9.254  25.587   8.988 -0.0104 -0.2179  0.1939
85523W        W28461   5.656  27.842   8.091  0.1793 -0.1785 -0.0824
85524W        W28462   8.348  26.943   6.858  0.0333 -0.3248 -0.1020
85525W        W28463   7.133  26.706   9.700  0.1616  0.0333  0.0446
85526W        W28464  10.423  27.751   6.434 -0.2640 -0.0344 -0.4130
85527W        W28465  11.723  27.920   9.090  0.0812  0.0151 -0.1383
85528W        W28466   9.494  30.202   7.847  0.1663 -0.0681  0.3907
85529W        W28467  11.073  26.665   9.460 -0.3535  0.0248  0.0258
85530W        W28468  10.206  27.389   9.575  0.2200  0.1545  0.0826
85531W        W28469   8.028  26.851   9.090 -0.0401 -0.0034  0.3763
85532W        W28470  10.811  26.884   9.121 -0.2551 -0.1220  0.1307
85533W        W28471   8.238  26.690   9.518  0.0945 -0.2325 -0.2665
85534W        W28472   9.679  24.572   8.197 -0.1742 -0.0213  0.2345
85535W        W28473   7.442  27.560   7.664 -0.2226 -0.0062 -0.4623
85536W        W28474   7.644  28.919   7.370  0.0856 -0.1594 -0.2340
85537W        W28475  10.610  25.033   9.508  0.2313  0.3105 -0.2524
85538W        W28476  10.190  29.649   7.066  0.0633 -0.2392  0.0828
85539W        W28477   8.915  27.519   9.697  0.0959  0.0257  0.0883
85540W        W28478   8.490  27.026   8.297 -0.0799 -0.1741 -0.3938
85541W        W28479   9.134  27.681   8.613  0.1190 -0.0594 -0.2307
85542W        W28480   9.162  28.774   8.227  0.1686  0.1890 -0.3428
85543W        W28481  11.139  29.414   8.857  0.1317 -0.2051  0.0040
85544W        W28482   9.025  26.655   8.816  0.2277 -0.1267  0.0277
85545W        W28483  10.495  28.902   9.864 -0.2800  0.1365  0.0492
85546W        W28484   8.293  25.249   9.494 -0.1198 -0.0395  0.1467
85547W        W28485  11.270  26.200   8.269  0.3718  0.1408  0.1561
85548W        W28486   9.788  25.220   7.246 -0.3436  0.1801  0.1041
85549W        W28487   7.366  26.902   9.289  0.0525 -0.1356 -0.0962
85550W        W28488   7.456  26.801   8.315 -0.0347 -0.0605 -0.0175
85551W        W28489   7.857  29.059   8.329 -0.1048  0.0701 -0.1585
85552W        W28490   8.545  27.438   9.330  0.0532  0.0582  0.0121
85553W        W28491   7.836  28.519  10.144 -0.3561  0.1762 -0.0551
85554W        W28492   8.006  26.671   8.606 -0.0131 -0.0721 -0.1441
85555W        W28493  11.716  27.573   8.100  0.1688 -0.0300  0.1182
85556W        W28494   9.476  24.209   9.687 -0.1412  0.0532  0.0551
85557W        W28495   7.746  26.387   8.168 -0.2072  0.1641 -0.1021
85558W        W28496  10.746  29.109   8.507 -0.3329 -0.1611  0.0368
85559W        W28497  11.035  30.183   9.468  0.0933 -0.3391  0.3217
85560W        W28498   9.683  27.089   9.508  0.0573  0.1132 -0.3393
85561W        W28499   7.606  28.729   7.900  0.0621 -0.2240 -0.0067
85562W        W28500   7.084  25.573   7.512 -0.2483  0.0548 -0.2334
85563W        W28501   8.348  26.056  10.094  0.0913  0.0775  0.2274
85564W        W28502  10.261  26.458   8.253  0.1411  0.1781 -0.0841
85565W        W28503   9.688  30.767   7.917  0.0122  0.3679 -0.2159
85566W        W28504   6.785  27.265   9.507 -0.1966  0.2868 -0.0267
85567W        W28505  10.972  28.239   8.151 -0.2565  0.1546 -0.2107
85568W        W28506  11.502  28.847   8.072 -0.3339  0.1981  0.0744
85569W        W28507  10.864  25.836   8.489  0.1460  0.1366  0.1655
85570W        W28508   9.740  27.375   9.086  0.1092  0.1778  0.0226
85571W        W28509  10.974  27.544   8.631  0.0689 -0.1446 -0.3704
85572W        W28510   7.556  25.930   8.597  0.0970 -0.1804 -0.5214
85573W        W28511  10.774  26.329   8.301 -0.2427  0.1216  0.2772
85574W        W28512   9.757  29.234   8.506 -0.2728 -0.0859  0.0621
85575W        W28513   7.951  26.432  10.105  0.0036 -0.1091 -0.3537
85576W        W28514   8.639  26.547   7.765  0.0624  0.1379  0.1905
85577W        W28515   9.848  29.058   9.740  0.2291 -0.1533 -0.0837
85578W        W28516   9.492  26.798   8.482  0.1588 -0.2856 -0.0309
85579W        W28517  12.561  27.566   7.719  0.0562  0.0585  0.1292
85580W        W28518   8.661  26.418   9.333 -0.0368 -0.2929  0.0299
85581W        W28519  10.862  28.905   8.967  0.1463 -0.2198 -0.3409
85582W        W28520  10.396  26.406  10.143  0.0230 -0.0803  0.1147
85583W        W28521   6.904  26.325   8.872 -0.0858 -0.0285 -0.1273
85584W        W28522   9.078  28.847  10.051 -0.0597 -0.1900 -0.0381
85585W        W28523   3.291  25.031   9.989 -0.0395 -0.0403  0.0694
85586W        W28524  10.128  25.205  10.166 -0.3610  0.3327 -0.0482
85587W        W28525   7.774  26.516   9.385  0.2464  0.2238  0.4389
85588W        W28526   8.685  25.460   9.237 -0.4311 -0.0035 -0.1289
85589W        W28527   8.844  26.649   9.731 -0.0927 -0.1027 -0.3476
85590W        W28528  11.005  26.417   8.728  0.0340 -0.0643 -0.0838
85591W        W28529  10.331  31.690   3.900 -0.0449 -0.1846 -0.3516
85592W        W28530   8.575  29.436  30.656  0.1843  0.2815 -0.0335
85593W        W28531   9.718  30.808   0.553 -0.1461  0.0004 -0.3216
85594W        W28532  10.894  30.370   1.052  0.0908 -0.1923 -0.0709
85595W        W28533   8.370  28.686   3.601  0.1799 -0.0022 -0.1042
85596W        W28534   9.305  32.228   1.175 -0.2637 -0.0547  0.1371
85597W        W28535   8.080  28.978   3.234  0.0026  0.2494 -0.0923
85598W        W28536  10.212  31.357   0.953  0.2311  0.0259 -0.1883
85599W        W28537  10.673  32.054   0.366 -0.0922  0.2961 -0.0290
85600W        W28538  10.371  32.377   0.139  0.0740  0.2733  0.2362
85601W        W28539  10.381  30.119   3.564  0.0604  0.1671  0.1853
85602W        W28540   8.297  31.808   4.882  0.1553 -0.1038  0.2178
85603W        W28541  10.306  29.677   0.863 -0.1692  0.3849  0.2280
85604W        W28542   8.558  28.139   2.543  0.1696 -0.1457 -0.0822
85605W        W28543  11.758  29.534   1.810 -0.1621  0.0894  0.0809
85606W        W28544   8.278  31.055   0.673  0.0779 -0.1099  0.0249
85607W        W28545  10.101  29.883   2.124 -0.0894  0.1196 -0.0724
85608W        W28546   8.202  30.556   0.474 -0.0595 -0.1438 -0.2865
85609W        W28547   9.378  31.710  31.944  0.4589  0.2081 -0.0579
85610W        W28548  10.215  28.434   4.677  0.0438  0.0731 -0.1317
85611W        W28549  10.112  29.343   5.301  0.1347  0.2337  0.1985
85612W        W28550   9.513  30.942  31.939 -0.0405  0.2440 -0.1402
85613W        W28551   7.590  31.252   0.793  0.3487 -0.0474  0.1612
85614W        W28552   6.860  28.973   1.687 -0.1542 -0.2435 -0.3726
85615W        W28553   8.463  28.489   3.137  0.0991  0.2116  0.2575
85616W        W28554  10.980  30.953   2.369  0.1956  0.2239 -0.0406
85617W        W28555  10.694  31.332   2.253  0.0344 -0.1017  0.1689
85618W        W28556   9.593  31.944   1.530  0.0523  0.0947 -0.1057
85619W        W28557   8.597  31.659   1.717 -0.0085  0.0985  0.2721
85620W        W28558  10.103  29.385   4.609  0.1527  0.0189  0.0181
85621W        W28559   8.920  31.010  31.822 -0.1425 -0.0092  0.0255
85622W        W28560   8.686  31.688   2.618  0.2961  0.2937 -0.2444
85623W        W28561   8.376  32.325  31.546 -0.1466  0.1648  0.2407
85624W        W28562  10.794  31.943  31.866 -0.1569  0.2417  0.0704
85625W        W28563  10.671  31.582   3.493 -0.3371 -0.1945  0.1535
85626W        W28564   8.388  31.942   4.386  0.1557 -0.0344  0.1885
85627W        W28565   7.882  32.657  31.391  0.0977  0.2767  0.1084
85628W        W28566   9.475  33.398   2.612 -0.0347  0.0593  0.4247
85629W        W28567   8.355  32.315   3.794  0.2675 -0.2219  0.0304
85630W        W28568  10.340  30.322   3.023 -0.1058 -0.1984  0.2398
85631W        W28569   9.649  28.495   1.897  0.1055 -0.2088  0.0996
85632W        W28570   8.988  31.901   0.246 -0.1464 -0.1075 -0.0808
85633W        W28571   9.687  31.753   5.090 -0.0620 -0.0374 -0.2012
85634W        W28572   9.632  31.547   3.129 -0.0849 -0.1842  0.3838
85635W        W28573  11.950  29.650   2.508 -0.2993 -0.0359  0.2070
85636W        W28574   9.323  32.632   0.366  0.2505  0.0665  0.2587
85637W        W28575   9.799  28.810   0.285  0.2646 -0.0821  0.0581
85638W        W28576   7.021  29.898   0.184 -0.1120 -0.1739 -0.0624
85639W        W28577  10.172  29.354   0.364  0.1530  0.0110 -0.0664
85640W        W28578  10.036  28.951   1.900  0.1606 -0.2731  0.1621
85641W        W28579   9.239  32.319   3.068  0.1557 -0.2688 -0.3945
85642W        W28580  10.492  28.901   2.107  0.1051 -0.0331  0.0731
85643W        W28581  10.785  32.046   3.323 -0.1935 -0.0964 -0.3379
85644W        W28582   9.560  30.481   1.035  0.3685  0.4033 -0.0923
85645W        W28583   9.908  30.130   2.548  0.2097 -0.1630 -0.0865
85646W        W28584   8.006  32.811   4.685 -0.0256  0.3805  0.0571
85647W        W28585   8.854  29.448   3.070 -0.2665 -0.1664  0.1057
85648W        W28586  10.555  32.925   0.125  0.2075 -0.0804 -0.0815
85649W        W28587  10.094  32.069   1.596 -0.1637  0.2361  0.1439
85650W        W28588  10.095  32.640   1.533 -0.0812 -0.0425 -0.1976
85651W        W28589   9.164  29.652   1.069  0.6734  0.2069  0.1589
85652W        W28590   7.856  31.077   3.791  0.0161 -0.0584 -0.0021
85653W        W28591   9.057  30.469   3.882 -0.0808 -0.2401  0.0801
85654W        W28592   7.679  28.616  31.384  0.1303 -0.0034  0.1284
85655W        W28593  11.894  32.268   3.018  0.1085  0.3547  0.1658
85656W        W28594   8.497  31.589   3.087 -0.1991 -0.0210  0.0783
85657W        W28595  11.122  30.770   1.910 -0.0244  0.0480  0.1670
85658W        W28596   8.743  30.640   3.171  0.1769 -0.0784  0.1572
85659W        W28597  10.813  31.593   1.761  0.2249 -0.0111  0.2231
85660W        W28598   9.778  30.933   1.033  0.1234  0.1405  0.2640
85661W        W28599   9.485  29.777   2.585  0.0828 -0.1908 -0.0501
85662W        W28600   9.789  28.076   2.055  0.0408 -0.0124  0.1180
85663W        W28601   8.762  30.247   0.480 -0.1107 -0.0165 -0.0754
85664W        W28602   8.300  29.914  31.241 -0.1093 -0.1117 -0.1069
85665W        W28603  11.221  31.843   1.523 -0.1699 -0.2259  0.0735
85666W        W28604   9.620  29.651   1.284 -0.2088  0.2076 -0.2100
85667W        W28605   9.177  30.679   2.892 -0.0734 -0.0258 -0.0130
85668W        W28606   9.039  31.050   3.792 -0.0195  0.2907 -0.1936
85669W        W28607   9.169  32.163   4.102 -0.1455  0.1597 -0.1470
85670W        W28608   9.284  30.541   0.314  0.0461  0.2530  0.1071
85671W        W28609   8.136  30.631   1.412  0.2448 -0.2608 -0.0266
85672W        W28610   8.295  30.098  31.664  0.0096 -0.0775  0.0248
85673W        W28611   8.657  28.905   2.864 -0.3608  0.1958  0.1004
85674W        W28612   9.745  31.582   2.590 -0.0723 -0.2204  0.1135
85675W        W28613  10.781  28.634   0.379 -0.1778  0.0273  0.1742
85676W        W28614   7.206  29.653   3.011  0.0815 -0.0604  0.0918
85677W        W28615  10.594  26.212   0.148 -0.0836  0.0122  0.1111
85678W        W28616   9.294  31.376   2.792 -0.0016  0.0778 -0.2861
85679W        W28617  10.238  32.715   0.494  0.2581  0.1788 -0.0074
85680W        W28618  10.513  29.678   0.391 -0.2230 -0.2255  0.1444
85681W        W28619  10.370  31.390   0.388  0.2745  0.2790  0.1655
85682W        W28620   8.474  29.386   2.711  0.0313 -0.2486  0.0869
85683W        W28621   8.649  30.302   2.332 -0.3828 -0.3936 -0.2905
85684W        W28622   8.652  30.287   3.545 -0.1252 -0.1328 -0.1377
85685W        W28623   8.096  29.657   1.436  0.3876  0.0069 -0.0586
85686W        W28624  10.164  30.831   3.009  0.2754  0.3092 -0.0321
85687W        W28625   7.666  28.442   1.466  0.2558 -0.2149 -0.0948
85688W        W28626   8.846  30.838   1.531  0.1612  0.0720  0.0852
85689W        W28627   9.481  29.088   0.955 -0.0112  0.0730 -0.1529
85690W        W28628   8.072  31.652   1.624 -0.2631 -0.1219  0.0544
85691W        W28629  11.132  29.656   1.978 -0.0289  0.0517 -0.2828
85692W        W28630   9.077  30.067   0.038  0.0582 -0.4525 -0.3549
85693W        W28631  11.434  31.867   2.143  0.1347  0.1199  0.2924
85694W        W28632  10.952  32.518   0.995  0.3407  0.3260  0.1116
85695W        W28633   8.338  28.615   2.608  0.2373  0.2836 -0.2094
85696W        W28634   7.645  29.156  31.193  0.0483  0.1974  0.3232
85697W        W28635   7.987  32.322   1.846  0.1178  0.0491  0.3561
85698W        W28636   9.161  31.493   1.029 -0.2715  0.2290  0.2443
85699W        W28637   9.204  29.876   1.593  0.2636 -0.1404  0.1641
85700W        W28638  11.751  31.923   1.612  0.2857 -0.0869 -0.2225
85701W        W28639   9.370  33.088   1.653  0.0384  0.0294 -0.2466
85702W        W28640   9.137  31.826   3.722  0.0536 -0.1271  0.0694
85703W        W28641  11.601  29.849   4.464  0.1294 -0.0942 -0.3087
85704W        W28642  11.269  31.364   1.724 -0.2323 -0.6018  0.1699
85705W        W28643  10.684  29.869   2.080 -0.3906  0.2590 -0.0730
85706W        W28644   7.879  30.085  31.485  0.1968  0.1665  0.0514
85707W        W28645   9.132  31.546   0.494  0.0535 -0.0034 -0.3093
85708W        W28646   9.108  30.610   0.796  0.0244 -0.0442 -0.1837
85709W        W28647   8.723  29.963   1.040  0.8427  0.2632  0.2671
85710W        W28648   9.106  30.887  31.383 -0.0490  0.0948  0.0566
85711W        W28649  10.190  29.530   2.584  0.1107  0.0854 -0.1843
85712W        W28650   7.480  31.701   2.400 -0.0115  0.1614 -0.1292
85713W        W28651   9.784  31.155   4.450 -0.1780 -0.1183 -0.1602
85714W        W28652   8.375  30.518  31.933 -0.0052 -0.4782 -0.2806
85715W        W28653   9.589  31.979   2.827  0.2594  0.0145  0.0784
85716W        W28654   9.902  29.985   1.064  0.1913  0.0780  0.1023
85717W        W28655  11.149  28.346   0.242 -0.0471  0.0067  0.1296
85718W        W28656   8.996  31.090   3.255  0.2640  0.1068 -0.0673
85719W        W28657   9.861  31.191  31.221 -0.0033 -0.0505 -0.0475
85720W        W28658   9.573  29.691   0.787  0.1220  0.2456  0.1109
85721W        W28659  10.540  30.721  31.518  0.2693 -0.2122 -0.1386
85722W        W28660   8.485  31.386   4.459  0.0858 -0.1298 -0.1943
85723W        W28661   8.921  31.034   1.074  0.1862 -0.0540  0.1208
85724W        W28662   9.695  29.621   3.619 -0.3912  0.1556 -0.1800
85725W        W28663   9.027  29.427  30.770  0.1076 -0.1243 -0.1386
85726W        W28664  10.560  32.769   1.259  0.0224  0.0910  0.2353
85727W        W28665   9.504  31.258   3.603  0.2798  0.2321  0.0683
85728W        W28666  10.606  31.499   4.785  0.1299 -0.0506 -0.1315
85729W        W28667  11.179  31.520   2.882  0.2374 -0.0729  0.0186
85730W        W28668  10.070  27.880   3.966 -0.1953 -0.1864 -0.0604
85731W        W28669   8.565  31.025  30.675  0.1725  0.2286  0.4418
85732W        W28670   8.929  28.121   1.369 -0.1463  0.2243  0.0620
85733W        W28671   8.341  31.804  31.544 -0.1710  0.0540 -0.1209
85734W        W28672   9.906  29.399   2.165  0.0362 -0.0362  0.1505
85735W        W28673   9.269  30.612   1.909 -0.0802 -0.2124 -0.0844
85736W        W28674  10.794  29.105   4.418  0.0899  0.3019 -0.1548
85737W        W28675  10.835  30.701   3.476 -0.2181  0.4206  0.0625
85738W        W28676   9.514  30.259   1.571 -0.0627  0.0139 -0.0377
85739W        W28677  10.788  31.186   2.805 -0.3024 -0.1957 -0.0383
85740W        W28678   7.963  31.406  30.064 -0.2751 -0.0495 -0.0254
85741W        W28679  10.612  29.677   3.466 -0.1238 -0.0943  0.0832
85742W        W28680   8.825  31.406   4.034  0.3406 -0.1884 -0.0785
85743W        W28681  10.282  31.987   3.469 -0.0691 -0.1367  0.0330
85744W        W28682  10.606  32.176   2.850 -0.0456 -0.0608 -0.2606
85745W        W28683   9.336  31.037   1.296 -0.1078  0.0280  0.1261
85746W        W28684   9.720  29.224   2.637 -0.3099  0.2456  0.0714
85747W        W28685   8.400  29.581   0.279 -0.2173  0.1019  0.1184
85748W        W28686   8.717  32.277   0.525 -0.3186  0.0015 -0.0543
85749W        W28687  10.389  30.831   0.018  0.1862  0.0264 -0.0368
85750W        W28688   9.290  29.373   2.748  0.0280 -0.0379  0.1589
85751W        W28689  10.339  31.605   2.492  0.0152  0.1499  0.1999
85752W        W28690   8.840  32.685  31.568 -0.0052 -0.1281  0.0428
85753W        W28691   9.408  31.541   4.633  0.1150  0.2121  0.0571
85754W        W28692   8.434  31.811   1.241 -0.0510 -0.2671  0.0523
85755W        W28693   9.283  28.894   2.640 -0.2545 -0.0448 -0.0526
85756W        W28694   7.628  32.940   3.794  0.0418 -0.1967 -0.1827
85757W        W28695   7.890  30.074   1.203  0.1056  0.1457 -0.1607
85758W        W28696   9.006  29.157   1.024 -0.0522 -0.0701 -0.0720
85759W        W28697  10.329  30.331   2.188  0.0586 -0.0796 -0.1821
85760W        W28698  10.055  30.506   0.902  0.3337 -0.0484 -0.3634
85761W        W28699   8.684  28.754   2.200 -0.0394 -0.2725  0.2511
85762W        W28700   9.486  29.088   3.273  0.1391  0.2699 -0.0051
85763W        W28701   9.206  31.814   2.469 -0.0497  0.1729  0.0861
85764W        W28702   9.885  30.265   1.928  0.2037 -0.0417  0.0461
85765W        W28703   9.343  29.680   0.229 -0.2393  0.3642 -0.1891
85766W        W28704  10.167  32.462   2.779 -0.1529 -0.0715 -0.1318
85767W        W28705   8.738  30.532   4.420 -0.2690 -0.2994  0.0728
85768W        W28706   7.496  29.824   1.486  0.4052  0.0207 -0.0228
85769W        W28707  11.341  29.910   3.183 -0.0380 -0.1129  0.1925
85770W        W28708   9.594  28.650   1.260 -0.1265  0.1501  0.2244
85771W        W28709   7.317  31.770   1.630 -0.0667 -0.3208 -0.0711
85772W        W28710  10.349  31.841   0.080  0.1772  0.1744 -0.1597
85773W        W28711   7.683  29.214  31.722  0.0990  0.0078 -0.5163
85774W        W28712   7.468  30.301   1.814 -0.1046 -0.0475 -0.1591
85775W        W28713   9.049  30.015   4.169  0.0451 -0.1876 -0.0988
85776W        W28714  10.123  31.481   3.434  0.3275  0.2576  0.0046
85777W        W28715  10.018  30.641   2.501 -0.2814 -0.1264  0.2654
85778W        W28716   8.351  30.154   1.389 -0.0832 -0.0903  0.1434
85779W        W28717   8.272  28.400   0.792 -0.3421 -0.1134  0.2251
85780W        W28718  10.490  31.170   3.189 -0.1461  0.1996 -0.1818
85781W        W28719   9.996  30.554   3.886  0.3397 -0.0281  0.1208
85782W        W28720   8.251  31.633   3.536 -0.0484  0.1218  0.1155
85783W        W28721   9.069  29.834   2.890  0.3830 -0.0199 -0.2832
85784W        W28722  11.923  33.382   0.759 -0.1961  0.0284 -0.4992
85785W        W28723   9.897  30.998   3.457 -0.1715  0.1434 -0.0141
85786W        W28724   8.139  30.531  31.365  0.2177 -0.0972  0.0326
85787W        W28725   8.231  30.879   1.904 -0.2175  0.3158  0.0463
85788W        W28726   8.317  32.083   0.819  0.1644 -0.5366 -0.0246
85789W        W28727   9.419  30.253   2.690  0.0810 -0.0330 -0.4528
85790W        W28728   8.745  31.209   1.911  0.0842  0.0036  0.0854
85791W        W28729   8.493  31.723   0.435 -0.0275 -0.1384  0.0321
85792W        W28730   9.542  30.802   3.758  0.0178 -0.0780  0.0182
85793W        W28731  10.605  28.896   0.867 -0.0415 -0.0075  0.0113
85794W        W28732  10.032  32.216   0.839 -0.1414 -0.1373 -0.0541
85795W        W28733   9.215  29.331   1.465 -0.1203 -0.0159  0.1415
85796W        W28734  10.644  30.549   2.543  0.0626 -0.0185  0.2310
85797W        W28735   9.106  29.895   0.646  0.0105 -0.0837  0.0226
85798W        W28736  10.905  28.250   4.184 -0.0748  0.0098 -0.1456
85799W        W28737   9.183  26.761   1.563 -0.0682 -0.1118 -0.1537
85800W        W28738  10.165  30.079   0.611  0.0301 -0.2931 -0.1971
85801W        W28739   7.798  30.837   2.832 -0.1741  0.1314 -0.0071
85802W        W28740  11.154  32.256   3.626  0.1546  0.3094 -0.2311
85803W        W28741   8.278  30.607   2.372 -0.3099  0.1538 -0.1584
85804W        W28742   8.618  28.724  31.916 -0.0063  0.2334 -0.1670
85805W        W28743   7.966  29.388   0.176  0.1288  0.3075 -0.0695
85806W        W28744   8.811  30.326   2.777 -0.2598 -0.4476  0.0161
85807W        W28745   9.771  32.375   1.204  0.1050  0.0467 -0.0475
85808W        W28746   9.544  31.298   0.253  0.2935 -0.2055 -0.0834
85809W        W28747  11.404  31.014   2.648  0.1977 -0.1024 -0.0268
85810W        W28748   8.708  31.243   2.807  0.0868 -0.1623 -0.1131
85811W        W28749   9.767  31.227   1.835  0.1515  0.2874 -0.0878
85812W        W28750   8.824  30.088  31.569 -0.0376  0.0460 -0.0698
85813W        W28751   8.954  29.577   1.931 -0.1744  0.1073  0.0714
85814W        W28752   9.761  28.780   2.912  0.1023  0.0014 -0.0118
85815W        W28753   9.419  31.526   1.659  0.1957  0.1735  0.0491
85816W        W28754   9.631  28.933   2.217  0.2257 -0.1110 -0.1210
85817W        W28755  11.192  29.673   2.566  0.0693  0.0181  0.1251
85818W        W28756  11.501  30.140   2.708  0.1818  0.2814  0.0883
85819W        W28757   9.055  30.254   3.265  0.0135  0.2186  0.0234
85820W        W28758   7.110  29.988   2.682  0.1634  0.1304  0.0950
85821W        W28759  10.874  32.663   2.144  0.1658  0.5602 -0.1276
85822W        W28760  10.665  30.100   0.629  0.2019  0.2837  0.3082
85823W        W28761  11.964  31.039   2.120 -0.1059  0.0054 -0.0831
85824W        W28762  11.595  30.769   0.505 -0.2596  0.0348  0.3763
85825W        W28763   9.588  30.921   2.217  0.0947  0.0967 -0.0081
85826W        W28764   7.636  31.317   2.698 -0.4621 -0.3404  0.1140
85827W        W28765  10.773  30.921   4.007  0.1647  0.2170  0.0713
85828W        W28766   9.261  28.796   1.689 -0.0229 -0.0084 -0.1833
85829W        W28767  10.837  29.471   4.062  0.0081  0.0120  0.3816
85830W        W28768   9.540  31.827   1.002 -0.0214  0.0157  0.1838
85831W        W28769   8.803  31.434   0.109 -0.0326  0.1220  0.0078
85832W        W28770   9.968  29.954   1.530 -0.2285  0.0933 -0.0450
85833W        W28771   8.491  31.116   2.336  0.0611 -0.1867  0.1049
85834W        W28772   8.950  33.290   3.123 -0.0072  0.0928 -0.1553
85835W        W28773   8.015  30.036   0.136 -0.0543 -0.1011  0.4291
85836W        W28774   9.662  29.674  31.811  0.0374 -0.1515 -0.1368
85837W        W28775  10.322  31.235   1.955  0.1219  0.0935  0.0263
85838W        W28776  11.734  30.968   4.206 -0.1303 -0.1523  0.0527
85839W        W28777   9.947  29.187  31.961 -0.2027 -0.1269 -0.4721
85840W        W28778  12.255  31.096   2.563 -0.1393  0.0492 -0.3040
85841W        W28779   9.093  33.045   0.002 -0.2094  0.1963 -0.0734
85842W        W28780  10.859  30.584   1.527  0.0666  0.0435 -0.1011
85843W        W28781   9.085  31.859   1.449 -0.1382  0.3248 -0.2133
85844W        W28782   7.832  31.605   3.882  0.0776  0.0453  0.2038
85845W        W28783   9.461  31.380   2.236  0.1351  0.1398  0.4151
85846W        W28784   9.924  29.097   3.589  0.0219 -0.0847 -0.2174
85847W        W28785   9.708  30.806   1.574 -0.0867  0.1186 -0.1494
85848W        W28786  10.032  30.825   1.975  0.1394  0.1788  0.0365
85849W        W28787  12.275  30.001   1.835  0.1230  0.1936  0.0603
85850W        W28788   9.400  31.269   4.084 -0.2686  0.1257 -0.0436
85851W        W28789   8.214  30.058   2.381  0.0264  0.1788  0.0550
85852W        W28790  10.104  32.095   2.426 -0.0176  0.0389 -0.0587
85853W        W28791  11.971  31.508   2.872  0.1601 -0.1901 -0.0111
85854W        W28792   8.271  31.363   1.972 -0.0219  0.1746  0.1351
85855W        W28793   8.620  29.849   3.236  0.1281  0.0328 -0.0746
85856W        W28794   9.495  30.305   4.085  0.0874 -0.0559  0.0822
85857W        W28795  10.123  31.475   2.925 -0.0158  0.2364 -0.1073
85858W        W28796   8.853  28.275   2.136 -0.3409  0.1339  0.0674
85859W        W28797   9.907  30.580  31.825  0.1319 -0.1742  0.0313
85860W        W28798   8.329  32.425   3.337  0.0475  0.1552  0.0727
85861W        W28799   7.501  31.252   2.078  0.1612 -0.2512  0.0029
85862W        W28800   8.508  32.722   0.641 -0.0291  0.3227  0.1648
85863W        W28801   9.119  31.014   0.305 -0.1004 -0.1763 -0.1863
85864W        W28802  10.346  31.592   1.517  0.0201 -0.1450  0.0392
85865W        W28803  10.160  33.164   1.460  0.0154 -0.1767  0.0368
85866W        W28804   7.867  30.147   0.675  0.1826 -0.3644  0.3384
85867W        W28805   6.909  30.465   1.952  0.1241  0.0727  0.0360
85868W        W28806   7.190  31.539   0.565  0.3053  0.4292  0.0520
85869W        W28807  10.062  30.963  31.590  0.1143  0.1249 -0.4178
85870W        W28808   8.734  31.248   0.608  0.0619  0.0561 -0.0920
85871W        W28809  11.342  31.766   3.956  0.0150 -0.2740  0.0369
85872W        W28810  10.273  28.712   1.187 -0.1681 -0.1114 -0.1529
85873W        W28811  11.410  30.485   2.332 -0.2026 -0.1089  0.2420
85874W        W28812   9.638  29.804   1.924 -0.0640  0.0198  0.1830
85875W        W28813  10.285  32.423   3.255 -0.1045 -0.1571  0.2401
85876W        W28814   9.345  29.464   2.263  0.3515  0.2199 -0.1057
85877W        W28815   8.982  29.146  31.814 -0.0418  0.0490 -0.0487
85878W        W28816   8.343  31.173   3.750  0.1208 -0.0341  0.0820
85879W        W28817  11.211  29.776   3.740  0.0530  0.2957  0.0813
85880W        W28818   8.845  32.153   2.770 -0.1468 -0.1233 -0.1171
85881W        W28819  11.765  34.283  31.089 -0.1087  0.1864 -0.2096
85882W        W28820   8.388  31.128   1.534  0.1111 -0.2551 -0.2206
85883W        W28821   9.504  29.931   3.204  0.0415 -0.3373  0.3616
85884W        W28822  10.013  29.170   3.108  0.1583 -0.1581 -0.0440
85885W        W28823   9.148  32.019   0.684  0.3681 -0.0294  0.3816
85886W        W28824   9.584  30.416   2.261 -0.0543  0.0184  0.1905
85887W        W28825  10.144  33.567   1.077  0.0751 -0.0162  0.2129
85888W        W28826   9.296  32.658   2.003  0.0657  0.0784  0.1262
85889W        W28827   9.770  32.913   1.287  0.0172  0.0599  0.0856
85890W        W28828   7.767  30.512   0.306  0.1376 -0.1067 -0.0072
85891W        W28829  11.928  29.237   2.169  0.1815 -0.1385 -0.1686
85892W        W28830   9.495  30.939   3.168 -0.1933 -0.2939 -0.0576
85893W        W28831  12.000  30.347   2.820  0.1097 -0.1192 -0.2859
85894W        W28832   8.739  30.763   2.602 -0.1119 -0.1729 -0.1010
85895W        W28833  12.747  29.529   0.864 -0.0599  0.3337 -0.0180
85896W        W28834   9.189  30.666   3.454  0.1002  0.0890 -0.0746
85897W        W28835   8.275  29.134   2.308 -0.2899  0.0853 -0.0835
85898W        W28836   7.940  30.250   1.700 -0.0831  0.1610  0.0595
85899W        W28837  10.842  31.817   2.530  0.1564 -0.0290  0.3008
85900W        W28838   9.355  30.735  30.990 -0.1309  0.0146  0.2310
85901W        W28839   9.523  32.362   2.564 -0.2096  0.0792 -0.0157
85902W        W28840   9.923  28.993   1.418  0.1123 -0.0381 -0.0185
85903W        W28841  10.640  28.618  31.308  0.1778 -0.0681  0.1800
85904W        W28842   8.897  30.324   1.688  0.0316 -0.0943 -0.4606
85905W        W28843   9.134  30.378   4.612 -0.2319 -0.0643 -0.1452
85906W        W28844  10.429  31.819   4.360 -0.1601  0.2917 -0.0909
85907W        W28845   8.518  28.078   1.720  0.1409 -0.1104  0.0772
85908W        W28846  11.609  32.575  31.745  0.1633  0.0981 -0.0969
85909W        W28847  10.110  28.407   2.773  0.1399  0.0991 -0.0218
85910W        W28848   8.424  33.208   0.420  0.2378 -0.0787 -0.0235
85911W        W28849  10.083  31.785   1.100 -0.2716  0.1301 -0.4718
85912W        W28850  10.618  32.241   2.385 -0.0234  0.2212 -0.0311
85913W        W28851   8.882  29.249   2.459  0.0047 -0.0111  0.0757
85914W        W28852   9.900  32.584   2.281 -0.3310  0.1540 -0.0172
85915W        W28853  12.454  30.943   2.062  0.0798 -0.0265 -0.0737
85916W        W28854   8.632  28.914   0.695 -0.3619  0.0778 -0.0472
85917W        W28855   9.542  29.218   1.858 -0.2095  0.1586  0.0697
85918W        W28856   9.042  31.590   2.002 -0.1855  0.1895 -0.0600
85919W        W28857   9.830  30.488   2.928  0.2157 -0.0773 -0.1532
85920W        W28858  10.895  28.907   1.715  0.0526 -0.2378 -0.3938
85921W        W28859   9.637  33.342   0.999 -0.1578  0.0977  0.2054
85922W        W28860  10.811  28.486   2.137  0.0509  0.0880  0.2094
85923W        W28861   9.381  32.902   2.835 -0.0613 -0.0870 -0.2964
85924W        W28862  10.026  32.519   4.255 -0.2406  0.0865 -0.2385
85925W        W28863   8.665  30.207  31.082 -0.0115 -0.1196  0.3999
85926W        W28864   9.030  31.742   4.359 -0.2224 -0.0878 -0.0363
85927W        W28865   8.778  30.476   1.190 -0.0099 -0.0323 -0.0907
85928W        W28866   9.087  33.386   1.222 -0.2919 -0.1040 -0.1840
85929W        W28867  10.577  31.688   1.002  0.0835 -0.2636 -0.0752
85930W        W28868   9.081  30.477   2.382 -0.0251 -0.4690  0.1161
85931W        W28869   9.761  32.243   1.918 -0.3097 -0.0944 -0.4172
85932W        W28870   9.376  28.220   3.494 -0.0871 -0.0117 -0.4062
85933W        W28871   9.976  30.469   1.432 -0.1211  0.3020  0.0431
85934W        W28872  10.013  29.380   1.157 -0.0230  0.0850 -0.1102
85935W        W28873   9.247  30.809   4.191 -0.0912  0.0164 -0.1572
85936W        W28874   7.346  29.602   0.595 -0.0448  0.2416 -0.3038
85937W        W28875   9.346  31.327  31.135 -0.0793  0.1171  0.1406
85938W        W28876   8.655  30.760   0.625  0.0040  0.1615 -0.0540
85939W        W28877   8.627  29.045   3.373 -0.4335 -0.0246  0.0861
85940W        W28878   8.756  31.391   3.540 -0.0480  0.1715  0.1615
85941W        W28879   7.923  31.774   2.778  0.0265  0.1092 -0.0719
85942W        W28880   7.665  30.505   1.331 -0.1037 -0.0064  0.1690
85943W        W28881   9.527  31.829   0.471  0.4250 -0.2915 -0.3476
85944W        W28882   8.579  29.893   2.740  0.1000  0.1700  0.1108
85945W        W28883   7.261  27.284   0.747 -0.0742  0.1158  0.1360
85946W        W28884   8.855  30.512  31.920 -0.1021 -0.1959  0.1296
85947W        W28885   8.890  31.368   1.447  0.0853 -0.0423 -0.0338
85948W        W28886   8.789  29.021   1.532  0.3755 -0.0006 -0.1155
85949W        W28887  11.890  32.376   4.331  0.1056  0.2970  0.0789
85950W        W28888   7.892  30.562  31.796  0.0714  0.1928  0.1963
85951W        W28889  10.362  29.294   4.150  0.0167 -0.3299  0.0206
85952W        W28890  10.403  29.199   3.644  0.0712 -0.2204  0.0187
85953W        W28891   7.239  28.302   0.560 -0.4463  0.2504  0.1873
85954W        W28892  10.831  30.346   1.977 -0.1135 -0.0854 -0.1174
85955W        W28893   8.775  31.747   0.874  0.0389  0.0088 -0.1339
85956W        W28894  11.201  33.557   0.999 -0.0020  0.1142  0.0350
85957W        W28895   9.255  31.072   1.798 -0.1189 -0.1121 -0.1296
85958W        W28896   9.447  31.986   3.349 -0.2159  0.2112  0.0902
85959W        W28897   7.003  29.077   3.553  0.2828  0.0005  0.1576
85960W        W28898   9.225  30.571   1.376 -0.0017  0.0729 -0.0992
85961W        W28899   9.718  30.994   2.737 -0.1319 -0.0095  0.1093
85962W        W28900  11.159  31.642  31.656 -0.0806 -0.1401 -0.2754
85963W        W28901  10.325  30.184   1.125 -0.1298 -0.2358  0.2351
85964W        W28902   9.174  30.152   1.090 -0.0861  0.0176  0.0527
85965W        W28903   9.904  28.283   3.651  0.1043 -0.0527  0.0631
85966W        W28904   7.861  32.044   4.716 -0.0919 -0.0088  0.1068
85967W        W28905  12.646  31.605   2.081  0.0045 -0.3284  0.1463
85968W        W28906   9.408  27.712   1.900  0.2027  0.1496 -0.3708
85969W        W28907   9.498  29.230   0.079  0.2967  0.4960 -0.2644
85970W        W28908   9.913  32.087  31.364  0.1942 -0.0986 -0.2987
85971W        W28909   8.316  30.709   2.879  0.1566  0.1737 -0.0194
85972W        W28910  10.226  27.814   1.092 -0.1185  0.0054 -0.1909
85973W        W28911  10.683  30.713   2.973  0.0972 -0.1222 -0.0397
85974W        W28912   9.038  31.164   2.417  0.0614 -0.0917 -0.0211
85975W        W28913  10.116  30.561   5.189  0.2759 -0.0206 -0.0109
85976W        W28914   8.466  30.840   1.099  0.5820  0.2434  0.1183
85977W        W28915  10.280  31.820   0.645  0.3559  0.1322  0.0448
85978W        W28916  10.930  33.003   1.509 -0.1690 -0.4360 -0.1329
85979W        W28917  10.617  32.355   3.628 -0.0501  0.2147 -0.0552
85980W        W28918   9.728  32.508   2.993  0.3439 -0.0282 -0.0292
85981W        W28919  10.391  30.355   1.679 -0.0675  0.2337  0.1061
85982W        W28920   9.053  29.026   3.674 -0.0242  0.2633  0.3405
85983W        W28921   8.849  29.701   0.268  0.0583  0.1688  0.2898
85984W        W28922   8.553  30.022   0.039 -0.0148  0.2573  0.1019
85985W        W28923  10.417  30.073   2.588 -0.3476  0.4456 -0.1508
85986W        W28924   9.339  27.447   2.288  0.3050 -0.2513  0.1518
85987W        W28925  10.087  28.873   0.754  0.0671 -0.0958  0.0089
85988W        W28926   7.594  33.035   3.272  0.3462 -0.5385 -0.3156
85989W        W28927   9.946  31.224   2.313 -0.1425 -0.0792 -0.0136
85990W        W28928   8.392  31.210   6.878  0.0555 -0.2774 -0.3275
85991W        W28929   8.670  30.813   3.646  0.2721 -0.0340 -0.0341
85992W        W28930  10.804  30.150   2.950  0.1609 -0.4079 -0.0521
85993W        W28931  11.309  31.097   4.589 -0.0289 -0.2187 -0.0587
85994W        W28932   8.113  29.433   4.477 -0.1305 -0.1555  0.0544
85995W        W28933  10.702  33.514   5.446 -0.2440 -0.1396 -0.0699
85996W        W28934   9.267  29.365   7.733 -0.1390 -0.0486  0.3202
85997W        W28935   9.553  31.684   6.054  0.1961 -0.0204  0.0298
85998W        W28936  10.803  32.805   6.961 -0.0467 -0.1965 -0.1883
85999W        W28937   9.929  31.244   3.947  0.2333  0.0441 -0.1938
86000W        W28938   9.022  29.838   7.827  0.1727 -0.1006 -0.1652
86001W        W28939   8.162  31.985   6.664 -0.0990  0.0692  0.2310
86002W        W28940  10.012  29.427   5.827  0.0918  0.0565  0.2519
86003W        W28941   9.282  28.730   6.068  0.0063  0.4276  0.0501
86004W        W28942  10.158  30.497   7.243 -0.0607 -0.0008  0.0420
86005W        W28943   7.891  31.562   4.968  0.2484  0.0690 -0.0059
86006W        W28944   9.986  30.392   6.132  0.1430  0.4682 -0.1605
86007W        W28945   9.349  29.987   4.779 -0.0271 -0.3893 -0.2011
86008W        W28946  10.215  32.702   4.821 -0.0902 -0.2304 -0.1928
86009W        W28947   8.507  30.418   6.004 -0.1347 -0.0821 -0.0470
86010W        W28948  10.147  28.688   7.376 -0.1346 -0.0278 -0.2552
86011W        W28949   9.584  31.707   4.182  0.0607 -0.1237  0.0596
86012W        W28950   7.476  31.318   3.670  0.3185  0.1669 -0.0421
86013W        W28951   7.109  31.663   6.477  0.2601 -0.1253 -0.1774
86014W        W28952   8.709  30.424   5.448 -0.0256  0.0082  0.1219
86015W        W28953  10.384  31.383   7.008 -0.3312  0.2146  0.0228
86016W        W28954  10.505  31.870   5.876 -0.2452  0.2390  0.3224
86017W        W28955   7.581  31.944   5.638  0.1045  0.0001 -0.0445
86018W        W28956   9.894  32.205   5.531 -0.1879 -0.1577  0.1683
86019W        W28957  10.511  31.191   7.826 -0.3495 -0.1481  0.2861
86020W        W28958   7.514  32.302   5.293  0.2097  0.5157  0.1388
86021W        W28959   7.767  32.499   4.910  0.0746  0.0609 -0.1062
86022W        W28960   9.047  32.387   4.932 -0.3417  0.0698  0.2250
86023W        W28961  10.513  32.863   4.453 -0.2157  0.1783  0.3228
86024W        W28962  10.815  32.554   8.313 -0.2408  0.0987  0.1290
86025W        W28963   9.616  33.301   6.471  0.0286  0.1551  0.0228
86026W        W28964   9.163  32.787   3.905 -0.0345  0.0186 -0.0878
86027W        W28965   9.271  32.776   7.711 -0.0944 -0.0541 -0.1005
86028W        W28966   7.107  32.818   7.062  0.2270 -0.0712  0.0292
86029W        W28967   9.319  32.128   5.992  0.0063 -0.0673 -0.1231
86030W        W28968  10.123  30.892   5.557  0.0456 -0.0826 -0.1874
86031W        W28969   8.774  32.481   3.971  0.3082 -0.0136  0.0264
86032W        W28970  10.051  31.996   3.031  0.3217  0.0911  0.3791
86033W        W28971   6.820  30.867   7.709  0.1074 -0.0346  0.0739
86034W        W28972   6.999  31.820   5.974 -0.3338 -0.2062 -0.1412
86035W        W28973  11.982  29.404   7.449 -0.0016  0.1746  0.0387
86036W        W28974   7.899  33.460   5.278  0.1977  0.1693 -0.1611
86037W        W28975  12.112  28.769   5.056 -0.1548 -0.0915  0.1897
86038W        W28976   8.726  29.522   3.574  0.3582  0.0362  0.0173
86039W        W28977  11.033  30.262   4.346 -0.1823 -0.1677  0.1338
86040W        W28978   8.644  29.990   5.663  0.1872  0.2152  0.0970
86041W        W28979   8.905  31.147   5.797 -0.2258 -0.1026  0.2588
86042W        W28980   9.178  29.609   6.663  0.0912  0.1005 -0.1805
86043W        W28981  10.695  32.728   6.092 -0.0562 -0.0238  0.2144
86044W        W28982   9.187  31.160   4.968  0.4772 -0.1714  0.1150
86045W        W28983  10.940  29.055   6.859  0.0213  0.3825 -0.1933
86046W        W28984   9.414  31.567   7.260 -0.1038 -0.1478  0.1068
86047W        W28985   7.528  30.272   4.923  0.0802  0.2775 -0.2476
86048W        W28986  10.948  32.739   3.851  0.2132 -0.0114  0.2093
86049W        W28987  11.943  31.668   4.776 -0.1376  0.1095  0.1591
86050W        W28988  10.520  31.913   5.011 -0.0377  0.0460  0.3231
86051W        W28989   7.243  30.770   5.024 -0.1119  0.2705  0.3549
86052W        W28990   6.905  31.767   7.515  0.1483  0.0571 -0.0643
86053W        W28991   7.461  30.563   7.307  0.2632 -0.2022 -0.1703
86054W        W28992   8.529  29.279   4.029  0.0092 -0.0797  0.3194
86055W        W28993  12.212  32.239   7.799 -0.2929 -0.1100 -0.1411
86056W        W28994   6.674  32.135   6.863 -0.1881  0.1816 -0.2559
86057W        W28995  11.706  30.697   5.630  0.1144  0.1201  0.0460
86058W        W28996   9.082  31.590   3.170  0.1261 -0.3262  0.0116
86059W        W28997   9.995  31.809   5.884 -0.1995  0.1066 -0.1651
86060W        W28998  10.965  30.882   5.064 -0.1075  0.0715  0.2252
86061W        W28999  10.828  29.457   5.800  0.0591  0.2744  0.0313
86062W        W29000  10.263  30.660   6.808 -0.0534 -0.3141  0.0731
86063W        W29001   7.267  31.212   5.216  0.3476 -0.1341 -0.2855
86064W        W29002   9.569  30.428   4.922 -0.1399 -0.0880 -0.0618
86065W        W29003  10.340  32.640   7.446  0.0944  0.0833 -0.1504
86066W        W29004  10.338  31.095   3.694  0.1809  0.2505  0.0977
86067W        W29005   7.973  32.071   6.212  0.3500  0.0869 -0.2170
86068W        W29006   7.870  30.816   7.892  0.0983 -0.1480  0.0109
86069W        W29007  10.281  31.679   6.575 -0.1986  0.2276 -0.1342
86070W        W29008   7.262  32.723   3.439 -0.1829  0.1268 -0.3313
86071W        W29009   7.353  30.912   5.606 -0.0626 -0.3557  0.0713
86072W        W29010   6.883  30.461   2.929 -0.1173  0.0212  0.2477
86073W        W29011   8.180  30.532   6.454 -0.3075 -0.1643 -0.0864
86074W        W29012   8.983  30.596   5.933 -0.2588 -0.1135  0.2466
86075W        W29013  12.097  29.661   4.637 -0.3901 -0.2338 -0.2485
86076W        W29014   9.398  30.433   6.551  0.0009 -0.3581  0.2118
86077W        W29015  11.238  29.158   4.647  0.0740 -0.1590  0.1442
86078W        W29016   7.441  32.363   3.763  0.3792 -0.1140 -0.3170
86079W        W29017  11.732  32.843   4.536  0.0210  0.0200 -0.1642
86080W        W29018  11.998  30.062   4.176 -0.1275 -0.0304 -0.1311
86081W        W29019  10.908  31.466   3.951 -0.0451 -0.0015 -0.0537
86082W        W29020   6.136  31.506   6.797 -0.0817 -0.2447 -0.0142
86083W        W29021   7.765  31.084   5.135 -0.2771 -0.2915 -0.1004
86084W        W29022   7.297  31.042   8.459 -0.0507  0.0560  0.0872
86085W        W29023   8.139  30.100   6.157  0.0536  0.1635  0.1730
86086W        W29024  11.063  30.817   7.071  0.0977  0.0449 -0.0491
86087W        W29025   8.333  29.387   3.169 -0.0497 -0.1261 -0.0973
86088W        W29026   9.463  30.834   4.701  0.3492 -0.0719  0.3509
86089W        W29027   9.735  30.871   5.880 -0.0520 -0.1610  0.1385
86090W        W29028   5.981  31.086   4.387  0.1625 -0.0465  0.0228
86091W        W29029  10.104  29.840   8.311  0.0562  0.2909  0.3661
86092W        W29030  10.433  32.402   5.214  0.2324 -0.2438 -0.2551
86093W        W29031  10.019  33.028   6.511 -0.2525  0.0646  0.0827
86094W        W29032  10.991  33.105   6.211 -0.1047 -0.0502 -0.1837
86095W        W29033   8.987  30.534   6.902  0.3229  0.0884 -0.2281
86096W        W29034   7.969  29.722   4.012 -0.4307 -0.0454  0.1778
86097W        W29035   9.275  33.002   5.534 -0.5707 -0.0547  0.1492
86098W        W29036   8.715  30.524   4.928  0.1455  0.0457  0.1885
86099W        W29037   9.237  28.342   4.374 -0.2342 -0.0073  0.1076
86100W        W29038  11.635  32.381   5.332 -0.0447 -0.1935  0.1781
86101W        W29039  10.242  30.353   4.698  0.1124 -0.0806  0.0096
86102W        W29040   8.064  31.470   6.309  0.0848  0.1078  0.1580
86103W        W29041  11.443  30.088   7.698  0.2380 -0.2356 -0.0430
86104W        W29042  11.149  31.374   6.820 -0.0386  0.1810 -0.0406
86105W        W29043   9.897  31.311   5.908 -0.1263 -0.0016  0.1327
86106W        W29044   7.977  28.741   2.253  0.2509 -0.1639  0.1532
86107W        W29045   9.960  31.675   4.687 -0.1795  0.1995  0.2731
86108W        W29046   7.092  33.598   2.804 -0.0572  0.1151 -0.1149
86109W        W29047   7.915  30.208   4.024  0.1319  0.0781  0.1272
86110W        W29048   8.989  32.141   5.615 -0.0228 -0.1968  0.2654
86111W        W29049  12.409  30.063   4.722  0.2214  0.3457 -0.0927
86112W        W29050   7.507  30.320   7.751  0.1321 -0.2558  0.3958
86113W        W29051  10.780  30.458   6.758  0.0730 -0.0676  0.2050
86114W        W29052   7.546  29.434   3.585 -0.0734  0.0040 -0.0002
86115W        W29053   6.480  31.758   7.146 -0.1763 -0.0044  0.0283
86116W        W29054   9.944  30.052   5.048 -0.0311  0.0050 -0.3908
86117W        W29055  11.915  30.193   4.655  0.0016  0.1137 -0.0498
86118W        W29056   9.136  31.191   9.884  0.0836  0.0289  0.0679
86119W        W29057  10.515  30.655   4.950  0.2733 -0.2529  0.0079
86120W        W29058   9.982  30.020   3.932 -0.0593  0.3002 -0.0333
86121W        W29059   9.477  30.293   3.531 -0.0216 -0.0255  0.0103
86122W        W29060   7.757  31.202   7.582  0.0238  0.1757  0.0663
86123W        W29061  10.172  31.518   5.101  0.1181  0.1730  0.1167
86124W        W29062   8.866  31.255   6.679  0.0309  0.1243 -0.0382
86125W        W29063   9.465  29.815   4.019  0.0084 -0.0138  0.0682
86126W        W29064  11.637  31.902   3.519 -0.0000 -0.2573  0.0133
86127W        W29065   8.427  31.842   6.205  0.2393  0.2065 -0.2209
86128W        W29066   9.576  32.479   7.432 -0.1654  0.1081  0.0672
86129W        W29067   9.442  32.491   5.655 -0.4091  0.2711  0.0060
86130W        W29068   8.695  29.681   7.433  0.0708 -0.2071  0.0153
86131W        W29069   9.218  30.018   2.133  0.0671 -0.0213 -0.4419
86132W        W29070   9.469  29.838   6.315 -0.0169 -0.1006  0.0692
86133W        W29071   6.985  32.045   4.074 -0.0854  0.0966  0.2393
86134W        W29072  10.775  29.900   5.634 -0.1776 -0.2714 -0.2553
86135W        W29073   9.636  29.608   6.949  0.0684 -0.0534 -0.3164
86136W        W29074   9.509  31.250   7.999 -0.0379  0.3330 -0.1600
86137W        W29075   9.813  31.019   8.350 -0.2595  0.0619 -0.1870
86138W        W29076  10.372  29.716   3.914  0.5188  0.0027 -0.0916
86139W        W29077   9.340  30.884   6.183 -0.0818  0.0955 -0.0580
86140W        W29078   9.387  29.313   3.904 -0.1933  0.0773 -0.2753
86141W        W29079   9.355  30.764   7.223  0.0114 -0.0220  0.0689
86142W        W29080   7.306  30.807   6.788 -0.3751  0.0343  0.1295
86143W        W29081   8.087  32.349   8.037  0.0172 -0.0402  0.2149
86144W        W29082  10.330  32.661   6.800 -0.3384  0.1693  0.2332
86145W        W29083  10.252  32.371   5.845  0.2214 -0.0742 -0.1402
86146W        W29084   8.322  30.691   8.179 -0.3113  0.0762  0.2603
86147W        W29085   8.960  29.169   4.735  0.0098  0.0472 -0.2288
86148W        W29086   8.109  32.906   3.152  0.1387 -0.0416  0.2749
86149W        W29087   9.835  32.218   3.940 -0.1153  0.0372  0.2364
86150W        W29088   9.812  29.759   5.452 -0.0570 -0.0361 -0.1644
86151W        W29089   9.255  32.030   6.990  0.1648  0.0991 -0.0054
86152W        W29090   8.662  31.976   5.169  0.0334  0.1009 -0.0852
86153W        W29091   8.537  31.598   6.618 -0.4115 -0.0646  0.4363
86154W        W29092   8.023  33.423   3.129 -0.0450 -0.1245 -0.0303
86155W        W29093  10.901  30.343   4.976 -0.1108 -0.2178 -0.0700
86156W        W29094   6.834  32.593   5.901  0.0288 -0.1626  0.1351
86157W        W29095   9.502  28.717   4.108 -0.0395  0.0966 -0.0646
86158W        W29096   6.544  31.685   4.856 -0.0042  0.0540  0.0469
86159W        W29097  11.897  29.518   4.181  0.1080  0.0289 -0.0384
86160W        W29098   9.751  30.674   4.329 -0.3040  0.0147  0.2212
86161W        W29099   8.832  30.081   7.160  0.0845 -0.1057 -0.0324
86162W        W29100   9.988  31.258   7.873 -0.1015 -0.0236 -0.2603
86163W        W29101   8.118  30.817   7.445 -0.1476 -0.1564 -0.3297
86164W        W29102   8.776  30.556   8.470  0.1249 -0.1346 -0.2042
86165W        W29103   9.045  29.933   3.707  0.0421  0.2588  0.3671
86166W        W29104   9.561  32.979   7.326 -0.0367  0.2045 -0.2227
86167W        W29105   7.474  30.511   9.099  0.0362  0.2799  0.1413
86168W        W29106   6.912  31.107   5.642  0.1451  0.0427 -0.2703
86169W        W29107  10.484  29.728   6.679 -0.1619 -0.0701 -0.2044
86170W        W29108   9.684  31.630   7.638 -0.1823 -0.0853  0.1367
86171W        W29109   8.518  32.434   5.227 -0.2893  0.1772  0.0003
86172W        W29110   9.684  31.322   6.334  0.1566 -0.0664  0.0831
86173W        W29111   8.600  30.958   4.171 -0.1828  0.1898 -0.1489
86174W        W29112   8.518  32.532   5.720 -0.0869 -0.1149 -0.1370
86175W        W29113   8.815  30.098   8.181  0.1584  0.1220  0.0138
86176W        W29114   9.250  30.626   7.661 -0.0512  0.0699 -0.0350
86177W        W29115   8.620  29.961   6.191  0.0994  0.2305  0.1952
86178W        W29116   8.682  29.693   5.273 -0.2219 -0.0786 -0.4578
86179W        W29117   8.939  30.503   6.390 -0.4318  0.1399 -0.0108
86180W        W29118  10.296  31.502   6.139 -0.2387 -0.3627 -0.1488
86181W        W29119   9.866  30.766   6.559 -0.1141 -0.3718 -0.3537
86182W        W29120   7.913  31.606   7.850 -0.0713  0.1868  0.1436
86183W        W29121  10.383  30.085   6.360  0.0833 -0.1473  0.1219
86184W        W29122  10.753  32.476   4.239  0.1163 -0.2289 -0.2210
86185W        W29123  10.752  31.880   6.363 -0.0825 -0.2286  0.2416
86186W        W29124   7.708  33.383   4.037 -0.0413 -0.1303 -0.0744
86187W        W29125   7.740  32.049   7.009 -0.0399 -0.0556  0.3040
86188W        W29126   8.767  32.080   4.660 -0.2039  0.1164  0.1982
86189W        W29127  10.600  31.034   6.185 -0.1805 -0.1412  0.0607
86190W        W29128   9.085  32.413   6.737  0.1245 -0.0987 -0.0126
86191W        W29129   9.001  32.577   5.351  0.2971 -0.2528  0.0094
86192W        W29130   7.183  32.199   7.296  0.1644  0.1565  0.1618
86193W        W29131  10.869  30.082   3.439 -0.2651 -0.3081 -0.2047
86194W        W29132  10.917  31.916   4.770 -0.0441  0.2566 -0.1082
86195W        W29133   9.662  30.423   5.544  0.0438 -0.1180 -0.0025
86196W        W29134  11.125  29.977   7.354  0.0520 -0.0509  0.4686
86197W        W29135  10.267  30.633   3.481 -0.0069  0.1475  0.2433
86198W        W29136  10.272  30.351   8.312 -0.0377 -0.1642 -0.0219
86199W        W29137   8.891  30.053   6.573  0.0665 -0.2411  0.1515
86200W        W29138  10.767  32.401   4.809 -0.2787 -0.0936 -0.1775
86201W        W29139   6.931  29.441   4.845 -0.0615  0.0516 -0.0913
86202W        W29140   9.929  33.346   7.507  0.0124 -0.3287  0.0188
86203W        W29141   8.127  30.555   8.673 -0.2295  0.0938 -0.0088
86204W        W29142  11.071  28.993   5.063 -0.3087  0.0265 -0.1832
86205W        W29143   8.001  28.954   4.650 -0.2685 -0.1311  0.0641
86206W        W29144   8.761  31.474   5.405 -0.1836 -0.0602  0.0093
86207W        W29145  10.296  31.946   5.452  0.1056  0.0754 -0.1419
86208W        W29146   9.738  31.239   4.936  0.1815 -0.0353 -0.1028
86209W        W29147  10.624  30.031   4.719 -0.2751  0.0357 -0.0570
86210W        W29148   8.183  30.953   6.108 -0.1563 -0.0742  0.2653
86211W        W29149   8.630  30.923   6.198  0.1459 -0.1886 -0.5736
86212W        W29150  10.787  29.974   3.905  0.0277  0.2565  0.2246
86213W        W29151   9.674  30.810   5.195  0.3900 -0.0497  0.0659
86214W        W29152   8.775  29.389   7.902  0.1930 -0.0805 -0.0160
86215W        W29153   9.193  31.358   6.290 -0.1233 -0.3287 -0.0351
86216W        W29154  10.448  30.189   5.203 -0.0330  0.1248 -0.2427
86217W        W29155  10.326  30.087   7.431 -0.0018 -0.2869  0.0940
86218W        W29156  10.281  31.273   8.316 -0.3949 -0.3193 -0.1955
86219W        W29157   8.795  31.504   8.294 -0.1246 -0.1217 -0.3860
86220W        W29158   7.916  30.364   7.400 -0.0362 -0.1076 -0.1538
86221W        W29159  10.377  33.083   7.631 -0.3026 -0.2014  0.4620
86222W        W29160  11.120  30.534   2.686  0.0131 -0.0660  0.2421
86223W        W29161  11.349  29.874   6.889  0.1897 -0.3666  0.1941
86224W        W29162  10.398  30.131   4.231  0.0724  0.2689  0.1447
86225W        W29163  10.415  30.988   2.563  0.0972 -0.1030 -0.0110
86226W        W29164   8.199  30.434   5.627 -0.0217  0.0552 -0.1882
86227W        W29165   9.368  31.325   8.525 -0.1197  0.1883  0.2878
86228W        W29166   8.034  29.918   4.444  0.2058  0.2060  0.0131
86229W        W29167  10.752  31.465   8.413 -0.2012  0.1612  0.0231
86230W        W29168   9.627  33.327   4.231  0.0307  0.1305 -0.1332
86231W        W29169   9.448  32.247   5.170  0.0568  0.2025 -0.0083
86232W        W29170   9.953  30.134   3.365 -0.2159  0.2074  0.0452
86233W        W29171   6.984  30.260   5.166  0.1926  0.0515 -0.4529
86234W        W29172   8.502  32.392   6.744 -0.0554  0.1388  0.1590
86235W        W29173   8.350  30.273   3.091 -0.1156  0.3562  0.0098
86236W        W29174   9.026  31.202   4.428 -0.1415 -0.1591 -0.3436
86237W        W29175   8.399  31.325   5.773  0.0753 -0.2933 -0.1167
86238W        W29176  11.288  31.207   9.213 -0.2839  0.0006  0.0981
86239W        W29177  10.692  28.566   4.458  0.2067 -0.3553  0.0053
86240W        W29178  11.538  29.533   6.550  0.0587 -0.1723 -0.0350
86241W        W29179   8.144  32.793   5.914  0.0635 -0.0717  0.1263
86242W        W29180   9.517  29.996   5.791  0.0182  0.1225  0.2002
86243W        W29181   7.914  32.603   6.857  0.1366 -0.2329  0.1061
86244W        W29182   7.114  30.884   6.079 -0.0039  0.0927  0.2527
86245W        W29183   8.265  31.726   5.347  0.0836 -0.2701  0.2426
86246W        W29184   8.765  30.214   7.656  0.0130 -0.0649  0.1868
86247W        W29185  10.033  31.405   7.366 -0.0571  0.0080 -0.0865
86248W        W29186   9.175  30.630   5.166  0.0092  0.0650 -0.1199
86249W        W29187  11.541  31.091   6.696  0.0781  0.2667  0.0292
86250W        W29188  10.536  31.623   7.424  0.0907  0.0820  0.0514
86251W        W29189   8.937  31.655   6.886 -0.0279 -0.2636 -0.0457
86252W        W29190  10.022  32.864   7.137  0.1148 -0.2378  0.2879
86253W        W29191   9.970  30.767   4.790 -0.1284 -0.1177 -0.0115
86254W        W29192   8.634  30.972   4.662  0.0470 -0.0982 -0.2882
86255W        W29193   6.261  29.987   7.877  0.0842 -0.0706  0.3753
86256W        W29194   9.158  30.314   5.609 -0.0125 -0.0280 -0.0228
86257W        W29195   8.765  32.176   7.142 -0.3076 -0.1387  0.0939
86258W        W29196   9.808  29.091   4.147 -0.1904 -0.2334 -0.1399
86259W        W29197  10.416  32.688   3.977 -0.3735  0.0842  0.1716
86260W        W29198   6.808  31.273   8.006 -0.2037 -0.3730  0.0273
86261W        W29199   6.495  30.752   8.092  0.1632  0.0528  0.0087
86262W        W29200   7.826  32.447   4.391 -0.0904 -0.0557  0.1693
86263W        W29201  11.517  31.387   4.284  0.2720  0.0248 -0.1135
86264W        W29202  10.563  29.686   4.417  0.3841 -0.2569 -0.1235
86265W        W29203   9.787  32.263   6.057  0.0493 -0.3385 -0.1464
86266W        W29204   9.910  29.536   4.018  0.2935  0.0023  0.1672
86267W        W29205   7.278  32.586   5.657 -0.0742 -0.0617 -0.1597
86268W        W29206   7.113  32.536   2.616 -0.0845 -0.1243  0.1579
86269W        W29207  10.225  31.178   4.763 -0.0806 -0.1932  0.1377
86270W        W29208   8.227  32.856   3.734  0.1192  0.2304 -0.0111
86271W        W29209   9.816  32.581   8.569  0.0927 -0.3331 -0.3060
86272W        W29210  11.315  29.990   4.883 -0.2614 -0.0598  0.3458
86273W        W29211  10.318  31.408   5.623 -0.0475  0.1471  0.4192
86274W        W29212  12.511  29.163   4.973 -0.0766 -0.0365  0.0035
86275W        W29213   9.903  32.886   7.672  0.0802  0.0144 -0.0946
86276W        W29214   9.125  30.164   6.114 -0.0834  0.1078  0.0029
86277W        W29215   9.745  29.613   4.952 -0.2026  0.1375  0.1859
86278W        W29216   7.930  31.223   7.116 -0.3061 -0.0289 -0.2551
86279W        W29217  11.571  29.654   7.407  0.1257 -0.1717 -0.0276
86280W        W29218   7.704  32.967   7.643  0.2892  0.1483 -0.1037
86281W        W29219  10.730  32.614   2.647 -0.3301 -0.3305 -0.4501
86282W        W29220   8.380  30.033   5.257  0.0919 -0.1016  0.1501
86283W        W29221   8.247  31.243   5.219 -0.3029 -0.0357 -0.3097
86284W        W29222  10.779  29.302   6.285 -0.0898 -0.2790 -0.2121
86285W        W29223   8.691  32.011   3.986  0.1321  0.1081  0.2076
86286W        W29224   9.851  30.087   7.139  0.0922 -0.1208  0.2079
86287W        W29225   9.121  31.789   5.001  0.1846 -0.0038 -0.1237
86288W        W29226   8.710  30.978   5.209 -0.0128  0.1578  0.2849
86289W        W29227   9.955  32.641   5.312  0.2776 -0.2953  0.2442
86290W        W29228   8.426  29.859   3.752  0.0435 -0.2521 -0.1308
86291W        W29229  11.204  30.769   5.715 -0.2608  0.0369 -0.0721
86292W        W29230   6.694  30.604   5.880  0.1013 -0.0151 -0.0546
86293W        W29231  11.203  30.318   8.084  0.2017 -0.0517 -0.3155
86294W        W29232   7.460  31.282   6.438 -0.2240 -0.2044  0.3154
86295W        W29233  11.081  30.677   4.611  0.3437  0.1420 -0.1959
86296W        W29234   8.810  30.635   7.957 -0.1044 -0.0221 -0.1496
86297W        W29235   7.747  30.644   6.907  0.1780 -0.0685 -0.0344
86298W        W29236   8.886  30.085   5.079  0.0640  0.0204 -0.1031
86299W        W29237  11.327  31.025   7.463 -0.1878 -0.1782 -0.0191
86300W        W29238  10.221  30.845   4.300  0.0399  0.2510  0.1715
86301W        W29239   9.873  33.389   6.983  0.0808 -0.0644 -0.4299
86302W        W29240   7.238  30.001   5.561  0.1556  0.0073 -0.5738
86303W        W29241   9.904  29.724   2.932 -0.0949 -0.2441  0.0640
86304W        W29242   8.597  30.094   4.571  0.1950 -0.2234  0.0730
86305W        W29243   8.554  30.828   5.675  0.0168 -0.0695  0.0208
86306W        W29244   9.566  33.217   7.800 -0.2216 -0.0116  0.1796
86307W        W29245   8.496  28.880   5.000  0.1729  0.0956  0.0403
86308W        W29246  10.696  31.001   4.541 -0.1382  0.0131 -0.1460
86309W        W29247  10.882  30.669   6.085 -0.0337 -0.0821 -0.3386
86310W        W29248  10.790  31.968   3.844 -0.0498 -0.0100  0.0733
86311W        W29249   9.396  31.254   5.862  0.1481  0.1965  0.0956
86312W        W29250  10.790  32.123   5.493  0.2394 -0.0282 -0.1728
86313W        W29251   8.594  30.785   6.658 -0.1054 -0.1733  0.1628
86314W        W29252   9.352  33.006   6.751 -0.1040 -0.0765  0.1043
86315W        W29253  10.744  31.446   5.886 -0.2322 -0.1489 -0.2553
86316W        W29254   9.699  29.367   6.374  0.1991 -0.1710 -0.2632
86317W        W29255   7.562  29.780   4.508 -0.0775 -0.2786 -0.1842
86318W        W29256   7.677  32.403   5.903 -0.4598  0.1520  0.1769
86319W        W29257  11.200  30.381   6.320  0.0634 -0.0488  0.0442
86320W        W29258  10.541  30.607   8.781  0.1042  0.0521  0.0743
86321W        W29259   8.890  32.647   2.902  0.0992 -0.0446  0.0505
86322W        W29260  12.199  29.374   5.807  0.1661 -0.0517  0.2516
86323W        W29261   7.902  32.496   7.464  0.1080 -0.0182  0.0337
86324W        W29262   8.732  31.913   7.537  0.3161  0.0088  0.0237
86325W        W29263   6.512  31.149   3.478  0.5062 -0.0250 -0.0136
86326W        W29264   9.318  30.350   8.281 -0.0342  0.3810  0.0140
86327W        W29265   9.860  32.222   3.433 -0.1142  0.0907  0.0047
86328W        W29266  10.346  32.163   3.987  0.0410 -0.0549  0.1787
86329W        W29267  10.260  32.657   6.265 -0.1130 -0.1360  0.1944
86330W        W29268  10.855  30.420   5.489  0.2774  0.4153 -0.4819
86331W        W29269  11.630  31.890   5.256 -0.0802  0.2972  0.1731
86332W        W29270   8.063  30.963   5.601 -0.1094 -0.1745  0.1044
86333W        W29271  10.329  29.679   5.008 -0.1193 -0.1623  0.2294
86334W        W29272  10.833  29.796   5.121  0.4394 -0.0189 -0.0348
86335W        W29273   8.906  30.996   7.065 -0.0594  0.0149 -0.1035
86336W        W29274   6.525  30.325   4.301  0.2346 -0.3059  0.0554
86337W        W29275   6.897  30.984   4.675 -0.0509 -0.0500 -0.0631
86338W        W29276   7.579  31.325   4.168 -0.2786  0.1175  0.0492
86339W        W29277   9.238  30.851   8.190 -0.1302 -0.0556 -0.0283
86340W        W29278   8.351  29.091   5.865  0.1102 -0.4803  0.0935
86341W        W29279   7.829  31.435   5.500 -0.0926 -0.0201 -0.3925
86342W        W29280   7.795  30.705   4.794 -0.2172 -0.0261  0.0226
86343W        W29281  11.399  32.355   4.081  0.2334  0.0844 -0.0225
86344W        W29282   8.534  29.562   4.813 -0.2369 -0.3023 -0.1634
86345W        W29283   8.065  28.961   5.406  0.2205 -0.0028  0.2616
86346W        W29284   9.292  30.828   5.592 -0.1721 -0.4126  0.3466
86347W        W29285  11.760  31.239   4.669  0.3008 -0.1538  0.0213
86348W        W29286   8.937  29.716   4.548 -0.1169 -0.3347 -0.1054
86349W        W29287  10.125  31.793   7.785  0.0162 -0.2966 -0.0594
86350W        W29288   7.729  30.568   3.728 -0.1679  0.3667 -0.0841
86351W        W29289   9.894  31.015   6.989 -0.2856 -0.0428 -0.1220
86352W        W29290   9.232  29.887   8.539  0.1216  0.2176  0.0431
86353W        W29291   7.708  29.475   2.965 -0.3221  0.3731  0.0942
86354W        W29292  10.414  30.932   7.249 -0.2273  0.0699 -0.1038
86355W        W29293   9.279  31.381   5.417 -0.0607  0.0746 -0.1842
86356W        W29294   9.758  32.860   4.009  0.0402  0.2452 -0.2978
86357W        W29295   9.673  30.496   6.983  0.0045  0.4105  0.0715
86358W        W29296   9.404  31.671   6.627 -0.0375  0.1334 -0.0595
86359W        W29297   8.306  30.428   7.744  0.0684 -0.0589  0.1517
86360W        W29298  10.720  31.408   6.512  0.1836  0.5839 -0.1277
86361W        W29299   8.946  32.421   7.516 -0.1400 -0.2340 -0.0030
86362W        W29300  11.098  32.328   5.189  0.2744  0.2040  0.2070
86363W        W29301  11.941  29.885   5.032 -0.1568 -0.0916 -0.1866
86364W        W29302  10.140  30.952   6.110 -0.1630  0.3277 -0.4104
86365W        W29303   9.523  28.960   7.504 -0.0607  0.0335 -0.2044
86366W        W29304   7.553  30.699   8.258  0.1246 -0.0806 -0.1252
86367W        W29305  10.731  33.092   5.707 -0.0502  0.1576  0.0223
86368W        W29306   8.268  30.742   5.169 -0.2867 -0.2849 -0.2221
86369W        W29307   9.740  30.138   4.504 -0.0458  0.3223  0.1658
86370W        W29308   9.879  32.076   4.484  0.0463 -0.1739  0.3165
86371W        W29309   8.678  31.438   6.196  0.0013  0.3057 -0.2512
86372W        W29310  10.096  29.845   4.479 -0.2311  0.1542  0.1197
86373W        W29311   9.490  30.445   6.003 -0.1245 -0.1451 -0.0480
86374W        W29312   8.762  32.039   6.594  0.3600 -0.3343  0.0121
86375W        W29313  10.303  32.140   6.268 -0.2404  0.1238  0.0280
86376W        W29314   8.066  31.147   4.244 -0.1557  0.1326  0.2327
86377W        W29315  11.730  30.457   3.857  0.2014 -0.2657  0.0794
86378W        W29316   9.887  31.830   6.361  0.1069 -0.2817  0.2040
86379W        W29317  10.091  32.615   8.092  0.3076  0.0975 -0.1066
86380W        W29318   7.829  31.996   8.093  0.0827 -0.0041  0.0372
86381W        W29319   9.360  31.141   6.862  0.0229 -0.2163 -0.0433
86382W        W29320   8.264  29.632   7.116 -0.1575  0.2452  0.4572
86383W        W29321   8.569  31.818   5.708  0.0847 -0.0467  0.0874
86384W        W29322   8.495  30.292   4.058 -0.2038  0.0559 -0.1868
86385W        W29323  10.468  30.584   7.640 -0.0297  0.4655  0.2012
86386W        W29324   8.620  30.573   7.328  0.0285  0.2399 -0.0237
86387W        W29325   8.612  28.139   5.654  0.1170  0.0815  0.1765
86388W        W29326   8.096  32.603   6.406  0.0766  0.0791  0.1815
86389W        W29327  10.806  31.291   7.197 -0.2081  0.2260 -0.0275
86390W        W29328   4.390  32.954   8.742 -0.0178 -0.0701 -0.0596
86391W        W29329   8.113  29.537   8.355 -0.1543  0.0854  0.3233
86392W        W29330   9.234  29.840   9.048  0.2586  0.1561  0.0777
86393W        W29331  10.012  31.828   8.744  0.0497  0.0785 -0.1555
86394W        W29332   9.266  30.238   9.958  0.1295 -0.1155 -0.1525
86395W        W29333   9.237  32.767   8.588 -0.0901 -0.0357  0.2538
86396W        W29334   9.679  32.529  10.343 -0.0540  0.2373  0.2138
86397W        W29335  10.415  33.413  10.223  0.1172  0.2526 -0.3813
86398W        W29336   9.537  31.838   8.591  0.3375  0.3889 -0.0830
86399W        W29337   9.722  29.814  11.798  0.0199 -0.1326  0.0228
86400W        W29338   9.559  29.762   8.012 -0.0739  0.1364 -0.1556
86401W        W29339   6.783  30.032   9.232 -0.0142 -0.1566 -0.1057
86402W        W29340  10.460  30.767   9.925  0.0303  0.0184 -0.0158
86403W        W29341   7.709  29.940   8.319 -0.0720 -0.0300 -0.1538
86404W        W29342   8.828  30.090   9.298 -0.3866 -0.1002 -0.1811
86405W        W29343   8.572  31.104   7.446  0.0989  0.1343  0.0414
86406W        W29344   9.822  33.287   9.234  0.0756 -0.1865  0.2525
86407W        W29345   8.782  28.385   9.924 -0.1634  0.1951 -0.1388
86408W        W29346   7.998  31.387   8.931 -0.0094  0.0422  0.3194
86409W        W29347   7.361  31.622   7.358  0.2071 -0.1649  0.2390
86410W        W29348   9.862  32.240  10.755  0.1942  0.0449 -0.1763
86411W        W29349   8.821  30.947   9.615  0.0115 -0.3295  0.1352
86412W        W29350   9.748  30.717  10.003  0.0489 -0.0352  0.0648
86413W        W29351   8.727  30.981   9.069  0.0584  0.1458 -0.0266
86414W        W29352   7.207  30.976   8.934  0.0741  0.3162  0.0204
86415W        W29353   8.293  31.712   9.577 -0.0739 -0.0766 -0.3533
86416W        W29354   7.094  29.636   9.095  0.0338 -0.0362 -0.2313
86417W        W29355   7.446  32.134   9.300 -0.0313  0.2540 -0.1724
86418W        W29356   8.058  30.845  10.135 -0.0341  0.2524  0.3020
86419W        W29357  10.527  31.756   8.779  0.2188  0.0997  0.2214
86420W        W29358   7.168  31.321   7.738 -0.1431 -0.1530  0.1661
86421W        W29359   9.612  31.194   9.873  0.1703  0.4021 -0.0694
86422W        W29360   8.526  32.462   9.733  0.0749 -0.1436 -0.0594
86423W        W29361   8.046  32.080   8.565  0.1252 -0.2153  0.2826
86424W        W29362  10.979  31.542  10.373  0.2184  0.0896  0.4174
86425W        W29363   7.364  32.901   9.712 -0.3863  0.0364  0.1639
86426W        W29364   6.300  31.328   7.257  0.0578  0.3437  0.1395
86427W        W29365   9.027  30.922   8.681  0.3604 -0.2353  0.2413
86428W        W29366   9.120  29.563   7.154  0.2327  0.0819  0.3494
86429W        W29367  10.009  30.938   7.502  0.0599  0.0760 -0.2379
86430W        W29368  10.715  28.418   8.896  0.1481 -0.0974  0.0329
86431W        W29369   7.126  32.501   9.420  0.5133 -0.1115  0.0967
86432W        W29370   8.933  28.469   9.208 -0.0125 -0.0663  0.0619
86433W        W29371   8.691  30.084   8.704  0.0620 -0.2935 -0.0755
86434W        W29372   9.678  29.996   9.895 -0.1140  0.0335 -0.2403
86435W        W29373   7.192  29.819   8.323 -0.2487 -0.1732 -0.0607
86436W        W29374   7.619  29.450   9.180 -0.0916  0.0309  0.0706
86437W        W29375   8.812  32.802   8.947 -0.2072  0.0143  0.0684
86438W        W29376  10.790  32.021   8.328 -0.0781  0.3039 -0.0613
86439W        W29377   9.858  31.988   6.834  0.1515  0.1073  0.0411
86440W        W29378   6.253  30.726   9.684  0.2901  0.2330 -0.0823
86441W        W29379   8.912  29.109   7.445  0.0468 -0.0031 -0.0893
86442W        W29380   9.650  30.403   9.611 -0.3288  0.0876 -0.0849
86443W        W29381   7.637  31.160  10.566 -0.2272  0.1607 -0.2524
86444W        W29382  11.299   0.120   9.593  0.0041  0.1887 -0.0341
86445W        W29383   9.636  33.447   8.260 -0.0025 -0.0559  0.1680
86446W        W29384  10.256  29.616   9.260 -0.1465  0.0119  0.1402
86447W        W29385  10.075  30.329   9.937 -0.1354 -0.0297  0.1066
86448W        W29386   9.031  31.069   7.684 -0.1345 -0.3352  0.0046
86449W        W29387   8.637  31.471   7.798  0.0636 -0.1435 -0.1570
86450W        W29388  10.175  31.131  10.520  0.1021  0.0556  0.1685
86451W        W29389  10.341  31.772   8.296 -0.1880  0.1955 -0.5524
86452W        W29390   8.826  33.321   8.849  0.3149  0.1864  0.5959
86453W        W29391   7.694  32.030   7.535  0.0579 -0.2533 -0.0731
86454W        W29392   6.360  31.091   7.725 -0.2202  0.1279 -0.3670
86455W        W29393   7.336  32.006   8.288  0.0330  0.0633  0.0767
86456W        W29394   6.769  29.788   9.990  0.1925  0.3707  0.2878
86457W        W29395   8.251  31.196  10.512  0.3204 -0.1583  0.3591
86458W        W29396  10.859  29.332   9.281  0.2461  0.0579  0.0364
86459W        W29397  10.699  29.622   8.812  0.1136  0.1411  0.3184
86460W        W29398   6.847  31.400   9.554  0.0927  0.1243  0.5294
86461W        W29399  10.493  32.609   8.991  0.0657  0.0552 -0.2966
86462W        W29400  10.970  30.415   8.496 -0.1291  0.2438 -0.2678
86463W        W29401   9.512  32.457   8.935 -0.2970  0.0302  0.0805
86464W        W29402  31.060  32.505   9.836  0.0343  0.2509  0.0434
86465W        W29403   8.150  29.531   9.209 -0.1804 -0.1826 -0.0199
86466W        W29404   8.142  33.133  10.308 -0.0409  0.2054 -0.0585
86467W        W29405   7.121  28.842   7.655 -0.2531  0.2541  0.1825
86468W        W29406  10.183  30.866   8.594  0.2187  0.1512  0.3256
86469W        W29407   8.703  30.943  10.627  0.0239 -0.0890  0.1835
86470W        W29408   6.013  31.962   6.964 -0.0561 -0.0629  0.2763
86471W        W29409   8.019  33.297   8.821 -0.0852  0.1011 -0.0928
86472W        W29410  10.065  32.041  10.292  0.0751  0.0873 -0.0006
86473W        W29411   9.134  32.702  10.372 -0.1415 -0.1586 -0.0089
86474W        W29412   7.208  29.139   9.099  0.0013 -0.0257 -0.2489
86475W        W29413   7.580  29.701   8.744  0.1007 -0.1524  0.1021
86476W        W29414   7.823  32.875   8.965 -0.0528  0.4003  0.1115
86477W        W29415   8.435  30.592   9.894  0.0274 -0.2688  0.1391
86478W        W29416   9.677  28.897   8.898  0.0608  0.1385 -0.1639
86479W        W29417  10.727  33.049   8.873  0.0290  0.1912 -0.1292
86480W        W29418   9.451  31.981   9.112  0.0471  0.3391  0.1523
86481W        W29419   9.716  30.713  10.576 -0.1042  0.1134  0.1053
86482W        W29420   9.719  30.864   9.475 -0.0227 -0.0908 -0.0356
86483W        W29421   8.772  28.858   8.866 -0.1020 -0.1471  0.4902
86484W        W29422   9.899  33.760   9.581  0.0146  0.3590 -0.2999
86485W        W29423   7.674  31.251   8.120 -0.4392  0.0274 -0.0463
86486W        W29424   5.731  29.616   8.879  0.1154 -0.0658  0.1096
86487W        W29425   7.800  32.056   9.610  0.1353  0.3791 -0.1871
86488W        W29426  10.067  30.370   8.731 -0.2266 -0.0982  0.2209
86489W        W29427   7.632  30.369   8.579  0.0043  0.2785  0.1011
86490W        W29428   9.440  29.432   8.857  0.2600  0.2905  0.1847
86491W        W29429  10.991  31.314   7.960 -0.0135 -0.0476  0.2724
86492W        W29430   9.919  31.831   9.240 -0.1078 -0.3213  0.4312
86493W        W29431   9.941  31.311   8.744 -0.2310 -0.3097  0.0236
86494W        W29432   8.230  31.148   7.848 -0.1157 -0.2418  0.0603
86495W        W29433   8.145  30.213  10.075 -0.2347 -0.0261  0.0689
86496W        W29434  11.575  33.725   9.644  0.2134  0.0510  0.0400
86497W        W29435   9.733  31.320   9.305 -0.3220 -0.0030 -0.1496
86498W        W29436  11.128  32.246   8.567 -0.1615 -0.0124 -0.0131
86499W        W29437   8.654  31.974   9.028  0.1803  0.1468 -0.3632
86500W        W29438   8.987  31.696   9.204 -0.3093  0.1686 -0.1659
86501W        W29439   9.345  29.671   9.534 -0.0573 -0.1270 -0.0932
86502W        W29440   7.334  31.828   7.837  0.0445 -0.1429  0.0399
86503W        W29441   9.845  29.562   9.663 -0.0663  0.2191 -0.2258
86504W        W29442   5.931  32.319   6.579 -0.0158 -0.0680 -0.1233
86505W        W29443   9.958  29.327  10.146 -0.0060  0.1696 -0.1372
86506W        W29444  10.495  29.712   9.735  0.1265  0.0311  0.5167
86507W        W29445  10.074  32.263   8.922  0.2191 -0.4991  0.2346
86508W        W29446   9.132  30.279   8.858  0.1794 -0.2544 -0.0853
86509W        W29447   7.333  31.081   7.296  0.1853 -0.1326  0.2797
86510W        W29448   8.317  30.362  10.545 -0.3079 -0.0883  0.1135
86511W        W29449  10.786  32.847  10.029  0.0102 -0.1406  0.0523
86512W        W29450   9.024  32.571   9.761  0.0230 -0.0059  0.0578
86513W        W29451   9.538  30.985   8.845  0.2667 -0.0682 -0.1843
86514W        W29452   7.415  31.203   9.684  0.0688 -0.2203  0.0058
86515W        W29453   7.242  30.001   7.493 -0.2432  0.1107 -0.1169
86516W        W29454   9.915  28.317   9.152  0.1040  0.1416  0.0216
86517W        W29455   7.289  30.058   9.235 -0.1650  0.0216 -0.3653
86518W        W29456   7.384  31.986   6.239 -0.1936 -0.2585 -0.2159
86519W        W29457   8.505  29.439  10.492 -0.1188 -0.0124  0.0745
86520W        W29458   6.627  30.839   8.759  0.0606 -0.0212 -0.0752
86521W        W29459  10.662  31.133   9.541  0.2323 -0.0391 -0.1828
86522W        W29460   7.521  31.341   8.857 -0.4895 -0.1061  0.2380
86523W        W29461   8.904  31.427   7.359 -0.4871  0.0711  0.1183
86524W        W29462   7.610  29.852   7.786 -0.0695 -0.0749 -0.0490
86525W        W29463  11.034  29.038   9.991  0.1138  0.0464  0.1889
86526W        W29464  11.345  32.077   7.640  0.4232  0.0519  0.2789
86527W        W29465   8.888  29.307   9.726  0.1358  0.2617  0.0777
86528W        W29466  10.093  28.752  10.185  0.0237 -0.3081  0.0093
86529W        W29467   6.202  31.090   8.922  0.1423 -0.3937 -0.2351
86530W        W29468  10.915  30.306   8.991  0.0389  0.2044  0.2187
86531W        W29469   7.790  28.711   8.729 -0.5412 -0.0017 -0.1115
86532W        W29470   9.996  30.785   9.011  0.1203  0.0328  0.0697
86533W        W29471   9.076  29.391   9.215 -0.0812 -0.0827 -0.2360
86534W        W29472   6.817  31.326   9.036 -0.0867 -0.2632 -0.1725
86535W        W29473   9.467  33.432   9.581  0.3128  0.3072  0.1653
86536W        W29474   8.818  32.140  10.819  0.0168  0.2492 -0.0492
86537W        W29475   6.432  31.163   9.450 -0.1143  0.2723 -0.1990
86538W        W29476   8.999  31.692   9.943 -0.0461  0.0901  0.2691
86539W        W29477   9.626  29.237   9.301  0.0507  0.0498  0.2817
86540W        W29478   8.742  29.119   8.438 -0.0873 -0.1192 -0.3215
86541W        W29479   9.035  30.675  10.144  0.0706  0.0906 -0.0524
86542W        W29480   8.487  31.607  10.149 -0.0706 -0.0125  0.0147
86543W        W29481   7.987  30.372   9.134 -0.2511 -0.1466 -0.1460
86544W        W29482  12.168  27.009   9.939  0.0091  0.0509  0.1136
86545W        W29483  11.770  32.576   7.917  0.4240 -0.0124 -0.2709
86546W        W29484   9.249  31.973   7.596 -0.0603  0.0468  0.3283
86547W        W29485   9.284  29.235  12.154  0.3854 -0.1291  0.1214
86548W        W29486   7.172  30.631   9.554  0.2250  0.1055 -0.0483
86549W        W29487  10.138  29.913  10.145  0.1796 -0.0898 -0.0619
86550W        W29488   7.512  31.704   9.809 -0.0427  0.2560 -0.1358
86551W        W29489   6.840  31.200   8.528  0.1608  0.3011  0.5103
86552W        W29490   7.992  31.726  10.044  0.0379 -0.0471  0.2001
86553W        W29491  10.340  29.301   8.579  0.1123  0.0239 -0.2498
86554W        W29492   9.524  31.142   7.541  0.3540  0.3253  0.4489
86555W        W29493   8.185  30.895   9.026  0.1684 -0.0442  0.1497
86556W        W29494   9.834  31.573   8.291 -0.1263 -0.0762  0.2716
86557W        W29495   8.114  28.975   9.145  0.0440  0.0585  0.0924
86558W        W29496   7.662  30.874   8.759  0.0963 -0.0738 -0.5083
86559W        W29497   8.896  31.383   8.789  0.0781  0.1161  0.2043
86560W        W29498   9.313  29.359   8.289 -0.0014  0.1416 -0.0391
86561W        W29499   8.799  32.219  10.157 -0.1148  0.4015 -0.0437
86562W        W29500  10.910  32.053  10.544  0.0773 -0.2895 -0.0257
86563W        W29501   6.988  30.103   8.672 -0.0167  0.0144 -0.0973
86564W        W29502  11.013  32.268  10.098 -0.4312  0.1017 -0.2356
86565W        W29503   9.326  31.678  10.565  0.3269 -0.0362 -0.5521
86566W        W29504  10.285  31.508   9.199  0.0715  0.0726  0.0492
86567W        W29505   8.672  31.071   8.183 -0.1908 -0.2001  0.0520
86568W        W29506   8.127  30.873   9.633  0.0347 -0.1826  0.1794
86569W        W29507   9.874  31.605   9.697 -0.0253  0.3607 -0.0060
86570W        W29508  10.017  29.296   8.966 -0.1019 -0.3063 -0.0303
86571W        W29509  10.286  30.667  11.748  0.3122  0.1429 -0.2475
86572W        W29510   9.637  30.596   8.575  0.2086  0.3069  0.4160
86573W        W29511  10.649  31.248  10.115 -0.2917 -0.0080  0.1669
86574W        W29512  11.122  31.033   8.361 -0.2428 -0.1707  0.2239
86575W        W29513   9.745  32.004   7.346 -0.2702  0.1795  0.1842
86576W        W29514   8.107  29.746   9.633  0.2021  0.0281  0.0818
86577W        W29515   8.227  30.689   6.978 -0.3633  0.1127 -0.3737
86578W        W29516  10.030  32.308   7.678  0.0994  0.1248  0.0989
86579W        W29517   9.056  32.291   8.984 -0.1227  0.0629 -0.3483
86580W        W29518   8.607  30.506   8.920 -0.0156 -0.1420  0.0181
86581W        W29519   7.683  29.059  10.145 -0.1067 -0.0443 -0.1100
86582W        W29520   7.980  31.033   8.422  0.0774 -0.0282 -0.1073
86583W        W29521   8.504  30.115   9.727  0.0751 -0.2717  0.2765
86584W        W29522   7.618  30.468  10.321 -0.0813  0.1207  0.1805
86585W        W29523   9.404  28.461   8.985  0.0768 -0.3432  0.0810
86586W        W29524   6.531  31.614   8.684  0.1739 -0.2407 -0.0588
86587W        W29525   9.216  28.895   9.298  0.0682  0.0283  0.5094
86588W        W29526   9.706  34.285   9.642 -0.1650  0.4156  0.3743
86589W        W29527   7.584  30.789   9.791 -0.2233 -0.0466  0.1602
86590W        W29528   8.723  27.254  10.096 -0.1275  0.1037  0.0083
86591W        W29529   9.522  30.545   9.085 -0.0277  0.0588  0.0239
86592W        W29530   7.181  30.566   8.633  0.0771  0.0717  0.0546
86593W        W29531   8.356  30.097   8.299  0.1415 -0.0707  0.1746
86594W        W29532  11.603  32.667   9.739  0.0849 -0.0439  0.0447
86595W        W29533   6.505  31.714   9.599  0.0792 -0.2197  0.0396
86596W        W29534   8.984  31.325  10.306 -0.2703 -0.0588 -0.0949
86597W        W29535   7.635  28.390   9.107 -0.3730 -0.2979 -0.0477
86598W        W29536   8.855  32.456   8.518  0.1284  0.0080  0.0162
86599W        W29537   6.815  30.969  10.320 -0.0100 -0.3163 -0.0066
86600W        W29538   8.230  31.403   8.285  0.1705 -0.0201 -0.1374
86601W        W29539   9.214  31.521   7.770  0.0273  0.3438  0.0413
86602W        W29540   8.005  31.667   7.294  0.1139  0.1854  0.1253
86603W        W29541   9.519  32.428   9.848 -0.2167 -0.0402 -0.1841
86604W        W29542   9.307  30.244   7.367  0.1655 -0.1601  0.1084
86605W        W29543   7.259  31.460   9.270  0.0807 -0.1042  0.1764
86606W        W29544   8.231  32.111   7.156  0.2717 -0.0790  0.1156
86607W        W29545   8.176  31.306   9.858 -0.0530  0.5179  0.1293
86608W        W29546   7.144  32.882   9.072 -0.0242  0.0290 -0.0240
86609W        W29547  10.448  30.001   7.959 -0.0086 -0.0261 -0.1501
86610W        W29548  10.187  31.573  10.088 -0.1273 -0.1718  0.0430
86611W        W29549  11.037  31.470   9.666 -0.2891  0.3064  0.0618
86612W        W29550   8.437  30.463   9.391 -0.0761 -0.1408 -0.2036
86613W        W29551   8.368  30.061   7.310  0.3967 -0.2899  0.4477
86614W        W29552   9.421  32.310   8.382 -0.0384 -0.0780  0.0289
86615W        W29553   7.571  28.433   8.333 -0.1372 -0.2091  0.1991
86616W        W29554   8.695  30.164  10.211  0.1939  0.2195 -0.0093
86617W        W29555  11.733  29.014   9.375  0.1758 -0.1213 -0.0536
86618W        W29556   8.363  31.814   8.027  0.1337  0.0896  0.1372
86619W        W29557   8.992  29.892   9.787  0.0863  0.0950 -0.1854
86620W        W29558   8.154  31.842   9.024  0.6501  0.1836 -0.2124
86621W        W29559   7.514  32.467   9.836 -0.3555 -0.1521 -0.0832
86622W        W29560   8.431  32.424   8.787 -0.4365 -0.2829  0.0083
86623W        W29561   7.489  29.535   7.229 -0.4268 -0.0396  0.1690
86624W        W29562  11.523  31.943   8.522  0.3418 -0.0834  0.3690
86625W        W29563   8.362  30.064   9.102  0.1096  0.0803  0.1376
86626W        W29564   6.924  30.471   9.059 -0.0720 -0.4037  0.2716
86627W        W29565   9.594  30.110   8.837 -0.1287 -0.1477 -0.2360
86628W        W29566  10.060  31.105  10.046  0.0202  0.0392  0.1133
86629W        W29567   8.620  31.440  10.735  0.0486 -0.0525  0.1835
86630W        W29568   8.724  31.439   9.656 -0.1549  0.1596  0.2119
86631W        W29569   9.441  29.778   7.506 -0.1816 -0.0453  0.0245
86632W        W29570   8.498  28.725   9.204 -0.1137 -0.0168 -0.1475
86633W        W29571   8.965  30.580   9.262 -0.0059  0.0605  0.2362
86634W        W29572   8.016  30.374   9.616 -0.0272 -0.3171  0.1824
86635W        W29573   8.825  31.801  10.494 -0.0934 -0.3302  0.0610
86636W        W29574   7.968  29.288   8.765  0.2873  0.0664 -0.2112
86637W        W29575   8.610  32.289   7.836 -0.0855 -0.0367 -0.1338
86638W        W29576   9.479  31.636  10.070 -0.0737  0.1075 -0.1377
86639W        W29577   8.756  32.974   8.404  0.0910 -0.2966 -0.1352
86640W        W29578  10.441  30.931   9.115  0.3155  0.0448  0.2750
86641W        W29579   9.604  33.097   8.826 -0.3693  0.0879  0.0600
86642W        W29580   7.532  30.304   9.660 -0.2526 -0.2928 -0.2442
86643W        W29581  10.228  31.987   9.786 -0.2906 -0.0690 -0.1170
86644W        W29582  10.287  31.663  10.598  0.1692  0.1300  0.2323
86645W        W29583   8.540  30.345   6.813 -0.0948  0.1208  0.0006
86646W        W29584   7.692  28.916   9.338  0.2486  0.1714  0.0398
86647W        W29585   7.538  31.921   8.858 -0.1111 -0.1442  0.0022
86648W        W29586  10.371  30.171   9.119 -0.0555  0.0526 -0.1198
86649W        W29587   9.602  32.460   6.933  0.0247 -0.2510  0.0279
86650W        W29588  11.343  32.726  10.178  0.0194  0.1353  0.0490
86651W        W29589   6.079  30.639   8.783  0.2299 -0.0478  0.0157
86652W        W29590   7.142  30.731  10.834 -0.0498 -0.0048 -0.2896
86653W        W29591   8.432  31.143   8.644 -0.0909 -0.0175  0.0117
86654W        W29592  11.685  31.590   9.594  0.1568  0.1648 -0.1545
86655W        W29593   8.669  29.651   8.355 -0.1400  0.0740  0.2050
86656W        W29594   9.613  31.972   9.692  0.0984 -0.1290  0.0032
86657W        W29595  10.296  28.343  10.002  0.2615 -0.0399 -0.0904
86658W        W29596  11.198  29.392   7.149  0.0933 -0.0175 -0.0052
86659W        W29597   9.808  29.699   9.161  0.0218  0.1204 -0.1887
86660W        W29598   7.323  31.000  10.193  0.0760  0.2704 -0.1541
86661W        W29599   6.626  29.714   8.921  0.1454 -0.0751 -0.2336
86662W        W29600   8.970  31.985   8.008 -0.1357 -0.1188 -0.0876
86663W        W29601   8.283  32.562  10.188 -0.2129  0.0226  0.3132
86664W        W29602   9.144  30.565  10.638 -0.0067 -0.0978 -0.1239
86665W        W29603   9.300  30.768   9.747  0.0687  0.2177 -0.0552
86666W        W29604   8.164  31.966   7.649 -0.0429  0.1102 -0.0672
86667W        W29605   7.802  27.616   9.714  0.0049 -0.0629 -0.0129
86668W        W29606   7.239  28.917   8.151  0.1690 -0.4489  0.3194
86669W        W29607   9.430  31.842   8.109 -0.1788 -0.1811  0.3251
86670W        W29608   9.875  32.075   8.242 -0.0361  0.1740  0.0848
86671W        W29609   8.358  29.131   8.135 -0.0505 -0.2544  0.1939
86672W        W29610   5.895  32.393   5.599 -0.0792  0.0628  0.0620
86673W        W29611   7.042  29.394   7.888 -0.0171  0.1362 -0.0418
86674W        W29612   9.278  30.185   9.430  0.0618  0.0015  0.1677
86675W        W29613   7.732  31.268  10.092  0.0123 -0.1963 -0.2902
86676W        W29614   8.410  32.975   8.764  0.0426  0.1455  0.1541
86677W        W29615   7.420  29.202   8.584 -0.1997 -0.0975 -0.1992
86678W        W29616   9.238  31.027   9.269 -0.1051 -0.0114 -0.0251
86679W        W29617  10.201  32.399   9.353  0.0296  0.2712 -0.1498
86680W        W29618  11.556  30.754  10.008 -0.1410 -0.6053 -0.1395
86681W        W29619   9.341  31.468   8.994 -0.0762  0.1874  0.0041
86682W        W29620  10.131  31.129   9.499  0.1550  0.1219  0.0951
86683W        W29621   8.003  27.989   8.820  0.2448 -0.1496 -0.1356
86684W        W29622   8.922  29.414   8.768 -0.2208 -0.1700  0.1445
86685W        W29623   7.779  33.076   9.905  0.0216 -0.4629 -0.2958
86686W        W29624   8.002  32.583   9.816 -0.2785 -0.0406  0.0412
86687W        W29625   7.157  31.628   8.721 -0.4038  0.1756  0.1787
86688W        W29626   8.629  33.969  11.616 -0.0191  0.2930 -0.0840
86689W        W29627   8.434  29.630   8.806 -0.2605 -0.1073 -0.1448
86690W        W29628  10.965  31.947   7.316  0.3190  0.0401 -0.0443
86691W        W29629   9.675  32.913   9.551  0.3556 -0.0576  0.0342
86692W        W29630  10.383  33.377   9.280  0.0276 -0.0204 -0.0553
86693W        W29631   9.171  32.125   9.546 -0.0386  0.1233 -0.0124
86694W        W29632   7.950  28.167  10.529 -0.0094 -0.1504 -0.1497
86695W        W29633   7.726  30.949   9.249  0.0993 -0.0478  0.2139
86696W        W29634   8.559  31.098  10.120 -0.2141 -0.1596 -0.0810
86697W        W29635   9.315  32.241  10.555  0.0155 -0.1237  0.1916
86698W        W29636   8.035  29.342  10.302  0.3111  0.2516 -0.0293
86699W        W29637  10.564  30.091   8.604 -0.1108 -0.2055 -0.0899
86700W        W29638   8.261  32.197   9.356 -0.3448  0.0153  0.1963
86701W        W29639   9.432  31.042  10.268  0.0474  0.0752 -0.2335
86702W        W29640   8.860   0.713   1.828 -0.0624 -0.1228  0.0087
86703W        W29641  10.458  33.354  31.730 -0.1044  0.2060  0.0505
86704W        W29642  10.634   0.437   0.083  0.2117  0.0561  0.3112
86705W        W29643   7.854  33.808   0.887  0.0192  0.1221 -0.1964
86706W        W29644   9.693  31.783   3.741 -0.1542 -0.0359  0.3021
86707W        W29645  10.761   0.763   0.580  0.1186 -0.0178 -0.2033
86708W        W29646   8.760  33.076   1.006  0.2954 -0.2224  0.0237
86709W        W29647   8.258  33.342   0.889 -0.1030  0.2467  0.1217
86710W        W29648   8.808  31.983   2.173 -0.0190  0.2269  0.0197
86711W        W29649  11.186   0.544   3.188 -0.2450 -0.1601 -0.2091
86712W        W29650   8.281   0.404   1.244 -0.1668 -0.2173 -0.2513
86713W        W29651   9.518  32.507   1.610 -0.2069  0.0532 -0.0228
86714W        W29652   8.541  34.203   1.154  0.0275  0.0539  0.0126
86715W        W29653   9.747  32.939   1.895  0.2358 -0.0870  0.0736
86716W        W29654   9.443  32.371   3.711 -0.1207 -0.1177  0.3106
86717W        W29655   7.301  33.937   0.157 -0.2557  0.0911 -0.1822
86718W        W29656   8.015  34.540   1.856 -0.3808 -0.3142 -0.2983
86719W        W29657   8.855  32.980   1.578 -0.0299  0.0730  0.2714
86720W        W29658  10.301  34.133   2.492  0.5245 -0.0940 -0.0918
86721W        W29659  11.134  34.250   1.043  0.0645 -0.1863 -0.0731
86722W        W29660  10.964  34.117   4.222 -0.1715  0.0224 -0.3909
86723W        W29661   9.895  34.176   3.799  0.2748 -0.3404  0.0768
86724W        W29662   9.533  34.403   0.807  0.3103 -0.0999 -0.0040
86725W        W29663   9.657  33.271   3.740  0.1910 -0.2415  0.0242
86726W        W29664  11.574   0.262   2.009  0.1568 -0.1106  0.3024
86727W        W29665  10.799  33.485   0.667  0.0321 -0.2417  0.1374
86728W        W29666   9.719  34.155   0.403  0.0619 -0.0463  0.1593
86729W        W29667   9.690  33.484   1.478  0.0848 -0.0993 -0.2850
86730W        W29668   9.063  33.740   2.772  0.0652 -0.1222  0.0022
86731W        W29669   8.665  34.611   0.635  0.2268 -0.1976 -0.1160
86732W        W29670  10.575  34.347   3.964 -0.0393 -0.0757  0.1619
86733W        W29671   8.027  34.195   1.183 -0.1716 -0.1217 -0.2990
86734W        W29672   9.159  34.104  31.865  0.2299 -0.2230 -0.0726
86735W        W29673   8.685  34.558   1.893  0.1703  0.0837 -0.1575
86736W        W29674   8.044  33.663   2.231  0.3344  0.1367 -0.2800
86737W        W29675   8.915  33.050  31.139  0.2156 -0.0289 -0.2175
86738W        W29676  11.483  34.439  31.954 -0.1403 -0.4674 -0.0386
86739W        W29677  10.888  33.108   2.002 -0.1409 -0.1742 -0.0827
86740W        W29678  10.498  33.182   3.008  0.0187  0.0289  0.2357
86741W        W29679  10.509   0.887   1.254 -0.0277  0.2589  0.3084
86742W        W29680   9.485   0.876   2.930  0.3699  0.0490  0.0601
86743W        W29681   8.450  32.286   2.363  0.0590 -0.0308  0.2749
86744W        W29682  12.043  33.926   0.096  0.2175  0.4257  0.2358
86745W        W29683   8.596  33.384   1.440  0.2926  0.1308  0.1125
86746W        W29684  10.453  31.852   2.057 -0.5364 -0.0526 -0.1386
86747W        W29685  10.608  32.978  31.417  0.0009 -0.0281  0.0419
86748W        W29686   8.130   0.061   3.042  0.2456 -0.0827 -0.2258
86749W        W29687   8.827  33.221  31.592 -0.0447 -0.2725  0.1514
86750W        W29688   8.457  34.085   1.619 -0.1112  0.4303  0.0406
86751W        W29689   8.296  32.365   4.793  0.0890  0.0181  0.0279
86752W        W29690  11.726  34.070   3.553 -0.2266  0.1350 -0.2703
86753W        W29691   8.342  32.837  31.415  0.1793  0.4760  0.0274
86754W        W29692  11.200   0.196  31.619  0.1018 -0.0587  0.1423
86755W        W29693  10.277   0.473   0.979 -0.3300  0.4028  0.0573
86756W        W29694  11.207  32.638   2.733  0.1969  0.3277  0.0284
86757W        W29695   8.948  33.112   2.055 -0.2152  0.0788 -0.0279
86758W        W29696   7.860  33.937   0.190  0.1318 -0.0800  0.0337
86759W        W29697  10.042  34.511   0.139 -0.3451 -0.0705 -0.1198
86760W        W29698  10.440  32.857   3.445  0.0408 -0.3207 -0.1583
86761W        W29699  10.554  34.682   2.779 -0.3195  0.0104  0.0133
86762W        W29700   9.014  33.585  31.897  0.1750  0.0353 -0.0088
86763W        W29701   8.371  34.029   0.027 -0.0492 -0.1322  0.0363
86764W        W29702  10.876  32.480   1.589  0.0553  0.3977  0.0153
86765W        W29703   8.618   1.307   3.480 -0.1868  0.1839  0.0990
86766W        W29704  10.018  33.154   2.403 -0.0467  0.1981  0.1161
86767W        W29705   8.398  33.527  31.962  0.0331  0.1756  0.0068
86768W        W29706   9.799  33.064   0.589 -0.0497  0.2495 -0.2069
86769W        W29707  11.596  33.838   0.853 -0.1592 -0.0448  0.1365
86770W        W29708  10.816  34.650   1.371  0.0074  0.0569 -0.1071
86771W        W29709  10.862  31.634   0.541 -0.1638  0.0067  0.0257
86772W        W29710  10.200  34.259   0.595 -0.0256  0.0678  0.0284
86773W        W29711  10.635  32.001   1.574 -0.2163 -0.0464  0.3549
86774W        W29712  10.105  33.318   0.119  0.2871 -0.0994 -0.3931
86775W        W29713  10.234  34.031   1.192 -0.0102  0.0131 -0.0570
86776W        W29714  11.398  33.438   2.127  0.1253  0.4179  0.1448
86777W        W29715   9.465  33.272   3.178  0.0136  0.0819  0.1566
86778W        W29716  10.417  32.373   1.864  0.1224 -0.0464  0.1087
86779W        W29717  10.044   0.330   3.331  0.2488  0.0521  0.0434
86780W        W29718  11.751  33.508   0.301  0.0724  0.1748 -0.3331
86781W        W29719   9.846  33.760   2.445 -0.1028  0.0671  0.1642
86782W        W29720   8.375   1.468  31.627  0.2582  0.5779  0.2923
86783W        W29721  10.330  32.736   2.291 -0.2178  0.1818 -0.0453
86784W        W29722   8.965  33.197   3.595 -0.2644  0.0029 -0.0431
86785W        W29723  10.076  33.893   0.220 -0.1069 -0.0764  0.2557
86786W        W29724   9.470  32.905   2.344 -0.2271  0.1278 -0.1443
86787W        W29725  11.132  32.285   2.368  0.2038  0.2692 -0.0739
86788W        W29726   8.578   0.749   1.420 -0.0907  0.1221 -0.2214
86789W        W29727   8.578  34.306  31.604 -0.0313  0.0705 -0.1388
86790W        W29728  10.390  33.380   1.947 -0.1994 -0.0586 -0.0327
86791W        W29729   7.781  32.511   2.518  0.0751 -0.0415  0.2074
86792W        W29730  10.460  33.691   1.506 -0.0299  0.2669 -0.1581
86793W        W29731   9.408  33.957   2.397  0.0155  0.1874 -0.0169
86794W        W29732  11.308  33.295   1.697  0.1538  0.0688  0.1316
86795W        W29733   9.068  34.501   4.298  0.1455  0.0199 -0.0580
86796W        W29734   7.325  32.803   1.540 -0.0767 -0.0379  0.2142
86797W        W29735  11.627  33.234   2.752 -0.3085  0.0816 -0.2587
86798W        W29736   9.125  33.441   0.367  0.1483  0.2081 -0.1649
86799W        W29737   9.343   0.655   0.927  0.0387 -0.0130 -0.0945
86800W        W29738   9.722  34.251   2.634 -0.0215  0.1689 -0.0169
86801W        W29739   8.960  32.608   0.827 -0.2311 -0.2512  0.1124
86802W        W29740   9.577  33.008   0.108  0.0319 -0.2969 -0.4663
86803W        W29741   9.518  33.388   2.082  0.1113 -0.0810 -0.2654
86804W        W29742   9.640  34.593   3.013  0.0016  0.0682 -0.0351
86805W        W29743   9.032  33.463   1.740  0.3119 -0.0235 -0.0336
86806W        W29744  10.773   0.848   4.029  0.1883  0.0494 -0.1365
86807W        W29745  10.889  33.051   3.398 -0.2996 -0.2435 -0.0704
86808W        W29746  11.776  32.764   0.431  0.4492 -0.4201  0.1470
86809W        W29747   9.313  33.023   0.682 -0.1149  0.0249 -0.3351
86810W        W29748  11.314  33.889   3.372 -0.3737 -0.1312  0.2215
86811W        W29749  10.327  34.503  31.648  0.1533  0.0909  0.1437
86812W        W29750  11.406  32.350   3.229 -0.0973 -0.2863 -0.0540
86813W        W29751   8.992  32.529   2.424  0.1160  0.1122 -0.0858
86814W        W29752   8.676  34.487   2.557 -0.2498 -0.1690  0.0486
86815W        W29753   9.153  33.021   4.989  0.0053 -0.3535  0.0464
86816W        W29754  10.700  34.238   0.603  0.2203  0.3447  0.3637
86817W        W29755   8.441  33.627  31.400 -0.2637 -0.3397 -0.2970
86818W        W29756   8.185  34.390   2.696 -0.3280  0.0290 -0.0878
86819W        W29757  11.131  33.880   1.932  0.0226  0.1342  0.1999
86820W        W29758   8.531  33.513   2.386  0.1153 -0.1140  0.0720
86821W        W29759  10.790  34.088   2.371 -0.0699  0.1609  0.2854
86822W        W29760   8.619  32.831   2.315  0.4069  0.3114 -0.0293
86823W        W29761  10.392  32.322   1.217 -0.2630  0.2721  0.2041
86824W        W29762  10.967  34.113   3.766 -0.0362  0.3218  0.1022
86825W        W29763  10.576  34.119   2.904 -0.3745  0.0575  0.1590
86826W        W29764   8.314  33.618   3.546 -0.1081  0.0801  0.0915
86827W        W29765   8.710  32.717   3.542  0.2021 -0.0806  0.0598
86828W        W29766  11.473  34.667  31.281  0.2943  0.1474  0.3068
86829W        W29767  11.209  34.154   2.530 -0.0491  0.0013 -0.1206
86830W        W29768   9.856  34.053   1.504 -0.0265 -0.3818 -0.2106
86831W        W29769  10.277  34.279   1.897 -0.4478  0.2132 -0.0071
86832W        W29770   8.303  33.728   1.264 -0.1373  0.0201 -0.0489
86833W        W29771  11.130  34.626   3.967  0.2743 -0.1449 -0.0873
86834W        W29772   9.134  34.453  31.519 -0.3260 -0.0129 -0.1416
86835W        W29773  10.526  31.716   2.992 -0.1119 -0.1669  0.1519
86836W        W29774  10.052  33.726   1.811  0.1424  0.1380  0.0164
86837W        W29775   9.573  31.823   2.165 -0.0060  0.0703 -0.2764
86838W        W29776   9.070   0.014  31.901  0.0834 -0.0054  0.1871
86839W        W29777   9.094   0.513   0.145 -0.2785 -0.0261 -0.2351
86840W        W29778   9.890  32.375  31.810 -0.4986 -0.2461 -0.0013
86841W        W29779  10.421  34.348   4.462 -0.2886 -0.2423 -0.2757
86842W        W29780   9.722  31.389   0.710 -0.3310 -0.0643  0.2666
86843W        W29781  11.219  33.632   2.569  0.0649  0.0474  0.0493
86844W        W29782  11.156   0.098   1.733  0.0869  0.1942  0.0039
86845W        W29783  10.545  33.899   1.985  0.1656  0.2992  0.1798
86846W        W29784  11.476  33.668   3.848  0.2600  0.2709 -0.3465
86847W        W29785   8.741  34.231   0.287  0.2284 -0.0048  0.1752
86848W        W29786   8.510  33.165   3.482 -0.0971 -0.2132 -0.2927
86849W        W29787   8.681  33.680   0.397 -0.0694  0.2229 -0.0575
86850W        W29788  10.356  33.727   0.668 -0.0392 -0.0376 -0.0943
86851W        W29789  10.336  32.072  31.627 -0.2018  0.0191  0.1314
86852W        W29790  10.333  33.569   2.409  0.3607 -0.2620 -0.0480
86853W        W29791  11.135   0.350   1.296 -0.0809  0.0332 -0.2958
86854W        W29792  10.078   0.211   2.793  0.1287 -0.0952  0.0474
86855W        W29793   9.925  33.957   0.830  0.0775  0.0996  0.0288
86856W        W29794   8.771  33.767   3.315  0.0436  0.0594 -0.2556
86857W        W29795  11.936  33.582   3.678  0.2044  0.1402 -0.1708
86858W        W29796   8.861  33.003   0.474  0.2648  0.1790  0.2477
86859W        W29797   8.890  33.923   1.325 -0.3084 -0.2322 -0.2411
86860W        W29798  12.064  33.353   1.276 -0.3880 -0.1193  0.1245
86861W        W29799   9.247  33.726   0.940  0.1420  0.0558 -0.1475
86862W        W29800   7.785  32.683   1.356  0.0256 -0.0416 -0.1260
86863W        W29801  13.362  34.655   0.513 -0.0618 -0.3190 -0.0382
86864W        W29802   8.717   0.300   2.798  0.2954  0.0314  0.1435
86865W        W29803  10.471  32.915   1.842  0.0123 -0.0970 -0.3174
86866W        W29804   7.689   0.197   0.065 -0.2234 -0.1309  0.0493
86867W        W29805  11.076   0.038   0.933  0.1412  0.0117  0.0843
86868W        W29806   9.026  32.524   1.462  0.2758 -0.2021  0.3349
86869W        W29807   9.465   0.303   0.640 -0.0790 -0.2423  0.0086
86870W        W29808  11.655   1.769   1.527  0.0936 -0.1833  0.0346
86871W        W29809  11.601  33.817  31.900 -0.0855  0.0569  0.1299
86872W        W29810  11.077  33.916   0.609 -0.0081  0.2938 -0.4549
86873W        W29811  11.430  33.246   0.557 -0.3292 -0.0449 -0.2991
86874W        W29812   8.353  34.587   1.489 -0.0313  0.3633 -0.0953
86875W        W29813   8.854  34.039   0.783  0.1567  0.0802 -0.1565
86876W        W29814   8.051  32.866   0.456  0.1736 -0.3276  0.0273
86877W        W29815  10.954  33.127   2.881 -0.1205  0.1139  0.0434
86878W        W29816   9.596   0.365   2.831 -0.1132 -0.0115  0.2905
86879W        W29817   8.325  32.721   1.764 -0.2749 -0.1518  0.1619
86880W        W29818  10.111  32.713   0.981 -0.3024 -0.0149  0.0630
86881W        W29819   8.776  33.504   0.821  0.0393  0.0698  0.2343
86882W        W29820  11.274  34.397   2.045  0.2412  0.2324 -0.2857
86883W        W29821  10.167  33.147   3.909 -0.2138 -0.0552  0.1767
86884W        W29822   9.679  32.809   3.407  0.2307  0.1243 -0.1526
86885W        W29823   8.705   0.059   1.176 -0.3471  0.1582 -0.0640
86886W        W29824   9.388  34.198   1.363 -0.1663  0.1374  0.0199
86887W        W29825  10.872  33.556   2.240  0.4782  0.1152 -0.3306
86888W        W29826  11.392  32.819   1.267  0.1691 -0.1471  0.0802
86889W        W29827   9.741  34.575   3.510  0.0148  0.0837  0.0714
86890W        W29828   8.209  34.346   0.378  0.0391  0.0167 -0.2458
86891W        W29829   9.846  34.587   4.129  0.0482  0.1356 -0.0301
86892W        W29830   8.434  33.122   1.966 -0.1611 -0.1220 -0.1043
86893W        W29831   7.419  33.901   0.634  0.2262  0.2174 -0.3173
86894W        W29832   7.442  33.398  31.327  0.0078  0.0620  0.2024
86895W        W29833   8.996  32.289   3.518 -0.1940  0.1697  0.2397
86896W        W29834   6.501   1.251   1.111  0.2576 -0.2570 -0.0417
86897W        W29835   9.335   0.182   1.147 -0.2124  0.4688  0.1148
86898W        W29836   9.920  33.572   3.359  0.0680 -0.0697 -0.1540
86899W        W29837   9.082  34.132   3.184  0.0574  0.2292  0.2068
86900W        W29838   7.360  32.038   0.527 -0.2435  0.0202  0.0770
86901W        W29839  10.639  33.182   2.472  0.2931  0.2123 -0.2671
86902W        W29840   7.810  32.633   3.435  0.2385 -0.1906  0.0006
86903W        W29841  10.695  33.777   1.025 -0.4735 -0.3565 -0.0437
86904W        W29842  12.486  33.543   0.209 -0.1493 -0.4279 -0.1235
86905W        W29843   9.025  33.001   2.535 -0.0110  0.1446 -0.1783
86906W        W29844   9.098  33.585   2.222 -0.2291  0.2157  0.0912
86907W        W29845  11.144  34.427   0.545  0.0050 -0.0071  0.1567
86908W        W29846   8.829  32.238   1.102 -0.1331 -0.2334  0.0390
86909W        W29847   9.883  33.548   0.522 -0.1697 -0.1671 -0.0752
86910W        W29848   9.218  33.665   3.345 -0.3810 -0.1478 -0.1438
86911W        W29849   9.419  33.737  31.642 -0.2086 -0.0236  0.1750
86912W        W29850  11.593  32.359   0.171  0.0317 -0.0241 -0.2429
86913W        W29851   9.992  31.651   1.895  0.1492  0.1458  0.1147
86914W        W29852   7.894   1.430   0.682 -0.2137  0.1542  0.0879
86915W        W29853   8.899   0.482   1.133  0.0202  0.0291 -0.3802
86916W        W29854  11.149   0.224   3.569  0.0190 -0.0721 -0.2325
86917W        W29855   9.188  32.142   1.845 -0.0001 -0.0196  0.0657
86918W        W29856  10.497  32.382   0.736 -0.1415 -0.2428 -0.1935
86919W        W29857   8.693  33.536   3.854  0.0546 -0.1205 -0.0101
86920W        W29858  10.292  33.676   3.080  0.0969  0.3256  0.0629
86921W        W29859  11.542   1.024   4.546 -0.1602  0.1488 -0.3079
86922W        W29860   8.771  32.991   5.400 -0.1173  0.0719  0.1108
86923W        W29861   8.240  32.754   7.763  0.0011  0.2101 -0.1505
86924W        W29862   9.577  33.797   3.826  0.4362 -0.0872 -0.0891
86925W        W29863   9.748  32.775   5.984  0.2086  0.1382  0.0767
86926W        W29864   9.194  33.531   3.860 -0.0573  0.2520 -0.5401
86927W        W29865   7.523  31.377   6.904  0.1247 -0.1056  0.0508
86928W        W29866   9.619   0.088   5.354 -0.0228 -0.0940  0.3493
86929W        W29867   8.992   0.718   5.086  0.1312  0.0261  0.3644
86930W        W29868   8.233  33.748   6.686  0.1562 -0.2626  0.1880
86931W        W29869   9.538  32.144   6.479 -0.1625  0.1110  0.0960
86932W        W29870   8.511  33.544   7.316 -0.2063  0.1193 -0.2585
86933W        W29871  10.326  33.816   5.851  0.1114 -0.1005  0.2949
86934W        W29872   7.991   0.133   3.936  0.3799  0.0765 -0.2604
86935W        W29873   8.356  33.912   6.122  0.2954  0.2035  0.1731
86936W        W29874   9.445   0.298   5.772 -0.1922  0.0382 -0.0807
86937W        W29875  10.886  33.519   5.952  0.1483 -0.2571  0.1123
86938W        W29876   9.955   1.588   5.349 -0.1042  0.1637 -0.2212
86939W        W29877   9.974  34.030   8.612  0.3189 -0.1115 -0.0809
86940W        W29878   9.261  33.672   6.438  0.0490  0.0682 -0.2510
86941W        W29879   9.265  32.603   6.068 -0.1406  0.2069 -0.2036
86942W        W29880  10.663  33.999   7.775  0.0112  0.1782  0.2832
86943W        W29881  10.083  34.685   4.618  0.0258  0.0064 -0.0452
86944W        W29882   9.506  33.864   2.867  0.3235 -0.1675  0.1991
86945W        W29883  10.162  33.529   5.194 -0.0762 -0.2050  0.2008
86946W        W29884   8.946  32.524   4.412 -0.0144  0.0139  0.0597
86947W        W29885   8.571  33.521   6.422 -0.0469 -0.3329 -0.1526
86948W        W29886   9.214  34.598   4.725 -0.0290 -0.1496  0.1248
86949W        W29887   8.952  33.254   6.576 -0.2796  0.4402 -0.2329
86950W        W29888   7.385  34.064   5.633  0.2655 -0.0411 -0.2197
86951W        W29889   8.744  34.305   5.633 -0.1919 -0.0003 -0.0385
86952W        W29890   6.316   0.489   7.701 -0.0096 -0.1948  0.2721
86953W        W29891   7.889   0.071   6.593  0.3733  0.2833 -0.0694
86954W        W29892   9.978  34.113   3.050  0.3657 -0.2930 -0.0368
86955W        W29893  11.524   0.580   6.482 -0.1978  0.2493 -0.0894
86956W        W29894  10.661  32.590   5.621 -0.1551  0.1251 -0.0840
86957W        W29895   8.911  31.922   6.140 -0.1484 -0.0916  0.0523
86958W        W29896  11.953  34.342   4.468 -0.0414  0.0387  0.2578
86959W        W29897   9.833  34.349   6.428  0.1464  0.2307 -0.0726
86960W        W29898   8.760  32.798   6.836  0.2662  0.3455  0.2108
86961W        W29899  11.052   0.102   5.409  0.1431  0.2300  0.3381
86962W        W29900   7.737  31.491   9.384  0.0743  0.0694  0.2668
86963W        W29901  10.813  32.232   5.994  0.2993 -0.0763  0.5119
86964W        W29902  10.381   0.422   4.732  0.1626 -0.1166 -0.1174
86965W        W29903   8.332  34.612   6.400 -0.2725 -0.0877  0.3371
86966W        W29904   7.959  32.945   4.186 -0.3727  0.1068  0.2068
86967W        W29905   7.080  33.895   6.860  0.0135  0.2086 -0.1113
86968W        W29906   8.362  32.990   4.961 -0.0019  0.0355  0.1134
86969W        W29907  10.080   0.011   6.222 -0.3998  0.1181  0.1941
86970W        W29908   7.159  32.643   5.156  0.1031 -0.1042 -0.0879
86971W        W29909   9.466  33.527   5.774 -0.1866  0.1829 -0.3725
86972W        W29910   8.271  32.530   4.233 -0.0038 -0.0387  0.3595
86973W        W29911   9.431  33.855   8.476 -0.1384 -0.0951 -0.0791
86974W        W29912   7.960  33.386   6.997 -0.2374  0.0683  0.0714
86975W        W29913   8.505  33.838   4.790  0.2917  0.1112 -0.2986
86976W        W29914   8.366  33.968   3.956  0.1271  0.1318 -0.1063
86977W        W29915  10.620  33.567   6.468 -0.0363  0.0242 -0.2584
86978W        W29916  11.267   0.616   6.088 -0.1145  0.3506 -0.1692
86979W        W29917   7.102  33.233   3.247  0.0850  0.1267 -0.0843
86980W        W29918   7.952  34.439   5.209  0.4356  0.0335 -0.0021
86981W        W29919   9.731  33.819   6.119  0.0891  0.1058  0.0789
86982W        W29920   6.971  34.213   7.477 -0.3200  0.2681 -0.2429
86983W        W29921  10.258  33.705   6.808 -0.1502 -0.0807 -0.4075
86984W        W29922   7.596  33.655   4.877 -0.0951 -0.0629 -0.0354
86985W        W29923  10.747  31.631   5.382 -0.0356  0.1183 -0.0712
86986W        W29924   9.767  33.846   5.106 -0.1952 -0.2609  0.0143
86987W        W29925   9.745  33.910   4.519  0.1533  0.0272 -0.2495
86988W        W29926   9.879  33.482   2.894  0.1707  0.0568  0.1069
86989W        W29927   8.954  34.063   4.566 -0.2004 -0.0804  0.0170
86990W        W29928   8.540  33.255   5.854  0.1977  0.0735 -0.0251
86991W        W29929   7.795  33.840   3.481  0.0602  0.6303  0.0821
86992W        W29930   9.505  32.753   5.176 -0.2343 -0.2979  0.2046
86993W        W29931  10.206  33.987   6.359  0.0685  0.1022 -0.2013
86994W        W29932   8.729  32.444   6.179  0.1405  0.0494  0.1882
86995W        W29933   8.262  32.867   6.986 -0.0656 -0.0653  0.0911
86996W        W29934  10.101   0.103   7.336 -0.0217  0.2141  0.0952
86997W        W29935  10.017   1.477   4.524 -0.1406 -0.0024 -0.3606
86998W        W29936  10.086  34.280   5.908 -0.1922 -0.2545  0.1571
86999W        W29937   8.515  33.504   2.909 -0.0271  0.4667  0.0109
87000W        W29938   8.416  32.534   7.324  0.2523  0.2226  0.0715
87001W        W29939   8.099  33.547   7.548 -0.0506 -0.0993  0.1304
87002W        W29940   9.732  32.458   4.837 -0.0353 -0.3899  0.2187
87003W        W29941   8.546  32.987   6.314 -0.1988 -0.0259  0.1862
87004W        W29942   9.980  32.386   6.588 -0.1280 -0.0873 -0.0077
87005W        W29943   9.470   0.182   4.395 -0.3318 -0.0639  0.1505
87006W        W29944   9.027  32.998   4.362  0.2462  0.2398 -0.0190
87007W        W29945  10.351  33.183   6.060  0.1213 -0.0910  0.3083
87008W        W29946   8.979  32.802   6.393 -0.3395 -0.1818 -0.1509
87009W        W29947   9.522  32.504   4.318 -0.1340 -0.0466 -0.0231
87010W        W29948   9.933   0.483   6.578  0.1270 -0.3267 -0.0765
87011W        W29949  10.400  33.356   3.502  0.1888 -0.2241 -0.1282
87012W        W29950   9.619  34.578   5.976 -0.1475 -0.1751 -0.2500
87013W        W29951   7.220  33.774   3.354  0.0106  0.0056 -0.0014
87014W        W29952  10.044   0.012   5.635 -0.1453 -0.2760  0.0968
87015W        W29953   8.190  33.594   5.697 -0.1228 -0.1617 -0.2913
87016W        W29954   8.356  34.380   4.935 -0.1320  0.0258 -0.1335
87017W        W29955   8.778  32.911   7.835 -0.3002  0.0959  0.2205
87018W        W29956   8.955  33.415   6.059 -0.2750  0.0670 -0.0381
87019W        W29957   8.730  32.722   4.849  0.3356 -0.2561  0.0357
87020W        W29958   9.521  33.390   5.160 -0.2024 -0.2239  0.1735
87021W        W29959   9.169  34.019   6.790  0.0430  0.1512 -0.1684
87022W        W29960   9.537  31.837   5.564  0.1595 -0.0613  0.1517
87023W        W29961  10.112  34.243   6.818  0.2084  0.2839 -0.2304
87024W        W29962   9.152  32.720   7.169  0.2492  0.2052 -0.0879
87025W        W29963  10.043  32.959   3.135  0.2312 -0.0169 -0.2098
87026W        W29964   9.383   1.177   5.311  0.2698 -0.3609 -0.1625
87027W        W29965  10.797  33.675   8.287 -0.1723  0.0510 -0.2794
87028W        W29966  10.667   0.180   3.766  0.0021 -0.1635 -0.4363
87029W        W29967  10.554  33.474   7.459 -0.0828  0.1422 -0.2016
87030W        W29968   9.323  32.075   4.625  0.3539  0.2339  0.0058
87031W        W29969   7.448  33.497   6.958 -0.0598 -0.1228 -0.0219
87032W        W29970   9.139  34.438   5.842  0.0927  0.0821  0.1680
87033W        W29971   8.532  33.076   4.514  0.4114  0.0138  0.0875
87034W        W29972   8.665  33.014   3.982 -0.1039  0.1341 -0.0356
87035W        W29973   7.512   0.067   5.036  0.0041  0.0039 -0.2021
87036W        W29974  11.532   1.218   5.448 -0.0517 -0.2346  0.1762
87037W        W29975   7.371   0.270   7.052 -0.1275 -0.1581 -0.0778
87038W        W29976   8.862  33.951   6.273  0.1810  0.0169  0.0909
87039W        W29977   7.379  32.764   6.577 -0.1120  0.3467 -0.1491
87040W        W29978   9.571  32.703   6.424 -0.0174 -0.0970  0.2631
87041W        W29979   9.375  33.119   6.052  0.0218  0.2064  0.2363
87042W        W29980   9.016  33.244   7.116  0.5579  0.1400 -0.0677
87043W        W29981   7.809  33.627   6.425 -0.1263  0.0376 -0.1534
87044W        W29982   7.639  33.925   6.825 -0.0750 -0.3250  0.2759
87045W        W29983  11.050  33.891   5.137  0.0034  0.1276  0.0708
87046W        W29984  10.677  34.109   5.562 -0.2569 -0.2961 -0.1119
87047W        W29985  10.925  34.601   4.393  0.3639 -0.1747  0.1821
87048W        W29986  11.048  34.458   5.751 -0.0330  0.0890 -0.0724
87049W        W29987   6.177  33.816   6.810 -0.2359  0.0234  0.2118
87050W        W29988   9.911  34.635   7.813 -0.0237  0.3379  0.0017
87051W        W29989   8.077  33.918   3.100  0.0487 -0.1249 -0.5158
87052W        W29990   9.680  33.884   6.663  0.0372 -0.0788 -0.0242
87053W        W29991  10.773   0.628   5.556 -0.0007 -0.2797 -0.0011
87054W        W29992   7.868  32.962   5.158  0.1880  0.3983  0.0547
87055W        W29993   8.923  33.524   4.302  0.0535 -0.1361  0.1245
87056W        W29994   8.839  33.768   5.162  0.0427 -0.0689  0.0169
87057W        W29995   9.161  32.811   3.297 -0.1477  0.0674 -0.0293
87058W        W29996  10.239  33.725   7.647 -0.0693 -0.1500 -0.1723
87059W        W29997  10.249  32.822   5.765 -0.2048  0.2003 -0.2415
87060W        W29998   9.079  31.666   5.806 -0.1900  0.0954 -0.1982
87061W        W29999   9.857  33.335   5.975  0.0214  0.1948 -0.0493
87062W        W30000   8.295   0.065   5.615 -0.0709 -0.1940 -0.2352
87063W        W30001  11.441  33.594   7.748 -0.0312  0.2208  0.0091
87064W        W30002   8.526   0.468   5.442  0.3140  0.0159  0.2846
87065W        W30003   7.276  32.790   8.031 -0.1710 -0.1045  0.0823
87066W        W30004  10.053  32.069   5.027  0.0007  0.2825 -0.2025
87067W        W30005   9.753  33.418   4.718  0.2160 -0.1580  0.1337
87068W        W30006  10.183  33.727   4.735 -0.1127 -0.2028 -0.2304
87069W        W30007  10.887  34.653   6.779  0.4020  0.0796 -0.1071
87070W        W30008  10.111  33.477   4.300 -0.2379  0.0049  0.4482
87071W        W30009   9.343   0.388   6.641  0.6047 -0.0840 -0.1673
87072W        W30010   9.339  34.077   4.908 -0.1925  0.0891  0.0875
87073W        W30011   8.104  32.657   8.509  0.3937 -0.0883 -0.0175
87074W        W30012  11.042  33.758   7.445  0.0427 -0.0529 -0.3040
87075W        W30013   8.453  33.652   4.331  0.1287  0.2054  0.1125
87076W        W30014   8.030  34.228   5.685 -0.2142 -0.1089 -0.0099
87077W        W30015  10.618  33.650   4.973  0.0105  0.1919 -0.1498
87078W        W30016   8.690  33.774   5.746  0.1424 -0.3360 -0.1436
87079W        W30017   7.108  31.554   4.859 -0.1748  0.1275 -0.0513
87080W        W30018  11.421   0.333   5.700 -0.5597 -0.1265  0.0283
87081W        W30019   8.425  34.395   5.973  0.0731 -0.2249  0.0939
87082W        W30020  10.069  33.403   7.969 -0.1520  0.0196  0.2235
87083W        W30021   6.910  34.347   6.625  0.1057 -0.0848 -0.3084
87084W        W30022  10.266  34.032   5.354  0.2058  0.1923 -0.0632
87085W        W30023   7.433  34.460   6.509 -0.3838 -0.2736 -0.2959
87086W        W30024  10.478   1.289   4.642  0.3111  0.0104  0.1663
87087W        W30025  11.668   1.387   6.576  0.2809 -0.2131 -0.0923
87088W        W30026   9.294  33.888   4.256  0.0500 -0.0058 -0.1469
87089W        W30027   7.643  32.857   6.166  0.0057 -0.0595 -0.1024
87090W        W30028  10.000  33.025   4.479 -0.1852  0.0327  0.3047
87091W        W30029   8.030  33.978   4.838  0.0181  0.2102 -0.0325
87092W        W30030   8.712  34.568   6.844 -0.1505  0.0299 -0.1986
87093W        W30031   8.848  34.050   4.057  0.1022  0.1134  0.0024
87094W        W30032   9.916  33.741   5.569 -0.3131 -0.0022  0.1121
87095W        W30033  11.966   0.489   5.482  0.0248 -0.0891  0.1109
87096W        W30034   7.190  34.432   7.078  0.0881  0.1024  0.0573
87097W        W30035   9.019  33.434   5.542 -0.1335  0.0494 -0.0582
87098W        W30036   8.200  33.445   4.844  0.1663 -0.1107  0.1134
87099W        W30037  11.441  32.676   5.009  0.1291 -0.1601 -0.0940
87100W        W30038   9.916  33.848   7.234  0.1772  0.0722  0.2646
87101W        W30039  10.686  33.582   6.994 -0.0077  0.0158  0.1042
87102W        W30040   9.787  34.306   5.368  0.0046  0.1135  0.2736
87103W        W30041   9.460  32.913   4.620 -0.0032 -0.3322  0.1284
87104W        W30042  10.378  32.226   4.605 -0.0669 -0.3770  0.1247
87105W        W30043  10.079  33.626   3.818 -0.1271  0.1932 -0.3208
87106W        W30044   9.222   0.039   6.233  0.1058 -0.0843 -0.2742
87107W        W30045   6.850  34.423   3.925 -0.0527  0.3206 -0.0265
87108W        W30046   9.387  33.558   6.948  0.1375  0.0054  0.4925
87109W        W30047   8.117  34.374   6.876 -0.0238  0.1497  0.1316
87110W        W30048   8.805  34.435   6.325 -0.0069 -0.2634  0.0770
87111W        W30049   8.695  33.367   4.882 -0.2418  0.1328 -0.1591
87112W        W30050   7.678  33.207   6.567  0.0776 -0.1225 -0.2806
87113W        W30051   7.418  32.954   4.745 -0.1617 -0.2720 -0.0505
87114W        W30052   9.949  33.070   5.020  0.2026 -0.1652  0.1437
87115W        W30053  10.505  34.489   7.063  0.1821 -0.1077 -0.1042
87116W        W30054   8.614  33.022   7.332  0.0015 -0.0473 -0.0871
87117W        W30055   7.524  33.487   3.081 -0.3040 -0.0353 -0.0559
87118W        W30056  10.252  33.353   5.640 -0.1450 -0.1722 -0.4476
87119W        W30057   7.850  32.281   9.040 -0.2954 -0.1561 -0.4319
87120W        W30058  11.630  34.319   5.672 -0.0918  0.0448  0.1075
87121W        W30059   9.289  33.527   4.709 -0.0017  0.0186  0.3518
87122W        W30060   7.631  32.348   6.534 -0.3122  0.0020 -0.1407
87123W        W30061   8.216  33.326   4.015  0.0042  0.3123 -0.0196
87124W        W30062   9.753  33.090   5.511 -0.1233 -0.0189  0.0988
87125W        W30063   8.144  33.097   6.557 -0.0819 -0.1491  0.0770
87126W        W30064   9.635  34.465   4.903 -0.1664  0.0800 -0.0560
87127W        W30065   9.537   0.818   5.757  0.1609  0.0310 -0.2334
87128W        W30066  10.530  34.531   5.925  0.1582 -0.2398 -0.0706
87129W        W30067  12.368   1.518   4.513 -0.0679  0.1055 -0.0899
87130W        W30068   7.703  33.105   5.680  0.0940 -0.0625 -0.1028
87131W        W30069   9.226  34.444   5.392  0.0322  0.0005 -0.1020
87132W        W30070   9.175  33.891   5.871  0.0736 -0.0893 -0.0493
87133W        W30071   9.590  34.133   5.789  0.3146 -0.0404 -0.1486
87134W        W30072   8.036  33.284   6.057  0.0117 -0.2558 -0.0964
87135W        W30073  10.455  33.249   4.803  0.1037 -0.0562 -0.2966
87136W        W30074   8.673  33.830   9.081  0.2828  0.1025  0.1122
87137W        W30075  11.306  34.301   6.559  0.3941  0.3654  0.0621
87138W        W30076  10.865  34.202   7.305  0.0579 -0.0447  0.0432
87139W        W30077   7.592  32.591   9.374 -0.0678  0.1951  0.0660
87140W        W30078   9.815   1.303   7.087 -0.1874  0.3550  0.0805
87141W        W30079  13.574  34.011   9.890 -0.0265 -0.1369  0.4264
87142W        W30080   6.836  31.908   7.988  0.0567  0.0153  0.3455
87143W        W30081   8.969  34.008  10.098  0.1203  0.0250  0.0133
87144W        W30082   9.896   1.301   9.684  0.0905 -0.0227  0.3012
87145W        W30083   8.203  33.756   9.005  0.0506  0.0412 -0.0788
87146W        W30084   7.055  32.130   8.939 -0.1800 -0.0728 -0.1306
87147W        W30085   7.998  34.020   7.711 -0.0314 -0.1931 -0.1718
87148W        W30086   8.701  31.998   9.671 -0.0257 -0.4887  0.0106
87149W        W30087   8.138   0.712   7.176  0.1479  0.1807 -0.3330
87150W        W30088   6.744  32.864   9.446 -0.2188  0.0262  0.2486
87151W        W30089   8.383  34.111   9.889 -0.0310  0.0851  0.2979
87152W        W30090  11.805  33.967   9.104  0.1304  0.0257 -0.3450
87153W        W30091  11.737   5.176   9.114 -0.1862 -0.0371  0.2216
87154W        W30092   7.207  33.365  10.073  0.3164 -0.1210 -0.0579
87155W        W30093   9.652   0.195   9.538 -0.0409  0.0076 -0.1067
87156W        W30094   9.576  34.580   7.388 -0.1115  0.1520  0.1367
87157W        W30095   9.411  33.467   7.386  0.1283 -0.2032  0.0962
87158W        W30096   8.245  33.122   8.291 -0.0246  0.3996  0.0547
87159W        W30097   7.746  32.160  10.183 -0.3366  0.1583  0.1423
87160W        W30098   7.876   0.866   9.440  0.2226 -0.1807 -0.0559
87161W        W30099   8.473  33.577   8.109  0.0841  0.2035 -0.0647
87162W        W30100   8.846   0.168   9.668  0.0781  0.0678 -0.0583
87163W        W30101   8.023  31.708  10.529  0.2403  0.1145 -0.0403
87164W        W30102   6.903  33.866   8.923 -0.0504  0.2361  0.0479
87165W        W30103   8.434  33.257   7.752 -0.4115  0.0423 -0.2051
87166W        W30104  11.532  34.353   8.283 -0.0640  0.2665 -0.3298
87167W        W30105   9.819  33.553   8.743  0.2015  0.0157  0.1410
87168W        W30106   7.671   0.180  10.302 -0.0448 -0.0350 -0.0542
87169W        W30107  10.832  34.155   8.422  0.0780  0.0987  0.0308
87170W        W30108   7.153  31.943  10.080  0.1181 -0.1683  0.0177
87171W        W30109   9.277  33.350   8.575 -0.3229 -0.1062 -0.0576
87172W        W30110   9.897  32.743   9.102 -0.2813  0.2716 -0.0904
87173W        W30111   9.775  34.388   8.239 -0.1444 -0.2055 -0.1076
87174W        W30112   8.641   0.152  12.285  0.0454 -0.1130  0.1673
87175W        W30113   7.061  33.684   7.479 -0.3048  0.0750  0.1893
87176W        W30114   7.974  32.956   9.477  0.1286  0.0872  0.2718
87177W        W30115   7.089  32.270   7.797 -0.1980  0.0694  0.2298
87178W        W30116   9.249  34.625   9.359  0.1096 -0.3433  0.1634
87179W        W30117   7.367   0.166   7.988  0.0083  0.0610  0.0644
87180W        W30118   6.849  31.554  10.600  0.1126  0.0483  0.0838
87181W        W30119   8.857   0.245   6.571 -0.1311 -0.0287 -0.2398
87182W        W30120   6.376   0.096   8.045  0.0361 -0.3167 -0.0133
87183W        W30121   8.668  33.517   9.819  0.1577  0.1478  0.1554
87184W        W30122   7.605  32.365   8.399 -0.0238 -0.1133 -0.1231
87185W        W30123   7.339  34.089   9.683  0.0104  0.3116  0.0565
87186W        W30124   8.945  33.522   9.376 -0.1246 -0.0576  0.0354
87187W        W30125   7.429  33.830   7.800 -0.0680 -0.2503 -0.1706
87188W        W30126   8.731  32.407   9.327  0.0115  0.0220 -0.0942
87189W        W30127   8.556  33.938   7.649  0.0917  0.0560 -0.1650
87190W        W30128   9.816  33.927   8.148  0.3464  0.0994  0.0410
87191W        W30129   8.961  33.409   7.631 -0.1323 -0.2185  0.1916
87192W        W30130   7.811  32.823   8.155  0.0881  0.1035  0.0721
87193W        W30131   8.492  33.278   9.252  0.4510 -0.0190  0.0695
87194W        W30132   9.343  34.225   6.264 -0.1621  0.0775  0.0292
87195W        W30133   6.765  32.595   8.960 -0.2420  0.0463 -0.1895
87196W        W30134  10.045  33.730   9.122 -0.1156  0.1768  0.1345
87197W        W30135  11.239  34.020   9.855 -0.1370  0.6748  0.1058
87198W        W30136  10.459  33.875   8.718  0.0834 -0.1434 -0.0647
87199W        W30137   8.909   0.291   9.211  0.1211  0.0376  0.3545
87200W        W30138   8.098  33.117   7.362  0.2128 -0.2713 -0.2007
87201W        W30139   6.992  34.355  10.259  0.2848 -0.3099  0.0727
87202W        W30140   8.524  32.176   8.374 -0.0791 -0.0682 -0.1037
87203W        W30141   9.323  33.878   9.642 -0.0537  0.0276 -0.0443
87204W        W30142  11.325  32.698   9.316  0.2933 -0.3834  0.2504
87205W        W30143   7.614  33.551   7.418  0.3235  0.0223  0.1518
87206W        W30144   6.410  33.951   8.314  0.0742 -0.0002  0.1092
87207W        W30145   9.180  33.172   8.085 -0.5872 -0.1673 -0.0944
87208W        W30146   8.385  31.230   9.337 -0.2774  0.0427  0.0464
87209W        W30147   8.817  34.006   9.608  0.0832 -0.1358  0.0099
87210W        W30148   9.737  33.708   7.728  0.1581  0.0436 -0.1367
87211W        W30149   6.075  33.589   8.469  0.1141 -0.2627 -0.2148
87212W        W30150  11.211   1.057   9.752 -0.1555  0.2584  0.3770
87213W        W30151   6.375  31.403  10.417  0.0588 -0.0704 -0.1230
87214W        W30152   7.551   0.898   7.865  0.0453  0.0223  0.0195
87215W        W30153  13.341   1.830   9.566  0.3551  0.3323 -0.2359
87216W        W30154   7.514  33.563   9.640  0.0902 -0.4162  0.2930
87217W        W30155   7.921  33.280   7.974  0.2570 -0.0322 -0.0736
87218W        W30156   7.677  33.710   9.017  0.0646  0.1254 -0.0710
87219W        W30157   9.074   2.225   9.324  0.0964  0.2641 -0.0011
87220W        W30158  10.289  32.891   9.434  0.1221 -0.1433 -0.0678
87221W        W30159   9.787  32.900  10.029  0.0333 -0.0907 -0.0853
87222W        W30160  10.506   0.550   8.642 -0.0735  0.0663  0.0098
87223W        W30161  10.308  33.778   8.217 -0.0059  0.1243  0.0440
87224W        W30162   9.213   0.093   8.280  0.0763 -0.1822  0.0613
87225W        W30163   8.376  33.732   9.465  0.3546 -0.2991 -0.4011
87226W        W30164   9.138  34.100   9.229 -0.1283  0.0336  0.0103
87227W        W30165   7.613   0.710   7.334 -0.1169  0.1485 -0.0768
87228W        W30166   8.059   1.334   9.279  0.0996  0.0581 -0.0581
87229W        W30167   9.675   0.833   9.594  0.5877 -0.6404  0.0519
87230W        W30168   9.618   0.032  11.239 -0.1231  0.2202  0.1467
87231W        W30169   8.861   0.845   9.175 -0.2184  0.4338  0.1781
87232W        W30170   8.245  34.523  10.184  0.5065  0.1800 -0.0099
87233W        W30171  10.147  34.144   7.847  0.1657  0.6292  0.0982
87234W        W30172  10.711  34.500   9.998 -0.1118 -0.1288 -0.2150
87235W        W30173  10.025  34.514   8.729  0.1656 -0.1432 -0.0595
87236W        W30174   9.858   0.512   9.225 -0.2760 -0.0754 -0.2348
87237W        W30175   8.653   0.353  11.738 -0.0155 -0.3808 -0.0130
87238W        W30176   8.690  33.766   6.806 -0.0566 -0.0131 -0.0588
87239W        W30177   9.121  33.497   9.980 -0.0157 -0.0681 -0.3769
87240W        W30178   6.838  33.397   9.001  0.0692  0.2566 -0.1318
87241W        W30179   8.514  34.037   7.175  0.3963 -0.3962  0.3402
87242W        W30180   8.403  34.316   7.872 -0.1248  0.3460  0.1044
87243W        W30181   8.985  33.057   9.566  0.4728 -0.2795  0.2477
87244W        W30182   8.792  33.097  10.138 -0.1746  0.1980  0.1965
87245W        W30183  10.806  33.753  10.145  0.1937  0.0136 -0.0115
87246W        W30184   9.170  34.360   9.766 -0.0413 -0.4662  0.1416
87247W        W30185   9.178  31.089  10.775 -0.4452  0.3438 -0.1087
87248W        W30186   7.390   2.017  10.243  0.0275  0.0192  0.1516
87249W        W30187   8.334  32.715   9.249  0.2064 -0.0708  0.0313
87250W        W30188   7.721  33.237   8.400 -0.0865  0.3062  0.0974
87251W        W30189   8.941  33.789   7.243 -0.0151 -0.4649 -0.4892
87252W        W30190   9.719   0.053   9.073 -0.1573  0.1328 -0.2698
87253W        W30191  10.253  34.160   9.538 -0.2259 -0.0430 -0.1438
87254W        W30192   8.405   0.046   9.142 -0.3263 -0.1234  0.1294
87255W        W30193   8.980  31.935   8.603 -0.0765  0.1880  0.0411
87256W        W30194   7.395  33.678   8.396 -0.1322  0.1288 -0.0255
87257W        W30195   8.215  34.659   8.111  0.0568  0.1498 -0.1225
87258W        W30196  11.435  31.706  10.077 -0.0031 -0.2322  0.3517
87259W        W30197  11.478  33.334   9.343  0.0118  0.1362 -0.0766
87260W        W30198   7.284  33.195   7.384  0.3615 -0.1187 -0.1693
87261W        W30199  11.143   0.472   9.978  0.1165 -0.0015  0.2069
87262W        W30200  10.016  34.467  10.013  0.1015  0.2282 -0.1539
87263W        W30201   8.781   0.059   8.756 -0.1823  0.0305  0.0751
87264W        W30202  10.353  33.417   8.588  0.0421 -0.3666 -0.1363
87265W        W30203   9.348  34.392  12.054 -0.1972  0.1592  0.2968
87266W        W30204   8.298  33.974   8.296 -0.1035  0.0701  0.2519
87267W        W30205   8.716   0.366   8.267  0.0882 -0.2735 -0.3075
87268W        W30206   8.478  31.686   8.640  0.0385 -0.2402 -0.2432
87269W        W30207  10.308  34.313   8.299  0.2413 -0.0851  0.0131
87270W        W30208   6.915  34.039   8.478  0.2506 -0.1985  0.2377
87271W        W30209   8.388  34.693   9.659  0.1481  0.2040  0.4071
87272W        W30210   7.206  31.505   8.236 -0.0209 -0.0314  0.0707
87273W        W30211   9.361   0.364   8.969  0.2663 -0.2095  0.1815
87274W        W30212   9.942   1.739  10.063 -0.2070  0.0053  0.0013
87275W        W30213  12.001  32.902   9.506  0.1908  0.4029 -0.1879
87276W        W30214   6.995  33.753   9.783 -0.1278  0.1322  0.2765
87277W        W30215   6.788   0.521   9.748  0.0715 -0.2729  0.1268
87278W        W30216   9.540  33.813   9.186 -0.0040 -0.2128 -0.2773
87279W        W30217   9.538  34.260   8.719 -0.2887 -0.2545 -0.3587
87280W        W30218  11.425  33.631  10.101 -0.1403 -0.0003 -0.0298
87281W        W30219  10.012  33.099   8.369 -0.0323  0.0718  0.1940
87282W        W30220   9.093  32.479   8.049  0.1210 -0.0447  0.1714
87283W        W30221   7.693  33.556  10.164 -0.1249 -0.1184 -0.2881
87284W        W30222   6.169  33.836   7.340 -0.3880  0.0012  0.2746
87285W        W30223   7.449  34.219   8.420 -0.1504 -0.1718  0.1191
87286W        W30224   7.801  31.660   8.507 -0.0654 -0.2500 -0.0656
87287W        W30225   7.083  34.575   9.684  0.1588  0.2114  0.1381
87288W        W30226   7.326  34.081   8.869  0.0077  0.1356 -0.1883
87289W        W30227   8.176  33.449   9.821  0.0493 -0.1886 -0.0790
87290W        W30228   7.458  33.312   7.938  0.2302 -0.0623 -0.3480
87291W        W30229   9.310  33.201   9.173 -0.4316  0.0565  0.0092
87292W        W30230   7.055  30.133   9.708  0.0323 -0.1391 -0.0222
87293W        W30231  11.069  33.572   9.698 -0.1051  0.1863  0.1886
87294W        W30232   8.929  33.556   8.296  0.1124  0.3116  0.1792
87295W        W30233   7.964  33.450   9.368 -0.0957 -0.2026 -0.1317
87296W        W30234   9.342  34.202   8.164 -0.0170 -0.1230 -0.0481
87297W        W30235   9.029   0.071  11.372  0.2219 -0.0784 -0.1315
87298W        W30236   8.495  32.650   8.193  0.0896  0.0098 -0.1791
87299W        W30237   9.067  34.319   7.177  0.1175  0.2369 -0.3636
87300W        W30238  10.315   1.109   7.125  0.1577  0.0740 -0.2794
87301W        W30239   8.395  32.040  10.365  0.0344  0.1965 -0.1427
87302W        W30240   7.007  34.148   7.982  0.0713  0.0751 -0.2668
87303W        W30241   8.791  34.004   8.132 -0.1864 -0.0818 -0.2502
87304W        W30242   7.910   0.202   9.864  0.1373 -0.4809  0.1586
87305W        W30243   8.453  32.974   9.696  0.2387  0.1858 -0.2423
87306W        W30244   9.288  33.707   7.936 -0.2676  0.1744  0.0295
87307W        W30245  12.900   2.583   3.569 -0.3562 -0.1272 -0.0410
87308W        W30246  12.471   1.653   1.518 -0.1960  0.1664  0.2910
87309W        W30247  13.532   1.276  30.830  0.1818 -0.2140  0.0698
87310W        W30248  15.195   1.440  31.842 -0.1569 -0.0329 -0.0079
87311W        W30249  11.281   1.937   0.287  0.1836  0.1420  0.1855
87312W        W30250  14.025   3.291   0.589 -0.0087 -0.0829 -0.1600
87313W        W30251  11.187   0.034   2.973  0.1483 -0.0823  0.1210
87314W        W30252  12.636   3.292   2.494 -0.2828 -0.1166  0.1531
87315W        W30253  14.967   3.602   2.526 -0.2415 -0.2780  0.1667
87316W        W30254  12.900   2.007  31.362  0.0773  0.1938  0.3326
87317W        W30255  13.343   1.350   2.202 -0.4665 -0.0837 -0.0874
87318W        W30256  11.864   2.662   1.964 -0.1394 -0.0403  0.0422
87319W        W30257  13.553  34.379   2.607  0.2199  0.1295  0.0127
87320W        W30258  10.283  34.572   3.265  0.1042  0.0825 -0.0225
87321W        W30259  13.983   2.005   2.770  0.1242  0.0735  0.2917
87322W        W30260  11.576   1.903   0.691 -0.2581  0.1319 -0.1103
87323W        W30261  14.071   1.552   3.258  0.0450  0.0377  0.1148
87324W        W30262  11.095   0.489   0.219 -0.2059 -0.0932  0.2541
87325W        W30263  13.032   2.811   1.183  0.4705 -0.4217  0.1710
87326W        W30264  12.833   0.222   0.624 -0.0449  0.0568  0.1559
87327W        W30265  12.655  34.155   2.687  0.2786  0.0315  0.0438
87328W        W30266  12.527   3.422   0.448  0.0876 -0.1355  0.0571
87329W        W30267  10.298   1.619  30.823  0.2654  0.0397  0.0216
87330W        W30268  11.858   0.912   1.442 -0.1337 -0.3387 -0.1237
87331W        W30269  12.873   1.347   3.186 -0.1891  0.1433 -0.0082
87332W        W30270  14.730  34.408   1.656  0.1070 -0.3112  0.0419
87333W        W30271  14.730   2.134   0.349  0.1879 -0.0066 -0.0423
87334W        W30272  12.293   2.939   1.598  0.1891  0.3349 -0.0854
87335W        W30273  13.046   4.087   2.880  0.0104  0.0812  0.3887
87336W        W30274  13.677   1.684   1.266  0.3857  0.2538 -0.1591
87337W        W30275  10.266   4.218   1.754  0.1856 -0.0877  0.1022
87338W        W30276  10.255   2.709   0.938  0.1949  0.0888  0.1262
87339W        W30277  11.814   2.360   0.810  0.0222 -0.2452 -0.1289
87340W        W30278  15.164   3.471   1.282  0.1189  0.2806 -0.0943
87341W        W30279  15.181   2.773   2.289 -0.2201 -0.0985  0.2182
87342W        W30280  12.110   4.056   2.660  0.1362  0.0835  0.1212
87343W        W30281  10.843   2.529   0.928 -0.3745  0.2972 -0.0939
87344W        W30282  13.467   4.078   2.638 -0.0350  0.0216 -0.0175
87345W        W30283  11.466   4.421   3.814 -0.0437  0.1185  0.1729
87346W        W30284  12.569   1.431   2.792 -0.1705  0.2047  0.1356
87347W        W30285  12.329   0.826   1.079 -0.0479  0.3194  0.0541
87348W        W30286  11.088   4.431  31.786  0.0210 -0.1810  0.2664
87349W        W30287  13.642   3.105  31.591 -0.1070 -0.0455 -0.0388
87350W        W30288  12.679   1.316   3.771 -0.1914 -0.0212 -0.2388
87351W        W30289  12.331   4.744   1.866  0.0329  0.1854 -0.0658
87352W        W30290  15.439   1.505   2.206 -0.0065  0.0656 -0.0002
87353W        W30291  11.503   3.728   0.028  0.1796  0.0741 -0.4543
87354W        W30292  14.196   1.050  31.586 -0.2459 -0.0511  0.1386
87355W        W30293  13.441   0.334   0.806 -0.0870  0.1835  0.1305
87356W        W30294  15.171   0.840   0.774 -0.2561 -0.2507  0.1009
87357W        W30295  13.391  34.617   1.022 -0.1819  0.1980 -0.0933
87358W        W30296  11.696   3.017   1.489 -0.2672 -0.0112  0.2841
87359W        W30297  13.990  34.658   2.339  0.3533 -0.2864  0.4439
87360W        W30298  14.537   2.308   1.501  0.0631  0.1190 -0.1004
87361W        W30299  13.210   1.373   1.329 -0.0164 -0.1081  0.1923
87362W        W30300  15.376   2.117   1.929 -0.1516  0.0718 -0.2167
87363W        W30301  12.731   3.767   3.134 -0.0196 -0.1314 -0.2291
87364W        W30302  11.837   2.817   0.487 -0.1596 -0.1511 -0.2191
87365W        W30303  14.478   3.197   0.781 -0.2506 -0.1407 -0.2545
87366W        W30304  14.681   2.897   1.948 -0.2274  0.2558  0.0481
87367W        W30305  14.569   2.502  31.786 -0.2090  0.3660 -0.0386
87368W        W30306  11.025   2.397   0.176 -0.0967  0.0521  0.2236
87369W        W30307  10.953   1.718   2.580 -0.0252  0.0782 -0.0370
87370W        W30308  13.903   1.034   3.173 -0.1177  0.2344 -0.1790
87371W        W30309  11.914   0.074   1.677  0.2411  0.2599  0.1317
87372W        W30310  14.504   2.353   2.057  0.0710 -0.0709  0.1467
87373W        W30311  12.300   2.972   2.846 -0.1372  0.1501 -0.1611
87374W        W30312  14.271   0.884   1.300  0.1433  0.1082  0.2108
87375W        W30313  11.971   1.645   1.872 -0.2826 -0.1414 -0.0221
87376W        W30314  13.969   2.215   2.229 -0.1359 -0.0841  0.2008
87377W        W30315  14.720   1.896   1.258  0.0852  0.0065 -0.0974
87378W        W30316  15.295  34.114   2.408 -0.1938 -0.0414 -0.0627
87379W        W30317  15.401   0.453   2.070 -0.1225 -0.0233 -0.0956
87380W        W30318  12.643   1.026   0.694 -0.0870 -0.1986 -0.0972
87381W        W30319  13.624   2.171  31.773 -0.0007  0.0996 -0.0926
87382W        W30320  14.987   2.558   2.766  0.0584 -0.0068  0.1933
87383W        W30321  14.173   1.909   0.489  0.0086 -0.0632  0.0129
87384W        W30322  11.291   2.766   2.675  0.2797 -0.1608 -0.0026
87385W        W30323  13.592   3.162   2.850 -0.1281  0.1604 -0.0520
87386W        W30324  12.085   4.359   2.008  0.2260 -0.3429 -0.0960
87387W        W30325  10.909   3.637   0.278  0.1208  0.1351 -0.0716
87388W        W30326  11.977   2.853   1.147  0.3062  0.3724 -0.0320
87389W        W30327  11.229   3.340  31.845  0.0617  0.0655 -0.0519
87390W        W30328  10.294   0.833   2.496 -0.1471  0.4099  0.0130
87391W        W30329  11.829   2.130   1.869 -0.0161 -0.3674 -0.1104
87392W        W30330  13.357  34.096   0.313  0.0378 -0.1923  0.2638
87393W        W30331  12.581   0.900   2.094 -0.1680  0.1122  0.1375
87394W        W30332  15.032   0.347   2.501  0.0224 -0.2041  0.0957
87395W        W30333  12.141   1.963  31.826 -0.1461  0.0434 -0.3557
87396W        W30334  15.325   3.804   2.207 -0.4479 -0.0630 -0.1469
87397W        W30335  13.887   1.305   2.194 -0.0701 -0.1459 -0.3148
87398W        W30336  13.901   2.167   0.914 -0.2343 -0.0951  0.0075
87399W        W30337  11.395   1.576   2.089  0.3037 -0.1344  0.1515
87400W        W30338  11.052   1.643   0.750 -0.1239  0.1563  0.2747
87401W        W30339  11.967   1.852   2.372  0.2955  0.4455  0.2077
87402W        W30340  11.822   0.327   2.430  0.1732  0.0156 -0.0751
87403W        W30341  12.530   2.135   1.468 -0.0131 -0.1448  0.1137
87404W        W30342  11.378   0.979   1.394  0.0680  0.0894  0.2360
87405W        W30343  13.616   1.696   3.002  0.0292  0.1172  0.1179
87406W        W30344  12.660   2.829   0.737  0.0792  0.1307 -0.4120
87407W        W30345  10.989   2.988   0.976  0.0848 -0.1641  0.2956
87408W        W30346  13.628   1.365   2.625 -0.3441 -0.1148 -0.2507
87409W        W30347  12.793   4.599  31.047  0.5151 -0.2934  0.0298
87410W        W30348  14.413   3.175   2.362  0.1115  0.1615 -0.4436
87411W        W30349  14.574   2.775   1.100 -0.2634  0.0783  0.1990
87412W        W30350  13.209  34.625   3.381  0.5749 -0.1215  0.1112
87413W        W30351  11.723   0.998  31.513  0.2656 -0.1710  0.1101
87414W        W30352  12.034   3.323   0.620 -0.1381 -0.2161  0.0346
87415W        W30353  12.204   2.239   1.061 -0.1843 -0.0755  0.0913
87416W        W30354  10.728   0.355   1.076 -0.0326  0.0964  0.0203
87417W        W30355  13.169   4.053   1.553  0.0649  0.0776 -0.0075
87418W        W30356  13.410   1.859   0.156 -0.1199 -0.3555 -0.0577
87419W        W30357  13.238   3.482   3.216  0.0576 -0.1715  0.5145
87420W        W30358  13.277   0.177   3.920  0.1524 -0.0516 -0.3900
87421W        W30359  13.742   2.810   0.379  0.3881 -0.0842  0.1010
87422W        W30360  13.319   0.965   0.960 -0.3017 -0.3124 -0.0878
87423W        W30361  10.145   0.137   0.613 -0.1867 -0.1313 -0.1490
87424W        W30362  12.352   2.478   1.863  0.0546  0.3779 -0.2508
87425W        W30363  10.890   3.300  31.514 -0.0471  0.1078 -0.0776
87426W        W30364  10.701   2.627   0.470 -0.0024  0.0542 -0.2753
87427W        W30365  12.013   3.881   1.249  0.0168  0.3682 -0.1598
87428W        W30366  14.318   0.400   0.391 -0.1342 -0.2007 -0.0612
87429W        W30367  10.911   3.179   2.799  0.1085 -0.0595  0.0509
87430W        W30368  12.787   0.858   4.026 -0.0355 -0.0608  0.0417
87431W        W30369  12.027   0.018   0.674  0.0933 -0.0993 -0.1494
87432W        W30370  12.818   3.168   1.431  0.1355  0.0659 -0.2122
87433W        W30371  14.283  34.578   0.524 -0.1201 -0.1528  0.1901
87434W        W30372  14.322   1.381   0.076  0.2274 -0.2640  0.0783
87435W        W30373  13.683   3.646   2.831  0.1721  0.0304  0.2290
87436W        W30374  13.682   1.124   1.285  0.2863  0.1661 -0.1788
87437W        W30375  12.577   0.587   0.177  0.1172 -0.3438 -0.0308
87438W        W30376  13.296   0.934  31.927  0.0079 -0.0224 -0.1436
87439W        W30377  11.819   2.605   2.849 -0.0554 -0.2461 -0.2678
87440W        W30378  14.213   2.732   0.630 -0.0910  0.2907 -0.2299
87441W        W30379  13.589   2.655   0.839 -0.2656  0.0997 -0.0993
87442W        W30380  11.878   0.930   0.005  0.0921 -0.2086 -0.1498
87443W        W30381  13.781   3.543   1.228 -0.0418  0.0187  0.0969
87444W        W30382  11.165   2.435   1.294  0.0023 -0.0052 -0.0163
87445W        W30383  13.795   1.964   4.710 -0.0034  0.0839  0.0401
87446W        W30384  12.752   2.378   1.090 -0.1351 -0.0575 -0.1816
87447W        W30385  14.250   1.122   1.747  0.1236  0.1991  0.0446
87448W        W30386  12.802   2.483   0.254 -0.1782  0.2671  0.0977
87449W        W30387  13.781   0.584   1.180  0.0773 -0.1050 -0.1407
87450W        W30388   8.949   3.170  31.254 -0.1653  0.1150  0.1007
87451W        W30389  14.725  34.495   3.280 -0.2264  0.0304  0.1771
87452W        W30390  14.731   1.816   0.734  0.0840  0.1154  0.2496
87453W        W30391  12.988  33.745   2.137 -0.1849 -0.1976  0.0957
87454W        W30392  15.395   2.026   4.334 -0.0739  0.0409  0.1852
87455W        W30393  15.158   1.215  31.399  0.3213 -0.0041 -0.0394
87456W        W30394  14.374   1.897   1.953 -0.0936 -0.0990 -0.2558
87457W        W30395  12.827   3.043   0.369 -0.1942  0.1245  0.2238
87458W        W30396  14.382   1.118   3.188 -0.2835  0.0945  0.1160
87459W        W30397  11.879   3.031   2.451  0.3386  0.2491 -0.0312
87460W        W30398  12.147   3.444   2.456  0.1570 -0.1392  0.0321
87461W        W30399  13.628   2.201   3.044  0.0480  0.2272  0.0482
87462W        W30400  14.922   1.995  31.784 -0.0027  0.1876  0.0068
87463W        W30401  12.559   0.353   3.744 -0.1998 -0.0286  0.0889
87464W        W30402  13.264   0.389   1.298 -0.0649  0.0598 -0.0402
87465W        W30403  10.358   3.815   0.052 -0.1348 -0.0558  0.4027
87466W        W30404  12.176   2.397   0.329  0.2797 -0.3014  0.2443
87467W        W30405  12.277   1.354   0.696 -0.1620  0.0013 -0.2407
87468W        W30406  13.412   2.392   2.359 -0.0564  0.2827 -0.0244
87469W        W30407  10.491   2.204   1.132 -0.1119  0.0731 -0.3104
87470W        W30408  13.796   2.519   2.692  0.1720  0.0132 -0.1266
87471W        W30409  13.048   2.931  31.729 -0.0131 -0.2937  0.0878
87472W        W30410  15.803   0.292   2.281 -0.0037  0.0016  0.0636
87473W        W30411  10.996   4.099   1.272 -0.2271 -0.1479  0.3248
87474W        W30412  12.279   2.442  31.626  0.3442 -0.3372 -0.2526
87475W        W30413  10.962   0.823   1.128 -0.2484  0.2696  0.0909
87476W        W30414  14.389  34.096   1.262 -0.2098  0.1957 -0.0193
87477W        W30415  15.813   2.372  31.704  0.0126 -0.0867  0.0026
87478W        W30416  12.812   0.086   2.601  0.1921 -0.1273 -0.0427
87479W        W30417  14.735   1.478  31.643 -0.2092 -0.2417  0.1703
87480W        W30418  10.603   3.068   2.210  0.0705  0.2832 -0.0792
87481W        W30419  13.981   0.500   3.205 -0.0163  0.0186  0.0098
87482W        W30420  15.306   1.042   0.226  0.0893 -0.0300  0.1164
87483W        W30421  12.759   2.221   1.948  0.2377 -0.5467 -0.1022
87484W        W30422  13.890   0.378   4.747  0.1055 -0.0622  0.0880
87485W        W30423  11.495   0.729   0.501  0.2693  0.1012 -0.1133
87486W        W30424  14.521   1.519   1.631 -0.0380 -0.0374 -0.1107
87487W        W30425  12.824   1.245   2.371  0.1190  0.2278 -0.0507
87488W        W30426  11.341   3.922   0.524  0.2348  0.2766 -0.1601
87489W        W30427  12.368   1.930   1.903  0.0323 -0.0730 -0.0852
87490W        W30428  12.405   1.782  31.366 -0.2003  0.1475  0.1619
87491W        W30429  12.054   3.545   0.192  0.1062  0.4092 -0.1579
87492W        W30430  14.043   1.610   3.781  0.0721 -0.1737  0.1627
87493W        W30431  12.818   2.804   2.528  0.1575 -0.0245 -0.4442
87494W        W30432  13.079   1.154   1.850  0.1798 -0.1735 -0.1088
87495W        W30433  12.501  34.294   1.198  0.0248  0.0429 -0.0299
87496W        W30434  13.487   0.373   3.499  0.4242  0.0662  0.2136
87497W        W30435  14.847   2.345   1.058 -0.0759 -0.3799  0.2160
87498W        W30436  13.519   0.706   3.027 -0.1042  0.1210  0.2590
87499W        W30437  12.533   3.422   1.975  0.1314 -0.2299  0.1683
87500W        W30438  12.314  33.788   1.140  0.0288  0.0603 -0.3797
87501W        W30439  15.234   3.848  31.589  0.0733  0.1239 -0.0742
87502W        W30440  12.919   2.264   2.457  0.2085 -0.0901 -0.1300
87503W        W30441  11.896   1.626   1.004 -0.1296  0.2259  0.1974
87504W        W30442  11.613   2.353   0.312 -0.0923  0.1624 -0.2847
87505W        W30443  11.597   3.977   2.104 -0.1754 -0.3081  0.0698
87506W        W30444  12.743   0.493   1.271 -0.1932  0.3300 -0.0710
87507W        W30445  12.015   3.350   1.180  0.0123 -0.0197 -0.0704
87508W        W30446   9.423   3.280   0.203  0.1529 -0.0534 -0.2286
87509W        W30447  12.022   3.137   1.966 -0.0388  0.1519  0.1200
87510W        W30448  15.403   0.050   1.030  0.1296  0.1529 -0.1330
87511W        W30449  13.486  34.407   1.751 -0.1851 -0.1628 -0.0170
87512W        W30450  12.981   0.618   0.840  0.4210 -0.3121  0.0732
87513W        W30451  15.946  34.664   2.691 -0.0137  0.0379 -0.2829
87514W        W30452  11.706   3.227  31.784  0.2142 -0.3217  0.0637
87515W        W30453  14.200   0.707   2.778 -0.3500 -0.1235  0.0859
87516W        W30454  12.599   1.422   1.920 -0.0467  0.2294  0.1570
87517W        W30455  13.051   2.700   2.147  0.0036 -0.1605  0.3184
87518W        W30456  11.419   1.194   3.414 -0.0455 -0.3158 -0.2497
87519W        W30457  12.526   3.568   3.768 -0.0690 -0.2657  0.3152
87520W        W30458  11.288   2.945   3.665  0.2111 -0.1326 -0.1137
87521W        W30459  13.628   1.333   0.819  0.0282 -0.1176 -0.0234
87522W        W30460  11.884  34.309  31.721  0.1991 -0.0564 -0.2131
87523W        W30461  12.325   2.232   2.405  0.0720  0.2137 -0.0238
87524W        W30462  12.909   1.853   1.058  0.1786 -0.1554 -0.0547
87525W        W30463  11.958   2.020  31.382 -0.1457  0.0974 -0.3006
87526W        W30464  14.844   1.120   0.023  0.0315 -0.1725 -0.1373
87527W        W30465  12.354   0.222   1.014 -0.0441 -0.0082 -0.1293
87528W        W30466  14.653   0.621   1.289  0.1417  0.0014 -0.2327
87529W        W30467  14.070   2.199  31.863 -0.3336 -0.1261 -0.2312
87530W        W30468  12.262   3.624   3.021  0.3871  0.2326  0.3772
87531W        W30469  12.068   0.764   3.378 -0.1156 -0.0014 -0.2969
87532W        W30470  13.025   1.698   2.167  0.0763 -0.0595  0.0317
87533W        W30471  15.046   1.397   1.504 -0.1949 -0.0336  0.0334
87534W        W30472  14.045   0.252   3.622 -0.0028 -0.0632 -0.3009
87535W        W30473  14.676   1.079   1.607  0.3535  0.0107  0.2106
87536W        W30474  13.058   1.596   2.655 -0.0965  0.3726 -0.1426
87537W        W30475  11.547  34.313   3.053 -0.2314 -0.4080 -0.0642
87538W        W30476  14.716   3.238   1.402  0.1797  0.1358 -0.0588
87539W        W30477  16.091   1.039  30.679 -0.1178  0.1404 -0.1988
87540W        W30478  16.388   0.164   2.502 -0.0440  0.1111  0.1506
87541W        W30479  14.032   1.650   0.903  0.0605 -0.0434 -0.0278
87542W        W30480  12.847   1.339   0.216 -0.0797  0.0878  0.0790
87543W        W30481  12.170   0.703   2.382 -0.0177 -0.1175 -0.0865
87544W        W30482  13.714   1.148   3.998 -0.0027 -0.1068 -0.1267
87545W        W30483  13.023  34.304   0.838  0.1783  0.1067 -0.0516
87546W        W30484  14.201   1.585   2.796 -0.1450  0.1321 -0.4486
87547W        W30485  13.531   3.525   0.353  0.1778 -0.2041 -0.2031
87548W        W30486  13.429   3.468  31.866  0.0651 -0.3113 -0.2802
87549W        W30487  13.929   1.430   0.472  0.1023  0.0230  0.2967
87550W        W30488   9.872   1.017   2.638 -0.0936 -0.1272 -0.0586
87551W        W30489  11.942   4.687   3.372 -0.0568 -0.0229 -0.0161
87552W        W30490  10.680   1.034   0.176  0.0314  0.2578  0.0310
87553W        W30491  11.505   2.721   1.042 -0.0262  0.2641 -0.0281
87554W        W30492  12.707   2.946   1.980  0.0322  0.0052 -0.1432
87555W        W30493  15.338   2.637   3.693 -0.1616 -0.1719  0.0688
87556W        W30494  11.867  34.358   0.277  0.0111  0.1150  0.3275
87557W        W30495  15.555   0.614   2.582 -0.0320  0.1033  0.1658
87558W        W30496  10.864   3.820   0.920  0.0308  0.2926  0.1119
87559W        W30497  14.712  33.358   0.932  0.0533  0.0124 -0.0180
87560W        W30498  11.442   4.648   1.457  0.1852 -0.1672  0.1077
87561W        W30499  11.500   3.036   2.049  0.2833 -0.1518  0.2595
87562W        W30500  13.452   3.196   1.381  0.0917  0.0726 -0.1004
87563W        W30501  14.257   1.183   2.526 -0.2923 -0.1891  0.1390
87564W        W30502  12.916   0.697   1.759  0.2207 -0.1411 -0.3144
87565W        W30503  12.903   0.993   1.382  0.2663 -0.2556  0.0086
87566W        W30504  13.406   2.045   1.436  0.1109  0.0180 -0.1293
87567W        W30505  13.173   2.864   1.659 -0.0606 -0.1883 -0.1369
87568W        W30506  10.813   0.989   1.715  0.0863  0.0859 -0.0363
87569W        W30507  13.127   3.266   2.295  0.1183 -0.0896  0.1085
87570W        W30508  14.464   2.309   0.774 -0.0923  0.1727 -0.1086
87571W        W30509  11.575   3.562   1.759  0.0453  0.0632  0.2684
87572W        W30510  11.394   3.188   3.255  0.0718  0.2806 -0.3446
87573W        W30511  13.074   3.049   2.836 -0.0219  0.0771 -0.1223
87574W        W30512  13.110   1.452   0.866 -0.0348 -0.0875  0.0734
87575W        W30513  11.689  33.714   1.729  0.2664  0.1104  0.1205
87576W        W30514  13.853   2.312   0.448  0.0531  0.1113  0.1619
87577W        W30515  10.758   2.430   3.101 -0.3114 -0.0835 -0.1700
87578W        W30516  12.761   2.289   3.157 -0.1879  0.1610 -0.2104
87579W        W30517  10.805   5.538   1.323  0.1032  0.3177 -0.1933
87580W        W30518  16.319   2.387  31.678  0.2830  0.2316  0.0343
87581W        W30519  14.462   3.070   0.294 -0.0431 -0.0641 -0.2143
87582W        W30520  14.701   2.695   2.401  0.0333  0.1563 -0.0451
87583W        W30521  11.623   3.270   0.361  0.0778  0.1991  0.0297
87584W        W30522  10.713   3.890   1.793  0.0024 -0.1365  0.1878
87585W        W30523  10.010   1.890   0.563  0.1167  0.1120 -0.1235
87586W        W30524  14.913   2.565   0.168  0.0193 -0.0129 -0.1670
87587W        W30525  11.212   3.473   0.826  0.2925 -0.0589 -0.0909
87588W        W30526  14.542   3.701   3.371 -0.0841  0.0325 -0.3111
87589W        W30527  13.747   1.887  30.981 -0.3458  0.0122  0.2592
87590W        W30528  14.421   1.387   2.107  0.1702  0.0346  0.0286
87591W        W30529  15.078  34.057  31.488 -0.1300 -0.0124 -0.0305
87592W        W30530  13.522   3.343   4.216  0.1222  0.1606 -0.1163
87593W        W30531  12.500   0.947   2.671  0.1010 -0.0790 -0.2585
87594W        W30532  13.556   0.326   1.719  0.4835 -0.0113  0.1607
87595W        W30533  13.317   2.307   3.422 -0.1736 -0.2609 -0.0200
87596W        W30534  14.537  33.254   4.163  0.0176  0.0294 -0.1473
87597W        W30535  12.329   2.481   2.854  0.0111 -0.0307  0.0562
87598W        W30536  14.282   4.137   0.634 -0.2128 -0.1040  0.0590
87599W        W30537  11.605   1.841  31.683 -0.0088 -0.2239  0.0754
87600W        W30538  12.670   1.378   1.055  0.0561 -0.0871 -0.1979
87601W        W30539  14.890   0.842   2.104  0.0323  0.2020  0.1147
87602W        W30540  13.081   3.016  30.162  0.0358  0.1689 -0.2790
87603W        W30541  14.551   1.424   1.099 -0.0494 -0.1239 -0.0830
87604W        W30542  11.724   3.656   0.830 -0.0183 -0.1342  0.2913
87605W        W30543  12.725   2.642   1.580  0.2566  0.1400  0.0531
87606W        W30544  11.270   3.970   1.687 -0.1794 -0.2129  0.1850
87607W        W30545  10.695   0.475   1.573  0.0505  0.0256 -0.1439
87608W        W30546  14.033   0.071   1.720  0.0409  0.1211 -0.1925
87609W        W30547  13.147   0.930   2.747 -0.1223 -0.1640 -0.1186
87610W        W30548  14.014  34.617   2.846 -0.1209 -0.0401  0.1830
87611W        W30549  11.779   1.095   0.980  0.0314 -0.1881  0.0775
87612W        W30550  15.590   0.481   0.744  0.1890  0.3341 -0.1263
87613W        W30551  13.672   2.714   2.064 -0.0375  0.0688 -0.2422
87614W        W30552  12.619   0.505   2.387  0.1573 -0.0909  0.0130
87615W        W30553  13.052   3.254   0.976 -0.3639  0.4243 -0.0044
87616W        W30554  14.102   1.380   1.387  0.1936  0.0755  0.1041
87617W        W30555  14.896   1.638  31.183  0.0925  0.0251  0.3562
87618W        W30556  13.911   3.998   3.082 -0.0749 -0.0588  0.4635
87619W        W30557  12.394   1.775   1.003 -0.1678 -0.0376  0.1049
87620W        W30558  13.073   0.168   0.115 -0.2496 -0.0555 -0.1713
87621W        W30559  12.124   1.334   1.370 -0.0494  0.3356 -0.0186
87622W        W30560  11.897   1.170   2.683  0.0107  0.2657 -0.2252
87623W        W30561  14.704   3.779   2.187 -0.1639 -0.0265 -0.0458
87624W        W30562  11.586   0.775   1.919  0.0848 -0.0693 -0.2089
87625W        W30563  13.546   2.528  30.881  0.4624  0.0909 -0.2039
87626W        W30564  15.014   3.100   0.998  0.1936 -0.2517 -0.2822
87627W        W30565  12.480   3.522   1.444 -0.0126 -0.2167 -0.1058
87628W        W30566  14.386   0.146   0.916  0.2369  0.0642  0.1359
87629W        W30567  11.958   4.053   3.159  0.2419 -0.0811  0.2174
87630W        W30568  11.997   0.639   2.840  0.2163  0.2224 -0.2875
87631W        W30569  13.227   1.839   3.296 -0.0380  0.1946  0.1406
87632W        W30570  13.865   3.990   2.301  0.1392  0.0700  0.0855
87633W        W30571  13.721   0.788   0.728 -0.0195 -0.1304 -0.1692
87634W        W30572  11.151   0.781   2.748  0.4074 -0.2180  0.0815
87635W        W30573  11.423   4.403   0.642 -0.1219  0.0680  0.2134
87636W        W30574  15.341   1.112   1.908  0.2725  0.0124 -0.0714
87637W        W30575  14.849   1.229   2.411 -0.0814  0.2415 -0.2324
87638W        W30576  14.606   3.673   0.447  0.1620  0.2651  0.3141
87639W        W30577  16.425   0.232   4.528 -0.4838  0.2867 -0.1416
87640W        W30578  13.435   5.031   2.639 -0.2419 -0.0755  0.2013
87641W        W30579  11.840   2.368   2.387 -0.2389  0.4175  0.2444
87642W        W30580  11.585   1.379   0.500  0.0274  0.4823 -0.1127
87643W        W30581  13.668   1.903   3.503  0.3173  0.2616 -0.0928
87644W        W30582  13.316   2.140   0.871 -0.0269 -0.0693 -0.2396
87645W        W30583  13.391   3.114   0.645  0.0090 -0.0429 -0.1705
87646W        W30584  14.112   3.450   2.626 -0.0239 -0.3068  0.0396
87647W        W30585  13.611   1.830   0.608  0.0827  0.6626 -0.1457
87648W        W30586  15.059   3.917   1.284  0.2096 -0.0569 -0.1095
87649W        W30587  13.773  33.966   2.520  0.0736 -0.1477  0.1916
87650W        W30588  14.620   0.218   1.644 -0.1837 -0.1471 -0.2275
87651W        W30589  13.647  34.093  31.889 -0.1160 -0.1333 -0.0576
87652W        W30590  13.339   4.003   3.294  0.3315  0.2381  0.0697
87653W        W30591  11.643   1.301   1.709  0.0078  0.1685  0.3860
87654W        W30592  12.332   2.902   0.364  0.0521  0.0422  0.1365
87655W        W30593  12.056   2.779  31.917  0.0873  0.2061  0.0963
87656W        W30594  12.413  34.521   3.402 -0.2613 -0.1804 -0.2639
87657W        W30595  13.824   0.406   2.704 -0.0576  0.3571  0.1606
87658W        W30596  12.139   1.103   1.855 -0.0173 -0.0905 -0.3354
87659W        W30597  13.373   0.813   1.561 -0.3537 -0.1255 -0.0862
87660W        W30598  13.909   1.700  31.888 -0.1274  0.1052  0.0702
87661W        W30599  10.449   0.529   2.903 -0.2333 -0.2297  0.2689
87662W        W30600  11.680   0.805   2.471 -0.1440  0.1731 -0.1193
87663W        W30601  15.658   1.847   0.732 -0.1674  0.0602  0.0172
87664W        W30602  13.134   2.580   0.711  0.0180  0.2464 -0.4533
87665W        W30603  12.426   0.557   0.624 -0.0650  0.0878  0.0302
87666W        W30604  15.089   3.051   3.576  0.0376  0.2751 -0.0141
87667W        W30605  10.159   1.368   0.524  0.2865 -0.0773 -0.0597
87668W        W30606  13.162   2.093   2.879 -0.1051  0.3660 -0.1551
87669W        W30607  11.659   1.180   4.097 -0.4402 -0.0743  0.2655
87670W        W30608  11.141   0.534   0.746 -0.3198 -0.0445  0.1308
87671W        W30609  14.153   2.540   1.211 -0.4488  0.0612  0.2586
87672W        W30610  13.432   2.878   2.529  0.1083 -0.0068 -0.1657
87673W        W30611  13.902   3.178   0.065  0.0275  0.2731 -0.0313
87674W        W30612  12.257   2.736   2.405  0.1715 -0.3004 -0.1730
87675W        W30613  13.013   4.635   2.947  0.2807  0.0310 -0.2236
87676W        W30614  12.493   1.703   2.338 -0.1921 -0.0152 -0.1618
87677W        W30615  14.611   0.762   2.535 -0.1478 -0.1983 -0.0566
87678W        W30616  13.191   4.186   3.767  0.0796  0.0795  0.1473
87679W        W30617  14.778   2.932  31.614 -0.2090 -0.1272 -0.0346
87680W        W30618  14.570  32.712   1.791  0.1236  0.0692  0.0019
87681W        W30619  12.667   2.222  31.815 -0.0974  0.0986  0.0532
87682W        W30620  12.532   0.378   1.733  0.2403 -0.0691  0.0434
87683W        W30621  12.707   1.775   3.312 -0.2123 -0.2903 -0.0399
87684W        W30622  13.566   2.001   1.957  0.2083 -0.2213  0.1264
87685W        W30623  12.263   0.117   2.154  0.1502  0.2836  0.3102
87686W        W30624  14.121   0.825   2.218 -0.1810  0.0850 -0.2202
87687W        W30625  12.599   2.194   0.665  0.0514 -0.0932 -0.0792
87688W        W30626  12.127   0.462   1.398  0.0900 -0.2284  0.2904
87689W        W30627  13.554   0.868   2.070  0.1161 -0.1674 -0.1306
87690W        W30628  13.000   1.869   1.590 -0.4934 -0.1022  0.0778
87691W        W30629  12.569   4.645   0.298  0.1288  0.0204  0.2353
87692W        W30630  14.013   2.991   2.680 -0.1121 -0.1656 -0.0622
87693W        W30631  13.030   2.016   0.456  0.1900 -0.0475  0.0366
87694W        W30632  15.679   1.448  30.857 -0.1762  0.1846  0.0168
87695W        W30633  13.509   3.672   1.656  0.1485  0.0612  0.3622
87696W        W30634  15.091   2.342   4.830  0.0160 -0.0436 -0.0816
87697W        W30635  13.358   4.492   1.888 -0.1202  0.2098  0.1274
87698W        W30636  15.494   3.367   1.934  0.1222  0.1035  0.1278
87699W        W30637  10.927   0.336   2.651  0.0250 -0.4080 -0.1512
87700W        W30638  12.145   1.861   0.589 -0.0382  0.3332 -0.1787
87701W        W30639  14.205   1.944   1.286 -0.0972  0.2478 -0.3176
87702W        W30640  15.120  34.497   1.980  0.0589  0.2386 -0.0037
87703W        W30641  12.095   1.934   1.436 -0.1228  0.3151  0.1006
87704W        W30642  11.321   0.724  31.466  0.1733 -0.2202  0.0961
87705W        W30643  12.774   3.926   1.787 -0.0812  0.1835 -0.3446
87706W        W30644  15.337   2.248  31.875 -0.2660 -0.0518  0.3993
87707W        W30645  12.484   2.032   5.093 -0.0201 -0.0607 -0.2227
87708W        W30646  13.428  34.639   5.093 -0.2728 -0.1923  0.1783
87709W        W30647  15.087   0.871   2.615  0.0695 -0.0040 -0.1096
87710W        W30648  14.225   2.104   3.897 -0.2368  0.1753 -0.1273
87711W        W30649  11.759   1.458   5.043  0.2300  0.1352  0.5380
87712W        W30650  14.468   3.232   5.113 -0.1718  0.1902 -0.0492
87713W        W30651  11.544   0.987   6.792  0.0513 -0.0187 -0.0663
87714W        W30652  13.534   3.540   5.217  0.2198  0.0805 -0.3092
87715W        W30653  14.508   4.491   7.203 -0.1673  0.2785  0.1706
87716W        W30654  13.648   1.297   1.759 -0.1821  0.1077  0.0092
87717W        W30655  13.025   1.278   6.461  0.0330 -0.2164 -0.2212
87718W        W30656  11.977   2.103   7.446 -0.2783  0.2108 -0.0713
87719W        W30657  12.568   1.068   4.410  0.2314  0.1999  0.1335
87720W        W30658  10.907  34.390   6.319 -0.3214  0.1970 -0.2421
87721W        W30659  13.543   2.721   5.552  0.5314 -0.0005 -0.3736
87722W        W30660  12.017   2.129   5.399 -0.3179 -0.0917  0.1883
87723W        W30661  14.171   1.240   6.711  0.1019 -0.3851 -0.0789
87724W        W30662  13.091   1.542   6.045  0.3707 -0.0474 -0.0176
87725W        W30663  12.572   3.027   4.069 -0.1772  0.1417  0.0682
87726W        W30664  14.101   2.312   5.640 -0.0276  0.0928 -0.3139
87727W        W30665  12.060   0.346   7.320  0.1776  0.1455  0.1903
87728W        W30666  12.132   2.989   4.806  0.2150 -0.0892 -0.0255
87729W        W30667  13.179   2.562   2.793  0.2584  0.2149 -0.0062
87730W        W30668  10.040   2.417   5.545  0.0945  0.0474 -0.0640
87731W        W30669  12.331   1.831   7.195  0.1705  0.3169  0.1384
87732W        W30670  12.764   1.119   5.740  0.0998  0.0637 -0.0498
87733W        W30671  14.539   1.386   4.529  0.0952 -0.0917  0.1102
87734W        W30672  12.484   3.510   4.268  0.0893  0.1911 -0.1658
87735W        W30673  12.940   2.871   4.858 -0.0517 -0.2390 -0.0859
87736W        W30674  13.910   1.617   6.457 -0.1732 -0.0675 -0.0976
87737W        W30675  11.610   3.213   5.533 -0.0543  0.1913  0.1247
87738W        W30676  11.122   4.948   4.382  0.1481  0.0596 -0.1528
87739W        W30677  12.508   2.196   4.563  0.1484 -0.0743  0.1570
87740W        W30678  14.346   3.576   3.838 -0.2391 -0.1061 -0.0240
87741W        W30679  13.971   3.923   6.594  0.0877 -0.1658  0.2441
87742W        W30680  12.594   3.757   4.911 -0.1077  0.1761 -0.4982
87743W        W30681  11.734   3.917   3.909 -0.2060  0.1311 -0.3456
87744W        W30682  13.020   1.780   6.484  0.1671 -0.2611 -0.2471
87745W        W30683  11.099   4.434   7.403  0.0296 -0.0955  0.1132
87746W        W30684  14.263   2.770   4.930 -0.2507 -0.1117 -0.4240
87747W        W30685  13.353   2.048   5.029 -0.0909 -0.0390  0.0770
87748W        W30686  12.491   2.424   4.051  0.1114  0.1087  0.3889
87749W        W30687  12.698   2.874   5.345 -0.1737  0.2518 -0.0564
87750W        W30688  13.352   1.937   7.779 -0.0879  0.3949  0.0394
87751W        W30689  10.775   3.512   5.013  0.3062  0.1235 -0.0761
87752W        W30690  14.296   0.700   6.883 -0.0706  0.0121 -0.4916
87753W        W30691  12.901   1.639   4.151  0.1983  0.0620 -0.1171
87754W        W30692  15.493   1.133   2.517 -0.2604  0.3398  0.1126
87755W        W30693  12.356  34.555   3.924 -0.1261 -0.0116  0.0559
87756W        W30694  14.204   1.299   4.195 -0.0894  0.2049 -0.0729
87757W        W30695  11.974  34.274   6.906  0.2949 -0.2559 -0.0839
87758W        W30696  12.010   5.300   4.420  0.0593 -0.0436  0.0302
87759W        W30697  11.855   1.180   7.171  0.0810 -0.0765  0.0046
87760W        W30698  14.620   4.282   5.855  0.0318  0.4123  0.1661
87761W        W30699  13.713   2.391   4.066  0.0576 -0.2303  0.1424
87762W        W30700  13.797   1.909   5.797 -0.0697  0.0820  0.0586
87763W        W30701  12.175   2.742   5.298  0.1974 -0.1948 -0.2921
87764W        W30702  11.821   2.026   3.742 -0.1223 -0.1545 -0.1845
87765W        W30703  14.923   2.756   5.618  0.0896  0.0207 -0.0879
87766W        W30704  15.094   4.164   5.615  0.1785 -0.4259  0.0370
87767W        W30705  14.169   2.716   2.297  0.0808 -0.0706  0.2372
87768W        W30706  13.217   1.957   5.798 -0.0343 -0.0027  0.2592
87769W        W30707  11.286   2.747   5.433 -0.1424  0.0199 -0.0250
87770W        W30708  12.942   1.515   6.970 -0.1065 -0.3081  0.1255
87771W        W30709  12.362   0.778   5.106  0.0887  0.2098  0.0958
87772W        W30710  14.145   3.412   6.568 -0.0654  0.3250  0.1730
87773W        W30711  11.409   2.317   7.861  0.0473 -0.0031  0.4440
87774W        W30712  13.654  34.499   4.624 -0.0329 -0.2750 -0.0284
87775W        W30713  12.487   2.650   4.887 -0.2668  0.0685 -0.0045
87776W        W30714  14.541   3.516   6.201 -0.2772 -0.0724  0.2735
87777W        W30715  13.548   1.929   2.476 -0.2670  0.0075  0.4803
87778W        W30716  12.521  34.536   5.315 -0.3509  0.1207 -0.0464
87779W        W30717  13.346  34.331   6.399  0.2372 -0.3392 -0.1611
87780W        W30718  13.091   0.202   4.566  0.0233  0.1539 -0.1825
87781W        W30719  13.835   0.871   4.429  0.0779  0.0645  0.2038
87782W        W30720  12.970   3.317   6.823 -0.0706 -0.1332 -0.1307
87783W        W30721  14.696   0.684   3.023 -0.0749  0.3157 -0.0319
87784W        W30722  11.835   3.324   5.085  0.2921 -0.1110 -0.1891
87785W        W30723  12.935   1.781   7.403 -0.0096  0.0277 -0.3146
87786W        W30724  11.600   2.935   7.048 -0.0639  0.1796  0.0735
87787W        W30725  12.378   4.421   3.221 -0.0829  0.0215 -0.1725
87788W        W30726  10.460   3.089   5.931 -0.1455 -0.4783  0.0880
87789W        W30727  12.200   2.379   3.633  0.0506  0.0471 -0.0195
87790W        W30728  10.703   1.275   5.752  0.2525  0.4244  0.0728
87791W        W30729  10.956   2.433   5.292  0.1440  0.0625 -0.0543
87792W        W30730  13.282  34.044   3.352 -0.2962 -0.5286  0.0923
87793W        W30731  11.850   1.013   7.801  0.4599 -0.0838  0.0384
87794W        W30732  15.143   0.369   4.950  0.0411  0.1666  0.0084
87795W        W30733  12.912   2.127   4.312  0.0232 -0.1895  0.3652
87796W        W30734  15.278   3.414   3.920  0.0900 -0.1988 -0.0571
87797W        W30735  14.867   0.438   4.200  0.0263  0.0960 -0.4275
87798W        W30736  13.054   1.047   3.554  0.1672  0.2240  0.1945
87799W        W30737  11.946   0.933   6.544  0.2270 -0.0376 -0.1085
87800W        W30738  12.242   1.532   5.874 -0.1558  0.0605  0.3566
87801W        W30739  11.266   1.185   7.162 -0.0658 -0.1829 -0.1653
87802W        W30740  12.236   2.275   6.246  0.1101 -0.1781 -0.0806
87803W        W30741  14.122   1.496   6.005  0.0933 -0.2926  0.2071
87804W        W30742  11.893   0.112   4.338 -0.0543 -0.0391 -0.2587
87805W        W30743  13.471   1.860   6.235 -0.1890  0.2050  0.0479
87806W        W30744  12.264   0.982   3.830  0.2345  0.1940 -0.0180
87807W        W30745  11.559   3.163   4.046 -0.2807  0.0998 -0.0400
87808W        W30746  14.259  34.229   7.342 -0.1143 -0.1099 -0.2068
87809W        W30747  10.960   4.317   3.670 -0.3208 -0.2362  0.2744
87810W        W30748  14.404   3.748   6.864 -0.0029 -0.4096 -0.0100
87811W        W30749  14.042   2.751   3.912  0.0499 -0.1156 -0.1719
87812W        W30750  10.668   0.373   7.204  0.2430 -0.0787  0.0926
87813W        W30751  12.192   0.083   5.653 -0.1085  0.0745 -0.1548
87814W        W30752  10.103   5.270   5.085  0.0722 -0.0482 -0.2762
87815W        W30753  13.221   3.025   5.276  0.3240  0.0163 -0.0287
87816W        W30754  11.287   0.325   4.396  0.2346 -0.2309 -0.3125
87817W        W30755  12.822   3.906   4.064  0.0247  0.0830 -0.1920
87818W        W30756  11.826   2.642   4.586  0.2876  0.0089 -0.2245
87819W        W30757  10.894   1.763   5.945  0.2197  0.2232 -0.1891
87820W        W30758  13.863   1.035   5.813  0.2248  0.2526 -0.1877
87821W        W30759  15.412   1.876   5.591  0.1281 -0.0619 -0.0903
87822W        W30760  13.447   0.694   4.085  0.2696 -0.4831  0.3899
87823W        W30761  11.919  34.582   3.417  0.1666  0.0335  0.3355
87824W        W30762  12.389   3.230   5.108  0.1070  0.0176 -0.3012
87825W        W30763  12.270   4.368   4.041 -0.2527 -0.1784 -0.1548
87826W        W30764  11.665   0.808   5.803 -0.0718  0.0406  0.1780
87827W        W30765  12.758   2.630   4.424  0.0472  0.0163  0.2692
87828W        W30766  13.940  34.589   6.591 -0.0461 -0.2409  0.3862
87829W        W30767  11.892   2.367   6.670  0.0555  0.1006  0.0014
87830W        W30768  13.743   0.387   6.288 -0.0810  0.0482  0.0782
87831W        W30769  11.300   1.410   4.276 -0.1713  0.0144 -0.0708
87832W        W30770  12.450   2.875   5.801 -0.2825  0.3543 -0.0021
87833W        W30771  13.774  34.221   4.126  0.3206 -0.2432 -0.4913
87834W        W30772  13.814  34.263   3.648  0.0860 -0.2089 -0.0610
87835W        W30773  13.113   3.316   6.332 -0.0400 -0.1741 -0.1473
87836W        W30774  13.701   3.179   3.346 -0.0948 -0.1579 -0.1493
87837W        W30775  15.127   1.613   2.623  0.1053  0.1515 -0.0308
87838W        W30776  13.054   0.582   3.704  0.0198  0.4050  0.0366
87839W        W30777  12.996   2.603   7.176 -0.1578  0.0586 -0.0745
87840W        W30778  12.282   2.744   4.349 -0.1673 -0.1864 -0.0413
87841W        W30779  12.964   2.291   4.815 -0.2692  0.1225 -0.0055
87842W        W30780  14.168  34.322   4.557 -0.1160  0.2166  0.1317
87843W        W30781  13.859   3.225   3.814 -0.0122 -0.1987 -0.0621
87844W        W30782  10.205   2.918   5.542 -0.2378 -0.0642  0.2778
87845W        W30783  13.461   3.100   6.915 -0.1030  0.0462  0.1103
87846W        W30784  13.992   3.025   4.432  0.2593  0.1897  0.0342
87847W        W30785  12.899   0.966   6.883  0.1573  0.0885  0.2272
87848W        W30786  12.620   0.791   3.410 -0.1736  0.0719  0.2110
87849W        W30787  11.764  33.887   5.485 -0.2060  0.0173 -0.1355
87850W        W30788  10.552   4.034   3.785 -0.0917  0.1160 -0.0074
87851W        W30789  14.467   0.054   4.697  0.0497  0.0150 -0.0763
87852W        W30790  12.024  34.134   6.414 -0.0968  0.0617  0.2533
87853W        W30791  12.132   1.418   6.341  0.1782  0.1273  0.1411
87854W        W30792  13.900   0.272   7.608  0.1290  0.0505  0.1339
87855W        W30793  15.020   1.707   3.794  0.1780 -0.1865  0.0066
87856W        W30794  12.924   0.622   6.513  0.2736  0.0146  0.2293
87857W        W30795  13.019   2.094   3.776  0.0567  0.0661 -0.0640
87858W        W30796  13.181  34.374   7.970  0.2199 -0.1280 -0.2179
87859W        W30797  11.287   1.167   4.925 -0.0010 -0.0239  0.5321
87860W        W30798  11.907   3.481   5.860 -0.1201 -0.2489  0.0262
87861W        W30799  12.659   3.642   6.436 -0.3039 -0.1050  0.0530
87862W        W30800  13.382   3.558   3.746  0.0408  0.1722 -0.3361
87863W        W30801  13.798   0.793   7.218 -0.0094  0.2041 -0.0226
87864W        W30802  11.741   0.083   5.407 -0.2099 -0.2502 -0.0352
87865W        W30803  12.968   3.777   3.555 -0.0795 -0.0310 -0.2338
87866W        W30804  13.857   2.382   3.564 -0.0436  0.3373 -0.2995
87867W        W30805  12.447   1.021   6.515  0.5418 -0.1215 -0.0544
87868W        W30806  12.194   3.216   5.569 -0.2202 -0.0206 -0.1772
87869W        W30807  12.091   2.679   3.238 -0.0743  0.0067 -0.3044
87870W        W30808  13.945   2.735   5.842 -0.2539  0.1341  0.0915
87871W        W30809  12.045   1.658   3.490  0.1345  0.0456 -0.1237
87872W        W30810  13.692   0.372   5.754 -0.1091  0.2598  0.1554
87873W        W30811  11.374   4.590   5.331  0.2246 -0.0233  0.2525
87874W        W30812  12.220   1.309   4.951 -0.0190  0.0944 -0.3858
87875W        W30813  13.041   1.349   4.572 -0.1281 -0.0507 -0.2445
87876W        W30814  14.664   0.901   5.106 -0.3607 -0.1360 -0.0360
87877W        W30815  14.367   1.821   4.449 -0.2748 -0.0575 -0.1543
87878W        W30816  11.892   0.453   7.784  0.2422 -0.2055  0.0277
87879W        W30817  12.873   0.264   6.810  0.0562  0.3055  0.0326
87880W        W30818  11.782   5.174   5.835  0.0443  0.0196 -0.0946
87881W        W30819  15.487   2.622   6.803  0.0855  0.2290  0.1206
87882W        W30820  13.830  33.825   3.379  0.1467 -0.2518  0.2453
87883W        W30821  13.880   2.557   5.206  0.2803  0.2824  0.0177
87884W        W30822  12.668   3.097   6.426 -0.0690  0.1019 -0.0540
87885W        W30823  10.480   1.823   3.655 -0.1070  0.0744  0.0101
87886W        W30824  14.724   0.517   4.708 -0.1617  0.0271  0.0891
87887W        W30825  13.199   1.187   4.068  0.1341 -0.0571 -0.0092
87888W        W30826  11.587   3.398   4.599  0.0789 -0.0940  0.1058
87889W        W30827  12.920   3.415   4.014  0.0096  0.2332 -0.1468
87890W        W30828  12.959   1.815   4.743  0.0476  0.1000  0.0186
87891W        W30829  11.039   3.269   3.983  0.1837 -0.0687 -0.0175
87892W        W30830  13.464   0.731   7.720  0.1117 -0.0176 -0.1285
87893W        W30831  13.389   3.631   6.633 -0.0963 -0.0290 -0.0831
87894W        W30832  13.858   0.759   5.427 -0.0771 -0.1410 -0.0269
87895W        W30833  12.080   1.049   5.404  0.1207 -0.4085 -0.3870
87896W        W30834  13.385   0.769   5.674 -0.0636 -0.0630  0.0876
87897W        W30835  14.368   1.915   5.954  0.4832 -0.3729 -0.2018
87898W        W30836  13.601   1.440   5.875 -0.1008 -0.4416 -0.2110
87899W        W30837  11.096   2.341   7.249  0.1086  0.0982 -0.0045
87900W        W30838  12.722  34.052   6.850 -0.1081  0.0406  0.0141
87901W        W30839  13.688   3.715   3.436  0.0354 -0.4221 -0.0657
87902W        W30840  13.501   1.723   5.432 -0.2002  0.1357 -0.0974
87903W        W30841  11.647   1.944   5.040 -0.0398  0.1263  0.0970
87904W        W30842  10.923   1.310   6.233  0.0154  0.0285  0.1362
87905W        W30843  11.300   2.117   1.776 -0.0512  0.1345  0.0502
87906W        W30844  12.942   1.931   5.307 -0.2028 -0.0225 -0.3815
87907W        W30845  11.195   3.684   4.839  0.2318  0.3967  0.1588
87908W        W30846  13.170   2.955   3.339  0.1151  0.1831 -0.1655
87909W        W30847  11.706   2.832   6.446 -0.0078  0.0173 -0.0036
87910W        W30848  14.773  33.319   4.823 -0.1578 -0.2230  0.0814
87911W        W30849  13.405   1.210   3.067 -0.1540  0.1441 -0.0522
87912W        W30850  12.934   0.760   5.391 -0.0104  0.1163  0.0884
87913W        W30851  14.690   0.587   6.171 -0.1072 -0.0190 -0.0741
87914W        W30852  14.204   2.367   4.358  0.0277 -0.1152 -0.1116
87915W        W30853  13.450   0.300   7.371 -0.1750  0.0599  0.0576
87916W        W30854  11.386  33.483   7.063  0.0918  0.0986  0.2870
87917W        W30855  13.597   2.705   3.179  0.0722 -0.1301  0.0074
87918W        W30856  13.413   0.777   6.452 -0.1919 -0.1197 -0.1302
87919W        W30857  13.050   3.841   6.271 -0.1306 -0.0797  0.0757
87920W        W30858  12.219   1.679   7.753 -0.0569  0.0356 -0.4304
87921W        W30859  13.187   0.342   5.563  0.4241  0.0434 -0.1646
87922W        W30860  11.878   0.601   4.423 -0.3915  0.1603 -0.0645
87923W        W30861  11.553   2.969   4.894 -0.1337 -0.3045  0.1094
87924W        W30862  15.038   2.163   5.313  0.0070  0.2453  0.0814
87925W        W30863  12.534   1.907   3.758 -0.0351 -0.1820  0.0283
87926W        W30864  14.556   0.716   5.621  0.2302  0.0351  0.0808
87927W        W30865  11.939   2.978   6.000 -0.1586 -0.0692 -0.0770
87928W        W30866  14.145   0.010   4.274 -0.0315 -0.2777 -0.3494
87929W        W30867  12.539   1.979   2.778  0.0982 -0.1024 -0.0790
87930W        W30868  13.664   1.586   4.969  0.1309  0.0232  0.4019
87931W        W30869  12.158  34.168   8.739  0.0137 -0.2118  0.1570
87932W        W30870  13.698   1.247   5.377  0.0721  0.0047 -0.0943
87933W        W30871  13.470  34.047   5.909 -0.0667  0.0163  0.1146
87934W        W30872  12.134   1.479   6.816  0.1297  0.0263  0.0706
87935W        W30873  13.729   2.056   6.616 -0.0295  0.2381 -0.1229
87936W        W30874  13.267   2.257   6.429 -0.1206  0.0822  0.4429
87937W        W30875  10.458   1.147   6.226  0.1422 -0.1187  0.1852
87938W        W30876  14.103   5.448   7.427  0.1001 -0.0573  0.0470
87939W        W30877  14.742   1.399   2.905  0.0725  0.2470 -0.2451
87940W        W30878  13.533  34.589   6.000 -0.2477 -0.0394  0.0202
87941W        W30879  14.852   1.922   4.310 -0.3884 -0.2770  0.2292
87942W        W30880  13.728  34.663   3.923  0.0388 -0.1700  0.0038
87943W        W30881  12.610   1.156   5.280  0.1277 -0.2417 -0.1585
87944W        W30882  13.450   2.734   7.415  0.0918 -0.1603 -0.0823
87945W        W30883  12.397   1.337   3.345  0.0157  0.0927 -0.5047
87946W        W30884  12.945   0.305   7.282 -0.0224  0.0424 -0.2165
87947W        W30885  12.941   3.500   4.551  0.0828  0.1235  0.0508
87948W        W30886  13.454   3.698   4.603  0.3212  0.2303 -0.0212
87949W        W30887  14.597  34.611   4.218 -0.0003  0.1867 -0.2906
87950W        W30888  12.218   1.945   4.295  0.3028 -0.0745 -0.1903
87951W        W30889  11.408   3.752   6.839  0.4041 -0.0445  0.1503
87952W        W30890  13.314   0.674   4.639  0.1345  0.1109 -0.0877
87953W        W30891  13.124   1.536   3.707 -0.3127  0.1024  0.1422
87954W        W30892  13.512   2.253   5.485  0.0705 -0.2145 -0.0018
87955W        W30893  13.228   1.070   6.019  0.0631  0.2353  0.1127
87956W        W30894  11.953   0.469   4.929 -0.0220  0.5369 -0.1899
87957W        W30895  14.166   0.617   6.011 -0.2837 -0.0390  0.0250
87958W        W30896  10.624   2.771   3.766  0.0609  0.2730 -0.2545
87959W        W30897  12.751   0.249   6.248  0.0375  0.0501  0.0193
87960W        W30898  11.285   3.742   5.296  0.2032  0.2476  0.1469
87961W        W30899  10.951   2.910   5.770 -0.2222 -0.1506  0.1242
87962W        W30900  11.655   3.777   4.916 -0.0449  0.2571  0.1306
87963W        W30901  13.509   1.300   6.347 -0.1956 -0.0696  0.4134
87964W        W30902  14.545   0.137   5.183 -0.0598 -0.2257 -0.0413
87965W        W30903  12.622   1.587   4.967 -0.0593 -0.0819  0.5630
87966W        W30904  14.050   1.585   5.377 -0.4024 -0.1535  0.0211
87967W        W30905  14.313   1.908   6.462  0.1671 -0.0650  0.1502
87968W        W30906  12.670   1.563   5.560 -0.2627 -0.1381 -0.0722
87969W        W30907  12.557   1.557   6.593 -0.1278  0.0783  0.0324
87970W        W30908  14.726   2.867   3.855 -0.0265  0.0939  0.0971
87971W        W30909  12.896   3.128   5.940  0.0105 -0.0064  0.0141
87972W        W30910  10.736   1.739   6.570 -0.0324  0.0469  0.0176
87973W        W30911  13.966   1.658   7.408  0.1171  0.2413 -0.0799
87974W        W30912  13.736   3.045   5.095  0.1794  0.0225  0.1278
87975W        W30913  11.232   0.774   5.374 -0.1784  0.1717 -0.2973
87976W        W30914  13.454   1.979   3.952  0.4264  0.2935 -0.0124
87977W        W30915  11.987   3.900   7.939  0.0408 -0.0120  0.1063
87978W        W30916  10.574   2.553   5.673  0.2435  0.1589  0.0304
87979W        W30917  11.925   3.141   4.372 -0.0019 -0.1333  0.1531
87980W        W30918  13.072   3.018   3.818 -0.3186  0.1387 -0.0187
87981W        W30919  13.060   3.025   4.352 -0.1955 -0.2825  0.0534
87982W        W30920  14.134   3.185   6.106 -0.0963 -0.0073 -0.0703
87983W        W30921  13.558   0.296   4.331  0.1033  0.0281  0.0264
87984W        W30922  11.771   4.177   5.239  0.0078  0.1791 -0.0932
87985W        W30923  10.507   4.530   3.574  0.1324  0.0431  0.0927
87986W        W30924  13.266   2.534   4.511  0.0973  0.0962  0.0201
87987W        W30925  11.618   2.519   5.062  0.1163 -0.1591  0.1032
87988W        W30926  14.466   2.645   5.889 -0.5665 -0.2180  0.0484
87989W        W30927  14.294  33.967   3.620 -0.1297  0.4444  0.1559
87990W        W30928  14.566   1.666   3.967 -0.0533  0.0873  0.1585
87991W        W30929  14.783  33.907   2.786  0.0173 -0.2515 -0.0249
87992W        W30930  13.404   2.680   4.959  0.1034 -0.3022 -0.0763
87993W        W30931  12.629   1.404   6.142 -0.2901 -0.0904 -0.1039
87994W        W30932  12.362   0.557   4.123  0.2540 -0.2496 -0.1723
87995W        W30933  11.931   1.870   6.425  0.0216  0.0468  0.2569
87996W        W30934  14.468   1.863   7.368  0.1060 -0.1797  0.0092
87997W        W30935  11.302   3.378   7.154 -0.0037  0.0190 -0.0558
87998W        W30936  14.052   3.383   4.882  0.1704 -0.1787 -0.0110
87999W        W30937  12.222   1.488   3.995 -0.1987  0.0639  0.1227
88000W        W30938  12.096   2.333   4.915 -0.3069  0.2815 -0.1358
88001W        W30939  15.734  33.485   6.780  0.1057  0.2619 -0.0207
88002W        W30940  13.178   2.486   4.002 -0.1557 -0.0730  0.0741
88003W        W30941  13.161   1.470   5.088  0.1456 -0.3622 -0.0167
88004W        W30942  11.406   3.990   3.553 -0.1209 -0.3997 -0.2080
88005W        W30943  11.023   3.972   4.045  0.3089  0.0606  0.0556
88006W        W30944  12.581   3.116   4.583 -0.3815  0.2652 -0.0644
88007W        W30945  10.701   0.852   4.748 -0.3652  0.3657 -0.0775
88008W        W30946  15.188   0.853   5.109 -0.0090 -0.0815 -0.0745
88009W        W30947  11.993  34.524   8.422  0.0746  0.1318 -0.0782
88010W        W30948  14.789  34.475   6.613 -0.2593  0.0889 -0.1034
88011W        W30949  11.699   1.807   4.155  0.2649 -0.1250  0.0625
88012W        W30950  14.083   0.298   5.406  0.3333 -0.1501  0.1679
88013W        W30951  13.048   2.706   5.700 -0.3666  0.2870 -0.1608
88014W        W30952  12.477   0.360   7.538  0.0161  0.0519 -0.1748
88015W        W30953  12.802   0.626   4.480  0.0397 -0.1370 -0.1305
88016W        W30954  14.566   2.024   5.212  0.1171  0.1825  0.1306
88017W        W30955  13.984   0.537   4.069 -0.3122 -0.0962  0.0306
88018W        W30956  12.632   3.766   6.906 -0.2326 -0.0406 -0.1913
88019W        W30957  11.939   1.986   5.976  0.0204  0.0207 -0.2951
88020W        W30958  12.694   0.318   5.452 -0.3983 -0.1430  0.0317
88021W        W30959  13.363   2.027   4.457 -0.2282 -0.1102 -0.1380
88022W        W30960  13.776   1.492   6.931 -0.1312  0.2170 -0.1017
88023W        W30961  14.541   3.164   6.765  0.1964  0.0123  0.0012
88024W        W30962  12.118   0.471   5.944  0.0697 -0.1826 -0.1014
88025W        W30963  14.351   0.710   3.536  0.0145 -0.2465  0.0242
88026W        W30964  14.796   2.764   5.046 -0.0647 -0.2156  0.0789
88027W        W30965  11.775   3.126   3.594 -0.1581  0.1077 -0.0715
88028W        W30966  14.140   1.253   4.931  0.0275  0.0069 -0.1833
88029W        W30967  12.808   3.289   3.499 -0.2126  0.2502 -0.1336
88030W        W30968  12.192   0.667   6.967 -0.3263  0.2159  0.0328
88031W        W30969  14.468   3.111   5.719  0.1086 -0.1935  0.2653
88032W        W30970  14.323   3.528   5.514  0.0778 -0.1761  0.3317
88033W        W30971  12.633   0.218   4.976  0.5237  0.1423 -0.0534
88034W        W30972  12.481   1.854   6.227  0.0647 -0.0782  0.0362
88035W        W30973  10.933   3.546   4.462  0.1738 -0.0025 -0.3203
88036W        W30974  15.414  33.200   4.949  0.0624  0.0086 -0.1381
88037W        W30975  13.277   0.409   6.117  0.2126 -0.0123  0.1712
88038W        W30976  11.450   4.856   2.762 -0.1442 -0.1415 -0.0389
88039W        W30977  14.293  34.689   7.753  0.0978 -0.1068  0.1616
88040W        W30978  13.652   3.246   6.455 -0.0669  0.3410  0.0429
88041W        W30979  12.212   4.017   6.210 -0.0658 -0.2143  0.2687
88042W        W30980  11.361   2.043   3.495 -0.0515 -0.0836 -0.0595
88043W        W30981  13.762   3.309   5.610  0.0250  0.2098 -0.0200
88044W        W30982  12.122   2.832   3.885  0.1720  0.1513 -0.1067
88045W        W30983  11.983   4.293   3.637  0.0454  0.0871  0.0366
88046W        W30984  13.651   3.878   7.409 -0.1558 -0.0686 -0.0784
88047W        W30985  13.910   1.460   4.568 -0.0718  0.3069  0.1883
88048W        W30986  13.927   2.078   5.196  0.1035 -0.2453  0.1876
88049W        W30987  12.501   0.663   6.166  0.1158  0.1164  0.0305
88050W        W30988  15.586  34.566   2.362  0.1015  0.1318 -0.2083
88051W        W30989  14.304   0.528   4.954  0.2009 -0.1243  0.1801
88052W        W30990  12.208   2.376   7.098  0.0596 -0.0660  0.1526
88053W        W30991  13.063   0.695   3.226 -0.2689 -0.1040  0.2462
88054W        W30992  12.305   2.116   3.199 -0.0670  0.2557  0.0405
88055W        W30993  11.254   1.709   6.408  0.0241 -0.4523 -0.3659
88056W        W30994  13.061  33.985   8.306 -0.1752 -0.2465 -0.1027
88057W        W30995  13.127   0.769   7.350  0.1556 -0.0064  0.1863
88058W        W30996  11.710   1.774   5.510  0.4973  0.0874  0.0175
88059W        W30997  12.183   1.625   5.319  0.0816 -0.0247 -0.1519
88060W        W30998  14.140   2.382   3.140  0.1664 -0.0090 -0.2681
88061W        W30999  11.405   1.039   6.302  0.1996  0.2207  0.0369
88062W        W31000  10.913   1.493   4.770  0.1995  0.1028  0.2079
88063W        W31001  13.492   2.734   3.704  0.2589 -0.0891 -0.0062
88064W        W31002  15.155   2.550   4.174  0.2571 -0.3247  0.0422
88065W        W31003  13.100   0.381   5.064  0.2781  0.2915 -0.2048
88066W        W31004  14.198   3.008   7.555 -0.0251 -0.1507 -0.1077
88067W        W31005  10.891   3.187   3.489 -0.3232 -0.2356 -0.0854
88068W        W31006  12.781   1.558   7.814 -0.2147 -0.3684 -0.0300
88069W        W31007  12.702  34.563   7.435 -0.2314 -0.0918  0.1585
88070W        W31008  11.558   1.600   2.716 -0.3460  0.1553  0.0295
88071W        W31009  13.193   1.314   5.579  0.0679  0.2959 -0.3260
88072W        W31010  12.536   2.867   3.591 -0.0846  0.0247  0.3536
88073W        W31011  15.197   4.023   3.613 -0.0940  0.3401 -0.1178
88074W        W31012  12.598   2.387   5.453  0.2636  0.1708  0.0006
88075W        W31013  12.159   3.287   7.229 -0.3319 -0.0650 -0.0613
88076W        W31014  11.218   0.548   6.853  0.2338  0.1805  0.1077
88077W        W31015  13.465   1.525   4.293  0.1753  0.3709  0.1535
88078W        W31016  11.423   2.642   7.448 -0.1458  0.0954 -0.1588
88079W        W31017  14.602   2.385   4.026  0.2820  0.2173  0.1939
88080W        W31018  15.102   0.051   6.341 -0.4247 -0.0849  0.0763
88081W        W31019  14.638   1.540   3.466  0.0964  0.0796 -0.1685
88082W        W31020  11.705  34.647   7.122 -0.2017  0.3070 -0.1789
88083W        W31021  12.215   2.772   6.352 -0.0999 -0.0569 -0.2155
88084W        W31022  14.425   2.582   5.380 -0.0056  0.1214 -0.1080
88085W        W31023  11.985   0.375   6.409 -0.3706  0.2109 -0.2843
88086W        W31024  13.001  33.794   2.909  0.1188 -0.0973 -0.1349
88087W        W31025  12.685   3.296   3.023  0.1536  0.1724 -0.0082
88088W        W31026  11.475   0.103   6.697 -0.0761 -0.0642 -0.1256
88089W        W31027  13.374   0.896   5.165 -0.0117 -0.2814 -0.2357
88090W        W31028  12.909   2.139   6.100  0.0954  0.0644 -0.2543
88091W        W31029  12.473   2.078   5.777 -0.0052 -0.0101  0.2740
88092W        W31030  14.153   2.654   6.289 -0.0300  0.0076 -0.1233
88093W        W31031  13.511   1.156   4.714  0.0369  0.2201  0.1184
88094W        W31032  15.508   1.697   3.906  0.0765  0.1009 -0.2175
88095W        W31033  12.870   3.325   5.070  0.0492 -0.1539 -0.3247
88096W        W31034  14.058   2.923   6.722  0.2755 -0.2926 -0.0311
88097W        W31035  12.348   3.093   7.671 -0.1013  0.0992  0.1482
88098W        W31036  13.855   0.849   4.927  0.0124  0.0221 -0.2127
88099W        W31037  11.372   0.013   6.173  0.0319  0.1251 -0.0532
88100W        W31038  11.940   2.418   4.113 -0.3089  0.2510 -0.3067
88101W        W31039  11.976   3.447   3.970  0.0922 -0.0657  0.1022
88102W        W31040  14.512   1.450   5.184 -0.1655 -0.1335 -0.1768
88103W        W31041  12.021   2.587   5.743  0.2668 -0.1061 -0.3425
88104W        W31042  12.799   0.218   4.148  0.1672 -0.1087  0.0215
88105W        W31043  12.339   3.281   6.770  0.4316  0.2078 -0.0717
88106W        W31044  13.402   2.402   5.944 -0.0302  0.0319 -0.3475
88107W        W31045  11.757   3.077   9.465  0.2163 -0.0574  0.0112
88108W        W31046  12.552  33.437   8.872 -0.0186 -0.0324  0.0923
88109W        W31047  14.067   2.418   6.852 -0.0173 -0.1902  0.0160
88110W        W31048  14.741   1.269   7.570  0.2971  0.0195 -0.1916
88111W        W31049  10.670  34.492   8.019 -0.1742  0.1204 -0.1796
88112W        W31050  13.061   3.781   7.970 -0.0482 -0.1946 -0.4118
88113W        W31051  18.024   3.721   9.671 -0.0609  0.1156 -0.0165
88114W        W31052  14.207   5.794   9.156 -0.0537  0.0422 -0.2918
88115W        W31053  13.577   3.027   5.976  0.1175 -0.4442 -0.0064
88116W        W31054  12.506   2.747   8.074 -0.4398 -0.0930 -0.2322
88117W        W31055  12.450   0.892   8.320  0.0364  0.0637  0.0022
88118W        W31056   9.499  34.585  10.027 -0.0462 -0.1080 -0.0214
88119W        W31057  12.200   3.348   9.603  0.2201 -0.1977 -0.2208
88120W        W31058  11.547   1.148   8.591 -0.0446  0.4394  0.0300
88121W        W31059  11.522   1.946   8.957  0.0267  0.1723 -0.1335
88122W        W31060  11.803   0.973   9.030  0.2179 -0.1360 -0.1433
88123W        W31061  13.097   3.395   9.377  0.1402  0.2995  0.1546
88124W        W31062  14.191  33.263   9.241 -0.1991 -0.0921  0.3335
88125W        W31063  13.428   2.459   7.841  0.0433 -0.1460 -0.3022
88126W        W31064  12.094   0.810   7.429 -0.0881  0.1194  0.3268
88127W        W31065  12.149   2.431   8.866 -0.1237 -0.1551  0.0584
88128W        W31066  12.287   1.866   8.622 -0.0487  0.1627  0.2912
88129W        W31067  12.804   1.059  10.791  0.2011  0.0139  0.0210
88130W        W31068  14.412   3.062   9.744 -0.2691  0.0730  0.1311
88131W        W31069  13.525   3.123   9.139  0.0078  0.1800  0.0093
88132W        W31070  13.640   3.230   8.281  0.3073 -0.3632 -0.0489
88133W        W31071  13.176   2.372   9.274  0.0724  0.1299 -0.0753
88134W        W31072  12.545   2.736   8.645  0.2310  0.0926 -0.0855
88135W        W31073  12.639   2.531   9.081  0.1523 -0.1085 -0.2364
88136W        W31074  15.301   2.476   7.398  0.0435 -0.1238 -0.0850
88137W        W31075  11.899   2.504   7.759  0.1154  0.1984 -0.1083
88138W        W31076  12.569   2.308   8.421 -0.1233 -0.0995 -0.0848
88139W        W31077  12.590   1.287   8.544  0.0294 -0.1264 -0.0059
88140W        W31078  13.501   2.633   8.949 -0.0257 -0.0025  0.0063
88141W        W31079  13.472   2.425   6.840  0.0997  0.1616  0.2253
88142W        W31080  11.953   3.309   9.028  0.0683  0.0791  0.1504
88143W        W31081  12.906   3.776   7.473 -0.1797 -0.0416 -0.1587
88144W        W31082  13.839   2.104   7.680  0.0113  0.4984 -0.1408
88145W        W31083  13.586   1.248   7.310  0.2456  0.1664 -0.0634
88146W        W31084  14.466   1.019   7.984 -0.1171 -0.1296  0.0120
88147W        W31085  12.204  33.733   8.500  0.1355 -0.0173 -0.2694
88148W        W31086  11.776   3.584   9.429  0.0386 -0.0151 -0.0946
88149W        W31087  12.697   1.004  10.223  0.4321 -0.0952  0.0508
88150W        W31088  13.246   2.220   7.384 -0.0843  0.1039 -0.1049
88151W        W31089  12.478   1.616  10.057 -0.2122  0.1163 -0.1631
88152W        W31090  14.461   1.878   9.765 -0.0226  0.2028  0.2925
88153W        W31091  10.800   0.763   9.078  0.3283  0.2909 -0.0427
88154W        W31092  14.268   4.325   6.695 -0.0860 -0.0026 -0.2343
88155W        W31093  12.854   2.719   7.658  0.1663 -0.0857 -0.1407
88156W        W31094  13.362   3.522   7.613  0.1596 -0.1551 -0.1704
88157W        W31095  10.722   1.053   8.679 -0.1002  0.0437 -0.2320
88158W        W31096  13.379   0.507   8.209 -0.0193 -0.0629  0.0623
88159W        W31097  15.219   0.114   8.326  0.2446 -0.2066 -0.0658
88160W        W31098  13.422   1.736   8.581  0.1447 -0.3091 -0.2364
88161W        W31099  15.847   3.638   9.801  0.1361 -0.0515 -0.1842
88162W        W31100  14.243   2.321   7.379 -0.1383 -0.1620  0.1893
88163W        W31101  13.887   0.648   9.541  0.0138 -0.0193 -0.0142
88164W        W31102  13.152  33.821   9.583  0.1453  0.0076  0.0122
88165W        W31103  12.424   1.088   7.103 -0.2462  0.2898 -0.0259
88166W        W31104  12.728   1.939   8.169  0.0024 -0.1336 -0.1399
88167W        W31105  15.722   1.620   9.626 -0.1407  0.3240 -0.0970
88168W        W31106  15.620   1.394   6.685 -0.0709 -0.2003 -0.0582
88169W        W31107  11.697   3.355   9.889 -0.5047 -0.0245  0.1909
88170W        W31108  11.147   4.307   6.906  0.3383  0.0476 -0.0633
88171W        W31109  12.072   2.701   9.437  0.0348  0.2979 -0.2055
88172W        W31110  12.000   1.230   8.355 -0.0027  0.0267  0.1143
88173W        W31111  11.962   1.538   9.272 -0.0863 -0.1192  0.2105
88174W        W31112  13.722   0.888   9.972 -0.1672  0.5105  0.0449
88175W        W31113  15.079   1.612   8.655 -0.1174 -0.0854 -0.1237
88176W        W31114  15.515  32.611   8.975  0.0880 -0.0995 -0.2896
88177W        W31115  13.018   1.681   9.884 -0.2666 -0.2244  0.1430
88178W        W31116  13.621   2.713   6.378  0.0323  0.3440  0.2102
88179W        W31117  14.906   2.560   6.982 -0.1975 -0.1642 -0.0858
88180W        W31118  12.460   0.665  10.491  0.1042 -0.0375  0.1249
88181W        W31119  10.238  34.671   9.605  0.1137 -0.1238 -0.0074
88182W        W31120  10.749   1.089   9.422  0.2632  0.2724 -0.2076
88183W        W31121  11.742   0.478   6.919 -0.0773  0.1875  0.0792
88184W        W31122  14.238   1.595   9.368  0.2602  0.0567 -0.1128
88185W        W31123  11.637   2.409   9.200 -0.3149  0.0697  0.2642
88186W        W31124  10.714   2.478   8.708 -0.1198 -0.2325  0.1447
88187W        W31125  12.642   3.377   7.246  0.0152  0.2369 -0.0740
88188W        W31126  15.274   4.836   9.332 -0.2716  0.1132 -0.2053
88189W        W31127  14.811   3.774   8.531  0.0626 -0.0956  0.0219
88190W        W31128  11.842   1.574   8.771 -0.0081  0.1110 -0.1500
88191W        W31129  11.407   0.280   7.681 -0.0045  0.4881  0.3489
88192W        W31130  10.991   5.202   9.638  0.1851  0.1597  0.0284
88193W        W31131  14.538   1.473   8.148 -0.2784 -0.0936 -0.0461
88194W        W31132  11.910   1.790   8.270  0.1643 -0.4997  0.0570
88195W        W31133  15.566   2.417   8.676 -0.1734  0.2393  0.1891
88196W        W31134  14.830   0.646   7.649 -0.0574  0.3127 -0.0766
88197W        W31135  14.362   1.172   9.131 -0.1912  0.2105 -0.2075
88198W        W31136  13.811   0.862   8.992 -0.2236 -0.2072  0.1054
88199W        W31137  11.266  34.355   7.040 -0.0347 -0.0197 -0.2914
88200W        W31138  16.035   2.245   9.596  0.0005 -0.3473  0.2214
88201W        W31139  12.229   2.100   8.039  0.0666 -0.1631  0.0363
88202W        W31140  11.511   0.037   8.661 -0.1390 -0.0624  0.1352
88203W        W31141  13.731   2.752   9.503 -0.0962  0.0146 -0.1244
88204W        W31142  12.369   1.844   9.633  0.2704  0.2129 -0.2395
88205W        W31143  10.612   1.246   6.681  0.0470 -0.2681  0.1589
88206W        W31144  13.681   1.287   8.450 -0.0462  0.2604  0.1610
88207W        W31145  16.299   0.033   8.433 -0.0767 -0.0060 -0.1845
88208W        W31146  14.645   2.438   9.836  0.0570 -0.4303  0.2738
88209W        W31147  13.506   1.288   7.796 -0.0955 -0.0429 -0.1298
88210W        W31148  13.988  33.542   8.017  0.1256 -0.0539 -0.0520
88211W        W31149  14.786   2.320   7.366  0.0638  0.1070 -0.1421
88212W        W31150  14.089   1.646   8.491 -0.1099 -0.2521  0.2479
88213W        W31151  12.884   1.109   8.040  0.0125 -0.0764  0.3010
88214W        W31152  14.774   1.745   7.757 -0.0505 -0.0524  0.2619
88215W        W31153   8.768   3.501  10.144 -0.0065 -0.2141  0.1392
88216W        W31154  15.417   2.144   8.044 -0.0323  0.1585 -0.1281
88217W        W31155  10.745  33.979   9.685  0.0357 -0.0325  0.2421
88218W        W31156  12.350   1.202   7.913  0.1079  0.3887  0.3191
88219W        W31157  13.922   0.710   7.982  0.2463 -0.2374  0.0839
88220W        W31158  10.036   3.292   8.145 -0.1419 -0.0688  0.0103
88221W        W31159  14.069   1.368   9.782  0.0237 -0.6360  0.0215
88222W        W31160  12.120   1.391   9.699 -0.2479  0.0565 -0.0558
88223W        W31161  14.275   1.381   7.203  0.1855 -0.1611  0.0894
88224W        W31162  12.129   2.535   8.360  0.1385  0.5021 -0.1160
88225W        W31163  11.699   1.522   5.964 -0.0408 -0.0318  0.3118
88226W        W31164  14.014  34.554   8.513  0.2754  0.0307  0.2155
88227W        W31165  10.956   4.199   9.583 -0.0894 -0.0841  0.0758
88228W        W31166  14.131   2.662   8.396 -0.1683  0.1287 -0.1033
88229W        W31167  12.081   0.221   8.659  0.0182 -0.1187 -0.1055
88230W        W31168  12.895   4.097   8.269  0.0363 -0.1118  0.0368
88231W        W31169  13.053   2.627   8.713 -0.0420  0.3143  0.3440
88232W        W31170  12.630  34.493   8.896 -0.0869  0.0393 -0.1183
88233W        W31171  13.240   2.092   8.284  0.1556 -0.1432 -0.1089
88234W        W31172  13.112   3.169   7.311  0.1094 -0.3105 -0.3189
88235W        W31173  13.498   1.391   9.605  0.0691  0.3428  0.0705
88236W        W31174  11.549   4.193   7.891 -0.0523  0.0340  0.0451
88237W        W31175  16.687  33.880   9.105  0.0447 -0.2650 -0.0085
88238W        W31176  11.391   2.962   7.862  0.1300  0.0369 -0.1916
88239W        W31177  13.211   1.565   8.138  0.2042 -0.2558  0.0389
88240W        W31178   9.813   0.626   8.282  0.1046 -0.2115 -0.0905
88241W        W31179  16.321  32.972  10.105  0.4047 -0.1716 -0.0266
88242W        W31180  15.198   0.381   7.324  0.2150 -0.1242 -0.1844
88243W        W31181   9.217   1.513   9.814  0.3955  0.0052  0.4424
88244W        W31182  12.968   0.124   8.256 -0.4630  0.3432  0.0086
88245W        W31183  10.782   4.011   8.856 -0.0870  0.0006 -0.0085
88246W        W31184  13.927   1.085   7.682 -0.1323 -0.2405  0.2179
88247W        W31185  10.912   1.395   7.947 -0.0787  0.0030 -0.0777
88248W        W31186  14.400   0.161   8.358  0.0189  0.0414  0.0480
88249W        W31187  13.380   1.382   8.976 -0.1975  0.1706 -0.0634
88250W        W31188  11.257   2.581   8.257 -0.0273 -0.1058 -0.0956
88251W        W31189  14.350   3.931   8.705 -0.0767 -0.1890  0.2046
88252W        W31190  11.691   1.901   7.798 -0.0269  0.0512 -0.5148
88253W        W31191  12.860   3.325   7.706 -0.0397 -0.3241  0.3047
88254W        W31192  14.724   1.784   9.247  0.1837 -0.4665 -0.0472
88255W        W31193  11.092   0.582   7.366 -0.0422 -0.0113  0.2920
88256W        W31194  12.700   0.328   8.915 -0.2443  0.2052 -0.0305
88257W        W31195  12.915   1.219   8.946 -0.0682  0.0527  0.1989
88258W        W31196  14.533   2.738   8.813  0.2561  0.1265 -0.1238
88259W        W31197  11.975   0.955  11.140 -0.1080 -0.2138  0.0978
88260W        W31198  10.309   1.191   9.990 -0.0250 -0.0994 -0.3745
88261W        W31199  13.030   3.988   6.748  0.2335  0.0732  0.0570
88262W        W31200  12.968   2.595   8.193  0.2583  0.1802  0.2575
88263W        W31201  11.523   2.486   8.724 -0.1089 -0.2169  0.1474
88264W        W31202  13.463   2.548   8.428  0.4784 -0.0164  0.0261
88265W        W31203  14.980  34.311   9.290 -0.1157  0.2323 -0.0598
88266W        W31204  12.516   1.589   8.999  0.1759  0.2042  0.0996
88267W        W31205  12.581   2.526   6.732  0.0650 -0.1518 -0.0451
88268W        W31206  10.841   3.117   9.425 -0.2221 -0.0172 -0.2995
88269W        W31207  13.719   0.290   6.892 -0.0816 -0.2351 -0.2839
88270W        W31208  14.564   2.259   6.950 -0.2445 -0.3192 -0.0491
88271W        W31209  12.576   0.814   8.804  0.0447 -0.0587  0.0853
88272W        W31210  14.614   1.051   6.929 -0.1877 -0.0783  0.4369
88273W        W31211  10.600  34.370   9.233 -0.1435 -0.2671 -0.2385
88274W        W31212  13.779   2.817   8.075  0.1315  0.0632 -0.1461
88275W        W31213  13.507   2.145   8.815  0.0585 -0.1597  0.1688
88276W        W31214  13.372   0.928   8.723  0.2546 -0.1452  0.2537
88277W        W31215  11.404   2.938   9.202 -0.0671 -0.0505 -0.0688
88278W        W31216  14.481   1.523  10.074 -0.2490  0.2510  0.1298
88279W        W31217  14.520   2.144   7.755 -0.2080 -0.0305 -0.0697
88280W        W31218  17.262   0.653  10.280 -0.1452  0.2670 -0.0353
88281W        W31219  12.565   3.379   9.243 -0.0097  0.1932 -0.0900
88282W        W31220  14.817   0.977   8.360 -0.0438 -0.0665  0.0022
88283W        W31221  13.441   1.704   7.337 -0.4688 -0.4399  0.0523
88284W        W31222  13.865   1.829   9.666  0.2579 -0.0082  0.0351
88285W        W31223  15.214   1.588   9.288  0.3236 -0.0234 -0.1907
88286W        W31224  14.987   0.488   9.168  0.1885  0.1954  0.1645
88287W        W31225  13.693   4.442   8.715  0.0190 -0.2936  0.1081
88288W        W31226  14.113   1.842   6.963 -0.1271 -0.1051 -0.1215
88289W        W31227  16.344  31.669   9.508  0.1981 -0.1333 -0.1806
88290W        W31228  14.159   1.961   8.921 -0.4374 -0.1396 -0.0032
88291W        W31229  13.793   0.379   8.648 -0.0974  0.0868 -0.0678
88292W        W31230  11.964   0.668   9.578  0.1488  0.0434 -0.1523
88293W        W31231  12.371   0.696   7.864  0.2409 -0.0986  0.1483
88294W        W31232  12.356   2.438   7.648  0.0797 -0.2657 -0.3255
88295W        W31233  14.106   3.132   8.454  0.1663 -0.1628 -0.2684
88296W        W31234  13.515   0.460   9.069 -0.0597  0.0458  0.2124
88297W        W31235  10.068   0.316   8.748 -0.1296  0.0845  0.1960
88298W        W31236  12.498   1.440   7.426 -0.1307 -0.0377  0.2764
88299W        W31237  14.053   2.568   7.722  0.2329  0.0080  0.0033
88300W        W31238  14.729   0.274   9.633  0.1844  0.3800 -0.1554
88301W        W31239  12.708  34.524   7.944  0.0264  0.1112  0.2110
88302W        W31240  10.969   3.813   7.190 -0.2375  0.1538  0.0171
88303W        W31241  15.537   1.882   8.848 -0.0303 -0.0412 -0.1736
88304W        W31242  12.324   2.137  10.039 -0.1139  0.0212 -0.0103
88305W        W31243  11.805   3.382   8.512  0.0322 -0.0259 -0.1501
88306W        W31244  13.884  33.573   9.602  0.1582 -0.0585 -0.2378
88307W        W31245  11.527   2.005  10.016 -0.2251 -0.1045  0.0893
88308W        W31246  14.136   1.856   7.970 -0.0526  0.2202  0.2839
88309W        W31247  11.069   2.058   9.228  0.0540  0.2432 -0.1104
88310W        W31248  15.566   2.791   8.975 -0.1252  0.0896 -0.1423
88311W        W31249  12.914   3.614   8.483 -0.2546  0.1072  0.0040
88312W        W31250  14.057   1.296   8.095  0.1021 -0.0631 -0.1542
88313W        W31251  11.200   0.455   8.338 -0.0980 -0.0321  0.0021
88314W        W31252  13.150   2.793   6.176  0.2769  0.2534  0.1084
88315W        W31253  10.340   2.998   9.508  0.0701 -0.0987 -0.1860
88316W        W31254  12.228   4.212   7.650 -0.2115  0.0909  0.0463
88317W        W31255  14.756   0.549   7.103 -0.1020 -0.1620  0.1451
88318W        W31256  14.737   3.252   8.815  0.2274 -0.0852 -0.1655
88319W        W31257  15.327   3.849   8.668  0.1888  0.4968 -0.2892
88320W        W31258  11.629   0.538   8.623 -0.0141  0.1633 -0.0653
88321W        W31259  12.831   3.041   8.936 -0.0413 -0.2162  0.2250
88322W        W31260  11.663   3.195   7.481 -0.1518  0.3198 -0.3021
88323W        W31261  12.017   2.783   7.330 -0.0128  0.1435  0.1669
88324W        W31262  11.718   3.336   8.018  0.2516 -0.0712 -0.2926
88325W        W31263  14.849   0.534   8.141  0.0119  0.0144 -0.1924
88326W        W31264  16.760   1.897   9.782 -0.0412  0.1985 -0.0747
88327W        W31265  15.096   0.119   6.885  0.1054  0.0734 -0.1511
88328W        W31266  12.569   1.197   9.763  0.0270 -0.1862  0.0571
88329W        W31267  13.359   0.992   8.213  0.0549 -0.0442  0.0912
88330W        W31268  14.339   2.997   8.038  0.2170  0.0435 -0.0849
88331W        W31269  11.069   1.961   6.893  0.0496 -0.0645  0.1172
88332W        W31270  11.387   1.638   8.575 -0.0748 -0.1762  0.0732
88333W        W31271  14.089  33.511   8.544 -0.2182  0.0612  0.1570
88334W        W31272  13.112   2.041   6.954  0.1521  0.0218 -0.0961
88335W        W31273   9.440   0.851   9.014  0.1738 -0.0865  0.1418
88336W        W31274  12.545   3.332   8.627  0.1592  0.1854  0.3421
88337W        W31275  12.017   1.573  10.302 -0.0243  0.2991  0.1267
88338W        W31276  13.436   2.302   9.728 -0.0485  0.0075  0.4230
88339W        W31277  10.323   0.237   6.786 -0.3503 -0.0936  0.0476
88340W        W31278  15.962   1.878   7.926 -0.1955  0.3187  0.1625
88341W        W31279  11.749   3.097  10.388  0.1532  0.2379 -0.0592
88342W        W31280  12.996   2.150   8.744  0.4123 -0.0759 -0.3736
88343W        W31281  14.354   1.037  10.127 -0.1169 -0.1158 -0.0026
88344W        W31282  13.414   0.786   9.401  0.1615  0.0235 -0.2112
88345W        W31283  11.171   2.877   8.695 -0.1348  0.1295  0.0258
88346W        W31284  13.290   2.924   7.964 -0.2411 -0.2194 -0.1043
88347W        W31285  13.398   1.681   6.736  0.1769 -0.2430 -0.1800
88348W        W31286  10.389  34.141  10.026  0.1208  0.2719  0.0044
88349W        W31287  13.079   1.252   7.504 -0.0111  0.0573 -0.0230
88350W        W31288  12.960   2.264   7.796  0.2993 -0.0421  0.1212
88351W        W31289  12.839   1.724   8.607 -0.0536 -0.1118  0.0752
88352W        W31290   9.619   0.123   8.569  0.2557  0.0207 -0.0176
88353W        W31291  13.787   2.162   7.161  0.1119 -0.4327  0.0017
88354W        W31292  12.147   0.976   9.992 -0.0368 -0.0442 -0.1008
88355W        W31293  11.546   4.123   7.342 -0.1382 -0.0638 -0.5238
88356W        W31294  15.390   1.307   8.922 -0.1665  0.3211 -0.0259
88357W        W31295  15.492   4.522  10.167  0.1078  0.2841  0.2592
88358W        W31296  12.210   0.408  10.113 -0.0259 -0.1123 -0.0915
88359W        W31297  12.850   3.496   9.854  0.0971  0.1324  0.0412
88360W        W31298  16.981   2.428   9.627 -0.1862  0.0498 -0.0057
88361W        W31299  13.844   0.829   8.449  0.0182  0.0236  0.1242
88362W        W31300  11.502   0.641   9.386 -0.2489 -0.0637 -0.0148
88363W        W31301  12.855   3.040   8.419 -0.0342 -0.1821  0.0292
88364W        W31302  15.821   2.770   9.457  0.0059 -0.0011  0.0163
88365W        W31303  12.427   3.429   5.991 -0.2429  0.0836  0.0182
88366W        W31304  14.350   2.193   9.322  0.0610  0.2406 -0.2014
88367W        W31305  11.926   0.741   8.174  0.0075 -0.0519  0.2030
88368W        W31306  14.071   2.282   9.761 -0.0005 -0.0598  0.0536
88369W        W31307  13.737   2.914   8.675 -0.1744 -0.3024  0.4399
88370W        W31308  15.980   4.204   9.904 -0.0940  0.2432  0.2830
88371W        W31309  14.336   1.190   8.526  0.4569  0.1704  0.1967
88372W        W31310  14.719   2.488   9.181 -0.0221 -0.3550 -0.0516
88373W        W31311  13.229   0.347   8.642 -0.2421  0.0254 -0.2291
88374W        W31312  15.006   2.143   9.479 -0.0710 -0.1506  0.1703
88375W        W31313  15.292   1.408   7.590  0.2426  0.0111 -0.0025
88376W        W31314  11.506   1.389   9.064  0.2332 -0.0998  0.0029
88377W        W31315  11.858   1.639   7.381 -0.1514 -0.0756 -0.1272
88378W        W31316  12.666   2.211   7.144 -0.0178  0.0336  0.3743
88379W        W31317  12.324   3.027   8.945 -0.1419  0.3628 -0.3478
88380W        W31318  11.494   1.401   7.549  0.2090  0.0091  0.0178
88381W        W31319  12.852   0.580   8.027  0.2332 -0.2073 -0.1763
88382W        W31320  13.886   2.683   7.222 -0.0107 -0.1371 -0.0560
88383W        W31321   9.862   1.009   9.170  0.1194  0.0023 -0.0921
88384W        W31322   8.958   0.531   8.677 -0.0465  0.0791 -0.1407
88385W        W31323  12.485   2.045   9.156 -0.3125  0.2675 -0.2616
88386W        W31324  14.780   1.953   8.228 -0.0143 -0.0344 -0.0319
88387W        W31325  13.110   1.312   8.523  0.1536  0.0061  0.2931
88388W        W31326  11.446   1.924   5.979  0.0650  0.1860  0.1336
88389W        W31327  10.546   0.239   6.276  0.1103 -0.0275  0.0754
88390W        W31328  11.715   0.342  10.004 -0.1139 -0.0031  0.2726
88391W        W31329  12.553   4.463   8.092  0.0482 -0.1355 -0.1405
88392W        W31330  14.165   3.253   7.132 -0.3348 -0.2248  0.2970
88393W        W31331  11.975   2.248   9.655  0.2339  0.0915 -0.1214
88394W        W31332  14.603   1.756   6.878 -0.1430 -0.0793  0.0056
88395W        W31333  14.270   2.697   9.416 -0.0602 -0.0878  0.0151
88396W        W31334  14.198   0.615   9.157  0.2567  0.0810 -0.0051
88397W        W31335  14.593   2.495   8.232 -0.2072  0.0901  0.0936
88398W        W31336  17.142  33.576  10.219 -0.2953 -0.1677 -0.1189
88399W        W31337  11.015  34.411   9.516  0.0391  0.0481  0.2563
88400W        W31338  12.629   0.632   9.341  0.0369  0.0142 -0.3299
88401W        W31339  13.846   2.246   8.248  0.2731 -0.2588 -0.1158
88402W        W31340  11.858   2.096   8.619 -0.0619 -0.2089 -0.1473
88403W        W31341  13.145   1.850   9.069 -0.0720 -0.0279  0.2546
88404W        W31342  13.702   1.772   9.178  0.1131 -0.0767  0.0820
88405W        W31343  12.340   2.041   6.726 -0.0617  0.0086  0.2065
88406W        W31344  15.883   1.390   7.094  0.0131 -0.3310 -0.0733
88407W        W31345  15.238   5.638   9.198  0.2520 -0.0215 -0.2274
88408W        W31346  15.959   5.095  10.117  0.1620  0.0781 -0.2048
88409W        W31347  14.797   2.826   9.514 -0.1780  0.0153 -0.0877
88410W        W31348   7.740   0.273  12.160  0.1342 -0.0742  0.0783
88411W        W31349  12.458   2.513   9.745  0.1131  0.0049 -0.1364
88412W        W31350  13.705   1.769   8.168  0.0021 -0.0802 -0.0868
88413W        W31351  15.641  32.399   9.481  0.0616 -0.0205 -0.1748
88414W        W31352  10.550   1.393   8.346 -0.3043 -0.0812  0.0120
88415W        W31353  13.898   1.007   6.324 -0.0933  0.1972  0.0515
88416W        W31354  13.295   3.084   8.698  0.1968  0.1322  0.2337
88417W        W31355  13.882   1.190   9.346  0.0078  0.2727  0.0038
88418W        W31356   9.935   6.833   3.232 -0.1324 -0.1401  0.1154
88419W        W31357  12.956   3.655   1.388 -0.0773  0.0708 -0.0668
88420W        W31358  15.645   5.866   0.679 -0.0353  0.2464 -0.3535
88421W        W31359  14.031   6.108   1.891 -0.0403  0.0021 -0.1613
88422W        W31360  10.407   4.861   1.191  0.5519 -0.0074 -0.3565
88423W        W31361  13.418   7.769   0.344 -0.2878  0.1187  0.2143
88424W        W31362  13.037   4.668   2.440  0.1845  0.2510  0.0487
88425W        W31363  13.090   5.920   0.076 -0.0268 -0.2112  0.2284
88426W        W31364  13.642   8.303   0.685  0.1229 -0.2967 -0.0341
88427W        W31365  14.623   4.563  31.916 -0.0429 -0.0710 -0.0666
88428W        W31366  11.711   4.393   2.451 -0.3233 -0.3588  0.0965
88429W        W31367  11.274   7.325   2.903  0.0314  0.1518 -0.1607
88430W        W31368  12.339   3.744   0.824 -0.0644  0.1806  0.0105
88431W        W31369  10.973   3.147   1.642  0.0006 -0.0293 -0.1973
88432W        W31370  13.394   4.972   2.099 -0.2275 -0.1618 -0.1468
88433W        W31371  10.783   6.009   1.027 -0.0551 -0.0063  0.0564
88434W        W31372  11.910   4.880   2.167  0.1328 -0.0159 -0.1887
88435W        W31373  12.075   4.914   0.160  0.1823 -0.1461  0.1934
88436W        W31374  13.915   8.270   1.171  0.0774 -0.2238  0.3980
88437W        W31375  12.490   4.800   1.359 -0.2745 -0.1179 -0.1240
88438W        W31376  13.522   4.424   2.974 -0.1777 -0.0188  0.3620
88439W        W31377  12.142   6.062   1.669 -0.0507 -0.2050 -0.1588
88440W        W31378  12.180   4.384   1.206  0.0938 -0.0930 -0.4596
88441W        W31379  11.238   5.353   1.532  0.1005  0.2188 -0.1712
88442W        W31380  13.249   5.954   2.847 -0.3050 -0.2136  0.0910
88443W        W31381  14.803   4.692   2.374  0.0333 -0.2186 -0.3254
88444W        W31382  13.935   3.421   1.647  0.2253 -0.0447 -0.0583
88445W        W31383  12.804   7.289   0.852 -0.0072  0.2251 -0.0872
88446W        W31384  12.555   7.142   1.639  0.2117  0.3306  0.0047
88447W        W31385  14.037   4.411   2.200 -0.1282 -0.2605  0.0300
88448W        W31386  10.747   6.429   1.395  0.1051  0.0999 -0.1773
88449W        W31387  10.722   7.968   1.404 -0.0368  0.0218  0.1767
88450W        W31388  10.446   6.353   1.803  0.2430 -0.0561 -0.2268
88451W        W31389  13.916   6.217   0.895 -0.0579 -0.0347  0.0671
88452W        W31390  14.723   6.890   3.053 -0.1377 -0.2514 -0.1987
88453W        W31391  13.976   7.173   4.085  0.4476 -0.1053 -0.0999
88454W        W31392  10.966   6.755  31.321 -0.0638 -0.1148 -0.2177
88455W        W31393  13.474   6.372   3.086 -0.1405 -0.2735 -0.0632
88456W        W31394  12.830   7.608   3.112  0.1621 -0.1351  0.0390
88457W        W31395  12.912   5.984   2.449 -0.2132  0.0799  0.2379
88458W        W31396  11.262   5.461   1.017  0.1714  0.1967 -0.1711
88459W        W31397  11.095   6.821   0.397 -0.2088 -0.3885  0.1081
88460W        W31398  11.646   5.966   0.407 -0.0452 -0.3184  0.0614
88461W        W31399   9.957   6.733   2.729 -0.0303 -0.1080 -0.0683
88462W        W31400   9.571   7.198   1.413 -0.4736 -0.0674  0.1273
88463W        W31401  16.142   3.690   3.987 -0.0187  0.3156  0.3306
88464W        W31402  12.575   6.748   0.845 -0.0578 -0.0300  0.1440
88465W        W31403  13.441   4.664   0.448 -0.1239 -0.0631 -0.2423
88466W        W31404  13.233   3.992  31.048 -0.5466 -0.0534 -0.1732
88467W        W31405  14.227   4.347   1.123  0.0837  0.0067 -0.0626
88468W        W31406  11.654   2.190   1.277 -0.0784 -0.4728  0.2536
88469W        W31407  11.315   7.030   2.444  0.1782 -0.1309 -0.0034
88470W        W31408  11.523   4.468   1.975  0.0376 -0.0872 -0.1244
88471W        W31409  13.687   5.940   2.299 -0.0701 -0.1142  0.2236
88472W        W31410  12.231   4.355  31.897 -0.0265 -0.3326 -0.1924
88473W        W31411  14.265   4.018   1.946 -0.0691 -0.2272  0.2641
88474W        W31412  12.362   5.382   1.264 -0.0071 -0.0221  0.3239
88475W        W31413  11.242   6.686   2.835  0.0097 -0.1304 -0.5664
88476W        W31414  14.128   6.879   0.054  0.2226 -0.1167  0.1011
88477W        W31415  13.808   6.501   2.105 -0.0977 -0.2323  0.1346
88478W        W31416  13.564   6.625   0.017 -0.0493 -0.3142 -0.1330
88479W        W31417  10.018   5.094   0.691 -0.2126  0.0997  0.1372
88480W        W31418  10.301   7.272   1.881 -0.2210  0.0812 -0.2135
88481W        W31419  12.258   6.137   3.959 -0.0472 -0.1118  0.1922
88482W        W31420   9.221   2.619  30.896 -0.2161  0.0763 -0.2244
88483W        W31421  14.010   5.205   4.603 -0.1618 -0.1442 -0.2970
88484W        W31422  10.932   6.829   3.600  0.1942 -0.1599 -0.1237
88485W        W31423  15.193   4.564   1.984 -0.0732  0.3270  0.0632
88486W        W31424  12.836   6.258   2.933  0.2404  0.1406  0.0539
88487W        W31425  13.482   6.506   1.660 -0.3608  0.1941 -0.0653
88488W        W31426  13.439   6.305   0.660 -0.1592  0.3443  0.2793
88489W        W31427  14.342   4.496   2.551  0.0149 -0.3143  0.2321
88490W        W31428  13.096   3.587   2.710  0.2683 -0.0676  0.0283
88491W        W31429  13.514   4.322   0.892  0.1291 -0.0521  0.1088
88492W        W31430  12.544   5.690   0.206  0.1962  0.0275  0.0153
88493W        W31431  14.384   4.566   3.462 -0.0378  0.2706  0.0794
88494W        W31432  14.711   4.171   0.276  0.0122  0.2012  0.1840
88495W        W31433  12.681   6.542   2.074  0.0517  0.1034 -0.0888
88496W        W31434  11.929   5.918   2.137 -0.0091  0.0204 -0.0661
88497W        W31435  13.111   6.716   3.014  0.0567  0.1075 -0.0263
88498W        W31436  11.437   8.045   0.122 -0.0053 -0.4244  0.3753
88499W        W31437   9.116   6.843   2.494 -0.1085  0.0027  0.0653
88500W        W31438  11.115   6.744   1.516 -0.0530  0.0685 -0.0482
88501W        W31439  11.239   4.937   0.802 -0.0497  0.1531  0.0538
88502W        W31440  11.151   7.169   1.797  0.1439  0.0001 -0.0611
88503W        W31441  13.960   4.849   1.294 -0.1246  0.1443 -0.0193
88504W        W31442  12.395   4.528   2.360  0.0785  0.1278 -0.0361
88505W        W31443  15.275   3.305  31.604  0.0524  0.1136 -0.0931
88506W        W31444  10.690   7.010   2.250  0.1559  0.1974  0.2292
88507W        W31445  14.362   7.908   1.395  0.2483 -0.2620 -0.3787
88508W        W31446  14.200   6.684   0.982 -0.2336 -0.1015  0.0690
88509W        W31447  13.310   6.991   1.347  0.2626 -0.1837 -0.1374
88510W        W31448  10.464   7.455   2.401 -0.0480 -0.1684  0.1058
88511W        W31449  12.794   4.471   1.628  0.1393  0.0466  0.0485
88512W        W31450  12.330   3.932   3.530 -0.0223  0.2231 -0.0178
88513W        W31451  10.267   4.383   2.860  0.0829 -0.2386 -0.5385
88514W        W31452  14.609   5.195   4.498  0.0987 -0.0898  0.1683
88515W        W31453  11.333   4.943  31.622 -0.2735 -0.0507  0.1671
88516W        W31454  13.845   2.187   1.467  0.2500 -0.1075  0.0746
88517W        W31455  11.223   5.695   1.977  0.0600  0.0147 -0.0667
88518W        W31456  10.174   6.397   0.552 -0.1309  0.2577 -0.1177
88519W        W31457  14.684   4.597   2.919  0.0804  0.1856  0.0765
88520W        W31458  12.258   5.520   0.767 -0.2182  0.1336 -0.1811
88521W        W31459  14.740   7.371   3.230  0.2023  0.0943  0.3454
88522W        W31460  13.268   6.087   1.468 -0.0828 -0.1067  0.1858
88523W        W31461  12.308   3.255   3.348 -0.1903 -0.1180  0.1440
88524W        W31462  10.698   4.204  31.367 -0.1111 -0.0949 -0.0882
88525W        W31463  11.444   8.532   2.370  0.4602 -0.0289 -0.2331
88526W        W31464  13.476   4.916   1.424 -0.0345  0.3247  0.1318
88527W        W31465  11.712   4.164   1.516  0.1206 -0.2820 -0.1463
88528W        W31466  14.273   7.391   0.806  0.0776  0.1252  0.2773
88529W        W31467  12.567   5.151   1.689  0.3518  0.0083 -0.0431
88530W        W31468  12.128   5.025   2.664  0.0887  0.2543  0.2040
88531W        W31469  13.481   3.615   2.313 -0.1503  0.0268 -0.1844
88532W        W31470  13.724   5.320   2.263  0.0824 -0.2803  0.0488
88533W        W31471  13.256   4.001   2.111  0.0137  0.3131  0.0526
88534W        W31472  11.797   3.885   0.408 -0.0306 -0.0172  0.0712
88535W        W31473  11.766   6.556   1.677  0.1773 -0.0850 -0.0854
88536W        W31474  11.442   6.146   0.023 -0.1966  0.3228 -0.1605
88537W        W31475  11.735   4.573   1.037 -0.1781  0.2537 -0.2040
88538W        W31476  12.302   6.897   2.372 -0.0416 -0.2585 -0.0119
88539W        W31477  14.060   2.984   1.924 -0.0966 -0.1852  0.2747
88540W        W31478   9.550   6.256   4.048 -0.0694  0.4678  0.1617
88541W        W31479  13.775   3.221   2.311  0.2697 -0.1204  0.0540
88542W        W31480  12.022   5.094   0.614  0.0765 -0.2153  0.3375
88543W        W31481  12.819   6.671   3.421  0.3334  0.1810  0.1757
88544W        W31482  12.553   4.329   0.792  0.0285  0.0075 -0.2093
88545W        W31483  13.882   4.447   0.240  0.1455  0.1922  0.0250
88546W        W31484  11.694   6.968   2.875  0.1642  0.0465  0.2564
88547W        W31485  13.443   5.824   0.549 -0.3845  0.2700  0.1477
88548W        W31486  14.347   4.561   0.403 -0.1113 -0.0571  0.3183
88549W        W31487  13.879   3.567  31.686  0.0805  0.1720 -0.0023
88550W        W31488  10.523   7.587   2.892  0.3186  0.0920  0.0606
88551W        W31489  11.671   5.864   1.715  0.2404  0.0384  0.1287
88552W        W31490  11.472   6.472   1.276  0.2579  0.0197  0.1327
88553W        W31491  13.073   3.841   0.179 -0.1077 -0.1974  0.4956
88554W        W31492  14.110   7.810   0.958 -0.1208  0.0790  0.1365
88555W        W31493  10.259   6.275   2.728 -0.0561  0.1270 -0.1519
88556W        W31494  13.761   5.875   2.936  0.2714  0.0386 -0.1046
88557W        W31495  13.861   6.912   1.351 -0.2675  0.5405  0.2118
88558W        W31496  11.841   5.118   3.020 -0.2484 -0.1543  0.0094
88559W        W31497  12.694   5.672   1.521  0.0723  0.1545 -0.0819
88560W        W31498  14.064   3.903   1.412 -0.2367 -0.1267 -0.1155
88561W        W31499  11.936   7.874   0.341 -0.0904  0.1600  0.1241
88562W        W31500  12.765   4.209   2.264 -0.0653  0.1770 -0.0083
88563W        W31501  13.722   4.418   1.378 -0.1414 -0.0511  0.0414
88564W        W31502  14.466   3.321   1.879  0.0041 -0.0918  0.1178
88565W        W31503  16.325   4.692   3.842  0.0968 -0.0378  0.1198
88566W        W31504  12.542   5.943   0.740  0.0228  0.0975  0.1856
88567W        W31505  13.540   4.854   0.917 -0.0686 -0.1517 -0.0482
88568W        W31506  11.718   4.631  31.285  0.1994 -0.3981  0.3157
88569W        W31507  13.005   5.736   3.693 -0.0660  0.0051  0.1052
88570W        W31508  10.725   5.981   2.600 -0.0528 -0.5179 -0.3727
88571W        W31509  10.109   7.583   3.538  0.1737  0.1905  0.3309
88572W        W31510  13.857   6.827   2.534  0.0035  0.0225  0.3117
88573W        W31511  12.735   5.401   0.881 -0.2130 -0.3053  0.0231
88574W        W31512  13.794   4.847   3.575  0.0992  0.0993  0.0375
88575W        W31513  11.188   4.504   1.082  0.1289 -0.1137 -0.0090
88576W        W31514  11.850   7.702   1.195  0.0164  0.1044  0.0761
88577W        W31515   9.520   6.340  31.843  0.0325 -0.2073  0.2781
88578W        W31516  13.009   3.409   1.795 -0.0440  0.0071  0.0970
88579W        W31517  11.943   6.123   2.837  0.1767 -0.0132  0.0299
88580W        W31518  11.908   5.928  31.919  0.1032  0.1004 -0.1331
88581W        W31519  12.973   4.600   0.554 -0.0854  0.4401  0.0884
88582W        W31520  12.093   4.941   1.100  0.1219 -0.0717 -0.1396
88583W        W31521  13.897   4.451   3.356  0.1341 -0.0123  0.0058
88584W        W31522  10.974   7.804   2.740 -0.0894 -0.2505 -0.2238
88585W        W31523  10.858   4.813  31.521 -0.0283 -0.2457  0.2341
88586W        W31524  10.651   4.273   0.948  0.1794  0.0342  0.0208
88587W        W31525  14.668   4.644   1.816 -0.3311 -0.0276 -0.0477
88588W        W31526  13.338   5.317   0.073 -0.6463 -0.2629  0.0462
88589W        W31527  10.534   4.992   1.788 -0.1300 -0.1433  0.2353
88590W        W31528  12.287   4.073   0.320  0.0263  0.1169 -0.1717
88591W        W31529  11.178   7.472   2.300  0.2976 -0.1843 -0.0110
88592W        W31530  12.925   4.696   1.061  0.0115  0.1329 -0.1769
88593W        W31531  13.438   2.587   1.308  0.1157 -0.1033 -0.1657
88594W        W31532  14.182   6.945   2.951 -0.0627 -0.1688 -0.1555
88595W        W31533  12.380   5.270   3.950 -0.2351 -0.2957 -0.0557
88596W        W31534  11.456   4.276   0.138  0.0154 -0.2235  0.1966
88597W        W31535  14.128   2.897   3.210  0.1715 -0.0130  0.0289
88598W        W31536  11.749   4.627  31.866  0.2127 -0.0476  0.1285
88599W        W31537  10.965   5.001   1.238  0.1027 -0.1721 -0.4965
88600W        W31538  13.254   5.600   2.277 -0.0300  0.0461  0.0612
88601W        W31539  12.011   4.238  31.451  0.0942 -0.0754  0.1982
88602W        W31540  10.553   6.399   2.283 -0.1005  0.3667  0.3119
88603W        W31541  12.510   6.186   4.381 -0.3993 -0.2216 -0.1672
88604W        W31542  14.363   4.974   3.870  0.1423  0.2066 -0.0179
88605W        W31543  12.893   3.689   2.284 -0.0565  0.4144  0.2316
88606W        W31544  12.786   3.873   0.740 -0.2229 -0.1620 -0.0069
88607W        W31545  12.292   4.001   1.701 -0.1754  0.2497  0.1550
88608W        W31546  13.895   4.549   0.704  0.2390  0.0037  0.2567
88609W        W31547  12.634   5.297   3.452  0.0150 -0.0836  0.1062
88610W        W31548  12.478   5.740   3.713 -0.1680 -0.0602  0.1507
88611W        W31549  11.526   3.466   2.326  0.3345  0.2715  0.2001
88612W        W31550  13.689   6.604  31.361 -0.2445 -0.1568  0.1659
88613W        W31551  14.482   5.674   2.708  0.1205 -0.2020 -0.1240
88614W        W31552  12.019   4.177   0.794 -0.1037 -0.2350  0.1890
88615W        W31553  10.427   5.818   1.527 -0.0181 -0.0049  0.2261
88616W        W31554  11.304   6.247   1.874 -0.0323 -0.0587  0.0994
88617W        W31555  13.407   5.598   3.209  0.4027  0.0737  0.1645
88618W        W31556   9.842   7.366   3.158 -0.0484  0.0431  0.2261
88619W        W31557  10.734   6.000   0.361 -0.0179  0.3059  0.1044
88620W        W31558   9.497   5.809   2.336  0.0437  0.1767 -0.0345
88621W        W31559  15.279   4.535   0.429 -0.2355 -0.0897 -0.1335
88622W        W31560  12.514   5.961   2.007 -0.0319  0.2353  0.1366
88623W        W31561  12.555   3.286   0.938 -0.0859  0.1974 -0.0527
88624W        W31562  14.051   4.425   3.845 -0.0629  0.1248  0.2224
88625W        W31563  13.630   5.756   1.817  0.2027 -0.1980 -0.0437
88626W        W31564  14.665   2.776   4.506  0.3946  0.1820  0.1803
88627W        W31565  10.927   4.652   2.985 -0.3015  0.2375  0.3947
88628W        W31566  14.680   5.067   1.521  0.1667  0.1078  0.0215
88629W        W31567  12.797   4.767   3.418 -0.0050  0.1044 -0.1367
88630W        W31568  12.694   6.188   3.490 -0.1851 -0.0496 -0.1327
88631W        W31569  10.969   4.891   3.788  0.0225 -0.0837  0.2050
88632W        W31570  13.755   3.953   0.754 -0.1609 -0.1303  0.0351
88633W        W31571  11.922   3.956  31.899 -0.0829 -0.1943 -0.0381
88634W        W31572  11.315   6.751   2.012  0.1280  0.3036  0.1306
88635W        W31573  14.118   5.231   1.699  0.0374  0.1303 -0.0479
88636W        W31574  11.033   6.431   0.118  0.0635  0.0594  0.0223
88637W        W31575  13.543   4.527   2.362  0.1028  0.0652 -0.1202
88638W        W31576  12.533   4.868   0.818  0.0194  0.3116 -0.0487
88639W        W31577  12.464   5.322  31.850 -0.0176 -0.2867 -0.2668
88640W        W31578  13.727   5.672   0.101 -0.3253  0.0276 -0.1160
88641W        W31579  11.022   5.597   2.466 -0.0194  0.2064  0.1525
88642W        W31580  13.012   4.674   3.885 -0.1662 -0.2174 -0.0085
88643W        W31581  11.587   6.333   2.279 -0.0149  0.0121 -0.1947
88644W        W31582  13.484   3.246   1.861  0.1025  0.2842  0.1277
88645W        W31583  14.132   5.136   3.363  0.0380  0.0071  0.0752
88646W        W31584  13.909   4.298   2.688  0.0922 -0.5275  0.1215
88647W        W31585  12.273   5.894   2.494  0.2133 -0.0656  0.0703
88648W        W31586  12.335   5.010   3.148 -0.1167  0.1481  0.3234
88649W        W31587  13.840   7.278   3.242 -0.1966 -0.2329  0.1785
88650W        W31588  15.639   3.906   1.270  0.0572 -0.0535  0.0299
88651W        W31589  14.983   3.867   3.093  0.0556 -0.0742  0.0733
88652W        W31590  13.569   5.319   0.549 -0.1842 -0.1765 -0.2219
88653W        W31591  11.660   4.762   0.468  0.2123 -0.2344 -0.2896
88654W        W31592  12.991   5.325   1.892 -0.1254  0.0504 -0.2082
88655W        W31593  13.218   6.423   5.220 -0.1057 -0.1788  0.0528
88656W        W31594  11.588   5.269  31.407  0.1106  0.0640  0.2089
88657W        W31595  12.712   4.405   4.325 -0.0349  0.1196  0.0342
88658W        W31596  12.249   6.325   0.795 -0.1845 -0.2958 -0.2383
88659W        W31597  12.885   5.919   1.096 -0.1112 -0.1551  0.1770
88660W        W31598  12.410   3.913  31.532  0.1192 -0.1477  0.3639
88661W        W31599  11.696   5.495   2.052  0.1390 -0.0423  0.0394
88662W        W31600  11.133   6.126   2.812  0.1623 -0.0328 -0.1183
88663W        W31601  11.571   4.708  30.280  0.0879  0.0268 -0.0732
88664W        W31602  12.044   5.013  31.572  0.2904 -0.0452  0.1889
88665W        W31603  12.408   5.816   3.003  0.1427 -0.2641 -0.0711
88666W        W31604  14.239   6.368   3.786 -0.1140 -0.0095  0.0903
88667W        W31605  13.357   2.523   0.233  0.1504 -0.0871  0.0743
88668W        W31606  14.644   5.399   4.001 -0.2558 -0.2533  0.1535
88669W        W31607  10.856   6.855  31.825  0.0383  0.0584 -0.0596
88670W        W31608  12.569   3.795   2.677 -0.1185  0.2963 -0.0661
88671W        W31609  11.320   7.801   3.196  0.0842 -0.0199  0.0439
88672W        W31610  10.497   5.954   2.059 -0.1886  0.1147 -0.0228
88673W        W31611  11.191   5.928   3.354  0.0940 -0.2228 -0.2530
88674W        W31612  13.292   2.395   1.827  0.2178  0.1047  0.0683
88675W        W31613  14.604   4.259   1.412 -0.2551 -0.0570  0.3556
88676W        W31614  12.109   5.401   2.328 -0.0190 -0.1127  0.0046
88677W        W31615  15.996   4.580   3.465  0.0155 -0.1822  0.1353
88678W        W31616  12.541   7.084   3.531  0.1343 -0.1014 -0.0645
88679W        W31617  11.165   5.827   0.364 -0.3184  0.1398  0.1107
88680W        W31618  13.018   6.508   2.519 -0.0645  0.0351 -0.1405
88681W        W31619  13.680   6.860   3.023 -0.1530  0.2976 -0.0832
88682W        W31620  11.725   5.773   3.357  0.1258 -0.0372  0.2142
88683W        W31621  10.138   4.131   4.384  0.1737  0.0666 -0.0168
88684W        W31622  14.183   5.254   2.871  0.1764 -0.2256 -0.2622
88685W        W31623  12.165   4.632   0.670  0.1149  0.2763 -0.0086
88686W        W31624   9.665   4.442  31.414  0.0771  0.2839 -0.1614
88687W        W31625  12.809   6.753   1.300 -0.2951  0.1273 -0.3851
88688W        W31626  10.664   6.295   3.626 -0.2538  0.0101  0.0258
88689W        W31627  11.742   6.815   2.299  0.1098 -0.0303  0.0027
88690W        W31628  10.443   5.652  31.644 -0.0004  0.0927  0.1643
88691W        W31629  13.323   7.425   1.054  0.4522 -0.2339  0.0084
88692W        W31630  14.323   5.844   0.774 -0.1092  0.4071  0.0355
88693W        W31631  12.584   7.254   2.735 -0.0505  0.0283  0.0906
88694W        W31632  11.621   5.093   0.127  0.0441 -0.2314 -0.0699
88695W        W31633  10.890   7.494   3.254  0.2270  0.0904  0.0398
88696W        W31634  11.143   4.450  31.257  0.0476 -0.1709 -0.4210
88697W        W31635  13.589   5.288   1.782 -0.0852  0.0587  0.0956
88698W        W31636  12.001   7.326   0.612  0.0338 -0.3160  0.0216
88699W        W31637  14.882   5.622   2.207  0.2721 -0.2896  0.0915
88700W        W31638  14.252   4.222  31.973  0.0317  0.4077  0.3807
88701W        W31639  14.744   5.111   2.046  0.0430 -0.3392  0.1693
88702W        W31640  14.712   4.688   1.187  0.2555  0.0577 -0.0491
88703W        W31641  14.030   5.638   2.548 -0.0019 -0.1546  0.3511
88704W        W31642  11.553   5.003   1.774 -0.0663  0.1006  0.0302
88705W        W31643  12.973   4.500  30.612 -0.0699  0.1006  0.3348
88706W        W31644  12.083   6.765   3.919 -0.0842  0.0058 -0.1079
88707W        W31645  15.517   3.992   3.120 -0.2524 -0.2141 -0.3316
88708W        W31646  10.201   6.776   2.076  0.1290 -0.0614  0.0445
88709W        W31647  13.504   6.546   1.119  0.1661  0.1322 -0.1916
88710W        W31648  11.156   4.999  31.114 -0.0768 -0.0169  0.2151
88711W        W31649  12.491   4.444  31.448 -0.0773  0.0867 -0.1223
88712W        W31650  14.412   2.275   2.588 -0.0787 -0.1187 -0.0195
88713W        W31651  14.216   7.546  31.487  0.4051  0.2255  0.2960
88714W        W31652  13.738   4.124   1.809 -0.0840  0.0356  0.3730
88715W        W31653  12.480   6.312   1.232  0.0557  0.2109  0.1064
88716W        W31654  10.972   6.510   3.253  0.0586  0.0963  0.0392
88717W        W31655  13.278   6.232   2.108 -0.2197 -0.0322 -0.1303
88718W        W31656  12.409   3.252  31.969  0.1281 -0.0821 -0.2850
88719W        W31657  14.065   5.412   0.451  0.4589 -0.0004  0.2435
88720W        W31658  11.547   3.715   1.290 -0.0103  0.1720 -0.1835
88721W        W31659  14.152   4.750   2.970  0.0925 -0.0596  0.0248
88722W        W31660  12.211   5.839  30.794  0.3151 -0.0386 -0.2516
88723W        W31661  14.629   5.496   0.595  0.2660  0.2274 -0.2730
88724W        W31662  13.179   7.355   3.595  0.1862  0.3542  0.4152
88725W        W31663  11.403   3.209   2.788 -0.1473  0.5990 -0.2673
88726W        W31664  12.770   4.187   0.383  0.0324 -0.0377  0.1905
88727W        W31665  14.769   4.996   3.603  0.2169 -0.0654 -0.1138
88728W        W31666  12.886   5.305   0.149 -0.0324  0.0810 -0.3274
88729W        W31667  12.414   8.309   2.480 -0.1950 -0.2088  0.0734
88730W        W31668  11.986   5.574   2.871  0.1040 -0.0740 -0.3545
88731W        W31669  14.109   3.584   2.112  0.2832 -0.0018 -0.0759
88732W        W31670  11.231   5.843   1.339  0.1583 -0.0398 -0.0203
88733W        W31671  13.880   4.918   2.038 -0.0943  0.0831  0.0998
88734W        W31672  12.986   7.798   3.626  0.0748  0.0813  0.2533
88735W        W31673  10.523   4.086   0.469  0.0538  0.2152  0.0975
88736W        W31674  13.190   6.970   0.868 -0.1879 -0.2049 -0.0624
88737W        W31675  12.896   5.158   3.867 -0.1304  0.3117  0.1901
88738W        W31676  10.776   6.294  31.604 -0.4518 -0.1452 -0.1463
88739W        W31677  15.506   6.336   0.637  0.0300 -0.0688 -0.0304
88740W        W31678  13.025   7.458   2.680 -0.2644  0.2336  0.0184
88741W        W31679  10.828   5.433   1.814 -0.0096 -0.2902 -0.0543
88742W        W31680  14.238   5.275   2.233  0.1176 -0.4291 -0.1317
88743W        W31681  15.317   5.922   2.169  0.3367 -0.0102 -0.0345
88744W        W31682  12.949   5.584  31.730 -0.2305 -0.0938 -0.0319
88745W        W31683  11.806   5.408   0.946  0.0073  0.0413  0.0191
88746W        W31684  10.803   6.917   0.818 -0.1481 -0.3016  0.2360
88747W        W31685  15.230   4.998   2.328  0.2071  0.1125 -0.1005
88748W        W31686  12.678   5.545   2.277  0.1613 -0.2779 -0.1581
88749W        W31687  14.080   7.422   1.263  0.1989 -0.0469 -0.0267
88750W        W31688  14.081   3.478   3.174 -0.0581 -0.0413 -0.0347
88751W        W31689  12.697   7.618   1.584  0.0303  0.1160 -0.1129
88752W        W31690  10.907   5.977   1.692 -0.1008 -0.3051  0.2317
88753W        W31691  10.316   5.039   0.268 -0.1625 -0.0856 -0.1224
88754W        W31692  11.457   7.352   3.354  0.1215 -0.0441 -0.3553
88755W        W31693  11.063   6.541   1.013  0.0731  0.1036  0.2970
88756W        W31694  11.664   6.531   0.843  0.2480  0.0310 -0.0776
88757W        W31695  14.820   7.009   0.949  0.2719  0.1864  0.0749
88758W        W31696  13.024   4.229   1.018 -0.1148  0.1398 -0.2355
88759W        W31697  15.148   6.016   0.497  0.1604  0.4642 -0.0554
88760W        W31698  12.995   5.703   0.558 -0.1686 -0.0904  0.3584
88761W        W31699  15.002   4.148   1.716 -0.1537  0.0061 -0.4013
88762W        W31700  12.420   3.424  31.182  0.0292  0.0247 -0.0853
88763W        W31701  10.965   6.073   2.193 -0.1607  0.1016 -0.0353
88764W        W31702   9.513   4.224  31.923  0.2637  0.1909 -0.0592
88765W        W31703  12.283   5.852   1.143 -0.4257  0.3056  0.1444
88766W        W31704  12.287   5.532   1.853 -0.0520  0.1723 -0.3694
88767W        W31705  12.898   4.240   3.297  0.1076 -0.0049 -0.0134
88768W        W31706  11.426   5.841   2.414 -0.5501 -0.1967  0.0884
88769W        W31707  11.662   5.289   2.518  0.0816 -0.1928  0.1102
88770W        W31708  10.165   4.401   0.817  0.0100  0.1036  0.0428
88771W        W31709  14.591   4.297   2.143 -0.0478 -0.1241 -0.2157
88772W        W31710  12.367   3.875   2.234  0.0612 -0.0864  0.1760
88773W        W31711  10.450   5.025   3.075 -0.0697  0.1097  0.1346
88774W        W31712  12.925   6.857   1.803 -0.2088 -0.1718 -0.1249
88775W        W31713  14.600   6.909   0.446 -0.2349  0.0187 -0.0696
88776W        W31714  12.459   2.773   1.167 -0.2042 -0.1350 -0.1337
88777W        W31715  14.797   6.624   3.468  0.0979  0.3435  0.0154
88778W        W31716  10.959   4.588   0.629  0.1858  0.2232 -0.2868
88779W        W31717  13.258   4.961   3.503  0.1455 -0.3647  0.0091
88780W        W31718  11.948   6.600   2.694  0.2199  0.0242 -0.0391
88781W        W31719   9.190   3.770   0.142  0.0046 -0.1617 -0.1117
88782W        W31720  12.984   5.513   2.745  0.1400  0.1765 -0.1810
88783W        W31721  12.827   6.994   2.399  0.1249  0.2509  0.3918
88784W        W31722  12.368   6.654  31.034 -0.0269 -0.0770 -0.2965
88785W        W31723  11.968   5.699   3.764  0.1379 -0.0686  0.0482
88786W        W31724  12.275   6.900   3.055 -0.0686 -0.2479  0.2207
88787W        W31725  10.147   5.522   3.645 -0.2464  0.2154 -0.1483
88788W        W31726  14.689   6.564   1.139  0.0019  0.2044 -0.1727
88789W        W31727  12.175   6.396   2.046  0.0458 -0.3308 -0.1707
88790W        W31728  13.813   6.213   1.409  0.0127 -0.1826  0.0826
88791W        W31729  15.237   4.004   2.686  0.1946 -0.3614  0.1681
88792W        W31730  12.494   4.807  31.812 -0.1156 -0.2053  0.0949
88793W        W31731  11.944   4.807   4.038  0.0547  0.0020 -0.0918
88794W        W31732  11.518   5.806   2.909  0.0254 -0.0650 -0.1575
88795W        W31733  12.922   5.126   2.452 -0.0114 -0.3566 -0.1479
88796W        W31734  11.566   3.634   3.201 -0.1116  0.1091 -0.0567
88797W        W31735  13.423   3.053   0.117  0.1054  0.1865  0.0120
88798W        W31736  13.741   9.008   1.813 -0.2570 -0.0057 -0.1477
88799W        W31737  12.924   5.164   1.327 -0.1837  0.0303  0.1992
88800W        W31738  15.366   5.015   1.830  0.2124 -0.1801 -0.1308
88801W        W31739  12.095   5.123   1.646  0.0344  0.1096 -0.1522
88802W        W31740  12.818   6.334   1.649 -0.1586 -0.0914 -0.0492
88803W        W31741  13.391   6.753   2.177 -0.2615 -0.1715 -0.3231
88804W        W31742  12.969   4.818  31.511 -0.2797  0.1455 -0.1172
88805W        W31743  13.740   5.235  31.798  0.0061 -0.1615  0.1345
88806W        W31744  13.216   5.572   1.479  0.1699  0.0591 -0.0325
88807W        W31745  13.480   6.329   4.804 -0.3811  0.0547  0.2453
88808W        W31746  12.558   7.583   3.505  0.0223 -0.0249 -0.0918
88809W        W31747  14.216   4.461   1.644 -0.2951  0.3167  0.1288
88810W        W31748  10.621   4.492   1.474 -0.1579  0.1873  0.0681
88811W        W31749  10.343   6.783   0.961 -0.3285  0.0384  0.2126
88812W        W31750  11.954   5.513   0.339  0.0539  0.2982  0.3482
88813W        W31751  13.997   4.965   2.547  0.2566 -0.0701 -0.0266
88814W        W31752  12.854   4.849   1.973 -0.1249  0.1726  0.0563
88815W        W31753  13.289   4.149   0.513 -0.1554 -0.1169  0.1026
88816W        W31754  11.939   7.048   3.411  0.0989  0.1027  0.0823
88817W        W31755  12.454   6.361   2.551  0.0830 -0.0265  0.4745
88818W        W31756  12.723   5.401   7.019  0.2601 -0.2100 -0.3694
88819W        W31757  12.067   4.544   2.764 -0.1670  0.2480  0.1273
88820W        W31758  14.683   4.227   3.310 -0.0049  0.0693  0.1372
88821W        W31759  12.280   7.184   5.134  0.0704  0.1281 -0.0242
88822W        W31760  11.311   5.132   4.872  0.0694 -0.1098  0.1310
88823W        W31761  12.682   7.463   6.008 -0.0233  0.1374  0.1223
88824W        W31762  10.947   3.844   5.749 -0.2071  0.0631 -0.0876
88825W        W31763  13.074   5.110   6.341 -0.2110 -0.1351 -0.2988
88826W        W31764  14.639   7.237   7.284  0.0633 -0.0716  0.1264
88827W        W31765  13.370   6.913   3.429 -0.1000  0.3083  0.0751
88828W        W31766  13.480   5.192   5.390 -0.0371  0.1689 -0.1368
88829W        W31767  11.887   7.379   7.186 -0.2899 -0.2245  0.0618
88830W        W31768  10.547   2.966   3.148 -0.1601 -0.1418  0.1224
88831W        W31769   9.848   6.013   4.334 -0.2618  0.3893  0.1024
88832W        W31770  13.168   5.224   6.939 -0.0355  0.2085 -0.2028
88833W        W31771  12.575   4.977   5.106  0.0753  0.0659 -0.3413
88834W        W31772  11.748   4.704   5.015  0.0513 -0.0482  0.0513
88835W        W31773  12.502   5.250   4.546  0.1136  0.3331 -0.0769
88836W        W31774  13.240   6.121   5.709 -0.3293 -0.0233 -0.0510
88837W        W31775  12.792   3.990   5.867 -0.0398  0.2203 -0.3895
88838W        W31776  12.294   3.798   7.342  0.0893 -0.0812 -0.0113
88839W        W31777  13.005   6.008   4.524  0.0498  0.4078  0.2901
88840W        W31778  11.857   3.784   4.381  0.0061  0.1655 -0.0019
88841W        W31779  10.369   6.569   4.038 -0.1865  0.1634 -0.1011
88842W        W31780  11.858   6.288   3.730  0.0957  0.2348 -0.2001
88843W        W31781  12.583   4.877   4.150  0.0871 -0.0212  0.0525
88844W        W31782  13.230   5.352   5.898 -0.2148  0.1278  0.0187
88845W        W31783  12.847   6.402   4.877  0.1631 -0.1443 -0.1992
88846W        W31784  11.354   6.559   7.416 -0.1692 -0.1007  0.0797
88847W        W31785  15.021   5.153   7.793  0.1096  0.1935 -0.0073
88848W        W31786  11.388   6.815   5.230  0.0011 -0.1095 -0.1125
88849W        W31787  10.681   7.383   5.291 -0.0184 -0.0741  0.0009
88850W        W31788  11.758   7.066   4.282 -0.0284 -0.0659  0.1038
88851W        W31789  15.239   7.219   4.732  0.1587  0.0690 -0.1274
88852W        W31790  14.462   6.731   7.293 -0.1350  0.0673  0.0885
88853W        W31791  11.166   8.121   5.455 -0.1069 -0.1809 -0.1312
88854W        W31792  11.481   8.397   3.288 -0.1244  0.1122  0.1872
88855W        W31793  13.123   8.414   7.305 -0.1923 -0.0028  0.0774
88856W        W31794  12.311   6.671   6.784 -0.0470  0.2791  0.0230
88857W        W31795  12.833   4.661   6.410  0.0409  0.1054  0.1614
88858W        W31796  13.763   5.603   4.130  0.2515  0.1482 -0.0094
88859W        W31797  10.417   6.597   3.077 -0.0209  0.0076  0.0914
88860W        W31798  12.553   6.845   4.759 -0.0211  0.0590  0.0445
88861W        W31799  12.612   4.997   6.105  0.2271 -0.1495 -0.0223
88862W        W31800  11.255   6.893   4.294  0.2979 -0.0925 -0.2648
88863W        W31801  14.117   4.612   7.896  0.0043 -0.1160 -0.0031
88864W        W31802  11.113   6.526   2.377 -0.2698  0.0101 -0.2212
88865W        W31803  13.488   5.696   3.659  0.1074  0.0740  0.1995
88866W        W31804  14.435   5.501   3.307  0.3436 -0.1723  0.5779
88867W        W31805  13.100   3.739   4.999 -0.3085 -0.1181 -0.2277
88868W        W31806  12.228   4.509   5.041  0.2212  0.0736 -0.0683
88869W        W31807  10.219   6.745   5.979 -0.1083 -0.1537 -0.1567
88870W        W31808  11.909   4.441   6.298 -0.2882  0.0343  0.1006
88871W        W31809  13.556   5.918   6.103  0.2743 -0.3712 -0.0796
88872W        W31810  12.200   5.778   5.748  0.4225 -0.1100  0.0265
88873W        W31811  12.482   5.202   5.559  0.0407  0.1015 -0.0164
88874W        W31812  11.574   5.643   5.737 -0.2479 -0.0670 -0.0640
88875W        W31813   9.683   5.404   3.877  0.0883  0.0022 -0.3518
88876W        W31814  13.508   5.513   2.683 -0.3385 -0.0534 -0.3902
88877W        W31815  14.103   6.723   5.022 -0.0302  0.0241 -0.0072
88878W        W31816  12.647   6.719   2.795 -0.0534  0.0489  0.0196
88879W        W31817  12.261   5.672   4.176  0.1459  0.1011 -0.0929
88880W        W31818  10.712   5.657   6.030 -0.1280 -0.1317 -0.0513
88881W        W31819  10.609   6.262   4.389  0.3797  0.3322  0.1950
88882W        W31820  11.129   4.188   3.146  0.1009 -0.0188 -0.3604
88883W        W31821  13.626   6.874   6.296  0.2802  0.0342 -0.3613
88884W        W31822  11.446   7.670   6.472  0.2517  0.1643 -0.0924
88885W        W31823  14.495   4.638   4.463 -0.0996  0.2072 -0.0390
88886W        W31824  11.143   6.526   6.249  0.0142  0.1670 -0.1578
88887W        W31825  14.132   7.632   6.197  0.1936 -0.1288 -0.0390
88888W        W31826  14.286   6.526   3.293 -0.2501  0.2626  0.2479
88889W        W31827  13.665   3.805   5.610  0.0998  0.0125 -0.3088
88890W        W31828  14.177   4.014   5.664  0.2783  0.0405 -0.4402
88891W        W31829  12.269   6.321   4.859 -0.2415  0.2070  0.0192
88892W        W31830  13.698   5.140   3.085 -0.0282 -0.1751 -0.1797
88893W        W31831  14.907   7.162   6.816 -0.3118  0.1467 -0.2524
88894W        W31832  13.604   5.990   4.485  0.1831  0.1061 -0.0275
88895W        W31833  12.697   7.600   6.902 -0.2452  0.0273  0.1837
88896W        W31834  12.246   4.624   7.228  0.2851  0.0495 -0.0794
88897W        W31835  12.997   5.788   7.348  0.2331 -0.1005  0.1938
88898W        W31836  10.591   8.799   5.419  0.5289  0.0797 -0.3915
88899W        W31837  10.721   6.093   5.225  0.1847  0.0958 -0.1553
88900W        W31838  11.990   6.148   4.348 -0.1774  0.1757 -0.2080
88901W        W31839  11.396   4.160   6.477 -0.0957 -0.0633 -0.3556
88902W        W31840  11.911   7.408   6.530  0.0303  0.1044 -0.2726
88903W        W31841  15.168   2.865   4.635 -0.1990 -0.3027 -0.4375
88904W        W31842  12.526   4.672   5.522  0.0018 -0.4235  0.1837
88905W        W31843  15.388   2.444   5.543  0.1693 -0.1529  0.0085
88906W        W31844  11.331   7.207   4.682 -0.0344  0.4708  0.3276
88907W        W31845  13.321   6.936   5.426  0.3399  0.1256  0.0195
88908W        W31846  13.926   5.615   3.340  0.1839  0.2431 -0.3135
88909W        W31847  13.425   6.103   3.973  0.2502  0.0586  0.0209
88910W        W31848  11.083   6.372   4.567  0.0776 -0.1757 -0.0521
88911W        W31849  11.267   4.636   4.807 -0.3000 -0.1674 -0.2619
88912W        W31850  11.514   3.797   5.892 -0.1715  0.0967  0.0857
88913W        W31851  12.050   4.482   5.556  0.3514  0.1333  0.0036
88914W        W31852  12.031   4.394   8.116  0.2446 -0.1735 -0.0143
88915W        W31853  10.942   6.517   4.047 -0.2030  0.0998 -0.1230
88916W        W31854  13.407   4.499   3.453  0.1652 -0.4139  0.2076
88917W        W31855  12.194   3.879   4.033  0.1816  0.0415 -0.0612
88918W        W31856  10.572   6.487   4.915  0.2554 -0.1654  0.0952
88919W        W31857  13.051   4.590   8.021 -0.3687 -0.0397  0.1617
88920W        W31858  13.885   6.612   4.130 -0.2336 -0.3005  0.1078
88921W        W31859  14.438   7.341   6.666  0.0517 -0.1647 -0.1952
88922W        W31860  12.555   7.752   5.668  0.1954 -0.0835  0.1317
88923W        W31861  11.955   4.637   6.751 -0.0975 -0.0493 -0.1230
88924W        W31862  10.323   5.090   3.664 -0.2059 -0.2140 -0.3365
88925W        W31863  11.124   7.240   5.149 -0.1698  0.1136 -0.1057
88926W        W31864  12.378   7.174   6.943 -0.0716 -0.0455  0.0566
88927W        W31865  11.013   5.851   3.812 -0.2422  0.1144  0.0950
88928W        W31866  15.058   7.346   5.159  0.2262  0.0794  0.0869
88929W        W31867  13.001   5.235   4.675  0.1556  0.0475 -0.1142
88930W        W31868  11.986   6.004   6.611  0.4413  0.0470 -0.0048
88931W        W31869  13.269   4.345   6.497 -0.0015  0.3204 -0.0214
88932W        W31870  14.996   5.966   6.210 -0.2436 -0.1273  0.1424
88933W        W31871  13.751   6.180   5.741  0.0641 -0.0518  0.4375
88934W        W31872  11.360   5.325   3.024  0.0799  0.1108  0.2247
88935W        W31873  12.595   6.158   5.888 -0.1008  0.0542 -0.0548
88936W        W31874  11.921   6.862   5.523  0.1027 -0.3259 -0.0997
88937W        W31875  11.836   6.588   3.228  0.1701  0.1700  0.3336
88938W        W31876  11.471   6.449   5.602  0.1984  0.0688 -0.0759
88939W        W31877  13.638   3.996   5.156 -0.1431  0.1102  0.2196
88940W        W31878  10.203   6.038   5.617  0.0081  0.0651 -0.0053
88941W        W31879  13.325   4.039   5.901 -0.0791 -0.4412 -0.0207
88942W        W31880  11.074   6.433   5.171 -0.0075 -0.0492  0.0426
88943W        W31881  11.735   7.434   7.664 -0.1022 -0.1482  0.2263
88944W        W31882  14.737   3.811   5.897 -0.2189 -0.1593  0.0342
88945W        W31883  15.465   4.289   4.031  0.1341 -0.0721  0.1938
88946W        W31884  12.845   6.988   6.792 -0.2185  0.1464  0.0266
88947W        W31885  13.324   5.851   4.874  0.1705 -0.0531 -0.1720
88948W        W31886  13.377   3.201   4.715 -0.0808  0.2365 -0.0555
88949W        W31887  12.616   4.327   2.743  0.0678  0.2023 -0.1293
88950W        W31888  11.264   5.848   7.373 -0.0185 -0.1995  0.0124
88951W        W31889  12.997   7.117   4.368  0.1832  0.1763  0.1723
88952W        W31890  13.711   6.775   6.886  0.0940 -0.0134  0.3414
88953W        W31891  13.302   6.095   3.440 -0.1181  0.1918  0.1223
88954W        W31892  15.319   5.195   4.422  0.2026  0.1655  0.0455
88955W        W31893  10.843   6.096   5.726  0.1015  0.1954  0.1857
88956W        W31894  13.346   5.742   6.894 -0.1818  0.2536  0.2468
88957W        W31895  14.114   4.803   5.119  0.4126  0.0731 -0.2875
88958W        W31896  12.683   3.355   5.541 -0.0629  0.0757  0.5167
88959W        W31897  11.798   5.715   4.248  0.1573  0.2287 -0.3295
88960W        W31898  12.479   3.946   4.465 -0.2478 -0.6366  0.2684
88961W        W31899  11.795   7.370   3.776 -0.1685  0.0069  0.2795
88962W        W31900  13.825   4.469   6.503  0.0710  0.0404 -0.0237
88963W        W31901  13.364   4.243   4.213  0.1629 -0.1104 -0.1841
88964W        W31902  11.219   3.259   5.229 -0.1818  0.2369 -0.0933
88965W        W31903  13.462   5.358   8.227 -0.1437  0.5627 -0.3579
88966W        W31904  14.168   6.306   5.279 -0.4226 -0.0245 -0.0904
88967W        W31905  14.390   6.682   6.104 -0.1305 -0.1032  0.2725
88968W        W31906  11.528   5.090   3.492  0.4980  0.0583 -0.1234
88969W        W31907  12.479   4.376   5.926  0.1233 -0.3529  0.1468
88970W        W31908  11.982   5.423   5.431 -0.1315 -0.0045 -0.0043
88971W        W31909  11.839   6.475   7.197 -0.1963  0.0494 -0.2180
88972W        W31910  14.095   7.107   6.180 -0.0758 -0.1454  0.0796
88973W        W31911  12.235   4.413   4.535 -0.1204  0.0734 -0.0784
88974W        W31912  13.123   4.052   8.691 -0.2080  0.2164  0.0758
88975W        W31913  12.829   6.089   4.008  0.0665  0.0280 -0.0937
88976W        W31914  11.221   8.343   3.705 -0.1990 -0.0215 -0.0478
88977W        W31915  12.460   5.381   2.708 -0.4332  0.0010 -0.0177
88978W        W31916  12.182   4.790   5.868  0.0951 -0.1305 -0.0153
88979W        W31917  12.851   7.345   6.492 -0.2312 -0.0808  0.3887
88980W        W31918  12.092   7.796   3.811  0.0220 -0.0499  0.2349
88981W        W31919  12.401   5.344   6.502 -0.2267  0.2906  0.1690
88982W        W31920  12.325   6.701   5.183 -0.4980  0.4210 -0.0332
88983W        W31921  13.625   4.302   4.685 -0.0832  0.3065 -0.0280
88984W        W31922  10.067   7.485   4.606 -0.0193 -0.2260  0.0062
88985W        W31923  10.755   6.791   2.722  0.3128  0.3638  0.2215
88986W        W31924  11.252   5.373   4.158 -0.1376  0.0742 -0.1369
88987W        W31925  16.122   3.960   5.950  0.0103 -0.0307 -0.1510
88988W        W31926  13.631   6.468   3.692 -0.1148  0.0682 -0.1185
88989W        W31927  12.349   5.860   5.279  0.1144 -0.0149  0.2312
88990W        W31928  13.482   4.845   6.679  0.1001 -0.0815  0.2458
88991W        W31929  10.180   7.062   6.879 -0.0035  0.2639 -0.4515
88992W        W31930  12.662   4.234   7.179 -0.0824 -0.0750  0.1620
88993W        W31931  14.313   4.496   5.471 -0.1667 -0.0913  0.2860
88994W        W31932  13.187   6.240   7.025 -0.0448 -0.0279  0.1108
88995W        W31933  12.247   6.388   7.398 -0.0020 -0.0669  0.2339
88996W        W31934  10.688   4.747   4.489  0.1290  0.2664 -0.0115
88997W        W31935  13.214   6.113   6.557 -0.0955 -0.1041 -0.1204
88998W        W31936  12.099   4.922   5.302 -0.0471  0.0320  0.2095
88999W        W31937  10.606   6.883   5.722  0.1142 -0.0322 -0.0749
89000W        W31938  14.002   6.086   6.249  0.0326  0.1211 -0.0551
89001W        W31939  11.977   5.139   3.638  0.0229  0.0154 -0.2771
89002W        W31940  11.406   6.933   3.814 -0.1993 -0.0731 -0.0389
89003W        W31941  12.502   2.804   7.277 -0.1021  0.0570  0.0765
89004W        W31942  14.482   5.912   6.202 -0.2040  0.2089 -0.0276
89005W        W31943  13.050   4.022   4.531  0.2497  0.1669 -0.1262
89006W        W31944  10.870   4.213   4.789  0.1370  0.0257 -0.0347
89007W        W31945  11.688   5.604   6.366 -0.0664 -0.0886 -0.1375
89008W        W31946  15.277   5.785   5.003  0.1666  0.1319  0.1162
89009W        W31947  11.517   6.155   7.052 -0.0556  0.1481 -0.2671
89010W        W31948  13.040   2.512   5.251  0.1131  0.3252  0.1573
89011W        W31949  13.926   6.052   4.853  0.1767  0.2351 -0.0974
89012W        W31950  13.651   4.531   7.658  0.0337 -0.0124 -0.0921
89013W        W31951  11.994   7.568   4.214 -0.3309 -0.3176 -0.0782
89014W        W31952  10.506   7.189   6.089 -0.0691  0.1266 -0.0624
89015W        W31953  12.306   6.629   3.495  0.0208 -0.0077 -0.0956
89016W        W31954  12.875   4.576   5.180 -0.0765 -0.1512 -0.0208
89017W        W31955  11.500   5.572   5.194 -0.2125  0.1672  0.3619
89018W        W31956  11.686   6.501   4.183  0.3606 -0.1146 -0.0561
89019W        W31957  11.484   7.079   7.400 -0.0989  0.1273  0.1074
89020W        W31958  15.230   4.133   5.070  0.1343  0.0009  0.0061
89021W        W31959  13.225   5.497   0.994  0.3046 -0.2996  0.2322
89022W        W31960  12.624   4.229   4.894 -0.0577  0.1078 -0.2436
89023W        W31961  13.456   3.591   6.040 -0.0764 -0.4119 -0.1078
89024W        W31962  14.224   5.709   4.457 -0.0667 -0.1027  0.1227
89025W        W31963  13.680   3.829   7.922 -0.0827  0.0074  0.2744
89026W        W31964  12.232   4.222   6.675  0.3073  0.4125 -0.1453
89027W        W31965  15.023   5.963   5.407 -0.0325  0.0722 -0.2230
89028W        W31966  11.841   4.118   5.888 -0.2753  0.3332  0.1714
89029W        W31967  13.300   7.714   7.447  0.0143  0.1149  0.0196
89030W        W31968  11.061   4.818   6.583 -0.0566 -0.3136 -0.1084
89031W        W31969  13.487   5.199   3.933 -0.1095  0.3042 -0.1448
89032W        W31970  12.468   5.061   2.250 -0.0038  0.2583  0.1452
89033W        W31971  11.820   5.976   5.302 -0.1547  0.2203  0.0000
89034W        W31972  12.969   6.442   6.190  0.0929  0.0370 -0.0432
89035W        W31973  14.333   4.237   2.957 -0.3558 -0.2012  0.0597
89036W        W31974  13.858   3.692   3.941 -0.1621  0.0057 -0.1042
89037W        W31975  12.940   5.754   5.531  0.0383  0.1193 -0.1854
89038W        W31976  13.649   4.506   5.128 -0.3038 -0.0385 -0.0001
89039W        W31977  13.251   5.624   4.145 -0.0695  0.2442 -0.1006
89040W        W31978  12.324   6.385   3.052 -0.0491 -0.0524  0.0235
89041W        W31979  12.781   3.828   5.361  0.0136  0.1727  0.1223
89042W        W31980  14.430   4.997   5.477 -0.3830  0.0949  0.0497
89043W        W31981  14.818   3.736   5.366  0.2212  0.0458  0.2207
89044W        W31982  12.933   4.441   5.639  0.1492  0.2536 -0.1862
89045W        W31983  14.176   5.257   7.944 -0.3532  0.0022 -0.0458
89046W        W31984  11.737   4.193   6.809  0.0560 -0.2645 -0.2273
89047W        W31985  11.796   3.706   6.320 -0.2846  0.0836 -0.2358
89048W        W31986  13.064   7.593   5.540 -0.0373 -0.0135 -0.3297
89049W        W31987  13.933   5.020   4.110  0.1732  0.1762 -0.3536
89050W        W31988  13.951   3.830   4.760 -0.0240  0.1235  0.1086
89051W        W31989  13.506   4.698   4.031 -0.0134 -0.1604  0.1489
89052W        W31990  12.910   5.091   3.057  0.3535  0.0413  0.1494
89053W        W31991  10.746   5.252   4.270 -0.0298 -0.4268 -0.0534
89054W        W31992  14.362   5.835   7.235 -0.3042 -0.2024 -0.0814
89055W        W31993  10.564   3.550   3.935  0.1184  0.2214 -0.0426
89056W        W31994  13.450   3.730   8.391 -0.1258 -0.3031 -0.1374
89057W        W31995  11.356   7.847   3.747  0.0005 -0.0577 -0.0223
89058W        W31996  14.783   5.570   5.190 -0.0929 -0.1454  0.0976
89059W        W31997  13.466   5.289   4.429 -0.1909  0.5183 -0.0217
89060W        W31998  12.237   5.321   6.050  0.2914  0.1742 -0.0633
89061W        W31999  11.205   7.057   7.834 -0.1290 -0.1362 -0.4004
89062W        W32000  10.753   5.365   3.795  0.0546  0.0057 -0.0085
89063W        W32001  12.327   4.756   3.657 -0.0905 -0.1600  0.0100
89064W        W32002  13.055   4.802   5.972  0.2140 -0.2660 -0.3115
89065W        W32003  15.532   6.057   7.771 -0.0821 -0.0350  0.1396
89066W        W32004  13.191   4.212   5.222  0.0885  0.1707  0.2900
89067W        W32005  13.815   5.252   6.509 -0.2769 -0.0289  0.0796
89068W        W32006  10.670   6.731   4.400  0.1760  0.2556  0.2880
89069W        W32007  13.277   3.787   4.166 -0.3821  0.0967  0.1819
89070W        W32008  12.503   6.664   6.328  0.1751  0.2920 -0.0898
89071W        W32009  11.481   6.757   6.929 -0.1788 -0.0667  0.0356
89072W        W32010  10.942   6.064   6.222 -0.0247 -0.2773  0.2421
89073W        W32011  13.219   3.361   5.631 -0.1891 -0.2581 -0.0663
89074W        W32012  13.403   4.683   5.628  0.1521 -0.2222 -0.0331
89075W        W32013  12.314   7.091   5.706  0.1854 -0.2902  0.1943
89076W        W32014  14.505   4.341   7.744 -0.0694  0.0711  0.1080
89077W        W32015  12.977   6.541   5.661  0.0255  0.1591 -0.1512
89078W        W32016  12.334   5.807   6.306  0.1194 -0.1960  0.0114
89079W        W32017  11.784   6.245   7.625 -0.0237 -0.0952  0.1129
89080W        W32018  13.184   4.923   5.027 -0.0543  0.0832  0.1355
89081W        W32019  13.233   6.641   6.637  0.0706  0.1741  0.1217
89082W        W32020  10.609   3.979   6.218  0.0482 -0.0862  0.1793
89083W        W32021  11.941   5.313   6.741 -0.0351  0.2732  0.0419
89084W        W32022  12.713   4.806   4.637 -0.2599  0.3747  0.1295
89085W        W32023  11.466   5.956   3.791  0.1177  0.0183  0.1926
89086W        W32024  12.164   6.649   4.421  0.1496 -0.0991 -0.0392
89087W        W32025  10.866   7.006   8.237 -0.3899 -0.0390 -0.1820
89088W        W32026  11.797   5.716   7.614  0.1763 -0.0376  0.0695
89089W        W32027  11.311   6.053   5.847  0.0844  0.0896  0.1587
89090W        W32028  13.442   6.838   3.940  0.2396  0.0996  0.0628
89091W        W32029  12.195   6.053   3.424  0.0521  0.0748  0.0350
89092W        W32030  13.426   7.188   6.607 -0.0900  0.3323  0.0722
89093W        W32031  11.961   3.580   3.459 -0.0786 -0.0229 -0.1024
89094W        W32032  12.032   6.837   6.090  0.1683 -0.2374 -0.2911
89095W        W32033  11.743   7.245   5.157 -0.0599 -0.1803  0.0768
89096W        W32034  13.924   5.962   3.794  0.1516  0.2895  0.0523
89097W        W32035  12.696   7.325   4.750  0.4888  0.2239  0.0505
89098W        W32036  15.265   5.141   7.271  0.2995 -0.0554  0.0301
89099W        W32037  15.353   3.567   3.420 -0.2603 -0.3204 -0.0810
89100W        W32038  13.721   4.287   5.608  0.0347  0.0943 -0.0008
89101W        W32039  14.436   5.941   3.856  0.0643  0.1757 -0.1331
89102W        W32040  14.496   6.827   6.584  0.1402  0.0516 -0.1365
89103W        W32041  13.897   5.845   7.035 -0.1780 -0.0583 -0.2603
89104W        W32042  12.565   4.844   2.738 -0.1998 -0.2235 -0.0915
89105W        W32043  12.426   4.204   5.444 -0.0113  0.0982 -0.0275
89106W        W32044  13.951   4.055   7.070  0.0697 -0.2292 -0.1308
89107W        W32045  10.381   6.962   7.350  0.1263  0.1482 -0.0137
89108W        W32046  15.255   6.062   4.614  0.2128  0.3978 -0.1494
89109W        W32047  12.439   5.441   5.087  0.1654 -0.1192 -0.0240
89110W        W32048  13.118   4.927   4.267 -0.0928 -0.2239  0.0751
89111W        W32049  14.540   2.644   7.657 -0.0348  0.0763  0.0982
89112W        W32050  11.490   6.264   3.186 -0.2093 -0.3849 -0.0989
89113W        W32051  12.937   4.999   5.524  0.2403 -0.2919 -0.1303
89114W        W32052  11.502   6.587   4.805 -0.1110 -0.1455  0.0565
89115W        W32053  11.029   5.920   4.293 -0.0844 -0.0033 -0.1478
89116W        W32054  12.912   6.924   6.075  0.1597  0.2798  0.0314
89117W        W32055   9.127   4.559   4.414  0.0638 -0.2627 -0.1314
89118W        W32056  17.249   3.684   5.208 -0.2925  0.2209 -0.1894
89119W        W32057  12.647   4.157   6.458 -0.0169  0.2356  0.2324
89120W        W32058  13.532   4.531   6.099  0.1749  0.1684 -0.1324
89121W        W32059  11.875   6.451   5.188 -0.3352  0.3518  0.1624
89122W        W32060  15.087   3.865   4.097  0.1638  0.1722 -0.0446
89123W        W32061  11.395   6.084   6.386 -0.3400  0.0674 -0.0670
89124W        W32062  11.137   4.732   6.087  0.2149 -0.3240  0.0408
89125W        W32063  11.300   4.589   3.352 -0.4081  0.0625  0.0386
89126W        W32064  13.572   6.410   6.264 -0.2458  0.0219 -0.2688
89127W        W32065  13.126   6.442   3.813 -0.0159 -0.0922  0.2431
89128W        W32066  14.679   7.683   4.282 -0.1050 -0.1164 -0.0547
89129W        W32067  11.735   4.345   4.225  0.3579  0.3608  0.1547
89130W        W32068  13.554   2.853   4.230  0.4415  0.1066 -0.1306
89131W        W32069  10.962   5.544   4.615 -0.2093 -0.1127 -0.0954
89132W        W32070  13.024   4.506   6.892 -0.0126  0.0929  0.1563
89133W        W32071  13.989   7.280   7.630  0.4791 -0.3609  0.1212
89134W        W32072  11.655   4.305   4.728 -0.2432  0.0486  0.0749
89135W        W32073  14.154   5.432   3.764 -0.1232  0.3171 -0.1514
89136W        W32074  13.989   4.788   6.928  0.3040  0.3313  0.1308
89137W        W32075   9.886   5.745   2.886 -0.0912 -0.1317 -0.1220
89138W        W32076  14.273   5.298   4.986 -0.0427  0.0805 -0.1477
89139W        W32077  13.589   7.798   5.734 -0.0163 -0.0556  0.2210
89140W        W32078   9.883   5.616   4.686 -0.0121 -0.1489 -0.1474
89141W        W32079  12.839   5.944   6.837  0.3817 -0.1845 -0.2428
89142W        W32080  13.733   6.998   5.806 -0.0281  0.0422 -0.2217
89143W        W32081  13.834   4.094   4.224  0.0740  0.1132  0.0045
89144W        W32082  11.794   5.990   6.025  0.1258  0.0389 -0.0093
89145W        W32083  11.199   5.616   6.184  0.1684  0.0843 -0.2829
89146W        W32084  14.527   4.495   4.000  0.1382 -0.1522 -0.1023
89147W        W32085  13.792   4.075   6.134  0.1074  0.1363  0.1341
89148W        W32086  11.617   7.967   4.728  0.2203 -0.3578  0.3454
89149W        W32087  12.568   2.018   7.657  0.0758  0.3502  0.1444
89150W        W32088  11.668   7.323   6.024  0.1679 -0.0821 -0.2516
89151W        W32089  11.667   7.619   8.174  0.3276 -0.2152  0.1186
89152W        W32090  12.919   5.830   3.169 -0.0653  0.0288  0.1207
89153W        W32091  12.865   5.585   6.481 -0.1398  0.1200 -0.0429
89154W        W32092  12.217   5.498   3.331 -0.0527  0.1102  0.0707
89155W        W32093  12.597   6.524   3.855  0.1458 -0.1221  0.1403
89156W        W32094  13.773   6.637   5.398  0.0719 -0.3109 -0.1415
89157W        W32095  13.092   4.479   4.716 -0.1639  0.2445 -0.0919
89158W        W32096  15.297   6.354   6.405 -0.0218  0.1675 -0.3287
89159W        W32097  12.062   4.049   4.826  0.3772  0.3613 -0.4139
89160W        W32098  14.936   3.210   5.294  0.1057  0.3366  0.3402
89161W        W32099  13.521   4.760   4.507 -0.2127 -0.3491 -0.1314
89162W        W32100  12.775   5.037   6.707  0.0292  0.2188  0.2489
89163W        W32101   9.906   4.969   3.985  0.1942 -0.3478 -0.4057
89164W        W32102  11.295   6.400   3.695 -0.2807 -0.1367 -0.2827
89165W        W32103  11.301   5.965   4.844 -0.0342  0.0622  0.4265
89166W        W32104  12.671   2.597   6.194  0.0209  0.1785 -0.0155
89167W        W32105  11.385   4.170   5.603  0.3292 -0.0575 -0.1810
89168W        W32106  12.664   5.507   5.974  0.0084  0.2682  0.0907
89169W        W32107  11.627   4.832   4.554  0.2618 -0.0229 -0.0793
89170W        W32108  13.935   6.538   4.606  0.1166 -0.1471 -0.1653
89171W        W32109  12.162   3.489   4.743 -0.0062 -0.1090  0.1234
89172W        W32110  10.587   5.160   5.331 -0.2479  0.1780 -0.3680
89173W        W32111  12.767   5.567   4.157 -0.0314  0.1104  0.3463
89174W        W32112  14.616   7.061   5.326 -0.0936 -0.2603  0.0497
89175W        W32113  11.399   3.638   4.241  0.0136 -0.0506  0.4154
89176W        W32114  11.374   6.795   3.320 -0.1609 -0.1373  0.0954
89177W        W32115  13.990   4.877   7.485 -0.0882 -0.1052  0.3976
89178W        W32116  12.527   3.719   7.808  0.1733 -0.2042 -0.2738
89179W        W32117  11.280   5.249   2.191 -0.2338 -0.0610  0.1044
89180W        W32118  12.267   5.659   6.939 -0.1096  0.0649  0.3268
89181W        W32119  14.882   6.472   4.632 -0.3793  0.3527 -0.1080
89182W        W32120  12.634   6.243   5.399  0.3546 -0.3992 -0.1225
89183W        W32121  11.846   7.918   7.705 -0.0937  0.1507  0.0967
89184W        W32122  11.506   4.698   6.532  0.0346  0.3952  0.2051
89185W        W32123  10.550   3.841   5.356  0.0788 -0.0599 -0.0807
89186W        W32124  13.789   5.530   4.980  0.0745 -0.1104 -0.0677
89187W        W32125  12.210   6.308   6.151 -0.4105  0.1108  0.1102
89188W        W32126  12.624   5.734   4.656  0.2309  0.0573 -0.0053
89189W        W32127  14.142   4.542   6.021 -0.4806 -0.2194  0.1044
89190W        W32128  12.137   5.685   4.694 -0.2387  0.3281 -0.1535
89191W        W32129  13.467   6.601   5.822  0.0267  0.0202  0.6486
89192W        W32130  14.588   5.417   6.049  0.0529  0.1868  0.0464
89193W        W32131  11.400   3.524   3.707  0.2613  0.4145 -0.0606
89194W        W32132  15.498   4.457   5.886 -0.0969 -0.0899 -0.2172
89195W        W32133  12.858   6.643   4.328 -0.0653 -0.1139 -0.1423
89196W        W32134  11.094   5.620   5.671 -0.1440 -0.2346  0.2017
89197W        W32135  12.645   4.322   3.752 -0.0443 -0.1640 -0.1770
89198W        W32136  12.141   3.713   6.694  0.1874 -0.0551 -0.0039
89199W        W32137  14.437   6.209   5.838  0.1660 -0.0233 -0.3565
89200W        W32138  13.693   6.293   6.880 -0.1322  0.0033  0.3928
89201W        W32139  12.153   4.920   4.758 -0.1681 -0.1932 -0.0208
89202W        W32140  14.883   6.157   3.780 -0.1320  0.2556 -0.2557
89203W        W32141  14.693   8.206   7.193  0.0357  0.0940 -0.1207
89204W        W32142  15.753   7.564   7.049 -0.4251  0.1052 -0.1639
89205W        W32143  12.325   7.160   6.372  0.2931  0.3517  0.1556
89206W        W32144  14.715   6.272   6.479  0.1204 -0.0452 -0.2768
89207W        W32145  11.753   3.743   5.440  0.0694  0.1097  0.0657
89208W        W32146  11.471   5.557   4.586  0.1091 -0.1028 -0.2078
89209W        W32147  11.865   5.285   4.904 -0.1711 -0.4223  0.2713
89210W        W32148  13.729   5.475   5.945 -0.2148  0.1137  0.1810
89211W        W32149  12.206   3.733   5.222  0.0495 -0.1959 -0.2144
89212W        W32150  14.529   3.185   3.463  0.2269 -0.3176  0.3574
89213W        W32151  12.068   7.906   7.287  0.0328  0.0638  0.0538
89214W        W32152  13.541   5.735   7.352 -0.2713  0.1379  0.0963
89215W        W32153  12.680   5.576   8.949 -0.1851  0.0859 -0.0695
89216W        W32154  12.047   4.216   7.150  0.2791 -0.3543 -0.4152
89217W        W32155  13.927   3.652   8.300 -0.1009 -0.2552 -0.0341
89218W        W32156  14.814   4.673   9.154 -0.0556  0.1524 -0.0052
89219W        W32157  12.909   6.015   9.816 -0.1359 -0.0283 -0.2688
89220W        W32158  15.477   6.694   7.475  0.0454 -0.2751  0.1561
89221W        W32159  13.525   3.962   9.007  0.2032  0.0068 -0.1832
89222W        W32160  14.286   8.642   9.062 -0.0854 -0.0939 -0.0815
89223W        W32161  13.655   5.275   6.989 -0.0489 -0.1603  0.1581
89224W        W32162  12.241   4.719   8.440 -0.1980 -0.0956 -0.0917
89225W        W32163  12.058   4.114   8.944 -0.0600 -0.0563  0.1801
89226W        W32164  10.452   4.038   9.731 -0.0350  0.1606  0.2803
89227W        W32165  14.769   6.484   9.805 -0.0511 -0.3606 -0.1583
89228W        W32166  12.209   5.202   8.292  0.0663  0.1407  0.0547
89229W        W32167  11.959   4.031   8.485  0.4594 -0.3002  0.2749
89230W        W32168  12.539   4.597   6.811 -0.2627 -0.1570  0.2495
89231W        W32169  12.503   6.239   8.329 -0.0660 -0.2328 -0.1531
89232W        W32170  11.708   4.570   9.241  0.0455  0.3477  0.1400
89233W        W32171  14.194   6.576   6.891 -0.0237 -0.2521  0.2531
89234W        W32172  10.313   5.360   6.316  0.0678 -0.0226 -0.1716
89235W        W32173  11.155   5.038   9.217 -0.2440  0.3140 -0.3415
89236W        W32174   9.532   5.989   7.928  0.2002  0.2810  0.0410
89237W        W32175  13.138   2.864   9.300 -0.0604  0.2597 -0.1583
89238W        W32176  14.299   5.602   8.324 -0.2586  0.2408 -0.2070
89239W        W32177  13.453   7.720   9.509  0.2401 -0.2297  0.2760
89240W        W32178  12.919   6.397   8.474  0.0928  0.1165  0.0951
89241W        W32179  11.569   6.095   9.384  0.1231 -0.0500 -0.2070
89242W        W32180   9.320   8.166   9.927  0.0404  0.4256  0.1128
89243W        W32181  12.604   6.410   7.791  0.2431 -0.0509 -0.0253
89244W        W32182  14.151   6.812   7.714 -0.0149  0.1654  0.0028
89245W        W32183  11.291   6.280   7.846  0.2674 -0.1043 -0.1370
89246W        W32184  14.615   5.817   8.603 -0.1488 -0.1048 -0.3964
89247W        W32185  13.200   6.426   8.063  0.1192  0.1880 -0.1625
89248W        W32186  11.009   6.067   8.223 -0.0165 -0.1169 -0.0210
89249W        W32187  12.901   5.494   8.191 -0.0760 -0.3362 -0.0512
89250W        W32188  11.636   6.718   7.832  0.0043  0.3285  0.0100
89251W        W32189  12.943   7.662   7.861 -0.1905 -0.1542  0.1454
89252W        W32190  11.959   5.971   7.255 -0.0758 -0.0612  0.1277
89253W        W32191  12.763   4.899   7.165 -0.0495  0.0356  0.0180
89254W        W32192  13.792   5.520   9.124  0.0866 -0.2982  0.0465
89255W        W32193  12.679   3.871   9.016  0.0261  0.3909  0.1517
89256W        W32194  11.857   7.918   8.620 -0.1364 -0.2318  0.2041
89257W        W32195  10.387   4.686   9.753  0.1341 -0.3984 -0.1032
89258W        W32196  13.715   6.160   8.993 -0.1951 -0.3172  0.1893
89259W        W32197  10.621   6.536   9.015 -0.2290  0.2791  0.1734
89260W        W32198  11.965   7.503   9.935 -0.0597 -0.1227 -0.2558
89261W        W32199   7.671   5.571   9.830 -0.0948  0.1922 -0.1185
89262W        W32200  15.714   7.018   7.068  0.1966  0.2324  0.1966
89263W        W32201  14.443   6.654   8.787  0.2444 -0.1917  0.1031
89264W        W32202  12.587   6.746   7.218  0.2069  0.1656 -0.4305
89265W        W32203  10.743   4.449   9.099 -0.0761 -0.0200  0.0805
89266W        W32204  11.560   4.549   7.069 -0.0858  0.0630  0.0733
89267W        W32205  13.802   4.364   9.171 -0.0126  0.0693 -0.1499
89268W        W32206  12.692   5.003   8.144  0.1328 -0.0261  0.0195
89269W        W32207  14.941   5.163   9.295  0.5338  0.1085 -0.1734
89270W        W32208  13.495   6.710   8.377  0.1087  0.4025  0.1586
89271W        W32209  14.550   3.825   7.761  0.3182 -0.0028 -0.0503
89272W        W32210  13.430   4.263   9.494  0.2990 -0.0671 -0.2230
89273W        W32211  11.951   5.033   6.341  0.3564 -0.0415  0.0655
89274W        W32212  11.989   5.435   7.248  0.0534  0.0267  0.0889
89275W        W32213  15.726   7.185   9.129 -0.1455 -0.1888  0.2155
89276W        W32214  14.717   6.267   7.594  0.0706 -0.0924 -0.4768
89277W        W32215  13.232   5.917   8.329 -0.0437 -0.2456 -0.2839
89278W        W32216  10.467   8.067   7.561 -0.1206 -0.3683  0.5072
89279W        W32217  11.784   8.068   9.495  0.3103  0.1256 -0.1421
89280W        W32218  10.682   6.247   6.589 -0.2325  0.0598 -0.0987
89281W        W32219   9.262   3.113   9.770 -0.4645 -0.1100 -0.1046
89282W        W32220  13.139   5.043   8.373  0.0500 -0.2019 -0.1958
89283W        W32221  14.540   3.985   7.286 -0.2061 -0.1246  0.3149
89284W        W32222  14.837   2.979   8.302  0.0325  0.0312  0.0823
89285W        W32223  11.286   5.404   8.777  0.0963 -0.1398 -0.0440
89286W        W32224  13.531   7.945   7.972 -0.0403 -0.0531  0.2219
89287W        W32225  13.743   5.703   8.553 -0.0038  0.1268  0.0546
89288W        W32226  13.373   6.271   7.569 -0.0343  0.2291  0.2095
89289W        W32227  10.823   5.577   8.465  0.0258  0.1023  0.0330
89290W        W32228  10.044   4.934   8.621 -0.0834 -0.3684 -0.2042
89291W        W32229   9.851   3.955   8.740 -0.1106 -0.0435 -0.1906
89292W        W32230  11.514   3.790   8.192 -0.1844  0.0448 -0.0566
89293W        W32231  14.233   3.509   7.900  0.0630  0.1140 -0.0138
89294W        W32232  13.460   4.995   7.341  0.0879  0.5237 -0.4077
89295W        W32233  10.859   6.059   7.770  0.2054 -0.2580  0.0299
89296W        W32234  12.686   7.242   7.826 -0.2032  0.1693 -0.1214
89297W        W32235  15.584   5.885  10.040  0.0020  0.3799 -0.2420
89298W        W32236  13.972   7.720   7.979  0.0332 -0.3343  0.2060
89299W        W32237  10.602   3.894   8.069 -0.1635 -0.0820  0.0912
89300W        W32238  10.758   3.913   6.705 -0.0566 -0.0117  0.1333
89301W        W32239  11.867   6.794   8.700  0.0983 -0.3046  0.1952
89302W        W32240  14.605   6.607   9.231  0.1277 -0.0208  0.0711
89303W        W32241  10.453   4.502   7.734  0.0458 -0.1309  0.1390
89304W        W32242  13.740   7.549   8.495 -0.3153 -0.1294 -0.1235
89305W        W32243  13.637   5.781   8.056 -0.0577  0.2507  0.0643
89306W        W32244  14.732   6.783   8.423 -0.3524 -0.0725 -0.1139
89307W        W32245  14.932   5.138   8.780  0.2459  0.1115  0.0978
89308W        W32246  10.319   3.735   7.194 -0.0872 -0.1995  0.2346
89309W        W32247  12.705   7.558   8.359  0.0350  0.2344  0.2006
89310W        W32248  12.365   6.122   6.944 -0.1216 -0.0201  0.0109
89311W        W32249  11.075   6.303   9.032 -0.2822 -0.3644  0.1970
89312W        W32250  12.527   6.682   8.775 -0.1913 -0.1236  0.1590
89313W        W32251  14.504   4.808   8.799  0.0641  0.3412 -0.1094
89314W        W32252  10.907   5.442   7.008  0.1775  0.0004 -0.0298
89315W        W32253  14.334   3.485   8.915 -0.2132  0.0982 -0.0938
89316W        W32254  13.629   4.524   7.150 -0.3604 -0.1943 -0.0462
89317W        W32255  14.359   3.983   8.182 -0.0038  0.2128 -0.3832
89318W        W32256  14.237   4.229   9.689  0.0677 -0.0594  0.1700
89319W        W32257  13.237   4.063   7.192  0.2485  0.3756 -0.2001
89320W        W32258  12.680   5.321   7.788 -0.1306  0.0346  0.2289
89321W        W32259  13.144   5.464   8.688 -0.0952 -0.1464 -0.0436
89322W        W32260  13.207   4.581   8.651  0.1363  0.1197  0.1297
89323W        W32261  13.966   6.956   9.565  0.2550 -0.0814 -0.0987
89324W        W32262  11.633   5.663   8.993  0.1493  0.0865  0.0099
89325W        W32263  14.183   6.330   7.766 -0.2197  0.0489 -0.0215
89326W        W32264  14.681   4.779   9.594  0.0967 -0.0484  0.2048
89327W        W32265  11.351   5.188   6.795 -0.1563  0.2056 -0.1895
89328W        W32266  14.051   2.793   9.979 -0.2148  0.1357  0.0810
89329W        W32267  10.660   7.189   6.905 -0.0482 -0.1764 -0.2649
89330W        W32268  13.434   6.057   9.593  0.2878  0.0030 -0.2924
89331W        W32269  12.616   3.797   9.505 -0.2042  0.0986 -0.1535
89332W        W32270  13.881   3.988   8.637  0.1210 -0.2058  0.0561
89333W        W32271  13.099   3.881   9.365  0.2248 -0.0820  0.0461
89334W        W32272  10.496   4.306   6.947  0.0017  0.0668  0.1350
89335W        W32273  16.318   2.360  10.111  0.0818 -0.3484  0.2415
89336W        W32274  12.158   5.329   8.820  0.0190 -0.0025  0.0230
89337W        W32275  13.724   6.279   7.907 -0.2515 -0.2327  0.0473
89338W        W32276  12.231   4.875   7.813 -0.0686 -0.0491  0.2891
89339W        W32277  10.368   7.020   8.342  0.1833  0.1248  0.1770
89340W        W32278  11.730   6.421   6.673 -0.1859  0.0056 -0.0448
89341W        W32279   9.744   3.010   9.695 -0.0890  0.0478 -0.0083
89342W        W32280  13.286   5.241   9.437 -0.1070  0.1259  0.1451
89343W        W32281  10.993   5.810   6.666  0.1655  0.2461  0.1860
89344W        W32282  12.332   7.061   9.584 -0.0888  0.2889  0.1996
89345W        W32283  11.787   5.139   7.652  0.0274 -0.0784 -0.1513
89346W        W32284  14.993   5.780   9.642 -0.0250  0.0642  0.3501
89347W        W32285  10.462   6.097   9.164  0.1171 -0.1088 -0.0765
89348W        W32286  11.100   4.948   7.208  0.1662  0.0775 -0.0448
89349W        W32287  10.812   5.114   8.203 -0.2839  0.1034 -0.0108
89350W        W32288  14.092   3.329   9.445 -0.0489 -0.3266  0.2519
89351W        W32289  14.886   5.776   7.171 -0.0530  0.0277  0.2268
89352W        W32290  10.813   1.428   9.824  0.1377  0.0126  0.3502
89353W        W32291  12.614   3.053   9.584 -0.1659  0.0426 -0.1848
89354W        W32292  12.434   4.427   9.262 -0.0051  0.2224 -0.0995
89355W        W32293  13.742   3.242   7.825  0.0697  0.0084 -0.0361
89356W        W32294  10.499   4.793   6.602 -0.1279 -0.0609  0.1604
89357W        W32295  15.139   4.864   9.852 -0.3192  0.1737  0.1929
89358W        W32296  12.193   3.652   8.695 -0.1100 -0.1178 -0.0333
89359W        W32297  10.212   6.265   8.657  0.1926 -0.1612 -0.1091
89360W        W32298  12.097   6.993   9.146  0.0011  0.0402  0.1490
89361W        W32299  12.014   6.302   8.420  0.0840 -0.3369  0.0550
89362W        W32300  10.709   6.565   8.554  0.5698 -0.1452  0.2360
89363W        W32301  12.773   5.963   7.970  0.1393  0.0262  0.1196
89364W        W32302  11.937   1.784   9.882 -0.0540 -0.1899  0.0467
89365W        W32303  11.461   4.290   8.441 -0.1644 -0.2235 -0.3211
89366W        W32304  12.622   5.270   8.565 -0.0662 -0.1943 -0.2423
89367W        W32305  14.449   5.152   9.226  0.0860 -0.0844  0.0351
89368W        W32306  15.607   4.740   9.711 -0.3731 -0.0907 -0.1507
89369W        W32307  13.555   4.789   9.127  0.2785  0.0547 -0.0584
89370W        W32308  15.366   8.426   7.063  0.0966  0.1246 -0.0429
89371W        W32309  10.859   5.785   9.303  0.1101 -0.3180 -0.1214
89372W        W32310  12.238   5.303   9.296 -0.0298  0.0538 -0.1967
89373W        W32311  11.166   6.413   6.818  0.3497 -0.3253 -0.3392
89374W        W32312  13.834   4.019   9.956  0.0506 -0.0808  0.3546
89375W        W32313  10.422   5.229   8.725  0.0882  0.0343 -0.0631
89376W        W32314  10.490   6.514   7.543  0.2219  0.0326 -0.2104
89377W        W32315  13.184   6.500   9.741 -0.1703  0.0571 -0.1062
89378W        W32316  13.157   3.340   8.206  0.3098 -0.3665  0.0228
89379W        W32317  12.762   6.461   6.802  0.1189 -0.2504  0.1786
89380W        W32318  13.619   3.553   9.371 -0.0094 -0.0051 -0.1497
89381W        W32319  11.874   4.583   7.584 -0.1073  0.3530  0.1459
89382W        W32320  13.771   2.284   9.277 -0.3102  0.0568 -0.1755
89383W        W32321  14.660   7.995   8.624 -0.0308 -0.3127  0.1091
89384W        W32322  12.877   4.339   8.982  0.0493 -0.4497  0.1610
89385W        W32323  10.623   4.769   7.085  0.1427 -0.0811 -0.1181
89386W        W32324  14.137   5.484   9.512 -0.1851  0.0022 -0.0195
89387W        W32325  14.371   7.078   8.056  0.0671  0.2031 -0.2770
89388W        W32326  12.393   7.202   8.674  0.1286  0.3794  0.0373
89389W        W32327  15.240   7.060   9.364 -0.2365  0.0558 -0.1271
89390W        W32328   9.064   7.420   9.133 -0.1176 -0.0588  0.1277
89391W        W32329  14.092   6.030   8.165  0.3370 -0.1949 -0.0604
89392W        W32330  12.477   5.711   7.369 -0.1277  0.2473 -0.0243
89393W        W32331  13.188   5.036   7.858  0.1572  0.2884  0.0459
89394W        W32332  13.407   4.243   8.291  0.1597  0.1881  0.1548
89395W        W32333  12.166   3.043   8.494 -0.0991  0.1093  0.1061
89396W        W32334  14.735   5.644   9.192  0.4212  0.1457 -0.2149
89397W        W32335  14.564   5.425   7.741 -0.2033 -0.1059  0.0248
89398W        W32336  15.316   3.539   9.799 -0.0088  0.0891  0.2409
89399W        W32337  14.783   3.694   9.034 -0.0484  0.0109 -0.1333
89400W        W32338  12.717   5.883   8.575  0.0490 -0.1791  0.1441
89401W        W32339  10.828   3.868  10.012 -0.2085 -0.0944  0.0076
89402W        W32340  12.328   5.056   6.914 -0.1032 -0.0031 -0.2306
89403W        W32341  12.358   6.799   7.657 -0.1653 -0.3275 -0.1743
89404W        W32342  14.064   7.042   8.625 -0.1062  0.1862  0.2186
89405W        W32343  13.710   3.258   7.343 -0.3613  0.0018  0.0126
89406W        W32344  11.117   3.276   9.850  0.1764  0.2140 -0.4116
89407W        W32345  12.310   4.737   6.394 -0.1251  0.1882 -0.3861
89408W        W32346   9.926   5.224   8.221 -0.1134 -0.0933  0.0060
89409W        W32347  13.872   6.560   8.666  0.1827  0.0194 -0.0432
89410W        W32348  13.199   2.795   6.665  0.1237  0.0616 -0.3415
89411W        W32349  10.389   7.512   8.611 -0.0361  0.0429 -0.0858
89412W        W32350  13.978   2.991   9.092 -0.0985 -0.0308  0.1407
89413W        W32351  13.505   7.326   9.277  0.2185  0.2640  0.2945
89414W        W32352  12.764   8.792   7.543  0.0896 -0.0637 -0.0690
89415W        W32353  13.016   2.594   9.841 -0.3880 -0.2568 -0.1905
89416W        W32354  13.910   7.207   8.159 -0.1491  0.1441 -0.1675
89417W        W32355  12.546   4.963   8.951  0.1977  0.1368  0.0011
89418W        W32356  12.163   5.440   7.778  0.0785  0.2539  0.1319
89419W        W32357  14.867   7.125   8.088  0.0390 -0.1079  0.4671
89420W        W32358  12.249   5.738   8.185 -0.0061  0.1344 -0.2871
89421W        W32359  13.895   6.028   9.483  0.1821  0.0170  0.2228
89422W        W32360  12.011   3.495   7.654  0.2239  0.0339 -0.0186
89423W        W32361  12.189   7.635   6.830 -0.0192 -0.1009 -0.1455
89424W        W32362  13.058   4.973   8.952 -0.0315 -0.0105 -0.3996
89425W        W32363  10.669   7.189   7.702  0.1429  0.3765  0.1976
89426W        W32364  13.870   6.293   7.344 -0.0874 -0.2918  0.3214
89427W        W32365  13.173   6.790   7.133  0.1913 -0.0740 -0.2710
89428W        W32366  14.209   6.959   9.134 -0.1552  0.3082 -0.2677
89429W        W32367  12.792   4.162   7.753 -0.2587 -0.1437  0.1367
89430W        W32368  12.968   5.900   9.234  0.1409  0.3842  0.0594
89431W        W32369  10.097   6.487   7.161 -0.0640  0.3097 -0.2240
89432W        W32370  13.655   7.385   6.086  0.2054 -0.1058 -0.0096
89433W        W32371  11.809   5.915   8.068  0.2506 -0.1345  0.0250
89434W        W32372  13.292   3.580   7.100  0.1738 -0.0028 -0.0411
89435W        W32373  14.930   4.184   9.018 -0.0461 -0.1776 -0.1972
89436W        W32374  14.582   3.442   8.274 -0.3585  0.1033  0.0088
89437W        W32375  12.711   4.678   8.581  0.3545  0.2719 -0.3465
89438W        W32376  12.241   3.803   5.732 -0.2685 -0.0444  0.0067
89439W        W32377  14.828   7.922   8.162 -0.0503  0.0540  0.0539
89440W        W32378  11.311   4.873   8.381 -0.1124 -0.1623  0.2934
89441W        W32379  12.382   3.948   8.237  0.1205 -0.0510  0.2199
89442W        W32380  14.009   3.894   9.111 -0.2333 -0.3854  0.0011
89443W        W32381  11.685   5.435   8.077  0.2441  0.3172 -0.6051
89444W        W32382  13.274   4.174   7.774 -0.1153 -0.0657 -0.1273
89445W        W32383  12.111   7.540   8.317 -0.0613  0.2382 -0.2065
89446W        W32384  12.278   6.465   9.797 -0.0028  0.2449 -0.2834
89447W        W32385  13.364   6.114  12.083  0.0855  0.1534  0.0817
89448W        W32386  11.392   4.801   7.561 -0.2499 -0.2527  0.1047
89449W        W32387  14.221   4.988   9.829  0.3289 -0.3474  0.0368
89450W        W32388  11.181   4.533   9.280 -0.0042  0.0325 -0.0966
89451W        W32389  12.390   5.202   7.391 -0.1525  0.0172  0.1933
89452W        W32390  13.923   4.275   8.247  0.0070 -0.1702 -0.0809
89453W        W32391  11.399   4.815   8.845  0.0195 -0.0234  0.0681
89454W        W32392  10.226   4.184   8.981 -0.0407  0.2959  0.0251
89455W        W32393  13.103   4.573   7.476  0.1999 -0.0905 -0.2771
89456W        W32394  13.395   4.762   9.616  0.1127  0.1386 -0.1888
89457W        W32395  11.407   4.216   8.965  0.2163  0.0200  0.0485
89458W        W32396  12.451   4.210   8.674 -0.3685  0.1033 -0.1186
89459W        W32397  10.373   5.143   7.789 -0.1083 -0.1919 -0.0858
89460W        W32398  12.958   4.762   9.389 -0.2772 -0.0228 -0.4017
89461W        W32399  10.668   4.237   7.382 -0.3493  0.2211 -0.0649
89462W        W32400  14.607   5.775   6.749 -0.1079 -0.1950  0.0500
89463W        W32401  15.002   6.112   9.229 -0.2261  0.1672 -0.0207
89464W        W32402   9.756   7.303   6.872  0.0459 -0.1793  0.1214
89465W        W32403  13.611   6.229   8.400  0.0226  0.2067 -0.1821
89466W        W32404  13.913   5.888   7.644 -0.0767 -0.0388  0.3291
89467W        W32405  10.204   3.690   8.857 -0.1367 -0.0442 -0.2074
89468W        W32406  13.518   7.120   8.609  0.4306  0.1317 -0.0303
89469W        W32407  15.140   7.166   8.522  0.0482  0.2832  0.0788
89470W        W32408  13.152   3.626   8.939  0.3005 -0.2321 -0.1122
89471W        W32409  11.720   5.219   8.540  0.0344 -0.1560  0.1018
89472W        W32410  11.209   6.622   8.690  0.2513 -0.2737  0.2958
89473W        W32411  13.571   5.050   8.695  0.3502  0.1754 -0.1237
89474W        W32412  12.541   8.552   6.839 -0.0891  0.0378  0.0557
89475W        W32413  13.499   4.708   8.277 -0.1520  0.1564 -0.2354
89476W        W32414  11.271   5.608   8.298 -0.1980  0.3103  0.2188
89477W        W32415  12.225   6.066   7.838  0.1962 -0.4808 -0.0340
89478W        W32416  13.694   5.351   7.681  0.1835  0.1368 -0.1327
89479W        W32417  13.143   7.056   8.113 -0.6804  0.0546  0.1442
89480W        W32418  12.904   6.604   9.021 -0.1037 -0.0831 -0.2081
89481W        W32419  15.184   6.022   8.767  0.5156 -0.4353  0.1545
89482W        W32420  10.927   4.700   9.658 -0.0826  0.1532 -0.4957
89483W        W32421  15.105   3.407   7.537 -0.0862  0.0350  0.2985
89484W        W32422  14.856   4.207   8.062 -0.0697  0.1680  0.0684
89485W        W32423  10.304   5.761   8.617  0.3660 -0.0190 -0.1037
89486W        W32424   9.923   5.735   7.775  0.0120  0.0261  0.2231
89487W        W32425  11.987   6.925   7.328 -0.0273 -0.1440 -0.1046
89488W        W32426  12.104   5.934   9.168 -0.4247 -0.3552  0.1583
89489W        W32427  11.171   3.864   9.201  0.3202  0.0498  0.0156
89490W        W32428  11.284   3.428   9.378 -0.1699 -0.0989 -0.2590
89491W        W32429  15.536   6.457   7.038 -0.1018  0.0618  0.1091
89492W        W32430  12.189   3.482   8.195 -0.3263  0.1769 -0.0624
89493W        W32431  11.173   3.713  10.325  0.2416  0.0419  0.0940
89494W        W32432  15.109   6.221   6.848  0.1321 -0.0277 -0.1176
89495W        W32433  14.986   8.622   7.264 -0.3067 -0.2031  0.3484
89496W        W32434  11.799   4.551   8.673  0.1030  0.1282 -0.1547
89497W        W32435  10.866   6.342   7.318 -0.1014  0.2154  0.1598
89498W        W32436  10.814   4.344   6.490 -0.2168  0.2541 -0.3293
89499W        W32437  13.815   5.048   9.442 -0.0679 -0.0725 -0.1242
89500W        W32438  14.605   6.181   6.977 -0.1387  0.0096 -0.1209
89501W        W32439  14.548   7.814   6.908  0.0426 -0.2150  0.1383
89502W        W32440   9.490   4.196   9.113  0.2882 -0.1115  0.1294
89503W        W32441  13.196   6.129   8.827  0.0429  0.2369 -0.2330
89504W        W32442  14.561   6.592   7.972 -0.2517  0.0441  0.1222
89505W        W32443  15.177   3.779   9.304  0.1807  0.0132  0.3759
89506W        W32444  14.004   4.936   8.906  0.0102  0.3961  0.0668
89507W        W32445  15.512   5.392  10.016  0.3523  0.1793 -0.0349
89508W        W32446  12.723   1.589   9.452 -0.0463 -0.1644  0.1283
89509W        W32447  14.058   4.046   7.798 -0.1218 -0.1130 -0.0767
89510W        W32448  13.998   6.562   6.449 -0.1583 -0.3487 -0.0757
89511W        W32449  11.576   5.109   9.752  0.0206  0.0679 -0.1763
89512W        W32450  12.238   3.745   9.238 -0.5997  0.3151  0.0103
89513W        W32451  13.099   6.859   7.650 -0.2850  0.1122  0.1060
89514W        W32452  12.593   4.606   7.575  0.3281 -0.0648 -0.3908
89515W        W32453  16.241   5.459   7.759 -0.2305 -0.0715  0.2371
89516W        W32454  17.086   9.319   9.421  0.1623 -0.2704  0.2079
89517W        W32455  13.379   6.622   8.830 -0.2031 -0.0248  0.0531
89518W        W32456  13.702   3.468   8.745 -0.1575 -0.2677  0.1613
89519W        W32457  10.577   3.938   9.295  0.1138 -0.1149  0.2291
89520W        W32458  11.298   5.663   7.803 -0.0592  0.0701  0.2846
89521W        W32459  13.238   5.531   7.820 -0.1462  0.1687  0.0892
89522W        W32460  14.162   4.477   8.710 -0.0348  0.3496  0.0731
89523W        W32461  11.655   1.870   9.423 -0.0380 -0.0335 -0.0224
89524W        W32462  11.846   3.308   6.822 -0.1481 -0.0416 -0.1405
89525W        W32463  12.357   7.434   9.164  0.0286  0.0951  0.1252
89526W        W32464  15.254   4.770   8.847  0.2317  0.0164  0.1863
89527W        W32465  11.988   9.253   2.353  0.3153 -0.3286  0.2345
89528W        W32466  10.959   9.225   1.340  0.1065  0.0153  0.1453
89529W        W32467  14.712   6.850  31.215 -0.0858 -0.1885 -0.2216
89530W        W32468  13.054  10.623   0.939 -0.2209 -0.0469  0.1689
89531W        W32469  12.014   7.465   1.579 -0.2573  0.1862 -0.2404
89532W        W32470  13.008  11.368   0.270 -0.0678 -0.0158  0.1629
89533W        W32471  10.978   9.438   2.406 -0.1457 -0.1863  0.1720
89534W        W32472  13.747   9.464   2.105  0.0144 -0.1091  0.3137
89535W        W32473  14.018  10.952   1.986 -0.1128  0.2793  0.2972
89536W        W32474  13.294   9.602   1.115 -0.1703  0.2949 -0.0504
89537W        W32475  11.766   8.094   2.983 -0.4714  0.2070 -0.2494
89538W        W32476  12.200  10.276   3.758  0.0865  0.0353 -0.0639
89539W        W32477  12.427   7.109   0.368  0.0730  0.0135 -0.0373
89540W        W32478  10.124   7.844   1.175 -0.0796 -0.0133 -0.0831
89541W        W32479  14.636  10.088   1.310  0.4397 -0.3624 -0.0783
89542W        W32480  12.077   9.157   0.906 -0.1622 -0.1686  0.0303
89543W        W32481  11.550   7.838   2.565 -0.2661 -0.2313 -0.1259
89544W        W32482  12.434   8.688   1.077 -0.0704  0.0733  0.2215
89545W        W32483  13.831  11.394   2.116  0.2868  0.0347  0.1559
89546W        W32484  12.814   7.075   3.129 -0.2941 -0.1238 -0.1110
89547W        W32485  13.167   7.885   4.057  0.0514  0.2254  0.0679
89548W        W32486  11.765  10.904  30.877 -0.1150  0.0733 -0.3538
89549W        W32487  12.350   8.105   0.835 -0.0646 -0.2173 -0.1569
89550W        W32488  11.193   9.665   1.185  0.4932 -0.0147 -0.1088
89551W        W32489  12.625   8.221   1.426  0.1234  0.0906 -0.2551
89552W        W32490  13.029   8.084   2.432  0.0488  0.0146 -0.1375
89553W        W32491  13.187   9.273   2.477 -0.1235  0.4319 -0.0512
89554W        W32492  13.023  11.381   1.746  0.1438 -0.1574 -0.4051
89555W        W32493  13.730  12.233   1.436  0.3250  0.2148 -0.3776
89556W        W32494  13.160   8.756   1.860 -0.3681 -0.1098 -0.1710
89557W        W32495  12.298  10.221  31.408 -0.0459 -0.1863  0.2278
89558W        W32496  10.595  12.201   0.808 -0.4846 -0.2857 -0.0873
89559W        W32497  12.360  10.410   0.607  0.4344  0.1950 -0.1914
89560W        W32498  14.837  10.356   0.491  0.1207  0.1621 -0.0086
89561W        W32499  13.121  10.039   2.778  0.0799 -0.3387  0.1178
89562W        W32500  12.117  11.149   3.468  0.2240 -0.2734 -0.0284
89563W        W32501  10.660  10.770   0.264 -0.3223  0.0226 -0.0395
89564W        W32502  12.587  10.487   4.051 -0.1210  0.1570 -0.2719
89565W        W32503  12.230   9.892   1.484  0.0841 -0.1950 -0.0315
89566W        W32504  12.539   8.875   2.321 -0.2339  0.1322 -0.0441
89567W        W32505  12.278   7.843   1.407 -0.1008  0.1604  0.1096
89568W        W32506  10.691  10.166   1.433 -0.0366 -0.1658  0.0918
89569W        W32507  12.869   8.490   2.674 -0.1751 -0.1251  0.1068
89570W        W32508  11.775  10.039   3.421  0.1544 -0.1849 -0.0137
89571W        W32509  10.386   9.428   1.312 -0.2610 -0.1088 -0.1056
89572W        W32510  14.438   8.350   3.296  0.0305 -0.0951 -0.1257
89573W        W32511  13.952  10.766  30.707  0.0125  0.0584 -0.3324
89574W        W32512  15.397   8.792  31.680  0.1962  0.3668  0.1814
89575W        W32513  12.075   8.557   0.793 -0.0785  0.0554 -0.0980
89576W        W32514  13.795   9.218   0.026  0.1823  0.1678 -0.3076
89577W        W32515  12.116   7.278   2.704 -0.1978  0.2927  0.0752
89578W        W32516  12.521  11.701   2.715 -0.0622  0.2709 -0.1832
89579W        W32517  11.220   8.080   2.295 -0.1544  0.0154 -0.1417
89580W        W32518  12.695   9.520   3.561 -0.0406  0.1161 -0.1684
89581W        W32519  14.903   8.737  31.607 -0.1689  0.2008 -0.2934
89582W        W32520  13.701   8.101   2.294 -0.0071 -0.1582 -0.0016
89583W        W32521  11.863   9.445   1.869 -0.0987  0.1573 -0.2361
89584W        W32522   9.304  10.044   1.245 -0.3824 -0.1744 -0.0509
89585W        W32523  12.624  11.012   0.429  0.6536  0.1854 -0.0108
89586W        W32524  14.531   9.914   1.911  0.2145  0.1592 -0.0753
89587W        W32525  13.281  11.033   0.020 -0.2508 -0.0489  0.1229
89588W        W32526  11.855   8.066   0.827 -0.1864 -0.2193  0.0154
89589W        W32527  10.819  10.139   2.418 -0.2777  0.1125  0.1778
89590W        W32528  11.131   8.929   2.314 -0.0160  0.2254 -0.2029
89591W        W32529  11.611   7.011   0.586  0.0191 -0.1710 -0.1287
89592W        W32530  12.899   9.778   2.422 -0.5294 -0.1719  0.1738
89593W        W32531  11.826  10.762   1.563 -0.0683 -0.3487  0.0812
89594W        W32532  14.605   8.031   0.931 -0.1235  0.1788 -0.0131
89595W        W32533  12.516   8.557   0.505 -0.0887 -0.2780 -0.0380
89596W        W32534  14.731  10.440   2.260  0.2493 -0.0057 -0.1682
89597W        W32535  14.371  10.486  30.866  0.0999 -0.2423 -0.0593
89598W        W32536  14.568   7.590   2.087  0.1023  0.0236 -0.1943
89599W        W32537  13.077   8.795   2.394  0.2140 -0.1850 -0.2988
89600W        W32538  11.679   9.959   1.896 -0.0156 -0.0167  0.2635
89601W        W32539  12.386   7.901   0.021  0.1687  0.1319 -0.1729
89602W        W32540  14.852  10.421   1.767  0.1451 -0.1140 -0.1412
89603W        W32541  12.567   9.009   0.692  0.1529  0.1035  0.2718
89604W        W32542  12.649   7.791   2.549  0.1653  0.2477 -0.0363
89605W        W32543  13.201  10.187   3.867 -0.2533  0.1605 -0.3210
89606W        W32544  12.743  12.705  31.272 -0.2004  0.1584 -0.0125
89607W        W32545  10.566  10.003   0.115  0.0683 -0.0097  0.3615
89608W        W32546  12.845  12.129  30.857 -0.0487  0.1296 -0.2612
89609W        W32547  10.794   8.273   2.531 -0.1495  0.2987  0.0029
89610W        W32548  11.962   8.952   1.715  0.0753  0.1416  0.0805
89611W        W32549  13.638   9.262   0.939 -0.0862  0.1453 -0.0090
89612W        W32550  11.804   7.759   3.412  0.1540  0.0580 -0.1684
89613W        W32551  14.643   7.478   1.124  0.0144 -0.3322 -0.0717
89614W        W32552  12.144   9.984   0.394 -0.3764  0.1027 -0.0528
89615W        W32553  12.982  11.169   1.239 -0.0082 -0.2047  0.5098
89616W        W32554  13.343   8.587   1.124 -0.1039 -0.5172  0.3200
89617W        W32555  14.437  10.041  31.308  0.0491  0.0340  0.0280
89618W        W32556  10.093   8.311   3.111 -0.5068 -0.0663 -0.1228
89619W        W32557  11.434   9.536   1.654  0.2689 -0.0130 -0.0774
89620W        W32558  11.457   9.800   3.068  0.0492  0.3109 -0.0538
89621W        W32559  11.366   8.124   1.723 -0.2937 -0.3532  0.1226
89622W        W32560  14.490   8.596   2.151 -0.0901  0.0931  0.1873
89623W        W32561  11.237   6.334   0.574 -0.2386 -0.2959 -0.1993
89624W        W32562  13.284   8.858   2.833 -0.1725 -0.3447 -0.0321
89625W        W32563  13.384   7.965  31.743 -0.0731  0.1488 -0.0529
89626W        W32564  11.517  10.236   0.247 -0.2603 -0.3161 -0.1707
89627W        W32565  13.788   8.180   2.856 -0.1399  0.1747 -0.3560
89628W        W32566  12.711  10.480  30.697 -0.0791  0.1326  0.0709
89629W        W32567  13.836  10.274   1.669  0.1170 -0.0737  0.1978
89630W        W32568  12.568  10.664   0.967 -0.4160 -0.3536  0.1891
89631W        W32569  11.305   8.198   2.816  0.0127 -0.4213  0.1725
89632W        W32570  11.882   7.939   1.663  0.0890 -0.2076  0.0998
89633W        W32571  12.165  11.029   1.252  0.2688 -0.1917  0.1804
89634W        W32572  12.183  10.936   0.704 -0.1509  0.0448  0.1458
89635W        W32573  11.280   7.143   0.011  0.0533  0.3113 -0.0501
89636W        W32574  14.394   9.698   2.775  0.1111 -0.2747  0.0904
89637W        W32575  11.640  10.147   0.773  0.3711  0.0285  0.1374
89638W        W32576  12.642  10.116   1.527 -0.0793  0.1430  0.0678
89639W        W32577  13.113   8.579   3.209 -0.0686 -0.0687  0.0297
89640W        W32578  14.067   9.423   3.044  0.0964 -0.2311 -0.4025
89641W        W32579  13.583   8.475   1.550  0.0412  0.3190  0.2021
89642W        W32580   9.706   7.695  31.156 -0.0384 -0.1509 -0.1477
89643W        W32581  13.292  12.806   0.476  0.3493 -0.0850 -0.1265
89644W        W32582  10.982  12.145  31.140  0.2334 -0.1418  0.4159
89645W        W32583   9.934  10.511   0.796 -0.2712  0.0885 -0.1103
89646W        W32584  12.257  10.277   1.833  0.0320  0.2710 -0.0019
89647W        W32585  12.379   6.597   1.640  0.1493  0.1159  0.0416
89648W        W32586  10.709  10.105   3.597 -0.0898  0.2141 -0.3392
89649W        W32587  12.639   7.998   1.965 -0.4089 -0.4407 -0.0628
89650W        W32588  11.483   9.058   1.786 -0.4041  0.3944  0.1002
89651W        W32589  10.362  10.290   3.101 -0.0030  0.0848 -0.0065
89652W        W32590  12.928   7.226   1.335  0.0629  0.0979  0.1068
89653W        W32591  15.782   8.260   0.056 -0.2394 -0.0231  0.0141
89654W        W32592  11.822   9.977   3.915  0.1155  0.0616 -0.0784
89655W        W32593  14.333  10.907  31.151 -0.1863 -0.1131 -0.0206
89656W        W32594  13.833   7.479   0.620  0.0248 -0.2983 -0.0483
89657W        W32595  14.700   7.665  31.598 -0.0528 -0.0243  0.2956
89658W        W32596  10.039   9.952   2.800  0.0015  0.0283 -0.1656
89659W        W32597  13.593   9.643   0.624 -0.0781  0.1426 -0.0958
89660W        W32598  11.864   8.994   3.029 -0.1989 -0.1866  0.1440
89661W        W32599  14.037   8.620  31.417 -0.0280  0.1679  0.1994
89662W        W32600  13.311  10.441  31.895 -0.0632 -0.0173  0.0434
89663W        W32601   9.448  10.303   0.835 -0.1397 -0.1501  0.0634
89664W        W32602  12.476  10.628   4.617 -0.0269 -0.0265 -0.0548
89665W        W32603  12.143  11.011   1.918  0.2953  0.0684 -0.0285
89666W        W32604  12.970   6.948   3.904  0.0310  0.0937  0.0487
89667W        W32605  11.896   7.987  31.873  0.0779  0.1888 -0.1302
89668W        W32606  12.082   6.831   0.711 -0.1289 -0.0208  0.0575
89669W        W32607  11.222  11.903  29.881  0.1548  0.0288  0.1426
89670W        W32608  13.205   7.229   1.987 -0.2448  0.1848 -0.0696
89671W        W32609  12.859   8.663   1.335  0.0196  0.0334  0.1383
89672W        W32610  13.941   7.560   1.749  0.0644 -0.0327 -0.0906
89673W        W32611  13.969   8.326   4.116  0.1587 -0.1961 -0.0017
89674W        W32612  13.399   9.212   0.474 -0.3695 -0.0648 -0.1476
89675W        W32613  13.409   9.329   3.013  0.0202 -0.1126 -0.2579
89676W        W32614  13.114   8.777  31.493  0.2488 -0.0424  0.0284
89677W        W32615  12.794   7.464   3.954 -0.1416  0.0228  0.1345
89678W        W32616  12.322  11.048   2.699 -0.0939  0.4654 -0.2039
89679W        W32617  11.856  11.271   2.742  0.2611  0.2494  0.2373
89680W        W32618  12.693  10.193   3.695 -0.2617  0.4186  0.0972
89681W        W32619  12.840   9.736   1.048 -0.1063  0.1035 -0.0720
89682W        W32620  13.139   6.830   4.812 -0.0341 -0.1110 -0.1163
89683W        W32621  12.300   7.554   0.979  0.1843  0.1408  0.0204
89684W        W32622  11.433  11.009   0.414  0.0225  0.1640  0.2740
89685W        W32623  13.143  10.386   0.496  0.1268  0.0870 -0.3255
89686W        W32624  12.201   7.933   2.184  0.0605 -0.1960  0.3777
89687W        W32625  12.227  10.167   3.028  0.0864 -0.0334 -0.0554
89688W        W32626  13.222  10.770  31.491  0.1333  0.2757  0.0261
89689W        W32627  13.653   8.966   2.294  0.2909  0.1219  0.0758
89690W        W32628  10.466  10.116   0.783 -0.2305 -0.3074  0.1304
89691W        W32629  14.702   6.561   1.686 -0.5061 -0.0507  0.2800
89692W        W32630  11.825  10.457   2.005 -0.0382 -0.3030 -0.0642
89693W        W32631  12.203   8.365   0.113 -0.3990  0.0131  0.2878
89694W        W32632  10.853   7.361  31.694 -0.2940 -0.0815  0.3484
89695W        W32633  12.753   7.845   1.131  0.2188 -0.1176  0.0106
89696W        W32634  14.236  10.109  31.799  0.0685  0.0315 -0.1398
89697W        W32635  10.095   7.795   3.130  0.0444 -0.0436  0.0984
89698W        W32636  12.078   6.987   1.735  0.1051 -0.0113 -0.3229
89699W        W32637  11.550  10.631   1.130  0.3679  0.0117 -0.0484
89700W        W32638  12.186   9.375   3.451 -0.1636  0.3539 -0.0044
89701W        W32639  13.107   8.192   1.732  0.0327  0.2279 -0.1523
89702W        W32640  13.266   9.473   3.509  0.0059  0.0062 -0.1688
89703W        W32641  11.670   9.294   3.368  0.0358 -0.1830  0.2531
89704W        W32642  11.327   8.124  31.237  0.2133  0.0907  0.3783
89705W        W32643  12.632   8.596   3.110 -0.0763  0.0609  0.1387
89706W        W32644  10.795   7.377   2.009 -0.0433 -0.3416 -0.0654
89707W        W32645  10.507  11.191   0.539  0.1489  0.2607 -0.0847
89708W        W32646  12.357   9.931   3.451 -0.0563  0.1554  0.0618
89709W        W32647  12.112   8.708   2.099  0.2734  0.0907  0.2081
89710W        W32648  11.711   9.712   2.382 -0.2366  0.1949 -0.0121
89711W        W32649  10.547   8.123   3.080 -0.2262  0.1421  0.1718
89712W        W32650  14.565   8.919   2.491 -0.1162 -0.3217  0.1019
89713W        W32651  12.942   9.061   3.252  0.3383 -0.1845  0.2477
89714W        W32652  11.826   8.221   2.099 -0.1784  0.0833 -0.0297
89715W        W32653  13.754   9.305   1.410 -0.1873 -0.1139  0.0475
89716W        W32654  13.605   9.741   1.666 -0.0469 -0.1945  0.1740
89717W        W32655  13.596   8.971   3.864 -0.0946 -0.0196  0.3368
89718W        W32656  10.454  11.496   3.758 -0.1693  0.0740  0.1627
89719W        W32657  11.882   5.945   0.819  0.0977  0.0251  0.2975
89720W        W32658  13.601  12.645  31.743  0.1649 -0.0531 -0.3236
89721W        W32659  12.815   9.295   3.994 -0.1206 -0.2077 -0.3976
89722W        W32660  12.325   9.178   1.452  0.0514 -0.1869  0.3234
89723W        W32661  10.403   8.174   2.108  0.2907  0.0147  0.0188
89724W        W32662  10.652   9.144   2.212 -0.3295 -0.0284  0.1010
89725W        W32663  12.141   8.758   2.661  0.3469 -0.0120  0.0266
89726W        W32664  11.642  10.446   2.525 -0.4501  0.3805  0.0806
89727W        W32665  11.568  11.554   0.810  0.0964  0.2661 -0.1074
89728W        W32666  12.072  11.769   1.872  0.0782  0.1093 -0.1379
89729W        W32667  14.561   6.384  31.086 -0.0165 -0.2850 -0.0159
89730W        W32668  13.366   8.662   0.519 -0.2045 -0.1795 -0.1670
89731W        W32669  12.225   8.312   1.786  0.1416 -0.0944 -0.0459
89732W        W32670  13.829   8.157   3.343  0.0532  0.2209 -0.2898
89733W        W32671  12.357  10.134   0.011 -0.2371  0.1544 -0.0596
89734W        W32672  13.643   7.976   3.946  0.0594  0.0240 -0.0925
89735W        W32673  12.201   8.493   3.774  0.1733 -0.0352 -0.0169
89736W        W32674  12.794  10.214   0.866 -0.3808  0.0074  0.0939
89737W        W32675  11.334   9.049   3.016  0.1000  0.0331 -0.2333
89738W        W32676  12.536  10.403   3.287  0.3166  0.1015 -0.2087
89739W        W32677  10.379  10.377   2.595  0.1280  0.1742 -0.1269
89740W        W32678  12.422   7.607   0.461 -0.3747 -0.1239 -0.3315
89741W        W32679  11.154   7.252   0.636  0.2131  0.1669  0.1678
89742W        W32680  10.323   8.565   2.371  0.0987  0.3636 -0.0735
89743W        W32681  14.328  10.805   0.975 -0.2421  0.0244 -0.3885
89744W        W32682  12.383   9.542   1.085 -0.0328  0.0600  0.3613
89745W        W32683  12.946   7.654   2.202 -0.0095 -0.4178  0.2784
89746W        W32684  11.190   9.729   2.005  0.1095  0.2163 -0.2720
89747W        W32685  12.558   9.662   0.147  0.1540 -0.4577  0.0293
89748W        W32686  13.152   9.570   1.595 -0.1030  0.1326  0.3537
89749W        W32687  11.930   9.527   1.332 -0.1016  0.2517 -0.0819
89750W        W32688  12.816   8.256   3.399 -0.2310 -0.0583 -0.4523
89751W        W32689  14.158   9.917   1.468 -0.1877  0.2814  0.1391
89752W        W32690  14.242   9.397   1.066  0.2577 -0.1585 -0.3482
89753W        W32691  13.413   7.851   2.642 -0.1035  0.1219 -0.1855
89754W        W32692  12.921   9.892   3.397  0.2036 -0.0972  0.1385
89755W        W32693  14.036   7.629   3.693 -0.4152  0.3075  0.1348
89756W        W32694  11.593   8.618   2.879  0.0025  0.1726  0.0309
89757W        W32695  14.265  11.542   3.062 -0.2306 -0.1407 -0.2998
89758W        W32696  14.352  10.352   0.678  0.0052  0.0037  0.3632
89759W        W32697  14.013   8.742   2.593 -0.1490 -0.3499  0.0508
89760W        W32698  14.528   7.763   0.473  0.1322  0.1285  0.0375
89761W        W32699  14.028   8.304  31.844 -0.0887 -0.1728  0.0859
89762W        W32700  10.850   7.324   2.646 -0.0048  0.0204 -0.0917
89763W        W32701  13.810   8.981   2.952  0.0850 -0.1485  0.1757
89764W        W32702  12.852   8.314   0.872 -0.1034 -0.1701 -0.1442
89765W        W32703  14.538   8.966   3.619  0.2748 -0.2194  0.1254
89766W        W32704  12.850  12.048   1.054  0.2034 -0.2960  0.2067
89767W        W32705  13.127   9.864   0.654 -0.3852  0.2358 -0.1960
89768W        W32706  13.321   9.204   1.962  0.1600  0.1320 -0.0802
89769W        W32707  10.267   8.028   2.681 -0.0593  0.0670 -0.1206
89770W        W32708  10.815  11.027   2.816  0.0321 -0.0008  0.0376
89771W        W32709  12.363   8.303  31.556  0.1637 -0.0035  0.0675
89772W        W32710  13.055   9.836   0.089  0.1787 -0.0338  0.1160
89773W        W32711  11.014  11.156   2.247 -0.2097 -0.0848 -0.2471
89774W        W32712  12.974   9.724   3.891  0.0483  0.2117  0.2193
89775W        W32713  11.953   6.409  31.920 -0.4032 -0.0892  0.2824
89776W        W32714  14.312   7.179   2.579  0.2300 -0.0762 -0.1368
89777W        W32715  12.770  10.274  31.730  0.4016 -0.0449  0.0046
89778W        W32716  13.547   7.834   0.840 -0.3452  0.3925  0.2287
89779W        W32717  11.643  11.418   3.653  0.0308  0.0564  0.1015
89780W        W32718  11.156  10.025   1.636 -0.2793  0.0257  0.0236
89781W        W32719  11.915  10.539   0.391  0.1494  0.1377 -0.1821
89782W        W32720  12.457   7.095   1.132  0.2000  0.0196  0.2439
89783W        W32721  12.739   8.470   2.103 -0.0510  0.0792 -0.0748
89784W        W32722  14.603   9.139   1.977 -0.2012 -0.0741 -0.1049
89785W        W32723  14.195   9.239   2.589 -0.1842  0.2078 -0.1685
89786W        W32724  13.574  10.375   3.018  0.3176 -0.2197 -0.0541
89787W        W32725  10.750   8.641   2.131  0.2999  0.2032  0.2555
89788W        W32726  13.437  10.709   2.428 -0.0601  0.2950  0.0756
89789W        W32727  14.092   9.487   1.718  0.2124 -0.1264  0.2101
89790W        W32728  12.864   9.121   1.635 -0.3036 -0.1409 -0.2967
89791W        W32729  11.160   9.472   3.335 -0.3155  0.0121  0.0879
89792W        W32730  11.993   9.004   3.712  0.0997 -0.2022 -0.0961
89793W        W32731  14.051  10.330   1.045  0.2770 -0.1420 -0.4901
89794W        W32732  10.666   7.010   1.284  0.3648 -0.0044 -0.2180
89795W        W32733  12.296  11.555  30.953  0.2411 -0.1763 -0.3787
89796W        W32734  10.401  12.283   3.583 -0.2487  0.1694  0.0577
89797W        W32735  10.797   9.612   1.543 -0.0678  0.0684 -0.0584
89798W        W32736  11.425  10.952   1.974 -0.0308 -0.1575  0.4352
89799W        W32737  13.314   9.048   1.454  0.2455  0.0272  0.1975
89800W        W32738  13.486  10.238  31.347  0.1208  0.1020  0.1143
89801W        W32739  12.994  10.416   2.445 -0.1272 -0.0332  0.0954
89802W        W32740  13.428   8.892  31.088  0.0938 -0.2863 -0.0312
89803W        W32741  12.348  10.084   1.015 -0.2629  0.2164  0.2091
89804W        W32742  11.007  10.428  30.894  0.0650  0.2182 -0.0891
89805W        W32743  13.880  10.979  31.349  0.1739  0.1902  0.0894
89806W        W32744  10.308  12.306   2.100 -0.1414  0.0876  0.0076
89807W        W32745  13.297  10.523   1.956 -0.1999  0.0508 -0.0471
89808W        W32746  12.944   7.908  31.975 -0.0669  0.1539  0.1882
89809W        W32747  14.870   8.036   1.345 -0.3760 -0.2462  0.1623
89810W        W32748  14.181   8.214   0.727 -0.0738 -0.3667  0.3391
89811W        W32749  12.478  10.723   2.194 -0.2131 -0.2976 -0.0106
89812W        W32750  11.445   9.358   2.219 -0.0943  0.3804 -0.0623
89813W        W32751  13.821   8.748  31.920  0.0357 -0.4896  0.2660
89814W        W32752  11.605   8.989   2.549  0.0245 -0.0377  0.0240
89815W        W32753  14.451   8.391   1.299 -0.3476 -0.1216 -0.0129
89816W        W32754   9.704  11.760   3.149 -0.2318  0.1139 -0.1966
89817W        W32755  15.210  10.738  31.631 -0.1101 -0.0811  0.2526
89818W        W32756  11.614   8.212   1.283  0.0789 -0.0242  0.0591
89819W        W32757  12.542   8.804   1.783 -0.0764 -0.2221 -0.0689
89820W        W32758  13.206   8.027   3.147  0.1417  0.2276 -0.1888
89821W        W32759  13.155  10.019  31.663  0.0723  0.0701  0.3049
89822W        W32760  13.157   7.701   1.551 -0.2520  0.3529 -0.2460
89823W        W32761  12.583  11.221  31.966 -0.3341 -0.0465  0.0830
89824W        W32762  11.943  10.670   2.922  0.2022  0.1434  0.1038
89825W        W32763  12.423  10.594   1.420  0.3447  0.3760 -0.2193
89826W        W32764   9.478   6.271  30.874  0.3444 -0.1136  0.0367
89827W        W32765  15.236   7.700   0.466  0.0733 -0.0589 -0.2222
89828W        W32766  12.643   9.776   1.984 -0.1902  0.2431  0.0511
89829W        W32767  13.514   6.403   2.509 -0.1369  0.2189 -0.2021
89830W        W32768  11.757   8.361   0.434  0.0559  0.1798  0.0121
89831W        W32769  14.131   6.958   0.593  0.2287  0.1274  0.5194
89832W        W32770  12.484   9.037   3.738  0.0289 -0.3643  0.0895
89833W        W32771  11.901   8.352   2.547 -0.0125  0.1192 -0.0513
89834W        W32772  14.503   8.549  31.381  0.3211  0.0093 -0.2074
89835W        W32773  13.248   9.680   2.073  0.1091  0.2018  0.1927
89836W        W32774  14.879   9.584  30.731  0.1271  0.0334 -0.0549
89837W        W32775  12.803  10.879   2.613 -0.1741  0.0471 -0.1986
89838W        W32776  11.348   7.941   0.651 -0.2544  0.3109 -0.3192
89839W        W32777  13.988   7.986   0.345 -0.0449 -0.2952  0.0026
89840W        W32778  10.821  10.339   0.451  0.0679  0.1746 -0.0443
89841W        W32779  12.311   8.904   3.250  0.2462  0.3400  0.3898
89842W        W32780  13.571  10.237   3.477  0.0894 -0.4649  0.0580
89843W        W32781  11.045   7.712   1.758 -0.1065 -0.0737 -0.2148
89844W        W32782  13.023   9.188  31.641 -0.1309 -0.1681  0.0845
89845W        W32783  15.298   8.135   0.822  0.0884  0.0216 -0.0560
89846W        W32784  12.583  11.057   1.589  0.0904  0.0153 -0.3060
89847W        W32785  13.357   8.470   2.168 -0.0961 -0.1825  0.0315
89848W        W32786  14.289  10.575   1.475  0.0022  0.1351 -0.0914
89849W        W32787  11.731   8.506   1.682 -0.1827 -0.0704  0.0954
89850W        W32788  12.683   9.588   1.492 -0.2901 -0.0007  0.2152
89851W        W32789  12.772   9.041   2.783 -0.1010 -0.0191 -0.1992
89852W        W32790  13.662   7.810   1.387  0.2273 -0.3197 -0.0162
89853W        W32791  12.335   9.227   1.973  0.0201 -0.1238  0.0220
89854W        W32792  11.596   9.973   1.402 -0.1830 -0.0040 -0.1076
89855W        W32793  13.708   6.937   1.878  0.0357  0.0061 -0.1349
89856W        W32794  13.894   7.267  31.777  0.0065  0.1075 -0.1035
89857W        W32795  12.657  10.819  31.635  0.2243 -0.0740 -0.0857
89858W        W32796  13.321   7.013   2.636  0.0992 -0.1954  0.1159
89859W        W32797  11.344  10.385   3.661  0.2678  0.0970  0.1773
89860W        W32798  13.625   9.778   4.642  0.0710  0.0609 -0.3107
89861W        W32799  11.298   8.895  31.784  0.2379  0.1106  0.4613
89862W        W32800  11.571  10.530   4.795 -0.3436 -0.1164  0.0499
89863W        W32801  12.562  11.211   0.891  0.1020 -0.2379 -0.0508
89864W        W32802  11.972  10.291   1.444  0.1191 -0.4602  0.3479
89865W        W32803  13.201  11.541   2.203 -0.4178  0.1183 -0.0404
89866W        W32804  11.451   7.414   1.544  0.1299  0.2700  0.0250
89867W        W32805  14.698  10.472   0.976 -0.0685  0.0827 -0.0351
89868W        W32806  12.123   7.797   2.723  0.1264  0.4671  0.5282
89869W        W32807  15.510   8.729   0.146 -0.0926 -0.0378 -0.1549
89870W        W32808  15.310   8.314   0.335 -0.4739  0.0469  0.0448
89871W        W32809  11.435   8.822   3.465  0.1545 -0.0762  0.1661
89872W        W32810  11.560   8.862   0.424  0.0138 -0.2687  0.1020
89873W        W32811  13.188  11.848   0.432 -0.1261  0.1957  0.0181
89874W        W32812  11.019   9.206   1.830  0.3609 -0.2876 -0.2660
89875W        W32813  11.940   8.604   3.392  0.2654  0.3524 -0.2678
89876W        W32814  10.309   8.892   1.992 -0.0471  0.0189  0.1377
89877W        W32815  12.291   8.765  31.856 -0.0624 -0.1176  0.0567
89878W        W32816  11.960   8.823   1.244  0.1762  0.1246  0.0522
89879W        W32817  15.962  11.139   0.039  0.0357 -0.0973 -0.2324
89880W        W32818  12.357   6.577   0.327 -0.0439 -0.1652 -0.5193
89881W        W32819  11.059   8.327   1.321 -0.0597 -0.0959  0.0008
89882W        W32820  13.248  10.060   1.393 -0.3715  0.2439  0.3562
89883W        W32821  12.073  11.036   0.205 -0.0285  0.1336 -0.3109
89884W        W32822  10.963   7.438   1.334 -0.0221 -0.0951  0.0783
89885W        W32823  14.005  10.046   2.096  0.0791 -0.2968 -0.0683
89886W        W32824  10.901   9.762   0.399 -0.0851  0.1198  0.1045
89887W        W32825  13.300   8.256   3.604  0.1338  0.0352  0.0073
89888W        W32826  12.446   7.672   4.209  0.1047  0.0337 -0.0405
89889W        W32827   9.597   7.048  31.618 -0.1650 -0.0973  0.0588
89890W        W32828  11.725   8.210   3.652  0.3362 -0.0314 -0.1407
89891W        W32829  13.135  12.260   0.709 -0.1463  0.2438  0.2533
89892W        W32830  13.570  10.216   0.335 -0.2922  0.0661  0.2743
89893W        W32831  10.794  10.224   1.924 -0.0921 -0.6451  0.1802
89894W        W32832  13.465   9.827   3.150 -0.1424  0.3379  0.0620
89895W        W32833  10.461   9.534   2.471  0.0850 -0.1021 -0.0668
89896W        W32834  13.180   8.187   0.471 -0.1399 -0.1022 -0.1157
89897W        W32835  10.957  10.499   3.979  0.0901 -0.0412 -0.1454
89898W        W32836  14.517  10.803   0.518 -0.0998  0.2501  0.1030
89899W        W32837  14.021   8.137   1.686 -0.0095  0.4611  0.0531
89900W        W32838  13.810   8.811   1.295 -0.1580 -0.2468 -0.0302
89901W        W32839  10.835   7.032   3.171 -0.0068  0.0761 -0.0721
89902W        W32840  11.805  10.053   2.796  0.0223  0.1875  0.0405
89903W        W32841  13.997   8.977   3.437 -0.0937 -0.4026  0.1713
89904W        W32842  11.863   7.150   1.134 -0.0537  0.1064 -0.4330
89905W        W32843  12.982   7.700   0.653  0.1069  0.0474  0.3158
89906W        W32844  13.687   9.987  31.796  0.2555 -0.0464 -0.0508
89907W        W32845  11.532   7.702   2.038  0.1333 -0.0731  0.0321
89908W        W32846  13.029   8.855   0.786  0.1406  0.0219  0.1619
89909W        W32847  12.407   9.810   3.930 -0.2991  0.1648  0.2213
89910W        W32848  12.947  10.485   1.424 -0.0579 -0.0105  0.1147
89911W        W32849  12.792   9.148   1.167 -0.0284  0.1765 -0.1139
89912W        W32850  13.139   8.433  31.967  0.2739  0.0681  0.1660
89913W        W32851  13.596  10.706   0.213  0.1170 -0.0677  0.4274
89914W        W32852  13.006  12.081   2.411 -0.0658  0.0417  0.0926
89915W        W32853  14.182  11.220   3.425  0.0363 -0.1246  0.0682
89916W        W32854  13.905  12.618   3.765  0.1248  0.1103  0.1451
89917W        W32855  12.463   9.554   3.061 -0.0731  0.0116 -0.0982
89918W        W32856   9.271   8.378   3.556 -0.1022 -0.2019  0.1906
89919W        W32857  10.720   9.665   2.037  0.0825  0.1423 -0.1831
89920W        W32858  12.401   9.132   0.239 -0.0873 -0.3458  0.1682
89921W        W32859  13.539   8.498   2.600  0.2100  0.1376 -0.1544
89922W        W32860  12.099   8.294   1.300 -0.0687 -0.2349 -0.1537
89923W        W32861  11.980   6.906   0.246  0.1517  0.1822  0.2296
89924W        W32862  11.805  10.832   3.797  0.0618 -0.0699  0.0971
89925W        W32863  12.958   9.371   0.681 -0.3179  0.1152  0.0261
89926W        W32864  11.464  10.598   6.986 -0.0515  0.2083 -0.0309
89927W        W32865  11.157   8.071   4.917 -0.1035  0.0774 -0.1514
89928W        W32866  13.102   9.016   3.709 -0.0230  0.1722  0.1415
89929W        W32867  14.324   7.617   4.619  0.1916  0.4745 -0.2756
89930W        W32868  11.585   8.435   4.815  0.0643 -0.0485  0.1191
89931W        W32869  13.192  11.729   4.414 -0.0274  0.2059  0.1039
89932W        W32870  11.500   7.289   6.907  0.2103  0.2768  0.1349
89933W        W32871  12.792  10.439   4.997 -0.2399  0.0376  0.2685
89934W        W32872  14.041  10.154   4.662  0.2611  0.0891  0.1087
89935W        W32873  12.817   9.248   2.125 -0.2237 -0.0852 -0.1566
89936W        W32874  11.809   8.419   6.263  0.0654  0.0561 -0.4451
89937W        W32875  11.418  10.755   5.501 -0.1236  0.0665 -0.3779
89938W        W32876  11.619   8.137   5.222  0.2989 -0.2425  0.0985
89939W        W32877  10.923   7.636   4.692  0.1017 -0.0901 -0.1458
89940W        W32878  13.181   7.643   6.148 -0.1056 -0.1609  0.1677
89941W        W32879  11.505   9.689   3.647 -0.0088  0.0201 -0.2314
89942W        W32880  11.250   8.507   5.953  0.1398  0.2023  0.0198
89943W        W32881  12.064   7.956   4.506  0.1183 -0.1781  0.0513
89944W        W32882  12.255  10.904   5.548 -0.2794  0.3047  0.0810
89945W        W32883  12.262   7.283   7.546  0.1707 -0.1275 -0.1024
89946W        W32884  14.195   7.966   7.208 -0.0318 -0.2889 -0.3941
89947W        W32885  13.178   9.688   5.581 -0.0397  0.1641 -0.0095
89948W        W32886  10.251   8.044   3.522 -0.2848  0.0851  0.0298
89949W        W32887  11.001   6.846   6.702 -0.2303  0.1050  0.0304
89950W        W32888  12.567   9.096   5.083 -0.4676  0.1348  0.1164
89951W        W32889  12.714   8.116   7.672  0.0242  0.2999 -0.2055
89952W        W32890  12.933   9.536   4.429 -0.1468 -0.0234  0.3319
89953W        W32891  11.574  10.295   6.531  0.0903  0.1784 -0.3643
89954W        W32892  13.113  11.275   5.140 -0.2507 -0.1630 -0.0640
89955W        W32893  12.859   9.234   7.870 -0.2665  0.1843 -0.3663
89956W        W32894  12.912   9.474   6.687 -0.2234 -0.1767  0.3218
89957W        W32895   9.682  11.138   2.690  0.0074  0.0932  0.0215
89958W        W32896  10.994  11.012   4.323  0.2877 -0.1759 -0.3495
89959W        W32897  11.918   9.656   4.376  0.1325  0.1091 -0.0951
89960W        W32898  13.374  10.275   5.587  0.1191 -0.1579 -0.0158
89961W        W32899  13.127  10.720   6.619 -0.0162 -0.0529  0.2350
89962W        W32900   9.945  11.324   3.933 -0.2023  0.0133  0.0255
89963W        W32901  12.912  11.847   5.880  0.0055 -0.0703 -0.1118
89964W        W32902  12.576   9.655   7.820 -0.2452 -0.1707  0.1152
89965W        W32903  13.121   9.243   5.792 -0.1518 -0.0466 -0.0114
89966W        W32904  12.456   8.793   5.437 -0.3594  0.0504  0.2245
89967W        W32905  11.779  11.233   4.143  0.0601 -0.2125  0.2477
89968W        W32906  10.998   9.871   3.981 -0.2582  0.1829  0.0859
89969W        W32907  12.789   9.764   7.357 -0.2153  0.1362  0.0131
89970W        W32908   9.979  10.248   5.381 -0.0227  0.1384 -0.0802
89971W        W32909  14.913   8.273   6.783 -0.2805  0.1563 -0.0556
89972W        W32910  11.998  10.543   3.404 -0.3909  0.1781  0.1813
89973W        W32911  12.969   7.666   4.453 -0.0158 -0.0874  0.0035
89974W        W32912  10.682   9.068   3.221 -0.2120 -0.0830  0.0316
89975W        W32913  13.896   7.727   4.831  0.5019  0.0925 -0.0336
89976W        W32914  12.995   5.883   6.039  0.1369  0.1626 -0.1271
89977W        W32915  11.956   9.567   5.619 -0.0994  0.1711 -0.0088
89978W        W32916  12.151   8.374   7.176 -0.0190 -0.1104  0.1599
89979W        W32917  14.971   7.818   6.027  0.0756  0.1025 -0.0226
89980W        W32918  11.684   8.691   5.252  0.4592 -0.0223  0.3372
89981W        W32919  12.236   8.108   6.037  0.1488 -0.1999 -0.1201
89982W        W32920  11.522   9.484   6.946 -0.0853 -0.1141  0.1255
89983W        W32921  11.711   8.205   5.742  0.3207 -0.3550  0.0515
89984W        W32922  13.484   9.796   3.845  0.1039  0.0277  0.1174
89985W        W32923  13.760  10.792   3.252 -0.3852 -0.1716 -0.4525
89986W        W32924  13.091  10.372   3.397  0.2434  0.0997 -0.0636
89987W        W32925  11.502   9.247   5.339 -0.0139  0.0721 -0.1120
89988W        W32926  10.874   8.939   6.472 -0.1362  0.1109 -0.4452
89989W        W32927  11.051   9.323   6.795 -0.1541  0.1250  0.0581
89990W        W32928  10.912   7.696   4.155  0.0145 -0.1047  0.1397
89991W        W32929  14.606   9.519   6.387 -0.0548  0.1629  0.0071
89992W        W32930  10.474  10.271   5.255  0.0646  0.0975 -0.2578
89993W        W32931  12.683   7.577   5.177 -0.1113 -0.1937  0.1876
89994W        W32932  10.778   9.231   5.052 -0.1985  0.1053  0.0690
89995W        W32933  13.453   8.916   3.312  0.0719  0.2299 -0.1044
89996W        W32934  13.586   6.125   5.258  0.0096 -0.0160 -0.0599
89997W        W32935  14.656   8.054   6.340  0.0373 -0.0487 -0.0899
89998W        W32936  11.131  10.599   2.517  0.2449  0.1798  0.1635
89999W        W32937  11.458   9.793   5.422 -0.2234 -0.1350  0.0662
90000W        W32938  13.594  10.440   6.519 -0.1831  0.2780  0.1498
90001W        W32939  14.050  10.394   3.320 -0.1260 -0.0060 -0.1462
90002W        W32940  11.299  12.682   7.274 -0.0051 -0.0234 -0.0346
90003W        W32941  13.024   8.062   8.172 -0.0215 -0.2065 -0.0471
90004W        W32942  13.738  10.660   6.988  0.0618  0.1823  0.1380
90005W        W32943  10.901  10.003   4.438  0.0647 -0.1802 -0.0695
90006W        W32944  11.131   9.346   6.274 -0.1595 -0.1637  0.2485
90007W        W32945  10.698   9.548   4.270  0.0304 -0.0151 -0.2343
90008W        W32946  10.507   8.143   7.072 -0.3161 -0.0013  0.0634
90009W        W32947  11.980   9.754   6.864  0.0414  0.2413  0.0832
90010W        W32948  12.748   8.225   4.245  0.1961  0.4733  0.0944
90011W        W32949  10.951   6.678   7.699  0.0435  0.0551 -0.0406
90012W        W32950  14.466   7.836   5.892 -0.1395  0.4052  0.3009
90013W        W32951  10.773   8.695   5.944 -0.1027  0.5823 -0.0081
90014W        W32952  13.506  10.751   4.097  0.0864  0.0771  0.3472
90015W        W32953  15.541   8.008   3.202 -0.0694 -0.0460  0.1472
90016W        W32954  12.938  10.988   2.110 -0.1194 -0.1093 -0.0467
90017W        W32955  11.506   9.191   6.569  0.0075  0.1066  0.3626
90018W        W32956  11.242   8.870   5.039 -0.0823 -0.1553  0.0046
90019W        W32957  12.369   8.590   6.313 -0.2708 -0.1863 -0.3387
90020W        W32958  10.228   7.273   5.602 -0.1190 -0.1557  0.0098
90021W        W32959  14.150   9.257   6.574  0.1026 -0.0520  0.0744
90022W        W32960  11.740   7.501   2.956  0.3364  0.1052 -0.0098
90023W        W32961  12.039   8.179   4.984 -0.1773  0.1456 -0.2087
90024W        W32962  12.463   8.409   4.713  0.0020  0.0250  0.0368
90025W        W32963  10.130  10.626   4.317 -0.0226 -0.1122  0.2843
90026W        W32964  12.979   8.829   6.998  0.0591  0.2291  0.0583
90027W        W32965  14.170  10.837   4.972  0.2609  0.1731 -0.1302
90028W        W32966  13.715  10.706   5.566  0.3672  0.1881  0.0351
90029W        W32967  13.358   9.965   5.190 -0.3343 -0.1453 -0.0582
90030W        W32968  12.088   7.884   5.598  0.2386 -0.2627 -0.0450
90031W        W32969  11.381   8.798   4.345 -0.0080 -0.0664  0.0743
90032W        W32970  11.665  11.178   6.232  0.1258  0.1641  0.0076
90033W        W32971  12.972  10.655   3.833  0.0269  0.0238 -0.2379
90034W        W32972  11.712   8.628   3.886  0.2056 -0.0683  0.0325
90035W        W32973  14.423  10.106   6.009 -0.0839  0.2855  0.2171
90036W        W32974  14.158   7.769   4.151 -0.2659  0.0118  0.0122
90037W        W32975  12.248   9.599   6.020  0.1291 -0.2286  0.0082
90038W        W32976  13.420   8.023   6.908 -0.1581  0.0389  0.0187
90039W        W32977  13.108   8.259   6.168  0.2222 -0.1036  0.0174
90040W        W32978  13.895   9.802   4.216  0.0933 -0.1947 -0.0678
90041W        W32979  11.769   7.485   4.724  0.1316  0.1361 -0.2051
90042W        W32980  13.135  10.731   5.644 -0.2228 -0.1925 -0.2180
90043W        W32981  10.465  10.589   3.871 -0.0753 -0.1453  0.1717
90044W        W32982  10.887   8.485   5.086  0.0005 -0.0263 -0.3915
90045W        W32983  11.148  10.088   6.300  0.2426 -0.0702  0.1764
90046W        W32984  13.239   7.223   5.855  0.1498  0.2093 -0.1860
90047W        W32985   9.590  10.347   6.283 -0.0807  0.1841 -0.2496
90048W        W32986  13.419   8.953   6.704  0.1264  0.2036  0.0879
90049W        W32987  11.368   9.380   4.698  0.2737 -0.0899 -0.1740
90050W        W32988  12.216   9.413   7.626 -0.1480  0.0388 -0.0212
90051W        W32989  12.623   6.169   6.430 -0.0507  0.2416  0.0216
90052W        W32990  13.608   8.714   4.270 -0.1009  0.0520 -0.0461
90053W        W32991  13.460   8.545   6.994 -0.1873  0.2668 -0.2002
90054W        W32992  11.829  10.609   5.209  0.0040  0.0550 -0.0782
90055W        W32993  12.462   7.791   4.743 -0.1843  0.0227 -0.0480
90056W        W32994  12.783   8.596   3.721 -0.3433  0.0480 -0.0490
90057W        W32995  11.994   9.356   7.176 -0.1641 -0.0564 -0.2575
90058W        W32996  11.727   9.538   4.976  0.1074 -0.0507  0.2911
90059W        W32997  12.480   8.149   5.164 -0.0028 -0.2181  0.1319
90060W        W32998  13.408   7.399   4.198 -0.0197  0.0852 -0.0242
90061W        W32999  13.695  10.375   4.403  0.2071  0.0314  0.0221
90062W        W33000  10.474  10.167   7.055 -0.0958 -0.0372 -0.0706
90063W        W33001  12.511  10.211   7.203  0.0116  0.3685 -0.1282
90064W        W33002  12.173   8.738   5.004  0.1753 -0.0321 -0.2305
90065W        W33003  13.217   7.538   6.951 -0.1846 -0.0964  0.0968
90066W        W33004  10.970   9.595   2.870 -0.0137 -0.0357 -0.3282
90067W        W33005  14.818   6.076   4.932 -0.0446  0.0796  0.1880
90068W        W33006   9.357  12.208   2.351  0.0305 -0.0411 -0.3241
90069W        W33007  14.474   9.147   5.651  0.3216  0.2344 -0.0484
90070W        W33008  14.088   8.069   6.324 -0.0675 -0.0644  0.2597
90071W        W33009  13.027   8.355   6.758 -0.1215 -0.0679  0.4648
90072W        W33010  15.178   8.014   6.433 -0.1774 -0.4619 -0.2225
90073W        W33011  13.188   8.559   4.047 -0.2967  0.5920  0.0484
90074W        W33012  12.169   7.505   6.073 -0.4503 -0.2147  0.0522
90075W        W33013  11.468   9.129   3.901  0.0669  0.4164  0.2387
90076W        W33014  12.979   7.944   7.133 -0.1334  0.0176  0.1550
90077W        W33015  10.221   8.442   5.792  0.0251 -0.2917 -0.4056
90078W        W33016  10.376  10.863   6.935 -0.2338 -0.3134 -0.0064
90079W        W33017  13.437  11.154   5.516 -0.4833  0.3317  0.0237
90080W        W33018  12.540   8.046   3.709 -0.0643  0.0763 -0.0213
90081W        W33019  13.221   8.960   7.394  0.1814  0.1061 -0.0375
90082W        W33020  12.700   8.129   2.967  0.2848  0.1323  0.0236
90083W        W33021  12.217  11.365   5.588 -0.1315  0.0160  0.0434
90084W        W33022  12.011   9.688   3.126  0.2449  0.1296  0.2586
90085W        W33023  11.671   6.453   6.206  0.2027 -0.0127 -0.2934
90086W        W33024  10.778  11.544   5.346 -0.1197 -0.3216  0.0253
90087W        W33025  11.090   9.585   5.138 -0.0569  0.1759  0.3224
90088W        W33026  12.630   8.218   6.465 -0.2071  0.0951 -0.4074
90089W        W33027  11.732  10.046   4.985  0.0542 -0.0495  0.0384
90090W        W33028  14.317   6.717   5.547 -0.1240  0.0150  0.1654
90091W        W33029  10.104  10.691   5.631  0.1974 -0.0896  0.1000
90092W        W33030  12.170   8.353   2.983 -0.0783 -0.2346  0.2026
90093W        W33031  11.375   8.019   6.093 -0.2302 -0.2397 -0.2264
90094W        W33032  13.938   7.457   5.696  0.1187 -0.1909 -0.0705
90095W        W33033  13.842   9.155   4.341 -0.0139 -0.1480  0.3712
90096W        W33034  13.135   9.109   6.285 -0.4398 -0.1110  0.2197
90097W        W33035  11.612   7.688   5.748  0.0294 -0.0518 -0.1311
90098W        W33036  10.335  10.236   6.500  0.0873 -0.2479 -0.1169
90099W        W33037  12.748   9.424   6.227  0.0750  0.1797 -0.2872
90100W        W33038  14.338   6.852   4.525  0.2137  0.0385 -0.3029
90101W        W33039  14.218   9.778   6.467  0.0809 -0.2196 -0.2008
90102W        W33040  13.337  10.949   7.031 -0.0724  0.0849 -0.0179
90103W        W33041  10.054   8.045   4.721 -0.1474 -0.0344 -0.1010
90104W        W33042  14.523   9.036   6.160  0.2752  0.0791  0.3585
90105W        W33043  12.723   8.885   5.877  0.2810  0.0778 -0.2548
90106W        W33044  11.874   9.063   5.705  0.3123 -0.3237 -0.0218
90107W        W33045  12.873   9.942   5.228  0.3013  0.1301 -0.0355
90108W        W33046  10.949  10.079   2.988  0.2372  0.1662 -0.2371
90109W        W33047  11.998   9.173   5.227  0.1044 -0.1128  0.1081
90110W        W33048  11.572   8.988   7.134  0.1261  0.1619  0.3945
90111W        W33049  14.168   8.745   5.677  0.0212 -0.1502 -0.1009
90112W        W33050  11.048   7.094   5.729  0.1408 -0.4468 -0.0166
90113W        W33051  11.832   7.860   6.175 -0.0210  0.0554 -0.0334
90114W        W33052  12.065   8.437   5.407 -0.2769  0.0500  0.0260
90115W        W33053  14.184   9.056   7.096  0.0684  0.0946 -0.1196
90116W        W33054  12.024   8.693   6.683 -0.1757 -0.1957  0.2479
90117W        W33055  11.652  10.180   7.434  0.1398 -0.0423  0.1247
90118W        W33056  12.070   8.115   6.569 -0.0492 -0.0836  0.3836
90119W        W33057  14.920  10.414   4.515 -0.0709  0.0708 -0.1045
90120W        W33058  14.063   9.833   7.719 -0.1045  0.0084 -0.1079
90121W        W33059  12.176   9.811   2.104 -0.0475 -0.0327  0.2617
90122W        W33060   9.680   9.022   6.436  0.0781 -0.0755  0.0435
90123W        W33061  11.904  11.180   5.016 -0.1085 -0.1937  0.2443
90124W        W33062  12.471   8.053   6.932 -0.1645 -0.0440 -0.0160
90125W        W33063  10.307   8.000   6.072 -0.1030 -0.0507  0.2126
90126W        W33064  10.276  11.064   3.577 -0.2709  0.0244 -0.0764
90127W        W33065  10.670   9.860   6.660  0.5077  0.0425  0.1281
90128W        W33066  14.652   7.204   4.799  0.1943 -0.0522 -0.1020
90129W        W33067  11.727   9.195   4.369 -0.0509 -0.0594  0.2328
90130W        W33068  12.448   8.732   4.131 -0.1559 -0.0028 -0.2562
90131W        W33069  14.344   7.960   5.461 -0.2378  0.0033  0.0666
90132W        W33070  13.691   8.522   3.653  0.0407  0.1198  0.0826
90133W        W33071  13.699   7.405   6.976  0.0557 -0.1391 -0.0116
90134W        W33072  12.682   7.581   7.433  0.0065  0.0969  0.0926
90135W        W33073  11.141   9.964   3.457 -0.0217  0.1547 -0.1634
90136W        W33074  10.397   8.458   6.249 -0.1443 -0.0991  0.2518
90137W        W33075  13.828  11.746   7.216 -0.0900 -0.4299 -0.0680
90138W        W33076  11.078   8.791   6.952  0.0973 -0.4096 -0.0112
90139W        W33077  12.276   8.185   4.129 -0.1120  0.0324  0.3455
90140W        W33078  12.250   7.974   3.287 -0.0733 -0.0199  0.0994
90141W        W33079  12.372  10.025   5.781 -0.0314 -0.0875  0.3172
90142W        W33080  11.932  10.033   5.502 -0.1179  0.0130 -0.2652
90143W        W33081  12.099   8.817   4.526 -0.0629  0.0728  0.2541
90144W        W33082  13.159   8.552   4.859  0.1522 -0.0566 -0.2404
90145W        W33083  10.461   8.998   6.198 -0.5362 -0.0370 -0.1518
90146W        W33084  12.543   9.044   4.530 -0.0418  0.1268  0.1660
90147W        W33085  13.140   9.012   4.234 -0.0494  0.0251 -0.0529
90148W        W33086  11.716  10.108   4.497  0.1549  0.1836  0.1885
90149W        W33087  11.754   7.820   6.890 -0.0039 -0.0146 -0.0953
90150W        W33088  12.734   9.563   5.660 -0.3481 -0.2573 -0.2726
90151W        W33089  12.755   7.939   6.049  0.1130  0.2428  0.1225
90152W        W33090  12.841   8.761   6.483 -0.3915 -0.0750 -0.1919
90153W        W33091  14.954   8.387   6.138  0.2285  0.1154  0.0975
90154W        W33092  12.331  10.197   5.133 -0.1060  0.0803 -0.4155
90155W        W33093  11.517   8.157   6.567  0.0973  0.2223  0.0768
90156W        W33094  12.275  10.971   6.212  0.3233 -0.0693 -0.1944
90157W        W33095  13.914   9.904   3.292  0.2252  0.0211 -0.0074
90158W        W33096  14.836   8.183   5.620 -0.0616 -0.0797  0.0942
90159W        W33097  13.628   7.798   4.430  0.2799 -0.0524 -0.0572
90160W        W33098  13.567   7.335   4.664 -0.0864 -0.1549  0.2229
90161W        W33099  11.089   7.572   5.571 -0.0488 -0.2405  0.0076
90162W        W33100  13.891   8.783   6.769  0.0936 -0.0389  0.3949
90163W        W33101  12.424   7.291   2.104 -0.1029 -0.2617  0.0387
90164W        W33102  14.359   8.436   7.442 -0.0298  0.2108 -0.1035
90165W        W33103  12.157  10.773   4.255  0.1077 -0.2801  0.0586
90166W        W33104  13.685   8.188   5.031  0.3555 -0.1883  0.0252
90167W        W33105  11.478   7.237   5.575 -0.4747 -0.1777  0.1838
90168W        W33106   9.782   8.699   5.270  0.2164  0.2835  0.0057
90169W        W33107  10.805   9.807   6.107 -0.2247 -0.0611  0.5349
90170W        W33108  10.072   8.602   3.594  0.1106  0.1399  0.0517
90171W        W33109  11.121  10.476   4.511 -0.2922 -0.2180  0.2675
90172W        W33110  12.820  10.349   6.756 -0.1552  0.2475  0.3168
90173W        W33111  13.666   8.172   7.270  0.2247  0.0802 -0.0242
90174W        W33112  13.457   7.753   3.486 -0.0085 -0.5035 -0.1309
90175W        W33113  13.834   8.258   6.735 -0.0180 -0.2307  0.1851
90176W        W33114  11.318   9.957   2.589  0.0176  0.0686 -0.0119
90177W        W33115  12.827   6.818   5.171 -0.0080  0.4068  0.2312
90178W        W33116  11.124  10.283   5.795  0.0275  0.0086 -0.1721
90179W        W33117  10.409   9.495   4.897  0.0832 -0.1725  0.1873
90180W        W33118  11.360  10.311   5.302 -0.0938 -0.0031  0.3196
90181W        W33119  12.806   7.201   5.501  0.0417  0.2840  0.1508
90182W        W33120  13.784   8.804   5.285  0.2804  0.3660 -0.2363
90183W        W33121  13.980   6.566   5.881  0.0361  0.0274  0.0129
90184W        W33122  14.367   9.617   5.816 -0.1838 -0.2309 -0.2470
90185W        W33123  12.786  10.040   4.719 -0.0089  0.0340  0.0330
90186W        W33124  11.583   8.712   5.713 -0.0212  0.6041  0.1087
90187W        W33125  14.287  11.020   6.818 -0.0062 -0.1467 -0.1060
90188W        W33126  14.333   8.129   4.415  0.2462 -0.1740 -0.0707
90189W        W33127  11.005   9.664   5.631 -0.1295  0.0260  0.1548
90190W        W33128  10.185   7.947   5.476  0.1385  0.2112  0.1674
90191W        W33129  12.303   8.923   7.724 -0.1585  0.4308  0.1495
90192W        W33130  13.130   8.831   5.479 -0.0020  0.3523 -0.0657
90193W        W33131  12.243   7.237   4.537 -0.0181  0.2347 -0.5104
90194W        W33132  11.343  10.228   4.169 -0.1631  0.0367 -0.2607
90195W        W33133  12.139   9.834   7.342  0.1392 -0.0219  0.0407
90196W        W33134  10.211   9.601   4.440  0.1627  0.1406  0.3528
90197W        W33135  11.098  12.093   4.755  0.2747  0.1739 -0.4071
90198W        W33136  12.243   9.970   4.731  0.1995 -0.2033 -0.2312
90199W        W33137  13.322   9.433   4.127  0.1117 -0.2847 -0.0722
90200W        W33138  12.280  11.162   4.626  0.3791  0.0136  0.1455
90201W        W33139  10.561   7.351   3.639 -0.0456  0.1997  0.1280
90202W        W33140  12.240  11.182   4.020 -0.1780  0.3329 -0.0826
90203W        W33141  11.259  10.875   3.633  0.0425  0.0122  0.0666
90204W        W33142  12.929   9.558   2.977  0.0190  0.0604  0.1540
90205W        W33143  11.302  11.243   4.017  0.1355 -0.1125  0.0300
90206W        W33144  11.500  10.681   6.182 -0.3644  0.0744 -0.1022
90207W        W33145  13.664   7.217   3.737  0.0534 -0.0975 -0.0123
90208W        W33146  13.902   8.381   5.880  0.0863  0.1097 -0.1967
90209W        W33147  13.628   6.870   5.002  0.0194  0.1140 -0.0601
90210W        W33148  14.472  11.012   7.782  0.0162 -0.2543  0.1485
90211W        W33149  11.145   7.536   6.051  0.0410 -0.3347  0.2001
90212W        W33150  11.667   7.352   2.529  0.0353  0.3722  0.2947
90213W        W33151  12.120  10.475   6.209  0.1703  0.1426 -0.0742
90214W        W33152  14.850   7.572   6.484 -0.0799  0.0996  0.4111
90215W        W33153  11.222  11.033   7.267  0.2798 -0.2174 -0.4210
90216W        W33154  14.007  10.719   4.170 -0.0369 -0.0950  0.0709
90217W        W33155  11.037   8.681   5.512  0.2686 -0.0318 -0.2303
90218W        W33156  12.040  10.457   4.766  0.0335  0.3957 -0.0311
90219W        W33157  13.992   6.998   7.272 -0.1095  0.1401 -0.0406
90220W        W33158  12.165   9.271   2.789  0.1207  0.1595  0.0856
90221W        W33159  12.857   5.917   5.088  0.3826 -0.0135  0.0988
90222W        W33160  13.648  11.856   3.614 -0.1657  0.0432 -0.1962
90223W        W33161  11.794  10.466   4.105 -0.1214  0.0952 -0.2269
90224W        W33162  11.705  11.141   7.198 -0.0793  0.0378  0.1077
90225W        W33163  11.155   9.284   4.221  0.0037 -0.2071 -0.3484
90226W        W33164  14.141   7.218   4.876  0.1841  0.0399 -0.0764
90227W        W33165  12.346   9.223   5.589 -0.3768 -0.0470 -0.1973
90228W        W33166  13.957   8.550   7.179  0.1111  0.0933  0.2903
90229W        W33167  11.864   9.449   3.882  0.0202  0.1024  0.0691
90230W        W33168  13.101   7.286   5.106 -0.0913  0.0430 -0.0563
90231W        W33169  12.789   8.571   5.202 -0.3268 -0.2459 -0.1638
90232W        W33170  11.933   7.019   6.844  0.0691 -0.0483 -0.1290
90233W        W33171  11.001   8.147   3.255  0.0649 -0.1506  0.1767
90234W        W33172  14.403   7.506   5.192 -0.1737  0.0781  0.3239
90235W        W33173  13.968   8.539   3.119  0.2396  0.0582  0.0882
90236W        W33174  12.950  11.253   5.602 -0.0984 -0.2253  0.1362
90237W        W33175  11.069   8.492   4.576 -0.0910  0.2097 -0.0130
90238W        W33176  11.924   6.885   4.786 -0.1352 -0.2551 -0.1210
90239W        W33177  12.428   9.574   4.393  0.0482  0.2153  0.3322
90240W        W33178  12.978   9.268   5.283 -0.0800 -0.4820  0.2487
90241W        W33179  14.019  10.677   6.530 -0.1174  0.3126 -0.0801
90242W        W33180  11.421   6.852   5.966 -0.1000 -0.1874  0.3140
90243W        W33181  14.740   9.241   2.959  0.1134 -0.2661  0.0690
90244W        W33182  13.218   9.669   6.294  0.1335  0.0874  0.1723
90245W        W33183  11.258   9.906   4.720 -0.3057 -0.1315 -0.1218
90246W        W33184  13.468  10.011   6.011  0.2178  0.0358  0.0247
90247W        W33185  12.443  11.255   5.176  0.0627 -0.0190  0.2222
90248W        W33186  11.010   6.992   6.208  0.1649  0.0349  0.1444
90249W        W33187  12.353  10.729   5.105 -0.0459 -0.3677 -0.0542
90250W        W33188  13.854  10.262   5.705 -0.3387 -0.1012  0.1328
90251W        W33189  12.258   7.257   3.905  0.0055 -0.2514 -0.0024
90252W        W33190  11.682   8.956   4.808 -0.2512 -0.1700 -0.4977
90253W        W33191  10.953  10.640   5.343  0.1432  0.1536 -0.0284
90254W        W33192  12.931   8.063   5.383 -0.0408 -0.1737 -0.0280
90255W        W33193  14.766   7.456   5.609  0.0969 -0.2386 -0.1673
90256W        W33194  12.245  10.185   4.262  0.1319 -0.0784 -0.2757
90257W        W33195  13.834   7.697   7.402 -0.2485  0.1538 -0.0715
90258W        W33196  12.108  10.464   5.653 -0.2996  0.1513 -0.0671
90259W        W33197  11.958  10.355   6.912 -0.1591  0.0257  0.2025
90260W        W33198  11.639   9.406   2.799 -0.0906 -0.2944  0.1245
90261W        W33199  12.370  10.194   6.643  0.0062 -0.3404 -0.2763
90262W        W33200  11.667  11.821   3.965 -0.3256 -0.0195 -0.3077
90263W        W33201  13.242  11.136   4.321 -0.0793  0.1106  0.0447
90264W        W33202  12.659  10.428   5.511 -0.2109 -0.2426 -0.2267
90265W        W33203  13.399   7.872   5.283 -0.2636  0.1402 -0.1299
90266W        W33204  12.960   9.136   4.762  0.0998 -0.0898  0.3746
90267W        W33205  10.972   7.914   7.191 -0.2135  0.1687 -0.1828
90268W        W33206  13.662   7.381   5.208  0.1535 -0.1530  0.2822
90269W        W33207  14.399   6.235   4.740 -0.4021 -0.1876 -0.3039
90270W        W33208  11.646   9.801   6.490  0.0954  0.1398  0.1698
90271W        W33209  10.130  10.183   3.858  0.1122 -0.0141 -0.0730
90272W        W33210  11.388  10.747   4.200  0.0394 -0.1943  0.1416
90273W        W33211  10.434  10.874   3.049  0.3102 -0.1634  0.0764
90274W        W33212  13.470   7.220   7.387  0.0767 -0.3800 -0.1534
90275W        W33213   9.881   9.940   6.456 -0.1294  0.0106  0.0761
90276W        W33214  11.818   8.365   4.368 -0.0742 -0.0427  0.0485
90277W        W33215  13.249   9.901   4.344  0.1308  0.0067 -0.3093
90278W        W33216  10.858   7.854   5.188  0.1216  0.2220  0.2099
90279W        W33217  10.977   9.013   4.617  0.0868  0.3215  0.1402
90280W        W33218  12.887   8.616   4.483  0.3448 -0.2696 -0.3373
90281W        W33219  12.659   9.582   4.890  0.3983  0.1620 -0.2184
90282W        W33220  12.043   7.686   5.119 -0.1134  0.0489  0.0517
90283W        W33221  14.081  10.201   6.924 -0.0219 -0.2800  0.3535
90284W        W33222  10.190  10.349   1.613 -0.4033 -0.1009 -0.2730
90285W        W33223  11.888   8.726   7.481  0.5041 -0.2533  0.0496
90286W        W33224  11.324   8.614   7.353 -0.0920 -0.1451  0.1651
90287W        W33225  10.481   7.445   4.285  0.0057 -0.1028 -0.0955
90288W        W33226  12.463   7.699   6.461  0.3492  0.1565 -0.1792
90289W        W33227  11.176  11.631   4.468  0.1065  0.2011 -0.1013
90290W        W33228  12.736  10.023   4.235  0.1314  0.1810 -0.2535
90291W        W33229  11.788   9.421   6.106 -0.3153  0.2754 -0.5380
90292W        W33230  12.801  11.057   6.383 -0.0891 -0.0490  0.2854
90293W        W33231   9.464   7.430   5.904 -0.0461 -0.1070  0.1998
90294W        W33232  12.812  10.888   5.279  0.1775 -0.1206  0.0583
90295W        W33233  13.741   9.558   6.296 -0.1959 -0.1185 -0.0695
90296W        W33234  13.883  10.420   3.795  0.0310  0.0702 -0.2814
90297W        W33235  13.576   8.050   6.167 -0.3317 -0.0233 -0.3188
90298W        W33236  10.892   9.567   4.708 -0.1274 -0.1796  0.0197
90299W        W33237  11.003   7.408   7.359 -0.4049  0.0894  0.1370
90300W        W33238  11.882  10.080   6.020  0.1099  0.2693  0.1618
90301W        W33239  14.148   8.723   6.216 -0.3160 -0.1172  0.0263
90302W        W33240  11.442   7.631   5.071 -0.3242 -0.0892  0.1393
90303W        W33241  12.517   6.645   5.797  0.2631  0.0586 -0.1126
90304W        W33242  13.264  10.272   4.782 -0.3102  0.1054  0.0158
90305W        W33243  12.477   8.304   5.665 -0.0925 -0.3696 -0.2340
90306W        W33244  12.925   8.123   4.831 -0.2291  0.1076  0.2129
90307W        W33245  12.119   8.638   5.872 -0.0575  0.4183  0.2596
90308W        W33246  12.819  11.408   4.301 -0.2450  0.3050 -0.0497
90309W        W33247  13.691   9.066   6.233  0.0258  0.1515 -0.2469
90310W        W33248  10.855  10.298   4.903 -0.1634  0.1190  0.1622
90311W        W33249  13.332   7.757   4.787 -0.1628  0.0291  0.4405
90312W        W33250  13.249  10.653   5.119 -0.3309  0.0310  0.2067
90313W        W33251  12.108  11.477   7.074 -0.1519  0.2536 -0.0886
90314W        W33252  13.169  11.798   5.456 -0.0963 -0.1789 -0.2238
90315W        W33253  13.624   8.889   5.775 -0.0592 -0.0083  0.2953
90316W        W33254  10.518   7.483   7.318  0.3560  0.0970  0.0502
90317W        W33255  12.335   9.657   5.266  0.0362  0.2407 -0.1125
90318W        W33256  12.061   9.301   4.702 -0.0901 -0.1494 -0.0272
90319W        W33257  12.992   7.899   6.531  0.0943  0.1428  0.3361
90320W        W33258  12.344   8.918   7.220 -0.2165 -0.3187  0.0498
90321W        W33259  12.444   6.913   4.168 -0.1715  0.3477  0.0103
90322W        W33260  11.759  11.689   5.085  0.2425  0.3663  0.1568
90323W        W33261  12.198   9.124   4.172 -0.1146  0.1281  0.0766
90324W        W33262  11.062   8.585   9.643 -0.0098  0.0376 -0.0585
90325W        W33263  11.413   7.662   7.320  0.2518  0.1106 -0.2017
90326W        W33264  15.030   8.839   6.793 -0.0506  0.1107 -0.1010
90327W        W33265  14.429   9.488   7.223  0.0459  0.0332 -0.2009
90328W        W33266  10.926   7.485   8.560 -0.3211 -0.1131 -0.3780
90329W        W33267  15.108  10.290   7.895  0.0110  0.0354 -0.1399
90330W        W33268  13.571  10.527   8.735  0.1776  0.0917  0.0226
90331W        W33269  14.648   9.289   9.432  0.3254  0.1300 -0.4112
90332W        W33270  13.629   9.012   7.831 -0.1270  0.1174 -0.4283
90333W        W33271  11.610   8.706   9.661 -0.2190 -0.1104 -0.0167
90334W        W33272  12.905   8.395   9.070  0.0315 -0.1026  0.2417
90335W        W33273  10.738   8.740  10.139 -0.3054 -0.2821 -0.3187
90336W        W33274  13.387   9.709   9.920  0.3626  0.2698  0.2176
90337W        W33275  10.327   9.844   6.204  0.0145  0.4755 -0.1799
90338W        W33276  12.336   8.669   9.910  0.0130  0.2891  0.0740
90339W        W33277  12.272   8.226   8.683  0.1585 -0.4828 -0.0911
90340W        W33278  12.676  11.852   9.543 -0.1316  0.1967  0.0994
90341W        W33279  11.418   8.449   9.309  0.0028 -0.1153  0.2091
90342W        W33280  13.661   9.988   8.737  0.2429  0.1786  0.0326
90343W        W33281  10.625   7.938   8.549  0.1449  0.1138 -0.0504
90344W        W33282  11.971   9.286   8.082 -0.0102  0.0513  0.0211
90345W        W33283  12.185   8.381   9.481 -0.3124 -0.3815  0.1901
90346W        W33284  13.130   7.095   9.055 -0.0560  0.0481 -0.2525
90347W        W33285  13.467   9.055   9.685 -0.0086 -0.0659 -0.2484
90348W        W33286  13.074   9.710   7.885 -0.1448 -0.1445  0.2467
90349W        W33287  15.766   8.919   9.489 -0.0203  0.0132  0.1018
90350W        W33288   9.606  10.367   9.509  0.0033 -0.1046 -0.0531
90351W        W33289   9.136  10.198   9.590 -0.0706 -0.2673  0.0174
90352W        W33290  11.910  10.521   7.951  0.2307 -0.1479 -0.0565
90353W        W33291  15.034   9.815   7.786 -0.0379 -0.2392  0.0602
90354W        W33292  10.166  10.952   9.060  0.0967  0.0018 -0.0001
90355W        W33293  13.873   8.435   8.893 -0.0621 -0.0353 -0.2567
90356W        W33294  12.026   8.866   8.450  0.1386 -0.4044 -0.0912
90357W        W33295  13.160  11.288   6.800 -0.0394 -0.0255  0.0412
90358W        W33296  13.323   9.330   8.018 -0.2557 -0.0817 -0.1521
90359W        W33297  10.747  11.065   8.132  0.0262 -0.1272 -0.0282
90360W        W33298  11.568  10.716   7.448  0.1675  0.0196  0.2617
90361W        W33299  14.607   8.605   6.512 -0.0269  0.4290  0.0888
90362W        W33300  12.221   8.439   7.677 -0.1320 -0.0410  0.5301
90363W        W33301  14.451   9.009   7.971  0.2834  0.0159  0.2004
90364W        W33302  12.734   6.249   7.312  0.1814 -0.0882  0.0397
90365W        W33303  11.940  11.302   8.129 -0.1864 -0.1015  0.2642
90366W        W33304  11.632   6.917   9.431  0.3040  0.0416 -0.1027
90367W        W33305  11.789   8.421   8.534  0.2652 -0.1849  0.1314
90368W        W33306  11.819   7.479   9.430  0.2627 -0.3376 -0.3488
90369W        W33307  12.507  10.557   9.015  0.0068 -0.0399 -0.4180
90370W        W33308  11.726   9.236   7.550 -0.1668 -0.0829  0.0452
90371W        W33309  13.713   9.897   6.671  0.1711 -0.3436  0.3139
90372W        W33310  13.848  10.547   8.221  0.1253 -0.2200 -0.0998
90373W        W33311  14.991  10.881   7.685 -0.1304  0.3828 -0.8173
90374W        W33312  12.897   9.424   8.338 -0.1555 -0.0002 -0.1900
90375W        W33313  10.623   8.083   6.501  0.2114 -0.2241 -0.1263
90376W        W33314  13.792   9.502   9.685  0.4612 -0.1290  0.3414
90377W        W33315  11.724   9.827   8.769 -0.3718 -0.0573  0.0985
90378W        W33316  14.646   9.692   9.076 -0.3240  0.0917 -0.2282
90379W        W33317  12.717   9.894   6.889 -0.0410  0.0466 -0.0662
90380W        W33318  14.748   7.524   7.829  0.1272  0.2206  0.0932
90381W        W33319  13.630   8.551   8.487 -0.0564  0.1453  0.1158
90382W        W33320  12.308  10.143   7.731 -0.1083 -0.1533 -0.0198
90383W        W33321  12.547   9.757   8.337 -0.3202 -0.0810  0.3258
90384W        W33322  14.289   8.116   9.010  0.0428 -0.2874  0.1699
90385W        W33323  14.707   8.735   5.806 -0.0692 -0.2097  0.3689
90386W        W33324  11.219   9.414   9.204  0.1927  0.1055 -0.4537
90387W        W33325  11.072  11.519   6.635  0.2335  0.2458 -0.2668
90388W        W33326   9.046   8.630   9.077 -0.0228 -0.1282 -0.0608
90389W        W33327  11.299  10.369   7.943  0.1945  0.1334 -0.1447
90390W        W33328  10.153   5.519   9.866  0.2799  0.2187 -0.0234
90391W        W33329  14.524  10.411   8.902  0.0947  0.0346 -0.0863
90392W        W33330  14.353   8.248   6.767  0.0925  0.0923 -0.0050
90393W        W33331  14.283   7.494   9.246 -0.2642  0.1757  0.1155
90394W        W33332  11.286   7.915   9.378 -0.0368  0.0563 -0.1395
90395W        W33333  12.948  10.871   7.719 -0.0072 -0.1376  0.0549
90396W        W33334  14.300   8.509   8.016 -0.0540 -0.1966 -0.1024
90397W        W33335  13.209   9.484   7.493 -0.3989 -0.1157 -0.1834
90398W        W33336  12.103   9.655   9.092 -0.2561 -0.3235  0.0178
90399W        W33337  11.337   7.755   7.832 -0.1804  0.1515 -0.0797
90400W        W33338  10.280   7.609   9.502 -0.0777  0.0356 -0.1869
90401W        W33339   9.987   7.356   8.196 -0.0211  0.3080 -0.1332
90402W        W33340  14.891   9.201   8.867  0.0580  0.0409 -0.0066
90403W        W33341  11.974   8.422   8.993  0.0098 -0.2228 -0.2041
90404W        W33342  11.144   9.896   8.226 -0.2151  0.1770 -0.1599
90405W        W33343  14.134  10.567   7.301 -0.0669  0.1514 -0.3432
90406W        W33344  15.316   9.170   8.697 -0.2459 -0.2094 -0.0302
90407W        W33345  14.669  11.794   8.839 -0.2528  0.2146  0.2900
90408W        W33346  12.521   5.839   9.344 -0.0367 -0.0026 -0.1868
90409W        W33347  11.384   6.970   8.373 -0.1351 -0.0465 -0.1608
90410W        W33348  11.719  10.207   9.638 -0.1064 -0.0510  0.2696
90411W        W33349  12.197   9.196   9.297 -0.0648  0.0977 -0.1484
90412W        W33350  12.365   7.751   7.899  0.0889  0.1726  0.0380
90413W        W33351  14.087  10.286   8.651  0.3037  0.1688  0.1588
90414W        W33352  14.041   8.762   7.677  0.1781 -0.0222  0.0978
90415W        W33353  15.988  12.343   9.880 -0.1077 -0.0981 -0.3154
90416W        W33354  13.872   8.160   8.311 -0.1524  0.0929  0.1507
90417W        W33355  11.045   8.216   7.595 -0.1798  0.1089 -0.0203
90418W        W33356  14.632   9.284   9.967  0.2400  0.3949  0.0185
90419W        W33357  11.573  10.869   7.992 -0.0444  0.0930 -0.1773
90420W        W33358  11.368   9.462   7.922 -0.2228  0.2023 -0.5102
90421W        W33359  12.570  10.617   8.172 -0.0601 -0.0554 -0.3045
90422W        W33360  14.331   7.937   8.217  0.1905 -0.0262 -0.0352
90423W        W33361  11.013   9.027   8.067 -0.1053 -0.0756 -0.2139
90424W        W33362  13.987   7.804   6.839  0.3225  0.1180  0.1050
90425W        W33363  16.008   8.434   7.020 -0.2769  0.2807  0.1884
90426W        W33364  15.507   9.225   6.329 -0.1216  0.0748 -0.0186
90427W        W33365  14.312   7.751   7.612  0.0446 -0.1354  0.0663
90428W        W33366  13.467   8.538   6.476 -0.2666 -0.0568  0.0482
90429W        W33367  13.391   8.599   9.270  0.1182  0.2422 -0.0764
90430W        W33368  13.840  11.096   8.947  0.0489 -0.5873 -0.0003
90431W        W33369  11.657   8.438   6.994  0.2455 -0.1373 -0.2262
90432W        W33370  14.531  10.337   8.367 -0.1979  0.0051  0.2518
90433W        W33371  10.313   9.502   9.763  0.1433  0.0709  0.3298
90434W        W33372  15.137  11.059   9.096 -0.3054 -0.0510  0.2133
90435W        W33373  12.625   6.179   8.947 -0.0470 -0.1749 -0.0528
90436W        W33374  13.249  10.049   6.577 -0.1374 -0.2018  0.1229
90437W        W33375  12.967   6.963   8.572  0.1286 -0.2908 -0.2407
90438W        W33376  10.828  11.951   6.896 -0.2002 -0.1435  0.1101
90439W        W33377  14.726   8.406   8.309  0.0047  0.1520 -0.1195
90440W        W33378  13.546   6.924   7.866 -0.2195 -0.1165  0.2961
90441W        W33379  14.154  10.284   7.909 -0.0978 -0.1198  0.0720
90442W        W33380  12.694   7.176   9.981  0.0965  0.0940  0.1305
90443W        W33381  11.827   8.937   6.210 -0.0159 -0.3120  0.2902
90444W        W33382  14.378  10.707   9.831  0.0711 -0.1216  0.1642
90445W        W33383  13.188  11.871   9.500  0.0544 -0.1478  0.1922
90446W        W33384  13.566   8.496   7.608  0.1463 -0.0465 -0.4390
90447W        W33385  11.238   6.501   9.536  0.1177 -0.0422  0.0145
90448W        W33386  13.137  11.203   8.086  0.1095 -0.6138 -0.2098
90449W        W33387  10.557   9.090   6.794 -0.0044  0.0568  0.4339
90450W        W33388  12.241   6.744   8.366  0.1001 -0.1545 -0.0383
90451W        W33389  11.630  10.806   9.070 -0.1024  0.3603  0.1035
90452W        W33390  12.125  10.540   7.412 -0.0849  0.1771  0.0772
90453W        W33391  14.978   9.958   9.283  0.0514 -0.2212 -0.2039
90454W        W33392  11.244  11.219   8.111 -0.0137 -0.0560  0.1500
90455W        W33393  13.629   9.758   9.282  0.0004 -0.0405 -0.0082
90456W        W33394   9.081  10.087   9.100  0.0013 -0.1513  0.1649
90457W        W33395  11.056   7.892   6.650  0.2032 -0.0618 -0.2877
90458W        W33396  10.692   9.418   6.357 -0.0549  0.0185 -0.4457
90459W        W33397  13.413   7.447   7.861 -0.0145  0.1177 -0.0809
90460W        W33398  13.770  10.285   7.558 -0.1363  0.1806 -0.0598
90461W        W33399  12.352   7.712   8.722 -0.2931  0.0246  0.0753
90462W        W33400  13.706   6.928   9.031  0.3473 -0.1326  0.2012
90463W        W33401  12.676  10.071   9.066  0.1618  0.0419  0.4055
90464W        W33402  14.206   7.455   7.127  0.2082 -0.2775  0.1349
90465W        W33403  11.136   8.312   6.924  0.4073 -0.0146 -0.0497
90466W        W33404  15.722   7.936   9.806  0.1912 -0.1323 -0.1277
90467W        W33405  11.489   9.256   8.798  0.2434 -0.1839 -0.1529
90468W        W33406  11.871   9.151   9.705  0.1204  0.0745 -0.2927
90469W        W33407  12.855  10.738   8.731 -0.1687  0.4654 -0.1062
90470W        W33408  13.314   9.330   6.982 -0.2089 -0.0885 -0.0769
90471W        W33409  12.470   9.212   8.137 -0.2300 -0.1269 -0.2946
90472W        W33410  15.053   9.607   8.583 -0.0152 -0.1342 -0.0960
90473W        W33411  11.409   7.563   9.060 -0.2984  0.2220 -0.0264
90474W        W33412  11.131   6.575   8.178  0.0730 -0.0595  0.0125
90475W        W33413  13.150   8.514   8.433 -0.3399  0.1083 -0.0637
90476W        W33414  14.245  10.821   8.429 -0.2485 -0.2546 -0.0018
90477W        W33415  12.629   8.707   9.468  0.0554 -0.1176  0.4506
90478W        W33416  13.903   7.873   9.339  0.1361 -0.1474  0.0435
90479W        W33417  14.923  10.393   6.723 -0.0874 -0.1897  0.3245
90480W        W33418  11.064   8.360   6.395 -0.1736 -0.3411 -0.2879
90481W        W33419  11.338  10.148   8.741 -0.1232  0.0324  0.1819
90482W        W33420  12.747  10.118   8.041 -0.0701  0.0415  0.0478
90483W        W33421  14.685   8.300   9.380 -0.0110 -0.0413  0.2623
90484W        W33422  11.290   9.051   9.802  0.1331  0.1109 -0.2455
90485W        W33423  11.447   8.666   6.541 -0.0935 -0.0962  0.0606
90486W        W33424  10.727  10.499   9.225 -0.1203  0.1199  0.0392
90487W        W33425  14.246   7.717   8.677  0.1887  0.3305  0.2740
90488W        W33426  13.748  11.203   7.162  0.1908 -0.0231 -0.3349
90489W        W33427  11.469   8.669   8.832 -0.0280 -0.0983  0.0508
90490W        W33428  13.693   9.053   7.280  0.0949  0.1459 -0.2192
90491W        W33429  11.127   6.861   9.219  0.1684  0.3183 -0.0456
90492W        W33430  12.864   8.473   7.945 -0.1045 -0.2436 -0.0544
90493W        W33431  11.340   7.851   8.507  0.0294  0.0723 -0.3165
90494W        W33432  10.493   7.816   9.072  0.1577  0.1145  0.1635
90495W        W33433   9.457   9.795   9.850 -0.2142  0.3937  0.0878
90496W        W33434  14.402   9.146   8.993 -0.0653  0.2685  0.1913
90497W        W33435  13.068   8.831   8.768 -0.0536 -0.2026 -0.2640
90498W        W33436  13.776   8.613   8.042 -0.0700 -0.0257  0.0417
90499W        W33437  11.855   7.413   8.912 -0.4005  0.2348 -0.2403
90500W        W33438  13.357   8.176   9.046  0.0091  0.2954 -0.1410
90501W        W33439  12.528   9.038   6.718 -0.0040 -0.0990  0.4150
90502W        W33440  12.376   8.698   8.987 -0.0267 -0.3222  0.2321
90503W        W33441  13.151   9.794   9.130  0.3216 -0.3324  0.0068
90504W        W33442  12.543   7.992   8.242 -0.0133  0.0741 -0.0616
90505W        W33443  14.630  11.343   9.775 -0.1681  0.0403 -0.0979
90506W        W33444  13.380   9.990   7.485  0.2225 -0.2902 -0.2675
90507W        W33445  12.991   9.199   9.658 -0.4691  0.2419  0.3433
90508W        W33446  13.230   8.164   7.720  0.1578 -0.0015 -0.2719
90509W        W33447  12.767   9.230   7.399  0.5103 -0.0075 -0.1510
90510W        W33448  11.489   7.019   8.906  0.2628 -0.0570  0.1585
90511W        W33449  12.614   8.410   7.302 -0.1545  0.2377 -0.0885
90512W        W33450  11.446  11.092   6.703 -0.0866 -0.0172 -0.0297
90513W        W33451  13.911   9.271   9.224  0.3335 -0.1016  0.0446
90514W        W33452  13.433   8.068   8.528  0.1543  0.0206  0.0552
90515W        W33453  11.127   9.429   8.346  0.2096  0.1760  0.0777
90516W        W33454  10.734   8.531   6.700 -0.0201  0.0649  0.1588
90517W        W33455  12.725   9.897   6.339  0.1067 -0.1877 -0.0820
90518W        W33456  12.550   9.517   8.900 -0.0549 -0.2817  0.2336
90519W        W33457  11.982   8.073   8.174  0.0962 -0.0224 -0.0510
90520W        W33458  11.575  12.545   6.771  0.1771 -0.1561  0.2182
90521W        W33459  12.731   6.804   8.077 -0.2767 -0.0845 -0.0798
90522W        W33460  10.713  10.941   8.943 -0.1021  0.1876  0.0681
90523W        W33461  11.940   9.805   7.808 -0.1978 -0.3037 -0.2868
90524W        W33462  11.420   4.611   9.756  0.3193  0.1609  0.0299
90525W        W33463  13.450   7.684   8.893  0.0646 -0.3793  0.2689
90526W        W33464  13.365   9.304   9.256 -0.1272  0.0691  0.2221
90527W        W33465  12.278  10.986   9.722 -0.2638  0.1512 -0.1735
90528W        W33466  14.752   8.449   8.844  0.0796  0.1849  0.0130
90529W        W33467  10.880   9.336   8.866 -0.0144  0.0531 -0.1221
90530W        W33468  13.629   9.480   8.863 -0.1038  0.3172 -0.2003
90531W        W33469  11.907   7.120   8.034  0.1248  0.4018 -0.0712
90532W        W33470  13.367  11.192   7.513  0.0891  0.2997  0.3944
90533W        W33471  12.888  10.631   9.317 -0.0353 -0.1030 -0.1865
90534W        W33472  11.638  11.273   7.693 -0.1951  0.2347 -0.1491
90535W        W33473  12.482   9.397   7.063 -0.0421 -0.0289 -0.0852
90536W        W33474  15.249   9.506   7.390 -0.1322  0.1339 -0.3827
90537W        W33475  12.239   9.925   8.726  0.2832 -0.2159 -0.0854
90538W        W33476  11.498   8.160   7.442 -0.0270  0.1664 -0.3735
90539W        W33477  11.879  11.572   8.608  0.0444 -0.0594 -0.2415
90540W        W33478  11.196   9.686   8.778 -0.1209  0.1284  0.1407
90541W        W33479  14.503   8.693   7.042  0.0744 -0.1899 -0.3344
90542W        W33480  10.679  11.057   7.375  0.1224 -0.3594 -0.3594
90543W        W33481  14.716   8.114   7.730  0.1766 -0.2378 -0.2312
90544W        W33482  14.528   9.964   7.900  0.2080  0.2023  0.0514
90545W        W33483  13.971   8.205   7.692  0.1654  0.1223  0.0053
90546W        W33484  12.666   8.575   8.620 -0.0308 -0.3762  0.0275
90547W        W33485  13.904   7.308   6.571  0.2963  0.0774 -0.3240
90548W        W33486  13.175  10.271   8.400  0.0792 -0.3438 -0.2094
90549W        W33487  12.949   7.194   7.255  0.0185  0.1524 -0.0321
90550W        W33488  13.925   9.982   9.682  0.1328 -0.1931 -0.0012
90551W        W33489  14.666   7.191   9.314 -0.0797  0.2074 -0.3410
90552W        W33490  13.718   9.327   6.723 -0.3775  0.2596  0.1722
90553W        W33491  13.881   8.695   9.501 -0.2404 -0.1580 -0.0215
90554W        W33492  10.975  10.297   8.387  0.4259 -0.0757  0.2489
90555W        W33493  11.170  10.746   8.324  0.0507  0.2051  0.0430
90556W        W33494  13.688  10.983   8.450  0.1095  0.4801 -0.1680
90557W        W33495  10.728   9.120   7.258 -0.4597  0.0977 -0.1576
90558W        W33496  14.286   8.382   8.583 -0.2343 -0.0597  0.0943
90559W        W33497  15.031   9.655   9.739  0.2001  0.2873 -0.1222
90560W        W33498  11.997   9.156   8.826  0.0711  0.3032 -0.2720
90561W        W33499  14.740   8.632   7.733  0.0972 -0.2253  0.1170
90562W        W33500  11.912   8.342   9.961  0.2210 -0.2751  0.0320
90563W        W33501  12.771   6.825   9.580 -0.1820 -0.0086 -0.2210
90564W        W33502  13.225   9.811   7.027  0.0404 -0.0004 -0.2218
90565W        W33503  12.915   8.942   8.328 -0.1339 -0.1646  0.1137
90566W        W33504  13.633   8.254   9.613 -0.2796  0.2011  0.1174
90567W        W33505  11.501   8.213   7.975  0.0301  0.0175  0.0637
90568W        W33506  12.311   8.479   8.236 -0.0489 -0.0643 -0.2451
90569W        W33507  12.697   8.276   9.617  0.2025  0.1592  0.1297
90570W        W33508  11.572   6.527   9.083 -0.2663 -0.3306  0.0137
90571W        W33509  13.974  10.196   6.356  0.2117  0.1989  0.3397
90572W        W33510  13.677  11.004   9.451  0.1045 -0.0201 -0.2383
90573W        W33511  11.996   9.176   6.650  0.0934 -0.2500 -0.2570
90574W        W33512  12.486   9.096   8.623 -0.0547 -0.0106  0.1945
90575W        W33513  15.111   9.005   9.844  0.1137  0.0263 -0.0825
90576W        W33514  11.432   8.922   7.786 -0.0520 -0.0995 -0.5903
90577W        W33515  13.363  10.913   9.853  0.0470 -0.0315 -0.0146
90578W        W33516  14.614  11.341   9.198  0.0731  0.4035  0.1192
90579W        W33517  13.238   7.592   8.377  0.2653  0.3771 -0.1341
90580W        W33518  12.114  10.466   8.433 -0.1712 -0.5297 -0.0701
90581W        W33519  12.032  10.838   6.967 -0.0790 -0.3201 -0.1610
90582W        W33520  15.130   7.887   9.044  0.2183  0.0852  0.0205
90583W        W33521  12.825  10.733   7.132  0.0901 -0.1759 -0.2289
90584W        W33522  13.139  10.367   8.994  0.0260 -0.3731 -0.1316
90585W        W33523  12.161  10.044   8.190 -0.2721  0.1451 -0.2188
90586W        W33524  12.958  10.247   7.475 -0.2067  0.0285 -0.1691
90587W        W33525  13.495  10.876   7.860  0.1413  0.0175  0.0257
90588W        W33526  13.501  10.033   8.082 -0.0102  0.2993 -0.1569
90589W        W33527  14.887   6.740   7.627  0.1731  0.0221 -0.0676
90590W        W33528  15.196   8.289   8.074 -0.2270  0.0831  0.0524
90591W        W33529  12.914   7.640   8.875 -0.0289 -0.0735 -0.1011
90592W        W33530  15.225   8.324   7.568  0.1334  0.3285 -0.1901
90593W        W33531  13.572   8.976   8.928 -0.0754  0.1253  0.1656
90594W        W33532  13.787  10.530   9.708 -0.2288 -0.1607  0.0605
90595W        W33533  10.708   8.503   7.305  0.0903  0.1059 -0.1403
90596W        W33534  11.199   9.757   6.636 -0.0622 -0.1418 -0.0228
90597W        W33535  10.900   9.040   9.357 -0.1535 -0.2156  0.0981
90598W        W33536  11.512   9.078   8.267 -0.3346 -0.1545  0.0930
90599W        W33537  10.334   7.123   9.100 -0.1422  0.1516 -0.3444
90600W        W33538  15.217  11.541   8.747  0.1750 -0.0893 -0.4113
90601W        W33539  11.506   8.095   8.980  0.1378 -0.0008 -0.3199
90602W        W33540  10.573   9.055   9.732  0.1173  0.2158 -0.2134
90603W        W33541  13.401   9.082   8.486  0.3387 -0.1382  0.2399
90604W        W33542  14.526   9.764   8.491 -0.0334 -0.0862  0.0139
90605W        W33543  13.018   5.261   7.420 -0.3355  0.1213  0.4139
90606W        W33544  12.434  10.724   6.698  0.1850 -0.0541 -0.2456
90607W        W33545  11.008   8.006   8.161 -0.1002 -0.0899  0.0953
90608W        W33546  12.642   7.010   9.137 -0.1608  0.0523 -0.0998
90609W        W33547  13.350  10.347   6.963  0.0614  0.0360  0.2071
90610W        W33548  13.303  11.622   7.272  0.5691 -0.0395  0.1508
90611W        W33549  11.310   3.776   9.801  0.1523 -0.0277  0.0750
90612W        W33550  14.025   9.253   7.642  0.1672 -0.0279 -0.1725
90613W        W33551  15.282   9.273   6.888 -0.2410  0.1267 -0.0435
90614W        W33552  13.660   6.446   9.838 -0.1732  0.2920 -0.0292
90615W        W33553  14.211   9.535   8.061 -0.4575 -0.4376 -0.0423
90616W        W33554  15.591  11.240   9.445  0.0751  0.0216  0.2325
90617W        W33555  12.068   6.522   7.926 -0.4374  0.1741 -0.1727
90618W        W33556  14.798   7.715   7.360 -0.1714  0.3749  0.2833
90619W        W33557  14.079   9.973   8.262 -0.1293 -0.2370  0.2518
90620W        W33558  11.624   9.582   8.327 -0.0612  0.0836 -0.4405
90621W        W33559  11.318   8.611   8.167 -0.1191  0.0373  0.1197
90622W        W33560  12.193   9.481   8.534 -0.0285 -0.0440 -0.0449
90623W        W33561  12.432   8.106   9.151  0.1079 -0.1948  0.0795
90624W        W33562  14.899   9.985   8.270 -0.0715  0.1282  0.0820
90625W        W33563  13.261   9.774   8.529  0.3146  0.1482  0.1297
90626W        W33564  13.374  11.401   9.529  0.0133 -0.2304 -0.2161
90627W        W33565  14.237   9.629   9.378  0.0538  0.0992  0.0216
90628W        W33566   9.093   8.047   9.091  0.0768 -0.1135 -0.2299
90629W        W33567  11.487   7.378   8.619  0.2916  0.0316  0.1084
90630W        W33568  13.750  10.287   9.222  0.0287  0.0546  0.2768
90631W        W33569  13.848   7.954   8.817 -0.1231  0.2343  0.0445
90632W        W33570  12.062   6.882   9.965 -0.1280  0.1001  0.2370
90633W        W33571  12.813   8.068   8.681  0.2200 -0.0682  0.0277
90634W        W33572  13.400  10.579   9.390 -0.2470  0.1079 -0.2668
90635W        W33573  11.354   8.285   9.929 -0.1973  0.1355  0.3181
90636W        W33574  11.204  12.947   1.227  0.0732  0.0021  0.0798
90637W        W33575  12.190  11.506   1.416  0.2707 -0.3026  0.2059
90638W        W33576  14.746  10.995  31.521 -0.1098  0.1881  0.1739
90639W        W33577  14.412  13.379   0.317 -0.2935 -0.4546 -0.1795
90640W        W33578  11.280  11.074   0.990  0.1957  0.0143 -0.2132
90641W        W33579  13.634  14.761  30.214 -0.0599  0.0257 -0.1432
90642W        W33580  12.809  11.006   4.791  0.2040 -0.0947 -0.2278
90643W        W33581  14.155  14.053   1.521 -0.0752 -0.2765  0.1599
90644W        W33582  11.077  14.371   1.197  0.0342  0.0497  0.0449
90645W        W33583  12.313  13.150  31.647 -0.0723  0.0933 -0.0494
90646W        W33584  12.620  10.166   2.251 -0.0911 -0.1611  0.0128
90647W        W33585  12.867  14.622   3.504 -0.0007 -0.2637 -0.1201
90648W        W33586  12.028  11.041  31.735  0.1178 -0.2075 -0.3236
90649W        W33587  12.144   9.773   2.609  0.1045 -0.4594  0.0983
90650W        W33588  13.169  14.099   1.686 -0.1402 -0.4735 -0.0358
90651W        W33589  12.046  12.328  31.261 -0.3377  0.1235  0.0751
90652W        W33590  10.912  12.874   4.170  0.0454 -0.0240 -0.2360
90653W        W33591  13.281  12.268   1.154  0.0994 -0.0126 -0.1441
90654W        W33592  12.330  15.979   1.338 -0.1108  0.0679 -0.0612
90655W        W33593   9.887  12.904   2.593  0.0149 -0.2134 -0.0576
90656W        W33594  12.218  11.992   3.067  0.1035  0.0788  0.0332
90657W        W33595  13.608  13.673   0.700  0.1644  0.4287  0.3001
90658W        W33596  11.637  12.859  31.523  0.0216  0.0930  0.2490
90659W        W33597  11.331  12.124   1.899  0.3301 -0.3493  0.0052
90660W        W33598  12.067  12.521   3.273  0.0953  0.0620 -0.1385
90661W        W33599  12.945  13.325   1.274  0.2824  0.0128 -0.5092
90662W        W33600  12.994  13.166   0.187  0.1238 -0.2580 -0.0663
90663W        W33601  11.222  15.301   0.730  0.0852  0.4492  0.0057
90664W        W33602  12.256  14.313   1.073  0.0587  0.1579  0.0658
90665W        W33603  13.359  13.264   2.822  0.0030 -0.1153 -0.2685
90666W        W33604  10.744  13.527  31.373 -0.1985  0.2081 -0.0622
90667W        W33605  10.444  13.067   1.538  0.0052 -0.2247  0.4604
90668W        W33606  11.900  13.298  31.373 -0.0434  0.0889 -0.0262
90669W        W33607  15.328  14.052  30.013  0.0637 -0.2477  0.1286
90670W        W33608  14.311  12.935   1.748 -0.3360 -0.1867  0.3173
90671W        W33609  12.230  15.629   3.208 -0.2796 -0.1259  0.4387
90672W        W33610  12.225  13.751  31.586 -0.1164  0.1957  0.1316
90673W        W33611  13.120  14.688   2.662 -0.0376  0.0437 -0.0228
90674W        W33612  12.306  14.120   3.614  0.0839  0.3100  0.0948
90675W        W33613  12.688  11.547   1.395  0.4728  0.1287  0.1912
90676W        W33614  12.004  13.998   2.583  0.5424 -0.1903  0.1243
90677W        W33615  12.787  13.897  30.973 -0.1903  0.0568  0.1715
90678W        W33616  14.611  14.281  31.756  0.0734 -0.0121 -0.0819
90679W        W33617  11.655  13.265   2.516  0.1568 -0.2619 -0.3507
90680W        W33618  11.050  13.675   2.028 -0.2962 -0.1145  0.2636
90681W        W33619  13.789  11.750   3.014 -0.1795 -0.0994 -0.1366
90682W        W33620  11.469  13.451  30.591 -0.0373 -0.1820  0.1310
90683W        W33621  13.934  12.957  31.449 -0.1831 -0.2832  0.0693
90684W        W33622  10.831  10.884  31.722  0.0226  0.4156  0.1338
90685W        W33623  14.437  11.773   0.326 -0.1446 -0.0474 -0.1259
90686W        W33624  12.471   9.470   2.459  0.1924  0.2072  0.1921
90687W        W33625  11.490  14.776   1.311  0.0247  0.0516 -0.0519
90688W        W33626  12.007  11.809   2.615  0.0659 -0.2660 -0.2683
90689W        W33627  13.676  13.429   2.401 -0.1373  0.0202 -0.0937
90690W        W33628  11.972  13.501   0.003 -0.1754  0.0853  0.2751
90691W        W33629  13.638  11.473   0.871 -0.1787  0.0858 -0.0952
90692W        W33630  11.339  14.426   0.626 -0.1332 -0.2289 -0.0915
90693W        W33631  10.958  11.644   2.401 -0.1482 -0.0607  0.1106
90694W        W33632  13.500  13.775   0.180  0.1393 -0.1277 -0.1212
90695W        W33633  13.765  12.931   0.593 -0.3385 -0.0122 -0.0910
90696W        W33634  13.288  13.442  30.786  0.0908 -0.0240  0.1948
90697W        W33635  10.677  12.377  31.562  0.0465 -0.1352 -0.0163
90698W        W33636   9.685  12.874   3.016 -0.0261 -0.0695  0.1309
90699W        W33637  11.258  13.123   3.282  0.0428  0.0328  0.0866
90700W        W33638  12.672  12.140   0.521  0.4165 -0.0819  0.0391
90701W        W33639  14.998  13.782   1.797 -0.1042  0.3398 -0.1522
90702W        W33640  11.322  15.160   4.010 -0.4412 -0.3703 -0.1715
90703W        W33641  14.895  12.074   0.404  0.1362  0.1113  0.0810
90704W        W33642  11.939  15.686   0.556  0.0069 -0.0557  0.2073
90705W        W33643  13.110  14.428   0.730 -0.2309 -0.0120 -0.1816
90706W        W33644  12.893  12.241  31.365  0.0290  0.0090  0.0428
90707W        W33645  13.363  11.493   1.325 -0.1710 -0.2602  0.2544
90708W        W33646  13.772  10.726   1.638 -0.1730 -0.1240  0.1099
90709W        W33647  12.227  13.286   0.851 -0.1330  0.0298 -0.0746
90710W        W33648  12.453  12.449  31.571 -0.2963  0.1399 -0.0889
90711W        W33649  13.494  12.719   0.981 -0.1975 -0.2103 -0.1851
90712W        W33650  14.353  11.958  31.569 -0.0850  0.0559  0.2017
90713W        W33651  11.517  14.500   2.165  0.1599 -0.1266 -0.1876
90714W        W33652  13.116  12.830   1.315  0.2436  0.4047 -0.0363
90715W        W33653  12.893  13.517   3.272  0.3618 -0.0727  0.0663
90716W        W33654  11.503  14.090  29.770  0.1244 -0.0356  0.1593
90717W        W33655  12.345  12.368   1.123  0.0552  0.1594  0.1820
90718W        W33656  12.296  13.381  30.562 -0.0211 -0.0781  0.0604
90719W        W33657  11.411  11.826   2.730 -0.3265 -0.0926 -0.0401
90720W        W33658  13.242  13.735   3.665 -0.1922 -0.1911  0.0527
90721W        W33659  13.512  12.202   0.122  0.1677  0.0724  0.0924
90722W        W33660  10.882  11.494   3.011 -0.1051  0.2668  0.3762
90723W        W33661  15.474  10.735   0.719 -0.0997 -0.0583 -0.1286
90724W        W33662  10.722  13.798  31.943 -0.1987 -0.0275 -0.0839
90725W        W33663  14.302  14.697   1.447 -0.1507 -0.1061  0.3988
90726W        W33664  14.595  12.722   0.018  0.1414 -0.3135  0.3002
90727W        W33665  13.614  12.535  30.971 -0.1387  0.1068 -0.0553
90728W        W33666  10.737  11.975   3.928  0.2070  0.4026 -0.2550
90729W        W33667  12.400  12.854   0.912  0.1222 -0.1656 -0.2262
90730W        W33668  10.130  11.783   2.863 -0.1156  0.1518  0.1777
90731W        W33669  10.788  11.475   1.939  0.4673  0.0887  0.0397
90732W        W33670  12.456  12.990   1.881 -0.3225 -0.2366 -0.1391
90733W        W33671  11.293  10.782  31.133  0.0611  0.2550  0.0656
90734W        W33672  12.968  13.001   0.833 -0.0072 -0.0150  0.1502
90735W        W33673  13.242  11.993   1.573 -0.0373  0.1687  0.2021
90736W        W33674  11.200  14.409  31.520 -0.2830  0.0810 -0.3859
90737W        W33675  11.895  13.112   3.110  0.0038  0.0258 -0.0136
90738W        W33676  13.172  13.610  31.249 -0.0209  0.1338 -0.0137
90739W        W33677  14.454  14.660   2.564  0.3954 -0.2856  0.1422
90740W        W33678  13.651  14.291   0.831 -0.0002  0.1090 -0.3521
90741W        W33679  11.490  10.888   2.760  0.0095  0.2178  0.3131
90742W        W33680  10.065  11.758  31.504  0.1537 -0.0823  0.1338
90743W        W33681  11.621  14.057   0.443  0.4272  0.0000 -0.1841
90744W        W33682  11.336  14.910   0.446 -0.0354  0.2318 -0.1162
90745W        W33683  12.753  11.624   0.693  0.1622  0.1618  0.1102
90746W        W33684  14.398  15.719   1.015 -0.0160  0.4679  0.0578
90747W        W33685  12.822  13.442  30.666  0.0456  0.1276  0.3115
90748W        W33686  12.337  14.122   2.956  0.2556 -0.2183  0.0064
90749W        W33687  13.836  11.725   1.323 -0.0903  0.0434 -0.1388
90750W        W33688  16.107  13.725   0.543  0.1458  0.1166 -0.0861
90751W        W33689  12.707  12.071  31.768  0.0505 -0.0426  0.0153
90752W        W33690  11.615  12.226  29.746  0.2375 -0.2730  0.1586
90753W        W33691  12.699  15.189   1.677  0.0399 -0.0176 -0.0204
90754W        W33692  10.825  14.317  31.856  0.1691  0.5461  0.0213
90755W        W33693  10.670  13.287  31.860 -0.0411 -0.2298 -0.3683
90756W        W33694  13.730  14.282   0.237 -0.3012  0.0131  0.0343
90757W        W33695  13.292  11.829   0.963 -0.1118 -0.0437 -0.2034
90758W        W33696  10.206  13.713   3.337  0.1405  0.3401 -0.0140
90759W        W33697  13.528  11.646   1.772  0.3788  0.0855  0.0730
90760W        W33698  10.387  11.732  31.849 -0.1259  0.0426 -0.4251
90761W        W33699  11.035  16.197   2.624  0.2987 -0.2271 -0.0063
90762W        W33700  12.600  10.013   2.719 -0.2293 -0.0080 -0.0075
90763W        W33701  14.948  10.877   0.864  0.0369  0.1932 -0.0465
90764W        W33702  13.414  14.616   1.864 -0.2469  0.3467 -0.0107
90765W        W33703  14.497  13.744  31.597  0.0905 -0.0752  0.0928
90766W        W33704  14.055  11.957  31.130 -0.1315  0.0110 -0.0460
90767W        W33705  13.085  11.255   0.770  0.1198  0.0661  0.1204
90768W        W33706  11.168  13.043   2.767 -0.1076 -0.1276 -0.0066
90769W        W33707  13.461  15.065   1.163 -0.0482  0.2612  0.4864
90770W        W33708  13.935  13.346   0.262  0.0240 -0.0445 -0.1358
90771W        W33709  12.800  12.539   0.980 -0.1570 -0.0438  0.0839
90772W        W33710  14.557  13.794  30.583  0.3978 -0.0731 -0.2023
90773W        W33711  10.814  12.982   3.109  0.1016 -0.5117 -0.2929
90774W        W33712  14.275  13.861   2.802  0.0426  0.0471  0.1864
90775W        W33713  14.888  13.863  31.941  0.0160 -0.2630  0.1922
90776W        W33714  12.768  10.511   1.888 -0.0353 -0.0763 -0.1141
90777W        W33715  12.900  12.607  31.766  0.1180  0.0524 -0.1099
90778W        W33716  13.842  10.511   2.132  0.3698  0.0308  0.0361
90779W        W33717  11.705  14.588  31.648  0.3633  0.0588 -0.1812
90780W        W33718  14.454  11.283   0.659  0.2090  0.1643  0.1668
90781W        W33719  13.398  10.721   3.595  0.1008  0.3815  0.1193
90782W        W33720  12.502  10.482   2.711 -0.2230  0.1527  0.0250
90783W        W33721  12.886  13.057   3.050 -0.2225  0.4078  0.0736
90784W        W33722  14.550  12.471  30.790  0.0686  0.4269  0.1799
90785W        W33723  14.258  12.038   1.378 -0.1671 -0.0944  0.0867
90786W        W33724  11.664  12.363  31.689 -0.0791  0.0481  0.0622
90787W        W33725  12.243  12.092   2.299 -0.1438  0.2705  0.1296
90788W        W33726  12.732  11.774   2.141 -0.1980  0.1396 -0.2376
90789W        W33727  10.841  14.808   2.797 -0.3392  0.2278 -0.2372
90790W        W33728  13.836  15.516   2.724 -0.3141 -0.1493  0.0800
90791W        W33729  13.173  14.187   0.227  0.3232 -0.2643 -0.1048
90792W        W33730  13.704  11.372   3.417 -0.1258 -0.2475  0.3416
90793W        W33731  12.084  12.143   1.484  0.0210 -0.0403  0.1053
90794W        W33732  11.643  14.495  31.187  0.2236 -0.0611 -0.0676
90795W        W33733  11.515  13.992  30.993 -0.1936 -0.0122  0.1131
90796W        W33734  11.531  12.757   3.058  0.0155 -0.0854 -0.1189
90797W        W33735  13.715  15.383   1.651 -0.3336 -0.0241 -0.2283
90798W        W33736  12.353  15.493  31.199 -0.0007  0.3286 -0.5499
90799W        W33737  14.410  13.172   3.181 -0.1237 -0.3350  0.0485
90800W        W33738  11.037  13.496   0.151  0.2055  0.2173  0.1647
90801W        W33739  14.771  10.800   1.380 -0.4122 -0.2026  0.1901
90802W        W33740  11.186  13.451   1.203 -0.3801  0.4146 -0.0508
90803W        W33741  11.183  13.274  31.465  0.0294 -0.0742  0.2254
90804W        W33742  10.049  12.674  31.713 -0.0464  0.2941  0.0323
90805W        W33743  13.877  11.075   0.626 -0.1576 -0.0468 -0.0483
90806W        W33744  15.013  13.984  31.450 -0.2414 -0.1164 -0.3253
90807W        W33745  11.771  11.607   3.192 -0.1517 -0.1282  0.0031
90808W        W33746  11.969  10.802   2.323  0.1376  0.1256 -0.1301
90809W        W33747  11.525  13.136   0.308  0.1626  0.1040  0.0619
90810W        W33748  13.447  13.938   2.173 -0.0802 -0.0139 -0.1328
90811W        W33749  14.023  11.523  31.391  0.1090  0.0499 -0.1612
90812W        W33750  14.229  14.274   2.396  0.0345  0.0087  0.0763
90813W        W33751  11.493  12.262   4.210 -0.0392  0.2462  0.1094
90814W        W33752  11.809  11.720   1.233  0.2468  0.0580 -0.2860
90815W        W33753  15.034  12.706   0.793  0.5460  0.2188  0.0627
90816W        W33754  12.541  11.947   1.696 -0.0010  0.2335  0.0258
90817W        W33755  12.199  13.020   0.443 -0.2767 -0.1104  0.2716
90818W        W33756  11.678  14.762   0.844 -0.0800  0.1403 -0.1007
90819W        W33757  11.519  12.679   0.047  0.3465 -0.2254 -0.2286
90820W        W33758  12.435  14.781  31.696 -0.2196  0.3533  0.1391
90821W        W33759  10.924  11.966   2.821  0.0491  0.1656  0.1986
90822W        W33760  14.658  12.553   0.487  0.0673  0.1468  0.1756
90823W        W33761  11.625  13.045   1.650  0.1756  0.0577 -0.0736
90824W        W33762  12.451  11.447   1.898  0.1625 -0.0203 -0.1339
90825W        W33763  12.018  12.996   1.252 -0.3541  0.1057  0.0454
90826W        W33764  13.971  13.283   1.477 -0.3202 -0.1890 -0.3085
90827W        W33765  13.980  14.101   2.015 -0.0854  0.5442  0.1471
90828W        W33766  10.993  14.035   3.378 -0.0781  0.1206 -0.2350
90829W        W33767  12.176  10.311   2.408  0.0642 -0.2156  0.1573
90830W        W33768  15.031  14.894  31.774 -0.0424  0.2184  0.2535
90831W        W33769  11.806  12.344   2.436  0.0931 -0.0737 -0.1597
90832W        W33770  12.587  13.103  30.263 -0.4730  0.0360  0.0088
90833W        W33771  11.010  13.175   1.636  0.2926  0.0502 -0.0837
90834W        W33772  11.659  13.253   1.001  0.1183  0.2095  0.0719
90835W        W33773  13.065  10.523   2.939 -0.0323 -0.0210 -0.1469
90836W        W33774  11.971  14.234   3.254 -0.1065  0.1826  0.4069
90837W        W33775  14.180  13.764  29.430 -0.3484  0.2017  0.0585
90838W        W33776  10.590  14.258   2.476 -0.1704 -0.2215 -0.4554
90839W        W33777  13.839  11.174   0.004 -0.0520 -0.2090 -0.1049
90840W        W33778  13.885  14.817   0.333 -0.0435 -0.0619  0.1835
90841W        W33779  11.882  12.857   0.831  0.2937  0.1837  0.1817
90842W        W33780  13.380  10.884   2.985 -0.1303 -0.0340  0.1424
90843W        W33781  13.119  12.575  30.867  0.0523  0.2961 -0.0790
90844W        W33782  13.862  11.934   2.298  0.0677  0.2344  0.0188
90845W        W33783  12.265  11.399   3.038 -0.0459 -0.0319  0.1318
90846W        W33784  12.821  13.116  31.575  0.0110 -0.1480  0.1481
90847W        W33785  10.479  11.954   1.677 -0.1090  0.0104  0.2534
90848W        W33786  13.101  15.062   2.959 -0.0489  0.1035  0.0039
90849W        W33787  11.230  13.498   2.448 -0.1579  0.0370 -0.0129
90850W        W33788  14.862  11.474   0.381  0.1662 -0.4774 -0.3221
90851W        W33789  12.105  12.730  31.505 -0.0249 -0.0235 -0.0895
90852W        W33790  12.745  14.060   0.450  0.0362  0.1076 -0.0819
90853W        W33791  13.029  15.341   2.001 -0.1562  0.0316  0.2941
90854W        W33792  12.527  13.738   0.886 -0.1074  0.3509 -0.2417
90855W        W33793  13.891  12.386  31.345 -0.1732 -0.1333  0.0170
90856W        W33794  11.263  13.096   2.090  0.1531  0.0743  0.2038
90857W        W33795  13.791  13.319  31.730 -0.3059 -0.1032  0.1109
90858W        W33796  12.085  14.545   0.112 -0.0577  0.0618 -0.2747
90859W        W33797  12.089  11.496  31.563 -0.0633  0.0625 -0.0288
90860W        W33798  11.143  12.608   3.432 -0.2561 -0.0320 -0.2634
90861W        W33799  14.713  13.137   0.787 -0.1779 -0.0476  0.1082
90862W        W33800  11.352  12.000   0.757  0.3740 -0.3655 -0.0719
90863W        W33801  12.333  12.345   1.882 -0.2713 -0.0130 -0.2838
90864W        W33802  14.014  12.609   3.224 -0.3681 -0.2188 -0.1606
90865W        W33803  11.258  12.607   1.644 -0.2263  0.2020  0.1233
90866W        W33804  10.513  11.897   3.167  0.1249  0.2257 -0.2106
90867W        W33805  14.546  15.372   1.693 -0.0451  0.1929 -0.3576
90868W        W33806  14.135  12.936  30.511  0.0102  0.0003  0.0024
90869W        W33807  14.572  10.787   1.951  0.3390 -0.1078 -0.1952
90870W        W33808  13.732  11.938  31.594 -0.0024  0.1995  0.1125
90871W        W33809  12.278  12.017   0.195 -0.0205  0.1159 -0.4287
90872W        W33810  12.590  12.811   1.396  0.0564 -0.1068  0.2388
90873W        W33811  13.906  14.543   1.676  0.1246  0.2828 -0.1372
90874W        W33812  11.393  11.571   1.344 -0.1823 -0.0408  0.1511
90875W        W33813  13.051  12.607   2.638 -0.0364  0.1760 -0.1602
90876W        W33814  12.871  14.884   0.670  0.1174 -0.2030 -0.1456
90877W        W33815  12.913  14.726   1.727  0.1950  0.0644 -0.4454
90878W        W33816  13.609  11.680  31.099 -0.1790 -0.0596  0.2533
90879W        W33817  11.801  12.246   2.953  0.2001 -0.0101 -0.0303
90880W        W33818  11.341  14.704   2.896  0.0913  0.0555 -0.0679
90881W        W33819  11.919  12.607  29.659 -0.1769  0.0876  0.0659
90882W        W33820  12.402  12.553  30.901  0.4085 -0.2049 -0.2204
90883W        W33821  12.244  14.858   0.865  0.1606 -0.1040  0.1305
90884W        W33822  14.320  12.437   3.554  0.1574 -0.0246  0.2540
90885W        W33823  14.152  12.617   0.770 -0.0133  0.1470 -0.0104
90886W        W33824  12.818  12.971   2.262  0.0076 -0.1836  0.0482
90887W        W33825  11.451  11.640   0.307 -0.2743 -0.0162 -0.1447
90888W        W33826  13.049  11.642   2.704  0.3405 -0.0204  0.3166
90889W        W33827  12.298  14.396   1.710  0.0013  0.0366 -0.3040
90890W        W33828  10.737  13.610   3.504  0.0675 -0.4777  0.4240
90891W        W33829  12.539  14.686   1.207  0.1014 -0.1249  0.1656
90892W        W33830  14.295  12.480   1.786  0.2683  0.0894 -0.1731
90893W        W33831  13.312  12.497   1.687  0.0251 -0.1482  0.0352
90894W        W33832  11.015  13.867   0.670  0.0403 -0.0177  0.0486
90895W        W33833  12.701  14.306   1.473  0.2043  0.1412  0.4278
90896W        W33834  13.551  14.560   2.371 -0.1408 -0.1409  0.0178
90897W        W33835  12.566  12.447   0.080 -0.0995 -0.1469  0.2334
90898W        W33836  14.497  13.934   2.121 -0.3605 -0.1107 -0.0118
90899W        W33837  15.493  13.481   0.200 -0.2613  0.4532 -0.2381
90900W        W33838  12.667  12.453   2.348  0.0449  0.2260  0.0309
90901W        W33839  10.172  12.434   2.580 -0.0793 -0.1957 -0.0389
90902W        W33840  14.097  12.163   2.800  0.0692  0.0759  0.0341
90903W        W33841  12.189  14.034   0.491  0.2611 -0.3143  0.1501
90904W        W33842  12.899  12.736   1.807  0.1953  0.0578  0.5984
90905W        W33843  12.291  14.317  31.673  0.2720  0.1016  0.0736
90906W        W33844  11.890  13.167   4.019  0.2078 -0.1973 -0.3620
90907W        W33845  10.608  13.383   1.908 -0.1260  0.2940 -0.2152
90908W        W33846  10.322  13.086  31.568  0.1202 -0.3186  0.1783
90909W        W33847  14.077  13.727  31.906  0.3170 -0.4374  0.1937
90910W        W33848  12.763  13.772  31.614 -0.2150  0.3591 -0.0614
90911W        W33849  13.890  14.942   1.374 -0.2710 -0.0982  0.2944
90912W        W33850  14.124  12.180   0.498 -0.1010  0.1682 -0.2035
90913W        W33851  12.848  13.815   1.326  0.1458 -0.0968  0.0921
90914W        W33852  10.994  13.614  30.630  0.0132 -0.1546  0.0667
90915W        W33853  13.844  14.538  31.441  0.1836 -0.1056  0.0798
90916W        W33854  11.234  13.861   1.486 -0.2401 -0.3049  0.0580
90917W        W33855  15.180  14.202   2.090  0.0704 -0.3283  0.0051
90918W        W33856  13.045  12.289   0.132 -0.1488 -0.2700  0.1147
90919W        W33857  14.596  12.709   1.021  0.4127 -0.0272 -0.1919
90920W        W33858  14.279  10.962  31.695  0.0827  0.2255 -0.1608
90921W        W33859  13.795  14.074   2.510 -0.2778  0.0220 -0.0846
90922W        W33860  12.073  13.362   1.699 -0.1004  0.0532  0.3018
90923W        W33861  11.449  10.424   1.683 -0.0903 -0.0328  0.0059
90924W        W33862  13.270  11.135   2.596 -0.0961 -0.1008 -0.1013
90925W        W33863  14.492  11.627   3.612 -0.1438  0.0097  0.2418
90926W        W33864  10.999  13.854   2.769 -0.3193 -0.0299  0.0818
90927W        W33865  13.572  13.032   0.120  0.0490 -0.0140 -0.0802
90928W        W33866  12.078  11.407   0.959 -0.0544 -0.1564 -0.1378
90929W        W33867  11.890  14.896   0.405  0.0311 -0.0823  0.0283
90930W        W33868  12.699  11.297   2.394 -0.0807  0.0511  0.1805
90931W        W33869  13.013  13.111  31.098  0.2527  0.0549 -0.1342
90932W        W33870  12.749  12.296   1.426 -0.0625 -0.1302 -0.0813
90933W        W33871  11.326  14.946  31.567  0.2839  0.1825 -0.2801
90934W        W33872  12.403  13.819   2.361  0.3237 -0.3123 -0.1654
90935W        W33873  13.332  13.736   3.142 -0.1735  0.0346  0.2118
90936W        W33874  11.017  11.785   1.073  0.0127 -0.1597 -0.3983
90937W        W33875  13.940  12.664   0.169 -0.0519 -0.1634  0.0462
90938W        W33876  11.826  11.360   1.761 -0.0293 -0.0334  0.3198
90939W        W33877  13.353  12.588   2.246  0.0704 -0.4418  0.0208
90940W        W33878  12.672  13.229   0.522  0.2068 -0.1297  0.1176
90941W        W33879  15.031  11.524   0.892 -0.1241 -0.0004 -0.0467
90942W        W33880  11.973  14.593   1.368  0.0662 -0.0959 -0.4689
90943W        W33881  12.550  12.455   3.196 -0.2120 -0.3070  0.1086
90944W        W33882  12.975  13.722   0.081  0.0432  0.1950 -0.2072
90945W        W33883  13.740  13.688   1.775  0.0366 -0.3367 -0.1122
90946W        W33884  12.565  13.461  31.960 -0.0406  0.0031  0.5340
90947W        W33885  14.542  14.905   2.031  0.0495  0.1189 -0.3318
90948W        W33886  11.307  11.315   3.228 -0.0702 -0.1492 -0.2025
90949W        W33887  12.034  11.571   0.126  0.2156  0.1295 -0.1118
90950W        W33888  12.802  14.148   0.980  0.0470  0.1908 -0.0138
90951W        W33889  12.272  13.862   1.307  0.0199  0.0622  0.0340
90952W        W33890  14.565  14.287   1.254 -0.0693  0.1864 -0.4156
90953W        W33891  10.808  10.829   1.177  0.1839  0.0610 -0.0093
90954W        W33892  12.469  13.971   0.058 -0.0954 -0.0431  0.1291
90955W        W33893  13.790  12.160   0.959  0.0623 -0.3660 -0.2179
90956W        W33894  12.335  14.064  31.159  0.2162 -0.0663 -0.2204
90957W        W33895  14.259  13.993   0.907 -0.1786 -0.1678 -0.1149
90958W        W33896  13.262  15.457   1.436  0.0212 -0.0463  0.0269
90959W        W33897  10.175  11.784   3.481 -0.2133 -0.1925 -0.0808
90960W        W33898  13.575  15.528   0.646 -0.1447 -0.3127 -0.1883
90961W        W33899  12.460  13.340   2.951 -0.0975 -0.1388  0.2791
90962W        W33900  13.496  11.083   1.914 -0.1274  0.0456  0.1625
90963W        W33901  12.266  13.184   2.325 -0.1102 -0.5218 -0.0460
90964W        W33902  12.998  13.568   0.737 -0.1162  0.1503 -0.1735
90965W        W33903  14.120  12.553   1.235  0.1039 -0.0400 -0.1147
90966W        W33904  13.449  12.052   2.147  0.2667 -0.0438 -0.0449
90967W        W33905  13.242  14.343  31.344 -0.2859  0.0933  0.1140
90968W        W33906  13.007  10.085   1.896 -0.2610  0.1339 -0.0784
90969W        W33907  14.133  13.676   2.302 -0.0705 -0.1776 -0.0637
90970W        W33908  13.318  14.265   3.282  0.4544 -0.2331 -0.0040
90971W        W33909  10.800  11.333   0.954 -0.1298  0.0215  0.0103
90972W        W33910  12.922  13.904   2.316 -0.1362  0.3763 -0.5030
90973W        W33911  11.481  13.757   0.073  0.0959  0.1450 -0.0235
90974W        W33912  11.848  13.418   0.557 -0.1498  0.0598 -0.0596
90975W        W33913  11.860  13.589   1.338 -0.0288  0.0577 -0.1401
90976W        W33914  13.661  12.433   0.553  0.0096  0.1407 -0.1191
90977W        W33915  15.172  13.626   0.756 -0.2857 -0.1002  0.1519
90978W        W33916  12.910  12.220   1.887 -0.5306 -0.4437 -0.1717
90979W        W33917  13.450  10.943   0.904 -0.0350  0.0749  0.0296
90980W        W33918  13.547  10.462   1.142 -0.1022  0.2046  0.0426
90981W        W33919  12.627  14.123   1.980 -0.0681 -0.1222 -0.1157
90982W        W33920   9.820  13.093  31.377 -0.1240  0.2685  0.0530
90983W        W33921  12.509  12.919   0.104 -0.0227  0.3081  0.0677
90984W        W33922  11.871  12.203   1.964  0.1478 -0.1616 -0.1461
90985W        W33923  12.458  10.741   3.642  0.1285  0.0273  0.0529
90986W        W33924  13.069  12.512   3.190  0.4075 -0.0931 -0.0451
90987W        W33925  12.131  12.678   2.229  0.1711  0.2708  0.2213
90988W        W33926  11.177  11.214  31.506  0.0378  0.0794 -0.1267
90989W        W33927  14.094  14.046  31.412 -0.2982 -0.1333 -0.0753
90990W        W33928  11.126  10.694   3.110 -0.1387  0.0858 -0.0739
90991W        W33929  11.649  11.861   1.682  0.3509  0.0383  0.3203
90992W        W33930  13.360  13.259   0.522  0.1543  0.0564 -0.1157
90993W        W33931  13.879  14.798   0.903  0.2115 -0.0629 -0.0172
90994W        W33932  13.307  10.821   1.532  0.3676 -0.3554 -0.1923
90995W        W33933  15.700  14.363   2.782 -0.2553  0.2508  0.0547
90996W        W33934  11.292  12.149   0.260 -0.0744  0.1747  0.3373
90997W        W33935  12.044  13.454   2.678  0.0228  0.1431  0.0090
90998W        W33936   9.917  11.381   3.351  0.0657  0.0700  0.4004
90999W        W33937  12.172  10.535  31.730 -0.0505 -0.1525 -0.2808
91000W        W33938  12.923  11.225   2.975 -0.0225  0.0674 -0.0189
91001W        W33939  14.349  14.863   0.504  0.1080  0.1723  0.2736
91002W        W33940  14.632  13.606   0.935 -0.2057  0.2174  0.0713
91003W        W33941  12.948  14.456   2.257  0.3079  0.1461  0.0754
91004W        W33942  12.214  13.800   1.855  0.1612  0.2514 -0.0474
91005W        W33943  10.399  11.096   4.210 -0.0203  0.0334  0.2755
91006W        W33944  13.545  13.245  31.236  0.2646  0.2597 -0.2601
91007W        W33945  10.572  14.625   3.202  0.1149  0.2723  0.0741
91008W        W33946  15.351  12.983   0.101 -0.2732 -0.0192  0.0332
91009W        W33947  15.420  11.253   1.894  0.0503  0.3447 -0.1143
91010W        W33948  12.284  12.456   0.565  0.3128  0.2740 -0.0059
91011W        W33949  10.880  11.087   3.316  0.0821  0.1170  0.0615
91012W        W33950  11.857  14.122   1.525  0.1267  0.0458  0.0256
91013W        W33951  14.270  12.918   0.425 -0.2993  0.2619  0.1134
91014W        W33952  11.436   9.945  31.613 -0.0397  0.1321 -0.0262
91015W        W33953  14.044  12.192   0.033 -0.3174 -0.2846  0.0297
91016W        W33954  12.872  14.302  31.739 -0.2564 -0.1408 -0.0718
91017W        W33955  11.003  11.968   1.530 -0.1232  0.0263 -0.0850
91018W        W33956  12.071  12.533   0.094 -0.0586  0.0295  0.0842
91019W        W33957  11.812  13.112   2.099 -0.0837  0.3499 -0.1750
91020W        W33958  13.396  13.709   1.350  0.1516  0.3361 -0.1904
91021W        W33959  13.373  13.102   1.602  0.2201 -0.1912  0.1611
91022W        W33960  12.840  12.145   2.917 -0.4394 -0.1173  0.2321
91023W        W33961  14.856  14.547  31.379  0.0456  0.1706 -0.0526
91024W        W33962  13.667  15.903   1.035  0.2798  0.2175 -0.0706
91025W        W33963  13.205  14.347   4.628 -0.0032  0.2208 -0.2754
91026W        W33964  13.321  15.446   2.650  0.3087 -0.1758 -0.1399
91027W        W33965  13.326  13.313  31.685 -0.1440  0.3245 -0.1577
91028W        W33966  11.277  10.957   1.477  0.1075 -0.2270  0.2286
91029W        W33967  11.221  12.113  31.743 -0.2390 -0.1660  0.0848
91030W        W33968  11.149  13.818  31.663 -0.1066 -0.0431  0.1047
91031W        W33969  12.978  13.420   2.536  0.0146  0.0348 -0.1091
91032W        W33970  12.397  11.874   1.135 -0.3857  0.0990  0.1753
91033W        W33971  13.670  11.880   0.522 -0.0158  0.0948 -0.1030
91034W        W33972  12.867  13.843   2.810 -0.0757 -0.3409  0.0716
91035W        W33973  12.825  12.616   0.455  0.2061  0.1253  0.0763
91036W        W33974  13.260  13.453   7.268  0.0704 -0.0726  0.0824
91037W        W33975  11.163  12.601   4.524 -0.0758 -0.2066  0.0401
91038W        W33976  13.399  11.136   3.846 -0.0785  0.1237 -0.0351
91039W        W33977  13.868  12.164   3.318 -0.0992 -0.0650 -0.3489
91040W        W33978  10.095  12.778   3.664 -0.1504 -0.1980  0.1787
91041W        W33979  13.696  14.165   4.712 -0.0020 -0.1799  0.0552
91042W        W33980  11.495  10.973   5.076  0.0078 -0.2394  0.1675
91043W        W33981  12.492  13.761   4.130 -0.4025 -0.2235  0.1915
91044W        W33982  12.707  14.839   5.401  0.0313 -0.1613  0.1724
91045W        W33983  14.301  13.595   1.789 -0.0738  0.3660  0.2255
91046W        W33984  10.842  14.403   4.947  0.0021 -0.2699 -0.1655
91047W        W33985  11.287  14.335   7.231  0.2942 -0.0983  0.0143
91048W        W33986  10.205  12.842   3.025  0.1772  0.0232 -0.2101
91049W        W33987   9.252  10.841   5.413 -0.2144  0.5983 -0.1915
91050W        W33988  13.083  12.484   6.184 -0.2189 -0.0224  0.4077
91051W        W33989  11.085  13.454   4.489  0.0121 -0.1846 -0.0295
91052W        W33990  10.542  10.723   5.021 -0.3401 -0.0514 -0.2141
91053W        W33991  11.801  12.158   4.985 -0.0284 -0.0499  0.2746
91054W        W33992  13.104  14.049   5.035  0.4185  0.3823 -0.1101
91055W        W33993  12.231  13.693   6.672 -0.1544 -0.0338 -0.1381
91056W        W33994  13.239  11.022   6.004  0.3809  0.2097  0.0753
91057W        W33995  11.591  13.675   3.937 -0.0192  0.3682 -0.0970
91058W        W33996   8.833  12.408   3.218 -0.0845 -0.0103 -0.0975
91059W        W33997  10.480  12.836   5.790 -0.1110 -0.1547  0.1622
91060W        W33998  11.290  12.904   5.213 -0.1435 -0.0010 -0.1753
91061W        W33999  12.617  12.294   5.891 -0.0579  0.2218 -0.1458
91062W        W34000  13.352  12.467   4.287  0.0619 -0.0295  0.1542
91063W        W34001  11.591  14.360   4.209  0.1007  0.0751  0.1953
91064W        W34002  14.109  14.381   4.792  0.1473  0.1335 -0.2934
91065W        W34003  13.642  10.598   6.055  0.0183  0.0562  0.0284
91066W        W34004   9.760  13.682   4.195  0.0943 -0.3158  0.3812
91067W        W34005  10.161  15.610   6.360  0.0080 -0.2322  0.0468
91068W        W34006  11.185  13.501   3.721 -0.2424 -0.1653  0.2007
91069W        W34007  14.116  14.406   2.895 -0.1089 -0.0217 -0.1741
91070W        W34008  14.657  15.341   6.359  0.0378 -0.1562  0.1386
91071W        W34009  12.248  14.709   6.110 -0.0922 -0.4651 -0.3249
91072W        W34010   9.927  13.336   4.636 -0.2282  0.0052  0.0120
91073W        W34011  11.890  13.648   5.337  0.1722  0.1245  0.0458
91074W        W34012  12.820  14.736   6.202 -0.1980  0.3151  0.0183
91075W        W34013  12.174  13.276   6.088 -0.2347  0.0827 -0.0426
91076W        W34014  12.467  12.925   3.232 -0.1521 -0.0258  0.2967
91077W        W34015  12.450  14.346   4.221  0.0280 -0.0005  0.4995
91078W        W34016  12.082  12.951   3.607  0.1078  0.1727 -0.0929
91079W        W34017  12.882  12.468   7.118  0.0800  0.2759 -0.2275
91080W        W34018  11.310  14.134   3.816  0.0696  0.2118 -0.2350
91081W        W34019  14.632  10.841   7.292 -0.1892  0.0116  0.4603
91082W        W34020  12.190  13.542   3.322 -0.0490  0.2208 -0.0165
91083W        W34021  13.862  11.227   2.926  0.0950 -0.0776  0.2417
91084W        W34022  12.269  11.667   3.425  0.1361 -0.0433  0.0516
91085W        W34023  11.271  13.192   4.094 -0.2776 -0.1784 -0.0232
91086W        W34024  12.130  11.866   4.757  0.1867 -0.0321  0.2114
91087W        W34025  11.303  13.892   4.363  0.0766  0.0147 -0.0129
91088W        W34026  11.990  12.034   6.903  0.0752  0.0745  0.0402
91089W        W34027  12.456  13.230   6.511  0.2893  0.1761  0.1573
91090W        W34028  12.246  11.853   5.235 -0.2971  0.0508  0.1744
91091W        W34029  12.143  12.438   5.971 -0.0292  0.2226  0.2781
91092W        W34030  12.177  14.213   5.936 -0.1952 -0.1009 -0.3273
91093W        W34031  10.473  13.967   4.814  0.0186  0.0020  0.0769
91094W        W34032  13.214  14.785   3.793  0.3001  0.0523  0.1246
91095W        W34033  12.738  13.683   4.841 -0.2376 -0.0334 -0.0389
91096W        W34034  13.614  14.507   2.836 -0.2910 -0.0254 -0.0800
91097W        W34035  11.186  11.954   5.266  0.0645  0.3078 -0.0740
91098W        W34036  11.190  11.602   6.016  0.1864 -0.0725 -0.2005
91099W        W34037  10.381  12.409   6.855  0.1936 -0.1478  0.1133
91100W        W34038  11.714  11.007   3.271  0.0760 -0.0249  0.2110
91101W        W34039  14.499  13.558   6.500 -0.3341 -0.1700  0.2009
91102W        W34040  10.617  14.147   5.305 -0.0804  0.1695  0.0052
91103W        W34041  13.671  12.801   4.174 -0.0905  0.0494  0.0048
91104W        W34042  12.989  14.335   6.609  0.0808 -0.1285  0.1716
91105W        W34043  12.378  12.893   5.722 -0.0643 -0.0135  0.6101
91106W        W34044  12.449  12.128   3.546 -0.1980  0.0154  0.3440
91107W        W34045  14.715  10.435   5.817 -0.1698  0.0228  0.0936
91108W        W34046  12.157  11.798   3.897 -0.1922  0.2203  0.0857
91109W        W34047  11.246  12.179   3.768 -0.0839  0.1861 -0.2118
91110W        W34048  13.216  13.037   4.274 -0.0240  0.4505  0.2679
91111W        W34049  14.173  13.374   4.641  0.0570 -0.0736  0.0394
91112W        W34050  13.976  13.199   3.666  0.0902 -0.2587  0.0627
91113W        W34051  10.458  13.341   5.864  0.1667 -0.1824 -0.1243
91114W        W34052  11.678  13.641   5.777 -0.1559 -0.0043  0.2466
91115W        W34053  12.783  13.498   7.534 -0.0514  0.1831 -0.0682
91116W        W34054  11.751  13.377   3.560 -0.3848 -0.1457  0.3864
91117W        W34055  10.679  13.800   4.356 -0.2405 -0.1646 -0.0420
91118W        W34056  10.158  13.342   3.711 -0.0189 -0.1498  0.0878
91119W        W34057  10.705  10.974   6.401 -0.1171  0.0611 -0.4697
91120W        W34058  12.538  13.998   5.724  0.2867 -0.0180  0.2666
91121W        W34059  13.356  13.265   3.350  0.0095  0.0349  0.4182
91122W        W34060   9.964  11.541   7.142  0.1458 -0.2355  0.0344
91123W        W34061  13.708  10.533   4.908  0.0599  0.0487 -0.1198
91124W        W34062  10.856  12.544   3.811 -0.1860 -0.1750  0.1688
91125W        W34063  14.024  14.779   3.941 -0.0260  0.1586  0.1506
91126W        W34064  14.038  11.391   4.847 -0.0377 -0.0667 -0.0419
91127W        W34065  13.801  13.572   2.828  0.2225 -0.2526 -0.3078
91128W        W34066   9.670  11.254   5.464  0.0495 -0.1094  0.0934
91129W        W34067  10.971  10.943   4.920  0.0233  0.2220 -0.0559
91130W        W34068  10.394  13.148   6.335 -0.2149 -0.1550 -0.0576
91131W        W34069  10.583  10.501   5.661 -0.2734  0.1585 -0.0273
91132W        W34070  14.205  12.246   6.759 -0.1776 -0.1202 -0.1426
91133W        W34071  10.801  11.721   4.827  0.2014  0.1120  0.4796
91134W        W34072  13.576  11.518   5.176 -0.2636  0.2017  0.1731
91135W        W34073  12.428  12.227   4.068  0.1789  0.1868 -0.1125
91136W        W34074   9.423  13.187   4.225 -0.1452  0.2705 -0.2760
91137W        W34075  13.821  11.420   6.718  0.0890  0.1940 -0.0048
91138W        W34076  13.937  15.235   4.725  0.0753  0.1473 -0.2824
91139W        W34077  13.587  13.858   5.074 -0.2360  0.3237  0.0372
91140W        W34078  12.765  13.812   3.727  0.1710 -0.0607 -0.0741
91141W        W34079  11.146  10.625   6.501 -0.1178 -0.3313  0.0557
91142W        W34080   8.907  11.904   3.027  0.1916  0.0195 -0.1633
91143W        W34081  10.390  14.524   5.450 -0.2442 -0.2159 -0.1192
91144W        W34082  12.013  12.099   4.356 -0.1561 -0.4628 -0.0950
91145W        W34083  10.933  11.516   3.587 -0.1907  0.2873 -0.5188
91146W        W34084  13.127  13.269   4.753 -0.0351  0.0788  0.2416
91147W        W34085  12.423  10.870   3.194 -0.2136  0.2125 -0.0488
91148W        W34086  12.603  12.847   6.896  0.0073 -0.0256  0.1661
91149W        W34087  12.966  11.517   6.389 -0.2180  0.2438  0.1213
91150W        W34088  14.732  12.680   5.993 -0.1905 -0.0865 -0.2634
91151W        W34089  12.642  11.390   6.079  0.2058 -0.1424 -0.0801
91152W        W34090  10.883  13.057   3.618 -0.1112 -0.2221  0.1727
91153W        W34091  12.662  14.393   4.652  0.2732 -0.0254  0.0880
91154W        W34092  12.192  13.673   3.799  0.4056 -0.0521  0.0737
91155W        W34093  10.564  11.969   4.451  0.0415 -0.0792 -0.2268
91156W        W34094  12.247  12.862   4.892 -0.0118 -0.0386  0.1473
91157W        W34095  12.631  10.588   6.270  0.1213  0.1738 -0.4155
91158W        W34096   8.852  12.535   6.679 -0.2297 -0.0556  0.0565
91159W        W34097  14.006  11.096   8.044  0.6337 -0.0219  0.2203
91160W        W34098  11.813  10.918   4.574  0.2031 -0.2477  0.1598
91161W        W34099  11.865  13.533   6.356  0.1499 -0.0309  0.0608
91162W        W34100  14.253  10.321   2.858  0.0058 -0.0970 -0.1708
91163W        W34101  13.635  11.572   2.609 -0.0589  0.1847  0.0171
91164W        W34102  13.282  13.892   6.289  0.1010 -0.2298  0.0647
91165W        W34103  13.377  13.753   2.637 -0.0222  0.1399 -0.1602
91166W        W34104  14.745  12.890   1.516  0.0161  0.2012 -0.1622
91167W        W34105  12.909  11.156   3.805  0.1110 -0.2126  0.0127
91168W        W34106  12.393  13.702   7.180  0.1440  0.0086  0.0214
91169W        W34107  12.523  12.883   2.686 -0.2472 -0.0492  0.0665
91170W        W34108  12.272  12.365   5.023  0.0379 -0.1726  0.2565
91171W        W34109  13.402  11.421   2.985 -0.1998 -0.0628  0.0864
91172W        W34110  15.473  14.598   4.102 -0.2775 -0.0947 -0.1385
91173W        W34111  10.987  13.274   5.813  0.1132  0.1452 -0.2835
91174W        W34112  13.791  13.466   6.989 -0.0341 -0.1176 -0.0685
91175W        W34113  12.693  14.320   3.828 -0.0258  0.1991 -0.2059
91176W        W34114  11.615  11.560   6.834 -0.0265  0.0459 -0.0462
91177W        W34115  13.556  12.586   2.849  0.1182  0.0272 -0.2221
91178W        W34116  11.299  11.548   4.971 -0.0811  0.2638  0.0766
91179W        W34117  11.354  14.438   3.350 -0.0970 -0.0781 -0.2301
91180W        W34118  13.739  11.058   5.910  0.0850  0.2447  0.0434
91181W        W34119  13.795  11.964   6.053  0.4425 -0.1645  0.2282
91182W        W34120  11.826  10.757   6.550 -0.2471  0.1057 -0.0772
91183W        W34121  15.362  12.541   7.145  0.0212 -0.0152 -0.0224
91184W        W34122  12.977  12.857   3.511 -0.1175 -0.0305  0.0250
91185W        W34123  12.605  12.906   4.505 -0.3118 -0.1487  0.0288
91186W        W34124  12.456  13.284   1.258  0.1608  0.1424  0.2087
91187W        W34125  11.693  11.325   5.444 -0.0003 -0.2155  0.0705
91188W        W34126  11.129  13.147   6.261 -0.0149  0.3133 -0.2655
91189W        W34127  12.066  14.052   5.031 -0.1623  0.1360  0.2035
91190W        W34128  13.568  14.261   5.972  0.0106 -0.5593  0.0038
91191W        W34129  12.394  13.264   4.087  0.1454 -0.1000 -0.0867
91192W        W34130  12.713  11.661   5.329  0.1196  0.0295 -0.1196
91193W        W34131  10.864  12.151   3.385  0.1619 -0.1599 -0.0568
91194W        W34132  11.593  12.385   3.432  0.0309 -0.1920 -0.1095
91195W        W34133  12.995  13.268   3.744 -0.0014  0.1098  0.1864
91196W        W34134  10.850  11.280   5.901  0.0644 -0.2177 -0.1363
91197W        W34135  10.433  13.665   5.420  0.0598 -0.0718  0.1192
91198W        W34136  11.903  13.593   2.219  0.2329  0.0940 -0.0159
91199W        W34137  12.189  13.168   5.291  0.0532  0.1411 -0.3574
91200W        W34138  11.162  14.047   5.208 -0.0334 -0.0254 -0.4011
91201W        W34139  13.196  12.235   5.750  0.3777 -0.0544  0.2590
91202W        W34140  11.776  14.680   7.805 -0.1802 -0.0735 -0.3444
91203W        W34141  11.220  11.735   4.014 -0.1934  0.0188  0.3935
91204W        W34142  10.454  14.500   3.933 -0.1287 -0.2701 -0.1969
91205W        W34143  14.289  11.153   4.067 -0.0109  0.1040 -0.0647
91206W        W34144  13.713  13.627   3.473 -0.2289  0.0787 -0.1645
91207W        W34145  11.591  12.153   6.449  0.0923 -0.0665 -0.1656
91208W        W34146  12.409  11.874   5.692  0.2416 -0.2718  0.1117
91209W        W34147  11.753  14.603   6.317 -0.0061 -0.1823  0.4704
91210W        W34148  12.783  13.697   6.645  0.1258 -0.1455 -0.0914
91211W        W34149  13.830  10.681   2.768 -0.0180  0.0168  0.1061
91212W        W34150  13.058  14.251   5.506 -0.2177  0.1627  0.0657
91213W        W34151  12.655  11.563   4.748 -0.0934  0.0478  0.1383
91214W        W34152   9.013  13.019   3.282  0.0335  0.0548  0.0821
91215W        W34153  12.503  11.449   6.531 -0.0606  0.0943  0.4532
91216W        W34154  11.134  11.153   6.268 -0.0873 -0.0525  0.3154
91217W        W34155  12.488  12.619   3.679  0.0122  0.0606  0.2737
91218W        W34156  13.053  14.315   6.032  0.3723  0.0791 -0.4670
91219W        W34157  10.667  12.324   2.954  0.0540 -0.0068  0.2090
91220W        W34158  10.747  13.448   3.991 -0.1035  0.0885 -0.0026
91221W        W34159  11.570  11.692   6.348 -0.3615 -0.0467 -0.1657
91222W        W34160  12.063  12.218   5.493  0.2317  0.3777 -0.0801
91223W        W34161  11.736  13.197   5.024  0.3493  0.0980 -0.0777
91224W        W34162  11.655  12.408   5.850  0.1580 -0.0491  0.2068
91225W        W34163  12.175  12.336   6.462 -0.1272 -0.0693  0.1723
91226W        W34164  12.351  13.302   4.602 -0.0871  0.0550  0.2340
91227W        W34165  12.531  12.497   5.406 -0.1431 -0.0890 -0.0129
91228W        W34166  13.436  14.039   7.290 -0.0715 -0.2272  0.2481
91229W        W34167  12.353   9.526   6.544  0.3436 -0.0410  0.3284
91230W        W34168  14.723  15.335   3.278  0.0533 -0.2620  0.1092
91231W        W34169  14.106  13.500   6.016  0.0560  0.0595  0.0075
91232W        W34170  10.600  12.473   4.234 -0.0114 -0.1028  0.1132
91233W        W34171  10.559  12.588   5.188 -0.2664 -0.1558 -0.0760
91234W        W34172  12.824  11.711   3.204  0.3969 -0.0765 -0.0045
91235W        W34173  11.723  12.666   5.074  0.3016  0.1549 -0.0147
91236W        W34174  12.749  13.341   6.976  0.0920 -0.0869 -0.0110
91237W        W34175  11.371  13.485   2.939  0.2014 -0.0082 -0.0268
91238W        W34176  10.942  12.751   5.558 -0.1119  0.0509  0.1404
91239W        W34177  13.561  11.473   4.609  0.0950 -0.3495 -0.1347
91240W        W34178  13.495  13.224   3.892  0.0590  0.0346  0.0391
91241W        W34179  11.925  11.512   4.555 -0.2749 -0.1013 -0.1402
91242W        W34180  14.319  11.438   5.242  0.3460 -0.1525  0.0615
91243W        W34181  13.273  12.059   3.927 -0.1263  0.0300  0.0254
91244W        W34182  12.670  10.899   5.841 -0.2319  0.0366  0.0257
91245W        W34183  11.806  10.895   5.791 -0.1896  0.0475  0.1913
91246W        W34184  12.841  12.454   4.384  0.1780 -0.1413  0.4515
91247W        W34185  11.125  11.973   6.473  0.1252  0.0295 -0.0663
91248W        W34186  13.777  15.292   6.107  0.1126  0.0732 -0.0081
91249W        W34187  11.471  12.079   6.949 -0.0958  0.0901 -0.1650
91250W        W34188  14.013  11.497   3.838  0.4607  0.0879  0.0548
91251W        W34189  10.977  14.329   2.984 -0.2225 -0.1520  0.2113
91252W        W34190  12.612  14.211   6.258 -0.1609 -0.3475 -0.2229
91253W        W34191  11.806  13.133   5.549  0.0499  0.2162 -0.0231
91254W        W34192  11.597  12.629   1.980  0.2774 -0.3452 -0.1273
91255W        W34193  12.855  12.000   4.199 -0.1708  0.1069 -0.1169
91256W        W34194  10.868  13.819   5.615 -0.0397 -0.0851 -0.2833
91257W        W34195  14.608  12.506   3.118 -0.2836 -0.0493  0.2347
91258W        W34196  13.474  12.090   2.639 -0.2947 -0.0680  0.0129
91259W        W34197  10.882  13.646   5.126  0.1750  0.1579 -0.1120
91260W        W34198  12.123  11.471   6.091 -0.0698  0.2593  0.1422
91261W        W34199  13.262  12.726   4.693  0.0266 -0.1989 -0.0016
91262W        W34200  13.185  11.387   3.420  0.1463 -0.0785 -0.1224
91263W        W34201  13.029  12.221   4.757 -0.1039  0.0343 -0.0615
91264W        W34202  14.220  12.681   4.918 -0.1318  0.1784  0.1491
91265W        W34203  12.466  11.088   7.008  0.1697 -0.2149 -0.2542
91266W        W34204  10.643  10.550   6.698  0.0380 -0.1334 -0.0084
91267W        W34205  14.088  15.435   7.272 -0.0169  0.1536  0.5340
91268W        W34206  13.531  12.785   3.301  0.1773  0.0533  0.3558
91269W        W34207  13.326  11.956   6.205 -0.3087 -0.0668  0.1904
91270W        W34208  14.523  12.535   4.226  0.0824  0.3030  0.1987
91271W        W34209  12.324  12.383   2.673  0.1182  0.0271  0.3519
91272W        W34210  11.593  11.863   4.487 -0.0895 -0.2412  0.0051
91273W        W34211  14.739  11.780   6.056  0.1273  0.1027 -0.1864
91274W        W34212  11.390  11.834   3.452  0.0435  0.0364  0.0409
91275W        W34213  13.839  11.407   7.634  0.1508  0.2800 -0.1173
91276W        W34214  11.933  12.759   2.746  0.2156  0.5382 -0.0807
91277W        W34215  13.349  13.754   4.648  0.2663  0.0010  0.3132
91278W        W34216  13.392  12.322   3.518  0.1342  0.1031  0.1942
91279W        W34217  10.456  11.529   5.866 -0.0737 -0.1024  0.0508
91280W        W34218  12.410  15.075   6.523  0.0881 -0.2510 -0.0526
91281W        W34219  11.612  11.266   2.300  0.1076 -0.0556 -0.3183
91282W        W34220  11.303  12.162   3.062 -0.2357 -0.4468 -0.1029
91283W        W34221  11.991  13.577   4.830  0.0753 -0.3356  0.1886
91284W        W34222  13.565  12.438   6.064 -0.1696  0.0377 -0.0653
91285W        W34223  12.495  12.123   4.587  0.1279  0.2369 -0.1427
91286W        W34224  13.666  12.554   6.611 -0.0496  0.1347 -0.0696
91287W        W34225  11.843  13.743   3.017 -0.2330 -0.0540 -0.1139
91288W        W34226  13.152  11.760   4.945  0.0602  0.4109 -0.0021
91289W        W34227  11.758  14.031   4.605 -0.1560 -0.0206 -0.0635
91290W        W34228  10.541  13.451   4.732 -0.2558 -0.1195 -0.2424
91291W        W34229  12.852  14.824   4.515 -0.5992  0.1798 -0.0087
91292W        W34230  13.108  10.367   6.220 -0.0519  0.1143 -0.0574
91293W        W34231  14.134  12.032   3.778  0.0606 -0.0088 -0.4617
91294W        W34232  12.256  12.753   4.073  0.0046  0.0566  0.0176
91295W        W34233  13.807  12.806   6.202  0.3755  0.0037 -0.0270
91296W        W34234  12.815  15.282   6.362 -0.1911 -0.1237 -0.1792
91297W        W34235  11.998  13.590   4.257  0.0451 -0.0784 -0.0822
91298W        W34236  13.124  15.148   4.121 -0.0177 -0.0881  0.4185
91299W        W34237  13.297  12.745   3.860  0.2849 -0.0713  0.0554
91300W        W34238  11.579  12.879   3.616 -0.4650 -0.0075 -0.0963
91301W        W34239   9.684  12.118   6.785 -0.2599  0.0694  0.1274
91302W        W34240  12.684  13.084   7.785 -0.3131 -0.3623 -0.0756
91303W        W34241  12.692  12.585   4.901  0.1039  0.0488 -0.0985
91304W        W34242  11.883  11.996   3.494 -0.0692 -0.3174  0.0247
91305W        W34243  12.331  14.584   3.433 -0.2977  0.2245 -0.3663
91306W        W34244  12.815  14.802   6.779  0.0878 -0.0602 -0.0519
91307W        W34245  10.301  12.549   6.224  0.1118 -0.1247  0.0779
91308W        W34246  11.009  15.227   3.627 -0.0314 -0.0621 -0.3601
91309W        W34247  13.826  14.777   4.426  0.0470 -0.1388 -0.1047
91310W        W34248  12.848  14.027   3.229 -0.1371  0.0047  0.0861
91311W        W34249  13.139  16.190   5.596  0.1269 -0.0044 -0.0748
91312W        W34250  12.651  11.257   3.390 -0.3082 -0.3527 -0.1913
91313W        W34251  11.361  13.375   5.432  0.2543  0.0159 -0.0323
91314W        W34252  11.434  13.976   2.512 -0.0337  0.5473 -0.2418
91315W        W34253  12.377  14.823   4.594  0.4914  0.2715  0.2028
91316W        W34254  11.349  14.863   4.375  0.0935 -0.1212  0.0814
91317W        W34255  15.166  13.626   7.477  0.2164 -0.0561 -0.0615
91318W        W34256  13.940  10.917   3.742  0.0571  0.2400 -0.0471
91319W        W34257  12.420  11.714   4.314  0.0804  0.0146  0.1865
91320W        W34258  14.586  11.577   4.078  0.1289  0.1015  0.0323
91321W        W34259  13.197  15.002   7.631 -0.1786  0.1616 -0.0866
91322W        W34260  12.860  13.774   6.013  0.0695  0.2912 -0.0949
91323W        W34261  13.162  11.550   3.954  0.0597  0.0390  0.0250
91324W        W34262  14.154  11.756   6.845 -0.1414 -0.3386  0.2606
91325W        W34263  13.626  11.488   6.273 -0.2263 -0.0971  0.0095
91326W        W34264  11.051  14.021   6.169 -0.0048  0.1383 -0.2096
91327W        W34265  14.228  14.305   3.866  0.2902 -0.1542  0.1533
91328W        W34266  10.319  13.014   4.955 -0.1674 -0.4043 -0.0589
91329W        W34267  11.039  11.167   5.430 -0.0778  0.0505 -0.0809
91330W        W34268  13.680  12.262   5.589  0.0250 -0.1583 -0.0041
91331W        W34269  11.480  14.075   2.982 -0.3606  0.2425 -0.0825
91332W        W34270  13.481  12.065   4.612 -0.3424  0.0536  0.1090
91333W        W34271  10.841  14.873   4.090  0.0372  0.1147  0.1321
91334W        W34272  11.614  13.178   6.117  0.0052 -0.1330 -0.3500
91335W        W34273  12.430  14.528   6.587 -0.0967 -0.0906 -0.2158
91336W        W34274  10.493  11.237   5.085 -0.0910 -0.0050 -0.0335
91337W        W34275  14.146  12.802   4.407  0.0224  0.0277  0.2493
91338W        W34276  12.394  13.788   6.156  0.3641  0.0243  0.0537
91339W        W34277  14.033  11.181   6.346  0.1864 -0.0088  0.2053
91340W        W34278  11.959  12.311   3.885 -0.6565 -0.0884  0.3634
91341W        W34279  13.710  11.226   4.173  0.3066 -0.0799  0.0876
91342W        W34280  12.197  13.632   5.708  0.2363  0.5320 -0.1202
91343W        W34281  10.974  10.971   6.832 -0.2686 -0.2055  0.1444
91344W        W34282  13.281  11.940   3.216 -0.0437  0.0670 -0.0735
91345W        W34283  12.587  13.355   5.508 -0.0867 -0.2794 -0.1697
91346W        W34284  12.994  10.878   3.312  0.0738  0.0761 -0.0636
91347W        W34285  13.925  14.683   6.093  0.0876  0.1597  0.2451
91348W        W34286  12.632  10.945   4.245  0.0536 -0.1447  0.0093
91349W        W34287  14.789  11.860   2.159  0.0305 -0.1709 -0.1802
91350W        W34288  10.841  12.855   4.798 -0.1727  0.1921 -0.0513
91351W        W34289  11.938  12.860   5.910  0.1270  0.3130 -0.1764
91352W        W34290  13.986  16.001   7.954  0.2326  0.1533 -0.0988
91353W        W34291   9.875  11.800   5.205 -0.0587  0.1821  0.0163
91354W        W34292  13.806  13.605   3.998 -0.3217 -0.0337  0.0355
91355W        W34293  12.897  12.374   3.764 -0.2101 -0.2077 -0.2611
91356W        W34294  12.517  14.344   2.431 -0.1410 -0.0972 -0.2508
91357W        W34295  12.078  12.704   5.423  0.1756 -0.3501 -0.1100
91358W        W34296  13.863  13.759   4.541  0.0765 -0.2803 -0.1640
91359W        W34297  10.607  13.198   6.774 -0.0383 -0.0314  0.1393
91360W        W34298  13.035  12.459   5.277 -0.1691  0.2892  0.1057
91361W        W34299  14.281  13.804   4.179  0.0383  0.0221  0.2069
91362W        W34300  13.374  10.719   4.572  0.0935 -0.0749 -0.1370
91363W        W34301  11.424   9.889   5.930  0.0920 -0.2377  0.0927
91364W        W34302  12.748  12.844   4.009  0.1615  0.0166  0.2427
91365W        W34303  13.248  12.925   5.143  0.0649  0.0472  0.0323
91366W        W34304  12.700  12.488   6.608  0.1827  0.0447  0.0245
91367W        W34305  12.680  14.884   3.114  0.0704  0.2647 -0.0228
91368W        W34306  13.534  10.978   6.402 -0.2491 -0.2240 -0.2211
91369W        W34307  12.114  15.285   5.808  0.1616 -0.6112 -0.0173
91370W        W34308  12.497  14.548   7.149  0.0107  0.1239 -0.0137
91371W        W34309  11.558  12.773   2.455 -0.0215 -0.1213  0.1557
91372W        W34310  13.340  14.628   6.294 -0.2168  0.1632 -0.2117
91373W        W34311  10.993  13.948   4.752  0.2365  0.2158  0.0043
91374W        W34312  11.878  14.680   3.145 -0.3158 -0.1876  0.0703
91375W        W34313  12.627  13.219   5.007  0.1384 -0.1019 -0.1233
91376W        W34314  11.751  12.489   4.602 -0.0017  0.0557 -0.2750
91377W        W34315  14.052  13.216   4.190  0.2891  0.1472  0.0943
91378W        W34316  13.906  10.972   4.559  0.2803 -0.2400  0.1763
91379W        W34317  15.132  10.757   5.214 -0.3051  0.3102  0.3619
91380W        W34318  14.549  12.379   2.649  0.0509  0.0999 -0.1565
91381W        W34319  11.243  11.583   5.521  0.2342 -0.1011 -0.1929
91382W        W34320   9.184  13.516   3.131 -0.2073 -0.0201  0.0095
91383W        W34321  10.493  12.952   3.890  0.0821 -0.0743 -0.1306
91384W        W34322  10.456  13.861   6.710 -0.1728  0.1228 -0.1579
91385W        W34323  12.042  11.772   6.480  0.0069 -0.0515  0.0261
91386W        W34324  12.434  11.876   6.235 -0.1758  0.2375 -0.0012
91387W        W34325   9.631  14.744   4.067 -0.1865 -0.1913  0.1742
91388W        W34326  10.419   9.992   5.722 -0.1814  0.1186 -0.0562
91389W        W34327  13.881  14.869   3.085 -0.3640  0.3244 -0.0711
91390W        W34328  11.041  10.775   5.995 -0.3422 -0.2155 -0.1802
91391W        W34329  10.668  10.662   4.406  0.0655 -0.1360  0.0133
91392W        W34330  12.963  14.417   4.223 -0.0324 -0.0252 -0.0208
91393W        W34331  12.511  15.719   4.921 -0.2924  0.0126 -0.3304
91394W        W34332  10.467  12.022   2.562 -0.5262 -0.1695 -0.0706
91395W        W34333  14.066  13.798   6.632  0.4042  0.1325  0.1941
91396W        W34334   9.764  12.518   3.404  0.0697  0.1427 -0.0172
91397W        W34335  12.497  11.979   6.779 -0.2580  0.1367  0.0492
91398W        W34336  12.044  11.253   6.594 -0.2104  0.2829 -0.0734
91399W        W34337  10.088  10.940   5.219 -0.0247  0.0809 -0.0827
91400W        W34338  12.210  12.537   4.501  0.2901 -0.0176  0.0960
91401W        W34339  11.813  14.554   3.659 -0.1275 -0.0095  0.1126
91402W        W34340  13.891  15.285   5.287  0.0861  0.3538  0.2258
91403W        W34341  14.068  14.196   6.261  0.0518  0.2951 -0.2359
91404W        W34342  13.354  15.195   7.160 -0.2506 -0.2422  0.0536
91405W        W34343   9.322  11.446   6.570 -0.4370  0.4441 -0.2472
91406W        W34344  14.115  13.833   3.718  0.1931  0.1027 -0.0551
91407W        W34345  13.655  13.675   7.503 -0.3956  0.2640  0.0376
91408W        W34346  13.913  14.300   4.254  0.2846  0.0850  0.1408
91409W        W34347  14.907  11.529   4.521 -0.3649 -0.0196 -0.0473
91410W        W34348  14.920  12.876   3.176  0.0380  0.1004 -0.0574
91411W        W34349   9.741  11.216   6.339 -0.1064  0.0216 -0.2626
91412W        W34350  12.354  12.768   6.257  0.0978  0.1679 -0.1544
91413W        W34351  12.815  13.423   4.393 -0.2119  0.1142  0.2513
91414W        W34352  11.345  11.194   5.766  0.1369 -0.2629 -0.0282
91415W        W34353  13.901  11.114   5.307 -0.0999  0.0578  0.0233
91416W        W34354  11.830  13.975   3.655 -0.1925  0.2700  0.0691
91417W        W34355  11.348  13.621   6.200 -0.2911 -0.2538 -0.0604
91418W        W34356  12.656  11.648   3.745 -0.0621 -0.0090 -0.2173
91419W        W34357  11.891  13.079   4.511  0.2408  0.3767  0.0922
91420W        W34358  11.715  12.718   4.150  0.1658  0.1024  0.2269
91421W        W34359  14.113  12.328   5.303 -0.0231  0.1764 -0.1750
91422W        W34360  10.572  12.636   3.323 -0.0509  0.1629 -0.0499
91423W        W34361  15.010  11.587   3.574 -0.2119  0.2241  0.0793
91424W        W34362  12.341  15.553   6.338  0.0600  0.1312  0.2386
91425W        W34363  14.968  13.627   6.408  0.0169  0.3530 -0.0017
91426W        W34364  12.027  14.128   6.387  0.2044 -0.1303 -0.1223
91427W        W34365  13.822  12.988   4.702  0.1651  0.0396  0.3517
91428W        W34366   8.889  11.861   5.708 -0.0488 -0.1760  0.0601
91429W        W34367  11.423  13.009   4.517  0.3937 -0.1329  0.0383
91430W        W34368  14.155  13.594   3.192  0.0469  0.0530 -0.4341
91431W        W34369  14.051  11.500   4.390  0.0373 -0.2493 -0.1262
91432W        W34370  10.814  10.956   3.860  0.0692 -0.1083 -0.0871
91433W        W34371  14.547  11.171   4.786  0.1112 -0.3760  0.0091
91434W        W34372  12.987  15.585   4.762  0.1308 -0.0350 -0.2128
91435W        W34373  12.953  13.822   7.125 -0.1675 -0.1537 -0.4038
91436W        W34374  13.582  12.724   8.689 -0.1539 -0.2400 -0.2016
91437W        W34375  12.210  11.373   7.585 -0.2342  0.1256 -0.2101
91438W        W34376  14.781  11.891   7.535 -0.0758  0.0861 -0.1234
91439W        W34377  15.501  14.052   7.085  0.1204 -0.2038 -0.1757
91440W        W34378  11.275  11.633   9.024  0.0287 -0.2558  0.1605
91441W        W34379  13.718  14.822   7.799  0.1162  0.3945 -0.2037
91442W        W34380  14.305  10.940   8.926  0.3806  0.2251 -0.3118
91443W        W34381  13.655  12.065   8.200  0.1447  0.1413  0.3744
91444W        W34382  13.682  13.774   6.047  0.2865  0.2249 -0.0214
91445W        W34383  12.736  11.607   8.292  0.1473  0.0969 -0.1388
91446W        W34384  10.820  10.659   7.166  0.1516 -0.0763 -0.0618
91447W        W34385  11.177  10.388   9.437  0.3251  0.1668 -0.3326
91448W        W34386  15.092  12.199   9.348  0.1070  0.0610  0.0037
91449W        W34387  11.707  12.645   7.731 -0.3445  0.3238 -0.1598
91450W        W34388  13.235  11.016   9.272 -0.1298 -0.0306  0.2024
91451W        W34389  12.565  11.572   7.231 -0.0058 -0.2907 -0.0634
91452W        W34390  14.359  15.299   9.613  0.2024  0.1936  0.0160
91453W        W34391  15.808   8.419   9.599 -0.0995 -0.2075 -0.1126
91454W        W34392  13.419  13.180   8.691 -0.0170  0.2039  0.2273
91455W        W34393  11.761  12.641   6.306 -0.0080  0.1116 -0.1219
91456W        W34394  11.118  10.847   9.271 -0.0476 -0.1181 -0.3026
91457W        W34395  11.151  10.946   9.836  0.2221 -0.0454 -0.0341
91458W        W34396  13.992  12.372   8.385 -0.0587 -0.1476 -0.2827
91459W        W34397  15.207  12.863   7.503 -0.2559  0.1792  0.0427
91460W        W34398  11.795  13.656   7.663 -0.2854  0.3315  0.0277
91461W        W34399  12.738  13.594   8.071  0.2644  0.2733  0.5539
91462W        W34400  12.123  13.260   8.546 -0.2633  0.0691 -0.0757
91463W        W34401  13.370  16.619   9.881  0.0381  0.0113 -0.4473
91464W        W34402  11.987  13.413   7.292  0.2188 -0.2124  0.0200
91465W        W34403  14.975  13.149   6.699 -0.1616  0.4081 -0.0246
91466W        W34404  11.502  13.492   6.693  0.3413 -0.1253  0.0754
91467W        W34405  13.063  12.853   8.767  0.3170 -0.1705 -0.1491
91468W        W34406  12.517  11.121   7.952  0.0402  0.1704 -0.1489
91469W        W34407  11.829  13.791   6.983 -0.0432 -0.4659 -0.1447
91470W        W34408  14.737  13.712   7.771  0.3001 -0.2187  0.1231
91471W        W34409  12.554  12.933   9.394 -0.1943 -0.1233  0.1115
91472W        W34410  13.023  13.172   8.333 -0.0264  0.1406 -0.0690
91473W        W34411  14.222  11.918   7.542  0.0639  0.2697  0.0720
91474W        W34412  12.932  12.018   6.511  0.2172 -0.0699 -0.0452
91475W        W34413  14.283  11.396   7.269 -0.0942 -0.1459  0.3643
91476W        W34414  13.983  11.860   8.548 -0.0857  0.0029 -0.1168
91477W        W34415  11.067  14.273   9.051 -0.1341 -0.2848  0.1080
91478W        W34416  14.548   9.791   9.732 -0.0355 -0.0102 -0.1967
91479W        W34417  12.917  12.959   6.405 -0.0099 -0.1262 -0.0088
91480W        W34418  14.264  12.117   8.794  0.2490  0.0760 -0.2228
91481W        W34419  11.431  13.813   8.744 -0.1156  0.2457 -0.1766
91482W        W34420  11.474  12.634   8.232  0.0281  0.3217 -0.3303
91483W        W34421  14.039  13.242   7.401  0.1445 -0.0474  0.0836
91484W        W34422  15.330  13.395   8.324  0.3272 -0.1491  0.2228
91485W        W34423  13.159  13.396   6.268  0.0774 -0.0331 -0.0222
91486W        W34424  13.429  12.327   8.512  0.0089  0.0124 -0.0807
91487W        W34425  11.354  12.037   5.974  0.0941 -0.1479 -0.1503
91488W        W34426  14.597  12.190   8.391 -0.2892 -0.0285 -0.2292
91489W        W34427  12.961  12.554   8.375  0.0351  0.3537 -0.3853
91490W        W34428  14.168  13.569   8.898 -0.3060  0.0450 -0.2563
91491W        W34429  13.414  12.629   7.132 -0.3420 -0.0296  0.3303
91492W        W34430  14.756  10.754   8.135 -0.1596  0.1552 -0.1767
91493W        W34431  13.298  11.073   8.801  0.0995  0.0307 -0.0379
91494W        W34432  11.187  12.682   7.790  0.1427  0.2216  0.1046
91495W        W34433  12.992  12.778   9.256 -0.0165 -0.0846 -0.1731
91496W        W34434  14.227  14.585   9.119 -0.0164  0.1263  0.0097
91497W        W34435  14.563  11.933   6.586  0.1531  0.2895 -0.0829
91498W        W34436  12.879  14.288   8.798  0.0601  0.1240  0.2352
91499W        W34437  11.864  14.609   7.297 -0.1102  0.3672 -0.1546
91500W        W34438  11.630  12.973   8.555  0.1056 -0.2335 -0.2542
91501W        W34439  13.090  12.830   6.826  0.1771 -0.1537  0.0240
91502W        W34440  12.133  12.130  10.068  0.2778  0.0536 -0.1288
91503W        W34441  12.428  11.766   7.769  0.2500  0.1465  0.0677
91504W        W34442  14.602  12.664   6.496  0.2908 -0.1020  0.0060
91505W        W34443  16.019  11.695   9.481 -0.2948  0.0372  0.2585
91506W        W34444  11.048  14.716   8.753 -0.0769  0.1563  0.0709
91507W        W34445  14.040  14.087   8.372 -0.0366  0.2955 -0.2259
91508W        W34446  14.944  11.168   6.274 -0.1185  0.0010 -0.2065
91509W        W34447  13.628  13.261   5.974 -0.0279  0.3323 -0.1154
91510W        W34448  12.073  11.792   9.160 -0.1894  0.0350  0.0111
91511W        W34449  12.221  11.813   8.296  0.0751 -0.2471  0.2362
91512W        W34450  10.422   9.792   9.311 -0.1690 -0.0595 -0.1098
91513W        W34451  12.496  11.775   8.680  0.1669  0.2076 -0.0712
91514W        W34452  15.208  11.424   6.835  0.0555 -0.0356 -0.4798
91515W        W34453  12.154  11.941   7.400  0.0594  0.3643  0.0445
91516W        W34454  11.036  13.397   7.594 -0.2621  0.2220 -0.0628
91517W        W34455  11.817  13.746   9.257  0.1457  0.3064  0.0837
91518W        W34456  13.574  15.273   9.546 -0.0362 -0.1730  0.2068
91519W        W34457  14.906  14.164   7.224 -0.3922 -0.1363  0.1003
91520W        W34458  11.574  10.849   9.601  0.2421 -0.1443 -0.1831
91521W        W34459  10.961  11.284   8.580 -0.1356  0.0668 -0.1181
91522W        W34460  12.708  13.820   8.915 -0.3237 -0.1503 -0.0268
91523W        W34461  12.926  12.424   7.604  0.1017 -0.1199 -0.0420
91524W        W34462  13.319  10.640   7.416  0.0789  0.3445 -0.0231
91525W        W34463  14.636  14.317   7.680  0.1706 -0.0920 -0.1944
91526W        W34464  13.027  11.917   7.648 -0.1317  0.0032  0.0871
91527W        W34465  12.882  13.285   9.220 -0.0096  0.1373 -0.2499
91528W        W34466  15.392  13.043   7.978  0.0176  0.1820  0.1938
91529W        W34467  10.838  11.804   7.465 -0.3101  0.1066  0.1203
91530W        W34468  13.507  13.594   8.938  0.3183  0.0408  0.1466
91531W        W34469  10.887  12.942   7.488 -0.1832 -0.0147  0.0511
91532W        W34470  10.791  13.291   8.620  0.1996  0.3157 -0.3132
91533W        W34471  12.430  13.986   8.514 -0.0161 -0.0892  0.0793
91534W        W34472  14.165  11.129   9.942 -0.2768  0.0692 -0.1229
91535W        W34473   9.990  13.355   6.039  0.1019 -0.0220 -0.0274
91536W        W34474  14.143  11.537   8.910 -0.1733  0.1889 -0.0554
91537W        W34475  15.185  11.185   8.305 -0.4132 -0.3462  0.0044
91538W        W34476  13.414  12.509   7.628 -0.0937 -0.0387  0.1437
91539W        W34477  13.179  13.317   6.749 -0.0181 -0.1439 -0.1592
91540W        W34478  13.413  11.772   6.718 -0.0660 -0.0471 -0.1986
91541W        W34479  13.332  13.190   9.178 -0.1378  0.0095  0.0658
91542W        W34480  13.105  12.735   7.957  0.0010  0.0035  0.3549
91543W        W34481  13.517  11.795   7.713 -0.2986  0.3197  0.2303
91544W        W34482  14.690  13.568   8.996  0.0546 -0.1033  0.3143
91545W        W34483   9.847  13.265   9.055 -0.0086 -0.2594  0.1575
91546W        W34484  13.927  13.248   7.984 -0.1161 -0.0242 -0.0774
91547W        W34485  12.638  10.229   8.564  0.2297 -0.1741 -0.0876
91548W        W34486  12.050  12.785   6.694 -0.1447 -0.0892 -0.3368
91549W        W34487  13.257  10.762   8.321  0.1032 -0.0415  0.2510
91550W        W34488  12.432  14.547   8.669 -0.2038  0.0413  0.1285
91551W        W34489  15.166   9.464   9.193 -0.2154  0.1761  0.1304
91552W        W34490  14.097  11.328   8.450  0.1470 -0.0780  0.1410
91553W        W34491  14.469  11.456   6.524 -0.0470  0.3971 -0.3597
91554W        W34492  13.626  12.559   8.098 -0.0987 -0.1391 -0.0197
91555W        W34493  12.114  12.870   7.638 -0.0792  0.0408 -0.2938
91556W        W34494  14.206  12.407   9.213 -0.0558 -0.2344  0.0045
91557W        W34495  11.976  15.893   9.550  0.2574  0.2262  0.0198
91558W        W34496  14.695  12.595   7.498 -0.1751 -0.0131 -0.2871
91559W        W34497  12.550  12.716   7.447 -0.3814  0.0936  0.3507
91560W        W34498  12.284  14.793   8.125  0.1010 -0.0593 -0.1545
91561W        W34499  14.435  12.957   7.289 -0.0207  0.1989 -0.4897
91562W        W34500  11.881  11.017   8.597  0.2539  0.1269 -0.1400
91563W        W34501  12.530  14.366  11.027  0.1125 -0.2538  0.2106
91564W        W34502  12.027  13.276   6.773 -0.1591 -0.0066 -0.1938
91565W        W34503  12.528  12.763   8.953  0.1392  0.1087  0.0798
91566W        W34504  12.704  14.518   8.183  0.0055 -0.0043 -0.0232
91567W        W34505  14.561  11.276   8.691 -0.2105  0.2658  0.0576
91568W        W34506  12.059  13.226   9.231  0.4178  0.0140 -0.1833
91569W        W34507  11.704  11.758   7.318 -0.0423 -0.2384  0.0483
91570W        W34508  13.163  13.724   7.740 -0.0177  0.0671  0.2116
91571W        W34509  14.566  12.681   8.166 -0.0581 -0.0695  0.2073
91572W        W34510  13.946  12.700   7.095  0.4882 -0.0763  0.3504
91573W        W34511  11.766  11.587   9.626 -0.0518 -0.1078  0.1239
91574W        W34512  12.060  10.921   7.711 -0.0888 -0.0242  0.3151
91575W        W34513  11.548  13.302   9.325 -0.1051 -0.0719 -0.0230
91576W        W34514  14.732  11.265   7.015  0.0985  0.2724  0.1586
91577W        W34515  10.674  11.649   6.339  0.0877 -0.0216  0.3155
91578W        W34516  15.421  11.965   7.294 -0.4320 -0.0054 -0.2502
91579W        W34517  13.350  11.569   9.054 -0.1650  0.0407 -0.1453
91580W        W34518  12.975  12.035   8.425 -0.0061  0.0294  0.0455
91581W        W34519  14.401  14.380   9.511 -0.1384  0.1384  0.2311
91582W        W34520  12.870  11.479   7.714 -0.0794 -0.2203 -0.1468
91583W        W34521  12.157  13.717   8.860  0.2574 -0.0383 -0.2107
91584W        W34522  14.113  11.949   9.241  0.1577 -0.3524  0.0928
91585W        W34523  16.936  10.932   9.127  0.1182 -0.1791  0.1107
91586W        W34524  11.596  11.984   8.843 -0.2849  0.0761 -0.1089
91587W        W34525  12.344  12.409   7.012  0.0966 -0.0098 -0.0378
91588W        W34526  14.976  13.979   8.926 -0.1149 -0.3323  0.3623
91589W        W34527  12.037  10.512   8.904  0.1364 -0.1071  0.1959
91590W        W34528  13.050   9.409   8.843 -0.2111  0.1908  0.3565
91591W        W34529  15.462  13.737   5.915 -0.1925 -0.1227 -0.2487
91592W        W34530  11.923  12.896   7.164 -0.3015 -0.0508 -0.0963
91593W        W34531  13.240  12.409   8.958 -0.2322 -0.0880 -0.0959
91594W        W34532  12.656  12.114   8.002 -0.1514  0.0899 -0.1735
91595W        W34533  12.926  11.425   9.279 -0.3893  0.0225  0.0050
91596W        W34534  12.774  12.632   9.742  0.0316 -0.1620 -0.1678
91597W        W34535  12.237  15.054   7.232  0.2636  0.1398  0.0777
91598W        W34536  11.933  14.332   9.875 -0.1284 -0.3759  0.1640
91599W        W34537  14.837   9.814   7.280  0.2203  0.1106  0.0207
91600W        W34538  13.321  12.136   7.342 -0.0594  0.0717  0.0203
91601W        W34539  13.612  11.417   8.643 -0.4607  0.1561 -0.1724
91602W        W34540  14.488  12.093   7.190  0.4071  0.0685 -0.1769
91603W        W34541  11.611  10.321   9.143 -0.0044 -0.2838  0.2079
91604W        W34542  14.233  12.440   7.417 -0.0804 -0.2429  0.0402
91605W        W34543  13.152  11.513   8.570 -0.4582 -0.0381 -0.0923
91606W        W34544  12.631  10.500   7.726 -0.0893 -0.1140  0.0120
91607W        W34545  14.825  12.066   9.699  0.0845  0.2175  0.0370
91608W        W34546  14.514  13.206   8.114  0.3168 -0.1544  0.1259
91609W        W34547  12.330  13.224   8.097  0.0935 -0.0195  0.1314
91610W        W34548  14.063  11.723   8.036 -0.2603  0.1363 -0.1762
91611W        W34549  12.934  11.892   8.935  0.0783  0.1794  0.5842
91612W        W34550  13.776  12.199   7.593 -0.1426  0.0883  0.1007
91613W        W34551  13.509  13.092   8.185  0.0073 -0.0791 -0.1702
91614W        W34552  11.269  13.256   8.826  0.2781  0.0358  0.0103
91615W        W34553  14.343  12.133   9.651 -0.0580 -0.0454  0.2146
91616W        W34554  12.812  11.064   8.401  0.1058 -0.1840 -0.3224
91617W        W34555  15.934  14.288  10.373  0.2230 -0.0209  0.2503
91618W        W34556  15.364  11.913   6.075  0.3395 -0.0880 -0.3184
91619W        W34557  14.726  10.811   9.298  0.2189 -0.0594  0.0656
91620W        W34558  14.991  12.546   8.477  0.1135  0.0765 -0.0705
91621W        W34559  13.653  11.489   8.147 -0.2516 -0.3266  0.2120
91622W        W34560  13.224  12.899   9.720  0.2326  0.2173 -0.1662
91623W        W34561  11.714  11.589   5.869  0.3148  0.0991 -0.0445
91624W        W34562  14.641  15.228   5.788  0.0640 -0.2239  0.2381
91625W        W34563  13.766  13.645   9.803 -0.0638 -0.1428  0.3430
91626W        W34564  12.980  11.958   7.022 -0.0053  0.1300 -0.3242
91627W        W34565  12.749   9.548   9.381  0.1793 -0.2080 -0.0783
91628W        W34566  12.514  10.927   7.457 -0.0334 -0.0035  0.0062
91629W        W34567  12.644  12.251   8.744 -0.2029 -0.1128 -0.2063
91630W        W34568  13.791  12.258   8.858 -0.1797  0.0798  0.1039
91631W        W34569  14.552  12.243   7.871 -0.1558  0.3184  0.3056
91632W        W34570  11.066  12.894   8.532  0.1712 -0.2169 -0.4454
91633W        W34571  12.333  11.309   8.437  0.3744 -0.0107 -0.2660
91634W        W34572  16.389  16.755   9.910  0.0824  0.1528  0.1155
91635W        W34573  12.294  11.686   9.829 -0.0171 -0.1092  0.0990
91636W        W34574  14.150  10.598   9.367  0.1271 -0.1606 -0.3283
91637W        W34575  14.305  13.120   8.646  0.1382 -0.0114 -0.1273
91638W        W34576  13.786  12.861   7.748 -0.1287 -0.0456 -0.0668
91639W        W34577  12.081  12.725   9.371 -0.2492  0.0162 -0.0142
91640W        W34578  14.343  13.521   7.075 -0.0196  0.1926  0.0573
91641W        W34579  12.078  12.089   8.695  0.0841 -0.1940  0.1393
91642W        W34580  13.411  11.932   8.725  0.0566  0.1754  0.0339
91643W        W34581  11.266  12.086   7.412 -0.1036 -0.3332 -0.1228
91644W        W34582  12.187  14.177   7.371 -0.0380 -0.2368  0.1880
91645W        W34583   9.040  13.684   9.570 -0.4312 -0.0307 -0.0506
91646W        W34584  12.680  15.079   7.784 -0.0056  0.1855 -0.0380
91647W        W34585  13.220  12.244   8.015  0.0728 -0.3348 -0.1152
91648W        W34586  12.216  12.384   7.485  0.0635  0.0447  0.2740
91649W        W34587  11.256  12.680   9.830 -0.0944  0.0213 -0.0698
91650W        W34588  13.149  10.473   7.896  0.1914 -0.4298 -0.0353
91651W        W34589  11.147  13.401   9.637 -0.0258  0.1969 -0.0993
91652W        W34590  11.966  14.821   6.697 -0.0208 -0.0460  0.1741
91653W        W34591  14.104  12.761   6.587  0.3536 -0.0536  0.1686
91654W        W34592  11.452  15.242   9.782 -0.2469 -0.0111 -0.2006
91655W        W34593  14.505  10.893   6.275 -0.3833 -0.3466 -0.1826
91656W        W34594  15.915  12.199   7.494  0.0674 -0.0819 -0.0967
91657W        W34595  15.073  12.252   7.606 -0.0809  0.1682  0.1461
91658W        W34596  13.715  11.273   9.879  0.0645 -0.0717  0.1030
91659W        W34597  11.630  11.991   5.521  0.0174  0.2426  0.5069
91660W        W34598  14.410  14.049   6.875  0.2563 -0.0318 -0.1894
91661W        W34599  11.729  12.349   7.321 -0.0692 -0.4429  0.0091
91662W        W34600  13.652  12.747   9.218  0.3174  0.0130 -0.2551
91663W        W34601  15.388  10.147   9.030  0.3192  0.0503  0.1381
91664W        W34602  12.071  14.310   6.908  0.1247  0.2585  0.0825
91665W        W34603  14.181  11.229   9.356 -0.0396  0.0821  0.0982
91666W        W34604  13.506  14.874   8.420 -0.1102  0.0889  0.0867
91667W        W34605  14.817  10.420   9.627  0.3197 -0.0136  0.1291
91668W        W34606  13.081  13.738   9.247 -0.3692  0.1058  0.3160
91669W        W34607  10.381  11.378   8.901  0.0709 -0.0611 -0.0561
91670W        W34608  15.813  12.133   9.086  0.0595  0.1515  0.1593
91671W        W34609  12.747  11.411   8.822 -0.0931  0.0417  0.0601
91672W        W34610  11.859  13.222   7.957 -0.0971 -0.1356 -0.0414
91673W        W34611  15.235  11.413   7.326  0.0243 -0.0082  0.0173
91674W        W34612  14.815  12.987   7.773 -0.0539  0.2988 -0.1789
91675W        W34613  12.801   9.037   9.094  0.2291 -0.3196  0.2942
91676W        W34614  12.495  12.668   7.987  0.0076 -0.0970  0.0105
91677W        W34615  12.014  11.954   5.980  0.1498  0.2390  0.1420
91678W        W34616  12.032  12.854   8.843  0.0530  0.0951 -0.3136
91679W        W34617  13.819  12.228   7.056 -0.1026 -0.0505 -0.1990
91680W        W34618  12.789  12.316   9.324 -0.3702  0.3268  0.3215
91681W        W34619  11.752  12.889   9.668  0.0988  0.2469  0.0539
91682W        W34620  11.109  10.586   8.821 -0.2004  0.0906  0.1231
91683W        W34621  14.503  13.134   6.811 -0.1842 -0.0134  0.0914
91684W        W34622  15.376  13.545   9.207 -0.0846  0.1294 -0.5970
91685W        W34623  14.492  13.372   7.544  0.2222  0.0913  0.1076
91686W        W34624  13.037  12.932   7.410 -0.0031 -0.0733  0.2019
91687W        W34625  14.958  13.119   9.178 -0.2419  0.1940  0.3356
91688W        W34626  10.888  11.351   9.266 -0.1503  0.1823  0.1534
91689W        W34627  15.461  13.724   8.767 -0.0963  0.0080  0.0520
91690W        W34628  15.813  13.857   9.178  0.0540 -0.4638  0.1740
91691W        W34629  13.896  10.857   7.615 -0.0115 -0.2190  0.2782
91692W        W34630  12.612  12.078   7.416 -0.1122 -0.1330  0.0656
91693W        W34631  12.097  13.698   8.091  0.2805  0.1510 -0.1387
91694W        W34632  13.272  13.961   9.764  0.2965  0.3376  0.1601
91695W        W34633  13.930  14.153   7.027 -0.1270  0.0992  0.3659
91696W        W34634  12.090  13.186   9.729  0.2012 -0.2305 -0.1167
91697W        W34635  11.153  12.883   6.726 -0.4685  0.2404 -0.1371
91698W        W34636  13.181  11.700   8.101  0.0685 -0.2321 -0.1264
91699W        W34637  14.185  14.630   7.709 -0.1978  0.0031  0.0002
91700W        W34638  15.054  13.363   6.008  0.0718 -0.0128 -0.1506
91701W        W34639  14.079  12.470   7.897 -0.3818 -0.1727  0.1344
91702W        W34640  15.543  12.820   6.795 -0.2079  0.2338 -0.6034
91703W        W34641  12.140  10.893   8.201  0.0387 -0.1724 -0.0448
91704W        W34642  14.302  12.890   7.745  0.0317 -0.3516 -0.2838
91705W        W34643  14.735  10.831   8.649 -0.1795 -0.1210 -0.0489
91706W        W34644  12.329  13.460  10.123  0.1055 -0.1919  0.2010
91707W        W34645  10.845  13.116   8.082 -0.2375  0.0969  0.1944
91708W        W34646  12.735  14.072   7.522  0.0494  0.1193 -0.0858
91709W        W34647  12.014  12.848   8.267  0.1620 -0.0207  0.1878
91710W        W34648  10.358  13.511   9.274 -0.4086  0.1096 -0.2256
91711W        W34649  10.458  11.367   7.836 -0.2365  0.1007  0.1150
91712W        W34650  13.780  12.030   6.564 -0.2748  0.0704 -0.2968
91713W        W34651  13.213  12.398   9.480 -0.1274 -0.2728  0.0564
91714W        W34652  11.228  11.559   7.198  0.0803 -0.0622  0.0676
91715W        W34653  13.831  13.415   8.469 -0.0143  0.0289  0.3766
91716W        W34654  14.679  13.103   6.288  0.0550 -0.0685 -0.1589
91717W        W34655  11.896  11.727   7.768 -0.0174  0.0215 -0.2242
91718W        W34656  11.244  12.661   6.316  0.0414 -0.0487  0.4590
91719W        W34657  10.929  12.251   6.043  0.2248  0.1201  0.0374
91720W        W34658  12.571  10.988   9.235 -0.1551  0.2843  0.0185
91721W        W34659  12.524  13.510   8.504 -0.2029  0.3537 -0.1554
91722W        W34660  13.747  13.820   7.965 -0.2594  0.4745 -0.0390
91723W        W34661  10.640  11.013  11.658 -0.4344  0.1552  0.2141
91724W        W34662  13.565  13.051   7.351 -0.3601  0.0091  0.2289
91725W        W34663  15.560  12.733   5.795 -0.1237 -0.0242 -0.3675
91726W        W34664  14.038  12.866   8.277 -0.3978 -0.1643  0.0986
91727W        W34665  12.811  12.825   5.906  0.2070  0.2996 -0.1345
91728W        W34666  15.188  14.555   9.097  0.1222  0.0642 -0.0843
91729W        W34667  11.327  11.737   7.755  0.0717 -0.3781  0.0559
91730W        W34668  14.956  12.000   8.031 -0.1586  0.1293 -0.1865
91731W        W34669  13.666  13.115   9.604 -0.0645 -0.1722 -0.0299
91732W        W34670  13.771  11.551   9.259 -0.0401  0.0051 -0.2950
91733W        W34671  12.417  13.127   7.265 -0.2078 -0.3256  0.1343
91734W        W34672  13.352  14.078   8.935  0.2149  0.1281 -0.2737
91735W        W34673  13.233  12.324   6.734 -0.2560  0.1310 -0.0849
91736W        W34674  14.940  12.814   7.079 -0.0884 -0.1273  0.2873
91737W        W34675  13.435  17.126   9.440 -0.0912  0.3106 -0.0276
91738W        W34676  12.430  14.257   9.181 -0.1427  0.0203  0.0329
91739W        W34677  14.142  12.652   8.782 -0.1677 -0.1710  0.0265
91740W        W34678  12.068  10.663   9.376  0.0615  0.0573  0.2590
91741W        W34679  10.758  12.761   6.971 -0.1718 -0.1508  0.2434
91742W        W34680  12.941  11.261   7.247  0.0276  0.0928 -0.1743
91743W        W34681  14.853  12.290   8.896  0.0662 -0.2329 -0.2945
91744W        W34682  14.747   8.814   9.186 -0.0349 -0.1921 -0.0459
91745W        W34683  14.553  11.756   7.934  0.0749  0.2191 -0.4997
91746W        W34684  13.055  13.539  10.065 -0.1228  0.0011 -0.2237
91747W        W34685  13.783  15.236  10.126 -0.0915  0.1463  0.1248
91748W        W34686  12.703  16.772   1.259  0.1531 -0.1559  0.0384
91749W        W34687  11.625  14.990  31.974 -0.0813 -0.0467  0.1138
91750W        W34688  14.193  15.267  31.005 -0.0714 -0.0360  0.0279
91751W        W34689  14.313  15.888   0.106  0.1967  0.2443 -0.1043
91752W        W34690  11.889  15.521   2.764 -0.3363  0.2959  0.1746
91753W        W34691  14.877  17.819   0.596 -0.0219  0.0622 -0.1102
91754W        W34692  11.815  16.101   2.035 -0.1188 -0.0474  0.0496
91755W        W34693  13.873  17.543   1.983  0.2559 -0.0293 -0.0563
91756W        W34694  14.314  17.787   0.651 -0.0358  0.0264  0.0027
91757W        W34695  13.189  16.968  31.588  0.0002  0.1981  0.0460
91758W        W34696  13.120  16.058   2.393  0.4107 -0.1496  0.1793
91759W        W34697  11.602  17.758   2.019 -0.0252  0.2650 -0.0015
91760W        W34698  12.426  13.831  30.681  0.0723  0.1376 -0.0048
91761W        W34699  10.669  12.876   1.942  0.3912 -0.1775  0.0454
91762W        W34700  13.410  17.634   1.647 -0.0418 -0.1335 -0.0008
91763W        W34701  10.420  16.490   0.654  0.2054 -0.0618  0.3479
91764W        W34702  11.830  16.612   1.160  0.0158  0.1684  0.1994
91765W        W34703  11.750  15.287   0.789 -0.1274  0.0574  0.1391
91766W        W34704  13.591  17.847   1.119 -0.0818 -0.1291 -0.1775
91767W        W34705  10.544  16.149   2.536 -0.1317  0.0362 -0.0891
91768W        W34706  12.045  14.199   2.096 -0.2114  0.0500  0.1267
91769W        W34707  13.176  15.438  31.274  0.0384  0.0751  0.3900
91770W        W34708  10.814  15.255  31.698 -0.4224  0.0904 -0.0563
91771W        W34709  11.561  14.475   0.171  0.1964 -0.1699 -0.1863
91772W        W34710  11.584  15.553   2.022 -0.1686 -0.0374 -0.1174
91773W        W34711  14.435  14.869   0.949  0.1241 -0.0165  0.1047
91774W        W34712  13.496  16.094   0.509 -0.3733 -0.4605  0.2413
91775W        W34713  12.029  17.226   0.341  0.0272 -0.0797 -0.0673
91776W        W34714  13.646  18.112   2.484  0.1547 -0.0793  0.1214
91777W        W34715  12.783  16.479   4.901 -0.1956  0.0968 -0.2619
91778W        W34716  11.566  17.174   0.219 -0.1506  0.1477  0.2039
91779W        W34717  11.402  19.403   0.787 -0.2449 -0.0041 -0.0155
91780W        W34718  14.234  17.562  30.024  0.2695  0.1355 -0.0497
91781W        W34719  15.008  17.286  29.889  0.1035 -0.0079 -0.0648
91782W        W34720  14.765  16.617   0.054  0.1257 -0.1102 -0.0617
91783W        W34721  12.185  17.160   2.850 -0.0006  0.0255 -0.1403
91784W        W34722  12.058  17.441  31.007 -0.0670  0.0285 -0.0725
91785W        W34723  12.590  17.974   3.010 -0.0514  0.1578  0.0553
91786W        W34724  10.811  18.070   2.606 -0.2845  0.0931 -0.0414
91787W        W34725  12.250  16.896  31.965 -0.1957 -0.1613  0.0644
91788W        W34726  13.789  16.511   0.461 -0.0625  0.0116 -0.2366
91789W        W34727  12.980  17.420  30.365  0.1765  0.0009 -0.2826
91790W        W34728  11.699  16.929   0.824  0.0925 -0.2012  0.3364
91791W        W34729  12.618  16.598   2.780  0.0518  0.1149  0.3127
91792W        W34730  11.618  17.179   1.249 -0.0805  0.2153 -0.1412
91793W        W34731  14.215  15.067   2.298  0.2631 -0.0289 -0.4085
91794W        W34732  12.500  16.422  31.775  0.0576  0.0234 -0.0858
91795W        W34733  14.467  15.472  31.355 -0.1351  0.0065  0.2014
91796W        W34734  13.060  15.887  31.455 -0.4205  0.0321 -0.0867
91797W        W34735  14.460  15.339   0.407 -0.2965  0.2133  0.1201
91798W        W34736  13.593  16.366   0.916  0.1082 -0.0669 -0.2782
91799W        W34737  12.470  19.186   0.104 -0.3380 -0.3203  0.1112
91800W        W34738  11.102  15.361   2.092 -0.0520 -0.1229  0.1513
91801W        W34739  13.561  16.778   1.896 -0.1054  0.1552 -0.1707
91802W        W34740  12.610  16.164  31.334 -0.0958 -0.0680 -0.3028
91803W        W34741  13.220  15.938   0.874 -0.0949 -0.0347 -0.0473
91804W        W34742  11.443  17.871   2.455 -0.0371 -0.1393 -0.0515
91805W        W34743  10.538  14.454   0.274  0.1501 -0.1417  0.0416
91806W        W34744  13.579  18.105  30.633  0.1227  0.1108 -0.4788
91807W        W34745  15.653  17.238  31.175  0.2266 -0.0722 -0.0618
91808W        W34746  14.439  18.184  29.076 -0.1456 -0.0630 -0.3139
91809W        W34747  12.071  15.216   0.075  0.0480 -0.1764 -0.0091
91810W        W34748   9.725  16.866   3.737  0.1500 -0.1482 -0.1428
91811W        W34749  11.109  17.916   4.165  0.0896  0.0641  0.1590
91812W        W34750  12.716  13.884  29.782 -0.1234 -0.1026  0.0208
91813W        W34751  13.793  15.874   1.969  0.3599  0.0931 -0.1052
91814W        W34752  11.278  16.973   4.217  0.1174  0.0708  0.2971
91815W        W34753  14.259  15.429  30.485  0.2133  0.0236 -0.1459
91816W        W34754  12.022  16.246   0.047  0.1845 -0.2489  0.0136
91817W        W34755  13.727  17.285   2.442 -0.1083 -0.1080  0.0581
91818W        W34756  14.738  16.061  28.620  0.2354  0.0662  0.3451
91819W        W34757  14.520  16.885   0.878  0.1123  0.3310  0.1170
91820W        W34758  12.665  15.401   3.022 -0.0225  0.3703  0.0230
91821W        W34759  12.732  15.776  30.538 -0.2000 -0.0863  0.1660
91822W        W34760  12.498  14.431  30.897  0.2030  0.0885 -0.2046
91823W        W34761  14.335  16.610   2.522  0.0734  0.3057  0.0680
91824W        W34762  14.225  15.064   0.071  0.0597 -0.2884 -0.1135
91825W        W34763  12.497  17.634   1.197  0.1020  0.1418  0.0025
91826W        W34764  11.257  17.395   3.169  0.0821  0.0135  0.1303
91827W        W34765  13.243  17.838   2.454 -0.1141 -0.0633 -0.0404
91828W        W34766  12.823  17.299  31.454  0.0810 -0.1445 -0.1301
91829W        W34767  11.283  17.286   0.809  0.2596 -0.1077 -0.0752
91830W        W34768  11.417  16.447  31.415  0.3526 -0.2167  0.0481
91831W        W34769  11.486  16.291   1.305  0.1311  0.0543 -0.0423
91832W        W34770  11.055  15.724   0.162  0.2596  0.0080 -0.1292
91833W        W34771  14.920  15.224   0.120  0.2225  0.3362  0.0797
91834W        W34772  10.823  16.265   2.143  0.3311  0.0782  0.1721
91835W        W34773  14.060  14.441   0.608 -0.0808  0.1261 -0.2811
91836W        W34774  13.493  16.571  31.458  0.1902 -0.1440 -0.2137
91837W        W34775  15.771  16.695  29.717  0.2587  0.1148 -0.3740
91838W        W34776  14.666  16.809  29.939  0.1406  0.1798  0.3438
91839W        W34777  13.893  17.641  28.778 -0.2622 -0.2492 -0.2197
91840W        W34778  11.707  15.970   3.023  0.3335 -0.2497 -0.0407
91841W        W34779  10.307  14.065  31.885  0.1292 -0.0164 -0.1143
91842W        W34780  10.521  14.922   3.721 -0.2425 -0.0689  0.0354
91843W        W34781  10.584  14.317   0.740  0.0636  0.0825 -0.1049
91844W        W34782  13.601  15.909   2.411  0.2207  0.2318  0.0289
91845W        W34783  11.073  14.722  31.139 -0.0394  0.3866  0.0420
91846W        W34784  13.947  15.397  31.417 -0.0727 -0.1133 -0.2157
91847W        W34785  11.899  15.644   1.134 -0.1049 -0.1001  0.3463
91848W        W34786  12.141  16.119  31.545  0.1511 -0.1728  0.1882
91849W        W34787  14.627  15.424   2.233  0.0117 -0.0449 -0.0977
91850W        W34788  14.036  17.383  30.510 -0.2690 -0.1518  0.0554
91851W        W34789  13.667  17.316   3.521 -0.0872  0.1492 -0.1163
91852W        W34790  14.914  18.409   0.127 -0.0073  0.1415  0.0906
91853W        W34791  11.759  15.030   2.190  0.0019  0.0830 -0.1456
91854W        W34792  11.905  14.112  31.435 -0.1364  0.1641 -0.0905
91855W        W34793  13.244  19.158   1.279 -0.2276 -0.1833 -0.1928
91856W        W34794  12.312  18.752  31.788  0.0054 -0.2608 -0.1243
91857W        W34795  12.372  14.820   0.412  0.0006 -0.0997 -0.3036
91858W        W34796  16.346  18.474  31.305  0.2810  0.0118 -0.0973
91859W        W34797  14.033  16.663  31.191  0.3931  0.4961  0.2119
91860W        W34798  11.062  17.262   2.704 -0.0034 -0.1678 -0.0646
91861W        W34799  13.568  15.209   3.133  0.0827  0.0973  0.0348
91862W        W34800  14.336  17.477   2.945 -0.0055  0.1809 -0.3011
91863W        W34801  13.241  15.869   1.818 -0.0932  0.0760  0.0432
91864W        W34802  11.169  14.810  29.297  0.0630  0.2432  0.1850
91865W        W34803  13.498  16.891   0.784  0.3816 -0.0508 -0.2434
91866W        W34804  12.056  17.850   0.734  0.1187  0.0184 -0.1855
91867W        W34805  11.108  15.202   0.120  0.3447  0.2309  0.0849
91868W        W34806  12.883  17.394   0.515 -0.4259  0.1178 -0.0385
91869W        W34807  14.347  16.697   0.431 -0.1338 -0.1023 -0.1025
91870W        W34808  11.458  16.943   2.798  0.0554  0.1866 -0.3612
91871W        W34809  12.649  15.884   1.742  0.1857 -0.1721 -0.1559
91872W        W34810  10.909  16.275  31.303 -0.2362  0.1379  0.0258
91873W        W34811  11.045  16.674   1.931 -0.1622 -0.5445 -0.1411
91874W        W34812  12.635  15.144   1.189 -0.0279  0.0035 -0.2087
91875W        W34813  14.553  14.925  31.051 -0.3539 -0.1169 -0.2707
91876W        W34814  12.483  17.086   3.625  0.1085  0.3759  0.0099
91877W        W34815  13.980  17.286  29.139  0.1543  0.0050  0.2306
91878W        W34816  14.949  15.712  29.931 -0.1840  0.2224 -0.1141
91879W        W34817  13.045  14.621   1.247 -0.2323  0.2916  0.2034
91880W        W34818  10.838  17.407   4.285 -0.1769 -0.4004  0.2379
91881W        W34819  12.885  17.233  31.946  0.0258  0.0344  0.2882
91882W        W34820  12.259  16.706   1.464 -0.0368 -0.0108  0.1515
91883W        W34821  12.828  15.971   0.526  0.1071  0.0033 -0.1417
91884W        W34822  15.442  18.355   0.472 -0.2809 -0.0217 -0.1838
91885W        W34823  11.300  16.841   1.451  0.0715 -0.0455  0.2249
91886W        W34824  13.402  17.000   2.778  0.1964 -0.2910 -0.0100
91887W        W34825  13.819  17.059  30.913 -0.2214  0.0241 -0.1692
91888W        W34826  13.610  15.074   2.115 -0.1804 -0.0757  0.0544
91889W        W34827  12.953  16.258   0.104 -0.1022  0.2427 -0.2878
91890W        W34828  13.278  17.069   0.283 -0.2330  0.0560 -0.2263
91891W        W34829  12.464  16.617  31.258 -0.0513  0.1483  0.0468
91892W        W34830  12.682  15.556   0.761 -0.1389 -0.0132 -0.1200
91893W        W34831  12.780  15.748   2.275 -0.3322  0.0692  0.3799
91894W        W34832  13.541  14.549   1.285  0.0971 -0.2145 -0.0391
91895W        W34833  14.036  16.265   1.773  0.0816 -0.0366 -0.3324
91896W        W34834  13.078  16.376  31.611 -0.0027  0.1768 -0.0499
91897W        W34835  13.170  16.586   1.555 -0.2320 -0.1724 -0.5614
91898W        W34836  10.746  14.634  30.708  0.1218  0.0625 -0.0042
91899W        W34837  11.477  15.396   2.499 -0.1196 -0.2396  0.1992
91900W        W34838  12.046  16.036   2.672  0.1944 -0.4076  0.0426
91901W        W34839  11.674  19.292   1.732  0.2321 -0.0140 -0.0759
91902W        W34840  13.031  17.192   3.781 -0.3328  0.0167  0.1667
91903W        W34841  15.220  17.168   0.118  0.4438  0.2721 -0.1683
91904W        W34842  12.658  14.785   2.582 -0.0846 -0.1900  0.0877
91905W        W34843  14.588  15.021  31.561  0.0128 -0.3922 -0.2206
91906W        W34844  11.966  18.994   0.021  0.3753 -0.3935  0.3422
91907W        W34845  11.633  15.944   0.145  0.2281  0.3060  0.0792
91908W        W34846  10.625  14.950   0.052 -0.1112  0.0237  0.2716
91909W        W34847  12.583  16.959   0.418  0.2159  0.3375 -0.3749
91910W        W34848  11.858  17.241  31.860 -0.0798 -0.0405  0.3017
91911W        W34849  13.116  17.193   2.428  0.2490  0.1223  0.0276
91912W        W34850  10.828  15.526   1.174 -0.0708  0.0490 -0.0369
91913W        W34851  13.754  13.909   1.136 -0.2532  0.1908  0.1961
91914W        W34852  11.752  18.534   1.851 -0.0372  0.1416 -0.1689
91915W        W34853  10.055  15.539  31.708  0.2986  0.1843  0.0627
91916W        W34854  11.468  15.466  31.757  0.0961 -0.1229 -0.1319
91917W        W34855  13.274  16.562   0.475  0.0403 -0.0159 -0.0708
91918W        W34856  14.025  18.079  30.778 -0.0747  0.4072  0.0961
91919W        W34857  10.942  16.839   3.035  0.0448  0.0434  0.0995
91920W        W34858  12.575  14.454   0.666 -0.0701 -0.0600 -0.0649
91921W        W34859  10.704  18.054   3.220  0.0886 -0.1601  0.1168
91922W        W34860  12.711  16.813   1.742 -0.0792 -0.2455 -0.1297
91923W        W34861  14.675  15.307   0.937 -0.0138 -0.0953 -0.0055
91924W        W34862  13.930  17.693   2.647 -0.0346  0.2066  0.3438
91925W        W34863  12.699  17.535   3.658  0.2458 -0.1168  0.0156
91926W        W34864  11.412  15.813   1.146 -0.0356  0.3060 -0.0402
91927W        W34865  13.639  16.666   1.293  0.3487 -0.0317  0.1095
91928W        W34866  11.572  15.367   0.316  0.0292  0.0053 -0.3384
91929W        W34867  12.040  18.988   0.532  0.1053 -0.0131 -0.0463
91930W        W34868  12.911  17.612   1.473  0.1447 -0.0905  0.3847
91931W        W34869  11.860  15.595  31.097 -0.1092  0.1217 -0.2149
91932W        W34870  12.808  17.841   0.121  0.3889  0.1094  0.3353
91933W        W34871  12.532  16.464   3.432  0.1122 -0.1846 -0.2588
91934W        W34872  14.826  17.569   0.046  0.1680  0.0949  0.0072
91935W        W34873  12.298  15.994   2.240 -0.0463 -0.1175  0.0294
91936W        W34874  11.404  14.996   1.790  0.3766 -0.0779 -0.0640
91937W        W34875  13.096  16.126   1.399  0.3008 -0.0299 -0.1286
91938W        W34876  14.135  17.799  31.971  0.0049  0.0992 -0.2711
91939W        W34877  13.458  16.304   2.005  0.2487  0.0721 -0.2078
91940W        W34878  12.464  17.583   2.526 -0.2011 -0.0650  0.0767
91941W        W34879  13.679  14.135   1.580 -0.0416  0.2080 -0.3246
91942W        W34880  15.008  19.204  31.404  0.4425 -0.1710 -0.2888
91943W        W34881  12.627  16.689   2.257  0.1719  0.0112 -0.0714
91944W        W34882  11.606  16.014  31.630  0.1153 -0.1748  0.1713
91945W        W34883  11.309  15.468   1.602  0.0525  0.1061  0.1489
91946W        W34884  10.898  16.007   1.266 -0.2903 -0.0062 -0.0745
91947W        W34885  12.320  14.892   1.731 -0.0190 -0.1630 -0.1193
91948W        W34886  11.996  17.956   1.670  0.0051  0.1741  0.1774
91949W        W34887  13.472  17.377   0.667  0.2368 -0.0708  0.0735
91950W        W34888  11.054  18.095   2.127  0.0506 -0.0008  0.0850
91951W        W34889  15.198  14.751   0.205  0.0373 -0.3308 -0.0692
91952W        W34890  14.427  16.555  29.372 -0.2373  0.0803  0.0084
91953W        W34891  12.393  16.453   0.990  0.1166 -0.2913 -0.0499
91954W        W34892  14.494  15.810   1.880  0.2532  0.2570 -0.2609
91955W        W34893  13.591  16.694  29.950  0.3722  0.0954  0.2196
91956W        W34894  12.411  15.338   2.007  0.0083  0.0242 -0.1135
91957W        W34895  12.295  15.440   1.425 -0.0201 -0.4353 -0.3061
91958W        W34896  13.913  16.755  31.748  0.2679  0.2760  0.0718
91959W        W34897  10.684  14.990   2.327 -0.0874 -0.1294 -0.0515
91960W        W34898  13.197  18.286   2.321 -0.0052  0.3489 -0.0768
91961W        W34899  10.963  18.094   3.744  0.2304 -0.1970 -0.0313
91962W        W34900  13.847  16.142   0.173 -0.0154  0.1747  0.0843
91963W        W34901  10.261  14.408  30.453  0.0004 -0.0966 -0.0013
91964W        W34902  11.810  17.059   3.230  0.0962 -0.1166 -0.0113
91965W        W34903  13.447  17.275   2.042  0.2291 -0.1596 -0.2005
91966W        W34904  12.624  15.390   0.180  0.4538  0.0041 -0.2303
91967W        W34905  13.406  16.597  30.955 -0.1032  0.2534 -0.0648
91968W        W34906  11.483  16.489   0.828 -0.3887 -0.2195 -0.0797
91969W        W34907  13.960  17.315  31.876 -0.0105  0.0158 -0.0870
91970W        W34908  13.762  16.130  30.828 -0.1107 -0.0285  0.2620
91971W        W34909  10.974  15.796  31.613 -0.2138 -0.1808  0.1095
91972W        W34910  11.440  15.216   1.193 -0.0959 -0.0941  0.1389
91973W        W34911  13.216  16.925   1.170 -0.2578 -0.0343 -0.0922
91974W        W34912  13.210  14.210   2.608 -0.0627  0.1031 -0.3052
91975W        W34913  12.746  15.294   2.527  0.0265  0.0664 -0.1747
91976W        W34914  13.851  14.569   3.470 -0.0318  0.0801  0.1693
91977W        W34915  11.295  17.471   4.275 -0.1445 -0.2643 -0.3083
91978W        W34916  11.394  15.583   3.270 -0.2861  0.2071  0.0092
91979W        W34917  12.771  17.273   1.023  0.0635 -0.2092  0.2926
91980W        W34918  15.601  14.995   0.305 -0.3707 -0.2119 -0.0044
91981W        W34919  14.094  15.767   1.581 -0.1904 -0.1420  0.2336
91982W        W34920  15.079  16.935  30.338 -0.0276 -0.0372 -0.1202
91983W        W34921  14.289  17.322  31.069 -0.0977 -0.3162 -0.1841
91984W        W34922  10.648  13.595   0.904 -0.3465  0.0031 -0.2888
91985W        W34923  13.478  15.554   2.173  0.0134 -0.0136  0.2651
91986W        W34924  12.331  13.568   0.397  0.1691 -0.1053 -0.1388
91987W        W34925  12.937  16.330   2.011 -0.1398  0.2741  0.1392
91988W        W34926  14.477  18.327  30.900  0.2286  0.0998  0.0176
91989W        W34927  12.309  17.097   2.403 -0.1354 -0.1909  0.3341
91990W        W34928  12.757  16.104   1.039 -0.2530  0.4097  0.1855
91991W        W34929  10.755  14.814   0.516 -0.0327  0.1624 -0.0947
91992W        W34930  11.961  17.755   2.502  0.3468  0.0776 -0.0613
91993W        W34931  11.915  15.201  31.549 -0.0864  0.1358  0.1708
91994W        W34932  13.168  14.655   0.240  0.1560 -0.2360 -0.1276
91995W        W34933  12.678  18.104   1.410 -0.1173 -0.0483  0.2697
91996W        W34934  13.881  17.730   3.812 -0.0302  0.0814  0.0725
91997W        W34935  14.634  14.827   0.023  0.3148  0.3277 -0.0597
91998W        W34936  13.531  15.863   2.896 -0.4034  0.0789 -0.0321
91999W        W34937  12.376  16.501   0.377  0.0819 -0.1133 -0.2718
92000W        W34938  12.780  14.941   0.108  0.1999  0.4255  0.0577
92001W        W34939  12.285  19.805   2.487  0.0915  0.0809 -0.1415
92002W        W34940  11.426  16.825   2.150 -0.1582 -0.4035 -0.4916
92003W        W34941  11.883  16.329   0.604 -0.2801 -0.4811  0.0851
92004W        W34942  11.969  15.066   1.245  0.2974 -0.0460 -0.0819
92005W        W34943  14.067  16.156   0.753  0.1580 -0.0646 -0.1058
92006W        W34944  11.943  16.602   2.084  0.1371 -0.1234 -0.1760
92007W        W34945  14.159  17.039   3.211 -0.0428  0.0488  0.2365
92008W        W34946  13.959  17.533   1.464  0.0128  0.1500 -0.1990
92009W        W34947  10.595  16.449   1.241  0.0666  0.0328  0.1382
92010W        W34948  13.120  16.836   2.099  0.0713  0.0245 -0.0377
92011W        W34949  13.630  16.117   1.528  0.0312 -0.1906 -0.1882
92012W        W34950  11.792  16.748   0.327 -0.0374  0.1765  0.0790
92013W        W34951  10.332  16.350   3.181  0.2896 -0.0384  0.0051
92014W        W34952  12.701  17.185   2.767 -0.0239 -0.1700 -0.1176
92015W        W34953  12.586  17.283   1.628  0.0918  0.2175  0.2331
92016W        W34954  12.220  15.364   0.886 -0.2877  0.1921 -0.0969
92017W        W34955  13.397  17.041  31.184 -0.1701  0.0212  0.0241
92018W        W34956  11.473  18.934   4.505 -0.2524  0.2351 -0.2523
92019W        W34957  11.340  16.353   2.220 -0.0561 -0.2336 -0.2591
92020W        W34958  12.667  16.867  31.634 -0.0057 -0.0863  0.2216
92021W        W34959  14.422  17.888  31.190  0.0541  0.1375 -0.0418
92022W        W34960  14.142  16.942  30.089  0.0917 -0.3771 -0.0028
92023W        W34961  15.423  17.776  30.530 -0.1729 -0.0901  0.2435
92024W        W34962  12.377  15.960   0.281  0.0512  0.2032  0.1433
92025W        W34963  10.987  17.593   2.367  0.2653  0.0005 -0.0820
92026W        W34964  11.157  18.842  31.446  0.0046 -0.2713 -0.1834
92027W        W34965  13.835  17.571   0.319 -0.0009 -0.1183 -0.2241
92028W        W34966  13.045  17.897   0.581  0.0960  0.2136  0.0273
92029W        W34967  14.152  17.189   0.674 -0.1388 -0.1678  0.2184
92030W        W34968  14.040  14.720  31.001 -0.2283 -0.1927 -0.0119
92031W        W34969  13.884  16.258  31.659  0.1114 -0.2203  0.0115
92032W        W34970  15.843  16.023  31.589  0.3605  0.3900  0.0854
92033W        W34971  12.490  17.435   3.227 -0.2241  0.0942 -0.1407
92034W        W34972  12.464  17.366   0.143  0.0049 -0.0346  0.2803
92035W        W34973  13.041  14.502  30.279  0.1655  0.1236  0.2300
92036W        W34974  11.967  15.668   2.306  0.1701 -0.0206  0.2032
92037W        W34975  16.120  13.981   2.244  0.0965 -0.2154  0.0905
92038W        W34976  10.909  18.521   2.320  0.1902  0.0690  0.1194
92039W        W34977  15.396  18.782  31.583  0.1675 -0.3157  0.2207
92040W        W34978   9.460  14.775   0.913 -0.1469  0.2348 -0.1208
92041W        W34979  11.531  16.458   1.778  0.1605 -0.0178  0.1372
92042W        W34980  14.284  15.305   1.288  0.3725 -0.2553  0.0626
92043W        W34981  12.800  16.496   0.565 -0.0006 -0.1843  0.0455
92044W        W34982  12.612  16.347   1.487 -0.1164 -0.0358 -0.1875
92045W        W34983  13.844  16.971  29.526 -0.0068  0.0985  0.1947
92046W        W34984  12.914  18.385   0.174 -0.0070 -0.1660 -0.2673
92047W        W34985  12.326  17.338   0.717 -0.3449 -0.0516 -0.1545
92048W        W34986  11.893  16.109   1.030 -0.4062 -0.1370  0.2467
92049W        W34987  14.375  16.520  31.529 -0.0645  0.0897 -0.0458
92050W        W34988  11.138  15.792   2.311  0.0087 -0.1179 -0.2105
92051W        W34989  15.042  14.712   2.007  0.0445  0.2318 -0.0397
92052W        W34990  10.931  15.798   0.744  0.0086 -0.0636 -0.3981
92053W        W34991  14.291  14.121   0.251  0.0732  0.0713 -0.0010
92054W        W34992  13.677  17.200   1.631  0.3068 -0.0539  0.0278
92055W        W34993  11.766  14.997   2.753 -0.1537  0.1545  0.1646
92056W        W34994  14.192  15.957  30.615 -0.2553 -0.1659 -0.2067
92057W        W34995  14.812  17.541   2.773  0.0387 -0.0504 -0.0312
92058W        W34996  13.425  16.556  31.940 -0.0006  0.0922 -0.0372
92059W        W34997  13.450  17.511   2.768  0.1102  0.1602 -0.0428
92060W        W34998  12.760  15.698   1.304 -0.1971 -0.0516 -0.2423
92061W        W34999  12.360  15.888   0.871 -0.0725 -0.1401 -0.4137
92062W        W35000   9.999  15.459   0.460  0.2165 -0.0460  0.1544
92063W        W35001  11.596  15.919   2.484  0.2339 -0.0524  0.1619
92064W        W35002  13.388  18.547   3.652 -0.1760  0.2090 -0.1230
92065W        W35003  11.929  13.994   0.030  0.1162  0.0264 -0.1583
92066W        W35004  14.869  16.541  28.353 -0.4316  0.0901  0.1686
92067W        W35005  14.402  17.574   1.094 -0.2209 -0.0184 -0.2344
92068W        W35006  15.089  16.078  31.415 -0.0171 -0.3349 -0.0514
92069W        W35007  15.038  17.480  30.430  0.1365 -0.0584  0.0240
92070W        W35008  13.405  18.573   2.810  0.1591 -0.2103 -0.0682
92071W        W35009  10.968  16.350   0.829 -0.0552  0.2374 -0.2414
92072W        W35010  13.859  17.350   3.020 -0.0246  0.1628  0.1008
92073W        W35011  14.611  16.907  31.169 -0.1103  0.1444 -0.3327
92074W        W35012  14.128  15.283   0.769 -0.1170 -0.0544  0.2493
92075W        W35013  12.167  16.043  31.035  0.2839  0.3290 -0.1724
92076W        W35014  11.812  18.241   2.619  0.0786  0.2058  0.0665
92077W        W35015  14.018  16.804   1.636  0.1073  0.0496 -0.2712
92078W        W35016  14.056  16.190   1.286  0.2684  0.0196 -0.0854
92079W        W35017  13.355  18.034  28.974 -0.0760  0.0381  0.2052
92080W        W35018  15.282  15.309   1.571 -0.1528  0.0237  0.1367
92081W        W35019  12.989  16.894   0.706  0.0970 -0.0592 -0.2218
92082W        W35020  12.714  17.176   2.153  0.0781 -0.0746 -0.3370
92083W        W35021  10.949  15.626  30.611 -0.2274  0.0077 -0.3745
92084W        W35022  13.943  17.040   2.054 -0.0085  0.3235  0.0301
92085W        W35023  13.632  17.710  31.744 -0.2767  0.0168 -0.0978
92086W        W35024  13.680  16.910  30.375 -0.0621 -0.1018 -0.0280
92087W        W35025  12.941  16.757   0.101  0.1060  0.0553 -0.1247
92088W        W35026  15.171  17.059  31.233  0.0846  0.1142 -0.3005
92089W        W35027  13.100  15.267   0.417 -0.0021 -0.2197  0.2222
92090W        W35028  13.799  15.453   1.160  0.0528 -0.2944  0.0688
92091W        W35029  13.615  13.790  31.465  0.1204 -0.2332 -0.0145
92092W        W35030  12.248  16.467   2.434  0.1338 -0.0426 -0.1399
92093W        W35031  10.316  14.566  31.798  0.0910 -0.0744  0.0343
92094W        W35032  11.900  16.452  31.271  0.1118  0.0800 -0.1365
92095W        W35033  10.473  15.963   0.390 -0.0635  0.0712  0.3663
92096W        W35034  13.337  15.049   1.717 -0.1804 -0.2264  0.1990
92097W        W35035  10.417  16.839   3.156  0.1318 -0.0737  0.0124
92098W        W35036  10.997  15.301   2.643  0.0163  0.0387  0.1346
92099W        W35037  11.149  14.073   0.186  0.0543  0.0716  0.0151
92100W        W35038  14.722  16.710  28.995  0.1896 -0.0619 -0.3695
92101W        W35039  12.184  14.765   2.235 -0.1304  0.2911 -0.3166
92102W        W35040  10.138  14.152   0.870 -0.2135 -0.0262 -0.2486
92103W        W35041  15.164  16.838  29.680 -0.1651 -0.3361  0.4287
92104W        W35042  14.794  17.608  31.130  0.0715 -0.4656 -0.0840
92105W        W35043  13.307  13.516   1.924  0.1648 -0.0809 -0.0248
92106W        W35044  13.685  18.348   1.414  0.2965 -0.3967 -0.0352
92107W        W35045  11.444  15.565  30.774  0.0163 -0.2323 -0.1128
92108W        W35046  12.255  14.646   2.842  0.3743 -0.3487  0.3059
92109W        W35047  11.605  14.327   1.084 -0.1350  0.1469 -0.2689
92110W        W35048  10.060  15.188   0.075  0.2865  0.0156 -0.0754
92111W        W35049  11.964  16.284   1.569 -0.2041 -0.0761 -0.3887
92112W        W35050  14.421  17.519  31.710 -0.0600  0.0465 -0.0381
92113W        W35051  14.624  17.214  30.204 -0.1753  0.0281  0.0257
92114W        W35052  13.217  18.921   0.165 -0.0442  0.0233 -0.0125
92115W        W35053  12.258  16.973   1.895 -0.0572 -0.2980  0.1899
92116W        W35054  10.095  14.914   2.303 -0.1469 -0.2491  0.0720
92117W        W35055  15.506  16.728  31.046 -0.0390  0.0217 -0.1260
92118W        W35056  12.176  16.877   0.654 -0.1291 -0.0244 -0.2034
92119W        W35057  14.654  17.259  30.757  0.0660  0.2103  0.2939
92120W        W35058  14.559  16.020   1.399 -0.2134  0.0156 -0.0502
92121W        W35059  13.800  17.602  30.952 -0.1345  0.3585  0.1090
92122W        W35060  11.729  14.450   2.655  0.0919 -0.0219 -0.0672
92123W        W35061  12.021  16.842   4.372  0.2445  0.1855  0.0070
92124W        W35062  14.354  15.577   2.915  0.1001  0.3618  0.1800
92125W        W35063  11.817  14.620   1.810  0.2372  0.3593 -0.4195
92126W        W35064  13.491  14.923   0.573 -0.1809 -0.2088  0.1698
92127W        W35065  13.805  15.227  31.834  0.1699  0.0265 -0.0044
92128W        W35066  11.733  15.827   1.551 -0.2006  0.1972  0.4811
92129W        W35067  12.137  15.767   1.808 -0.1747  0.0063 -0.1174
92130W        W35068  13.661  16.792   3.376 -0.1033 -0.0656  0.1243
92131W        W35069  13.962  16.764   0.923 -0.0320  0.1412 -0.3337
92132W        W35070  13.203  16.663   3.044 -0.4132  0.3602  0.0534
92133W        W35071  13.093  15.759   0.013  0.0502  0.1812  0.0679
92134W        W35072  14.637  16.233  29.812  0.1131 -0.0717 -0.0694
92135W        W35073  13.991  18.108   0.401  0.0497 -0.3275 -0.0329
92136W        W35074  14.542  18.288   2.093 -0.1874 -0.2087 -0.0631
92137W        W35075  12.867  18.637   2.075 -0.2089 -0.1622 -0.2198
92138W        W35076  14.677  16.357   1.728 -0.0952 -0.1445  0.2433
92139W        W35077  11.366  14.879   2.487 -0.3164 -0.0395 -0.0884
92140W        W35078  11.164  14.812   0.922 -0.0951 -0.0679 -0.1280
92141W        W35079  12.647  14.461   0.177  0.1662  0.4093 -0.1855
92142W        W35080  14.262  16.622   2.042  0.1280  0.2526 -0.1623
92143W        W35081  11.326  14.310   1.712 -0.2804  0.0312  0.1423
92144W        W35082  13.641  14.724  31.896 -0.0783  0.1350  0.0033
92145W        W35083  13.944  17.556   0.930 -0.0018 -0.2930  0.1150
92146W        W35084  13.107  16.466   0.980 -0.1235 -0.2001  0.1651
92147W        W35085  12.307  17.210   7.027 -0.0273 -0.0017 -0.0891
92148W        W35086  11.857  15.036   3.864  0.3651  0.2971 -0.0732
92149W        W35087  13.369  14.799   3.291 -0.1202 -0.1236  0.1429
92150W        W35088  12.975  16.238   3.756 -0.1721 -0.0055  0.1091
92151W        W35089  11.679  14.111   6.030 -0.1930 -0.2159 -0.0941
92152W        W35090  15.198  19.205   4.028 -0.0077  0.1553  0.0013
92153W        W35091  11.475  15.095   6.659 -0.0275  0.3601  0.2529
92154W        W35092  13.475  18.615   5.700 -0.1646  0.2079  0.1304
92155W        W35093  14.746  18.133   5.845 -0.1031  0.1523  0.2476
92156W        W35094  12.769  17.975   2.361  0.0163  0.1613 -0.2602
92157W        W35095  11.750  15.599   5.640 -0.0128 -0.2520  0.1458
92158W        W35096  13.086  16.851   6.365 -0.0812  0.1828 -0.2048
92159W        W35097  11.787  15.899   3.497 -0.1421  0.2084 -0.0032
92160W        W35098  11.323  14.452   6.537 -0.1137 -0.0193 -0.1350
92161W        W35099  13.218  16.671   7.320 -0.0033 -0.0979  0.0495
92162W        W35100  11.234  16.010   5.923  0.0980 -0.1478  0.2995
92163W        W35101  11.981  15.322   6.641 -0.0535 -0.2705 -0.0774
92164W        W35102  12.185  15.193   2.446  0.0919  0.2314 -0.0446
92165W        W35103  11.542  18.850   3.979  0.0066  0.0902 -0.1187
92166W        W35104  12.521  14.067   6.907  0.3973  0.0041  0.1010
92167W        W35105  12.636  14.506   5.795 -0.1503  0.0679  0.1661
92168W        W35106  13.240  17.614   5.067  0.0518  0.1008 -0.1318
92169W        W35107  10.958  16.501   3.378  0.0096  0.0683 -0.1143
92170W        W35108  10.841  16.868   6.073 -0.1466 -0.0176 -0.1068
92171W        W35109  12.891  18.758   5.777 -0.2010 -0.1281  0.0479
92172W        W35110  11.375  15.859   5.433  0.0956  0.0481  0.0569
92173W        W35111  13.576  14.718   5.763  0.0862  0.1117 -0.0165
92174W        W35112  12.737  17.712   5.753  0.2277  0.0663  0.1341
92175W        W35113  11.400  18.074   4.582 -0.0539  0.0776 -0.3526
92176W        W35114  13.206  15.178   6.678  0.0905 -0.0537  0.0731
92177W        W35115   9.781  17.307   5.980 -0.1583 -0.0530 -0.1457
92178W        W35116  10.495  18.812   5.656  0.0754 -0.0025  0.3056
92179W        W35117  12.481  17.254   5.855  0.2940  0.0002 -0.0907
92180W        W35118  12.886  16.944   4.333  0.0371 -0.1172  0.0968
92181W        W35119  14.344  18.752   7.127  0.1350 -0.5534  0.1619
92182W        W35120  12.060  18.409   5.709  0.0078  0.0853 -0.2614
92183W        W35121  11.457  18.078   3.768  0.4219 -0.1910  0.4066
92184W        W35122  13.775  17.654   5.755  0.1096  0.2146  0.1496
92185W        W35123  12.264  17.310   6.472 -0.0766  0.4181  0.0334
92186W        W35124  13.053  16.055   5.122  0.2472  0.4840  0.2959
92187W        W35125  12.947  17.826   4.083 -0.0731  0.1120 -0.4337
92188W        W35126  13.255  17.481   3.314 -0.0528 -0.1778  0.2631
92189W        W35127  12.050  15.134   5.178 -0.3226  0.0585 -0.1599
92190W        W35128  13.805  17.009   8.063  0.1917  0.0088  0.0446
92191W        W35129  10.326  17.527   6.112  0.2925 -0.2040  0.1835
92192W        W35130  12.118  15.690   5.267  0.1781  0.1134 -0.1931
92193W        W35131  11.645  17.943   4.192  0.1319 -0.1693 -0.2380
92194W        W35132  13.217  16.086   3.346  0.1037 -0.0045 -0.2459
92195W        W35133  11.335  16.442   2.935  0.0953  0.0783 -0.1356
92196W        W35134  12.581  15.979   3.404  0.1661  0.1582 -0.1923
92197W        W35135  12.942  14.620   5.034  0.1093  0.1684  0.0522
92198W        W35136  12.518  18.162   5.900  0.2001 -0.0447 -0.1573
92199W        W35137  11.976  15.348   4.767 -0.4145 -0.0653 -0.2360
92200W        W35138  13.398  16.607   5.746 -0.0937  0.3589  0.1918
92201W        W35139  11.621  16.930   3.861  0.0771 -0.0293  0.5988
92202W        W35140  12.547  15.929   3.946 -0.1281  0.0655 -0.2723
92203W        W35141  11.534  17.915   6.529 -0.3814 -0.1949 -0.0572
92204W        W35142  12.064  15.864   4.077 -0.2470 -0.2365 -0.0973
92205W        W35143  13.984  17.858   3.195  0.1196  0.0277  0.1330
92206W        W35144  14.443  17.935   5.190  0.0905 -0.1993  0.0502
92207W        W35145  13.447  18.119   3.947  0.0801 -0.3113 -0.3682
92208W        W35146  10.909  14.747   4.575  0.2667 -0.0269 -0.0863
92209W        W35147  12.412  15.433   7.444 -0.3828  0.2432  0.0556
92210W        W35148  12.496  15.936   6.651 -0.4190  0.1157 -0.2439
92211W        W35149  12.728  14.944   2.141  0.0043 -0.1578 -0.0105
92212W        W35150  13.738  16.802   7.203  0.0906  0.1752 -0.0313
92213W        W35151  11.227  16.993   6.678  0.0167 -0.2194  0.1633
92214W        W35152  14.248  14.933   3.437 -0.2662 -0.0290 -0.1324
92215W        W35153  12.630  16.970   6.229  0.1506  0.1737  0.0165
92216W        W35154  13.155  16.669   4.642 -0.1179 -0.0567 -0.0736
92217W        W35155  13.005  17.554   1.971  0.1045 -0.0231  0.1041
92218W        W35156  11.457  15.677   4.605  0.0497 -0.0048 -0.0424
92219W        W35157  11.629  15.602   5.103  0.1234 -0.2253 -0.0718
92220W        W35158  13.114  15.553   3.170  0.3101 -0.2231 -0.3279
92221W        W35159  13.104  17.703   4.530  0.1678 -0.0079 -0.2917
92222W        W35160  15.330  17.830   5.665 -0.2282 -0.0915  0.2386
92223W        W35161  13.795  18.432   3.296  0.0594  0.1200 -0.1669
92224W        W35162  11.245  17.784   5.299  0.0997  0.0545 -0.0449
92225W        W35163  12.930  15.602   6.826  0.2336  0.0951 -0.2770
92226W        W35164  14.194  17.849   6.610 -0.0852  0.0496  0.0734
92227W        W35165  12.436  18.806   2.895  0.1246  0.1494  0.3124
92228W        W35166  11.636  17.344   5.656  0.0769 -0.1477 -0.0085
92229W        W35167  11.854  16.646   2.932 -0.0180 -0.2940 -0.1244
92230W        W35168   9.938  14.522   5.961  0.0111 -0.1590  0.0525
92231W        W35169  11.978  17.977   6.655 -0.2112 -0.0264 -0.0405
92232W        W35170  14.462  13.999   3.363  0.0654  0.2825  0.1688
92233W        W35171  11.560  13.960   6.517 -0.2017 -0.0678 -0.1730
92234W        W35172  15.014  14.484   3.207  0.0094  0.1588  0.0020
92235W        W35173  11.573  17.116   4.692 -0.3722  0.1294 -0.0172
92236W        W35174  14.542  19.072   3.285 -0.1354  0.2155 -0.3481
92237W        W35175  13.227  16.608   3.580  0.1665 -0.1054 -0.1245
92238W        W35176  13.043  18.139   2.808 -0.1881  0.0755 -0.4516
92239W        W35177  10.861  16.798   6.894  0.2069 -0.0773 -0.0047
92240W        W35178  11.669  15.436   3.677  0.2102 -0.2186  0.2739
92241W        W35179  11.425  14.728   6.955  0.1456 -0.1759  0.1275
92242W        W35180  11.308  14.499   5.928 -0.2233  0.2001 -0.1875
92243W        W35181  12.976  15.239   5.783 -0.2825  0.3258 -0.1899
92244W        W35182  10.246  15.671   4.565  0.2359  0.0517  0.0852
92245W        W35183  14.273  15.548   5.570 -0.1554 -0.0472  0.2293
92246W        W35184  11.411  14.463   5.466  0.1042  0.0945 -0.0080
92247W        W35185  10.974  16.804   5.262 -0.2480 -0.1002 -0.1730
92248W        W35186  13.796  15.644   5.658 -0.1002 -0.1268  0.0112
92249W        W35187  13.698  16.548   3.856  0.2871  0.2782 -0.3079
92250W        W35188  14.517  17.485   7.572  0.3592  0.1449 -0.2296
92251W        W35189  13.158  19.051   4.734  0.3276  0.0432 -0.0311
92252W        W35190  10.910  14.532   6.251 -0.2031  0.1519 -0.0189
92253W        W35191  10.046  15.253   4.317 -0.2480  0.1766  0.0658
92254W        W35192  10.745  18.493   5.243  0.2663  0.1542 -0.2100
92255W        W35193  12.024  17.959   5.406 -0.4279 -0.1239  0.0392
92256W        W35194  12.382  15.616   2.713  0.0525 -0.0931  0.0089
92257W        W35195  13.909  18.171   4.965 -0.0727 -0.2037 -0.0762
92258W        W35196  12.822  16.896   5.131 -0.2364 -0.1339 -0.3413
92259W        W35197  11.423  16.842   5.632 -0.1432 -0.0432 -0.3358
92260W        W35198  13.090  14.777   5.712 -0.1287 -0.1180 -0.0978
92261W        W35199  13.592  15.063   4.089 -0.1422 -0.0709 -0.0691
92262W        W35200  12.305  16.207   5.063  0.1123  0.0652 -0.2786
92263W        W35201  11.986  14.633   4.149 -0.0510  0.1955  0.4050
92264W        W35202  11.798  18.835   4.812  0.0779 -0.0874  0.0447
92265W        W35203  11.789  18.071   3.354  0.0367  0.0254  0.1849
92266W        W35204  11.076  16.504   5.730  0.1058 -0.0643  0.2205
92267W        W35205  11.984  18.379   4.873  0.0091 -0.4166 -0.4019
92268W        W35206  13.814  14.784   5.344  0.0496  0.2012  0.2759
92269W        W35207  12.015  15.718   8.331 -0.2639 -0.3304  0.1796
92270W        W35208  13.622  15.895   7.578  0.0093 -0.1910 -0.1938
92271W        W35209  10.238  16.684   5.318  0.0700  0.3338 -0.2364
92272W        W35210  13.302  17.581   6.518 -0.3018 -0.2772  0.0002
92273W        W35211  12.032  14.088   4.069  0.0233  0.5043  0.0732
92274W        W35212  13.997  15.891   3.186  0.0404  0.0136  0.3199
92275W        W35213  12.664  16.521   6.445 -0.0322 -0.1044  0.1966
92276W        W35214  12.776  16.710   3.858  0.0263  0.0779 -0.1009
92277W        W35215  12.246  15.617   3.716 -0.1174 -0.2329 -0.0032
92278W        W35216  12.248  15.132   2.995  0.1601  0.2875  0.1155
92279W        W35217  11.965  15.821   6.656 -0.1307 -0.1524 -0.2687
92280W        W35218  12.368  17.557   5.411  0.0545  0.0388 -0.0745
92281W        W35219  13.428  15.833   5.408  0.1856  0.0034  0.2365
92282W        W35220  12.910  15.776   2.781 -0.1030  0.1296  0.2111
92283W        W35221  13.152  18.229   4.347  0.2986  0.2052 -0.2666
92284W        W35222  11.173  18.483   6.706  0.2750  0.0085 -0.2668
92285W        W35223  12.740  16.681   8.512 -0.2122  0.2640  0.0674
92286W        W35224  13.244  18.309   5.149 -0.0905 -0.1664 -0.0814
92287W        W35225  11.562  13.497   4.520  0.0970  0.0861 -0.1243
92288W        W35226  12.139  16.228   3.683 -0.2742  0.0095  0.0013
92289W        W35227  12.884  15.107   3.483  0.0170  0.0220 -0.0817
92290W        W35228  12.203  17.555   4.172 -0.1609  0.1045 -0.4316
92291W        W35229  14.135  16.015   5.508  0.1165  0.0363 -0.0979
92292W        W35230  11.421  15.792   3.882 -0.0382 -0.0436 -0.1391
92293W        W35231  13.054  15.473   5.321  0.1799  0.1019  0.2118
92294W        W35232  13.751  15.831   6.185  0.0006 -0.1266  0.0338
92295W        W35233  12.681  16.171   2.502 -0.0377 -0.1490  0.0614
92296W        W35234  13.006  16.173   6.601 -0.1350  0.0144  0.1860
92297W        W35235  11.623  16.303   3.892  0.1227 -0.1682  0.0528
92298W        W35236  11.733  16.037   7.510  0.1197  0.3017  0.0435
92299W        W35237  11.806  16.971   5.983  0.2366 -0.0300  0.3324
92300W        W35238  10.675  18.615   6.599 -0.4672  0.1963 -0.0377
92301W        W35239  13.457  17.240   5.854  0.0339 -0.2048  0.1405
92302W        W35240  12.717  15.385   3.921 -0.2047  0.1390 -0.1221
92303W        W35241  14.033  15.480   6.771  0.2373  0.0955  0.1572
92304W        W35242  14.077  14.649   2.123  0.3346  0.0266  0.0548
92305W        W35243  11.807  18.625   5.329 -0.3139 -0.1138 -0.2462
92306W        W35244  12.498  17.926   3.971  0.1067 -0.1512  0.3069
92307W        W35245  12.442  15.668   4.418  0.4313 -0.3729 -0.1760
92308W        W35246  13.176  17.624   5.539  0.0257  0.1145 -0.1009
92309W        W35247  12.114  16.740   3.856 -0.4722 -0.0881 -0.1623
92310W        W35248  12.734  16.454   5.451 -0.0615 -0.0224  0.2458
92311W        W35249  11.085  17.289   4.712 -0.0685  0.1323  0.5309
92312W        W35250  12.596  14.095   5.134  0.0679  0.1051  0.1480
92313W        W35251  10.571  17.511   5.651  0.1868 -0.0008  0.1737
92314W        W35252  11.932  16.462   4.724  0.0547  0.1494 -0.0374
92315W        W35253  11.322  16.212   4.647  0.1454 -0.2530 -0.1343
92316W        W35254  12.924  16.164   4.531 -0.1927 -0.1898  0.0297
92317W        W35255  13.602  14.593   3.981 -0.0090 -0.0485  0.2565
92318W        W35256  10.674  14.805   5.839  0.0258  0.1693  0.1062
92319W        W35257  13.451  15.226   5.574 -0.3025  0.1294 -0.0359
92320W        W35258  11.268  18.953   6.308 -0.1223  0.0778  0.1314
92321W        W35259  11.913  16.492   6.100 -0.1758  0.2165 -0.1631
92322W        W35260  13.201  14.947   2.282  0.1376 -0.0337  0.1687
92323W        W35261  13.669  17.351   5.378 -0.0642  0.1893 -0.0557
92324W        W35262  11.328  16.528   7.115  0.3834 -0.0050  0.5274
92325W        W35263  10.886  15.866   3.489 -0.0078  0.1619 -0.1211
92326W        W35264  14.639  16.558   7.388  0.1556  0.0751 -0.1358
92327W        W35265  11.508  17.615   4.734 -0.1993  0.4355  0.1062
92328W        W35266  10.823  17.469   5.153  0.1855  0.0007 -0.1989
92329W        W35267  12.834  18.546   5.346  0.2064  0.0235  0.0769
92330W        W35268  11.514  17.547   3.825 -0.3363 -0.2953 -0.1118
92331W        W35269  11.278  17.627   5.883 -0.1551  0.0190  0.2727
92332W        W35270  11.876  15.598   6.124 -0.0606 -0.0860  0.0175
92333W        W35271  13.300  16.045   6.128 -0.1144  0.0507  0.2015
92334W        W35272  11.817  15.037   4.368  0.1349  0.1462 -0.3389
92335W        W35273  12.464  16.848   4.655  0.1774 -0.0595 -0.0989
92336W        W35274  12.213  15.317   4.156  0.0842 -0.2917  0.0388
92337W        W35275  13.239  16.573   5.246 -0.1175 -0.0146  0.1366
92338W        W35276  13.170  15.646   6.352  0.1990  0.0326  0.0105
92339W        W35277  12.694  16.934   7.264 -0.1130  0.0910 -0.0555
92340W        W35278  12.850  13.942   4.420  0.2100  0.0738  0.3706
92341W        W35279  14.853  17.646   4.415 -0.0128 -0.2509  0.1253
92342W        W35280  12.739  16.430   7.460  0.1070 -0.4042  0.1958
92343W        W35281  10.942  17.564   3.764  0.2145  0.3445 -0.0548
92344W        W35282  10.324  17.086   6.301 -0.2201  0.0599  0.2047
92345W        W35283  12.672  17.636   5.003 -0.0548  0.2360  0.1264
92346W        W35284  12.162  14.811   5.588  0.0248 -0.3785  0.2295
92347W        W35285  11.472  16.634   5.106 -0.1213  0.1100  0.2327
92348W        W35286  11.677  17.560   5.235  0.1842 -0.2132 -0.2343
92349W        W35287  12.506  17.644   6.187  0.2342  0.0209  0.0765
92350W        W35288  14.312  15.118   2.822 -0.2064 -0.0471  0.0230
92351W        W35289  12.933  17.622   2.966  0.0959 -0.1643  0.0878
92352W        W35290  12.382  17.056   4.122 -0.1943  0.1566  0.0924
92353W        W35291  13.900  14.753   7.285 -0.4293  0.0875  0.0854
92354W        W35292  14.161  17.134   2.590  0.1127  0.0056  0.2756
92355W        W35293  14.153  14.166   7.902  0.1116  0.2445  0.1194
92356W        W35294  11.763  15.522   4.269 -0.0207 -0.1446 -0.1951
92357W        W35295  14.340  16.421   5.868  0.0796 -0.2828 -0.0768
92358W        W35296   9.661  14.141   6.185 -0.2031  0.1771  0.1122
92359W        W35297  13.314  19.064   5.704  0.0426  0.0177 -0.2113
92360W        W35298  11.921  16.475   7.703  0.0038  0.0931  0.1632
92361W        W35299  11.520  16.294   5.607 -0.2535  0.0367 -0.0863
92362W        W35300  12.524  13.324   3.624  0.0784 -0.0860 -0.1809
92363W        W35301  11.420  15.438   6.222  0.0406 -0.0577  0.3005
92364W        W35302  12.990  16.879   5.637  0.0222  0.0925 -0.4280
92365W        W35303  13.601  17.670   4.239 -0.1434  0.0222  0.0032
92366W        W35304  13.557  15.719   3.407 -0.0211 -0.2168 -0.0540
92367W        W35305  12.963  17.278   6.012 -0.5382  0.2360 -0.1051
92368W        W35306  12.927  15.691   4.284 -0.1429  0.0440 -0.0143
92369W        W35307  11.813  17.288   4.135 -0.1003 -0.0264 -0.2244
92370W        W35308  12.353  17.186   5.054  0.1316 -0.2272  0.1831
92371W        W35309  11.858  14.103   5.524 -0.1162  0.0758 -0.1817
92372W        W35310  12.697  15.245   4.388  0.1651  0.1284 -0.1475
92373W        W35311  12.427  14.630   5.014 -0.2088  0.1102  0.2156
92374W        W35312  12.547  15.105   5.942  0.0541  0.2640  0.1673
92375W        W35313  13.934  16.712   5.897  0.3089 -0.0494  0.4587
92376W        W35314  13.119  16.325   7.790  0.0653  0.0446 -0.0567
92377W        W35315  11.867  13.957   8.509 -0.0336 -0.1762 -0.1242
92378W        W35316  14.086  19.563   5.765  0.2003  0.2277  0.0734
92379W        W35317  14.525  16.665   3.049  0.0799 -0.0100  0.0666
92380W        W35318  13.039  14.302   7.128  0.1677 -0.2277 -0.0251
92381W        W35319  13.107  15.693   3.807 -0.0028 -0.0182 -0.0718
92382W        W35320  13.563  17.513   4.715  0.0752 -0.2553 -0.1057
92383W        W35321  11.265  14.810   5.020  0.0597  0.2668  0.2181
92384W        W35322  12.673  15.625   5.940  0.3163  0.2994 -0.0996
92385W        W35323  13.027  16.231   2.919  0.0488  0.3688 -0.1459
92386W        W35324  14.226  15.483   6.066  0.2061 -0.2492 -0.2006
92387W        W35325  12.074  18.224   3.867 -0.2601  0.2567  0.1453
92388W        W35326  12.746  16.041   6.213 -0.1685 -0.2293  0.1563
92389W        W35327  14.946  15.908   2.596 -0.0796 -0.2694 -0.2154
92390W        W35328  11.141  16.302   5.248  0.1165  0.0036  0.0010
92391W        W35329  11.665  18.387   6.798  0.1915 -0.2444 -0.1593
92392W        W35330  12.520  16.125   2.930  0.1693  0.1660 -0.0646
92393W        W35331  12.275  16.733   5.178  0.4553  0.1785  0.1244
92394W        W35332  12.099  17.623   5.790 -0.1466 -0.1237  0.0228
92395W        W35333  12.810  15.960   7.666 -0.0642  0.0512 -0.3068
92396W        W35334  12.800  14.396   2.867  0.2174 -0.0919 -0.3351
92397W        W35335  13.805  16.201   6.543 -0.2130  0.3274  0.0195
92398W        W35336  11.132  16.445   4.248 -0.1315 -0.0514  0.0061
92399W        W35337  12.382  15.073   3.496 -0.1235 -0.0439 -0.0825
92400W        W35338  11.534  18.397   6.322  0.0513 -0.1071 -0.0446
92401W        W35339  10.313  16.839   7.314 -0.2111 -0.1085  0.0113
92402W        W35340  11.441  16.625   6.032  0.0254 -0.1747  0.1070
92403W        W35341  12.997  15.094   4.884  0.1146 -0.1411  0.0205
92404W        W35342  13.360  15.332   3.597 -0.0338 -0.0394 -0.0607
92405W        W35343  11.742  16.006   5.946  0.0791 -0.1530  0.1246
92406W        W35344  14.771  16.717   5.655  0.2075 -0.0876  0.0972
92407W        W35345  11.209  16.594   7.615  0.1048 -0.0202  0.1004
92408W        W35346  12.391  18.130   5.054 -0.0369 -0.0583 -0.0518
92409W        W35347  15.612  17.100   7.215  0.2340 -0.0359  0.0002
92410W        W35348  13.118  16.482   4.166  0.2510 -0.3189  0.1890
92411W        W35349  11.064  17.209   5.626 -0.0706  0.0119  0.2344
92412W        W35350  11.655  15.060   5.798  0.1905 -0.1567 -0.2120
92413W        W35351  13.958  15.973   6.959 -0.0898  0.1722 -0.1769
92414W        W35352  12.465  16.234   5.868  0.1358 -0.3809 -0.0994
92415W        W35353  10.720  14.073   3.955  0.0447 -0.2025 -0.0301
92416W        W35354  11.754  17.558   3.336  0.0047 -0.2294  0.0606
92417W        W35355  11.764  17.528   8.522  0.1315 -0.3609  0.1226
92418W        W35356  11.686  16.185   5.151 -0.2364 -0.1683 -0.0360
92419W        W35357  12.161  17.659   4.969  0.1419  0.0209 -0.3063
92420W        W35358  13.430  18.006   4.760 -0.0628 -0.1989  0.4034
92421W        W35359  12.824  18.109   4.794 -0.0665  0.1088  0.0511
92422W        W35360  14.041  18.301   6.384 -0.1676 -0.1236  0.0009
92423W        W35361  12.021  16.352   4.186  0.0320  0.2005  0.2999
92424W        W35362  10.990  18.770   5.608 -0.1057 -0.2601 -0.0892
92425W        W35363  11.401  16.797   3.313  0.0469  0.3395  0.2205
92426W        W35364  12.540  17.798   4.425 -0.0524 -0.2097  0.0895
92427W        W35365  10.483  18.617   4.585 -0.3159  0.1336 -0.1545
92428W        W35366  14.144  17.297   6.633 -0.0860  0.0502 -0.1332
92429W        W35367  13.979  14.783   2.580  0.2090  0.4074 -0.2739
92430W        W35368  13.337  16.205   4.740 -0.2013 -0.0017  0.1192
92431W        W35369  14.873  15.836   3.475  0.2127 -0.0451 -0.3359
92432W        W35370  14.978  18.011   5.425  0.2865  0.0337  0.2353
92433W        W35371  13.060  16.209   7.119  0.3458  0.0066  0.0834
92434W        W35372  11.822  15.226   1.711 -0.0356 -0.1496 -0.0503
92435W        W35373  11.528  15.917   6.372 -0.1675 -0.0092  0.2378
92436W        W35374  14.198  15.895   6.507 -0.0890 -0.2552  0.4831
92437W        W35375  10.704  18.711   7.454 -0.0318 -0.2364  0.0560
92438W        W35376  14.373  18.289   3.108 -0.1227 -0.0624  0.0804
92439W        W35377  10.743  15.628   4.598  0.1156 -0.0075  0.1028
92440W        W35378  11.114  14.999   5.766  0.2386 -0.2131 -0.1071
92441W        W35379  13.210  13.569   4.119  0.5206 -0.0545 -0.0324
92442W        W35380  11.955  17.720   3.776 -0.0003 -0.2607 -0.1173
92443W        W35381  12.730  14.840   3.960  0.1100 -0.1111  0.2762
92444W        W35382  11.052  19.833   5.620  0.1094 -0.1260  0.1626
92445W        W35383  11.396  17.406   6.888 -0.0878  0.0670 -0.3800
92446W        W35384  13.097  19.652   5.705 -0.0648 -0.0650  0.1047
92447W        W35385  11.159  15.343   4.396  0.1897 -0.1701  0.1214
92448W        W35386  14.278  15.051   4.368  0.0421  0.1628  0.0634
92449W        W35387  10.704  15.313   5.616 -0.1498 -0.1635 -0.4224
92450W        W35388  13.857  13.817   5.557 -0.0287  0.2884 -0.1094
92451W        W35389  11.795  14.556   5.789  0.1116  0.0655  0.0202
92452W        W35390  13.881  16.101   4.094  0.0641 -0.2992 -0.0764
92453W        W35391  12.597  15.873   5.391 -0.1021  0.1927  0.0647
92454W        W35392  10.885  15.781   5.432  0.1506 -0.0229 -0.0218
92455W        W35393  12.278  16.777   3.165  0.3271  0.0209  0.0463
92456W        W35394  13.467  16.484   6.287  0.1213 -0.2445  0.0984
92457W        W35395  13.626  16.990   4.952  0.0645  0.0529 -0.1214
92458W        W35396  13.707  18.615   6.128  0.1468 -0.0170  0.2301
92459W        W35397  11.810  16.586   3.483  0.0040 -0.0801  0.0146
92460W        W35398  13.391  16.001   4.283 -0.0344 -0.2901 -0.0698
92461W        W35399  11.511  15.198   4.793 -0.3485 -0.1583  0.3268
92462W        W35400  13.417  15.921   6.850  0.0222 -0.2703  0.1074
92463W        W35401  15.966  17.459   6.559 -0.0342 -0.0144 -0.0425
92464W        W35402  10.379  15.227   4.676  0.0300  0.1434 -0.0464
92465W        W35403  11.926  17.948   4.663 -0.2181 -0.0455  0.1879
92466W        W35404  13.573  15.500   6.565 -0.0283 -0.2283 -0.1635
92467W        W35405  12.745  17.369   4.143 -0.2506  0.1391  0.0819
92468W        W35406  11.979  16.155   5.544 -0.1416 -0.0103  0.0231
92469W        W35407  12.355  16.723   5.899 -0.4211 -0.1897  0.1015
92470W        W35408  11.823  17.062   5.196  0.0038 -0.0273  0.1614
92471W        W35409  13.990  17.841   6.145 -0.3099  0.2231  0.1045
92472W        W35410  13.335  15.547   5.928  0.0246 -0.1362 -0.0119
92473W        W35411  12.287  13.964   4.498  0.1016 -0.1736  0.0138
92474W        W35412  12.300  14.382   5.443  0.0374 -0.0494  0.1191
92475W        W35413  10.610  17.866   4.448 -0.1018 -0.0148 -0.2591
92476W        W35414  13.692  16.231   5.673  0.0510  0.1322  0.1095
92477W        W35415  15.401  16.192   6.137  0.1248  0.0715 -0.0729
92478W        W35416  12.923  18.163   1.882 -0.6460 -0.1192  0.0522
92479W        W35417  14.813  13.661   7.061  0.0287 -0.0463  0.0055
92480W        W35418  11.617  17.883   5.676  0.2193  0.2230 -0.0117
92481W        W35419  12.786  17.335   6.495  0.1264  0.2286 -0.1088
92482W        W35420  12.348  16.412   1.916 -0.3389 -0.0001  0.1512
92483W        W35421  12.167  16.081   6.248 -0.2503 -0.0156 -0.1066
92484W        W35422  13.510  16.946   4.465 -0.0286 -0.3526  0.0876
92485W        W35423  12.016  17.242   3.661 -0.1481  0.0876  0.0419
92486W        W35424  12.331  18.522   5.354 -0.0609 -0.1013  0.1247
92487W        W35425  12.568  16.478   4.235 -0.1508  0.2004 -0.1519
92488W        W35426  14.112  18.404   4.561 -0.3781  0.4220  0.0060
92489W        W35427  11.708  14.708   4.727 -0.0608  0.1462 -0.0042
92490W        W35428  13.449  14.025   4.234  0.0241 -0.1149 -0.1212
92491W        W35429  12.363  13.616   5.130  0.0293  0.1407  0.2693
92492W        W35430  11.275  17.157   6.122  0.2938  0.1169 -0.2325
92493W        W35431  10.275  15.103   3.193  0.2750 -0.0501 -0.0414
92494W        W35432  10.607  16.515   5.044 -0.1668 -0.1940  0.3144
92495W        W35433  10.540  17.076   5.268 -0.0816 -0.0998 -0.0732
92496W        W35434  12.992  14.757   7.231 -0.2183 -0.2037 -0.0431
92497W        W35435  12.183  16.122   7.024 -0.2810  0.1265  0.0442
92498W        W35436  10.906  14.701   5.404 -0.1793 -0.2677  0.1835
92499W        W35437  11.562  14.282   5.009 -0.0289  0.0314  0.0871
92500W        W35438  13.022  17.243   4.774 -0.1238  0.3168 -0.2190
92501W        W35439  10.856  14.328   5.740 -0.3164 -0.1110 -0.2025
92502W        W35440  10.366  15.733   5.627  0.0863  0.1029  0.0476
92503W        W35441  12.804  17.338   5.445 -0.0421  0.2956  0.0812
92504W        W35442  14.501  18.081   4.364  0.1366  0.4625  0.0008
92505W        W35443  11.926  15.891   4.813  0.0302  0.0789 -0.0949
92506W        W35444  14.417  19.126   5.841 -0.2709  0.2816  0.0088
92507W        W35445  12.155  17.081   5.542  0.1336 -0.0359  0.0973
92508W        W35446  13.222  15.806   7.304  0.0131  0.2178 -0.3955
92509W        W35447  14.364  14.523   6.533 -0.0759  0.1515 -0.0038
92510W        W35448  11.237  15.725   2.804 -0.0270 -0.1833 -0.1068
92511W        W35449  12.523  15.375   5.436  0.0184  0.0277 -0.0840
92512W        W35450  12.927  16.500   5.966  0.1434 -0.2190  0.0568
92513W        W35451  12.933  19.154   4.109  0.1717  0.0696  0.2766
92514W        W35452  13.499  17.073   6.707  0.3859 -0.1068  0.3791
92515W        W35453  13.367  17.722   6.003 -0.4963  0.2085  0.2383
92516W        W35454  10.607  16.148   6.582 -0.1250  0.0419 -0.0848
92517W        W35455  14.033  16.489   5.402  0.2117 -0.0846  0.0137
92518W        W35456  12.589  16.399   6.983 -0.0003 -0.0168  0.0524
92519W        W35457  12.764  16.911   3.243  0.2085 -0.2542 -0.0276
92520W        W35458  13.644  16.869   5.432  0.3762 -0.2433  0.0956
92521W        W35459  13.214  17.343   4.202 -0.1432 -0.3371 -0.0142
92522W        W35460  11.729  14.059   7.361  0.0635  0.0438 -0.1305
92523W        W35461  10.626  16.673   6.501 -0.0118  0.0397  0.0126
92524W        W35462  13.783  16.142   5.110 -0.4352 -0.2209  0.3233
92525W        W35463  12.297  16.128   4.554  0.1694  0.0292 -0.0740
92526W        W35464  11.859  15.301   3.252 -0.1156  0.0500  0.1140
92527W        W35465  13.133  18.732   4.221 -0.0370  0.2325 -0.0739
92528W        W35466  11.575  15.156   5.308  0.1197 -0.1563  0.1847
92529W        W35467  12.574  17.353   4.591  0.0852  0.3511 -0.2739
92530W        W35468  13.264  15.160   6.186 -0.1703  0.0241  0.0633
92531W        W35469  13.231  17.142   5.300  0.0195  0.2149  0.1895
92532W        W35470  13.627  17.468   7.677 -0.0088 -0.4142 -0.1548
92533W        W35471  10.673  16.331   4.461  0.1836 -0.1537 -0.0161
92534W        W35472  14.487  16.894   3.560  0.1185  0.0408 -0.3074
92535W        W35473  13.250  19.152   6.641  0.0668 -0.1038  0.2522
92536W        W35474  13.809  18.626   6.908  0.1257 -0.0049 -0.0353
92537W        W35475  12.474  18.997   5.581 -0.4141 -0.0799 -0.2336
92538W        W35476  13.650  15.659   4.928  0.0765 -0.1131 -0.1474
92539W        W35477  11.293  14.038   5.712 -0.2032 -0.2470 -0.2413
92540W        W35478  11.153  16.758   4.726 -0.1065 -0.0404  0.2060
92541W        W35479  12.081  17.311   4.620  0.0171  0.1941  0.0496
92542W        W35480  13.660  14.953   6.442 -0.3051  0.0654 -0.0545
92543W        W35481  11.940  14.535   5.163 -0.2597 -0.0110 -0.1467
92544W        W35482  13.375  14.944   4.542  0.1687 -0.0338 -0.3822
92545W        W35483  11.655  17.976   7.073  0.2493 -0.0033 -0.0451
92546W        W35484  12.196  16.779   6.363 -0.0145  0.2768  0.0438
92547W        W35485  12.223  16.934   9.473  0.0097  0.1472  0.1724
92548W        W35486  12.384  15.009   8.862  0.0977  0.1271  0.0384
92549W        W35487  13.513  14.242   6.706  0.1498  0.1738 -0.0480
92550W        W35488  14.319  15.011   8.363 -0.0095 -0.0367  0.0088
92551W        W35489  11.738  15.508   8.656  0.1175  0.1986 -0.0126
92552W        W35490  13.395  18.536   6.637 -0.0282  0.3332 -0.0822
92553W        W35491  12.453  17.922   7.583 -0.0265 -0.0144 -0.1850
92554W        W35492  15.223  18.210   9.305 -0.0610  0.3064 -0.1601
92555W        W35493  13.182  16.421   8.335  0.0328  0.0318 -0.0295
92556W        W35494  11.071  14.319   9.627 -0.2453  0.0028 -0.2216
92557W        W35495  13.223  14.610   7.983 -0.0871  0.1551 -0.3314
92558W        W35496  10.974  14.667   8.201  0.5585 -0.0158  0.0662
92559W        W35497  16.780  16.613   9.008 -0.1573 -0.0733 -0.1414
92560W        W35498  11.426  16.754   8.510 -0.1000  0.3948  0.0312
92561W        W35499  12.298  15.473   8.764  0.1209 -0.0472 -0.1688
92562W        W35500  12.730  13.993   9.570  0.2945  0.0410 -0.5162
92563W        W35501  12.799  18.010   7.946  0.2321 -0.0651  0.2013
92564W        W35502  12.812  16.348   9.148  0.0899  0.1050  0.0002
92565W        W35503  13.024  16.604   6.804  0.1562  0.3045 -0.2488
92566W        W35504  10.486  15.194   6.569 -0.2256 -0.1980  0.2143
92567W        W35505  10.790  15.665   9.597  0.2021 -0.1519  0.0169
92568W        W35506  11.653  16.452   8.782  0.2819  0.1286  0.3175
92569W        W35507  14.147  15.594   8.876  0.0213 -0.0159  0.0682
92570W        W35508  12.906  15.827   9.717 -0.3514 -0.0417  0.4334
92571W        W35509   9.994  16.538   9.346 -0.3336  0.0307  0.0897
92572W        W35510  10.542  15.917  10.628 -0.0880  0.0352 -0.1594
92573W        W35511  11.749  14.557   9.465  0.0134 -0.0796  0.2871
92574W        W35512  10.930  17.913   9.235 -0.2248 -0.0432  0.2215
92575W        W35513  12.024  18.192   7.609  0.0802 -0.2765  0.0041
92576W        W35514  14.936  16.779   8.092  0.4530 -0.1773 -0.0646
92577W        W35515  11.082  16.419   6.701  0.0756 -0.3816 -0.1055
92578W        W35516  13.236  15.556   9.302  0.1872 -0.2802  0.0488
92579W        W35517  12.874  17.239   8.156 -0.0096  0.0770 -0.2595
92580W        W35518  13.720  18.123   6.783 -0.2555  0.1772  0.1370
92581W        W35519  12.771  17.249   8.647  0.0353  0.2174 -0.0475
92582W        W35520  10.497  16.055   9.638 -0.1331 -0.1979  0.1652
92583W        W35521  12.258  16.857   8.618  0.1842 -0.0649  0.2755
92584W        W35522  11.855  16.280   6.542 -0.4926  0.0058  0.0238
92585W        W35523  12.908  15.271   7.360  0.0602  0.0137 -0.2446
92586W        W35524  13.551  16.230   8.012 -0.2549 -0.2147  0.1565
92587W        W35525  13.031  14.709   8.548 -0.0587  0.1095  0.1635
92588W        W35526  11.349  17.013   9.688  0.1539  0.1351  0.3594
92589W        W35527  11.231  13.713   9.259 -0.1724  0.0485  0.0572
92590W        W35528  12.017  14.171   8.957  0.1153  0.1546  0.2470
92591W        W35529  12.437  16.383   8.786  0.0144 -0.0817  0.0213
92592W        W35530  13.817  15.696   9.641  0.1361 -0.2501  0.0244
92593W        W35531  10.653  15.693   9.128  0.1919  0.2110  0.0936
92594W        W35532  13.697  17.764   7.291 -0.1179  0.2495  0.2138
92595W        W35533  13.582  17.280   8.511  0.0274  0.0789 -0.2946
92596W        W35534  13.081  18.136   5.715 -0.0107 -0.0242 -0.2403
92597W        W35535  10.879  16.167   9.275 -0.0892  0.1478  0.3206
92598W        W35536  12.123  15.049   7.732 -0.0315 -0.1685 -0.0729
92599W        W35537  15.987  14.791  10.361  0.2266  0.1515  0.0220
92600W        W35538  12.623  16.615   9.739 -0.0182 -0.0632  0.0857
92601W        W35539  13.938  16.584  10.110 -0.2610 -0.1255  0.1017
92602W        W35540  12.648  16.911   6.763 -0.1537 -0.1655  0.2042
92603W        W35541  12.954  13.350   8.761  0.1986  0.0473 -0.0123
92604W        W35542  13.283  14.138   8.342 -0.2149  0.0582  0.0172
92605W        W35543  12.410  17.691   6.815  0.0338 -0.3369  0.0568
92606W        W35544  13.178  17.901   9.086 -0.1680 -0.2002  0.0893
92607W        W35545  14.850  17.552   9.217  0.0068  0.2665  0.1929
92608W        W35546  13.954  16.507   6.865 -0.0786 -0.2358  0.0478
92609W        W35547  12.982  16.298   9.619  0.2544 -0.2368  0.0715
92610W        W35548  11.717  18.451   7.332 -0.0158 -0.0080  0.1739
92611W        W35549  12.091  17.440   9.729 -0.1255  0.1632 -0.0385
92612W        W35550  11.733  16.895   7.477  0.1742  0.1232  0.0716
92613W        W35551  13.118  15.335   9.781  0.3800  0.1559 -0.2221
92614W        W35552  12.026  16.125   8.646 -0.0687  0.3186 -0.3074
92615W        W35553  13.691  14.379   8.541  0.0907  0.3637  0.2607
92616W        W35554  13.870  13.140   9.033 -0.1633  0.2638 -0.0496
92617W        W35555  11.841  16.429   7.172 -0.3113  0.1827  0.1417
92618W        W35556  13.389  17.755   8.286  0.0863 -0.0596 -0.0094
92619W        W35557  14.147  15.921   7.489  0.0296 -0.0506 -0.2374
92620W        W35558  13.523  17.004   7.576  0.0965 -0.1696  0.0282
92621W        W35559  12.497  13.628   9.324  0.0044  0.3812 -0.1798
92622W        W35560  11.584  15.995   8.343  0.1492  0.1083  0.0045
92623W        W35561  12.279  15.005   9.351 -0.0198 -0.0742  0.0959
92624W        W35562  12.480  15.197   4.896 -0.0533  0.5127  0.0820
92625W        W35563  13.322  15.821   8.728 -0.0801  0.2495  0.0001
92626W        W35564  10.821  16.646   9.006 -0.0311 -0.0066 -0.0999
92627W        W35565  12.113  17.313   7.525 -0.2194 -0.0903 -0.1932
92628W        W35566  13.133  18.312   7.609  0.0145 -0.1800 -0.0546
92629W        W35567  11.835  16.905   9.954  0.3185 -0.0271  0.0960
92630W        W35568  13.465  17.533   9.107 -0.1408 -0.1004  0.2345
92631W        W35569  13.259  16.282  11.023 -0.0420 -0.0329  0.2401
92632W        W35570  10.801  16.409   7.286 -0.0801 -0.0948 -0.2213
92633W        W35571  10.288  16.764  10.006  0.0540 -0.0370  0.0896
92634W        W35572  11.286  18.440   9.305  0.1837  0.1552  0.0889
92635W        W35573  12.893  14.085   8.013 -0.2242  0.1334  0.0358
92636W        W35574  14.416  18.635   9.574 -0.2205  0.1510  0.0017
92637W        W35575  14.383  16.279   7.793  0.1693  0.1949  0.0966
92638W        W35576  16.214  16.193   9.784  0.0997 -0.2491  0.0899
92639W        W35577  12.952  16.818   8.935  0.3142 -0.1460  0.1535
92640W        W35578  10.477  13.262   7.576 -0.1145 -0.2516  0.0431
92641W        W35579  13.308  17.227   9.918  0.0894 -0.1794  0.0478
92642W        W35580  12.505  18.105   6.468  0.0598  0.0051  0.1735
92643W        W35581   8.807  15.751   9.495  0.0033 -0.2331 -0.1501
92644W        W35582  13.161  17.530   8.690 -0.2697  0.0111  0.1096
92645W        W35583  14.201  13.676   7.823 -0.2208 -0.0635  0.1315
92646W        W35584  12.101  15.107   8.456 -0.2504 -0.0834 -0.0076
92647W        W35585  13.363  14.189   7.751 -0.1974 -0.0352  0.0091
92648W        W35586  13.638  13.020   6.806 -0.0828 -0.0842 -0.0576
92649W        W35587  14.224  17.201   7.902 -0.2341  0.0826  0.1352
92650W        W35588  11.882  15.107   6.220  0.3692  0.0696 -0.1646
92651W        W35589  14.358  14.409   7.271  0.1401  0.0278  0.2837
92652W        W35590  14.114  17.001   7.028 -0.0536  0.1628  0.0222
92653W        W35591  13.092  16.157  10.094  0.1155 -0.2559 -0.1483
92654W        W35592  12.307  15.380   8.113 -0.0040 -0.0766 -0.1563
92655W        W35593  15.393  17.628   7.828  0.0328  0.0360 -0.0331
92656W        W35594  11.106  16.668   9.439 -0.0969 -0.1679  0.1819
92657W        W35595  14.886  17.314   7.306  0.1121  0.0157 -0.2160
92658W        W35596  13.380  15.713  10.205 -0.1772  0.0712 -0.2767
92659W        W35597  12.624  15.241   6.972  0.0902 -0.1709  0.2227
92660W        W35598  12.370  15.783  11.023  0.2672 -0.1086 -0.0153
92661W        W35599  12.937  18.778   6.675  0.0305 -0.1191  0.2037
92662W        W35600  15.151  10.782   9.611 -0.2108  0.1722  0.1388
92663W        W35601  13.031  14.314   9.278  0.0640 -0.0946 -0.0836
92664W        W35602  13.632  16.121   8.495 -0.1864  0.2249 -0.4560
92665W        W35603  12.808  15.587   8.651 -0.3214  0.2481  0.0715
92666W        W35604  11.539  15.768   7.861  0.1089 -0.0388  0.2448
92667W        W35605  12.295  15.925   9.950  0.4326  0.0488 -0.0676
92668W        W35606  15.494  19.693   9.880 -0.2171  0.1938  0.1160
92669W        W35607  13.588  17.875   8.770  0.0929  0.0466 -0.0473
92670W        W35608  12.956  13.758   8.484  0.2570  0.0518 -0.1053
92671W        W35609  11.881  18.251   8.065 -0.0082 -0.0953  0.3744
92672W        W35610  11.264  17.110   7.694  0.1655 -0.4332  0.3452
92673W        W35611  13.600  12.007   9.265 -0.0704  0.1556  0.0036
92674W        W35612  11.863  20.117  10.155 -0.1225  0.2975 -0.0326
92675W        W35613  13.621  16.398   7.496 -0.0887  0.0206 -0.0796
92676W        W35614  15.213  19.108  10.324  0.1228 -0.1636 -0.1760
92677W        W35615  11.252  18.658   7.583  0.0818  0.0832  0.0177
92678W        W35616  15.216  15.539   9.264 -0.0651  0.1142 -0.0983
92679W        W35617  11.370  17.939   8.937  0.1731  0.1668 -0.0853
92680W        W35618  11.587  14.269   6.900  0.0427  0.0482  0.2296
92681W        W35619  11.578  15.911   8.874  0.1228  0.0537 -0.3019
92682W        W35620  14.941  12.940   8.249  0.0279 -0.0548  0.2089
92683W        W35621  14.280  16.812   6.619  0.2481  0.2737 -0.2613
92684W        W35622  12.152  13.677   9.664  0.0276  0.1722  0.0710
92685W        W35623  11.512  14.142   9.207 -0.1904 -0.2820 -0.2198
92686W        W35624   9.795  18.797   9.818  0.1692 -0.1547 -0.2550
92687W        W35625  13.762  15.270   8.093  0.4325  0.0742 -0.0817
92688W        W35626  11.919  15.114   8.908 -0.0791  0.2032 -0.1851
92689W        W35627  13.993  16.519   7.901  0.1678 -0.0884  0.0256
92690W        W35628  12.681  15.335   9.130 -0.0525  0.1280  0.2356
92691W        W35629  10.931  15.856  10.282  0.1759  0.1327  0.0955
92692W        W35630  12.118  17.805   8.356 -0.3599 -0.0310 -0.1559
92693W        W35631  11.554  17.102   8.845 -0.3494  0.0140  0.1321
92694W        W35632  12.232  16.770   7.360 -0.2047  0.0045  0.2696
92695W        W35633  14.040  17.222   9.622 -0.0158  0.0058  0.0830
92696W        W35634  11.810  15.581   9.176  0.1331 -0.1808  0.0728
92697W        W35635  12.098  14.349   8.246  0.1532  0.1105  0.0610
92698W        W35636  13.712  15.569   8.534 -0.0026  0.2750 -0.1337
92699W        W35637  13.252  16.093   9.121  0.0734  0.1371 -0.2304
92700W        W35638  13.539  17.484  10.338 -0.1919  0.0727  0.0822
92701W        W35639  14.596  14.828   9.392  0.2255 -0.0212  0.1606
92702W        W35640  14.572  17.712   8.007  0.1784 -0.2022  0.0582
92703W        W35641  11.771  16.445   8.262  0.1698 -0.1944 -0.3363
92704W        W35642  11.580  15.952   9.823  0.1741 -0.0611  0.1529
92705W        W35643  11.375  17.479   9.186  0.1217 -0.0255  0.1170
92706W        W35644  11.696  13.490   9.769 -0.1312  0.1321  0.0584
92707W        W35645  11.683  16.573   9.476  0.0255 -0.1334 -0.1615
92708W        W35646  11.133  17.875   6.852 -0.1707 -0.1694 -0.0763
92709W        W35647  10.758  16.183   8.663  0.1323  0.1620  0.0961
92710W        W35648  12.795  15.587   8.028  0.0585 -0.1216  0.3056
92711W        W35649  13.594  16.658   8.374  0.3305 -0.0721 -0.0095
92712W        W35650  11.987  15.543   7.709 -0.0907 -0.1643 -0.1254
92713W        W35651  13.642  15.294   7.582  0.1692  0.0927 -0.0387
92714W        W35652  15.304  14.122   9.381 -0.0957 -0.0889 -0.1743
92715W        W35653  13.710  16.349   9.127 -0.1417  0.1256 -0.3698
92716W        W35654  15.384  15.291   9.629 -0.1747 -0.2273 -0.3115
92717W        W35655  11.727  15.299   8.134 -0.0745  0.0614 -0.0569
92718W        W35656  11.075  17.098   9.241 -0.1221  0.0832  0.0880
92719W        W35657  14.853  16.932   9.506  0.3882 -0.2745  0.0206
92720W        W35658  13.169  17.459   7.345  0.0918  0.1713  0.0741
92721W        W35659  13.720  14.737   8.898  0.0787 -0.0662  0.0467
92722W        W35660  11.908  15.441   9.865 -0.1514  0.2588 -0.0893
92723W        W35661  12.875  16.739   8.007 -0.2797  0.0107 -0.1882
92724W        W35662  13.136  15.928   8.231  0.1130 -0.0676  0.0900
92725W        W35663  12.003  16.710   9.017 -0.1900  0.2716 -0.0190
92726W        W35664  14.249  14.469   8.574  0.3714 -0.2270 -0.3360
92727W        W35665  14.399  13.486   9.366  0.1263 -0.0105 -0.0717
92728W        W35666  12.314  18.049   8.746 -0.0526 -0.0825  0.0695
92729W        W35667  14.414  15.736   6.962 -0.0471 -0.0093  0.0697
92730W        W35668  14.692  12.590   9.289  0.1357 -0.2304 -0.0383
92731W        W35669  13.635  15.576   7.081  0.2483  0.1963 -0.0051
92732W        W35670  13.782  15.068   6.908 -0.0870  0.0465 -0.1555
92733W        W35671   9.872  15.374   9.995 -0.0788 -0.3159  0.2489
92734W        W35672  12.260  14.512   7.748 -0.0139  0.1575 -0.0689
92735W        W35673  13.447  18.090   6.359  0.2345  0.1787 -0.0895
92736W        W35674  13.857  17.422   8.885  0.2296 -0.0180 -0.0816
92737W        W35675  12.689  16.320   8.133 -0.1886 -0.4686 -0.1832
92738W        W35676  11.141  14.708   9.337  0.1000  0.2804 -0.0251
92739W        W35677  11.792  15.097   7.112  0.2160  0.3017  0.2507
92740W        W35678  12.718  17.531   7.645  0.2475 -0.1210 -0.1941
92741W        W35679  10.112  15.078  10.337 -0.2821  0.0643  0.1146
92742W        W35680  13.652  13.864   8.526  0.0544 -0.0786  0.2644
92743W        W35681  11.777  17.408   7.982 -0.3124 -0.1755 -0.0585
92744W        W35682  13.278  13.463   9.599  0.1150 -0.0568 -0.1760
92745W        W35683  12.171  19.906   9.185 -0.1364  0.0165  0.0605
92746W        W35684  11.276  18.029   8.398  0.0741 -0.3523 -0.1275
92747W        W35685  12.478  16.026   9.487 -0.0128 -0.0820  0.1056
92748W        W35686  14.546  16.068   8.508  0.0384  0.0049  0.0781
92749W        W35687  12.590  17.401   9.454 -0.0385 -0.2421 -0.0294
92750W        W35688  11.678  15.129   9.367 -0.0679 -0.2486  0.1047
92751W        W35689  13.353  15.960   9.591 -0.0952  0.3876 -0.3009
92752W        W35690  11.803  18.222   8.547  0.2456  0.2014 -0.2965
92753W        W35691  12.331  17.449   8.073  0.0965  0.2022  0.2947
92754W        W35692  12.742  14.868   9.682 -0.0112  0.1310  0.2811
92755W        W35693  12.417  16.984   8.171 -0.1739  0.0173 -0.0612
92756W        W35694   8.026  18.026   9.415  0.2565  0.5225  0.1577
92757W        W35695  11.218  18.845   9.011  0.0254 -0.0390 -0.2294
92758W        W35696  13.903  16.965   6.317  0.0008  0.1642 -0.0206
92759W        W35697  14.640  17.212   6.491  0.2083  0.3279  0.0969
92760W        W35698  12.060  17.801   7.877 -0.1876 -0.0094  0.1929
92761W        W35699  13.075  15.077   8.107 -0.1377 -0.1034  0.0789
92762W        W35700  10.503  16.085  10.138 -0.2029  0.0760  0.1254
92763W        W35701  11.312  17.605   7.907  0.1092 -0.0293  0.0719
92764W        W35702  13.727  18.167   5.795  0.0852  0.0159 -0.2454
92765W        W35703  10.521  16.572   9.421  0.1252 -0.2220  0.2564
92766W        W35704  15.051  14.511   8.082 -0.1132  0.3107  0.0074
92767W        W35705  14.470  13.977   8.673  0.2300 -0.1731  0.0854
92768W        W35706  13.396  14.688   6.870 -0.3518  0.3652 -0.1471
92769W        W35707  14.037  16.039   8.764 -0.1480 -0.0598 -0.1598
92770W        W35708  13.017  15.132   8.805  0.0493  0.1791  0.1960
92771W        W35709  14.713  18.312   6.854  0.1037  0.0138 -0.2672
92772W        W35710  12.227  16.388   8.294 -0.1032 -0.1440 -0.1821
92773W        W35711  12.756  15.835   9.069 -0.1927 -0.2311  0.0991
92774W        W35712  13.451  16.869  10.983 -0.2891 -0.1487 -0.1947
92775W        W35713  12.207  16.649   6.867 -0.2415 -0.3023  0.2962
92776W        W35714  13.773  14.355   9.251  0.1695  0.0371 -0.0079
92777W        W35715  11.991  17.795   7.361 -0.0986 -0.1065 -0.3913
92778W        W35716  11.643  16.644  10.455 -0.0996 -0.3301 -0.2237
92779W        W35717  11.204  19.962   9.556  0.0790 -0.1426  0.2563
92780W        W35718  11.324  15.241   7.118  0.2852  0.4365  0.0761
92781W        W35719  13.577  15.704   8.087  0.0105 -0.0704  0.4301
92782W        W35720  14.430  16.978   8.919  0.0018 -0.0459  0.1320
92783W        W35721  12.283  17.383   8.636  0.1747  0.2338  0.0072
92784W        W35722  14.067  16.399   8.395 -0.2298  0.3964  0.2511
92785W        W35723  12.310  15.083   9.932 -0.0438 -0.2352  0.4527
92786W        W35724  14.291  18.211   9.862  0.0537  0.1663 -0.0584
92787W        W35725  13.427  14.555   7.395  0.2441  0.2385 -0.2936
92788W        W35726  11.452  13.980   8.189  0.2139  0.1287  0.2474
92789W        W35727  12.060  14.637   9.084 -0.0930 -0.0260  0.1789
92790W        W35728  13.899  15.108   8.627  0.0818  0.0902  0.2715
92791W        W35729  10.790  17.026   9.722 -0.1489  0.0676  0.0970
92792W        W35730  14.122  15.939   9.349  0.0926  0.1628 -0.1910
92793W        W35731  13.362  13.637   8.223  0.1635  0.2050  0.0804
92794W        W35732  13.978  17.205   5.838 -0.0907  0.3317 -0.2144
92795W        W35733  14.209  13.027   9.547 -0.2256 -0.0197  0.0807
92796W        W35734  12.934  17.849   6.215  0.1331 -0.0646  0.1315
92797W        W35735  13.343  17.285   8.078  0.0037  0.1391 -0.2375
92798W        W35736  13.201  17.741   7.780  0.0073 -0.1479  0.3387
92799W        W35737  10.178  15.518   9.328 -0.1868  0.4114 -0.0699
92800W        W35738  14.538  16.571   8.599 -0.1339  0.1635 -0.1491
92801W        W35739  13.418  18.404   8.853  0.0387  0.0478  0.0580
92802W        W35740  12.626  14.692   9.144 -0.1913 -0.0748 -0.2351
92803W        W35741  11.070  13.808   9.883 -0.1877 -0.1047 -0.0300
92804W        W35742  11.682  18.995   9.265  0.2236 -0.0812  0.2577
92805W        W35743  13.678  12.500   9.750 -0.1872 -0.1013 -0.0200
92806W        W35744  13.105  17.064   7.047 -0.0721 -0.0829  0.1720
92807W        W35745  11.782  18.504   9.425 -0.2835 -0.0476  0.0983
92808W        W35746  11.749  17.201   6.444 -0.0948 -0.1013  0.0222
92809W        W35747  12.320  15.521   9.578  0.1662 -0.0501  0.0565
92810W        W35748  12.917  17.755   6.740  0.4666  0.3287  0.0718
92811W        W35749  15.367  17.353   9.038 -0.1003 -0.0950 -0.2353
92812W        W35750  11.943  16.048   7.959  0.1439  0.1840  0.3852
92813W        W35751  14.876  17.969   8.866 -0.3441 -0.0598  0.1334
92814W        W35752  11.553  15.233   7.594  0.0964  0.0088  0.0030
92815W        W35753  13.298  13.271   7.732 -0.4061 -0.0792  0.3199
92816W        W35754  14.904  13.599   9.463  0.0551  0.0869 -0.2630
92817W        W35755  12.005  16.947   7.847  0.1466 -0.0303  0.1348
92818W        W35756  12.399  16.570   7.844  0.1587  0.1351 -0.1474
92819W        W35757  12.858  16.971   9.459 -0.0095 -0.1965  0.1406
92820W        W35758  10.764  16.764   8.446 -0.0900  0.1560 -0.3997
92821W        W35759  11.468  16.253   7.919  0.0427  0.0527 -0.1665
92822W        W35760  11.260  13.903   6.923  0.2952  0.2660  0.0522
92823W        W35761  15.207  17.808   6.646 -0.1171 -0.1685 -0.1307
92824W        W35762  12.056  14.126   9.461 -0.0300  0.0342  0.0567
92825W        W35763  11.511  14.290   8.698  0.3928  0.0722  0.1382
92826W        W35764  14.159  16.475   7.403 -0.2636  0.0132  0.2002
92827W        W35765  13.692  17.428   6.241  0.1330 -0.1159  0.3615
92828W        W35766  12.316  15.597   6.936 -0.0728  0.0452  0.0145
92829W        W35767  11.228  17.019   7.188 -0.2532 -0.1670 -0.0200
92830W        W35768  11.393  13.154   7.135 -0.0347 -0.1056  0.0800
92831W        W35769  14.191  16.548   8.992  0.0149 -0.1606 -0.1805
92832W        W35770  13.464  16.944   8.916 -0.1179  0.0815  0.1605
92833W        W35771  13.759  17.638   6.786 -0.0660 -0.4689 -0.1224
92834W        W35772  10.180  14.546   8.806 -0.1352  0.2008 -0.0197
92835W        W35773  12.727  17.470   7.178 -0.1587 -0.1824 -0.0038
92836W        W35774  14.998  16.841   7.596 -0.0573  0.0575  0.1166
92837W        W35775  14.918  14.473   9.553 -0.0416  0.0522  0.1085
92838W        W35776  14.278  17.404   8.346  0.2982 -0.1144 -0.0410
92839W        W35777  15.740  19.296   9.952  0.2473  0.0710 -0.4196
92840W        W35778  12.616  15.137   8.465  0.0277 -0.0099 -0.1821
92841W        W35779  13.715  14.327   8.074  0.0102  0.1339 -0.0558
92842W        W35780  12.902  17.911   7.263 -0.1380 -0.0547 -0.4299
92843W        W35781  13.268  16.601   9.345 -0.2187 -0.0781  0.1966
92844W        W35782  12.948  16.135   8.710 -0.0274 -0.1797  0.0030
92845W        W35783  12.643  17.634   8.976  0.0395 -0.0626  0.0066
92846W        W35784  12.652  15.938   7.210  0.0643 -0.1446  0.0246
92847W        W35785  14.445  16.800   7.809 -0.0578 -0.3087  0.1051
92848W        W35786  12.909  16.938   9.951  0.0117 -0.2875  0.1032
92849W        W35787  11.445  16.508   9.920 -0.2189 -0.1074  0.1603
92850W        W35788  13.845  16.767   9.560  0.3594  0.1286 -0.3754
92851W        W35789  11.578  13.982   9.706  0.3339 -0.1422  0.0150
92852W        W35790  12.254  15.878   9.115 -0.0938  0.3731 -0.0599
92853W        W35791  12.980  17.280   9.121 -0.2051  0.3074  0.0697
92854W        W35792  11.880  16.175   9.143  0.1608 -0.0841 -0.0628
92855W        W35793   9.954  14.648   9.757 -0.3475  0.0825  0.1805
92856W        W35794  13.273  15.475   8.369 -0.3020  0.1588  0.3665
92857W        W35795  11.233  19.303   9.195  0.0415  0.1737 -0.1894
92858W        W35796  12.470  17.832   9.827 -0.1214  0.1631 -0.1462
92859W        W35797  13.199  21.945   0.321  0.0049 -0.1130  0.0746
92860W        W35798  12.178  19.285  31.664 -0.1807 -0.1894  0.0811
92861W        W35799  14.294  19.410  31.145 -0.3548 -0.0167  0.3465
92862W        W35800  12.229  20.250   0.225 -0.1091  0.0724  0.1733
92863W        W35801  11.278  18.293   0.834  0.1889  0.0598  0.1006
92864W        W35802  14.098  21.511   0.227 -0.0313  0.3791  0.2999
92865W        W35803  12.405  18.969   3.393 -0.0448  0.1351 -0.1152
92866W        W35804  12.875  20.695   1.519 -0.1783  0.3714 -0.1348
92867W        W35805  14.072  20.653   0.479 -0.0100 -0.1253  0.0689
92868W        W35806  14.382  19.203  30.594 -0.0972 -0.0193  0.2864
92869W        W35807  12.735  20.207   0.401  0.0558  0.1234  0.0504
92870W        W35808  13.439  21.698   1.548 -0.0106  0.2003  0.0590
92871W        W35809  14.048  17.694  31.465  0.1609 -0.1929  0.6201
92872W        W35810  11.411  19.232   2.131  0.1217 -0.0719  0.1088
92873W        W35811  14.135  19.401   1.500 -0.1735 -0.0168  0.0336
92874W        W35812  11.961  20.765  31.816 -0.0450  0.0200 -0.1659
92875W        W35813  12.375  18.766   2.032  0.0876  0.0891  0.1538
92876W        W35814  12.434  19.583   1.103  0.2568 -0.3141 -0.2323
92877W        W35815  13.393  20.983   0.717 -0.1104 -0.4036  0.0445
92878W        W35816  11.376  18.606   1.243 -0.3738 -0.0368  0.0568
92879W        W35817  13.539  18.043   2.940  0.1683  0.1454  0.2371
92880W        W35818  14.006  20.992  30.259 -0.2236  0.1657 -0.2871
92881W        W35819  12.514  18.160  31.178 -0.2405 -0.0601  0.1421
92882W        W35820  11.205  20.098   0.856  0.1837 -0.0728 -0.2744
92883W        W35821  11.960  20.276   0.661 -0.1017  0.0657  0.0541
92884W        W35822  13.330  19.620   1.150 -0.0722  0.3613  0.1470
92885W        W35823  14.205  19.099   0.012  0.1363 -0.3570  0.4441
92886W        W35824  12.803  20.633   0.957 -0.0359  0.0870  0.0324
92887W        W35825  12.523  22.121   0.887 -0.1386 -0.2404 -0.3776
92888W        W35826  12.941  18.745   2.954 -0.0541  0.1901 -0.3558
92889W        W35827  12.660  19.758  31.616  0.1258  0.1041 -0.2546
92890W        W35828  10.990  21.082   1.090  0.1802 -0.1172  0.0072
92891W        W35829  11.570  22.255   0.590  0.2567  0.1992  0.2181
92892W        W35830  13.289  21.887  31.598  0.2043 -0.2127 -0.0201
92893W        W35831  13.055  20.683   2.275 -0.0642 -0.0639  0.1576
92894W        W35832  11.215  22.176   2.695 -0.1941  0.2963 -0.2124
92895W        W35833  12.310  21.086  31.225  0.2318  0.1062 -0.0719
92896W        W35834  13.550  21.774   2.995  0.2551 -0.2386  0.0379
92897W        W35835  12.393  22.644   1.187  0.0594 -0.1019 -0.3126
92898W        W35836  12.497  21.361   2.784 -0.1086 -0.2044 -0.0720
92899W        W35837  13.557  20.771   0.331 -0.3001  0.2020  0.0818
92900W        W35838  13.389  20.306  31.423  0.0761  0.0123 -0.0637
92901W        W35839  12.816  19.595   1.956  0.0814 -0.0449  0.1838
92902W        W35840  13.706  19.581   2.884 -0.0997 -0.3575  0.0850
92903W        W35841  12.045  21.056   1.193  0.1321  0.1334  0.3177
92904W        W35842  13.676  19.921   4.183  0.4464 -0.2999  0.1467
92905W        W35843  13.665  22.051  31.937  0.0534 -0.2937  0.0731
92906W        W35844  13.899  19.216  30.791 -0.0783  0.2106  0.0894
92907W        W35845  14.097  18.078  29.952  0.1998 -0.0077 -0.0899
92908W        W35846  15.444  19.290  31.628 -0.3258 -0.1968  0.0677
92909W        W35847  14.273  17.016  31.500 -0.0686 -0.4593 -0.2387
92910W        W35848  13.871  20.663   0.979  0.2611  0.1114 -0.0632
92911W        W35849  12.809  19.427   1.384 -0.2903 -0.1641  0.3044
92912W        W35850  14.934  19.958   1.712 -0.3187 -0.0580  0.1629
92913W        W35851  14.312  18.919  30.998 -0.0583 -0.1856  0.0055
92914W        W35852  13.538  19.691   2.120 -0.1205 -0.0215 -0.1342
92915W        W35853  12.351  21.190  31.889  0.0818  0.1220 -0.1418
92916W        W35854  11.958  19.442   0.391  0.1540  0.0292 -0.1935
92917W        W35855  13.703  20.667  29.266 -0.2697 -0.0216 -0.1904
92918W        W35856  14.445  20.390   1.045 -0.0158 -0.0389 -0.4696
92919W        W35857  14.302  21.296  29.918 -0.0521 -0.1565  0.0977
92920W        W35858  11.579  20.527  31.630  0.2759  0.0331  0.1587
92921W        W35859  11.427  20.660   1.768 -0.0195  0.1620  0.1555
92922W        W35860  11.021  21.318   2.221  0.0082  0.1978  0.1633
92923W        W35861  12.073  16.908  31.460 -0.0298  0.1459  0.1511
92924W        W35862  14.203  19.328   2.902  0.0214  0.0666 -0.0079
92925W        W35863  12.136  22.558   3.565 -0.0256 -0.0781 -0.2060
92926W        W35864  15.427  18.369  29.893  0.0068 -0.3832 -0.1205
92927W        W35865  12.070  20.890   0.280  0.1023  0.0698 -0.0661
92928W        W35866  15.094  20.295   2.967 -0.1723 -0.0251 -0.0536
92929W        W35867  13.214  19.110  31.583  0.0747  0.0720 -0.0421
92930W        W35868  12.810  18.595   1.591  0.2945 -0.0382  0.0833
92931W        W35869  14.009  18.672   2.877  0.0458 -0.0843  0.1098
92932W        W35870  13.068  18.749   0.591  0.0122 -0.0991  0.2636
92933W        W35871  13.304  19.105  29.772  0.4118 -0.0300 -0.0500
92934W        W35872  13.860  20.610   1.751 -0.1408 -0.0208  0.0453
92935W        W35873  14.087  19.698  30.800  0.0312 -0.0128 -0.3278
92936W        W35874  12.241  21.805   1.241 -0.1432 -0.0399  0.2915
92937W        W35875  12.152  19.480   1.491  0.2864  0.0192 -0.2308
92938W        W35876  12.872  21.003   1.984 -0.0525 -0.1271  0.0655
92939W        W35877  11.910  22.011   0.242 -0.0840 -0.2297  0.2422
92940W        W35878  11.765  21.512   0.421  0.0408  0.3393  0.1713
92941W        W35879  11.394  21.362  31.343  0.0882  0.0125 -0.0388
92942W        W35880  11.943  19.448   0.998  0.1329 -0.2016  0.0036
92943W        W35881  12.872  21.140   0.127 -0.0026 -0.1298 -0.0734
92944W        W35882  13.636  18.455  31.447 -0.2830 -0.0323  0.5051
92945W        W35883  11.355  18.262   3.197  0.0369 -0.2799 -0.0648
92946W        W35884  14.653  18.480   0.580  0.0267 -0.2121  0.0891
92947W        W35885  11.432  20.520   0.600  0.1041 -0.2083  0.2935
92948W        W35886  13.597  21.619   0.231 -0.2361 -0.0495 -0.0838
92949W        W35887  15.454  19.089  31.096 -0.2246 -0.1097 -0.3400
92950W        W35888  12.620  21.930  30.262 -0.0082  0.3671  0.0520
92951W        W35889  11.841  20.513   1.992  0.0108  0.1150 -0.0622
92952W        W35890  12.269  19.050   1.092  0.0720 -0.0732 -0.1765
92953W        W35891  11.840  16.895   2.468 -0.3493  0.0884 -0.2952
92954W        W35892  12.816  19.076   1.818  0.0484 -0.1054 -0.4421
92955W        W35893  12.322  18.129   0.995 -0.0959  0.0334  0.2363
92956W        W35894  12.568  17.779   0.636  0.1526 -0.4891  0.4660
92957W        W35895  12.892  19.307   0.929 -0.2506  0.1025  0.4264
92958W        W35896  12.854  19.181   0.421  0.3128 -0.0744 -0.2717
92959W        W35897  11.239  19.724  31.803  0.1409 -0.0492  0.1353
92960W        W35898  13.574  17.892   0.620  0.0501  0.2787  0.1011
92961W        W35899  12.739  21.733   1.358 -0.4472  0.0706  0.0928
92962W        W35900  14.731  21.129   2.766  0.1351  0.0679 -0.0975
92963W        W35901  13.159  20.880   1.178  0.1608  0.2548 -0.1861
92964W        W35902  11.095  19.419   2.557 -0.1251  0.0340  0.1140
92965W        W35903  13.387  18.461  31.004 -0.1985 -0.0643 -0.1046
92966W        W35904  10.946  21.829   0.514  0.0545 -0.1406  0.1101
92967W        W35905  13.530  21.982   0.667  0.1511  0.0748  0.0123
92968W        W35906  13.500  18.272  29.687 -0.2928  0.4910  0.0015
92969W        W35907  14.298  20.908  31.357 -0.3263 -0.2209 -0.3215
92970W        W35908  14.755  19.178  30.872 -0.0065 -0.1410 -0.1631
92971W        W35909  11.925  21.402   2.034  0.0563  0.1289 -0.1388
92972W        W35910  13.155  17.089   1.671 -0.1366  0.0091 -0.0161
92973W        W35911  14.278  18.530   1.215  0.0811  0.1080 -0.1238
92974W        W35912  13.636  18.991  31.789 -0.0898 -0.1057 -0.0256
92975W        W35913  12.073  16.914  30.954 -0.1615 -0.0469 -0.0770
92976W        W35914  13.939  21.652   0.683  0.0834  0.0327  0.0190
92977W        W35915  12.637  21.540  30.950  0.0537 -0.0980  0.0267
92978W        W35916  10.941  20.042   0.032 -0.0530  0.1261  0.0034
92979W        W35917  12.797  20.973  31.224 -0.0987 -0.0226 -0.0683
92980W        W35918  14.698  19.632  31.292  0.3176 -0.1986 -0.1214
92981W        W35919  11.539  21.108   1.994 -0.0870  0.4499 -0.2138
92982W        W35920  13.058  20.211   3.224 -0.0483  0.0905 -0.0256
92983W        W35921  13.134  19.072  30.618  0.1536 -0.2953 -0.1077
92984W        W35922  11.482  21.121   1.443  0.1357  0.0826 -0.2400
92985W        W35923  14.892  17.769  29.733 -0.3136  0.1410 -0.1780
92986W        W35924  17.817  18.155  28.624 -0.1694  0.0395  0.1709
92987W        W35925  11.886  19.477   2.254  0.2724  0.1149 -0.1442
92988W        W35926  15.149  18.812  30.739 -0.2639 -0.3932  0.0816
92989W        W35927  13.965  19.493  30.383  0.0210  0.0131 -0.3828
92990W        W35928  14.774  18.999  29.735 -0.2044  0.1762 -0.0147
92991W        W35929  11.754  20.654   2.692 -0.0227 -0.2951  0.1701
92992W        W35930  13.007  20.733   0.491  0.0352 -0.4316  0.2538
92993W        W35931  13.197  20.872  31.915 -0.0431  0.3277  0.0973
92994W        W35932  14.839  17.595  29.276  0.1134  0.0675 -0.1507
92995W        W35933  14.221  21.302  31.051 -0.0437  0.1275 -0.0314
92996W        W35934  11.393  22.758   2.556  0.0181  0.0768  0.0989
92997W        W35935  13.322  20.647   3.357 -0.1854  0.0399  0.1133
92998W        W35936  13.192  21.411   1.966  0.0998  0.1992 -0.1622
92999W        W35937  12.556  18.853   0.751 -0.4750 -0.0377 -0.0153
93000W        W35938  12.844  18.744  31.771 -0.4943 -0.0937  0.2802
93001W        W35939  14.148  18.318  31.310  0.2136  0.0188  0.1415
93002W        W35940  10.548  21.492  31.743 -0.0677 -0.0280  0.1019
93003W        W35941  14.722  17.040   0.334 -0.2082  0.1043  0.2612
93004W        W35942  13.274  19.440   1.776 -0.0060 -0.0724 -0.5515
93005W        W35943  12.304  20.146   2.080 -0.1362  0.1708  0.0196
93006W        W35944  13.575  20.547   2.342 -0.0505  0.3365  0.0611
93007W        W35945  13.324  18.506  31.897 -0.0541 -0.2406  0.2468
93008W        W35946  13.867  18.775   1.217 -0.0118  0.0217  0.0941
93009W        W35947  12.734  19.912  30.371  0.1530  0.3451  0.1863
93010W        W35948  12.285  18.069   2.574  0.1654 -0.0875 -0.2028
93011W        W35949  11.829  20.783   0.677  0.0494 -0.2063 -0.1003
93012W        W35950  12.873  21.556   2.429  0.0454 -0.1106 -0.3228
93013W        W35951  13.005  21.772   3.403  0.0939 -0.3478 -0.1596
93014W        W35952  13.654  22.362  31.409 -0.0443  0.1249  0.1288
93015W        W35953  14.368  19.938   1.422 -0.1606  0.0444  0.1308
93016W        W35954  14.682  18.311  31.367 -0.0835 -0.2710 -0.2906
93017W        W35955  13.256  21.432  29.988 -0.2749  0.2390  0.1506
93018W        W35956  12.306  19.376  31.150  0.0802  0.4106  0.4051
93019W        W35957  14.276  18.535   0.033 -0.1017 -0.2461 -0.2848
93020W        W35958  13.450  19.903   0.755  0.2104 -0.0664 -0.1501
93021W        W35959  12.078  21.069  30.685  0.1050 -0.2319 -0.3498
93022W        W35960  13.709  19.903   2.542  0.1723 -0.1754 -0.0991
93023W        W35961  11.879  20.784  31.181  0.0946 -0.0010 -0.0928
93024W        W35962  14.241  17.088   1.254  0.2044 -0.0172 -0.1980
93025W        W35963  12.036  22.342   1.005 -0.0105 -0.0658  0.0121
93026W        W35964  12.784  18.751  30.935 -0.1443 -0.1820  0.2106
93027W        W35965  12.566  18.613  31.371 -0.0125  0.0440 -0.1132
93028W        W35966  13.700  19.137   0.357 -0.0624  0.1869 -0.2610
93029W        W35967  13.873  21.077  29.057  0.4188  0.0329  0.0281
93030W        W35968  12.165  19.809   0.652 -0.0453  0.0228  0.0664
93031W        W35969  13.639  19.954   3.203 -0.2399 -0.2390 -0.2258
93032W        W35970  11.913  21.879   0.857 -0.3086 -0.2795  0.0423
93033W        W35971  13.032  18.082   1.060 -0.0014  0.0304 -0.0688
93034W        W35972  14.367  18.652  30.584  0.2235 -0.0629  0.1997
93035W        W35973  12.848  20.282   1.832 -0.0046  0.0008 -0.1402
93036W        W35974  12.120  20.289   1.620 -0.0535  0.1522 -0.1126
93037W        W35975  12.811  18.281  31.635 -0.0894 -0.0784 -0.2053
93038W        W35976  13.214  18.577   1.262 -0.2733 -0.2545  0.2721
93039W        W35977  13.698  18.339   0.941  0.0470  0.1077  0.2253
93040W        W35978  11.270  21.427   0.221 -0.1402  0.1518 -0.1811
93041W        W35979  13.756  21.076   2.551  0.3021  0.1440  0.0411
93042W        W35980  12.610  19.156  31.533 -0.0445 -0.1411  0.2449
93043W        W35981  11.791  21.230   0.027 -0.2248 -0.0529 -0.2856
93044W        W35982  12.059  18.276   2.131  0.0641  0.0729  0.0198
93045W        W35983  13.591  19.790   0.238 -0.0836  0.2926  0.1175
93046W        W35984  12.798  18.817   1.141  0.0869  0.0315  0.0999
93047W        W35985  11.763  18.860   0.917 -0.0725  0.0204 -0.1440
93048W        W35986  12.385  18.717   0.263  0.0812  0.2861  0.2991
93049W        W35987  13.952  20.273   1.312 -0.2358 -0.3095 -0.1120
93050W        W35988  13.226  20.339   2.608 -0.2285  0.0338 -0.5488
93051W        W35989  12.114  20.499   1.071 -0.1153 -0.1362 -0.1921
93052W        W35990  14.354  18.087  31.682 -0.1228 -0.3074  0.2659
93053W        W35991  13.904  21.272  31.542 -0.1210 -0.0749 -0.0379
93054W        W35992  15.129  18.940   2.437 -0.0086  0.0202 -0.0986
93055W        W35993  11.443  19.546   0.284 -0.0859  0.0578 -0.1393
93056W        W35994  11.771  20.639   1.407  0.0930 -0.2757 -0.2727
93057W        W35995  11.572  20.097  31.869 -0.1038  0.0313  0.4343
93058W        W35996  11.697  19.836   0.775  0.2569 -0.0325  0.0115
93059W        W35997  12.028  21.604  31.798  0.1604 -0.0351  0.1299
93060W        W35998  13.326  21.229   0.289  0.1690 -0.1311  0.1506
93061W        W35999  11.337  20.646   1.143  0.0214  0.3473 -0.0265
93062W        W36000  15.375  17.760  29.783 -0.4373  0.0492  0.0555
93063W        W36001  13.772  21.431  28.719  0.2965  0.0884  0.1842
93064W        W36002  13.082  19.865   1.633 -0.1862  0.1475  0.0582
93065W        W36003  13.739  18.322   1.982  0.0610  0.1394 -0.0217
93066W        W36004  13.253  19.433   0.568 -0.1169 -0.2900 -0.0972
93067W        W36005  12.710  18.492   2.593  0.1860  0.1444 -0.0658
93068W        W36006  11.893  17.301   2.123 -0.1314 -0.3780 -0.0325
93069W        W36007  13.449  20.267   0.376  0.0988 -0.2568 -0.1541
93070W        W36008  11.877  19.102   4.261 -0.0735  0.0877 -0.1826
93071W        W36009  13.502  22.542   2.714 -0.0238 -0.0984 -0.1194
93072W        W36010  13.299  19.321   3.001 -0.0594 -0.0336  0.3448
93073W        W36011  14.400  17.463   0.223 -0.0708  0.3001  0.1253
93074W        W36012  13.124  17.624  31.705 -0.3018  0.0004 -0.0643
93075W        W36013  12.546  19.881   1.631 -0.0495  0.1443 -0.0292
93076W        W36014  14.175  20.592  31.780 -0.2436 -0.3394 -0.3339
93077W        W36015  12.136  21.131  30.155 -0.0620  0.3552  0.1903
93078W        W36016  14.002  19.246  31.517 -0.0909  0.2143  0.1736
93079W        W36017  11.611  19.974  30.779 -0.0573  0.2171 -0.0482
93080W        W36018  13.560  19.420  31.116 -0.1105 -0.1414  0.0914
93081W        W36019  12.792  19.807  31.048 -0.1191  0.1120 -0.0779
93082W        W36020  10.635  20.534  30.711  0.4513 -0.0013  0.1903
93083W        W36021  12.285  19.936   3.004 -0.0319 -0.3109 -0.1043
93084W        W36022  14.811  18.781  31.150 -0.2207  0.1365  0.1709
93085W        W36023  12.949  18.190  30.976  0.0654 -0.0205 -0.2668
93086W        W36024  11.824  18.369   1.357 -0.1798  0.0386 -0.0574
93087W        W36025  14.208  18.333   0.784 -0.0197  0.1938  0.0696
93088W        W36026  11.591  19.180   2.571  0.0119 -0.0257  0.0151
93089W        W36027  11.430  18.491   4.829 -0.3920  0.1764 -0.0498
93090W        W36028  13.721  21.301   2.007  0.1912 -0.1315  0.0029
93091W        W36029  14.263  20.176  30.719 -0.0465  0.0402  0.0668
93092W        W36030  14.070  18.965   2.464  0.0212 -0.1567  0.0443
93093W        W36031  14.608  19.668  30.780  0.0672 -0.1883  0.0646
93094W        W36032  13.827  19.204   0.801 -0.2244  0.0667  0.0692
93095W        W36033  11.635  20.246   1.084  0.1856  0.1233 -0.1294
93096W        W36034  13.673  19.027   2.803  0.0988 -0.0797 -0.0123
93097W        W36035  12.996  16.740  31.217 -0.0339 -0.2994  0.0787
93098W        W36036  13.172  19.688   3.348 -0.0062  0.2873 -0.1180
93099W        W36037  12.908  20.096  31.378  0.0445 -0.3102  0.2364
93100W        W36038  12.390  21.380   1.486 -0.0617 -0.3000  0.2906
93101W        W36039  14.529  19.021  31.482 -0.2262  0.3463  0.1188
93102W        W36040  11.948  18.877   1.491  0.0731  0.0374 -0.0957
93103W        W36041  12.028  20.998   1.794 -0.1546  0.1330 -0.1355
93104W        W36042  13.654  18.709  29.512  0.0453  0.1615 -0.1457
93105W        W36043  12.511  20.685  31.940 -0.2867  0.0994  0.1322
93106W        W36044  12.504  20.133   0.859 -0.0324 -0.2048  0.0750
93107W        W36045  14.138  19.861   2.861  0.0898  0.3210 -0.2133
93108W        W36046  15.004  18.514  29.449  0.2093  0.0399  0.2430
93109W        W36047  14.666  18.060   0.980 -0.2666  0.0913  0.3283
93110W        W36048  11.385  21.053  31.766  0.1549 -0.0374 -0.3165
93111W        W36049  13.311  18.101   0.181 -0.0381 -0.5309  0.0103
93112W        W36050  11.445  21.985   1.171  0.1020 -0.0862  0.0118
93113W        W36051  11.011  20.829   2.065 -0.0263  0.0529 -0.0251
93114W        W36052  12.699  21.751  31.414 -0.0353 -0.0022 -0.3014
93115W        W36053  12.736  18.321   0.762 -0.0186  0.0239 -0.0064
93116W        W36054  13.835  18.689   0.166 -0.0232 -0.0598  0.1466
93117W        W36055  14.275  19.623  31.670  0.0887  0.0780 -0.4099
93118W        W36056  14.199  18.914   1.585  0.0871 -0.0607 -0.2536
93119W        W36057  13.352  21.327   3.967  0.1962  0.1248  0.1277
93120W        W36058  12.767  21.577   0.411  0.0930  0.1069 -0.0916
93121W        W36059  12.819  20.711   3.329 -0.1378 -0.1781  0.1653
93122W        W36060  13.931  19.700  31.314 -0.3350 -0.1867  0.0713
93123W        W36061  13.909  19.499  31.941 -0.2887 -0.0716 -0.3605
93124W        W36062  11.353  20.197   2.116 -0.1864 -0.1843 -0.1903
93125W        W36063  13.124  20.349   1.328  0.0470 -0.0212 -0.0557
93126W        W36064  13.045  20.417   0.070  0.1089  0.1816  0.0847
93127W        W36065  13.829  17.019   0.314  0.1141  0.3313 -0.0118
93128W        W36066  12.186  19.869  31.767 -0.0624  0.0681 -0.2924
93129W        W36067  11.983  20.869   2.302 -0.0073  0.1126 -0.1016
93130W        W36068  11.025  20.436   2.446 -0.2755  0.3261  0.2803
93131W        W36069  12.598  21.633  31.923  0.2077 -0.0006  0.1737
93132W        W36070  13.421  21.499   0.768  0.2452  0.1720 -0.2246
93133W        W36071  13.611  19.688  30.672  0.0614  0.1147  0.3487
93134W        W36072  14.037  22.500   2.586  0.0759 -0.1308 -0.2225
93135W        W36073  13.658  18.390  29.128  0.0241 -0.0515  0.1609
93136W        W36074  11.873  21.222  31.473 -0.0580 -0.3226  0.0865
93137W        W36075  11.278  22.118  31.199  0.0360  0.2217 -0.0451
93138W        W36076  14.320  21.310   1.411  0.1950 -0.1441 -0.1018
93139W        W36077  12.427  22.200   0.132  0.1391 -0.3921  0.0373
93140W        W36078  14.552  21.557   4.229  0.3944 -0.0367  0.0350
93141W        W36079  14.286  18.231  30.355 -0.2959  0.5628 -0.0622
93142W        W36080  15.332  19.139  30.379 -0.0820  0.1243 -0.0388
93143W        W36081  15.284  19.774  31.482 -0.0721 -0.0398  0.1428
93144W        W36082  14.434  21.258   3.418 -0.0103 -0.0633 -0.4534
93145W        W36083  12.887  20.580  31.561  0.2421 -0.2500 -0.1573
93146W        W36084  15.460  18.657  29.489 -0.0119 -0.0256 -0.2270
93147W        W36085  13.811  20.131   2.070  0.1447 -0.0111  0.0204
93148W        W36086  14.525  18.181   1.598 -0.1310  0.2470 -0.1403
93149W        W36087  10.608  21.410   2.761 -0.1174  0.0488  0.1520
93150W        W36088  14.332  23.334  31.217  0.1684  0.1269 -0.0793
93151W        W36089  11.583  18.147  31.900 -0.1914 -0.1575 -0.0996
93152W        W36090  12.404  19.343   0.597 -0.1953 -0.1980 -0.0904
93153W        W36091  14.781  17.352   1.871 -0.0803  0.3010  0.0174
93154W        W36092  12.423  19.753   0.244  0.2487  0.0893  0.0334
93155W        W36093  13.850  19.678   1.048  0.0775  0.0369  0.1132
93156W        W36094  12.592  21.988   2.236  0.2730 -0.0298 -0.1279
93157W        W36095  10.883  23.408   2.174 -0.2003 -0.0166  0.1243
93158W        W36096  12.600  22.129   1.612  0.0629  0.4581 -0.0698
93159W        W36097  11.644  18.502   0.497  0.1409 -0.0657  0.2842
93160W        W36098  14.767  18.871  30.377 -0.0071  0.1871 -0.1889
93161W        W36099  13.268  18.501   1.785  0.0914 -0.1269 -0.1414
93162W        W36100  14.746  18.984   0.160  0.1193  0.3874  0.1735
93163W        W36101  11.981  20.282  31.005  0.0844 -0.1659 -0.1441
93164W        W36102  15.236  18.576  31.201 -0.4954  0.0131  0.0029
93165W        W36103  13.526  20.039   1.229 -0.1084 -0.2398  0.1430
93166W        W36104  13.372  20.503   0.883  0.1197  0.1899  0.0770
93167W        W36105  13.164  18.637  31.385 -0.0834  0.2133 -0.3220
93168W        W36106  14.226  20.459   3.602  0.2339  0.0385 -0.0537
93169W        W36107  13.738  18.006  31.182  0.0945  0.2292  0.0276
93170W        W36108  14.365  20.695   2.620 -0.0174  0.0835 -0.0681
93171W        W36109  10.673  18.015   1.089 -0.0914  0.2732 -0.1858
93172W        W36110  13.862  18.473  30.427 -0.3976  0.2501  0.3460
93173W        W36111  11.728  20.444   0.227 -0.0714  0.1526  0.0771
93174W        W36112  12.846  19.899   1.160  0.4499  0.1201 -0.1602
93175W        W36113  14.043  20.305   2.546  0.1434  0.0032 -0.1118
93176W        W36114  11.557  17.865   0.706  0.1108  0.0819 -0.1336
93177W        W36115  12.488  22.676   0.217  0.3672  0.0487 -0.0260
93178W        W36116  15.322  20.108  31.877  0.0620 -0.0498  0.0832
93179W        W36117  12.780  21.314  31.618 -0.1121 -0.1268 -0.0859
93180W        W36118  13.102  19.920  31.848  0.1090 -0.0344 -0.0075
93181W        W36119  13.885  21.150   0.589  0.0966 -0.1080 -0.1323
93182W        W36120  12.056  20.010   1.202 -0.0584  0.1191  0.0126
93183W        W36121  12.573  20.811   2.519  0.2375 -0.0402 -0.1483
93184W        W36122  13.685  20.413   2.933  0.2787 -0.3587  0.2192
93185W        W36123  13.813  17.201  31.425  0.2492 -0.4969 -0.3486
93186W        W36124  12.448  18.890   1.487  0.0213 -0.4567  0.5398
93187W        W36125  11.801  22.698   0.655  0.1734  0.2999 -0.0446
93188W        W36126  14.547  18.817   2.148 -0.0962 -0.0288  0.1695
93189W        W36127  14.116  17.989   2.256 -0.0586 -0.1925 -0.0221
93190W        W36128  12.346  21.517  30.454  0.1148 -0.2309 -0.0198
93191W        W36129  12.521  17.738   1.756 -0.0709 -0.0200  0.0306
93192W        W36130  13.131  21.925   2.134  0.4348  0.1249  0.3381
93193W        W36131  12.935  21.334   3.697 -0.0051 -0.1687 -0.5503
93194W        W36132  11.298  19.336  31.354 -0.1389 -0.1860  0.0462
93195W        W36133  12.562  19.362   3.588 -0.0913  0.1478  0.0115
93196W        W36134  12.745  19.732   0.683 -0.2312 -0.2674 -0.0778
93197W        W36135  13.739  21.520   1.184  0.0134 -0.0330  0.0983
93198W        W36136  13.210  20.126   2.137  0.1322 -0.2074 -0.1499
93199W        W36137  13.526  18.498   0.514 -0.1866  0.0604  0.1229
93200W        W36138  13.861  20.651  31.128  0.0617 -0.1829  0.0404
93201W        W36139  13.287  17.582   0.192  0.0647  0.3117  0.1490
93202W        W36140  14.616  20.396  31.583 -0.0449  0.1716  0.1197
93203W        W36141  14.736  17.259   1.335  0.2705 -0.3520 -0.1022
93204W        W36142  13.409  20.987   2.201  0.1330  0.1206  0.2784
93205W        W36143  10.907  21.120  31.379 -0.0660 -0.1216 -0.2419
93206W        W36144  12.877  20.456  31.063  0.1370  0.0148  0.1251
93207W        W36145  12.240  21.800   1.732 -0.1575 -0.1731  0.1672
93208W        W36146  12.987  17.947   3.377 -0.2996  0.0299 -0.0201
93209W        W36147  12.360  21.907   0.495  0.0208  0.2970 -0.0402
93210W        W36148   9.672  20.726   2.163 -0.1272  0.0060 -0.0928
93211W        W36149  12.239  17.808   0.118  0.1258  0.0131 -0.1161
93212W        W36150  14.870  21.371  30.840 -0.1778 -0.1332  0.0831
93213W        W36151  13.273  17.418   1.169  0.1915  0.2979  0.1972
93214W        W36152  10.747  18.812   0.926  0.0981 -0.2293  0.1759
93215W        W36153  13.727  21.973   1.199  0.2520  0.1401  0.1318
93216W        W36154  14.432  21.331  30.466  0.2981 -0.0771  0.2863
93217W        W36155  13.304  18.020  31.472  0.0042  0.0725 -0.1247
93218W        W36156  15.166  21.711   2.914 -0.0991  0.2771 -0.3642
93219W        W36157  11.206  20.470  30.148 -0.0851 -0.1507  0.0892
93220W        W36158  12.683  20.337   2.350 -0.2136 -0.1046 -0.0438
93221W        W36159  12.701  19.107   2.301 -0.2090 -0.1732 -0.2137
93222W        W36160  11.858  18.520  31.656  0.1940 -0.3046  0.0058
93223W        W36161  13.489  18.866   0.906 -0.0267 -0.1905  0.0833
93224W        W36162  13.536  20.643   1.384  0.2898  0.1786  0.3549
93225W        W36163  12.325  20.635  31.385  0.0378  0.0745 -0.0947
93226W        W36164  12.538  20.333   1.348  0.2287 -0.0476 -0.0611
93227W        W36165  12.101  22.234   2.105  0.1012  0.1594 -0.0263
93228W        W36166  11.121  18.820   2.663 -0.0170 -0.2507  0.0277
93229W        W36167  13.089  19.899   0.363 -0.0785  0.2482  0.2309
93230W        W36168  12.625  21.126   1.052 -0.0467 -0.0583 -0.0673
93231W        W36169  15.383  21.575  30.942  0.0367 -0.1840  0.3250
93232W        W36170  14.077  18.012   1.124  0.1770 -0.1919  0.0058
93233W        W36171  13.829  20.160  31.118 -0.1814 -0.0611 -0.2167
93234W        W36172  12.125  17.850   3.013  0.4513 -0.0206  0.0188
93235W        W36173  12.334  19.348   1.979  0.3507 -0.1221  0.1130
93236W        W36174  14.282  19.924   0.878  0.1770 -0.1377 -0.0564
93237W        W36175  12.002  18.362   0.136  0.0991 -0.0712  0.0547
93238W        W36176  15.098  18.728   0.471  0.0090 -0.0200 -0.0301
93239W        W36177  13.388  21.157   1.607  0.1722 -0.1185 -0.0543
93240W        W36178  12.433  20.529   0.571 -0.1239 -0.0070 -0.1004
93241W        W36179  12.641  18.061  30.623  0.0406  0.0184 -0.0810
93242W        W36180  14.106  18.489   2.321  0.0035 -0.0930 -0.0420
93243W        W36181  13.276  20.697   1.831  0.0887 -0.1655 -0.0274
93244W        W36182  13.373  20.455   4.079 -0.3715 -0.1324 -0.2651
93245W        W36183  14.482  19.884  28.457  0.0073  0.3181  0.1816
93246W        W36184  15.648  19.979  29.404  0.0018 -0.1204 -0.0725
93247W        W36185  12.986  22.586   1.571 -0.1959 -0.3518 -0.0207
93248W        W36186  13.259  20.923   4.322  0.1549 -0.2805 -0.2491
93249W        W36187  14.420  21.585   2.031  0.0903 -0.3180  0.3259
93250W        W36188  16.129  20.033  31.484 -0.0795 -0.1594 -0.2187
93251W        W36189  11.387  18.888   3.158 -0.2014  0.3010  0.1651
93252W        W36190  11.874  19.937   0.274  0.1279 -0.0451  0.2749
93253W        W36191  13.363  19.970  31.056 -0.3559  0.4217 -0.0304
93254W        W36192  13.926  18.852   1.993  0.1877 -0.2130 -0.2399
93255W        W36193  11.782  18.205   0.901  0.0610 -0.2475 -0.3667
93256W        W36194  14.409  19.168   0.493 -0.0671 -0.1588 -0.0534
93257W        W36195  14.560  22.585   2.602 -0.2316  0.1982 -0.3919
93258W        W36196  13.002  20.151   0.790 -0.0235 -0.0116  0.1553
93259W        W36197  12.375  20.875   5.801 -0.1482 -0.3594 -0.0792
93260W        W36198  12.254  18.393   1.644  0.0960  0.1980 -0.1864
93261W        W36199  14.447  18.826   2.772  0.0426  0.1146  0.0908
93262W        W36200  13.636  20.595   4.649 -0.0137 -0.0746  0.0457
93263W        W36201  11.981  20.841   4.435 -0.3130 -0.1840  0.2255
93264W        W36202  15.139  22.165   3.875 -0.0532 -0.4215 -0.0050
93265W        W36203  11.552  19.360   6.294 -0.1760 -0.0122 -0.1465
93266W        W36204  12.572  20.014   6.349 -0.1685 -0.3369  0.0066
93267W        W36205  13.056  19.339   3.638 -0.0788  0.2049  0.0547
93268W        W36206  12.351  20.377   5.472  0.2265  0.0785 -0.0777
93269W        W36207  13.849  20.499   5.555  0.2020  0.1283 -0.1219
93270W        W36208  11.804  18.424   4.410 -0.2962 -0.0014 -0.0469
93271W        W36209  10.373  17.654   5.183 -0.0536  0.2349 -0.2573
93272W        W36210  13.543  19.484   5.777 -0.0708  0.0381 -0.1524
93273W        W36211  11.569  21.095   2.506 -0.2251 -0.2724  0.1812
93274W        W36212  12.665  20.503   5.056 -0.0141 -0.2601  0.1569
93275W        W36213  12.641  18.765   3.822  0.0725  0.0295 -0.0752
93276W        W36214  13.874  21.922   3.455 -0.0288  0.2350 -0.3015
93277W        W36215  11.074  18.953   6.755  0.1031  0.1506 -0.2096
93278W        W36216  12.832  19.066   5.179 -0.0765 -0.0601 -0.0626
93279W        W36217  12.610  21.771   4.180  0.1192  0.0830  0.0907
93280W        W36218  11.613  21.324   2.971 -0.2838 -0.0265  0.2781
93281W        W36219  12.078  19.922   5.310 -0.1505  0.1674 -0.1120
93282W        W36220  12.796  20.897   4.708 -0.0451 -0.1800  0.0315
93283W        W36221  12.636  19.952   5.410 -0.1585  0.1044 -0.0769
93284W        W36222  13.356  21.024   4.898  0.3286  0.3230  0.0622
93285W        W36223  12.462  21.364   5.004 -0.0202 -0.1394 -0.2149
93286W        W36224  13.449  21.556   3.464 -0.1256  0.1101 -0.0681
93287W        W36225  12.751  19.282   5.955 -0.0861 -0.0929 -0.1347
93288W        W36226  12.215  20.067   4.206  0.0201  0.1240  0.0322
93289W        W36227  11.258  22.026   3.293  0.1826 -0.0763  0.1094
93290W        W36228  10.140  22.113   3.909  0.1447 -0.0350 -0.1617
93291W        W36229  14.144  20.672   4.013 -0.0637 -0.1073  0.0459
93292W        W36230  13.816  21.054   8.170  0.0046  0.0969  0.0174
93293W        W36231  11.743  21.825   6.670  0.0584 -0.3274  0.0090
93294W        W36232  11.201  20.789   2.721 -0.0554  0.5241  0.2484
93295W        W36233  13.683  21.885   6.986  0.0693 -0.1575 -0.0793
93296W        W36234  12.436  22.315   6.500  0.1547 -0.3177  0.4572
93297W        W36235  11.525  20.681   7.014 -0.0853  0.1716 -0.2560
93298W        W36236  12.886  19.642   4.171  0.0629  0.1956 -0.2131
93299W        W36237  13.019  20.988   2.659 -0.1859 -0.1747  0.0966
93300W        W36238  12.394  19.587   3.989 -0.1538 -0.3291  0.2322
93301W        W36239  12.142  21.416   5.996  0.2060 -0.3335 -0.2513
93302W        W36240  12.284  21.475   5.514  0.1921  0.0926 -0.1053
93303W        W36241  15.106  18.834   6.102  0.1082 -0.1980  0.2420
93304W        W36242  13.679  22.105   2.522 -0.2986 -0.0214  0.1732
93305W        W36243  13.049  20.479   4.474 -0.0092  0.2775  0.0663
93306W        W36244  12.375  17.948   3.489  0.0080 -0.1279  0.1760
93307W        W36245  14.565  20.129   3.061  0.0853  0.1787  0.0808
93308W        W36246  12.708  18.792   4.483 -0.1085  0.2314 -0.0624
93309W        W36247  11.329  22.430   4.150  0.1104 -0.2120  0.0366
93310W        W36248  11.477  18.890   5.606 -0.2556  0.0612 -0.0259
93311W        W36249  12.731  20.560   6.109  0.3988 -0.2706 -0.2942
93312W        W36250  13.387  20.148   3.577 -0.2611  0.0202 -0.1397
93313W        W36251  12.544  20.465   4.531  0.1320 -0.0797  0.1126
93314W        W36252  10.754  21.046   5.859 -0.0047 -0.0524  0.1275
93315W        W36253  12.048  19.987   5.818  0.0141  0.0364 -0.1549
93316W        W36254  16.093  22.133   2.136  0.3014 -0.3713 -0.1316
93317W        W36255  14.878  22.547   3.995 -0.2694  0.0865  0.4456
93318W        W36256  13.902  22.668   3.654  0.0637  0.1042  0.1715
93319W        W36257  11.342  19.688   3.374 -0.0251 -0.3594  0.0218
93320W        W36258  12.306  20.623   6.470  0.2374 -0.1446 -0.0571
93321W        W36259  11.019  19.649   7.391  0.1996 -0.3382 -0.5152
93322W        W36260  12.172  18.537   3.485  0.3284 -0.0681 -0.1717
93323W        W36261  15.738  19.509   5.837  0.2668 -0.2452  0.0226
93324W        W36262  11.094  20.605   7.356 -0.1645  0.1369 -0.0173
93325W        W36263  13.981  18.955   4.839 -0.1346  0.0741 -0.2050
93326W        W36264  13.285  19.505   3.999 -0.1250  0.0707 -0.1083
93327W        W36265  15.141  20.800   6.036 -0.0367  0.2230 -0.0938
93328W        W36266  13.848  21.535   2.718  0.2689 -0.2194 -0.3110
93329W        W36267  14.028  19.025   3.315 -0.1597  0.1193 -0.2026
93330W        W36268  12.835  17.955   5.313 -0.0110 -0.0115  0.0216
93331W        W36269  12.858  19.807   2.389 -0.1096 -0.0536 -0.1394
93332W        W36270  12.059  21.245   3.506 -0.0345 -0.0774 -0.1308
93333W        W36271  14.518  20.707   5.394 -0.0975  0.0282  0.1135
93334W        W36272  13.385  20.763   2.847  0.1018 -0.0900 -0.3735
93335W        W36273  12.855  21.656   6.047 -0.3508 -0.0068  0.2142
93336W        W36274  11.684  18.827   6.587 -0.2256  0.0715  0.0458
93337W        W36275  14.447  21.048   6.619  0.0152 -0.0353  0.2582
93338W        W36276  11.835  23.198   2.624  0.2386 -0.1428 -0.1273
93339W        W36277  11.571  20.963   4.643 -0.2794 -0.3760  0.2143
93340W        W36278  11.716  22.034   3.962  0.0262  0.0410  0.0528
93341W        W36279  12.122  19.542   5.579 -0.0164 -0.1211 -0.1041
93342W        W36280  11.400  20.806   6.419  0.0579 -0.0389 -0.0705
93343W        W36281  13.343  19.008   3.839  0.0824  0.0655 -0.0724
93344W        W36282  11.333  19.814   6.427  0.1088 -0.0531  0.0936
93345W        W36283  15.270  18.381   4.956  0.1543  0.2603  0.1381
93346W        W36284  12.033  21.837   4.273  0.2569  0.0843 -0.3492
93347W        W36285  16.204  21.927   4.933 -0.0157  0.0503 -0.1250
93348W        W36286  13.906  18.624   3.733  0.2036  0.1055 -0.0776
93349W        W36287  13.401  20.155   4.707 -0.2192  0.1089  0.2039
93350W        W36288  11.174  19.788   4.564 -0.0278 -0.0384 -0.0426
93351W        W36289  12.817  19.826   3.730  0.2203  0.1122  0.0586
93352W        W36290  11.275  19.288   7.745  0.1875 -0.0640  0.2687
93353W        W36291   9.398  18.478   4.836 -0.2150  0.0804 -0.0839
93354W        W36292  12.935  19.721   6.214  0.1683 -0.2084  0.0644
93355W        W36293  11.036  19.027   3.490 -0.1907  0.0379 -0.0196
93356W        W36294  13.814  18.429   5.386 -0.0669 -0.1401 -0.2654
93357W        W36295  13.985  22.149   4.854 -0.0833 -0.1585  0.0039
93358W        W36296  10.543  20.631   2.986  0.0915  0.1977  0.1460
93359W        W36297  14.471  18.035   6.271 -0.0156  0.1166  0.1752
93360W        W36298  13.161  23.403   3.668 -0.2708  0.3931  0.0162
93361W        W36299  15.252  20.344   5.926  0.0189  0.2120 -0.1003
93362W        W36300  14.256  21.171   4.354 -0.0229 -0.2889  0.4297
93363W        W36301  12.223  18.993   5.099  0.1213  0.2950  0.2548
93364W        W36302  12.125  19.113   2.523  0.1044  0.2275 -0.0388
93365W        W36303  12.019  22.883   6.441 -0.2405  0.2459 -0.1322
93366W        W36304  14.002  21.577   4.721 -0.0486 -0.2812 -0.2383
93367W        W36305  11.833  19.870   3.374 -0.0170 -0.2062 -0.2924
93368W        W36306  15.204  21.661   3.899  0.1046 -0.2391 -0.3109
93369W        W36307  13.066  21.345   4.671 -0.2995  0.2489  0.5177
93370W        W36308  13.101  21.189   6.179  0.0926  0.3083 -0.1325
93371W        W36309  14.137  18.311   5.922 -0.0380 -0.1436 -0.0068
93372W        W36310  13.672  20.187   6.616 -0.3482  0.2306  0.1941
93373W        W36311  12.920  20.011   4.571  0.0769  0.2116  0.1636
93374W        W36312  11.547  17.859   2.956  0.2424 -0.0820 -0.0712
93375W        W36313  14.814  21.653   5.114 -0.1646  0.4944  0.2749
93376W        W36314  11.717  21.725   3.301  0.1265  0.1158 -0.1119
93377W        W36315  10.414  21.038   3.316  0.0199  0.2883 -0.1122
93378W        W36316  13.653  21.819   3.916  0.1157 -0.2895  0.1798
93379W        W36317  14.741  19.355   5.087  0.2599 -0.0955  0.1937
93380W        W36318  10.955  20.525   6.715  0.0679  0.1447  0.0027
93381W        W36319  11.995  19.051   5.574 -0.3414 -0.2648  0.1728
93382W        W36320  12.567  20.240   3.250 -0.0667 -0.3092 -0.0727
93383W        W36321  11.843  20.184   7.016  0.1246  0.2477  0.2072
93384W        W36322  13.642  19.289   4.911 -0.1444  0.0081 -0.0116
93385W        W36323  14.138  19.498   3.948  0.0687  0.1635 -0.1941
93386W        W36324  13.234  21.624   5.514 -0.1985 -0.1905 -0.3924
93387W        W36325  14.062  20.928   3.473  0.2321 -0.1075  0.2064
93388W        W36326  12.197  19.155   3.823  0.0945  0.2343  0.1071
93389W        W36327  13.547  19.297   3.421  0.0126  0.0598 -0.0560
93390W        W36328  11.911  20.954   6.708 -0.1989  0.1137 -0.0538
93391W        W36329  13.317  23.302   4.741  0.0445 -0.1445 -0.1799
93392W        W36330  13.174  20.108   5.582  0.1336  0.3122 -0.0473
93393W        W36331  13.249  18.942   2.045  0.0739  0.1837  0.3619
93394W        W36332  14.813  20.726   2.341 -0.1220  0.1559 -0.1854
93395W        W36333  12.209  20.458   6.010 -0.3745  0.0678 -0.1426
93396W        W36334  13.062  20.315   7.603 -0.0257  0.0609  0.2184
93397W        W36335  13.992  20.271   4.448  0.1638 -0.1914 -0.0194
93398W        W36336  11.768  18.940   6.041  0.1455  0.2078  0.4958
93399W        W36337  12.035  19.769   1.867 -0.0959  0.1330  0.3579
93400W        W36338  11.792  19.949   3.879 -0.0142 -0.0643  0.4257
93401W        W36339  11.695  23.304   3.543 -0.0340  0.1455  0.0695
93402W        W36340  12.786  18.451   6.214  0.1698  0.2221 -0.1613
93403W        W36341  13.175  19.568   6.955  0.1016 -0.0436 -0.2138
93404W        W36342  13.022  18.192   6.597 -0.4409 -0.1322  0.1747
93405W        W36343  14.819  19.584   7.648  0.0797  0.4740 -0.1604
93406W        W36344  12.768  19.213   3.119  0.3070 -0.0064  0.1470
93407W        W36345  13.611  20.220   5.152  0.1691  0.1945 -0.0233
93408W        W36346  11.853  20.049   2.917  0.2425  0.0378  0.0259
93409W        W36347  12.568  19.148   4.762 -0.1859 -0.0599  0.2735
93410W        W36348  11.487  19.677   7.964  0.2179  0.2772 -0.3164
93411W        W36349  11.110  21.491   5.179  0.0414 -0.0964  0.0295
93412W        W36350  13.397  19.285   6.188  0.0991  0.0495  0.0131
93413W        W36351  14.084  21.497   5.239  0.0848  0.2233 -0.0485
93414W        W36352  13.433  19.894   6.031 -0.1779  0.0013  0.0096
93415W        W36353  12.463  19.635   4.598  0.1575 -0.2882 -0.0497
93416W        W36354  12.435  21.953   2.707 -0.3060 -0.0422 -0.1934
93417W        W36355  12.110  21.441   3.059 -0.0256  0.2112 -0.0752
93418W        W36356  12.924  19.558   4.930 -0.0645  0.0096  0.0662
93419W        W36357  11.973  20.980   3.940 -0.0084 -0.2319  0.1812
93420W        W36358  12.732  20.063   2.807  0.2148 -0.1699  0.1482
93421W        W36359  12.958  21.527   5.134  0.0137 -0.2273  0.3893
93422W        W36360  12.222  21.744   3.485 -0.0202  0.2205 -0.0381
93423W        W36361  14.352  17.780   5.798  0.3046 -0.1854 -0.0810
93424W        W36362  11.842  20.875   5.029  0.0065 -0.0829 -0.1302
93425W        W36363  11.914  19.576   2.762  0.0105 -0.2856  0.0860
93426W        W36364  11.545  20.407   3.132  0.1012  0.1471  0.2477
93427W        W36365  14.725  18.183   3.663  0.1920  0.2231  0.5386
93428W        W36366  14.771  20.414   3.894  0.1644 -0.0189  0.0087
93429W        W36367  11.279  18.562   5.302 -0.3075 -0.0504 -0.1628
93430W        W36368  12.391  19.489   5.140  0.1226  0.1196  0.2036
93431W        W36369  12.021  23.478   5.194  0.3311 -0.1509 -0.2880
93432W        W36370  13.338  21.694   4.891  0.1769 -0.0296  0.1866
93433W        W36371  13.140  19.385   2.248 -0.1798 -0.2421  0.1563
93434W        W36372  14.347  21.286   6.144  0.0613  0.1267 -0.0781
93435W        W36373  12.410  19.263   6.910 -0.0584 -0.1445 -0.0350
93436W        W36374  10.358  20.136   2.966  0.2117 -0.0927 -0.0120
93437W        W36375  14.044  20.635   6.522 -0.2537 -0.3253  0.0224
93438W        W36376  13.062  20.814   3.745 -0.3571  0.0930 -0.3690
93439W        W36377  13.225  21.067   5.503 -0.0701  0.0625 -0.2528
93440W        W36378  12.861  22.163   3.714 -0.0920  0.0752 -0.2113
93441W        W36379  12.870  21.306   4.186 -0.0222 -0.2743  0.1581
93442W        W36380  12.579  21.314   3.331  0.0251 -0.2033 -0.0445
93443W        W36381  11.608  19.532   8.414  0.2843 -0.0825  0.0928
93444W        W36382  13.550  19.873   7.144  0.0716 -0.0888  0.0888
93445W        W36383  12.025  19.646   4.329  0.1229 -0.0976  0.0596
93446W        W36384  12.319  19.928   3.574 -0.1710 -0.3322  0.2269
93447W        W36385  12.277  20.568   4.151  0.4181  0.1034  0.0215
93448W        W36386  13.293  20.621   6.467  0.2340 -0.0299  0.0852
93449W        W36387  12.231  19.729   7.112  0.2297 -0.0919 -0.1012
93450W        W36388  11.004  21.851   6.908  0.1407  0.1042 -0.0438
93451W        W36389  11.647  19.365   5.803  0.0041  0.4642  0.2469
93452W        W36390  15.190  22.612   4.416 -0.1654 -0.1983 -0.2271
93453W        W36391  12.614  20.158   5.856 -0.0492 -0.1405  0.2482
93454W        W36392  12.160  20.983   2.778  0.0649  0.1527 -0.2127
93455W        W36393  11.525  20.779   4.188  0.3121  0.0037 -0.2895
93456W        W36394  12.472  20.944   3.768 -0.1483 -0.0442  0.0005
93457W        W36395  11.958  19.597   6.174 -0.1770  0.1680  0.0664
93458W        W36396  10.590  21.559   5.072  0.2959 -0.1749  0.0723
93459W        W36397  12.321  20.507   2.904  0.1235  0.3648 -0.2282
93460W        W36398  10.770  21.334   6.654 -0.0169  0.2154 -0.0906
93461W        W36399  12.964  18.866   3.465 -0.2040  0.2194  0.2961
93462W        W36400  12.954  21.422   2.970 -0.3630 -0.0432  0.0059
93463W        W36401  12.611  18.633   4.923  0.0483 -0.2152 -0.2109
93464W        W36402  13.389  18.922   7.073  0.3777 -0.1503  0.0890
93465W        W36403  12.913  19.410   2.656 -0.1859  0.0191  0.1927
93466W        W36404  12.631  19.313   7.850  0.1807 -0.2473 -0.0707
93467W        W36405  12.057  18.445   6.406  0.0097  0.3107  0.2586
93468W        W36406  14.221  19.428   4.974  0.0535 -0.1342  0.0754
93469W        W36407  11.845  20.473   6.577 -0.0735  0.0056  0.1802
93470W        W36408  14.168  22.138   7.362  0.0186 -0.3746  0.1849
93471W        W36409  11.415  20.920   8.509  0.0051 -0.1652 -0.1415
93472W        W36410  14.024  18.151   4.060  0.0416  0.3892 -0.3032
93473W        W36411  12.688  18.407   3.294 -0.0559  0.1477  0.1399
93474W        W36412  13.562  20.856   3.756  0.0154  0.1494  0.0586
93475W        W36413  14.205  20.707   4.545 -0.0585 -0.0996 -0.2105
93476W        W36414  12.281  20.845   3.289  0.4185 -0.0182  0.2448
93477W        W36415  13.430  19.782   5.138  0.1476 -0.0869 -0.0486
93478W        W36416  12.089  20.393   5.068  0.1155  0.4000 -0.0255
93479W        W36417  14.143  20.343   3.097 -0.0311 -0.0667  0.1859
93480W        W36418  12.660  19.713   3.254 -0.0641  0.0468 -0.0966
93481W        W36419  12.451  21.294   2.169  0.1855 -0.1389 -0.1242
93482W        W36420  12.396  18.695   5.947  0.0187 -0.0222 -0.0677
93483W        W36421  13.385  19.794   6.534 -0.2466  0.3110  0.0477
93484W        W36422  12.946  20.344   3.721  0.0365  0.0639 -0.1077
93485W        W36423  13.270  18.822   5.223  0.0359  0.1324  0.0402
93486W        W36424  13.102  20.171   6.332 -0.1996 -0.0671 -0.2956
93487W        W36425  13.107  21.256   7.105  0.0820  0.1618 -0.0126
93488W        W36426  11.440  19.670   7.134 -0.1245 -0.0963  0.1050
93489W        W36427  14.150  20.801   6.033 -0.1990 -0.1161  0.2150
93490W        W36428  13.231  19.828   2.843 -0.0172 -0.0830 -0.4327
93491W        W36429  14.364  19.424   6.375  0.1870  0.0054 -0.2750
93492W        W36430  13.169  20.541   4.949  0.1933  0.2188 -0.1428
93493W        W36431  13.126  18.811   2.514 -0.2941  0.3336 -0.2102
93494W        W36432  11.509  19.426   4.138  0.0510  0.0220 -0.1590
93495W        W36433  13.912  20.204   7.115  0.1720 -0.1861  0.0699
93496W        W36434  12.012  19.036   3.071 -0.2410  0.1712  0.2389
93497W        W36435  13.782  19.440   6.450  0.2556 -0.1660 -0.0670
93498W        W36436  13.453  22.592   3.390  0.1474 -0.0588 -0.0620
93499W        W36437  13.194  21.682   4.351  0.1070 -0.1311 -0.0042
93500W        W36438  13.253  19.375   5.341 -0.0699  0.0257 -0.1045
93501W        W36439  10.793  18.979   5.214  0.3631  0.1441  0.1138
93502W        W36440  11.639  21.681   6.152 -0.2762  0.1496  0.2829
93503W        W36441  11.431  19.264   3.652  0.3222 -0.0723  0.1761
93504W        W36442  11.708  21.626   4.606  0.1331 -0.0251 -0.1249
93505W        W36443  12.199  20.107   6.682  0.1519  0.0156 -0.1025
93506W        W36444  14.704  20.374   7.188 -0.0315 -0.1753  0.1908
93507W        W36445  11.205  17.824   3.393  0.1047  0.1196 -0.1635
93508W        W36446  13.672  18.941   6.483  0.0797 -0.4371 -0.2680
93509W        W36447  11.809  21.595   3.790  0.3508  0.0115 -0.0777
93510W        W36448  13.760  18.917   5.302 -0.1502  0.1963  0.1698
93511W        W36449  11.017  21.538   5.726 -0.0235  0.3002  0.1727
93512W        W36450  12.334  20.829   5.289 -0.1471 -0.3488  0.2228
93513W        W36451  12.321  21.721   4.679 -0.0289  0.1979  0.4339
93514W        W36452  14.098  18.989   6.205  0.1438 -0.1313  0.1688
93515W        W36453  13.696  19.725   3.683 -0.1366 -0.0278 -0.1103
93516W        W36454  12.448  21.158   4.466  0.1091  0.0374 -0.0442
93517W        W36455  14.695  17.832   7.105 -0.0910  0.0273 -0.2161
93518W        W36456  12.699  19.806   6.820 -0.1269  0.1325  0.0787
93519W        W36457  12.320  20.784   4.822  0.0666 -0.4393  0.0822
93520W        W36458  14.325  20.460   6.892  0.2849  0.1303 -0.0858
93521W        W36459  13.167  20.032   4.088 -0.1498  0.0662 -0.0169
93522W        W36460  12.511  20.062   4.926 -0.0749 -0.4969  0.0952
93523W        W36461  11.351  19.945   8.653 -0.1355 -0.0903 -0.0775
93524W        W36462  12.432  19.711   5.939  0.2873  0.1716  0.0375
93525W        W36463  12.998  20.121   5.136  0.1875  0.1711 -0.2485
93526W        W36464  12.195  18.789   4.537 -0.1512  0.0365 -0.0784
93527W        W36465  14.246  21.207   3.870 -0.2724  0.1952  0.3307
93528W        W36466  11.062  21.171   7.335  0.0007  0.2820  0.0116
93529W        W36467  11.800  20.366   5.549 -0.1026 -0.1022  0.0354
93530W        W36468  13.089  21.786   3.901  0.2340 -0.2008  0.1044
93531W        W36469  13.235  21.125   3.323  0.1750 -0.1819  0.0354
93532W        W36470  13.433  18.823   3.247 -0.0968  0.0332 -0.0625
93533W        W36471  13.633  20.984   6.238 -0.0156  0.1450  0.0154
93534W        W36472  11.619  18.698   2.768  0.4978  0.0658  0.0079
93535W        W36473  12.862  20.840   6.478 -0.0524 -0.0505 -0.1440
93536W        W36474  11.130  21.284   2.817  0.2418  0.1727  0.1053
93537W        W36475  14.186  21.743   3.832  0.0626  0.1271 -0.1900
93538W        W36476  11.453  22.011   4.495  0.1346 -0.0482 -0.0733
93539W        W36477  14.584  19.522   7.123  0.1568 -0.2466  0.1709
93540W        W36478  13.584  18.897   1.634 -0.0031 -0.1729 -0.0272
93541W        W36479  14.348  19.954   4.937  0.0716 -0.0573  0.1000
93542W        W36480  13.049  18.535   4.709  0.1264 -0.2063  0.1750
93543W        W36481  12.272  19.567   7.647 -0.1965  0.2055 -0.0515
93544W        W36482  12.834  20.979   5.222  0.2073  0.2010 -0.2095
93545W        W36483  12.971  18.340   3.715  0.0356 -0.2871  0.2384
93546W        W36484  12.249  18.783   8.094  0.1254 -0.2532 -0.1652
93547W        W36485  15.395  18.749   7.054  0.1537 -0.0284  0.0662
93548W        W36486  11.628  20.888   7.551 -0.0960  0.2176  0.1332
93549W        W36487  14.907  21.187   3.942 -0.1333  0.2191 -0.0439
93550W        W36488  11.820  18.989   3.549  0.1132 -0.1959  0.0872
93551W        W36489  11.585  21.073   3.544  0.1885  0.3597  0.0241
93552W        W36490  14.043  17.982   5.472 -0.0864 -0.0138  0.1491
93553W        W36491  13.479  21.278   2.921 -0.2559  0.0321  0.2187
93554W        W36492  12.168  18.698   4.076 -0.1224  0.0445  0.3231
93555W        W36493  13.378  22.102   3.583 -0.1207 -0.1136 -0.1700
93556W        W36494  12.752  21.389   5.532 -0.1646  0.2052  0.0583
93557W        W36495  12.136  21.958   6.175  0.0983  0.0655  0.1277
93558W        W36496  11.085  19.215   4.031 -0.3143 -0.1134 -0.0846
93559W        W36497  14.127  18.714   5.652 -0.2595 -0.0006 -0.1433
93560W        W36498  11.500  19.220   6.902  0.1149  0.1263 -0.1658
93561W        W36499  15.171  18.337   6.641 -0.0112  0.1711  0.3109
93562W        W36500  11.683  18.504   3.624  0.1845 -0.3264  0.1495
93563W        W36501  14.449  18.984   4.872 -0.0927 -0.0941  0.2050
93564W        W36502  14.562  21.258   5.304  0.0023  0.2163 -0.0444
93565W        W36503  11.395  20.268   6.709 -0.0499 -0.0902 -0.0639
93566W        W36504  12.833  20.552   2.853  0.0168  0.0497  0.0850
93567W        W36505  14.223  20.124   6.566 -0.0439 -0.3931  0.0547
93568W        W36506  13.934  20.865   3.017  0.1374  0.2124 -0.1369
93569W        W36507  13.907  20.699   7.305 -0.1449 -0.1381 -0.3124
93570W        W36508  10.975  18.730   4.810 -0.3550 -0.0550 -0.1610
93571W        W36509  12.646  18.408   4.161  0.2179  0.1107 -0.0170
93572W        W36510  12.343  21.392   3.900  0.1314  0.0831 -0.0640
93573W        W36511  11.823  20.043   6.280 -0.1797  0.0418  0.1226
93574W        W36512  14.603  20.682   6.302 -0.3243  0.1290  0.0416
93575W        W36513   9.623  18.082   4.479  0.1217  0.0381 -0.1459
93576W        W36514  15.045  20.369   1.964  0.1350  0.2180 -0.2038
93577W        W36515  13.755  20.007   5.706  0.2627 -0.0170  0.0457
93578W        W36516  13.398  22.324   2.156  0.1400 -0.0571 -0.3306
93579W        W36517  13.238  19.530   4.539 -0.0253 -0.3045 -0.4192
93580W        W36518  13.644  20.861   5.786  0.3749  0.3642  0.2318
93581W        W36519  10.986  19.375   4.963 -0.1092 -0.0669  0.2814
93582W        W36520  14.350  22.490   4.765 -0.1684  0.0801  0.1715
93583W        W36521  13.052  20.683   6.921 -0.0725 -0.2264 -0.1142
93584W        W36522  11.751  17.442   2.855 -0.1227  0.1725  0.1926
93585W        W36523  12.124  19.463   3.358 -0.0378 -0.2501  0.1472
93586W        W36524  12.175  21.779   2.318 -0.1179  0.1157 -0.0601
93587W        W36525  14.913  18.781   6.752 -0.0756  0.2126  0.2049
93588W        W36526  14.072  19.142   6.730 -0.0845 -0.0064  0.0577
93589W        W36527  12.033  21.345   2.507 -0.2174 -0.1597  0.0314
93590W        W36528  14.214  18.320   6.858  0.2157 -0.1814  0.1354
93591W        W36529  12.804  21.787   4.705  0.0367  0.0061  0.0858
93592W        W36530  11.483  22.246   7.552  0.2451  0.3551 -0.1494
93593W        W36531  10.496  20.763   3.795  0.0441 -0.3086  0.0557
93594W        W36532  12.613  19.899   7.628  0.2279  0.0297 -0.0699
93595W        W36533  12.442  20.444   3.681 -0.0775  0.1322 -0.0051
93596W        W36534  13.464  23.206   3.266  0.0278  0.1831  0.0397
93597W        W36535  14.012  22.213   3.897  0.1742 -0.2330 -0.0962
93598W        W36536  14.072  19.942   5.338 -0.0362 -0.0985  0.0140
93599W        W36537  14.987  21.847   4.254  0.0596 -0.2525 -0.1708
93600W        W36538  11.382  19.010   5.023  0.1122  0.0776 -0.0777
93601W        W36539  13.654  18.562   4.125 -0.4424 -0.3175  0.1661
93602W        W36540  14.959  18.183   4.592  0.1915 -0.1730 -0.0327
93603W        W36541  12.138  20.160   7.420 -0.2076 -0.2893 -0.0486
93604W        W36542  11.653  19.904   4.336  0.1331 -0.1696  0.2838
93605W        W36543  12.019  20.326   3.284 -0.3069 -0.0536 -0.2587
93606W        W36544  12.058  21.253   4.771  0.1433 -0.2919 -0.1158
93607W        W36545  12.948  19.097   7.087  0.1818 -0.0492 -0.0784
93608W        W36546  11.054  21.016   4.206  0.3129  0.0947 -0.0207
93609W        W36547  11.777  20.642   3.632  0.1379  0.0956  0.2161
93610W        W36548  13.888  21.089   4.856 -0.0982 -0.1223 -0.0630
93611W        W36549  11.413  18.752   7.057  0.3962 -0.1956 -0.2109
93612W        W36550  11.318  19.467   5.408  0.1039 -0.0102 -0.1368
93613W        W36551  13.857  21.342   3.221  0.0793  0.0678 -0.3149
93614W        W36552  13.674  20.790   5.207  0.0161  0.4184  0.2120
93615W        W36553  12.088  19.308   4.664  0.0429  0.1735  0.4145
93616W        W36554  15.688  21.278   7.364 -0.0621  0.0367  0.0562
93617W        W36555  10.944  20.456   3.522 -0.0618  0.1137 -0.1444
93618W        W36556  12.031  19.181   6.592  0.1774 -0.0202  0.0866
93619W        W36557  12.689  19.494   7.269 -0.1233 -0.3074  0.1304
93620W        W36558  10.628  19.022   4.146  0.2656 -0.3785 -0.2029
93621W        W36559  12.831  20.559   5.488 -0.0028  0.0571 -0.1341
93622W        W36560  14.589  22.125   4.021  0.1498 -0.0118 -0.2155
93623W        W36561  14.333  22.765   2.155  0.1321 -0.4885 -0.2475
93624W        W36562  11.796  19.733   6.713  0.1528  0.0184 -0.0886
93625W        W36563  13.608  21.301   5.212  0.1095 -0.0453  0.0193
93626W        W36564  10.296  19.485   5.657 -0.1847  0.1038  0.1419
93627W        W36565  15.042  19.310   3.031  0.0505 -0.0955  0.3243
93628W        W36566  12.105  21.020   6.235  0.0201  0.0485  0.2708
93629W        W36567  15.194  19.835   2.801  0.1031  0.0070  0.3080
93630W        W36568  12.682  20.213   4.103 -0.0489 -0.0104  0.4334
93631W        W36569  12.404  19.177   4.273 -0.4189  0.4098  0.0298
93632W        W36570  12.509  17.086   7.691  0.0116 -0.0423  0.0504
93633W        W36571  12.107  21.083   7.367 -0.1782  0.2053 -0.0517
93634W        W36572  14.991  21.356   6.683 -0.1026 -0.1966 -0.1979
93635W        W36573  11.156  18.228   5.615  0.0077  0.0713  0.0964
93636W        W36574  12.291  18.258   4.518 -0.4258 -0.1879  0.5341
93637W        W36575  13.786  21.315   3.704 -0.3819  0.0419 -0.2319
93638W        W36576  11.480  20.003   5.312 -0.0309 -0.2064 -0.1333
93639W        W36577  13.574  18.978   4.481 -0.0708 -0.2988  0.1740
93640W        W36578  12.691  20.387   6.689 -0.2268 -0.0952 -0.2012
93641W        W36579  12.758  20.800   4.183  0.3967  0.1966  0.1213
93642W        W36580  14.788  19.634   6.545  0.0086  0.2573 -0.0138
93643W        W36581  14.130  19.930   3.473 -0.1570  0.0143 -0.1616
93644W        W36582  14.718  19.071   4.444 -0.1411  0.0419  0.2581
93645W        W36583  14.049  21.762   5.661 -0.0273 -0.1066  0.1106
93646W        W36584  13.705  19.423   6.942 -0.1721  0.0113 -0.0735
93647W        W36585  12.848  22.469   5.939  0.0665 -0.1321  0.2648
93648W        W36586  13.597  18.596   4.879 -0.0308 -0.1021 -0.2632
93649W        W36587  12.361  18.162   8.073 -0.2313 -0.0701 -0.4764
93650W        W36588  13.815  19.103   4.047  0.0134  0.3201  0.2064
93651W        W36589  13.316  20.561   5.458 -0.0330  0.0246 -0.1425
93652W        W36590  14.221  19.155   5.370  0.1154  0.0432 -0.0889
93653W        W36591  11.656  18.100   5.134  0.1528 -0.3575 -0.0430
93654W        W36592  13.181  18.383   3.227 -0.5804 -0.0485 -0.0591
93655W        W36593  11.911  20.827   5.657  0.2048 -0.0972  0.0113
93656W        W36594  13.202  20.488   5.961  0.2258 -0.1299  0.1882
93657W        W36595  10.435  19.177   9.271  0.2490 -0.1390 -0.0681
93658W        W36596  12.759  20.798   9.028  0.1744  0.1371  0.1390
93659W        W36597  12.528  19.060   7.450  0.0411 -0.1347  0.2197
93660W        W36598  14.468  18.210   7.354 -0.1917 -0.0660 -0.0045
93661W        W36599  10.387  20.499   7.910 -0.1380 -0.0707  0.0575
93662W        W36600  15.347  20.305   8.382  0.1531  0.2743 -0.2308
93663W        W36601  13.919  20.007   9.241  0.1567  0.3547 -0.1024
93664W        W36602  14.642  19.594   9.728 -0.2506 -0.1784  0.1641
93665W        W36603  13.722  19.183   7.638  0.1732 -0.3528 -0.2814
93666W        W36604   9.794  16.062  11.821 -0.2768 -0.0091  0.4176
93667W        W36605  11.276  18.322   7.156  0.0224 -0.1796  0.2365
93668W        W36606  11.353  17.942   9.472  0.1500 -0.1256  0.1597
93669W        W36607  14.585  19.983   9.356 -0.3229  0.3542  0.2271
93670W        W36608  11.955  19.674   8.008  0.1776  0.2797 -0.0575
93671W        W36609  13.064  20.783   9.724  0.2147  0.0391 -0.2577
93672W        W36610  12.452  19.734   8.094 -0.0173 -0.0259  0.4421
93673W        W36611  11.765  19.497   7.569  0.1147 -0.2235 -0.2860
93674W        W36612  13.299  18.182   9.496 -0.2742 -0.1233  0.0936
93675W        W36613  12.988  19.951   7.259  0.3223  0.1286  0.0702
93676W        W36614  11.993  20.475   8.399  0.0719  0.0825 -0.2507
93677W        W36615  10.863  19.518   9.524  0.0576 -0.2287  0.1626
93678W        W36616  13.308  19.626   9.830  0.3578 -0.1707  0.2207
93679W        W36617  14.388  18.319   8.911  0.2287  0.2471  0.2503
93680W        W36618  13.292  19.163   8.402  0.0863  0.0453  0.3110
93681W        W36619  12.236  21.498   7.637  0.1889 -0.0221  0.2697
93682W        W36620  10.874  20.846   8.705  0.0722 -0.1057 -0.2080
93683W        W36621  11.736  23.261   8.385  0.1454  0.0800 -0.3026
93684W        W36622  12.807  21.933   7.823 -0.3676 -0.1523 -0.0331
93685W        W36623  14.664  19.073   7.383  0.2207 -0.3026 -0.2591
93686W        W36624  12.116  21.363   6.989  0.1048  0.1510  0.0429
93687W        W36625  12.140  23.548   9.601 -0.2891 -0.1252 -0.0549
93688W        W36626  12.983  19.521   8.186  0.1367  0.1427  0.1594
93689W        W36627  12.577  21.186   6.219 -0.0360  0.1743  0.0705
93690W        W36628  12.442  20.301   9.111 -0.1147 -0.0519 -0.0331
93691W        W36629  13.563  20.338   8.804  0.0953  0.1245 -0.2933
93692W        W36630  12.461  22.352   7.458 -0.0053  0.1143 -0.2720
93693W        W36631  14.940  18.872   8.387 -0.2047  0.1417 -0.0099
93694W        W36632  13.162  18.517   7.073  0.2905  0.1695 -0.1364
93695W        W36633  14.263  18.114   7.882 -0.3266 -0.3997 -0.0742
93696W        W36634  10.903  18.406   8.865  0.0498 -0.0257  0.1439
93697W        W36635  10.555  21.726   9.550  0.1009 -0.2218 -0.0153
93698W        W36636  11.433  21.534   9.152 -0.1621  0.0449 -0.2154
93699W        W36637  13.306  19.746   8.535  0.5333  0.3050  0.1911
93700W        W36638  11.894  17.615   9.029 -0.2052  0.0731 -0.0853
93701W        W36639  11.992  21.112  10.000 -0.2143 -0.1012 -0.1803
93702W        W36640  11.966  20.407   8.956  0.0181 -0.1303 -0.3872
93703W        W36641  13.963  21.295   7.365 -0.1248 -0.1210  0.0819
93704W        W36642  15.013  20.559   8.187 -0.2112 -0.0770  0.0283
93705W        W36643  14.001  21.652   6.552  0.1942  0.0457  0.1955
93706W        W36644  12.612  19.010   8.950  0.1864 -0.1430 -0.1200
93707W        W36645  12.002  18.795   6.985  0.0648 -0.1296 -0.0510
93708W        W36646  14.947  17.740   7.598  0.0072 -0.1299  0.0001
93709W        W36647  12.638  20.025   9.478 -0.0358  0.2062  0.1317
93710W        W36648  13.476  19.342   8.999  0.2702 -0.3084 -0.3183
93711W        W36649  14.463  18.805   8.152 -0.0535 -0.0806  0.1181
93712W        W36650  13.897  18.300   8.706 -0.3076  0.0526  0.1433
93713W        W36651  14.055  18.891   8.431 -0.2439  0.0562 -0.0395
93714W        W36652  12.535  20.396   7.618  0.2251  0.0042  0.0885
93715W        W36653  12.023  19.232   7.229 -0.1306 -0.0268 -0.0041
93716W        W36654  15.245  20.073   9.694  0.1761 -0.0525  0.2301
93717W        W36655  14.826  19.613   8.471  0.1528 -0.0298 -0.0929
93718W        W36656  12.602  21.331   9.865  0.3760 -0.0350 -0.0408
93719W        W36657  11.806  21.639   7.843 -0.1074  0.0928  0.1417
93720W        W36658  11.330  20.767   9.034  0.3118  0.2044  0.1910
93721W        W36659  11.092  19.808   9.072 -0.0845  0.0909 -0.1419
93722W        W36660  11.309  18.866   9.557 -0.4608 -0.0690  0.1780
93723W        W36661  13.300  21.160   8.121  0.2306 -0.0099  0.1653
93724W        W36662  14.662  19.180   8.751 -0.2237  0.0004  0.0964
93725W        W36663  14.164  17.878   7.113 -0.1378  0.1312 -0.2648
93726W        W36664  10.291  21.117   8.642  0.0471 -0.1425  0.3917
93727W        W36665  13.510  20.914   7.691  0.0706  0.1450 -0.0526
93728W        W36666  14.816  18.200   7.712  0.0251 -0.0269  0.0228
93729W        W36667  13.659  19.689   7.587 -0.3450  0.0748 -0.0928
93730W        W36668  11.411  22.148   9.471 -0.0082 -0.0201  0.1620
93731W        W36669  10.989  22.388   9.610 -0.1996  0.0415 -0.0417
93732W        W36670  11.557  19.794   9.148  0.0759 -0.1716  0.1441
93733W        W36671  11.769  18.674   7.761  0.0831  0.0256 -0.2228
93734W        W36672  14.801  20.326   8.982 -0.3766  0.2205 -0.0289
93735W        W36673  12.576  21.080   8.560 -0.0269  0.0164 -0.0985
93736W        W36674  10.423  20.558   8.701 -0.0668 -0.0425  0.0492
93737W        W36675  12.794  20.803   7.759 -0.1547 -0.0546 -0.1057
93738W        W36676  11.371  22.028   8.987  0.0242  0.2184 -0.1927
93739W        W36677  15.112  21.345   7.983  0.2479  0.1141  0.3120
93740W        W36678  14.805  21.639   9.660 -0.0315  0.0215 -0.0648
93741W        W36679  12.136  19.495   8.769  0.1592 -0.2397 -0.1112
93742W        W36680  12.314  21.455   8.219 -0.0296  0.1269 -0.0477
93743W        W36681  13.099  21.408   9.673  0.0434  0.0533  0.1323
93744W        W36682  12.630  18.902   6.308  0.1443  0.4985 -0.0365
93745W        W36683  15.143  20.661   8.805 -0.0288  0.0921 -0.2485
93746W        W36684  12.366  20.619   8.736  0.1272 -0.0830  0.2767
93747W        W36685  14.206  19.607   9.373 -0.0348  0.1998 -0.3638
93748W        W36686  13.608  18.953   8.732  0.0468  0.0037  0.2743
93749W        W36687  10.671  19.370   7.546 -0.3295 -0.1398  0.1595
93750W        W36688  12.404  21.072   7.894  0.3377 -0.0016  0.1129
93751W        W36689  12.066  21.041   8.353 -0.1712  0.0494 -0.0016
93752W        W36690  11.329  20.276   9.067  0.1860 -0.1200 -0.1912
93753W        W36691  13.574  20.157   7.739 -0.0209 -0.1944  0.0715
93754W        W36692  14.076  17.902   8.989  0.1564 -0.0173  0.4041
93755W        W36693  12.493  19.540   9.139 -0.1193  0.0295  0.0346
93756W        W36694  13.542  18.730   9.219 -0.2456  0.2784 -0.4134
93757W        W36695  15.640  18.373   6.852  0.0815 -0.0040  0.0266
93758W        W36696  14.996  19.983   8.092  0.1657  0.2672  0.1195
93759W        W36697  14.067  17.751   7.659 -0.1336 -0.3826  0.0657
93760W        W36698  14.020  18.251   7.506  0.0181 -0.0523  0.1120
93761W        W36699  13.601  20.753   8.491  0.1280  0.0730  0.1253
93762W        W36700  13.262  18.692   9.697  0.2260 -0.5000 -0.0392
93763W        W36701  13.138  20.075   8.037  0.1192 -0.0467 -0.0351
93764W        W36702  13.773  20.553   8.070 -0.3173 -0.0126 -0.1321
93765W        W36703   9.522  22.051   9.747 -0.2404  0.0545 -0.1700
93766W        W36704  13.155  20.187   6.885  0.1342  0.2480  0.0895
93767W        W36705  11.453  19.508   9.628 -0.1203  0.0652 -0.1010
93768W        W36706  12.125  19.094   9.076 -0.4250  0.0097  0.1176
93769W        W36707  12.197  18.643   7.532 -0.3030 -0.1822  0.3135
93770W        W36708  10.638  21.903   6.497  0.2007 -0.0752  0.1729
93771W        W36709  16.011  18.183   9.829  0.0116  0.3339  0.0303
93772W        W36710  13.100  18.067   8.584 -0.3968  0.4366 -0.0885
93773W        W36711  13.226  19.234   7.871  0.2859  0.1901  0.1030
93774W        W36712  13.036  17.708   9.482 -0.0933  0.1676 -0.0554
93775W        W36713  12.123  20.607   6.980  0.3099  0.1799  0.0390
93776W        W36714  11.511  17.890   7.568  0.1833  0.1973 -0.3307
93777W        W36715  12.304  22.227   9.369  0.3086 -0.0456 -0.0726
93778W        W36716  13.082  19.663   9.338  0.0849  0.2797 -0.1379
93779W        W36717  11.958  17.119   8.352  0.0059 -0.1492  0.2563
93780W        W36718  14.134  21.620   7.063 -0.0183 -0.3463 -0.0306
93781W        W36719  12.742  19.911   8.922  0.0787 -0.0192 -0.1176
93782W        W36720  11.979  19.500   9.400  0.0015 -0.2189 -0.0654
93783W        W36721  11.845  20.868   8.850 -0.2290 -0.0481  0.2701
93784W        W36722  13.501  19.580   8.094  0.2234 -0.1512  0.0639
93785W        W36723  12.414  19.620   9.690  0.2689 -0.1405  0.1393
93786W        W36724  11.676  20.733   9.760 -0.0782 -0.2388 -0.0506
93787W        W36725  14.436  17.318   9.350  0.1273 -0.0930 -0.5591
93788W        W36726  11.502  22.401   8.453 -0.0417  0.2260 -0.2684
93789W        W36727  11.101  20.599   8.323 -0.2279  0.1699  0.2883
93790W        W36728  11.703  20.069   8.264 -0.2279 -0.0975 -0.0294
93791W        W36729  12.638  17.755   8.410  0.1575 -0.2804 -0.0333
93792W        W36730  13.511  21.271   8.552 -0.1577 -0.1013 -0.1895
93793W        W36731  12.004  22.666   9.619 -0.1201  0.0405  0.2744
93794W        W36732  11.495  17.258  10.139  0.1662  0.1729 -0.1308
93795W        W36733  11.654  21.319   8.624  0.1648  0.3164 -0.0018
93796W        W36734  14.097  19.205   7.224 -0.1953 -0.1486  0.0791
93797W        W36735  11.193  20.095   8.098  0.0416  0.1779 -0.1425
93798W        W36736  14.472  17.847   9.261  0.1189 -0.1418  0.0490
93799W        W36737  13.174  19.681   7.691  0.0905  0.1597 -0.4408
93800W        W36738  11.439  21.357   7.610 -0.0912 -0.1049  0.0431
93801W        W36739  14.669  20.234   9.795  0.1718 -0.2658 -0.0716
93802W        W36740  12.581  20.754   7.202 -0.4677  0.0900 -0.0982
93803W        W36741  10.057  21.566   9.121  0.0372  0.1085 -0.0488
93804W        W36742  14.022  19.545   9.817  0.1893 -0.0045  0.1930
93805W        W36743  10.568  19.835   9.302 -0.1188 -0.1576  0.0984
93806W        W36744  11.831  18.639   8.895  0.0415  0.2135  0.0613
93807W        W36745  11.941  19.108   9.759  0.0801  0.0440 -0.1273
93808W        W36746  13.445  19.913   9.089 -0.1743  0.1138  0.0924
93809W        W36747  13.997  20.591   9.572  0.0785 -0.1498 -0.3633
93810W        W36748  11.470  19.008   8.645 -0.3696 -0.2150  0.2118
93811W        W36749  14.806  20.831   7.748  0.1630  0.0184  0.0261
93812W        W36750  12.301  21.799   7.274 -0.1881 -0.1230  0.2547
93813W        W36751  11.275  20.356   9.941  0.1082 -0.1583  0.1430
93814W        W36752  11.314  20.151   7.239  0.0970  0.0903 -0.2303
93815W        W36753  13.408  20.421   9.316 -0.2590 -0.1574  0.2322
93816W        W36754  14.927  20.979   9.602 -0.3339  0.1458 -0.0389
93817W        W36755  12.624  21.227   7.393  0.0690 -0.1149  0.2523
93818W        W36756  11.819  21.819   8.875  0.2935  0.0403  0.0376
93819W        W36757  13.651  18.557   8.366  0.1429 -0.1285  0.0025
93820W        W36758  13.231  20.839   8.804  0.2905 -0.2741 -0.0087
93821W        W36759  12.627  18.380   7.390  0.0378 -0.2838  0.0004
93822W        W36760  13.378  19.336   7.335  0.0365 -0.0825  0.0955
93823W        W36761  12.339  18.480   9.102  0.2439 -0.1759  0.2076
93824W        W36762  15.180  20.021   9.187  0.3009  0.2339  0.1988
93825W        W36763  12.648  18.259   6.916  0.2604  0.3797  0.0638
93826W        W36764  11.697  19.163   8.090 -0.0219  0.2352  0.0120
93827W        W36765  12.690  21.065   9.471 -0.0582  0.1706  0.0258
93828W        W36766  15.334  21.512   9.439  0.1295 -0.0963  0.0187
93829W        W36767  12.523  20.175   7.133 -0.3740 -0.0732  0.0107
93830W        W36768  15.711  18.298   9.185 -0.0512 -0.1507 -0.1854
93831W        W36769  12.818  20.497   8.583 -0.1311 -0.0172 -0.1500
93832W        W36770  14.108  18.994   7.914 -0.0586  0.1046 -0.3060
93833W        W36771  13.618  20.108   8.281  0.2395 -0.2347 -0.1177
93834W        W36772  12.059  20.667   7.932  0.3128 -0.4849  0.0565
93835W        W36773  13.784  19.308   8.435  0.3085  0.2454  0.0603
93836W        W36774  13.784  19.139   9.799 -0.4786 -0.1213 -0.1184
93837W        W36775  14.579  21.233   9.970  0.1179  0.1408  0.0941
93838W        W36776  14.408  18.620   7.676 -0.0131 -0.3614  0.1389
93839W        W36777  15.614  17.311   8.203 -0.0152  0.0359 -0.0307
93840W        W36778  15.370  18.735   8.599 -0.0779  0.0161 -0.1584
93841W        W36779  13.459  18.716   7.547  0.2521  0.1199  0.1309
93842W        W36780  10.870  20.793   9.228 -0.2751 -0.2604 -0.2343
93843W        W36781  11.822  19.839   8.697 -0.1377 -0.0729 -0.0436
93844W        W36782  14.266  20.933   7.624 -0.2227 -0.1675  0.1228
93845W        W36783  12.971  19.507   8.892  0.0283 -0.3486 -0.0561
93846W        W36784  12.737  18.493   8.787  0.2127 -0.0462 -0.3573
93847W        W36785  10.883  20.264   9.282 -0.3606 -0.2775  0.1891
93848W        W36786  12.291  19.277   8.264 -0.0049 -0.0235 -0.0710
93849W        W36787  12.605  19.540   8.528 -0.0619 -0.0500 -0.1491
93850W        W36788  12.115  20.310   9.484 -0.3564 -0.1718 -0.1958
93851W        W36789  13.254  18.801   6.160  0.2646  0.3447 -0.1829
93852W        W36790  12.633  21.538   6.963 -0.0759  0.1548  0.2298
93853W        W36791  12.725  18.928   8.406 -0.0164  0.1205  0.2215
93854W        W36792  11.575  20.597   8.112 -0.1154  0.0293 -0.0717
93855W        W36793  12.328  21.013   8.978 -0.0247  0.1580 -0.0208
93856W        W36794  11.336  14.646   9.804 -0.1330  0.0541 -0.2607
93857W        W36795  14.012  18.655   9.037  0.0431  0.0067 -0.0972
93858W        W36796  12.849  18.192   9.832 -0.2285 -0.0781  0.0022
93859W        W36797  12.305  20.348  10.051  0.1096  0.2890 -0.0488
93860W        W36798  16.011  19.105   8.401 -0.1562 -0.3645  0.0668
93861W        W36799  14.147  20.046   9.722 -0.0975 -0.1571 -0.0770
93862W        W36800  12.206  18.911   8.631  0.0843 -0.0178 -0.0943
93863W        W36801  11.904  22.461   7.299 -0.1986  0.1197  0.1657
93864W        W36802  10.189  23.439   9.213 -0.2134 -0.0058  0.3626
93865W        W36803  11.966  22.038   7.554 -0.0686  0.0637 -0.0604
93866W        W36804  14.068  21.037   8.569  0.0628  0.0729 -0.0185
93867W        W36805  14.600  20.747   8.703 -0.0038 -0.2197  0.0819
93868W        W36806  13.643  21.417   7.878 -0.0857  0.1802 -0.2657
93869W        W36807  12.610  18.516   7.863  0.0803 -0.1569 -0.0356
93870W        W36808  11.724  19.942   9.632 -0.1350  0.0208 -0.0290
93871W        W36809  11.521  21.263   6.581 -0.1034 -0.2267 -0.1054
93872W        W36810  14.561  21.418   6.972  0.3514 -0.0550 -0.4308
93873W        W36811  11.797  21.588   7.325 -0.0549  0.5185 -0.0972
93874W        W36812  13.836  19.078   5.781 -0.1568  0.1634  0.1881
93875W        W36813  15.088  20.002   8.664  0.0687  0.4165  0.2746
93876W        W36814  14.661  18.351   8.136 -0.1930 -0.1127  0.0138
93877W        W36815  13.666  20.208   9.735  0.1568  0.1354  0.0711
93878W        W36816  12.129  18.349   7.143 -0.2850 -0.0630 -0.0048
93879W        W36817  14.482  21.535   6.517 -0.4544  0.1098 -0.3386
93880W        W36818  12.854  19.888   9.918  0.1037 -0.2357  0.2726
93881W        W36819  12.975  18.622   9.215 -0.0324 -0.2145  0.2127
93882W        W36820  12.740  18.088   9.179  0.0080 -0.1792  0.2388
93883W        W36821  14.014  19.495   7.946 -0.2569  0.1638 -0.2803
93884W        W36822  13.095  18.785   7.988  0.0608 -0.0443  0.1347
93885W        W36823  11.312  21.491   6.986  0.2337  0.2077 -0.1144
93886W        W36824  10.963  22.925   9.412 -0.3529 -0.1285  0.2878
93887W        W36825  14.699  22.890   9.475  0.0567 -0.0939  0.3041
93888W        W36826  10.088  18.134   8.793 -0.2079 -0.0887 -0.2874
93889W        W36827  14.308  19.384   8.461 -0.1274 -0.1181  0.2075
93890W        W36828   9.886  22.592   9.482  0.0793 -0.1350  0.0731
93891W        W36829  10.990  20.335   8.732  0.1139  0.1634 -0.1138
93892W        W36830  13.940  18.765   7.397 -0.2715 -0.0484 -0.0605
93893W        W36831  13.122  18.956   8.856 -0.1670  0.1910  0.3286
93894W        W36832   8.271  21.383   9.868  0.3751 -0.0924  0.0302
93895W        W36833  14.016  19.702   7.245  0.0288  0.0131 -0.1580
93896W        W36834  14.346  19.450   7.550 -0.1620 -0.3230 -0.0542
93897W        W36835  10.319  20.251   9.638  0.0196  0.1455 -0.0832
93898W        W36836  12.148  20.122   7.932  0.2313  0.0378  0.0584
93899W        W36837  12.863  19.001   9.823 -0.1366  0.3001 -0.4683
93900W        W36838  11.220  19.438   8.722  0.0809  0.0228  0.2422
93901W        W36839  14.051  19.841   8.446  0.0376  0.2008 -0.0280
93902W        W36840  13.806  18.110   9.643  0.2284 -0.0322  0.2406
93903W        W36841  12.495  22.196   8.849 -0.0674 -0.3016 -0.0232
93904W        W36842  14.381  20.426   9.293 -0.2661  0.0713 -0.1635
93905W        W36843  11.591  20.358   9.429  0.0601 -0.2993  0.1998
93906W        W36844  13.048  21.446   8.623 -0.1968 -0.1772 -0.1054
93907W        W36845  15.651  22.801   9.945  0.1883 -0.0403 -0.0669
93908W        W36846  12.913  18.764   7.475  0.0669 -0.0139 -0.1844
93909W        W36847  11.989  20.774   9.382  0.2785 -0.1540  0.2650
93910W        W36848  11.170  21.306   8.779  0.1967 -0.3822  0.1619
93911W        W36849  15.443  18.811   9.184 -0.0746  0.2779  0.0064
93912W        W36850  12.336  19.573   6.544 -0.3472 -0.1465  0.1125
93913W        W36851  13.159  20.067   9.549 -0.2546 -0.2888  0.0598
93914W        W36852  10.970  19.682   7.868  0.0065 -0.0594 -0.1553
93915W        W36853  13.255  20.379   8.409 -0.0164 -0.3045  0.4361
93916W        W36854  13.108  20.846   7.423 -0.1268 -0.1300  0.0967
93917W        W36855  14.442  20.903   9.580 -0.1356 -0.0818  0.1558
93918W        W36856  12.412  19.148   9.490  0.2785 -0.0287  0.0410
93919W        W36857  15.019  20.523   9.387  0.3193  0.2019 -0.0639
93920W        W36858  12.309  17.924   9.368  0.4128 -0.0702 -0.0509
93921W        W36859  14.485  17.395   6.992  0.2368  0.0562  0.2126
93922W        W36860  13.870  18.571   7.878  0.2438  0.1723 -0.1687
93923W        W36861  13.709  18.193   9.181  0.1294 -0.3483  0.2964
93924W        W36862  10.892  20.546   7.864  0.1358  0.0728 -0.1133
93925W        W36863  12.209  19.193   6.039  0.3110  0.1502 -0.1569
93926W        W36864  11.407  20.368   7.717  0.2731  0.0215  0.1030
93927W        W36865  13.253  21.108   9.297 -0.0153 -0.0644 -0.1758
93928W        W36866  12.779  18.326   8.311 -0.0975 -0.1088  0.1211
93929W        W36867  14.063  20.440   8.498  0.0497 -0.2855  0.1222
93930W        W36868  11.810  18.668   8.371  0.0768  0.0867 -0.0113
93931W        W36869  10.467  18.820   8.410 -0.0039 -0.1234 -0.0305
93932W        W36870  13.936  21.597   8.317 -0.1296  0.0994  0.0729
93933W        W36871  14.123  21.343   7.926  0.2896  0.1517 -0.0937
93934W        W36872  12.299  18.432   8.487 -0.2140  0.0274 -0.1627
93935W        W36873  10.263  21.137   7.313  0.0926  0.1168 -0.0001
93936W        W36874  12.062  19.096   7.705 -0.1096 -0.0715  0.1567
93937W        W36875  10.103  19.438   9.625 -0.1078  0.3057 -0.1113
93938W        W36876  12.638  20.261   8.141  0.2649 -0.2745  0.0511
93939W        W36877  14.284  20.974   7.127  0.0827 -0.0047  0.0500
93940W        W36878  10.049  18.231   9.341  0.2537 -0.0334 -0.2486
93941W        W36879  14.765  20.303   7.716  0.2198 -0.1386 -0.0737
93942W        W36880  13.647  18.956   8.067  0.2328 -0.0815  0.1075
93943W        W36881  13.870  17.636   9.386 -0.1386 -0.0010 -0.0581
93944W        W36882  14.264  20.104   8.897 -0.0503 -0.2499  0.0428
93945W        W36883  15.221  17.658   9.572 -0.0582 -0.0868 -0.3656
93946W        W36884  11.408  18.763   8.164 -0.0856  0.1103  0.0265
93947W        W36885  13.250  18.253   8.097  0.0332  0.1021  0.4064
93948W        W36886  13.565  20.998   7.182  0.1633  0.2338 -0.3568
93949W        W36887  11.332  19.842  10.060  0.0873  0.1487 -0.1667
93950W        W36888  12.827  19.373   6.609 -0.0356 -0.0846 -0.2480
93951W        W36889  13.059  20.325   9.032 -0.0156 -0.2507 -0.0877
93952W        W36890  10.970  20.162   7.605 -0.0268 -0.1364 -0.2174
93953W        W36891  15.364  19.355   8.607  0.0069  0.1096  0.2285
93954W        W36892  14.339  20.813   8.172  0.3420 -0.0330  0.1588
93955W        W36893  12.781  21.377   8.181 -0.1516  0.1051  0.1344
93956W        W36894  13.682  21.010   8.962  0.1148 -0.1648  0.3328
93957W        W36895  11.712  18.311   9.921  0.1811 -0.0136 -0.1517
93958W        W36896  11.233  21.005   7.847 -0.0671  0.3718  0.1654
93959W        W36897  12.869  19.227   9.330  0.0579 -0.0713 -0.2553
93960W        W36898  14.932  18.877   9.388  0.0476 -0.0362 -0.0054
93961W        W36899  14.281  18.870   9.967  0.1163 -0.0481 -0.1420
93962W        W36900  13.595  18.262   7.229  0.0469 -0.1335  0.0769
93963W        W36901  14.123  21.451   9.755  0.0441  0.0355  0.0477
93964W        W36902  12.377  20.104   8.525 -0.2305 -0.0971 -0.0876
93965W        W36903  12.751  24.920   2.510  0.1232  0.1460  0.1351
93966W        W36904  13.643  24.786   0.229  0.0117  0.2601 -0.0037
93967W        W36905  14.458  22.841  31.368 -0.0671  0.2379 -0.0906
93968W        W36906  15.616  24.398  31.459  0.1813  0.1189  0.2137
93969W        W36907  11.077  23.017   1.291  0.2943 -0.2103  0.0559
93970W        W36908  13.169  26.438   0.806 -0.0709  0.1043  0.3498
93971W        W36909  11.867  21.757   2.742  0.0679 -0.1661  0.0442
93972W        W36910  12.639  24.810   1.605 -0.2037 -0.1363 -0.0808
93973W        W36911  15.195  24.745   2.755  0.1584 -0.1310  0.1515
93974W        W36912  14.714  22.663   0.219 -0.0568  0.3264 -0.0967
93975W        W36913  13.733  23.362   4.294 -0.1670 -0.0156 -0.0404
93976W        W36914  11.602  24.526   1.814 -0.0044  0.2812  0.1775
93977W        W36915  12.148  21.978  30.495 -0.1973 -0.0695 -0.0451
93978W        W36916  12.486  22.629   1.762 -0.3656  0.2447 -0.0752
93979W        W36917  14.711  23.046   2.688  0.2242 -0.1001 -0.1733
93980W        W36918  12.171  23.481   0.237  0.1602  0.0387 -0.2806
93981W        W36919  13.114  23.266   1.930 -0.0606  0.1266 -0.0165
93982W        W36920  13.194  21.887   0.999 -0.0426  0.1396 -0.0341
93983W        W36921  14.488  24.786  30.981 -0.0310 -0.3735  0.1543
93984W        W36922  14.055  23.716   3.388 -0.1665 -0.4593 -0.0035
93985W        W36923  14.999  21.329   2.380  0.0663  0.1876 -0.0142
93986W        W36924  13.702  25.598   0.202 -0.0762  0.0564 -0.1119
93987W        W36925  11.863  23.683  31.843 -0.0021 -0.0691  0.1598
93988W        W36926  10.451  23.219   2.352 -0.0972 -0.1605  0.1686
93989W        W36927  10.603  24.096   2.697 -0.1384 -0.1095 -0.1956
93990W        W36928  14.103  23.148   1.294  0.0768 -0.0457 -0.1466
93991W        W36929  14.577  21.681   0.195  0.0799 -0.1937 -0.0886
93992W        W36930  12.895  25.273  31.414  0.1652  0.1630 -0.3842
93993W        W36931  13.317  25.841   1.763 -0.0329 -0.1019  0.1833
93994W        W36932  13.962  22.421   1.079  0.0201 -0.0398 -0.1181
93995W        W36933  11.605  23.623   0.850  0.2644 -0.0206 -0.0986
93996W        W36934  10.508  25.395   1.449  0.1652  0.0798  0.0605
93997W        W36935  13.703  23.277   1.060 -0.2274 -0.0607  0.1249
93998W        W36936  15.695  23.260  31.795 -0.0883 -0.1204  0.2045
93999W        W36937  15.665  24.731   0.756  0.4870  0.1399 -0.0215
94000W        W36938  12.058  26.414   3.006 -0.0890 -0.3463 -0.0295
94001W        W36939  12.642  25.134   0.347  0.1583  0.2428 -0.2131
94002W        W36940  13.797  25.079   2.293 -0.0234  0.0644  0.0425
94003W        W36941  12.890  25.187   3.336  0.0104  0.2572  0.3147
94004W        W36942  12.762  22.841   2.151  0.0589 -0.1117  0.1257
94005W        W36943  13.098  21.608  31.967  0.0679 -0.3752 -0.0674
94006W        W36944  13.686  26.649   0.282  0.0200 -0.1365  0.1578
94007W        W36945  13.850  25.166   0.451 -0.2959 -0.1741 -0.0382
94008W        W36946  12.059  23.968   3.784  0.3397  0.1013  0.0456
94009W        W36947  11.722  24.812   1.380  0.1015  0.1786  0.0914
94010W        W36948  15.596  23.256   2.155 -0.3386  0.0626 -0.0802
94011W        W36949  13.842  24.106   0.824 -0.1546 -0.1625 -0.0014
94012W        W36950  14.700  22.374  31.166  0.2502  0.0505 -0.4137
94013W        W36951  13.902  22.765  30.071 -0.2774 -0.1196 -0.2005
94014W        W36952  13.747  21.455  31.055  0.0701 -0.1733 -0.3422
94015W        W36953  13.145  21.369   1.170  0.2889 -0.1599 -0.3520
94016W        W36954  13.132  25.342   2.540 -0.0283  0.0680 -0.0068
94017W        W36955  12.094  21.404   0.840 -0.2216  0.0484  0.3749
94018W        W36956  14.970  24.381   3.577  0.1783  0.3848  0.0943
94019W        W36957  12.540  24.632  30.528 -0.1563  0.0661  0.2117
94020W        W36958  15.103  22.995   2.298  0.2848  0.0692 -0.0030
94021W        W36959  12.801  23.045   1.567  0.0268 -0.0518 -0.1588
94022W        W36960  11.619  23.078   1.557 -0.4007  0.0251 -0.4181
94023W        W36961  13.636  26.008   0.939  0.0005  0.1775  0.0419
94024W        W36962  15.314  25.391   2.464 -0.0634 -0.1486  0.1444
94025W        W36963  13.556  24.298   0.051 -0.0136  0.2427 -0.0086
94026W        W36964  13.068  24.345  31.805  0.2708 -0.4582 -0.0776
94027W        W36965  11.130  24.399   2.675  0.0285  0.0482 -0.2313
94028W        W36966  12.304  23.020   2.007  0.1453 -0.0822 -0.3370
94029W        W36967  13.063  22.519  30.926  0.3040 -0.1117 -0.1049
94030W        W36968  15.384  24.165   2.725 -0.1950 -0.0548 -0.1171
94031W        W36969  10.642  23.273   1.332  0.0483  0.0593  0.2128
94032W        W36970  13.724  21.774  31.479  0.2108 -0.4070 -0.1195
94033W        W36971  13.384  24.082  31.433  0.1119 -0.5357 -0.0304
94034W        W36972  14.624  23.517   1.260  0.0735  0.0219 -0.0981
94035W        W36973  13.000  24.838  30.608  0.1824 -0.0610 -0.3708
94036W        W36974  13.891  22.427   2.087 -0.0497 -0.1192  0.2004
94037W        W36975  14.420  22.103   1.029 -0.1450  0.1610  0.4944
94038W        W36976  12.141  25.096  31.055  0.0204  0.2778 -0.1977
94039W        W36977  12.751  23.542   0.256  0.1607  0.0435  0.3916
94040W        W36978  15.809  24.172   0.801  0.2250  0.1848  0.2893
94041W        W36979  13.993  23.550   0.062  0.0651  0.3628  0.0680
94042W        W36980  10.923  23.909   3.145 -0.1499 -0.2791  0.1728
94043W        W36981  12.956  23.930   1.890 -0.3343 -0.0725 -0.2094
94044W        W36982  12.574  24.875   3.651  0.1028 -0.3077 -0.0456
94045W        W36983  12.895  25.468   0.585  0.1032 -0.0710  0.1565
94046W        W36984  11.382  24.021   0.654  0.1428  0.1128  0.2012
94047W        W36985  12.157  24.044   0.125 -0.2995  0.1713  0.3371
94048W        W36986   9.794  23.590   3.951 -0.0820 -0.1179 -0.0233
94049W        W36987  13.742  24.067   2.495  0.1011  0.1133  0.3454
94050W        W36988  13.357  20.489  30.891  0.0131 -0.1858 -0.1710
94051W        W36989  13.628  22.119   1.706  0.2322 -0.2756 -0.2328
94052W        W36990  14.242  22.431   0.662  0.2578  0.2486  0.1145
94053W        W36991  12.660  24.612   1.178 -0.0735  0.1187 -0.1568
94054W        W36992  15.235  25.253   0.160 -0.2673 -0.0895 -0.0118
94055W        W36993  13.901  23.218   0.459 -0.1365 -0.1759  0.2772
94056W        W36994  13.488  26.152   0.483  0.0760 -0.2183 -0.3452
94057W        W36995  12.308  22.898   2.738 -0.1174  0.1037  0.3364
94058W        W36996  12.496  23.166   0.010 -0.1332  0.1436 -0.0169
94059W        W36997  12.125  22.029   3.120  0.1443 -0.0737 -0.2092
94060W        W36998  10.469  21.982   1.738 -0.1368 -0.0156 -0.0787
94061W        W36999  15.667  23.798   2.918  0.1838  0.3719 -0.0653
94062W        W37000  11.349  20.596  30.646 -0.0551 -0.0580 -0.4830
94063W        W37001  13.529  22.892   0.168 -0.1404  0.0523 -0.1773
94064W        W37002  12.461  23.170   1.099  0.0287  0.2624  0.1831
94065W        W37003  12.391  25.344  31.861  0.0460  0.3100  0.0438
94066W        W37004  14.036  20.773   2.178  0.1817  0.2310  0.1301
94067W        W37005  13.245  24.989   0.487  0.0908 -0.0145 -0.1117
94068W        W37006  14.021  24.854   3.479  0.0278  0.2276 -0.0201
94069W        W37007  12.616  25.586   1.583 -0.0285 -0.1132 -0.1954
94070W        W37008  12.744  22.765   2.963 -0.0064  0.1876  0.2193
94071W        W37009  13.098  19.471  31.347 -0.0404 -0.0468 -0.1341
94072W        W37010  11.338  24.165   1.674  0.2836  0.1503 -0.1931
94073W        W37011  12.542  24.116   2.246  0.1501  0.1204 -0.0654
94074W        W37012  12.009  22.518  30.821 -0.0830  0.0743 -0.0698
94075W        W37013  15.733  23.834   1.180  0.1217 -0.2427 -0.1416
94076W        W37014  13.296  24.102   1.524 -0.0248  0.1686  0.2137
94077W        W37015  12.964  23.419   3.148  0.1782 -0.2660 -0.1704
94078W        W37016  14.608  22.191   1.890  0.1155  0.1177  0.0194
94079W        W37017  16.608  23.966   1.677 -0.2304  0.2225  0.2361
94080W        W37018  14.387  23.215   0.172 -0.1247  0.1471 -0.0302
94081W        W37019  13.075  21.309  30.899 -0.0435  0.0332  0.0542
94082W        W37020  13.383  24.532   2.638 -0.0594 -0.0591  0.4993
94083W        W37021  10.433  24.666  30.949 -0.4210  0.0207  0.0492
94084W        W37022  10.958  23.790   1.451  0.1077 -0.1792  0.2326
94085W        W37023  13.880  27.744   0.279 -0.1237  0.0657 -0.0125
94086W        W37024  13.492  20.177   1.731  0.2965 -0.2124 -0.1168
94087W        W37025  11.865  25.397   3.114  0.1971  0.1384 -0.0504
94088W        W37026  12.654  23.583   3.549  0.0135  0.0754 -0.1052
94089W        W37027  11.735  23.718   0.348 -0.1127  0.1276 -0.1613
94090W        W37028  11.776  23.070   2.140  0.4166  0.0443 -0.5754
94091W        W37029  14.392  21.588   0.998  0.1420 -0.0677 -0.3477
94092W        W37030  14.154  22.933  30.870 -0.2343  0.2159 -0.1333
94093W        W37031  14.251  25.879   1.563 -0.0571 -0.2879 -0.0334
94094W        W37032  14.361  24.293   0.736  0.0197 -0.0392 -0.0206
94095W        W37033  13.519  24.319  31.029 -0.0915  0.1717 -0.2294
94096W        W37034  13.434  22.227  29.364 -0.3930  0.0862  0.0141
94097W        W37035  11.763  24.560   3.687 -0.0519  0.0109 -0.4674
94098W        W37036  13.624  23.859  31.830  0.1424 -0.1110 -0.0635
94099W        W37037  12.030  24.379   2.163 -0.0138 -0.2472  0.3537
94100W        W37038  13.538  22.072  30.247  0.3321  0.0230  0.1710
94101W        W37039  14.193  24.882   0.101  0.3891  0.2341 -0.0055
94102W        W37040  11.496  23.498   2.096  0.2300  0.2145  0.3134
94103W        W37041  13.635  24.713   3.164 -0.1608 -0.1297  0.1124
94104W        W37042  13.155  25.940   0.805 -0.2773 -0.0483  0.1834
94105W        W37043  11.730  21.848   2.040  0.0086  0.1246  0.4729
94106W        W37044  12.858  22.468  30.426 -0.0254 -0.1908 -0.2606
94107W        W37045  12.239  22.393   0.577 -0.1629  0.0091  0.0320
94108W        W37046  12.428  25.054  31.428 -0.2379  0.0843 -0.4249
94109W        W37047  14.750  21.669   0.731 -0.0579  0.1332  0.2249
94110W        W37048  14.556  23.071   1.502  0.1421  0.0226 -0.0659
94111W        W37049  13.102  21.908   2.937  0.0889  0.0289  0.0342
94112W        W37050  14.921  23.939   2.204 -0.0118  0.1511 -0.2130
94113W        W37051  14.346  23.263  31.694 -0.0207 -0.1811 -0.0746
94114W        W37052  13.366  23.651   1.705 -0.1841 -0.0278 -0.0204
94115W        W37053  11.798  22.232  31.729 -0.2637 -0.1035  0.1940
94116W        W37054  13.955  23.154   3.364 -0.0455 -0.1222  0.0175
94117W        W37055  12.003  23.628   2.278 -0.4600 -0.1078 -0.3273
94118W        W37056  11.264  25.932   1.629  0.0430  0.3409  0.0808
94119W        W37057  15.030  23.829   2.676  0.0032 -0.2114 -0.3599
94120W        W37058  13.900  23.085  31.825 -0.0981 -0.1420 -0.1497
94121W        W37059  13.449  23.714   4.054  0.1303 -0.3103 -0.2770
94122W        W37060  13.158  22.859  31.315 -0.2097 -0.1273  0.0911
94123W        W37061  12.926  23.618   0.766 -0.0223 -0.0801 -0.0252
94124W        W37062  14.138  24.384   1.198  0.0609 -0.1680 -0.1874
94125W        W37063  12.178  22.323   1.531  0.0354  0.2143 -0.2353
94126W        W37064  13.169  24.024   2.502  0.0889 -0.0833 -0.0073
94127W        W37065  12.760  25.647  30.942  0.3292 -0.0624 -0.0539
94128W        W37066  15.187  24.064   1.263 -0.0047 -0.0499  0.1271
94129W        W37067  12.982  24.638   0.318 -0.2554  0.0046 -0.0393
94130W        W37068  12.377  20.626   1.993 -0.3777 -0.0137 -0.1239
94131W        W37069  12.559  24.703   0.707  0.1550 -0.0154  0.3181
94132W        W37070  12.688  22.425  31.657  0.1579  0.2848 -0.1765
94133W        W37071  12.402  23.414  31.301  0.3746  0.0238 -0.2008
94134W        W37072  14.402  22.630   1.696  0.1816  0.0186  0.3142
94135W        W37073  13.663  24.401   1.327  0.1713  0.4165  0.1585
94136W        W37074  11.285  22.989   2.131  0.2521  0.0558  0.1223
94137W        W37075  12.328  24.358   1.729 -0.2249 -0.0299  0.0298
94138W        W37076  11.313  24.243   2.201 -0.1482  0.0710  0.0215
94139W        W37077  14.452  23.818   2.002 -0.2154 -0.0244 -0.1362
94140W        W37078  12.285  21.955  31.087 -0.0295 -0.1356 -0.0325
94141W        W37079  14.214  24.720   2.174  0.0539  0.0451  0.0193
94142W        W37080  11.653  23.443   3.025  0.0992 -0.1489 -0.1480
94143W        W37081  11.612  23.256   0.081  0.2763 -0.1099 -0.1046
94144W        W37082  15.925  22.773   3.538  0.0805  0.4812  0.0165
94145W        W37083  12.224  25.649   2.620  0.0260  0.1818 -0.1537
94146W        W37084  12.954  25.657   2.134 -0.2468 -0.0842 -0.1989
94147W        W37085  12.545  24.581  31.157 -0.3238 -0.0698 -0.0031
94148W        W37086  12.677  24.027   1.490  0.2366  0.0006 -0.0909
94149W        W37087  13.051  22.749   2.547  0.4115 -0.0147 -0.1877
94150W        W37088  14.632  24.603   1.689 -0.3914 -0.0845  0.0824
94151W        W37089  11.440  23.686   1.610 -0.0288  0.0466  0.0353
94152W        W37090  12.835  22.319   1.199 -0.1060 -0.3040  0.1423
94153W        W37091  14.176  24.041   1.580  0.3265 -0.0246 -0.2624
94154W        W37092  14.242  25.135   0.707 -0.1888  0.0196 -0.1042
94155W        W37093  14.320  22.746  31.864  0.0934  0.3048 -0.1692
94156W        W37094  13.457  24.980   1.385 -0.0120 -0.0665 -0.2436
94157W        W37095  13.623  21.801   2.108 -0.0129 -0.0840 -0.0730
94158W        W37096  14.314  26.253  31.893  0.1623 -0.4978 -0.1943
94159W        W37097  13.116  24.951   2.877 -0.0464  0.1116 -0.2009
94160W        W37098  12.465  24.373  31.757  0.0244 -0.0262 -0.0415
94161W        W37099  10.050  24.070   2.138 -0.2078  0.0795  0.3508
94162W        W37100  12.927  23.324   1.154  0.0180 -0.2159  0.2823
94163W        W37101  13.130  22.107   1.634  0.1351 -0.3503 -0.0813
94164W        W37102  12.254  24.510   3.516 -0.0633 -0.2340 -0.1598
94165W        W37103  12.727  24.102   0.114 -0.6807 -0.2399 -0.0619
94166W        W37104  11.862  24.098   3.226 -0.3212 -0.1858  0.1255
94167W        W37105  16.049  22.250   0.052  0.0703  0.2084 -0.0222
94168W        W37106  13.403  22.831   0.635  0.0442 -0.0941  0.1046
94169W        W37107  14.084  22.184   1.689 -0.0223  0.2623  0.1650
94170W        W37108  14.543  20.754   0.595  0.0129 -0.0167  0.1650
94171W        W37109  12.827  23.408  30.710  0.1397  0.1229  0.0510
94172W        W37110  14.315  22.749   2.967  0.1097 -0.0224  0.1087
94173W        W37111  11.889  23.287   1.145  0.0214 -0.5906  0.0743
94174W        W37112  14.317  23.764   0.581 -0.0837  0.0565 -0.0013
94175W        W37113  12.206  22.962   0.778  0.2998 -0.1765 -0.0419
94176W        W37114  13.653  26.150   3.662 -0.0364  0.2740 -0.0385
94177W        W37115  12.027  23.792   4.284  0.2487 -0.4020 -0.1417
94178W        W37116  13.354  22.400   1.248 -0.0954 -0.0393 -0.1304
94179W        W37117  11.526  21.588  31.756  0.1244 -0.1098  0.0944
94180W        W37118  12.658  23.321   2.177 -0.2481  0.2305 -0.0161
94181W        W37119  13.758  23.904   1.327  0.2302 -0.1888  0.0796
94182W        W37120  13.126  23.213   0.212  0.0948 -0.0381 -0.1237
94183W        W37121  14.878  22.554   0.946 -0.0885  0.1105  0.2547
94184W        W37122  12.161  23.066   1.518  0.3805 -0.3475  0.2174
94185W        W37123  14.293  21.925   0.538 -0.0484 -0.1767  0.0582
94186W        W37124  12.900  23.351  31.666 -0.1240 -0.1430 -0.0026
94187W        W37125  11.565  23.904   2.449 -0.0280  0.2729  0.3266
94188W        W37126  13.088  22.243   2.570 -0.1785  0.1539  0.2419
94189W        W37127  16.059  22.404   1.645  0.3580  0.1094  0.1432
94190W        W37128  13.142  22.877   1.112  0.1117  0.0174  0.0940
94191W        W37129  15.077  22.404   1.798 -0.0833  0.0489  0.1726
94192W        W37130  13.498  22.977   3.724 -0.2415 -0.1162  0.2598
94193W        W37131  13.046  23.564   2.308 -0.3185 -0.0139 -0.0757
94194W        W37132  11.960  23.513   1.743 -0.0997  0.2814 -0.2187
94195W        W37133  14.294  25.242   2.202 -0.2568  0.2407  0.1381
94196W        W37134  14.702  23.446   0.608 -0.0436 -0.2415 -0.1399
94197W        W37135  14.414  21.350   0.552 -0.4332  0.0534  0.2698
94198W        W37136  15.274  21.930   1.687 -0.0271 -0.2070  0.4306
94199W        W37137  13.235  22.167  30.643 -0.1291  0.1911 -0.3309
94200W        W37138  13.024  24.094   1.096 -0.1969  0.0499 -0.0647
94201W        W37139  14.993  24.246   3.005  0.1128 -0.1611 -0.1876
94202W        W37140  13.553  23.245  31.395  0.1043  0.0225  0.3170
94203W        W37141  14.647  23.397   2.300  0.0152 -0.1388  0.0604
94204W        W37142  14.237  25.807  30.911  0.0431 -0.0418  0.0915
94205W        W37143  13.762  23.934   0.327 -0.2087  0.1312 -0.0548
94206W        W37144  14.284  22.174  30.696 -0.0914 -0.2498  0.2207
94207W        W37145  11.732  24.042   1.971 -0.3224 -0.1738 -0.1192
94208W        W37146  11.000  26.021   2.082  0.0649 -0.1160 -0.4218
94209W        W37147  12.614  23.033  31.101  0.0491  0.1331  0.0249
94210W        W37148  13.322  23.980   0.737  0.1515 -0.0719 -0.0474
94211W        W37149  13.618  23.189   1.992  0.0496  0.3125  0.2541
94212W        W37150  13.944  24.492   3.827  0.2721 -0.2575  0.0457
94213W        W37151  12.810  22.179   0.438  0.1569  0.2490 -0.4675
94214W        W37152  14.075  21.796   2.291  0.3250 -0.0258 -0.3401
94215W        W37153  12.393  24.427   0.269 -0.1691  0.0701 -0.0681
94216W        W37154  12.835  21.233   1.544  0.0118 -0.2121  0.0147
94217W        W37155  12.982  24.511   2.313  0.1667 -0.0446  0.2358
94218W        W37156  11.094  23.826   2.016 -0.0671  0.4745  0.3640
94219W        W37157  12.185  24.940   0.357  0.5553 -0.2145 -0.3541
94220W        W37158  13.957  22.894   1.726  0.1784  0.2000  0.2573
94221W        W37159  13.871  22.520  31.843  0.3712  0.0482  0.2818
94222W        W37160  13.327  25.329   2.062 -0.1038  0.1524 -0.1379
94223W        W37161  15.185  23.165   2.814  0.0664  0.0419  0.1839
94224W        W37162  12.803  23.539   1.655  0.2277 -0.1704 -0.0590
94225W        W37163  11.335  22.629   1.663 -0.0484  0.1516  0.1773
94226W        W37164  15.034  24.644   2.016  0.2129  0.0461 -0.1195
94227W        W37165  14.885  23.095   0.349 -0.2977  0.0502  0.1569
94228W        W37166  13.156  25.136   0.945 -0.0510  0.0407 -0.2608
94229W        W37167  10.909  21.715   2.592 -0.0684  0.2807  0.2823
94230W        W37168  12.339  24.569   2.560  0.2056 -0.2709 -0.0905
94231W        W37169  13.993  22.696   0.324  0.4225  0.2955 -0.3117
94232W        W37170  12.301  21.541  31.400  0.1911 -0.2490  0.0348
94233W        W37171  13.656  25.382  30.981  0.2152  0.1060 -0.1370
94234W        W37172  11.673  25.015   3.976 -0.2733  0.1297  0.2636
94235W        W37173  10.283  23.103   1.785  0.0054  0.0429  0.1345
94236W        W37174  11.570  25.925  31.842  0.0463  0.0142  0.1758
94237W        W37175  13.524  26.188  31.484  0.1095  0.2252 -0.1882
94238W        W37176  14.718  23.653   0.089  0.1408  0.0847  0.1872
94239W        W37177  15.034  25.810   3.060  0.0102 -0.1224 -0.1291
94240W        W37178  15.012  23.700  31.355 -0.1124  0.2057  0.0899
94241W        W37179  12.360  26.098   1.461  0.2644  0.1297  0.0025
94242W        W37180  10.490  25.296  31.917  0.3924  0.1631  0.1100
94243W        W37181  14.132  23.928  31.760  0.1040  0.0653  0.0758
94244W        W37182  12.374  26.450  31.358 -0.0792 -0.0509 -0.0514
94245W        W37183  13.711  24.614   2.213 -0.2391  0.1269 -0.0471
94246W        W37184  14.959  20.971  31.490 -0.3644 -0.2644 -0.0263
94247W        W37185  14.786  22.813   1.878 -0.0734  0.1405  0.3382
94248W        W37186  14.337  22.352   0.147 -0.0661  0.0204  0.1425
94249W        W37187  13.877  24.683   2.709 -0.3012  0.0758 -0.0576
94250W        W37188  13.343  23.137   2.430  0.1152 -0.0334  0.1755
94251W        W37189  12.329  21.992  31.641  0.1951 -0.2504  0.0613
94252W        W37190  12.560  22.458   2.504  0.1690  0.1975  0.1957
94253W        W37191  14.097  21.328   2.352  0.1633  0.3395  0.2662
94254W        W37192  12.974  25.915   4.143 -0.3200  0.3004  0.2189
94255W        W37193  15.181  24.921   1.104  0.1635  0.2868 -0.0800
94256W        W37194  13.501  22.419   0.257  0.3961  0.2104 -0.3531
94257W        W37195  13.354  23.356   0.756  0.0857 -0.0200 -0.0109
94258W        W37196  14.679  20.341   1.540 -0.1091  0.3913 -0.0206
94259W        W37197  13.222  24.816  31.902 -0.1665  0.0591 -0.2979
94260W        W37198  14.147  23.831   1.073 -0.1471 -0.1129  0.0329
94261W        W37199  13.193  24.541   1.335  0.0344  0.0045  0.0939
94262W        W37200  10.876  24.456   1.712 -0.2288 -0.1566 -0.2602
94263W        W37201  13.535  25.060   2.728  0.0687 -0.0397  0.0345
94264W        W37202  12.503  22.609  30.878  0.2917  0.4187 -0.0272
94265W        W37203  15.263  23.122   0.733  0.0183 -0.1454  0.1522
94266W        W37204  12.101  22.262   2.602 -0.2112 -0.0513 -0.0291
94267W        W37205  14.289  20.659   1.432 -0.4240 -0.0174  0.4297
94268W        W37206  12.551  23.314   0.617  0.0671 -0.1510  0.1535
94269W        W37207  15.735  20.899  30.959  0.0224 -0.0798  0.1772
94270W        W37208  13.525  23.679   2.198 -0.1525  0.1811  0.3439
94271W        W37209  12.444  22.226   3.466 -0.1416 -0.1518  0.1021
94272W        W37210  13.025  21.819  30.969 -0.0305  0.2859  0.1689
94273W        W37211  15.615  23.324   1.118 -0.1275 -0.1231  0.2688
94274W        W37212  13.563  24.414   0.543  0.1823 -0.0381 -0.1073
94275W        W37213  14.370  25.537   3.727  0.2461 -0.2292  0.3392
94276W        W37214  13.713  22.815   1.248 -0.2451 -0.0178 -0.2762
94277W        W37215  12.898  22.880  31.865 -0.1802 -0.1403  0.2485
94278W        W37216  12.213  22.524  31.819  0.0947 -0.3598  0.0649
94279W        W37217  13.231  22.815   2.049  0.1709  0.0998  0.1016
94280W        W37218  13.084  24.662   4.195  0.1772  0.3152  0.0914
94281W        W37219  11.770  23.271   0.564  0.1150  0.0512 -0.0878
94282W        W37220  14.037  25.329  31.948  0.1444 -0.1354 -0.0117
94283W        W37221  15.170  23.488   2.140 -0.1805 -0.1496  0.4035
94284W        W37222  13.051  26.374   0.283 -0.1247 -0.0696 -0.0991
94285W        W37223  14.430  24.702   0.528  0.2141  0.0197  0.0709
94286W        W37224  15.635  23.988   0.375 -0.0695 -0.0100 -0.0891
94287W        W37225  11.125  23.396   1.738  0.1758 -0.1947 -0.0612
94288W        W37226  14.217  25.838   2.419 -0.0360 -0.2395  0.0007
94289W        W37227  14.647  24.354   1.277  0.1760  0.0653 -0.0858
94290W        W37228  13.147  22.405   0.754  0.2940 -0.2082 -0.2578
94291W        W37229  12.431  23.855   0.467  0.0674  0.0031 -0.0162
94292W        W37230  12.203  24.728   1.368 -0.0114  0.0359 -0.2515
94293W        W37231  14.147  22.012  31.849 -0.0678  0.1393 -0.4016
94294W        W37232  14.211  21.236   2.887 -0.2513 -0.2215  0.4134
94295W        W37233  13.975  24.538  31.813  0.1079 -0.1174  0.1633
94296W        W37234  14.826  22.171   1.370  0.2346  0.0624  0.1063
94297W        W37235  13.489  22.626   1.681  0.1392 -0.0020  0.0889
94298W        W37236  13.445  23.841   4.563 -0.3184 -0.1864  0.1536
94299W        W37237  11.952  23.997   0.780 -0.0331  0.5159 -0.2117
94300W        W37238  13.423  24.478   3.890 -0.2621 -0.0254  0.1650
94301W        W37239  12.731  24.198   0.710  0.0828 -0.1803 -0.1131
94302W        W37240  13.381  25.444   0.598 -0.0712 -0.0654 -0.0122
94303W        W37241  15.248  24.259   1.778  0.0255  0.4561 -0.2237
94304W        W37242  13.371  23.086   1.557  0.0005  0.0026  0.0716
94305W        W37243  13.956  24.523   1.710 -0.3546  0.1569 -0.0730
94306W        W37244  13.029  22.618   0.317 -0.1247  0.3265 -0.0376
94307W        W37245  15.878  21.626   0.929  0.2195  0.0706 -0.1296
94308W        W37246  14.431  21.839   1.438 -0.0694  0.0883  0.0375
94309W        W37247  12.855  22.335   2.045  0.1170 -0.2292 -0.0457
94310W        W37248  11.363  22.921   0.411  0.0634  0.0251  0.2074
94311W        W37249  12.424  24.827  31.906  0.1398  0.0295  0.1462
94312W        W37250  12.088  25.015   2.309  0.1269  0.2233 -0.3710
94313W        W37251  12.676  22.288   2.998 -0.1390  0.0265 -0.2390
94314W        W37252  12.479  23.488   3.055  0.0440 -0.2346 -0.0779
94315W        W37253  10.349  24.468   1.832  0.1136 -0.0158 -0.1709
94316W        W37254  13.943  22.820  31.331  0.0249 -0.2315 -0.3409
94317W        W37255  14.945  24.482   0.858  0.1042  0.3354  0.0185
94318W        W37256  11.561  22.375   1.988  0.1777 -0.2271 -0.3548
94319W        W37257  11.880  22.487   0.235  0.1536 -0.1737  0.2375
94320W        W37258  13.826  23.637   0.766 -0.2786  0.2631  0.1704
94321W        W37259  14.786  23.050  31.826  0.5506  0.3865  0.0327
94322W        W37260  12.346  20.647  30.895  0.1619 -0.0111 -0.4517
94323W        W37261  15.552  24.112   3.284  0.3039 -0.1007 -0.0741
94324W        W37262  12.136  24.606  31.392  0.0625 -0.3209 -0.1882
94325W        W37263  13.769  23.375   2.481 -0.1126 -0.1578 -0.3133
94326W        W37264  13.925  22.210   2.980 -0.0019  0.0672  0.1685
94327W        W37265  11.185  22.100  30.705  0.1084  0.0209  0.1356
94328W        W37266  13.383  23.691   1.136  0.0038 -0.0995  0.2960
94329W        W37267  13.949  24.877   1.277 -0.1114  0.1421  0.1862
94330W        W37268  14.309  25.064  31.532  0.3947 -0.0171 -0.0784
94331W        W37269  14.136  24.181   2.065 -0.1049  0.0096 -0.2062
94332W        W37270  13.703  24.082   1.815 -0.0564  0.2191 -0.1671
94333W        W37271  10.671  23.114   2.982  0.0915 -0.0411  0.0920
94334W        W37272  14.396  24.142   0.150 -0.0165  0.0238 -0.0850
94335W        W37273  12.756  23.764   2.698  0.1498 -0.3148  0.0069
94336W        W37274  14.027  24.365   0.343  0.1740 -0.3438 -0.1663
94337W        W37275  14.503  20.533   0.157 -0.0572 -0.2758 -0.0339
94338W        W37276  12.830  23.881  31.444  0.0146 -0.1808 -0.0376
94339W        W37277  10.531  22.606   3.104  0.0231 -0.0780  0.1604
94340W        W37278  12.353  24.036   2.857  0.1361 -0.2582  0.1330
94341W        W37279  15.762  23.545   0.686  0.1053 -0.2238  0.0641
94342W        W37280  13.325  22.564  31.773 -0.3824  0.2646  0.1050
94343W        W37281  12.568  21.583   0.901 -0.3819  0.1601  0.2074
94344W        W37282  13.164  24.882   1.859  0.0142 -0.2198 -0.0316
94345W        W37283  12.362  23.787   1.922  0.2468  0.0716  0.0138
94346W        W37284  12.954  23.054   0.678  0.0994 -0.1498 -0.1936
94347W        W37285  13.350  24.409   1.966  0.1753  0.0773 -0.0778
94348W        W37286  13.720  25.000   1.795  0.0747 -0.2215 -0.3686
94349W        W37287  13.795  23.400   1.591  0.1316 -0.2830 -0.0570
94350W        W37288  12.412  23.793  31.740  0.0273  0.0740  0.0639
94351W        W37289  16.002  22.783  30.864 -0.1315 -0.1676  0.1642
94352W        W37290  14.472  25.518   2.704 -0.4164 -0.2482  0.2219
94353W        W37291  15.419  26.173   4.228 -0.1381 -0.0532  0.1351
94354W        W37292  14.582  24.350   2.187  0.0821 -0.0252  0.0763
94355W        W37293  13.981  22.868   0.842 -0.1120 -0.1530  0.1690
94356W        W37294  12.377  20.849   1.505 -0.0128  0.1558 -0.1813
94357W        W37295  12.823  24.789  31.594 -0.0893 -0.1004  0.1066
94358W        W37296  13.062  24.590   0.866  0.2551 -0.0538  0.1015
94359W        W37297  14.226  23.115   2.535  0.2404 -0.3823  0.1139
94360W        W37298  13.928  21.687   1.655 -0.0306 -0.0553 -0.0445
94361W        W37299  13.334  23.670   0.375 -0.0436 -0.0500  0.0790
94362W        W37300  12.366  26.089   2.827 -0.0365  0.1282  0.0713
94363W        W37301  12.886  24.425   1.787 -0.0933  0.1958  0.0655
94364W        W37302  11.902  24.839   5.855  0.1910 -0.1636 -0.3085
94365W        W37303  11.549  23.381   5.257  0.2552 -0.1300  0.1734
94366W        W37304  14.246  23.334   3.677 -0.3015  0.3443 -0.0639
94367W        W37305  15.045  23.648   4.028 -0.1141 -0.3413 -0.2616
94368W        W37306  10.470  21.990   4.813  0.0063 -0.0836  0.0051
94369W        W37307  13.883  25.777   5.242 -0.3607 -0.0945  0.0964
94370W        W37308  10.436  21.827   5.948 -0.1756 -0.1278 -0.2243
94371W        W37309  13.586  24.412   5.976 -0.3760  0.0512 -0.1325
94372W        W37310  14.290  25.155   5.766 -0.1105 -0.2549 -0.0355
94373W        W37311  14.606  23.712   4.850 -0.1822  0.1746 -0.1333
94374W        W37312  14.237  22.772   5.860  0.0970 -0.3318  0.1117
94375W        W37313  13.543  25.055   6.927 -0.1722  0.1210 -0.1637
94376W        W37314  12.825  22.201   4.336 -0.4009 -0.3131 -0.0828
94377W        W37315  11.855  21.677   5.669 -0.2367 -0.0967 -0.0306
94378W        W37316  14.413  22.906   6.720  0.0505 -0.1236 -0.2129
94379W        W37317  12.130  23.805   5.562  0.0110 -0.0730 -0.0557
94380W        W37318  13.053  23.294   5.892  0.2520  0.0722  0.0646
94381W        W37319  12.463  23.203   5.470 -0.2043  0.2413  0.0868
94382W        W37320  13.144  26.255   5.469  0.0296  0.0808  0.2967
94383W        W37321  13.655  21.888   4.502  0.1111 -0.4644 -0.1049
94384W        W37322  13.808  22.067   6.159  0.0612 -0.2729 -0.3413
94385W        W37323  13.404  25.151   3.201  0.3213  0.0081 -0.1546
94386W        W37324  12.465  22.971   3.362 -0.3406 -0.0488  0.0216
94387W        W37325  11.596  24.036   6.501 -0.1562  0.1033 -0.3261
94388W        W37326  13.600  21.993   5.657 -0.0339 -0.4714  0.0529
94389W        W37327  13.909  22.530   4.457 -0.0592 -0.0497  0.2184
94390W        W37328  14.307  24.731   5.996 -0.0778  0.0950  0.0555
94391W        W37329  13.809  24.754   5.723 -0.1737  0.0637  0.0919
94392W        W37330  13.542  24.166   4.944 -0.1054  0.0265 -0.1563
94393W        W37331  13.519  23.353   6.821 -0.1092  0.1523 -0.2031
94394W        W37332  12.259  24.242   4.531 -0.1626 -0.2343  0.2163
94395W        W37333  12.281  25.263   6.529  0.1779 -0.4025 -0.1880
94396W        W37334  13.999  25.011   4.429  0.0051 -0.1281  0.0267
94397W        W37335  15.417  23.070   3.551  0.1033 -0.0750 -0.0229
94398W        W37336  15.515  25.110   6.583 -0.1160  0.0512 -0.1585
94399W        W37337  13.491  24.086   7.312  0.1835 -0.2130 -0.1801
94400W        W37338  11.749  24.927   3.333  0.1258 -0.1880  0.0832
94401W        W37339  12.598  24.321   6.425 -0.1309  0.1350  0.2998
94402W        W37340  11.760  25.964   7.535  0.0107  0.0933 -0.0053
94403W        W37341  12.882  24.264   5.985 -0.2387 -0.2407  0.1293
94404W        W37342  13.283  23.239   4.101  0.0247  0.1172 -0.1106
94405W        W37343  13.310  25.843   2.777 -0.0430  0.3167 -0.2791
94406W        W37344  12.584  24.048   4.866 -0.2078  0.1534 -0.3067
94407W        W37345  12.125  23.312   7.526 -0.0925 -0.0137  0.0536
94408W        W37346  11.517  24.669   4.905 -0.0748  0.2185  0.3619
94409W        W37347  15.121  23.506   7.349 -0.1573  0.1908  0.0244
94410W        W37348  11.882  24.193   2.662 -0.2472 -0.0808  0.3513
94411W        W37349  13.691  23.643   2.928 -0.0221  0.2936 -0.0473
94412W        W37350  13.120  22.610   4.261 -0.1688  0.1429 -0.0033
94413W        W37351  15.478  23.016   5.287 -0.1953 -0.3987  0.0760
94414W        W37352  11.955  23.270   4.330 -0.1831  0.1210 -0.0773
94415W        W37353  13.131  24.560   4.840  0.0984 -0.1820 -0.3402
94416W        W37354  13.137  23.345   5.361 -0.1993  0.0215 -0.0987
94417W        W37355  13.461  23.061   6.414  0.1724  0.0464 -0.1259
94418W        W37356  12.124  23.533   3.429 -0.1551  0.0378 -0.1848
94419W        W37357  12.677  22.659   4.541 -0.3973  0.0370 -0.3748
94420W        W37358  12.788  25.130   6.431  0.1188 -0.0246 -0.2022
94421W        W37359  10.851  23.217   4.583 -0.1518  0.1124 -0.0593
94422W        W37360  13.402  24.338   4.463 -0.1351 -0.0987  0.0657
94423W        W37361  14.532  25.866   4.684 -0.1577 -0.2079 -0.3190
94424W        W37362  13.164  25.393   4.853  0.2356  0.2697  0.0717
94425W        W37363  11.527  22.849   5.372  0.0920  0.2506  0.1308
94426W        W37364  11.609  23.119   6.594  0.1215  0.0708 -0.1844
94427W        W37365  11.689  23.809   7.228 -0.1010 -0.1314  0.3676
94428W        W37366  13.765  22.865   2.300 -0.0644 -0.0993  0.1538
94429W        W37367  14.862  23.349   6.845 -0.0313  0.0380 -0.2806
94430W        W37368  11.513  24.342   7.439 -0.1132  0.1337 -0.2824
94431W        W37369  14.528  23.349   5.212  0.1232 -0.1589  0.0531
94432W        W37370  12.051  24.022   4.951  0.2645  0.0618 -0.0197
94433W        W37371  15.815  23.942   5.926 -0.0438 -0.2999  0.0645
94434W        W37372  13.820  24.221   3.011  0.2445  0.3265  0.0310
94435W        W37373  14.618  22.930   4.938  0.1352 -0.1106  0.1032
94436W        W37374  15.101  21.667   5.544  0.0871  0.2388 -0.1267
94437W        W37375  11.543  24.003   3.887  0.0843  0.1859  0.1654
94438W        W37376  13.325  24.517   5.293  0.0265 -0.0689 -0.0684
94439W        W37377  15.413  23.981   4.973 -0.0034 -0.1340  0.0095
94440W        W37378  15.288  22.705   3.089  0.0833 -0.3488 -0.0079
94441W        W37379  12.363  25.052   5.981 -0.0388 -0.0254  0.2026
94442W        W37380  11.441  23.613   6.828  0.1361 -0.0172  0.1420
94443W        W37381  13.970  24.085   6.342  0.1025 -0.0044 -0.1235
94444W        W37382  12.573  23.945   4.307 -0.3900 -0.1048 -0.2789
94445W        W37383  10.432  24.774   5.561  0.1594 -0.2642 -0.0633
94446W        W37384  12.129  24.442   5.311 -0.2245 -0.0792 -0.0035
94447W        W37385  11.193  21.945   6.073 -0.2743 -0.0188 -0.2816
94448W        W37386  12.457  24.550   5.688 -0.1320  0.1910 -0.1510
94449W        W37387  14.649  21.570   3.008  0.3339  0.0284  0.1304
94450W        W37388  10.976  22.988   7.293 -0.0922 -0.1001 -0.1870
94451W        W37389  14.078  21.982   4.398 -0.1067  0.0717  0.2475
94452W        W37390  11.323  24.525   3.891  0.0395  0.0315 -0.2450
94453W        W37391  14.518  25.080   5.288 -0.1772 -0.0588  0.0637
94454W        W37392  14.068  23.673   4.120  0.1355  0.2609  0.0247
94455W        W37393  14.707  24.845   2.370  0.1067 -0.1086 -0.2046
94456W        W37394  10.797  23.126   5.834 -0.2376 -0.0295 -0.0693
94457W        W37395  11.792  22.337   4.313  0.1382  0.0724 -0.2581
94458W        W37396  12.404  21.676   6.432 -0.0549  0.0714  0.0969
94459W        W37397  11.670  22.812   6.076  0.1088 -0.1475 -0.3139
94460W        W37398  12.756  23.214   6.281  0.1644 -0.1009  0.1261
94461W        W37399  11.845  22.164   3.543  0.1570 -0.0605 -0.0388
94462W        W37400  13.660  22.548   4.039 -0.3915  0.2651  0.2628
94463W        W37401  12.487  23.640   5.193 -0.0656 -0.0849  0.0727
94464W        W37402  11.068  23.671   4.541 -0.0103  0.0123  0.1365
94465W        W37403  14.396  21.875   5.259  0.1822  0.0603 -0.1213
94466W        W37404  13.295  26.026   4.594 -0.2850  0.2234  0.1458
94467W        W37405  15.237  24.667   6.499  0.0156 -0.2064 -0.0821
94468W        W37406  14.117  25.111   6.233  0.1987 -0.2171 -0.0312
94469W        W37407  11.421  23.186   7.163 -0.1624  0.0868 -0.0369
94470W        W37408  11.218  22.508   3.097  0.2854  0.0179  0.0006
94471W        W37409  11.505  25.564   6.251  0.1620  0.2628  0.4081
94472W        W37410  13.921  24.783   6.745 -0.1050 -0.1305 -0.0890
94473W        W37411  12.145  22.681   4.212  0.1857 -0.1801 -0.1286
94474W        W37412  15.111  25.194   5.271 -0.1060  0.1252  0.0300
94475W        W37413  13.498  23.726   3.429 -0.1057  0.0137  0.3600
94476W        W37414  11.562  23.597   6.324 -0.0288  0.0885 -0.0911
94477W        W37415  13.477  21.343   5.878  0.0767  0.1238 -0.0614
94478W        W37416  14.414  22.055   6.567 -0.1836  0.0546 -0.0055
94479W        W37417  14.017  23.751   5.093  0.0649 -0.0540  0.0812
94480W        W37418  12.806  23.200   2.670  0.0968 -0.2299  0.3146
94481W        W37419  14.113  24.305   5.858  0.1479 -0.1958  0.0495
94482W        W37420  10.929  24.323   3.450  0.1832  0.0054  0.1412
94483W        W37421  11.846  25.021   4.819  0.0819  0.0842 -0.1289
94484W        W37422  14.503  26.368   4.572  0.2169  0.0534 -0.1819
94485W        W37423  14.489  22.887   5.410 -0.2575  0.0615 -0.2159
94486W        W37424  11.929  24.076   6.922 -0.1136  0.0025 -0.3158
94487W        W37425  13.310  22.714   6.859  0.0604  0.3419 -0.5173
94488W        W37426  11.629  25.351   3.557  0.2744  0.1373  0.0249
94489W        W37427  11.492  25.085   7.075 -0.0914 -0.1615  0.1585
94490W        W37428  12.409  22.736   5.643  0.0108 -0.0986 -0.0844
94491W        W37429  14.283  22.315   3.365  0.2695  0.1579 -0.0108
94492W        W37430  14.498  24.198   7.460  0.1596  0.0342 -0.1617
94493W        W37431  14.198  24.266   3.469 -0.2941  0.1802  0.1973
94494W        W37432  14.769  22.847   4.448  0.1025  0.2977 -0.0791
94495W        W37433  13.334  22.806   5.107 -0.1039 -0.0826  0.0685
94496W        W37434   9.960  24.198   8.022 -0.0910 -0.0479  0.5574
94497W        W37435  14.170  23.958   5.526  0.2209 -0.2916  0.0499
94498W        W37436  11.568  25.265   5.759 -0.5552 -0.2608  0.1583
94499W        W37437  12.542  22.543   3.886 -0.0659  0.1049  0.1563
94500W        W37438  14.843  23.472   3.627  0.4086 -0.1586 -0.1412
94501W        W37439   9.173  23.467   5.595  0.3627 -0.0107  0.1227
94502W        W37440  14.364  23.922   6.580 -0.0111  0.1476 -0.1693
94503W        W37441  13.254  24.184   5.659 -0.0791 -0.2162 -0.0361
94504W        W37442  12.076  22.080   6.930  0.2126  0.0434  0.1877
94505W        W37443  12.401  24.005   3.342 -0.0653 -0.0742  0.2111
94506W        W37444  12.320  22.300   4.398 -0.3678  0.2333  0.0894
94507W        W37445  11.235  25.067   3.792 -0.0096 -0.2407  0.1080
94508W        W37446  15.303  21.448   6.329  0.0605  0.0360 -0.0376
94509W        W37447  13.106  22.453   6.361  0.1323 -0.1074  0.1908
94510W        W37448  13.446  21.470   7.369 -0.1154  0.0375 -0.4224
94511W        W37449  14.093  23.676   6.086  0.0170 -0.2304 -0.1295
94512W        W37450  14.233  24.628   3.054 -0.4591  0.0167  0.2287
94513W        W37451  13.607  23.244   5.201 -0.1436 -0.0363 -0.0768
94514W        W37452  13.030  23.004   3.428  0.1197 -0.5118 -0.2183
94515W        W37453  13.299  21.761   6.345  0.0567 -0.1385  0.2220
94516W        W37454  11.986  23.745   6.516  0.2608 -0.1111  0.1752
94517W        W37455  10.886  24.665   6.424 -0.2613  0.0069  0.0780
94518W        W37456  15.491  23.828   6.268  0.0137  0.0281 -0.1169
94519W        W37457  14.875  23.790   6.511  0.2177 -0.0177 -0.0345
94520W        W37458  12.967  22.465   4.947 -0.2084  0.1905  0.0628
94521W        W37459  13.250  22.446   5.418 -0.0321  0.0038  0.3186
94522W        W37460  13.361  25.624   4.367 -0.2484 -0.0925 -0.4572
94523W        W37461  13.617  25.517   2.965  0.0290 -0.3139  0.1137
94524W        W37462  12.571  21.898   5.414 -0.0828  0.1905  0.0176
94525W        W37463  13.705  23.597   6.339 -0.2459 -0.3092 -0.4971
94526W        W37464  13.343  26.269   4.175 -0.3432 -0.0014 -0.2662
94527W        W37465  15.000  22.354   6.681  0.0904 -0.2032 -0.0977
94528W        W37466  11.256  24.717   3.408 -0.0062  0.0858 -0.0842
94529W        W37467  15.027  21.054   5.207  0.1028 -0.0224 -0.1551
94530W        W37468  10.921  24.908   5.436 -0.4077  0.1247 -0.3439
94531W        W37469  13.168  22.990   2.938  0.3016  0.1088  0.2591
94532W        W37470  11.838  23.579   4.713  0.1434  0.0824  0.0084
94533W        W37471  13.319  22.146   4.106  0.1060  0.0163  0.0006
94534W        W37472  14.535  23.668   3.260 -0.1948 -0.1347 -0.1672
94535W        W37473  12.889  22.826   5.494  0.1346 -0.3276  0.1643
94536W        W37474  12.998  22.037   5.721  0.1738  0.0872  0.0684
94537W        W37475  11.835  25.917   5.837 -0.4390  0.0915 -0.1765
94538W        W37476  12.964  24.143   5.128 -0.1990 -0.1997 -0.1704
94539W        W37477  14.281  23.540   1.609  0.1668  0.2084 -0.0607
94540W        W37478  14.178  23.869   7.146  0.0784  0.1578 -0.1686
94541W        W37479  12.481  23.848   6.460 -0.1687  0.0410 -0.1081
94542W        W37480  10.781  22.477   4.452  0.0107 -0.0681 -0.2067
94543W        W37481  13.768  24.265   5.474 -0.1193 -0.1939 -0.0121
94544W        W37482  12.646  23.577   5.710  0.1868 -0.1569  0.1772
94545W        W37483  12.160  24.895   4.396  0.2137 -0.0647  0.0074
94546W        W37484  13.833  26.087   6.556 -0.2445  0.4532  0.0322
94547W        W37485  13.155  23.728   4.952  0.1215 -0.0060 -0.0194
94548W        W37486  13.021  24.075   4.627  0.0534  0.0418 -0.4559
94549W        W37487  12.910  20.912   5.809  0.1794  0.3134  0.0321
94550W        W37488  15.347  23.421   6.554 -0.2321  0.0304 -0.1869
94551W        W37489  11.878  22.562   5.641 -0.1109  0.0266 -0.0724
94552W        W37490  11.957  23.084   5.713  0.1731 -0.2429  0.0652
94553W        W37491  12.940  23.617   4.492  0.1823 -0.1626  0.0793
94554W        W37492  14.620  23.503   6.178 -0.2794 -0.0360  0.1336
94555W        W37493  13.529  21.470   6.783  0.1367 -0.1224  0.0716
94556W        W37494  11.694  25.128   8.028 -0.4175  0.2129  0.0145
94557W        W37495  13.651  21.835   5.220 -0.0182 -0.1210  0.1153
94558W        W37496  14.989  26.381   4.399  0.1633 -0.0792 -0.2800
94559W        W37497  13.215  23.721   7.066  0.0392  0.3847 -0.0007
94560W        W37498  11.802  23.514   3.943  0.2020 -0.0909  0.1236
94561W        W37499  12.898  24.995   4.623  0.2410  0.1381  0.2426
94562W        W37500  12.581  24.728   3.027  0.1835 -0.0407  0.4019
94563W        W37501  13.236  22.142   4.622 -0.1517  0.2326 -0.1497
94564W        W37502  13.048  23.804   5.477  0.2105 -0.2916  0.1397
94565W        W37503  11.561  24.524   2.980 -0.0956 -0.1148 -0.1340
94566W        W37504  10.791  24.606   5.969  0.2775  0.1006 -0.2405
94567W        W37505  14.283  21.705   3.253 -0.1481  0.1917 -0.0511
94568W        W37506  14.211  23.718   2.411  0.0854 -0.0362 -0.1531
94569W        W37507  13.366  23.656   5.837 -0.0986  0.1693  0.2079
94570W        W37508  14.842  21.611   6.096  0.2030 -0.0964 -0.0025
94571W        W37509  13.738  23.396   3.758 -0.1787  0.0128  0.0398
94572W        W37510  13.770  22.308   7.591  0.0299 -0.1506 -0.0490
94573W        W37511  10.949  22.229   6.622  0.0341 -0.3106 -0.1059
94574W        W37512  14.971  24.036   4.719 -0.1270  0.2213  0.3239
94575W        W37513  11.782  22.576   6.842  0.2227  0.1667  0.2260
94576W        W37514  13.357  24.023   8.303  0.0748 -0.0274  0.0218
94577W        W37515  11.123  22.264   7.122  0.0024  0.1494 -0.1564
94578W        W37516  14.041  23.040   4.053  0.1228 -0.0300 -0.0951
94579W        W37517  11.886  22.716   1.810  0.0290  0.3068 -0.1666
94580W        W37518  13.298  24.044   6.247 -0.1806  0.1181  0.2600
94581W        W37519  14.054  22.713   6.317 -0.0033 -0.3754 -0.1122
94582W        W37520  13.551  24.278   3.430 -0.1363 -0.2925  0.1300
94583W        W37521  13.196  22.571   3.781 -0.2446 -0.2272  0.2868
94584W        W37522  11.670  24.449   6.156  0.0196 -0.4000 -0.1506
94585W        W37523  12.946  23.695   4.009 -0.0478  0.1007 -0.0547
94586W        W37524  13.146  24.655   3.307 -0.2462 -0.0842 -0.2886
94587W        W37525  12.380  24.084   5.960  0.1874  0.0036  0.0735
94588W        W37526  11.642  21.138   6.101  0.1049  0.2683 -0.0975
94589W        W37527  14.517  23.224   7.203  0.2484  0.2089 -0.3917
94590W        W37528  14.212  22.468   5.271  0.3225 -0.0223 -0.4580
94591W        W37529  14.704  22.061   5.595  0.1018 -0.1602 -0.5386
94592W        W37530  12.970  23.108   6.732  0.0666  0.2166  0.0454
94593W        W37531  12.058  23.299   6.721  0.0799 -0.5139  0.3770
94594W        W37532  10.275  22.321   5.853  0.2159  0.1858 -0.2800
94595W        W37533  14.072  25.689   6.594  0.0712 -0.1552 -0.2007
94596W        W37534  14.724  23.443   1.784  0.1448  0.2483 -0.0284
94597W        W37535  14.084  22.268   5.728  0.2969 -0.2267  0.0060
94598W        W37536  13.720  24.147   4.172 -0.1396  0.2608 -0.0430
94599W        W37537  14.188  22.984   4.554 -0.2976  0.1234  0.2097
94600W        W37538  13.442  22.940   5.638 -0.1860  0.2134 -0.0105
94601W        W37539  14.292  22.331   6.194  0.2074  0.3286 -0.2279
94602W        W37540  13.048  22.975   4.557 -0.0619 -0.0185  0.1397
94603W        W37541  13.116  22.038   5.145  0.0355 -0.0372 -0.1029
94604W        W37542  13.287  25.785   5.201  0.0621  0.0842  0.1651
94605W        W37543  14.297  23.315   5.798  0.0884 -0.1723 -0.2986
94606W        W37544  14.219  23.476   4.536  0.0857 -0.2528  0.1094
94607W        W37545  11.101  23.556   5.785 -0.2296 -0.2355 -0.3005
94608W        W37546  12.647  24.563   7.200 -0.2120 -0.1973  0.3733
94609W        W37547  13.870  22.668   3.151  0.1818 -0.3040  0.0044
94610W        W37548  12.932  23.962   3.284  0.0321 -0.1226 -0.0719
94611W        W37549  14.443  24.295   6.982 -0.2323  0.1010 -0.0294
94612W        W37550  14.141  23.447   7.516  0.0853  0.1860  0.0600
94613W        W37551  12.795  22.548   3.423 -0.4217  0.0011 -0.0336
94614W        W37552  14.454  22.753   8.160  0.0467 -0.0356  0.1858
94615W        W37553  12.014  24.434   4.099 -0.0335  0.0226 -0.0843
94616W        W37554  14.128  21.126   5.614 -0.1014  0.1665 -0.2694
94617W        W37555  13.803  26.565   6.529 -0.3617 -0.0816 -0.2917
94618W        W37556  10.630  25.634   7.247  0.0126  0.0667 -0.1446
94619W        W37557  13.759  23.537   4.772 -0.0741  0.0131  0.0021
94620W        W37558  12.253  22.458   5.225  0.0358 -0.0086  0.0568
94621W        W37559  13.760  23.981   5.917 -0.3796  0.4262 -0.2021
94622W        W37560  12.487  24.994   5.361 -0.1058 -0.1575 -0.2375
94623W        W37561  13.709  22.538   5.403 -0.1291 -0.3533  0.1938
94624W        W37562  13.675  23.599   7.260 -0.1431  0.1363  0.0184
94625W        W37563  11.455  23.150   5.823  0.1986 -0.2240  0.1272
94626W        W37564  15.067  25.159   6.377 -0.0402 -0.2464  0.1405
94627W        W37565  13.521  22.343   4.966  0.0852 -0.1288 -0.1192
94628W        W37566  12.523  24.449   4.043 -0.0127 -0.2193 -0.2531
94629W        W37567  11.774  24.652   7.021  0.0167 -0.0566 -0.2505
94630W        W37568  12.768  23.564   6.811 -0.0732  0.0385 -0.1171
94631W        W37569  12.286  23.200   4.883  0.0172  0.3166 -0.0363
94632W        W37570  11.797  23.056   4.812  0.2473 -0.0630  0.1827
94633W        W37571  14.196  24.353   2.569 -0.1303  0.0855 -0.0466
94634W        W37572  10.934  25.218   7.248  0.0860 -0.0694 -0.1718
94635W        W37573  11.233  23.235   6.256 -0.3130 -0.2337 -0.0449
94636W        W37574  12.020  24.539   4.860  0.1734  0.1871  0.0242
94637W        W37575  13.324  24.227   2.976 -0.0427  0.2640  0.0962
94638W        W37576  13.759  23.032   2.835 -0.0212  0.0106 -0.1519
94639W        W37577  14.142  24.300   5.045 -0.0694  0.0497 -0.0517
94640W        W37578  12.505  23.157   4.416  0.2894  0.1870 -0.2991
94641W        W37579  13.033  25.378   5.455  0.0010 -0.0254  0.2706
94642W        W37580  12.067  24.516   3.027 -0.0031  0.0371  0.2332
94643W        W37581  14.472  24.200   4.678  0.1067 -0.1034 -0.0354
94644W        W37582  12.889  25.810   4.832  0.4242 -0.4337 -0.1626
94645W        W37583  14.007  23.214   7.056 -0.0671  0.2720 -0.1131
94646W        W37584  16.616  22.213   2.969  0.1420  0.0561 -0.2196
94647W        W37585  13.888  21.487   4.207 -0.2582  0.3659  0.0791
94648W        W37586  12.556  22.050   5.959  0.1042 -0.3405  0.0054
94649W        W37587  12.999  24.127   7.265 -0.0613  0.0348  0.0905
94650W        W37588  12.347  23.088   5.983 -0.0690  0.0596  0.0916
94651W        W37589  14.417  22.139   2.387 -0.4705 -0.0141 -0.0473
94652W        W37590  12.252  24.567   6.783 -0.0884 -0.0286 -0.2556
94653W        W37591  15.552  20.809   5.703 -0.1441  0.1149  0.1587
94654W        W37592  11.382  25.833   6.673  0.1683 -0.0166  0.1304
94655W        W37593  14.867  24.887   3.713  0.0110 -0.0472  0.3116
94656W        W37594  11.846  23.275   6.169 -0.1253 -0.0217 -0.0252
94657W        W37595  12.669  24.146   5.534  0.0585 -0.1836  0.3025
94658W        W37596  13.668  20.637   6.795 -0.1101 -0.3734 -0.2777
94659W        W37597  12.669  24.016   3.812 -0.1025  0.1743  0.0491
94660W        W37598  13.987  22.970   5.460  0.0983 -0.0041 -0.0239
94661W        W37599  13.163  25.426   6.574 -0.1574 -0.0363 -0.3116
94662W        W37600  12.674  24.524   5.142 -0.3235  0.1160  0.2953
94663W        W37601  13.680  24.650   4.958 -0.0750  0.4187  0.2302
94664W        W37602  11.667  22.597   3.324  0.1010 -0.0015  0.0040
94665W        W37603  15.963  23.086   5.433  0.1134  0.0148 -0.2819
94666W        W37604  13.237  22.791   6.046 -0.1974  0.3052 -0.1096
94667W        W37605  15.144  21.558   7.085 -0.3541 -0.1574 -0.2482
94668W        W37606  12.297  23.516   3.927 -0.0077  0.0220 -0.1193
94669W        W37607  15.793  22.783   4.493  0.1075  0.3051  0.2608
94670W        W37608  12.964  24.602   5.601 -0.1589 -0.1702  0.1248
94671W        W37609  10.909  24.023   4.936  0.2789 -0.1144  0.0242
94672W        W37610  12.596  22.768   5.061  0.1268  0.0640 -0.0597
94673W        W37611  16.124  22.544   7.255 -0.0106  0.0548 -0.0187
94674W        W37612  14.239  23.285   2.049  0.0102 -0.2119  0.3498
94675W        W37613  13.602  24.415   6.586  0.2069 -0.0853  0.1358
94676W        W37614  11.927  22.146   4.833  0.1243  0.0783  0.0716
94677W        W37615  13.134  22.347   3.085  0.1059  0.1142 -0.0177
94678W        W37616  11.669  24.442   5.435 -0.0758 -0.1662  0.4342
94679W        W37617  11.770  24.723   8.282  0.0408 -0.0390 -0.0211
94680W        W37618  14.166  24.973   8.625 -0.2959 -0.0237 -0.2357
94681W        W37619  11.696  22.502   5.087  0.1716 -0.0662 -0.3440
94682W        W37620  14.469  24.191   3.064 -0.0313  0.0921 -0.0707
94683W        W37621  15.422  22.063   4.271  0.0757 -0.2300 -0.2211
94684W        W37622  12.451  25.317   4.607  0.2490 -0.0657 -0.0395
94685W        W37623  14.785  24.070   3.933  0.0690 -0.1587  0.2251
94686W        W37624  15.296  24.428   4.614 -0.1970  0.1262  0.0826
94687W        W37625  12.837  23.777   6.143  0.0086 -0.1956  0.0473
94688W        W37626  14.905  24.878   5.609  0.2756  0.0248 -0.2581
94689W        W37627  15.065  24.173   6.243  0.1061 -0.1280  0.0788
94690W        W37628  12.545  22.203   4.948 -0.1045  0.1568 -0.0124
94691W        W37629  13.488  22.812   4.523  0.1324 -0.0264 -0.1417
94692W        W37630  12.820  25.041   5.759  0.0506 -0.2323 -0.1573
94693W        W37631  14.594  22.480   5.863 -0.0849  0.3035 -0.0411
94694W        W37632  13.823  21.585   6.107 -0.1289  0.0279  0.2820
94695W        W37633  13.432  25.405   3.598 -0.1845  0.2352 -0.2958
94696W        W37634  15.056  22.406   5.749  0.0223 -0.0462  0.3931
94697W        W37635  14.095  24.190   7.788 -0.0407 -0.0181  0.0443
94698W        W37636  13.091  25.002   7.888  0.1307  0.0475  0.2530
94699W        W37637  11.755  22.689   3.832 -0.1253  0.1443 -0.5156
94700W        W37638  13.136  23.547   6.515 -0.3587  0.0765  0.0474
94701W        W37639  13.049  24.195   4.124 -0.0590  0.1740  0.1277
94702W        W37640  13.089  25.424   3.944  0.1915 -0.0165 -0.1187
94703W        W37641  14.291  24.656   5.441  0.2551 -0.3048 -0.2628
94704W        W37642  14.109  23.252   5.003  0.0599  0.0148 -0.1212
94705W        W37643  15.180  24.065   4.266 -0.0260 -0.1242 -0.0721
94706W        W37644  12.120  22.640   4.771  0.0771 -0.0108  0.3020
94707W        W37645  14.984  23.046   3.320 -0.0246  0.2903  0.2887
94708W        W37646  14.701  21.618   3.729 -0.0976 -0.0895 -0.2502
94709W        W37647  12.062  24.224   6.473 -0.1725 -0.3507  0.0992
94710W        W37648  11.976  23.001   3.199 -0.2286 -0.2202 -0.0596
94711W        W37649  11.769  24.163   4.519 -0.1245  0.4263 -0.0276
94712W        W37650  12.596  22.743   6.276  0.1728  0.0335  0.2507
94713W        W37651  13.269  21.085   6.689 -0.0244  0.1545 -0.4684
94714W        W37652  11.031  23.640   7.156 -0.2899  0.0867  0.1521
94715W        W37653  11.716  23.600   5.747  0.1246  0.0963 -0.1469
94716W        W37654  11.385  23.212   4.600  0.0108 -0.0952 -0.0816
94717W        W37655  14.144  24.860   4.987  0.0655 -0.0799 -0.2153
94718W        W37656  12.158  21.847   5.160  0.0862 -0.0085 -0.1305
94719W        W37657  11.725  22.144   5.440  0.0402  0.0574  0.0720
94720W        W37658  14.637  24.782   6.536  0.3417 -0.0921  0.0994
94721W        W37659  14.332  24.648   4.314 -0.2023  0.0252 -0.0327
94722W        W37660  12.213  22.516   6.021 -0.0824  0.2461 -0.2503
94723W        W37661  14.620  24.541   7.866  0.1527 -0.2326  0.1150
94724W        W37662  11.383  25.602   3.059  0.3149 -0.1596 -0.1264
94725W        W37663  12.314  22.536   7.007 -0.0876 -0.0732  0.2272
94726W        W37664  12.484  21.100   6.710 -0.1578 -0.0365  0.1090
94727W        W37665  12.244  22.145   3.917 -0.1833  0.1076  0.4004
94728W        W37666  13.600  22.551   6.467  0.1836 -0.2155 -0.1058
94729W        W37667  13.927  25.146   3.899 -0.1150  0.1720 -0.1612
94730W        W37668  12.717  24.709   6.125 -0.0021  0.1250  0.1466
94731W        W37669  11.948  24.324   5.765  0.2105  0.1182  0.1668
94732W        W37670  11.391  24.609   7.887  0.2868  0.1433  0.1316
94733W        W37671  13.825  23.936   3.764 -0.2553 -0.1736  0.2783
94734W        W37672  12.495  24.974   7.019  0.1874  0.0397 -0.1204
94735W        W37673  15.215  23.600   4.532 -0.2223  0.0365 -0.1628
94736W        W37674  14.507  21.303   4.808 -0.0784  0.1517  0.2269
94737W        W37675  12.861  24.333   2.867 -0.0464 -0.0368 -0.2311
94738W        W37676  11.471  21.350   5.622 -0.1053  0.1050 -0.1558
94739W        W37677  11.012  24.082   6.523  0.2686 -0.4839  0.0124
94740W        W37678  14.384  23.449   6.797  0.0485  0.1163 -0.1622
94741W        W37679  12.037  22.918   5.226 -0.2560  0.0872 -0.2965
94742W        W37680  15.028  21.910   4.755 -0.1072  0.2227 -0.1882
94743W        W37681  15.481  23.563   5.270 -0.2984  0.1647  0.1599
94744W        W37682  12.312  23.560   6.156 -0.2909  0.3061 -0.2462
94745W        W37683  12.753  23.205   3.934  0.2153 -0.2370  0.2708
94746W        W37684  13.096  24.466   6.414  0.0102  0.2096 -0.1592
94747W        W37685  13.940  23.670   6.768 -0.0013  0.0002  0.1501
94748W        W37686  14.119  22.993   7.724 -0.4578  0.0993  0.0712
94749W        W37687  12.325  25.041   2.740 -0.2423  0.3871 -0.0920
94750W        W37688  15.462  23.518   2.569 -0.2537 -0.1561  0.0783
94751W        W37689  14.090  24.465   7.375  0.4931  0.0985 -0.2909
94752W        W37690  13.235  24.604   7.448  0.0268 -0.0754  0.2274
94753W        W37691  13.211  25.335   6.064  0.0520  0.0031 -0.2783
94754W        W37692  14.525  23.954   6.024  0.0881 -0.2709 -0.0198
94755W        W37693  12.171  22.139   5.617 -0.3083 -0.1643 -0.3098
94756W        W37694  12.326  23.654   4.644  0.0256  0.0279 -0.2424
94757W        W37695  12.641  24.936   4.216  0.0040 -0.0024  0.4335
94758W        W37696  13.832  23.098   5.995  0.2218 -0.1355  0.0359
94759W        W37697  12.846  23.216   4.956  0.0353 -0.0020 -0.1791
94760W        W37698  14.748  22.216   3.578 -0.1068  0.0341  0.0745
94761W        W37699  12.522  25.026   7.797 -0.2824  0.1081 -0.0097
94762W        W37700  13.535  23.797   5.302 -0.0867 -0.1951 -0.3350
94763W        W37701  10.536  23.252   9.807 -0.2459 -0.3260 -0.2533
94764W        W37702  11.581  23.373   9.057  0.2024 -0.1264  0.0423
94765W        W37703  13.998  22.306   6.652 -0.3207 -0.0796  0.1408
94766W        W37704  12.356  22.850   8.154  0.2000 -0.1959 -0.0937
94767W        W37705  11.060  22.446   8.697 -0.0335 -0.0112  0.0225
94768W        W37706  16.458  23.434   9.890 -0.1805  0.1120 -0.2146
94769W        W37707  13.452  23.927   9.204 -0.2534  0.0178  0.2526
94770W        W37708  14.610  24.656   9.262 -0.0536  0.0436 -0.1689
94771W        W37709  14.041  23.211   6.568 -0.1660  0.0005  0.0399
94772W        W37710  11.928  22.389   8.716 -0.0456  0.0840 -0.1360
94773W        W37711  13.727  22.516   5.923 -0.2382  0.2257 -0.2961
94774W        W37712  11.748  22.156   8.042  0.1782  0.2020  0.0233
94775W        W37713  13.075  22.964   8.767 -0.1768  0.0535  0.1010
94776W        W37714  10.831  24.560   7.830 -0.1443  0.3911 -0.2814
94777W        W37715  11.092  24.013   8.441  0.0907  0.0429  0.0559
94778W        W37716  12.036  22.545   7.725 -0.3908 -0.0627 -0.2493
94779W        W37717  13.650  24.922   7.953 -0.0457 -0.0991  0.2308
94780W        W37718  11.935  21.787   9.452  0.0434 -0.2654 -0.1990
94781W        W37719  13.301  24.536   8.010 -0.1132 -0.0361 -0.0127
94782W        W37720  10.921  22.730   6.321 -0.0359  0.0645  0.3972
94783W        W37721  11.339  23.757   7.581 -0.1123 -0.1496 -0.0037
94784W        W37722  10.041  23.129   9.633  0.3083 -0.2367  0.3456
94785W        W37723  14.470  19.684   8.886  0.1533  0.1904  0.4984
94786W        W37724  13.606  22.355   9.507  0.0316  0.1091 -0.1807
94787W        W37725  12.979  25.428   9.876 -0.0751  0.2053  0.1001
94788W        W37726  15.483  25.409   9.383  0.2046 -0.1065 -0.0755
94789W        W37727  10.275  22.534   8.699 -0.0122  0.1668 -0.2059
94790W        W37728  10.826  26.248   9.164  0.0569  0.0315  0.1405
94791W        W37729  12.112  24.785   7.846 -0.1716  0.1374 -0.0279
94792W        W37730  15.339  22.582   8.081  0.0527  0.3248 -0.1679
94793W        W37731  11.702  25.659   7.913 -0.1594 -0.2942 -0.0374
94794W        W37732  12.711  20.515   9.486  0.0004 -0.0364 -0.0596
94795W        W37733  12.031  24.012   8.129 -0.3999 -0.1984 -0.1717
94796W        W37734  12.518  24.129   7.015  0.1307 -0.1765  0.0763
94797W        W37735  11.896  24.910   9.805  0.1955 -0.1413 -0.1673
94798W        W37736  10.648  23.611   9.277  0.2953 -0.2515 -0.0001
94799W        W37737  11.121  24.794   7.424  0.0898  0.0188 -0.3074
94800W        W37738  13.866  22.802   6.811 -0.0396 -0.1015  0.1644
94801W        W37739  12.806  22.042   6.391  0.0846  0.2706  0.0433
94802W        W37740  13.248  22.483   8.755  0.1715 -0.0036 -0.0781
94803W        W37741  12.834  21.740   7.344 -0.1562 -0.1079 -0.0541
94804W        W37742  11.603  24.836   9.352  0.2018 -0.0698 -0.3812
94805W        W37743  12.685  22.041   8.337  0.0210 -0.0159  0.1048
94806W        W37744  11.740  24.295   9.036  0.1129  0.2537 -0.1944
94807W        W37745  13.202  21.645   9.117 -0.1024  0.0155  0.1005
94808W        W37746  12.225  24.746   8.635  0.0500 -0.4167  0.3268
94809W        W37747  12.700  25.015   8.677 -0.1734 -0.0649 -0.1641
94810W        W37748  13.960  24.962   7.272  0.2588 -0.0406  0.2560
94811W        W37749  14.312  23.188   8.229  0.1037 -0.1306  0.2692
94812W        W37750  13.940  24.575   8.562 -0.0281 -0.1741 -0.1963
94813W        W37751  11.432  24.591   8.615  0.0332  0.0659  0.0837
94814W        W37752  11.269  21.724   6.518  0.0437  0.0716 -0.2099
94815W        W37753  14.843  21.824   9.179  0.1892 -0.3632 -0.4265
94816W        W37754  11.999  23.801  10.188 -0.0533  0.2333  0.1142
94817W        W37755  11.827  22.193   9.154  0.0746 -0.1991  0.0439
94818W        W37756  14.427  25.072   8.146  0.1201  0.0983 -0.0888
94819W        W37757  16.608  19.906   9.644  0.0737 -0.0772 -0.0500
94820W        W37758  14.011  22.499   8.247  0.1524 -0.0722 -0.2198
94821W        W37759  12.385  25.276   7.351  0.3698 -0.0024  0.0447
94822W        W37760  12.629  24.294   9.477  0.0478  0.2538 -0.1162
94823W        W37761  16.205  25.751   8.679  0.4030  0.2932 -0.1535
94824W        W37762  13.167  22.282   8.314 -0.1192 -0.0743 -0.1618
94825W        W37763  12.334  26.931  11.619  0.1033  0.1405  0.0730
94826W        W37764  13.221  24.826   6.043  0.1750 -0.1911  0.1504
94827W        W37765  10.315  24.605   7.927  0.0895 -0.0171  0.0073
94828W        W37766  11.294  24.487   9.129  0.1043 -0.0149  0.3350
94829W        W37767  11.215  22.608   9.158  0.0824 -0.2676  0.1215
94830W        W37768  12.576  23.369   9.955 -0.3449  0.1513  0.0395
94831W        W37769  16.002  21.521   6.635  0.0431 -0.0342 -0.1791
94832W        W37770  14.987  21.115   8.772  0.1469  0.1515 -0.3902
94833W        W37771  11.435  25.037   8.881  0.2010  0.2007 -0.1773
94834W        W37772  13.595  24.403   9.345  0.2788  0.0822  0.2086
94835W        W37773  14.588  22.173   7.651 -0.2799 -0.3577 -0.0425
94836W        W37774  14.147  24.668   8.019  0.1090 -0.1174  0.2431
94837W        W37775  11.831  24.431   9.565 -0.0101  0.1384 -0.1083
94838W        W37776  11.549  24.206   8.232  0.0932 -0.1083 -0.0254
94839W        W37777  13.152  21.757   6.979 -0.0883  0.2373 -0.2910
94840W        W37778  11.635  23.388   7.752  0.3144  0.3291  0.0436
94841W        W37779  14.121  22.414   9.908 -0.1507  0.0785  0.1976
94842W        W37780  12.237  24.009   9.307  0.0504 -0.0959  0.0018
94843W        W37781  10.970  24.860   8.792 -0.2341  0.0135  0.0602
94844W        W37782  12.024  25.749   9.522 -0.2034  0.0985  0.1053
94845W        W37783  14.770  24.260   8.301  0.0991  0.0493 -0.3598
94846W        W37784  13.194  25.254   8.571 -0.0211 -0.1797  0.0183
94847W        W37785  10.540  23.230   8.778 -0.1377  0.0376  0.0206
94848W        W37786  11.317  23.255   8.115  0.2672 -0.1937 -0.1282
94849W        W37787  11.704  27.128   9.682  0.0007 -0.0466 -0.4523
94850W        W37788  12.326  26.569  10.260  0.1355 -0.2005  0.1243
94851W        W37789  13.230  22.182   6.759  0.0575 -0.0596  0.1028
94852W        W37790  15.094  24.173   8.715  0.0187 -0.2459 -0.1461
94853W        W37791  12.560  23.215   7.226 -0.1152  0.0042 -0.4970
94854W        W37792  13.318  23.304   8.512  0.2112  0.0526  0.1448
94855W        W37793  13.641  22.712   8.513  0.0225 -0.3838  0.0256
94856W        W37794  11.920  22.383   6.417 -0.3270  0.0844 -0.1570
94857W        W37795  13.522  23.631  10.319  0.1238 -0.1659  0.4547
94858W        W37796  12.879  25.286   7.505  0.4336  0.1363  0.1028
94859W        W37797   9.403  24.777   9.725 -0.1033  0.0057 -0.2483
94860W        W37798  12.786  25.507   8.844 -0.3519 -0.0635  0.0464
94861W        W37799  13.424  22.112   9.074  0.0579  0.1942  0.1287
94862W        W37800  11.821  24.379   7.855 -0.2825  0.1283  0.1130
94863W        W37801  14.063  21.470   8.851  0.0174  0.1957 -0.1991
94864W        W37802  14.585  21.260   7.828 -0.1080 -0.0589 -0.0592
94865W        W37803  14.919  22.950   8.219 -0.0591 -0.0365  0.2932
94866W        W37804  12.794  22.560   6.837 -0.0812 -0.1781 -0.0689
94867W        W37805  13.355  22.526   7.410 -0.0323 -0.1867 -0.1896
94868W        W37806  12.756  23.972   7.822  0.4860 -0.3908  0.2609
94869W        W37807  12.602  23.633   8.583  0.1154 -0.0020 -0.1805
94870W        W37808  12.596  22.409   7.975  0.1093  0.3524  0.3238
94871W        W37809  15.784  24.147   7.499  0.2059 -0.3210  0.0971
94872W        W37810  10.340  24.558   9.592 -0.0234  0.2707 -0.2352
94873W        W37811  14.455  24.769   7.428  0.2037 -0.1760  0.0269
94874W        W37812  12.313  22.483  10.005 -0.0626  0.0727  0.0384
94875W        W37813  12.708  23.754   7.324  0.0337  0.2805  0.0023
94876W        W37814  13.243  20.596   7.943 -0.1252 -0.0018 -0.1836
94877W        W37815  12.713  25.763   7.271  0.0770 -0.0402 -0.4316
94878W        W37816  13.988  20.591   9.011 -0.0732  0.0497 -0.3916
94879W        W37817  13.421  22.928   9.593  0.1499 -0.0677  0.1738
94880W        W37818  13.218  22.956   7.687  0.2995 -0.2260  0.2181
94881W        W37819  12.772  23.129   8.372 -0.2316 -0.1476  0.1878
94882W        W37820  12.828  24.631   7.769  0.0776 -0.2518 -0.0063
94883W        W37821  12.917  20.882   8.278 -0.4639 -0.2095 -0.0501
94884W        W37822  12.731  25.071  10.615  0.1691  0.1711 -0.0999
94885W        W37823  12.482  24.070   8.387 -0.2871  0.2610  0.1071
94886W        W37824  12.295  23.239   8.446  0.4571 -0.1491  0.1352
94887W        W37825  12.402  24.341   7.649  0.2581  0.0368 -0.0239
94888W        W37826  13.511  23.899   6.677  0.1780  0.3033 -0.1430
94889W        W37827  11.877  21.155   7.866  0.1092 -0.0641 -0.1745
94890W        W37828  10.901  25.815   9.905 -0.0773  0.1945  0.2180
94891W        W37829  13.548  23.057   7.294  0.4436 -0.2525 -0.0448
94892W        W37830  13.895  22.689   8.995  0.0012 -0.0428 -0.1643
94893W        W37831  12.307  25.073   8.238  0.2900 -0.0340 -0.0704
94894W        W37832  14.637  23.199   8.640 -0.1448 -0.0403  0.1219
94895W        W37833  11.219  26.261   9.713  0.1574  0.1831  0.1756
94896W        W37834  12.502  23.551   8.085 -0.0814 -0.3231 -0.1580
94897W        W37835  10.470  24.102   7.452 -0.1046  0.0488 -0.2597
94898W        W37836  14.477  21.766   8.058 -0.3950  0.0256  0.2188
94899W        W37837  14.184  23.565   8.758 -0.0058 -0.0623 -0.2525
94900W        W37838  12.870  23.412   9.561 -0.1952 -0.0125  0.0831
94901W        W37839  12.853  21.280   9.042 -0.0742 -0.0747  0.1764
94902W        W37840  11.440  24.594   9.780 -0.1196 -0.1508 -0.3735
94903W        W37841  14.595  21.932   7.142  0.1870  0.1250  0.4418
94904W        W37842  11.002  24.262   7.330  0.0923 -0.0798 -0.0325
94905W        W37843  13.752  23.510   8.952  0.0557  0.0869  0.1761
94906W        W37844  12.245  21.876   8.544  0.0093  0.2458 -0.0142
94907W        W37845  10.872  25.011   9.927  0.1567 -0.1938 -0.2277
94908W        W37846  12.852  24.156   9.938  0.0163  0.0271  0.0353
94909W        W37847  12.154  24.677   7.351  0.0709  0.1981  0.2547
94910W        W37848  12.679  25.191   9.339  0.4440  0.2664  0.0871
94911W        W37849  13.071  21.916   9.583  0.0263 -0.1225  0.0945
94912W        W37850  12.758  22.589   8.947 -0.2593 -0.0374  0.0950
94913W        W37851  12.315  23.663   6.988  0.0229  0.1131  0.1660
94914W        W37852  11.829  23.770   8.557 -0.3336  0.0858 -0.1893
94915W        W37853  10.598  25.168  10.344  0.2718  0.1078  0.1680
94916W        W37854  12.198  21.379   8.708 -0.0667  0.1239  0.2027
94917W        W37855  12.773  22.658   8.434  0.0992  0.1487 -0.4672
94918W        W37856  14.019  24.019   8.813 -0.0185 -0.1806  0.0257
94919W        W37857  11.195  25.007   8.355 -0.2332  0.0814  0.0698
94920W        W37858  11.548  22.907   8.748  0.3609 -0.1645 -0.2859
94921W        W37859  13.207  24.482   6.921  0.3827  0.1946 -0.0764
94922W        W37860  12.035  23.016   8.769 -0.3305  0.0891 -0.0333
94923W        W37861  11.871  25.124   8.569  0.2174  0.0654 -0.0590
94924W        W37862  10.451  25.921   8.232 -0.0158 -0.3393 -0.0438
94925W        W37863  11.724  23.460   9.998  0.0259 -0.0768  0.0948
94926W        W37864  14.389  21.903   5.985 -0.0788  0.0598  0.1519
94927W        W37865  13.953  23.537   8.052 -0.3307 -0.2420 -0.0818
94928W        W37866  12.757  22.854   7.857  0.0793 -0.3106  0.0395
94929W        W37867  13.060  22.424   7.832 -0.1108  0.0558 -0.0221
94930W        W37868  11.476  22.575   9.720 -0.3489 -0.3897 -0.0273
94931W        W37869  12.970  23.696   8.250 -0.2210 -0.1233  0.2688
94932W        W37870  13.353  22.023   7.383  0.1475 -0.0972  0.0455
94933W        W37871  11.746  23.006   7.505 -0.1044 -0.1374 -0.1261
94934W        W37872  12.569  27.587  11.708  0.0834  0.0224  0.2173
94935W        W37873  13.686  21.413   9.196 -0.1536 -0.0964 -0.4840
94936W        W37874  13.674  23.939   7.861  0.2384 -0.0410 -0.1417
94937W        W37875  13.803  23.255   8.541  0.0177 -0.2335  0.1027
94938W        W37876  11.031  25.439   9.594  0.0037  0.1775  0.0620
94939W        W37877  14.289  21.677   7.599 -0.2794  0.0129  0.0313
94940W        W37878  13.245  22.824   8.171  0.3035 -0.0747 -0.1977
94941W        W37879  11.131  24.915   9.442  0.4030 -0.1472  0.0259
94942W        W37880  12.562  23.831   9.701 -0.0555 -0.0340 -0.4338
94943W        W37881  13.094  21.916   8.682  0.2058 -0.1478  0.4998
94944W        W37882  13.443  23.727   9.692  0.2178  0.1592  0.2703
94945W        W37883  14.551  22.756   7.536  0.1204 -0.0371  0.2549
94946W        W37884  16.403  21.420   9.583  0.0385 -0.1463 -0.2203
94947W        W37885  13.848  21.887   9.295 -0.0789  0.2231  0.1794
94948W        W37886  13.112  23.276   7.212  0.3848  0.0127  0.1450
94949W        W37887  12.623  21.670   8.731 -0.1457 -0.2269  0.0462
94950W        W37888  12.354  22.831   7.464 -0.1001 -0.1886  0.1823
94951W        W37889  12.860  24.750   8.262 -0.1817 -0.0396  0.2273
94952W        W37890  12.676  24.746   9.082  0.1475 -0.3400 -0.2630
94953W        W37891  12.930  22.290   7.315  0.0209 -0.1193  0.0683
94954W        W37892  11.667  22.745   9.204 -0.0129  0.2874 -0.1774
94955W        W37893  10.779  22.297   6.051  0.2444  0.1171  0.0733
94956W        W37894  12.387  24.575   8.217  0.1981  0.0459 -0.0922
94957W        W37895  13.023  24.038   8.703  0.0816 -0.1869  0.1741
94958W        W37896  13.690  22.402   7.084  0.1588 -0.1319  0.2448
94959W        W37897  11.930  24.821   9.034 -0.3565  0.1690  0.1039
94960W        W37898  13.830  22.239   8.771  0.0081  0.2798 -0.2769
94961W        W37899   8.185  25.570   9.866 -0.0863  0.2050  0.2073
94962W        W37900  12.646  24.125   9.008 -0.1481 -0.0581 -0.4760
94963W        W37901  12.470  20.719   8.256 -0.2190  0.2417  0.4922
94964W        W37902  13.337  23.725   8.795  0.4017 -0.1297 -0.0166
94965W        W37903  12.700  24.488   8.645 -0.2464  0.3017  0.1924
94966W        W37904  13.551  21.706   9.679 -0.3885  0.0159  0.2636
94967W        W37905  13.227  24.160   7.721 -0.0137 -0.0787 -0.0638
94968W        W37906  12.229  24.756   9.413  0.0593 -0.3738  0.1351
94969W        W37907  13.517  23.046   8.981  0.2840  0.0489  0.0434
94970W        W37908  12.189  22.385   8.253  0.3237 -0.3228 -0.0697
94971W        W37909  13.192  24.906   6.640  0.0068  0.1149 -0.1204
94972W        W37910  12.245  23.978   8.789 -0.1163 -0.4416 -0.0264
94973W        W37911  12.316  25.147   8.952 -0.1663 -0.0000  0.3013
94974W        W37912  13.568  24.191   8.693 -0.1925  0.1073 -0.0577
94975W        W37913  13.145  23.618   7.579 -0.1607  0.0073  0.1527
94976W        W37914  14.623  23.303   9.121 -0.0469 -0.0440 -0.3244
94977W        W37915  11.951  23.075   7.950  0.0880  0.1935 -0.0744
94978W        W37916  10.371  25.958   9.181 -0.2379  0.3571  0.0909
94979W        W37917  10.813  24.434   6.873  0.0177  0.0963 -0.0869
94980W        W37918  15.129  24.018   7.379  0.1923 -0.3334 -0.0695
94981W        W37919  11.415  25.781   9.714  0.0557 -0.1319  0.2014
94982W        W37920  14.835  21.106   6.272  0.1402 -0.1896  0.1088
94983W        W37921  15.750  20.697   9.996 -0.1023  0.1198  0.0952
94984W        W37922  13.833  22.923   8.107  0.0212 -0.1331 -0.0841
94985W        W37923  12.993  23.012   9.235 -0.0389  0.1277  0.0860
94986W        W37924  11.132  22.877   7.774  0.0405 -0.1332  0.1256
94987W        W37925  13.148  24.910   9.575  0.0232  0.1242 -0.0144
94988W        W37926  10.973  22.500   7.545 -0.2749  0.0110 -0.0838
94989W        W37927  11.876  22.804   8.359  0.1748  0.2158 -0.1418
94990W        W37928  14.273  21.967   8.978  0.0403 -0.3356 -0.2594
94991W        W37929  13.001  24.090   6.692  0.1198  0.0761  0.0860
94992W        W37930  13.679  21.754   8.793  0.0548  0.0147  0.1339
94993W        W37931  13.154  25.432   9.446  0.0017  0.0407  0.1514
94994W        W37932  13.037  23.934   9.447  0.0727 -0.0690 -0.0326
94995W        W37933  12.789  24.767  10.132  0.3691 -0.0282 -0.0721
94996W        W37934  10.328  22.393   8.245  0.0475 -0.0231 -0.0110
94997W        W37935  13.429  21.916   7.839 -0.1374 -0.2023 -0.2020
94998W        W37936  11.879  23.929   9.776  0.0068 -0.0932  0.1851
94999W        W37937  11.448  23.944   8.794 -0.0662  0.1462  0.1509
95000W        W37938  14.181  21.993   8.462  0.0331  0.1253 -0.1896
95001W        W37939  17.006  25.482   9.158  0.0049  0.1002  0.2616
95002W        W37940  13.614  22.049   8.324  0.0421 -0.0290 -0.0152
95003W        W37941  13.027  21.474   6.600  0.1322 -0.0176  0.1622
95004W        W37942  12.494  23.035   6.686  0.0027 -0.2084  0.0569
95005W        W37943  12.529  22.958   9.495  0.2001  0.0455 -0.0548
95006W        W37944  13.672  22.785   7.662  0.0514 -0.0941 -0.1570
95007W        W37945  11.982  24.333   8.519 -0.0531 -0.0182  0.1430
95008W        W37946  12.828  23.676   9.079 -0.1619 -0.0841 -0.1667
95009W        W37947  11.589  22.679   7.996  0.1161 -0.0343 -0.0614
95010W        W37948  15.582  23.753   7.254 -0.1532 -0.1020 -0.0841
95011W        W37949  14.599  21.576   8.772  0.0265  0.1141  0.1624
95012W        W37950  12.010  25.132   6.999  0.2364  0.0159 -0.1179
95013W        W37951  13.649  23.339   7.686  0.1310  0.3236  0.0657
95014W        W37952  15.251  26.822   9.622 -0.0230 -0.0040  0.0758
95015W        W37953  13.562  23.757  10.949  0.2527 -0.1691  0.3331
95016W        W37954  17.237  25.094   8.471  0.0063  0.1828  0.1411
95017W        W37955  11.743  23.224  10.444  0.0677 -0.4122  0.2067
95018W        W37956  13.079  21.347   7.738  0.1552  0.2387  0.0502
95019W        W37957  11.327  23.452   8.654  0.0528  0.5300 -0.2154
95020W        W37958  11.155  25.524   8.108  0.0640 -0.0709 -0.0258
95021W        W37959  14.130  22.337   9.343 -0.0717  0.0679 -0.0942
95022W        W37960  12.104  24.095   7.397  0.1111  0.0294 -0.2258
95023W        W37961  15.303  24.972   9.533 -0.0352  0.3031 -0.1099
95024W        W37962  11.023  23.714   8.057 -0.0123  0.1303 -0.3221
95025W        W37963  11.979  25.275   9.390  0.1131 -0.0330 -0.0291
95026W        W37964  13.346  26.438   9.160 -0.0156 -0.0779  0.0257
95027W        W37965  13.592  24.288   9.844  0.2553 -0.1830  0.1161
95028W        W37966  12.606  23.109   8.857 -0.1980 -0.1186  0.0279
95029W        W37967  14.064  24.661   9.483  0.3115  0.0112 -0.0286
95030W        W37968  12.669  22.049   6.927  0.2321 -0.0836 -0.1403
95031W        W37969  14.661  22.591   6.382 -0.0835 -0.1947  0.0902
95032W        W37970  13.822  21.816   7.484 -0.0386  0.0608  0.0879
95033W        W37971  12.215  23.355  10.287 -0.1586 -0.0471  0.0579
95034W        W37972  11.803  24.860   6.554  0.1295  0.0210 -0.2397
95035W        W37973  12.215  25.607   6.939 -0.0983  0.0391 -0.1929
95036W        W37974  11.203  22.803   8.289 -0.1052 -0.1379 -0.4614
95037W        W37975  10.857  24.059   9.081  0.1590  0.1046 -0.1127
95038W        W37976  12.014  23.555   8.061 -0.1731 -0.2802 -0.0076
95039W        W37977  14.670  23.797   8.716 -0.0035  0.1320 -0.1240
95040W        W37978  10.474  19.583  10.588 -0.1839 -0.2235  0.0638
95041W        W37979  10.761  22.590   8.025 -0.1168 -0.0975 -0.1467
95042W        W37980  14.443  24.599   8.423  0.2963 -0.0989  0.1772
95043W        W37981  13.437  24.905   8.390  0.1588  0.1180  0.0161
95044W        W37982  12.203  21.921   8.013 -0.0869  0.0797  0.3723
95045W        W37983  11.702  24.834   7.561  0.0463 -0.1347  0.1295
95046W        W37984  11.839  21.666   8.334  0.0350 -0.0011  0.1655
95047W        W37985  13.301  22.599   9.237 -0.1281  0.1669 -0.0291
95048W        W37986  13.650  24.422   7.656 -0.0102  0.0497 -0.0317
95049W        W37987  14.948  25.156   7.327 -0.2997  0.0018  0.0691
95050W        W37988  12.182  22.694   9.106 -0.0304 -0.0966 -0.0848
95051W        W37989  13.031  23.271   8.011 -0.1443 -0.0373  0.0421
95052W        W37990  15.448  23.721   7.766 -0.0771 -0.2421  0.2311
95053W        W37991  14.091  21.075   9.176 -0.0927  0.1613  0.2104
95054W        W37992  12.321  23.812   7.724 -0.0295  0.0709  0.3430
95055W        W37993  14.216  24.054   8.224 -0.0569 -0.0713  0.0761
95056W        W37994  12.854  19.991   8.449 -0.2438 -0.0016  0.1401
95057W        W37995  14.455  22.415   6.925 -0.2207  0.1493 -0.2470
95058W        W37996  13.366  25.187   7.474 -0.0272  0.3216  0.0528
95059W        W37997  11.243  22.340   8.006  0.3852  0.0642  0.1671
95060W        W37998  12.628  23.385   7.676 -0.1249 -0.2445  0.0566
95061W        W37999  12.882  24.277   8.195  0.0482 -0.2485  0.1247
95062W        W38000  12.813  22.790   7.337 -0.0993 -0.0703  0.1027
95063W        W38001  14.591  23.716   7.437  0.0800  0.0912  0.1060
95064W        W38002  13.099  24.423   9.610 -0.1163  0.3638  0.2605
95065W        W38003  17.633  23.229  11.470 -0.3125  0.0042  0.1057
95066W        W38004  13.907  23.687   9.383 -0.0632  0.0369  0.3225
95067W        W38005  12.233  21.304   9.523  0.1527 -0.3778  0.1819
95068W        W38006  10.312  23.727   8.611 -0.2648  0.0941  0.0385
95069W        W38007  12.350  25.592   9.140 -0.1626  0.2242  0.1313
95070W        W38008  12.825  22.011   9.147  0.0908  0.1360  0.0554
95071W        W38009  12.131  23.479   8.845 -0.1422  0.1621 -0.0932
95072W        W38010  13.090  21.793   8.226  0.1471 -0.1067  0.0084
95073W        W38011  10.883  23.828   9.672  0.1271  0.1877  0.0734
95074W        W38012  13.143  24.609   8.698  0.2431 -0.0140 -0.0834
95075W        W38013  11.093  27.658   1.499  0.0098  0.1403  0.1604
95076W        W38014  12.163  25.930   0.165  0.0757  0.0942  0.0886
95077W        W38015  12.577  27.111   0.030 -0.2001 -0.3549  0.0347
95078W        W38016  14.208  27.022  31.038  0.0406  0.1582 -0.0560
95079W        W38017  11.142  26.353   0.790 -0.3302  0.1151 -0.0287
95080W        W38018  14.054  29.158   0.490 -0.1717  0.1828  0.1741
95081W        W38019  11.718  24.996   2.709  0.2839 -0.2145  0.1406
95082W        W38020  13.686  28.286   1.430  0.1436  0.2375  0.2639
95083W        W38021  12.864  29.088   2.632 -0.0660  0.1082 -0.0461
95084W        W38022  13.252  28.534  31.216  0.0566 -0.4861 -0.0016
95085W        W38023  13.545  26.873   1.755  0.0058  0.2612  0.1849
95086W        W38024  11.160  28.213   1.189  0.2724 -0.1333  0.1871
95087W        W38025  12.413  26.078  31.718 -0.2802  0.0518 -0.0344
95088W        W38026  12.320  26.272   0.950 -0.1798  0.2270  0.0798
95089W        W38027  13.196  28.437   2.024  0.4501  0.4527  0.2834
95090W        W38028   9.763  26.430   1.291 -0.0051 -0.0146  0.2942
95091W        W38029  12.400  25.686   1.070  0.3886 -0.1434 -0.3713
95092W        W38030  13.503  26.752   2.300  0.1264  0.0168  0.0727
95093W        W38031  11.135  29.019   0.805 -0.1581 -0.0831  0.0081
95094W        W38032  12.542  26.999   3.146  0.1114  0.2269  0.0276
95095W        W38033  13.907  25.360   3.443 -0.1513  0.1780 -0.2474
95096W        W38034  13.343  28.161   0.441  0.2527 -0.2640 -0.3104
95097W        W38035  11.082  25.344  30.634  0.2578  0.1436 -0.2356
95098W        W38036  12.265  26.372   0.463  0.3209  0.1878  0.1990
95099W        W38037  10.653  26.554   1.329 -0.0058 -0.1709  0.1972
95100W        W38038  13.918  27.307   1.105 -0.1916 -0.2636  0.0151
95101W        W38039  13.616  27.205   0.734  0.1425 -0.0834  0.0448
95102W        W38040  13.315  28.828   2.293 -0.0690  0.1390  0.0112
95103W        W38041  12.020  29.018   0.477 -0.1008  0.2326 -0.0405
95104W        W38042  12.145  28.877   2.444 -0.0560  0.5313  0.0905
95105W        W38043  10.344  27.600   1.581  0.0745 -0.0849  0.1798
95106W        W38044  10.435  29.820   1.640 -0.2319  0.0163  0.0698
95107W        W38045  11.033  27.982   0.552 -0.0752  0.0306  0.1829
95108W        W38046  14.135  27.069  31.521  0.0904  0.0811  0.2845
95109W        W38047  12.801  28.620   2.403 -0.2089 -0.0747 -0.0101
95110W        W38048  11.572  29.066   3.011  0.0238  0.0088  0.2507
95111W        W38049   9.627  28.899  31.156  0.1936 -0.0845  0.3355
95112W        W38050  12.784  28.611   1.287  0.1510  0.0666 -0.0696
95113W        W38051  11.495  28.102   2.618  0.2197 -0.1383  0.0836
95114W        W38052  12.480  26.812   2.266  0.4975 -0.1471  0.2197
95115W        W38053  12.742  26.365   2.486  0.1455 -0.0372  0.1129
95116W        W38054  12.595  28.265   0.797  0.0469  0.1181 -0.0155
95117W        W38055  12.687  28.092   1.272 -0.0431 -0.1575  0.0063
95118W        W38056  11.856  28.295   1.735 -0.3385 -0.3769  0.1026
95119W        W38057  10.441  29.005   1.506 -0.0084  0.1930  0.2118
95120W        W38058  13.968  26.525   2.392 -0.2334 -0.1079  0.3632
95121W        W38059   9.986  28.368   0.367 -0.2062  0.4074  0.0388
95122W        W38060  13.873  26.674  31.223 -0.2077 -0.0639 -0.1798
95123W        W38061  12.095  27.262  31.230  0.0880  0.3310  0.2365
95124W        W38062  13.576  27.209   0.194  0.1605  0.0210 -0.0281
95125W        W38063  12.684  25.939   0.630 -0.3348 -0.1750  0.2773
95126W        W38064  10.393  27.154   0.512 -0.0038 -0.0548  0.3115
95127W        W38065  13.864  25.935   2.727  0.1285 -0.3155 -0.5813
95128W        W38066  14.199  27.599   1.988 -0.0074  0.0066 -0.2115
95129W        W38067  13.081  27.643   2.002 -0.1457 -0.0349 -0.1394
95130W        W38068  13.783  27.753   1.313 -0.1048 -0.2945 -0.1026
95131W        W38069  11.181  28.802   3.383  0.0835  0.3372  0.3983
95132W        W38070  10.910  26.579  31.937 -0.0552 -0.0831 -0.2245
95133W        W38071  15.229  27.945   0.175  0.4554 -0.1746 -0.1369
95134W        W38072  14.992  29.166   2.189  0.1783  0.2827 -0.2612
95135W        W38073  13.562  27.949  30.716 -0.1206 -0.4181 -0.2234
95136W        W38074  11.312  26.957   0.697 -0.0508 -0.0908  0.1193
95137W        W38075  11.191  27.166   2.991  0.2184  0.1974  0.4324
95138W        W38076  11.491  27.784   3.065  0.1958 -0.1344  0.1101
95139W        W38077  10.635  25.332   0.996 -0.1334  0.0385  0.0808
95140W        W38078  13.068  28.088   2.637 -0.2192 -0.4362  0.3365
95141W        W38079  10.859  28.408   3.482 -0.2378  0.2313 -0.0066
95142W        W38080  14.047  26.253   1.164  0.1058 -0.0632  0.0597
95143W        W38081  10.923  26.845   1.007  0.1593  0.3173  0.0387
95144W        W38082  13.999  27.947   1.709  0.0873  0.0214 -0.0894
95145W        W38083  14.857  28.404   0.620  0.0374  0.0399  0.1963
95146W        W38084  12.602  27.208   2.529 -0.0089  0.3871 -0.2739
95147W        W38085  14.577  23.583   2.722 -0.1448 -0.0333  0.2632
95148W        W38086  12.871  28.083   0.166 -0.2118  0.2379 -0.0400
95149W        W38087  13.850  28.292   0.452 -0.0672 -0.1028 -0.1357
95150W        W38088  14.375  29.514   2.739  0.2956 -0.0434 -0.0460
95151W        W38089  14.618  26.552   0.107  0.1532  0.2488  0.0362
95152W        W38090  10.335  28.810   2.938  0.1089  0.1186  0.0292
95153W        W38091  11.641  28.666   3.301 -0.1544  0.1934  0.1858
95154W        W38092  13.035  28.990   3.633 -0.0960 -0.0153  0.1583
95155W        W38093  10.582  30.611   0.635 -0.0977  0.1510 -0.1857
95156W        W38094  10.783  26.658   2.368  0.2630  0.0394  0.3171
95157W        W38095  11.134  27.750   1.005 -0.3099 -0.0070 -0.1082
95158W        W38096  12.243  26.375   2.459 -0.1267 -0.2834  0.3006
95159W        W38097  11.369  26.710   3.222 -0.1564 -0.1687  0.0039
95160W        W38098  14.246  25.742   0.297 -0.2931 -0.1259  0.3597
95161W        W38099  12.257  25.163   3.273  0.0299  0.1423 -0.0567
95162W        W38100  14.634  25.806   1.181 -0.4897  0.2156  0.0855
95163W        W38101  11.128  27.526   1.995  0.0086 -0.0854 -0.2245
95164W        W38102  14.830  28.894   0.360  0.1076 -0.2184 -0.1291
95165W        W38103  13.996  27.821  30.917  0.0577  0.1881  0.2251
95166W        W38104  14.355  28.092   0.581  0.0882  0.0306 -0.1332
95167W        W38105  12.614  27.329   1.781 -0.4769  0.1072  0.0356
95168W        W38106  11.846  26.615   0.689 -0.1721  0.1972 -0.1538
95169W        W38107  12.068  25.596   3.499 -0.1637  0.2326 -0.2151
95170W        W38108  12.772  25.288   2.891 -0.1077  0.2804  0.1856
95171W        W38109  13.002  26.708   3.049  0.2087 -0.0207  0.1335
95172W        W38110  11.652  24.428   0.971 -0.0226 -0.1797 -0.1946
95173W        W38111  14.834  26.015   0.755  0.2215  0.1503 -0.0959
95174W        W38112  13.512  27.164   1.341  0.2039 -0.1551  0.1874
95175W        W38113  11.455  26.504  31.897  0.2432  0.0583 -0.3929
95176W        W38114  13.833  26.615   3.433  0.0087  0.5431 -0.1376
95177W        W38115  14.016  29.894  31.453  0.0723  0.2092 -0.3701
95178W        W38116  13.824  29.446   1.500  0.1335 -0.1554  0.1461
95179W        W38117  14.575  28.693   1.822  0.0180  0.2185 -0.1627
95180W        W38118  12.090  26.088   2.004 -0.0410 -0.0916 -0.0238
95181W        W38119  11.389  25.988   0.534 -0.4599 -0.1198  0.1677
95182W        W38120  10.247  27.501   3.080  0.1188 -0.0485 -0.1321
95183W        W38121  12.168  27.975   0.973 -0.2619 -0.1786 -0.0265
95184W        W38122  11.865  26.028  30.854 -0.1825 -0.0382 -0.0086
95185W        W38123  15.029  28.558   1.350 -0.1424  0.0883 -0.0080
95186W        W38124  12.394  27.659   1.428 -0.0346  0.4227  0.0997
95187W        W38125  11.140  26.305   2.474 -0.0534  0.0458  0.1601
95188W        W38126  14.219  25.065   1.701  0.3520  0.0005 -0.1688
95189W        W38127  14.087  28.150   1.247  0.1262  0.1687 -0.0839
95190W        W38128  13.958  26.865   1.413 -0.0486 -0.1857  0.0885
95191W        W38129  12.598  26.735   0.300  0.2916  0.1446 -0.0111
95192W        W38130  12.195  29.093   1.243 -0.0487  0.0051 -0.0313
95193W        W38131  11.135  29.993   0.846  0.0582  0.1787 -0.0980
95194W        W38132  10.920  26.699   1.880  0.1556 -0.3073 -0.1978
95195W        W38133  11.600  28.677   0.788  0.1073  0.0479  0.0081
95196W        W38134  14.912  25.390   1.127 -0.0016  0.1355 -0.0263
95197W        W38135  11.676  26.527   2.560 -0.0450  0.0956  0.1991
95198W        W38136  13.248  24.933   2.367 -0.1723 -0.2471 -0.0574
95199W        W38137  11.696  28.478  31.641  0.1085 -0.2723 -0.0152
95200W        W38138  11.068  27.528   3.322 -0.1130 -0.0997 -0.2117
95201W        W38139  11.935  25.811   1.152  0.4102 -0.3170  0.0514
95202W        W38140  14.763  25.650   0.406 -0.1356  0.0583  0.2093
95203W        W38141  11.764  27.915   2.227 -0.1821 -0.0657 -0.2427
95204W        W38142  14.393  27.149   1.278  0.0452  0.1114 -0.3843
95205W        W38143  13.544  26.956  30.953  0.3882  0.1441 -0.0782
95206W        W38144  14.308  26.535  31.503  0.1769 -0.0258 -0.1133
95207W        W38145  10.491  28.359   3.131 -0.0262  0.2413  0.1175
95208W        W38146  13.352  28.691   1.149 -0.0463  0.1609  0.0760
95209W        W38147  13.701  26.263  30.953  0.0844 -0.0689  0.3694
95210W        W38148  14.698  28.274  31.172 -0.0712  0.1756 -0.1032
95211W        W38149  10.916  28.670   3.024  0.3617  0.5186 -0.0540
95212W        W38150  13.087  29.459   2.348 -0.2714  0.3917 -0.0248
95213W        W38151  14.074  28.650   2.266 -0.1298 -0.1029  0.1165
95214W        W38152  12.821  26.330   1.647  0.0917  0.2373  0.0915
95215W        W38153  10.259  28.021   1.850  0.1916  0.1293 -0.0428
95216W        W38154  13.176  25.665   0.223  0.2032 -0.1724  0.0843
95217W        W38155  10.956  27.912  31.510  0.0452 -0.1720 -0.0412
95218W        W38156  13.131  26.324   2.814 -0.1033  0.1712  0.2242
95219W        W38157  13.992  25.627   1.991 -0.1586  0.1626  0.4900
95220W        W38158  14.293  24.953   2.627  0.1970 -0.0883  0.0206
95221W        W38159  12.099  27.182   2.970 -0.2844  0.5118  0.1528
95222W        W38160  15.615  25.905   1.563 -0.2733 -0.1350  0.3035
95223W        W38161  13.761  27.944   2.516 -0.0300  0.0679 -0.1582
95224W        W38162  12.114  27.162  31.890  0.1075 -0.3058  0.1085
95225W        W38163  12.567  26.740   2.731 -0.2169 -0.2292 -0.3488
95226W        W38164  11.681  27.049   2.349 -0.2440  0.1022 -0.0639
95227W        W38165  11.374  28.602   2.884 -0.1474 -0.2221 -0.1197
95228W        W38166  14.474  30.293   2.244  0.1530 -0.1048 -0.2911
95229W        W38167  13.664  29.040   1.913 -0.2902  0.1020  0.0354
95230W        W38168  14.258  26.346   3.443  0.3233  0.1634  0.1249
95231W        W38169  13.324  26.640  31.922 -0.1876  0.3846 -0.1297
95232W        W38170  12.703  28.967  31.611 -0.1243 -0.2101  0.1821
95233W        W38171  12.650  27.892  31.759 -0.2991 -0.2181  0.0948
95234W        W38172  12.575  25.380   2.393  0.0444  0.2171  0.1912
95235W        W38173  12.262  28.696   1.637 -0.2157  0.1565 -0.0344
95236W        W38174  12.995  28.499   0.608 -0.6474  0.2127  0.0072
95237W        W38175  14.165  28.984   1.882 -0.2376 -0.0241  0.1300
95238W        W38176  10.690  28.192   0.999 -0.0886 -0.1177 -0.2254
95239W        W38177  15.066  23.762   1.620  0.1846  0.1175  0.0372
95240W        W38178  10.417  28.808  31.749  0.2637  0.0307  0.0915
95241W        W38179  11.841  27.479  31.618 -0.1386 -0.1918  0.0782
95242W        W38180  11.083  27.500   0.163  0.0018  0.0958  0.3167
95243W        W38181  14.414  25.635   0.793  0.0666 -0.1461  0.2608
95244W        W38182  14.628  26.679  31.210 -0.0761  0.0666 -0.0701
95245W        W38183  11.806  25.216   1.832  0.0426 -0.0005 -0.0808
95246W        W38184  13.762  26.487   0.713  0.1288 -0.0815 -0.0147
95247W        W38185  10.129  28.518   2.263 -0.1445  0.3597  0.1925
95248W        W38186  13.442  28.037   1.780 -0.0399  0.0557  0.0254
95249W        W38187  14.779  25.223  31.768 -0.0075 -0.1066  0.1801
95250W        W38188  13.163  29.950   1.891  0.1331  0.1071  0.1144
95251W        W38189  11.837  27.592   4.035 -0.3444 -0.0044 -0.0514
95252W        W38190  10.848  25.627  31.917  0.0357  0.0228 -0.0215
95253W        W38191  13.367  26.926   3.342 -0.1821  0.2117 -0.0586
95254W        W38192  12.033  27.483   0.998 -0.0693  0.1457  0.2403
95255W        W38193  10.080  28.439   1.562 -0.6080 -0.0816  0.3170
95256W        W38194  12.218  28.658   0.070 -0.0917  0.0642  0.0747
95257W        W38195  12.535  26.580   1.295 -0.1885 -0.0405 -0.2040
95258W        W38196  11.328  28.927   1.950  0.1221 -0.2749  0.1315
95259W        W38197  12.566  26.346   2.036  0.0419 -0.2881 -0.3072
95260W        W38198  13.331  27.964   2.269  0.1905  0.0195  0.1095
95261W        W38199  12.829  26.175   1.124 -0.4340 -0.2167 -0.0503
95262W        W38200  12.655  26.106   0.124 -0.0102 -0.1551 -0.0232
95263W        W38201  12.451  28.180   1.779 -0.1110  0.1862 -0.1062
95264W        W38202  12.947  27.839   0.618  0.0979 -0.1881  0.0349
95265W        W38203  12.127  27.529   2.563  0.1434  0.5795  0.0278
95266W        W38204  12.044  27.666   3.160 -0.0535  0.0634 -0.2455
95267W        W38205  12.935  25.234   1.420  0.1199  0.0724 -0.0035
95268W        W38206  13.070  29.122   0.964  0.1841 -0.2325 -0.2254
95269W        W38207  13.686  27.638   2.046  0.0859  0.3838  0.0190
95270W        W38208  13.246  28.709   1.613 -0.0277  0.0913 -0.1501
95271W        W38209  11.198  26.822   2.651  0.1124 -0.1074 -0.1094
95272W        W38210  12.784  27.568   0.188  0.0202 -0.1395  0.1756
95273W        W38211  13.142  26.093   2.170  0.0397  0.4396 -0.0378
95274W        W38212  11.035  28.846   2.438  0.1691 -0.2353 -0.0038
95275W        W38213  10.918  29.954   1.655 -0.0738 -0.2368  0.3287
95276W        W38214  11.990  27.869   4.739 -0.2210 -0.1584 -0.1163
95277W        W38215  14.102  25.231  31.093  0.1447 -0.2558  0.0597
95278W        W38216  13.809  28.710   0.224 -0.1186  0.3128  0.0050
95279W        W38217  14.397  26.371   1.789  0.1882  0.1945  0.2899
95280W        W38218  13.882  26.106   2.131 -0.1630 -0.1282 -0.0802
95281W        W38219  13.987  27.066   0.430  0.3081  0.2585  0.0481
95282W        W38220  14.186  23.822   2.889  0.1055 -0.2236 -0.1166
95283W        W38221  12.841  26.105   3.226  0.2902 -0.0607  0.0669
95284W        W38222  14.530  28.947   0.750 -0.0467  0.0905 -0.0303
95285W        W38223  12.519  25.909   3.631 -0.0225 -0.1094 -0.0263
95286W        W38224  13.798  28.507   3.798  0.1549  0.0727 -0.0829
95287W        W38225  10.580  27.215   3.344 -0.0948  0.0252  0.1068
95288W        W38226  13.569  26.516   1.209 -0.2463  0.3354  0.2531
95289W        W38227  12.263  25.584  30.841  0.1294 -0.0571 -0.2050
95290W        W38228  13.036  27.581   2.510 -0.0046 -0.0786  0.0877
95291W        W38229  13.459  28.669   0.574  0.0339  0.1209  0.2159
95292W        W38230  13.712  26.908  31.737  0.1242 -0.0881 -0.2428
95293W        W38231  13.955  26.389   1.615  0.0510 -0.0642  0.0105
95294W        W38232  11.876  27.828   1.490  0.0979  0.0568  0.3209
95295W        W38233  13.571  28.288   0.888  0.0579  0.0020  0.4100
95296W        W38234  12.376  27.825   0.556  0.3152 -0.2945 -0.0923
95297W        W38235  10.830  27.319   0.637  0.0662  0.0149  0.2565
95298W        W38236  11.693  24.644   4.390 -0.5361  0.3625  0.0240
95299W        W38237  13.705  28.528   1.888 -0.0854  0.3160 -0.4201
95300W        W38238  13.227  26.848   0.499 -0.0667  0.0693 -0.0873
95301W        W38239  12.684  26.808   1.695  0.0013  0.3533  0.0215
95302W        W38240  11.864  28.418   2.386  0.0592 -0.2253  0.2699
95303W        W38241  11.630  27.017   2.847  0.3766 -0.2585 -0.1833
95304W        W38242  12.646  25.454   3.725 -0.2525 -0.4036 -0.1324
95305W        W38243  15.434  29.061   3.933 -0.2564  0.0879  0.2320
95306W        W38244  14.870  26.183  30.846  0.1702 -0.0452  0.1468
95307W        W38245  13.060  26.613   1.944 -0.0432 -0.0692 -0.2422
95308W        W38246  15.491  25.742  31.298  0.0418  0.0088 -0.1423
95309W        W38247  13.536  28.124  30.275  0.0380  0.0299 -0.0187
95310W        W38248  12.518  25.086   1.208 -0.1353  0.0418 -0.2573
95311W        W38249  14.298  26.082   2.992 -0.1546 -0.3933 -0.0009
95312W        W38250  11.878  24.341  30.425  0.1217 -0.0802 -0.2344
95313W        W38251  13.521  26.286   2.503 -0.2606 -0.2149  0.0861
95314W        W38252  11.474  29.009   0.433 -0.1873  0.0699 -0.1184
95315W        W38253  14.428  27.200   1.732 -0.0276 -0.1065 -0.2495
95316W        W38254  14.502  25.293   0.169 -0.2055  0.1315 -0.2208
95317W        W38255  12.059  25.232   1.247  0.0817 -0.3268 -0.2300
95318W        W38256  10.472  29.312   3.172  0.0427  0.4395  0.1676
95319W        W38257  12.387  25.167  30.539 -0.4576  0.0432 -0.2778
95320W        W38258  13.364  29.017  31.888 -0.0030 -0.1296  0.4124
95321W        W38259  13.402  27.575   1.629 -0.4395 -0.2961  0.2952
95322W        W38260  13.360  27.188   2.061 -0.1792  0.0318  0.2650
95323W        W38261  13.274  26.085   1.301  0.0930  0.2624  0.1542
95324W        W38262  14.456  26.457   0.856  0.2174 -0.0794 -0.0964
95325W        W38263  10.577  26.336   1.861 -0.5056 -0.0778  0.5176
95326W        W38264  13.435  25.513   1.170  0.2510 -0.0179 -0.1140
95327W        W38265  11.449  27.851   1.747 -0.0945 -0.0796  0.3445
95328W        W38266  11.691  27.391   1.996  0.2429  0.1821 -0.3747
95329W        W38267  11.840  28.716   1.218  0.3286 -0.0645  0.0912
95330W        W38268  13.945  25.104   3.022  0.0625  0.0891 -0.0830
95331W        W38269  12.361  28.500   2.133  0.1090  0.1523  0.0626
95332W        W38270  13.214  27.510   1.091 -0.1782  0.1306 -0.2641
95333W        W38271  12.533  27.496   2.946 -0.1550  0.1772 -0.0401
95334W        W38272  12.470  27.386   3.423 -0.1253 -0.0048  0.3183
95335W        W38273  11.589  27.728   1.105 -0.0897  0.0724  0.0615
95336W        W38274  14.613  29.697   3.120  0.3138 -0.1259  0.2548
95337W        W38275  13.297  28.021   1.192 -0.1376 -0.0045  0.0185
95338W        W38276  11.844  28.747   2.014  0.2361 -0.0857  0.1520
95339W        W38277  11.053  25.931   2.853  0.0626 -0.0564  0.2642
95340W        W38278  11.639  26.735   4.189  0.1580  0.1138  0.0040
95341W        W38279  14.123  26.765   1.999  0.1087  0.2215  0.3380
95342W        W38280  12.821  25.669  31.789 -0.2351  0.1209  0.1605
95343W        W38281  13.377  28.569   0.085 -0.0599 -0.1723  0.1423
95344W        W38282  11.096  29.028   3.933 -0.1972  0.0315 -0.2300
95345W        W38283  11.028  25.751   0.824  0.1188  0.0756 -0.4159
95346W        W38284  11.731  29.161   0.903  0.2252 -0.1348  0.1526
95347W        W38285  14.998  28.813   0.888  0.1324 -0.1536  0.1365
95348W        W38286  14.544  28.333   1.392 -0.1338  0.1569 -0.0599
95349W        W38287  12.736  30.010   1.620 -0.1808  0.2012  0.1290
95350W        W38288  13.904  27.358   1.603 -0.2120  0.0704 -0.0831
95351W        W38289  11.066  28.345   1.713 -0.0694  0.1406 -0.1671
95352W        W38290  10.288  28.696  30.695  0.0135 -0.0814 -0.2898
95353W        W38291  14.071  30.094  30.335  0.0628 -0.0760 -0.2026
95354W        W38292  10.931  29.041   0.059  0.0801  0.2830 -0.4160
95355W        W38293  13.778  27.056   3.639  0.2345  0.1156 -0.0383
95356W        W38294  13.933  26.725  30.612 -0.2200  0.2938 -0.2253
95357W        W38295  14.716  26.351  31.638  0.0762 -0.2626  0.0054
95358W        W38296  13.935  26.195   0.278 -0.1376 -0.1164  0.4857
95359W        W38297  13.772  29.064   4.089  0.0547  0.0801 -0.1252
95360W        W38298  12.150  27.158   2.070 -0.2736 -0.1398 -0.1812
95361W        W38299  12.024  24.180  31.630 -0.2208 -0.0081  0.3751
95362W        W38300  11.475  27.345   1.557 -0.0360  0.1466  0.2623
95363W        W38301  13.535  24.905   3.650 -0.2258 -0.1114  0.1235
95364W        W38302  11.595  29.528   2.818  0.0482 -0.1245 -0.0467
95365W        W38303  15.363  28.277  31.742  0.2841  0.0691  0.0180
95366W        W38304  11.374  26.494   0.417  0.0605  0.0926  0.1729
95367W        W38305  11.554  27.220   1.068  0.2506  0.2068 -0.0520
95368W        W38306  15.107  25.125   1.643 -0.1205  0.2352 -0.1171
95369W        W38307  13.997  27.378   0.005  0.2235  0.0354 -0.3840
95370W        W38308  14.003  25.447   2.596  0.1615 -0.1670 -0.3330
95371W        W38309  12.508  29.103   0.744 -0.1663  0.0048 -0.0667
95372W        W38310  11.599  27.568   2.553  0.0450 -0.1128  0.0772
95373W        W38311  11.793  29.070   1.582 -0.0560  0.2891 -0.1964
95374W        W38312  12.111  27.684   1.912 -0.2877 -0.1309 -0.0412
95375W        W38313  14.510  26.109   0.404 -0.1721 -0.1208 -0.2799
95376W        W38314  13.065  27.184   1.641 -0.1263  0.0656 -0.0498
95377W        W38315  13.548  25.676   2.302 -0.0040  0.0844 -0.2686
95378W        W38316  11.338  27.491   0.645 -0.2703 -0.1001  0.0431
95379W        W38317  15.133  25.910   1.206 -0.1798 -0.0618 -0.3320
95380W        W38318  11.344  26.671   2.172 -0.0290 -0.2336 -0.1904
95381W        W38319  12.906  27.064   2.211 -0.1973 -0.1009  0.3010
95382W        W38320  12.377  26.858  31.604  0.1607  0.2088 -0.4506
95383W        W38321  15.319  27.273   3.519 -0.1795  0.0864  0.2956
95384W        W38322  14.680  28.011   0.167  0.0621  0.0409  0.0624
95385W        W38323  13.493  29.650   2.749 -0.1959  0.0244 -0.1292
95386W        W38324  11.571  25.450   1.387  0.0856 -0.0885  0.0626
95387W        W38325  14.415  27.327   0.767 -0.3349  0.0204  0.0144
95388W        W38326  10.101  26.422   0.472 -0.4343  0.2494 -0.4144
95389W        W38327  10.660  27.600   2.318  0.0295  0.0665  0.1148
95390W        W38328  14.605  30.531   2.723 -0.1985 -0.3240  0.0144
95391W        W38329  12.097  26.520   1.597 -0.0142 -0.0770 -0.2325
95392W        W38330  14.035  28.917  31.689  0.2157 -0.0978 -0.1044
95393W        W38331  13.475  26.338   1.710 -0.0401 -0.1655 -0.3141
95394W        W38332  11.804  29.509   0.441  0.2833  0.0525 -0.0042
95395W        W38333  13.523  27.752   0.734 -0.0889  0.1659 -0.0904
95396W        W38334  14.639  27.907   2.203 -0.1333  0.0681 -0.0633
95397W        W38335  12.112  25.539   2.080  0.1890 -0.0445 -0.1291
95398W        W38336  14.181  28.631   1.401 -0.0594 -0.0805 -0.4192
95399W        W38337  15.741  28.013   0.976  0.1681  0.2478 -0.0020
95400W        W38338  12.522  27.144   1.212 -0.2439 -0.0947  0.5215
95401W        W38339  11.853  26.215  31.665 -0.1291  0.2367  0.2002
95402W        W38340  10.442  28.455   0.679  0.1549  0.2883  0.1728
95403W        W38341  13.807  25.312   1.031 -0.0413  0.1763  0.1764
95404W        W38342  13.596  27.442   3.321  0.0736  0.0110  0.2656
95405W        W38343  13.044  28.351  31.621 -0.1445 -0.0296  0.0008
95406W        W38344  14.023  23.949   4.611  0.1695 -0.2713 -0.3442
95407W        W38345  14.535  27.936   1.742  0.2542 -0.2277  0.1848
95408W        W38346  12.207  27.273   0.400  0.1269  0.2111  0.1679
95409W        W38347  12.561  27.607   2.208  0.1745  0.0602  0.2592
95410W        W38348  12.302  28.683   0.979 -0.2193 -0.0126  0.0750
95411W        W38349  13.115  30.179   0.632 -0.0385 -0.0151 -0.2551
95412W        W38350  14.648  27.953   1.039  0.1847  0.1799  0.0288
95413W        W38351  13.162  26.663   1.485 -0.0119  0.1048  0.0903
95414W        W38352  15.388  28.901   1.290  0.3131 -0.0875 -0.0041
95415W        W38353  13.534  24.771   0.915 -0.0064 -0.2471  0.0810
95416W        W38354  14.767  25.150   0.691  0.2871  0.0124 -0.0302
95417W        W38355  13.830  25.431   1.530 -0.2776  0.0899 -0.1396
95418W        W38356  12.809  28.090   2.146 -0.1468  0.4831 -0.1656
95419W        W38357  12.103  28.327   0.637  0.0441 -0.4959 -0.3667
95420W        W38358  11.608  28.234   0.596 -0.0553  0.0282 -0.1616
95421W        W38359  11.183  28.014   2.197  0.0411  0.0358  0.2656
95422W        W38360  14.264  25.790   4.238 -0.3417 -0.0812  0.0841
95423W        W38361  12.857  26.337   4.490 -0.1944 -0.0614 -0.3369
95424W        W38362  11.856  27.815   0.553 -0.3117 -0.0950 -0.0349
95425W        W38363  13.839  24.959  31.652  0.1504 -0.0678 -0.0098
95426W        W38364  13.209  27.366   0.539 -0.1100 -0.4524  0.0496
95427W        W38365  12.784  25.200   1.961  0.3262 -0.2613  0.0480
95428W        W38366  10.629  25.647  31.451  0.1783 -0.2636 -0.0412
95429W        W38367  12.571  27.678   0.971  0.1066  0.0734  0.1259
95430W        W38368  13.998  27.650   0.732 -0.0482  0.2686 -0.3446
95431W        W38369  11.839  26.377   1.115  0.0322 -0.1366  0.2033
95432W        W38370  13.842  29.321   2.857  0.0488 -0.1963 -0.0356
95433W        W38371   9.708  27.454   0.125 -0.1626 -0.2824 -0.0321
95434W        W38372  12.670  26.246   5.108 -0.1221  0.0186  0.1263
95435W        W38373  12.605  27.917   2.634  0.1477 -0.0674  0.0191
95436W        W38374  11.153  26.152   0.100 -0.0298 -0.0286  0.0385
95437W        W38375  12.985  28.151   1.658  0.1770 -0.0467 -0.2510
95438W        W38376  12.599  29.155   2.179  0.2232 -0.0954 -0.0686
95439W        W38377  12.410  29.227  31.268 -0.1401 -0.0354 -0.1686
95440W        W38378  11.327  28.467   2.171  0.0756  0.3470 -0.1005
95441W        W38379  12.316  28.368   2.628  0.0798  0.1937 -0.0649
95442W        W38380  13.017  25.692   3.568 -0.1088 -0.2511  0.3673
95443W        W38381  12.541  28.683   0.413  0.1830 -0.2747  0.1693
95444W        W38382  12.517  28.800   2.852  0.0537  0.0976  0.2329
95445W        W38383  14.369  27.582   0.298  0.0225 -0.1885 -0.1504
95446W        W38384  14.745  26.036   1.621  0.1535 -0.1415  0.0939
95447W        W38385  12.562  26.760  30.943  0.1995  0.0606  0.3534
95448W        W38386  11.332  25.104   3.040  0.3144 -0.0074  0.0755
95449W        W38387  11.915  28.175   3.397 -0.3179 -0.1794  0.0277
95450W        W38388  14.146  28.095   2.254  0.0901 -0.0557  0.3119
95451W        W38389  11.810  25.551   0.138 -0.0140  0.2844  0.1141
95452W        W38390  15.403  24.647  30.684 -0.0619 -0.0697  0.2047
95453W        W38391  12.681  27.177   0.568  0.2641  0.0418  0.1261
95454W        W38392  10.779  27.133   2.134  0.1067  0.0105  0.0787
95455W        W38393  13.214  26.228  31.054  0.0836  0.1546  0.0067
95456W        W38394  13.007  24.958   3.782 -0.2876 -0.2373 -0.1180
95457W        W38395  11.630  28.244   1.123 -0.1610  0.2683 -0.2024
95458W        W38396  13.103  26.872   2.621 -0.0768 -0.1039 -0.2396
95459W        W38397  12.944  27.478  31.664  0.0579 -0.0282 -0.1920
95460W        W38398  14.781  26.889  31.761  0.2185 -0.2376  0.0318
95461W        W38399  13.005  29.628   1.454  0.1531  0.2324  0.0648
95462W        W38400  15.552  28.340   3.276  0.0802  0.0306  0.0166
95463W        W38401  12.786  28.592   1.832 -0.1492  0.1096  0.1104
95464W        W38402  14.183  28.374   1.835  0.1675  0.0710 -0.0180
95465W        W38403  11.855  25.993   2.519  0.1397 -0.2423  0.0763
95466W        W38404  11.673  25.544  30.906  0.0695  0.1340 -0.1296
95467W        W38405  13.194  27.021   0.941 -0.4398  0.1359  0.2405
95468W        W38406  13.767  26.218   3.133  0.2964  0.0330 -0.2104
95469W        W38407  11.813  27.111   0.594  0.0524  0.3961 -0.1343
95470W        W38408  13.059  26.134  31.698 -0.1814  0.1077  0.1550
95471W        W38409  11.831  29.370   3.331 -0.0117 -0.2383 -0.1474
95472W        W38410  15.423  28.506   1.677 -0.1977 -0.0316 -0.1029
95473W        W38411  12.339  28.612   5.854 -0.1590  0.0513 -0.1117
95474W        W38412  12.412  25.769   5.029 -0.2966 -0.0019  0.2562
95475W        W38413  13.888  27.000   2.622 -0.1812  0.0239  0.0384
95476W        W38414  14.230  27.605   4.110  0.3581  0.2995 -0.1476
95477W        W38415  11.037  27.005   6.351  0.0074  0.1833 -0.1314
95478W        W38416  12.854  28.178   3.377  0.1258 -0.0422  0.0213
95479W        W38417  12.700  25.419   6.884  0.0663  0.0684 -0.3767
95480W        W38418  13.182  27.863   6.849 -0.0299  0.1366 -0.2052
95481W        W38419  15.692  28.244   5.049 -0.1155 -0.0314  0.2273
95482W        W38420  12.251  27.996   2.296  0.0755 -0.0270  0.0119
95483W        W38421  12.034  26.406   5.794 -0.0578  0.0432  0.0548
95484W        W38422  13.306  28.284   6.011 -0.0608 -0.2610 -0.0222
95485W        W38423  11.970  26.139   4.880  0.0063  0.0750  0.0830
95486W        W38424  12.779  24.681   6.712 -0.0717  0.0383 -0.3077
95487W        W38425  13.289  27.480   5.304 -0.1114  0.2005 -0.0196
95488W        W38426  11.363  28.567   6.020  0.1138 -0.0530  0.3437
95489W        W38427  11.920  26.703   7.909  0.0993  0.0912 -0.3250
95490W        W38428  11.968  24.987   5.318  0.1431 -0.2474  0.3435
95491W        W38429  13.578  30.099   5.136  0.0090 -0.0237  0.5045
95492W        W38430  11.847  26.655   4.998  0.0252 -0.3368  0.1012
95493W        W38431  12.805  26.964   7.314 -0.0372  0.1569 -0.2340
95494W        W38432  13.550  28.940   3.612  0.2923 -0.0365 -0.2221
95495W        W38433  13.017  26.213   3.741 -0.0613 -0.0315  0.2172
95496W        W38434  10.487  26.947   4.974 -0.0001 -0.2352 -0.1970
95497W        W38435  12.623  28.426   7.327 -0.0843 -0.2071 -0.0974
95498W        W38436  13.963  26.647   6.015  0.0592  0.1019 -0.3619
95499W        W38437  13.301  26.266   6.588 -0.2172  0.0126  0.1174
95500W        W38438  13.787  27.954   6.135 -0.1693  0.1800  0.0515
95501W        W38439  13.589  28.617   4.964 -0.1341  0.0246  0.0609
95502W        W38440  12.540  26.981   8.606  0.1090  0.1812  0.0885
95503W        W38441  11.180  29.273   5.432 -0.1448 -0.0876 -0.2967
95504W        W38442  11.368  28.246   3.409 -0.0163 -0.1151 -0.0218
95505W        W38443  13.197  27.744   3.482  0.2607  0.1569  0.0055
95506W        W38444  15.098  27.948   4.469  0.1019  0.1420 -0.2022
95507W        W38445  14.552  28.414   7.058 -0.2809 -0.0530  0.1473
95508W        W38446  12.399  30.412   7.274  0.1665  0.1677 -0.1070
95509W        W38447  12.513  27.705   4.725  0.2279 -0.0671  0.2413
95510W        W38448  14.191  29.805   7.389  0.2145  0.0102 -0.2908
95511W        W38449  12.168  29.533   6.548 -0.0395  0.0857 -0.1873
95512W        W38450  13.699  27.066   7.000  0.1484 -0.1096 -0.3929
95513W        W38451  12.395  27.133   4.502 -0.0816 -0.0683 -0.0986
95514W        W38452  12.038  28.484   4.497 -0.0626  0.0980 -0.0347
95515W        W38453  13.054  27.903   5.967  0.0536 -0.0215  0.0335
95516W        W38454  12.386  28.270   8.159 -0.0629 -0.2782 -0.0430
95517W        W38455  11.550  29.027   5.165 -0.2686  0.3111  0.7040
95518W        W38456  13.636  26.622   7.505  0.4778 -0.5170 -0.5016
95519W        W38457  12.258  28.502   4.047  0.2724  0.0225 -0.3242
95520W        W38458  14.393  26.283   2.304  0.0684  0.2290  0.0769
95521W        W38459  13.060  26.693   4.106 -0.2484  0.0604 -0.1081
95522W        W38460  12.999  27.261   3.449  0.1939 -0.1334 -0.1952
95523W        W38461  14.022  25.384   4.871  0.1763 -0.0774 -0.0273
95524W        W38462  12.167  27.815   3.624 -0.2767  0.1860  0.1147
95525W        W38463  12.832  27.423   7.109  0.0534  0.1670 -0.0885
95526W        W38464  14.237  27.712   8.180 -0.1168  0.0703  0.2551
95527W        W38465  13.134  26.384   5.932 -0.1804 -0.1606 -0.1532
95528W        W38466  14.411  26.251   5.456 -0.1114  0.1010  0.0131
95529W        W38467  11.316  28.014   6.876  0.3139  0.4939  0.0315
95530W        W38468  10.201  26.816   5.905 -0.2125  0.0569  0.1381
95531W        W38469  13.823  28.862   3.164 -0.1033  0.0453  0.1199
95532W        W38470  13.431  27.719   2.896 -0.0122 -0.1671 -0.1710
95533W        W38471  14.050  28.370   2.691 -0.0330  0.1017  0.3706
95534W        W38472  10.925  26.590   5.032 -0.0264 -0.3007  0.0319
95535W        W38473  11.688  26.472   7.523 -0.1721  0.1609  0.2341
95536W        W38474  12.466  27.964   5.705 -0.0867  0.0857  0.2415
95537W        W38475  12.837  25.531   4.399  0.0841  0.1398  0.2364
95538W        W38476  13.998  27.825   8.654  0.1722  0.0889 -0.0619
95539W        W38477  10.681  28.000   6.760  0.0361 -0.0501 -0.2977
95540W        W38478  14.440  25.875   5.746  0.0044 -0.2795 -0.1835
95541W        W38479  13.531  27.772   5.744 -0.0199 -0.1632  0.1646
95542W        W38480  13.904  28.243   4.518 -0.3390 -0.1070 -0.2171
95543W        W38481  12.860  28.715   3.189 -0.1278  0.1327 -0.0356
95544W        W38482  14.265  24.431   6.495  0.1425  0.1175  0.1740
95545W        W38483  13.729  25.217   5.933  0.0560 -0.0202 -0.0596
95546W        W38484  12.564  26.686   4.203 -0.3516  0.0152  0.0338
95547W        W38485  12.029  25.996   4.418  0.0957 -0.1260  0.1674
95548W        W38486  14.852  27.975   6.336 -0.0890 -0.2056 -0.0588
95549W        W38487  13.547  27.329   4.307  0.0270 -0.1377  0.2022
95550W        W38488  11.608  29.659   5.316 -0.0151  0.4407  0.2584
95551W        W38489  12.719  26.232   7.231  0.0014  0.0010  0.1803
95552W        W38490  13.958  28.096   6.566  0.0386  0.1740 -0.1035
95553W        W38491  11.986  28.677   3.698  0.0196  0.0534  0.1780
95554W        W38492   9.665  27.484   6.799  0.3278  0.4840  0.1358
95555W        W38493  12.330  27.409   3.924  0.0526 -0.1147 -0.2069
95556W        W38494  11.383  26.791   6.628  0.1453 -0.1237  0.1933
95557W        W38495  11.427  28.862   7.077 -0.1810 -0.1594  0.0934
95558W        W38496  15.272  25.590   3.518 -0.1032 -0.2256  0.1075
95559W        W38497  11.589  26.278   6.776  0.1768 -0.2282 -0.2451
95560W        W38498  12.957  26.634   5.226 -0.1636 -0.2453 -0.2534
95561W        W38499  12.576  28.629   4.926  0.2656  0.0126  0.0675
95562W        W38500  14.708  28.028   4.773 -0.0225 -0.3142  0.0220
95563W        W38501  14.451  26.538   2.720 -0.1784  0.0656 -0.1314
95564W        W38502  11.169  28.482   3.882  0.4781 -0.1499  0.2354
95565W        W38503  12.320  26.049   6.067 -0.3352  0.1246  0.1471
95566W        W38504  11.039  26.882   4.536  0.2317 -0.0067 -0.1065
95567W        W38505  11.877  25.226   6.165 -0.0814  0.0605  0.2755
95568W        W38506  11.966  25.756   5.241  0.1682  0.2106 -0.4088
95569W        W38507  13.236  26.459   7.272 -0.2121  0.1547  0.0247
95570W        W38508  11.926  25.615   4.744  0.1575  0.2889 -0.0830
95571W        W38509  13.572  25.912   5.728  0.2386 -0.1981 -0.2517
95572W        W38510  12.200  27.053   5.347  0.0486 -0.4750  0.1390
95573W        W38511  10.660  27.941   5.076  0.2205 -0.1902  0.0491
95574W        W38512  12.793  26.657   7.732 -0.3641  0.1650  0.0907
95575W        W38513  13.352  28.375   3.361  0.1027  0.2607  0.0263
95576W        W38514  15.337  28.750   6.941 -0.2969  0.1971  0.1522
95577W        W38515  14.101  28.888   5.724  0.2311 -0.2355  0.1581
95578W        W38516  10.678  26.318   5.359 -0.2161  0.1922 -0.0235
95579W        W38517  12.291  25.960   5.589  0.0358 -0.1365 -0.0461
95580W        W38518  13.062  28.510   5.023  0.1209 -0.2159  0.3144
95581W        W38519  13.786  28.145   5.033  0.1756 -0.0545 -0.0881
95582W        W38520  11.526  26.168   2.851  0.2354  0.2061 -0.1227
95583W        W38521  14.545  28.045   3.885  0.0475 -0.0208  0.4288
95584W        W38522  12.918  27.620   5.002  0.2060 -0.0247 -0.2744
95585W        W38523  11.908  28.082   5.633 -0.2503  0.1812 -0.2473
95586W        W38524  13.659  24.590   7.128 -0.0156  0.0403  0.0934
95587W        W38525  14.839  28.025   6.809  0.0857  0.3132 -0.2677
95588W        W38526  13.266  26.585   4.571 -0.0019 -0.0665  0.3357
95589W        W38527  12.852  24.444   3.669 -0.1013  0.0789 -0.2588
95590W        W38528  12.783  28.996   4.490 -0.2413  0.1400 -0.1991
95591W        W38529  12.560  28.050   4.090 -0.1362 -0.2403 -0.0506
95592W        W38530  11.442  27.309   6.488 -0.1276 -0.0313  0.1176
95593W        W38531  13.471  27.451   4.809  0.2630 -0.0832 -0.0945
95594W        W38532  14.035  25.568   5.712  0.4452 -0.2896  0.0345
95595W        W38533  11.755  27.753   6.024  0.0119  0.2437 -0.1225
95596W        W38534  13.661  25.063   6.415  0.1656  0.3846 -0.1026
95597W        W38535  12.544  26.152   4.085 -0.0630 -0.3383 -0.3342
95598W        W38536  10.884  30.207   7.730 -0.0958  0.0040  0.0879
95599W        W38537  13.905  25.656   3.871 -0.1168 -0.0279 -0.0310
95600W        W38538  13.671  26.293   4.700 -0.2079  0.1895 -0.1590
95601W        W38539  13.351  28.412   7.827 -0.0072  0.1114  0.4944
95602W        W38540  14.026  26.669   4.890  0.2536 -0.2638  0.1070
95603W        W38541  12.906  26.788   3.551 -0.2196  0.1016  0.2208
95604W        W38542  13.423  26.604   3.750  0.0850  0.1651  0.0477
95605W        W38543  12.202  27.277   8.303  0.0984 -0.2145 -0.0486
95606W        W38544  13.193  27.332   5.787 -0.1677 -0.2887  0.1338
95607W        W38545  13.738  27.449   6.185 -0.1567  0.1312  0.0672
95608W        W38546  13.441  25.793   3.928 -0.1841 -0.1617 -0.1074
95609W        W38547  13.800  27.520   3.915  0.2133  0.0195 -0.3029
95610W        W38548  11.704  28.151   6.423  0.0704  0.0196 -0.6190
95611W        W38549  13.736  28.379   5.767  0.1140 -0.0050 -0.1756
95612W        W38550  13.819  27.706   5.285  0.0722 -0.4041 -0.4156
95613W        W38551  13.564  25.450   5.504 -0.4586 -0.1316  0.1040
95614W        W38552  12.074  26.855   2.561  0.1827 -0.0352 -0.0735
95615W        W38553  14.008  26.538   4.406  0.0106  0.2649  0.0519
95616W        W38554  12.021  28.946   4.130  0.0205  0.2037 -0.0318
95617W        W38555  13.942  26.185   5.624 -0.3098  0.0626  0.0566
95618W        W38556  13.260  26.997   5.441  0.0598 -0.1554 -0.2369
95619W        W38557  12.929  25.845   6.622 -0.2408 -0.5873 -0.0575
95620W        W38558  14.066  27.194   8.196  0.1766 -0.0073 -0.1762
95621W        W38559  12.480  26.998   3.729 -0.3064  0.1253 -0.0311
95622W        W38560  14.201  27.677   6.178  0.1007  0.2903 -0.2502
95623W        W38561  12.138  26.460   4.179  0.1411 -0.1591 -0.2045
95624W        W38562  13.304  25.942   6.215  0.2172  0.0433  0.1455
95625W        W38563  11.735  27.437   7.245 -0.1068  0.3515  0.0515
95626W        W38564  10.525  28.239   6.280 -0.3635 -0.0160 -0.0041
95627W        W38565  14.483  29.210   5.621  0.0050  0.0345 -0.2566
95628W        W38566  13.903  27.099   3.101 -0.1191  0.2672  0.2463
95629W        W38567  13.634  25.752   8.540  0.1824 -0.0547  0.0114
95630W        W38568  13.413  24.986   4.600 -0.2449  0.0785 -0.3888
95631W        W38569  12.733  28.351   2.841 -0.2467 -0.1661  0.0800
95632W        W38570  11.943  25.910   3.039  0.2701  0.3618  0.0278
95633W        W38571  12.793  25.581   6.174  0.2153 -0.0696  0.1762
95634W        W38572  12.498  28.833   5.382 -0.1791  0.3143 -0.1402
95635W        W38573  12.438  27.962   3.068 -0.1617 -0.0584 -0.3465
95636W        W38574  14.325  27.213   6.137 -0.2818 -0.0089  0.2269
95637W        W38575  12.659  27.241   4.930 -0.1230 -0.1879  0.2175
95638W        W38576  13.982  25.212   5.340 -0.2155 -0.0212 -0.3619
95639W        W38577  12.635  29.053   5.756 -0.0012  0.0056  0.1204
95640W        W38578  12.178  26.320   5.275  0.1904  0.1854 -0.1265
95641W        W38579  11.861  28.116   4.292 -0.2806  0.2809 -0.0124
95642W        W38580  13.605  26.188   5.212 -0.1029 -0.2251 -0.1191
95643W        W38581  14.006  26.587   2.887  0.2826  0.0723 -0.0310
95644W        W38582  11.955  25.776   6.548 -0.1511 -0.1157 -0.1619
95645W        W38583  12.043  25.380   5.590  0.1673  0.1417 -0.0310
95646W        W38584  11.388  27.807   4.024 -0.2227 -0.1691 -0.3223
95647W        W38585  13.628  27.043   6.517 -0.0634 -0.2624 -0.0900
95648W        W38586  15.099  26.848   3.707  0.0456 -0.1779 -0.2351
95649W        W38587  13.263  28.256   5.549 -0.0455  0.0834 -0.1367
95650W        W38588  12.906  26.874   8.175 -0.0483 -0.0921  0.2118
95651W        W38589  11.398  24.960   5.348  0.2515  0.0041  0.2642
95652W        W38590  13.036  24.928   7.163  0.4014 -0.2685 -0.5376
95653W        W38591  11.734  26.425   4.531 -0.0947 -0.0005  0.0156
95654W        W38592  13.731  29.628   4.915  0.1544  0.3184 -0.0305
95655W        W38593  13.989  28.509   5.337 -0.1623  0.0622 -0.3357
95656W        W38594  13.115  25.551   3.081 -0.2385  0.4163 -0.4352
95657W        W38595  11.675  28.783   4.711 -0.1633 -0.1527  0.0803
95658W        W38596  11.614  27.253   5.883 -0.2327  0.2251  0.3601
95659W        W38597  13.566  26.544   5.649 -0.2425  0.1808  0.1558
95660W        W38598  12.688  26.235   5.664  0.3010  0.2125 -0.1673
95661W        W38599  11.693  26.200   5.484  0.2054 -0.0578 -0.1546
95662W        W38600  12.760  27.527   5.858 -0.0028  0.0160 -0.1655
95663W        W38601  14.154  28.173   7.452  0.3345 -0.0089 -0.1294
95664W        W38602  13.223  27.117   6.785  0.0024 -0.0616 -0.0441
95665W        W38603  11.483  29.171   7.525 -0.1464 -0.0868 -0.0361
95666W        W38604  13.873  24.659   6.231 -0.3752 -0.2628  0.0814
95667W        W38605  14.495  29.059   4.079  0.0020  0.3595  0.0508
95668W        W38606  12.519  26.610   6.079 -0.1593 -0.1079 -0.0732
95669W        W38607  12.252  27.697   4.342  0.2441 -0.0488 -0.2649
95670W        W38608  10.124  27.395   6.592  0.1971  0.2145 -0.1999
95671W        W38609  12.736  27.764   3.716  0.0228 -0.0133 -0.0086
95672W        W38610  12.809  26.088   6.185 -0.4131 -0.0010 -0.1252
95673W        W38611  11.035  27.891   7.278 -0.0359  0.1368 -0.1061
95674W        W38612  12.834  28.494   5.488  0.2153  0.1258 -0.2937
95675W        W38613  12.278  30.175   5.273  0.0081 -0.1538  0.0490
95676W        W38614  13.670  26.813   4.139 -0.4729  0.0809  0.1154
95677W        W38615  11.967  27.360   3.583 -0.2154  0.2078 -0.2367
95678W        W38616  12.968  26.613   6.895 -0.0030  0.3136 -0.4614
95679W        W38617  15.078  25.848   6.895 -0.0963  0.0328 -0.1519
95680W        W38618  14.241  26.085   3.842  0.5072 -0.2476  0.0306
95681W        W38619  13.144  24.362   9.104 -0.1855 -0.2989  0.3719
95682W        W38620  12.210  25.809   7.443  0.1787 -0.1058 -0.0068
95683W        W38621  14.253  28.980   4.487 -0.0691 -0.0446  0.1989
95684W        W38622  11.277  26.041   6.154 -0.1134  0.0389  0.1165
95685W        W38623  14.323  29.317   6.586 -0.0583  0.1687 -0.3903
95686W        W38624  11.100  27.888   7.756 -0.0226  0.0248  0.0620
95687W        W38625  14.779  25.472   4.932  0.2686  0.2175  0.0716
95688W        W38626  13.238  24.037   3.707  0.0536 -0.1123  0.0135
95689W        W38627  12.413  27.167   5.824  0.1605  0.0522  0.0563
95690W        W38628  14.021  27.528   5.695 -0.1722 -0.1502 -0.0362
95691W        W38629  12.925  27.753   3.099  0.0215 -0.1981  0.0973
95692W        W38630  15.227  27.317   5.133 -0.2657 -0.0034  0.1145
95693W        W38631  11.654  27.139   5.320  0.2647  0.1862  0.1967
95694W        W38632  12.653  27.892   6.290  0.3551  0.2768 -0.3065
95695W        W38633  12.017  26.978   4.019  0.0322  0.0122  0.1604
95696W        W38634  11.636  27.762   3.616 -0.1172 -0.0388 -0.0106
95697W        W38635  12.452  25.783   6.517 -0.0089 -0.0140  0.0811
95698W        W38636  12.858  27.548   6.617  0.1863  0.3110  0.0962
95699W        W38637  13.015  24.956   5.227  0.3310 -0.0797 -0.2397
95700W        W38638  14.404  24.877   6.965  0.0817 -0.1484 -0.1610
95701W        W38639  13.421  26.879   6.048 -0.0708  0.0321 -0.0572
95702W        W38640  12.171  25.523   8.158  0.1540 -0.0606 -0.2629
95703W        W38641  11.919  26.418   7.077 -0.0470 -0.2008  0.2256
95704W        W38642  15.664  29.333   7.963  0.3666  0.3058 -0.0011
95705W        W38643  13.481  26.667   2.877 -0.0239 -0.0045  0.3614
95706W        W38644  15.815  26.609   4.964 -0.1375 -0.1018  0.0046
95707W        W38645  14.823  26.775   3.081  0.0827 -0.0295 -0.2057
95708W        W38646  11.852  27.354   4.494 -0.0073  0.0946 -0.1670
95709W        W38647  11.309  26.737   5.419 -0.1722 -0.1119 -0.0694
95710W        W38648  12.669  27.408   8.191 -0.0909 -0.2794 -0.2251
95711W        W38649  12.216  25.169   3.874  0.1701  0.3032  0.1038
95712W        W38650  12.394  26.638   7.021  0.2623 -0.0388  0.0089
95713W        W38651  12.471  28.796   3.505 -0.0311 -0.0731 -0.0613
95714W        W38652  14.597  27.695   5.857  0.3402 -0.1452  0.0710
95715W        W38653  14.521  26.585   4.006 -0.0800  0.1886 -0.0380
95716W        W38654  11.131  25.617   4.768 -0.3149  0.1390  0.1069
95717W        W38655  11.832  27.934   7.109  0.0345 -0.0292 -0.1040
95718W        W38656  12.175  26.151   3.443  0.2364 -0.2202  0.2107
95719W        W38657  13.351  26.361   3.314 -0.0884  0.0994 -0.4951
95720W        W38658  13.216  27.460   6.286 -0.1422 -0.0162 -0.2040
95721W        W38659  13.178  27.159   8.572 -0.3462 -0.4179  0.0323
95722W        W38660  14.596  24.666   3.379  0.1614 -0.2311 -0.3769
95723W        W38661  14.842  25.618   6.458 -0.3798  0.0647  0.1972
95724W        W38662  12.462  26.682   5.490  0.0108  0.1228  0.2987
95725W        W38663  13.583  25.672   4.853 -0.0514 -0.3600  0.0054
95726W        W38664  12.337  28.363   5.393  0.1434  0.1233  0.2374
95727W        W38665   9.704  28.472   5.968 -0.0241 -0.2490  0.1765
95728W        W38666  13.300  28.591   3.834  0.0609  0.0206 -0.0529
95729W        W38667  13.472  26.655   6.885  0.3652  0.0082 -0.1855
95730W        W38668  12.933  27.872   5.480 -0.0781 -0.2528 -0.2230
95731W        W38669  13.208  27.802   4.522  0.0505  0.1299 -0.0560
95732W        W38670  13.674  26.224   6.987 -0.1304 -0.0981 -0.0313
95733W        W38671  14.908  28.419   5.107  0.1682 -0.1776  0.1116
95734W        W38672  12.300  27.636   7.014 -0.3044 -0.1704 -0.0732
95735W        W38673  13.829  29.976   6.241  0.0950  0.2955 -0.0680
95736W        W38674  13.700  27.959   3.658 -0.2853  0.1009  0.2459
95737W        W38675  11.280  30.517   5.307 -0.3190 -0.1605  0.0001
95738W        W38676  11.014  27.426   6.082  0.2958  0.3514  0.2168
95739W        W38677  13.378  27.997   7.323 -0.1348 -0.1461 -0.3748
95740W        W38678  12.818  27.098   6.334 -0.2166 -0.1939  0.1068
95741W        W38679  13.046  25.836   5.819  0.2141  0.0328  0.4120
95742W        W38680  12.396  28.246   3.595  0.1988  0.0964 -0.0034
95743W        W38681  11.118  29.280   7.940  0.0600  0.0513  0.1654
95744W        W38682  12.194  26.314   6.462  0.2258  0.1019 -0.3287
95745W        W38683  13.456  29.406   3.822  0.2534  0.3524  0.0993
95746W        W38684  12.932  27.218   2.951  0.2549  0.3158 -0.3559
95747W        W38685  13.281  27.971   5.103  0.0301 -0.1014  0.0960
95748W        W38686  13.526  29.578   5.340 -0.1387 -0.1397 -0.1647
95749W        W38687  12.342  26.393   4.594 -0.1345  0.1792 -0.1240
95750W        W38688  12.084  29.052   6.172 -0.3321  0.2952  0.4088
95751W        W38689  10.917  27.717   4.299  0.2236  0.3072 -0.2011
95752W        W38690  14.253  30.303   4.206 -0.1473 -0.1218  0.2515
95753W        W38691  12.694  28.070   5.094 -0.2416 -0.0041  0.1740
95754W        W38692  13.819  28.129   8.270  0.2531  0.1415  0.0813
95755W        W38693  13.451  25.200   4.127  0.1503 -0.2365 -0.0710
95756W        W38694  13.716  27.867   4.262  0.2602  0.2916 -0.2476
95757W        W38695  13.525  26.653   5.140 -0.0393 -0.1396  0.0548
95758W        W38696  12.627  27.984   6.795 -0.1160 -0.0783  0.2758
95759W        W38697  12.331  27.200   7.438  0.1564 -0.3155  0.4327
95760W        W38698  14.449  25.146   3.233 -0.2220  0.0597  0.3199
95761W        W38699  11.676  27.032   6.938 -0.2785  0.0129 -0.0085
95762W        W38700  14.808  25.389   5.666  0.0585 -0.2195 -0.1883
95763W        W38701   9.941  30.289   6.590 -0.0167  0.2082 -0.0908
95764W        W38702  13.563  28.293   2.894 -0.1278 -0.0161 -0.0907
95765W        W38703  12.050  26.781   4.545  0.2144 -0.3963 -0.1591
95766W        W38704  11.593  26.672   6.163 -0.0829 -0.0380 -0.2238
95767W        W38705  15.404  25.064   7.056  0.0715 -0.2728 -0.1836
95768W        W38706  12.250  28.474   3.144 -0.2152  0.1549 -0.1985
95769W        W38707  12.683  26.277   6.650 -0.0987  0.2260  0.2993
95770W        W38708  11.305  27.384   3.746  0.1053 -0.1846 -0.0611
95771W        W38709  12.935  28.963   5.128  0.0216 -0.0680 -0.2549
95772W        W38710  13.289  27.917   6.373  0.0873 -0.0897  0.1905
95773W        W38711  11.372  26.460   4.913 -0.4857  0.1134  0.0357
95774W        W38712  15.400  25.393   4.870  0.1726  0.2223  0.2881
95775W        W38713  12.468  26.998   7.998  0.2742 -0.1864  0.3044
95776W        W38714  13.116  27.047   4.951  0.3289  0.0296  0.1073
95777W        W38715  11.056  27.049   6.856  0.3659 -0.0595 -0.3010
95778W        W38716  12.925  26.579   6.332 -0.1331 -0.0012 -0.3834
95779W        W38717  14.130  27.100   7.179  0.0783 -0.0065  0.0327
95780W        W38718  10.873  27.597   6.574  0.0089  0.2365 -0.1092
95781W        W38719  12.878  27.207   3.978 -0.0472  0.0230 -0.0627
95782W        W38720  14.161  26.879   6.485 -0.0423 -0.0601  0.2972
95783W        W38721  12.117  26.744   3.394  0.1601  0.1239  0.1656
95784W        W38722  14.798  29.366   6.748  0.0021  0.1031 -0.3273
95785W        W38723  11.381  26.424   5.784  0.0695 -0.1492 -0.2178
95786W        W38724  11.966  27.977   2.756  0.1239 -0.0995  0.2412
95787W        W38725  12.095  28.446   7.470 -0.2559  0.0831  0.2805
95788W        W38726  12.251  27.595   6.033 -0.0124 -0.0067  0.2402
95789W        W38727  14.278  28.054   6.949  0.3502 -0.0209 -0.0625
95790W        W38728  12.555  25.417   5.609 -0.0111  0.5692 -0.1067
95791W        W38729  13.606  28.389   2.365  0.1601  0.0416 -0.0023
95792W        W38730  14.774  27.156   5.875  0.2121  0.1097 -0.3867
95793W        W38731  12.813  28.095   4.622 -0.1041 -0.2356 -0.0641
95794W        W38732  13.637  26.270   6.070  0.0453 -0.1146  0.2919
95795W        W38733  14.294  27.767   4.952 -0.2588 -0.0318 -0.2860
95796W        W38734  10.960  25.656   6.365  0.0295 -0.1713  0.2208
95797W        W38735  14.551  29.020   6.267  0.0933  0.3304  0.0128
95798W        W38736  14.451  27.515   5.322 -0.1939  0.1199  0.1166
95799W        W38737  13.133  26.209   4.992  0.2436  0.3656 -0.3954
95800W        W38738  12.624  27.102   6.792  0.2674  0.1946 -0.1020
95801W        W38739  10.663  27.875   3.331 -0.1404 -0.1452 -0.2468
95802W        W38740  13.552  25.093   5.060 -0.0440 -0.0467  0.3746
95803W        W38741  13.442  25.822   6.723 -0.2662 -0.0681 -0.0084
95804W        W38742  13.205  28.622   2.725  0.2899 -0.0729 -0.2214
95805W        W38743  14.710  23.833   6.982  0.0096  0.1844  0.1199
95806W        W38744  12.292  27.517   6.539  0.1556 -0.1246 -0.1084
95807W        W38745  11.959  30.292   7.558  0.1252 -0.0017 -0.1538
95808W        W38746  12.382  26.496   3.758  0.2526  0.3154  0.1619
95809W        W38747  13.854  27.169   7.568 -0.2479  0.2675 -0.1052
95810W        W38748  13.354  28.289   4.671  0.1860 -0.0201  0.1803
95811W        W38749  12.083  28.937   5.584 -0.2441 -0.0496 -0.2668
95812W        W38750  14.206  28.948   5.242  0.0959  0.0056  0.0459
95813W        W38751  12.309  26.943   6.424 -0.2524  0.1574  0.1243
95814W        W38752  14.339  28.304   4.972  0.0385 -0.3444  0.0004
95815W        W38753  12.849  26.840   4.567  0.1681 -0.0146  0.0179
95816W        W38754  14.925  26.382   5.562 -0.0252  0.1769  0.3655
95817W        W38755  13.669  24.746   4.177 -0.4155  0.0024 -0.4530
95818W        W38756  13.112  28.340   7.067  0.0232  0.1789 -0.1524
95819W        W38757  11.147  26.033   5.423 -0.2722 -0.2547  0.0999
95820W        W38758  10.658  29.136   2.714  0.1210 -0.1849  0.0358
95821W        W38759  11.809  28.463   5.301  0.0247 -0.1668  0.2481
95822W        W38760  13.569  24.710   8.860  0.3742  0.0381  0.3738
95823W        W38761  10.682  27.004   5.964 -0.1660  0.2024 -0.3233
95824W        W38762  11.905  29.027   6.668 -0.0912  0.0737  0.4854
95825W        W38763  11.935  25.343   4.309  0.2032  0.0103 -0.0208
95826W        W38764  12.825  27.655   4.218  0.2731  0.0778  0.1716
95827W        W38765  12.665  24.466   4.537 -0.0549 -0.0468 -0.4342
95828W        W38766  10.802  25.567   4.014 -0.1609  0.0106 -0.3515
95829W        W38767  14.701  26.625   3.528 -0.0014  0.0124 -0.0246
95830W        W38768  13.908  27.685   3.057  0.0581 -0.1025 -0.0176
95831W        W38769  13.826  26.007   4.197  0.2476 -0.2054  0.1531
95832W        W38770  15.056  28.347   7.115 -0.0410 -0.1036  0.1217
95833W        W38771  12.464  26.707   4.962  0.2779  0.0364 -0.0240
95834W        W38772  12.143  27.135   6.858  0.0504 -0.2018 -0.0958
95835W        W38773  12.608  25.903   8.332  0.2627 -0.3694 -0.1733
95836W        W38774  10.972  24.732   2.158  0.1960  0.0210 -0.3366
95837W        W38775  12.783  27.108   5.398 -0.0783 -0.0904  0.1634
95838W        W38776  13.846  29.080   4.885 -0.0571 -0.1263  0.1839
95839W        W38777  14.672  28.888   3.613  0.0354 -0.1596  0.0620
95840W        W38778  11.877  27.262   6.346  0.2774 -0.1528 -0.1436
95841W        W38779  11.780  29.552   6.087 -0.1284 -0.0160 -0.1725
95842W        W38780  11.694  25.377   6.725 -0.1162  0.1926  0.3560
95843W        W38781  13.960  26.472   3.886  0.1802 -0.2302 -0.0549
95844W        W38782  11.672  29.374   7.003 -0.3686 -0.2216  0.0321
95845W        W38783  13.394  27.162   2.936 -0.2996 -0.1827  0.1508
95846W        W38784  15.005  25.361   6.881 -0.1145 -0.0683 -0.0174
95847W        W38785  13.097  27.308   4.525  0.2339  0.0763 -0.0488
95848W        W38786  13.141  25.986   7.074 -0.1033  0.5269  0.2238
95849W        W38787  11.420  28.188   7.364 -0.3237  0.0080 -0.1245
95850W        W38788  14.967  27.580   5.505 -0.1498  0.0174 -0.2037
95851W        W38789  12.750  25.812   5.378 -0.4624 -0.0280 -0.2643
95852W        W38790  13.814  25.479   4.417 -0.0002 -0.0252 -0.1545
95853W        W38791  12.538  26.500   3.161  0.0527  0.0079 -0.0676
95854W        W38792  10.873  27.918   6.154 -0.2395 -0.0135 -0.0824
95855W        W38793  14.081  27.110   4.115  0.2179  0.2470  0.0176
95856W        W38794  14.326  28.177   8.293 -0.2791  0.0785  0.0713
95857W        W38795  13.117  28.116   3.852 -0.2558 -0.1760 -0.1723
95858W        W38796  13.344  26.988   7.842 -0.0566 -0.0188  0.1351
95859W        W38797  12.928  26.880   5.914 -0.0498  0.3672 -0.0376
95860W        W38798  14.186  27.843   3.630 -0.0016 -0.2470  0.3534
95861W        W38799  12.956  29.576   5.219 -0.2527  0.0546  0.1606
95862W        W38800  14.983  29.864   6.878 -0.2001 -0.1884  0.1040
95863W        W38801  12.761  28.488   3.781  0.0482  0.1798 -0.1006
95864W        W38802  13.731  27.159   5.153  0.1250 -0.1171 -0.1310
95865W        W38803  13.356  25.013   5.616  0.1658  0.1661 -0.2901
95866W        W38804  12.131  27.398   4.976 -0.2510 -0.1944 -0.1757
95867W        W38805  12.539  27.556   5.409  0.0610 -0.1833  0.1722
95868W        W38806  14.274  27.128   4.999 -0.0440  0.1945 -0.2528
95869W        W38807  12.538  25.923   4.523  0.1653  0.0408  0.0404
95870W        W38808  14.781  25.391   3.989  0.2825 -0.0597 -0.3349
95871W        W38809  12.641  30.013   6.490  0.1079  0.1950  0.3550
95872W        W38810  13.880  27.531   7.249  0.2020  0.0565  0.2121
95873W        W38811  11.942  27.207  10.367  0.1181  0.4874 -0.0666
95874W        W38812  12.103  25.965   7.917  0.0183 -0.0769 -0.1630
95875W        W38813  13.747  26.811   8.138 -0.3036 -0.0206  0.1798
95876W        W38814  13.585  27.455   8.876 -0.1088  0.0398 -0.0006
95877W        W38815  11.802  26.118   9.829 -0.1048 -0.2990 -0.3609
95878W        W38816  13.726  27.918   6.952  0.0869 -0.2043  0.1847
95879W        W38817  12.697  27.961   8.994 -0.0919  0.0532  0.2023
95880W        W38818  15.969  29.042   9.432 -0.0836  0.2771 -0.1272
95881W        W38819  13.289  28.746   6.867  0.3979 -0.0894 -0.4292
95882W        W38820  16.339  25.878   9.523  0.0053  0.2165  0.1734
95883W        W38821  13.205  25.658   7.484 -0.2075  0.0753  0.1238
95884W        W38822  10.041  23.930   9.143 -0.1024 -0.0754 -0.2481
95885W        W38823  14.648  26.127   9.630  0.0208 -0.0596 -0.0793
95886W        W38824  12.955  26.651   8.815 -0.0766  0.1636 -0.1162
95887W        W38825  13.671  29.704   8.956 -0.0478  0.1021 -0.1265
95888W        W38826  13.655  26.243   8.336  0.0863 -0.0852 -0.0083
95889W        W38827  12.976  27.613   8.606 -0.2201  0.2868 -0.0493
95890W        W38828  13.421  25.874   9.844  0.1437 -0.1361  0.0030
95891W        W38829  12.475  28.668   7.752  0.4750 -0.2567 -0.1722
95892W        W38830  10.944  27.402   7.882 -0.0107  0.0422 -0.1200
95893W        W38831  11.251  27.277   8.282 -0.0034 -0.0110  0.0643
95894W        W38832  12.885  28.045   9.509 -0.1486 -0.3801 -0.4600
95895W        W38833  13.071  23.700  10.060  0.1389  0.4764 -0.2418
95896W        W38834  13.480  28.398   9.366  0.0534  0.2773 -0.1931
95897W        W38835  12.272  27.277   9.521 -0.0413 -0.0132 -0.3405
95898W        W38836  11.397  28.778   8.883 -0.1065 -0.1624  0.1222
95899W        W38837  12.050  29.028   9.963  0.0142 -0.1489 -0.0031
95900W        W38838  10.711  29.407  10.203  0.3187 -0.0879  0.1373
95901W        W38839  10.423  28.143   9.203  0.0291 -0.1751 -0.2430
95902W        W38840  14.336  28.827  11.623 -0.1634 -0.0789  0.3992
95903W        W38841  11.031  28.641   7.886 -0.3725 -0.0823 -0.3412
95904W        W38842  12.422  27.938   9.650  0.2426  0.1724  0.4199
95905W        W38843  13.071  27.704   7.672  0.1508 -0.0577  0.3781
95906W        W38844  10.868  29.704   7.634  0.1289 -0.1338 -0.0244
95907W        W38845  11.971  28.800   8.896 -0.1941  0.0898 -0.1555
95908W        W38846  11.035  28.053   9.155 -0.2180 -0.3609  0.0632
95909W        W38847  11.035  28.818   7.394 -0.2612  0.2848  0.1153
95910W        W38848  13.376  26.437   7.908 -0.0226 -0.0841  0.2543
95911W        W38849  11.470  27.237   7.750 -0.1119  0.0442 -0.0220
95912W        W38850  14.116  26.492   8.325 -0.0738 -0.0430  0.0265
95913W        W38851  14.543  27.178   8.889  0.3664  0.5097 -0.0130
95914W        W38852  12.244  29.674   9.327 -0.2057 -0.1504  0.2983
95915W        W38853  12.035  26.572   9.702  0.0916 -0.1812  0.0554
95916W        W38854  11.812  26.280   9.334 -0.1199 -0.2336 -0.1175
95917W        W38855  10.913  24.376   8.727 -0.0853 -0.0511  0.0101
95918W        W38856  13.929  30.751  12.133  0.1225  0.1277 -0.1673
95919W        W38857  11.893  26.958   7.377 -0.3290 -0.1222 -0.2813
95920W        W38858  13.648  28.849   7.220 -0.1912 -0.0976  0.0355
95921W        W38859  13.398  30.099   9.000  0.0943 -0.0058 -0.2379
95922W        W38860  13.462  28.258   6.713  0.1387 -0.1370 -0.1762
95923W        W38861  11.290  27.784   8.209 -0.0389 -0.0717 -0.0447
95924W        W38862  12.558  26.008   7.769 -0.2772 -0.2756 -0.0598
95925W        W38863  13.600  25.593   7.176 -0.3547 -0.2617 -0.0776
95926W        W38864  13.503  27.335   9.844  0.1461  0.0431  0.1065
95927W        W38865  14.301  27.520  10.007 -0.0517 -0.0573  0.1983
95928W        W38866  14.456  27.192   6.705  0.1949  0.0391  0.0984
95929W        W38867  13.651  24.772   9.692 -0.3064 -0.1897 -0.0112
95930W        W38868  14.249  25.685   9.329  0.0552 -0.1269  0.3793
95931W        W38869  12.444  28.359   6.469  0.1150 -0.3237  0.0154
95932W        W38870  12.199  27.700   7.992  0.4593  0.1446  0.0818
95933W        W38871  17.440  28.890   9.478 -0.0150 -0.1958 -0.0522
95934W        W38872  13.335  26.986   7.308  0.0821  0.0334 -0.0803
95935W        W38873  11.174  26.814   9.892 -0.1018  0.2182  0.0572
95936W        W38874  12.069  28.972   7.741  0.2511 -0.3828  0.1057
95937W        W38875  10.663  27.735   9.589 -0.0750  0.5135 -0.1923
95938W        W38876  11.260  29.090   8.442  0.4014  0.1047  0.0038
95939W        W38877   9.921  26.187   9.111  0.4071  0.0907  0.0529
95940W        W38878  10.693  27.187   9.668  0.0121 -0.1745 -0.2222
95941W        W38879  13.439  25.405   8.177  0.0910  0.0536  0.1270
95942W        W38880  13.414  25.908   9.262  0.1691  0.1490 -0.0854
95943W        W38881  11.524  27.823   8.655 -0.6376 -0.0723  0.0821
95944W        W38882  12.988  29.986   7.884  0.1133  0.0756  0.0008
95945W        W38883  13.871  27.096   9.128  0.3608  0.1895  0.0107
95946W        W38884  14.381  29.249   7.139  0.2529 -0.2797 -0.1515
95947W        W38885  11.476  26.761   9.119 -0.1473  0.3169  0.2366
95948W        W38886  12.059  25.280   7.705  0.2657  0.0114  0.0555
95949W        W38887  12.311  26.136   9.248 -0.2869 -0.3462 -0.1073
95950W        W38888  11.712  26.201   6.280  0.0584  0.0666 -0.2522
95951W        W38889  10.524  25.392   9.835  0.1998  0.1036 -0.1081
95952W        W38890  12.365  27.169   9.037  0.0971 -0.0100  0.0879
95953W        W38891  12.161  27.653   7.496 -0.0081 -0.4006  0.0224
95954W        W38892  15.059  29.257   7.769  0.0365 -0.2587  0.0239
95955W        W38893  13.271  30.012   9.504 -0.1596 -0.0621 -0.4420
95956W        W38894  13.233  29.608   7.336  0.1887 -0.0120 -0.5647
95957W        W38895  12.580  26.904   9.409 -0.2546  0.1738 -0.1645
95958W        W38896  12.364  26.730   7.549  0.2016 -0.3013 -0.0003
95959W        W38897  12.076  29.244   9.107  0.1873  0.0182 -0.3550
95960W        W38898  13.605  27.470   9.367  0.4441 -0.1495 -0.2299
95961W        W38899  13.455  25.851   7.953  0.1573 -0.1088 -0.1295
95962W        W38900  14.802  30.351   9.539  0.3325 -0.1074 -0.2029
95963W        W38901  13.345  27.963   8.034 -0.0688  0.0341  0.3231
95964W        W38902  13.319  25.565  10.282  0.1174 -0.1419  0.1908
95965W        W38903  14.696  26.772   8.680 -0.1440  0.0069 -0.0021
95966W        W38904  10.993  26.118   4.921  0.0998  0.0485  0.1524
95967W        W38905  12.876  27.196   7.769  0.0278  0.1094  0.0533
95968W        W38906  10.534  29.523   8.177 -0.3541  0.0588 -0.1868
95969W        W38907  11.340  29.800   8.093 -0.1856  0.0731 -0.0732
95970W        W38908  13.201  27.243   9.488 -0.0406  0.1425 -0.1008
95971W        W38909  11.773  27.574   6.727 -0.0382 -0.0251 -0.2591
95972W        W38910  13.821  25.604   9.063  0.0253  0.0274  0.0077
95973W        W38911  13.900  25.209   8.255 -0.1464  0.1835  0.4228
95974W        W38912  13.681  27.563   8.239 -0.0714  0.2090 -0.0463
95975W        W38913  13.693  27.129   8.556  0.1336  0.0234 -0.0115
95976W        W38914  14.136  25.872   7.655  0.1435  0.0405  0.0770
95977W        W38915  12.372  27.983   8.566 -0.2176  0.1312 -0.2733
95978W        W38916  13.864  27.812   9.973 -0.1812 -0.2193  0.3062
95979W        W38917  12.526  25.537   7.783 -0.3484 -0.2518  0.0668
95980W        W38918  15.523  29.034   7.567  0.2691  0.3335  0.2413
95981W        W38919  12.006  27.683   8.628  0.2920  0.1176  0.4649
95982W        W38920  13.537  27.566   7.753 -0.0703 -0.1563 -0.1854
95983W        W38921  12.204  24.452   9.041  0.2012 -0.3009  0.0934
95984W        W38922  11.871  26.673   6.654 -0.0438  0.4993 -0.0444
95985W        W38923  14.058  24.638   9.024 -0.0870  0.1599  0.1781
95986W        W38924  11.475  29.538   8.552  0.1111 -0.0792  0.0828
95987W        W38925  15.007  26.792   8.043 -0.2225 -0.1486 -0.3270
95988W        W38926  14.300  26.982   9.979  0.3573 -0.2923 -0.3462
95989W        W38927  13.570  26.906   9.487 -0.0090 -0.0179  0.0710
95990W        W38928  13.963  25.957   9.749 -0.2024  0.0482 -0.0345
95991W        W38929  11.266  27.471   6.963 -0.0267 -0.3463  0.1682
95992W        W38930  12.367  25.203  10.310  0.1542 -0.0343  0.1819
95993W        W38931  12.514  29.324   9.467  0.1387 -0.1186  0.2724
95994W        W38932  14.041  26.730   9.638  0.0649 -0.1448 -0.1658
95995W        W38933  13.093  25.720   8.519  0.0980 -0.2727  0.0595
95996W        W38934  10.685  30.471   8.075  0.1789  0.0218  0.1673
95997W        W38935  12.402  28.984   7.296 -0.2779 -0.0045 -0.1939
95998W        W38936  11.124  25.372  10.187  0.0538 -0.1366  0.1605
95999W        W38937  13.277  26.812   9.870 -0.0986  0.4314  0.0906
96000W        W38938  11.923  30.434   8.580  0.0652  0.0316  0.0403
96001W        W38939  12.667  28.243   9.947  0.1999 -0.1335  0.0029
96002W        W38940  11.006  29.529   8.383  0.1834  0.0433 -0.0399
96003W        W38941  14.415  27.053  10.478  0.0917  0.2906 -0.0438
96004W        W38942  12.275  27.586  10.103  0.1885 -0.0388 -0.1572
96005W        W38943  13.328  27.464   7.158  0.0584  0.2884  0.0202
96006W        W38944   9.626  27.808   8.396 -0.1734 -0.0182 -0.3797
96007W        W38945  14.295  26.354   9.990 -0.2422  0.2712 -0.1879
96008W        W38946  14.061  25.800   7.110 -0.1262  0.1583  0.1051
96009W        W38947  12.605  26.432   8.561 -0.2273 -0.3762  0.1420
96010W        W38948  13.565  25.001   9.237  0.2817  0.1128 -0.0181
96011W        W38949  11.175  30.401   9.863 -0.1759  0.3263  0.0103
96012W        W38950  13.694  25.226   8.739  0.2670 -0.0737 -0.1429
96013W        W38951  11.006  25.869   9.387  0.1603  0.2256  0.1122
96014W        W38952  14.693  29.697  10.153  0.2909 -0.1193 -0.0077
96015W        W38953  12.886  25.880   9.193 -0.1236  0.0451 -0.0151
96016W        W38954  12.182  29.555   9.870  0.0825  0.1172 -0.1530
96017W        W38955  12.520  29.996   9.132  0.1768  0.0012 -0.1440
96018W        W38956  11.873  28.489   8.012 -0.3504  0.0990 -0.1424
96019W        W38957  11.945  29.718   8.314 -0.1104 -0.0563  0.1400
96020W        W38958  14.986  29.368   9.423 -0.1594 -0.2703  0.3410
96021W        W38959   9.472  28.343  12.172 -0.1904  0.1117  0.2031
96022W        W38960  12.523  25.671   9.592  0.0206  0.1483  0.0826
96023W        W38961  12.674  25.378   8.308 -0.2431  0.0234 -0.0854
96024W        W38962  13.494  27.889   9.610  0.2235 -0.3090 -0.1152
96025W        W38963  11.907  26.903   9.266 -0.0272  0.1914  0.0313
96026W        W38964  13.541  24.130  10.299  0.0707  0.2116 -0.0471
96027W        W38965  14.130  28.521   7.947 -0.0697 -0.0919  0.2114
96028W        W38966  11.681  28.786   8.507 -0.0959 -0.0467  0.1633
96029W        W38967  11.297  27.509   9.023 -0.1760  0.0955 -0.0335
96030W        W38968  12.405  29.320   7.683 -0.1602 -0.0974  0.2222
96031W        W38969  11.625  25.530  10.187 -0.1145  0.0818 -0.1119
96032W        W38970  10.649  26.153   9.630  0.1586 -0.0750  0.2004
96033W        W38971  11.439  28.302   7.893 -0.2205 -0.2414 -0.2482
96034W        W38972  11.316  27.190   9.402  0.2904  0.4074  0.1547
96035W        W38973  13.937  23.456   9.993  0.0693  0.4235 -0.1069
96036W        W38974  12.585  29.051   8.114 -0.0885  0.0905  0.0247
96037W        W38975  12.270  26.684   8.900 -0.0914  0.4789 -0.1104
96038W        W38976  13.244  27.479   8.165 -0.1160 -0.1070  0.1168
96039W        W38977  12.246  25.966  10.001  0.0267 -0.0511 -0.0547
96040W        W38978  13.736  28.090   7.708 -0.0921 -0.2494  0.1508
96041W        W38979  13.813  26.583   9.231  0.2460 -0.0230 -0.2546
96042W        W38980  11.533  25.693   5.469 -0.0081 -0.0680  0.2182
96043W        W38981  14.293  24.477  10.240  0.0246 -0.0194 -0.0539
96044W        W38982  12.495  29.231  10.108  0.1647 -0.0046  0.1096
96045W        W38983  13.312  29.144   7.582  0.0940 -0.1021 -0.0356
96046W        W38984  14.351  26.758   9.180  0.0255  0.0451 -0.0049
96047W        W38985  10.920  26.392  10.091 -0.1931  0.0790 -0.1115
96048W        W38986  13.448  25.265   9.850 -0.0399  0.3666  0.0477
96049W        W38987  13.418  26.882   8.993 -0.1677  0.3028  0.0359
96050W        W38988  12.474  27.534   8.694 -0.1656 -0.0212 -0.2351
96051W        W38989  13.103  27.647   9.779  0.2215 -0.0579  0.0644
96052W        W38990  13.394  27.883  10.087 -0.4199  0.0124  0.0268
96053W        W38991  15.547  29.273   9.439 -0.1636 -0.3162  0.3139
96054W        W38992  13.984  25.337   6.918  0.1675  0.0398 -0.4045
96055W        W38993  13.346  24.774  10.535 -0.0127 -0.1729 -0.0550
96056W        W38994  14.092  27.332   8.730  0.0723 -0.4463  0.0913
96057W        W38995  12.388  26.506   8.033  0.0837  0.0453 -0.0199
96058W        W38996  10.304  24.908   9.095  0.3476  0.2624 -0.1756
96059W        W38997  11.525  25.708   8.514 -0.6108 -0.0546  0.0132
96060W        W38998  12.474  29.959   6.925  0.1272  0.4348 -0.1440
96061W        W38999  11.896  27.702   9.604 -0.1198  0.2147 -0.1970
96062W        W39000  13.704  26.584   8.675 -0.1686 -0.2175  0.1364
96063W        W39001  11.191  25.914   8.900  0.0317 -0.1860  0.0660
96064W        W39002  11.170  26.841   5.870  0.1597 -0.1937 -0.1774
96065W        W39003  12.273  28.126   7.149 -0.0942  0.4274  0.4128
96066W        W39004  13.446  27.835   8.582 -0.1026  0.2200 -0.1882
96067W        W39005  13.952  25.729   8.128 -0.0779 -0.0052 -0.0992
96068W        W39006  12.176  28.814   9.473  0.2834 -0.3729  0.0366
96069W        W39007  14.034  25.161   9.133  0.2334  0.1972 -0.0694
96070W        W39008  10.917  27.192  10.157  0.0884  0.0822 -0.0815
96071W        W39009  13.433  28.791   8.623 -0.1544  0.3891 -0.0445
96072W        W39010  12.427  25.146   9.822  0.0994  0.0780  0.3021
96073W        W39011  12.919  27.835  10.187 -0.0250  0.0261  0.2013
96074W        W39012  11.817  29.243   8.626  0.0221  0.2059  0.4332
96075W        W39013  11.788  27.432   9.107 -0.2855  0.0552  0.1016
96076W        W39014  13.974  27.441  10.343  0.1417  0.1956 -0.2414
96077W        W39015  12.451  28.406   9.495 -0.1124  0.0200 -0.0491
96078W        W39016  13.157  27.744   9.146  0.1238 -0.1499  0.0483
96079W        W39017  12.996  25.540   7.951 -0.1566 -0.1082  0.0961
96080W        W39018  12.180  28.665   6.898  0.0279  0.4486 -0.2474
96081W        W39019  12.777  27.545   9.369 -0.0570 -0.0857 -0.0832
96082W        W39020  11.633  30.116   7.211 -0.2602 -0.1192  0.2213
96083W        W39021  12.375  28.084   7.699 -0.0631 -0.2294  0.4011
96084W        W39022  12.229  27.821   9.171 -0.0357  0.1356 -0.0142
96085W        W39023  13.879  29.711   7.790 -0.2519  0.1513 -0.0990
96086W        W39024  12.726  27.889   7.312  0.2379 -0.0260  0.2741
96087W        W39025  12.224  28.335   9.015 -0.1782 -0.1537 -0.2331
96088W        W39026  10.562  28.876   7.173  0.1319 -0.0950  0.1465
96089W        W39027  12.940  29.149   6.591  0.2691  0.2456  0.1628
96090W        W39028  12.164  29.585   8.740 -0.3763 -0.2718 -0.0776
96091W        W39029  14.109  26.848   8.768 -0.1860  0.2196 -0.2027
96092W        W39030  13.954  27.315   9.724 -0.3977 -0.3176 -0.2653
96093W        W39031  14.137  25.296   7.765  0.2344  0.1945 -0.1519
96094W        W39032  12.742  26.011   9.938 -0.1250  0.2317 -0.0107
96095W        W39033  12.308  26.111   6.969  0.3076  0.0590 -0.1312
96096W        W39034  13.930  28.264   9.218  0.0590  0.0502  0.0452
96097W        W39035  11.994  25.990   8.928  0.1503  0.0870  0.0659
96098W        W39036  12.787  26.383   9.199 -0.2354  0.0315  0.1362
96099W        W39037  13.534  26.362  10.068 -0.1402 -0.2095  0.3829
96100W        W39038  12.735  28.351   6.023  0.0776  0.1015  0.2250
96101W        W39039  14.412  22.732   9.037  0.1172  0.0016  0.0857
96102W        W39040  12.159  28.804   8.240  0.0323 -0.1265  0.0969
96103W        W39041  12.445  28.506   8.611  0.1031 -0.2371 -0.0997
96104W        W39042  13.170  30.023  10.069 -0.0979 -0.0691  0.3968
96105W        W39043  11.816  25.910   7.023  0.2238 -0.1287 -0.0146
96106W        W39044  14.803  27.182   8.368 -0.1855  0.0232  0.1387
96107W        W39045  12.604  28.925   9.213 -0.2411  0.0618  0.1531
96108W        W39046  11.643  26.167   7.971  0.1352  0.0689 -0.3359
96109W        W39047  14.530  25.606   9.794 -0.0101 -0.0144 -0.1496
96110W        W39048  15.094  26.352   9.327  0.0847 -0.0002  0.2526
96111W        W39049  10.562  26.665   8.626 -0.1763 -0.2011 -0.1527
96112W        W39050  12.959  27.076   9.098 -0.3828 -0.0844  0.0673
96113W        W39051  12.988  26.116   8.138  0.4463  0.1531  0.2337
96114W        W39052  11.789  25.417   8.949  0.4277  0.0691 -0.1957
96115W        W39053  13.088  25.034   9.031  0.0969  0.0354  0.2073
96116W        W39054  11.992  25.868   8.458  0.0472  0.0651  0.1801
96117W        W39055  13.124  27.319  10.232  0.1249 -0.0646 -0.0288
96118W        W39056  13.788  26.103   8.893 -0.2357 -0.1826  0.1307
96119W        W39057  14.376  28.822   6.736  0.0264  0.1711  0.1485
96120W        W39058  13.046  26.707   9.447 -0.0746  0.2101  0.2220
96121W        W39059  12.082  30.872   7.319 -0.1835  0.0751 -0.3791
96122W        W39060  13.166  28.255   8.971 -0.0651 -0.0403  0.1076
96123W        W39061  14.542  30.284   8.730 -0.1381  0.0926 -0.2529
96124W        W39062  11.306  26.288   9.165  0.0172  0.0158  0.0886
96125W        W39063  14.475  29.317   9.318 -0.4387 -0.0306  0.0907
96126W        W39064  14.024  28.768   9.596  0.1450  0.0216  0.0013
96127W        W39065  12.798  22.502   9.464 -0.1917 -0.1292 -0.1531
96128W        W39066  13.200  26.054  10.269 -0.0770  0.1231  0.0031
96129W        W39067  12.941  29.454   8.341 -0.1412  0.1513 -0.0861
96130W        W39068  11.640  26.819  10.084  0.1583  0.0057  0.2048
96131W        W39069  13.534  27.543   6.651  0.2148 -0.2473  0.2934
96132W        W39070  12.834  29.013   9.772 -0.0050 -0.0014 -0.1755
96133W        W39071  12.026  27.224   7.839  0.1961  0.0612 -0.1897
96134W        W39072  12.900  28.446   8.102 -0.2170  0.3481 -0.0227
96135W        W39073  12.933  28.206   7.661 -0.1687  0.0771 -0.0242
96136W        W39074  13.996  28.506   8.531 -0.2703 -0.0923  0.2458
96137W        W39075  12.752  27.894   8.059 -0.1784 -0.0066  0.3798
96138W        W39076  14.561  26.599   9.631 -0.3386 -0.0271  0.4312
96139W        W39077  12.484  26.336   9.643  0.0441 -0.2334 -0.1554
96140W        W39078  14.559  25.140   9.491  0.1219  0.0179 -0.2373
96141W        W39079  13.310  25.527   8.933  0.2331 -0.1190 -0.1547
96142W        W39080  11.391  27.687   9.473 -0.0416 -0.0815  0.1684
96143W        W39081  10.986  27.396   7.343  0.0325 -0.1707 -0.2068
96144W        W39082  10.946  28.319   7.564 -0.0754  0.2366  0.0239
96145W        W39083  11.966  28.403   8.613  0.1363 -0.0140 -0.2425
96146W        W39084  11.430  26.753   7.837  0.0593  0.0549 -0.2559
96147W        W39085  12.349  25.534   8.639  0.0399 -0.0884 -0.0888
96148W        W39086  13.977  28.520   6.874  0.0621  0.2076  0.1144
96149W        W39087  11.769  24.272  10.144 -0.2195  0.1277  0.2070
96150W        W39088   9.912  25.662   9.056  0.2485  0.2441  0.1531
96151W        W39089  12.431  29.044   6.765  0.3073 -0.0832  0.1167
96152W        W39090  13.770  28.671   7.675  0.1597  0.3976  0.2581
96153W        W39091  13.763  26.936   9.980  0.3243 -0.0119  0.1175
96154W        W39092   9.914  28.034   6.266  0.1091 -0.2730  0.0142
96155W        W39093  10.497  27.022   7.791  0.0191  0.0761  0.0247
96156W        W39094  10.997  24.288   9.513 -0.0223 -0.0561 -0.1401
96157W        W39095  13.277  29.106   8.128  0.0181 -0.0272  0.0902
96158W        W39096  14.013  29.608   6.928 -0.2158 -0.1100  0.0494
96159W        W39097  11.404  25.099   9.840  0.0348  0.0809  0.3001
96160W        W39098  13.659  28.389   7.219  0.0826 -0.1915  0.2850
96161W        W39099  13.343  28.344   8.378 -0.0073  0.2252 -0.0182
96162W        W39100  18.665  27.740   9.759 -0.3456 -0.2793 -0.0661
96163W        W39101  12.957  28.625   8.605 -0.0421 -0.0453  0.1459
96164W        W39102  13.194  28.717   9.135 -0.1716 -0.0116  0.2641
96165W        W39103  13.671  25.559   9.540 -0.2930 -0.0677 -0.1567
96166W        W39104  13.278  26.177   8.749 -0.0021 -0.2497  0.1500
96167W        W39105  12.858  28.109   8.544  0.0780 -0.2089 -0.2728
96168W        W39106  12.109  26.804   8.383  0.0299  0.0180 -0.0487
96169W        W39107  13.123  26.147   7.594  0.2177 -0.4514  0.5040
96170W        W39108  12.745  27.304   9.821 -0.2563 -0.0695  0.1642
96171W        W39109  11.911  28.841   7.278 -0.0983 -0.4345  0.1734
96172W        W39110  14.124  25.999   8.513  0.0376  0.1184 -0.4438
96173W        W39111  13.393  29.264  10.004  0.1687  0.1259  0.2017
96174W        W39112  13.017  29.198   9.286 -0.0885  0.1197 -0.1322
96175W        W39113  14.078  29.335   8.436  0.0746  0.1268  0.2087
96176W        W39114  10.113  24.255   8.508 -0.2574  0.0535 -0.3624
96177W        W39115  11.633  27.274   8.662 -0.2792  0.2677 -0.0673
96178W        W39116  13.292  26.659   8.404  0.2552 -0.0414 -0.2287
96179W        W39117  14.885  27.237   9.497 -0.0862 -0.1739  0.1245
96180W        W39118  12.774  26.816   9.872 -0.0898 -0.0464 -0.2265
96181W        W39119  13.659  25.481   7.746  0.0437 -0.1912  0.0881
96182W        W39120  13.449  29.180   8.976 -0.1935 -0.1137  0.3095
96183W        W39121  13.561  28.699   9.934  0.1286  0.2679 -0.0525
96184W        W39122  12.807  32.345   2.533  0.1203  0.1242  0.2565
96185W        W39123  12.129  30.144   1.005 -0.0504  0.3613  0.2289
96186W        W39124  13.499  27.514  31.763  0.0058 -0.1703 -0.0944
96187W        W39125  14.485  31.525   1.093  0.0914  0.1046 -0.1283
96188W        W39126  11.856  30.675   1.319  0.3777 -0.1348 -0.1663
96189W        W39127  13.703  33.120   1.210  0.2375 -0.1683 -0.1164
96190W        W39128  13.381  30.862   4.576 -0.0160  0.1398  0.3740
96191W        W39129  11.493  31.922   1.099  0.0443  0.1217  0.2112
96192W        W39130  14.944  32.733   3.112 -0.0827  0.2921 -0.0623
96193W        W39131  12.097  30.542   0.585  0.0380  0.1233  0.1971
96194W        W39132  13.570  30.584   2.807 -0.0442 -0.0367 -0.3694
96195W        W39133  12.106  31.686   2.226  0.0781  0.3478 -0.0850
96196W        W39134  13.917  28.624   0.957  0.1541 -0.0802 -0.1604
96197W        W39135  10.993  28.271   2.588  0.0603  0.1673  0.3625
96198W        W39136  13.265  32.226   2.294 -0.1302 -0.1131  0.1098
96199W        W39137  11.722  31.188   0.284 -0.3548  0.0371  0.0934
96200W        W39138  11.631  28.964   2.437 -0.0112 -0.1061 -0.0617
96201W        W39139  12.391  29.781   0.551  0.4719  0.1307 -0.0233
96202W        W39140  12.405  32.934   1.204 -0.1985 -0.0084  0.0465
96203W        W39141  13.127  30.600   2.595  0.0070 -0.0922 -0.1143
96204W        W39142  13.682  29.791   3.576 -0.0791 -0.0262  0.0005
96205W        W39143  12.190  32.384  31.818 -0.0820  0.3437  0.1158
96206W        W39144  10.763  31.216   0.823 -0.2657 -0.0559  0.1811
96207W        W39145  10.974  30.110   2.462 -0.0394  0.2237  0.0325
96208W        W39146  11.478  29.885   1.593 -0.1419 -0.2363 -0.1463
96209W        W39147  14.847  31.168   1.258 -0.0242 -0.0503 -0.1308
96210W        W39148  14.761  30.454   1.037  0.3062 -0.1207 -0.0783
96211W        W39149  12.802  32.865   1.510  0.0382 -0.2950  0.0200
96212W        W39150  12.933  33.007   3.238 -0.1136  0.1122 -0.0487
96213W        W39151  12.739  29.862   3.808  0.2656  0.3811 -0.0993
96214W        W39152  10.683  31.128   1.448 -0.0925  0.0023  0.1924
96215W        W39153  10.699  34.120   1.417  0.1042  0.0280  0.0776
96216W        W39154  12.324  32.107   1.723 -0.3766  0.0027  0.2612
96217W        W39155  14.675  31.176  31.848  0.0737 -0.4163 -0.0472
96218W        W39156  13.017  32.517   3.543 -0.1216  0.1336 -0.2077
96219W        W39157  12.654  32.218   3.453 -0.0790  0.1425 -0.0582
96220W        W39158  11.736  32.652   1.653  0.2571 -0.0916 -0.0291
96221W        W39159  12.380  33.297   2.452 -0.1574  0.0252 -0.2068
96222W        W39160  13.041  31.598   2.979 -0.1423  0.0311  0.1388
96223W        W39161  13.217  31.999   1.395 -0.0479  0.3653 -0.0193
96224W        W39162  12.309  31.468   0.714  0.3285  0.3348  0.0132
96225W        W39163  13.237  33.357   0.946  0.0454  0.2546  0.0307
96226W        W39164  13.173  32.908   0.745  0.3327 -0.0661 -0.2657
96227W        W39165  12.692  31.099   3.039 -0.2281  0.0135  0.1489
96228W        W39166  11.784  31.489   1.881 -0.0610  0.0679  0.0828
96229W        W39167  14.831  30.580   3.433 -0.3321 -0.2662 -0.1606
96230W        W39168  12.126  33.167   0.264  0.1693  0.0316  0.1823
96231W        W39169  13.958  30.785   0.539 -0.0094  0.1983  0.0896
96232W        W39170  13.007  29.819  31.787  0.0240 -0.0781 -0.2020
96233W        W39171  16.493  30.150   0.975  0.2873 -0.2048  0.2095
96234W        W39172  11.694  29.499   1.340  0.2251 -0.2265 -0.1457
96235W        W39173  12.849  33.178   2.396  0.0498 -0.0543  0.1230
96236W        W39174  13.010  31.582   1.147  0.1380 -0.0395  0.0844
96237W        W39175  13.706  32.341   3.046 -0.0531  0.4010  0.0898
96238W        W39176  12.144  32.185   0.379  0.1695  0.0216  0.1997
96239W        W39177  13.337  30.485   0.967  0.1092  0.2241 -0.1715
96240W        W39178  12.398  33.022   3.262 -0.1593  0.0092  0.0769
96241W        W39179  11.399  29.042   1.273  0.0548 -0.0527  0.0432
96242W        W39180  13.862  33.356   0.098 -0.1638  0.2447  0.3741
96243W        W39181  13.660  32.030   1.115 -0.0003 -0.1169  0.0385
96244W        W39182  14.077  32.123  31.089  0.0886  0.2031 -0.0563
96245W        W39183  12.015  30.054   0.424 -0.0748  0.0276 -0.0030
96246W        W39184  12.237  31.817   3.841  0.1885 -0.0215 -0.1221
96247W        W39185  13.250  30.027   2.434 -0.0310 -0.0042 -0.1212
96248W        W39186  11.228  30.708  31.558 -0.2866  0.1831  0.0121
96249W        W39187  14.485  31.151   1.559  0.1248 -0.1294  0.1876
96250W        W39188  11.456  31.046   2.137 -0.2692 -0.1576  0.0003
96251W        W39189  13.236  29.200   1.449 -0.0042 -0.1295 -0.0019
96252W        W39190  12.869  31.159   0.439 -0.2753 -0.0293 -0.1198
96253W        W39191  14.697  31.815   3.455 -0.0413  0.0982  0.0294
96254W        W39192  13.062  31.875  30.610 -0.1043 -0.1543  0.1827
96255W        W39193  13.590  28.080  31.945 -0.0354  0.4191 -0.0688
96256W        W39194  13.944  29.700   2.507  0.1635 -0.0658  0.1053
96257W        W39195  11.416  30.607   1.050  0.0979 -0.1015 -0.1296
96258W        W39196  12.723  31.106  31.367 -0.0676 -0.2192 -0.3542
96259W        W39197  14.665  32.707   3.555  0.3877  0.0802 -0.2020
96260W        W39198  14.254  31.343   0.669 -0.2058 -0.2156  0.0174
96261W        W39199  11.948  33.033   2.455 -0.0965 -0.2245 -0.4326
96262W        W39200  12.277  29.719   3.308 -0.0117  0.3247 -0.0306
96263W        W39201  13.264  32.206   2.785 -0.0251 -0.0901 -0.0339
96264W        W39202  11.565  33.041   0.102  0.1715 -0.1887  0.2562
96265W        W39203  11.340  31.647   0.654 -0.2215 -0.0369  0.0563
96266W        W39204   9.674  30.206   0.668  0.2192  0.0235 -0.3538
96267W        W39205  11.161  29.212   2.762 -0.0533  0.0540 -0.0276
96268W        W39206  13.707  30.020   0.640  0.1384  0.0689 -0.0610
96269W        W39207  13.833  29.875   0.178 -0.0381 -0.1574  0.1265
96270W        W39208  12.046  28.954   3.252 -0.0368  0.0623 -0.1182
96271W        W39209  13.567  29.060   0.917  0.1552 -0.1842 -0.0751
96272W        W39210  11.157  31.257   0.375  0.2751  0.1289 -0.0085
96273W        W39211  13.397  32.050  31.561  0.1987 -0.0853 -0.0412
96274W        W39212  13.454  32.949  31.286  0.1688 -0.2013  0.2253
96275W        W39213  14.915  31.763   0.557  0.0831 -0.4397 -0.1101
96276W        W39214  12.548  31.430   1.300 -0.2106  0.0358 -0.0580
96277W        W39215  10.066  29.443   1.679 -0.1251 -0.1935  0.2333
96278W        W39216  12.305  29.650   2.183  0.0302  0.1673  0.0444
96279W        W39217  10.728  29.416   1.667  0.4060  0.3586  0.0776
96280W        W39218  15.602  30.106   2.451  0.0572  0.1550 -0.2173
96281W        W39219  11.149  30.735   0.148  0.0042  0.1706 -0.0100
96282W        W39220  14.061  29.803   1.292 -0.1120 -0.0358  0.2544
96283W        W39221  13.856  30.458   0.880  0.2255 -0.1367  0.2533
96284W        W39222  10.782  31.500   0.062 -0.2133 -0.3003 -0.1376
96285W        W39223  14.760  29.905   2.032  0.2266  0.2729  0.1417
96286W        W39224  14.201  32.289   0.555  0.0758 -0.4516  0.3096
96287W        W39225  13.523  32.601   2.567 -0.2132 -0.0087  0.2132
96288W        W39226  13.410  32.474   1.283 -0.1140  0.1708  0.2373
96289W        W39227  12.323  30.168   3.830 -0.3052 -0.1660 -0.0160
96290W        W39228  11.641  30.150   1.160  0.0711 -0.1815 -0.0540
96291W        W39229  11.271  32.723   1.855 -0.0112 -0.4979 -0.1281
96292W        W39230  11.644  32.108   0.560  0.0670 -0.1285 -0.1104
96293W        W39231  12.975  29.105   0.496 -0.3811 -0.0592  0.1009
96294W        W39232  13.183  32.412   1.718  0.1792  0.2183 -0.1727
96295W        W39233  12.950  32.125   1.017 -0.1251  0.1743  0.0146
96296W        W39234  11.522  31.742   2.668  0.1297 -0.0348  0.0230
96297W        W39235  13.061  30.128   2.982 -0.3811  0.1851  0.1292
96298W        W39236  14.287  31.679   1.525 -0.0972 -0.1111 -0.1310
96299W        W39237  12.739  32.285   1.461  0.2039 -0.4530  0.0131
96300W        W39238  11.540  29.927   0.326  0.1784  0.1084  0.3951
96301W        W39239  12.705  34.534   2.187  0.1260  0.0061  0.0231
96302W        W39240  11.751  33.027   1.979  0.1662  0.0760  0.0493
96303W        W39241  10.922  29.184   1.279 -0.2647 -0.2635  0.1433
96304W        W39242  13.149  32.866   1.871 -0.0085 -0.1663  0.0326
96305W        W39243  12.122  29.808   1.401 -0.0739  0.0615  0.0825
96306W        W39244  11.171  31.775   3.408 -0.3576  0.1285 -0.1609
96307W        W39245  12.843  30.529   1.195 -0.1965 -0.0536  0.3406
96308W        W39246  10.668  29.197   0.443  0.2319 -0.0039  0.0897
96309W        W39247  12.040  32.480   2.461 -0.1792  0.1427 -0.0575
96310W        W39248  12.802  28.633  31.222 -0.0139  0.3926  0.1545
96311W        W39249  14.470  29.473   0.629 -0.0185  0.2016  0.1411
96312W        W39250  13.360  30.792   1.884 -0.1830  0.1895 -0.1190
96313W        W39251  13.708  31.220  31.128  0.0775  0.1414 -0.0278
96314W        W39252  14.234  29.951   0.726  0.0354 -0.0490 -0.1633
96315W        W39253  14.356  30.682  31.757  0.0538 -0.0076 -0.2368
96316W        W39254  11.936  32.169   2.093  0.0269 -0.0593 -0.2145
96317W        W39255  13.615  30.046   1.111  0.0189 -0.3044 -0.3562
96318W        W39256  12.596  31.111   0.916  0.1386 -0.0743  0.1403
96319W        W39257  12.482  29.746  31.979  0.1473  0.2226 -0.1306
96320W        W39258  14.424  31.877   0.681 -0.0154 -0.0466  0.1055
96321W        W39259  11.980  31.956   2.580  0.1962  0.0339  0.0096
96322W        W39260  13.812  30.725   3.331 -0.0681 -0.1095  0.0664
96323W        W39261  12.838  32.084   1.999  0.0550  0.1511 -0.0701
96324W        W39262  12.025  29.253   2.835  0.0434 -0.2054 -0.1225
96325W        W39263  12.514  30.249   0.703 -0.1127 -0.0888  0.2239
96326W        W39264  12.389  30.937   0.472 -0.0022 -0.0521 -0.3098
96327W        W39265  11.591  32.910   0.847 -0.1811 -0.0546 -0.1486
96328W        W39266  14.824  29.430   1.807 -0.2780 -0.0675 -0.2627
96329W        W39267  13.399  29.497   1.897  0.2466  0.1098 -0.2351
96330W        W39268  12.909  29.699   2.720 -0.1589 -0.1117 -0.1943
96331W        W39269  15.360  31.079   3.369 -0.0741  0.2245 -0.0956
96332W        W39270  13.497  30.489  31.864 -0.2549  0.0403  0.1342
96333W        W39271  13.488  29.165   0.386  0.1062  0.0542  0.1941
96334W        W39272  11.193  30.117  31.362  0.1896 -0.0534 -0.0248
96335W        W39273  13.675  30.137   2.239 -0.0639  0.1594  0.4168
96336W        W39274  11.760  31.372   2.387  0.1238 -0.1713  0.2335
96337W        W39275  11.818  32.420   4.804 -0.0230 -0.1473 -0.1315
96338W        W39276  13.578  31.768   3.014  0.2241 -0.1751 -0.0945
96339W        W39277  14.308  30.267   1.179  0.3201 -0.1248  0.0144
96340W        W39278  12.770  29.651   3.331  0.2519 -0.1463 -0.1219
96341W        W39279  13.856  30.818   0.067 -0.2059  0.0306  0.0757
96342W        W39280  11.165  32.128   0.709 -0.0154 -0.3578 -0.0889
96343W        W39281  13.438  33.207   0.526 -0.0036 -0.4125  0.0490
96344W        W39282  12.583  30.828   1.557  0.2510  0.0394  0.0563
96345W        W39283  12.073  31.613   1.252  0.1589 -0.1171 -0.0757
96346W        W39284  12.248  30.888  31.399  0.0131  0.0769 -0.3241
96347W        W39285  13.707  30.074   2.765 -0.0776 -0.3076 -0.3547
96348W        W39286  13.087  32.122  31.963 -0.2396 -0.0427  0.1683
96349W        W39287  12.243  28.299   1.388 -0.0029  0.2921 -0.2406
96350W        W39288  11.540  32.245   2.645  0.1803 -0.1678 -0.0615
96351W        W39289  10.867  30.346  31.633  0.1341 -0.1465 -0.0385
96352W        W39290  10.585  30.784   2.005 -0.3092  0.0495  0.1886
96353W        W39291  14.676  29.150   3.170  0.0688  0.1291  0.0851
96354W        W39292  13.688  31.286   0.742 -0.2118 -0.1302 -0.0255
96355W        W39293  13.149  30.436   2.124  0.1166  0.0440  0.0981
96356W        W39294  12.508  29.456   2.672  0.3119  0.3336 -0.2233
96357W        W39295  11.811  31.106   1.588 -0.2086  0.1950  0.1941
96358W        W39296  14.360  29.769   1.707  0.0068  0.2444 -0.1589
96359W        W39297  14.649  28.853   1.242 -0.0586  0.1618 -0.4001
96360W        W39298  14.170  30.798   2.344 -0.1247 -0.1562  0.2641
96361W        W39299  12.310  31.345   1.822  0.0547 -0.4334  0.2587
96362W        W39300  10.192  30.943   0.651  0.4015 -0.4107 -0.1020
96363W        W39301  13.587  31.747   2.081  0.2076  0.0800 -0.0008
96364W        W39302  13.357  30.718   1.400  0.3633  0.1548 -0.1979
96365W        W39303  11.435  32.435   0.932  0.1318  0.1380  0.0765
96366W        W39304  13.766  33.196   2.623  0.0438  0.0490  0.0494
96367W        W39305  12.447  31.437  31.679 -0.1665 -0.3558  0.2675
96368W        W39306  12.308  32.642   0.221 -0.3165  0.2920 -0.1697
96369W        W39307  12.412  29.849   4.245 -0.0800 -0.2472  0.2345
96370W        W39308  14.737  29.729   1.431  0.1331 -0.0383  0.1732
96371W        W39309  13.203  30.232   1.424 -0.3259  0.1310  0.1488
96372W        W39310   9.718  28.120   1.252 -0.0003 -0.1597  0.1546
96373W        W39311  12.683  29.041   1.458 -0.2200  0.0841  0.1613
96374W        W39312  12.329  32.049   1.207  0.0647  0.1068 -0.1572
96375W        W39313  13.223  29.936   3.436 -0.0028 -0.0374  0.0075
96376W        W39314  13.096  32.743   4.652  0.0968  0.3004  0.0874
96377W        W39315  12.758  29.922   2.150 -0.1106  0.2855 -0.1174
96378W        W39316  15.132  31.037   0.145 -0.0985 -0.0984  0.0320
96379W        W39317  12.447  29.230   3.140  0.0200 -0.1647  0.1380
96380W        W39318  11.694  30.862  31.895  0.1611  0.0081 -0.2618
96381W        W39319  11.186  30.938   3.072 -0.2208  0.3892  0.1226
96382W        W39320  12.183  31.395   0.222 -0.0984  0.3874 -0.0663
96383W        W39321  13.299  31.346   2.164 -0.1905  0.0370  0.0727
96384W        W39322  12.300  32.512   1.459  0.0742  0.1662  0.0099
96385W        W39323  11.855  31.741   0.320  0.1306  0.2116 -0.2908
96386W        W39324  11.208  31.487   2.356 -0.1754 -0.0758  0.2921
96387W        W39325  15.529  29.216  31.748 -0.0576  0.0011  0.0535
96388W        W39326  13.878  32.700  31.583 -0.4005 -0.2003  0.1315
96389W        W39327  13.556  30.358   1.800  0.2516 -0.1384  0.0254
96390W        W39328  14.323  29.836   2.225 -0.0859  0.1927 -0.2719
96391W        W39329  13.663  32.760   0.490 -0.0921  0.3686  0.1022
96392W        W39330  13.037  28.520   4.322 -0.0553  0.2019 -0.0616
96393W        W39331  11.586  28.939   3.744 -0.0665  0.3326 -0.0281
96394W        W39332  15.377  31.133   1.431  0.2609  0.0143  0.1722
96395W        W39333  12.278  30.560   2.344 -0.0330  0.0468 -0.3589
96396W        W39334  14.806  33.776   1.324 -0.3881  0.0826 -0.1400
96397W        W39335  13.184  30.838   2.987 -0.2029  0.0990 -0.2582
96398W        W39336  13.307  29.601   0.631  0.0678  0.3311 -0.0748
96399W        W39337  12.989  30.051  31.313  0.0356  0.0009  0.0086
96400W        W39338  13.639  30.722   2.272 -0.1851 -0.0216  0.4601
96401W        W39339  15.183  32.556   0.443 -0.1367  0.3848  0.2126
96402W        W39340  12.249  31.854  31.893  0.0436 -0.0324  0.1781
96403W        W39341  14.107  32.079   1.052 -0.1358 -0.0215 -0.0924
96404W        W39342  11.841  30.228   1.628 -0.3121  0.0565  0.0447
96405W        W39343  13.872  31.361   0.271  0.0763  0.1632 -0.0476
96406W        W39344  13.077  30.755  31.640  0.0665  0.0129 -0.0946
96407W        W39345  12.363  30.326   1.403 -0.1409  0.0776 -0.2550
96408W        W39346  12.782  30.161   3.456 -0.2890 -0.0653 -0.0757
96409W        W39347  14.421  30.297   1.765 -0.0587 -0.1682 -0.3811
96410W        W39348  14.463  30.896   0.964  0.2496  0.1739 -0.2430
96411W        W39349  13.414  29.592   1.169 -0.0371 -0.2398 -0.1681
96412W        W39350  14.539  29.402   2.240  0.2819  0.0145  0.2018
96413W        W39351  11.738  29.843   3.482 -0.4027  0.0988  0.1143
96414W        W39352  11.664  30.677   1.852 -0.1759 -0.0850  0.0095
96415W        W39353  13.748  32.128   2.503  0.1862 -0.1239  0.1703
96416W        W39354  14.556  31.024  31.329  0.3830 -0.1432  0.0309
96417W        W39355  14.013  29.745   3.061  0.2116 -0.0357 -0.0140
96418W        W39356  15.410  29.041   0.774  0.1154  0.1167 -0.3248
96419W        W39357  13.570  30.459   0.493 -0.0502 -0.0665  0.0060
96420W        W39358  11.311  29.360   1.640 -0.2589  0.1629 -0.1395
96421W        W39359  13.709  31.529   3.398 -0.0034 -0.1441 -0.1783
96422W        W39360  12.513  29.487   1.316 -0.1940  0.0258  0.0516
96423W        W39361  13.738  30.913   4.258  0.0159 -0.0342  0.0603
96424W        W39362  14.103  31.657  31.211  0.0574  0.0686  0.5537
96425W        W39363  12.878  32.615   1.097 -0.2506 -0.2100  0.1053
96426W        W39364  12.847  29.598   0.356 -0.4623 -0.0334  0.1058
96427W        W39365  11.509  29.957   2.239  0.2325 -0.2013 -0.1480
96428W        W39366  11.245  33.540   3.045 -0.0758 -0.2713  0.0808
96429W        W39367  12.228  29.273   1.759  0.1789  0.1414  0.0098
96430W        W39368  12.573  31.977   0.722 -0.0662 -0.0667 -0.1728
96431W        W39369  13.631  32.722   1.647 -0.0171  0.2150 -0.2581
96432W        W39370  13.896  30.296   1.428  0.0684 -0.0131 -0.2114
96433W        W39371  12.299  29.368   0.292 -0.2389  0.1781 -0.1347
96434W        W39372  15.522  29.439   2.702 -0.2766  0.0281  0.0806
96435W        W39373  11.362  30.936   1.482  0.2427  0.4462  0.1531
96436W        W39374  12.910  31.074   1.355 -0.0219  0.1017 -0.2093
96437W        W39375  11.575  33.268   1.248 -0.0392 -0.1969 -0.2154
96438W        W39376  11.998  31.587   3.422 -0.0698  0.1191 -0.1267
96439W        W39377  10.895  32.082   1.164  0.1462 -0.1668 -0.0814
96440W        W39378  13.825  30.964   2.885  0.0069 -0.0734 -0.0828
96441W        W39379  13.951  29.530   2.054 -0.2892  0.1497 -0.0797
96442W        W39380  13.938  30.909   1.894 -0.2301  0.1228 -0.1176
96443W        W39381  14.636  30.033   3.676 -0.2030 -0.0088  0.1594
96444W        W39382  13.620  32.271   1.959  0.1845 -0.1491  0.0148
96445W        W39383  12.503  31.702   2.570  0.3745  0.0063  0.2531
96446W        W39384  12.351  32.220   2.761  0.0410  0.0911  0.0846
96447W        W39385  14.039  31.970   1.910 -0.0855 -0.1598  0.2631
96448W        W39386  10.950  30.875   1.139 -0.1962 -0.0895 -0.0392
96449W        W39387  11.028  31.255   3.428  0.1352  0.2067  0.0217
96450W        W39388  12.137  29.709   3.797  0.1034  0.5048  0.0612
96451W        W39389  12.896  31.328   2.563  0.0441  0.3684  0.1452
96452W        W39390  13.079  29.933   1.051 -0.1930  0.0968 -0.2187
96453W        W39391  14.388  32.861  31.955  0.2197 -0.0533  0.0179
96454W        W39392  12.012  32.650   3.591 -0.1308 -0.0907  0.0157
96455W        W39393  11.332  30.305   1.884 -0.1518  0.1420  0.1113
96456W        W39394  12.469  32.442   0.842  0.0728 -0.1721  0.0090
96457W        W39395  13.160  31.637  31.136  0.2263  0.1207 -0.3172
96458W        W39396  13.564  31.860   0.072 -0.0479  0.1406  0.0877
96459W        W39397  13.822   0.405   2.107  0.3180  0.2327  0.0795
96460W        W39398  13.144  31.007   0.924  0.3180 -0.0655 -0.2125
96461W        W39399  11.590  31.463   1.313  0.4376 -0.0638  0.0490
96462W        W39400  11.297  31.714   0.129  0.2848  0.0650  0.1390
96463W        W39401  12.880  31.796  31.629  0.1483 -0.0630  0.0421
96464W        W39402  11.874  32.287   1.265  0.0441  0.0639 -0.1981
96465W        W39403  14.491  31.746   1.977 -0.2486 -0.1294  0.2241
96466W        W39404  13.860  29.963  30.755  0.1407  0.1665  0.0614
96467W        W39405  13.358  30.049   0.172 -0.0040 -0.1290  0.0231
96468W        W39406  15.579  30.058   0.928  0.2715  0.0288  0.1178
96469W        W39407  15.385  32.345   3.215  0.1033  0.0400 -0.1319
96470W        W39408  11.883  29.907   2.973  0.0400 -0.0459 -0.0057
96471W        W39409  12.304  29.380  29.636  0.0428 -0.1402 -0.0144
96472W        W39410  11.844  31.044   2.983  0.1254  0.0183 -0.0983
96473W        W39411  14.211  29.207   3.201 -0.0988 -0.3966  0.0206
96474W        W39412  11.300  31.214   3.875 -0.1589  0.1070  0.0502
96475W        W39413  13.769  32.534   0.035 -0.1684  0.1455 -0.3082
96476W        W39414  10.406  30.790   1.155  0.2539 -0.3120  0.1662
96477W        W39415  11.371  31.120   0.832 -0.0047  0.1080 -0.1256
96478W        W39416  13.606  29.355   2.364 -0.1656 -0.1783  0.1642
96479W        W39417  13.299  32.483   0.277 -0.2098  0.1358 -0.0443
96480W        W39418  13.292  31.218   1.610  0.0052  0.2373  0.0083
96481W        W39419  13.243  33.500   1.392  0.3195 -0.0235  0.1296
96482W        W39420  11.983  31.860   0.852 -0.3030 -0.1681 -0.0962
96483W        W39421  11.430  32.275   1.872 -0.0852  0.0767 -0.0715
96484W        W39422  11.754  28.871  30.686  0.0395  0.1370  0.1179
96485W        W39423  15.165  29.629   2.138 -0.0001 -0.3450  0.0932
96486W        W39424  12.316  30.766   2.918 -0.3331  0.1053 -0.0370
96487W        W39425  14.399  29.232   1.523 -0.2034 -0.1128  0.1710
96488W        W39426  12.633  30.452   2.051  0.1712  0.2693 -0.0169
96489W        W39427  14.061  30.280   0.334 -0.4257  0.0097 -0.0418
96490W        W39428  13.047  31.911   0.465  0.1105  0.0609 -0.0516
96491W        W39429  11.901  30.323   2.196 -0.0714  0.0886 -0.2576
96492W        W39430  12.843  30.123   0.201  0.0393  0.1477 -0.0088
96493W        W39431  15.244  29.755   1.580 -0.2171 -0.0938  0.0699
96494W        W39432  13.043  30.877  31.100 -0.0154  0.2874 -0.1285
96495W        W39433  13.320  32.698   3.104 -0.3516 -0.1190  0.1118
96496W        W39434  12.268  30.045   2.533  0.2159  0.1588 -0.0822
96497W        W39435  14.608  29.891   0.313  0.2561  0.0730  0.2450
96498W        W39436  11.861  30.748   2.541  0.2356  0.3717 -0.1306
96499W        W39437  12.767  31.244   1.774  0.2013 -0.3606  0.1939
96500W        W39438  15.482  32.213   4.124  0.0225  0.1884  0.0305
96501W        W39439  10.157  29.018   2.477 -0.0918 -0.2805  0.0847
96502W        W39440  14.666  31.915   0.073 -0.1752  0.0446 -0.0667
96503W        W39441  14.863  31.304   0.766  0.2729  0.2580 -0.1460
96504W        W39442  12.086  32.571  31.422  0.0093 -0.0049  0.0132
96505W        W39443  14.139  31.146   1.190 -0.0014 -0.2680 -0.0135
96506W        W39444  12.306  33.500   3.395  0.0448  0.2849  0.2560
96507W        W39445  11.475  29.396   2.285 -0.2293 -0.0421  0.1379
96508W        W39446  13.374  32.322   0.800  0.0876  0.0975  0.0978
96509W        W39447  14.007  31.500   1.973  0.3359  0.0337  0.0023
96510W        W39448  13.898  29.477   0.822 -0.3328 -0.0109 -0.1249
96511W        W39449  11.241  29.567   1.141  0.2012 -0.1032  0.1968
96512W        W39450  10.869  33.532   1.713  0.1159  0.1362 -0.0777
96513W        W39451  13.524  29.863   1.535 -0.1231 -0.1909  0.0949
96514W        W39452  12.760  30.229   2.580 -0.3130  0.0063 -0.0240
96515W        W39453  12.008  32.926  31.825  0.0576 -0.0067  0.0731
96516W        W39454  15.055  29.434   3.044 -0.0215 -0.1199 -0.1515
96517W        W39455  12.113  33.003   1.643 -0.1734  0.2816 -0.0205
96518W        W39456  12.592  32.598   5.272 -0.1416  0.0497  0.3065
96519W        W39457  11.159  31.592  30.652  0.0081  0.2320 -0.0447
96520W        W39458  12.213  31.115   3.346 -0.1095  0.0146  0.0669
96521W        W39459  11.752  30.441   0.185  0.0056  0.3537  0.1446
96522W        W39460  12.987  33.245   0.159  0.3417  0.2533 -0.1109
96523W        W39461  14.224  30.708   1.396 -0.0660 -0.0705 -0.0348
96524W        W39462  13.409  29.519   0.080  0.1987 -0.0137 -0.0645
96525W        W39463  15.340  31.419   0.686  0.3133 -0.0672 -0.0270
96526W        W39464  11.427  28.609   1.539  0.1645  0.0131 -0.0638
96527W        W39465  14.986  28.946   1.677 -0.1254  0.1123 -0.1471
96528W        W39466  14.402  29.062   0.010 -0.0121  0.1284  0.0383
96529W        W39467  12.194  30.565   1.838 -0.4398  0.1569 -0.1786
96530W        W39468  11.246  30.308   0.392  0.0266  0.0540  0.1054
96531W        W39469  11.965  32.457   0.761 -0.2350  0.1956 -0.0496
96532W        W39470  11.892  30.932   0.908 -0.2223 -0.0219  0.1111
96533W        W39471  12.660  29.571   1.839 -0.0659 -0.1506  0.0598
96534W        W39472  11.571  30.624   2.958  0.1106  0.0459 -0.0087
96535W        W39473  10.135  31.059   1.475 -0.0786 -0.0167 -0.2531
96536W        W39474  12.563  29.954   1.151  0.3126  0.1260  0.1601
96537W        W39475  16.173  30.878   1.514 -0.3285  0.1446 -0.2523
96538W        W39476  11.126  26.934   1.499 -0.0378  0.1362 -0.0636
96539W        W39477  10.950  29.253   2.197 -0.0616 -0.2940  0.2433
96540W        W39478  12.731  31.810   1.525  0.3290 -0.0952  0.1770
96541W        W39479  12.871  32.453   0.578  0.0646  0.2778  0.2420
96542W        W39480  12.970  30.289  31.752 -0.1563 -0.2611  0.0177
96543W        W39481  14.661  32.379   2.797  0.2689 -0.2465  0.0248
96544W        W39482  11.749  32.174  31.494  0.0444  0.0730 -0.0875
96545W        W39483  13.344  30.446   3.311  0.4358 -0.0918 -0.1072
96546W        W39484  13.352  29.143   2.760  0.0392  0.3073  0.0906
96547W        W39485  11.003  29.821   0.367 -0.0424 -0.2702 -0.1411
96548W        W39486  14.491  30.784   1.969  0.1098 -0.1364  0.3835
96549W        W39487  13.686  32.187   0.430  0.2908  0.2012 -0.0572
96550W        W39488  13.581  34.028  31.279  0.0753  0.1402  0.1159
96551W        W39489  12.498  33.081   1.997 -0.0421  0.0052 -0.2202
96552W        W39490  12.980  31.825   2.411 -0.0425 -0.0677  0.2298
96553W        W39491  11.892  28.657   2.837  0.2259  0.0331  0.0360
96554W        W39492  15.025  31.527  31.969 -0.0270  0.2917 -0.0294
96555W        W39493  12.352  30.646   0.970 -0.0841  0.0450 -0.2884
96556W        W39494  14.813  30.185  31.790  0.0677  0.3385  0.1185
96557W        W39495  13.037  29.184   1.919 -0.0730 -0.0482 -0.0871
96558W        W39496  12.149  29.461   0.812  0.1133  0.0102 -0.0676
96559W        W39497  10.932  29.583   3.059 -0.3061  0.2203 -0.0082
96560W        W39498  11.828  30.672   3.377 -0.1974  0.2311  0.2741
96561W        W39499  13.846  32.505   0.892 -0.1069 -0.1201  0.1997
96562W        W39500  11.100  28.500   0.763 -0.1134 -0.4271  0.1947
96563W        W39501  13.536  29.829  31.699  0.3260 -0.1530  0.2088
96564W        W39502  15.358  32.396  31.969  0.0482  0.0144 -0.1097
96565W        W39503  10.309  31.316  31.848 -0.0554 -0.1992 -0.1412
96566W        W39504  13.087  30.631   0.314 -0.2218  0.3496 -0.1048
96567W        W39505  12.939  30.744   3.414  0.0482 -0.0087 -0.3357
96568W        W39506  11.841  33.395  31.754  0.2170 -0.0314 -0.2171
96569W        W39507  12.776  32.019   2.939 -0.0915 -0.0049 -0.0541
96570W        W39508  12.773  30.665   0.708  0.0187 -0.3804 -0.0874
96571W        W39509  15.149  30.896   0.705 -0.0863  0.0372 -0.0527
96572W        W39510  12.916  32.461   3.077  0.0143  0.3234  0.0130
96573W        W39511  13.975  32.149   5.041 -0.1727 -0.4483 -0.3947
96574W        W39512  13.202  32.955   3.663 -0.2289 -0.0379  0.1790
96575W        W39513  13.959  29.968   1.848  0.3053  0.1491  0.2559
96576W        W39514  11.032  27.812   2.764  0.0573  0.1675  0.0932
96577W        W39515  11.787  31.409   0.747 -0.3457 -0.2941 -0.0118
96578W        W39516  11.063  31.401   1.187  0.1066 -0.0941 -0.0227
96579W        W39517  14.068  31.204   3.316  0.1402  0.5970  0.1503
96580W        W39518  12.257  29.239  31.793  0.1737  0.1161  0.1993
96581W        W39519  13.253  29.615  31.371 -0.1609 -0.0963 -0.1976
96582W        W39520  12.441  32.079   2.278 -0.1633 -0.0012  0.2885
96583W        W39521  13.476  31.406   1.206 -0.2550  0.0841  0.0567
96584W        W39522  14.062  31.495   6.799 -0.1123  0.0264 -0.0606
96585W        W39523  12.616  31.014   4.808 -0.2672  0.3588  0.1777
96586W        W39524  14.193  29.888   3.957 -0.0655 -0.0602 -0.1070
96587W        W39525  13.710  30.138   4.014 -0.3278  0.1492  0.3962
96588W        W39526  11.439  30.226   3.567 -0.0511 -0.0275 -0.2834
96589W        W39527  14.074  32.462   4.590 -0.1013  0.0448  0.3050
96590W        W39528  11.578  29.035   6.102 -0.1011  0.0497 -0.0856
96591W        W39529  13.875  31.344   5.470 -0.0379  0.0990 -0.1076
96592W        W39530  14.495  31.787   6.032 -0.3372 -0.2362 -0.1293
96593W        W39531  12.682  31.746   3.572 -0.3626 -0.1298 -0.1150
96594W        W39532  12.058  30.475   6.224  0.1105  0.1695 -0.1231
96595W        W39533  12.031  31.756   6.488 -0.4124  0.0628  0.0249
96596W        W39534  14.087  28.143   4.042 -0.0983 -0.0674 -0.0241
96597W        W39535  12.141  28.183   6.104  0.1490 -0.0176 -0.2322
96598W        W39536  14.446  30.496   5.016 -0.3266  0.1216  0.1537
96599W        W39537  11.295  30.797   3.560 -0.0143 -0.0081 -0.0248
96600W        W39538  13.291  29.786   4.935  0.3375 -0.0280 -0.0660
96601W        W39539  13.430  31.043   3.462 -0.1342 -0.1852  0.0754
96602W        W39540  13.604  32.186   4.700 -0.2930 -0.0322  0.2347
96603W        W39541  12.942  29.635   6.286  0.0542  0.0385  0.1130
96604W        W39542  13.592  28.885   5.960  0.2811 -0.0611  0.1287
96605W        W39543  12.653  31.961   4.047 -0.1111 -0.2489 -0.0299
96606W        W39544  11.174  30.430   3.186  0.4294 -0.0211 -0.3894
96607W        W39545  10.410  30.581   6.348  0.0578  0.0306 -0.1405
96608W        W39546  12.028  31.415   5.802  0.0240 -0.0270 -0.0647
96609W        W39547  13.521  29.143   6.449  0.1199  0.1096  0.3809
96610W        W39548  15.256  30.020   3.845 -0.0181 -0.0122  0.0077
96611W        W39549  12.517  32.717   5.955 -0.1087 -0.1744  0.0295
96612W        W39550  13.709  31.649   4.879  0.0560  0.2244  0.2991
96613W        W39551  15.225  30.535   4.150 -0.0294 -0.2558 -0.0572
96614W        W39552  11.204  31.564   6.376 -0.0379  0.1114 -0.0586
96615W        W39553  10.964  34.366   5.182  0.1000 -0.4370 -0.2252
96616W        W39554  12.138  32.151   5.280  0.1695 -0.0319 -0.1576
96617W        W39555  15.191  31.893   3.218 -0.0881  0.0680 -0.1928
96618W        W39556  14.896  31.264   4.817  0.1377 -0.2073  0.0050
96619W        W39557  11.877  33.829   7.588 -0.1820 -0.0162 -0.3205
96620W        W39558  12.310  31.831   3.087 -0.2031 -0.3762  0.2252
96621W        W39559  11.838  32.332   7.485 -0.3333 -0.3187  0.2037
96622W        W39560  11.996  32.134   6.939 -0.1887  0.1623  0.0853
96623W        W39561  13.055  30.812   5.035  0.2124 -0.2823 -0.0745
96624W        W39562  12.548  31.209   5.782  0.1169 -0.0911  0.1819
96625W        W39563  12.934  31.957   5.549 -0.0423 -0.0495  0.0193
96626W        W39564  14.450  31.012   4.626  0.1003 -0.3412  0.1215
96627W        W39565  12.845  33.002   7.433  0.2636 -0.0030  0.0376
96628W        W39566  11.604  31.696   5.993  0.1043  0.0349  0.0671
96629W        W39567  14.307  30.015   7.845 -0.0077 -0.2341 -0.2716
96630W        W39568  12.095  32.633   5.158  0.2044  0.0831 -0.0498
96631W        W39569  13.393  29.431   3.268 -0.0851  0.0667  0.1119
96632W        W39570  11.058  29.720   4.490  0.0205 -0.0446  0.0140
96633W        W39571  12.565  28.934   3.966 -0.0400  0.1088 -0.2047
96634W        W39572  11.785  28.498   5.805 -0.0729 -0.3551 -0.2002
96635W        W39573  12.391  32.069   6.653 -0.2521 -0.1641 -0.1563
96636W        W39574  11.918  30.423   6.960 -0.1898 -0.3739  0.0525
96637W        W39575  13.372  30.760   5.875 -0.0001 -0.0408  0.0779
96638W        W39576  14.057  31.431   4.338  0.1965  0.1387  0.0723
96639W        W39577  13.180  30.082   5.432  0.0565 -0.0797  0.0325
96640W        W39578  11.947  32.845   6.472  0.1016 -0.0858  0.0785
96641W        W39579  11.163  28.729   4.322 -0.2188 -0.0734  0.1572
96642W        W39580  15.349  32.387   5.515 -0.2953 -0.0894  0.1348
96643W        W39581  16.515  31.823   3.274  0.0247 -0.0476  0.3095
96644W        W39582  13.241  32.716   4.127 -0.0366  0.5331 -0.3037
96645W        W39583  10.504  30.486   3.906  0.0487 -0.0505 -0.1386
96646W        W39584  10.096  32.322   7.102  0.0226 -0.0240 -0.0535
96647W        W39585  10.420  32.136   6.802 -0.0119 -0.1325  0.5242
96648W        W39586  12.442  30.125   3.043 -0.2427 -0.2483 -0.2660
96649W        W39587  15.905  32.686   6.111 -0.0844 -0.1057 -0.0415
96650W        W39588  10.430  32.175   7.940 -0.2916  0.0673  0.0564
96651W        W39589  13.909  28.416   3.248 -0.1408  0.0601 -0.3813
96652W        W39590  12.458  31.857   4.964  0.1312  0.2446 -0.1793
96653W        W39591  15.978  31.735   4.434 -0.0103 -0.1708  0.2674
96654W        W39592  13.746  30.669   4.926  0.1690  0.2193  0.1468
96655W        W39593  14.455  28.434   4.501  0.0124 -0.1879  0.0982
96656W        W39594  15.313  29.242   7.024 -0.3403  0.0128  0.1969
96657W        W39595  12.990  30.915   2.188 -0.1542  0.1157 -0.3741
96658W        W39596  12.182  30.942   3.962 -0.0582 -0.2870 -0.0428
96659W        W39597  15.184  32.843   6.870 -0.1306  0.2341  0.1420
96660W        W39598  14.782  30.684   1.556 -0.0140  0.2046  0.0222
96661W        W39599  11.453  32.727   6.134  0.1513  0.2353 -0.1025
96662W        W39600  13.878  29.470   6.455 -0.2808 -0.0921  0.0392
96663W        W39601  12.638  30.847   7.379  0.1018 -0.1387 -0.0698
96664W        W39602  11.226  32.722   4.391 -0.4211  0.2243 -0.1171
96665W        W39603   9.764  31.309   5.420 -0.1140 -0.0081  0.0155
96666W        W39604  12.287  32.281   4.762 -0.1770  0.2411 -0.4022
96667W        W39605  12.670  28.797   6.288  0.1215 -0.1139  0.1168
96668W        W39606  14.177  30.394   6.446  0.0743  0.1811 -0.0227
96669W        W39607  13.825  29.327   3.501  0.1469  0.0904 -0.0356
96670W        W39608  11.246  29.409   6.197 -0.1930  0.3514  0.1082
96671W        W39609  13.654  28.707   4.489 -0.1590 -0.0978 -0.0431
96672W        W39610  10.975  31.472   4.471  0.0089 -0.2973  0.0295
96673W        W39611  14.565  31.588   4.675  0.1285  0.1943 -0.4697
96674W        W39612  15.310  30.199   4.525  0.2612 -0.0244  0.0889
96675W        W39613  13.455  31.290   3.911 -0.0549 -0.4136 -0.0390
96676W        W39614  12.416  30.178   5.746 -0.1206  0.3320 -0.0053
96677W        W39615  12.470  30.540   3.370  0.3262 -0.1190  0.0470
96678W        W39616  11.595  30.622   7.797 -0.0831  0.2359  0.1340
96679W        W39617  12.842  30.127   5.017 -0.1300  0.2655  0.3483
96680W        W39618  13.843  30.207   7.312 -0.0406  0.3929 -0.0669
96681W        W39619  11.624  26.899   3.693  0.0246  0.0153  0.2224
96682W        W39620  14.902  29.743   4.992 -0.3203 -0.0013  0.1676
96683W        W39621  12.179  31.023   5.024  0.2211 -0.0532 -0.1847
96684W        W39622  11.515  30.347   4.338  0.1365 -0.2122  0.0199
96685W        W39623  15.945  29.290   7.402  0.0111  0.0063  0.1493
96686W        W39624  13.561  32.569   3.573 -0.0741  0.0414  0.0632
96687W        W39625  12.619  33.318   7.102 -0.0655 -0.1204  0.2432
96688W        W39626  12.875  31.244   4.435 -0.0739 -0.0695 -0.0458
96689W        W39627  13.101  29.213   6.072 -0.0154  0.1823  0.2381
96690W        W39628  13.008  29.945   4.538 -0.0579  0.1303  0.1936
96691W        W39629  11.109  31.834   5.943  0.2382  0.1231  0.0341
96692W        W39630  12.941  31.322   5.462  0.0590  0.2674 -0.0291
96693W        W39631  12.565  28.542   4.384  0.0773 -0.1166 -0.2120
96694W        W39632  15.815  32.483   5.623  0.3341 -0.2492  0.2796
96695W        W39633  12.876  30.540   4.642 -0.1819 -0.0066  0.1077
96696W        W39634  12.282  30.068   8.001 -0.2088  0.1004 -0.0009
96697W        W39635  15.800  28.774   7.914  0.0915  0.2064 -0.2886
96698W        W39636  15.116  31.767   6.798 -0.1613  0.2451 -0.2007
96699W        W39637  14.389  30.222   3.258  0.0358 -0.0622 -0.2907
96700W        W39638  12.053  29.371   5.143  0.1235 -0.0631 -0.1017
96701W        W39639  14.573  31.399   4.209  0.0163  0.1782  0.2681
96702W        W39640  10.402  31.328   4.334  0.2362 -0.3024  0.1687
96703W        W39641  10.212  31.162   6.567  0.0924  0.1274 -0.1614
96704W        W39642  13.063  32.919   5.140  0.2119 -0.1972 -0.1709
96705W        W39643  14.054  28.980   6.365 -0.4516 -0.1892 -0.2160
96706W        W39644  10.188  31.816   7.107 -0.0289 -0.1197  0.0597
96707W        W39645  13.290  30.340   4.835 -0.1155  0.0841 -0.3595
96708W        W39646  12.065  30.222   3.355 -0.1863  0.0882 -0.0195
96709W        W39647  11.356  32.956   6.563  0.1884 -0.0886 -0.0745
96710W        W39648  13.234  28.940   4.688 -0.1235 -0.0120 -0.3661
96711W        W39649  13.186  29.841   4.029  0.1168 -0.2726 -0.1663
96712W        W39650  12.721  31.650   7.713 -0.0626 -0.0993  0.4781
96713W        W39651  13.072  30.330   3.810  0.1016 -0.1581 -0.4008
96714W        W39652  13.810  30.176   3.297  0.0756 -0.0810 -0.1272
96715W        W39653  12.959  29.184   3.129  0.1422  0.0196 -0.0843
96716W        W39654  11.992  31.672   9.173  0.4812  0.3332 -0.0837
96717W        W39655  10.735  31.745   6.880  0.1677 -0.4368 -0.3409
96718W        W39656  13.376  30.565   5.284 -0.0364  0.0784 -0.0636
96719W        W39657  12.687  29.900   5.472  0.0345 -0.2829 -0.2159
96720W        W39658  15.475  33.152   3.926 -0.0278 -0.1094 -0.0273
96721W        W39659  11.181  32.172   6.364  0.1596 -0.1427 -0.2285
96722W        W39660  13.782  31.131   7.821  0.0906 -0.1392  0.1409
96723W        W39661  13.089  31.288   4.942  0.0636  0.0988  0.1605
96724W        W39662  13.280  28.713   5.382 -0.2326  0.0209  0.3663
96725W        W39663  11.801  30.689   4.639  0.1990 -0.2190 -0.2309
96726W        W39664  12.545  30.888   5.342 -0.2171 -0.0453 -0.3527
96727W        W39665  10.914  32.057   2.013 -0.2112 -0.1060  0.2178
96728W        W39666  15.218  30.194   6.547  0.0196  0.0182  0.0149
96729W        W39667  13.726  29.843   5.703  0.0286 -0.1448  0.0254
96730W        W39668  13.489  29.577   6.162 -0.1303 -0.0026  0.0405
96731W        W39669  15.234  31.402   7.083  0.0274 -0.1592 -0.2217
96732W        W39670  12.637  30.849   4.283  0.1935 -0.0917  0.3710
96733W        W39671  13.104  31.327   5.922  0.3256 -0.1462 -0.4331
96734W        W39672  12.700  29.478   4.651 -0.0590 -0.1729  0.1611
96735W        W39673  12.969  28.265   6.497 -0.3134 -0.2380  0.0728
96736W        W39674  12.586  30.361   6.187 -0.0326  0.3748  0.1160
96737W        W39675  10.935  33.266   6.752 -0.1578  0.1147  0.0095
96738W        W39676  13.445  31.652   5.773 -0.0637  0.0653  0.2876
96739W        W39677  14.125  31.869   4.690 -0.3988 -0.0309  0.0935
96740W        W39678  13.394  29.646   8.044 -0.1862 -0.4153  0.0409
96741W        W39679  12.555  30.643   3.808 -0.1112  0.1127  0.0474
96742W        W39680  12.871  32.835   5.601 -0.1158 -0.1773  0.0922
96743W        W39681  11.569  30.901   5.054  0.1515  0.4269 -0.0630
96744W        W39682  13.097  29.209   5.536  0.1149  0.0937  0.1136
96745W        W39683  12.161  31.000   6.072  0.0042 -0.3237 -0.0494
96746W        W39684  13.237  31.742   3.564 -0.2215  0.1906 -0.1060
96747W        W39685  13.352  30.163   7.106 -0.3760 -0.1912  0.0454
96748W        W39686  11.536  31.452   3.207 -0.0086  0.3508  0.1463
96749W        W39687  15.258  28.203   6.108  0.0381  0.2590  0.1356
96750W        W39688  10.410  33.019   5.318  0.2558 -0.1168 -0.0041
96751W        W39689  12.882  29.438   4.111 -0.1876 -0.0008 -0.4998
96752W        W39690  11.032  30.448   3.867 -0.1327  0.0048 -0.0727
96753W        W39691  14.703  29.254   5.013  0.1402 -0.0234  0.0462
96754W        W39692  14.032  31.479   2.853 -0.2653  0.0068 -0.1849
96755W        W39693  11.379  29.747   5.737 -0.2972 -0.0213  0.2436
96756W        W39694  12.380  29.781   6.097 -0.0872  0.2650  0.1403
96757W        W39695  11.144  32.549   6.702  0.0111  0.1862 -0.1581
96758W        W39696  13.374  30.080   5.904 -0.2693 -0.2286 -0.1699
96759W        W39697  14.003  29.370   5.441  0.0695 -0.0131 -0.1621
96760W        W39698  13.972  31.122   4.718  0.4739  0.1072  0.3760
96761W        W39699  11.970  31.894   7.362  0.0247 -0.0637  0.5763
96762W        W39700  12.366  29.315   4.225 -0.4821 -0.1412  0.2894
96763W        W39701  14.774  29.777   6.446  0.1530 -0.1667  0.0726
96764W        W39702  12.672  30.737   5.901 -0.0125  0.0575  0.0029
96765W        W39703  11.751  32.111   6.229  0.0352  0.2278 -0.3011
96766W        W39704  13.983  30.813   6.073  0.1714 -0.4659 -0.0911
96767W        W39705  11.672  31.931   4.334 -0.1798  0.0276 -0.2779
96768W        W39706  12.105  31.646   6.954 -0.1046  0.3011 -0.0624
96769W        W39707  13.806  30.168   6.814 -0.0424  0.1698  0.1827
96770W        W39708  15.141  31.296   5.488 -0.2597 -0.0700  0.0422
96771W        W39709  12.213  30.630   5.741  0.0839  0.3073 -0.1807
96772W        W39710  11.969  29.972   5.931 -0.0045 -0.2680  0.0219
96773W        W39711  12.027  30.872   6.532 -0.1363  0.0154  0.1207
96774W        W39712  15.197  31.209   6.177  0.2099 -0.0284  0.0787
96775W        W39713  14.283  29.839   6.468  0.1136  0.3521  0.0957
96776W        W39714  11.773  32.949   7.458 -0.0710  0.2676  0.0462
96777W        W39715  11.681  28.291   4.762 -0.0031 -0.0906 -0.0518
96778W        W39716  14.592  32.357   5.090 -0.0908 -0.1372 -0.0356
96779W        W39717  11.441  31.667   4.795  0.0027 -0.1762  0.0309
96780W        W39718  10.684  30.940   6.750 -0.0989 -0.0829  0.0144
96781W        W39719  11.262  30.787   4.142  0.1987 -0.3712  0.4403
96782W        W39720  13.023  30.421   5.834  0.0171 -0.0726 -0.1158
96783W        W39721  12.305  31.955   6.070  0.0105 -0.3020  0.3481
96784W        W39722  11.804  31.502   3.860  0.1528 -0.0190 -0.0266
96785W        W39723  10.677  32.447   6.489 -0.0351  0.1731  0.1193
96786W        W39724  15.284  28.831   4.431 -0.1464  0.1351  0.0350
96787W        W39725  13.837  32.964   3.479  0.0028  0.0960  0.0533
96788W        W39726  11.584  29.101   4.297  0.0742  0.2421 -0.0053
96789W        W39727  16.155  29.196   7.826 -0.1746 -0.0444 -0.0893
96790W        W39728  12.651  30.810   2.562 -0.2330 -0.1369 -0.1744
96791W        W39729  13.925  29.107   6.886 -0.1788  0.2729 -0.0938
96792W        W39730  11.435  28.535   6.655  0.0546  0.1506  0.0362
96793W        W39731  13.477  31.266   3.027 -0.0127  0.0477 -0.2439
96794W        W39732  11.891  29.876   6.855 -0.1416  0.1635  0.4614
96795W        W39733  13.070  32.132   7.337 -0.0148 -0.0174  0.2586
96796W        W39734  11.470  31.827   7.204 -0.0045 -0.0692 -0.0793
96797W        W39735  13.283  29.413   4.594  0.0644 -0.0608 -0.0838
96798W        W39736  11.578  29.407   3.783 -0.0189 -0.1566  0.0639
96799W        W39737  11.571  31.212   5.764  0.0536 -0.0011  0.0441
96800W        W39738  13.468  31.354   4.490  0.1364  0.2864 -0.3487
96801W        W39739  12.401  31.439   4.663 -0.0715  0.1565 -0.1573
96802W        W39740  14.583  29.960   4.350 -0.2261 -0.0743 -0.0684
96803W        W39741  11.670  30.296   6.549 -0.1943 -0.0254 -0.0951
96804W        W39742  14.690  29.455   4.580 -0.0926  0.1801  0.0381
96805W        W39743  12.769  30.577   2.970  0.0120 -0.1308 -0.2673
96806W        W39744  11.647  31.385   5.162  0.1349  0.0183  0.1838
96807W        W39745  13.363  29.997   6.381 -0.1842  0.2118 -0.0242
96808W        W39746  14.199  30.912   5.113  0.2113  0.1324 -0.1438
96809W        W39747  14.043  29.914   5.247 -0.0079 -0.0243  0.1424
96810W        W39748  15.515  29.595   7.323  0.0500  0.1936  0.0001
96811W        W39749  13.671  30.300   5.572  0.0299  0.0455 -0.0129
96812W        W39750  13.034  30.851   5.572 -0.0346 -0.1215  0.1298
96813W        W39751  13.221  28.685   7.424 -0.1713 -0.3109 -0.0602
96814W        W39752  12.453  31.336   6.703 -0.0349 -0.0597 -0.0111
96815W        W39753  14.810  29.218   2.653  0.1874 -0.0636 -0.1384
96816W        W39754  13.800  30.839   5.497  0.0323  0.0552 -0.0619
96817W        W39755  15.187  30.705   4.687  0.0167  0.0022 -0.0021
96818W        W39756  12.628  31.134   3.670  0.0295  0.1690 -0.0897
96819W        W39757  11.968  30.543   5.208 -0.0545 -0.0437 -0.0534
96820W        W39758  14.294  30.519   7.914 -0.2135  0.0849 -0.0051
96821W        W39759  12.480  29.692   5.088 -0.3333  0.1735 -0.2197
96822W        W39760  14.756  30.959   5.845 -0.0114 -0.5857 -0.0535
96823W        W39761  12.897  33.351   4.799  0.0979 -0.1102 -0.1240
96824W        W39762  12.596  32.278   6.263  0.1750  0.1143 -0.1986
96825W        W39763  14.217  29.396   4.979 -0.1539  0.1809  0.1635
96826W        W39764  10.457  30.590   5.795 -0.1310  0.1978 -0.2565
96827W        W39765  10.770  32.341   7.116  0.1383 -0.0196 -0.1261
96828W        W39766  10.636  30.531   4.383  0.1464  0.1107  0.2306
96829W        W39767  13.222  32.109   3.254 -0.0581  0.0141  0.0902
96830W        W39768  13.989  29.926   4.449 -0.0458  0.0769 -0.1134
96831W        W39769  13.539  31.479   6.840 -0.0791 -0.0754  0.1342
96832W        W39770  12.780  30.239   4.213  0.1132  0.3212  0.0308
96833W        W39771  14.752  31.162   8.036 -0.2269  0.2256  0.2782
96834W        W39772  10.668  33.157   3.866  0.1615  0.0596 -0.1078
96835W        W39773  14.249  28.132   5.974  0.0078 -0.0520  0.0934
96836W        W39774  12.177  32.050   8.444  0.1580 -0.1172  0.1690
96837W        W39775  11.057  31.422   5.003 -0.2895  0.2266  0.2880
96838W        W39776  11.960  32.834   5.972  0.1266  0.0986  0.2587
96839W        W39777  13.197  28.706   6.407  0.1401 -0.2861  0.2623
96840W        W39778  14.301  30.719   5.600 -0.1677 -0.3592 -0.1906
96841W        W39779  11.649  30.328   5.957 -0.4039 -0.1864 -0.1371
96842W        W39780  13.785  31.634   6.210 -0.0006  0.1546  0.4811
96843W        W39781  14.312  31.688   5.590  0.1145  0.1069  0.0704
96844W        W39782  11.551  30.800   7.102  0.0671 -0.1131 -0.0754
96845W        W39783  12.546  30.797   6.418  0.0833  0.2558 -0.2915
96846W        W39784  14.057  30.433   5.264 -0.0784  0.3356  0.0627
96847W        W39785  12.485  31.682   5.628  0.0109  0.1513 -0.0698
96848W        W39786  10.981  29.871   6.114  0.0592  0.1853 -0.1214
96849W        W39787  13.430  29.252   7.029  0.3419  0.2526 -0.0102
96850W        W39788  14.141  30.601   4.609  0.2789  0.0997  0.2615
96851W        W39789  13.486  28.313   4.177 -0.2099  0.1016  0.0588
96852W        W39790  12.752  33.253   3.771  0.1566  0.0341  0.0946
96853W        W39791   9.723  32.367   9.375  0.0732 -0.2949  0.1120
96854W        W39792  11.130  31.500   7.491 -0.2085  0.1150  0.1050
96855W        W39793  10.064  32.604   3.661 -0.0566  0.4553 -0.0137
96856W        W39794  15.605  31.847   4.824 -0.2108  0.1423 -0.1535
96857W        W39795  12.940  30.515   1.672  0.2558 -0.4230 -0.0497
96858W        W39796  14.119  31.466   5.065  0.1849  0.2412 -0.1354
96859W        W39797  12.278  30.568   4.775 -0.2489  0.1718 -0.0281
96860W        W39798  12.901  31.053   6.684 -0.1540 -0.2281  0.0133
96861W        W39799  12.659  32.361   4.464  0.1661  0.0152  0.0278
96862W        W39800  14.151  32.564   3.478  0.0114 -0.2762 -0.1737
96863W        W39801  11.199  31.827   5.469  0.0686  0.1985  0.0421
96864W        W39802  14.267  31.244   5.858  0.2774  0.4714 -0.0675
96865W        W39803  13.353  28.840   3.171  0.0726  0.2138  0.0486
96866W        W39804  15.638  30.586   4.593 -0.0968 -0.1827 -0.2505
96867W        W39805  13.503  29.873   4.515  0.3254  0.1138 -0.0598
96868W        W39806  13.149  32.483   5.460 -0.1815  0.1788  0.2269
96869W        W39807  11.574  30.706   6.294  0.3553 -0.0355 -0.4001
96870W        W39808  12.059  29.151   3.696 -0.2758  0.0391  0.0437
96871W        W39809  12.384  30.386   6.766  0.4449  0.0122 -0.0824
96872W        W39810  14.105  28.578   6.057 -0.0660  0.3649 -0.0438
96873W        W39811  11.373  33.196   7.471  0.0901  0.3138  0.0387
96874W        W39812  13.406  33.470   4.917  0.0465 -0.0813  0.0863
96875W        W39813  12.240  28.241   4.892  0.1115  0.1146  0.2812
96876W        W39814  11.162  31.089   6.092 -0.0225  0.4385 -0.0380
96877W        W39815  15.280  28.067   6.585  0.0709 -0.1482 -0.0082
96878W        W39816  13.402  31.604   2.582  0.4212 -0.2295 -0.0766
96879W        W39817  11.708  29.271   5.639 -0.0891 -0.0715 -0.2781
96880W        W39818  12.070  32.967   4.187  0.0671  0.0293 -0.0703
96881W        W39819  11.572  32.267   6.676  0.1780 -0.4171 -0.0859
96882W        W39820  12.831  31.734   6.551  0.1237  0.1108 -0.1480
96883W        W39821  11.328  29.407   3.281  0.0748  0.0051  0.0285
96884W        W39822  14.229  29.795   5.786  0.1431  0.0442 -0.0846
96885W        W39823  13.295  31.265   6.359 -0.2444  0.0606 -0.2186
96886W        W39824  15.981  30.099   6.772 -0.2072 -0.0718 -0.0547
96887W        W39825  11.140  31.310   5.540  0.1028  0.0132 -0.0259
96888W        W39826  13.939  29.401   5.967 -0.3613 -0.2693 -0.2137
96889W        W39827  13.749  30.651   6.573  0.2512 -0.0824 -0.1918
96890W        W39828  10.885  29.969   6.595  0.2231  0.0312 -0.1247
96891W        W39829  12.485  31.429   4.097 -0.0164 -0.0510 -0.2336
96892W        W39830  15.614  31.518   5.999  0.1133 -0.2344  0.2512
96893W        W39831  13.105  31.673   1.849 -0.2389  0.0814 -0.1306
96894W        W39832  13.060  32.163   6.450 -0.0035 -0.0435 -0.1008
96895W        W39833  11.358  28.756   5.566 -0.0495 -0.3910  0.2303
96896W        W39834  12.108  29.179   4.616 -0.1326 -0.2171 -0.0879
96897W        W39835  12.036  31.608   5.328  0.0119  0.2632  0.1782
96898W        W39836  12.702  29.523   5.831  0.1206 -0.1754 -0.5104
96899W        W39837  13.363  32.679   6.378 -0.1594 -0.0249  0.1674
96900W        W39838  12.477  29.350   5.421  0.0490 -0.1476  0.0725
96901W        W39839  13.853  31.218   2.335  0.1164  0.0126 -0.1235
96902W        W39840  15.172  31.696   5.880 -0.2731  0.4486  0.5275
96903W        W39841  11.388  33.203   5.286  0.1201  0.0362  0.0043
96904W        W39842  14.295  29.500   4.263 -0.1275 -0.0661 -0.2117
96905W        W39843  15.067  32.208   5.075  0.1654 -0.3603  0.1396
96906W        W39844  11.484  29.947   6.222  0.0848 -0.1804  0.1158
96907W        W39845  13.390  31.147   5.552 -0.0581 -0.2740 -0.1710
96908W        W39846  15.092  31.352   4.119  0.2297 -0.0949 -0.1040
96909W        W39847  12.548  29.318   3.654 -0.2833  0.0959 -0.1581
96910W        W39848  11.165  30.241   5.841 -0.3938  0.2173 -0.4095
96911W        W39849  10.907  32.823   5.276 -0.1421  0.2054 -0.1155
96912W        W39850  14.092  30.186   4.823 -0.3829 -0.2528 -0.3473
96913W        W39851  14.541  29.639   5.312  0.0880 -0.0172 -0.0522
96914W        W39852  12.785  32.268   4.927 -0.0874  0.6557  0.1393
96915W        W39853  15.687  29.677   6.822  0.1247 -0.1021  0.1151
96916W        W39854  13.094  30.831   6.296 -0.3787  0.0503  0.2647
96917W        W39855  12.679  31.767   7.017  0.2677  0.1479 -0.2809
96918W        W39856  11.524  32.619   3.619  0.1078 -0.1265  0.2201
96919W        W39857  12.764  30.390   5.410 -0.4098  0.0008 -0.2201
96920W        W39858  12.631  32.718   4.779 -0.1132  0.2928 -0.0924
96921W        W39859  13.228  31.784   4.802 -0.0053 -0.0326 -0.1103
96922W        W39860  13.388  31.563   5.250  0.0545 -0.0351  0.0883
96923W        W39861  13.578  31.095   5.122  0.1042  0.3886  0.2986
96924W        W39862  14.260  30.951   4.182 -0.1440 -0.0528  0.0242
96925W        W39863  13.180  29.000   4.084 -0.0010 -0.2461 -0.2014
96926W        W39864  14.102  28.687   4.158 -0.2817 -0.1443 -0.3712
96927W        W39865  14.081  28.633   4.795 -0.0726  0.1415  0.0057
96928W        W39866  12.366  31.490   6.205 -0.2822  0.1155  0.1005
96929W        W39867  10.457  31.049   5.273 -0.3322 -0.1939 -0.0766
96930W        W39868  12.239  31.922   4.343 -0.0943 -0.2358 -0.3041
96931W        W39869  12.510  31.361   5.181 -0.0092  0.0657  0.3772
96932W        W39870  12.949  29.007   7.184  0.1386 -0.1999 -0.0650
96933W        W39871  11.859  31.308   6.324 -0.0189  0.0173 -0.0434
96934W        W39872  11.157  32.000   6.821 -0.5255  0.1798 -0.0191
96935W        W39873  11.687  28.179   3.847 -0.0192 -0.2716  0.2866
96936W        W39874  14.310  32.360   4.115 -0.1337  0.1828 -0.0449
96937W        W39875  13.208  29.638   5.729  0.2171 -0.2432  0.2281
96938W        W39876  11.695  30.099   5.462 -0.0769  0.1517 -0.1043
96939W        W39877  14.891  32.255   4.202 -0.4103  0.0404 -0.0829
96940W        W39878  15.223  32.169   4.572  0.2900  0.5016 -0.0920
96941W        W39879  12.764  28.624   6.814  0.1195  0.1619  0.3932
96942W        W39880  14.689  32.083   5.566  0.0825 -0.2779 -0.2341
96943W        W39881  12.016  31.432   4.299  0.1186  0.1008  0.0956
96944W        W39882  13.670  28.602   6.357  0.0883  0.3863  0.0217
96945W        W39883  12.673  29.552   6.733  0.1246  0.0206  0.0065
96946W        W39884  11.318  29.512   4.169 -0.1820 -0.5227 -0.2092
96947W        W39885  13.259  30.379   4.276  0.3249 -0.1210 -0.4529
96948W        W39886  12.803  31.748   4.489  0.0050 -0.2522  0.2254
96949W        W39887  13.733  32.074   3.476  0.1210 -0.1420 -0.0019
96950W        W39888  14.634  30.241   6.654  0.2533 -0.2112 -0.1600
96951W        W39889  13.057  31.444   6.890 -0.0527  0.2392 -0.2490
96952W        W39890  11.960  28.584   6.495 -0.1980 -0.3319  0.0386
96953W        W39891  14.164  30.288   3.705 -0.1168  0.0449 -0.1597
96954W        W39892  11.594  31.371   7.168  0.1215  0.2471 -0.0640
96955W        W39893  13.621  32.622   4.438 -0.1679 -0.0752  0.0065
96956W        W39894  14.278  30.179   6.918  0.0045 -0.1430 -0.1127
96957W        W39895  12.947  31.554   4.011 -0.2174 -0.0772 -0.0126
96958W        W39896  11.648  29.346   8.055 -0.0643 -0.1437 -0.0044
96959W        W39897  11.491  32.324   5.806 -0.1840  0.1627  0.1485
96960W        W39898  13.889  32.018   5.911  0.0319 -0.0739  0.2590
96961W        W39899  11.624  28.574   4.128 -0.0209 -0.3088  0.3416
96962W        W39900  14.227  29.705   3.516  0.1152  0.2598 -0.1968
96963W        W39901  13.070  30.857   3.901  0.3148  0.1307 -0.0030
96964W        W39902  12.140  29.772   5.502 -0.0868 -0.1762 -0.0377
96965W        W39903  11.974  31.077   5.472  0.0869 -0.1329  0.0975
96966W        W39904  13.382  30.978   6.815 -0.0832  0.1432 -0.0367
96967W        W39905  13.030  31.299   3.371  0.1586  0.1515  0.0778
96968W        W39906  14.689  29.971   7.304 -0.2479  0.0776  0.1468
96969W        W39907  11.745  31.140   3.495  0.0649 -0.0651  0.3351
96970W        W39908  14.517  31.489   2.631 -0.1313  0.3708  0.1286
96971W        W39909  13.494  32.103   5.172  0.3125  0.1719  0.0595
96972W        W39910  13.744  31.181   6.481 -0.0358 -0.0274 -0.1938
96973W        W39911  13.571  30.415   6.194  0.2929  0.1738 -0.2138
96974W        W39912  13.737  32.453   5.540 -0.1518  0.0015  0.0124
96975W        W39913  11.407  29.068   6.610 -0.3032 -0.0911  0.4801
96976W        W39914  12.203  30.983   4.502  0.0898  0.1143 -0.0853
96977W        W39915  13.591  33.142   5.208  0.0545  0.1936 -0.1946
96978W        W39916  14.137  30.251   5.971 -0.0675 -0.3645  0.0779
96979W        W39917  12.252  30.469   4.278  0.0163  0.0126  0.3941
96980W        W39918  13.401  29.196   5.065 -0.1412  0.1575  0.1123
96981W        W39919  12.439  33.214   7.647 -0.1275 -0.1770  0.1674
96982W        W39920  14.809  30.797   5.007  0.2507  0.1259 -0.1989
96983W        W39921  10.308  30.574  10.454  0.0517  0.0362 -0.0780
96984W        W39922  11.951  30.774   8.153 -0.3074  0.2595 -0.1981
96985W        W39923  14.482  29.733   6.908 -0.0881 -0.1664  0.2238
96986W        W39924  15.129  30.301   8.590  0.3141  0.3320 -0.0101
96987W        W39925  11.366  30.705   9.202 -0.2264  0.1429 -0.2535
96988W        W39926  14.231  31.770   7.188 -0.2361  0.0157  0.0253
96989W        W39927  13.490  31.836   8.282  0.1197  0.0342  0.2072
96990W        W39928  13.639  32.292   8.394 -0.0277 -0.2042 -0.1390
96991W        W39929  13.737  31.909   6.671 -0.2082  0.1700 -0.3290
96992W        W39930  12.930  30.856   8.432 -0.1709  0.2435  0.5751
96993W        W39931  11.931  29.818   7.795 -0.0822 -0.1399  0.0310
96994W        W39932  10.679  30.230  10.281  0.2885  0.4104  0.0585
96995W        W39933  13.449  29.981   7.658 -0.2741 -0.1830 -0.3074
96996W        W39934  11.918  31.652   8.712 -0.0936 -0.2862 -0.0051
96997W        W39935  11.553  30.252   9.047  0.0580  0.2445 -0.0344
96998W        W39936  13.415  31.230   7.238 -0.0209 -0.2487 -0.0972
96999W        W39937  12.466  32.798   8.484 -0.1176 -0.2328 -0.0144
97000W        W39938  12.724  31.686   9.496 -0.3296  0.1917 -0.0065
97001W        W39939  12.836  33.018   8.743  0.2124 -0.4583 -0.0328
97002W        W39940  11.158  30.857   6.561 -0.1658 -0.0238 -0.0460
97003W        W39941  12.188  30.057   9.612 -0.1770 -0.1639  0.1653
97004W        W39942  12.174  31.032   9.119  0.1010 -0.0281  0.2689
97005W        W39943  13.598  28.731   8.139 -0.1542 -0.0326 -0.3697
97006W        W39944  15.098  30.644   9.927 -0.5033 -0.0178 -0.1435
97007W        W39945  12.344  32.073   9.388 -0.0837  0.0594  0.1270
97008W        W39946  12.024  34.208   9.627  0.1348 -0.2084  0.2288
97009W        W39947   9.744  31.418  10.395 -0.0815  0.0487 -0.0384
97010W        W39948  12.462  34.275   9.294  0.0898  0.1541  0.1484
97011W        W39949  12.303  33.829   9.049  0.4656  0.0941 -0.2137
97012W        W39950  14.742  31.978   7.145  0.0594 -0.2547 -0.0040
97013W        W39951   9.258  32.037  10.114  0.0334 -0.0963  0.1355
97014W        W39952  12.556  29.345   8.910  0.2632  0.0622  0.1317
97015W        W39953  12.947  30.943   9.664  0.0441 -0.1447 -0.0541
97016W        W39954  12.201  31.663   7.830  0.3570 -0.1017  0.1905
97017W        W39955  12.860  31.616   9.008 -0.1429 -0.2254  0.2436
97018W        W39956  10.378  33.703   9.777  0.0274 -0.1080 -0.2945
97019W        W39957  12.084  30.755   9.944 -0.1923  0.1537  0.1997
97020W        W39958  14.014  31.785   8.431 -0.1016 -0.0342 -0.0981
97021W        W39959  13.057  30.325   6.330  0.0360  0.3684  0.3720
97022W        W39960  13.046  30.840   7.150  0.0499  0.0115 -0.0855
97023W        W39961  12.836  30.337   8.726 -0.0013 -0.3080  0.2469
97024W        W39962  11.589  33.273   9.845  0.1160  0.0858  0.0805
97025W        W39963  11.183  29.802   9.131  0.1424  0.0161 -0.1400
97026W        W39964  12.457  32.020   8.863 -0.0004 -0.1798  0.1033
97027W        W39965  14.067  29.271   9.017  0.0754  0.1448  0.1543
97028W        W39966  11.652   1.219   9.544  0.1293  0.2070  0.0770
97029W        W39967  10.769  30.997  10.563 -0.3028  0.1181 -0.2488
97030W        W39968  13.208  31.919   6.867  0.0410 -0.1583 -0.1174
97031W        W39969  15.146  31.970   7.360  0.2338  0.1845  0.0773
97032W        W39970  13.030  31.759   8.093 -0.0650 -0.0309  0.3542
97033W        W39971  10.909  31.782   9.221  0.0081 -0.2251 -0.2825
97034W        W39972  10.689  29.674   7.148  0.2796  0.0777 -0.2701
97035W        W39973  14.540  28.651   8.229  0.0294  0.0222 -0.1329
97036W        W39974  13.420  31.978   9.232  0.0584 -0.4242 -0.3401
97037W        W39975  12.485  33.193   9.674  0.1354 -0.3752  0.1603
97038W        W39976  13.491  31.798   7.237  0.0157 -0.0926  0.1934
97039W        W39977  12.893  29.494   7.745 -0.3920  0.2325  0.0825
97040W        W39978  14.073  30.522   8.712  0.1064  0.1979 -0.0858
97041W        W39979  11.674  31.522   7.700 -0.0440  0.1367 -0.1647
97042W        W39980  11.158  31.753   8.133 -0.1731  0.0599 -0.1870
97043W        W39981  14.173  31.440   9.081  0.0590 -0.0028  0.1877
97044W        W39982  13.842  30.157   8.018 -0.0351 -0.0917 -0.1286
97045W        W39983  11.906  31.634  10.227  0.1391  0.0094  0.1974
97046W        W39984  11.583  33.041   7.987  0.0032  0.0537 -0.0299
97047W        W39985  10.818  32.272   9.318  0.0441 -0.4320  0.2572
97048W        W39986  11.187  30.899   9.616 -0.4714  0.0603  0.1066
97049W        W39987   8.480  29.539   9.933  0.0402 -0.1629  0.0212
97050W        W39988  12.670  32.370   9.636  0.1791  0.0347  0.3193
97051W        W39989  14.589  28.453   8.663 -0.0286 -0.1000  0.0673
97052W        W39990  15.020  28.838   9.620 -0.0400  0.0802 -0.0190
97053W        W39991  12.516  30.851   8.793  0.2157  0.0063  0.0595
97054W        W39992  13.579  32.790   6.989  0.0449 -0.1795 -0.1382
97055W        W39993  14.318  30.877   8.308 -0.0048 -0.0504 -0.2422
97056W        W39994  14.467  30.715   7.028 -0.0874  0.4453  0.1220
97057W        W39995  10.024  32.418   9.836 -0.1072 -0.0958  0.0821
97058W        W39996  11.013  31.307   8.780  0.1821  0.1746 -0.1407
97059W        W39997  10.698  29.850   9.298 -0.0363  0.0781  0.0582
97060W        W39998  10.877  29.945   8.156  0.0457  0.1734 -0.0089
97061W        W39999  13.174  30.480   9.727  0.4289  0.2137 -0.0539
97062W        W40000  11.647  31.644   6.743 -0.0368  0.2030 -0.0328
97063W        W40001  12.681  31.382   9.978  0.0391 -0.0594  0.1429
97064W        W40002  12.909  32.217   7.887 -0.2673 -0.1031  0.0244
97065W        W40003  13.119  32.113   9.665 -0.1407  0.1763 -0.2303
97066W        W40004  13.909  32.121   8.044 -0.3534  0.1297 -0.2652
97067W        W40005  11.790  30.174   9.992 -0.2589 -0.0564 -0.1205
97068W        W40006  11.740  31.609   8.195 -0.2513 -0.0440  0.2296
97069W        W40007  12.843  32.051   9.236  0.0237 -0.0175  0.0438
97070W        W40008  11.949  31.064   8.556  0.3454 -0.0735  0.0228
97071W        W40009  11.497  30.640   8.323  0.2776  0.2942  0.2012
97072W        W40010  14.192  31.479   8.047  0.0621 -0.2328 -0.0782
97073W        W40011  13.222  32.643   8.586  0.0804  0.1581 -0.0291
97074W        W40012  15.810  30.572   8.739  0.1815 -0.1354 -0.0654
97075W        W40013  13.162  29.612   8.944  0.0670  0.0204  0.2176
97076W        W40014  12.696  30.127   8.279  0.0161  0.2264  0.0888
97077W        W40015  15.195  32.377   7.836 -0.1667  0.1841 -0.1749
97078W        W40016  10.334  32.312   8.473 -0.2713  0.1275 -0.1722
97079W        W40017  11.708  31.019   9.444  0.3305 -0.2597  0.2202
97080W        W40018  12.721  32.465   8.972  0.2872 -0.3076 -0.2555
97081W        W40019  12.588  29.859  10.080  0.0365  0.2640 -0.0033
97082W        W40020  11.788  32.032   7.903  0.2611  0.0252  0.3282
97083W        W40021  13.723  29.177   7.887  0.0143 -0.1965  0.2608
97084W        W40022  15.563  29.233   6.576 -0.1811  0.4907 -0.1991
97085W        W40023  13.903  30.175   9.100  0.2743 -0.0777 -0.1177
97086W        W40024  13.691  29.742   7.304 -0.1629  0.0699  0.0953
97087W        W40025  13.503  30.487   7.830  0.1363  0.3058 -0.2272
97088W        W40026  15.675  31.591   9.844  0.0206 -0.0875 -0.0056
97089W        W40027  13.188  30.498   9.281 -0.5246 -0.0007 -0.0640
97090W        W40028  14.356  30.363   7.412  0.1951 -0.0799  0.0484
97091W        W40029  13.750  32.129   7.525  0.0505  0.0950 -0.0758
97092W        W40030   9.894  30.217   9.228 -0.1246  0.2538  0.5240
97093W        W40031  14.751  31.358   9.922  0.3021  0.0150 -0.2960
97094W        W40032  12.954  28.598   9.547  0.4076  0.1209  0.2165
97095W        W40033  13.057  28.771   5.887 -0.4618 -0.1532 -0.0591
97096W        W40034  12.492  29.600   8.201 -0.0942  0.0997  0.0142
97097W        W40035  10.409  32.795   8.511 -0.1393 -0.0082 -0.1782
97098W        W40036  13.431  29.484   9.409 -0.1469 -0.0343 -0.0939
97099W        W40037  13.739  28.788   9.122 -0.0982  0.2933  0.1047
97100W        W40038  15.113  30.789   7.814  0.0344  0.1370 -0.1510
97101W        W40039  13.873  31.027   8.946  0.1276  0.0441 -0.2408
97102W        W40040  11.319  32.241   8.080  0.0066 -0.0048 -0.0066
97103W        W40041  12.243  31.202  10.272  0.3461  0.0518  0.0157
97104W        W40042  10.547  30.172   9.715  0.0567 -0.3562  0.0181
97105W        W40043  13.092  29.940   8.525 -0.2195  0.1218 -0.2791
97106W        W40044  12.838  30.364   6.900 -0.0374  0.0822 -0.0043
97107W        W40045  11.855  32.837   8.488  0.2705 -0.2931  0.3334
97108W        W40046  12.927  33.345   9.230  0.0121  0.3079  0.3107
97109W        W40047  12.089  28.126  10.072  0.2896  0.0439  0.1035
97110W        W40048  13.582  31.976   8.789 -0.3601 -0.1294 -0.1085
97111W        W40049  12.239  32.685   7.479 -0.1065  0.1415  0.3032
97112W        W40050  10.984  30.793  10.089 -0.1743  0.2050 -0.2638
97113W        W40051  12.367  31.425   8.861 -0.0062  0.4931  0.2572
97114W        W40052  17.048  29.278  10.087  0.0389 -0.0980 -0.0227
97115W        W40053  10.421  31.988   9.289 -0.3923  0.1728 -0.2824
97116W        W40054  12.071  30.022   6.439  0.0812  0.0306 -0.2110
97117W        W40055  12.251  30.526   9.478 -0.4302 -0.2127 -0.1241
97118W        W40056  12.121  29.302   8.188 -0.1267  0.2688  0.0061
97119W        W40057  14.226  31.332   7.592  0.2245 -0.2411 -0.0760
97120W        W40058  13.409  30.101   8.194  0.3077  0.0032 -0.0824
97121W        W40059  12.291  29.040   8.631  0.0484 -0.1045 -0.2603
97122W        W40060   9.683  33.390  10.029 -0.2439  0.1225  0.1647
97123W        W40061  13.951  29.277   7.368 -0.3979 -0.0983  0.0368
97124W        W40062  12.828  29.970   5.939  0.0642  0.2102  0.0505
97125W        W40063  13.699  30.174   8.575  0.2348 -0.1563 -0.1342
97126W        W40064  13.292  31.363   7.831 -0.0170  0.1771  0.0945
97127W        W40065  11.046  31.797   8.662 -0.0376 -0.0089  0.0880
97128W        W40066  13.820  29.762   8.343  0.0361 -0.1405 -0.1005
97129W        W40067  10.666  30.890   8.388 -0.2819 -0.0003  0.4440
97130W        W40068  11.490  31.118   8.069 -0.2018 -0.3289 -0.0503
97131W        W40069  12.694  29.735   8.631 -0.0108  0.0689 -0.1829
97132W        W40070  12.691  30.532   9.978 -0.1160  0.0326 -0.2377
97133W        W40071  11.917  31.081   7.731  0.1953  0.0509 -0.0147
97134W        W40072  11.424  31.437   8.511  0.2805 -0.1305  0.0072
97135W        W40073  13.766  30.599   8.349 -0.1602 -0.0805 -0.3726
97136W        W40074  13.117  26.141   9.593  0.3621 -0.0199 -0.1781
97137W        W40075  11.928  27.993   8.245 -0.0064  0.0178 -0.0689
97138W        W40076  14.416  33.271   7.897  0.1413 -0.1558  0.1076
97139W        W40077  11.419  32.382   7.192  0.0893 -0.3203 -0.0688
97140W        W40078  10.013  33.758  10.087 -0.0068  0.1632 -0.0273
97141W        W40079  13.274  31.284   8.964  0.0423  0.1633  0.1815
97142W        W40080  11.441  30.944   8.765 -0.1220 -0.1338 -0.0668
97143W        W40081  12.340  31.076   9.581 -0.1820 -0.0032  0.1899
97144W        W40082  11.899  33.518   8.851  0.2819 -0.0765  0.0295
97145W        W40083  11.813  29.524   9.552 -0.0690  0.2418  0.0943
97146W        W40084  14.760  28.048   7.372  0.1732  0.2918 -0.4573
97147W        W40085  14.001  30.596   7.011 -0.0516  0.0991  0.0842
97148W        W40086  12.328  30.449   9.013 -0.1722  0.2372  0.3202
97149W        W40087  14.350  31.960   8.741  0.1941  0.0712 -0.1778
97150W        W40088  10.159  30.597   9.549 -0.1967 -0.1241 -0.2955
97151W        W40089  13.594  31.468   9.295  0.1435  0.2118 -0.1056
97152W        W40090  13.857  28.991   8.692 -0.2020  0.2242 -0.1326
97153W        W40091  11.102  30.755   7.910 -0.0636 -0.0391 -0.2363
97154W        W40092  13.105  32.534   9.287  0.1748 -0.1177 -0.4077
97155W        W40093  14.801  31.539   7.238 -0.0355 -0.2120 -0.1828
97156W        W40094  12.727  31.753   8.506 -0.0879  0.2969 -0.3350
97157W        W40095  11.605  32.262  10.132 -0.0852  0.0282 -0.1973
97158W        W40096  15.144  30.308   8.036 -0.0993 -0.1223 -0.0773
97159W        W40097  13.519  32.250   7.083 -0.1632  0.0269  0.3162
97160W        W40098  12.384  31.208   7.812  0.2726 -0.0034  0.1384
97161W        W40099  12.563  29.883   7.668  0.0607  0.0702 -0.0003
97162W        W40100  12.284  30.720   7.744 -0.2678  0.1496  0.0307
97163W        W40101  12.780   0.025   9.959  0.1795  0.0959  0.1080
97164W        W40102  16.371  30.264   7.094  0.2072 -0.1290  0.0940
97165W        W40103  14.907  28.786   7.941  0.1025  0.1171  0.3858
97166W        W40104  13.323  30.467   8.606 -0.2027  0.2669 -0.3042
97167W        W40105  13.456  31.331   8.323 -0.3027 -0.2492 -0.1971
97168W        W40106  10.361  32.454  10.206  0.3303 -0.2127  0.0575
97169W        W40107  12.161  29.922   7.326 -0.0930  0.3577 -0.0803
97170W        W40108  12.501  32.242   5.683 -0.2559  0.0223  0.1133
97171W        W40109  15.141  29.564   9.913  0.2332  0.1052 -0.3394
97172W        W40110  12.997  30.873   8.933 -0.0843  0.1098  0.1841
97173W        W40111  10.716  28.908  10.376  0.0627  0.0689  0.0902
97174W        W40112  11.972  31.166   6.941 -0.4467 -0.3611 -0.3229
97175W        W40113  12.169  31.400   7.390 -0.0702  0.0111 -0.3673
97176W        W40114  13.606  30.583   9.017 -0.2864  0.5146  0.0841
97177W        W40115  12.535  29.326   6.303 -0.0770  0.0730 -0.2451
97178W        W40116  11.417  31.671   8.964 -0.1280  0.0350 -0.0129
97179W        W40117  12.915  28.905   7.730 -0.0134  0.3743 -0.2342
97180W        W40118  11.137  33.106   9.770  0.2193  0.2038 -0.0767
97181W        W40119  11.235  32.190   9.045  0.1260  0.0860 -0.1154
97182W        W40120  11.608  29.977   9.431  0.2549 -0.0362 -0.1018
97183W        W40121  14.517  29.568   8.575  0.0463 -0.0908  0.0307
97184W        W40122  12.432  30.541   8.408 -0.2978 -0.2590 -0.0870
97185W        W40123  11.222  32.096   9.589 -0.0120  0.0477  0.2653
97186W        W40124  14.690  31.558   7.685  0.2838 -0.0906 -0.1394
97187W        W40125  11.690  32.088   9.380 -0.1710 -0.1866  0.1027
97188W        W40126  13.486  30.391  10.104 -0.2672 -0.2053 -0.0772
97189W        W40127  11.247  30.491   7.489  0.0855  0.1332  0.0473
97190W        W40128  12.662  32.749   6.993  0.2410  0.3595  0.0069
97191W        W40129  11.242  31.013  10.454  0.0452  0.0264 -0.1687
97192W        W40130  10.811  32.841   7.507 -0.1286 -0.1437  0.2153
97193W        W40131  13.869  33.180   8.875 -0.3361 -0.1860 -0.2345
97194W        W40132  12.469  31.991   7.460  0.0515 -0.1499 -0.1106
97195W        W40133  13.333   0.374   9.902 -0.3522 -0.1902 -0.0254
97196W        W40134  13.518  29.682   6.781  0.1939  0.0192 -0.1089
97197W        W40135  11.047  33.205  10.247  0.2425  0.0782  0.0566
97198W        W40136   9.617  32.478   7.918 -0.1552  0.1444 -0.1430
97199W        W40137  13.603  33.276   9.335  0.0742  0.1954  0.1864
97200W        W40138  10.716  32.186   8.832  0.2989 -0.0108 -0.0718
97201W        W40139  14.872  29.374   7.295 -0.4286  0.1759 -0.3956
97202W        W40140  15.873  30.236   7.957 -0.1732 -0.0500  0.0587
97203W        W40141  14.698  30.599   8.247 -0.0407 -0.2798  0.1312
97204W        W40142  10.740  31.953   9.779  0.2294  0.2706  0.0950
97205W        W40143  13.060  29.905   6.758  0.2571 -0.1548 -0.2118
97206W        W40144  13.832  32.794   9.170 -0.1129  0.0367 -0.1978
97207W        W40145  10.964  30.795   8.887 -0.1568  0.1887  0.2016
97208W        W40146  11.773  31.282   8.988 -0.0561 -0.1391  0.1075
97209W        W40147  15.705  29.494   9.852 -0.0485 -0.0231  0.4108
97210W        W40148  13.523  30.636   7.131 -0.0374  0.1818  0.1785
97211W        W40149  12.801  30.826   7.885 -0.1085  0.0927 -0.1394
97212W        W40150  11.798  32.542   9.214  0.0510  0.0537 -0.3003
97213W        W40151  11.896  30.748  10.467 -0.1407 -0.1838 -0.0505
97214W        W40152  10.574  32.437   9.736  0.2567  0.3430 -0.1540
97215W        W40153  11.540  30.070   8.515 -0.0428  0.0046  0.0091
97216W        W40154  15.750  30.915   8.383  0.0369 -0.3933  0.2714
97217W        W40155  11.775  30.177   8.119 -0.0682 -0.1256 -0.1162
97218W        W40156  12.412  31.007   8.289  0.0977 -0.2959  0.2080
97219W        W40157  14.161  29.893   8.720 -0.0270 -0.4066 -0.2419
97220W        W40158  12.682  32.343   8.454 -0.0909  0.0241 -0.0585
97221W        W40159  11.128  29.574   9.615 -0.0808  0.4544  0.0076
97222W        W40160  13.322  30.446   6.706 -0.1188 -0.2452 -0.1711
97223W        W40161  14.425  30.643   6.073 -0.3085 -0.2509 -0.0882
97224W        W40162  12.766  31.257   8.648 -0.0987 -0.1156  0.0113
97225W        W40163  13.048  30.468   8.125  0.0907 -0.2350 -0.1688
97226W        W40164  11.857  30.641   9.049  0.3547 -0.0675 -0.2408
97227W        W40165  12.723  30.661   9.246 -0.2236  0.0913 -0.1295
97228W        W40166  10.455  31.233   8.774 -0.1759  0.1133 -0.0982
97229W        W40167  13.072  31.601   7.364  0.0964 -0.0539  0.4229
97230W        W40168  13.410  30.951   8.640  0.0253 -0.2067 -0.1432
97231W        W40169  11.478  32.559   8.857 -0.1347  0.0600  0.0314
97232W        W40170  14.284  31.072   9.440  0.3925 -0.1825 -0.0222
97233W        W40171  11.776  33.026   9.013 -0.0924 -0.1169 -0.3713
97234W        W40172  11.418  28.271   8.823 -0.1768 -0.0685 -0.0777
97235W        W40173  15.332  31.956   9.557  0.0177 -0.0046 -0.1259
97236W        W40174  14.371  31.359   8.533 -0.0992 -0.0757 -0.1347
97237W        W40175  12.702  29.452   7.294 -0.1363 -0.2193 -0.1693
97238W        W40176  12.261  31.527   8.316  0.0050 -0.0737  0.0474
97239W        W40177  10.478  31.566   9.712 -0.0518  0.0370  0.1614
97240W        W40178  14.948  30.389   9.079 -0.0580  0.2288 -0.0832
97241W        W40179  11.050  32.922   7.941  0.0209  0.4288 -0.1381
97242W        W40180  13.639  31.510   8.768  0.1094 -0.6507  0.0187
97243W        W40181  12.388  30.844   6.931  0.0457 -0.2156  0.4467
97244W        W40182  11.847  32.095   8.887 -0.0486  0.1934 -0.4072
97245W        W40183  13.105  33.456   8.747  0.2234  0.1198  0.0442
97246W        W40184  12.762  30.029   9.660 -0.1871 -0.0808  0.0503
97247W        W40185  12.189  32.441   8.758  0.2481  0.1529 -0.2351
97248W        W40186  14.037  30.669   9.295  0.0172  0.2211 -0.2120
97249W        W40187  12.016  30.077   9.057 -0.0685 -0.2869 -0.0481
97250W        W40188  15.338  29.826   8.505  0.1084  0.1589 -0.0637
97251W        W40189  14.913  29.718   7.954 -0.1039  0.1867 -0.1014
97252W        W40190  11.022  32.735  10.625  0.0013  0.2024 -0.0581
97253W        W40191  10.682  31.698   7.906 -0.3548 -0.1217 -0.1349
97254W        W40192   9.823  31.493   6.875 -0.0087  0.0986 -0.2262
97255W        W40193  11.448  30.270  10.366  0.0372 -0.0466  0.2247
97256W        W40194  10.557  31.874  10.233  0.0298  0.0345  0.1499
97257W        W40195  11.310  30.427   6.890 -0.0834 -0.0024 -0.0174
97258W        W40196  13.668  32.668   7.696 -0.0450 -0.1612 -0.0872
97259W        W40197  12.339  30.110   8.617 -0.1797  0.1030 -0.1785
97260W        W40198   9.443  29.557  10.084 -0.0221  0.0127  0.0485
97261W        W40199  13.844  31.486   7.275 -0.1436  0.1749 -0.3103
97262W        W40200  14.823  31.247   6.876  0.0065 -0.0482 -0.0522
97263W        W40201  12.893  30.003   7.274  0.1024 -0.1614 -0.2240
97264W        W40202  11.674  30.459   9.565 -0.1785 -0.1834  0.0893
97265W        W40203  10.201  29.752   8.811  0.0806  0.1913  0.1465
97266W        W40204  13.659  30.416   9.542  0.4282  0.2452  0.0156
97267W        W40205  13.195  31.637   8.647 -0.0152  0.0829 -0.1961
97268W        W40206  13.059  33.620   6.903  0.2085  0.2366  0.0618
97269W        W40207  13.209  28.266   9.812 -0.0284 -0.0870 -0.0085
97270W        W40208  13.093  32.144   8.838  0.0297  0.2008 -0.4273
97271W        W40209  13.844  31.070   7.042  0.0727  0.2093  0.2375
97272W        W40210  15.383  29.757   9.478  0.1584  0.0876 -0.1892
97273W        W40211  12.915  31.251   8.159 -0.1715 -0.0195 -0.0548
97274W        W40212  14.388  31.788   9.398  0.0801  0.0154 -0.2337
97275W        W40213  12.234  29.453   7.077 -0.2248 -0.2494 -0.3543
97276W        W40214  12.898  31.204   7.597  0.3813 -0.0219  0.0271
97277W        W40215  13.777  32.791   8.609  0.1314 -0.0532  0.0989
97278W        W40216  12.684  32.887   9.295 -0.1103  0.0130  0.0737
97279W        W40217  13.291  30.854   7.590 -0.0156  0.2700  0.2834
97280W        W40218  13.354  30.928   8.104 -0.1187 -0.1592  0.1627
97281W        W40219  12.648  30.368   7.835  0.0561  0.0909  0.1445
97282W        W40220  14.733  30.220   7.739  0.3844  0.1737 -0.1481
97283W        W40221  13.556  34.604   9.901  0.4364 -0.2909 -0.1860
97284W        W40222  12.699  31.177   9.206  0.2421  0.0955 -0.1374
97285W        W40223  14.824  31.538   8.457 -0.0938  0.1137 -0.0154
97286W        W40224  10.778  27.396   9.171 -0.0367 -0.1662 -0.0656
97287W        W40225  10.815  30.897   7.517  0.3087  0.0411  0.0577
97288W        W40226  12.387  32.343   7.153 -0.0773  0.0978  0.1664
97289W        W40227  14.733  30.880   9.748  0.3495  0.0245 -0.1475
97290W        W40228  10.770  30.320   7.238 -0.1656  0.0569  0.0100
97291W        W40229  13.066  30.396   7.500  0.0638 -0.1603 -0.0468
97292W        W40230  11.112  32.559   9.711  0.0882 -0.0510 -0.1051
97293W        W40231  13.498  29.325   8.529 -0.1219 -0.2900  0.1351
97294W        W40232  12.415  33.394   0.889  0.1395  0.0828 -0.2605
97295W        W40233  14.121  32.610  31.029  0.3806 -0.3791 -0.4490
97296W        W40234  14.509   0.088  31.884  0.0218 -0.1197 -0.1016
97297W        W40235  11.527  33.941   0.377  0.1355 -0.0799 -0.1953
97298W        W40236  11.737  32.735   2.765  0.0428  0.0606  0.1206
97299W        W40237  14.388   1.873   0.046 -0.1930  0.2154 -0.1506
97300W        W40238  11.935  33.889   4.049  0.1055 -0.1167 -0.0457
97301W        W40239  13.120  34.029  31.853 -0.2417 -0.2489  0.0425
97302W        W40240  10.941  33.525   3.617  0.0465  0.4534  0.0788
97303W        W40241  13.693  34.227   3.135 -0.2666 -0.2109 -0.1224
97304W        W40242  10.466   0.355   2.420 -0.0718 -0.1873  0.0431
97305W        W40243  10.602  33.753   3.921 -0.0346 -0.3318  0.1195
97306W        W40244  12.560  33.555   2.020  0.0143 -0.1117 -0.0546
97307W        W40245  12.506  32.761   3.705 -0.3985 -0.2691  0.4235
97308W        W40246  13.349  33.877   3.965 -0.1869 -0.0323  0.3815
97309W        W40247  10.890   0.577  31.638  0.1390 -0.0911 -0.0063
97310W        W40248  10.226  34.623   2.293 -0.1181 -0.0351 -0.1816
97311W        W40249  11.973  33.868   3.163 -0.4899 -0.2566  0.0275
97312W        W40250  14.270  33.652   1.329  0.0548 -0.1519  0.0949
97313W        W40251  15.224   0.166   1.614  0.3101 -0.0704 -0.0636
97314W        W40252  13.810   0.001   3.314  0.1040  0.0617 -0.0897
97315W        W40253  13.242  33.514   2.589 -0.0471  0.1045 -0.3632
97316W        W40254  14.469  34.421   2.791 -0.5143  0.2537 -0.2231
97317W        W40255  13.438  33.113   4.578  0.2493  0.2796 -0.1027
97318W        W40256  13.738   0.174   0.247  0.1960  0.0745 -0.1043
97319W        W40257  11.868  34.240  30.106 -0.0798  0.0920 -0.0985
97320W        W40258  13.188  32.816  30.786 -0.5037  0.0262 -0.0095
97321W        W40259  13.176  33.045   2.782 -0.0492  0.2504 -0.3773
97322W        W40260  12.749  32.815   2.793 -0.0701  0.0447  0.1084
97323W        W40261  14.093   1.149   0.947  0.2408  0.1173  0.0798
97324W        W40262  14.920  33.059   1.999  0.1195  0.1524 -0.2966
97325W        W40263  11.357   0.072   2.509  0.1677  0.0014  0.1398
97326W        W40264  12.561   0.229  31.768  0.1575 -0.1247 -0.1625
97327W        W40265  12.302   0.216   2.640  0.3355  0.2245  0.1896
97328W        W40266  12.024   0.223   3.782 -0.1011  0.0609 -0.0733
97329W        W40267  12.722  32.314  31.661 -0.0466  0.0392 -0.0094
97330W        W40268  15.839  31.231   1.729  0.1983  0.0441  0.0425
97331W        W40269  13.542  33.261   1.734  0.0091  0.2098 -0.0194
97332W        W40270  14.017  33.155   1.625  0.0399 -0.0435 -0.0125
97333W        W40271  15.739   0.037   0.392 -0.0181 -0.2805 -0.1712
97334W        W40272  12.123  33.351   2.905 -0.1399  0.1169 -0.0669
97335W        W40273  11.386  34.151   4.013  0.0814 -0.1796 -0.2120
97336W        W40274  13.738  33.224  31.625 -0.2104 -0.4573  0.1162
97337W        W40275  11.498  33.723   4.406  0.1907  0.1686  0.1438
97338W        W40276  13.395  31.769   0.778 -0.1390 -0.1246 -0.1947
97339W        W40277  14.075  34.571  31.956  0.2227  0.0654  0.3691
97340W        W40278  10.752  33.615   2.791 -0.2357  0.0190 -0.2118
97341W        W40279  11.935  34.692   1.171 -0.1741 -0.1206  0.0886
97342W        W40280  11.908  33.005   3.204 -0.1718 -0.1631  0.0218
97343W        W40281  12.507  32.714   2.358  0.1645 -0.0639 -0.0050
97344W        W40282  15.309  33.491   1.453  0.0023 -0.0250 -0.0025
97345W        W40283  11.545  34.035   1.315  0.0674  0.2227  0.3267
97346W        W40284  14.343  33.262   0.274 -0.0286  0.1130  0.3437
97347W        W40285  11.592   0.430   1.480 -0.2937 -0.0549  0.1633
97348W        W40286  13.961  32.625   3.953 -0.1171  0.0878  0.0390
97349W        W40287  11.871  33.504   2.414 -0.0766 -0.1757  0.1907
97350W        W40288  12.156  32.928   0.711  0.0642 -0.3094 -0.0093
97351W        W40289  12.625  33.012   0.543 -0.1475 -0.2607  0.3477
97352W        W40290  14.244  33.034   2.048  0.1051  0.0276  0.0768
97353W        W40291  12.930  33.811   0.286 -0.2107  0.0046  0.0872
97354W        W40292  12.867  32.699   0.053  0.1369 -0.0566  0.1308
97355W        W40293  10.733   0.784   2.292 -0.2046 -0.1230 -0.2436
97356W        W40294  13.747  33.619   1.396  0.0130 -0.1014 -0.0410
97357W        W40295  11.566   0.253   3.957  0.3911 -0.2263  0.3219
97358W        W40296  13.473   0.122   2.921  0.1779  0.2385 -0.2074
97359W        W40297  11.627  34.334   0.760  0.3551  0.1126 -0.0841
97360W        W40298  14.301  33.651   0.796  0.0445  0.0895 -0.0183
97361W        W40299  14.326  33.481  31.768  0.0942  0.0328  0.0436
97362W        W40300  14.116  32.784   0.352 -0.2538  0.1109  0.0772
97363W        W40301  13.386  33.581   0.185 -0.0366  0.2796  0.3712
97364W        W40302  13.313   0.041  31.195 -0.1394 -0.2153  0.0599
97365W        W40303  13.420  33.935   1.623 -0.2301  0.0209  0.0853
97366W        W40304  13.503   0.343  31.863  0.1148  0.1539  0.2179
97367W        W40305  12.170  32.592   1.970  0.0465  0.1189  0.1022
97368W        W40306  14.067  32.707   1.354  0.1466  0.1310  0.2187
97369W        W40307  13.853  34.179   2.039  0.3923 -0.1569 -0.3311
97370W        W40308  13.071  32.734   2.350  0.1695 -0.1735 -0.0924
97371W        W40309  14.763  32.872   2.434  0.1193  0.0453  0.4136
97372W        W40310  13.944  33.895   1.040  0.0325 -0.1001 -0.1849
97373W        W40311  13.191  34.602   2.304 -0.0430  0.1714  0.0317
97374W        W40312  11.276  33.626  31.095 -0.1179 -0.0914 -0.0310
97375W        W40313  12.728  33.744   3.538  0.2708 -0.1535  0.0678
97376W        W40314  14.419  33.601   2.161  0.0834  0.1387 -0.0157
97377W        W40315  12.873  33.561  31.767 -0.1061 -0.4380 -0.1171
97378W        W40316  12.836  33.814   1.662 -0.1516 -0.0762 -0.0888
97379W        W40317  12.635  32.163   0.157  0.2203 -0.0347  0.2134
97380W        W40318  12.574  33.216  31.857  0.0608  0.0076 -0.0341
97381W        W40319  12.709  34.454  31.877 -0.1344  0.0351  0.0836
97382W        W40320  13.244  32.945   1.374  0.0812  0.0270 -0.0717
97383W        W40321  10.712  33.845   3.330  0.3255 -0.1506 -0.1733
97384W        W40322  13.694  34.289   1.299 -0.2459  0.2214  0.2534
97385W        W40323  14.311   0.250   2.644 -0.1305 -0.0919  0.0188
97386W        W40324  13.007  34.244   1.352  0.3003  0.2417 -0.0397
97387W        W40325  11.676  33.731   2.808 -0.0001  0.1708  0.0380
97388W        W40326  11.173  33.150  31.195 -0.0870 -0.0382  0.1441
97389W        W40327  13.459  33.698   3.091 -0.2793 -0.0711 -0.0424
97390W        W40328  12.072  33.414   1.948 -0.0495  0.1308 -0.0489
97391W        W40329  12.679  34.582  31.381 -0.1288 -0.2441 -0.1510
97392W        W40330  12.356  33.699   3.864 -0.2113 -0.2559  0.1613
97393W        W40331  11.990   0.514   0.882  0.1898  0.0296  0.0231
97394W        W40332  12.153  33.777   0.604  0.0386 -0.0149  0.1447
97395W        W40333  14.432  34.594   2.013 -0.0051 -0.0475  0.1141
97396W        W40334  13.827  33.564   2.195  0.4147  0.1327 -0.0936
97397W        W40335  13.230  33.254   2.145  0.0451 -0.1657 -0.1217
97398W        W40336  13.443  33.920   2.168 -0.0590 -0.3485  0.3224
97399W        W40337  13.667  32.963   2.162 -0.1509 -0.0754 -0.0626
97400W        W40338  16.447  31.965   0.656  0.1399 -0.0989 -0.1369
97401W        W40339  14.108  34.257   1.634  0.1505  0.0209  0.0089
97402W        W40340  14.781  33.327   2.514  0.0687  0.0037  0.0427
97403W        W40341  14.798  34.191   0.417  0.1958 -0.2761 -0.1252
97404W        W40342  14.178  33.750   4.413 -0.2472 -0.0479  0.2296
97405W        W40343  11.841  34.137   2.621 -0.0617 -0.1263 -0.0275
97406W        W40344  10.928  32.506   3.149  0.1833 -0.4871  0.0184
97407W        W40345  12.732   0.044   3.094  0.2878  0.1201  0.2076
97408W        W40346  12.567  34.042   2.214  0.0488 -0.1056 -0.1489
97409W        W40347  11.186  32.696  31.941  0.2068  0.2478 -0.2778
97410W        W40348  13.424   0.380   2.418  0.0452 -0.2330 -0.1774
97411W        W40349  15.232  33.736   0.938 -0.1371  0.1557 -0.0209
97412W        W40350  12.056   1.778   2.961  0.0454  0.1583 -0.0077
97413W        W40351  14.366   0.367   2.156 -0.0906  0.0099  0.2422
97414W        W40352  12.567  32.872   4.231 -0.2033 -0.1322 -0.1792
97415W        W40353  13.061  34.195   1.952  0.0723 -0.1477 -0.2794
97416W        W40354  14.224  33.101   2.638 -0.0031  0.0525 -0.2224
97417W        W40355  14.162  33.620   2.580  0.0004  0.0070 -0.4415
97418W        W40356  12.184  33.820   2.666  0.0420 -0.0117  0.0702
97419W        W40357  12.794  32.475   4.000 -0.3007  0.0637  0.1323
97420W        W40358  13.931  34.221  31.557 -0.1693  0.2145 -0.0163
97421W        W40359  14.936  33.742   2.349 -0.0132 -0.1400 -0.1101
97422W        W40360  14.198   0.717  31.137  0.0965  0.2622  0.0629
97423W        W40361  12.916  34.418   0.336  0.1495 -0.0872 -0.1345
97424W        W40362  12.422   0.004   1.500  0.0268  0.1516 -0.0192
97425W        W40363  15.163  33.672   4.838  0.4282  0.5278 -0.1286
97426W        W40364  13.320  33.713   0.657  0.0526  0.1206  0.2743
97427W        W40365  14.445  33.529   3.150 -0.0469  0.1201  0.3687
97428W        W40366  15.106  34.061   1.723 -0.0699 -0.0692 -0.2723
97429W        W40367  11.546  33.985   2.166  0.0956  0.1486  0.2146
97430W        W40368  11.243  32.702   0.543 -0.2136  0.0874  0.1623
97431W        W40369  11.452   0.156   0.407 -0.1834 -0.1422 -0.4249
97432W        W40370  13.513  33.005   0.047 -0.0211  0.5073  0.2402
97433W        W40371  13.960  33.438   3.085 -0.0347  0.0205  0.0403
97434W        W40372  14.022  33.764   1.757 -0.0218 -0.0363 -0.1200
97435W        W40373  12.937  33.157   4.341  0.2542  0.0783 -0.2087
97436W        W40374  14.240   0.655   0.869 -0.0007  0.0159  0.3406
97437W        W40375  13.894  34.289   0.389  0.2396 -0.1501  0.2318
97438W        W40376  15.242  33.697   2.738 -0.0928 -0.0904 -0.3506
97439W        W40377  12.021   0.559   1.922 -0.1422 -0.3018  0.0422
97440W        W40378  12.733  33.294   2.879  0.1062  0.3200  0.0789
97441W        W40379  11.286  32.349   1.383  0.0886  0.0340 -0.1134
97442W        W40380  12.875   0.014   1.160 -0.0026  0.1510  0.1680
97443W        W40381  13.495  33.502  31.183 -0.1286  0.0198 -0.0398
97444W        W40382  14.957  33.635   0.537  0.0880  0.2217 -0.2295
97445W        W40383  13.415  33.899   1.139  0.2238  0.0955  0.0345
97446W        W40384  12.529  34.526   0.747  0.0787  0.0721  0.0526
97447W        W40385  13.653  32.698  30.828  0.2361  0.4215  0.1931
97448W        W40386  11.791  34.541   2.283 -0.0798  0.0151 -0.0770
97449W        W40387  15.014  31.778   4.349 -0.1104 -0.0986  0.2502
97450W        W40388  10.762  32.537   0.374 -0.2706 -0.0771 -0.0116
97451W        W40389  12.155   0.266   3.185  0.0366  0.1278  0.1858
97452W        W40390  12.688  32.545   1.950  0.1372  0.0745 -0.0006
97453W        W40391  14.619  34.414   0.915  0.0996 -0.0521  0.2790
97454W        W40392  11.949  32.783   1.197 -0.2033  0.1311 -0.0988
97455W        W40393  14.747  33.925   0.886  0.3551  0.3139  0.0850
97456W        W40394  12.257  32.847   2.794 -0.2419 -0.0074  0.1095
97457W        W40395  14.133  33.263   1.042 -0.1500  0.1966  0.2514
97458W        W40396  12.181  34.330   1.887  0.0561  0.1135 -0.0858
97459W        W40397  14.856   0.048   1.201  0.0994 -0.2545  0.0297
97460W        W40398  10.604  33.828   4.457  0.2098 -0.2318  0.1027
97461W        W40399  12.634  34.311   1.718 -0.1862 -0.1119  0.2463
97462W        W40400  14.283  34.175   2.307 -0.0176 -0.0739 -0.1677
97463W        W40401  14.067  34.394   0.943 -0.0331 -0.0659 -0.0515
97464W        W40402  12.904  33.811   1.122  0.0125  0.2266  0.1200
97465W        W40403  13.416   0.593   0.329 -0.0966  0.2319  0.1309
97466W        W40404  11.522   0.584  31.982 -0.1620  0.0403  0.0534
97467W        W40405  13.719   0.861   2.512 -0.0122 -0.1361  0.0534
97468W        W40406  11.161  34.282   1.568 -0.0457  0.2988 -0.0103
97469W        W40407  13.794   0.093   1.268  0.4247 -0.0991 -0.0751
97470W        W40408  14.524  33.972   1.805  0.1405  0.1366  0.0580
97471W        W40409  13.064   0.830   2.245  0.1660  0.0537 -0.0028
97472W        W40410  13.555  34.215   0.761 -0.2385  0.1724 -0.0176
97473W        W40411  11.474   0.703   1.040 -0.2065  0.0331  0.0006
97474W        W40412  13.862  31.789   0.656 -0.0861  0.3540  0.0321
97475W        W40413  14.989  31.936   2.034 -0.0057 -0.2752  0.0076
97476W        W40414  14.798  32.597   4.721 -0.2165 -0.2253 -0.1181
97477W        W40415  12.356  34.306   0.240 -0.1806 -0.1964  0.2787
97478W        W40416  12.490  33.366   1.546 -0.3650  0.0372 -0.2507
97479W        W40417  15.768  32.470   0.609 -0.1618  0.2453  0.1344
97480W        W40418  13.920  33.182   0.574  0.1214 -0.1564 -0.1669
97481W        W40419  13.151   0.443   2.804  0.2281 -0.1255 -0.0931
97482W        W40420  10.094   0.923   1.627 -0.2741  0.0946  0.1293
97483W        W40421  13.141  32.222   4.386 -0.0850  0.2556  0.3450
97484W        W40422  11.834  34.442   3.940  0.1345 -0.0300  0.0669
97485W        W40423  11.274  34.439   3.548 -0.3439  0.0759 -0.2337
97486W        W40424  11.657  34.337   1.725  0.0110 -0.0816 -0.1968
97487W        W40425  12.007  34.253   1.416  0.1737  0.1348  0.0007
97488W        W40426  11.583  32.630   2.268 -0.1644  0.0020  0.0591
97489W        W40427  12.296  33.629  31.715  0.0698  0.2365  0.0750
97490W        W40428  13.496  33.162   3.125 -0.2588 -0.0306  0.1421
97491W        W40429  12.100  34.359   3.042  0.0092  0.0345  0.1321
97492W        W40430  12.604  33.962  31.429 -0.1135  0.2476  0.0578
97493W        W40431  12.048  33.925   2.166 -0.1226 -0.2697  0.0902
97494W        W40432  11.395  32.944   3.242 -0.0908  0.0945  0.1643
97495W        W40433  15.152  33.211   2.866  0.2128  0.1505  0.0121
97496W        W40434  14.358  34.573   1.350 -0.1823  0.0059 -0.0289
97497W        W40435  11.667  33.444   3.259  0.0423 -0.0123  0.2365
97498W        W40436  12.326  33.896   1.733  0.0717  0.1625  0.4039
97499W        W40437  14.424  34.264   0.033  0.0753  0.0322 -0.1717
97500W        W40438  11.060  34.258   3.068  0.6499  0.2079  0.1872
97501W        W40439  13.078   0.059   1.689  0.0930 -0.1558 -0.0160
97502W        W40440  13.138  34.044   2.520  0.0106  0.2276 -0.0594
97503W        W40441  12.817  33.135   1.077  0.3327  0.0490  0.0413
97504W        W40442  14.215   0.382   1.352  0.1781 -0.2779  0.0457
97505W        W40443  11.253  33.130   2.437  0.1117 -0.1576  0.1120
97506W        W40444  11.479  34.572   1.295  0.2446 -0.0969  0.2020
97507W        W40445  11.575   0.232   0.910 -0.1049  0.1937 -0.1747
97508W        W40446  15.017  33.669   3.187 -0.0709  0.1661  0.1245
97509W        W40447  12.251  34.386   2.448 -0.0842 -0.2105 -0.1672
97510W        W40448  12.906  33.332   1.777  0.1489 -0.0754 -0.0237
97511W        W40449  11.616  34.135   4.771 -0.3295 -0.0512  0.3087
97512W        W40450  14.263  34.257   4.096 -0.3123 -0.5575 -0.0905
97513W        W40451  15.108   0.052   4.561 -0.1203 -0.0338 -0.2544
97514W        W40452  10.943  32.914   4.741 -0.0705  0.1002 -0.0080
97515W        W40453  12.218  33.219   6.744 -0.0459 -0.2099  0.0891
97516W        W40454  13.792   0.790   3.617  0.0248 -0.0820  0.2132
97517W        W40455  12.547  33.620   6.607 -0.1956  0.0455 -0.4447
97518W        W40456  12.156  33.463   4.204 -0.1156  0.3125  0.3033
97519W        W40457  11.731  33.241   6.190  0.1933 -0.1626  0.1134
97520W        W40458  12.600  34.136   5.044  0.1140  0.0907 -0.2560
97521W        W40459  11.379  34.451   4.436 -0.0815 -0.3649  0.1080
97522W        W40460  11.140  33.943   5.860  0.0528  0.2331  0.2741
97523W        W40461  12.374  33.677   4.989  0.0273  0.2769  0.2785
97524W        W40462  11.861  33.591   7.135  0.0062 -0.1775 -0.4154
97525W        W40463  13.458  32.142   5.760  0.2002  0.3324  0.0405
97526W        W40464  11.436  33.242   3.639  0.0281 -0.0946 -0.1226
97527W        W40465  10.998  33.336   4.976  0.0678 -0.0763 -0.2150
97528W        W40466  11.920  34.311   7.432 -0.1340 -0.1079 -0.3548
97529W        W40467  12.839  34.437   6.445  0.0830  0.1782 -0.1608
97530W        W40468  14.068  34.695   5.024 -0.2235 -0.1573  0.2093
97531W        W40469  14.818  33.910   5.812 -0.0642 -0.0377  0.0768
97532W        W40470  12.115  34.122   4.992  0.0444  0.3504 -0.0638
97533W        W40471  13.162  34.121   5.483  0.0418 -0.2111  0.0416
97534W        W40472  13.976  34.490   7.065  0.0107 -0.1101 -0.2571
97535W        W40473  13.185  33.421   4.007 -0.0628  0.1094 -0.0394
97536W        W40474  12.365   0.591   4.635  0.3046 -0.1823 -0.4334
97537W        W40475  13.393  34.098   4.546  0.2244 -0.0287  0.0308
97538W        W40476  12.278  32.961   5.563  0.3294  0.1061  0.0106
97539W        W40477  12.669  34.210   5.683  0.1310 -0.1700 -0.3846
97540W        W40478  13.153  34.404   2.910  0.2172 -0.0567 -0.0326
97541W        W40479  12.292  34.664   6.220  0.0809 -0.0220 -0.3341
97542W        W40480  11.407  33.228   4.653  0.0254  0.1699  0.2802
97543W        W40481  11.655  34.670   4.793 -0.1294  0.1367 -0.3615
97544W        W40482  11.283  34.461   7.511  0.2339  0.2473 -0.0213
97545W        W40483  11.138  34.043   8.001  0.0605 -0.2128 -0.0587
97546W        W40484  12.405  33.295   4.604 -0.2275 -0.1029 -0.0857
97547W        W40485  14.433  31.865   5.100 -0.0448 -0.0301 -0.1083
97548W        W40486  13.586  32.600   5.040 -0.0633  0.0343 -0.2254
97549W        W40487  13.383  32.626   5.855 -0.0243 -0.3173  0.0130
97550W        W40488  14.455  32.892   4.919  0.1919  0.4872  0.0883
97551W        W40489  13.841  34.228   6.260 -0.0526 -0.0639 -0.5081
97552W        W40490  10.420  33.205   6.984  0.1363 -0.0411 -0.0691
97553W        W40491  13.155  32.092   3.923  0.1244 -0.0167 -0.1369
97554W        W40492  12.053  33.633   6.429  0.1247  0.1533  0.0875
97555W        W40493  14.239  33.381   5.612 -0.4141 -0.0638 -0.1439
97556W        W40494  13.871  33.521   4.901  0.1018 -0.2580 -0.1020
97557W        W40495  12.511   0.098   7.077 -0.0165 -0.0270 -0.1954
97558W        W40496  11.472  34.348   5.205  0.0656 -0.1058  0.2163
97559W        W40497  11.525  33.956   7.235  0.0024  0.0128 -0.2919
97560W        W40498  11.299  33.133   5.784 -0.1089  0.2812  0.0766
97561W        W40499  14.235   0.348   6.434 -0.0558 -0.3450  0.2130
97562W        W40500  11.141  31.999   2.855  0.0597  0.4012 -0.2119
97563W        W40501  13.817  33.987   4.692  0.1756 -0.0480  0.1132
97564W        W40502  13.581   0.442   5.155  0.3950  0.2649  0.3537
97565W        W40503  12.875  32.732   6.423 -0.0488 -0.0522 -0.0690
97566W        W40504  11.532  34.099   6.141 -0.2490 -0.1684  0.3237
97567W        W40505  11.716  33.282   4.090 -0.2175 -0.1917  0.1209
97568W        W40506  11.994  33.851   4.571  0.0517 -0.4440 -0.1173
97569W        W40507  12.478  31.932   8.078 -0.0899 -0.1901  0.3037
97570W        W40508  12.739  33.771   5.380 -0.0060  0.4061  0.0396
97571W        W40509  12.381  32.556   3.204  0.2137  0.0744  0.1197
97572W        W40510  11.248   0.685   4.764  0.1258 -0.1220 -0.2874
97573W        W40511  13.030  33.849   4.929 -0.0920 -0.2489 -0.0104
97574W        W40512  10.496   0.766   6.699 -0.0562  0.1708  0.1047
97575W        W40513  13.267  34.531   7.474 -0.5852  0.0560  0.0143
97576W        W40514  12.749  33.549   4.141  0.2106  0.0913  0.0112
97577W        W40515  14.090  32.616   5.144  0.2220  0.1671  0.2200
97578W        W40516  13.643  33.650   4.338 -0.0701 -0.2426 -0.0835
97579W        W40517  13.907  33.761   3.909  0.1628 -0.1502  0.1980
97580W        W40518  13.177  33.442   3.406 -0.1734 -0.0869  0.3069
97581W        W40519  12.833  34.615   3.732 -0.0473 -0.1832 -0.1524
97582W        W40520  12.166  33.287   5.966 -0.2526  0.4691 -0.0472
97583W        W40521  12.696  33.645   2.546 -0.3685  0.3535 -0.0996
97584W        W40522  12.337  33.084   5.100  0.0907  0.0208 -0.0765
97585W        W40523  13.598  32.157   6.264 -0.1642  0.1452  0.0628
97586W        W40524  13.095  32.942   6.843 -0.1804 -0.3163  0.3337
97587W        W40525  12.347  32.576   6.624 -0.1061  0.0199 -0.0342
97588W        W40526  13.399   1.167   6.841  0.2507 -0.0937 -0.1548
97589W        W40527  14.579  33.068   5.365 -0.0085 -0.1780 -0.2263
97590W        W40528  12.965  34.373   4.826  0.2084 -0.1714 -0.3397
97591W        W40529  11.905  33.517   5.189  0.0444 -0.0132 -0.0439
97592W        W40530  13.411  33.237   6.586  0.1666  0.1138 -0.2457
97593W        W40531  12.941  33.774   5.826  0.1897  0.1528 -0.3195
97594W        W40532  13.452  31.811   4.215 -0.0943  0.0426 -0.0595
97595W        W40533  13.200  33.594   5.368 -0.1461 -0.0790  0.2614
97596W        W40534  14.078  33.042   6.052  0.0482  0.1096  0.0088
97597W        W40535  12.439   0.729   5.594  0.1439 -0.3147  0.0706
97598W        W40536  11.060  34.164   4.715 -0.3817 -0.1097  0.3414
97599W        W40537  13.883  32.969   4.698 -0.1676 -0.0045 -0.0496
97600W        W40538  11.686  33.130   6.905 -0.4635 -0.1010 -0.3106
97601W        W40539  12.414  33.733   5.909  0.0100 -0.2989 -0.0724
97602W        W40540  13.306   0.585   6.916  0.0288  0.1808  0.0447
97603W        W40541  12.179  32.784   4.675 -0.0501  0.0826 -0.0690
97604W        W40542  12.272   0.257   8.028  0.1364  0.1396  0.1731
97605W        W40543  11.687  32.747   4.038  0.1482 -0.2448 -0.0333
97606W        W40544  13.967  33.796   5.886 -0.1505  0.1620 -0.1316
97607W        W40545  11.458  33.673   5.011 -0.3646  0.1789 -0.0976
97608W        W40546  12.476  33.843   3.079  0.0266  0.0019 -0.1903
97609W        W40547  10.901  33.214   7.238  0.0838 -0.0255  0.3221
97610W        W40548  12.301  33.488   5.482 -0.0919  0.0827 -0.1656
97611W        W40549  11.020  33.642   4.115  0.0636  0.0997 -0.1954
97612W        W40550  13.504  33.968   5.064  0.3604 -0.2726 -0.1085
97613W        W40551  13.035  34.542   7.038  0.3035  0.1318  0.1022
97614W        W40552  13.676  31.205   5.986 -0.0733 -0.1198  0.1786
97615W        W40553  12.909   0.609   5.904 -0.1254 -0.0728  0.1989
97616W        W40554  12.427  33.643   7.451 -0.3046 -0.1313  0.3793
97617W        W40555  15.520  31.526   3.427  0.1615 -0.3780  0.1135
97618W        W40556  11.200  33.600   5.542  0.0019  0.0798  0.1655
97619W        W40557  15.058  34.098   7.406 -0.0149  0.3144  0.1103
97620W        W40558  14.758  33.667   3.634  0.2952 -0.0746 -0.0498
97621W        W40559  12.693  33.308   5.825 -0.0095 -0.0229 -0.2140
97622W        W40560  11.573  33.913   6.740 -0.2782 -0.2383  0.0302
97623W        W40561  11.098  33.897   6.370  0.0285  0.3444 -0.2022
97624W        W40562  11.227  34.641   8.021  0.3999  0.1395  0.1304
97625W        W40563  14.651  33.839   4.764  0.2260  0.1760 -0.0775
97626W        W40564  11.818  33.042   5.089  0.1270 -0.2918 -0.0872
97627W        W40565  12.685   0.653   7.199  0.0839  0.3083  0.0176
97628W        W40566  13.294  34.345   3.763  0.0258 -0.0989  0.0557
97629W        W40567  10.510  34.560   5.373  0.2311  0.0713 -0.1452
97630W        W40568  13.319  34.526   4.273 -0.0490  0.0642 -0.1571
97631W        W40569  12.999  34.109   7.301  0.1937 -0.2762  0.2626
97632W        W40570  13.779  33.006   5.647  0.2760 -0.0566  0.2344
97633W        W40571  13.015  33.899   6.344 -0.1741  0.0490 -0.1136
97634W        W40572  13.913  34.249   5.733 -0.1753 -0.1902  0.1510
97635W        W40573  12.337  34.129   7.714 -0.2266 -0.0108 -0.2773
97636W        W40574  11.263  33.879   8.513 -0.3912 -0.1210 -0.1190
97637W        W40575  13.642  33.387   3.563  0.0229  0.1411  0.1455
97638W        W40576  15.417  34.083   6.008 -0.1073  0.1338 -0.1982
97639W        W40577  15.263  33.758   5.409 -0.0699 -0.1769 -0.0830
97640W        W40578  12.412  34.061   4.174  0.0925 -0.1857  0.0978
97641W        W40579  11.411  33.455   6.555 -0.2220 -0.1455  0.1040
97642W        W40580  14.908  33.877   8.896 -0.0412 -0.0761 -0.0053
97643W        W40581  11.698  33.395   5.629 -0.4276 -0.0224 -0.2489
97644W        W40582  13.782  34.133   6.772  0.1284 -0.0958 -0.3135
97645W        W40583  12.949  33.970   4.310 -0.2165  0.1906  0.3246
97646W        W40584  11.153  32.656   5.688  0.1722  0.1991 -0.1370
97647W        W40585  12.135  32.109   3.475 -0.0155  0.1466 -0.2791
97648W        W40586  12.017   0.925   4.729 -0.3793  0.0526 -0.2257
97649W        W40587  12.432  34.381   4.616 -0.3368  0.0676 -0.1724
97650W        W40588  13.272  34.077   6.883  0.0872  0.1952 -0.1881
97651W        W40589  12.839  31.849   6.057 -0.0878 -0.1823  0.0023
97652W        W40590  11.387  33.575   6.054 -0.1059  0.0641  0.2160
97653W        W40591  12.825  34.211   3.308 -0.2729  0.0302 -0.0334
97654W        W40592  13.330  33.517   6.145 -0.0641 -0.0330 -0.1026
97655W        W40593  10.575  34.649   4.862  0.1024 -0.1386 -0.0682
97656W        W40594  10.122  33.520   6.341  0.2111 -0.3691 -0.2917
97657W        W40595  11.008  32.008   4.294  0.0890  0.1814 -0.2075
97658W        W40596  13.277  33.165   5.648  0.0886 -0.1251 -0.2349
97659W        W40597  14.012  33.282   4.183 -0.2176 -0.3492 -0.2865
97660W        W40598  13.956  33.741   5.313 -0.1333 -0.0613  0.3008
97661W        W40599  14.334  33.320   4.687  0.0660 -0.1203 -0.1692
97662W        W40600  12.407  34.430   6.711 -0.1095 -0.0291  0.2121
97663W        W40601  12.113  33.136   3.727  0.1031 -0.0458  0.0528
97664W        W40602  11.578   0.727   7.418 -0.0022 -0.2142 -0.1753
97665W        W40603  13.784  33.254   6.855 -0.1484  0.1510 -0.0602
97666W        W40604  12.769  34.435   4.259  0.0664 -0.1866 -0.2385
97667W        W40605  12.177   0.993   6.018 -0.4590  0.0960  0.1969
97668W        W40606  13.033  33.073   6.096 -0.3700  0.0103 -0.0254
97669W        W40607  12.129  34.191   5.940  0.0349 -0.3340  0.1243
97670W        W40608  11.048  33.633   4.606  0.0140  0.0455  0.2719
97671W        W40609  15.239  33.624   5.897 -0.3416  0.0177  0.0102
97672W        W40610  12.063   0.073   6.834  0.3398 -0.1769 -0.0531
97673W        W40611  12.927  33.321   6.489  0.1296  0.1233 -0.0746
97674W        W40612  12.712  34.655   5.841  0.1193  0.5300  0.0191
97675W        W40613  14.636  32.609   5.554  0.1680  0.0573  0.0824
97676W        W40614  12.265  34.602   7.682 -0.2506  0.0543  0.1808
97677W        W40615  12.747  34.132   3.848  0.0146 -0.3062 -0.2233
97678W        W40616  14.638   1.340   6.446 -0.0183  0.0345  0.0988
97679W        W40617  14.549  33.803   4.068  0.2292  0.1611 -0.0414
97680W        W40618  12.876  31.675   5.113  0.3090  0.2067  0.5773
97681W        W40619  12.574  33.765   4.558  0.1027 -0.1013  0.1172
97682W        W40620  11.898  33.714   5.973  0.2131 -0.3745 -0.0076
97683W        W40621  13.840   0.699   6.699 -0.2108 -0.1452  0.0135
97684W        W40622  11.927  31.951   5.703  0.0332 -0.1424  0.4379
97685W        W40623  14.675  34.155   4.395 -0.0309  0.0785  0.0494
97686W        W40624  14.232  34.529   5.451  0.4193  0.4477  0.3001
97687W        W40625  10.637  34.063   6.125  0.0402  0.2219 -0.4719
97688W        W40626  13.640  30.659   3.798 -0.3559 -0.0232  0.0687
97689W        W40627  12.488  33.093   6.303 -0.1389 -0.5205  0.2142
97690W        W40628  13.066  34.338   5.967 -0.0074 -0.0217 -0.0759
97691W        W40629  12.125  33.190   7.228  0.1269 -0.3411  0.1150
97692W        W40630  13.288  31.761   6.348 -0.0546  0.0255 -0.1070
97693W        W40631  11.909  33.375   4.703 -0.2305 -0.0628  0.1173
97694W        W40632  12.769  33.258   5.313  0.0258  0.0227 -0.0121
97695W        W40633  15.325  31.865   5.392  0.3036  0.3250 -0.0103
97696W        W40634  14.178  32.206   5.478  0.1204  0.1069  0.2067
97697W        W40635  12.368  34.250   7.222 -0.1084 -0.3329  0.0109
97698W        W40636  11.820  32.109   3.922 -0.0160  0.1297  0.2373
97699W        W40637  11.800  33.689   8.174 -0.0002  0.1776 -0.0960
97700W        W40638  10.412  33.981   7.214  0.1548 -0.1377  0.1975
97701W        W40639  12.070  34.361   5.420 -0.0052 -0.4059  0.3883
97702W        W40640  12.294  32.395   4.048 -0.0306  0.2935  0.2416
97703W        W40641  12.030  32.478   5.653  0.3524 -0.1105 -0.2409
97704W        W40642  11.296  32.280   4.632  0.1497  0.0051 -0.0102
97705W        W40643  12.118  32.404   6.237 -0.2344 -0.2213  0.1869
97706W        W40644  13.354  33.271   7.160 -0.2608  0.1639 -0.2473
97707W        W40645  12.231  33.861   6.927  0.2711 -0.1466  0.5458
97708W        W40646  11.801   0.084   5.965 -0.0865 -0.2134  0.1342
97709W        W40647  11.817  34.561   6.419 -0.0894  0.0007  0.0895
97710W        W40648  10.530  33.085   6.520  0.2534 -0.1036  0.0713
97711W        W40649  14.180  31.928   6.393 -0.0291  0.1100 -0.0153
97712W        W40650  14.876  34.368   4.903  0.2166  0.0749  0.0287
97713W        W40651  11.296  32.882   7.103 -0.1334  0.0098 -0.3739
97714W        W40652  11.775  32.889   5.552  0.1029 -0.0169  0.0724
97715W        W40653  12.986  32.364   5.941 -0.1924 -0.2149 -0.0380
97716W        W40654  12.494  34.082   6.350  0.1653  0.0505  0.1814
97717W        W40655  12.444   0.146   4.502  0.1092 -0.0750 -0.0854
97718W        W40656  12.427   0.314   6.634 -0.1077  0.0494  0.0189
97719W        W40657  12.189   0.022   4.903 -0.0115  0.1429 -0.0047
97720W        W40658  15.090  34.464   4.148  0.2520  0.1632 -0.1280
97721W        W40659  11.882  32.669   6.943  0.0394  0.1842 -0.2381
97722W        W40660  12.850   0.913   4.906 -0.3017  0.0550  0.1867
97723W        W40661  13.063  34.603   5.406 -0.2549 -0.0931 -0.0175
97724W        W40662  12.675   0.944   7.596  0.1349 -0.1765  0.0498
97725W        W40663  10.591  33.370   4.327 -0.0057 -0.0105 -0.1846
97726W        W40664  13.176  33.613   4.497 -0.0003  0.0026  0.0503
97727W        W40665  11.757  34.608   7.806 -0.0972  0.0380  0.0534
97728W        W40666  13.172  32.649   7.252 -0.2072 -0.3377 -0.1008
97729W        W40667  14.272   1.428   7.707  0.0875  0.0313  0.1319
97730W        W40668   9.617  32.903   8.178 -0.1547 -0.0146  0.1050
97731W        W40669  13.843  34.396   8.059 -0.1094  0.1527  0.4874
97732W        W40670  10.844   0.172   9.377  0.0357  0.2670  0.0913
97733W        W40671  11.234  33.459   8.160 -0.0686 -0.0811  0.2433
97734W        W40672  10.825  32.903   9.324 -0.0748  0.1613  0.0835
97735W        W40673  13.149   1.168   9.931 -0.0531 -0.1414 -0.0641
97736W        W40674  11.030  34.584   8.534 -0.1206  0.1605  0.1872
97737W        W40675  10.419   0.204   7.750  0.0911 -0.0685  0.0386
97738W        W40676  11.741  32.359   8.500  0.0834  0.0721 -0.0201
97739W        W40677   9.403   0.580  11.566 -0.3343 -0.4472 -0.0565
97740W        W40678  11.763  33.920   8.594 -0.0008  0.0085  0.3040
97741W        W40679  10.555   0.044   8.456  0.0990  0.2188 -0.0660
97742W        W40680  12.510   0.682   9.839  0.0800 -0.1668  0.1843
97743W        W40681  11.281  31.198   9.981  0.0631 -0.0366 -0.0256
97744W        W40682  12.849   0.482  10.172  0.0795  0.1771 -0.3512
97745W        W40683  11.190   1.043   9.240  0.1273  0.0086  0.2887
97746W        W40684  12.996   0.784   8.482  0.3197  0.0974 -0.2524
97747W        W40685  12.942  32.689   8.188 -0.3183 -0.1898 -0.1405
97748W        W40686  12.250  33.705   8.020  0.2113  0.1314 -0.1814
97749W        W40687  12.145  32.948   7.955 -0.1258 -0.0218  0.3258
97750W        W40688  11.001  32.619   8.886 -0.4290  0.2480 -0.1641
97751W        W40689  13.179  32.949   9.466 -0.2086 -0.2657 -0.1947
97752W        W40690  13.102   0.283   7.766  0.1858  0.1602  0.2042
97753W        W40691  13.931  32.350   8.816  0.0243  0.0299  0.1826
97754W        W40692  10.250  32.881   9.946  0.0936 -0.0457 -0.1763
97755W        W40693  10.313   0.901   9.009  0.0299  0.0205  0.0060
97756W        W40694  10.455  32.095   7.437 -0.0345  0.3073  0.1373
97757W        W40695  14.712  34.362   7.146  0.0036 -0.0734 -0.0144
97758W        W40696  13.121  32.716   7.761  0.0370 -0.2379 -0.1656
97759W        W40697  11.866  33.891  10.025  0.0485  0.1189 -0.0000
97760W        W40698  13.623  33.590   7.489 -0.3055  0.0248  0.0363
97761W        W40699   9.172  32.662   9.280 -0.0761 -0.2037  0.2420
97762W        W40700  13.543  34.528   6.859 -0.3353  0.2509 -0.1157
97763W        W40701  13.428  32.317   7.901  0.1652 -0.4050  0.0288
97764W        W40702  16.282  33.357   8.367 -0.0851 -0.0773 -0.2742
97765W        W40703  10.096  33.319   9.695  0.0015 -0.1634  0.1137
97766W        W40704  10.515  34.383   8.784 -0.3877  0.2084  0.3450
97767W        W40705  12.123  33.580   9.414 -0.0888  0.1412 -0.0840
97768W        W40706  10.583  32.751   7.896 -0.2315  0.2866 -0.1684
97769W        W40707  14.275  32.851   8.807  0.0286 -0.3146 -0.1182
97770W        W40708  13.603  34.592   8.842  0.2021 -0.2752  0.1392
97771W        W40709  11.443  31.480  10.680  0.1901 -0.3745  0.0125
97772W        W40710  10.597  33.851   9.240 -0.0777 -0.0301  0.2742
97773W        W40711  10.873  33.417   9.256  0.1157 -0.0356  0.1161
97774W        W40712  13.133  34.425   9.407  0.1306 -0.1379 -0.0409
97775W        W40713  11.283  33.029   8.869 -0.1449  0.1596  0.0666
97776W        W40714  10.769   0.679   7.753 -0.0049  0.2680 -0.0838
97777W        W40715  14.875  32.123   9.294  0.0102  0.0660 -0.1168
97778W        W40716  10.472  34.461   7.575 -0.2707  0.0344 -0.2418
97779W        W40717  13.460  32.802   8.159 -0.0951 -0.0168 -0.2888
97780W        W40718  14.778  32.400   6.971  0.1148 -0.7678 -0.0387
97781W        W40719  12.607  31.367   7.212 -0.1041  0.1574  0.1155
97782W        W40720  11.948  33.346   7.786 -0.1039  0.0496 -0.1066
97783W        W40721  13.104  33.188   8.340  0.1027  0.1705 -0.2154
97784W        W40722  13.505  32.445   9.006 -0.3005  0.1346 -0.1964
97785W        W40723  13.280  33.917   7.662  0.0442  0.1592  0.2661
97786W        W40724  12.323  32.904   8.947 -0.0930 -0.0747 -0.1560
97787W        W40725  14.395  32.731   8.073 -0.0184  0.1431 -0.2037
97788W        W40726  14.688   0.065   9.168 -0.2477  0.3184 -0.1609
97789W        W40727  14.147  33.506   7.547 -0.1488 -0.0405  0.2220
97790W        W40728  14.311  34.673   9.526 -0.0385 -0.0080  0.0213
97791W        W40729  11.983  34.133   8.096  0.2426  0.0866  0.1465
97792W        W40730  11.789  31.270   9.910  0.0826 -0.3426 -0.0462
97793W        W40731  13.337  33.131   7.678 -0.2533 -0.0858 -0.0580
97794W        W40732  12.555  33.168   8.127 -0.0632 -0.0393  0.1543
97795W        W40733  12.197  31.495   9.712 -0.0924 -0.1182  0.2257
97796W        W40734  11.612   0.221   8.209  0.1080 -0.1767 -0.1706
97797W        W40735  10.435   0.496   9.285  0.1952 -0.0212 -0.1538
97798W        W40736  13.312  33.064   8.991  0.0053 -0.0918  0.2278
97799W        W40737  11.582  33.293   8.499 -0.3847 -0.2975 -0.0129
97800W        W40738  12.908  33.993   9.196  0.1351  0.2688 -0.0204
97801W        W40739  12.848  32.304   6.927  0.1039  0.2240  0.0987
97802W        W40740  10.911  34.037   8.899 -0.0288 -0.3230 -0.0301
97803W        W40741  13.438  33.490   8.032  0.1123 -0.1971  0.1980
97804W        W40742  11.245  34.654   9.100 -0.0485 -0.1032  0.2840
97805W        W40743  12.590   0.417   8.437  0.3049  0.2332 -0.0065
97806W        W40744  12.885   2.170   9.627 -0.1928 -0.0328  0.0596
97807W        W40745   9.877   0.904   8.677  0.1635  0.1414 -0.1361
97808W        W40746  11.389  34.259   8.837  0.2206  0.0433 -0.0505
97809W        W40747  12.250  34.685   9.160 -0.0208 -0.1718 -0.1126
97810W        W40748  12.421  34.523   9.706  0.3178 -0.0132 -0.1418
97811W        W40749  13.731  32.390   9.463  0.2746 -0.1868 -0.1048
97812W        W40750  11.409  33.547   8.892  0.1788 -0.0144  0.1006
97813W        W40751  13.845  34.502   7.545 -0.0355 -0.1730  0.2110
97814W        W40752  13.160   0.020   9.019  0.2069 -0.1007 -0.3421
97815W        W40753  14.094  34.024   9.481  0.0781  0.0437 -0.0323
97816W        W40754  11.599   1.293  10.060 -0.1049 -0.2474 -0.0308
97817W        W40755  12.473  34.099   8.213  0.0758 -0.0221 -0.1922
97818W        W40756  11.266  32.665   7.578  0.0358 -0.0806  0.3293
97819W        W40757  12.122   0.752   8.643  0.0246  0.0186  0.0474
97820W        W40758  13.545  33.670   8.533 -0.1998 -0.2981  0.1096
97821W        W40759  10.026   0.333   9.982 -0.0137  0.0798  0.0103
97822W        W40760  14.058  33.971   8.228  0.0382 -0.1271 -0.0920
97823W        W40761  13.076   0.719  10.541  0.4649  0.2526 -0.0442
97824W        W40762  14.736  34.323   7.765 -0.0868  0.0020  0.1618
97825W        W40763  12.979  33.384   9.809  0.4694  0.1064  0.1411
97826W        W40764  13.156   0.350   9.389 -0.1897  0.0343  0.2034
97827W        W40765  13.588  33.969   8.098  0.0703  0.2937  0.4277
97828W        W40766  12.010  32.354   9.766 -0.1314  0.3124  0.0445
97829W        W40767  10.848  32.370   7.713  0.0299  0.1934  0.1429
97830W        W40768  13.940  33.697   9.100  0.1081 -0.1114  0.2783
97831W        W40769  10.380   0.078   9.073 -0.2316  0.1931  0.2764
97832W        W40770  10.884  33.539   8.776 -0.1256 -0.3028 -0.1531
97833W        W40771  12.223   0.502   9.108  0.2837  0.1604  0.1250
97834W        W40772  12.185  32.513   8.215 -0.0674 -0.3433 -0.2997
97835W        W40773  12.692  33.555   8.411  0.0909  0.0942  0.4005
97836W        W40774  12.303  32.554   9.296 -0.3432 -0.0257 -0.2774
97837W        W40775  13.971   0.215   9.841  0.1355  0.2707  0.2710
97838W        W40776  16.818   1.205   9.719  0.0053  0.4178  0.3474
97839W        W40777  11.876   0.051   9.536 -0.0666 -0.2371 -0.0845
97840W        W40778  12.196  33.231   8.492 -0.3972 -0.1530 -0.0057
97841W        W40779  11.372  32.766   8.382 -0.1157  0.1399 -0.0210
97842W        W40780  13.584  34.207   7.289  0.1227 -0.3758  0.0666
97843W        W40781  16.082  34.433   7.744 -0.0046 -0.0983 -0.0126
97844W        W40782  14.614  33.006   8.346  0.1875  0.0318  0.1554
97845W        W40783  12.784  34.112   9.738  0.0367 -0.1510 -0.1406
97846W        W40784  12.959  33.517   7.416  0.2207 -0.0051 -0.1195
97847W        W40785  10.057   0.173   8.263  0.1304  0.0417 -0.2298
97848W        W40786  10.847   0.251   8.889  0.2123  0.0635 -0.3802
97849W        W40787  13.268  33.999   8.783  0.0291 -0.0373 -0.0947
97850W        W40788  12.312   0.282   9.604 -0.1368  0.2546 -0.0470
97851W        W40789   9.569   0.253   8.009 -0.0538 -0.1032  0.0259
97852W        W40790  14.353  33.257   7.127  0.2826 -0.1316 -0.1687
97853W        W40791  13.050   0.680   9.032  0.1356 -0.3942  0.0679
97854W        W40792  11.381   0.713   7.928 -0.1359 -0.1181 -0.0703
97855W        W40793  14.577  32.775   7.209 -0.1569  0.3081  0.0735
97856W        W40794  13.906  32.952   9.624 -0.1871  0.0350  0.1988
97857W        W40795  12.964  34.399   8.536  0.4098 -0.1179  0.1192
97858W        W40796  13.940  34.011   7.727 -0.1337 -0.2001  0.1135
97859W        W40797  10.924  33.352   7.743  0.3092 -0.3375  0.2316
97860W        W40798  12.922  33.397   7.902  0.1565  0.0612 -0.1582
97861W        W40799  10.127   1.359   8.838 -0.2581  0.2783 -0.4328
97862W        W40800  12.313   0.989   9.296  0.0858  0.1418  0.0515
97863W        W40801  12.618  33.627   9.480  0.1329 -0.4217  0.3648
97864W        W40802  16.219  34.117   7.374  0.0600  0.0206  0.0469
97865W        W40803  14.224  34.062   8.780  0.2687 -0.4397  0.2094
97866W        W40804  11.532  34.381   9.382  0.2473 -0.2785 -0.0620
97867W        W40805  11.568  34.175   7.764 -0.2275  0.2594 -0.0152
97868W        W40806  10.515  33.189   8.138  0.1525  0.2612 -0.0633
97869W        W40807  15.759  32.190   9.925  0.0592  0.0182  0.1314
97870W        W40808  11.739   0.362   9.063 -0.2134 -0.1063 -0.0513
97871W        W40809  11.800  34.471   8.995 -0.0522 -0.0483  0.2597
97872W        W40810  13.327  31.857   7.715 -0.0445  0.3483  0.1403
97873W        W40811  13.840  33.109   7.887 -0.0341  0.0225 -0.0410
97874W        W40812  11.992   1.994   9.109  0.0994  0.1242 -0.0208
97875W        W40813  10.815   0.862   7.002 -0.3117  0.0136 -0.0720
97876W        W40814  10.957   1.545   9.327  0.1345  0.2490  0.1662
97877W        W40815  11.171  33.933   9.321 -0.0798  0.1504 -0.0743
97878W        W40816  13.346  33.669   9.148 -0.0175 -0.1222 -0.0298
97879W        W40817  22.291  33.273  12.141  0.2929  0.2571 -0.3248
97880W        W40818  12.717  33.902   7.842 -0.2840 -0.0140 -0.0813
97881W        W40819  10.940  33.146   8.432  0.0281 -0.0165  0.0489
97882W        W40820  13.483  34.633   8.325  0.0212  0.2333 -0.2805
97883W        W40821  10.514  32.120  10.874 -0.0908  0.1233 -0.0253
97884W        W40822  15.720  31.465   8.378  0.1428 -0.1095 -0.2851
97885W        W40823  13.920   0.240   8.138  0.1513  0.0093  0.1931
97886W        W40824  11.000   0.622   9.534  0.1780  0.0301 -0.1099
97887W        W40825  14.603  33.508   8.256  0.1902  0.1004  0.1016
97888W        W40826  10.595   0.379   9.819  0.2753  0.4196  0.0792
97889W        W40827  12.684   0.030   9.347 -0.0254 -0.2087  0.3065
97890W        W40828  11.187   0.631   8.857 -0.0233 -0.1152 -0.1228
97891W        W40829  14.337   0.660   8.377  0.5865 -0.1353  0.1172
97892W        W40830  10.640  33.286   9.775  0.1180  0.0189  0.1098
97893W        W40831  10.840   0.312   8.093  0.1906  0.0674  0.1933
97894W        W40832  12.463  34.616   8.363 -0.2153  0.0452 -0.1126
97895W        W40833  15.259  34.198   8.726 -0.0894 -0.2257 -0.0249
97896W        W40834  10.214  33.066   8.896  0.1381 -0.4297 -0.0184
97897W        W40835  12.604  32.697   7.809 -0.0949  0.0813  0.0718
97898W        W40836  15.409   3.017   4.190  0.1483  0.1612 -0.1217
97899W        W40837  16.529   0.646   1.816  0.0850  0.0645  0.1532
97900W        W40838  18.321   0.860  31.752  0.0842  0.3678 -0.3382
97901W        W40839  19.452  34.604   1.222  0.0189 -0.1844  0.1619
97902W        W40840  14.953  33.093   1.472  0.1311 -0.0380  0.0212
97903W        W40841  17.137   3.880  31.964 -0.1555  0.3489  0.2215
97904W        W40842  14.977  32.424   1.833  0.3368  0.0830 -0.2251
97905W        W40843  16.320   3.146   1.772  0.1151 -0.1686  0.0420
97906W        W40844  19.014   3.263   3.557  0.1972 -0.0023 -0.0926
97907W        W40845  16.743   2.162   1.016  0.1281  0.2706 -0.0285
97908W        W40846  15.816  33.860   1.688 -0.0671 -0.1186  0.1234
97909W        W40847  15.579   2.390   2.442  0.1628  0.1189  0.2725
97910W        W40848  16.180  34.534   1.692  0.4215  0.2238 -0.0694
97911W        W40849  13.714  33.509   0.886  0.2290 -0.1327  0.0915
97912W        W40850  17.573   1.496   1.876 -0.2106  0.0178  0.0374
97913W        W40851  16.395   2.332   0.701 -0.1545 -0.1198  0.0230
97914W        W40852  16.767   0.976   2.234 -0.2540  0.1481  0.2468
97915W        W40853  18.654   1.321   0.338 -0.5269 -0.0814  0.2089
97916W        W40854  16.804   2.747   0.516 -0.2416 -0.2933  0.0897
97917W        W40855  16.036   0.563   2.732  0.3722 -0.0776  0.1242
97918W        W40856  18.175  33.484   3.331 -0.0562 -0.0361 -0.0314
97919W        W40857  15.987   0.851   0.909 -0.0207 -0.2308 -0.0729
97920W        W40858  15.870   0.935  31.129 -0.0979  0.1411  0.0658
97921W        W40859  16.062   1.822   0.970 -0.0504  0.2440  0.2656
97922W        W40860  16.898   0.990   1.721 -0.1111 -0.1262 -0.2910
97923W        W40861  16.646  34.141   3.306 -0.0455  0.1897  0.1107
97924W        W40862  18.004   2.786   2.982 -0.0780 -0.0112  0.0936
97925W        W40863  15.863   2.989   1.805 -0.0024 -0.1264 -0.0201
97926W        W40864  17.305   2.910   1.896 -0.1916  0.1007  0.1224
97927W        W40865  16.851   1.502   3.596  0.1498  0.2611  0.1539
97928W        W40866  13.813   2.868   1.500  0.1869  0.1357 -0.0290
97929W        W40867  15.318   4.497   2.551  0.0635  0.0096 -0.2277
97930W        W40868  15.278   2.106   0.914  0.3195 -0.1654 -0.1977
97931W        W40869  19.035   2.072   0.937  0.1206 -0.3523 -0.0546
97932W        W40870  17.920   3.593   2.479 -0.0815 -0.0322 -0.1685
97933W        W40871  17.209   4.767   3.957  0.1425  0.2930  0.3207
97934W        W40872  16.183   2.742   0.481 -0.3000  0.0547  0.0505
97935W        W40873  17.383   4.168   2.912 -0.2230  0.1804 -0.0587
97936W        W40874  15.761   3.296   3.292  0.1729  0.0574  0.3019
97937W        W40875  17.325   0.791   1.368 -0.0554  0.1851 -0.1262
97938W        W40876  16.555   1.857   0.620  0.0390  0.1152 -0.0477
97939W        W40877  15.293   2.620   0.529 -0.0735  0.2858  0.0940
97940W        W40878  18.101   3.870   1.312  0.1208 -0.2444  0.0425
97941W        W40879  15.580   1.879   2.552 -0.1952 -0.2073 -0.1011
97942W        W40880  15.301   2.678   1.035 -0.2635 -0.2122  0.2032
97943W        W40881  16.498  34.358   3.698  0.0449 -0.3114 -0.0520
97944W        W40882  15.258   2.827  30.646  0.0148  0.1411  0.0281
97945W        W40883  18.316   1.576   0.629  0.1469  0.1383 -0.3551
97946W        W40884  16.109   1.116   0.491  0.1690 -0.2980  0.1272
97947W        W40885  18.685  34.471   0.943  0.0987  0.2610  0.0057
97948W        W40886  15.506  32.976   1.239 -0.1172 -0.0198 -0.3671
97949W        W40887  16.118   2.683   0.965  0.1878  0.2952  0.0507
97950W        W40888  15.480   0.654   1.558  0.1963 -0.1730 -0.3532
97951W        W40889  17.024   2.828   2.407 -0.2955 -0.0876 -0.1673
97952W        W40890  16.795   0.554   0.159  0.0146  0.3260  0.1922
97953W        W40891  16.149  34.209   2.600  0.1459  0.1043  0.1473
97954W        W40892  15.464   2.757   2.741  0.0457 -0.0468 -0.0306
97955W        W40893  15.362   2.093   0.432 -0.0070 -0.0137  0.0399
97956W        W40894  19.493   2.356  31.855  0.0033 -0.0585 -0.4112
97957W        W40895  18.173   3.030   1.109 -0.3096  0.2032  0.0777
97958W        W40896  15.777   3.316  31.844  0.1135 -0.3761  0.1669
97959W        W40897  16.287   0.628   2.284  0.1713  0.2479  0.4827
97960W        W40898  14.944   1.551   1.975  0.3045 -0.1716 -0.0129
97961W        W40899  14.415   0.295   3.914  0.0866  0.1404 -0.4586
97962W        W40900  14.666   0.865  31.535 -0.0851  0.0647 -0.0717
97963W        W40901  17.931   2.302   3.164  0.1381  0.3130 -0.1014
97964W        W40902  14.448   2.689   2.833 -0.0901  0.2485 -0.1188
97965W        W40903  18.674   0.917   1.791 -0.2830  0.2239 -0.2514
97966W        W40904  15.876   1.987   2.155  0.2439  0.1293  0.0189
97967W        W40905  18.974   1.288   1.548  0.1028 -0.1491 -0.0200
97968W        W40906  16.841   1.613  31.694  0.1329 -0.1485 -0.2131
97969W        W40907  17.063  34.053   1.261  0.1223  0.2109  0.4243
97970W        W40908  16.737  34.588   3.286 -0.0534 -0.1655  0.0945
97971W        W40909  15.828   0.696  31.899 -0.1086  0.3274 -0.0790
97972W        W40910  17.355   2.419   0.403 -0.1047 -0.0424  0.0504
97973W        W40911  18.668   2.713   2.897  0.0295 -0.0248  0.3389
97974W        W40912  18.734   2.920  31.612  0.0891 -0.2003 -0.2394
97975W        W40913  14.473   3.187   2.929 -0.0822 -0.1109  0.1628
97976W        W40914  15.772   0.832   3.568  0.1808 -0.0117 -0.1677
97977W        W40915  16.159   3.331   3.060  0.0293  0.0447  0.1159
97978W        W40916  15.855   1.471  31.958  0.1427  0.0760 -0.0715
97979W        W40917  14.720   3.614   0.975  0.1450 -0.0829  0.2982
97980W        W40918  15.760   2.538   0.202 -0.0667 -0.4348 -0.0331
97981W        W40919  14.439   0.683   1.809 -0.0256  0.2287 -0.1921
97982W        W40920  16.536   1.841   1.341  0.2834 -0.0606 -0.1504
97983W        W40921  16.651  34.589   1.608  0.1211  0.1131  0.0316
97984W        W40922  15.346  33.091   1.773 -0.0314 -0.2776 -0.0117
97985W        W40923  18.063   0.345   1.068  0.3326 -0.0238  0.1060
97986W        W40924  16.398   1.487   0.995  0.0465 -0.0169 -0.1820
97987W        W40925  18.728   3.057  31.115 -0.0060  0.1559 -0.0917
97988W        W40926  18.362   1.667  30.896  0.0659 -0.0639 -0.1466
97989W        W40927  19.760   2.683  31.360  0.2500 -0.0350  0.3982
97990W        W40928  15.186   0.153   3.301  0.0619  0.0815 -0.2038
97991W        W40929  13.864   0.747   1.685  0.2170 -0.1506 -0.0547
97992W        W40930  15.893   1.037   2.863 -0.0873  0.1732  0.3172
97993W        W40931  14.982   0.632   1.688 -0.2255 -0.0572 -0.2643
97994W        W40932  17.456   1.447   3.420  0.0115  0.1281 -0.1553
97995W        W40933  18.189  34.271   0.802  0.2918 -0.0993  0.3408
97996W        W40934  17.446   0.474  31.536  0.0507 -0.1042  0.1000
97997W        W40935  16.090   1.463   1.421 -0.0190  0.2847 -0.2998
97998W        W40936  15.709   2.850   0.699  0.2217 -0.0005 -0.0832
97999W        W40937  18.310   0.512   1.476 -0.1033  0.1492 -0.2036
98000W        W40938  18.215   3.515   0.885 -0.1763 -0.2021  0.0523
98001W        W40939  18.889   2.579   3.484 -0.2471  0.0894  0.3095
98002W        W40940  18.187   2.591   2.039  0.0886 -0.4376 -0.1636
98003W        W40941  16.712   1.476   1.811  0.0800  0.0135 -0.0480
98004W        W40942  14.585   0.590   0.012 -0.0619 -0.3907  0.0271
98005W        W40943  15.050   4.200   2.267 -0.0358 -0.1616 -0.3703
98006W        W40944  16.545   3.582   2.115 -0.4630  0.1081 -0.1387
98007W        W40945  15.840   0.458   1.132 -0.1219 -0.1219 -0.1860
98008W        W40946  19.918   0.941   1.482  0.1915 -0.2413  0.0459
98009W        W40947  17.706   1.783   0.088 -0.2452  0.0782  0.2806
98010W        W40948  15.717   2.110   1.202 -0.0954  0.4687 -0.0326
98011W        W40949  17.064  34.296   2.706 -0.2089 -0.0566  0.1717
98012W        W40950  17.899   0.459   3.214  0.0970 -0.0289 -0.2218
98013W        W40951  18.320   0.086   1.791  0.3854  0.0747  0.0913
98014W        W40952  13.756   1.569  31.308  0.2930  0.0263  0.0498
98015W        W40953  16.628   2.271   1.507  0.0844 -0.0883  0.2314
98016W        W40954  16.227   4.074   0.297  0.0732  0.0204 -0.0280
98017W        W40955  15.642   1.181   1.490 -0.2522 -0.1142  0.3677
98018W        W40956  16.251   1.846   2.447 -0.1192  0.0956  0.1276
98019W        W40957  16.583  34.162   1.276 -0.0956  0.0348  0.1815
98020W        W40958  15.493   1.590   3.433 -0.0339  0.1261  0.2084
98021W        W40959  15.971   1.770   3.503 -0.1075 -0.0414 -0.3869
98022W        W40960  16.300   1.688   1.955 -0.1195  0.2327  0.0322
98023W        W40961  15.845   2.249   2.863 -0.3305 -0.0697 -0.0379
98024W        W40962  15.939   0.146  31.774 -0.2643  0.1860 -0.1204
98025W        W40963  19.278   1.037  31.233 -0.1547 -0.0767  0.0817
98026W        W40964  17.191   0.392   4.145 -0.0126  0.2651 -0.0345
98027W        W40965  18.386   1.682   0.144 -0.0362 -0.0599 -0.0212
98028W        W40966  16.385   1.396   0.042  0.0803 -0.1461  0.2553
98029W        W40967  16.630   1.106  31.728 -0.0709 -0.0729 -0.2737
98030W        W40968  15.027   2.295   2.383 -0.3395 -0.1634 -0.0120
98031W        W40969  17.795   2.897   1.389  0.2003 -0.0407 -0.0545
98032W        W40970  16.848   1.211   2.672  0.0878  0.2248  0.1506
98033W        W40971  17.390   1.426  31.375 -0.0922  0.2030 -0.1231
98034W        W40972  18.156   3.631   0.114 -0.1033 -0.2954  0.1198
98035W        W40973  15.463   2.987   1.479 -0.2548 -0.0235 -0.4070
98036W        W40974  16.202   2.158   3.299  0.1020  0.0025  0.5397
98037W        W40975  18.523   1.603   2.799  0.0227 -0.1623  0.0041
98038W        W40976  16.851  33.297   0.576  0.0451 -0.0950  0.2171
98039W        W40977  17.389   0.941  31.385 -0.2359 -0.1546 -0.0104
98040W        W40978  17.424   0.330   1.505  0.0945 -0.0253 -0.0457
98041W        W40979  13.035   3.458   0.523  0.1626 -0.1434  0.0408
98042W        W40980  17.858   0.332   2.376 -0.3839 -0.2733 -0.0778
98043W        W40981  16.616  34.073   2.802 -0.2692 -0.1648 -0.1656
98044W        W40982  18.137  33.121   3.032  0.2969 -0.1440 -0.1624
98045W        W40983  18.561   0.567   3.477  0.1209  0.1267 -0.2558
98046W        W40984  16.797   0.834   1.209 -0.1898  0.0813 -0.1763
98047W        W40985  17.471   1.041   1.801 -0.2791 -0.0699  0.0427
98048W        W40986  16.591   1.196  30.786 -0.1671  0.2925  0.0338
98049W        W40987  17.318  34.680   3.867  0.1029 -0.0545 -0.5262
98050W        W40988  14.634   2.253   3.103 -0.2854  0.0125  0.0399
98051W        W40989  15.977   4.551   2.558 -0.0175  0.1706  0.2711
98052W        W40990  17.397   3.478   3.138 -0.1095  0.3086  0.0128
98053W        W40991  19.144   1.511   0.565  0.0370  0.1236  0.1766
98054W        W40992  17.687   0.439   4.277  0.1022 -0.2186  0.2279
98055W        W40993  15.985  34.655   1.162  0.2935 -0.0418  0.1988
98056W        W40994  16.431   3.687   0.522 -0.1019  0.2937 -0.1471
98057W        W40995  16.293   2.225   1.952 -0.1222 -0.1366  0.3213
98058W        W40996  16.085  32.766   1.911  0.0303 -0.0938 -0.0723
98059W        W40997  16.158   2.383   2.440  0.2164  0.0456 -0.1243
98060W        W40998  17.433   3.299   0.499 -0.5258  0.3159  0.3267
98061W        W40999  17.132   0.637   2.745 -0.1098  0.3640 -0.1593
98062W        W41000  15.242   5.104   1.326  0.1705  0.0582  0.2157
98063W        W41001  18.552   0.387   1.053  0.2661  0.1106  0.0858
98064W        W41002  16.314   2.633   1.540  0.4822  0.1152 -0.1514
98065W        W41003  15.087   0.972   1.241  0.3795 -0.0705  0.1001
98066W        W41004  14.993   1.300   0.609 -0.0498 -0.1893  0.3071
98067W        W41005  16.871  34.324   1.939 -0.3631 -0.0326 -0.2717
98068W        W41006  19.366   2.378  31.346 -0.1812 -0.2630 -0.1736
98069W        W41007  16.710   0.427   0.694 -0.1585 -0.0269 -0.1889
98070W        W41008  16.593  34.334   2.379 -0.1323  0.0154  0.4683
98071W        W41009  15.673   2.851   2.268  0.3663 -0.2712 -0.0373
98072W        W41010  16.276   0.133   3.191  0.2337  0.1064  0.0397
98073W        W41011  16.805  34.494  31.777 -0.1889  0.1018  0.1411
98074W        W41012  16.641   2.580   2.078 -0.1079 -0.3851 -0.1613
98075W        W41013  15.895   1.353   3.740 -0.0216  0.1272  0.0140
98076W        W41014  14.313   2.449   0.217  0.1482  0.0482  0.2196
98077W        W41015  17.236  34.406   4.275  0.2236 -0.0831  0.1354
98078W        W41016  17.621   2.022   1.585  0.2305  0.2629 -0.1456
98079W        W41017  17.431   3.423   1.048 -0.0873  0.1682  0.2045
98080W        W41018  16.455   2.007   2.856  0.2015  0.2217  0.1812
98081W        W41019  15.544   0.846   1.111  0.3389 -0.0049 -0.1435
98082W        W41020  14.720   4.171   0.864 -0.3376 -0.0281  0.0930
98083W        W41021  16.788   0.475   2.407  0.1382  0.0792  0.0033
98084W        W41022  17.094   0.623   1.929  0.1038  0.1202 -0.0079
98085W        W41023  16.533   0.040   1.041  0.0520  0.0662 -0.0718
98086W        W41024  15.576   1.070   0.640 -0.2926  0.1623 -0.0120
98087W        W41025  17.220   1.853   1.269 -0.2634  0.0518  0.3417
98088W        W41026  16.878   2.703   1.613  0.0943  0.2203 -0.2641
98089W        W41027  17.219   1.053   3.164  0.0352  0.2388 -0.0409
98090W        W41028  14.400   2.649   3.531 -0.2271  0.2093  0.0969
98091W        W41029  17.517  34.423   1.503  0.0663  0.0519 -0.1127
98092W        W41030  19.120   5.149   0.201 -0.0164 -0.1041  0.1140
98093W        W41031  18.607   0.862   2.713 -0.1801 -0.0896 -0.4196
98094W        W41032  14.736   2.693   0.607 -0.5780  0.1209 -0.0758
98095W        W41033  14.690   1.994   3.556 -0.0442  0.2263  0.0372
98096W        W41034  15.877   2.288   0.761 -0.1119 -0.1827 -0.0505
98097W        W41035  16.530  34.565   2.849 -0.0335  0.0406 -0.1697
98098W        W41036  15.381   2.645   1.831  0.1531  0.1994  0.1694
98099W        W41037  16.539   2.692   0.108  0.2525  0.0017 -0.1260
98100W        W41038  15.026   3.576   1.817  0.0252  0.3306  0.1452
98101W        W41039  18.304   1.409  31.653  0.1555  0.0405  0.2786
98102W        W41040  16.629   2.627   1.150 -0.3672 -0.0266  0.0795
98103W        W41041  16.958   0.047   0.187 -0.1339 -0.2857 -0.0282
98104W        W41042  18.258  33.933   2.624 -0.3993 -0.3510  0.1125
98105W        W41043  17.247   1.955   0.678  0.0286 -0.0853 -0.1973
98106W        W41044  15.938  34.474   3.874 -0.0179  0.1390 -0.4951
98107W        W41045  17.368  33.617   2.891  0.1119  0.0206 -0.1150
98108W        W41046  17.092   2.517   0.855  0.3400 -0.0553  0.2121
98109W        W41047  15.651   0.594   3.102 -0.0302  0.1133  0.0436
98110W        W41048  17.126   3.728   2.800 -0.1450 -0.2001  0.1928
98111W        W41049  14.644   1.870   2.798 -0.1162  0.0982  0.1347
98112W        W41050  17.795   1.322  31.702  0.3096  0.0970  0.0643
98113W        W41051  16.181   0.234   0.756 -0.1854  0.1144  0.0491
98114W        W41052  15.874   1.441   2.474 -0.1278  0.1419 -0.2192
98115W        W41053  18.165   1.609   2.381 -0.2537  0.1553 -0.2789
98116W        W41054  17.298   2.947   0.158 -0.0209  0.0164  0.0819
98117W        W41055  17.933  34.613   2.040  0.1505 -0.4950 -0.1970
98118W        W41056  15.249   1.919   1.393 -0.0055 -0.0778  0.0129
98119W        W41057  19.477   1.890   0.596  0.0639  0.4730  0.2271
98120W        W41058  18.041   2.301   1.652 -0.0795  0.2939 -0.3252
98121W        W41059  16.192   2.705   2.045  0.0007 -0.1992 -0.0602
98122W        W41060  15.687  33.987   2.702  0.1205  0.0736 -0.1292
98123W        W41061  17.912   1.144   2.596 -0.1340 -0.1450 -0.0741
98124W        W41062  17.133   0.279   1.042 -0.0267  0.1399  0.0960
98125W        W41063  16.467   1.144   4.031  0.1936 -0.0147 -0.3703
98126W        W41064  16.895   0.942   3.651  0.0128 -0.1582  0.0710
98127W        W41065  16.036   1.811   3.000 -0.1534 -0.1120 -0.2179
98128W        W41066  15.371   0.043   2.824 -0.0234 -0.0492 -0.0610
98129W        W41067  16.798   3.371   2.511 -0.1358 -0.0973  0.1520
98130W        W41068  18.208   1.229   0.136 -0.0036  0.1514 -0.1010
98131W        W41069  17.388   0.532   3.232  0.0730 -0.0736 -0.4682
98132W        W41070  17.828   2.302   0.655  0.0585  0.0511 -0.0594
98133W        W41071  16.958   0.883   0.635  0.2323 -0.1027  0.0175
98134W        W41072  14.952   2.425   1.875 -0.2494  0.1623  0.1352
98135W        W41073  18.224   1.590   3.493 -0.0177 -0.0845  0.0198
98136W        W41074  15.677  34.622  31.356  0.2363 -0.0036  0.2047
98137W        W41075  17.616   0.444   3.716  0.0770  0.1655  0.2727
98138W        W41076  16.213   4.321   0.742 -0.0360  0.1648 -0.1290
98139W        W41077  18.444   1.345   1.671  0.0976  0.1544  0.0742
98140W        W41078  18.316   2.398  31.769 -0.0375 -0.0814  0.1767
98141W        W41079  15.091   0.469   1.187 -0.1125 -0.1982 -0.1519
98142W        W41080  15.505   4.499   3.547 -0.0170  0.1937  0.1277
98143W        W41081  16.258   1.021   1.275 -0.2756 -0.0801 -0.0072
98144W        W41082  16.684   1.273   1.308 -0.0109 -0.2776  0.0037
98145W        W41083  17.081   1.617   2.570 -0.0168  0.0291  0.0578
98146W        W41084  16.812   2.050   2.415  0.3023 -0.1034 -0.3290
98147W        W41085  14.082  33.900   0.010  0.0751 -0.0929  0.0262
98148W        W41086  18.458   1.083   3.598 -0.2110  0.0005  0.2551
98149W        W41087  15.415   1.511   0.449  0.0210 -0.0113  0.0092
98150W        W41088  15.576  34.326   1.754 -0.0933 -0.0255 -0.1374
98151W        W41089  16.529   3.064   2.269 -0.1082  0.0086  0.1855
98152W        W41090  14.638   1.775   2.331  0.0594 -0.1502 -0.1450
98153W        W41091  15.996   3.231   2.207 -0.4364  0.0616  0.1269
98154W        W41092  16.495  32.701   2.346  0.2045  0.2768 -0.4189
98155W        W41093  18.766   1.653   0.938  0.3461  0.0689  0.1307
98156W        W41094  17.800   0.715   1.435 -0.0358  0.2023  0.3082
98157W        W41095  17.737   1.939   2.666  0.1400 -0.1294  0.1006
98158W        W41096  17.776   2.324   3.811 -0.1651  0.0281 -0.0075
98159W        W41097  15.598   1.594   1.214  0.0022  0.1381  0.2148
98160W        W41098  16.570   3.423   3.591  0.1820  0.1587  0.1261
98161W        W41099  18.514   1.103   1.233  0.0785  0.0403  0.2506
98162W        W41100  16.598   3.135   1.347  0.0913 -0.1190 -0.2221
98163W        W41101  15.080   2.087   3.272 -0.0747 -0.0659  0.0994
98164W        W41102  16.652   1.085   3.119  0.3054 -0.1698  0.2311
98165W        W41103  17.116   1.202   1.061 -0.1542 -0.0357 -0.3232
98166W        W41104  14.782   0.486   0.787 -0.2000  0.0362  0.1167
98167W        W41105  16.489   3.030   0.811 -0.1257  0.0024  0.2323
98168W        W41106  15.562   1.928   3.052 -0.0131 -0.2086  0.2525
98169W        W41107  15.910   1.350   1.980  0.1252  0.0471 -0.1747
98170W        W41108  14.763   5.151   1.035  0.3263 -0.2989  0.3226
98171W        W41109  18.215   2.940  30.842  0.2346 -0.0371  0.1309
98172W        W41110  17.784   0.413   1.941 -0.0150 -0.0123  0.3772
98173W        W41111  16.731   3.526   1.583 -0.0635  0.2411 -0.0644
98174W        W41112  17.344   0.364   0.075 -0.3428  0.1529 -0.5582
98175W        W41113  14.970   3.076   2.713  0.1858 -0.1566 -0.0952
98176W        W41114  13.865   3.040   1.017 -0.0189 -0.0838  0.2834
98177W        W41115  18.126   1.863  31.754  0.0360 -0.0024  0.1761
98178W        W41116  15.035   1.524   1.016 -0.1460  0.0779 -0.0317
98179W        W41117  16.591   1.484   2.295 -0.4472 -0.0154 -0.2480
98180W        W41118  19.246   0.066  31.087  0.0160 -0.0276 -0.1224
98181W        W41119  19.511   0.889   0.164 -0.1183  0.4953  0.3286
98182W        W41120  18.620   0.368  31.866 -0.0584  0.1061  0.0571
98183W        W41121  17.167   3.496   4.707  0.1500 -0.1196  0.0345
98184W        W41122  17.738   1.551   1.436  0.0511 -0.2773  0.1128
98185W        W41123  15.386   0.440  31.666  0.0897 -0.0207 -0.0813
98186W        W41124  14.152   1.784   2.334 -0.1525  0.3759  0.0813
98187W        W41125  18.208  33.993   3.179  0.2713  0.0379  0.0137
98188W        W41126  15.338   3.044   3.129  0.2370 -0.3756  0.0389
98189W        W41127  17.908   3.094   0.640  0.0815 -0.1455 -0.0336
98190W        W41128  14.699   0.987   0.944 -0.2913 -0.0028  0.2121
98191W        W41129  15.832   2.623   1.336  0.0151 -0.0150  0.0073
98192W        W41130  16.433  33.829   2.404  0.0977 -0.2380 -0.1924
98193W        W41131  16.619   2.124  31.957 -0.0479  0.1665 -0.1551
98194W        W41132  16.326   0.715   3.137 -0.0301  0.0886  0.1117
98195W        W41133  15.057   4.659   1.500 -0.2367 -0.3492 -0.0350
98196W        W41134  15.073   3.118   1.742  0.1695 -0.1856  0.1026
98197W        W41135  16.590   3.729   4.057 -0.1717 -0.0636 -0.1131
98198W        W41136  15.118   0.706  31.268 -0.2204 -0.3062  0.0785
98199W        W41137  17.960   1.214   2.107 -0.0842  0.0802  0.0324
98200W        W41138  15.383   2.406   1.445  0.1936  0.1199 -0.0401
98201W        W41139  16.974  34.631   2.302 -0.0918 -0.0261  0.1267
98202W        W41140  16.023   0.738   1.714  0.0846  0.1444 -0.1042
98203W        W41141  18.532   1.171  30.783  0.2725 -0.0254 -0.3087
98204W        W41142  16.203   1.100   2.353  0.1474 -0.1011 -0.0439
98205W        W41143  16.335   1.114   1.893  0.0953 -0.1405  0.0415
98206W        W41144  18.234   2.243   0.274 -0.0979 -0.2306 -0.0344
98207W        W41145  17.037   3.629   3.391  0.1192  0.0560 -0.0255
98208W        W41146  17.789  34.493  31.172  0.1814 -0.1147  0.0375
98209W        W41147  16.525   2.984   3.333  0.0296 -0.3037  0.0649
98210W        W41148  15.804   2.020   0.224  0.2025 -0.0919  0.0954
98211W        W41149  19.046   0.624   0.148  0.3785  0.1164 -0.2549
98212W        W41150  13.953   1.713   1.770  0.3060  0.2111 -0.1809
98213W        W41151  15.345   1.033   3.071  0.1250 -0.1227  0.1444
98214W        W41152  17.479   3.455   3.643  0.1677 -0.2610 -0.5279
98215W        W41153  16.090  33.121   1.195 -0.0556 -0.0084 -0.1253
98216W        W41154  19.080   2.167   0.081 -0.2768  0.0938 -0.2628
98217W        W41155  15.413   3.665   0.836 -0.0780  0.0867  0.1503
98218W        W41156  19.717   0.720   0.900 -0.1627  0.0807 -0.0679
98219W        W41157  17.258   1.847   1.884 -0.1728  0.2299  0.3325
98220W        W41158  15.613   1.446   2.929 -0.3574 -0.4784  0.2777
98221W        W41159  17.110   1.398   2.111 -0.2458 -0.2041 -0.0256
98222W        W41160  17.695   0.814   2.238  0.0934 -0.2096 -0.0739
98223W        W41161  18.337   1.099   0.670  0.1705  0.2365 -0.2290
98224W        W41162  17.159   1.427   1.534  0.0708 -0.0202  0.0560
98225W        W41163  15.953   4.105   1.571  0.1608  0.1946  0.0337
98226W        W41164  17.342   0.388   2.341  0.1142  0.1863 -0.0785
98227W        W41165  16.612   0.396   3.479 -0.2543 -0.1308  0.1306
98228W        W41166  16.363   3.226   0.348 -0.2055  0.1265  0.2260
98229W        W41167  16.231  33.138   2.269 -0.0281  0.0888 -0.0974
98230W        W41168  15.751   3.421   1.484  0.2321 -0.0072 -0.1786
98231W        W41169  17.005   2.593   3.587 -0.0803  0.1114  0.0133
98232W        W41170  15.553   3.424   0.462 -0.0823 -0.0170  0.2668
98233W        W41171  16.007   1.389   3.224  0.2084 -0.2963  0.3329
98234W        W41172  16.206   2.266   0.230 -0.1168  0.0517 -0.2039
98235W        W41173  17.095   3.789   1.275  0.1181  0.1682  0.2545
98236W        W41174  18.103   1.631   1.883  0.0152 -0.0346 -0.1459
98237W        W41175  17.557   0.667   0.921 -0.2680 -0.0879  0.0955
98238W        W41176  19.627   1.180   1.128 -0.0252  0.0601  0.2668
98239W        W41177  17.108  33.311   2.424 -0.3269 -0.0218 -0.0468
98240W        W41178  17.833   0.957   0.603 -0.3101 -0.1740  0.2848
98241W        W41179  16.993  34.539   1.198  0.0923 -0.4325  0.0361
98242W        W41180  16.221   2.212   1.173  0.0486 -0.0910  0.2139
98243W        W41181  15.393   1.033  30.932  0.0399 -0.0467 -0.0399
98244W        W41182  15.541   2.913  31.097 -0.0398 -0.0272  0.2407
98245W        W41183  16.239   3.565   1.403  0.1562 -0.2861  0.0091
98246W        W41184  15.933  34.145   4.273  0.0384  0.0823 -0.1354
98247W        W41185  14.858   2.468   3.510  0.2716 -0.0955  0.2829
98248W        W41186  15.585   1.643   1.725  0.0915 -0.2568  0.1401
98249W        W41187  15.463  33.996   1.244 -0.2294 -0.0845 -0.2058
98250W        W41188  18.859   2.112  31.272  0.0493  0.0977 -0.1288
98251W        W41189  17.108   0.040   1.810 -0.2326  0.0505  0.1469
98252W        W41190  14.998  34.243   1.252  0.0754 -0.1583  0.1607
98253W        W41191  16.886  34.670   0.678  0.2641  0.1614  0.1247
98254W        W41192  18.674   3.562   0.548 -0.2466  0.0727  0.0456
98255W        W41193  16.239  34.051   1.897 -0.0727 -0.2826  0.0575
98256W        W41194  17.769   3.709   4.372  0.2542 -0.0837  0.0012
98257W        W41195  14.923   3.150   0.023  0.1211 -0.1055 -0.2724
98258W        W41196  17.507   1.447   2.881 -0.1743  0.1449 -0.1798
98259W        W41197  15.747  33.172   2.528 -0.1367  0.2849  0.0404
98260W        W41198  14.185   0.840   0.065  0.0294  0.3470  0.1124
98261W        W41199  16.847   0.392   1.524 -0.0239  0.1335  0.1595
98262W        W41200  18.770   2.286   1.327  0.3527  0.2077 -0.1460
98263W        W41201  16.269   5.184   0.432  0.1764 -0.2669  0.1924
98264W        W41202  16.001   1.885   1.548  0.0037 -0.0434  0.1416
98265W        W41203  16.462   1.564   3.318 -0.2492  0.0253  0.3098
98266W        W41204  14.689   0.348   3.392  0.0115 -0.0964 -0.0065
98267W        W41205  17.471   1.554   0.891  0.0888 -0.0597  0.3049
98268W        W41206  17.065   2.400   2.681 -0.1759 -0.0425 -0.2543
98269W        W41207  18.664   1.944  31.689 -0.4043  0.1861 -0.0112
98270W        W41208  17.892   0.146   1.499 -0.0770 -0.1764  0.1698
98271W        W41209  17.333   1.380  31.890  0.6109 -0.0055 -0.2566
98272W        W41210  14.884   0.291   2.030 -0.1942 -0.3480 -0.0843
98273W        W41211  14.820   1.973   1.692 -0.3631 -0.0307  0.1626
98274W        W41212  17.344   1.086   2.539 -0.3174  0.2753  0.0630
98275W        W41213  16.069  33.957   0.844  0.2237  0.0462 -0.1278
98276W        W41214  17.638  34.273   1.023 -0.0114 -0.0740  0.0785
98277W        W41215  16.602   3.540   1.009 -0.2510  0.1012 -0.0593
98278W        W41216  17.012   3.186   0.873  0.1045  0.0818  0.4922
98279W        W41217  16.914   1.575   0.925  0.2169  0.1895 -0.1366
98280W        W41218  16.602   2.630   2.562 -0.3031  0.0220 -0.2013
98281W        W41219  15.853   2.395   1.804 -0.1294 -0.3187 -0.1061
98282W        W41220  17.285   2.761   4.566  0.2660  0.0706  0.2348
98283W        W41221  14.742   1.617   0.264 -0.2169  0.0525  0.3320
98284W        W41222  19.741   2.143   0.230  0.3141  0.1078  0.0369
98285W        W41223  16.652   3.449   2.988  0.0707 -0.0817  0.0563
98286W        W41224  18.019   4.120   3.909 -0.2793  0.1673 -0.0170
98287W        W41225  15.841   2.796   4.289 -0.0367 -0.1151 -0.2961
98288W        W41226  18.710   1.376   3.177  0.1008  0.1491  0.0806
98289W        W41227  15.821   0.793   2.174  0.1341  0.0272  0.0044
98290W        W41228  14.074   2.470   1.777  0.0289 -0.0605  0.1553
98291W        W41229  16.784   1.991   1.902 -0.0294 -0.1851 -0.2704
98292W        W41230  17.626   0.610   2.742  0.0237  0.0922  0.1929
98293W        W41231  16.149   0.308   1.938  0.2588  0.2511 -0.1397
98294W        W41232  18.388  34.175  31.249 -0.0909 -0.2937 -0.1961
98295W        W41233  16.424   3.885   3.096 -0.0871  0.3082 -0.0775
98296W        W41234  17.104   2.396   2.085 -0.0550 -0.0896 -0.1976
98297W        W41235  16.848   1.087   5.573  0.1477 -0.3560  0.2216
98298W        W41236  15.849   1.421   4.923  0.0685  0.0388 -0.2188
98299W        W41237  17.791  34.281   2.925 -0.3094 -0.2282 -0.2773
98300W        W41238  17.520   1.180   4.934  0.0783 -0.4256 -0.2513
98301W        W41239  15.260   0.769   4.034  0.3357 -0.4442 -0.1265
98302W        W41240  17.152   2.565   4.990  0.1438  0.0100 -0.1900
98303W        W41241  14.375  34.235   6.814  0.3342  0.1099  0.0758
98304W        W41242  17.826   3.510   6.055  0.0442 -0.0804  0.0931
98305W        W41243  17.577   2.719   5.313 -0.0670 -0.0312  0.3093
98306W        W41244  18.898   2.293   5.161 -0.1070 -0.2694  0.3000
98307W        W41245  17.598   0.813   5.855 -0.1389 -0.1244 -0.0556
98308W        W41246  16.313   1.830   5.799 -0.1849 -0.0446 -0.2045
98309W        W41247  16.021  34.114   3.541 -0.2710  0.2504 -0.0984
98310W        W41248  15.636   0.498   5.210 -0.0101  0.0211  0.3520
98311W        W41249  18.232   0.737   6.168  0.1211 -0.1800  0.1042
98312W        W41250  15.295   0.749   3.537 -0.0671 -0.0930  0.0735
98313W        W41251  15.591   0.848   6.137  0.2117  0.0125  0.4291
98314W        W41252  16.296   0.105   3.801 -0.0080  0.0898 -0.1123
98315W        W41253  18.480   2.059   5.363  0.0053 -0.0073  0.0548
98316W        W41254  15.444   0.381   5.955 -0.1994  0.1260 -0.1814
98317W        W41255  18.197  33.346   7.394  0.4305  0.0233  0.0375
98318W        W41256  17.435   2.166   4.647 -0.1171  0.3973  0.0822
98319W        W41257  14.310   0.092   3.209 -0.2290  0.0583  0.2323
98320W        W41258  14.381   1.062   5.939  0.3804 -0.0787 -0.3805
98321W        W41259  16.750   0.567   5.425  0.1396 -0.1515  0.0665
98322W        W41260  18.548   1.197   4.986  0.0602 -0.0875 -0.1249
98323W        W41261  17.700   1.584   5.170 -0.2357  0.2553  0.2560
98324W        W41262  17.188   3.224   5.572  0.0234  0.2544 -0.3769
98325W        W41263  17.946   3.054   6.310 -0.0823  0.0568 -0.1383
98326W        W41264  18.070   1.544   6.424 -0.2039  0.2602 -0.0523
98327W        W41265  15.442   1.476   5.230  0.0360  0.1189 -0.1392
98328W        W41266  15.400   2.661   5.021  0.2013 -0.0780  0.1745
98329W        W41267  15.672   1.583   4.456 -0.1139 -0.1784 -0.1004
98330W        W41268  18.411   2.560   3.626 -0.1534 -0.2423  0.1861
98331W        W41269  17.176   2.334   6.159 -0.1281  0.1912 -0.1215
98332W        W41270  15.798   3.209   7.453  0.0137 -0.1712  0.0852
98333W        W41271  14.450   3.655   4.751  0.0357  0.0339 -0.3056
98334W        W41272  16.398   2.964   6.776  0.0860  0.5209  0.0369
98335W        W41273  16.187   2.114   7.510 -0.2451  0.0428 -0.1261
98336W        W41274  17.975   1.900   5.456  0.0323 -0.1234  0.1334
98337W        W41275  16.535   1.980   4.830 -0.2093  0.1553 -0.2237
98338W        W41276  15.951   2.162   4.401  0.0537  0.0369  0.0647
98339W        W41277  15.870   1.088   5.749 -0.1195 -0.0038 -0.2973
98340W        W41278  17.331   2.078   7.375 -0.0023 -0.2880 -0.0706
98341W        W41279  15.609   2.104   5.080  0.1033 -0.0039 -0.0337
98342W        W41280  17.886   0.352   6.016  0.0346  0.1315 -0.1345
98343W        W41281  14.622   3.617   4.282  0.1380  0.0946 -0.0697
98344W        W41282  17.878   1.224   3.515 -0.1353 -0.1531 -0.0636
98345W        W41283  16.664  34.478   4.283 -0.1267 -0.0654  0.0143
98346W        W41284  18.190   1.453   4.360  0.2066 -0.2714 -0.0267
98347W        W41285  15.311   0.186   5.471 -0.0589  0.1998 -0.2684
98348W        W41286  15.306   3.672   5.678  0.2451  0.0911 -0.1449
98349W        W41287  15.062   0.848   5.957  0.1043  0.0152  0.0672
98350W        W41288  17.937   3.773   7.359 -0.4086 -0.0704  0.2532
98351W        W41289  16.896  34.114   4.066 -0.0217  0.0199  0.0294
98352W        W41290  17.341   0.483   6.057  0.1977  0.4581  0.2111
98353W        W41291  13.927   2.204   6.183  0.0729 -0.0425 -0.4340
98354W        W41292  14.465   0.154   5.722  0.2548 -0.0239 -0.0159
98355W        W41293  17.984   3.005   4.389 -0.2521  0.0356 -0.0200
98356W        W41294  18.944   3.201   4.671 -0.3187 -0.1682  0.0064
98357W        W41295  17.258   3.069   5.044 -0.0430  0.2103  0.1457
98358W        W41296  14.732   1.196   3.789  0.2205  0.0047 -0.0509
98359W        W41297  14.505   2.653   6.663  0.1428 -0.0324  0.3492
98360W        W41298  15.051   3.000   6.780  0.1904 -0.0198 -0.1458
98361W        W41299  14.942  34.495   2.659  0.0993 -0.0421 -0.1134
98362W        W41300  18.696   1.898   7.263 -0.2495  0.1514  0.0110
98363W        W41301  15.069   2.547   6.493  0.0001  0.1009 -0.0964
98364W        W41302  18.369   0.384   5.730 -0.1042  0.1197 -0.0773
98365W        W41303  16.117   1.724   5.329  0.1487 -0.1451  0.0041
98366W        W41304  17.703   2.512   6.279  0.3597 -0.1493 -0.0827
98367W        W41305  17.257   1.186   3.945  0.0682 -0.1192  0.1636
98368W        W41306  17.165   0.792   5.137  0.2872  0.1300 -0.0649
98369W        W41307  18.135   0.819   5.628  0.2865  0.1636  0.2580
98370W        W41308  16.082   2.831   2.514  0.1098 -0.2090  0.1341
98371W        W41309  16.607   0.569   4.845 -0.0180  0.0786 -0.0033
98372W        W41310  16.717   2.544   6.948  0.0715  0.0396 -0.1101
98373W        W41311  17.965   1.014   4.434  0.1492  0.1536  0.0692
98374W        W41312  14.701   2.245   5.699 -0.0653 -0.4361  0.1354
98375W        W41313  17.690   0.433   7.392 -0.0862  0.0119 -0.1860
98376W        W41314  16.569   2.964   7.270  0.1540  0.0100 -0.0463
98377W        W41315  15.421   3.282   4.857  0.0635  0.1979 -0.0381
98378W        W41316  14.839   0.631   3.749 -0.0034 -0.1479  0.0735
98379W        W41317  14.884   3.225   4.262 -0.0325 -0.2143  0.1540
98380W        W41318  13.203   0.081   6.479  0.1342 -0.0982 -0.3030
98381W        W41319  15.932   0.497   4.705  0.1497  0.1709 -0.1743
98382W        W41320  18.076   0.090   4.962  0.3854 -0.1080  0.0930
98383W        W41321  16.386   0.892   5.691 -0.1009 -0.1604 -0.1657
98384W        W41322  14.687   2.239   4.596 -0.0352 -0.0137 -0.2344
98385W        W41323  17.382   3.189   4.114  0.0536  0.0137 -0.0597
98386W        W41324  18.924   0.953   4.589 -0.3955  0.1547  0.0359
98387W        W41325  17.098   4.021   4.761  0.0372 -0.2317  0.2731
98388W        W41326  16.191   1.505   6.213  0.0352 -0.2041 -0.2853
98389W        W41327  14.325   0.428   4.408 -0.3029  0.1572  0.2094
98390W        W41328  16.106   0.662   6.587  0.0356  0.0373 -0.1636
98391W        W41329  15.530  34.436   4.494 -0.0488 -0.3714 -0.2440
98392W        W41330  18.389   1.262   5.823  0.1623  0.2349  0.0216
98393W        W41331  15.036  34.091   3.492  0.1160 -0.2568  0.2935
98394W        W41332  18.186  34.625   5.863 -0.0451 -0.2023 -0.0679
98395W        W41333  17.052   1.053   4.673 -0.2734 -0.1542  0.2628
98396W        W41334  14.202   2.293   4.869  0.2235  0.0367 -0.4825
98397W        W41335  18.747  33.797   7.285 -0.0829  0.1937 -0.3046
98398W        W41336  16.534   2.070   5.401 -0.2280 -0.1831  0.4115
98399W        W41337  18.776   3.131   5.587  0.2330 -0.1298 -0.3113
98400W        W41338  17.947   2.380   5.205  0.0438 -0.2456 -0.1547
98401W        W41339  15.651   0.842   6.627 -0.0593 -0.0790  0.0277
98402W        W41340  14.911  34.671   3.731 -0.2038 -0.0071 -0.0687
98403W        W41341  15.482   3.226   5.352  0.3003  0.2979  0.3549
98404W        W41342  15.756   2.573   6.210  0.2947  0.1769  0.2298
98405W        W41343  16.296   0.743   4.387  0.3005 -0.0322 -0.0561
98406W        W41344  17.967   3.366   4.904 -0.3050 -0.1309 -0.0755
98407W        W41345  17.750   1.504   4.667  0.1669  0.1268 -0.1593
98408W        W41346  16.436   1.382   5.765  0.1182 -0.0028 -0.2275
98409W        W41347  17.157  34.457   6.649  0.0607  0.0045  0.0952
98410W        W41348  18.657   1.078   5.475 -0.2662  0.1302 -0.1450
98411W        W41349  16.919   0.870   4.178 -0.5959 -0.2275  0.0017
98412W        W41350  16.371   1.003   3.600 -0.1802  0.2173 -0.2817
98413W        W41351  17.936   2.464   4.557  0.0856  0.0394 -0.1213
98414W        W41352  13.784   2.478   4.575  0.4187 -0.0019  0.2765
98415W        W41353  15.687   0.888   4.503  0.0958  0.0705 -0.0319
98416W        W41354  17.348   1.694   3.921  0.2112 -0.0039 -0.2246
98417W        W41355  18.410  33.446   6.545 -0.0820 -0.1802  0.0830
98418W        W41356  14.400   0.824   7.390  0.1675 -0.0945  0.1498
98419W        W41357  16.562  34.489   6.542  0.0650  0.0548 -0.0406
98420W        W41358  14.168   1.154   3.677 -0.2828  0.0203 -0.0965
98421W        W41359  16.187   2.294   6.031  0.0886 -0.0822  0.2502
98422W        W41360  17.549   0.084   3.044  0.1885 -0.0364  0.2289
98423W        W41361  18.813  34.656   4.564 -0.2000  0.0769 -0.3261
98424W        W41362  16.123   1.000   6.177 -0.0321 -0.0185  0.1793
98425W        W41363  18.085   2.636   4.052  0.3547  0.1055 -0.3415
98426W        W41364  16.910   1.656   3.061 -0.0489 -0.0280 -0.2614
98427W        W41365  17.693  33.861   3.211  0.2820 -0.2086 -0.0167
98428W        W41366  15.891   1.954   6.333  0.0520  0.2317 -0.1200
98429W        W41367  17.342   1.834   5.405  0.3142 -0.1465  0.0005
98430W        W41368  15.814   1.627   5.755 -0.1047  0.0638 -0.1767
98431W        W41369  17.419  34.498   5.325 -0.0935  0.2120 -0.1643
98432W        W41370  18.971   2.001   4.075  0.1452  0.2377 -0.3386
98433W        W41371  14.582   2.328   6.272  0.0308 -0.1463 -0.0733
98434W        W41372  18.155   2.436   6.673  0.0590 -0.1389  0.3785
98435W        W41373  16.956   2.016   5.130 -0.2323 -0.1692  0.0243
98436W        W41374  15.242   0.563   6.375 -0.1439 -0.0556  0.0800
98437W        W41375  15.990   0.952   4.024 -0.0795 -0.1155 -0.1850
98438W        W41376  16.151  34.632   4.812  0.2229  0.0279  0.1760
98439W        W41377  14.366   3.157   4.105  0.3022  0.0884 -0.0471
98440W        W41378  17.189  34.660   6.197  0.0764  0.1119  0.0433
98441W        W41379  17.336   2.663   5.762  0.1832 -0.0140 -0.1355
98442W        W41380  16.333  34.530   5.695 -0.2810 -0.0147  0.1682
98443W        W41381  18.547   0.979   7.717  0.2460  0.0601 -0.1691
98444W        W41382  16.128  34.394   5.244  0.0662  0.2331 -0.3212
98445W        W41383  18.940   0.151   6.612 -0.1288 -0.2425  0.1763
98446W        W41384  16.364   1.582   3.790 -0.0140  0.2099  0.0827
98447W        W41385  17.489  34.215   6.994  0.0214 -0.0552 -0.0456
98448W        W41386  14.928   2.106   6.666 -0.1926 -0.0539  0.1277
98449W        W41387  15.471   2.570   7.861  0.0320  0.0238  0.0714
98450W        W41388  18.407   1.878   6.709 -0.2828 -0.0683 -0.1942
98451W        W41389  17.601   1.966   4.220 -0.1886 -0.0419 -0.1571
98452W        W41390  17.739  34.532   6.736 -0.1439 -0.1762  0.0450
98453W        W41391  17.551  33.386   5.134 -0.2518 -0.2101 -0.4767
98454W        W41392  16.744   2.397   3.977 -0.1168 -0.2878 -0.2445
98455W        W41393  16.130   3.090   3.573 -0.3955 -0.0909 -0.2185
98456W        W41394  15.666   1.056   5.244 -0.0776  0.4838 -0.2854
98457W        W41395  16.348   2.731   5.150  0.0236  0.4802 -0.1970
98458W        W41396  17.633   1.603   2.366 -0.0260  0.0847 -0.0949
98459W        W41397  17.428   1.719   6.004  0.1114  0.2150 -0.1967
98460W        W41398  16.191   3.053   4.112  0.2712  0.1970 -0.1358
98461W        W41399  17.482   0.625   4.749 -0.0598 -0.0824 -0.0399
98462W        W41400  14.127   2.993   5.407 -0.0117 -0.1675 -0.0915
98463W        W41401  16.878   1.417   4.141 -0.1491  0.2902  0.1755
98464W        W41402  14.360   0.891   4.605 -0.1138  0.0715  0.0621
98465W        W41403  17.939  34.641   4.525  0.4054  0.0648  0.0263
98466W        W41404  17.155   1.916   3.516 -0.0439 -0.1131  0.0101
98467W        W41405  14.711   0.339   6.627  0.1125 -0.1357 -0.3672
98468W        W41406  17.677   1.054   5.416 -0.0910  0.0454 -0.2827
98469W        W41407  14.679   4.177   5.077  0.0018 -0.2704 -0.2303
98470W        W41408  17.470   2.186   5.699  0.0145 -0.1871 -0.1838
98471W        W41409  17.983   0.509   4.698 -0.0835  0.0164  0.5119
98472W        W41410  17.059   1.784   6.318  0.1680 -0.0733  0.1400
98473W        W41411  17.500   1.613   6.477 -0.0679  0.0522  0.2383
98474W        W41412  14.722   0.184   2.884 -0.0148 -0.2597 -0.1688
98475W        W41413  18.624   1.580   5.391  0.2234  0.2400 -0.2858
98476W        W41414  15.415   1.220   4.691  0.0964  0.2487 -0.1540
98477W        W41415  14.927   3.358   6.462  0.0811 -0.1696  0.0445
98478W        W41416  16.577   1.766   6.348 -0.0373  0.0858  0.4475
98479W        W41417  14.242   2.007   3.417  0.1138  0.2158  0.1408
98480W        W41418  15.481   2.505   4.547 -0.2136 -0.2610 -0.1957
98481W        W41419  16.159   0.469   6.121 -0.1715  0.0346  0.2813
98482W        W41420  18.919   0.332   5.889 -0.0721  0.0268 -0.1093
98483W        W41421  17.139   0.209   5.112  0.0923  0.1444  0.2668
98484W        W41422  16.367  34.089   4.074  0.3347 -0.0373  0.3214
98485W        W41423  16.807  34.662   4.825 -0.1688 -0.1611 -0.0738
98486W        W41424  18.360   1.756   5.815  0.1212 -0.1686 -0.0624
98487W        W41425  16.537   0.098   6.132  0.4870  0.1098 -0.1332
98488W        W41426  16.364   1.261   7.161 -0.0679 -0.3520  0.0881
98489W        W41427  16.370  34.163   4.618 -0.2026  0.3710 -0.1268
98490W        W41428  16.979   3.344   3.813  0.0029  0.0739  0.4873
98491W        W41429  18.474   0.314   6.164 -0.2612 -0.0611 -0.0299
98492W        W41430  15.304   2.546   3.223 -0.2564 -0.0597 -0.2522
98493W        W41431  14.774   1.794   6.269  0.0445  0.0699  0.2836
98494W        W41432  16.369   1.384   2.815 -0.0840  0.0271 -0.2870
98495W        W41433  16.243  34.359   6.165  0.1822 -0.0121  0.1111
98496W        W41434  15.721   1.308   6.197 -0.0457 -0.2362  0.1504
98497W        W41435  15.905   2.565   3.663  0.1340  0.3142 -0.1070
98498W        W41436  15.498   3.462   6.601 -0.1437 -0.1123  0.2060
98499W        W41437  19.225  33.934   4.424  0.2087 -0.1263  0.4460
98500W        W41438  17.286   3.690   4.175 -0.0132 -0.2227 -0.1199
98501W        W41439  15.206   0.675   4.554 -0.0254  0.1024  0.1951
98502W        W41440  18.008  34.142   6.067 -0.4285  0.1365 -0.1894
98503W        W41441  16.363   0.621   3.894 -0.0425  0.1577 -0.1816
98504W        W41442  16.633   0.514   6.495  0.1522 -0.0249 -0.1290
98505W        W41443  15.237  34.277   6.450 -0.0473  0.0852  0.3980
98506W        W41444  19.018   1.875   6.249  0.4282 -0.0341  0.3109
98507W        W41445  16.613   0.569   5.999 -0.1094 -0.0176  0.4562
98508W        W41446  14.909   3.556   6.928  0.1225 -0.0295 -0.1818
98509W        W41447  15.574   2.096   6.001  0.2616  0.1020 -0.0631
98510W        W41448  16.795  34.084   6.617  0.1365 -0.1719  0.1735
98511W        W41449  15.668   0.098   4.893 -0.0692 -0.1831  0.1091
98512W        W41450  15.228   1.161   6.364 -0.1656  0.1276  0.3570
98513W        W41451  18.527   2.978   3.322  0.0814 -0.0790  0.1107
98514W        W41452  15.919   2.125   3.850 -0.0660 -0.2748 -0.2762
98515W        W41453  18.397   0.259   4.560 -0.1183  0.0848  0.0190
98516W        W41454  14.936   1.809   5.752 -0.4429  0.0977  0.3029
98517W        W41455  19.122   1.299   4.836 -0.1456  0.2349  0.1505
98518W        W41456  17.496   0.913   3.543 -0.0555 -0.0477 -0.1971
98519W        W41457  15.339   1.819   4.809 -0.0385 -0.0551  0.1943
98520W        W41458  16.132   0.064   6.474 -0.0383  0.1866 -0.1492
98521W        W41459  17.590   3.315   4.621 -0.1775 -0.0133 -0.1942
98522W        W41460  17.910   1.118   6.103  0.0086 -0.1378 -0.4602
98523W        W41461  18.053  34.096   6.616 -0.0850  0.0865 -0.0670
98524W        W41462  17.295   1.246   5.701  0.4002  0.0584 -0.2139
98525W        W41463  17.390   1.166   6.243 -0.1285 -0.0889 -0.0878
98526W        W41464  15.545   0.095   7.224  0.1179  0.2059  0.0627
98527W        W41465  17.342   3.718   6.168 -0.0586 -0.0399  0.3503
98528W        W41466  17.098   0.492   3.702 -0.2045 -0.2110  0.1129
98529W        W41467  18.686  33.959   6.274  0.2155  0.1541  0.0023
98530W        W41468  18.511   1.873   4.541 -0.0534  0.1137 -0.1076
98531W        W41469  17.403   0.142   4.543  0.0798 -0.0280  0.0450
98532W        W41470  14.990   1.671   5.269  0.2660  0.0538 -0.0384
98533W        W41471  16.938   0.189   6.631 -0.2341 -0.1033  0.1239
98534W        W41472  15.437  34.406   3.511 -0.1201 -0.3402 -0.4176
98535W        W41473  17.651   1.130   6.694  0.1947  0.0541 -0.1680
98536W        W41474  16.707   3.721   4.542 -0.1830  0.1520 -0.2663
98537W        W41475  17.006   1.974   4.445 -0.3671  0.2088  0.0585
98538W        W41476  17.332   1.759   4.849  0.2194 -0.1439  0.0787
98539W        W41477  14.880   1.093   3.315 -0.1132  0.0514 -0.0036
98540W        W41478  16.437   3.679   6.951  0.0333 -0.0308  0.2414
98541W        W41479  17.426  34.094   3.933  0.0710  0.1639  0.1690
98542W        W41480  15.158   2.099   2.792 -0.3665  0.3407 -0.0834
98543W        W41481  16.897   2.818   5.870 -0.0405  0.1723 -0.4805
98544W        W41482  17.650   1.222   7.617  0.1103  0.2684 -0.0019
98545W        W41483  17.605   0.122   5.029 -0.1254  0.2751  0.0278
98546W        W41484  18.490   0.734   4.775 -0.0077  0.2192 -0.1572
98547W        W41485  14.812   2.816   3.163  0.2947  0.0702 -0.1791
98548W        W41486  18.324   0.476   5.220  0.3178  0.0486 -0.3453
98549W        W41487  15.890   3.531   5.261  0.1308 -0.0513 -0.1091
98550W        W41488  14.370   2.760   7.113  0.1838 -0.2854  0.0146
98551W        W41489  15.429   1.331   5.805 -0.0508 -0.1365  0.0831
98552W        W41490  14.446   0.784   4.033 -0.1996  0.0289 -0.1801
98553W        W41491  18.113   1.291   5.335 -0.1519 -0.1574 -0.0951
98554W        W41492  15.408   0.835   5.628 -0.0828  0.1077 -0.1327
98555W        W41493  17.827   1.704   7.343 -0.0746 -0.3398 -0.2031
98556W        W41494  17.904   1.507   5.786 -0.1980 -0.2118  0.1236
98557W        W41495  16.838   1.561   4.766 -0.0194 -0.1167  0.0955
98558W        W41496  17.478   2.269   5.135  0.0089 -0.1846  0.0431
98559W        W41497  19.034   1.866   5.420  0.1948  0.0066 -0.2272
98560W        W41498  14.925   1.363   5.988  0.1107 -0.1296  0.1214
98561W        W41499  14.890  34.663   5.460  0.0703  0.1183  0.1318
98562W        W41500  17.233   1.749   6.872  0.1499  0.2625 -0.1968
98563W        W41501  16.574   1.998   3.631 -0.1646 -0.2631 -0.0018
98564W        W41502  15.895   0.375   4.087 -0.5836 -0.3076  0.2505
98565W        W41503  16.912   3.273   4.338 -0.0240  0.0437 -0.0699
98566W        W41504  15.833   3.624   5.733  0.0779  0.4558  0.0751
98567W        W41505  15.032   2.809   6.101 -0.1275 -0.0349 -0.0355
98568W        W41506  16.261   3.440   4.414  0.1128  0.2560  0.0622
98569W        W41507  16.914   0.683   3.227 -0.2935  0.0182  0.2007
98570W        W41508  17.291   1.464   4.395  0.0817 -0.0159  0.1150
98571W        W41509  17.447   3.673   5.639 -0.0566  0.0529  0.0390
98572W        W41510  16.067   0.450   3.501 -0.3499 -0.0131 -0.3037
98573W        W41511  15.451   2.925   6.370  0.1976  0.3384 -0.1447
98574W        W41512  14.042   3.647   5.961  0.1874  0.2131 -0.2259
98575W        W41513  17.588   2.602   4.195 -0.1146  0.0819 -0.0137
98576W        W41514  17.019   2.335   5.469 -0.1452  0.0060  0.0430
98577W        W41515  17.964   2.807   7.550 -0.0709  0.3142  0.1010
98578W        W41516  17.015  34.352   3.657  0.0625 -0.1741  0.0231
98579W        W41517  19.076   0.049   5.017  0.0435 -0.0711  0.0160
98580W        W41518  19.298   0.595   4.434  0.1564  0.1014  0.0298
98581W        W41519  16.908   3.854   7.018 -0.0348 -0.0886 -0.2916
98582W        W41520  16.253   0.693   5.276 -0.1406 -0.0719 -0.0125
98583W        W41521  17.201   0.092   3.408 -0.1098  0.1348  0.3253
98584W        W41522  15.049   1.264   6.822 -0.1221  0.5099 -0.0269
98585W        W41523  19.022  33.371   7.113  0.0993 -0.1116 -0.2242
98586W        W41524  15.751   2.845   7.131  0.0829 -0.0169  0.0796
98587W        W41525  16.736   3.529   6.088 -0.2013 -0.2904 -0.1236
98588W        W41526  13.851   1.831   4.179 -0.0098 -0.1032 -0.0889
98589W        W41527  16.540   1.681   4.340 -0.3879 -0.0182 -0.0730
98590W        W41528  18.625  32.960   7.400  0.1395 -0.3021  0.0772
98591W        W41529  16.376   2.063   4.119 -0.3008  0.0943 -0.1114
98592W        W41530  16.844   1.370   6.091  0.3296 -0.0908  0.1134
98593W        W41531  17.283   2.230   3.901  0.2432 -0.1177 -0.4311
98594W        W41532  15.066   2.257   6.022  0.1821  0.5886 -0.1649
98595W        W41533  16.391   3.364   6.528  0.1412  0.1531 -0.0606
98596W        W41534  15.488   0.309   4.383  0.1137 -0.1139  0.2176
98597W        W41535  18.408   0.199   3.169 -0.2590 -0.4135  0.2546
98598W        W41536  17.050   1.122   7.005 -0.1193  0.1649  0.1690
98599W        W41537  17.370  33.755   6.656  0.0031 -0.3377  0.2238
98600W        W41538  15.043   1.451   4.276  0.1336 -0.1170 -0.0731
98601W        W41539  18.740   1.426   4.584  0.0540 -0.1752 -0.3038
98602W        W41540  17.737  34.587   6.106 -0.1539  0.0730  0.1487
98603W        W41541  14.854   1.104   5.547  0.0632  0.1519  0.0899
98604W        W41542  16.584   1.184   4.514  0.1202 -0.0305 -0.2241
98605W        W41543  18.531   1.638   6.273  0.1108 -0.1077 -0.0341
98606W        W41544  16.354   1.438   4.947 -0.3181  0.2640 -0.0835
98607W        W41545  17.113   4.706   8.289  0.1364 -0.1366  0.2942
98608W        W41546  14.184  34.334   3.210  0.4124  0.0377  0.1716
98609W        W41547  18.668  33.809   3.469  0.0762  0.1217  0.2894
98610W        W41548  15.245   2.153   3.851 -0.1665 -0.4486 -0.0301
98611W        W41549  16.683   0.985   5.090 -0.2890 -0.0598  0.1499
98612W        W41550  18.078   3.109   6.900  0.1174 -0.1304 -0.0113
98613W        W41551  15.739  34.241   3.185 -0.1372 -0.1774 -0.4241
98614W        W41552  17.063   2.777   4.067 -0.1204 -0.3043 -0.1320
98615W        W41553  18.171   2.115   3.562  0.3204 -0.1956 -0.1918
98616W        W41554  15.995   1.680   4.121  0.2426 -0.2006 -0.1356
98617W        W41555  17.442   0.978   4.334  0.2252  0.3813  0.1538
98618W        W41556  17.487   3.329   6.474  0.2450  0.2127  0.4677
98619W        W41557  14.972   1.276   4.835  0.1251 -0.0258  0.0243
98620W        W41558  17.830   2.009   6.469 -0.2435  0.0340 -0.0547
98621W        W41559  19.422   1.561   6.687  0.1326  0.1169 -0.1171
98622W        W41560  15.807  34.200   4.833 -0.0881  0.2687  0.1308
98623W        W41561  16.359   0.323   5.629  0.2036  0.5060  0.0972
98624W        W41562  15.853   2.538   5.261 -0.1644 -0.2032 -0.2508
98625W        W41563  19.349   0.483   5.318  0.1321 -0.2476 -0.1471
98626W        W41564  17.965   0.206   6.943  0.0730 -0.1101 -0.1906
98627W        W41565  16.401   2.484   4.580  0.2310 -0.2074  0.1345
98628W        W41566  18.766  33.041   6.819 -0.0720  0.0088 -0.2608
98629W        W41567  18.274   2.141   6.243 -0.0443  0.2542 -0.1150
98630W        W41568  16.165   2.816   8.202 -0.1669 -0.2477 -0.2343
98631W        W41569  15.215   1.220   3.705 -0.0145 -0.0786 -0.3180
98632W        W41570  16.170   1.195   5.314  0.0493 -0.2453 -0.1591
98633W        W41571  16.930   1.897   3.957  0.2661 -0.1857 -0.2409
98634W        W41572  16.485   2.741   5.660  0.2100 -0.1539 -0.1229
98635W        W41573  18.384   3.190   6.102 -0.0038 -0.1778  0.1990
98636W        W41574  16.013   0.187   5.217  0.0373 -0.2609 -0.0232
98637W        W41575  18.048   1.938   4.438 -0.2584  0.0366 -0.0519
98638W        W41576  15.864   0.576   5.617  0.1984  0.0240 -0.2449
98639W        W41577  18.088  33.527   5.258  0.1369 -0.2676  0.0270
98640W        W41578  17.756   0.865   3.968  0.0218 -0.1907 -0.2393
98641W        W41579  16.578  34.211   5.155 -0.0615 -0.1765  0.3966
98642W        W41580  15.503  34.687   4.026 -0.1165  0.0739  0.3226
98643W        W41581  15.807   2.774   3.137 -0.1918 -0.0175 -0.3077
98644W        W41582  14.808   1.805   4.872 -0.0450 -0.0792  0.2310
98645W        W41583  16.500  33.520   7.910  0.0180 -0.1189 -0.0443
98646W        W41584  14.867   0.871   6.550  0.2606  0.4246  0.1498
98647W        W41585  14.871   0.991   4.396  0.0323  0.1207  0.2560
98648W        W41586  16.045   1.808   4.746  0.0174  0.1391 -0.0470
98649W        W41587  16.684   2.958   3.805  0.2364 -0.0082 -0.0341
98650W        W41588  15.855   0.094   5.817 -0.0656  0.1413 -0.2045
98651W        W41589  14.953  33.511   4.401 -0.0785  0.4666  0.0441
98652W        W41590  17.881   2.040   5.945  0.1318 -0.3053 -0.0749
98653W        W41591  18.251   1.675   4.913 -0.1366 -0.1751 -0.0547
98654W        W41592  15.591   1.236   4.140  0.0057 -0.4451 -0.4039
98655W        W41593  17.353   4.606   7.835  0.1082  0.1239  0.0062
98656W        W41594  15.072   1.501   3.217 -0.2247  0.0263  0.2880
98657W        W41595  17.155   1.269   7.523 -0.0604  0.1566 -0.3078
98658W        W41596  17.762  33.521   7.635  0.0655  0.0782  0.2172
98659W        W41597  15.176   0.479   2.963 -0.0920  0.1619 -0.0767
98660W        W41598  17.191   2.965   6.935  0.0335 -0.1807 -0.3835
98661W        W41599  17.078   1.341   5.214  0.3248  0.2307  0.0991
98662W        W41600  17.724   2.880   4.859 -0.2076 -0.1355  0.1129
98663W        W41601  16.397   1.730   7.256 -0.1726  0.2432 -0.2464
98664W        W41602  16.244   3.316   7.154  0.0771 -0.0397  0.1851
98665W        W41603  14.620   0.067   6.167  0.0471 -0.0505  0.2756
98666W        W41604  17.729   1.356   4.143 -0.1380  0.1770 -0.0529
98667W        W41605  15.960   2.156   5.611 -0.0699  0.0271  0.0098
98668W        W41606  18.153   1.146   3.937  0.0232 -0.2027  0.0437
98669W        W41607  19.159  34.641   5.550  0.1065  0.1257  0.0288
98670W        W41608  17.030   0.465   4.644  0.1500 -0.2290  0.2105
98671W        W41609  16.937   0.236   5.814 -0.0635 -0.0975  0.2339
98672W        W41610  15.931   2.365   6.642 -0.3479  0.1190 -0.2590
98673W        W41611  18.083   3.293   7.440  0.0533 -0.1235 -0.2982
98674W        W41612  14.713  34.194   3.839 -0.1911  0.2749 -0.1116
98675W        W41613  17.247  34.402   4.811  0.1627 -0.1395 -0.2310
98676W        W41614  18.021   1.149   4.904  0.1135  0.0179  0.0568
98677W        W41615  14.263   1.071   5.428 -0.1916  0.3627  0.0222
98678W        W41616  17.846   1.990   4.899  0.0323 -0.2595  0.2424
98679W        W41617  17.921   1.173   7.130  0.1041  0.2237 -0.1337
98680W        W41618  16.959   1.657   5.683 -0.0650  0.1261  0.3701
98681W        W41619  17.810   2.510   7.119  0.1385 -0.2193  0.4362
98682W        W41620  15.576   2.189   3.483 -0.3328 -0.0390  0.1165
98683W        W41621  18.534   1.875   3.228 -0.0848 -0.1729  0.0006
98684W        W41622  17.213   3.477   6.822 -0.1522  0.0480 -0.0979
98685W        W41623  16.858   3.103   7.727 -0.2008  0.0723  0.2906
98686W        W41624  16.702   3.680   5.576  0.0103  0.0651  0.2052
98687W        W41625  17.800   0.664   5.111 -0.0289 -0.3336  0.0706
98688W        W41626  14.967   0.266   5.840 -0.1724  0.1358 -0.1039
98689W        W41627  14.223   1.756   4.877  0.3410 -0.1683 -0.1074
98690W        W41628  15.601   2.461   4.060 -0.0284 -0.1510  0.0367
98691W        W41629  17.942   0.225   5.476 -0.1122 -0.1128 -0.0956
98692W        W41630  15.966  34.692   4.349  0.0894 -0.0739  0.1134
98693W        W41631  18.190  34.135   4.223  0.0309 -0.1563 -0.0268
98694W        W41632  15.880   3.129   6.604 -0.3643  0.1935 -0.2185
98695W        W41633  16.912   2.436   4.504  0.1101  0.2243 -0.2020
98696W        W41634  17.572   4.936   9.776  0.3387  0.0320 -0.0548
98697W        W41635  15.591   1.175   7.996  0.2063  0.0296  0.0917
98698W        W41636  19.759   0.662   6.217 -0.0068  0.0858  0.1572
98699W        W41637  18.645   0.234   6.993 -0.0784  0.0924  0.0295
98700W        W41638  14.999   1.318   8.087 -0.2015 -0.1763  0.5475
98701W        W41639  16.525   2.581   7.745  0.0154 -0.0020 -0.2603
98702W        W41640  18.163   2.274   7.934 -0.2805 -0.2006  0.1798
98703W        W41641  18.197   3.312   9.832  0.0056  0.0039  0.2713
98704W        W41642  17.835   1.578   6.839 -0.2143  0.1241  0.2600
98705W        W41643  18.727  33.976   9.477  0.1754 -0.0569 -0.0234
98706W        W41644  14.828   0.254   8.708 -0.1062  0.1025  0.0998
98707W        W41645  15.113  32.444   8.770  0.0282  0.1279 -0.2103
98708W        W41646  17.761  34.039  10.022 -0.2293 -0.2032 -0.0369
98709W        W41647  16.227   1.067   8.413 -0.2683  0.5332 -0.1217
98710W        W41648  18.959   1.439   8.912  0.1439 -0.1672  0.1394
98711W        W41649  16.688   0.802   8.392 -0.1327  0.0729  0.0193
98712W        W41650  16.914   3.480   8.697 -0.2093  0.3042  0.0718
98713W        W41651  17.880   1.470  10.093  0.2505  0.1008  0.1213
98714W        W41652  16.865   2.326   7.426  0.0914  0.1937 -0.2094
98715W        W41653  15.647   0.629   7.180  0.1681  0.1799  0.3934
98716W        W41654  15.664   0.012   8.646  0.1727 -0.1710 -0.0020
98717W        W41655  16.365   1.122   9.430  0.0469 -0.1979  0.2133
98718W        W41656  18.140  34.651   9.535  0.0451 -0.1755 -0.3926
98719W        W41657  17.482   2.329   9.287 -0.2724  0.1566 -0.0968
98720W        W41658  16.079   2.278   8.425 -0.0131 -0.0180 -0.0418
98721W        W41659  16.384   1.779   8.242  0.0050 -0.1478  0.0846
98722W        W41660  15.056   2.626   8.786  0.1255  0.0363 -0.4905
98723W        W41661  14.983   2.761   7.851  0.0173 -0.4646 -0.1351
98724W        W41662  15.343   4.272   8.062 -0.1142 -0.0727  0.2720
98725W        W41663  21.007   2.793   7.836  0.2521  0.1869 -0.0479
98726W        W41664  15.872   2.624   7.572  0.0040 -0.1535 -0.2647
98727W        W41665  15.636   0.692   7.801 -0.0265  0.2560 -0.2219
98728W        W41666  17.209   0.684   8.355  0.5452  0.0463 -0.0502
98729W        W41667  16.823   1.657   7.668 -0.2008  0.1232 -0.0421
98730W        W41668  15.742   0.831   8.465  0.0423 -0.0422  0.0672
98731W        W41669  15.411   2.396   9.737  0.0185 -0.0100  0.1306
98732W        W41670  16.207   1.781   6.685 -0.3410 -0.1278  0.0399
98733W        W41671  17.433   0.799   7.787  0.0240 -0.0264 -0.1334
98734W        W41672  16.599   0.950   6.863 -0.0892  0.2284 -0.2255
98735W        W41673  19.824   0.275   7.408  0.2503 -0.1385  0.1967
98736W        W41674  16.283   3.152   8.530 -0.1862 -0.4290 -0.1244
98737W        W41675  17.442   0.447   9.357  0.0162  0.1017  0.2495
98738W        W41676  16.547   2.045   9.387 -0.2637 -0.0674 -0.4692
98739W        W41677  16.470  33.648   9.695 -0.1794  0.0811  0.1520
98740W        W41678  16.621   3.483   7.992 -0.0025 -0.0854  0.1065
98741W        W41679  14.602   0.795   8.812 -0.1768  0.0908  0.2426
98742W        W41680  17.651   3.474   7.704  0.0836 -0.1757  0.0325
98743W        W41681  17.810   2.586   7.965  0.0526 -0.1442  0.0513
98744W        W41682  16.312   2.180   6.988  0.4941 -0.2868  0.0869
98745W        W41683  15.333   1.164   8.457 -0.1441  0.1174 -0.2215
98746W        W41684  16.815   0.262   7.474  0.2203  0.1912  0.0519
98747W        W41685  17.139   0.827   9.808  0.0729  0.2009 -0.0026
98748W        W41686  15.963   1.843   9.133 -0.2438  0.0533 -0.0587
98749W        W41687  17.451   3.977   8.883 -0.2692 -0.0796  0.1129
98750W        W41688  18.411   2.760   7.792  0.0877 -0.3044  0.2108
98751W        W41689  17.448   0.529   8.878  0.2447 -0.0313 -0.4548
98752W        W41690  15.310  33.362   9.232  0.0077 -0.3111  0.1365
98753W        W41691  15.432   1.617   7.163  0.1595 -0.0251  0.0374
98754W        W41692  15.762   1.926   8.388  0.1221  0.0637  0.2848
98755W        W41693  18.368   1.777   9.770 -0.0022  0.0596 -0.0295
98756W        W41694  18.114   0.409   6.512 -0.0902 -0.1008 -0.1428
98757W        W41695  15.611   3.344   9.315  0.2377 -0.1808 -0.2640
98758W        W41696  15.903   3.647   6.889 -0.0041 -0.1691 -0.0633
98759W        W41697  17.824   2.010   9.536 -0.1704 -0.0792 -0.3311
98760W        W41698  17.475   1.772   8.204  0.1826 -0.0231  0.0913
98761W        W41699  11.611   0.787   9.935  0.1333 -0.1211  0.2504
98762W        W41700  15.299   2.917   9.593 -0.0251 -0.1632  0.2183
98763W        W41701  19.051   1.049   7.780 -0.0884 -0.2699 -0.1649
98764W        W41702  18.462   0.358   9.551 -0.2810  0.1375 -0.2327
98765W        W41703  15.151   0.779   8.765  0.0267 -0.1398 -0.0829
98766W        W41704  18.396   3.225   8.471  0.0310  0.0799 -0.1090
98767W        W41705  19.451   2.226   8.853  0.0677  0.2567 -0.1599
98768W        W41706  17.831   2.202   7.517 -0.3900 -0.1757 -0.0739
98769W        W41707  15.151   2.146   8.982  0.0429 -0.1576  0.1843
98770W        W41708  15.866   1.314   8.688  0.1443 -0.0323 -0.0735
98771W        W41709  17.789  34.302   9.618  0.0968 -0.0295 -0.0001
98772W        W41710  14.920  33.664   7.715 -0.0204  0.1955 -0.4320
98773W        W41711  17.938   1.122   8.014  0.0865 -0.0147  0.0184
98774W        W41712  16.054   1.016   7.919 -0.0815  0.1108 -0.2796
98775W        W41713  15.729   1.936   6.848  0.2387 -0.3445 -0.1260
98776W        W41714  17.006   2.872   8.787 -0.0946  0.1763  0.1152
98777W        W41715  17.264   2.230   8.335  0.2097 -0.2785 -0.1389
98778W        W41716  13.878   0.216   9.270 -0.0961 -0.1024 -0.0323
98779W        W41717  15.169   0.933   7.824  0.0609  0.0721  0.0538
98780W        W41718  16.401   2.603   9.538  0.0097 -0.0293  0.3334
98781W        W41719  16.567   2.105   7.892  0.2381 -0.1555  0.1215
98782W        W41720  15.512   1.084   7.024 -0.1918 -0.1565 -0.1261
98783W        W41721  17.981   2.000   8.982 -0.0203  0.2023  0.1201
98784W        W41722  17.293   2.473   7.066  0.1776  0.4154 -0.1318
98785W        W41723  18.059   2.325   9.843 -0.2377 -0.0911 -0.1681
98786W        W41724  17.861   1.580   8.025 -0.1131  0.1231  0.0988
98787W        W41725  15.875   0.236   7.617 -0.1046 -0.1436  0.1074
98788W        W41726  16.800   4.246   8.371 -0.0447  0.1657 -0.1276
98789W        W41727  16.278   4.540   7.575  0.1582  0.0253 -0.4113
98790W        W41728  13.860   1.383   8.879  0.2513 -0.2172  0.0802
98791W        W41729  17.108   1.470  10.066  0.1309  0.4038 -0.3087
98792W        W41730  18.082   1.114   8.522  0.2361  0.0375 -0.1019
98793W        W41731  14.734   0.108   7.426  0.1516 -0.1381 -0.0447
98794W        W41732  17.270   0.020   7.515  0.1500 -0.2207 -0.0377
98795W        W41733  18.245  32.518   7.456  0.1026  0.0432 -0.0046
98796W        W41734  18.465   2.378   7.463 -0.1555  0.0006  0.0068
98797W        W41735  17.699   0.614   8.276 -0.1719  0.0911 -0.3239
98798W        W41736  17.477  34.508   8.002  0.4425 -0.1235  0.3101
98799W        W41737  16.585   1.324   8.120 -0.0690 -0.1504  0.1319
98800W        W41738  16.438  34.660   9.482 -0.1060 -0.2758  0.0145
98801W        W41739  17.423   0.119   7.010 -0.0255  0.0241 -0.2091
98802W        W41740  18.852   3.220   7.604 -0.0664  0.0292  0.1406
98803W        W41741  15.260   2.520   9.259 -0.2028 -0.1904 -0.1913
98804W        W41742  15.338   2.938   8.545  0.1674  0.1030 -0.0486
98805W        W41743  18.692   0.087   9.941  0.0659  0.1232  0.0812
98806W        W41744  14.547   1.577   5.636  0.1255  0.4497 -0.3451
98807W        W41745  16.145  33.952   8.031  0.0902 -0.2718  0.0174
98808W        W41746  14.849   2.947   7.315  0.1917 -0.1427  0.1070
98809W        W41747  17.440  33.821   8.822 -0.0797  0.0073  0.2943
98810W        W41748  16.003  32.669   9.866 -0.3020 -0.2601 -0.3761
98811W        W41749  17.046   1.336   6.576  0.0929  0.0277 -0.2677
98812W        W41750  18.131   1.668   9.359  0.0139 -0.1655  0.1403
98813W        W41751  14.377   0.902   6.441  0.2580  0.2484  0.1436
98814W        W41752  16.018   0.873   8.979 -0.1814 -0.1359  0.1197
98815W        W41753  20.601   0.989   9.937  0.1086 -0.1862 -0.0683
98816W        W41754  16.984   1.779   8.162  0.0571  0.1099 -0.1604
98817W        W41755  16.936   0.561   7.008  0.0462 -0.3127 -0.0340
98818W        W41756  14.253   2.110   8.465 -0.0333 -0.1722  0.0397
98819W        W41757  16.536   1.042   6.407  0.0286 -0.1491  0.0968
98820W        W41758  15.986  33.058   9.160 -0.0097 -0.2621 -0.0226
98821W        W41759  16.333   2.230   8.925 -0.2522 -0.3186  0.0712
98822W        W41760  16.749   1.950   6.781  0.1759 -0.2357 -0.3130
98823W        W41761  19.127  33.371   9.827  0.0319  0.1228  0.1772
98824W        W41762  15.009   2.289   7.839  0.0410  0.2102  0.1237
98825W        W41763  18.418  34.544   7.734  0.1392  0.1640  0.0105
98826W        W41764  15.504   2.001   9.386 -0.1219  0.0973  0.2944
98827W        W41765  15.208   0.676   6.866 -0.0215 -0.0131  0.3430
98828W        W41766  16.082   0.898   7.051 -0.4012 -0.3213 -0.0273
98829W        W41767  18.952   0.553   7.709 -0.0996 -0.2786  0.0207
98830W        W41768  19.025   1.907   7.743  0.4085 -0.0309 -0.2920
98831W        W41769  15.953  34.401   8.259 -0.0779  0.2738  0.1790
98832W        W41770  17.198  33.925   9.304  0.3261  0.0513 -0.0696
98833W        W41771  14.721   2.207   8.644 -0.0316  0.1558  0.0052
98834W        W41772  17.805  34.498   7.247  0.1690  0.1118 -0.2018
98835W        W41773  14.331   0.085   6.859  0.0296  0.0310 -0.1171
98836W        W41774  19.448  34.168  10.383  0.0007  0.0089 -0.0988
98837W        W41775  15.759   1.064   7.459  0.0514  0.1671 -0.2238
98838W        W41776  15.446   1.663   8.063  0.0695  0.3978 -0.0492
98839W        W41777  16.316   3.091   7.728  0.0213 -0.1544  0.2283
98840W        W41778  16.531   0.812   8.896 -0.1579  0.3291  0.1691
98841W        W41779  14.937   3.384   9.409  0.1175  0.1098  0.0143
98842W        W41780  20.297   1.165  10.285  0.1468 -0.0761 -0.1434
98843W        W41781  17.972   0.427   8.764 -0.4681  0.0939  0.3063
98844W        W41782  16.519  33.791   8.288  0.0342 -0.0567 -0.0102
98845W        W41783  15.504   0.439   8.810 -0.0846  0.0163  0.0217
98846W        W41784  18.253   1.004  10.176 -0.2322  0.0676 -0.0056
98847W        W41785  17.624   2.635   9.698  0.2576  0.0929  0.1460
98848W        W41786  16.534   0.683   7.843  0.0593  0.1566  0.3858
98849W        W41787  18.633   2.709   8.662 -0.0940 -0.0157  0.1532
98850W        W41788  15.264   2.186   7.039 -0.0485  0.1500  0.0356
98851W        W41789  15.801   0.308   8.285 -0.1599 -0.0588  0.1248
98852W        W41790  15.163   2.553   8.256  0.2243 -0.1344 -0.2558
98853W        W41791  18.060  33.680   9.699 -0.1377 -0.0606  0.1235
98854W        W41792  14.938  33.884   9.538 -0.1135 -0.2095 -0.0621
98855W        W41793  15.897   1.787   7.310 -0.3031  0.0439  0.2024
98856W        W41794  13.552   1.423  10.122  0.0790  0.0161  0.4651
98857W        W41795  18.660   0.664   7.333 -0.0633  0.0730  0.1344
98858W        W41796  16.120   2.381   7.934  0.1811 -0.0233 -0.0566
98859W        W41797  17.433   1.721   7.682 -0.0997  0.0672 -0.3684
98860W        W41798  17.641   1.979   6.993  0.3913 -0.1550  0.2350
98861W        W41799  13.919   2.362   8.797 -0.1331 -0.2518  0.2592
98862W        W41800  17.980   0.421   9.374  0.1575 -0.1483 -0.0301
98863W        W41801  17.037  34.135   8.108  0.0174 -0.0045 -0.0705
98864W        W41802  15.731  34.106   7.799 -0.0692  0.1857 -0.3130
98865W        W41803  16.804  34.270   9.485 -0.1355  0.0269 -0.4316
98866W        W41804  17.752   2.349   8.394  0.1204  0.0278  0.0138
98867W        W41805  17.509   2.515   7.626  0.3715  0.0821  0.0903
98868W        W41806  18.146   0.640   8.305  0.0532 -0.2054  0.1537
98869W        W41807  17.207   1.757   9.539 -0.1778  0.0161  0.0329
98870W        W41808  19.012   0.975   7.290 -0.1102  0.3752  0.1167
98871W        W41809  17.127   2.807   7.402 -0.2782  0.2479 -0.0769
98872W        W41810  15.772   1.498   7.716 -0.3646 -0.2424  0.0519
98873W        W41811  15.805   0.896   9.793 -0.1695 -0.5384  0.1098
98874W        W41812  15.955  33.496   8.004  0.2064  0.0633  0.0419
98875W        W41813  19.118   3.733   9.818  0.0387  0.0231  0.1672
98876W        W41814  18.096   0.929   6.612 -0.0961 -0.0414  0.3850
98877W        W41815  20.408  34.639   9.999 -0.1433 -0.1099 -0.2031
98878W        W41816  18.087   1.573   8.716  0.3850  0.0564 -0.0790
98879W        W41817  16.214   0.555   8.310  0.0325 -0.1828  0.0536
98880W        W41818  12.880   1.427  10.431 -0.0137  0.1543 -0.0767
98881W        W41819  16.468   0.217   6.884  0.3149 -0.0625 -0.0980
98882W        W41820  17.146   4.028   7.870  0.0788 -0.1650  0.0817
98883W        W41821  17.512   1.830   9.169  0.0597 -0.1717 -0.1846
98884W        W41822  18.186   1.337   7.598  0.0991  0.0392 -0.2651
98885W        W41823  15.447  34.331   8.283 -0.0679 -0.1834  0.1411
98886W        W41824  17.034   1.035   7.965  0.0137  0.0008  0.1273
98887W        W41825  17.482   0.900   7.273 -0.0235  0.2924  0.0662
98888W        W41826  17.083   1.001   8.765 -0.2921 -0.0219 -0.0566
98889W        W41827  16.897  33.822   8.601  0.2446 -0.1964  0.0170
98890W        W41828  14.534   3.193   9.254  0.3192  0.0062  0.0546
98891W        W41829  17.693  34.677   9.250 -0.1063  0.0683  0.1062
98892W        W41830  16.592   1.772   8.885  0.1967 -0.0459  0.0163
98893W        W41831  16.054   3.903   8.245 -0.1280 -0.3656  0.4040
98894W        W41832  16.375  34.248   8.572  0.0901  0.1485 -0.1211
98895W        W41833  18.811   1.754   9.322  0.0139  0.0763 -0.1984
98896W        W41834  16.157   1.760   8.689  0.0431  0.4957 -0.1727
98897W        W41835  15.238   2.066   8.465 -0.2489  0.1766 -0.0633
98898W        W41836  18.688   2.303   8.391  0.2879 -0.0459 -0.2763
98899W        W41837  18.490   0.462  10.183  0.1909  0.1766  0.4042
98900W        W41838  16.905   0.396   8.643  0.1651  0.1553  0.1850
98901W        W41839  14.858  34.449   8.325  0.2562 -0.0524  0.0598
98902W        W41840  16.791   2.681   6.353  0.2387 -0.0688 -0.1319
98903W        W41841  15.514  33.867   8.349 -0.0612  0.1372 -0.1770
98904W        W41842  14.581   3.399   7.393 -0.2755 -0.0740  0.2904
98905W        W41843  17.609   2.152   7.961 -0.0769  0.1037  0.2030
98906W        W41844  16.863   1.536   7.171 -0.1720  0.1703 -0.2294
98907W        W41845  15.802   3.146   8.398 -0.1326 -0.2627 -0.0570
98908W        W41846  16.619  34.288   7.078  0.0464 -0.3189  0.1283
98909W        W41847  14.682   4.213   9.485  0.2081  0.1749  0.0565
98910W        W41848  15.231   1.728   6.737 -0.1279 -0.0513 -0.0673
98911W        W41849  16.848   2.446   8.131  0.2576  0.1917 -0.0635
98912W        W41850  15.663   4.009   9.543  0.1665 -0.0564  0.0435
98913W        W41851  16.994   0.851   6.570 -0.1391 -0.0289 -0.0159
98914W        W41852  17.596   0.995   8.633 -0.1113 -0.2533 -0.0590
98915W        W41853  17.454   1.286   8.115  0.1655  0.1617 -0.4288
98916W        W41854  19.993   0.929   9.866 -0.0342  0.3524  0.0426
98917W        W41855  16.186  34.161   6.663 -0.3253  0.3047 -0.0921
98918W        W41856  18.015   3.567   6.528 -0.0003 -0.2550 -0.0335
98919W        W41857  14.730   1.438   9.591  0.3301  0.0498 -0.3740
98920W        W41858  16.266   0.232   7.310 -0.3145 -0.1917  0.1861
98921W        W41859  19.897  32.137   9.016 -0.0589 -0.0176 -0.4099
98922W        W41860  17.356   2.244   6.628 -0.0859  0.1765 -0.2676
98923W        W41861  17.908   0.657  10.087  0.0514 -0.3037  0.2605
98924W        W41862  15.696   2.660   8.296 -0.0155 -0.0622  0.0014
98925W        W41863  17.005   2.014   9.196  0.1112  0.0893 -0.0303
98926W        W41864  16.774   2.466   9.125 -0.1216 -0.0152 -0.4725
98927W        W41865  15.283   0.315   7.820 -0.3770 -0.0887  0.1626
98928W        W41866  18.744   1.028   9.060  0.1173 -0.0204  0.0810
98929W        W41867  17.300  34.175   9.751 -0.1551  0.1434 -0.1641
98930W        W41868  16.122   1.244   6.680  0.0475  0.0880  0.2496
98931W        W41869  17.955   0.679   7.809 -0.1791  0.2356  0.0786
98932W        W41870  16.661   1.293   8.680  0.0722  0.2667  0.1733
98933W        W41871  16.504  34.448   8.065  0.1241  0.2743 -0.0613
98934W        W41872  16.882   0.822   7.445 -0.1802  0.3157 -0.2549
98935W        W41873  17.465   1.403   7.165  0.3128 -0.0954 -0.0201
98936W        W41874  14.414  33.662   9.138  0.2842  0.2670  0.4000
98937W        W41875  17.193   0.190   8.313 -0.0282  0.0887 -0.3470
98938W        W41876  17.063   1.844   8.758 -0.3681 -0.0282  0.2435
98939W        W41877  15.869   2.394   9.186  0.2487 -0.0954 -0.3733
98940W        W41878  15.317   0.644   8.266  0.1280  0.0094  0.0837
98941W        W41879  18.402   1.356   6.725  0.2039 -0.1295 -0.1451
98942W        W41880  18.686  34.599   8.899 -0.1541  0.2045  0.3434
98943W        W41881  16.614   1.446   6.773  0.2588 -0.2510  0.1039
98944W        W41882  18.229   1.906   7.598 -0.0527 -0.2044 -0.1194
98945W        W41883  17.795   2.954   9.180 -0.0151  0.3314 -0.0511
98946W        W41884  15.795  34.112   8.749  0.2585  0.1375  0.0527
98947W        W41885  18.153  34.270   9.212  0.1585  0.1335 -0.1846
98948W        W41886  17.671   1.373   9.094  0.0431 -0.0658 -0.2390
98949W        W41887  16.579  34.009   7.795 -0.0557  0.2835 -0.1285
98950W        W41888  15.759   0.163   9.200 -0.3527 -0.0842  0.2527
98951W        W41889  16.002   2.689   8.722 -0.0735  0.3440 -0.2314
98952W        W41890  17.643  34.272   8.970  0.4543 -0.0444 -0.0741
98953W        W41891  16.654   3.950   7.915  0.1698 -0.3945 -0.0535
98954W        W41892  17.183   2.433   8.833 -0.0045 -0.0687  0.2235
98955W        W41893  16.619   1.158   7.639  0.2506 -0.1531  0.0112
98956W        W41894  15.260   1.939   7.553  0.2325 -0.1663  0.1391
98957W        W41895  15.812   3.017   7.864  0.1982 -0.0869  0.0693
98958W        W41896  18.473   1.827   8.970 -0.0114 -0.3407  0.3958
98959W        W41897  16.457   0.650   7.218  0.2397 -0.0408  0.1386
98960W        W41898  18.492   1.856   8.504  0.1048  0.1132 -0.0668
98961W        W41899  17.370  33.878   8.328 -0.2001 -0.1458 -0.0916
98962W        W41900  18.838   0.710   8.568  0.3857  0.1281 -0.3259
98963W        W41901  17.846   0.080   8.229  0.1046  0.2210 -0.0529
98964W        W41902  16.280   1.316   8.985 -0.2105 -0.0163 -0.1225
98965W        W41903  15.724   2.161   7.634  0.1640 -0.2185  0.1705
98966W        W41904  15.772   2.320   7.165 -0.0146  0.3384 -0.1718
98967W        W41905  16.816   1.126   9.155  0.1790  0.4189 -0.1558
98968W        W41906  14.551   1.662   8.668  0.0104  0.1467  0.0324
98969W        W41907  15.918   1.477   8.212 -0.1137  0.0160 -0.0353
98970W        W41908  18.076   3.095   7.976 -0.1863 -0.1033 -0.0912
98971W        W41909  16.490   0.301   9.077  0.0384 -0.0707 -0.1401
98972W        W41910  17.178   1.478   9.019  0.0491 -0.1170  0.0278
98973W        W41911  18.243   2.327   8.633 -0.1037  0.2087  0.1168
98974W        W41912  18.593   1.699   7.850  0.1367 -0.0435  0.1889
98975W        W41913  16.964  34.575   7.891  0.0068 -0.2027 -0.0251
98976W        W41914  15.092   0.991   7.315  0.0592  0.1171  0.0009
98977W        W41915  15.290   1.643   6.189 -0.0176  0.0101 -0.2625
98978W        W41916  16.735  34.590   8.567 -0.1639 -0.1307 -0.1306
98979W        W41917  16.689   4.842   8.015 -0.1772 -0.2292  0.1271
98980W        W41918  17.706   3.465   7.001 -0.3813  0.2718 -0.0600
98981W        W41919  12.627  34.024   8.728  0.2999 -0.0136 -0.0443
98982W        W41920  17.977   1.956   8.427 -0.1026 -0.2416 -0.2183
98983W        W41921  18.821   2.766   6.812 -0.2986  0.0618 -0.0256
98984W        W41922  18.196  34.587   8.638  0.3254 -0.0250  0.1806
98985W        W41923  17.133   2.204   7.838  0.3356  0.0793 -0.3136
98986W        W41924  17.968   2.444   9.243  0.4676 -0.0763  0.0771
98987W        W41925  16.547  34.461   9.057 -0.3283 -0.2719 -0.1842
98988W        W41926  18.445   1.096   7.185  0.0921  0.1580 -0.1257
98989W        W41927  17.410   3.011   7.784  0.3480 -0.2292  0.0222
98990W        W41928  16.674   0.299   8.174 -0.3008  0.2862  0.1493
98991W        W41929  17.059   0.906   5.977 -0.2075 -0.0974 -0.0995
98992W        W41930  17.562   1.949   8.663 -0.0364  0.0077 -0.0223
98993W        W41931  16.299   1.503   7.720  0.0393  0.0206  0.0008
98994W        W41932  19.640   1.131   7.844 -0.0854  0.0400  0.3581
98995W        W41933  17.637   1.495   8.546  0.0303 -0.2576 -0.3696
98996W        W41934  17.376   2.108   9.829 -0.0286  0.0701  0.0360
98997W        W41935  17.081   1.384   8.404  0.1025 -0.1393 -0.1449
98998W        W41936  14.235  34.517   9.017  0.0214 -0.1419  0.2933
98999W        W41937  15.820   1.364   9.197 -0.0900 -0.0510  0.0455
99000W        W41938  14.813   1.251   8.770  0.2854  0.1947 -0.1416
99001W        W41939  16.062  34.542   8.911 -0.0555 -0.1776 -0.0495
99002W        W41940  16.041   0.352   8.772 -0.0125 -0.0638  0.2275
99003W        W41941  18.301  34.523   6.907  0.1657 -0.3062  0.0301
99004W        W41942  16.401   5.380  10.020  0.1786 -0.0558 -0.2222
99005W        W41943  17.364   0.948   9.177  0.3613  0.1669 -0.4206
99006W        W41944  16.309   6.668   2.836 -0.2014  0.0829  0.0323
99007W        W41945  15.328   5.429   2.125 -0.0352  0.0277  0.0485
99008W        W41946  17.675   4.108   0.071 -0.1082 -0.0165  0.0452
99009W        W41947  18.933   4.050   0.567 -0.0066 -0.1671  0.1728
99010W        W41948  15.470   4.586   1.228 -0.1220 -0.1440 -0.0122
99011W        W41949  16.654   7.437   2.368 -0.4328 -0.2497  0.3958
99012W        W41950  16.398   2.560   3.636  0.1331 -0.1057 -0.0111
99013W        W41951  17.720   8.483   3.401 -0.0730  0.0363  0.1711
99014W        W41952  19.522   6.695   1.348 -0.2072  0.0329  0.2235
99015W        W41953  17.018   5.700   1.309 -0.0242 -0.2452 -0.0724
99016W        W41954  16.258   3.432   2.580 -0.0190  0.1023 -0.3264
99017W        W41955  16.547   6.902   2.433  0.3406 -0.2451  0.4378
99018W        W41956  16.808   3.139   1.905 -0.2295 -0.1148  0.0335
99019W        W41957  14.962   2.727   1.454  0.2000 -0.0652  0.0785
99020W        W41958  16.477   5.673   2.615 -0.1174 -0.1355  0.2559
99021W        W41959  14.370   6.341   0.701  0.2545 -0.3401 -0.0260
99022W        W41960  15.056   5.327   3.344 -0.1418  0.1374 -0.2851
99023W        W41961  16.474   4.633   2.375 -0.0379  0.0485  0.0333
99024W        W41962  16.268   8.595   0.727  0.1957  0.0731 -0.4767
99025W        W41963  16.591   3.896   3.581  0.2961 -0.2690  0.0217
99026W        W41964  16.863   2.707   3.086  0.0751 -0.0929  0.0212
99027W        W41965  15.824   8.002   2.249 -0.0246 -0.1648  0.0863
99028W        W41966  16.585   5.702  31.735 -0.0598  0.1201  0.0997
99029W        W41967  15.757   5.041   1.204 -0.0597  0.0762 -0.4620
99030W        W41968  14.553   5.037   2.595 -0.1510  0.0095  0.1934
99031W        W41969  17.470   3.920   3.391 -0.0706 -0.1046  0.2183
99032W        W41970  17.993   4.726   2.705 -0.1733  0.2008  0.0919
99033W        W41971  16.426   7.346   1.124  0.1662 -0.1881  0.0365
99034W        W41972  15.735   7.754   1.805  0.1329 -0.0553  0.0487
99035W        W41973  17.454   2.832   3.114  0.1720  0.2417  0.2854
99036W        W41974  14.545   5.512   1.890  0.0109  0.2682  0.2414
99037W        W41975  14.591   7.326   0.060 -0.2042 -0.2020  0.2528
99038W        W41976  16.605   7.471   1.602  0.0045  0.3263  0.2732
99039W        W41977  17.497   7.095   2.035 -0.0776 -0.0513  0.2266
99040W        W41978  18.417   6.856   1.441 -0.0165 -0.1611 -0.0393
99041W        W41979  15.200   7.201   3.397  0.0621 -0.0649  0.0176
99042W        W41980  13.751   5.311   1.301  0.1076  0.0013  0.2220
99043W        W41981  16.654   6.537   3.267 -0.0919  0.1336  0.0747
99044W        W41982  14.412   6.634   2.659  0.2142  0.1682  0.1120
99045W        W41983  16.021   7.512   2.344 -0.2476  0.0441 -0.0340
99046W        W41984  16.145   5.782   0.761  0.1623 -0.4373 -0.3906
99047W        W41985  15.685   7.366   0.043 -0.0381  0.1215  0.1205
99048W        W41986  17.080   5.223   1.082 -0.1266 -0.3454  0.0943
99049W        W41987  16.228   7.247   1.926 -0.1973  0.1563 -0.0828
99050W        W41988  14.304   6.173   1.427 -0.0296 -0.2941 -0.3190
99051W        W41989  18.211   3.336   2.946  0.0239 -0.2959  0.2228
99052W        W41990  13.924   5.104   0.862 -0.0768 -0.0958 -0.0972
99053W        W41991  16.982   5.281  31.056  0.1791  0.1089  0.2181
99054W        W41992  16.790   4.605   0.769  0.1599  0.0981  0.2290
99055W        W41993  15.813   4.830   1.674  0.2761  0.0632 -0.2726
99056W        W41994  17.523   4.487   2.532  0.1713  0.0919  0.1062
99057W        W41995  14.291   6.000   3.060 -0.2928  0.4167 -0.0222
99058W        W41996  16.647   4.931   1.869 -0.0091 -0.2309  0.1721
99059W        W41997  17.143   5.263   3.977  0.1530  0.2460  0.1586
99060W        W41998  18.845   7.079   1.910  0.3215  0.2126  0.0260
99061W        W41999  16.645   4.307   2.819  0.0548 -0.1811 -0.1421
99062W        W42000  15.482   7.264   2.984 -0.3214 -0.0377 -0.1142
99063W        W42001  15.744   5.715   2.097  0.3629 -0.0788 -0.0964
99064W        W42002  16.484   7.043   0.722  0.0803 -0.4390 -0.1994
99065W        W42003  17.866   7.533   2.940  0.0649  0.3743  0.2001
99066W        W42004  16.359   7.854   1.128  0.2793  0.0746  0.0764
99067W        W42005  14.527   6.397   2.093 -0.1942  0.2877  0.0612
99068W        W42006  15.958   5.541   3.443  0.1725  0.1332  0.1409
99069W        W42007  15.198   4.356   3.165  0.1962 -0.0770  0.1372
99070W        W42008  17.075   3.673   0.786  0.0650  0.0351 -0.1655
99071W        W42009  19.550   6.084   3.548 -0.0968 -0.1183  0.1962
99072W        W42010  15.762   6.480   2.664  0.0286  0.2287  0.0490
99073W        W42011  16.562   5.566   1.650 -0.3880  0.0327 -0.2933
99074W        W42012  15.673   6.433   1.748 -0.1592  0.1641 -0.0154
99075W        W42013  17.598   5.782   1.334  0.0303  0.0868  0.1808
99076W        W42014  16.071   6.262   0.420  0.1978 -0.1522  0.0975
99077W        W42015  18.979   1.965   2.360  0.2031 -0.2204 -0.1557
99078W        W42016  17.112   3.172   2.865 -0.3689 -0.1014  0.2736
99079W        W42017  15.174   4.302   0.917 -0.3964  0.0542 -0.3254
99080W        W42018  17.523   4.665   1.959  0.0159  0.0092  0.1264
99081W        W42019  18.678   5.202   2.018  0.0613  0.3846 -0.4183
99082W        W42020  16.462   6.168  31.494 -0.0812 -0.0153 -0.1852
99083W        W42021  13.897   6.133   3.343  0.0933 -0.1911  0.3043
99084W        W42022  16.288   5.346   3.033 -0.5313 -0.2810 -0.1998
99085W        W42023  17.230   6.293   2.510  0.1835 -0.3504  0.0121
99086W        W42024  14.735   8.190  31.081 -0.0851  0.2303 -0.0138
99087W        W42025  14.694   5.093   3.086  0.1873  0.0662 -0.0339
99088W        W42026  14.997   7.746   0.906 -0.0157 -0.0147  0.0132
99089W        W42027  15.353   3.510   2.880 -0.0864  0.2595  0.4332
99090W        W42028  14.791   5.978   1.890 -0.0526 -0.1649 -0.1212
99091W        W42029  17.256   4.859  31.946  0.0250 -0.0711 -0.0597
99092W        W42030  16.625   4.125   2.171  0.2250 -0.2680 -0.0782
99093W        W42031  17.391   4.233   1.556  0.0177 -0.0686  0.0312
99094W        W42032  14.883   6.345   0.728  0.1138  0.2373  0.0077
99095W        W42033  16.525   8.018   1.559 -0.1149  0.2632 -0.1049
99096W        W42034  17.181   3.440   1.947  0.0654  0.0472  0.2745
99097W        W42035  17.315   5.578   0.842  0.1579  0.1094 -0.1562
99098W        W42036  14.735   4.139   2.668 -0.4797 -0.3110 -0.1315
99099W        W42037  16.218   4.761   2.954 -0.3516 -0.3666 -0.1217
99100W        W42038  15.825   3.695   2.323 -0.0587 -0.3734 -0.2058
99101W        W42039  14.926   3.226   2.204 -0.0659  0.1866  0.1158
99102W        W42040  17.984   5.465   3.430  0.0412  0.1630 -0.3086
99103W        W42041  15.723   4.105  31.903  0.0685  0.0394 -0.0220
99104W        W42042  18.192   5.548   1.467  0.1515 -0.2538 -0.2352
99105W        W42043  17.548   5.742   0.352 -0.2950  0.4244 -0.2688
99106W        W42044  15.306   6.644   1.045  0.0359  0.2729  0.2341
99107W        W42045  17.824   5.405   3.919 -0.1290 -0.1170  0.1480
99108W        W42046  16.171   5.926   0.068 -0.0489  0.0127 -0.4325
99109W        W42047  18.268   7.938   1.045 -0.3395 -0.2745  0.2150
99110W        W42048  15.984   3.617   1.864 -0.0920 -0.2722  0.0047
99111W        W42049  16.034   3.151   1.177  0.2701  0.1757  0.2320
99112W        W42050  14.142   7.118   1.740 -0.1295 -0.0910 -0.1619
99113W        W42051  17.202   7.316   2.320 -0.1283 -0.3871  0.1849
99114W        W42052  16.135   3.975   1.101 -0.0714 -0.0786  0.0502
99115W        W42053  17.792   8.088   2.104 -0.3461 -0.1208  0.4002
99116W        W42054  16.207   5.322   0.911  0.1090  0.1619  0.1662
99117W        W42055  16.049   6.919   2.467 -0.0436  0.1406 -0.2189
99118W        W42056  17.054   3.899   3.769  0.3138 -0.0751  0.0096
99119W        W42057  17.048   6.155   3.952 -0.2504  0.0819 -0.0593
99120W        W42058  17.273   5.085   2.981 -0.2919  0.1360  0.0579
99121W        W42059  15.542   3.176   1.042  0.0737  0.2220  0.0206
99122W        W42060  16.680   6.584   0.792 -0.1116  0.1990 -0.0865
99123W        W42061  15.220   7.448  31.863  0.2696  0.2928 -0.0268
99124W        W42062  15.519   4.412   1.696  0.1279  0.1796  0.1360
99125W        W42063  17.186   5.548  31.931 -0.0551 -0.0837 -0.1071
99126W        W42064  17.929   4.623   1.678  0.1727 -0.0655  0.1929
99127W        W42065  14.816   6.043   4.315  0.0362  0.1882 -0.0622
99128W        W42066  16.173   5.596   3.927  0.2157 -0.0802  0.0866
99129W        W42067  15.710   5.279   0.667  0.1096  0.1665 -0.1190
99130W        W42068  14.408   5.793   4.953  0.1537  0.2924  0.0020
99131W        W42069  17.505   2.903   2.548 -0.0584  0.0659 -0.0111
99132W        W42070  18.184   5.319   0.847 -0.4090 -0.0936 -0.2648
99133W        W42071  16.677   5.382   3.872 -0.2784 -0.1716 -0.1541
99134W        W42072  18.201   6.201  31.785  0.2378 -0.0142  0.0217
99135W        W42073  15.762   4.706   0.774  0.4210 -0.2983  0.0053
99136W        W42074  15.804   5.616  31.804 -0.0913  0.1193  0.1592
99137W        W42075  14.357   6.824   3.945  0.3003  0.1336 -0.1627
99138W        W42076  17.524   6.185   0.534 -0.1356  0.0620 -0.0157
99139W        W42077  16.958   5.859   2.653 -0.2040 -0.4833  0.3253
99140W        W42078  16.679   4.172  31.795  0.0324 -0.0839 -0.1408
99141W        W42079  17.692   6.577   2.360 -0.0044  0.1138  0.1862
99142W        W42080  14.788   7.941   3.206  0.0401  0.0985  0.0814
99143W        W42081  16.049   6.122   4.443  0.5656 -0.2173  0.1839
99144W        W42082  16.027   7.138   1.420  0.4292  0.1885 -0.1924
99145W        W42083  15.790   3.169   2.769  0.0520  0.1919  0.6283
99146W        W42084  14.826   4.595   0.576  0.0239  0.2339 -0.3753
99147W        W42085  17.103   4.299   2.019 -0.2287  0.4881 -0.4326
99148W        W42086  13.697   7.119   0.248 -0.0854 -0.1179 -0.0710
99149W        W42087  17.967   3.951   0.489 -0.1057  0.0572  0.0503
99150W        W42088  17.043   4.252   2.513 -0.1089 -0.0346 -0.3557
99151W        W42089  17.962   4.152   3.363  0.2226  0.2200 -0.1163
99152W        W42090  18.464   5.704   3.599 -0.0990 -0.1213 -0.2222
99153W        W42091  17.877   4.914  31.380 -0.2250  0.2548  0.1915
99154W        W42092  17.424   5.862   2.712 -0.0523  0.0781 -0.0364
99155W        W42093  15.165   4.964  29.897  0.0134 -0.3102  0.1341
99156W        W42094  16.958   4.046   4.259  0.2205 -0.2247 -0.0517
99157W        W42095  14.612   6.181   3.365 -0.0580  0.2531  0.1174
99158W        W42096  13.812   7.290   2.730  0.3916 -0.4636  0.0373
99159W        W42097  17.383   6.534   4.003  0.0436 -0.3150  0.1899
99160W        W42098  18.037   4.040   2.330 -0.2225  0.0501 -0.1364
99161W        W42099  16.380   5.079   2.627 -0.2263 -0.2645  0.0587
99162W        W42100  16.549   3.976   1.362  0.0920  0.2004  0.1704
99163W        W42101  15.675   8.006   0.564  0.1748  0.1630 -0.0655
99164W        W42102  16.345   6.238   0.856 -0.1576 -0.1036 -0.0303
99165W        W42103  16.914   4.090   3.192 -0.0562  0.4484 -0.0607
99166W        W42104  16.884   7.487   2.917  0.0488 -0.0501 -0.5401
99167W        W42105  16.347   4.714  29.909  0.1196  0.0296  0.1254
99168W        W42106  17.122   5.070   4.505  0.0339  0.0339  0.2593
99169W        W42107  15.814   6.614   1.284 -0.2932  0.1005  0.0489
99170W        W42108  17.577   2.491   2.288  0.1967  0.1737  0.1093
99171W        W42109  15.482   6.953   1.547  0.1406  0.1310 -0.0628
99172W        W42110  15.959   4.483   1.188 -0.2042 -0.3077 -0.3782
99173W        W42111  14.299   4.857   0.818  0.3042  0.0732 -0.0112
99174W        W42112  18.342   3.429   2.264 -0.3632 -0.0600  0.2048
99175W        W42113  18.009   5.491   0.165 -0.1832 -0.2486  0.0125
99176W        W42114  16.549   3.892   2.611 -0.2116  0.1038 -0.2719
99177W        W42115  16.939   3.902   1.795 -0.1260 -0.0835 -0.0962
99178W        W42116  13.969   6.479   2.939 -0.2680  0.5153  0.0322
99179W        W42117  16.194   6.222   2.604  0.2257 -0.1089 -0.1452
99180W        W42118  16.474   4.803  31.549  0.1064  0.1064  0.0206
99181W        W42119  17.853   5.688   1.757 -0.1032 -0.2056 -0.0224
99182W        W42120  16.492   5.428   2.121 -0.1549 -0.1923  0.3687
99183W        W42121  14.645   3.767   1.574  0.0265  0.2518 -0.4367
99184W        W42122  19.338   5.511   2.622  0.1516 -0.3021  0.0252
99185W        W42123  15.689   4.195   0.861 -0.0739 -0.2513  0.1095
99186W        W42124  14.926   6.164   1.379  0.0926  0.1782  0.2058
99187W        W42125  18.969   5.018   1.572 -0.0782  0.1716 -0.2112
99188W        W42126  14.951   5.121   0.414  0.1987  0.2220  0.0028
99189W        W42127  15.100   6.388   1.987 -0.0920  0.2519  0.2148
99190W        W42128  16.894   4.815   2.713  0.1789  0.1117  0.1592
99191W        W42129  17.111   6.814   3.239  0.1808  0.0105  0.1307
99192W        W42130  17.954   4.571   2.168 -0.2676  0.2626  0.2871
99193W        W42131  15.681   4.176   2.147  0.1069 -0.0721  0.0622
99194W        W42132  16.171   5.920   2.249  0.1739  0.4113  0.0307
99195W        W42133  17.842   5.929   3.096  0.0741  0.0266 -0.3146
99196W        W42134  16.846   5.374   3.377  0.3849  0.0512 -0.1574
99197W        W42135  14.811   7.270   2.681 -0.0150  0.0610  0.0625
99198W        W42136  16.691   4.081   0.888 -0.1622 -0.1232  0.0744
99199W        W42137  18.013   6.458   0.699 -0.0766 -0.0628 -0.1211
99200W        W42138  17.579   5.051   4.177 -0.2296 -0.3123 -0.2572
99201W        W42139  16.256   5.833   1.287 -0.2101  0.1145  0.2252
99202W        W42140  14.036   5.625   1.998 -0.2033  0.1464  0.3572
99203W        W42141  15.658   7.457   1.418 -0.0199 -0.4155 -0.2507
99204W        W42142  17.854   4.240   2.866 -0.1038 -0.2902  0.1001
99205W        W42143  15.450   6.364   3.107 -0.2057 -0.0587  0.0592
99206W        W42144  16.723   7.175   0.295  0.1245  0.3819  0.4002
99207W        W42145  14.869   6.425   2.897 -0.0762  0.1496 -0.1220
99208W        W42146  19.487   2.340   0.988 -0.1532 -0.1341 -0.0994
99209W        W42147  17.380   7.035   0.872 -0.1136 -0.1812 -0.0994
99210W        W42148  16.833   5.141   2.361  0.1143  0.0578  0.1168
99211W        W42149  18.906   5.509   2.859  0.0662 -0.0619 -0.3798
99212W        W42150  16.966   5.244   1.533 -0.2916 -0.2428 -0.1144
99213W        W42151  16.269   2.961   4.633  0.0284 -0.2861 -0.2294
99214W        W42152  14.914   3.355   3.116 -0.2475  0.2589 -0.2041
99215W        W42153  16.170   8.100   0.706  0.1849  0.3511  0.0206
99216W        W42154  14.197   4.071   3.505 -0.5577 -0.1099  0.1272
99217W        W42155  16.945   6.947   4.433  0.2232  0.0833  0.1688
99218W        W42156  14.783   4.929   4.132  0.3149  0.0592  0.1434
99219W        W42157  16.977   3.769   2.298  0.1560  0.2164 -0.1570
99220W        W42158  16.029   3.258   0.684 -0.3698 -0.0735  0.1109
99221W        W42159  16.174   6.474   2.171 -0.1964 -0.1782 -0.0568
99222W        W42160  17.937   6.134   1.784  0.0248 -0.1639 -0.0649
99223W        W42161  16.660   5.392   1.196  0.2793 -0.0109  0.2508
99224W        W42162  17.819   5.098   1.891  0.2832 -0.1903  0.0223
99225W        W42163  16.097   6.091   1.797 -0.2779  0.0503  0.0634
99226W        W42164  18.819   5.338   0.592 -0.2141  0.1880  0.1273
99227W        W42165  16.245   4.796   0.888  0.1031  0.2357  0.1305
99228W        W42166  15.746   7.527   0.493  0.1849  0.0533  0.0040
99229W        W42167  15.606   3.066   3.692 -0.0179  0.3914 -0.0508
99230W        W42168  18.347   4.881   2.344  0.2964 -0.0207 -0.1778
99231W        W42169  17.072   4.690   1.671 -0.0769  0.2352 -0.0585
99232W        W42170  17.756   5.076   3.143 -0.0374 -0.0440 -0.0384
99233W        W42171  17.563   4.625   3.044 -0.1288 -0.0013 -0.0695
99234W        W42172  15.422   5.125   3.052 -0.1617 -0.0899 -0.3016
99235W        W42173  14.305   4.036   4.041  0.1533 -0.3284 -0.2697
99236W        W42174  17.257   9.166   2.875 -0.0926  0.0192  0.0475
99237W        W42175  17.209   5.799  30.994 -0.1500 -0.0656  0.0729
99238W        W42176  18.855   5.023   3.029 -0.2184 -0.0299 -0.1222
99239W        W42177  18.810   3.929   3.292 -0.1631  0.2325  0.0371
99240W        W42178  17.551   5.926  31.447 -0.3940  0.0936 -0.1001
99241W        W42179  14.398   2.906   1.572 -0.2455  0.0692  0.0055
99242W        W42180  18.677   6.577   3.570  0.2991  0.2452  0.1145
99243W        W42181  15.094   5.672   1.290 -0.2575  0.1709  0.2033
99244W        W42182  17.782   4.972   3.606 -0.1751 -0.2871  0.0354
99245W        W42183  15.502   7.700   0.964  0.1739  0.0204  0.2788
99246W        W42184  17.886   5.832   2.490 -0.0906 -0.1399  0.1565
99247W        W42185  17.385   5.931   1.768  0.1435  0.1308  0.0573
99248W        W42186  15.376   3.264   2.411 -0.0250  0.0251  0.1805
99249W        W42187  14.340   7.216   3.446  0.4292 -0.1298 -0.0195
99250W        W42188  14.482   5.554   0.099  0.3696  0.0610  0.0543
99251W        W42189  15.751   6.946   0.376 -0.1177  0.0447 -0.0451
99252W        W42190  16.664   6.240   2.859  0.1411 -0.1035 -0.0016
99253W        W42191  19.523   5.266   3.427  0.0593  0.2391  0.2715
99254W        W42192  16.152   4.698   0.421 -0.0530  0.1700 -0.2061
99255W        W42193  18.577   3.140   2.681  0.1851  0.1555 -0.1752
99256W        W42194  16.016   7.047   0.768 -0.1868  0.0186 -0.2057
99257W        W42195  17.104   4.713   2.265  0.3663  0.1183  0.0317
99258W        W42196  15.690   7.243   1.932  0.0308 -0.1930 -0.0159
99259W        W42197  15.257   6.013   1.695 -0.1980  0.1095 -0.2668
99260W        W42198  13.533   5.924   1.063  0.2179 -0.0851  0.2642
99261W        W42199  17.549   4.148   2.068 -0.1835  0.0499  0.0393
99262W        W42200  19.078   4.435   3.035  0.2962  0.2072  0.0368
99263W        W42201  16.964   6.300   1.973 -0.1810  0.1981 -0.5913
99264W        W42202  18.400   5.492   2.431 -0.0725  0.0042  0.3161
99265W        W42203  14.672   6.127   2.584  0.2567  0.1146  0.1365
99266W        W42204  17.275   5.422   2.502  0.1167 -0.0866  0.3492
99267W        W42205  16.831   6.115   3.439  0.0715  0.0795 -0.1274
99268W        W42206  18.834   5.924   1.363 -0.1754 -0.2068 -0.0075
99269W        W42207  14.407   7.056   1.266 -0.0244  0.0223  0.3403
99270W        W42208  15.802   5.412   2.898 -0.3210 -0.2531  0.1924
99271W        W42209  14.869   5.774   3.049 -0.2116  0.1917 -0.2519
99272W        W42210  17.999   4.998   1.369 -0.1967  0.1211  0.1928
99273W        W42211  16.379   3.958   1.780  0.1144 -0.0172  0.2401
99274W        W42212  16.187   5.302   1.371  0.1446 -0.1362 -0.1168
99275W        W42213  15.238   6.534   3.676  0.3078  0.0556 -0.3200
99276W        W42214  14.359   4.799   2.127  0.3470  0.5727 -0.0503
99277W        W42215  16.048   8.661   0.268 -0.3175 -0.0309  0.1326
99278W        W42216  16.806   6.059   0.009  0.1532 -0.2468  0.1108
99279W        W42217  16.558   6.537   1.868  0.0145 -0.1507 -0.1149
99280W        W42218  17.524   7.593   1.994  0.0769 -0.0206 -0.2277
99281W        W42219  16.789   4.865   1.203 -0.1127 -0.1190 -0.1329
99282W        W42220  15.200   6.907   1.990  0.1212  0.0855 -0.0707
99283W        W42221  14.614   5.984   0.383 -0.0150  0.1379  0.2629
99284W        W42222  17.023   7.565   1.937  0.2232 -0.1621  0.0665
99285W        W42223  15.892   6.580   0.771  0.0325 -0.1029 -0.1049
99286W        W42224  19.449   7.033   3.264  0.1011  0.2115  0.2599
99287W        W42225  16.050   2.894   0.016  0.0041 -0.0649 -0.4219
99288W        W42226  19.126   4.874   2.668 -0.0701 -0.0185  0.1622
99289W        W42227  17.172   3.279   1.454 -0.0202  0.2719 -0.1234
99290W        W42228  16.712   6.489   3.808 -0.1512  0.0688 -0.1755
99291W        W42229  16.024   5.462   2.457 -0.2355  0.1502  0.0401
99292W        W42230  17.791   2.683   0.246 -0.0646  0.2741 -0.3217
99293W        W42231  16.140   4.979   2.188 -0.0175 -0.3123 -0.1443
99294W        W42232  16.159   5.202   4.710  0.1040 -0.0765  0.2742
99295W        W42233  13.292   7.321   3.098 -0.1557 -0.0502  0.0186
99296W        W42234  16.849   7.016   1.072 -0.1221  0.0415  0.3730
99297W        W42235  16.466   4.438   3.326  0.0005  0.0736 -0.2163
99298W        W42236  17.587   6.129   2.131 -0.0013 -0.4004  0.0170
99299W        W42237  17.539   3.948   2.492 -0.2901 -0.3613 -0.0445
99300W        W42238  15.973   5.621   1.653 -0.0545  0.2012  0.1198
99301W        W42239  18.408   5.863   2.704  0.1962  0.0065  0.0689
99302W        W42240  15.661   8.596   0.592  0.2007 -0.2838  0.1411
99303W        W42241  15.604   6.682   2.231  0.0815  0.0690 -0.0324
99304W        W42242  14.815   6.702   2.334 -0.1998  0.0034 -0.0061
99305W        W42243  14.440   5.041   0.320  0.2275 -0.1720  0.1501
99306W        W42244  18.946   4.300   2.163  0.1436  0.1410  0.2522
99307W        W42245  14.908   5.375   2.735 -0.1819  0.0990 -0.0811
99308W        W42246  18.372   4.368   2.489 -0.1787 -0.4534  0.2636
99309W        W42247  15.377   5.514   2.586  0.0840 -0.0291 -0.3632
99310W        W42248  18.634   4.652   1.821 -0.0356  0.1679  0.1338
99311W        W42249  17.219   5.851   2.223  0.0827  0.0190  0.0988
99312W        W42250  14.818   3.465   3.764  0.1594 -0.0528 -0.1683
99313W        W42251  17.580   3.912   1.089 -0.1295 -0.1022 -0.2414
99314W        W42252  18.694   6.086   3.833 -0.1760 -0.1828  0.0200
99315W        W42253  16.317   4.812   1.431  0.1561 -0.1306 -0.3847
99316W        W42254  18.272   7.336   2.676  0.1644 -0.0611  0.1756
99317W        W42255  17.301   5.074   2.008  0.1254  0.4091  0.1365
99318W        W42256  17.511   3.598   0.066 -0.1793 -0.0549 -0.0280
99319W        W42257  15.225   6.519   1.542 -0.2249  0.2587  0.0691
99320W        W42258  15.643   4.692   2.168 -0.1805  0.2092  0.3484
99321W        W42259  16.946   6.618   2.724 -0.2245  0.0680  0.2393
99322W        W42260  15.148   4.780   0.935 -0.0692  0.0435  0.2473
99323W        W42261  16.707   6.644   0.274 -0.0065 -0.1414  0.0922
99324W        W42262  18.999   3.796   2.353 -0.1054 -0.1290  0.2643
99325W        W42263  15.874   8.389   0.966  0.0032 -0.3140 -0.2202
99326W        W42264  19.257   7.055   1.567 -0.2368 -0.1941 -0.2361
99327W        W42265  17.693   8.298   2.607 -0.1186  0.0582  0.0065
99328W        W42266  15.728   4.102   2.671 -0.1797 -0.3138 -0.1576
99329W        W42267  17.440   7.158   3.144  0.2717 -0.1799 -0.1423
99330W        W42268  17.652   8.005   3.062  0.2121  0.0660  0.1714
99331W        W42269  17.335   3.388   2.463  0.0233 -0.4215  0.3966
99332W        W42270  16.549   4.449   1.727 -0.1368  0.0182  0.2429
99333W        W42271  14.906   7.827   0.064 -0.3703  0.1907  0.0671
99334W        W42272  18.977   2.828   1.828  0.0536  0.1563 -0.1352
99335W        W42273  18.213   5.420   1.997  0.0244 -0.1258  0.2187
99336W        W42274  15.932   7.377  31.225  0.0952 -0.0026  0.0991
99337W        W42275  17.062   3.088   3.372  0.0248 -0.3221 -0.0505
99338W        W42276  16.660   5.785   3.029 -0.0775  0.2355  0.4472
99339W        W42277  15.719   6.531   3.536 -0.3064 -0.0734  0.0720
99340W        W42278  15.630   6.634  31.554  0.0978  0.0003 -0.1673
99341W        W42279  15.219   6.038   3.385  0.0362  0.2918  0.0736
99342W        W42280  16.652   5.938   2.186  0.0558  0.0048  0.2426
99343W        W42281  16.679   8.058   0.525 -0.0714  0.3351  0.6073
99344W        W42282  17.693   5.342   1.072 -0.1317 -0.7716 -0.0107
99345W        W42283  18.371   4.793   0.614 -0.1793  0.0963  0.0353
99346W        W42284  17.967   5.272   2.474  0.2335 -0.2632 -0.0642
99347W        W42285  17.620   5.531   2.201  0.1172  0.3158  0.1823
99348W        W42286  19.087   2.586   0.904  0.4584 -0.1407 -0.2076
99349W        W42287  17.453   3.751   1.633  0.1842  0.2253 -0.1480
99350W        W42288  16.620   6.437   2.386 -0.1596  0.0050 -0.0278
99351W        W42289  15.245   5.496  31.018 -0.2349 -0.0078 -0.0452
99352W        W42290  13.631   5.377  30.963  0.6656  0.1852 -0.2046
99353W        W42291  15.247   6.413   2.502  0.3918  0.1434 -0.3859
99354W        W42292  16.916   4.429   3.653 -0.0894  0.1767 -0.1312
99355W        W42293  15.858   4.111   3.579  0.1726  0.1751 -0.0352
99356W        W42294  13.063   5.844   1.861  0.1111  0.1636 -0.4111
99357W        W42295  15.613   4.979   2.590  0.0202 -0.3390  0.0975
99358W        W42296  16.922   7.794   1.285 -0.2406  0.0271 -0.2310
99359W        W42297  15.459   3.910   1.720  0.2900 -0.2479 -0.3675
99360W        W42298  14.521   3.704   2.911  0.2549  0.0134 -0.2808
99361W        W42299  16.713   6.550   1.267  0.0829 -0.1359 -0.3826
99362W        W42300  16.788   7.065   1.991  0.0542 -0.0672 -0.0249
99363W        W42301  17.364   3.933   0.463  0.0835 -0.0934 -0.0233
99364W        W42302  18.663   7.410   3.032 -0.0710 -0.2936 -0.1249
99365W        W42303  15.472   5.527   0.298 -0.4884  0.1914 -0.0159
99366W        W42304  16.262   5.178   4.161 -0.1645  0.1582  0.1970
99367W        W42305  15.356   4.058   4.519 -0.0167 -0.0506 -0.2110
99368W        W42306  15.923   4.676  31.508 -0.0838  0.0205  0.0567
99369W        W42307  16.895   5.340   2.864 -0.0435 -0.4196 -0.1581
99370W        W42308  16.965   6.729   1.634  0.1135 -0.2017 -0.0754
99371W        W42309  16.919   7.835  30.694  0.0661 -0.0359 -0.1880
99372W        W42310  17.160   5.664   3.169  0.0268 -0.1731  0.2107
99373W        W42311  16.022   6.385   3.097 -0.0933  0.0873  0.1189
99374W        W42312  15.059   4.859   2.806 -0.2146 -0.0419 -0.0340
99375W        W42313  16.232   5.928  30.912  0.0416 -0.1203 -0.1986
99376W        W42314  16.536   7.053   3.687 -0.0994  0.0782 -0.0357
99377W        W42315  17.261   6.064   1.016 -0.0770 -0.0668 -0.2587
99378W        W42316  17.836   3.394   1.311 -0.1888  0.2476 -0.0790
99379W        W42317  17.629   5.294   0.565 -0.1970  0.1981  0.0064
99380W        W42318  14.146   3.541   4.328  0.0028  0.2572  0.1733
99381W        W42319  15.112   5.909   2.642 -0.3641 -0.1870 -0.1197
99382W        W42320  17.441   5.449   3.540  0.3413  0.0322  0.1364
99383W        W42321  16.494   3.009   2.811 -0.1087  0.0595  0.0587
99384W        W42322  17.853   4.053   1.692 -0.3292  0.0701 -0.1370
99385W        W42323  16.142   4.430   2.007  0.0356  0.1050  0.1392
99386W        W42324  14.349   3.938   2.482  0.2071  0.0963  0.2039
99387W        W42325  16.995   5.512   1.943  0.1310 -0.3789  0.2507
99388W        W42326  16.331   5.165   3.618  0.0078 -0.0168 -0.2155
99389W        W42327  17.148   6.753   2.300  0.2925  0.0797 -0.2264
99390W        W42328  17.931   5.846   3.716 -0.0168 -0.2839  0.1525
99391W        W42329  15.774   5.236   1.992  0.2930  0.0169  0.2097
99392W        W42330  17.965   4.437   1.219  0.0238 -0.0602 -0.0929
99393W        W42331  17.447   6.627   2.859  0.0467  0.2497 -0.1937
99394W        W42332  17.325   8.095   3.419 -0.0199  0.1870  0.0803
99395W        W42333  17.820   6.292   2.737  0.1279  0.1077 -0.2020
99396W        W42334  18.424   7.261   2.178 -0.0315 -0.0918 -0.1914
99397W        W42335  16.239   2.559   2.983 -0.3481  0.0245 -0.4628
99398W        W42336  16.974   4.382   1.296 -0.2849  0.1094 -0.0462
99399W        W42337  17.814   6.124   1.063 -0.2171 -0.3360  0.1691
99400W        W42338  18.266   5.031   2.935  0.3731  0.0640  0.1761
99401W        W42339  15.482   5.478   1.572  0.1858 -0.1080  0.0716
99402W        W42340  17.595   3.670   2.081  0.0351  0.0315  0.1145
99403W        W42341  15.927   6.964   3.988 -0.1751 -0.1647  0.0086
99404W        W42342  17.583   5.479   2.969  0.0086  0.1506  0.1123
99405W        W42343  14.917   5.519   6.386  0.0747  0.2711  0.0062
99406W        W42344  16.076   3.666   3.503 -0.0985 -0.2459  0.3104
99407W        W42345  17.265   4.938   3.475  0.1824  0.0459 -0.0812
99408W        W42346  18.581   6.474   4.148  0.1161  0.0962 -0.1817
99409W        W42347  14.855   3.316   4.764  0.1360  0.0641 -0.0442
99410W        W42348  17.258   6.932   4.858  0.2842 -0.1434  0.2815
99411W        W42349  16.228   2.708   6.382  0.3777  0.1330 -0.0653
99412W        W42350  15.748   5.356   5.609  0.0664 -0.2146 -0.0942
99413W        W42351  16.990   7.137   7.287 -0.0586  0.0249  0.0153
99414W        W42352  16.179   6.670   5.676 -0.4221  0.1158 -0.0984
99415W        W42353  14.618   5.249   6.698 -0.0383  0.0918  0.2018
99416W        W42354  14.240   5.543   6.478  0.0271  0.0079 -0.5107
99417W        W42355  16.645   1.561   5.322 -0.1569  0.0992 -0.0366
99418W        W42356  15.064   3.282   5.789 -0.3472  0.3027  0.1279
99419W        W42357  17.203   5.069   6.664  0.1735  0.1984 -0.2890
99420W        W42358  14.989   4.367   4.196  0.0783 -0.2629 -0.4035
99421W        W42359  16.524   3.339   4.832 -0.2101  0.1464 -0.0223
99422W        W42360  15.884   4.598   6.261 -0.1351 -0.1245 -0.1006
99423W        W42361  16.050   5.641   4.445  0.1690 -0.0435  0.0918
99424W        W42362  14.895   4.967   6.368 -0.1561 -0.1370 -0.0198
99425W        W42363  16.756   3.314   6.955  0.0077 -0.2792 -0.0006
99426W        W42364  14.999   6.815   5.075 -0.6349  0.0284 -0.0678
99427W        W42365  15.141   4.813   3.315  0.0875 -0.2415 -0.0460
99428W        W42366  14.600   4.928   6.007  0.0051  0.0829 -0.2637
99429W        W42367  15.834   4.266   5.559  0.0250 -0.0445 -0.2755
99430W        W42368  17.392   4.644   5.922  0.2592  0.2220 -0.0288
99431W        W42369  17.007   6.020   5.518  0.1025  0.3959  0.0784
99432W        W42370  15.549   6.770   4.978  0.0667  0.1719  0.0884
99433W        W42371  16.315   8.178   5.995  0.0882 -0.1067  0.0264
99434W        W42372  15.989   3.641   6.375  0.0943 -0.1748 -0.1149
99435W        W42373  13.423   5.482   6.348  0.0613 -0.1928 -0.1154
99436W        W42374  15.557   5.681   4.612 -0.0397 -0.0353  0.3033
99437W        W42375  17.113   6.588   6.000  0.0998  0.1579 -0.0862
99438W        W42376  18.370   6.375   4.701 -0.1162 -0.0962  0.1719
99439W        W42377  16.349   7.549   6.797 -0.2506 -0.1835 -0.0831
99440W        W42378  16.607   8.260   6.389 -0.2452  0.1239 -0.0705
99441W        W42379  15.634   5.983   2.752 -0.0273  0.0508 -0.1492
99442W        W42380  15.987   7.262   6.637 -0.1776  0.2780 -0.1164
99443W        W42381  16.361   4.909   5.585  0.1842 -0.1831 -0.0345
99444W        W42382  17.303   4.675   7.159 -0.0689 -0.3191 -0.4037
99445W        W42383  16.739   4.169   5.425 -0.0642  0.0225 -0.1511
99446W        W42384  15.182   5.701   4.186 -0.0658  0.1824 -0.0082
99447W        W42385  16.797   5.449   6.186 -0.0886 -0.1483  0.0247
99448W        W42386  15.809   4.396   8.311 -0.2633  0.1314 -0.0439
99449W        W42387  13.673   5.020   4.928  0.1545  0.0863 -0.2398
99450W        W42388  17.181   4.307   6.799  0.0900  0.1121  0.0515
99451W        W42389  16.657   6.410   4.375  0.3412  0.0249 -0.0145
99452W        W42390  16.787   4.925   3.649  0.1751  0.0298  0.0250
99453W        W42391  15.819   4.739   3.917  0.1508  0.0399  0.0041
99454W        W42392  16.983   4.549   4.366  0.2575 -0.1776  0.1785
99455W        W42393  17.629   3.063   5.881 -0.1838 -0.0265 -0.0593
99456W        W42394  14.823   7.659   4.748 -0.0396 -0.3776  0.1670
99457W        W42395  15.452   5.372   6.429 -0.1527  0.0187 -0.0186
99458W        W42396  15.312   6.197   5.842  0.0191 -0.0477  0.0741
99459W        W42397  15.661   4.978   5.279  0.2139  0.0408 -0.1394
99460W        W42398  17.646   4.214   6.995 -0.2573 -0.1073 -0.1404
99461W        W42399  14.024   5.841   5.397 -0.2375  0.2916  0.1354
99462W        W42400  14.873   5.673   3.597 -0.1173  0.1800 -0.0098
99463W        W42401  17.316   7.039   4.070 -0.2592 -0.5008  0.1257
99464W        W42402  17.803   6.845   4.137 -0.1333 -0.4671 -0.1189
99465W        W42403  16.131   5.873   3.153 -0.2194 -0.2165  0.0738
99466W        W42404  16.012   4.655   4.860  0.0461 -0.3631 -0.0898
99467W        W42405  14.521   4.757   6.748  0.0778  0.0425 -0.0038
99468W        W42406  15.212   4.684   7.562  0.0892  0.2999 -0.0273
99469W        W42407  17.531   3.981   3.879  0.1372  0.0213 -0.1390
99470W        W42408  16.912   5.192   8.372 -0.0496 -0.1280  0.0212
99471W        W42409  15.399   7.314   6.712 -0.0097 -0.3432  0.2344
99472W        W42410  18.635   4.664   2.752  0.0046  0.1158  0.0116
99473W        W42411  15.224   4.855   5.068  0.1954 -0.3208 -0.1016
99474W        W42412  17.717   5.978   5.271  0.1490 -0.2459  0.0959
99475W        W42413  16.532   5.907   4.422 -0.0538  0.3314 -0.0918
99476W        W42414  18.020   4.276   5.095  0.2142 -0.1360  0.0658
99477W        W42415  17.283   2.821   6.407 -0.5025  0.1825 -0.0917
99478W        W42416  15.343   5.651   3.066 -0.0873  0.0758 -0.1614
99479W        W42417  15.948   6.604   5.183  0.0671  0.0066  0.1620
99480W        W42418  17.935   6.669   7.253 -0.0373 -0.0357  0.0432
99481W        W42419  18.545   5.403   3.218  0.1849 -0.0278  0.0026
99482W        W42420  16.182   8.367   6.570  0.1568  0.0909  0.1309
99483W        W42421  16.402   4.182   8.597 -0.0173  0.2819  0.2742
99484W        W42422  16.313   5.783   6.204 -0.3376 -0.1225 -0.2002
99485W        W42423  15.201   6.790   3.189 -0.1603 -0.1068 -0.4142
99486W        W42424  14.159   5.794   5.856 -0.2547  0.1779  0.2082
99487W        W42425  15.816   5.200   4.327  0.3655  0.1404 -0.1022
99488W        W42426  15.551   4.114   6.457  0.1255  0.1328 -0.1657
99489W        W42427  14.818   5.204   5.582  0.0067  0.2606  0.2762
99490W        W42428  16.627   2.840   4.322 -0.0362  0.0514  0.1480
99491W        W42429  15.121   4.164   6.178 -0.2453 -0.0534  0.3469
99492W        W42430  18.424   3.500   4.981  0.0068 -0.0347 -0.1436
99493W        W42431  13.927   4.785   5.617  0.3746  0.1096  0.1057
99494W        W42432  19.698   6.017   4.810 -0.1757  0.0862  0.2470
99495W        W42433  18.320   5.813   4.670  0.4073 -0.0773  0.0066
99496W        W42434  16.993   6.860   3.735  0.2464  0.0036  0.0670
99497W        W42435  14.289   4.067   6.215 -0.2041 -0.1650  0.0095
99498W        W42436  15.609   3.838   4.906  0.2423 -0.1014 -0.2152
99499W        W42437  16.622   4.059   5.969 -0.0982  0.2094 -0.2933
99500W        W42438  15.505   3.312   6.032  0.2359 -0.0143  0.2640
99501W        W42439  17.313   5.417   6.943  0.1924  0.1124 -0.0604
99502W        W42440  16.019   4.268   4.100  0.4085  0.0207 -0.0191
99503W        W42441  16.800   4.985   6.343 -0.2512 -0.0583  0.2253
99504W        W42442  14.939   4.829   4.637  0.1967 -0.1341  0.4854
99505W        W42443  14.755   5.120   5.088  0.1041  0.1517  0.1852
99506W        W42444  16.560   4.025   7.436  0.0594 -0.0811 -0.1023
99507W        W42445  16.094   7.073   4.461  0.0241 -0.1380 -0.1689
99508W        W42446  18.442   7.049   7.239 -0.0397  0.2145  0.0076
99509W        W42447  16.693   7.732   5.562  0.1008  0.1205  0.0390
99510W        W42448  15.193   3.674   6.192  0.0585  0.0330 -0.0353
99511W        W42449  14.841   4.515   3.664 -0.2331 -0.1883  0.1278
99512W        W42450  14.510   6.430   4.225 -0.1371  0.1605 -0.3715
99513W        W42451  16.464   5.938   5.729 -0.3062 -0.0477 -0.2031
99514W        W42452  14.928   3.850   4.632  0.0209 -0.0133 -0.1157
99515W        W42453  17.256   6.120   4.999  0.3041 -0.0077  0.1460
99516W        W42454  16.865   4.815   5.358  0.0443 -0.0908 -0.1519
99517W        W42455  14.171   5.229   5.914 -0.2937 -0.1178  0.1634
99518W        W42456  18.081   3.012   5.203 -0.2386 -0.0216 -0.0111
99519W        W42457  17.720   6.015   6.488 -0.1491  0.0877 -0.3565
99520W        W42458  16.364   4.843   6.157 -0.1630 -0.4520  0.1586
99521W        W42459  15.814   3.329   4.065  0.2007  0.1234  0.2286
99522W        W42460  16.311   7.076   4.967  0.0354  0.1835  0.2579
99523W        W42461  14.303   8.039   4.928 -0.3320  0.0239 -0.0167
99524W        W42462  13.558   5.667   5.477  0.3157  0.0567  0.0615
99525W        W42463  15.737   6.568   4.533  0.1331 -0.0787  0.1104
99526W        W42464  17.760   3.729   5.266 -0.1120 -0.0027  0.0256
99527W        W42465  14.762   5.286   7.219 -0.1060  0.0150  0.2554
99528W        W42466  16.723   4.636   6.781  0.1500  0.1315 -0.1402
99529W        W42467  14.520   4.053   4.496  0.1329 -0.1149 -0.0640
99530W        W42468  14.593   5.912   8.035 -0.0023 -0.1800  0.1165
99531W        W42469  17.190   5.191   5.413 -0.0314  0.1397 -0.0071
99532W        W42470  17.490   4.359   4.910 -0.0234 -0.1954  0.1896
99533W        W42471  17.294   6.249   6.342  0.0319 -0.2091  0.0202
99534W        W42472  17.868   5.629   4.935 -0.0242  0.1903 -0.0606
99535W        W42473  17.444   4.121   4.387  0.0007 -0.1899 -0.0178
99536W        W42474  16.182   4.111   2.402  0.3175  0.1347 -0.1679
99537W        W42475  15.089   5.359   6.820 -0.1557 -0.1144  0.0824
99538W        W42476  14.533   5.961   5.439  0.2039 -0.1586  0.0903
99539W        W42477  17.450   4.442   3.581 -0.3654  0.3514 -0.0835
99540W        W42478  20.039   6.909   4.756  0.2248 -0.1525  0.1630
99541W        W42479  14.836   5.759   5.777  0.1765 -0.3757 -0.1394
99542W        W42480  15.698   6.023   6.232  0.4792  0.0186 -0.0531
99543W        W42481  16.410   5.453   5.799  0.1326  0.0467  0.0848
99544W        W42482  15.626   4.058   6.984  0.1685 -0.2278 -0.1509
99545W        W42483  13.698   4.128   3.709  0.0956 -0.0867 -0.0827
99546W        W42484  17.163   3.204   6.081  0.1014  0.1489 -0.1685
99547W        W42485  13.996   6.872   3.520 -0.0013  0.1005 -0.0765
99548W        W42486  17.978   3.921   5.748  0.1131 -0.3437 -0.0348
99549W        W42487  15.889   5.073   6.471 -0.0375  0.0041  0.2179
99550W        W42488  16.407   2.229   6.510 -0.0127 -0.2043  0.2943
99551W        W42489  17.698   4.651   6.758  0.0090  0.0401  0.0187
99552W        W42490  17.505   5.591   4.387  0.0038  0.0282  0.0716
99553W        W42491  17.873   5.607   5.568 -0.1160 -0.2367 -0.0367
99554W        W42492  15.444   5.074   3.574 -0.1812  0.0889 -0.3013
99555W        W42493  16.345   3.401   5.281  0.0032  0.1100 -0.4583
99556W        W42494  13.744   5.799   6.533  0.2584  0.1491 -0.1647
99557W        W42495  14.936   6.644   7.103 -0.2154 -0.0688 -0.0041
99558W        W42496  17.452   5.906   9.002 -0.1141  0.2826  0.0154
99559W        W42497  15.619   6.085   4.269  0.0018  0.1792 -0.1257
99560W        W42498  16.028   4.226   6.512 -0.0067 -0.3255 -0.1162
99561W        W42499  16.873   2.860   5.275 -0.0411 -0.1592  0.3682
99562W        W42500  16.176   6.474   4.125 -0.0322  0.0444  0.1455
99563W        W42501  15.934   6.048   3.864  0.2413 -0.2374  0.1800
99564W        W42502  15.464   2.888   5.802  0.0333  0.1536 -0.0137
99565W        W42503  16.317   4.238   4.921 -0.0013  0.1011  0.3380
99566W        W42504  15.721   6.021   3.415  0.2569  0.4061 -0.0768
99567W        W42505  17.692   5.576   6.191  0.1779  0.0567 -0.0103
99568W        W42506  14.809   7.091   3.648 -0.1490 -0.2300  0.0513
99569W        W42507  19.213   4.150   5.656 -0.0925  0.0553  0.1120
99570W        W42508  15.855   8.075   6.247  0.1205 -0.1361 -0.0128
99571W        W42509  14.726   4.005   3.800 -0.3788  0.4191  0.0593
99572W        W42510  15.296   3.515   4.422 -0.1904 -0.1819  0.2683
99573W        W42511  17.564   5.179   4.709 -0.1751  0.2118  0.0265
99574W        W42512  17.655   6.038   4.733 -0.0402 -0.1793  0.2892
99575W        W42513  16.730   3.803   5.062  0.3404 -0.2644 -0.1061
99576W        W42514  17.985   4.030   6.234 -0.1778  0.0501 -0.2663
99577W        W42515  14.337   7.140   5.734 -0.2744 -0.1264 -0.1011
99578W        W42516  18.007   6.234   6.139  0.3966 -0.3406 -0.0150
99579W        W42517  16.862   3.344   5.235 -0.3653  0.1465  0.3104
99580W        W42518  16.884   6.057   6.062 -0.2382 -0.0407  0.0044
99581W        W42519  15.915   5.593   6.433  0.0082  0.0708 -0.1970
99582W        W42520  15.688   4.545   3.038 -0.0857 -0.1742  0.1459
99583W        W42521  19.252   5.055   5.326  0.0373  0.0756 -0.0787
99584W        W42522  16.222   3.905   5.403 -0.0328 -0.3281 -0.0649
99585W        W42523  15.040   6.549   5.516  0.2813  0.1071  0.2619
99586W        W42524  16.223   7.148   5.756  0.1065  0.0076 -0.2615
99587W        W42525  16.631   4.943   3.178  0.1735 -0.2905  0.2265
99588W        W42526  16.046   5.780   5.410  0.1107 -0.1358 -0.1265
99589W        W42527  16.568   4.430   9.048 -0.0197  0.2101 -0.0093
99590W        W42528  18.377   7.157   5.296  0.3136  0.1204 -0.1863
99591W        W42529  16.839   3.150   6.502  0.0875  0.0389  0.0742
99592W        W42530  17.625   4.181   5.427 -0.1699  0.0121 -0.1978
99593W        W42531  17.092   3.985   5.663  0.0674  0.1025 -0.0892
99594W        W42532  17.704   7.034   6.068 -0.0504 -0.0698 -0.0177
99595W        W42533  15.424   3.343   7.128 -0.2209  0.2204  0.1989
99596W        W42534  16.503   6.439   7.264  0.4625 -0.2171  0.3045
99597W        W42535  16.744   2.144   5.828  0.0948  0.2417 -0.0971
99598W        W42536  18.987   6.735   2.685  0.0424 -0.1334 -0.0214
99599W        W42537  17.294   5.932   6.746  0.1406 -0.0516 -0.0672
99600W        W42538  16.418   5.684   3.501  0.0857 -0.0477  0.1294
99601W        W42539  13.561   5.042   6.138  0.0639 -0.0974 -0.2067
99602W        W42540  15.728   6.223   4.863 -0.2760  0.3694 -0.3233
99603W        W42541  15.070   5.288   5.951 -0.0341  0.2571  0.1693
99604W        W42542  15.315   7.253   5.957 -0.1798  0.0860 -0.0479
99605W        W42543  15.293   4.793   4.039  0.2397 -0.0258 -0.0415
99606W        W42544  16.253   8.917   6.735 -0.2380  0.7263 -0.0091
99607W        W42545  16.962   5.221   4.984 -0.0547 -0.2524  0.0145
99608W        W42546  16.807   6.073   4.829 -0.3793 -0.1170 -0.1548
99609W        W42547  17.289   5.217   5.996  0.1686  0.0412 -0.1078
99610W        W42548  18.918   3.552   5.330  0.0641  0.1363 -0.2545
99611W        W42549  17.018   4.621   3.130 -0.0176 -0.2495 -0.3960
99612W        W42550  17.519   3.831   6.643 -0.1007  0.1049 -0.2697
99613W        W42551  16.479   3.062   6.131  0.0068 -0.1357 -0.1725
99614W        W42552  17.534   6.579   5.072  0.6867 -0.1588  0.2432
99615W        W42553  14.422   5.499   5.564  0.0468  0.1043 -0.2567
99616W        W42554  16.203   8.069   7.409  0.1215  0.2103  0.1514
99617W        W42555  14.501   4.936   7.498 -0.1530 -0.3366 -0.0635
99618W        W42556  17.528   4.846   5.420  0.0167  0.1482 -0.0644
99619W        W42557  16.221   2.508   4.059 -0.1575 -0.0818 -0.0524
99620W        W42558  15.856   4.770   5.725  0.2089 -0.0001  0.0754
99621W        W42559  18.148   7.360   5.697 -0.1427  0.0720 -0.1527
99622W        W42560  16.971   5.688   4.200 -0.1071  0.1702  0.2024
99623W        W42561  17.378   5.649   5.506 -0.0902  0.0292  0.1521
99624W        W42562  14.844   4.675   5.556 -0.2292 -0.1689 -0.0469
99625W        W42563  16.642   4.923   4.658  0.0173 -0.0799  0.3041
99626W        W42564  15.310   4.941   5.622 -0.0258  0.4266 -0.0548
99627W        W42565  14.909   5.669   4.634 -0.2626  0.1736  0.1982
99628W        W42566  15.582   3.771   7.411 -0.2027  0.2587  0.1143
99629W        W42567  17.234   5.720   5.989 -0.0389 -0.2820 -0.0846
99630W        W42568  16.903   5.485   5.704  0.1976 -0.0377 -0.0379
99631W        W42569  18.474   3.833   6.682 -0.0539 -0.0017 -0.3336
99632W        W42570  17.442   3.739   7.312  0.0129  0.0649  0.0026
99633W        W42571  15.731   4.522   6.795 -0.1318 -0.1905 -0.2221
99634W        W42572  14.662   4.453   6.390  0.0241 -0.0457  0.3586
99635W        W42573  17.397   6.648   4.506  0.4703 -0.3511 -0.0112
99636W        W42574  18.081   5.543   2.920  0.0160  0.1976 -0.0126
99637W        W42575  18.392   4.235   5.787  0.1755  0.0797 -0.1041
99638W        W42576  18.135   4.903   5.301  0.2090  0.1641 -0.1027
99639W        W42577  17.208   4.450   5.305 -0.2782 -0.0135 -0.0653
99640W        W42578  16.136   3.715   4.865 -0.0151 -0.2027  0.1630
99641W        W42579  17.851   5.769   6.995  0.1426 -0.0367 -0.0626
99642W        W42580  15.465   4.499   4.787 -0.1955 -0.3357 -0.0838
99643W        W42581  18.367   4.788   5.722 -0.0296  0.3588 -0.2949
99644W        W42582  15.399   6.885   4.360  0.2388 -0.0392 -0.0723
99645W        W42583  15.512   5.870   5.485 -0.1590  0.2419 -0.1976
99646W        W42584  16.445   4.784   5.082 -0.1352 -0.1461  0.2096
99647W        W42585  15.274   3.621   5.167  0.2704  0.0692 -0.0164
99648W        W42586  16.282   6.319   6.024  0.2859 -0.2135 -0.3244
99649W        W42587  16.107   4.292   2.970  0.1933  0.2738 -0.0830
99650W        W42588  16.563   5.925   3.917  0.1300 -0.2998  0.2294
99651W        W42589  14.872   6.754   6.325  0.0392 -0.0542 -0.1052
99652W        W42590  18.090   6.149   7.164 -0.3205 -0.0027  0.1306
99653W        W42591  18.506   3.590   5.705  0.0004  0.2930  0.3492
99654W        W42592  18.100   4.903   6.667 -0.1159  0.1741  0.3047
99655W        W42593  15.908   5.079   3.269 -0.1403 -0.3855  0.0511
99656W        W42594  17.555   4.322   6.408  0.1844  0.1523 -0.0550
99657W        W42595  17.258   7.879   5.641  0.1029 -0.0524  0.1877
99658W        W42596  13.617   6.725   7.413 -0.0990  0.3318 -0.4001
99659W        W42597  14.769   4.194   6.882  0.3060 -0.1956 -0.1176
99660W        W42598  16.439   3.863   6.378 -0.0322  0.0709 -0.1378
99661W        W42599  15.554   5.017   6.068 -0.1919 -0.1314  0.2812
99662W        W42600  16.082   5.216   5.220 -0.0814  0.2283  0.0109
99663W        W42601  18.823   4.552   5.992  0.0981  0.0637 -0.1589
99664W        W42602  18.276   6.005   5.655 -0.0298 -0.3877  0.0523
99665W        W42603  17.176   5.530   6.474 -0.1937  0.2556  0.3138
99666W        W42604  17.647   6.009   5.783 -0.2928 -0.0769 -0.0515
99667W        W42605  17.729   6.350   3.718 -0.1479 -0.1692  0.2460
99668W        W42606  15.268   6.326   5.116  0.0888  0.1309  0.2461
99669W        W42607  14.085   4.358   7.411 -0.0232  0.0129 -0.0120
99670W        W42608  16.316   5.288   6.409 -0.2209  0.2291  0.1520
99671W        W42609  16.581   5.270   5.353 -0.0138  0.1979  0.0690
99672W        W42610  15.918   2.604   4.735 -0.0866  0.0115 -0.1069
99673W        W42611  16.718   6.411   5.734 -0.1245  0.1029  0.0771
99674W        W42612  15.666   6.076   6.772 -0.1611 -0.1025 -0.2953
99675W        W42613  14.133   5.260   6.897  0.0609 -0.0492 -0.1078
99676W        W42614  15.316   8.100   5.544 -0.1805 -0.1630  0.0331
99677W        W42615  17.273   6.082   4.401 -0.2507 -0.4752  0.3156
99678W        W42616  16.233   5.993   4.950 -0.0497  0.0102  0.0603
99679W        W42617  16.512   5.477   4.930 -0.1623  0.1286  0.3251
99680W        W42618  17.128   4.229   6.169 -0.3809  0.0927  0.1421
99681W        W42619  14.749   6.856   5.785 -0.1677  0.0307  0.0737
99682W        W42620  13.424   6.491   4.357 -0.0301 -0.2299 -0.3425
99683W        W42621  18.009   7.325   3.574  0.2080  0.0342  0.0121
99684W        W42622  15.771   6.205   2.231 -0.0231 -0.2268 -0.0427
99685W        W42623  16.818   4.532   5.827  0.1400 -0.3630 -0.0391
99686W        W42624  18.079   3.862   4.850  0.1106  0.1851  0.0221
99687W        W42625  17.990   5.764   4.325  0.0935  0.0152 -0.0003
99688W        W42626  16.818   4.443   4.896  0.0687 -0.1238 -0.0061
99689W        W42627  16.773   5.039   5.837 -0.0617 -0.3235 -0.3356
99690W        W42628  16.303   4.426   5.924 -0.4444  0.1281  0.1900
99691W        W42629  15.855   3.645   2.884  0.1919 -0.1404 -0.0830
99692W        W42630  15.328   5.406   5.399  0.2986  0.1488 -0.1178
99693W        W42631  17.852   2.587   5.698  0.1418  0.1076  0.3503
99694W        W42632  15.216   7.098   7.167  0.1701  0.2194  0.0348
99695W        W42633  19.485   6.799   4.499  0.0564  0.0599  0.0552
99696W        W42634  14.195   3.985   5.201 -0.1527  0.0783 -0.1200
99697W        W42635  14.633   4.635   5.036  0.0723 -0.0132 -0.4131
99698W        W42636  18.954   3.762   6.946 -0.0036 -0.1305  0.0005
99699W        W42637  17.196   6.180   3.089  0.0561 -0.2944  0.1556
99700W        W42638  16.397   5.683   6.705 -0.0199 -0.3204  0.0548
99701W        W42639  14.814   7.879   5.280  0.3204 -0.1501 -0.2246
99702W        W42640  15.721   6.507   6.012  0.4308 -0.1107 -0.0249
99703W        W42641  15.497   6.930   6.321 -0.0527  0.1107  0.0607
99704W        W42642  14.412   3.202   4.597  0.0309 -0.0935 -0.4689
99705W        W42643  18.157   6.639   3.854 -0.0325  0.2011 -0.2427
99706W        W42644  15.798   4.259   5.082  0.0992 -0.2020 -0.3288
99707W        W42645  18.795   3.721   4.344  0.2275 -0.2027 -0.1269
99708W        W42646  14.201   4.933   6.403 -0.0419  0.0438  0.0068
99709W        W42647  17.219   4.827   4.972  0.0450  0.4095 -0.3082
99710W        W42648  18.117   5.695   5.990  0.2539 -0.1109 -0.0346
99711W        W42649  16.246   4.443   5.370  0.2765 -0.1826 -0.3449
99712W        W42650  17.560   5.002   2.457  0.1321  0.0220 -0.1102
99713W        W42651  18.077   4.377   6.588  0.2506 -0.2817 -0.0061
99714W        W42652  15.662   5.632   4.042 -0.4089  0.1852  0.0707
99715W        W42653  16.720   7.362   7.636  0.1236  0.0186 -0.0493
99716W        W42654  15.856   4.228   4.601  0.0067 -0.2278  0.3047
99717W        W42655  16.671   4.922   4.113  0.0481 -0.0011  0.0188
99718W        W42656  15.403   4.496   5.378 -0.1740  0.1036 -0.0133
99719W        W42657  15.091   4.646   6.081 -0.1102 -0.2195  0.2307
99720W        W42658  17.693   7.588   7.555  0.1153 -0.1229  0.1669
99721W        W42659  15.936   3.141   5.577  0.1751 -0.0473 -0.1099
99722W        W42660  18.227   6.754   3.358 -0.1769 -0.2201 -0.2381
99723W        W42661  17.793   4.744   5.031  0.0862 -0.1346 -0.1662
99724W        W42662  16.078   7.828   3.491 -0.0496 -0.0472 -0.1057
99725W        W42663  17.469   5.811   3.938  0.2090  0.3652 -0.0407
99726W        W42664  17.650   6.847   5.567  0.0381 -0.0884  0.0862
99727W        W42665  13.969   5.355   5.391 -0.0775 -0.3082  0.2857
99728W        W42666  17.493   7.302   6.530  0.0494 -0.0902 -0.0447
99729W        W42667  16.668   5.361   4.443 -0.3174 -0.1757 -0.0140
99730W        W42668  15.947   3.072   6.061  0.0490 -0.2258  0.0080
99731W        W42669  15.648   3.734   3.813 -0.0500  0.6138 -0.3226
99732W        W42670  14.077   6.144   4.214 -0.0368  0.0146 -0.1286
99733W        W42671  17.726   5.200   5.187  0.0892  0.0615  0.4502
99734W        W42672  18.054   5.191   6.195  0.0201  0.2082  0.1117
99735W        W42673  15.616   7.492   4.453  0.1853  0.1497  0.1444
99736W        W42674  18.394   3.695   6.176 -0.2372  0.2533 -0.0929
99737W        W42675  15.937   5.739   5.893 -0.1341  0.1032 -0.0879
99738W        W42676  16.234   7.252   7.233 -0.1653  0.1255  0.0868
99739W        W42677  15.642   4.740   4.371  0.1353 -0.3012  0.0269
99740W        W42678  16.370   4.935   7.066 -0.0971  0.1947  0.2217
99741W        W42679  15.110   5.320   3.841 -0.0940  0.1833  0.1550
99742W        W42680  15.008   7.273   4.289  0.0290  0.3857 -0.0502
99743W        W42681  17.290   8.048   5.000  0.1909  0.0458 -0.1481
99744W        W42682  16.545   4.250   3.960 -0.2349  0.2809 -0.1910
99745W        W42683  18.074   6.758   5.254  0.0662  0.0647  0.1450
99746W        W42684  15.870   3.070   5.045 -0.1190 -0.1336 -0.0535
99747W        W42685  17.609   3.261   5.281  0.3317 -0.2336 -0.2187
99748W        W42686  16.717   2.829   4.789  0.5385 -0.0564  0.2350
99749W        W42687  15.559   5.542   6.927  0.2914  0.0328 -0.1215
99750W        W42688  13.100   5.454   5.118 -0.1239  0.0223  0.3675
99751W        W42689  15.877   5.212   3.798 -0.1060  0.2007  0.2240
99752W        W42690  14.853   6.386   5.935  0.2528  0.1431 -0.1506
99753W        W42691  14.709   3.926   6.482  0.0484 -0.2171 -0.1447
99754W        W42692  15.573   3.930   5.383 -0.2160  0.0516  0.2424
99755W        W42693  14.923   4.370   4.696  0.0521  0.1169  0.1913
99756W        W42694  15.830   3.734   4.429 -0.2665 -0.1934  0.0960
99757W        W42695  17.002   6.524   4.723 -0.0179  0.4150 -0.1108
99758W        W42696  15.987   2.686   5.722 -0.3216 -0.0100  0.0014
99759W        W42697  14.582   2.993   6.293 -0.1188 -0.0427 -0.0890
99760W        W42698  17.377   5.576   4.990 -0.1653  0.0913 -0.2537
99761W        W42699  17.783   7.402   4.035 -0.3487 -0.0444 -0.4220
99762W        W42700  16.718   2.419   5.017 -0.0491 -0.3263  0.2611
99763W        W42701  17.898   6.858   7.675 -0.3526  0.0032 -0.1453
99764W        W42702  15.145   6.381   4.163  0.3104  0.0459  0.1643
99765W        W42703  16.628   4.159   6.794  0.0525  0.0697  0.1617
99766W        W42704  14.008   4.830   8.414 -0.0532 -0.2880 -0.3202
99767W        W42705  14.010   4.568   4.375 -0.0290 -0.0005  0.2248
99768W        W42706  16.700   4.411   6.327  0.0648 -0.2066  0.2337
99769W        W42707  15.217   5.327   4.872  0.0733 -0.1363 -0.2101
99770W        W42708  17.272   7.545   4.125 -0.0012  0.0729  0.0623
99771W        W42709  15.916   6.198   5.650  0.3226 -0.0358  0.1584
99772W        W42710  16.866   5.935   6.558 -0.2253 -0.1211  0.1931
99773W        W42711  15.150   3.870   7.218  0.1899 -0.1609  0.0138
99774W        W42712  16.448   6.278   5.272 -0.1015  0.0983  0.0121
99775W        W42713  15.175   3.908   6.694 -0.2335 -0.0678  0.3719
99776W        W42714  18.194   6.165   3.986  0.0911  0.1508 -0.1266
99777W        W42715  18.329   5.493   5.322  0.1683  0.1822  0.0283
99778W        W42716  15.667   5.108   4.810 -0.3213  0.0190  0.0946
99779W        W42717  16.294   3.474   5.839 -0.3045  0.1533  0.0689
99780W        W42718  15.757   5.622   7.795 -0.1648  0.1687  0.2651
99781W        W42719  18.040   6.698   6.281  0.0237 -0.1173 -0.1824
99782W        W42720  15.833   3.251   4.561  0.0931 -0.1572  0.0834
99783W        W42721  16.233   4.752   4.414  0.1936  0.2278  0.2755
99784W        W42722  17.021   5.664   4.663 -0.2354  0.2195  0.2099
99785W        W42723  15.448   4.798   6.557 -0.0754  0.0009  0.2189
99786W        W42724  15.614   4.005   5.955 -0.0481  0.0411  0.0093
99787W        W42725  17.059   3.747   8.252 -0.0781  0.2577 -0.1827
99788W        W42726  15.230   6.699   5.944  0.0547 -0.1649 -0.0146
99789W        W42727  18.197   5.591   6.511 -0.2239 -0.0294  0.1570
99790W        W42728  14.089   4.318   4.875  0.1307 -0.0597  0.1173
99791W        W42729  18.776   5.914   3.229 -0.0110  0.3071 -0.1711
99792W        W42730  16.757   6.435   6.312 -0.0668 -0.0643 -0.0714
99793W        W42731  17.377   6.787   6.409  0.0123 -0.0689 -0.0188
99794W        W42732  16.495   6.783   5.307 -0.3000 -0.0102 -0.2390
99795W        W42733  18.330   4.381   4.691 -0.2501  0.0267 -0.3526
99796W        W42734  16.167   2.235   5.060  0.1877 -0.2932 -0.2146
99797W        W42735  15.472   5.540   3.581  0.0607  0.2153 -0.1731
99798W        W42736  15.703   5.556   5.087 -0.2073 -0.2967 -0.0341
99799W        W42737  17.175   4.670   6.396  0.2615 -0.1287 -0.0293
99800W        W42738  16.699   3.186   5.654  0.0594 -0.0998  0.0190
99801W        W42739  16.263   3.982   4.430 -0.0613 -0.0487 -0.0197
99802W        W42740  15.379   5.720   5.991 -0.3252  0.3224  0.1201
99803W        W42741  16.293   4.432   7.007  0.0821  0.2304  0.2135
99804W        W42742  16.376   5.446   9.488 -0.2963 -0.0662  0.1069
99805W        W42743  15.837   4.439   7.289  0.0029  0.1367  0.1940
99806W        W42744  16.785   4.430   7.236  0.1679 -0.3194 -0.1259
99807W        W42745  18.623   5.664   7.702  0.1588  0.2208  0.0289
99808W        W42746  15.482   3.560   7.853  0.1551  0.0061 -0.2030
99809W        W42747  17.254   6.659   8.559  0.1733  0.2015  0.0438
99810W        W42748  16.995   6.998   7.845 -0.3139  0.1810 -0.0902
99811W        W42749  16.803   5.671   8.361  0.0599  0.2249 -0.2053
99812W        W42750  17.422   5.736   7.349 -0.0738 -0.3351 -0.1810
99813W        W42751  14.593   6.151   8.977  0.0512 -0.3317 -0.1252
99814W        W42752  15.434   2.216   6.454  0.1614 -0.2584 -0.1797
99815W        W42753  15.657   3.777   9.079  0.2406 -0.0439 -0.2366
99816W        W42754  16.783   5.344   9.202  0.3086 -0.1387 -0.0222
99817W        W42755  13.794   6.499   9.359 -0.1831  0.1266 -0.2498
99818W        W42756  15.743   4.130   8.686  0.2808 -0.1367  0.0910
99819W        W42757  15.382   4.743   8.141 -0.1863 -0.1157 -0.0240
99820W        W42758  17.750   8.176   8.291  0.0464  0.1712 -0.1561
99821W        W42759  16.949   5.129  10.048 -0.0478  0.2547 -0.0040
99822W        W42760  15.762   6.441   8.237 -0.0158 -0.0547  0.1521
99823W        W42761  14.732   4.741   8.006  0.2747 -0.0581 -0.2470
99824W        W42762  13.798   4.513   9.759 -0.3614  0.2129  0.3319
99825W        W42763  16.608   3.157   8.928 -0.0872  0.0646  0.1451
99826W        W42764  16.190   3.540   7.652 -0.0467  0.0837  0.0664
99827W        W42765  15.972   7.724   9.106 -0.4698  0.0298  0.0858
99828W        W42766  16.579   7.646   7.221  0.0810 -0.0413 -0.3046
99829W        W42767  17.117   7.656   7.514  0.1951 -0.2256 -0.1173
99830W        W42768  15.957   6.142   8.612  0.1989  0.1282  0.1210
99831W        W42769  15.167   7.875   7.780  0.2247 -0.0178 -0.1808
99832W        W42770  15.963   6.786   8.892  0.1486 -0.0931 -0.1042
99833W        W42771  18.573   4.143   8.536 -0.0818 -0.2130 -0.0270
99834W        W42772  15.068   5.879   7.916  0.0081 -0.0217 -0.1000
99835W        W42773  17.868   7.407   9.814 -0.2967  0.2175 -0.2937
99836W        W42774  15.953   5.301   8.687 -0.0695 -0.0613 -0.3911
99837W        W42775  15.649   7.219   8.119 -0.4553 -0.1235 -0.2419
99838W        W42776  16.484   5.794   8.014 -0.1421 -0.3520 -0.0344
99839W        W42777  15.057   7.418   8.946 -0.0347  0.2182  0.1755
99840W        W42778  15.709   7.260   7.621 -0.0952 -0.2101 -0.2084
99841W        W42779  16.202   4.757   6.613 -0.2582  0.1110  0.0216
99842W        W42780  16.836   4.423   7.774  0.0120 -0.1016 -0.0629
99843W        W42781  17.392   2.751   8.319 -0.0210  0.2872 -0.0520
99844W        W42782  16.581   2.649   8.589  0.1990 -0.1589  0.1730
99845W        W42783  16.133   7.085   7.844  0.3140 -0.2135  0.1130
99846W        W42784  16.297   1.610   9.496 -0.1054 -0.2740 -0.1270
99847W        W42785  17.387   5.344   9.925  0.0079  0.1917 -0.0376
99848W        W42786  17.677   1.555   9.590  0.3069 -0.0727 -0.0750
99849W        W42787  13.366   5.670   9.096  0.2831  0.0360 -0.3296
99850W        W42788  14.906   4.654   8.448  0.0294  0.5333 -0.1175
99851W        W42789  17.458   6.107   7.715  0.0072  0.2704  0.5244
99852W        W42790  18.835   5.631   8.349 -0.2377 -0.1020 -0.4351
99853W        W42791  17.764   5.316   6.706  0.1484  0.1811 -0.1208
99854W        W42792  15.894   4.854   9.082  0.0906  0.0685  0.1872
99855W        W42793  15.308   2.949   7.544 -0.0745  0.0770  0.0019
99856W        W42794  18.178   3.231   9.150 -0.1327  0.0983  0.0163
99857W        W42795  15.928   5.456   9.721 -0.1764  0.2634  0.3911
99858W        W42796  16.124   7.573   7.618  0.3848 -0.2326 -0.1770
99859W        W42797  18.078   4.255   7.518 -0.1758  0.2074  0.3712
99860W        W42798  16.781   2.925   9.406  0.0141  0.0224  0.1112
99861W        W42799  16.685   2.102   8.540  0.1807 -0.0476  0.1089
99862W        W42800  16.065   6.265   7.036 -0.1894  0.1587 -0.2281
99863W        W42801  14.699   3.192   7.814  0.2746  0.3085  0.5947
99864W        W42802  16.682   8.451   9.872 -0.2190  0.0627 -0.2458
99865W        W42803  17.223   5.076   7.946 -0.3184  0.3455  0.1568
99866W        W42804  16.473   7.666   9.065 -0.0576 -0.0644 -0.0541
99867W        W42805  15.641   7.766   6.552 -0.1795 -0.3698 -0.1248
99868W        W42806  14.782   6.889  10.237  0.0921  0.3176 -0.3812
99869W        W42807  14.202   6.022   6.716  0.1576  0.0918  0.2797
99870W        W42808  15.998   3.179   8.909 -0.0811  0.0561  0.0851
99871W        W42809  15.682   6.644   9.658 -0.3104 -0.0980  0.0726
99872W        W42810  17.368   3.125   8.737 -0.1200  0.2471 -0.0740
99873W        W42811  17.174   3.496   7.801  0.2826  0.2941 -0.0635
99874W        W42812  15.249   6.731   6.743 -0.3982  0.0388 -0.0406
99875W        W42813  18.320   6.996   8.588  0.0177  0.4075  0.5612
99876W        W42814  18.065   3.575   8.208 -0.1464 -0.1701  0.1545
99877W        W42815  17.355   5.842   8.394  0.0517 -0.1290 -0.2609
99878W        W42816  15.187   4.294   9.480  0.3020 -0.0377 -0.2749
99879W        W42817  15.068   3.718   8.123 -0.2301 -0.2060 -0.4375
99880W        W42818  14.164   6.324   9.060  0.1575  0.2586 -0.0420
99881W        W42819  14.891   1.612   7.201 -0.2472 -0.1616 -0.0630
99882W        W42820  16.812   5.552   9.712 -0.0427 -0.0840  0.2308
99883W        W42821  16.609   4.692   8.580  0.1068  0.1638 -0.1832
99884W        W42822  14.451   6.312   8.388  0.1785  0.4051 -0.2355
99885W        W42823  17.198   6.894   8.965  0.1418 -0.2511  0.0362
99886W        W42824  18.139   6.831   8.094 -0.0383  0.1413  0.4655
99887W        W42825  17.296   7.154   9.436 -0.2310 -0.1062  0.0275
99888W        W42826  14.508   6.064   9.476 -0.3991 -0.1759  0.0314
99889W        W42827  15.173   3.392   8.511  0.0974  0.1732  0.2636
99890W        W42828  15.178   8.057   9.590  0.1409 -0.2214 -0.1520
99891W        W42829  15.661   7.308   8.635 -0.1813 -0.2536 -0.1661
99892W        W42830  14.700   4.260   8.568  0.2726  0.2269  0.1175
99893W        W42831  18.262   7.205   9.641 -0.0781  0.2582  0.2463
99894W        W42832  15.648   5.785   8.993 -0.0390  0.0917  0.0960
99895W        W42833  18.304   4.493   9.778 -0.0034  0.0153  0.3109
99896W        W42834  16.984   3.966   8.830  0.1314  0.0287 -0.0928
99897W        W42835  16.210   2.599   7.183  0.0908  0.1314  0.0892
99898W        W42836  17.514   8.124   7.368  0.3958  0.0322  0.2532
99899W        W42837  16.796   5.883   7.592 -0.0533 -0.1853  0.0502
99900W        W42838  14.328   6.669   9.638 -0.0930 -0.0153  0.1108
99901W        W42839  16.147   6.728   8.235 -0.2039  0.1706 -0.3256
99902W        W42840  17.227   2.956   9.673 -0.1167  0.2169 -0.2090
99903W        W42841  14.365   5.390   8.762  0.0926 -0.1700 -0.1165
99904W        W42842  15.998   4.413   9.452 -0.1837  0.1713 -0.0167
99905W        W42843  17.628   4.154   7.552 -0.0399  0.2285  0.2472
99906W        W42844  16.619   4.975   9.603  0.0198  0.0770  0.1457
99907W        W42845  17.744   4.630   7.521  0.1349 -0.1705  0.2406
99908W        W42846  16.955   3.817   6.467  0.0423  0.1482  0.2442
99909W        W42847  16.769   4.586  10.006 -0.3655 -0.1924 -0.3834
99910W        W42848  15.515   3.317   8.843  0.1789  0.2595  0.3220
99911W        W42849  15.820   4.919   7.133 -0.1384  0.1162 -0.1974
99912W        W42850  17.741   6.957   8.933 -0.1064 -0.1086 -0.0037
99913W        W42851  14.921   6.461   8.779 -0.2415 -0.1888  0.0186
99914W        W42852  15.646   6.845   8.476 -0.1607  0.0434  0.1829
99915W        W42853  19.202   1.385   9.413  0.0423  0.0524  0.0150
99916W        W42854  17.193   4.201   7.290 -0.1335 -0.0391 -0.4464
99917W        W42855  16.082   3.965   7.252  0.1050  0.2542  0.0378
99918W        W42856  15.344   5.842   6.529 -0.2289 -0.2007  0.1008
99919W        W42857  16.620   3.489   9.351  0.0469  0.0097  0.0665
99920W        W42858  16.178   5.854   9.220 -0.0375  0.3329  0.0173
99921W        W42859  17.616   4.782   8.246 -0.0383 -0.2609  0.1684
99922W        W42860  17.196   3.996   9.746  0.2139  0.0404  0.2254
99923W        W42861  14.049   6.093   8.658 -0.0100 -0.1836  0.1568
99924W        W42862  18.528   2.764  10.003  0.1478 -0.1433  0.1238
99925W        W42863  16.998   6.179   9.448 -0.1181  0.1055 -0.2854
99926W        W42864  16.919   5.356   7.411 -0.0651  0.0536 -0.1617
99927W        W42865  16.853   4.958   7.131  0.0363 -0.2322  0.0128
99928W        W42866  16.344   6.305   7.776  0.1520 -0.1607 -0.1876
99929W        W42867  16.000   5.785   6.978 -0.1587 -0.0455 -0.2845
99930W        W42868  18.082   1.245   9.719  0.2259 -0.0164 -0.2387
99931W        W42869  16.169   8.085   8.879  0.0883  0.1304 -0.1835
99932W        W42870  16.749   6.342   6.793  0.5825  0.0586 -0.0172
99933W        W42871  16.488   4.374   9.573  0.0123 -0.1846 -0.1125
99934W        W42872  16.116   6.152   6.557 -0.1609  0.1022  0.3455
99935W        W42873  18.654   2.324   8.981 -0.2464 -0.1064 -0.3205
99936W        W42874  15.369   7.577   7.410  0.2593  0.1654  0.1481
99937W        W42875  15.318   4.363   8.599 -0.2514 -0.1518 -0.1592
99938W        W42876  14.444   4.300   9.088  0.0260  0.1692  0.1007
99939W        W42877  16.622   2.931   8.124 -0.1632 -0.0893 -0.1206
99940W        W42878  17.718   6.701   6.776 -0.0663 -0.2954  0.0315
99941W        W42879  15.948   5.379   9.201  0.1386 -0.0100  0.1022
99942W        W42880  16.255   3.073   9.432 -0.0149  0.2168 -0.2922
99943W        W42881  13.913   7.951   9.970 -0.2734 -0.0579  0.2554
99944W        W42882  16.058   5.042   7.624  0.0311 -0.1756  0.2107
99945W        W42883  14.231   4.733   9.321 -0.4440 -0.0732  0.2748
99946W        W42884  17.956   4.669   9.081 -0.0820 -0.0905  0.0476
99947W        W42885  15.705   4.830   8.591  0.1632  0.3121  0.2881
99948W        W42886  14.706   7.512   8.483  0.1700  0.2254  0.3997
99949W        W42887  17.429   5.361   9.050  0.1247 -0.0215 -0.4048
99950W        W42888  15.482   5.538   8.204  0.0701  0.1324 -0.2912
99951W        W42889  15.804   6.734   7.829 -0.1720  0.1210 -0.1247
99952W        W42890  18.133   6.620   8.854 -0.1567 -0.3796  0.3003
99953W        W42891  15.507   7.608   8.960  0.0968 -0.1365 -0.0115
99954W        W42892  15.575   4.353   9.155  0.3854 -0.0256 -0.0865
99955W        W42893  16.370   2.727   9.028 -0.1249  0.2798 -0.0793
99956W        W42894  17.689   7.668   8.354  0.1299 -0.3373 -0.0832
99957W        W42895  15.329   6.211   9.665 -0.0125 -0.1273 -0.0900
99958W        W42896  16.357   5.827   9.734 -0.0112 -0.0131 -0.3001
99959W        W42897  18.544   6.067   8.325 -0.2116  0.1608  0.1565
99960W        W42898  15.516   5.192   8.961  0.3332 -0.3116 -0.1273
99961W        W42899  15.111   6.579   9.314  0.1809 -0.0153  0.1703
99962W        W42900  15.248   5.595   7.495  0.1962  0.0599  0.0881
99963W        W42901  16.213   3.963   9.497  0.0089 -0.1746 -0.0859
99964W        W42902  16.990   4.826   9.226  0.0752 -0.1387 -0.1640
99965W        W42903  15.891   6.347   7.506 -0.0097  0.2376 -0.2647
99966W        W42904  16.329   7.277   9.397 -0.0817 -0.1865 -0.2527
99967W        W42905  17.668   2.651   8.780 -0.2257 -0.1928 -0.4848
99968W        W42906  15.988   6.022   8.011 -0.1985  0.1328  0.0996
99969W        W42907  15.608   5.797   9.500 -0.0195  0.3933  0.0461
99970W        W42908  16.611   7.012   8.138 -0.0276  0.1149  0.1957
99971W        W42909  17.576   3.292   8.224  0.2444  0.2381 -0.0890
99972W        W42910  17.475   6.841   7.205 -0.0380 -0.1698  0.1688
99973W        W42911  16.601   3.725   8.399 -0.3218  0.1020  0.0963
99974W        W42912  15.126   4.462   6.609  0.1725  0.3913  0.0355
99975W        W42913  14.033   6.652   8.166 -0.2147  0.1171 -0.0810
99976W        W42914  17.450   6.844   8.031  0.1986 -0.0825 -0.1502
99977W        W42915  16.101   5.862   7.529 -0.0450  0.1836 -0.1084
99978W        W42916  17.532   4.916   9.277  0.0311 -0.0610  0.2232
99979W        W42917  16.372   5.654   8.704  0.1593 -0.0951 -0.0936
99980W        W42918  17.058   4.487   8.791 -0.0219 -0.1330 -0.0241
99981W        W42919  16.548   5.031   7.562  0.0106 -0.0759 -0.2114
99982W        W42920  15.447   6.325   9.047  0.2819 -0.0088  0.0606
99983W        W42921  17.244   5.689   9.455 -0.0070  0.2156  0.2570
99984W        W42922  18.954   2.715   9.566 -0.0394  0.1615 -0.1949
99985W        W42923  18.460  10.042   8.938  0.1625  0.2407 -0.2948
99986W        W42924  17.045   4.846   7.579  0.2100  0.1813 -0.1850
99987W        W42925  17.273   6.399   9.061 -0.0146 -0.2388  0.0781
99988W        W42926  19.144   3.834   8.649  0.0282  0.1273 -0.0189
99989W        W42927  16.591   5.216   8.724 -0.1331  0.3679  0.0614
99990W        W42928  13.764   4.934   7.933 -0.1591  0.0049  0.0921
99991W        W42929  15.694   4.634   7.773  0.1121  0.0769  0.1340
99992W        W42930  16.700   5.331   6.815  0.1250 -0.1028 -0.0192
99993W        W42931  17.380   5.245   7.437 -0.1215 -0.2809 -0.2903
99994W        W42932  16.121   3.945   8.969 -0.0038  0.0395  0.1592
99995W        W42933  16.238   4.631   9.896  0.0322  0.0689 -0.1616
99996W        W42934  15.064   3.920   7.713 -0.3729 -0.1530 -0.1424
99997W        W42935  16.141   4.753   8.003  0.0655  0.3245 -0.0729
99998W        W42936  17.405   6.372   8.183  0.1588 -0.1174  0.0175
99999W        W42937  15.426   4.244   7.511 -0.0245  0.1156 -0.0603
    0W        W42938  14.661   7.734   9.008 -0.3993  0.0164  0.0592
    1W        W42939  16.404   3.596   8.857  0.1169 -0.2157 -0.0233
    2W        W42940  17.418   6.510   9.541  0.0037  0.0596  0.1248
    3W        W42941  16.071   5.628   8.288  0.0058 -0.1946  0.0690
    4W        W42942  17.590   3.409   9.119  0.1826 -0.0981  0.0664
    5W        W42943  19.702   3.873   9.450 -0.1800 -0.0904  0.0185
    6W        W42944  16.378   5.271   8.220  0.2068  0.0849  0.1289
    7W        W42945  14.896   5.586   8.296 -0.1759  0.0987 -0.0294
    8W        W42946  17.053   5.535   8.771 -0.3266 -0.0656  0.2694
    9W        W42947  14.620   5.381   9.672  0.0339  0.0701  0.2361
   10W        W42948  16.068   5.282   6.876 -0.1405 -0.0664  0.0277
   11W        W42949  16.747   3.567   7.442  0.1847  0.0154  0.1221
   12W        W42950  15.570   5.159   7.723 -0.1101 -0.1511  0.2322
   13W        W42951  15.400   5.259   9.530  0.2880  0.0169 -0.1602
   14W        W42952  15.053   7.666   6.945  0.0189 -0.2875  0.0815
   15W        W42953  17.861   3.883   8.547 -0.2829 -0.2644 -0.0821
   16W        W42954  15.877   5.412   7.357  0.3073 -0.2540  0.1259
   17W        W42955  16.664   8.135   8.961  0.0724  0.0901 -0.0646
   18W        W42956  15.857   6.283  10.266  0.0048  0.2071 -0.0929
   19W        W42957  16.597   9.137   9.611  0.0256  0.1995  0.4814
   20W        W42958  15.193   6.260   7.405 -0.1605 -0.1988 -0.1803
   21W        W42959  16.376   6.697   6.470  0.3877 -0.3340 -0.2123
   22W        W42960  15.180   6.395   7.880 -0.0919 -0.0281  0.3743
   23W        W42961  17.580   3.008   7.288  0.0664  0.3148  0.1759
   24W        W42962  17.585   3.831   8.129  0.0001  0.2189  0.1279
   25W        W42963  18.673   3.816   8.210  0.1956  0.1379 -0.1914
   26W        W42964  16.065   5.006   9.564  0.0426  0.2172  0.2998
   27W        W42965  16.136   3.369   8.109  0.0913  0.0061  0.1819
   28W        W42966  17.658   5.555   7.905  0.1231 -0.1250  0.0243
   29W        W42967  14.923   4.285   7.435 -0.0566  0.4314  0.0958
   30W        W42968  16.571   3.964   9.201  0.2689 -0.0199 -0.0879
   31W        W42969  16.091   3.488   9.286  0.1990 -0.2931 -0.3373
   32W        W42970  15.658   5.932   7.288 -0.0131  0.0610 -0.1006
   33W        W42971  18.040   4.865   9.552 -0.1865  0.0587  0.0680
   34W        W42972  16.480   8.397   8.078 -0.1152  0.1701  0.2131
   35W        W42973  16.418   6.856   8.590  0.4207  0.2831  0.0997
   36W        W42974  16.834   8.274   9.415 -0.1088 -0.0935 -0.2081
   37W        W42975  14.150   3.723   7.410 -0.0394 -0.0517 -0.4758
   38W        W42976  17.953   3.749   9.083 -0.1038  0.0708  0.0498
   39W        W42977  16.394   6.254   8.323  0.0553 -0.1344 -0.3441
   40W        W42978  16.729   5.813   9.120  0.0952  0.1183  0.2564
   41W        W42979  18.637   3.184   8.077  0.1591 -0.1535 -0.2826
   42W        W42980  16.593   7.443   8.638 -0.0620 -0.0920 -0.1807
   43W        W42981  15.666   3.184   9.813  0.1982  0.1298 -0.1923
   44W        W42982  15.233   4.416   7.078  0.0367 -0.0578 -0.2727
   45W        W42983  16.419   5.459   7.259 -0.2593  0.1447 -0.2514
   46W        W42984  15.990   3.567   8.665 -0.1435 -0.1457  0.1936
   47W        W42985  17.294   4.146   8.407  0.0577 -0.5795 -0.1092
   48W        W42986  14.880   6.269   8.232 -0.0354  0.2554  0.1168
   49W        W42987  16.814   7.512   8.183  0.1024  0.2009 -0.1649
   50W        W42988  14.519   3.671   9.501 -0.0735 -0.1831  0.0268
   51W        W42989  17.083   6.194   7.256 -0.0037  0.1741  0.1510
   52W        W42990  17.821   5.948   8.193  0.0104  0.2821 -0.1803
   53W        W42991  16.174   6.834   6.917  0.2093  0.1468  0.0410
   54W        W42992  17.177   5.582   7.860  0.2179 -0.0064 -0.2114
   55W        W42993  16.571   7.086   9.001 -0.1263 -0.4188  0.0374
   56W        W42994  13.509   3.140   9.694  0.1437 -0.2342  0.0035
   57W        W42995  17.711   8.482   9.371  0.0492  0.0785 -0.1696
   58W        W42996  16.309   3.486   9.872 -0.0881 -0.2353  0.2028
   59W        W42997  15.603   3.643   8.322  0.1588  0.3464  0.0016
   60W        W42998  16.393   4.927   9.082  0.1394 -0.2656 -0.2350
   61W        W42999  15.165   7.189   7.730 -0.0186  0.4645 -0.1436
   62W        W43000  17.509   4.440   9.133  0.1290  0.2092 -0.4368
   63W        W43001  17.606   6.157   7.244 -0.1790  0.0901 -0.1892
   64W        W43002  16.988   6.057   8.074  0.1279  0.2371  0.3360
   65W        W43003  14.600   5.176   8.335 -0.1957  0.1476 -0.0856
   66W        W43004  16.025   5.212   6.016  0.0918 -0.2857  0.0115
   67W        W43005  16.454   5.956   7.184  0.1481 -0.0102 -0.2730
   68W        W43006  18.477   6.865   7.686  0.1388  0.1532  0.0248
   69W        W43007  17.125   4.642   9.658  0.0699  0.0627 -0.0789
   70W        W43008  17.409   5.916   9.948  0.3487  0.2582  0.5140
   71W        W43009  15.083   3.008   9.118  0.0279  0.0640  0.1407
   72W        W43010  17.050   4.266   9.318  0.0358 -0.0442 -0.1101
   73W        W43011  17.863   2.851   8.371 -0.2287 -0.1352 -0.1621
   74W        W43012  15.898   6.312   9.141  0.2157 -0.0499  0.1993
   75W        W43013  15.297   5.136   8.464  0.0508 -0.0818  0.0052
   76W        W43014  14.906   4.793   7.096  0.2277  0.1662 -0.0558
   77W        W43015  15.295   6.841   8.125 -0.1301 -0.3837  0.2226
   78W        W43016  16.411   6.706   9.295  0.0221  0.2621  0.3835
   79W        W43017  15.281   3.180   8.044  0.0545  0.3878  0.0947
   80W        W43018  17.497   7.075   8.453  0.0556 -0.3988  0.0370
   81W        W43019  18.103   2.850   9.704 -0.0768  0.0559  0.4180
   82W        W43020  15.196   3.037  10.064 -0.1753  0.0690 -0.3557
   83W        W43021  15.269   7.491   8.066  0.3105 -0.2279 -0.0264
   84W        W43022  18.200   6.442   7.547  0.1754 -0.3020 -0.0981
   85W        W43023  15.914   3.991   7.743 -0.1158  0.1306  0.0458
   86W        W43024  15.919   6.610   6.556 -0.0088  0.0320  0.0177
   87W        W43025  13.797   3.545   6.951 -0.0380  0.0680 -0.2233
   88W        W43026  17.639   6.254   8.590  0.2976  0.1078 -0.0953
   89W        W43027  17.366   6.597   7.631  0.1566 -0.2371 -0.2785
   90W        W43028  16.936   6.665   7.196  0.0632  0.0917  0.2058
   91W        W43029  17.267   3.438   9.685  0.2020 -0.3461 -0.2832
   92W        W43030  15.396   6.047   8.283 -0.0287  0.2300  0.0947
   93W        W43031  17.422   5.319   8.387 -0.0926 -0.1418 -0.1072
   94W        W43032  17.553   3.750  10.028  0.0495 -0.1200  0.3180
   95W        W43033  16.326   4.266   8.066  0.3224 -0.0676  0.2204
   96W        W43034  18.447   4.554   9.324 -0.0354 -0.3443  0.1522
   97W        W43035  14.421   4.557   8.315 -0.2073 -0.1175 -0.1769
   98W        W43036  17.394   3.609   8.610  0.1542  0.1046  0.2250
   99W        W43037  16.856   6.421   7.682  0.2665 -0.0310 -0.0299
  100W        W43038  16.083   4.426   8.880  0.2513  0.3472 -0.0369
  101W        W43039  17.651   4.430   8.638 -0.1968 -0.0545 -0.2596
  102W        W43040  16.397   6.327   8.865  0.0170 -0.1200 -0.0019
  103W        W43041  15.839   5.167   8.148  0.0541  0.0831 -0.1178
  104W        W43042  17.909   5.251   9.122  0.0163  0.1307  0.0815
  105W        W43043  17.288   8.427   8.198  0.1547 -0.2408  0.1075
  106W        W43044  17.735   5.496   9.515 -0.0675  0.1299  0.0970
  107W        W43045  18.306   5.019   8.166  0.0226  0.0031 -0.3303
  108W        W43046  15.253   0.651   9.546  0.0412 -0.0028 -0.2894
  109W        W43047  16.184   4.875   8.478  0.0624 -0.1265 -0.2487
  110W        W43048  15.295   5.546   8.700  0.1021 -0.0777  0.0612
  111W        W43049  16.720   3.954   9.696  0.1524  0.1095  0.3167
  112W        W43050  16.155   2.883   9.932  0.0920 -0.2137 -0.1787
  113W        W43051  17.150   3.318   7.293 -0.1040 -0.0851 -0.1624
  114W        W43052  17.140   5.204   9.569  0.1832  0.0280  0.2144
  115W        W43053  16.748   5.335   7.932  0.1518 -0.0171 -0.0146
  116W        W43054  15.351   9.991   3.295  0.1679  0.1131  0.3072
  117W        W43055  16.620   8.210   0.996 -0.1247 -0.0085 -0.3107
  118W        W43056  18.650   8.018   0.406 -0.0264  0.1961  0.2861
  119W        W43057  18.310   8.396   1.299  0.2037 -0.1004  0.3575
  120W        W43058  16.301   6.358   1.432 -0.1005 -0.1270  0.2245
  121W        W43059  17.347   9.319  31.961  0.2930 -0.0292  0.0544
  122W        W43060  14.233   7.461   2.986  0.0801  0.2633 -0.0796
  123W        W43061  16.752  10.083   2.666 -0.0999 -0.3553  0.1489
  124W        W43062  17.557  11.350   1.549 -0.1055  0.1856 -0.0641
  125W        W43063  16.127   9.119  30.528  0.0381 -0.1767 -0.1563
  126W        W43064  16.253   9.120   2.813  0.1358  0.0492 -0.1456
  127W        W43065  14.223  10.801   3.026 -0.0421 -0.1320 -0.1647
  128W        W43066  17.130   7.583  31.774 -0.0619 -0.1398 -0.0065
  129W        W43067  14.082   5.984   0.384  0.0096  0.1595 -0.3211
  130W        W43068  17.689   8.786   2.908 -0.1967 -0.0187 -0.1499
  131W        W43069  13.796   8.954   0.486  0.1233  0.0154 -0.3255
  132W        W43070  17.027   9.372   2.100  0.0372  0.4654  0.1549
  133W        W43071  16.746   8.580   0.414 -0.1560 -0.2436  0.1899
  134W        W43072  16.603  10.237   0.915  0.2452  0.1992  0.0046
  135W        W43073  14.699   8.109   2.747  0.0456  0.4534  0.1320
  136W        W43074  16.910   7.331   3.407  0.0131 -0.0661  0.1867
  137W        W43075  16.082   9.145  31.755  0.3452 -0.0149 -0.1740
  138W        W43076  14.385   9.512   0.104  0.0091 -0.1312 -0.5636
  139W        W43077  15.022   8.539   0.706 -0.0946 -0.0423  0.1995
  140W        W43078  14.609   8.766   0.945 -0.1066 -0.1372 -0.2198
  141W        W43079  18.748   7.773   1.375  0.0677  0.1738 -0.2351
  142W        W43080  17.773   9.245   2.076 -0.0272  0.0720  0.1516
  143W        W43081  16.146  10.016   0.689 -0.3520 -0.2079 -0.2962
  144W        W43082  17.137   9.704   0.932 -0.1559  0.3786  0.2016
  145W        W43083  18.069   8.089   3.425 -0.0739  0.0814  0.0564
  146W        W43084  14.768  10.167  31.979  0.1302  0.1417 -0.0288
  147W        W43085  14.295  11.537   1.444  0.2177  0.1614  0.0203
  148W        W43086  16.206   9.507   0.759  0.0859  0.0526 -0.3282
  149W        W43087  18.673   8.669   1.952  0.0300 -0.1913 -0.0071
  150W        W43088  17.040  10.719   2.018  0.0847 -0.1157  0.0991
  151W        W43089  16.455  10.963   2.973  0.2441  0.2779  0.2080
  152W        W43090  16.403   9.328  31.460 -0.1633  0.0623 -0.1030
  153W        W43091  17.758  10.804   0.898 -0.0567  0.1630 -0.2806
  154W        W43092  16.508  11.199   1.305 -0.1946  0.1599 -0.2798
  155W        W43093  15.898   8.779   1.481  0.1443  0.2250  0.2530
  156W        W43094  16.199   9.306   1.527  0.2160  0.2646  0.2998
  157W        W43095  15.871  11.497  31.533  0.0402 -0.2761  0.1840
  158W        W43096  15.023   9.072   1.636  0.1342 -0.1725 -0.0617
  159W        W43097  14.301   9.536   2.172  0.2780  0.3854 -0.0893
  160W        W43098  15.122  10.306   1.338  0.1505 -0.3228 -0.0406
  161W        W43099  18.570   8.126   2.940 -0.1806  0.1287  0.0028
  162W        W43100  17.186   9.679  31.542 -0.2159 -0.0697 -0.0020
  163W        W43101  16.029   7.816   0.215  0.1022  0.4494  0.0038
  164W        W43102  16.679   8.902  31.505  0.1134  0.1858  0.0707
  165W        W43103  17.021   7.795   0.826 -0.2190  0.0514 -0.1054
  166W        W43104  15.636   7.151   2.456  0.2252 -0.0793  0.0358
  167W        W43105  17.786  10.335  31.892  0.3635  0.2330 -0.0988
  168W        W43106  16.395   7.738   2.675 -0.2829 -0.1311 -0.0588
  169W        W43107  17.867   9.752   2.069  0.3040 -0.0375 -0.3778
  170W        W43108  14.977   9.708   1.292  0.1504 -0.2472 -0.0533
  171W        W43109  18.362   8.508   2.625 -0.0291  0.1019 -0.0427
  172W        W43110  15.151  10.527   2.522 -0.3214 -0.0049 -0.4262
  173W        W43111  15.112   8.609   1.451  0.0209 -0.0490  0.1355
  174W        W43112  18.060  10.322  30.600  0.1527  0.2864  0.0110
  175W        W43113  17.991  11.149   0.672  0.1098  0.1575  0.0329
  176W        W43114  16.496  10.827  31.369 -0.3013  0.0511 -0.2921
  177W        W43115  14.742   9.358   0.885  0.0014  0.1274  0.1310
  178W        W43116  13.720   9.306   2.611  0.1406 -0.0163 -0.0091
  179W        W43117  14.111   9.014   2.159 -0.1928  0.0982  0.0966
  180W        W43118  14.230   7.348  30.162 -0.2427 -0.3975 -0.3699
  181W        W43119  16.968  10.362   2.982 -0.2760  0.0115 -0.2798
  182W        W43120  13.797  10.245   2.542 -0.1738 -0.0452  0.0040
  183W        W43121  19.225   6.883   2.252 -0.4587  0.2731 -0.2584
  184W        W43122  16.276   8.978   1.080  0.2044 -0.2247 -0.1452
  185W        W43123  18.285   9.166   3.573  0.1580  0.0643  0.1473
  186W        W43124  17.623   9.558  31.172 -0.0639 -0.0053 -0.1218
  187W        W43125  18.574   7.715   2.474 -0.0231 -0.1513 -0.0086
  188W        W43126  16.685   6.997   2.926 -0.0973  0.0945 -0.0587
  189W        W43127  15.438   9.592   0.462 -0.0537 -0.0890  0.1021
  190W        W43128  16.580   8.897   1.430  0.0863  0.0693 -0.1306
  191W        W43129  18.001  11.657   1.297 -0.2514 -0.0352  0.3097
  192W        W43130  17.630   8.512  31.964 -0.0467 -0.2663  0.2212
  193W        W43131  14.247  10.705   2.411  0.1410 -0.0603  0.2715
  194W        W43132  14.766   8.461   3.764  0.0881 -0.2179 -0.0511
  195W        W43133  15.978   9.980   2.207  0.0210 -0.1835  0.3089
  196W        W43134  14.418  13.203  31.314  0.1009  0.1519 -0.3512
  197W        W43135  15.266  10.221   0.859  0.0260 -0.0882  0.1878
  198W        W43136  16.994  11.225   0.353 -0.1686  0.0293  0.2435
  199W        W43137  14.180   6.207   2.577 -0.1934  0.1025 -0.2326
  200W        W43138  13.900   8.539   2.118  0.0744 -0.0137  0.0450
  201W        W43139  17.274   8.768   0.827  0.0613  0.2388 -0.0536
  202W        W43140  13.795   7.725   3.060 -0.0663 -0.3688  0.2874
  203W        W43141  17.631   7.609   0.158  0.1279  0.2953  0.0301
  204W        W43142  16.105   9.051   0.618 -0.0726 -0.3870 -0.3305
  205W        W43143  17.432   9.006   2.461  0.1817 -0.0363  0.1793
  206W        W43144  19.176   7.381  31.733  0.1003 -0.0385  0.2776
  207W        W43145  18.422  10.506  30.322 -0.1285 -0.1555 -0.1213
  208W        W43146  15.375   9.475   1.817 -0.0522 -0.1802 -0.1231
  209W        W43147  14.703   7.006   1.992  0.1225 -0.0315  0.2982
  210W        W43148  14.506   7.815   3.685  0.3086 -0.1741 -0.0327
  211W        W43149  14.804   6.418   0.244 -0.2422 -0.1328 -0.0991
  212W        W43150  18.505   8.327   3.391  0.1898 -0.1139  0.4382
  213W        W43151  15.623   7.135  31.568 -0.0277  0.0626 -0.0659
  214W        W43152  15.753   9.125   1.860 -0.2577  0.0839  0.0846
  215W        W43153  14.608   8.060   2.288 -0.0300  0.7366 -0.0798
  216W        W43154  13.539  10.102   0.809 -0.0720 -0.0833  0.0160
  217W        W43155  17.742   8.851   4.268 -0.0981  0.1761  0.1161
  218W        W43156  17.499  10.948  31.546  0.2058 -0.1223 -0.0169
  219W        W43157  17.302  12.302   1.394  0.2647 -0.3532 -0.2688
  220W        W43158  17.068  11.454   1.391 -0.0769 -0.2912  0.1743
  221W        W43159  14.165   7.893   2.145  0.2142 -0.0027 -0.0752
  222W        W43160  15.270   6.865   2.640 -0.1658 -0.2912 -0.0255
  223W        W43161  15.424  10.838   2.125  0.2549  0.0090  0.0338
  224W        W43162  15.821  11.414   1.589 -0.3021 -0.2249 -0.0788
  225W        W43163  16.279   7.784   1.971  0.0108 -0.1676 -0.1290
  226W        W43164  18.177  11.980   0.496  0.0330 -0.0560  0.0698
  227W        W43165  16.047   9.271  31.113 -0.1658  0.2946 -0.1358
  228W        W43166  15.029   8.903   2.115  0.0327 -0.3172  0.2581
  229W        W43167  17.234   8.455   2.493  0.1494 -0.0041  0.1145
  230W        W43168  17.447   9.525   2.406 -0.0635  0.0676 -0.1497
  231W        W43169  16.712   9.749   0.497  0.0979 -0.0641 -0.1223
  232W        W43170  13.930   6.575   0.408 -0.0170 -0.0575 -0.1230
  233W        W43171  17.477  10.234   0.799  0.0160  0.0698 -0.0993
  234W        W43172  13.497  11.352   0.358 -0.0385  0.1949  0.0233
  235W        W43173  13.225   8.038   1.247 -0.4253  0.0202  0.1969
  236W        W43174  15.579  12.114   0.336 -0.0511  0.4514 -0.0790
  237W        W43175  16.950   8.012   1.743  0.0672  0.3146 -0.1201
  238W        W43176  14.203   8.216   3.698  0.0848  0.0889 -0.1897
  239W        W43177  14.841   6.798   4.096  0.0104  0.1280 -0.1363
  240W        W43178  16.047   9.612  31.799  0.2306  0.1368 -0.0576
  241W        W43179  15.194  10.374   2.100 -0.3011 -0.0293  0.3726
  242W        W43180  16.917   8.701   2.858 -0.0263  0.0606 -0.2618
  243W        W43181  16.998   7.310   0.710  0.1179  0.1043 -0.1890
  244W        W43182  15.895   8.781   3.026  0.1431  0.3751  0.0413
  245W        W43183  16.907   8.377   2.086 -0.2833 -0.1978 -0.2417
  246W        W43184  17.239   8.511   0.298  0.0452 -0.1368 -0.0177
  247W        W43185  16.566   9.176  30.922 -0.1157  0.1870  0.0095
  248W        W43186  13.128   9.594   4.898  0.1373  0.1391  0.2063
  249W        W43187  15.141   8.021   2.244 -0.1399  0.2104  0.1665
  250W        W43188  16.514   9.219   2.387  0.1066 -0.1471  0.3890
  251W        W43189  15.868   8.225  30.960  0.0238  0.0972 -0.1354
  252W        W43190  17.430  11.428  31.303 -0.1818  0.0379 -0.0137
  253W        W43191  14.550   9.572   1.491 -0.1736 -0.1867 -0.0282
  254W        W43192  16.133  10.508   2.521 -0.0522 -0.0165  0.2331
  255W        W43193  17.038   9.853   2.199 -0.1705  0.2105  0.0245
  256W        W43194  16.079   7.951   2.967  0.1893  0.0228 -0.3178
  257W        W43195  16.053   8.032  31.655 -0.2549 -0.2979  0.0970
  258W        W43196  18.027   8.402   0.928 -0.0158 -0.2579  0.0864
  259W        W43197  15.398  12.386  31.528 -0.0167  0.0400  0.1128
  260W        W43198  17.158   8.021   2.897 -0.0975  0.0877 -0.0948
  261W        W43199  17.597   7.809   2.469 -0.1456  0.3306  0.0523
  262W        W43200  17.378   7.492   2.780 -0.0981  0.2471  0.0895
  263W        W43201  15.661   9.634   2.951  0.3328  0.2626  0.2122
  264W        W43202  17.049   8.752   1.363  0.1615  0.0994 -0.0162
  265W        W43203  16.476   9.587   2.757 -0.1009  0.0894 -0.1299
  266W        W43204  15.601   9.224  31.982  0.1342 -0.1056 -0.3197
  267W        W43205  17.043   7.684   3.724 -0.2673  0.0846  0.1603
  268W        W43206  15.483   7.618   2.231  0.3968  0.2748 -0.3189
  269W        W43207  14.765   9.431   2.441  0.0121 -0.2871  0.1767
  270W        W43208  17.447   9.988   1.938 -0.1957 -0.2439 -0.0673
  271W        W43209  17.002   9.813   1.557  0.2555 -0.4200 -0.2148
  272W        W43210  15.642   7.741   2.677 -0.2440  0.2892  0.0375
  273W        W43211  17.163   9.490   0.439 -0.4081  0.1089 -0.0202
  274W        W43212  14.591  11.478  31.499  0.0261 -0.0523 -0.0614
  275W        W43213  17.048   9.262   1.524 -0.1529 -0.0390  0.3306
  276W        W43214  16.780   8.576  31.909  0.1807 -0.0472  0.0857
  277W        W43215  15.313   9.450   0.997 -0.0675 -0.1793 -0.3195
  278W        W43216  17.657  10.760  30.641  0.0982 -0.0232 -0.0253
  279W        W43217  16.572   9.597   1.740 -0.0253  0.1767 -0.2101
  280W        W43218  16.417  10.097  31.179  0.0284  0.1156  0.0902
  281W        W43219  17.602   7.001   2.607 -0.0311  0.0064 -0.0341
  282W        W43220  14.066  11.326   1.052 -0.1261  0.1194  0.2314
  283W        W43221  16.737   8.440   1.552 -0.1296  0.1064 -0.0750
  284W        W43222  14.436   9.085   0.627  0.1661  0.0114 -0.2301
  285W        W43223  17.329   7.967   0.475 -0.1126 -0.3984  0.2364
  286W        W43224  16.783   8.636   0.999  0.0995  0.0882 -0.3024
  287W        W43225  15.181   7.417   1.777 -0.2464 -0.0491  0.0510
  288W        W43226  16.117   7.658   1.510 -0.2060 -0.2454  0.0416
  289W        W43227  14.322  10.363   1.982  0.0052 -0.1653  0.0723
  290W        W43228  16.735   9.165   2.915 -0.3080  0.0154  0.0798
  291W        W43229  17.572   8.917   1.753 -0.2195 -0.2317 -0.0105
  292W        W43230  16.188  11.074   1.663 -0.2442  0.0951 -0.1209
  293W        W43231  15.140  11.106   3.629  0.0456  0.1351 -0.3178
  294W        W43232  17.299   7.614   3.242  0.2127 -0.0903  0.2105
  295W        W43233  15.564   8.401   1.427 -0.2582  0.1426  0.1667
  296W        W43234  15.575  10.464   1.194  0.1845  0.0925 -0.1847
  297W        W43235  15.950  11.163   1.160 -0.0929 -0.0595  0.0164
  298W        W43236  15.903  10.619   0.262  0.2290 -0.0741 -0.2181
  299W        W43237  15.441  10.475   1.665  0.0358  0.1329 -0.1413
  300W        W43238  16.436   8.039   3.798  0.2957 -0.1216 -0.2046
  301W        W43239  16.546   9.770   2.220  0.1264  0.1017  0.0483
  302W        W43240  16.457   8.717   2.286 -0.0665  0.3526  0.1999
  303W        W43241  18.177   7.773   2.131 -0.2781  0.1939  0.1224
  304W        W43242  17.811   9.330   1.586 -0.2368  0.3941  0.0869
  305W        W43243  16.021   9.538   2.606  0.1342  0.1031 -0.2226
  306W        W43244  16.934   8.330   3.239 -0.1428 -0.0966 -0.1600
  307W        W43245  15.551  10.401   2.832  0.0405  0.2392 -0.3346
  308W        W43246  16.177   8.232   2.560 -0.3975 -0.0647 -0.1221
  309W        W43247  17.795  11.600   0.582 -0.0817 -0.1295  0.0711
  310W        W43248  15.689   9.267   3.856  0.2902 -0.0033 -0.3054
  311W        W43249  16.499   9.483   0.122 -0.2121 -0.0141  0.0757
  312W        W43250  14.406   9.022   1.327 -0.1703  0.0227 -0.1229
  313W        W43251  15.170   9.969   0.203  0.2721 -0.1738 -0.3791
  314W        W43252  15.315   7.910   1.489 -0.2196 -0.2056 -0.1049
  315W        W43253  13.484   9.746   2.671  0.2920 -0.3697 -0.1893
  316W        W43254  15.577   9.747  31.943  0.3373  0.1159 -0.1096
  317W        W43255  15.093  10.933   1.693 -0.0011 -0.1202 -0.2045
  318W        W43256  17.831   7.912   0.766 -0.2182 -0.2501  0.0762
  319W        W43257  18.182  10.259   0.199  0.3899 -0.2363 -0.2454
  320W        W43258  15.071   8.467   1.939 -0.0411 -0.1375  0.1797
  321W        W43259  19.491   6.918   2.810 -0.0022 -0.1816  0.0573
  322W        W43260  18.021   9.818  31.958  0.5499  0.1617 -0.0351
  323W        W43261  16.187   6.735   3.636  0.1580  0.2827 -0.1038
  324W        W43262  15.696   7.019   3.382 -0.0423 -0.1508  0.1272
  325W        W43263  17.988   8.892   2.477  0.0704 -0.1482 -0.0843
  326W        W43264  14.198   9.424   3.549  0.0082 -0.2045 -0.2524
  327W        W43265  17.347  10.362   3.547 -0.0809  0.1730  0.0909
  328W        W43266  14.065   9.899   3.753  0.0239 -0.1792 -0.0460
  329W        W43267  17.404   8.032   1.041  0.0532  0.4824  0.1427
  330W        W43268  14.933   8.577   0.207  0.2387  0.0047  0.0085
  331W        W43269  15.979   8.333   3.251  0.1488  0.1275  0.2812
  332W        W43270  17.922   8.320   1.741 -0.0170  0.1194  0.2146
  333W        W43271  15.989  11.675   2.048 -0.1085 -0.4951  0.1400
  334W        W43272  15.769   9.529   2.155 -0.2566 -0.0411  0.3469
  335W        W43273  15.473   9.932   1.259 -0.3518  0.2736 -0.2435
  336W        W43274  18.094   8.872   1.924  0.1651 -0.0509 -0.1634
  337W        W43275  17.065   7.263   1.575  0.1229 -0.0278 -0.2251
  338W        W43276  15.212  10.056   2.784  0.3788 -0.3091 -0.1125
  339W        W43277  14.190   6.825   2.162 -0.0016  0.0599  0.1942
  340W        W43278  16.400   8.332   2.000 -0.1122 -0.2318  0.2101
  341W        W43279  17.087   8.796   1.847  0.2749 -0.2681  0.1047
  342W        W43280  16.599   7.981   2.314 -0.3417 -0.3123 -0.1899
  343W        W43281  18.547   7.393   3.549  0.0893 -0.3021  0.0756
  344W        W43282  14.122   8.697   4.505 -0.1543  0.0472 -0.1388
  345W        W43283  14.694   7.393   1.601  0.1123 -0.0058  0.3295
  346W        W43284  18.012  11.288   3.082 -0.0482  0.2410 -0.1500
  347W        W43285  17.458   8.982   0.351  0.1360  0.0778 -0.1010
  348W        W43286  19.095   6.712   3.194  0.1621 -0.3140  0.2174
  349W        W43287  17.607   8.342   0.704 -0.0507  0.0003 -0.3356
  350W        W43288  17.194  10.479  30.704  0.0116  0.0981 -0.0270
  351W        W43289  13.460   7.811   1.882 -0.1991  0.0307 -0.1962
  352W        W43290  18.056  10.028   3.306 -0.3847 -0.0907  0.0239
  353W        W43291  15.004   5.995   0.051  0.1997  0.0095  0.2304
  354W        W43292  17.496   7.939   3.942 -0.0435 -0.2467 -0.0229
  355W        W43293  16.954  11.474  30.920 -0.1099  0.0242 -0.0855
  356W        W43294  15.479   9.111   1.380  0.1356 -0.1331 -0.0303
  357W        W43295  17.363   8.421   1.665 -0.0264  0.0530  0.4348
  358W        W43296  13.940   7.772   2.611 -0.2424  0.0274 -0.1169
  359W        W43297  14.750  11.471   3.114  0.0942  0.1133 -0.2020
  360W        W43298  14.139   7.458   0.233 -0.1492 -0.0016  0.1268
  361W        W43299  15.995   9.556   0.322 -0.4338 -0.2111  0.0617
  362W        W43300  15.864  10.196   1.547 -0.1445  0.1155  0.1551
  363W        W43301  18.043   7.787   3.824 -0.2953  0.1073 -0.0565
  364W        W43302  17.192   6.749  31.290 -0.2827 -0.2432 -0.1160
  365W        W43303  18.893   8.785   3.302  0.2411  0.0980 -0.3294
  366W        W43304  13.840  10.553   0.656  0.3425 -0.2427  0.0783
  367W        W43305  16.312   7.243   2.702 -0.2237 -0.0000 -0.0463
  368W        W43306  15.475  11.253   2.447 -0.2391 -0.2191  0.0046
  369W        W43307  15.454   9.897   1.987 -0.0076  0.3246  0.2107
  370W        W43308  16.169   9.793   1.251 -0.0037 -0.2006 -0.1461
  371W        W43309  15.486   8.153   1.877 -0.0397  0.1172 -0.0526
  372W        W43310  16.953   8.897   2.434  0.4023  0.0893  0.1582
  373W        W43311  16.380   8.586   2.984 -0.3558  0.1447  0.0970
  374W        W43312  17.979   9.298   4.459  0.2032 -0.0189 -0.1070
  375W        W43313  17.378  10.500   2.670  0.0105 -0.0756  0.1554
  376W        W43314  15.062   9.005   1.124  0.1405  0.0427  0.1577
  377W        W43315  16.385  10.557   1.829 -0.3128  0.1947 -0.0784
  378W        W43316  17.995   9.911   0.508  0.1990  0.1034  0.1371
  379W        W43317  15.059   9.991   1.739 -0.0604  0.0332 -0.2370
  380W        W43318  14.917   8.457   2.450  0.2081  0.2178  0.0546
  381W        W43319  16.224  10.048   2.619  0.2794  0.0325  0.1723
  382W        W43320  15.233   9.451   2.270  0.2270  0.2339 -0.1202
  383W        W43321  15.336   8.333  31.836  0.1041  0.0317  0.2070
  384W        W43322  18.473  10.486   0.519 -0.0605  0.0322  0.0158
  385W        W43323  14.525  11.122   2.768  0.0223 -0.1714 -0.0947
  386W        W43324  14.160   8.743   1.677  0.0396 -0.0379 -0.1868
  387W        W43325  15.891  10.727   0.947 -0.0618 -0.1568 -0.3186
  388W        W43326  17.656   9.571  31.680  0.2446 -0.2331  0.0881
  389W        W43327  16.262   8.462   1.299 -0.1437 -0.1429  0.3755
  390W        W43328  16.543  10.720   1.352 -0.3381  0.0030  0.0215
  391W        W43329  17.085   8.321   0.742  0.1394 -0.2463 -0.0998
  392W        W43330  14.522  12.030   1.785  0.1687  0.1712 -0.0688
  393W        W43331  16.837  10.699   0.515  0.1682 -0.1133 -0.0721
  394W        W43332  18.259  10.157  31.124  0.2757  0.2824  0.0998
  395W        W43333  15.557  11.449  31.926 -0.3037  0.0785 -0.1334
  396W        W43334  18.728   8.558   0.486 -0.3985 -0.1612 -0.2787
  397W        W43335  19.720   7.904   1.824  0.0139  0.0473 -0.0084
  398W        W43336  18.576   8.076   2.141  0.3032 -0.1116 -0.2409
  399W        W43337  16.691  11.022   1.831 -0.1640  0.1244  0.1813
  400W        W43338  16.246   8.926   1.804  0.0058  0.2728 -0.1536
  401W        W43339  16.468   8.993   0.116  0.1198  0.1308 -0.3039
  402W        W43340  15.494   8.721   1.831  0.0617  0.1491 -0.0989
  403W        W43341  18.931   7.278   3.912  0.0130 -0.0001  0.4152
  404W        W43342  14.465  10.604   4.060 -0.0797 -0.3136 -0.3845
  405W        W43343  18.624   9.736  31.402 -0.1235 -0.1844  0.5774
  406W        W43344  14.811   8.148   0.468  0.3330  0.0920 -0.1754
  407W        W43345  13.958   7.346   2.187  0.0957 -0.0976 -0.2442
  408W        W43346  18.472   6.350   1.788  0.3276 -0.1666 -0.1720
  409W        W43347  15.761   9.733   0.854  0.1956 -0.3462  0.0804
  410W        W43348  16.021   9.042   2.343 -0.0282  0.1210 -0.2981
  411W        W43349  15.232  10.808   1.271  0.0840 -0.1557 -0.0078
  412W        W43350  14.382  10.111   2.411  0.2442  0.0368  0.2522
  413W        W43351  14.699  10.669   2.714  0.1479 -0.1816  0.1160
  414W        W43352  14.989   7.158   0.226 -0.2102  0.0487 -0.1984
  415W        W43353  17.472   7.538   0.650  0.0158 -0.0792 -0.0540
  416W        W43354  15.005   7.369   2.257 -0.3279 -0.1491  0.0251
  417W        W43355  17.380   7.281   3.657 -0.0260 -0.0644  0.1026
  418W        W43356  13.976   8.489   0.323  0.0382 -0.3238  0.1351
  419W        W43357  17.480   7.929   1.596  0.0519  0.1345  0.1414
  420W        W43358  15.648   9.190   2.662 -0.4438  0.0413 -0.0224
  421W        W43359  14.701   8.705   1.691 -0.2789  0.0891  0.1366
  422W        W43360  14.425   9.956  30.779 -0.1299 -0.1594 -0.0321
  423W        W43361  17.655   9.835   2.815 -0.4017 -0.1735  0.0685
  424W        W43362  15.186   9.447   2.783 -0.4486  0.2183 -0.0170
  425W        W43363  17.029  10.823   1.446 -0.2303 -0.3576 -0.0962
  426W        W43364  14.848   9.328   3.447 -0.0637  0.1050  0.0101
  427W        W43365  16.971   9.016   0.267 -0.2854  0.0687 -0.0146
  428W        W43366  15.782   8.901   0.993 -0.1151  0.2902  0.2628
  429W        W43367  16.142   9.525   3.109  0.2314 -0.0637 -0.0495
  430W        W43368  17.669  10.117   2.384 -0.4107  0.1551  0.1103
  431W        W43369  14.073   6.886  31.488  0.5681  0.1825 -0.0133
  432W        W43370  17.961  10.346   0.788 -0.0578  0.1392  0.2970
  433W        W43371  17.845   8.729   0.375 -0.4716  0.1571 -0.2503
  434W        W43372  15.101  11.339  31.770  0.1051  0.0118 -0.0594
  435W        W43373  17.438  10.680   0.493 -0.2259  0.0855 -0.1628
  436W        W43374  15.632  11.704   2.935 -0.0985 -0.0868 -0.2135
  437W        W43375  14.479   7.683   2.594 -0.1099 -0.2833  0.2099
  438W        W43376  14.035   8.752   0.877  0.1421  0.3388  0.1173
  439W        W43377  16.527  10.185   1.452 -0.0625  0.0451  0.2537
  440W        W43378  17.832   6.439   0.184 -0.2117 -0.2184 -0.2825
  441W        W43379  14.992   7.722   2.622  0.2409  0.1994  0.0145
  442W        W43380  15.627   9.158   0.541 -0.3692  0.1509  0.0380
  443W        W43381  19.215   7.411   1.140  0.1929  0.0590 -0.0833
  444W        W43382  18.234   7.267   3.172  0.2380  0.0561  0.0108
  445W        W43383  16.779   8.479  30.546  0.1116  0.0469  0.2424
  446W        W43384  17.912   6.876   3.053  0.1707 -0.0493 -0.0417
  447W        W43385  16.605  10.980   3.876 -0.0904  0.1653  0.0932
  448W        W43386  14.685  11.154   3.667 -0.1838 -0.0540 -0.2130
  449W        W43387  14.454   9.956   0.358 -0.0316 -0.1722 -0.0980
  450W        W43388  15.024   9.058   2.573 -0.1055  0.0143 -0.0721
  451W        W43389  15.022   9.069   0.600  0.1956 -0.0298 -0.0129
  452W        W43390  16.946  11.705   0.290  0.0478 -0.2526 -0.0398
  453W        W43391  16.955  10.193   1.263  0.1898 -0.0004  0.0948
  454W        W43392  16.961   8.070   0.111 -0.0057 -0.1211 -0.1954
  455W        W43393  17.954  10.740   0.383 -0.1466  0.0953  0.2664
  456W        W43394  16.098   7.285   3.556  0.3633 -0.0163 -0.0594
  457W        W43395  17.558   7.413   1.557  0.0735  0.2140 -0.2536
  458W        W43396  17.077   6.808   0.566 -0.1931 -0.1023  0.1442
  459W        W43397  15.725   8.214   2.752 -0.3776  0.0560 -0.1508
  460W        W43398  14.540   8.239   1.801  0.3394  0.3418  0.2346
  461W        W43399  16.132  10.405  31.492  0.1900  0.0268 -0.1202
  462W        W43400  15.005   9.840   0.678  0.0464  0.2680 -0.1857
  463W        W43401  17.719   6.427   3.220  0.1293 -0.2819  0.1103
  464W        W43402  14.836   8.741   2.912  0.1502  0.2893 -0.1896
  465W        W43403  14.078  10.816   0.281  0.0183 -0.3039  0.0101
  466W        W43404  16.094   6.707   1.719  0.3117 -0.0501  0.0905
  467W        W43405  18.290  10.078  31.610  0.1614  0.0663  0.0801
  468W        W43406  14.096   6.596   1.670  0.0481  0.0060  0.1715
  469W        W43407  14.943   6.942   1.515  0.0451 -0.0182 -0.0439
  470W        W43408  16.146  10.265   1.121  0.0351 -0.1285 -0.2598
  471W        W43409  15.784   9.695   1.615 -0.1826  0.2176 -0.3470
  472W        W43410  15.939   8.244   1.740 -0.4788 -0.1813  0.0307
  473W        W43411  18.671  10.332   2.356  0.0045  0.1254  0.1605
  474W        W43412  14.110   9.928   0.709  0.0032 -0.0222  0.1567
  475W        W43413  16.837   7.828   3.270 -0.1846 -0.1065  0.0087
  476W        W43414  15.223   8.194   2.774 -0.1356  0.2103 -0.2080
  477W        W43415  14.743   9.210  31.617  0.0249 -0.2292  0.0035
  478W        W43416  17.059   7.767   2.403 -0.4213 -0.0585  0.2917
  479W        W43417  16.971  12.043   0.880 -0.1622  0.0756  0.0271
  480W        W43418  15.846  11.064   0.568 -0.2651 -0.0333  0.4117
  481W        W43419  15.556   9.829   2.486  0.1010 -0.1196  0.0047
  482W        W43420  15.624  10.804   2.588  0.0810 -0.1298  0.2345
  483W        W43421  13.486   7.512   2.303 -0.1907 -0.2528  0.3598
  484W        W43422  15.849   9.364   1.174  0.1657 -0.2604  0.5701
  485W        W43423  14.374   8.920   3.133 -0.5560 -0.0240 -0.2016
  486W        W43424  19.006  10.389  30.983 -0.0593  0.2651 -0.3682
  487W        W43425  20.229   7.002   3.353 -0.1501  0.0142 -0.3899
  488W        W43426  16.663   9.268   0.614 -0.2645  0.2654 -0.0536
  489W        W43427  14.252   8.033   3.017  0.0929  0.0152  0.0841
  490W        W43428  15.867  11.187   2.090 -0.1368  0.0271 -0.2203
  491W        W43429  18.155   8.693   3.553 -0.0880 -0.0449  0.1537
  492W        W43430  15.169   7.392   1.195  0.0235 -0.1140  0.0489
  493W        W43431  17.456   8.026  31.923 -0.0210  0.2056 -0.3959
  494W        W43432  16.669  10.299   0.211  0.2943  0.1732 -0.2868
  495W        W43433  15.271   9.060   3.057 -0.2062  0.2902  0.1291
  496W        W43434  17.108   7.550   0.301  0.1575 -0.1112  0.2485
  497W        W43435  15.457   8.370   2.319 -0.1794  0.2794 -0.1083
  498W        W43436  16.179  11.371   0.762 -0.0820 -0.6414 -0.2451
  499W        W43437  16.136  11.047   2.568 -0.0908  0.3535 -0.0849
  500W        W43438  15.128   9.529  31.863 -0.0074 -0.0987  0.2029
  501W        W43439  15.158  11.807   3.146  0.0147  0.0675 -0.4821
  502W        W43440  17.856  10.950   3.440  0.0661 -0.2382 -0.1775
  503W        W43441  16.363  10.923   0.913 -0.1481  0.0749 -0.3537
  504W        W43442  16.666   8.205   2.778  0.0605  0.0984 -0.0502
  505W        W43443  14.415   5.895   2.201  0.0527 -0.0172  0.2320
  506W        W43444  15.145   9.060   0.088  0.0670  0.0720 -0.1662
  507W        W43445  17.678   8.615   2.108 -0.0854 -0.2713  0.1215
  508W        W43446  18.061   7.796   1.602 -0.0115  0.1426  0.1619
  509W        W43447  13.498   7.341   1.633  0.1575  0.0619  0.1315
  510W        W43448  15.907   8.609   2.086 -0.0405 -0.1118  0.0197
  511W        W43449  14.334  11.582   1.937  0.2610 -0.0904 -0.0547
  512W        W43450  14.881   7.882   1.804  0.0469  0.1621  0.0856
  513W        W43451  15.842  10.081   6.629 -0.2801  0.1808  0.0980
  514W        W43452  15.080  10.436   3.072 -0.0712 -0.0544 -0.1630
  515W        W43453  17.121   7.073   2.753 -0.2201  0.0807 -0.1625
  516W        W43454  17.053   9.262   3.341 -0.0608  0.1914 -0.1615
  517W        W43455  15.285   8.497   3.671 -0.2177  0.1276 -0.1517
  518W        W43456  17.402  10.469   4.050 -0.1910 -0.0174  0.0413
  519W        W43457  16.049   7.952   6.867 -0.0495 -0.1893 -0.1329
  520W        W43458  16.531  10.247   5.393  0.0026 -0.2609 -0.0322
  521W        W43459  16.053  11.065   4.690  0.1932 -0.2079  0.1732
  522W        W43460  15.300   9.520   3.307  0.2653 -0.0669  0.1645
  523W        W43461  16.446   8.485   4.807  0.1046  0.0290 -0.0464
  524W        W43462  14.167  10.568   5.413 -0.1836  0.3953 -0.1331
  525W        W43463  15.219   7.751   4.252 -0.1297  0.0863 -0.1499
  526W        W43464  15.372   8.291   5.054 -0.1826  0.3607  0.1464
  527W        W43465  17.223   9.756   6.475  0.1871 -0.2812 -0.0101
  528W        W43466  13.713   9.475   3.365 -0.3186  0.1121  0.0773
  529W        W43467  16.123   8.394   5.187  0.0849 -0.0808 -0.1401
  530W        W43468  16.363   8.916   4.491  0.2059  0.3727 -0.4347
  531W        W43469  15.653  10.676   5.848 -0.0999  0.1528 -0.0900
  532W        W43470  15.770   7.488   5.705  0.1804  0.2279  0.2382
  533W        W43471  16.775   7.362   5.910  0.4800 -0.0482  0.0950
  534W        W43472  15.959  10.669   2.923  0.2559 -0.0561  0.1153
  535W        W43473  15.583   8.729   3.996  0.1064 -0.4705 -0.0650
  536W        W43474  13.868   7.816   5.309  0.2074 -0.1389 -0.3208
  537W        W43475  14.717   8.976   5.271 -0.0955  0.0741  0.1944
  538W        W43476  17.211   8.399   5.948  0.1411  0.0636 -0.1734
  539W        W43477  17.491   9.608   6.065  0.1099 -0.1471 -0.0233
  540W        W43478  16.314  11.175   5.978  0.0670  0.1440  0.1525
  541W        W43479  15.345  11.645   4.846 -0.1352 -0.0673  0.0804
  542W        W43480  17.545   8.058   6.106 -0.2988  0.0501  0.2016
  543W        W43481  13.980   8.290   5.408  0.1318 -0.0994  0.1212
  544W        W43482  14.314   9.195   4.105 -0.2281  0.2530 -0.3190
  545W        W43483  16.116   9.473   3.732 -0.2454  0.1470  0.1209
  546W        W43484  17.910  10.781   2.949 -0.1947 -0.1742  0.1679
  547W        W43485  17.574   9.659   4.580  0.2149  0.1478  0.0646
  548W        W43486  16.752  11.374   6.816 -0.3986 -0.1061  0.3671
  549W        W43487  14.557  10.385   3.206  0.0682 -0.0931 -0.0957
  550W        W43488  16.043  10.747   6.107 -0.2217  0.1231 -0.0032
  551W        W43489  15.510   9.798   6.066  0.1986  0.1677 -0.1278
  552W        W43490  15.794   8.665   6.380  0.0649 -0.2046 -0.1799
  553W        W43491  17.023   9.027   5.164 -0.0175 -0.0168  0.3927
  554W        W43492  15.317  10.488   4.255 -0.0616 -0.3955 -0.3608
  555W        W43493  15.444   9.657   4.987 -0.3009 -0.1122  0.4070
  556W        W43494  16.333  10.386   5.986  0.1217 -0.3127  0.0059
  557W        W43495  13.958   9.602   5.092 -0.2233  0.1303  0.0177
  558W        W43496  16.841   9.494   6.771  0.1620  0.0266 -0.0930
  559W        W43497  15.401  11.497   3.868  0.1223  0.0078 -0.2636
  560W        W43498  18.346   8.293   3.885  0.0865  0.1615  0.2029
  561W        W43499  16.241   9.017   3.411  0.2183  0.0634  0.0108
  562W        W43500  15.790   8.748   3.537  0.0329  0.0866 -0.1843
  563W        W43501  15.806   7.186   4.844  0.1623 -0.4251  0.0195
  564W        W43502  15.022  11.199   4.897 -0.0071  0.1571  0.3693
  565W        W43503  16.880   8.343   3.722 -0.5163 -0.0682 -0.1854
  566W        W43504  15.129   9.470   4.635  0.2643  0.1131 -0.2693
  567W        W43505  15.063   9.734   4.257  0.5483 -0.2028  0.3345
  568W        W43506  16.797   9.869   5.756 -0.1440  0.0834 -0.0254
  569W        W43507  15.066   9.920   5.914  0.2092  0.1550 -0.0429
  570W        W43508  14.868   8.069   4.043  0.0071  0.1066  0.0027
  571W        W43509  17.818  10.430   3.381  0.0215  0.2117 -0.1914
  572W        W43510  18.852  10.418   3.932  0.2238  0.1956 -0.1108
  573W        W43511  17.394  10.667   3.143  0.0993 -0.1801  0.2521
  574W        W43512  15.120   8.592   4.219  0.2299  0.0125 -0.0774
  575W        W43513  16.130  10.194   7.039 -0.3354 -0.1258  0.1689
  576W        W43514  14.579   9.981   6.825  0.0195  0.2760  0.0700
  577W        W43515  15.474   6.081   3.829  0.2914  0.0335 -0.0408
  578W        W43516  17.234   8.994   7.365  0.0466  0.3613 -0.1412
  579W        W43517  13.688   9.585   7.277 -0.1314 -0.0237 -0.1167
  580W        W43518  17.914   7.792   5.749 -0.0620 -0.1948 -0.1188
  581W        W43519  13.777   9.442   3.906 -0.1344 -0.0180  0.1251
  582W        W43520  17.580  10.283   6.304 -0.1537  0.0905 -0.0330
  583W        W43521  16.526  10.366   2.317 -0.1370  0.1478 -0.1957
  584W        W43522  17.440   7.820   4.541  0.0647 -0.2337  0.1388
  585W        W43523  16.076   8.542   5.722  0.0671 -0.0718 -0.1197
  586W        W43524  15.482   8.876   2.309  0.3009  0.0482 -0.2672
  587W        W43525  15.341   9.049   4.300  0.0062  0.0209 -0.1566
  588W        W43526  17.769  11.070   5.772 -0.1361  0.0770 -0.0294
  589W        W43527  16.453   9.929   3.114 -0.0580 -0.0665  0.1393
  590W        W43528  15.221  10.074   4.682  0.0410  0.3844 -0.1635
  591W        W43529  15.758   7.371   6.198  0.1671 -0.0766  0.2730
  592W        W43530  16.867  11.592   4.883 -0.3826  0.3667 -0.3114
  593W        W43531  14.738  10.192   2.721 -0.2262 -0.2517  0.2645
  594W        W43532  12.954   8.424   5.706  0.0325 -0.2330  0.0654
  595W        W43533  14.031   8.786   3.970 -0.2071  0.1311 -0.0448
  596W        W43534  15.295   7.777   5.077  0.1098 -0.0754 -0.1170
  597W        W43535  16.417  10.691   5.097 -0.1322 -0.1483  0.0472
  598W        W43536  16.055   7.592   4.735 -0.0730  0.1138  0.2571
  599W        W43537  14.655   6.468   5.219 -0.0608 -0.1187  0.3320
  600W        W43538  16.879   7.781   4.610 -0.1774 -0.0938 -0.1863
  601W        W43539  15.350   9.037   3.526 -0.3537 -0.1075 -0.3152
  602W        W43540  17.110  11.422   3.328  0.1485  0.0684 -0.2324
  603W        W43541  18.651   7.115   4.662 -0.1221  0.2342  0.0403
  604W        W43542  17.795  10.293   2.881  0.0355  0.3260 -0.2501
  605W        W43543  13.345   8.418   5.277  0.0055 -0.0999  0.0450
  606W        W43544  14.511   8.682   4.171 -0.2161  0.1138  0.2789
  607W        W43545  16.254   7.899   6.446 -0.2798  0.0320  0.2249
  608W        W43546  15.830   8.111   4.845 -0.0196 -0.1043 -0.2806
  609W        W43547  16.952  10.012   7.405  0.2644  0.1047 -0.2533
  610W        W43548  15.948   7.465   3.011 -0.1621 -0.1229  0.0473
  611W        W43549  17.851   8.362   3.871  0.0373  0.3499 -0.1024
  612W        W43550  15.518   8.691   4.586 -0.0444 -0.1380  0.1378
  613W        W43551  13.371   8.205   4.466 -0.3752  0.0584  0.2928
  614W        W43552  16.897   8.096   7.250 -0.1053  0.0618 -0.0892
  615W        W43553  15.892  10.641   3.866 -0.2964 -0.2997  0.1086
  616W        W43554  18.663  10.767   6.328  0.1214  0.0411  0.3351
  617W        W43555  16.179  10.548   4.629 -0.1389  0.0837 -0.3330
  618W        W43556  14.437   9.485   5.328  0.0404 -0.2200 -0.1231
  619W        W43557  14.402   8.522   2.854  0.1799  0.0114  0.0873
  620W        W43558  13.520  11.062   4.949 -0.0335  0.0386  0.2528
  621W        W43559  16.772   9.467   5.392 -0.0005  0.1107  0.0463
  622W        W43560  15.515   7.299   5.256  0.1310 -0.0584 -0.0878
  623W        W43561  17.142   9.778   3.530  0.0894 -0.2351  0.0546
  624W        W43562  15.702  11.189   2.875 -0.2016  0.4845 -0.0402
  625W        W43563  14.181   9.934   5.512  0.0184 -0.1499 -0.1138
  626W        W43564  17.647   7.853   5.337 -0.0673  0.0467  0.2406
  627W        W43565  17.866   8.676   5.471 -0.2452 -0.0309 -0.0547
  628W        W43566  16.068   9.479   4.240 -0.2453 -0.2168 -0.1436
  629W        W43567  15.207   7.036   3.889 -0.1543 -0.0412  0.0227
  630W        W43568  15.549  11.884   5.311 -0.0250 -0.0651 -0.0677
  631W        W43569  15.051  10.994   2.784 -0.0167  0.1891  0.0580
  632W        W43570  14.427   7.332   3.952  0.3982 -0.7086  0.3721
  633W        W43571  14.810   9.773   4.893 -0.5167 -0.0984 -0.1663
  634W        W43572  17.278   7.135   5.294  0.3093  0.1850  0.0052
  635W        W43573  16.930   9.113   7.781  0.1204  0.0790 -0.0704
  636W        W43574  16.971   9.235   4.250 -0.0390 -0.3620 -0.3631
  637W        W43575  12.946  10.555   4.432 -0.1387 -0.2429  0.0522
  638W        W43576  14.468  10.442   6.420  0.2968  0.2336 -0.0285
  639W        W43577  15.971   8.038   5.633  0.1057 -0.1730  0.3222
  640W        W43578  18.185   7.730   4.414  0.0718  0.1842  0.1135
  641W        W43579  16.810   9.649   6.216 -0.1068  0.0230 -0.1748
  642W        W43580  17.228  10.012   2.644  0.0373 -0.0195  0.1913
  643W        W43581  16.389   7.568   3.146  0.0636 -0.2059 -0.0770
  644W        W43582  15.919   8.636   2.567 -0.0072 -0.1009 -0.1142
  645W        W43583  14.785  10.025   6.365 -0.0350 -0.1385  0.2950
  646W        W43584  15.844   9.807   4.714 -0.1528  0.2078 -0.0820
  647W        W43585  15.848  11.475   3.652  0.0046  0.0688 -0.1149
  648W        W43586  16.149   7.774   4.101  0.2957 -0.0423 -0.5475
  649W        W43587  18.459  10.503   4.227 -0.1325 -0.2426 -0.0242
  650W        W43588  14.651   9.500   4.423  0.0339  0.2498  0.0530
  651W        W43589  17.691   9.578   5.638  0.0551 -0.1067 -0.0155
  652W        W43590  16.953  10.861   3.066 -0.0451 -0.1607  0.1429
  653W        W43591  16.205   7.937   5.043 -0.2623 -0.0630 -0.0111
  654W        W43592  15.444   8.631   2.787  0.2023  0.0068  0.0329
  655W        W43593  16.029   8.471   4.463 -0.2135 -0.0209 -0.0552
  656W        W43594  14.426  10.709   3.515 -0.2607  0.0749 -0.1713
  657W        W43595  17.214   7.208   6.110 -0.0542 -0.0644  0.2962
  658W        W43596  17.087   8.921   3.779 -0.3188  0.0526  0.0212
  659W        W43597  16.253   7.661   5.911 -0.2529  0.1008  0.0378
  660W        W43598  17.921   9.323   6.822 -0.2472  0.3769 -0.1580
  661W        W43599  17.578   8.295   4.300 -0.1597 -0.1048 -0.0177
  662W        W43600  16.488   9.257   4.198  0.2136 -0.1251  0.0657
  663W        W43601  16.418   8.147   3.319  0.1084 -0.2434  0.2753
  664W        W43602  16.865   5.669   5.198 -0.0194 -0.0687  0.0390
  665W        W43603  14.404   8.321   5.919 -0.2633  0.2786 -0.1937
  666W        W43604  14.325  11.070   5.605 -0.0158 -0.0861  0.1883
  667W        W43605  16.735   9.501   4.748  0.0291  0.2949 -0.0675
  668W        W43606  16.094  10.107   4.307  0.1735 -0.1765 -0.1468
  669W        W43607  17.395   6.306   5.460 -0.0151 -0.1684  0.0302
  670W        W43608  16.309   6.207   3.562  0.1262  0.2486  0.1695
  671W        W43609  15.043  11.819   4.007  0.2305  0.2526  0.0087
  672W        W43610  14.961   9.936   2.320  0.1475 -0.0589  0.0108
  673W        W43611  16.503   7.597   3.673  0.1119  0.4050 -0.0199
  674W        W43612  15.511  10.621   6.339  0.3068 -0.1552 -0.1431
  675W        W43613  16.197  10.830   4.217 -0.0651  0.0554  0.0113
  676W        W43614  17.071  10.169   5.382 -0.0343  0.0992  0.1708
  677W        W43615  14.831  10.900   3.224 -0.2736 -0.1481 -0.0084
  678W        W43616  19.166   7.615   5.480 -0.2127 -0.0068  0.0302
  679W        W43617  13.679   9.798   5.511  0.1647 -0.0826  0.1241
  680W        W43618  14.141   8.250   2.489 -0.1667  0.2886  0.0767
  681W        W43619  14.955   8.812   3.384  0.3002  0.4624  0.1077
  682W        W43620  16.389   8.007   4.568 -0.2163 -0.3503 -0.3976
  683W        W43621  17.600   8.510   4.747  0.1361  0.0776  0.0262
  684W        W43622  15.779   7.775   5.226 -0.1361  0.4373 -0.0353
  685W        W43623  17.064   9.443   5.846 -0.2519  0.0896  0.0452
  686W        W43624  13.865  10.176   5.191  0.0961  0.0861  0.1350
  687W        W43625  18.192   9.874   5.411  0.2543 -0.0178 -0.0037
  688W        W43626  17.371   8.432   3.804 -0.0131 -0.0351  0.2831
  689W        W43627  17.502  10.058   5.626  0.1276  0.0470  0.0895
  690W        W43628  13.341   8.984   5.032  0.3051 -0.0522 -0.1714
  691W        W43629  15.842   6.856   2.931 -0.3913 -0.2990  0.0908
  692W        W43630  17.083   8.109   6.446  0.2967 -0.1288  0.1941
  693W        W43631  15.065   8.585   4.776  0.2028 -0.0063  0.1505
  694W        W43632  12.934  10.079   5.879 -0.0740  0.0671 -0.3665
  695W        W43633  16.010  10.303   5.458  0.1314  0.0764  0.6079
  696W        W43634  14.151  10.228   4.190 -0.0853  0.1714 -0.4187
  697W        W43635  15.006   8.958   3.877 -0.2998  0.0791  0.1557
  698W        W43636  16.803   9.005   5.600 -0.1628 -0.0431  0.1821
  699W        W43637  17.647   8.334   5.205 -0.1676 -0.1364 -0.6083
  700W        W43638  15.205   9.104   5.129  0.0414 -0.1210 -0.1415
  701W        W43639  15.411   8.219   4.089 -0.0002  0.0122 -0.1022
  702W        W43640  15.541   9.187   4.778 -0.2146 -0.0625 -0.2041
  703W        W43641  16.470   9.818   4.104 -0.2072  0.2018 -0.1608
  704W        W43642  17.284   6.491   6.867  0.2169  0.0914 -0.0150
  705W        W43643  16.073   9.322   4.692 -0.0764  0.0419 -0.2195
  706W        W43644  15.144   7.041   5.540  0.3530  0.1051 -0.0690
  707W        W43645  18.754  11.412   4.865  0.1757 -0.0696 -0.1137
  708W        W43646  16.468   8.166   7.040  0.3085 -0.0764  0.1055
  709W        W43647  13.887   8.166   4.562 -0.5167 -0.3860 -0.3954
  710W        W43648  15.907   9.813   5.235  0.0482 -0.0509  0.1522
  711W        W43649  14.769   9.349   3.913 -0.1928  0.4038  0.0370
  712W        W43650  16.504   7.522   5.001  0.3813 -0.0794 -0.2746
  713W        W43651  13.945   9.840   5.964 -0.2042 -0.1152  0.1318
  714W        W43652  14.893   9.520   1.843  0.2064 -0.1710  0.0425
  715W        W43653  13.451   8.292   5.756  0.1332 -0.1300 -0.0171
  716W        W43654  18.701   7.008   3.327 -0.0870  0.1268  0.0646
  717W        W43655  16.472  10.457   2.899 -0.1565 -0.3757  0.1060
  718W        W43656  15.276   9.461   3.882 -0.0424  0.0424 -0.2227
  719W        W43657  17.513   8.345   6.522 -0.3016 -0.0295  0.1123
  720W        W43658  16.763   8.851   3.329  0.2485  0.0380 -0.4047
  721W        W43659  17.603   6.504   5.955  0.0441 -0.0031  0.0471
  722W        W43660  15.550   6.508   5.521 -0.1626 -0.0041 -0.3196
  723W        W43661  15.606  10.159   5.030 -0.0645 -0.2175  0.1210
  724W        W43662  15.233   7.628   5.600 -0.3634  0.0184 -0.1855
  725W        W43663  17.145  10.680   6.181 -0.1712  0.0497 -0.0849
  726W        W43664  14.817   9.482   5.920  0.3197  0.0147 -0.1167
  727W        W43665  16.812   7.103   4.940  0.2147  0.0087 -0.0646
  728W        W43666  15.653   6.537   4.025  0.3818 -0.0002 -0.0956
  729W        W43667  16.753   8.149   5.062 -0.3381  0.0446  0.1393
  730W        W43668  17.637   9.317   5.000 -0.3050  0.0791  0.3133
  731W        W43669  14.413   9.693   4.073 -0.2120  0.0201 -0.0112
  732W        W43670  18.032   8.181   4.481 -0.2635 -0.1892  0.0188
  733W        W43671  15.254  10.060   5.433 -0.1089  0.2801  0.2246
  734W        W43672  17.861  10.217   5.293  0.0875 -0.2068  0.1761
  735W        W43673  15.703  10.796   4.412  0.0300 -0.0877  0.0730
  736W        W43674  13.885   9.022   4.790 -0.0887 -0.2631 -0.2221
  737W        W43675  16.657   7.240   5.414 -0.1052 -0.1160 -0.1906
  738W        W43676  15.788  10.273   4.610  0.1630  0.3109 -0.0290
  739W        W43677  17.162   7.706   6.157 -0.0889 -0.2928 -0.2431
  740W        W43678  17.334   8.791   7.819  0.2848  0.2552 -0.0840
  741W        W43679  16.612   8.825   6.496 -0.1413 -0.2592  0.4014
  742W        W43680  15.100   9.089   5.582  0.2496 -0.0105  0.0146
  743W        W43681  16.192   7.569   5.399 -0.0939 -0.3239  0.5606
  744W        W43682  17.963  10.635   6.459 -0.1590  0.1172  0.0001
  745W        W43683  19.147   7.598   4.186 -0.2209  0.2616 -0.0616
  746W        W43684  17.707   8.600   6.048 -0.0742 -0.1541  0.1835
  747W        W43685  18.084   8.127   5.397 -0.0413  0.1327 -0.2845
  748W        W43686  15.795   9.262   3.367 -0.0763  0.1106 -0.1178
  749W        W43687  15.832   9.326   5.159 -0.1223  0.1537 -0.2329
  750W        W43688  16.847   8.410   6.821 -0.0643  0.1363 -0.2619
  751W        W43689  16.235   7.029   3.174  0.0574  0.0454  0.0558
  752W        W43690  16.651   7.785   6.215  0.2458  0.1243 -0.0182
  753W        W43691  16.494   9.878   3.612  0.3132  0.1353  0.0165
  754W        W43692  15.692  10.008   5.659 -0.0627  0.1101 -0.1641
  755W        W43693  16.530   6.871   4.168  0.2208  0.1541  0.0524
  756W        W43694  15.179   7.878   3.591 -0.0747  0.2076  0.0267
  757W        W43695  15.739  11.393   5.216 -0.0746 -0.1103  0.2305
  758W        W43696  15.065   8.351   3.251 -0.2036 -0.2767  0.2166
  759W        W43697  15.820   9.802   3.419  0.1835  0.1447 -0.0835
  760W        W43698  16.300   9.798   5.559  0.2416  0.0686  0.1476
  761W        W43699  17.630   9.679   6.968  0.3126 -0.0147  0.3249
  762W        W43700  17.221   6.444   3.568 -0.2378 -0.6069 -0.1348
  763W        W43701  17.137   9.066   8.929  0.0176  0.2538 -0.0175
  764W        W43702  13.498   9.372   5.331 -0.0072  0.2866 -0.1019
  765W        W43703  16.229   6.497   4.765 -0.0733 -0.2659  0.0972
  766W        W43704  15.363  10.305   5.911  0.1331  0.3556 -0.1002
  767W        W43705  14.113   9.305   6.091 -0.1752 -0.0743 -0.0021
  768W        W43706  14.371  10.727   4.544  0.1394 -0.1325 -0.1483
  769W        W43707  17.121   8.545   5.079 -0.2086  0.0341  0.1743
  770W        W43708  16.611   8.358   4.261  0.1285  0.2591 -0.2285
  771W        W43709  14.773   8.981   4.469  0.0191 -0.0941 -0.0813
  772W        W43710  18.009   9.360   8.205 -0.1593  0.0616  0.3393
  773W        W43711  16.436  10.094   7.434  0.1317 -0.3173 -0.0421
  774W        W43712  14.645   9.323   4.907 -0.2291 -0.3045  0.0462
  775W        W43713  17.778  12.110   4.927 -0.5732  0.2510 -0.2271
  776W        W43714  18.331   9.559   3.980  0.3113 -0.1086 -0.0602
  777W        W43715  15.869  10.715   4.953  0.0469 -0.1127  0.1900
  778W        W43716  16.075   8.908   5.325  0.1654 -0.1700  0.0556
  779W        W43717  16.594   9.118   7.444  0.1338  0.0001  0.1986
  780W        W43718  15.583   9.502   4.315  0.2876  0.3256  0.3492
  781W        W43719  15.623   7.538   3.451  0.0880 -0.0559 -0.0126
  782W        W43720  15.977  10.121   2.999 -0.1232  0.0814  0.3286
  783W        W43721  15.604   8.729   8.947 -0.3226 -0.0178 -0.3040
  784W        W43722  14.407   8.483   5.356 -0.0034 -0.1851 -0.0989
  785W        W43723  14.652   9.978   4.388 -0.0012  0.2133  0.2502
  786W        W43724  16.838  10.205   3.400 -0.3499  0.0988 -0.1862
  787W        W43725  16.623  10.732   3.407  0.0045 -0.2176 -0.1752
  788W        W43726  17.119  12.527   4.538 -0.1749 -0.1640  0.1592
  789W        W43727  16.299   7.302   4.034  0.3002  0.0591  0.1076
  790W        W43728  14.855  10.263   4.043 -0.1870  0.0016 -0.0400
  791W        W43729  14.939  10.464   3.520 -0.2119  0.1617 -0.2577
  792W        W43730  16.555  11.331   2.601 -0.1340 -0.2048  0.3507
  793W        W43731  15.027  11.317   4.109 -0.0140  0.0283 -0.2341
  794W        W43732  17.928   9.958   5.980 -0.2257  0.1492  0.0503
  795W        W43733  17.729   6.866   3.569  0.2764  0.2108  0.2281
  796W        W43734  17.520  10.599   5.362  0.2798 -0.2221  0.3984
  797W        W43735  18.895   7.772   3.825  0.2140 -0.1849  0.2083
  798W        W43736  15.773  10.231   6.176 -0.2040 -0.2535 -0.1407
  799W        W43737  16.078  10.164   3.677 -0.1980  0.0740 -0.2867
  800W        W43738  15.728   9.771   3.899 -0.1897  0.3191 -0.0265
  801W        W43739  15.400   9.457   5.418  0.1611  0.0649  0.0621
  802W        W43740  18.645   7.692   7.335 -0.5881 -0.1264 -0.0256
  803W        W43741  12.679  13.304   6.064  0.0553  0.2053 -0.1387
  804W        W43742  18.554  10.901   3.956  0.1112 -0.0535  0.0852
  805W        W43743  15.852   8.271   3.780  0.0050  0.1998  0.0938
  806W        W43744  15.848   9.044   4.361  0.1551  0.0713  0.2092
  807W        W43745  17.887   6.371   5.501 -0.1614  0.1299 -0.1469
  808W        W43746  15.555  10.021   4.302 -0.0705 -0.0501  0.0751
  809W        W43747  16.526   9.098   4.958  0.3510 -0.1578  0.4898
  810W        W43748  15.571  11.069   4.813 -0.1388 -0.2234 -0.1190
  811W        W43749  13.651   9.387   5.854  0.0365  0.0228 -0.0307
  812W        W43750  16.398  10.706   5.625  0.0962  0.0733 -0.3215
  813W        W43751  14.983   7.529   3.860  0.3374  0.0413  0.0727
  814W        W43752  16.919   9.662   3.003 -0.1514  0.1270 -0.3065
  815W        W43753  16.756   8.584   5.865  0.1497  0.0452 -0.0135
  816W        W43754  16.927   7.446   6.624 -0.0670 -0.0629  0.0961
  817W        W43755  13.666   8.604   4.740 -0.1857  0.4185  0.0911
  818W        W43756  16.007   7.067   5.307  0.0558 -0.0718 -0.0016
  819W        W43757  15.985   8.801   4.850 -0.0485 -0.1326 -0.0114
  820W        W43758  14.374   9.904   5.006  0.3357 -0.1446 -0.2717
  821W        W43759  15.733   7.505   3.946  0.1673  0.0956 -0.1725
  822W        W43760  17.992   9.350   5.988  0.1436 -0.1524 -0.0488
  823W        W43761  16.599   9.407   3.310 -0.0100  0.0440  0.2810
  824W        W43762  17.291  12.501   6.672  0.2671  0.1836 -0.0814
  825W        W43763  14.087   8.510   4.963  0.0386  0.2671 -0.4879
  826W        W43764  17.472   9.315   3.636 -0.1151 -0.0833  0.0795
  827W        W43765  15.351  10.880   3.142 -0.2401  0.1005 -0.0333
  828W        W43766  16.234  10.181   4.971  0.1888 -0.4943  0.0888
  829W        W43767  17.248   9.687   5.402 -0.0633 -0.2871  0.3251
  830W        W43768  14.030   7.072   5.354 -0.0001 -0.0902 -0.0758
  831W        W43769  17.463   9.297   4.183  0.0957  0.1233  0.3637
  832W        W43770  17.693   8.255   5.666  0.0380 -0.3052 -0.2108
  833W        W43771  15.208  10.930   4.477  0.1805 -0.1430 -0.1438
  834W        W43772  18.434   7.519   4.021 -0.0046 -0.2891 -0.0143
  835W        W43773  16.298  11.886   4.565 -0.1912 -0.2578  0.1617
  836W        W43774  14.831   8.168   4.648  0.3530 -0.0124 -0.1111
  837W        W43775  16.771  10.318   4.940 -0.2492  0.1818 -0.2557
  838W        W43776  17.194  10.560   4.978  0.0859  0.1287  0.1515
  839W        W43777  16.097   8.894   3.903  0.4029  0.0943  0.0661
  840W        W43778  14.241   8.970   5.169 -0.0475 -0.0903 -0.0199
  841W        W43779  13.426   9.282   4.630 -0.1250 -0.0468  0.0662
  842W        W43780  18.181   8.362   5.836 -0.1567  0.4751 -0.0681
  843W        W43781  17.702   8.926   8.172  0.3256 -0.0686  0.0380
  844W        W43782  15.953  10.709   2.088  0.3649  0.5552  0.1828
  845W        W43783  16.628   7.163   6.950  0.1258  0.2587 -0.3615
  846W        W43784  14.184   9.648   4.620  0.1044 -0.1703  0.0090
  847W        W43785  14.991  10.644   6.294 -0.0206 -0.0156  0.0030
  848W        W43786  14.885   9.722   3.107 -0.0643  0.1560  0.0154
  849W        W43787  16.326   9.681   4.963 -0.2084 -0.1650 -0.0182
  850W        W43788  14.765  10.770   4.863 -0.0416 -0.2097  0.2745
  851W        W43789  16.069  11.022   5.298 -0.0525 -0.0307 -0.1439
  852W        W43790  16.863  10.660   5.352  0.2607 -0.2558  0.2869
  853W        W43791  16.595   9.130   3.706  0.0442 -0.1931 -0.0694
  854W        W43792  18.033  10.500   5.713  0.0618 -0.0017 -0.0644
  855W        W43793  15.570   8.756   5.117 -0.0105 -0.0776  0.0592
  856W        W43794  18.216   7.045   4.854  0.1565  0.1135 -0.0399
  857W        W43795  16.662   7.750   4.161  0.2285 -0.5238  0.2109
  858W        W43796  15.873   9.562   6.270  0.0641  0.2221 -0.0244
  859W        W43797  15.174   7.642   3.070  0.0251 -0.2360 -0.2915
  860W        W43798  14.005   9.761   2.518  0.1642  0.0015 -0.0701
  861W        W43799  13.525   7.697   6.523  0.2142  0.0160  0.1354
  862W        W43800  16.405   8.735   7.147 -0.2377 -0.0086  0.0125
  863W        W43801  16.262   8.657   6.191  0.1909  0.1164  0.0643
  864W        W43802  15.535   8.517   3.233 -0.0243 -0.1335  0.0294
  865W        W43803  14.003   9.367   5.496 -0.1298  0.0736  0.0365
  866W        W43804  18.546  10.514   3.597 -0.0724  0.0980  0.1146
  867W        W43805  15.795   8.001   4.373  0.3072 -0.0719 -0.2077
  868W        W43806  14.653   7.193   6.215  0.2460  0.3461 -0.0578
  869W        W43807  17.124  10.298   4.402  0.0111  0.1830  0.1054
  870W        W43808  17.395  10.132   3.133 -0.2005 -0.0464 -0.2656
  871W        W43809  16.560   7.270   4.528  0.2296 -0.3799 -0.0438
  872W        W43810  16.377   8.881   7.954 -0.2741  0.0071  0.0903
  873W        W43811  13.378  10.162   2.264  0.0780  0.0180 -0.2316
  874W        W43812  16.640   9.641   7.594  0.1325  0.0420  0.1433
  875W        W43813  16.926   6.534   5.224 -0.3503 -0.0499 -0.2601
  876W        W43814  13.663   6.912   4.426  0.0711  0.0055 -0.0773
  877W        W43815  16.306   9.343   5.369 -0.0733  0.1144  0.3219
  878W        W43816  17.061   9.743   4.453 -0.2162 -0.0556 -0.3045
  879W        W43817  17.049  10.825   2.515  0.1104  0.2550  0.1226
  880W        W43818  15.168   9.930   3.807  0.3390  0.3296 -0.2207
  881W        W43819  15.392  11.433   6.366  0.3485  0.2177 -0.2377
  882W        W43820  15.708   6.972   5.730 -0.4040 -0.1674 -0.1873
  883W        W43821  16.919   8.760   4.730  0.0320 -0.0626  0.1404
  884W        W43822  14.916   9.645   5.447 -0.0339 -0.3039 -0.2072
  885W        W43823  18.618  10.068   4.233 -0.0637 -0.1250  0.3736
  886W        W43824  16.420   7.289   6.330 -0.0296  0.1037  0.0933
  887W        W43825  17.376   8.422   2.998 -0.2893  0.2310 -0.1731
  888W        W43826  15.537   8.552   5.572 -0.1197  0.1284  0.1368
  889W        W43827  16.272   8.945   5.810 -0.2934  0.0041  0.1720
  890W        W43828  17.941   9.242   5.411  0.0717 -0.1353  0.0796
  891W        W43829  15.375   8.190   4.572  0.1195 -0.1615 -0.1966
  892W        W43830  17.118   7.344   4.618  0.1048 -0.0370 -0.2170
  893W        W43831  17.017  10.153   3.866 -0.0291 -0.0257 -0.1162
  894W        W43832  14.542   8.535   4.793 -0.1164 -0.0532  0.1498
  895W        W43833  17.082   8.063   4.117 -0.0662  0.0261 -0.1293
  896W        W43834  16.340   9.893   6.049 -0.4848  0.0340  0.0575
  897W        W43835  15.932  11.554   4.665  0.2232  0.3587 -0.1136
  898W        W43836  16.979   9.470   7.272 -0.1438  0.0910  0.2649
  899W        W43837  15.557  10.206   3.684 -0.0131  0.0787 -0.0928
  900W        W43838  18.148   9.744   2.654  0.0382 -0.1604  0.0903
  901W        W43839  16.633  11.201   5.188 -0.0037 -0.3436  0.0212
  902W        W43840  17.171  11.113   6.505 -0.0640 -0.1840 -0.2135
  903W        W43841  15.983  11.821   5.664 -0.3356 -0.0032  0.1977
  904W        W43842  16.492   8.609   5.362  0.1378 -0.1128  0.0295
  905W        W43843  16.507   6.851   5.996 -0.3234 -0.0058 -0.2886
  906W        W43844  14.653   9.783   3.671  0.1100 -0.1608  0.2000
  907W        W43845  15.364  10.640   3.707  0.1800  0.1379 -0.1833
  908W        W43846  16.888   9.821   5.084 -0.0022  0.1812  0.3491
  909W        W43847  14.984   8.479   5.252 -0.1090  0.0350 -0.0258
  910W        W43848  16.736   8.824   4.167  0.0926 -0.0162  0.2047
  911W        W43849  16.461   9.884   6.544 -0.1194 -0.3069  0.1073
  912W        W43850  15.336  10.564   4.807  0.1783  0.2402 -0.0970
  913W        W43851  16.230   8.775   9.800  0.1549 -0.2620 -0.0051
  914W        W43852  14.966   9.186   8.355 -0.0003 -0.0184  0.0876
  915W        W43853  17.648   8.918   8.946  0.0446 -0.2078 -0.0885
  916W        W43854  19.001   9.703   7.556  0.3238 -0.1510  0.0553
  917W        W43855  14.945   7.583   9.416  0.2229  0.2653 -0.0892
  918W        W43856  17.354  11.740   7.463  0.0938 -0.2246 -0.1258
  919W        W43857  16.370  11.923   9.725 -0.0788  0.3568 -0.1027
  920W        W43858  16.915  11.862   9.139 -0.3133  0.2703 -0.0956
  921W        W43859  16.544   9.783   7.059 -0.0438  0.1040  0.1843
  922W        W43860  16.934   8.806   9.412 -0.0397 -0.1536  0.0241
  923W        W43861  16.534   8.356   7.563  0.2225 -0.1092 -0.3372
  924W        W43862  15.856   6.182   9.700  0.0001 -0.3136 -0.1962
  925W        W43863  15.740   9.658   7.654 -0.2597  0.1307 -0.3224
  926W        W43864  14.581   8.849   8.606 -0.0153  0.2209  0.0054
  927W        W43865  16.595   9.436   8.649  0.0776  0.2501 -0.3893
  928W        W43866  16.204   9.325   7.723 -0.1735 -0.1424 -0.1653
  929W        W43867  16.717  11.425   7.450 -0.2718  0.1985 -0.1934
  930W        W43868  16.967   6.096   8.633  0.0300  0.0163  0.0728
  931W        W43869  16.679  10.380   7.058 -0.1743  0.0829  0.0430
  932W        W43870  16.465   8.138   5.482 -0.3740  0.0739  0.0181
  933W        W43871  12.157   5.977   9.724 -0.1058  0.0873  0.0231
  934W        W43872  17.565   9.819   8.816  0.2162 -0.0655 -0.2642
  935W        W43873  18.725  10.800   9.361  0.3009 -0.0554  0.1706
  936W        W43874  17.631  11.601   8.923 -0.1783  0.0505  0.2991
  937W        W43875  15.991  11.681   8.111  0.0742  0.2080  0.0363
  938W        W43876  16.602  11.235   8.783  0.0119 -0.0320 -0.1381
  939W        W43877  14.114   9.607   8.849  0.1402 -0.1023  0.2420
  940W        W43878  14.436  11.754   8.420 -0.1595  0.1882 -0.2117
  941W        W43879  16.263  11.421   6.482 -0.0515 -0.1367 -0.0742
  942W        W43880  18.715   9.022   8.246  0.3359  0.2836  0.1920
  943W        W43881  14.409  10.071   7.376  0.0634 -0.2346  0.1199
  944W        W43882  16.424  10.927   9.114  0.0227  0.0057 -0.1684
  945W        W43883  16.460  10.605   8.007  0.0612 -0.0302 -0.0062
  946W        W43884  16.823  10.449   5.834 -0.3202  0.1691 -0.0318
  947W        W43885  18.549   7.437   9.942 -0.2404  0.2163 -0.0515
  948W        W43886  14.680   8.836   9.669 -0.0552 -0.2007 -0.5824
  949W        W43887  15.884  10.623   6.782 -0.3277 -0.0602  0.1779
  950W        W43888  16.454   9.343   6.485 -0.1274  0.2880 -0.1687
  951W        W43889  15.558   8.841   6.757  0.0704 -0.0420 -0.0808
  952W        W43890  18.506   8.396   6.710 -0.0827 -0.1058 -0.3405
  953W        W43891  16.060   8.244   8.380  0.1136  0.2560  0.1838
  954W        W43892  15.091   8.596   9.536  0.4233 -0.3250  0.0220
  955W        W43893  16.339   7.489   8.021 -0.0487  0.1991 -0.0407
  956W        W43894  15.324   9.320   5.898  0.2262 -0.1404  0.2207
  957W        W43895  17.173   8.141   9.784 -0.0890 -0.0388 -0.1262
  958W        W43896  15.604  10.553   8.684  0.1847 -0.0982 -0.1078
  959W        W43897  15.684   8.493   7.394  0.0536 -0.0387  0.0942
  960W        W43898  17.530  10.139   6.750 -0.1629  0.0478  0.3045
  961W        W43899  16.969  10.079   8.709  0.1596  0.1031 -0.3406
  962W        W43900  17.302  10.039   7.792 -0.0302 -0.1913 -0.1053
  963W        W43901  15.490   8.693   7.870 -0.2637 -0.1063  0.0504
  964W        W43902  16.015   6.944   6.147 -0.2368  0.0005  0.1110
  965W        W43903  18.328   8.174   8.033  0.2648  0.3627 -0.0497
  966W        W43904  14.756   9.490   8.107  0.0810  0.0496 -0.1559
  967W        W43905  17.441  11.640   8.271  0.2785  0.2069  0.2393
  968W        W43906  17.709   9.665   7.813  0.4196 -0.1867 -0.0762
  969W        W43907  17.962   8.035   9.405  0.0431 -0.3503  0.1525
  970W        W43908  16.666   9.178   9.110 -0.0954 -0.3549  0.0556
  971W        W43909  15.240   9.403   7.967 -0.3020  0.1426  0.0525
  972W        W43910  16.308   9.649   8.305 -0.0068  0.2212 -0.1848
  973W        W43911  18.472  11.283   9.395 -0.2374  0.1501 -0.1831
  974W        W43912  17.132   9.871   6.946  0.1551  0.0292  0.3172
  975W        W43913  14.403   7.247   9.771 -0.1877 -0.1575 -0.4849
  976W        W43914  14.925  10.300   7.214  0.0128 -0.0223  0.2020
  977W        W43915  13.264   8.746   7.977 -0.0248 -0.0488  0.0413
  978W        W43916  15.768   8.909   5.949 -0.1286  0.1178  0.2177
  979W        W43917  15.604   8.075   9.286  0.1685 -0.5813 -0.0661
  980W        W43918  16.993  11.400   9.478  0.1470 -0.0497 -0.1555
  981W        W43919  18.175   8.256   8.506 -0.1644  0.3631 -0.1300
  982W        W43920  17.775   6.372   9.092  0.0306  0.4333 -0.0862
  983W        W43921  15.578  10.361   7.788  0.1053  0.3104 -0.1053
  984W        W43922  17.518  10.847   8.917  0.0885 -0.2300 -0.1843
  985W        W43923  18.023   8.172   6.708 -0.0246 -0.1134 -0.0006
  986W        W43924  18.320  10.610   6.838  0.2180  0.0816  0.0740
  987W        W43925  13.302   6.405   9.266 -0.1667  0.0529  0.1529
  988W        W43926  13.904   7.400   8.970  0.0431  0.2917  0.2268
  989W        W43927  16.053   8.521   9.006 -0.1685 -0.2446  0.1721
  990W        W43928  15.730   7.926   7.376 -0.1027  0.0906 -0.2682
  991W        W43929  16.721   6.015  10.111 -0.1933  0.3346  0.1473
  992W        W43930  16.371   9.857   8.779  0.2198  0.1585 -0.5398
  993W        W43931  14.524  11.194   8.221 -0.0718 -0.3070 -0.1323
  994W        W43932  16.709  10.168   6.233 -0.2085  0.3115  0.0926
  995W        W43933  19.010  10.985   8.548  0.3137  0.0214  0.0488
  996W        W43934  17.859  10.577   7.467  0.0771 -0.0184 -0.2151
  997W        W43935  15.335   9.025   9.261 -0.1854  0.2320  0.0062
  998W        W43936  15.717   8.245   7.788  0.0661  0.0219  0.0364
  999W        W43937  14.627  11.924   9.295 -0.3198 -0.0337 -0.0776
 1000W        W43938  16.160  11.162   8.122  0.0012 -0.0458 -0.1516
 1001W        W43939  16.806   8.089   5.871  0.1248  0.1927 -0.0601
 1002W        W43940  17.909   9.808   8.386  0.0435 -0.1623 -0.1090
 1003W        W43941  16.586   9.340   8.035  0.2206 -0.0717 -0.0161
 1004W        W43942  17.878   7.713   8.960  0.2311 -0.2940 -0.3677
 1005W        W43943  16.410   9.594   9.464 -0.2461 -0.5329  0.0192
 1006W        W43944  15.946   7.712   8.378  0.1558  0.0607  0.3001
 1007W        W43945  16.957  10.763   7.962  0.3706 -0.1274  0.3030
 1008W        W43946  14.919  11.283   7.960  0.0306 -0.2187  0.0515
 1009W        W43947  13.648   9.546   8.326 -0.0961 -0.0538  0.1043
 1010W        W43948  16.285  10.623   7.557  0.1026 -0.0510  0.0569
 1011W        W43949  19.380   7.892   9.912  0.0151 -0.0934 -0.1064
 1012W        W43950  15.692   9.118   7.625  0.1046 -0.1661 -0.1689
 1013W        W43951  17.807   8.612   8.516  0.1629  0.2616 -0.2151
 1014W        W43952  17.130   8.275   7.680  0.3052 -0.2927  0.1758
 1015W        W43953  16.853   9.604   9.760  0.3470  0.1086 -0.0381
 1016W        W43954  16.881   8.662   7.312 -0.0593 -0.2510  0.1269
 1017W        W43955  17.526   7.967   7.860 -0.2579 -0.1730 -0.0627
 1018W        W43956  16.157   9.659   7.349  0.0872 -0.1518 -0.2461
 1019W        W43957  16.851  10.414   8.306 -0.0566  0.1114 -0.0286
 1020W        W43958  16.074   6.787   7.380  0.0579  0.2799  0.1662
 1021W        W43959  17.337  10.413   8.143 -0.0848  0.1658  0.1322
 1022W        W43960  15.710   7.220   9.770 -0.1719  0.0800  0.1252
 1023W        W43961  17.833  10.364   8.231 -0.0303 -0.2172  0.2360
 1024W        W43962  16.291   8.953   8.895  0.1716  0.0587 -0.0956
 1025W        W43963  16.700   9.064   6.074  0.2428 -0.0740  0.0733
 1026W        W43964  17.433   9.351   9.124 -0.0860 -0.1875 -0.2043
 1027W        W43965  14.859   9.512   6.821  0.0190 -0.0141 -0.2274
 1028W        W43966  19.336   8.763   8.876  0.2897 -0.0991 -0.2703
 1029W        W43967  17.040   9.614   7.811 -0.0675 -0.0133 -0.1552
 1030W        W43968  17.581   9.265   8.597 -0.1271 -0.2020  0.0450
 1031W        W43969  16.442  11.042   9.674  0.1066  0.2677  0.2091
 1032W        W43970  15.451   8.898   7.247  0.2115  0.0332  0.0374
 1033W        W43971  16.839   6.541   8.180 -0.0977 -0.1401  0.0024
 1034W        W43972  15.645  11.138   8.927 -0.0723  0.3881  0.1195
 1035W        W43973  15.855   9.534   8.093  0.0306 -0.4722  0.1132
 1036W        W43974  16.818   8.968   6.917  0.1668 -0.1862  0.1488
 1037W        W43975  15.286  10.550   7.422  0.1756  0.1501 -0.1665
 1038W        W43976  15.153   9.964   6.881 -0.1135  0.1641  0.0707
 1039W        W43977  15.160   7.680   8.536  0.1294 -0.3209 -0.0108
 1040W        W43978  16.305  10.852   6.598  0.1669 -0.0748  0.0663
 1041W        W43979  16.412   9.409   5.880 -0.1132 -0.1016  0.0242
 1042W        W43980  16.561  10.797   8.543  0.1786 -0.0362 -0.0059
 1043W        W43981  16.076  10.314   7.876  0.1073 -0.0011 -0.0087
 1044W        W43982  16.781   8.687   8.970 -0.0146 -0.2700 -0.2304
 1045W        W43983  14.882  10.057   8.796  0.0459 -0.2299 -0.2156
 1046W        W43984  15.475   8.344   6.083 -0.0248  0.1909  0.1053
 1047W        W43985  13.911   9.083   8.243 -0.1440 -0.3165 -0.2298
 1048W        W43986  17.836   6.578   9.856 -0.0841 -0.0094  0.1410
 1049W        W43987  17.380   9.702   7.454  0.2001 -0.3254  0.2120
 1050W        W43988  15.141   8.690   8.570  0.0306 -0.0989  0.0123
 1051W        W43989  16.453   7.985   8.401  0.0412 -0.0332 -0.1008
 1052W        W43990  14.428  10.179   9.431 -0.0518 -0.4169  0.3021
 1053W        W43991  18.256   7.316   7.690 -0.0757  0.0051  0.1235
 1054W        W43992  15.002   9.197   6.403 -0.1449  0.4255  0.2533
 1055W        W43993  18.639   6.953   9.821  0.2658 -0.5569 -0.1962
 1056W        W43994  15.205   6.770   9.793  0.0079 -0.0050  0.0677
 1057W        W43995  13.675   9.560   7.802  0.1845  0.0734  0.1167
 1058W        W43996  16.754  11.191   8.180  0.0824 -0.1176 -0.3690
 1059W        W43997  16.047   9.073   7.241  0.2528  0.2092  0.3500
 1060W        W43998  15.459   9.893   8.031 -0.0075 -0.1097  0.0447
 1061W        W43999  18.776  10.238   9.547 -0.0589 -0.0101  0.2833
 1062W        W44000  16.501  10.025   9.306 -0.3037  0.0054  0.2059
 1063W        W44001  16.158   9.215   8.327  0.1076 -0.1341 -0.1317
 1064W        W44002  16.812   9.666   9.098  0.1253  0.0807 -0.1223
 1065W        W44003  17.437  11.530   9.361 -0.0734 -0.0188 -0.2524
 1066W        W44004  16.526  10.323   8.828 -0.0579  0.1941 -0.3347
 1067W        W44005  17.312   8.691   8.646  0.0841  0.1475 -0.3307
 1068W        W44006  19.713  10.381   7.353  0.0908  0.0506 -0.4295
 1069W        W44007  15.896   9.535   5.752  0.0685 -0.3000 -0.0485
 1070W        W44008  13.518   5.618  12.039 -0.2288 -0.0233 -0.1898
 1071W        W44009  14.599   9.078   6.683  0.2997 -0.6218  0.0198
 1072W        W44010  17.792   7.276   8.014  0.4432  0.2089  0.1315
 1073W        W44011  15.694  10.410   8.233  0.0127  0.2871  0.1050
 1074W        W44012  16.528  11.023   7.730 -0.0889  0.0310  0.0147
 1075W        W44013  15.696  10.945   8.393  0.0794 -0.1040  0.1652
 1076W        W44014  17.320   7.479   7.956 -0.0622 -0.0837  0.1706
 1077W        W44015  18.754  11.256   6.651 -0.1554  0.2932 -0.0241
 1078W        W44016  15.950   9.610   8.621 -0.1386 -0.0805  0.1001
 1079W        W44017  17.391   9.244   7.747 -0.0797  0.1021 -0.0580
 1080W        W44018  16.401   8.496   8.652  0.0096  0.1606 -0.2991
 1081W        W44019  17.448  10.401   8.752 -0.0821  0.3654  0.2676
 1082W        W44020  16.670   8.980   8.504  0.1605 -0.3125 -0.0500
 1083W        W44021  15.424   7.973   6.912 -0.1394 -0.1283  0.0239
 1084W        W44022  15.945  10.933   9.314 -0.4008 -0.0369  0.2960
 1085W        W44023  18.325  10.498   8.703  0.2378 -0.2262 -0.1482
 1086W        W44024  15.933  10.907   7.345  0.0822 -0.3766  0.2412
 1087W        W44025  17.147   8.089   8.507 -0.1253  0.5129  0.0325
 1088W        W44026  15.566   9.710   8.905 -0.1472  0.2408 -0.1544
 1089W        W44027  17.553   9.420   9.656 -0.0189  0.1846 -0.1642
 1090W        W44028  15.214   8.761   5.952 -0.2616  0.0689 -0.1229
 1091W        W44029  16.134  10.974   8.683  0.2809 -0.1761  0.4750
 1092W        W44030  17.412  10.342   9.325  0.0972  0.2558  0.1802
 1093W        W44031  17.244   9.796   9.329  0.2608 -0.0778 -0.0156
 1094W        W44032  16.474  12.520   9.715  0.1814  0.1310 -0.2211
 1095W        W44033  17.873   8.879   7.590  0.1498  0.0055 -0.3207
 1096W        W44034  16.824   8.500   8.400 -0.0667 -0.0165  0.2399
 1097W        W44035  17.958   9.309   9.219 -0.1803  0.1847 -0.3071
 1098W        W44036  16.109   9.099   6.265  0.1854  0.2971 -0.1161
 1099W        W44037  16.075   9.857   9.174 -0.3397 -0.0193 -0.1983
 1100W        W44038  15.832   9.256   6.689 -0.0013 -0.2592 -0.4144
 1101W        W44039  17.089  11.165   5.353  0.0971  0.1507 -0.0651
 1102W        W44040  15.857  10.098   7.472 -0.2588 -0.0426  0.0800
 1103W        W44041  17.719   8.470   7.885  0.1348  0.0899 -0.2434
 1104W        W44042  14.949   7.205   9.790  0.1015  0.1786 -0.0474
 1105W        W44043  15.700   8.287   6.654  0.0074  0.0251  0.3173
 1106W        W44044  16.051   9.710   6.857  0.0124 -0.0595 -0.2692
 1107W        W44045  16.342  11.484   8.449  0.1958 -0.0136 -0.1396
 1108W        W44046  16.143   7.999   7.920 -0.1576 -0.0315 -0.2678
 1109W        W44047  15.644   9.950   7.063  0.0159  0.0522 -0.1215
 1110W        W44048  15.294   6.472   8.472 -0.0862  0.0759  0.0585
 1111W        W44049  17.994  11.312   9.535 -0.0697 -0.2907 -0.2823
 1112W        W44050  15.145  10.458   8.356  0.1327  0.0970  0.5717
 1113W        W44051  16.140   7.314   8.859  0.1940 -0.0074 -0.2657
 1114W        W44052  17.686   8.179   8.830  0.1602  0.1357 -0.0275
 1115W        W44053  16.093   9.294   9.819  0.1211 -0.0016  0.0522
 1116W        W44054  15.552   9.835   9.372  0.0727 -0.1258 -0.0498
 1117W        W44055  17.736   9.797   9.329  0.4642 -0.2855  0.2784
 1118W        W44056  15.926  10.096   8.763  0.1756  0.1721 -0.0817
 1119W        W44057  16.373  12.251   8.608 -0.0112 -0.0314 -0.0525
 1120W        W44058  15.871   9.770   9.753  0.0042  0.3496 -0.1094
 1121W        W44059  17.395   9.187   5.451  0.0710 -0.2137 -0.2660
 1122W        W44060  15.289  10.278   9.617 -0.3353 -0.1463  0.3704
 1123W        W44061  15.296  10.061   7.388  0.1875  0.1451 -0.1369
 1124W        W44062  17.606  11.503   7.809  0.1071  0.3097  0.3124
 1125W        W44063  16.186   9.818   7.831 -0.0347  0.2126 -0.1751
 1126W        W44064  17.711  10.900   9.746  0.0786  0.1294 -0.0474
 1127W        W44065  15.598   9.028   8.250  0.1634 -0.0133 -0.1086
 1128W        W44066  15.421   9.365   9.618 -0.1865  0.2965 -0.1227
 1129W        W44067  15.712   9.444   7.148  0.0613  0.2171 -0.2691
 1130W        W44068  18.607  10.051   6.269  0.2346 -0.0088  0.0310
 1131W        W44069  15.424  10.393   6.771 -0.0043 -0.2132 -0.2764
 1132W        W44070  17.064   7.646   7.025  0.1104 -0.4438  0.1369
 1133W        W44071  17.500   8.910   9.388  0.0912  0.2356  0.3271
 1134W        W44072  18.428   8.686   8.519  0.0271 -0.1503  0.0101
 1135W        W44073  17.010   6.872   5.577  0.0414 -0.2739  0.0630
 1136W        W44074  18.274  10.340   7.656 -0.1186 -0.0986  0.2653
 1137W        W44075  15.956   8.628   8.033  0.1472  0.1888  0.1022
 1138W        W44076  15.729  11.554   8.629  0.0025  0.1916 -0.0910
 1139W        W44077  16.921   6.980   8.476 -0.0799 -0.4486  0.0968
 1140W        W44078  15.268   8.497   6.553 -0.1902  0.0946  0.3584
 1141W        W44079  16.336  10.192   8.325  0.0355  0.2389 -0.1610
 1142W        W44080  16.138  10.645   8.356  0.0463 -0.0384 -0.1156
 1143W        W44081  15.677  11.623   9.130 -0.0031  0.1469 -0.0571
 1144W        W44082  15.999  10.492   9.037  0.1222  0.3475 -0.1196
 1145W        W44083  15.677   7.771   7.872 -0.3231 -0.3219  0.4305
 1146W        W44084  17.204   8.344   9.011 -0.0138  0.0520 -0.2526
 1147W        W44085  12.239   7.736   9.542  0.1819  0.0105 -0.1784
 1148W        W44086  15.451   8.589   9.878 -0.0444 -0.0191  0.1131
 1149W        W44087  17.701   9.330   7.361  0.1575 -0.2661  0.1387
 1150W        W44088  16.889  10.338   9.211  0.2153  0.2999 -0.0261
 1151W        W44089  15.854   9.172   8.776  0.3133 -0.2455  0.2261
 1152W        W44090  16.134   8.655   7.579 -0.2577 -0.0507  0.0606
 1153W        W44091  17.013   8.278   5.462 -0.0778 -0.0915  0.0200
 1154W        W44092  15.686   8.135   8.766  0.1197 -0.1954 -0.2608
 1155W        W44093  16.846   8.677   7.903  0.1763 -0.1925 -0.3150
 1156W        W44094  15.059   8.769   8.087  0.0164 -0.1604  0.1136
 1157W        W44095  16.264   9.433   8.967  0.0427 -0.0426  0.2364
 1158W        W44096  14.351   9.270   8.499  0.0676 -0.1443 -0.2013
 1159W        W44097  18.282   9.723   6.875 -0.1481  0.0913  0.3547
 1160W        W44098  18.621   6.879  11.294 -0.0875  0.0101  0.4888
 1161W        W44099  15.785  10.997   6.442 -0.1372 -0.0186  0.0121
 1162W        W44100  18.394   8.270   9.375  0.0302  0.1158 -0.1689
 1163W        W44101  17.389  11.019   9.370  0.0187  0.0185 -0.1757
 1164W        W44102  15.139   8.172   8.593  0.2284 -0.1908 -0.0493
 1165W        W44103  17.010  11.029   8.541  0.0972 -0.0625  0.0274
 1166W        W44104  18.475   9.373   9.183  0.0730 -0.0010  0.1086
 1167W        W44105  16.996   7.940   8.054 -0.3347  0.2017 -0.0698
 1168W        W44106  15.439   6.805   8.915 -0.0978 -0.0805 -0.0400
 1169W        W44107  14.770  11.355   7.512  0.2298  0.0510 -0.0475
 1170W        W44108  17.350   7.624   9.404 -0.1722 -0.0470 -0.0792
 1171W        W44109  15.495  10.458   5.374  0.0339 -0.2206 -0.0761
 1172W        W44110  13.130   8.055   9.434  0.0276 -0.0860  0.0313
 1173W        W44111  14.893   9.148   7.180 -0.2651 -0.0890  0.0808
 1174W        W44112  15.126   9.002   7.614  0.1223 -0.1259 -0.2124
 1175W        W44113  16.351  11.144   7.281  0.2241 -0.1172 -0.1553
 1176W        W44114  18.939  10.226   7.541  0.0122  0.0906 -0.1095
 1177W        W44115  17.111   8.987   8.274 -0.1220 -0.0506  0.2005
 1178W        W44116  18.166   8.604   8.122 -0.0325 -0.0217 -0.3223
 1179W        W44117  16.849   9.805   8.298  0.0122  0.1993  0.0124
 1180W        W44118  16.913   6.709   9.319 -0.1686  0.1463 -0.0437
 1181W        W44119  16.565   6.902   7.485  0.1163 -0.0774  0.2282
 1182W        W44120  15.100  10.354  11.589  0.5040  0.1219  0.1562
 1183W        W44121  14.503   8.955   7.465  0.0013  0.3989  0.0130
 1184W        W44122  14.046   9.654   6.903  0.0879  0.0644 -0.4533
 1185W        W44123  15.184   8.419   9.077 -0.0317 -0.1739 -0.0159
 1186W        W44124  14.065   8.907   8.676 -0.0860  0.0170 -0.1344
 1187W        W44125  16.130   7.213   8.345  0.2639 -0.0886 -0.4134
 1188W        W44126  17.962   9.741   7.381  0.1224  0.1189 -0.2885
 1189W        W44127  14.517   7.225   8.795  0.3034  0.1810 -0.1199
 1190W        W44128  14.870   6.926   8.951  0.1569  0.0918  0.3178
 1191W        W44129  17.592  10.109   7.263 -0.0049 -0.2923 -0.5694
 1192W        W44130  17.231  10.451   7.590 -0.2107  0.0360  0.1400
 1193W        W44131  15.900   9.983   8.266  0.0781  0.0890  0.1285
 1194W        W44132  13.251   8.699   6.017 -0.0433 -0.1919 -0.2343
 1195W        W44133  15.477   7.775   6.001  0.2083 -0.2443 -0.0757
 1196W        W44134  15.504   9.563   8.419  0.0642  0.1306 -0.1918
 1197W        W44135  17.209  11.017   7.620 -0.1433  0.0676  0.0123
 1198W        W44136  16.764  11.252   6.256  0.0512 -0.1620 -0.3107
 1199W        W44137  16.254   8.195   9.346  0.0638 -0.1586  0.1309
 1200W        W44138  18.077   9.317   7.672  0.0717  0.1293 -0.1581
 1201W        W44139  18.593  10.187   6.813  0.0616  0.1365 -0.0876
 1202W        W44140  19.053   9.272   9.091 -0.1609  0.4027  0.4680
 1203W        W44141  17.381   9.962   8.421 -0.1087  0.3094  0.1350
 1204W        W44142  17.956  10.150   8.717 -0.0307 -0.3138  0.0587
 1205W        W44143  15.466   7.520   9.488  0.1456  0.0532 -0.1444
 1206W        W44144  17.959   7.314   8.686  0.1712  0.2904 -0.0241
 1207W        W44145  17.100   9.603   8.687  0.0670  0.3615 -0.1936
 1208W        W44146  15.567   8.498   8.436  0.2110  0.1162 -0.3096
 1209W        W44147  16.408   9.309   7.007 -0.1137  0.3574 -0.0747
 1210W        W44148  17.022  10.589   8.832 -0.1672 -0.2109 -0.0608
 1211W        W44149  15.543   7.941   8.327 -0.1069 -0.1173  0.0655
 1212W        W44150  18.360   9.673   6.408 -0.0539  0.0737 -0.2368
 1213W        W44151  15.863  10.274   9.467 -0.2286 -0.3098 -0.0948
 1214W        W44152  16.345  11.912   9.137  0.0310 -0.0726  0.2944
 1215W        W44153  18.263   8.714   9.625 -0.0294  0.2359  0.0173
 1216W        W44154  17.095   7.846   8.936  0.0399  0.4440  0.2469
 1217W        W44155  15.493   9.713   6.603  0.0888 -0.0096 -0.0659
 1218W        W44156  16.175   9.086   9.358 -0.2614 -0.2176  0.3189
 1219W        W44157  18.058   9.657   8.892  0.0256 -0.1895 -0.1402
 1220W        W44158  15.966   8.758   8.551  0.0776 -0.0727  0.1520
 1221W        W44159  16.773   7.920   6.740 -0.0500 -0.0556  0.0047
 1222W        W44160  15.782   9.405   9.248 -0.1069  0.2520 -0.3200
 1223W        W44161  19.167   8.018   9.315 -0.2163  0.0927 -0.0013
 1224W        W44162  17.333  12.712   0.450  0.3442  0.1600 -0.0523
 1225W        W44163  15.688  11.479   0.740  0.4042 -0.2968 -0.2166
 1226W        W44164  18.851  11.471  31.064 -0.2500  0.2037 -0.0974
 1227W        W44165  17.928  12.570  31.343 -0.1001  0.0315 -0.0279
 1228W        W44166  15.498  10.911   0.171  0.1777 -0.3155  0.1659
 1229W        W44167  16.280  14.705  30.414 -0.1295 -0.1427  0.1344
 1230W        W44168  15.203  12.155   2.172 -0.1024  0.0768 -0.0923
 1231W        W44169  17.326  13.130   0.809  0.0619 -0.0238  0.4375
 1232W        W44170  17.850  13.875   0.653 -0.1048 -0.1115  0.1027
 1233W        W44171  16.121  13.192  28.675 -0.0695  0.0001 -0.2020
 1234W        W44172  15.103  11.739   1.745  0.0520  0.0034  0.3627
 1235W        W44173  15.380  13.745   2.141 -0.1289 -0.1759 -0.1795
 1236W        W44174  16.639  11.669  31.751  0.3128 -0.2334  0.1114
 1237W        W44175  14.770  11.682   1.392  0.1358  0.2027 -0.1430
 1238W        W44176  18.015  13.391   2.401  0.1543  0.0693  0.2799
 1239W        W44177  14.127  13.572   1.138  0.0342 -0.2695 -0.0194
 1240W        W44178  13.781  12.754   2.056  0.1628 -0.3957 -0.1418
 1241W        W44179  15.633  13.842   0.583 -0.0631  0.0288  0.3580
 1242W        W44180  16.798  15.260   0.714  0.2890  0.1194  0.0035
 1243W        W44181  16.192  11.906   0.731  0.1567  0.2992  0.3090
 1244W        W44182  16.346  10.537   3.809 -0.0048  0.3118  0.1149
 1245W        W44183  16.268  13.312  31.665 -0.4465 -0.1818  0.1481
 1246W        W44184  15.444  12.883  30.683 -0.2132  0.0977  0.3268
 1247W        W44185  13.893  13.234   1.991  0.4680  0.0263 -0.1305
 1248W        W44186  15.299  13.015   2.530  0.0839 -0.1576 -0.1660
 1249W        W44187  17.977  11.037  31.387  0.1978 -0.0027 -0.4546
 1250W        W44188  17.518  12.243  31.428 -0.0681 -0.2361  0.1295
 1251W        W44189  14.831  14.694   1.121  0.0788 -0.0058  0.0578
 1252W        W44190  16.888  12.791   0.101 -0.2721 -0.1310  0.3649
 1253W        W44191  17.899  11.647   2.691  0.2946  0.1519 -0.0793
 1254W        W44192  15.256  14.006  30.953  0.4173  0.0250  0.3867
 1255W        W44193  15.380  14.800   1.562  0.1639 -0.1666  0.1846
 1256W        W44194  16.624  14.615  29.951 -0.0806 -0.1112 -0.2157
 1257W        W44195  17.333  13.119  31.951 -0.0400  0.0125  0.0569
 1258W        W44196  18.724  13.657   1.350  0.2906  0.1487 -0.1653
 1259W        W44197  16.521  14.043   1.329  0.2532  0.0887  0.0614
 1260W        W44198  15.087  13.611  30.055 -0.0412 -0.0468 -0.3246
 1261W        W44199  17.841  13.386   0.775  0.0045  0.2655  0.0488
 1262W        W44200  15.406  14.723   0.762 -0.4044  0.0438  0.0584
 1263W        W44201  16.155  12.837   0.560 -0.3246 -0.0877  0.0206
 1264W        W44202  17.432  13.445   1.183  0.3272 -0.0576  0.0090
 1265W        W44203  15.894  14.004   0.114  0.1729  0.2270  0.2804
 1266W        W44204  18.379  12.241   0.033 -0.1334  0.0589  0.3249
 1267W        W44205  16.566  12.790   1.578  0.1881  0.0171  0.0031
 1268W        W44206  15.120  14.411  31.789 -0.0472 -0.1014  0.1484
 1269W        W44207  15.616  11.021   3.567  0.1100  0.1475  0.2038
 1270W        W44208  15.704  14.244  30.949 -0.3338 -0.4390 -0.0229
 1271W        W44209  18.054  12.096  30.956  0.0217 -0.1794  0.0255
 1272W        W44210  15.848  13.169  30.084  0.0669 -0.0335  0.0252
 1273W        W44211  18.582  12.096  31.079 -0.1001  0.0941 -0.0572
 1274W        W44212  17.146  10.181   0.432  0.2197  0.0031  0.2602
 1275W        W44213  15.924  13.619   1.374 -0.1646 -0.1563  0.0795
 1276W        W44214  16.300  12.698   2.438  0.1385 -0.0854 -0.1850
 1277W        W44215  18.620  14.178   1.248 -0.0292 -0.1466  0.0020
 1278W        W44216  17.255  12.445  31.941  0.3528  0.2070 -0.0922
 1279W        W44217  17.308  11.030   1.029 -0.0891  0.0560  0.1940
 1280W        W44218  13.595  13.241   1.028 -0.4762 -0.4883  0.1094
 1281W        W44219  15.353  12.257   0.798 -0.2367  0.2228 -0.0188
 1282W        W44220  17.074  13.379  29.984 -0.0592 -0.1972 -0.1410
 1283W        W44221  19.748  13.344   1.251 -0.4244  0.1148 -0.0894
 1284W        W44222  16.988  14.696  28.908 -0.0280  0.1912  0.1526
 1285W        W44223  14.323  12.662  31.217  0.1584 -0.3099 -0.0827
 1286W        W44224  15.921  11.673   0.358 -0.0727 -0.2194 -0.1514
 1287W        W44225  13.795  12.302   1.888 -0.0607  0.0274 -0.1785
 1288W        W44226  15.682  14.096  29.144 -0.1678  0.0156  0.0160
 1289W        W44227  18.984  13.572   2.242  0.0060 -0.0314 -0.0176
 1290W        W44228  15.334  14.026   2.667  0.1784 -0.4055 -0.0396
 1291W        W44229  17.286  11.924  30.935 -0.2762  0.2545  0.1999
 1292W        W44230  15.365  13.605  31.293 -0.3894 -0.2120 -0.2662
 1293W        W44231  17.598  14.144  31.886 -0.1402 -0.1542  0.1401
 1294W        W44232  16.081  13.423  30.847  0.1153  0.1601 -0.0924
 1295W        W44233  16.691   9.026   1.895  0.0847 -0.0502 -0.1170
 1296W        W44234  17.605  12.587   1.726 -0.0955 -0.1645 -0.0595
 1297W        W44235  15.668  12.496  31.962  0.1309  0.1849 -0.2665
 1298W        W44236  14.662  13.323  31.900 -0.1073  0.0546  0.0849
 1299W        W44237  18.260  13.419   1.635 -0.0014  0.2021 -0.1140
 1300W        W44238  16.660  13.606  30.205  0.2351  0.0438 -0.1333
 1301W        W44239  15.372  14.402   1.270  0.2906 -0.3092  0.1829
 1302W        W44240  15.932  11.897   3.292 -0.2796 -0.0661 -0.1619
 1303W        W44241  17.817  13.871   1.154  0.2634  0.2586 -0.2240
 1304W        W44242  15.592  14.547  30.163  0.3557 -0.3549 -0.2232
 1305W        W44243  14.232  13.137  31.905 -0.0038 -0.3696 -0.1908
 1306W        W44244  14.115  13.660   0.604  0.4510  0.0300  0.1887
 1307W        W44245  14.410  12.197   0.905 -0.1055 -0.2197  0.1189
 1308W        W44246  15.170  13.116   1.592 -0.0179 -0.2151  0.1656
 1309W        W44247  16.830   9.308  31.783  0.0582  0.0710  0.0404
 1310W        W44248  14.717  11.312   1.836  0.2639 -0.0907 -0.4479
 1311W        W44249  16.435  11.477   0.221  0.2641 -0.0178  0.1578
 1312W        W44250  15.197  12.569   0.337 -0.0478 -0.2116  0.2465
 1313W        W44251  19.094  14.297   0.319 -0.2571  0.1824 -0.0940
 1314W        W44252  16.815  13.079  30.340  0.0288  0.0955 -0.1705
 1315W        W44253  17.089  14.613  30.577 -0.1290 -0.0823  0.3126
 1316W        W44254  14.402  13.246   2.141 -0.1306 -0.2815  0.2653
 1317W        W44255  14.539  11.742   0.832  0.0417  0.0480 -0.0657
 1318W        W44256  14.590  12.070   3.896 -0.0045 -0.1100  0.1586
 1319W        W44257  15.396  12.095   1.324 -0.0289  0.0411  0.0235
 1320W        W44258  17.591  13.093   1.570  0.2102 -0.0797  0.0156
 1321W        W44259  15.430  10.952  30.934 -0.0281  0.0717  0.1251
 1322W        W44260  16.701  12.472  31.738  0.2295 -0.2105  0.1670
 1323W        W44261  16.237  13.074  30.397  0.3604  0.0708 -0.1952
 1324W        W44262  15.067  14.317   0.694 -0.1033 -0.0516  0.2322
 1325W        W44263  18.236  11.798   3.147 -0.0351  0.0718  0.1773
 1326W        W44264  16.819  13.744  29.682 -0.0618 -0.2460  0.2038
 1327W        W44265  17.653  14.566   1.518  0.3025  0.0560  0.0092
 1328W        W44266  18.229  13.612   0.433  0.0847 -0.2430 -0.0873
 1329W        W44267  15.908  11.866   1.284  0.2681  0.2340  0.0432
 1330W        W44268  14.666  12.395  31.485 -0.1512  0.1217 -0.4383
 1331W        W44269  15.664  14.977   1.150 -0.1629  0.1442 -0.2745
 1332W        W44270  16.298  12.361  29.513  0.2004  0.1719 -0.2894
 1333W        W44271  13.843  10.919   1.197  0.1114  0.1558  0.0767
 1334W        W44272  18.742  12.931   0.846 -0.3185  0.0304  0.2784
 1335W        W44273  17.172  12.145  30.516  0.1257  0.0043 -0.0994
 1336W        W44274  15.076  13.544   1.303 -0.2747  0.0397 -0.0651
 1337W        W44275  16.582  10.831   2.370  0.0524 -0.1298  0.1341
 1338W        W44276  17.903  13.263   1.270 -0.1459  0.0429 -0.0886
 1339W        W44277  16.382  12.472   0.863  0.1304  0.0124 -0.2051
 1340W        W44278  15.703  11.730  30.421  0.0974 -0.0099 -0.0754
 1341W        W44279  16.332  13.053  31.160 -0.1187 -0.3241 -0.2941
 1342W        W44280  14.893  13.595  30.887  0.0704 -0.0370  0.0341
 1343W        W44281  14.706  12.341   1.353  0.0572  0.1188  0.0427
 1344W        W44282  16.708  14.947   1.537 -0.0475  0.0873  0.1160
 1345W        W44283  17.020  11.963  31.860  0.2082  0.1146 -0.2290
 1346W        W44284  12.915  13.197   1.836 -0.1387  0.2213 -0.0751
 1347W        W44285  16.795  11.564   1.834 -0.3817 -0.1865 -0.2662
 1348W        W44286  16.670  11.610   0.674  0.0186  0.1562  0.1490
 1349W        W44287  12.826  13.703   1.825  0.2009 -0.4234 -0.0870
 1350W        W44288  15.445  11.151   1.010 -0.1024 -0.0070 -0.1752
 1351W        W44289  18.548  11.321  29.694 -0.1147  0.1477  0.1292
 1352W        W44290  18.277  12.884   0.558  0.1326  0.2757 -0.0538
 1353W        W44291  16.580  13.305  30.754  0.0360  0.0914 -0.2839
 1354W        W44292  17.531  12.348  30.917  0.1746 -0.1052  0.3360
 1355W        W44293  16.005  11.756  29.544 -0.1386  0.1511 -0.3207
 1356W        W44294  14.165  13.052   1.075 -0.1624  0.0988 -0.1689
 1357W        W44295  15.197  13.919   0.350 -0.0583 -0.2305  0.0884
 1358W        W44296  15.861  13.282   0.528 -0.1356  0.0065  0.1725
 1359W        W44297  15.161  12.599  28.965  0.3264  0.0024 -0.2689
 1360W        W44298  18.262  15.015   0.048 -0.0256  0.2149 -0.1762
 1361W        W44299  15.756  12.127  31.244  0.2946  0.0536 -0.0801
 1362W        W44300  16.845  13.019   4.473 -0.0291  0.2403 -0.0658
 1363W        W44301  16.983  14.369   0.636 -0.3621  0.3709 -0.1522
 1364W        W44302  16.531  12.906  31.587  0.3994 -0.1690  0.0645
 1365W        W44303  14.752  11.633  31.925 -0.1136 -0.2097 -0.0186
 1366W        W44304  16.733  10.882   0.058 -0.0068  0.0785  0.2916
 1367W        W44305  13.754  14.201  31.770 -0.3105 -0.2698 -0.1271
 1368W        W44306  18.385  13.060   2.004 -0.0008  0.1188  0.0187
 1369W        W44307  16.482  12.131   1.767 -0.0534  0.0133 -0.0475
 1370W        W44308  15.614  10.381   2.322  0.0209  0.0768  0.0122
 1371W        W44309  17.273  12.067   3.264 -0.0147 -0.1803 -0.1782
 1372W        W44310  16.646  12.517   0.445  0.2910 -0.0447  0.0455
 1373W        W44311  17.119  11.381  31.753  0.0019 -0.0063  0.4499
 1374W        W44312  14.186  10.534  31.466 -0.2475  0.0022  0.0593
 1375W        W44313  16.980  12.425   1.712 -0.0160 -0.0784  0.0684
 1376W        W44314  15.204  13.114   1.078 -0.1289  0.1446 -0.2298
 1377W        W44315  14.545  12.953   2.618  0.1857 -0.1406  0.1384
 1378W        W44316  17.013  13.593   3.312 -0.0840  0.2556  0.1069
 1379W        W44317  18.101  12.478   0.820  0.4621  0.0813 -0.1138
 1380W        W44318  15.155  11.571   2.649  0.1599 -0.2375 -0.2311
 1381W        W44319  15.233  11.304  31.241 -0.0874 -0.1056 -0.7044
 1382W        W44320  15.704  16.036  30.473 -0.0133  0.0494 -0.0754
 1383W        W44321  14.526  13.820  29.775 -0.0074 -0.0030  0.3636
 1384W        W44322  16.320  12.628   0.119 -0.0102 -0.4456 -0.0150
 1385W        W44323  17.588  15.152   2.231  0.3855  0.0542  0.2047
 1386W        W44324  16.604  13.174  29.819 -0.0101  0.2301 -0.1456
 1387W        W44325  17.552  13.210   0.401 -0.3139 -0.3560  0.2489
 1388W        W44326  15.937  14.732   0.768 -0.4064  0.1577 -0.0120
 1389W        W44327  15.983  12.170   2.664 -0.0069  0.2480 -0.3639
 1390W        W44328  14.638  13.748   1.438  0.2582 -0.1853 -0.1751
 1391W        W44329  15.106  13.180  30.964 -0.1567 -0.1377  0.1942
 1392W        W44330  15.259  12.412  30.569  0.0740 -0.3758  0.2374
 1393W        W44331  17.006  11.752  31.398 -0.0865 -0.3392 -0.1585
 1394W        W44332  17.162  12.482  29.541  0.2425 -0.1822 -0.0741
 1395W        W44333  17.225  12.891   1.250  0.0247 -0.0438 -0.1546
 1396W        W44334  17.222  11.521   0.741 -0.2263  0.1278  0.0115
 1397W        W44335  15.602  13.881   1.179 -0.0059  0.1553  0.3133
 1398W        W44336  17.707  12.339   0.430  0.3371  0.1155 -0.0223
 1399W        W44337  16.705   9.793   1.164  0.4871 -0.2242  0.1744
 1400W        W44338  18.223  13.651   0.976  0.0194  0.1845 -0.0566
 1401W        W44339  17.021  12.932   2.353  0.1406  0.2031 -0.0874
 1402W        W44340  16.246  11.256  31.301  0.5018  0.1158 -0.1893
 1403W        W44341  17.027  12.427   2.545  0.0163  0.2689  0.0563
 1404W        W44342  16.532  12.022   0.326 -0.0471 -0.4994 -0.0542
 1405W        W44343  17.436  14.079   0.870 -0.0918  0.1180 -0.1822
 1406W        W44344  16.301  13.509   2.142  0.0509 -0.1984 -0.2420
 1407W        W44345  14.921  13.452   0.313 -0.0398 -0.0532  0.1129
 1408W        W44346  16.280  13.805  31.617  0.4362 -0.0642 -0.0254
 1409W        W44347  14.916  10.931   2.270  0.2464 -0.0956 -0.1079
 1410W        W44348  20.067  12.977   1.276  0.1955 -0.2977  0.2456
 1411W        W44349  15.642  12.795   0.506 -0.1666 -0.0820 -0.2316
 1412W        W44350  16.098  13.446   0.127 -0.0176 -0.1998 -0.1652
 1413W        W44351  16.062  12.242   0.322 -0.2438  0.3696 -0.1948
 1414W        W44352  17.465  12.040   0.147  0.0866  0.0860  0.0218
 1415W        W44353  15.714  12.132   2.270  0.3738 -0.2143  0.3650
 1416W        W44354  15.763  13.822   2.727  0.0713 -0.0204 -0.3193
 1417W        W44355  16.274  11.608   1.611  0.0034 -0.0415 -0.0583
 1418W        W44356  16.429  15.073  30.091 -0.1297 -0.1883 -0.2586
 1419W        W44357  16.672  12.726   2.803 -0.2576 -0.0732  0.0683
 1420W        W44358  15.109  12.183  31.103 -0.1497  0.3051 -0.1550
 1421W        W44359  16.665  14.649   0.226 -0.2435  0.0876  0.1109
 1422W        W44360  16.153  12.592  31.177  0.0126  0.5461 -0.1264
 1423W        W44361  16.338  11.308   2.049 -0.0132 -0.0218 -0.1271
 1424W        W44362  15.529  12.336   1.780  0.0589 -0.1269  0.4195
 1425W        W44363  15.314  13.115  31.400  0.1127  0.3223 -0.1317
 1426W        W44364  13.986  14.367   1.146 -0.0861  0.2300  0.0548
 1427W        W44365  17.519   9.803   0.541 -0.0334  0.0080 -0.0306
 1428W        W44366  15.847  14.093  31.509  0.1622  0.1411 -0.2283
 1429W        W44367  16.511  11.881   1.134  0.1734 -0.0510  0.0700
 1430W        W44368  17.953  12.423   2.051  0.1284  0.2587  0.1831
 1431W        W44369  16.135  13.909  29.568  0.0568 -0.0921 -0.1024
 1432W        W44370  16.835  12.153   2.157  0.0479 -0.1026  0.0635
 1433W        W44371  13.993  11.896   1.765  0.1066  0.1572  0.2894
 1434W        W44372  18.090  13.298  30.260  0.0415  0.1301  0.0582
 1435W        W44373  14.998  12.355   1.734 -0.2251  0.0435 -0.0233
 1436W        W44374  17.077  14.868   2.367 -0.0717  0.3147 -0.2281
 1437W        W44375  15.707  11.934   0.793 -0.0825  0.2406 -0.2100
 1438W        W44376  16.448  11.162  31.775 -0.1430 -0.0697  0.0454
 1439W        W44377  15.530  11.072  31.588 -0.0079 -0.0866 -0.1046
 1440W        W44378  15.408  13.925  31.900 -0.4018 -0.0149 -0.1473
 1441W        W44379  17.682  12.758   0.065  0.2492  0.0109 -0.0197
 1442W        W44380  16.131  12.206  30.448 -0.3918 -0.1827  0.3257
 1443W        W44381  17.387  11.980   0.617  0.0711 -0.1514  0.0945
 1444W        W44382  14.833  13.934   2.608 -0.0029 -0.1525 -0.0656
 1445W        W44383  17.743  11.911  30.661  0.1747 -0.0387  0.0258
 1446W        W44384  16.450  13.091   0.128 -0.0669 -0.0932  0.1923
 1447W        W44385  15.657  13.476   0.916 -0.0426  0.0288 -0.3214
 1448W        W44386  15.531  11.668   2.214  0.2616  0.0235  0.1202
 1449W        W44387  18.361  12.428  31.509  0.0475 -0.1586 -0.1626
 1450W        W44388  17.652  11.426   1.024 -0.1245 -0.0680  0.2314
 1451W        W44389  16.023  12.070   1.804 -0.1718  0.1918  0.1373
 1452W        W44390  17.156  11.616   2.237  0.2233  0.0832  0.1230
 1453W        W44391  15.710  11.998  31.782  0.1694 -0.2209 -0.2385
 1454W        W44392  14.394   9.917   3.205  0.1241  0.0391 -0.0958
 1455W        W44393  17.244  13.793   2.527  0.0081 -0.0653 -0.4476
 1456W        W44394  18.389  10.752  31.383  0.2894  0.1013 -0.2530
 1457W        W44395  17.319  11.693   1.806  0.1218 -0.0719  0.1734
 1458W        W44396  17.425  11.758  31.672  0.1242  0.2176  0.0571
 1459W        W44397  17.002  10.923  31.108 -0.1424  0.3949  0.1086
 1460W        W44398  14.835  12.112  30.611  0.2011 -0.4391  0.0885
 1461W        W44399  17.292  12.981   2.921 -0.1370 -0.6499 -0.0524
 1462W        W44400  15.073  12.595  31.853 -0.0872  0.0392  0.0332
 1463W        W44401  17.531  10.861   1.777 -0.0175  0.1365  0.1456
 1464W        W44402  15.743  13.491  31.749  0.4455 -0.1240  0.0102
 1465W        W44403  16.480  14.129   0.268  0.1473 -0.3259 -0.1169
 1466W        W44404  17.023  12.858  31.588  0.1716  0.1841  0.1685
 1467W        W44405  15.632  10.986   1.525 -0.2509  0.2018  0.0770
 1468W        W44406  15.961  14.620   1.469 -0.0444 -0.0930  0.1227
 1469W        W44407  15.699  13.701  30.063  0.0523  0.0661  0.0161
 1470W        W44408  16.593  14.179  28.599  0.0146 -0.0123  0.1218
 1471W        W44409  16.762  13.665   1.723 -0.0354  0.0174  0.1341
 1472W        W44410  18.929  13.217   1.314 -0.1814  0.0503 -0.1171
 1473W        W44411  16.977  11.714  30.426  0.0653  0.3775 -0.0951
 1474W        W44412  17.449  11.191   3.025 -0.0295  0.0466  0.0536
 1475W        W44413  16.030  14.201   0.608  0.2462 -0.1380  0.2318
 1476W        W44414  17.530  11.172   0.549  0.1691 -0.0719  0.0833
 1477W        W44415  16.175  13.017   2.052  0.0414  0.5031  0.2145
 1478W        W44416  14.268  12.725   2.246  0.0373 -0.0797  0.0185
 1479W        W44417  15.687  14.330   0.933  0.1945  0.1734  0.3561
 1480W        W44418  16.902  10.664   1.019  0.1834  0.2240  0.2397
 1481W        W44419  16.866  13.168   1.431  0.0409  0.5197  0.0891
 1482W        W44420  16.360  12.380   1.355  0.0192  0.1280  0.1178
 1483W        W44421  18.233  12.251   2.938 -0.1700 -0.1285 -0.0689
 1484W        W44422  16.529  13.048   1.060 -0.0247 -0.0528 -0.1974
 1485W        W44423  14.916  12.967   0.330  0.0347 -0.0581  0.1804
 1486W        W44424  15.906  12.687   2.784  0.2463 -0.2182  0.1861
 1487W        W44425  18.488  12.388   0.470  0.2778 -0.3304 -0.1405
 1488W        W44426  16.064  13.843   0.980  0.3450 -0.0528 -0.1240
 1489W        W44427  13.796  12.396   2.367  0.1665  0.0462 -0.0521
 1490W        W44428  18.118  12.932   1.639 -0.1074  0.0379  0.1080
 1491W        W44429  18.727  11.856   0.142  0.2295  0.1296 -0.0200
 1492W        W44430  15.748  10.305   0.740  0.3662  0.1112  0.1811
 1493W        W44431  17.314  13.760   0.105 -0.0232 -0.0005 -0.1703
 1494W        W44432  15.026  13.701   4.345  0.2304  0.0263 -0.1268
 1495W        W44433  15.601  11.835   1.704  0.0871  0.1295 -0.1335
 1496W        W44434  14.731  14.117  31.045 -0.2010 -0.0081  0.0993
 1497W        W44435  19.249  13.195  31.457 -0.4354 -0.0118 -0.1821
 1498W        W44436  17.845  12.335  31.841  0.1798 -0.2405  0.1006
 1499W        W44437  16.413  14.461   1.631 -0.2017  0.2106 -0.1129
 1500W        W44438  16.511  11.785  30.641 -0.0861 -0.1218 -0.5432
 1501W        W44439  16.818  15.491   1.804  0.2193  0.0307  0.0075
 1502W        W44440  14.434  13.848  28.185  0.0602 -0.2822 -0.0430
 1503W        W44441  16.877  13.265  31.809 -0.5256 -0.1505  0.2731
 1504W        W44442  15.564  14.414   0.419 -0.3336  0.1107  0.1803
 1505W        W44443  17.916  12.274   2.538  0.2212 -0.0859  0.0791
 1506W        W44444  16.217   9.929   1.750  0.1970 -0.0732 -0.0411
 1507W        W44445  18.167  12.410   1.601 -0.3849 -0.3083 -0.1467
 1508W        W44446  18.721  12.049  31.636 -0.0302  0.3001  0.1490
 1509W        W44447  17.090  13.375   2.180  0.0302 -0.0774  0.0760
 1510W        W44448  15.042  11.407   2.179 -0.1637  0.2258  0.0375
 1511W        W44449  16.334  12.066  31.321 -0.1226  0.2090  0.0028
 1512W        W44450  15.812  12.641   2.213  0.3967 -0.0215 -0.2862
 1513W        W44451  17.538  10.611   2.174 -0.1254  0.1069 -0.2832
 1514W        W44452  14.620  13.586   3.056 -0.0146 -0.2762 -0.0697
 1515W        W44453  17.111  14.165  30.943 -0.1426  0.0809  0.1667
 1516W        W44454  15.855  12.958   0.107 -0.4180  0.1937  0.1943
 1517W        W44455  15.107  12.607   1.300  0.3825  0.0457 -0.2864
 1518W        W44456  17.828  10.315   1.285 -0.0491  0.2846  0.0505
 1519W        W44457  18.093  14.207  29.254  0.2337  0.5615 -0.1466
 1520W        W44458  18.089  12.584   0.243 -0.1385 -0.2826  0.1077
 1521W        W44459  15.089  15.363   0.551  0.0734  0.1708  0.1440
 1522W        W44460  15.804  12.832   0.993 -0.1341  0.1483  0.3382
 1523W        W44461  16.454  13.601   1.105  0.0223 -0.1681 -0.0628
 1524W        W44462  14.972  13.260  30.409  0.1643 -0.4230  0.0458
 1525W        W44463  19.219  12.114   2.250 -0.0462 -0.2486  0.0561
 1526W        W44464  14.112  12.726   2.754 -0.1499 -0.0719  0.0413
 1527W        W44465  17.815  11.975   1.726  0.0746  0.0854 -0.2739
 1528W        W44466  16.193  11.869  31.878  0.0116 -0.1154  0.2423
 1529W        W44467  18.321  11.152  31.674  0.1609 -0.3000 -0.2844
 1530W        W44468  16.103  13.293   0.996  0.0244 -0.1387 -0.3794
 1531W        W44469  15.261  12.662   2.124  0.0846  0.0681 -0.1019
 1532W        W44470  16.686  12.233  30.361 -0.2180 -0.1626 -0.0491
 1533W        W44471  18.988  12.627   3.871  0.0660 -0.1661  0.1761
 1534W        W44472  15.916  12.182  29.774  0.1305  0.0106 -0.1952
 1535W        W44473  17.924  14.836   1.169  0.0679 -0.0954 -0.2533
 1536W        W44474  15.646  13.145   1.302 -0.0802 -0.1072  0.0317
 1537W        W44475  18.442  11.587  31.244  0.1177  0.0280 -0.1048
 1538W        W44476  14.812  14.359   0.224  0.1286 -0.2071 -0.0115
 1539W        W44477  17.480  12.442   0.917 -0.0190 -0.4532 -0.0192
 1540W        W44478  16.968  13.360   2.780  0.1089 -0.2347 -0.2763
 1541W        W44479  14.552   9.798   0.917 -0.0698 -0.0460  0.2335
 1542W        W44480  15.873  13.665  31.229  0.1908  0.0077  0.2520
 1543W        W44481  17.788  12.818   0.671 -0.1589  0.1417 -0.1574
 1544W        W44482  15.406  14.268  30.503  0.2753  0.0457 -0.1039
 1545W        W44483  18.853  11.428   0.739 -0.2610 -0.1039 -0.1101
 1546W        W44484  17.556  15.137   1.087  0.3443  0.1052  0.3245
 1547W        W44485  15.304  11.188   0.542 -0.2189 -0.2809  0.0252
 1548W        W44486  17.394  14.645   0.993  0.0373  0.1827 -0.2587
 1549W        W44487  18.628  15.123   1.578  0.2415  0.0604  0.0073
 1550W        W44488  14.508  12.212   0.009 -0.0621  0.0277  0.0568
 1551W        W44489  15.289  13.153   0.581 -0.3550 -0.2203 -0.3916
 1552W        W44490  13.253  14.143   1.172  0.1186 -0.1803  0.2175
 1553W        W44491  17.655  11.321  31.789 -0.3544 -0.3441  0.2190
 1554W        W44492  16.809  11.890   3.509  0.1740 -0.3782  0.1910
 1555W        W44493  14.259  13.813  30.995 -0.2053  0.1695 -0.3822
 1556W        W44494  18.410  10.416   1.470 -0.2354  0.3463 -0.1978
 1557W        W44495  17.406  12.268   2.059 -0.0631 -0.2236  0.1598
 1558W        W44496  13.746  12.774   1.487 -0.4446 -0.0907 -0.3530
 1559W        W44497  14.883  12.960  31.647 -0.1011 -0.2254 -0.1086
 1560W        W44498  15.477  14.165   3.269  0.2052  0.1713  0.0881
 1561W        W44499  16.137  12.384  31.709 -0.1217 -0.2798  0.1489
 1562W        W44500  15.375  15.416  30.301 -0.0608 -0.0859 -0.0854
 1563W        W44501  16.491  13.970   0.753  0.2713  0.0252 -0.1801
 1564W        W44502  17.087  12.122  30.023 -0.2302 -0.0724  0.0570
 1565W        W44503  19.196  13.575   0.900  0.0058  0.2230 -0.1332
 1566W        W44504  17.036  12.254  31.473 -0.3022 -0.1728  0.0910
 1567W        W44505  17.880  12.010   0.855 -0.1370  0.1172 -0.1579
 1568W        W44506  17.893  11.847   0.035 -0.0341 -0.0459 -0.2399
 1569W        W44507  16.877  13.411   0.940  0.1289 -0.1312  0.4852
 1570W        W44508  14.018  13.522  31.355  0.2263 -0.1336 -0.0595
 1571W        W44509  15.664  13.982  29.631 -0.0621  0.2261 -0.0398
 1572W        W44510  14.885  14.825   0.620  0.0012 -0.1372  0.1094
 1573W        W44511  15.963  11.521   2.540  0.0573  0.1232 -0.1414
 1574W        W44512  14.310  12.120   2.263 -0.0224 -0.1605  0.0668
 1575W        W44513  14.759  13.372   1.770  0.0348 -0.0398  0.0461
 1576W        W44514  14.658  11.238   1.105 -0.3703  0.2278 -0.2080
 1577W        W44515  16.893  12.453  30.770 -0.1506  0.1247  0.1457
 1578W        W44516  14.252  11.047   1.482 -0.2065  0.0947  0.3123
 1579W        W44517  16.221   9.393   2.039 -0.0381  0.3853 -0.0869
 1580W        W44518  17.759  13.588   0.172 -0.2116  0.0647 -0.0147
 1581W        W44519  18.877  13.986  31.668 -0.0098 -0.0931 -0.1085
 1582W        W44520  16.021  10.612   1.450 -0.0521 -0.2018  0.0882
 1583W        W44521  19.160  13.727   3.411 -0.0061 -0.1202  0.0279
 1584W        W44522  16.335  13.753  31.090 -0.1737  0.2016  0.4271
 1585W        W44523  16.527  13.156   2.498  0.0631  0.1373  0.3750
 1586W        W44524  15.474  11.584   1.170 -0.0809  0.2055  0.1891
 1587W        W44525  14.226  11.595  31.925 -0.0125  0.0793  0.1755
 1588W        W44526  16.860  11.946   1.461 -0.0711 -0.0120  0.0819
 1589W        W44527  18.360  13.116   1.159  0.1672  0.1263  0.0883
 1590W        W44528  17.066  12.261   0.394  0.1848 -0.1564 -0.1418
 1591W        W44529  14.462  13.288   1.384 -0.2394  0.0513 -0.1202
 1592W        W44530  16.010  13.525   3.301 -0.2837  0.1410  0.2234
 1593W        W44531  13.855  11.033   2.453  0.0487  0.0873 -0.2082
 1594W        W44532  15.833  12.776  30.413 -0.0812 -0.1581  0.1470
 1595W        W44533  15.014  13.395   2.226  0.3814  0.3968 -0.0895
 1596W        W44534  17.764  11.625  29.937 -0.0714  0.0251  0.2279
 1597W        W44535  18.073  12.015  31.486  0.1774 -0.2766  0.2672
 1598W        W44536  16.629  12.507  31.266  0.1826  0.0365  0.0883
 1599W        W44537  14.429  10.201   3.695  0.0833  0.0443  0.1193
 1600W        W44538  14.567  11.912   2.875  0.2606 -0.0675  0.0427
 1601W        W44539  17.657  13.605   1.614  0.1247  0.1437  0.0795
 1602W        W44540  15.880  12.932  30.878  0.1873  0.3983 -0.1724
 1603W        W44541  14.929  12.070   0.982  0.1906  0.3485  0.0191
 1604W        W44542  16.869  13.855   0.442  0.2871  0.1027  0.2534
 1605W        W44543  14.208  12.558  31.698 -0.0348  0.0168  0.4600
 1606W        W44544  13.800  11.272   1.566 -0.3057 -0.2824 -0.1277
 1607W        W44545  16.970  12.598   0.806 -0.1224  0.2367 -0.2674
 1608W        W44546  17.310  13.638   0.665  0.1038  0.3274 -0.2246
 1609W        W44547  17.073  12.883   1.823 -0.0145  0.3351  0.0130
 1610W        W44548  17.069  13.319   0.314 -0.2372 -0.0479  0.0233
 1611W        W44549  19.503  11.491   0.126  0.2107  0.1185  0.0637
 1612W        W44550  17.181  14.781   1.499 -0.0377  0.1287 -0.0034
 1613W        W44551  18.345  14.360   4.660 -0.1908  0.2351  0.1185
 1614W        W44552  18.055  13.182   0.194 -0.2644  0.0561  0.0135
 1615W        W44553  16.823  12.486   1.238  0.0329  0.0512  0.0307
 1616W        W44554  14.816  12.022   3.466  0.0150 -0.3840 -0.0031
 1617W        W44555  16.802  12.011  30.977 -0.0435  0.0271  0.2312
 1618W        W44556  17.150  12.586  31.139  0.2226  0.3440 -0.0619
 1619W        W44557  16.087  12.586   1.788 -0.1175 -0.4523  0.0280
 1620W        W44558  15.088  11.296   1.387  0.1458 -0.1694  0.0654
 1621W        W44559  16.672  11.822  30.074  0.0825 -0.0018  0.0395
 1622W        W44560  16.188  14.932  31.733 -0.1991  0.0974  0.2487
 1623W        W44561  16.668  12.632   2.090 -0.0376 -0.1474  0.0097
 1624W        W44562  15.706  14.772   6.830  0.4107  0.0155  0.0342
 1625W        W44563  14.756  12.382   5.132 -0.0903 -0.3370  0.4795
 1626W        W44564  16.428  11.806   2.222 -0.1450  0.1602  0.2346
 1627W        W44565  17.324  13.049   4.221 -0.0401 -0.3896 -0.4849
 1628W        W44566  14.976  10.765   3.975  0.0377 -0.1613 -0.0067
 1629W        W44567  16.371  13.392   4.365  0.1396  0.0668 -0.1186
 1630W        W44568  14.746  10.945   5.797  0.2428 -0.2682  0.2219
 1631W        W44569  17.276  13.652   4.313 -0.1365  0.0152  0.0711
 1632W        W44570  17.267  13.249   5.310 -0.0024 -0.0657  0.0940
 1633W        W44571  16.866  11.851   2.609 -0.0187  0.3542 -0.1190
 1634W        W44572  17.303  13.439   6.631 -0.1902 -0.0362 -0.3297
 1635W        W44573  15.217  12.704   4.465  0.2223 -0.1843  0.2083
 1636W        W44574  14.928  10.288   5.063  0.1911  0.0906 -0.0261
 1637W        W44575  14.659  10.652   5.373  0.0123  0.0478 -0.1275
 1638W        W44576  17.778  12.882   5.879  0.1211 -0.1480 -0.0816
 1639W        W44577  14.348  11.993   3.326  0.2579  0.3498  0.1924
 1640W        W44578  15.289  12.400   5.309 -0.0392  0.5762 -0.2026
 1641W        W44579  16.445  12.702   3.267 -0.4023  0.1859 -0.2345
 1642W        W44580  15.668  14.733   3.614  0.0334 -0.1709  0.1792
 1643W        W44581  16.564  12.232   6.290  0.0975 -0.1020 -0.1160
 1644W        W44582  16.328  10.334   6.547 -0.0367  0.3577 -0.1719
 1645W        W44583  15.986  12.867   3.739 -0.2895 -0.0492  0.3123
 1646W        W44584  15.069  12.389   3.206 -0.1376  0.1591  0.0137
 1647W        W44585  14.267  11.981   4.311  0.0580 -0.1217  0.0370
 1648W        W44586  15.474  13.332   5.087  0.1713  0.1990  0.0773
 1649W        W44587  16.398  12.264   5.759 -0.0438 -0.2938  0.1984
 1650W        W44588  16.895  13.218   5.011  0.1217 -0.3249  0.2618
 1651W        W44589  14.970  14.653   4.745 -0.1440 -0.1244 -0.0721
 1652W        W44590  17.059  13.932   4.914  0.2130 -0.0445  0.1819
 1653W        W44591  16.313  12.764   7.223 -0.0177 -0.2912  0.0667
 1654W        W44592  15.050  13.644   4.847 -0.0018  0.0509 -0.0618
 1655W        W44593  13.351  14.757   5.243  0.0763  0.3586  0.3396
 1656W        W44594  15.537  13.169   3.328  0.3059 -0.1867  0.3007
 1657W        W44595  16.110  15.405   3.998  0.0163  0.0333 -0.2313
 1658W        W44596  16.375  15.225   4.881 -0.3392 -0.0743  0.1547
 1659W        W44597  15.303  14.309   6.069 -0.1411  0.2366  0.0084
 1660W        W44598  14.673  13.912   3.834  0.0409 -0.0097 -0.2180
 1661W        W44599  16.536  14.091   5.217  0.1607  0.4060  0.1413
 1662W        W44600  16.105  13.939   5.033  0.0253  0.0418 -0.1072
 1663W        W44601  15.756  12.349   5.575  0.0012 -0.3365 -0.2329
 1664W        W44602  15.063  13.195   4.220  0.2332 -0.0595 -0.6431
 1665W        W44603  17.014  14.326   1.697  0.0254  0.1184  0.2592
 1666W        W44604  17.990  13.852   4.840  0.1787 -0.1251  0.1196
 1667W        W44605  16.355  13.643   6.792 -0.0072  0.2759  0.0981
 1668W        W44606  13.237  13.518   5.133 -0.0332  0.0444 -0.1580
 1669W        W44607  17.497  10.699   6.569  0.0944  0.0978  0.1977
 1670W        W44608  15.334  13.517   2.559  0.1852 -0.0316 -0.1996
 1671W        W44609  16.868  13.348   4.139  0.2207  0.2484 -0.0054
 1672W        W44610  16.234  13.151   2.911  0.2906 -0.1226  0.2893
 1673W        W44611  16.338  11.774   2.767  0.0186 -0.0187  0.0310
 1674W        W44612  14.484  11.930   5.275  0.0182  0.0887 -0.1678
 1675W        W44613  15.380  13.414   4.576  0.2122 -0.1413  0.1498
 1676W        W44614  15.096  11.362   5.824 -0.1365 -0.0187  0.1726
 1677W        W44615  16.788  15.645   5.955  0.0440  0.1093  0.0171
 1678W        W44616  17.298  11.703   2.886 -0.1144  0.0716  0.1943
 1679W        W44617  17.114  11.702   6.729  0.0208  0.1087  0.1534
 1680W        W44618  16.413  13.712   5.527  0.0968 -0.1401 -0.1392
 1681W        W44619  14.092  13.155   5.117 -0.1510 -0.0585  0.2903
 1682W        W44620  18.241  13.630   2.881  0.1587 -0.0432 -0.0290
 1683W        W44621  17.515  13.994   4.015 -0.0736 -0.2748 -0.2668
 1684W        W44622  15.357  13.985   1.572 -0.1669  0.2859 -0.2678
 1685W        W44623  13.876  13.162   3.082 -0.2164  0.1410 -0.1089
 1686W        W44624  15.032  11.735   6.457  0.1787  0.0270  0.1418
 1687W        W44625  14.231  13.013   6.007 -0.0816 -0.2761  0.1857
 1688W        W44626  14.372  11.178   2.190  0.0121 -0.0227 -0.0502
 1689W        W44627  18.628  14.105   5.974 -0.2969  0.0085 -0.2060
 1690W        W44628  13.385  13.743   6.847  0.0969  0.2402 -0.1606
 1691W        W44629  17.064  12.011   4.803  0.2797 -0.0307  0.1567
 1692W        W44630  16.077  14.070   5.604 -0.0054  0.0797 -0.2184
 1693W        W44631  17.770  13.595   7.028  0.1637  0.2587 -0.0508
 1694W        W44632  16.779  13.060   3.171 -0.2007 -0.2000  0.0047
 1695W        W44633  16.616  11.228   3.392 -0.0757  0.2281 -0.2922
 1696W        W44634  16.319  13.244   6.506  0.1033 -0.2119 -0.2842
 1697W        W44635  15.371  13.652   3.019  0.1397 -0.1841 -0.1666
 1698W        W44636  14.745  12.391   2.182  0.0594 -0.1151 -0.2574
 1699W        W44637  16.024  14.840   4.918  0.2319  0.0424  0.0752
 1700W        W44638  17.592  13.664   2.204  0.2158 -0.1658  0.0245
 1701W        W44639  14.591  14.029   4.905  0.0032 -0.1971 -0.1716
 1702W        W44640  15.270  11.457   5.338 -0.2115 -0.0404 -0.3667
 1703W        W44641  15.510  13.265   7.564  0.2516  0.0032  0.1454
 1704W        W44642  15.398  14.648   2.294 -0.0133 -0.1157  0.0345
 1705W        W44643  16.006  13.126   4.208 -0.1874  0.1733 -0.1944
 1706W        W44644  13.218  14.271   3.769 -0.3243  0.0726  0.1517
 1707W        W44645  13.303  11.511   5.893 -0.0987  0.2649  0.1388
 1708W        W44646  16.095  13.037   5.098 -0.1703 -0.1468  0.1655
 1709W        W44647  16.560  12.112   5.050 -0.1841 -0.0053  0.2301
 1710W        W44648  14.183  10.526   5.982  0.2696 -0.1115  0.1418
 1711W        W44649  17.846  10.588   4.442 -0.0532  0.3753 -0.0761
 1712W        W44650  15.048  13.526   3.854 -0.5110 -0.2018 -0.1680
 1713W        W44651  18.784  14.516   4.349 -0.0539 -0.4337  0.1069
 1714W        W44652  16.689  12.370   3.537 -0.1438 -0.0478 -0.0362
 1715W        W44653  15.753  12.732   3.297 -0.2083  0.1007 -0.4596
 1716W        W44654  15.124  12.806   5.055  0.0947  0.1393  0.0033
 1717W        W44655  15.056  12.768   5.554 -0.4074  0.0799  0.0191
 1718W        W44656  15.484  11.017   5.468 -0.2301  0.3420 -0.2521
 1719W        W44657  12.880  12.939   5.429  0.2610  0.1267  0.3747
 1720W        W44658  17.076  12.644   5.949  0.1125  0.0685  0.0339
 1721W        W44659  15.089  12.029   5.002  0.3083 -0.3478  0.2683
 1722W        W44660  17.082  13.793   3.899  0.0302  0.1744  0.0132
 1723W        W44661  16.358  13.158   3.443 -0.0651 -0.3822  0.4253
 1724W        W44662  14.985  13.140   4.744 -0.0736 -0.0893  0.0886
 1725W        W44663  18.003  11.050   7.128 -0.0996 -0.2086  0.1353
 1726W        W44664  16.569  14.161   1.963  0.0173 -0.2014  0.2050
 1727W        W44665  16.318  14.571   5.652  0.1046 -0.1359  0.1811
 1728W        W44666  17.221  14.305   2.719 -0.2982 -0.1719 -0.2287
 1729W        W44667  14.650  11.580   5.627 -0.0627  0.0188  0.2756
 1730W        W44668  14.800  12.534   3.656 -0.1381 -0.0866 -0.1099
 1731W        W44669  13.467  15.466   4.497 -0.1616  0.1915 -0.5200
 1732W        W44670  14.492  14.605   4.488 -0.1179  0.0496  0.3189
 1733W        W44671  16.428  11.368   4.505  0.2861  0.0218  0.0768
 1734W        W44672  17.941  14.288   5.043  0.4571 -0.0262  0.2232
 1735W        W44673  16.538  13.475   3.107  0.0465 -0.0749  0.1101
 1736W        W44674  14.555  13.625   4.569  0.0808 -0.0279  0.0393
 1737W        W44675  17.481  11.383   5.494 -0.0394  0.2606 -0.0869
 1738W        W44676  17.171  11.251   5.994 -0.2853 -0.1448  0.0017
 1739W        W44677  16.187  14.273   6.061  0.1080  0.1725 -0.0285
 1740W        W44678  15.130  12.097   2.751 -0.1791 -0.1673 -0.0240
 1741W        W44679  16.986  14.035   4.348  0.0128  0.3171 -0.0929
 1742W        W44680  15.031  13.996   3.066  0.0932  0.0355 -0.1284
 1743W        W44681  12.691  12.054   5.055 -0.0049  0.2902 -0.0037
 1744W        W44682  16.022  14.280   4.207  0.0116 -0.3616 -0.0725
 1745W        W44683  17.391  11.680   5.065 -0.5656 -0.0246 -0.2762
 1746W        W44684  14.255  11.917   5.747  0.0014 -0.1511  0.1946
 1747W        W44685  17.860  11.643   6.562 -0.2851 -0.3011  0.1733
 1748W        W44686  15.467  12.430   2.562 -0.1066 -0.1407  0.0518
 1749W        W44687  14.520  13.999   6.356  0.3633 -0.2545 -0.2079
 1750W        W44688  16.710  12.699   5.035 -0.0983  0.0538  0.1982
 1751W        W44689  15.940  12.830   4.603 -0.5101 -0.2200  0.0334
 1752W        W44690  17.002  14.439   5.174 -0.2149  0.0665 -0.2604
 1753W        W44691  18.383  13.736   3.403 -0.3024  0.1170  0.0797
 1754W        W44692  16.592  12.078   3.969  0.0708 -0.0001  0.0951
 1755W        W44693  16.011  11.033   3.265  0.5456 -0.3781  0.1457
 1756W        W44694  13.613  13.448   6.499  0.0696 -0.0269 -0.1852
 1757W        W44695  16.506  13.838   4.077 -0.2192  0.4123  0.2038
 1758W        W44696  15.607  13.693   3.522 -0.1414  0.0687 -0.2174
 1759W        W44697  16.228  12.259   2.197 -0.0508 -0.1983 -0.1151
 1760W        W44698  18.311  13.704   3.958  0.1029 -0.2938 -0.0092
 1761W        W44699  13.942  12.832   5.646  0.0138  0.3540  0.2890
 1762W        W44700  17.769  14.012   6.144 -0.0455 -0.2829  0.4128
 1763W        W44701  16.249  13.473   3.784 -0.0617 -0.3098 -0.0841
 1764W        W44702  15.838  12.559   5.049  0.1932  0.5367  0.0206
 1765W        W44703  15.404  12.745   3.000 -0.1078  0.0058  0.0941
 1766W        W44704  16.288  11.595   5.017 -0.3801  0.0335 -0.2080
 1767W        W44705  13.694  14.991   3.656  0.0429 -0.1081  0.1465
 1768W        W44706  15.098  12.342   5.888  0.0126 -0.0573  0.0651
 1769W        W44707  16.487  11.885   5.451  0.0484 -0.1230  0.0235
 1770W        W44708  15.799  11.145   5.898  0.3904  0.0566  0.2216
 1771W        W44709  17.771  13.040   7.433  0.2438 -0.1685 -0.1427
 1772W        W44710  16.520  13.768   3.464 -0.0993  0.0132  0.1782
 1773W        W44711  16.932  13.593   5.357 -0.2818 -0.1669 -0.0626
 1774W        W44712  15.830  12.436   0.747 -0.3540  0.1761 -0.4749
 1775W        W44713  17.209  10.054   6.009  0.0370 -0.2615 -0.5002
 1776W        W44714  14.425  12.226   6.158  0.0765  0.1710 -0.1019
 1777W        W44715  14.266  13.382   5.540 -0.7042  0.1978 -0.0381
 1778W        W44716  16.312  13.271   7.110 -0.3368 -0.0543 -0.4207
 1779W        W44717  18.105  12.853   3.766  0.2549  0.1819  0.0577
 1780W        W44718  16.580  11.809   6.593 -0.0287  0.1829  0.1327
 1781W        W44719  16.668  10.395   4.341 -0.0206  0.1156  0.0196
 1782W        W44720  16.170  14.003   3.073 -0.0006 -0.2182  0.0844
 1783W        W44721  17.832  14.774   1.989 -0.3104  0.0770 -0.1495
 1784W        W44722  14.009  11.817   5.253 -0.0628  0.1326 -0.1899
 1785W        W44723  13.588  13.175   5.376 -0.3290 -0.0262 -0.3388
 1786W        W44724  16.330  13.280   1.527 -0.1435 -0.1886 -0.1122
 1787W        W44725  16.974  13.751   5.857  0.1926 -0.2065  0.0313
 1788W        W44726  15.357  13.139   2.046 -0.1648  0.3322 -0.3864
 1789W        W44727  17.321  10.875   5.724  0.4185  0.3470  0.0844
 1790W        W44728  15.073  14.177   4.585 -0.3163  0.1580  0.0248
 1791W        W44729  15.202  12.226   3.641  0.0394  0.2089 -0.3843
 1792W        W44730  13.711  12.946   2.546 -0.2705  0.1095  0.1790
 1793W        W44731  15.002  12.250   4.186 -0.0377 -0.3933  0.1589
 1794W        W44732  18.425  12.756   4.746  0.0307  0.0229  0.1795
 1795W        W44733  15.858  12.238   6.069 -0.2859 -0.0066  0.1692
 1796W        W44734  16.738  11.519   3.929  0.0120 -0.3349 -0.0774
 1797W        W44735  14.061  13.258   6.569  0.0470 -0.0664  0.1485
 1798W        W44736  16.843  12.063   5.779  0.2549  0.2709  0.0185
 1799W        W44737  16.150  11.060   3.738 -0.2061  0.0275  0.3071
 1800W        W44738  17.992  16.472   5.288  0.3203  0.0385  0.1028
 1801W        W44739  16.260  12.148   7.002  0.1057 -0.0027  0.1227
 1802W        W44740  14.703  11.476   2.512  0.2854 -0.3622  0.2490
 1803W        W44741  17.943  11.527   5.548 -0.1187  0.0290  0.0745
 1804W        W44742  13.837  12.196   4.172 -0.2067 -0.1091 -0.0894
 1805W        W44743  13.562  13.359   4.391  0.0235  0.2912  0.0178
 1806W        W44744  15.890  13.516   4.753  0.2188 -0.1066 -0.1937
 1807W        W44745  15.363  13.086   3.781  0.2600 -0.0359 -0.0850
 1808W        W44746  15.774  12.452   1.366 -0.3011 -0.0354 -0.2709
 1809W        W44747  15.073  11.855   5.649 -0.0412 -0.1806 -0.3126
 1810W        W44748  16.805  13.575   4.581 -0.0788  0.1288  0.1417
 1811W        W44749  15.365  12.592   3.953 -0.2648  0.2127 -0.1164
 1812W        W44750  15.490  12.056   3.999 -0.1161 -0.0326  0.1636
 1813W        W44751  16.400  12.559   3.907 -0.3490  0.0519  0.0426
 1814W        W44752  17.356  13.783   6.244  0.0988 -0.3751  0.3212
 1815W        W44753  17.546  11.741   6.947 -0.1062  0.0202  0.0081
 1816W        W44754  16.252  14.094   6.497  0.4268 -0.1208 -0.2691
 1817W        W44755  16.555  10.891   4.622 -0.3079  0.2182 -0.1957
 1818W        W44756  18.492  13.867   1.981  0.1361  0.1438  0.2564
 1819W        W44757  17.789  13.097   6.902 -0.0712 -0.0776  0.1312
 1820W        W44758  14.498  13.428   3.602 -0.0598  0.0197  0.2547
 1821W        W44759  13.655  13.390   4.886 -0.1594 -0.5049  0.0797
 1822W        W44760  16.362  14.345   3.370 -0.0391 -0.0283 -0.1170
 1823W        W44761  14.677  12.594   4.692 -0.1421 -0.1637 -0.1049
 1824W        W44762  15.011  13.237   5.355  0.1209 -0.3569 -0.1317
 1825W        W44763  15.088  13.875   3.516  0.0698  0.0564  0.0795
 1826W        W44764  15.389  13.782   5.306  0.3559 -0.0717 -0.1806
 1827W        W44765  17.027  12.079   4.157  0.0434 -0.2883 -0.1753
 1828W        W44766  15.432  13.496   1.700  0.0062  0.1807 -0.1866
 1829W        W44767  16.068  12.148   4.166  0.3100  0.0881 -0.2198
 1830W        W44768  18.273  11.066   5.698  0.1548  0.1151  0.2697
 1831W        W44769  17.155  12.311   3.744  0.2902 -0.1562  0.0331
 1832W        W44770  17.514  12.618   7.645  0.3060  0.0984  0.0727
 1833W        W44771  16.799  11.001   5.803  0.0926  0.1352 -0.0811
 1834W        W44772  17.394  13.407   3.842  0.0143 -0.0760 -0.0024
 1835W        W44773  13.628  11.776   5.595 -0.1310  0.0994 -0.1371
 1836W        W44774  17.717  14.680   5.231 -0.0649 -0.0017  0.0070
 1837W        W44775  13.301  12.898   6.080 -0.0528  0.0728  0.4050
 1838W        W44776  17.074  10.770   3.586 -0.2496 -0.1802  0.1770
 1839W        W44777  15.387  11.384   3.181 -0.2282 -0.0622  0.0714
 1840W        W44778  15.413  12.391   4.830 -0.0915 -0.0077  0.1484
 1841W        W44779  18.519  14.586   5.107 -0.1624 -0.0817 -0.1880
 1842W        W44780  15.848  13.116   2.440  0.0754  0.1550  0.0707
 1843W        W44781  18.450  12.767   4.117  0.1414 -0.0011  0.1347
 1844W        W44782  14.626  12.932   5.225  0.0778 -0.0988  0.3663
 1845W        W44783  16.089  12.144   5.267 -0.1786 -0.0444  0.1270
 1846W        W44784  15.036  12.575   2.690  0.4472  0.1753  0.2149
 1847W        W44785  15.518  12.950   4.804  0.1452 -0.2587 -0.0038
 1848W        W44786  15.851  12.482   7.089  0.3138 -0.0242 -0.0459
 1849W        W44787  16.289  12.600   5.345 -0.0559  0.0521 -0.1174
 1850W        W44788  15.866  12.028   4.857 -0.2250  0.2792  0.4029
 1851W        W44789  16.613  12.689   5.792  0.2258  0.0712 -0.1253
 1852W        W44790  16.048  13.440   7.517  0.0449 -0.1342  0.0983
 1853W        W44791  13.355  12.699   5.592  0.0502 -0.0715 -0.0421
 1854W        W44792  15.558  11.587   5.746  0.3949 -0.2636 -0.1675
 1855W        W44793  17.092  15.215   5.620  0.2856 -0.0383 -0.0111
 1856W        W44794  15.786  10.556   3.365 -0.2331 -0.0198 -0.4299
 1857W        W44795  17.461  11.037   5.054  0.0664 -0.1948 -0.2757
 1858W        W44796  17.611  12.312   4.489  0.1743 -0.0942  0.1300
 1859W        W44797  17.587  12.388   3.469  0.0755 -0.0918  0.0463
 1860W        W44798  14.638  12.994   4.348 -0.0062 -0.0354  0.1866
 1861W        W44799  18.885  13.786   7.031 -0.4557  0.1622 -0.2616
 1862W        W44800  15.499  11.801   3.489  0.1005 -0.2530 -0.3292
 1863W        W44801  17.084  10.250   6.555  0.2907  0.1035 -0.2560
 1864W        W44802  15.789  13.879   1.830 -0.1007 -0.1091  0.0205
 1865W        W44803  16.422  13.070   4.752  0.2326 -0.0386  0.0638
 1866W        W44804  16.673  12.350   4.608 -0.1154 -0.0866  0.2893
 1867W        W44805  14.827  11.598   5.047 -0.1433 -0.0519 -0.0214
 1868W        W44806  14.531  14.989   7.379 -0.0582 -0.1336 -0.1945
 1869W        W44807  14.095  11.456   2.535  0.2521  0.1003 -0.1093
 1870W        W44808  15.578  12.250   3.155 -0.0821 -0.0771  0.0949
 1871W        W44809  16.882  12.353   5.376 -0.0869  0.1139  0.1294
 1872W        W44810  18.533  14.462   7.251  0.1420 -0.0457 -0.1173
 1873W        W44811  16.757  11.634   3.069 -0.0933  0.0252  0.0370
 1874W        W44812  17.209  12.123   7.084 -0.0511 -0.2249  0.2808
 1875W        W44813  14.912  12.782   4.022  0.0154  0.2156 -0.0475
 1876W        W44814  14.586  12.450   5.584  0.2930  0.1483 -0.1663
 1877W        W44815  16.007  14.326   4.707  0.0884 -0.2116 -0.2065
 1878W        W44816  12.880  13.773   5.422  0.0006 -0.1605  0.3391
 1879W        W44817  15.818  12.585   4.125  0.2221 -0.1912 -0.1504
 1880W        W44818  15.898  11.243   4.258 -0.0118  0.1937 -0.0551
 1881W        W44819  16.961  11.789   5.338  0.4176  0.1652  0.1037
 1882W        W44820  16.797  13.033   6.263  0.0947  0.0946  0.0034
 1883W        W44821  17.287  13.281   4.651  0.1310  0.0356 -0.3156
 1884W        W44822  14.936  14.934   6.153  0.2941 -0.0435 -0.1391
 1885W        W44823  17.099  13.381   6.131  0.1617  0.3656 -0.1159
 1886W        W44824  16.834  14.538   6.165 -0.1929 -0.1355  0.0715
 1887W        W44825  16.498  14.121   2.572  0.0398  0.0686 -0.2751
 1888W        W44826  13.544  12.041   5.165  0.1370 -0.2406 -0.0470
 1889W        W44827  14.057  12.414   5.888  0.0070  0.3247 -0.0452
 1890W        W44828  17.038  13.596   7.523  0.0988  0.3074 -0.3798
 1891W        W44829  15.755  14.466   5.782 -0.1605  0.1290 -0.1577
 1892W        W44830  15.716  12.378   3.640 -0.0953  0.4105 -0.1498
 1893W        W44831  16.645  14.258   3.772 -0.1959 -0.1860 -0.0537
 1894W        W44832  15.370  13.321   6.469  0.2925 -0.0891 -0.3598
 1895W        W44833  13.560  12.529   5.189  0.0885 -0.1209 -0.1097
 1896W        W44834  15.486  13.692   4.038 -0.0999  0.1692  0.1303
 1897W        W44835  15.901  14.468   3.201  0.0187  0.0853  0.2167
 1898W        W44836  15.653  12.252   4.425  0.4552  0.1173  0.1024
 1899W        W44837  16.826  14.870   4.805  0.0836 -0.0322  0.0138
 1900W        W44838  15.429  11.012   4.027  0.0443  0.0612 -0.1558
 1901W        W44839  15.166  14.107   3.984  0.2675 -0.1319 -0.3230
 1902W        W44840  13.822  14.053   3.187  0.1007  0.2377  0.0730
 1903W        W44841  17.669  13.255   4.974  0.1009 -0.0769 -0.1672
 1904W        W44842  16.717  13.662   2.434 -0.0920  0.1952 -0.1311
 1905W        W44843  18.415  16.246   6.743 -0.2687 -0.0872 -0.0135
 1906W        W44844  18.098  11.155   3.920  0.0139 -0.1677 -0.1703
 1907W        W44845  16.883  12.566   4.119  0.0180  0.1308  0.3885
 1908W        W44846  17.449  12.550   4.109  0.3368  0.1492  0.1804
 1909W        W44847  17.377  13.627   5.643 -0.1136 -0.0717 -0.3670
 1910W        W44848  16.409  13.537   4.953 -0.1563 -0.3694 -0.1318
 1911W        W44849  16.284  11.633   3.564 -0.2352 -0.2383  0.0190
 1912W        W44850  13.086  13.326   5.710  0.0621  0.0194  0.1124
 1913W        W44851  17.945  11.530   6.038 -0.2147  0.2344  0.0681
 1914W        W44852  15.263  13.622   6.841 -0.0972 -0.0458  0.2697
 1915W        W44853  16.754  15.013   2.765  0.3616  0.0902  0.3514
 1916W        W44854  13.290  13.098   2.183  0.1871 -0.0277 -0.0349
 1917W        W44855  14.836  13.061   3.642  0.1302  0.0818  0.0784
 1918W        W44856  18.034  12.685   7.067 -0.1628  0.3248  0.0857
 1919W        W44857  17.384  12.030   2.497  0.1174  0.0119  0.0073
 1920W        W44858  14.323  12.166   4.828  0.0525  0.2320 -0.2001
 1921W        W44859  15.198  14.564   3.670 -0.0568  0.1815  0.0416
 1922W        W44860  15.518  13.011   4.257  0.0487 -0.0647 -0.0678
 1923W        W44861  15.560  13.890   4.853  0.0876 -0.2575 -0.3394
 1924W        W44862  14.698  11.018   4.310  0.0184  0.2915  0.1603
 1925W        W44863  18.116  12.496   5.420 -0.3337 -0.0287 -0.0678
 1926W        W44864  13.832  12.432   4.747 -0.5334 -0.2622  0.0363
 1927W        W44865  16.703  11.492   5.717  0.0670  0.0867  0.0528
 1928W        W44866  14.642  13.455   4.102 -0.2316  0.0421 -0.2072
 1929W        W44867  16.186  12.168   3.657 -0.1440 -0.2063  0.2574
 1930W        W44868  17.335  13.224   7.200 -0.2040  0.3105 -0.0413
 1931W        W44869  14.869  12.260   6.323  0.2316  0.0535  0.1457
 1932W        W44870  15.652  12.844   1.716 -0.0367 -0.0626 -0.0020
 1933W        W44871  17.882  13.717   5.619  0.2120 -0.1812  0.1808
 1934W        W44872  16.491  12.267   2.671 -0.2682 -0.0885 -0.2332
 1935W        W44873  17.614  14.579   6.924  0.4064  0.1860 -0.2377
 1936W        W44874  13.970  11.887   4.761 -0.1498  0.1016  0.3456
 1937W        W44875  16.239  11.460   3.120 -0.3343 -0.1028 -0.0682
 1938W        W44876  14.920  13.270   2.873  0.0630  0.1696 -0.1898
 1939W        W44877  15.693  13.295   6.083 -0.2261 -0.0754  0.0107
 1940W        W44878  16.476  13.740   7.462 -0.1486  0.0581 -0.1038
 1941W        W44879  14.415  10.379   4.964  0.1242 -0.2148 -0.1790
 1942W        W44880  18.331  14.140   2.784  0.0965 -0.0129 -0.0483
 1943W        W44881  17.783  12.759   5.077 -0.1747 -0.0725 -0.0570
 1944W        W44882  17.478  12.993   2.088  0.3485 -0.1553  0.2675
 1945W        W44883  17.050  15.802   2.698  0.2060 -0.0390 -0.0442
 1946W        W44884  16.087  14.464   5.233  0.2100  0.0022 -0.2830
 1947W        W44885  14.481  11.679   4.621  0.1052  0.2235 -0.1006
 1948W        W44886  17.462  14.274   5.090  0.1534 -0.3112  0.1194
 1949W        W44887  17.721  13.424   4.401 -0.0301  0.1561 -0.2175
 1950W        W44888  16.951  10.741   4.126  0.3576  0.2249 -0.1025
 1951W        W44889  16.423  12.748   4.364  0.0081 -0.2603 -0.1104
 1952W        W44890  14.552  14.756   4.007  0.0565 -0.1114 -0.1323
 1953W        W44891  17.379  12.310   5.109 -0.1055  0.1170 -0.1308
 1954W        W44892  17.156  11.403   7.182  0.3019  0.0642 -0.0505
 1955W        W44893  16.748  12.983   0.597 -0.0128 -0.0743  0.0118
 1956W        W44894  17.641  11.952   6.123  0.2456 -0.1370 -0.1473
 1957W        W44895  16.200  13.117   6.021  0.0327 -0.0599 -0.2702
 1958W        W44896  17.325  16.082   6.589 -0.0825  0.0986 -0.2961
 1959W        W44897  14.622  14.285   2.887  0.3809  0.0933  0.1319
 1960W        W44898  16.572  13.501   6.041 -0.4509 -0.0431 -0.0047
 1961W        W44899  16.001  13.505   5.274 -0.2261  0.3008 -0.1952
 1962W        W44900  17.185  13.414   1.691  0.3135  0.2635 -0.1089
 1963W        W44901  19.252  13.584   5.654  0.0711 -0.0691  0.1807
 1964W        W44902  17.340  12.489   2.935 -0.2594  0.0785  0.2404
 1965W        W44903  20.757  13.538   5.834 -0.0833 -0.0279 -0.1106
 1966W        W44904  15.487  11.464   4.416  0.0997  0.0445  0.1831
 1967W        W44905  17.837  11.064   4.707  0.1971  0.0243 -0.4830
 1968W        W44906  16.876  11.202   2.252 -0.2883  0.0706  0.0491
 1969W        W44907  16.469  13.086   5.405 -0.3928  0.2314  0.3795
 1970W        W44908  14.587  13.487   2.526 -0.0460  0.0307 -0.3273
 1971W        W44909  14.126  13.271   2.667 -0.1267  0.0229  0.2970
 1972W        W44910  14.581  13.415   5.093 -0.1053  0.1920  0.0575
 1973W        W44911  16.266  11.432   5.500  0.1831  0.0863 -0.4768
 1974W        W44912  15.416  12.450   6.323  0.1729  0.1475  0.0230
 1975W        W44913  13.668  11.722   4.135  0.0544 -0.2144 -0.1825
 1976W        W44914  14.355  12.923   3.810 -0.2131 -0.1287 -0.0252
 1977W        W44915  16.771  13.301   3.669 -0.1908 -0.1552  0.0539
 1978W        W44916  14.582  10.175   5.416  0.2322  0.1818 -0.2076
 1979W        W44917  15.116  10.697   5.695 -0.0248  0.3498  0.0726
 1980W        W44918  18.093  12.529   4.490 -0.1058 -0.1471 -0.1718
 1981W        W44919  17.537  13.248   2.548  0.1477 -0.1131 -0.2273
 1982W        W44920  16.271  11.618   4.064  0.1969 -0.1913 -0.1531
 1983W        W44921  18.834  15.868   6.917  0.0757 -0.2456 -0.0480
 1984W        W44922  13.661  14.107   3.629 -0.2204 -0.1488  0.0525
 1985W        W44923  15.910  11.516   6.169 -0.1518 -0.0622 -0.0331
 1986W        W44924  17.156  12.217   6.192 -0.4568  0.0403 -0.3793
 1987W        W44925  14.735  12.090   4.540 -0.0957 -0.0815  0.4758
 1988W        W44926  15.285  11.897   4.452 -0.1513  0.0824  0.1790
 1989W        W44927  15.675  15.054   2.366 -0.1937  0.1238  0.2274
 1990W        W44928  17.040  13.922   2.028 -0.1136 -0.0606 -0.1600
 1991W        W44929  17.612  13.809   5.152 -0.0453  0.0060 -0.0621
 1992W        W44930  15.555  14.314   6.697 -0.0337  0.1986 -0.0689
 1993W        W44931  14.027  11.470   5.932 -0.0266 -0.0517  0.0340
 1994W        W44932  17.245  13.165   3.415 -0.0665  0.2157  0.0507
 1995W        W44933  14.841  13.706   5.425  0.1295  0.2621 -0.1621
 1996W        W44934  18.269  13.273   3.523  0.0519  0.2952 -0.1342
 1997W        W44935  16.997  10.990   4.894  0.0462 -0.0396  0.0321
 1998W        W44936  16.207  12.399   4.705  0.1885  0.1378  0.1774
 1999W        W44937  14.176  11.803   6.297  0.1629 -0.0448 -0.2147
 2000W        W44938  15.643  14.248   5.297  0.0478 -0.0550 -0.3360
 2001W        W44939  17.528  14.044   4.654  0.0660 -0.0009  0.4074
 2002W        W44940  16.083  12.381   3.179 -0.0858 -0.2458  0.1922
 2003W        W44941  17.656  11.366   3.731  0.1744  0.3276 -0.4072
 2004W        W44942  16.797  14.627   3.442  0.1080 -0.0061  0.2045
 2005W        W44943  14.416  13.869   5.371  0.0214 -0.2742 -0.0435
 2006W        W44944  16.431  11.995   3.187 -0.2931  0.2076 -0.3616
 2007W        W44945  16.063  12.813   6.785  0.3788  0.1727  0.1723
 2008W        W44946  16.959  14.073   3.420  0.0846 -0.2914  0.0007
 2009W        W44947  16.857  13.212   5.727 -0.0703 -0.1216  0.1734
 2010W        W44948  16.786  12.819   3.666  0.4464  0.3277 -0.1597
 2011W        W44949  17.733  12.120   2.959 -0.1291 -0.0431 -0.2200
 2012W        W44950  15.689  14.752   5.294  0.2648  0.2200 -0.1751
 2013W        W44951  17.816  14.466   4.534 -0.0970  0.0924  0.2741
 2014W        W44952  14.731  15.071   4.363 -0.0692  0.0371 -0.1059
 2015W        W44953  15.972  13.694   4.109  0.0926  0.0243 -0.3876
 2016W        W44954  14.794  11.196   5.305 -0.0198 -0.1120  0.2503
 2017W        W44955  15.299  12.685   3.513 -0.0980 -0.3615 -0.1159
 2018W        W44956  15.649  14.161   3.819 -0.2015  0.2879  0.3192
 2019W        W44957  17.542  12.509   6.241  0.0959 -0.1246 -0.0116
 2020W        W44958  15.806  11.752   4.248 -0.0939  0.1532 -0.2044
 2021W        W44959  17.740  11.205   4.222 -0.1552 -0.6083 -0.0241
 2022W        W44960  14.293  13.977   5.868  0.1981 -0.0343 -0.1896
 2023W        W44961  17.086  13.014   6.776 -0.0211 -0.0407  0.0322
 2024W        W44962  14.633  11.704  10.303  0.1596 -0.1153  0.1564
 2025W        W44963  15.759  11.474   7.225  0.1217 -0.4057 -0.0508
 2026W        W44964  19.613  13.454   6.052  0.0908 -0.2822 -0.2989
 2027W        W44965  17.246  15.008   6.463  0.4436 -0.2948  0.0149
 2028W        W44966  15.200  11.659   7.757 -0.0014  0.4183  0.2658
 2029W        W44967  17.174  15.143   8.106 -0.0062  0.4096 -0.0892
 2030W        W44968  17.661  14.537   8.930 -0.0826  0.0108 -0.2346
 2031W        W44969  18.400  14.527   8.258 -0.1927  0.1243 -0.2494
 2032W        W44970  17.271  14.482   6.537 -0.0556  0.0044  0.1519
 2033W        W44971  15.539  12.546   9.683 -0.4971  0.0359 -0.2533
 2034W        W44972  15.709  10.552   7.241  0.0630  0.1955 -0.1404
 2035W        W44973  15.099  11.597   9.251  0.3149  0.0145 -0.1576
 2036W        W44974  18.143  13.344   8.993 -0.1085 -0.0386  0.1441
 2037W        W44975  15.891  13.295   7.963  0.1393  0.1758 -0.2164
 2038W        W44976  16.371  12.711   9.172  0.2484 -0.3153  0.0355
 2039W        W44977  14.775  10.902   6.691 -0.3369 -0.4816  0.0403
 2040W        W44978  17.783  14.893   7.321 -0.0762 -0.0496  0.0832
 2041W        W44979  17.615  11.697   9.798 -0.0273  0.0609 -0.2377
 2042W        W44980  16.201  14.013   8.250 -0.0002  0.0309 -0.3477
 2043W        W44981  15.298  10.965   6.615  0.1535  0.1636  0.0449
 2044W        W44982  14.989  12.540   7.967 -0.2113 -0.2464 -0.2922
 2045W        W44983  15.360  13.187   8.892 -0.2101 -0.0279 -0.2753
 2046W        W44984  18.248  12.908   8.726  0.0766  0.0746 -0.2070
 2047W        W44985  18.508  12.682   9.559  0.0316  0.1688 -0.0639
 2048W        W44986  16.280  14.827   9.369 -0.0678 -0.0492 -0.0745
 2049W        W44987  18.268  13.209   9.475  0.0886  0.0072  0.0158
 2050W        W44988  15.443  12.307   8.285 -0.0214 -0.0347 -0.1704
 2051W        W44989  13.897  14.905   9.519 -0.0926 -0.0716 -0.0165
 2052W        W44990  17.184  14.065   8.229 -0.3129  0.2180  0.0243
 2053W        W44991  17.601  13.568   7.489  0.0303  0.1283 -0.0405
 2054W        W44992  15.777  13.777   6.630 -0.4011 -0.0978 -0.3202
 2055W        W44993  16.282  14.507   9.752  0.1040  0.1676  0.2014
 2056W        W44994  16.442  12.577   8.247 -0.3024 -0.2525 -0.0404
 2057W        W44995  16.648  14.591   7.115  0.3201  0.0146 -0.2682
 2058W        W44996  17.825  13.722   8.966  0.1000  0.2403  0.2525
 2059W        W44997  15.345  14.996   8.718 -0.1497 -0.0751  0.0267
 2060W        W44998  16.703  14.014   6.268 -0.1116  0.0596  0.3249
 2061W        W44999  16.847  13.458   7.973 -0.1762 -0.0498  0.1025
 2062W        W45000  16.354  11.820   6.026 -0.1366 -0.0865  0.0602
 2063W        W45001  17.173  12.281   7.564 -0.3592 -0.1294 -0.0092
 2064W        W45002  17.018  11.493   7.860 -0.0974  0.1313  0.2774
 2065W        W45003  15.105  15.753   9.707  0.1111  0.2255  0.3363
 2066W        W45004  15.957  12.810   9.544 -0.1345 -0.4458  0.2449
 2067W        W45005  16.696  12.326   7.334 -0.1031 -0.1229 -0.0132
 2068W        W45006  16.769  12.882   9.494 -0.1536  0.1524 -0.0936
 2069W        W45007  14.930  13.243   8.624  0.0858 -0.1319 -0.0726
 2070W        W45008  15.887  12.467   8.623  0.0613  0.1458  0.1612
 2071W        W45009  18.348  15.050   7.271 -0.0951 -0.3924  0.2832
 2072W        W45010  17.140  14.484   8.996  0.0789 -0.1024  0.1616
 2073W        W45011  16.759  14.472   7.668 -0.1888 -0.0627  0.0098
 2074W        W45012  15.797  12.834   6.319  0.1653 -0.0675 -0.1583
 2075W        W45013  15.071  10.840   7.066  0.2840  0.0475 -0.1228
 2076W        W45014  17.655  12.049   7.718  0.2243  0.4802  0.0791
 2077W        W45015  16.904  13.129   9.018 -0.0706  0.0499 -0.1320
 2078W        W45016  18.865  13.893   9.406  0.2298  0.2031 -0.0373
 2079W        W45017  17.639  14.499   6.042  0.0433  0.0824 -0.2918
 2080W        W45018  16.211  11.628   6.926  0.0961  0.2174 -0.0241
 2081W        W45019  17.138  11.436   8.941 -0.1221 -0.2453 -0.1519
 2082W        W45020  15.838  13.302   6.674  0.2901 -0.0348 -0.3444
 2083W        W45021  15.837  13.061   7.145  0.0364 -0.0167  0.0896
 2084W        W45022  19.009  13.919   8.588 -0.0234  0.2389  0.1441
 2085W        W45023  18.322  13.278   7.027 -0.0257 -0.0286  0.0948
 2086W        W45024  15.877  14.572   8.423  0.1219  0.1037 -0.0097
 2087W        W45025  15.265  14.459   8.614  0.2796 -0.1183  0.0670
 2088W        W45026  14.885  13.245   7.270  0.0777 -0.0478  0.0944
 2089W        W45027  14.950  13.940   6.016  0.2506 -0.0516 -0.0122
 2090W        W45028  15.433  12.899   9.329  0.1398  0.1124 -0.0432
 2091W        W45029  16.903  11.944   9.681  0.0857 -0.0767  0.1291
 2092W        W45030  19.008  11.626   6.917  0.1216  0.3735 -0.3151
 2093W        W45031  18.740  10.190   8.546 -0.2305 -0.1725 -0.0369
 2094W        W45032  15.655  12.627   7.530  0.2078 -0.2189 -0.0878
 2095W        W45033  18.728  14.362   8.797 -0.0157  0.1390 -0.3607
 2096W        W45034  18.280  11.472   7.044  0.2766 -0.4757  0.1504
 2097W        W45035  18.200  13.857   7.119 -0.2102 -0.2561  0.0050
 2098W        W45036  14.178   9.103   9.631  0.1661 -0.2576  0.3482
 2099W        W45037  16.117  11.857   8.689 -0.0991  0.0779  0.3262
 2100W        W45038  15.498  10.661   9.210  0.2064 -0.2066  0.0738
 2101W        W45039  14.508  11.325   6.027  0.1063 -0.1400 -0.2811
 2102W        W45040  16.869  12.144   6.735 -0.2438 -0.2432  0.1840
 2103W        W45041  16.060  11.142   6.891  0.0123 -0.0284  0.1700
 2104W        W45042  15.299  13.179   7.061  0.2586  0.0331  0.1401
 2105W        W45043  16.485  15.114   5.697 -0.0937 -0.2400 -0.2950
 2106W        W45044  20.089  14.020   7.167  0.2557 -0.0883  0.0127
 2107W        W45045  17.667  13.343   9.762  0.1819  0.0113 -0.4094
 2108W        W45046  16.125  11.433   8.980  0.1446 -0.3415  0.4346
 2109W        W45047  15.726  11.459   6.748 -0.1637 -0.2955 -0.0721
 2110W        W45048  14.539  14.538   8.193 -0.2465 -0.0694 -0.1478
 2111W        W45049  16.798  14.938   8.925 -0.0749  0.0858 -0.0866
 2112W        W45050  14.463  10.572   6.920  0.2165  0.2333 -0.3568
 2113W        W45051  19.567  14.741   8.424  0.1466  0.1087 -0.1162
 2114W        W45052  15.816  11.947   7.009  0.0995 -0.0474 -0.1013
 2115W        W45053  18.402  12.222   8.108 -0.1281  0.1550 -0.1975
 2116W        W45054  18.152  13.165   7.822  0.2920  0.1179 -0.0632
 2117W        W45055  15.627  11.872   6.455 -0.0294 -0.0886 -0.0303
 2118W        W45056  18.592  15.186   9.269 -0.2471 -0.0454  0.1785
 2119W        W45057  14.704  13.084   5.721  0.1545 -0.2141  0.2742
 2120W        W45058  14.471  12.573   6.945  0.1438  0.1371 -0.4262
 2121W        W45059  16.301  13.393   8.406 -0.1758 -0.1200  0.1241
 2122W        W45060  16.690  12.307   9.345 -0.2060 -0.2995 -0.0512
 2123W        W45061  15.130  12.873   6.317  0.1611 -0.1680 -0.0066
 2124W        W45062  17.555  10.750   8.379 -0.0101 -0.2156 -0.1055
 2125W        W45063  18.534  11.031   7.153  0.2279  0.0214  0.0899
 2126W        W45064  17.926  14.259   9.286  0.2692 -0.1719  0.2394
 2127W        W45065  17.429  12.044   6.551 -0.0643  0.0725  0.1583
 2128W        W45066  16.864  10.953   7.182  0.0727  0.2953  0.2929
 2129W        W45067  16.748  13.947   7.917  0.1845  0.2435 -0.1006
 2130W        W45068  16.187  15.478   9.521 -0.5424 -0.0065  0.0151
 2131W        W45069  16.791  13.460   6.580 -0.0076  0.1073  0.0546
 2132W        W45070  17.836  14.544   7.984  0.0524 -0.1021 -0.1946
 2133W        W45071  15.384  12.443   8.746 -0.1645  0.1156 -0.1264
 2134W        W45072  17.425  14.074   8.929  0.1051 -0.2066 -0.1633
 2135W        W45073  13.405  10.074   9.569  0.0455 -0.1821 -0.0151
 2136W        W45074  16.790  13.134   7.270 -0.1554  0.1292 -0.0673
 2137W        W45075  16.042  11.329   7.606 -0.1149 -0.0836 -0.1804
 2138W        W45076  14.410  13.871   7.414 -0.0071 -0.1229 -0.1267
 2139W        W45077  18.342  11.968   9.162  0.0016 -0.0340 -0.1040
 2140W        W45078  17.974  10.886   8.633 -0.2153 -0.1520 -0.0642
 2141W        W45079  17.398  12.696   7.124 -0.2471 -0.0309 -0.1621
 2142W        W45080  17.634  12.401   8.126 -0.2636  0.1168 -0.1223
 2143W        W45081  16.877  12.609   6.481 -0.2131  0.3873  0.0161
 2144W        W45082  16.930  11.659   8.321 -0.2920 -0.0521  0.1255
 2145W        W45083  14.683  14.366   8.945 -0.0258  0.1792 -0.0864
 2146W        W45084  15.827  12.784   8.097 -0.0151 -0.0691 -0.0711
 2147W        W45085  17.521  10.860   7.141 -0.0121  0.1534 -0.0844
 2148W        W45086  16.218  14.745   7.710 -0.2391 -0.1933  0.1233
 2149W        W45087  17.066  13.956   6.640  0.1068  0.0835  0.1546
 2150W        W45088  15.283  12.012   8.946  0.0606  0.1567  0.0067
 2151W        W45089  16.667  11.762   8.713  0.0911 -0.4471 -0.2467
 2152W        W45090  16.737  14.226   5.644 -0.1331  0.0871 -0.1358
 2153W        W45091  15.717  14.586   9.919 -0.1582  0.2958  0.2699
 2154W        W45092  16.795  13.627   7.090  0.0431  0.1334 -0.0638
 2155W        W45093  17.619  10.728   7.890 -0.1724 -0.0528  0.3351
 2156W        W45094  15.907  14.787   8.979  0.1020  0.3193  0.2357
 2157W        W45095  15.386  13.206   5.698  0.1192  0.0441  0.0312
 2158W        W45096  15.423  12.851   8.487  0.0072  0.2816  0.1299
 2159W        W45097  16.778  10.574   7.529  0.2161 -0.4246 -0.2416
 2160W        W45098  18.082  13.453   7.445 -0.0773  0.0978 -0.0596
 2161W        W45099  12.476  10.349   9.551 -0.2757  0.0129  0.4276
 2162W        W45100  16.426  11.908   8.261  0.2591  0.0752 -0.2598
 2163W        W45101  16.806  13.690   8.414  0.1276  0.2116  0.1558
 2164W        W45102  18.482  11.363   7.502 -0.1815  0.1220 -0.2138
 2165W        W45103  15.106  12.524   6.711  0.1176  0.0294 -0.1762
 2166W        W45104  17.536  12.806   8.449  0.1523 -0.1692 -0.0375
 2167W        W45105  16.470  11.496   7.857  0.0190 -0.3352 -0.1228
 2168W        W45106  15.038  13.367   7.951 -0.4362 -0.0139  0.2265
 2169W        W45107  16.158  12.316   9.438 -0.0225  0.4803  0.1185
 2170W        W45108  15.648  13.552   7.115  0.1158 -0.2527  0.0677
 2171W        W45109  16.140  12.987   8.819 -0.2998 -0.3908  0.2034
 2172W        W45110  18.084  13.708   8.454  0.0448  0.0069  0.2432
 2173W        W45111  16.593  12.771   8.737 -0.0913 -0.1793 -0.0004
 2174W        W45112  15.219  10.862   8.667  0.5669 -0.3463 -0.2310
 2175W        W45113  16.772  12.372   7.885 -0.0817 -0.1955 -0.0239
 2176W        W45114  16.133  15.068   9.803  0.1537 -0.0161  0.1703
 2177W        W45115  15.697  14.463   9.296 -0.0229 -0.0140 -0.0781
 2178W        W45116  16.439  10.495   9.407 -0.0914  0.1926  0.0840
 2179W        W45117  18.331  15.675   7.288  0.0399  0.0348 -0.2724
 2180W        W45118  15.327  13.956   6.458 -0.0968  0.2589  0.2680
 2181W        W45119  14.479  12.996   9.128 -0.1710 -0.0531 -0.1386
 2182W        W45120  16.344  13.595   7.923  0.1223 -0.0618  0.0186
 2183W        W45121  17.421  12.408   8.779 -0.1782  0.2546  0.2604
 2184W        W45122  15.824  14.106   9.652 -0.0474  0.0638  0.2687
 2185W        W45123  15.570  14.199   8.879  0.0132  0.0851  0.0894
 2186W        W45124  16.788  13.186   8.494  0.0293  0.2684  0.0716
 2187W        W45125  17.194  10.489   7.053  0.1635 -0.0225 -0.1220
 2188W        W45126  17.957  14.912   5.769  0.3224 -0.0831 -0.0947
 2189W        W45127  16.870  12.358   8.841  0.0775  0.1351  0.2843
 2190W        W45128  16.789  14.095   7.312  0.0283  0.0704  0.0643
 2191W        W45129  12.355  10.878   8.709  0.0140 -0.1249  0.0029
 2192W        W45130  18.176  14.175   8.872 -0.0062 -0.1840 -0.0811
 2193W        W45131  16.667  10.127   7.866  0.0688 -0.0549 -0.0558
 2194W        W45132  14.729   9.373   7.655 -0.0902 -0.1158 -0.0823
 2195W        W45133  17.372  12.012   9.146  0.0423  0.1002 -0.0305
 2196W        W45134  16.548  14.089   9.468 -0.0734 -0.0236 -0.0944
 2197W        W45135  17.847  14.483   6.507 -0.2614  0.0272 -0.2628
 2198W        W45136  17.231  12.039   8.019 -0.1773  0.1354  0.0046
 2199W        W45137  18.612  13.425   9.183 -0.1839 -0.1806 -0.3346
 2200W        W45138  17.362  13.707   7.896 -0.2281  0.2762  0.1521
 2201W        W45139  16.519  13.994   8.815 -0.1009 -0.0855 -0.0528
 2202W        W45140  16.251  12.421   7.790 -0.2452  0.0392 -0.2645
 2203W        W45141  15.904  12.160   8.168 -0.2756 -0.0490  0.1002
 2204W        W45142  17.750  11.977   8.613 -0.0583 -0.1543  0.0275
 2205W        W45143  17.046  15.400   9.177 -0.0053  0.4861  0.0530
 2206W        W45144  17.731  13.161   5.479 -0.2400 -0.0457 -0.1765
 2207W        W45145  18.745  11.984   8.451 -0.2852  0.1954  0.0410
 2208W        W45146  18.503  14.067   8.485 -0.2441 -0.1691  0.0517
 2209W        W45147  17.703  12.299   7.269 -0.0975  0.2232 -0.1353
 2210W        W45148  15.605  12.024   8.628 -0.1342 -0.1148  0.3792
 2211W        W45149  15.572  11.036   7.029 -0.1983 -0.3385 -0.1360
 2212W        W45150  15.809  14.421   7.577 -0.0243  0.3428 -0.0463
 2213W        W45151  16.290  13.036   8.068  0.2481  0.0292 -0.0675
 2214W        W45152  16.863  11.895   7.547 -0.0945  0.1746  0.0792
 2215W        W45153  15.120  12.017   8.496  0.3799 -0.0137 -0.1818
 2216W        W45154  16.582  10.752   6.192 -0.0120 -0.1286 -0.1633
 2217W        W45155  16.042  12.927   7.639 -0.2575  0.1936  0.1012
 2218W        W45156  16.194  13.201   9.304  0.3257 -0.0881  0.3620
 2219W        W45157  17.825  10.518   6.934 -0.0284  0.3175  0.0947
 2220W        W45158  16.524  14.432   8.573  0.3594 -0.2645 -0.2114
 2221W        W45159  17.547  11.251   8.586  0.2829  0.0694 -0.0663
 2222W        W45160  12.638  12.243  10.177  0.2443  0.0350 -0.3800
 2223W        W45161  17.364  14.490   7.985 -0.3220  0.0486  0.0540
 2224W        W45162  16.182  13.681   9.492 -0.1837  0.0248 -0.1572
 2225W        W45163  18.139  12.673   8.277 -0.1761  0.2467  0.0786
 2226W        W45164  17.453  12.808   9.528  0.1176  0.3014 -0.1502
 2227W        W45165  16.264  14.023   9.908 -0.1521  0.1344  0.2186
 2228W        W45166  17.659  13.931   8.220 -0.2121 -0.3597 -0.0390
 2229W        W45167  19.282  12.509   9.398  0.1568 -0.3223  0.1425
 2230W        W45168  16.388  11.989   7.755  0.1727 -0.0193  0.2709
 2231W        W45169  14.902  11.609   8.345 -0.0105  0.1348  0.0374
 2232W        W45170  15.982  13.938   7.572 -0.0024  0.1054 -0.0029
 2233W        W45171  15.569  11.985   9.517  0.0487 -0.1454  0.0425
 2234W        W45172  14.974  14.994   6.822  0.3116 -0.1906  0.1263
 2235W        W45173  16.440  14.105   6.971  0.3694  0.0915 -0.0875
 2236W        W45174  15.680  14.136   8.408  0.2154  0.1889  0.0110
 2237W        W45175  19.045  13.001   9.154 -0.1424  0.2378  0.3661
 2238W        W45176  16.291  12.688   6.291 -0.0453 -0.2259  0.0298
 2239W        W45177  15.808  13.230   8.482  0.2025  0.1881 -0.0100
 2240W        W45178  15.516  13.948   7.831  0.2732 -0.1353 -0.0161
 2241W        W45179  17.159  14.146   7.605 -0.0921 -0.1835  0.2237
 2242W        W45180  16.429  14.364   8.008 -0.2420  0.0440  0.1366
 2243W        W45181  17.606  11.233   6.787  0.3855 -0.0244  0.1568
 2244W        W45182  16.329  13.440   8.884 -0.1933  0.3486 -0.1084
 2245W        W45183  18.178  12.043   7.686 -0.0333  0.3991 -0.0461
 2246W        W45184  17.057  12.740   8.571  0.0075  0.2835 -0.3375
 2247W        W45185  16.125  11.935   6.457  0.1050 -0.2694 -0.0372
 2248W        W45186  17.707  14.969   6.423  0.0059  0.1533  0.0624
 2249W        W45187  14.837  11.745   7.001  0.0075  0.0005 -0.1609
 2250W        W45188  16.126  11.779   7.374  0.0996  0.1759 -0.3881
 2251W        W45189  17.998  10.874   9.189 -0.2240 -0.1760  0.2928
 2252W        W45190  17.685  14.120   7.143  0.1497  0.2358 -0.0598
 2253W        W45191  19.288  11.466   9.259 -0.1007  0.2572  0.0744
 2254W        W45192  17.171  14.798   7.606 -0.0790  0.0498 -0.2695
 2255W        W45193  14.255  13.620   8.322  0.2504 -0.1018 -0.2694
 2256W        W45194  16.810  14.419   9.741  0.1463  0.2484 -0.1188
 2257W        W45195  14.662  10.388   7.697  0.2469  0.1216  0.3201
 2258W        W45196  18.442  12.895   7.431  0.1335  0.0697  0.0873
 2259W        W45197  16.649  11.800   7.100  0.0767  0.2303 -0.0318
 2260W        W45198  15.714  13.594   9.665  0.2757 -0.0485 -0.1308
 2261W        W45199  17.182  12.644   8.019 -0.2594  0.1000  0.2078
 2262W        W45200  15.987  13.741   8.655  0.4506  0.1684 -0.3006
 2263W        W45201  18.994  12.780   9.747 -0.2388  0.3432  0.0140
 2264W        W45202  15.826  12.391   6.594  0.2151  0.3632 -0.0754
 2265W        W45203  16.573  12.935   6.811  0.0733  0.2642 -0.0890
 2266W        W45204  15.899  10.779   7.863  0.1431  0.3175 -0.3873
 2267W        W45205  17.032  12.766   7.551 -0.1023  0.0394  0.0116
 2268W        W45206  16.911  12.599   7.003 -0.1886  0.0141 -0.1191
 2269W        W45207  16.969  14.020   9.130 -0.0510 -0.1411  0.0529
 2270W        W45208  15.346  10.782   8.008 -0.3736 -0.0062  0.1340
 2271W        W45209  18.516  14.047   6.804 -0.0607 -0.0465  0.0475
 2272W        W45210  16.589  12.743   7.628 -0.0706 -0.3199  0.0831
 2273W        W45211  15.444  14.607   7.256 -0.0987  0.0982  0.0124
 2274W        W45212  18.760  13.907   8.098  0.0056 -0.1128  0.2744
 2275W        W45213  18.598  12.925   9.070 -0.1484 -0.0536  0.0613
 2276W        W45214  15.520  12.111   7.820  0.0929 -0.4578 -0.0201
 2277W        W45215  19.150  15.780   8.918 -0.1753  0.0896  0.2451
 2278W        W45216  20.206  13.955   8.163 -0.2484  0.1342 -0.2424
 2279W        W45217  16.280  10.663   7.085  0.3627  0.1816 -0.1229
 2280W        W45218  15.367  10.990   6.082  0.0061 -0.1682 -0.3823
 2281W        W45219  14.979  13.735   8.451 -0.0239  0.0072 -0.0089
 2282W        W45220  19.320  12.712   7.891 -0.2100  0.1477 -0.2086
 2283W        W45221  16.561  14.649   5.120  0.1691 -0.0861 -0.1444
 2284W        W45222  17.407  12.839   9.024  0.1647 -0.1932  0.1961
 2285W        W45223  15.938  13.568   5.784 -0.0482  0.1176  0.0400
 2286W        W45224  15.776  13.679   8.236  0.1126  0.0216 -0.1342
 2287W        W45225  15.160  14.303   7.605 -0.2258 -0.0944  0.1929
 2288W        W45226  17.087  13.249   9.483 -0.4279  0.0513 -0.0117
 2289W        W45227  18.119  13.208   8.341  0.0216  0.2006  0.0134
 2290W        W45228  18.029  15.267   9.223  0.2574 -0.2468  0.0457
 2291W        W45229  16.918  12.275   8.333 -0.1478  0.2988 -0.2123
 2292W        W45230  17.879  11.099   7.669 -0.3514 -0.0451 -0.1065
 2293W        W45231  15.797  13.356   8.984 -0.1864 -0.2079  0.1074
 2294W        W45232  14.959  12.225   7.093 -0.0216  0.0196 -0.4037
 2295W        W45233  16.078  12.675   5.824 -0.0827  0.0327  0.1816
 2296W        W45234  15.721  12.768   8.965 -0.0546 -0.0721  0.0663
 2297W        W45235  15.715  11.670   7.707 -0.1488  0.0865  0.0258
 2298W        W45236  15.464  11.741   8.198  0.0766  0.1530 -0.1005
 2299W        W45237  18.798  13.586   6.292  0.1942 -0.0770 -0.1242
 2300W        W45238  14.650  12.740   8.745  0.2509  0.0440 -0.4095
 2301W        W45239  15.117  12.760   8.952 -0.3541  0.3593  0.2117
 2302W        W45240  17.709  13.310   8.155 -0.1302  0.0615 -0.4299
 2303W        W45241  17.307  13.709   7.067 -0.1457 -0.2721  0.1243
 2304W        W45242  15.503  11.088   7.610  0.2580  0.3021  0.3409
 2305W        W45243  15.898  13.076   5.599  0.2990 -0.1132 -0.1241
 2306W        W45244  15.298  10.158   6.403  0.1674  0.0431 -0.0322
 2307W        W45245  18.269  12.518   9.051 -0.1535 -0.2162  0.3489
 2308W        W45246  17.039  15.360   7.713  0.3497  0.1055  0.3502
 2309W        W45247  17.240  14.214   6.067 -0.1863  0.0124  0.0758
 2310W        W45248  15.381  10.042   8.570  0.5115  0.2959 -0.0525
 2311W        W45249  16.421  13.202   7.661 -0.1682  0.0035 -0.1056
 2312W        W45250  17.982  13.850   6.619 -0.0330 -0.3207 -0.2013
 2313W        W45251  17.276  11.134   8.082  0.2242 -0.0163 -0.2225
 2314W        W45252  17.333  13.696   8.526  0.3046  0.0093  0.1470
 2315W        W45253  19.442  12.982   9.518  0.4842  0.0014 -0.0918
 2316W        W45254  17.825  12.316   9.128  0.1122  0.2128 -0.0574
 2317W        W45255  16.470  12.470   6.723  0.2168 -0.0571  0.0762
 2318W        W45256  17.208  13.135   8.184  0.1327 -0.1799 -0.3335
 2319W        W45257  16.562  11.488   9.260  0.2817  0.2477 -0.1450
 2320W        W45258  17.395  13.144   7.722 -0.4548 -0.2554 -0.0511
 2321W        W45259  19.043  14.437   9.293  0.2199 -0.1051 -0.0635
 2322W        W45260  16.072  13.581   6.234  0.0153  0.2421  0.1681
 2323W        W45261  19.327  13.838   7.248  0.3934  0.3526  0.2931
 2324W        W45262  13.575  15.044  10.939 -0.0386  0.4327  0.1759
 2325W        W45263  17.309  14.982   8.975 -0.0788 -0.1883  0.0122
 2326W        W45264  19.369  13.182   8.795 -0.0410 -0.0757 -0.1633
 2327W        W45265  15.027  10.493   8.990 -0.2025  0.0418  0.3832
 2328W        W45266  15.320  12.108   6.800 -0.1788  0.0397 -0.2460
 2329W        W45267  16.043  14.262   8.749  0.2793 -0.0209  0.0303
 2330W        W45268  17.877  12.850   9.092 -0.1034  0.3555  0.0964
 2331W        W45269  15.571  11.315   8.024 -0.0878  0.2273  0.0285
 2332W        W45270  17.870  11.759   7.382  0.3068  0.0627  0.0360
 2333W        W45271  14.644  15.495   9.135  0.1579 -0.0041  0.0597
 2334W        W45272  17.183  13.598   9.070 -0.0436  0.2541  0.0519
 2335W        W45273  15.307  16.902   1.366  0.3000  0.0004 -0.0204
 2336W        W45274  15.115  16.675   0.985 -0.4132 -0.1345 -0.3458
 2337W        W45275  16.677  14.332  30.420 -0.1184  0.1438 -0.1147
 2338W        W45276  17.362  15.211  30.047  0.0617 -0.2952  0.1742
 2339W        W45277  14.834  16.174  31.908 -0.0712  0.2075  0.0868
 2340W        W45278  16.882  17.260  30.738  0.0743  0.0747  0.1515
 2341W        W45279  15.839  14.762   1.986  0.1887 -0.1615  0.1607
 2342W        W45280  16.937  17.485   1.616  0.1368  0.0858 -0.1458
 2343W        W45281  18.401  18.000  31.485  0.1696  0.0506 -0.0345
 2344W        W45282  16.248  16.835  29.935  0.0021  0.2806  0.0179
 2345W        W45283  16.896  17.301   0.620  0.2231  0.3168 -0.0603
 2346W        W45284  15.623  16.679   0.756  0.1269 -0.1786  0.1873
 2347W        W45285  15.354  14.313  31.328 -0.1902 -0.1050  0.4172
 2348W        W45286  14.767  14.926   1.552 -0.2114  0.0194 -0.1589
 2349W        W45287  17.150  15.666   0.556  0.1048  0.0981 -0.2509
 2350W        W45288  14.718  16.321  31.176 -0.0438  0.0454 -0.0160
 2351W        W45289  16.102  16.928   0.876  0.2505  0.0802 -0.1686
 2352W        W45290  15.499  15.288  31.311 -0.3749 -0.1436 -0.2946
 2353W        W45291  16.148  17.742  29.358  0.0601  0.1841 -0.1965
 2354W        W45292  15.657  15.506   1.134  0.1449  0.1669 -0.1957
 2355W        W45293  17.511  15.561   1.847  0.0649  0.0167  0.0845
 2356W        W45294  16.299  16.441  30.838  0.0426 -0.3385  0.0090
 2357W        W45295  14.098  16.559  29.776 -0.4493 -0.2317  0.3905
 2358W        W45296  14.674  16.348   1.003  0.1074  0.2113 -0.1611
 2359W        W45297  16.813  17.109   0.164  0.2059 -0.0594  0.1597
 2360W        W45298  17.011  15.624   1.085  0.2543  0.0887  0.0366
 2361W        W45299  16.363  17.966  31.858 -0.0477 -0.0278 -0.2015
 2362W        W45300  14.289  17.773   1.862  0.1222  0.0071  0.1220
 2363W        W45301  17.236  17.050  31.906 -0.2190  0.1249 -0.5916
 2364W        W45302  16.770  14.676   1.963 -0.1229  0.2279  0.2816
 2365W        W45303  15.419  17.891  31.713  0.0887  0.0995  0.1065
 2366W        W45304  15.157  17.985   0.215 -0.2620  0.0845 -0.2104
 2367W        W45305  16.157  18.928  31.453 -0.3002 -0.2915 -0.1519
 2368W        W45306  18.459  17.083  31.547  0.1694 -0.1763  0.2344
 2369W        W45307  16.880  18.289   2.164 -0.1664  0.0250 -0.2083
 2370W        W45308  15.447  15.674   1.962  0.3062 -0.2756  0.0491
 2371W        W45309  14.599  18.216  29.906 -0.3940 -0.2123 -0.1325
 2372W        W45310  15.839  17.993   0.708 -0.1444 -0.0850 -0.0695
 2373W        W45311  15.567  16.426   2.159  0.3974 -0.1017 -0.0589
 2374W        W45312  16.635  14.508   1.128 -0.1771  0.0475  0.1980
 2375W        W45313  16.991  15.232  30.579 -0.1348 -0.1705  0.0928
 2376W        W45314  15.735  17.553  28.604  0.1051 -0.2836 -0.1223
 2377W        W45315  16.437  16.565  31.340 -0.2890  0.0902  0.4197
 2378W        W45316  15.015  16.326   3.209 -0.1606 -0.1046 -0.1107
 2379W        W45317  14.655  17.844  30.245  0.0261 -0.1891  0.2437
 2380W        W45318  17.781  14.976   2.611 -0.1126  0.1294 -0.0281
 2381W        W45319  16.823  16.639  27.846  0.1295  0.2029  0.2497
 2382W        W45320  16.454  15.698  30.113  0.0825 -0.1405  0.2541
 2383W        W45321  14.726  15.020  30.558  0.0678 -0.1468  0.2392
 2384W        W45322  17.232  15.920   0.047 -0.1476 -0.0782 -0.0889
 2385W        W45323  16.170  14.374   1.072  0.0171  0.0944 -0.0249
 2386W        W45324  15.142  17.509  31.485 -0.0734  0.0543  0.2158
 2387W        W45325  15.539  15.250   0.731  0.1646 -0.2895 -0.1435
 2388W        W45326  18.178  16.782  30.983 -0.0942 -0.2753  0.2769
 2389W        W45327  16.039  16.387   0.915 -0.0626  0.0056  0.0453
 2390W        W45328  15.641  16.647   1.688  0.0318  0.0020 -0.0933
 2391W        W45329  13.801  17.957   1.636 -0.1277  0.3591  0.2407
 2392W        W45330  16.046  15.805   0.665 -0.3982  0.0410  0.2217
 2393W        W45331  16.416  17.963  27.947 -0.0250 -0.2606  0.1502
 2394W        W45332  17.764  18.144  31.904  0.1562 -0.1114  0.1209
 2395W        W45333  17.397  17.469  27.906  0.4015 -0.1535  0.0576
 2396W        W45334  15.984  17.363   1.033  0.0460  0.4383  0.0634
 2397W        W45335  15.478  16.419   3.224  0.3328 -0.3612  0.2339
 2398W        W45336  14.150  15.105   1.765  0.0841 -0.4824  0.0125
 2399W        W45337  12.466  14.984  31.108 -0.2490 -0.3376  0.3649
 2400W        W45338  18.088  16.700   3.546  0.4581 -0.1517  0.0516
 2401W        W45339  14.122  18.139   3.590  0.0691 -0.2330  0.0123
 2402W        W45340  17.573  16.463   0.248 -0.0494  0.0083  0.0772
 2403W        W45341  15.597  17.397   1.274  0.1234 -0.2046 -0.1757
 2404W        W45342  18.205  15.920   2.160 -0.0945  0.5384 -0.1025
 2405W        W45343  17.440  16.272  29.847  0.1484  0.4218 -0.1187
 2406W        W45344  17.502  14.640  31.967 -0.0855 -0.1507 -0.4055
 2407W        W45345  17.129  14.301   1.187 -0.2303 -0.0204 -0.0759
 2408W        W45346  14.824  14.341  29.205 -0.4332 -0.1981 -0.2528
 2409W        W45347  16.379  15.059   0.477  0.0430  0.1849  0.1165
 2410W        W45348  17.315  15.128   0.652 -0.0327 -0.0010 -0.0670
 2411W        W45349  17.387  15.021  30.825  0.0125 -0.0879  0.0400
 2412W        W45350  14.935  17.884  30.657 -0.0228  0.0618 -0.2552
 2413W        W45351  16.624  15.133   2.184  0.0558 -0.1240  0.0021
 2414W        W45352  17.223  16.226   1.840 -0.2178 -0.3960 -0.3217
 2415W        W45353  15.327  16.448  30.457  0.1103  0.0879 -0.1038
 2416W        W45354  13.846  15.310   0.304 -0.1017 -0.4325  0.0904
 2417W        W45355  14.554  16.010  30.290 -0.1260  0.1727  0.2703
 2418W        W45356  14.955  14.341   1.620 -0.0598  0.1722  0.3452
 2419W        W45357  14.801  16.746   1.361 -0.0248  0.0606 -0.0031
 2420W        W45358  18.508  14.000   0.317  0.0948 -0.2887  0.0697
 2421W        W45359  15.028  16.025   1.792  0.0868 -0.0284  0.0053
 2422W        W45360  18.050  14.148   0.153  0.1713  0.0379 -0.1241
 2423W        W45361  15.196  16.501   0.170  0.1295 -0.1152  0.0868
 2424W        W45362  17.365  15.713  31.612  0.0072  0.1035  0.3218
 2425W        W45363  17.106  14.701  31.665 -0.0272 -0.0940  0.0494
 2426W        W45364  17.695  17.206  29.551  0.0397 -0.4418 -0.0205
 2427W        W45365  14.116  15.554   2.091  0.1570 -0.2040  0.4339
 2428W        W45366  14.307  16.967   0.031  0.1038  0.0276  0.0524
 2429W        W45367  15.412  15.062   1.969  0.2070  0.0209 -0.2243
 2430W        W45368  15.121  16.011   0.433  0.0069 -0.2087  0.3754
 2431W        W45369  17.190  15.291   1.507 -0.1045 -0.1912  0.3403
 2432W        W45370  13.878  14.664  29.810 -0.3106 -0.2089  0.2555
 2433W        W45371  16.137  15.563  30.946  0.1354  0.2209 -0.1582
 2434W        W45372  16.486  16.259   0.589  0.1456 -0.3647 -0.0619
 2435W        W45373  13.724  17.120   1.126  0.0405 -0.0902  0.1235
 2436W        W45374  17.290  14.828   2.849  0.0980  0.0595  0.2730
 2437W        W45375  16.609  17.624  30.983 -0.0229 -0.3205 -0.0926
 2438W        W45376  17.581  17.609   2.190 -0.0555  0.1081  0.0219
 2439W        W45377  18.028  17.260  31.879 -0.3012 -0.0586 -0.0441
 2440W        W45378  15.188  16.573   1.801 -0.1521 -0.0231 -0.0001
 2441W        W45379  15.765  16.113  29.595 -0.4478  0.2597  0.0439
 2442W        W45380  15.177  18.165   0.874  0.0607 -0.0882  0.0331
 2443W        W45381  15.585  17.131   0.851 -0.0365 -0.1562  0.2193
 2444W        W45382  14.954  15.582  31.677 -0.1836  0.0362  0.1293
 2445W        W45383  18.211  16.249  31.245  0.0444  0.0873 -0.0813
 2446W        W45384  16.333  17.042   0.141  0.2190 -0.0323 -0.0890
 2447W        W45385  14.694  17.380   0.765  0.0594  0.0192  0.1189
 2448W        W45386  17.849  13.275   1.934 -0.0911  0.0908 -0.1994
 2449W        W45387  18.518  16.022   1.026  0.0623 -0.0396 -0.0320
 2450W        W45388  16.675  16.752  31.789  0.0068 -0.1586  0.0375
 2451W        W45389  15.269  14.815  29.459 -0.1466  0.2201 -0.1867
 2452W        W45390  18.529  18.529   0.845  0.0034  0.1407  0.5273
 2453W        W45391  16.481  17.499  30.118  0.0969  0.1269 -0.0204
 2454W        W45392  16.164  16.687  31.814  0.1425  0.0447  0.0790
 2455W        W45393  15.432  17.684   0.846 -0.2024  0.0714 -0.0956
 2456W        W45394  18.084  14.277   1.883 -0.0154  0.0190  0.3331
 2457W        W45395  13.509  16.351   2.698 -0.1522  0.0493 -0.0392
 2458W        W45396  17.598  16.593   1.646 -0.2718 -0.1569 -0.2746
 2459W        W45397  14.219  15.983  29.917 -0.0284  0.1122  0.1578
 2460W        W45398  15.209  18.109   3.459  0.4511  0.0407 -0.0027
 2461W        W45399  18.335  15.563  31.769  0.0931  0.0859  0.0500
 2462W        W45400  18.380  15.793  28.976 -0.0847 -0.0051 -0.0171
 2463W        W45401  17.118  15.287   3.011 -0.0401  0.0809  0.0623
 2464W        W45402  17.691  15.462  30.388 -0.1820  0.0730 -0.0856
 2465W        W45403  17.894  15.368  31.682  0.3077  0.1755 -0.3706
 2466W        W45404  17.091  14.628  29.632 -0.0957  0.1667  0.1078
 2467W        W45405  13.410  17.957   2.008 -0.0232 -0.0479  0.0179
 2468W        W45406  16.500  17.507  31.944 -0.3021 -0.0673 -0.1969
 2469W        W45407  15.911  17.777   1.389 -0.0341 -0.3173 -0.0409
 2470W        W45408  17.021  14.895  30.066 -0.0732 -0.1755  0.1295
 2471W        W45409  18.063  16.808  29.972  0.3655 -0.0270  0.4172
 2472W        W45410  15.167  17.393   0.564  0.1415  0.4261 -0.1289
 2473W        W45411  18.313  16.214   2.549  0.2737  0.0248 -0.0726
 2474W        W45412  17.141  17.731  31.276  0.0447  0.1777 -0.0308
 2475W        W45413  16.451  15.303   0.030 -0.2987 -0.2656  0.3481
 2476W        W45414  15.425  15.712  31.613 -0.3348  0.1524  0.1229
 2477W        W45415  16.665  14.783  30.747 -0.2618  0.1088 -0.0894
 2478W        W45416  15.713  19.507  28.204  0.0859 -0.0396  0.2216
 2479W        W45417  17.971  13.783   1.956  0.0473  0.5697  0.1715
 2480W        W45418  16.964  15.005   1.090 -0.0689 -0.0148 -0.1934
 2481W        W45419  16.430  14.961   0.945  0.1491 -0.1233 -0.1080
 2482W        W45420  16.212  14.435   2.848  0.2471 -0.2372 -0.0237
 2483W        W45421  17.429  16.463  30.631 -0.0566  0.0589  0.0097
 2484W        W45422  17.360  15.956   0.905 -0.0812 -0.1392  0.0257
 2485W        W45423  15.703  16.134  29.024  0.0413  0.0330 -0.0760
 2486W        W45424  18.186  15.225   1.748  0.1891  0.0672 -0.0594
 2487W        W45425  15.151  17.507   1.500 -0.3336  0.1542 -0.0889
 2488W        W45426  14.803  16.437   2.693  0.0703  0.3753 -0.0446
 2489W        W45427  16.053  16.971   1.954  0.1499 -0.1692  0.0747
 2490W        W45428  15.945  15.577  31.405 -0.0040  0.1268  0.0954
 2491W        W45429  16.887  16.167   2.390 -0.3279  0.3598 -0.1965
 2492W        W45430  16.689  15.295  31.054  0.1996  0.0520  0.0125
 2493W        W45431  16.133  17.425  31.102 -0.3058  0.1492  0.0594
 2494W        W45432  15.019  16.445  30.055 -0.1444  0.0943 -0.0983
 2495W        W45433  15.959  15.343   0.340  0.0282  0.0860 -0.2962
 2496W        W45434  16.304  18.212   0.345 -0.1982  0.0365  0.2028
 2497W        W45435  16.307  17.342  30.640  0.0241 -0.4491 -0.0018
 2498W        W45436  17.005  16.604   0.185 -0.0480  0.1102 -0.0672
 2499W        W45437  16.834  17.858  31.709 -0.1739 -0.0933  0.1619
 2500W        W45438  18.639  14.702  31.683  0.0875 -0.1077 -0.1436
 2501W        W45439  15.035  18.835   1.417 -0.1412 -0.1357  0.2716
 2502W        W45440  15.682  14.698  31.909  0.1799  0.2396 -0.2764
 2503W        W45441  13.331  15.133   0.007 -0.1133 -0.2705  0.1477
 2504W        W45442  16.168  14.694   0.181  0.1031  0.0249 -0.0836
 2505W        W45443  15.982  16.029  30.994 -0.0350 -0.0258 -0.2565
 2506W        W45444  14.933  15.633   1.459 -0.1359 -0.0875  0.1422
 2507W        W45445  16.739  16.597   1.440  0.3332  0.0858 -0.1149
 2508W        W45446  15.390  17.180   2.555 -0.0523  0.0960 -0.0899
 2509W        W45447  16.296  15.454   1.998 -0.1846  0.0859 -0.1338
 2510W        W45448  18.138  14.178  31.551 -0.1236 -0.3010  0.1498
 2511W        W45449  17.575  17.853  31.531  0.0108 -0.0713 -0.4085
 2512W        W45450  16.042  16.657   3.316  0.1126  0.2544  0.3461
 2513W        W45451  16.237  16.082  30.484  0.1098 -0.2729 -0.3388
 2514W        W45452  18.772  14.336   2.226  0.1584 -0.1682 -0.0086
 2515W        W45453  16.861  16.297  31.674 -0.2088 -0.1360 -0.1228
 2516W        W45454  13.956  15.703  31.835  0.0194 -0.2100  0.3802
 2517W        W45455  17.213  17.487   0.124  0.3081 -0.1336  0.1579
 2518W        W45456  14.270  16.412   0.028 -0.1639  0.1318  0.0462
 2519W        W45457  14.829  17.903  31.637  0.1096  0.1972  0.1112
 2520W        W45458  16.017  17.000   2.994 -0.0094  0.2385  0.1005
 2521W        W45459  16.391  17.230   1.233  0.0231 -0.3995 -0.1347
 2522W        W45460  16.428  16.154   1.199  0.3142  0.0346  0.0120
 2523W        W45461  16.372  15.761  31.865 -0.0783 -0.0224  0.1026
 2524W        W45462  17.665  15.511   0.740 -0.0461  0.2045 -0.2224
 2525W        W45463  16.179  15.696   1.165  0.0146  0.6236 -0.2101
 2526W        W45464  14.456  18.424   3.971 -0.3555 -0.0013  0.1532
 2527W        W45465  16.624  15.396   1.173 -0.0252 -0.2441 -0.2622
 2528W        W45466  17.601  17.484  31.007 -0.0354  0.1711 -0.2877
 2529W        W45467  18.409  15.510   2.399 -0.3226 -0.1766 -0.1134
 2530W        W45468  15.778  17.603  30.067  0.0567  0.0862  0.1542
 2531W        W45469  14.496  16.224   2.240  0.1960 -0.2205 -0.0086
 2532W        W45470  17.320  16.006  31.164 -0.0048  0.2435 -0.1292
 2533W        W45471  16.597  15.745   0.839  0.1665 -0.0511 -0.2070
 2534W        W45472  15.190  16.914   0.590  0.0234 -0.0888 -0.2242
 2535W        W45473  15.674  16.867  31.499 -0.0114 -0.2469 -0.0814
 2536W        W45474  14.959  17.709   1.065  0.4452  0.1156  0.2562
 2537W        W45475  17.856  14.437   0.848 -0.0568  0.0858  0.0909
 2538W        W45476  16.593  16.017  30.823 -0.1928 -0.3715 -0.0820
 2539W        W45477  16.888  14.810   0.598  0.3020 -0.2368 -0.0458
 2540W        W45478  18.449  15.105   1.099  0.1066 -0.0223  0.1911
 2541W        W45479  15.878  15.096  30.256  0.0133 -0.0657  0.1322
 2542W        W45480  17.130  15.339   2.476 -0.2215  0.1283 -0.2936
 2543W        W45481  15.547  15.792   0.618  0.0100  0.0736  0.2276
 2544W        W45482  16.920  17.335  31.629 -0.1937 -0.3787 -0.0366
 2545W        W45483  14.948  15.251   1.933  0.0749 -0.0965  0.1269
 2546W        W45484  17.311  16.373   1.208  0.0618  0.0039 -0.0488
 2547W        W45485  14.763  16.737   2.158  0.0965 -0.0512 -0.0378
 2548W        W45486  15.941  15.062  31.204  0.0527 -0.4217  0.0921
 2549W        W45487  15.680  15.272  30.753 -0.0998  0.2947  0.1780
 2550W        W45488  16.312  15.798   1.646  0.2039 -0.0175 -0.0608
 2551W        W45489  17.618  15.954  30.671 -0.1567 -0.2123 -0.2039
 2552W        W45490  16.760  15.982  30.369  0.1265  0.0540 -0.1499
 2553W        W45491  17.096  14.438   0.124 -0.0574 -0.0773 -0.0860
 2554W        W45492  15.213  17.031   2.060  0.2472  0.1734  0.1154
 2555W        W45493  16.932  15.728  31.333  0.1219  0.0666  0.2526
 2556W        W45494  15.193  16.014  30.238  0.3267 -0.2249  0.1347
 2557W        W45495  16.358  17.349   0.726  0.1647 -0.0323 -0.1609
 2558W        W45496  15.941  14.131   1.438 -0.2174  0.1355  0.0033
 2559W        W45497  17.361  16.328  31.743  0.0121  0.2406 -0.2229
 2560W        W45498  17.378  14.692   0.487  0.1374 -0.0365  0.1714
 2561W        W45499  16.980  15.154   0.229 -0.0998  0.3594  0.2062
 2562W        W45500  16.880  16.212   0.954 -0.0272  0.2866  0.0061
 2563W        W45501  16.191  15.706   2.468 -0.0947  0.0476 -0.1294
 2564W        W45502  14.479  14.607   3.215  0.1696 -0.0704 -0.1482
 2565W        W45503  17.312  17.162   0.770 -0.0776 -0.0043 -0.2675
 2566W        W45504  18.304  14.617   0.871 -0.0274 -0.2798  0.1000
 2567W        W45505  18.299  14.745   2.751  0.1604 -0.2173 -0.3581
 2568W        W45506  15.936  16.482  31.269  0.0495 -0.0613  0.3021
 2569W        W45507  16.225  15.056  30.779  0.1138  0.1474 -0.1366
 2570W        W45508  16.583  16.743   0.488  0.1579  0.1548  0.0291
 2571W        W45509  18.448  15.686   2.954 -0.0326 -0.1515 -0.0974
 2572W        W45510  15.681  15.995  28.536 -0.0394  0.2237 -0.0107
 2573W        W45511  16.268  15.499   3.463 -0.1851 -0.3114 -0.0157
 2574W        W45512  15.742  17.766  31.115 -0.2867 -0.1566 -0.1641
 2575W        W45513  17.036  16.157   0.457  0.1441  0.5431 -0.1724
 2576W        W45514  16.723  15.117  31.587 -0.2718  0.3566  0.1198
 2577W        W45515  14.803  15.743   0.131 -0.1967  0.1897  0.1633
 2578W        W45516  15.169  17.069   3.486 -0.0809  0.0163  0.0303
 2579W        W45517  15.217  16.810  29.144 -0.1263  0.1026  0.3015
 2580W        W45518  16.611  16.162   0.125  0.3604 -0.0981 -0.0942
 2581W        W45519  16.004  17.339   1.578  0.2212 -0.0029 -0.2489
 2582W        W45520  18.886  16.215   1.375  0.1566  0.1850  0.0679
 2583W        W45521  17.122  14.049  30.435 -0.0345 -0.1207  0.1503
 2584W        W45522  18.230  14.727   1.576 -0.1613  0.1307 -0.1122
 2585W        W45523  15.588  17.187  29.795 -0.0833  0.2262 -0.3316
 2586W        W45524  17.645  15.078   1.596 -0.0423  0.1449 -0.2431
 2587W        W45525  15.759  18.226   1.610  0.1553 -0.0779  0.2415
 2588W        W45526  14.345  16.529   1.413  0.1624 -0.0051  0.0748
 2589W        W45527  15.087  18.325  31.624 -0.1216 -0.0160  0.0382
 2590W        W45528  17.090  16.671   2.166  0.1498 -0.1759  0.0537
 2591W        W45529  17.854  16.273  31.752  0.0278  0.0599  0.1830
 2592W        W45530  17.406  16.660   0.708  0.2330  0.4175  0.0281
 2593W        W45531  18.125  15.970   3.134  0.0228 -0.2222  0.2060
 2594W        W45532  17.400  18.418   0.078  0.0104  0.1995 -0.2371
 2595W        W45533  16.750  17.559   1.052  0.1641  0.4113 -0.0615
 2596W        W45534  16.818  17.819   0.297 -0.1651 -0.0598 -0.1126
 2597W        W45535  17.882  16.292  30.344 -0.3357  0.1801  0.0720
 2598W        W45536  15.101  17.164   1.040 -0.2372 -0.0566 -0.1017
 2599W        W45537  14.931  14.995   2.422  0.2881 -0.3037 -0.0377
 2600W        W45538  15.651  16.872   2.254  0.2344 -0.0122 -0.1637
 2601W        W45539  15.685  16.512  31.911 -0.1911 -0.1681 -0.0652
 2602W        W45540  14.551  14.336   0.736 -0.0078  0.1676 -0.0009
 2603W        W45541  16.122  17.369  29.763 -0.1523  0.0419  0.1513
 2604W        W45542  14.103  18.173   2.754  0.2384 -0.0637 -0.2546
 2605W        W45543  14.478  16.199   3.395 -0.1874  0.4184 -0.0274
 2606W        W45544  15.907  16.484  29.275 -0.2249 -0.0557 -0.0581
 2607W        W45545  16.509  15.339  30.503 -0.0369 -0.0187  0.0601
 2608W        W45546  14.884  16.555  31.538  0.2716 -0.0394  0.4180
 2609W        W45547  16.609  17.022   1.656 -0.0273 -0.1250 -0.0502
 2610W        W45548  15.346  16.076  31.913  0.0512 -0.0275 -0.2045
 2611W        W45549  15.005  18.209   1.434 -0.0401 -0.1686 -0.1779
 2612W        W45550  14.789  16.412  30.517 -0.3570  0.0219 -0.2246
 2613W        W45551  16.977  16.359  30.044 -0.3063  0.0278 -0.0142
 2614W        W45552  15.453  17.255  30.262  0.0095  0.2381 -0.2113
 2615W        W45553  17.838  16.554   2.555  0.0587 -0.0440  0.2631
 2616W        W45554  17.151  12.990  30.737  0.0825 -0.3714  0.1975
 2617W        W45555  17.504  16.973   0.328  0.0189 -0.1620 -0.0788
 2618W        W45556  19.194  15.857  30.210 -0.2361 -0.0727  0.1277
 2619W        W45557  15.636  16.022   3.995  0.0304  0.1240 -0.1728
 2620W        W45558  15.753  15.979   1.061 -0.0173 -0.1223 -0.1178
 2621W        W45559  14.890  14.616  30.290 -0.1239  0.1163  0.2512
 2622W        W45560  15.569  16.852   0.296  0.0213  0.1576  0.1522
 2623W        W45561  18.697  13.894   2.558  0.1165 -0.0343 -0.2549
 2624W        W45562  13.577  19.216   2.331  0.0218  0.2988  0.2194
 2625W        W45563  17.114  18.275  29.980  0.1427 -0.0951  0.0748
 2626W        W45564  15.345  15.600   0.190  0.1453 -0.0602  0.0076
 2627W        W45565  16.257  17.751   0.397  0.3163 -0.0620 -0.2313
 2628W        W45566  16.919  13.885   0.947  0.3577  0.1399 -0.0192
 2629W        W45567  16.033  16.008  30.040 -0.0963 -0.0409  0.0381
 2630W        W45568  16.457  16.632   0.968  0.0358  0.1979 -0.0857
 2631W        W45569  15.853  17.041  31.935 -0.0803 -0.2324 -0.1922
 2632W        W45570  15.223  16.664   2.478 -0.0840  0.1636 -0.0288
 2633W        W45571  14.373  17.570   2.330 -0.0642  0.0493 -0.0191
 2634W        W45572  15.861  15.816   0.131  0.0640  0.2782  0.0569
 2635W        W45573  18.103  15.124  31.044 -0.2184 -0.3520 -0.0841
 2636W        W45574  16.735  15.995   1.882  0.0527 -0.1067  0.0334
 2637W        W45575  17.585  14.060   1.599  0.4055 -0.1209  0.1014
 2638W        W45576  14.850  16.580   0.557 -0.2344  0.0084 -0.1907
 2639W        W45577  18.427  16.505  31.783 -0.0120 -0.0621 -0.2443
 2640W        W45578  17.409  16.887   1.250 -0.0457  0.1387 -0.2177
 2641W        W45579  14.690  15.754   0.655  0.1604 -0.2276  0.0229
 2642W        W45580  15.556  15.727  31.031  0.1952  0.1925  0.1759
 2643W        W45581  17.117  15.119   1.941 -0.2149 -0.2027 -0.0904
 2644W        W45582  16.685  15.676   0.342 -0.5129  0.1364  0.0709
 2645W        W45583  15.831  16.955   1.259 -0.2449 -0.2771 -0.0552
 2646W        W45584  14.032  15.718   0.517 -0.0281  0.2688 -0.1538
 2647W        W45585  16.611  14.542  31.701  0.3982  0.1762  0.0446
 2648W        W45586  15.821  16.471  30.756 -0.0616  0.0697 -0.0703
 2649W        W45587  14.571  16.920   1.725  0.0153 -0.0177 -0.0780
 2650W        W45588  16.244  16.766   1.452 -0.0374  0.0826  0.2609
 2651W        W45589  14.683  13.859   0.437  0.0107 -0.1130  0.0017
 2652W        W45590  17.311  15.887  29.542 -0.1009  0.1695 -0.2745
 2653W        W45591  17.452  15.441   0.255 -0.0924 -0.0241  0.1197
 2654W        W45592  16.624  17.168  29.784 -0.1463  0.0090 -0.4278
 2655W        W45593  17.597  15.953   0.439  0.2073 -0.1330  0.1803
 2656W        W45594  17.719  18.625  31.719  0.3575 -0.0741 -0.2409
 2657W        W45595  14.551  16.232   0.413 -0.0735 -0.1386 -0.0198
 2658W        W45596  17.686  17.613   0.079 -0.0621  0.3350 -0.3171
 2659W        W45597  19.134  17.003   1.942  0.2957  0.0908 -0.0187
 2660W        W45598  16.775  13.975  31.280 -0.2021 -0.1648  0.1069
 2661W        W45599  15.431  15.211  31.814 -0.0829  0.1987  0.0077
 2662W        W45600  15.348  18.298  29.019 -0.2104  0.0039 -0.3040
 2663W        W45601  18.145  15.849   0.546  0.0179  0.1435 -0.4076
 2664W        W45602  18.415  15.024   0.485  0.2169 -0.0369  0.0021
 2665W        W45603  16.602  16.859  30.833  0.3796 -0.1348  0.1271
 2666W        W45604  17.405  13.989   3.015  0.2758 -0.1203 -0.0993
 2667W        W45605  16.231  17.786   0.932  0.0032 -0.0576 -0.1847
 2668W        W45606  15.448  18.417   3.020 -0.3936  0.3189 -0.0478
 2669W        W45607  14.983  16.722  30.918 -0.2962  0.0020  0.0922
 2670W        W45608  14.413  17.062   2.177  0.0321  0.1390 -0.0485
 2671W        W45609  16.062  16.272   0.163 -0.4031  0.1951 -0.1649
 2672W        W45610  15.533  17.675   0.249  0.0571 -0.0550  0.0311
 2673W        W45611  17.560  16.490  31.315  0.1684  0.0033  0.0705
 2674W        W45612  16.852  14.508  31.241  0.2234  0.2198  0.0328
 2675W        W45613  18.621  16.033  31.079  0.2162 -0.1123  0.0592
 2676W        W45614  16.117  14.413  31.791 -0.2391  0.2464  0.1076
 2677W        W45615  18.598  14.699  31.122 -0.1615  0.0663  0.6772
 2678W        W45616  17.637  14.894  31.518  0.3666  0.1203  0.0351
 2679W        W45617  13.951  15.970   3.643 -0.1865  0.0844 -0.1843
 2680W        W45618  15.964  17.418  29.075  0.2554  0.1886  0.2089
 2681W        W45619  16.046  16.736   0.367 -0.0421 -0.2193  0.2059
 2682W        W45620  15.290  17.113  30.730  0.1019  0.2014 -0.1218
 2683W        W45621  16.449  14.750   2.465 -0.2435  0.0472 -0.1138
 2684W        W45622  15.100  16.321   1.346 -0.2900  0.1433  0.0644
 2685W        W45623  15.623  16.249   0.472  0.0469  0.1000  0.5243
 2686W        W45624  15.049  15.083  31.236  0.1651 -0.1953  0.0486
 2687W        W45625  16.710  16.479  30.523 -0.0404 -0.0502 -0.0426
 2688W        W45626  15.147  15.644   0.964  0.1975  0.0710  0.2713
 2689W        W45627  15.003  14.026   1.115  0.1291 -0.0129  0.1214
 2690W        W45628  17.615  16.707  29.645  0.4335 -0.1727 -0.1464
 2691W        W45629  16.298  16.201  31.703 -0.1341 -0.0024 -0.1102
 2692W        W45630  16.904  13.908  31.800  0.1190  0.0603  0.1712
 2693W        W45631  17.494  17.754   3.065  0.0040 -0.0575 -0.0098
 2694W        W45632  16.454  17.332  29.379 -0.2265 -0.1336  0.0897
 2695W        W45633  17.154  15.827   2.122  0.2677 -0.2283 -0.0093
 2696W        W45634  17.375  14.628   1.938  0.0905 -0.3591  0.1668
 2697W        W45635  14.392  14.231  30.379  0.0596  0.3308  0.0953
 2698W        W45636  15.265  16.154   0.894 -0.4481  0.0645  0.0249
 2699W        W45637  17.614  14.275   0.401 -0.0370 -0.4574 -0.0495
 2700W        W45638  16.397  17.618  31.460 -0.1016 -0.1425 -0.0738
 2701W        W45639  15.223  16.830  31.760 -0.1975  0.2348  0.1612
 2702W        W45640  14.700  17.722   1.493 -0.2945 -0.0788 -0.1509
 2703W        W45641  15.141  15.906   3.028 -0.3208 -0.2091  0.2878
 2704W        W45642  15.984  17.508  31.942  0.2225 -0.2706  0.0824
 2705W        W45643  16.249  17.589   2.408 -0.0946 -0.2624 -0.0069
 2706W        W45644  18.208  16.020  30.747 -0.1281 -0.3695  0.3579
 2707W        W45645  17.123  13.888   1.467 -0.0111 -0.1425 -0.1229
 2708W        W45646  19.228  15.392   0.093  0.6143 -0.2160 -0.1598
 2709W        W45647  15.811  13.573   2.261  0.3264  0.0189  0.1716
 2710W        W45648  15.207  17.690   2.484 -0.0313 -0.0388 -0.1024
 2711W        W45649  17.927  16.748  31.967  0.1724 -0.1618 -0.0973
 2712W        W45650  16.076  15.313   0.864 -0.0631 -0.1155 -0.1339
 2713W        W45651  16.867  15.603  31.839 -0.0845 -0.2341 -0.0515
 2714W        W45652  15.979  17.199  30.284 -0.0539  0.0863 -0.0719
 2715W        W45653  14.265  17.289   1.733  0.2024 -0.1934  0.2121
 2716W        W45654  15.406  16.398  31.496 -0.2968  0.1493  0.2832
 2717W        W45655  17.621  16.092   1.487 -0.2231  0.1441  0.2675
 2718W        W45656  16.030  16.967  31.028 -0.2993  0.2024  0.1485
 2719W        W45657  17.850  16.574   1.191  0.1220  0.0425 -0.2033
 2720W        W45658  16.440  15.485  31.461 -0.2644 -0.2976 -0.0795
 2721W        W45659  18.480  15.251  31.336 -0.2967 -0.0054 -0.1283
 2722W        W45660  17.162  17.732   0.770 -0.0136  0.4013 -0.2753
 2723W        W45661  16.798  17.367   3.020 -0.0842 -0.0131 -0.1628
 2724W        W45662  16.954  17.970   1.306  0.0146  0.0723 -0.0172
 2725W        W45663  18.482  17.227   0.144 -0.2022  0.0370 -0.0540
 2726W        W45664  16.143  14.530  30.893 -0.0384 -0.4380 -0.1346
 2727W        W45665  15.897  15.312  31.840 -0.0381  0.1738 -0.1443
 2728W        W45666  18.040  15.335   1.211  0.0186 -0.3162 -0.2629
 2729W        W45667  14.557  15.947  31.516 -0.5327  0.0019  0.1332
 2730W        W45668  16.014  15.444  29.943  0.0288 -0.0309 -0.0243
 2731W        W45669  14.715  17.766   2.096  0.4143  0.5103 -0.0221
 2732W        W45670  16.852  16.301  31.145  0.4511  0.0575  0.0137
 2733W        W45671  15.262  17.477   5.209  0.2135 -0.0943 -0.5902
 2734W        W45672  16.116  15.237   1.392  0.0706  0.1172  0.2539
 2735W        W45673  17.513  15.590   2.908  0.0468 -0.2098 -0.0934
 2736W        W45674  18.770  16.981   4.105  0.2006 -0.0951 -0.0851
 2737W        W45675  14.720  14.349   3.595 -0.0081  0.0909 -0.0369
 2738W        W45676  17.156  17.058   3.201  0.0090 -0.0792 -0.1019
 2739W        W45677  13.879  14.572   6.663  0.1335  0.0235 -0.2642
 2740W        W45678  16.339  16.579   4.516  0.1782  0.1274  0.1915
 2741W        W45679  17.500  17.287   5.718  0.4113  0.2991  0.0384
 2742W        W45680  17.835  16.299   0.769  0.1178 -0.1119 -0.3240
 2743W        W45681  14.138  15.013   6.543 -0.1339 -0.2299 -0.2373
 2744W        W45682  15.842  16.043   6.399 -0.0783  0.0552  0.0461
 2745W        W45683  15.681  14.180   2.284 -0.0525 -0.1756  0.0926
 2746W        W45684  14.672  14.283   4.150  0.0274 -0.0174  0.2610
 2747W        W45685  16.975  16.100   5.743 -0.2571 -0.2315  0.1273
 2748W        W45686  15.872  16.359   3.676 -0.0010 -0.2704 -0.0142
 2749W        W45687  14.522  14.466   5.175  0.3117  0.3836  0.0553
 2750W        W45688  15.126  15.445   2.348 -0.0332 -0.0105 -0.0643
 2751W        W45689  16.239  17.644   3.559 -0.0412  0.0945 -0.1925
 2752W        W45690  15.251  14.181   5.564 -0.2443  0.0703  0.0046
 2753W        W45691  15.833  14.947   5.833 -0.1469  0.2162 -0.3440
 2754W        W45692  15.545  16.114   1.768  0.0302  0.0362  0.3723
 2755W        W45693  13.550  15.013   2.673 -0.0167  0.1882  0.1608
 2756W        W45694  14.131  15.755   5.020 -0.0835 -0.3094  0.0451
 2757W        W45695  14.583  16.087   6.266  0.1561 -0.1344  0.0287
 2758W        W45696  17.459  15.905   4.343  0.0163  0.2319 -0.1871
 2759W        W45697  16.133  16.831   4.924 -0.0166  0.0035  0.3029
 2760W        W45698  16.114  16.283   5.596 -0.2336 -0.1686  0.1405
 2761W        W45699  16.202  17.906   4.027  0.2165  0.2830 -0.2498
 2762W        W45700  15.570  15.289   6.713  0.0033 -0.2222 -0.2077
 2763W        W45701  13.925  16.578   4.717  0.0335 -0.1475  0.2304
 2764W        W45702  14.165  18.567   5.067 -0.0269  0.1007 -0.2453
 2765W        W45703  14.426  16.691   4.678  0.1144  0.3223  0.0339
 2766W        W45704  18.465  17.520   3.847 -0.1178  0.0701  0.2721
 2767W        W45705  17.287  16.815   4.113 -0.2555  0.1103 -0.1123
 2768W        W45706  16.249  17.801   6.085 -0.0971 -0.1003 -0.3645
 2769W        W45707  13.589  17.996   3.463 -0.0786 -0.0862  0.1517
 2770W        W45708  16.924  18.163   5.255  0.2128 -0.0177  0.1523
 2771W        W45709  15.676  16.969   6.578  0.2014 -0.1938  0.1488
 2772W        W45710  16.025  15.214   4.467  0.0776  0.1206 -0.3871
 2773W        W45711  16.938  16.081   3.144  0.1383 -0.1335  0.2186
 2774W        W45712  15.560  17.039   3.165  0.1026 -0.1542 -0.4010
 2775W        W45713  15.549  15.410   4.648  0.0387 -0.1219  0.3555
 2776W        W45714  15.837  17.468   6.057  0.1683 -0.1026  0.4305
 2777W        W45715  13.606  15.653   3.975  0.0933  0.0230  0.0093
 2778W        W45716  17.381  16.363   5.878 -0.1094 -0.2824  0.1109
 2779W        W45717  15.408  17.164   4.356  0.1699  0.2958  0.0714
 2780W        W45718  17.583  15.701   2.424  0.2866  0.1494  0.1417
 2781W        W45719  16.014  14.317   1.919 -0.0285  0.1780 -0.2391
 2782W        W45720  17.161  15.832   1.560  0.2292 -0.1370 -0.2834
 2783W        W45721  16.468  13.023   3.993 -0.2952 -0.0474  0.1741
 2784W        W45722  13.593  16.461   4.335  0.0530  0.2026 -0.1367
 2785W        W45723  14.060  13.726   5.024 -0.2066  0.2609  0.3064
 2786W        W45724  17.260  16.807   5.403  0.0316 -0.3407  0.3789
 2787W        W45725  14.831  16.292   4.792  0.0596  0.1705  0.3683
 2788W        W45726  16.565  15.159   4.098  0.2097 -0.2662 -0.0907
 2789W        W45727  16.016  17.021   6.299 -0.0054 -0.3534 -0.3426
 2790W        W45728  13.511  15.161   4.981  0.0462 -0.1404  0.2017
 2791W        W45729  16.055  17.155   2.449  0.1570 -0.2039 -0.0118
 2792W        W45730  19.251  16.987   4.127 -0.2091  0.0680  0.2030
 2793W        W45731  16.617  16.475   2.029  0.4742 -0.0866  0.1420
 2794W        W45732  15.599  15.807   2.511 -0.0361  0.1148  0.2521
 2795W        W45733  14.628  15.871   4.837 -0.1919  0.0570 -0.0267
 2796W        W45734  14.170  16.411   6.342  0.1679  0.0126 -0.1925
 2797W        W45735  15.565  14.369   1.805 -0.0111 -0.0135 -0.0838
 2798W        W45736  18.922  17.495   6.731  0.0327 -0.1151 -0.2108
 2799W        W45737  14.734  17.598   5.552 -0.0678 -0.1967 -0.1476
 2800W        W45738  18.557  14.083   4.198  0.0730  0.1471 -0.1590
 2801W        W45739  15.195  16.187   4.199 -0.0762  0.3803  0.0017
 2802W        W45740  17.620  17.560   4.577 -0.3421 -0.2029  0.3145
 2803W        W45741  18.193  16.449   3.086  0.1126  0.2486  0.1567
 2804W        W45742  16.537  16.395   4.932  0.0346 -0.1616 -0.0776
 2805W        W45743  16.068  14.492   3.733 -0.0308  0.1229  0.2629
 2806W        W45744  14.674  17.004   2.649 -0.1693 -0.1629  0.0711
 2807W        W45745  15.499  15.812   4.377 -0.3025  0.1735 -0.1700
 2808W        W45746  17.559  18.078   4.745 -0.0977  0.0016  0.1718
 2809W        W45747  15.794  15.418   2.739 -0.0405 -0.0079 -0.3120
 2810W        W45748  14.006  17.395   4.499  0.1128 -0.1065 -0.3069
 2811W        W45749  15.858  15.944   5.927 -0.2457  0.0056 -0.4165
 2812W        W45750  17.821  17.210   7.078 -0.2184 -0.1472 -0.0463
 2813W        W45751  14.959  18.091   2.393 -0.2769 -0.2497  0.1374
 2814W        W45752  14.171  15.956   5.990  0.3018  0.0915  0.0159
 2815W        W45753  15.074  15.950   5.592  0.0333  0.0075 -0.0716
 2816W        W45754  15.325  14.677   6.485 -0.0375  0.2740  0.3149
 2817W        W45755  15.840  16.657   5.491  0.2947  0.1192  0.0467
 2818W        W45756  17.499  14.586   2.414 -0.1729  0.2098 -0.3119
 2819W        W45757  13.841  14.224   7.527 -0.2256  0.1772 -0.3326
 2820W        W45758  16.318  14.866   3.216 -0.1756  0.1487  0.2704
 2821W        W45759  15.024  16.540   5.187  0.0509  0.1261  0.0084
 2822W        W45760  18.404  16.888   2.021  0.1178  0.1309 -0.0914
 2823W        W45761  16.928  15.460   3.734 -0.0331 -0.5353 -0.1658
 2824W        W45762  18.049  16.853   2.867  0.0844  0.0605 -0.1920
 2825W        W45763  14.526  14.406   6.002 -0.0911 -0.3312 -0.2449
 2826W        W45764  15.263  14.936   3.294 -0.1300  0.2386 -0.2334
 2827W        W45765  15.169  14.520   6.892  0.0535 -0.0258 -0.1907
 2828W        W45766  13.576  14.315   5.463  0.0248  0.1619 -0.2118
 2829W        W45767  16.219  14.866   6.150 -0.2874 -0.0854  0.1540
 2830W        W45768  15.054  16.297   2.212 -0.0992  0.0527 -0.2266
 2831W        W45769  14.799  15.530   3.867  0.3147  0.1026 -0.0272
 2832W        W45770  15.758  15.576   3.220  0.3163 -0.0574 -0.0193
 2833W        W45771  14.382  16.327   5.011 -0.2965  0.3230 -0.1369
 2834W        W45772  16.689  15.155   5.234  0.0195 -0.0639  0.1336
 2835W        W45773  16.855  17.016   4.263 -0.1549 -0.0097  0.1117
 2836W        W45774  17.753  17.066   5.086  0.3885 -0.0833 -0.1001
 2837W        W45775  17.717  16.977   3.343  0.1639 -0.3016  0.4585
 2838W        W45776  15.130  15.416   6.471  0.0029 -0.2683  0.1915
 2839W        W45777  14.758  14.368   2.311 -0.1025  0.1721  0.2608
 2840W        W45778  14.215  17.478   5.383 -0.0011 -0.1291 -0.1765
 2841W        W45779  15.556  16.751   3.581  0.1471  0.2744 -0.1511
 2842W        W45780  15.825  15.470   2.207 -0.0369  0.2701 -0.0939
 2843W        W45781  17.238  17.677   5.419 -0.0012 -0.1343 -0.2952
 2844W        W45782  16.924  15.969   3.666 -0.0372  0.1030 -0.1261
 2845W        W45783  14.924  16.269   5.967  0.4175  0.2489  0.0109
 2846W        W45784  15.854  14.513   6.381 -0.0570 -0.0780 -0.1994
 2847W        W45785  18.290  16.341   4.871  0.2049  0.1731 -0.2160
 2848W        W45786  16.020  16.149   3.212 -0.0189  0.2816  0.0678
 2849W        W45787  14.813  12.898   2.066 -0.0246 -0.1649  0.1104
 2850W        W45788  17.634  17.590   5.031  0.0721 -0.0448  0.0857
 2851W        W45789  14.421  17.799   3.889  0.1494  0.1290  0.3418
 2852W        W45790  14.006  15.394   3.540  0.0740 -0.1854 -0.1765
 2853W        W45791  15.197  16.722   3.964  0.2729  0.3694 -0.2429
 2854W        W45792  17.516  14.836   4.798  0.2202 -0.1320 -0.1859
 2855W        W45793  14.386  16.328   6.732 -0.0155  0.1348 -0.1878
 2856W        W45794  16.631  16.932   6.212 -0.0932 -0.1996  0.1127
 2857W        W45795  15.142  15.070   1.067  0.0534 -0.0760  0.0167
 2858W        W45796  14.685  16.872   6.918 -0.2162 -0.1885 -0.3302
 2859W        W45797  15.567  15.327   4.116  0.6673 -0.0703 -0.1964
 2860W        W45798  16.773  15.615   3.235  0.0361  0.2626  0.4627
 2861W        W45799  16.479  18.063   5.721  0.0626 -0.2214 -0.3127
 2862W        W45800  18.710  15.961   2.316  0.1835 -0.1484  0.1609
 2863W        W45801  16.607  15.508   2.742 -0.1035  0.0187 -0.0215
 2864W        W45802  17.042  14.378   2.277 -0.0097  0.1318 -0.0148
 2865W        W45803  14.694  16.638   6.422  0.1006  0.0925 -0.0036
 2866W        W45804  15.489  16.190   5.455 -0.1648 -0.1159  0.3518
 2867W        W45805  14.945  15.128   5.405 -0.2023 -0.0775 -0.0026
 2868W        W45806  15.927  15.992   2.084 -0.2631  0.1407 -0.1229
 2869W        W45807  16.856  16.463   3.584  0.0910  0.1552  0.1315
 2870W        W45808  14.921  15.644   6.942  0.2046 -0.3610  0.1033
 2871W        W45809  17.394  17.389   7.467 -0.2136  0.0627 -0.3505
 2872W        W45810  16.358  16.649   5.339 -0.2357  0.0995  0.2836
 2873W        W45811  15.735  14.720   4.558  0.0086 -0.0773  0.3841
 2874W        W45812  17.257  16.432   2.691 -0.0087  0.1748  0.1954
 2875W        W45813  16.233  13.611   2.624 -0.1085 -0.0076 -0.1199
 2876W        W45814  14.110  18.740   4.171  0.2158  0.0074 -0.2239
 2877W        W45815  16.142  15.023   5.316  0.0809 -0.1584 -0.1755
 2878W        W45816  15.227  15.071   4.501 -0.1217 -0.2387 -0.2440
 2879W        W45817  15.771  14.030   6.172  0.1772 -0.0204 -0.2287
 2880W        W45818  16.039  15.355   5.734 -0.1867  0.1486  0.1122
 2881W        W45819  17.248  14.966   3.377 -0.2616 -0.1409  0.0819
 2882W        W45820  16.404  15.859   5.646  0.3195 -0.4568  0.0476
 2883W        W45821  16.291  14.891   1.864  0.0151 -0.2436 -0.0262
 2884W        W45822  14.559  15.243   6.893  0.0602 -0.0157  0.0599
 2885W        W45823  15.746  16.583   5.994  0.1496  0.1023 -0.2102
 2886W        W45824  15.914  17.155   5.264  0.3188  0.2068  0.4421
 2887W        W45825  16.538  17.503   6.373 -0.0015 -0.4102 -0.0809
 2888W        W45826  17.910  15.325   3.935 -0.2444 -0.1411 -0.1168
 2889W        W45827  17.417  15.343   6.035 -0.1610 -0.0331 -0.2228
 2890W        W45828  16.656  13.167   1.924 -0.0053  0.0663 -0.1580
 2891W        W45829  14.509  16.849   4.082  0.1277  0.2666 -0.1438
 2892W        W45830  15.885  16.420   4.614  0.0880 -0.0819 -0.2216
 2893W        W45831  15.002  14.606   4.254  0.0039  0.3494 -0.1155
 2894W        W45832  15.310  16.650   5.690 -0.2711  0.1566 -0.2418
 2895W        W45833  15.913  16.266   1.441  0.3146 -0.1182  0.0456
 2896W        W45834  17.678  16.751   5.599  0.3363 -0.0822  0.0188
 2897W        W45835  14.064  16.462   3.346  0.1095  0.1912  0.1260
 2898W        W45836  15.674  15.866   4.886  0.1168 -0.1067  0.2984
 2899W        W45837  13.555  17.900   5.317  0.0512  0.0097  0.2711
 2900W        W45838  14.406  14.371   1.839  0.0738 -0.1912 -0.0613
 2901W        W45839  13.471  16.123   3.754 -0.0341  0.0382  0.0991
 2902W        W45840  15.940  14.831   2.714  0.1418 -0.0652 -0.1044
 2903W        W45841  16.616  16.049   2.747 -0.2516  0.3064 -0.0737
 2904W        W45842  14.023  14.200   5.258 -0.1423 -0.1202 -0.0933
 2905W        W45843  14.744  14.728   5.693  0.1504  0.0162 -0.0720
 2906W        W45844  14.293  17.434   6.159  0.0466 -0.1611 -0.2163
 2907W        W45845  16.492  16.227   3.784 -0.1386  0.1356 -0.1195
 2908W        W45846  16.818  13.902   2.894 -0.0276  0.1207 -0.3458
 2909W        W45847  16.972  16.626   5.025  0.0871  0.2681 -0.0911
 2910W        W45848  15.882  16.544   6.630  0.0110 -0.0077  0.1322
 2911W        W45849  14.009  16.166   2.806 -0.0904 -0.3007  0.1511
 2912W        W45850  17.946  16.608   6.026  0.2235  0.0991 -0.0985
 2913W        W45851  16.219  15.764   2.949 -0.0755 -0.2370 -0.1186
 2914W        W45852  13.599  16.738   2.412 -0.4785 -0.0132 -0.0037
 2915W        W45853  15.516  17.054   6.151  0.1080  0.0462  0.1054
 2916W        W45854  15.665  16.499   4.148  0.1865 -0.1366 -0.1172
 2917W        W45855  13.972  16.962   3.710 -0.2292 -0.1893  0.2114
 2918W        W45856  15.991  14.795   7.216  0.0940 -0.2222  0.4067
 2919W        W45857  16.335  15.502   5.321  0.0132  0.0655 -0.0058
 2920W        W45858  17.171  16.559   3.203  0.0097 -0.0640 -0.0651
 2921W        W45859  14.785  14.910   3.565  0.0777 -0.1382  0.0182
 2922W        W45860  15.982  16.305   5.112 -0.0975 -0.2407 -0.4919
 2923W        W45861  17.111  17.669   4.888  0.0867  0.4218  0.1743
 2924W        W45862  15.543  15.623   6.228  0.0183  0.2994 -0.1590
 2925W        W45863  15.496  16.354   8.690  0.0899  0.5217 -0.0067
 2926W        W45864  15.048  14.101   5.076 -0.0777  0.0013  0.0437
 2927W        W45865  17.752  19.118   3.211 -0.5249  0.2864  0.0937
 2928W        W45866  16.761  17.300   6.813  0.3440  0.0727  0.2235
 2929W        W45867  15.449  16.272   6.637 -0.0176 -0.1226  0.1354
 2930W        W45868  13.971  15.701   4.466 -0.1283  0.1055  0.1254
 2931W        W45869  15.413  16.722   4.625  0.0031 -0.0950 -0.1392
 2932W        W45870  15.606  15.206   5.437  0.2382  0.2919 -0.1241
 2933W        W45871  14.408  15.216   3.797 -0.2003  0.1427 -0.1172
 2934W        W45872  16.098  16.448   1.849  0.1494 -0.2132  0.2661
 2935W        W45873  15.312  17.521   6.240  0.2287  0.1488 -0.3443
 2936W        W45874  17.545  15.397   3.625  0.4113 -0.1166  0.1589
 2937W        W45875  14.898  17.084   4.469 -0.1008 -0.1265  0.0192
 2938W        W45876  15.111  15.501   4.283  0.1236  0.1218 -0.0075
 2939W        W45877  18.214  14.536   6.014 -0.1424  0.1077  0.0310
 2940W        W45878  17.924  15.508   2.075  0.0995 -0.0981  0.1836
 2941W        W45879  16.771  14.381   6.658  0.0757 -0.0813  0.2436
 2942W        W45880  15.553  14.123   4.355 -0.0828  0.0921  0.1604
 2943W        W45881  19.070  17.506   3.080  0.1710 -0.1341 -0.1078
 2944W        W45882  15.460  15.760   6.714  0.0404  0.4144  0.0634
 2945W        W45883  16.233  17.576   5.623 -0.1240 -0.0104  0.0435
 2946W        W45884  16.239  16.358   6.274  0.1428 -0.1959  0.3038
 2947W        W45885  16.058  15.775   4.329 -0.2448  0.3812  0.0043
 2948W        W45886  15.088  13.354   3.329 -0.1393 -0.2406  0.1914
 2949W        W45887  15.189  16.012   5.137 -0.0804 -0.0793 -0.0065
 2950W        W45888  18.490  18.131   3.791  0.0615  0.2346 -0.2959
 2951W        W45889  17.762  16.015   2.069 -0.2608 -0.1053 -0.0529
 2952W        W45890  17.663  16.289   4.049 -0.2689  0.1854 -0.3561
 2953W        W45891  15.189  15.792   4.718  0.0177 -0.0187  0.0911
 2954W        W45892  16.970  15.037   4.367  0.0434 -0.0395  0.1316
 2955W        W45893  15.337  16.234   2.650  0.0848  0.2532  0.0056
 2956W        W45894  14.334  16.243   4.459 -0.3753  0.2936 -0.1674
 2957W        W45895  14.716  14.185   5.554  0.1958 -0.1364 -0.2541
 2958W        W45896  16.368  17.069   4.352  0.1762  0.2077  0.0345
 2959W        W45897  16.545  15.630   4.355  0.0731  0.2506  0.0461
 2960W        W45898  16.571  14.363   4.534  0.2472 -0.2192 -0.0652
 2961W        W45899  17.561  15.844   3.844 -0.1293  0.0419  0.0276
 2962W        W45900  15.173  16.959   6.627  0.0490  0.2142  0.1444
 2963W        W45901  13.231  15.458   7.815  0.3000  0.0891 -0.6030
 2964W        W45902  17.392  16.921   4.795 -0.3177  0.2507  0.0229
 2965W        W45903  16.055  14.871   4.121 -0.1939 -0.0554 -0.1586
 2966W        W45904  18.045  14.845   4.842 -0.3752 -0.2176  0.5138
 2967W        W45905  17.281  15.295   5.031  0.3104 -0.0942  0.2865
 2968W        W45906  17.564  16.073   2.907 -0.0069 -0.2102  0.2155
 2969W        W45907  14.374  15.334   4.944 -0.0449  0.0732  0.0666
 2970W        W45908  17.853  15.484   5.772 -0.1925  0.0190  0.1145
 2971W        W45909  15.734  13.302   2.881 -0.0217  0.2098  0.0377
 2972W        W45910  14.366  14.964   6.096  0.3089 -0.2707 -0.1328
 2973W        W45911  15.575  17.131   1.727 -0.0449 -0.0447  0.0790
 2974W        W45912  15.235  15.780   3.823  0.0789  0.1018  0.0693
 2975W        W45913  18.069  15.323   2.816 -0.3105  0.2207 -0.0036
 2976W        W45914  13.656  14.608   4.878  0.5741 -0.0441  0.0611
 2977W        W45915  15.170  18.032   6.170 -0.0020 -0.0472 -0.3975
 2978W        W45916  15.268  15.510   2.791  0.2057 -0.0634  0.0378
 2979W        W45917  15.790  15.668   1.585 -0.1755  0.1410  0.2449
 2980W        W45918  14.412  16.903   6.143  0.1131  0.3460  0.0361
 2981W        W45919  16.368  16.048   5.196 -0.0118  0.5556 -0.1216
 2982W        W45920  16.090  12.897   1.376 -0.1955 -0.0634 -0.1293
 2983W        W45921  18.887  16.586   5.592 -0.0006 -0.1575  0.1144
 2984W        W45922  13.400  16.880   3.971 -0.0349  0.1612 -0.1027
 2985W        W45923  16.457  14.708   3.914  0.0165 -0.2216 -0.0712
 2986W        W45924  13.928  17.686   4.998 -0.0691 -0.0828  0.1507
 2987W        W45925  14.552  17.209   5.749  0.1377 -0.0903  0.3664
 2988W        W45926  15.567  16.677   5.117 -0.1524 -0.2192  0.3913
 2989W        W45927  15.414  14.435   4.919 -0.2608 -0.0243  0.0919
 2990W        W45928  17.816  15.269   4.938  0.1384 -0.0984 -0.0280
 2991W        W45929  14.476  15.508   4.510 -0.0511 -0.1398 -0.0343
 2992W        W45930  17.638  16.386   6.824  0.0146 -0.0158  0.0052
 2993W        W45931  17.023  15.851   4.166 -0.1978 -0.1325  0.1974
 2994W        W45932  15.628  16.741   2.755 -0.0152 -0.0996  0.1426
 2995W        W45933  14.945  17.162   5.447 -0.0273 -0.2360 -0.0188
 2996W        W45934  17.951  16.720   4.652  0.2111  0.1250  0.2629
 2997W        W45935  14.552  16.852   5.170 -0.0077  0.0030  0.1788
 2998W        W45936  14.652  15.764   5.855 -0.0253 -0.2532  0.4757
 2999W        W45937  14.900  17.110   6.046  0.0605  0.0596  0.1126
 3000W        W45938  16.668  15.784   4.865  0.0708 -0.0338 -0.3534
 3001W        W45939  15.406  14.959   2.800 -0.1045 -0.1135 -0.0018
 3002W        W45940  15.942  17.206   0.405 -0.1136 -0.0184 -0.0128
 3003W        W45941  13.634  17.314   7.126 -0.0512  0.0781  0.0439
 3004W        W45942  14.159  16.952   5.450  0.0286  0.3347 -0.0805
 3005W        W45943  16.683  18.463   2.604 -0.2128 -0.0781 -0.0191
 3006W        W45944  14.904  16.651   3.582  0.0291 -0.0302 -0.2251
 3007W        W45945  17.252  14.850   3.900  0.2783  0.1181  0.0290
 3008W        W45946  16.204  17.825   4.594 -0.2630  0.2477 -0.2565
 3009W        W45947  15.020  14.541   2.671 -0.2645 -0.0441  0.2397
 3010W        W45948  15.167  16.976   4.990  0.1496 -0.0233  0.1429
 3011W        W45949  13.947  16.744   2.785  0.0177 -0.2331  0.1132
 3012W        W45950  16.488  16.392   3.206  0.2304  0.1105 -0.4055
 3013W        W45951  13.995  17.904   4.518 -0.0428 -0.0493  0.2697
 3014W        W45952  16.529  15.731   3.846 -0.1253 -0.0463 -0.0899
 3015W        W45953  17.737  14.277   2.763  0.0899 -0.0561  0.0570
 3016W        W45954  17.636  18.227   3.864  0.0150  0.0858 -0.1277
 3017W        W45955  17.668  14.825   3.581  0.1938 -0.4304  0.0276
 3018W        W45956  17.446  17.172   3.768  0.1160 -0.0535  0.0904
 3019W        W45957  14.367  15.016   5.406 -0.1703  0.1031 -0.2932
 3020W        W45958  15.884  13.268   1.755 -0.0193 -0.4367  0.1211
 3021W        W45959  14.802  17.636   6.084 -0.1085 -0.0803  0.1052
 3022W        W45960  18.714  15.022   5.245 -0.2427 -0.0781 -0.0842
 3023W        W45961  16.321  17.280   5.987  0.1125 -0.5256 -0.2070
 3024W        W45962  16.712  16.538   2.653 -0.4123 -0.3067 -0.2200
 3025W        W45963  14.265  15.845   2.498  0.1619  0.1311  0.0991
 3026W        W45964  15.639  15.981   2.938 -0.2283 -0.0333  0.1144
 3027W        W45965  18.162  15.220   6.053 -0.1758  0.4276 -0.0993
 3028W        W45966  16.992  17.179   1.194 -0.2286  0.1044 -0.3151
 3029W        W45967  15.197  15.421   3.453  0.1081  0.0006  0.1202
 3030W        W45968  15.780  17.947   4.303  0.0391 -0.2958 -0.0420
 3031W        W45969  14.152  17.116   4.957 -0.3234  0.0693  0.1126
 3032W        W45970  15.168  16.653   6.204  0.1019 -0.2301  0.0529
 3033W        W45971  14.007  15.339   4.061 -0.1218  0.1805 -0.1936
 3034W        W45972  16.996  15.506   4.573 -0.0203  0.0543  0.1050
 3035W        W45973  14.664  14.461   6.902 -0.1981  0.0164 -0.2021
 3036W        W45974  17.298  14.444   5.597  0.0232  0.0070 -0.1341
 3037W        W45975  14.621  16.160   5.395  0.4191  0.0988 -0.0896
 3038W        W45976  17.491  16.506   4.488 -0.0456  0.0563 -0.2638
 3039W        W45977  15.438  15.666   5.712  0.0268  0.1649 -0.2507
 3040W        W45978  15.146  15.323   5.920  0.5569 -0.2425 -0.0949
 3041W        W45979  15.851  15.215   1.786  0.1609  0.0596 -0.2634
 3042W        W45980  17.589  16.058   4.774  0.0654 -0.1230 -0.0947
 3043W        W45981  16.366  16.202   2.361  0.1826 -0.1752 -0.0052
 3044W        W45982  16.809  16.719   5.630  0.5345 -0.1160 -0.1215
 3045W        W45983  14.868  15.409   4.825 -0.2106  0.3400  0.1969
 3046W        W45984  16.166  15.140   2.359  0.1086  0.3995 -0.2842
 3047W        W45985  15.481  15.940   3.405 -0.1188 -0.0023 -0.1924
 3048W        W45986  15.480  17.392   6.709  0.1406  0.1470  0.1697
 3049W        W45987  17.481  16.881   6.102  0.2847  0.2682 -0.3119
 3050W        W45988  16.078  14.006   3.600 -0.0437 -0.3257  0.3522
 3051W        W45989  19.092  15.712   2.196  0.1942 -0.0164 -0.2693
 3052W        W45990  16.910  16.200   4.709  0.0597 -0.0164 -0.0937
 3053W        W45991  13.386  17.627   3.790 -0.3324 -0.1629  0.1137
 3054W        W45992  15.200  15.514   5.201 -0.0416 -0.1115  0.4183
 3055W        W45993  16.672  16.163   4.278  0.0103  0.1773 -0.3024
 3056W        W45994  13.963  15.033   5.758 -0.1644  0.1152 -0.0629
 3057W        W45995  16.605  16.905   4.785 -0.0001  0.1314  0.0040
 3058W        W45996  18.440  16.710   4.535  0.2795 -0.0392  0.1519
 3059W        W45997  16.287  13.796   1.702 -0.0191 -0.3695  0.1537
 3060W        W45998  13.615  16.282   3.186 -0.2284  0.1761  0.1584
 3061W        W45999  14.999  17.772   3.947  0.0524 -0.3088 -0.0947
 3062W        W46000  17.723  14.532   3.949 -0.4190 -0.3002 -0.0031
 3063W        W46001  17.168  15.806   4.980 -0.3562 -0.1661 -0.2412
 3064W        W46002  16.089  16.602   2.276 -0.1833 -0.1809 -0.1436
 3065W        W46003  18.902  15.661   5.689 -0.0092  0.5513 -0.0537
 3066W        W46004  16.538  16.334   5.782 -0.1053 -0.0248 -0.3224
 3067W        W46005  15.862  17.663   7.492 -0.2013 -0.1054 -0.0622
 3068W        W46006  14.334  16.385   3.922 -0.0078  0.1562 -0.1895
 3069W        W46007  17.114  16.971   6.480 -0.0513  0.1092 -0.3743
 3070W        W46008  16.228  16.768   5.848 -0.1337 -0.3544  0.1009
 3071W        W46009  15.827  17.177   3.595 -0.0960  0.2397  0.0161
 3072W        W46010  18.475  18.034   4.439  0.0361  0.1091  0.1574
 3073W        W46011  15.991  15.827   3.663  0.1605  0.0057  0.0333
 3074W        W46012  18.393  18.694   4.900  0.0704 -0.2301  0.2177
 3075W        W46013  15.188  15.062   3.877 -0.3297 -0.1589  0.0720
 3076W        W46014  16.733  15.103   3.352 -0.1605  0.0098  0.0677
 3077W        W46015  16.741  14.483   2.830  0.0635  0.1456 -0.1151
 3078W        W46016  14.902  16.453   6.912 -0.1529  0.4659 -0.0469
 3079W        W46017  13.017  16.565   2.476 -0.1180  0.1354 -0.2703
 3080W        W46018  14.504  16.056   2.899  0.1784  0.0221 -0.0086
 3081W        W46019  14.793  15.892   4.349  0.0215  0.0790  0.0119
 3082W        W46020  14.791  14.769   8.653 -0.1136  0.0861  0.0602
 3083W        W46021  15.061  15.796   6.124 -0.0267  0.2116 -0.2340
 3084W        W46022  14.268  15.788   3.997  0.0721  0.0790  0.1044
 3085W        W46023  14.624  14.895   4.970  0.2361 -0.0862 -0.0909
 3086W        W46024  16.175  16.727   4.026  0.1602 -0.3727  0.5201
 3087W        W46025  14.679  15.654   5.311 -0.1865 -0.1226  0.2167
 3088W        W46026  13.343  13.900   5.658 -0.1335 -0.0565  0.2917
 3089W        W46027  17.175  16.324   4.197 -0.1553 -0.0164  0.1449
 3090W        W46028  17.206  18.268   4.184 -0.0629  0.0276  0.1506
 3091W        W46029  16.035  14.498   2.369  0.0260 -0.0728  0.1352
 3092W        W46030  17.367  16.283   5.392  0.1019 -0.0097  0.2455
 3093W        W46031  13.953  16.290   2.286  0.0299  0.0288  0.0422
 3094W        W46032  15.493  15.042   6.176 -0.0356  0.0927  0.1212
 3095W        W46033  15.259  14.776   5.725  0.2729 -0.1405  0.1277
 3096W        W46034  14.757  15.416   2.711  0.0804  0.0119  0.0182
 3097W        W46035  15.427  15.005   4.952 -0.1608  0.1689 -0.0666
 3098W        W46036  16.078  16.234   4.186 -0.2602 -0.1018  0.1633
 3099W        W46037  16.754  17.820   3.805 -0.1586  0.0414 -0.2504
 3100W        W46038  16.466  15.305   6.130 -0.1998 -0.2437  0.0364
 3101W        W46039  15.277  17.897   4.834 -0.0553 -0.1664  0.0346
 3102W        W46040  14.214  14.547   5.569  0.3276 -0.1792 -0.1086
 3103W        W46041  17.344  16.577   3.659  0.0559  0.0451 -0.2637
 3104W        W46042  15.879  17.110   5.716  0.1466 -0.1514 -0.0431
 3105W        W46043  17.804  16.777   4.000  0.1921  0.0604  0.0697
 3106W        W46044  17.224  14.867   5.270  0.2317 -0.0545 -0.2818
 3107W        W46045  15.736  15.013   3.202  0.1436 -0.1175  0.0477
 3108W        W46046  14.885  14.382   6.354 -0.3809  0.0941 -0.1850
 3109W        W46047  15.818  15.969   6.978 -0.1112 -0.0389 -0.0181
 3110W        W46048  18.218  16.925   4.974 -0.3647  0.1279  0.0416
 3111W        W46049  14.895  14.976   2.959  0.2114 -0.2172 -0.0932
 3112W        W46050  16.208  15.245   2.913 -0.2055  0.0587  0.0999
 3113W        W46051  17.481  16.957   2.812 -0.0845 -0.3781  0.3419
 3114W        W46052  14.128  14.837   4.928  0.0001 -0.3888  0.1591
 3115W        W46053  15.690  15.380   3.665  0.0146 -0.2142 -0.0681
 3116W        W46054  15.875  15.781   5.385 -0.0929  0.1118  0.0567
 3117W        W46055  16.117  17.302   4.720 -0.0059 -0.0389  0.0144
 3118W        W46056  16.856  16.350   6.616  0.0135 -0.2356 -0.0276
 3119W        W46057  15.350  15.841   1.361  0.2775  0.2681 -0.2453
 3120W        W46058  16.487  15.958   3.387 -0.3046 -0.0021  0.3311
 3121W        W46059  17.251  17.651   5.958 -0.1364 -0.0488 -0.0765
 3122W        W46060  18.008  18.426   6.361  0.1026 -0.1821  0.2113
 3123W        W46061  17.569  17.855   6.618 -0.0321  0.3638  0.2284
 3124W        W46062  18.567  15.128   3.025  0.0658 -0.2398 -0.0031
 3125W        W46063  14.609  13.601   5.890 -0.1653 -0.3554 -0.1341
 3126W        W46064  14.401  15.679   3.529  0.2388 -0.2386  0.0478
 3127W        W46065  14.757  16.130   3.877  0.0620 -0.2744  0.1454
 3128W        W46066  16.306  16.002   4.680  0.2167 -0.0645  0.4305
 3129W        W46067  15.016  14.537   5.286 -0.0550  0.0014  0.3204
 3130W        W46068  16.209  13.877   4.562  0.1232 -0.1121 -0.1280
 3131W        W46069  15.489  17.038   5.472 -0.1191 -0.2227 -0.0886
 3132W        W46070  15.881  15.420   5.016 -0.1143 -0.1554 -0.1367
 3133W        W46071  12.328  16.444   9.293  0.2023  0.0469  0.0517
 3134W        W46072  15.321  15.430   8.178  0.1083  0.6514  0.1530
 3135W        W46073  17.575  15.477   6.595  0.0563  0.0998  0.0367
 3136W        W46074  17.077  16.248   7.157  0.0679 -0.1574 -0.1465
 3137W        W46075  17.407  14.309   9.382 -0.0039  0.0445 -0.2214
 3138W        W46076  17.538  18.223   5.951 -0.0324 -0.0574 -0.4043
 3139W        W46077  17.788  15.742   9.250 -0.1131 -0.0113 -0.1579
 3140W        W46078  18.014  16.194   8.069  0.0076  0.0746  0.2164
 3141W        W46079  16.228  14.636   6.745 -0.0345  0.1500 -0.1261
 3142W        W46080  15.074  16.725   8.677  0.0537 -0.0515 -0.3268
 3143W        W46081  16.706  14.894   7.933  0.1599 -0.0887  0.0744
 3144W        W46082  14.836  14.236   8.467 -0.1338  0.0299  0.1033
 3145W        W46083  17.512  15.330   9.407  0.2397 -0.4601  0.2571
 3146W        W46084  14.885  15.466   7.857  0.0401  0.1823  0.0780
 3147W        W46085  16.153  14.283   9.264  0.1572 -0.0371  0.0092
 3148W        W46086  14.719  17.059   8.495 -0.1138  0.1836  0.0855
 3149W        W46087  15.544  16.953   8.764 -0.1354  0.3511 -0.1745
 3150W        W46088  15.588  18.459   9.702 -0.2858 -0.0108  0.0140
 3151W        W46089  16.223  16.997   7.883  0.0932  0.1781  0.1720
 3152W        W46090  14.457  15.740   7.881 -0.1807  0.1251  0.1093
 3153W        W46091  13.549  13.873   9.349  0.0664  0.3929  0.0146
 3154W        W46092  14.502  16.032   9.036 -0.0147  0.0937 -0.0559
 3155W        W46093  18.136  16.490   9.956  0.2853  0.3077 -0.1537
 3156W        W46094  17.887  15.606   8.792  0.0189  0.1450  0.0360
 3157W        W46095  15.424  15.924   8.454 -0.6686  0.0666 -0.2621
 3158W        W46096  16.731  16.771   8.475  0.0016  0.4498  0.0207
 3159W        W46097  13.351  16.436   8.800 -0.4066 -0.4028  0.0204
 3160W        W46098  13.611  18.064   7.709 -0.2588  0.0526 -0.0895
 3161W        W46099  15.667  17.973   9.580  0.1206 -0.1160 -0.1188
 3162W        W46100  17.148  15.853   6.202 -0.0351 -0.0655 -0.1881
 3163W        W46101  15.801  16.176   7.924 -0.0995  0.1286  0.2691
 3164W        W46102  16.852  15.921   8.921  0.1407 -0.2542 -0.0988
 3165W        W46103  16.681  15.415   8.827  0.0430 -0.1075 -0.0581
 3166W        W46104  16.519  17.211   8.222 -0.2060 -0.1540  0.3254
 3167W        W46105  16.326  16.670   7.515 -0.4107 -0.0762 -0.3281
 3168W        W46106  14.140  15.970   9.906 -0.0835 -0.1990 -0.2193
 3169W        W46107  16.424  16.430   6.787  0.2320 -0.0244 -0.1435
 3170W        W46108  17.363  15.663   5.625  0.1443 -0.2708  0.2899
 3171W        W46109  16.227  15.740   6.207  0.2283  0.3074 -0.1214
 3172W        W46110  17.125  14.792   7.092  0.1990  0.0237 -0.0847
 3173W        W46111  16.344  14.821   8.221 -0.0893 -0.0829  0.0659
 3174W        W46112  14.678  16.490   9.086  0.1597 -0.0538 -0.1210
 3175W        W46113  16.375  15.112  10.718 -0.0849 -0.0603  0.3346
 3176W        W46114  16.312  16.193   7.765 -0.2768 -0.3388 -0.1065
 3177W        W46115  17.336  16.379   9.574 -0.3166 -0.1243  0.2920
 3178W        W46116  13.876  18.693   9.615  0.1384  0.3950 -0.0742
 3179W        W46117  15.375  16.514   7.858  0.4045  0.1137 -0.1190
 3180W        W46118  18.347  17.690   5.936  0.1115 -0.1701 -0.0118
 3181W        W46119  17.824  16.653   7.941 -0.0474 -0.0666 -0.0177
 3182W        W46120  17.035  18.044   5.720 -0.2058 -0.2587  0.0327
 3183W        W46121  13.376  16.707   7.916 -0.1641 -0.0569  0.0123
 3184W        W46122  16.063  13.801   7.128 -0.0478  0.3017 -0.0973
 3185W        W46123  18.225  14.742   7.624 -0.2261  0.0147  0.0366
 3186W        W46124  14.976  15.716   8.848  0.0548 -0.3204 -0.1610
 3187W        W46125  18.645  16.762   9.751 -0.2715 -0.0405  0.4039
 3188W        W46126  17.611  15.653   5.167  0.0457  0.0082 -0.1576
 3189W        W46127  18.200  14.783   8.691 -0.0030  0.4619  0.0558
 3190W        W46128  17.738  15.933   8.370  0.1235 -0.2139 -0.2187
 3191W        W46129  14.686  17.321   5.067 -0.0998  0.0246  0.1610
 3192W        W46130  15.631  15.713   7.972 -0.1815 -0.0794  0.2014
 3193W        W46131  18.337  16.800   8.777 -0.0785  0.1406  0.1264
 3194W        W46132  16.937  15.642   5.371  0.2448  0.1363 -0.1716
 3195W        W46133  15.062  19.476  10.005  0.1603 -0.0633 -0.0213
 3196W        W46134  15.799  16.727   7.784  0.0016  0.1860 -0.0635
 3197W        W46135  13.272  14.654   8.956  0.0144  0.0387  0.2552
 3198W        W46136  14.477  17.995   8.477 -0.0199 -0.1167 -0.2099
 3199W        W46137  16.166  15.215   8.974 -0.0012 -0.0401  0.1945
 3200W        W46138  12.923  12.758  10.182 -0.1279 -0.0133 -0.0368
 3201W        W46139  16.863  15.184   6.864 -0.1117  0.2945 -0.1926
 3202W        W46140  17.803  15.382   8.311 -0.0304 -0.4204 -0.1505
 3203W        W46141  15.698  16.708   8.301 -0.0882 -0.1165  0.0720
 3204W        W46142  17.022  17.647   7.745 -0.0400 -0.1829 -0.5957
 3205W        W46143  16.862  15.055   6.035 -0.0830 -0.4149 -0.1730
 3206W        W46144  16.525  17.455   7.286  0.1194 -0.0402  0.3107
 3207W        W46145  16.157  16.544   9.428 -0.2119 -0.0681 -0.0840
 3208W        W46146  14.701  15.401   8.652  0.0789 -0.0058  0.2389
 3209W        W46147  16.701  14.960   7.448 -0.2461  0.1488  0.1254
 3210W        W46148  14.673  14.868   7.853  0.0587  0.1898 -0.1026
 3211W        W46149  17.328  15.238   8.586  0.0591 -0.1201  0.0377
 3212W        W46150  16.754  16.845   7.853  0.1631  0.2773  0.2793
 3213W        W46151  15.186  16.047   7.007  0.1560 -0.0448 -0.2100
 3214W        W46152  17.481  18.929   7.238 -0.2850 -0.0586  0.0956
 3215W        W46153  16.157  17.480   7.954 -0.1978 -0.0434 -0.2094
 3216W        W46154  17.988  17.069   8.238 -0.2217  0.2347 -0.3099
 3217W        W46155  15.639  15.213   9.080 -0.2052 -0.0661  0.0520
 3218W        W46156  15.959  14.298   7.099 -0.1431 -0.1083 -0.1842
 3219W        W46157  15.215  17.224   8.545 -0.0058 -0.0294  0.0367
 3220W        W46158  15.971  16.150   8.393  0.0576 -0.0364  0.0798
 3221W        W46159  16.915  15.662   8.502 -0.0563 -0.0330 -0.0517
 3222W        W46160  17.821  16.793   8.635 -0.0757  0.0159 -0.1683
 3223W        W46161  17.255  17.174   7.857  0.0914  0.0194 -0.2873
 3224W        W46162  17.533  16.205   7.781  0.1196  0.3897 -0.1929
 3225W        W46163  17.382  15.712   8.713  0.0764 -0.1996 -0.0542
 3226W        W46164  14.951  14.671   7.405  0.2647 -0.3119 -0.1239
 3227W        W46165  17.070  16.143   8.042 -0.2172 -0.1039  0.0358
 3228W        W46166  15.115  17.950   8.089  0.0070 -0.0020 -0.1662
 3229W        W46167  13.059  17.050   7.654  0.3316 -0.2010  0.1308
 3230W        W46168  16.614  17.330   7.777 -0.1283 -0.0001  0.4668
 3231W        W46169  16.058  15.050   6.609 -0.1118  0.2009  0.0532
 3232W        W46170  16.482  15.440   6.646  0.1319  0.1726 -0.4891
 3233W        W46171  16.580  14.927   6.489  0.0332  0.2734  0.1400
 3234W        W46172  17.925  15.318   7.041  0.1840 -0.2539  0.1107
 3235W        W46173  17.269  17.353   6.851  0.0821 -0.0135 -0.0395
 3236W        W46174  14.294  14.798   6.976  0.0952  0.0376  0.2400
 3237W        W46175  17.560  14.072   6.658  0.3831 -0.1171 -0.1624
 3238W        W46176  17.492  17.377   8.273 -0.0252  0.2582  0.0095
 3239W        W46177  14.215  18.206   9.396  0.0942  0.1326 -0.0415
 3240W        W46178  15.785  15.589   8.456 -0.1494  0.0036 -0.3079
 3241W        W46179  18.009  17.578   7.380 -0.0775  0.0379  0.4080
 3242W        W46180  14.297  16.872   8.268  0.0756  0.4355 -0.1677
 3243W        W46181  16.992  16.954   7.441 -0.0475  0.0606  0.2839
 3244W        W46182  17.791  15.619   9.746  0.0462  0.1002  0.2386
 3245W        W46183  15.423  16.627   6.966 -0.0631  0.1649 -0.3211
 3246W        W46184  15.062  15.261   7.378  0.0549  0.1145 -0.3030
 3247W        W46185  13.297  18.001   6.983 -0.0550  0.3657  0.0035
 3248W        W46186  17.038  14.056  11.221  0.1427 -0.4281 -0.1895
 3249W        W46187  17.879  16.208   9.501  0.0585 -0.0301  0.0173
 3250W        W46188  15.947  15.290   6.221 -0.2185  0.0032 -0.1550
 3251W        W46189  16.639  15.268  10.053  0.0389  0.1833 -0.0752
 3252W        W46190  14.957  16.055   6.578  0.2410 -0.0094  0.1815
 3253W        W46191  14.114  13.942   9.489 -0.3953  0.0055 -0.0059
 3254W        W46192  17.241  16.833   9.801 -0.3050  0.1061 -0.1731
 3255W        W46193  16.823  15.838   6.708  0.2097 -0.1824 -0.1462
 3256W        W46194  15.495  14.912   8.254  0.1724 -0.1410 -0.2764
 3257W        W46195  16.588  17.401   8.712 -0.0058  0.0507  0.0111
 3258W        W46196  16.421  15.731   7.065  0.1145  0.5142  0.1830
 3259W        W46197  15.703  15.673   9.473  0.2157  0.1642  0.1559
 3260W        W46198  17.674  17.499   9.066  0.1567 -0.1373  0.1078
 3261W        W46199  16.168  17.166   7.431 -0.0212  0.0090 -0.0387
 3262W        W46200  17.450  17.114   9.243 -0.0554 -0.0910 -0.2956
 3263W        W46201  15.925  17.140   9.043  0.0822 -0.0019  0.1572
 3264W        W46202  18.679  15.826   8.672 -0.2116 -0.2226 -0.1291
 3265W        W46203  13.164  18.580   8.466 -0.0998 -0.0576 -0.0273
 3266W        W46204  15.911  15.406   7.070  0.1707 -0.2721 -0.0395
 3267W        W46205  13.488  16.392   7.037 -0.0942  0.1941  0.1407
 3268W        W46206  16.918  15.428   6.370 -0.1947  0.0710  0.0124
 3269W        W46207  17.793  15.972   5.528 -0.2789 -0.0971 -0.1608
 3270W        W46208  12.769  13.290   9.724 -0.2318  0.2966 -0.0209
 3271W        W46209  16.928  14.204   8.664 -0.0889  0.1052  0.1825
 3272W        W46210  17.981  17.709   9.673 -0.1814  0.2252  0.1212
 3273W        W46211  17.204  14.295   7.121  0.0850 -0.1993 -0.2514
 3274W        W46212  14.639  16.060   7.210  0.1363  0.2053 -0.2176
 3275W        W46213  18.712  15.761   9.169 -0.2910 -0.0979 -0.1177
 3276W        W46214  14.872  15.304   9.578  0.2594  0.3447  0.2227
 3277W        W46215  14.404  16.351   9.543 -0.2351 -0.0080 -0.2519
 3278W        W46216  17.571  16.411   8.353 -0.1465 -0.2443  0.3177
 3279W        W46217  14.893  15.810   8.310  0.1980  0.1900 -0.5261
 3280W        W46218  14.922  17.103   8.982 -0.2928 -0.0002 -0.1361
 3281W        W46219  15.839  15.072   8.589  0.0292 -0.0086 -0.2554
 3282W        W46220  16.297  15.481   8.415 -0.3442  0.0343  0.1161
 3283W        W46221  16.021  15.332   7.969 -0.0948  0.3453  0.0174
 3284W        W46222  15.720  16.501   9.215 -0.0464 -0.1655  0.2345
 3285W        W46223  16.662  16.597   9.514 -0.0436 -0.1110  0.3174
 3286W        W46224  16.449  15.520   7.656  0.0705 -0.1260  0.1329
 3287W        W46225  17.748  13.788   9.495  0.2255 -0.2163  0.0480
 3288W        W46226  17.276  18.171   6.886 -0.0644 -0.0137 -0.1230
 3289W        W46227  14.868  16.335   7.803  0.3160  0.3367  0.3874
 3290W        W46228  13.870  13.974   8.982 -0.0527 -0.0058 -0.1159
 3291W        W46229  17.854  17.446   8.606 -0.0008  0.1848  0.0944
 3292W        W46230  16.893  14.808   9.416 -0.1912 -0.0808 -0.0092
 3293W        W46231  15.653  17.443   9.444  0.3081  0.2920 -0.1391
 3294W        W46232  14.358  17.521   8.807 -0.0117  0.1161  0.1394
 3295W        W46233  13.753  16.332   9.679  0.0178 -0.2268  0.1960
 3296W        W46234  18.108  15.011   8.082  0.0025  0.0000 -0.1728
 3297W        W46235  17.280  15.762   7.546 -0.1100 -0.0104  0.0748
 3298W        W46236  15.768  14.924   9.485 -0.5234  0.1633  0.0345
 3299W        W46237  17.879  16.716   7.116  0.1940  0.2783  0.2330
 3300W        W46238  16.905  14.492   8.169 -0.1802  0.0602 -0.3280
 3301W        W46239  17.395  16.622   7.168  0.0654  0.1551  0.0618
 3302W        W46240  15.545  15.093   7.161 -0.3368 -0.1746 -0.0922
 3303W        W46241  16.323  14.239   7.484  0.1926  0.1362 -0.1111
 3304W        W46242  14.538  18.657   8.610 -0.4338 -0.3593  0.0101
 3305W        W46243  18.079  16.415   9.069  0.1131  0.2417 -0.0061
 3306W        W46244  16.451  17.695   6.835  0.0088  0.0284 -0.2719
 3307W        W46245  18.180  15.661   7.900  0.1111  0.1849  0.0557
 3308W        W46246  15.331  15.478   8.657  0.0812  0.0443 -0.0633
 3309W        W46247  17.641  15.906   6.013 -0.1493 -0.2703  0.0867
 3310W        W46248  16.355  17.040   6.678  0.3731 -0.5225  0.4395
 3311W        W46249  15.919  15.713   8.932 -0.3102 -0.0880  0.0494
 3312W        W46250  18.384  15.385   8.791 -0.1390  0.0505 -0.0704
 3313W        W46251  16.672  15.402   8.091  0.0880  0.0299 -0.1427
 3314W        W46252  18.292  17.344   8.922  0.0790  0.3875  0.0643
 3315W        W46253  17.524  15.050   6.914  0.0570  0.1903  0.1724
 3316W        W46254  19.857  16.591   9.062  0.2923  0.0226 -0.2236
 3317W        W46255  17.254  15.703   6.957  0.0534 -0.2754 -0.0314
 3318W        W46256  16.926  15.503   7.241  0.2106  0.0104 -0.0050
 3319W        W46257  14.961  15.167   9.079 -0.0698  0.0854  0.2151
 3320W        W46258  14.538  15.559   7.469 -0.0285  0.0360  0.0434
 3321W        W46259  16.327  17.951   7.228 -0.1479 -0.1073 -0.1512
 3322W        W46260  17.266  17.250  10.059  0.3415 -0.1498 -0.0014
 3323W        W46261  17.397  15.274   7.361 -0.1845 -0.0265  0.0268
 3324W        W46262  14.644  13.981   9.295  0.0945 -0.0522  0.1373
 3325W        W46263  15.043  15.773   7.478 -0.1821  0.0791  0.0996
 3326W        W46264  15.887  16.438   7.285  0.1419 -0.1534  0.0818
 3327W        W46265  17.910  17.042   9.032 -0.0062 -0.1086  0.1967
 3328W        W46266  16.137  15.235   7.444 -0.0876  0.0325  0.2044
 3329W        W46267  14.757  17.254   7.953 -0.1528 -0.1219  0.0894
 3330W        W46268  18.087  14.729   9.190 -0.0161  0.2928  0.1846
 3331W        W46269  17.594  18.806  10.027  0.1087  0.2961  0.1258
 3332W        W46270  15.164  16.485   9.141 -0.3399  0.0194  0.1911
 3333W        W46271  19.480  14.537   8.970  0.2161  0.3100  0.1806
 3334W        W46272  17.647  15.130   7.865  0.0851 -0.2102 -0.0718
 3335W        W46273  15.422  15.949   9.004 -0.0536 -0.1828  0.4831
 3336W        W46274  13.922  17.042   9.183  0.0168  0.0708 -0.0316
 3337W        W46275  16.841  15.945   7.679  0.0406 -0.3512  0.1343
 3338W        W46276  15.577  17.817   9.067  0.1591  0.0212  0.0719
 3339W        W46277  16.413  17.058   9.496  0.1001 -0.0656  0.0626
 3340W        W46278  16.331  14.831   8.743 -0.1757 -0.2465  0.1987
 3341W        W46279  15.624  17.180   4.841  0.2906 -0.0122 -0.2812
 3342W        W46280  13.939  14.713   8.228  0.1626 -0.2600 -0.0444
 3343W        W46281  16.622  16.426   8.074  0.3292  0.0406  0.0128
 3344W        W46282  16.577  16.183   7.195  0.0072  0.0981 -0.0172
 3345W        W46283  16.513  16.924   7.124 -0.0891  0.0606  0.0871
 3346W        W46284  17.649  16.594   9.233 -0.0410  0.0663  0.2111
 3347W        W46285  15.425  15.600   7.170 -0.1268  0.2160 -0.0677
 3348W        W46286  14.084  17.381   7.362 -0.0518  0.0928 -0.1226
 3349W        W46287  15.356  17.586   7.338  0.0591 -0.0828  0.0689
 3350W        W46288  16.396  17.117   5.516 -0.0914 -0.2385  0.1368
 3351W        W46289  16.744  17.118  10.530 -0.0934 -0.1903 -0.2708
 3352W        W46290  17.990  15.645   6.263 -0.2738 -0.4817 -0.1102
 3353W        W46291  18.319  16.704   8.238  0.0533 -0.0503  0.0954
 3354W        W46292  18.782  15.765   7.561  0.0235 -0.3734 -0.0142
 3355W        W46293  15.014  15.996   9.269 -0.0178  0.1824 -0.0725
 3356W        W46294  16.261  15.952   6.666 -0.0284 -0.0586 -0.1572
 3357W        W46295  17.571  17.667   7.126  0.3074 -0.0723 -0.1065
 3358W        W46296  14.178  15.161   7.766 -0.1666  0.3067 -0.0042
 3359W        W46297  15.174  15.934   7.973 -0.0378 -0.1488 -0.3679
 3360W        W46298  17.522  14.816   9.381  0.0167 -0.0651  0.1152
 3361W        W46299  16.893  16.213   5.261 -0.0264  0.0404 -0.2114
 3362W        W46300  16.953  16.443   7.607 -0.0487 -0.4228 -0.1255
 3363W        W46301  16.000  17.109   8.430  0.0835 -0.0361  0.1036
 3364W        W46302  15.777  17.471   8.661 -0.1431  0.1088  0.1383
 3365W        W46303  16.104  18.032   9.331  0.1054 -0.3056 -0.0384
 3366W        W46304  12.779  14.565   7.620  0.2567  0.0326 -0.1836
 3367W        W46305  18.338  15.327   8.323 -0.1021 -0.2081 -0.3250
 3368W        W46306  16.528  15.662   9.249  0.0438 -0.0997 -0.1577
 3369W        W46307  14.924  16.189   8.786  0.0428  0.0253  0.0736
 3370W        W46308  16.396  15.104   7.021  0.0830 -0.0770  0.2942
 3371W        W46309  16.973  16.757  10.171  0.0774 -0.0451  0.0964
 3372W        W46310  15.222  14.901   9.426  0.3670 -0.0368 -0.0275
 3373W        W46311  15.560  16.057   7.447 -0.3930 -0.1913 -0.0128
 3374W        W46312  14.917  14.022   6.732 -0.0734 -0.1308 -0.0677
 3375W        W46313  15.691  14.922   7.771 -0.1519 -0.1212 -0.2659
 3376W        W46314  18.274  14.186   6.402  0.0679 -0.2184  0.0246
 3377W        W46315  14.003  17.894   8.464  0.0159  0.0961 -0.2429
 3378W        W46316  14.576  15.858   9.579  0.0783 -0.2207 -0.0022
 3379W        W46317  14.542  14.015   8.097 -0.1934 -0.1631  0.4195
 3380W        W46318  17.586  17.378   6.374  0.1509  0.1036 -0.2338
 3381W        W46319  17.669  15.700   7.816  0.1187 -0.2603 -0.0537
 3382W        W46320  15.005  17.384   6.784  0.3067  0.0391  0.0179
 3383W        W46321  17.522  16.132   7.263 -0.1103  0.1836 -0.0499
 3384W        W46322  16.553  17.909   9.619  0.2762  0.1313  0.3579
 3385W        W46323  12.095  16.412   9.784 -0.2111  0.1102  0.1499
 3386W        W46324  14.899  16.387   9.562 -0.0479  0.3175  0.0567
 3387W        W46325  19.264  17.254   7.156 -0.2387 -0.0122  0.1744
 3388W        W46326  18.037  13.619   9.863 -0.2189  0.1322  0.0102
 3389W        W46327  15.118  16.313   8.323 -0.1630  0.0869 -0.1684
 3390W        W46328  14.941  18.319   8.490 -0.0628 -0.1221  0.2570
 3391W        W46329  18.996  14.915   9.390 -0.1933 -0.2025  0.0047
 3392W        W46330  16.000  17.598   7.004 -0.2646  0.1071 -0.0279
 3393W        W46331  13.664  15.738   9.053  0.1059 -0.1336 -0.0396
 3394W        W46332  14.016  16.912   7.597 -0.2415  0.2707  0.1163
 3395W        W46333  15.767  17.240   7.745 -0.3075 -0.1055  0.3018
 3396W        W46334  17.790  17.973   7.561  0.2940 -0.0928  0.0013
 3397W        W46335  18.332  16.991   7.838  0.1219  0.1598 -0.2660
 3398W        W46336  16.917  16.740   6.927  0.0332  0.2806 -0.1595
 3399W        W46337  17.536  16.927   6.793 -0.0933  0.0477 -0.0969
 3400W        W46338  16.126  15.787   8.100  0.1154  0.3087  0.0438
 3401W        W46339  17.149  14.755   8.559 -0.1153  0.0697 -0.0745
 3402W        W46340  18.011  15.365   7.558  0.1705  0.0936  0.2450
 3403W        W46341  13.076  15.068   9.359  0.1558  0.1906  0.3484
 3404W        W46342  15.217  16.379   7.410  0.0142  0.1853  0.0643
 3405W        W46343  13.901  17.598   8.080  0.1915  0.0446 -0.3029
 3406W        W46344  13.435  15.331   8.876 -0.4508 -0.0131  0.3988
 3407W        W46345  13.196  16.934   8.396 -0.2715 -0.1130 -0.2220
 3408W        W46346  14.952  15.113   8.354 -0.0554 -0.0557 -0.0003
 3409W        W46347  18.095  17.964   6.559 -0.0721 -0.2234 -0.3831
 3410W        W46348  16.589  14.444   9.039 -0.0247 -0.2252 -0.2383
 3411W        W46349  14.403  15.062   8.943 -0.0480  0.2124  0.1736
 3412W        W46350  17.047  17.489   6.396 -0.0477  0.1166 -0.1358
 3413W        W46351  17.100  16.638   8.214  0.4904 -0.4531  0.1060
 3414W        W46352  16.726  15.018   8.451 -0.1716 -0.1726  0.3484
 3415W        W46353  15.655  15.363   7.567 -0.0968 -0.2564 -0.2402
 3416W        W46354  15.067  13.953   7.999 -0.2470  0.1508 -0.0840
 3417W        W46355  15.577  16.630   9.686 -0.1343  0.1927  0.2962
 3418W        W46356  17.264  16.155   9.069  0.0418 -0.2293  0.0329
 3419W        W46357  15.743  17.844   6.316  0.0345 -0.2566  0.1983
 3420W        W46358  13.925  15.261   9.143 -0.0845 -0.0391  0.2308
 3421W        W46359  16.641  16.321   8.612  0.0686  0.1503 -0.0670
 3422W        W46360  16.636  15.914   8.147 -0.2896 -0.0665  0.0849
 3423W        W46361  18.562  13.588   9.653  0.2339  0.1502 -0.0408
 3424W        W46362  17.693  15.666   7.226 -0.2261 -0.2152  0.0993
 3425W        W46363  19.452  17.106   7.571 -0.2286  0.2596  0.0821
 3426W        W46364  15.587  14.397   8.031 -0.0810 -0.0781 -0.1981
 3427W        W46365  18.178  14.118   5.783 -0.0857  0.1575 -0.0132
 3428W        W46366  17.040  17.600   7.174 -0.5095  0.0879 -0.0176
 3429W        W46367  14.256  15.692   8.323 -0.3362  0.2510  0.1558
 3430W        W46368  15.953  15.591   6.642  0.1249 -0.1654  0.0251
 3431W        W46369  16.441  16.151   9.195  0.0065 -0.3295  0.2804
 3432W        W46370  16.034  16.844   7.025 -0.3447  0.0801 -0.3203
 3433W        W46371  18.152  17.452   6.347 -0.0712  0.0387 -0.0216
 3434W        W46372  18.874  18.036   9.660  0.3669  0.4223  0.0510
 3435W        W46373  17.701  18.167   9.867 -0.1273  0.2006 -0.0209
 3436W        W46374  18.106  16.269   8.577 -0.1100  0.1680  0.0260
 3437W        W46375  13.858  13.520   9.314 -0.0030 -0.0770 -0.2303
 3438W        W46376  16.204  16.613   8.371  0.1290 -0.1402  0.0943
 3439W        W46377  15.993  15.731   7.515 -0.1646 -0.2500  0.0468
 3440W        W46378  18.208  13.738   9.292  0.3112 -0.2168 -0.1043
 3441W        W46379  18.523  14.257   9.351 -0.1653 -0.2922  0.1573
 3442W        W46380  15.176  15.042   7.850 -0.1840 -0.1673 -0.1030
 3443W        W46381  14.305  16.854   9.409  0.0568  0.0784 -0.1581
 3444W        W46382  17.153  16.251   8.610 -0.2713  0.0179  0.1943
 3445W        W46383  16.859  20.930   1.656 -0.0811  0.0244 -0.0373
 3446W        W46384  15.944  18.252  31.079 -0.0171  0.2236 -0.4164
 3447W        W46385  17.487  19.764  30.869  0.0062  0.1190 -0.1213
 3448W        W46386  18.255  18.925  31.173 -0.0563 -0.0240 -0.0647
 3449W        W46387  13.350  20.213  30.386  0.1275  0.2658  0.0623
 3450W        W46388  17.985  20.375   0.028  0.1727  0.1946 -0.2435
 3451W        W46389  15.543  16.474   1.192  0.1238 -0.3612 -0.1768
 3452W        W46390  18.593  21.021   1.071  0.1455 -0.2253  0.2187
 3453W        W46391  17.558  20.756   1.392  0.6015  0.1042 -0.0755
 3454W        W46392  17.799  19.688  29.734 -0.0523 -0.1043  0.1407
 3455W        W46393  14.209  19.247   2.068 -0.0705  0.1973 -0.1405
 3456W        W46394  14.899  20.700   0.998  0.2046  0.1012  0.0372
 3457W        W46395  15.914  17.795  31.579  0.1158  0.2368 -0.1369
 3458W        W46396  14.149  18.416   1.680  0.3529  0.0005 -0.0940
 3459W        W46397  15.954  19.173   1.470 -0.0248  0.0488 -0.2178
 3460W        W46398  13.730  20.018  29.925  0.2681  0.2939  0.6218
 3461W        W46399  14.733  18.586   1.087 -0.3081 -0.0458 -0.0797
 3462W        W46400  17.308  19.947  31.891 -0.0478 -0.2889 -0.1466
 3463W        W46401  17.128  20.389   1.393  0.1925 -0.3331  0.1516
 3464W        W46402  14.717  17.125   3.180 -0.1375 -0.2079  0.1729
 3465W        W46403  16.529  18.322   0.792 -0.1708 -0.2279  0.4666
 3466W        W46404  16.018  19.655   0.759  0.0849  0.0649 -0.1098
 3467W        W46405  15.093  19.560  31.040 -0.0293 -0.0190  0.1189
 3468W        W46406  15.154  19.221   0.105 -0.2193 -0.1077  0.0376
 3469W        W46407  15.919  19.305  31.745 -0.1450 -0.2885  0.0750
 3470W        W46408  18.457  18.816   1.485  0.0521 -0.2379 -0.1701
 3471W        W46409  17.329  19.359  31.146 -0.1222 -0.2051  0.2446
 3472W        W46410  15.750  21.414  31.651  0.2966 -0.1056 -0.1588
 3473W        W46411  16.861  20.743   2.195 -0.0273  0.3395  0.4388
 3474W        W46412  16.571  18.927   2.245  0.1128 -0.0744 -0.1696
 3475W        W46413  14.971  18.378  30.858 -0.0882 -0.0313  0.0036
 3476W        W46414  15.055  22.000   0.934  0.1316  0.3150 -0.2926
 3477W        W46415  15.968  21.538  29.942  0.1089 -0.0195  0.1310
 3478W        W46416  18.388  20.350   0.377 -0.2483 -0.3045 -0.2203
 3479W        W46417  16.491  20.449   1.861  0.2436  0.0527 -0.1982
 3480W        W46418  14.841  21.788   2.250 -0.0169  0.0726 -0.3209
 3481W        W46419  14.297  19.978  31.211 -0.2422 -0.0162 -0.0163
 3482W        W46420  16.297  21.815   1.800  0.0799  0.2095  0.0784
 3483W        W46421  15.487  20.105   1.820 -0.2564 -0.2592  0.2352
 3484W        W46422  16.008  18.364  31.661 -0.0782  0.0153  0.2314
 3485W        W46423  16.915  19.753   0.749  0.0200 -0.0410  0.0028
 3486W        W46424  14.269  20.006   0.021  0.2673  0.1781  0.2136
 3487W        W46425  17.696  18.399   0.615  0.1050  0.2634  0.0490
 3488W        W46426  14.998  19.888   3.230 -0.2370 -0.0069 -0.1050
 3489W        W46427  14.869  19.898  31.659  0.2298  0.2096 -0.1264
 3490W        W46428  16.764  19.637   2.244  0.0126  0.0971  0.1079
 3491W        W46429  15.083  20.559  31.755  0.1890 -0.2730  0.1703
 3492W        W46430  18.092  18.477  30.272 -0.0315  0.0247 -0.1419
 3493W        W46431  16.481  19.401  29.835 -0.1131  0.0933  0.2481
 3494W        W46432  16.793  18.136  30.857 -0.0681  0.2114  0.1470
 3495W        W46433  16.170  18.744   0.719 -0.2030  0.2495 -0.0627
 3496W        W46434  15.258  21.117   1.584 -0.0491 -0.1636 -0.1226
 3497W        W46435  14.932  19.065   0.933  0.1836 -0.1157 -0.0461
 3498W        W46436  17.745  20.020   1.827 -0.0164  0.1684  0.0464
 3499W        W46437  16.819  18.586  30.405 -0.0174 -0.1474 -0.1765
 3500W        W46438  17.576  19.012   1.052  0.0385 -0.4247 -0.0819
 3501W        W46439  15.663  18.745   0.717 -0.1738  0.3134  0.0862
 3502W        W46440  15.254  20.010  30.850 -0.0137 -0.1497  0.1451
 3503W        W46441  16.573  20.322  30.702 -0.0065  0.1669 -0.1949
 3504W        W46442  18.472  20.565   0.806 -0.0501 -0.2218  0.1917
 3505W        W46443  17.555  22.522  31.558  0.1559  0.0857  0.2068
 3506W        W46444  17.143  16.789  31.485  0.1377 -0.0700  0.0341
 3507W        W46445  13.781  20.505   3.408 -0.1718 -0.0205 -0.0263
 3508W        W46446  15.143  19.749   0.228  0.1865 -0.1377 -0.0877
 3509W        W46447  15.547  19.464  30.762  0.0580 -0.0835  0.1284
 3510W        W46448  17.250  19.955   1.725  0.0968  0.1012  0.1562
 3511W        W46449  15.532  20.627   1.738  0.0362 -0.0088 -0.1234
 3512W        W46450  18.344  17.894   1.524 -0.1688 -0.1603 -0.0047
 3513W        W46451  15.632  18.681  30.791  0.1663 -0.1675 -0.3171
 3514W        W46452  17.945  21.773   2.147  0.2793  0.0542  0.0759
 3515W        W46453  18.476  18.328  30.669 -0.2857  0.0706  0.0223
 3516W        W46454  19.188  18.628   0.023  0.1944  0.0868 -0.1750
 3517W        W46455  16.236  18.994   0.100  0.0373  0.1517  0.0327
 3518W        W46456  15.219  20.225  31.385 -0.2378 -0.0209 -0.1102
 3519W        W46457  15.765  18.731  31.255 -0.2961 -0.2049 -0.0901
 3520W        W46458  18.215  20.844   0.518  0.2317 -0.0056  0.2795
 3521W        W46459  17.897  19.187  31.930  0.2110  0.0364  0.2127
 3522W        W46460  14.401  21.320  31.779 -0.0765  0.1033 -0.1250
 3523W        W46461  13.952  19.472   2.480 -0.0146 -0.1507  0.0953
 3524W        W46462  17.164  20.459   1.903 -0.1662  0.1158 -0.0230
 3525W        W46463  15.499  20.689   0.008 -0.1556 -0.2252 -0.1120
 3526W        W46464  13.728  20.875  31.743  0.0747  0.1654  0.4684
 3527W        W46465  14.475  21.811  30.992  0.1435 -0.2476  0.1307
 3528W        W46466  14.798  17.095  31.659 -0.1525 -0.1069 -0.0299
 3529W        W46467  15.661  19.399   0.231  0.0023  0.0767 -0.0267
 3530W        W46468  17.344  18.656  30.352 -0.3101 -0.2769 -0.1249
 3531W        W46469  14.661  19.307   2.632  0.1094 -0.1907  0.3444
 3532W        W46470  17.802  17.560  30.468 -0.0360  0.1367 -0.0313
 3533W        W46471  16.629  21.072  29.906  0.0069  0.0441 -0.3080
 3534W        W46472  18.161  20.604  31.652  0.1897  0.0410 -0.2648
 3535W        W46473  17.929  18.675   1.252 -0.0106  0.1611 -0.2909
 3536W        W46474  18.016  19.195  29.930  0.1894  0.0472  0.0692
 3537W        W46475  14.916  19.373   0.545 -0.0251 -0.0016 -0.0341
 3538W        W46476  15.472  18.173  30.890  0.3152  0.2129  0.0432
 3539W        W46477  13.573  18.647   2.306  0.1782 -0.2750 -0.0817
 3540W        W46478  13.940  18.782   0.637 -0.0399  0.0217 -0.1058
 3541W        W46479  17.101  20.336   3.504 -0.2397 -0.0079  0.1325
 3542W        W46480  15.295  17.639  29.044 -0.0436 -0.2513  0.1163
 3543W        W46481  18.235  17.036   1.269 -0.0194  0.1778 -0.0894
 3544W        W46482  16.464  18.647  31.799  0.2414 -0.2347 -0.1241
 3545W        W46483  14.497  20.410  30.331 -0.1553  0.2830  0.0788
 3546W        W46484  16.960  16.925   3.786  0.0262 -0.1312  0.1364
 3547W        W46485  16.572  20.367  30.132  0.0359  0.4034 -0.1501
 3548W        W46486  17.851  21.216   1.399  0.0066  0.1126 -0.2278
 3549W        W46487  17.539  20.545   0.916 -0.1005  0.0275  0.2589
 3550W        W46488  15.384  19.253   1.202 -0.2587 -0.0752 -0.1848
 3551W        W46489  15.884  18.611  29.814  0.6685 -0.0595  0.0020
 3552W        W46490  15.391  20.701   0.753 -0.1974  0.0096  0.1042
 3553W        W46491  16.544  18.676   0.423 -0.1002  0.0019  0.2292
 3554W        W46492  15.795  19.084  29.526  0.0893  0.2691 -0.3249
 3555W        W46493  18.310  21.753   0.219 -0.0742  0.0282 -0.0734
 3556W        W46494  16.588  19.710   0.161  0.1736  0.2711  0.1052
 3557W        W46495  15.845  19.153   0.954 -0.0649 -0.2727 -0.1553
 3558W        W46496  16.570  17.132  31.255 -0.2728  0.0491  0.0778
 3559W        W46497  17.802  18.686   2.178  0.0403  0.0261 -0.1706
 3560W        W46498  18.462  18.127   0.499 -0.1625 -0.0362  0.1323
 3561W        W46499  15.890  18.780  31.876 -0.2356 -0.1052 -0.0261
 3562W        W46500  16.649  20.876  31.504 -0.2795  0.0744 -0.2918
 3563W        W46501  14.550  19.527   0.201  0.2160  0.2427 -0.3297
 3564W        W46502  15.185  17.961  31.239 -0.3492  0.0270  0.0610
 3565W        W46503  16.128  19.606   1.668 -0.1906  0.2870  0.0224
 3566W        W46504  17.865  19.210  31.043  0.0538 -0.1073  0.0624
 3567W        W46505  14.708  19.819   2.726 -0.0584  0.1301 -0.0480
 3568W        W46506  16.314  17.436   2.850  0.0612 -0.0578  0.3481
 3569W        W46507  14.439  19.832  30.371  0.0650  0.0723  0.2055
 3570W        W46508  13.665  19.710   1.601 -0.3550 -0.0019 -0.1125
 3571W        W46509  16.779  18.300   0.058  0.0824  0.1784  0.1107
 3572W        W46510  18.027  16.691  31.450 -0.0249 -0.0707  0.1223
 3573W        W46511  15.016  18.481   2.097  0.2959 -0.1378  0.0665
 3574W        W46512  17.484  19.973   0.361  0.0968 -0.1359 -0.2523
 3575W        W46513  16.885  20.077  29.473  0.0265 -0.0467 -0.0725
 3576W        W46514  17.115  16.725  30.982  0.2060  0.1438 -0.0735
 3577W        W46515  15.464  19.236   2.123 -0.0870 -0.0567 -0.0119
 3578W        W46516  16.687  21.226   0.884  0.1219  0.2714 -0.2471
 3579W        W46517  15.493  18.994   1.655  0.1275  0.0178  0.3824
 3580W        W46518  16.194  17.850  30.812 -0.2926  0.1012  0.3145
 3581W        W46519  18.267  19.869  31.478 -0.0675  0.1548  0.3048
 3582W        W46520  13.894  20.299   0.188  0.1277  0.0807 -0.5036
 3583W        W46521  15.874  19.781   3.388 -0.1820 -0.3123  0.0065
 3584W        W46522  18.109  20.090   2.122  0.4502  0.0141 -0.2127
 3585W        W46523  16.256  17.957   2.036  0.0745  0.0372 -0.0907
 3586W        W46524  18.334  20.261  27.592  0.1110  0.4789  0.2994
 3587W        W46525  16.951  17.797  30.014 -0.1893  0.0441  0.0433
 3588W        W46526  14.919  21.149   0.629 -0.3005  0.1173  0.1022
 3589W        W46527  18.023  18.106   1.039 -0.1732 -0.5535 -0.1628
 3590W        W46528  16.638  19.199   1.305 -0.1215  0.1950  0.2750
 3591W        W46529  17.855  18.956   2.685  0.1591 -0.0751 -0.0330
 3592W        W46530  17.057  18.881   1.359  0.0145  0.1689  0.2335
 3593W        W46531  17.676  19.568   1.711  0.0251 -0.0298  0.3199
 3594W        W46532  16.985  18.188   0.625 -0.0193 -0.0720  0.2254
 3595W        W46533  16.739  19.493  30.289 -0.0503  0.0748  0.0370
 3596W        W46534  16.353  19.082   1.722 -0.3930 -0.1225  0.0162
 3597W        W46535  14.590  20.266   2.515 -0.0772  0.4355  0.1957
 3598W        W46536  15.572  19.455   2.639 -0.2109  0.2044 -0.2798
 3599W        W46537  17.355  19.719   2.720  0.1194  0.0346 -0.1762
 3600W        W46538  18.391  19.050  31.781  0.0627  0.0250  0.0169
 3601W        W46539  15.170  16.755   2.983 -0.2832 -0.0449 -0.0782
 3602W        W46540  15.578  17.374  31.641  0.1679 -0.1015 -0.0070
 3603W        W46541  15.764  20.020  30.694 -0.0209 -0.3252 -0.0348
 3604W        W46542  16.210  20.392   0.348 -0.2452  0.3298 -0.2956
 3605W        W46543  16.003  18.400   1.041  0.1380 -0.2424 -0.0675
 3606W        W46544  16.071  19.653   0.120 -0.1041  0.0294 -0.1761
 3607W        W46545  15.361  20.688  30.449 -0.0150 -0.2762  0.3740
 3608W        W46546  14.297  19.839   2.362  0.1567 -0.0034 -0.0792
 3609W        W46547  16.205  20.493  31.689  0.1679  0.0669  0.0162
 3610W        W46548  17.958  17.289  31.372 -0.0667 -0.0437  0.1582
 3611W        W46549  15.825  20.393   1.352  0.0573 -0.1924  0.1194
 3612W        W46550  14.951  18.589  29.976 -0.0868  0.1365  0.1702
 3613W        W46551  15.928  19.165  31.083  0.1632  0.0629 -0.1903
 3614W        W46552  17.562  18.006  29.863 -0.0353  0.0719 -0.1274
 3615W        W46553  18.453  19.514  30.447 -0.1169  0.1187  0.1651
 3616W        W46554  15.867  18.492   0.310 -0.1353  0.1695  0.0168
 3617W        W46555  16.252  18.410   1.529  0.1244  0.0979 -0.2107
 3618W        W46556  13.825  19.980  31.762 -0.1424 -0.0213  0.0729
 3619W        W46557  17.095  18.390   1.626 -0.3979  0.1433 -0.1267
 3620W        W46558  16.757  18.268  29.437  0.0291 -0.2020 -0.0221
 3621W        W46559  16.727  20.188   3.043  0.1860 -0.1473 -0.0648
 3622W        W46560  14.488  17.820   3.359  0.0771  0.0863 -0.1304
 3623W        W46561  16.094  18.269  30.144 -0.1619  0.0565 -0.0515
 3624W        W46562  18.057  18.796   0.680 -0.2089  0.0226  0.2241
 3625W        W46563  16.682  18.721   1.709  0.3505  0.1238 -0.0931
 3626W        W46564  14.851  20.284  30.601 -0.1537 -0.0355  0.0547
 3627W        W46565  17.024  21.022   1.188 -0.0987  0.1602  0.0339
 3628W        W46566  15.654  19.980  29.922 -0.1354 -0.1172  0.1520
 3629W        W46567  15.823  20.233   0.079 -0.0822  0.0608  0.0694
 3630W        W46568  15.364  17.896   1.355 -0.1872 -0.3670 -0.1874
 3631W        W46569  17.820  20.473   1.680 -0.1402 -0.1447 -0.1257
 3632W        W46570  15.044  18.957   1.886  0.0667  0.2782 -0.0146
 3633W        W46571  14.598  19.091   1.327  0.0146 -0.1403 -0.0181
 3634W        W46572  18.960  18.739   0.484 -0.1494  0.2650  0.1411
 3635W        W46573  17.736  19.867   2.351 -0.3908 -0.1730  0.2237
 3636W        W46574  16.476  16.893   2.250  0.1662 -0.1891  0.3684
 3637W        W46575  16.332  19.099   3.315  0.3168  0.0672 -0.0402
 3638W        W46576  15.334  19.144   0.582  0.1091 -0.2837 -0.1051
 3639W        W46577  17.315  22.092  31.849  0.1154 -0.0491 -0.0483
 3640W        W46578  16.983  19.188   2.442  0.3907  0.0248 -0.2094
 3641W        W46579  15.285  20.824  29.950 -0.2414 -0.1484  0.1632
 3642W        W46580  15.756  19.948   1.194  0.0044  0.4165  0.0225
 3643W        W46581  15.775  20.637   0.469  0.1151 -0.1227 -0.0171
 3644W        W46582  17.016  18.686   0.298  0.0257  0.1873  0.0546
 3645W        W46583  16.227  20.901   0.527 -0.0807  0.0410 -0.0388
 3646W        W46584  15.941  20.491  31.233  0.1735 -0.0433  0.1748
 3647W        W46585  13.853  20.166   0.631 -0.0489  0.1515 -0.0799
 3648W        W46586  17.002  18.594  31.717 -0.2666 -0.2869  0.1261
 3649W        W46587  16.203  21.071  30.682  0.2473 -0.1186 -0.2757
 3650W        W46588  16.248  18.150   2.512  0.1010  0.0996 -0.1669
 3651W        W46589  16.259  20.156   1.540  0.1910  0.1512 -0.2525
 3652W        W46590  16.955  19.902  30.454 -0.0175 -0.1168 -0.1124
 3653W        W46591  15.517  18.060   2.690 -0.2384  0.3158  0.3731
 3654W        W46592  15.063  17.989   1.856 -0.0802  0.1201 -0.0412
 3655W        W46593  18.125  20.305  31.245 -0.1421 -0.2480  0.2833
 3656W        W46594  14.202  17.395   3.527 -0.3516 -0.2584  0.0985
 3657W        W46595  17.360  21.141   1.646  0.3564 -0.0188 -0.2300
 3658W        W46596  15.280  19.794   1.277 -0.0013  0.0858 -0.1057
 3659W        W46597  16.330  18.679  30.316 -0.1275 -0.0910  0.0241
 3660W        W46598  15.693  18.792   1.225 -0.1032  0.3399 -0.0806
 3661W        W46599  16.402  20.033  31.881  0.1996  0.0878  0.1556
 3662W        W46600  18.246  19.062   1.094  0.0104 -0.1322  0.1831
 3663W        W46601  16.541  19.380  31.768 -0.1508 -0.1488 -0.0346
 3664W        W46602  18.013  19.176   1.484  0.0370  0.0968  0.0608
 3665W        W46603  14.351  18.839   0.841 -0.0270 -0.1867  0.1381
 3666W        W46604  16.876  19.807  31.707 -0.0942  0.5123  0.2972
 3667W        W46605  16.780  19.403  31.318 -0.1427 -0.1018 -0.2449
 3668W        W46606  14.853  19.992  30.202 -0.1041 -0.0428  0.4092
 3669W        W46607  16.492  17.423   1.980  0.1716  0.1118 -0.1849
 3670W        W46608  18.020  19.934   1.268 -0.1096  0.1824  0.1086
 3671W        W46609  15.846  18.019   0.029 -0.2054  0.0252  0.3730
 3672W        W46610  17.359  18.902  31.941 -0.0178 -0.2079  0.1562
 3673W        W46611  17.541  18.926   1.542  0.0872  0.0543 -0.0330
 3674W        W46612  16.409  18.454   2.055  0.1718 -0.2869 -0.2761
 3675W        W46613  14.541  17.965   2.656  0.0641  0.1893 -0.0393
 3676W        W46614  18.110  22.181   1.284  0.0885 -0.1146  0.1060
 3677W        W46615  18.105  19.397  31.466 -0.1609  0.1025  0.0583
 3678W        W46616  18.657  18.206   2.639  0.1161  0.0301  0.1068
 3679W        W46617  18.591  19.510  31.317  0.2685  0.1882  0.0664
 3680W        W46618  17.818  19.241   0.586  0.0622 -0.1655  0.1751
 3681W        W46619  15.598  18.752   2.238 -0.0630  0.2103  0.4975
 3682W        W46620  16.663  18.715   3.627  0.3300 -0.1995 -0.0547
 3683W        W46621  16.319  19.008  28.614 -0.0179 -0.1548  0.0663
 3684W        W46622  16.397  17.657   1.563  0.3933 -0.0903  0.7034
 3685W        W46623  17.034  19.498   0.124 -0.1040 -0.0863 -0.1847
 3686W        W46624  17.965  20.881   0.990 -0.1681 -0.0021 -0.2369
 3687W        W46625  15.935  18.736   1.689 -0.1468  0.0672  0.1956
 3688W        W46626  14.746  19.404  31.759  0.2443  0.0074 -0.2155
 3689W        W46627  15.611  19.553   1.665  0.0864 -0.2297 -0.1429
 3690W        W46628  16.084  19.666  30.908 -0.2105  0.1015  0.5533
 3691W        W46629  16.538  19.717  30.755  0.3785  0.0125  0.0391
 3692W        W46630  15.078  19.383   1.636 -0.1785 -0.5430  0.1803
 3693W        W46631  18.700  18.693   2.479 -0.1087  0.3565 -0.1623
 3694W        W46632  17.280  18.386  28.960 -0.1578 -0.1479  0.1044
 3695W        W46633  16.714  18.541   1.219 -0.2426  0.0283  0.0295
 3696W        W46634  14.216  20.972   0.107 -0.0979  0.2176  0.1074
 3697W        W46635  15.244  18.672   1.007 -0.1871 -0.0432 -0.0950
 3698W        W46636  15.932  19.903   1.999  0.0078  0.0178 -0.0378
 3699W        W46637  15.099  19.826   0.759  0.3197  0.0273 -0.2500
 3700W        W46638  16.705  21.171   0.376  0.1196 -0.1231 -0.0235
 3701W        W46639  15.766  17.504   2.659 -0.0703  0.0777 -0.0222
 3702W        W46640  17.655  18.831   0.363  0.3536  0.1031  0.0532
 3703W        W46641  17.066  18.630   0.848 -0.1430  0.1706  0.0491
 3704W        W46642  19.087  17.529   2.005  0.1451 -0.2874  0.0173
 3705W        W46643  17.191  21.451   2.862 -0.1789 -0.1680 -0.0015
 3706W        W46644  15.746  19.819  31.772  0.1045 -0.0802 -0.0230
 3707W        W46645  15.929  20.786   2.123  0.0918  0.0365 -0.1169
 3708W        W46646  18.249  19.141   0.337  0.2969 -0.1287  0.3957
 3709W        W46647  17.282  19.042   0.604 -0.0014 -0.1248  0.1592
 3710W        W46648  14.975  18.726   2.970  0.0390 -0.0847  0.1933
 3711W        W46649  15.595  18.859   2.726  0.1698  0.0601 -0.0154
 3712W        W46650  17.610  19.111  31.500 -0.2492  0.1348  0.4796
 3713W        W46651  16.758  18.983  31.977 -0.1827 -0.0129  0.0740
 3714W        W46652  17.039  19.808  29.960 -0.5694  0.0640  0.1002
 3715W        W46653  15.310  19.708   2.058 -0.1507 -0.0150 -0.0391
 3716W        W46654  14.851  19.852   2.198  0.1024  0.0239 -0.0159
 3717W        W46655  15.390  21.033   0.377 -0.4066  0.0702  0.1443
 3718W        W46656  16.239  19.469  31.398 -0.1358 -0.1448 -0.1217
 3719W        W46657  17.113  19.267  31.639  0.2411 -0.3620 -0.1540
 3720W        W46658  18.680  22.479   1.165 -0.1704 -0.0405 -0.1595
 3721W        W46659  17.170  17.199  31.220  0.1301  0.1845  0.3855
 3722W        W46660  15.400  20.227   0.969  0.4253  0.0970  0.1676
 3723W        W46661  14.607  20.936  30.993  0.1325  0.2129 -0.3696
 3724W        W46662  17.183  21.105  30.814 -0.1432  0.2615 -0.1388
 3725W        W46663  14.813  20.034   1.126  0.2556 -0.0913 -0.1143
 3726W        W46664  17.571  20.317   2.217 -0.1895 -0.0121 -0.0974
 3727W        W46665  16.657  18.890  31.419 -0.1555  0.0135 -0.0316
 3728W        W46666  17.220  19.337   1.633  0.0040 -0.0892  0.0829
 3729W        W46667  16.412  18.221  30.542 -0.1171  0.1389 -0.2711
 3730W        W46668  16.736  20.445   2.557  0.1539 -0.1241 -0.0349
 3731W        W46669  16.304  18.803   1.269 -0.1543 -0.1046 -0.1757
 3732W        W46670  17.238  18.775  31.296  0.0636  0.0965  0.3095
 3733W        W46671  15.554  19.590   0.939 -0.0309  0.2263  0.0172
 3734W        W46672  17.281  17.429   2.740  0.3051 -0.1555  0.1462
 3735W        W46673  15.492  20.577   3.175  0.0332  0.1591  0.1277
 3736W        W46674  18.279  20.409  30.354 -0.0110 -0.0338 -0.0210
 3737W        W46675  14.928  17.981  28.986  0.0721 -0.0712 -0.0936
 3738W        W46676  14.622  19.791   0.595  0.0811 -0.0563 -0.1144
 3739W        W46677  18.319  17.888   2.089 -0.0501  0.1646  0.3503
 3740W        W46678  15.669  20.502  30.142 -0.0268  0.3917 -0.1254
 3741W        W46679  17.227  17.977   1.986 -0.1469  0.1963 -0.1156
 3742W        W46680  16.295  21.912   0.869  0.0631  0.3218  0.4192
 3743W        W46681  15.717  21.167   0.799 -0.1329 -0.0951  0.2836
 3744W        W46682  15.499  20.829   1.191 -0.0447 -0.2321 -0.0627
 3745W        W46683  15.670  18.056  30.228  0.1154  0.2549 -0.1717
 3746W        W46684  17.475  17.366  31.611  0.0344 -0.3139 -0.1447
 3747W        W46685  14.132  19.749   1.851  0.2075 -0.2074 -0.2876
 3748W        W46686  17.095  18.214   2.737 -0.1860 -0.0869  0.0764
 3749W        W46687  16.643  19.225   0.442 -0.0049 -0.5437  0.1455
 3750W        W46688  19.468  18.380   0.994 -0.1067  0.0491 -0.1932
 3751W        W46689  15.181  20.431   1.443 -0.1585 -0.1750 -0.0274
 3752W        W46690  15.579  18.214  31.397  0.0053 -0.1149  0.0272
 3753W        W46691  16.893  20.146  28.902  0.3598 -0.0480 -0.0723
 3754W        W46692  16.645  18.886   0.859  0.2052 -0.1275  0.3691
 3755W        W46693  16.176  20.163  30.397  0.2268  0.1345 -0.0336
 3756W        W46694  16.991  21.243   2.001 -0.3927  0.0893  0.2592
 3757W        W46695  15.542  18.412  31.931  0.0982  0.1741  0.2025
 3758W        W46696  16.386  19.144  30.988  0.2042  0.4204  0.2867
 3759W        W46697  15.129  20.105  29.383  0.1048 -0.1877  0.0717
 3760W        W46698  14.749  19.293   2.118  0.4179 -0.3955  0.2925
 3761W        W46699  18.271  21.566   1.226  0.0741  0.0562  0.1356
 3762W        W46700  15.246  18.479  30.405 -0.1394 -0.0119 -0.2013
 3763W        W46701  16.172  20.983  31.209  0.1397 -0.3906 -0.0365
 3764W        W46702  18.337  19.194   1.883  0.1285 -0.2841  0.1235
 3765W        W46703  15.349  21.151  31.877  0.1158  0.3021 -0.1787
 3766W        W46704  17.013  19.258   0.996 -0.0915 -0.0167 -0.1559
 3767W        W46705  18.435  22.162   0.796 -0.1304  0.0338  0.1482
 3768W        W46706  14.772  20.098  31.081  0.0104 -0.3168 -0.1258
 3769W        W46707  16.691  20.185   1.012  0.1454 -0.1971  0.0735
 3770W        W46708  18.415  19.939   0.722  0.0942 -0.1716  0.0492
 3771W        W46709  17.291  17.938  31.897 -0.0736  0.0788  0.0477
 3772W        W46710  15.527  18.896   0.132 -0.2204 -0.0840 -0.3530
 3773W        W46711  15.017  20.685   0.225  0.1353 -0.0022  0.0047
 3774W        W46712  18.109  16.706   1.626  0.2573  0.0409 -0.2316
 3775W        W46713  17.608  17.579   0.759  0.3090 -0.3106 -0.3884
 3776W        W46714  14.821  20.163   0.234 -0.0840  0.0461 -0.0383
 3777W        W46715  18.578  17.474   1.953 -0.1466 -0.0971  0.0939
 3778W        W46716  16.388  20.723   2.408  0.0041  0.0402 -0.1760
 3779W        W46717  14.804  22.014   2.774 -0.0553 -0.1217  0.3710
 3780W        W46718  15.583  20.484  29.093 -0.1333  0.0094 -0.2105
 3781W        W46719  14.667  18.471   2.534  0.1304 -0.1658 -0.3855
 3782W        W46720  16.660  20.526   0.507 -0.1640  0.0042 -0.0708
 3783W        W46721  16.545  20.492  31.218 -0.1109 -0.2672  0.2312
 3784W        W46722  16.670  20.730   0.050 -0.0124 -0.0324  0.0672
 3785W        W46723  17.409  18.310  31.482 -0.1231  0.0655  0.0838
 3786W        W46724  18.319  19.520   1.256 -0.0195  0.0712  0.2321
 3787W        W46725  17.641  18.400   1.796  0.0445 -0.0187 -0.2479
 3788W        W46726  18.819  18.655  31.753 -0.0717 -0.1142 -0.0696
 3789W        W46727  17.574  18.185  30.326 -0.0548  0.2790  0.0438
 3790W        W46728  15.709  19.861   0.361 -0.0900  0.3258 -0.4683
 3791W        W46729  15.209  20.328  29.861  0.0713  0.1094  0.1722
 3792W        W46730  15.187  21.010  31.039  0.1997 -0.3915  0.1991
 3793W        W46731  14.938  20.617  31.134 -0.2458  0.0570  0.0120
 3794W        W46732  16.978  16.953   2.635  0.3418 -0.2725  0.2527
 3795W        W46733  14.543  18.051   0.154 -0.0488  0.0123  0.1487
 3796W        W46734  15.657  20.303  31.589  0.5245 -0.0403  0.0993
 3797W        W46735  15.121  17.990  30.171 -0.0041  0.0957  0.1022
 3798W        W46736  17.591  19.599  31.586  0.0985  0.3897 -0.1692
 3799W        W46737  15.278  17.554  30.946  0.1311 -0.4394 -0.0227
 3800W        W46738  14.922  18.793  31.700 -0.2452  0.0979  0.0414
 3801W        W46739  17.504  19.510   0.137 -0.1981  0.1146  0.0165
 3802W        W46740  17.198  20.191   0.784 -0.1934  0.0820  0.0749
 3803W        W46741  16.145  17.152  31.567 -0.0640 -0.2177 -0.0770
 3804W        W46742  18.180  21.224   2.996  0.2667 -0.1645 -0.2814
 3805W        W46743  14.997  21.299  28.589 -0.1029  0.1879 -0.0929
 3806W        W46744  15.122  19.436   2.417 -0.0946  0.2018  0.2635
 3807W        W46745  16.432  16.997   2.717 -0.2043 -0.1617 -0.1628
 3808W        W46746  16.726  19.210  28.938 -0.0307  0.3057  0.2465
 3809W        W46747  17.835  17.979   0.512 -0.1061  0.3332  0.0775
 3810W        W46748  16.371  19.734   3.029  0.0102 -0.1024  0.0813
 3811W        W46749  17.038  21.997   0.743  0.0483 -0.2533 -0.1279
 3812W        W46750  16.931  20.030   0.325 -0.1237  0.2705  0.1896
 3813W        W46751  14.892  21.545   1.336 -0.1923 -0.1536 -0.0735
 3814W        W46752  13.251  18.066   1.493 -0.2547 -0.3373 -0.0126
 3815W        W46753  16.978  20.739  31.202  0.0064  0.0112 -0.1599
 3816W        W46754  16.342  20.228   2.291  0.0346 -0.1085  0.0733
 3817W        W46755  17.479  20.199  30.611 -0.0624 -0.0959  0.2465
 3818W        W46756  18.038  17.723   2.492  0.0637  0.2731 -0.0118
 3819W        W46757  16.834  18.415  31.300  0.0750  0.1186 -0.2519
 3820W        W46758  15.246  17.369   2.990  0.0932  0.2134  0.2115
 3821W        W46759  14.373  19.370   0.947 -0.3469 -0.0641  0.0100
 3822W        W46760  17.385  19.567   0.663  0.2836  0.1935  0.0760
 3823W        W46761  15.503  18.322   1.210  0.0868  0.0796 -0.0853
 3824W        W46762  16.559  18.021  31.278 -0.1777 -0.0308  0.0339
 3825W        W46763  16.422  20.010   0.564  0.1474 -0.0128  0.0743
 3826W        W46764  13.700  19.316   1.344  0.2015 -0.0630  0.0864
 3827W        W46765  16.166  17.821  30.329  0.1684  0.1716  0.1739
 3828W        W46766  15.445  18.189   2.146 -0.0445 -0.2163  0.2662
 3829W        W46767  16.773  19.210   1.922 -0.0110 -0.0173 -0.0337
 3830W        W46768  16.300  19.734   2.506  0.0537 -0.4489 -0.1244
 3831W        W46769  17.364  19.558  28.075  0.2057  0.1854 -0.1382
 3832W        W46770  18.675  20.484  29.463  0.0408 -0.1357  0.2931
 3833W        W46771  15.889  19.445   2.245 -0.1892 -0.1695 -0.3737
 3834W        W46772  16.738  20.117   1.617 -0.0728 -0.3338  0.0459
 3835W        W46773  14.638  19.505   1.622  0.2191 -0.3710  0.3191
 3836W        W46774  18.103  20.455   1.212  0.0184 -0.0409 -0.1633
 3837W        W46775  15.374  18.480   1.717  0.2171 -0.1702 -0.0708
 3838W        W46776  14.980  19.303  30.101  0.2564 -0.3345 -0.0105
 3839W        W46777  16.469  19.520   0.870  0.1519  0.3225  0.1537
 3840W        W46778  18.568  19.597   2.007 -0.1616  0.2435  0.2000
 3841W        W46779  14.784  18.293  30.391  0.1908 -0.5348 -0.0539
 3842W        W46780  18.496  17.506  31.215 -0.4119 -0.0441  0.1250
 3843W        W46781  15.195  20.751   2.657 -0.0121  0.1066  0.0991
 3844W        W46782  17.261  19.785   1.153 -0.1785  0.0098  0.0948
 3845W        W46783  15.955  20.983   7.688 -0.1542  0.0679  0.1203
 3846W        W46784  14.259  19.063   3.794  0.5235 -0.0725  0.0235
 3847W        W46785  16.660  18.196   1.723  0.1228 -0.0048 -0.1804
 3848W        W46786  17.223  20.117   3.070 -0.1948 -0.1498  0.2989
 3849W        W46787  14.628  18.835   5.336  0.1307  0.0314 -0.2337
 3850W        W46788  16.979  20.544   5.308 -0.0034 -0.2926  0.3865
 3851W        W46789  15.149  17.417   4.735 -0.2116 -0.0334  0.0491
 3852W        W46790  19.112  19.499   4.662 -0.0917  0.0072 -0.0696
 3853W        W46791  18.430  20.725   5.360 -0.0972 -0.0104 -0.1974
 3854W        W46792  15.923  20.359   1.866  0.5222  0.0399  0.0169
 3855W        W46793  15.443  18.675   5.348  0.1529 -0.0518 -0.0997
 3856W        W46794  16.325  19.769   5.134 -0.1746  0.4716  0.1390
 3857W        W46795  15.942  16.125   2.589 -0.0053 -0.2393  0.3877
 3858W        W46796  13.712  17.243   4.128 -0.1795  0.2745  0.4410
 3859W        W46797  16.903  19.966   2.643 -0.0006  0.1620 -0.2433
 3860W        W46798  15.534  18.996   3.650  0.2247  0.3067 -0.1672
 3861W        W46799  16.235  18.832   4.730  0.0251  0.0171  0.2059
 3862W        W46800  15.844  17.504   3.172  0.0833  0.0971 -0.3207
 3863W        W46801  16.889  21.167   4.889 -0.1330  0.0581  0.2248
 3864W        W46802  15.580  18.794   4.803 -0.1671  0.2192 -0.0460
 3865W        W46803  18.073  18.234   4.182 -0.1837 -0.1668  0.0982
 3866W        W46804  15.685  20.368   3.570 -0.0655 -0.0948  0.0057
 3867W        W46805  14.599  19.955   3.603 -0.1433  0.0503  0.0757
 3868W        W46806  15.212  18.628   3.870 -0.0252 -0.3500  0.0228
 3869W        W46807  14.716  18.599   4.419  0.1522 -0.1423 -0.0601
 3870W        W46808  17.503  18.504   3.514 -0.1063  0.1613 -0.0586
 3871W        W46809  16.719  20.515   3.838  0.0003 -0.0532 -0.1979
 3872W        W46810  15.148  18.791   4.507  0.1463  0.0696 -0.0082
 3873W        W46811  16.138  21.812   3.226 -0.2016 -0.1888 -0.3113
 3874W        W46812  17.013  19.548   6.409  0.2177  0.0638 -0.0286
 3875W        W46813  15.397  18.998   3.132 -0.0321 -0.0113  0.2655
 3876W        W46814  15.388  22.292   4.841 -0.2898 -0.0106 -0.0059
 3877W        W46815  15.522  20.586   2.337 -0.0258  0.0047 -0.1065
 3878W        W46816  17.189  20.568   3.951 -0.3854  0.2371  0.0642
 3879W        W46817  17.524  21.063   6.803  0.0741  0.3295 -0.2617
 3880W        W46818  15.595  21.772   8.721 -0.1770  0.2919 -0.1833
 3881W        W46819  13.951  19.537   3.283 -0.0969 -0.2788 -0.0049
 3882W        W46820  16.979  21.010   6.749  0.2042  0.0301 -0.1299
 3883W        W46821  16.615  20.621   4.989 -0.5530 -0.0924  0.3442
 3884W        W46822  16.531  20.022   5.758  0.3615  0.1197 -0.0719
 3885W        W46823  16.482  18.305   3.934  0.0240  0.1949  0.4692
 3886W        W46824  15.636  21.194   1.925  0.1409 -0.0445 -0.0903
 3887W        W46825  15.909  20.698   2.642 -0.1160 -0.2117 -0.0407
 3888W        W46826  16.944  19.877   5.993  0.3370  0.1693  0.3260
 3889W        W46827  15.138  20.852   4.275 -0.0384 -0.1284  0.0028
 3890W        W46828  17.269  18.681   6.883  0.3453  0.1666 -0.1942
 3891W        W46829  15.189  20.171   2.427 -0.0468  0.0569 -0.0006
 3892W        W46830  17.225  18.821   1.915  0.3346 -0.1025 -0.1341
 3893W        W46831  15.629  17.780   1.799 -0.2328 -0.0100  0.1137
 3894W        W46832  17.814  17.446   4.061  0.0137  0.3272 -0.0724
 3895W        W46833  13.958  16.801   4.273  0.1723  0.0883  0.0333
 3896W        W46834  14.896  20.516   4.984 -0.1185  0.1788  0.0208
 3897W        W46835  15.637  18.006   5.274  0.0815  0.0317  0.1586
 3898W        W46836  17.850  18.965   4.957  0.0342  0.3338 -0.2728
 3899W        W46837  15.535  17.483   3.960  0.2708 -0.2269  0.4304
 3900W        W46838  17.452  18.125   5.333  0.2692  0.2237  0.0550
 3901W        W46839  15.877  20.203   6.509 -0.1269 -0.2359 -0.0817
 3902W        W46840  14.431  19.617   5.391 -0.0313 -0.2217  0.0080
 3903W        W46841  18.045  20.602   3.012 -0.3251 -0.1056  0.0841
 3904W        W46842  18.794  20.308   5.480 -0.2003  0.1430  0.3522
 3905W        W46843  15.757  19.926   2.460 -0.0063  0.0150 -0.2542
 3906W        W46844  14.511  19.635   3.166  0.2565  0.1544 -0.3168
 3907W        W46845  15.150  19.363   5.328  0.2802 -0.2652 -0.0973
 3908W        W46846  14.348  18.704   6.583  0.2809 -0.0773 -0.0557
 3909W        W46847  15.215  17.519   2.001 -0.2780 -0.3247  0.1360
 3910W        W46848  17.630  19.998   6.860  0.0224 -0.1803 -0.1126
 3911W        W46849  15.654  20.549   6.188  0.1280 -0.1573  0.3989
 3912W        W46850  17.002  18.252   3.762  0.0069 -0.2145 -0.0230
 3913W        W46851  15.677  17.989   3.217  0.1982  0.2848  0.1719
 3914W        W46852  17.592  20.249   6.181  0.1192 -0.1702 -0.4769
 3915W        W46853  16.795  20.109   2.207 -0.1004  0.0266 -0.1580
 3916W        W46854  17.462  18.848   4.064  0.1369  0.3834 -0.0200
 3917W        W46855  16.674  17.778   5.376  0.0151  0.1843  0.0191
 3918W        W46856  15.403  19.481   4.360 -0.0905  0.0513 -0.1725
 3919W        W46857  15.603  18.788   4.208  0.2694  0.2699  0.0963
 3920W        W46858  18.730  19.833   4.740  0.0981 -0.2162 -0.0208
 3921W        W46859  17.336  19.353   3.286 -0.0656 -0.2304 -0.2003
 3922W        W46860  15.434  19.842   5.596  0.2103 -0.0641 -0.0602
 3923W        W46861  15.591  18.768   5.993 -0.2068  0.1729 -0.1263
 3924W        W46862  15.854  21.035   6.691  0.0830 -0.1836  0.2460
 3925W        W46863  15.153  20.739   3.773 -0.0926 -0.0455  0.0849
 3926W        W46864  13.641  20.368   6.128  0.0759 -0.0198  0.0135
 3927W        W46865  15.900  19.997   2.936  0.1560  0.2184  0.1696
 3928W        W46866  15.492  18.730   6.486 -0.1369  0.3115 -0.1321
 3929W        W46867  16.423  18.969   5.183  0.1179 -0.1011 -0.0845
 3930W        W46868  17.181  18.958   3.588  0.0081  0.4527 -0.2853
 3931W        W46869  15.880  17.899   5.773 -0.1357 -0.3624  0.0927
 3932W        W46870  17.776  18.073   3.400  0.1125 -0.1958 -0.0090
 3933W        W46871  15.128  19.875   4.486 -0.2258  0.3065 -0.0181
 3934W        W46872  18.438  21.418   3.387 -0.0245 -0.0922 -0.0021
 3935W        W46873  18.491  19.162   3.946 -0.1233 -0.1017  0.0165
 3936W        W46874  16.501  20.707   2.895 -0.1116 -0.0186  0.1138
 3937W        W46875  14.119  19.658   6.754 -0.4453  0.0039 -0.2007
 3938W        W46876  14.198  19.214   4.425  0.0389  0.2163  0.2992
 3939W        W46877  15.255  18.718   7.568 -0.3901 -0.1015 -0.1470
 3940W        W46878  14.982  18.835   4.987 -0.2998  0.0285 -0.0273
 3941W        W46879  16.575  19.241   7.023 -0.3801  0.0831  0.0410
 3942W        W46880  14.921  17.608   3.244  0.1477 -0.1757 -0.2760
 3943W        W46881  16.739  17.392   4.644 -0.1102  0.1107  0.1486
 3944W        W46882  15.607  18.474   3.568  0.3376  0.0232 -0.2745
 3945W        W46883  13.562  21.353   4.579  0.0529  0.2845 -0.1244
 3946W        W46884  18.190  19.566   6.543 -0.0309  0.3194 -0.1295
 3947W        W46885  16.020  20.573   3.141 -0.3201 -0.1750 -0.2717
 3948W        W46886  18.214  21.199   5.396  0.2209 -0.2818 -0.2461
 3949W        W46887  16.031  20.962   3.720 -0.1791  0.0622  0.1900
 3950W        W46888  15.616  17.876   6.917  0.0894  0.1370 -0.2498
 3951W        W46889  14.326  18.625   3.483  0.2601  0.2322 -0.1419
 3952W        W46890  14.610  19.607   4.666  0.2222 -0.1896  0.0411
 3953W        W46891  15.612  20.654   4.455 -0.0394 -0.2147 -0.0645
 3954W        W46892  16.081  17.894   2.898  0.2757 -0.0365  0.0147
 3955W        W46893  16.924  20.476   4.471 -0.0673 -0.1378  0.1338
 3956W        W46894  16.320  19.389   4.304 -0.1165  0.0479 -0.0307
 3957W        W46895  15.741  20.297   5.688  0.0522  0.2370  0.3199
 3958W        W46896  16.744  17.600   5.913  0.0907  0.0683  0.0778
 3959W        W46897  18.338  20.999   5.831  0.2417 -0.2435  0.1548
 3960W        W46898  16.009  19.241   4.934 -0.0447 -0.4571 -0.1775
 3961W        W46899  14.886  18.179   2.921  0.2821 -0.0402  0.1121
 3962W        W46900  17.806  20.840   5.148  0.3109 -0.0228  0.2670
 3963W        W46901  14.617  20.767   3.553 -0.1346  0.1594 -0.0182
 3964W        W46902  14.283  20.918   5.077  0.1457  0.0791  0.0803
 3965W        W46903  15.023  21.330   4.385 -0.2493 -0.0273  0.2179
 3966W        W46904  17.515  18.302   3.039  0.0076  0.3949  0.0092
 3967W        W46905  13.931  19.838   6.144  0.0515  0.2317 -0.0567
 3968W        W46906  17.387  18.527   5.599  0.1229 -0.1926  0.0397
 3969W        W46907  14.741  18.924   3.959 -0.0646 -0.1132 -0.0537
 3970W        W46908  15.219  21.061   7.101  0.3134  0.1603  0.3098
 3971W        W46909  18.474  18.165   4.931  0.3545  0.1150 -0.0745
 3972W        W46910  18.609  17.036   3.629  0.1729  0.0670  0.1188
 3973W        W46911  16.655  19.368   5.333 -0.0137 -0.0248 -0.0240
 3974W        W46912  17.319  20.637   3.103  0.1096  0.0127 -0.0855
 3975W        W46913  16.098  19.257   0.496 -0.2297 -0.0847 -0.5026
 3976W        W46914  16.438  16.772   3.561 -0.1079  0.2552  0.0141
 3977W        W46915  15.670  20.804   7.210  0.0248  0.3236  0.1792
 3978W        W46916  16.532  20.945   3.658  0.0667 -0.3656 -0.0466
 3979W        W46917  15.882  18.538   4.538 -0.1474 -0.2692 -0.2946
 3980W        W46918  16.460  18.031   1.262 -0.0534 -0.1152  0.1249
 3981W        W46919  18.445  20.774   3.895  0.1367 -0.0510 -0.3126
 3982W        W46920  14.556  20.158   5.347  0.0854 -0.1118 -0.3327
 3983W        W46921  16.784  20.604   6.600  0.0392 -0.2180 -0.0503
 3984W        W46922  16.835  19.518   4.441  0.0801  0.2414 -0.0079
 3985W        W46923  16.297  18.280   6.330 -0.0798 -0.0136 -0.0434
 3986W        W46924  15.268  18.508   2.508  0.2794 -0.0282 -0.2625
 3987W        W46925  15.670  17.378   2.133 -0.1759 -0.0150 -0.0271
 3988W        W46926  15.250  21.205   2.839  0.2109  0.1774 -0.1768
 3989W        W46927  17.178  18.934   5.776 -0.1932  0.0545 -0.0571
 3990W        W46928  15.257  18.371   5.788  0.1450  0.3023 -0.2787
 3991W        W46929  15.704  17.551   5.489  0.0803 -0.2670  0.0510
 3992W        W46930  16.452  19.884   6.307 -0.1382  0.0248 -0.0998
 3993W        W46931  17.239  17.945   3.469  0.0541 -0.1971 -0.0230
 3994W        W46932  16.906  19.672   4.996  0.0332  0.0499 -0.2657
 3995W        W46933  15.834  18.431   2.529  0.3284 -0.2213  0.3659
 3996W        W46934  15.091  19.142   6.974 -0.1842  0.1373 -0.1223
 3997W        W46935  15.279  19.274   5.890 -0.1629 -0.1172  0.1458
 3998W        W46936  15.414  20.628   5.256 -0.0625  0.0515  0.1769
 3999W        W46937  17.618  21.829   6.165 -0.1375  0.0767 -0.2574
 4000W        W46938  16.194  20.148   3.311 -0.1288  0.2415  0.1825
 4001W        W46939  16.167  18.482   7.091  0.3017 -0.0789 -0.4152
 4002W        W46940  15.835  17.864   2.304  0.3097 -0.2947 -0.3293
 4003W        W46941  14.938  19.514   1.111  0.3428 -0.4849  0.0365
 4004W        W46942  15.871  17.625   5.024  0.5258 -0.0024 -0.1982
 4005W        W46943  15.775  20.085   5.227  0.0359 -0.0221  0.0764
 4006W        W46944  15.883  20.215   0.724 -0.2762  0.0626  0.1785
 4007W        W46945  16.720  20.093   5.313 -0.0439  0.0687 -0.1264
 4008W        W46946  15.625  20.689   3.964  0.1256  0.0890 -0.1357
 4009W        W46947  16.633  17.864   4.848 -0.2166 -0.1471  0.1671
 4010W        W46948  14.454  21.820   4.702 -0.1984 -0.0017 -0.0298
 4011W        W46949  14.231  17.289   4.017 -0.2210 -0.0354 -0.0861
 4012W        W46950  13.837  19.830   4.809  0.0475  0.3158  0.0091
 4013W        W46951  17.178  18.705   2.665 -0.1311  0.4518 -0.0457
 4014W        W46952  15.982  18.388   3.040  0.0700 -0.1908 -0.1864
 4015W        W46953  16.669  18.056   4.286  0.0090 -0.1924  0.5442
 4016W        W46954  16.422  17.449   5.053 -0.1299  0.1369 -0.1865
 4017W        W46955  15.115  20.245   5.391  0.0502  0.2514 -0.2162
 4018W        W46956  15.470  18.334   4.409  0.1085 -0.4816  0.0129
 4019W        W46957  17.024  17.418   3.980 -0.1320  0.1069  0.3191
 4020W        W46958  17.935  19.724   4.646  0.1911  0.0573 -0.2213
 4021W        W46959  15.224  19.630   6.767  0.3414 -0.3613 -0.0576
 4022W        W46960  14.357  17.630   4.777 -0.0358 -0.1807 -0.1466
 4023W        W46961  17.840  20.261   4.621  0.0992  0.2224  0.2723
 4024W        W46962  14.681  17.378   3.719 -0.1725  0.1613  0.3562
 4025W        W46963  15.266  20.013   3.666  0.0794 -0.5046  0.2452
 4026W        W46964  17.060  20.276   5.733  0.2080 -0.1172  0.0928
 4027W        W46965  14.722  19.897   4.191  0.0794 -0.1644  0.2151
 4028W        W46966  14.475  20.164   4.538 -0.2837  0.2634 -0.1461
 4029W        W46967  15.997  18.053   6.690  0.1352  0.2092 -0.2144
 4030W        W46968  17.447  19.645   5.117  0.0265 -0.2188 -0.1233
 4031W        W46969  16.699  16.608   4.060  0.0897  0.0309  0.1075
 4032W        W46970  15.385  17.575   3.424  0.1174  0.0456 -0.0751
 4033W        W46971  16.679  19.650   3.872 -0.0706  0.1019  0.0128
 4034W        W46972  17.982  20.057   5.887 -0.0662  0.3217  0.1351
 4035W        W46973  16.760  18.552   4.303  0.0149 -0.0420  0.1167
 4036W        W46974  15.612  19.206   6.275 -0.0005 -0.0134  0.1175
 4037W        W46975  16.543  17.539   4.225 -0.1850  0.0008 -0.0732
 4038W        W46976  18.631  20.457   4.208 -0.1125  0.1919  0.0211
 4039W        W46977  16.575  19.040   5.667 -0.1398  0.4011 -0.2150
 4040W        W46978  15.528  20.299   2.743  0.0588 -0.1076  0.0589
 4041W        W46979  14.067  20.381   4.894 -0.2562  0.1615 -0.3628
 4042W        W46980  15.056  20.787   3.234  0.0423  0.0942  0.1488
 4043W        W46981  15.095  18.908   5.605 -0.1356  0.0425  0.2743
 4044W        W46982  14.825  20.067   4.893 -0.0710  0.0262  0.0172
 4045W        W46983  14.340  20.140   3.983 -0.1883 -0.4661 -0.0719
 4046W        W46984  14.813  20.777   6.782 -0.1474  0.0031  0.2441
 4047W        W46985  17.003  17.864   2.447 -0.5609 -0.1926  0.0049
 4048W        W46986  15.906  19.281   3.517  0.0163 -0.3061 -0.0799
 4049W        W46987  16.291  18.761   4.262  0.2684 -0.2131 -0.2635
 4050W        W46988  17.274  18.443   4.967  0.3688  0.2180 -0.2837
 4051W        W46989  17.362  17.719   3.900 -0.1660  0.0063 -0.3219
 4052W        W46990  16.503  18.869   7.587 -0.0047  0.3486  0.0455
 4053W        W46991  14.427  19.949   5.776 -0.1304  0.1503  0.0489
 4054W        W46992  17.239  19.859   4.080  0.0667  0.1083 -0.1799
 4055W        W46993  15.726  17.799   8.193 -0.2194 -0.1013 -0.0321
 4056W        W46994  16.407  21.120   6.626  0.1136 -0.0535  0.1925
 4057W        W46995  17.087  18.798   5.268  0.1356 -0.0202 -0.0824
 4058W        W46996  16.524  17.784   3.202  0.0196 -0.2004  0.0793
 4059W        W46997  15.027  17.201   4.029 -0.1021  0.0442 -0.1641
 4060W        W46998  15.988  20.268   4.234  0.5023 -0.0537 -0.2453
 4061W        W46999  18.282  20.039   4.771  0.0319  0.3828 -0.1214
 4062W        W47000  16.179  19.875   3.882 -0.3452  0.4301  0.1195
 4063W        W47001  18.198  19.673   3.827 -0.1633 -0.0362 -0.2734
 4064W        W47002  14.774  19.391   5.628 -0.0491 -0.1426 -0.1199
 4065W        W47003  17.123  19.367   3.962 -0.0791 -0.1452  0.2160
 4066W        W47004  15.934  18.370   4.051  0.1104  0.1275  0.2571
 4067W        W47005  16.301  20.279   2.783 -0.1927  0.3185 -0.0947
 4068W        W47006  14.659  17.711   6.607  0.0605 -0.0541 -0.0100
 4069W        W47007  17.429  19.489   5.678 -0.0987  0.4308 -0.1443
 4070W        W47008  16.038  17.356   4.108  0.2669  0.0825 -0.0873
 4071W        W47009  17.606  18.484   4.381 -0.1967  0.0881 -0.1262
 4072W        W47010  17.020  18.461   5.982 -0.2818  0.0033 -0.1163
 4073W        W47011  16.039  19.330   6.760 -0.1213 -0.1329  0.1047
 4074W        W47012  14.961  18.496   5.383 -0.1712 -0.2416 -0.0836
 4075W        W47013  17.440  20.533   5.480  0.2815 -0.0315 -0.0033
 4076W        W47014  18.039  19.598   2.042  0.1990 -0.0462  0.0506
 4077W        W47015  18.402  18.912   4.455 -0.1134 -0.2650 -0.2475
 4078W        W47016  16.832  19.295   3.498 -0.1212 -0.1408 -0.5786
 4079W        W47017  16.093  18.900   2.149  0.0561  0.0967 -0.0721
 4080W        W47018  14.812  19.430   6.096 -0.1799 -0.3302  0.0568
 4081W        W47019  17.412  19.808   6.260 -0.0720 -0.0721 -0.2481
 4082W        W47020  14.861  17.320   2.313  0.1494  0.1468  0.0902
 4083W        W47021  17.424  19.325   6.179 -0.0745 -0.0612 -0.0476
 4084W        W47022  15.763  21.017   3.063 -0.1865 -0.3567 -0.0506
 4085W        W47023  15.527  20.985   3.515 -0.1512  0.1294 -0.1727
 4086W        W47024  16.535  20.564   1.364  0.1390 -0.1151 -0.1054
 4087W        W47025  14.400  18.340   5.464  0.1974  0.1470  0.0069
 4088W        W47026  14.579  20.973   5.836 -0.0555 -0.0591  0.2275
 4089W        W47027  15.414  18.092   3.998 -0.2973 -0.0276 -0.1704
 4090W        W47028  15.593  19.488   3.859 -0.0651 -0.0573  0.0566
 4091W        W47029  15.958  21.251   4.120  0.0448 -0.2747 -0.1531
 4092W        W47030  16.985  19.512   7.184  0.1473 -0.1169 -0.0602
 4093W        W47031  16.346  17.257   3.336 -0.2059  0.2627 -0.0383
 4094W        W47032  16.895  18.392   6.575 -0.1133 -0.2915 -0.0292
 4095W        W47033  13.856  20.269   3.913 -0.0154 -0.2439 -0.0198
 4096W        W47034  16.888  17.442   3.497 -0.2783 -0.2082  0.4420
 4097W        W47035  14.586  19.412   4.079  0.2174  0.1311  0.2713
 4098W        W47036  15.455  19.237   4.973  0.0305 -0.0310  0.2462
 4099W        W47037  15.781  19.560   5.320  0.2950 -0.0209  0.0734
 4100W        W47038  16.472  18.179   6.784  0.0392  0.1387  0.1231
 4101W        W47039  15.773  18.089   4.798 -0.2168 -0.0667  0.0591
 4102W        W47040  16.068  20.069   4.733 -0.2368 -0.2126 -0.0309
 4103W        W47041  17.840  19.588   5.965  0.0196 -0.2913 -0.2339
 4104W        W47042  17.858  20.881   6.073 -0.0437  0.0254 -0.2282
 4105W        W47043  15.872  19.583   4.274 -0.0895 -0.1383 -0.0330
 4106W        W47044  16.401  21.107   5.762 -0.0094  0.2367 -0.0437
 4107W        W47045  16.351  19.536   3.510 -0.1162 -0.0483 -0.2023
 4108W        W47046  15.608  19.966   4.437  0.1313 -0.3229  0.1862
 4109W        W47047  14.884  18.624   7.290  0.1640  0.2091  0.2278
 4110W        W47048  17.604  18.771   6.088  0.1123 -0.2115  0.0081
 4111W        W47049  16.873  19.741   3.246 -0.2023 -0.2498  0.2343
 4112W        W47050  16.206  16.481   2.813  0.0414 -0.4378 -0.0545
 4113W        W47051  15.702  21.660   4.142  0.0894  0.3210 -0.1059
 4114W        W47052  15.385  21.688   5.132 -0.1718 -0.0650 -0.1628
 4115W        W47053  15.012  20.709   5.554 -0.0698  0.2976 -0.0899
 4116W        W47054  14.950  21.293   3.310 -0.0725 -0.1897  0.1054
 4117W        W47055  18.127  20.445   5.071  0.2629  0.1984 -0.0201
 4118W        W47056  15.968  19.410   3.059 -0.0897 -0.0479  0.2241
 4119W        W47057  17.275  21.262   3.702  0.2344 -0.0727 -0.2085
 4120W        W47058  15.906  18.369   2.032 -0.2511 -0.1934  0.1537
 4121W        W47059  14.883  20.406   4.385  0.1915 -0.1447 -0.0104
 4122W        W47060  13.367  21.681   2.586 -0.4118 -0.0943  0.1454
 4123W        W47061  17.889  21.655   3.070  0.4055  0.0109  0.1446
 4124W        W47062  15.148  21.344   4.838  0.0558  0.0929 -0.0921
 4125W        W47063  17.608  22.144   6.556  0.3097  0.0737 -0.3516
 4126W        W47064  18.110  17.274   3.675  0.2322  0.0176  0.1476
 4127W        W47065  17.832  19.938   4.242  0.0781 -0.3096  0.3135
 4128W        W47066  16.849  19.410   2.879  0.1264  0.2786  0.0133
 4129W        W47067  16.467  20.934   7.596  0.2642 -0.0327 -0.2810
 4130W        W47068  15.870  19.088   4.498  0.2351 -0.1241  0.1110
 4131W        W47069  15.263  17.852   3.010 -0.3124 -0.2410 -0.0321
 4132W        W47070  16.272  18.250   4.470 -0.0533  0.0161  0.0212
 4133W        W47071  17.907  19.178   6.302  0.0293 -0.1287  0.0367
 4134W        W47072  14.610  21.536   5.697  0.1540 -0.1998 -0.0387
 4135W        W47073  17.377  20.308   4.444 -0.1793 -0.0494 -0.3595
 4136W        W47074  13.735  20.997   4.242 -0.0100 -0.1952 -0.1407
 4137W        W47075  15.426  19.547   3.317 -0.2193 -0.0056 -0.0756
 4138W        W47076  17.026  18.165   4.674 -0.1070 -0.0848 -0.4825
 4139W        W47077  15.988  19.130   2.581 -0.1074  0.0324 -0.1407
 4140W        W47078  16.527  17.264   3.809 -0.0257 -0.2008 -0.1412
 4141W        W47079  15.436  21.208   4.045  0.2919  0.2240 -0.1775
 4142W        W47080  14.681  20.857   4.586 -0.0489 -0.2901 -0.2110
 4143W        W47081  15.742  20.454   4.900  0.1059 -0.3710 -0.1224
 4144W        W47082  14.625  18.426   4.963 -0.0704  0.1316 -0.1862
 4145W        W47083  16.325  18.539   5.499  0.1563 -0.0201  0.2003
 4146W        W47084  14.647  18.661   5.893 -0.1077 -0.2531  0.3935
 4147W        W47085  17.908  18.273   5.547  0.4666  0.0236 -0.2600
 4148W        W47086  14.872  18.725   3.494  0.3348  0.2201 -0.0057
 4149W        W47087  17.069  18.474   3.160 -0.2089  0.1527 -0.1836
 4150W        W47088  17.890  19.989   5.133 -0.1238 -0.0508 -0.1958
 4151W        W47089  15.049  19.298   4.680 -0.1734  0.0545 -0.2916
 4152W        W47090  16.235  18.698   2.627  0.0441  0.1624 -0.1137
 4153W        W47091  18.391  19.689   6.090  0.3976 -0.1966 -0.1863
 4154W        W47092  16.318  19.397   2.136 -0.2481 -0.0056  0.1562
 4155W        W47093  16.528  21.502   6.063  0.1427 -0.2254  0.0774
 4156W        W47094  15.649  16.963   3.971 -0.2171  0.0169  0.0760
 4157W        W47095  15.753  17.878   3.692 -0.0436  0.1032  0.0896
 4158W        W47096  13.749  19.473   4.413  0.4167 -0.0831  0.3759
 4159W        W47097  15.342  17.676   4.380 -0.0957 -0.1170  0.1724
 4160W        W47098  17.036  21.169   7.617  0.2542  0.0512  0.0342
 4161W        W47099  15.272  16.331   3.643 -0.1407 -0.1534  0.1066
 4162W        W47100  17.205  20.367   2.622 -0.3548 -0.1203 -0.4233
 4163W        W47101  18.303  19.395   4.601  0.1599 -0.1509  0.2524
 4164W        W47102  16.266  22.144   1.277 -0.1771  0.1803 -0.0649
 4165W        W47103  17.319  19.815   4.544  0.0918  0.0935  0.4361
 4166W        W47104  17.758  21.719   4.674  0.1977  0.0218 -0.0885
 4167W        W47105  12.690  19.450   5.479  0.0935  0.1310  0.0427
 4168W        W47106  17.572  22.280   4.527 -0.2067 -0.0784  0.1365
 4169W        W47107  18.297  20.911   3.384  0.0899 -0.2241  0.2549
 4170W        W47108  16.706  17.392   2.538  0.2639  0.1253 -0.1741
 4171W        W47109  14.914  18.249   4.089  0.0765 -0.0458  0.2256
 4172W        W47110  14.605  20.864   4.075 -0.2929 -0.3897  0.5248
 4173W        W47111  17.802  19.109   5.809 -0.0110  0.2474  0.3194
 4174W        W47112  17.164  18.646   4.490  0.1359 -0.1609 -0.0075
 4175W        W47113  15.460  20.022   3.230  0.0681  0.0684 -0.0550
 4176W        W47114  18.024  17.907   4.655 -0.0798  0.0599 -0.2524
 4177W        W47115  16.963  19.719   5.517  0.2817  0.1080  0.1200
 4178W        W47116  15.658  21.055   6.197 -0.1391  0.3974 -0.2053
 4179W        W47117  13.914  19.545   0.527  0.0247  0.1532  0.1216
 4180W        W47118  16.735  18.626   4.793  0.3859 -0.0690 -0.1474
 4181W        W47119  15.299  20.329   4.199  0.0403  0.0592 -0.0073
 4182W        W47120  16.330  21.618   4.160  0.3376 -0.2248 -0.0734
 4183W        W47121  18.327  19.795   4.315  0.2733  0.0785  0.1438
 4184W        W47122  16.107  18.677   3.581  0.0179 -0.0502  0.0387
 4185W        W47123  17.561  20.888   3.472 -0.1794  0.3456 -0.0241
 4186W        W47124  15.748  17.491   4.494  0.2271 -0.2783 -0.0815
 4187W        W47125  17.004  17.843   3.040  0.3154  0.0995 -0.1252
 4188W        W47126  17.065  17.150   5.033  0.0478 -0.1172 -0.3460
 4189W        W47127  16.034  19.863   5.601  0.0573  0.1993  0.2483
 4190W        W47128  15.049  19.215   3.533 -0.0174 -0.2833 -0.2111
 4191W        W47129  13.756  19.287   1.876 -0.2333 -0.2837 -0.0275
 4192W        W47130  14.193  19.745   4.383 -0.3176  0.1225 -0.4388
 4193W        W47131  15.610  18.407   7.827 -0.0052 -0.3652  0.1024
 4194W        W47132  15.820  18.718   7.463  0.0364 -0.0866  0.0834
 4195W        W47133  13.820  19.498   5.343  0.1732 -0.2460  0.1311
 4196W        W47134  14.735  16.481   4.329 -0.2437  0.1024  0.0406
 4197W        W47135  16.576  20.549   3.362 -0.0485  0.2106 -0.2001
 4198W        W47136  14.830  17.792   4.898 -0.5228  0.2047 -0.3608
 4199W        W47137  14.560  19.434   3.602  0.0296  0.0797  0.0183
 4200W        W47138  16.283  20.999   3.229  0.2130 -0.0600 -0.1440
 4201W        W47139  16.739  21.143   3.105 -0.3370  0.0691  0.2913
 4202W        W47140  16.133  18.213   3.489  0.0179 -0.0984  0.1936
 4203W        W47141  17.206  20.675   7.657  0.2499 -0.2825  0.0983
 4204W        W47142  14.550  20.769   3.085 -0.1465  0.2472 -0.1015
 4205W        W47143  15.955  19.046   5.803 -0.0761  0.1642 -0.1118
 4206W        W47144  16.192  17.653   8.405 -0.0642 -0.1299 -0.0357
 4207W        W47145  14.614  18.653   1.711  0.1821 -0.0664  0.3087
 4208W        W47146  16.519  19.445   4.826  0.0330  0.2183  0.4807
 4209W        W47147  16.966  21.631   4.743  0.0849 -0.4801  0.0429
 4210W        W47148  17.722  21.305   4.285  0.4360 -0.3322  0.0647
 4211W        W47149  14.878  19.798   5.285 -0.1233  0.1804 -0.1144
 4212W        W47150  15.292  21.386   8.490 -0.0333  0.1546  0.3088
 4213W        W47151  15.248  17.377   5.786  0.1314  0.0599  0.0345
 4214W        W47152  16.389  19.135   3.835 -0.2708  0.0036  0.3479
 4215W        W47153  16.021  19.831   6.119 -0.3059 -0.0268  0.2967
 4216W        W47154  17.476  20.178   3.786 -0.4761  0.2483  0.0881
 4217W        W47155  18.160  18.889   3.645 -0.4359  0.0116 -0.0702
 4218W        W47156  16.628  19.080   4.556  0.1299  0.3622 -0.1825
 4219W        W47157  15.754  18.307   6.194  0.0438  0.0712 -0.1186
 4220W        W47158  14.944  19.932   5.804 -0.1162 -0.1732  0.1211
 4221W        W47159  18.110  21.337   4.907 -0.2840 -0.1040 -0.0037
 4222W        W47160  15.379  16.248   4.701 -0.1220 -0.1013 -0.2615
 4223W        W47161  15.866  16.909   4.442  0.1235 -0.0871 -0.3269
 4224W        W47162  15.679  19.987   3.898  0.1054  0.1278  0.2443
 4225W        W47163  14.145  20.267   6.084 -0.0146  0.1188 -0.2747
 4226W        W47164  16.412  18.612   3.166 -0.2410 -0.1968 -0.2524
 4227W        W47165  17.065  18.903   6.320  0.2195 -0.2596  0.0611
 4228W        W47166  17.516  20.383   4.955 -0.3661 -0.3019  0.2890
 4229W        W47167  17.335  20.275   6.593  0.3329 -0.1352  0.0963
 4230W        W47168  15.901  18.874   3.159  0.0627  0.0288  0.0466
 4231W        W47169  18.347  20.370   1.762 -0.1592 -0.1383 -0.1464
 4232W        W47170  17.254  20.863   6.425  0.3982  0.5025 -0.3018
 4233W        W47171  17.206  21.966   5.871 -0.0432  0.0689 -0.0001
 4234W        W47172  17.068  20.205   4.835  0.1730 -0.1847  0.0658
 4235W        W47173  17.584  19.354   4.764  0.3381  0.0417  0.2083
 4236W        W47174  14.811  18.413   6.307 -0.2926  0.2689  0.3989
 4237W        W47175  14.945  19.665   3.824  0.0596  0.0856  0.0449
 4238W        W47176  15.906  19.119   3.976  0.3429 -0.1788  0.0401
 4239W        W47177  16.963  19.185   4.864  0.0147  0.2242 -0.0045
 4240W        W47178  14.442  17.227   4.540  0.1004 -0.3207  0.0249
 4241W        W47179  16.568  17.823   2.697 -0.0741  0.0271  0.1486
 4242W        W47180  16.455  22.348   5.795  0.0670 -0.0353 -0.0594
 4243W        W47181  16.616  20.164   4.731 -0.1032  0.2836 -0.0988
 4244W        W47182  16.702  17.231  10.014  0.2530 -0.2153  0.4450
 4245W        W47183  15.521  19.215   6.765 -0.0498 -0.2303 -0.1863
 4246W        W47184  16.953  19.326   5.906 -0.3263 -0.0923  0.0681
 4247W        W47185  18.307  18.193   8.128 -0.1295 -0.1116 -0.0956
 4248W        W47186  15.180  18.487   8.097 -0.3232  0.0049  0.0398
 4249W        W47187  15.650  21.328   8.026 -0.0681  0.3743 -0.0155
 4250W        W47188  17.041  20.889   9.847 -0.1529  0.1950 -0.0952
 4251W        W47189  16.199  20.663   9.526 -0.0387 -0.0732  0.1053
 4252W        W47190  18.097  18.428   4.621  0.1692 -0.1870  0.3060
 4253W        W47191  14.211  20.331  11.104 -0.0547  0.2162  0.2491
 4254W        W47192  16.272  18.213   8.884 -0.0341  0.1520 -0.0296
 4255W        W47193  13.903  16.857   8.717 -0.1777 -0.1943  0.1141
 4256W        W47194  15.943  16.088   9.324 -0.1930  0.0602  0.0122
 4257W        W47195  15.570  19.425   7.763  0.0931 -0.2249 -0.1425
 4258W        W47196  18.737  18.147  10.291 -0.3058 -0.0192  0.3039
 4259W        W47197  16.757  18.013   9.153 -0.0762 -0.1055  0.0183
 4260W        W47198  17.014  19.673   7.679  0.2893  0.2349  0.1340
 4261W        W47199  16.702  16.272   9.971  0.1382 -0.2593 -0.2014
 4262W        W47200  16.977  20.202   7.058  0.1073 -0.0982 -0.0315
 4263W        W47201  15.150  18.124   7.083 -0.5852 -0.1731 -0.0273
 4264W        W47202  15.339  19.179   9.615  0.0481  0.1954  0.1195
 4265W        W47203  16.088  20.564   7.391 -0.1967 -0.0269  0.0890
 4266W        W47204  16.969  18.211   8.775  0.1807  0.0723 -0.1814
 4267W        W47205  18.007  18.203  10.428  0.1544 -0.0569 -0.0501
 4268W        W47206  17.080  20.149   9.404  0.3336 -0.3129 -0.1304
 4269W        W47207  16.440  20.931   8.294  0.1030 -0.1051  0.0132
 4270W        W47208  14.565  20.170   8.447 -0.1438  0.1125  0.0168
 4271W        W47209  14.729  21.070   7.267 -0.2381 -0.1380 -0.3783
 4272W        W47210  15.497  20.222   7.367 -0.0077  0.1376  0.1101
 4273W        W47211  18.029  19.769   8.910 -0.0885 -0.5281 -0.3128
 4274W        W47212  15.117  19.246   6.472  0.2469  0.3985  0.0644
 4275W        W47213  16.788  19.061   8.930  0.0749 -0.2525 -0.3577
 4276W        W47214  16.722  18.997   8.373  0.0092  0.1793  0.0854
 4277W        W47215  14.937  19.882   7.143 -0.2418  0.1140 -0.0575
 4278W        W47216  16.673  19.873   7.306  0.1523  0.1782 -0.1489
 4279W        W47217  15.499  19.773   8.831 -0.4100  0.6585  0.0272
 4280W        W47218  15.347  20.861   7.793 -0.1358  0.3068  0.0447
 4281W        W47219  17.365  18.799   7.737 -0.0930 -0.0500 -0.1359
 4282W        W47220  16.330  18.897   6.657 -0.0188  0.2351 -0.0225
 4283W        W47221  16.655  17.865   8.613 -0.2555  0.0006 -0.2932
 4284W        W47222  15.387  18.220   8.831  0.3647 -0.2326  0.0828
 4285W        W47223  15.887  19.512   8.128  0.2688  0.0383 -0.2268
 4286W        W47224  14.524  18.783   9.094 -0.1703 -0.1515 -0.1259
 4287W        W47225  16.978  19.082   6.767 -0.0586  0.0472  0.3270
 4288W        W47226  16.876  19.259   9.391  0.1078  0.2189  0.0545
 4289W        W47227  16.346  22.029   9.211 -0.4042  0.0556 -0.0483
 4290W        W47228  14.860  18.751   7.817  0.0842 -0.0775  0.1317
 4291W        W47229  17.871  20.409   7.081 -0.1140  0.2403  0.1418
 4292W        W47230  18.460  21.750   6.917  0.0539  0.1007 -0.0484
 4293W        W47231  16.376  20.242   7.051 -0.0615 -0.0781  0.0296
 4294W        W47232  14.324  20.346   8.007 -0.0096  0.3255  0.2900
 4295W        W47233  16.557  18.339   7.480  0.1384 -0.2149  0.2966
 4296W        W47234  17.930  18.220   8.517 -0.1543  0.0216 -0.0298
 4297W        W47235  14.594  21.111   9.102 -0.1896 -0.1114  0.0340
 4298W        W47236  20.339  22.965  12.035  0.0887  0.2447  0.0195
 4299W        W47237  16.364  20.310   6.574  0.1590  0.1238 -0.0219
 4300W        W47238  17.096  16.767   9.344  0.1451  0.3687  0.1399
 4301W        W47239  18.059  17.758   9.127 -0.0082  0.1429  0.4657
 4302W        W47240  15.891  20.179   7.087  0.2337 -0.0887  0.4001
 4303W        W47241  15.143  19.191   7.561  0.1861  0.1381  0.2438
 4304W        W47242  14.750  19.062   9.838 -0.1573  0.0328  0.0689
 4305W        W47243  16.656  19.903   8.389  0.0607  0.2138  0.2189
 4306W        W47244  15.611  19.829   9.396  0.0827  0.4432 -0.2619
 4307W        W47245  14.979  21.784   7.877 -0.0104  0.1143 -0.1005
 4308W        W47246  15.075  19.303   8.144  0.1092 -0.0518 -0.1214
 4309W        W47247  15.934  18.976   7.906  0.0724 -0.0358  0.1432
 4310W        W47248  14.267  17.714   9.656 -0.2394 -0.3273  0.0161
 4311W        W47249  16.014  18.780   9.703  0.0653 -0.1051 -0.0453
 4312W        W47250  16.615  17.536   9.206 -0.2069 -0.2314  0.0018
 4313W        W47251  18.294  17.105   7.329 -0.0035  0.0350 -0.2452
 4314W        W47252  14.526  19.932   7.520  0.0297  0.0982  0.1355
 4315W        W47253  16.773  21.583   7.806  0.2502 -0.1208 -0.2142
 4316W        W47254  16.970  19.039   7.293 -0.1536  0.1043  0.0945
 4317W        W47255  17.140  19.794   6.810 -0.0299  0.0761 -0.0053
 4318W        W47256  15.536  18.831  10.049  0.0344  0.1190  0.2081
 4319W        W47257  14.915  18.564   8.940 -0.3287  0.0966  0.2339
 4320W        W47258  15.336  17.753   8.581  0.3351 -0.1746  0.0969
 4321W        W47259  14.781  17.630   8.494 -0.1944 -0.0806  0.1770
 4322W        W47260  17.652  17.881   8.731 -0.0342  0.1906 -0.4912
 4323W        W47261  16.942  17.342   9.601  0.4980 -0.2222 -0.2810
 4324W        W47262  15.119  19.059   8.884  0.0004 -0.0885 -0.1522
 4325W        W47263  15.342  20.319   7.865 -0.2787  0.1064 -0.1771
 4326W        W47264  17.375  22.244   9.615 -0.1090 -0.2002  0.0723
 4327W        W47265  17.580  20.121   8.207 -0.1295 -0.2196  0.2344
 4328W        W47266  16.284  20.027   8.779  0.2609 -0.1173  0.0731
 4329W        W47267  15.582  19.170   7.230 -0.2061 -0.2343  0.0846
 4330W        W47268  15.747  20.296   9.589 -0.1512 -0.1490  0.2536
 4331W        W47269  17.519  21.125   9.285 -0.0998  0.1266  0.0961
 4332W        W47270  15.954  18.852   6.312  0.0029  0.2843 -0.0982
 4333W        W47271  18.684  20.772   8.165 -0.2750  0.1669 -0.3267
 4334W        W47272  15.764  19.820   7.422  0.2254 -0.1135 -0.3608
 4335W        W47273  19.681  19.871  10.043  0.0708  0.0824  0.0968
 4336W        W47274  17.777  19.053   8.490 -0.1114 -0.2300  0.3889
 4337W        W47275  15.350  18.074   7.512  0.0433 -0.0900 -0.0965
 4338W        W47276  17.545  21.234   7.585  0.1407 -0.0005 -0.1918
 4339W        W47277  13.871  21.102   6.786 -0.0959  0.0853 -0.0365
 4340W        W47278  13.934  19.567   8.935  0.0881 -0.2162 -0.3415
 4341W        W47279  17.149  20.501   8.120 -0.0973 -0.0262 -0.3686
 4342W        W47280  16.344  18.541   9.948  0.0461  0.0429  0.2714
 4343W        W47281  15.769  18.376   5.597  0.0492 -0.1938 -0.4180
 4344W        W47282  16.945  17.091   8.989 -0.0710  0.2587  0.2334
 4345W        W47283  17.278  18.018   7.362  0.0760 -0.2167  0.3362
 4346W        W47284  17.029  20.169   7.546  0.0247  0.0839  0.0785
 4347W        W47285  16.169  18.053   5.282  0.0897  0.1756  0.1283
 4348W        W47286  16.815  18.491   5.554  0.3330 -0.0688 -0.3088
 4349W        W47287  15.803  20.011   8.506  0.0056  0.0913 -0.1658
 4350W        W47288  16.558  20.464   7.522  0.0055 -0.3271 -0.1652
 4351W        W47289  16.754  18.094   6.253 -0.1315  0.1869 -0.0869
 4352W        W47290  17.349  19.827   7.258 -0.0740 -0.0219  0.1946
 4353W        W47291  13.916  19.113   9.332  0.0264 -0.1062  0.2850
 4354W        W47292  16.586  20.986   9.653  0.0601 -0.1420 -0.0883
 4355W        W47293  16.009  19.852   9.686 -0.0333 -0.0753 -0.0279
 4356W        W47294  16.134  19.017   7.232  0.0907  0.0001  0.1837
 4357W        W47295  16.010  18.031   7.779  0.0734 -0.1361  0.1229
 4358W        W47296  15.190  21.318   7.513  0.2228 -0.0457  0.1995
 4359W        W47297  18.665  17.591   8.691  0.0665  0.1546 -0.0783
 4360W        W47298  17.186  17.760   8.999  0.4918  0.0494  0.0499
 4361W        W47299  16.200  19.692   7.178  0.0451 -0.0530  0.0836
 4362W        W47300  18.947  18.949   9.899 -0.0775  0.2134  0.1165
 4363W        W47301  14.679  19.030   6.292  0.0610 -0.1721 -0.2013
 4364W        W47302  17.256  18.889   9.209 -0.1920  0.1418  0.1195
 4365W        W47303  15.541  22.289   8.443  0.1819 -0.1772 -0.0714
 4366W        W47304  15.724  19.635   6.981  0.0826 -0.2678  0.0035
 4367W        W47305  16.584  19.714   6.865  0.2252  0.2607 -0.1500
 4368W        W47306  15.741  20.540   7.711  0.2548 -0.0547 -0.2566
 4369W        W47307  15.680  19.675   6.464 -0.1150  0.2324  0.3624
 4370W        W47308  15.361  16.914   9.298  0.2588  0.0156  0.0346
 4371W        W47309  17.088  21.427   9.125 -0.2238 -0.2907 -0.4723
 4372W        W47310  15.012  20.399   6.340 -0.1350  0.0579  0.3062
 4373W        W47311  16.547  19.659   9.200  0.0970 -0.2155  0.0789
 4374W        W47312  14.699  20.170   6.724 -0.2827 -0.1697  0.2858
 4375W        W47313  18.289  17.880   7.772  0.2135 -0.0495 -0.2216
 4376W        W47314  15.188  19.963  10.227  0.1242  0.3201  0.1955
 4377W        W47315  16.109  18.580   5.954 -0.0180 -0.1472 -0.0847
 4378W        W47316  16.263  18.713   8.258 -0.0136 -0.0270 -0.2949
 4379W        W47317  17.193  19.670   8.438  0.0346  0.0477 -0.5553
 4380W        W47318  17.228  20.641   6.892  0.0470 -0.0704 -0.2898
 4381W        W47319  15.853  17.979   8.672  0.0814  0.3426  0.2172
 4382W        W47320  16.345  16.933   8.829  0.1834 -0.0796  0.1168
 4383W        W47321  15.476  20.474   9.201 -0.0328  0.0815  0.1811
 4384W        W47322  16.583  18.668   6.092  0.5550  0.1007 -0.1598
 4385W        W47323  15.778  18.615   8.262  0.0627  0.1472  0.1028
 4386W        W47324  18.902  17.234   9.934 -0.0463  0.3141 -0.3046
 4387W        W47325  16.913  18.983   7.852 -0.1838  0.1032 -0.0842
 4388W        W47326  15.790  20.164   9.004  0.2058 -0.0166 -0.0526
 4389W        W47327  17.581  20.804   8.937 -0.2568 -0.0600 -0.2176
 4390W        W47328  14.319  20.415   7.480 -0.1390 -0.1526 -0.0668
 4391W        W47329  14.794  21.009   8.291 -0.0570 -0.0521 -0.0617
 4392W        W47330  20.269  18.957  10.304  0.0887  0.0594  0.3278
 4393W        W47331  15.881  17.014   9.576 -0.4769 -0.1110  0.0780
 4394W        W47332  16.571  18.380   8.437  0.2217 -0.0079  0.0969
 4395W        W47333  15.946  19.552   8.607  0.1847 -0.2271 -0.2227
 4396W        W47334  17.080  20.703   8.911 -0.0604 -0.1600 -0.1739
 4397W        W47335  18.164  19.168   8.872  0.0317  0.1138  0.2029
 4398W        W47336  15.015  19.572   8.910 -0.0166  0.2030  0.2572
 4399W        W47337  16.905  20.701   7.290  0.3988 -0.0723  0.1412
 4400W        W47338  15.120  20.322   6.927  0.4102 -0.2112  0.0046
 4401W        W47339  14.716  18.347   9.386 -0.1667  0.0689  0.2982
 4402W        W47340  16.016  19.397   7.556 -0.2253 -0.0278 -0.0950
 4403W        W47341  16.471  18.996   9.775  0.3461  0.1202  0.2636
 4404W        W47342  15.091  23.262   9.404 -0.2829  0.1909  0.0323
 4405W        W47343  15.516  20.556   6.760 -0.0201 -0.0419  0.1923
 4406W        W47344  15.104  19.586   9.501  0.0570 -0.1175  0.1057
 4407W        W47345  17.970  18.396   7.838 -0.1718  0.1596 -0.3257
 4408W        W47346  17.410  20.317   7.257  0.4534 -0.0830  0.0150
 4409W        W47347  18.049  18.143   9.482 -0.2229  0.0680  0.5006
 4410W        W47348  16.126  19.296   6.246 -0.2424  0.0914 -0.1311
 4411W        W47349  17.288  18.658   9.659  0.1607  0.2701 -0.0069
 4412W        W47350  17.017  20.238   8.596 -0.2712 -0.0359 -0.2592
 4413W        W47351  16.165  18.542   7.786  0.0867  0.0529  0.1022
 4414W        W47352  15.485  18.209   8.372 -0.0959 -0.0717  0.1077
 4415W        W47353  18.119  18.571   9.698  0.0832 -0.1706  0.0249
 4416W        W47354  20.466  19.244  10.944 -0.2800 -0.0140  0.0522
 4417W        W47355  16.126  19.816   6.681  0.1493  0.2358 -0.0071
 4418W        W47356  16.186  18.564   9.255  0.1203 -0.2136  0.0018
 4419W        W47357  17.673  18.459   9.278 -0.1373 -0.2251  0.0445
 4420W        W47358  18.093  18.729   9.177 -0.1676  0.1584  0.0804
 4421W        W47359  17.439  18.315   7.821  0.1895  0.1567 -0.1201
 4422W        W47360  17.270  19.081   8.437  0.0073  0.1634  0.1850
 4423W        W47361  16.736  20.170   9.018  0.1047 -0.0076  0.2131
 4424W        W47362  18.213  17.812   8.657 -0.0549 -0.2311 -0.0918
 4425W        W47363  16.329  19.064   9.194  0.2052 -0.2757  0.1039
 4426W        W47364  18.532  18.831   6.212 -0.2977  0.0450  0.2910
 4427W        W47365  18.780  18.320   8.951 -0.0487 -0.2524 -0.1893
 4428W        W47366  18.103  19.855   8.438 -0.0246 -0.1401  0.1028
 4429W        W47367  17.061  18.532   7.349  0.3092 -0.2081  0.0196
 4430W        W47368  15.413  19.333   9.165 -0.0529 -0.1458  0.0522
 4431W        W47369  15.885  18.830   6.796 -0.0494 -0.6366  0.0201
 4432W        W47370  15.933  20.883   8.188 -0.1561 -0.2530  0.1328
 4433W        W47371  17.331  20.640   9.389 -0.1897  0.0517 -0.1153
 4434W        W47372  16.947  18.133   8.222 -0.1563 -0.3242 -0.0022
 4435W        W47373  14.356  19.126   9.522  0.0251  0.4056 -0.0750
 4436W        W47374  14.581  19.133   6.803  0.2260 -0.0797  0.1346
 4437W        W47375  16.204  19.390   5.525 -0.2516  0.0347  0.0826
 4438W        W47376  19.534  18.953   9.667 -0.0286  0.1208  0.3993
 4439W        W47377  16.539  17.881   7.689  0.1152 -0.2927  0.1601
 4440W        W47378  14.083  19.960   7.705 -0.1511 -0.0026 -0.1824
 4441W        W47379  17.374  16.636   7.734  0.1666 -0.0529 -0.3228
 4442W        W47380  17.442  19.348   9.301  0.0481 -0.0511  0.2000
 4443W        W47381  15.452  19.778   8.244 -0.1279 -0.4854  0.1486
 4444W        W47382  18.343  15.575   9.442  0.3801  0.0871 -0.1660
 4445W        W47383  16.103  16.405   8.864 -0.2813 -0.1517  0.1530
 4446W        W47384  16.802  19.488   8.175  0.0225  0.2560 -0.1995
 4447W        W47385  16.046  19.571   9.093 -0.0657 -0.0723  0.1481
 4448W        W47386  18.548  17.757  10.478  0.0095 -0.0925  0.2508
 4449W        W47387  16.339  18.721   8.718  0.3205 -0.0690  0.0736
 4450W        W47388  17.560  18.434   8.792 -0.1225 -0.0637 -0.0842
 4451W        W47389  15.837  18.176   7.304 -0.1109 -0.3691  0.0706
 4452W        W47390  15.371  20.154   6.553 -0.1459 -0.0171 -0.0161
 4453W        W47391  16.266  19.389   9.592  0.2487 -0.1568  0.1834
 4454W        W47392  16.126  21.062   7.176  0.1989  0.1278  0.1835
 4455W        W47393  16.467  20.738   7.000 -0.0371  0.0358  0.3585
 4456W        W47394  17.165  19.337   5.331 -0.3857  0.1289 -0.0983
 4457W        W47395  16.390  22.111   9.749 -0.2270  0.1292 -0.1991
 4458W        W47396  17.250  19.321   7.977  0.0197  0.0027  0.1870
 4459W        W47397  16.220  20.519   9.054 -0.3396  0.2802  0.5720
 4460W        W47398  13.440  20.430   7.248 -0.3220 -0.1649 -0.0306
 4461W        W47399  16.816  21.220   8.114  0.1420 -0.1485 -0.0634
 4462W        W47400  15.646  20.574   8.694 -0.1939  0.0037 -0.1238
 4463W        W47401  17.848  19.451   7.485 -0.2002 -0.1487  0.1050
 4464W        W47402  19.155  18.379   9.896 -0.2138  0.2105  0.0136
 4465W        W47403  18.485  18.848   7.583 -0.1490  0.1166 -0.0674
 4466W        W47404  16.695  18.555   9.016  0.1667 -0.3826 -0.0091
 4467W        W47405  16.646  18.521   7.938 -0.1003  0.3494  0.0338
 4468W        W47406  16.773  20.759   7.915 -0.2424  0.0918 -0.0038
 4469W        W47407  16.965  18.151   7.739 -0.0810 -0.2198  0.0784
 4470W        W47408  17.014  17.170   8.344  0.2528 -0.2026  0.2292
 4471W        W47409  17.127  18.713   8.726 -0.1408  0.1385  0.0471
 4472W        W47410  16.165  20.106   7.582  0.2805  0.0694  0.3149
 4473W        W47411  16.188  17.495   9.528 -0.1432  0.0556  0.1170
 4474W        W47412  15.840  20.790   9.105  0.0935 -0.0317  0.1668
 4475W        W47413  16.054  21.146  10.057 -0.0293 -0.0894 -0.0787
 4476W        W47414  16.987  21.394   9.608  0.0083  0.0315 -0.0678
 4477W        W47415  16.083  18.240   8.349  0.0239 -0.0422  0.0873
 4478W        W47416  18.566  18.159   8.553 -0.1114 -0.0675 -0.1152
 4479W        W47417  16.363  19.636   7.954 -0.2592  0.0480 -0.0440
 4480W        W47418  17.588  17.971   9.267  0.2090 -0.0314  0.1310
 4481W        W47419  18.532  18.350   7.695 -0.2857 -0.1360 -0.0139
 4482W        W47420  16.239  20.086   9.262 -0.0177 -0.1459  0.0450
 4483W        W47421  16.817  18.332   9.717  0.0883  0.1133  0.1972
 4484W        W47422  15.559  19.137   5.530  0.2108 -0.1615 -0.1734
 4485W        W47423  15.971  18.452   5.040  0.0119  0.2623 -0.0863
 4486W        W47424  14.184  18.407   8.314  0.2249  0.0611  0.0916
 4487W        W47425  17.652  18.635   8.221 -0.2612 -0.3335 -0.2374
 4488W        W47426  16.622  20.010   7.785 -0.0076  0.1703 -0.0415
 4489W        W47427  16.723  20.574   9.282  0.2650 -0.2404 -0.0180
 4490W        W47428  13.793  18.157   8.126 -0.1254  0.1192  0.0534
 4491W        W47429  17.538  19.014   6.570 -0.0553 -0.1001  0.1318
 4492W        W47430  16.079  20.973   8.729 -0.1126 -0.4781 -0.0476
 4493W        W47431  15.088  21.995   7.401  0.1004  0.1054 -0.0247
 4494W        W47432  17.984  20.322   8.488  0.1720  0.0313 -0.1897
 4495W        W47433  17.091  19.678   9.515 -0.1015  0.6570 -0.2112
 4496W        W47434  13.652  19.530   9.455  0.0115 -0.2998 -0.2174
 4497W        W47435  16.752  19.517   8.720 -0.2971 -0.0754  0.2527
 4498W        W47436  17.882  20.265   9.044 -0.0196 -0.0352  0.0176
 4499W        W47437  16.848  17.622   8.197  0.1336 -0.0024 -0.2279
 4500W        W47438  15.704  19.123   8.873 -0.2811 -0.2376  0.0017
 4501W        W47439  14.349  20.009   7.063 -0.1262  0.0221 -0.3256
 4502W        W47440  18.117  18.723   8.615 -0.3578  0.2323 -0.2089
 4503W        W47441  16.016  20.598   6.878  0.0419 -0.1969  0.0491
 4504W        W47442  14.747  19.336   9.223 -0.2280 -0.0663 -0.1474
 4505W        W47443  15.917  18.856   5.348  0.2206 -0.3077 -0.1797
 4506W        W47444  16.764  20.480   9.770 -0.0372 -0.1120  0.0393
 4507W        W47445  15.305  19.889   7.680 -0.2613 -0.1007 -0.0985
 4508W        W47446  18.682  19.082   9.107  0.1090 -0.1669  0.0687
 4509W        W47447  18.658  18.469   9.885  0.0845 -0.3670 -0.2193
 4510W        W47448  17.706  18.911   8.974 -0.1062 -0.3635  0.0767
 4511W        W47449  17.257  19.202   9.832 -0.0948  0.1044  0.1149
 4512W        W47450  19.499  18.196   8.384 -0.4486 -0.1850  0.4882
 4513W        W47451  16.564  19.321   6.501  0.1513  0.0394  0.0729
 4514W        W47452  16.403  19.162   7.948  0.0929  0.1630 -0.0922
 4515W        W47453  14.489  19.289   8.004  0.0200  0.5434  0.2489
 4516W        W47454  15.566  20.015   6.064 -0.1006  0.0072 -0.1425
 4517W        W47455  15.299  19.603   7.255 -0.0490 -0.1722 -0.4426
 4518W        W47456  14.556  19.791   8.047  0.0963 -0.1592  0.0566
 4519W        W47457  15.473  18.967   8.000 -0.0196 -0.0159 -0.3521
 4520W        W47458  16.594  20.411   8.303  0.3212 -0.2101 -0.3363
 4521W        W47459  17.067  17.885   9.550  0.2656  0.2806  0.0072
 4522W        W47460  16.180  17.641   8.904  0.1990  0.0069  0.1480
 4523W        W47461  16.227  20.527   7.927 -0.2279  0.3403  0.0449
 4524W        W47462  19.215  20.641   7.690  0.1994 -0.0115  0.3123
 4525W        W47463  17.167  18.399   9.170  0.1343 -0.0688 -0.0494
 4526W        W47464  14.588  20.020   6.224 -0.3456 -0.1665 -0.0214
 4527W        W47465  14.460  17.068   7.355  0.2298 -0.0425 -0.0491
 4528W        W47466  17.470  17.516   9.530  0.1772 -0.1552 -0.1363
 4529W        W47467  15.741  20.437   8.205 -0.3000  0.1130 -0.2210
 4530W        W47468  16.689  21.196   7.136  0.3708  0.1312  0.0102
 4531W        W47469  15.448  16.159   9.477  0.0941  0.0820  0.1471
 4532W        W47470  17.759  19.118   8.000 -0.0649 -0.1017 -0.2497
 4533W        W47471  17.995  20.177   7.933 -0.0687 -0.2348 -0.1136
 4534W        W47472  16.835  18.783   9.484  0.0322  0.0289 -0.1814
 4535W        W47473  17.048  20.051   8.113  0.0467  0.1164  0.0734
 4536W        W47474  18.305  21.966   9.841  0.2536  0.0585  0.1056
 4537W        W47475  15.280  17.136   7.882 -0.3633 -0.0349  0.0081
 4538W        W47476  16.466  17.942   8.137 -0.0022  0.0153  0.0082
 4539W        W47477  14.871  21.853   6.741 -0.0150  0.2514 -0.1852
 4540W        W47478  16.374  19.190   8.724 -0.3437 -0.1390  0.1568
 4541W        W47479  17.365  19.321   7.483 -0.2644 -0.2491 -0.0375
 4542W        W47480  19.074  17.506  10.346  0.1628 -0.0854  0.3457
 4543W        W47481  16.598  19.417   7.544  0.3833  0.1598  0.2627
 4544W        W47482  18.854  18.866   7.957  0.2341 -0.2732  0.1851
 4545W        W47483  16.564  20.771   8.803  0.0992 -0.1866 -0.2989
 4546W        W47484  17.178  19.363   8.888 -0.0028  0.1598 -0.1134
 4547W        W47485  17.183  17.784  10.072  0.3163 -0.1399 -0.1357
 4548W        W47486  15.932  18.483  10.217 -0.1195  0.0816 -0.1009
 4549W        W47487  17.134  18.606   8.233  0.3329  0.3126 -0.1029
 4550W        W47488  17.654  19.548   8.269 -0.2044  0.2152  0.1189
 4551W        W47489  19.189  17.600   9.647  0.3344 -0.3811 -0.3410
 4552W        W47490  15.844  18.584   8.807 -0.0089 -0.0280  0.1447
 4553W        W47491  16.819  18.091   7.209 -0.2262  0.4453 -0.2414
 4554W        W47492  15.469  22.922   9.059 -0.2107  0.1782 -0.0177
 4555W        W47493  17.085  19.825   9.031  0.1745 -0.3117  0.2303
 4556W        W47494  15.763  24.362   3.721  0.1636  0.0764 -0.0183
 4557W        W47495  15.343  22.364   1.183  0.1241 -0.0245 -0.2461
 4558W        W47496  18.717  23.577  30.825 -0.1367  0.1091 -0.0048
 4559W        W47497  17.408  23.801   0.886  0.0002 -0.1311 -0.1132
 4560W        W47498  15.259  21.889  31.695 -0.1142  0.1016 -0.1444
 4561W        W47499  17.124  24.378  31.943  0.0483 -0.2085 -0.0843
 4562W        W47500  16.393  20.961   1.853  0.0749 -0.2206 -0.2202
 4563W        W47501  17.338  25.019   2.122 -0.1374  0.1684  0.0799
 4564W        W47502  17.787  24.905   2.342  0.1282 -0.1280 -0.0286
 4565W        W47503  15.406  22.853   1.211  0.0994  0.1577 -0.1992
 4566W        W47504  15.628  22.139   1.955 -0.1630  0.0590 -0.3594
 4567W        W47505  16.455  25.056   2.110 -0.0128  0.1968  0.1577
 4568W        W47506  16.707  22.184  29.845 -0.1718 -0.1607 -0.0814
 4569W        W47507  15.007  20.386   0.638 -0.3576 -0.3184 -0.2892
 4570W        W47508  15.783  24.192   1.990 -0.0940  0.2070  0.1414
 4571W        W47509  15.548  22.431  31.047 -0.1767 -0.1224  0.2309
 4572W        W47510  15.999  21.569   2.713  0.1214 -0.0095  0.2450
 4573W        W47511  16.844  21.262  31.259 -0.1571  0.0826  0.0031
 4574W        W47512  16.357  25.783   2.239  0.2830 -0.1561  0.1697
 4575W        W47513  16.784  21.820   2.018 -0.0227 -0.2649  0.0202
 4576W        W47514  16.292  21.600   1.355  0.2509  0.0785 -0.0143
 4577W        W47515  15.634  22.785   0.714  0.0004 -0.0551 -0.1373
 4578W        W47516  15.235  24.197  30.502  0.3987 -0.2772 -0.0836
 4579W        W47517  15.342  22.023   2.459  0.1438 -0.0002 -0.2056
 4580W        W47518  15.733  21.325   1.312  0.1899 -0.1112 -0.0571
 4581W        W47519  17.183  24.782   1.743  0.0595 -0.2212  0.1318
 4582W        W47520  17.930  23.929  31.442  0.1183  0.3858 -0.0982
 4583W        W47521  16.412  25.365   1.537  0.2065  0.0612 -0.1908
 4584W        W47522  16.595  24.526  31.160  0.4917  0.0446  0.3169
 4585W        W47523  16.826  21.403   3.474  0.0279 -0.4202 -0.2157
 4586W        W47524  15.988  24.558   1.089  0.1341 -0.0485  0.2075
 4587W        W47525  15.663  25.637   0.882  0.0713 -0.1433 -0.0621
 4588W        W47526  15.018  23.246   1.414 -0.1818 -0.2911 -0.1189
 4589W        W47527  17.096  23.624  31.536  0.0778  0.0330 -0.3142
 4590W        W47528  17.998  24.514   2.530 -0.1090  0.2193  0.2590
 4591W        W47529  15.353  24.099   3.749 -0.0198 -0.2190 -0.0118
 4592W        W47530  16.154  23.465  31.725  0.2407 -0.0474 -0.1560
 4593W        W47531  14.913  26.856   4.186  0.1692 -0.1083 -0.0668
 4594W        W47532  14.733  24.128   1.760 -0.3071  0.1221  0.0975
 4595W        W47533  16.710  23.415   2.030 -0.1535 -0.0537 -0.1418
 4596W        W47534  17.023  22.604   1.642 -0.0087  0.1788  0.1606
 4597W        W47535  15.174  23.788  30.796  0.1910  0.1995 -0.1833
 4598W        W47536  16.536  24.194  31.821  0.0612  0.0584  0.3973
 4599W        W47537  15.760  23.838   3.706  0.1177 -0.0279  0.0753
 4600W        W47538  14.275  25.281   1.213 -0.1836  0.0993 -0.2180
 4601W        W47539  17.765  21.327   3.438 -0.0320  0.2003 -0.2580
 4602W        W47540  16.952  25.711  30.230 -0.0793  0.2985  0.1445
 4603W        W47541  16.593  23.666  31.749  0.1219 -0.0563  0.0907
 4604W        W47542  16.778  20.532  29.702  0.1688  0.0407  0.2095
 4605W        W47543  17.193  21.502  31.706  0.1761  0.2170 -0.2630
 4606W        W47544  15.390  20.324   0.313 -0.1005 -0.0998 -0.2952
 4607W        W47545  17.043  25.776   3.191 -0.0782  0.1691 -0.2619
 4608W        W47546  16.744  21.413   1.558 -0.0717 -0.0893 -0.4406
 4609W        W47547  17.775  23.545   2.823 -0.2229  0.0606  0.2297
 4610W        W47548  17.060  21.428   0.180  0.3828 -0.3485  0.2074
 4611W        W47549  15.517  22.520   1.625  0.1247 -0.1274  0.0203
 4612W        W47550  16.499  24.773   3.240 -0.1025 -0.3368  0.2116
 4613W        W47551  14.308  23.293   0.896  0.1937  0.0339 -0.0608
 4614W        W47552  18.621  24.391  30.903  0.0815  0.3105 -0.2524
 4615W        W47553  18.251  23.621   2.955  0.0018 -0.0702  0.0908
 4616W        W47554  15.583  25.116  30.033 -0.1530 -0.1064  0.1549
 4617W        W47555  16.223  24.084   1.170 -0.1274 -0.3071  0.1975
 4618W        W47556  14.846  22.422   2.252 -0.1219 -0.0861 -0.2061
 4619W        W47557  16.250  23.014   1.713 -0.0864 -0.0177  0.0005
 4620W        W47558  14.983  21.811  31.102 -0.2475  0.0149 -0.1682
 4621W        W47559  17.412  23.895   3.180 -0.0841  0.0487 -0.2089
 4622W        W47560  14.622  24.083   2.584 -0.1631  0.0217 -0.2283
 4623W        W47561  17.383  22.720   0.807 -0.1201 -0.0933  0.3918
 4624W        W47562  17.222  25.403   2.399  0.1217 -0.0624  0.0233
 4625W        W47563  17.592  23.316   1.525 -0.2869 -0.1037  0.0283
 4626W        W47564  16.835  23.006  30.270  0.0619 -0.3808 -0.4407
 4627W        W47565  17.693  20.877   0.481  0.1349 -0.0189  0.2971
 4628W        W47566  17.632  21.520   2.621  0.1127 -0.4095 -0.1569
 4629W        W47567  15.929  24.001  31.200 -0.2132  0.0968  0.0906
 4630W        W47568  15.305  22.451   0.683 -0.0031  0.0996 -0.1396
 4631W        W47569  18.966  23.619   3.440 -0.3533  0.1839 -0.2682
 4632W        W47570  17.441  23.411  31.221  0.3158  0.0537  0.0543
 4633W        W47571  15.218  24.979   2.285 -0.3571  0.3320 -0.0217
 4634W        W47572  15.820  21.690   1.953  0.0161 -0.0024  0.0965
 4635W        W47573  16.488  23.897   2.971 -0.2882 -0.2080  0.0678
 4636W        W47574  14.937  24.518  30.919 -0.3768 -0.0310  0.0813
 4637W        W47575  15.796  22.884   1.514 -0.0610  0.0139  0.0219
 4638W        W47576  13.908  25.646   0.637 -0.1676 -0.0789 -0.3513
 4639W        W47577  15.207  21.237   1.135  0.2908  0.1417  0.2531
 4640W        W47578  15.967  23.484   2.480 -0.2483  0.1481 -0.4140
 4641W        W47579  17.567  20.704  31.892  0.0126 -0.0687 -0.0218
 4642W        W47580  14.416  22.645   1.211  0.1164 -0.1912 -0.0164
 4643W        W47581  17.564  20.223   1.307 -0.1470  0.0032 -0.1916
 4644W        W47582  16.173  24.446  31.418  0.2026  0.3250  0.0977
 4645W        W47583  17.820  25.556   0.890 -0.1494 -0.0222 -0.2090
 4646W        W47584  18.097  23.058   0.819  0.2162 -0.0492  0.0179
 4647W        W47585  19.368  25.001  31.260  0.1353 -0.0458 -0.0382
 4648W        W47586  14.251  21.014   0.927 -0.0246 -0.1932  0.0302
 4649W        W47587  15.570  22.022   0.783 -0.1700  0.1474  0.2277
 4650W        W47588  15.821  22.413   2.446  0.1900 -0.0001  0.1035
 4651W        W47589  14.361  20.254   0.518 -0.2294  0.0333 -0.1161
 4652W        W47590  17.301  23.370   3.062 -0.1842 -0.1260  0.0276
 4653W        W47591  14.710  22.216   0.578 -0.0453 -0.0685 -0.1974
 4654W        W47592  17.734  23.298   0.003  0.2056 -0.0521  0.0373
 4655W        W47593  16.394  21.527   0.048  0.0464  0.0407 -0.1027
 4656W        W47594  14.707  23.947   1.012 -0.0687 -0.4006  0.3529
 4657W        W47595  17.597  22.426   2.932 -0.1266 -0.0763  0.0203
 4658W        W47596  16.210  24.311  30.953 -0.0318 -0.3109 -0.1667
 4659W        W47597  17.683  25.381   2.453  0.1685  0.1309 -0.2343
 4660W        W47598  17.236  24.883  31.927  0.0785 -0.1203  0.1316
 4661W        W47599  15.506  22.300   2.877  0.2616 -0.0048  0.1207
 4662W        W47600  14.844  22.374  29.883  0.3491 -0.0003  0.0584
 4663W        W47601  15.841  25.053   2.278  0.0425  0.1234 -0.2748
 4664W        W47602  15.715  24.333   1.476  0.3370  0.0136  0.0113
 4665W        W47603  16.309  21.348  31.557  0.2735 -0.0744  0.1184
 4666W        W47604  17.516  24.701   0.855  0.1870 -0.2484 -0.3804
 4667W        W47605  16.355  23.168   0.150  0.2934  0.0356 -0.1336
 4668W        W47606  16.690  23.584   1.283 -0.1724  0.1772 -0.1915
 4669W        W47607  17.020  20.808   3.532  0.0743  0.1321  0.1473
 4670W        W47608  17.832  23.501   0.895 -0.0440 -0.1180  0.3192
 4671W        W47609  16.881  22.856   0.953  0.1793 -0.0434  0.0167
 4672W        W47610  15.311  21.379  31.376  0.0381  0.1342 -0.0965
 4673W        W47611  16.940  23.932   0.030 -0.1795  0.2691  0.4171
 4674W        W47612  14.271  26.904  31.939  0.1728  0.3257 -0.6664
 4675W        W47613  15.764  22.688  31.856  0.0699  0.1969  0.3006
 4676W        W47614  17.559  24.147   0.127 -0.1399 -0.0196 -0.1855
 4677W        W47615  17.762  22.799   1.107 -0.2285 -0.0505  0.1759
 4678W        W47616  15.422  23.625   3.367 -0.1542  0.0110 -0.1456
 4679W        W47617  16.675  22.851   2.930  0.2914  0.2226 -0.3514
 4680W        W47618  14.979  21.472  31.678  0.2667  0.4073 -0.0943
 4681W        W47619  14.734  25.030   1.946 -0.1738 -0.0766 -0.0769
 4682W        W47620  16.740  21.664   1.059 -0.2111  0.2851 -0.0703
 4683W        W47621  15.992  22.332   0.739 -0.2243  0.1548  0.1175
 4684W        W47622  17.121  22.147   1.824 -0.1696  0.2047 -0.1033
 4685W        W47623  17.080  24.549   0.519  0.4173 -0.2097  0.0839
 4686W        W47624  16.318  23.090  31.457  0.4015  0.1915  0.0469
 4687W        W47625  16.222  20.122  30.974 -0.0277 -0.0620 -0.2479
 4688W        W47626  16.041  24.011   3.246  0.2449  0.0480  0.2134
 4689W        W47627  16.807  25.932  31.087  0.3900 -0.0707 -0.1991
 4690W        W47628  17.041  23.731   1.697 -0.1159  0.3275  0.0724
 4691W        W47629  16.527  21.987  30.733 -0.3075  0.4108  0.3222
 4692W        W47630  18.264  26.008   0.120  0.0231 -0.0098  0.1842
 4693W        W47631  16.576  24.821   1.153  0.2171  0.2359 -0.0188
 4694W        W47632  16.917  24.302   2.510 -0.0142 -0.0151  0.0219
 4695W        W47633  17.857  25.005   0.135 -0.2045 -0.0160 -0.0867
 4696W        W47634  16.946  22.525   0.605 -0.2064  0.0730 -0.1490
 4697W        W47635  15.847  20.890  31.581 -0.0662 -0.0409  0.3793
 4698W        W47636  15.981  20.905   1.552 -0.2774 -0.2011 -0.1904
 4699W        W47637  15.133  23.972   0.123  0.0828 -0.0532 -0.1364
 4700W        W47638  17.686  19.991   0.833 -0.0951 -0.0567 -0.0387
 4701W        W47639  17.514  21.979   2.470 -0.3087  0.4335 -0.0953
 4702W        W47640  16.811  19.651   1.363 -0.1383 -0.2268  0.2108
 4703W        W47641  17.203  23.458   2.111 -0.0856 -0.3127 -0.4675
 4704W        W47642  15.524  21.932   0.122 -0.1524 -0.2443 -0.0432
 4705W        W47643  18.125  21.510   2.598  0.2353  0.0589  0.0394
 4706W        W47644  16.035  23.283  30.836 -0.2817 -0.2723 -0.0155
 4707W        W47645  16.264  22.575   2.709  0.4179 -0.1026  0.1696
 4708W        W47646  15.383  24.033   2.239 -0.1804 -0.1892  0.1731
 4709W        W47647  16.065  24.553   3.254  0.0795 -0.0641 -0.1016
 4710W        W47648  17.446  23.859   2.693 -0.0829  0.1969 -0.5859
 4711W        W47649  16.452  22.254   0.535 -0.2372  0.1315  0.2509
 4712W        W47650  16.852  22.303  30.958  0.0754  0.2284  0.0276
 4713W        W47651  16.297  24.416   0.690 -0.1045 -0.3088 -0.0566
 4714W        W47652  15.577  24.741   0.092  0.2285 -0.3716 -0.0371
 4715W        W47653  16.124  22.081   2.661 -0.0748  0.0023  0.1951
 4716W        W47654  17.042  24.553   1.194 -0.0983 -0.2466 -0.0046
 4717W        W47655  14.717  25.652  30.592 -0.1438 -0.0470 -0.2363
 4718W        W47656  17.195  23.102   1.756 -0.3671 -0.0807  0.2422
 4719W        W47657  16.656  25.278  31.894  0.0930 -0.1034  0.2117
 4720W        W47658  17.856  21.372   0.947 -0.2820  0.2926  0.0927
 4721W        W47659  15.044  24.589   1.449  0.0211 -0.0013 -0.0563
 4722W        W47660  14.640  21.927  31.522 -0.1495  0.0400 -0.0528
 4723W        W47661  13.682  22.452   0.711 -0.0308  0.0846 -0.0665
 4724W        W47662  16.622  24.128   0.368  0.2595 -0.3372  0.0622
 4725W        W47663  18.934  24.176  31.882  0.0708 -0.1137  0.2533
 4726W        W47664  14.737  21.301   1.797 -0.2047 -0.0074  0.0094
 4727W        W47665  16.727  22.255   1.082  0.3531 -0.0816  0.0609
 4728W        W47666  16.580  25.270   0.965 -0.1595  0.0911  0.0730
 4729W        W47667  17.196  22.885   2.823  0.1590  0.0715  0.1103
 4730W        W47668  17.147  20.912  31.735  0.0499  0.0244 -0.0598
 4731W        W47669  17.181  22.950   2.230  0.5948  0.0435  0.2760
 4732W        W47670  16.463  23.554   2.522  0.0392  0.1840 -0.2888
 4733W        W47671  15.186  21.477   0.273 -0.0272  0.0417  0.2374
 4734W        W47672  18.156  22.480   2.994  0.1919  0.2996  0.1839
 4735W        W47673  16.170  21.481   0.508 -0.1528 -0.1587 -0.1452
 4736W        W47674  14.879  24.402   0.343 -0.2593 -0.0350 -0.0690
 4737W        W47675  16.952  24.999   2.627 -0.1652 -0.2427  0.1646
 4738W        W47676  16.518  24.448   2.024  0.2105 -0.1489 -0.3688
 4739W        W47677  15.653  24.861   1.451 -0.1977  0.1163  0.0221
 4740W        W47678  15.684  23.229   2.934  0.0864 -0.0368 -0.2977
 4741W        W47679  16.340  22.586   2.173  0.2186  0.0370  0.0483
 4742W        W47680  16.110  23.393   1.407 -0.1837 -0.1098 -0.1925
 4743W        W47681  16.895  22.166  31.593 -0.0333  0.0431 -0.2687
 4744W        W47682  16.582  22.615   1.408  0.1688 -0.1329  0.1341
 4745W        W47683  16.735  24.654  31.709 -0.2044  0.1703  0.0380
 4746W        W47684  15.880  23.232   3.380 -0.1484 -0.2645 -0.1716
 4747W        W47685  15.026  24.369   2.477  0.1779  0.2026 -0.2223
 4748W        W47686  16.089  21.354   1.727 -0.2356 -0.1201  0.3289
 4749W        W47687  18.703  24.891   0.493 -0.3395 -0.1543  0.0285
 4750W        W47688  17.896  23.394   3.311 -0.0020  0.2880 -0.0830
 4751W        W47689  15.517  23.861   1.582  0.1125 -0.2987 -0.4936
 4752W        W47690  14.938  22.697   1.408 -0.3853 -0.2732  0.0426
 4753W        W47691  16.189  23.849   0.623 -0.0029 -0.0699 -0.1247
 4754W        W47692  16.653  21.703   0.502 -0.0995 -0.1489 -0.2765
 4755W        W47693  15.538  24.582   2.391  0.0814  0.0591 -0.0911
 4756W        W47694  15.290  24.921  31.728  0.0045 -0.1654 -0.0474
 4757W        W47695  16.570  23.636   0.294 -0.1587 -0.1816  0.0429
 4758W        W47696  16.695  21.679  31.470  0.0063 -0.4733  0.3572
 4759W        W47697  16.466  23.134  30.988  0.1340 -0.0946 -0.0759
 4760W        W47698  17.410  22.339   0.416  0.0306 -0.0915 -0.0171
 4761W        W47699  17.583  22.066   1.941 -0.0592  0.0892  0.1137
 4762W        W47700  16.376  22.446  30.655  0.4302 -0.0833 -0.0354
 4763W        W47701  16.917  20.999   4.046  0.0848 -0.0695  0.3068
 4764W        W47702  14.444  21.562   2.553 -0.0140  0.4617 -0.3447
 4765W        W47703  17.866  23.415  31.450 -0.1766 -0.0541 -0.0815
 4766W        W47704  14.107  23.349   2.981  0.1393  0.1594 -0.0614
 4767W        W47705  16.696  25.435   2.379  0.4374 -0.1383  0.0949
 4768W        W47706  15.755  24.362   2.913 -0.0118  0.0774 -0.0314
 4769W        W47707  18.128  22.452  31.625  0.1679 -0.3319  0.0797
 4770W        W47708  14.776  21.162   0.125 -0.3755  0.0244  0.0445
 4771W        W47709  16.490  23.188   1.016  0.5408 -0.0479  0.2878
 4772W        W47710  16.071  23.975  31.681  0.4390 -0.3910 -0.0763
 4773W        W47711  15.509  24.134  30.915 -0.3322  0.0871 -0.0192
 4774W        W47712  16.963  24.019   1.314  0.1485 -0.1374 -0.0655
 4775W        W47713  15.519  24.802   1.907  0.0728  0.3103 -0.0543
 4776W        W47714  17.459  24.801   1.324 -0.1435 -0.5478  0.1868
 4777W        W47715  16.588  22.971   0.568 -0.1550  0.0808 -0.1376
 4778W        W47716  15.705  22.446   0.329 -0.0865 -0.1196  0.0350
 4779W        W47717  15.659  21.801   3.006 -0.1066 -0.0515 -0.2880
 4780W        W47718  15.424  24.419   0.456  0.2614  0.2012  0.1477
 4781W        W47719  17.391  22.825   1.397  0.1811  0.0201 -0.0933
 4782W        W47720  17.016  20.807   0.727 -0.0206  0.3034 -0.0375
 4783W        W47721  16.079  23.340   2.048  0.0118 -0.0545 -0.0887
 4784W        W47722  16.391  21.669   2.443  0.1115 -0.2873 -0.3279
 4785W        W47723  15.054  22.475   2.714  0.1073 -0.2053 -0.2777
 4786W        W47724  17.935  25.024   1.602 -0.0260 -0.1654 -0.0250
 4787W        W47725  16.377  21.960  31.735 -0.0490 -0.1064  0.2947
 4788W        W47726  17.113  22.182   2.630  0.0648 -0.3695 -0.1685
 4789W        W47727  17.650  22.280   0.954 -0.0141  0.2741 -0.1929
 4790W        W47728  16.623  20.932  30.902 -0.1316 -0.0330 -0.1368
 4791W        W47729  14.806  23.045   1.005 -0.2178  0.2059 -0.2114
 4792W        W47730  18.030  23.387   3.787  0.0697  0.3582  0.2647
 4793W        W47731  16.515  20.777  30.406  0.3875  0.1301  0.2546
 4794W        W47732  17.164  21.793   3.893 -0.0575  0.2483 -0.1891
 4795W        W47733  15.172  23.666   0.523  0.1504  0.1539 -0.2035
 4796W        W47734  15.665  24.196  31.910 -0.1096 -0.3920  0.0994
 4797W        W47735  15.284  22.835   0.284 -0.1356  0.1126 -0.1299
 4798W        W47736  15.643  21.531   0.458 -0.1715 -0.2505  0.0858
 4799W        W47737  14.242  24.120   4.090  0.0057  0.1430 -0.1375
 4800W        W47738  16.052  21.891  29.547  0.1839 -0.0350  0.1305
 4801W        W47739  15.295  24.085   0.764 -0.1389 -0.0488  0.0188
 4802W        W47740  16.052  24.533   2.284 -0.2287 -0.1334 -0.0355
 4803W        W47741  17.332  24.695   3.140 -0.2662  0.2534  0.1153
 4804W        W47742  15.812  21.180   0.119 -0.2336  0.0643  0.2200
 4805W        W47743  16.797  21.503   3.954  0.1481 -0.1783 -0.3765
 4806W        W47744  15.370  25.477   1.384  0.3083 -0.0658  0.1644
 4807W        W47745  16.839  21.805  31.961  0.0310 -0.2863 -0.1768
 4808W        W47746  15.227  25.358   3.032 -0.0757  0.2426  0.1852
 4809W        W47747  14.438  24.778   1.019  0.0257 -0.2176  0.0488
 4810W        W47748  14.530  25.882   2.007 -0.0048 -0.2419  0.0244
 4811W        W47749  17.449  22.737   1.885  0.0884  0.2817 -0.1236
 4812W        W47750  17.739  21.187   2.109 -0.1890  0.0089 -0.0573
 4813W        W47751  16.003  23.077   0.962 -0.0492 -0.2357 -0.0735
 4814W        W47752  16.568  22.196   2.429  0.2279  0.0203  0.2434
 4815W        W47753  16.953  23.732   3.007 -0.2022  0.2915 -0.1447
 4816W        W47754  15.842  22.489   1.188  0.0557  0.0507 -0.2244
 4817W        W47755  16.072  24.915   1.733  0.0314  0.0901 -0.2476
 4818W        W47756  17.609  23.720   0.443 -0.2832 -0.2288 -0.3033
 4819W        W47757  16.140  24.084   0.184 -0.0834 -0.0595 -0.1111
 4820W        W47758  15.733  23.716   2.121  0.0145 -0.2321  0.3015
 4821W        W47759  16.542  23.459   3.201  0.2370  0.2327 -0.0119
 4822W        W47760  16.717  24.269   0.912 -0.0875  0.1103 -0.0081
 4823W        W47761  17.115  20.442   0.055 -0.0157 -0.1381  0.2293
 4824W        W47762  16.733  24.560  30.692  0.2216  0.1579 -0.2951
 4825W        W47763  15.062  26.091   3.459 -0.0890  0.0500  0.4259
 4826W        W47764  15.140  23.537   1.012  0.4647 -0.2092  0.1577
 4827W        W47765  16.504  26.339   1.123 -0.0369 -0.1345  0.1398
 4828W        W47766  16.802  22.794  30.722  0.0738  0.1576  0.1827
 4829W        W47767  17.308  22.987  30.659  0.0346  0.1313  0.1445
 4830W        W47768  17.043  25.596   1.515 -0.3142 -0.2063  0.0262
 4831W        W47769  15.186  22.317  31.404 -0.0222  0.0252 -0.1297
 4832W        W47770  14.695  25.000   1.391  0.0926 -0.1753  0.1558
 4833W        W47771  14.780  24.745  31.436 -0.0783  0.0887 -0.0403
 4834W        W47772  16.230  25.246  30.713 -0.0970 -0.0129 -0.0220
 4835W        W47773  15.801  24.829  31.524 -0.0592  0.0840  0.1300
 4836W        W47774  17.341  24.468   2.279  0.1400 -0.0198  0.0044
 4837W        W47775  18.245  21.089  31.610  0.1193 -0.0533 -0.0349
 4838W        W47776  18.395  22.961  31.574 -0.0896 -0.1671 -0.2198
 4839W        W47777  18.149  21.888  30.657 -0.0068 -0.0292  0.0750
 4840W        W47778  16.924  24.732   2.153  0.0652 -0.1423 -0.1050
 4841W        W47779  15.883  21.786   1.483 -0.2740  0.0905 -0.0914
 4842W        W47780  15.972  21.812  30.817 -0.0262 -0.1806 -0.1078
 4843W        W47781  15.392  22.574   2.211  0.1271  0.1896  0.0837
 4844W        W47782  18.463  21.844   2.368  0.1079  0.1352  0.1330
 4845W        W47783  14.550  24.972   4.688  0.0515  0.2086 -0.1520
 4846W        W47784  18.129  24.885  31.680  0.1338  0.0707  0.1299
 4847W        W47785  16.252  22.741  31.835 -0.1928 -0.2677  0.1816
 4848W        W47786  16.704  22.902   1.969  0.0659  0.2118 -0.4709
 4849W        W47787  18.726  21.375   1.407  0.2303  0.2204 -0.0252
 4850W        W47788  15.114  23.276  30.970  0.3134  0.1341 -0.0994
 4851W        W47789  17.523  22.280   1.476 -0.1967 -0.2676  0.2446
 4852W        W47790  17.141  23.469   0.486  0.1120  0.2041  0.0470
 4853W        W47791  16.498  24.239   3.324  0.0533 -0.0021  0.0991
 4854W        W47792  15.658  25.252  31.879 -0.3039  0.1626  0.0559
 4855W        W47793  12.660  22.587   0.789  0.1230 -0.3462  0.0237
 4856W        W47794  19.071  21.877   0.993 -0.1190 -0.0585 -0.4203
 4857W        W47795  15.502  22.884   2.575 -0.4278  0.0492  0.2899
 4858W        W47796  18.903  21.134   0.683  0.0500 -0.5721 -0.0206
 4859W        W47797  15.396  24.487   1.114  0.0249 -0.0765 -0.2238
 4860W        W47798  17.883  22.392   0.061  0.0040  0.1086  0.2851
 4861W        W47799  16.467  24.099   2.518 -0.1314 -0.1829 -0.4473
 4862W        W47800  15.203  21.445   1.956  0.1170 -0.0648 -0.2790
 4863W        W47801  16.586  22.352   0.055  0.2019  0.0130  0.3902
 4864W        W47802  17.154  22.404   3.068  0.0465  0.0732 -0.1096
 4865W        W47803  17.208  22.441  29.472 -0.1169  0.0637 -0.0654
 4866W        W47804  18.324  27.541   1.923  0.1809  0.4293 -0.1585
 4867W        W47805  14.834  20.825   1.503 -0.2732 -0.2450 -0.4521
 4868W        W47806  15.996  20.715   0.960  0.2332  0.0477 -0.1642
 4869W        W47807  15.130  24.265  31.398 -0.0971  0.1247  0.0276
 4870W        W47808  15.840  22.750   3.031  0.2211  0.2757 -0.3458
 4871W        W47809  16.890  25.182   1.341  0.1770  0.0395  0.0118
 4872W        W47810  19.542  24.680  30.983 -0.2192  0.2773  0.0625
 4873W        W47811  17.830  22.876   1.596  0.0368  0.0827  0.0076
 4874W        W47812  14.983  25.997  30.407 -0.1355  0.0875  0.0737
 4875W        W47813  16.678  23.748   0.814 -0.0194  0.0306  0.3840
 4876W        W47814  17.076  24.942   0.872  0.1740 -0.0473 -0.0315
 4877W        W47815  15.106  21.970   0.376  0.0980  0.2071  0.1736
 4878W        W47816  16.025  26.212   2.387 -0.1565  0.1182 -0.0557
 4879W        W47817  17.969  23.348   0.454  0.0510  0.1115  0.0730
 4880W        W47818  16.702  20.371  31.670  0.1230  0.0363 -0.2260
 4881W        W47819  14.691  21.167   1.102  0.0033  0.3239  0.3436
 4882W        W47820  16.527  24.895   1.627 -0.3037  0.1926 -0.4171
 4883W        W47821  17.948  22.345   1.756  0.0512 -0.1488 -0.1681
 4884W        W47822  17.165  21.632   1.663 -0.2859 -0.0498 -0.0061
 4885W        W47823  15.910  23.372  30.382  0.0839  0.2313 -0.0836
 4886W        W47824  16.530  21.426   2.029 -0.0976  0.1723  0.2093
 4887W        W47825  16.480  25.185   2.783  0.0208 -0.0537 -0.1757
 4888W        W47826  15.013  24.922   3.198 -0.2178 -0.0674  0.2672
 4889W        W47827  15.906  23.550   0.210 -0.1857 -0.3140 -0.0701
 4890W        W47828  16.450  24.170   4.318  0.1807  0.0365 -0.1554
 4891W        W47829  16.971  23.723   2.466 -0.0145 -0.0305 -0.2140
 4892W        W47830  14.493  24.551  31.846  0.0644 -0.1067  0.1053
 4893W        W47831  17.377  25.320   1.130 -0.1147 -0.3380 -0.2185
 4894W        W47832  17.064  25.116   0.414 -0.3767  0.2398  0.0733
 4895W        W47833  17.158  22.396   1.083  0.2786  0.0574 -0.2145
 4896W        W47834  16.219  23.344   0.565 -0.0399 -0.2002  0.0356
 4897W        W47835  17.785  22.123  31.585 -0.0097  0.4879  0.0570
 4898W        W47836  15.985  24.032   2.523 -0.2363  0.1658 -0.1681
 4899W        W47837  14.205  21.631  31.379 -0.3477  0.0111 -0.1843
 4900W        W47838  16.486  22.199  31.273 -0.1185  0.0707 -0.1585
 4901W        W47839  15.176  24.871   0.456 -0.0436 -0.0942 -0.0070
 4902W        W47840  16.427  21.520   3.002 -0.2341  0.1166  0.1164
 4903W        W47841  16.049  21.319   2.268 -0.0511 -0.1412 -0.2579
 4904W        W47842  14.426  22.905   0.595 -0.0558  0.0214 -0.0679
 4905W        W47843  15.258  21.583   0.748  0.2538  0.2043 -0.2403
 4906W        W47844  17.709  24.590  31.757  0.0957  0.1248 -0.0429
 4907W        W47845  16.524  20.742   0.931 -0.1075  0.1473 -0.1913
 4908W        W47846  15.971  21.784  31.892 -0.1567 -0.1366 -0.0399
 4909W        W47847  15.464  23.378   0.251  0.1387 -0.2184 -0.2176
 4910W        W47848  17.439  24.039  31.617 -0.0960  0.0630 -0.1995
 4911W        W47849  16.271  21.023  31.919  0.3078  0.0229  0.1109
 4912W        W47850  17.660  24.253   3.434 -0.0166  0.1298  0.0981
 4913W        W47851  15.785  24.213  30.480 -0.0095  0.0613  0.3160
 4914W        W47852  16.679  23.339   3.730 -0.3484 -0.0867  0.5662
 4915W        W47853  15.896  22.818   2.009  0.0967  0.0650 -0.0180
 4916W        W47854  13.896  22.147   0.369 -0.0398 -0.2445 -0.3636
 4917W        W47855  16.849  22.667   2.477 -0.4953  0.2601 -0.1987
 4918W        W47856  17.142  25.289  31.582 -0.1909  0.2147  0.1129
 4919W        W47857  16.629  24.042  30.251 -0.0050  0.0531  0.1247
 4920W        W47858  16.678  23.805   3.500 -0.3480  0.2658 -0.0016
 4921W        W47859  17.011  24.281   1.858  0.4795 -0.2531 -0.1473
 4922W        W47860  14.349  20.226   2.032  0.2391 -0.0179 -0.0733
 4923W        W47861  16.053  22.251  31.008  0.1819  0.0548 -0.1805
 4924W        W47862  16.258  24.059   3.699  0.3340  0.0595 -0.0566
 4925W        W47863  18.380  23.533  31.538 -0.2486  0.1032 -0.2275
 4926W        W47864  18.853  19.729   0.973 -0.0407 -0.2419  0.4906
 4927W        W47865  15.951  21.950   0.413 -0.3949 -0.4184 -0.1069
 4928W        W47866  14.540  21.104   2.201 -0.0806  0.1190 -0.1188
 4929W        W47867  16.067  23.833   1.665  0.2273 -0.2413  0.2620
 4930W        W47868  17.506  23.189   1.051  0.1098  0.1098 -0.0321
 4931W        W47869  15.421  21.766   1.241  0.0528  0.1239 -0.0898
 4932W        W47870  16.746  22.857   0.116  0.4074 -0.1334 -0.1841
 4933W        W47871  16.259  24.925  31.247 -0.0989  0.2583  0.0980
 4934W        W47872  15.240  22.923   1.771 -0.0270 -0.1156 -0.3203
 4935W        W47873  15.822  21.320  31.188 -0.1339 -0.1331  0.0253
 4936W        W47874  16.272  22.660   0.946 -0.1760  0.3456  0.1574
 4937W        W47875  17.298  25.225   2.890 -0.1800 -0.2296 -0.2143
 4938W        W47876  16.779  23.277   2.800  0.0614 -0.2290 -0.2161
 4939W        W47877  16.153  21.181   0.934  0.2530  0.2115 -0.0552
 4940W        W47878  16.923  23.314   0.060  0.0601 -0.1993  0.1279
 4941W        W47879  16.913  25.716   2.062 -0.1734 -0.0613  0.0354
 4942W        W47880  17.766  25.142   3.830  0.1908  0.3197 -0.1725
 4943W        W47881  15.724  25.795   2.119 -0.3714  0.0136 -0.1309
 4944W        W47882  16.672  24.430   1.505 -0.2415 -0.2796  0.0983
 4945W        W47883  14.517  20.693   1.920 -0.0952 -0.3011  0.1283
 4946W        W47884  16.162  24.989   1.242  0.0306 -0.1344  0.1026
 4947W        W47885  16.178  24.559  31.940  0.0350  0.1545 -0.0273
 4948W        W47886  17.609  23.766   1.849  0.2120  0.1812  0.2988
 4949W        W47887  14.789  22.108  31.981  0.0900  0.0539  0.0625
 4950W        W47888  17.542  20.425   0.403  0.1110  0.3618  0.0530
 4951W        W47889  16.335  25.677   3.651  0.1041  0.1049  0.0201
 4952W        W47890  17.613  23.228   1.985 -0.0782 -0.1351 -0.0147
 4953W        W47891  15.388  23.129   6.149  0.4648 -0.0399 -0.0090
 4954W        W47892  15.614  22.360   3.939  0.3342  0.2552 -0.0855
 4955W        W47893  18.110  23.789   3.479 -0.0679 -0.0711 -0.2449
 4956W        W47894  18.073  23.850   4.002  0.2303  0.2540  0.4478
 4957W        W47895  15.007  23.005   3.879  0.2017  0.0533 -0.0528
 4958W        W47896  15.669  24.914   3.002 -0.2438 -0.1383 -0.1119
 4959W        W47897  16.021  22.378   5.019  0.1222 -0.1837  0.3361
 4960W        W47898  17.357  22.943   5.335  0.3609 -0.1169 -0.2239
 4961W        W47899  15.933  26.134   6.234  0.0416  0.0395  0.0924
 4962W        W47900  16.249  23.040   2.950  0.1747  0.0605 -0.0711
 4963W        W47901  16.419  21.396   4.880 -0.1581 -0.1933 -0.0460
 4964W        W47902  16.259  24.337   7.190  0.2949 -0.0361 -0.0633
 4965W        W47903  15.046  21.801   3.402 -0.0584  0.2595 -0.0906
 4966W        W47904  14.738  22.471   5.339 -0.1852  0.2579 -0.1597
 4967W        W47905  18.218  22.263   5.227 -0.2656  0.0399 -0.3450
 4968W        W47906  15.833  23.170   3.880 -0.2479 -0.2298  0.0028
 4969W        W47907  15.872  22.602   5.460  0.0162  0.0401 -0.3092
 4970W        W47908  15.836  21.447   5.022  0.1662 -0.0337  0.2960
 4971W        W47909  16.845  24.150   4.846 -0.1864  0.0431 -0.3607
 4972W        W47910  17.426  21.977   5.382  0.1854 -0.0235 -0.1910
 4973W        W47911  15.727  21.684   6.290 -0.1464  0.4197  0.0700
 4974W        W47912  16.899  24.621   3.514 -0.2853 -0.0664 -0.0374
 4975W        W47913  15.052  22.199   3.174 -0.1743  0.0497  0.2529
 4976W        W47914  14.622  24.362   5.685 -0.0338  0.0928 -0.0896
 4977W        W47915  16.127  21.268   6.213 -0.0059  0.1888 -0.4162
 4978W        W47916  16.720  21.765   5.701 -0.0802  0.2742  0.3588
 4979W        W47917  17.332  22.651   4.162 -0.0545  0.1349 -0.0951
 4980W        W47918  16.737  24.233   3.814 -0.0122  0.0385  0.1013
 4981W        W47919  17.023  25.146   5.369  0.4334  0.0534 -0.0925
 4982W        W47920  16.336  21.814   7.838  0.0972  0.0623  0.3528
 4983W        W47921  14.978  22.946   5.343 -0.3230  0.3211  0.0126
 4984W        W47922  15.501  24.483   5.128  0.2687  0.0611 -0.0627
 4985W        W47923  15.516  24.335   4.157 -0.2083  0.0633  0.4411
 4986W        W47924  17.776  23.930   5.311 -0.1013  0.2305 -0.1089
 4987W        W47925  16.713  25.539   6.935 -0.0289 -0.0140 -0.1168
 4988W        W47926  15.791  25.520   6.409 -0.0548  0.3714 -0.2305
 4989W        W47927  13.924  24.454   4.542  0.0272  0.1338 -0.0137
 4990W        W47928  16.649  24.739   7.660 -0.1699 -0.0395 -0.3061
 4991W        W47929  15.856  26.157   6.761  0.0677 -0.0085 -0.0964
 4992W        W47930  16.503  23.469   5.432 -0.0065 -0.1583 -0.1679
 4993W        W47931  16.703  21.000   5.321  0.0080  0.0168  0.2346
 4994W        W47932  15.608  24.902   6.119 -0.0415 -0.2033 -0.1571
 4995W        W47933  16.698  23.197   4.911  0.0570 -0.0290 -0.0770
 4996W        W47934  16.792  24.273   6.303  0.1422  0.0124  0.1830
 4997W        W47935  15.237  23.967   5.697  0.0938  0.1960 -0.0763
 4998W        W47936  18.382  23.074   5.177  0.2211 -0.1110 -0.0773
 4999W        W47937  14.821  24.584   4.516  0.4154  0.1018 -0.2381
 5000W        W47938  16.826  23.041   3.356  0.1488 -0.1988 -0.0552
 5001W        W47939  16.051  22.298   3.101 -0.0294  0.2072  0.0238
 5002W        W47940  18.200  21.152   3.784 -0.4312 -0.0522  0.2140
 5003W        W47941  16.142  20.574   4.671  0.0077 -0.1222  0.2022
 5004W        W47942  14.648  24.421   6.203  0.3073  0.0818 -0.2111
 5005W        W47943  16.197  20.320   6.103  0.3449 -0.0082 -0.0565
 5006W        W47944  17.504  23.786   5.767  0.1982 -0.0467 -0.3221
 5007W        W47945  16.329  23.084   3.457 -0.0804 -0.1037 -0.0178
 5008W        W47946  16.616  21.835   5.221  0.2869  0.0191 -0.0772
 5009W        W47947  15.065  24.387   5.373 -0.0509  0.3241  0.4072
 5010W        W47948  14.631  23.727   5.620  0.0953  0.0157 -0.3117
 5011W        W47949  17.209  25.969   3.675 -0.2253  0.2817 -0.0534
 5012W        W47950  17.517  25.007   4.444  0.0092 -0.0707  0.2590
 5013W        W47951  17.505  25.597   3.638  0.0768 -0.1710 -0.0946
 5014W        W47952  16.506  22.850   4.395  0.1750  0.0800  0.2199
 5015W        W47953  15.363  23.142   7.009 -0.0362 -0.2040 -0.1955
 5016W        W47954  14.852  22.781   6.891  0.0329 -0.3271  0.0215
 5017W        W47955  15.420  21.545   2.391 -0.1126 -0.1243  0.1118
 5018W        W47956  17.695  23.505   7.207  0.1700 -0.1221 -0.0005
 5019W        W47957  15.240  22.832   6.630  0.0232  0.1203  0.0992
 5020W        W47958  17.650  21.028   2.958  0.0078 -0.2781  0.1394
 5021W        W47959  16.978  24.368   5.298 -0.2751 -0.1112 -0.0518
 5022W        W47960  17.011  23.769   6.111 -0.0402 -0.1774 -0.0071
 5023W        W47961  17.392  24.794   2.639 -0.0316 -0.0322 -0.0243
 5024W        W47962  17.770  20.443   4.168  0.3110  0.0411 -0.1193
 5025W        W47963  16.401  21.083   4.131 -0.3311  0.3369 -0.0048
 5026W        W47964  15.165  22.869   4.847 -0.1118 -0.0506 -0.1942
 5027W        W47965  15.633  23.849   4.338 -0.1311  0.1016 -0.0732
 5028W        W47966  18.299  24.342   6.025  0.2039  0.0072  0.0303
 5029W        W47967  17.384  25.218   3.382  0.2341 -0.0155  0.0310
 5030W        W47968  16.067  25.114   6.245  0.0903 -0.0945  0.0786
 5031W        W47969  15.258  20.319   4.738 -0.1337  0.1783 -0.0643
 5032W        W47970  16.063  25.281   7.530 -0.0414 -0.1546  0.0822
 5033W        W47971  15.913  26.266   4.198  0.0613  0.0138 -0.0374
 5034W        W47972  13.853  23.485   5.667 -0.0331 -0.0006  0.1085
 5035W        W47973  15.823  24.859   3.587 -0.3355 -0.1746  0.0751
 5036W        W47974  14.843  23.090   6.420  0.0060  0.0672  0.0626
 5037W        W47975  15.566  24.899   5.560 -0.0208 -0.1212  0.1842
 5038W        W47976  18.652  21.879   4.250 -0.0836 -0.0294  0.0088
 5039W        W47977  15.103  23.358   5.007  0.4978 -0.1632  0.1034
 5040W        W47978  16.998  20.861   2.795 -0.1913 -0.1623  0.0092
 5041W        W47979  14.592  24.608   5.065 -0.2969 -0.1191 -0.2026
 5042W        W47980  17.477  24.307   5.449  0.4045  0.2446 -0.2019
 5043W        W47981  17.293  22.738   3.599 -0.1789  0.1222  0.1768
 5044W        W47982  16.261  24.583   3.673  0.0020  0.1977 -0.2492
 5045W        W47983  15.270  22.325   6.225 -0.0645 -0.0167 -0.0150
 5046W        W47984  15.495  21.694   4.631 -0.0063  0.1811  0.0342
 5047W        W47985  15.778  21.695   5.452 -0.0458  0.1830  0.0652
 5048W        W47986  15.713  19.703   4.830 -0.0196 -0.1691 -0.2099
 5049W        W47987  16.763  22.898   6.300  0.1502  0.1192 -0.0099
 5050W        W47988  15.121  22.567   3.528  0.0065 -0.0561  0.0613
 5051W        W47989  17.998  22.222   4.747 -0.1165  0.3110 -0.0451
 5052W        W47990  15.853  22.195   4.552  0.1375  0.0308 -0.0175
 5053W        W47991  14.721  23.069   5.860  0.0515 -0.0931 -0.2643
 5054W        W47992  16.862  20.131   6.487 -0.1693 -0.0058  0.1068
 5055W        W47993  16.855  25.502   3.627 -0.1606 -0.0061  0.1583
 5056W        W47994  17.401  25.156   7.835 -0.3833 -0.0211  0.0727
 5057W        W47995  18.528  23.673   3.779 -0.0590  0.2773  0.0669
 5058W        W47996  15.062  21.252   5.854  0.2468 -0.1760  0.0782
 5059W        W47997  14.589  22.850   3.679  0.4056 -0.1184  0.1388
 5060W        W47998  15.257  25.739   5.570 -0.0432  0.0241 -0.1925
 5061W        W47999  16.309  24.092   4.816 -0.1439 -0.0804  0.1562
 5062W        W48000  15.637  21.101   2.496 -0.1645 -0.1108 -0.0667
 5063W        W48001  16.009  25.596   5.847  0.1259 -0.0084  0.0613
 5064W        W48002  16.652  23.921   5.263 -0.3322 -0.0291 -0.0625
 5065W        W48003  15.681  22.348   7.270 -0.1265 -0.0568  0.1336
 5066W        W48004  16.606  20.903   4.563  0.2789  0.1656 -0.1962
 5067W        W48005  18.549  22.265   4.526  0.0903  0.0895  0.1032
 5068W        W48006  16.231  22.109   4.157 -0.3128  0.1364  0.3134
 5069W        W48007  14.769  22.230   4.484 -0.0248 -0.1224  0.3765
 5070W        W48008  16.762  25.597   5.545  0.0100 -0.1744 -0.1278
 5071W        W48009  15.027  24.952   4.852  0.5022 -0.1637 -0.0110
 5072W        W48010  15.620  23.155   4.815 -0.0124  0.0420 -0.0988
 5073W        W48011  15.933  25.774   4.007 -0.1352 -0.0823  0.0590
 5074W        W48012  17.355  20.667   5.984  0.2169  0.0516  0.1679
 5075W        W48013  14.948  23.765   7.824 -0.0691  0.2576 -0.0321
 5076W        W48014  16.918  21.354   5.637 -0.2058 -0.0623 -0.0513
 5077W        W48015  15.261  23.093   4.437  0.0114  0.0664 -0.3799
 5078W        W48016  16.408  24.057   6.680  0.0090 -0.1095 -0.0428
 5079W        W48017  17.429  21.874   2.965  0.0013 -0.2110  0.1355
 5080W        W48018  18.615  22.197   3.140 -0.5466 -0.4077  0.0531
 5081W        W48019  17.018  23.345   6.376  0.0218 -0.0045  0.2454
 5082W        W48020  17.482  23.063   4.410 -0.1650 -0.0128 -0.1243
 5083W        W48021  17.186  21.930   1.205  0.1273  0.0848 -0.1168
 5084W        W48022  16.584  22.297   1.830  0.1032  0.2336  0.0020
 5085W        W48023  16.767  23.267   6.820 -0.0366 -0.2735  0.2422
 5086W        W48024  16.052  23.580   4.081  0.2421  0.3093 -0.1387
 5087W        W48025  17.341  24.002   4.594 -0.1494 -0.0921  0.0613
 5088W        W48026  16.468  22.134   3.440 -0.0343 -0.2010  0.2953
 5089W        W48027  18.074  23.435   5.287  0.1385  0.0461  0.2345
 5090W        W48028  15.086  23.553   6.079 -0.0954 -0.0351 -0.1064
 5091W        W48029  16.412  23.338   7.196  0.1477  0.0301  0.0760
 5092W        W48030  16.347  24.617   4.780 -0.0410 -0.2859 -0.3813
 5093W        W48031  16.835  20.445   6.160  0.2313 -0.1648  0.2731
 5094W        W48032  16.075  22.346   3.695  0.4840  0.2545 -0.0777
 5095W        W48033  16.327  21.415   3.615 -0.0983  0.1483  0.1099
 5096W        W48034  14.771  26.269   3.058  0.2714 -0.3620 -0.2913
 5097W        W48035  16.989  21.981   4.349  0.1171  0.2635 -0.2624
 5098W        W48036  16.486  20.443   4.263 -0.2690 -0.2764 -0.4548
 5099W        W48037  16.941  20.815   5.713 -0.2009  0.0815 -0.1229
 5100W        W48038  17.760  23.006   8.389  0.1732  0.0363 -0.0370
 5101W        W48039  17.237  23.330   2.591  0.1317  0.0787  0.1497
 5102W        W48040  17.890  22.682   4.499  0.0503 -0.2156 -0.0723
 5103W        W48041  16.099  23.578   3.012 -0.1583  0.2924 -0.0078
 5104W        W48042  15.222  19.716   6.206  0.1420 -0.0964 -0.0472
 5105W        W48043  14.849  22.438   7.262 -0.2584  0.2258 -0.0594
 5106W        W48044  13.728  24.363   8.131 -0.0620  0.0037 -0.0401
 5107W        W48045  17.374  23.333   6.030 -0.0591 -0.4742 -0.1164
 5108W        W48046  17.687  22.968   3.976 -0.1954 -0.0338 -0.0019
 5109W        W48047  17.798  21.426   5.314 -0.0731  0.0820 -0.1230
 5110W        W48048  16.543  22.498   3.969  0.0190  0.0389  0.3812
 5111W        W48049  15.742  24.756   4.064  0.1688  0.0473  0.0406
 5112W        W48050  15.368  24.758   3.768  0.0019  0.0771  0.1169
 5113W        W48051  16.220  20.466   3.764  0.1731  0.2946  0.3258
 5114W        W48052  16.262  24.617   5.781 -0.1959 -0.0904 -0.2407
 5115W        W48053  17.010  24.158   3.408  0.2210  0.1621  0.1895
 5116W        W48054  16.503  23.790   5.850  0.0806  0.2802  0.0471
 5117W        W48055  15.516  23.443   5.744  0.0290  0.0494  0.0248
 5118W        W48056  18.616  21.458   5.138  0.2302 -0.1131 -0.3428
 5119W        W48057  14.547  24.050   5.221  0.1961  0.2180  0.2996
 5120W        W48058  14.794  22.608   3.123  0.2405 -0.4389  0.1677
 5121W        W48059  14.970  23.530   3.103  0.0656 -0.0306  0.5143
 5122W        W48060  17.444  21.206   6.077 -0.1674  0.0646 -0.2745
 5123W        W48061  17.186  24.699   4.232 -0.0777  0.1567  0.2045
 5124W        W48062  16.868  22.203   5.510 -0.2105 -0.1482  0.0173
 5125W        W48063  16.359  22.621   3.318 -0.1089  0.4498 -0.0760
 5126W        W48064  15.747  23.182   6.653 -0.1209  0.1102 -0.0339
 5127W        W48065  16.453  21.862   4.547 -0.0414  0.1936 -0.0304
 5128W        W48066  17.849  22.531   3.505  0.0865 -0.1631 -0.2521
 5129W        W48067  16.855  24.259   6.908  0.3117  0.2858  0.0190
 5130W        W48068  17.214  21.950   6.402 -0.1868  0.1729 -0.0060
 5131W        W48069  14.327  22.564   4.223 -0.0277 -0.2345  0.1333
 5132W        W48070  17.333  22.007   4.910  0.0547 -0.0231 -0.1371
 5133W        W48071  16.415  22.325   4.685  0.4316 -0.3755 -0.0295
 5134W        W48072  14.495  23.158   3.213 -0.3676  0.0219  0.1833
 5135W        W48073  18.059  23.754   4.862  0.2894 -0.1576 -0.0570
 5136W        W48074  16.183  23.581   3.565 -0.0079  0.0314 -0.0599
 5137W        W48075  15.729  23.664   6.787 -0.3943  0.0221  0.0810
 5138W        W48076  16.046  21.576   7.216 -0.1555  0.0324  0.0449
 5139W        W48077  17.415  23.504   5.386 -0.1862  0.2890 -0.0705
 5140W        W48078  16.383  21.441   5.389 -0.0976  0.1295 -0.0197
 5141W        W48079  16.014  21.829   3.768 -0.0772  0.1135  0.1051
 5142W        W48080  17.127  22.407   5.090 -0.0102  0.4097 -0.0660
 5143W        W48081  17.386  22.541   6.750  0.0016  0.3549  0.1036
 5144W        W48082  17.102  20.741   4.863  0.1035  0.1043 -0.2042
 5145W        W48083  14.892  25.683   7.398  0.0583  0.2630  0.3341
 5146W        W48084  16.312  19.908   4.348 -0.0904  0.1082  0.2246
 5147W        W48085  17.708  24.762   4.806 -0.2343 -0.0501  0.0367
 5148W        W48086  16.262  22.050   6.580  0.2150  0.3194 -0.1763
 5149W        W48087  14.788  23.332   4.514  0.1386 -0.0313 -0.2765
 5150W        W48088  16.392  22.808   5.745  0.0798 -0.0981  0.0873
 5151W        W48089  16.102  23.801   5.181  0.2383  0.0459 -0.4698
 5152W        W48090  15.924  20.598   5.346  0.0399 -0.1239 -0.1201
 5153W        W48091  16.463  24.444   5.239 -0.0810  0.3559  0.0764
 5154W        W48092  15.987  24.191   4.106 -0.1050  0.0251 -0.0614
 5155W        W48093  14.862  24.480   7.285 -0.3342  0.2315 -0.0778
 5156W        W48094  16.683  21.268   2.490  0.0643  0.2193  0.0992
 5157W        W48095  16.250  23.887   2.083  0.1563 -0.2073  0.0891
 5158W        W48096  17.036  22.289   3.957 -0.2196  0.0293 -0.0054
 5159W        W48097  18.973  21.811   6.842  0.0573  0.2114  0.2207
 5160W        W48098  16.972  24.226   4.272 -0.0436  0.1966  0.0295
 5161W        W48099  16.448  21.597   6.875  0.3416  0.0552 -0.1843
 5162W        W48100  16.266  20.321   5.171  0.1281  0.2325 -0.3311
 5163W        W48101  17.909  21.884   5.110  0.0891  0.1676  0.0193
 5164W        W48102  14.184  22.521   7.776 -0.2382 -0.2399  0.0223
 5165W        W48103  16.507  25.341   7.398 -0.0458  0.1400 -0.3011
 5166W        W48104  15.817  24.458   5.790 -0.1561  0.0291  0.1809
 5167W        W48105  16.692  21.368   4.434  0.1068 -0.1100 -0.0134
 5168W        W48106  14.903  20.349   3.423  0.0268  0.4323 -0.0305
 5169W        W48107  16.653  23.315   6.004 -0.0212 -0.0316 -0.4690
 5170W        W48108  17.185  24.632   5.721  0.0741 -0.1353  0.0348
 5171W        W48109  15.840  25.692   3.522  0.2872 -0.0321 -0.2717
 5172W        W48110  18.368  23.234   4.669 -0.2336 -0.0636 -0.0339
 5173W        W48111  16.187  22.909   6.247  0.0580  0.1746  0.1666
 5174W        W48112  18.125  22.891   3.738  0.0914 -0.3139  0.0345
 5175W        W48113  16.752  23.325   4.255 -0.1954 -0.2108  0.2863
 5176W        W48114  16.923  22.737   5.436 -0.0292  0.1442 -0.0098
 5177W        W48115  15.294  22.564   5.298  0.0748 -0.3816  0.1178
 5178W        W48116  17.596  22.441   5.225 -0.4525 -0.1877  0.1419
 5179W        W48117  16.817  20.111   4.132  0.2621 -0.2290  0.3467
 5180W        W48118  16.929  21.079   6.137  0.0044 -0.0980 -0.1551
 5181W        W48119  16.270  21.928   6.082 -0.0803  0.1061 -0.1009
 5182W        W48120  17.060  22.988   5.866  0.0665 -0.0264  0.1501
 5183W        W48121  15.279  20.972   6.524 -0.0201  0.1070 -0.2399
 5184W        W48122  16.357  25.633   6.293 -0.3385  0.1673 -0.2406
 5185W        W48123  19.056  22.397   2.998 -0.1222 -0.0924 -0.1474
 5186W        W48124  17.439  21.566   5.691 -0.0963  0.2221  0.3276
 5187W        W48125  19.071  23.000   4.160  0.2563  0.4349  0.3009
 5188W        W48126  15.743  21.427   3.655  0.1298  0.2047  0.1075
 5189W        W48127  16.082  22.774   4.113  0.4224  0.0291 -0.0356
 5190W        W48128  17.231  22.663   7.234  0.1043  0.0566  0.0640
 5191W        W48129  15.642  22.380   3.419 -0.2111 -0.1271 -0.0255
 5192W        W48130  15.732  22.148   6.352  0.0965  0.2356 -0.2676
 5193W        W48131  14.476  24.504   3.860 -0.1367  0.1148  0.2156
 5194W        W48132  16.701  24.772   5.650  0.1989  0.0886 -0.2714
 5195W        W48133  16.782  22.484   3.538 -0.0580 -0.0039  0.2293
 5196W        W48134  14.825  22.139   6.203 -0.2560 -0.1080 -0.0635
 5197W        W48135  15.961  25.247   6.973  0.1580 -0.1441 -0.2809
 5198W        W48136  13.978  23.737   1.954  0.1081 -0.3256 -0.1399
 5199W        W48137  16.302  23.179   3.978  0.2415  0.2183  0.2977
 5200W        W48138  16.484  25.271   5.901  0.4304  0.3655  0.1070
 5201W        W48139  17.749  22.798   6.469 -0.0268 -0.2699 -0.1239
 5202W        W48140  15.550  21.932   3.616 -0.0498  0.0407 -0.1399
 5203W        W48141  17.497  21.229   4.851 -0.0357  0.0031  0.2966
 5204W        W48142  15.520  24.968   5.039 -0.0140 -0.2587 -0.1869
 5205W        W48143  16.057  20.750   4.199 -0.0011 -0.0157 -0.3012
 5206W        W48144  15.343  24.477   5.739 -0.3734 -0.2174 -0.1463
 5207W        W48145  15.685  22.646   6.345 -0.1755 -0.4160  0.1053
 5208W        W48146  15.728  23.674   4.773 -0.2572  0.1012 -0.0743
 5209W        W48147  15.751  20.983   4.999  0.3546  0.1894 -0.0200
 5210W        W48148  18.546  21.897   4.895 -0.1300 -0.0552  0.0393
 5211W        W48149  18.464  24.164   4.050  0.2923 -0.1614 -0.0619
 5212W        W48150  17.297  22.441   5.630  0.1495 -0.0280  0.2233
 5213W        W48151  17.095  23.963   5.592 -0.2236  0.3611 -0.1746
 5214W        W48152  16.001  23.521   5.653  0.0326  0.0656  0.0911
 5215W        W48153  16.130  24.791   7.786  0.2308  0.1195 -0.0839
 5216W        W48154  17.404  23.112   4.885 -0.3147 -0.0559 -0.2341
 5217W        W48155  15.657  24.115   5.474 -0.2516  0.0986  0.1134
 5218W        W48156  14.600  23.171   7.796  0.1073 -0.1156 -0.3380
 5219W        W48157  16.742  22.666   4.940  0.0226 -0.1811  0.1914
 5220W        W48158  16.792  22.451   4.391  0.2676  0.3278  0.2144
 5221W        W48159  15.219  20.957   2.113  0.0213  0.1859 -0.0919
 5222W        W48160  17.242  24.446   4.763 -0.0940 -0.0457 -0.1995
 5223W        W48161  14.521  25.707   6.841 -0.0499 -0.1283  0.0250
 5224W        W48162  15.281  22.627   7.073  0.0401 -0.2478 -0.2729
 5225W        W48163  14.388  24.966   3.879  0.2348 -0.1791  0.0983
 5226W        W48164  18.195  24.272   3.604 -0.1851 -0.0405  0.1622
 5227W        W48165  17.240  24.308   3.852  0.2546  0.2904 -0.0381
 5228W        W48166  17.241  25.045   6.464 -0.3312  0.0659 -0.0886
 5229W        W48167  16.231  21.105   2.683  0.0277 -0.1444 -0.2046
 5230W        W48168  15.187  25.142   5.873 -0.1606 -0.3258 -0.2454
 5231W        W48169  15.253  24.882   4.279  0.1201 -0.1527 -0.0581
 5232W        W48170  18.429  24.730   4.124  0.1966 -0.2579 -0.1285
 5233W        W48171  14.361  25.758   5.124 -0.2797  0.0011  0.0608
 5234W        W48172  17.440  22.208   7.355  0.0798  0.0155 -0.1829
 5235W        W48173  16.843  21.766   2.978  0.0641  0.0523  0.0359
 5236W        W48174  16.970  23.217   5.292 -0.4621 -0.0662  0.1448
 5237W        W48175  18.284  21.958   3.423 -0.0969 -0.2384  0.1954
 5238W        W48176  17.241  24.221   6.590  0.0377  0.2162  0.0112
 5239W        W48177  16.039  22.443   6.071  0.0097 -0.0523  0.1210
 5240W        W48178  16.491  23.018   2.398  0.0663  0.1525 -0.0765
 5241W        W48179  16.561  23.915   7.118  0.0078 -0.0746 -0.1387
 5242W        W48180  18.061  22.395   6.584  0.0307 -0.1210  0.0748
 5243W        W48181  15.427  25.490   7.347  0.1579 -0.1698  0.2050
 5244W        W48182  16.587  25.054   4.318  0.1082  0.1025 -0.2618
 5245W        W48183  15.283  22.918   5.707  0.0133 -0.1874  0.0891
 5246W        W48184  16.469  22.990   5.284  0.0265  0.2350  0.1755
 5247W        W48185  18.088  20.546   5.664 -0.1828 -0.0143 -0.0979
 5248W        W48186  15.481  23.357   1.621  0.1297 -0.0035 -0.4148
 5249W        W48187  17.598  23.429   4.002  0.1816 -0.0341 -0.1604
 5250W        W48188  16.050  25.129   4.873  0.1770  0.0089  0.0014
 5251W        W48189  16.247  24.186   6.112 -0.1646 -0.2753  0.1025
 5252W        W48190  16.466  24.764   6.232  0.3377 -0.1139 -0.2133
 5253W        W48191  13.944  22.772   4.932 -0.1182  0.4609 -0.1780
 5254W        W48192  17.918  23.233   4.766 -0.1285 -0.1270  0.0213
 5255W        W48193  15.498  22.422   6.703  0.0135  0.2197  0.1965
 5256W        W48194  16.483  20.543   5.692  0.0746 -0.0623 -0.1396
 5257W        W48195  14.910  22.462   4.889  0.1513  0.2614 -0.1380
 5258W        W48196  17.174  21.312   4.290  0.0845  0.0819  0.1030
 5259W        W48197  17.452  22.686   4.774 -0.0547  0.0570 -0.3080
 5260W        W48198  15.021  23.357   5.613  0.0576 -0.4376  0.1627
 5261W        W48199  16.921  22.858   3.931 -0.0557 -0.2196  0.1780
 5262W        W48200  18.333  22.251   5.739 -0.0374  0.1864  0.0641
 5263W        W48201  17.132  23.309   3.962 -0.1214 -0.0317  0.1856
 5264W        W48202  15.864  25.739   7.200 -0.3599 -0.2352 -0.1583
 5265W        W48203  15.588  21.174   4.560 -0.0321 -0.4242  0.1286
 5266W        W48204  17.311  20.847   4.397 -0.1919  0.0416  0.2671
 5267W        W48205  15.692  23.374   4.336 -0.0550 -0.0905  0.1878
 5268W        W48206  16.797  24.867   6.623  0.0387  0.3194  0.0270
 5269W        W48207  17.526  24.537   7.351 -0.1716 -0.3064  0.0799
 5270W        W48208  16.009  22.994   2.445  0.1256  0.0525 -0.0266
 5271W        W48209  17.728  23.564   4.467  0.0032  0.1431  0.1354
 5272W        W48210  18.003  21.311   5.940  0.0596  0.0353  0.1366
 5273W        W48211  15.871  24.694   4.789  0.1295  0.0318  0.0725
 5274W        W48212  17.614  22.920   3.216  0.1613 -0.1045  0.2456
 5275W        W48213  16.448  25.125   5.394  0.0899 -0.3133  0.0747
 5276W        W48214  15.226  20.846   4.762  0.0183  0.0615 -0.0765
 5277W        W48215  16.818  24.769   5.088  0.1198 -0.1672 -0.0337
 5278W        W48216  17.979  23.636   5.799 -0.0859 -0.3649  0.1532
 5279W        W48217  15.421  21.430   3.240  0.3507 -0.0663 -0.1910
 5280W        W48218  15.765  22.930   5.884  0.1194  0.0553 -0.0445
 5281W        W48219  15.629  25.101   4.526  0.1551 -0.1629 -0.2540
 5282W        W48220  18.631  22.042   5.358 -0.2067 -0.0428  0.0107
 5283W        W48221  16.281  20.959   5.096 -0.1784 -0.0938  0.0565
 5284W        W48222  16.501  24.724   2.541  0.1274 -0.0166 -0.0188
 5285W        W48223  17.840  21.901   5.703 -0.2056  0.0742 -0.0962
 5286W        W48224  16.290  24.579   6.708 -0.1184  0.0126 -0.0142
 5287W        W48225  15.877  24.195   6.882  0.0744 -0.0112  0.2262
 5288W        W48226  14.963  23.919   3.415 -0.1093 -0.0708 -0.2002
 5289W        W48227  17.233  24.096   7.212 -0.0502 -0.0282 -0.0674
 5290W        W48228  16.214  23.678   4.537  0.1359 -0.0253 -0.2263
 5291W        W48229  16.189  25.138   3.947 -0.2178 -0.2143 -0.0522
 5292W        W48230  16.111  23.307   5.023  0.1137 -0.0222  0.1615
 5293W        W48231  16.495  22.367   5.226  0.0299 -0.0377 -0.1125
 5294W        W48232  17.564  24.422   4.388 -0.3746 -0.0307  0.0338
 5295W        W48233  15.465  21.218   5.337  0.0656 -0.0568 -0.2153
 5296W        W48234  18.555  22.262   2.652 -0.1810 -0.0333  0.2489
 5297W        W48235  16.979  22.024   3.389 -0.1704 -0.3817  0.1002
 5298W        W48236  16.875  23.079   7.270 -0.1876  0.0408  0.2792
 5299W        W48237  14.591  23.218   4.042  0.0015 -0.0130 -0.3637
 5300W        W48238  15.485  23.512   3.938  0.1813 -0.1618 -0.2041
 5301W        W48239  15.574  22.407   5.852  0.0111  0.0528  0.4556
 5302W        W48240  15.802  21.987   5.893 -0.1508 -0.1876  0.0234
 5303W        W48241  15.309  21.832   5.960  0.0285  0.1111 -0.0489
 5304W        W48242  14.958  23.834   5.250 -0.0706  0.1053 -0.1382
 5305W        W48243  15.538  22.817   4.081  0.0173  0.0322  0.0565
 5306W        W48244  17.805  24.275   3.944  0.0453 -0.0849 -0.0065
 5307W        W48245  16.104  21.107   4.620 -0.1933  0.1349  0.3386
 5308W        W48246  15.052  22.741   6.126 -0.0867 -0.0537  0.1894
 5309W        W48247  17.595  23.603   4.920 -0.2065 -0.2042 -0.2577
 5310W        W48248  16.204  24.697   4.258 -0.1026  0.0486  0.1811
 5311W        W48249  16.077  20.682   6.406 -0.0295 -0.0432  0.4466
 5312W        W48250  18.521  24.931   6.643 -0.1535 -0.0653 -0.3065
 5313W        W48251  14.593  23.866   4.351  0.1892 -0.1359  0.1399
 5314W        W48252  16.495  20.815   6.204 -0.2567 -0.3181 -0.2937
 5315W        W48253  14.696  20.403   5.844  0.0145 -0.2409 -0.3728
 5316W        W48254  14.154  21.123   1.861  0.1646  0.3981  0.1822
 5317W        W48255  16.092  21.559   5.820 -0.1955 -0.0043  0.3621
 5318W        W48256  16.826  23.776   4.542  0.3381 -0.1325 -0.2039
 5319W        W48257  17.533  24.756   3.701 -0.0052  0.3433 -0.1036
 5320W        W48258  16.237  24.140   5.574 -0.1087  0.0919  0.2468
 5321W        W48259  16.101  25.443   5.245  0.2545 -0.2712 -0.1502
 5322W        W48260  15.977  21.120   5.491  0.0370  0.2023  0.1264
 5323W        W48261  17.022  23.006   4.518 -0.3036 -0.3882  0.1568
 5324W        W48262  16.577  23.551   6.435  0.1308 -0.0944 -0.0550
 5325W        W48263  17.272  23.973   5.078  0.1545  0.0628 -0.2242
 5326W        W48264  17.686  20.965   5.621  0.1786  0.3336  0.0384
 5327W        W48265  16.486  23.746   4.072 -0.1290 -0.1918 -0.2143
 5328W        W48266  15.071  22.122   5.211  0.4077 -0.5537 -0.3382
 5329W        W48267  15.873  23.391   6.139  0.0037 -0.1439 -0.1035
 5330W        W48268  17.270  23.299   6.893 -0.2643  0.0473  0.2632
 5331W        W48269  15.300  19.866   5.000  0.1196  0.0223 -0.1401
 5332W        W48270  16.628  21.986   3.860  0.1901  0.2135  0.0140
 5333W        W48271  17.433  23.874   4.106  0.1064  0.3482 -0.1038
 5334W        W48272  15.563  21.387   5.818 -0.0214  0.4058 -0.0230
 5335W        W48273  16.040  21.620   4.576  0.1103  0.0346 -0.0820
 5336W        W48274  16.995  23.514   5.711 -0.0980  0.1291  0.1717
 5337W        W48275  17.070  23.510   4.888 -0.2266 -0.1710 -0.1402
 5338W        W48276  18.023  22.016   7.054 -0.1955  0.3192  0.0591
 5339W        W48277  15.650  22.697   4.991 -0.0182 -0.3023  0.0038
 5340W        W48278  17.135  23.597   3.479  0.0695  0.1366  0.0833
 5341W        W48279  15.822  24.620   6.684  0.2639  0.1039 -0.0717
 5342W        W48280  17.109  24.801   7.509  0.0123 -0.2607 -0.1209
 5343W        W48281  15.621  25.369   5.877  0.0476  0.1497 -0.2215
 5344W        W48282  18.263  22.362   4.138  0.0863  0.0151  0.1919
 5345W        W48283  14.396  23.063   6.248 -0.2518  0.2399 -0.2658
 5346W        W48284  15.795  24.210   4.613  0.1244 -0.0514  0.0523
 5347W        W48285  16.158  23.197   4.460 -0.0552  0.1834 -0.2714
 5348W        W48286  17.142  21.596   5.239  0.2867 -0.1851  0.2453
 5349W        W48287  16.840  22.089   4.834  0.1096  0.0415 -0.1063
 5350W        W48288  15.805  21.872   2.424  0.2852  0.1522  0.1912
 5351W        W48289  16.040  25.088   5.751 -0.2441 -0.2649 -0.2301
 5352W        W48290  16.538  23.623   4.878  0.1088 -0.1800 -0.0483
 5353W        W48291  13.820  24.699  10.274  0.3558  0.4259  0.0673
 5354W        W48292  15.295  22.091   6.954  0.1295  0.1575 -0.0478
 5355W        W48293  17.957  20.900   7.136  0.0804 -0.1322 -0.0466
 5356W        W48294  16.747  21.942   6.564 -0.0006  0.0991 -0.2991
 5357W        W48295  13.533  22.456   8.019 -0.2972  0.2747 -0.5450
 5358W        W48296  16.482  25.615   7.849 -0.1332 -0.1178  0.0092
 5359W        W48297  14.995  23.666   9.134  0.2131 -0.1693  0.3060
 5360W        W48298  18.915  25.662   9.684  0.1121 -0.2616  0.0602
 5361W        W48299  16.453  22.404   6.315 -0.0105  0.1721 -0.3924
 5362W        W48300  16.288  21.092   9.203 -0.3931 -0.0216 -0.2022
 5363W        W48301  16.704  21.888   7.381  0.3494  0.2523  0.0111
 5364W        W48302  15.252  21.052   9.208  0.1081  0.4871  0.2304
 5365W        W48303  17.475  23.203   9.848 -0.0682  0.0631 -0.0478
 5366W        W48304  14.343  22.412   8.649 -0.1957 -0.6129 -0.2151
 5367W        W48305  15.852  22.240   9.474 -0.1934  0.1809 -0.0578
 5368W        W48306  15.920  22.207   8.973  0.2346  0.1661 -0.0122
 5369W        W48307  16.952  26.134   8.614 -0.1247  0.1820 -0.2616
 5370W        W48308  17.551  20.951   9.819  0.0251  0.0903 -0.1418
 5371W        W48309  15.608  23.331   8.765  0.1950 -0.2552 -0.3607
 5372W        W48310  15.667  23.085   7.867  0.0321  0.0941  0.3700
 5373W        W48311  14.148  22.797   9.520 -0.0197 -0.1912 -0.0743
 5374W        W48312  15.718  23.058   9.485 -0.3736  0.0910 -0.0509
 5375W        W48313  15.289  24.071   9.151 -0.2299  0.1407  0.0457
 5376W        W48314  15.793  23.911   9.410 -0.0237  0.1697  0.1917
 5377W        W48315  16.065  23.467   8.609  0.1318 -0.1278  0.0682
 5378W        W48316  15.493  23.467   9.226  0.2765 -0.0840 -0.1448
 5379W        W48317  15.327  22.481   8.880  0.0529  0.2637  0.0584
 5380W        W48318  14.785  25.184   9.996  0.0287  0.0298  0.0639
 5381W        W48319  16.693  23.372   7.614 -0.0301 -0.3211  0.2300
 5382W        W48320  16.216  22.935   8.524  0.1074  0.1793  0.1636
 5383W        W48321  15.123  23.269   7.845  0.2122  0.0172 -0.1886
 5384W        W48322  15.864  22.628   8.689 -0.0362 -0.0473 -0.0604
 5385W        W48323  16.397  22.555   8.241 -0.0680  0.1464 -0.2743
 5386W        W48324  17.257  23.807   8.085  0.0488 -0.2078 -0.1758
 5387W        W48325  16.069  23.505   9.433  0.0606 -0.4398 -0.3194
 5388W        W48326  15.131  24.253   7.898  0.3425  0.2179  0.2603
 5389W        W48327  15.712  24.653   8.112 -0.0584  0.2209  0.3165
 5390W        W48328  17.189  21.796   8.192  0.1188 -0.0981  0.0881
 5391W        W48329  15.581  22.153   5.399 -0.1984  0.2252 -0.0636
 5392W        W48330  16.750  22.278   7.941  0.3460  0.1307 -0.1267
 5393W        W48331  17.037  22.134   8.582 -0.0254  0.0415 -0.0061
 5394W        W48332  16.082  24.074   9.795 -0.2118 -0.1530 -0.1610
 5395W        W48333  12.383  21.767   9.711  0.2306  0.2602 -0.0209
 5396W        W48334  16.093  22.991   7.471 -0.2869  0.0563 -0.0874
 5397W        W48335  18.138  22.675   9.114  0.2461  0.0813 -0.0318
 5398W        W48336  16.748  23.671   8.858 -0.3602 -0.0722  0.0617
 5399W        W48337  14.709  24.143   9.322 -0.2008 -0.3447 -0.1610
 5400W        W48338  17.023  23.620   7.221 -0.2619  0.1721  0.1215
 5401W        W48339  18.343  24.298   9.405  0.3178  0.0582  0.1910
 5402W        W48340  16.457  23.304   8.302  0.1761  0.1426 -0.3823
 5403W        W48341  15.197  23.905   8.280  0.3717  0.1153  0.1432
 5404W        W48342  14.750  21.595   7.435 -0.0186  0.3136 -0.2505
 5405W        W48343  18.540  21.316   9.982 -0.0643  0.1167 -0.3236
 5406W        W48344  14.719  24.683   9.762 -0.0566 -0.0496 -0.0115
 5407W        W48345  17.199  24.187   8.822  0.2359  0.2100 -0.1414
 5408W        W48346  17.656  24.122   6.370 -0.0643  0.0963  0.2725
 5409W        W48347  18.426  21.526   9.453  0.0679  0.0353  0.1303
 5410W        W48348  17.856  21.243   8.829 -0.1018  0.1615  0.1122
 5411W        W48349  16.343  25.033   7.049 -0.2732 -0.0219 -0.0542
 5412W        W48350  15.759  23.047   8.394  0.1951 -0.0413  0.1735
 5413W        W48351  18.431  24.506   8.951 -0.0787 -0.1017 -0.4049
 5414W        W48352  17.460  23.417   8.288 -0.1162  0.1878  0.1191
 5415W        W48353  13.351  23.425   9.314  0.2370  0.2140 -0.1026
 5416W        W48354  16.064  23.802   7.262  0.0010  0.1502  0.1635
 5417W        W48355  14.088  23.189   9.064  0.0919 -0.2218  0.1307
 5418W        W48356  15.370  24.226   6.682  0.1022 -0.2565 -0.2146
 5419W        W48357  14.378  21.564   9.313 -0.1675 -0.4618 -0.0144
 5420W        W48358  16.263  23.993   9.261  0.1316 -0.3047 -0.0117
 5421W        W48359  18.277  21.967   7.532 -0.0739  0.0338 -0.1172
 5422W        W48360  16.131  20.451   8.562 -0.4642  0.1101 -0.0361
 5423W        W48361  15.669  22.187   7.981  0.1001 -0.3886  0.0813
 5424W        W48362  17.070  24.629   8.638  0.0861  0.0299 -0.1573
 5425W        W48363  17.923  22.364   7.566  0.0183 -0.2695 -0.0291
 5426W        W48364  18.096  23.548   7.599  0.2932 -0.0131 -0.1102
 5427W        W48365  15.124  20.432  10.069 -0.0432 -0.3055 -0.1103
 5428W        W48366  15.484  21.180   9.909  0.0841 -0.3078 -0.2445
 5429W        W48367  14.825  22.522   7.914  0.2151  0.0404 -0.0549
 5430W        W48368  14.923  21.691   8.428 -0.2585  0.1370  0.2410
 5431W        W48369  16.235  22.074   7.121  0.1106 -0.1996  0.2170
 5432W        W48370  15.821  22.632   7.678 -0.1434 -0.1465 -0.1419
 5433W        W48371  14.169  22.912   8.613  0.2443  0.1257  0.0581
 5434W        W48372  16.460  23.252   8.889 -0.0725 -0.1534 -0.0420
 5435W        W48373  16.475  25.353   9.276  0.2574  0.0869 -0.0394
 5436W        W48374  17.712  26.115   8.980  0.2821 -0.0254  0.3361
 5437W        W48375  15.391  20.765   9.614 -0.0989 -0.1130 -0.0157
 5438W        W48376  15.518  21.351   6.787  0.1260  0.1981 -0.0135
 5439W        W48377  13.985  25.209   9.640 -0.3817  0.0838 -0.3152
 5440W        W48378  16.695  24.337   8.742  0.1771  0.1097  0.3879
 5441W        W48379  15.455  22.057   9.224 -0.3635  0.4836  0.0539
 5442W        W48380  18.354  22.805   9.692  0.1014 -0.0825  0.0632
 5443W        W48381  15.377  23.413   8.237 -0.0326  0.2224 -0.0764
 5444W        W48382  14.367  24.346   9.766 -0.2089 -0.2543 -0.3176
 5445W        W48383  17.760  22.177   9.186 -0.1681  0.0357  0.0978
 5446W        W48384  15.738  21.956   4.970  0.2851  0.2665  0.1654
 5447W        W48385  16.901  24.060   8.377 -0.2421 -0.0812 -0.4212
 5448W        W48386  16.009  23.478   7.606 -0.1067  0.0573 -0.1680
 5449W        W48387  13.429  23.537   8.061 -0.0643  0.2578  0.0328
 5450W        W48388  16.217  24.188   8.721 -0.3692 -0.1608  0.2574
 5451W        W48389  17.578  19.995   8.699 -0.2359 -0.5871 -0.2396
 5452W        W48390  15.977  23.870   6.383  0.0543  0.0182  0.0222
 5453W        W48391  16.012  21.305   8.408 -0.0102  0.4676 -0.0924
 5454W        W48392  17.031  21.604   6.899 -0.0189  0.2098 -0.1842
 5455W        W48393  16.757  22.967   8.626  0.1123  0.1522  0.1224
 5456W        W48394  16.155  22.545   6.674 -0.4480 -0.0877 -0.1588
 5457W        W48395  17.202  21.252   7.170 -0.1659  0.1524 -0.2581
 5458W        W48396  16.974  23.370   8.490  0.2879 -0.0420 -0.0201
 5459W        W48397  16.586  23.505   9.337 -0.0871  0.2525  0.0989
 5460W        W48398  15.886  22.033   7.529  0.0741 -0.1917 -0.3295
 5461W        W48399  17.377  22.869   8.078  0.2669 -0.1608 -0.1420
 5462W        W48400  17.132  23.501  10.075  0.1025  0.1434  0.3569
 5463W        W48401  17.032  23.268   8.960 -0.0227 -0.4355 -0.2283
 5464W        W48402  18.768  21.737  10.251  0.4291 -0.1056 -0.4762
 5465W        W48403  15.002  22.999   7.346  0.4035  0.0999  0.1170
 5466W        W48404  16.066  22.228   8.334 -0.1501 -0.3855  0.1636
 5467W        W48405  14.968  24.849   6.902 -0.2398 -0.0083  0.1233
 5468W        W48406  14.607  22.438   9.625 -0.4330 -0.0462 -0.0026
 5469W        W48407  17.555  23.269   8.852 -0.1284  0.2584  0.0295
 5470W        W48408  17.648  22.052   8.081 -0.2302  0.1964  0.3320
 5471W        W48409  19.048  24.142   9.940  0.3837 -0.3139 -0.0978
 5472W        W48410  16.216  22.825   4.834  0.2853 -0.1181  0.0304
 5473W        W48411  16.777  22.288   9.059  0.1763 -0.1677 -0.0283
 5474W        W48412  15.760  25.600   9.738 -0.2909 -0.0023 -0.0489
 5475W        W48413  15.468  21.833   7.722  0.0678 -0.3304  0.1242
 5476W        W48414  15.927  21.771   8.184 -0.1481 -0.0819  0.1893
 5477W        W48415  16.126  24.373   8.157  0.2759 -0.0540  0.3298
 5478W        W48416  17.007  22.835   6.818 -0.1188 -0.0826 -0.0194
 5479W        W48417  14.712  22.056   8.673 -0.0654 -0.0305  0.3144
 5480W        W48418  14.390  23.783   9.144 -0.1264  0.0461  0.0478
 5481W        W48419  15.561  24.326   6.202 -0.1317 -0.0376  0.3111
 5482W        W48420  18.962  26.604   9.528 -0.0980  0.1321 -0.1963
 5483W        W48421  16.150  24.845   8.334  0.1513 -0.0735 -0.3365
 5484W        W48422  19.010  23.052  11.387  0.1972  0.2623 -0.1974
 5485W        W48423  15.151  24.988   8.564  0.0367  0.1382  0.1182
 5486W        W48424  16.065  20.788   5.922 -0.1549  0.1428 -0.0426
 5487W        W48425  13.738  22.917  10.085  0.0733 -0.1364  0.0779
 5488W        W48426  18.225  21.096   9.158  0.1804  0.0014  0.2264
 5489W        W48427  17.911  23.464   8.444 -0.3210 -0.1249 -0.0123
 5490W        W48428  14.925  22.881   8.965 -0.0857  0.1254 -0.0415
 5491W        W48429  15.267  22.742   9.521 -0.0517 -0.3468  0.1319
 5492W        W48430  14.861  24.615   8.764  0.2776 -0.2035 -0.0423
 5493W        W48431  17.106  22.005   7.724 -0.2555  0.1086 -0.1062
 5494W        W48432  14.635  22.296   9.136 -0.1849  0.2035 -0.0982
 5495W        W48433  17.536  19.844   9.167  0.2160 -0.0074 -0.0923
 5496W        W48434  15.901  22.651   8.169  0.2214  0.0582  0.0047
 5497W        W48435  15.304  24.485   8.344 -0.0365 -0.0091 -0.1100
 5498W        W48436  17.473  24.532   9.168  0.1543  0.0711 -0.3617
 5499W        W48437  15.539  23.304   7.467 -0.1350 -0.1815 -0.0862
 5500W        W48438  16.091  23.899   7.938 -0.0229  0.0759  0.0977
 5501W        W48439  17.960  23.263  10.137 -0.0273 -0.0979  0.2235
 5502W        W48440  16.527  21.898   8.287  0.0340  0.3103 -0.2210
 5503W        W48441  16.320  21.257   7.952  0.1129 -0.0442 -0.2164
 5504W        W48442  17.713  22.561   8.791 -0.1197 -0.2800 -0.1346
 5505W        W48443  16.975  23.184   9.514 -0.0609 -0.0886 -0.3006
 5506W        W48444  16.955  22.497   9.863 -0.1268 -0.2079 -0.2518
 5507W        W48445  17.442  20.514   8.538 -0.1618 -0.1229 -0.0753
 5508W        W48446  18.326  22.819   7.531 -0.0399 -0.0444 -0.0911
 5509W        W48447  15.191  23.768   6.911 -0.1745  0.0500 -0.0242
 5510W        W48448  13.809  23.218   9.465  0.0922  0.0662  0.0291
 5511W        W48449  16.389  22.282   7.614  0.0746  0.0389  0.1604
 5512W        W48450  16.655  21.573   9.951 -0.0308  0.1253  0.0448
 5513W        W48451  13.873  23.917   9.849 -0.1013 -0.2198 -0.0772
 5514W        W48452  15.912  23.298   7.147 -0.1826 -0.0021  0.0325
 5515W        W48453  15.501  24.150   9.715  0.1720  0.6362 -0.1773
 5516W        W48454  17.319  21.472   6.484 -0.0425  0.1209 -0.0214
 5517W        W48455  16.572  22.347   6.868  0.0952  0.0194  0.1720
 5518W        W48456  16.994  21.570   8.632 -0.1866 -0.2761 -0.0141
 5519W        W48457  16.962  22.390   6.459  0.1187 -0.0176  0.0253
 5520W        W48458  12.357  20.762   9.712 -0.0341 -0.2227 -0.2837
 5521W        W48459  16.749  23.674   7.995 -0.2931 -0.1814  0.0291
 5522W        W48460  15.263  22.425   7.597 -0.2083  0.0199 -0.3941
 5523W        W48461  15.212  21.535   8.950 -0.0847 -0.0607  0.3780
 5524W        W48462  14.841  23.621   9.580  0.2009 -0.1076 -0.3704
 5525W        W48463  16.998  24.352   7.933  0.1169 -0.0634 -0.2999
 5526W        W48464  15.282  22.914   8.595 -0.1229 -0.1532 -0.2237
 5527W        W48465  17.552  21.395   8.125 -0.0689  0.1420 -0.3499
 5528W        W48466  15.724  23.450   9.819  0.0297  0.0255 -0.1200
 5529W        W48467  17.258  22.953   8.557 -0.1100 -0.1464 -0.1726
 5530W        W48468  16.181  24.322   7.667 -0.1451 -0.1689  0.1580
 5531W        W48469  14.416  23.627   7.959  0.3172  0.0333 -0.0275
 5532W        W48470  17.388  22.452   8.421 -0.4248 -0.2655  0.1547
 5533W        W48471  16.761  21.235   8.812 -0.1465 -0.2192  0.0619
 5534W        W48472  17.726  23.907  11.160 -0.0797 -0.1727  0.2282
 5535W        W48473  18.444  22.685   8.167  0.0913  0.1012 -0.0714
 5536W        W48474  17.670  19.437   8.767  0.4187  0.0903  0.0897
 5537W        W48475  18.710  21.926   8.629  0.1157 -0.2740 -0.1618
 5538W        W48476  16.228  23.050   6.719  0.3610 -0.1497  0.1718
 5539W        W48477  14.829  23.530   8.313  0.1366 -0.1302 -0.3101
 5540W        W48478  15.855  21.971   6.786 -0.1171  0.1059  0.1900
 5541W        W48479  16.406  25.845   7.161  0.1223  0.0530  0.4178
 5542W        W48480  17.121  23.359   7.878  0.0892  0.1750 -0.1361
 5543W        W48481  16.903  22.571   8.304 -0.0379  0.0659 -0.0928
 5544W        W48482  14.031  22.011   7.922  0.0580 -0.1170  0.1687
 5545W        W48483  15.419  22.838   7.493  0.0890 -0.0824 -0.1211
 5546W        W48484  16.734  24.742   7.124 -0.0727  0.2066  0.2782
 5547W        W48485  18.137  24.079   9.029 -0.1819 -0.0521 -0.0410
 5548W        W48486  15.929  21.534   7.733 -0.1769 -0.1854  0.1211
 5549W        W48487  14.875  24.818   8.193  0.0950 -0.0728  0.1680
 5550W        W48488  15.768  21.685   9.192  0.0294 -0.3210 -0.0391
 5551W        W48489  12.280  24.265   9.886 -0.0321 -0.3572  0.1985
 5552W        W48490  15.671  24.945   8.537  0.0208 -0.0296 -0.1425
 5553W        W48491  16.695  21.869   8.817  0.2170 -0.0818 -0.2536
 5554W        W48492  17.490  21.589   8.567 -0.0598  0.0747  0.1845
 5555W        W48493  16.148  21.826   8.652 -0.3944  0.0199  0.0864
 5556W        W48494  15.437  23.803   8.730 -0.0223  0.1152  0.5612
 5557W        W48495  18.566  24.157   7.344 -0.1413 -0.1161 -0.0247
 5558W        W48496  13.787  23.789   8.445  0.2001 -0.2252  0.0048
 5559W        W48497  17.797  23.708   9.721  0.0422  0.0663  0.1847
 5560W        W48498  15.170  20.607   7.363 -0.0028 -0.0157 -0.2531
 5561W        W48499  16.518  22.768   7.716 -0.4274 -0.3595  0.1147
 5562W        W48500  16.270  22.473  10.173  0.3173 -0.0586 -0.0405
 5563W        W48501  15.201  25.398   7.818  0.0675 -0.1527 -0.0499
 5564W        W48502  17.019  22.809   7.681  0.0608 -0.1947  0.1058
 5565W        W48503  15.573  21.737   7.174  0.0313  0.2714 -0.2992
 5566W        W48504  17.639  23.832  10.121 -0.1982 -0.0146  0.0522
 5567W        W48505  15.761  22.783   7.008 -0.1007  0.2680  0.0449
 5568W        W48506  15.201  25.820   9.666 -0.2148  0.0793 -0.2074
 5569W        W48507  16.449  23.821   7.604  0.0659 -0.0473  0.0676
 5570W        W48508  16.722  24.329   7.405 -0.0689  0.2243  0.0410
 5571W        W48509  15.383  24.529   8.872  0.0077 -0.0210 -0.3680
 5572W        W48510  17.766  21.319   6.416  0.0575  0.5202 -0.1102
 5573W        W48511  18.059  23.996   8.551 -0.0248  0.0127  0.0895
 5574W        W48512  18.933  22.356   8.119 -0.5175 -0.1834  0.1613
 5575W        W48513  16.760  21.761   9.353  0.0918 -0.1271 -0.0181
 5576W        W48514  16.791  22.064   6.098  0.0819  0.1518 -0.1599
 5577W        W48515  17.659  25.007   7.441  0.2486  0.0252 -0.1537
 5578W        W48516  16.188  23.014   7.974  0.0945 -0.1596  0.3184
 5579W        W48517  17.308  23.889   9.657  0.2072 -0.0205 -0.0293
 5580W        W48518  17.100  20.074   9.864  0.0391 -0.1590  0.3596
 5581W        W48519  17.638  22.930   6.989 -0.2532  0.2413  0.0487
 5582W        W48520  17.706  21.444   7.181 -0.0577 -0.2060  0.2804
 5583W        W48521  16.522  25.106   7.973 -0.0823  0.2262 -0.1508
 5584W        W48522  14.970  24.073   9.732 -0.4048  0.1040 -0.0820
 5585W        W48523  15.822  23.871   8.380 -0.3702 -0.0181  0.0526
 5586W        W48524  14.397  21.332   8.365  0.1240 -0.0790  0.0374
 5587W        W48525  18.987  21.489   7.732  0.1798 -0.1817  0.2246
 5588W        W48526  16.862  21.016   9.263  0.1662 -0.3337 -0.2199
 5589W        W48527  15.847  22.657   9.204 -0.1158  0.3040  0.0131
 5590W        W48528  17.226  21.722   7.355 -0.0644  0.0679  0.1405
 5591W        W48529  15.911  23.418   8.117 -0.2599 -0.1819  0.1620
 5592W        W48530  13.894  21.977   9.840  0.3217  0.2677  0.1336
 5593W        W48531  16.882  22.556   5.935 -0.1227 -0.1751 -0.2301
 5594W        W48532  17.653  21.738   7.648 -0.1560  0.1695 -0.1771
 5595W        W48533  15.854  21.321   9.549 -0.3285 -0.3763  0.1194
 5596W        W48534  16.526  21.419   8.445 -0.0294 -0.1124 -0.2512
 5597W        W48535  16.165  22.962   9.872 -0.1515 -0.2290  0.1957
 5598W        W48536  16.363  21.527   9.044 -0.3389  0.0767  0.1921
 5599W        W48537  15.019  22.147   8.230  0.2329  0.3239  0.0481
 5600W        W48538  17.952  23.815   6.819 -0.1950 -0.1205 -0.1035
 5601W        W48539  17.623  23.277   7.797 -0.4502  0.0495 -0.1720
 5602W        W48540  16.240  23.614   6.766 -0.0810 -0.2051 -0.1651
 5603W        W48541  17.444  23.096   9.313  0.0895  0.0746  0.3552
 5604W        W48542  15.754  24.353   8.537 -0.0004  0.2243  0.1582
 5605W        W48543  14.211  19.124   8.938  0.1747 -0.0569 -0.0114
 5606W        W48544  17.841  21.943   9.635 -0.0434 -0.1422 -0.1884
 5607W        W48545  19.040  24.061   8.472  0.1407 -0.0754 -0.3321
 5608W        W48546  15.708  21.282   8.895  0.3095 -0.1069 -0.1668
 5609W        W48547  14.491  24.292   8.869  0.1483 -0.1199  0.0670
 5610W        W48548  15.488  24.533   7.639  0.3401 -0.3199 -0.0583
 5611W        W48549  17.303  21.155   8.647  0.0009  0.0030  0.1673
 5612W        W48550  16.099  26.113   5.765  0.2586 -0.0261 -0.0596
 5613W        W48551  16.369  26.251   8.667 -0.1605 -0.0245  0.4259
 5614W        W48552  14.857  24.383   6.668 -0.1859  0.2402 -0.2335
 5615W        W48553  15.621  24.463   9.356 -0.0332  0.3819  0.0471
 5616W        W48554  15.892  25.005   9.317 -0.1362 -0.0550 -0.0712
 5617W        W48555  17.547  23.896   8.462  0.1492 -0.0153  0.1165
 5618W        W48556  15.417  21.835   8.252 -0.1687 -0.1884 -0.0638
 5619W        W48557  18.788  25.199   9.682 -0.1411  0.0667 -0.3163
 5620W        W48558  16.100  20.347   9.963  0.2461 -0.2082  0.0932
 5621W        W48559  18.430  21.694   8.335  0.0898 -0.1415 -0.1009
 5622W        W48560  17.258  20.990   8.017 -0.0052 -0.2346  0.2191
 5623W        W48561  14.169  24.206   9.309 -0.1841  0.0664  0.1991
 5624W        W48562  14.191  22.653   7.246 -0.1814 -0.0638 -0.0108
 5625W        W48563  15.996  24.618   6.231 -0.0816  0.1638 -0.2039
 5626W        W48564  15.104  23.381   8.709 -0.0178 -0.0312 -0.1231
 5627W        W48565  14.376  23.392   9.502 -0.2638 -0.0343  0.0638
 5628W        W48566  14.509  22.271   8.192 -0.1519  0.0887  0.0404
 5629W        W48567  16.823  22.399   7.434  0.0191  0.1123 -0.1636
 5630W        W48568  15.192  22.040   8.773  0.0848  0.0440  0.5060
 5631W        W48569  12.727  21.593   9.418  0.1435 -0.2459 -0.1466
 5632W        W48570  17.302  22.428   7.888 -0.2044  0.1468 -0.1347
 5633W        W48571  17.231  22.552   8.945 -0.1227 -0.1866 -0.2031
 5634W        W48572  16.192  20.103   8.152  0.2125 -0.0003 -0.4531
 5635W        W48573  13.923  24.213   6.913  0.0905  0.1445 -0.1679
 5636W        W48574  15.323  21.897   6.498 -0.2067 -0.2383 -0.3391
 5637W        W48575  15.989  23.055   9.008 -0.2601  0.2084  0.0351
 5638W        W48576  16.298  24.487   9.157  0.3200 -0.2260 -0.1155
 5639W        W48577  16.944  25.333   7.691  0.3950 -0.1766 -0.2778
 5640W        W48578  13.422  23.294   9.945  0.1465 -0.1250  0.2077
 5641W        W48579  17.564  22.760   7.622 -0.0834 -0.2058 -0.0559
 5642W        W48580  18.309  23.762   7.173 -0.3080  0.0884  0.1536
 5643W        W48581  17.527  20.223   9.545  0.0016 -0.2698 -0.1557
 5644W        W48582  16.482  24.140   8.006  0.1159 -0.2062  0.2089
 5645W        W48583  16.935  24.730   9.908 -0.0979  0.2773  0.1006
 5646W        W48584  15.750  20.001   7.898 -0.1039  0.1144  0.1352
 5647W        W48585  18.772  21.841   7.397 -0.1217 -0.0133  0.1248
 5648W        W48586  16.609  24.590   8.214  0.2361  0.2401 -0.1103
 5649W        W48587  14.334  21.962   9.606 -0.2059  0.2854  0.1648
 5650W        W48588  16.504  22.848   7.115  0.0448  0.1607  0.3301
 5651W        W48589  16.311  23.075   9.362  0.0093 -0.0921 -0.2634
 5652W        W48590  16.255  21.973   5.492  0.0250 -0.1046  0.4279
 5653W        W48591  17.853  22.555   8.074 -0.3214  0.0617 -0.0792
 5654W        W48592  15.488  26.357   9.656 -0.2531 -0.0774  0.2512
 5655W        W48593  15.250  31.171   9.764  0.2682  0.4395 -0.0018
 5656W        W48594  16.236  25.232   9.711  0.0953  0.1389 -0.5876
 5657W        W48595  16.350  22.618   9.180  0.2217 -0.0201 -0.0183
 5658W        W48596  14.825  22.561   8.559 -0.1273  0.1591 -0.1283
 5659W        W48597  16.818  23.010   8.100 -0.1909  0.1131  0.0225
 5660W        W48598  17.564  22.695   9.855  0.3137  0.0225  0.1528
 5661W        W48599  15.421  20.879   8.350 -0.2658  0.0783  0.2563
 5662W        W48600  16.879  20.834   8.428  0.2966 -0.0073 -0.3837
 5663W        W48601  17.357  24.377   8.381  0.0656 -0.2100  0.1891
 5664W        W48602  16.758  22.898   9.168 -0.0595  0.0708  0.2207
 5665W        W48603  15.161  26.897   1.202 -0.0196  0.0376  0.1252
 5666W        W48604  16.069  25.458   0.592 -0.2829  0.2000  0.2580
 5667W        W48605  18.210  25.658  30.479 -0.4303 -0.1027  0.3009
 5668W        W48606  17.277  25.821  30.625  0.1709  0.0560  0.3313
 5669W        W48607  14.072  25.734   1.146 -0.1062 -0.0432  0.1674
 5670W        W48608  16.739  28.466   0.402 -0.0911 -0.2011 -0.1232
 5671W        W48609  16.157  25.346   2.432  0.0772  0.0088 -0.0661
 5672W        W48610  16.971  28.051   1.677  0.0464 -0.2252  0.2988
 5673W        W48611  17.336  26.996   1.163 -0.1485  0.1883  0.3666
 5674W        W48612  15.951  25.746  28.855 -0.0443 -0.2832 -0.2315
 5675W        W48613  16.235  27.445   2.689  0.2650 -0.0527 -0.1299
 5676W        W48614  16.318  28.167   3.717 -0.1452 -0.0743 -0.2517
 5677W        W48615  16.252  25.036  31.797  0.0668 -0.0663  0.0688
 5678W        W48616  14.438  23.791   3.735 -0.0419 -0.3756  0.1704
 5679W        W48617  17.150  27.273   2.333 -0.1385 -0.1746 -0.0872
 5680W        W48618  15.115  26.427  31.251  0.2270 -0.0803 -0.0650
 5681W        W48619  15.502  27.155   1.496 -0.1365  0.0863 -0.1167
 5682W        W48620  16.012  26.383   1.339  0.2917  0.0586 -0.1787
 5683W        W48621  15.901  27.748   0.404 -0.1223 -0.2468  0.1129
 5684W        W48622  15.493  25.893   3.810 -0.2063 -0.0134 -0.4001
 5685W        W48623  16.492  26.196   2.031 -0.0615  0.0379 -0.2111
 5686W        W48624  15.136  28.162   0.931 -0.0449 -0.1167  0.1189
 5687W        W48625  15.679  28.322  30.254  0.0900  0.2646  0.1189
 5688W        W48626  15.407  28.114   1.349 -0.1976 -0.3339  0.0271
 5689W        W48627  15.502  26.186   2.432  0.1398  0.0719  0.2474
 5690W        W48628  15.704  25.143   0.388  0.0668 -0.1472 -0.0539
 5691W        W48629  16.618  26.786   0.535 -0.1105 -0.0782  0.2782
 5692W        W48630  16.875  27.585   1.873 -0.0254 -0.1199  0.0650
 5693W        W48631  16.716  28.339   2.155 -0.0732 -0.2140 -0.1696
 5694W        W48632  16.421  26.530   3.358  0.0871  0.0044  0.0700
 5695W        W48633  14.493  28.486   0.909 -0.3082 -0.0582 -0.0335
 5696W        W48634  16.098  28.233   0.520 -0.1647  0.1544 -0.1153
 5697W        W48635  14.811  26.798   1.611  0.0807 -0.1591 -0.3702
 5698W        W48636  18.810  27.347   0.644 -0.0344 -0.0199  0.2882
 5699W        W48637  17.460  27.532   3.004 -0.1163  0.2470 -0.2163
 5700W        W48638  14.726  30.862   2.384 -0.0184  0.2652  0.0150
 5701W        W48639  15.873  27.528   0.887  0.0259 -0.1704  0.0365
 5702W        W48640  16.323  29.309   1.978 -0.3723 -0.2638 -0.0893
 5703W        W48641  15.527  27.711   3.421  0.3386 -0.2755  0.1526
 5704W        W48642  17.140  26.386   2.457 -0.3362 -0.1894  0.0593
 5705W        W48643  16.115  25.986   0.835  0.0192 -0.4983 -0.0851
 5706W        W48644  16.524  28.205   0.782 -0.1675 -0.0096  0.1177
 5707W        W48645  16.421  28.905   0.685  0.1559  0.0285  0.3255
 5708W        W48646  15.656  26.463   3.759 -0.3941 -0.0350  0.4349
 5709W        W48647  14.896  27.288   0.704  0.0639 -0.0454  0.0767
 5710W        W48648  16.660  26.104   3.339  0.0761 -0.2482  0.1680
 5711W        W48649  15.529  28.186  30.708  0.3413 -0.1991  0.0768
 5712W        W48650  16.001  25.757  31.283 -0.0832 -0.0141 -0.0453
 5713W        W48651  15.200  25.496  30.477  0.0010 -0.0605 -0.1091
 5714W        W48652  16.993  25.563   0.192  0.0028 -0.1714 -0.2360
 5715W        W48653  16.082  25.374   1.950 -0.1499 -0.0350  0.1971
 5716W        W48654  15.795  28.378   1.384  0.0283 -0.0857  0.1966
 5717W        W48655  14.946  26.170   0.137 -0.3694  0.2377  0.0409
 5718W        W48656  18.763  27.434   2.294 -0.1630  0.1756 -0.4157
 5719W        W48657  16.495  26.970  31.320 -0.4282  0.1684 -0.0931
 5720W        W48658  16.481  26.491   1.609  0.1313 -0.1060 -0.3822
 5721W        W48659  16.041  28.010   2.057 -0.0770 -0.0164  0.0713
 5722W        W48660  15.566  27.168   2.264 -0.1406 -0.1542 -0.0915
 5723W        W48661  16.694  28.852  31.750  0.2612 -0.2272 -0.1641
 5724W        W48662  18.082  28.594   1.948  0.0583 -0.0534  0.0508
 5725W        W48663  17.595  28.268   0.132 -0.4684  0.0820 -0.0114
 5726W        W48664  14.273  25.669  31.400 -0.1950 -0.1877  0.0930
 5727W        W48665  15.761  27.791   2.951  0.1106  0.3372 -0.0059
 5728W        W48666  15.157  27.280   4.054 -0.0608 -0.1198  0.2483
 5729W        W48667  14.672  25.698  31.828  0.1476 -0.2154  0.1203
 5730W        W48668  17.703  26.414   3.253 -0.0197  0.0124  0.0683
 5731W        W48669  15.013  27.735   1.552  0.0200 -0.2781  0.0733
 5732W        W48670  18.389  25.256   1.670 -0.0586  0.0459 -0.3355
 5733W        W48671  15.126  27.407   2.398 -0.0836  0.1065  0.1413
 5734W        W48672  17.378  27.817   2.032  0.2077 -0.0429  0.0826
 5735W        W48673  17.260  27.348  30.329 -0.1948  0.0974 -0.2110
 5736W        W48674  16.625  25.655   1.205 -0.0386 -0.0516 -0.0663
 5737W        W48675  16.858  25.998   2.440 -0.0105  0.0950 -0.0252
 5738W        W48676  16.340  27.614   0.079  0.2196  0.0236  0.0532
 5739W        W48677  16.351  28.308   1.380  0.1352 -0.0588 -0.0637
 5740W        W48678  18.482  28.005   2.982  0.4716 -0.0885 -0.1789
 5741W        W48679  18.516  25.738  31.242 -0.1296  0.1016 -0.1400
 5742W        W48680  15.420  27.908   2.459 -0.3082  0.1439 -0.2412
 5743W        W48681  14.655  25.988   2.632  0.1280 -0.0408 -0.0921
 5744W        W48682  16.239  28.813   3.091  0.0679  0.1297 -0.2879
 5745W        W48683  14.955  27.814   0.588  0.0417  0.1010 -0.0269
 5746W        W48684  15.184  28.525   2.128  0.2553  0.0654  0.0158
 5747W        W48685  15.806  27.204   0.264  0.0908 -0.4280 -0.1588
 5748W        W48686  14.676  24.637   2.796 -0.1239  0.1618  0.2388
 5749W        W48687  14.077  27.506   2.509  0.2023 -0.0225  0.2421
 5750W        W48688  17.585  26.131  31.412 -0.0510  0.0475  0.0647
 5751W        W48689  16.076  24.824   2.724 -0.0987 -0.2132  0.1436
 5752W        W48690  17.669  24.612   1.955  0.0683  0.1181  0.0329
 5753W        W48691  15.655  27.134  30.975 -0.3137  0.3157  0.2389
 5754W        W48692  17.348  28.690   0.427  0.0142  0.3427 -0.1364
 5755W        W48693  17.313  25.736  29.663  0.2109 -0.1521  0.2197
 5756W        W48694  16.489  27.714  30.349 -0.2961  0.1731  0.0059
 5757W        W48695  14.313  27.195   2.796 -0.2691 -0.0871  0.4479
 5758W        W48696  15.408  26.360   1.438  0.3841  0.1244  0.1672
 5759W        W48697  15.551  26.087   3.280 -0.1970 -0.0917 -0.0304
 5760W        W48698  15.317  26.316   2.872 -0.1936 -0.0933 -0.0185
 5761W        W48699  17.729  26.108   1.275  0.0291 -0.1880 -0.1591
 5762W        W48700  15.173  25.752   0.111  0.2525  0.0278 -0.0062
 5763W        W48701  17.261  25.776  31.263 -0.3607  0.1236  0.1870
 5764W        W48702  15.944  27.020  31.399  0.0574 -0.1812 -0.1703
 5765W        W48703  13.777  28.896   1.438  0.1297 -0.1256 -0.1485
 5766W        W48704  17.338  25.917   2.276 -0.2082  0.1687  0.0026
 5767W        W48705  16.733  28.249  31.381 -0.1581  0.1028 -0.2383
 5768W        W48706  18.933  26.674   2.577  0.1828  0.1960 -0.2191
 5769W        W48707  17.661  28.791   1.459  0.0910 -0.2397 -0.1132
 5770W        W48708  16.313  26.876   2.579 -0.1128  0.0211 -0.0040
 5771W        W48709  15.223  26.503  31.873 -0.3210  0.2567 -0.2339
 5772W        W48710  15.619  29.351   1.411 -0.3304 -0.1369  0.0107
 5773W        W48711  15.800  27.396   1.864  0.1009  0.0840 -0.0855
 5774W        W48712  16.121  26.094  31.844  0.0192 -0.1215 -0.1014
 5775W        W48713  18.481  28.142   0.124 -0.0049  0.0612  0.1511
 5776W        W48714  16.350  28.174   0.111 -0.0907 -0.1169  0.0769
 5777W        W48715  14.840  27.850   2.672  0.2482  0.2069 -0.0607
 5778W        W48716  17.284  25.842   1.103 -0.0820 -0.0514  0.0873
 5779W        W48717  16.385  27.175   0.375  0.1952 -0.0803  0.1967
 5780W        W48718  16.617  27.128   0.912  0.3231  0.1448 -0.1161
 5781W        W48719  14.632  24.781  30.032  0.2722 -0.0838 -0.1700
 5782W        W48720  17.090  28.677   1.897  0.2119  0.0057 -0.1656
 5783W        W48721  15.641  27.435  31.353 -0.1919 -0.2076 -0.4207
 5784W        W48722  14.151  26.089   0.730  0.2143  0.2425 -0.2122
 5785W        W48723  16.316  27.350   1.271 -0.0000  0.0556 -0.1466
 5786W        W48724  16.934  25.516   0.773 -0.1244  0.1875  0.0828
 5787W        W48725  14.668  27.580   3.721  0.0841 -0.1951  0.0794
 5788W        W48726  16.674  26.666   2.034  0.2883 -0.0311 -0.3578
 5789W        W48727  14.925  26.423   1.128  0.0802 -0.1813  0.1933
 5790W        W48728  15.987  28.906   3.734 -0.0428  0.1625 -0.2035
 5791W        W48729  16.003  25.347  31.538  0.1079 -0.3062  0.0430
 5792W        W48730  17.018  24.954  31.178  0.2069 -0.0401  0.2936
 5793W        W48731  15.457  27.477   2.761  0.1158 -0.0436  0.0705
 5794W        W48732  17.044  26.449   0.637 -0.5719 -0.1292 -0.0649
 5795W        W48733  18.833  25.205  30.425 -0.2113  0.2296  0.0596
 5796W        W48734  15.637  23.596  30.971 -0.1281 -0.1223 -0.0546
 5797W        W48735  14.821  27.298   2.931  0.2685  0.0033  0.0508
 5798W        W48736  17.024  26.654   1.602 -0.0499  0.1322 -0.2776
 5799W        W48737  16.129  28.490   0.965 -0.2393  0.0929 -0.1229
 5800W        W48738  16.366  25.500  31.104  0.0129 -0.3543  0.0169
 5801W        W48739  17.064  27.446   1.069  0.1584 -0.0509  0.0397
 5802W        W48740  14.587  27.448   2.447 -0.0192 -0.1264 -0.0428
 5803W        W48741  17.108  27.212   2.862  0.2838  0.3538 -0.4402
 5804W        W48742  17.537  27.507   1.120  0.3657  0.1824  0.0107
 5805W        W48743  16.011  25.781   2.638  0.0094  0.3564  0.2730
 5806W        W48744  16.805  26.093  30.613 -0.1913  0.0641  0.0317
 5807W        W48745  16.484  25.820   1.749 -0.0210  0.1056  0.0411
 5808W        W48746  15.716  28.059   0.070  0.1813  0.1844  0.0503
 5809W        W48747  17.398  25.213   1.622 -0.0457 -0.3977 -0.0861
 5810W        W48748  16.149  24.381   1.675 -0.3380  0.0125  0.2112
 5811W        W48749  16.878  25.243   1.846 -0.0577 -0.3968 -0.2129
 5812W        W48750  18.681  25.762   2.675 -0.0691 -0.2319  0.2413
 5813W        W48751  17.137  25.330  30.527  0.4041 -0.0010  0.3002
 5814W        W48752  16.073  26.504   0.849  0.1635  0.0481  0.2692
 5815W        W48753  14.448  26.111  30.502 -0.0667  0.0833  0.1765
 5816W        W48754  16.591  24.834   0.663 -0.1043  0.2822 -0.4268
 5817W        W48755  15.446  26.856   4.060 -0.1806  0.0566 -0.2311
 5818W        W48756  15.583  27.896   1.802 -0.0993 -0.1353  0.2620
 5819W        W48757  15.573  27.782   4.298 -0.1983  0.2907 -0.0573
 5820W        W48758  17.132  27.016  31.687  0.0493 -0.0773 -0.2351
 5821W        W48759  16.943  26.730   1.053 -0.3048  0.1781 -0.0241
 5822W        W48760  15.958  26.382  30.516  0.1888 -0.1504 -0.0197
 5823W        W48761  16.323  27.373  31.506 -0.3708  0.1000 -0.0049
 5824W        W48762  16.525  27.762  31.404 -0.0681 -0.2683 -0.1342
 5825W        W48763  14.994  26.442   1.938 -0.0030  0.4981  0.2208
 5826W        W48764  16.115  27.184   2.239  0.1250 -0.3736 -0.2024
 5827W        W48765  16.250  27.870   1.010 -0.2103 -0.2342  0.1640
 5828W        W48766  16.219  28.438   2.281 -0.1950 -0.0902 -0.1174
 5829W        W48767  16.102  27.753   1.453 -0.0110  0.3698  0.0791
 5830W        W48768  17.776  25.047   2.834 -0.2217  0.3052 -0.0183
 5831W        W48769  15.093  27.979   2.037 -0.1679 -0.3065  0.0261
 5832W        W48770  15.725  26.184  31.428  0.3377  0.0245 -0.0540
 5833W        W48771  13.851  27.168   2.136  0.2450 -0.0641  0.1607
 5834W        W48772  16.650  25.247  31.395 -0.1182 -0.0792 -0.3262
 5835W        W48773  18.596  27.345  31.697  0.1293 -0.1023  0.1199
 5836W        W48774  15.858  25.444   1.471 -0.1220  0.0428  0.2680
 5837W        W48775  16.143  26.582   1.986  0.2509  0.0638 -0.3356
 5838W        W48776  16.165  29.784   1.795  0.1164  0.0115  0.0407
 5839W        W48777  16.262  27.952   2.874  0.1005  0.1521 -0.1435
 5840W        W48778  16.738  24.054  30.778  0.3742 -0.0608  0.0028
 5841W        W48779  17.894  26.252   4.059  0.0159 -0.2572 -0.0044
 5842W        W48780  16.528  27.904   3.280  0.0660  0.1225  0.2187
 5843W        W48781  15.151  27.442  31.466  0.0237 -0.1581  0.1419
 5844W        W48782  17.361  25.746   2.727  0.3515 -0.1269 -0.2536
 5845W        W48783  14.700  25.510   2.260 -0.2024  0.3582  0.0351
 5846W        W48784  14.253  27.659   1.347 -0.0115 -0.1184  0.0547
 5847W        W48785  17.098  28.355   0.745 -0.0264  0.1642 -0.1352
 5848W        W48786  15.319  25.924   0.554  0.2729  0.1917 -0.1636
 5849W        W48787  16.016  28.446   1.812  0.0575  0.0423  0.0766
 5850W        W48788  15.910  26.835   1.638 -0.2355  0.1524  0.0413
 5851W        W48789  17.657  27.992   3.147 -0.0630  0.1453  0.1863
 5852W        W48790  15.745  25.772  31.717 -0.0453 -0.3926 -0.1086
 5853W        W48791  15.740  25.717   0.324 -0.1915 -0.1702  0.0075
 5854W        W48792  16.601  25.360   0.412  0.1557 -0.0474  0.1962
 5855W        W48793  17.549  26.674   2.499  0.0409  0.0049  0.0635
 5856W        W48794  16.915  26.165   2.889  0.0615 -0.0940 -0.0904
 5857W        W48795  16.458  27.981   4.695 -0.1808  0.0963  0.1310
 5858W        W48796  16.842  25.733  31.591 -0.2470  0.0190 -0.1877
 5859W        W48797  18.066  28.303   0.406 -0.0503 -0.0201 -0.0201
 5860W        W48798  16.718  26.587   2.921  0.1305  0.1317  0.1233
 5861W        W48799  14.972  26.850   0.224 -0.3152  0.2460  0.0709
 5862W        W48800  15.291  26.005   1.857  0.1087  0.0323 -0.0514
 5863W        W48801  14.688  26.869   0.891  0.0917 -0.1697 -0.0091
 5864W        W48802  16.278  26.835   1.243  0.4409 -0.1884 -0.0243
 5865W        W48803  14.336  27.003   2.344 -0.0635  0.1530 -0.1899
 5866W        W48804  14.566  27.029   0.412  0.3449  0.1453  0.1786
 5867W        W48805  15.282  27.478   1.951  0.1843 -0.1289  0.1323
 5868W        W48806  18.827  23.722  31.941 -0.2032 -0.0075 -0.0318
 5869W        W48807  16.708  27.318  31.857  0.0746  0.0114  0.0233
 5870W        W48808  16.182  26.309  31.316  0.2217 -0.0304  0.0877
 5871W        W48809  18.194  25.563   3.982 -0.1856  0.0022  0.3263
 5872W        W48810  16.619  26.232  31.634  0.1438  0.0298 -0.1534
 5873W        W48811  16.648  26.165   3.846 -0.3171 -0.2977 -0.1256
 5874W        W48812  14.741  25.135   2.842 -0.0822 -0.2328 -0.1959
 5875W        W48813  17.502  26.676   1.676 -0.1895 -0.0508  0.0771
 5876W        W48814  14.132  25.553   3.025  0.2905 -0.0349  0.1106
 5877W        W48815  16.999  29.138   3.787  0.1894  0.2547  0.0465
 5878W        W48816  14.292  27.327   3.566  0.4574 -0.0484 -0.1863
 5879W        W48817  15.723  26.050   1.117 -0.0249  0.0662 -0.2121
 5880W        W48818  15.904  24.817  30.458  0.0801  0.1098  0.0727
 5881W        W48819  16.135  25.460   1.088  0.0903 -0.0302  0.0182
 5882W        W48820  17.241  27.170   1.669 -0.3782 -0.2306 -0.0632
 5883W        W48821  14.854  26.492   0.581 -0.0426  0.3095 -0.0704
 5884W        W48822  17.066  26.117  31.764 -0.2358  0.2350  0.3282
 5885W        W48823  14.614  26.687   2.102  0.1074 -0.0883  0.0893
 5886W        W48824  17.306  27.120   0.144 -0.0634  0.0133  0.0952
 5887W        W48825  16.763  26.626  30.346  0.0545  0.1039 -0.0021
 5888W        W48826  15.386  27.454   0.035  0.0137  0.1909 -0.1943
 5889W        W48827  15.396  25.117   3.417  0.2813  0.0129  0.1585
 5890W        W48828  16.824  27.445   0.383 -0.0325 -0.2922  0.1527
 5891W        W48829  16.206  25.909   0.362 -0.1402 -0.1026  0.2579
 5892W        W48830  16.987  25.979   0.524  0.1399  0.3057  0.2149
 5893W        W48831  18.005  26.710   2.289  0.2480 -0.2218  0.1958
 5894W        W48832  15.762  27.274   3.109  0.0635 -0.3811  0.0657
 5895W        W48833  14.544  25.467   1.595  0.4592  0.1054 -0.3099
 5896W        W48834  17.173  27.942   3.008 -0.1377  0.3351 -0.0891
 5897W        W48835  17.654  25.099  30.670 -0.1255 -0.1965 -0.1629
 5898W        W48836  17.442  26.148   0.777  0.0107 -0.0472 -0.0991
 5899W        W48837  17.460  26.604   0.294 -0.0069 -0.2670 -0.0096
 5900W        W48838  17.984  25.471  31.796  0.0208 -0.0693 -0.0186
 5901W        W48839  14.775  27.441   1.186 -0.1749  0.3691  0.0527
 5902W        W48840  17.952  27.361   3.156  0.1814  0.0640 -0.0101
 5903W        W48841  15.464  26.515  30.323 -0.0115 -0.1809 -0.2155
 5904W        W48842  15.628  26.453   1.940 -0.1203 -0.0605  0.1919
 5905W        W48843  15.437  26.890   0.140 -0.1710 -0.0160 -0.0332
 5906W        W48844  16.728  27.592   2.777  0.0752  0.2920 -0.0162
 5907W        W48845  15.794  26.208   0.536  0.0778  0.0771  0.1268
 5908W        W48846  15.422  26.959   2.665  0.0019 -0.1093  0.1935
 5909W        W48847  14.364  28.936   2.785  0.1376  0.1202  0.3408
 5910W        W48848  15.239  25.496  31.707  0.3294  0.4442  0.1722
 5911W        W48849  16.762  27.927   0.328  0.1581 -0.0599 -0.3075
 5912W        W48850  17.618  27.176   2.608  0.0019  0.0082  0.0611
 5913W        W48851  17.806  26.004   3.609  0.0825  0.1442  0.0441
 5914W        W48852  15.950  22.709  31.382  0.3684  0.3760  0.0913
 5915W        W48853  18.042  26.259   2.435  0.3692  0.0613  0.1178
 5916W        W48854  14.759  27.527   1.961  0.0596  0.0769  0.2934
 5917W        W48855  17.654  25.136  31.622  0.3727  0.0915  0.0025
 5918W        W48856  14.547  28.640   3.212 -0.0037 -0.2433  0.1416
 5919W        W48857  14.339  27.816   2.718  0.2590  0.1322  0.0775
 5920W        W48858  15.908  27.121   1.211 -0.0279  0.1895  0.1705
 5921W        W48859  16.866  26.892   2.433  0.0216  0.0130 -0.1370
 5922W        W48860  16.618  25.922   0.086  0.2208  0.0003  0.0603
 5923W        W48861  15.627  26.722   1.132 -0.0630 -0.2287 -0.0183
 5924W        W48862  17.264  26.565   2.940 -0.1166  0.3008  0.1806
 5925W        W48863  16.521  28.383   3.270 -0.1751 -0.0737 -0.1431
 5926W        W48864  15.627  27.584   1.302  0.2448 -0.0167  0.2172
 5927W        W48865  15.098  28.260   2.587 -0.0893 -0.2112 -0.3158
 5928W        W48866  17.267  26.550  31.821  0.0608 -0.1344 -0.0166
 5929W        W48867  14.876  25.929  31.350 -0.0114 -0.0045  0.0998
 5930W        W48868  15.527  25.809   2.804 -0.0526 -0.0168 -0.0825
 5931W        W48869  15.685  26.650   2.967  0.1160  0.3447 -0.1873
 5932W        W48870  15.439  27.197   0.954 -0.1866 -0.0256 -0.3353
 5933W        W48871  15.911  24.474   0.385 -0.3481 -0.1293  0.2542
 5934W        W48872  16.194  27.087  31.921 -0.3431 -0.1202  0.2066
 5935W        W48873  14.729  27.744   4.194 -0.0150  0.0177  0.0567
 5936W        W48874  15.141  28.066   3.461 -0.0933  0.0419  0.0403
 5937W        W48875  15.790  28.955  31.360 -0.0334  0.2490 -0.3118
 5938W        W48876  17.830  27.684   1.760 -0.0632 -0.0417  0.1543
 5939W        W48877  17.473  27.376  31.663  0.0183 -0.1323 -0.0229
 5940W        W48878  17.410  28.877   0.942  0.0441  0.3620  0.2179
 5941W        W48879  16.337  25.915  30.882  0.0495 -0.1816 -0.1739
 5942W        W48880  14.058  26.849   0.918  0.1731  0.1095  0.0356
 5943W        W48881  15.491  27.823  31.668 -0.1324  0.1130 -0.0172
 5944W        W48882  17.553  29.244   1.294 -0.1081 -0.2155  0.1978
 5945W        W48883  14.547  28.883   2.265  0.1160 -0.1189 -0.4714
 5946W        W48884  18.204  28.025   2.007 -0.0737  0.1659  0.1632
 5947W        W48885  18.342  25.208  30.655 -0.0966 -0.0908 -0.0989
 5948W        W48886  16.485  26.506   0.102  0.3562 -0.0572 -0.0483
 5949W        W48887  17.813  25.718  29.869 -0.3120  0.0290  0.1843
 5950W        W48888  16.620  28.852   3.532 -0.0267 -0.0088 -0.0674
 5951W        W48889  14.448  26.641   1.294 -0.2930 -0.2968  0.0658
 5952W        W48890  15.803  24.632  31.060 -0.1034 -0.1522 -0.1749
 5953W        W48891  14.842  27.014   2.521 -0.0636 -0.1815 -0.3888
 5954W        W48892  17.953  25.835   4.524 -0.0368 -0.1993  0.0154
 5955W        W48893  16.030  27.943   3.371 -0.4242  0.1549  0.0713
 5956W        W48894  17.648  27.701   0.177  0.2679  0.2389 -0.0361
 5957W        W48895  15.987  27.832  30.623 -0.0048 -0.0730  0.0986
 5958W        W48896  16.089  26.747   0.347  0.4632  0.0990  0.0157
 5959W        W48897  17.823  25.053   3.342  0.1907 -0.3425 -0.0970
 5960W        W48898  15.699  26.785   0.628 -0.2566 -0.0815  0.2215
 5961W        W48899  16.519  25.797   0.676 -0.0120  0.3725  0.0849
 5962W        W48900  15.575  28.486   0.861 -0.2118  0.0191  0.0471
 5963W        W48901  15.656  28.472   2.229 -0.1138 -0.0095 -0.3287
 5964W        W48902  15.509  28.468   2.740  0.2033  0.1318 -0.0172
 5965W        W48903  13.872  27.804  31.649  0.0366 -0.1902 -0.1075
 5966W        W48904  18.314  26.040  30.886 -0.1203 -0.4532  0.2119
 5967W        W48905  16.071  26.144   3.685 -0.0892 -0.2180  0.0643
 5968W        W48906  18.195  25.314   2.105 -0.1317 -0.0229 -0.0126
 5969W        W48907  14.874  26.408   2.468 -0.3082  0.0464 -0.1901
 5970W        W48908  16.942  26.385   0.194 -0.1173  0.0455  0.2597
 5971W        W48909  16.777  27.143   1.442 -0.3593  0.0946  0.0976
 5972W        W48910  15.033  27.242   1.592  0.0285 -0.4344  0.0340
 5973W        W48911  17.027  26.302  31.334 -0.0964  0.0253 -0.0895
 5974W        W48912  16.822  26.705   3.900 -0.1443 -0.0441  0.1187
 5975W        W48913  16.191  26.680  31.654 -0.1160  0.0907 -0.5778
 5976W        W48914  16.618  29.546   1.606 -0.1211 -0.2343  0.0579
 5977W        W48915  15.699  25.165   1.044  0.0857  0.0566  0.1498
 5978W        W48916  16.081  24.970   0.714  0.1008 -0.0688 -0.2305
 5979W        W48917  15.350  27.384   0.504  0.0188 -0.0220  0.2581
 5980W        W48918  16.094  26.894   3.156 -0.0594  0.1553 -0.3762
 5981W        W48919  16.374  28.525   4.103  0.0574 -0.2162 -0.3007
 5982W        W48920  14.209  26.359  30.905 -0.2432 -0.1384  0.2487
 5983W        W48921  17.134  27.591   0.032 -0.0328 -0.2111 -0.0812
 5984W        W48922  16.364  27.027   1.763  0.1930 -0.1025  0.1576
 5985W        W48923  15.349  26.360   0.864 -0.0320 -0.1067 -0.2387
 5986W        W48924  17.686  25.843  30.909  0.0496 -0.1611 -0.0766
 5987W        W48925  18.316  27.182   1.526  0.3531  0.3394 -0.0582
 5988W        W48926  14.006  25.839   3.421  0.0003 -0.1223 -0.1060
 5989W        W48927  17.587  28.661   1.974  0.1135  0.1211  0.1392
 5990W        W48928  18.697  27.156   1.913 -0.0532  0.0275  0.4941
 5991W        W48929  16.901  25.438  30.984  0.1948 -0.0219 -0.0814
 5992W        W48930  15.233  25.384   0.647  0.1434 -0.1070 -0.1522
 5993W        W48931  15.224  27.692   1.005  0.1810 -0.0034 -0.1459
 5994W        W48932  16.884  26.133   1.495 -0.1672 -0.0245 -0.3577
 5995W        W48933  17.695  25.521   3.105 -0.0826  0.0731 -0.1411
 5996W        W48934  16.271  28.262  30.358  0.2291 -0.0211 -0.3259
 5997W        W48935  17.608  26.203   2.664  0.1387 -0.1195  0.1098
 5998W        W48936  17.405  27.688   2.532 -0.0446 -0.0154 -0.2373
 5999W        W48937  14.977  29.197   4.025  0.0048  0.1182 -0.1940
 6000W        W48938  14.227  27.519  31.439  0.1694 -0.0780  0.0400
 6001W        W48939  16.481  27.033   3.485 -0.3124  0.0131 -0.0304
 6002W        W48940  16.834  27.814   0.929  0.1543  0.2591 -0.0561
 6003W        W48941  15.468  27.939   0.607  0.0585 -0.0071 -0.1660
 6004W        W48942  17.299  27.676   1.535  0.1836 -0.2639  0.2125
 6005W        W48943  16.122  27.089   0.761 -0.0008  0.2459  0.1669
 6006W        W48944  18.791  27.800   1.791  0.4233 -0.1657  0.4639
 6007W        W48945  15.483  25.361   1.931  0.1675  0.0392  0.2397
 6008W        W48946  18.428  24.512  31.891  0.0950 -0.1615 -0.0351
 6009W        W48947  16.378  25.641  31.637 -0.1630 -0.0256  0.1237
 6010W        W48948  15.283  28.000   3.015 -0.0965  0.1467  0.0331
 6011W        W48949  14.941  27.728  31.807 -0.0858  0.5552 -0.2412
 6012W        W48950  16.251  26.875  30.469 -0.1228  0.2995  0.1808
 6013W        W48951  14.513  27.338  31.864 -0.0369 -0.1498 -0.2424
 6014W        W48952  16.578  26.468   2.472  0.3240  0.1313 -0.0786
 6015W        W48953  15.810  26.182   2.827 -0.1893 -0.2821 -0.1580
 6016W        W48954  15.195  26.836   0.697 -0.0129  0.0370  0.1889
 6017W        W48955  14.798  24.865   0.074 -0.2548  0.1756 -0.0934
 6018W        W48956  16.898  27.379  31.387  0.2022  0.1197 -0.0793
 6019W        W48957  15.467  26.106   0.138 -0.0719  0.0265  0.0234
 6020W        W48958  14.218  26.628   0.345 -0.3462 -0.1393  0.2275
 6021W        W48959  17.115  27.840  31.512 -0.0232 -0.0596 -0.1583
 6022W        W48960  19.374  27.516   0.389 -0.3412 -0.0224  0.2011
 6023W        W48961  16.219  25.966   1.342 -0.3774  0.4459  0.1126
 6024W        W48962  17.511  25.955   3.204  0.0251  0.1188 -0.0914
 6025W        W48963  13.615  28.591  30.391 -0.3595 -0.0359 -0.0563
 6026W        W48964  16.151  25.868   3.202  0.0862 -0.0479 -0.2770
 6027W        W48965  16.424  26.012   2.767 -0.4160 -0.5165  0.1542
 6028W        W48966  15.251  26.018  31.648 -0.0220 -0.0474  0.1559
 6029W        W48967  17.296  26.353   1.269 -0.2633 -0.1298 -0.0305
 6030W        W48968  17.293  27.981   1.067  0.0996  0.2642 -0.2965
 6031W        W48969  17.947  28.639   0.809 -0.1074 -0.3374 -0.2588
 6032W        W48970  16.421  28.519   2.736  0.1372  0.0687 -0.2089
 6033W        W48971  15.956  28.428   3.562 -0.1595 -0.2612 -0.2691
 6034W        W48972  15.015  25.643   1.747  0.3185  0.0665 -0.0589
 6035W        W48973  16.133  25.490   0.073 -0.0257 -0.0537  0.1262
 6036W        W48974  15.815  26.712   2.346 -0.4008  0.0595  0.0165
 6037W        W48975  17.698  27.101  31.271 -0.1496  0.2022  0.1855
 6038W        W48976  17.557  26.322   2.157 -0.1579  0.1873  0.3026
 6039W        W48977  17.411  25.422  30.963 -0.3603  0.1810 -0.1022
 6040W        W48978  15.240  27.125   3.071  0.0498  0.2269  0.1339
 6041W        W48979  14.364  27.577   3.168  0.0523 -0.3653 -0.0615
 6042W        W48980  16.624  27.348   2.358 -0.2643 -0.0303 -0.2357
 6043W        W48981  16.003  26.130   1.792  0.2498  0.0165  0.0865
 6044W        W48982  16.952  24.107  31.562 -0.1053 -0.0723 -0.3028
 6045W        W48983  16.828  26.674  31.588  0.1863  0.1001 -0.0879
 6046W        W48984  15.297  26.786   1.741 -0.2064 -0.1823  0.2067
 6047W        W48985  15.364  26.492   0.378 -0.0750  0.1389 -0.2164
 6048W        W48986  14.951  27.067   2.038 -0.1597 -0.1696 -0.2257
 6049W        W48987  16.944  27.900   2.319 -0.1049  0.2633  0.1141
 6050W        W48988  17.726  26.799   3.997 -0.4173  0.2252  0.0067
 6051W        W48989  15.834  26.106  30.963 -0.1704 -0.1878 -0.1795
 6052W        W48990  17.448  26.642  31.347  0.0273 -0.0307  0.2907
 6053W        W48991  15.930  28.656   2.675 -0.0888 -0.0031  0.2022
 6054W        W48992  16.937  28.123   3.377  0.0823 -0.2204 -0.1747
 6055W        W48993  17.086  27.778   3.668 -0.2725  0.3412  0.0916
 6056W        W48994  16.832  26.888   0.071  0.2160  0.0604 -0.0102
 6057W        W48995  14.564  25.737   3.264 -0.2981  0.0258 -0.0974
 6058W        W48996  14.909  27.433   0.230 -0.0619 -0.1242  0.3880
 6059W        W48997  14.956  25.904   2.230 -0.4022 -0.1112  0.0766
 6060W        W48998  18.245  25.901   0.687 -0.2053  0.1026  0.1560
 6061W        W48999  13.754  25.931   1.560  0.0642 -0.2435 -0.2276
 6062W        W49000  17.269  24.619  31.511  0.2223  0.2342 -0.1085
 6063W        W49001  15.857  27.606   2.396  0.1621 -0.2485  0.1990
 6064W        W49002  17.271  27.565   0.555  0.1346  0.2596  0.2456
 6065W        W49003  15.690  27.648   5.955 -0.0746 -0.1613  0.0474
 6066W        W49004  15.925  26.434   3.299  0.0930  0.2346  0.0208
 6067W        W49005  17.995  26.576   3.633 -0.0067  0.0212 -0.0534
 6068W        W49006  16.955  26.875   3.406  0.1324  0.1316 -0.1038
 6069W        W49007  14.295  27.129   5.605  0.1143  0.0019 -0.0350
 6070W        W49008  16.753  28.486   4.576 -0.2359 -0.0403  0.0670
 6071W        W49009  15.105  26.910   5.618 -0.2456  0.0190 -0.0630
 6072W        W49010  17.298  26.522   6.367  0.0550  0.0944 -0.0465
 6073W        W49011  17.495  28.545   6.631 -0.1491  0.1983 -0.0845
 6074W        W49012  17.620  26.973   3.042  0.1710 -0.1221 -0.0448
 6075W        W49013  15.881  27.306   6.346  0.1767  0.0279  0.1374
 6076W        W49014  16.302  29.044   5.903 -0.0048 -0.2057 -0.2062
 6077W        W49015  15.222  25.221   3.879 -0.0119 -0.2014  0.2523
 6078W        W49016  15.001  25.771   6.010  0.4642  0.2327  0.0761
 6079W        W49017  16.870  26.794   7.210 -0.0844  0.2160 -0.3775
 6080W        W49018  14.717  27.253   4.412  0.1482  0.2518  0.1274
 6081W        W49019  16.294  27.009   6.470  0.0717  0.1356 -0.3342
 6082W        W49020  15.580  26.591   4.502 -0.1256  0.2311 -0.3243
 6083W        W49021  17.012  27.777   4.572  0.0442 -0.3402  0.0987
 6084W        W49022  16.652  27.146   6.125 -0.1354  0.3182 -0.0152
 6085W        W49023  16.184  27.043   7.273  0.1892  0.0439  0.1532
 6086W        W49024  15.826  28.131   4.567  0.0486 -0.0079 -0.0402
 6087W        W49025  15.272  26.741   2.230 -0.0453 -0.4712 -0.2050
 6088W        W49026  14.496  26.676   5.031 -0.0214  0.0072 -0.2608
 6089W        W49027  16.534  27.601   6.198 -0.1672  0.0274  0.1750
 6090W        W49028  17.048  25.313   4.247  0.0353  0.2122  0.0527
 6091W        W49029  17.553  26.129   7.461  0.1731 -0.3940  0.0464
 6092W        W49030  17.520  26.774   5.401  0.2432  0.1768 -0.1290
 6093W        W49031  16.809  27.762   5.027 -0.0848 -0.1221  0.0404
 6094W        W49032  18.630  27.283   7.232 -0.2417 -0.2200  0.3573
 6095W        W49033  14.268  27.435   4.620  0.0699 -0.0388 -0.0573
 6096W        W49034  15.755  28.658   4.651  0.1030  0.1216 -0.2633
 6097W        W49035  15.310  28.122   5.554 -0.1309  0.1558 -0.2124
 6098W        W49036  17.486  27.305   3.983  0.2293  0.2201 -0.0986
 6099W        W49037  18.108  28.531   6.638  0.0094 -0.2459 -0.1220
 6100W        W49038  17.012  29.572   6.716  0.0980 -0.0632 -0.3318
 6101W        W49039  14.105  28.935   3.653  0.5367  0.0345 -0.0755
 6102W        W49040  16.597  29.043   7.684  0.0006  0.1027  0.0091
 6103W        W49041  16.088  28.646   5.664 -0.2045 -0.2979  0.0618
 6104W        W49042  15.483  28.682   5.941 -0.3834  0.1726  0.2361
 6105W        W49043  16.498  26.168   4.377 -0.4583  0.0062 -0.2558
 6106W        W49044  15.701  28.741   3.121 -0.3154 -0.1232  0.1196
 6107W        W49045  17.111  27.442   5.865  0.0312 -0.0473 -0.0740
 6108W        W49046  14.454  27.174   7.570 -0.5157  0.1811  0.0324
 6109W        W49047  14.167  28.046   5.426  0.0542  0.3059  0.0002
 6110W        W49048  17.786  25.716   7.609 -0.0261  0.0430  0.0047
 6111W        W49049  15.508  28.624   3.691  0.3840  0.0757 -0.0266
 6112W        W49050  16.983  25.907   4.110 -0.3019 -0.0284 -0.1279
 6113W        W49051  15.896  27.088   2.697  0.3989 -0.0444  0.1221
 6114W        W49052  17.115  24.987   4.760 -0.0388  0.1085  0.0771
 6115W        W49053  15.767  25.841   5.485 -0.0429  0.3682  0.2633
 6116W        W49054  16.475  27.349   5.639  0.2133 -0.0291  0.1745
 6117W        W49055  16.871  26.658   6.020  0.2008  0.1939 -0.2439
 6118W        W49056  17.703  25.762   6.240  0.1986 -0.0976 -0.2059
 6119W        W49057  17.329  26.136   4.624  0.0110  0.0496 -0.1017
 6120W        W49058  17.244  25.566   6.276  0.1565  0.0203 -0.0155
 6121W        W49059  15.245  27.885   7.071  0.0464  0.2331 -0.0021
 6122W        W49060  13.670  25.599   6.276 -0.1619 -0.2238 -0.0202
 6123W        W49061  18.700  27.767   4.138 -0.0807  0.0336 -0.0095
 6124W        W49062  17.633  28.151   5.616 -0.0030  0.2679  0.0229
 6125W        W49063  17.357  26.448   3.847  0.1388  0.0803  0.1007
 6126W        W49064  13.856  27.003   4.597 -0.1989 -0.1061  0.0941
 6127W        W49065  14.535  25.661   7.747  0.0476 -0.0856  0.0398
 6128W        W49066  14.034  27.419   6.776  0.4684  0.2597 -0.0580
 6129W        W49067  15.960  25.331   2.889 -0.1031 -0.2577 -0.2178
 6130W        W49068  18.649  28.242   6.874  0.0511 -0.2627  0.0380
 6131W        W49069  14.429  29.523   6.097 -0.2490 -0.2720  0.0651
 6132W        W49070  17.992  24.412   5.453 -0.2046  0.0731 -0.0179
 6133W        W49071  16.377  26.677   5.817 -0.2025  0.1607  0.1524
 6134W        W49072  17.545  26.799   6.707  0.1495 -0.2992  0.3307
 6135W        W49073  15.998  28.333   3.017  0.2949  0.2453 -0.4068
 6136W        W49074  17.914  24.805   4.237 -0.1499 -0.1038 -0.0876
 6137W        W49075  16.976  24.721   6.192 -0.1017 -0.2941 -0.1544
 6138W        W49076  16.797  27.439   3.265 -0.0325  0.0741 -0.0173
 6139W        W49077  17.234  27.036   5.073  0.0142 -0.0047  0.1993
 6140W        W49078  17.525  28.202   7.105  0.1425 -0.0296 -0.2997
 6141W        W49079  18.292  25.987   3.647  0.1823  0.1680  0.2708
 6142W        W49080  15.600  28.055   3.765 -0.1751 -0.0494  0.1171
 6143W        W49081  15.417  26.223   5.431  0.1468 -0.2296 -0.0952
 6144W        W49082  15.966  27.163   6.794  0.0112 -0.1054 -0.0093
 6145W        W49083  15.146  28.791   3.286  0.0513 -0.0637  0.1571
 6146W        W49084  13.392  27.139   3.884 -0.2366 -0.1111  0.1413
 6147W        W49085  16.135  26.509   4.569 -0.1608  0.1535  0.4323
 6148W        W49086  14.543  26.301   6.019 -0.1157 -0.2563  0.0784
 6149W        W49087  17.363  26.636   5.895  0.0708  0.1076  0.1929
 6150W        W49088  18.275  24.831   4.646 -0.0454 -0.0165  0.3061
 6151W        W49089  15.470  26.522   6.312 -0.0835 -0.1232 -0.3239
 6152W        W49090  18.127  24.305   4.989 -0.1349 -0.0404  0.0411
 6153W        W49091  15.037  25.867   4.681 -0.3176  0.0414  0.0659
 6154W        W49092  17.313  27.822   4.113  0.0386 -0.1993 -0.0505
 6155W        W49093  17.026  26.379   3.377 -0.0070  0.0679 -0.0948
 6156W        W49094  18.177  28.240   4.578  0.1821  0.4380  0.1916
 6157W        W49095  13.729  27.024   5.657 -0.0080  0.0759 -0.0390
 6158W        W49096  14.240  26.257   4.984 -0.0775  0.2096 -0.0637
 6159W        W49097  15.040  24.670   6.057  0.0840  0.0297 -0.2204
 6160W        W49098  14.437  25.506   6.151  0.3747  0.0379  0.2155
 6161W        W49099  17.470  25.877   6.997 -0.1948 -0.0317  0.2282
 6162W        W49100  14.762  26.246   5.040 -0.1782  0.0416 -0.2631
 6163W        W49101  16.590  25.162   4.840 -0.0525 -0.0132 -0.3392
 6164W        W49102  14.397  26.883   4.463  0.0251 -0.1130  0.0993
 6165W        W49103  14.916  25.782   5.234 -0.2959  0.0281 -0.1863
 6166W        W49104  17.922  26.318   8.113  0.1661 -0.1914 -0.1923
 6167W        W49105  16.540  28.868   4.824 -0.0161 -0.3074  0.0129
 6168W        W49106  17.537  27.231   7.066  0.0198  0.0593 -0.0672
 6169W        W49107  17.591  29.086   4.619  0.0852  0.0837 -0.0834
 6170W        W49108  15.464  26.594   5.823  0.0256  0.0805 -0.1061
 6171W        W49109  13.993  25.897   4.662 -0.2292  0.3348 -0.0305
 6172W        W49110  14.923  28.474   6.611 -0.0527 -0.0060  0.2709
 6173W        W49111  17.443  26.129   5.947 -0.2515 -0.0188  0.1903
 6174W        W49112  15.703  25.312   3.978  0.0387  0.0801 -0.2521
 6175W        W49113  17.955  28.274   5.113 -0.2896 -0.0904 -0.0419
 6176W        W49114  15.635  27.267   3.901 -0.1960 -0.1987  0.0088
 6177W        W49115  15.030  27.065   6.647  0.1850  0.1573 -0.0652
 6178W        W49116  16.890  25.442   8.233  0.0935 -0.3212 -0.0398
 6179W        W49117  18.294  26.525   6.189  0.0752  0.2332 -0.0507
 6180W        W49118  17.013  26.433   5.544 -0.0206 -0.0148  0.2382
 6181W        W49119  14.833  25.386   3.436  0.0570 -0.0387  0.0227
 6182W        W49120  16.402  27.872   5.295  0.1414  0.0534  0.2524
 6183W        W49121  15.996  29.123   2.679  0.0898 -0.2616 -0.1208
 6184W        W49122  14.066  26.699   5.408 -0.3333  0.2493 -0.0444
 6185W        W49123  16.593  27.546   4.508 -0.0412 -0.0212  0.1456
 6186W        W49124  18.317  24.740   5.211 -0.1051  0.2485 -0.2345
 6187W        W49125  14.158  26.787   7.722 -0.0874  0.1005  0.0419
 6188W        W49126  16.725  26.857   6.623  0.1230  0.0648 -0.0505
 6189W        W49127  14.785  27.176   3.443  0.0558 -0.0044 -0.0548
 6190W        W49128  14.648  29.034   7.598 -0.1405  0.1504  0.0603
 6191W        W49129  17.349  24.730   5.190 -0.0480  0.0058  0.2252
 6192W        W49130  17.543  25.508   4.186  0.1100  0.1111 -0.1016
 6193W        W49131  16.465  27.410   7.473 -0.1546 -0.4781  0.0891
 6194W        W49132  18.693  26.049   5.826 -0.0979 -0.2180 -0.1522
 6195W        W49133  16.243  26.476   2.845 -0.3974 -0.0829 -0.1063
 6196W        W49134  16.110  25.333   4.390 -0.0115  0.2580 -0.0108
 6197W        W49135  14.779  28.245   7.957 -0.0995 -0.1028 -0.2267
 6198W        W49136  18.184  27.510   5.053 -0.0472 -0.0232  0.0180
 6199W        W49137  16.660  28.095   6.145 -0.0973 -0.0275  0.0250
 6200W        W49138  15.344  26.562   3.376 -0.0880  0.1138 -0.0931
 6201W        W49139  17.951  28.757   4.362  0.0462 -0.2802 -0.2727
 6202W        W49140  13.853  27.715   4.753  0.2298 -0.1041  0.0096
 6203W        W49141  17.303  27.750   7.197  0.0639 -0.2445  0.1014
 6204W        W49142  18.031  27.793   3.436  0.0010 -0.3063 -0.1783
 6205W        W49143  17.190  25.912   5.629 -0.1017 -0.0713  0.0662
 6206W        W49144  15.211  27.458   4.607 -0.0311  0.3521  0.3635
 6207W        W49145  17.409  25.478   5.505 -0.2051  0.1556 -0.0393
 6208W        W49146  15.428  28.301   4.176 -0.1087  0.2797 -0.3401
 6209W        W49147  16.766  25.845   6.517  0.0196  0.0344 -0.0307
 6210W        W49148  15.649  27.027   6.064 -0.2822 -0.1533 -0.1963
 6211W        W49149  15.492  26.021   6.498  0.0481  0.2822 -0.1904
 6212W        W49150  18.334  27.224   8.544  0.2058  0.1814  0.0459
 6213W        W49151  17.461  25.964   4.188 -0.0081 -0.0208  0.1596
 6214W        W49152  17.726  26.320   6.913  0.1154  0.2158 -0.0157
 6215W        W49153  15.938  27.687   3.793  0.2928  0.2734 -0.4448
 6216W        W49154  16.903  25.771   7.339  0.0545 -0.2134 -0.2573
 6217W        W49155  14.465  27.709   6.632 -0.1710 -0.2894 -0.0481
 6218W        W49156  14.816  28.307   5.847 -0.2701 -0.1452  0.2138
 6219W        W49157  17.456  28.007   7.613  0.3985  0.0040  0.3910
 6220W        W49158  17.485  26.515   4.414 -0.0465 -0.2339 -0.0894
 6221W        W49159  15.075  26.311   8.306  0.2954 -0.0654  0.0914
 6222W        W49160  16.332  26.534   3.993  0.1998 -0.0564 -0.0310
 6223W        W49161  15.393  29.565   3.693  0.0943  0.1135 -0.0509
 6224W        W49162  15.967  28.164   4.067 -0.4736  0.4986  0.0981
 6225W        W49163  16.398  25.185   6.599  0.0889  0.0551 -0.1665
 6226W        W49164  16.501  28.242   5.652 -0.1927 -0.0002  0.4193
 6227W        W49165  15.258  29.038   2.893 -0.0865 -0.1825 -0.2947
 6228W        W49166  16.053  27.623   7.834 -0.0519  0.0875 -0.1577
 6229W        W49167  14.309  27.965   4.417  0.0939 -0.0953  0.1289
 6230W        W49168  17.255  24.215   6.002  0.1437  0.0406 -0.0544
 6231W        W49169  15.118  27.839   5.080 -0.2947  0.0018 -0.0019
 6232W        W49170  16.175  25.833   4.408  0.2012 -0.3918  0.2195
 6233W        W49171  14.244  26.820   3.702  0.2600 -0.3955  0.1740
 6234W        W49172  17.447  25.217   5.035 -0.5241  0.0057  0.1571
 6235W        W49173  17.932  28.664   3.837  0.2172 -0.2233 -0.0540
 6236W        W49174  16.171  27.159   5.333  0.0641 -0.3150  0.0888
 6237W        W49175  15.685  27.174   4.383 -0.1802 -0.2202 -0.2042
 6238W        W49176  14.674  27.989   5.401  0.1268 -0.1264 -0.1561
 6239W        W49177  17.513  27.298   5.500 -0.5492 -0.0145  0.4136
 6240W        W49178  16.629  25.590   4.184  0.3710  0.0464  0.1421
 6241W        W49179  17.516  27.145   6.008 -0.0707 -0.2611  0.1170
 6242W        W49180  16.753  27.418   6.646 -0.2605  0.1391  0.1522
 6243W        W49181  14.306  28.188   3.099  0.3866 -0.0276 -0.2587
 6244W        W49182  18.494  25.927   6.986 -0.2524  0.0866  0.2422
 6245W        W49183  16.291  26.149   4.844 -0.1065  0.0661 -0.3763
 6246W        W49184  13.280  27.622   3.962 -0.1290  0.1456 -0.2190
 6247W        W49185  17.401  28.467   5.916  0.2314 -0.3428 -0.2821
 6248W        W49186  14.537  27.184   3.979 -0.0968 -0.2173  0.2380
 6249W        W49187  16.310  27.493   4.951 -0.1570 -0.0584  0.0077
 6250W        W49188  14.987  26.271   7.267  0.0120  0.0074  0.2239
 6251W        W49189  18.837  26.389   6.166 -0.2163  0.1005  0.1972
 6252W        W49190  14.832  26.745   4.681 -0.0225  0.1946  0.3233
 6253W        W49191  15.106  25.826   4.094 -0.5356 -0.1024  0.1144
 6254W        W49192  17.432  25.770   5.124 -0.3017  0.2735  0.3179
 6255W        W49193  17.221  27.768   5.409  0.0573  0.2405  0.2549
 6256W        W49194  15.917  26.585   6.491  0.0594 -0.1668 -0.1084
 6257W        W49195  15.145  28.585   5.572 -0.0181 -0.3048 -0.1221
 6258W        W49196  17.318  26.045   6.462 -0.1898  0.1249 -0.1211
 6259W        W49197  17.325  28.222   3.842 -0.0825 -0.0672 -0.1611
 6260W        W49198  17.257  26.777   7.875 -0.0851  0.0079 -0.0579
 6261W        W49199  15.645  26.925   3.468 -0.0157 -0.1799  0.1745
 6262W        W49200  15.429  27.475   6.403  0.0798 -0.0818  0.2486
 6263W        W49201  16.763  27.784   5.649  0.0527 -0.0788  0.1054
 6264W        W49202  16.477  26.680   7.491  0.1246 -0.0281 -0.3086
 6265W        W49203  15.249  27.740   6.056 -0.0011 -0.0814  0.0400
 6266W        W49204  15.988  27.619   5.447  0.1129  0.2708  0.3467
 6267W        W49205  16.036  28.632   5.148  0.2670  0.0100  0.0848
 6268W        W49206  16.797  24.545   2.916 -0.2109 -0.0807 -0.1950
 6269W        W49207  17.037  26.376   4.222 -0.2092 -0.0448  0.0191
 6270W        W49208  16.394  25.659   4.868 -0.0952  0.2150 -0.1440
 6271W        W49209  17.921  25.262   7.824 -0.2915 -0.4031  0.1536
 6272W        W49210  16.614  27.050   2.962  0.0314  0.1871  0.0745
 6273W        W49211  16.964  25.981   6.906  0.3354  0.1045 -0.3046
 6274W        W49212  15.356  25.594   6.347  0.3918 -0.3649  0.0121
 6275W        W49213  17.571  27.701   5.770  0.3354 -0.0895  0.1246
 6276W        W49214  14.997  26.545   5.992 -0.0051 -0.0540 -0.2360
 6277W        W49215  17.563  29.107   7.150  0.0811 -0.1319  0.1272
 6278W        W49216  14.522  26.011   7.339 -0.1055  0.2565  0.1809
 6279W        W49217  17.570  26.180   5.454 -0.1307  0.0223 -0.1082
 6280W        W49218  14.997  24.519   4.028 -0.2532 -0.0223 -0.0109
 6281W        W49219  14.971  28.679   6.132 -0.1122  0.3984  0.3842
 6282W        W49220  18.150  26.671   6.646 -0.0111  0.2397 -0.1134
 6283W        W49221  16.022  27.582   4.526 -0.2671  0.0048  0.1706
 6284W        W49222  18.526  27.371   5.448  0.1188 -0.0251  0.4951
 6285W        W49223  15.116  27.016   6.197  0.2367  0.1715  0.0670
 6286W        W49224  16.828  25.841   4.598  0.0322  0.2656 -0.0988
 6287W        W49225  16.585  26.746   4.477 -0.1668 -0.0989  0.1786
 6288W        W49226  15.238  27.339   5.807  0.0301 -0.1311 -0.1582
 6289W        W49227  15.358  26.573   7.333 -0.1855  0.0595  0.0421
 6290W        W49228  17.987  27.310   6.103  0.2089  0.5175 -0.1349
 6291W        W49229  16.055  24.754   5.301 -0.1848 -0.1619 -0.3156
 6292W        W49230  16.421  26.532   6.336  0.4468  0.0323  0.2028
 6293W        W49231  16.809  25.327   6.419 -0.0743 -0.0109  0.0814
 6294W        W49232  14.558  26.698   5.714  0.2217 -0.0449  0.1342
 6295W        W49233  14.008  25.921   6.115 -0.0467 -0.1286  0.0756
 6296W        W49234  18.888  28.968   7.327  0.1667  0.0155  0.0746
 6297W        W49235  18.349  25.458   4.607 -0.0161  0.1151 -0.1151
 6298W        W49236  17.992  24.713   5.915  0.1675  0.0000 -0.0016
 6299W        W49237  18.349  26.998   5.796  0.2880  0.0936 -0.3161
 6300W        W49238  16.263  27.324   4.030  0.2274  0.0929 -0.2976
 6301W        W49239  14.780  26.218   6.800  0.1340  0.3070 -0.1917
 6302W        W49240  16.547  27.674   7.039  0.1715 -0.0230  0.3812
 6303W        W49241  15.477  24.576   3.276 -0.2675  0.0081 -0.0013
 6304W        W49242  17.049  26.266   7.376  0.2651 -0.3068  0.2782
 6305W        W49243  17.195  26.899   4.124  0.0889  0.0754 -0.1434
 6306W        W49244  18.223  25.954   6.038  0.3117  0.1828 -0.1206
 6307W        W49245  16.416  26.411   5.333 -0.0577  0.1380 -0.3001
 6308W        W49246  15.059  25.409   4.495  0.1208 -0.2621  0.1319
 6309W        W49247  14.299  28.136   8.918 -0.3272 -0.0135  0.1700
 6310W        W49248  16.167  25.162   3.360 -0.0710  0.1726 -0.1841
 6311W        W49249  15.706  27.809   6.659 -0.0138 -0.0822  0.0187
 6312W        W49250  16.285  27.521   6.674 -0.0298 -0.1847 -0.0453
 6313W        W49251  17.449  27.186   8.038 -0.2540 -0.1748  0.0048
 6314W        W49252  16.767  24.649   4.466  0.1686  0.2712  0.2537
 6315W        W49253  17.464  26.632   7.248  0.0295 -0.0859 -0.1122
 6316W        W49254  14.986  28.164   4.017  0.1373  0.0492 -0.2050
 6317W        W49255  16.895  25.950   5.150  0.1103  0.0279 -0.1918
 6318W        W49256  16.607  28.590   6.083 -0.2462 -0.0424  0.1217
 6319W        W49257  14.615  28.541   7.622  0.0653  0.1712 -0.0041
 6320W        W49258  16.280  27.136   4.550  0.1193 -0.0360 -0.4507
 6321W        W49259  16.870  26.346   6.553  0.1305 -0.0083 -0.1083
 6322W        W49260  17.439  25.037   5.652  0.1304 -0.0001  0.0936
 6323W        W49261  16.459  26.068   6.076 -0.1456  0.0595 -0.0328
 6324W        W49262  17.762  26.776   6.228  0.1380  0.0086  0.0126
 6325W        W49263  16.290  27.855   7.458 -0.0809  0.2864 -0.0428
 6326W        W49264  14.763  27.412   6.296 -0.0834 -0.1336 -0.1780
 6327W        W49265  17.007  28.261   7.472 -0.0735  0.1562 -0.0069
 6328W        W49266  18.502  26.108   5.277  0.0360 -0.1766 -0.0562
 6329W        W49267  15.328  28.285   4.740  0.1554 -0.0000  0.1056
 6330W        W49268  14.675  25.057   6.091 -0.3160  0.1942  0.0375
 6331W        W49269  17.015  26.402   9.504 -0.0450 -0.0179  0.1599
 6332W        W49270  17.057  26.942   5.622 -0.0707  0.1656  0.0913
 6333W        W49271  15.228  26.365   4.834 -0.1965  0.1901 -0.0945
 6334W        W49272  14.853  28.264   3.087  0.0491 -0.2819  0.1519
 6335W        W49273  14.810  28.877   7.136 -0.1148  0.0552  0.0286
 6336W        W49274  14.110  27.557   7.706  0.0728  0.3178 -0.0422
 6337W        W49275  16.372  29.385   4.519  0.0846  0.0627  0.1076
 6338W        W49276  17.556  27.783   3.563 -0.0836 -0.1116 -0.0176
 6339W        W49277  16.614  26.926   5.439  0.2922  0.2601  0.1858
 6340W        W49278  16.954  28.267   6.762 -0.0771  0.0469 -0.1110
 6341W        W49279  16.095  26.764   3.660 -0.3386  0.1035 -0.1679
 6342W        W49280  14.773  27.156   5.327 -0.1660  0.2583  0.0078
 6343W        W49281  14.293  28.351   3.628  0.1859 -0.1994 -0.2018
 6344W        W49282  16.869  27.630   4.109  0.0386 -0.2028 -0.2959
 6345W        W49283  15.960  28.108   5.531 -0.1947  0.0603 -0.0566
 6346W        W49284  18.067  28.948   8.383 -0.0245 -0.0352 -0.6526
 6347W        W49285  17.929  25.312   4.336 -0.0383  0.2015  0.1767
 6348W        W49286  17.802  27.634   6.876 -0.0606 -0.0932 -0.2124
 6349W        W49287  17.826  25.460   4.841  0.0675  0.2684 -0.1589
 6350W        W49288  16.666  28.583   7.495 -0.0100  0.1036  0.0947
 6351W        W49289  16.727  26.071   5.662 -0.0661 -0.0023 -0.4407
 6352W        W49290  16.563  25.085   3.660  0.2498 -0.2441 -0.2455
 6353W        W49291  16.529  27.160   6.974 -0.1566 -0.1199 -0.0508
 6354W        W49292  17.900  24.734   7.028  0.2139 -0.3289  0.1233
 6355W        W49293  15.254  29.651   6.528 -0.0647  0.1134  0.1423
 6356W        W49294  17.567  30.341   2.810  0.0192 -0.1320 -0.4481
 6357W        W49295  14.768  25.834   3.764 -0.0993  0.0306 -0.2639
 6358W        W49296  15.963  26.656   5.484 -0.0749  0.1233  0.1152
 6359W        W49297  16.997  25.200   7.144  0.0034  0.1676  0.3903
 6360W        W49298  16.026  27.258   3.578  0.0946  0.1455  0.3144
 6361W        W49299  16.878  26.387   4.714  0.2074 -0.0036 -0.1286
 6362W        W49300  15.739  28.246   5.937  0.1674 -0.0660  0.2016
 6363W        W49301  16.058  27.932   4.958  0.2975 -0.0917 -0.2203
 6364W        W49302  15.052  28.978   4.851 -0.0376 -0.0466 -0.1977
 6365W        W49303  15.131  26.388   3.892 -0.3181  0.1108  0.2135
 6366W        W49304  17.164  27.308   4.408 -0.0870  0.1378 -0.0505
 6367W        W49305  14.028  26.594   6.945 -0.0505 -0.1049 -0.0778
 6368W        W49306  18.487  24.689   7.232  0.0015 -0.3761 -0.2299
 6369W        W49307  15.977  26.185   5.236  0.0075 -0.3214  0.1250
 6370W        W49308  17.891  26.417   5.804 -0.0214  0.2156  0.0112
 6371W        W49309  16.670  28.693   6.937 -0.1336  0.0859 -0.4397
 6372W        W49310  14.558  26.659   6.680  0.0579  0.1928 -0.2734
 6373W        W49311  15.945  26.815   4.221 -0.1482  0.1143  0.0582
 6374W        W49312  17.946  25.957   7.213 -0.0461 -0.0151 -0.2072
 6375W        W49313  16.722  27.125   4.228 -0.2261  0.0360 -0.2270
 6376W        W49314  16.859  27.801   7.422  0.2822  0.0436 -0.2281
 6377W        W49315  15.844  25.608   4.837  0.2425  0.1918  0.3074
 6378W        W49316  16.562  25.447   3.194 -0.2289 -0.0778  0.0474
 6379W        W49317  15.693  27.207   5.536  0.1140 -0.2773  0.2942
 6380W        W49318  15.554  27.419   6.962  0.1369  0.0021  0.1880
 6381W        W49319  17.266  28.680   7.240 -0.3382  0.0045 -0.1276
 6382W        W49320  14.759  24.916   4.212 -0.0331  0.3786  0.1515
 6383W        W49321  17.485  26.819   3.521  0.0972  0.0677 -0.1091
 6384W        W49322  17.944  26.473   5.261  0.0511 -0.2106  0.0695
 6385W        W49323  16.375  27.796   4.151 -0.2258  0.0814 -0.0748
 6386W        W49324  18.446  26.605   5.208 -0.0599 -0.0672 -0.0414
 6387W        W49325  17.302  27.490   4.924  0.2591 -0.0680  0.3247
 6388W        W49326  16.356  25.901   5.320  0.2398  0.0061 -0.0051
 6389W        W49327  16.277  27.843   5.829  0.2220 -0.1387 -0.1362
 6390W        W49328  18.055  27.777   6.414 -0.1413 -0.1449  0.0192
 6391W        W49329  15.960  24.297   5.122  0.3224  0.1799 -0.0377
 6392W        W49330  16.342  26.833   4.975  0.1205 -0.0466 -0.1164
 6393W        W49331  15.219  27.693   3.822 -0.3183 -0.2993 -0.1588
 6394W        W49332  16.971  26.129   6.140  0.0164 -0.1223  0.4157
 6395W        W49333  17.718  25.421   6.690  0.0998  0.0418 -0.1788
 6396W        W49334  16.925  28.637   2.506 -0.1759  0.2947  0.1716
 6397W        W49335  16.931  25.152   5.942 -0.0640  0.0805  0.0591
 6398W        W49336  17.400  27.739   8.131 -0.1345 -0.1895 -0.1640
 6399W        W49337  15.496  27.036   8.124 -0.1649  0.0698  0.1647
 6400W        W49338  15.275  26.986   4.676 -0.0987  0.2735  0.1184
 6401W        W49339  16.029  27.780   6.284  0.2214  0.0686  0.2404
 6402W        W49340  16.058  27.271   5.877  0.1541  0.0114 -0.2071
 6403W        W49341  17.608  27.541   4.512 -0.1438 -0.0453  0.2161
 6404W        W49342  17.131  28.022   5.891  0.3193  0.0169  0.0097
 6405W        W49343  16.767  25.672   6.025 -0.3707 -0.0020 -0.1114
 6406W        W49344  18.401  29.014   5.251  0.3146 -0.1514 -0.1155
 6407W        W49345  15.430  25.889   5.006  0.0028 -0.1589 -0.1573
 6408W        W49346  18.105  25.783   5.073  0.2221  0.2377 -0.1399
 6409W        W49347  16.893  25.020   3.150  0.3049 -0.2022  0.0399
 6410W        W49348  15.528  26.966   6.606  0.1710  0.0527 -0.1335
 6411W        W49349  13.554  27.477   2.492  0.1840  0.0582 -0.0809
 6412W        W49350  15.023  27.572   3.255  0.1183 -0.0176  0.1475
 6413W        W49351  14.673  26.840   6.250 -0.4303  0.3831 -0.2694
 6414W        W49352  14.987  26.077   6.377 -0.1738 -0.1589  0.0625
 6415W        W49353  14.737  27.114   7.134  0.1219 -0.0224  0.0047
 6416W        W49354  14.734  27.511   4.880 -0.3422  0.2845 -0.0868
 6417W        W49355  14.323  25.292   4.220  0.1461  0.0948 -0.3157
 6418W        W49356  16.911  27.221   3.768 -0.5500  0.0442  0.1733
 6419W        W49357  15.527  26.899   5.225  0.1055  0.0958 -0.1207
 6420W        W49358  14.522  25.261   6.565  0.0070 -0.1117  0.1862
 6421W        W49359  17.882  26.969   5.687 -0.1451 -0.2602 -0.3322
 6422W        W49360  17.691  28.047   4.325  0.1664 -0.0649  0.2523
 6423W        W49361  15.538  25.693   4.427  0.3323  0.3126  0.0312
 6424W        W49362  17.108  28.336   6.275 -0.1355  0.0667 -0.0452
 6425W        W49363  14.305  26.862   3.251 -0.1871  0.1024 -0.0707
 6426W        W49364  15.219  27.105   7.249 -0.1218  0.1266 -0.2280
 6427W        W49365  15.701  27.044   7.216  0.0769  0.0612  0.1737
 6428W        W49366  14.676  26.087   4.173 -0.0624 -0.1563 -0.1363
 6429W        W49367  17.143  27.051   6.285 -0.1594  0.2140 -0.5939
 6430W        W49368  16.757  27.190   4.811 -0.0538 -0.1142 -0.3315
 6431W        W49369  18.334  29.102   3.562 -0.0641  0.1535 -0.2983
 6432W        W49370  15.180  28.157   7.561 -0.0097 -0.2049 -0.1386
 6433W        W49371  14.958  27.547   7.254 -0.3888 -0.0938 -0.0131
 6434W        W49372  14.390  25.461   7.277  0.0748  0.3230  0.0757
 6435W        W49373  17.852  27.369   3.664  0.1195  0.1201 -0.0245
 6436W        W49374  15.627  28.522   7.446 -0.2973  0.5082 -0.1482
 6437W        W49375  18.170  27.715   4.322 -0.0439  0.0724  0.1284
 6438W        W49376  17.776  24.189   5.858 -0.2368 -0.0545  0.0788
 6439W        W49377  16.878  26.673   5.126  0.0555 -0.1937  0.1661
 6440W        W49378  15.289  25.944   7.518 -0.2771 -0.0818  0.3689
 6441W        W49379  15.975  27.522   7.258  0.1163 -0.0830 -0.2236
 6442W        W49380  17.946  27.138   6.701 -0.2881 -0.3815 -0.2313
 6443W        W49381  15.566  25.373   5.358  0.0815 -0.0801 -0.2823
 6444W        W49382  17.288  26.395   5.059  0.0524  0.1052 -0.2270
 6445W        W49383  17.953  27.825   4.739  0.0842  0.1175 -0.1537
 6446W        W49384  14.938  27.538   6.780 -0.1047 -0.0850 -0.0893
 6447W        W49385  15.789  26.121   4.696 -0.1496 -0.1943  0.1240
 6448W        W49386  16.268  26.677   6.872 -0.0601 -0.0818 -0.3387
 6449W        W49387  16.148  28.348   6.262 -0.0353  0.1968  0.2248
 6450W        W49388  16.914  27.352   5.338 -0.1942 -0.1937 -0.0164
 6451W        W49389  16.889  25.566   2.794 -0.0823 -0.0395  0.1673
 6452W        W49390  19.159  27.489   4.208  0.1272  0.2156 -0.1643
 6453W        W49391  16.463  30.769   5.063 -0.3358 -0.1187  0.1342
 6454W        W49392  18.962  29.373   6.335 -0.2885 -0.0238 -0.6642
 6455W        W49393  17.297  30.033   7.001  0.0128 -0.1376 -0.2256
 6456W        W49394  17.840  26.294   6.350 -0.0118 -0.1334 -0.0881
 6457W        W49395  14.277  26.199   6.815 -0.2830  0.1679 -0.1580
 6458W        W49396  15.478  27.680   5.492 -0.0553  0.2996 -0.2903
 6459W        W49397  15.573  27.737   4.925 -0.0234  0.2847  0.1711
 6460W        W49398  16.374  26.127   6.697 -0.2527  0.1186 -0.0607
 6461W        W49399  15.873  27.255   4.929 -0.2612 -0.0411  0.1397
 6462W        W49400  16.640  24.719   3.992  0.2471  0.0904  0.2283
 6463W        W49401  16.043  27.992   7.004  0.3546 -0.0337  0.0208
 6464W        W49402  17.042  27.685   6.308  0.2204  0.0838 -0.0831
 6465W        W49403  15.915  29.767   8.224 -0.1385  0.3245 -0.0042
 6466W        W49404  15.506  25.089   7.603  0.1375 -0.0373 -0.1615
 6467W        W49405  18.052  26.831   8.028  0.0845  0.1010  0.3718
 6468W        W49406  17.805  25.862   9.634 -0.0622  0.2975 -0.3503
 6469W        W49407  14.459  25.324   8.956  0.1946  0.0085 -0.0039
 6470W        W49408  17.194  28.114   8.327 -0.1504  0.3582 -0.2486
 6471W        W49409  15.753  26.935   8.888  0.4046  0.0301  0.0324
 6472W        W49410  17.601  28.321   9.420  0.0310 -0.1674  0.2647
 6473W        W49411  15.910  27.146   7.721 -0.1231 -0.0866 -0.0080
 6474W        W49412  14.325  28.339   9.590 -0.0150  0.3168  0.0824
 6475W        W49413  16.414  23.776   8.382 -0.1951 -0.0028 -0.0947
 6476W        W49414  15.220  25.856   9.136  0.1063 -0.2554 -0.1291
 6477W        W49415  18.137  25.704   9.275 -0.2563  0.1683  0.1843
 6478W        W49416  14.272  26.475  10.485 -0.3191 -0.1580  0.1265
 6479W        W49417  14.909  25.063   9.080 -0.2226 -0.1109 -0.0279
 6480W        W49418  16.165  25.652   6.737 -0.1278  0.2943 -0.0530
 6481W        W49419  17.252  27.933   9.535 -0.2201  0.2984 -0.1952
 6482W        W49420  18.297  26.238   9.342  0.0986  0.0677  0.2366
 6483W        W49421  16.303  27.646   8.495 -0.0584 -0.0437  0.0440
 6484W        W49422  15.542  26.113   5.961  0.1693 -0.1337 -0.1525
 6485W        W49423  13.654  26.294   9.602  0.4329  0.1855 -0.3944
 6486W        W49424  15.149  26.810   8.510  0.0294  0.1781 -0.1162
 6487W        W49425  15.944  26.532   8.775 -0.4706  0.0585  0.1287
 6488W        W49426  16.981  24.527   9.149 -0.1041  0.0129  0.0621
 6489W        W49427  16.069  28.648   8.663 -0.0436  0.0047  0.3001
 6490W        W49428  14.561  27.628   9.564  0.2259  0.0339  0.0947
 6491W        W49429  14.863  26.636   7.579 -0.0902  0.0715  0.1969
 6492W        W49430  13.808  29.198   9.442 -0.2352 -0.0195 -0.0085
 6493W        W49431  14.728  27.730   8.214 -0.0396  0.1830  0.0142
 6494W        W49432  18.397  27.054   7.625  0.1251  0.0478 -0.2959
 6495W        W49433  14.365  26.058   8.087  0.4012  0.0611  0.0491
 6496W        W49434  17.864  28.652   8.785 -0.0175 -0.1442  0.0376
 6497W        W49435  17.991  26.295   9.762 -0.0813 -0.1010 -0.0358
 6498W        W49436  16.657  28.642   8.599 -0.0281 -0.0909  0.1452
 6499W        W49437  17.507  26.292   9.433  0.1532 -0.1417  0.2161
 6500W        W49438  15.610  29.396   8.459 -0.2123  0.1425  0.1493
 6501W        W49439  15.445  26.953   7.650 -0.0068 -0.0152  0.1228
 6502W        W49440  17.401  26.239   8.456 -0.1914  0.2549 -0.2032
 6503W        W49441  14.887  25.321   8.255 -0.1303  0.3403  0.0455
 6504W        W49442  16.545  25.808   8.311  0.2000 -0.0918  0.0744
 6505W        W49443  16.084  26.115   9.036  0.0222  0.0591 -0.2406
 6506W        W49444  13.632  28.346   8.820  0.0758  0.0072  0.3433
 6507W        W49445  15.196  25.786   8.054 -0.2294  0.2740 -0.2107
 6508W        W49446  15.773  26.536   9.266 -0.0834 -0.0907 -0.2409
 6509W        W49447  15.775  25.016   9.826  0.1749  0.0197 -0.2241
 6510W        W49448  17.007  28.954   9.684 -0.1362 -0.3135  0.0888
 6511W        W49449  14.511  26.857   8.081 -0.0747 -0.0363  0.0406
 6512W        W49450  16.924  28.039   9.178  0.1482 -0.0811  0.2055
 6513W        W49451  17.544  28.371   8.548  0.0955  0.0921 -0.1702
 6514W        W49452  17.110  28.778   7.786  0.1263 -0.3605 -0.0333
 6515W        W49453  14.676  25.028   8.576 -0.0031  0.0967 -0.1578
 6516W        W49454  15.473  25.568   6.867  0.0651  0.4369 -0.2045
 6517W        W49455  17.665  24.943   8.220  0.1173  0.0128  0.1116
 6518W        W49456  16.997  27.578   9.768  0.6072 -0.0282  0.1324
 6519W        W49457  17.735  30.110   8.828  0.0686 -0.2409 -0.1218
 6520W        W49458  17.572  27.570   7.701 -0.0942 -0.2643 -0.0772
 6521W        W49459  16.057  24.641   9.575 -0.0975  0.0120 -0.1218
 6522W        W49460  17.539  25.818   8.621  0.0938 -0.2848  0.1113
 6523W        W49461  14.631  25.132   7.707 -0.0885  0.1491 -0.1610
 6524W        W49462  17.956  27.239   9.356 -0.1161  0.2100 -0.1880
 6525W        W49463  16.335  27.095   8.725 -0.1883 -0.1193  0.1035
 6526W        W49464  18.526  28.570   8.196  0.4690 -0.1030 -0.1946
 6527W        W49465  14.826  27.980   8.702 -0.2655  0.1845 -0.1764
 6528W        W49466  15.333  28.979   8.096  0.0196 -0.1332 -0.0776
 6529W        W49467  14.363  28.976   8.647 -0.3187 -0.1790 -0.1604
 6530W        W49468  14.517  25.986   6.395 -0.4393  0.4856  0.1689
 6531W        W49469  13.772  25.560  10.108 -0.1639 -0.0116 -0.0100
 6532W        W49470  15.875  27.332   9.224  0.0621  0.3318  0.0701
 6533W        W49471  16.686  25.019   8.428 -0.1317  0.4608 -0.1238
 6534W        W49472  18.885  24.228   9.091 -0.1662  0.2837  0.2556
 6535W        W49473  13.567  27.945   9.076  0.3152  0.1881 -0.0331
 6536W        W49474  18.472  29.290   7.322  0.0323  0.0769  0.1638
 6537W        W49475  16.826  24.979   9.020 -0.0249  0.0051  0.0991
 6538W        W49476  17.870  28.364   7.496 -0.1384  0.2317 -0.1260
 6539W        W49477  13.939  29.309   9.962 -0.1479  0.1737  0.0060
 6540W        W49478  15.004  26.375   9.855 -0.0064 -0.0105  0.0357
 6541W        W49479  15.815  24.222   9.000 -0.0723 -0.3778 -0.1641
 6542W        W49480  15.314  25.370  10.004  0.2172 -0.1085  0.0051
 6543W        W49481  16.537  25.370   8.723  0.0085 -0.0769  0.0212
 6544W        W49482  15.727  27.973   7.357  0.0167 -0.3331  0.2344
 6545W        W49483  13.842  28.315   9.701  0.0242 -0.1156 -0.1478
 6546W        W49484  17.158  28.632   8.381  0.6326  0.2115 -0.1607
 6547W        W49485  18.279  27.695   9.373 -0.0238 -0.0563  0.2063
 6548W        W49486  17.430  29.279   7.605  0.0924 -0.1875 -0.0382
 6549W        W49487  12.960  29.106   8.760  0.0056  0.2075  0.1616
 6550W        W49488  15.392  26.466   6.819 -0.0457  0.2022 -0.2918
 6551W        W49489  14.640  28.051   9.280  0.1279 -0.2684  0.4486
 6552W        W49490  15.833  28.484   9.247  0.0023  0.4500 -0.1324
 6553W        W49491  15.702  25.698   8.901  0.1808  0.2808 -0.2807
 6554W        W49492  17.624  28.765   7.615 -0.0732 -0.1398 -0.2539
 6555W        W49493  15.343  27.959   8.696 -0.0862 -0.0623  0.1598
 6556W        W49494  15.438  27.540   9.002  0.3070  0.2867  0.2639
 6557W        W49495  17.762  26.547   8.641  0.0817  0.0046  0.1138
 6558W        W49496  15.033  24.785   7.640 -0.1192  0.2027  0.0349
 6559W        W49497  16.940  29.790   8.741 -0.1780 -0.5049  0.3786
 6560W        W49498  16.142  27.976   8.145 -0.1427  0.4162  0.1082
 6561W        W49499  14.295  27.629   9.115 -0.0067 -0.2859 -0.0170
 6562W        W49500  16.255  28.733   9.121  0.0057  0.0941  0.0717
 6563W        W49501  17.272  24.415   9.584 -0.1518 -0.0435 -0.0912
 6564W        W49502  14.512  26.485   7.159 -0.1431 -0.3588 -0.3291
 6565W        W49503  17.208  23.684   8.744  0.0868  0.0841  0.2791
 6566W        W49504  17.274  26.259   7.871  0.1261  0.0799  0.0013
 6567W        W49505  16.591  28.158   8.355  0.0332 -0.3412 -0.1428
 6568W        W49506  16.206  26.342   7.756  0.2826 -0.1499  0.1492
 6569W        W49507  16.772  27.091   7.728 -0.3585  0.1428 -0.0261
 6570W        W49508  16.564  28.078   8.850  0.1065  0.2730 -0.1851
 6571W        W49509  15.847  27.815   8.643 -0.0664  0.0954 -0.0791
 6572W        W49510  16.104  25.830   7.578 -0.0772  0.0662 -0.0576
 6573W        W49511  17.065  27.837   8.730 -0.2422 -0.2001 -0.0353
 6574W        W49512  14.066  27.813   9.524 -0.1034  0.2099  0.1250
 6575W        W49513  18.550  30.047   9.632  0.0750 -0.1101  0.1660
 6576W        W49514  14.175  24.829   9.904  0.2600  0.0289  0.2287
 6577W        W49515  15.579  26.068   8.133 -0.1042 -0.1792  0.1252
 6578W        W49516  15.834  25.635   8.360 -0.1734 -0.0524  0.1979
 6579W        W49517  14.460  27.560   7.225 -0.0711  0.1682  0.0539
 6580W        W49518  17.388  25.128   9.021 -0.1923  0.0268 -0.0564
 6581W        W49519  17.902  25.197   9.089 -0.2764 -0.0317 -0.0509
 6582W        W49520  16.640  26.902   9.749 -0.3890  0.1951 -0.2977
 6583W        W49521  17.755  27.763   9.282 -0.3282  0.2042 -0.4369
 6584W        W49522  14.044  26.261   7.308 -0.0958 -0.1495 -0.1409
 6585W        W49523  15.361  27.106   9.262 -0.4100  0.0371 -0.0158
 6586W        W49524  14.845  27.982   9.830  0.2080 -0.2202 -0.1132
 6587W        W49525  17.951  25.680   8.795 -0.3637  0.0049 -0.0247
 6588W        W49526  16.239  25.342   8.339 -0.1269  0.4561 -0.1561
 6589W        W49527  16.590  27.693   7.866 -0.1577 -0.2495  0.0352
 6590W        W49528  16.549  27.919   6.618  0.2196  0.2256 -0.0710
 6591W        W49529  15.680  24.198   7.999 -0.2170  0.1559  0.0027
 6592W        W49530  16.602  27.197   9.328 -0.1872 -0.2037  0.0667
 6593W        W49531  16.126  28.498   7.169 -0.0567 -0.0795  0.1775
 6594W        W49532  12.945  29.520   9.792  0.2307  0.0309  0.1582
 6595W        W49533  15.157  27.950   9.203  0.4122 -0.0716  0.1629
 6596W        W49534  19.003  25.032   8.746 -0.0868 -0.2205  0.1759
 6597W        W49535  14.091  28.887   8.229  0.1110  0.1077 -0.2701
 6598W        W49536  15.009  26.563   6.503 -0.1025 -0.2125  0.2189
 6599W        W49537  14.202  26.261   9.462  0.3747  0.3219 -0.1039
 6600W        W49538  17.404  25.264   9.911  0.1684  0.0617 -0.1935
 6601W        W49539  17.655  25.921   8.094  0.0396  0.3157  0.1050
 6602W        W49540  15.566  26.216   8.919  0.2081 -0.1799 -0.1782
 6603W        W49541  16.610  24.302   9.545 -0.1886 -0.0536  0.4247
 6604W        W49542  15.028  30.153  10.001 -0.1942  0.3294  0.0808
 6605W        W49543  16.616  26.311   7.111 -0.1695 -0.2236  0.1373
 6606W        W49544  13.627  26.040   7.475 -0.0421  0.1341 -0.0411
 6607W        W49545  18.356  25.930   8.911 -0.0498  0.2124 -0.2797
 6608W        W49546  15.271  26.351   7.839  0.0407  0.2621  0.1825
 6609W        W49547  14.517  27.591   8.612  0.3505 -0.2738  0.3871
 6610W        W49548  17.821  29.573   8.825  0.0338 -0.1774  0.1248
 6611W        W49549  14.885  26.051   7.757 -0.1783 -0.1010 -0.2569
 6612W        W49550  15.064  27.192   8.868 -0.2492 -0.2270  0.3607
 6613W        W49551  15.340  29.025   8.634  0.0764 -0.0571  0.2003
 6614W        W49552  14.864  25.715   8.707 -0.0270 -0.0719  0.2453
 6615W        W49553  15.736  26.196   7.595  0.2255  0.0666  0.0282
 6616W        W49554  15.025  26.316   8.802  0.2002 -0.0969 -0.1477
 6617W        W49555  18.907  28.556   8.803 -0.0783  0.4612  0.1379
 6618W        W49556  15.683  28.309   8.795  0.0831  0.1546 -0.1681
 6619W        W49557  16.000  25.602   9.260 -0.0897  0.0531 -0.0968
 6620W        W49558  17.106  28.375   8.828  0.0934 -0.1380  0.2007
 6621W        W49559  14.932  27.137   7.669 -0.1512 -0.0090 -0.1303
 6622W        W49560  14.426  25.947   8.857  0.0100 -0.0082 -0.2363
 6623W        W49561  14.388  27.969   7.805 -0.0958 -0.0801  0.0640
 6624W        W49562  15.297  23.714   9.587 -0.1636  0.0072 -0.2990
 6625W        W49563  15.413  28.629   9.363  0.1556 -0.2440 -0.2198
 6626W        W49564  14.953  26.715   6.954 -0.2325 -0.1511 -0.2718
 6627W        W49565  15.198  28.346   9.812 -0.2473 -0.1901 -0.2093
 6628W        W49566  15.867  25.224   8.057 -0.0385 -0.3315 -0.0644
 6629W        W49567  16.613  28.660   8.010  0.1406 -0.3245 -0.1227
 6630W        W49568  15.321  25.939   8.599 -0.1238 -0.0584 -0.1445
 6631W        W49569  15.643  28.103   8.331  0.0946  0.1814 -0.1764
 6632W        W49570  14.442  23.846   9.732  0.0378  0.0189  0.1266
 6633W        W49571  18.396  28.593   9.255  0.0025  0.0778 -0.0763
 6634W        W49572  16.560  25.788   9.000  0.0312 -0.1372  0.0814
 6635W        W49573  15.799  26.633   6.950  0.1240 -0.1383  0.2880
 6636W        W49574  14.342  27.222   9.394  0.4049 -0.0720 -0.0410
 6637W        W49575  16.235  26.903   9.187  0.0574 -0.0953 -0.0616
 6638W        W49576  15.534  26.445   8.470  0.2024 -0.2837  0.0395
 6639W        W49577  18.036  24.472   8.605 -0.0678  0.1800 -0.0170
 6640W        W49578  16.519  26.278   8.137 -0.1412 -0.0838  0.0269
 6641W        W49579  17.555  25.609   9.133 -0.0811  0.0030  0.0954
 6642W        W49580  16.341  26.403   9.378  0.1150 -0.1142 -0.0182
 6643W        W49581  16.196  27.706   9.044  0.3923  0.1441 -0.1932
 6644W        W49582  18.393  27.565   8.137 -0.0178 -0.0347 -0.0261
 6645W        W49583  17.023  25.927   8.130  0.0358  0.1180 -0.3262
 6646W        W49584  17.906  28.934   9.753 -0.1615  0.1349 -0.0230
 6647W        W49585  17.677  26.531   7.705 -0.2635 -0.0417  0.0279
 6648W        W49586  19.371  24.795   9.349 -0.1908  0.1663 -0.2864
 6649W        W49587  18.023  26.074   8.497  0.1461 -0.0383 -0.0459
 6650W        W49588  16.898  27.076   8.223 -0.1577  0.1773 -0.2261
 6651W        W49589  14.612  26.309   8.536 -0.0688 -0.2413  0.0729
 6652W        W49590  15.480  26.079   7.074 -0.1762 -0.1933 -0.3535
 6653W        W49591  16.957  28.329   7.970  0.0385 -0.1669 -0.0217
 6654W        W49592  17.484  28.368   7.967 -0.2873  0.1006 -0.1435
 6655W        W49593  17.189  25.965   9.095 -0.2839  0.0890 -0.1882
 6656W        W49594  14.214  26.356   8.862 -0.0119  0.1284 -0.3523
 6657W        W49595  14.212  26.376   6.369  0.0201  0.2685 -0.4660
 6658W        W49596  15.693  26.566   7.957 -0.2541  0.0805  0.0653
 6659W        W49597  14.904  29.060  10.023  0.2912  0.3197 -0.3245
 6660W        W49598  17.264  25.771   7.737 -0.1619 -0.0715 -0.2072
 6661W        W49599  14.478  27.349   7.983  0.0165  0.2606 -0.1311
 6662W        W49600  15.858  24.733   8.932 -0.1748 -0.2164  0.0153
 6663W        W49601  16.861  29.471   9.569 -0.0361 -0.1102 -0.0233
 6664W        W49602  15.847  27.404   8.276  0.2070  0.0154 -0.2672
 6665W        W49603  15.908  25.251   8.847  0.0411 -0.5368 -0.0344
 6666W        W49604  16.579  24.814   9.447  0.0033 -0.0554  0.0022
 6667W        W49605  14.396  28.041  10.061  0.0823 -0.0800 -0.4345
 6668W        W49606  14.709  28.559   9.891  0.2460 -0.1029 -0.0371
 6669W        W49607  19.122  26.936   8.379 -0.0024 -0.0641 -0.0238
 6670W        W49608  15.157  28.526   8.912  0.2881 -0.5152 -0.0586
 6671W        W49609  17.477  27.234   9.373 -0.3254  0.3551 -0.0519
 6672W        W49610  14.370  25.598   8.283 -0.1606  0.3585  0.1778
 6673W        W49611  16.814  27.662   8.342  0.0763 -0.0026 -0.2511
 6674W        W49612  16.051  26.767   9.636  0.0064  0.0901 -0.0983
 6675W        W49613  15.548  28.615   8.426 -0.2181  0.0666  0.4765
 6676W        W49614  17.871  27.464   8.317  0.1422 -0.6043  0.0571
 6677W        W49615  16.432  27.289   8.159 -0.1267  0.2556 -0.0531
 6678W        W49616  17.119  29.184   9.190  0.0381 -0.5129  0.1672
 6679W        W49617  16.046  26.224   7.237 -0.0256 -0.0120 -0.3986
 6680W        W49618  15.190  27.947   8.217  0.0379 -0.3257  0.2980
 6681W        W49619  15.537  27.730   7.946 -0.1470 -0.0237  0.0385
 6682W        W49620  18.982  29.890   7.943  0.0369 -0.0986  0.0299
 6683W        W49621  17.010  29.802   8.187  0.1007 -0.0280  0.3077
 6684W        W49622  17.412  25.120   6.928 -0.4573  0.0760 -0.4899
 6685W        W49623  18.112  27.877   8.550 -0.0375 -0.0463  0.0370
 6686W        W49624  16.974  26.477   8.227  0.0009 -0.1061 -0.0641
 6687W        W49625  14.684  26.441   8.016  0.2220 -0.0110  0.0059
 6688W        W49626  16.722  26.016   7.714  0.2597 -0.0177 -0.0583
 6689W        W49627  17.589  28.845   8.129 -0.2165 -0.1269  0.0856
 6690W        W49628  14.095  25.508   8.685  0.0402  0.1722 -0.2228
 6691W        W49629  15.349  27.258   9.950 -0.0524 -0.0114  0.2449
 6692W        W49630  18.183  23.766   9.421 -0.0212 -0.0462 -0.2511
 6693W        W49631  15.873  26.840   8.388  0.0447 -0.4979 -0.0769
 6694W        W49632  18.115  27.566   9.834 -0.2873  0.0955  0.0841
 6695W        W49633  14.831  28.966   8.453  0.0625  0.2117  0.0976
 6696W        W49634  16.163  28.713   7.629  0.1881  0.0266 -0.1657
 6697W        W49635  14.397  30.135  10.321 -0.0265  0.0713  0.4458
 6698W        W49636  13.147  25.479   7.036  0.1697  0.0228 -0.0719
 6699W        W49637  17.065  24.826   8.058  0.0803 -0.2871  0.3170
 6700W        W49638  14.805  27.092  10.111  0.2351 -0.2046  0.1030
 6701W        W49639  15.459  27.549   9.499 -0.4196  0.0744 -0.2359
 6702W        W49640  16.561  26.689   8.403 -0.2069  0.1953 -0.0895
 6703W        W49641  16.179  27.225   9.752 -0.1034  0.3007 -0.1903
 6704W        W49642  15.298  26.682   9.022  0.2138 -0.3971 -0.1459
 6705W        W49643  15.869  26.665   7.487 -0.0540 -0.0044  0.1743
 6706W        W49644  16.835  26.511   7.747  0.0134 -0.2254  0.4848
 6707W        W49645  15.255  25.396   8.901  0.2968 -0.1181  0.1016
 6708W        W49646  16.298  26.859   7.930  0.1044  0.0559 -0.1600
 6709W        W49647  14.414  26.401   7.644 -0.0566  0.2334  0.0242
 6710W        W49648  15.487  27.235   8.593  0.1530  0.2602  0.2099
 6711W        W49649  15.285  24.906   8.016 -0.1919 -0.0578 -0.0655
 6712W        W49650  17.310  26.819   8.595 -0.2886 -0.0985 -0.1088
 6713W        W49651  18.024  25.351   9.608  0.1990  0.1287  0.0313
 6714W        W49652  16.606  29.487   7.291 -0.1293  0.0866  0.4811
 6715W        W49653  17.152  27.599   9.200  0.2053  0.1588  0.4438
 6716W        W49654  17.587  29.170   9.038 -0.1152 -0.0462  0.0764
 6717W        W49655  15.081  24.529   9.369  0.0731 -0.0126  0.0520
 6718W        W49656  16.741  26.206   9.103  0.2102  0.3540 -0.0159
 6719W        W49657  18.803  27.367   7.710 -0.0008 -0.0119 -0.1236
 6720W        W49658  17.571  25.203   9.441  0.0504  0.0648 -0.0185
 6721W        W49659  15.093  27.541   8.488  0.2493  0.4367 -0.1104
 6722W        W49660  15.044  28.536   8.386  0.2515  0.0721 -0.1226
 6723W        W49661  18.577  23.698  10.132 -0.2895 -0.2040 -0.0341
 6724W        W49662  18.078  28.654   7.918  0.4435 -0.1080 -0.0525
 6725W        W49663  12.697  28.487   9.028  0.2960 -0.0661 -0.2270
 6726W        W49664  16.117  25.961   8.069  0.3447  0.3380 -0.0164
 6727W        W49665  15.868  29.000   8.350 -0.0709 -0.1358  0.0079
 6728W        W49666  17.420  29.388   9.568 -0.0611  0.2007  0.1303
 6729W        W49667  18.149  30.111   9.258  0.1108 -0.2424  0.0543
 6730W        W49668  16.547  26.613   8.966  0.1211  0.2224 -0.0601
 6731W        W49669  18.416  28.110   8.966 -0.0492  0.0220 -0.2144
 6732W        W49670  15.020  25.387   9.479  0.0406 -0.1842  0.1091
 6733W        W49671  15.823  26.074   8.548  0.0075  0.0935  0.0263
 6734W        W49672  17.130  24.896   9.434  0.0184  0.1561 -0.1698
 6735W        W49673  15.245  29.022   9.134 -0.1037  0.2128 -0.0103
 6736W        W49674  13.910  26.252   7.866 -0.3767 -0.2993 -0.0518
 6737W        W49675  15.689  28.254   6.470 -0.1619 -0.1151 -0.1935
 6738W        W49676  14.773  27.587   9.071  0.2473 -0.0754  0.1549
 6739W        W49677  14.859  26.837   9.199  0.0377  0.2214  0.1192
 6740W        W49678  16.315  24.922   8.798  0.2363  0.1693 -0.0107
 6741W        W49679  19.448  28.173   8.028  0.0009 -0.0837  0.0255
 6742W        W49680  15.423  25.342   8.340  0.2449 -0.3054 -0.1570
 6743W        W49681  13.316  24.653  10.041 -0.0943  0.0468  0.0051
 6744W        W49682  18.084  28.149   9.312  0.0116 -0.1095 -0.0671
 6745W        W49683  16.399  29.100   8.823 -0.2560 -0.0782  0.1060
 6746W        W49684  15.909  26.599   6.002 -0.0039 -0.2330  0.3062
 6747W        W49685  14.558  28.803   9.448 -0.0641  0.4111  0.1077
 6748W        W49686  15.399  24.456   7.157 -0.1465 -0.3361  0.1699
 6749W        W49687  15.665  25.987   9.376  0.3694  0.3445 -0.0997
 6750W        W49688  16.675  29.395   8.516 -0.0870  0.3158 -0.1115
 6751W        W49689  17.759  29.359   8.371 -0.0163 -0.1902  0.0616
 6752W        W49690  15.466  24.975   9.025  0.3086 -0.0961  0.1346
 6753W        W49691  18.252  26.377   8.821 -0.0221  0.1040  0.1049
 6754W        W49692  17.850  28.118   8.874  0.1312 -0.2956 -0.3790
 6755W        W49693  18.327  24.861   9.420  0.0793  0.1423 -0.0177
 6756W        W49694  15.161  27.381   8.039 -0.1395 -0.2603 -0.1997
 6757W        W49695  18.950  26.872   9.090  0.1226  0.1872 -0.3916
 6758W        W49696  17.588  25.981  11.539 -0.0860  0.0774 -0.3584
 6759W        W49697  15.639  25.614   7.852 -0.0982 -0.1266 -0.2011
 6760W        W49698  15.807  27.932   9.154 -0.0077  0.1239 -0.0832
 6761W        W49699  14.749  25.857   9.214  0.2452 -0.2833  0.3209
 6762W        W49700  16.952  25.336   9.670  0.2808 -0.1052  0.2026
 6763W        W49701  16.483  28.217   9.312 -0.0928 -0.2269  0.2850
 6764W        W49702  14.865  27.702   7.735 -0.1128  0.2732 -0.4185
 6765W        W49703  18.688  26.665   7.366 -0.0592 -0.0909 -0.1366
 6766W        W49704  16.605  29.178   9.938  0.0977  0.1459 -0.0654
 6767W        W49705  17.579  27.849   8.588  0.2774 -0.0685  0.4493
 6768W        W49706  18.157  26.680   8.455 -0.0389 -0.5491  0.1015
 6769W        W49707  17.748  24.305   9.962 -0.0786 -0.0771 -0.1533
 6770W        W49708  15.555  27.482   7.502 -0.1596 -0.0911 -0.0328
 6771W        W49709  14.626  26.332   9.120  0.0761 -0.0315  0.1615
 6772W        W49710  16.878  25.939   9.558 -0.0342 -0.1911 -0.1097
 6773W        W49711  14.788  25.850   8.261  0.5009 -0.5008  0.0247
 6774W        W49712  15.823  24.755   7.196 -0.3834  0.0473 -0.0617
 6775W        W49713  13.661  30.852   9.879  0.0777  0.1639 -0.0297
 6776W        W49714  15.971  28.599   9.774  0.0889 -0.0785 -0.1119
 6777W        W49715  14.368  31.277   2.182 -0.0911  0.1845 -0.0518
 6778W        W49716  17.289  29.962   0.190  0.1720 -0.1857 -0.0909
 6779W        W49717  17.245  31.239  30.888 -0.0901 -0.2863  0.1309
 6780W        W49718  17.294  29.373   0.871  0.1621  0.0230  0.0591
 6781W        W49719  16.251  28.787   1.503 -0.0228  0.0981  0.1279
 6782W        W49720  16.798  32.798   0.501 -0.3238 -0.0621  0.1419
 6783W        W49721  16.212  27.486   3.230 -0.1667 -0.1337 -0.1307
 6784W        W49722  18.252  31.918   1.510 -0.1707  0.0547  0.3863
 6785W        W49723  16.791  32.702   3.415  0.0135 -0.1214  0.1456
 6786W        W49724  16.429  29.271   0.046  0.0328  0.2162  0.1169
 6787W        W49725  16.894  28.265   1.235 -0.2113 -0.1747 -0.2282
 6788W        W49726  15.046  31.646   2.641  0.0052  0.1090  0.0580
 6789W        W49727  16.353  28.438  31.662 -0.2621 -0.0757 -0.0925
 6790W        W49728  14.722  28.401   2.159 -0.0117 -0.0625  0.1348
 6791W        W49729  17.134  30.054   2.949  0.0878 -0.1887 -0.0872
 6792W        W49730  15.388  30.229   1.436 -0.0310 -0.0916 -0.0025
 6793W        W49731  16.170  31.012  31.231 -0.1133  0.1500 -0.2786
 6794W        W49732  17.253  30.407  31.266  0.0185  0.0102  0.3497
 6795W        W49733  17.118  31.150   1.336 -0.2012 -0.0421  0.0355
 6796W        W49734  15.186  30.116   1.941 -0.0621  0.0032 -0.0057
 6797W        W49735  17.666  29.791   3.103 -0.1033 -0.1793 -0.2922
 6798W        W49736  15.571  31.116  31.295  0.1118 -0.0172 -0.0254
 6799W        W49737  14.935  32.108  30.565  0.2198  0.0164 -0.3415
 6800W        W49738  14.383  30.442   0.716 -0.1811 -0.2447  0.3461
 6801W        W49739  15.758  29.854   1.458  0.3309 -0.1010  0.0217
 6802W        W49740  17.021  29.084   1.195 -0.3731 -0.0825  0.4115
 6803W        W49741  18.582  30.398   1.659 -0.0274  0.3636  0.0342
 6804W        W49742  16.046  32.618   0.980  0.0486  0.2180 -0.2740
 6805W        W49743  17.273  32.074   3.050 -0.1747  0.0765  0.3220
 6806W        W49744  18.117  30.144   3.157 -0.1367  0.2965 -0.2771
 6807W        W49745  15.662  30.675   1.268 -0.0455  0.4183 -0.2786
 6808W        W49746  15.098  30.053   1.048 -0.4085 -0.0428 -0.0174
 6809W        W49747  16.579  32.462   0.812  0.1397 -0.1329 -0.2490
 6810W        W49748  18.731  31.431   1.982 -0.3189 -0.1130  0.1030
 6811W        W49749  17.960  31.064   3.281 -0.1070 -0.2018 -0.0164
 6812W        W49750  14.573  32.202   3.713 -0.4365 -0.3530  0.0710
 6813W        W49751  16.033  32.126   0.888 -0.1711  0.2390  0.1525
 6814W        W49752  17.337  31.867   3.493 -0.0255  0.1560  0.0179
 6815W        W49753  15.545  32.601   3.748 -0.5345  0.0074  0.0322
 6816W        W49754  17.096  31.114   2.969  0.0385  0.0346  0.0109
 6817W        W49755  16.455  31.182   0.197 -0.0237 -0.0579  0.1365
 6818W        W49756  16.045  32.179   0.274  0.2777 -0.2582 -0.2044
 6819W        W49757  17.660  31.066   1.176  0.0297  0.0592 -0.0100
 6820W        W49758  15.831  30.179   3.061 -0.1611  0.3376 -0.1697
 6821W        W49759  14.416  31.008   2.734  0.0563 -0.1100  0.2369
 6822W        W49760  17.184  29.536   3.500  0.0466  0.1135  0.1659
 6823W        W49761  15.483  33.689  31.577  0.2198  0.0177  0.2418
 6824W        W49762  18.020  30.751  31.034  0.2728  0.0967  0.0962
 6825W        W49763  15.951  28.759   0.522  0.0292  0.0385  0.0483
 6826W        W49764  17.816  30.300  31.122  0.0266  0.1092  0.0063
 6827W        W49765  16.593  27.743   1.469  0.0596  0.3814 -0.1561
 6828W        W49766  16.293  31.556   2.154 -0.0370 -0.0367  0.0221
 6829W        W49767  15.767  30.570   2.772 -0.2660  0.1247  0.0393
 6830W        W49768  19.024  32.102   2.100  0.0374  0.2002 -0.1671
 6831W        W49769  16.663  28.544   1.673 -0.1047  0.3460  0.3150
 6832W        W49770  17.101  30.013   1.017 -0.0256 -0.2170 -0.2397
 6833W        W49771  16.335  32.024   2.157  0.0289 -0.1565  0.0346
 6834W        W49772  16.181  30.818   0.348 -0.1456  0.0547 -0.1296
 6835W        W49773  18.374  32.144  30.858  0.1024 -0.0852 -0.2254
 6836W        W49774  18.722  32.258   2.538 -0.1024 -0.1298  0.0358
 6837W        W49775  17.018  31.954   0.417  0.0023  0.0088 -0.1489
 6838W        W49776  14.120  29.421  31.641 -0.2486  0.2128 -0.0331
 6839W        W49777  15.044  31.178   2.678  0.0708  0.1260 -0.1308
 6840W        W49778  15.104  30.585   2.693  0.0244 -0.4178  0.2435
 6841W        W49779  16.147  29.265   1.509  0.2164 -0.0667 -0.4579
 6842W        W49780  17.353  30.891   3.322 -0.6033 -0.1379  0.1689
 6843W        W49781  13.719  30.884   1.087 -0.1009 -0.0591 -0.1877
 6844W        W49782  17.592  28.217   1.670  0.0453 -0.1299 -0.0845
 6845W        W49783  16.289  30.659   2.468  0.3758 -0.3547 -0.1407
 6846W        W49784  17.167  31.590   4.392  0.2662 -0.0750 -0.3632
 6847W        W49785  18.011  31.554  31.349  0.2543  0.0144  0.0078
 6848W        W49786  18.307  27.633   2.446 -0.0783  0.3458 -0.0736
 6849W        W49787  16.797  28.814   2.989 -0.0468 -0.1172 -0.2201
 6850W        W49788  15.296  29.949  31.585 -0.4104  0.2242 -0.2777
 6851W        W49789  17.045  30.279  31.828 -0.1768 -0.0859 -0.1108
 6852W        W49790  18.954  32.624   2.231 -0.0226 -0.1321  0.0684
 6853W        W49791  17.037  31.393  31.305 -0.0799 -0.0811 -0.2441
 6854W        W49792  15.996  31.622   0.712 -0.0016 -0.1900  0.2166
 6855W        W49793  16.335  29.889   3.105  0.0095  0.3081  0.0832
 6856W        W49794  16.912  31.360   2.603 -0.0172 -0.1622  0.0308
 6857W        W49795  16.563  32.942  31.054 -0.1212  0.1211  0.0211
 6858W        W49796  16.072  31.599   1.483  0.3279 -0.1342 -0.0448
 6859W        W49797  15.147  29.892   0.095  0.3856  0.0803  0.0802
 6860W        W49798  15.542  29.637   3.182  0.3379  0.1622  0.0138
 6861W        W49799  15.715  31.890   3.061 -0.0141 -0.0858 -0.2128
 6862W        W49800  16.202  29.328   0.470  0.0636 -0.2389 -0.1303
 6863W        W49801  14.914  29.665   3.851  0.0381 -0.0578  0.0285
 6864W        W49802  16.491  29.745   0.650 -0.1599 -0.0770  0.0160
 6865W        W49803  15.681  30.773   0.310  0.0365 -0.0927 -0.0053
 6866W        W49804  18.953  32.384   1.643 -0.0235  0.0037  0.0669
 6867W        W49805  18.478  31.149  31.521  0.0962  0.0722 -0.1259
 6868W        W49806  17.826  32.603   0.192  0.2605 -0.0518 -0.0242
 6869W        W49807  14.537  29.434   1.095  0.2418 -0.0646 -0.3442
 6870W        W49808  15.259  29.210   0.241 -0.1834  0.1269 -0.1091
 6871W        W49809  16.328  29.607   4.044  0.0372 -0.0388 -0.1342
 6872W        W49810  16.430  28.078   1.812  0.2913  0.1057 -0.2421
 6873W        W49811  16.893  31.007   3.369 -0.0784 -0.1630 -0.2674
 6874W        W49812  16.435  27.653   0.619  0.0064  0.0844 -0.2605
 6875W        W49813  17.116  30.576   0.406 -0.0768  0.0616  0.2777
 6876W        W49814  16.805  31.415   0.873  0.1491  0.0198 -0.0577
 6877W        W49815  16.150  30.077  31.711 -0.2304 -0.1070  0.0063
 6878W        W49816  16.717  30.188   3.530  0.1891  0.0176 -0.2580
 6879W        W49817  17.091  30.901   1.939 -0.1664 -0.1839 -0.0210
 6880W        W49818  17.255  32.386   2.537  0.0431 -0.2513 -0.3907
 6881W        W49819  16.995  32.644   2.137 -0.0926 -0.0435  0.1568
 6882W        W49820  15.379  31.426   2.095 -0.0560  0.0279  0.0573
 6883W        W49821  14.945  29.296   0.712  0.1393 -0.0734 -0.0612
 6884W        W49822  17.076  32.203   1.745 -0.0519 -0.0170 -0.2372
 6885W        W49823  16.501  31.190   1.230 -0.2813  0.0273  0.0297
 6886W        W49824  16.744  30.396   1.415 -0.0061 -0.2877 -0.4624
 6887W        W49825  17.780  31.749   2.275 -0.1562  0.0487 -0.0668
 6888W        W49826  17.491  30.827   0.595 -0.1729  0.0122  0.4461
 6889W        W49827  15.444  30.956   4.273  0.2191 -0.0196  0.2088
 6890W        W49828  17.028  29.632   1.900 -0.0095 -0.0787  0.1393
 6891W        W49829  18.532  31.017   2.281  0.2788 -0.3852 -0.0004
 6892W        W49830  16.163  30.189   2.139  0.1890 -0.0222 -0.0324
 6893W        W49831  15.376  31.434  31.640  0.0066 -0.0138  0.0648
 6894W        W49832  18.568  32.645   3.072  0.1415  0.2114 -0.2064
 6895W        W49833  15.248  33.464  31.222 -0.0119  0.1230 -0.0300
 6896W        W49834  15.340  30.458   0.794  0.0154 -0.0447 -0.1588
 6897W        W49835  17.322  32.474   1.239  0.3418  0.1346 -0.1297
 6898W        W49836  16.798  28.293   3.825  0.1726 -0.0505  0.0153
 6899W        W49837  13.351  31.059   2.580 -0.0283 -0.1239 -0.0627
 6900W        W49838  18.000  28.685   3.306  0.0994  0.2804  0.3215
 6901W        W49839  15.582  30.908  31.748 -0.0522 -0.0628 -0.1509
 6902W        W49840  15.914  30.755   3.937  0.0619  0.1585  0.2781
 6903W        W49841  16.767  29.309   0.721  0.0674 -0.1953  0.3122
 6904W        W49842  17.885  30.019  30.739  0.3964  0.2123 -0.0392
 6905W        W49843  16.772  30.835   2.461  0.6894  0.3885 -0.0636
 6906W        W49844  18.700  29.550   1.643 -0.0141 -0.2953 -0.1592
 6907W        W49845  16.016  28.993  31.876  0.1070  0.1150  0.1074
 6908W        W49846  17.749  28.533  31.672 -0.0369  0.2608  0.0138
 6909W        W49847  14.899  30.482   2.009 -0.0815  0.0702  0.0977
 6910W        W49848  17.283  31.055   0.097 -0.2831 -0.5386 -0.0927
 6911W        W49849  16.608  30.788   2.918  0.0290  0.2252  0.1377
 6912W        W49850  16.828  28.405  31.898 -0.1204 -0.1807  0.2706
 6913W        W49851  18.269  32.288   2.846 -0.0154  0.2001 -0.0621
 6914W        W49852  17.226  30.973   2.506  0.0563 -0.2053  0.3536
 6915W        W49853  16.333  33.144   4.436  0.0240 -0.0173  0.0971
 6916W        W49854  18.135  30.781   0.368 -0.1684  0.0852  0.0009
 6917W        W49855  16.419  27.949   2.434 -0.0864 -0.4180  0.1481
 6918W        W49856  15.558  29.661   0.057 -0.1310  0.0480  0.2856
 6919W        W49857  16.480  28.786   2.053  0.1082  0.0113 -0.0678
 6920W        W49858  15.438  32.170  31.386  0.1551  0.0273  0.1561
 6921W        W49859  18.462  27.341   3.432  0.1442  0.2027  0.0509
 6922W        W49860  17.468  30.109   1.398  0.3080  0.1397 -0.0798
 6923W        W49861  17.114  28.413   2.982  0.1456  0.0361  0.1061
 6924W        W49862  19.106  30.054   4.032  0.0912  0.0673 -0.0307
 6925W        W49863  17.236  30.722  31.664  0.0253  0.2283 -0.0646
 6926W        W49864  17.493  30.211   2.311  0.0941 -0.1437  0.2491
 6927W        W49865  15.032  29.792   0.622  0.3242  0.0509 -0.0932
 6928W        W49866  14.879  30.874   3.002 -0.0207 -0.2453  0.3109
 6929W        W49867  14.642  31.844   2.925  0.1672  0.0608 -0.3387
 6930W        W49868  14.498  32.237   2.018  0.0924  0.1027 -0.0087
 6931W        W49869  16.877  31.781   2.901  0.0497  0.2821  0.0911
 6932W        W49870  16.151  29.882  31.134 -0.1303  0.0011  0.0477
 6933W        W49871  16.448  29.035   2.564  0.0851 -0.2006  0.0840
 6934W        W49872  15.848  29.403   0.909 -0.2715  0.2619 -0.0454
 6935W        W49873  16.383  31.336   1.718 -0.4343 -0.0353  0.3871
 6936W        W49874  17.409  31.923  31.514  0.2769 -0.5614  0.0717
 6937W        W49875  16.312  29.274   3.577  0.2041 -0.1233 -0.0072
 6938W        W49876  17.897  31.227   2.057  0.0849  0.1799 -0.1112
 6939W        W49877  16.159  31.434  31.525 -0.1996 -0.0667 -0.2540
 6940W        W49878  17.552  31.320   3.103 -0.3142  0.3643  0.0955
 6941W        W49879  15.119  30.425   0.167  0.1866 -0.1944 -0.1179
 6942W        W49880  17.644  27.821   0.729  0.1450 -0.0095 -0.2709
 6943W        W49881  14.908  31.532   1.613  0.1565 -0.0115  0.2444
 6944W        W49882  15.771  29.164   0.299 -0.0245 -0.2377 -0.2832
 6945W        W49883  15.112  29.516  31.754  0.0771  0.2441 -0.1040
 6946W        W49884  17.964  29.619   0.625 -0.0200  0.2052  0.1293
 6947W        W49885  17.455  32.195   0.171  0.1057 -0.1244 -0.2818
 6948W        W49886  14.826  29.711   2.515  0.3473 -0.0064 -0.0567
 6949W        W49887  16.965  28.845   0.675 -0.2018  0.1566 -0.0664
 6950W        W49888  13.849  32.259   1.521  0.1831 -0.0972  0.1455
 6951W        W49889  16.979  29.970   1.466 -0.0053 -0.3228  0.1191
 6952W        W49890  18.244  29.108   0.204  0.0298  0.1596  0.2527
 6953W        W49891  16.311  30.429   3.142 -0.0340 -0.0818  0.0955
 6954W        W49892  15.324  30.006   5.030 -0.0994 -0.1409 -0.1064
 6955W        W49893  14.118  29.092   1.103  0.1458 -0.1110  0.1870
 6956W        W49894  16.640  29.944   1.927  0.3137 -0.2549 -0.0060
 6957W        W49895  15.968  29.755   2.303 -0.0195 -0.3208 -0.0479
 6958W        W49896  17.811  31.884   3.100  0.0711  0.0515  0.0023
 6959W        W49897  16.165  32.100   2.995  0.0919  0.2229 -0.2413
 6960W        W49898  16.050  30.608  31.759  0.2174 -0.0493 -0.3438
 6961W        W49899  15.506  32.366  30.837  0.2041 -0.4286 -0.1175
 6962W        W49900  16.163  30.228   2.707  0.0828 -0.0546 -0.1375
 6963W        W49901  18.084  30.440   2.660  0.0420  0.2204 -0.1371
 6964W        W49902  14.991  29.298   1.364  0.0678  0.0167  0.2438
 6965W        W49903  15.547  28.933   2.022 -0.2329  0.2387 -0.3620
 6966W        W49904  18.841  31.388   0.476  0.0588  0.1542  0.0729
 6967W        W49905  18.189  30.934   2.867 -0.1140  0.1537  0.0232
 6968W        W49906  16.860  29.092   2.120  0.2639 -0.1191  0.0052
 6969W        W49907  15.928  31.979   3.953 -0.1610 -0.2839  0.1511
 6970W        W49908  16.599  28.725   1.155 -0.0927 -0.1301 -0.0733
 6971W        W49909  18.359  31.081   1.813  0.0458 -0.2079  0.1894
 6972W        W49910  17.678  31.282   2.543 -0.0156 -0.2242  0.2423
 6973W        W49911  16.834  31.000   0.523 -0.2675  0.2402 -0.1548
 6974W        W49912  13.787  31.249   1.569 -0.2964 -0.0679  0.1076
 6975W        W49913  16.223  31.919  31.683 -0.2016  0.0494 -0.3647
 6976W        W49914  17.295  29.076   1.708 -0.1192 -0.0745 -0.4963
 6977W        W49915  16.476  31.795   2.563  0.2218  0.2085  0.1774
 6978W        W49916  16.910  31.427   0.268  0.2378 -0.0123  0.0906
 6979W        W49917  16.802  30.767   1.044 -0.2176  0.1056 -0.1521
 6980W        W49918  18.902  28.304   0.388 -0.1593  0.0373 -0.3406
 6981W        W49919  16.789  31.960  31.393 -0.0924 -0.0811 -0.0218
 6982W        W49920  16.416  30.185   0.485  0.4571 -0.0679  0.1494
 6983W        W49921  18.786  26.317   2.859 -0.0687  0.2815 -0.0488
 6984W        W49922  17.007  30.922  31.178  0.0193 -0.1961  0.0368
 6985W        W49923  17.315  28.905   2.829 -0.0368 -0.0896  0.2810
 6986W        W49924  16.317  30.626   1.085  0.1174  0.1822  0.3630
 6987W        W49925  17.932  30.849   1.767 -0.0388  0.0629  0.0367
 6988W        W49926  15.874  29.790   2.797  0.4041 -0.1041 -0.0060
 6989W        W49927  16.818  32.006   2.138 -0.1252 -0.2392 -0.0534
 6990W        W49928  14.277  30.767   3.672  0.0771 -0.2636 -0.0016
 6991W        W49929  17.757  29.198   0.754  0.1017  0.0294  0.0849
 6992W        W49930  16.364  29.308   1.038 -0.2054 -0.0333  0.3333
 6993W        W49931  16.628  31.110   2.087  0.0906  0.1482 -0.0344
 6994W        W49932  18.218  31.557   1.883  0.1156 -0.1150 -0.0544
 6995W        W49933  16.483  30.301  31.964  0.1187 -0.1996 -0.0445
 6996W        W49934  17.440  29.348   2.850  0.1694 -0.2394  0.2455
 6997W        W49935  15.928  30.276   1.291 -0.2495  0.0043  0.0045
 6998W        W49936  17.873  30.182   0.485 -0.1369  0.3657  0.1684
 6999W        W49937  15.313  28.670   0.422 -0.1749 -0.0734 -0.3283
 7000W        W49938  17.277  31.751   1.729  0.0269  0.2145 -0.4859
 7001W        W49939  16.266  29.533   2.594 -0.1614 -0.2049  0.1136
 7002W        W49940  16.935  29.487   0.144  0.1030 -0.3474  0.1534
 7003W        W49941  16.332  29.788   0.165  0.0037 -0.0029  0.3025
 7004W        W49942  18.471  28.274   1.702  0.2294  0.1184 -0.1296
 7005W        W49943  17.812  29.375   2.560  0.0490  0.0879 -0.0895
 7006W        W49944  16.591  31.333   3.008  0.0230  0.1299  0.0834
 7007W        W49945  14.829  30.189   3.009  0.1341  0.2588 -0.0204
 7008W        W49946  18.772  31.733   2.900  0.0522 -0.2429  0.0382
 7009W        W49947  18.036  31.562   0.229 -0.0425 -0.3541  0.0417
 7010W        W49948  19.111  28.245   2.467 -0.1190 -0.1743 -0.0817
 7011W        W49949  16.993  29.895   2.396  0.3482 -0.0972 -0.0141
 7012W        W49950  17.499  30.013  31.675 -0.0569 -0.1504  0.0405
 7013W        W49951  14.968  30.173   2.416  0.0654  0.4412 -0.0910
 7014W        W49952  16.941  29.913   4.353 -0.1299  0.1602 -0.1730
 7015W        W49953  16.390  28.753   0.149 -0.0693  0.0772 -0.1188
 7016W        W49954  16.609  30.258   2.396  0.2731 -0.0631  0.2321
 7017W        W49955  16.056  31.705   0.203 -0.3445 -0.2879 -0.0182
 7018W        W49956  17.534  29.778   1.041  0.0327  0.1948 -0.1046
 7019W        W49957  18.498  29.937   1.380 -0.0440  0.2828  0.3509
 7020W        W49958  15.798  30.240   1.781 -0.2648  0.0121 -0.0247
 7021W        W49959  14.068  31.980   2.878 -0.0331  0.2879  0.2823
 7022W        W49960  15.859  31.190   0.507 -0.0650 -0.1323  0.1802
 7023W        W49961  16.766  30.747   0.004 -0.2190  0.0852  0.0685
 7024W        W49962  16.314  30.407   1.616  0.1962 -0.2581  0.0998
 7025W        W49963  17.697  30.868   2.896  0.2599  0.0573 -0.4080
 7026W        W49964  16.151  28.659  31.227 -0.2462  0.0376  0.1645
 7027W        W49965  17.045  28.672   1.419 -0.1465  0.0506  0.1038
 7028W        W49966  16.697  30.917   1.610 -0.1858  0.1570 -0.0170
 7029W        W49967  16.933  29.171   2.656 -0.0949 -0.0457  0.0364
 7030W        W49968  15.090  32.140   2.810  0.1496  0.1557 -0.0500
 7031W        W49969  15.038  31.686   1.033  0.0261 -0.0886  0.1432
 7032W        W49970  16.557  33.175   0.160 -0.2629 -0.3632  0.1195
 7033W        W49971  16.744  28.123   2.817 -0.2077  0.1133 -0.2202
 7034W        W49972  18.983  30.999   2.469 -0.1743 -0.0509  0.3256
 7035W        W49973  17.200  29.464   2.339 -0.0981  0.1798  0.0191
 7036W        W49974  18.518  30.342   2.921 -0.1269 -0.0275  0.2501
 7037W        W49975  15.989  31.442   2.972 -0.2712 -0.0091  0.0254
 7038W        W49976  15.290  30.693   1.753  0.0359  0.3220  0.0951
 7039W        W49977  16.470  32.111   4.042  0.1876  0.2752 -0.1757
 7040W        W49978  16.838  31.553   1.570 -0.3672 -0.0192  0.0678
 7041W        W49979  16.534  31.913   1.700  0.1966  0.0872  0.1697
 7042W        W49980  15.038  29.894   4.271  0.2090  0.0148  0.1319
 7043W        W49981  17.258  30.946   4.363  0.2970 -0.1337  0.1371
 7044W        W49982  17.708  30.443   3.259  0.1023  0.0713  0.3044
 7045W        W49983  16.093  29.847   0.959 -0.0503 -0.2717 -0.1915
 7046W        W49984  15.729  30.310  31.492  0.1486 -0.2126 -0.0950
 7047W        W49985  15.439  33.835   3.180  0.1383 -0.3571 -0.0002
 7048W        W49986  14.005  30.459   2.007 -0.3485 -0.0910  0.0221
 7049W        W49987  16.379  31.735   1.103 -0.3221 -0.2176 -0.1295
 7050W        W49988  17.389  30.221  30.784 -0.0027  0.1864 -0.0604
 7051W        W49989  16.706  31.532  30.987  0.0152 -0.3299 -0.0017
 7052W        W49990  17.638  31.417   3.605 -0.1393 -0.1138  0.1260
 7053W        W49991  16.134  27.947  31.692 -0.2974 -0.0650 -0.0327
 7054W        W49992  16.148  31.044   2.043  0.0220  0.0246 -0.1352
 7055W        W49993  15.166  32.024   0.204  0.1450  0.1605 -0.2387
 7056W        W49994  17.481  31.080   1.675  0.0626  0.1799  0.0515
 7057W        W49995  15.820  31.939   2.555 -0.0845  0.1068 -0.2130
 7058W        W49996  18.686  29.842   4.167  0.2134  0.3892  0.0154
 7059W        W49997  18.532  30.119  31.617  0.1874  0.2539  0.1486
 7060W        W49998  17.260  30.153   1.878 -0.0253 -0.0446 -0.0834
 7061W        W49999  18.899  30.109   0.440  0.3381 -0.2200 -0.4709
 7062W        W50000  18.477  31.699   3.780 -0.0874  0.3295 -0.2708
 7063W        W50001  16.843  30.467   1.945 -0.1238 -0.2748  0.1220
 7064W        W50002  16.370  29.112  30.983 -0.0730 -0.0847  0.0239
 7065W        W50003  14.345  32.141   3.218  0.0015 -0.0393  0.2050
 7066W        W50004  18.986  27.648   3.768 -0.1474  0.2813 -0.0121
 7067W        W50005  14.149  33.440   3.626  0.0109  0.0380 -0.1556
 7068W        W50006  18.344  31.738  31.726 -0.2281 -0.1914 -0.4916
 7069W        W50007  15.825  29.381   1.943 -0.1711  0.0139  0.2666
 7070W        W50008  17.511  31.403  31.347  0.1797  0.4727 -0.0772
 7071W        W50009  18.296  27.843   1.499 -0.1433 -0.0664 -0.1615
 7072W        W50010  17.128  29.719  30.768 -0.0177  0.2384  0.1626
 7073W        W50011  17.529  28.604   3.517 -0.1085  0.2296 -0.1673
 7074W        W50012  17.199  31.990   1.340 -0.2177  0.1558 -0.2975
 7075W        W50013  15.511  30.990   2.909  0.6225 -0.0221 -0.0039
 7076W        W50014  17.989  31.315   1.458 -0.0826 -0.0319  0.0809
 7077W        W50015  14.868  30.269   0.567  0.1683  0.0630 -0.2782
 7078W        W50016  19.208  29.503   1.568  0.0472  0.0751  0.3918
 7079W        W50017  16.093  30.920   2.895 -0.3270  0.1060 -0.2714
 7080W        W50018  17.854  27.641   2.231 -0.1195 -0.1075 -0.0510
 7081W        W50019  15.094  29.232   3.464 -0.0247  0.0575 -0.2530
 7082W        W50020  17.122  29.175  31.782  0.0207 -0.2594 -0.2689
 7083W        W50021  17.175  30.062   3.540  0.0215  0.0904 -0.3769
 7084W        W50022  17.051  31.503   3.220  0.4025 -0.1227  0.0039
 7085W        W50023  17.134  28.382  30.898 -0.0401 -0.0281  0.4137
 7086W        W50024  18.647  30.333   3.400 -0.5183  0.0655 -0.1959
 7087W        W50025  17.264  28.597  31.866  0.1557  0.2634  0.1201
 7088W        W50026  15.917  32.530   2.933  0.0678  0.0557 -0.3170
 7089W        W50027  15.601  29.865   2.007  0.0381 -0.0695  0.0530
 7090W        W50028  16.747  29.625   1.139 -0.0458  0.1544  0.0436
 7091W        W50029  16.570  30.606   0.609  0.0925 -0.1075 -0.3045
 7092W        W50030  16.629  29.044   1.617 -0.2000  0.3176  0.2176
 7093W        W50031  17.546  33.416   4.111 -0.2699  0.2048  0.2581
 7094W        W50032  15.790  28.942   1.627  0.0257 -0.0334  0.1466
 7095W        W50033  17.078  32.385   0.760 -0.2057  0.0620 -0.0524
 7096W        W50034  18.903  30.920   1.961 -0.3525  0.4157 -0.0101
 7097W        W50035  17.628  30.818   2.289 -0.0844 -0.0726 -0.0284
 7098W        W50036  17.092  30.467   2.330 -0.1710 -0.2398 -0.1768
 7099W        W50037  17.586  32.643   2.854 -0.0941  0.0074 -0.1753
 7100W        W50038  15.514  28.936   2.508 -0.3977  0.2842  0.0010
 7101W        W50039  17.611  31.255   4.092 -0.1770 -0.0835 -0.0354
 7102W        W50040  18.062  31.593   3.436  0.0792  0.0591  0.2148
 7103W        W50041  15.347  30.490   2.288  0.1585 -0.1729  0.2639
 7104W        W50042  14.455  32.481   0.967 -0.0834  0.0482  0.0313
 7105W        W50043  18.320  28.839   1.512 -0.1001  0.3246  0.1342
 7106W        W50044  18.274  29.525   2.325 -0.2982 -0.3159  0.0956
 7107W        W50045  15.614  31.942   0.366 -0.0353 -0.1404  0.1217
 7108W        W50046  16.563  27.647   3.682 -0.3113  0.0142 -0.0414
 7109W        W50047  16.888  30.233   0.668 -0.1704 -0.0327  0.0630
 7110W        W50048  15.206  32.906   3.530  0.0755 -0.1834  0.3289
 7111W        W50049  15.053  31.873  31.621 -0.1937 -0.1656  0.1777
 7112W        W50050  16.938  31.548   2.158  0.3343 -0.0250 -0.1188
 7113W        W50051  17.251  30.542   1.010  0.0144 -0.0778  0.0796
 7114W        W50052  17.500  30.403   0.068  0.0510  0.2305 -0.0193
 7115W        W50053  18.365  31.905   3.159 -0.1434  0.1879 -0.0641
 7116W        W50054  17.708  31.215   0.281  0.0309 -0.0074 -0.2572
 7117W        W50055  18.949  29.916   1.723  0.2396  0.0510  0.1988
 7118W        W50056  15.915  28.127   2.524 -0.1267  0.0686 -0.3762
 7119W        W50057  19.152  30.450   2.142  0.1580 -0.1184  0.3892
 7120W        W50058  17.499  29.667   0.525  0.1578  0.1995 -0.1059
 7121W        W50059  14.905  30.155   1.528  0.1999  0.0177  0.1513
 7122W        W50060  15.515  31.070   0.945 -0.0047  0.2995  0.2476
 7123W        W50061  16.007  30.236   0.215  0.2869  0.2594  0.2927
 7124W        W50062  13.913  31.565   1.117  0.0112 -0.0417 -0.0764
 7125W        W50063  15.976  29.270   3.149 -0.2845 -0.0031 -0.1671
 7126W        W50064  15.274  30.976   2.241 -0.1495  0.2199 -0.0287
 7127W        W50065  15.450  30.025   0.454 -0.1590 -0.1236 -0.2022
 7128W        W50066  15.857  28.860   1.131  0.2799  0.0532  0.0841
 7129W        W50067  17.812  30.823  31.962  0.0830 -0.2277  0.1941
 7130W        W50068  15.319  29.324   1.798 -0.0859  0.2449  0.0230
 7131W        W50069  14.645  29.922   1.005  0.2268  0.0147  0.0049
 7132W        W50070  17.785  30.507   1.347 -0.2739 -0.1526 -0.0557
 7133W        W50071  16.506  32.248   0.255 -0.0924  0.0354 -0.3668
 7134W        W50072  15.246  29.908   2.791 -0.0493  0.1634  0.2017
 7135W        W50073  18.055  31.019   4.172  0.1010  0.4835  0.1861
 7136W        W50074  16.755  32.273   1.391  0.2101 -0.1903 -0.2021
 7137W        W50075  16.682  30.195   2.896 -0.1098  0.2430  0.0711
 7138W        W50076  16.175  28.942   4.421 -0.0259  0.1882 -0.1059
 7139W        W50077  14.943  28.504   0.029 -0.0619 -0.1352  0.0978
 7140W        W50078  16.400  29.960   1.404  0.1518 -0.2797  0.0220
 7141W        W50079  17.163  32.895   0.845  0.1037 -0.3127 -0.1489
 7142W        W50080  16.869  31.918   0.933  0.2186  0.0930 -0.1476
 7143W        W50081  17.208  30.630   1.547  0.1831  0.0305  0.0109
 7144W        W50082  16.719  32.324   4.399 -0.1575 -0.0256 -0.0795
 7145W        W50083  13.794  28.895   2.624 -0.0181 -0.4300 -0.4209
 7146W        W50084  17.801  30.526   0.838 -0.0550 -0.2592  0.0460
 7147W        W50085  14.667  31.941   2.434  0.0354 -0.1653 -0.2131
 7148W        W50086  17.235  31.347   0.632 -0.0103  0.2039 -0.0212
 7149W        W50087  18.358  27.528   3.899  0.0674 -0.1306 -0.0312
 7150W        W50088  17.953  29.535   1.160 -0.1041 -0.1928  0.1481
 7151W        W50089  14.574  28.327   2.665  0.1296  0.1560 -0.2892
 7152W        W50090  14.868  32.270   3.236  0.1562 -0.1183 -0.0323
 7153W        W50091  18.551  31.400   1.442 -0.0578 -0.1234 -0.0566
 7154W        W50092  16.757  29.715   3.335  0.0038  0.0178 -0.1648
 7155W        W50093  18.022  29.039   1.158 -0.0860  0.4022  0.1130
 7156W        W50094  16.360  30.981  31.760  0.2260  0.2247  0.1659
 7157W        W50095  14.041  31.721   2.375 -0.1826 -0.3770 -0.4510
 7158W        W50096  17.433  29.538  31.923  0.2411 -0.2313 -0.1690
 7159W        W50097  16.724  29.688   2.815 -0.1202 -0.0148 -0.1128
 7160W        W50098  17.431  29.798   2.624  0.2021 -0.1337  0.2128
 7161W        W50099  17.061  30.553   2.844  0.1350  0.1007 -0.1560
 7162W        W50100  16.001  30.296   0.728 -0.0579 -0.1312  0.4086
 7163W        W50101  19.038  32.847   0.819 -0.2904  0.0106  0.1524
 7164W        W50102  15.400  32.115   1.856  0.1395  0.3241  0.1970
 7165W        W50103  17.137  32.621   3.053 -0.1435  0.0561 -0.0716
 7166W        W50104  17.798  31.722   1.718 -0.1101  0.1536  0.0832
 7167W        W50105  18.166  31.885   2.606  0.2870  0.1972 -0.3377
 7168W        W50106  14.124  29.200   2.424 -0.3622 -0.2052  0.0331
 7169W        W50107  17.014  29.723   0.601 -0.1974  0.0190  0.1283
 7170W        W50108  16.486  31.487   0.535  0.2028 -0.1239 -0.3626
 7171W        W50109  17.605  29.236   2.055 -0.1933  0.1899  0.0733
 7172W        W50110  15.814  30.744   1.849  0.2397 -0.1267 -0.0624
 7173W        W50111  16.837  29.010   0.229  0.0025 -0.1081  0.0787
 7174W        W50112  15.865  31.769   2.039  0.4274  0.3060 -0.1781
 7175W        W50113  16.666  29.516   2.232 -0.0390  0.1422 -0.1245
 7176W        W50114  14.681  32.079   6.568  0.1020  0.3327  0.1225
 7177W        W50115  15.864  29.490   4.683 -0.0701 -0.1679  0.1722
 7178W        W50116  16.599  31.065   3.743 -0.0723 -0.1137 -0.2018
 7179W        W50117  17.465  29.483   4.899  0.1472  0.1443  0.2049
 7180W        W50118  14.585  28.536   4.020  0.0274 -0.0572 -0.3370
 7181W        W50119  19.113  32.770   5.150 -0.0668  0.5065  0.2464
 7182W        W50120  16.043  29.192   6.815  0.0218  0.1190 -0.0799
 7183W        W50121  17.220  31.774   5.381 -0.4264 -0.1185  0.2112
 7184W        W50122  17.380  31.778   5.844 -0.2820 -0.0991  0.0234
 7185W        W50123  17.153  30.938   3.811  0.0992 -0.2884  0.0413
 7186W        W50124  16.505  30.535   6.685  0.3222  0.0382 -0.0963
 7187W        W50125  16.242  32.289   5.890 -0.0743 -0.0523  0.0436
 7188W        W50126  14.378  30.072   2.726 -0.3240  0.0069  0.2058
 7189W        W50127  15.339  28.698   5.134  0.1372 -0.2542 -0.0559
 7190W        W50128  18.040  29.856   4.980 -0.1196  0.1414  0.0287
 7191W        W50129  14.128  31.730   3.278  0.0532 -0.0141 -0.0762
 7192W        W50130  14.483  30.132   5.407  0.0215  0.3650  0.4224
 7193W        W50131  16.325  30.924   3.390  0.0616 -0.0300 -0.3105
 7194W        W50132  17.306  33.885   4.886 -0.1195 -0.1645  0.0164
 7195W        W50133  17.250  30.366   5.295  0.0038 -0.2756 -0.0148
 7196W        W50134  16.546  29.299   6.841  0.2269 -0.0668  0.0581
 7197W        W50135  17.492  31.833   4.815 -0.2673  0.0575 -0.0877
 7198W        W50136  14.748  31.069   3.397 -0.0084  0.1577 -0.1669
 7199W        W50137  14.961  29.435   5.467  0.0179 -0.2901 -0.3105
 7200W        W50138  15.475  29.753   4.592 -0.2050  0.2133 -0.1141
 7201W        W50139  16.513  30.329   5.531 -0.1328  0.0251  0.4276
 7202W        W50140  17.750  30.441   5.223  0.3598 -0.0583  0.1652
 7203W        W50141  16.331  32.951   4.912  0.0282  0.1937 -0.0965
 7204W        W50142  17.598  32.296   3.875 -0.0305 -0.0330  0.0899
 7205W        W50143  17.173  29.015   6.838  0.2138  0.1378 -0.2217
 7206W        W50144  14.528  29.332   3.690 -0.0137 -0.2398 -0.0299
 7207W        W50145  14.848  31.648   5.272  0.0407 -0.0181  0.0389
 7208W        W50146  16.749  31.870   4.496  0.2011  0.0421 -0.1291
 7209W        W50147  17.535  30.960   4.911 -0.2371  0.0777 -0.1411
 7210W        W50148  17.228  31.682   6.320  0.0680 -0.2990 -0.0917
 7211W        W50149  15.210  33.747   6.692  0.0800  0.1072 -0.1177
 7212W        W50150  16.396  31.644   4.163 -0.1193 -0.3062 -0.2840
 7213W        W50151  17.288  33.333   7.483  0.0131 -0.0429 -0.1302
 7214W        W50152  16.318  32.801   5.866  0.2054  0.1254 -0.3201
 7215W        W50153  17.662  31.510   6.643 -0.1217 -0.1537 -0.0421
 7216W        W50154  17.762  31.748   5.260  0.0918  0.1460 -0.2193
 7217W        W50155  16.417  30.521   3.767 -0.0567  0.0463  0.1487
 7218W        W50156  17.080  33.243   6.056 -0.0630 -0.0958 -0.2190
 7219W        W50157  16.129  32.889   7.158  0.4943  0.1622  0.0883
 7220W        W50158  16.008  31.463   5.651  0.2148  0.0124 -0.3775
 7221W        W50159  18.890  30.713   6.283  0.0385  0.0558 -0.0799
 7222W        W50160  15.831  31.390   3.799 -0.0227 -0.1344  0.0549
 7223W        W50161  16.728  28.092   4.267  0.0086 -0.1427  0.1403
 7224W        W50162  15.918  30.352   3.627 -0.2724 -0.1219 -0.0082
 7225W        W50163  18.845  30.730   5.464 -0.1281  0.0655 -0.0983
 7226W        W50164  15.621  28.513   5.484 -0.0870  0.1419  0.0742
 7227W        W50165  15.569  32.015   5.851 -0.0252 -0.1530  0.0823
 7228W        W50166  16.574  30.077   5.971 -0.2041  0.1111  0.0010
 7229W        W50167  17.738  31.596   6.145 -0.1185 -0.1742 -0.2419
 7230W        W50168  16.085  30.382   4.339  0.0392  0.1858  0.2914
 7231W        W50169  17.044  30.314   5.824 -0.0262 -0.1261 -0.1957
 7232W        W50170  16.961  31.619   4.894 -0.1985 -0.1162 -0.2265
 7233W        W50171  14.667  31.066   3.867 -0.2392 -0.2440  0.2645
 7234W        W50172  17.731  30.829   4.506 -0.0830 -0.1774  0.0478
 7235W        W50173  17.476  32.599   4.203  0.1609  0.1279 -0.1946
 7236W        W50174  16.057  32.459   3.852  0.0235  0.3218  0.0636
 7237W        W50175  14.948  30.058   5.374  0.4966  0.2350 -0.2302
 7238W        W50176  14.569  31.672   6.780 -0.1459 -0.0329 -0.0590
 7239W        W50177  15.524  31.116   5.777  0.0896  0.1113  0.2827
 7240W        W50178  16.541  29.277   3.033  0.0249  0.0064 -0.1078
 7241W        W50179  19.638  32.197   7.788  0.1855 -0.1475 -0.0055
 7242W        W50180  14.920  31.591   6.388  0.2497  0.2726  0.0383
 7243W        W50181  17.494  28.624   4.206 -0.0969 -0.1291  0.1866
 7244W        W50182  16.698  32.036   5.276 -0.1590 -0.0262 -0.2190
 7245W        W50183  18.955  31.712   6.976 -0.2742  0.0402  0.1198
 7246W        W50184  16.366  31.156   2.519  0.2617  0.1361 -0.1301
 7247W        W50185  16.887  29.887   5.654  0.0920 -0.3351  0.0810
 7248W        W50186  16.288  28.353   6.714  0.4444 -0.1293 -0.1091
 7249W        W50187  15.900  31.168   3.365 -0.0884 -0.1194  0.2681
 7250W        W50188  17.151  30.644   4.823  0.1723 -0.1656  0.3323
 7251W        W50189  17.823  31.024   5.364 -0.1255  0.0995  0.0985
 7252W        W50190  17.751  30.844   3.680 -0.2072 -0.1591  0.0816
 7253W        W50191  14.252  31.410   6.339 -0.0164 -0.2698 -0.0746
 7254W        W50192  16.558  29.481   6.315  0.1743 -0.0896 -0.1482
 7255W        W50193  16.730  32.525   5.874  0.0179 -0.0239  0.1680
 7256W        W50194  14.323  32.972   3.777  0.1199 -0.1744  0.2385
 7257W        W50195  15.178  29.357   4.475 -0.3362  0.2047 -0.0500
 7258W        W50196  15.013  31.878   3.870 -0.1653 -0.1439 -0.0027
 7259W        W50197  14.600  30.133   6.136 -0.2449 -0.0580  0.1783
 7260W        W50198  16.519  31.593   5.960  0.0591 -0.2561 -0.1150
 7261W        W50199  16.902  30.827   5.196  0.2768 -0.2370  0.1917
 7262W        W50200  14.917  29.415   6.140 -0.2460 -0.0088  0.2427
 7263W        W50201  16.196  29.720   5.991 -0.0317  0.0484  0.0228
 7264W        W50202  14.457  31.395   3.111  0.2654 -0.0385  0.0101
 7265W        W50203  18.218  31.833   4.720  0.0659  0.0568  0.0349
 7266W        W50204  18.264  29.797   4.479  0.2236 -0.6231 -0.1376
 7267W        W50205  16.683  31.702   3.740  0.0083 -0.1945  0.1826
 7268W        W50206  14.727  31.452   5.761  0.3253  0.0475 -0.2008
 7269W        W50207  14.899  30.393   5.818 -0.1232 -0.2933 -0.2510
 7270W        W50208  16.742  30.466   7.462 -0.4084  0.0773  0.2588
 7271W        W50209  14.839  28.888   5.326 -0.2733 -0.0315  0.0992
 7272W        W50210  17.395  30.897   7.292 -0.1901  0.0848  0.2598
 7273W        W50211  16.089  29.097   4.913  0.0284  0.2442  0.6386
 7274W        W50212  16.756  28.874   4.317 -0.0687 -0.2502 -0.2930
 7275W        W50213  15.717  30.179   5.315  0.2720  0.2316  0.0098
 7276W        W50214  14.902  30.960   4.319 -0.2903  0.1835  0.0105
 7277W        W50215  17.619  29.018   6.602  0.1581  0.1819 -0.5917
 7278W        W50216  17.861  32.921   4.155 -0.0791  0.2560  0.1494
 7279W        W50217  18.289  33.047   5.350 -0.0213  0.1288 -0.0121
 7280W        W50218  15.699  33.484   2.884  0.3491 -0.1049  0.0593
 7281W        W50219  15.400  29.158   6.150  0.0353 -0.0612 -0.2179
 7282W        W50220  15.048  28.696   3.880  0.1477 -0.1424 -0.3841
 7283W        W50221  14.525  32.881   6.035 -0.2043  0.2961 -0.1246
 7284W        W50222  16.503  31.096   6.047  0.0395 -0.0549 -0.0691
 7285W        W50223  16.189  30.131   5.198  0.4047 -0.2098  0.0423
 7286W        W50224  19.451  32.092   4.247  0.0605  0.0364  0.1072
 7287W        W50225  17.458  31.306   5.654  0.0892  0.0495  0.2377
 7288W        W50226  16.378  31.861   6.365 -0.0487  0.3767  0.0667
 7289W        W50227  16.998  29.084   7.360  0.3389 -0.0718 -0.0408
 7290W        W50228  18.667  30.253   7.717 -0.1999 -0.1641  0.1237
 7291W        W50229  16.656  31.016   6.740  0.0104 -0.0080 -0.2310
 7292W        W50230  15.586  29.091   4.716 -0.0741  0.0267 -0.1229
 7293W        W50231  18.005  33.256   4.468 -0.3881 -0.0426 -0.1462
 7294W        W50232  14.887  31.449   2.234 -0.0032  0.3781 -0.2155
 7295W        W50233  13.896  31.618   3.889 -0.4026  0.0305  0.2258
 7296W        W50234  17.548  31.805   4.098  0.0015 -0.0185  0.1732
 7297W        W50235  18.570  29.247   5.650  0.3690  0.0746  0.0157
 7298W        W50236  13.905  32.513   7.243  0.1667 -0.2073  0.1170
 7299W        W50237  16.840  29.997   7.436  0.0511  0.2136  0.1544
 7300W        W50238  14.449  29.893   4.866  0.2075  0.0188 -0.1471
 7301W        W50239  14.763  33.024   6.552  0.1212 -0.1909  0.3325
 7302W        W50240  17.232  28.092   4.926 -0.2936 -0.3314  0.1079
 7303W        W50241  17.573  29.964   5.018 -0.0337 -0.0458 -0.0598
 7304W        W50242  15.462  30.537   6.938  0.0304 -0.1188 -0.1362
 7305W        W50243  17.750  29.103   4.119 -0.2313  0.0305  0.0297
 7306W        W50244  18.243  30.651   3.299  0.0208  0.1819  0.1032
 7307W        W50245  15.031  28.726   2.525 -0.0500 -0.2141 -0.1151
 7308W        W50246  14.209  32.291   6.849  0.0871  0.2175  0.0456
 7309W        W50247  16.076  31.823   5.976  0.1010 -0.1460 -0.1439
 7310W        W50248  16.620  33.515   5.843  0.0512 -0.2867  0.1211
 7311W        W50249  15.311  30.535   3.113  0.1080 -0.0213 -0.0928
 7312W        W50250  18.013  30.196   4.550 -0.2451 -0.0326 -0.0266
 7313W        W50251  15.818  30.561   5.864 -0.1933  0.0683  0.0945
 7314W        W50252  15.679  31.028   6.315 -0.2719 -0.0408 -0.1873
 7315W        W50253  16.148  31.095   5.251  0.0724 -0.3343  0.3518
 7316W        W50254  14.469  28.451   5.480  0.0688 -0.0216 -0.0380
 7317W        W50255  17.409  30.484   3.707  0.0541  0.1845  0.0223
 7318W        W50256  16.229  29.579   5.016 -0.4291  0.3902 -0.1742
 7319W        W50257  15.696  32.824   4.296  0.1180  0.0426  0.0209
 7320W        W50258  17.695  28.427   4.638  0.0387  0.4643  0.0259
 7321W        W50259  16.666  30.901   4.618  0.1283  0.1327 -0.0608
 7322W        W50260  16.353  28.800   6.519 -0.1476 -0.1743  0.1499
 7323W        W50261  18.102  30.319   7.055 -0.0451  0.2583  0.3712
 7324W        W50262  16.733  29.628   4.744 -0.1035  0.2017 -0.1697
 7325W        W50263  16.624  29.412   5.240  0.1746 -0.0972  0.1534
 7326W        W50264  14.919  31.057   1.848 -0.0073  0.3453 -0.0715
 7327W        W50265  17.666  29.646   7.436  0.1805 -0.2379 -0.0037
 7328W        W50266  14.629  30.532   4.594  0.2203  0.4113 -0.3776
 7329W        W50267  15.810  31.748   6.403 -0.0872 -0.0930 -0.0490
 7330W        W50268  16.999  32.115   7.048 -0.0421  0.4258 -0.1457
 7331W        W50269  16.905  32.697   5.188 -0.2660  0.0112 -0.4462
 7332W        W50270  16.828  30.282   6.985  0.1368 -0.1509 -0.0759
 7333W        W50271  16.480  30.158   4.149  0.2078 -0.3828  0.2162
 7334W        W50272  17.305  32.138   4.474  0.4077 -0.1927 -0.1888
 7335W        W50273  16.290  31.402   3.562  0.2673  0.1946 -0.0171
 7336W        W50274  15.736  29.008   5.229  0.0710 -0.0082 -0.0125
 7337W        W50275  16.321  33.174   5.423 -0.0554  0.1384 -0.0001
 7338W        W50276  16.741  32.918   4.656 -0.0302 -0.0835  0.4367
 7339W        W50277  17.067  30.163   6.377 -0.3305 -0.0790  0.2765
 7340W        W50278  15.824  31.271   4.276  0.3452 -0.0810 -0.1276
 7341W        W50279  16.310  28.974   7.220 -0.2422 -0.0719  0.1720
 7342W        W50280  15.014  31.425   3.628  0.0003 -0.2460 -0.0688
 7343W        W50281  13.699  30.301   4.485 -0.2867 -0.2018  0.1738
 7344W        W50282  13.917  31.124   3.798 -0.1061  0.1121 -0.0321
 7345W        W50283  16.401  29.805   5.513  0.1203  0.0445 -0.3390
 7346W        W50284  16.245  31.102   4.036 -0.0071 -0.1191 -0.1975
 7347W        W50285  15.052  29.020   5.807  0.0461  0.1296 -0.0832
 7348W        W50286  15.819  29.096   5.747  0.1620  0.1318 -0.3484
 7349W        W50287  13.569  33.106   6.104 -0.0342  0.3367  0.1294
 7350W        W50288  18.198  30.270   7.541 -0.0587  0.0608 -0.0067
 7351W        W50289  16.366  29.914   4.623  0.0780  0.1289 -0.0568
 7352W        W50290  17.173  31.177   6.692 -0.1323  0.2758 -0.3272
 7353W        W50291  16.758  31.067   7.471 -0.2893 -0.1839 -0.1600
 7354W        W50292  15.410  30.532   3.679  0.0456 -0.0286  0.0814
 7355W        W50293  17.878  30.022   7.815 -0.0485 -0.2003 -0.1933
 7356W        W50294  16.396  28.914   5.411 -0.2598  0.2197  0.0517
 7357W        W50295  15.868  30.647   3.251 -0.1119  0.2242  0.3771
 7358W        W50296  16.351  32.455   6.323  0.3346 -0.0692  0.3191
 7359W        W50297  14.965  31.466   3.100  0.1205 -0.2895  0.1328
 7360W        W50298  16.912  30.429   4.493 -0.0893 -0.0369 -0.1454
 7361W        W50299  15.133  30.905   7.138  0.0311 -0.2400  0.0774
 7362W        W50300  18.043  30.968   8.516 -0.0186  0.0029  0.1724
 7363W        W50301  16.627  29.463   5.837 -0.1149 -0.0389 -0.0597
 7364W        W50302  15.508  29.379   5.425  0.0624 -0.4846 -0.1291
 7365W        W50303  15.388  30.483   5.077  0.1183 -0.0352 -0.0460
 7366W        W50304  18.159  31.224   6.960 -0.2393 -0.1957 -0.0007
 7367W        W50305  15.381  29.875   5.548 -0.2313 -0.2470  0.1303
 7368W        W50306  16.100  31.950   6.775 -0.0231  0.0637 -0.1374
 7369W        W50307  16.902  29.090   6.199 -0.2103 -0.1280 -0.2564
 7370W        W50308  18.512  30.883   4.818 -0.2378  0.0807 -0.0255
 7371W        W50309  17.447  30.102   6.068  0.2206 -0.0392  0.0581
 7372W        W50310  15.183  30.942   3.837  0.0663  0.0050  0.2781
 7373W        W50311  15.358  30.392   5.660  0.0435  0.1992 -0.0200
 7374W        W50312  15.991  31.733   3.416 -0.2313  0.2892  0.1597
 7375W        W50313  16.116  30.151   5.726  0.1266 -0.1265 -0.1611
 7376W        W50314  15.333  30.994   5.036  0.0298  0.0067  0.0939
 7377W        W50315  15.644  31.305   5.331 -0.0552 -0.0139 -0.1149
 7378W        W50316  16.546  31.078   5.576  0.1570  0.2424  0.0542
 7379W        W50317  15.942  29.300   4.114  0.0186 -0.1806  0.1930
 7380W        W50318  17.124  31.456   3.878  0.0735  0.0344 -0.2529
 7381W        W50319  16.103  29.307   5.396 -0.2638 -0.0627  0.1477
 7382W        W50320  18.465  28.517   5.462  0.0815 -0.2611 -0.2490
 7383W        W50321  18.344  30.674   3.867  0.1360 -0.0846  0.4312
 7384W        W50322  17.704  29.664   5.988  0.2721  0.1842  0.0599
 7385W        W50323  14.478  29.187   8.145  0.0389  0.0107 -0.2148
 7386W        W50324  17.128  29.702   5.239 -0.0857 -0.3520  0.2673
 7387W        W50325  15.843  29.367   6.211  0.1227  0.3627  0.2618
 7388W        W50326  17.373  33.034   8.940 -0.1589  0.0783 -0.0422
 7389W        W50327  15.777  32.255   6.485  0.0416  0.2537  0.1308
 7390W        W50328  17.243  29.387   5.842 -0.3276 -0.3663 -0.0774
 7391W        W50329  14.793  28.396   3.615 -0.4065  0.5201 -0.2185
 7392W        W50330  16.759  30.057   5.149  0.3478  0.4899  0.1208
 7393W        W50331  18.468  31.680   5.783 -0.1730  0.0434  0.1410
 7394W        W50332  16.827  31.214   4.241 -0.2073  0.3193 -0.0766
 7395W        W50333  17.224  29.078   4.218  0.0913  0.0595  0.0541
 7396W        W50334  15.983  30.604   4.911  0.2570 -0.0016 -0.1078
 7397W        W50335  17.371  30.504   4.244  0.0926 -0.1331 -0.2515
 7398W        W50336  17.548  31.326   4.628 -0.2732  0.0364  0.0562
 7399W        W50337  16.634  31.553   5.426 -0.0686 -0.0687 -0.1483
 7400W        W50338  15.893  28.620   6.688 -0.2228  0.0778 -0.0102
 7401W        W50339  18.514  31.391   4.937  0.0980 -0.1775 -0.2758
 7402W        W50340  16.883  28.152   5.313 -0.0312  0.1824  0.1041
 7403W        W50341  16.547  29.805   6.884 -0.0723  0.0490  0.2047
 7404W        W50342  17.961  29.539   6.553  0.1373 -0.2084 -0.4289
 7405W        W50343  17.198  30.395   7.305 -0.0244  0.3604 -0.3997
 7406W        W50344  15.390  30.059   7.105  0.0156  0.1166 -0.1643
 7407W        W50345  18.115  32.082   5.319 -0.0749  0.1127  0.1293
 7408W        W50346  18.083  29.716   2.854 -0.2180 -0.4991 -0.0234
 7409W        W50347  17.477  29.789   6.438  0.1514 -0.0997  0.2057
 7410W        W50348  16.577  31.236   5.022 -0.1513  0.0430 -0.0957
 7411W        W50349  17.208  29.570   3.980 -0.0321 -0.2470  0.1926
 7412W        W50350  14.882  30.261   4.960 -0.1382 -0.1362  0.3799
 7413W        W50351  17.766  31.030   6.840 -0.1661 -0.2739 -0.1387
 7414W        W50352  15.497  29.595   4.174  0.1123 -0.0124 -0.0245
 7415W        W50353  17.531  30.302   6.521  0.1407  0.0159  0.3928
 7416W        W50354  15.699  32.263   4.557  0.1663 -0.0422 -0.1099
 7417W        W50355  17.818  29.935   6.829  0.1608 -0.2067 -0.1736
 7418W        W50356  17.619  29.555   3.737  0.0469 -0.0943 -0.1351
 7419W        W50357  14.870  30.554   6.324  0.0698 -0.0262  0.3362
 7420W        W50358  14.407  32.340   5.957 -0.2523 -0.4171  0.0906
 7421W        W50359  15.771  29.908   3.841 -0.0025 -0.0626 -0.0648
 7422W        W50360  15.592  29.130   3.402  0.1409 -0.0724 -0.0255
 7423W        W50361  16.849  31.966   6.436  0.0187 -0.0200 -0.1027
 7424W        W50362  19.521  31.247   8.058 -0.0327 -0.0574  0.1916
 7425W        W50363  15.067  29.862   3.341 -0.2456  0.2388 -0.0413
 7426W        W50364  17.001  29.741   6.139  0.0327 -0.1077  0.0575
 7427W        W50365  14.360  30.780   3.162 -0.0179 -0.0016  0.0370
 7428W        W50366  16.826  28.662   5.248 -0.0829 -0.1815  0.0626
 7429W        W50367  16.146  32.209   5.123 -0.0916 -0.1924 -0.1822
 7430W        W50368  16.129  31.354   6.199  0.0441 -0.0694  0.1569
 7431W        W50369  16.963  32.025   4.077 -0.1691  0.2634  0.1058
 7432W        W50370  16.855  28.649   6.509 -0.0842 -0.2914 -0.0443
 7433W        W50371  17.099  30.661   6.647 -0.2191  0.0842 -0.0687
 7434W        W50372  16.049  30.843   4.429  0.7095 -0.0784 -0.1228
 7435W        W50373  18.306  30.779   7.830 -0.0938  0.2150  0.2226
 7436W        W50374  17.272  31.736   7.378 -0.0894 -0.2244  0.0422
 7437W        W50375  13.781  29.673   4.062  0.3343 -0.0038 -0.0087
 7438W        W50376  15.967  32.081   7.653  0.0826 -0.1370  0.0959
 7439W        W50377  15.768  31.201   4.841 -0.0026  0.1163 -0.0484
 7440W        W50378  14.943  30.400   6.952 -0.2132 -0.2328 -0.1439
 7441W        W50379  17.084  30.753   7.709  0.0755  0.2438  0.1326
 7442W        W50380  16.848  32.024   5.894 -0.1557  0.3997 -0.1184
 7443W        W50381  15.997  28.973   2.214  0.0056 -0.0008 -0.0592
 7444W        W50382  16.985  33.364   4.603 -0.2534  0.2656  0.5348
 7445W        W50383  13.851  31.825   5.425 -0.0829 -0.3292 -0.1394
 7446W        W50384  14.296  32.595   6.412 -0.0984 -0.1037 -0.2019
 7447W        W50385  14.682  32.704   4.057  0.1897 -0.6087  0.0487
 7448W        W50386  19.236  31.912   4.613  0.3707 -0.1181  0.1537
 7449W        W50387  17.639  30.425   4.732  0.1326  0.3593  0.0452
 7450W        W50388  16.486  33.659   5.334  0.2593  0.1356 -0.0379
 7451W        W50389  14.401  31.422   3.650 -0.1710 -0.3472  0.0855
 7452W        W50390  15.358  32.686   4.780  0.2062 -0.3225  0.1205
 7453W        W50391  14.180  34.002   2.848  0.1450 -0.1005  0.0207
 7454W        W50392  17.983  30.366   3.649  0.1325 -0.1005  0.2549
 7455W        W50393  15.372  31.921   6.321 -0.1796  0.0139 -0.0580
 7456W        W50394  17.193  31.332   7.620 -0.0250  0.0141  0.5914
 7457W        W50395  18.191  28.036   3.954  0.0967  0.4164 -0.1183
 7458W        W50396  18.407  29.538   4.900 -0.0696  0.0605 -0.2432
 7459W        W50397  17.189  29.506   4.496  0.0679  0.2208  0.1148
 7460W        W50398  17.559  32.421   7.022 -0.1482  0.2495  0.3272
 7461W        W50399  16.092  30.243   6.247  0.0974 -0.2645 -0.0326
 7462W        W50400  15.882  29.510   3.606 -0.1026 -0.0904  0.1955
 7463W        W50401  16.116  30.800   6.287  0.0348  0.3933  0.0360
 7464W        W50402  18.389  29.296   6.399  0.0745  0.2586 -0.1262
 7465W        W50403  13.853  32.561   6.007  0.0887  0.0579  0.0767
 7466W        W50404  17.830  33.818   4.184  0.0166  0.0247  0.2454
 7467W        W50405  13.666  29.029   5.487  0.0412  0.1857 -0.2424
 7468W        W50406  16.463  31.885   4.876 -0.0593 -0.1375 -0.0814
 7469W        W50407  18.422  28.561   6.029 -0.0529 -0.0856  0.1727
 7470W        W50408  16.588  30.741   4.186 -0.0489  0.1414 -0.1327
 7471W        W50409  16.514  28.343   5.030 -0.1876 -0.0264  0.4139
 7472W        W50410  16.095  31.599   5.140 -0.0656  0.2044 -0.0750
 7473W        W50411  15.111  31.713   4.866  0.2411  0.1470 -0.2581
 7474W        W50412  14.921  32.075   6.150  0.1736  0.3048 -0.2406
 7475W        W50413  13.747  29.353   4.487 -0.0894 -0.1800 -0.0808
 7476W        W50414  18.089  29.727   3.433 -0.0882  0.1305 -0.0495
 7477W        W50415  16.096  30.584   5.456 -0.0732  0.0695 -0.1468
 7478W        W50416  17.756  28.588   6.206  0.2373  0.0370  0.1373
 7479W        W50417  13.974  30.406   2.580 -0.4101 -0.1768 -0.1123
 7480W        W50418  16.968  30.824   5.673 -0.0406  0.0025 -0.0990
 7481W        W50419  16.441  31.348   7.227  0.0594 -0.0681 -0.0040
 7482W        W50420  15.314  30.613   6.079 -0.2096  0.3372 -0.0634
 7483W        W50421  16.213  29.981   3.613  0.0537 -0.0394  0.1467
 7484W        W50422  18.084  31.237   7.895  0.1266 -0.0008 -0.1942
 7485W        W50423  16.255  32.105   3.585 -0.1524  0.3623 -0.0805
 7486W        W50424  17.718  32.525   7.547  0.0076 -0.0836  0.0394
 7487W        W50425  15.759  28.737   4.144  0.2356 -0.3756  0.2545
 7488W        W50426  17.008  30.516   3.353  0.2115 -0.1960 -0.0707
 7489W        W50427  15.669  30.810   5.413 -0.1387  0.1949 -0.0453
 7490W        W50428  16.041  30.988   5.802  0.0913 -0.1387  0.0997
 7491W        W50429  17.585  31.024   7.769 -0.0309  0.3624 -0.0958
 7492W        W50430  14.956  28.476   4.442 -0.0205 -0.4381 -0.0066
 7493W        W50431  17.076  31.181   4.771 -0.1495 -0.2730 -0.4829
 7494W        W50432  17.283  28.929   5.654 -0.0388  0.2972 -0.0198
 7495W        W50433  16.413  33.104   3.521 -0.1850  0.1875  0.3361
 7496W        W50434  17.378  30.831   5.374  0.0240 -0.1841  0.0651
 7497W        W50435  17.612  32.167   5.481  0.2337  0.1635 -0.0983
 7498W        W50436  14.598  28.789   5.824  0.3029  0.0964 -0.2228
 7499W        W50437  17.106  32.321   5.510 -0.0784  0.4155  0.0074
 7500W        W50438  18.293  32.389   4.982 -0.1088  0.1483 -0.4331
 7501W        W50439  17.092  28.657   3.372  0.2874  0.5374  0.0296
 7502W        W50440  15.070  30.808   5.430 -0.2028  0.0106  0.0175
 7503W        W50441  15.799  32.004   5.402 -0.2105  0.2959 -0.1438
 7504W        W50442  17.295  29.323   6.415 -0.1190  0.0663  0.3091
 7505W        W50443  17.446  30.001   5.606 -0.1300  0.0733 -0.1922
 7506W        W50444  17.470  31.382   5.164  0.2813  0.1411  0.0787
 7507W        W50445  17.854  28.106   6.741  0.1698 -0.1678 -0.0305
 7508W        W50446  16.770  31.502   6.389 -0.1410  0.0519 -0.0080
 7509W        W50447  16.163  32.998   6.396 -0.1640  0.2473  0.0004
 7510W        W50448  15.989  29.853   4.291 -0.0990 -0.0871 -0.0777
 7511W        W50449  15.709  30.492   6.510  0.2456  0.2809  0.1972
 7512W        W50450  16.944  32.114   4.843  0.5071 -0.1943  0.1480
 7513W        W50451  16.421  32.456   5.433  0.2844 -0.2594  0.2955
 7514W        W50452  18.474  31.663   7.101 -0.0122 -0.0495  0.0447
 7515W        W50453  15.866  29.699   5.631  0.0254 -0.0960 -0.0059
 7516W        W50454  18.380  30.933   5.290  0.7008  0.0225 -0.2863
 7517W        W50455  16.216  28.490   4.631 -0.2398  0.3332  0.0223
 7518W        W50456  16.938  30.364   3.909  0.0219 -0.0722 -0.3855
 7519W        W50457  18.376  28.494   4.063 -0.0664 -0.0799 -0.0740
 7520W        W50458  16.436  30.788   7.144 -0.0233  0.0620 -0.0278
 7521W        W50459  14.421  31.881   4.194  0.0272 -0.1564 -0.1691
 7522W        W50460  15.087  32.418   3.725 -0.1885 -0.0235 -0.0410
 7523W        W50461  15.752  29.714   5.113  0.1642 -0.0063  0.1685
 7524W        W50462  16.555  28.161   7.189 -0.2488 -0.1972  0.0347
 7525W        W50463  15.473  29.617   5.984 -0.0028  0.3125 -0.3196
 7526W        W50464  15.858  30.124   4.768 -0.1442 -0.2718  0.3042
 7527W        W50465  14.732  28.914   4.465 -0.2458 -0.0105 -0.3459
 7528W        W50466  17.594  32.658   4.733 -0.3170  0.1301 -0.3345
 7529W        W50467  14.775  29.839   5.776  0.2156 -0.1382 -0.0968
 7530W        W50468  14.561  28.741   4.892  0.2396  0.2412 -0.2535
 7531W        W50469  18.044  31.107   4.879 -0.1642  0.1893  0.0724
 7532W        W50470  18.023  32.642   4.557 -0.1724  0.0643  0.1340
 7533W        W50471  15.668  30.104   5.877 -0.1551 -0.2243 -0.0722
 7534W        W50472  19.542  32.496   8.252  0.3992 -0.2560  0.2363
 7535W        W50473  14.136  32.043   3.718 -0.1626 -0.0381  0.2316
 7536W        W50474  17.551  30.527   6.949  0.3048 -0.0755 -0.1753
 7537W        W50475  15.415  28.643   6.423  0.3832 -0.0415 -0.1608
 7538W        W50476  14.667  27.904   3.360  0.2030 -0.2368 -0.0747
 7539W        W50477  16.353  30.621   5.883  0.0519 -0.0155 -0.4300
 7540W        W50478  16.612  33.752   4.379  0.1820 -0.2322  0.1620
 7541W        W50479  17.045  31.266   5.361  0.2997 -0.0622  0.0067
 7542W        W50480  17.342  32.449   7.938  0.0135  0.0017  0.0073
 7543W        W50481  15.931  28.840   6.171 -0.1551  0.1206  0.0669
 7544W        W50482  17.402  30.020   4.037 -0.3096  0.0134  0.1345
 7545W        W50483  17.487  32.909   7.238  0.3713 -0.2184 -0.2167
 7546W        W50484  16.757  29.817   3.893 -0.0802  0.3400 -0.0079
 7547W        W50485  16.974  29.106   4.708  0.4631 -0.1965 -0.1257
 7548W        W50486  15.484  30.112   3.405  0.0628 -0.1146 -0.1638
 7549W        W50487  15.557  28.297   7.004  0.1810  0.0268 -0.3172
 7550W        W50488  14.244  30.949   6.573 -0.0857 -0.2777  0.0391
 7551W        W50489  17.617  30.452   5.750  0.1360  0.0741  0.2293
 7552W        W50490  17.211  28.664   4.807  0.4205  0.0096  0.0634
 7553W        W50491  16.390  29.128   4.003  0.0359  0.2069  0.1388
 7554W        W50492  18.064  32.117   3.635  0.1440  0.1679 -0.1862
 7555W        W50493  15.255  30.931   6.576  0.0047 -0.2810  0.0274
 7556W        W50494  17.112  30.066   4.803  0.2800 -0.0106 -0.2856
 7557W        W50495  16.567  30.054   6.450  0.1548  0.0918  0.1549
 7558W        W50496  17.214  33.199   5.484  0.2563  0.1558  0.1615
 7559W        W50497  16.949  30.994   6.269 -0.0925  0.1776  0.1447
 7560W        W50498  14.703  30.572   3.918 -0.0419  0.0949  0.2821
 7561W        W50499  17.635  29.541   4.244  0.0409  0.1218 -0.0509
 7562W        W50500  17.977  31.289   5.750 -0.0434  0.1997 -0.0831
 7563W        W50501  17.544  32.821   6.748 -0.2516  0.1419 -0.1492
 7564W        W50502  16.545  32.987   6.763 -0.0872  0.1534  0.0927
 7565W        W50503  17.653  30.901   5.869 -0.1336  0.2982 -0.2460
 7566W        W50504  14.454  28.255   6.368 -0.1189  0.0600 -0.2831
 7567W        W50505  15.655  30.304   4.114 -0.0959 -0.3422  0.2744
 7568W        W50506  15.758  30.886   2.371  0.2233  0.0100 -0.1248
 7569W        W50507  17.690  30.913   6.362  0.0521 -0.1209 -0.0148
 7570W        W50508  15.282  29.469   4.954 -0.1984  0.1717  0.0744
 7571W        W50509  16.785  29.397   4.181  0.0111 -0.2827  0.2316
 7572W        W50510  15.667  33.162   6.172 -0.0586 -0.2559 -0.1255
 7573W        W50511  17.934  30.541   6.598  0.1037  0.3548  0.2249
 7574W        W50512  13.884  31.101   8.422  0.0644  0.0463  0.2950
 7575W        W50513  15.298  30.460   7.492 -0.2144  0.1360  0.2034
 7576W        W50514  17.462  29.539   6.880  0.2088  0.1052  0.0136
 7577W        W50515  18.845  30.852   8.121 -0.1728 -0.0463 -0.0449
 7578W        W50516  16.232  30.410   7.596 -0.3197  0.3308  0.1858
 7579W        W50517  16.955  30.849   9.486 -0.1545  0.0333  0.2863
 7580W        W50518  17.269  31.647   9.051  0.1158  0.1357 -0.1894
 7581W        W50519  19.674  28.122   9.163  0.1386  0.2417 -0.1178
 7582W        W50520  16.957  31.331   7.133  0.2532  0.1716 -0.0959
 7583W        W50521  16.295  30.196   8.987  0.1213  0.1422 -0.0621
 7584W        W50522  15.527  28.057   9.535  0.1079 -0.1709 -0.0484
 7585W        W50523  15.347  29.560   9.056 -0.1085 -0.0029 -0.1519
 7586W        W50524  17.379  31.927   7.868 -0.0922  0.1164 -0.1856
 7587W        W50525  14.818  31.013   8.512  0.1422 -0.1954  0.0932
 7588W        W50526  14.244  28.634   8.999 -0.1631 -0.1372  0.0359
 7589W        W50527  17.304  29.956   7.573 -0.2788 -0.2222  0.3289
 7590W        W50528  16.292  31.842   7.973  0.1291  0.2077 -0.0596
 7591W        W50529  14.167  29.720   9.409 -0.1944  0.2297  0.0198
 7592W        W50530  16.579  32.648   8.469  0.0629  0.1221  0.1868
 7593W        W50531  15.248  32.296   6.641  0.0151 -0.1126 -0.3102
 7594W        W50532  14.377  29.684   8.138  0.0286 -0.2888 -0.4390
 7595W        W50533  17.742  29.785   9.317  0.3268 -0.1668  0.0751
 7596W        W50534  19.281  30.450   9.757  0.0149 -0.0966  0.0931
 7597W        W50535  17.872  30.166   9.715 -0.0723 -0.2288  0.2017
 7598W        W50536  16.104  31.759   7.308 -0.1548  0.1360 -0.2696
 7599W        W50537  16.737  32.166   9.738 -0.1332 -0.4470 -0.0959
 7600W        W50538  16.189  31.678   8.458  0.1624 -0.2170 -0.0210
 7601W        W50539  14.648  32.544   8.653  0.0848  0.0810  0.2494
 7602W        W50540  15.644  32.373   7.428 -0.0091  0.2601 -0.1890
 7603W        W50541  18.516  32.182   9.019 -0.3392 -0.0826 -0.0482
 7604W        W50542  14.571  31.173   5.339  0.0455 -0.0870 -0.1499
 7605W        W50543  20.710  29.531   9.858 -0.0452 -0.0494 -0.1808
 7606W        W50544  16.158  31.073   6.814  0.2796 -0.2582 -0.1063
 7607W        W50545  15.586  31.591   7.381 -0.2930 -0.0807  0.0506
 7608W        W50546  15.230  31.263   8.518 -0.1544  0.0941  0.1278
 7609W        W50547  13.599  33.184   8.408 -0.3347  0.0235  0.1238
 7610W        W50548  14.112  32.840   6.931 -0.0947  0.2931  0.0744
 7611W        W50549  17.755  28.654   7.103 -0.0353 -0.1438 -0.2325
 7612W        W50550  15.833  28.849   7.139  0.0525  0.0203 -0.2921
 7613W        W50551  17.865  27.944   7.941  0.0749  0.0379 -0.0391
 7614W        W50552  16.183  29.500   9.676 -0.1056  0.1536 -0.1662
 7615W        W50553  14.879  32.737   9.236  0.0074  0.1680 -0.1054
 7616W        W50554  13.683  29.796   9.742 -0.0385  0.2850  0.0506
 7617W        W50555  17.660  30.618   8.606 -0.2611 -0.1371 -0.1591
 7618W        W50556  18.388  28.558   8.691 -0.2538  0.1233 -0.2664
 7619W        W50557  16.588  31.420   8.637  0.0726 -0.1302  0.1479
 7620W        W50558  16.334  29.943   7.451 -0.0664  0.0468 -0.3184
 7621W        W50559  17.655  31.512   7.800 -0.2522 -0.0518 -0.1033
 7622W        W50560  18.290  31.487   7.512 -0.3658  0.2028  0.0076
 7623W        W50561  17.574  31.950   6.972  0.2444  0.0818  0.1331
 7624W        W50562  15.792  31.557   7.857 -0.2844  0.2962  0.1422
 7625W        W50563  15.174  30.029   6.071 -0.1602 -0.0753 -0.0800
 7626W        W50564  17.488  28.914   8.586 -0.1792  0.1301 -0.2246
 7627W        W50565  16.438  30.788   9.830 -0.1518 -0.0881  0.0270
 7628W        W50566  17.504  29.049  10.128  0.1828 -0.2626  0.0586
 7629W        W50567  16.282  31.427   7.695  0.0346 -0.0972  0.1576
 7630W        W50568  18.161  29.717   9.682  0.0902 -0.0277 -0.2103
 7631W        W50569  18.767  30.254  10.024 -0.2485  0.0434  0.4584
 7632W        W50570  15.509  32.098   7.038  0.0822  0.2691  0.0167
 7633W        W50571  17.158  31.581   8.125 -0.0105  0.0024  0.0459
 7634W        W50572  18.765  31.984   9.669  0.0490 -0.1248  0.0911
 7635W        W50573  17.158  30.181   8.504 -0.4816  0.4220  0.1349
 7636W        W50574  16.397  32.127   9.352 -0.0207  0.1060  0.1055
 7637W        W50575  14.443  33.778   7.184 -0.0333 -0.0546  0.1186
 7638W        W50576  14.147  30.254   9.743  0.1231  0.0599  0.1108
 7639W        W50577  15.231  31.486   7.715  0.0842  0.1137  0.0133
 7640W        W50578  15.603  28.992   9.884  0.1801  0.4126 -0.1166
 7641W        W50579  16.157  30.879   9.064  0.0949 -0.1691  0.1633
 7642W        W50580  17.913  29.089   7.909 -0.0903  0.1547 -0.0248
 7643W        W50581  16.159  28.177   8.593 -0.0273  0.0824 -0.1121
 7644W        W50582  14.699  31.126   6.279 -0.0100 -0.1168  0.0655
 7645W        W50583  18.453  32.596   8.157  0.0658 -0.0374  0.2527
 7646W        W50584  18.694  30.409   8.756  0.3965 -0.0931  0.0856
 7647W        W50585  16.908  30.775   7.063 -0.1187  0.0701 -0.1323
 7648W        W50586  12.881  29.684   9.300  0.2017  0.0898 -0.2164
 7649W        W50587  15.815  29.793   8.751 -0.1415  0.0534  0.2556
 7650W        W50588  14.430  29.404   9.792  0.2220  0.2695 -0.0487
 7651W        W50589  15.340  28.380   7.956  0.4121  0.0992 -0.0335
 7652W        W50590  19.508  29.688   9.591 -0.1211  0.0395  0.1150
 7653W        W50591  17.406  29.715   8.496  0.1046 -0.1430 -0.1015
 7654W        W50592  13.781  31.642   7.845 -0.2375 -0.1366 -0.3173
 7655W        W50593  16.773  32.430   9.227  0.2524  0.2360  0.0824
 7656W        W50594  18.210  32.870   9.490 -0.0756 -0.1037  0.0220
 7657W        W50595  17.243  32.152   8.883 -0.1283  0.0682 -0.1330
 7658W        W50596  17.653  30.318   9.293 -0.1362  0.0171 -0.0143
 7659W        W50597  15.555  30.709   7.953 -0.2516  0.0440 -0.0046
 7660W        W50598  16.189  31.083   8.611 -0.1034  0.2912 -0.2193
 7661W        W50599  17.062  31.110   8.046  0.2869 -0.0995 -0.0832
 7662W        W50600  17.285  29.343   8.095 -0.1826  0.1136  0.0415
 7663W        W50601  17.500  31.451   9.447  0.1422  0.2890  0.1252
 7664W        W50602  16.665  31.649   8.205 -0.0164 -0.1750  0.2480
 7665W        W50603  18.237  29.685   8.038 -0.3518 -0.0374 -0.1247
 7666W        W50604  18.179  29.785  10.333  0.0405  0.1798 -0.1886
 7667W        W50605  15.663  29.879   6.375 -0.2769 -0.0599  0.1024
 7668W        W50606  15.949  32.260   8.953 -0.2952 -0.0736  0.0324
 7669W        W50607  14.666  32.350   8.062 -0.2195 -0.1383 -0.0055
 7670W        W50608  15.304  30.064   9.034 -0.0791 -0.4638  0.0942
 7671W        W50609  17.286  31.168   9.781 -0.1696  0.0771  0.0910
 7672W        W50610  17.852  28.049   9.745  0.3006  0.0165 -0.1500
 7673W        W50611  14.947  31.130   7.524  0.0068  0.0766 -0.1134
 7674W        W50612  17.740  29.553   9.961  0.1242 -0.0960 -0.0639
 7675W        W50613  18.714  29.435   7.775  0.1782  0.5615  0.4026
 7676W        W50614  19.648  30.912   9.081 -0.0486  0.1866 -0.0368
 7677W        W50615  18.022  28.991   7.342 -0.2412 -0.0500 -0.0325
 7678W        W50616  18.169  29.025   6.767 -0.2489  0.3649 -0.0737
 7679W        W50617  17.876  31.173   7.396 -0.0807  0.0329 -0.2407
 7680W        W50618  15.115  32.468   9.611 -0.2427  0.0466  0.1947
 7681W        W50619  16.354  29.005   8.280 -0.0426  0.1005 -0.2034
 7682W        W50620  18.732  31.742   9.171 -0.0035  0.1862 -0.1241
 7683W        W50621  14.345  30.237   9.314  0.0293  0.0979 -0.0506
 7684W        W50622  15.143  30.790   9.408  0.1441  0.2736 -0.0473
 7685W        W50623  16.610  29.487   9.113 -0.0737 -0.3145 -0.0207
 7686W        W50624  17.061  30.263   7.833 -0.3180  0.1137 -0.1100
 7687W        W50625  17.393  30.719   9.473 -0.0903  0.0619 -0.2190
 7688W        W50626  13.850  33.142   7.365  0.5084 -0.1002  0.2191
 7689W        W50627  18.490  29.083   8.684 -0.1741 -0.2009  0.1858
 7690W        W50628  17.127  29.348   8.591  0.0275  0.2854 -0.1358
 7691W        W50629  17.566  30.483   7.741 -0.0202  0.0056 -0.3145
 7692W        W50630  19.233  29.749   8.716  0.0354  0.0238 -0.0910
 7693W        W50631  14.354  30.850   7.526 -0.0132 -0.0332 -0.0420
 7694W        W50632  18.569  30.743   9.154 -0.0206 -0.1536 -0.1223
 7695W        W50633  14.578  30.480   9.993  0.2888  0.4524 -0.1517
 7696W        W50634  16.141  31.301   9.920 -0.1653  0.1627  0.1098
 7697W        W50635  16.108  29.685   7.095 -0.1669  0.0253 -0.0345
 7698W        W50636  14.906  33.662   7.169  0.2850 -0.1886 -0.0756
 7699W        W50637  16.746  30.478   6.197  0.0806  0.3833 -0.1271
 7700W        W50638  16.599  28.713   9.700  0.1425  0.1146 -0.1425
 7701W        W50639  16.783  31.155   8.980  0.0253 -0.2843  0.0161
 7702W        W50640  15.946  31.257   7.405 -0.0379 -0.0392  0.0353
 7703W        W50641  19.505  32.279   9.426  0.1816  0.1118 -0.0402
 7704W        W50642  14.758  32.294   7.513  0.0441  0.0794 -0.0234
 7705W        W50643  18.763  29.493   9.626 -0.0563 -0.1785  0.0249
 7706W        W50644  15.835  31.941   8.162  0.0036  0.0270 -0.2344
 7707W        W50645  15.653  31.030   6.981 -0.0275 -0.1453  0.4284
 7708W        W50646  15.140  29.413   8.291  0.1241  0.0496  0.3937
 7709W        W50647  18.365  29.211   8.037  0.0889 -0.1594 -0.1970
 7710W        W50648  17.667  31.224   8.198 -0.0094 -0.0884  0.0891
 7711W        W50649  14.933  29.314   8.820 -0.2510 -0.1208 -0.2761
 7712W        W50650  15.432  29.809   8.023 -0.0204 -0.2129  0.2983
 7713W        W50651  13.454  32.504   9.895  0.0540 -0.1796 -0.1890
 7714W        W50652  18.400  28.883   7.615 -0.0897 -0.3481  0.0021
 7715W        W50653  15.144  29.981   7.583  0.0917 -0.1042  0.0390
 7716W        W50654  19.691  31.556   9.145  0.3756  0.1129  0.1819
 7717W        W50655  17.368  29.640   9.004  0.1620  0.0136 -0.0860
 7718W        W50656  15.457  31.158   8.051  0.0359  0.0077  0.2027
 7719W        W50657  14.964  32.991   8.804  0.0190  0.0316 -0.0702
 7720W        W50658  13.811  30.783   7.458 -0.0376  0.1474 -0.0338
 7721W        W50659  14.894  33.195   6.960  0.4020 -0.3139  0.0069
 7722W        W50660  19.585  30.724   8.597  0.1718 -0.1234 -0.0749
 7723W        W50661  18.771  32.433   9.968 -0.1652  0.1346 -0.0781
 7724W        W50662  14.369  29.471   7.696 -0.0966  0.0522 -0.2468
 7725W        W50663  18.511  30.641   9.660 -0.0214 -0.0337  0.1406
 7726W        W50664  19.198  32.193   9.843  0.0588  0.0696  0.1382
 7727W        W50665  18.738  31.224   9.069  0.0029 -0.0345 -0.0944
 7728W        W50666  16.769  28.779   9.235  0.0472  0.1407 -0.1862
 7729W        W50667  17.502  31.373   7.122 -0.0498 -0.2890 -0.1655
 7730W        W50668  15.735  31.568   6.901  0.3646  0.1478  0.0539
 7731W        W50669  15.795  30.071   9.620  0.5931  0.0827  0.0395
 7732W        W50670  15.302  31.711   8.181 -0.1680 -0.2311 -0.3255
 7733W        W50671  15.830  29.669   9.316  0.5101  0.2829 -0.0447
 7734W        W50672  16.775  31.244   9.888 -0.1707 -0.2400  0.1763
 7735W        W50673  15.625  32.566   6.877  0.1682  0.5018 -0.0049
 7736W        W50674  15.111  31.172   8.966  0.2352 -0.0789  0.1087
 7737W        W50675  18.516  29.771   7.548 -0.1339  0.0523 -0.1369
 7738W        W50676  16.303  31.500   6.692 -0.3683  0.0294  0.1720
 7739W        W50677  16.551  27.723   9.381 -0.1814  0.1583  0.2019
 7740W        W50678  17.391  31.237   6.152 -0.2100  0.2002 -0.4354
 7741W        W50679  14.974  28.429   9.356  0.3026  0.0782 -0.2320
 7742W        W50680  18.145  31.047   8.993 -0.0225  0.0363  0.2036
 7743W        W50681  16.917  29.555   7.731  0.0565 -0.1165  0.1943
 7744W        W50682  15.942  29.701   7.703 -0.2283  0.2312  0.3160
 7745W        W50683  16.853  28.801  10.196  0.1414 -0.0230  0.2557
 7746W        W50684  18.266  29.055   9.326 -0.2260 -0.0350 -0.0512
 7747W        W50685  15.897  32.761   7.662  0.2434  0.0480 -0.3842
 7748W        W50686  18.243  29.474   8.522  0.0792 -0.1690  0.1077
 7749W        W50687  15.106  31.705   9.184 -0.1457  0.3821  0.1047
 7750W        W50688  18.105  29.422   7.600  0.2891  0.3999  0.4806
 7751W        W50689  17.434  30.733   8.148  0.2331 -0.2383  0.0858
 7752W        W50690  15.459  31.077   7.500 -0.0085  0.0420  0.0309
 7753W        W50691  17.289  31.138   8.533  0.1738  0.1014  0.3801
 7754W        W50692  17.897  29.341   9.447  0.0766 -0.0397  0.0636
 7755W        W50693  15.315  30.304   9.497 -0.0358 -0.3066  0.1055
 7756W        W50694  17.667  30.230   7.339  0.2350  0.0886  0.1993
 7757W        W50695  18.096  28.490   9.719  0.2407 -0.1520  0.0206
 7758W        W50696  18.230  29.907   8.772 -0.2650 -0.0210 -0.0442
 7759W        W50697  18.573  30.890   8.687  0.1163 -0.1428  0.1442
 7760W        W50698  14.891  29.888   9.386  0.1087  0.0679  0.1708
 7761W        W50699  15.067  29.024   6.497 -0.3007  0.0170  0.2588
 7762W        W50700  16.705  31.876   7.376 -0.0978  0.0924 -0.1224
 7763W        W50701  16.391  30.591   8.699  0.1923 -0.0963  0.0886
 7764W        W50702  16.543  31.203   8.137  0.3499  0.4059  0.0595
 7765W        W50703  14.230  30.216   8.354 -0.0566  0.0107 -0.0700
 7766W        W50704  15.877  30.099   7.287 -0.2168 -0.1040 -0.2471
 7767W        W50705  16.342  30.903   7.694 -0.3240  0.2621 -0.0951
 7768W        W50706  14.872  31.816   9.649  0.2368  0.3116 -0.0763
 7769W        W50707  15.924  28.251   7.767 -0.2060  0.3982 -0.0707
 7770W        W50708  15.623  32.820   8.463 -0.1817  0.1086  0.0569
 7771W        W50709  15.715  28.847   8.960  0.0787  0.4846 -0.1384
 7772W        W50710  14.448  32.444   9.089  0.2278  0.1068  0.2373
 7773W        W50711  14.716  32.767   7.702 -0.3658  0.0427 -0.0781
 7774W        W50712  16.652  30.684   9.102 -0.2290  0.3208 -0.4575
 7775W        W50713  19.303  29.031   9.518  0.0926 -0.2075 -0.1283
 7776W        W50714  16.629  31.653   9.090  0.0590 -0.0823  0.0288
 7777W        W50715  14.121  29.772  10.040 -0.1143  0.0723 -0.1810
 7778W        W50716  19.083  30.618   8.506  0.1009  0.0693  0.0583
 7779W        W50717  15.769  31.773   8.744 -0.4472  0.0832  0.1791
 7780W        W50718  17.287  32.348   9.716 -0.2351 -0.0204  0.1919
 7781W        W50719  16.216  28.465   8.186 -0.2870 -0.1991 -0.1110
 7782W        W50720  15.799  32.988   6.715 -0.1547 -0.0809 -0.0791
 7783W        W50721  14.394  30.826   8.840 -0.0249 -0.3377 -0.1834
 7784W        W50722  15.094  33.543   8.216  0.0040  0.0764 -0.1755
 7785W        W50723  16.985  31.371   5.892  0.0507 -0.1089  0.2441
 7786W        W50724  18.686  31.440   8.551 -0.0917  0.2026 -0.3547
 7787W        W50725  17.053  31.707   8.627  0.2235  0.0687  0.1212
 7788W        W50726  17.499  30.156   8.104  0.0662 -0.0145 -0.2511
 7789W        W50727  15.181  30.764   8.331  0.3663 -0.0965 -0.2689
 7790W        W50728  13.816  32.458   6.543  0.0659  0.0117  0.3434
 7791W        W50729  16.746  31.489   7.703  0.0348 -0.3204 -0.0467
 7792W        W50730  15.240  31.750   8.655  0.0273  0.3361 -0.3254
 7793W        W50731  17.988  30.007   6.307  0.0610  0.0553 -0.1289
 7794W        W50732  19.177  30.221   8.843  0.0345  0.0016 -0.0985
 7795W        W50733  17.974  30.422   8.016 -0.1511  0.2891  0.1091
 7796W        W50734  16.407  29.764   8.781 -0.3348 -0.4869 -0.0887
 7797W        W50735  16.497  28.190   7.733  0.1409 -0.1097 -0.0326
 7798W        W50736  17.716  31.271   8.795 -0.1344 -0.2242  0.0521
 7799W        W50737  16.078  30.232   8.524  0.2795  0.1920 -0.0934
 7800W        W50738  16.771  30.216   8.862  0.2016  0.0932  0.2195
 7801W        W50739  16.921  28.201   9.884  0.0116 -0.3724 -0.0630
 7802W        W50740  16.716  31.758   6.868 -0.4064 -0.0202  0.1685
 7803W        W50741  17.166  30.278   9.521 -0.0738  0.2018 -0.1696
 7804W        W50742  15.673  32.401   8.065 -0.1224 -0.1963 -0.0634
 7805W        W50743  17.816  33.518  10.103  0.2710 -0.0871  0.0598
 7806W        W50744  15.701  31.161   8.829 -0.0140  0.1314 -0.2526
 7807W        W50745  16.532  30.127   7.850  0.0052 -0.0538  0.2545
 7808W        W50746  19.095  29.085   7.769 -0.2390  0.0415  0.0369
 7809W        W50747  13.155  31.338   9.425  0.0736 -0.0310 -0.0814
 7810W        W50748  15.944  31.105   7.972 -0.3472  0.0970 -0.2153
 7811W        W50749  16.440  29.565   7.766  0.0215 -0.0688 -0.1063
 7812W        W50750  16.257  32.170   9.823  0.0371  0.3478 -0.0043
 7813W        W50751  11.019  29.954  10.003 -0.1969 -0.0087 -0.2432
 7814W        W50752  16.116  29.645   6.560 -0.1963  0.2966  0.1851
 7815W        W50753  16.794  30.956   8.499  0.2223  0.1043 -0.2873
 7816W        W50754  16.167  29.398   8.497  0.0696 -0.0684  0.2719
 7817W        W50755  17.177  29.594   7.254 -0.0892 -0.2092 -0.1012
 7818W        W50756  16.405  29.983   9.745 -0.2310 -0.1692  0.2143
 7819W        W50757  15.624  30.833   9.189 -0.1028  0.0324  0.5094
 7820W        W50758  14.244  28.778   7.300  0.4441 -0.2152 -0.1944
 7821W        W50759  18.793  31.836   8.238  0.2057  0.0195 -0.2472
 7822W        W50760  18.342  28.314   7.671 -0.2406 -0.0227  0.1177
 7823W        W50761  15.647  33.174   7.665  0.3344 -0.0924 -0.1068
 7824W        W50762  17.284  31.098   9.167 -0.2218 -0.3326  0.0810
 7825W        W50763  14.210  30.756   9.832 -0.0767  0.0073 -0.3045
 7826W        W50764  14.880  29.910   8.817  0.2998 -0.0037 -0.4422
 7827W        W50765  15.781  30.221   9.101  0.0195 -0.0787 -0.0523
 7828W        W50766  18.814  32.942   9.554  0.1616 -0.0168 -0.1392
 7829W        W50767  15.864  30.719   7.502  0.0311 -0.1113 -0.1349
 7830W        W50768  14.504  29.795   9.068 -0.2947 -0.1877 -0.1286
 7831W        W50769  14.769  33.201   7.471  0.3677  0.0894  0.2859
 7832W        W50770  17.762  30.631   9.814  0.1772 -0.0972 -0.0900
 7833W        W50771  16.234  32.254   7.266 -0.0268  0.1551  0.1904
 7834W        W50772  17.193  30.638   8.855  0.2400  0.0383 -0.5492
 7835W        W50773  14.298  31.873   7.723  0.1373  0.2128 -0.0432
 7836W        W50774  14.920  31.958   7.911 -0.0353  0.0588  0.0353
 7837W        W50775  17.524  32.065   8.379 -0.1459 -0.0407  0.0617
 7838W        W50776  18.825  33.168   9.062 -0.1205  0.2230  0.4380
 7839W        W50777  16.722  32.106   8.837  0.2817 -0.1331  0.0085
 7840W        W50778  17.911  31.459   9.811  0.1544  0.0281 -0.1560
 7841W        W50779  16.978  29.857   9.220  0.2767  0.2282 -0.0345
 7842W        W50780  18.919  30.848   9.502 -0.1584 -0.0785  0.0017
 7843W        W50781  17.680  29.610   7.937 -0.0118  0.2322  0.2756
 7844W        W50782  14.706  33.251   9.317  0.1275  0.2392 -0.0167
 7845W        W50783  15.415  31.433   6.585  0.4219  0.1654 -0.1556
 7846W        W50784  15.473  32.761   6.414  0.1122  0.3142 -0.0764
 7847W        W50785  16.216  30.637   8.208 -0.1959  0.0408 -0.1857
 7848W        W50786  15.313  30.690   8.811 -0.0044 -0.2184  0.0980
 7849W        W50787  15.566  30.334   8.369  0.2314 -0.1858  0.2230
 7850W        W50788  17.654  31.914   9.789 -0.0670 -0.1352 -0.0375
 7851W        W50789  14.096  28.578  10.052  0.2000  0.0622  0.0438
 7852W        W50790  15.086  28.707   7.498  0.1232  0.2366 -0.0620
 7853W        W50791  16.869  32.017   7.974 -0.0919 -0.1159 -0.0247
 7854W        W50792  18.732  32.633   9.114  0.3796 -0.0269 -0.0368
 7855W        W50793  16.613  30.249   8.348  0.1730 -0.1893 -0.0683
 7856W        W50794  14.343  31.199   7.130 -0.0579  0.2848  0.0673
 7857W        W50795  14.172  29.017   7.778  0.1064 -0.1642  0.2557
 7858W        W50796  16.454  29.147   9.416 -0.1238 -0.2562  0.2607
 7859W        W50797  17.558  32.569   8.401  0.4846 -0.0365  0.1157
 7860W        W50798  19.377  32.978   7.948  0.0151 -0.1123  0.2136
 7861W        W50799  17.402  28.717   9.042  0.3135  0.1920 -0.2399
 7862W        W50800  18.290  30.111   8.248 -0.2225  0.1952  0.1742
 7863W        W50801  18.123  30.454   8.892  0.1473 -0.0925 -0.0301
 7864W        W50802  17.021  28.941   8.746 -0.0851 -0.1741  0.3024
 7865W        W50803  17.819  31.049   9.541 -0.0682 -0.0848  0.0983
 7866W        W50804  21.648  29.230   9.686  0.1577 -0.0459  0.1406
 7867W        W50805  16.437  29.792   8.238 -0.1270  0.0725 -0.0777
 7868W        W50806  17.842  29.878   8.362  0.1821 -0.0699 -0.0386
 7869W        W50807  16.669  32.330   7.542 -0.2946  0.1054 -0.1715
 7870W        W50808  14.765  30.046   8.318  0.1440  0.3507 -0.0240
 7871W        W50809  16.728  30.650   8.031  0.2086 -0.1072 -0.0682
 7872W        W50810  14.602  30.723   9.270  0.0286  0.1113 -0.4589
 7873W        W50811  16.423  31.149   9.382 -0.2050 -0.0642  0.1497
 7874W        W50812  20.605  30.908   7.865 -0.0380 -0.1087 -0.2079
 7875W        W50813  15.992  31.393   9.170  0.0361 -0.0134  0.1394
 7876W        W50814  18.448  32.383   9.569 -0.0841 -0.2028  0.1657
 7877W        W50815  18.961  31.905   8.690 -0.1201 -0.0527  0.2786
 7878W        W50816  14.768  28.885   8.979 -0.1908  0.1510 -0.0311
 7879W        W50817  14.820  30.642   7.437 -0.2349  0.1705  0.0220
 7880W        W50818  15.974  30.529   6.988  0.2045  0.2283 -0.1542
 7881W        W50819  18.949  32.443   9.504 -0.0251 -0.0015  0.2323
 7882W        W50820  16.011  29.360   8.984  0.0205  0.5187  0.1622
 7883W        W50821  16.876  29.039   8.205  0.0831 -0.0332 -0.1319
 7884W        W50822  16.794   0.555   9.360  0.1885 -0.0900 -0.0753
 7885W        W50823  15.541  30.725   9.664 -0.1413  0.1022  0.0997
 7886W        W50824  15.605  32.356   1.075  0.0499  0.1818 -0.0162
 7887W        W50825  17.862  34.666   0.668 -0.1255  0.3507 -0.1532
 7888W        W50826  19.098   0.131  31.708  0.0008  0.3144  0.1518
 7889W        W50827  14.360  32.358   1.467  0.1471 -0.2585  0.6606
 7890W        W50828  16.260  32.631   4.349 -0.0104  0.1607  0.0303
 7891W        W50829  18.796   0.335   0.538 -0.0449 -0.2265  0.1198
 7892W        W50830  15.709  32.265   2.203 -0.0277  0.0531 -0.0374
 7893W        W50831  17.607  30.474   1.843 -0.1851 -0.3193 -0.1481
 7894W        W50832  14.824  32.542   1.280  0.0166 -0.0906 -0.3074
 7895W        W50833  16.768  33.059   2.131 -0.2470  0.0975 -0.1301
 7896W        W50834  15.446  34.635  31.898 -0.0618  0.2143  0.1676
 7897W        W50835  16.633  33.063   3.095 -0.1690 -0.1286  0.1107
 7898W        W50836  15.328  34.043  31.943 -0.3477 -0.2086 -0.2256
 7899W        W50837  16.090  33.237   3.138 -0.0577 -0.0798  0.1884
 7900W        W50838  16.737  33.210   5.037 -0.0542 -0.2619 -0.1472
 7901W        W50839  15.838  34.259  31.709 -0.1333 -0.0328 -0.4286
 7902W        W50840  15.165  34.296   0.830  0.3194 -0.0068  0.3568
 7903W        W50841  16.551   0.806   2.666  0.0039 -0.0503 -0.2605
 7904W        W50842  17.222  34.317   3.190 -0.2493  0.1934 -0.0223
 7905W        W50843  16.323  33.210   1.623 -0.0737 -0.2461 -0.1610
 7906W        W50844  17.172  33.889   3.569  0.2033  0.2289 -0.1873
 7907W        W50845  16.685  33.846   3.733  0.0381  0.0158  0.2842
 7908W        W50846  15.859  32.661   1.423  0.1852 -0.0367 -0.0889
 7909W        W50847  17.106  33.132   2.958  0.0210 -0.1831  0.1791
 7910W        W50848  16.278  34.383   0.002 -0.2119 -0.1787 -0.1959
 7911W        W50849  15.332  33.950   0.515 -0.0781  0.1560 -0.1304
 7912W        W50850  17.437  31.856   0.788  0.1265 -0.1776  0.2916
 7913W        W50851  17.722  32.196   2.637 -0.0648  0.0680  0.1052
 7914W        W50852  15.328  31.945   2.384  0.0653  0.2323 -0.4653
 7915W        W50853  17.028  34.050  31.869  0.1445  0.0556 -0.0183
 7916W        W50854  17.591  33.632   1.875 -0.2206  0.2277 -0.1540
 7917W        W50855  16.029  33.152   0.394  0.0615  0.0943 -0.1388
 7918W        W50856  14.856  32.817  31.926  0.0752  0.3063 -0.1360
 7919W        W50857  15.543   0.326   3.659  0.3184  0.0774 -0.0414
 7920W        W50858  14.237  32.506   2.840 -0.3433  0.4840 -0.2958
 7921W        W50859  14.907  31.072  30.900  0.1285  0.0252 -0.1535
 7922W        W50860  18.829  33.975   1.836  0.0662 -0.2389  0.1546
 7923W        W50861  18.948  33.124   2.469  0.0051  0.1592 -0.1126
 7924W        W50862  16.882  32.780   1.679 -0.0763 -0.1348 -0.0530
 7925W        W50863  18.566  33.790   0.056 -0.1748 -0.2081 -0.1960
 7926W        W50864  16.160  33.494   2.659 -0.0670  0.2246 -0.0486
 7927W        W50865  14.890  32.390   2.295  0.1085  0.0481 -0.1786
 7928W        W50866  17.935  32.210  31.136  0.1313  0.2461  0.0780
 7929W        W50867  17.651  32.367   0.758  0.1934  0.2596 -0.0143
 7930W        W50868  18.077  33.839   1.737  0.1608 -0.0555 -0.1356
 7931W        W50869  15.777  33.295   1.544  0.0525  0.1252 -0.0584
 7932W        W50870  15.827  31.996   1.352  0.0569 -0.0891 -0.2583
 7933W        W50871  15.430  31.493   2.854  0.1101  0.0682 -0.0902
 7934W        W50872  15.239  33.141   2.327 -0.0991  0.2551  0.1629
 7935W        W50873  17.962  34.158   3.720 -0.0522  0.1410  0.1341
 7936W        W50874  14.826  33.986  31.961  0.2744  0.0800  0.2920
 7937W        W50875  17.380   0.820   0.260  0.3038  0.2101 -0.2800
 7938W        W50876  16.093  34.551   2.210 -0.0962 -0.0226 -0.1858
 7939W        W50877  16.800  32.193   3.602  0.0145 -0.1235 -0.0093
 7940W        W50878  15.244  32.701   2.551 -0.0151 -0.2934  0.1377
 7941W        W50879  14.572  34.670  31.112 -0.0402  0.0685 -0.1242
 7942W        W50880  16.597  31.734   0.082 -0.0871 -0.0509 -0.1841
 7943W        W50881  17.798  33.806   4.911 -0.0128  0.1319  0.0310
 7944W        W50882  16.642   1.299   0.559  0.0114 -0.0065  0.3038
 7945W        W50883  16.290  32.202   1.309  0.4382  0.1844 -0.3000
 7946W        W50884  15.779  34.220   0.424 -0.2020  0.0702 -0.4262
 7947W        W50885  19.601  32.942   1.718  0.1343  0.2586 -0.1431
 7948W        W50886  15.800  34.126   2.207 -0.1441 -0.0470  0.1515
 7949W        W50887  15.711  33.235   2.033  0.3342  0.0767 -0.3776
 7950W        W50888  14.384  32.978   0.726  0.0853 -0.2827  0.0976
 7951W        W50889  15.816  33.636   0.591 -0.0621  0.4313 -0.2706
 7952W        W50890  16.235  31.980  30.621  0.0770  0.3509  0.1674
 7953W        W50891  16.418  33.416  31.664 -0.0016  0.3184  0.1177
 7954W        W50892  15.735  33.284  31.158  0.0421 -0.2095 -0.0423
 7955W        W50893  15.663  32.880  31.656 -0.0384  0.0204 -0.0496
 7956W        W50894  14.273  32.210   2.440  0.0497  0.0674 -0.0225
 7957W        W50895  16.567  34.373  30.066  0.1133  0.0171 -0.0547
 7958W        W50896  17.147  33.078   1.360 -0.1055 -0.3416 -0.2404
 7959W        W50897  17.766  32.463   2.138  0.2386  0.2588 -0.3062
 7960W        W50898  17.364  31.306   2.111 -0.1268 -0.1196  0.5168
 7961W        W50899  16.254  32.633   3.286 -0.0976  0.2914  0.0692
 7962W        W50900  18.656  34.031   2.995  0.2467 -0.0990 -0.1465
 7963W        W50901  17.207  34.208   0.798  0.4246 -0.2548 -0.2862
 7964W        W50902  17.494  32.874   2.287  0.1581 -0.0171  0.1370
 7965W        W50903  15.194  34.564  31.490  0.1927 -0.1159 -0.1357
 7966W        W50904  16.145  32.348   2.511 -0.0410 -0.3335 -0.0138
 7967W        W50905  15.917  32.662   4.785 -0.3475  0.0243  0.1211
 7968W        W50906  16.261  31.748  31.116  0.0318  0.1518 -0.0373
 7969W        W50907  15.763  32.731   2.332 -0.2385  0.1334  0.0470
 7970W        W50908  16.763  32.213   2.581  0.0324  0.0069 -0.2067
 7971W        W50909  14.689  33.970  31.145 -0.1487 -0.1036 -0.3691
 7972W        W50910  14.511  33.795   0.277  0.4310 -0.2903 -0.2380
 7973W        W50911  17.069  33.671   0.901  0.4670  0.0863  0.2091
 7974W        W50912  14.801  32.800   0.804  0.1143  0.2381  0.0604
 7975W        W50913  17.729  33.323   3.190 -0.1391  0.2026 -0.1329
 7976W        W50914  16.009  33.778   3.901  0.0806 -0.1937 -0.1037
 7977W        W50915  15.936  34.203   1.349 -0.2596  0.2415  0.4491
 7978W        W50916  16.818   0.086   3.789  0.0001 -0.0106 -0.0306
 7979W        W50917  15.190  32.672   1.028  0.1306 -0.1657 -0.0274
 7980W        W50918  19.039  33.693   2.936  0.0979  0.2668 -0.0024
 7981W        W50919  15.257  33.182   0.789 -0.6410  0.0601  0.1558
 7982W        W50920  16.265  34.400   0.701 -0.0257 -0.0577 -0.1561
 7983W        W50921  15.517  31.980   3.649  0.0917 -0.1964 -0.2349
 7984W        W50922  16.611   0.363   2.929  0.1221  0.1414 -0.0852
 7985W        W50923  15.807  33.854   0.012 -0.2416 -0.2800  0.0578
 7986W        W50924  15.492  31.660   1.637  0.3772 -0.2708  0.2988
 7987W        W50925  16.349  32.715   1.472  0.1330  0.0080  0.0971
 7988W        W50926  18.245  31.429   2.362  0.2662 -0.0472 -0.0374
 7989W        W50927  16.655  33.202   2.596 -0.0819 -0.0179 -0.1012
 7990W        W50928  17.562  33.493   2.362 -0.0925 -0.1677 -0.1842
 7991W        W50929  17.208  32.304  31.621 -0.0004 -0.3279 -0.0253
 7992W        W50930  17.752  34.190   0.536  0.1504  0.1219 -0.3412
 7993W        W50931  18.960  32.960   4.715 -0.0937 -0.0730 -0.1068
 7994W        W50932  17.379  33.712  31.576  0.2484  0.0215 -0.1202
 7995W        W50933  16.920  33.106   3.717 -0.2044 -0.1091  0.0249
 7996W        W50934  15.546  32.874   2.973  0.1941  0.3804  0.0178
 7997W        W50935  14.767  32.057   1.598 -0.0909 -0.4993  0.1844
 7998W        W50936  14.989  33.217   3.865 -0.3093 -0.2370 -0.0411
 7999W        W50937  17.567  33.847   0.864 -0.0515 -0.0254  0.0319
 8000W        W50938  16.413  32.972   0.836  0.3164 -0.2454 -0.0730
 8001W        W50939  17.026  32.796   2.593 -0.0421 -0.1760 -0.0662
 8002W        W50940  17.784  31.904   1.193 -0.1957 -0.3380  0.0277
 8003W        W50941  16.057  33.607   2.083  0.1109  0.1590  0.2223
 8004W        W50942  17.627   0.887  31.821 -0.2447  0.1842 -0.0113
 8005W        W50943  14.579  34.048   3.218  0.0341 -0.0178 -0.1881
 8006W        W50944  16.823  33.316   1.632 -0.2782 -0.3672  0.1439
 8007W        W50945  17.797  33.196   3.633 -0.0160 -0.1175  0.1122
 8008W        W50946  17.748  33.945   2.602  0.1424  0.1273 -0.0743
 8009W        W50947  15.556  32.321   2.681  0.1214 -0.3405  0.5712
 8010W        W50948  15.034  33.364   5.269  0.1154 -0.1971 -0.0519
 8011W        W50949  18.912  31.265  31.820  0.1584  0.1511  0.2265
 8012W        W50950  18.714  33.713   4.256  0.1931  0.1193 -0.0460
 8013W        W50951  17.425  34.641   0.538  0.1117 -0.2079  0.2405
 8014W        W50952  16.283  33.982   0.398 -0.2366  0.0059  0.0119
 8015W        W50953  15.587  32.660   1.870 -0.1847 -0.2072 -0.1768
 8016W        W50954  19.016  34.652   3.496  0.0125 -0.1945 -0.1280
 8017W        W50955  15.228  33.265  31.696  0.1259  0.0371  0.1408
 8018W        W50956  16.061  33.849   3.070  0.1328  0.0348  0.1165
 8019W        W50957  16.183  33.576   0.136  0.0156  0.0979  0.0132
 8020W        W50958  14.661  32.531   0.412  0.0066 -0.0889 -0.0164
 8021W        W50959  15.950  34.268  31.083 -0.0099 -0.0464  0.3565
 8022W        W50960  16.332   0.346   1.436  0.5358  0.1455  0.1256
 8023W        W50961  17.350  33.324   0.550 -0.0158 -0.2135 -0.1518
 8024W        W50962  18.388  34.466   3.720  0.0604 -0.2699 -0.0357
 8025W        W50963  18.669  32.894   1.185  0.1727  0.0188  0.0637
 8026W        W50964  17.179  31.883   2.496 -0.2423  0.0633  0.0526
 8027W        W50965  18.590  33.496   3.051  0.0922  0.2044 -0.0765
 8028W        W50966  16.510  33.534   2.956 -0.2056 -0.2915  0.1133
 8029W        W50967  18.637  33.573   2.525  0.2496  0.0511 -0.2584
 8030W        W50968  15.723   0.125   1.684  0.1323  0.0208  0.0148
 8031W        W50969  14.527  33.327   1.644 -0.2981  0.0520 -0.3035
 8032W        W50970  15.739  32.967   0.767 -0.2626 -0.1076  0.1329
 8033W        W50971  13.854  33.767   0.438  0.2538 -0.1886 -0.0990
 8034W        W50972  18.794  32.891  30.895 -0.0449  0.0141 -0.3596
 8035W        W50973  17.303  34.065   2.297  0.1834  0.0678 -0.0997
 8036W        W50974  17.272  33.535   1.490 -0.0059  0.1422 -0.3034
 8037W        W50975  16.833  33.876   1.649  0.0084  0.2015  0.1763
 8038W        W50976  17.549  32.519  31.292 -0.3762 -0.1487  0.0828
 8039W        W50977  13.927  32.052   4.278  0.2342  0.1348  0.3168
 8040W        W50978  18.805  33.098   3.220 -0.0849 -0.2052  0.0866
 8041W        W50979  14.475  32.948   1.279 -0.1488  0.0360 -0.2313
 8042W        W50980  16.795  33.270   1.139  0.1485  0.0181  0.1432
 8043W        W50981  17.620  33.138   2.760  0.0238 -0.2440 -0.0321
 8044W        W50982  16.786  33.714   2.122 -0.0849  0.2458 -0.3260
 8045W        W50983  15.996  31.241   1.115  0.1196 -0.0759  0.1128
 8046W        W50984  17.806  33.485   0.543 -0.1340  0.1922 -0.0733
 8047W        W50985  14.782  33.208   3.360 -0.3721 -0.1371 -0.0719
 8048W        W50986  17.586  32.856   3.315 -0.3439 -0.4266  0.0194
 8049W        W50987  15.037  32.225   0.918  0.0276  0.1259  0.1123
 8050W        W50988  18.155  34.090   1.280 -0.2608 -0.2578 -0.1296
 8051W        W50989  15.166  34.238   3.043 -0.0883  0.0649 -0.1321
 8052W        W50990  16.506   0.929   0.807  0.1166 -0.3113 -0.0973
 8053W        W50991  19.051   1.682   1.923  0.0029 -0.5510  0.0150
 8054W        W50992  16.118  33.013  31.911  0.1287  0.3313 -0.1349
 8055W        W50993  14.611  32.004   1.120  0.0862 -0.0136  0.0700
 8056W        W50994  17.738  33.869   1.421 -0.1993 -0.1738 -0.1845
 8057W        W50995  15.323  32.476   1.490  0.1215  0.3207  0.1900
 8058W        W50996  17.222  33.140   1.869 -0.0911  0.1113  0.0067
 8059W        W50997  17.392  31.540   1.185  0.3666 -0.0477 -0.1702
 8060W        W50998  17.990  33.507   2.728  0.2213  0.2331 -0.0742
 8061W        W50999  16.638   0.179   1.997  0.0810 -0.0534 -0.1407
 8062W        W51000  14.068  32.610   1.876 -0.0107 -0.0594 -0.3425
 8063W        W51001  16.556  32.723   0.018  0.0439  0.0125 -0.0582
 8064W        W51002  16.470  32.410   1.875 -0.0512 -0.1665  0.1390
 8065W        W51003  18.076  32.089   1.998 -0.2021 -0.0601  0.0279
 8066W        W51004  18.032  32.587   3.225  0.1488  0.2603  0.2904
 8067W        W51005  17.693  33.724   3.708 -0.0138 -0.3437  0.2716
 8068W        W51006  15.942  33.331  31.614  0.0119  0.0750 -0.0144
 8069W        W51007  16.060  33.679   1.239 -0.1135 -0.0232  0.2212
 8070W        W51008  18.467  33.336   1.134 -0.0587 -0.0517  0.0083
 8071W        W51009  16.638  33.951   0.793  0.0596  0.3611 -0.1258
 8072W        W51010  14.750  34.229   2.203 -0.0677  0.0736  0.0479
 8073W        W51011  13.212  33.191  31.609  0.0644  0.0501 -0.0759
 8074W        W51012  16.933  33.529   4.016  0.0145  0.1521 -0.1905
 8075W        W51013  13.979  32.591   2.400  0.1757  0.0794  0.0093
 8076W        W51014  15.409  31.941   0.822 -0.0637  0.0543 -0.1333
 8077W        W51015  17.640  32.200   1.609  0.1519  0.0262  0.0917
 8078W        W51016  16.617  32.648   2.843 -0.1340 -0.4022  0.0300
 8079W        W51017  15.279  32.007   1.334  0.0974  0.2912  0.0015
 8080W        W51018  15.546  31.870  31.881  0.3520 -0.4550 -0.0015
 8081W        W51019  15.790   0.063   3.368  0.3429 -0.0456  0.1183
 8082W        W51020  15.766  31.453   2.487 -0.0047 -0.2463 -0.2647
 8083W        W51021  14.797  33.093  31.463 -0.1319 -0.2187 -0.1198
 8084W        W51022  15.374  33.711   1.954  0.0832  0.1895 -0.2669
 8085W        W51023  13.882  32.809   2.935 -0.2006 -0.0452 -0.0028
 8086W        W51024  18.686  33.039   2.083  0.4977  0.1463  0.1252
 8087W        W51025  17.809  34.201   0.009  0.4661 -0.0406 -0.0514
 8088W        W51026  14.621  33.087   2.925  0.0634  0.0954  0.0712
 8089W        W51027  16.726  32.792   1.194 -0.4523 -0.0988 -0.3512
 8090W        W51028  17.415  33.238  31.714 -0.0255 -0.1937 -0.2300
 8091W        W51029  16.019  32.240   1.741 -0.0620  0.0228 -0.1303
 8092W        W51030  18.055  33.463   1.375 -0.1535 -0.3090  0.0512
 8093W        W51031  17.021  32.534   4.017 -0.1179  0.0021 -0.1232
 8094W        W51032  15.334  34.443   0.360  0.1891 -0.0858  0.1277
 8095W        W51033  19.570  34.530   0.384 -0.1199 -0.0656 -0.0240
 8096W        W51034  15.840  32.286   3.387 -0.0932 -0.0293  0.0534
 8097W        W51035  14.796  33.378   0.010 -0.1418  0.2562 -0.3164
 8098W        W51036  16.938  33.769   2.614 -0.0594 -0.0837 -0.1640
 8099W        W51037  17.471  34.476   2.030 -0.0822  0.0261 -0.0278
 8100W        W51038  15.646  33.442   1.063  0.4854 -0.1621 -0.0157
 8101W        W51039  16.300  33.456   0.703 -0.1024 -0.0396  0.2404
 8102W        W51040  15.851  33.291   4.731 -0.0099  0.1467 -0.0143
 8103W        W51041  16.795  33.488   3.418 -0.2311 -0.0768  0.1970
 8104W        W51042  19.316   0.039   4.513 -0.1185  0.1373 -0.0302
 8105W        W51043  14.608  32.164   4.603 -0.0647 -0.1564 -0.1828
 8106W        W51044  15.436  32.376   6.136  0.2712  0.1092  0.1200
 8107W        W51045  19.413  33.481   4.459  0.1479 -0.4128 -0.2347
 8108W        W51046  16.391  33.846   6.109  0.1026 -0.0386 -0.4504
 8109W        W51047  15.866  33.180   5.241  0.2101  0.0322  0.1808
 8110W        W51048  12.781  31.284   6.257 -0.1006  0.0838  0.1579
 8111W        W51049  18.403  33.684   5.968  0.0445 -0.1762 -0.1024
 8112W        W51050  14.240  33.036   3.211  0.0499 -0.0950  0.2340
 8113W        W51051  16.638  32.924   6.258  0.3796 -0.1319  0.1148
 8114W        W51052  17.075  32.576   4.731 -0.0700  0.4069  0.1148
 8115W        W51053  15.891  33.336   7.269  0.0160  0.3298  0.0789
 8116W        W51054  16.107  32.551   6.732  0.0956 -0.3322 -0.2826
 8117W        W51055  13.587  32.319   4.027 -0.2383 -0.1878  0.2560
 8118W        W51056  14.350  34.428   6.388 -0.0000 -0.1750  0.1893
 8119W        W51057  15.979   0.319   6.940 -0.0358  0.1629  0.3763
 8120W        W51058  19.298  33.008   4.303  0.3542  0.3526 -0.2849
 8121W        W51059  16.944  34.121   4.564  0.0800  0.0112  0.0187
 8122W        W51060  18.517  33.410   7.037 -0.1780  0.0654 -0.1036
 8123W        W51061  17.374   0.621   6.798  0.2491 -0.0045 -0.0164
 8124W        W51062  15.768  33.679   3.451 -0.0517  0.1660 -0.0097
 8125W        W51063  18.030  32.158   7.098  0.0369 -0.0556 -0.1261
 8126W        W51064  17.620  34.557   3.501  0.2329 -0.1024  0.1271
 8127W        W51065  15.536  33.855   4.564  0.0092  0.0341  0.0408
 8128W        W51066  18.882  34.570   4.009 -0.1814 -0.3371 -0.0437
 8129W        W51067  17.376  32.321   5.057 -0.0359  0.0072 -0.1497
 8130W        W51068  15.862  34.278   5.867  0.2215 -0.0046 -0.1783
 8131W        W51069  18.061   0.199   3.670 -0.1408  0.3296 -0.0296
 8132W        W51070  17.303  33.006   4.814 -0.3127  0.1748 -0.1061
 8133W        W51071  15.472  33.296   5.601 -0.0984 -0.1061 -0.1490
 8134W        W51072  15.051  32.907   5.592 -0.0379 -0.4479 -0.0822
 8135W        W51073  15.544   0.342   6.693 -0.2491  0.1839  0.0304
 8136W        W51074  14.383  34.403   8.147  0.1778 -0.0229  0.1497
 8137W        W51075  16.700  33.117   4.145  0.2652  0.2281 -0.2976
 8138W        W51076  18.921  33.731   5.197  0.1286 -0.0156  0.3002
 8139W        W51077  17.726  31.993   6.495  0.1042  0.0540  0.1180
 8140W        W51078  17.243  32.829   5.798 -0.2874  0.1571  0.0057
 8141W        W51079  18.230  33.770   4.564  0.0104 -0.1792 -0.1521
 8142W        W51080  13.535  33.764   6.478 -0.1853  0.1362  0.1140
 8143W        W51081  13.823  32.933   6.482  0.3019  0.2641  0.1647
 8144W        W51082  18.466  32.880   4.854 -0.3126 -0.0525 -0.0840
 8145W        W51083  15.216  33.224   6.519  0.1976 -0.1050  0.2384
 8146W        W51084  17.696  32.628   5.713 -0.0146 -0.1534  0.3412
 8147W        W51085  18.237  34.425   5.374  0.1894  0.0680  0.3726
 8148W        W51086  14.003  34.695   5.943  0.0592  0.1748 -0.5671
 8149W        W51087  16.080  32.733   5.282 -0.1159 -0.0715  0.1321
 8150W        W51088  15.204  32.444   7.246 -0.0558 -0.3865 -0.2003
 8151W        W51089  15.040  32.445   5.879  0.1674 -0.1358 -0.1629
 8152W        W51090  19.042  32.661   8.331 -0.0544  0.0319 -0.0992
 8153W        W51091  15.543  32.331   5.055 -0.1122 -0.1788 -0.0701
 8154W        W51092  18.010  34.004   5.550  0.1010 -0.2316  0.1224
 8155W        W51093  15.004   0.568   5.459 -0.1401  0.0703 -0.3029
 8156W        W51094  18.290  33.170   6.178  0.2678  0.0583 -0.0675
 8157W        W51095  15.543  33.622   6.344  0.1523  0.1281  0.0093
 8158W        W51096  15.656  33.708   5.055  0.1181  0.1074 -0.2578
 8159W        W51097  16.117  33.891   5.058 -0.0393 -0.2950 -0.0493
 8160W        W51098  16.829  32.494   6.372  0.0056 -0.1053  0.0256
 8161W        W51099  17.062  34.078   5.312 -0.1437 -0.1785  0.1346
 8162W        W51100  15.244  32.680   4.144  0.0428 -0.2078  0.0271
 8163W        W51101  14.382  34.569   3.661 -0.3194 -0.0311 -0.0586
 8164W        W51102  18.651  32.667   5.300 -0.0784 -0.1156  0.1647
 8165W        W51103  15.152  34.571   7.483 -0.0712 -0.1762  0.0073
 8166W        W51104  16.158  33.278   6.852 -0.1604 -0.2953 -0.0527
 8167W        W51105  14.988  32.877   5.103 -0.1416 -0.0371  0.5963
 8168W        W51106  16.593  32.480   4.841 -0.2981 -0.2807  0.0745
 8169W        W51107  18.517  32.345   3.478 -0.0646 -0.0343  0.0683
 8170W        W51108  15.120  34.169   4.542  0.0765 -0.2946  0.3725
 8171W        W51109  16.777  32.291   3.121 -0.2292 -0.0228  0.2368
 8172W        W51110  16.378  33.480   3.932  0.0932 -0.0038 -0.2836
 8173W        W51111  14.992  33.033   6.113  0.0306 -0.2798 -0.0446
 8174W        W51112  15.603  33.626   2.410  0.2678 -0.3877 -0.2023
 8175W        W51113  17.242  32.831   6.374 -0.0290  0.0039 -0.0883
 8176W        W51114  17.285  32.211   6.586  0.4068 -0.0267  0.2490
 8177W        W51115  17.050  33.577   5.246 -0.0682 -0.0388  0.0259
 8178W        W51116  17.228  32.259   7.441  0.1065 -0.4316 -0.1744
 8179W        W51117  18.248  34.237   7.334  0.0469 -0.2451  0.0298
 8180W        W51118  16.031  33.752   4.544 -0.0482 -0.0186 -0.1544
 8181W        W51119  17.403   0.505   5.506 -0.1087  0.0979  0.2255
 8182W        W51120  15.456  33.353   4.410  0.3829  0.1025 -0.0186
 8183W        W51121  16.202  33.194   7.713 -0.0327 -0.0576 -0.3215
 8184W        W51122  17.841  31.744   8.215 -0.0587 -0.1443 -0.1190
 8185W        W51123  15.514  32.789   5.281 -0.2596  0.2021 -0.2363
 8186W        W51124  17.528  33.446   4.625  0.2063  0.0947 -0.0262
 8187W        W51125  17.180  32.384   6.083 -0.0935  0.0001  0.1805
 8188W        W51126  16.140  32.949   2.726 -0.0188  0.1260  0.1637
 8189W        W51127  14.197  32.748   5.669  0.1241  0.4831 -0.0536
 8190W        W51128  17.707  33.052   6.014  0.1211 -0.1731  0.1728
 8191W        W51129  14.374  34.186   5.978 -0.2007  0.0329  0.2032
 8192W        W51130  16.422  33.317   7.284 -0.0186 -0.0073 -0.0344
 8193W        W51131  17.536  33.947   5.298 -0.1641  0.1244 -0.2258
 8194W        W51132  16.310  33.690   3.509  0.2197  0.2186  0.3898
 8195W        W51133  15.696  34.336   7.334  0.2801 -0.0026  0.1847
 8196W        W51134  15.346  31.371   4.578 -0.3174  0.3591 -0.1089
 8197W        W51135  16.894  33.669   6.301 -0.0868  0.1536  0.0796
 8198W        W51136  17.640  34.148   4.549  0.3345  0.2853 -0.0929
 8199W        W51137  15.523  34.214   3.963  0.2350  0.3632 -0.1335
 8200W        W51138  16.970  32.724   6.789 -0.0219  0.3131 -0.1574
 8201W        W51139  16.134  33.351   6.028 -0.0156  0.0251  0.1456
 8202W        W51140  17.695  33.594   5.619 -0.1899 -0.4023 -0.1369
 8203W        W51141  16.880  33.608   7.592 -0.1508  0.1295 -0.0301
 8204W        W51142  16.488  33.382   6.343 -0.0605 -0.2002  0.1829
 8205W        W51143  15.916  33.036   5.702  0.0568 -0.0378  0.0698
 8206W        W51144  17.228   0.506   7.381 -0.2228 -0.2094  0.3005
 8207W        W51145  17.109  34.090   6.204 -0.3627  0.1043  0.0756
 8208W        W51146  19.265  32.434   4.634 -0.0449  0.0902  0.1200
 8209W        W51147  17.805  34.405   5.638  0.0678  0.2162  0.0169
 8210W        W51148  19.805  33.356   6.293  0.0497  0.0630 -0.0004
 8211W        W51149  17.791  32.200   4.437 -0.0832  0.2226 -0.1450
 8212W        W51150  17.726  32.601   6.386  0.0001  0.1938  0.0679
 8213W        W51151  14.928  32.554   6.370  0.4426  0.3167  0.0011
 8214W        W51152  14.675  33.542   6.665 -0.0830 -0.0579 -0.0006
 8215W        W51153  15.342  34.095   5.026 -0.1723  0.0616  0.0152
 8216W        W51154  15.924  33.571   5.510  0.1845 -0.2688  0.0352
 8217W        W51155  15.913  33.395   4.226 -0.0205  0.1279 -0.1483
 8218W        W51156  15.220  34.253   5.562  0.1093 -0.2579 -0.0621
 8219W        W51157  18.433  34.210   5.827 -0.2473 -0.1581 -0.1346
 8220W        W51158  14.416  34.256   4.987 -0.0284  0.1216 -0.1282
 8221W        W51159  18.787  34.130   3.823 -0.0443  0.0575  0.0283
 8222W        W51160  14.403  33.626   6.040  0.2183  0.0303 -0.1011
 8223W        W51161  16.283  31.919   5.533 -0.2549  0.2635  0.1213
 8224W        W51162  17.486  33.255   6.377 -0.2483 -0.1142  0.0197
 8225W        W51163  17.301  33.292   6.996  0.1641 -0.3073 -0.1925
 8226W        W51164  15.676  33.998   5.478  0.0651 -0.1968  0.0626
 8227W        W51165  16.115  33.694   7.568  0.3287  0.2823  0.0960
 8228W        W51166  17.182  33.003   4.337  0.1545  0.1974 -0.1367
 8229W        W51167  19.344  32.658   5.549  0.4328  0.1721 -0.3727
 8230W        W51168  18.192  32.547   5.520  0.0099 -0.0338 -0.1295
 8231W        W51169  18.398  33.834   3.835  0.1372  0.0624 -0.0664
 8232W        W51170  14.725  33.349   5.771 -0.0292  0.2044 -0.0960
 8233W        W51171  17.908  33.009   7.608  0.0102 -0.1153  0.3504
 8234W        W51172  16.187  34.015   5.634  0.0784 -0.1435  0.0346
 8235W        W51173  18.279  33.011   7.034 -0.0345 -0.0455  0.3715
 8236W        W51174  17.223  33.794   4.362 -0.0356 -0.0448  0.0057
 8237W        W51175  14.323  33.931   5.515 -0.0105  0.1860 -0.0028
 8238W        W51176  15.862  32.880   3.402  0.0976  0.1351 -0.0337
 8239W        W51177  14.900  33.573   1.853  0.2238  0.3608 -0.3994
 8240W        W51178  16.152  32.978   4.016 -0.1454 -0.2619  0.3196
 8241W        W51179  18.991  33.184   7.636 -0.2613  0.2952 -0.2404
 8242W        W51180  17.952  31.800   5.745  0.0146 -0.1418 -0.4449
 8243W        W51181  16.784  33.063   5.610 -0.0574  0.0182  0.0769
 8244W        W51182  17.881  34.320   5.125  0.1685  0.0211 -0.3229
 8245W        W51183  16.051   1.258   4.475  0.2837  0.0644  0.0073
 8246W        W51184  18.538  33.984   6.830  0.1014  0.0268  0.0671
 8247W        W51185  14.819  33.925   5.272  0.0113 -0.1702 -0.2008
 8248W        W51186  14.241  32.909   7.563  0.0036 -0.1604 -0.2227
 8249W        W51187  16.260  32.146   4.500 -0.0955 -0.3941 -0.1822
 8250W        W51188  16.566   0.209   5.163  0.1000 -0.0997 -0.0374
 8251W        W51189  19.044  32.634   3.268  0.0093  0.2864  0.0678
 8252W        W51190  17.414  34.085   5.740  0.0879 -0.1105 -0.0729
 8253W        W51191  19.513  32.413   5.139 -0.0257 -0.0270 -0.2009
 8254W        W51192  15.258  34.572   5.120  0.0306 -0.0436 -0.3102
 8255W        W51193  15.967  33.284   3.712  0.0957 -0.0615  0.2830
 8256W        W51194  15.676  34.524   6.783  0.1444  0.0660 -0.0401
 8257W        W51195  18.416  32.845   6.487 -0.3608  0.2380 -0.1976
 8258W        W51196  15.452  32.828   5.891 -0.0415 -0.1016 -0.2150
 8259W        W51197  13.925  34.237   5.171  0.2378 -0.2016  0.1368
 8260W        W51198  18.664  31.837   6.195 -0.2355 -0.0394  0.3064
 8261W        W51199  17.002  33.204   6.617  0.0782  0.0280  0.0311
 8262W        W51200  14.085  33.140   5.209  0.0140  0.0521  0.0332
 8263W        W51201  18.878  34.103   5.605  0.3341  0.4990  0.3534
 8264W        W51202  15.231  34.325   6.993  0.2231 -0.2200 -0.1385
 8265W        W51203  18.587  32.003   6.778  0.2019 -0.0333  0.0237
 8266W        W51204  16.178   0.943   4.851 -0.1550 -0.0649 -0.2645
 8267W        W51205  17.388  33.697   6.107  0.1785 -0.3349  0.2098
 8268W        W51206  14.910  33.524   6.228  0.0267 -0.2622  0.0563
 8269W        W51207  16.971  33.844   3.089 -0.0783  0.3098 -0.1039
 8270W        W51208  17.593  34.138   6.419  0.1699  0.0436  0.0269
 8271W        W51209  18.505   0.370   2.676 -0.0975  0.2401  0.1030
 8272W        W51210  16.262  31.304   4.587  0.1271  0.1587 -0.2592
 8273W        W51211  16.663  34.044   5.635 -0.0982  0.1518  0.0328
 8274W        W51212  15.516  33.707   4.061 -0.2407  0.1608  0.0880
 8275W        W51213  14.899  34.381   6.008 -0.1648 -0.0711 -0.2871
 8276W        W51214  15.489  33.292   3.338  0.0922  0.0240  0.1213
 8277W        W51215  17.369   0.056   5.758  0.1925  0.0966 -0.2847
 8278W        W51216  18.640   0.002   5.551 -0.0426 -0.0626  0.0231
 8279W        W51217  13.698  34.621   5.524  0.0542  0.2756 -0.0382
 8280W        W51218  18.624  32.357   6.171 -0.3666 -0.0682 -0.2200
 8281W        W51219  13.972  33.894   7.248  0.1229  0.0435 -0.2103
 8282W        W51220  17.862  32.637   5.144  0.1287  0.0827 -0.0671
 8283W        W51221  17.900  33.518   6.139 -0.0892 -0.2524 -0.2961
 8284W        W51222  18.338  33.063   7.886  0.2106 -0.1393  0.2079
 8285W        W51223  16.263  33.438   4.940  0.3294 -0.1174  0.1302
 8286W        W51224  14.952  33.010   4.476  0.1751 -0.3470 -0.2062
 8287W        W51225  17.036  33.757   5.722  0.2249 -0.1643 -0.1752
 8288W        W51226  18.501  32.164   3.969  0.0186  0.0018  0.0082
 8289W        W51227  15.746  34.089   6.385  0.1248  0.0651 -0.0834
 8290W        W51228  14.378  32.781   4.439 -0.1170  0.4193  0.2194
 8291W        W51229  16.547  32.217   6.758  0.3534 -0.2931 -0.1934
 8292W        W51230  16.153  34.468   7.079  0.0783 -0.1949  0.0173
 8293W        W51231  14.415  33.539   5.169  0.0023  0.2199 -0.0727
 8294W        W51232  15.676  34.541   5.355  0.1547 -0.0694  0.0050
 8295W        W51233  13.604  33.525   5.601  0.1094  0.0562  0.2031
 8296W        W51234  14.207  33.976   6.405 -0.1142 -0.1281 -0.1230
 8297W        W51235  15.365  34.604   5.957 -0.0875 -0.1075 -0.1909
 8298W        W51236  17.860  33.651   6.667  0.0580  0.4188 -0.1859
 8299W        W51237  14.112  33.661   6.816  0.1270  0.1154  0.1998
 8300W        W51238  13.551  33.099   4.044 -0.1265 -0.0216  0.0121
 8301W        W51239  16.936  34.544   5.442 -0.0215 -0.0404  0.0487
 8302W        W51240  14.201  33.233   6.581 -0.1788  0.0693 -0.1469
 8303W        W51241  19.047  32.165   5.219 -0.1058 -0.2655  0.2158
 8304W        W51242  15.076  33.840   4.072  0.3467 -0.2009 -0.1343
 8305W        W51243  15.602  32.940   7.220 -0.3164  0.1340  0.4536
 8306W        W51244  15.480  31.686   4.127  0.0892 -0.0437  0.0103
 8307W        W51245  18.081  33.471   3.956 -0.1141 -0.0447  0.0843
 8308W        W51246  13.874  33.496   6.276 -0.1995  0.2357  0.0854
 8309W        W51247  16.734  33.783   4.902 -0.1815 -0.0742  0.0411
 8310W        W51248  16.789  34.399   5.996  0.0363  0.2128 -0.2748
 8311W        W51249  16.201  34.308   3.151  0.1262 -0.2411  0.2409
 8312W        W51250  19.409   0.901   4.874  0.2087 -0.0553 -0.1419
 8313W        W51251  14.693  34.014   6.306  0.0156  0.1415 -0.1112
 8314W        W51252  15.217  33.556   3.640 -0.2353 -0.0358 -0.1798
 8315W        W51253  15.672  34.657   6.309  0.0914  0.1624 -0.0948
 8316W        W51254  17.764  33.109   5.501  0.1751 -0.2599 -0.0078
 8317W        W51255  15.844  33.781   5.966 -0.2519  0.0477 -0.3703
 8318W        W51256  16.527  32.671   3.815 -0.1890  0.0690  0.2469
 8319W        W51257  16.225  32.471   7.951 -0.1425 -0.1007 -0.0093
 8320W        W51258  18.031  31.853   7.748  0.0520  0.1361  0.1972
 8321W        W51259  18.363   0.819   8.795  0.0891 -0.1987 -0.3422
 8322W        W51260  14.153  33.062   8.375  0.0134  0.2826  0.1794
 8323W        W51261  17.533  34.204   7.563  0.2653 -0.1123 -0.4316
 8324W        W51262  17.041   0.512   7.902 -0.1495  0.0351 -0.2048
 8325W        W51263  17.537  33.714   7.214  0.3685  0.1694  0.0124
 8326W        W51264  14.557  29.998   9.811  0.0121 -0.0360 -0.0289
 8327W        W51265  17.559  32.454  12.767 -0.0906 -0.2054  0.1951
 8328W        W51266  15.214   0.086   9.462 -0.2824 -0.1955 -0.0698
 8329W        W51267  16.009  33.766   8.512  0.3043 -0.2439  0.3743
 8330W        W51268  16.919  32.922   9.012 -0.0141  0.0642 -0.1635
 8331W        W51269  16.069  32.568   9.337  0.0571 -0.3955 -0.0644
 8332W        W51270  15.638  34.586   7.919 -0.0895  0.5180 -0.0794
 8333W        W51271  13.149  32.201   8.346  0.1548  0.1308  0.2225
 8334W        W51272  15.900  33.610   9.037  0.0143 -0.2369 -0.2527
 8335W        W51273  17.149  31.741   9.838 -0.1768  0.0487 -0.1213
 8336W        W51274  18.276   0.147   9.075  0.3621 -0.4539  0.0930
 8337W        W51275  17.384   0.028   8.801 -0.1247  0.2164  0.0205
 8338W        W51276  17.490   0.289   7.869  0.2185  0.3453 -0.0409
 8339W        W51277  17.889  31.662   7.217 -0.3228  0.0470 -0.3477
 8340W        W51278  16.583  33.837   7.287 -0.2215  0.1593 -0.2015
 8341W        W51279  18.882  32.721   7.853  0.0487  0.1744  0.0538
 8342W        W51280  16.613  32.892   7.606 -0.0414 -0.0232  0.1569
 8343W        W51281  17.722  33.066   8.572 -0.1503 -0.2643  0.0839
 8344W        W51282  17.019  34.196   7.450  0.1974  0.2872  0.0921
 8345W        W51283  15.444  33.882   9.522 -0.2818 -0.1236  0.0647
 8346W        W51284  15.270  33.476   8.669 -0.0528 -0.2931 -0.1384
 8347W        W51285  16.189   0.599   9.378 -0.0780 -0.1675  0.4351
 8348W        W51286  14.304  32.207   7.337 -0.3546  0.2972  0.1256
 8349W        W51287  20.111  33.993   9.099 -0.1357 -0.0786 -0.0950
 8350W        W51288  17.267  32.630   9.183  0.3202  0.0867 -0.3405
 8351W        W51289  16.216  33.105   9.631 -0.2608 -0.2044  0.5559
 8352W        W51290  17.632   0.237   6.442 -0.1110  0.1892 -0.1697
 8353W        W51291  18.008  32.197   8.461  0.1824 -0.4185  0.1092
 8354W        W51292  18.193  33.957   8.306 -0.0888  0.2590 -0.2139
 8355W        W51293  19.043  32.237   9.057 -0.2076 -0.0634 -0.2269
 8356W        W51294  19.347  34.147   8.744  0.3808  0.1523  0.0076
 8357W        W51295  14.396   1.027   9.579  0.0052 -0.0160  0.3284
 8358W        W51296  15.168  34.662   8.935 -0.0244 -0.1484  0.0058
 8359W        W51297  13.908  32.642   8.158  0.2218 -0.0057  0.0756
 8360W        W51298  14.140  32.465   7.752  0.2421 -0.1097 -0.1107
 8361W        W51299  17.247  34.353   8.497  0.0480  0.0074  0.2071
 8362W        W51300  15.623  34.003   6.853 -0.0187 -0.2176 -0.0529
 8363W        W51301  16.899  33.924   9.881 -0.0320  0.2387  0.1288
 8364W        W51302  14.288   0.352   7.253 -0.0889  0.1995 -0.1250
 8365W        W51303  15.454  33.628   7.855  0.0537  0.3269  0.0874
 8366W        W51304  17.047  34.258   8.906  0.0769 -0.1119 -0.2398
 8367W        W51305  14.815  34.007   6.820 -0.1058 -0.1574  0.0430
 8368W        W51306  13.725  34.174   8.550 -0.3376  0.0172  0.4473
 8369W        W51307  18.400  31.882   8.607  0.1541  0.1344 -0.3086
 8370W        W51308  14.306   0.514   7.777 -0.1598 -0.2268 -0.3365
 8371W        W51309  15.962  32.944   8.130  0.3428 -0.2306  0.1650
 8372W        W51310  18.861  34.001   8.374  0.0483  0.1263 -0.1959
 8373W        W51311  17.776  33.870   7.980  0.1398  0.2783 -0.1241
 8374W        W51312  17.778  33.291   7.119  0.1636  0.2020  0.2424
 8375W        W51313  16.078  33.669   6.479  0.0504 -0.3389  0.0508
 8376W        W51314  15.315  32.887   9.361  0.0469  0.1276 -0.0457
 8377W        W51315  18.228  33.576   8.032 -0.0125 -0.0570  0.0704
 8378W        W51316  17.092  32.722   7.503  0.1639 -0.2134 -0.3021
 8379W        W51317  15.962  30.981   9.492  0.1891 -0.2224 -0.2235
 8380W        W51318  17.727  33.432   8.908  0.0524 -0.1504 -0.0798
 8381W        W51319  17.950  33.137   6.522 -0.2171 -0.1338  0.2877
 8382W        W51320  15.826  33.559   9.532 -0.1603 -0.1221  0.1614
 8383W        W51321  17.034  33.873   7.062 -0.2225  0.0017 -0.1621
 8384W        W51322  16.457  32.150   8.355  0.0694 -0.0182 -0.1176
 8385W        W51323  16.975  33.184   7.958  0.0902  0.1717 -0.2018
 8386W        W51324  16.485  32.629   9.771  0.0534 -0.3664 -0.0345
 8387W        W51325  17.660  32.509   8.890  0.1187 -0.1366 -0.0870
 8388W        W51326  14.863   0.041   7.924 -0.0445  0.0373 -0.0102
 8389W        W51327  15.519  34.304   9.170 -0.1269 -0.1452 -0.0912
 8390W        W51328  17.874  33.557   8.431 -0.1527  0.1132  0.0340
 8391W        W51329  15.382  32.812   7.951  0.3093 -0.1398  0.2203
 8392W        W51330  16.927  33.413   9.002  0.0775 -0.1372 -0.1111
 8393W        W51331  18.025  32.686   8.574 -0.1280  0.3200 -0.0993
 8394W        W51332  16.800  32.596   8.011 -0.1681 -0.1557 -0.1242
 8395W        W51333  18.693  32.837   8.632  0.0190 -0.1474 -0.4227
 8396W        W51334  14.640  34.010   8.372 -0.3073  0.1275  0.0573
 8397W        W51335  16.618  34.457   7.526  0.1918 -0.0745 -0.1655
 8398W        W51336  19.743  32.454   8.693  0.1270  0.1186  0.1774
 8399W        W51337  18.012  34.359   8.030  0.0864 -0.0440 -0.1164
 8400W        W51338  16.852  33.072   8.565 -0.2692  0.1757  0.0921
 8401W        W51339  17.317  33.818   7.792 -0.2591  0.1783  0.1436
 8402W        W51340  17.514  31.961   9.315  0.0329 -0.2559 -0.0868
 8403W        W51341  15.499  32.110   9.043 -0.0627  0.1755 -0.0257
 8404W        W51342  16.438  33.156   8.898 -0.1300  0.0625  0.1270
 8405W        W51343  17.695  32.045   7.463 -0.3061 -0.0585 -0.0838
 8406W        W51344  17.927  32.716   7.995  0.1179  0.0628 -0.1027
 8407W        W51345  18.162  33.799   7.601  0.0894 -0.2030 -0.2595
 8408W        W51346  15.575  33.146   8.855 -0.1928 -0.1423  0.1083
 8409W        W51347  18.578  32.358   8.531  0.1237  0.0399  0.3406
 8410W        W51348  16.564  33.582   6.853  0.2979 -0.1733 -0.1941
 8411W        W51349  16.479  33.609   8.749  0.3314  0.2636 -0.1592
 8412W        W51350  16.940  33.016   9.572 -0.0620 -0.2687 -0.1869
 8413W        W51351  16.483  32.852   9.293  0.2557 -0.0304  0.0465
 8414W        W51352  17.785  33.305   9.553 -0.0776 -0.2474 -0.2918
 8415W        W51353  16.958  33.535   9.574  0.0749  0.0373 -0.3234
 8416W        W51354  20.149  32.783   8.877 -0.0709 -0.0800 -0.1042
 8417W        W51355  20.224  34.116  10.086  0.0180  0.0045  0.3460
 8418W        W51356  18.767  33.073   8.183  0.0035  0.1427 -0.3908
 8419W        W51357  17.975  33.886   8.841 -0.1778  0.3373 -0.2556
 8420W        W51358  15.154  32.792  10.016 -0.0367 -0.3133 -0.0912
 8421W        W51359  15.484  31.936   7.715 -0.0151 -0.0540 -0.0132
 8422W        W51360  17.358  33.261   9.873 -0.2635  0.0302 -0.1445
 8423W        W51361  14.686  34.368   8.798 -0.4067 -0.1380  0.1195
 8424W        W51362  16.072   0.658   7.494  0.0844  0.0335 -0.3885
 8425W        W51363  16.934  34.646   7.101  0.0440 -0.2041 -0.0949
 8426W        W51364  17.193  31.704   6.861  0.0801 -0.0953  0.1982
 8427W        W51365  16.345  32.537   8.871 -0.2798  0.0939  0.3553
 8428W        W51366  16.047  32.459   8.473  0.3978 -0.0377 -0.0503
 8429W        W51367  17.288  34.695   9.785 -0.1579  0.3006  0.0959
 8430W        W51368  16.244   0.252   7.895 -0.0540  0.0432 -0.2066
 8431W        W51369  15.168  34.169   7.881 -0.0941  0.1498  0.1991
 8432W        W51370  15.369  33.461   7.178 -0.2436  0.0036  0.0545
 8433W        W51371  16.099  33.824   7.005  0.1929  0.1195  0.0633
 8434W        W51372  18.563  32.599   7.039 -0.3089  0.2240  0.0376
 8435W        W51373  17.743  31.764   8.743  0.1250 -0.0069  0.0158
 8436W        W51374  18.333  32.964   8.908 -0.0533 -0.0283 -0.3666
 8437W        W51375  15.182  32.892   7.452  0.0555  0.0169 -0.3423
 8438W        W51376  16.909  33.076   7.187  0.1011 -0.2167  0.0169
 8439W        W51377  13.552  33.675   6.984 -0.1942  0.0494 -0.3025
 8440W        W51378  16.070  32.964   8.638 -0.1813  0.1941 -0.3242
 8441W        W51379  15.851  31.944   9.377  0.1618 -0.2579  0.1619
 8442W        W51380  18.658   3.562   9.970  0.1532  0.0925  0.1574
 8443W        W51381  14.859  31.995   8.808  0.2861  0.1254 -0.2120
 8444W        W51382  18.141  31.442   8.558 -0.0661 -0.0472 -0.1196
 8445W        W51383  19.124  34.410   9.197  0.3351 -0.3177 -0.0655
 8446W        W51384  14.538  33.309   8.778 -0.0556 -0.0322 -0.1651
 8447W        W51385  16.938  31.424   9.465 -0.1041 -0.3837  0.0782
 8448W        W51386  16.220  34.023   9.091  0.1005  0.2296 -0.0328
 8449W        W51387  16.619  32.631   7.126 -0.0892 -0.0276 -0.1584
 8450W        W51388  18.395  34.135   8.743 -0.0626  0.0686  0.2044
 8451W        W51389  15.044  32.168   8.366 -0.1882 -0.2167  0.1434
 8452W        W51390  18.725  33.659   8.035 -0.0928 -0.0037  0.0079
 8453W        W51391  15.182  33.080   8.415  0.1868 -0.1334  0.3360
 8454W        W51392  15.687   0.636   9.324  0.1063 -0.1470  0.0239
 8455W        W51393  14.449  33.890   7.691  0.3447  0.1887  0.1618
 8456W        W51394  18.266  33.250   9.870  0.1383  0.1805  0.1480
 8457W        W51395  18.274   0.101   7.306 -0.2193  0.1172  0.0389
 8458W        W51396  14.515  31.848   8.233 -0.2403  0.2075 -0.1270
 8459W        W51397  15.025  32.647   8.230 -0.2142  0.1147 -0.2314
 8460W        W51398  15.437  33.800   9.016  0.0395  0.0818  0.0375
 8461W        W51399  17.032  32.730  10.003 -0.2687 -0.1441 -0.1980
 8462W        W51400  18.265  33.320   9.294 -0.1962 -0.3007 -0.4279
 8463W        W51401  17.893  33.172   8.061  0.0036 -0.1709 -0.1563
 8464W        W51402  19.151  32.197   8.035 -0.1240 -0.1641  0.0699
 8465W        W51403  16.998  32.257   8.390 -0.0043 -0.0348  0.0309
 8466W        W51404  17.278  34.400   9.298  0.1156  0.1433 -0.3390
 8467W        W51405  14.325   0.275   8.806 -0.0812 -0.1254 -0.0871
 8468W        W51406  14.973   1.063   9.221  0.1912  0.0006 -0.0816
 8469W        W51407  15.073  33.197   7.898  0.1434  0.1066  0.0808
 8470W        W51408  17.343  32.990   8.280 -0.0613 -0.0356 -0.2924
 8471W        W51409  14.223  32.279   8.338  0.1372 -0.3334 -0.1519
 8472W        W51410  17.298  33.401   8.615 -0.0565  0.2066 -0.0895
 8473W        W51411  15.671  33.808   7.358  0.1670 -0.0452 -0.0634
 8474W        W51412  16.815  33.265  10.037 -0.0986 -0.1949 -0.0810
 8475W        W51413  14.704  31.465   8.974  0.2652  0.1668 -0.1157
 8476W        W51414  14.922  31.313   9.421 -0.1865  0.4889 -0.4446
 8477W        W51415  17.454  33.422   8.084  0.1772 -0.3518 -0.1632
 8478W        W51416  15.608  32.300   8.608 -0.1371  0.3125  0.1864
 8479W        W51417  16.503  33.006   8.112 -0.0590  0.0311  0.1780
 8480W        W51418  13.968  31.924   9.077 -0.2126  0.2435 -0.3402
 8481W        W51419  17.455  32.982   7.773  0.1298 -0.1090 -0.0541
 8482W        W51420  17.778  34.258   8.473  0.0790 -0.0975 -0.1085
 8483W        W51421  19.863  34.428   7.951  0.2427 -0.2575  0.0572
 8484W        W51422  16.305  31.918   8.883 -0.0075  0.0894 -0.0106
 8485W        W51423  13.533   0.046   7.846 -0.2776  0.1210 -0.0549
 8486W        W51424  16.977  33.637   8.141 -0.1471 -0.2750  0.0819
 8487W        W51425  16.365  30.374   9.422  0.1058  0.1012  0.3849
 8488W        W51426  15.588  33.314   8.314 -0.1563 -0.0099 -0.3090
 8489W        W51427  18.281  33.132   8.430  0.1303 -0.1008 -0.0965
 8490W        W51428  20.097   2.566   4.285 -0.0707  0.4780 -0.0299
 8491W        W51429  20.289   1.510  31.742  0.3524 -0.1899  0.0566
 8492W        W51430  23.474   1.870   1.339 -0.0311 -0.0602  0.0230
 8493W        W51431  20.335   1.987   0.153 -0.2283  0.0778 -0.2906
 8494W        W51432  18.294   0.557   0.658  0.1601  0.0864  0.5649
 8495W        W51433  20.921   4.289   2.282 -0.0222  0.1776 -0.0765
 8496W        W51434  19.474  34.058   2.489 -0.1506  0.1115 -0.1616
 8497W        W51435  21.223   2.345   2.002  0.6258  0.1941 -0.0607
 8498W        W51436  21.303   3.938   2.029  0.0982 -0.1213  0.1127
 8499W        W51437  21.232   1.833   0.405  0.4075  0.0622 -0.1864
 8500W        W51438  20.709   1.260   2.198 -0.0701 -0.2061  0.0945
 8501W        W51439  20.098   1.114   3.518 -0.0380  0.1417 -0.1514
 8502W        W51440  19.160   0.280   1.040  0.1723  0.1654 -0.0354
 8503W        W51441  17.935  34.422   2.471  0.3507 -0.0630 -0.0941
 8504W        W51442  19.858   1.702   2.305  0.0321 -0.4219  0.0444
 8505W        W51443  19.112   1.132   0.212 -0.2371  0.2090 -0.0483
 8506W        W51444  18.573  34.310   1.525 -0.1026 -0.0761  0.2643
 8507W        W51445  19.939   1.843  31.867  0.0938 -0.1264  0.2666
 8508W        W51446  20.540   3.972   2.352 -0.1257  0.2471  0.1273
 8509W        W51447  19.971   0.771   2.168 -0.0641 -0.1036  0.0317
 8510W        W51448  20.935   0.107   3.070 -0.1076 -0.0503  0.1125
 8511W        W51449  19.598   3.801   0.894  0.1853  0.0513 -0.0315
 8512W        W51450  17.936   0.762  31.419 -0.0268  0.1165  0.1687
 8513W        W51451  17.075   0.097   2.905  0.2271  0.1575 -0.4169
 8514W        W51452  19.223   2.398   2.348  0.4816 -0.0391 -0.1465
 8515W        W51453  22.149   0.846   1.275  0.1796 -0.0688  0.2895
 8516W        W51454  21.263   1.953   1.665 -0.1154  0.0119 -0.1829
 8517W        W51455  19.733   4.308   1.735  0.0199  0.1377  0.0479
 8518W        W51456  19.568   3.058   2.491 -0.0109  0.1361 -0.0415
 8519W        W51457  19.366   2.197   4.750 -0.2192  0.1167  0.1975
 8520W        W51458  18.009   2.452   2.578  0.0240 -0.4638  0.0350
 8521W        W51459  17.598   3.312   1.717  0.2860  0.1785  0.2777
 8522W        W51460  18.234   3.817  31.586  0.0307 -0.0338  0.2760
 8523W        W51461  22.204   2.374   1.340  0.4769 -0.0967 -0.3486
 8524W        W51462  20.845   2.843   3.231 -0.0051  0.0297 -0.1070
 8525W        W51463  19.001   4.333   3.613  0.4549 -0.0884  0.0184
 8526W        W51464  19.869   1.157   0.558  0.2023 -0.0679 -0.2398
 8527W        W51465  21.344   3.950   4.325  0.2200  0.4682  0.0522
 8528W        W51466  19.029   2.946   3.131 -0.1787 -0.0954  0.0868
 8529W        W51467  19.697   2.385   2.352 -0.2687 -0.3104 -0.0583
 8530W        W51468  19.948   1.633   0.923  0.2238  0.0324 -0.2854
 8531W        W51469  19.411   4.728   0.321 -0.1866  0.1138 -0.2237
 8532W        W51470  20.725   1.118   2.721  0.2056 -0.2254 -0.1522
 8533W        W51471  19.669   1.408   3.492  0.1385  0.0636 -0.2086
 8534W        W51472  18.292   2.081   2.242 -0.0718  0.1218  0.1689
 8535W        W51473  21.363   0.932   4.056 -0.0268  0.1472 -0.1073
 8536W        W51474  19.251   3.247   1.574  0.2103 -0.1045  0.3232
 8537W        W51475  23.208   2.380   0.962  0.0771 -0.0912 -0.0791
 8538W        W51476  19.098   1.645  30.528  0.2404 -0.0645  0.0825
 8539W        W51477  21.235   2.845   1.228 -0.3309 -0.2712  0.1392
 8540W        W51478  20.616  33.394   1.834 -0.1788  0.3933 -0.1019
 8541W        W51479  19.142   3.607   0.886 -0.0628 -0.1264 -0.3497
 8542W        W51480  20.291  34.018   2.126  0.0983  0.2063  0.0919
 8543W        W51481  22.718   3.002   3.262  0.3318  0.0268 -0.1966
 8544W        W51482  21.077   0.715   1.264 -0.1882 -0.1856  0.0960
 8545W        W51483  21.077   0.848   2.165  0.1000 -0.0485 -0.0881
 8546W        W51484  18.501   2.443   2.503 -0.1366  0.2570 -0.2464
 8547W        W51485  19.019   1.140   2.155  0.2286  0.1905  0.1325
 8548W        W51486  19.968   4.351   0.453 -0.1819  0.1141  0.1082
 8549W        W51487  21.602   2.510   0.597  0.1665 -0.0362  0.1501
 8550W        W51488  20.961   4.859   0.070 -0.1462  0.3686 -0.1861
 8551W        W51489  18.654  34.628   0.118 -0.0515  0.0804  0.3698
 8552W        W51490  17.582   2.416   2.834 -0.0351  0.1093  0.0849
 8553W        W51491  18.794   0.081   1.353  0.2257  0.1930  0.0533
 8554W        W51492  19.312  34.164  31.030  0.1166  0.0418 -0.2820
 8555W        W51493  22.119   2.720   2.006 -0.3006 -0.3734 -0.4260
 8556W        W51494  18.421   2.396   3.190 -0.2034 -0.1299  0.3335
 8557W        W51495  20.167   0.171   1.348  0.1637  0.1259  0.2842
 8558W        W51496  20.868   3.146   1.370  0.3277  0.0727  0.2400
 8559W        W51497  22.803   3.177   2.426  0.1328  0.1492 -0.1073
 8560W        W51498  21.115   2.363   0.540 -0.0465 -0.2222  0.3183
 8561W        W51499  21.228   0.048   1.987 -0.0470 -0.1455  0.3098
 8562W        W51500  21.073   1.439   2.551  0.0235 -0.3461  0.1154
 8563W        W51501  18.551   2.886   2.096 -0.3871 -0.4725  0.2086
 8564W        W51502  21.007   0.260   0.921 -0.3524 -0.4167 -0.0617
 8565W        W51503  21.154   3.678   3.354  0.2248 -0.1066 -0.1727
 8566W        W51504  20.667   3.056   0.255 -0.1465  0.0036  0.1159
 8567W        W51505  19.939   1.887   1.683  0.1853 -0.1374 -0.2055
 8568W        W51506  20.046   0.285   2.541 -0.2268  0.0456  0.2412
 8569W        W51507  20.421   4.206   2.862  0.0665 -0.1779 -0.1088
 8570W        W51508  17.225   4.217   0.942 -0.1476 -0.2493  0.0428
 8571W        W51509  19.265   0.404   1.509 -0.0836  0.1411 -0.0312
 8572W        W51510  18.817   0.797   0.803  0.2347  0.0886 -0.1629
 8573W        W51511  17.794  34.505   4.041  0.2115  0.0255 -0.1832
 8574W        W51512  19.831   3.338   2.130 -0.0725 -0.0904 -0.0294
 8575W        W51513  21.901   0.731   0.840 -0.2483  0.0576 -0.0391
 8576W        W51514  18.300   0.798   3.108 -0.2105  0.0744 -0.0343
 8577W        W51515  22.258   1.326   0.886 -0.2109  0.1121  0.0730
 8578W        W51516  18.915   3.117   0.598  0.0369 -0.1577 -0.0779
 8579W        W51517  21.769   5.404   0.365  0.1600 -0.0435 -0.4669
 8580W        W51518  23.051   1.723   0.499  0.1372 -0.3406 -0.2736
 8581W        W51519  22.448   2.987   0.109 -0.0968 -0.0886 -0.0314
 8582W        W51520  17.343   2.010   2.323 -0.0221  0.1061  0.2016
 8583W        W51521  17.689   1.145   1.068  0.2272  0.0895 -0.1251
 8584W        W51522  20.692   0.716   2.973  0.3348  0.2658 -0.1779
 8585W        W51523  18.456   1.059   2.234  0.1146 -0.1348 -0.2690
 8586W        W51524  21.291   2.381   2.507 -0.0404 -0.2839 -0.2137
 8587W        W51525  19.305   0.462   0.589  0.1040  0.2401 -0.1861
 8588W        W51526  21.051   3.265   0.797  0.2141  0.3140 -0.0319
 8589W        W51527  19.839   1.225  31.901  0.0629 -0.3983 -0.3748
 8590W        W51528  18.590   1.816   1.458  0.2896 -0.1012 -0.0137
 8591W        W51529  21.407   1.392   2.967 -0.1704  0.0670 -0.1354
 8592W        W51530  19.552   3.033   3.019  0.0025 -0.3254 -0.0896
 8593W        W51531  19.812   3.640   3.466 -0.2510 -0.0830 -0.1948
 8594W        W51532  19.963   3.867   2.063  0.2054 -0.0555  0.0993
 8595W        W51533  20.116   1.409   3.067 -0.3370 -0.1308 -0.0494
 8596W        W51534  19.321   0.587  31.714  0.0029 -0.1937  0.2626
 8597W        W51535  18.516   3.854   1.711  0.0009  0.0452 -0.2536
 8598W        W51536  20.858   2.228   1.538 -0.2378 -0.2896 -0.2788
 8599W        W51537  19.119  34.657   0.273  0.0724 -0.2289  0.0781
 8600W        W51538  22.357   4.056   2.609 -0.0982 -0.2375  0.0842
 8601W        W51539  19.547   2.144   1.514  0.2135 -0.1548  0.0663
 8602W        W51540  19.479   1.939   2.099  0.0883  0.1827 -0.1207
 8603W        W51541  21.519   2.792   2.657  0.1430  0.2578  0.1293
 8604W        W51542  21.710   2.901   3.515 -0.0977 -0.0572 -0.1550
 8605W        W51543  20.905   1.982   2.728  0.2228 -0.0375 -0.1347
 8606W        W51544  18.602  33.878   0.994 -0.2208 -0.2956 -0.1560
 8607W        W51545  19.969   2.809   2.726  0.0974  0.0925 -0.0881
 8608W        W51546  18.752   3.205   0.097 -0.1597  0.0766 -0.1516
 8609W        W51547  18.001   1.150   1.489 -0.4858  0.4355 -0.0736
 8610W        W51548  21.290   2.274   1.233 -0.0442  0.2413  0.1071
 8611W        W51549  21.828   1.255   1.079 -0.0638 -0.0006 -0.0963
 8612W        W51550  18.520   0.243   3.856  0.0076 -0.2593  0.1804
 8613W        W51551  20.206   2.957   3.973  0.0125 -0.6933  0.1863
 8614W        W51552  18.597   0.789   0.335 -0.2474  0.4613 -0.0602
 8615W        W51553  17.489   2.453   3.421  0.0206 -0.0615  0.1241
 8616W        W51554  20.493  34.690   0.891 -0.1581  0.1780  0.0031
 8617W        W51555  22.350   1.366  31.811  0.0252  0.0497  0.1569
 8618W        W51556  20.498   1.573   3.436  0.4391  0.0630  0.1188
 8619W        W51557  21.589   2.859   2.006  0.1018 -0.1558 -0.5894
 8620W        W51558  21.899   1.711   0.747 -0.0406 -0.1028  0.1016
 8621W        W51559  20.099   0.360   0.889 -0.0395  0.0199 -0.0888
 8622W        W51560  18.637   1.599   2.197  0.2884  0.1673 -0.1246
 8623W        W51561  21.735   3.018   1.204  0.0881  0.0122  0.1052
 8624W        W51562  20.896   1.592   3.069  0.2333  0.3376  0.1959
 8625W        W51563  21.607   2.941  31.757 -0.0832  0.1118 -0.0822
 8626W        W51564  22.110   4.063   2.094  0.1480  0.1082  0.0765
 8627W        W51565  17.935   1.712   3.876 -0.4635  0.1147 -0.0404
 8628W        W51566  18.955   3.258   4.110 -0.2984 -0.2344  0.0026
 8629W        W51567  21.351   3.372   2.006  0.1213  0.5112  0.0171
 8630W        W51568  18.769   0.372   1.775  0.2424 -0.2690  0.0672
 8631W        W51569  19.792   1.719  31.038  0.0166 -0.0053 -0.2952
 8632W        W51570  19.313   0.795   1.218  0.1798 -0.1674 -0.2387
 8633W        W51571  16.702   5.127   0.764  0.1545  0.1525 -0.1507
 8634W        W51572  22.690   1.845   2.578  0.3432 -0.1019  0.1205
 8635W        W51573  19.846   1.252   2.623 -0.0626  0.2020  0.0111
 8636W        W51574  20.550   0.312   4.394 -0.1094  0.3500 -0.0469
 8637W        W51575  21.569   3.303   2.820  0.1301  0.1470 -0.1641
 8638W        W51576  21.208   3.381  31.545  0.0506 -0.2669  0.0271
 8639W        W51577  20.927   1.778   1.316  0.0747  0.0102  0.1639
 8640W        W51578  20.055   2.410  30.442  0.0009 -0.0004 -0.2048
 8641W        W51579  19.767   0.231   2.084 -0.4448 -0.0606  0.0981
 8642W        W51580  19.481   0.488   3.010 -0.0497 -0.0875  0.2060
 8643W        W51581  18.903   3.519   1.380 -0.2582  0.1070  0.1290
 8644W        W51582  20.223   3.321   3.606 -0.1298  0.0130 -0.2763
 8645W        W51583  20.932   4.182   1.311 -0.1654  0.1813  0.0910
 8646W        W51584  20.335   0.612   3.354  0.1157  0.0068 -0.2029
 8647W        W51585  19.195  34.469   0.757  0.2044  0.2325  0.1909
 8648W        W51586  20.967   2.826   0.618  0.1551  0.0193 -0.2465
 8649W        W51587  20.588   2.975   0.908  0.0732 -0.1894  0.1642
 8650W        W51588  19.198  34.296   2.130  0.1481 -0.1181  0.0894
 8651W        W51589  22.156   3.550   2.675  0.0144 -0.0075 -0.2186
 8652W        W51590  18.393   3.297  31.760  0.5646  0.1363 -0.1578
 8653W        W51591  21.209   3.099   3.528  0.0115  0.0092 -0.3922
 8654W        W51592  18.656   2.060   1.882  0.0612  0.1048  0.1469
 8655W        W51593  21.082  34.102   3.111 -0.2628 -0.1201 -0.2921
 8656W        W51594  19.869   2.567   0.615  0.0007 -0.0462  0.2418
 8657W        W51595  20.183   1.164  31.306  0.0280 -0.1094  0.1037
 8658W        W51596  19.100   1.266   1.090 -0.0245 -0.2356  0.1880
 8659W        W51597  21.637   0.770   1.388 -0.0316 -0.0206 -0.1044
 8660W        W51598  22.323   3.268  31.555 -0.1341  0.0834 -0.1497
 8661W        W51599  19.183  34.546   2.577 -0.1728  0.2537 -0.0019
 8662W        W51600  21.451   0.886   0.921  0.5695  0.2128  0.0601
 8663W        W51601  18.195   1.991   1.220 -0.0862 -0.0703 -0.2514
 8664W        W51602  19.857   3.535   3.934  0.3951  0.2706 -0.3917
 8665W        W51603  22.628   1.603   1.490  0.0489 -0.1515 -0.1717
 8666W        W51604  21.084   3.225   2.457 -0.1335  0.0781 -0.1946
 8667W        W51605  19.098   1.932   1.427 -0.0990  0.0249 -0.3120
 8668W        W51606  18.853  33.574  31.500  0.0921 -0.0162  0.1701
 8669W        W51607  22.276   1.282   2.541 -0.0007  0.1361  0.0079
 8670W        W51608  19.718   0.445   1.291  0.1371 -0.1229  0.0084
 8671W        W51609  20.353   2.031  31.597 -0.0689 -0.1570 -0.0621
 8672W        W51610  20.830   1.704   1.851  0.2446  0.1240  0.1864
 8673W        W51611  19.305   1.114  31.742  0.2705  0.1375  0.2099
 8674W        W51612  18.227   2.981   1.686  0.1536 -0.1660  0.2335
 8675W        W51613  18.648   1.285   4.070 -0.1399  0.0501  0.2761
 8676W        W51614  21.010   2.867   2.743 -0.2885 -0.0611 -0.0474
 8677W        W51615  20.558   0.258   2.694  0.0415  0.1654  0.2347
 8678W        W51616  18.918   0.681   2.354 -0.1456  0.1852  0.2148
 8679W        W51617  20.343   1.422   2.668  0.1817 -0.2154  0.0142
 8680W        W51618  21.098   2.788   2.230 -0.3492 -0.0745  0.0979
 8681W        W51619  18.775  34.566   1.953 -0.1412 -0.1073 -0.1058
 8682W        W51620  18.937   2.550   4.122  0.0832 -0.0860  0.1992
 8683W        W51621  21.310  34.527   3.310 -0.2636  0.2695  0.1470
 8684W        W51622  22.340   4.013   0.233  0.2868  0.1251  0.0391
 8685W        W51623  21.425   3.614   2.431 -0.2778  0.1912  0.1827
 8686W        W51624  19.307   0.989   0.665  0.2526  0.0581 -0.0107
 8687W        W51625  18.137   0.823   1.834 -0.1719  0.1482  0.0327
 8688W        W51626  18.068   2.513   1.102  0.0694  0.0379 -0.0517
 8689W        W51627  18.158   1.295   3.015  0.3695  0.0664  0.1729
 8690W        W51628  19.148   2.257   1.873  0.0642 -0.0258  0.0411
 8691W        W51629  20.054   2.068   0.628 -0.1280  0.0591 -0.3326
 8692W        W51630  19.454   2.008   2.637  0.3819 -0.1197 -0.1013
 8693W        W51631  20.678   0.737  31.092  0.2467  0.1714  0.2264
 8694W        W51632  21.455   2.853   0.251  0.1182 -0.1501  0.0013
 8695W        W51633  20.369   1.228   1.769  0.0603 -0.3832 -0.2600
 8696W        W51634  22.097  32.655   2.522  0.2391  0.0177 -0.1306
 8697W        W51635  20.542   5.119   1.244  0.2621  0.0230 -0.1300
 8698W        W51636  22.078   0.828   4.334  0.1891 -0.1032 -0.1200
 8699W        W51637  18.834  34.577   2.953 -0.0309  0.1803  0.0022
 8700W        W51638  22.452   2.480   0.788  0.3976 -0.2359 -0.0297
 8701W        W51639  19.452   0.320   2.462 -0.0886 -0.0498 -0.1584
 8702W        W51640  21.215   5.304   3.912  0.2410 -0.2905  0.0029
 8703W        W51641  19.180   1.694   3.363  0.4048  0.0182  0.1271
 8704W        W51642  20.580   1.121  31.617  0.1586  0.1696  0.1847
 8705W        W51643  19.598   0.654   1.872 -0.0918 -0.0572  0.0118
 8706W        W51644  20.131   0.944   2.979 -0.1985 -0.0377 -0.1367
 8707W        W51645  21.931   3.174   1.813  0.1179  0.3359 -0.1519
 8708W        W51646  21.532   2.028   0.797  0.0972  0.1522  0.0230
 8709W        W51647  21.418  34.597   1.140  0.1546 -0.2481 -0.1804
 8710W        W51648  18.918   1.231   2.707 -0.1393 -0.1219 -0.1270
 8711W        W51649  21.520   2.488   1.623  0.1425  0.0984 -0.1615
 8712W        W51650  21.702   1.954   0.301  0.0822 -0.1360  0.0894
 8713W        W51651  18.533   2.545   1.681  0.1988 -0.2469  0.1023
 8714W        W51652  19.637  34.517   2.307  0.2891  0.3655 -0.0478
 8715W        W51653  21.390   1.730   1.198 -0.1505 -0.0596 -0.0497
 8716W        W51654  20.297   1.697   2.028 -0.0654 -0.0315  0.0736
 8717W        W51655  20.419   1.793   2.987 -0.0379  0.2944 -0.0673
 8718W        W51656  19.829   1.844   3.344 -0.1053  0.0953 -0.0935
 8719W        W51657  20.626   3.003   2.357 -0.0349 -0.0251  0.0770
 8720W        W51658  19.338  34.623   3.131  0.3511  0.0871  0.1295
 8721W        W51659  20.059   2.048   4.103 -0.1067  0.2057  0.0029
 8722W        W51660  21.166   3.588   0.017 -0.0855 -0.2248 -0.0344
 8723W        W51661  21.463   0.932   1.825  0.1544 -0.2530  0.2557
 8724W        W51662  22.066   0.867   2.043  0.1282 -0.0776  0.0114
 8725W        W51663  20.193   1.103   0.959  0.0284  0.2070 -0.2063
 8726W        W51664  19.349   1.507   2.445 -0.0345  0.3880 -0.0955
 8727W        W51665  21.037   3.591   4.061  0.0798  0.0425  0.3608
 8728W        W51666  19.765   0.498   0.474  0.0462  0.1141 -0.1737
 8729W        W51667  21.031   1.099   3.182  0.0772 -0.0974  0.2606
 8730W        W51668  19.984   4.526   3.035 -0.3564  0.1289  0.2208
 8731W        W51669  20.784   2.480   2.526 -0.0021  0.0216 -0.0718
 8732W        W51670  21.377   1.200   1.322 -0.2094 -0.3304 -0.0784
 8733W        W51671  19.115   0.709   1.888 -0.1089 -0.1955  0.2638
 8734W        W51672  18.456   3.478   3.499  0.2327  0.0431  0.1938
 8735W        W51673  18.763   1.277  31.829  0.1126  0.0658 -0.1365
 8736W        W51674  19.836   0.586  31.945 -0.2320  0.1735  0.1248
 8737W        W51675  19.537   2.155   3.158 -0.1849  0.1387 -0.0711
 8738W        W51676  22.280   3.376   3.139  0.0898 -0.0983 -0.1591
 8739W        W51677  19.445  34.245  31.858 -0.0247 -0.2300 -0.0870
 8740W        W51678  21.588   1.694   3.998  0.0430  0.0954 -0.0780
 8741W        W51679  20.581   2.652   1.930 -0.1322  0.2038 -0.1754
 8742W        W51680  20.539  33.714   0.641 -0.2034 -0.0910 -0.3047
 8743W        W51681  20.090   3.872   2.576 -0.0870 -0.0205  0.1692
 8744W        W51682  17.816   2.057   2.104 -0.4862  0.2097  0.1398
 8745W        W51683  20.389   2.775   3.507  0.0391  0.1591 -0.1335
 8746W        W51684  20.858   0.144   3.735 -0.4283  0.1607 -0.1041
 8747W        W51685  21.087   0.551   1.719 -0.0295 -0.0171 -0.1138
 8748W        W51686  19.419   1.071   1.657  0.1932 -0.2730  0.0837
 8749W        W51687  21.237   0.993   2.658  0.4481 -0.1877  0.1918
 8750W        W51688  20.293   3.557   3.038  0.2321 -0.0702  0.3571
 8751W        W51689  20.072   2.135   2.077 -0.2855  0.0422 -0.3551
 8752W        W51690  20.662   3.486   1.712  0.1678 -0.2838 -0.1668
 8753W        W51691  22.823   2.450   1.230 -0.0243 -0.2876 -0.1776
 8754W        W51692  19.641   3.035   1.829  0.0295 -0.1347  0.4202
 8755W        W51693  18.013   0.737   3.593 -0.1266 -0.2377 -0.1486
 8756W        W51694  21.199   0.622   3.109  0.2320 -0.0227 -0.1273
 8757W        W51695  21.523   0.178   3.009  0.0681  0.0722  0.2915
 8758W        W51696  20.211  34.171   1.564 -0.0260 -0.1182 -0.0901
 8759W        W51697  20.208   1.924  30.589 -0.1065  0.1331  0.2017
 8760W        W51698  18.780   2.463   2.118 -0.0768  0.3848 -0.3382
 8761W        W51699  18.807   0.694   1.324 -0.0828 -0.0102 -0.2319
 8762W        W51700  18.723   3.691  31.835 -0.1098 -0.2512  0.0041
 8763W        W51701  21.391   3.369   1.210 -0.1308 -0.0315  0.0230
 8764W        W51702  22.489   2.019   1.144 -0.1870  0.5650  0.1003
 8765W        W51703  20.936   3.169   1.931  0.4792  0.2764 -0.1100
 8766W        W51704  20.063  34.499   0.577 -0.2172  0.1031 -0.0871
 8767W        W51705  17.673   3.275   2.809 -0.1125  0.1407 -0.0502
 8768W        W51706  19.101   1.504  31.454 -0.2926  0.2355 -0.2511
 8769W        W51707  19.902   3.811   0.489  0.0535 -0.1393 -0.1747
 8770W        W51708  19.309   2.867   0.524  0.3260  0.3440  0.0396
 8771W        W51709  20.977   3.899   2.695  0.0074  0.2019 -0.0316
 8772W        W51710  20.231   2.546  31.499 -0.3705 -0.0579 -0.0292
 8773W        W51711  21.400   1.525   0.783  0.0617 -0.1781 -0.3151
 8774W        W51712  20.938   2.644   0.088  0.2043 -0.0777  0.3464
 8775W        W51713  20.349   4.170   4.913 -0.4103 -0.2246  0.4630
 8776W        W51714  19.556   1.085   2.215 -0.1738 -0.0173  0.0995
 8777W        W51715  20.209   1.677  31.298  0.1210  0.1138 -0.0340
 8778W        W51716  19.799   2.242   3.637 -0.2070  0.0684 -0.0649
 8779W        W51717  21.473   0.107   2.453  0.0948  0.6714 -0.1318
 8780W        W51718  17.449   2.880   3.716 -0.0565 -0.0467 -0.0651
 8781W        W51719  21.532   3.642   0.778 -0.0304  0.1808  0.0418
 8782W        W51720  19.877   2.480   1.350 -0.1507 -0.1391 -0.2602
 8783W        W51721  20.009   1.430   1.402  0.2618  0.1167  0.1203
 8784W        W51722  22.381  34.049   2.525 -0.2463  0.3109 -0.0372
 8785W        W51723  20.024   2.068   1.186  0.1046 -0.0866  0.0407
 8786W        W51724  19.455   1.554   1.612 -0.1401 -0.0237 -0.1308
 8787W        W51725  18.763   2.941   1.389  0.1094 -0.0356 -0.0018
 8788W        W51726  19.906   1.802   2.831 -0.0268  0.0971  0.1253
 8789W        W51727  18.982   2.814   2.473 -0.2373 -0.0125 -0.1653
 8790W        W51728  19.432   0.268   0.103  0.0477 -0.0895  0.2619
 8791W        W51729  20.515   1.839   0.601  0.0761  0.1628 -0.3287
 8792W        W51730  20.809   0.581   3.487  0.0328  0.0475  0.0685
 8793W        W51731  21.728   1.992   2.145  0.2259  0.3330 -0.0263
 8794W        W51732  20.540   2.735   1.426  0.1354  0.0989  0.0073
 8795W        W51733  22.311   1.091   0.410 -0.0708  0.2847  0.2658
 8796W        W51734  19.986   2.285   2.876  0.0282 -0.0327  0.0867
 8797W        W51735  20.292   1.949   2.488  0.0482 -0.1176 -0.0458
 8798W        W51736  20.396   0.653  31.544 -0.1969  0.4165 -0.0488
 8799W        W51737  22.989   2.291   2.136  0.0740  0.0706 -0.2564
 8800W        W51738  20.419   1.758   1.503 -0.2371 -0.0897 -0.1290
 8801W        W51739  21.099   4.206   3.176  0.3561  0.1003  0.1063
 8802W        W51740  18.011  33.679   2.203  0.3469 -0.1092 -0.0696
 8803W        W51741  20.481  34.627   0.403 -0.2616  0.0189  0.0267
 8804W        W51742  19.522   1.644   0.107  0.1445 -0.0403  0.3254
 8805W        W51743  19.326   0.156   1.933  0.2632  0.0282 -0.0063
 8806W        W51744  20.685   3.563   3.733  0.1566  0.2002 -0.1319
 8807W        W51745  18.297  34.616   1.211 -0.0870  0.1313 -0.0995
 8808W        W51746  21.784   3.818   0.162 -0.1544  0.0156  0.1332
 8809W        W51747  22.726   2.427   3.303  0.1169 -0.0470  0.0360
 8810W        W51748  21.378   3.956   0.426 -0.0745  0.1146 -0.0345
 8811W        W51749  20.449   1.571   1.046 -0.3081  0.3952 -0.4513
 8812W        W51750  21.333   4.244   2.550 -0.0731 -0.0131  0.0859
 8813W        W51751  18.124   0.700   2.500  0.0734  0.1307  0.0729
 8814W        W51752  21.876   3.606   2.028  0.0926 -0.2164  0.0084
 8815W        W51753  21.658   4.342   2.100  0.0348 -0.0559 -0.1256
 8816W        W51754  20.233   0.832   0.460  0.2098 -0.1363 -0.2565
 8817W        W51755  19.669   0.041   1.620  0.0636  0.0853 -0.0173
 8818W        W51756  20.317   2.269   1.589 -0.1660 -0.2020 -0.3167
 8819W        W51757  21.622   3.385   3.279  0.0626  0.0172 -0.2362
 8820W        W51758  21.561   2.355   2.943 -0.1182 -0.1348 -0.1946
 8821W        W51759  19.537   4.149  31.623  0.0053 -0.0742 -0.2166
 8822W        W51760  21.567   0.919   3.144 -0.3455  0.2121  0.0461
 8823W        W51761  20.541   1.149   3.155 -0.0688  0.0494  0.0280
 8824W        W51762  19.771   4.117   3.642  0.0261 -0.2904 -0.0225
 8825W        W51763  20.101   2.686   1.749 -0.0811 -0.1447 -0.1033
 8826W        W51764  21.161   1.899   3.670 -0.2328  0.3101 -0.1007
 8827W        W51765  17.514   2.518   1.603  0.0365  0.3544  0.0302
 8828W        W51766  20.091   3.520   1.696 -0.3054  0.2049 -0.1335
 8829W        W51767  21.158   3.638   1.563  0.3476 -0.1936 -0.0308
 8830W        W51768  20.175   1.249   2.255 -0.4030 -0.0243 -0.1437
 8831W        W51769  21.194   4.405   1.698 -0.0369 -0.1700 -0.0552
 8832W        W51770  20.528   0.474   1.116  0.0088 -0.2945 -0.2492
 8833W        W51771  21.089   0.625   0.531 -0.2222 -0.2305  0.0053
 8834W        W51772  21.306   0.187  31.630 -0.1240  0.0712  0.1469
 8835W        W51773  20.732   3.062   3.709 -0.2668 -0.0704  0.0157
 8836W        W51774  18.669  34.593  30.553  0.1362  0.0580  0.2201
 8837W        W51775  20.637   1.536   0.098  0.3427  0.0042 -0.1868
 8838W        W51776  20.495   2.261   2.928  0.0589 -0.1233 -0.0719
 8839W        W51777  20.812   1.020   4.077  0.3182 -0.2126 -0.0601
 8840W        W51778  17.370   1.942   3.047 -0.0477  0.1723 -0.2984
 8841W        W51779  17.801   0.935   3.091  0.3451 -0.0341  0.0018
 8842W        W51780  18.093   0.841   1.018 -0.2465 -0.3392  0.0583
 8843W        W51781  21.469   3.037   1.605  0.1531  0.0091  0.1557
 8844W        W51782  17.827  34.109   2.093 -0.0242 -0.2890  0.0619
 8845W        W51783  17.275  34.019   1.782  0.1294  0.2962 -0.0392
 8846W        W51784  19.635   3.344   1.247  0.1652  0.0398  0.3089
 8847W        W51785  21.406   3.923   1.200  0.1334 -0.0196 -0.0554
 8848W        W51786  21.054   0.195   1.414 -0.0101  0.0187  0.2578
 8849W        W51787  21.498   3.462   4.295  0.4139 -0.0296  0.2058
 8850W        W51788  17.127   0.845  31.816 -0.0378  0.0482 -0.0049
 8851W        W51789  20.431   0.137   3.193  0.1018 -0.3515 -0.0367
 8852W        W51790  19.629  34.251   1.846  0.1589 -0.2914  0.0106
 8853W        W51791  17.490   0.140  30.656  0.0760  0.1364 -0.1932
 8854W        W51792  20.232   2.105   3.385 -0.2190 -0.0566  0.0064
 8855W        W51793  20.277   2.478   2.353  0.0733 -0.0858 -0.0561
 8856W        W51794  21.478   4.730   0.818  0.0493  0.1581  0.3769
 8857W        W51795  19.362   2.798   2.123 -0.3363  0.0940 -0.4392
 8858W        W51796  19.553   3.143   3.643  0.0623  0.0968 -0.0461
 8859W        W51797  19.176  33.964   3.422 -0.0363  0.3147 -0.0962
 8860W        W51798  20.792   2.544   1.048  0.0881 -0.1822  0.3364
 8861W        W51799  19.236   2.839   3.835  0.1404  0.0551  0.1643
 8862W        W51800  22.006   3.301   0.801  0.1922  0.3652 -0.1596
 8863W        W51801  20.891   1.068   1.670 -0.0289 -0.2903  0.0577
 8864W        W51802  21.542   1.432   0.202  0.0597 -0.4742 -0.0294
 8865W        W51803  18.951   0.352   3.243  0.0554 -0.0784  0.2134
 8866W        W51804  19.804   0.722   2.646  0.1270 -0.0929 -0.0592
 8867W        W51805  22.798   3.212   1.886 -0.0989 -0.0825 -0.0731
 8868W        W51806  18.378  34.304   2.064  0.0024 -0.3527  0.1097
 8869W        W51807  20.740   0.997  30.638 -0.0296 -0.2087  0.0763
 8870W        W51808  19.749   2.258  30.973 -0.1894 -0.2654 -0.4523
 8871W        W51809  18.426   0.542   2.141 -0.2058 -0.1396 -0.3222
 8872W        W51810  20.590   0.790   1.997 -0.1379  0.4543  0.0231
 8873W        W51811  19.761   2.166   4.434 -0.1856 -0.2292  0.0937
 8874W        W51812  19.990   2.886   2.183  0.1345 -0.1412 -0.1154
 8875W        W51813  22.302   2.158   3.201  0.0307 -0.1408 -0.3939
 8876W        W51814  20.568   1.260   0.521 -0.1867 -0.0971  0.1096
 8877W        W51815  22.346   3.382   0.420  0.1339  0.0445 -0.1304
 8878W        W51816  20.025   4.032   3.147  0.2276  0.1115 -0.0067
 8879W        W51817  20.636   4.394   3.241 -0.1106  0.1272 -0.0618
 8880W        W51818  19.536   2.592   2.749  0.0190  0.0585  0.0761
 8881W        W51819  23.054   2.404   2.881 -0.1597 -0.1333 -0.1452
 8882W        W51820  17.462  34.609   2.519 -0.0845  0.1071 -0.0558
 8883W        W51821  20.675   2.137   2.055  0.0527  0.1681  0.1185
 8884W        W51822  20.373   3.100   1.825 -0.0298  0.1507 -0.3066
 8885W        W51823  20.430   0.864   1.437 -0.0936 -0.1982 -0.1559
 8886W        W51824  20.107   0.587   1.733 -0.2293 -0.1451  0.1815
 8887W        W51825  21.004   1.236  31.886 -0.0820  0.1240 -0.2320
 8888W        W51826  19.314   0.982   2.671  0.0916  0.2737  0.0104
 8889W        W51827  21.549   1.621   3.459 -0.0055 -0.1398  0.0028
 8890W        W51828  20.761   2.672   7.396  0.1939 -0.1191 -0.1033
 8891W        W51829  19.873   1.391   4.201 -0.0344 -0.0275  0.0202
 8892W        W51830  22.994   3.355   3.687 -0.1659 -0.0689 -0.0477
 8893W        W51831  21.600   2.595   4.873 -0.0821 -0.1936  0.1029
 8894W        W51832  18.555   0.112   5.008 -0.4342 -0.3787  0.1470
 8895W        W51833  19.620   2.586   4.788 -0.3023 -0.1001  0.0103
 8896W        W51834  18.678   0.528   8.146  0.2205  0.1797 -0.3180
 8897W        W51835  20.186   3.840   7.348 -0.1531 -0.1538 -0.1708
 8898W        W51836  22.520   4.073   6.078 -0.0800 -0.2313 -0.0012
 8899W        W51837  21.034   2.438   2.965 -0.1194 -0.1144 -0.0403
 8900W        W51838  20.590   1.138   6.092  0.0242 -0.3502  0.0591
 8901W        W51839  19.326   3.232   6.200 -0.1403 -0.0954  0.0404
 8902W        W51840  19.697  33.885   4.068  0.2279 -0.1116  0.0913
 8903W        W51841  18.534  32.975   5.768 -0.2181 -0.1413 -0.1061
 8904W        W51842  20.537   2.286   5.102  0.1930 -0.0394  0.4375
 8905W        W51843  19.093   0.819   4.079 -0.0031  0.0869  0.1672
 8906W        W51844  20.854   1.497   6.310 -0.0001  0.0578  0.1588
 8907W        W51845  20.943   0.386   5.320 -0.0054  0.1900 -0.4389
 8908W        W51846  20.116   4.586   6.286 -0.1191 -0.0618 -0.0988
 8909W        W51847  20.168   0.532   5.405  0.0271 -0.1638  0.1586
 8910W        W51848  20.675   0.153   6.405 -0.1329 -0.1673 -0.3181
 8911W        W51849  18.853   2.220   4.563  0.1773 -0.2104  0.2173
 8912W        W51850  18.416   1.045   4.450  0.0622  0.0213  0.0993
 8913W        W51851  18.692   0.797   5.942  0.0558 -0.0019 -0.2079
 8914W        W51852  19.567   2.365   5.974 -0.1120 -0.1131  0.2705
 8915W        W51853  21.741  34.378   5.436 -0.0130  0.2462  0.1176
 8916W        W51854  20.493   2.420   6.024 -0.2045  0.1057 -0.1298
 8917W        W51855  20.670   3.764   5.038  0.1334 -0.0370  0.0389
 8918W        W51856  19.706   3.028   5.933  0.3342  0.1611 -0.3824
 8919W        W51857  21.180   1.386   7.741  0.0132  0.0704  0.0378
 8920W        W51858  19.638   1.820   3.825  0.1056 -0.0837  0.1772
 8921W        W51859  19.394   3.806   5.372 -0.0255 -0.1147 -0.2923
 8922W        W51860  18.508   2.559   5.255 -0.0254 -0.1384 -0.1253
 8923W        W51861  23.316   3.546   5.150  0.0374  0.1013 -0.0003
 8924W        W51862  20.659   3.788   6.167  0.0175  0.0573 -0.1736
 8925W        W51863  20.178   4.396   6.748 -0.0595 -0.0101 -0.0224
 8926W        W51864  19.252   2.152   3.649 -0.3342  0.3803  0.2473
 8927W        W51865  21.162   4.652   6.576 -0.0905  0.2196  0.0730
 8928W        W51866  19.754   2.829   7.248  0.0328 -0.1258  0.1469
 8929W        W51867  19.160   1.834   7.278 -0.2147 -0.1174  0.1247
 8930W        W51868  20.014   2.860   4.707  0.1834 -0.1334 -0.0432
 8931W        W51869  19.901   4.236   4.790 -0.1695 -0.1800 -0.0053
 8932W        W51870  20.532   1.542   5.862 -0.3974 -0.2008 -0.2444
 8933W        W51871  18.991   3.116   7.156  0.1807 -0.2665  0.0380
 8934W        W51872  18.623   3.086   5.097  0.2335 -0.1328  0.0022
 8935W        W51873  22.737   1.753   7.623  0.1354  0.0691 -0.1962
 8936W        W51874  19.809   3.889   6.410 -0.3605 -0.0368  0.1857
 8937W        W51875  21.130   3.276   3.044  0.0466 -0.0835  0.1999
 8938W        W51876  21.229   0.809   3.603  0.1812  0.1751 -0.1234
 8939W        W51877  21.548   3.362   4.839 -0.1849 -0.2371 -0.0014
 8940W        W51878  19.813   0.307   4.572 -0.2602  0.2884 -0.4773
 8941W        W51879  20.709   4.702   4.981 -0.0472  0.1665  0.0674
 8942W        W51880  18.950   1.147   6.276 -0.4079 -0.1706  0.0120
 8943W        W51881  23.529   4.202   7.542  0.3596  0.0590  0.0830
 8944W        W51882  20.527   2.232   4.285  0.0561 -0.1421  0.0174
 8945W        W51883  20.801   1.819   4.987  0.0560  0.0802 -0.1474
 8946W        W51884  20.236   3.090   6.041  0.1220  0.0609  0.1220
 8947W        W51885  19.577   1.535   5.625 -0.3438 -0.0790  0.0963
 8948W        W51886  21.735   3.782   3.972  0.0377  0.1909 -0.1886
 8949W        W51887  20.782   3.116   4.722  0.0591 -0.0880  0.0996
 8950W        W51888  20.346   3.507   4.151 -0.2345 -0.2914  0.2503
 8951W        W51889  18.455   2.741   4.386  0.0624 -0.1614  0.0963
 8952W        W51890  20.270   1.382   7.348 -0.1020  0.0603  0.0610
 8953W        W51891  18.934   1.522   5.899  0.1580 -0.1973  0.0889
 8954W        W51892  19.660   0.029   2.782 -0.4457  0.2010 -0.5299
 8955W        W51893  22.266   3.757   8.373 -0.0222  0.1549  0.0452
 8956W        W51894  18.804   2.847   6.229 -0.2662 -0.1493 -0.2589
 8957W        W51895  22.769   1.260   4.683  0.0658  0.0198 -0.1213
 8958W        W51896  19.952   0.816   3.848 -0.0841 -0.1260  0.2426
 8959W        W51897  20.433   3.304   5.327 -0.0830 -0.1630  0.2875
 8960W        W51898  21.992   3.027   3.068  0.0034 -0.0189  0.0988
 8961W        W51899  22.503   0.824   5.298  0.1465  0.2280 -0.1612
 8962W        W51900  21.175   0.162   6.587 -0.1312 -0.0716 -0.1270
 8963W        W51901  19.516   1.547   2.943 -0.0704  0.0010  0.0468
 8964W        W51902  19.742   2.704   3.854  0.1237  0.1182  0.2936
 8965W        W51903  22.449   3.406   7.333 -0.2772 -0.2667  0.2036
 8966W        W51904  20.344   1.645   4.192 -0.0856  0.1715  0.3218
 8967W        W51905  19.242   2.408   5.627  0.3792  0.3151 -0.0786
 8968W        W51906  20.562   2.880   8.443  0.1469  0.0436  0.0403
 8969W        W51907  21.063   2.866   8.357  0.3427  0.1515 -0.0460
 8970W        W51908  18.363   3.959   3.581  0.1397  0.0534 -0.0271
 8971W        W51909  17.653   2.798   6.715 -0.0365 -0.4470 -0.1267
 8972W        W51910  18.729   2.901   3.826  0.1107  0.0917  0.0082
 8973W        W51911  19.122  34.204   6.335  0.0475 -0.2735  0.2522
 8974W        W51912  18.738   2.331   6.497 -0.0822 -0.3107 -0.2486
 8975W        W51913  23.164   2.350   5.457 -0.2708  0.1268 -0.3061
 8976W        W51914  18.107  33.812   7.092  0.0502  0.2504 -0.0517
 8977W        W51915  22.139   1.927   4.556 -0.1114  0.0977 -0.1373
 8978W        W51916  18.704   2.142   3.694  0.0551 -0.0174 -0.2143
 8979W        W51917  23.096   3.944   4.435  0.0435 -0.1238  0.1367
 8980W        W51918  21.187   1.342   3.627 -0.0543  0.3551 -0.1355
 8981W        W51919  21.095   3.627   4.686 -0.0399  0.1529  0.0169
 8982W        W51920  18.759   1.806   4.985 -0.0265  0.1867  0.0445
 8983W        W51921  19.414   0.304   5.778  0.0561  0.1462  0.3398
 8984W        W51922  19.233   0.598   6.147  0.0828 -0.0658 -0.0089
 8985W        W51923  20.291   0.149   5.065  0.1221 -0.1626 -0.1062
 8986W        W51924  20.868   0.548   6.671 -0.2286 -0.0419 -0.1163
 8987W        W51925  19.984  33.812   3.198 -0.1072  0.1500 -0.0614
 8988W        W51926  20.112   1.571   4.970  0.0936 -0.2294 -0.1060
 8989W        W51927  19.522   0.615   3.982  0.1496 -0.0270  0.0843
 8990W        W51928  17.686   1.908   3.536 -0.0013 -0.1543  0.2526
 8991W        W51929  21.304   0.752   5.934 -0.0818  0.4961 -0.1268
 8992W        W51930  20.457   4.305   4.488 -0.3468  0.1549 -0.0677
 8993W        W51931  20.703   3.286   6.120 -0.3504  0.1414  0.0620
 8994W        W51932  20.667   3.877   4.320 -0.0349  0.2601  0.1816
 8995W        W51933  18.618   2.312   6.979 -0.0182  0.0834  0.1504
 8996W        W51934  20.712   0.494   4.877  0.0760 -0.0287  0.1929
 8997W        W51935  19.079   3.700   4.828  0.1175  0.3722 -0.2919
 8998W        W51936  19.881   3.682   5.415  0.2054 -0.0370 -0.0795
 8999W        W51937  18.977   1.166   3.689  0.1128  0.0184  0.1510
 9000W        W51938  21.193   3.896   5.213 -0.2192 -0.0819 -0.1035
 9001W        W51939  19.397   1.016   5.423  0.1293  0.2609  0.0820
 9002W        W51940  19.495   2.127   6.940  0.0333  0.1102  0.0465
 9003W        W51941  20.904   0.980   5.727 -0.3062 -0.2054 -0.2920
 9004W        W51942  22.366   2.314   5.962 -0.1703 -0.0800 -0.1407
 9005W        W51943  20.661   0.946   5.185  0.2435 -0.1143  0.4890
 9006W        W51944  19.274  34.170   2.946 -0.0448 -0.3730 -0.0044
 9007W        W51945  21.212   3.416   5.991 -0.2797 -0.1137  0.0983
 9008W        W51946  19.189   1.234   3.164  0.2377 -0.0523  0.4474
 9009W        W51947  19.656   1.342   5.132  0.1520 -0.0258  0.0412
 9010W        W51948  20.281   2.715   6.994 -0.1221  0.0593  0.0488
 9011W        W51949  21.788   1.246   5.549  0.2580  0.1943  0.0577
 9012W        W51950  18.798   1.451   7.547  0.0032  0.0217  0.2419
 9013W        W51951  20.903   0.171   7.561  0.1279 -0.0627 -0.0540
 9014W        W51952  18.576   0.774   4.003  0.0975 -0.0481  0.0260
 9015W        W51953  18.344   2.874   6.579  0.1808 -0.1057 -0.0556
 9016W        W51954  21.216  34.656   5.415  0.0478 -0.0128 -0.1600
 9017W        W51955  21.347   2.539   4.386 -0.0251  0.2178  0.1906
 9018W        W51956  22.150   1.999   7.819  0.0230  0.1717 -0.0621
 9019W        W51957  21.481   3.055   4.027  0.1676 -0.0184 -0.0063
 9020W        W51958  21.284   1.978   3.122  0.1070 -0.2793  0.0087
 9021W        W51959  21.760   2.140   3.389  0.0517  0.2775  0.2020
 9022W        W51960  19.422   3.077   7.518 -0.1141  0.2134  0.0591
 9023W        W51961  20.037   1.273   5.948  0.3149  0.2944 -0.1158
 9024W        W51962  20.940   0.719   7.537 -0.1716  0.0622  0.2016
 9025W        W51963  20.398   0.728   2.572  0.3260  0.0992  0.1908
 9026W        W51964  21.457   4.369   4.645  0.0268 -0.4131 -0.0872
 9027W        W51965  18.308   2.643   6.058 -0.0984  0.3369  0.0746
 9028W        W51966  21.525   3.246   7.851  0.1509 -0.1514 -0.0436
 9029W        W51967  20.772   4.115   5.596 -0.1370 -0.1481  0.1706
 9030W        W51968  21.297  34.045   6.770  0.1342  0.0109  0.1030
 9031W        W51969  19.678   1.079   3.040  0.1120 -0.2365 -0.1567
 9032W        W51970  21.599   0.635   6.312  0.0347  0.1189 -0.3439
 9033W        W51971  16.551   4.380   4.448 -0.2902 -0.2753 -0.0768
 9034W        W51972  21.140   1.693   4.618 -0.4553  0.1050 -0.0207
 9035W        W51973  20.007  34.432   6.095 -0.0085 -0.1107  0.0581
 9036W        W51974  19.856   1.068   7.359  0.0350 -0.2211 -0.1961
 9037W        W51975  21.564   2.502   6.225  0.1296  0.0471  0.0080
 9038W        W51976  21.283   2.022   4.276 -0.0788 -0.1179 -0.0896
 9039W        W51977  19.763   2.043   4.979  0.2188  0.1629  0.0938
 9040W        W51978  19.641   1.569   4.654  0.2612  0.0595  0.3048
 9041W        W51979  19.924   1.065   5.514 -0.3600 -0.2169 -0.1213
 9042W        W51980  19.564   2.406   7.588  0.1815 -0.4040  0.0157
 9043W        W51981  18.843   3.414   5.974  0.2266  0.1012 -0.3768
 9044W        W51982  21.531   2.455   7.124 -0.2242  0.3573 -0.0231
 9045W        W51983  20.457   2.977   4.409 -0.0890 -0.1729  0.1690
 9046W        W51984  20.751   0.857   8.319  0.2239  0.2722  0.1750
 9047W        W51985  21.449  34.099   4.546  0.2242  0.0159  0.0491
 9048W        W51986  18.117   4.547   3.672  0.1642  0.0366 -0.1301
 9049W        W51987  18.985   2.148   3.245 -0.3171 -0.2647  0.1195
 9050W        W51988  19.575  34.379   6.258 -0.0085  0.0359  0.0816
 9051W        W51989  19.712   4.392   6.637  0.3357  0.1310  0.0253
 9052W        W51990  19.207   1.578   3.855 -0.0397 -0.2636  0.0222
 9053W        W51991  20.152   1.355   6.811  0.0640  0.0476 -0.1201
 9054W        W51992  19.529   3.950   4.896  0.0060 -0.2126  0.1496
 9055W        W51993  20.101   0.370   6.424  0.0624  0.0260 -0.1628
 9056W        W51994  17.962   3.694   3.548  0.2698 -0.0792  0.1463
 9057W        W51995  18.820   0.891   3.212 -0.1799 -0.2948 -0.0784
 9058W        W51996  19.175   1.750   4.501  0.2847  0.0576 -0.2900
 9059W        W51997  21.605   0.303   4.730 -0.1151  0.2302  0.0993
 9060W        W51998  21.837   2.563   3.911  0.0754  0.2139  0.0210
 9061W        W51999  19.013   2.003   6.720  0.2705  0.3437 -0.1347
 9062W        W52000  19.910  34.548   6.568  0.3871 -0.0820 -0.1192
 9063W        W52001  18.151   3.429   5.451 -0.0803 -0.1458 -0.0826
 9064W        W52002  20.314   1.837   7.088 -0.1605  0.0600 -0.1831
 9065W        W52003  21.375   2.843   3.126  0.1862 -0.0737  0.0809
 9066W        W52004  21.135   3.330   9.129 -0.3831  0.1706 -0.1357
 9067W        W52005  20.492   2.587   8.885  0.3400 -0.0582 -0.2573
 9068W        W52006  18.454  34.568   4.209  0.2600  0.1006  0.2006
 9069W        W52007  21.493   1.963   7.041 -0.0088  0.1274 -0.0142
 9070W        W52008  20.323   1.193   4.581  0.2647  0.1065  0.1400
 9071W        W52009  19.070   4.205   5.115  0.2281 -0.2067 -0.0726
 9072W        W52010  19.561   3.497   5.028  0.0439  0.2227 -0.2541
 9073W        W52011  19.305   0.805   3.421  0.2421  0.1677  0.0226
 9074W        W52012  19.386   2.748   6.356 -0.1597 -0.0272  0.0061
 9075W        W52013  19.778   1.528   7.645 -0.1419  0.1108 -0.3619
 9076W        W52014  21.295   1.331   6.053 -0.0832  0.4453  0.0841
 9077W        W52015  20.624   1.020   6.708 -0.2442 -0.1460 -0.5002
 9078W        W52016  20.215   1.028   5.066  0.1585 -0.0534  0.0048
 9079W        W52017  21.427   1.208   4.654 -0.3244  0.0794 -0.3270
 9080W        W52018  19.971   2.817   6.379 -0.3054  0.2978 -0.0251
 9081W        W52019  21.575   1.462   5.097  0.0017  0.0626  0.1322
 9082W        W52020  20.768   3.619   9.402  0.0969 -0.0279  0.1337
 9083W        W52021  19.730   1.533   7.123 -0.0527  0.2394 -0.0659
 9084W        W52022  21.891   3.769   3.018 -0.0076 -0.1616 -0.1305
 9085W        W52023  19.917   3.148   7.739 -0.2110 -0.0294  0.0210
 9086W        W52024  19.385   2.600   3.425 -0.0132 -0.2903 -0.0497
 9087W        W52025  18.463   1.798   4.005 -0.1184 -0.0077  0.0720
 9088W        W52026  19.389   2.460   5.149  0.1422  0.0273  0.1451
 9089W        W52027  21.067   2.578   5.653  0.1575  0.3013 -0.1510
 9090W        W52028  20.146   3.287   4.916  0.1354  0.4719  0.3185
 9091W        W52029  18.735   1.591   3.660 -0.3001  0.0162 -0.1042
 9092W        W52030  19.977   2.224   6.376  0.1339 -0.0698  0.2482
 9093W        W52031  22.101   0.572   5.201  0.0986 -0.2487  0.1030
 9094W        W52032  20.174   2.451   3.797 -0.1015  0.1823 -0.1922
 9095W        W52033  20.410   1.100   5.583 -0.0101  0.2301 -0.0723
 9096W        W52034  21.791   0.723   5.632  0.0518 -0.1295 -0.1256
 9097W        W52035  19.257   1.763   4.985  0.0751  0.1272 -0.3131
 9098W        W52036  21.404   0.779   7.749 -0.0242  0.1581  0.1276
 9099W        W52037  21.548  34.442   6.834 -0.2552  0.0550 -0.0694
 9100W        W52038  20.868   2.582   4.398  0.0332 -0.0157  0.2463
 9101W        W52039  18.315   0.625   6.941 -0.3157 -0.2353 -0.0689
 9102W        W52040  19.894   3.089   6.844  0.2245 -0.0733  0.1315
 9103W        W52041  20.336   0.903   7.420 -0.1019  0.2485  0.1981
 9104W        W52042  20.780   1.479   5.418 -0.0686 -0.2607 -0.1970
 9105W        W52043  20.102  33.449   2.037  0.5637 -0.0795  0.1485
 9106W        W52044  19.658   2.158   5.517  0.0335  0.1487  0.3044
 9107W        W52045  20.889   2.767   6.865  0.0743 -0.4520 -0.0993
 9108W        W52046  19.869   2.854   3.358 -0.0231  0.0664 -0.1845
 9109W        W52047  21.756   1.537   7.214 -0.0250 -0.3461 -0.0011
 9110W        W52048  19.960   2.533   5.821 -0.1282  0.0011  0.0382
 9111W        W52049  21.144   1.972   5.399 -0.3492  0.1258  0.0519
 9112W        W52050  20.108   1.661   3.735 -0.0299 -0.1863 -0.0520
 9113W        W52051  19.083   1.384   5.358  0.0255  0.0358 -0.3096
 9114W        W52052  20.483   2.084   8.138 -0.2720 -0.1608 -0.0554
 9115W        W52053  20.782   2.916   5.212 -0.1242 -0.0584 -0.0315
 9116W        W52054  23.001   1.496   5.647  0.0454  0.1930 -0.1190
 9117W        W52055  20.620   1.954   5.504 -0.1418  0.1571 -0.3115
 9118W        W52056  21.348   1.943   6.239  0.3626 -0.0259 -0.2188
 9119W        W52057  18.191  34.626   6.351  0.0176 -0.2938 -0.0888
 9120W        W52058  18.852   1.556   6.609  0.1559 -0.3803  0.0326
 9121W        W52059  20.774   4.904   8.045 -0.0907 -0.1388  0.0354
 9122W        W52060  20.477   2.749   2.876  0.2533  0.0876  0.0296
 9123W        W52061  21.112   1.732   6.664  0.3015  0.0500  0.4101
 9124W        W52062  20.909   3.145   6.543  0.0269  0.1615 -0.0140
 9125W        W52063  20.125   2.294   4.755  0.1294  0.1630 -0.1628
 9126W        W52064  19.347   1.927   5.842 -0.3077 -0.0463  0.0790
 9127W        W52065  21.560   1.551   6.728  0.2140  0.0883 -0.0668
 9128W        W52066  19.876   1.286   1.904  0.0330 -0.1843 -0.1032
 9129W        W52067  20.399  34.434   6.508 -0.0418  0.1172 -0.2118
 9130W        W52068  20.797   2.460   3.540 -0.0381 -0.0986 -0.0860
 9131W        W52069  21.055   3.141   4.253  0.4157  0.3533  0.2723
 9132W        W52070  19.783   0.675   3.337  0.0418 -0.3581  0.1839
 9133W        W52071  18.145  33.352   5.763  0.3712  0.0894 -0.0336
 9134W        W52072  20.311   2.911   7.514 -0.2431  0.0940  0.0966
 9135W        W52073  18.948   0.477   4.775  0.0895 -0.0581  0.0807
 9136W        W52074  21.523   1.962   2.640  0.0821  0.0540  0.3087
 9137W        W52075  20.290   2.419   5.479  0.2743 -0.4708  0.1243
 9138W        W52076  23.314   2.299   8.330 -0.1445 -0.1946  0.2295
 9139W        W52077  20.022   0.254   3.688  0.1330 -0.2904 -0.1044
 9140W        W52078  21.834   1.902   6.562 -0.2065 -0.0454  0.1186
 9141W        W52079  20.014   3.254   4.368 -0.2246 -0.3708 -0.0888
 9142W        W52080  22.116  33.799   4.774  0.0947 -0.1901  0.0406
 9143W        W52081  18.844   3.699   6.410 -0.2049 -0.0266  0.2968
 9144W        W52082  19.144   3.114   5.089 -0.0008 -0.0266  0.2682
 9145W        W52083  18.475   3.188   4.175  0.0119  0.1650  0.3448
 9146W        W52084  20.866   0.126   5.869 -0.0675  0.4039 -0.1041
 9147W        W52085  21.163   1.135   5.083 -0.0215 -0.0988  0.3505
 9148W        W52086  19.906   2.561   5.211 -0.1142 -0.3273  0.1614
 9149W        W52087  20.561   2.296   6.970 -0.0382 -0.1823  0.3117
 9150W        W52088  19.499   2.054   6.369  0.3686 -0.1430 -0.1194
 9151W        W52089  18.271   2.297   5.725 -0.0246  0.1570 -0.5221
 9152W        W52090  20.475   2.548   6.548  0.0058 -0.0036 -0.0418
 9153W        W52091  21.947   3.606   4.513  0.1045  0.1079 -0.1845
 9154W        W52092  19.699   3.573   4.577 -0.0307  0.0638 -0.1836
 9155W        W52093  18.473   1.128   6.294 -0.0311 -0.3443 -0.0146
 9156W        W52094  19.189   2.675   7.141  0.0847 -0.0787  0.0161
 9157W        W52095  21.026   3.041   5.768  0.0988 -0.0323 -0.2428
 9158W        W52096  19.803  34.608   4.907 -0.1121  0.1477  0.2555
 9159W        W52097  20.230   3.079   3.110 -0.0973 -0.0136 -0.3873
 9160W        W52098  18.943   2.311   7.363  0.1687 -0.0951 -0.0945
 9161W        W52099  19.065   2.368   6.108  0.0995  0.1110  0.3166
 9162W        W52100  18.398   3.992   4.401 -0.0849 -0.1769  0.2176
 9163W        W52101  20.828   1.999   3.350 -0.1423  0.2741 -0.3382
 9164W        W52102  19.407   3.258   5.520  0.0790 -0.1127 -0.3213
 9165W        W52103  21.179   4.773   5.374  0.0751 -0.0921 -0.1834
 9166W        W52104  19.796  34.549   3.925  0.1823  0.0102 -0.0401
 9167W        W52105  19.147   4.170   4.557 -0.0019 -0.0557  0.1898
 9168W        W52106  17.863   1.753   3.123 -0.3910 -0.4401  0.0304
 9169W        W52107  21.539   3.858   4.781  0.0805  0.1705 -0.2916
 9170W        W52108  19.468   4.487   4.810  0.3329  0.1393 -0.1354
 9171W        W52109  21.874   4.409   6.871  0.0091  0.2102  0.1014
 9172W        W52110  21.832   0.590   3.834  0.1640 -0.3668  0.2378
 9173W        W52111  24.077   2.297   6.033  0.1546  0.0479  0.1569
 9174W        W52112  22.205   1.471   4.857 -0.0132  0.1400  0.1691
 9175W        W52113  21.143   3.277   8.626 -0.0819  0.0887  0.1284
 9176W        W52114  21.297   1.410   5.507  0.1163  0.0711  0.0689
 9177W        W52115  20.689   1.115   3.590 -0.1507  0.0979  0.3115
 9178W        W52116  19.505   1.973   7.776 -0.1442 -0.2603 -0.0843
 9179W        W52117  23.101   0.333   7.582 -0.1436  0.2012 -0.1009
 9180W        W52118  18.425   3.353   6.576 -0.1246  0.0907  0.1495
 9181W        W52119  21.336   2.936   6.250  0.2241 -0.2968 -0.1204
 9182W        W52120  19.477   0.270   3.477  0.1152  0.1343  0.0437
 9183W        W52121  20.150   1.991   5.254  0.3500 -0.3658 -0.1961
 9184W        W52122  22.570   0.384   5.065 -0.2698 -0.1924  0.1317
 9185W        W52123  20.864   3.618   5.679  0.1243  0.0261  0.0848
 9186W        W52124  20.717   1.349   4.918 -0.3235 -0.1210 -0.2854
 9187W        W52125  18.844   2.647   4.812 -0.0701  0.0101 -0.1793
 9188W        W52126  19.259   3.649   5.917 -0.0101 -0.0529  0.1152
 9189W        W52127  18.518   4.340   6.940 -0.1145  0.2709 -0.0126
 9190W        W52128  18.337  34.438   4.726 -0.0320  0.1720  0.0657
 9191W        W52129  22.383   1.781   5.347 -0.2326  0.1914 -0.0405
 9192W        W52130  21.113   1.208   6.828 -0.2942  0.0806  0.1944
 9193W        W52131  21.671   0.891   5.074  0.0988  0.2965  0.0924
 9194W        W52132  19.806   0.891   4.326 -0.2192  0.1652  0.0492
 9195W        W52133  20.853   2.138   4.627  0.0295  0.2567 -0.1135
 9196W        W52134  19.895   3.594   8.227 -0.1925 -0.1215  0.1334
 9197W        W52135  19.214   2.447   6.700  0.1271 -0.0100 -0.0236
 9198W        W52136  19.461   1.089   3.875 -0.4295 -0.0635  0.1152
 9199W        W52137  20.846   2.783   6.271 -0.0140  0.1599 -0.0193
 9200W        W52138  20.570   2.604   4.002 -0.1075 -0.1049  0.0447
 9201W        W52139  19.372   3.890   7.706 -0.2000  0.0122 -0.2314
 9202W        W52140  18.769   0.561   5.381  0.1541 -0.1718  0.1403
 9203W        W52141  21.106  34.252   4.163 -0.1029  0.0767 -0.1797
 9204W        W52142  18.882   0.365   4.260 -0.1355  0.0125 -0.4225
 9205W        W52143  19.779   1.757   6.106 -0.1110  0.1840 -0.3107
 9206W        W52144  20.820   3.195   7.647 -0.0444 -0.2404 -0.0387
 9207W        W52145  18.825  33.219   5.137  0.0037 -0.2626 -0.2257
 9208W        W52146  20.552   1.959   3.812  0.0646  0.1196 -0.2464
 9209W        W52147  23.007   1.962   7.257  0.0508  0.0547 -0.1146
 9210W        W52148  19.691   3.986   4.113  0.1067  0.3662 -0.0079
 9211W        W52149  20.994   2.282   6.045 -0.1009 -0.0352 -0.1859
 9212W        W52150  21.961   5.614   4.822 -0.0281 -0.2481  0.0466
 9213W        W52151  18.660   0.587   6.533 -0.2163 -0.0353 -0.1097
 9214W        W52152  20.319   2.783   5.147 -0.2451  0.0834 -0.3422
 9215W        W52153  21.808   2.958   6.453  0.1832  0.2040 -0.3037
 9216W        W52154  21.365  34.607   4.462 -0.0904  0.0079 -0.2570
 9217W        W52155  20.099   1.559   5.564  0.0052 -0.2352  0.4887
 9218W        W52156  17.921   2.753   3.511 -0.0204 -0.0749  0.0268
 9219W        W52157  21.021   2.493   5.082 -0.1215 -0.2080  0.0036
 9220W        W52158  22.787   2.052   5.866  0.2674  0.2395 -0.5254
 9221W        W52159  19.499   3.209   4.116  0.4962 -0.2652 -0.1367
 9222W        W52160  22.055  33.031   7.338 -0.0124  0.1417 -0.1701
 9223W        W52161  20.932   2.335   6.562  0.0209  0.2915  0.2116
 9224W        W52162  19.823   3.356   7.289  0.0526  0.0013 -0.1061
 9225W        W52163  19.169   1.269   4.276 -0.1416 -0.2130  0.1691
 9226W        W52164  20.777   1.066   7.240  0.2535  0.1245 -0.2258
 9227W        W52165  18.303   2.767   4.854 -0.2424  0.1956  0.2621
 9228W        W52166  18.638   4.196   3.965 -0.2696  0.0890  0.2054
 9229W        W52167  19.333   3.627   6.580 -0.1048 -0.0431 -0.5481
 9230W        W52168  20.777   1.394   4.422  0.2568  0.0472 -0.1305
 9231W        W52169  21.242   2.914   4.666  0.0803  0.0961 -0.0432
 9232W        W52170  19.368   1.527   6.123 -0.1168  0.0438  0.2309
 9233W        W52171  21.741   1.904   5.335  0.2954 -0.0368  0.0600
 9234W        W52172  21.544   0.804   4.469 -0.1179  0.2932  0.0203
 9235W        W52173  18.933   0.951   5.111 -0.0322  0.0619  0.0699
 9236W        W52174  19.019   0.606   2.835  0.0529  0.2023 -0.1088
 9237W        W52175  17.870   3.414   3.976 -0.1248  0.2202  0.0714
 9238W        W52176  18.333   2.202   4.867 -0.1963 -0.2953  0.1256
 9239W        W52177  20.367   0.071   6.896  0.2704  0.1649 -0.0340
 9240W        W52178  18.859   1.379   7.097 -0.0673  0.0145  0.1682
 9241W        W52179  18.479   2.319   4.140 -0.0114  0.4245 -0.1353
 9242W        W52180  19.805   0.722   5.122  0.2717  0.0858  0.1072
 9243W        W52181  19.770   3.476   5.816 -0.0888 -0.1730  0.2037
 9244W        W52182  19.715   0.679   5.678  0.0410  0.1706 -0.0936
 9245W        W52183  18.682  34.523   6.092  0.1910  0.0453  0.0561
 9246W        W52184  22.223   2.856   3.533  0.2506  0.0513  0.0905
 9247W        W52185  21.887   2.151   4.898  0.1477 -0.0638 -0.3097
 9248W        W52186  20.444   0.784   4.332 -0.0439 -0.2620  0.0317
 9249W        W52187  20.748   3.755   7.818 -0.0139  0.3399  0.1403
 9250W        W52188  16.779   2.238   3.236 -0.1164 -0.2121 -0.0750
 9251W        W52189  21.512   1.233   8.709  0.1788 -0.2489 -0.3380
 9252W        W52190  20.898   0.473   8.559 -0.1582  0.1634  0.0966
 9253W        W52191  19.524   1.026   5.993  0.2199 -0.2929 -0.0078
 9254W        W52192  19.886   1.972   7.389  0.1151  0.2773  0.4884
 9255W        W52193  19.197   2.580   4.498  0.0692 -0.0112 -0.0315
 9256W        W52194  21.422   5.384   5.131  0.0886  0.2262  0.1982
 9257W        W52195  19.681   2.604   6.735 -0.2019  0.0166 -0.2143
 9258W        W52196  19.910   1.826   6.633  0.1516  0.1001 -0.1188
 9259W        W52197  18.538  34.391   8.253  0.0831  0.1377 -0.1979
 9260W        W52198  21.187   2.645   3.903  0.2613  0.0536 -0.1005
 9261W        W52199  19.410   4.036   6.873  0.1309  0.1185 -0.1866
 9262W        W52200  22.110   3.587   6.246 -0.0438  0.2477 -0.0389
 9263W        W52201  21.693   1.053   5.970 -0.0247 -0.0226  0.1636
 9264W        W52202  19.875   1.111   4.735  0.0647  0.0979 -0.1052
 9265W        W52203  20.538   0.604   7.868 -0.2644  0.0302  0.1197
 9266W        W52204  18.729   2.616   5.804 -0.1974  0.2641 -0.1547
 9267W        W52205  20.594   1.951   6.574  0.2980 -0.1169  0.0666
 9268W        W52206  19.435  34.385   5.158 -0.0276  0.0571 -0.1365
 9269W        W52207  21.812   0.352   4.288  0.0912 -0.0577 -0.3294
 9270W        W52208  19.390   3.958   3.302  0.1823 -0.1704 -0.4044
 9271W        W52209  20.083   1.993   5.806 -0.0653 -0.1490 -0.2879
 9272W        W52210  20.268   1.147   4.043 -0.1778 -0.1944  0.0072
 9273W        W52211  20.773   2.184   7.551  0.3630  0.3665 -0.2834
 9274W        W52212  19.572   2.805   5.533  0.2874  0.3084 -0.1707
 9275W        W52213  21.427   2.773   6.718 -0.0533  0.2770 -0.2074
 9276W        W52214  21.265   0.693   4.846 -0.1668 -0.1272 -0.2418
 9277W        W52215  21.529   1.724   5.831 -0.0508 -0.1603 -0.2520
 9278W        W52216  21.034   4.121   6.014  0.2200 -0.2947  0.1598
 9279W        W52217  20.953   3.900   6.950  0.4263 -0.0913  0.0416
 9280W        W52218  20.226   3.558   6.900 -0.1043  0.0598 -0.5635
 9281W        W52219  20.005   3.771   4.932 -0.4291 -0.1992 -0.1028
 9282W        W52220  20.214   0.795   5.943  0.2261  0.1516  0.2730
 9283W        W52221  19.434   2.239   4.087  0.2989 -0.2315 -0.0272
 9284W        W52222  18.339   3.909   5.280  0.0841 -0.0031  0.0177
 9285W        W52223  20.274   1.591   6.331  0.0708  0.0393  0.1697
 9286W        W52224  19.740   0.179   6.125  0.2521 -0.1331  0.1831
 9287W        W52225  20.288   0.217   5.981  0.0217  0.1541  0.0746
 9288W        W52226  21.269   2.421   7.577 -0.1192  0.2099 -0.1035
 9289W        W52227  20.092   2.927   5.581  0.0248 -0.0101 -0.0323
 9290W        W52228  23.515   4.340   9.685  0.2856  0.1275 -0.2299
 9291W        W52229  19.055  34.468   9.702 -0.0674 -0.2411  0.3311
 9292W        W52230  20.636  34.519   7.263  0.0005 -0.0364 -0.0808
 9293W        W52231  22.454   2.533   8.583 -0.2131 -0.0520  0.1306
 9294W        W52232  19.163   1.061   8.696  0.1554 -0.2149  0.3033
 9295W        W52233  19.385   4.338   7.955  0.0723 -0.0570  0.2471
 9296W        W52234  19.028   3.209   9.859  0.1146 -0.1597  0.1287
 9297W        W52235  23.068   5.056   9.507 -0.2926  0.2641 -0.0648
 9298W        W52236  21.030   0.987   6.306  0.4491 -0.2412 -0.0789
 9299W        W52237  17.875   0.782   9.052 -0.1831 -0.1225 -0.1259
 9300W        W52238  19.301   1.388   7.503  0.1636 -0.0670  0.2825
 9301W        W52239  18.469   0.340   8.609 -0.0385 -0.2581 -0.4185
 9302W        W52240  22.447   2.525   9.635  0.3013  0.3870 -0.0907
 9303W        W52241  18.936   3.284   6.638 -0.0770  0.1730  0.0081
 9304W        W52242  20.399   0.590   9.613  0.2351 -0.1914  0.0574
 9305W        W52243  20.260   1.733   8.556  0.0083  0.1292  0.0942
 9306W        W52244  20.791   4.501   8.984  0.0789  0.0603  0.2237
 9307W        W52245  17.537  32.865   9.615  0.1714  0.3754  0.0472
 9308W        W52246  20.754   3.878   9.816 -0.0597  0.0236 -0.0083
 9309W        W52247  19.482   2.641   8.092  0.2760 -0.0889 -0.1101
 9310W        W52248  19.465  34.274   9.900  0.3111  0.1948 -0.2552
 9311W        W52249  19.133   0.727   9.170  0.4251  0.1913  0.0300
 9312W        W52250  20.069   0.021   8.696 -0.0270 -0.2695  0.0517
 9313W        W52251  21.701   1.113   9.887  0.1863 -0.0391 -0.1069
 9314W        W52252  19.225   4.168   9.623 -0.1494 -0.3245  0.1108
 9315W        W52253  19.273   3.390   8.418 -0.2100  0.2121 -0.0578
 9316W        W52254  20.518   2.148   8.639 -0.1342 -0.2463 -0.0358
 9317W        W52255  17.047   3.112   8.341 -0.0869 -0.3806 -0.0520
 9318W        W52256  18.949   3.082   8.808 -0.1132 -0.2890 -0.1904
 9319W        W52257  23.186   3.681   7.834 -0.0224 -0.0750 -0.2936
 9320W        W52258  20.287   2.349   7.433  0.0767 -0.0036 -0.0845
 9321W        W52259  22.127   0.965  10.150  0.0583 -0.3821 -0.0125
 9322W        W52260  20.317   2.018   9.175  0.1460  0.1906 -0.0495
 9323W        W52261  19.817   3.064   8.228  0.1544  0.2056  0.0589
 9324W        W52262  19.787   0.289   8.979 -0.0509  0.1104 -0.1102
 9325W        W52263  20.650   1.779   9.505 -0.1912 -0.1093  0.0422
 9326W        W52264  20.358   3.785   8.166 -0.3255 -0.0724  0.2296
 9327W        W52265  21.380   0.854   8.379 -0.4100 -0.0738 -0.2159
 9328W        W52266  21.413   0.188   7.758  0.1055 -0.2901  0.0483
 9329W        W52267  21.961  33.334   8.195 -0.0535  0.1681  0.0824
 9330W        W52268  25.030  29.978  10.520 -0.0637  0.4603 -0.1792
 9331W        W52269  20.912   2.178  10.036 -0.0772  0.3171 -0.3308
 9332W        W52270  22.497   3.426  10.626  0.2582  0.1466  0.1203
 9333W        W52271  21.066   3.417  10.701 -0.2166  0.5424 -0.1147
 9334W        W52272  21.619   2.796  10.374 -0.4233 -0.3250 -0.2321
 9335W        W52273  18.308   1.284   9.068 -0.1087  0.2983 -0.0049
 9336W        W52274  19.588   1.305   8.988 -0.3649 -0.2576  0.0252
 9337W        W52275  20.538   3.119   7.154 -0.1178 -0.0027  0.0095
 9338W        W52276  22.655   2.935   8.281 -0.0344  0.1383 -0.1055
 9339W        W52277  19.522   3.375   7.988 -0.4707  0.0789  0.0307
 9340W        W52278  19.598   1.173   8.348  0.0010 -0.1048 -0.0441
 9341W        W52279  19.159  34.140   7.280  0.4014  0.0655  0.1338
 9342W        W52280  20.994   0.866   9.377 -0.2688 -0.5568 -0.0572
 9343W        W52281  20.301   1.298   8.957 -0.1987 -0.0656 -0.0054
 9344W        W52282  22.842   4.524   9.428 -0.1031  0.2372  0.1877
 9345W        W52283  20.931   1.891   7.120 -0.3056 -0.2435  0.0365
 9346W        W52284  20.981   1.298   9.750 -0.4605  0.1893 -0.2387
 9347W        W52285  20.389  34.574   9.118 -0.0602  0.0538 -0.0723
 9348W        W52286  20.750   2.731   9.280  0.0362  0.3011  0.1587
 9349W        W52287  22.080   4.613   8.997  0.0766  0.0530  0.1618
 9350W        W52288  23.901   5.168  10.218 -0.3517  0.1640  0.3772
 9351W        W52289  22.065   0.775   8.718 -0.0610 -0.1743  0.0334
 9352W        W52290  18.714   2.252   9.663 -0.0888 -0.0543 -0.0582
 9353W        W52291  18.748   4.067   5.469  0.1863 -0.0149 -0.0283
 9354W        W52292  19.752   2.043   9.400 -0.3364 -0.1526  0.0591
 9355W        W52293  19.170   2.459   8.476 -0.2056 -0.2032  0.0270
 9356W        W52294  17.772  32.407   9.393  0.0865  0.3338 -0.1387
 9357W        W52295  19.660   1.568   9.523  0.1847  0.0536 -0.1021
 9358W        W52296  22.063   0.105   9.915 -0.0527 -0.4651  0.1096
 9359W        W52297  21.613   1.788   9.229  0.2980  0.1926  0.3006
 9360W        W52298  20.500   2.550   7.814 -0.0395 -0.0254  0.1238
 9361W        W52299  22.655   3.651   9.687  0.1105 -0.0772  0.2340
 9362W        W52300  21.668   1.670   7.692 -0.0011  0.4468 -0.0446
 9363W        W52301  22.377   2.967   6.925  0.0508  0.1088  0.0957
 9364W        W52302  16.752   1.586   9.319  0.1807 -0.2087  0.3337
 9365W        W52303  19.942   1.163   9.320 -0.0391 -0.2794 -0.2235
 9366W        W52304  20.421   1.087   9.437 -0.2003  0.3026 -0.1839
 9367W        W52305  18.954  34.286   7.708  0.1734  0.0947  0.0068
 9368W        W52306  21.508  34.530   9.199  0.1439  0.4391 -0.1553
 9369W        W52307  18.920   0.960   6.755 -0.0967 -0.2573 -0.1220
 9370W        W52308  18.611   2.909   9.143  0.2060  0.5550  0.1494
 9371W        W52309  21.593   3.576   9.180 -0.0555 -0.2134 -0.1688
 9372W        W52310  17.786   3.043  10.060  0.2082  0.1264  0.0618
 9373W        W52311  21.232   4.496   9.281  0.2012 -0.1895  0.1050
 9374W        W52312  17.735   0.321   9.827 -0.0752  0.0975  0.0537
 9375W        W52313  19.712   1.679   8.537  0.2790 -0.0004 -0.2628
 9376W        W52314  19.005   1.866   8.253  0.0919 -0.2854 -0.0688
 9377W        W52315  23.910   2.786  10.055  0.1286  0.1951 -0.0720
 9378W        W52316  19.399   1.178   7.056  0.1473 -0.1899 -0.2032
 9379W        W52317  19.345   5.998   9.585  0.0090  0.0778  0.3545
 9380W        W52318  21.521   2.646   8.010  0.0043 -0.2316  0.1239
 9381W        W52319  22.166   1.920   9.587  0.0348 -0.1915 -0.0092
 9382W        W52320  21.319   1.644  10.164  0.2915  0.0236 -0.2310
 9383W        W52321  19.027  33.708   7.662 -0.1632 -0.0932  0.0283
 9384W        W52322  19.948   2.909   9.017  0.1856  0.0766  0.0435
 9385W        W52323  18.271   2.680   7.124  0.1899  0.1170  0.1881
 9386W        W52324  18.805   1.410   8.190 -0.1701  0.3073 -0.1624
 9387W        W52325  20.726   3.443   8.340  0.1844  0.0115  0.0289
 9388W        W52326  22.347   0.916   9.723  0.0950  0.3097 -0.2344
 9389W        W52327  19.299   1.492   8.037  0.2450  0.3777 -0.2244
 9390W        W52328  21.458  33.521   7.935 -0.2089  0.0649  0.3198
 9391W        W52329  22.896  33.257   7.775  0.1945 -0.1155 -0.1439
 9392W        W52330  22.193   3.077   9.394  0.1822 -0.1498 -0.0198
 9393W        W52331  21.696   0.262   6.974 -0.2237 -0.0644  0.4466
 9394W        W52332  21.491   2.054   8.398 -0.3173  0.2286  0.0594
 9395W        W52333  19.708   3.815   8.645 -0.2655  0.4060  0.0599
 9396W        W52334  19.931   4.208   9.024 -0.1281 -0.5407  0.0483
 9397W        W52335  21.897   0.308   9.119 -0.0707 -0.1705 -0.1116
 9398W        W52336  22.188   3.157   8.313  0.0291 -0.0760 -0.0174
 9399W        W52337  19.590   2.576   9.192  0.1634  0.1768  0.0009
 9400W        W52338  19.868   3.645   7.715  0.2009 -0.1121 -0.2396
 9401W        W52339  18.305  34.201   9.753  0.0737  0.1214  0.4712
 9402W        W52340  21.922   2.839   8.936 -0.5931 -0.2408 -0.1734
 9403W        W52341  19.533  34.637   8.661 -0.1860  0.2266 -0.0857
 9404W        W52342  17.965   4.520   5.522  0.0555 -0.0497 -0.0759
 9405W        W52343  23.320   2.079  10.346 -0.0494 -0.1849 -0.1580
 9406W        W52344  19.734  34.629  10.127 -0.3588 -0.0040  0.0321
 9407W        W52345  21.546   3.138   8.306 -0.0636 -0.0990 -0.1698
 9408W        W52346  20.941   2.574   8.834 -0.0447  0.0392 -0.0210
 9409W        W52347  18.821   2.031   5.849 -0.1772 -0.1063 -0.1218
 9410W        W52348  21.777   0.283  12.141  0.3347  0.0374 -0.0038
 9411W        W52349  17.989   3.582  10.296 -0.0086 -0.2998  0.1578
 9412W        W52350  20.965   1.305   8.679  0.2921 -0.0933 -0.1792
 9413W        W52351  20.394   0.391   8.391 -0.0152  0.3487  0.0618
 9414W        W52352  19.196   3.023   8.050  0.1147  0.2589  0.0569
 9415W        W52353  19.362   3.476   8.929  0.0217 -0.2562 -0.0718
 9416W        W52354  21.134  34.064   9.959  0.2002  0.0182 -0.0799
 9417W        W52355  20.290   1.953   9.875  0.1310  0.2957  0.0388
 9418W        W52356  20.070   2.239   6.888  0.0475  0.4034 -0.1691
 9419W        W52357  21.309   0.718   9.750 -0.0732 -0.2164 -0.2861
 9420W        W52358  19.077   3.673   7.392 -0.0101  0.0285  0.1769
 9421W        W52359  21.784   0.630   9.944 -0.2627 -0.4944 -0.1105
 9422W        W52360  18.347   2.146   9.372 -0.1127 -0.3040 -0.1197
 9423W        W52361  18.295   1.443   8.220 -0.1767 -0.0534 -0.1767
 9424W        W52362  18.527   1.367   8.661 -0.2797  0.0600 -0.0219
 9425W        W52363  20.037   0.609   8.646 -0.2364  0.1541  0.2838
 9426W        W52364  22.119   0.866   9.192  0.3559  0.0290  0.1118
 9427W        W52365  19.283   0.398   8.173  0.3048  0.1037 -0.2841
 9428W        W52366  19.988   2.145   8.363 -0.0759 -0.1068  0.0362
 9429W        W52367  18.958   1.935   8.839  0.1089  0.0692  0.1089
 9430W        W52368  21.255   0.884   7.224 -0.4494  0.3044  0.1155
 9431W        W52369  19.482   0.061   6.634  0.3490 -0.1492 -0.0900
 9432W        W52370  22.377   1.325   9.364  0.0965  0.1117  0.0133
 9433W        W52371  19.778   0.541   9.435 -0.1667  0.1516 -0.0478
 9434W        W52372  20.073   2.909  10.021 -0.1189 -0.4596  0.1065
 9435W        W52373  19.883   3.608   9.093  0.2141  0.2898 -0.3040
 9436W        W52374  20.286   1.801   7.615 -0.2334 -0.2253  0.3660
 9437W        W52375  20.748   4.229   9.517 -0.0106 -0.4454 -0.0774
 9438W        W52376  23.780   3.230  10.215 -0.3131 -0.1252  0.3062
 9439W        W52377  20.746   1.091  10.529  0.2899  0.0827  0.1373
 9440W        W52378  19.913   0.332   6.880 -0.0826 -0.1310 -0.0968
 9441W        W52379  20.825   1.695   9.998 -0.3897 -0.0298 -0.0283
 9442W        W52380  21.440   3.378   9.676 -0.3279 -0.2040 -0.1816
 9443W        W52381  19.312   3.542   9.445  0.0036 -0.2002  0.2871
 9444W        W52382  21.598  33.116   9.449  0.0748 -0.1012  0.0052
 9445W        W52383  21.708   4.070   7.201  0.1402 -0.1676 -0.1272
 9446W        W52384  21.235   2.782   9.533 -0.0876 -0.1767 -0.0482
 9447W        W52385  19.443   0.917   9.540  0.2423 -0.3152 -0.1510
 9448W        W52386  21.214   3.842   9.461  0.4301 -0.1397 -0.2190
 9449W        W52387  20.141   1.266   7.857 -0.1557  0.2299  0.2387
 9450W        W52388  20.647   0.867   8.905  0.1723 -0.0592  0.0046
 9451W        W52389  18.326   2.720   8.287  0.1237 -0.2680  0.1376
 9452W        W52390  20.746   2.685  10.136 -0.0002  0.1647  0.1079
 9453W        W52391  21.321   0.401   7.331  0.1329 -0.2180  0.0517
 9454W        W52392  22.193   3.345   8.952 -0.0078  0.1863 -0.0332
 9455W        W52393  20.805  34.396   9.813  0.1343 -0.2559 -0.2470
 9456W        W52394  21.668   2.814   7.488 -0.0650 -0.0133  0.0504
 9457W        W52395  17.493  33.703   9.688  0.3484 -0.0025 -0.0489
 9458W        W52396  21.351   2.878   8.925  0.1884  0.0980  0.3068
 9459W        W52397  21.274   1.753   8.733 -0.2637 -0.0607  0.3929
 9460W        W52398  19.467   0.576   7.637 -0.2733 -0.0413  0.1358
 9461W        W52399  19.720   1.988   9.928  0.3718  0.0321  0.0604
 9462W        W52400  21.449   3.718   8.657  0.0669  0.2733  0.0738
 9463W        W52401  21.157   2.333   8.067 -0.0473 -0.0180  0.0230
 9464W        W52402  23.501   4.663   8.671 -0.3363 -0.2247 -0.0240
 9465W        W52403  18.325   0.889   9.361  0.2389 -0.1767 -0.1591
 9466W        W52404  22.496   2.850  10.024 -0.3771  0.3200 -0.2132
 9467W        W52405  21.301   1.690   8.166 -0.1500  0.1036  0.3671
 9468W        W52406  20.864   2.149   9.111 -0.3967 -0.1890 -0.1039
 9469W        W52407  21.218   2.315   9.438 -0.0878  0.2181 -0.0209
 9470W        W52408  20.882  34.304   8.293 -0.0242 -0.0021 -0.1229
 9471W        W52409  22.120   3.908   9.718 -0.1839 -0.0096 -0.0261
 9472W        W52410  21.056   2.391   7.096  0.0271  0.1175  0.0047
 9473W        W52411  22.155   0.487   9.530  0.0852 -0.0793 -0.0889
 9474W        W52412  22.021   2.513  10.062 -0.1524  0.0085  0.0592
 9475W        W52413  20.513   1.590   7.998 -0.1467  0.0184  0.0835
 9476W        W52414  19.597   0.516   9.925  0.3546  0.3041  0.2367
 9477W        W52415  19.953   1.134   8.668 -0.0309 -0.2233  0.1231
 9478W        W52416  18.843   4.714   6.647  0.2006  0.1235  0.1344
 9479W        W52417  22.280   3.321   9.874  0.1106  0.0155  0.0153
 9480W        W52418  22.445   0.265   8.826  0.0334 -0.0141  0.0760
 9481W        W52419  18.385   0.129   8.169  0.1980 -0.0567  0.2312
 9482W        W52420  18.285   1.635   7.146  0.2888  0.0512 -0.2506
 9483W        W52421  21.273   1.403   7.253 -0.0569 -0.0142  0.2225
 9484W        W52422  21.094   1.744   9.235  0.1112  0.0421 -0.1730
 9485W        W52423  20.223   2.641   8.233  0.2491  0.3246  0.2411
 9486W        W52424  18.669   2.238   7.900 -0.0154  0.1254 -0.4888
 9487W        W52425  21.341  34.411   8.153  0.4568  0.1639 -0.1939
 9488W        W52426  20.165   2.540   9.276 -0.2440  0.0116 -0.0006
 9489W        W52427  20.171   1.636   9.449  0.1809  0.4234  0.1022
 9490W        W52428  20.358  34.277   8.753  0.0876  0.1626 -0.2124
 9491W        W52429  21.714   2.255   9.671  0.2133 -0.1586 -0.2308
 9492W        W52430  21.740   0.690   9.431  0.3095 -0.1050 -0.1218
 9493W        W52431  19.155   2.685   7.670 -0.3049  0.1048  0.1750
 9494W        W52432  20.740   2.482   8.243  0.1982  0.0323  0.3648
 9495W        W52433  19.088   2.606  10.062 -0.1530 -0.1134  0.0090
 9496W        W52434  20.791   1.322   9.205  0.0129 -0.0786 -0.2068
 9497W        W52435  18.905   0.208   9.435  0.1986 -0.5097 -0.0872
 9498W        W52436  21.080   4.563   8.325 -0.0202 -0.0751  0.0928
 9499W        W52437  18.681   1.275   9.473 -0.1499 -0.0062 -0.0221
 9500W        W52438  18.738   2.772   7.369  0.0875 -0.3594  0.1319
 9501W        W52439  21.833   2.394   8.736 -0.0234 -0.1432 -0.2120
 9502W        W52440  21.172   0.762   8.870  0.0033  0.3640 -0.0863
 9503W        W52441  18.748   5.114   9.546  0.1753  0.1100  0.1164
 9504W        W52442  21.025   0.462   7.933 -0.1579  0.0713 -0.0714
 9505W        W52443  19.244   1.526   8.532 -0.0013 -0.1538  0.2733
 9506W        W52444  18.554   4.922   7.011  0.2093 -0.2929  0.1493
 9507W        W52445  20.836   3.981   8.301 -0.1430  0.0339 -0.2018
 9508W        W52446  21.109   3.536  10.074 -0.0521 -0.1439 -0.3252
 9509W        W52447  21.622   0.496   8.134  0.4116 -0.1678  0.1195
 9510W        W52448  22.277   2.101   8.798 -0.0697 -0.0053 -0.0346
 9511W        W52449  22.030   2.238   8.297  0.0794  0.0040  0.1790
 9512W        W52450  19.631   4.516   9.226  0.1596  0.0363 -0.1187
 9513W        W52451  19.962   1.714   8.077 -0.1580  0.0728 -0.0197
 9514W        W52452  22.550   4.167   9.598 -0.0906  0.3143 -0.3619
 9515W        W52453  18.510   1.012   8.321 -0.0353 -0.0994 -0.4939
 9516W        W52454  19.938   1.669   8.937  0.1763 -0.4037 -0.4724
 9517W        W52455  21.271  34.447  10.271  0.2768 -0.1126  0.1316
 9518W        W52456  20.408   3.131   8.017  0.1303  0.2046  0.1437
 9519W        W52457  20.489   1.415   9.757  0.0810 -0.0009  0.1979
 9520W        W52458  18.577   3.099   9.594 -0.0674 -0.2327 -0.2502
 9521W        W52459  19.154   5.079   9.821  0.1027  0.0088 -0.1221
 9522W        W52460  19.537   3.070   9.339 -0.1477  0.0320  0.3747
 9523W        W52461  19.189   0.929   8.249  0.0053 -0.1943  0.3063
 9524W        W52462  21.866   1.324   8.397  0.1589  0.3523  0.2913
 9525W        W52463  20.882   0.525   9.682  0.0609 -0.3317  0.1418
 9526W        W52464  19.201   1.886   9.762  0.4436  0.0181 -0.1575
 9527W        W52465  21.474  34.561   8.662 -0.2755  0.1169  0.0614
 9528W        W52466  20.957   4.389   9.903  0.0619 -0.3233 -0.1968
 9529W        W52467  19.436   0.266  10.406  0.2443 -0.0873 -0.0209
 9530W        W52468  20.999   2.135   8.496  0.0007  0.0085 -0.0537
 9531W        W52469  20.758   1.581   7.447 -0.4825  0.0030  0.0741
 9532W        W52470  18.125   0.791   7.383 -0.0074 -0.4343 -0.1631
 9533W        W52471  20.483   1.284   8.523  0.1314  0.3750 -0.0972
 9534W        W52472  19.969   2.659   7.777  0.2094 -0.1064 -0.0042
 9535W        W52473  20.982  34.593   9.342 -0.0068  0.1090 -0.4044
 9536W        W52474  19.719   0.691   8.124 -0.1375 -0.2871 -0.1573
 9537W        W52475  21.246   1.903   7.539  0.2302  0.2739  0.1096
 9538W        W52476  22.302   0.480  10.131  0.3379  0.2055  0.2423
 9539W        W52477  20.316   3.408   7.598  0.2682 -0.2434 -0.3382
 9540W        W52478  21.345   2.051  10.451  0.1559 -0.0223  0.2997
 9541W        W52479  20.901   3.975   9.094  0.1934  0.0545 -0.0542
 9542W        W52480  20.595   0.478  10.146 -0.2159  0.3224  0.0534
 9543W        W52481  23.248   4.728   9.839  0.0001  0.0383 -0.0076
 9544W        W52482  22.852   3.924   9.280 -0.0702  0.1841  0.2529
 9545W        W52483  20.748   0.024   8.028  0.0764  0.1932 -0.0123
 9546W        W52484  17.764  33.808   9.279  0.1245  0.2647  0.2304
 9547W        W52485  19.418   2.886   9.890 -0.1634 -0.3113  0.0203
 9548W        W52486  22.076   3.098  10.278  0.2644 -0.0527  0.0254
 9549W        W52487  20.652   3.578   6.660 -0.0562  0.2403  0.1496
 9550W        W52488  21.804   1.963  10.307  0.0957 -0.0883  0.0031
 9551W        W52489  19.473   2.044   8.302  0.0789 -0.0555  0.1321
 9552W        W52490  20.514   4.088   8.700 -0.0590  0.2150  0.1583
 9553W        W52491  20.227   3.661   9.707 -0.0603  0.0974 -0.0771
 9554W        W52492  21.596   5.228  10.562 -0.1187 -0.0174 -0.0375
 9555W        W52493  20.684   1.723   8.951 -0.2961 -0.1171  0.1745
 9556W        W52494  22.826   2.380   8.228 -0.1195  0.0100 -0.2741
 9557W        W52495  20.186   0.723   9.137  0.0125 -0.2376  0.1314
 9558W        W52496  21.344  34.559   7.307  0.1071 -0.2996 -0.0249
 9559W        W52497  21.754  33.720   7.346  0.0468 -0.0545 -0.1091
 9560W        W52498  19.196   3.336  10.334 -0.1368  0.1138 -0.0278
 9561W        W52499  19.460   1.065   6.547 -0.2533 -0.1266 -0.3418
 9562W        W52500  19.138   2.296   8.014 -0.0994  0.3230  0.2474
 9563W        W52501  21.386   2.405  10.050 -0.3471 -0.0702 -0.2222
 9564W        W52502  19.441   0.156   9.335 -0.1244  0.4582  0.1000
 9565W        W52503  19.971   2.164   7.860  0.0636 -0.3076 -0.1927
 9566W        W52504  21.947   2.689   9.595  0.4958 -0.0281 -0.3359
 9567W        W52505  18.924   0.669   9.648 -0.0307  0.0962 -0.2056
 9568W        W52506  18.651   0.502   9.101 -0.3702  0.0939 -0.0987
 9569W        W52507  21.589   2.582   9.245  0.2200  0.2970  0.1672
 9570W        W52508  21.760   4.352   8.601 -0.2400 -0.1516 -0.3007
 9571W        W52509  20.822   0.461   9.177  0.1928 -0.1655 -0.1498
 9572W        W52510  18.127   2.144   7.097  0.1990 -0.0743 -0.1190
 9573W        W52511  17.835   0.673   6.973  0.3736  0.0410 -0.0822
 9574W        W52512  20.955   1.558  10.462  0.0148  0.1120 -0.0322
 9575W        W52513  21.118   4.201   8.685  0.0500 -0.1160  0.1294
 9576W        W52514  21.977   2.508   7.748  0.1952 -0.1008 -0.1164
 9577W        W52515  19.170  32.824   8.871  0.1940 -0.3309  0.0601
 9578W        W52516  20.926   1.863   7.913  0.0901  0.2421 -0.5207
 9579W        W52517  23.098   3.376   8.486 -0.1154 -0.1207 -0.2389
 9580W        W52518  22.678   0.379   9.346  0.1597 -0.0841 -0.1523
 9581W        W52519  20.794   1.725   8.435  0.0699 -0.0100 -0.0420
 9582W        W52520  22.333   2.584   9.090 -0.0569 -0.1606  0.1928
 9583W        W52521  19.127  33.827   9.272  0.0478  0.2001 -0.5130
 9584W        W52522  20.455  33.661   8.955 -0.0861 -0.1223  0.0655
 9585W        W52523  21.644   3.253   8.746  0.1747 -0.0706  0.3065
 9586W        W52524  21.300   1.239   9.173 -0.2406  0.3216 -0.0633
 9587W        W52525  22.463  34.594  10.350 -0.1670 -0.3652 -0.1183
 9588W        W52526  19.933   4.999   9.062  0.4534  0.1864  0.1935
 9589W        W52527  20.768   3.074   8.895 -0.4613 -0.1578 -0.2526
 9590W        W52528  22.958   2.378   7.468  0.0368 -0.1476  0.0846
 9591W        W52529  22.022   4.122   9.269  0.0600  0.2842  0.3219
 9592W        W52530  18.428   5.122   9.109  0.0447 -0.3815  0.3052
 9593W        W52531  25.417   4.133  10.029  0.0083 -0.1568  0.2932
 9594W        W52532  16.994   0.103   9.125 -0.1781 -0.0460  0.1603
 9595W        W52533  20.248   3.255   8.516  0.1059  0.3380  0.2130
 9596W        W52534  21.594   4.110   9.518  0.2129  0.0297 -0.2815
 9597W        W52535  21.785   1.241   9.335  0.2331 -0.0409 -0.3604
 9598W        W52536  19.440   1.277   9.919 -0.0775 -0.0732 -0.1587
 9599W        W52537  20.831  34.014   7.726 -0.2399 -0.2433  0.1838
 9600W        W52538  18.060  34.435  10.190  0.2998  0.2350  0.1716
 9601W        W52539  20.015   2.959   9.513  0.0473 -0.2712 -0.2297
 9602W        W52540  19.305   5.934   1.654 -0.2185 -0.1522  0.1689
 9603W        W52541  18.875   4.594   1.347  0.1322  0.4592 -0.4276
 9604W        W52542  19.513   4.235   0.540 -0.2380 -0.3590 -0.1310
 9605W        W52543  21.600   5.510  31.364  0.2578  0.0354 -0.1010
 9606W        W52544  17.926   4.791   0.822  0.1143 -0.0038  0.0625
 9607W        W52545  20.042   6.911   0.893  0.0947  0.1100 -0.0214
 9608W        W52546  19.061   1.723   2.792  0.0503 -0.2463 -0.2078
 9609W        W52547  19.313   5.901   1.078 -0.1857 -0.0738  0.1799
 9610W        W52548  21.332   6.511   1.725 -0.0263  0.2184 -0.1498
 9611W        W52549  20.993   4.971   0.595  0.1041 -0.1343  0.2902
 9612W        W52550  19.563   4.604   2.788 -0.0937 -0.1197  0.0504
 9613W        W52551  19.640   6.498   0.540 -0.0661 -0.0454 -0.1260
 9614W        W52552  19.712   2.813   1.050 -0.2391 -0.2146 -0.4432
 9615W        W52553  17.764   2.806   1.930 -0.0353 -0.0713 -0.3714
 9616W        W52554  21.557   6.098   4.877 -0.0137 -0.0907  0.0772
 9617W        W52555  17.845   5.698   0.764  0.0021 -0.3633 -0.1080
 9618W        W52556  20.249   2.495   0.999  0.0455 -0.3646 -0.2033
 9619W        W52557  20.050   3.551   0.953 -0.0672 -0.1005  0.1448
 9620W        W52558  21.761   7.928   0.848  0.0789  0.5712  0.1333
 9621W        W52559  19.415   4.504   3.903  0.0976 -0.0153 -0.1578
 9622W        W52560  20.286   5.202   4.864 -0.0414 -0.4543 -0.0558
 9623W        W52561  20.451   6.415  31.952  0.0892 -0.1660  0.0522
 9624W        W52562  16.819   3.962   0.385 -0.2382  0.1633  0.1354
 9625W        W52563  18.294   4.998   1.728 -0.1577 -0.1025  0.2259
 9626W        W52564  19.132   2.370   2.838  0.1023 -0.0385  0.0280
 9627W        W52565  20.189   5.312   2.424  0.1687 -0.3949 -0.2723
 9628W        W52566  20.476   6.795   1.445 -0.0992  0.1619  0.4874
 9629W        W52567  20.481   6.324   2.216  0.1945 -0.0004 -0.4186
 9630W        W52568  20.447   4.502   2.393 -0.0638  0.3424 -0.2311
 9631W        W52569  17.389   6.517   1.882  0.0838  0.3109 -0.0109
 9632W        W52570  19.149   8.489   0.766 -0.3422  0.2231 -0.1442
 9633W        W52571  20.212   6.620  31.570  0.2708 -0.2473 -0.3968
 9634W        W52572  21.520   5.640   0.693 -0.1730 -0.0007  0.1913
 9635W        W52573  20.924   7.603   3.014 -0.0390  0.1467 -0.0232
 9636W        W52574  19.282   6.396   1.827 -0.6584  0.0140 -0.2274
 9637W        W52575  17.612   6.416  31.706 -0.0644 -0.0135 -0.0233
 9638W        W52576  20.809   7.457   3.515  0.0276 -0.0489 -0.0797
 9639W        W52577  21.140   6.771   3.484 -0.0617 -0.0608  0.2475
 9640W        W52578  20.400   5.072   3.373 -0.4228 -0.1709 -0.0215
 9641W        W52579  19.519   4.212   1.301 -0.0088 -0.2241 -0.3274
 9642W        W52580  18.442   4.638   0.112  0.1736 -0.1641 -0.0276
 9643W        W52581  18.691   4.709   3.371 -0.0565 -0.0624 -0.1277
 9644W        W52582  20.964   7.363   2.256 -0.2758 -0.2600 -0.1790
 9645W        W52583  18.083   6.291   2.298  0.2019 -0.1564  0.1083
 9646W        W52584  20.466   4.416   3.939  0.2841  0.3290 -0.0279
 9647W        W52585  19.130   6.098   0.021 -0.0725  0.2613 -0.0592
 9648W        W52586  22.829   6.183   0.077 -0.2703 -0.0904  0.1760
 9649W        W52587  19.504   5.540   1.334 -0.0895 -0.0302 -0.1503
 9650W        W52588  20.086   4.311   1.415 -0.0714 -0.0842  0.1153
 9651W        W52589  20.743   4.748   2.023  0.0041  0.3733 -0.2203
 9652W        W52590  19.966   6.847   1.719  0.4441 -0.1922  0.0360
 9653W        W52591  19.983   4.347   2.575  0.0038 -0.2200  0.0947
 9654W        W52592  20.681   6.787   2.402 -0.0008  0.1421 -0.1331
 9655W        W52593  19.369   3.772   0.449  0.2388  0.2159 -0.1853
 9656W        W52594  21.465   4.392   3.418 -0.1165  0.1901  0.1457
 9657W        W52595  18.098   6.804   2.544 -0.1506  0.0381  0.1361
 9658W        W52596  18.331   4.287   1.930  0.2401  0.1227 -0.0315
 9659W        W52597  21.599   5.941   0.266  0.1343 -0.2568 -0.5301
 9660W        W52598  20.275   6.119   1.372 -0.0350  0.0268 -0.3786
 9661W        W52599  21.845   6.976   0.481 -0.0428 -0.1484 -0.0713
 9662W        W52600  17.866   3.244   2.163 -0.2179 -0.1964 -0.2494
 9663W        W52601  19.247   5.953   3.951 -0.2838  0.0397 -0.0313
 9664W        W52602  18.312   5.492   4.003 -0.1153  0.2796 -0.1455
 9665W        W52603  20.424   3.832   1.293 -0.2660  0.0936  0.1161
 9666W        W52604  22.387   6.291   5.153  0.0501  0.0481  0.3214
 9667W        W52605  18.874   5.607   2.281 -0.0871  0.0295 -0.1044
 9668W        W52606  20.492   4.425   1.194  0.0351  0.0663 -0.0444
 9669W        W52607  18.056   6.504   1.255  0.2870  0.0409  0.3949
 9670W        W52608  20.711   7.408   1.312 -0.2461 -0.0954 -0.3053
 9671W        W52609  22.135   5.704  31.409 -0.1023 -0.1458 -0.0314
 9672W        W52610  22.078   3.830   1.650 -0.0704 -0.2434 -0.0529
 9673W        W52611  19.378   3.447   3.253  0.2352  0.1951 -0.2030
 9674W        W52612  19.292   4.683   1.782 -0.3245 -0.3460 -0.0684
 9675W        W52613  18.264   6.047   1.390 -0.0708 -0.2483 -0.1241
 9676W        W52614  21.095   6.063   1.837  0.0242 -0.0267  0.2280
 9677W        W52615  21.784   4.171  31.720 -0.1273 -0.1843 -0.2646
 9678W        W52616  18.558   7.589   1.780  0.2356 -0.1872 -0.0416
 9679W        W52617  20.024   5.380   3.347  0.0795  0.1143  0.0200
 9680W        W52618  20.104   6.166   2.615 -0.0721 -0.1498  0.2919
 9681W        W52619  18.551   7.071  30.965  0.0110 -0.0360 -0.4423
 9682W        W52620  18.859   6.571   0.149 -0.0214  0.1008  0.0434
 9683W        W52621  18.772   6.177   0.477  0.3002  0.1814  0.1996
 9684W        W52622  19.351   3.761   1.388 -0.1464  0.2971 -0.0137
 9685W        W52623  18.956   5.975   2.565  0.1808  0.1384  0.3347
 9686W        W52624  22.521   4.677   1.258  0.3272 -0.1272  0.0475
 9687W        W52625  17.752   3.761   2.927 -0.4151 -0.0364 -0.1294
 9688W        W52626  22.810   5.286   2.112  0.0804  0.0631 -0.1460
 9689W        W52627  16.711   6.054   1.112 -0.0651 -0.2022  0.0025
 9690W        W52628  21.245   8.556   0.383 -0.2190  0.2555 -0.3508
 9691W        W52629  21.802   4.201   0.701 -0.0178  0.0806 -0.2333
 9692W        W52630  21.229   6.548   1.158  0.1895 -0.0456  0.2551
 9693W        W52631  19.110   6.249   3.418  0.0741  0.3335 -0.1048
 9694W        W52632  17.207   4.902   0.760  0.2758 -0.1801  0.0208
 9695W        W52633  18.873   3.754   3.801  0.0824  0.0214 -0.1263
 9696W        W52634  18.184   2.971   2.463  0.1784 -0.3083  0.5039
 9697W        W52635  21.248   6.288   3.573  0.1512  0.1957  0.0071
 9698W        W52636  17.579   4.797   0.410  0.2413  0.0377 -0.2866
 9699W        W52637  20.107   3.319   2.632  0.1117 -0.0909 -0.1011
 9700W        W52638  19.220   4.178   1.701  0.0089 -0.0344 -0.3031
 9701W        W52639  17.409   5.434   1.649  0.1746  0.1332 -0.0806
 9702W        W52640  21.061   5.110   4.537 -0.0040  0.1851  0.0736
 9703W        W52641  20.784   6.526  31.182 -0.1332  0.0699 -0.2100
 9704W        W52642  21.165   6.794   2.581  0.0083  0.1965 -0.1092
 9705W        W52643  20.451   5.611   0.493  0.1426  0.0978 -0.0106
 9706W        W52644  19.194   4.216   2.582 -0.1691  0.0086 -0.4922
 9707W        W52645  17.159   3.338  31.839  0.0687  0.3741 -0.1073
 9708W        W52646  19.119   8.454   1.992 -0.1620 -0.1295 -0.0846
 9709W        W52647  19.717   7.309   0.709  0.0145  0.0058  0.1530
 9710W        W52648  18.359   3.437   1.382 -0.1450  0.1982  0.3827
 9711W        W52649  22.827   7.774   3.395  0.1545 -0.0661 -0.2042
 9712W        W52650  19.641   6.292   0.113 -0.1943 -0.0412  0.0507
 9713W        W52651  19.585   5.100   1.695 -0.0480 -0.1158 -0.1384
 9714W        W52652  20.992   5.147   5.084 -0.1004  0.0111  0.1078
 9715W        W52653  21.709   6.645   2.316 -0.1351  0.1258  0.2726
 9716W        W52654  19.833   4.908   0.673 -0.2484 -0.1320  0.1223
 9717W        W52655  18.701   2.440   0.496 -0.0740  0.2587  0.0412
 9718W        W52656  19.153   6.336   1.358 -0.0960 -0.4000 -0.1421
 9719W        W52657  19.028   6.248  31.525 -0.1603  0.0028  0.3932
 9720W        W52658  18.675   6.263   1.015 -0.1343 -0.1038 -0.0096
 9721W        W52659  20.629   7.536   0.649  0.2292  0.1265  0.0167
 9722W        W52660  20.283   4.913   2.168 -0.0894 -0.1326  0.1359
 9723W        W52661  19.655   4.092   2.788  0.3819 -0.0853  0.0762
 9724W        W52662  20.354   3.598   5.826  0.1544  0.0228 -0.1236
 9725W        W52663  17.978   4.994   0.330  0.1071  0.2605 -0.1956
 9726W        W52664  17.038   5.714   3.710  0.0586 -0.1595  0.2439
 9727W        W52665  20.648   3.464   2.603  0.1888 -0.3326  0.1888
 9728W        W52666  21.549   3.682  31.289  0.1658 -0.0193  0.3399
 9729W        W52667  19.622   5.594   3.094  0.0941 -0.3286 -0.0523
 9730W        W52668  22.246   5.311   0.163 -0.0913  0.0671 -0.0259
 9731W        W52669  19.693   5.771   0.133 -0.1060  0.0587  0.0736
 9732W        W52670  20.287   4.651   0.843 -0.3859  0.4044  0.0382
 9733W        W52671  18.474   6.812   2.914  0.1302 -0.0960  0.2828
 9734W        W52672  21.011   6.320   0.325  0.0003 -0.0553 -0.1986
 9735W        W52673  19.358   5.878   2.236  0.0196 -0.1386  0.0535
 9736W        W52674  20.867   3.965   1.742  0.3042 -0.3942  0.1333
 9737W        W52675  22.147   6.712   2.643  0.0326 -0.0864  0.0899
 9738W        W52676  19.435   5.052   1.170  0.0228 -0.3767 -0.2289
 9739W        W52677  21.269   6.588   3.045  0.1518  0.2780 -0.1075
 9740W        W52678  20.618   6.078   1.815 -0.1415  0.0314 -0.1665
 9741W        W52679  17.888   3.242   3.343 -0.3486 -0.1381 -0.0188
 9742W        W52680  18.565   5.478  31.260  0.0969 -0.2807  0.1774
 9743W        W52681  19.187   3.080   1.028  0.2063 -0.1593  0.0338
 9744W        W52682  18.445   6.974  31.461  0.0586  0.1529 -0.0306
 9745W        W52683  21.760   5.176   2.972 -0.1049  0.0200 -0.2897
 9746W        W52684  19.807   5.082   2.135  0.2147  0.0239  0.0455
 9747W        W52685  20.300   3.796   3.464 -0.0501 -0.2650  0.3399
 9748W        W52686  21.019   4.489   3.636 -0.0508 -0.1488 -0.0982
 9749W        W52687  20.446   3.919   0.538  0.2102  0.1348  0.1989
 9750W        W52688  20.437   4.779   2.896  0.2769  0.0448  0.0616
 9751W        W52689  19.317   5.159  31.701  0.0527 -0.0367  0.1803
 9752W        W52690  19.925   4.402   4.001 -0.0670  0.3697  0.1444
 9753W        W52691  19.468   3.676   2.503  0.0807 -0.2406  0.0441
 9754W        W52692  18.605   6.867   2.433  0.2492  0.0527  0.0324
 9755W        W52693  21.608   6.899   3.271  0.0108  0.3153 -0.2394
 9756W        W52694  20.764   5.877   2.227 -0.3006 -0.0187 -0.1946
 9757W        W52695  20.168   4.816   3.871 -0.0940  0.1348  0.0954
 9758W        W52696  22.062   4.350   1.658 -0.3067 -0.0678  0.1109
 9759W        W52697  19.792   6.814  31.384 -0.0572 -0.2004  0.0988
 9760W        W52698  20.794   5.398   0.831  0.0596 -0.2471  0.1838
 9761W        W52699  19.756   3.606   2.972 -0.0920  0.3121  0.1239
 9762W        W52700  20.550   7.852   1.349 -0.1362  0.4878  0.0362
 9763W        W52701  16.912   4.857  30.773 -0.2375  0.4202 -0.2449
 9764W        W52702  20.440   5.894   0.961  0.0211 -0.1785 -0.0410
 9765W        W52703  17.872   7.026   1.312 -0.1476 -0.0153 -0.0404
 9766W        W52704  21.236   4.003   3.772 -0.2691  0.1375  0.0136
 9767W        W52705  17.880   7.400   2.359 -0.0765 -0.1324 -0.3148
 9768W        W52706  19.446   2.961  31.891 -0.5402  0.2782 -0.1267
 9769W        W52707  18.854   5.033   1.003 -0.1185 -0.2770 -0.4382
 9770W        W52708  20.935   3.657   2.204  0.2970 -0.2016  0.1510
 9771W        W52709  22.575   5.496  31.770  0.0632 -0.3856 -0.1694
 9772W        W52710  19.496   3.776   1.869  0.0633 -0.1524  0.4195
 9773W        W52711  20.713   4.039   3.673  0.0299  0.0309  0.1678
 9774W        W52712  18.321   6.272   2.995  0.0048  0.1117 -0.4130
 9775W        W52713  21.559   5.260   2.532 -0.3309 -0.1750 -0.1304
 9776W        W52714  20.881   3.608   1.134 -0.0099 -0.1221 -0.0789
 9777W        W52715  21.453   7.944   1.236  0.0702 -0.2603 -0.1682
 9778W        W52716  19.211   6.353   2.439  0.0928 -0.2461 -0.1795
 9779W        W52717  19.029   4.201  31.611 -0.1260  0.3055  0.0751
 9780W        W52718  22.099   5.075   3.977 -0.0243 -0.0865 -0.0838
 9781W        W52719  19.658   5.125   0.141 -0.2842 -0.1698  0.1004
 9782W        W52720  17.979   7.243   1.772  0.0823 -0.0404  0.0917
 9783W        W52721  19.027   6.913   1.132  0.2118  0.0881  0.0830
 9784W        W52722  17.689   2.704  31.351 -0.0276  0.1781  0.3540
 9785W        W52723  18.275   7.409   1.341  0.0793 -0.0459  0.1737
 9786W        W52724  19.858   5.798   3.933  0.0043  0.1025 -0.0853
 9787W        W52725  19.835   6.089   2.183  0.0469 -0.0208  0.3035
 9788W        W52726  20.692   5.270   2.858 -0.0361  0.3558  0.0627
 9789W        W52727  17.448   5.009   1.451 -0.3914 -0.0752 -0.1418
 9790W        W52728  20.516   5.731   2.748 -0.1262  0.1126  0.1120
 9791W        W52729  19.318   5.281   2.151 -0.0558 -0.1011  0.1709
 9792W        W52730  21.735   5.393   3.924 -0.1862 -0.0847 -0.0694
 9793W        W52731  18.953   6.576   4.560 -0.1488  0.0099 -0.2147
 9794W        W52732  20.909   2.250   3.973  0.3882 -0.1362 -0.0860
 9795W        W52733  20.593   8.538   0.847  0.4118 -0.1779  0.0204
 9796W        W52734  20.770   6.541   4.362 -0.0030 -0.0995 -0.2064
 9797W        W52735  18.563   5.620   1.062 -0.0161  0.1824 -0.0071
 9798W        W52736  17.498   6.004   3.453  0.1829 -0.2531  0.1590
 9799W        W52737  19.282   5.578   0.475 -0.0222  0.0806 -0.2843
 9800W        W52738  20.302   5.773   2.265  0.1504  0.2912 -0.1708
 9801W        W52739  18.819   6.690   1.614  0.1706  0.1560  0.0014
 9802W        W52740  16.966   6.025  31.544  0.0167  0.2039  0.0645
 9803W        W52741  19.650   6.609   2.052 -0.0517  0.3232  0.1694
 9804W        W52742  21.648   4.433   0.316  0.0458 -0.0575  0.2949
 9805W        W52743  21.842   6.678  30.519  0.0122  0.0155 -0.1589
 9806W        W52744  20.169   5.397   1.934 -0.0137 -0.1447 -0.1562
 9807W        W52745  21.705   4.756   3.760 -0.1068  0.1423  0.0362
 9808W        W52746  20.120   4.808   0.272  0.1433  0.2338  0.1499
 9809W        W52747  21.925   3.316   3.705  0.0056 -0.2157 -0.1208
 9810W        W52748  19.140   3.785   2.894 -0.1660  0.2263 -0.0479
 9811W        W52749  20.089   6.326   0.823 -0.1278  0.1827  0.2608
 9812W        W52750  19.778   4.941   3.090  0.0240  0.0176  0.1177
 9813W        W52751  20.574   6.542   3.396 -0.0279  0.2736 -0.1220
 9814W        W52752  20.520   5.894   3.836 -0.2151  0.1315  0.1673
 9815W        W52753  20.131   4.106   0.939 -0.1450 -0.4680  0.2646
 9816W        W52754  19.243   3.777  31.348  0.0247  0.2749  0.0279
 9817W        W52755  19.877   5.832   1.254  0.2555 -0.2440 -0.2779
 9818W        W52756  21.930   5.391   2.235 -0.0994  0.2043 -0.0651
 9819W        W52757  19.124   4.106   1.021 -0.0526 -0.0607  0.4317
 9820W        W52758  21.002   5.602   1.871  0.2281 -0.0202 -0.5463
 9821W        W52759  18.724   5.145   2.555 -0.1493  0.2307  0.0010
 9822W        W52760  20.978   5.536   2.510  0.0988 -0.1598  0.0162
 9823W        W52761  22.493   5.780   0.223 -0.1274  0.1728  0.1738
 9824W        W52762  18.976   7.093   0.132 -0.0983 -0.1382  0.2157
 9825W        W52763  18.405   3.694   4.002 -0.1681 -0.3804  0.0120
 9826W        W52764  20.586   6.298   0.536 -0.0889  0.1474 -0.0856
 9827W        W52765  21.252   4.920   1.713  0.0078 -0.0848  0.0705
 9828W        W52766  20.652   5.368   2.184 -0.2810 -0.0664 -0.2347
 9829W        W52767  21.071   5.164   2.152 -0.1397  0.0443 -0.0423
 9830W        W52768  19.856   5.273   3.844 -0.0015 -0.0968 -0.0679
 9831W        W52769  19.676   2.787   4.324 -0.0702 -0.0962 -0.1129
 9832W        W52770  20.114   6.423   1.871  0.1635 -0.0490 -0.0951
 9833W        W52771  20.385   4.548   1.741  0.0950 -0.1221 -0.1201
 9834W        W52772  21.219   5.136   2.856  0.0873  0.0410  0.1895
 9835W        W52773  22.248   6.283   2.935  0.1145 -0.1984 -0.0217
 9836W        W52774  20.096   5.500   0.916  0.1457  0.3333 -0.1093
 9837W        W52775  19.605   4.631   2.214 -0.1070 -0.0457 -0.0355
 9838W        W52776  20.532   6.016   4.302  0.1228  0.0282 -0.0953
 9839W        W52777  18.520   3.915   2.233 -0.1125  0.0263 -0.3073
 9840W        W52778  20.440   4.950   5.312 -0.2509  0.0882  0.2376
 9841W        W52779  21.372   6.068   0.856 -0.1175 -0.0452 -0.0513
 9842W        W52780  19.776   5.937   0.695  0.1721  0.1423 -0.2038
 9843W        W52781  20.784   4.680   1.513 -0.3196  0.0852  0.3178
 9844W        W52782  17.443   4.574   1.209 -0.0517  0.0615 -0.0078
 9845W        W52783  19.074   7.155   2.962  0.1669  0.2335  0.1498
 9846W        W52784  20.165   4.816   1.356  0.0015 -0.0732 -0.2048
 9847W        W52785  18.877   5.697  31.610 -0.0205 -0.1515  0.2881
 9848W        W52786  18.821   6.746   0.611  0.0827 -0.0069  0.1072
 9849W        W52787  22.228   7.212   3.908 -0.0741  0.0911  0.1623
 9850W        W52788  18.381   4.783   1.203 -0.0437  0.1006 -0.0065
 9851W        W52789  21.715   4.589   2.582 -0.0903 -0.1321  0.2063
 9852W        W52790  18.503   7.156   0.995  0.0680  0.0377 -0.1686
 9853W        W52791  20.386   3.444   2.223  0.0353 -0.0390 -0.0326
 9854W        W52792  19.757   6.152   3.110 -0.1598  0.1078 -0.2429
 9855W        W52793  19.564   6.596   3.685  0.1272  0.1140  0.0816
 9856W        W52794  17.909   7.003   0.832  0.2507  0.1736  0.3287
 9857W        W52795  20.946   4.245   4.092 -0.0460  0.1311 -0.0475
 9858W        W52796  21.550   5.305   1.948  0.4602  0.2736 -0.3975
 9859W        W52797  20.273   6.091   3.128  0.4415 -0.1795  0.0585
 9860W        W52798  21.548   6.433   4.161 -0.0845 -0.0101  0.1452
 9861W        W52799  20.175   5.898   1.834 -0.0051  0.2565  0.1969
 9862W        W52800  19.826   5.620   2.279  0.0512 -0.0820  0.1711
 9863W        W52801  20.053   6.563   1.288 -0.1722  0.1946 -0.0776
 9864W        W52802  21.188   5.967  31.854  0.2733  0.0951 -0.0955
 9865W        W52803  17.928   6.690   1.753  0.1753 -0.1179  0.0134
 9866W        W52804  18.055   4.619   3.159 -0.0196  0.1518  0.0808
 9867W        W52805  20.692   4.905   2.513  0.1409  0.0398 -0.0578
 9868W        W52806  19.667   4.691   1.378 -0.2687  0.0090  0.1366
 9869W        W52807  18.837   4.054   1.387  0.1897 -0.0262 -0.3612
 9870W        W52808  19.312   6.049   0.554 -0.1386 -0.0939 -0.0335
 9871W        W52809  17.811   6.319   4.278  0.1877 -0.0445 -0.1104
 9872W        W52810  18.856   6.059   2.053  0.2391  0.2294  0.0509
 9873W        W52811  19.481   6.884   0.836 -0.1589  0.1920 -0.0037
 9874W        W52812  21.099   7.270   1.722 -0.0483 -0.0895 -0.2140
 9875W        W52813  19.326   6.516  30.341  0.0961  0.2539  0.2205
 9876W        W52814  21.603   6.956   1.834 -0.0041 -0.0736 -0.3735
 9877W        W52815  19.284   5.061   0.703  0.1203 -0.1610  0.2344
 9878W        W52816  19.668   7.417   1.667 -0.1284  0.1130  0.1361
 9879W        W52817  17.930   6.251  31.205 -0.2475  0.0243 -0.1509
 9880W        W52818  22.328   6.497   1.537  0.4559  0.3338 -0.0219
 9881W        W52819  17.359   6.886   1.421 -0.0480 -0.2216  0.0670
 9882W        W52820  21.423   6.947   4.225  0.0738 -0.1751 -0.3339
 9883W        W52821  21.083   4.521   0.389 -0.1770 -0.0280  0.0433
 9884W        W52822  21.004   6.411   2.303  0.0887 -0.0374  0.1741
 9885W        W52823  21.649   4.923  31.418 -0.1177  0.0242  0.1981
 9886W        W52824  20.747   6.585   1.919  0.2915 -0.2972  0.0299
 9887W        W52825  20.043   4.836   2.659 -0.1379 -0.0983  0.2028
 9888W        W52826  18.642   3.270   0.999  0.0248 -0.2137 -0.0283
 9889W        W52827  18.226   6.242   3.492 -0.0015 -0.0984  0.2681
 9890W        W52828  20.666   3.337   3.234  0.0702  0.1026  0.1720
 9891W        W52829  16.395   8.571   3.570 -0.1222  0.0343  0.1305
 9892W        W52830  21.053   7.943   1.570  0.0087 -0.0259 -0.0194
 9893W        W52831  18.168   2.662   0.667  0.0017  0.1133 -0.0707
 9894W        W52832  18.541   5.219   1.302  0.0171 -0.2261  0.0327
 9895W        W52833  21.638   4.043   1.684  0.3582  0.0134 -0.1041
 9896W        W52834  19.588   5.393   0.851  0.1252 -0.1460  0.0069
 9897W        W52835  19.592   4.081   2.296 -0.1307 -0.3393 -0.3972
 9898W        W52836  20.234   7.674   1.816 -0.1768  0.0753 -0.2028
 9899W        W52837  18.599   6.329   2.487 -0.0214 -0.3477 -0.1873
 9900W        W52838  19.421   6.923   0.368  0.0251 -0.0359  0.2100
 9901W        W52839  18.071   3.508   1.834  0.0954  0.0362  0.0263
 9902W        W52840  22.338   5.747   1.590  0.0896 -0.2123  0.1799
 9903W        W52841  18.885   5.077   4.304  0.0371 -0.0181 -0.0368
 9904W        W52842  21.191   5.955   2.666 -0.0591 -0.2742  0.1321
 9905W        W52843  20.525   5.565   1.521 -0.1371  0.1709 -0.1737
 9906W        W52844  22.398   5.316   1.826  0.0852 -0.1781  0.0440
 9907W        W52845  19.723   5.655   1.789 -0.1399 -0.1227  0.2554
 9908W        W52846  18.851   5.194   3.522 -0.1651  0.2206  0.1691
 9909W        W52847  20.714   6.884  31.705  0.3817  0.0004 -0.2498
 9910W        W52848  21.240   6.080   4.415 -0.1661 -0.0713  0.0385
 9911W        W52849  21.587   5.562  31.878  0.2865 -0.2168  0.0293
 9912W        W52850  20.866   6.156   3.136 -0.4209  0.3357 -0.3283
 9913W        W52851  18.230   1.964   2.775 -0.2613  0.1231  0.0282
 9914W        W52852  19.947   4.743   1.805  0.0051 -0.3113 -0.3331
 9915W        W52853  18.406   6.685   0.910  0.1302 -0.3491 -0.0002
 9916W        W52854  20.189   4.377   3.491  0.1996 -0.0751 -0.0520
 9917W        W52855  21.375   7.004   5.280 -0.0423  0.3307  0.0356
 9918W        W52856  19.350   2.770   1.417  0.1669  0.0979  0.2245
 9919W        W52857  21.651   7.100  31.530 -0.0068 -0.0264 -0.2208
 9920W        W52858  20.938   5.706   3.048 -0.2263 -0.1336 -0.0543
 9921W        W52859  19.587   7.988   0.176 -0.2060  0.0661 -0.0536
 9922W        W52860  22.240   5.117   0.829 -0.0254  0.0807 -0.0793
 9923W        W52861  19.571   6.344   0.983 -0.0273 -0.1755  0.1060
 9924W        W52862  19.628   5.097   2.555  0.2229  0.0675  0.1115
 9925W        W52863  19.733   6.218   1.453  0.1284 -0.1377  0.1359
 9926W        W52864  21.490   6.225   2.167  0.1687  0.1353  0.1120
 9927W        W52865  19.305   3.324   2.092 -0.0798  0.2867  0.1521
 9928W        W52866  18.931   4.829   2.173 -0.1121 -0.3727  0.1508
 9929W        W52867  17.384   7.177   0.341 -0.2954 -0.0388 -0.2362
 9930W        W52868  20.081   4.327   2.089 -0.1087  0.1497  0.3172
 9931W        W52869  21.567   5.368   4.411  0.1096  0.0837 -0.0738
 9932W        W52870  18.353   5.634  31.786 -0.0260  0.0578  0.2868
 9933W        W52871  21.268   4.913   3.547 -0.0709  0.0587  0.0983
 9934W        W52872  21.670   6.874   2.751 -0.2171  0.0171  0.0919
 9935W        W52873  20.224   7.238   1.506 -0.2100  0.1508  0.0466
 9936W        W52874  18.594   6.076   0.016 -0.2929  0.0295 -0.1015
 9937W        W52875  19.351   3.666   3.761  0.0461  0.3216  0.0854
 9938W        W52876  17.088   6.223   1.463 -0.1059  0.0390  0.2449
 9939W        W52877  22.018   5.804  31.944  0.2475 -0.1085  0.2494
 9940W        W52878  20.913   6.183   0.992  0.2451 -0.0159  0.0979
 9941W        W52879  20.735   3.855   3.192  0.1187  0.0119  0.0061
 9942W        W52880  22.294   6.123   1.255  0.2034  0.0821 -0.2341
 9943W        W52881  20.032   5.333   1.436  0.1318  0.0681 -0.1254
 9944W        W52882  23.080   4.951   0.533 -0.0866  0.2839 -0.2418
 9945W        W52883  21.742   5.176   0.856 -0.1058 -0.0356 -0.2559
 9946W        W52884  18.944   5.612   1.737 -0.0016  0.0222  0.2112
 9947W        W52885  17.063   5.806   0.388  0.3190  0.3573 -0.2589
 9948W        W52886  17.617   3.868  31.611 -0.2506 -0.2965 -0.4410
 9949W        W52887  18.365   6.795   1.960 -0.0746  0.1064  0.1689
 9950W        W52888  20.098   4.619   4.460 -0.1668  0.0691  0.2279
 9951W        W52889  19.141   3.294   2.669 -0.0062 -0.0924  0.1919
 9952W        W52890  19.345   5.415   3.889  0.1500 -0.1369  0.2881
 9953W        W52891  18.006   4.381  30.754 -0.2484 -0.0775  0.2843
 9954W        W52892  23.218   6.872   0.431  0.1824  0.1149  0.2323
 9955W        W52893  19.565   4.519   3.279  0.7158  0.3081  0.0543
 9956W        W52894  19.670   2.498   1.871 -0.1590 -0.1336  0.0825
 9957W        W52895  21.607   4.838   2.197  0.0168 -0.4416 -0.5677
 9958W        W52896  21.867   6.529   1.387 -0.0127 -0.2377 -0.1335
 9959W        W52897  18.732   3.240   1.762 -0.1125 -0.0101 -0.2266
 9960W        W52898  20.050   7.923   3.532 -0.2793 -0.2189 -0.0252
 9961W        W52899  17.084   5.558  31.445  0.0838  0.1215  0.2161
 9962W        W52900  20.243   5.227   2.914 -0.0487  0.0534  0.1094
 9963W        W52901  20.225   3.924   3.945  0.6555  0.1726 -0.1517
 9964W        W52902  18.674   3.796   1.036  0.0629  0.3378 -0.1585
 9965W        W52903  20.524   5.104   1.752 -0.1082 -0.2491 -0.1605
 9966W        W52904  20.954   5.871   0.587 -0.1127  0.0862 -0.0047
 9967W        W52905  20.661   7.407  31.451  0.1467 -0.1674 -0.0622
 9968W        W52906  19.769   6.977   2.390 -0.4925  0.2713 -0.1788
 9969W        W52907  20.238   7.473   3.713  0.1491  0.2004  0.1013
 9970W        W52908  18.635   3.643   2.653  0.4259 -0.3729 -0.4304
 9971W        W52909  20.334   5.098   0.643 -0.2555  0.0694 -0.0699
 9972W        W52910  20.963   6.615   0.703  0.0244 -0.0406  0.0618
 9973W        W52911  21.480   6.377   0.048  0.0871  0.1733  0.3965
 9974W        W52912  21.439   5.567   2.953 -0.0383 -0.0733 -0.1657
 9975W        W52913  20.416   3.329   1.286 -0.0473  0.0618 -0.1625
 9976W        W52914  18.490   4.311   3.119  0.0393 -0.2098 -0.0756
 9977W        W52915  19.241   5.969   2.980 -0.2654  0.1064  0.1687
 9978W        W52916  21.894   6.329   3.772  0.3381  0.1282  0.1701
 9979W        W52917  18.666   4.411   0.943 -0.0594  0.0332  0.0100
 9980W        W52918  20.862   3.498   0.358 -0.0523  0.3188 -0.1578
 9981W        W52919  21.164   5.650   1.069 -0.0463 -0.0117 -0.1005
 9982W        W52920  18.739   4.144   2.749 -0.0301  0.2149  0.2893
 9983W        W52921  21.122   5.347   1.478  0.1016  0.0070  0.2732
 9984W        W52922  19.638   5.959   2.681 -0.4290 -0.1585  0.1065
 9985W        W52923  19.957   5.384   0.456 -0.2158  0.1115 -0.1632
 9986W        W52924  20.454   5.627   3.274 -0.0100 -0.0098 -0.0235
 9987W        W52925  19.748   5.501  31.705 -0.3687  0.0334 -0.0472
 9988W        W52926  23.175   6.395   1.517  0.2833 -0.0344  0.1436
 9989W        W52927  20.661   6.194   2.705  0.0306  0.1320  0.2949
 9990W        W52928  21.413   7.018   4.744  0.1766  0.0923  0.1600
 9991W        W52929  22.033   7.175   2.937  0.0523  0.0644 -0.2908
 9992W        W52930  21.108   5.118   1.075  0.1301 -0.2032  0.0615
 9993W        W52931  18.124   1.461   1.108 -0.0674 -0.0685 -0.1526
 9994W        W52932  20.164   6.603   0.400  0.1328  0.1368 -0.0439
 9995W        W52933  19.259   4.616   0.968 -0.0614  0.0512  0.2685
 9996W        W52934  21.351   4.650   3.007 -0.2743 -0.0043 -0.0258
 9997W        W52935  18.428   4.325   1.366 -0.1873 -0.1132  0.2398
 9998W        W52936  19.558   3.290   0.672 -0.0753  0.1569 -0.3018
 9999W        W52937  19.291   7.364   2.583 -0.1455  0.0647  0.0728
10000W        W52938  20.902   5.853   1.417 -0.4006 -0.2383 -0.1134
10001W        W52939  19.197   6.038   6.160 -0.2575  0.0991 -0.4462
10002W        W52940  19.427   6.034   5.247  0.1817  0.0098 -0.1987
10003W        W52941  21.107   5.624   4.695  0.0026 -0.0036  0.4170
10004W        W52942  22.551   5.264   4.306  0.1414 -0.5016  0.1949
10005W        W52943  19.189   4.102   4.072  0.2064  0.0027  0.2193
10006W        W52944  20.908   7.034   5.565  0.0825  0.1456 -0.0795
10007W        W52945  19.403   3.030   6.799 -0.1659  0.0593  0.1763
10008W        W52946  21.445   6.350   6.431 -0.2049 -0.1090 -0.0403
10009W        W52947  20.603   6.076   6.003 -0.0050 -0.0976 -0.0926
10010W        W52948  21.000   6.239   4.029 -0.0041 -0.2005  0.1712
10011W        W52949  19.893   5.830   7.223 -0.0178 -0.2417 -0.0760
10012W        W52950  20.020   6.249   6.698 -0.2482  0.0743 -0.0865
10013W        W52951  20.337   4.779   5.835  0.0502  0.0293  0.2250
10014W        W52952  19.501   4.490   5.359  0.1025  0.2105 -0.0909
10015W        W52953  20.765   5.809   6.708 -0.0406 -0.0553  0.2070
10016W        W52954  17.476   4.658   4.506 -0.4324 -0.0150 -0.0746
10017W        W52955  19.832   4.457   5.702  0.1444  0.1890 -0.0625
10018W        W52956  20.326   3.849   5.353 -0.1451 -0.5527 -0.3446
10019W        W52957  20.412   8.129   5.283 -0.4996  0.1068 -0.2012
10020W        W52958  18.615   5.441   6.247  0.3217 -0.2894  0.1720
10021W        W52959  20.333   5.277   5.671  0.1154  0.1057  0.1080
10022W        W52960  20.187   6.449   4.488 -0.0533 -0.2822 -0.3800
10023W        W52961  18.853   6.327   2.930 -0.1533 -0.3704  0.1338
10024W        W52962  18.543   5.883   4.239 -0.1084 -0.0462 -0.2336
10025W        W52963  18.431   4.813   6.273 -0.3351  0.0614 -0.2582
10026W        W52964  20.752   4.616   5.501  0.1537 -0.1031  0.1775
10027W        W52965  21.735   5.931   4.407  0.1399 -0.1379  0.0724
10028W        W52966  18.020   8.028   6.179 -0.1209  0.1802  0.0632
10029W        W52967  20.073   8.452   6.666 -0.2320 -0.0594 -0.0519
10030W        W52968  21.351   5.339   7.455 -0.2192 -0.0765 -0.2151
10031W        W52969  18.645   5.702   5.835  0.1221 -0.1410  0.0660
10032W        W52970  18.137   7.665   5.288 -0.2542  0.2697 -0.3341
10033W        W52971  19.940   7.177   4.064  0.2733  0.0434 -0.2904
10034W        W52972  23.353   5.068   5.751 -0.2457 -0.0523 -0.0946
10035W        W52973  21.888   6.943   7.037 -0.3602  0.0627 -0.1816
10036W        W52974  17.679   8.907   7.074 -0.0555  0.0311  0.0122
10037W        W52975  20.472   7.049   2.836 -0.1056 -0.2903  0.0086
10038W        W52976  21.240   8.229   6.243 -0.1522 -0.0998 -0.1065
10039W        W52977  17.994   7.801   7.944  0.2365 -0.3461 -0.1022
10040W        W52978  18.948   5.006   5.740  0.1095 -0.0172 -0.0096
10041W        W52979  20.952   5.665   5.396 -0.0298  0.1062  0.0448
10042W        W52980  20.225   6.643   3.005 -0.0300 -0.2961 -0.0236
10043W        W52981  18.913   6.453   6.305  0.0439  0.1048  0.1897
10044W        W52982  20.193   6.225   7.169 -0.0835  0.1156 -0.0520
10045W        W52983  18.900   5.379   5.450 -0.1235 -0.0687 -0.0004
10046W        W52984  21.621   4.889   6.158 -0.1450  0.0433 -0.0492
10047W        W52985  20.545   7.867   4.354  0.1832  0.2493  0.1268
10048W        W52986  20.261   5.581   4.130  0.1046  0.2329  0.1345
10049W        W52987  20.159   3.868   4.438 -0.1052 -0.0783  0.0101
10050W        W52988  22.693   6.072   4.837  0.2560  0.0187  0.0613
10051W        W52989  18.985   2.725   5.370  0.2456 -0.2371  0.1797
10052W        W52990  18.845   7.851   6.437  0.1044 -0.0403  0.1351
10053W        W52991  19.839   5.154   5.815 -0.0297 -0.0179 -0.1710
10054W        W52992  21.030   6.232   6.882  0.0557  0.0877  0.0738
10055W        W52993  21.490   6.296   5.414  0.0447 -0.2405  0.0726
10056W        W52994  19.998   4.867   7.330 -0.2325  0.0154  0.3410
10057W        W52995  18.690   7.423   5.555 -0.2364  0.1803 -0.0614
10058W        W52996  18.530   4.924   4.699 -0.1588  0.2692 -0.1655
10059W        W52997  23.037   7.788   4.150 -0.1522 -0.2178 -0.2322
10060W        W52998  21.433   7.917   5.490  0.1024  0.0984 -0.1793
10061W        W52999  20.129   7.616   4.581  0.0562  0.1445  0.0810
10062W        W53000  18.152   5.211   4.890  0.0222  0.0566 -0.1697
10063W        W53001  16.883   5.751   7.040  0.1997 -0.0760  0.0492
10064W        W53002  18.455   5.815   6.842 -0.0865 -0.0005 -0.2669
10065W        W53003  18.990   3.767   1.811  0.1035  0.2231  0.3252
10066W        W53004  21.752   5.148   7.728 -0.0197  0.1786  0.2752
10067W        W53005  18.651   6.129   7.213  0.0879 -0.0582 -0.0522
10068W        W53006  21.687   4.963   5.264 -0.1169  0.0316  0.1473
10069W        W53007  18.696   7.315   6.466 -0.0625 -0.2632  0.3541
10070W        W53008  20.534   6.276   6.777 -0.1442 -0.0978  0.0856
10071W        W53009  20.535   6.731   4.806 -0.2241  0.1877 -0.1300
10072W        W53010  20.196   3.572   6.297  0.1665  0.1618 -0.0384
10073W        W53011  19.591   4.399   4.362  0.1478 -0.1925  0.0390
10074W        W53012  21.388   5.740   4.051  0.0274  0.0265 -0.2533
10075W        W53013  20.164   5.081   4.329  0.1000  0.1714 -0.0839
10076W        W53014  21.513   6.162   7.371 -0.0316 -0.1900  0.1784
10077W        W53015  22.518   6.393   4.501 -0.1642 -0.2814 -0.3172
10078W        W53016  17.756   7.561   6.211  0.0133  0.3746 -0.3673
10079W        W53017  19.512   4.887   7.206  0.2457 -0.0687  0.0369
10080W        W53018  19.294   6.972   7.173 -0.1444 -0.1872 -0.0566
10081W        W53019  18.523   6.985   3.919  0.2892  0.4329 -0.0711
10082W        W53020  18.433   6.371   5.347 -0.0398 -0.0933  0.0554
10083W        W53021  20.160   6.256   4.048  0.0708  0.0999  0.0273
10084W        W53022  18.686   4.052   4.838  0.3873 -0.0969 -0.0498
10085W        W53023  17.936   7.235   7.209 -0.3630 -0.1129 -0.0040
10086W        W53024  23.023   5.243   4.506 -0.1991  0.1433  0.0685
10087W        W53025  18.334   2.868   5.628  0.0366  0.0961  0.1085
10088W        W53026  22.815   5.543   5.237 -0.0382 -0.0749 -0.1759
10089W        W53027  18.613   5.511   4.941  0.2004 -0.1061  0.0665
10090W        W53028  21.511   7.758   3.300 -0.0490 -0.2921 -0.0064
10091W        W53029  21.693   5.818   2.512 -0.2185  0.4197 -0.2017
10092W        W53030  21.742   7.440   5.286 -0.0872  0.1441 -0.2595
10093W        W53031  17.773   5.165   5.733 -0.0994  0.0034  0.2226
10094W        W53032  17.916   4.208   4.458 -0.0490  0.0024 -0.2122
10095W        W53033  18.478   4.240   6.274  0.1265 -0.2011  0.0944
10096W        W53034  19.298   3.698   4.368  0.2659 -0.2534  0.0928
10097W        W53035  21.772   4.386   6.410 -0.0335 -0.1417  0.0201
10098W        W53036  18.747   3.407   3.107 -0.0867  0.1118  0.1365
10099W        W53037  22.052   4.979   6.778 -0.1468  0.1018  0.1530
10100W        W53038  19.971   5.577   4.777 -0.0065  0.0788  0.1111
10101W        W53039  19.263   5.320   4.367  0.0569  0.0755 -0.0283
10102W        W53040  20.942   4.933   8.860 -0.1772 -0.0033  0.0674
10103W        W53041  20.440   7.210   4.779  0.0039  0.1020 -0.0058
10104W        W53042  21.504   8.343   7.563 -0.1154 -0.0721  0.1882
10105W        W53043  20.771   7.921   3.857  0.0047  0.0871 -0.0459
10106W        W53044  19.428   5.042   6.657 -0.3475  0.2515  0.1312
10107W        W53045  19.286   4.863   4.526  0.2191 -0.1541 -0.4058
10108W        W53046  19.251   6.202   4.762  0.0863 -0.0003 -0.0260
10109W        W53047  20.455   7.492   6.267  0.0837  0.2860  0.1056
10110W        W53048  19.194   4.832   3.429  0.0342 -0.2066 -0.2792
10111W        W53049  20.673   7.707   5.467  0.0226  0.2064  0.1522
10112W        W53050  20.790   6.533   5.321  0.0247 -0.0084 -0.0753
10113W        W53051  18.921   4.569   5.482 -0.1728  0.3958  0.0533
10114W        W53052  20.470   3.548   4.647  0.0135 -0.0379 -0.1156
10115W        W53053  22.877   5.003   7.378 -0.1158 -0.0253 -0.3146
10116W        W53054  21.419   6.881   6.447 -0.2487  0.1819  0.6843
10117W        W53055  18.847   3.280   2.232 -0.1360 -0.2602 -0.2045
10118W        W53056  21.157   6.276   6.033 -0.0027  0.1134  0.1067
10119W        W53057  18.894   6.940   4.229 -0.1450 -0.0700 -0.2089
10120W        W53058  19.382   5.778   4.498 -0.3121 -0.1739 -0.2812
10121W        W53059  19.958   8.264   5.427  0.0141  0.2669  0.0610
10122W        W53060  21.369   4.254   6.817 -0.2461 -0.0404  0.0590
10123W        W53061  17.117   5.014   8.767  0.0855 -0.2363  0.0223
10124W        W53062  20.278   4.354   7.372  0.0036 -0.0233  0.0265
10125W        W53063  19.043   5.243   4.854  0.0770  0.0921  0.2030
10126W        W53064  18.224   5.334   6.960 -0.0946 -0.1240 -0.0191
10127W        W53065  21.410   3.477   3.756 -0.4322 -0.1695 -0.0434
10128W        W53066  21.791   5.106   4.783 -0.1916  0.5403 -0.1700
10129W        W53067  20.669   4.096   7.531  0.1142 -0.0031  0.1334
10130W        W53068  21.623   6.518   5.976  0.0262 -0.1194  0.1101
10131W        W53069  21.043   5.818   3.522 -0.0780 -0.1599 -0.1803
10132W        W53070  21.946   5.703   5.752 -0.0356  0.4137  0.0231
10133W        W53071  17.845   8.484   7.246  0.1551  0.1147 -0.1739
10134W        W53072  21.648   7.205   3.849 -0.0887 -0.0579  0.1236
10135W        W53073  18.528   6.778   6.437 -0.1174 -0.1849 -0.0420
10136W        W53074  20.892   5.706   4.162 -0.0594  0.0262 -0.1490
10137W        W53075  22.360   6.070   5.621 -0.2211 -0.2197 -0.1276
10138W        W53076  19.127   5.875   5.608 -0.0663  0.1242 -0.0664
10139W        W53077  20.643   7.064   6.604  0.0439  0.0513 -0.1371
10140W        W53078  19.363   6.695   5.338 -0.1201 -0.1156 -0.1673
10141W        W53079  20.772   4.405   7.046  0.0263 -0.0994 -0.0993
10142W        W53080  20.468   5.382   3.726  0.4136 -0.1328  0.1692
10143W        W53081  19.455   3.074   4.674 -0.1914 -0.3764  0.2019
10144W        W53082  19.398   7.153   4.095  0.1366 -0.0422 -0.2762
10145W        W53083  20.659   3.631   7.330 -0.0127  0.4086  0.0348
10146W        W53084  20.553   6.020   5.165 -0.1465  0.1732 -0.2048
10147W        W53085  20.454   3.992   6.880 -0.3577 -0.0195  0.2222
10148W        W53086  20.569   4.687   8.526 -0.0827  0.0162 -0.4084
10149W        W53087  20.023   5.611   2.735 -0.1190  0.0636 -0.0055
10150W        W53088  20.124   5.609   5.994  0.1803  0.0168 -0.2578
10151W        W53089  19.510   5.435   5.029 -0.3484 -0.2607  0.3359
10152W        W53090  19.421   4.400   7.419 -0.0128  0.0892  0.0332
10153W        W53091  18.851   5.839   6.487 -0.2063 -0.2109 -0.3457
10154W        W53092  19.310   7.974   6.125  0.1233  0.2974  0.1448
10155W        W53093  21.350   6.602   6.942  0.1000 -0.2314 -0.1070
10156W        W53094  20.061   5.971   5.170  0.3236 -0.1170 -0.2169
10157W        W53095  19.444   4.793   8.383  0.0011  0.1916  0.2314
10158W        W53096  20.351   4.174   5.836 -0.0795 -0.1454  0.2444
10159W        W53097  20.605   6.463   3.888  0.1929 -0.0509  0.0956
10160W        W53098  19.391   6.421   2.911 -0.1441 -0.0776 -0.0541
10161W        W53099  20.386   3.119   6.633  0.2471  0.1873 -0.1649
10162W        W53100  20.249   6.715   6.931  0.0192  0.1446  0.1142
10163W        W53101  20.630   7.017   3.754  0.1309  0.0813 -0.1077
10164W        W53102  20.663   6.048   7.161  0.1002  0.0141 -0.0524
10165W        W53103  19.099   6.535   3.931  0.3452  0.2840 -0.2650
10166W        W53104  22.125   3.324   6.711  0.2012 -0.0488  0.1272
10167W        W53105  17.878   6.691   4.612 -0.2115 -0.3575 -0.3004
10168W        W53106  20.538   5.521   4.540  0.1073 -0.1440  0.1102
10169W        W53107  18.981   6.138   4.332  0.0897 -0.0540 -0.2117
10170W        W53108  22.237   4.272   6.518  0.3177  0.0925  0.1086
10171W        W53109  21.874   6.486   5.079 -0.0146 -0.0561 -0.2886
10172W        W53110  18.867   4.509   4.793 -0.0243  0.2165  0.0203
10173W        W53111  20.273   5.601   7.497 -0.1474 -0.2187 -0.1376
10174W        W53112  18.141   7.209   6.315 -0.1582  0.1607 -0.1448
10175W        W53113  19.224   6.081   6.744 -0.0370 -0.2073  0.0429
10176W        W53114  21.059   3.326   5.321  0.3814 -0.2122 -0.0332
10177W        W53115  21.658   6.551   7.663 -0.3079 -0.0911  0.2520
10178W        W53116  18.838   6.620   7.209  0.0351 -0.3211 -0.2254
10179W        W53117  19.696   4.821   3.641  0.1475 -0.1895  0.4213
10180W        W53118  21.572   6.163   6.879  0.2833  0.1227 -0.0234
10181W        W53119  19.976   5.306   5.259  0.1843  0.1687  0.1845
10182W        W53120  17.713   7.057   4.912 -0.0740 -0.2901  0.2963
10183W        W53121  20.504   6.499   6.309  0.1421  0.0215 -0.1591
10184W        W53122  19.513   6.246   4.260 -0.1094 -0.1480  0.1109
10185W        W53123  18.934   6.357   5.163 -0.6320 -0.0042 -0.1132
10186W        W53124  20.494   4.842   6.478 -0.3461  0.0008  0.0036
10187W        W53125  21.279   5.713   6.612  0.1396  0.1388  0.0369
10188W        W53126  19.070   5.725   5.007  0.3481 -0.0574  0.2348
10189W        W53127  18.640   4.801   3.847  0.2333 -0.0381  0.0395
10190W        W53128  19.576   4.993   4.146  0.2631 -0.0153 -0.0506
10191W        W53129  20.623   5.501   7.092 -0.0721 -0.1450 -0.0998
10192W        W53130  21.051   4.814   5.899  0.0962 -0.3385 -0.0242
10193W        W53131  18.112   7.710   7.285  0.2630 -0.2119 -0.3689
10194W        W53132  21.347   4.476   6.161  0.1118 -0.2940  0.2455
10195W        W53133  23.810   6.836   4.593  0.0930  0.3144  0.3152
10196W        W53134  19.832   4.173   7.582 -0.2218  0.0095  0.0287
10197W        W53135  19.345   5.438   5.631 -0.0118  0.1321  0.0459
10198W        W53136  18.281   5.241   5.759 -0.1244 -0.1081 -0.0720
10199W        W53137  19.706   6.555   5.882 -0.0393 -0.0595 -0.0441
10200W        W53138  18.808   3.949   5.968 -0.1002 -0.1882 -0.2590
10201W        W53139  18.224   6.239   6.665  0.1161  0.0574  0.1434
10202W        W53140  20.019   6.350   3.530  0.1930  0.1206 -0.1270
10203W        W53141  17.962   6.373   4.935  0.3611 -0.0939 -0.0026
10204W        W53142  21.535   3.247   5.634 -0.3592  0.1520 -0.0188
10205W        W53143  22.460   5.880   4.387  0.1828 -0.2463 -0.1372
10206W        W53144  20.379   4.116   6.376 -0.1447 -0.2492  0.2346
10207W        W53145  21.742   4.738   7.320  0.2672  0.2226  0.0548
10208W        W53146  21.552   6.685   3.756  0.0193 -0.3431 -0.0713
10209W        W53147  21.588   4.850   8.783 -0.2500  0.3043  0.0486
10210W        W53148  19.958   3.973   6.902  0.0821 -0.1331 -0.1613
10211W        W53149  21.816   7.868   4.344 -0.3162 -0.1007  0.0866
10212W        W53150  19.227   4.656   6.348  0.1608 -0.1892 -0.0800
10213W        W53151  20.151   8.049   7.602 -0.1043  0.0903 -0.0341
10214W        W53152  18.131   5.005   7.319 -0.2067 -0.0300  0.0145
10215W        W53153  20.113   6.160   5.894  0.0803  0.0679  0.0848
10216W        W53154  18.762   4.488   4.326  0.3072  0.2249 -0.2004
10217W        W53155  19.274   5.541   6.477 -0.2182 -0.0238 -0.4064
10218W        W53156  21.047   5.778   6.179  0.1083 -0.2452  0.0418
10219W        W53157  20.398   7.438   3.187 -0.0897  0.0069 -0.3574
10220W        W53158  21.083   3.644   6.467 -0.2015 -0.3798 -0.0337
10221W        W53159  18.282   4.482   4.159 -0.0671 -0.1677  0.0199
10222W        W53160  21.476   4.374   5.180  0.1911 -0.1218  0.0282
10223W        W53161  20.307   6.464   5.550 -0.0198  0.1252  0.1324
10224W        W53162  20.052   6.468   5.083 -0.2636 -0.0465 -0.1181
10225W        W53163  19.193   2.860   5.878 -0.1419 -0.0260  0.1547
10226W        W53164  21.399   5.188   5.608 -0.0725 -0.1205 -0.2981
10227W        W53165  21.595   6.012   5.882  0.0119 -0.0809  0.2085
10228W        W53166  21.415   3.961   6.315  0.5285 -0.1022  0.1319
10229W        W53167  19.826   4.614   8.697  0.3289  0.0737  0.0790
10230W        W53168  19.077   5.121   6.982 -0.2671  0.1819  0.3843
10231W        W53169  19.057   5.508   6.053  0.2340 -0.0500 -0.0098
10232W        W53170  22.031   6.131   6.168 -0.0659  0.0573 -0.1314
10233W        W53171  22.114   4.851   4.495 -0.1981 -0.3408 -0.0173
10234W        W53172  22.713   3.457   4.765  0.4253  0.2701 -0.2695
10235W        W53173  23.025   6.054   5.852  0.2593 -0.0739  0.1656
10236W        W53174  22.144   5.580   6.219  0.1062 -0.3921  0.0113
10237W        W53175  18.881   5.664   4.527 -0.1282 -0.1946  0.1806
10238W        W53176  21.297   5.131   8.351  0.1972  0.0774 -0.0879
10239W        W53177  20.108   4.652   4.991  0.1844  0.3692  0.3367
10240W        W53178  20.833   4.226   6.551 -0.0748  0.0645 -0.0089
10241W        W53179  19.815   6.853   5.216  0.1718  0.2449  0.0938
10242W        W53180  20.257   5.978   6.409  0.1031  0.0412 -0.0764
10243W        W53181  21.606   5.662   6.221  0.2033  0.3958  0.0890
10244W        W53182  18.028   4.808   4.560 -0.1035 -0.0855 -0.0276
10245W        W53183  19.239   6.579   6.870  0.2128 -0.3576  0.0974
10246W        W53184  18.886   5.541   4.005 -0.0300 -0.1554  0.3041
10247W        W53185  19.798   6.678   3.209 -0.1440 -0.2475 -0.1056
10248W        W53186  19.772   7.068   7.440 -0.1721  0.0328  0.2409
10249W        W53187  22.491   5.761   6.936 -0.0923 -0.1791  0.0008
10250W        W53188  20.456   5.537   5.269 -0.1708  0.0288 -0.0032
10251W        W53189  21.155   4.162   7.314 -0.3673  0.2131 -0.1170
10252W        W53190  18.216   5.988   5.147 -0.1582 -0.1300  0.0236
10253W        W53191  20.824   5.189   5.566  0.0832 -0.0301  0.0337
10254W        W53192  19.389   7.744   6.596 -0.1129  0.0369 -0.0269
10255W        W53193  18.432   5.381   4.471  0.0723 -0.0888 -0.0139
10256W        W53194  19.061   7.096   5.761  0.1963  0.0893 -0.0490
10257W        W53195  19.711   4.803   6.212 -0.0256 -0.0205 -0.1616
10258W        W53196  20.439   5.861   5.616  0.0749  0.1902 -0.2184
10259W        W53197  18.397   6.509   5.934  0.0832 -0.0580  0.0323
10260W        W53198  20.790   5.277   6.620 -0.0889  0.2769  0.2050
10261W        W53199  20.049   7.480   6.594 -0.1016 -0.0072  0.2897
10262W        W53200  19.839   3.990   5.837 -0.0638 -0.0325 -0.2053
10263W        W53201  21.518   7.003   5.831  0.1040  0.3538 -0.1383
10264W        W53202  18.750   6.206   5.745 -0.0656  0.0124 -0.1548
10265W        W53203  18.982   4.192   8.267 -0.1273  0.4165 -0.2419
10266W        W53204  19.867   4.871   6.840  0.0720 -0.2040 -0.0540
10267W        W53205  20.974   6.130   5.610 -0.2813  0.0235  0.0032
10268W        W53206  19.753   3.349   6.381 -0.0225 -0.0758 -0.0421
10269W        W53207  20.859   7.079   4.308  0.0573  0.1994  0.2995
10270W        W53208  18.593   7.940   6.905  0.0128  0.1101  0.2458
10271W        W53209  17.962   4.594   6.062 -0.1721 -0.3028  0.2473
10272W        W53210  18.579   7.093   5.981 -0.1244 -0.3177 -0.0852
10273W        W53211  21.131   6.151   5.126 -0.0344 -0.2378 -0.1461
10274W        W53212  21.946   7.021   5.524  0.0062 -0.2967  0.2121
10275W        W53213  20.552   7.603   6.769 -0.1106 -0.1138 -0.1075
10276W        W53214  20.649   4.863   3.757  0.0373 -0.1175 -0.1912
10277W        W53215  17.440   7.478   4.949  0.1141 -0.0636 -0.4254
10278W        W53216  18.708   6.074   4.864 -0.2660 -0.1022 -0.1152
10279W        W53217  20.972   6.897   5.047 -0.0808  0.0890 -0.0677
10280W        W53218  19.898   7.394   4.986 -0.0198 -0.0421 -0.0013
10281W        W53219  21.989   6.160   7.498  0.0340 -0.0544  0.0920
10282W        W53220  20.952   4.315   5.108 -0.0528 -0.1134 -0.0774
10283W        W53221  21.792   5.248   5.901  0.2827 -0.2720  0.0223
10284W        W53222  22.982   4.769   4.308 -0.0354  0.1021 -0.1171
10285W        W53223  20.501   8.142   6.880 -0.1667 -0.0362 -0.2932
10286W        W53224  18.610   5.012   5.235 -0.4131  0.1331 -0.0939
10287W        W53225  20.697   4.446   6.142  0.0660 -0.2798 -0.0658
10288W        W53226  18.781   6.325   6.782  0.0448 -0.0253  0.0587
10289W        W53227  20.495   5.002   7.387  0.1693  0.0486  0.1679
10290W        W53228  18.864   6.922   6.791  0.4060  0.1497 -0.1664
10291W        W53229  21.387   7.551   4.219  0.1647  0.1645 -0.3242
10292W        W53230  19.209   5.703   3.464 -0.2743  0.1990  0.0852
10293W        W53231  19.742   6.112   6.281  0.1032 -0.1963  0.0334
10294W        W53232  21.614   3.434   6.286 -0.1493  0.2076 -0.1477
10295W        W53233  21.241   6.600   4.564  0.0897  0.3021 -0.2390
10296W        W53234  19.433   6.492   6.320  0.0723 -0.0024  0.1330
10297W        W53235  19.174   8.078   5.583  0.1290 -0.2392  0.3296
10298W        W53236  17.922   7.473   6.784  0.0438 -0.1631 -0.0630
10299W        W53237  19.845   7.819   6.274  0.0841  0.1728  0.0022
10300W        W53238  17.714   4.470   4.047 -0.1850 -0.0085  0.0839
10301W        W53239  23.808   5.834   5.492 -0.0946  0.1488 -0.1769
10302W        W53240  18.432   4.134   7.864  0.0159 -0.1924 -0.0931
10303W        W53241  21.056   3.445   7.051 -0.3436 -0.0220 -0.1155
10304W        W53242  19.758   5.011   4.718 -0.2228  0.0159  0.0387
10305W        W53243  21.562   4.806   4.404 -0.1918  0.0374  0.0885
10306W        W53244  19.165   6.919   6.247 -0.1979  0.4271 -0.1885
10307W        W53245  17.632   4.940   6.302 -0.1154  0.0114  0.2339
10308W        W53246  20.883   5.292   3.357 -0.0175 -0.1417 -0.0164
10309W        W53247  21.619   5.674   7.022 -0.2653  0.4558 -0.2159
10310W        W53248  18.408   5.850   1.827 -0.2563  0.0490 -0.2788
10311W        W53249  20.968   7.489   7.277 -0.0776  0.1860  0.0803
10312W        W53250  17.585   3.861   4.837 -0.0486  0.2031  0.1920
10313W        W53251  20.995   4.102   4.663  0.0138  0.4995  0.1478
10314W        W53252  18.653   5.858   5.357 -0.0487  0.1591 -0.1736
10315W        W53253  19.657   7.058   5.948 -0.3010  0.2464 -0.1199
10316W        W53254  22.153   7.637   7.902 -0.1928 -0.0319 -0.4043
10317W        W53255  18.246   3.067   3.791 -0.1514 -0.0687  0.3825
10318W        W53256  22.740   6.491   5.593  0.2813  0.1518 -0.2840
10319W        W53257  21.259   5.165   6.597  0.1147 -0.0297 -0.1925
10320W        W53258  19.813   7.079   3.613 -0.0879  0.3312  0.2321
10321W        W53259  20.310   6.023   4.730 -0.0184  0.2645  0.0095
10322W        W53260  20.937   7.419   6.418 -0.2316  0.3185  0.1242
10323W        W53261  20.889   6.164   6.424 -0.0104  0.2145  0.0901
10324W        W53262  22.148   4.935   6.220  0.1246  0.0140 -0.1659
10325W        W53263  18.318   3.794   3.084  0.3913  0.1760  0.2256
10326W        W53264  17.952   5.281   4.403  0.0089  0.0378 -0.0443
10327W        W53265  20.414   7.381   4.196  0.1004 -0.1967  0.1009
10328W        W53266  21.584   5.146   7.043 -0.4134  0.1104 -0.3883
10329W        W53267  20.134   5.055   6.211  0.0094  0.3014  0.1112
10330W        W53268  19.704   7.246   4.535  0.2833  0.1774 -0.1283
10331W        W53269  21.798   3.663   5.719 -0.0030  0.1476  0.1566
10332W        W53270  19.356   7.630   7.302  0.1834  0.1907 -0.0607
10333W        W53271  17.491   7.421   7.050  0.3757 -0.0682 -0.0145
10334W        W53272  19.148   4.975   3.903 -0.0051  0.3048 -0.1930
10335W        W53273  19.726   6.808   6.715  0.2121  0.2609 -0.2540
10336W        W53274  19.183   6.465   5.817  0.0159 -0.0052 -0.0562
10337W        W53275  19.780   6.333   5.437 -0.1981  0.0619  0.0620
10338W        W53276  21.234   6.622   5.673  0.2426 -0.1040 -0.2473
10339W        W53277  20.790   6.183   4.701  0.0505  0.3507 -0.0023
10340W        W53278  21.957   6.412   5.581 -0.0833  0.4515  0.0141
10341W        W53279  19.649   5.652   6.055 -0.1377 -0.2970  0.1871
10342W        W53280  22.014   3.573   5.000  0.1944 -0.0308  0.2578
10343W        W53281  22.065   5.424   4.378 -0.4598 -0.0777 -0.0329
10344W        W53282  18.961   5.118   6.375  0.0485  0.0867 -0.0791
10345W        W53283  18.069   4.965   4.022  0.1945  0.0370  0.3403
10346W        W53284  19.748   5.411   4.329 -0.0315  0.1412  0.1158
10347W        W53285  18.124   6.864   5.753  0.0042 -0.0618 -0.0713
10348W        W53286  20.278   4.103   7.816 -0.0182 -0.0114  0.0496
10349W        W53287  18.709   5.389   6.727 -0.0335  0.1033  0.1954
10350W        W53288  18.416   4.472   5.300 -0.0962 -0.3900  0.1999
10351W        W53289  18.725   2.124   2.816 -0.4082 -0.0873  0.2074
10352W        W53290  22.003   5.970   5.260  0.4103  0.0292  0.0670
10353W        W53291  17.635   4.212   5.918  0.0815 -0.4093 -0.1920
10354W        W53292  18.221   3.504   4.480 -0.1637  0.2749  0.1907
10355W        W53293  20.095   6.865   5.834  0.1881  0.0131  0.2651
10356W        W53294  21.504   5.837   5.264  0.2125  0.2036  0.0594
10357W        W53295  19.928   4.153   5.268  0.1871 -0.0085  0.1786
10358W        W53296  21.053   5.386   8.045 -0.0646 -0.1365  0.1929
10359W        W53297  18.818   6.590   2.115  0.1017  0.2740 -0.1250
10360W        W53298  20.677   5.156   6.057 -0.1437 -0.2556  0.3320
10361W        W53299  19.716   3.573   6.825 -0.1057 -0.0379  0.0332
10362W        W53300  18.298   5.039   3.502  0.0033  0.0331 -0.0707
10363W        W53301  20.353   4.803   6.992  0.1914 -0.1268  0.0680
10364W        W53302  18.446   6.057   6.233 -0.1988  0.0330 -0.0783
10365W        W53303  20.164   7.713   5.326  0.3432  0.1403 -0.1471
10366W        W53304  19.765   5.357   7.490  0.0750 -0.2343  0.0858
10367W        W53305  19.891   6.756   8.265 -0.1713  0.3310 -0.1963
10368W        W53306  18.508   3.983   7.397  0.0031 -0.0243  0.1544
10369W        W53307  20.768   5.575   5.849  0.0379  0.1034 -0.5166
10370W        W53308  19.632   6.244   6.983  0.2111 -0.1903 -0.1308
10371W        W53309  23.024   6.083   6.431  0.0840 -0.0151  0.3189
10372W        W53310  21.609   3.604   5.291 -0.0308  0.1682 -0.3243
10373W        W53311  22.124   3.948   5.451  0.0484 -0.0303  0.1256
10374W        W53312  18.563   3.538   7.100  0.0740 -0.0989  0.3343
10375W        W53313  17.916   5.954   7.589 -0.0778  0.2572  0.1534
10376W        W53314  21.190   5.284   6.056  0.0802  0.0766 -0.2189
10377W        W53315  19.786   5.741   5.536 -0.1559  0.2360  0.2682
10378W        W53316  20.302   4.433   5.395  0.0168 -0.0549 -0.2861
10379W        W53317  19.546   6.092   5.791  0.2641 -0.0540 -0.0160
10380W        W53318  19.341   4.616   5.826 -0.0038  0.0168  0.0655
10381W        W53319  21.228   4.343   5.616 -0.0814  0.0008  0.0084
10382W        W53320  19.334   5.097   6.084  0.0483  0.0136 -0.0770
10383W        W53321  19.670   5.840   6.685 -0.0842 -0.0996 -0.1488
10384W        W53322  20.875   5.298   7.543  0.3992 -0.2299 -0.2674
10385W        W53323  20.701   5.212   4.131 -0.1500 -0.0864 -0.0328
10386W        W53324  21.916   6.458   7.094  0.0386  0.1692 -0.2332
10387W        W53325  20.166   6.980   6.471  0.2894  0.3697  0.1953
10388W        W53326  20.748   7.959   7.276  0.3408  0.0226  0.2133
10389W        W53327  19.598   7.272   6.927  0.2829 -0.1691  0.3106
10390W        W53328  19.821   5.396   6.493 -0.0184 -0.1057 -0.1291
10391W        W53329  19.480   4.247   6.129  0.1189 -0.1657 -0.0571
10392W        W53330  19.981   5.927   4.406 -0.0574 -0.0609 -0.0482
10393W        W53331  18.266   7.758   6.566 -0.1219 -0.1228  0.1126
10394W        W53332  20.532   5.587   6.324  0.2706  0.2264  0.0576
10395W        W53333  19.946   4.822   5.407 -0.1112  0.0775 -0.1369
10396W        W53334  21.393   6.577   5.036  0.2832  0.1105  0.2035
10397W        W53335  19.489   8.472   5.705 -0.2536  0.0757 -0.1641
10398W        W53336  20.707   6.567   5.804 -0.1933  0.1762  0.0729
10399W        W53337  19.688   7.677   9.483 -0.0974 -0.1909 -0.0224
10400W        W53338  19.443   4.296   8.491  0.3042 -0.3477  0.3305
10401W        W53339  19.876   4.411   7.132  0.0404 -0.2945 -0.1518
10402W        W53340  21.380   5.823   9.803 -0.0472  0.2843  0.0343
10403W        W53341  19.983   2.249   8.902 -0.2675  0.0507 -0.0861
10404W        W53342  20.546   6.948   9.810 -0.0901 -0.0967  0.0599
10405W        W53343  20.171   6.423   9.536  0.2749 -0.0385 -0.2914
10406W        W53344  23.721   8.149  10.305 -0.2245 -0.1434 -0.0693
10407W        W53345  19.282   5.736   8.618 -0.0369  0.1790  0.1512
10408W        W53346  18.915   3.852   9.336  0.1760 -0.1269  0.2765
10409W        W53347  19.371   3.835   8.203 -0.4561  0.1236 -0.1788
10410W        W53348  17.317   2.807   9.194  0.0563  0.2829 -0.0420
10411W        W53349  21.809   3.637  10.036 -0.1676 -0.2419 -0.2653
10412W        W53350  18.905   4.999   8.095 -0.1234 -0.0847  0.0532
10413W        W53351  17.695   4.488   9.590  0.0416 -0.2284 -0.1995
10414W        W53352  19.625   4.795   7.696  0.5025 -0.0752 -0.1487
10415W        W53353  20.708   7.432   8.621  0.2013  0.2196 -0.1117
10416W        W53354  21.627   6.353   9.798  0.3706 -0.0931 -0.0546
10417W        W53355  20.994   6.625   6.449  0.0704 -0.1258 -0.2260
10418W        W53356  19.007   4.177   7.181 -0.0258  0.0639 -0.1684
10419W        W53357  18.778   3.515   8.986  0.1797 -0.0776 -0.0572
10420W        W53358  19.166   6.915   9.643 -0.2485 -0.0754  0.2186
10421W        W53359  19.925   2.457   9.728  0.1027  0.0024  0.2663
10422W        W53360  20.463   5.032   8.864 -0.0881  0.0255  0.3245
10423W        W53361  19.500   6.574   9.156  0.1530  0.3397 -0.0294
10424W        W53362  20.944   6.658   9.560 -0.1632 -0.1078  0.2719
10425W        W53363  18.264   5.601   8.224  0.1171  0.1880 -0.4021
10426W        W53364  16.442   8.698   9.324  0.0080  0.0266  0.0593
10427W        W53365  20.280   6.271   7.688  0.0939  0.4792  0.1587
10428W        W53366  21.806   5.945  10.020 -0.0396 -0.2738 -0.1912
10429W        W53367  18.117   4.578   7.905 -0.0160  0.0466  0.4470
10430W        W53368  20.145   5.528  10.057 -0.0668  0.1119  0.0400
10431W        W53369  19.720   5.606   8.428 -0.0355 -0.3170  0.2958
10432W        W53370  20.480   7.575   7.551 -0.0909  0.0885  0.2070
10433W        W53371  19.430   6.437   8.120  0.1589  0.1104 -0.1333
10434W        W53372  17.129   7.502   8.530  0.1673 -0.3882  0.0276
10435W        W53373  18.874   7.275   7.161  0.1607 -0.1206 -0.2299
10436W        W53374  20.747   6.346   7.835 -0.0769 -0.2553 -0.1662
10437W        W53375  19.305   4.587   6.888 -0.2286  0.0095 -0.3443
10438W        W53376  21.510   6.150   9.255  0.4004  0.2295  0.0370
10439W        W53377  19.497   2.875   8.782 -0.2761 -0.2002  0.1545
10440W        W53378  19.059   6.508   8.883  0.0868  0.1175  0.2069
10441W        W53379  18.297   3.969  10.041  0.0115 -0.1151  0.2057
10442W        W53380  20.277   5.308   6.630  0.1041  0.2157  0.0212
10443W        W53381  20.438   5.548   9.693  0.2339 -0.3494 -0.1263
10444W        W53382  18.010   5.788   9.273  0.0056  0.1312  0.3522
10445W        W53383  18.458   4.610   8.828 -0.1554 -0.0985 -0.0221
10446W        W53384  19.913   7.962   6.759  0.5851 -0.0067  0.0966
10447W        W53385  22.217   6.909   9.075  0.1075 -0.3169  0.1817
10448W        W53386  20.708   8.357   6.501  0.2125 -0.1053  0.2269
10449W        W53387  18.816   3.425   8.498 -0.0656 -0.2681 -0.0071
10450W        W53388  18.810   2.701   8.119 -0.0040  0.0998 -0.2330
10451W        W53389  21.424   5.018  10.149 -0.0421  0.2322  0.0147
10452W        W53390  18.162   5.149   8.697 -0.1656 -0.2236 -0.2765
10453W        W53391  20.841   7.924   9.311 -0.2665  0.1819  0.1041
10454W        W53392  21.006   6.741   7.922 -0.0109  0.1085 -0.4133
10455W        W53393  21.579   4.458   9.942  0.1657 -0.1793 -0.3614
10456W        W53394  22.030   4.676   9.852  0.3289 -0.0567  0.2252
10457W        W53395  18.855   6.016   7.965  0.1049 -0.1706 -0.0628
10458W        W53396  19.574   5.739   7.654 -0.2177 -0.1647 -0.1629
10459W        W53397  19.914   7.818  10.076 -0.2954  0.0499 -0.1235
10460W        W53398  21.865   5.734   8.230 -0.2911 -0.0371 -0.1435
10461W        W53399  17.819   6.392   7.894  0.0502  0.2078 -0.3227
10462W        W53400  18.982   7.540   7.714 -0.0672 -0.3125  0.1185
10463W        W53401  18.141   4.119   9.424  0.1244 -0.2099 -0.0858
10464W        W53402  18.363   6.579   7.031 -0.1415  0.1162  0.0550
10465W        W53403  17.741   0.835   9.563 -0.0853 -0.0016  0.2825
10466W        W53404  20.863   4.783   9.515 -0.2639 -0.2702 -0.4311
10467W        W53405  22.404   5.652   9.421  0.1049  0.1415  0.0633
10468W        W53406  21.530   4.140   8.984 -0.0832  0.1448 -0.2078
10469W        W53407  18.721   7.391   8.497 -0.2435  0.1155  0.0940
10470W        W53408  21.658   7.018   8.438 -0.2703 -0.2249 -0.0323
10471W        W53409  21.307   4.961   9.181  0.2229 -0.0213 -0.1632
10472W        W53410  20.285   8.551   6.220 -0.3135 -0.0472  0.1502
10473W        W53411  18.212   5.359   9.568 -0.1097  0.0316  0.0909
10474W        W53412  19.005   3.585   7.922 -0.1518 -0.1232 -0.1642
10475W        W53413  19.438   2.471   9.677 -0.2078 -0.0834 -0.1027
10476W        W53414  18.946   4.087   7.717  0.4705  0.0112 -0.1088
10477W        W53415  20.027   4.649   9.588 -0.0168  0.2646 -0.2111
10478W        W53416  19.139   5.181   8.566 -0.1144  0.1983  0.0908
10479W        W53417  17.737   5.045   7.829  0.2837  0.1108 -0.3275
10480W        W53418  19.854   6.647   7.183 -0.0021  0.2074  0.1754
10481W        W53419  21.901   7.248   9.337  0.0072  0.4164  0.1612
10482W        W53420  21.455   7.847   8.756  0.1715  0.2024  0.1468
10483W        W53421  19.075   2.235   9.323 -0.0013  0.0461  0.1278
10484W        W53422  18.982   4.204   6.506  0.1242 -0.1026  0.0304
10485W        W53423  18.312   7.999   8.945  0.0342 -0.0621 -0.0591
10486W        W53424  20.587   6.209   9.566  0.4662  0.2455 -0.1641
10487W        W53425  18.319   3.695   8.678  0.5653 -0.0637 -0.2680
10488W        W53426  21.268   6.785   8.720  0.0563 -0.1042  0.1168
10489W        W53427  20.223   4.588   8.965 -0.1058  0.0528  0.3150
10490W        W53428  18.368   5.898   9.784  0.1561 -0.1827  0.2293
10491W        W53429  21.254   5.810  10.730 -0.0650 -0.1266 -0.0087
10492W        W53430  18.519   3.080   7.035  0.0162  0.0158 -0.3737
10493W        W53431  21.696   7.579   7.655 -0.1221 -0.0025  0.1158
10494W        W53432  18.463   7.495   8.900 -0.2857  0.1887  0.1464
10495W        W53433  18.536   4.465   8.159 -0.1031  0.1591 -0.0016
10496W        W53434  20.536   6.802   7.912  0.0130  0.0944 -0.2654
10497W        W53435  18.804   4.623   9.714 -0.0606 -0.2570 -0.2027
10498W        W53436  17.696   4.994   7.112  0.1764 -0.1269  0.1173
10499W        W53437  20.796   3.598   8.811  0.0323 -0.1701 -0.1431
10500W        W53438  21.662   3.332   7.254 -0.0187  0.1078  0.0346
10501W        W53439  21.958   6.429   8.083  0.1057  0.0230  0.0104
10502W        W53440  21.236   4.978   7.859  0.0178 -0.0000  0.2717
10503W        W53441  20.966   4.518   7.575  0.0925  0.0403  0.0514
10504W        W53442  20.994   6.443   8.453  0.0040 -0.1243 -0.0994
10505W        W53443  21.217   5.584  10.225  0.1010  0.4235 -0.0030
10506W        W53444  19.412   5.813   7.141  0.2981  0.0188  0.3600
10507W        W53445  21.229   5.755   7.695 -0.1890  0.0778  0.0444
10508W        W53446  21.340   4.828   9.702  0.0516 -0.0268  0.2041
10509W        W53447  19.964   6.836   9.262  0.0468  0.0788 -0.2266
10510W        W53448  18.636   5.768   9.150  0.2410 -0.0473  0.3587
10511W        W53449  19.651   5.382   7.000 -0.0200 -0.2252 -0.0433
10512W        W53450  20.523   5.062   9.761 -0.0139 -0.0685  0.1264
10513W        W53451  17.463   7.106   7.601 -0.2607  0.0929  0.0058
10514W        W53452  19.004   3.131   9.355  0.2480 -0.2339 -0.2021
10515W        W53453  19.885   5.156   9.552  0.2425 -0.1493 -0.1072
10516W        W53454  20.703   5.845   7.641 -0.0196  0.2567 -0.2292
10517W        W53455  20.402   5.234   9.323  0.2986  0.1186 -0.1943
10518W        W53456  18.184   5.365   7.770 -0.2262  0.2598  0.5233
10519W        W53457  18.431   3.607   9.464  0.4624  0.1008 -0.0041
10520W        W53458  19.879   9.248  10.008 -0.2241  0.1959 -0.0718
10521W        W53459  19.977   5.934   9.698 -0.5181 -0.2340 -0.1109
10522W        W53460  19.982   5.528   7.986 -0.3168 -0.0654  0.0462
10523W        W53461  19.271   6.131   7.736  0.0464 -0.0535 -0.0082
10524W        W53462  19.373   6.590   7.487  0.1537 -0.0308  0.0257
10525W        W53463  20.125   4.146   9.507 -0.2165 -0.3255  0.0279
10526W        W53464  20.237   7.169   8.433 -0.1568 -0.0492 -0.4034
10527W        W53465  18.169   6.089   8.788  0.1533  0.1297 -0.1681
10528W        W53466  22.295   4.290  10.000 -0.0286 -0.0632  0.0332
10529W        W53467  19.177   5.498   7.875 -0.0366 -0.1267 -0.2505
10530W        W53468  24.980   4.421  10.188 -0.1568 -0.0168  0.2088
10531W        W53469  18.211   6.422   8.362  0.2377  0.0302 -0.0855
10532W        W53470  18.448   4.533   7.436 -0.1342 -0.1073  0.1494
10533W        W53471  18.104   4.027   7.001 -0.0669 -0.3505 -0.1806
10534W        W53472  20.300   5.452   8.419  0.0975  0.0471  0.1159
10535W        W53473  22.110   5.581   9.019  0.0329 -0.2290 -0.1551
10536W        W53474  17.869   5.594   8.667 -0.0644 -0.0103 -0.0337
10537W        W53475  18.778   6.078   9.540  0.0474 -0.1269  0.1310
10538W        W53476  18.626   6.731   9.309  0.1304 -0.3763  0.3421
10539W        W53477  19.847   4.635   8.144 -0.3985 -0.0915 -0.2024
10540W        W53478  18.932   4.621   7.761 -0.3195 -0.0997 -0.0307
10541W        W53479  20.742   5.508   8.881 -0.0728 -0.2121 -0.1142
10542W        W53480  18.159   4.141   8.234  0.1086 -0.0077 -0.0008
10543W        W53481  19.326   6.113   9.027  0.0837  0.1323  0.0008
10544W        W53482  21.738   6.543   9.058  0.2159 -0.2612  0.1270
10545W        W53483  18.246   5.994   7.932  0.0623  0.0786  0.0900
10546W        W53484  18.814   6.876   8.662 -0.2367  0.0312 -0.0120
10547W        W53485  20.052   6.093   8.464  0.0298 -0.0801  0.3136
10548W        W53486  18.142   4.219   8.821  0.1219  0.3558  0.1765
10549W        W53487  21.787   3.046   9.892  0.0602 -0.0973 -0.2038
10550W        W53488  19.867   5.123   8.609  0.0524  0.2226 -0.1108
10551W        W53489  19.754   6.181   9.288  0.0744  0.0141  0.0256
10552W        W53490  20.398   5.832   8.791  0.2679  0.0497  0.2054
10553W        W53491  21.300   2.963  10.029  0.4818  0.2968  0.1341
10554W        W53492  20.474   6.695   9.265  0.0264  0.1166  0.2213
10555W        W53493  18.975   6.327   8.417 -0.1357 -0.3476  0.0965
10556W        W53494  18.463   6.271   9.165  0.1233  0.1762 -0.1817
10557W        W53495  19.009   6.969   7.633 -0.1691  0.0696  0.0518
10558W        W53496  17.076   3.281   9.110  0.1365  0.1711 -0.2067
10559W        W53497  18.174   6.270  10.110 -0.1669 -0.0888 -0.1380
10560W        W53498  18.617   6.469   8.033 -0.3614 -0.1922 -0.0956
10561W        W53499  16.911   7.667   9.657 -0.2952  0.0477  0.1676
10562W        W53500  21.166   4.069   7.804 -0.0178 -0.0472 -0.0319
10563W        W53501  21.005   5.960   8.111 -0.0585  0.2993  0.2617
10564W        W53502  19.344   4.589   8.857 -0.1431 -0.1483  0.0898
10565W        W53503  20.146   5.123   7.743  0.1026  0.2200  0.3123
10566W        W53504  17.296   1.269   9.522  0.1331 -0.3695 -0.1635
10567W        W53505  22.156   7.385   8.351 -0.0024 -0.1520  0.0499
10568W        W53506  18.879   4.679   8.469  0.0020  0.1514 -0.1966
10569W        W53507  18.065   4.513   7.127 -0.0214 -0.0295  0.1530
10570W        W53508  20.898   5.795   9.752 -0.1276  0.0477 -0.4650
10571W        W53509  21.276   6.594   9.215  0.1969  0.0454 -0.1214
10572W        W53510  20.700   5.753   8.423  0.0129 -0.2673  0.1015
10573W        W53511  22.052   5.113   9.336  0.1038 -0.2893 -0.1515
10574W        W53512  19.661   5.623   9.281 -0.1541 -0.0901 -0.1613
10575W        W53513  18.949   5.637   9.513  0.0283 -0.1789 -0.2277
10576W        W53514  18.309   5.736   7.319  0.4129 -0.1182  0.2288
10577W        W53515  20.328   6.640   8.654 -0.1897  0.0611  0.0004
10578W        W53516  21.401   6.172  10.197  0.1761  0.3105  0.1393
10579W        W53517  21.808   4.689   9.428  0.4267  0.2889 -0.1922
10580W        W53518  20.386   7.386   9.895 -0.2770 -0.1149  0.0145
10581W        W53519  21.595   5.811   8.818  0.1969 -0.3124 -0.1695
10582W        W53520  21.897   4.860  10.360  0.0291  0.0115  0.1794
10583W        W53521  20.981   6.276   9.903 -0.1555  0.2031 -0.0907
10584W        W53522  21.014   6.008   8.737 -0.0613  0.2457  0.0133
10585W        W53523  18.184   2.759   8.809  0.0814 -0.3139  0.1636
10586W        W53524  18.916   5.720   7.057 -0.0184 -0.0001 -0.3474
10587W        W53525  20.261   6.953   7.416 -0.0950  0.1759  0.0375
10588W        W53526  19.700   6.550   9.745  0.1304  0.0559 -0.0460
10589W        W53527  22.186   5.121  10.056 -0.0535  0.0309 -0.1650
10590W        W53528  17.098   3.768   9.286  0.0664 -0.0819 -0.0820
10591W        W53529  18.923   4.683   7.238  0.2580  0.0356 -0.1801
10592W        W53530  17.860   5.436   7.318  0.2163  0.1494 -0.3283
10593W        W53531  19.409   5.864   8.105 -0.0688 -0.0796 -0.1554
10594W        W53532  19.628   3.830   7.296  0.3006 -0.0148  0.1360
10595W        W53533  17.868   5.229   8.284  0.2392 -0.0223 -0.1150
10596W        W53534  19.362   3.938  10.235 -0.3658  0.1393 -0.4133
10597W        W53535  18.338   7.883   9.779  0.0904 -0.0828  0.1480
10598W        W53536  20.267   6.428   8.157  0.0991 -0.0250  0.1033
10599W        W53537  17.558   3.869   9.409 -0.2473 -0.1874 -0.0569
10600W        W53538  21.480   3.901  10.415 -0.0732 -0.0718  0.4112
10601W        W53539  20.958   3.972  10.330  0.0196 -0.0554 -0.0357
10602W        W53540  20.524   6.471  10.008  0.0317 -0.0301 -0.1146
10603W        W53541  21.419   6.295   8.751  0.0062  0.2975  0.2516
10604W        W53542  18.878   6.001   8.756  0.0615 -0.0097 -0.0375
10605W        W53543  19.843   5.883   8.869  0.1108  0.0419  0.0340
10606W        W53544  19.826   4.064   8.089  0.2186 -0.0160  0.0208
10607W        W53545  20.606   7.193   7.064  0.1731 -0.0543 -0.4122
10608W        W53546  18.422   5.611   8.721 -0.0281  0.1286  0.0944
10609W        W53547  17.776   7.332   9.281 -0.2097 -0.0032  0.2565
10610W        W53548  21.495   7.493   9.134  0.2034  0.1363  0.1630
10611W        W53549  21.237   5.673   8.475  0.4478  0.3026 -0.2113
10612W        W53550  20.179   7.734   9.533 -0.0246  0.1343  0.2953
10613W        W53551  19.220   5.026   7.726 -0.1780  0.1763 -0.0028
10614W        W53552  18.578   6.487   8.717 -0.0430 -0.0163  0.2537
10615W        W53553  18.913   6.448   7.646 -0.1506 -0.0926 -0.1953
10616W        W53554  20.665   7.425   8.054 -0.0435  0.0173 -0.1723
10617W        W53555  18.260   7.062   9.152 -0.1770 -0.2440 -0.3546
10618W        W53556  20.351   4.604   7.795  0.1243 -0.1545  0.1136
10619W        W53557  20.646   5.432  10.153 -0.2170  0.3841 -0.0808
10620W        W53558  22.240   6.040   7.993  0.0447 -0.0292  0.2132
10621W        W53559  19.291   5.269   9.376 -0.2363  0.3541  0.0158
10622W        W53560  20.143   5.283   7.102 -0.0975  0.2195 -0.0863
10623W        W53561  21.430   6.580   8.229  0.1350 -0.0935 -0.1676
10624W        W53562  18.388   3.587   7.757  0.0624  0.0892  0.0573
10625W        W53563  18.906   4.804   9.057 -0.0156  0.1334  0.1636
10626W        W53564  22.585   3.711  10.200 -0.0869  0.0089  0.1974
10627W        W53565  21.148   5.774   7.139 -0.1074 -0.1308 -0.5433
10628W        W53566  19.554   4.753   9.837  0.0076  0.0966 -0.2730
10629W        W53567  18.303   6.429   9.606  0.2435  0.1386  0.2172
10630W        W53568  18.743   6.408   9.948  0.2933  0.0360  0.4798
10631W        W53569  17.853   5.654  10.007  0.1529  0.1656  0.1032
10632W        W53570  17.694   4.315   8.088  0.1989 -0.1525  0.0245
10633W        W53571  21.816   6.547   8.579 -0.1801 -0.1657 -0.0357
10634W        W53572  20.194   3.948  12.268  0.4004  0.1313 -0.0212
10635W        W53573  18.975   4.267   8.922  0.4828 -0.1432  0.1091
10636W        W53574  20.305   3.825   9.166  0.1065 -0.0647  0.0067
10637W        W53575  19.708   4.291   9.854 -0.3864  0.1183  0.3208
10638W        W53576  19.089   2.655   9.010 -0.2242  0.4646  0.1245
10639W        W53577  20.590   6.559   7.358 -0.3094  0.1183 -0.0054
10640W        W53578  19.242   5.398   7.336 -0.2780  0.2016 -0.3074
10641W        W53579  20.314   3.325   9.261 -0.0040  0.1180 -0.1210
10642W        W53580  20.534   5.355   7.969 -0.0594 -0.0501 -0.2266
10643W        W53581  18.633   5.184   8.613 -0.0101 -0.1273  0.1651
10644W        W53582  19.406   3.981   9.059 -0.0591  0.0500 -0.0218
10645W        W53583  20.730   4.402   7.987  0.3784 -0.1377 -0.0817
10646W        W53584  22.510   5.238   7.077 -0.1228  0.1724  0.3447
10647W        W53585  21.173   5.755   9.117  0.3117  0.0600 -0.0688
10648W        W53586  19.907   6.611   7.753 -0.0085  0.2442  0.2607
10649W        W53587  21.250   6.745  10.023  0.0416  0.3712  0.3645
10650W        W53588  21.186   7.591   9.496  0.3936  0.2143 -0.2361
10651W        W53589  17.854   3.391   8.647 -0.3064 -0.0979  0.1125
10652W        W53590  21.363   8.282  10.138  0.2548  0.1614 -0.0874
10653W        W53591  23.745   6.920   9.394 -0.2307 -0.0241  0.2375
10654W        W53592  20.188   3.740   8.663 -0.1460 -0.0562 -0.1896
10655W        W53593  18.538   4.937   7.721  0.0173  0.0372 -0.0122
10656W        W53594  18.628   8.336   8.818 -0.7631  0.3956  0.2564
10657W        W53595  21.778   5.074   9.785  0.2447 -0.0159  0.1769
10658W        W53596  19.443   7.360   7.720 -0.3702 -0.0800 -0.0729
10659W        W53597  17.039   6.557   9.902  0.0775 -0.0356 -0.2557
10660W        W53598  17.693   4.955   8.686 -0.0327  0.0666  0.0165
10661W        W53599  20.311   6.300   8.988 -0.1410  0.3125 -0.0596
10662W        W53600  18.986   6.885   8.165  0.0388 -0.1863 -0.3199
10663W        W53601  23.196   7.340   9.841  0.2123  0.2023  0.1210
10664W        W53602  19.512   5.280   8.938 -0.2454  0.0813  0.0224
10665W        W53603  22.358   7.132   9.466  0.0462 -0.1338  0.0860
10666W        W53604  22.078   3.975  10.428  0.0292  0.2958  0.3098
10667W        W53605  24.097   5.002   9.365 -0.1620 -0.1153  0.1731
10668W        W53606  20.778   5.236   8.428 -0.2082  0.0560 -0.0222
10669W        W53607  20.161   5.917   9.274  0.0884 -0.1354 -0.1467
10670W        W53608  18.147   4.620   8.455 -0.1957  0.1732 -0.0248
10671W        W53609  19.137   6.209   7.247  0.2575  0.0527 -0.0815
10672W        W53610  18.944   5.360   8.963  0.0696 -0.1542  0.2052
10673W        W53611  17.751   3.311   9.609 -0.0160  0.1782  0.0290
10674W        W53612  18.455   3.920   9.067 -0.0029  0.2236  0.0063
10675W        W53613  21.153   6.672   7.440  0.0165 -0.0095 -0.0873
10676W        W53614  19.385   1.805   9.102  0.0246  0.1055 -0.1747
10677W        W53615  17.992   3.884   7.837 -0.0016  0.2316  0.0231
10678W        W53616  22.851   4.416   9.983  0.1453  0.1178  0.0661
10679W        W53617  20.678   5.728   9.309  0.2277  0.2378  0.3024
10680W        W53618  20.084   5.473   8.945  0.1600  0.0916 -0.0787
10681W        W53619  18.209   7.041   6.785  0.0586  0.0744  0.2032
10682W        W53620  19.355   3.441   7.084 -0.2643 -0.5096  0.2418
10683W        W53621  19.238   4.721   9.452 -0.2812 -0.0708  0.0058
10684W        W53622  20.580   6.231   8.544 -0.0136  0.4701 -0.1318
10685W        W53623  21.131   8.140   8.424  0.1010  0.1148  0.0859
10686W        W53624  17.751   6.672   8.397 -0.1549 -0.0316 -0.2777
10687W        W53625  21.960   6.039   9.106  0.2722  0.0059  0.0337
10688W        W53626  21.224   5.325   8.805  0.1253 -0.0456  0.1861
10689W        W53627  22.303   4.627   9.408  0.0689  0.0203 -0.0281
10690W        W53628  21.688   5.390   8.557 -0.1027 -0.1508 -0.0381
10691W        W53629  20.352   6.035  10.075  0.0380  0.0061 -0.1922
10692W        W53630  19.777   2.593   8.490 -0.0478  0.0786  0.1081
10693W        W53631  20.397   4.333   9.927 -0.1585  0.0019 -0.0885
10694W        W53632  20.849   7.907   6.345 -0.1808  0.1068  0.1462
10695W        W53633  18.876   4.080  10.097  0.0863 -0.0649 -0.1235
10696W        W53634  18.693   5.255   7.313 -0.0166 -0.0233  0.2096
10697W        W53635  17.839   6.104   9.621 -0.0644  0.1824 -0.0869
10698W        W53636  20.336   5.892   8.106  0.1232  0.2093 -0.0948
10699W        W53637  21.239   6.272   7.808 -0.0599 -0.1676  0.0910
10700W        W53638  21.633   8.632   9.890 -0.1551  0.3083 -0.0978
10701W        W53639  20.808   6.429   9.007 -0.1133 -0.3663  0.1155
10702W        W53640  22.306   5.837   9.922  0.1845 -0.1044 -0.0831
10703W        W53641  18.625   4.076   9.648 -0.2413  0.2611 -0.0602
10704W        W53642  19.609   5.208   8.042  0.1167 -0.1939 -0.0638
10705W        W53643  19.907   6.126   8.008 -0.1472  0.2507 -0.1598
10706W        W53644  20.995   5.298   9.811 -0.2279 -0.1748 -0.0914
10707W        W53645  19.788   3.262   8.718  0.0224 -0.2177 -0.1298
10708W        W53646  20.285   4.318   8.284  0.0343 -0.0632 -0.0563
10709W        W53647  21.617   8.740  10.351 -0.2862 -0.1773  0.0062
10710W        W53648  19.827   6.648   8.747  0.0378 -0.2487  0.1457
10711W        W53649  17.646  11.290   2.075  0.2661 -0.3979  0.2594
10712W        W53650  19.644   8.739   0.912  0.0324 -0.1016 -0.3086
10713W        W53651  21.099   9.391   0.611  0.0306  0.0240 -0.0337
10714W        W53652  21.311   9.077   2.007  0.1770  0.2785  0.2443
10715W        W53653  17.303   8.085   2.110 -0.0531  0.0452  0.0072
10716W        W53654  20.332  10.000   2.498  0.1148 -0.0052 -0.2893
10717W        W53655  18.833   7.287   2.480  0.2512 -0.0992  0.0114
10718W        W53656  19.502   8.786   1.681 -0.2972  0.0772  0.1325
10719W        W53657  20.329   9.946   3.437 -0.2175 -0.1898  0.0368
10720W        W53658  20.050  10.447  31.216 -0.2960  0.1111 -0.1250
10721W        W53659  18.006   9.143   3.993  0.0873  0.0675  0.1157
10722W        W53660  18.673  10.055   1.912 -0.1169 -0.1101  0.2617
10723W        W53661  17.856   7.577   1.173 -0.2502 -0.1394 -0.1052
10724W        W53662  17.601   6.432   1.470 -0.2765  0.1420  0.2044
10725W        W53663  21.355   7.591   1.968 -0.2680 -0.1377  0.0631
10726W        W53664  18.684   7.735   0.846  0.0141 -0.0367  0.0628
10727W        W53665  18.667   8.726   3.762  0.0479 -0.0670 -0.2163
10728W        W53666  19.153   9.090  31.394 -0.0207 -0.0446 -0.1667
10729W        W53667  19.577  10.038   1.344 -0.0597 -0.2667  0.1885
10730W        W53668  20.803   7.065   3.262  0.3233  0.0285 -0.2315
10731W        W53669  21.193   7.806   2.428  0.1216  0.1442  0.0258
10732W        W53670  21.429  10.930   0.239  0.0439  0.0138  0.1106
10733W        W53671  18.367   9.565   0.331  0.1459  0.1471  0.0713
10734W        W53672  19.014   8.133   1.119 -0.0733  0.2215  0.3079
10735W        W53673  17.727   9.293   2.811 -0.1887 -0.0044  0.4041
10736W        W53674  20.567   7.746   2.736  0.0521 -0.2079  0.4543
10737W        W53675  20.906   9.521   1.863 -0.0380 -0.0072  0.3224
10738W        W53676  18.978  11.288   1.226  0.0076  0.0013  0.2334
10739W        W53677  20.000   9.326   3.060  0.1415  0.1019  0.2241
10740W        W53678  20.986   8.364   3.805  0.2922 -0.2012  0.0530
10741W        W53679  19.474   8.270   1.081  0.2051 -0.3068 -0.1032
10742W        W53680  19.654  11.921  31.410  0.0251 -0.1823  0.0530
10743W        W53681  18.776  10.133   0.885 -0.0723 -0.0137  0.0081
10744W        W53682  22.212   7.908   4.614  0.0010 -0.2045 -0.0068
10745W        W53683  19.594   9.853   2.750 -0.2425 -0.2074 -0.1481
10746W        W53684  20.268  10.247   3.055 -0.0889 -0.0633 -0.3490
10747W        W53685  19.555  10.032  30.143 -0.0787  0.0042 -0.1341
10748W        W53686  18.310   9.255   1.733 -0.1099 -0.1495  0.1347
10749W        W53687  18.634  11.350   3.240  0.0105 -0.1849 -0.0646
10750W        W53688  18.848   9.208   2.042  0.1697 -0.2522 -0.0577
10751W        W53689  20.575   8.602   1.883 -0.2375  0.1158  0.0145
10752W        W53690  20.222  10.959   0.225 -0.2267  0.1142  0.2175
10753W        W53691  19.651   9.307   0.788  0.0461  0.0731  0.1865
10754W        W53692  19.740  10.222   3.025  0.0958 -0.0547 -0.1798
10755W        W53693  17.683  10.271   0.362 -0.0645 -0.1377  0.1117
10756W        W53694  21.296   8.472   3.139  0.1289 -0.1221 -0.0301
10757W        W53695  19.403  10.222  31.356 -0.1578  0.0290 -0.0918
10758W        W53696  21.763   9.627  31.736 -0.0431 -0.1049  0.3701
10759W        W53697  20.861   9.899  31.545 -0.1230  0.2235 -0.1095
10760W        W53698  20.524   9.285   1.063 -0.2652  0.1887 -0.0149
10761W        W53699  18.270   6.047   0.884 -0.0009  0.1326  0.0150
10762W        W53700  17.065   9.205   1.037  0.3450  0.2525  0.3262
10763W        W53701  20.850   8.285   2.439  0.1749  0.0992 -0.1124
10764W        W53702  21.815  10.132   2.792 -0.2531  0.0654  0.1166
10765W        W53703  19.278   8.223   1.584 -0.3052 -0.0953  0.1280
10766W        W53704  19.305   8.913   2.672 -0.1733 -0.2040 -0.2872
10767W        W53705  18.234   9.940   1.717  0.1722 -0.3057 -0.0508
10768W        W53706  19.333   7.317   2.028  0.0086 -0.3233 -0.0374
10769W        W53707  21.408   9.970  31.545  0.2349 -0.0148  0.1806
10770W        W53708  20.425  11.043   1.190 -0.0286  0.0223  0.1561
10771W        W53709  20.198  10.648  31.786 -0.0134 -0.0938 -0.0666
10772W        W53710  18.580   8.292   0.898  0.1646 -0.1130 -0.1462
10773W        W53711  18.883   8.498   2.844  0.0041  0.0316 -0.3210
10774W        W53712  18.337   8.855   3.133  0.1062  0.3044 -0.1188
10775W        W53713  21.500   5.515  30.762  0.0630  0.1315 -0.3163
10776W        W53714  20.925  11.227   2.308  0.0164  0.0077 -0.0457
10777W        W53715  17.110  10.316   2.265 -0.0689 -0.3227 -0.0356
10778W        W53716  22.100   8.745  31.305 -0.2881 -0.1117 -0.2619
10779W        W53717  19.772   8.372   1.470 -0.1788  0.1391 -0.0799
10780W        W53718  19.697   9.679   3.825 -0.1119 -0.0483 -0.1379
10781W        W53719  20.479   9.477   1.512  0.1301  0.0505  0.1296
10782W        W53720  19.731   7.168   1.219 -0.0996  0.0099  0.1742
10783W        W53721  22.201   7.730   4.038  0.2419 -0.0171  0.1462
10784W        W53722  19.104   8.985   0.044  0.1582  0.2606 -0.0103
10785W        W53723  18.795   8.773   0.968  0.0671 -0.1303  0.1539
10786W        W53724  21.167  10.709   3.235 -0.1283  0.0873 -0.0444
10787W        W53725  21.034   9.050  31.756 -0.0272  0.3464 -0.0947
10788W        W53726  17.880  11.059   1.342  0.0139  0.2097 -0.1721
10789W        W53727  19.423   7.534   3.198 -0.0382 -0.2521  0.1489
10790W        W53728  19.358  10.359   2.699  0.1152 -0.2253  0.1033
10791W        W53729  18.010  11.485  30.978 -0.1280 -0.1763  0.1340
10792W        W53730  18.190   9.390   2.254 -0.3539 -0.1228  0.4882
10793W        W53731  17.199   8.368  31.683  0.0030  0.0319 -0.1476
10794W        W53732  17.691   7.762   3.470 -0.0142 -0.0838  0.2680
10795W        W53733  17.437   9.559   1.301  0.3965  0.0533  0.1151
10796W        W53734  20.996   7.685   0.327 -0.0699 -0.1141  0.1734
10797W        W53735  18.902   8.162   2.483  0.2736 -0.0505  0.1204
10798W        W53736  21.521   6.965   1.345  0.1362 -0.0079  0.2055
10799W        W53737  19.065  10.178   0.364  0.0393  0.0688 -0.3744
10800W        W53738  22.194  10.989   1.458 -0.1290  0.0526  0.1459
10801W        W53739  21.285   9.447   0.066 -0.2002  0.2838 -0.0978
10802W        W53740  21.834  10.144  31.803  0.1938  0.1489  0.0499
10803W        W53741  17.750   8.855   0.901  0.0312 -0.2591 -0.0642
10804W        W53742  19.689   7.470   2.830 -0.0215  0.1849 -0.1118
10805W        W53743  20.140   6.752   3.769  0.1192 -0.2346  0.0155
10806W        W53744  20.529   7.953   3.223  0.1830 -0.2114  0.1406
10807W        W53745  20.931   7.192   2.734  0.3864 -0.1081  0.2177
10808W        W53746  17.987   7.854  31.797 -0.0240 -0.1016 -0.0015
10809W        W53747  21.460   9.029   1.508  0.0868 -0.1857 -0.3176
10810W        W53748  18.703   9.649   1.051  0.0088 -0.1719 -0.1401
10811W        W53749  17.419   9.484   1.804  0.1494  0.0730  0.1489
10812W        W53750  21.803   8.571   2.852 -0.0535  0.3349  0.2211
10813W        W53751  20.584   9.906   0.417 -0.2362 -0.0801 -0.0452
10814W        W53752  22.142  10.687   3.101  0.2345 -0.2837  0.3115
10815W        W53753  19.732  10.525   1.491  0.2603 -0.0600  0.0303
10816W        W53754  19.601   7.997   3.263  0.0021  0.0602  0.2905
10817W        W53755  18.779   7.554  30.816  0.2857  0.1077  0.0567
10818W        W53756  17.471  11.523   0.236 -0.1022 -0.0538  0.1794
10819W        W53757  19.063   9.196   1.112  0.1110 -0.1488  0.0847
10820W        W53758  18.123   7.446   0.737  0.0471  0.0106  0.1000
10821W        W53759  21.703  10.695   2.865  0.2690 -0.2106  0.0972
10822W        W53760  19.593  10.326   0.485  0.0137 -0.1245  0.1069
10823W        W53761  18.012  10.582   2.427  0.1999 -0.2507 -0.0217
10824W        W53762  21.232   7.283   3.290  0.0820 -0.1371  0.1826
10825W        W53763  21.002   8.037   3.408  0.2223 -0.1865 -0.0289
10826W        W53764  19.391   9.396  31.809  0.1475 -0.3814  0.0665
10827W        W53765  21.701   6.847  31.943  0.1721  0.3015  0.0641
10828W        W53766  19.618  11.280   1.132 -0.0659  0.0827  0.0311
10829W        W53767  18.439   9.198   1.139  0.0632  0.0746  0.0223
10830W        W53768  18.456   8.954   2.322  0.2498  0.1494  0.3637
10831W        W53769  20.937   9.515   1.319  0.2787 -0.1704 -0.3427
10832W        W53770  20.473   7.395   2.316  0.0647 -0.0424 -0.2881
10833W        W53771  17.152  10.375   1.667 -0.1291 -0.2214  0.1547
10834W        W53772  21.261   9.084   4.008 -0.0257 -0.0166  0.1612
10835W        W53773  19.221   8.745   1.258  0.2407 -0.0539  0.0504
10836W        W53774  17.489  11.424   2.541  0.2910  0.2101 -0.2019
10837W        W53775  20.997   7.866   1.047 -0.0127 -0.0218 -0.1330
10838W        W53776  20.192   8.780   0.760  0.0155  0.0333  0.0109
10839W        W53777  20.315  11.262   3.360  0.1700  0.0282  0.0529
10840W        W53778  22.255  11.220  31.752 -0.1511  0.0692  0.0215
10841W        W53779  20.760   9.458  31.770  0.1409 -0.0788  0.0413
10842W        W53780  20.906   8.650   1.415  0.2189 -0.2972  0.1184
10843W        W53781  17.300   9.811   4.069  0.3432  0.2227 -0.1306
10844W        W53782  19.745   9.187   1.879 -0.2675 -0.0427 -0.2167
10845W        W53783  18.198   8.396   2.194  0.0957 -0.0730  0.0847
10846W        W53784  19.794   8.515  31.908  0.0641  0.1434 -0.2655
10847W        W53785  23.570  10.446   1.720  0.0110  0.2659  0.1313
10848W        W53786  19.158   9.597   2.979  0.0901 -0.1937  0.0474
10849W        W53787  19.260  10.707   3.080  0.0395 -0.1140 -0.1505
10850W        W53788  20.200  10.511   2.521 -0.0480  0.2210 -0.0122
10851W        W53789  19.991   8.384   3.860 -0.2044 -0.0495  0.2257
10852W        W53790  20.054   8.728   1.257 -0.2439  0.1563  0.1351
10853W        W53791  20.743   8.248   1.231 -0.0390  0.0981  0.1955
10854W        W53792  18.713   9.945  31.008  0.0404 -0.0148 -0.1928
10855W        W53793  20.778   6.695   2.886 -0.0442  0.1114 -0.2897
10856W        W53794  20.242   6.991   2.080 -0.2661 -0.1640 -0.1148
10857W        W53795  19.227   8.214   2.994 -0.1229 -0.0043 -0.0511
10858W        W53796  22.543   9.958   2.931  0.1618 -0.0256  0.0714
10859W        W53797  21.575   9.862   0.229 -0.0140  0.0842 -0.0293
10860W        W53798  20.438   9.532   2.743 -0.3365 -0.2254 -0.0898
10861W        W53799  17.297   7.431   1.172 -0.0489  0.3294  0.0948
10862W        W53800  20.747   7.634   1.782 -0.0724  0.0487 -0.0086
10863W        W53801  18.858   8.277   3.723  0.0529 -0.1858 -0.1439
10864W        W53802  17.782   9.829   1.551  0.4460  0.0284  0.1686
10865W        W53803  21.088   9.199   3.394  0.1115 -0.1221 -0.2933
10866W        W53804  20.427   9.984   1.784  0.4763 -0.0353 -0.0962
10867W        W53805  19.791   8.821   3.743 -0.1809  0.1047 -0.1213
10868W        W53806  20.724   8.579   0.330 -0.1808  0.3434  0.2482
10869W        W53807  19.171  11.104  31.925 -0.2136 -0.2062  0.2049
10870W        W53808  20.275  10.919  31.154  0.3633  0.0463 -0.1022
10871W        W53809  21.043   9.051   1.137 -0.1497  0.1774 -0.2129
10872W        W53810  18.807   9.351   2.570 -0.2404  0.2114  0.1291
10873W        W53811  19.125   8.957   0.551  0.0155  0.1123 -0.1681
10874W        W53812  20.040   7.947   1.397  0.2663 -0.0006 -0.2193
10875W        W53813  18.700  10.848  31.765 -0.2256  0.0566  0.1981
10876W        W53814  22.266   6.696   2.028  0.4405  0.3747 -0.5191
10877W        W53815  18.673  10.019   1.395 -0.0057  0.2548  0.0637
10878W        W53816  20.362   8.259   0.458 -0.0807  0.0123  0.1644
10879W        W53817  17.934   9.302   1.116  0.0633  0.1432 -0.0970
10880W        W53818  21.004   6.798   1.546 -0.4011  0.3175  0.1569
10881W        W53819  21.421   9.347   1.083 -0.0079  0.0730 -0.1212
10882W        W53820  18.305   7.773   3.089 -0.0620 -0.1190 -0.1985
10883W        W53821  20.746   9.176   2.514  0.2031  0.4875  0.0744
10884W        W53822  18.934  10.436   1.712  0.4084  0.0927  0.1338
10885W        W53823  18.867   8.969   2.873 -0.0153  0.1508 -0.1625
10886W        W53824  20.369   9.633   0.124 -0.1529 -0.0202  0.2640
10887W        W53825  19.263   9.285   1.782  0.2398 -0.0660 -0.1444
10888W        W53826  18.581  10.101   3.325 -0.1682 -0.1442  0.2170
10889W        W53827  18.831   7.328   0.592  0.1761  0.0893  0.0747
10890W        W53828  22.176   8.638   3.266  0.1605  0.1769 -0.2453
10891W        W53829  19.354   7.644   0.686 -0.2783 -0.0031 -0.0025
10892W        W53830  17.763   9.777   0.996 -0.1884  0.2987 -0.1467
10893W        W53831  19.034   9.694   2.032  0.2200 -0.1581  0.0882
10894W        W53832  18.279   9.577   0.821 -0.0807  0.1505 -0.2965
10895W        W53833  18.158  10.692   1.204  0.0150  0.1029  0.1691
10896W        W53834  18.919   7.624   2.144 -0.0033  0.1387 -0.1671
10897W        W53835  22.108   8.789   4.201  0.0899  0.0727  0.1496
10898W        W53836  21.268   8.980   2.977 -0.3232 -0.3047 -0.1524
10899W        W53837  18.350   6.506   0.221 -0.1157 -0.0768 -0.3614
10900W        W53838  20.598   8.109   1.838 -0.2590  0.1641 -0.3327
10901W        W53839  19.862   8.204   2.388 -0.1249  0.1667 -0.0384
10902W        W53840  20.069   7.920   2.972 -0.3423 -0.0734  0.1498
10903W        W53841  18.989  10.819   3.732 -0.1833 -0.0047  0.3248
10904W        W53842  20.159   7.431   2.687  0.0017  0.0964 -0.0795
10905W        W53843  22.126  10.473   1.508 -0.3179 -0.1771  0.3144
10906W        W53844  19.425   8.894   2.192  0.3378 -0.0283  0.4246
10907W        W53845  18.616   9.060   0.578  0.1599 -0.1122  0.0495
10908W        W53846  18.406   8.221   1.731 -0.3285  0.3008 -0.0716
10909W        W53847  18.875   8.472   1.535  0.1586 -0.1848  0.0589
10910W        W53848  19.514   7.936   2.688  0.0934 -0.1560 -0.2129
10911W        W53849  18.334  11.848   1.674  0.1741  0.1297 -0.2739
10912W        W53850  19.879   9.696  31.935  0.1772 -0.3346  0.0647
10913W        W53851  18.272   9.585   1.372 -0.1035 -0.1223 -0.2546
10914W        W53852  20.481  10.102  31.961  0.0612  0.0144 -0.0633
10915W        W53853  20.457  10.066   0.917  0.3245  0.0488 -0.2179
10916W        W53854  21.623   8.776   1.082 -0.3249  0.0924  0.0128
10917W        W53855  22.723   8.022   2.913  0.1919  0.1003 -0.0288
10918W        W53856  21.065   9.863   0.453  0.3009  0.3076 -0.0545
10919W        W53857  21.895   7.594   2.574 -0.0586  0.1143  0.2336
10920W        W53858  19.956   7.056   2.891  0.0996 -0.2068  0.2216
10921W        W53859  20.203   9.683   2.165 -0.0106  0.0776 -0.0171
10922W        W53860  17.517   8.472   1.201  0.0516 -0.3088  0.1835
10923W        W53861  20.035   9.849   2.940  0.0134  0.1040 -0.2701
10924W        W53862  17.586   9.926   3.529 -0.0020  0.3462  0.2426
10925W        W53863  20.059   9.256   1.206 -0.3600 -0.1508 -0.0687
10926W        W53864  18.443   7.392   0.282  0.3457  0.0874  0.0196
10927W        W53865  20.180   9.838   1.237 -0.0274 -0.1164  0.3762
10928W        W53866  21.335   8.623   2.630 -0.0462 -0.1270  0.0172
10929W        W53867  19.135  10.537   0.684  0.1243  0.1192  0.2448
10930W        W53868  22.151   9.052   2.334 -0.2553  0.0499 -0.0087
10931W        W53869  18.495   8.818   1.469 -0.3832 -0.0661  0.2572
10932W        W53870  19.599   9.068   1.258 -0.2755 -0.1335 -0.3386
10933W        W53871  19.434   9.253   0.274  0.3863  0.1938 -0.0613
10934W        W53872  17.921   8.750   1.418 -0.1775  0.0252  0.0206
10935W        W53873  19.759   7.600   2.192 -0.2033 -0.3169 -0.2024
10936W        W53874  20.946   9.432   2.888 -0.0097  0.3722  0.1182
10937W        W53875  22.179   7.588   0.886  0.0802 -0.2533  0.2319
10938W        W53876  20.736   9.652   3.474 -0.0802 -0.0367 -0.0816
10939W        W53877  20.200   6.616   2.445 -0.0922 -0.3208  0.0671
10940W        W53878  19.305   8.107   4.617  0.1976 -0.0055  0.1797
10941W        W53879  18.902   8.031   3.356  0.2827  0.0477  0.1726
10942W        W53880  22.591  12.040   2.562  0.0712  0.1785 -0.0985
10943W        W53881  22.657   9.897  30.920  0.1140  0.2784 -0.0206
10944W        W53882  21.104   6.828   2.099 -0.1070  0.2180 -0.0109
10945W        W53883  21.856   9.046   1.893  0.1202 -0.4866  0.2640
10946W        W53884  21.695   8.787   2.287 -0.2787  0.1324  0.1976
10947W        W53885  18.998   8.897   1.700 -0.0406  0.2063  0.1206
10948W        W53886  20.512   9.236   3.764 -0.1315 -0.0593  0.1465
10949W        W53887  19.669   7.274  31.045  0.1026  0.4745  0.2014
10950W        W53888  21.130   7.216   3.808  0.2735  0.2836 -0.5603
10951W        W53889  21.002  10.837   1.164  0.0851 -0.3744  0.1055
10952W        W53890  20.229   9.150   2.468 -0.1177 -0.1706 -0.2385
10953W        W53891  22.280   9.769  31.665 -0.1651 -0.4880  0.1909
10954W        W53892  17.432   9.542   3.184  0.2510  0.2336  0.0978
10955W        W53893  18.985  10.430   3.389 -0.5059  0.0390 -0.0963
10956W        W53894  18.955   7.634   0.194  0.2503 -0.0462  0.1039
10957W        W53895  19.637   8.411   1.984  0.2462 -0.3438 -0.0592
10958W        W53896  20.048   8.755   2.023 -0.2577  0.0046  0.1360
10959W        W53897  21.655  10.094   3.631 -0.0622 -0.0833  0.1186
10960W        W53898  20.924   7.192   0.137 -0.0771 -0.2595 -0.0391
10961W        W53899  21.921   7.349   4.284 -0.1815  0.3458  0.1552
10962W        W53900  16.961  10.794  31.626 -0.2805 -0.1780 -0.1952
10963W        W53901  20.660   7.102   1.872 -0.0688 -0.2255  0.1567
10964W        W53902  16.776  10.203   1.920  0.0304 -0.2341 -0.2159
10965W        W53903  18.530  10.694   2.608  0.2770  0.1231  0.0229
10966W        W53904  18.449  11.058   0.870 -0.0609  0.0850  0.2738
10967W        W53905  19.717   6.480   2.519  0.0996 -0.0171 -0.2151
10968W        W53906  20.357   8.248   2.371 -0.1536  0.2911  0.2634
10969W        W53907  20.523   8.841   1.210 -0.0572  0.0549 -0.3863
10970W        W53908  21.916   9.646   2.944  0.0304 -0.0141 -0.2697
10971W        W53909  19.525   9.668   1.882  0.0186  0.1476 -0.0086
10972W        W53910  18.769   9.324   1.504  0.0319 -0.0043  0.0118
10973W        W53911  19.752  10.807   3.224  0.1304  0.1212 -0.0072
10974W        W53912  22.217   8.286   2.872  0.1784  0.1981  0.0147
10975W        W53913  19.745   9.462   2.282  0.1064 -0.2238 -0.1027
10976W        W53914  17.803   9.013   3.353  0.0341  0.0928 -0.1212
10977W        W53915  19.878   8.712   3.263  0.0357  0.0279  0.1217
10978W        W53916  21.258   9.199   2.517 -0.1971  0.1540  0.1766
10979W        W53917  20.755   6.765   0.204 -0.0442  0.0650 -0.2979
10980W        W53918  20.674  11.270   1.820 -0.1094  0.1392 -0.1339
10981W        W53919  16.943   9.464   3.785 -0.0208  0.1074 -0.0008
10982W        W53920  18.725   9.866   2.896 -0.2106  0.1387 -0.4961
10983W        W53921  19.159  11.861   0.679 -0.0453  0.1007 -0.2583
10984W        W53922  20.545  10.425   1.564 -0.0261  0.2076 -0.0382
10985W        W53923  19.080  10.063  31.703  0.1474 -0.0882 -0.2072
10986W        W53924  21.326  11.927   3.099 -0.0887 -0.3540  0.1129
10987W        W53925  20.497   6.974   0.966 -0.0436  0.2493 -0.0227
10988W        W53926  18.955   8.722   2.405  0.0711 -0.1924 -0.1642
10989W        W53927  18.954  10.696  30.594  0.0833 -0.2496  0.2791
10990W        W53928  22.853  11.160   1.376 -0.2540 -0.0651 -0.0671
10991W        W53929  19.061  10.647  31.495  0.0422 -0.1539 -0.2799
10992W        W53930  20.751  10.833   1.591 -0.0877  0.0434 -0.1101
10993W        W53931  22.074   8.932   0.221 -0.1439 -0.1437 -0.1292
10994W        W53932  20.770   8.862   2.886  0.1400 -0.1600 -0.1607
10995W        W53933  21.371   6.757   0.431  0.0687 -0.1489 -0.1898
10996W        W53934  20.561  10.757   3.577  0.3497 -0.0894 -0.2775
10997W        W53935  18.542   9.770   2.374  0.2625  0.0562  0.1746
10998W        W53936  19.419   8.623   0.305 -0.2170 -0.1605  0.0426
10999W        W53937  19.339   7.909   2.211  0.0581  0.0350 -0.0938
11000W        W53938  21.760   8.351   3.258  0.0999  0.0755 -0.0282
11001W        W53939  17.725  11.766   2.205 -0.0257 -0.2096 -0.0606
11002W        W53940  21.784  12.599   1.566 -0.1148  0.1088  0.3394
11003W        W53941  19.958   7.963   0.541  0.1015  0.0238  0.2014
11004W        W53942  18.267   6.914   0.477  0.0615  0.3532 -0.1953
11005W        W53943  21.926   7.760   1.302  0.4129  0.1342  0.0647
11006W        W53944  20.492  10.498   0.433 -0.0283 -0.1497 -0.3109
11007W        W53945  20.102   8.230   1.951 -0.3635 -0.3044 -0.0382
11008W        W53946  18.572   9.984   0.492  0.3962 -0.0626  0.0395
11009W        W53947  18.245  10.011   1.052  0.0943  0.2478 -0.2916
11010W        W53948  18.847  10.776   2.095 -0.1117 -0.0107 -0.2173
11011W        W53949  17.924   7.248   0.270 -0.0124  0.0134  0.2237
11012W        W53950  22.151   9.534  30.796 -0.1590 -0.0969  0.0688
11013W        W53951  18.872   7.979   1.765  0.0279 -0.3624  0.0549
11014W        W53952  21.204   7.445   4.931 -0.3140  0.0077 -0.1397
11015W        W53953  19.368   8.406   2.396 -0.2567  0.2916 -0.1650
11016W        W53954  22.367   7.667   2.239  0.0068  0.2068  0.2482
11017W        W53955  19.243   9.979   1.674  0.0633  0.2624  0.2524
11018W        W53956  19.087   7.565   1.657 -0.2366 -0.0514  0.2966
11019W        W53957  19.065   9.265  30.386 -0.1090  0.0371 -0.2378
11020W        W53958  21.664   8.879   3.232 -0.2100 -0.3405  0.3238
11021W        W53959  20.036  10.133  31.701  0.0757 -0.1877  0.1951
11022W        W53960  20.525  10.723   5.077  0.2080  0.1874  0.1959
11023W        W53961  18.033   8.439   3.029 -0.3150  0.1193 -0.4657
11024W        W53962  21.099   7.406   0.851  0.0637 -0.2414 -0.1289
11025W        W53963  19.589  10.549   0.986  0.1472 -0.0074 -0.1628
11026W        W53964  19.620   9.251   3.489  0.1128  0.0200 -0.2108
11027W        W53965  18.283  10.542   3.200 -0.1935 -0.1244  0.0450
11028W        W53966  17.592   6.740   0.507  0.0789 -0.0757  0.0204
11029W        W53967  21.467  10.439  31.855 -0.1543  0.2093 -0.1773
11030W        W53968  21.841   8.680   1.548  0.1079  0.1104 -0.1442
11031W        W53969  19.953  10.565   0.196  0.0035 -0.2868  0.0490
11032W        W53970  21.532   9.507   1.601 -0.0032  0.0866 -0.0243
11033W        W53971  19.898  10.814   1.985 -0.0580  0.0009  0.3677
11034W        W53972  19.801   7.803   0.964  0.1145  0.3832  0.1180
11035W        W53973  20.100   9.483   3.536 -0.2894 -0.1327 -0.0756
11036W        W53974  19.927   8.733   2.525  0.0116 -0.2614 -0.0313
11037W        W53975  20.226   7.574   0.422  0.0087 -0.0324 -0.1193
11038W        W53976  20.197   7.790   2.349 -0.1828  0.1791 -0.2973
11039W        W53977  17.891  10.907  31.921 -0.0964 -0.1110  0.0803
11040W        W53978  21.230   7.489   1.326  0.2631 -0.0833 -0.0480
11041W        W53979  20.793   8.506   3.266 -0.2196  0.0610 -0.1882
11042W        W53980  19.752  10.903  31.171 -0.4136  0.0908  0.1203
11043W        W53981  21.990   6.892   3.595 -0.2529 -0.0676 -0.1969
11044W        W53982  20.290  10.780   3.062  0.0384  0.3616  0.2060
11045W        W53983  18.697  11.307   3.753  0.3167  0.0496  0.0612
11046W        W53984  17.509   9.072   1.268  0.0613  0.2616 -0.1770
11047W        W53985  18.025   9.545   3.103  0.1980  0.1594 -0.0497
11048W        W53986  19.977  11.337   0.411  0.1124  0.1134  0.1562
11049W        W53987  19.185   9.756   0.050 -0.1254 -0.1833 -0.0534
11050W        W53988  20.181  10.462   1.952 -0.3047 -0.0980 -0.0860
11051W        W53989  21.456   8.294   0.820  0.3174  0.1552 -0.1268
11052W        W53990  21.293   9.678   2.200 -0.0319  0.0474  0.0109
11053W        W53991  20.255   7.475   0.953 -0.1467 -0.1351  0.1634
11054W        W53992  21.494   8.628   1.869  0.0737 -0.0305  0.1747
11055W        W53993  20.522   6.482   1.041 -0.0254 -0.2087 -0.0934
11056W        W53994  19.457   7.791   1.347  0.3685  0.2746 -0.0125
11057W        W53995  18.605   9.839  31.976  0.0407 -0.0879 -0.0064
11058W        W53996  20.645   9.729  30.246  0.1595 -0.0267 -0.1105
11059W        W53997  18.504   9.606   3.524  0.0614 -0.1897 -0.0291
11060W        W53998  20.015   8.027   4.970 -0.1811  0.0010  0.0075
11061W        W53999  20.541   8.349   2.831  0.1389  0.0438 -0.3631
11062W        W54000  18.303   9.241   2.723  0.2939 -0.0795  0.0284
11063W        W54001  18.697   7.370  31.752 -0.0326 -0.1338 -0.1435
11064W        W54002  21.580  10.086   1.925  0.1228  0.1363 -0.1171
11065W        W54003  18.759   7.217   1.426  0.4226 -0.4113  0.1848
11066W        W54004  17.816   8.083   1.245  0.2077  0.1345  0.0421
11067W        W54005  20.696   9.984   1.400  0.3345 -0.1970 -0.0180
11068W        W54006  19.102  10.333   2.177  0.2220  0.0257 -0.1190
11069W        W54007  20.007   8.300   0.968 -0.0259  0.0109  0.0508
11070W        W54008  21.403  10.785   2.336 -0.1043 -0.1646 -0.0479
11071W        W54009  18.901   7.782  31.495 -0.1583  0.5816 -0.0582
11072W        W54010  19.723   8.376   2.885  0.2306 -0.3344  0.0618
11073W        W54011  18.536   8.042   4.291 -0.1486 -0.1438  0.0791
11074W        W54012  17.129   6.591   1.040  0.1363 -0.2664 -0.1771
11075W        W54013  21.602   8.233   2.250 -0.0545 -0.2155  0.4699
11076W        W54014  19.225   9.536   0.760  0.1123  0.0096  0.2335
11077W        W54015  21.807  11.377  31.371 -0.1285 -0.0444 -0.1058
11078W        W54016  19.329  10.820   1.849  0.0220 -0.0055  0.0492
11079W        W54017  18.163  10.086   2.308  0.2427  0.0308  0.3096
11080W        W54018  18.171   8.004   2.587 -0.0367  0.0136 -0.1230
11081W        W54019  19.924  10.046   1.727 -0.2074  0.2515  0.0433
11082W        W54020  18.753  10.817   3.145 -0.0406 -0.1743 -0.2142
11083W        W54021  21.685  11.069   0.904  0.2221 -0.2870  0.1455
11084W        W54022  22.707   7.458   2.557 -0.2361 -0.2764 -0.0499
11085W        W54023  20.286   9.030   1.624  0.0588  0.1551  0.2802
11086W        W54024  18.993   7.754   2.782  0.0670 -0.0968 -0.0785
11087W        W54025  18.269  10.264   2.810 -0.1327 -0.1176  0.0113
11088W        W54026  20.365   8.784   3.496  0.2634  0.1934 -0.1053
11089W        W54027  19.845   6.776   0.010 -0.2114  0.0075 -0.1596
11090W        W54028  21.608   8.146   1.747 -0.1204 -0.1826 -0.0966
11091W        W54029  19.467  10.001   2.263 -0.3707  0.0428  0.2129
11092W        W54030  20.336   8.374   1.511 -0.2061 -0.0219 -0.0181
11093W        W54031  19.886   8.951   0.393  0.2170  0.1381 -0.0260
11094W        W54032  19.001   7.403   3.402  0.0010 -0.0067  0.0935
11095W        W54033  20.546   9.243   3.214 -0.2309  0.0474  0.2827
11096W        W54034  20.228   8.767   2.908  0.4933  0.0863  0.2194
11097W        W54035  19.517   8.173   0.613  0.2475  0.1066 -0.0746
11098W        W54036  21.855  10.064  31.291 -0.0577  0.4041 -0.0976
11099W        W54037  19.544  10.378   1.900 -0.1745  0.1487 -0.2902
11100W        W54038  20.918  11.441   3.269 -0.3133  0.0770  0.1304
11101W        W54039  19.654  11.483   2.462  0.0467 -0.1104 -0.1661
11102W        W54040  20.660  10.287   2.174 -0.0369 -0.0611 -0.3325
11103W        W54041  17.653   6.572   0.988 -0.2650 -0.0625  0.2407
11104W        W54042  19.895   8.466   0.466 -0.1712  0.3400 -0.1302
11105W        W54043  21.000   8.741   2.224  0.2238  0.2184 -0.0839
11106W        W54044  21.650   7.440   1.588  0.0270 -0.1835 -0.4443
11107W        W54045  20.731   7.808   2.280  0.2462 -0.1719 -0.2829
11108W        W54046  20.887   7.077   0.611  0.1258 -0.2950 -0.1466
11109W        W54047  17.944  12.385   4.011 -0.2668  0.0505  0.0765
11110W        W54048  20.189   8.321   3.208 -0.0839  0.0163 -0.0542
11111W        W54049  20.164   8.687   4.489 -0.1299  0.1683  0.2419
11112W        W54050  20.140   7.877   4.033  0.1253 -0.1218 -0.0865
11113W        W54051  20.493   8.734   2.416  0.0608 -0.3108 -0.0267
11114W        W54052  21.666   9.056   4.342  0.0121 -0.1300  0.1169
11115W        W54053  20.312   6.838   4.278  0.0120  0.3490 -0.2128
11116W        W54054  19.773  10.498   4.401  0.0217  0.1425  0.0525
11117W        W54055  17.498   7.806   6.549 -0.0671  0.0942 -0.2792
11118W        W54056  21.899  10.064   6.763  0.3993 -0.0582  0.3442
11119W        W54057  21.532   9.585   6.566 -0.0363 -0.0290 -0.1225
11120W        W54058  20.483   8.292   3.638 -0.0349  0.0433 -0.4343
11121W        W54059  19.918   9.095   4.382 -0.2055  0.3969 -0.3732
11122W        W54060  20.718  10.433   5.805  0.1603  0.0986 -0.1939
11123W        W54061  19.496   7.564   5.882  0.3348 -0.1657  0.3373
11124W        W54062  16.864   6.953   6.394  0.1363 -0.1852  0.0902
11125W        W54063  20.968   9.011   6.653 -0.0666  0.5410 -0.0801
11126W        W54064  20.064   8.102   4.497 -0.2408  0.2420  0.0098
11127W        W54065  18.555   8.673   6.062 -0.0877 -0.1228  0.0228
11128W        W54066  18.635   6.831   5.559 -0.2176  0.1620 -0.0266
11129W        W54067  20.035   9.478   4.787 -0.0575  0.2162  0.2120
11130W        W54068  20.417   8.394   5.788 -0.0049  0.0440 -0.0391
11131W        W54069  20.248   8.076   6.426  0.0883 -0.2558 -0.0831
11132W        W54070  19.419  10.339   4.730 -0.1380  0.1423 -0.2099
11133W        W54071  17.960   9.542   3.624 -0.1359 -0.0982 -0.0148
11134W        W54072  18.400   8.498   5.438  0.0890 -0.0953 -0.0273
11135W        W54073  19.052   8.598   4.756  0.0074  0.0894 -0.0245
11136W        W54074  20.687   9.232   6.269 -0.1245  0.0010 -0.0882
11137W        W54075  22.769   9.063   6.132  0.0662  0.3601  0.3330
11138W        W54076  20.801  10.931   5.938  0.1573  0.3704  0.2753
11139W        W54077  21.270  10.483   5.921  0.1804  0.1696 -0.1064
11140W        W54078  22.282   8.425   6.651  0.1504  0.1756  0.0036
11141W        W54079  18.071  10.628   3.868  0.3629 -0.1048  0.0125
11142W        W54080  17.262  10.066   4.898  0.0942 -0.0722  0.0046
11143W        W54081  20.837  10.908   5.444 -0.0818  0.2900  0.0211
11144W        W54082  21.196  10.324   3.591  0.2095  0.0154  0.0324
11145W        W54083  22.921   9.806   6.216 -0.3379 -0.0091  0.2601
11146W        W54084  18.938  10.790   6.955 -0.1196  0.2363  0.1894
11147W        W54085  18.949  10.907   4.280  0.3226 -0.2486  0.0635
11148W        W54086  21.446  10.265   7.205 -0.0136  0.0031 -0.0724
11149W        W54087  19.105   9.896   6.202  0.0210 -0.0733 -0.1747
11150W        W54088  19.854   9.537   5.761 -0.1773 -0.1055  0.1916
11151W        W54089  19.625   8.122   4.241  0.1401 -0.2672 -0.2054
11152W        W54090  19.488  10.515   3.538  0.0803  0.1882  0.1054
11153W        W54091  19.113   9.400   5.073 -0.1042 -0.0496 -0.3332
11154W        W54092  18.578   9.140   6.081  0.1133  0.2295 -0.3111
11155W        W54093  17.612   8.877   3.779 -0.1321 -0.2216 -0.0997
11156W        W54094  21.145   7.064   7.012 -0.5032 -0.0846 -0.1195
11157W        W54095  20.409   9.738   5.534 -0.1103 -0.0158 -0.0181
11158W        W54096  21.250   8.036   4.168  0.0694  0.1882  0.3638
11159W        W54097  18.073   8.436   4.974 -0.3804 -0.0590  0.0390
11160W        W54098  21.054   8.383   1.820  0.1822 -0.0136  0.0539
11161W        W54099  20.287   5.788   6.875 -0.3590 -0.0752 -0.0503
11162W        W54100  19.381  10.478   6.239 -0.3642  0.1089  0.0675
11163W        W54101  19.969   8.226   5.988  0.1067  0.1137 -0.0000
11164W        W54102  22.149  10.789   5.867  0.1421 -0.0550 -0.0660
11165W        W54103  20.040   9.248   3.901  0.0249  0.1803 -0.1694
11166W        W54104  21.943   8.850   4.909 -0.3335 -0.2191 -0.1195
11167W        W54105  19.731  10.681   5.945 -0.0744 -0.1620 -0.0209
11168W        W54106  17.874   8.924   4.720  0.2594 -0.2095 -0.3293
11169W        W54107  18.967   9.953   2.516  0.0609 -0.0787  0.0391
11170W        W54108  20.853   9.671   4.377 -0.1335  0.0188  0.0281
11171W        W54109  19.593   9.701   3.285  0.0372  0.2032 -0.4243
11172W        W54110  18.090   7.233   4.336 -0.1873  0.1518 -0.2654
11173W        W54111  17.255   8.826   6.761 -0.0072 -0.2455 -0.1249
11174W        W54112  19.195  10.004   6.725  0.1194  0.1777  0.0013
11175W        W54113  19.211   8.454   3.436  0.0868 -0.1303  0.0545
11176W        W54114  22.592   9.316   7.738 -0.0317  0.0875 -0.0227
11177W        W54115  18.296   9.044   6.503 -0.0476  0.0020  0.0196
11178W        W54116  22.279   8.488   5.221 -0.2209 -0.0237  0.1245
11179W        W54117  17.959   9.991   4.788  0.0199  0.0470  0.0206
11180W        W54118  21.925   9.261   6.429 -0.1975 -0.1756 -0.3072
11181W        W54119  22.132  10.123   3.158  0.1243  0.0076 -0.0009
11182W        W54120  21.581   8.000   5.962 -0.1008 -0.1250  0.0271
11183W        W54121  20.877   8.361   5.919  0.1473 -0.1184  0.0145
11184W        W54122  19.044   8.101   4.183  0.1118  0.3374 -0.0890
11185W        W54123  21.024   9.460   4.845  0.0202 -0.0256 -0.1305
11186W        W54124  23.238   9.924   5.873 -0.4223  0.0848 -0.4790
11187W        W54125  20.934   8.118   5.500  0.2677  0.0086 -0.1271
11188W        W54126  17.259  11.704   5.798  0.1066 -0.1839 -0.0502
11189W        W54127  19.977   9.812   6.227  0.0590  0.0464  0.0090
11190W        W54128  20.333   9.522   6.467  0.0439  0.0135 -0.1658
11191W        W54129  17.953  12.068   3.489 -0.2984 -0.1966 -0.1717
11192W        W54130  17.535   8.845   5.071  0.1946  0.0727 -0.3465
11193W        W54131  19.297  10.568   4.113 -0.0604  0.1411  0.0978
11194W        W54132  17.797   7.264   5.344 -0.0538  0.0651  0.0763
11195W        W54133  19.343   9.644   5.487 -0.1242  0.0645  0.1032
11196W        W54134  20.912   7.569   4.178  0.0318  0.1016  0.1393
11197W        W54135  17.795   8.787   6.598  0.1499  0.0183 -0.2328
11198W        W54136  21.206   7.469   5.432 -0.1916  0.0329  0.0472
11199W        W54137  18.490   7.531   4.907  0.0580  0.0011  0.1596
11200W        W54138  21.472  11.020   3.776 -0.1819  0.2587 -0.0837
11201W        W54139  21.256   8.730   3.524  0.0168  0.0557 -0.2775
11202W        W54140  18.554   9.589   1.906  0.0303  0.1682 -0.0800
11203W        W54141  18.482   8.174   6.224  0.0193 -0.0337 -0.0504
11204W        W54142  18.283   6.781   4.345  0.0472  0.2146 -0.1451
11205W        W54143  18.507   9.590   7.467  0.1456 -0.1304  0.4994
11206W        W54144  18.095   8.511   6.332  0.1725  0.0230  0.0167
11207W        W54145  19.795   9.024   7.404  0.2480  0.0837  0.2034
11208W        W54146  17.550   7.241   4.472 -0.1952 -0.2298  0.3787
11209W        W54147  21.087   7.835   5.882 -0.2618  0.4044  0.0477
11210W        W54148  19.263   9.517   3.714 -0.0609  0.2099 -0.0567
11211W        W54149  16.565   9.976   4.558 -0.2110  0.1342 -0.1411
11212W        W54150  22.515   7.687   6.980  0.0489  0.0344 -0.4910
11213W        W54151  19.062  11.564   4.419  0.0379 -0.0570  0.0459
11214W        W54152  22.196  11.690   7.219  0.2023  0.0663 -0.1842
11215W        W54153  19.487   8.910   4.521 -0.0726  0.2565 -0.2040
11216W        W54154  19.631   7.263   6.426  0.4399 -0.1061 -0.1625
11217W        W54155  17.911   7.510   4.834 -0.0034 -0.1085  0.1954
11218W        W54156  17.979  10.869   5.354  0.5061  0.1065 -0.1680
11219W        W54157  20.429   8.954   5.946  0.1313  0.1109  0.0942
11220W        W54158  19.886   7.374   5.542  0.0262 -0.0061  0.0432
11221W        W54159  20.411   9.201   4.311 -0.3568 -0.0724  0.0713
11222W        W54160  20.683   8.889   4.682  0.1189  0.0463  0.0728
11223W        W54161  17.646   9.065   5.901  0.1355 -0.0445 -0.1848
11224W        W54162  21.110   8.351   7.116 -0.0720  0.2310 -0.3170
11225W        W54163  24.039   9.123   7.451  0.0944  0.0227 -0.2342
11226W        W54164  20.922   9.627   5.292  0.2037  0.2842  0.0478
11227W        W54165  19.665   7.763   4.705  0.3138  0.0759 -0.5344
11228W        W54166  21.368   9.565   4.400  0.3915  0.3719 -0.0706
11229W        W54167  18.796   9.758   5.302  0.1312 -0.3111 -0.1087
11230W        W54168  17.205   8.654   4.236  0.2402 -0.0788 -0.0360
11231W        W54169  21.297   9.032   4.699 -0.2965  0.0307  0.3763
11232W        W54170  22.572   8.152   5.501 -0.3643  0.2189 -0.1565
11233W        W54171  18.184  10.127   7.146  0.0101 -0.3670 -0.3075
11234W        W54172  20.806   9.593   7.586  0.1453  0.2512 -0.3847
11235W        W54173  18.804   9.892   3.820  0.0907 -0.0866  0.1861
11236W        W54174  18.259  10.339   6.128  0.1134 -0.0464  0.2390
11237W        W54175  20.587   7.941   5.958  0.0606  0.0157  0.2742
11238W        W54176  21.452   7.456   2.826  0.2136  0.1263  0.0375
11239W        W54177  18.852   9.502   5.739 -0.0413  0.1442  0.0345
11240W        W54178  20.914   9.192   4.352 -0.1547 -0.1041 -0.1271
11241W        W54179  21.724   8.286   5.381  0.0315  0.1503  0.1684
11242W        W54180  19.630   7.540   3.786 -0.0822 -0.0212 -0.2202
11243W        W54181  17.312   9.307   6.910 -0.4225 -0.2989  0.0867
11244W        W54182  20.765  10.099   3.686  0.1736 -0.0782  0.0469
11245W        W54183  19.434   9.991   5.870 -0.0232 -0.4022 -0.0521
11246W        W54184  19.046   8.314   5.137  0.0440 -0.2697  0.0036
11247W        W54185  21.187   9.979   4.584  0.2180 -0.4296  0.0879
11248W        W54186  18.334   8.039   4.945  0.1778  0.1280  0.0866
11249W        W54187  20.892  11.509   6.527  0.1813  0.1410  0.1518
11250W        W54188  22.999  10.076   5.317  0.3157  0.3428 -0.2428
11251W        W54189  20.396   8.712   8.021  0.3656 -0.1513  0.1386
11252W        W54190  20.374   9.751   4.023 -0.5331 -0.3598  0.1481
11253W        W54191  21.626   7.318   6.238 -0.1144 -0.0706 -0.3066
11254W        W54192  17.472  10.910   3.833 -0.0974  0.1116 -0.1643
11255W        W54193  21.816   8.502   4.496  0.0991 -0.0179 -0.0257
11256W        W54194  20.806   8.739   5.626 -0.1245 -0.5258  0.0034
11257W        W54195  19.052   7.865   6.959 -0.6243 -0.0549  0.0374
11258W        W54196  21.606   9.777   7.056  0.1364 -0.0964  0.2856
11259W        W54197  19.503   9.074   4.081 -0.2362  0.1119  0.2303
11260W        W54198  21.739   9.210   5.467  0.3525 -0.3172 -0.0076
11261W        W54199  18.808   9.221   3.824 -0.0660  0.0726  0.1374
11262W        W54200  20.054   9.354   5.352  0.2020 -0.1618 -0.2249
11263W        W54201  18.422  10.006   4.958  0.0681  0.1603 -0.0808
11264W        W54202  18.302  11.128   4.849  0.0903  0.1283 -0.0177
11265W        W54203  19.546   9.240   5.307 -0.2826 -0.0807 -0.2198
11266W        W54204  21.708   9.454   4.827  0.1373  0.0364  0.1318
11267W        W54205  20.641   9.322   6.850 -0.2316  0.3785 -0.1594
11268W        W54206  20.527   7.725   4.970 -0.0924  0.0235 -0.0076
11269W        W54207  18.430  10.385   4.693 -0.0781 -0.0556  0.1822
11270W        W54208  19.258  10.067   3.800  0.1911  0.0313 -0.3641
11271W        W54209  20.022   7.311   6.124 -0.3982 -0.1278 -0.2817
11272W        W54210  19.861   9.985   5.513 -0.1685 -0.2695 -0.1227
11273W        W54211  18.668  11.984   5.002  0.0147 -0.2612 -0.1310
11274W        W54212  21.550  10.240   6.378 -0.0398  0.1413  0.0459
11275W        W54213  17.615  10.126   4.441 -0.1701 -0.0729  0.1818
11276W        W54214  22.502   7.674   5.590  0.4219  0.1462  0.0967
11277W        W54215  17.659  10.451   4.871  0.0457  0.0903 -0.2737
11278W        W54216  17.765   8.002   4.858 -0.2894  0.0178  0.1096
11279W        W54217  18.807   8.069   4.735 -0.1155 -0.1604  0.2594
11280W        W54218  20.878   7.397   5.903  0.1296  0.2061 -0.0250
11281W        W54219  21.467   8.082   4.631  0.0246  0.1364  0.1450
11282W        W54220  18.649   8.990   5.621 -0.1684  0.1171  0.1286
11283W        W54221  19.723   8.739   5.323 -0.1370 -0.0791 -0.3242
11284W        W54222  18.133  10.140   6.560 -0.0321 -0.2017 -0.0947
11285W        W54223  21.293   8.856   6.986 -0.1330  0.5312 -0.0986
11286W        W54224  23.589   7.878   4.707  0.1137  0.0963 -0.2526
11287W        W54225  22.269  10.094   5.498 -0.1679  0.2259  0.2048
11288W        W54226  19.079   8.103   7.475 -0.0416 -0.1554 -0.1158
11289W        W54227  18.486   7.879   3.589  0.0110 -0.2328 -0.0478
11290W        W54228  22.278   8.686   6.060 -0.0859 -0.1641  0.2196
11291W        W54229  19.806   6.675   4.090 -0.2154 -0.2173 -0.0303
11292W        W54230  17.407   9.023   4.612  0.0758  0.3177 -0.0477
11293W        W54231  19.267  10.485   5.697 -0.0155 -0.2767  0.1232
11294W        W54232  19.202   7.738   4.956  0.0984 -0.2395 -0.1778
11295W        W54233  18.143  10.123   4.300  0.1334 -0.0202  0.4509
11296W        W54234  19.622   8.651   6.158 -0.1394  0.2241 -0.0958
11297W        W54235  21.728   9.471   5.867 -0.0251 -0.0601  0.2567
11298W        W54236  19.148   7.478   6.230  0.0687 -0.0301 -0.3495
11299W        W54237  18.573   6.722   5.022  0.3311 -0.5333  0.3114
11300W        W54238  20.115   8.572   5.027 -0.0329 -0.3629  0.0957
11301W        W54239  22.676  10.802   5.026  0.3424 -0.0012  0.0064
11302W        W54240  20.819   8.770   6.175  0.3204  0.1931  0.1816
11303W        W54241  19.418   9.588   6.571  0.1420 -0.4701 -0.3280
11304W        W54242  20.121   7.786   5.811 -0.3842  0.0108  0.0043
11305W        W54243  21.956  11.179   2.811  0.0536  0.1443  0.1045
11306W        W54244  19.524   8.983   5.778 -0.2307  0.2678  0.1464
11307W        W54245  19.151   9.994   4.398 -0.0694  0.1307 -0.1964
11308W        W54246  17.185   8.891   5.966  0.0160 -0.2712  0.1630
11309W        W54247  17.839   9.722   4.110 -0.0021 -0.4221 -0.2131
11310W        W54248  19.364   9.442   5.935  0.2724  0.1554  0.0704
11311W        W54249  18.800   8.810   6.457 -0.1613  0.1152  0.0172
11312W        W54250  17.847  10.176   3.858  0.2277  0.1276 -0.0214
11313W        W54251  18.395   9.413   5.543  0.0767 -0.1719 -0.3716
11314W        W54252  20.988   8.086   2.900  0.1998 -0.2842  0.0583
11315W        W54253  19.031   9.254   3.322 -0.0543 -0.2804  0.2022
11316W        W54254  19.973   8.669   5.835  0.1817 -0.0266  0.0893
11317W        W54255  22.138   8.329   7.311 -0.1475 -0.0731  0.1462
11318W        W54256  19.012   9.784   3.401 -0.0363  0.1870 -0.0434
11319W        W54257  20.922   7.842   7.877  0.0497  0.0674  0.1195
11320W        W54258  19.644   8.000   5.715  0.0259  0.0754 -0.0555
11321W        W54259  21.998   7.994   3.626 -0.0670 -0.1606  0.0067
11322W        W54260  17.779   7.900   6.980  0.2612  0.0604 -0.3954
11323W        W54261  21.175  10.480   7.582 -0.1357 -0.0352 -0.2794
11324W        W54262  19.856   9.504   6.650 -0.3265  0.1026 -0.1085
11325W        W54263  20.478   8.365   4.725  0.1357  0.1313 -0.1199
11326W        W54264  19.103   6.915   3.640  0.0318  0.0395  0.1070
11327W        W54265  18.763  11.264   5.543  0.3577  0.2843 -0.1874
11328W        W54266  20.985   9.606   6.562 -0.4026 -0.0922  0.3815
11329W        W54267  19.559  10.952   3.885  0.5176  0.1907 -0.2776
11330W        W54268  20.460   9.493   5.057  0.0537 -0.1205 -0.1704
11331W        W54269  19.072   9.354   4.584  0.1975  0.2020 -0.0422
11332W        W54270  21.524   8.622   4.883  0.0511 -0.2173  0.0511
11333W        W54271  19.311   9.844   4.862 -0.0157 -0.1039 -0.1449
11334W        W54272  19.304   9.592   4.234  0.0926  0.2725 -0.2317
11335W        W54273  19.010   8.361   6.623 -0.1019 -0.1084 -0.1143
11336W        W54274  22.248   9.125   6.898  0.1087 -0.3153  0.1868
11337W        W54275  20.318   9.050   4.911  0.3982  0.1073 -0.1038
11338W        W54276  21.801   8.470   6.047  0.0297 -0.1087  0.0835
11339W        W54277  20.937  10.013   6.098  0.0003 -0.3445 -0.1976
11340W        W54278  19.575   9.514   8.204  0.3174 -0.2421  0.2534
11341W        W54279  17.050   8.621   6.371 -0.0802  0.1530  0.0226
11342W        W54280  21.477  11.368   5.685 -0.0179 -0.1063  0.4157
11343W        W54281  22.163   9.038   3.589 -0.2277 -0.0494 -0.2244
11344W        W54282  22.947   7.900   5.661 -0.0620 -0.1449 -0.0268
11345W        W54283  20.282   8.872   5.432  0.0301  0.1736 -0.3079
11346W        W54284  20.261   8.789   4.005 -0.0340  0.1134 -0.0335
11347W        W54285  17.013   7.537   5.233 -0.3046  0.4163  0.2257
11348W        W54286  21.259  10.052   6.723 -0.1358 -0.2326  0.0088
11349W        W54287  19.612   6.549   4.890 -0.2236 -0.1155  0.0052
11350W        W54288  21.285   8.400   5.629  0.1354  0.1713  0.0914
11351W        W54289  21.606  10.153   4.134 -0.2617  0.0838 -0.3635
11352W        W54290  20.400  10.577   4.416 -0.3147  0.0813  0.0206
11353W        W54291  19.525   8.175   5.212  0.1230 -0.1851 -0.0157
11354W        W54292  17.367   8.669   5.519 -0.1865  0.4451  0.0583
11355W        W54293  17.556  10.471   5.836  0.1785  0.2166 -0.0859
11356W        W54294  18.609   9.333   3.126  0.1345  0.3861 -0.1783
11357W        W54295  19.331   8.022   3.732 -0.0349  0.0040 -0.0357
11358W        W54296  19.690  10.893   6.406 -0.2397 -0.1757  0.0636
11359W        W54297  21.325   9.617   7.806 -0.2593 -0.1867 -0.0688
11360W        W54298  21.181   7.672   3.757  0.0481 -0.0150 -0.0770
11361W        W54299  22.399   8.677   7.061  0.0158  0.0544 -0.2450
11362W        W54300  18.130  10.960   6.203  0.1313  0.1301  0.2178
11363W        W54301  21.982   7.754   5.637  0.2658 -0.0900  0.2058
11364W        W54302  20.728  11.171   5.028  0.1280 -0.0666 -0.4859
11365W        W54303  17.216   9.543   4.913  0.4753 -0.0325  0.2001
11366W        W54304  19.807  10.288   5.021 -0.2997 -0.0736  0.0826
11367W        W54305  20.463   8.883   6.637  0.0579  0.0106 -0.0086
11368W        W54306  21.047   9.503   5.831 -0.0618 -0.0143 -0.0244
11369W        W54307  18.616   9.435   4.893  0.0472  0.0196  0.0266
11370W        W54308  22.361   8.988   6.431  0.4945 -0.0127 -0.0445
11371W        W54309  20.673  10.055   6.648  0.1869 -0.2476 -0.1775
11372W        W54310  18.742   8.517   4.306  0.0945  0.2702  0.1863
11373W        W54311  19.335  10.077   5.310 -0.4188 -0.0826 -0.1084
11374W        W54312  21.303   9.270   5.176  0.3838  0.2722 -0.0923
11375W        W54313  18.737   8.304   5.756 -0.0346 -0.0961 -0.1125
11376W        W54314  17.217   9.231   6.434 -0.2705  0.0691 -0.0106
11377W        W54315  19.503   9.213   7.001  0.0632  0.3574  0.0121
11378W        W54316  19.733   9.665   5.145 -0.2089  0.1730  0.1659
11379W        W54317  19.079   7.397   4.624  0.1281 -0.1948 -0.1399
11380W        W54318  18.827  10.375   2.918  0.0332 -0.1772 -0.1111
11381W        W54319  16.879  10.778   6.687  0.1248 -0.3244  0.2556
11382W        W54320  19.088   8.919   6.011 -0.3247 -0.1107  0.3651
11383W        W54321  18.406  11.598   5.811  0.2222  0.0826 -0.3248
11384W        W54322  19.268   9.485   2.482 -0.0950 -0.2776  0.0028
11385W        W54323  19.940   9.616   4.272  0.0437 -0.0801  0.2054
11386W        W54324  20.660  11.364   6.095 -0.0797 -0.1415 -0.1172
11387W        W54325  20.406   8.295   4.125  0.1786  0.0037  0.0430
11388W        W54326  18.082  10.680   4.905  0.0525 -0.2558 -0.2238
11389W        W54327  17.527  10.921   2.541  0.1294  0.0214  0.1057
11390W        W54328  20.688   9.960   2.917 -0.3487 -0.0631  0.0477
11391W        W54329  18.992  10.258   4.927  0.1355 -0.0411  0.0624
11392W        W54330  20.976  11.175   6.921 -0.2798  0.0405  0.3714
11393W        W54331  22.717   7.664   4.762 -0.1764  0.3526 -0.0575
11394W        W54332  22.031   9.600   6.812 -0.0621  0.2168 -0.3398
11395W        W54333  21.420   8.168   3.684  0.2194 -0.3012 -0.3139
11396W        W54334  19.478   9.104   6.266  0.1039 -0.1403  0.0106
11397W        W54335  19.831   9.005   4.873 -0.3107  0.0281  0.0333
11398W        W54336  19.915   7.422   3.289 -0.0121  0.1704  0.0146
11399W        W54337  19.220   8.941   7.519  0.0670 -0.3439  0.0640
11400W        W54338  23.241   7.706   7.390  0.0567 -0.2170 -0.2660
11401W        W54339  17.642  11.319   7.312  0.3851 -0.0839 -0.1891
11402W        W54340  21.258  10.446   2.805  0.5105  0.1698  0.0421
11403W        W54341  19.716   7.614   4.226 -0.0241 -0.0643 -0.0433
11404W        W54342  18.881   7.803   5.856 -0.2739 -0.1042  0.1136
11405W        W54343  22.610   6.838   7.497 -0.3337 -0.0773 -0.2430
11406W        W54344  19.536   9.278   2.935  0.2218  0.3512  0.0300
11407W        W54345  19.743   8.634   4.248  0.0353  0.0751 -0.0842
11408W        W54346  18.947  10.432   4.462  0.2179 -0.2764 -0.0894
11409W        W54347  18.622  10.717   5.738 -0.1782 -0.2945  0.0296
11410W        W54348  18.949   9.992   5.735 -0.0294 -0.0060  0.0645
11411W        W54349  19.175   6.823   4.905 -0.4531  0.2394 -0.1909
11412W        W54350  21.378   9.732   6.104 -0.1732 -0.2423  0.3007
11413W        W54351  20.565   9.674   6.012 -0.0502  0.2684  0.0077
11414W        W54352  21.346   7.778   6.374 -0.1233  0.0250  0.2766
11415W        W54353  17.127   8.233   4.575  0.0789 -0.1623 -0.2994
11416W        W54354  21.516   7.977   6.835 -0.2129  0.3631  0.0815
11417W        W54355  20.493   9.993   7.395 -0.0336 -0.0627 -0.0233
11418W        W54356  18.130   8.910   5.853 -0.1304  0.0782 -0.2874
11419W        W54357  19.500   8.455   3.824 -0.1074  0.0124  0.0743
11420W        W54358  22.340   9.950   6.459  0.0320 -0.1254 -0.0721
11421W        W54359  20.844   8.290   4.286 -0.3083  0.1481  0.1571
11422W        W54360  21.840   9.951   5.778  0.0502 -0.2499 -0.0744
11423W        W54361  18.188   8.628   4.512  0.0651 -0.2342  0.1068
11424W        W54362  19.674   7.736   5.255  0.0621  0.0306 -0.2136
11425W        W54363  18.429   9.009   4.142  0.2838 -0.2183 -0.1872
11426W        W54364  20.355  10.748   5.657 -0.3250  0.2583  0.0863
11427W        W54365  21.678  10.714   6.191 -0.2325  0.0606  0.1189
11428W        W54366  20.364   7.355   5.698  0.2234 -0.0877 -0.1805
11429W        W54367  21.071   9.516   3.886  0.2552  0.2507  0.1885
11430W        W54368  22.946   8.643   6.969  0.2782  0.0372  0.0455
11431W        W54369  20.127  10.732   3.893  0.1484  0.1726 -0.0108
11432W        W54370  22.160   9.696   4.809 -0.0901 -0.2893 -0.1653
11433W        W54371  21.711  10.941   5.640 -0.0429  0.1083 -0.2989
11434W        W54372  17.492   7.469   5.726 -0.1860 -0.1265  0.0047
11435W        W54373  20.363  10.286   4.828  0.1365  0.2663  0.1111
11436W        W54374  21.872  10.511   4.508  0.0885  0.2261  0.0618
11437W        W54375  20.279   7.003   5.191  0.4541 -0.0047  0.1604
11438W        W54376  19.068   8.646   5.521  0.0287  0.3312  0.2880
11439W        W54377  17.267  11.398   4.657 -0.0347  0.1198  0.0248
11440W        W54378  21.551   7.824   5.033 -0.0226  0.1998 -0.0911
11441W        W54379  20.742   8.653   6.972 -0.2122  0.3908 -0.1193
11442W        W54380  19.235  11.112   3.363 -0.1319  0.3248  0.0537
11443W        W54381  22.206   8.948   5.541 -0.1801 -0.0669  0.1081
11444W        W54382  21.408   9.818   5.033 -0.1361 -0.1343  0.0006
11445W        W54383  19.369  10.518   6.741 -0.1036 -0.1628  0.1153
11446W        W54384  18.355   9.708   4.523  0.3014 -0.3730  0.0612
11447W        W54385  19.116   9.159   5.556 -0.2383  0.1358 -0.0965
11448W        W54386  18.781   9.613   4.257 -0.0855  0.1225 -0.3335
11449W        W54387  19.627  10.035   4.219  0.1335 -0.1331 -0.0118
11450W        W54388  20.647  10.116   4.265 -0.0685  0.2701  0.1228
11451W        W54389  19.336   8.901   5.027 -0.0428  0.0034  0.1844
11452W        W54390  22.754  10.061   4.589  0.2223  0.2957 -0.1523
11453W        W54391  19.410   7.303   5.020 -0.2247  0.3016  0.0060
11454W        W54392  22.281   7.399   4.632  0.1913 -0.0010 -0.0620
11455W        W54393  20.734   8.451   5.167 -0.2510 -0.2380  0.0192
11456W        W54394  19.058   8.444   6.119  0.0936 -0.1407 -0.0491
11457W        W54395  16.960   9.471   2.562  0.3374  0.2774  0.3577
11458W        W54396  18.288  10.055   3.800  0.0736  0.0776  0.2585
11459W        W54397  18.152   9.510   5.042 -0.2927 -0.0772  0.0726
11460W        W54398  20.151   9.134   6.922 -0.1446  0.1434  0.2165
11461W        W54399  18.693   8.827   7.067  0.2006  0.0675 -0.1351
11462W        W54400  18.548   8.986   4.630  0.1331 -0.2471 -0.2501
11463W        W54401  18.647   7.597   4.447 -0.1039  0.2100 -0.0061
11464W        W54402  19.382   8.874   3.235  0.0685  0.3614  0.0612
11465W        W54403  18.414   7.911   5.680  0.1750 -0.3256 -0.0385
11466W        W54404  16.831   7.262   4.064  0.2218 -0.2932  0.1678
11467W        W54405  21.236   8.648   4.228  0.1552  0.4113 -0.2479
11468W        W54406  21.136  10.023   3.141  0.2261  0.0981 -0.1200
11469W        W54407  20.973   7.959   4.706 -0.1240 -0.3507 -0.0795
11470W        W54408  21.825  11.684   6.929 -0.1067 -0.2232 -0.3050
11471W        W54409  18.939   8.956   4.308 -0.0636  0.1319  0.1283
11472W        W54410  19.638   7.990   7.418  0.2308  0.0963 -0.1920
11473W        W54411  19.692   8.743   6.947 -0.1013  0.0532 -0.1273
11474W        W54412  17.275   8.831   3.279 -0.0609  0.0872  0.2340
11475W        W54413  18.191   8.979   5.095 -0.1812  0.0277  0.2176
11476W        W54414  21.557   9.506   3.909 -0.1174  0.1655  0.2086
11477W        W54415  20.429  10.871   2.170 -0.4741  0.0831 -0.2871
11478W        W54416  18.590   8.549   4.983  0.0318 -0.3110  0.1618
11479W        W54417  20.000  10.414   6.365  0.0135 -0.2106 -0.2481
11480W        W54418  17.134   7.058   6.808  0.0151  0.0933 -0.0617
11481W        W54419  21.245   8.277   5.130  0.2692  0.0756  0.1496
11482W        W54420  19.713   9.991   6.961  0.1439 -0.3841  0.0620
11483W        W54421  21.719   8.251   4.071 -0.0549 -0.1579 -0.1034
11484W        W54422  22.078   8.046   6.147  0.0469  0.2333  0.2038
11485W        W54423  21.041   8.553   4.722 -0.0825 -0.1128 -0.1044
11486W        W54424  18.607   9.077   7.519 -0.2375  0.2122  0.2689
11487W        W54425  19.149  10.875   6.339 -0.0214  0.0970 -0.0737
11488W        W54426  22.178   9.938   7.179 -0.2664  0.2102  0.0480
11489W        W54427  18.894   7.269   5.122 -0.3598  0.0624  0.0534
11490W        W54428  20.796   7.467   4.627 -0.1517 -0.0520 -0.0834
11491W        W54429  20.825   8.924   3.743 -0.1034 -0.1874 -0.0810
11492W        W54430  18.766   7.868   5.267 -0.0667  0.0511 -0.0132
11493W        W54431  20.728   8.762   4.198  0.0266  0.1689 -0.1176
11494W        W54432  21.439   9.637   5.513 -0.0959  0.0596  0.4226
11495W        W54433  20.890  10.412   5.287 -0.0956 -0.2279 -0.1293
11496W        W54434  20.913  10.238   7.142  0.0730  0.1784 -0.3263
11497W        W54435  19.685   8.455   4.793  0.1016 -0.1533  0.0707
11498W        W54436  23.299   9.576   4.369 -0.0927 -0.3791  0.4985
11499W        W54437  20.723  10.945   6.452 -0.0357  0.1931 -0.2092
11500W        W54438  21.602  10.301   7.719 -0.2941  0.0743  0.0328
11501W        W54439  18.954  10.784   5.405 -0.0529 -0.4482  0.0731
11502W        W54440  22.649   8.424   7.422 -0.2252 -0.2531  0.3422
11503W        W54441  18.306   7.602   6.076  0.1307 -0.2580 -0.0098
11504W        W54442  19.241   8.595   4.236 -0.0829 -0.3379  0.1545
11505W        W54443  19.208   8.875   3.708  0.2168 -0.1708 -0.0139
11506W        W54444  21.293   8.685   6.036 -0.1169 -0.1713  0.2138
11507W        W54445  19.443   7.163   5.496  0.2723 -0.0863  0.3268
11508W        W54446  21.210   8.802   5.216  0.1466 -0.0843  0.0950
11509W        W54447  21.099   9.988   5.573 -0.2064 -0.3638 -0.2790
11510W        W54448  21.829   9.572   4.337 -0.3476  0.1899 -0.2171
11511W        W54449  20.774   8.468   9.473  0.0581  0.3296 -0.1685
11512W        W54450  20.008   8.218   7.150 -0.2376  0.0363 -0.0552
11513W        W54451  19.861   7.553   7.374 -0.0550 -0.1264  0.2484
11514W        W54452  21.567   8.882   8.418 -0.1128 -0.2174 -0.1457
11515W        W54453  18.581   7.742   8.004  0.0505 -0.1961 -0.2484
11516W        W54454  20.462  10.476   8.650 -0.0088 -0.1499 -0.0807
11517W        W54455  19.087  11.737   8.754 -0.0596  0.1394 -0.0045
11518W        W54456  19.938  10.740   9.684 -0.0663  0.1742 -0.0918
11519W        W54457  20.422   9.344   7.291  0.2732 -0.1457 -0.0627
11520W        W54458  19.875   8.708  10.111  0.2020 -0.2312  0.1377
11521W        W54459  19.732   6.229   7.507 -0.1716  0.2345  0.2050
11522W        W54460  18.411  10.225  12.112  0.0521 -0.3919 -0.0147
11523W        W54461  19.567   9.183   9.251  0.0814 -0.0018  0.4161
11524W        W54462  18.080   8.485   8.953 -0.1797 -0.2534  0.0946
11525W        W54463  20.212   8.150   8.181  0.1404  0.1606  0.3313
11526W        W54464  20.040   7.109   7.938  0.0968  0.1188  0.1891
11527W        W54465  20.442   9.815   8.380  0.0749 -0.2765 -0.1000
11528W        W54466  19.528   8.386   9.151 -0.0066 -0.0915  0.0012
11529W        W54467  19.274  11.715   7.688  0.2033 -0.1630  0.2296
11530W        W54468  17.829   9.756   6.462 -0.1896 -0.1401  0.1245
11531W        W54469  19.005   8.476   9.200  0.0024  0.1336  0.1281
11532W        W54470  19.592   8.037   8.745 -0.4343  0.0709  0.0914
11533W        W54471  20.324   7.147   9.444  0.3262  0.1246  0.0584
11534W        W54472  21.735   8.898   8.874 -0.2657 -0.1319  0.0618
11535W        W54473  19.953   9.923   8.110 -0.0747  0.0285  0.1209
11536W        W54474  20.497   9.318   9.510 -0.1848  0.0057 -0.0891
11537W        W54475  18.270   8.922   9.105 -0.0071 -0.0966  0.0076
11538W        W54476  18.603  10.529   7.232 -0.3147 -0.1779  0.0594
11539W        W54477  20.092  10.772   7.274  0.0355  0.1722  0.0543
11540W        W54478  21.939  10.682   7.957 -0.0411 -0.0679 -0.1177
11541W        W54479  18.443   9.700   5.921 -0.1134  0.4011 -0.1300
11542W        W54480  20.236   9.724   9.351  0.1760  0.0271 -0.0101
11543W        W54481  19.882  10.238   9.992 -0.0544 -0.1838  0.0327
11544W        W54482  20.427  10.496   6.640  0.1181  0.1348  0.1579
11545W        W54483  19.905   8.681   8.908  0.2581  0.0117 -0.1283
11546W        W54484  18.554   9.319   8.704  0.1756 -0.0469  0.3691
11547W        W54485  19.643  11.473   7.199 -0.0970  0.0600 -0.0581
11548W        W54486  21.950   8.597   7.712 -0.1799  0.0929 -0.1085
11549W        W54487  20.252   9.739   7.043 -0.1086  0.1853  0.1363
11550W        W54488  20.664   7.869   8.337  0.0118  0.2451  0.1275
11551W        W54489  20.817   7.184   7.675 -0.0898  0.1215  0.2598
11552W        W54490  18.762  10.574   8.895 -0.1067 -0.0305  0.0962
11553W        W54491  18.863   7.819   8.883 -0.3827 -0.2963  0.2615
11554W        W54492  19.994   9.903   7.485 -0.2520 -0.0783  0.2354
11555W        W54493  20.787   9.012   8.580  0.1584  0.1651  0.1200
11556W        W54494  18.313   9.801   9.352  0.1918 -0.0047 -0.1449
11557W        W54495  19.418   9.404   7.482 -0.1436  0.1836 -0.3802
11558W        W54496  20.996  10.772   7.264 -0.2674  0.2394 -0.4377
11559W        W54497  21.766  11.014   8.876  0.0130  0.2086 -0.0664
11560W        W54498  20.763   9.722   7.066 -0.3144  0.1240 -0.4039
11561W        W54499  18.547   9.285   6.858  0.3462  0.1145 -0.0344
11562W        W54500  18.830   8.615   7.536  0.0233 -0.0931  0.3906
11563W        W54501  21.253   7.312   8.693 -0.0086  0.0188  0.1786
11564W        W54502  19.663   8.802   7.881 -0.2199 -0.0327  0.2899
11565W        W54503  19.805  10.658   9.159 -0.0845  0.0791 -0.0430
11566W        W54504  20.798  10.429   6.334  0.3631  0.2073 -0.1924
11567W        W54505  20.095   8.604   7.616 -0.0222  0.0456 -0.0878
11568W        W54506  19.177   7.443   9.205  0.1483  0.2150  0.2170
11569W        W54507  18.786   8.989   5.100 -0.0428  0.1961  0.0745
11570W        W54508  20.586   9.227   9.005  0.0586  0.1317 -0.1154
11571W        W54509  23.657  12.352   9.643  0.0909  0.5199 -0.0059
11572W        W54510  21.482   9.359   7.406  0.2305  0.0336  0.1057
11573W        W54511  18.858   9.673   8.896  0.0836  0.1523 -0.1446
11574W        W54512  19.556  11.198   6.029  0.1048  0.0325 -0.1737
11575W        W54513  17.474   7.393   8.872 -0.2247  0.0454  0.1967
11576W        W54514  19.816   9.499   7.791  0.0071  0.2732 -0.0199
11577W        W54515  19.464   8.715   8.411  0.0327  0.1888  0.1484
11578W        W54516  16.276  10.069   9.717 -0.1473 -0.2433  0.0716
11579W        W54517  21.724   7.972   7.297  0.0841  0.2542  0.1475
11580W        W54518  21.953   6.907   8.049  0.0157 -0.0205 -0.0714
11581W        W54519  18.431   9.770   8.500 -0.0278 -0.0513  0.0497
11582W        W54520  21.008   9.983   8.357  0.1370 -0.1809 -0.3268
11583W        W54521  19.884   8.718   9.387  0.0993  0.0382  0.0016
11584W        W54522  21.370  10.851   6.938 -0.0252  0.0754 -0.3029
11585W        W54523  18.914   8.039   9.771 -0.0732 -0.0048 -0.0083
11586W        W54524  19.181   7.426   8.173  0.2363  0.4664 -0.1191
11587W        W54525  18.615   8.584   7.952 -0.0398 -0.3921 -0.0521
11588W        W54526  18.240   7.304   8.208  0.2144  0.0890  0.2173
11589W        W54527  20.384   8.611   8.821  0.0739  0.0163  0.0043
11590W        W54528  18.960   9.329   7.216 -0.3442  0.1466 -0.2586
11591W        W54529  18.195   9.239   7.190 -0.1580 -0.2212  0.0971
11592W        W54530  21.118  10.341   8.695  0.2269 -0.2914 -0.1660
11593W        W54531  23.653   8.859   9.955 -0.0561 -0.0546  0.0879
11594W        W54532  20.858  10.709   8.362  0.1723 -0.1670  0.1125
11595W        W54533  21.697   7.013   8.935  0.0109 -0.2573 -0.1545
11596W        W54534  18.661   7.237   7.957 -0.2697  0.0361 -0.0811
11597W        W54535  19.798  10.748   7.660  0.1188  0.1726  0.2146
11598W        W54536  19.795   8.267   7.917  0.1758  0.1196 -0.0532
11599W        W54537  20.237   7.769   7.158  0.1422  0.2615  0.0431
11600W        W54538  21.449  13.144   9.531  0.0796 -0.0986 -0.1819
11601W        W54539  19.261  10.266   7.139 -0.2475  0.0915 -0.0960
11602W        W54540  22.195   8.839  10.006  0.0409  0.0302  0.0230
11603W        W54541  21.181   9.860   8.825  0.1226 -0.0334 -0.0253
11604W        W54542  18.266   8.218   7.147 -0.2093 -0.2075  0.3277
11605W        W54543  19.948  11.109   8.415  0.2564  0.1689  0.0212
11606W        W54544  18.953   9.394   6.240 -0.2650 -0.2895 -0.0521
11607W        W54545  18.401   9.283   9.659  0.0865 -0.0253 -0.0659
11608W        W54546  20.322   9.590   7.730 -0.2343  0.0396  0.0953
11609W        W54547  21.983   7.446  10.257 -0.1631 -0.3741  0.2072
11610W        W54548  19.120   9.187   6.721  0.0958  0.0807 -0.1314
11611W        W54549  20.645   8.401   8.393  0.1727 -0.1618  0.0890
11612W        W54550  21.220   7.423   7.776 -0.0633 -0.1841  0.0265
11613W        W54551  22.327  10.944   8.863  0.1642  0.0910 -0.0771
11614W        W54552  19.829   9.516   7.181  0.0921  0.1982 -0.0311
11615W        W54553  20.262   7.685   8.200 -0.0778  0.0425 -0.2961
11616W        W54554  20.256  10.953   8.865 -0.0535 -0.5459 -0.0797
11617W        W54555  20.055  11.513   9.919 -0.2292 -0.3437 -0.1514
11618W        W54556  18.824   8.353   7.087 -0.0381 -0.1639  0.0825
11619W        W54557  22.512  10.403   7.487  0.0363 -0.1338 -0.1202
11620W        W54558  19.983   7.345   9.156 -0.2905  0.2543  0.2163
11621W        W54559  20.862   9.735  10.071 -0.1306  0.0086  0.1676
11622W        W54560  19.209   7.406   9.809  0.3276  0.0398 -0.1027
11623W        W54561  19.554  10.081   6.411  0.0706 -0.3527 -0.1233
11624W        W54562  20.355   7.107   8.880  0.2929  0.2035  0.0508
11625W        W54563  19.267  11.119   6.824  0.1842  0.3613  0.1404
11626W        W54564  21.670   7.797  10.172 -0.0313 -0.2737 -0.4181
11627W        W54565  20.966   7.838   8.799  0.1106 -0.2560  0.1500
11628W        W54566  20.521   8.400   7.382 -0.2293 -0.0147  0.1198
11629W        W54567  20.351   9.631   8.850 -0.1842 -0.1234  0.2684
11630W        W54568  19.507   8.486   7.478 -0.0330 -0.0952  0.0248
11631W        W54569  19.418   6.840   8.431  0.0165 -0.0719 -0.1912
11632W        W54570  18.664  11.812   9.561  0.1865  0.1819  0.0604
11633W        W54571  21.012  10.065   7.817  0.4337 -0.2968  0.2207
11634W        W54572  19.880   7.659   7.863 -0.3316 -0.0452  0.0590
11635W        W54573  19.699  11.576   7.676  0.0390  0.0111 -0.1311
11636W        W54574  20.204  10.057   6.666 -0.0568 -0.1441  0.0290
11637W        W54575  20.123   7.604   8.692  0.1133  0.0818 -0.1591
11638W        W54576  19.995   8.848   8.302  0.1868  0.0498  0.1300
11639W        W54577  19.430  11.077   7.633 -0.2404 -0.0453 -0.2177
11640W        W54578  22.234   8.976   9.472 -0.1402  0.1020 -0.2783
11641W        W54579  18.110  10.724   8.046  0.2333 -0.0393 -0.0208
11642W        W54580  21.417   7.289  10.443 -0.0903  0.0740 -0.2068
11643W        W54581  18.767   9.949   8.104 -0.0014 -0.0188 -0.2944
11644W        W54582  19.732   7.737   8.386  0.2800  0.0916 -0.4006
11645W        W54583  17.318   8.534   7.146 -0.0217  0.1569 -0.2105
11646W        W54584  21.134   8.309   7.907  0.0518  0.0360  0.1064
11647W        W54585  21.846   8.842   7.197  0.1901  0.1917 -0.2353
11648W        W54586  19.243   8.405   9.599  0.0216 -0.2425  0.0112
11649W        W54587  20.447   7.608   9.069  0.0671  0.3033 -0.2193
11650W        W54588  17.222  11.895   8.704  0.1037 -0.0046  0.2670
11651W        W54589  20.939   9.070   7.225 -0.2574  0.3257 -0.1413
11652W        W54590  17.243   8.092   6.912 -0.1241  0.0759  0.0988
11653W        W54591  22.904  10.245  11.644 -0.3413  0.4728 -0.2764
11654W        W54592  19.618   8.293   6.531  0.1424  0.0740  0.0699
11655W        W54593  18.149   9.780   7.909 -0.4075 -0.0907 -0.0943
11656W        W54594  20.980  10.224   9.183  0.3689 -0.0861 -0.1573
11657W        W54595  19.267   9.674   7.072  0.0102  0.1302  0.0544
11658W        W54596  19.402   9.554   8.867  0.1316 -0.0331  0.2525
11659W        W54597  20.463  10.125   9.169  0.0397  0.0010 -0.1234
11660W        W54598  19.864   7.119   8.709  0.2875  0.0461 -0.0799
11661W        W54599  19.207   8.681   7.085  0.0034 -0.2803  0.0688
11662W        W54600  21.265   8.178   9.618  0.0737 -0.0784 -0.2495
11663W        W54601  20.401  10.614   9.256 -0.2006  0.1800  0.0054
11664W        W54602  21.030   7.158   9.659  0.2633 -0.2500 -0.0554
11665W        W54603  17.054   7.132   9.888 -0.3500  0.2458 -0.2250
11666W        W54604  22.238  11.137   8.088  0.0471  0.0674 -0.0097
11667W        W54605  18.522  10.189   5.751 -0.0831  0.2706 -0.2088
11668W        W54606  17.309   9.490   8.224  0.3463 -0.1480  0.0804
11669W        W54607  20.592   8.985   7.581  0.1461 -0.0504 -0.0272
11670W        W54608  18.485   9.508   8.064 -0.2894 -0.1051  0.1346
11671W        W54609  17.698   9.236   6.352  0.0758  0.0229  0.0076
11672W        W54610  19.154  10.619   9.131  0.1090 -0.1384  0.0006
11673W        W54611  20.799   6.841   8.441  0.0242  0.2363  0.0281
11674W        W54612  20.170   9.091   7.787  0.1768  0.0901  0.1335
11675W        W54613  20.409   8.228   9.166  0.4097 -0.0300 -0.3518
11676W        W54614  21.190   9.826   7.320 -0.1298 -0.2286 -0.1247
11677W        W54615  20.831   8.379   8.824 -0.3798  0.0737 -0.2581
11678W        W54616  21.313   9.204   8.679  0.0583 -0.0452  0.4112
11679W        W54617  20.086   9.163   9.053 -0.1994 -0.0495  0.1176
11680W        W54618  19.693   7.255   8.281 -0.0047 -0.2071 -0.2220
11681W        W54619  19.317   9.891   9.262 -0.0988 -0.1476 -0.1946
11682W        W54620  20.946   9.545   9.632  0.0325 -0.0193  0.2967
11683W        W54621  20.189  10.255   7.135 -0.2612  0.2811  0.0422
11684W        W54622  21.119   8.644   8.443 -0.0064  0.3035  0.1362
11685W        W54623  19.595   7.226   9.541  0.1833  0.1627  0.2595
11686W        W54624  21.073   9.125   8.205 -0.0498 -0.1245 -0.0249
11687W        W54625  20.228   8.674   7.130  0.0616  0.1161 -0.2030
11688W        W54626  19.337   9.901   7.949 -0.0876 -0.0386 -0.1595
11689W        W54627  21.116   8.777   8.974 -0.1906  0.0726  0.2121
11690W        W54628  20.691   7.485   9.456  0.1077  0.1549 -0.0175
11691W        W54629  20.181  12.408   9.489 -0.1470 -0.3691 -0.0684
11692W        W54630  21.032   9.146   7.691 -0.1122  0.1544 -0.0306
11693W        W54631  22.672   8.637  10.028  0.3593 -0.1671  0.0687
11694W        W54632  21.275   7.903   7.428  0.1690  0.1683 -0.0155
11695W        W54633  20.829   9.592   8.087 -0.3687 -0.0079 -0.2494
11696W        W54634  18.748   8.008   8.440 -0.0844 -0.3688 -0.0267
11697W        W54635  19.439   8.182   7.003  0.0775 -0.0969  0.1265
11698W        W54636  19.540  10.804   7.173  0.0444 -0.2034  0.0628
11699W        W54637  20.750  10.041   8.749  0.0923 -0.2990  0.0807
11700W        W54638  21.821   8.988   7.999 -0.0194 -0.3504  0.0763
11701W        W54639  19.569  10.304   9.414 -0.0614 -0.1303  0.0254
11702W        W54640  18.196   8.746   6.978 -0.3140  0.1892  0.0251
11703W        W54641  20.572   9.248   5.573 -0.0155  0.2968 -0.0098
11704W        W54642  19.798   9.590   9.133 -0.2121 -0.0375  0.0719
11705W        W54643  19.360   8.689   6.558  0.0295 -0.0571 -0.2881
11706W        W54644  18.771   9.856   7.122  0.0881  0.0073 -0.0456
11707W        W54645  20.625   8.242   7.901  0.0655 -0.2864 -0.0981
11708W        W54646  19.393   9.378   9.685  0.0437 -0.2010 -0.4111
11709W        W54647  17.779  10.184   7.776 -0.3763  0.0493  0.0801
11710W        W54648  22.893   6.282  11.727  0.2384  0.0211  0.0258
11711W        W54649  23.126  10.118   9.703  0.1458  0.1933  0.0024
11712W        W54650  19.959   8.305   8.581 -0.2143  0.0329 -0.0683
11713W        W54651  19.419   8.195   8.233  0.2876 -0.0596  0.2534
11714W        W54652  21.392   9.705  10.067 -0.0066  0.0390 -0.0756
11715W        W54653  18.339  10.205   8.178 -0.1967  0.1374  0.0497
11716W        W54654  19.289   9.055   8.080  0.1210 -0.3016 -0.1509
11717W        W54655  18.245   7.789   8.445 -0.0748 -0.1807 -0.1021
11718W        W54656  21.244  11.148   6.465  0.0075  0.1497 -0.0500
11719W        W54657  18.293   9.018   7.950  0.0334 -0.0554 -0.3078
11720W        W54658  18.548  11.096   7.907  0.3581 -0.1703  0.0958
11721W        W54659  21.281  10.383   8.200  0.3659 -0.0642  0.2129
11722W        W54660  20.701  10.553   7.910  0.4061  0.3898  0.3782
11723W        W54661  18.687  12.120   8.919 -0.1934  0.0544 -0.2676
11724W        W54662  20.578   9.165   8.106  0.0754  0.1887  0.0971
11725W        W54663  18.872   9.588   9.467 -0.3949  0.0999 -0.2185
11726W        W54664  18.923  10.452   6.564  0.1449  0.0077 -0.1288
11727W        W54665  21.547   9.961   8.118 -0.2322  0.0850 -0.1174
11728W        W54666  19.555  10.990   9.428  0.1354 -0.2713 -0.3339
11729W        W54667  22.395   7.197   7.936 -0.2315 -0.2590  0.1473
11730W        W54668  20.286   8.208   9.654 -0.0188 -0.1014  0.0526
11731W        W54669  20.429   8.080   8.694  0.1259 -0.0966 -0.0083
11732W        W54670  20.870   8.748   8.044  0.2084  0.4479  0.0828
11733W        W54671  19.188   7.305   6.711 -0.2159  0.0338 -0.0847
11734W        W54672  20.958  10.609   6.818 -0.3101 -0.0537  0.0610
11735W        W54673  18.541   8.120   7.544 -0.2803  0.2177  0.1019
11736W        W54674  18.886   9.269   7.846 -0.0638 -0.1371 -0.0148
11737W        W54675  23.658   7.002   9.955  0.0468  0.2192  0.2043
11738W        W54676  20.539  10.044   7.932 -0.0578  0.0722  0.1633
11739W        W54677  20.948   7.412   9.064  0.0285  0.1055 -0.0859
11740W        W54678  20.154  10.309   7.722  0.0185  0.1507 -0.1774
11741W        W54679  20.596   9.919   9.672 -0.1747 -0.0190 -0.2329
11742W        W54680  19.468  11.303   8.541 -0.2648  0.0272  0.2173
11743W        W54681  16.989   7.335   9.046 -0.1102 -0.2480 -0.0018
11744W        W54682  21.575   7.475   8.160 -0.0752 -0.3461 -0.2852
11745W        W54683  20.810   8.515   9.944  0.0144 -0.2365 -0.3373
11746W        W54684  18.939   8.166   7.966  0.2254  0.1312  0.1731
11747W        W54685  21.415   8.852   7.464  0.1178 -0.1451 -0.4257
11748W        W54686  19.794   9.849   9.595  0.0992 -0.0677 -0.1074
11749W        W54687  18.951  10.158   9.059 -0.0352 -0.1291  0.3833
11750W        W54688  19.613  10.229   7.815  0.0475 -0.0034  0.1682
11751W        W54689  19.893   8.941   6.526 -0.2559  0.0812 -0.1877
11752W        W54690  18.678   7.874   9.341 -0.0086 -0.2151  0.0646
11753W        W54691  20.079   7.248   7.037 -0.0592 -0.0891 -0.1581
11754W        W54692  19.592   7.560   8.885 -0.1173  0.1610 -0.2352
11755W        W54693  20.441   8.850   9.311 -0.0930  0.3036 -0.0142
11756W        W54694  18.319   8.640   7.549  0.2643 -0.0682 -0.1001
11757W        W54695  22.004   9.835   8.292  0.1770  0.0019  0.0768
11758W        W54696  21.903   7.806   9.059 -0.0178  0.3428  0.1030
11759W        W54697  18.930  10.946   7.587 -0.0705 -0.0986 -0.0248
11760W        W54698  20.833  10.758   8.896  0.3089  0.3279  0.0577
11761W        W54699  19.818  11.565   8.760 -0.1715  0.2237  0.3023
11762W        W54700  18.830   8.837   8.823 -0.3171  0.0014  0.0552
11763W        W54701  18.846  10.729  11.882  0.0130  0.0919  0.0355
11764W        W54702  22.119   9.219   9.059  0.1534  0.0958 -0.6153
11765W        W54703  19.536   6.179   8.570 -0.0425  0.0194 -0.4921
11766W        W54704  18.751   8.946   9.369 -0.1084  0.0286  0.3268
11767W        W54705  18.286  10.825   7.542  0.2053 -0.0566  0.3461
11768W        W54706  20.187   9.384   8.425  0.1277  0.0340  0.0072
11769W        W54707  20.534  10.547   7.344  0.1382 -0.2073 -0.1163
11770W        W54708  21.212  11.200   9.061 -0.1099  0.1874 -0.0476
11771W        W54709  17.991   8.119   7.619  0.2870 -0.1450  0.1010
11772W        W54710  20.830   9.541   8.610  0.3172  0.1250  0.0577
11773W        W54711  19.480   9.932   7.440 -0.1609  0.2531  0.0366
11774W        W54712  22.126   8.476   9.619 -0.0605  0.0245 -0.1221
11775W        W54713  20.958   9.155   9.359  0.1439  0.1147  0.1093
11776W        W54714  20.189  10.194   9.584 -0.0592 -0.0628 -0.0385
11777W        W54715  19.165   7.263   8.674  0.2277  0.0771 -0.0805
11778W        W54716  21.480   6.095   8.315  0.2019 -0.0140  0.1873
11779W        W54717  21.475   7.105   7.469  0.1263  0.2471  0.2134
11780W        W54718  18.941   8.536   8.317  0.1954  0.0647 -0.0898
11781W        W54719  16.597   7.873   7.708  0.0658  0.0882 -0.3657
11782W        W54720  17.614   9.791   5.121  0.0357 -0.0433  0.1893
11783W        W54721  19.107   9.180   8.550 -0.1857 -0.2612  0.0334
11784W        W54722  19.224   8.559   7.914 -0.0430 -0.0988 -0.0307
11785W        W54723  18.243   7.606   9.295  0.1016 -0.0685 -0.3399
11786W        W54724  21.588  10.195   8.584 -0.2041  0.0379 -0.4846
11787W        W54725  19.093   6.895   9.116 -0.0364  0.1350  0.1575
11788W        W54726  16.837   6.567   8.825 -0.3273 -0.1690 -0.0608
11789W        W54727  21.472  10.889   9.968 -0.2504  0.1949 -0.0131
11790W        W54728  22.131  10.840   7.482  0.0751 -0.6943  0.2067
11791W        W54729  19.459   6.920   7.893 -0.1569  0.0995 -0.2382
11792W        W54730  18.440   7.445   6.950 -0.2133 -0.2349  0.0098
11793W        W54731  18.748   8.626   9.765  0.1238  0.1206 -0.0800
11794W        W54732  21.465  11.349   6.944  0.0574 -0.0005 -0.3470
11795W        W54733  21.187  11.152   8.559 -0.1983  0.0888  0.2181
11796W        W54734  21.241   7.711   9.994  0.0625 -0.1046  0.0813
11797W        W54735  21.321   8.634   6.498 -0.2862  0.0852 -0.1256
11798W        W54736  22.630   9.932   7.659  0.0843 -0.1251 -0.0245
11799W        W54737  21.603   7.901   9.423  0.0432 -0.0152  0.3239
11800W        W54738  21.263   9.539   8.321 -0.0704 -0.2230 -0.0096
11801W        W54739  21.762   9.095   9.564  0.0240  0.0624 -0.1003
11802W        W54740  19.560   7.079   9.054  0.0360 -0.0502  0.0050
11803W        W54741  21.232   9.439   6.972  0.0672  0.1991 -0.0771
11804W        W54742  20.301  10.800   7.775  0.1457  0.0487  0.0649
11805W        W54743  19.260   7.745   8.538 -0.2286  0.3635  0.0579
11806W        W54744  19.745   9.250   8.570 -0.1172 -0.0155 -0.1078
11807W        W54745  20.090  10.155   8.628 -0.1826  0.3122 -0.2585
11808W        W54746  20.001   9.267   6.153 -0.2959 -0.2085 -0.0711
11809W        W54747  21.525   8.460   8.758  0.0912  0.0437  0.1140
11810W        W54748  20.804   9.750   9.187  0.1587 -0.0211 -0.1182
11811W        W54749  19.765  11.624   9.505 -0.1783 -0.0762 -0.2296
11812W        W54750  19.209  10.011   8.496 -0.1135  0.0282  0.0694
11813W        W54751  19.382   7.828   7.914 -0.1700 -0.2489  0.0004
11814W        W54752  18.812   9.629   6.659 -0.0120  0.0929  0.3571
11815W        W54753  20.437  10.350  10.079  0.1813 -0.2433 -0.0519
11816W        W54754  20.371   9.355   9.989  0.2895  0.0992 -0.1524
11817W        W54755  19.138   8.235   8.803 -0.2234 -0.1706 -0.1085
11818W        W54756  19.706   8.180   9.664 -0.1603 -0.1008  0.2049
11819W        W54757  20.960  13.674   9.511 -0.3792 -0.1434 -0.3147
11820W        W54758  19.505  10.126   8.848  0.0863  0.0271 -0.3738
11821W        W54759  19.673  13.001   1.841  0.0516  0.0141  0.1637
11822W        W54760  19.151  12.640   0.764  0.0586 -0.0056 -0.2342
11823W        W54761  20.161  11.485   1.238 -0.0941 -0.0904 -0.0931
11824W        W54762  20.952  12.107   0.597 -0.0966 -0.2268  0.0004
11825W        W54763  18.491  12.581   1.193  0.1626 -0.2308 -0.0538
11826W        W54764  21.515  14.481   0.951 -0.0370  0.3020 -0.1124
11827W        W54765  17.394  10.548   1.161 -0.0392 -0.0315  0.0928
11828W        W54766  21.305  13.345   1.347  0.0025 -0.1918  0.3164
11829W        W54767  20.266  13.643   1.834  0.0369 -0.2253  0.0144
11830W        W54768  21.119  14.180  29.355 -0.0639  0.0975 -0.2470
11831W        W54769  20.136  10.365   1.246  0.0447 -0.1796 -0.1742
11832W        W54770  20.648  14.398   2.439 -0.0199 -0.0381 -0.0787
11833W        W54771  18.706  11.715   1.166  0.0318 -0.0964  0.3219
11834W        W54772  17.435  10.058   1.328 -0.4094 -0.1762 -0.2835
11835W        W54773  19.710  11.047   1.564  0.1839 -0.1789 -0.1209
11836W        W54774  18.929  12.390  31.338 -0.1546 -0.1651  0.3090
11837W        W54775  19.421  13.368   2.081  0.0470  0.1098  0.0017
11838W        W54776  20.431  12.575  31.820 -0.4164 -0.1332 -0.2742
11839W        W54777  20.840  14.213   1.470  0.3236  0.2034 -0.2113
11840W        W54778  18.728  10.670   1.108 -0.0047 -0.1472 -0.1285
11841W        W54779  20.125  11.947   2.199  0.0547  0.0866  0.1150
11842W        W54780  19.376  13.003  31.881 -0.0335 -0.0356  0.3343
11843W        W54781  19.264  11.904   0.121  0.0205 -0.0743  0.0289
11844W        W54782  18.845  12.280   0.935 -0.0722  0.0342  0.4898
11845W        W54783  20.254  13.873   0.524  0.0427  0.0530 -0.1152
11846W        W54784  19.899  12.572   2.697 -0.1478  0.1088  0.0522
11847W        W54785  20.960  11.870   1.483  0.0874 -0.0590 -0.0170
11848W        W54786  20.179  14.349   0.673 -0.0176 -0.2730 -0.0751
11849W        W54787  20.580  13.308   1.861  0.0365 -0.0226  0.4213
11850W        W54788  20.825  12.703   3.051 -0.3631 -0.0690  0.1120
11851W        W54789  19.589  13.192   0.330 -0.2677 -0.0403 -0.0201
11852W        W54790  19.358  13.078   0.911 -0.4046 -0.0073 -0.2553
11853W        W54791  18.164  14.378  31.038  0.0975 -0.0193  0.1217
11854W        W54792  21.402  13.603  31.896 -0.1422  0.0242  0.0587
11855W        W54793  20.342  12.892   2.629  0.3089 -0.1923 -0.0253
11856W        W54794  19.730  14.462   1.864  0.1736  0.1359 -0.0764
11857W        W54795  18.621  13.292  30.793 -0.1183  0.1334 -0.1304
11858W        W54796  20.993  13.610   2.083 -0.1648  0.0140 -0.0284
11859W        W54797  18.871  14.384   2.767  0.0154 -0.0489  0.0089
11860W        W54798  19.738  12.059   2.496  0.1136 -0.0989  0.1740
11861W        W54799  21.430  12.065   1.536 -0.2785  0.1823 -0.3301
11862W        W54800  20.832  13.779  29.594 -0.0024 -0.1158  0.0762
11863W        W54801  20.305  13.395   1.370  0.3321  0.1546 -0.1714
11864W        W54802  19.215  14.040   3.004  0.1801 -0.2427 -0.0889
11865W        W54803  18.276  13.927   1.511 -0.1167  0.2306  0.1069
11866W        W54804  21.709  10.824   4.191 -0.1440  0.0989  0.2100
11867W        W54805  18.828  13.623  31.113  0.1955 -0.0358 -0.0974
11868W        W54806  21.353  10.778   0.701 -0.2072 -0.0000  0.1908
11869W        W54807  19.132  11.575  31.729 -0.4993  0.0106 -0.1739
11870W        W54808  21.198   9.868   1.465 -0.2005  0.0039 -0.3064
11871W        W54809  21.413   9.933   1.027  0.1604 -0.2765  0.1682
11872W        W54810  18.025  14.525   2.441  0.0346 -0.2702  0.0420
11873W        W54811  19.046  12.698   1.337  0.0879  0.1664  0.2524
11874W        W54812  21.542  11.901   3.550  0.1298  0.1239 -0.2197
11875W        W54813  19.380  14.062  31.465 -0.0002  0.0555 -0.1872
11876W        W54814  20.449  11.703   1.555  0.0481 -0.1242  0.1503
11877W        W54815  19.947  13.827   1.433  0.0156  0.1982  0.2456
11878W        W54816  17.486  12.729  31.596  0.1523  0.2248  0.0962
11879W        W54817  21.089  13.224   1.791 -0.0664  0.1995  0.1000
11880W        W54818  21.113  13.555  29.926 -0.0388  0.2888 -0.1977
11881W        W54819  19.517  12.221   0.758  0.0634 -0.3049 -0.0323
11882W        W54820  18.724  12.260   1.457 -0.0832 -0.2814 -0.0190
11883W        W54821  19.401  12.512   3.490  0.0067  0.1619  0.1693
11884W        W54822  20.016  12.255   0.558  0.4089  0.2566 -0.1485
11885W        W54823  21.397  13.313   3.078 -0.1232 -0.0552 -0.0674
11886W        W54824  17.961  13.923   3.142  0.0048 -0.2867 -0.0757
11887W        W54825  23.115  10.452   2.549  0.1702 -0.0412  0.3845
11888W        W54826  20.580  13.394   0.353 -0.2496 -0.1082 -0.0283
11889W        W54827  20.955  12.455   1.392 -0.0369 -0.1508 -0.1274
11890W        W54828  20.755  11.666   0.770 -0.0610 -0.0043 -0.0242
11891W        W54829  20.605  11.036   2.640 -0.0415 -0.3073  0.1169
11892W        W54830  20.805  10.524   4.100  0.2667 -0.0536 -0.0627
11893W        W54831  19.332  13.678  31.194 -0.0509  0.3009  0.0414
11894W        W54832  19.817  13.286  31.837  0.1589  0.3886  0.0333
11895W        W54833  22.591  13.535   2.238  0.0502 -0.1508  0.1128
11896W        W54834  21.249  11.291   0.845 -0.3883  0.1750  0.0858
11897W        W54835  19.453  14.010   1.622 -0.2453  0.0026  0.0001
11898W        W54836  19.135  11.134   2.280  0.1615 -0.0380 -0.0717
11899W        W54837  18.490  13.280   3.077 -0.0614  0.1007 -0.1441
11900W        W54838  18.472  13.769  31.476 -0.1825 -0.0583 -0.0652
11901W        W54839  18.000  11.400   0.195 -0.1940  0.1580  0.1380
11902W        W54840  19.243  12.728  31.152 -0.0032  0.2963  0.1533
11903W        W54841  17.076  11.191   3.884 -0.1523 -0.0415  0.3039
11904W        W54842  19.659  14.366   1.356 -0.0193  0.1307 -0.1271
11905W        W54843  19.117   9.642   1.354  0.0218 -0.2281 -0.0186
11906W        W54844  18.369  12.748   3.055 -0.2088 -0.0390  0.0355
11907W        W54845  21.392  11.358   2.208  0.0516 -0.1387  0.1190
11908W        W54846  19.324  13.630  31.736 -0.0533  0.2063  0.1413
11909W        W54847  20.954  14.780  31.364 -0.3956 -0.0107  0.4559
11910W        W54848  21.393  11.005  31.299  0.0290 -0.2791  0.0257
11911W        W54849  20.756  12.361  31.519 -0.0360 -0.1382 -0.3765
11912W        W54850  17.731  12.742   1.236 -0.3694 -0.0638  0.0117
11913W        W54851  18.425  10.528   1.954  0.0319 -0.0476 -0.1014
11914W        W54852  18.896  13.050   2.924 -0.1302  0.0813  0.1297
11915W        W54853  17.159  11.210   1.821  0.4636 -0.3193  0.1780
11916W        W54854  21.399  10.894   4.631  0.1630  0.2521 -0.0152
11917W        W54855  18.978  13.238  28.766 -0.0641 -0.0675  0.0489
11918W        W54856  20.154  11.425   2.089  0.1436 -0.3016 -0.0067
11919W        W54857  20.942  13.119   0.184 -0.0760 -0.2424 -0.3050
11920W        W54858  17.031  12.562  30.278 -0.1505  0.1076  0.0169
11921W        W54859  21.361  11.775   4.196 -0.1089  0.2266 -0.4011
11922W        W54860  21.164  12.745  31.890  0.1829  0.0826 -0.0849
11923W        W54861  22.348  13.627   0.929 -0.0365  0.1632  0.0517
11924W        W54862  21.433  14.112   1.991  0.1225  0.4882 -0.0108
11925W        W54863  18.224  11.482   3.547  0.1998 -0.2178  0.0353
11926W        W54864  18.045  11.461   1.836 -0.0332 -0.4057 -0.2981
11927W        W54865  19.798  15.015  31.188 -0.4191  0.2318  0.1683
11928W        W54866  19.665  13.874   2.788  0.2212 -0.1943  0.0468
11929W        W54867  19.758  11.828   1.120 -0.4418  0.0700  0.2698
11930W        W54868  21.854  14.509   1.384 -0.1253  0.2200 -0.1425
11931W        W54869  19.303  13.844   0.319 -0.3505 -0.0175  0.1315
11932W        W54870  19.435  12.579   1.660 -0.2176 -0.2558 -0.1118
11933W        W54871  20.683  10.530   2.705  0.0264 -0.0796 -0.0504
11934W        W54872  20.783  11.886   2.972  0.1812  0.1230 -0.3237
11935W        W54873  20.293  13.112   0.055  0.0109  0.0536 -0.1444
11936W        W54874  19.804  10.969  31.968  0.3639  0.2290 -0.2006
11937W        W54875  20.144  14.298   1.171 -0.0975 -0.2784  0.1991
11938W        W54876  17.705  15.078   0.113 -0.1800 -0.0438  0.2205
11939W        W54877  17.192  14.049  29.608  0.0804  0.0332 -0.1993
11940W        W54878  20.529  13.927   1.183  0.0818 -0.0631 -0.1486
11941W        W54879  21.806   9.713   1.172  0.0952  0.1317 -0.0760
11942W        W54880  16.994  11.326   2.801 -0.0526 -0.1425  0.2060
11943W        W54881  19.874  11.590   1.663  0.0636  0.0229 -0.2485
11944W        W54882  19.718  12.783  30.941 -0.2488 -0.2708  0.1098
11945W        W54883  19.472  14.360   2.724  0.0840  0.2248  0.0303
11946W        W54884  19.075  11.621   2.067  0.0292  0.1107 -0.2408
11947W        W54885  21.428  11.657   1.126  0.3809 -0.0898  0.0474
11948W        W54886  18.787  12.908   2.254 -0.1013 -0.0145  0.3886
11949W        W54887  21.687  13.903   1.032 -0.1962 -0.0454 -0.2129
11950W        W54888  21.565  12.340   2.437  0.2088 -0.0158 -0.0077
11951W        W54889  21.166  10.876  31.810  0.1811 -0.1455  0.1849
11952W        W54890  18.070  12.527   3.358 -0.6556 -0.0340 -0.0837
11953W        W54891  20.085  13.975  30.712 -0.2716  0.0983 -0.1121
11954W        W54892  19.298  12.802   2.305  0.0660  0.0427 -0.2091
11955W        W54893  20.693  12.999  31.735 -0.0592  0.1109  0.0742
11956W        W54894  22.243  13.349   0.377  0.1085  0.0729 -0.2250
11957W        W54895  18.733  13.466   1.795  0.0471 -0.0003  0.1304
11958W        W54896  20.626  13.573   3.909 -0.1057  0.0649 -0.3081
11959W        W54897  20.918  14.095   1.985  0.0025 -0.3645  0.0535
11960W        W54898  18.477  12.402   2.029  0.0379 -0.2043 -0.2449
11961W        W54899  18.908  12.466  31.939  0.1707  0.0729 -0.0816
11962W        W54900  19.209  10.839   1.346 -0.1660  0.1999  0.1202
11963W        W54901  17.129  15.055  31.261 -0.1579 -0.1223 -0.0110
11964W        W54902  20.928  11.899   3.454 -0.4145 -0.1409  0.4898
11965W        W54903  19.556  11.810   2.106  0.3138  0.2232  0.1516
11966W        W54904  19.286  10.093   3.112 -0.1215  0.1009 -0.1687
11967W        W54905  20.732  10.378   3.238  0.1937  0.0512  0.1773
11968W        W54906  21.256  11.848  31.869  0.1326  0.3282 -0.0974
11969W        W54907  20.500  11.490   2.418 -0.1445  0.0539 -0.1414
11970W        W54908  19.965  11.649  31.965 -0.0573 -0.1973 -0.0633
11971W        W54909  20.644  12.360   2.583 -0.0666  0.0884 -0.0513
11972W        W54910  18.651  11.844   0.684  0.1929 -0.0139  0.2004
11973W        W54911  19.212  14.495   1.595 -0.2878 -0.0233  0.1301
11974W        W54912  21.183  12.464   4.428 -0.0484  0.0447  0.1288
11975W        W54913  21.073  11.645   1.992  0.0449  0.0180  0.0826
11976W        W54914  20.107  12.168   3.388  0.1010  0.2008 -0.0318
11977W        W54915  20.264  10.848   0.738  0.1081  0.0909 -0.1743
11978W        W54916  17.970  14.532  31.851  0.1040 -0.0454  0.2995
11979W        W54917  19.777  13.627  31.405  0.0876  0.1123 -0.2081
11980W        W54918  17.909  10.471   1.731  0.1644  0.1132 -0.0561
11981W        W54919  19.743  14.023   0.471 -0.0096  0.3287 -0.0992
11982W        W54920  18.112  13.875  31.145  0.0690  0.2498 -0.4823
11983W        W54921  20.129  13.673   0.997  0.0933 -0.2038  0.2042
11984W        W54922  18.163  14.708  31.419 -0.2275 -0.2473 -0.1221
11985W        W54923  20.905  10.723   2.244  0.0072  0.1293 -0.1341
11986W        W54924  18.243  13.874   2.386 -0.1401 -0.0532 -0.1846
11987W        W54925  19.530  10.072   0.043  0.0417 -0.0196  0.1099
11988W        W54926  20.277  13.694   0.041  0.2412 -0.1925  0.1141
11989W        W54927  23.015  10.492   0.724  0.2328  0.0218 -0.1911
11990W        W54928  20.474  12.408   0.295  0.1234 -0.1437  0.1345
11991W        W54929  20.054  12.637   1.677 -0.1582 -0.0632  0.1618
11992W        W54930  20.112  11.091   2.452  0.2116  0.1463 -0.2120
11993W        W54931  19.104  15.232   1.749 -0.0842 -0.3164 -0.0732
11994W        W54932  19.790  12.346   2.041  0.0447  0.0539  0.0592
11995W        W54933  19.133  10.330   1.293 -0.1992 -0.1258  0.2763
11996W        W54934  20.425  13.153   3.024  0.3044 -0.1978 -0.0383
11997W        W54935  19.738  13.478   1.703  0.2202 -0.0033  0.0137
11998W        W54936  18.415  11.454   0.431 -0.2031  0.0268  0.0847
11999W        W54937  21.106  12.816   2.574  0.1376 -0.1378 -0.1975
12000W        W54938  18.905  13.095   0.013  0.0617 -0.3731  0.2307
12001W        W54939  19.383  13.121   1.445 -0.1450  0.0880  0.1317
12002W        W54940  21.317  13.266   2.247 -0.2217 -0.2278  0.0060
12003W        W54941  19.709  12.419  29.751  0.0980 -0.2321  0.0911
12004W        W54942  18.866  13.060  31.174 -0.1945 -0.1412 -0.0205
12005W        W54943  20.026  11.634   3.640  0.2805 -0.2222 -0.0296
12006W        W54944  20.935  11.921   4.413 -0.0062 -0.1514  0.1789
12007W        W54945  18.484  11.252   1.952  0.1634 -0.1435  0.0167
12008W        W54946  19.089  11.916   1.595 -0.1649  0.2832 -0.3313
12009W        W54947  20.565  12.885   0.534 -0.1074 -0.0675 -0.0401
12010W        W54948  21.034  12.136   1.884  0.2793  0.0775 -0.0099
12011W        W54949  21.367  12.840   1.250  0.2568  0.1590  0.0951
12012W        W54950  17.927  13.251   2.839 -0.1417 -0.0475 -0.2723
12013W        W54951  19.693  11.275   2.008  0.2373  0.0245  0.1476
12014W        W54952  22.968  14.571   0.605  0.3887 -0.0309  0.0425
12015W        W54953  20.611  12.300   3.238 -0.1346 -0.2502  0.1139
12016W        W54954  19.161  13.476  30.763 -0.0608  0.0159 -0.1243
12017W        W54955  18.720  11.970   2.109 -0.0083 -0.2870  0.1573
12018W        W54956  19.754  13.801  31.977  0.1056 -0.2154 -0.0013
12019W        W54957  19.824  12.320   1.282 -0.1165  0.2167  0.1202
12020W        W54958  20.191  14.404   2.520 -0.1605  0.3316 -0.2810
12021W        W54959  19.093  14.068  30.964  0.3111 -0.0089 -0.1141
12022W        W54960  17.756  13.710   2.707  0.1757 -0.3027 -0.0589
12023W        W54961  21.983  12.376   0.734  0.4103  0.1794  0.0488
12024W        W54962  19.456  13.177  31.036  0.0143  0.4021 -0.0792
12025W        W54963  20.077  13.433   0.429  0.0775  0.0072  0.1138
12026W        W54964  23.370  11.888   1.890 -0.2464 -0.1663 -0.1479
12027W        W54965  21.049  13.045  30.104  0.2921 -0.2614 -0.3426
12028W        W54966  19.039  10.810   2.682  0.0398 -0.3845 -0.3851
12029W        W54967  18.398  11.060   2.906 -0.0843 -0.2232 -0.0506
12030W        W54968  21.208  13.182  31.718  0.0368 -0.2457  0.0433
12031W        W54969  19.503  11.520   3.303 -0.1681  0.0154  0.2248
12032W        W54970  19.860  14.887   3.840  0.1206  0.1458 -0.0348
12033W        W54971  19.308  13.308   3.689 -0.3951  0.3425 -0.2288
12034W        W54972  18.761  11.581   1.703  0.2558  0.1578  0.2826
12035W        W54973  19.210  12.111  31.663  0.0610  0.1142  0.4085
12036W        W54974  19.448  13.843   2.073  0.0471  0.0052  0.2910
12037W        W54975  20.616  11.796   1.996 -0.1114  0.0177  0.4502
12038W        W54976  21.259  12.333  31.534  0.0847  0.1328 -0.0622
12039W        W54977  21.149  10.997   2.757  0.0967 -0.0528 -0.0490
12040W        W54978  18.670  12.760   1.722 -0.1212  0.0438  0.0115
12041W        W54979  20.985  11.467   2.703  0.0755  0.0965 -0.2833
12042W        W54980  19.503  14.550  31.477 -0.0543  0.1088  0.1565
12043W        W54981  20.137  13.943  31.636  0.0711  0.2298  0.0371
12044W        W54982  19.031  11.717   3.189  0.1889 -0.1051 -0.0640
12045W        W54983  20.982  11.945   2.459 -0.2075 -0.2091  0.0913
12046W        W54984  19.535  10.826   2.336  0.2669  0.3016 -0.2520
12047W        W54985  21.206  11.534   3.791  0.3104  0.0077 -0.1704
12048W        W54986  19.526  11.178   2.863  0.4453  0.0448 -0.1699
12049W        W54987  20.085  11.687   2.618 -0.0627  0.2065 -0.1244
12050W        W54988  17.366  10.940   4.368 -0.1015 -0.0158 -0.0843
12051W        W54989  21.919  14.489   2.983  0.3280  0.0188 -0.0741
12052W        W54990  20.819  12.197   0.005 -0.1176  0.0231  0.1703
12053W        W54991  22.797  12.863   3.487 -0.0638  0.0452 -0.0749
12054W        W54992  21.096  12.396   2.273  0.2127  0.3093 -0.1406
12055W        W54993  22.124  12.012   0.006  0.1767  0.1173 -0.0537
12056W        W54994  18.895  11.518   2.503 -0.0666 -0.1661 -0.0097
12057W        W54995  21.148  12.828   4.786 -0.2166 -0.0484  0.1020
12058W        W54996  18.894  10.970   0.541  0.1933 -0.0478  0.1643
12059W        W54997  21.076  11.071   4.057  0.0369 -0.1024  0.0646
12060W        W54998  20.314  13.352  31.601 -0.2891  0.1437  0.2127
12061W        W54999  20.756  13.588   0.806  0.0681 -0.1294 -0.1369
12062W        W55000  20.622  12.869   1.540  0.0064  0.3302 -0.0007
12063W        W55001  19.115  13.004   1.870 -0.0390 -0.1129 -0.1925
12064W        W55002  18.125  14.388   3.120  0.2227 -0.3101  0.1166
12065W        W55003  18.381  11.683  31.728 -0.1056 -0.1335 -0.4862
12066W        W55004  19.780  13.587  30.319 -0.1080  0.2363 -0.1051
12067W        W55005  20.330  14.101   1.602 -0.1841 -0.1683 -0.0358
12068W        W55006  21.630  12.713   4.527 -0.1449 -0.0579  0.1879
12069W        W55007  19.265  12.229   1.232 -0.2865 -0.1302  0.1202
12070W        W55008  23.001  12.325   2.920  0.1228 -0.3588 -0.2306
12071W        W55009  19.153  12.777   0.299  0.1326  0.2727 -0.1171
12072W        W55010  19.355  10.033   0.845 -0.0576  0.2039  0.1627
12073W        W55011  20.352  13.350   2.283  0.3283  0.2143  0.0761
12074W        W55012  19.602  13.601   0.690 -0.0714 -0.2203 -0.0483
12075W        W55013  20.403  14.238  31.197 -0.0098 -0.1183  0.3602
12076W        W55014  20.018  11.260   2.911  0.3069 -0.1883  0.0635
12077W        W55015  20.509  11.454   2.940 -0.2312  0.2886  0.1715
12078W        W55016  19.871  13.142   0.807  0.0397  0.1899 -0.0273
12079W        W55017  22.258  12.530   3.015  0.1752 -0.1273 -0.1321
12080W        W55018  18.691  12.109   3.072  0.0306 -0.1173 -0.1218
12081W        W55019  19.660  12.891  31.437 -0.1091  0.0880  0.1184
12082W        W55020  20.269  12.132   2.842 -0.0355  0.1732 -0.3750
12083W        W55021  21.490  13.217   0.894  0.2057  0.2220  0.0549
12084W        W55022  19.131  13.984   1.196  0.3483  0.0647 -0.0512
12085W        W55023  16.859  12.230   2.985 -0.1985 -0.1772  0.1032
12086W        W55024  18.583  11.630   2.863  0.1854 -0.0723  0.3063
12087W        W55025  21.030  12.529   0.929  0.1315 -0.0622 -0.0990
12088W        W55026  18.249  11.561   0.859  0.0493 -0.0495  0.1138
12089W        W55027  20.108  12.896  31.638 -0.2022  0.4802 -0.1193
12090W        W55028  18.000  12.899   2.275  0.1185  0.2763 -0.0606
12091W        W55029  17.555  12.626   2.456  0.0099  0.1694  0.0693
12092W        W55030  19.435  15.042  31.582 -0.1347  0.1724 -0.2092
12093W        W55031  21.656  12.172  31.789  0.0319 -0.1773 -0.0614
12094W        W55032  19.592  12.751   0.607 -0.0701  0.1643 -0.0129
12095W        W55033  20.303  12.574   2.983 -0.1147  0.0134 -0.1384
12096W        W55034  20.373  13.597  30.509 -0.0553  0.0257 -0.0177
12097W        W55035  18.849  13.663   0.153  0.0748  0.1377  0.3826
12098W        W55036  19.255  14.800   0.620 -0.4818  0.1032  0.2697
12099W        W55037  21.400  13.181  31.215 -0.0579 -0.0103  0.3796
12100W        W55038  19.205  14.724  31.887  0.2459 -0.3930  0.0348
12101W        W55039  20.247  13.222   3.748  0.0070 -0.3604 -0.0651
12102W        W55040  21.270  10.473   1.944 -0.0334 -0.1644  0.1091
12103W        W55041  20.550  12.869   1.041 -0.0076 -0.1532  0.4641
12104W        W55042  23.849   9.966   0.261 -0.2924  0.1268  0.3232
12105W        W55043  20.748  14.926   2.602  0.0262  0.3094 -0.0046
12106W        W55044  20.660  13.834  31.466 -0.2074  0.1938 -0.4208
12107W        W55045  19.542   9.805  31.573 -0.1503  0.0174 -0.0102
12108W        W55046  18.348  12.557   2.459 -0.4328 -0.1947 -0.1856
12109W        W55047  21.607  11.820   2.558 -0.0501 -0.1679 -0.0732
12110W        W55048  19.306  14.321   2.125 -0.2384 -0.0693 -0.0418
12111W        W55049  23.035  14.643  31.433  0.1150  0.0190  0.0433
12112W        W55050  18.760  10.373  31.978  0.4395 -0.1873 -0.0421
12113W        W55051  18.512  12.807   0.094 -0.0029 -0.1077 -0.0712
12114W        W55052  22.749  11.275   2.913 -0.1264 -0.2272 -0.1020
12115W        W55053  20.619  13.918  30.164 -0.1160 -0.2500  0.1775
12116W        W55054  20.432  11.983   1.119  0.0163 -0.0672  0.2462
12117W        W55055  19.175  14.535   1.078 -0.1293  0.0546  0.2399
12118W        W55056  20.276  14.864   0.871  0.2776  0.1790  0.2398
12119W        W55057  19.764  14.790  31.828  0.2715  0.1339 -0.0159
12120W        W55058  19.261  11.723   1.164 -0.2785 -0.0534  0.1075
12121W        W55059  21.981  11.623   1.847 -0.0765  0.1390 -0.3532
12122W        W55060  19.550  11.990   1.580 -0.0826 -0.1253 -0.1698
12123W        W55061  24.214  12.115   2.237 -0.0359 -0.0828  0.0931
12124W        W55062  19.006  12.284   0.424 -0.0985 -0.1210 -0.2048
12125W        W55063  20.909  11.280   0.454  0.0335  0.0484 -0.0595
12126W        W55064  21.592  12.154   4.489  0.0355  0.0157 -0.2187
12127W        W55065  19.587  12.735   1.153 -0.0053  0.0771 -0.2081
12128W        W55066  19.620  12.395  31.233  0.2383 -0.0961  0.0776
12129W        W55067  21.795  13.024   1.295  0.1357  0.1621 -0.0749
12130W        W55068  19.794  11.966  29.735  0.1799 -0.0296 -0.3135
12131W        W55069  22.074  13.714   2.633 -0.3405 -0.0583  0.0218
12132W        W55070  17.800  12.184   1.285  0.0388 -0.0015  0.2994
12133W        W55071  19.586  11.538   0.706  0.0375 -0.0840 -0.1950
12134W        W55072  17.598  13.441  31.664 -0.1222 -0.0098  0.0148
12135W        W55073  18.380  11.596   2.344 -0.0697  0.1042 -0.3195
12136W        W55074  22.596  13.074   2.466  0.1717 -0.3548 -0.1786
12137W        W55075  19.808  10.200   2.519  0.0863  0.0182  0.2982
12138W        W55076  19.945  15.766  30.665 -0.2738  0.3004 -0.2173
12139W        W55077  19.950  10.819   1.135 -0.2061 -0.1275  0.1439
12140W        W55078  20.254  13.703  31.191  0.0877  0.0387 -0.1228
12141W        W55079  21.727  11.850  31.368  0.0745  0.0492 -0.1525
12142W        W55080  20.718  13.742   1.676  0.1540 -0.0769 -0.0897
12143W        W55081  18.423  12.999   2.625 -0.0417  0.2390  0.3446
12144W        W55082  19.903  12.822   2.236  0.1822 -0.0343 -0.0592
12145W        W55083  20.846  13.399   1.393  0.2288 -0.1084  0.2257
12146W        W55084  21.041  10.334   1.364 -0.1550 -0.1681  0.1612
12147W        W55085  18.993  12.402   1.885  0.0949  0.0728  0.1379
12148W        W55086  16.520  13.450   0.584  0.0141 -0.2500 -0.0034
12149W        W55087  21.765  11.251   1.385 -0.3179 -0.1841 -0.3130
12150W        W55088  20.992  11.000   3.548  0.3320  0.1168  0.0575
12151W        W55089  19.525  14.398  30.975 -0.2545  0.1926  0.2627
12152W        W55090  19.849  10.076   3.483 -0.0978  0.1433  0.0637
12153W        W55091  19.209  13.545   2.694 -0.3470  0.1724 -0.0898
12154W        W55092  17.430  13.465   3.022 -0.1067  0.0039  0.2694
12155W        W55093  18.887  13.808  30.499  0.4050 -0.0597 -0.4620
12156W        W55094  18.950  12.582   2.849  0.0285  0.1121 -0.0947
12157W        W55095  20.004  13.160  31.253 -0.2665 -0.0069  0.0752
12158W        W55096  19.015  14.457  31.392 -0.3153  0.0543 -0.0092
12159W        W55097  22.171  12.864   0.141 -0.1831  0.0822 -0.1177
12160W        W55098  19.289  11.029   0.870  0.2407 -0.0646  0.0190
12161W        W55099  21.782  13.077   2.138 -0.1235 -0.0924 -0.1126
12162W        W55100  19.808  12.684   0.027  0.1244 -0.1569 -0.1505
12163W        W55101  21.731  11.925   0.915  0.2383 -0.3620 -0.2064
12164W        W55102  20.241  11.083   1.721 -0.3186  0.1540  0.1100
12165W        W55103  20.535  12.337   2.085  0.2013 -0.2913 -0.1200
12166W        W55104  17.262  13.301  29.073  0.1518 -0.2682  0.2514
12167W        W55105  18.365  11.721  30.702  0.4239  0.1063 -0.3061
12168W        W55106  18.616  13.254   0.457 -0.0639  0.3969 -0.0818
12169W        W55107  19.809  10.676   2.746 -0.1690 -0.0584  0.0037
12170W        W55108  17.708  11.676   3.221 -0.3144 -0.0658  0.0236
12171W        W55109  19.482  12.380   0.243 -0.0374 -0.1771 -0.4279
12172W        W55110  18.191  12.015   2.149 -0.1060 -0.3609 -0.0751
12173W        W55111  20.696  13.690   2.608  0.2908 -0.0856  0.0234
12174W        W55112  18.108  10.957   1.805 -0.5503  0.0355  0.0723
12175W        W55113  18.339  12.050   1.053 -0.1284  0.1186  0.1324
12176W        W55114  21.299  12.858   0.531 -0.0735  0.0739  0.0881
12177W        W55115  21.673  12.959  31.944  0.0436  0.0335 -0.0673
12178W        W55116  20.000  11.210   0.846 -0.3732  0.2067 -0.2812
12179W        W55117  20.706  14.341   3.709  0.0469 -0.0767  0.1221
12180W        W55118  18.099  11.893  30.239 -0.1594 -0.2042 -0.1922
12181W        W55119  18.505  12.058   2.547 -0.1512  0.1203 -0.1484
12182W        W55120  20.677  11.433   3.734  0.1405  0.1210  0.0479
12183W        W55121  18.690  11.300   0.005 -0.4246 -0.0428 -0.0425
12184W        W55122  20.129  13.138   1.875 -0.1932 -0.0271 -0.4313
12185W        W55123  20.066  12.897   0.411 -0.0053  0.0909  0.0777
12186W        W55124  21.315  13.668   0.739  0.0830 -0.4496  0.1075
12187W        W55125  19.233  12.189   3.114 -0.0407 -0.0241  0.0599
12188W        W55126  20.278  14.432   2.013  0.1111  0.0414  0.0128
12189W        W55127  18.093  11.147   2.326  0.1013 -0.0315 -0.1189
12190W        W55128  20.471  11.306   0.763  0.1728  0.6221 -0.1616
12191W        W55129  18.854  13.597   3.008  0.4047 -0.3170 -0.0535
12192W        W55130  21.471  12.286   0.616 -0.0792 -0.1654  0.1545
12193W        W55131  21.896  11.789   3.043  0.1610 -0.1382  0.3221
12194W        W55132  21.250  13.812   1.609 -0.2078 -0.2212  0.0267
12195W        W55133  17.404  11.804   1.218 -0.0219 -0.2087  0.4768
12196W        W55134  19.376  11.496   1.656 -0.2675 -0.1236 -0.2003
12197W        W55135  21.402  13.285   0.333 -0.2262  0.1121  0.1567
12198W        W55136  18.642  10.852   1.655  0.1592 -0.1420  0.1471
12199W        W55137  20.438  12.457   1.337  0.1855 -0.1514 -0.0532
12200W        W55138  20.988  13.683   0.362  0.2268  0.0366  0.0756
12201W        W55139  17.870  12.738   2.872 -0.3313 -0.0378 -0.1372
12202W        W55140  19.371  11.064   0.374  0.0277  0.2245 -0.1104
12203W        W55141  20.174  12.123   1.697  0.1060  0.1566  0.0585
12204W        W55142  20.441  12.847   2.111  0.1820 -0.1925 -0.0475
12205W        W55143  19.442  11.979   3.504  0.0734  0.0053  0.2646
12206W        W55144  19.870  13.466  30.845 -0.0714 -0.1849  0.0246
12207W        W55145  21.001  13.064   0.926  0.0675  0.2159  0.2469
12208W        W55146  20.650  13.368   3.475 -0.2249 -0.0533 -0.1578
12209W        W55147  22.294  14.963   4.233  0.1104 -0.1120 -0.2500
12210W        W55148  20.105  13.431   2.751 -0.0355  0.0440  0.1633
12211W        W55149  21.452  11.538   1.668  0.1973 -0.0306 -0.0496
12212W        W55150  18.976  11.984   2.671 -0.2765  0.0049 -0.0069
12213W        W55151  18.774  12.789  31.577  0.2339  0.1562  0.0677
12214W        W55152  19.783  12.953  29.937 -0.0912 -0.2103  0.0143
12215W        W55153  21.142  12.393   3.328  0.0523 -0.2313  0.0969
12216W        W55154  18.643  11.116   2.391  0.1688  0.0227  0.1704
12217W        W55155  20.779  10.846   0.588  0.1813 -0.2260  0.1105
12218W        W55156  19.892  13.526   2.290  0.1031 -0.2009 -0.1181
12219W        W55157  19.729  12.130   3.028  0.0365 -0.0512  0.1207
12220W        W55158  19.075  14.150   5.704  0.2431  0.2760  0.0243
12221W        W55159  18.784  13.632   3.835 -0.1974 -0.1288 -0.2740
12222W        W55160  20.111  10.522   3.438  0.0338  0.2246  0.0752
12223W        W55161  19.982  12.937   4.666  0.0367  0.4830 -0.1177
12224W        W55162  18.581  12.286   4.516  0.0117 -0.0475  0.0094
12225W        W55163  20.438  13.997   3.986 -0.1095  0.0650  0.0593
12226W        W55164  18.673  11.310   4.253  0.1787  0.1099  0.0109
12227W        W55165  21.610  14.812   4.253 -0.0639  0.1036  0.1575
12228W        W55166  21.957  15.709   5.206  0.0365 -0.2937  0.0438
12229W        W55167  20.656  11.893   3.896 -0.0408  0.0507 -0.2037
12230W        W55168  20.033  13.148   5.830  0.0392  0.2197 -0.2107
12231W        W55169  20.179  14.515   5.129 -0.4085 -0.0915  0.1125
12232W        W55170  18.224  11.908   5.337 -0.3470  0.0802  0.3707
12233W        W55171  17.657  11.134   6.251 -0.2792 -0.1360 -0.0930
12234W        W55172  20.743  11.821   5.832  0.0176  0.2673 -0.0644
12235W        W55173  18.998  12.119   3.639  0.3652  0.0735 -0.2163
12236W        W55174  17.359  11.567   6.310 -0.2511  0.3426 -0.1795
12237W        W55175  20.453  12.799   4.019 -0.0988 -0.0868 -0.2633
12238W        W55176  20.671  14.398   4.222 -0.0835  0.3575 -0.4706
12239W        W55177  20.131  10.345   5.822 -0.0440 -0.0158 -0.1438
12240W        W55178  21.221  11.393   7.519 -0.0012 -0.2678  0.0958
12241W        W55179  18.562  14.068   3.717 -0.2364 -0.2835 -0.1276
12242W        W55180  17.757  12.977   3.300  0.0065  0.0169  0.1280
12243W        W55181  18.779  12.185   6.158 -0.0689 -0.0555 -0.0143
12244W        W55182  18.365  11.700   4.009 -0.1092  0.1295  0.0139
12245W        W55183  20.362  12.312   5.549  0.2704 -0.0355  0.1640
12246W        W55184  20.762  12.661   5.291 -0.1324 -0.0243  0.1200
12247W        W55185  19.850  13.399   4.704 -0.1358 -0.2095  0.2393
12248W        W55186  20.633  16.313   5.023 -0.1109  0.2848  0.2455
12249W        W55187  20.464  10.896   6.965 -0.1724  0.2965 -0.2303
12250W        W55188  18.426  13.656   4.481 -0.2242  0.1013  0.1152
12251W        W55189  17.366  14.839   5.926  0.1282 -0.0599  0.0126
12252W        W55190  19.883  13.850   4.525  0.0370 -0.0312 -0.0452
12253W        W55191  21.580  14.539   4.706  0.1853 -0.0498  0.2537
12254W        W55192  21.285  14.327   5.470  0.1741  0.4016  0.1267
12255W        W55193  20.278  16.054   7.787  0.0354 -0.1620 -0.0485
12256W        W55194  18.975  13.481   4.315 -0.1700 -0.1762 -0.1073
12257W        W55195  20.838  14.344   5.682  0.1875 -0.0216 -0.0015
12258W        W55196  18.889  15.178   6.550  0.1964  0.0338  0.0962
12259W        W55197  19.190  12.696   6.095 -0.0824  0.0592 -0.0680
12260W        W55198  19.554  12.177   4.576  0.0708  0.1353 -0.2302
12261W        W55199  18.609  14.623   3.122 -0.2551  0.1360 -0.1760
12262W        W55200  21.085  14.063   5.104  0.0068  0.2127 -0.1060
12263W        W55201  19.381  15.217   6.547 -0.0763 -0.2554 -0.0549
12264W        W55202  18.630  13.322   5.382  0.3228 -0.0230  0.3912
12265W        W55203  22.006  12.076   7.466  0.3067 -0.3818  0.3464
12266W        W55204  17.914  13.827   4.292 -0.1192  0.1451 -0.2955
12267W        W55205  21.476  12.768   3.569  0.4289  0.0544 -0.2539
12268W        W55206  18.998  11.267   2.942  0.1632 -0.1114  0.2791
12269W        W55207  20.539  11.067   4.081  0.2147  0.1100 -0.2823
12270W        W55208  18.068  11.961   5.817  0.0840 -0.1262 -0.1635
12271W        W55209  19.756  13.727   5.092 -0.0162  0.0245  0.4002
12272W        W55210  19.903  10.586   5.454  0.0910 -0.0560  0.0275
12273W        W55211  21.320  13.199   7.028  0.0842 -0.4334 -0.0578
12274W        W55212  19.559  13.035   4.304 -0.0843  0.3688 -0.0080
12275W        W55213  20.472  11.574   4.290  0.1451 -0.0859 -0.0439
12276W        W55214  19.890  14.284   5.914 -0.2707 -0.1076 -0.2739
12277W        W55215  17.568  12.849   4.596  0.3320  0.0400 -0.0524
12278W        W55216  22.085  13.693   1.849  0.0419 -0.1235 -0.0897
12279W        W55217  22.288  15.275   4.833  0.1392  0.0153 -0.1809
12280W        W55218  19.825  14.357   3.735 -0.1997 -0.3069  0.4540
12281W        W55219  18.576  12.765   3.584 -0.0484 -0.3237 -0.4308
12282W        W55220  18.662  13.124   6.506 -0.1524 -0.1200 -0.2948
12283W        W55221  18.629  12.772   6.215  0.3068  0.0783 -0.0006
12284W        W55222  18.471  12.293   3.477 -0.0441 -0.0734 -0.0164
12285W        W55223  22.485  13.472   7.334 -0.0509  0.0445  0.0772
12286W        W55224  19.525  13.115   5.656  0.1168  0.1944 -0.2001
12287W        W55225  22.096  10.610   5.400 -0.1880 -0.1911  0.3801
12288W        W55226  19.664  13.689   6.838 -0.0710  0.1340 -0.0989
12289W        W55227  21.113  12.748   5.689 -0.1230 -0.0120 -0.1680
12290W        W55228  18.871  12.454   2.380  0.3538  0.0967  0.2300
12291W        W55229  22.192   9.575   5.634  0.2329  0.1675  0.1105
12292W        W55230  21.739  10.439   5.782 -0.0099 -0.1216 -0.2177
12293W        W55231  19.472  13.340   3.182 -0.0169 -0.0228 -0.0051
12294W        W55232  19.133  11.545   3.623  0.1883  0.3650 -0.0212
12295W        W55233  20.750  13.639   5.283 -0.1014 -0.1257 -0.3487
12296W        W55234  21.114  11.316   4.750 -0.0074 -0.3136  0.4063
12297W        W55235  17.601  15.166   5.441  0.1207  0.0895  0.0749
12298W        W55236  19.811  12.054   5.878 -0.1377 -0.1082 -0.2406
12299W        W55237  20.352  14.428   5.627  0.1938  0.0575 -0.1657
12300W        W55238  18.621  14.358   1.712  0.0228  0.0608 -0.1465
12301W        W55239  18.162  13.234   5.696  0.0353 -0.4660 -0.1586
12302W        W55240  17.844  13.488   3.858 -0.1391 -0.1557  0.0863
12303W        W55241  17.906  11.324   5.123 -0.2757  0.0176 -0.1891
12304W        W55242  19.254  13.486   6.505 -0.0045 -0.0833  0.0746
12305W        W55243  20.883  10.430   4.637  0.0929  0.0333  0.1044
12306W        W55244  18.621  10.800   4.636 -0.1832 -0.0543  0.2251
12307W        W55245  21.367  12.997   6.486 -0.1098  0.2329 -0.1896
12308W        W55246  18.818  13.249   3.480  0.2503  0.0197 -0.1296
12309W        W55247  22.142  13.298   5.038  0.3646  0.1224  0.0324
12310W        W55248  20.364  13.973   4.484  0.1258  0.1008  0.0614
12311W        W55249  19.206  12.918   3.371  0.0938 -0.2449 -0.0542
12312W        W55250  18.406  12.364   5.863  0.0865 -0.0377  0.1549
12313W        W55251  17.287  11.473   4.170  0.2735 -0.3216  0.3011
12314W        W55252  19.603  10.987   5.013 -0.2996 -0.1646 -0.0596
12315W        W55253  17.552  12.060   3.995  0.1117  0.1785 -0.1705
12316W        W55254  21.677  11.532   5.181 -0.2304 -0.3119  0.0946
12317W        W55255  17.744  11.562   4.637  0.3927 -0.0346  0.1343
12318W        W55256  20.963  11.328   5.734 -0.3825 -0.1938  0.0297
12319W        W55257  17.867  11.731   4.110  0.1506 -0.2340 -0.0533
12320W        W55258  17.549  12.870   3.755  0.1723  0.0103  0.0140
12321W        W55259  20.574  11.838   6.842  0.2308 -0.1287  0.3061
12322W        W55260  20.235  13.703   3.616  0.1434 -0.1645 -0.0268
12323W        W55261  21.555  13.972   4.970  0.2423  0.0892  0.1060
12324W        W55262  21.763  14.288   5.419  0.2435 -0.3029 -0.0206
12325W        W55263  18.904  11.666   6.026  0.1552 -0.1698 -0.3142
12326W        W55264  20.058  10.714   4.775  0.0781 -0.1707 -0.0329
12327W        W55265  19.020  13.937   4.533  0.2591  0.2044  0.0250
12328W        W55266  18.502  15.024   5.728 -0.2603  0.1879  0.0789
12329W        W55267  18.575  13.183   3.921  0.1577 -0.1329 -0.0001
12330W        W55268  22.319  14.646   5.885 -0.0375 -0.0840  0.2750
12331W        W55269  19.825  12.603   4.312 -0.0138 -0.2996 -0.1904
12332W        W55270  17.681  13.383   6.043 -0.1187 -0.2793 -0.1042
12333W        W55271  21.783  10.974   6.674 -0.0414 -0.3421  0.0480
12334W        W55272  21.396  13.124   5.088  0.0455 -0.0328  0.0257
12335W        W55273  20.982  11.458   4.296 -0.0218 -0.5863 -0.0246
12336W        W55274  18.185  10.919   4.310 -0.0545  0.0064  0.1103
12337W        W55275  21.117  14.623   3.563 -0.0317 -0.3302 -0.1716
12338W        W55276  17.694  14.675   3.086  0.1478  0.0481 -0.1522
12339W        W55277  17.110  12.635   3.310  0.1458  0.1743 -0.0819
12340W        W55278  18.058  13.052   4.668 -0.0874  0.0802  0.0259
12341W        W55279  21.289  10.994   5.998  0.2374 -0.1624  0.0620
12342W        W55280  17.448  13.003   6.348 -0.0730  0.0147 -0.2041
12343W        W55281  20.072  11.597   5.188  0.2065 -0.0118  0.0185
12344W        W55282  18.801  13.578   4.831  0.1597  0.2012  0.3394
12345W        W55283  18.253  15.205   6.669 -0.1648  0.1225  0.1048
12346W        W55284  19.779   9.896   4.680 -0.1215 -0.0376 -0.1021
12347W        W55285  21.121  11.567   5.184  0.1180 -0.0874  0.1640
12348W        W55286  20.727  12.349   6.445 -0.0359 -0.0781 -0.1158
12349W        W55287  21.295  14.126   3.558 -0.0529 -0.0797  0.0993
12350W        W55288  19.339  11.601   2.794  0.0180 -0.2802 -0.2270
12351W        W55289  19.788  10.363   3.904  0.0159 -0.2428  0.3347
12352W        W55290  18.789  14.445   6.425 -0.1877  0.3222 -0.0609
12353W        W55291  19.493  13.576   4.287 -0.3029 -0.0121  0.1741
12354W        W55292  19.182  13.355   5.206  0.1055 -0.0707 -0.1066
12355W        W55293  19.921  11.749   4.303  0.1915  0.3284 -0.0171
12356W        W55294  22.383  13.565   4.622  0.0916  0.0925 -0.1911
12357W        W55295  15.555  12.892   5.347  0.1710  0.2390 -0.0497
12358W        W55296  21.537  11.782   7.828  0.2255 -0.1763 -0.2934
12359W        W55297  20.921  13.069   3.911  0.2709  0.0204 -0.0234
12360W        W55298  19.929  11.402   6.444 -0.1548 -0.2084 -0.0282
12361W        W55299  19.008  11.164   1.781  0.1290  0.0712  0.0525
12362W        W55300  21.406  11.093   5.125  0.2193 -0.1852 -0.1618
12363W        W55301  17.227  15.691   3.382  0.2005  0.2029  0.0684
12364W        W55302  21.396  12.313   5.725  0.0969  0.0871  0.0455
12365W        W55303  22.011  11.389   6.530  0.1973 -0.0783  0.1869
12366W        W55304  20.201  11.122   6.073 -0.0904  0.0892  0.0521
12367W        W55305  22.192  12.373   6.415 -0.3758 -0.1430 -0.2345
12368W        W55306  21.343  12.883   4.111 -0.0502  0.0452 -0.1626
12369W        W55307  19.315  12.572   4.357 -0.0891 -0.1864  0.2072
12370W        W55308  19.465  12.854   3.876 -0.1943  0.0367  0.0312
12371W        W55309  20.195  11.695   6.111  0.0710  0.3605  0.0702
12372W        W55310  18.251  12.033   6.266 -0.2389 -0.2422  0.3022
12373W        W55311  18.056  15.494   5.343 -0.1512  0.4002  0.2091
12374W        W55312  21.207  11.783   5.641 -0.0042  0.1596  0.0252
12375W        W55313  19.943  12.415   4.875 -0.1153 -0.0989 -0.0171
12376W        W55314  20.363  10.665   6.151 -0.2470 -0.1621 -0.1442
12377W        W55315  20.989  12.212   4.909 -0.1371  0.1321 -0.3255
12378W        W55316  19.253  14.462   4.554  0.0858  0.1859 -0.3060
12379W        W55317  18.536  14.053   4.977 -0.2289  0.0229  0.2250
12380W        W55318  19.370  10.535   5.167  0.1958 -0.2684  0.3878
12381W        W55319  20.007  14.163   5.455  0.1139 -0.2978  0.0919
12382W        W55320  20.010  13.870   3.158 -0.0430 -0.2983  0.1026
12383W        W55321  20.959  12.732   6.247  0.2812  0.2704 -0.2554
12384W        W55322  19.545  14.079   4.806 -0.1697  0.1394 -0.0504
12385W        W55323  23.372  10.377   5.630  0.0026  0.0219  0.1579
12386W        W55324  17.177  13.994   5.429 -0.0846 -0.4657 -0.0993
12387W        W55325  19.594  11.483   3.835  0.0480  0.0999  0.1769
12388W        W55326  17.823  12.872   4.176 -0.0958  0.4978  0.0315
12389W        W55327  21.879   9.791   5.304 -0.1795 -0.0206  0.0604
12390W        W55328  21.088  12.060   3.924 -0.2180 -0.1536 -0.2345
12391W        W55329  19.074  12.149   5.310  0.2694  0.0072 -0.2647
12392W        W55330  21.321  10.287   4.932  0.0973  0.0768 -0.1934
12393W        W55331  18.200  14.513   5.457 -0.3193  0.3946 -0.1022
12394W        W55332  20.655  11.677   5.333 -0.1658  0.1472  0.0886
12395W        W55333  19.352  11.300   4.775  0.1627  0.1618  0.1952
12396W        W55334  20.376  12.836   5.686 -0.1531 -0.0478  0.1733
12397W        W55335  18.351  12.448   6.534 -0.1752  0.2500 -0.1060
12398W        W55336  18.567  12.164   3.966  0.0312 -0.0681  0.2516
12399W        W55337  21.502  11.637   6.505 -0.2704 -0.0627 -0.0559
12400W        W55338  18.656  11.783   3.492  0.1227  0.2662 -0.1508
12401W        W55339  17.275  14.337   3.750 -0.1821  0.2568 -0.2503
12402W        W55340  19.910  14.745   5.531 -0.0604  0.1572 -0.1808
12403W        W55341  19.626  13.213   2.578 -0.4197  0.0359 -0.0485
12404W        W55342  18.751  12.992   4.986 -0.2367 -0.1139 -0.0161
12405W        W55343  19.905  12.300   5.406  0.3012 -0.0545 -0.0310
12406W        W55344  20.251  11.836   5.646 -0.4143  0.0012 -0.0329
12407W        W55345  19.270  11.722   5.085 -0.1076 -0.0680 -0.0875
12408W        W55346  18.214  12.252   4.973  0.0197 -0.3749 -0.1951
12409W        W55347  19.368  11.842   4.161 -0.0331 -0.4204  0.0907
12410W        W55348  20.118  13.703   5.883  0.3207  0.1282  0.2005
12411W        W55349  18.685  11.995   5.628 -0.0562 -0.5888 -0.1228
12412W        W55350  19.300  15.059   5.008  0.1191  0.1094 -0.0565
12413W        W55351  19.826  11.971   4.967  0.1618 -0.0621 -0.0116
12414W        W55352  21.636  13.810   2.723  0.2460 -0.1581 -0.0630
12415W        W55353  20.405  13.343   5.529 -0.5902  0.3594 -0.0827
12416W        W55354  18.714  14.049   3.135  0.0006 -0.2641 -0.0236
12417W        W55355  17.675  11.921   5.386 -0.1318 -0.0128 -0.0421
12418W        W55356  18.534  13.131   4.463  0.2562  0.1261  0.0317
12419W        W55357  18.854  11.663   5.335 -0.0379  0.0550  0.1918
12420W        W55358  19.676  13.166   6.655 -0.1896  0.1779 -0.3101
12421W        W55359  18.442  13.693   5.675  0.3073  0.1772 -0.2299
12422W        W55360  16.906  14.740   5.597 -0.3113  0.0869 -0.4230
12423W        W55361  21.088  10.733   4.961 -0.0247  0.2018 -0.2243
12424W        W55362  19.585  14.144   3.273  0.3604  0.0172 -0.0840
12425W        W55363  19.927  12.189   4.005 -0.3805  0.0032  0.0936
12426W        W55364  21.384  12.126   6.898  0.1639  0.1186 -0.2889
12427W        W55365  19.463  12.302   3.923  0.2646 -0.0983  0.1839
12428W        W55366  20.146  10.902   6.594  0.0131  0.0905 -0.0039
12429W        W55367  18.802   9.831   4.719  0.1414 -0.1498 -0.1515
12430W        W55368  20.193  13.708   5.317 -0.0422  0.1570 -0.2648
12431W        W55369  16.978  12.821   5.454 -0.1444  0.1693 -0.0982
12432W        W55370  20.752  13.947   6.657 -0.2233  0.2762  0.0254
12433W        W55371  20.034  12.598   7.304 -0.2066  0.1343  0.1287
12434W        W55372  20.883  10.934   4.531 -0.0126 -0.0395 -0.0277
12435W        W55373  19.166  11.285   4.039  0.4465 -0.4105  0.1402
12436W        W55374  19.175  12.049   5.837 -0.0481 -0.0008 -0.2733
12437W        W55375  20.630  12.735   7.240  0.0362 -0.1794 -0.5217
12438W        W55376  20.020  12.716   3.815  0.1450  0.2860  0.0728
12439W        W55377  22.222  11.386   6.033 -0.0742  0.1107 -0.1309
12440W        W55378  20.522  13.930   5.611  0.2959  0.0766  0.0477
12441W        W55379  20.542  12.131   4.706 -0.1264 -0.1179 -0.1908
12442W        W55380  20.269  12.509   4.430 -0.3703 -0.0345  0.0503
12443W        W55381  19.212  13.097   4.667 -0.2135  0.0562 -0.0272
12444W        W55382  18.911  10.440   6.047  0.0598  0.3028 -0.1709
12445W        W55383  20.223  12.680   5.212  0.2890  0.1094  0.0093
12446W        W55384  20.137  11.059   5.197 -0.1297  0.0410 -0.0162
12447W        W55385  20.620  11.879   6.323 -0.2443  0.0912 -0.0352
12448W        W55386  19.602  11.405   5.266  0.1273  0.0393 -0.3200
12449W        W55387  18.393  12.372   7.176 -0.4264  0.1907  0.1032
12450W        W55388  18.341  11.528   6.384  0.1388  0.1905  0.0833
12451W        W55389  20.984  15.011   4.794 -0.4025 -0.0823  0.0459
12452W        W55390  22.651  11.290   5.257  0.1979 -0.0991 -0.1807
12453W        W55391  21.406  12.100   6.228  0.1875  0.0033 -0.1704
12454W        W55392  20.951  13.254   6.163 -0.0776  0.3479 -0.2006
12455W        W55393  21.454  11.257   4.301  0.1852 -0.0964 -0.0824
12456W        W55394  19.190  13.199   6.069  0.0712 -0.0681  0.0679
12457W        W55395  21.173  12.432   6.578 -0.0217  0.1159 -0.2449
12458W        W55396  19.422  10.859   4.529  0.1725 -0.1954  0.0122
12459W        W55397  21.768  10.513   6.842  0.1763 -0.0066 -0.0770
12460W        W55398  19.864  13.849   4.009  0.0687  0.2435 -0.3876
12461W        W55399  20.594  12.586   4.822 -0.1724 -0.2710  0.3301
12462W        W55400  20.885  13.296   4.868 -0.2217  0.1786 -0.2359
12463W        W55401  16.826  11.760   4.430  0.0767 -0.0155 -0.1793
12464W        W55402  18.024  14.801   6.885 -0.0799 -0.0083 -0.0331
12465W        W55403  18.354  10.989   3.479 -0.2725  0.2813  0.0470
12466W        W55404  20.061  13.396   3.277  0.0618  0.0562 -0.0989
12467W        W55405  20.760  13.791   4.779 -0.1378 -0.0434  0.2318
12468W        W55406  20.344  13.556   4.862  0.0512  0.5466 -0.2870
12469W        W55407  18.836  10.318   5.388  0.3896  0.2791 -0.3955
12470W        W55408  20.426  11.325   6.544  0.2608  0.0611  0.0038
12471W        W55409  18.854  13.771   5.375  0.3565  0.1248  0.2837
12472W        W55410  20.380  11.293   5.597 -0.2046  0.4056 -0.3365
12473W        W55411  19.029  14.209   5.048  0.2538 -0.1226 -0.0064
12474W        W55412  17.652  14.147   5.576  0.0781 -0.0078  0.1011
12475W        W55413  18.084  13.451   5.173  0.2146  0.0441 -0.1982
12476W        W55414  19.926  11.067   5.658 -0.2462  0.1245 -0.0887
12477W        W55415  21.347  11.827   4.764 -0.1471 -0.1093 -0.0403
12478W        W55416  19.575  12.695   4.779 -0.0388 -0.1360 -0.0446
12479W        W55417  20.244  12.154   6.568 -0.0194  0.1351 -0.3638
12480W        W55418  20.317  12.027   5.125  0.0197  0.0535 -0.3178
12481W        W55419  18.973  12.969   5.668  0.1479  0.0304 -0.3684
12482W        W55420  20.078  14.539   6.342  0.1615 -0.0341 -0.0913
12483W        W55421  21.644  13.471   4.804 -0.0827  0.0370  0.3248
12484W        W55422  18.139  13.257   4.182  0.1957 -0.0075 -0.0504
12485W        W55423  19.470  12.441   5.685  0.1006  0.2833 -0.1470
12486W        W55424  19.517  11.691   4.606  0.2111 -0.4078 -0.0199
12487W        W55425  18.459  12.838   5.729 -0.1904 -0.1265 -0.4570
12488W        W55426  19.116  10.818   4.881 -0.0685 -0.1660 -0.0089
12489W        W55427  19.749  13.000   3.496 -0.2399  0.0433 -0.0062
12490W        W55428  18.549  15.533   5.343 -0.1538  0.0844  0.1762
12491W        W55429  18.191  13.133   6.188  0.0036 -0.1094 -0.0386
12492W        W55430  17.504  13.848   3.542  0.2831  0.1369 -0.0017
12493W        W55431  20.797  12.854   4.431  0.2091 -0.0600  0.3438
12494W        W55432  20.274  14.281   3.408  0.1066  0.1998 -0.0330
12495W        W55433  19.586  14.492   5.121  0.0104 -0.0942  0.2449
12496W        W55434  19.935  10.940   4.343 -0.1452  0.0167  0.0773
12497W        W55435  17.194  12.830   5.021 -0.2905 -0.1220 -0.2080
12498W        W55436  19.184  15.053   2.791 -0.1747  0.1843 -0.4665
12499W        W55437  20.842  13.928   4.302 -0.2917 -0.1302  0.1140
12500W        W55438  19.066  14.388   4.009  0.1148  0.2343  0.2469
12501W        W55439  21.242  13.685   6.222  0.2213  0.0516 -0.0669
12502W        W55440  20.716  10.957   3.115 -0.4336 -0.2888 -0.1326
12503W        W55441  21.857  13.079   4.002  0.0216 -0.4695 -0.1795
12504W        W55442  22.203  12.144   4.257  0.2482  0.2973 -0.1137
12505W        W55443  21.047  13.865   5.582 -0.0242 -0.1088  0.0556
12506W        W55444  20.915  12.185   5.388  0.1478  0.0456 -0.0983
12507W        W55445  19.908  11.337   4.679  0.1060 -0.1398 -0.0811
12508W        W55446  19.224  13.819   6.123 -0.0345 -0.0779 -0.1491
12509W        W55447  21.742  11.191   6.104 -0.0416  0.1467 -0.1327
12510W        W55448  18.597  15.429   6.145 -0.0600  0.1079 -0.0289
12511W        W55449  19.930  12.999   2.924  0.0174 -0.0473  0.1491
12512W        W55450  17.233  11.754   3.748 -0.1310  0.1702  0.3415
12513W        W55451  18.129  12.049   4.502 -0.2027 -0.0773  0.0416
12514W        W55452  21.550  10.169   5.381 -0.1547 -0.1909  0.0575
12515W        W55453  19.433  12.867   2.900  0.1813 -0.3775 -0.1003
12516W        W55454  20.105  11.327   3.979 -0.3961  0.0028  0.1159
12517W        W55455  19.169  14.306   3.527 -0.0127 -0.3205 -0.3914
12518W        W55456  18.639  13.256   5.916  0.0466  0.0624  0.0030
12519W        W55457  19.107  15.347   6.071  0.1969 -0.1566 -0.1117
12520W        W55458  16.880  11.217   4.350  0.1542  0.0566 -0.1253
12521W        W55459  21.952  12.824   5.050 -0.1948 -0.1006  0.0836
12522W        W55460  19.483  10.942   5.532  0.2883 -0.0045  0.0808
12523W        W55461  21.888  11.053   5.186 -0.2812 -0.1612 -0.2412
12524W        W55462  19.369  13.559   4.828  0.0312 -0.2469 -0.0513
12525W        W55463  21.656  12.448   4.924  0.1969  0.1845  0.2086
12526W        W55464  19.482  12.345   5.095 -0.3676  0.0074  0.0526
12527W        W55465  18.957  12.531   4.885 -0.0531 -0.3313 -0.0498
12528W        W55466  20.013  11.717   3.172 -0.1548  0.0071  0.2947
12529W        W55467  20.545  13.588   6.336 -0.2061 -0.2134 -0.0469
12530W        W55468  19.841  11.172   3.502  0.0230 -0.1216  0.1966
12531W        W55469  21.097  14.715   7.501  0.1383 -0.2729  0.0369
12532W        W55470  19.039  12.000   4.687  0.0220  0.0641  0.4141
12533W        W55471  21.318  10.676   5.453 -0.2415 -0.0032 -0.2174
12534W        W55472  18.162  11.689   4.916 -0.1510 -0.2785  0.2224
12535W        W55473  20.351  14.101   6.032  0.2112  0.0913  0.3208
12536W        W55474  20.873  14.017   6.057  0.2210 -0.0122  0.3341
12537W        W55475  18.174  11.410   4.398  0.1236  0.3594 -0.1075
12538W        W55476  21.850  14.064   3.925 -0.1034 -0.0039  0.0341
12539W        W55477  21.966  11.409   5.592  0.0162 -0.1389 -0.0852
12540W        W55478  19.474  14.163   4.251  0.0935 -0.2828 -0.1599
12541W        W55479  20.889  13.143   5.396 -0.2042 -0.0170 -0.1641
12542W        W55480  20.677  14.875   4.369 -0.0828 -0.0506 -0.1130
12543W        W55481  17.451  12.648   5.496 -0.2172  0.3903 -0.1326
12544W        W55482  21.458  13.175   4.504  0.0656  0.2353 -0.0395
12545W        W55483  21.952  14.473   4.296  0.0532 -0.1653  0.1941
12546W        W55484  18.582  11.210   6.087  0.4431 -0.1565  0.1140
12547W        W55485  19.191  12.685   5.297 -0.2259 -0.0364 -0.1602
12548W        W55486  17.749  14.318   3.441  0.2415 -0.3296  0.0328
12549W        W55487  22.460  11.821   6.859 -0.0446 -0.2301  0.3051
12550W        W55488  22.329  11.011   5.476 -0.1686  0.0544 -0.1360
12551W        W55489  20.432  13.945   2.173  0.0131  0.2299 -0.2417
12552W        W55490  21.723  11.850   5.598 -0.3147  0.0647  0.0296
12553W        W55491  20.350  14.497   4.648  0.2670  0.1402  0.2086
12554W        W55492  19.512  14.374   5.602 -0.0852  0.0477 -0.1719
12555W        W55493  18.987  12.209   4.206 -0.1225 -0.1091 -0.1923
12556W        W55494  20.008  13.239   5.159  0.4379  0.0634  0.0695
12557W        W55495  19.626  13.729   3.603 -0.3494 -0.1245 -0.1473
12558W        W55496  17.811  13.481   3.358  0.1587 -0.1312 -0.0530
12559W        W55497  21.116  14.606   4.450  0.2207 -0.1074 -0.0389
12560W        W55498  17.391  11.841   4.461 -0.0526  0.2904  0.1720
12561W        W55499  22.086  14.648   5.400 -0.1291 -0.3119 -0.0220
12562W        W55500  20.386  11.211   4.560  0.1800 -0.1177 -0.0180
12563W        W55501  22.471  10.499   4.584  0.2468  0.0183  0.3572
12564W        W55502  20.336  10.289   5.346  0.1790  0.3020  0.2577
12565W        W55503  18.291  13.035   5.182 -0.0291 -0.0181 -0.4022
12566W        W55504  18.513  13.455   2.448 -0.0657 -0.0377  0.0713
12567W        W55505  18.912  12.501   3.344 -0.1773 -0.1216  0.1555
12568W        W55506  18.132  13.635   6.164  0.1684 -0.0132  0.2797
12569W        W55507  19.857  10.472   6.829  0.1077 -0.0396  0.1401
12570W        W55508  18.122  12.654   6.098  0.2618  0.1349 -0.1531
12571W        W55509  18.844  12.747   4.450  0.1947  0.1220  0.1977
12572W        W55510  18.853  11.706   3.980 -0.0384  0.3214  0.3335
12573W        W55511  21.684  13.552   4.307 -0.1760 -0.0089 -0.1297
12574W        W55512  18.294  10.343   5.276 -0.0004  0.0614 -0.1990
12575W        W55513  16.918  11.768   6.201 -0.1005 -0.1665 -0.1600
12576W        W55514  20.418  13.108   4.590 -0.0118  0.1724 -0.0660
12577W        W55515  20.852  12.803   6.795 -0.0851  0.1731  0.3898
12578W        W55516  20.413  12.400   3.760  0.1243 -0.1055  0.0477
12579W        W55517  21.534  12.435   7.862  0.0581 -0.0424 -0.0374
12580W        W55518  19.191  13.543   1.638 -0.1647  0.2165 -0.0573
12581W        W55519  20.350  12.681   6.208  0.0816  0.1009  0.0588
12582W        W55520  19.026  11.089   5.900  0.0794 -0.0508 -0.0041
12583W        W55521  18.648  12.444   5.289  0.0420 -0.0836 -0.1979
12584W        W55522  20.802  11.692   4.818  0.0261  0.0125  0.0655
12585W        W55523  20.045  13.055   4.193  0.0509 -0.2398  0.2172
12586W        W55524  20.976  13.728   3.135 -0.0927 -0.2271  0.0521
12587W        W55525  19.625  12.887   6.118 -0.2255 -0.1240  0.0522
12588W        W55526  18.960  14.585   5.400  0.0393  0.0175  0.1425
12589W        W55527  18.151  12.869   6.637  0.0724  0.1063 -0.0742
12590W        W55528  20.803  13.426   4.371 -0.1153 -0.1815 -0.2482
12591W        W55529  20.525  14.090   5.166  0.2041 -0.1536 -0.1931
12592W        W55530  19.754  13.311   3.916 -0.0492  0.0248 -0.0984
12593W        W55531  21.332  12.866   7.532 -0.2043 -0.1497 -0.0760
12594W        W55532  20.223  12.871   3.357  0.2637 -0.0588  0.2288
12595W        W55533  20.172  11.497   6.941  0.0772 -0.2498 -0.2558
12596W        W55534  20.560  13.073   6.521 -0.0818  0.0973  0.0114
12597W        W55535  21.415  12.078   5.221  0.4663  0.1219  0.0476
12598W        W55536  18.414  11.428   5.253  0.0707 -0.1837  0.0258
12599W        W55537  22.499  11.535   5.667  0.2780  0.2643 -0.4318
12600W        W55538  21.563  14.527   3.836  0.2398 -0.0865 -0.1048
12601W        W55539  17.298  12.145   5.636 -0.0563 -0.1375 -0.2500
12602W        W55540  20.739  12.380   4.264  0.1711 -0.2168 -0.1335
12603W        W55541  19.119  11.259   5.211 -0.0329 -0.0527  0.3586
12604W        W55542  20.201  13.513   4.361  0.0074  0.0666 -0.0654
12605W        W55543  21.490  12.605   6.921  0.0583  0.0507 -0.0069
12606W        W55544  19.573  11.264   4.291 -0.2732 -0.1365 -0.2264
12607W        W55545  22.388  11.998   4.670 -0.2583  0.0758 -0.1892
12608W        W55546  19.773  15.261   3.394  0.1743  0.0675  0.2104
12609W        W55547  22.225  13.889   7.721 -0.0471 -0.1279 -0.2676
12610W        W55548  19.364  15.095   4.023 -0.2485 -0.0163 -0.0011
12611W        W55549  20.494  13.024   5.070 -0.1865 -0.2046  0.0227
12612W        W55550  18.496  10.864   5.225  0.0114  0.0270  0.0425
12613W        W55551  19.006  13.050   4.091 -0.3179  0.1927 -0.1094
12614W        W55552  19.567  13.185   5.024 -0.0749  0.3843 -0.0649
12615W        W55553  21.713  12.511   6.465  0.0918  0.1296  0.0890
12616W        W55554  19.752  12.772   5.189 -0.3036 -0.1127 -0.3721
12617W        W55555  20.440  11.790   3.330  0.1629  0.0417  0.0364
12618W        W55556  20.082  14.088   4.900 -0.1890 -0.0290  0.0548
12619W        W55557  20.519  13.156   6.010 -0.1276  0.0084 -0.0034
12620W        W55558  18.564  12.513   8.638 -0.0514  0.1821 -0.1725
12621W        W55559  20.300  11.293   8.001 -0.2559  0.0010 -0.3188
12622W        W55560  20.223  11.759   4.709 -0.3413 -0.2556 -0.2181
12623W        W55561  20.666  12.485   8.174  0.0614  0.3853  0.5000
12624W        W55562  19.867  10.628   8.161 -0.2481  0.1032 -0.0917
12625W        W55563  22.678  14.617   8.066  0.0659 -0.1709  0.0409
12626W        W55564  22.433  13.446   9.844  0.1904  0.2323  0.0838
12627W        W55565  18.914  14.368   8.343  0.2507 -0.2203 -0.2092
12628W        W55566  18.895  12.492   5.733 -0.0929  0.0420 -0.1810
12629W        W55567  18.453  11.003   8.778 -0.1307  0.3788 -0.0579
12630W        W55568  20.399  10.133   6.231  0.2066 -0.2696 -0.0934
12631W        W55569  19.535  11.843   9.111 -0.1144  0.3886  0.0425
12632W        W55570  20.421  14.708   9.815  0.1404 -0.1201 -0.0025
12633W        W55571  18.802  12.496   7.514  0.1649 -0.1252 -0.1934
12634W        W55572  19.163  11.769   8.178  0.0223  0.4801  0.2018
12635W        W55573  20.677  12.322   7.569 -0.2763 -0.1430  0.1805
12636W        W55574  20.909  13.935   9.944  0.0657 -0.0167 -0.2356
12637W        W55575  19.975   9.333   9.535 -0.0819  0.2633 -0.0050
12638W        W55576  19.603  13.910   5.778  0.1097 -0.0800 -0.2434
12639W        W55577  17.322  13.102   5.797 -0.1274 -0.0434 -0.1469
12640W        W55578  16.776  12.883   8.012 -0.0611 -0.2461  0.2236
12641W        W55579  18.595  13.825   8.900 -0.1284  0.4084 -0.1838
12642W        W55580  19.414  10.885   8.865  0.2550  0.0358  0.2655
12643W        W55581  19.895  12.835   9.522 -0.1633 -0.2741  0.1305
12644W        W55582  19.849  13.431   8.644 -0.1843 -0.0248  0.0676
12645W        W55583  19.551  14.374   7.500  0.0362 -0.1774  0.0593
12646W        W55584  18.770  13.406   7.483  0.2071  0.2167 -0.1824
12647W        W55585  17.772  15.063   8.830  0.1389 -0.0844 -0.0334
12648W        W55586  18.878  14.321   6.908  0.1635 -0.0687 -0.2763
12649W        W55587  20.058  13.362   9.621 -0.1284 -0.0620 -0.0651
12650W        W55588  18.441  13.587   6.677  0.0756 -0.3697  0.1269
12651W        W55589  18.953  12.922   7.321 -0.2057 -0.1995 -0.1281
12652W        W55590  20.677  11.667   9.496 -0.2807  0.0362 -0.0402
12653W        W55591  19.543  14.426   6.420  0.1261  0.1498 -0.2735
12654W        W55592  18.396  13.889   7.618  0.0372 -0.1109 -0.2742
12655W        W55593  17.781  13.166   8.682 -0.0467 -0.1067  0.1125
12656W        W55594  19.011  13.862   7.643 -0.2852 -0.2503 -0.0600
12657W        W55595  21.682  11.526   7.396  0.2711 -0.1443  0.1490
12658W        W55596  19.099  11.924   6.508  0.1798 -0.0011  0.0921
12659W        W55597  20.620  11.864   7.775  0.0888 -0.2101  0.0058
12660W        W55598  18.275  11.182   8.315 -0.2268 -0.0060  0.1502
12661W        W55599  17.960  14.433   8.459 -0.0997 -0.1453 -0.2864
12662W        W55600  17.395  12.199   9.619  0.3121  0.0842 -0.0401
12663W        W55601  20.327  12.661   7.738 -0.0757  0.1575  0.0034
12664W        W55602  20.265  14.092   9.070 -0.0678  0.0465  0.0141
12665W        W55603  17.246  13.247   8.708 -0.1947  0.0589  0.2374
12666W        W55604  20.298  12.358   8.633  0.0838  0.1763 -0.0226
12667W        W55605  20.895  13.104   7.481  0.2407 -0.0837 -0.2570
12668W        W55606  20.705  13.996   9.184  0.0492 -0.5881 -0.1100
12669W        W55607  20.419  15.001   5.521 -0.2780  0.0024 -0.2827
12670W        W55608  19.102  11.935   7.289 -0.1887  0.4013  0.1547
12671W        W55609  19.418  12.168   6.836  0.1246  0.4093 -0.2398
12672W        W55610  22.122  12.709   9.138 -0.0269 -0.4905 -0.0102
12673W        W55611  19.865  12.970   8.605 -0.1723 -0.1113 -0.1900
12674W        W55612  21.994  16.657  10.051  0.1205 -0.3525  0.2249
12675W        W55613  22.518  14.296   7.693  0.0134 -0.0861 -0.1080
12676W        W55614  22.859  12.203   9.421 -0.1974 -0.0171  0.1164
12677W        W55615  22.596  14.964  11.526  0.1869 -0.1019 -0.0199
12678W        W55616  19.751  13.126   7.608 -0.1531 -0.0617  0.1425
12679W        W55617  19.050  14.419   7.351 -0.3276  0.2377 -0.0446
12680W        W55618  20.172  14.737   9.132  0.3392  0.0534  0.0588
12681W        W55619  19.965  12.612   5.772 -0.0249  0.3040  0.0701
12682W        W55620  18.747  14.808   8.998  0.4733  0.2568  0.4029
12683W        W55621  18.060  16.208   7.038 -0.2314  0.1563  0.1287
12684W        W55622  21.078  13.293   9.870 -0.0285  0.2225  0.0689
12685W        W55623  18.868  13.990   6.491 -0.0735 -0.2220  0.0241
12686W        W55624  18.083   9.144   8.617  0.0063  0.0322 -0.3751
12687W        W55625  19.583  12.744   9.082 -0.5692  0.1603  0.1703
12688W        W55626  21.731  11.860   8.986 -0.1503  0.3949  0.1354
12689W        W55627  21.122   8.930   9.792 -0.0177 -0.1898  0.1774
12690W        W55628  17.651  14.114   7.737  0.2738 -0.1003 -0.2634
12691W        W55629  20.296  14.366   6.740  0.0838 -0.0638 -0.1233
12692W        W55630  20.287  11.498   8.508  0.2048 -0.2171  0.4638
12693W        W55631  21.206  13.968   7.523  0.1965 -0.2984  0.1989
12694W        W55632  18.789  11.431   8.386 -0.0651 -0.2363  0.1902
12695W        W55633  19.472  11.653   6.745 -0.1351 -0.1984  0.0450
12696W        W55634  17.904  12.535   8.664  0.0415 -0.2221 -0.0251
12697W        W55635  18.873  12.262   6.974  0.0801 -0.3885 -0.1458
12698W        W55636  21.090  12.724   8.737  0.1175  0.0392  0.1069
12699W        W55637  19.924  12.433   6.889  0.1891 -0.1483 -0.1028
12700W        W55638  17.972  13.648   7.914  0.0851  0.0065 -0.0726
12701W        W55639  19.742  14.897   7.467 -0.0899 -0.0238 -0.0863
12702W        W55640  18.615  14.981   8.570  0.1266 -0.0650 -0.1749
12703W        W55641  20.515  15.336   7.109  0.0404  0.1418  0.4514
12704W        W55642  18.114  11.528   9.059  0.0028  0.1938  0.1221
12705W        W55643  20.001  12.153   7.604 -0.2216 -0.0212  0.5404
12706W        W55644  19.493  14.593   7.003  0.0654 -0.1047 -0.0073
12707W        W55645  19.915  14.451   8.784  0.1964  0.0816 -0.0861
12708W        W55646  19.567  12.567   7.310  0.1194 -0.1632  0.1312
12709W        W55647  20.394  12.341   9.952  0.0985 -0.1565  0.0783
12710W        W55648  21.660  11.222   7.827 -0.1131 -0.3149  0.0746
12711W        W55649  21.908  13.638   9.615  0.0762 -0.2355 -0.1626
12712W        W55650  20.171  12.725   8.288  0.0476 -0.0815  0.1973
12713W        W55651  18.544  11.712   4.474  0.1212  0.2099  0.0469
12714W        W55652  20.482  14.360   8.121 -0.1733  0.0989  0.1837
12715W        W55653  18.618  14.854   6.847 -0.0028  0.2063 -0.0606
12716W        W55654  19.323  12.294   8.171 -0.0763  0.0017  0.3827
12717W        W55655  20.350  14.211   8.597  0.1952 -0.1003  0.0602
12718W        W55656  21.520  11.458   8.779 -0.0908 -0.1076 -0.0849
12719W        W55657  18.633  12.697   6.862  0.1246  0.2198  0.0472
12720W        W55658  19.429  10.851   8.326 -0.0303  0.0738  0.0731
12721W        W55659  20.359  12.165   7.181  0.1587  0.0023  0.0403
12722W        W55660  20.402  13.071   7.966  0.0921 -0.1391  0.0415
12723W        W55661  19.927  12.404   6.218 -0.1707  0.3685  0.1086
12724W        W55662  20.575  11.046   7.433  0.0537 -0.0090  0.0434
12725W        W55663  20.547  13.717   7.061  0.2841 -0.0895 -0.0283
12726W        W55664  19.420  13.690   8.688  0.1566 -0.1687  0.1619
12727W        W55665  19.837  11.530   5.689 -0.1121  0.1927  0.0053
12728W        W55666  20.254  13.285   8.374  0.1140  0.1893 -0.1452
12729W        W55667  18.244  12.160   8.606  0.1381 -0.1238  0.2110
12730W        W55668  19.747  14.188   6.846 -0.0567  0.0290 -0.0381
12731W        W55669  17.893  10.390   9.171  0.2545 -0.1378  0.0703
12732W        W55670  20.043  12.934   6.461 -0.0600 -0.1484 -0.0480
12733W        W55671  19.802  11.113   7.969  0.1004 -0.0544  0.1155
12734W        W55672  18.854  16.187   6.449  0.2866 -0.1742  0.0028
12735W        W55673  21.149  10.794   9.535 -0.1200  0.2640 -0.2508
12736W        W55674  19.148  13.505   9.507 -0.0340 -0.1398  0.3633
12737W        W55675  21.983  12.128   7.955  0.2416  0.0988  0.0323
12738W        W55676  18.122  12.374   9.561 -0.3867  0.0891 -0.2995
12739W        W55677  18.949  12.464   6.556 -0.4765  0.3026  0.0845
12740W        W55678  19.127  10.360   8.084 -0.2655  0.0852  0.0056
12741W        W55679  17.682  16.245   8.795 -0.0233 -0.3167  0.1327
12742W        W55680  20.774  11.933   7.279  0.0262  0.0532 -0.0678
12743W        W55681  20.187  11.756   7.393  0.1728  0.1208 -0.2420
12744W        W55682  20.010  14.114   7.743 -0.1464 -0.1056 -0.1078
12745W        W55683  19.443  13.206   7.097  0.0021  0.0239  0.0708
12746W        W55684  19.614  10.212   8.364  0.0279 -0.1233 -0.1068
12747W        W55685  21.764  12.678   9.572  0.0935  0.0502 -0.0083
12748W        W55686  19.393  14.970   5.503 -0.1108 -0.1195 -0.2750
12749W        W55687  20.256  12.797   9.864  0.1642  0.0709  0.1110
12750W        W55688  17.564  14.507   7.438  0.2113 -0.3584 -0.2873
12751W        W55689  22.895  11.864   9.801  0.1649  0.3303 -0.0881
12752W        W55690  19.051  13.393   8.495 -0.0711  0.0763 -0.0624
12753W        W55691  19.835  11.902   6.467 -0.1109  0.0257  0.5152
12754W        W55692  17.927  13.363   6.529 -0.0507  0.1099  0.0999
12755W        W55693  19.956  10.098   9.101 -0.0739 -0.1193 -0.3516
12756W        W55694  21.913  13.158   9.313  0.0434 -0.0405 -0.0478
12757W        W55695  18.843  12.247   9.643  0.0228 -0.1762 -0.4086
12758W        W55696  19.274  11.288   8.070 -0.0601 -0.2250 -0.0028
12759W        W55697  19.265  14.033   9.069 -0.0865 -0.0716  0.1776
12760W        W55698  21.494  11.652   8.328  0.1221 -0.0109  0.2109
12761W        W55699  18.218  11.078   6.662 -0.2636 -0.1633  0.0988
12762W        W55700  21.086  12.564   9.223 -0.0542 -0.0962  0.1642
12763W        W55701  19.530  11.864   8.509  0.0664 -0.1527  0.0533
12764W        W55702  18.832  12.440   8.072 -0.0202  0.1641  0.0371
12765W        W55703  19.450  14.195   8.599 -0.0364  0.1714 -0.3902
12766W        W55704  20.399  13.168   7.454 -0.1557  0.2400 -0.2057
12767W        W55705  18.831  12.014   7.863 -0.2302  0.1315  0.1252
12768W        W55706  21.788  10.736   9.320  0.2197 -0.0981  0.0079
12769W        W55707  19.763  12.356   8.753 -0.3841 -0.2474 -0.0978
12770W        W55708  20.832  12.311   8.610 -0.1901  0.0344  0.4867
12771W        W55709  21.005  12.139   9.063 -0.1036  0.5556  0.4305
12772W        W55710  20.342  12.986   9.373  0.2154 -0.1250 -0.2123
12773W        W55711  20.299  10.356   8.220  0.1470 -0.1558  0.0258
12774W        W55712  19.776   9.803   8.635 -0.1187  0.1081  0.0417
12775W        W55713  20.577  14.601   7.579 -0.0582 -0.2284 -0.5212
12776W        W55714  19.805  13.930   6.265 -0.0515 -0.0507  0.0205
12777W        W55715  17.790  12.844   8.006 -0.0374  0.3447 -0.0993
12778W        W55716  19.301  14.010   6.773  0.1017 -0.0660 -0.0156
12779W        W55717  19.728  12.205   9.335  0.0276 -0.0038  0.1225
12780W        W55718  19.113  13.049   8.183  0.0006 -0.0050 -0.3163
12781W        W55719  20.253  13.637   7.505 -0.1001  0.0689 -0.0831
12782W        W55720  19.673  14.106   8.131  0.0508  0.0396 -0.0116
12783W        W55721  22.049  10.822   8.449 -0.1834  0.0088 -0.2210
12784W        W55722  19.117  14.848   6.081 -0.1140 -0.2149 -0.1629
12785W        W55723  20.047  11.948   8.394 -0.0655 -0.4179 -0.0364
12786W        W55724  20.773  13.430   8.427  0.0915 -0.1399  0.0434
12787W        W55725  18.899  12.951   8.690 -0.0546 -0.1978  0.3875
12788W        W55726  21.043  12.603   7.839  0.1993  0.0691 -0.0685
12789W        W55727  20.771  11.372   7.791 -0.0122 -0.0883 -0.0870
12790W        W55728  19.132  11.348   6.364  0.0175 -0.0893 -0.0747
12791W        W55729  20.234  11.844   9.558  0.0273 -0.1125 -0.0857
12792W        W55730  19.811  13.138   9.118 -0.0519  0.0821 -0.1879
12793W        W55731  20.305  12.152   6.008 -0.1342 -0.2236  0.1650
12794W        W55732  22.016  11.846   8.480  0.0542  0.0611  0.0803
12795W        W55733  19.501  13.833   7.721  0.0317 -0.2012  0.3161
12796W        W55734  22.136  11.090   9.300  0.1368 -0.2200 -0.1156
12797W        W55735  19.263  12.256   7.650 -0.2356  0.0037 -0.0366
12798W        W55736  18.394  12.665   7.876 -0.0424 -0.0488 -0.0523
12799W        W55737  21.218  12.401   8.241 -0.0226 -0.0989 -0.1117
12800W        W55738  20.548  11.932   8.305  0.0537 -0.0375 -0.2316
12801W        W55739  19.538  13.559   9.163 -0.0086  0.0754 -0.0489
12802W        W55740  21.967  12.587   8.210  0.1123 -0.2144 -0.1099
12803W        W55741  19.356  11.867   9.623  0.1765 -0.0924 -0.0132
12804W        W55742  21.846  12.833   7.776  0.2704 -0.0582  0.0311
12805W        W55743  20.404  12.584   6.770  0.0167 -0.1658 -0.0540
12806W        W55744  17.947  11.530   8.528  0.3782  0.3865 -0.1335
12807W        W55745  19.409  12.256   6.246 -0.1647  0.0235 -0.0159
12808W        W55746  20.225  15.177   8.840 -0.0665 -0.3369 -0.0363
12809W        W55747  19.814  12.998   8.113 -0.2283  0.2084  0.1397
12810W        W55748  19.801  12.608   7.742 -0.0945  0.0268  0.2430
12811W        W55749  17.961  11.906   8.112 -0.0382  0.0545  0.0383
12812W        W55750  17.767  12.382   5.828 -0.1327 -0.1022  0.0266
12813W        W55751  19.552  11.924   5.485 -0.1875 -0.0879  0.2018
12814W        W55752  18.794  13.014   7.803 -0.4261  0.0615 -0.0887
12815W        W55753  20.969  11.646   8.563 -0.1118  0.1323 -0.1548
12816W        W55754  18.274  14.727   6.431  0.1922  0.2552 -0.1212
12817W        W55755  19.199  10.520   8.598 -0.3914  0.3581  0.1198
12818W        W55756  17.985  12.520   7.613  0.1481  0.0462 -0.0838
12819W        W55757  18.109  14.312   6.955  0.1384  0.1126 -0.1150
12820W        W55758  20.479  10.856   9.723  0.0998 -0.2180 -0.0397
12821W        W55759  20.625  12.647   9.027 -0.1805  0.1023  0.1197
12822W        W55760  19.064  12.437   8.603  0.2864  0.0964 -0.0698
12823W        W55761  19.609  12.003   7.951  0.2482 -0.4381  0.1097
12824W        W55762  20.623  13.443   9.250 -0.3170 -0.0099 -0.0459
12825W        W55763  18.991  13.472   8.013 -0.1848  0.2352 -0.0000
12826W        W55764  19.809  12.377   8.252  0.1292  0.0804 -0.1177
12827W        W55765  18.860  11.504   7.808 -0.4732  0.1270  0.0638
12828W        W55766  20.534  14.608   6.050  0.0701  0.2074 -0.2445
12829W        W55767  16.437  14.570  10.276  0.1939  0.2635  0.1784
12830W        W55768  19.166  14.787   8.141  0.0112 -0.2666 -0.0703
12831W        W55769  20.676  13.201   7.000 -0.2021  0.1741 -0.0925
12832W        W55770  19.936  13.019   7.028 -0.1754 -0.2487  0.1443
12833W        W55771  18.831  12.500   9.129 -0.2973 -0.0809 -0.1293
12834W        W55772  20.119  11.754   7.882  0.4187 -0.1573 -0.2315
12835W        W55773  17.662  14.886   8.347 -0.1226  0.1742  0.2569
12836W        W55774  18.627  14.946   6.222 -0.2308 -0.2653 -0.2697
12837W        W55775  20.217  13.366   6.838  0.1413 -0.1093 -0.1903
12838W        W55776  19.561  15.380   7.502 -0.1779  0.0387 -0.0139
12839W        W55777  19.999  11.209   7.498 -0.1098 -0.0320 -0.0055
12840W        W55778  21.058  12.200   9.673 -0.0093  0.2215  0.0960
12841W        W55779  20.784  11.264   8.815  0.1264 -0.0562 -0.1305
12842W        W55780  19.036  11.944   9.250 -0.2555  0.2611 -0.1839
12843W        W55781  19.461  11.662   6.103 -0.2049 -0.3958  0.1163
12844W        W55782  22.764  15.063   7.470  0.2219  0.0407 -0.1293
12845W        W55783  18.082  11.984   6.956 -0.1343  0.0124  0.2128
12846W        W55784  19.290  13.202   7.688 -0.1059 -0.3802  0.0557
12847W        W55785  22.214  11.341   9.816 -0.1216 -0.0305  0.0590
12848W        W55786  19.568  12.599   6.574  0.0055 -0.1848  0.1795
12849W        W55787  19.283   8.835   9.411  0.0971  0.1984 -0.1129
12850W        W55788  19.501  13.328   8.282  0.1036 -0.1842  0.1666
12851W        W55789  19.084  13.527   9.010  0.0857  0.0214 -0.1980
12852W        W55790  19.212  14.349   7.904 -0.0253  0.0241 -0.1799
12853W        W55791  19.132  11.352   7.381  0.0157  0.1197 -0.1820
12854W        W55792  21.846  10.531   8.852 -0.0437 -0.0441  0.3663
12855W        W55793  19.024  11.126   9.044  0.1768  0.0291  0.2760
12856W        W55794  19.245  12.673   6.946 -0.3012 -0.1126 -0.1183
12857W        W55795  20.763  10.450   9.672  0.4730  0.2619  0.2869
12858W        W55796  18.540  13.031   8.214  0.0607 -0.2422  0.2100
12859W        W55797  18.555  13.358   8.705 -0.2338 -0.3416 -0.0240
12860W        W55798  21.267  11.583   6.091 -0.0955 -0.2170  0.3964
12861W        W55799  21.066  11.933   6.537  0.2819  0.0569  0.2122
12862W        W55800  19.739  11.553   8.209 -0.1136 -0.3320  0.0126
12863W        W55801  20.643  11.486   7.172 -0.1714  0.2387 -0.0133
12864W        W55802  18.427  13.539   8.069 -0.2180 -0.1993  0.2596
12865W        W55803  18.665  10.655   8.374 -0.1106 -0.0008 -0.1015
12866W        W55804  19.322  10.529   7.590  0.1640  0.0737 -0.0306
12867W        W55805  20.776  12.295   6.919 -0.1505 -0.1850  0.1114
12868W        W55806  21.298  12.022   8.686  0.0687  0.1345 -0.0336
12869W        W55807  19.120  15.680   6.510 -0.0565  0.0681 -0.0581
12870W        W55808  20.590  12.859   8.476 -0.1479  0.1459 -0.0348
12871W        W55809  20.320  13.714   8.625  0.1388 -0.2098  0.0908
12872W        W55810  18.454  11.668   8.713  0.4522  0.1906  0.0541
12873W        W55811  21.877  13.526  10.561  0.2444 -0.1131  0.0850
12874W        W55812  17.320  10.487  11.603 -0.2262  0.1826 -0.1687
12875W        W55813  20.381  10.851   8.256  0.0729  0.1426  0.3101
12876W        W55814  19.805  11.148   9.005  0.0982 -0.0192 -0.0462
12877W        W55815  17.421  14.369   8.531 -0.1029 -0.3527  0.1014
12878W        W55816  19.021  10.873   8.058  0.0701 -0.0065 -0.0886
12879W        W55817  19.663  15.243   5.920 -0.0367  0.1266  0.0162
12880W        W55818  23.625  11.934   8.508 -0.2998 -0.2037  0.1640
12881W        W55819  19.791  13.519   5.557  0.1247  0.1298 -0.0434
12882W        W55820  20.113  12.689   9.047  0.2132  0.0290 -0.0207
12883W        W55821  19.652  14.600   7.950 -0.3493  0.2831  0.1369
12884W        W55822  20.673  13.923   8.385  0.0435  0.2141  0.0486
12885W        W55823  20.529  11.830   8.843 -0.5640 -0.0122 -0.1232
12886W        W55824  22.053  12.219   9.330  0.2708 -0.0813  0.4344
12887W        W55825  18.684  10.601   7.865 -0.0439  0.1289  0.0061
12888W        W55826  21.640  11.179   8.406 -0.0956 -0.1801 -0.2465
12889W        W55827  20.930  11.672   9.094 -0.1619  0.0030 -0.0846
12890W        W55828  17.160  12.526   9.271  0.2480  0.1245 -0.0568
12891W        W55829  17.887  12.304   6.631  0.2358 -0.2295 -0.1855
12892W        W55830  18.799  13.300   6.974  0.2661  0.4436 -0.0549
12893W        W55831  20.243  12.242   8.051  0.1944 -0.3015  0.2085
12894W        W55832  18.471  11.726   8.132  0.0055  0.1998  0.0121
12895W        W55833  18.551  11.981   6.649  0.2932 -0.1144  0.0083
12896W        W55834  20.631  14.231   7.160  0.5258 -0.2204  0.1284
12897W        W55835  17.873  11.869   9.354 -0.0272 -0.0382  0.4417
12898W        W55836  17.809  11.220   8.125  0.3300 -0.0613 -0.2308
12899W        W55837  21.412  12.998   8.039  0.2729 -0.1041  0.1887
12900W        W55838  22.160  12.869   8.603  0.0180 -0.4243 -0.0700
12901W        W55839  19.817  11.087   6.905  0.2425  0.0665 -0.0870
12902W        W55840  19.151  14.350   6.141  0.0671 -0.2283  0.0586
12903W        W55841  18.549  11.928   7.246 -0.3106 -0.0905  0.0741
12904W        W55842  18.717  11.552   9.080  0.0249 -0.3601  0.1348
12905W        W55843  20.100  14.577   7.580 -0.1708  0.1395 -0.1427
12906W        W55844  20.552  15.557   5.478  0.0307 -0.0851  0.0058
12907W        W55845  20.189   9.796   9.955 -0.2643 -0.0637 -0.1837
12908W        W55846  21.054  11.677   8.047 -0.5550 -0.0045  0.0121
12909W        W55847  22.572  12.477   9.084 -0.0783 -0.1310  0.0167
12910W        W55848  20.121  11.172   9.439  0.0673 -0.1659 -0.1212
12911W        W55849  21.152  11.695   7.044  0.0761  0.1392  0.0061
12912W        W55850  22.382  13.928   9.748  0.4332  0.1305 -0.1250
12913W        W55851  16.704  13.591   9.283  0.2248 -0.2665 -0.2618
12914W        W55852  22.041  10.267   9.239  0.0552 -0.1258 -0.0151
12915W        W55853  20.114  13.385   6.262 -0.1215 -0.1102 -0.2286
12916W        W55854  18.136  11.495   7.812  0.0984 -0.0943 -0.0888
12917W        W55855  19.937  11.923   6.931 -0.0538  0.3659 -0.1547
12918W        W55856  20.085  13.595   9.066  0.0189 -0.1807 -0.0450
12919W        W55857  19.257  11.547   5.661 -0.0447 -0.1091 -0.0820
12920W        W55858  21.502  12.029   7.410  0.2629  0.0340  0.2804
12921W        W55859  19.687  14.879   9.268  0.4088  0.1096  0.5006
12922W        W55860  18.196  11.805   9.766 -0.3118  0.0057 -0.1809
12923W        W55861  21.747  12.374   8.787 -0.0967 -0.0352  0.1734
12924W        W55862  19.046   9.544   8.174 -0.1761 -0.0686  0.0567
12925W        W55863  19.753  13.543   7.321  0.2934 -0.1541 -0.2190
12926W        W55864  19.177  12.932   6.498 -0.0438 -0.0704 -0.3956
12927W        W55865  19.469  12.723   8.436  0.1111 -0.4632  0.2260
12928W        W55866  19.594  11.984   7.397 -0.2910  0.1694  0.0432
12929W        W55867  20.989  10.922   7.772  0.1437  0.4354 -0.1381
12930W        W55868  19.862  14.397   9.339  0.0731 -0.0183  0.0923
12931W        W55869  20.051  12.021   9.026 -0.2645 -0.0594 -0.1156
12932W        W55870  18.381  16.355   1.923 -0.1817  0.3001 -0.0107
12933W        W55871  18.442  14.993  30.632  0.1505 -0.1237  0.0828
12934W        W55872  19.042  14.638  30.859  0.0532  0.2630 -0.2034
12935W        W55873  19.494  16.694  29.678 -0.0463  0.1514 -0.1805
12936W        W55874  17.787  14.698  31.032 -0.0254 -0.0566 -0.0606
12937W        W55875  21.261  17.698  31.870 -0.0210 -0.3335  0.1813
12938W        W55876  18.083  14.922   3.261  0.2988 -0.0371  0.0840
12939W        W55877  21.217  17.560   1.332  0.1569  0.0089 -0.1985
12940W        W55878  21.356  16.587   1.770  0.3722 -0.2441 -0.0326
12941W        W55879  18.599  16.202  28.865 -0.0707 -0.3373  0.1680
12942W        W55880  19.936  14.787   2.215 -0.2937  0.2084  0.1076
12943W        W55881  19.376  16.425   1.059 -0.2345 -0.1885 -0.1700
12944W        W55882  18.093  14.086  30.620 -0.4824  0.3171 -0.0734
12945W        W55883  18.288  14.140   0.819  0.0148 -0.0723 -0.0366
12946W        W55884  21.063  15.795   3.167  0.1929  0.0257  0.0166
12947W        W55885  18.259  15.702  31.241  0.0344 -0.4523 -0.2209
12948W        W55886  18.997  15.714   1.581 -0.0403  0.1154 -0.1804
12949W        W55887  20.087  15.033  31.571 -0.0793 -0.0591 -0.3889
12950W        W55888  20.013  17.333   0.291 -0.0496  0.0423  0.1513
12951W        W55889  19.754  14.238   2.344  0.1534 -0.1128  0.0166
12952W        W55890  20.713  13.892   3.522  0.1135 -0.0030 -0.0392
12953W        W55891  19.945  18.394  29.793 -0.3087 -0.0031  0.4627
12954W        W55892  17.945  16.340  29.795  0.0058 -0.4205 -0.0541
12955W        W55893  17.209  15.218  31.746 -0.0797  0.0925  0.1536
12956W        W55894  18.209  15.087   2.293 -0.2085  0.2490 -0.1379
12957W        W55895  20.804  15.834  31.877 -0.3775  0.2593 -0.0090
12958W        W55896  21.080  14.609   0.716 -0.0098 -0.2071  0.0703
12959W        W55897  18.984  17.411  31.166  0.2047  0.2547 -0.0852
12960W        W55898  20.471  17.021   0.530  0.3107  0.1300  0.0297
12961W        W55899  20.115  15.784   2.471  0.0513  0.0251  0.2059
12962W        W55900  17.611  16.881  31.626 -0.0517  0.3077  0.3236
12963W        W55901  17.166  15.622  30.388 -0.0114 -0.2437  0.1428
12964W        W55902  18.525  16.476  30.831 -0.1578 -0.2348 -0.0166
12965W        W55903  20.825  17.003   0.928  0.0160  0.1235  0.0381
12966W        W55904  20.389  17.184   1.030 -0.2959  0.0704 -0.1180
12967W        W55905  19.243  17.983   2.539 -0.1374 -0.1249 -0.2505
12968W        W55906  17.858  15.069  30.064 -0.2612 -0.2731 -0.1247
12969W        W55907  19.749  17.941   2.503  0.1931 -0.1188 -0.3105
12970W        W55908  19.946  17.605   1.215 -0.0646  0.0041  0.0185
12971W        W55909  19.444  15.232   0.835 -0.0974  0.0824  0.1196
12972W        W55910  19.820  16.026  31.605 -0.2471 -0.0745 -0.1081
12973W        W55911  18.172  17.958  29.413 -0.3630  0.0256 -0.0276
12974W        W55912  18.980  17.301   0.053  0.2221 -0.0645 -0.1776
12975W        W55913  20.910  15.739   2.651  0.1373  0.0943  0.1374
12976W        W55914  18.917  15.702   1.002  0.0023 -0.2684 -0.2387
12977W        W55915  22.052  16.204   4.595 -0.0836  0.2202  0.3342
12978W        W55916  18.406  16.289   0.617  0.2319  0.0842  0.1871
12979W        W55917  21.541  14.736   0.433  0.3580  0.1169 -0.0930
12980W        W55918  18.340  14.770  30.101  0.1430  0.0962  0.0147
12981W        W55919  20.122  15.250   0.141  0.2557 -0.0161 -0.0218
12982W        W55920  19.712  14.688   0.896  0.0435 -0.1427  0.0418
12983W        W55921  17.762  17.030   0.846 -0.2772 -0.0553  0.2013
12984W        W55922  19.597  14.528   0.363 -0.1843 -0.2113  0.0623
12985W        W55923  20.963  16.873   1.393  0.2337  0.3893 -0.2333
12986W        W55924  18.833  17.381  29.769 -0.0799  0.2024  0.1305
12987W        W55925  21.088  15.564   1.853  0.0917  0.1490 -0.3128
12988W        W55926  17.761  17.055   1.529 -0.0327  0.3986  0.2457
12989W        W55927  19.147  16.345   0.370 -0.0163  0.1883 -0.0163
12990W        W55928  20.292  17.783  30.816  0.1306  0.2535 -0.2210
12991W        W55929  21.785  16.653   0.023  0.4215 -0.1185 -0.2958
12992W        W55930  20.849  16.383  30.052 -0.1804  0.1724 -0.2692
12993W        W55931  17.877  15.505  30.885 -0.2863  0.0163 -0.1441
12994W        W55932  18.205  16.691   0.904  0.0655 -0.0695 -0.1549
12995W        W55933  17.423  16.139   3.440 -0.0825 -0.0261 -0.1950
12996W        W55934  18.045  13.547  30.751  0.1078  0.0818 -0.3243
12997W        W55935  21.068  17.046   2.932 -0.1189  0.0376  0.1096
12998W        W55936  17.973  16.546   2.081 -0.2690 -0.1179 -0.1658
12999W        W55937  21.694  13.946  31.679  0.0699  0.0029  0.0883
13000W        W55938  19.921  18.042  31.044 -0.0862 -0.0292  0.2033
13001W        W55939  20.472  16.345   1.863 -0.0322 -0.1697 -0.3327
13002W        W55940  20.415  17.143  30.740 -0.1293 -0.1057 -0.0772
13003W        W55941  20.181  15.366   1.076 -0.0863 -0.0888 -0.0468
13004W        W55942  22.838  13.704   0.598  0.1726 -0.0087 -0.1994
13005W        W55943  19.657  17.386  30.162 -0.1850  0.0674  0.1098
13006W        W55944  17.863  17.314   0.406 -0.3070  0.4310  0.1912
13007W        W55945  22.458  17.059   1.852 -0.2334 -0.1885  0.1346
13008W        W55946  20.742  16.130  30.487  0.2687 -0.2852  0.0142
13009W        W55947  20.060  18.944  31.366 -0.1438 -0.4297  0.0488
13010W        W55948  20.117  16.057   2.912 -0.1475  0.0572  0.2626
13011W        W55949  20.258  16.876   1.827 -0.0905 -0.1981 -0.0503
13012W        W55950  18.144  17.365  30.799 -0.0004  0.0047  0.0530
13013W        W55951  18.881  16.597   0.739  0.1708 -0.3394 -0.1178
13014W        W55952  18.222  16.914  28.947  0.2785 -0.0300 -0.3224
13015W        W55953  18.377  14.642   2.052 -0.0289  0.1029 -0.0300
13016W        W55954  19.981  16.878   0.476 -0.1019  0.1404  0.0360
13017W        W55955  21.179  15.077  31.728  0.0978  0.1371  0.0482
13018W        W55956  19.192  14.608   3.109 -0.4562  0.1214  0.1680
13019W        W55957  21.962  13.480   1.345  0.0840  0.2355  0.1210
13020W        W55958  17.836  16.389  30.898  0.1853 -0.1086  0.0416
13021W        W55959  21.741  18.127   1.560 -0.2786 -0.0831 -0.1770
13022W        W55960  19.624  16.772  31.445 -0.0404  0.1071 -0.1022
13023W        W55961  19.832  16.886  29.979 -0.2451  0.3712  0.0146
13024W        W55962  18.023  15.438   0.244 -0.2678  0.3259 -0.3042
13025W        W55963  18.066  13.733  31.790 -0.0694 -0.1113 -0.2930
13026W        W55964  19.780  14.818   2.773 -0.1338 -0.0126  0.1685
13027W        W55965  18.743  13.756   0.861  0.1835 -0.1167 -0.3086
13028W        W55966  20.706  15.360   3.896 -0.3334  0.1106 -0.0237
13029W        W55967  18.688  15.460  29.231  0.0281 -0.0668 -0.2390
13030W        W55968  19.879  15.223   0.578  0.1892 -0.0592 -0.2227
13031W        W55969  20.367  15.651  31.617 -0.3236  0.0171  0.1120
13032W        W55970  17.838  14.983  30.625 -0.0446 -0.2500 -0.1978
13033W        W55971  23.254  15.133   3.095  0.0340 -0.0886  0.0122
13034W        W55972  19.793  17.985  31.719 -0.0206 -0.0952  0.0792
13035W        W55973  21.663  18.802   2.271 -0.1659 -0.1673  0.0792
13036W        W55974  20.775  18.023   0.606 -0.0742  0.3977 -0.2985
13037W        W55975  18.197  16.236   1.372 -0.0209 -0.1981  0.2319
13038W        W55976  20.593  14.938  31.895  0.0079  0.1638  0.0294
13039W        W55977  18.584  17.990   1.079 -0.0058 -0.0267  0.0300
13040W        W55978  19.457  17.166  31.110 -0.0278 -0.0582 -0.1289
13041W        W55979  18.939  15.052  31.438 -0.1692  0.3965  0.1484
13042W        W55980  23.423  18.158   1.347  0.5039  0.2095  0.3155
13043W        W55981  19.352  15.930   0.068  0.2572  0.0461 -0.3126
13044W        W55982  16.934  16.805   0.879 -0.1538  0.1474 -0.0192
13045W        W55983  20.528  14.085   2.790  0.0760 -0.0010 -0.0574
13046W        W55984  21.158  15.394   2.299  0.0658 -0.3850  0.2002
13047W        W55985  20.376  16.857  31.271  0.2633 -0.0615 -0.2650
13048W        W55986  18.261  14.246  30.100 -0.2322 -0.2209  0.0151
13049W        W55987  21.103  18.243   0.175 -0.0157 -0.2857 -0.1179
13050W        W55988  17.774  16.949  30.570  0.0511 -0.0075  0.0252
13051W        W55989  18.454  16.702   0.292  0.0275 -0.1002  0.1090
13052W        W55990  19.724  18.728  31.683 -0.0931 -0.0058  0.2212
13053W        W55991  21.233  15.023   1.952  0.0293  0.0715  0.2317
13054W        W55992  18.782  17.157   2.258  0.2212 -0.1796  0.1703
13055W        W55993  20.574  15.641   2.228 -0.0156  0.2959 -0.1370
13056W        W55994  17.333  14.588  31.089  0.1980  0.2497  0.1522
13057W        W55995  17.388  17.059   2.100  0.3184  0.5090  0.2387
13058W        W55996  20.705  14.063   0.568 -0.2192  0.0533 -0.0502
13059W        W55997  21.527  13.817   0.361  0.1902  0.0715 -0.1275
13060W        W55998  19.257  16.528   1.817  0.2434 -0.4416 -0.1650
13061W        W55999  19.477  16.763  30.335 -0.1347  0.2000  0.1151
13062W        W56000  19.996  16.300   0.153 -0.0079  0.1759  0.1311
13063W        W56001  19.989  14.561  30.957  0.1948  0.0877  0.0875
13064W        W56002  19.900  17.551   3.337  0.0374 -0.1405  0.0513
13065W        W56003  18.688  15.873   0.542  0.1706  0.0621 -0.0359
13066W        W56004  19.795  16.149   1.050 -0.2016  0.2580  0.2410
13067W        W56005  19.016  16.669  30.058  0.0460 -0.1223 -0.0607
13068W        W56006  20.176  17.182  31.829 -0.3095  0.1384  0.0754
13069W        W56007  19.943  17.450  30.948 -0.0579 -0.1234 -0.0788
13070W        W56008  20.026  17.624   1.776 -0.1700  0.0333 -0.2111
13071W        W56009  21.734  18.333   1.973 -0.0048  0.0112 -0.0305
13072W        W56010  18.953  13.958   1.841 -0.0602 -0.1678 -0.0653
13073W        W56011  20.583  15.204  31.426  0.1446  0.0618  0.2064
13074W        W56012  20.072  14.651   1.556  0.1292  0.2657 -0.1164
13075W        W56013  17.814  18.916  30.476  0.1022 -0.0100  0.0623
13076W        W56014  20.764  15.123   2.169 -0.1167 -0.1570  0.2101
13077W        W56015  20.771  14.541   1.872 -0.0807 -0.0994  0.0965
13078W        W56016  20.492  14.553   2.938  0.3143  0.0366  0.0346
13079W        W56017  20.949  16.384   1.598 -0.2317  0.0253 -0.3214
13080W        W56018  20.538  16.363  31.381 -0.1622 -0.2853  0.0835
13081W        W56019  20.563  15.397   1.780 -0.1109 -0.1274  0.1014
13082W        W56020  17.735  15.795  29.208  0.0260 -0.3722 -0.0599
13083W        W56021  20.337  14.939   1.833 -0.2064  0.0355 -0.1374
13084W        W56022  18.049  15.783   1.690  0.0656 -0.2379 -0.2928
13085W        W56023  17.829  17.231   2.542  0.0752 -0.0726  0.0015
13086W        W56024  19.230  16.270   2.250 -0.1676 -0.1175 -0.0185
13087W        W56025  19.799  15.600   1.110  0.0540  0.1707  0.2870
13088W        W56026  19.690  15.231   2.504  0.2574 -0.0223 -0.1288
13089W        W56027  20.916  15.597   0.895 -0.0271  0.0947  0.1274
13090W        W56028  18.050  17.752  31.170  0.2679  0.0837 -0.1453
13091W        W56029  18.092  16.335   0.203 -0.1540 -0.0241 -0.0082
13092W        W56030  18.746  14.791   0.727 -0.1739 -0.0730 -0.1050
13093W        W56031  18.963  16.791   0.034 -0.2219  0.1834  0.0279
13094W        W56032  17.951  17.591  27.858 -0.0490  0.3439  0.0836
13095W        W56033  19.597  17.704   2.112  0.0405 -0.1187 -0.0551
13096W        W56034  18.545  17.593  29.407  0.0639  0.3519  0.2727
13097W        W56035  21.053  12.755   1.817  0.1185  0.2106  0.2894
13098W        W56036  17.894  17.804   1.874  0.2078 -0.1223 -0.0061
13099W        W56037  19.116  15.227  30.093  0.1263  0.0164 -0.2030
13100W        W56038  18.798  15.624  31.442 -0.1448 -0.1709  0.1323
13101W        W56039  21.426  14.999   0.970 -0.0169  0.1177  0.0901
13102W        W56040  21.850  18.462   0.639 -0.0353 -0.0244 -0.1267
13103W        W56041  18.777  14.297   0.820  0.0387 -0.0466 -0.0334
13104W        W56042  20.619  14.574   0.442  0.1294  0.0889 -0.0099
13105W        W56043  17.865  17.184   2.010 -0.0243 -0.0343 -0.0339
13106W        W56044  19.679  17.066   0.032 -0.0736  0.1634 -0.1512
13107W        W56045  20.682  15.372  30.900 -0.1545 -0.2137 -0.1125
13108W        W56046  18.697  17.034   1.013 -0.0532 -0.0110  0.0988
13109W        W56047  19.051  15.897   3.758 -0.2248 -0.0601  0.0598
13110W        W56048  18.872  14.812  30.432 -0.1208  0.2269  0.0415
13111W        W56049  21.583  16.950   2.184 -0.1749 -0.1708 -0.2129
13112W        W56050  18.898  14.862   0.235  0.1379 -0.0185 -0.0625
13113W        W56051  18.875  16.952  31.104  0.3121 -0.1043 -0.4046
13114W        W56052  19.923  17.241   0.879  0.0939  0.2184  0.6040
13115W        W56053  18.577  15.550  30.826 -0.0691 -0.0290 -0.2601
13116W        W56054  17.962  16.770   0.463 -0.0813  0.0720  0.0356
13117W        W56055  19.477  15.514   1.887  0.1941 -0.1148  0.0997
13118W        W56056  22.253  15.957   3.619  0.0166  0.2924  0.1874
13119W        W56057  18.976  15.410   0.565 -0.0334  0.0116  0.1609
13120W        W56058  19.481  15.472  30.412 -0.0792 -0.3153  0.0448
13121W        W56059  20.113  15.839   0.748  0.1062 -0.3258 -0.1330
13122W        W56060  19.392  14.833   1.929  0.1788 -0.5330  0.0490
13123W        W56061  18.458  15.641   1.371  0.0213 -0.1163 -0.2292
13124W        W56062  19.121  16.758   1.386  0.0457  0.0257 -0.0361
13125W        W56063  19.954  13.985   1.916 -0.0687 -0.1057  0.0785
13126W        W56064  20.943  17.481  29.373  0.0066  0.4347  0.1239
13127W        W56065  20.635  16.127   2.516  0.2355  0.0776 -0.0756
13128W        W56066  18.027  15.831  30.250  0.2217 -0.0837 -0.1139
13129W        W56067  19.627  16.421   1.480  0.1326  0.0351  0.3364
13130W        W56068  19.105  16.745  31.469 -0.1919  0.0800  0.1221
13131W        W56069  20.610  14.373   0.937 -0.0197  0.1394  0.2360
13132W        W56070  19.268  17.823   0.207 -0.2148 -0.3155 -0.4442
13133W        W56071  18.399  17.563  29.969 -0.0597  0.2773  0.0549
13134W        W56072  19.012  17.628   1.128 -0.0401 -0.2376 -0.3738
13135W        W56073  21.904  13.642   0.637 -0.0944  0.0721 -0.0338
13136W        W56074  18.557  17.017  29.314  0.0111  0.1304  0.0920
13137W        W56075  19.361  14.922   1.317  0.1852 -0.3293  0.2170
13138W        W56076  21.522  14.359   2.578  0.0188  0.1672 -0.0682
13139W        W56077  18.708  17.437  30.423 -0.0162 -0.3781 -0.1234
13140W        W56078  20.921  13.212   2.946 -0.1506 -0.3225  0.1043
13141W        W56079  18.560  15.858   1.829  0.0301 -0.0410 -0.2193
13142W        W56080  20.881  16.728  31.526  0.1114 -0.1319 -0.3869
13143W        W56081  18.543  15.436   0.232  0.1021 -0.0045  0.1966
13144W        W56082  19.933  17.607   2.867 -0.1215 -0.0025 -0.0863
13145W        W56083  19.595  15.895   2.351 -0.0664  0.2951 -0.0365
13146W        W56084  21.282  15.583  31.675 -0.4698  0.0804  0.1422
13147W        W56085  19.156  15.454  31.165  0.1124  0.0424  0.0354
13148W        W56086  20.444  15.795  30.744  0.2424  0.0424 -0.1357
13149W        W56087  20.918  15.999   1.242 -0.0122  0.0144  0.1213
13150W        W56088  18.682  16.539  30.396  0.2312 -0.1955 -0.0040
13151W        W56089  21.466  14.677   3.123  0.0417 -0.1478 -0.0686
13152W        W56090  18.911  16.347   2.591 -0.2029  0.0643  0.0112
13153W        W56091  21.266  14.135   0.697 -0.1209  0.4687 -0.1283
13154W        W56092  18.520  17.046  28.276  0.2751 -0.0908 -0.0782
13155W        W56093  17.768  15.947  31.298  0.0328  0.1611 -0.0215
13156W        W56094  19.127  14.692   2.440 -0.3896 -0.0340 -0.1513
13157W        W56095  19.879  15.057   1.326  0.2573 -0.0519 -0.0899
13158W        W56096  21.237  14.548   1.769  0.0264 -0.0292  0.2556
13159W        W56097  20.893  15.315   2.958  0.1789  0.2948  0.0783
13160W        W56098  22.619  15.797  31.710 -0.0859  0.4239 -0.0097
13161W        W56099  19.785  15.689   2.835 -0.1350 -0.1162 -0.0091
13162W        W56100  16.706  15.662   2.276 -0.1656  0.2839 -0.0011
13163W        W56101  20.247  17.279   1.498 -0.0502  0.0764  0.0046
13164W        W56102  21.491  14.846   1.475  0.2055 -0.1797  0.0361
13165W        W56103  21.385  16.203   3.182  0.1108  0.2476  0.1734
13166W        W56104  20.284  16.124  31.748 -0.3019  0.1242 -0.1710
13167W        W56105  19.632  15.426  30.964  0.2481 -0.0335 -0.0390
13168W        W56106  18.789  14.710   1.344 -0.3043 -0.0541 -0.0622
13169W        W56107  21.108  17.140   2.083  0.2077 -0.1180  0.2902
13170W        W56108  17.585  16.339  29.334  0.0830 -0.0360  0.2965
13171W        W56109  20.121  15.647   3.278 -0.1125  0.2038  0.1662
13172W        W56110  19.789  17.313  29.639  0.0877  0.5064 -0.0812
13173W        W56111  18.830  17.042   0.519 -0.3253  0.0410  0.1353
13174W        W56112  19.155  16.356  29.460 -0.0966  0.3473  0.0704
13175W        W56113  18.336  14.492   0.375 -0.0051 -0.0110 -0.1607
13176W        W56114  17.452  17.410   1.716  0.4683  0.1623  0.1207
13177W        W56115  16.278  16.755  30.485  0.0435  0.0840  0.0475
13178W        W56116  17.357  15.533  30.837  0.2822 -0.1041  0.1599
13179W        W56117  20.505  16.815   1.371  0.2283 -0.1125 -0.0902
13180W        W56118  21.110  16.215   2.744 -0.0506 -0.0935  0.0556
13181W        W56119  21.052  14.189  30.774 -0.1642  0.1059  0.0608
13182W        W56120  21.330  15.429   3.833 -0.1858 -0.0495  0.5330
13183W        W56121  18.684  18.117  29.722  0.2358  0.0282  0.2659
13184W        W56122  21.156  13.556   2.693  0.4454 -0.1198 -0.3066
13185W        W56123  19.761  18.073   0.323  0.0525  0.0895  0.0076
13186W        W56124  18.603  17.610   2.429  0.3199  0.2552 -0.2198
13187W        W56125  18.895  17.760  28.934 -0.0080 -0.2929 -0.2009
13188W        W56126  19.814  12.588   3.184  0.1019 -0.1583  0.2800
13189W        W56127  21.467  15.951   1.807  0.1629 -0.0806  0.0346
13190W        W56128  19.999  16.897   1.378  0.0986  0.1193  0.2784
13191W        W56129  21.764  15.264   3.959  0.1893  0.1818  0.1106
13192W        W56130  18.878  16.697   2.201 -0.2834  0.0003 -0.2108
13193W        W56131  18.687  16.459  31.354 -0.0151  0.0944  0.3323
13194W        W56132  19.746  17.294   1.571  0.1006 -0.3858 -0.3841
13195W        W56133  20.821  17.383   0.571 -0.0148 -0.1446  0.2150
13196W        W56134  18.625  17.071  30.059  0.1389  0.1174 -0.0563
13197W        W56135  18.059  15.204   0.749  0.1246 -0.1520  0.1762
13198W        W56136  19.850  15.104   1.846  0.0174 -0.3556  0.0459
13199W        W56137  19.828  16.648   0.943  0.0546  0.1772  0.1883
13200W        W56138  20.016  14.645  30.010 -0.2734  0.1324  0.0068
13201W        W56139  18.128  16.704  29.467 -0.0880  0.1861  0.2917
13202W        W56140  19.204  17.267   1.502 -0.1710  0.1472 -0.2179
13203W        W56141  18.006  15.799   1.036 -0.0516  0.0352  0.0111
13204W        W56142  18.960  18.251   0.267 -0.2339  0.0773 -0.1209
13205W        W56143  19.323  17.178  31.649 -0.1256  0.2951 -0.0372
13206W        W56144  18.944  16.798  29.601 -0.2515  0.2663  0.4183
13207W        W56145  20.740  17.349   1.449 -0.2247  0.0714 -0.3255
13208W        W56146  20.104  15.978  31.252  0.2388 -0.2278 -0.2031
13209W        W56147  18.140  17.621   0.882 -0.2434 -0.0364  0.1704
13210W        W56148  18.216  16.673  30.408  0.2692 -0.0248 -0.2285
13211W        W56149  20.346  16.457  29.942  0.4806  0.1425 -0.0373
13212W        W56150  18.037  17.768  31.745 -0.5349  0.1339  0.0287
13213W        W56151  20.304  15.970   1.278 -0.0564 -0.2994  0.1031
13214W        W56152  20.990  16.071  31.479  0.1932  0.1422 -0.3131
13215W        W56153  21.152  15.491   1.348 -0.1842  0.1308  0.0194
13216W        W56154  21.402  15.610   0.621  0.0111  0.3062  0.0205
13217W        W56155  20.591  17.281   2.034 -0.1111 -0.0702  0.0434
13218W        W56156  19.431  16.000   1.760  0.2629  0.0451 -0.0176
13219W        W56157  19.707  15.458  31.910 -0.2394  0.1524 -0.0263
13220W        W56158  19.333  15.495   3.667  0.1382  0.0307  0.0331
13221W        W56159  22.333  13.658   3.160  0.0216 -0.0217 -0.1918
13222W        W56160  17.365  17.554   1.250  0.1552 -0.0223 -0.0618
13223W        W56161  20.562  18.576  31.542 -0.1457  0.0528 -0.0534
13224W        W56162  17.594  15.342  31.290  0.0752  0.1381  0.2159
13225W        W56163  17.093  16.083  30.765 -0.0653  0.1068 -0.4073
13226W        W56164  21.385  15.528   2.756  0.1695 -0.1372 -0.0397
13227W        W56165  20.175  17.335  29.958  0.2567  0.0638  0.0700
13228W        W56166  20.953  15.817   0.407  0.2078 -0.2548 -0.0500
13229W        W56167  20.247  18.834  31.853 -0.0828  0.0363  0.0633
13230W        W56168  19.623  17.621  31.357 -0.0833 -0.0984  0.1417
13231W        W56169  19.131  17.484   0.521 -0.2490  0.1466  0.1294
13232W        W56170  16.386  16.074  31.255 -0.0529  0.2115 -0.2132
13233W        W56171  21.005  14.637   1.213 -0.0845  0.0334 -0.2026
13234W        W56172  18.701  15.306   2.058  0.3438 -0.0434 -0.3316
13235W        W56173  22.068  12.690   1.116 -0.3765  0.1003  0.2301
13236W        W56174  19.116  16.326  30.413 -0.1355  0.2692  0.0016
13237W        W56175  21.278  16.439  31.389  0.2252 -0.0407 -0.2196
13238W        W56176  19.256  15.184   2.218  0.1252  0.1639 -0.0792
13239W        W56177  18.488  15.505   0.828 -0.1024  0.2021 -0.1680
13240W        W56178  20.072  14.723   0.376 -0.0441 -0.5653 -0.1391
13241W        W56179  20.701  15.914   1.701  0.2426  0.0056 -0.1716
13242W        W56180  19.195  15.810  29.679  0.1068  0.0795  0.0157
13243W        W56181  20.923  17.340   2.564  0.0002 -0.0860 -0.2246
13244W        W56182  18.579  14.185  31.293 -0.0064 -0.1454  0.1478
13245W        W56183  20.165  16.447   1.483 -0.0889 -0.2444  0.0452
13246W        W56184  19.153  15.908  30.839 -0.0832 -0.2411 -0.4630
13247W        W56185  20.519  16.385   1.127  0.0726  0.2290 -0.0673
13248W        W56186  21.249  17.266   0.949 -0.1185  0.0549  0.0255
13249W        W56187  19.561  15.025   0.269  0.1978  0.1045 -0.3379
13250W        W56188  21.068  15.216   0.581 -0.0643 -0.3351  0.0631
13251W        W56189  21.169  16.039   0.783  0.0375 -0.1076 -0.0076
13252W        W56190  19.420  17.803  30.323  0.0377 -0.0465  0.0013
13253W        W56191  19.631  15.892  31.070  0.1468  0.3064  0.1895
13254W        W56192  21.333  17.939   1.860  0.0182 -0.0179 -0.4211
13255W        W56193  19.728  15.714   0.370 -0.0563 -0.2531 -0.0003
13256W        W56194  20.266  17.952   0.452  0.2643  0.0922 -0.1143
13257W        W56195  20.491  15.485   0.688  0.1682 -0.2293 -0.2835
13258W        W56196  20.887  14.493  31.746  0.2673 -0.1130  0.0588
13259W        W56197  19.689  16.261   0.551 -0.0226  0.0491 -0.1749
13260W        W56198  17.795  15.810  31.919  0.4671  0.5135  0.0343
13261W        W56199  22.349  14.692   1.381  0.0612 -0.0097 -0.1343
13262W        W56200  20.994  14.895   3.167  0.0266  0.1070  0.0210
13263W        W56201  20.050  16.938  30.434 -0.1603  0.1650 -0.0265
13264W        W56202  21.254  14.984   2.650  0.1545 -0.2755 -0.1674
13265W        W56203  19.000  16.167   0.857 -0.1480 -0.1466 -0.1750
13266W        W56204  20.119  17.160   2.993  0.4174 -0.2159 -0.1629
13267W        W56205  18.383  16.267  30.132  0.3050 -0.1033 -0.1589
13268W        W56206  19.766  16.280   2.632  0.1183  0.2348 -0.1850
13269W        W56207  19.290  15.708  31.572 -0.4241 -0.0732 -0.3736
13270W        W56208  20.454  18.956  31.023  0.1285 -0.3301 -0.1629
13271W        W56209  21.693  17.418   1.050  0.0137  0.2906 -0.1158
13272W        W56210  18.988  15.195   1.090  0.1642  0.1347  0.1955
13273W        W56211  20.191  16.671  31.750  0.0908 -0.1962  0.0021
13274W        W56212  19.336  14.143   0.776  0.1984 -0.1284  0.0242
13275W        W56213  21.636  12.806  31.482  0.0914 -0.1305 -0.3018
13276W        W56214  20.865  14.315  31.233 -0.0751 -0.2162 -0.0022
13277W        W56215  18.374  17.136   0.642  0.0970  0.1026  0.0963
13278W        W56216  18.210  15.480  29.950 -0.0172  0.3088 -0.1259
13279W        W56217  18.505  15.986  31.558  0.2394  0.0101  0.0212
13280W        W56218  18.745  16.218   0.073 -0.3033  0.3919 -0.2016
13281W        W56219  20.677  12.876   3.471  0.1470 -0.1744  0.0606
13282W        W56220  18.850  14.737   1.908  0.0761 -0.1119  0.1421
13283W        W56221  19.029  16.085  31.330 -0.3992 -0.2259  0.0035
13284W        W56222  19.814  15.476  31.411  0.0246  0.0900  0.1206
13285W        W56223  20.657  16.825  29.911  0.1407 -0.2002 -0.0942
13286W        W56224  18.518  14.271  31.870 -0.1136 -0.2079  0.2531
13287W        W56225  19.155  13.248   0.451  0.2038  0.1419  0.1704
13288W        W56226  19.181  17.319  30.685 -0.4737  0.2077 -0.1789
13289W        W56227  21.953  18.283   1.158  0.4280  0.1123 -0.0979
13290W        W56228  20.362  13.261   0.827  0.1111 -0.2399  0.3224
13291W        W56229  20.986  16.562   3.146  0.0904  0.0198 -0.1061
13292W        W56230  17.154  17.582  27.447 -0.1894  0.3465  0.1087
13293W        W56231  20.758  16.830   1.903 -0.2202  0.2173 -0.3429
13294W        W56232  20.145  13.850   2.575  0.0844 -0.1554 -0.1823
13295W        W56233  17.940  14.823   0.431 -0.0301  0.0562 -0.0261
13296W        W56234  20.833  15.129   1.088  0.0053  0.2602 -0.0580
13297W        W56235  19.016  16.457  30.916  0.0181 -0.0396 -0.1566
13298W        W56236  20.514  18.088  31.620 -0.3545  0.2123  0.1012
13299W        W56237  19.351  15.958   1.298 -0.2486 -0.1819 -0.0327
13300W        W56238  20.595  18.372   2.787  0.1033 -0.0564  0.0852
13301W        W56239  18.022  14.302   1.328 -0.1207  0.2555  0.4896
13302W        W56240  19.572  16.391  29.243  0.2343 -0.0956  0.0353
13303W        W56241  18.645  16.570   1.179 -0.1125  0.0497  0.0166
13304W        W56242  21.882  17.184  30.930 -0.1490  0.0432 -0.1901
13305W        W56243  21.631  14.907   2.275  0.0032  0.1138 -0.2389
13306W        W56244  19.351  15.438   1.292  0.0208 -0.1174  0.1329
13307W        W56245  18.069  14.261   4.160 -0.0557  0.0256 -0.2114
13308W        W56246  19.542  16.938   1.180  0.0942 -0.0843 -0.2480
13309W        W56247  21.490  15.815   1.140 -0.1954  0.1716 -0.3161
13310W        W56248  19.330  15.010  31.072 -0.3600 -0.1476 -0.1682
13311W        W56249  19.908  16.510  30.808  0.0475 -0.2519 -0.1225
13312W        W56250  19.006  16.860  30.562 -0.0015  0.0602  0.4229
13313W        W56251  19.448  15.758   0.811  0.0177  0.0123 -0.1146
13314W        W56252  20.490  16.082   0.295 -0.0709 -0.0436  0.2267
13315W        W56253  21.759  15.752   3.812 -0.2656  0.2114 -0.0435
13316W        W56254  20.377  16.610   0.248 -0.3358 -0.0348  0.0123
13317W        W56255  20.192  16.331   0.663 -0.2228  0.2214 -0.2513
13318W        W56256  18.350  15.873   0.114  0.0931 -0.2876 -0.2945
13319W        W56257  22.643  17.199  31.321 -0.0427  0.0474  0.1031
13320W        W56258  20.401  17.697   1.335  0.4188  0.1506 -0.1980
13321W        W56259  21.393  17.915   2.363 -0.1423  0.0460  0.0815
13322W        W56260  19.864  18.120   2.022 -0.0309  0.3141  0.0575
13323W        W56261  20.593  15.524   1.287  0.0165 -0.1607 -0.0263
13324W        W56262  17.490  14.123   2.133 -0.1362  0.0115 -0.1194
13325W        W56263  18.603  15.764  30.150 -0.0021  0.0732 -0.1996
13326W        W56264  19.210  16.318  31.796  0.2572  0.0146  0.0295
13327W        W56265  20.097  15.537   1.532  0.0008 -0.2003 -0.2335
13328W        W56266  19.591  16.596  31.957 -0.1058  0.1707 -0.1389
13329W        W56267  20.727  13.623  30.978  0.1476  0.4660 -0.0070
13330W        W56268  19.997  16.712   2.209  0.0858  0.0922  0.0925
13331W        W56269  20.526  15.720   2.991 -0.1437 -0.1507 -0.1609
13332W        W56270  18.848  16.864   6.181  0.0007  0.0525 -0.1783
13333W        W56271  19.321  16.047   2.811  0.2548 -0.1933 -0.4153
13334W        W56272  20.893  14.302   3.265 -0.0829  0.2903  0.0799
13335W        W56273  22.695  17.009   4.088  0.1616 -0.0801 -0.0685
13336W        W56274  16.972  16.648   4.548 -0.2755 -0.1306  0.4241
13337W        W56275  20.952  18.612   5.218  0.1808  0.0989 -0.2231
13338W        W56276  19.387  13.977   5.336  0.1939  0.1592 -0.0380
13339W        W56277  19.705  17.339   4.310  0.2816 -0.4626  0.0228
13340W        W56278  19.799  15.216   4.288  0.0084 -0.1718  0.1204
13341W        W56279  20.268  15.908   1.936 -0.0020  0.3501 -0.1876
13342W        W56280  18.536  15.473   4.386 -0.1180  0.0668  0.0081
13343W        W56281  18.150  16.961   5.597 -0.1944 -0.1905  0.2611
13344W        W56282  19.301  14.788   3.652  0.0730  0.0338 -0.0710
13345W        W56283  17.063  14.388   4.693 -0.1355  0.2002  0.0414
13346W        W56284  19.929  15.677   5.666 -0.0876 -0.3151 -0.2703
13347W        W56285  17.937  16.197   3.521 -0.1546  0.2231  0.0199
13348W        W56286  18.842  14.947   4.051  0.3705  0.1012  0.0959
13349W        W56287  18.790  15.418   3.659  0.0951 -0.1315 -0.0457
13350W        W56288  20.108  17.369   4.637  0.1755  0.1395  0.1235
13351W        W56289  19.937  16.630   5.337 -0.1675 -0.1637  0.1260
13352W        W56290  19.807  15.000   5.006 -0.1040 -0.3117 -0.0667
13353W        W56291  19.837  17.032   3.461 -0.0858  0.1051 -0.0624
13354W        W56292  17.667  16.526   3.139 -0.3524  0.1881  0.0454
13355W        W56293  19.173  15.917   6.071  0.0194 -0.0402  0.1091
13356W        W56294  18.336  15.354   4.918 -0.1056 -0.2733  0.0127
13357W        W56295  21.268  14.127   4.603  0.0842  0.0391 -0.0276
13358W        W56296  20.636  16.738   3.935  0.0666 -0.1871 -0.2726
13359W        W56297  18.754  19.395   5.163 -0.3102  0.2753  0.0798
13360W        W56298  20.274  18.532   5.280 -0.0658 -0.1994 -0.3067
13361W        W56299  20.364  15.001   4.824 -0.1521  0.2353 -0.0601
13362W        W56300  19.787  15.433   3.883  0.0771 -0.1471  0.0006
13363W        W56301  17.175  19.158   4.416 -0.0450 -0.0916  0.1059
13364W        W56302  19.511  16.518   4.270 -0.0001  0.2207  0.1341
13365W        W56303  21.836  18.053   3.847 -0.1454 -0.0017 -0.0578
13366W        W56304  20.394  17.905   6.341 -0.1300  0.3905 -0.1069
13367W        W56305  19.368  17.958   6.061 -0.1472 -0.0696 -0.0301
13368W        W56306  18.609  16.663   2.788  0.2980  0.1822  0.3680
13369W        W56307  20.170  18.296   6.463  0.1378  0.0269  0.1959
13370W        W56308  19.814  18.145   6.976  0.1192 -0.0495 -0.1303
13371W        W56309  19.096  16.651   4.528 -0.0645 -0.2323 -0.4085
13372W        W56310  21.229  15.716   4.585 -0.0746 -0.2241 -0.2007
13373W        W56311  19.744  16.819   3.047  0.1663 -0.2523 -0.2214
13374W        W56312  19.198  17.064   4.848 -0.1043 -0.0230 -0.1389
13375W        W56313  19.493  16.671   5.758  0.1449  0.0181  0.3486
13376W        W56314  17.662  17.931   4.270  0.1533 -0.0535  0.0471
13377W        W56315  20.956  14.985   6.291  0.0388 -0.0550 -0.0135
13378W        W56316  19.059  18.039   2.982  0.0568 -0.3609 -0.0829
13379W        W56317  20.666  15.299   3.407 -0.1344  0.0937  0.2135
13380W        W56318  20.453  15.369   2.618 -0.1853 -0.2723  0.0849
13381W        W56319  19.062  15.061   3.307  0.2601 -0.0575 -0.5245
13382W        W56320  19.546  14.968   4.603 -0.1067 -0.0223 -0.1353
13383W        W56321  19.364  18.119   4.689  0.2141  0.3336 -0.1317
13384W        W56322  19.620  15.359   5.336  0.0683  0.1885  0.3224
13385W        W56323  22.083  16.555   5.983  0.4078  0.0070  0.1135
13386W        W56324  20.140  16.618   4.284 -0.3313  0.1071 -0.3013
13387W        W56325  20.717  16.738   4.839 -0.1624  0.2066 -0.1389
13388W        W56326  18.998  17.349   4.398 -0.1894  0.2076 -0.1772
13389W        W56327  18.038  13.956   3.692  0.0353  0.0880 -0.0022
13390W        W56328  21.607  17.183   3.062 -0.1341  0.0366 -0.0456
13391W        W56329  21.182  18.065   5.322  0.0844  0.0374  0.0317
13392W        W56330  19.423  16.682   2.379 -0.1179  0.1808 -0.1502
13393W        W56331  19.890  16.201   4.186  0.0402 -0.1814  0.4009
13394W        W56332  17.401  18.493   6.461  0.0118  0.1132  0.2939
13395W        W56333  18.382  16.499   5.710 -0.0463  0.2184  0.0648
13396W        W56334  20.545  14.758   3.433  0.2390 -0.0577  0.0207
13397W        W56335  21.803  16.313   6.510  0.2963  0.1984  0.0083
13398W        W56336  18.573  17.257   5.824  0.0730  0.3097 -0.1199
13399W        W56337  21.936  15.296   4.461  0.1181  0.0676  0.1228
13400W        W56338  18.459  16.058   4.434  0.0083  0.0411 -0.0329
13401W        W56339  19.307  17.527   4.723 -0.0370  0.0623 -0.1666
13402W        W56340  20.948  16.735   2.587  0.3566 -0.1298  0.0934
13403W        W56341  22.764  14.887   5.855 -0.0089  0.3033  0.0641
13404W        W56342  20.938  15.130   5.328  0.0780  0.2010 -0.3848
13405W        W56343  18.204  14.427   3.604  0.0790  0.0761  0.0158
13406W        W56344  20.358  16.137   4.062 -0.2061 -0.0995 -0.3004
13407W        W56345  21.180  16.621   4.840  0.0251  0.0017  0.0323
13408W        W56346  20.157  17.093   4.220 -0.0989  0.0057  0.1497
13409W        W56347  18.520  18.419   5.325 -0.2520  0.4506 -0.2032
13410W        W56348  19.773  16.145   6.962 -0.3083 -0.1904 -0.1225
13411W        W56349  19.874  18.819   6.255  0.0419 -0.1125  0.1473
13412W        W56350  17.934  18.214   2.244 -0.2512 -0.0281 -0.5385
13413W        W56351  18.210  17.874   3.272 -0.1601  0.0465 -0.3013
13414W        W56352  19.181  16.548   2.982 -0.0056 -0.0124  0.1704
13415W        W56353  18.063  14.785   4.216  0.2514 -0.1154  0.1933
13416W        W56354  19.114  17.879   5.150  0.1505  0.1743  0.3596
13417W        W56355  21.518  15.098   4.746 -0.0736 -0.1380  0.0263
13418W        W56356  20.022  15.411   4.784  0.1540 -0.0421  0.0031
13419W        W56357  22.264  15.458   4.041  0.0417 -0.2594  0.0538
13420W        W56358  19.230  16.982   2.735  0.1423  0.1423  0.0537
13421W        W56359  21.586  17.211   4.870 -0.2407 -0.0716  0.1873
13422W        W56360  21.985  16.664   4.230  0.0932 -0.3408 -0.3830
13423W        W56361  19.005  16.938   5.267 -0.2415  0.2942  0.0454
13424W        W56362  16.643  15.989   6.299  0.0432 -0.0286  0.1164
13425W        W56363  18.860  16.282   3.476 -0.1112 -0.2395  0.1727
13426W        W56364  19.636  15.672   7.112 -0.0181  0.1968 -0.2184
13427W        W56365  18.501  14.921   4.537 -0.1218 -0.3088  0.1332
13428W        W56366  20.704  15.831   5.885  0.1840 -0.1258 -0.0404
13429W        W56367  17.674  17.098   4.446 -0.0580  0.2087  0.1566
13430W        W56368  21.135  15.513   5.032 -0.4241  0.1133 -0.4041
13431W        W56369  20.211  15.142   3.572 -0.2539  0.0612 -0.1115
13432W        W56370  19.302  17.666   4.197  0.2686  0.1764 -0.0387
13433W        W56371  20.428  15.227   6.506 -0.0490  0.0628  0.2065
13434W        W56372  19.369  17.741   1.558 -0.0948 -0.0414  0.0041
13435W        W56373  21.567  17.275   6.488 -0.1168 -0.1061 -0.1111
13436W        W56374  21.566  16.825   5.164 -0.0813  0.1057  0.1514
13437W        W56375  18.838  16.014   5.304  0.0105 -0.1579  0.0093
13438W        W56376  18.100  15.015   5.278 -0.2539 -0.2024 -0.0179
13439W        W56377  19.302  19.130   4.967 -0.2240 -0.0846 -0.2123
13440W        W56378  18.456  17.622   5.105  0.2578 -0.1301 -0.0485
13441W        W56379  19.943  15.717   4.283  0.3423  0.0915  0.2606
13442W        W56380  21.139  17.384   5.684 -0.0505  0.3985 -0.1339
13443W        W56381  19.624  15.818   3.290  0.1413 -0.0185 -0.0519
13444W        W56382  17.469  15.475   4.584 -0.0581 -0.1211  0.1486
13445W        W56383  20.710  14.656   5.318  0.0505  0.2048  0.1443
13446W        W56384  21.005  16.393   5.838 -0.0418 -0.2019 -0.3293
13447W        W56385  20.132  16.844   4.813  0.3250  0.0402 -0.1158
13448W        W56386  18.411  15.063   3.784  0.0496  0.0444 -0.1764
13449W        W56387  20.298  17.724   5.392  0.0271 -0.0256 -0.0793
13450W        W56388  18.591  17.238   2.857  0.0707  0.0617  0.0085
13451W        W56389  18.059  15.794   2.634 -0.0775  0.1970 -0.2897
13452W        W56390  18.977  18.276   4.293 -0.3158  0.0565 -0.5786
13453W        W56391  21.190  15.222   5.767  0.2833  0.1172 -0.0286
13454W        W56392  17.021  17.179   6.022  0.2790 -0.0034  0.1505
13455W        W56393  20.110  15.960   7.297  0.1347  0.1497 -0.0430
13456W        W56394  18.034  15.226   4.434  0.0145 -0.0995 -0.2049
13457W        W56395  18.091  16.571   6.683  0.1968 -0.3433  0.0351
13458W        W56396  20.323  15.746   5.075  0.1904 -0.2623  0.1583
13459W        W56397  22.347  15.727   3.149  0.0434 -0.1711  0.1673
13460W        W56398  19.922  17.864   5.881  0.2854  0.0681  0.2117
13461W        W56399  20.581  16.936   4.395 -0.2699 -0.1770  0.2448
13462W        W56400  21.769  14.058   4.512  0.0093 -0.1900  0.1107
13463W        W56401  20.428  13.658   3.073 -0.2100 -0.0389 -0.1588
13464W        W56402  17.914  17.536   6.774  0.2186  0.0908  0.1857
13465W        W56403  19.737  15.919   4.672  0.0041  0.0695 -0.2949
13466W        W56404  18.774  18.902   5.253 -0.1969  0.4595  0.2948
13467W        W56405  20.067  14.785   3.225 -0.2243 -0.2758  0.0347
13468W        W56406  21.699  18.213   5.032  0.0198 -0.1314  0.1818
13469W        W56407  17.676  17.535   3.507 -0.1773  0.0089 -0.0813
13470W        W56408  20.484  16.725   6.668  0.3225  0.2431  0.3181
13471W        W56409  20.872  17.741   6.269  0.1542  0.0686 -0.1025
13472W        W56410  17.932  15.761   4.456  0.1042  0.0050  0.0162
13473W        W56411  19.640  15.978   3.749  0.1225  0.4232 -0.0758
13474W        W56412  20.125  14.868   4.390  0.2588 -0.0840  0.0343
13475W        W56413  17.495  16.433   2.242 -0.0797 -0.2924  0.1164
13476W        W56414  21.219  16.149   4.978 -0.4552  0.2113  0.0718
13477W        W56415  19.308  15.887   5.075  0.2612  0.1118  0.1378
13478W        W56416  19.520  14.627   4.100  0.1263 -0.0608 -0.1608
13479W        W56417  19.948  15.307   6.311  0.0528 -0.1534 -0.1047
13480W        W56418  22.491  15.794   4.629  0.0717  0.0264  0.4232
13481W        W56419  21.230  14.938   4.025 -0.0760  0.0311  0.2630
13482W        W56420  18.987  15.533   4.095 -0.0290 -0.0537 -0.1070
13483W        W56421  19.078  15.459   5.231 -0.0300  0.2101  0.3114
13484W        W56422  19.165  16.406   5.177 -0.2909  0.2366  0.1989
13485W        W56423  17.551  18.994   5.385  0.0278 -0.1065 -0.0023
13486W        W56424  20.251  17.219   5.651  0.0202  0.1307 -0.0527
13487W        W56425  20.584  16.420   4.405 -0.0387  0.2468  0.0728
13488W        W56426  21.405  14.908   6.129 -0.1126 -0.0488 -0.0066
13489W        W56427  20.017  15.268   2.910  0.1807 -0.1296 -0.2222
13490W        W56428  18.987  17.529   3.806  0.1366  0.1007  0.0843
13491W        W56429  19.804  16.297   1.959  0.1024  0.1613  0.3056
13492W        W56430  19.755  14.468   4.616 -0.2710 -0.1693  0.0265
13493W        W56431  19.726  17.069   5.478  0.2467  0.0914 -0.0791
13494W        W56432  18.251  17.203   2.325 -0.2604  0.3391 -0.3268
13495W        W56433  21.082  16.247   4.454 -0.3347 -0.1340 -0.0083
13496W        W56434  18.000  17.878   5.186  0.2169 -0.1570  0.1825
13497W        W56435  21.095  14.642   5.055 -0.0472  0.0106 -0.1041
13498W        W56436  17.126  17.800   4.382  0.0370  0.0457  0.1161
13499W        W56437  18.170  16.501   4.084 -0.1762 -0.1826  0.0802
13500W        W56438  18.544  16.635   3.446 -0.3757 -0.0083 -0.1111
13501W        W56439  21.668  15.433   3.443  0.2570  0.1130  0.1500
13502W        W56440  20.572  15.902   3.563  0.0837  0.1233  0.0125
13503W        W56441  18.616  14.266   5.513  0.1395 -0.0776 -0.0174
13504W        W56442  18.486  14.553   3.957  0.0850  0.1168  0.1725
13505W        W56443  17.977  18.773   5.379  0.0147 -0.0954  0.0381
13506W        W56444  19.647  16.261   5.098 -0.0594  0.0104  0.0585
13507W        W56445  21.857  15.747   4.300 -0.1228 -0.3177 -0.0732
13508W        W56446  20.797  18.565   6.828  0.2976  0.0437 -0.2199
13509W        W56447  20.097  17.464   6.645 -0.1807 -0.1401  0.2776
13510W        W56448  17.410  14.442   4.304  0.0797  0.0933 -0.3157
13511W        W56449  20.100  16.962   6.445  0.3713  0.1336 -0.2452
13512W        W56450  20.244  16.066   4.620  0.0484  0.0349 -0.1497
13513W        W56451  19.343  17.353   5.238 -0.2017  0.0182 -0.0819
13514W        W56452  19.747  18.360   6.112  0.0320 -0.0858 -0.1728
13515W        W56453  18.639  15.854   3.389 -0.1019 -0.0459  0.0674
13516W        W56454  18.531  17.562   4.587 -0.0313  0.3365  0.0440
13517W        W56455  19.155  16.434   6.072  0.2022 -0.2369  0.0353
13518W        W56456  21.858  16.585   5.528  0.2192 -0.2730  0.1685
13519W        W56457  20.652  15.401   5.002 -0.2152  0.0271  0.1711
13520W        W56458  19.644  14.602   3.350  0.0712  0.1981 -0.4174
13521W        W56459  20.279  15.133   4.028  0.2484  0.0284 -0.1430
13522W        W56460  19.873  16.156   5.537 -0.0964 -0.3001  0.0830
13523W        W56461  20.122  15.331   5.314 -0.0782 -0.1232 -0.1662
13524W        W56462  18.610  18.433   5.899  0.1637 -0.0075 -0.1657
13525W        W56463  21.224  13.605   4.601  0.0217  0.1978 -0.3771
13526W        W56464  21.741  17.771   4.219  0.0951  0.2834 -0.0932
13527W        W56465  20.653  17.545   5.765  0.1020 -0.0794  0.2218
13528W        W56466  19.886  17.056   2.549  0.1077 -0.2231 -0.5100
13529W        W56467  18.556  15.765   3.974 -0.1441  0.0610  0.2149
13530W        W56468  20.028  17.415   3.794  0.0327 -0.0049  0.0702
13531W        W56469  20.729  15.373   6.007  0.3486 -0.3511  0.1765
13532W        W56470  19.037  17.076   5.771  0.1233  0.0220 -0.0126
13533W        W56471  18.910  17.008   3.247  0.3484 -0.0003 -0.0252
13534W        W56472  18.003  17.425   5.419  0.1095 -0.5059  0.0025
13535W        W56473  21.327  14.100   3.005 -0.2799  0.0417  0.0442
13536W        W56474  20.354  16.828   3.215 -0.1195 -0.0059 -0.1785
13537W        W56475  19.518  15.444   4.814  0.1171  0.0539 -0.1976
13538W        W56476  22.260  15.201   5.860 -0.1893  0.1262  0.0533
13539W        W56477  21.907  16.293   3.950  0.0140 -0.4143  0.0645
13540W        W56478  20.216  14.952   6.076  0.2166  0.1840 -0.1820
13541W        W56479  18.830  15.299   4.880  0.1087  0.1226  0.2792
13542W        W56480  23.105  18.493   3.309  0.0833  0.1178 -0.0988
13543W        W56481  20.055  16.528   6.765  0.1065 -0.0250  0.1290
13544W        W56482  20.274  18.267   9.599 -0.1142 -0.3712 -0.0701
13545W        W56483  18.579  17.761   6.423 -0.0775  0.1842 -0.2204
13546W        W56484  19.836  15.788   5.174 -0.1404  0.1389  0.1031
13547W        W56485  19.200  13.989   2.494  0.1390 -0.1873 -0.1568
13548W        W56486  18.585  17.200   5.366  0.0469  0.1475  0.1318
13549W        W56487  20.357  17.389   3.447  0.1617 -0.1245 -0.1239
13550W        W56488  20.131  16.054   3.571 -0.0905 -0.1998 -0.2151
13551W        W56489  22.585  15.109   5.481  0.2556  0.2665  0.2388
13552W        W56490  18.732  16.995   4.763  0.2083 -0.0093  0.3450
13553W        W56491  20.648  15.771   4.323  0.0874 -0.5788  0.0036
13554W        W56492  19.520  17.442   2.593 -0.2585 -0.0661 -0.4559
13555W        W56493  18.805  17.777   4.186  0.1773  0.1428 -0.1302
13556W        W56494  18.730  14.581   5.866 -0.2839 -0.0413  0.3486
13557W        W56495  19.668  16.892   4.581  0.0585  0.2121 -0.0598
13558W        W56496  20.386  16.125   5.469 -0.3851 -0.0988  0.1164
13559W        W56497  20.078  16.096   6.508 -0.1083 -0.0577  0.0803
13560W        W56498  19.747  15.668   6.636 -0.1332 -0.1079 -0.2070
13561W        W56499  19.905  17.103   7.364  0.2803  0.1044 -0.1913
13562W        W56500  18.426  15.934   6.307 -0.3161  0.1863  0.2044
13563W        W56501  22.016  18.273   6.034  0.1485 -0.2790  0.2358
13564W        W56502  23.041  14.348   4.565 -0.3030 -0.0748  0.1001
13565W        W56503  22.118  15.797   6.374 -0.0723  0.0342  0.2552
13566W        W56504  21.961  16.987   4.646 -0.3412 -0.0592  0.1303
13567W        W56505  20.535  16.511   3.529 -0.0001  0.1813 -0.1144
13568W        W56506  18.980  16.708   3.671 -0.0291 -0.1103 -0.0106
13569W        W56507  20.597  16.219   6.446 -0.0350  0.1309  0.5128
13570W        W56508  18.178  15.393   3.301 -0.0553 -0.0156 -0.0717
13571W        W56509  20.478  15.711   6.420 -0.2393 -0.1258  0.4748
13572W        W56510  21.039  16.760   4.258  0.3410 -0.1748  0.0263
13573W        W56511  19.864  17.791   4.078 -0.2778 -0.0289 -0.0456
13574W        W56512  20.952  15.342   4.349  0.2647 -0.1768 -0.0739
13575W        W56513  18.174  13.950   5.315  0.2225  0.1324  0.3277
13576W        W56514  17.028  17.238   5.521  0.2650 -0.1601  0.2447
13577W        W56515  19.328  15.549   2.641 -0.3166  0.1188  0.0847
13578W        W56516  19.627  16.352   3.084  0.1143 -0.0457 -0.1149
13579W        W56517  19.815  17.048   5.995 -0.3298 -0.1572 -0.3491
13580W        W56518  20.607  17.940   9.165 -0.0275  0.0631 -0.2873
13581W        W56519  20.250  14.921   2.622 -0.0520  0.0440  0.0426
13582W        W56520  20.121  16.025   6.015  0.0300  0.0193  0.0444
13583W        W56521  20.053  16.447   3.251  0.2779 -0.0709  0.0667
13584W        W56522  20.448  15.352   4.468  0.0006 -0.1965  0.1248
13585W        W56523  19.816  20.101   4.656 -0.2650  0.1178  0.1505
13586W        W56524  17.948  16.152   6.451 -0.0280 -0.0263  0.1280
13587W        W56525  18.019  17.838   3.776 -0.2684 -0.0918  0.0087
13588W        W56526  19.746  16.544   6.264  0.1803  0.0309 -0.0438
13589W        W56527  21.561  16.107   4.561  0.0144  0.0327 -0.3969
13590W        W56528  20.236  15.644   3.852  0.2246 -0.0786  0.1627
13591W        W56529  20.952  17.224   6.108  0.0656 -0.0591 -0.0658
13592W        W56530  19.519  18.555   6.562  0.0103  0.0790 -0.1799
13593W        W56531  17.964  16.239   4.470 -0.1479 -0.0500  0.3101
13594W        W56532  19.038  18.136   5.601  0.1115  0.2882  0.1867
13595W        W56533  21.905  16.109   6.078 -0.2455  0.0838  0.2705
13596W        W56534  18.209  17.183   4.307 -0.4627 -0.0031 -0.1646
13597W        W56535  18.185  15.663   6.828 -0.2418 -0.1597 -0.0891
13598W        W56536  20.249  16.540   6.250  0.0546  0.3198 -0.1241
13599W        W56537  18.399  16.196   3.663 -0.1565  0.0458 -0.0344
13600W        W56538  19.419  15.404   3.105 -0.3131  0.1493 -0.0975
13601W        W56539  18.794  16.382   4.105 -0.2016  0.3231 -0.1277
13602W        W56540  18.189  17.085   6.747  0.0998  0.2745  0.1048
13603W        W56541  18.361  16.881   6.053 -0.0916 -0.1374  0.1150
13604W        W56542  18.191  18.416   3.561  0.1379  0.3986  0.1385
13605W        W56543  20.458  17.555   4.261 -0.2202 -0.0735 -0.1173
13606W        W56544  20.234  16.920   3.755  0.0939 -0.2599 -0.2013
13607W        W56545  19.746  17.243   4.946  0.0190  0.0577 -0.1962
13608W        W56546  19.916  15.569   2.054  0.3924  0.0024 -0.0389
13609W        W56547  18.500  17.971   5.504 -0.0811  0.4724  0.0286
13610W        W56548  18.627  16.251   3.031 -0.2950 -0.0058  0.2320
13611W        W56549  21.055  17.512   4.843  0.0705 -0.0420 -0.0978
13612W        W56550  19.097  18.077   3.842  0.0821 -0.0491 -0.2733
13613W        W56551  21.569  17.070   6.011  0.2926 -0.1257  0.0088
13614W        W56552  21.129  14.024   2.479  0.1021 -0.1960  0.0572
13615W        W56553  20.995  16.541   5.371  0.0225 -0.3539  0.0937
13616W        W56554  22.956  14.853   3.662  0.0645  0.3169  0.0085
13617W        W56555  20.283  17.466   7.139  0.2485 -0.0084 -0.1244
13618W        W56556  18.556  16.686   5.188 -0.1589 -0.3714 -0.2562
13619W        W56557  20.243  15.200   2.191  0.2057 -0.1297 -0.1672
13620W        W56558  17.512  15.010   4.336 -0.2338 -0.1179 -0.0850
13621W        W56559  21.278  15.451   6.197  0.0910  0.2730  0.1942
13622W        W56560  19.066  17.978   6.501  0.1217  0.1626 -0.3400
13623W        W56561  20.364  17.747   3.829 -0.1990 -0.1771  0.1614
13624W        W56562  18.504  17.462   3.363  0.3517  0.1063 -0.0945
13625W        W56563  20.135  16.230   5.060  0.3086  0.1615 -0.0663
13626W        W56564  20.927  14.861   5.795  0.2291  0.4087 -0.0080
13627W        W56565  18.942  16.130   1.889  0.0190  0.0805  0.3537
13628W        W56566  21.659  16.560   4.733  0.1705 -0.1177 -0.0973
13629W        W56567  18.793  17.906   3.419  0.1195 -0.0574  0.0299
13630W        W56568  18.824  17.876   5.999 -0.0055  0.0731 -0.2460
13631W        W56569  18.174  18.148   5.977 -0.1741  0.0902 -0.1007
13632W        W56570  18.797  14.700   3.583  0.0122  0.2810 -0.0961
13633W        W56571  22.725  15.261   3.877  0.0413 -0.0119  0.1934
13634W        W56572  19.627  16.151   5.978 -0.1094 -0.2118  0.2197
13635W        W56573  21.029  15.846   6.309 -0.2432 -0.1358 -0.0927
13636W        W56574  19.054  14.983   4.524  0.0242  0.5868  0.0708
13637W        W56575  21.041  16.719   3.725 -0.2500 -0.1751  0.0163
13638W        W56576  18.041  15.980   4.004  0.3466  0.0181 -0.3638
13639W        W56577  19.432  17.372   5.767 -0.0642  0.0924  0.2765
13640W        W56578  19.329  16.223   4.726  0.1195  0.2999  0.1609
13641W        W56579  20.741  14.527   6.560  0.0804 -0.3052 -0.2599
13642W        W56580  19.809  15.928   1.505  0.3525 -0.1941 -0.3173
13643W        W56581  20.244  18.430   6.950  0.1051  0.2425 -0.3448
13644W        W56582  17.762  15.749   3.330 -0.3067  0.1019  0.0263
13645W        W56583  20.749  14.836   3.843  0.1249 -0.1643 -0.2816
13646W        W56584  19.473  16.637   3.544  0.1995  0.3157  0.0026
13647W        W56585  19.243  16.147   5.640 -0.2486  0.2321  0.4232
13648W        W56586  19.469  17.832   5.533  0.0561  0.0586 -0.2216
13649W        W56587  16.180  14.995   3.665  0.1688 -0.1346  0.1522
13650W        W56588  20.940  15.771   3.849 -0.1752  0.0375  0.0565
13651W        W56589  22.755  15.223   5.015  0.3221  0.0533 -0.2206
13652W        W56590  19.539  17.430   3.822  0.2946 -0.1858 -0.0181
13653W        W56591  21.447  16.434   3.623  0.5292 -0.1030 -0.1624
13654W        W56592  20.678  17.262   5.355  0.0019  0.0331  0.1122
13655W        W56593  16.375  14.888   4.535 -0.4270  0.1888 -0.1102
13656W        W56594  20.609  18.375   7.369  0.1579  0.0003  0.2638
13657W        W56595  20.187  17.234   5.169 -0.2583  0.0224 -0.0557
13658W        W56596  20.079  14.356   4.181 -0.1006  0.4278 -0.1038
13659W        W56597  18.353  16.090   5.436  0.0856 -0.1090 -0.0880
13660W        W56598  18.174  17.678   4.247  0.0679  0.0371  0.0510
13661W        W56599  21.835  16.566   3.288  0.0751 -0.4248  0.2427
13662W        W56600  21.524  15.278   5.285  0.0845  0.0936  0.0319
13663W        W56601  19.585  17.196   2.178  0.1858 -0.0777 -0.2831
13664W        W56602  20.780  13.593   7.498 -0.0108 -0.0303 -0.2256
13665W        W56603  18.870  17.418   4.969  0.0270  0.2129  0.2051
13666W        W56604  18.233  18.835   6.619 -0.3056 -0.0092  0.0505
13667W        W56605  18.834  15.424   2.616  0.1536  0.1127 -0.1269
13668W        W56606  19.629  17.024   6.645 -0.2842 -0.0219  0.4805
13669W        W56607  19.234  17.105   3.611  0.0543 -0.1350 -0.1905
13670W        W56608  19.738  16.934   3.944  0.2864 -0.1117 -0.3012
13671W        W56609  21.425  17.460   4.434  0.1135  0.1595  0.0166
13672W        W56610  21.482  15.379   4.344 -0.1888  0.2008  0.2462
13673W        W56611  21.949  17.493   4.603 -0.2758 -0.1649  0.0692
13674W        W56612  19.426  15.599   4.298 -0.3543  0.2499 -0.0601
13675W        W56613  21.358  13.861   4.105 -0.0296 -0.2261 -0.1361
13676W        W56614  21.145  13.132   3.463  0.0467 -0.1307  0.0073
13677W        W56615  18.841  16.249   4.752  0.1791 -0.2044  0.0606
13678W        W56616  18.134  15.728   3.641  0.2228 -0.1430  0.0528
13679W        W56617  17.537  15.596   1.315  0.5068  0.0121 -0.1058
13680W        W56618  19.246  16.332   3.845 -0.0969  0.0153  0.0905
13681W        W56619  19.405  15.650   5.684 -0.0811 -0.0825 -0.2340
13682W        W56620  19.363  16.548   6.676  0.1743  0.2411  0.1428
13683W        W56621  18.973  14.712   4.893  0.1600 -0.1304  0.0632
13684W        W56622  18.360  15.683   5.785 -0.1701  0.2384  0.0615
13685W        W56623  20.507  16.889   2.703  0.1814 -0.0938 -0.0811
13686W        W56624  17.248  14.480   3.215  0.0208  0.3430 -0.1349
13687W        W56625  16.871  14.523   4.142  0.2056 -0.0163  0.0972
13688W        W56626  21.051  18.397   4.387 -0.1654  0.1729  0.1085
13689W        W56627  20.980  17.464   4.222  0.2464  0.1666 -0.2934
13690W        W56628  19.960  14.348   2.998 -0.1689  0.3394  0.0921
13691W        W56629  21.749  16.127   5.046  0.1996  0.0370  0.1065
13692W        W56630  17.647  15.162   3.113 -0.1121  0.0597 -0.0312
13693W        W56631  21.083  16.182   7.247  0.0317  0.0172  0.0417
13694W        W56632  19.821  16.326   7.636 -0.1705 -0.1887 -0.2625
13695W        W56633  18.690  14.910   2.417  0.1081  0.1101  0.3608
13696W        W56634  19.532  16.755   5.066 -0.4351  0.1914  0.2751
13697W        W56635  20.674  17.214   3.863 -0.1438 -0.1015 -0.2844
13698W        W56636  20.861  17.665   3.642 -0.2652  0.3531 -0.1674
13699W        W56637  18.620  15.777   4.907 -0.0473  0.0049  0.1280
13700W        W56638  19.447  18.779   5.325  0.0717 -0.0834 -0.0963
13701W        W56639  18.608  15.553   6.620  0.3164  0.0734  0.0864
13702W        W56640  21.226  17.913   4.276 -0.0200 -0.1366 -0.0452
13703W        W56641  19.025  17.394   6.232  0.1815 -0.0971 -0.1601
13704W        W56642  22.812  16.153   3.921 -0.3120 -0.0686  0.0457
13705W        W56643  20.826  14.337   4.792  0.1319  0.0863  0.3981
13706W        W56644  20.088  16.670   2.761 -0.2770 -0.2533 -0.1130
13707W        W56645  19.685  14.739   5.997 -0.2990 -0.1163 -0.0238
13708W        W56646  18.597  17.276   6.396 -0.2080 -0.1460  0.3429
13709W        W56647  21.755  16.084   5.554 -0.0451 -0.0561  0.2500
13710W        W56648  20.277  14.632   3.831  0.2247 -0.1846 -0.1666
13711W        W56649  21.176  14.324   4.016 -0.0723 -0.0645  0.0466
13712W        W56650  21.222  17.124   3.940  0.0002  0.2170  0.3496
13713W        W56651  19.102  15.641   4.706  0.0422  0.0094 -0.1199
13714W        W56652  19.132  15.908   3.240  0.0870  0.0860  0.0125
13715W        W56653  20.010  16.554   5.804  0.0445 -0.2863  0.1303
13716W        W56654  19.718  17.915   5.056 -0.2382 -0.1283 -0.0324
13717W        W56655  19.837  17.889   6.514 -0.0457 -0.0654  0.0912
13718W        W56656  18.895  15.488   3.137 -0.0350  0.3632 -0.2210
13719W        W56657  21.432  16.887   3.459 -0.2272  0.5294  0.0741
13720W        W56658  20.787  17.714   5.263  0.4601  0.3390  0.0734
13721W        W56659  21.982  17.008   7.080  0.0480 -0.0692  0.1110
13722W        W56660  18.378  16.453   6.305  0.2412  0.0249  0.0952
13723W        W56661  20.824  15.838   5.222  0.0266  0.1178 -0.1932
13724W        W56662  17.260  15.395   4.103 -0.0919  0.0240  0.1333
13725W        W56663  19.841  16.431   4.626  0.1087 -0.1992  0.3950
13726W        W56664  19.971  16.514   3.799  0.0093 -0.1645  0.0974
13727W        W56665  20.720  15.936   4.756 -0.0518 -0.2038  0.0148
13728W        W56666  19.273  13.866   3.878  0.0086 -0.2185 -0.0776
13729W        W56667  20.478  15.073   3.021 -0.0678 -0.1096 -0.1705
13730W        W56668  18.046  17.388   4.826 -0.0252  0.0604 -0.3227
13731W        W56669  20.840  16.292   3.942  0.1037  0.0668  0.0112
13732W        W56670  18.890  17.142   8.823 -0.0438 -0.1889 -0.2881
13733W        W56671  20.244  14.979   7.311 -0.2317 -0.1197  0.1746
13734W        W56672  20.281  15.505   5.966  0.1905 -0.1919  0.2217
13735W        W56673  20.764  14.764   8.163 -0.1265 -0.1203  0.1497
13736W        W56674  18.909  16.073   8.088  0.1735 -0.4071 -0.3502
13737W        W56675  21.095  17.297   6.601  0.4336  0.2766  0.3736
13738W        W56676  21.531  16.991   8.974  0.1118  0.0461 -0.1700
13739W        W56677  21.237  18.222   8.810 -0.1029  0.0371 -0.2456
13740W        W56678  20.426  16.986   6.060  0.2027  0.3747  0.0251
13741W        W56679  21.974  15.501   8.931 -0.2943 -0.3366 -0.0299
13742W        W56680  19.794  14.864   6.652  0.0209 -0.0948 -0.1927
13743W        W56681  18.632  14.944   8.052 -0.0785 -0.0303 -0.0812
13744W        W56682  21.184  15.385   9.103 -0.0408  0.1426 -0.2685
13745W        W56683  19.442  17.524   6.652  0.2837 -0.2723 -0.2911
13746W        W56684  17.527  13.285   9.179 -0.2388  0.0203 -0.2033
13747W        W56685  20.001  14.594   7.040 -0.0453  0.2946 -0.2062
13748W        W56686  19.288  17.823   7.033 -0.2344  0.2152 -0.1782
13749W        W56687  18.932  15.306   8.826  0.1945 -0.0652 -0.3032
13750W        W56688  18.285  19.178   5.976 -0.1997  0.2216  0.0235
13751W        W56689  18.118  16.145   5.972 -0.0543  0.2162 -0.2664
13752W        W56690  17.980  15.994   7.549  0.1279 -0.0330 -0.0435
13753W        W56691  17.657  16.534  10.042  0.0667  0.0245  0.3878
13754W        W56692  21.512  13.943   9.507 -0.0257  0.1963  0.1089
13755W        W56693  20.077  17.930   9.157  0.1511 -0.3446 -0.0844
13756W        W56694  19.115  16.970   9.420 -0.1505  0.0234 -0.0963
13757W        W56695  20.229  16.489   9.411 -0.0288  0.0385 -0.1502
13758W        W56696  18.950  16.283   7.597 -0.0311 -0.2963  0.1752
13759W        W56697  17.212  17.722   8.514  0.0978 -0.3394  0.1201
13760W        W56698  20.981  17.713   7.522  0.2720  0.2438 -0.2709
13761W        W56699  21.293  16.538   9.208  0.2865  0.1190 -0.1550
13762W        W56700  18.650  18.412   7.209  0.1499 -0.1375 -0.2125
13763W        W56701  20.458  16.005   8.270 -0.1310 -0.1039 -0.0559
13764W        W56702  19.851  15.702   9.557 -0.0791  0.0077  0.1822
13765W        W56703  20.709  16.909   7.940  0.2031  0.2041  0.3052
13766W        W56704  20.132  16.327   8.530 -0.1167 -0.1129 -0.0253
13767W        W56705  18.849  16.966   7.978  0.0327  0.1273  0.0786
13768W        W56706  18.398  17.586   6.906 -0.2500  0.2639 -0.1444
13769W        W56707  21.271  15.471   6.811 -0.1864  0.0478  0.0168
13770W        W56708  18.695  15.387   7.092 -0.0776  0.1620  0.2924
13771W        W56709  21.131  16.228   7.830 -0.1510  0.0603 -0.1762
13772W        W56710  20.355  14.697   8.518  0.1474 -0.1051  0.2628
13773W        W56711  19.371  16.814   9.910 -0.2165  0.1177 -0.0660
13774W        W56712  21.079  14.201   9.537 -0.0944  0.0703  0.3317
13775W        W56713  19.823  16.825   7.789 -0.0708  0.0577 -0.1840
13776W        W56714  19.774  15.420   8.667 -0.3211 -0.0031 -0.1261
13777W        W56715  20.522  17.061   9.833  0.1269  0.1837  0.0579
13778W        W56716  16.798  15.675   9.652  0.0043  0.1268  0.1491
13779W        W56717  20.854  16.882   5.730 -0.1573 -0.3179  0.0483
13780W        W56718  20.600  17.378   8.054 -0.1079  0.1160  0.2111
13781W        W56719  20.290  18.173   5.660 -0.1133 -0.2764 -0.0868
13782W        W56720  17.505  15.217   9.973 -0.1004 -0.2332 -0.4079
13783W        W56721  19.498  15.132   7.056  0.2268  0.1115 -0.0559
13784W        W56722  20.952  13.036   9.391 -0.0252  0.2956 -0.1352
13785W        W56723  19.085  16.549   8.046  0.1346  0.3278  0.0373
13786W        W56724  21.095  17.808   9.123 -0.3552  0.0193  0.3069
13787W        W56725  20.952  16.422   6.774  0.0347  0.1513  0.0483
13788W        W56726  21.267  13.355   9.066 -0.2237  0.0345  0.3435
13789W        W56727  21.465  13.571   9.878 -0.2255  0.2519  0.2034
13790W        W56728  19.961  17.621   7.524 -0.2040  0.0167  0.3005
13791W        W56729  20.370  16.801   7.626  0.1192  0.1071 -0.0144
13792W        W56730  22.865  17.702  10.602 -0.2272  0.0777  0.2133
13793W        W56731  21.939  16.513   7.075  0.0064 -0.1558  0.1578
13794W        W56732  19.037  18.387   8.525 -0.0094 -0.0530 -0.0692
13795W        W56733  19.254  19.158   7.278  0.2375 -0.0106  0.3549
13796W        W56734  18.531  17.143   8.406  0.0724  0.0562  0.4549
13797W        W56735  17.237  18.045   6.324  0.2871 -0.0690 -0.2070
13798W        W56736  18.782  16.214   9.762  0.1799 -0.1429 -0.3415
13799W        W56737  20.015  17.019   9.401 -0.1335 -0.0955 -0.3930
13800W        W56738  22.419  13.563   8.068  0.1004  0.0045  0.0509
13801W        W56739  21.432  14.152   8.683  0.2869  0.0109 -0.0044
13802W        W56740  19.129  16.730   7.181  0.0169  0.0904  0.1722
13803W        W56741  21.034  18.199   6.126 -0.0513 -0.0063  0.0484
13804W        W56742  21.226  14.738   7.977 -0.4398  0.0459  0.0384
13805W        W56743  20.879  15.800   6.886 -0.1416 -0.1321 -0.0761
13806W        W56744  18.748  16.798   7.459 -0.2002 -0.1683 -0.2489
13807W        W56745  18.781  14.834   7.565  0.0740  0.2934  0.0971
13808W        W56746  19.258  14.797   7.577 -0.0318  0.1508  0.2400
13809W        W56747  18.412  16.671   7.070 -0.2712 -0.0895 -0.0304
13810W        W56748  20.844  15.097   6.794  0.0658 -0.3308 -0.2391
13811W        W56749  19.469  15.152   7.951 -0.1246  0.1905  0.0774
13812W        W56750  18.859  16.395   6.928 -0.1295  0.0139 -0.1720
13813W        W56751  19.868  18.859   8.391  0.1885 -0.0754  0.0742
13814W        W56752  22.451  16.736   9.759  0.2177 -0.1447 -0.2782
13815W        W56753  19.934  17.147   9.937  0.0993 -0.0788  0.1491
13816W        W56754  19.606  15.397   9.102 -0.1150  0.1758 -0.0973
13817W        W56755  19.176  15.664   8.428  0.1249  0.1135 -0.0158
13818W        W56756  18.888  17.605   7.278 -0.1432 -0.3475  0.0081
13819W        W56757  19.835  17.378   8.104  0.0623 -0.1098 -0.0651
13820W        W56758  18.492  16.163   7.257  0.6126 -0.0421 -0.0618
13821W        W56759  20.800  17.435   8.828  0.1533 -0.1148 -0.1352
13822W        W56760  21.463  16.939   7.341 -0.0850 -0.1313 -0.2724
13823W        W56761  21.406  15.449   9.632  0.3173 -0.0195  0.0574
13824W        W56762  20.725  15.008   9.019 -0.0361 -0.1403 -0.2174
13825W        W56763  18.042  15.920   5.035  0.0853  0.3881 -0.2152
13826W        W56764  21.460  17.634   7.289  0.0879  0.2349 -0.0341
13827W        W56765  18.043  18.679   5.887  0.1891  0.0706  0.2920
13828W        W56766  18.471  17.442   7.601 -0.1403 -0.1380  0.1559
13829W        W56767  20.230  17.432   9.221 -0.0471 -0.1422 -0.1895
13830W        W56768  19.746  14.956   8.792 -0.0878 -0.0824  0.0877
13831W        W56769  18.707  17.093   6.981 -0.1599 -0.1703 -0.0576
13832W        W56770  20.526  13.564   8.015 -0.0881 -0.1807 -0.0978
13833W        W56771  21.263  14.706   6.613 -0.1421  0.1592  0.0492
13834W        W56772  20.566  15.487   8.998  0.0688  0.0684 -0.3581
13835W        W56773  20.528  16.516   5.809 -0.0048 -0.1054  0.1690
13836W        W56774  19.985  15.251   6.895 -0.0450  0.0699  0.0376
13837W        W56775  20.274  18.329  11.125  0.0671  0.0068 -0.0195
13838W        W56776  20.130  16.138   9.011 -0.3223 -0.4411 -0.2336
13839W        W56777  21.127  14.446   9.054 -0.1637  0.3697 -0.0548
13840W        W56778  21.542  18.145   8.385  0.2482 -0.1107  0.0967
13841W        W56779  16.924  16.140   9.420  0.2213 -0.1542 -0.1852
13842W        W56780  21.483  17.080   9.464 -0.1911  0.2483  0.0248
13843W        W56781  19.875  13.981   8.544  0.2037 -0.4520  0.1854
13844W        W56782  19.803  15.836   7.752 -0.3053  0.1389 -0.1348
13845W        W56783  20.008  14.443   8.239  0.3976 -0.1126 -0.1277
13846W        W56784  17.988  17.285   5.918 -0.2025 -0.0715 -0.1036
13847W        W56785  21.409  14.548   9.430 -0.2704 -0.0216  0.0425
13848W        W56786  20.964  14.831   9.468  0.0667  0.0930  0.1699
13849W        W56787  20.705  14.720   7.144  0.1995  0.0581 -0.0531
13850W        W56788  19.922  15.280   7.837 -0.2408  0.1743  0.0908
13851W        W56789  20.158  17.038   6.949  0.0331  0.1732  0.1800
13852W        W56790  19.196  15.588   7.914  0.0912  0.0606  0.3993
13853W        W56791  19.964  17.039   8.909  0.1611  0.3444  0.0189
13854W        W56792  20.578  15.472   7.640 -0.0276  0.0469  0.0618
13855W        W56793  20.228  15.693   6.889  0.0051  0.1266 -0.0786
13856W        W56794  19.645  17.436   6.222  0.0114 -0.1689  0.0045
13857W        W56795  19.220  18.300   6.886  0.1960 -0.0497 -0.3991
13858W        W56796  19.277  14.996   8.980  0.1983 -0.2729 -0.1715
13859W        W56797  18.694  17.701   9.997  0.0303  0.0373  0.0089
13860W        W56798  19.356  16.909   6.228 -0.2501 -0.0160 -0.1038
13861W        W56799  22.864  16.527   9.370  0.0310  0.0485  0.1400
13862W        W56800  20.289  17.816   7.917 -0.2035  0.0549  0.2023
13863W        W56801  19.737  14.015   9.008 -0.1503  0.0630 -0.0152
13864W        W56802  19.062  17.912   8.370 -0.1342 -0.0180  0.2593
13865W        W56803  19.634  16.464   8.097  0.0556 -0.1404 -0.0898
13866W        W56804  19.403  16.061   8.248  0.2283  0.0475 -0.0982
13867W        W56805  21.427  14.167   9.977  0.1404 -0.1044  0.2375
13868W        W56806  21.645  16.096   7.100 -0.0793 -0.1003  0.1183
13869W        W56807  17.789  16.844   9.676  0.0184  0.0200  0.1528
13870W        W56808  17.801  17.155  10.099  0.4040 -0.1698  0.1337
13871W        W56809  18.326  17.287   9.855  0.1700  0.0091  0.0110
13872W        W56810  20.979  13.288   7.937 -0.0987  0.1160 -0.2928
13873W        W56811  18.960  15.108   5.706  0.1109  0.0200 -0.2957
13874W        W56812  22.416  15.598   9.187 -0.0747  0.2008 -0.0278
13875W        W56813  20.672  16.130   8.733 -0.0518 -0.2947  0.1664
13876W        W56814  17.348  16.532   6.403 -0.3670  0.2075  0.3435
13877W        W56815  23.276  17.980   9.701 -0.4109  0.1659 -0.2614
13878W        W56816  19.118  17.020   6.678 -0.0002 -0.1051 -0.0715
13879W        W56817  19.117  16.719   8.958 -0.5235  0.0069 -0.1836
13880W        W56818  21.798  16.654   9.248  0.0171 -0.0747  0.1636
13881W        W56819  18.945  16.314   9.313  0.0418  0.1463  0.1855
13882W        W56820  18.920  15.261   8.307  0.0028 -0.1588 -0.0893
13883W        W56821  20.230  15.626   8.534  0.0246  0.0738  0.0005
13884W        W56822  21.098  17.163   9.849 -0.1283  0.0501  0.0266
13885W        W56823  20.597  16.927  10.888  0.4272 -0.4993  0.2048
13886W        W56824  19.305  13.834   8.186  0.0818  0.0935 -0.2693
13887W        W56825  21.383  18.465   8.005  0.1017  0.3402  0.1538
13888W        W56826  19.431  16.988   8.079  0.1713 -0.2869  0.2198
13889W        W56827  17.513  16.904   8.258 -0.1433  0.1015  0.0723
13890W        W56828  19.807  17.617   7.034  0.1482 -0.0332  0.1853
13891W        W56829  21.888  13.789  10.083  0.2742 -0.2647 -0.0664
13892W        W56830  19.461  16.276   7.294 -0.0200  0.1318 -0.1840
13893W        W56831  19.682  18.088   7.513 -0.0238  0.1068  0.0790
13894W        W56832  18.533  17.684   9.531  0.1067  0.1735  0.0219
13895W        W56833  21.996  14.154   7.220  0.0039 -0.1526  0.1695
13896W        W56834  20.590  16.776   7.171  0.3277  0.0646 -0.0797
13897W        W56835  19.413  16.148   7.760 -0.1905  0.0162  0.0807
13898W        W56836  21.492  16.403   7.469  0.1349 -0.4156  0.1604
13899W        W56837  18.897  11.421   9.724 -0.2154 -0.0519 -0.2972
13900W        W56838  20.746  15.656   8.407 -0.2730 -0.0251 -0.0691
13901W        W56839  20.562  14.506   8.926  0.0836 -0.1620 -0.2586
13902W        W56840  19.256  14.740   6.611  0.4146  0.1262  0.0881
13903W        W56841  20.527  16.911   9.198 -0.0530 -0.0566  0.0321
13904W        W56842  21.217  16.325   8.693 -0.3065  0.0005  0.0416
13905W        W56843  20.581  16.358   7.450  0.2750 -0.1274  0.1167
13906W        W56844  20.309  16.089   9.669  0.0524  0.3582  0.0498
13907W        W56845  18.401  18.573  10.266 -0.1236  0.1004  0.1788
13908W        W56846  20.125  16.476   8.043  0.0381  0.1625  0.2007
13909W        W56847  19.683  15.710   6.149  0.2013  0.1847  0.1778
13910W        W56848  19.344  16.635   7.642 -0.0171 -0.2923  0.2051
13911W        W56849  20.837  15.671   9.444 -0.0012  0.3937 -0.1228
13912W        W56850  21.394  14.923   8.444 -0.0494 -0.0660  0.3295
13913W        W56851  21.658  14.993   9.296  0.1122  0.0170  0.1431
13914W        W56852  20.604  15.231   8.060  0.1102 -0.0455  0.1647
13915W        W56853  20.017  15.659   9.035  0.0301  0.0884  0.2215
13916W        W56854  22.008  15.178   7.576 -0.0355  0.1888  0.0603
13917W        W56855  20.650  16.404   7.938 -0.2735  0.1548 -0.1021
13918W        W56856  18.250  15.939   8.935 -0.0914 -0.2876  0.0591
13919W        W56857  18.163  16.511   7.573  0.0525  0.3359  0.0932
13920W        W56858  21.348  17.570   6.121 -0.2714  0.1046 -0.0619
13921W        W56859  20.548  16.571   8.379 -0.0513 -0.0217 -0.0858
13922W        W56860  21.073  15.251   7.834 -0.0120 -0.1108 -0.1326
13923W        W56861  19.042  15.408   9.295  0.0279 -0.3538 -0.0830
13924W        W56862  19.499  16.063   6.458  0.0079  0.0705 -0.3245
13925W        W56863  19.823  17.534   5.347 -0.1165 -0.0383 -0.0778
13926W        W56864  19.405  15.839   9.452 -0.1214  0.0115 -0.0579
13927W        W56865  20.185  13.836   6.593  0.0839 -0.0716  0.0647
13928W        W56866  16.954  16.574   6.085 -0.1595  0.1008  0.2393
13929W        W56867  19.920  13.472   7.946  0.0634  0.0878  0.0075
13930W        W56868  19.607  17.742  10.137 -0.0422 -0.5190 -0.1646
13931W        W56869  19.544  16.681   9.432 -0.0084 -0.1083 -0.0902
13932W        W56870  20.812  13.630   8.848 -0.0196  0.3027 -0.3023
13933W        W56871  22.465  15.682   9.673  0.2193  0.3595  0.2269
13934W        W56872  19.312  12.303   8.975 -0.3246 -0.2544 -0.0816
13935W        W56873  19.669  15.575   8.190 -0.0221  0.0617  0.2555
13936W        W56874  21.055  15.295   8.333 -0.1653  0.0622  0.1426
13937W        W56875  19.619  15.890   8.685  0.0865 -0.1189  0.0596
13938W        W56876  19.334  17.717   7.514 -0.1434  0.0672 -0.1883
13939W        W56877  19.087  14.838   7.073  0.0520 -0.1825 -0.0073
13940W        W56878  20.220  17.435   6.147  0.2608  0.0198  0.0562
13941W        W56879  17.944  17.269   9.465  0.0650  0.2297 -0.0295
13942W        W56880  18.792  17.923   7.714  0.2233 -0.0000  0.1072
13943W        W56881  21.456  16.755   8.472 -0.1616 -0.0173  0.0859
13944W        W56882  21.536  17.225   6.952 -0.0750 -0.1177 -0.1989
13945W        W56883  20.420  17.549  10.158 -0.3261  0.2468  0.1504
13946W        W56884  20.095  16.523   7.302 -0.0040  0.1301  0.0794
13947W        W56885  18.797  16.739   8.513 -0.0919 -0.0777 -0.1811
13948W        W56886  16.875  17.799   6.755  0.0310 -0.0288 -0.1574
13949W        W56887  20.271  17.883   6.866  0.0369 -0.3263  0.1067
13950W        W56888  18.785  18.025   6.926 -0.0592 -0.1474 -0.0804
13951W        W56889  21.254  14.220   6.535 -0.0365  0.4135 -0.0151
13952W        W56890  21.878  16.167   8.006  0.0005 -0.2658  0.0554
13953W        W56891  21.966  13.791   8.142 -0.1166 -0.0262  0.1407
13954W        W56892  20.029  15.198   8.295  0.2554 -0.0829 -0.1812
13955W        W56893  21.331  15.964   6.743 -0.0332  0.2805  0.1221
13956W        W56894  20.556  17.173   6.508  0.3106 -0.1848 -0.1039
13957W        W56895  18.820  17.579   8.099 -0.2149  0.2678  0.1439
13958W        W56896  20.234  15.624   7.983 -0.0563 -0.0595 -0.0852
13959W        W56897  22.633  12.770   8.683 -0.0325 -0.1247 -0.0217
13960W        W56898  19.796  17.938   7.974  0.0619 -0.0088 -0.0131
13961W        W56899  20.881  14.706   8.617 -0.2111 -0.0805  0.0684
13962W        W56900  20.209  17.257   7.784  0.2581  0.0868  0.0865
13963W        W56901  19.162  17.982  10.149 -0.0892 -0.2473  0.0237
13964W        W56902  19.016  17.443   9.215  0.0501  0.0298 -0.0523
13965W        W56903  18.480  16.125   7.750 -0.2175  0.1147  0.2796
13966W        W56904  21.709  14.463   8.360  0.0797 -0.0655  0.0381
13967W        W56905  19.110  17.257   8.366  0.3806  0.0294  0.1267
13968W        W56906  18.596  16.252   8.435 -0.3664  0.1842 -0.1373
13969W        W56907  21.031  14.316   8.290  0.0808 -0.0834  0.2285
13970W        W56908  19.521  15.325   9.599 -0.1370 -0.1811 -0.0848
13971W        W56909  18.660  16.768   9.157  0.2332  0.1991 -0.1953
13972W        W56910  20.443  16.211   6.935 -0.2587 -0.1322  0.1453
13973W        W56911  20.444  16.793   5.360  0.2597 -0.1580  0.1058
13974W        W56912  18.250  15.828   8.388  0.3093  0.0045  0.3014
13975W        W56913  21.020  15.730   7.540 -0.0213  0.3186 -0.2348
13976W        W56914  19.289  16.051   6.898 -0.1743 -0.1381  0.1158
13977W        W56915  20.011  14.811   9.627  0.0370  0.1985 -0.2807
13978W        W56916  18.508  15.329   7.690 -0.0118  0.1842 -0.0051
13979W        W56917  21.494  15.787   5.253  0.0020 -0.0770  0.1587
13980W        W56918  20.996  16.816   9.518  0.1132 -0.1868  0.0043
13981W        W56919  20.533  17.564   7.537 -0.2846 -0.3219  0.0900
13982W        W56920  20.924  16.082   8.322  0.4585 -0.4534  0.2986
13983W        W56921  20.337  16.592   8.904 -0.0094 -0.3085 -0.3030
13984W        W56922  18.405  16.269   9.407  0.3673  0.1988  0.2982
13985W        W56923  21.106  16.165   9.521 -0.0972 -0.3072 -0.1360
13986W        W56924  21.009  17.901  10.122 -0.0757 -0.1448  0.1342
13987W        W56925  20.074  15.491   7.377  0.1341  0.5239 -0.1788
13988W        W56926  20.487  15.139   9.435  0.1252 -0.2640 -0.0554
13989W        W56927  17.449  18.171   8.333  0.0300  0.0603  0.0110
13990W        W56928  21.259  15.778   8.628  0.0786 -0.1902 -0.0238
13991W        W56929  18.777  18.489   6.713  0.0794 -0.4810  0.2725
13992W        W56930  18.357  18.054   9.906 -0.1981  0.0113 -0.0030
13993W        W56931  17.847  17.033   7.548  0.0190  0.1521  0.1940
13994W        W56932  19.793  18.249   8.878  0.0595 -0.2120  0.0071
13995W        W56933  21.979  18.155   8.047 -0.0294  0.2668  0.0341
13996W        W56934  20.928  14.333   7.798 -0.0347  0.2208 -0.1678
13997W        W56935  21.838  16.554   8.757 -0.0077 -0.2474  0.1635
13998W        W56936  20.765  15.045   7.581 -0.1104  0.0354 -0.1611
13999W        W56937  21.678  13.686   8.582  0.1634 -0.2595  0.2637
14000W        W56938  20.283  13.169   8.905 -0.5453 -0.0340  0.0143
14001W        W56939  16.914  18.832  10.045 -0.0513 -0.0300  0.3263
14002W        W56940  17.726  15.886   6.799  0.0691  0.2178  0.0083
14003W        W56941  18.615  16.759   6.638 -0.0306  0.0244  0.1833
14004W        W56942  19.389  16.306   9.074 -0.1744  0.2449 -0.0183
14005W        W56943  18.583  16.578   7.869 -0.0624 -0.1364 -0.2014
14006W        W56944  18.647  15.663   8.121 -0.2047  0.2379 -0.0616
14007W        W56945  21.313  15.788   8.023  0.3834 -0.2064 -0.1652
14008W        W56946  20.007  15.253   9.301 -0.1541 -0.1476 -0.0229
14009W        W56947  17.314  15.659   8.241  0.3663 -0.1466  0.1379
14010W        W56948  20.738  17.271   7.106  0.2118  0.0443  0.0057
14011W        W56949  19.861  16.776   8.481 -0.1658  0.2820  0.3369
14012W        W56950  19.211  15.785   7.334 -0.1373 -0.0501 -0.2319
14013W        W56951  17.920  18.039   7.013  0.0704 -0.0402 -0.1681
14014W        W56952  18.053  14.281   7.483 -0.0380  0.0497 -0.1750
14015W        W56953  20.366  17.363  11.144 -0.3903 -0.0799  0.3446
14016W        W56954  20.736  17.848   8.199  0.0500 -0.2454 -0.1476
14017W        W56955  21.062  16.920   6.886  0.0220 -0.2370 -0.1282
14018W        W56956  18.662  14.306   7.763 -0.0907  0.1151  0.1080
14019W        W56957  20.831  16.716   6.277 -0.0073  0.4133 -0.0580
14020W        W56958  22.181  17.593   9.862  0.0475 -0.0687 -0.1058
14021W        W56959  20.246  14.866   7.981 -0.1138 -0.0331 -0.0247
14022W        W56960  21.437  16.508   6.889 -0.0703 -0.1103 -0.3400
14023W        W56961  21.763  16.005   8.625  0.0118 -0.1009  0.1709
14024W        W56962  19.031  15.288   7.527 -0.0166 -0.1483 -0.2887
14025W        W56963  20.574  15.833   7.291  0.0111  0.1429  0.0711
14026W        W56964  20.241  17.011   8.212  0.1001 -0.1274  0.1546
14027W        W56965  19.412  14.077   9.557  0.1358  0.0318 -0.2297
14028W        W56966  19.147  15.442   6.914 -0.0124  0.2376  0.3885
14029W        W56967  20.773  16.491   9.169  0.1395  0.0797  0.3136
14030W        W56968  19.082  16.209   8.619  0.0124 -0.0653 -0.1770
14031W        W56969  21.231  16.844   7.753 -0.0585  0.0558 -0.0089
14032W        W56970  21.608  19.133  10.055 -0.0943  0.0555  0.1530
14033W        W56971  20.711  18.383   9.802  0.0790  0.1470  0.0365
14034W        W56972  21.509  15.797   9.103 -0.0499 -0.0314 -0.0645
14035W        W56973  18.107  14.116   7.983  0.0120  0.1251 -0.1348
14036W        W56974  19.685  16.711   7.071  0.0556 -0.0392 -0.0150
14037W        W56975  19.583  16.383   8.619  0.3743 -0.1427  0.4355
14038W        W56976  22.236  14.446   8.773  0.3459  0.0967 -0.1795
14039W        W56977  19.380  15.209   8.501 -0.3828  0.2961 -0.0900
14040W        W56978  20.516  14.065   7.701  0.0280  0.0810  0.0054
14041W        W56979  22.502  17.231   9.539  0.1505  0.2131  0.0071
14042W        W56980  19.491  14.665   9.733 -0.0260  0.0497  0.1148
14043W        W56981  19.882  21.005   1.940  0.1009 -0.0998 -0.1028
14044W        W56982  19.434  18.111  31.191  0.0120 -0.1230 -0.1114
14045W        W56983  21.301  19.078  31.620  0.0223 -0.2286  0.0740
14046W        W56984  22.593  19.272   1.811  0.0063 -0.0295  0.0375
14047W        W56985  17.074  17.422   2.136  0.0391  0.1039  0.3569
14048W        W56986  17.738  21.830   0.055 -0.3363  0.4700  0.1653
14049W        W56987  17.918  17.643   1.342  0.2826  0.1235 -0.1963
14050W        W56988  20.832  19.569   1.390 -0.1215 -0.1094 -0.2771
14051W        W56989  21.062  21.478   2.112 -0.1654 -0.2983  0.1156
14052W        W56990  20.701  19.883  31.444 -0.2684  0.1979 -0.0377
14053W        W56991  20.157  19.208   1.832 -0.2370  0.2716 -0.1372
14054W        W56992  20.043  21.093   0.945 -0.1665 -0.0639 -0.3174
14055W        W56993  19.942  16.982  31.024 -0.2134 -0.0190  0.2404
14056W        W56994  16.760  17.810   2.017  0.0604 -0.0888  0.1631
14057W        W56995  21.238  19.280   1.179  0.1464 -0.0321  0.0520
14058W        W56996  19.498  17.686  30.861  0.0677 -0.0284 -0.0173
14059W        W56997  19.172  17.128   0.907  0.2114 -0.1815 -0.4072
14060W        W56998  19.607  18.751   0.672 -0.1994  0.0923 -0.1882
14061W        W56999  20.638  20.440   0.989  0.2020  0.0503 -0.0237
14062W        W57000  18.477  17.497   1.308 -0.2372 -0.0907  0.1881
14063W        W57001  21.539  18.219   3.499  0.0647  0.0909  0.0017
14064W        W57002  19.195  19.164   1.357 -0.1187  0.2745 -0.4222
14065W        W57003  19.130  19.461  31.246  0.0865 -0.2552 -0.1897
14066W        W57004  16.420  19.873   1.924 -0.0051 -0.2514 -0.0540
14067W        W57005  20.765  18.372   1.583 -0.2092 -0.3783  0.0660
14068W        W57006  20.295  18.271   2.226  0.2933  0.0263  0.3080
14069W        W57007  20.601  19.269   2.107 -0.0986  0.0827  0.3506
14070W        W57008  19.419  20.933   1.737  0.1375 -0.1017 -0.5177
14071W        W57009  20.616  21.062   0.741 -0.2317 -0.1392  0.0310
14072W        W57010  21.011  18.626   3.936  0.1847  0.3144  0.0750
14073W        W57011  16.959  20.267  31.067 -0.0903  0.1083  0.2712
14074W        W57012  17.223  20.893   0.283 -0.2373 -0.0010  0.2366
14075W        W57013  18.722  19.988   0.305  0.1497  0.1361  0.1490
14076W        W57014  21.913  20.971   1.408  0.2278  0.1759  0.2586
14077W        W57015  20.838  19.691   1.888  0.1130  0.2080 -0.1826
14078W        W57016  19.681  21.235   1.240  0.0258 -0.1885  0.2086
14079W        W57017  17.805  20.706  31.334 -0.1966  0.0823  0.1013
14080W        W57018  20.298  20.696   2.011  0.0919 -0.0314 -0.2960
14081W        W57019  18.435  19.873   3.451 -0.1468 -0.1078  0.2943
14082W        W57020  19.860  19.934   1.689  0.0296 -0.2558 -0.5628
14083W        W57021  19.776  17.925   0.814  0.1172  0.0593 -0.1676
14084W        W57022  19.004  21.473  31.810  0.1253 -0.1194  0.6317
14085W        W57023  19.534  20.764   0.468 -0.0009  0.0445  0.1645
14086W        W57024  18.970  20.639   1.723 -0.4225 -0.0264 -0.0991
14087W        W57025  17.954  19.719  31.933  0.0660 -0.0477 -0.0832
14088W        W57026  20.687  19.731   3.735  0.1909 -0.1952 -0.1750
14089W        W57027  18.520  21.470  31.772  0.2831 -0.0695 -0.1854
14090W        W57028  22.545  19.076  31.610 -0.0653 -0.0435  0.2558
14091W        W57029  18.884  17.785  30.053  0.2031 -0.0232  0.0196
14092W        W57030  20.933  18.624   0.443 -0.2006 -0.3580  0.0426
14093W        W57031  20.148  18.918   1.451 -0.0536  0.2184  0.2215
14094W        W57032  19.873  19.182   0.600  0.2030 -0.0360 -0.1571
14095W        W57033  19.620  17.619  31.954  0.0818  0.1815 -0.2584
14096W        W57034  21.443  20.532   1.473 -0.0644  0.0868  0.3115
14097W        W57035  20.327  20.226  31.644  0.3938 -0.4148  0.1337
14098W        W57036  20.704  19.422   3.256 -0.0649  0.0809 -0.0964
14099W        W57037  18.113  20.889   2.078 -0.3440  0.2444  0.1407
14100W        W57038  18.774  19.262   1.136 -0.2283  0.0068 -0.1664
14101W        W57039  19.644  20.653  30.908 -0.1294  0.0676 -0.1255
14102W        W57040  21.425  20.435   0.632 -0.2105  0.0584  0.0571
14103W        W57041  19.632  20.419   0.047 -0.0246  0.0284  0.3590
14104W        W57042  20.379  19.299  31.649 -0.2603  0.1845  0.1959
14105W        W57043  18.841  19.133   1.719 -0.1741 -0.2139  0.0949
14106W        W57044  19.271  19.325   2.502 -0.1614 -0.0902 -0.0255
14107W        W57045  18.690  18.751  30.372 -0.2109  0.0555  0.2296
14108W        W57046  22.076  20.529   1.638 -0.0792 -0.2230 -0.0638
14109W        W57047  18.217  20.898   1.417 -0.0901  0.0816 -0.0120
14110W        W57048  22.666  19.141   0.748 -0.3115  0.0533  0.2511
14111W        W57049  19.671  20.166   1.279  0.1965  0.1243  0.1796
14112W        W57050  20.698  20.390   1.863 -0.1311 -0.0984 -0.1659
14113W        W57051  20.669  21.362   0.157  0.1368  0.1193  0.0622
14114W        W57052  21.929  18.840   1.795  0.4155 -0.1360 -0.3630
14115W        W57053  20.763  17.535   1.008  0.0199 -0.0676 -0.0622
14116W        W57054  18.914  18.172  30.836 -0.0472 -0.1879  0.1340
14117W        W57055  18.804  19.315  31.702 -0.1458  0.2781  0.3130
14118W        W57056  19.790  19.527   2.547 -0.0393  0.2218 -0.1993
14119W        W57057  21.287  20.201   0.069 -0.0145 -0.1618 -0.1072
14120W        W57058  19.721  19.897   0.801 -0.0407  0.2939  0.2113
14121W        W57059  19.944  17.997   3.574 -0.3585 -0.2078  0.1270
14122W        W57060  20.027  20.827   2.425 -0.0324 -0.2041  0.0656
14123W        W57061  18.634  21.920  30.452 -0.0367  0.0583 -0.2358
14124W        W57062  17.783  19.512   1.153  0.1694 -0.4019 -0.1341
14125W        W57063  18.760  19.821  31.716 -0.0179  0.0887 -0.0988
14126W        W57064  18.168  17.406   1.669  0.0978  0.3212 -0.1005
14127W        W57065  20.282  19.391   1.297  0.2561 -0.0818 -0.3948
14128W        W57066  22.061  17.883   0.497  0.2876 -0.2225 -0.1882
14129W        W57067  17.384  18.500   1.239 -0.0381  0.0413 -0.3073
14130W        W57068  22.189  17.456   0.259  0.2187 -0.2900  0.0235
14131W        W57069  18.490  21.693  30.961 -0.2253  0.1316  0.0684
14132W        W57070  21.822  20.837   0.644  0.1414  0.1049 -0.2088
14133W        W57071  20.400  18.562  29.918  0.1062  0.0785 -0.2356
14134W        W57072  19.885  19.448  31.687  0.1067 -0.1839 -0.0375
14135W        W57073  18.379  18.354   1.351  0.2499  0.2031 -0.1233
14136W        W57074  19.916  18.541   1.156 -0.2568  0.1589 -0.1374
14137W        W57075  18.964  18.423   2.198 -0.0083 -0.4416  0.0005
14138W        W57076  18.705  17.108   1.576  0.0216 -0.1095  0.0453
14139W        W57077  21.081  20.028   2.197  0.0740  0.1677 -0.1306
14140W        W57078  17.510  17.977  31.048 -0.1252  0.1238 -0.0955
14141W        W57079  20.309  18.145   1.707 -0.1775 -0.4526  0.1616
14142W        W57080  19.948  18.410   0.630 -0.2266  0.1644 -0.0271
14143W        W57081  19.096  20.495  31.512  0.0905  0.3489 -0.0786
14144W        W57082  20.474  16.595   2.337 -0.2824 -0.3036  0.0094
14145W        W57083  18.564  20.394  29.928 -0.1940  0.1493 -0.0663
14146W        W57084  20.999  21.394   3.333 -0.0834  0.0151  0.2489
14147W        W57085  22.118  20.775  31.333  0.0555  0.2391 -0.1132
14148W        W57086  18.701  16.618   1.694 -0.1681 -0.1863 -0.0001
14149W        W57087  18.848  18.434  31.287 -0.1656 -0.0449  0.0475
14150W        W57088  16.376  19.863   1.183  0.2248 -0.2106 -0.0821
14151W        W57089  19.583  20.065   0.362  0.2423  0.1839 -0.0302
14152W        W57090  20.802  19.270  30.879 -0.2491  0.1441 -0.1179
14153W        W57091  21.387  21.686   1.801 -0.0907  0.3958 -0.2078
14154W        W57092  20.996  19.130   0.638  0.0183 -0.1062  0.0511
14155W        W57093  18.907  19.331   0.639 -0.2485 -0.0207  0.1261
14156W        W57094  20.477  19.761   2.859  0.1518 -0.0752  0.2164
14157W        W57095  21.679  19.452   2.977  0.2167  0.2847 -0.4062
14158W        W57096  19.409  20.358   0.851 -0.1038  0.3675  0.2466
14159W        W57097  17.373  17.828  29.027  0.0801  0.1722 -0.0764
14160W        W57098  21.325  21.049   1.472  0.0873  0.0274 -0.0905
14161W        W57099  17.882  21.543   0.461  0.0344  0.1470  0.1644
14162W        W57100  19.401  19.544   0.307 -0.0200 -0.1798  0.0255
14163W        W57101  19.391  19.406   0.835  0.0905  0.1977  0.2274
14164W        W57102  20.758  17.889   2.819  0.1626  0.0578  0.0780
14165W        W57103  16.788  18.950   3.063  0.2816 -0.2389  0.2294
14166W        W57104  18.739  18.674   3.766 -0.3045  0.1528  0.1135
14167W        W57105  17.135  17.706  30.771 -0.0676 -0.0795 -0.0233
14168W        W57106  18.701  20.082   2.010  0.2938  0.0818 -0.0550
14169W        W57107  21.853  18.978   0.651 -0.1027 -0.1284 -0.0581
14170W        W57108  21.032  18.557  31.775 -0.0879 -0.0771  0.2619
14171W        W57109  18.043  20.446   2.491  0.4215  0.1347 -0.3406
14172W        W57110  19.855  20.383   0.642  0.0008 -0.2078 -0.2712
14173W        W57111  20.480  18.208  30.618 -0.2783 -0.1006  0.0549
14174W        W57112  19.573  18.577  31.018 -0.1214 -0.0997 -0.0223
14175W        W57113  17.670  20.048   2.860  0.0830  0.1505 -0.0791
14176W        W57114  19.584  18.982   1.731 -0.1691  0.0622  0.1535
14177W        W57115  19.341  20.637   1.316  0.3071 -0.2798  0.1173
14178W        W57116  19.644  18.678   0.180 -0.0117 -0.1934 -0.0330
14179W        W57117  21.357  19.497  31.413  0.0135 -0.3397  0.0583
14180W        W57118  18.971  17.925  31.261  0.1871  0.0206  0.0782
14181W        W57119  18.993  20.246   1.296  0.0036  0.0367 -0.1118
14182W        W57120  22.584  20.405   0.107  0.0341 -0.1461  0.5385
14183W        W57121  20.882  17.936   1.493 -0.1157  0.0404 -0.2211
14184W        W57122  20.965  19.611   0.441  0.1168  0.2812 -0.1350
14185W        W57123  20.648  18.991   0.277  0.1690  0.0712  0.0952
14186W        W57124  19.179  20.796  30.669 -0.0376 -0.1378 -0.1679
14187W        W57125  21.048  18.774   2.694  0.1268  0.1022 -0.1737
14188W        W57126  20.755  18.093   2.014  0.2764  0.0356 -0.1095
14189W        W57127  20.252  18.001   2.669 -0.2186 -0.0683 -0.0676
14190W        W57128  21.125  20.499   2.060 -0.2568 -0.0888 -0.0205
14191W        W57129  21.762  19.118   0.047 -0.0166  0.2212 -0.2882
14192W        W57130  19.760  19.460   1.573  0.2190  0.1318  0.1747
14193W        W57131  18.766  19.525  30.822  0.0650 -0.1448  0.0429
14194W        W57132  19.474  17.767   2.932  0.2260  0.0672  0.0575
14195W        W57133  20.077  19.941   2.477  0.0273 -0.1380 -0.2190
14196W        W57134  18.328  19.450   0.718 -0.0562 -0.3315  0.2603
14197W        W57135  20.281  20.203   1.536 -0.1323  0.2733 -0.0598
14198W        W57136  21.570  19.430   0.441  0.2805 -0.0261 -0.0525
14199W        W57137  20.215  17.786   2.219 -0.1095 -0.0192 -0.2023
14200W        W57138  19.325  19.155  31.919 -0.0591  0.1127 -0.0068
14201W        W57139  19.207  20.410   0.386 -0.2031 -0.2149 -0.4407
14202W        W57140  19.927  21.684  31.806 -0.2374  0.4031 -0.2338
14203W        W57141  20.489  17.462   0.239  0.1460  0.1169 -0.1127
14204W        W57142  19.731  20.714   0.998 -0.0337 -0.0659  0.0183
14205W        W57143  19.114  22.079  31.648 -0.1482 -0.2139 -0.0474
14206W        W57144  19.152  18.849   2.064  0.1399  0.0630  0.0299
14207W        W57145  18.773  20.729   0.402  0.0868  0.2728 -0.0320
14208W        W57146  20.534  17.687   1.835  0.2041  0.0684  0.2783
14209W        W57147  19.330  19.051   0.446 -0.0809 -0.0261 -0.3035
14210W        W57148  20.361  18.725  30.569 -0.1617  0.1958 -0.1477
14211W        W57149  18.396  19.518  31.918 -0.0814 -0.3000  0.3303
14212W        W57150  21.613  17.683   1.590  0.0264  0.2525  0.0501
14213W        W57151  21.169  20.607  31.680  0.3319  0.0799 -0.2943
14214W        W57152  19.652  16.858   1.796  0.0146  0.1946  0.1979
14215W        W57153  19.880  18.011   1.450  0.1295  0.3488  0.2325
14216W        W57154  17.953  20.402   0.651  0.3187  0.1670  0.2588
14217W        W57155  20.044  19.637   2.119  0.2083  0.0685 -0.3598
14218W        W57156  21.508  18.672  31.960 -0.1773  0.1134  0.2446
14219W        W57157  21.013  20.630   1.363  0.0386 -0.0567 -0.0086
14220W        W57158  18.789  20.068   2.600 -0.0316  0.2044 -0.0395
14221W        W57159  18.639  20.461  31.019  0.1479  0.0050 -0.3126
14222W        W57160  21.245  18.516   2.279  0.0345 -0.0952  0.2673
14223W        W57161  20.438  18.397   0.531 -0.1388 -0.0760  0.1654
14224W        W57162  18.327  20.094  31.895  0.3051 -0.1249 -0.3228
14225W        W57163  20.573  21.599   2.208  0.1211  0.1132  0.2604
14226W        W57164  19.865  17.874  30.544 -0.0170 -0.0458 -0.2408
14227W        W57165  20.113  19.542   0.849  0.0279 -0.0637  0.1664
14228W        W57166  19.536  17.281   3.069  0.4479 -0.2096  0.0215
14229W        W57167  21.593  19.192   1.944 -0.1842 -0.1497 -0.1514
14230W        W57168  20.584  18.738   0.905  0.1766  0.2764 -0.1603
14231W        W57169  19.054  18.497   1.702  0.0795 -0.0210  0.2559
14232W        W57170  20.615  19.176   1.632  0.1047  0.0503 -0.2332
14233W        W57171  20.994  21.105   2.438 -0.1114  0.1972  0.0815
14234W        W57172  19.476  18.261   1.502  0.0293 -0.2903  0.0499
14235W        W57173  17.806  19.853   3.355 -0.2742 -0.1257  0.1075
14236W        W57174  19.526  17.500   0.982 -0.0055  0.0549  0.3919
14237W        W57175  20.427  21.757  30.318  0.2200  0.1652 -0.3440
14238W        W57176  19.337  18.729   3.407 -0.2697  0.1104 -0.0004
14239W        W57177  18.626  20.261  31.479 -0.1417 -0.1310  0.0427
14240W        W57178  19.254  18.651   2.544  0.0211  0.4657  0.0749
14241W        W57179  19.335  19.602  31.696 -0.1086  0.0099 -0.3589
14242W        W57180  19.972  18.477   1.689  0.1529  0.0913 -0.1675
14243W        W57181  18.328  19.874   1.693  0.1265  0.1568  0.2523
14244W        W57182  18.057  19.647  30.164 -0.3894  0.1932  0.0477
14245W        W57183  18.059  18.789   1.746 -0.1102  0.0879  0.1584
14246W        W57184  21.098  18.941  30.663 -0.1238 -0.1456  0.1987
14247W        W57185  21.079  21.112  31.458 -0.2326  0.1270  0.4259
14248W        W57186  21.156  20.127   1.634 -0.2728 -0.0369 -0.1849
14249W        W57187  21.564  17.486   2.031  0.3192 -0.0085 -0.2741
14250W        W57188  21.118  20.171  31.162 -0.1440  0.0908 -0.1165
14251W        W57189  20.399  17.350   2.533 -0.0069  0.1729  0.0810
14252W        W57190  18.678  17.502   0.747 -0.0397 -0.0557 -0.1960
14253W        W57191  20.390  20.767   1.576  0.2110  0.0960 -0.1453
14254W        W57192  18.833  17.957   2.182 -0.1101  0.1747 -0.2077
14255W        W57193  19.630  21.456   1.633  0.1595  0.2227 -0.2154
14256W        W57194  20.076  19.865   1.188  0.1351 -0.0101  0.1410
14257W        W57195  21.690  19.520   0.981 -0.1876  0.1219  0.1234
14258W        W57196  17.893  18.224  31.326  0.2894 -0.1471 -0.0542
14259W        W57197  19.254  19.396   1.785 -0.1592 -0.2616  0.1344
14260W        W57198  22.144  19.255   1.685 -0.1528 -0.0609  0.0316
14261W        W57199  20.593  19.687   0.896  0.0268 -0.3025  0.2262
14262W        W57200  21.901  18.390  31.753 -0.2369 -0.1934  0.1933
14263W        W57201  17.517  18.024   0.984 -0.1195 -0.0292  0.0697
14264W        W57202  21.116  19.681  31.025  0.0442 -0.0121 -0.3273
14265W        W57203  20.878  19.343  31.419  0.3854 -0.1336 -0.1308
14266W        W57204  19.182  18.990   0.919  0.2960 -0.2045 -0.1164
14267W        W57205  18.345  17.037   3.222  0.0413 -0.0032  0.1640
14268W        W57206  20.277  20.707   0.658  0.0809 -0.2489  0.2363
14269W        W57207  21.098  19.743   0.969  0.0924 -0.0942  0.1092
14270W        W57208  19.391  17.711   3.452 -0.3553  0.1152 -0.0213
14271W        W57209  19.723  19.960   2.848 -0.1776  0.0574  0.1790
14272W        W57210  20.391  18.827   3.095 -0.0002  0.2434 -0.1341
14273W        W57211  18.304  18.903   2.324 -0.1274  0.1683  0.0438
14274W        W57212  20.608  21.384   3.656  0.1516 -0.5159  0.0896
14275W        W57213  21.893  18.680  31.170 -0.0811  0.1679 -0.0808
14276W        W57214  20.974  18.194   2.463 -0.2690  0.1723  0.1305
14277W        W57215  20.875  19.951  31.938  0.2868  0.1885 -0.1593
14278W        W57216  20.159  18.757   0.349 -0.0241 -0.0284 -0.0908
14279W        W57217  17.576  18.004   1.521  0.3063  0.1287 -0.2358
14280W        W57218  20.530  18.235   3.776 -0.2140  0.1868  0.1922
14281W        W57219  21.110  19.499  30.545 -0.1416  0.2426 -0.0519
14282W        W57220  19.026  19.124   3.315  0.2367  0.1482 -0.0957
14283W        W57221  20.257  19.202  30.665 -0.0205  0.3285 -0.4512
14284W        W57222  20.755  20.121   1.371 -0.0982 -0.0257 -0.0146
14285W        W57223  21.127  19.307   1.664  0.5937  0.2051  0.1531
14286W        W57224  17.370  18.452   2.227 -0.1409  0.2865 -0.1453
14287W        W57225  18.560  20.442   2.823 -0.2132 -0.0624  0.0701
14288W        W57226  19.014  17.791  30.588  0.0582 -0.0964 -0.2252
14289W        W57227  19.529  18.767  29.967 -0.1831 -0.1467 -0.2437
14290W        W57228  20.535  21.276   1.809 -0.0725 -0.3995  0.1150
14291W        W57229  21.162  20.240   3.210 -0.0065 -0.0288  0.1701
14292W        W57230  19.994  18.358  31.454  0.2564  0.1846 -0.4336
14293W        W57231  21.499  18.524   2.902 -0.1632  0.1375  0.1644
14294W        W57232  17.477  19.806  30.323 -0.0048  0.1790 -0.2087
14295W        W57233  20.276  16.739   0.876  0.2717 -0.1822  0.0507
14296W        W57234  17.465  20.815   2.006 -0.3232  0.2383  0.1715
14297W        W57235  16.703  21.924   1.485 -0.0591 -0.2898 -0.0389
14298W        W57236  17.005  19.689  30.989 -0.2871 -0.0883  0.1858
14299W        W57237  20.192  18.112   1.071  0.3443  0.4022 -0.1440
14300W        W57238  20.546  18.900   2.570  0.2509 -0.1198 -0.2013
14301W        W57239  20.306  19.804  31.933  0.2386  0.0174  0.3143
14302W        W57240  21.332  19.689   2.632 -0.1811  0.0136  0.3244
14303W        W57241  19.133  22.297   1.375  0.0947  0.2260 -0.0518
14304W        W57242  19.348  19.775   1.176 -0.4337 -0.0158  0.2155
14305W        W57243  19.595  21.063   2.587 -0.0770 -0.2125 -0.0072
14306W        W57244  21.221  18.467   1.784  0.1146  0.1905  0.2399
14307W        W57245  20.245  19.256   2.475  0.0554  0.0549  0.0865
14308W        W57246  16.434  19.266   2.662 -0.0767 -0.2816 -0.1664
14309W        W57247  18.313  19.563   3.043 -0.0786  0.2696  0.0095
14310W        W57248  19.921  20.779   1.500  0.1000  0.1278 -0.0981
14311W        W57249  18.966  18.295   0.799  0.6252  0.2169  0.2037
14312W        W57250  19.505  19.237  31.414  0.1023  0.2393 -0.2983
14313W        W57251  18.387  20.840   2.608 -0.0896  0.1617 -0.2171
14314W        W57252  19.355  18.962   2.952  0.1447  0.0762  0.2313
14315W        W57253  18.896  19.049   0.137  0.2880  0.3239 -0.1234
14316W        W57254  19.627  20.736  31.539  0.0721  0.1734 -0.0135
14317W        W57255  20.740  19.405   0.088  0.4325 -0.0886 -0.0506
14318W        W57256  20.178  21.611   1.892 -0.4296  0.0323  0.3206
14319W        W57257  20.238  19.267   0.243  0.3013 -0.0198  0.1654
14320W        W57258  18.021  19.931   0.407  0.2542 -0.1378  0.2028
14321W        W57259  18.123  17.731  27.349  0.1651 -0.1921  0.0642
14322W        W57260  20.116  20.727  31.700  0.1956  0.0133 -0.0765
14323W        W57261  18.953  20.685   0.961 -0.1483 -0.0182  0.3743
14324W        W57262  20.153  21.266   2.772  0.1677 -0.0283  0.0103
14325W        W57263  21.525  18.135  30.554 -0.3480 -0.0581 -0.0811
14326W        W57264  20.865  19.564   2.462 -0.1089  0.2656  0.1618
14327W        W57265  21.440  18.706   0.482  0.2510  0.0560 -0.3173
14328W        W57266  19.865  18.603   3.320  0.0212  0.0826  0.1811
14329W        W57267  18.880  18.612   1.271  0.1889 -0.3585 -0.1240
14330W        W57268  20.813  18.566  30.842 -0.4016 -0.2098 -0.0612
14331W        W57269  18.814  19.723   1.479  0.0323  0.1599  0.0874
14332W        W57270  21.929  18.271   3.053 -0.3325 -0.1607  0.0626
14333W        W57271  17.404  21.615   2.128 -0.0030  0.0394  0.2608
14334W        W57272  21.073  21.965   1.223  0.1992  0.3062  0.0419
14335W        W57273  18.499  17.600  31.818 -0.2577 -0.0101 -0.1536
14336W        W57274  19.622  19.753  31.251 -0.1941  0.4677 -0.0789
14337W        W57275  22.078  17.050   2.257  0.0389  0.0577  0.0898
14338W        W57276  19.248  21.573   0.569 -0.1547  0.0934  0.1253
14339W        W57277  20.738  18.596   2.225  0.0046 -0.1160 -0.0178
14340W        W57278  18.867  22.027   0.556 -0.0299 -0.0417  0.0264
14341W        W57279  19.014  20.959   1.368 -0.1528  0.1186 -0.1061
14342W        W57280  19.010  21.223   1.822 -0.0996  0.2816 -0.1288
14343W        W57281  18.543  19.007   0.714 -0.1071  0.1209  0.0297
14344W        W57282  21.372  19.711   1.384  0.1578  0.1670 -0.0208
14345W        W57283  19.719  18.917   2.598 -0.1032 -0.0839  0.1341
14346W        W57284  21.454  18.022   2.958 -0.0180  0.1100  0.0302
14347W        W57285  18.340  18.095   0.008  0.0241 -0.0424 -0.2329
14348W        W57286  21.768  19.696   1.764 -0.3400 -0.0616 -0.1386
14349W        W57287  19.141  19.954   1.738  0.1289  0.0875  0.3524
14350W        W57288  18.480  18.608   0.189  0.1854  0.2503  0.4306
14351W        W57289  19.793  19.128   0.071 -0.1275  0.0676  0.2502
14352W        W57290  21.672  19.312   2.481 -0.1348 -0.0339 -0.3286
14353W        W57291  19.400  18.168  30.678 -0.0479  0.1055 -0.2261
14354W        W57292  20.175  20.440   2.689  0.1818  0.0400 -0.0454
14355W        W57293  17.801  18.719  31.191  0.1469  0.1897  0.2796
14356W        W57294  22.049  18.858  31.615 -0.0114 -0.0926 -0.1393
14357W        W57295  17.864  19.825  31.112 -0.3979  0.0248  0.5422
14358W        W57296  20.126  20.389   1.125  0.3999 -0.0831  0.1772
14359W        W57297  20.993  20.735   3.221  0.0002  0.1166  0.0194
14360W        W57298  17.057  18.171  30.473  0.2194 -0.1791  0.0431
14361W        W57299  20.033  18.992  28.906  0.1142  0.0182  0.3117
14362W        W57300  20.743  19.209   1.111  0.0473  0.0929 -0.3356
14363W        W57301  18.064  21.464  31.910  0.1172 -0.0044 -0.1050
14364W        W57302  20.376  20.405   0.169 -0.2871  0.2892 -0.0792
14365W        W57303  21.195  21.571   2.539 -0.1047 -0.2668  0.2376
14366W        W57304  18.301  18.644   2.839 -0.1784 -0.2477  0.0781
14367W        W57305  19.719  21.571   3.307 -0.1105  0.6084 -0.3984
14368W        W57306  21.736  20.522   1.082  0.3257  0.0676  0.1687
14369W        W57307  20.774  18.994  31.743 -0.1076  0.1218  0.0477
14370W        W57308  20.365  18.698   1.898  0.1314  0.2249  0.2012
14371W        W57309  17.753  21.572  31.455  0.0080 -0.1242 -0.0162
14372W        W57310  22.130  19.037   2.332  0.3186  0.1118  0.2445
14373W        W57311  19.251  17.914   0.750  0.2079 -0.1208  0.0485
14374W        W57312  19.774  21.966  30.811  0.1973 -0.0141  0.0225
14375W        W57313  20.079  17.238   2.129  0.1355 -0.1786 -0.1881
14376W        W57314  19.002  20.367   3.097 -0.0173 -0.2108 -0.2814
14377W        W57315  19.765  20.685   3.474 -0.0045  0.1218 -0.1797
14378W        W57316  17.463  18.921  30.854 -0.0922 -0.1281  0.1405
14379W        W57317  19.616  19.881   2.261 -0.1836 -0.0609 -0.0721
14380W        W57318  19.212  20.718  31.952 -0.1802  0.0434 -0.1719
14381W        W57319  18.801  18.133  31.777 -0.0707 -0.1641  0.3502
14382W        W57320  21.464  21.010   0.951  0.2338 -0.2534  0.1586
14383W        W57321  20.470  19.214   0.695 -0.4288 -0.2619  0.2717
14384W        W57322  22.262  19.897   2.933 -0.0394 -0.3403  0.3009
14385W        W57323  18.786  17.745   0.215  0.2637 -0.1999 -0.1400
14386W        W57324  21.700  17.180   0.546  0.1206  0.2798 -0.0919
14387W        W57325  20.261  17.614   0.785  0.2318  0.1444 -0.4123
14388W        W57326  18.854  19.230   2.239 -0.0591 -0.0340 -0.1050
14389W        W57327  15.362  20.163  30.325 -0.0199  0.0431  0.1837
14390W        W57328  18.811  19.904  31.138 -0.3186 -0.2000  0.0774
14391W        W57329  19.726  19.174   1.158 -0.2757  0.1597 -0.2012
14392W        W57330  20.657  18.109   3.323  0.3952 -0.1266 -0.3798
14393W        W57331  19.523  18.563   1.938 -0.2573  0.1567  0.3336
14394W        W57332  18.285  18.562  31.601 -0.0063 -0.0452 -0.2656
14395W        W57333  18.307  18.371  31.134 -0.0266 -0.2415  0.0985
14396W        W57334  18.835  21.549   0.308  0.2182  0.0480  0.0465
14397W        W57335  18.203  17.682   0.256  0.0025 -0.2422  0.2562
14398W        W57336  17.547  16.672  30.163 -0.1054 -0.1317 -0.0116
14399W        W57337  20.112  18.964   0.934  0.4089  0.1739 -0.0539
14400W        W57338  22.062  19.606   1.318 -0.2711  0.2328 -0.3895
14401W        W57339  18.044  18.449   0.254  0.2406  0.0963 -0.0704
14402W        W57340  21.083  21.532   3.850 -0.0508 -0.2011 -0.1876
14403W        W57341  18.644  18.720  30.944  0.0355  0.0190  0.0150
14404W        W57342  17.735  18.475   2.619  0.2123 -0.0868  0.0716
14405W        W57343  19.886  18.081   3.023 -0.0028  0.0193  0.0317
14406W        W57344  17.989  18.114  30.804  0.4739 -0.2703  0.4016
14407W        W57345  19.750  18.444   2.408  0.2178  0.0969 -0.0166
14408W        W57346  19.652  21.233   0.521 -0.0087 -0.0071 -0.0616
14409W        W57347  19.559  21.079  31.946  0.1050 -0.1401  0.2022
14410W        W57348  18.851  20.205   0.793 -0.1828 -0.0042 -0.0025
14411W        W57349  19.078  21.217   2.590  0.2241 -0.0028 -0.0735
14412W        W57350  20.211  17.811  31.973  0.0283  0.6331 -0.1519
14413W        W57351  20.671  20.946  31.720 -0.1102  0.0107 -0.0390
14414W        W57352  19.149  20.317   2.166  0.1194  0.2267  0.1787
14415W        W57353  20.718  21.736   0.960 -0.0595  0.0257 -0.2321
14416W        W57354  21.616  17.725   3.302  0.1873  0.1808  0.0879
14417W        W57355  21.350  19.934   0.498 -0.1839  0.0658 -0.1247
14418W        W57356  18.609  17.795   2.890  0.3916  0.0976 -0.2037
14419W        W57357  18.527  20.078   1.172  0.0148  0.1962  0.0141
14420W        W57358  21.818  19.806   2.679 -0.0417 -0.4115  0.0757
14421W        W57359  19.344  18.113   1.996  0.1176  0.1302  0.1769
14422W        W57360  21.619  18.612   1.112  0.0388 -0.1263  0.0411
14423W        W57361  19.203  20.109  31.907  0.1975  0.2112 -0.2216
14424W        W57362  19.978  18.882   2.152 -0.1071  0.0343 -0.1546
14425W        W57363  19.212  17.700  31.713 -0.2712  0.0196  0.1620
14426W        W57364  19.662  19.308   2.111 -0.0684 -0.1294  0.0743
14427W        W57365  19.930  19.699   0.385  0.0019 -0.2245  0.1414
14428W        W57366  20.661  20.119   2.476 -0.0982 -0.0352  0.0247
14429W        W57367  19.259  18.773  31.425  0.0042 -0.3233 -0.0773
14430W        W57368  21.209  19.962  31.589 -0.1312  0.0187 -0.0957
14431W        W57369  20.792  22.257   1.494  0.1024 -0.0513 -0.2559
14432W        W57370  20.672  21.146   4.096  0.1638 -0.3089 -0.0125
14433W        W57371  18.929  20.938   2.239 -0.4574 -0.0501 -0.2699
14434W        W57372  20.363  19.706   1.725  0.2608 -0.0555  0.1209
14435W        W57373  19.332  18.278  31.713  0.0792 -0.3505 -0.4329
14436W        W57374  19.363  18.344   0.500 -0.1452 -0.1734  0.1221
14437W        W57375  19.630  17.574   0.486  0.0295  0.2107 -0.0530
14438W        W57376  19.980  19.282   3.035 -0.1606  0.0065 -0.0101
14439W        W57377  18.812  17.732   1.582 -0.2412  0.3151  0.2577
14440W        W57378  20.135  18.356   0.084 -0.1006 -0.0257  0.0668
14441W        W57379  18.328  21.316   2.210  0.3866  0.0791  0.3645
14442W        W57380  20.428  21.107   2.297 -0.0833 -0.3091  0.1733
14443W        W57381  19.577  19.722   7.588  0.2017  0.1474  0.2694
14444W        W57382  18.883  18.826   4.783 -0.0122  0.1201 -0.3692
14445W        W57383  19.507  18.244   3.390 -0.1945  0.2575 -0.1515
14446W        W57384  21.907  19.334   3.952  0.2230  0.3118 -0.2763
14447W        W57385  17.965  18.692   4.101  0.1258  0.1732  0.1494
14448W        W57386  19.521  20.305   1.819 -0.2819 -0.0691  0.0965
14449W        W57387  17.867  16.959   6.427 -0.0724  0.1514 -0.0212
14450W        W57388  20.850  18.961   4.381 -0.3139 -0.0512  0.0585
14451W        W57389  21.175  20.863   5.434 -0.0605 -0.0633 -0.1287
14452W        W57390  19.832  19.314   4.104  0.0557 -0.0701 -0.2590
14453W        W57391  19.386  20.027   5.485 -0.2429  0.2674 -0.1314
14454W        W57392  18.754  20.377   6.919  0.0983  0.2214 -0.0200
14455W        W57393  19.011  19.107   3.876  0.0518 -0.0675 -0.1170
14456W        W57394  17.836  18.996   4.430 -0.1481  0.3264 -0.1487
14457W        W57395  19.819  20.788   5.312 -0.1483  0.3020 -0.0722
14458W        W57396  17.746  20.352   3.327 -0.0211 -0.0636  0.0792
14459W        W57397  19.348  19.580   5.221 -0.2422 -0.0405 -0.1206
14460W        W57398  20.207  19.921   5.071 -0.2496  0.0409 -0.3400
14461W        W57399  20.411  21.118   4.884 -0.1478 -0.0658  0.2108
14462W        W57400  19.900  18.675   5.706  0.1853 -0.1898 -0.1537
14463W        W57401  20.152  19.447   6.180 -0.1511  0.0183  0.0650
14464W        W57402  19.707  20.317   3.967 -0.2556 -0.3245 -0.0005
14465W        W57403  18.270  19.076   3.098 -0.1847 -0.3627 -0.3394
14466W        W57404  19.168  19.103   5.566 -0.1574 -0.0180  0.0102
14467W        W57405  19.330  19.543   5.719  0.0820 -0.0482 -0.2394
14468W        W57406  21.353  17.623   5.298  0.2494  0.1877 -0.4782
14469W        W57407  21.249  19.226   4.593  0.1431 -0.1045 -0.0527
14470W        W57408  18.930  20.840   4.010 -0.4796 -0.2019 -0.0801
14471W        W57409  20.199  21.013   5.651  0.1210  0.1003 -0.1526
14472W        W57410  20.241  19.134   8.166 -0.1002  0.0026  0.4832
14473W        W57411  17.218  19.780   3.583  0.2644 -0.2950 -0.0545
14474W        W57412  18.511  21.447   5.728  0.0809  0.1221 -0.1681
14475W        W57413  18.550  20.974   1.866 -0.2750  0.1219  0.2302
14476W        W57414  21.384  19.967   5.206 -0.1615  0.0829 -0.2121
14477W        W57415  21.490  20.840   8.157 -0.0833  0.2657  0.0495
14478W        W57416  21.122  21.457   7.689  0.2423 -0.3191 -0.1477
14479W        W57417  17.874  19.128   2.058  0.0957 -0.0172  0.4687
14480W        W57418  20.228  20.990   7.978 -0.2294  0.0006 -0.0370
14481W        W57419  20.335  22.088   7.351 -0.5804  0.3497  0.1506
14482W        W57420  19.723  20.431   5.670  0.0617 -0.3631  0.0888
14483W        W57421  18.889  19.860   5.216  0.1831  0.1368 -0.0333
14484W        W57422  18.456  20.160   3.874  0.0651 -0.0383 -0.1103
14485W        W57423  18.899  19.859   5.783  0.1579  0.3688 -0.2458
14486W        W57424  17.687  19.532   6.553 -0.2863  0.2521  0.2478
14487W        W57425  19.306  20.538   3.538 -0.1385 -0.0835  0.1285
14488W        W57426  22.814  18.711   8.164  0.4500 -0.0803  0.0137
14489W        W57427  20.091  20.422   4.893 -0.1017 -0.3400 -0.2060
14490W        W57428  21.121  18.208   4.845 -0.0605 -0.1386 -0.1886
14491W        W57429  18.599  19.362   3.435 -0.2779 -0.3280  0.2527
14492W        W57430  20.553  19.042   3.561  0.0354 -0.0585  0.2186
14493W        W57431  20.995  18.716   4.767 -0.0938 -0.2312  0.0525
14494W        W57432  19.908  20.912   4.816 -0.1371  0.0320 -0.0713
14495W        W57433  18.691  16.113   5.898 -0.1305 -0.1516  0.2075
14496W        W57434  20.640  20.339   5.281  0.0916 -0.2651  0.0697
14497W        W57435  17.742  19.669   3.840  0.4137  0.2249  0.1736
14498W        W57436  21.186  18.337   6.625 -0.5044  0.0652  0.1663
14499W        W57437  18.356  20.696   6.777  0.2094  0.0915  0.0077
14500W        W57438  17.576  19.491   4.270  0.0795 -0.0055 -0.2194
14501W        W57439  21.453  20.540   3.569 -0.1624 -0.1152  0.1681
14502W        W57440  19.791  20.570   4.415 -0.3396  0.1767  0.0822
14503W        W57441  19.567  20.686   2.243 -0.2529 -0.3440  0.0366
14504W        W57442  17.831  19.518   2.938 -0.2116  0.0043  0.3195
14505W        W57443  18.119  18.820   7.124  0.1611 -0.1539  0.2724
14506W        W57444  18.334  19.461   5.557 -0.0416 -0.0068 -0.3821
14507W        W57445  20.161  18.595   2.611 -0.3212  0.0251  0.1643
14508W        W57446  21.129  19.618   7.195  0.2949  0.2739  0.1354
14509W        W57447  17.910  19.908   6.347 -0.1352  0.2708  0.2265
14510W        W57448  21.722  18.669   6.110  0.0066 -0.1117  0.1391
14511W        W57449  19.185  20.423   5.156  0.2419  0.0418 -0.0496
14512W        W57450  20.822  20.939   6.382  0.2158 -0.1171  0.4132
14513W        W57451  20.226  18.614   3.641 -0.2149 -0.1267  0.0774
14514W        W57452  21.456  19.061   6.374 -0.0354  0.0751  0.2109
14515W        W57453  21.848  17.745   6.287  0.3591  0.1606 -0.1262
14516W        W57454  20.267  18.336   3.162 -0.2973 -0.1471 -0.1226
14517W        W57455  19.242  18.572   3.925  0.2418 -0.0381  0.1950
14518W        W57456  20.598  20.448   6.192 -0.0829 -0.2118  0.1467
14519W        W57457  21.129  19.096   3.782 -0.0212  0.1667 -0.0984
14520W        W57458  18.607  20.358   5.001  0.2360  0.0181 -0.2557
14521W        W57459  20.192  19.469   5.387  0.0218 -0.0312 -0.1406
14522W        W57460  19.978  21.354   6.057  0.0728 -0.1900 -0.1551
14523W        W57461  19.135  22.273   4.894 -0.0705  0.3995  0.0829
14524W        W57462  17.267  20.104   5.275  0.3371 -0.0079 -0.1275
14525W        W57463  18.155  20.057   3.029 -0.3959  0.0808  0.0800
14526W        W57464  18.481  18.244   6.353 -0.0107  0.1402  0.3125
14527W        W57465  19.571  20.052   6.540 -0.0244  0.5098  0.0188
14528W        W57466  19.428  18.609   4.361 -0.2539 -0.1952  0.0745
14529W        W57467  18.304  19.080   5.190 -0.0423 -0.0728 -0.0677
14530W        W57468  21.501  18.626   4.756  0.0500 -0.3310  0.1009
14531W        W57469  18.950  19.488   2.935  0.1129  0.1581  0.0796
14532W        W57470  21.413  21.000   5.053 -0.0602  0.0281  0.1173
14533W        W57471  21.452  19.243   4.134  0.0553 -0.0537  0.0040
14534W        W57472  20.275  19.689   3.365 -0.0487 -0.0744  0.2031
14535W        W57473  18.710  19.635   3.849  0.1155 -0.0278 -0.0813
14536W        W57474  19.606  18.146   4.225  0.4122  0.1517  0.1295
14537W        W57475  16.680  18.674   7.081 -0.1272 -0.0577 -0.2700
14538W        W57476  18.081  19.362   4.176  0.0302  0.0628  0.1198
14539W        W57477  22.742  19.185   7.463  0.0786 -0.1945 -0.0695
14540W        W57478  16.753  16.836   3.068  0.0423  0.0726 -0.1135
14541W        W57479  21.993  18.629   5.106 -0.1355  0.0157 -0.0119
14542W        W57480  19.857  19.895   6.179  0.1168  0.1328 -0.2609
14543W        W57481  19.161  20.331   4.012 -0.2020 -0.0852 -0.3138
14544W        W57482  21.952  19.078   6.407 -0.1374  0.0969 -0.2737
14545W        W57483  18.781  21.107   3.523 -0.0893  0.3748 -0.0990
14546W        W57484  21.104  20.382   4.933  0.2746  0.2284 -0.0551
14547W        W57485  20.883  20.303   4.328 -0.2736  0.2365 -0.3078
14548W        W57486  17.820  17.480   7.859 -0.0713  0.3500 -0.0998
14549W        W57487  18.025  17.468   3.019  0.3030  0.1952 -0.2052
14550W        W57488  19.134  21.919   6.281 -0.2756 -0.0686 -0.2373
14551W        W57489  20.334  20.772   6.503  0.0133  0.3328  0.2111
14552W        W57490  19.635  18.950   4.605  0.0300 -0.0802  0.2080
14553W        W57491  21.092  21.392   6.167 -0.3047  0.2648  0.0651
14554W        W57492  19.421  20.301   2.578 -0.2050  0.2139  0.0504
14555W        W57493  19.154  19.313   6.778 -0.1268  0.3234 -0.2582
14556W        W57494  21.004  18.706   7.218  0.3116  0.2177  0.1443
14557W        W57495  21.719  19.494   6.384 -0.2832  0.0712  0.1493
14558W        W57496  21.013  20.136   6.315 -0.2351  0.3579 -0.2907
14559W        W57497  18.446  18.384   2.218  0.0012  0.0926  0.4317
14560W        W57498  21.504  20.517   5.204  0.1284  0.0063  0.3569
14561W        W57499  18.583  20.586   1.368  0.3179 -0.2336  0.1602
14562W        W57500  18.871  21.141   5.679  0.0459 -0.2319  0.0758
14563W        W57501  19.329  20.540   4.504 -0.1771 -0.1076  0.1231
14564W        W57502  21.446  17.817   4.786 -0.2384 -0.2824 -0.1868
14565W        W57503  19.243  19.659   6.377 -0.1778  0.1730  0.0939
14566W        W57504  20.070  19.033   7.233 -0.1207  0.2475  0.2098
14567W        W57505  17.599  20.599   2.692  0.1591  0.0335  0.0263
14568W        W57506  18.449  20.089   6.433 -0.2140  0.0078 -0.0461
14569W        W57507  20.418  18.775   4.064 -0.2343  0.1329 -0.1248
14570W        W57508  21.702  18.894   3.837  0.2508 -0.0114  0.2269
14571W        W57509  20.301  19.653   6.572  0.2550  0.1485 -0.1927
14572W        W57510  22.722  20.930   4.761  0.0522  0.4035 -0.1254
14573W        W57511  19.758  18.491   3.742  0.0097 -0.1560  0.2855
14574W        W57512  19.551  18.470   2.916  0.1537  0.0039 -0.0487
14575W        W57513  16.768  21.415   6.512  0.2804  0.2739  0.0784
14576W        W57514  20.028  19.195   3.558 -0.1175  0.0102  0.2221
14577W        W57515  19.736  19.612   6.611  0.2409  0.1238  0.2442
14578W        W57516  18.526  18.288   3.117  0.1250  0.0443 -0.1869
14579W        W57517  20.907  20.351   3.582  0.2040  0.1464 -0.3860
14580W        W57518  18.772  19.355   5.794 -0.4379  0.1712 -0.0568
14581W        W57519  19.911  20.117   7.950  0.0375  0.3061 -0.1132
14582W        W57520  22.071  21.439   4.713  0.1225 -0.0830  0.1140
14583W        W57521  17.577  16.532   5.018  0.0760  0.2438 -0.0513
14584W        W57522  18.172  18.272   1.766  0.0858  0.3035 -0.1098
14585W        W57523  20.158  18.129   5.015 -0.1104  0.0422  0.1749
14586W        W57524  18.894  20.041   3.596 -0.2694 -0.3371 -0.0193
14587W        W57525  22.099  17.649   5.538  0.4340  0.0797  0.2615
14588W        W57526  20.593  18.351   4.795  0.2488  0.0113  0.3293
14589W        W57527  19.009  18.640   5.621  0.0758  0.0202 -0.1961
14590W        W57528  21.333  20.090   7.301 -0.1871  0.2339 -0.1677
14591W        W57529  20.720  19.954   5.019 -0.0896  0.1826  0.1232
14592W        W57530  21.796  20.111   6.465  0.1354 -0.0682 -0.0542
14593W        W57531  18.226  19.296   2.631 -0.1889 -0.1998 -0.1654
14594W        W57532  20.076  19.163   5.789  0.0728 -0.2013  0.1707
14595W        W57533  18.520  18.872   5.669 -0.0701  0.2277  0.5764
14596W        W57534  18.493  21.126   7.141  0.0364 -0.2678  0.0122
14597W        W57535  21.336  20.092   6.745  0.1982 -0.1931 -0.1541
14598W        W57536  20.139  21.067   3.467  0.0065  0.2745  0.2540
14599W        W57537  18.909  17.587   5.484  0.0585 -0.1021  0.1061
14600W        W57538  21.045  17.784   3.219  0.1887  0.1121  0.0468
14601W        W57539  18.042  20.912   4.171 -0.1165  0.2482  0.0099
14602W        W57540  19.039  18.093   1.304 -0.0456  0.1234 -0.0156
14603W        W57541  20.048  19.000   5.319 -0.0815  0.2966  0.1601
14604W        W57542  20.060  20.220   7.345 -0.3052  0.3000  0.2184
14605W        W57543  19.756  19.657   3.262  0.1478 -0.0491 -0.1431
14606W        W57544  20.744  19.834   6.617 -0.3821 -0.3207  0.0785
14607W        W57545  19.232  20.394   5.799 -0.0774  0.2000  0.1354
14608W        W57546  21.116  17.124   5.210 -0.0601  0.1529 -0.1131
14609W        W57547  17.496  20.044   5.749 -0.0234 -0.1678 -0.4234
14610W        W57548  18.501  18.515   4.148 -0.1374  0.0108  0.0216
14611W        W57549  17.325  19.224   2.789 -0.1066  0.0765  0.1050
14612W        W57550  21.765  19.006   5.297  0.1281 -0.0512 -0.0064
14613W        W57551  20.453  18.833   4.894  0.1504 -0.4019  0.1976
14614W        W57552  17.378  18.903   4.847  0.1635 -0.0308  0.0832
14615W        W57553  17.835  17.821   6.114 -0.1629  0.0579  0.1386
14616W        W57554  18.279  20.585   6.118 -0.2510 -0.1106  0.3374
14617W        W57555  20.299  18.763   6.603 -0.0384 -0.2072  0.0093
14618W        W57556  21.044  18.126   3.583  0.1400  0.2652 -0.0035
14619W        W57557  19.932  20.839   6.203 -0.0452 -0.2911  0.2493
14620W        W57558  19.629  19.422   6.138  0.0660 -0.1071 -0.1045
14621W        W57559  16.666  18.190   3.398 -0.2024  0.0593 -0.2188
14622W        W57560  20.761  19.152   7.295  0.1797  0.1380 -0.1370
14623W        W57561  19.771  19.329   4.977 -0.2279 -0.0249 -0.2667
14624W        W57562  18.948  20.239   4.608  0.3071 -0.0741 -0.1462
14625W        W57563  19.767  21.108   3.804 -0.0091 -0.0171 -0.0606
14626W        W57564  20.160  19.117   4.644 -0.0633  0.0002  0.0309
14627W        W57565  18.372  20.935   4.898 -0.3676  0.1672  0.1659
14628W        W57566  20.461  19.099   6.931  0.1274 -0.3068  0.2077
14629W        W57567  20.917  18.922   6.483  0.1285 -0.1129 -0.1612
14630W        W57568  20.241  19.556   3.887  0.0631  0.1776  0.0478
14631W        W57569  18.715  19.033   2.886  0.0799 -0.0139  0.1077
14632W        W57570  20.120  19.620   4.625  0.0946 -0.0927  0.3130
14633W        W57571  20.849  21.876   4.729 -0.2360 -0.2606 -0.0107
14634W        W57572  21.175  18.688   6.136  0.0061 -0.1249 -0.0245
14635W        W57573  18.548  19.633   6.890  0.0433 -0.0022 -0.0535
14636W        W57574  19.883  18.714   4.936 -0.0206 -0.2052 -0.2880
14637W        W57575  21.807  20.719   4.796 -0.1033 -0.3513  0.3527
14638W        W57576  20.437  18.854   7.548  0.4476 -0.0165  0.1400
14639W        W57577  17.947  20.120   3.764  0.0785  0.3017 -0.1101
14640W        W57578  18.325  19.957   5.532 -0.3378 -0.0202  0.3568
14641W        W57579  19.344  21.056   3.436  0.4057 -0.1762 -0.0097
14642W        W57580  21.418  18.909   5.746 -0.1032  0.1042 -0.2528
14643W        W57581  18.989  20.156   6.297  0.4690 -0.1835  0.1535
14644W        W57582  18.250  20.367   3.411  0.0093  0.0943  0.0027
14645W        W57583  18.984  19.561   7.275  0.0058 -0.2011  0.3363
14646W        W57584  21.334  17.772   3.808  0.0189  0.3500 -0.0482
14647W        W57585  18.764  19.948   3.073  0.2848 -0.0519  0.0669
14648W        W57586  19.838  19.712   5.730 -0.0329  0.0495 -0.0564
14649W        W57587  22.760  17.605   6.878  0.2059  0.2227 -0.1666
14650W        W57588  19.235  19.825   2.609 -0.0376 -0.1285 -0.4921
14651W        W57589  21.064  18.436   7.645  0.0228 -0.0694 -0.1550
14652W        W57590  19.095  16.029   4.333  0.0776 -0.1635  0.1780
14653W        W57591  20.268  20.405   4.353 -0.2380  0.0083  0.0678
14654W        W57592  19.422  18.310   5.193 -0.1980 -0.2131  0.0398
14655W        W57593  21.578  21.666   7.498  0.3195 -0.2448 -0.3476
14656W        W57594  19.465  18.927   5.937  0.2803  0.0022  0.0503
14657W        W57595  20.807  17.933   4.069  0.2693  0.1194 -0.2619
14658W        W57596  19.021  17.457   2.608  0.0796  0.0254  0.1939
14659W        W57597  18.830  19.255   7.642 -0.2456  0.2642  0.4386
14660W        W57598  20.909  19.677   6.005 -0.0324  0.3521 -0.0231
14661W        W57599  18.725  19.391   4.362 -0.1093  0.1922  0.0822
14662W        W57600  21.608  19.303   6.880 -0.2281 -0.0023 -0.0234
14663W        W57601  19.677  19.245   6.983 -0.1845 -0.0297  0.0967
14664W        W57602  21.127  19.590   5.088 -0.0357  0.0443  0.5253
14665W        W57603  19.484  19.450   2.962 -0.3190 -0.5410  0.1728
14666W        W57604  19.844  20.203   3.412  0.0679  0.1544  0.2051
14667W        W57605  17.695  17.819   5.613 -0.1632 -0.1806 -0.0976
14668W        W57606  20.168  20.295   5.440 -0.0668  0.0996 -0.0721
14669W        W57607  20.715  19.376   6.421  0.1509 -0.1305  0.2776
14670W        W57608  21.970  18.474   4.587  0.0496 -0.0715  0.2145
14671W        W57609  21.065  19.216   6.057 -0.2282 -0.0126  0.3646
14672W        W57610  18.568  19.203   6.515  0.1440  0.2990 -0.0881
14673W        W57611  19.129  19.243   6.138 -0.2457 -0.0618  0.1940
14674W        W57612  20.406  21.330   6.604  0.0967  0.0412 -0.0829
14675W        W57613  22.722  19.327   4.783 -0.0512 -0.0191  0.2376
14676W        W57614  22.179  19.072   7.009 -0.2115 -0.1905 -0.2329
14677W        W57615  22.516  19.895   5.912 -0.2916  0.0114 -0.2798
14678W        W57616  19.486  18.970   3.902  0.0130  0.2095  0.0981
14679W        W57617  18.836  19.942   4.226  0.0612  0.1838  0.0422
14680W        W57618  20.286  20.131   8.297 -0.1456  0.4130  0.0359
14681W        W57619  17.106  16.808   1.649  0.1483  0.0735  0.0887
14682W        W57620  21.091  17.619   6.997  0.0476  0.1064  0.0745
14683W        W57621  19.510  20.390   3.114 -0.0997 -0.4768 -0.0030
14684W        W57622  19.273  21.255   4.034  0.2016  0.1598 -0.2014
14685W        W57623  20.537  18.325   4.303 -0.1008  0.2229  0.1976
14686W        W57624  16.596  20.048   3.584 -0.0174 -0.2201 -0.3360
14687W        W57625  19.928  20.978   6.758  0.0361 -0.1378 -0.4470
14688W        W57626  17.286  19.625   2.271  0.1513  0.3085 -0.2052
14689W        W57627  18.078  19.392   3.425  0.0688 -0.2489  0.0120
14690W        W57628  19.766  19.769   5.191 -0.2311 -0.3001 -0.3417
14691W        W57629  21.546  19.752   8.092  0.1851  0.2014  0.0593
14692W        W57630  18.982  18.357   3.372  0.0734 -0.1397 -0.1905
14693W        W57631  21.584  19.254   7.774 -0.0349 -0.2056  0.2089
14694W        W57632  19.358  19.543   3.932  0.2682  0.3939  0.0858
14695W        W57633  20.680  18.191   5.283  0.2489  0.3013 -0.0346
14696W        W57634  17.770  20.784   4.619 -0.1438  0.0784  0.0777
14697W        W57635  19.034  19.920   6.805 -0.1187 -0.2414 -0.1961
14698W        W57636  18.813  21.168   4.831 -0.0314  0.3812  0.0063
14699W        W57637  20.735  18.111   6.660  0.2203  0.1115  0.0302
14700W        W57638  20.215  18.616   4.504  0.1107  0.4719 -0.0370
14701W        W57639  21.039  19.563   4.092 -0.2546 -0.2096 -0.3448
14702W        W57640  22.892  19.936   7.877 -0.0027  0.1012  0.2327
14703W        W57641  18.277  20.162   7.483  0.0835 -0.2649  0.2983
14704W        W57642  20.392  19.848   5.531 -0.1246  0.0410  0.0605
14705W        W57643  20.509  21.562   7.042 -0.0537 -0.1493 -0.1210
14706W        W57644  20.767  21.598   4.318  0.0078 -0.0780  0.0580
14707W        W57645  18.896  20.842   5.226 -0.1876  0.1237 -0.1099
14708W        W57646  16.488  19.521   5.968 -0.2716  0.1433 -0.0747
14709W        W57647  19.415  19.105   8.366 -0.1303  0.0072 -0.1014
14710W        W57648  20.454  21.622   4.980 -0.1755 -0.1532 -0.0747
14711W        W57649  18.038  18.149   2.799 -0.3639  0.0805  0.1283
14712W        W57650  18.221  19.847   2.578 -0.0600 -0.0087  0.1610
14713W        W57651  18.289  20.112   6.947 -0.0202 -0.2938  0.1254
14714W        W57652  19.628  19.563   4.496  0.0156  0.1516  0.2884
14715W        W57653  18.813  20.548   3.554  0.0088 -0.0357  0.0043
14716W        W57654  20.071  18.280   4.114 -0.1237 -0.2034 -0.1087
14717W        W57655  21.371  18.805   4.309  0.1939 -0.2838  0.1603
14718W        W57656  20.950  21.022   5.860 -0.0622 -0.5108  0.0707
14719W        W57657  18.904  17.880   4.675  0.2615  0.4607  0.1320
14720W        W57658  19.469  20.769   4.039 -0.0436  0.1898  0.1407
14721W        W57659  16.949  21.679   2.471 -0.3802  0.1298  0.2204
14722W        W57660  20.688  20.611   2.307  0.2697 -0.0863  0.0394
14723W        W57661  18.891  21.689   5.585 -0.2243 -0.0049 -0.0813
14724W        W57662  21.193  20.567   6.525 -0.1181  0.1000  0.3412
14725W        W57663  21.314  18.722   3.550  0.0553 -0.1321  0.1080
14726W        W57664  21.336  18.937   5.072 -0.0865  0.1080  0.0987
14727W        W57665  21.549  18.212   4.502 -0.2876 -0.1356  0.2922
14728W        W57666  20.670  20.374   6.779  0.4914  0.3399 -0.1612
14729W        W57667  20.416  19.423   4.949 -0.2248 -0.2750 -0.0996
14730W        W57668  21.067  18.316   3.099  0.0107 -0.1452 -0.2765
14731W        W57669  19.007  18.320   6.157  0.0480  0.1791  0.2828
14732W        W57670  21.057  16.684   7.338 -0.2005 -0.1340 -0.1685
14733W        W57671  17.493  21.855   6.929  0.2667  0.0731  0.0897
14734W        W57672  21.281  21.823   4.343 -0.2803 -0.0571 -0.0947
14735W        W57673  16.855  18.942   4.059 -0.0673 -0.0994 -0.1497
14736W        W57674  20.438  19.983   6.071  0.1630 -0.0153  0.3861
14737W        W57675  22.240  18.705   6.368 -0.0839 -0.2408 -0.0263
14738W        W57676  21.183  19.133   2.366  0.2108  0.0481  0.2432
14739W        W57677  19.901  18.774   4.159  0.0514 -0.1206  0.3161
14740W        W57678  19.663  20.989   5.777  0.1280  0.3212 -0.1031
14741W        W57679  19.633  20.461   4.992 -0.1589  0.0321  0.0033
14742W        W57680  20.593  20.722   5.765 -0.2476  0.1456 -0.0251
14743W        W57681  17.535  18.027   2.618 -0.1431  0.0186  0.0362
14744W        W57682  21.709  19.168   4.799  0.0444  0.1097  0.2415
14745W        W57683  20.035  19.195   6.597 -0.0305 -0.0833  0.0069
14746W        W57684  20.385  18.674   5.815  0.3510 -0.2017 -0.2693
14747W        W57685  18.304  19.622   5.088 -0.0927  0.0170 -0.1638
14748W        W57686  20.438  17.669   4.888  0.0390  0.0260 -0.1713
14749W        W57687  18.394  19.668   7.459  0.0867 -0.2125  0.1787
14750W        W57688  19.839  18.263   5.462  0.0274 -0.1576 -0.0157
14751W        W57689  20.791  17.921   4.583 -0.2340  0.0645  0.2113
14752W        W57690  20.089  19.528   7.128 -0.0737 -0.1178 -0.0588
14753W        W57691  19.141  19.705   2.143  0.3355 -0.0066 -0.1004
14754W        W57692  19.867  21.236   7.183  0.2306 -0.2639 -0.3803
14755W        W57693  17.373  18.802   3.137  0.1377 -0.0172 -0.2778
14756W        W57694  19.304  19.165   4.305  0.0974 -0.2751 -0.3268
14757W        W57695  18.816  20.679   4.691  0.1722 -0.1704 -0.1675
14758W        W57696  19.544  20.457   8.110  0.0351 -0.0153  0.1444
14759W        W57697  21.500  20.823   6.979  0.0653  0.2130 -0.3795
14760W        W57698  17.696  19.177   3.764  0.2706  0.0190 -0.0282
14761W        W57699  20.600  19.350   4.182 -0.2133 -0.0251 -0.0507
14762W        W57700  21.006  19.293   6.816 -0.1163  0.0377  0.0221
14763W        W57701  19.386  22.339   4.486 -0.0695 -0.2202 -0.0773
14764W        W57702  21.803  20.708   4.292 -0.0226 -0.1314  0.5010
14765W        W57703  20.318  20.870   4.435 -0.0739  0.1891 -0.0898
14766W        W57704  19.656  19.265   5.519 -0.1411  0.0375  0.2024
14767W        W57705  21.389  21.336   7.106  0.2905  0.0813  0.0959
14768W        W57706  20.900  18.586   5.721 -0.2576 -0.0191  0.1448
14769W        W57707  19.813  18.324   4.658 -0.0438 -0.0592 -0.0640
14770W        W57708  19.503  19.088   6.473  0.0016 -0.0102  0.2819
14771W        W57709  18.183  21.398   4.241 -0.2549 -0.2345 -0.0184
14772W        W57710  22.464  18.108   6.356 -0.1799  0.2090 -0.0171
14773W        W57711  21.319  19.148   7.267 -0.2345  0.3040  0.0976
14774W        W57712  19.304  21.471   2.996  0.2871  0.4038 -0.0816
14775W        W57713  21.713  18.641   6.589  0.1003  0.0041  0.4351
14776W        W57714  19.409  19.985   7.987  0.1010  0.0000  0.2429
14777W        W57715  19.061  21.841   8.207  0.1957  0.0629 -0.0431
14778W        W57716  18.636  18.764   1.956 -0.1231  0.5882  0.2559
14779W        W57717  19.626  20.180   7.052  0.1113 -0.0103 -0.0147
14780W        W57718  19.378  19.957   6.016  0.0653 -0.1932  0.3946
14781W        W57719  20.952  21.247   4.759 -0.1421 -0.0122  0.0065
14782W        W57720  21.351  19.826   5.797 -0.0163 -0.4018 -0.1651
14783W        W57721  20.709  19.448   5.456 -0.0945 -0.1504  0.2102
14784W        W57722  20.583  19.952   4.165 -0.2137  0.2128 -0.0308
14785W        W57723  20.190  17.980   4.530 -0.0390  0.0668 -0.2177
14786W        W57724  21.860  17.733   5.086 -0.0006  0.0670  0.2058
14787W        W57725  21.705  18.062   5.524 -0.1902  0.0726  0.2202
14788W        W57726  19.815  19.374   8.415  0.2840 -0.0796  0.3613
14789W        W57727  17.466  19.020   2.289 -0.2715  0.0895  0.2300
14790W        W57728  17.574  20.992   3.966 -0.1889  0.1772  0.1911
14791W        W57729  19.395  19.985   4.923 -0.1253  0.0768 -0.2049
14792W        W57730  19.788  19.125   7.930  0.2141  0.1115 -0.1337
14793W        W57731  18.610  18.870   6.959 -0.0319  0.1850  0.2235
14794W        W57732  19.339  18.651   4.835  0.0697 -0.0446 -0.3127
14795W        W57733  17.926  18.665   3.214  0.0037 -0.2326  0.2092
14796W        W57734  21.946  21.011   5.183 -0.0155  0.0993  0.1313
14797W        W57735  17.803  18.398   5.003 -0.1088 -0.0797 -0.1423
14798W        W57736  18.973  18.614   2.956 -0.3498  0.0941 -0.1886
14799W        W57737  20.842  19.587   4.573 -0.4184  0.0601 -0.0404
14800W        W57738  21.412  21.499   4.704 -0.1021 -0.3504 -0.2607
14801W        W57739  19.691  17.767   4.592  0.1770 -0.0590  0.0989
14802W        W57740  21.187  19.599   6.416  0.1377 -0.0259 -0.6172
14803W        W57741  17.725  19.390   2.451  0.1063 -0.1719  0.0063
14804W        W57742  18.866  20.398   7.497  0.1486 -0.1039 -0.0522
14805W        W57743  20.148  18.289   7.829  0.0753  0.2154  0.0224
14806W        W57744  18.666  18.201   1.736 -0.0729  0.0954 -0.1938
14807W        W57745  20.142  20.436   5.950 -0.0031 -0.2206  0.0323
14808W        W57746  20.139  20.595   3.833 -0.0010 -0.1277 -0.0277
14809W        W57747  19.946  20.302   2.123  0.0150  0.0781  0.0722
14810W        W57748  19.552  20.264   7.611  0.2335  0.0067 -0.0262
14811W        W57749  18.777  20.608   5.872  0.0748 -0.0293 -0.2168
14812W        W57750  18.926  18.417   5.090  0.0378  0.3743  0.0224
14813W        W57751  20.807  20.797   4.530  0.1079 -0.3802 -0.1151
14814W        W57752  17.413  19.345   6.981 -0.0565 -0.1657 -0.0480
14815W        W57753  20.231  21.091   3.962  0.1780 -0.1815 -0.1487
14816W        W57754  21.374  18.358   5.826 -0.0222 -0.2054  0.0155
14817W        W57755  19.226  20.958   5.938  0.0995  0.0909 -0.1820
14818W        W57756  17.222  17.309   4.467 -0.1056  0.0997  0.1793
14819W        W57757  18.595  19.907   8.514 -0.2469  0.1684 -0.2210
14820W        W57758  21.786  19.280   9.097 -0.3101  0.1532  0.0832
14821W        W57759  18.625  18.778   3.309  0.0559 -0.0455 -0.2184
14822W        W57760  18.840  18.838   4.269 -0.1866  0.0142  0.0277
14823W        W57761  20.426  20.019   4.609 -0.0315 -0.4463 -0.1626
14824W        W57762  20.202  20.125   6.512 -0.0216 -0.0075 -0.0384
14825W        W57763  19.394  20.052   4.390 -0.1898 -0.0414  0.3419
14826W        W57764  20.568  18.905   5.427  0.0174  0.0382 -0.5507
14827W        W57765  20.874  20.819   6.842 -0.1473  0.2256  0.1509
14828W        W57766  22.064  19.457   6.755 -0.1535  0.0222 -0.1475
14829W        W57767  18.660  19.584   2.539 -0.0470  0.3003  0.1125
14830W        W57768  20.955  19.796   2.983  0.1595  0.2383 -0.1142
14831W        W57769  20.110  19.764   7.554 -0.1564 -0.0069  0.0574
14832W        W57770  21.197  20.704   7.796  0.0063  0.2781  0.0443
14833W        W57771  19.962  19.951   6.906 -0.2266  0.0699  0.1588
14834W        W57772  21.500  20.269   6.062 -0.0881  0.4837 -0.0131
14835W        W57773  17.890  19.432   5.336 -0.3138 -0.1482  0.1625
14836W        W57774  19.557  19.211   3.457  0.1140  0.4195 -0.1124
14837W        W57775  19.306  20.858   4.944  0.2650 -0.1804  0.2275
14838W        W57776  20.682  18.512   6.209  0.0918 -0.1854 -0.1834
14839W        W57777  18.766  19.670   6.396 -0.0549  0.0381  0.0121
14840W        W57778  21.149  17.300   3.442  0.1696 -0.1554 -0.0936
14841W        W57779  19.273  20.569   7.221 -0.0760  0.1551 -0.4856
14842W        W57780  20.394  19.047   6.250 -0.1418 -0.2120  0.0739
14843W        W57781  19.323  16.285   9.646  0.1503 -0.3223  0.0727
14844W        W57782  19.977  18.353   8.329  0.1292 -0.0946 -0.0036
14845W        W57783  21.972  19.625   7.807 -0.1363  0.0344 -0.0808
14846W        W57784  20.904  19.034   9.603 -0.2340 -0.0194  0.3017
14847W        W57785  18.556  18.579   8.315  0.4447 -0.1982 -0.0814
14848W        W57786  20.350  21.066   8.522 -0.0495  0.0593 -0.1318
14849W        W57787  20.235  20.500   9.403  0.2573  0.2747  0.3584
14850W        W57788  22.839  19.231   8.893  0.2795  0.1701 -0.1314
14851W        W57789  20.682  19.798   8.499 -0.0187  0.4947  0.4056
14852W        W57790  20.636  18.666  10.940 -0.1431 -0.0065  0.0286
14853W        W57791  19.585  17.731   8.390  0.0721 -0.1273 -0.0794
14854W        W57792  19.492  17.691   9.156 -0.2045 -0.1174  0.1630
14855W        W57793  21.274  20.480   9.855  0.1021 -0.0409  0.1911
14856W        W57794  17.482  20.209   7.730 -0.0766  0.0744  0.2432
14857W        W57795  19.372  20.361   9.917 -0.2892  0.1495  0.0704
14858W        W57796  20.352  20.888   9.098  0.0906  0.0391 -0.2950
14859W        W57797  19.897  20.043   9.226 -0.1308  0.0253 -0.2325
14860W        W57798  20.541  18.018  10.029  0.1278  0.0721 -0.0654
14861W        W57799  18.627  20.729   9.562 -0.2471 -0.0127 -0.2526
14862W        W57800  17.992  19.193   6.837  0.1031 -0.1495  0.0671
14863W        W57801  20.054  17.932   9.975  0.2878 -0.0426  0.3199
14864W        W57802  19.512  18.652   9.244  0.1059  0.1090 -0.2145
14865W        W57803  20.711  18.698   9.289 -0.1167 -0.3184  0.1243
14866W        W57804  20.804  19.520   9.572  0.1295 -0.5775  0.1730
14867W        W57805  19.450  20.018   8.961 -0.2656  0.2099  0.0254
14868W        W57806  20.259  20.520   8.656 -0.1498 -0.1054  0.1311
14869W        W57807  18.149  18.301   8.967  0.0120  0.0310 -0.1735
14870W        W57808  18.095  20.673   8.138 -0.0246 -0.2670  0.0957
14871W        W57809  20.335  20.050   8.909 -0.1917 -0.3433 -0.1405
14872W        W57810  21.218  22.191   9.043 -0.0166 -0.1032 -0.2942
14873W        W57811  17.814  19.961   7.430  0.2674 -0.0990  0.0218
14874W        W57812  19.677  20.386  10.284  0.3703 -0.0794  0.0252
14875W        W57813  19.819  20.294   9.696 -0.2990 -0.0498  0.1787
14876W        W57814  19.769  20.823   7.798  0.1058 -0.4001 -0.1032
14877W        W57815  21.148  20.291   8.941 -0.3408 -0.2262  0.1150
14878W        W57816  19.117  19.277   8.945  0.0249  0.3892  0.0328
14879W        W57817  18.947  20.503   8.534 -0.1079 -0.1796 -0.2028
14880W        W57818  21.108  19.224   7.677  0.1842  0.0172  0.1866
14881W        W57819  18.882  19.819   7.770  0.0746  0.2145 -0.2973
14882W        W57820  20.139  18.727   7.944 -0.0304  0.2536  0.0287
14883W        W57821  19.805  16.261   9.444 -0.2052 -0.2039 -0.2090
14884W        W57822  18.414  21.077   8.685 -0.0333 -0.4685 -0.0973
14885W        W57823  20.812  17.850   9.612  0.2950 -0.2460  0.0196
14886W        W57824  19.086  19.049   9.410 -0.0097  0.2616  0.2188
14887W        W57825  21.801  17.908   9.661  0.0852 -0.2388 -0.2989
14888W        W57826  18.594  19.766   9.689 -0.3437  0.1951  0.1877
14889W        W57827  18.526  17.912   9.072  0.1425 -0.1470 -0.0553
14890W        W57828  21.775  21.253   6.764 -0.0171 -0.0292 -0.1539
14891W        W57829  20.548  20.677   8.253  0.3118 -0.2637  0.1537
14892W        W57830  19.195  20.023   7.363 -0.0619 -0.1819  0.0819
14893W        W57831  18.503  19.075   8.420  0.2577 -0.1750 -0.1050
14894W        W57832  20.336  18.720   8.433  0.0646  0.0306 -0.1236
14895W        W57833  21.278  19.523   9.123  0.3601 -0.0309  0.2025
14896W        W57834  18.177  21.018   9.689 -0.1987  0.1641  0.0779
14897W        W57835  23.178  16.578  10.080  0.1815 -0.0230 -0.2548
14898W        W57836  20.543  19.614   7.285 -0.1212  0.0867 -0.2248
14899W        W57837  20.755  18.020   8.665  0.1354 -0.1886 -0.0882
14900W        W57838  20.834  18.819  10.108 -0.2111  0.1841  0.3565
14901W        W57839  18.617  19.423   8.775 -0.1862 -0.2013  0.1689
14902W        W57840  19.307  18.204   8.929 -0.0595 -0.1653  0.0192
14903W        W57841  21.669  21.948   9.430  0.4686  0.1568 -0.0870
14904W        W57842  20.652  18.958   8.799  0.0024 -0.0450  0.2161
14905W        W57843  18.000  21.533   8.444  0.1236  0.1003  0.1109
14906W        W57844  18.024  20.403   6.496 -0.2631  0.0117  0.0438
14907W        W57845  18.952  18.540   9.453  0.2009 -0.2262 -0.1766
14908W        W57846  18.121  19.354   8.271 -0.0022 -0.1552  0.4034
14909W        W57847  18.719  18.384  11.140  0.2162  0.1401 -0.3097
14910W        W57848  18.823  20.275   9.736  0.2654 -0.2574 -0.0694
14911W        W57849  20.842  18.642   8.500 -0.1531 -0.0862  0.4382
14912W        W57850  22.820  16.449   7.688  0.2050  0.2258  0.0213
14913W        W57851  19.885  20.162   8.705 -0.1347  0.1565  0.0966
14914W        W57852  20.675  21.727   7.563  0.1524  0.0699 -0.0394
14915W        W57853  22.219  18.148   8.577  0.1583 -0.0039  0.2567
14916W        W57854  21.166  20.478   7.054  0.1584 -0.0179  0.1951
14917W        W57855  19.798  18.187   9.483 -0.0594 -0.1141  0.2343
14918W        W57856  20.080  18.673   8.852  0.1639  0.0738  0.0573
14919W        W57857  19.331  18.164   9.488  0.0655 -0.0281  0.4655
14920W        W57858  18.906  17.248   7.607  0.4114  0.0473  0.0657
14921W        W57859  20.478  19.225   9.374  0.2395 -0.2937 -0.0338
14922W        W57860  19.292  19.071   7.760  0.2104  0.1331  0.0753
14923W        W57861  17.524  19.689   7.781  0.2597 -0.0323  0.0935
14924W        W57862  20.731  20.863   8.700  0.2270 -0.0711  0.2152
14925W        W57863  21.239  19.955  11.127 -0.3797 -0.1476  0.1247
14926W        W57864  20.808  21.451   8.455  0.0320 -0.2619  0.0188
14927W        W57865  18.643  16.257   8.932  0.1359 -0.3810  0.1657
14928W        W57866  17.404  17.844   7.941 -0.0559  0.2392  0.1716
14929W        W57867  17.238  21.996   9.122  0.1577 -0.0446 -0.1036
14930W        W57868  21.576  20.489  10.401  0.1366 -0.2340  0.2394
14931W        W57869  19.662  18.515   7.808 -0.1797  0.2453 -0.4463
14932W        W57870  20.334  21.128  10.374  0.0365 -0.1458 -0.1157
14933W        W57871  18.650  20.707   9.011 -0.0431 -0.0778  0.2072
14934W        W57872  20.332  20.957   9.616  0.1000  0.2688  0.3384
14935W        W57873  21.281  20.757   8.798  0.0889  0.0838  0.1288
14936W        W57874  17.773  18.501   6.817  0.0191 -0.1140  0.2614
14937W        W57875  20.326  22.218   9.515  0.3276 -0.1254 -0.2062
14938W        W57876  17.623  20.622   8.010  0.1855  0.1929 -0.1118
14939W        W57877  17.948  19.371   9.270  0.1161  0.3344  0.2664
14940W        W57878  19.568  21.932  10.750 -0.2688  0.2578  0.0176
14941W        W57879  22.418  17.992   9.641 -0.0962  0.2483 -0.0530
14942W        W57880  19.103  18.151   7.380  0.1640 -0.1301  0.1673
14943W        W57881  21.272  18.002   7.875 -0.0484  0.1997  0.0394
14944W        W57882  21.684  18.815   8.083 -0.1646 -0.1484  0.0950
14945W        W57883  21.202  19.979   9.689 -0.1313 -0.1835  0.1292
14946W        W57884  21.030  19.570   8.065 -0.1333 -0.0616  0.0908
14947W        W57885  20.681  17.902   7.188 -0.2139 -0.2651 -0.1036
14948W        W57886  20.655  20.292   8.516 -0.1147  0.2353 -0.2233
14949W        W57887  20.966  19.122  11.079  0.2811  0.0497 -0.4604
14950W        W57888  20.254  18.144   8.722 -0.3196 -0.0561 -0.2236
14951W        W57889  20.825  21.521   9.269  0.1730 -0.1344  0.1429
14952W        W57890  19.052  21.092   9.742  0.0342 -0.2630 -0.2437
14953W        W57891  20.041  19.452  10.159 -0.0651  0.2878  0.3104
14954W        W57892  22.659  17.209   9.995 -0.2358  0.1828  0.3840
14955W        W57893  18.524  19.448   8.047 -0.0147  0.2145 -0.0928
14956W        W57894  20.379  17.664   8.787  0.0498 -0.0427  0.0686
14957W        W57895  17.657  20.647   6.651  0.1127 -0.1127  0.0714
14958W        W57896  19.952  16.035   8.237  0.1519  0.1309 -0.1879
14959W        W57897  20.673  18.125   7.774  0.1978 -0.1002 -0.0391
14960W        W57898  21.811  19.036   8.583 -0.3279 -0.0840  0.1703
14961W        W57899  20.455  18.778   9.791  0.0398 -0.1236  0.1724
14962W        W57900  18.367  19.218   7.312  0.1480  0.0542 -0.0252
14963W        W57901  20.650  17.355   9.454  0.0986  0.0271 -0.2606
14964W        W57902  18.467  19.713   9.204 -0.1270 -0.0355 -0.1564
14965W        W57903  19.789  19.838   8.383  0.0248 -0.1174  0.0444
14966W        W57904  19.995  18.531   7.409  0.1387  0.0323 -0.2690
14967W        W57905  19.770  20.669   7.183  0.1594 -0.1479  0.4312
14968W        W57906  19.341  19.607   8.580  0.1203 -0.0952 -0.2052
14969W        W57907  22.568  17.649  10.208 -0.1057  0.0233 -0.2448
14970W        W57908  17.051  22.970   9.999  0.1179  0.0123 -0.2795
14971W        W57909  18.456  19.950   7.986 -0.0217 -0.3421 -0.2864
14972W        W57910  19.767  20.602   9.215 -0.1904 -0.0699  0.2698
14973W        W57911  16.438  21.452   7.449  0.0759  0.0118 -0.1592
14974W        W57912  21.311  19.155  10.596 -0.4109 -0.2926 -0.1997
14975W        W57913  18.361  20.601   7.299 -0.0565  0.1822  0.0312
14976W        W57914  18.933  18.784   7.413  0.3478  0.1263  0.2834
14977W        W57915  18.461  20.354   8.309 -0.1578 -0.4356 -0.0233
14978W        W57916  21.033  18.274   8.291 -0.0428 -0.1727  0.0438
14979W        W57917  21.050  19.559   8.658 -0.4152  0.0355 -0.1788
14980W        W57918  17.329  16.705   8.851  0.2091  0.3530 -0.2519
14981W        W57919  19.839  16.598   9.871 -0.1401 -0.0385  0.1307
14982W        W57920  19.169  19.921   9.804  0.0429  0.1885 -0.2877
14983W        W57921  21.442  19.673   7.594 -0.0187 -0.1411  0.2237
14984W        W57922  19.428  18.452   5.707 -0.1860 -0.1089  0.0877
14985W        W57923  21.160  18.559   9.642  0.0236 -0.2614 -0.2268
14986W        W57924  19.946  19.574   7.983  0.1582  0.0849 -0.1005
14987W        W57925  18.026  19.917   9.414  0.0204 -0.2632  0.0215
14988W        W57926  19.123  20.539   9.035  0.3923 -0.0992 -0.1838
14989W        W57927  18.557  18.748   8.771 -0.0985  0.0202 -0.1319
14990W        W57928  19.141  21.385   9.181  0.0499  0.2242 -0.1269
14991W        W57929  20.561  21.786   9.627  0.1033  0.1461 -0.0512
14992W        W57930  21.810  18.909  10.542  0.5454  0.1642  0.4976
14993W        W57931  18.215  16.763   9.395  0.0567  0.1966  0.0606
14994W        W57932  20.068  19.115   9.788 -0.0412  0.1449 -0.1771
14995W        W57933  21.794  20.587   9.437  0.3399 -0.0223  0.1833
14996W        W57934  19.704  17.691   9.641  0.1551  0.0406  0.2390
14997W        W57935  19.297  16.805   8.506 -0.1116  0.0898 -0.0601
14998W        W57936  21.748  21.796   8.358 -0.1258 -0.0465  0.1245
14999W        W57937  18.560  18.869   9.574  0.0754  0.0097  0.1257
15000W        W57938  18.727  20.224   9.241 -0.0685 -0.2428  0.0402
15001W        W57939  18.373  20.110   8.863  0.2145 -0.4195 -0.1986
15002W        W57940  19.377  18.625   8.202  0.0411  0.3303  0.0409
15003W        W57941  18.850  21.330   8.314 -0.1529  0.0701  0.4611
15004W        W57942  17.919  20.541   7.612 -0.1849 -0.4219 -0.2372
15005W        W57943  19.058  18.710   8.996 -0.1129  0.1570  0.1341
15006W        W57944  21.499  18.278   7.469 -0.0729 -0.5163 -0.2242
15007W        W57945  20.434  20.009   6.978  0.1609  0.0011  0.0096
15008W        W57946  19.630  17.205   8.524  0.0759 -0.0790  0.0106
15009W        W57947  20.447  19.817   7.904 -0.3573  0.0214  0.1518
15010W        W57948  20.721  16.404   9.680 -0.1525  0.1572 -0.1793
15011W        W57949  21.634  20.451   8.919 -0.0857  0.0015  0.0330
15012W        W57950  19.933  18.569   9.828 -0.2278  0.0060 -0.1960
15013W        W57951  18.112  18.362   7.337 -0.2144  0.1055  0.0951
15014W        W57952  21.515  17.714  10.047 -0.2692  0.0469 -0.0769
15015W        W57953  20.420  19.441  10.463 -0.2607 -0.1816  0.0092
15016W        W57954  19.281  20.094   8.479 -0.1082  0.0955  0.2930
15017W        W57955  20.849  19.258   9.105  0.0849  0.0408 -0.0783
15018W        W57956  19.515  19.553   9.249  0.0690 -0.3196 -0.2624
15019W        W57957  21.072  18.678   8.959 -0.0197  0.1444  0.2856
15020W        W57958  20.858  20.078   7.120 -0.2894 -0.2025 -0.1558
15021W        W57959  20.797  19.034  10.558  0.0740  0.1064  0.1623
15022W        W57960  21.674  19.704   9.353 -0.4823 -0.1540  0.0366
15023W        W57961  20.119  18.815   9.400 -0.2895  0.1410 -0.1232
15024W        W57962  20.146  22.311  11.137 -0.3553  0.1736  0.0277
15025W        W57963  22.051  19.930   7.236  0.0946  0.0170 -0.1618
15026W        W57964  23.877  16.875   9.821 -0.0364 -0.1535 -0.1153
15027W        W57965  22.087  19.245  10.799  0.3546 -0.0523  0.0746
15028W        W57966  19.867  18.771   6.852 -0.2070 -0.0154  0.0709
15029W        W57967  18.359  19.326   9.545 -0.3972  0.0319  0.1148
15030W        W57968  20.148  19.143   8.723 -0.0613 -0.2079 -0.1943
15031W        W57969  19.466  19.685   7.066  0.0442  0.2181 -0.1697
15032W        W57970  20.084  19.648  10.814 -0.0401 -0.0210 -0.4779
15033W        W57971  20.561  18.483   8.905 -0.1009  0.0472 -0.0162
15034W        W57972  18.285  17.567   8.204 -0.0421 -0.0671 -0.0374
15035W        W57973  17.830  17.845   8.207  0.2108  0.0516  0.2445
15036W        W57974  19.577  20.551   8.671  0.1893  0.0744  0.1794
15037W        W57975  20.682  21.672  10.472 -0.5150  0.0676 -0.1549
15038W        W57976  19.232  18.806   6.942 -0.2196 -0.0136  0.0476
15039W        W57977  18.186  19.227   7.761 -0.0174 -0.2638 -0.3026
15040W        W57978  20.249  17.501   8.354  0.0149 -0.1882 -0.1468
15041W        W57979  19.546  20.859   9.891  0.3674  0.1844  0.0266
15042W        W57980  18.962  20.313   8.069  0.2781  0.2256  0.2802
15043W        W57981  19.881  17.677   8.793  0.2257 -0.1061 -0.0885
15044W        W57982  20.534  20.008  10.354 -0.2163  0.2528  0.0434
15045W        W57983  19.947  19.153  10.641  0.0563 -0.1245  0.0428
15046W        W57984  18.630  19.317  10.144 -0.2437  0.0088 -0.4135
15047W        W57985  21.864  20.055   8.586 -0.1336 -0.3764 -0.2648
15048W        W57986  19.214  17.626   8.750 -0.1463 -0.2394  0.2381
15049W        W57987  19.584  17.262   9.477  0.0179 -0.1076  0.1485
15050W        W57988  18.385  17.928   7.270 -0.3279 -0.0026  0.0949
15051W        W57989  18.479  20.422   7.838  0.1648  0.2116 -0.3610
15052W        W57990  19.536  19.414  10.404 -0.3118 -0.0099 -0.0926
15053W        W57991  18.328  21.239   8.081 -0.2098  0.0265 -0.1039
15054W        W57992  20.868  19.855   9.100  0.1972 -0.0778  0.1094
15055W        W57993  20.792  20.250   8.031 -0.2530 -0.0592 -0.0105
15056W        W57994  22.427  21.476  10.132 -0.1278  0.1685  0.0768
15057W        W57995  19.416  18.519   7.342 -0.2288 -0.0702  0.0131
15058W        W57996  18.954  21.061   8.774 -0.0244  0.2271 -0.1908
15059W        W57997  18.093  21.309   7.440  0.0400 -0.1198 -0.0604
15060W        W57998  20.948  20.370   7.590  0.1691  0.0510 -0.0266
15061W        W57999  18.182  22.256   8.857 -0.1068 -0.0820 -0.1915
15062W        W58000  20.600  17.600   6.686 -0.0584 -0.0089  0.0733
15063W        W58001  20.646  20.458   9.080 -0.1627 -0.0480 -0.1385
15064W        W58002  22.419  18.263   7.888  0.2107  0.0190  0.0953
15065W        W58003  19.486  18.688   8.686 -0.1214  0.1916  0.0770
15066W        W58004  20.212  18.075   7.365 -0.0676  0.0109  0.0551
15067W        W58005  20.919  21.034   7.308 -0.3135  0.0688 -0.0797
15068W        W58006  19.355  19.521   8.026 -0.2955  0.2154 -0.0705
15069W        W58007  19.004  19.431   9.715 -0.1582  0.0493  0.2813
15070W        W58008  22.037  18.372   9.578 -0.3631 -0.2335  0.0824
15071W        W58009  18.987  18.899   6.417  0.2705  0.2231  0.1707
15072W        W58010  21.474  18.305   9.359  0.0498  0.1149 -0.1519
15073W        W58011  20.424  21.143   7.498 -0.2006 -0.1612 -0.1626
15074W        W58012  19.144  21.975   9.866 -0.0189  0.4493  0.1629
15075W        W58013  20.103  21.447   8.769  0.0407  0.1420 -0.0315
15076W        W58014  19.288  18.028   7.880 -0.0695 -0.0052  0.0834
15077W        W58015  21.837  19.313   9.559  0.3188 -0.1550 -0.1304
15078W        W58016  20.349  20.518  10.294  0.1135  0.1391  0.1709
15079W        W58017  17.728  18.921   9.491  0.1955 -0.3104 -0.2863
15080W        W58018  20.654  18.626   7.988 -0.0164 -0.4255  0.0952
15081W        W58019  20.038  21.866   9.660  0.2274 -0.1244  0.1411
15082W        W58020  20.388  19.740   9.940 -0.0589  0.2206 -0.0513
15083W        W58021  18.955  19.823   8.820  0.0552 -0.0566  0.0926
15084W        W58022  21.268  19.104   8.762  0.2523 -0.0058 -0.3129
15085W        W58023  18.981  17.927   9.235 -0.1999  0.2934  0.2123
15086W        W58024  20.280  19.581   8.366  0.3598  0.0543 -0.2737
15087W        W58025  17.837  20.738   9.350  0.1910 -0.0890 -0.4060
15088W        W58026  20.858  20.361  10.579 -0.0572  0.0219 -0.0373
15089W        W58027  18.807  18.260   8.098 -0.1925 -0.1867 -0.1613
15090W        W58028  21.310  20.188   7.971  0.2223 -0.0238 -0.2589
15091W        W58029  20.952  19.730  10.021 -0.0505  0.1066 -0.3584
15092W        W58030  19.999  21.672   6.994 -0.0905 -0.1152 -0.1990
15093W        W58031  21.799  21.220  10.094  0.1562 -0.2923  0.1205
15094W        W58032  19.884  20.962   8.750  0.1059 -0.1224 -0.0388
15095W        W58033  19.361  17.455   7.969  0.1280 -0.0421 -0.0455
15096W        W58034  18.152  23.742  10.328  0.2543  0.1831 -0.0356
15097W        W58035  21.235  21.997   9.632 -0.0287  0.0079  0.1122
15098W        W58036  20.477  16.999   8.667 -0.0415  0.4840 -0.0702
15099W        W58037  19.168  19.779  10.294 -0.1261  0.2108 -0.0374
15100W        W58038  18.113  21.428   6.856 -0.1929 -0.0100 -0.0505
15101W        W58039  21.162  18.411  10.115  0.0632  0.2180 -0.0735
15102W        W58040  20.671  19.142   7.857 -0.0624  0.0276  0.3792
15103W        W58041  21.609  23.507   9.797  0.1776  0.1871  0.0472
15104W        W58042  17.873  18.882   7.524  0.3096  0.2182  0.1466
15105W        W58043  19.258  20.665   9.502 -0.1328  0.0570 -0.2252
15106W        W58044  19.884  19.669   8.843  0.4932 -0.1002 -0.1172
15107W        W58045  19.232  20.214   9.394  0.0117  0.0253  0.0162
15108W        W58046  19.961  19.718   9.651  0.1575 -0.1553  0.0591
15109W        W58047  22.861  20.210   9.899 -0.0645  0.2100 -0.0335
15110W        W58048  19.781  18.938  10.163 -0.0060 -0.4207  0.1724
15111W        W58049  21.285  18.794   6.807  0.0674  0.2023  0.1669
15112W        W58050  21.140  18.184   7.152  0.0338  0.3187 -0.1834
15113W        W58051  18.242  20.386   9.323  0.2098  0.0905 -0.0614
15114W        W58052  18.159  18.821   8.110  0.2045 -0.2076  0.4049
15115W        W58053  17.525  20.798   7.316  0.2699 -0.1425  0.4219
15116W        W58054  19.468  17.320   9.976 -0.1489  0.0095 -0.0941
15117W        W58055  18.504  18.312   9.425  0.1513 -0.2324 -0.3559
15118W        W58056  19.169  18.544   7.775 -0.1798 -0.1913 -0.0282
15119W        W58057  20.760  19.274   8.360 -0.4215  0.1758 -0.1126
15120W        W58058  17.404  17.233   8.771  0.1243 -0.3182  0.1312
15121W        W58059  17.582  18.469   7.362  0.1182 -0.1193  0.1993
15122W        W58060  20.474  19.572   8.888 -0.0281 -0.3563  0.2207
15123W        W58061  21.260  21.695   9.237  0.2706  0.2939 -0.1132
15124W        W58062  19.594  18.185   9.903 -0.1806 -0.0002 -0.1433
15125W        W58063  17.981  19.695   7.013  0.0889  0.3138  0.3349
15126W        W58064  18.243  18.378   6.869  0.0387 -0.0766  0.1206
15127W        W58065  20.802  20.859  10.339  0.0619  0.1339  0.0757
15128W        W58066  20.060  20.033  10.384 -0.1267  0.0990 -0.0952
15129W        W58067  21.532  20.532   7.486  0.2390 -0.1803  0.0727
15130W        W58068  15.804  19.216   9.424  0.1782  0.1541  0.1461
15131W        W58069  21.601  18.694   8.986  0.0269 -0.2075 -0.1206
15132W        W58070  21.957  21.319   8.423  0.1125  0.2402 -0.0012
15133W        W58071  20.303  17.742   9.585  0.0652  0.0797 -0.1809
15134W        W58072  18.919  19.649   8.312 -0.2088 -0.0690 -0.0238
15135W        W58073  21.696  18.757   9.695  0.1852  0.2644 -0.1498
15136W        W58074  19.395  17.196   9.024 -0.2214  0.2378  0.1894
15137W        W58075  19.684  18.900   7.492 -0.0606  0.0847  0.1025
15138W        W58076  20.959  19.859   7.625 -0.1437 -0.2053 -0.0504
15139W        W58077  20.566  19.229   9.977  0.3884  0.1905  0.0667
15140W        W58078  19.634  19.202   8.836  0.0033 -0.0131  0.2323
15141W        W58079  18.969  19.669   9.301 -0.2251 -0.0902 -0.0938
15142W        W58080  18.721  19.953   7.247  0.0903  0.0310 -0.3509
15143W        W58081  21.481  20.438   8.408  0.2414 -0.0417 -0.1527
15144W        W58082  20.263  18.462  10.240 -0.0027  0.1600  0.1162
15145W        W58083  18.693  21.892   9.224 -0.2800 -0.1061 -0.1045
15146W        W58084  22.263  18.898   9.624 -0.4222  0.0590  0.2776
15147W        W58085  18.585  17.162   9.434  0.0157 -0.3617 -0.1715
15148W        W58086  18.989  18.915   8.513  0.1402  0.2495 -0.2600
15149W        W58087  20.288  21.603  10.085 -0.1709 -0.0757 -0.0161
15150W        W58088  21.319  18.691  11.231  0.0605  0.0710  0.0309
15151W        W58089  19.948  19.355   9.323  0.0839  0.0180  0.1813
15152W        W58090  20.411  18.167   8.251  0.3742 -0.0182  0.1627
15153W        W58091  20.059  20.671   9.921 -0.0564 -0.0456 -0.0599
15154W        W58092  20.973  18.251   9.260  0.1558  0.2028  0.0996
15155W        W58093  18.779  23.287   2.126  0.1167  0.2833 -0.0424
15156W        W58094  17.542  22.781   0.241  0.0634  0.0640  0.2103
15157W        W58095  20.889  22.095  31.354  0.0081 -0.0616  0.0983
15158W        W58096  20.238  22.694   0.440  0.3463  0.2047  0.0483
15159W        W58097  19.192  21.393   1.195 -0.3253  0.2573  0.1646
15160W        W58098  18.538  20.518   2.292  0.3783 -0.0734 -0.0906
15161W        W58099  20.817  23.563   0.373  0.0358  0.2074  0.2252
15162W        W58100  20.585  24.631   2.517  0.1971  0.2593  0.0726
15163W        W58101  19.539  23.163  30.952 -0.0249 -0.2928 -0.0282
15164W        W58102  19.914  23.231   2.395  0.0020  0.2922 -0.1010
15165W        W58103  19.226  24.565   2.669  0.0709 -0.1482 -0.1589
15166W        W58104  18.841  22.069  31.055 -0.0679  0.1908  0.1743
15167W        W58105  19.350  20.979   0.924 -0.0049 -0.0925  0.1355
15168W        W58106  18.423  22.549   1.700 -0.0155  0.0323 -0.0470
15169W        W58107  17.374  22.126  31.248 -0.1236  0.0437 -0.0129
15170W        W58108  18.814  21.839   3.365 -0.4228 -0.1743  0.0277
15171W        W58109  19.616  21.764   2.015  0.1951  0.0640  0.2793
15172W        W58110  20.085  25.234   1.366  0.0579  0.3750  0.0887
15173W        W58111  19.327  22.351   2.111  0.0680  0.0298 -0.0983
15174W        W58112  20.891  22.240   2.107 -0.2588  0.0449  0.0453
15175W        W58113  19.299  24.279   0.471  0.2851  0.0376  0.2007
15176W        W58114  17.873  23.749  31.930 -0.0311 -0.2309 -0.1971
15177W        W58115  18.489  23.578   2.496 -0.3138 -0.2969  0.0645
15178W        W58116  18.393  22.460   3.533  0.2998 -0.3682  0.0522
15179W        W58117  19.438  22.534   1.676 -0.1120  0.2524 -0.1900
15180W        W58118  19.946  23.651   1.403  0.0891  0.2871 -0.2342
15181W        W58119  19.986  24.604   0.831  0.0922 -0.1887 -0.3528
15182W        W58120  19.646  24.648   0.437  0.0844 -0.2538 -0.0888
15183W        W58121  20.608  21.440   2.796  0.1606 -0.0020 -0.0218
15184W        W58122  16.658  24.627   0.219 -0.1194 -0.1569  0.1205
15185W        W58123  18.207  25.712   1.726 -0.3246 -0.1136 -0.0846
15186W        W58124  18.391  24.017  31.860  0.1296  0.1452  0.1264
15187W        W58125  20.825  23.956   0.922 -0.1388  0.2177  0.1089
15188W        W58126  20.932  22.596   1.149 -0.1166  0.1385  0.1780
15189W        W58127  19.151  25.126   2.244 -0.3526  0.0590 -0.0505
15190W        W58128  18.164  24.792   2.035  0.2306 -0.1310  0.4092
15191W        W58129  19.715  24.983   1.514  0.1793 -0.1140 -0.0892
15192W        W58130  18.089  24.708   3.773 -0.0827 -0.2938 -0.1149
15193W        W58131  20.284  22.627   2.901 -0.0778 -0.2080  0.0685
15194W        W58132  19.576  23.537   1.739 -0.1478  0.2333  0.1341
15195W        W58133  19.080  23.349   0.910 -0.0992 -0.0172 -0.1586
15196W        W58134  19.608  24.577   1.127 -0.0167  0.0207  0.0346
15197W        W58135  19.055  23.615   2.499 -0.0647  0.0348 -0.2531
15198W        W58136  20.265  22.277   2.568  0.2581  0.1823 -0.4207
15199W        W58137  18.294  26.419  31.735 -0.1245  0.1418  0.5223
15200W        W58138  19.361  22.434   0.411  0.2860 -0.1530  0.0015
15201W        W58139  17.696  21.982  30.886 -0.0145  0.0382 -0.2459
15202W        W58140  20.998  21.185   1.038  0.1601 -0.0939  0.0021
15203W        W58141  19.440  21.843   1.323 -0.2441 -0.0686  0.2564
15204W        W58142  19.083  25.507   1.293 -0.1727  0.0624  0.0254
15205W        W58143  18.041  23.304   1.780 -0.1381 -0.1029  0.2036
15206W        W58144  20.155  23.780   3.521 -0.0464 -0.2423 -0.0287
15207W        W58145  18.848  23.848   0.941  0.0493  0.1434  0.1990
15208W        W58146  19.163  21.842   1.800 -0.1772  0.1835 -0.2310
15209W        W58147  18.037  23.841   1.586 -0.1814 -0.0442 -0.1818
15210W        W58148  18.020  22.823   2.091  0.2029  0.3055  0.0280
15211W        W58149  21.029  24.741   0.503  0.0272 -0.0103  0.0404
15212W        W58150  20.753  23.353   0.838  0.1614 -0.2258 -0.0938
15213W        W58151  20.824  24.690  31.400 -0.0046 -0.0046 -0.0602
15214W        W58152  17.141  22.543  31.883  0.1382  0.0117 -0.1660
15215W        W58153  18.938  22.950   2.510  0.0822  0.4759 -0.2654
15216W        W58154  17.624  23.629   2.331 -0.2814  0.3469 -0.3932
15217W        W58155  17.088  22.707  31.326 -0.2019 -0.2135  0.0269
15218W        W58156  20.697  23.575   3.696  0.1374 -0.0210  0.0890
15219W        W58157  17.898  25.844   2.686 -0.2932 -0.2912  0.1683
15220W        W58158  20.482  23.025   1.527  0.0379 -0.4354  0.0067
15221W        W58159  18.365  23.542   0.804  0.1642 -0.0333 -0.0555
15222W        W58160  21.356  24.801   3.012 -0.0333  0.2468 -0.0734
15223W        W58161  20.468  24.272   0.082  0.0051  0.0970  0.0459
15224W        W58162  20.264  20.073   0.751 -0.1014  0.3706  0.4092
15225W        W58163  21.414  21.038   3.233 -0.0111 -0.0116 -0.0340
15226W        W58164  18.437  23.149   0.400  0.0157 -0.0308 -0.2277
15227W        W58165  18.770  23.421   1.279 -0.0410  0.0294  0.0432
15228W        W58166  21.558  21.954   2.716  0.1671 -0.0559  0.2999
15229W        W58167  20.694  22.498   0.548 -0.2155 -0.1135  0.1695
15230W        W58168  18.791  24.795   2.496  0.1441  0.0408  0.0219
15231W        W58169  18.983  22.207   4.210  0.4886 -0.0549  0.1198
15232W        W58170  18.540  24.688   3.301  0.0468  0.1906  0.0094
15233W        W58171  18.091  25.604  31.054 -0.0420  0.1248 -0.1382
15234W        W58172  17.133  22.995   0.365 -0.1480  0.0458  0.3002
15235W        W58173  17.061  23.493   0.968 -0.0706 -0.0427  0.2150
15236W        W58174  17.218  22.441   2.236 -0.0094  0.2332  0.0228
15237W        W58175  18.356  24.154   2.301 -0.0427 -0.1147  0.2939
15238W        W58176  20.173  21.219   0.511  0.1259 -0.2067  0.3685
15239W        W58177  19.102  19.569   3.473  0.4194  0.2389 -0.1263
15240W        W58178  20.968  21.322   1.596  0.0031  0.0837 -0.2319
15241W        W58179  19.072  25.058   0.087  0.2029  0.1079  0.1318
15242W        W58180  22.191  24.106   1.844 -0.2644  0.0156 -0.0206
15243W        W58181  20.100  22.190   0.346 -0.2122 -0.2402  0.1784
15244W        W58182  20.569  22.370  31.600  0.0894  0.1009 -0.1900
15245W        W58183  16.736  23.977   2.130 -0.1665  0.1408 -0.0559
15246W        W58184  19.913  21.808   1.383 -0.1040  0.1090  0.1277
15247W        W58185  17.601  21.857   4.119 -0.1936 -0.2520  0.1352
15248W        W58186  18.155  21.904   1.731 -0.0212 -0.1098 -0.2670
15249W        W58187  20.674  23.239   2.020  0.4358  0.2594  0.0237
15250W        W58188  17.583  21.292   0.148 -0.2700 -0.1192  0.1340
15251W        W58189  20.471  21.944   0.542 -0.3403  0.2647  0.3659
15252W        W58190  17.578  21.758   0.900  0.2638 -0.0506  0.1061
15253W        W58191  17.086  24.030   0.508  0.0098 -0.0656  0.1804
15254W        W58192  20.184  21.948   2.955  0.0290  0.0948  0.1936
15255W        W58193  20.195  24.854   1.682 -0.0506 -0.1826 -0.2840
15256W        W58194  20.830  24.974   1.877  0.0381  0.1919  0.0894
15257W        W58195  21.660  23.621   2.337 -0.1120 -0.0897  0.1659
15258W        W58196  17.717  22.469   2.384 -0.4018  0.1779  0.1568
15259W        W58197  18.045  22.864   0.175 -0.2620  0.2712  0.0548
15260W        W58198  17.327  25.670  31.806 -0.4807  0.4577 -0.0349
15261W        W58199  18.879  24.389   0.700  0.1177 -0.1169  0.0885
15262W        W58200  18.364  22.316  30.779 -0.0351  0.2575 -0.0175
15263W        W58201  21.893  24.271   1.475  0.1106  0.0619  0.1146
15264W        W58202  20.022  23.885   1.802  0.0062  0.1548  0.0933
15265W        W58203  17.721  24.510   2.929  0.0823 -0.0470 -0.1320
15266W        W58204  18.944  20.704   2.647 -0.1234 -0.1434  0.2529
15267W        W58205  20.882  22.531   2.525 -0.0575 -0.2012  0.1638
15268W        W58206  19.050  22.785   2.075  0.1608 -0.2257 -0.2212
15269W        W58207  17.362  23.093  31.677  0.0471  0.0701 -0.1898
15270W        W58208  20.983  22.869   1.606  0.2755  0.2876 -0.2068
15271W        W58209  17.467  25.296   0.092 -0.1132  0.1349 -0.1883
15272W        W58210  17.823  25.071   1.026  0.2430  0.3416  0.0404
15273W        W58211  19.810  24.135   0.814  0.0435 -0.2792  0.3206
15274W        W58212  20.445  22.053   1.757 -0.0336 -0.2009 -0.2807
15275W        W58213  19.381  24.159   4.381  0.0171 -0.0933 -0.0733
15276W        W58214  20.272  24.288   2.633  0.0172  0.0267  0.0249
15277W        W58215  18.337  22.310   0.162 -0.1863 -0.2074 -0.2012
15278W        W58216  18.449  24.079   2.799  0.3426  0.1523 -0.2839
15279W        W58217  21.009  22.151  29.593 -0.0559  0.0021  0.1875
15280W        W58218  21.990  22.512  30.668  0.1175  0.0769  0.1109
15281W        W58219  19.492  23.986   2.593 -0.2104 -0.2374  0.1898
15282W        W58220  19.348  23.794   0.726 -0.0903 -0.3288 -0.0332
15283W        W58221  19.517  21.824  31.660  0.2847  0.0245  0.1064
15284W        W58222  19.278  23.379   0.056  0.1481 -0.0466 -0.1975
15285W        W58223  18.531  23.990   3.291 -0.1117 -0.2306 -0.1352
15286W        W58224  19.432  23.343   0.532 -0.0377 -0.1149 -0.2736
15287W        W58225  19.479  24.024   1.617  0.0384 -0.2412  0.0137
15288W        W58226  19.305  22.666  30.891 -0.0658  0.0209  0.0662
15289W        W58227  21.733  23.100   0.298 -0.0503  0.1906  0.3454
15290W        W58228  17.983  24.382   0.766  0.2149 -0.1400 -0.2922
15291W        W58229  20.440  23.994   3.924 -0.0076 -0.1268 -0.2561
15292W        W58230  19.883  23.049   0.589 -0.1112 -0.2455  0.3591
15293W        W58231  19.311  21.660   2.533 -0.4690  0.0160 -0.3285
15294W        W58232  18.682  21.931  31.916 -0.0332 -0.1709 -0.0827
15295W        W58233  19.012  21.767  30.696 -0.0872  0.0421 -0.0608
15296W        W58234  18.613  24.853  31.619  0.0157  0.0507 -0.3273
15297W        W58235  19.954  22.696   2.045 -0.1609  0.2394  0.0095
15298W        W58236  19.532  22.022   0.560  0.2052 -0.2923  0.0184
15299W        W58237  19.831  21.620   2.755 -0.0105  0.0611 -0.2206
15300W        W58238  20.170  22.778   5.358  0.0133 -0.1729  0.0037
15301W        W58239  20.524  21.606   1.399  0.1789  0.2503 -0.2822
15302W        W58240  20.040  22.745   1.533 -0.1100 -0.1895 -0.3572
15303W        W58241  18.955  22.995   0.542 -0.1343 -0.1978  0.2661
15304W        W58242  17.936  22.118   2.731 -0.4480  0.1196  0.2747
15305W        W58243  19.646  23.503   2.705  0.1786 -0.1390  0.1545
15306W        W58244  19.143  24.971   1.718  0.1431  0.1010 -0.0512
15307W        W58245  19.338  25.087   2.772  0.0025 -0.4589  0.1222
15308W        W58246  19.805  23.150   1.471 -0.1497 -0.4354  0.2144
15309W        W58247  21.039  21.132   2.924 -0.2136  0.0737 -0.2028
15310W        W58248  19.980  23.119  31.155 -0.2794 -0.0970  0.1668
15311W        W58249  18.693  26.015   0.511 -0.0129 -0.1589  0.1032
15312W        W58250  18.832  23.526   0.495  0.0031  0.2679  0.0406
15313W        W58251  20.069  22.763   0.935  0.0416 -0.1734  0.0451
15314W        W58252  19.396  24.536   1.699  0.0211  0.3823 -0.0491
15315W        W58253  18.333  24.524   0.420  0.3024 -0.2137 -0.1424
15316W        W58254  19.678  23.643   2.221 -0.2600  0.2737 -0.0337
15317W        W58255  18.002  24.253   0.141 -0.0293 -0.2921  0.0094
15318W        W58256  21.272  23.035   3.000  0.0611 -0.1164  0.1774
15319W        W58257  17.794  25.437   1.864 -0.2473  0.1165  0.0514
15320W        W58258  18.176  22.003  31.183  0.0611 -0.0143 -0.0065
15321W        W58259  18.388  23.944  31.241 -0.1491  0.1102  0.0571
15322W        W58260  20.541  21.158   1.224 -0.0254 -0.2377  0.1443
15323W        W58261  20.367  24.240   0.841 -0.2958 -0.1857  0.2245
15324W        W58262  17.217  21.132   3.220  0.0917  0.1075 -0.1386
15325W        W58263  20.766  21.930   2.492 -0.2270  0.1165 -0.1624
15326W        W58264  17.453  24.232   1.607  0.1129 -0.1674 -0.1814
15327W        W58265  20.042  23.798   2.691 -0.5229  0.0857 -0.0246
15328W        W58266  20.008  22.282  31.251  0.1969  0.2221 -0.0423
15329W        W58267  20.720  24.283   1.358 -0.2193 -0.0280 -0.3740
15330W        W58268  18.123  24.326   1.866  0.0980  0.1725 -0.0537
15331W        W58269  17.729  21.111  31.638 -0.1178  0.2465 -0.0282
15332W        W58270  20.446  22.576   1.288 -0.1518 -0.3541  0.1557
15333W        W58271  18.652  21.641   0.811 -0.1656  0.2755  0.1468
15334W        W58272  18.297  25.022   2.569 -0.0858  0.0579 -0.0204
15335W        W58273  19.956  26.791   1.256 -0.1747 -0.0133 -0.2407
15336W        W58274  18.599  24.518   2.091  0.2455  0.0920  0.1125
15337W        W58275  17.866  24.052   1.088 -0.0498  0.1056 -0.3120
15338W        W58276  18.751  22.962   4.841 -0.0069 -0.0259 -0.0707
15339W        W58277  20.100  23.187   1.931  0.2553 -0.0444 -0.3012
15340W        W58278  18.575  21.725   1.904 -0.4764  0.1686  0.0636
15341W        W58279  18.481  22.622   0.561  0.2818 -0.1088  0.0980
15342W        W58280  20.377  23.514   1.669  0.0889 -0.0768  0.1956
15343W        W58281  21.413  22.879   1.196 -0.0835 -0.0730  0.0907
15344W        W58282  18.180  23.735   2.052  0.1839  0.0859 -0.1943
15345W        W58283  19.069  24.145   3.527  0.2435  0.1545 -0.3908
15346W        W58284  18.948  22.680   1.588  0.2029 -0.0643  0.0418
15347W        W58285  22.415  25.364   1.828  0.1206  0.1335  0.3049
15348W        W58286  18.831  24.358   3.080 -0.0376 -0.3932  0.0977
15349W        W58287  17.843  22.350  30.365  0.0100  0.0107  0.2947
15350W        W58288  18.155  22.618   2.494  0.3235  0.2236  0.1634
15351W        W58289  18.393  23.685   0.346  0.0195 -0.0968  0.2692
15352W        W58290  19.376  21.941   3.094  0.0484 -0.0687  0.1783
15353W        W58291  18.060  23.919   0.616 -0.3353 -0.2237  0.1596
15354W        W58292  19.320  23.675   1.230 -0.1553  0.0046 -0.1319
15355W        W58293  17.307  23.995   2.218  0.1093 -0.0276  0.1608
15356W        W58294  20.972  21.687   0.432 -0.0244 -0.0636  0.0889
15357W        W58295  19.347  23.827   0.243 -0.0226 -0.2330 -0.2199
15358W        W58296  19.625  22.289  31.635 -0.0896  0.0241 -0.3397
15359W        W58297  20.089  21.524   3.669 -0.0018 -0.0992 -0.3999
15360W        W58298  19.900  22.922  31.631 -0.0735 -0.4620  0.2490
15361W        W58299  19.204  22.102   3.523  0.0972  0.0473  0.0869
15362W        W58300  18.877  21.831   2.822  0.1291  0.4947  0.0566
15363W        W58301  20.299  23.587  31.829 -0.0054 -0.0671 -0.1298
15364W        W58302  18.631  22.733   2.949  0.0926  0.1166  0.3244
15365W        W58303  20.314  25.991   4.476  0.1044  0.1561  0.0763
15366W        W58304  18.697  22.566   4.022 -0.0621  0.1399  0.0865
15367W        W58305  18.231  22.600   0.999 -0.3085 -0.0551  0.1423
15368W        W58306  17.905  22.134   0.460 -0.3032  0.0685  0.1895
15369W        W58307  19.997  24.255   0.304 -0.2669  0.3813 -0.0753
15370W        W58308  21.625  22.719   2.192 -0.0715  0.0467  0.0331
15371W        W58309  19.519  22.933   1.929  0.0719  0.5384  0.1818
15372W        W58310  19.622  22.737   1.146 -0.0838 -0.0646 -0.3075
15373W        W58311  19.460  22.867   2.419  0.0615 -0.0079  0.1201
15374W        W58312  20.584  22.895   0.858 -0.2915  0.1898  0.0762
15375W        W58313  20.282  22.688  31.377  0.1299 -0.1710  0.3012
15376W        W58314  18.983  24.223   1.823  0.0058  0.0433 -0.4532
15377W        W58315  18.149  21.420   1.743 -0.0927  0.1500  0.1425
15378W        W58316  21.293  22.405   1.459  0.0018 -0.0287 -0.0049
15379W        W58317  19.175  21.989   0.166  0.0380  0.0616  0.1819
15380W        W58318  19.095  22.542   0.844  0.0599  0.2410 -0.0388
15381W        W58319  19.290  23.329   2.101  0.3491  0.0998 -0.1653
15382W        W58320  19.040  22.451   2.491  0.0288  0.0165 -0.1838
15383W        W58321  17.338  21.601   3.348  0.1457 -0.0981  0.2861
15384W        W58322  19.631  25.320   2.394 -0.2740  0.0466 -0.0422
15385W        W58323  21.074  24.191  31.355  0.3184  0.4032  0.2124
15386W        W58324  19.718  21.085   3.095  0.2239  0.0373 -0.1685
15387W        W58325  20.263  21.532   0.929 -0.1863  0.3113 -0.0545
15388W        W58326  21.470  22.032  31.604  0.2779 -0.1569 -0.2089
15389W        W58327  18.439  23.025   1.841  0.0564  0.1347 -0.2080
15390W        W58328  19.556  24.570   3.639  0.1757 -0.1842 -0.0870
15391W        W58329  17.960  20.991   0.074 -0.0295  0.2263  0.3049
15392W        W58330  19.895  22.249   1.755  0.1564 -0.1628 -0.1332
15393W        W58331  19.675  24.122   2.082  0.0589  0.0658  0.0223
15394W        W58332  19.315  24.170   1.056 -0.0321 -0.0572  0.2576
15395W        W58333  19.522  22.270   0.998  0.0840  0.0403 -0.0056
15396W        W58334  18.734  21.846   1.423  0.2171 -0.2061  0.0445
15397W        W58335  18.065  24.642   3.222  0.1497 -0.1808 -0.0283
15398W        W58336  17.157  21.319   0.670 -0.1652 -0.1488  0.2387
15399W        W58337  17.516  24.222   0.614  0.0818 -0.0744  0.2767
15400W        W58338  21.732  23.866   1.036 -0.0856  0.0636 -0.2786
15401W        W58339  20.048  22.869   4.018 -0.0063 -0.0171  0.1687
15402W        W58340  19.386  21.576  31.196 -0.1133 -0.0277 -0.0920
15403W        W58341  20.382  20.035   2.086 -0.3347  0.3406  0.0042
15404W        W58342  17.537  25.131   0.586  0.0398 -0.1631  0.0921
15405W        W58343  21.330  21.531   1.312 -0.1095 -0.0040  0.0475
15406W        W58344  18.897  24.810   3.999 -0.0510 -0.1465 -0.0650
15407W        W58345  18.758  23.668   2.968 -0.0920 -0.2152 -0.1711
15408W        W58346  19.022  23.643   1.682  0.1437 -0.2507 -0.2635
15409W        W58347  21.689  20.714   1.943 -0.1651  0.0868 -0.0954
15410W        W58348  18.198  23.336   1.297 -0.2113  0.0814  0.0829
15411W        W58349  18.524  23.514   1.726  0.0507 -0.3960 -0.2759
15412W        W58350  20.902  23.037   2.467 -0.0986 -0.0972 -0.2061
15413W        W58351  19.058  24.681   3.519 -0.1169 -0.1550  0.1036
15414W        W58352  18.063  21.843   0.846  0.2349 -0.0731 -0.0057
15415W        W58353  20.279  23.988   2.211  0.2431  0.0693  0.2183
15416W        W58354  21.318  23.727   0.746  0.0316  0.4889  0.0415
15417W        W58355  17.541  23.151   0.541  0.1621  0.0940  0.0606
15418W        W58356  18.077  23.111   2.782 -0.1416  0.0847 -0.0575
15419W        W58357  18.398  23.011   2.375  0.1765  0.0725  0.0329
15420W        W58358  18.365  23.822   1.227  0.1460  0.2245 -0.3735
15421W        W58359  18.920  19.573   0.168 -0.1508  0.1573  0.2095
15422W        W58360  19.716  23.728  30.967  0.1220 -0.0096  0.0088
15423W        W58361  19.096  25.280   4.085  0.2650  0.0386 -0.1261
15424W        W58362  17.413  24.239   1.117  0.2056  0.3561 -0.0428
15425W        W58363  18.106  24.390  30.682  0.1960 -0.2542 -0.2968
15426W        W58364  20.629  24.217  31.539 -0.0642  0.3369  0.1906
15427W        W58365  19.775  22.543   0.593  0.1093  0.0994  0.1166
15428W        W58366  18.729  25.238   2.790 -0.0694  0.2304  0.0811
15429W        W58367  20.123  22.215  31.840 -0.3957  0.2127  0.0854
15430W        W58368  18.724  25.341   2.312 -0.1263 -0.0389  0.0408
15431W        W58369  16.632  22.653  31.594  0.2721  0.1266 -0.3953
15432W        W58370  19.847  25.527   0.262  0.1426  0.3498  0.4667
15433W        W58371  18.904  25.614   0.002 -0.1662 -0.4986 -0.3225
15434W        W58372  20.433  25.102   2.686 -0.2366 -0.2550 -0.1630
15435W        W58373  21.429  22.622   0.236 -0.1596 -0.1068  0.1842
15436W        W58374  20.207  21.764   2.479 -0.0116 -0.1406 -0.0706
15437W        W58375  20.574  22.265   0.118 -0.0086  0.2401  0.1639
15438W        W58376  19.354  25.081   3.360 -0.1768 -0.1607  0.2158
15439W        W58377  18.692  24.192   1.279  0.0697  0.0405 -0.3131
15440W        W58378  18.493  21.221   0.239  0.3078 -0.2340 -0.0045
15441W        W58379  18.852  21.468   2.251 -0.0734 -0.1954  0.1332
15442W        W58380  21.788  22.216   4.058  0.0810 -0.0236  0.2410
15443W        W58381  18.049  23.880   2.558  0.1287  0.1872 -0.1001
15444W        W58382  20.076  24.435   2.141  0.1166  0.0931 -0.1419
15445W        W58383  17.494  21.034   0.985 -0.2954 -0.0131 -0.0827
15446W        W58384  18.863  22.440   0.217  0.0333 -0.2575 -0.3485
15447W        W58385  22.404  21.325   1.500  0.1142 -0.0403  0.0516
15448W        W58386  19.105  24.753  31.606  0.0294  0.0773 -0.1641
15449W        W58387  20.376  22.010   1.216  0.2550  0.2372  0.2732
15450W        W58388  18.864  24.838   0.990 -0.0768 -0.0217  0.4334
15451W        W58389  17.119  25.008   3.847  0.0002  0.0219 -0.0927
15452W        W58390  18.887  25.389   1.808 -0.0687  0.0150  0.1832
15453W        W58391  16.773  21.213  31.787  0.1214 -0.0897  0.1393
15454W        W58392  21.739  21.436   0.865  0.0971  0.0020  0.0435
15455W        W58393  19.684  22.451   3.046  0.0082  0.1759  0.1879
15456W        W58394  22.395  20.833   2.470 -0.2492 -0.0760 -0.2881
15457W        W58395  19.181  21.111   0.321  0.2227 -0.4287  0.1718
15458W        W58396  19.730  22.439  30.644  0.2971 -0.1573 -0.0358
15459W        W58397  17.763  24.134   2.174  0.0884 -0.1767 -0.2776
15460W        W58398  17.648  22.944   2.482  0.1454  0.1369 -0.1803
15461W        W58399  19.995  22.325   1.243  0.0819  0.2798  0.5905
15462W        W58400  20.274  23.924   4.387  0.2032 -0.1651  0.1135
15463W        W58401  20.826  23.003   0.451 -0.5006  0.1411 -0.0006
15464W        W58402  21.458  22.839   1.742  0.1585 -0.1186 -0.0511
15465W        W58403  18.320  21.307   0.664  0.1317 -0.3685 -0.1772
15466W        W58404  19.601  23.216   1.000 -0.0438  0.0126 -0.1602
15467W        W58405  16.791  23.144   1.448  0.2501  0.0246  0.0964
15468W        W58406  18.853  23.158   1.644  0.2116 -0.0547 -0.3791
15469W        W58407  20.565  24.538   3.342  0.2533 -0.0000  0.0967
15470W        W58408  17.310  21.452   1.205 -0.0186  0.1915 -0.0588
15471W        W58409  20.690  24.894  30.969 -0.1577 -0.2064  0.0147
15472W        W58410  19.756  22.956   2.897  0.2315 -0.1791 -0.1627
15473W        W58411  18.863  24.016   0.393 -0.0493  0.0525  0.2300
15474W        W58412  22.290  24.492   1.209  0.2477  0.1982 -0.1974
15475W        W58413  21.068  24.518   1.714  0.0321  0.1034 -0.1430
15476W        W58414  17.779  21.767   1.307  0.0239  0.2574 -0.2982
15477W        W58415  20.669  23.780   1.980 -0.0490 -0.0673  0.0871
15478W        W58416  21.017  22.324   3.027 -0.5220 -0.0080 -0.0041
15479W        W58417  18.898  21.532  31.280 -0.1747 -0.2245 -0.0395
15480W        W58418  19.232  23.228   2.822  0.0355  0.1400  0.0632
15481W        W58419  18.080  24.952   0.637 -0.1612  0.0870  0.0092
15482W        W58420  21.422  20.764   2.371 -0.0019 -0.0927  0.0181
15483W        W58421  19.452  23.265   3.287 -0.2411  0.0552 -0.1908
15484W        W58422  19.135  25.245   0.817  0.2084 -0.0409 -0.0294
15485W        W58423  20.404  22.854   2.416 -0.2670  0.1845 -0.0036
15486W        W58424  20.343  23.738   0.288 -0.2967 -0.2368 -0.0476
15487W        W58425  18.276  25.063   3.097 -0.3984 -0.2548 -0.0392
15488W        W58426  17.342  23.636   0.046 -0.4647  0.1758  0.2733
15489W        W58427  18.451  22.808   4.443 -0.0140 -0.1597  0.4114
15490W        W58428  19.326  23.230   1.486  0.1439 -0.1584 -0.0958
15491W        W58429  19.644  25.057   0.800  0.0780  0.0394  0.0167
15492W        W58430  20.902  23.870   1.535 -0.0300 -0.3007  0.1911
15493W        W58431  19.408  22.835   0.692 -0.1992  0.0493 -0.1530
15494W        W58432  20.708  24.310   2.901  0.0442  0.1302  0.0728
15495W        W58433  18.587  21.349   2.662 -0.3833 -0.1179 -0.1182
15496W        W58434  19.995  21.971   0.799  0.4010  0.1088 -0.0192
15497W        W58435  20.392  21.872  31.494 -0.1122 -0.0324 -0.0767
15498W        W58436  18.529  22.799   0.045  0.0557  0.0520 -0.0758
15499W        W58437  16.986  22.184   0.221  0.0500 -0.0003  0.0185
15500W        W58438  18.654  24.325  31.387  0.2215 -0.1499 -0.0196
15501W        W58439  17.562  23.781   1.368 -0.4891  0.0724  0.1441
15502W        W58440  19.875  21.419   2.285  0.1036  0.1070  0.1815
15503W        W58441  17.751  22.069   3.284  0.2714  0.0169 -0.4040
15504W        W58442  18.044  23.343   2.373  0.2985 -0.0863 -0.1523
15505W        W58443  16.427  21.096   1.326  0.1610  0.0523 -0.3437
15506W        W58444  21.304  24.217   0.870 -0.1653  0.0453  0.2098
15507W        W58445  19.170  19.901   0.601  0.1505 -0.3024  0.1909
15508W        W58446  18.792  20.401  31.969  0.1356 -0.1303  0.0602
15509W        W58447  20.323  23.255   1.134 -0.0769  0.2127  0.0867
15510W        W58448  20.723  24.081   0.478 -0.0501 -0.0553  0.1451
15511W        W58449  18.789  22.213   1.846  0.1460  0.4661 -0.1968
15512W        W58450  21.186  24.576   4.078  0.1133  0.0328 -0.2253
15513W        W58451  19.382  25.278   0.393 -0.0720  0.0349  0.2177
15514W        W58452  19.352  22.545   3.979  0.1799  0.0896 -0.1445
15515W        W58453  18.681  21.425   3.917  0.1941  0.1371  0.2749
15516W        W58454  17.941  22.519  31.143 -0.1726  0.0001 -0.0678
15517W        W58455  18.538  22.944   1.318 -0.1703  0.1304 -0.2269
15518W        W58456  19.247  24.248  31.440  0.3159  0.0172  0.0013
15519W        W58457  21.461  25.092  30.702  0.0214  0.0275  0.1167
15520W        W58458  18.510  24.041   1.758 -0.0278  0.0746  0.3221
15521W        W58459  19.898  24.356   1.689 -0.0059  0.1941  0.0619
15522W        W58460  17.923  21.024   2.545 -0.2428  0.2635  0.0093
15523W        W58461  20.658  23.347  31.082  0.0943  0.1215  0.0519
15524W        W58462  18.745  23.850   2.167  0.1105  0.0554  0.2603
15525W        W58463  20.783  23.639  31.534 -0.2763 -0.2671 -0.1438
15526W        W58464  21.032  20.712   0.816 -0.3176 -0.2658  0.1075
15527W        W58465  18.464  24.090   0.774 -0.1665  0.1154  0.0497
15528W        W58466  18.740  20.820   3.148  0.2175 -0.1994  0.1006
15529W        W58467  18.672  24.410   3.694 -0.0676  0.0176  0.0191
15530W        W58468  20.395  24.120   1.665 -0.1266  0.2602 -0.0277
15531W        W58469  19.081  22.919   1.182 -0.2855  0.0074  0.1308
15532W        W58470  19.282  22.273  30.165 -0.0053 -0.1289  0.0447
15533W        W58471  20.051  23.244   0.112 -0.0168  0.0361 -0.1416
15534W        W58472  19.414  21.227   2.162 -0.2974 -0.1016 -0.7249
15535W        W58473  19.242  22.507  31.871  0.2884 -0.0496  0.3260
15536W        W58474  18.619  23.089   0.873  0.0423 -0.2635  0.0358
15537W        W58475  19.435  25.979   1.458 -0.1010  0.1300  0.0676
15538W        W58476  20.601  24.482   2.035 -0.0841 -0.0760 -0.3166
15539W        W58477  18.461  24.573   0.972  0.2342  0.1267 -0.2495
15540W        W58478  22.214  24.078   0.846 -0.0575 -0.2671 -0.0416
15541W        W58479  20.495  23.700   1.250 -0.0712  0.0666 -0.1858
15542W        W58480  20.558  24.075   3.441  0.2021  0.0003 -0.1528
15543W        W58481  20.131  25.091   0.909  0.2807 -0.0822  0.0542
15544W        W58482  21.675  24.033   1.847 -0.0529  0.0341  0.2279
15545W        W58483  17.889  22.665   0.607 -0.0837  0.0353  0.3341
15546W        W58484  18.186  23.369   0.013 -0.2309  0.1200 -0.0367
15547W        W58485  18.222  21.917  31.732  0.0052 -0.3234  0.2207
15548W        W58486  19.840  22.174   2.275  0.0255  0.3161 -0.1768
15549W        W58487  17.737  21.778   3.673  0.0371 -0.1331 -0.1119
15550W        W58488  19.679  21.566   0.884 -0.1688 -0.1765 -0.0592
15551W        W58489  19.277  26.363   4.114 -0.0200 -0.0382  0.1259
15552W        W58490  20.976  22.727   2.052  0.1798 -0.0027 -0.3485
15553W        W58491  18.558  22.401   7.689  0.4587 -0.3514 -0.0166
15554W        W58492  19.897  23.037   4.630  0.3305  0.1652 -0.2640
15555W        W58493  21.236  22.262   4.058 -0.3123  0.1583 -0.0261
15556W        W58494  20.814  22.311   3.709  0.4429  0.2138  0.0543
15557W        W58495  19.965  21.471   5.571  0.2103  0.0170  0.0546
15558W        W58496  19.930  24.805   3.864  0.0476  0.1602 -0.2831
15559W        W58497  19.128  21.384   6.500 -0.0596 -0.0522  0.2333
15560W        W58498  20.624  23.176   5.016 -0.1126  0.2470  0.0705
15561W        W58499  21.915  24.942   6.568  0.1214  0.1505  0.1558
15562W        W58500  20.424  25.069   3.386  0.0042  0.0422 -0.1325
15563W        W58501  20.708  22.068   5.681  0.0697 -0.0667  0.0566
15564W        W58502  19.246  24.648   5.734 -0.0469 -0.0576  0.1473
15565W        W58503  19.431  22.069   5.848  0.1419  0.0141 -0.2101
15566W        W58504  17.999  20.654   3.728  0.2211  0.2373 -0.0303
15567W        W58505  20.534  23.366   5.665 -0.1554 -0.2897 -0.0849
15568W        W58506  18.513  23.564   5.035  0.0844  0.1064 -0.0888
15569W        W58507  19.343  22.209   6.728 -0.0005  0.0835  0.1141
15570W        W58508  19.728  23.930   3.060  0.3763 -0.0228 -0.0021
15571W        W58509  20.393  24.143   5.241 -0.2577 -0.1458 -0.1844
15572W        W58510  18.516  22.207   6.749 -0.2887 -0.4009  0.3440
15573W        W58511  19.965  21.684   8.041 -0.0766 -0.0730  0.1386
15574W        W58512  20.973  25.837   3.945 -0.2818 -0.1839 -0.0720
15575W        W58513  18.406  23.368   3.424 -0.0131  0.1986 -0.1225
15576W        W58514  18.265  22.606   4.894  0.1803  0.2804 -0.0226
15577W        W58515  20.063  22.018   6.562 -0.1313  0.3293  0.1768
15578W        W58516  20.325  20.794   5.216 -0.0136  0.3190 -0.0722
15579W        W58517  19.844  21.915   5.391 -0.2077 -0.0934  0.1916
15580W        W58518  19.676  23.568   5.260  0.2294  0.0400  0.1164
15581W        W58519  20.161  24.443   5.603  0.0999 -0.2252  0.1268
15582W        W58520  20.578  24.500   7.697 -0.2370  0.0203  0.1896
15583W        W58521  17.842  22.382   5.601  0.2009 -0.1694  0.3265
15584W        W58522  17.605  22.813   5.890  0.1302  0.1781 -0.1111
15585W        W58523  18.992  23.618   4.844 -0.2057  0.1843 -0.0401
15586W        W58524  21.674  22.544   5.873  0.0499 -0.1067  0.1442
15587W        W58525  21.457  25.188   6.793 -0.2074 -0.1023 -0.4022
15588W        W58526  19.542  24.805   6.714 -0.1746  0.0972  0.0444
15589W        W58527  18.067  23.130   4.246 -0.2387 -0.3501 -0.1613
15590W        W58528  20.594  25.155   6.550  0.3667 -0.1412 -0.1653
15591W        W58529  20.710  24.221   6.833 -0.1768  0.1770  0.1813
15592W        W58530  19.448  22.745   6.808  0.0348 -0.1893  0.1508
15593W        W58531  20.155  23.146   6.298 -0.3381  0.1416 -0.0777
15594W        W58532  18.624  25.145   4.887 -0.0025 -0.0616 -0.1477
15595W        W58533  19.173  23.311   6.186  0.2130 -0.0055  0.0540
15596W        W58534  19.270  23.486   7.204  0.2658 -0.1285  0.3566
15597W        W58535  18.825  23.811   5.341  0.2838  0.0680 -0.0453
15598W        W58536  20.958  22.516   6.099 -0.2500 -0.0938  0.1752
15599W        W58537  18.472  23.212   3.978  0.1499 -0.0519 -0.0902
15600W        W58538  21.551  22.378   3.098  0.0278 -0.0516 -0.0096
15601W        W58539  18.165  22.960   3.238  0.0151 -0.0311 -0.0769
15602W        W58540  19.612  21.631   3.833  0.0188  0.0085 -0.1202
15603W        W58541  20.999  21.303   6.734 -0.2210 -0.0570  0.1380
15604W        W58542  18.469  23.516   5.582  0.0085 -0.4271 -0.0679
15605W        W58543  20.627  22.537   5.434 -0.1986  0.1874  0.1789
15606W        W58544  21.106  22.797   7.268 -0.2786  0.2978  0.0495
15607W        W58545  19.512  23.144   5.590 -0.0927 -0.1429  0.0179
15608W        W58546  20.890  21.764   6.607  0.2362  0.1686 -0.0936
15609W        W58547  18.619  24.013   4.808 -0.0513 -0.1691  0.0747
15610W        W58548  18.594  22.629   5.904  0.1500 -0.2216 -0.1129
15611W        W58549  20.511  25.760   2.530 -0.1702  0.2598 -0.0368
15612W        W58550  20.754  24.135   5.587 -0.3582 -0.0956 -0.0311
15613W        W58551  19.927  24.012   3.915  0.1297 -0.2643  0.0154
15614W        W58552  18.731  22.450   5.050  0.4109 -0.0783 -0.1169
15615W        W58553  17.344  23.153   7.392 -0.2408  0.1120 -0.3181
15616W        W58554  17.809  22.257   6.066  0.0401  0.0705 -0.2414
15617W        W58555  18.367  21.822   2.938  0.0022 -0.1224 -0.1905
15618W        W58556  20.604  22.902   7.085  0.1118 -0.0226 -0.0278
15619W        W58557  18.454  24.879   6.148  0.0161  0.2187 -0.0527
15620W        W58558  22.521  21.288   5.079 -0.1053  0.1755  0.0847
15621W        W58559  19.499  23.680   6.402  0.0763 -0.0842  0.1182
15622W        W58560  20.989  24.939   7.770 -0.3717  0.0457 -0.1523
15623W        W58561  19.931  23.474   3.149 -0.4484 -0.1234 -0.1344
15624W        W58562  20.386  21.364   4.463 -0.1874  0.1482  0.2842
15625W        W58563  19.109  21.308   5.200 -0.1796 -0.0722  0.0203
15626W        W58564  19.547  23.724   3.493 -0.2651  0.1156 -0.0284
15627W        W58565  19.532  22.714   4.834 -0.1957  0.0828 -0.2135
15628W        W58566  21.651  23.438   7.683 -0.3374 -0.2455  0.2974
15629W        W58567  20.234  23.171   2.834 -0.0328  0.2412  0.1149
15630W        W58568  18.708  25.292   6.325 -0.1585 -0.0361 -0.2969
15631W        W58569  18.974  22.690   6.751 -0.0673 -0.1826 -0.0246
15632W        W58570  18.784  23.559   6.950  0.3237 -0.2738  0.0312
15633W        W58571  17.978  24.015   4.493 -0.1062  0.0152  0.1850
15634W        W58572  17.280  22.891   6.348 -0.2916  0.0912  0.0152
15635W        W58573  19.250  24.570   4.623 -0.0765 -0.0071  0.3737
15636W        W58574  18.533  20.189   5.922  0.0552 -0.1481 -0.1795
15637W        W58575  18.943  23.718   6.315 -0.3288 -0.4390 -0.2099
15638W        W58576  20.379  22.116   3.412  0.0535 -0.1587  0.2441
15639W        W58577  18.718  20.558   6.424 -0.1259  0.0233 -0.0397
15640W        W58578  21.225  22.173   5.856  0.2537 -0.0184 -0.0060
15641W        W58579  18.387  22.665   5.436 -0.4092 -0.1258  0.0958
15642W        W58580  21.237  24.027   5.520 -0.0045  0.2354 -0.1237
15643W        W58581  20.843  24.025   4.199  0.2389  0.3569 -0.1568
15644W        W58582  20.564  24.541   4.280  0.0951 -0.1841 -0.1513
15645W        W58583  18.848  23.223   5.307  0.2332  0.2188 -0.0066
15646W        W58584  18.168  21.882   4.442 -0.0223  0.0888 -0.1573
15647W        W58585  17.986  21.817   6.459 -0.0107  0.1779 -0.0802
15648W        W58586  17.241  20.990   5.312  0.1405  0.1944  0.0220
15649W        W58587  20.247  23.949   7.826 -0.2246 -0.1002  0.0324
15650W        W58588  17.251  21.179   2.464 -0.3296 -0.0495  0.3045
15651W        W58589  20.309  22.128   5.069  0.0512  0.3151 -0.1881
15652W        W58590  19.669  24.210   4.858  0.1453 -0.1017  0.1053
15653W        W58591  17.591  23.255   6.504 -0.1541 -0.2095  0.0202
15654W        W58592  20.983  22.278   6.604  0.3500  0.1013 -0.0213
15655W        W58593  19.683  25.746   4.203  0.1450 -0.2115 -0.1560
15656W        W58594  21.768  24.247   7.237 -0.0217  0.1750 -0.1146
15657W        W58595  20.756  25.011   5.822 -0.1784  0.2585  0.1553
15658W        W58596  18.349  22.214   6.246  0.0590 -0.1299 -0.4699
15659W        W58597  18.523  20.947   4.381  0.0043  0.2378  0.0806
15660W        W58598  17.477  23.785   6.706 -0.0696 -0.0110 -0.0001
15661W        W58599  19.849  25.452   5.509  0.2102 -0.4863  0.1766
15662W        W58600  19.728  23.007   5.122 -0.1227 -0.2891 -0.0380
15663W        W58601  20.110  25.071   5.705 -0.1792 -0.0631 -0.4063
15664W        W58602  20.221  24.962   4.288  0.0800 -0.0831  0.4195
15665W        W58603  19.839  22.463   5.238  0.2538  0.1007  0.2518
15666W        W58604  20.316  21.714   6.282 -0.2074 -0.2276 -0.1286
15667W        W58605  21.510  20.792   6.170 -0.2086  0.0678  0.1729
15668W        W58606  21.296  21.911   5.424  0.0479  0.1359 -0.2375
15669W        W58607  18.944  21.470   4.401  0.0658 -0.2079  0.1599
15670W        W58608  20.465  24.772   4.801  0.0045  0.4453  0.3831
15671W        W58609  17.223  23.487   4.442  0.0915 -0.2083  0.0722
15672W        W58610  17.468  23.232   3.577  0.2060 -0.0470 -0.2800
15673W        W58611  19.213  24.506   5.282 -0.2615 -0.1124  0.0643
15674W        W58612  21.149  21.472   5.129 -0.1419  0.1899  0.0308
15675W        W58613  17.039  21.558   6.087 -0.0630 -0.1162  0.0624
15676W        W58614  19.360  22.732   7.751  0.2306  0.0829 -0.1645
15677W        W58615  18.804  23.296   4.483  0.1386  0.0173 -0.1894
15678W        W58616  18.156  23.303   6.989  0.2469 -0.1253 -0.0443
15679W        W58617  20.264  20.497   3.365 -0.0423  0.1165 -0.0540
15680W        W58618  21.012  21.005   3.757 -0.0442  0.3722 -0.1122
15681W        W58619  19.185  23.918   6.735  0.0030  0.0453 -0.0504
15682W        W58620  20.799  24.348   3.819 -0.3320  0.0081 -0.1928
15683W        W58621  19.181  21.500   3.539  0.2146  0.1015 -0.2700
15684W        W58622  19.528  22.182   2.629  0.0615  0.1128 -0.4129
15685W        W58623  18.166  22.758   6.150  0.1263 -0.1077 -0.0798
15686W        W58624  21.141  23.555   6.362 -0.2423 -0.2228  0.1985
15687W        W58625  20.014  23.322   5.498  0.0154 -0.1390  0.0478
15688W        W58626  19.467  21.633   4.318 -0.0781  0.0521 -0.0875
15689W        W58627  19.708  25.220   3.993  0.0382 -0.0773 -0.1018
15690W        W58628  17.897  23.233   6.061 -0.1629  0.2343 -0.0184
15691W        W58629  20.112  23.606   6.122 -0.3410  0.0603  0.1096
15692W        W58630  20.331  23.726   5.415 -0.1237  0.2272 -0.0930
15693W        W58631  20.430  21.109   6.069  0.1146  0.0754 -0.1636
15694W        W58632  19.902  22.680   2.535  0.1430  0.0441  0.3873
15695W        W58633  20.884  20.861   5.055  0.1954  0.0454  0.1786
15696W        W58634  18.663  25.726   4.190 -0.0758 -0.1156  0.0532
15697W        W58635  21.257  22.334   7.189 -0.3592 -0.2227  0.0916
15698W        W58636  20.522  21.513   5.828 -0.1983  0.2823  0.0312
15699W        W58637  20.498  20.581   7.234  0.0744 -0.0044  0.0180
15700W        W58638  20.268  22.640   7.456 -0.1011 -0.3995 -0.2226
15701W        W58639  20.813  22.528   4.215  0.2968  0.1403  0.2179
15702W        W58640  20.822  21.822   5.260 -0.4667 -0.1180 -0.0546
15703W        W58641  18.915  22.645   4.505  0.0493 -0.2536  0.5435
15704W        W58642  19.669  22.136   6.325 -0.0823 -0.1331 -0.1011
15705W        W58643  18.163  23.124   6.466 -0.1051 -0.4037 -0.0054
15706W        W58644  19.125  24.126   6.162  0.2209  0.2215  0.1085
15707W        W58645  19.598  24.439   6.214  0.0804  0.0115 -0.1427
15708W        W58646  20.358  22.539   3.774 -0.1771 -0.1879 -0.3009
15709W        W58647  19.993  22.092   7.713 -0.4050 -0.1955 -0.2596
15710W        W58648  19.426  22.061   4.015 -0.0186  0.3197 -0.1247
15711W        W58649  18.554  25.233   4.055 -0.1766  0.0821 -0.0757
15712W        W58650  19.961  24.238   3.426  0.0041  0.0039 -0.3930
15713W        W58651  19.205  20.849   6.472 -0.0004 -0.1180  0.2960
15714W        W58652  19.914  25.810   4.735 -0.0873 -0.4446 -0.0585
15715W        W58653  17.147  24.221   2.911 -0.0134  0.0764  0.0124
15716W        W58654  19.555  24.217   5.760 -0.3701  0.0120 -0.3848
15717W        W58655  18.779  24.960   4.438  0.2001  0.0891 -0.2571
15718W        W58656  21.793  20.656   6.586  0.2482 -0.2067  0.0694
15719W        W58657  18.300  23.923   5.302 -0.1751  0.2619 -0.1147
15720W        W58658  19.318  22.825   3.203  0.0747  0.0121  0.0633
15721W        W58659  18.913  23.146   3.208  0.0349  0.0078  0.0600
15722W        W58660  19.779  21.077   4.320 -0.1319  0.0448 -0.1981
15723W        W58661  21.468  23.902   4.202  0.2534 -0.0057 -0.1310
15724W        W58662  18.269  21.243   6.376  0.2159 -0.1949  0.1693
15725W        W58663  19.509  21.696   6.621  0.0198  0.0859 -0.1635
15726W        W58664  18.485  23.720   6.115  0.2748 -0.2476  0.0123
15727W        W58665  20.491  22.510   6.653 -0.0283  0.2823  0.2735
15728W        W58666  20.003  22.029   3.796 -0.0707  0.0792 -0.2445
15729W        W58667  20.938  22.771   6.554  0.0075 -0.2483 -0.3115
15730W        W58668  19.325  22.545   7.246  0.0678  0.1018  0.0693
15731W        W58669  17.389  22.258   3.594  0.0545 -0.1100 -0.0872
15732W        W58670  21.449  21.908   7.121 -0.0402 -0.1164 -0.1410
15733W        W58671  19.855  22.405   4.054  0.0791  0.0891  0.1020
15734W        W58672  17.900  22.853   5.138  0.0662 -0.1680 -0.2486
15735W        W58673  19.241  25.010   4.865 -0.0137 -0.2937  0.0272
15736W        W58674  19.324  24.405   3.156  0.0828 -0.0679  0.1124
15737W        W58675  18.294  23.625   4.400  0.3259  0.3408 -0.1244
15738W        W58676  19.720  22.184   7.084 -0.0034 -0.0697  0.0477
15739W        W58677  20.779  23.037   6.146 -0.1660 -0.0269 -0.1059
15740W        W58678  19.870  22.856   5.865  0.0190 -0.1065 -0.0144
15741W        W58679  19.307  21.432   4.751  0.0373  0.0723  0.1065
15742W        W58680  20.956  23.001   5.597 -0.0826  0.0773 -0.3667
15743W        W58681  21.151  23.705   6.852 -0.0609 -0.0321  0.2044
15744W        W58682  19.354  23.309   6.748 -0.0485  0.1948 -0.0065
15745W        W58683  18.185  23.993   6.423  0.2777  0.1956 -0.0081
15746W        W58684  19.472  20.490   6.203  0.1407 -0.1561  0.1351
15747W        W58685  20.951  24.638   5.556 -0.0001  0.1199  0.1491
15748W        W58686  20.675  23.718   6.866  0.0363  0.1775  0.1677
15749W        W58687  19.055  23.850   3.899  0.0161 -0.1310  0.1465
15750W        W58688  18.097  24.507   6.466  0.2052 -0.1184  0.2798
15751W        W58689  18.969  22.989   5.715  0.0265  0.1248  0.3961
15752W        W58690  20.108  20.468   6.942  0.0630  0.1029 -0.1036
15753W        W58691  19.139  24.144   4.864  0.1553 -0.0699  0.0024
15754W        W58692  18.353  25.153   3.620  0.1898 -0.2352 -0.0741
15755W        W58693  18.193  24.283   6.983 -0.0739  0.0490  0.0109
15756W        W58694  20.603  21.137   3.216  0.0389 -0.0082  0.0781
15757W        W58695  20.745  24.878   3.745  0.0968 -0.2098  0.1913
15758W        W58696  19.971  21.904   5.944  0.1791 -0.0854 -0.0010
15759W        W58697  22.250  21.399   6.419  0.2439 -0.0005  0.1727
15760W        W58698  20.175  23.538   4.086  0.1970 -0.0796  0.0043
15761W        W58699  20.423  23.222   7.623 -0.1663 -0.1522 -0.2174
15762W        W58700  18.242  21.723   5.431 -0.2385  0.0747  0.0009
15763W        W58701  20.035  23.797   4.954 -0.1159 -0.0688 -0.0672
15764W        W58702  18.833  22.341   6.375 -0.0620 -0.0425 -0.0334
15765W        W58703  20.724  23.929   8.093  0.0692  0.1972  0.0466
15766W        W58704  18.091  22.808   6.867  0.1229 -0.0693 -0.1206
15767W        W58705  20.246  20.855   3.036  0.1736 -0.3672 -0.1120
15768W        W58706  19.399  20.036   3.713  0.2538 -0.0259 -0.0571
15769W        W58707  19.692  23.341   4.309 -0.1116 -0.0806 -0.2166
15770W        W58708  20.550  23.699   5.000 -0.0191  0.1402  0.0001
15771W        W58709  19.443  23.222   3.819  0.1529 -0.1952 -0.1969
15772W        W58710  21.228  22.529   5.561  0.4075  0.1115  0.0265
15773W        W58711  17.764  23.146   5.565 -0.2723  0.1191 -0.1727
15774W        W58712  19.850  22.018   4.424  0.1411  0.0481 -0.2436
15775W        W58713  20.334  22.603   4.956 -0.1976  0.0013  0.1621
15776W        W58714  19.362  23.739   5.925  0.2137 -0.1577  0.1183
15777W        W58715  19.610  21.216   6.382 -0.0348  0.2019 -0.1062
15778W        W58716  19.739  23.282   6.076  0.0229 -0.1863 -0.1707
15779W        W58717  20.400  21.745   3.990  0.0018 -0.1553 -0.0047
15780W        W58718  20.942  21.873   7.091  0.3934  0.0496  0.2307
15781W        W58719  19.974  21.482   6.542 -0.0035 -0.2161 -0.0560
15782W        W58720  19.711  22.253   8.546 -0.0769  0.2231  0.0738
15783W        W58721  19.406  21.050   6.895 -0.2325  0.0419  0.4279
15784W        W58722  21.409  25.839   5.943 -0.1847  0.1496  0.0157
15785W        W58723  21.173  25.087   3.850  0.0431 -0.1677 -0.1272
15786W        W58724  21.134  21.940   7.579 -0.0066  0.4521 -0.2775
15787W        W58725  20.312  21.859   4.503  0.1697  0.1073  0.0880
15788W        W58726  19.604  22.404   3.566  0.0188  0.0681 -0.2232
15789W        W58727  18.464  21.478   4.632  0.0932  0.0177 -0.2567
15790W        W58728  20.628  23.689   7.640 -0.1231  0.2147 -0.2964
15791W        W58729  19.242  22.064   5.377 -0.1580 -0.1075 -0.4698
15792W        W58730  20.118  23.135   7.264  0.2060  0.3863 -0.2298
15793W        W58731  19.180  24.362   3.998  0.0619  0.0704 -0.0611
15794W        W58732  20.132  23.276   5.020  0.1961  0.1754  0.0372
15795W        W58733  19.611  21.188   5.235 -0.0166 -0.0252  0.0394
15796W        W58734  17.809  22.424   3.971 -0.0605 -0.0205 -0.2664
15797W        W58735  17.482  24.682   6.091 -0.0430 -0.0429  0.3823
15798W        W58736  18.253  22.237   2.142 -0.0473 -0.1439 -0.0861
15799W        W58737  20.088  24.400   4.536 -0.0290 -0.3243  0.0526
15800W        W58738  19.868  24.871   6.181 -0.0473 -0.0109 -0.0465
15801W        W58739  21.272  22.993   8.490  0.3630 -0.0767 -0.0849
15802W        W58740  18.836  21.330   3.072 -0.2857  0.3226 -0.1399
15803W        W58741  20.882  21.955   6.151  0.3086  0.1592  0.1113
15804W        W58742  18.554  23.229   2.872  0.0416 -0.2602  0.2634
15805W        W58743  19.925  21.593   4.202 -0.0271 -0.0023  0.0800
15806W        W58744  18.383  24.999   5.678  0.1928  0.0054  0.0150
15807W        W58745  18.295  23.093   5.723 -0.1146  0.1132 -0.2922
15808W        W58746  18.966  25.952   5.351 -0.2054  0.0095 -0.1097
15809W        W58747  19.363  20.770   5.482  0.0890 -0.2894 -0.0726
15810W        W58748  21.149  22.976   5.106 -0.0232 -0.1016  0.3955
15811W        W58749  19.967  22.932   6.799 -0.1597  0.1948 -0.1333
15812W        W58750  20.536  22.994   6.601  0.2677 -0.1495 -0.2028
15813W        W58751  19.794  23.992   6.166 -0.0382 -0.2686 -0.1282
15814W        W58752  19.738  24.690   5.673  0.1761 -0.2600  0.1141
15815W        W58753  20.333  23.995   6.402  0.2555  0.1018  0.2103
15816W        W58754  21.652  22.992   4.598  0.3049  0.3572 -0.1828
15817W        W58755  18.530  22.738   6.529 -0.1705  0.1774  0.0464
15818W        W58756  18.234  21.757   6.002  0.0241  0.1417  0.4046
15819W        W58757  19.523  23.066   7.322  0.0260 -0.0479 -0.0681
15820W        W58758  19.820  22.451   6.663 -0.0619 -0.0974 -0.0589
15821W        W58759  18.983  21.752   5.036 -0.1095 -0.0729  0.0395
15822W        W58760  19.780  23.833   4.403  0.0112  0.2356  0.0504
15823W        W58761  17.899  23.991   7.304  0.1540 -0.1634 -0.0787
15824W        W58762  16.960  23.771   6.660  0.4028 -0.0124  0.1628
15825W        W58763  17.670  24.277   4.947 -0.2885  0.3163 -0.0524
15826W        W58764  19.935  23.363   3.671 -0.0414 -0.0143  0.2447
15827W        W58765  20.626  23.233   4.339 -0.3357 -0.1965  0.4451
15828W        W58766  21.510  26.070   6.904  0.1409 -0.0123  0.1147
15829W        W58767  18.703  22.077   3.767 -0.2362 -0.0072 -0.0532
15830W        W58768  19.209  23.511   5.499 -0.3067  0.2100  0.0502
15831W        W58769  16.947  23.803   3.898  0.0044 -0.0937 -0.1013
15832W        W58770  20.346  24.558   3.795  0.3382  0.2062  0.1795
15833W        W58771  20.257  25.662   5.080 -0.0847  0.1403 -0.0161
15834W        W58772  21.360  23.621   7.303 -0.0860  0.1252  0.0940
15835W        W58773  19.234  20.908   2.996 -0.1360  0.0951  0.2021
15836W        W58774  21.250  22.734   4.366  0.0701 -0.0260  0.1500
15837W        W58775  21.449  21.838   3.808  0.2352  0.1872 -0.0355
15838W        W58776  19.095  24.423   6.565 -0.0786 -0.0906  0.1014
15839W        W58777  19.466  21.680   5.150 -0.3556 -0.1086  0.0524
15840W        W58778  19.055  21.883   4.595 -0.0632  0.1484 -0.1282
15841W        W58779  19.797  22.633   7.245  0.1464 -0.0455  0.1635
15842W        W58780  21.460  21.113   7.585  0.3644 -0.2319  0.2150
15843W        W58781  18.345  24.937   7.742 -0.0538  0.2222 -0.2508
15844W        W58782  20.265  25.516   3.487 -0.3136  0.3272 -0.0186
15845W        W58783  18.231  21.824   3.912 -0.0615 -0.1464  0.1703
15846W        W58784  19.024  22.439   5.917 -0.3574 -0.1012 -0.0130
15847W        W58785  21.998  21.194   5.680 -0.0679 -0.1840  0.0978
15848W        W58786  19.248  23.866   2.070 -0.3329  0.0932 -0.0404
15849W        W58787  20.629  21.340   5.350  0.1738  0.4226 -0.0915
15850W        W58788  19.519  23.704   4.832  0.0356 -0.1839 -0.0597
15851W        W58789  18.306  24.377   4.485 -0.3373  0.2800  0.3575
15852W        W58790  19.435  25.140   5.717  0.2379  0.3199  0.0906
15853W        W58791  17.695  21.585   1.756  0.1486 -0.0392 -0.0919
15854W        W58792  21.564  23.284   5.083 -0.3463  0.2761 -0.4055
15855W        W58793  18.801  22.022   5.937 -0.1766  0.1387  0.0878
15856W        W58794  21.895  22.121   5.618  0.0001 -0.2173  0.0282
15857W        W58795  19.386  23.966   5.298  0.0939  0.0029  0.2683
15858W        W58796  22.281  21.850   4.933  0.0322 -0.2449 -0.1120
15859W        W58797  19.809  23.430   6.906  0.0943 -0.2425 -0.0490
15860W        W58798  18.928  22.828   6.234  0.0992 -0.0967 -0.3029
15861W        W58799  19.099  22.864   3.684  0.2480 -0.3363 -0.0971
15862W        W58800  20.832  22.851   7.688 -0.1747 -0.0486  0.2199
15863W        W58801  18.617  22.540   2.176  0.1567  0.0121  0.1854
15864W        W58802  21.072  25.087   6.533  0.2327 -0.3829 -0.2475
15865W        W58803  19.165  21.042   4.457 -0.1290 -0.0351  0.2106
15866W        W58804  21.291  21.992   4.941 -0.0925 -0.1843  0.1061
15867W        W58805  17.342  22.453   6.156 -0.0907 -0.2232 -0.2192
15868W        W58806  19.258  21.994   7.317  0.0275  0.1892  0.0312
15869W        W58807  21.234  24.887   7.315 -0.0115 -0.1470 -0.0350
15870W        W58808  18.642  21.773   6.435  0.4359 -0.0342  0.0433
15871W        W58809  22.121  23.094   3.207 -0.0384 -0.2293  0.1432
15872W        W58810  21.309  22.947   5.964  0.1265 -0.5963  0.0608
15873W        W58811  17.870  24.043   3.048 -0.5132 -0.1034  0.0554
15874W        W58812  21.313  21.951   6.324 -0.0864  0.1103 -0.1072
15875W        W58813  20.872  24.644   6.316 -0.0598 -0.0494  0.2029
15876W        W58814  18.883  22.480   5.487  0.0697 -0.1476 -0.1443
15877W        W58815  20.392  22.862   5.849 -0.0141 -0.2434 -0.1105
15878W        W58816  21.801  23.089   5.843  0.0495 -0.2057  0.2948
15879W        W58817  19.082  21.728   3.971  0.0132  0.2239 -0.1995
15880W        W58818  19.328  22.516   6.312 -0.1222  0.1324 -0.3438
15881W        W58819  16.710  24.262   5.739  0.1093 -0.0829  0.0210
15882W        W58820  20.998  21.519   5.622 -0.0180 -0.1028  0.0001
15883W        W58821  20.488  22.249   6.159  0.0908 -0.2055  0.1506
15884W        W58822  19.153  25.791   4.218 -0.0076 -0.1192  0.0546
15885W        W58823  21.547  22.255   6.666  0.0323  0.1209 -0.0886
15886W        W58824  20.110  24.395   6.098 -0.1212 -0.1552 -0.2715
15887W        W58825  20.151  25.021   7.482 -0.1826 -0.3096  0.0567
15888W        W58826  18.572  22.926   3.548 -0.1776  0.0366  0.0283
15889W        W58827  20.538  22.056   6.837  0.1800  0.0664 -0.2074
15890W        W58828  18.922  23.346   3.889 -0.0711  0.1535 -0.3063
15891W        W58829  20.315  25.943   3.967  0.0403  0.0811  0.1644
15892W        W58830  21.923  23.831   7.042 -0.0434  0.2078 -0.1640
15893W        W58831  19.727  22.877   6.362 -0.0635  0.0051 -0.1885
15894W        W58832  22.703  23.943   4.671  0.2157  0.0437  0.0827
15895W        W58833  20.341  21.791   5.415  0.3849 -0.3635  0.1311
15896W        W58834  22.931  22.728   5.073  0.2005  0.0027 -0.0572
15897W        W58835  21.935  21.641   2.840 -0.2312  0.2127 -0.0154
15898W        W58836  19.387  22.913   6.017  0.1816 -0.1725  0.1056
15899W        W58837  17.635  23.754   3.630  0.1619 -0.3069  0.1766
15900W        W58838  18.892  24.301   4.450 -0.0262  0.0026  0.3100
15901W        W58839  18.631  23.211   6.126  0.1607 -0.0706 -0.1271
15902W        W58840  20.647  20.718   7.741 -0.0605  0.0206 -0.0521
15903W        W58841  18.818  20.830   7.341 -0.1344  0.0376  0.2616
15904W        W58842  19.369  22.522   5.594  0.0403  0.0151  0.1176
15905W        W58843  18.996  22.019   2.319  0.2370 -0.2203  0.0626
15906W        W58844  19.909  22.076   3.314 -0.0083  0.0194 -0.2371
15907W        W58845  19.808  22.387   5.794  0.1048 -0.0294 -0.0190
15908W        W58846  19.431  21.426   5.658  0.1546 -0.0565  0.1365
15909W        W58847  20.261  23.996   5.828 -0.2796 -0.1722 -0.2658
15910W        W58848  19.924  22.496   4.614  0.0028 -0.1433 -0.1786
15911W        W58849  20.281  22.327   5.704 -0.3100  0.3416 -0.1321
15912W        W58850  22.339  24.641   6.482 -0.4057 -0.1635  0.2145
15913W        W58851  19.255  23.110   4.614  0.0935 -0.2093  0.1098
15914W        W58852  20.203  21.615   7.556 -0.2104  0.2016  0.1463
15915W        W58853  18.897  22.273   8.928  0.1562 -0.1563 -0.1118
15916W        W58854  18.879  22.460   3.493 -0.2543  0.0485 -0.0815
15917W        W58855  19.573  21.656   6.109 -0.2786 -0.0655  0.0757
15918W        W58856  20.259  25.167   5.184 -0.0100 -0.0314  0.2079
15919W        W58857  20.947  25.151   3.290 -0.3223 -0.1699  0.0824
15920W        W58858  19.014  23.075   7.066 -0.0270  0.0510 -0.2540
15921W        W58859  19.542  26.017   5.641 -0.2837 -0.0792 -0.0740
15922W        W58860  18.243  20.548   4.529  0.4287  0.3820 -0.1901
15923W        W58861  21.919  21.757   3.937  0.0141  0.0697  0.1318
15924W        W58862  19.935  23.838   6.644  0.0937  0.1890 -0.1075
15925W        W58863  20.276  23.464   4.613  0.2214 -0.3198  0.0527
15926W        W58864  21.075  20.596   6.047 -0.2312 -0.1733 -0.0838
15927W        W58865  20.312  22.235   4.160 -0.0121 -0.2686 -0.1626
15928W        W58866  18.846  20.905   6.830 -0.3131 -0.1183  0.1309
15929W        W58867  18.764  23.220   6.590 -0.6338 -0.1317  0.0101
15930W        W58868  21.403  22.509   6.268  0.1895 -0.0363 -0.0109
15931W        W58869  19.635  22.130   4.866  0.1293 -0.2863 -0.0932
15932W        W58870  20.555  20.516   4.827 -0.1929  0.0627 -0.0076
15933W        W58871  19.261  23.578   4.424  0.0470  0.1378 -0.0964
15934W        W58872  19.118  22.759   5.126  0.0611  0.2452 -0.1850
15935W        W58873  19.890  21.602   4.751 -0.0186 -0.2524  0.0387
15936W        W58874  19.107  23.231   7.653 -0.0783 -0.1714  0.1029
15937W        W58875  19.342  23.275   5.049  0.3571  0.0462  0.0981
15938W        W58876  20.600  23.536   6.303  0.1574  0.0171 -0.0428
15939W        W58877  19.204  23.826   3.054  0.0256  0.0182 -0.0128
15940W        W58878  21.990  25.171   4.867 -0.3664  0.1858 -0.3098
15941W        W58879  20.432  24.480   6.454  0.2506 -0.0267 -0.0784
15942W        W58880  21.943  24.656   6.161  0.0168 -0.2184  0.1398
15943W        W58881  20.021  24.604   5.133  0.1582  0.1810 -0.2597
15944W        W58882  22.020  23.078   6.437  0.0412 -0.0106  0.1870
15945W        W58883  19.190  20.375   6.724  0.1655 -0.0593 -0.0753
15946W        W58884  19.794  22.908   3.503 -0.2077  0.1708  0.3088
15947W        W58885  19.527  23.706   3.994  0.1587  0.2500  0.1290
15948W        W58886  21.697  22.500   5.404  0.3187 -0.0885 -0.0805
15949W        W58887  18.907  21.537   6.056  0.3589  0.0016  0.1945
15950W        W58888  21.767  21.913   4.507 -0.1700 -0.0075 -0.1786
15951W        W58889  19.802  24.863   7.158 -0.0568 -0.0027 -0.0482
15952W        W58890  20.108  22.580   6.217 -0.3370 -0.2373  0.2841
15953W        W58891  19.290  23.894   9.342  0.3835  0.0396 -0.2739
15954W        W58892  18.937  21.392   7.182  0.1395  0.2821  0.0173
15955W        W58893  19.562  22.153   9.549  0.0232  0.3095  0.2743
15956W        W58894  21.441  23.374   8.868 -0.1385  0.1596 -0.0268
15957W        W58895  18.216  22.206   8.008 -0.0293  0.0249  0.3038
15958W        W58896  21.580  25.228   7.275  0.1188 -0.0022  0.1836
15959W        W58897  20.645  24.191   8.525  0.1492  0.0067  0.1904
15960W        W58898  22.471  24.690   8.976 -0.1150 -0.4952 -0.1597
15961W        W58899  20.264  23.498   6.717 -0.1370 -0.0678  0.1207
15962W        W58900  19.011  22.291   9.487  0.0280  0.0460  0.0552
15963W        W58901  18.007  19.656   7.883 -0.1052  0.0721  0.0467
15964W        W58902  17.675  22.025   8.705  0.0662 -0.3065 -0.2050
15965W        W58903  21.342  24.415   9.309 -0.0376 -0.1062  0.2326
15966W        W58904  17.797  24.358   8.203  0.0924 -0.0490  0.0301
15967W        W58905  17.019  21.863   9.830 -0.0989  0.1902 -0.0479
15968W        W58906  19.154  23.282   8.695  0.0340  0.1252  0.0520
15969W        W58907  21.997  25.539   7.386  0.3114 -0.0034 -0.4615
15970W        W58908  19.075  23.233   9.277 -0.0870  0.1655  0.1871
15971W        W58909  19.960  24.535   6.571  0.2193  0.0964  0.1482
15972W        W58910  18.025  21.657   7.935  0.0718 -0.2289 -0.2472
15973W        W58911  17.452  23.559   9.299 -0.1883 -0.0561  0.3334
15974W        W58912  17.365  20.301   9.035 -0.1400 -0.0122  0.1920
15975W        W58913  19.743  21.775  10.034 -0.0038  0.3004  0.1717
15976W        W58914  20.834  22.276   9.744  0.1812 -0.0912  0.0859
15977W        W58915  19.887  24.693   9.089  0.1146  0.1538  0.0480
15978W        W58916  20.537  24.165   9.109 -0.2707 -0.1808  0.0553
15979W        W58917  17.980  24.426   7.452  0.2073 -0.0582 -0.4791
15980W        W58918  17.852  24.227   9.384 -0.1655 -0.2431 -0.0916
15981W        W58919  18.108  23.099   7.954 -0.0766 -0.0184  0.1263
15982W        W58920  20.983  24.215   7.707 -0.0421  0.3795  0.1829
15983W        W58921  18.232  23.521   8.064  0.1018 -0.1990  0.0733
15984W        W58922  19.570  23.831   8.683 -0.0617 -0.1937  0.0619
15985W        W58923  19.207  22.106   8.600 -0.1804 -0.1742 -0.0209
15986W        W58924  18.377  23.600   6.634  0.2223  0.0341  0.1016
15987W        W58925  19.957  23.985   8.230  0.2672 -0.2482 -0.0173
15988W        W58926  17.644  24.744   9.689  0.1249 -0.0758  0.0654
15989W        W58927  17.540  24.139   7.666 -0.0515  0.2504  0.1934
15990W        W58928  20.329  23.891   9.574  0.0250 -0.2014 -0.0522
15991W        W58929  18.315  22.418   7.208  0.0045  0.0643 -0.2211
15992W        W58930  20.186  23.372   9.386  0.2116 -0.0972  0.1831
15993W        W58931  19.936  21.239   8.269  0.2328 -0.4022  0.2729
15994W        W58932  20.443  25.611   8.987  0.1388 -0.1978  0.1252
15995W        W58933  20.656  23.485   9.823  0.1114  0.1261 -0.3561
15996W        W58934  19.457  21.467   9.657 -0.0837 -0.2658  0.1740
15997W        W58935  18.273  23.430   9.763 -0.1318  0.1556 -0.1513
15998W        W58936  19.534  24.972   8.733  0.1219 -0.0997 -0.1983
15999W        W58937  17.110  22.721   9.410 -0.1450 -0.0929 -0.0177
16000W        W58938  22.003  26.726   7.618 -0.0902  0.0270 -0.4406
16001W        W58939  22.287  25.072   8.068  0.0782  0.0111  0.2233
16002W        W58940  20.804  24.450   7.245  0.3258  0.1244  0.0293
16003W        W58941  18.759  24.357   8.134  0.1605  0.2248  0.1821
16004W        W58942  19.415  21.557   7.133  0.1048 -0.1168  0.0244
16005W        W58943  20.594  22.176   8.367  0.1340 -0.0164  0.0453
16006W        W58944  20.025  24.328   9.427 -0.0927  0.0537  0.0110
16007W        W58945  21.299  24.222   9.772  0.1675 -0.0663  0.0661
16008W        W58946  20.332  24.590   7.009  0.2220  0.4635 -0.4480
16009W        W58947  19.609  21.420   8.909 -0.2374  0.1829 -0.1394
16010W        W58948  20.446  22.155  10.586 -0.1956 -0.0941 -0.3677
16011W        W58949  18.555  22.912   7.074  0.0708 -0.2078 -0.1742
16012W        W58950  20.122  24.514   7.483  0.0247  0.2946  0.0623
16013W        W58951  22.247  24.064   9.926 -0.1922  0.0834 -0.1464
16014W        W58952  20.754  23.370   8.027 -0.0757 -0.1757 -0.2674
16015W        W58953  18.379  23.640   8.831 -0.1275  0.2160  0.1150
16016W        W58954  17.490  25.467   7.283 -0.1738 -0.4342  0.3144
16017W        W58955  18.063  22.382   9.546  0.3047  0.1026 -0.2291
16018W        W58956  17.900  23.125   7.409  0.3126  0.1936 -0.1968
16019W        W58957  18.731  21.099   9.287  0.3635 -0.3305  0.0804
16020W        W58958  19.244  24.481   8.891  0.0746  0.1711 -0.0577
16021W        W58959  21.611  22.081  10.022 -0.1332  0.1039 -0.0525
16022W        W58960  20.329  21.386   9.385  0.0770 -0.2284 -0.0058
16023W        W58961  18.710  23.669   9.274 -0.2907 -0.0221  0.2266
16024W        W58962  21.731  24.454   8.362 -0.3798 -0.2188  0.0345
16025W        W58963  19.530  23.214   7.893  0.0398  0.1995 -0.1240
16026W        W58964  20.967  23.191   6.837  0.0460  0.2454 -0.0927
16027W        W58965  17.947  20.349   9.773 -0.0526  0.0377 -0.1213
16028W        W58966  18.107  21.683   8.907 -0.1472 -0.0077 -0.0514
16029W        W58967  18.577  22.650   8.853 -0.0429 -0.1904 -0.0824
16030W        W58968  18.868  21.011   7.785 -0.2363  0.0538  0.1617
16031W        W58969  19.243  21.857   9.302  0.1121  0.0173 -0.2699
16032W        W58970  19.127  22.782   8.913  0.1969  0.1004  0.1319
16033W        W58971  18.283  24.510   8.225 -0.0882  0.3612 -0.1193
16034W        W58972  19.311  24.924   7.316  0.1029 -0.1569 -0.2448
16035W        W58973  21.772  24.210   9.513 -0.1899  0.0206 -0.0123
16036W        W58974  20.532  25.110   7.928  0.0224  0.0377  0.0204
16037W        W58975  18.783  24.870   8.028  0.1283  0.1232  0.2601
16038W        W58976  18.814  20.996   6.199  0.1116 -0.1448  0.0024
16039W        W58977  18.658  25.134   8.436 -0.1535  0.3949  0.1342
16040W        W58978  20.307  24.347   8.091  0.2294  0.0836  0.0579
16041W        W58979  18.474  21.514   7.654  0.3422  0.0622 -0.1010
16042W        W58980  22.022  25.080   7.578  0.0324  0.1075  0.1096
16043W        W58981  21.070  24.008   8.435  0.0304  0.0276  0.0728
16044W        W58982  21.918  24.458   9.982 -0.1712 -0.0045 -0.2421
16045W        W58983  19.793  23.713   9.385 -0.0215  0.1188  0.0833
16046W        W58984  19.379  21.383   8.131  0.1034  0.1366  0.1551
16047W        W58985  21.309  25.434   8.063  0.3550 -0.2146  0.1307
16048W        W58986  17.469  24.551   7.890  0.1134 -0.0929 -0.1493
16049W        W58987  17.827  23.694   8.883  0.0102 -0.0665 -0.2161
16050W        W58988  19.845  23.304   8.839 -0.1004 -0.0876  0.1359
16051W        W58989  20.596  21.291   8.924  0.3737 -0.0143  0.3206
16052W        W58990  18.461  23.975   8.199 -0.0313 -0.1511 -0.5166
16053W        W58991  20.161  20.739   7.553  0.0693  0.0540 -0.1469
16054W        W58992  20.252  23.130   8.545  0.1673  0.2150  0.2808
16055W        W58993  23.666  25.035   6.632  0.0724 -0.0286  0.0435
16056W        W58994  20.778  23.037   8.437 -0.2015  0.0457  0.1416
16057W        W58995  20.872  21.729   8.060 -0.1050 -0.0532 -0.0024
16058W        W58996  20.094  22.948   9.136 -0.1761 -0.3633  0.2305
16059W        W58997  20.118  24.782   7.931 -0.0556 -0.1000 -0.2393
16060W        W58998  19.239  21.135   7.491 -0.2011  0.0728  0.1205
16061W        W58999  20.524  25.459   7.471 -0.1759  0.3946 -0.0502
16062W        W59000  18.196  24.003   9.906  0.0265 -0.1501 -0.5520
16063W        W59001  21.535  23.940   8.313 -0.1911  0.0928 -0.4100
16064W        W59002  21.159  19.556  10.814  0.0186  0.0474  0.2821
16065W        W59003  19.350  22.625   8.332 -0.3304 -0.1729 -0.0290
16066W        W59004  19.683  21.320   7.638 -0.4642 -0.1351 -0.0509
16067W        W59005  17.714  23.731   7.951 -0.0801  0.0828  0.1372
16068W        W59006  19.520  19.483   9.831  0.3400  0.0087  0.0130
16069W        W59007  21.077  21.181   9.015 -0.1871  0.0052  0.0343
16070W        W59008  20.940  22.829   9.802  0.1360  0.0491 -0.4383
16071W        W59009  20.084  23.413   9.905  0.0431  0.0575 -0.1696
16072W        W59010  18.831  22.756   7.458  0.0175  0.1522  0.0275
16073W        W59011  21.676  23.493  11.652  0.1687  0.2576 -0.0057
16074W        W59012  22.601  25.759   9.214 -0.0938  0.0426 -0.0808
16075W        W59013  20.829  23.281   8.874  0.1169 -0.1361  0.0613
16076W        W59014  20.073  22.156   8.237 -0.0364 -0.2428 -0.1720
16077W        W59015  19.263  25.081   7.821  0.1868 -0.3553 -0.0289
16078W        W59016  18.655  23.192   8.843  0.0053  0.3860  0.1960
16079W        W59017  17.611  21.676   9.072 -0.0629  0.0374  0.1884
16080W        W59018  18.125  23.173   8.832 -0.1750 -0.1453 -0.1465
16081W        W59019  19.926  23.950   7.359 -0.1738  0.0580  0.1162
16082W        W59020  20.760  25.168   9.106  0.1527  0.2465 -0.2817
16083W        W59021  18.740  22.807   9.317 -0.3489  0.1972 -0.1342
16084W        W59022  20.403  22.069  10.034  0.1518  0.3423 -0.3294
16085W        W59023  17.447  24.033   9.213 -0.3501 -0.0173 -0.2586
16086W        W59024  19.742  21.777   7.418 -0.2600 -0.0743  0.1992
16087W        W59025  18.687  23.589   8.477 -0.0184 -0.3219  0.0046
16088W        W59026  19.636  21.709   8.414  0.1189  0.0851 -0.4218
16089W        W59027  21.088  23.492   8.430  0.1803  0.3042  0.0248
16090W        W59028  18.882  21.575   9.636  0.2008 -0.1484 -0.1684
16091W        W59029  19.440  20.974   9.159 -0.0159 -0.0923 -0.0403
16092W        W59030  18.953  25.335   9.178 -0.2820  0.1467 -0.0876
16093W        W59031  20.714  22.362   7.227  0.2304  0.0173  0.3719
16094W        W59032  18.863  22.306   7.110  0.1628  0.2368 -0.1581
16095W        W59033  17.663  23.734  11.680 -0.0454 -0.1819 -0.0120
16096W        W59034  17.794  23.444  10.609  0.2374  0.1086  0.0930
16097W        W59035  18.785  25.228   7.563 -0.0758 -0.1032 -0.1257
16098W        W59036  21.007  24.335   8.803 -0.1227  0.1030  0.0901
16099W        W59037  18.627  23.401   7.826 -0.3077  0.3371  0.2632
16100W        W59038  19.343  23.736   7.694 -0.1212  0.2495  0.0899
16101W        W59039  22.348  23.098  10.138  0.3957 -0.0810  0.0709
16102W        W59040  23.770  20.720   9.922  0.2193 -0.2085  0.2312
16103W        W59041  20.514  20.161   7.486  0.0219 -0.0271 -0.0523
16104W        W59042  19.308  22.775   9.516  0.2900  0.2103  0.1236
16105W        W59043  20.180  24.411   8.648 -0.0486 -0.2956  0.1868
16106W        W59044  19.072  22.468  10.097 -0.0672 -0.1445  0.3375
16107W        W59045  20.447  21.462   8.026 -0.2171 -0.0074 -0.0636
16108W        W59046  21.448  24.897   8.261  0.0565  0.0241 -0.0360
16109W        W59047  18.463  23.319   7.368  0.0410 -0.0753 -0.1612
16110W        W59048  16.936  23.985   9.189 -0.1673 -0.3715 -0.2888
16111W        W59049  18.451  24.421   7.759  0.0906  0.0450 -0.0714
16112W        W59050  18.843  22.864   9.835  0.2447  0.0101  0.2468
16113W        W59051  19.179  24.392   9.500  0.2208 -0.0259  0.0708
16114W        W59052  20.229  24.143   6.858 -0.2093  0.0449  0.2148
16115W        W59053  17.690  24.234   8.847 -0.1685  0.2194 -0.2415
16116W        W59054  20.410  21.952   7.961 -0.1885  0.0921 -0.0211
16117W        W59055  19.092  24.066   7.207  0.0958  0.1660  0.0686
16118W        W59056  20.650  23.102   9.456 -0.1134  0.3118  0.0345
16119W        W59057  21.024  24.074   9.294  0.1240  0.2525 -0.0104
16120W        W59058  17.907  21.396   9.448  0.1382  0.3593  0.0883
16121W        W59059  20.536  24.813   8.351  0.3067  0.3463  0.3177
16122W        W59060  19.969  20.621   8.233  0.1408  0.1007 -0.2232
16123W        W59061  18.391  20.970   7.625 -0.2690  0.1990  0.1145
16124W        W59062  16.587  22.707   9.630 -0.3533 -0.0824  0.0389
16125W        W59063  22.484  24.220   9.384  0.1663 -0.1215  0.2351
16126W        W59064  19.833  23.424   7.483 -0.1243 -0.0266 -0.1180
16127W        W59065  20.360  22.973   8.036 -0.0012 -0.1006 -0.1999
16128W        W59066  19.421  25.636   9.908 -0.3184 -0.0807  0.1549
16129W        W59067  19.666  25.136   9.231  0.1895 -0.1898  0.2572
16130W        W59068  19.551  23.028   8.520 -0.0425 -0.3693 -0.1347
16131W        W59069  19.470  23.348   9.566 -0.1503 -0.2007  0.1474
16132W        W59070  20.476  24.633   9.328  0.0302 -0.0137 -0.1885
16133W        W59071  19.718  21.365  11.193 -0.1567 -0.0823  0.2796
16134W        W59072  22.310  27.179   9.123 -0.1008 -0.2504  0.1618
16135W        W59073  21.326  23.699   7.964  0.1734 -0.1551 -0.1715
16136W        W59074  22.515  22.020  10.009  0.3325 -0.2418  0.1328
16137W        W59075  21.949  25.505   9.357 -0.0324 -0.1718  0.2926
16138W        W59076  19.458  23.552   8.226  0.1243 -0.1127 -0.0215
16139W        W59077  18.577  24.081   8.663  0.0734 -0.2990 -0.0221
16140W        W59078  19.706  20.530   6.645  0.0855 -0.1304 -0.0890
16141W        W59079  19.461  24.051   8.120 -0.4308 -0.0995 -0.0345
16142W        W59080  19.868  25.541   9.596  0.2740  0.0357  0.0598
16143W        W59081  20.360  22.459   7.927 -0.2554  0.0656  0.0107
16144W        W59082  17.698  20.937   8.367  0.1318  0.1293 -0.0396
16145W        W59083  18.908  22.838   7.972  0.0542 -0.0581 -0.0028
16146W        W59084  19.761  22.527   7.992 -0.0348  0.0065 -0.2544
16147W        W59085  19.323  24.649   8.418 -0.2447  0.0421  0.1073
16148W        W59086  20.322  20.401   7.909  0.0329  0.0551 -0.1198
16149W        W59087  17.378  23.657   7.573 -0.1234  0.0262  0.0977
16150W        W59088  19.867  22.571   8.886  0.1197  0.0897 -0.1316
16151W        W59089  18.641  23.964   9.669 -0.0292  0.0799 -0.2373
16152W        W59090  19.801  24.851   9.593  0.0964 -0.3989  0.2664
16153W        W59091  19.933  21.366   9.776  0.2724 -0.0295 -0.0379
16154W        W59092  20.704  22.639   9.330 -0.3183  0.1162 -0.1120
16155W        W59093  19.833  21.307  10.328  0.2137  0.0026 -0.0228
16156W        W59094  18.539  22.339   9.388  0.0162 -0.0602 -0.1306
16157W        W59095  19.631  24.198   9.163  0.2624  0.3173  0.1310
16158W        W59096  19.933  21.126   9.264  0.1292 -0.0609 -0.1440
16159W        W59097  19.075  23.748   8.896  0.3565 -0.1468  0.0169
16160W        W59098  19.359  21.833   7.786  0.2552 -0.3112 -0.2322
16161W        W59099  19.012  23.249   8.217 -0.3321  0.1249  0.0969
16162W        W59100  17.149  23.288  11.597  0.1150  0.0250  0.0439
16163W        W59101  16.954  23.967   7.609 -0.0087  0.3509  0.1575
16164W        W59102  21.126  24.089   6.514 -0.0048  0.1318 -0.2735
16165W        W59103  20.054  23.719   8.640 -0.4265  0.1774 -0.1613
16166W        W59104  20.575  24.784   8.872 -0.0726 -0.0149 -0.2094
16167W        W59105  20.140  22.105   8.745  0.3903  0.0433  0.3928
16168W        W59106  19.784  24.569   8.182  0.1173 -0.0426  0.1736
16169W        W59107  17.684  24.235   6.878 -0.2563 -0.1640 -0.1399
16170W        W59108  20.836  25.586   7.889 -0.0939  0.0855  0.2765
16171W        W59109  18.155  24.619   9.825  0.1812  0.2878 -0.1364
16172W        W59110  21.207  22.485   7.711 -0.0036 -0.2297 -0.1936
16173W        W59111  22.115  22.502   9.407 -0.1528 -0.3385 -0.2039
16174W        W59112  21.910  23.810   7.933 -0.2429 -0.0381  0.0542
16175W        W59113  19.475  23.525   9.063  0.1049 -0.0746  0.1743
16176W        W59114  18.720  21.336   6.708  0.0136 -0.1426 -0.0516
16177W        W59115  20.933  25.141   8.213  0.1295  0.0084 -0.0695
16178W        W59116  18.531  21.536   8.923 -0.0044 -0.1292  0.0851
16179W        W59117  17.879  23.312   9.243 -0.0833  0.0659  0.1523
16180W        W59118  21.649  22.445   9.230 -0.1620 -0.3036  0.3599
16181W        W59119  20.434  24.113   7.355  0.0049 -0.0871  0.1404
16182W        W59120  19.389  21.071   8.549 -0.3977 -0.1260  0.0836
16183W        W59121  19.652  24.415   8.670  0.2568 -0.0626  0.1879
16184W        W59122  20.223  25.025   9.459  0.1388 -0.0966  0.1696
16185W        W59123  22.958  24.156  10.274  0.4110  0.1934  0.2160
16186W        W59124  17.887  21.108   7.902  0.0346 -0.0396  0.1183
16187W        W59125  20.544  22.865   8.933  0.0783  0.2284  0.2165
16188W        W59126  17.928  24.682   9.157  0.2106 -0.0920 -0.0828
16189W        W59127  18.904  22.752   8.479 -0.1072 -0.2646  0.2548
16190W        W59128  19.806  22.961   9.698 -0.3574  0.2272 -0.2018
16191W        W59129  20.318  22.413   9.081 -0.0106 -0.1313  0.1250
16192W        W59130  19.188  23.166   9.962 -0.1789  0.1140  0.0871
16193W        W59131  19.896  22.889   7.656 -0.0304  0.0352  0.0123
16194W        W59132  20.292  23.686   7.209 -0.2278  0.2128 -0.2176
16195W        W59133  18.626  21.911   7.892 -0.0996 -0.1792 -0.0166
16196W        W59134  20.901  21.107   8.066  0.2928  0.2420  0.0398
16197W        W59135  17.599  22.645   9.370 -0.2587  0.2037 -0.0925
16198W        W59136  15.900  23.717   8.966  0.2077 -0.1095  0.1400
16199W        W59137  18.000  21.997   8.376 -0.2983 -0.3566  0.1090
16200W        W59138  21.827  24.418   6.572 -0.0870 -0.1530 -0.2071
16201W        W59139  21.224  22.523   9.468  0.2954  0.0264 -0.1961
16202W        W59140  20.714  24.780   6.856 -0.1568 -0.2664  0.0811
16203W        W59141  20.817  23.607   9.349  0.0348  0.1728  0.1976
16204W        W59142  21.962  25.016   8.423  0.1688 -0.0906 -0.3309
16205W        W59143  19.612  23.450  10.049 -0.1511  0.3230  0.1213
16206W        W59144  21.179  25.313   8.659 -0.0191 -0.0742 -0.1519
16207W        W59145  22.346  24.229   8.785  0.1104  0.0072 -0.0399
16208W        W59146  20.377  20.967   6.964 -0.1942 -0.0073  0.1001
16209W        W59147  18.224  21.984   9.272  0.0957 -0.1550  0.2650
16210W        W59148  18.031  24.112   7.874 -0.0590  0.0797 -0.0262
16211W        W59149  20.827  22.056   9.293  0.0006 -0.0383  0.4581
16212W        W59150  20.402  24.878   6.134  0.2609  0.0092 -0.1663
16213W        W59151  19.606  24.036   9.736  0.0253  0.0204  0.0976
16214W        W59152  19.575  22.280   7.572 -0.0599 -0.0087 -0.1006
16215W        W59153  18.940  23.727   8.027 -0.1563  0.1148  0.0300
16216W        W59154  18.896  23.668   7.490  0.1685  0.0641  0.3510
16217W        W59155  22.621  25.279   9.477 -0.0724 -0.0504 -0.2856
16218W        W59156  18.478  22.270   8.446 -0.1408  0.1827 -0.2624
16219W        W59157  21.467  24.614   8.774  0.0342 -0.1574 -0.0470
16220W        W59158  19.245  21.527  10.173  0.2160  0.1050 -0.0623
16221W        W59159  20.805  22.205   7.857 -0.0039 -0.1312 -0.0253
16222W        W59160  20.290  21.774   8.431 -0.1385 -0.1128 -0.1257
16223W        W59161  19.932  22.121   9.227  0.1393  0.5116 -0.0874
16224W        W59162  18.533  23.126   8.299 -0.4138  0.1643 -0.2446
16225W        W59163  17.745  22.463   7.080  0.3838  0.1560  0.0168
16226W        W59164  18.426  23.214   9.317 -0.0621 -0.0692  0.3132
16227W        W59165  18.688  24.514   9.672 -0.0676 -0.1366  0.0699
16228W        W59166  19.402  22.230   8.089  0.1670  0.2844  0.1883
16229W        W59167  22.252  24.083   7.462  0.2257 -0.1619  0.0428
16230W        W59168  19.176  20.851   8.137 -0.0650  0.0345 -0.1942
16231W        W59169  18.118  20.703   8.841 -0.1054  0.0490  0.0075
16232W        W59170  22.535  23.728   8.631  0.0721 -0.0100  0.1202
16233W        W59171  22.053  23.997   8.391  0.1221 -0.1939  0.0106
16234W        W59172  19.973  22.785   8.366  0.0646 -0.0677  0.1373
16235W        W59173  17.007  22.146   6.946  0.1349  0.0674  0.0647
16236W        W59174  19.043  22.220   7.671  0.2509 -0.1749 -0.0654
16237W        W59175  20.988  25.507   9.344 -0.0504 -0.0775  0.0578
16238W        W59176  19.661  24.654   7.656 -0.2028  0.0582 -0.2072
16239W        W59177  20.689  24.928   7.344 -0.1785 -0.0571 -0.1339
16240W        W59178  17.453  21.678   9.523  0.1592 -0.0811 -0.0520
16241W        W59179  21.277  24.388   7.241 -0.3333 -0.0387 -0.0308
16242W        W59180  22.291  22.680   7.460  0.2363  0.1744 -0.2420
16243W        W59181  21.469  21.033  10.504 -0.0741  0.1021 -0.1269
16244W        W59182  19.807  22.594   9.382 -0.0413  0.0091  0.2308
16245W        W59183  20.733  23.103  10.258 -0.1504  0.1538  0.2822
16246W        W59184  19.904  22.284   9.894 -0.2060  0.0882  0.2652
16247W        W59185  20.400  21.864   9.091 -0.1173 -0.3679  0.0229
16248W        W59186  20.928  23.921   7.280 -0.1512  0.0227 -0.0333
16249W        W59187  19.489  22.168  10.251 -0.2214  0.0907  0.2762
16250W        W59188  20.157  22.359   7.020  0.0308 -0.0669  0.0072
16251W        W59189  21.180  25.789   8.389  0.0188  0.0968  0.1780
16252W        W59190  19.139  21.523   8.701  0.0846 -0.2176  0.3866
16253W        W59191  21.484  24.165   6.880 -0.1231 -0.2146 -0.0890
16254W        W59192  22.628  24.441   9.804 -0.0244  0.1406 -0.0933
16255W        W59193  19.584  23.025   9.138  0.4245  0.0213 -0.0169
16256W        W59194  22.534  22.449  10.215 -0.1831 -0.1649  0.1543
16257W        W59195  18.135  22.674   8.575 -0.0844  0.1003  0.0405
16258W        W59196  19.859  23.668   7.865 -0.2055  0.1002 -0.3370
16259W        W59197  19.363  22.396   9.031 -0.0067 -0.1982  0.0946
16260W        W59198  22.095  23.149   9.613 -0.0616 -0.1229  0.0790
16261W        W59199  16.417  22.286   8.708 -0.0508  0.2135  0.0154
16262W        W59200  21.004  20.629   8.354 -0.3066  0.0124 -0.1138
16263W        W59201  22.146  24.856   9.841 -0.2403 -0.0969  0.1528
16264W        W59202  18.936  25.807   9.017  0.0691  0.0765  0.1450
16265W        W59203  20.149  28.187   2.659 -0.1979  0.0145  0.1728
16266W        W59204  17.884  27.119   0.212  0.1853 -0.0829 -0.1027
16267W        W59205  20.523  25.948   0.816 -0.2805  0.1766  0.3232
16268W        W59206  20.926  26.730   1.858 -0.1462  0.3852 -0.0742
16269W        W59207  17.822  25.948  31.875 -0.3582 -0.0129 -0.5674
16270W        W59208  21.902  29.495   0.832  0.4342  0.0828  0.0043
16271W        W59209  18.708  24.985   1.953  0.0663  0.2508 -0.2754
16272W        W59210  19.962  27.708   2.694 -0.0612 -0.0124  0.1372
16273W        W59211  20.470  27.133   2.859  0.0751  0.1722  0.0929
16274W        W59212  19.595  26.560  30.669  0.0110 -0.0109  0.3041
16275W        W59213  18.978  25.542  31.434  0.2464 -0.0266 -0.3249
16276W        W59214  19.762  28.250   2.276  0.2239 -0.4012  0.3419
16277W        W59215  20.598  25.965   1.352  0.1646  0.0400 -0.1304
16278W        W59216  17.933  24.558   1.243 -0.1087  0.1600 -0.0615
16279W        W59217  20.431  28.405   1.050 -0.0247 -0.1859  0.3748
16280W        W59218  18.222  26.901  31.924 -0.0343 -0.2962  0.0925
16281W        W59219  17.421  25.680   0.602 -0.2053  0.2180 -0.3161
16282W        W59220  19.312  26.080   1.975 -0.0722  0.3641  0.1393
16283W        W59221  21.399  29.840   1.598  0.1870 -0.3522  0.3327
16284W        W59222  18.298  25.742   2.362  0.2079 -0.3298 -0.0555
16285W        W59223  20.073  25.174   3.083  0.0673  0.1444 -0.1421
16286W        W59224  19.787  27.805   0.505 -0.2371 -0.2065 -0.1584
16287W        W59225  17.821  26.112  30.559 -0.2873 -0.0403  0.0813
16288W        W59226  16.816  27.124   1.942  0.2706 -0.1269 -0.0910
16289W        W59227  19.742  26.349   1.625  0.3214  0.3898 -0.0867
16290W        W59228  20.945  25.220   0.680 -0.0512 -0.0022 -0.1549
16291W        W59229  20.583  25.429   2.092  0.1253 -0.0889  0.0346
16292W        W59230  19.849  29.214   0.804  0.3325 -0.3048  0.3114
16293W        W59231  21.197  29.235   2.590 -0.0696  0.0709  0.1512
16294W        W59232  21.328  26.223   3.908  0.0578  0.0920  0.0435
16295W        W59233  18.215  25.927   1.208 -0.2535 -0.0959  0.0205
16296W        W59234  18.042  27.535   1.166  0.1381 -0.0793  0.0508
16297W        W59235  18.408  27.217   0.896  0.0526  0.3147 -0.1580
16298W        W59236  20.606  27.930   1.161  0.0908  0.3430  0.2126
16299W        W59237  22.396  27.277   3.055 -0.3392 -0.3142 -0.2008
16300W        W59238  19.202  28.128   2.974 -0.1809 -0.1630 -0.0293
16301W        W59239  18.286  28.237  30.326  0.0363  0.0550 -0.5134
16302W        W59240  19.408  27.965   3.477 -0.1217 -0.2188  0.0749
16303W        W59241  18.876  29.539   3.338 -0.1537  0.1773  0.0713
16304W        W59242  19.166  26.664   0.893  0.0575 -0.1782 -0.2724
16305W        W59243  21.232  27.501   2.515  0.2744  0.2581 -0.2051
16306W        W59244  19.354  27.960   0.083  0.1984  0.3385 -0.0726
16307W        W59245  19.308  26.570   1.781  0.3430 -0.1778 -0.3036
16308W        W59246  19.659  27.766   5.211 -0.1558 -0.1102 -0.0499
16309W        W59247  19.268  27.425   1.852  0.1594  0.1576 -0.1035
16310W        W59248  20.320  26.686   2.828  0.0762  0.0674 -0.0367
16311W        W59249  19.047  28.816   1.080  0.0353  0.1293  0.2170
16312W        W59250  20.406  27.257   0.484  0.0047  0.3970  0.0397
16313W        W59251  19.945  26.799   0.309 -0.1606  0.2043  0.1294
16314W        W59252  19.720  27.199   0.033 -0.0289  0.2155 -0.0350
16315W        W59253  19.623  25.467   1.203  0.0806  0.3680  0.0430
16316W        W59254  18.865  26.372   2.073 -0.1316 -0.1328  0.1237
16317W        W59255  18.592  25.227   0.839 -0.1187 -0.4109  0.0204
16318W        W59256  19.927  25.798   2.630  0.2776  0.0338 -0.1754
16319W        W59257  20.707  27.213   0.993  0.1821 -0.0556 -0.0711
16320W        W59258  19.394  26.403   2.501 -0.1006  0.1696 -0.0184
16321W        W59259  18.060  28.055   0.892  0.0031  0.2885  0.1621
16322W        W59260  17.749  25.570   1.367 -0.0956 -0.0888 -0.1526
16323W        W59261  20.794  28.431   0.069  0.0591  0.1004  0.3139
16324W        W59262  22.164  28.883   1.995  0.1285  0.2487 -0.0503
16325W        W59263  20.643  30.662   0.022  0.0178 -0.1145 -0.2164
16326W        W59264  19.498  27.409   0.849  0.1140  0.1511  0.0028
16327W        W59265  17.919  27.057   0.975 -0.2313  0.1528 -0.2381
16328W        W59266  18.103  27.204   2.236  0.1293 -0.0050  0.2249
16329W        W59267  17.701  25.620  31.443  0.1635 -0.2716  0.1757
16330W        W59268  21.489  26.352   4.383  0.1422 -0.2048 -0.2315
16331W        W59269  17.018  26.215   1.980 -0.0547  0.0126 -0.0080
16332W        W59270  21.329  25.872   2.185 -0.0957 -0.3424  0.1811
16333W        W59271  18.637  27.946   2.245 -0.3984 -0.1789 -0.2056
16334W        W59272  21.212  28.145   3.123  0.2405 -0.0767 -0.1541
16335W        W59273  20.624  29.415   0.300  0.1385  0.1486 -0.1929
16336W        W59274  20.462  26.395   1.050 -0.0226 -0.1026  0.3321
16337W        W59275  18.723  26.842   0.631 -0.2170  0.0210  0.0812
16338W        W59276  18.704  26.170  31.476 -0.2921 -0.2392  0.0002
16339W        W59277  20.042  26.839  31.785 -0.0567 -0.0414  0.0026
16340W        W59278  21.938  27.810   4.396 -0.0618  0.1169  0.2605
16341W        W59279  20.955  27.435  31.885  0.1065  0.1180 -0.1406
16342W        W59280  18.893  28.146   1.452 -0.2250  0.0313 -0.1066
16343W        W59281  18.439  24.606   2.833 -0.0722  0.1793  0.1772
16344W        W59282  19.609  27.747   2.069  0.2410 -0.1117  0.0476
16345W        W59283  20.325  29.706   0.015  0.2430  0.4812 -0.2868
16346W        W59284  18.048  26.313   0.827  0.1892  0.1322 -0.1737
16347W        W59285  18.370  27.206   0.368  0.4077  0.2895  0.1629
16348W        W59286  18.434  26.189   1.866 -0.0510  0.0104 -0.4674
16349W        W59287  17.365  25.980   0.175  0.0518  0.2906 -0.2240
16350W        W59288  19.678  25.980   0.497 -0.0805 -0.1262  0.0001
16351W        W59289  18.694  26.237   3.387  0.0737  0.0269 -0.0329
16352W        W59290  20.965  25.500   1.413 -0.0733 -0.2397 -0.2898
16353W        W59291  18.061  27.050   2.752 -0.0384  0.0247  0.0960
16354W        W59292  21.386  28.004   2.233 -0.3179  0.0450  0.0971
16355W        W59293  22.221  28.286   1.118  0.0946 -0.0874  0.3596
16356W        W59294  20.162  28.578   0.100 -0.2530 -0.0040  0.0235
16357W        W59295  16.292  27.520   1.855 -0.0582 -0.0707 -0.3631
16358W        W59296  17.955  27.480   0.600 -0.2138 -0.1201  0.0852
16359W        W59297  18.247  27.002   3.881 -0.0040 -0.0290  0.3008
16360W        W59298  17.864  25.879   2.125  0.0345  0.1919  0.0755
16361W        W59299  18.919  24.870   3.017 -0.1961  0.1480 -0.0773
16362W        W59300  18.012  24.853  30.456 -0.0215 -0.1930  0.0505
16363W        W59301  20.544  26.173   0.065 -0.1419  0.0840  0.0283
16364W        W59302  18.699  25.707   0.956 -0.0256 -0.0720 -0.4587
16365W        W59303  18.039  27.337  30.927  0.0392 -0.0637  0.2329
16366W        W59304  20.864  24.780   2.999 -0.1647 -0.0767  0.1297
16367W        W59305  20.259  27.754   0.704 -0.0474  0.0423  0.0668
16368W        W59306  21.817  28.259   1.464 -0.3456  0.1750 -0.3919
16369W        W59307  20.111  28.166   1.905 -0.2055 -0.0849  0.0625
16370W        W59308  19.140  25.589   2.163  0.1121 -0.1681 -0.1420
16371W        W59309  17.278  26.215  30.906 -0.3297 -0.1015 -0.2801
16372W        W59310  19.254  28.469   1.398  0.1525 -0.0785  0.1200
16373W        W59311  19.937  28.700   2.014  0.0003  0.3041 -0.2575
16374W        W59312  19.021  27.248   0.178  0.1011 -0.0451  0.4783
16375W        W59313  22.854  28.351   2.456 -0.3946  0.0446 -0.1058
16376W        W59314  21.429  28.426   1.163 -0.1616  0.0752 -0.0011
16377W        W59315  18.294  26.759   1.064  0.0485  0.1816 -0.0452
16378W        W59316  20.136  25.752   1.127 -0.0802  0.3097  0.2792
16379W        W59317  20.404  25.919   2.970  0.0675 -0.4148  0.2799
16380W        W59318  20.486  27.674   2.935  0.0416  0.1439 -0.2309
16381W        W59319  18.507  24.790  30.434 -0.0573  0.2303 -0.0190
16382W        W59320  20.786  28.137   1.990  0.0857 -0.0265 -0.0961
16383W        W59321  18.880  28.851   0.555  0.1656  0.0372  0.2349
16384W        W59322  17.800  26.428  30.170  0.1542 -0.0111 -0.6245
16385W        W59323  20.647  28.168   0.600  0.0099 -0.0901 -0.1189
16386W        W59324  21.907  25.655   1.102  0.4733  0.0753 -0.1959
16387W        W59325  17.993  26.881   1.768 -0.0612 -0.2291 -0.1184
16388W        W59326  19.059  26.034   2.388  0.1192 -0.2014 -0.0707
16389W        W59327  18.661  26.043  30.488 -0.1261 -0.1954  0.2896
16390W        W59328  18.031  28.103   2.536 -0.0067  0.0854  0.1692
16391W        W59329  21.414  24.000   1.421  0.1304 -0.4075  0.5693
16392W        W59330  21.357  25.713   0.686  0.0545  0.0916  0.1644
16393W        W59331  19.326  26.984   3.101  0.0147  0.2556 -0.1162
16394W        W59332  20.176  27.591   0.209 -0.0845 -0.1415  0.0253
16395W        W59333  19.952  27.026  31.249  0.2930  0.1696  0.0941
16396W        W59334  21.137  25.246  31.370 -0.2380  0.1545  0.0282
16397W        W59335  19.237  26.209   3.219 -0.2299 -0.1590  0.1156
16398W        W59336  19.313  27.447  30.663  0.0072 -0.1146  0.3389
16399W        W59337  19.237  27.473   1.373  0.0093 -0.0976 -0.0724
16400W        W59338  20.016  24.618  31.890 -0.1750 -0.3444  0.0598
16401W        W59339  22.730  29.273  31.297 -0.1215 -0.4030  0.1972
16402W        W59340  17.230  26.775   2.125 -0.3613 -0.0765 -0.1040
16403W        W59341  21.491  27.062   3.078 -0.1380 -0.1709  0.1463
16404W        W59342  20.857  28.492   2.292  0.0430  0.3669 -0.0347
16405W        W59343  19.542  24.815   2.345  0.1630 -0.3955 -0.0514
16406W        W59344  21.422  25.505  31.050  0.2742 -0.2802  0.1349
16407W        W59345  19.990  26.433   0.777 -0.1217 -0.3201  0.2401
16408W        W59346  17.553  27.938  31.731  0.0951  0.0811  0.0794
16409W        W59347  19.956  25.816   1.629 -0.0279 -0.3922 -0.3220
16410W        W59348  21.120  25.442   1.960 -0.1387 -0.1885 -0.4224
16411W        W59349  19.360  24.900   3.927 -0.1958  0.0966 -0.1229
16412W        W59350  20.940  26.623   1.031  0.5183 -0.0829 -0.3025
16413W        W59351  20.656  27.127   1.865 -0.0116 -0.1081  0.1540
16414W        W59352  18.903  27.132   1.082 -0.1370  0.0509  0.0242
16415W        W59353  18.762  26.352  30.941  0.1207 -0.2246 -0.0779
16416W        W59354  19.113  24.592   2.138 -0.2594  0.0001 -0.3717
16417W        W59355  18.489  26.738   2.178 -0.0039  0.0758 -0.0851
16418W        W59356  18.560  26.150   2.436  0.0664  0.0256 -0.2577
16419W        W59357  20.192  27.830   2.224 -0.5186 -0.0601 -0.1513
16420W        W59358  20.295  28.113   0.255  0.3021  0.2462  0.2133
16421W        W59359  20.095  24.680   3.392  0.0591  0.3566  0.0688
16422W        W59360  20.935  25.950   0.473  0.2462  0.3054  0.2722
16423W        W59361  18.883  29.675   1.202 -0.3972 -0.0222  0.0756
16424W        W59362  19.085  27.110  31.663 -0.1874  0.1731 -0.3608
16425W        W59363  19.345  25.670   0.691 -0.1319 -0.0945 -0.0473
16426W        W59364  19.127  27.802   2.241 -0.0769 -0.2883 -0.3788
16427W        W59365  16.703  27.232  30.338  0.1060 -0.0681  0.2445
16428W        W59366  19.767  27.377   1.768 -0.0121  0.0248  0.2941
16429W        W59367  18.865  28.298   1.985  0.2069  0.2159  0.2753
16430W        W59368  21.093  24.935   1.458  0.2456 -0.1172  0.0986
16431W        W59369  18.407  28.721   0.404 -0.0124  0.1572 -0.1955
16432W        W59370  19.227  26.461  31.534 -0.1789 -0.0693 -0.3441
16433W        W59371  18.701  25.645  30.758  0.1129  0.1216  0.2442
16434W        W59372  20.212  27.199   1.543  0.2501  0.1086 -0.1176
16435W        W59373  22.363  27.009   0.730  0.5100  0.2228  0.0885
16436W        W59374  18.945  25.956   1.586 -0.1903  0.2289  0.2882
16437W        W59375  19.859  25.565   0.757  0.2512  0.4276  0.1818
16438W        W59376  17.528  28.434   1.160  0.0904 -0.2989 -0.1267
16439W        W59377  20.189  27.756   1.471  0.0925 -0.1398  0.3058
16440W        W59378  21.049  26.434  31.979  0.0433 -0.2704 -0.2363
16441W        W59379  22.333  27.963   4.149  0.2248 -0.3325  0.1009
16442W        W59380  17.905  27.627   2.720  0.0211  0.0397 -0.0436
16443W        W59381  18.077  26.008  31.406  0.0054  0.1057 -0.0018
16444W        W59382  19.827  24.861   1.974 -0.1300 -0.0231  0.1382
16445W        W59383  18.758  26.164   1.205 -0.1952  0.3678 -0.1741
16446W        W59384  16.879  26.085   0.981  0.0142  0.0697 -0.0869
16447W        W59385  20.323  27.465   2.491  0.1905  0.1620 -0.2023
16448W        W59386  19.363  26.317   0.074  0.2770 -0.0300  0.0979
16449W        W59387  19.504  27.904  31.538  0.0816 -0.1233 -0.1120
16450W        W59388  18.597  25.605   3.730 -0.3425  0.0547 -0.0415
16451W        W59389  20.248  26.951   3.263 -0.2209  0.1203 -0.2285
16452W        W59390  18.840  25.463   0.494  0.0449  0.0017 -0.2126
16453W        W59391  17.483  26.656   0.821 -0.0794 -0.0419  0.0596
16454W        W59392  19.672  25.964   0.980  0.3251 -0.2591  0.2750
16455W        W59393  20.383  26.832   2.339  0.2010  0.0943  0.0381
16456W        W59394  18.949  25.876   3.037  0.1170 -0.4880  0.1280
16457W        W59395  19.594  26.516   2.994 -0.3179  0.0204  0.0491
16458W        W59396  19.197  25.876   0.257 -0.1735 -0.1144 -0.1321
16459W        W59397  22.828  30.603   0.161 -0.0599 -0.3027 -0.4945
16460W        W59398  20.053  25.322   1.905  0.0254  0.0544  0.1333
16461W        W59399  19.919  26.353   0.075  0.2644  0.0561  0.3170
16462W        W59400  17.932  26.138   1.716 -0.0517  0.0381  0.0826
16463W        W59401  20.372  27.499  31.246  0.0967 -0.3514 -0.2356
16464W        W59402  19.955  24.969   2.574  0.1592 -0.3075  0.0893
16465W        W59403  18.441  28.387   2.349  0.0722 -0.1571 -0.0866
16466W        W59404  19.384  27.466  31.833  0.0253  0.0275 -0.1480
16467W        W59405  18.414  26.629   2.724  0.3096 -0.0362 -0.1456
16468W        W59406  20.671  24.939   1.007  0.1047 -0.0296  0.2365
16469W        W59407  19.476  25.998  31.274 -0.1669 -0.0403 -0.0967
16470W        W59408  19.683  25.759   2.127 -0.3548  0.0437 -0.0480
16471W        W59409  21.465  25.289   3.450 -0.0459  0.0237  0.1578
16472W        W59410  21.038  27.841  30.863  0.3332 -0.1647  0.3087
16473W        W59411  19.733  24.381   2.880 -0.3604 -0.1795 -0.0092
16474W        W59412  18.251  26.449   3.248  0.1745 -0.0486  0.1093
16475W        W59413  22.279  27.781   1.117 -0.2509  0.1221 -0.0296
16476W        W59414  17.024  27.074   0.625  0.1545  0.1087 -0.1337
16477W        W59415  20.244  28.566   4.064 -0.1025 -0.2725  0.0828
16478W        W59416  18.036  25.927   3.178 -0.3064  0.1898  0.0579
16479W        W59417  19.579  26.475   0.525  0.3855  0.1866  0.0541
16480W        W59418  18.557  25.317  31.775 -0.1067  0.1121 -0.2895
16481W        W59419  19.305  27.969   1.227  0.0678  0.0617 -0.0745
16482W        W59420  20.663  27.427   1.432  0.0380  0.4926  0.3544
16483W        W59421  19.102  25.770  31.025 -0.0503  0.2426  0.1844
16484W        W59422  20.135  25.421   2.427 -0.2526 -0.1119 -0.0232
16485W        W59423  17.666  28.223   2.155  0.0900  0.2359  0.0296
16486W        W59424  20.656  26.402   0.545 -0.0503 -0.0107  0.0323
16487W        W59425  19.335  27.032   0.512 -0.5548  0.0287  0.2967
16488W        W59426  19.100  27.650   0.870 -0.2519 -0.0542  0.0314
16489W        W59427  18.911  25.407   3.199  0.0451  0.0498  0.1023
16490W        W59428  20.743  27.704   2.444 -0.4237 -0.0163  0.3005
16491W        W59429  20.449  25.572   1.606  0.3519  0.1568 -0.1588
16492W        W59430  20.325  24.618   1.242  0.0721 -0.0782 -0.3606
16493W        W59431  20.226  25.786   2.069  0.0312 -0.2691  0.1503
16494W        W59432  19.550  26.871   2.138  0.0273  0.1266 -0.0294
16495W        W59433  19.178  26.934   3.659 -0.0104 -0.0095  0.1684
16496W        W59434  22.309  28.674   1.523 -0.0875  0.3039 -0.1062
16497W        W59435  23.343  27.250   0.951  0.2144  0.1731 -0.2696
16498W        W59436  21.563  24.691   2.384  0.0052  0.1483  0.2828
16499W        W59437  21.288  25.116   2.488 -0.4901  0.0398 -0.1611
16500W        W59438  19.792  26.401  31.584 -0.0464 -0.0963 -0.1862
16501W        W59439  17.856  25.590   0.295 -0.2167  0.1830  0.0294
16502W        W59440  20.910  27.311   2.976  0.1130 -0.0706  0.2130
16503W        W59441  20.481  27.246  31.913  0.2269  0.2182 -0.0344
16504W        W59442  20.219  26.199   2.498 -0.1709 -0.0535 -0.0040
16505W        W59443  18.212  27.003  31.451  0.3932 -0.4121 -0.0392
16506W        W59444  20.538  27.645   1.863  0.0745 -0.2832 -0.0467
16507W        W59445  20.366  26.742   0.686 -0.4003 -0.4696 -0.0136
16508W        W59446  17.961  26.590   2.886 -0.1021 -0.0568 -0.0834
16509W        W59447  18.924  28.727   2.331  0.2367 -0.1401 -0.1334
16510W        W59448  19.175  26.217  30.629 -0.2727  0.3683 -0.0825
16511W        W59449  20.557  25.899  31.545  0.2411 -0.0120 -0.1590
16512W        W59450  20.900  28.737   1.816  0.0055 -0.2173 -0.2800
16513W        W59451  21.449  27.382   4.019 -0.0960 -0.1375  0.0059
16514W        W59452  20.364  24.578   0.454 -0.2168 -0.5532  0.1429
16515W        W59453  20.792  26.722   2.856 -0.0409 -0.0978 -0.1156
16516W        W59454  18.249  27.688   0.216 -0.2962 -0.1739  0.1034
16517W        W59455  21.685  24.108  31.497  0.0237 -0.0685  0.0360
16518W        W59456  19.658  28.365   1.713  0.1719 -0.1073 -0.1359
16519W        W59457  18.658  27.556   2.843 -0.2058 -0.0458 -0.0256
16520W        W59458  19.570  26.915  31.517 -0.2177 -0.0796 -0.0960
16521W        W59459  18.723  25.141   1.379  0.0049 -0.0897  0.1926
16522W        W59460  19.268  27.973   1.726  0.2850 -0.1573  0.1115
16523W        W59461  17.860  26.102   0.393 -0.1733 -0.2941 -0.0547
16524W        W59462  21.096  24.486   2.249  0.0482 -0.0273  0.0332
16525W        W59463  20.304  26.705   1.826 -0.0509 -0.0158 -0.1003
16526W        W59464  17.715  26.917  31.772  0.1499  0.1612  0.0312
16527W        W59465  19.463  29.343   1.951  0.0518 -0.0573 -0.0485
16528W        W59466  20.777  27.134   2.391 -0.0530 -0.1795  0.2393
16529W        W59467  18.343  26.399   1.419 -0.3656 -0.0054 -0.2484
16530W        W59468  18.325  26.056   2.842  0.1061  0.1600  0.0317
16531W        W59469  19.892  27.518   3.582 -0.0666  0.0283  0.0721
16532W        W59470  19.527  28.895   1.082  0.2656 -0.0809  0.2564
16533W        W59471  17.866  26.741   0.533 -0.1343  0.1501  0.2326
16534W        W59472  19.839  30.136   0.368 -0.0839  0.1876 -0.4186
16535W        W59473  19.425  26.906   2.617  0.1519  0.2604  0.0908
16536W        W59474  18.442  27.037   3.047  0.3542 -0.0569  0.3748
16537W        W59475  18.013  30.067   1.320  0.0046 -0.2302 -0.0910
16538W        W59476  22.179  29.011   0.085 -0.2155 -0.3189 -0.2111
16539W        W59477  21.249  28.800   1.495 -0.2907 -0.0932  0.1559
16540W        W59478  20.506  28.126   2.397 -0.2281  0.3770  0.0358
16541W        W59479  20.047  24.998   0.429  0.1725  0.3144 -0.0713
16542W        W59480  19.784  27.788   1.006 -0.0461 -0.0082  0.1893
16543W        W59481  17.418  27.731  30.631  0.0132  0.1599 -0.1437
16544W        W59482  20.035  27.379  31.640 -0.0225  0.1820  0.1166
16545W        W59483  19.065  27.041   1.583  0.0641 -0.0459  0.1913
16546W        W59484  23.255  26.731   4.938  0.1134 -0.0849 -0.0344
16547W        W59485  20.606  25.098   1.511  0.0766  0.3217 -0.0614
16548W        W59486  20.911  26.067   2.354  0.2809  0.1483 -0.0269
16549W        W59487  21.164  25.948   1.560  0.1605 -0.2253  0.1600
16550W        W59488  19.333  27.397   3.427  0.0041  0.1890  0.2625
16551W        W59489  19.687  26.093   3.345 -0.0744 -0.3201  0.0393
16552W        W59490  19.095  26.559   0.408  0.0595  0.0688  0.0414
16553W        W59491  18.080  26.934   3.319 -0.1233  0.3269  0.1911
16554W        W59492  21.989  24.503   4.442 -0.0254  0.1544  0.0688
16555W        W59493  19.919  28.043   3.699 -0.1306  0.3310  0.1244
16556W        W59494  22.294  29.529   0.154  0.0283  0.3430  0.1122
16557W        W59495  17.908  26.334  31.010  0.1304  0.0731 -0.0067
16558W        W59496  19.541  27.010  30.881  0.0269  0.0616 -0.2335
16559W        W59497  20.872  23.846   3.170 -0.1556 -0.2087  0.0905
16560W        W59498  19.728  27.329   1.265 -0.3038  0.2131 -0.7251
16561W        W59499  21.034  26.131   1.133  0.5046 -0.1478  0.3789
16562W        W59500  20.360  29.187   1.180  0.2014  0.2242 -0.0614
16563W        W59501  20.090  28.240   1.372 -0.2914  0.0508  0.2687
16564W        W59502  19.365  28.756   2.020  0.0059 -0.3825  0.0242
16565W        W59503  19.464  25.481  31.324  0.1527 -0.0915  0.0545
16566W        W59504  21.989  23.981   3.101 -0.2837  0.0444 -0.2560
16567W        W59505  19.040  27.061   2.253 -0.4068  0.1074  0.2400
16568W        W59506  21.004  24.278   3.301  0.1400 -0.3681 -0.1204
16569W        W59507  18.880  27.821   0.372  0.1287  0.0691 -0.1636
16570W        W59508  20.300  26.176   1.661  0.3346 -0.0462  0.1877
16571W        W59509  20.144  26.061   3.442 -0.2778  0.0651  0.0382
16572W        W59510  18.918  27.095   2.808 -0.0248  0.1081 -0.1432
16573W        W59511  18.744  26.126  31.966  0.2795 -0.0869  0.0666
16574W        W59512  20.867  27.694   3.230  0.0097  0.0276 -0.1905
16575W        W59513  19.709  27.795   1.494  0.0786  0.1017 -0.3069
16576W        W59514  21.966  27.166   3.399  0.0371  0.0355  0.1907
16577W        W59515  18.474  24.738   1.618 -0.0930 -0.0278  0.3122
16578W        W59516  21.253  26.956   0.105 -0.1854 -0.2568 -0.0626
16579W        W59517  17.549  27.114   0.624  0.0089 -0.0512 -0.0340
16580W        W59518  19.991  26.233   2.932 -0.1116  0.3258 -0.2622
16581W        W59519  21.379  27.562   5.280 -0.0165 -0.1502  0.2846
16582W        W59520  18.380  25.059   0.181  0.0650 -0.0641  0.2347
16583W        W59521  23.020  27.669   1.021 -0.0857  0.1106 -0.1454
16584W        W59522  20.801  25.831   1.904 -0.0244 -0.1721  0.0934
16585W        W59523  19.489  28.410  31.753 -0.0243  0.2940 -0.1643
16586W        W59524  21.219  27.388   1.619 -0.2283 -0.0877  0.0770
16587W        W59525  20.954  28.247   3.575  0.3433  0.1795 -0.0501
16588W        W59526  17.401  25.898   1.652 -0.1730  0.0083 -0.1519
16589W        W59527  19.686  27.296   2.977 -0.1679  0.2594 -0.3139
16590W        W59528  22.262  28.238   1.751  0.1459  0.0214  0.1461
16591W        W59529  20.854  24.456   0.864  0.1401  0.0811 -0.0290
16592W        W59530  17.600  27.161   2.005 -0.0722  0.3359 -0.1498
16593W        W59531  17.719  27.208   1.450 -0.0557  0.0383 -0.0322
16594W        W59532  20.929  25.616   0.953 -0.0118 -0.1051  0.0656
16595W        W59533  20.393  24.979   2.211 -0.2812  0.1514  0.0761
16596W        W59534  17.635  28.330   0.673 -0.2113  0.2657 -0.2507
16597W        W59535  20.390  23.378   2.453  0.2441 -0.2425 -0.1866
16598W        W59536  19.661  27.759   3.087  0.0379 -0.1540 -0.0158
16599W        W59537  18.530  28.801   3.098 -0.2759 -0.0443 -0.2809
16600W        W59538  17.973  25.874  28.943  0.2310 -0.1424 -0.0705
16601W        W59539  18.530  26.351   0.829  0.0456 -0.1842 -0.0440
16602W        W59540  19.608  26.922   1.573  0.0768 -0.0662  0.0231
16603W        W59541  18.644  26.639   1.713 -0.2594  0.2717 -0.0201
16604W        W59542  23.381  27.408   1.875 -0.2506  0.0231  0.2497
16605W        W59543  19.802  26.918   0.779  0.0919 -0.2365 -0.0888
16606W        W59544  21.349  27.562   3.061  0.2513  0.0799  0.1930
16607W        W59545  18.983  24.079   2.669 -0.2382  0.4132  0.1853
16608W        W59546  22.148  24.674   0.772  0.2161  0.3646  0.3014
16609W        W59547  20.526  25.004   0.277 -0.3568  0.3351 -0.1112
16610W        W59548  18.874  26.713   3.153  0.0313 -0.0419  0.0545
16611W        W59549  18.336  27.490  30.479  0.3756  0.2201 -0.0446
16612W        W59550  18.088  26.802  30.952  0.1025  0.3075 -0.1224
16613W        W59551  18.797  26.701   1.262 -0.1597  0.1943  0.0574
16614W        W59552  18.492  25.756   3.206  0.1779  0.0241 -0.2304
16615W        W59553  19.162  25.568   2.666 -0.0151  0.4603  0.2220
16616W        W59554  17.926  26.504   0.085 -0.1059  0.2790  0.1477
16617W        W59555  19.333  26.820  31.960  0.1830 -0.1584 -0.1851
16618W        W59556  21.316  28.290  31.779  0.0403  0.2698 -0.0730
16619W        W59557  18.611  25.645   1.473 -0.0470  0.2948  0.0961
16620W        W59558  18.301  24.978   1.185  0.0556  0.3988 -0.2108
16621W        W59559  21.595  29.311   2.286  0.0244  0.1055  0.0374
16622W        W59560  22.372  28.758   0.958 -0.2895 -0.0119  0.0744
16623W        W59561  19.180  24.768   0.561  0.0613  0.3197 -0.0290
16624W        W59562  23.109  27.521   2.869 -0.0025 -0.3223  0.2600
16625W        W59563  17.253  26.540  29.929  0.1156 -0.2193  0.0514
16626W        W59564  19.482  26.533   3.547  0.2063  0.0653  0.2138
16627W        W59565  19.709  25.407   2.866  0.3287 -0.0931  0.3714
16628W        W59566  19.888  25.150  28.850  0.1129 -0.0305  0.1764
16629W        W59567  19.148  26.400   1.334  0.2899  0.0757 -0.3244
16630W        W59568  20.877  28.482  31.458  0.1147 -0.0154  0.3274
16631W        W59569  21.030  28.220   0.981  0.2086 -0.0472  0.3303
16632W        W59570  19.197  27.472   2.896  0.3689 -0.1042 -0.1984
16633W        W59571  18.966  29.151   1.973  0.0254  0.2047  0.0245
16634W        W59572  17.339  25.516   1.949  0.2236 -0.3017 -0.0484
16635W        W59573  21.448  26.727   0.909 -0.1316 -0.3031  0.0282
16636W        W59574  18.773  27.184   3.829 -0.0014 -0.2927 -0.2517
16637W        W59575  21.075  27.697   1.111 -0.2319 -0.1512  0.0954
16638W        W59576  20.770  24.154   2.349  0.1970 -0.0082  0.3691
16639W        W59577  20.951  27.872   1.582 -0.0310  0.1404  0.3042
16640W        W59578  19.334  25.058   1.271 -0.0443  0.0625 -0.1172
16641W        W59579  18.499  27.093   2.526  0.0633  0.2279 -0.4580
16642W        W59580  20.863  27.659   3.743 -0.3290 -0.1295 -0.0290
16643W        W59581  18.399  26.484   0.309 -0.0970  0.0792 -0.3685
16644W        W59582  19.597  26.480   1.089 -0.1218  0.1111 -0.2132
16645W        W59583  20.859  28.664   0.482 -0.4519  0.0041 -0.1696
16646W        W59584  18.266  25.487   1.086 -0.3541 -0.0190 -0.0471
16647W        W59585  20.620  25.684   0.091  0.0864  0.0425 -0.5931
16648W        W59586  19.465  25.648   3.220 -0.1761  0.0409  0.1997
16649W        W59587  19.385  28.019   0.660 -0.0390  0.2459 -0.1685
16650W        W59588  20.153  27.418   3.168  0.1845 -0.0432  0.2414
16651W        W59589  20.336  26.407  31.639 -0.1554  0.0953 -0.1114
16652W        W59590  21.832  28.418   0.738  0.1781 -0.0506  0.2324
16653W        W59591  21.974  28.095   2.848  0.2345  0.1863  0.0784
16654W        W59592  18.319  29.074   2.717 -0.2015 -0.1979 -0.1029
16655W        W59593  20.048  26.244   1.215 -0.0632  0.1961  0.0893
16656W        W59594  16.489  26.294   0.616  0.1586  0.2296 -0.2508
16657W        W59595  19.027  27.231  31.017  0.2532 -0.1081 -0.1118
16658W        W59596  19.153  26.118   0.846 -0.0424  0.0515 -0.1321
16659W        W59597  20.467  26.872   1.300 -0.0522 -0.2385  0.1706
16660W        W59598  18.407  25.771  31.707 -0.1649  0.1664  0.0671
16661W        W59599  21.392  26.122   0.286 -0.0590 -0.2247 -0.1564
16662W        W59600  19.504  28.218   4.316 -0.0408  0.0933 -0.2940
16663W        W59601  19.919  26.645   2.518 -0.0658 -0.1798  0.1396
16664W        W59602  18.361  27.022   6.322  0.0783 -0.2832 -0.1517
16665W        W59603  19.343  26.208   4.595 -0.0672 -0.0579  0.3671
16666W        W59604  20.639  27.023   4.101 -0.2584  0.1145 -0.0916
16667W        W59605  19.959  26.565   3.369 -0.0471 -0.1809 -0.0347
16668W        W59606  17.942  25.229   5.584 -0.0361 -0.3654  0.1205
16669W        W59607  19.884  29.436   4.165 -0.1123  0.2637 -0.4121
16670W        W59608  19.043  24.929   6.543 -0.1430  0.0660  0.1420
16671W        W59609  20.220  29.407   5.234 -0.0294  0.1320  0.2662
16672W        W59610  22.031  28.491   6.258 -0.1272 -0.2310 -0.0077
16673W        W59611  19.763  26.371   2.132  0.0820  0.0575 -0.2992
16674W        W59612  20.538  26.892   5.360  0.0372 -0.0560 -0.1754
16675W        W59613  19.518  27.944   6.124 -0.1747  0.0431 -0.0237
16676W        W59614  18.994  26.493   3.676 -0.1599 -0.0057  0.0297
16677W        W59615  17.245  24.617   6.941 -0.3298 -0.1777  0.1636
16678W        W59616  21.149  26.605   4.709  0.0529  0.0788  0.2923
16679W        W59617  18.190  27.019   5.307  0.1483  0.0595  0.0149
16680W        W59618  19.731  26.282   6.055  0.0596  0.1033  0.1270
16681W        W59619  19.040  26.639   4.537 -0.0857  0.0951 -0.2680
16682W        W59620  18.944  29.037   5.223 -0.3690 -0.0570  0.1193
16683W        W59621  18.737  25.337   5.397  0.1570  0.1227 -0.0711
16684W        W59622  20.864  25.780   7.223  0.2930  0.2145 -0.1203
16685W        W59623  19.831  28.262   5.060  0.3193 -0.0494  0.0150
16686W        W59624  18.748  27.651   4.599 -0.2777  0.2202  0.0532
16687W        W59625  19.368  27.095   5.966  0.0936  0.2831 -0.0897
16688W        W59626  19.322  26.261   6.450  0.3384 -0.0473  0.0305
16689W        W59627  21.049  25.511   5.139  0.0876  0.3692  0.0264
16690W        W59628  20.695  26.746   4.542  0.3155 -0.2253  0.5345
16691W        W59629  19.313  29.166   6.023 -0.0492 -0.0164  0.1740
16692W        W59630  19.887  26.999   6.086  0.0091 -0.0400  0.0316
16693W        W59631  20.814  26.133   7.720  0.3171 -0.0115 -0.0427
16694W        W59632  18.519  27.284   4.302  0.0352 -0.0130 -0.1140
16695W        W59633  16.958  28.510   5.695  0.2936 -0.2172 -0.0363
16696W        W59634  20.517  28.424   4.889  0.1648 -0.0602 -0.1326
16697W        W59635  22.123  26.829   4.704  0.2390 -0.4113  0.2529
16698W        W59636  21.952  29.715   5.565  0.1380 -0.0520  0.2274
16699W        W59637  20.505  29.491   6.549 -0.1641 -0.0567  0.0799
16700W        W59638  19.799  26.907   4.720 -0.1928 -0.0807 -0.1459
16701W        W59639  21.352  28.558   6.677 -0.0697 -0.0670  0.0859
16702W        W59640  17.336  27.930   6.631 -0.0787  0.1262 -0.1632
16703W        W59641  20.244  28.211   5.853  0.1064  0.1408 -0.0426
16704W        W59642  20.836  26.998   4.950  0.0305  0.0448  0.2705
16705W        W59643  19.425  27.161   4.608 -0.1244  0.2366 -0.0705
16706W        W59644  21.146  27.073   4.467 -0.0122 -0.2363  0.2815
16707W        W59645  18.913  27.299   6.292 -0.1436  0.2874  0.0962
16708W        W59646  18.405  26.456   5.688 -0.2438 -0.2822  0.1329
16709W        W59647  21.480  25.072   7.724 -0.2331 -0.0100  0.1146
16710W        W59648  18.948  27.738   3.267 -0.2872  0.0540 -0.2033
16711W        W59649  22.586  26.274   3.504  0.0683 -0.2929 -0.1760
16712W        W59650  18.713  25.805   2.032  0.1352  0.4255  0.1287
16713W        W59651  21.136  25.433   4.187 -0.0606 -0.0213  0.0624
16714W        W59652  19.688  24.492   4.188 -0.0059 -0.3260  0.2913
16715W        W59653  19.175  28.185   5.747  0.1090  0.2361  0.3243
16716W        W59654  20.095  24.982   6.665  0.0788 -0.0209  0.0547
16717W        W59655  22.071  27.696   8.197  0.0382 -0.2281  0.3200
16718W        W59656  18.893  25.438   4.508 -0.1797 -0.1022 -0.0433
16719W        W59657  19.233  26.931   5.516  0.3028  0.3303 -0.1017
16720W        W59658  19.798  29.254   6.776 -0.1381 -0.0339  0.2987
16721W        W59659  18.051  26.052   5.473  0.0913  0.0215 -0.0160
16722W        W59660  21.824  28.318   5.757 -0.0156  0.1307  0.1529
16723W        W59661  21.490  28.630   6.140  0.3278 -0.1664  0.2095
16724W        W59662  20.847  27.473   5.150  0.0524 -0.1288 -0.0564
16725W        W59663  18.434  26.192   6.555 -0.2612 -0.1335 -0.0358
16726W        W59664  16.976  27.385   7.109  0.2158 -0.1906  0.1994
16727W        W59665  17.924  26.794   7.125 -0.0092 -0.2056  0.2500
16728W        W59666  19.028  25.798   3.506 -0.2496 -0.0067 -0.2246
16729W        W59667  22.074  26.461   6.228  0.1801 -0.0283  0.3032
16730W        W59668  17.057  27.563   7.798 -0.0735  0.2978 -0.0888
16731W        W59669  21.297  24.407   5.100 -0.2272  0.0454  0.1535
16732W        W59670  19.649  27.147   6.510  0.0398  0.1921  0.0945
16733W        W59671  21.567  26.467   5.578 -0.0413  0.2602 -0.0304
16734W        W59672  21.236  28.387   4.289  0.0093 -0.0716 -0.0969
16735W        W59673  19.935  26.303   5.554  0.1181 -0.2158  0.0360
16736W        W59674  20.275  26.042   6.530  0.1630 -0.0928 -0.1834
16737W        W59675  19.480  26.075   2.865  0.2630  0.0265 -0.1315
16738W        W59676  20.194  26.764   4.238 -0.3005 -0.0612  0.0119
16739W        W59677  20.030  26.592   6.389  0.0626  0.1504  0.2433
16740W        W59678  21.986  24.504   3.318  0.1113 -0.1109 -0.2969
16741W        W59679  18.606  28.682   4.452 -0.4475  0.0403 -0.0114
16742W        W59680  18.919  25.002   5.819 -0.2138 -0.0733 -0.1988
16743W        W59681  18.509  27.170   4.921  0.1482  0.1635  0.0595
16744W        W59682  18.399  26.865   7.061  0.4021  0.0477  0.3891
16745W        W59683  17.702  27.211   5.037 -0.3557  0.2419  0.1015
16746W        W59684  17.630  25.219   6.139 -0.2339 -0.2278 -0.2073
16747W        W59685  18.956  27.897   6.100  0.7694 -0.0446 -0.2267
16748W        W59686  21.733  24.697   3.968 -0.1017 -0.0014 -0.0469
16749W        W59687  21.150  25.394   7.529  0.1942  0.2541  0.0446
16750W        W59688  19.120  25.452   5.060  0.2622  0.0307  0.2678
16751W        W59689  18.044  27.504   5.569 -0.1520 -0.4792  0.1424
16752W        W59690  20.792  28.575   4.413  0.0815  0.0972 -0.1186
16753W        W59691  21.563  25.424   4.512 -0.1045 -0.0066  0.0881
16754W        W59692  20.116  26.605   5.170 -0.0088 -0.1955  0.2326
16755W        W59693  17.219  26.428   6.853  0.2200  0.1034 -0.0021
16756W        W59694  18.562  25.904   4.681  0.2978 -0.0451 -0.1797
16757W        W59695  19.598  24.225   6.662  0.1576  0.3702  0.0544
16758W        W59696  17.567  24.686   6.590 -0.1437 -0.4657 -0.0697
16759W        W59697  21.345  27.044   6.884 -0.0876 -0.0593 -0.0686
16760W        W59698  18.846  26.192   4.369 -0.0905 -0.1499  0.0832
16761W        W59699  21.057  26.209   4.391  0.3350  0.0212  0.1539
16762W        W59700  20.526  26.334   5.436 -0.1003 -0.2245 -0.2071
16763W        W59701  17.072  26.863   4.627  0.3624  0.0181 -0.1269
16764W        W59702  21.528  26.993   8.080  0.1463 -0.1135 -0.2276
16765W        W59703  19.721  28.771   4.246 -0.3124  0.2243  0.3057
16766W        W59704  21.363  29.079   6.875  0.3306 -0.1702  0.0179
16767W        W59705  21.765  27.455   5.650 -0.1404  0.1634  0.1666
16768W        W59706  18.916  27.008   6.919 -0.0515 -0.1997 -0.0037
16769W        W59707  18.014  25.576   3.488 -0.0181  0.1558  0.3109
16770W        W59708  19.158  28.439   4.759  0.5152  0.3621  0.0456
16771W        W59709  20.956  27.507   4.229 -0.0305 -0.1487 -0.0737
16772W        W59710  18.622  24.544   5.681  0.1022  0.1074 -0.2834
16773W        W59711  21.096  28.843   5.376 -0.2552  0.1712  0.1401
16774W        W59712  20.464  27.808   3.469  0.0182 -0.1809  0.5084
16775W        W59713  17.297  28.825   6.266 -0.1228  0.0809  0.0197
16776W        W59714  21.336  26.554   6.837 -0.0642 -0.5100 -0.0362
16777W        W59715  22.226  25.996   6.492 -0.0971 -0.0654 -0.0800
16778W        W59716  20.686  27.160   5.889  0.0821  0.1184 -0.1034
16779W        W59717  18.812  26.086   3.868 -0.0973  0.1345  0.0143
16780W        W59718  19.982  29.856   5.369  0.0148 -0.0966  0.2428
16781W        W59719  19.556  27.652   4.484 -0.2310  0.0773  0.0168
16782W        W59720  17.928  27.246   4.149  0.3547  0.0155  0.0174
16783W        W59721  18.192  27.943   5.402 -0.0151  0.2200 -0.0956
16784W        W59722  21.697  24.960   5.809 -0.4004 -0.1511 -0.0519
16785W        W59723  18.689  26.696   6.552 -0.1489 -0.2478  0.1284
16786W        W59724  19.790  26.229   6.573 -0.1073  0.1603 -0.0145
16787W        W59725  18.349  26.540   3.991  0.0593 -0.0845  0.0746
16788W        W59726  18.499  27.780   6.543 -0.3083 -0.0618  0.0933
16789W        W59727  20.863  25.964   5.307 -0.1847  0.0046 -0.3592
16790W        W59728  19.732  24.844   3.030  0.0431  0.1109  0.0113
16791W        W59729  20.988  27.115   6.305  0.1632  0.0271 -0.5954
16792W        W59730  21.488  27.061   3.611 -0.3168  0.2332 -0.0899
16793W        W59731  21.254  26.742   5.834 -0.0996  0.1897  0.1193
16794W        W59732  19.356  25.451   3.685  0.0077 -0.3204  0.0333
16795W        W59733  17.263  27.372   6.637  0.0744 -0.0814 -0.1325
16796W        W59734  19.212  27.544   4.808 -0.1921 -0.0312 -0.0339
16797W        W59735  19.292  27.537   6.113  0.1839  0.1322  0.0920
16798W        W59736  19.902  25.212   3.535 -0.1609 -0.0016  0.0030
16799W        W59737  21.484  26.738   5.073 -0.2935  0.4536 -0.2427
16800W        W59738  17.992  28.400   8.341  0.1936  0.0866 -0.3125
16801W        W59739  20.965  26.788   7.247  0.1504 -0.2332  0.0781
16802W        W59740  20.339  28.300   5.366 -0.0482  0.0431  0.2490
16803W        W59741  19.613  24.901   5.168 -0.1056 -0.2868 -0.1244
16804W        W59742  19.411  26.991   1.146  0.0194 -0.2531  0.3114
16805W        W59743  20.557  25.379   4.640  0.1881 -0.2216 -0.0244
16806W        W59744  18.671  28.200   4.432  0.0124  0.3877  0.0448
16807W        W59745  21.411  25.989   5.467  0.0563 -0.0467  0.2968
16808W        W59746  21.208  25.799   4.632 -0.1210  0.1700 -0.0510
16809W        W59747  20.111  25.567   6.569 -0.5875  0.0255  0.1965
16810W        W59748  22.225  26.323   7.391 -0.1524  0.1399 -0.3692
16811W        W59749  21.103  26.560   3.632  0.3384 -0.1371 -0.1415
16812W        W59750  20.396  26.876   6.093  0.0676  0.0776 -0.0474
16813W        W59751  18.564  26.798   3.572 -0.2323  0.0688 -0.1223
16814W        W59752  21.579  26.337   6.064 -0.2936 -0.4019 -0.3181
16815W        W59753  19.609  25.733   6.581  0.2939  0.0616 -0.0428
16816W        W59754  19.092  29.371   5.642 -0.1629 -0.2817 -0.0514
16817W        W59755  20.960  27.052   5.423  0.2417  0.3429  0.0942
16818W        W59756  20.103  26.845   5.661  0.1381  0.2258 -0.0106
16819W        W59757  18.900  24.582   6.155 -0.1174 -0.0400 -0.0817
16820W        W59758  20.379  25.195   3.893 -0.0403  0.1322 -0.3042
16821W        W59759  19.964  27.613   4.199  0.1960 -0.0104 -0.1875
16822W        W59760  19.685  28.211   5.718 -0.1712 -0.0508  0.3456
16823W        W59761  19.728  24.761   4.698 -0.2647  0.0556  0.1772
16824W        W59762  18.048  27.293   4.657 -0.2314  0.2096  0.0055
16825W        W59763  20.447  28.016   3.928 -0.0378  0.0221  0.0664
16826W        W59764  20.848  29.092   6.724 -0.3332  0.0028  0.2284
16827W        W59765  18.451  27.975   4.864  0.2919 -0.0758  0.1241
16828W        W59766  20.562  25.654   6.406 -0.1758  0.2009  0.2166
16829W        W59767  18.452  28.505   4.890 -0.1363  0.1389 -0.0708
16830W        W59768  17.640  26.736   4.918  0.0698 -0.0041 -0.1633
16831W        W59769  18.137  26.821   4.835  0.2453 -0.3858  0.0904
16832W        W59770  20.376  25.534   5.845  0.3661  0.0776  0.0988
16833W        W59771  21.271  26.545   2.941  0.1191 -0.0716  0.0922
16834W        W59772  18.876  23.651   5.839  0.1883  0.3782 -0.0020
16835W        W59773  19.326  24.917   6.137 -0.1326 -0.0844  0.0830
16836W        W59774  18.056  28.376   5.692 -0.1388 -0.0666 -0.4431
16837W        W59775  19.949  27.501   6.682  0.1566 -0.1983  0.1703
16838W        W59776  20.720  26.283   3.784  0.2112 -0.0477  0.0520
16839W        W59777  19.790  26.664   6.821 -0.0880  0.0951  0.2997
16840W        W59778  19.890  25.323   6.987  0.1333 -0.1564  0.0758
16841W        W59779  17.777  26.133   4.945  0.1102  0.1801  0.0008
16842W        W59780  21.595  25.737   5.058  0.1088 -0.0915 -0.2620
16843W        W59781  18.254  26.270   4.813 -0.0462 -0.4143  0.1518
16844W        W59782  17.069  29.199   5.295  0.2467  0.0705  0.0413
16845W        W59783  20.638  28.619   5.775 -0.3976  0.2517  0.2442
16846W        W59784  18.087  26.743   4.369 -0.0930  0.2237 -0.1609
16847W        W59785  17.615  27.533   6.359 -0.0301 -0.1468 -0.0603
16848W        W59786  19.168  26.298   5.822 -0.1335 -0.2118  0.1965
16849W        W59787  20.780  26.681   5.770  0.2748 -0.0934 -0.0126
16850W        W59788  19.058  24.104   5.685  0.3449  0.4001  0.1854
16851W        W59789  18.568  25.627   5.060 -0.2676 -0.0534 -0.0728
16852W        W59790  19.613  27.324   5.078  0.1753 -0.0334 -0.0440
16853W        W59791  20.188  27.391   5.876  0.2696  0.3604 -0.1763
16854W        W59792  20.210  26.391   5.909  0.0730 -0.3191 -0.4560
16855W        W59793  18.812  29.185   6.795  0.0483  0.1874 -0.1788
16856W        W59794  19.904  25.369   6.085  0.1020 -0.0667 -0.0112
16857W        W59795  22.256  26.036   4.427  0.0066  0.2092  0.0226
16858W        W59796  19.624  26.713   5.758 -0.2486  0.0829  0.2133
16859W        W59797  19.948  27.790   5.763 -0.1508 -0.0527 -0.1043
16860W        W59798  17.664  26.754   8.231  0.0328 -0.2586  0.0115
16861W        W59799  19.247  26.642   6.744 -0.1473  0.1764  0.0233
16862W        W59800  19.052  25.508   5.882  0.2107 -0.2136  0.0641
16863W        W59801  18.923  26.052   6.707 -0.2438 -0.0466 -0.2700
16864W        W59802  19.463  28.039   4.823  0.2868  0.1182 -0.1159
16865W        W59803  18.790  26.959   5.333 -0.1021  0.0446  0.0238
16866W        W59804  21.220  24.365   2.752 -0.0307  0.1430 -0.1575
16867W        W59805  20.613  28.175   3.018  0.3943 -0.1555  0.1955
16868W        W59806  19.823  26.174   4.379  0.1812 -0.1892  0.0109
16869W        W59807  21.313  26.129   6.443  0.1496  0.0365  0.1912
16870W        W59808  20.242  27.260   2.071 -0.0028 -0.1000 -0.0185
16871W        W59809  21.107  26.507   7.785 -0.1738 -0.1203  0.0600
16872W        W59810  18.559  25.758   6.365 -0.1042 -0.0133  0.3432
16873W        W59811  22.556  25.628   4.328  0.3168  0.0732  0.3911
16874W        W59812  18.934  27.254   5.794  0.2215 -0.3472  0.0196
16875W        W59813  21.230  29.833   7.670 -0.3664  0.3147  0.1124
16876W        W59814  18.979  26.293   7.691  0.2369  0.1218 -0.1155
16877W        W59815  19.904  25.201   4.665 -0.0832  0.1748  0.0419
16878W        W59816  18.793  24.603   4.818  0.0298 -0.5550 -0.3039
16879W        W59817  19.166  27.044   4.983 -0.0290 -0.0105 -0.0130
16880W        W59818  21.709  27.922   5.457 -0.0025  0.0413  0.0750
16881W        W59819  19.080  27.927   4.438 -0.0452  0.2162  0.2994
16882W        W59820  20.962  24.974   5.097  0.0888  0.2347 -0.1508
16883W        W59821  19.532  26.702   6.297  0.1325  0.2143 -0.0240
16884W        W59822  19.446  26.399   5.393 -0.0141  0.2016  0.0189
16885W        W59823  19.388  26.037   3.763 -0.0701 -0.3942  0.0439
16886W        W59824  17.727  27.047   7.547 -0.2631 -0.1211  0.2884
16887W        W59825  18.706  24.482   6.897  0.1015 -0.1549  0.0415
16888W        W59826  22.046  27.544   4.004  0.3909  0.1357  0.1900
16889W        W59827  19.406  25.014   4.385 -0.2669 -0.2515  0.0368
16890W        W59828  20.699  26.058   6.786 -0.1225 -0.0856  0.2696
16891W        W59829  20.396  25.128   7.020 -0.0369  0.1767 -0.0048
16892W        W59830  19.020  26.836   6.284  0.1247  0.0985 -0.0424
16893W        W59831  17.536  26.907   9.018 -0.0091  0.2895  0.2329
16894W        W59832  21.265  29.008   6.395  0.0706 -0.1767 -0.2566
16895W        W59833  19.441  25.303   1.913 -0.0939  0.0058 -0.0560
16896W        W59834  21.475  25.517   5.468 -0.1591 -0.0364  0.0314
16897W        W59835  19.760  26.333   4.938  0.0106  0.2389 -0.2076
16898W        W59836  19.995  25.724   3.133 -0.1530 -0.0027  0.1130
16899W        W59837  18.257  25.296   5.188  0.1026  0.2269  0.0218
16900W        W59838  21.583  26.982   7.582 -0.0880  0.1984 -0.4008
16901W        W59839  18.229  25.499   2.893 -0.1499 -0.0035 -0.1754
16902W        W59840  20.511  26.569   6.476  0.0638 -0.0735 -0.0070
16903W        W59841  19.634  28.563   4.708  0.1737 -0.0827 -0.2564
16904W        W59842  20.159  26.986   3.744  0.1974 -0.0795  0.0521
16905W        W59843  18.822  24.837   5.337  0.1800  0.2358  0.2001
16906W        W59844  17.323  25.548   4.661 -0.1877  0.0523 -0.0891
16907W        W59845  18.179  28.847   5.721 -0.4520 -0.2670 -0.0743
16908W        W59846  19.466  25.892   5.015 -0.0629  0.1600  0.0084
16909W        W59847  19.599  26.601   4.411  0.2062 -0.2041 -0.0552
16910W        W59848  20.174  27.853   6.227  0.1164 -0.2520 -0.1180
16911W        W59849  21.607  26.538   7.211  0.2804  0.1679 -0.0358
16912W        W59850  18.914  25.136   3.632  0.1588  0.1753  0.0852
16913W        W59851  21.785  26.341   6.603 -0.0376  0.0248 -0.0222
16914W        W59852  17.850  28.203   3.620  0.0768  0.1658  0.0475
16915W        W59853  19.891  25.921   5.265  0.0223  0.0888  0.0056
16916W        W59854  18.936  28.032   4.906  0.0934 -0.1574  0.2042
16917W        W59855  17.250  27.177   7.533 -0.0847  0.5040 -0.2527
16918W        W59856  19.180  27.423   5.331 -0.1782  0.4351 -0.2031
16919W        W59857  20.270  25.911   5.545  0.2311 -0.0056 -0.3040
16920W        W59858  20.963  26.200   5.736 -0.0901  0.1771 -0.0295
16921W        W59859  20.136  27.193   5.217  0.2216  0.1999  0.0136
16922W        W59860  21.952  25.584   5.853  0.0906 -0.1207 -0.2884
16923W        W59861  19.643  27.953   6.653  0.0132  0.1265 -0.0105
16924W        W59862  19.628  27.276   5.564  0.1954  0.2128 -0.1654
16925W        W59863  21.107  28.455   5.773  0.0071 -0.0669 -0.0028
16926W        W59864  21.519  26.835   4.075  0.0683 -0.0927 -0.2321
16927W        W59865  20.284  27.248   4.310  0.2119 -0.1302 -0.3142
16928W        W59866  18.281  25.674   7.567  0.0606 -0.0304 -0.1768
16929W        W59867  21.087  25.716   6.789  0.2361 -0.0118 -0.2884
16930W        W59868  20.731  28.045   5.625 -0.0300 -0.2069 -0.0001
16931W        W59869  19.399  25.492   4.552  0.0787  0.1828 -0.1288
16932W        W59870  20.884  28.020   4.147 -0.1563 -0.0424 -0.0756
16933W        W59871  18.220  27.836   6.945 -0.0480 -0.2109 -0.0795
16934W        W59872  19.027  25.894   6.168 -0.0790 -0.2264 -0.0715
16935W        W59873  17.264  28.930   2.360 -0.0124 -0.4554  0.3417
16936W        W59874  22.237  28.098   3.302  0.0745 -0.1824  0.1934
16937W        W59875  21.747  26.639   3.189 -0.0227  0.3360  0.0110
16938W        W59876  20.304  29.072   5.615 -0.4135  0.1195 -0.1115
16939W        W59877  18.998  25.887   4.887 -0.0768  0.1151  0.3513
16940W        W59878  19.369  28.867   5.031  0.0375  0.1738 -0.1368
16941W        W59879  20.139  27.845   5.101 -0.0378  0.2033  0.2097
16942W        W59880  20.756  26.012   4.735 -0.0327  0.1154  0.0754
16943W        W59881  17.670  27.733   5.243  0.1497  0.2841  0.1371
16944W        W59882  21.758  28.847   6.546 -0.0184 -0.0276  0.0328
16945W        W59883  21.115  24.078   1.969  0.0965 -0.0901  0.1518
16946W        W59884  22.413  26.461   5.656 -0.1915 -0.1765  0.3496
16947W        W59885  21.704  24.866   5.228  0.2817  0.3394 -0.1296
16948W        W59886  21.424  28.133   7.119 -0.0712  0.0173 -0.1914
16949W        W59887  21.254  24.878   6.004  0.0510 -0.2178  0.1633
16950W        W59888  19.768  26.692   3.904 -0.0639  0.0510  0.1484
16951W        W59889  19.201  27.811   6.554 -0.1273 -0.3026  0.2655
16952W        W59890  22.281  25.565   7.898 -0.2562  0.2326 -0.0429
16953W        W59891  17.686  29.002   5.935  0.2272 -0.1629 -0.0278
16954W        W59892  21.338  28.010   5.072  0.1597 -0.2244 -0.0840
16955W        W59893  17.817  24.912   5.252  0.1016  0.1768 -0.2201
16956W        W59894  18.931  26.440   5.416 -0.2172  0.1294  0.0368
16957W        W59895  20.881  25.347   6.133  0.0832 -0.4043 -0.0428
16958W        W59896  20.673  26.760   3.638  0.0729  0.2129  0.0395
16959W        W59897  20.501  26.384   4.287  0.0474  0.0179  0.0150
16960W        W59898  17.805  27.734   3.967  0.3565 -0.0800 -0.0259
16961W        W59899  17.592  28.025   6.161 -0.0665  0.0130 -0.1245
16962W        W59900  20.704  28.094   6.246  0.3874 -0.3185 -0.0503
16963W        W59901  16.919  25.480   5.076 -0.0415 -0.1169 -0.2265
16964W        W59902  20.116  26.532   4.698  0.1037  0.0854  0.1966
16965W        W59903  19.512  25.696   6.083  0.1455  0.0236  0.0492
16966W        W59904  21.626  25.533   7.665  0.1443 -0.1856  0.1927
16967W        W59905  17.997  25.039   6.462 -0.3436 -0.0378  0.1648
16968W        W59906  21.050  25.266   4.688  0.1216  0.2822  0.2026
16969W        W59907  20.584  27.696   5.947 -0.0982 -0.1436 -0.3302
16970W        W59908  18.854  27.715   5.663 -0.3563 -0.3033 -0.1518
16971W        W59909  20.244  26.494   3.758  0.2392  0.2304 -0.0089
16972W        W59910  21.741  26.821   6.788 -0.0750 -0.0070 -0.0527
16973W        W59911  21.062  26.876   3.248  0.2060  0.3238  0.5608
16974W        W59912  19.902  28.304   6.180 -0.0541 -0.3355 -0.0357
16975W        W59913  19.360  25.570   5.511  0.3625 -0.0866  0.1541
16976W        W59914  21.039  27.094   3.884 -0.1698  0.1931  0.2277
16977W        W59915  18.848  26.434   4.925  0.1208 -0.1026  0.0172
16978W        W59916  19.945  27.056   7.094 -0.1208  0.0745 -0.4367
16979W        W59917  21.537  27.843   5.879 -0.1379  0.0663 -0.1449
16980W        W59918  18.488  24.049   5.704 -0.1433 -0.2609  0.3704
16981W        W59919  22.268  26.435   3.864  0.0858  0.0540 -0.0009
16982W        W59920  20.267  26.161   5.034 -0.0279 -0.2747 -0.0949
16983W        W59921  18.900  28.443   3.248 -0.0059 -0.0496 -0.2309
16984W        W59922  21.345  27.209   4.906 -0.4656 -0.2433  0.0069
16985W        W59923  20.597  29.752   5.321  0.0685  0.0704  0.2161
16986W        W59924  17.200  25.505   6.758  0.3107 -0.1407 -0.0347
16987W        W59925  21.080  28.928   5.941 -0.1628  0.1249  0.1246
16988W        W59926  22.320  28.335   5.874 -0.1193 -0.1466  0.2230
16989W        W59927  20.296  27.007   4.770 -0.1153  0.1568 -0.0944
16990W        W59928  18.226  25.622   5.506  0.0044 -0.1892 -0.0630
16991W        W59929  17.266  28.224   4.459 -0.3778 -0.3079 -0.0572
16992W        W59930  21.274  24.985   5.506  0.3575  0.1872 -0.2174
16993W        W59931  21.435  27.274   6.472  0.3007 -0.3393 -0.1672
16994W        W59932  19.526  27.251   3.856 -0.1829  0.0249 -0.1908
16995W        W59933  20.936  25.230   7.022  0.3673 -0.0048 -0.0444
16996W        W59934  18.802  29.021   6.023  0.0514 -0.0411 -0.4343
16997W        W59935  19.699  28.882   6.343  0.1114  0.0039 -0.0566
16998W        W59936  18.546  26.611   4.486 -0.3015  0.1824  0.0641
16999W        W59937  20.194  26.348   6.940  0.0834  0.0456 -0.0850
17000W        W59938  19.885  26.872   2.966  0.1857  0.1667  0.0572
17001W        W59939  20.426  29.403   4.232 -0.2000  0.2025 -0.0954
17002W        W59940  20.699  29.398   5.704 -0.1985  0.0113 -0.2900
17003W        W59941  19.840  26.193   3.875  0.0339  0.1829  0.6237
17004W        W59942  21.125  27.317   3.436  0.4616  0.0291 -0.0665
17005W        W59943  19.655  25.357   5.032 -0.0179  0.2216  0.0787
17006W        W59944  21.929  25.109   4.315 -0.1325  0.3128  0.1769
17007W        W59945  20.466  24.791   5.436 -0.2160 -0.0257 -0.1686
17008W        W59946  18.684  28.126   5.266 -0.0364  0.0753  0.2234
17009W        W59947  17.643  27.009   4.455 -0.1467 -0.0910 -0.0425
17010W        W59948  19.358  26.567   4.898  0.2581 -0.0964 -0.2131
17011W        W59949  18.483  27.509   6.135 -0.0876  0.0071  0.1776
17012W        W59950  19.672  25.221   6.468  0.2537 -0.0124 -0.1073
17013W        W59951  18.575  25.511   5.847 -0.0799  0.0642  0.2508
17014W        W59952  18.809  26.763   5.788  0.1172  0.1537  0.0331
17015W        W59953  18.636  24.326   5.203  0.0770 -0.1029 -0.1910
17016W        W59954  21.542  28.146   4.584  0.0155 -0.1470 -0.0296
17017W        W59955  18.804  23.784   4.396  0.0956 -0.1520  0.0751
17018W        W59956  17.746  25.776   5.762  0.3462  0.1610 -0.1255
17019W        W59957  20.379  27.623   5.511 -0.0923 -0.0460 -0.0120
17020W        W59958  20.925  27.721   4.754  0.1305  0.0715 -0.0028
17021W        W59959  19.682  26.846   5.288 -0.2588  0.0127  0.0312
17022W        W59960  21.751  27.146   7.170 -0.0265  0.0561 -0.0641
17023W        W59961  18.882  27.099   4.552 -0.0887  0.0076 -0.2315
17024W        W59962  20.096  25.872   6.088 -0.0821 -0.0237  0.4056
17025W        W59963  20.490  25.591   6.941  0.2117  0.2956 -0.0064
17026W        W59964  18.821  26.779   4.109  0.2862 -0.0748 -0.3860
17027W        W59965  19.968  25.866   6.910  0.3242 -0.1802 -0.0427
17028W        W59966  20.237  29.521   4.724 -0.3574 -0.0643 -0.1929
17029W        W59967  20.489  27.707   4.307  0.2554 -0.1713 -0.1387
17030W        W59968  19.420  26.948   7.082 -0.1016  0.0025 -0.2403
17031W        W59969  20.051  29.183   6.365 -0.0922  0.3617 -0.0215
17032W        W59970  18.647  24.022   6.829 -0.0560 -0.0074 -0.0227
17033W        W59971  21.636  27.503   3.499 -0.1825  0.0276  0.0674
17034W        W59972  18.928  28.474   6.093  0.2476 -0.2541 -0.0492
17035W        W59973  20.910  26.263   3.207  0.1546  0.1041  0.0492
17036W        W59974  21.643  24.753   6.937  0.1409  0.0509  0.0665
17037W        W59975  20.577  25.565   4.161 -0.1361  0.1052 -0.2087
17038W        W59976  18.616  24.258   6.402 -0.3214 -0.1875 -0.1088
17039W        W59977  18.607  28.222   6.376 -0.0293 -0.0793  0.0986
17040W        W59978  21.457  27.167   5.979  0.2533  0.0520 -0.0093
17041W        W59979  18.340  26.123   4.247  0.0723  0.0657 -0.1309
17042W        W59980  19.914  25.696   3.709  0.3305 -0.1401 -0.0566
17043W        W59981  20.429  27.578   4.857 -0.0434  0.2498 -0.2319
17044W        W59982  18.036  25.943   6.750 -0.1353  0.1228  0.2618
17045W        W59983  20.418  26.416   3.255  0.0518 -0.0661 -0.1119
17046W        W59984  19.731  26.632   7.318 -0.2265  0.0446  0.4254
17047W        W59985  19.948  27.972   4.599 -0.3200  0.1965  0.0385
17048W        W59986  21.398  26.805   6.355  0.1147  0.0179 -0.3097
17049W        W59987  19.300  26.923   4.172  0.1006 -0.0857  0.2236
17050W        W59988  21.288  26.181   4.953  0.0080  0.3817 -0.1241
17051W        W59989  19.612  29.975   5.753  0.1006  0.3835 -0.2053
17052W        W59990  21.218  28.781   7.553 -0.2453  0.5363 -0.1015
17053W        W59991  19.317  29.347   5.145 -0.1811 -0.3742 -0.4134
17054W        W59992  20.946  27.570   5.646  0.0482  0.0334 -0.0292
17055W        W59993  18.303  25.456   6.684  0.1239 -0.0432  0.0502
17056W        W59994  19.231  27.983   5.292 -0.0562  0.0195  0.2540
17057W        W59995  19.955  27.431   4.706  0.0376 -0.0093 -0.0158
17058W        W59996  20.908  25.675   5.734  0.0054  0.1450 -0.1722
17059W        W59997  18.125  25.412   6.137 -0.1633  0.2677 -0.0860
17060W        W59998  20.853  24.981   4.288  0.1825 -0.0225 -0.1872
17061W        W59999  20.169  28.746   6.088  0.0157 -0.1736  0.0610
17062W        W60000  20.488  27.382   6.402 -0.1389 -0.3120 -0.0843
17063W        W60001  19.870  26.837   8.586 -0.2452 -0.0083 -0.2208
17064W        W60002  18.356  25.411   8.022  0.2614  0.0824 -0.0260
17065W        W60003  21.227  26.221   7.317  0.1227  0.2421  0.2102
17066W        W60004  21.435  27.044   8.661  0.2797 -0.0125  0.0600
17067W        W60005  17.411  26.769   9.478 -0.1595 -0.0052  0.1775
17068W        W60006  19.794  28.857   7.138  0.2865 -0.3188  0.2689
17069W        W60007  21.333  27.444   7.913 -0.4034  0.1745  0.1891
17070W        W60008  19.508  27.246   9.823 -0.1109  0.0255 -0.1506
17071W        W60009  20.943  28.262   6.681  0.1114 -0.0270 -0.2000
17072W        W60010  20.714  26.193   9.944 -0.2076  0.1738  0.3168
17073W        W60011  19.030  25.754   7.138  0.4089  0.3318 -0.1261
17074W        W60012  18.171  25.003   8.207 -0.2268 -0.0992  0.1767
17075W        W60013  21.458  25.852   9.377 -0.2869  0.0509  0.4460
17076W        W60014  18.533  26.703   9.289  0.0924 -0.0572 -0.0984
17077W        W60015  19.889  27.430   7.806  0.0184  0.2213 -0.2115
17078W        W60016  19.364  25.623   7.885  0.0573 -0.0376  0.4612
17079W        W60017  20.525  27.729   7.327 -0.1162  0.1005 -0.1613
17080W        W60018  18.952  25.482   8.664  0.1839 -0.1002  0.2555
17081W        W60019  19.797  28.339   7.124 -0.6021 -0.2575 -0.0094
17082W        W60020  18.242  26.373   7.090  0.0778 -0.0687 -0.2896
17083W        W60021  17.406  25.524   8.200 -0.0498 -0.0287 -0.1240
17084W        W60022  18.240  26.859   8.953  0.3584  0.3778  0.0545
17085W        W60023  19.300  25.146   9.809  0.1156 -0.0240 -0.0480
17086W        W60024  24.983  25.074   9.872  0.1438  0.0054 -0.0204
17087W        W60025  20.230  27.712   8.056 -0.3232  0.1215  0.3222
17088W        W60026  20.097  27.148   8.218  0.3206  0.1454 -0.0851
17089W        W60027  17.129  28.494   9.433  0.0781  0.0325 -0.1185
17090W        W60028  19.337  28.670   7.935 -0.0635  0.1085  0.2036
17091W        W60029  18.837  27.626   6.883 -0.0388  0.0723 -0.0472
17092W        W60030  20.248  28.498   7.281  0.3772  0.2028 -0.2430
17093W        W60031  18.775  27.930   7.319  0.3053 -0.4731 -0.0551
17094W        W60032  21.410  26.718  10.024 -0.0527 -0.0636 -0.0558
17095W        W60033  18.668  25.908   8.037 -0.0830  0.1786 -0.1706
17096W        W60034  20.185  27.996   7.092  0.3937  0.0313  0.1435
17097W        W60035  20.966  27.686   7.646  0.2033  0.0395  0.3137
17098W        W60036  19.204  27.434   8.429  0.0213  0.1879  0.0110
17099W        W60037  19.196  28.076   7.059 -0.3697  0.2837  0.2855
17100W        W60038  20.728  27.254   7.378 -0.0133 -0.0627  0.0979
17101W        W60039  19.962  25.838   8.203  0.0258 -0.0586 -0.0652
17102W        W60040  21.458  26.727   9.493 -0.1933  0.2890  0.0534
17103W        W60041  21.045  24.830   8.624 -0.0994 -0.4073 -0.1449
17104W        W60042  19.740  26.838   9.626 -0.0379  0.0013 -0.0414
17105W        W60043  18.924  26.015   8.580  0.1479 -0.0149  0.3228
17106W        W60044  20.319  26.223   8.086 -0.1468 -0.2739  0.0280
17107W        W60045  21.258  25.184   9.673  0.1978 -0.0168 -0.3393
17108W        W60046  17.888  28.734   9.289 -0.0674  0.0609  0.4306
17109W        W60047  18.952  26.497   8.279  0.0434  0.2792  0.0248
17110W        W60048  21.023  27.889   7.208  0.3324 -0.0968  0.3503
17111W        W60049  21.841  27.924   6.888 -0.2276  0.1091 -0.1043
17112W        W60050  21.200  27.859   6.657  0.0925 -0.0732  0.0969
17113W        W60051  18.765  26.173   9.628  0.1737  0.1040  0.1065
17114W        W60052  17.862  23.633   6.356  0.3874 -0.1349  0.2374
17115W        W60053  24.424  25.503   9.282  0.0831 -0.2596  0.0350
17116W        W60054  19.360  27.552   9.479  0.0566  0.0232 -0.0619
17117W        W60055  17.877  26.558   9.222  0.0756 -0.3835 -0.0543
17118W        W60056  21.962  27.432   6.114  0.1253  0.0630 -0.1183
17119W        W60057  21.642  24.844   9.225  0.3396 -0.2014 -0.3626
17120W        W60058  22.542  23.650  10.160  0.1180  0.1608  0.0435
17121W        W60059  19.496  26.609   8.232 -0.0741 -0.2742 -0.0984
17122W        W60060  19.135  27.744   7.872 -0.1177  0.2328  0.0006
17123W        W60061  21.318  27.249   9.717  0.3068 -0.0320  0.2044
17124W        W60062  21.041  27.036   7.783  0.0854 -0.0619  0.2339
17125W        W60063  19.880  28.250   8.629 -0.2187 -0.1849  0.0785
17126W        W60064  19.364  28.308   6.387  0.2167  0.1514  0.3020
17127W        W60065  18.552  26.866   8.150  0.0313  0.1501 -0.0126
17128W        W60066  20.411  25.963   7.259  0.1181 -0.0396  0.3772
17129W        W60067  18.748  23.380   9.667 -0.2739 -0.3441 -0.0433
17130W        W60068  19.080  29.624   9.170  0.0488 -0.1733 -0.1597
17131W        W60069  22.653  25.902   8.274 -0.2181 -0.2307 -0.2278
17132W        W60070  23.170  24.322   9.851  0.0127 -0.0635 -0.0609
17133W        W60071  18.696  28.137   7.954 -0.1888 -0.0603  0.1494
17134W        W60072  21.379  28.481   7.997 -0.1520 -0.1062  0.0474
17135W        W60073  22.073  26.458   8.475 -0.1971 -0.2497  0.1235
17136W        W60074  21.698  28.769   7.672  0.0876  0.1858  0.1806
17137W        W60075  17.588  24.731   8.657 -0.1433 -0.1522 -0.0575
17138W        W60076  18.495  25.641   8.413 -0.0170 -0.0044  0.0867
17139W        W60077  18.707  26.272   9.019  0.0847 -0.1882 -0.2705
17140W        W60078  18.440  23.841   7.686  0.1003 -0.5221 -0.1550
17141W        W60079  19.633  26.070   9.337 -0.1292  0.0875  0.0608
17142W        W60080  19.673  26.074   7.857  0.3489  0.0307  0.0324
17143W        W60081  16.723  27.492   8.832  0.0409 -0.2154  0.0707
17144W        W60082  21.575  27.763   6.375 -0.2080 -0.3261 -0.1396
17145W        W60083  20.145  26.494   9.957  0.0385 -0.2536  0.1490
17146W        W60084  19.778  29.771   7.631 -0.5798 -0.0126  0.2331
17147W        W60085  19.337  25.648   9.411 -0.0793 -0.0497 -0.4817
17148W        W60086  17.065  25.542   8.666  0.3569  0.0699 -0.1467
17149W        W60087  20.136  29.475   8.845 -0.0932  0.0215  0.4881
17150W        W60088  20.368  28.859   8.799 -0.0438 -0.2036 -0.0127
17151W        W60089  18.502  25.288   7.163  0.0495 -0.1275  0.0230
17152W        W60090  21.153  27.458   8.774 -0.0252 -0.0458 -0.1580
17153W        W60091  19.146  26.493   7.223 -0.1643  0.0623 -0.0199
17154W        W60092  21.519  26.270   9.628 -0.0393 -0.1260  0.1783
17155W        W60093  20.619  26.365   8.560 -0.2225 -0.3701 -0.0644
17156W        W60094  19.184  25.444   6.446 -0.2440 -0.0154 -0.4110
17157W        W60095  18.981  28.449   8.288 -0.1799 -0.0858  0.0473
17158W        W60096  18.334  30.003   6.685 -0.2238 -0.0627 -0.1530
17159W        W60097  16.100  26.443   8.278  0.0063 -0.3960 -0.1315
17160W        W60098  19.724  28.630   8.266 -0.3999  0.3409  0.0878
17161W        W60099  21.789  23.564   8.547  0.0007  0.2521  0.0580
17162W        W60100  18.159  26.660   7.532  0.0207 -0.2470  0.0265
17163W        W60101  20.937  24.488   8.190 -0.0201 -0.0972  0.0051
17164W        W60102  22.329  26.789   8.787  0.0287  0.2087  0.0824
17165W        W60103  21.491  27.589   6.940  0.0836  0.1755 -0.3189
17166W        W60104  20.774  26.025   8.245  0.0275  0.0093  0.6264
17167W        W60105  19.325  24.471   7.036 -0.2799 -0.0683  0.0052
17168W        W60106  19.578  27.720   7.110 -0.0345  0.0822 -0.1224
17169W        W60107  20.968  26.524   9.705  0.0755  0.2180  0.0645
17170W        W60108  20.095  25.405   7.816  0.0317 -0.1767  0.0959
17171W        W60109  22.218  29.728   8.409 -0.0353  0.0621 -0.1622
17172W        W60110  18.317  29.231   9.813 -0.0316 -0.2150 -0.1785
17173W        W60111  20.913  27.473   6.956  0.0721  0.0937  0.0078
17174W        W60112  21.458  24.690   9.692  0.2122 -0.0524  0.3839
17175W        W60113  19.285  25.375   6.925  0.0276  0.1278  0.2292
17176W        W60114  20.151  25.193   8.957  0.0464 -0.1632  0.0191
17177W        W60115  19.162  28.906   6.526  0.0885 -0.0199 -0.1710
17178W        W60116  21.632  25.122   8.792 -0.0823 -0.0521 -0.3258
17179W        W60117  22.638  25.312   8.931  0.3168 -0.3881  0.0681
17180W        W60118  21.507  27.630   9.409 -0.0879  0.1618  0.3424
17181W        W60119  19.740  26.397   8.892  0.2751 -0.0150  0.1085
17182W        W60120  18.009  25.417   7.151 -0.3295  0.3341 -0.0809
17183W        W60121  20.375  25.578   9.510  0.0248 -0.0524 -0.0144
17184W        W60122  18.993  28.045   8.859 -0.0254  0.2153 -0.2862
17185W        W60123  20.230  26.418   7.410 -0.2563 -0.0698  0.0826
17186W        W60124  20.158  25.238   8.302 -0.2883  0.1025 -0.0807
17187W        W60125  19.191  29.997   6.997  0.1102  0.4456 -0.0232
17188W        W60126  19.452  26.182   7.007  0.2371  0.2150  0.1082
17189W        W60127  19.318  25.719   8.420 -0.0285  0.0169  0.1699
17190W        W60128  20.564  26.811   7.564 -0.0689 -0.1462  0.1122
17191W        W60129  19.532  27.275   7.426  0.3704 -0.2839 -0.2887
17192W        W60130  20.612  26.799   9.862  0.2669  0.0562 -0.0759
17193W        W60131  17.819  27.054   8.579  0.1808  0.0171  0.0066
17194W        W60132  21.325  23.885   8.888 -0.3747  0.0984 -0.1779
17195W        W60133  19.430  27.091   9.338  0.3310  0.0912 -0.0746
17196W        W60134  18.468  26.171   7.441 -0.1338 -0.1305 -0.1057
17197W        W60135  18.482  27.286   6.714 -0.0891 -0.0962 -0.1897
17198W        W60136  22.482  25.772   8.751 -0.5003 -0.2087  0.3093
17199W        W60137  22.949  26.157   8.002 -0.0659  0.1445 -0.0966
17200W        W60138  19.425  25.441   8.889 -0.0186 -0.1654 -0.4103
17201W        W60139  19.716  25.097   7.996 -0.2538 -0.2667  0.1928
17202W        W60140  18.801  29.075   9.183  0.1903 -0.0830 -0.1916
17203W        W60141  20.733  26.536   8.070 -0.1769  0.0212  0.2524
17204W        W60142  17.313  25.710   9.557 -0.0984 -0.3093 -0.0149
17205W        W60143  19.529  26.435   9.762 -0.0398  0.3305  0.0390
17206W        W60144  19.212  26.418   8.842 -0.3564  0.2783 -0.0689
17207W        W60145  18.841  28.626   7.759  0.1173  0.1305 -0.0924
17208W        W60146  20.210  28.369   8.966  0.4525 -0.0180 -0.3387
17209W        W60147  18.514  26.487   7.855  0.0443  0.0913 -0.4350
17210W        W60148  19.629  27.860   7.628  0.1050  0.2567  0.0071
17211W        W60149  21.611  25.541   9.714 -0.0738 -0.1221  0.1114
17212W        W60150  19.498  26.218   8.469 -0.1436 -0.1979 -0.0730
17213W        W60151  20.417  25.669   8.127  0.4037  0.2598 -0.1564
17214W        W60152  20.109  26.001   9.564 -0.1279 -0.3480  0.3522
17215W        W60153  21.955  26.011   9.478 -0.0147 -0.1562 -0.2341
17216W        W60154  18.484  23.206  10.140  0.3160  0.1545 -0.0590
17217W        W60155  20.588  25.265   8.561  0.0816 -0.0514  0.0419
17218W        W60156  22.090  28.690   8.630 -0.0986  0.0305  0.1059
17219W        W60157  17.287  27.442   8.534  0.0900 -0.0143 -0.1921
17220W        W60158  18.173  26.856   9.666  0.2663 -0.2074 -0.1037
17221W        W60159  19.102  26.996   7.436  0.2691 -0.3823 -0.0611
17222W        W60160  19.954  24.851   8.546 -0.0326  0.3041 -0.0950
17223W        W60161  18.169  27.485   8.911 -0.0564  0.3922 -0.2615
17224W        W60162  19.316  27.235   7.940  0.0719  0.1505  0.1182
17225W        W60163  18.683  29.533   8.816 -0.3395  0.0891 -0.0055
17226W        W60164  21.582  25.912   8.090 -0.1589  0.1826 -0.1098
17227W        W60165  20.450  26.845   7.067  0.2649  0.0211  0.2929
17228W        W60166  18.844  25.441   8.051 -0.2486 -0.3806 -0.0971
17229W        W60167  21.550  26.246   9.106  0.0777  0.1758 -0.0598
17230W        W60168  18.165  24.943   8.719 -0.1342  0.0928  0.3313
17231W        W60169  21.182  26.290   8.175  0.1896 -0.2401  0.4121
17232W        W60170  21.653  26.308   7.767  0.0910  0.0517 -0.3013
17233W        W60171  19.438  24.245   7.559 -0.1130  0.0122 -0.0096
17234W        W60172  20.479  26.395   9.454 -0.0096 -0.1279  0.1434
17235W        W60173  21.784  27.081   9.370  0.0377 -0.1642  0.3383
17236W        W60174  19.347  28.489   9.063  0.0344  0.0895 -0.0991
17237W        W60175  22.085  25.343   8.876  0.2389 -0.3148  0.0530
17238W        W60176  18.552  26.550   9.886  0.1497  0.1379  0.3996
17239W        W60177  21.299  25.759   8.869 -0.0288 -0.2244 -0.1502
17240W        W60178  20.962  26.411   6.201  0.2660 -0.2310 -0.2094
17241W        W60179  19.254  25.233   8.291 -0.2065  0.0283 -0.0148
17242W        W60180  20.823  27.014   9.495  0.1217  0.0618 -0.1575
17243W        W60181  19.155  26.161   9.309  0.0467 -0.1272 -0.1393
17244W        W60182  20.080  27.034  10.004 -0.0604  0.0539  0.1283
17245W        W60183  21.797  25.767   8.979 -0.2613  0.1430  0.5074
17246W        W60184  22.893  25.715   9.620  0.0068 -0.0293 -0.1026
17247W        W60185  21.301  27.485  10.222  0.2351 -0.0264 -0.2775
17248W        W60186  20.242  27.174   7.547 -0.1813  0.1437 -0.1782
17249W        W60187  18.790  25.509   6.759  0.1847 -0.1469 -0.1666
17250W        W60188  19.529  23.911   7.107 -0.2275 -0.0781 -0.1043
17251W        W60189  19.249  27.314   6.696 -0.1609 -0.0553 -0.0061
17252W        W60190  20.541  27.453   7.797 -0.2662  0.0739 -0.0607
17253W        W60191  21.680  27.386   8.365  0.0389  0.3914  0.2461
17254W        W60192  18.338  25.886   9.715  0.0064  0.1149  0.1494
17255W        W60193  18.730  26.416   6.959 -0.1496  0.1454  0.1743
17256W        W60194  20.178  25.885   7.726  0.1825 -0.0740 -0.1709
17257W        W60195  19.732  27.497   9.090 -0.3238  0.1028  0.0660
17258W        W60196  19.239  25.440   7.437 -0.0809 -0.0271 -0.3198
17259W        W60197  17.871  27.818   7.360  0.1816  0.0052 -0.0597
17260W        W60198  20.041  26.330   8.453 -0.1588 -0.2266  0.1928
17261W        W60199  19.106  27.919   8.395  0.0913 -0.0808 -0.1308
17262W        W60200  19.813  28.840   7.652 -0.2161  0.0019  0.0968
17263W        W60201  23.003  25.010   9.211  0.2666  0.0693  0.0861
17264W        W60202  20.723  25.941   9.467  0.0252  0.0796  0.0321
17265W        W60203  18.425  27.223   9.474  0.0375 -0.1897 -0.1821
17266W        W60204  18.624  28.104   9.398 -0.3712  0.1169  0.0948
17267W        W60205  22.244  28.470   9.660 -0.0590 -0.1816  0.0101
17268W        W60206  19.427  27.087   8.846  0.0443  0.2423  0.0665
17269W        W60207  21.116  26.223   8.684  0.0215  0.1767 -0.0122
17270W        W60208  19.245  24.513   7.945  0.0928  0.1376 -0.1424
17271W        W60209  20.082  27.999   7.559  0.2054 -0.2524 -0.1478
17272W        W60210  18.485  26.163   8.435  0.0913 -0.0774 -0.1385
17273W        W60211  18.482  28.818   7.073 -0.1149  0.0646  0.1131
17274W        W60212  20.864  26.736   6.783 -0.1578 -0.1703 -0.2294
17275W        W60213  19.159  28.227   7.571 -0.1869 -0.1918  0.2502
17276W        W60214  20.359  27.366   6.995 -0.1350  0.1419  0.3939
17277W        W60215  19.383  26.010   7.505 -0.1007 -0.1243  0.0611
17278W        W60216  19.556  27.694   8.176  0.0454 -0.2371  0.2925
17279W        W60217  18.363  27.732   7.475  0.4621  0.2898 -0.0143
17280W        W60218  21.029  28.463   7.135 -0.2240 -0.0415 -0.0536
17281W        W60219  18.719  28.410   7.344  0.0350 -0.2266  0.1344
17282W        W60220  21.218  25.914   7.760 -0.4000 -0.2962 -0.1850
17283W        W60221  21.889  26.914   8.416 -0.0651 -0.1049  0.7063
17284W        W60222  22.037  25.893   8.292  0.0128  0.2259 -0.0218
17285W        W60223  18.436  25.334   9.334 -0.1054 -0.1675 -0.2018
17286W        W60224  19.701  25.242   7.465  0.2544  0.0655  0.0409
17287W        W60225  20.645  28.166   7.096 -0.0447  0.2857 -0.0597
17288W        W60226  18.027  26.189   7.632  0.0175 -0.5422  0.0405
17289W        W60227  18.964  27.264   9.364 -0.3749 -0.0767  0.0240
17290W        W60228  21.064  26.255   9.290 -0.2252  0.1087  0.2538
17291W        W60229  20.318  28.249   6.668 -0.2126  0.0244  0.0042
17292W        W60230  19.870  25.562   9.092 -0.0030 -0.2535 -0.4058
17293W        W60231  18.687  27.613   8.554  0.0046  0.1898  0.4030
17294W        W60232  19.127  27.501   8.973 -0.1553  0.0352 -0.1047
17295W        W60233  19.586  27.855   8.704 -0.1475 -0.2329  0.0628
17296W        W60234  18.891  24.921   7.034  0.0717 -0.0387 -0.1816
17297W        W60235  22.984  26.623   8.229  0.1668  0.0781 -0.0987
17298W        W60236  18.981  26.792   7.857  0.1972  0.2865  0.3299
17299W        W60237  17.660  25.313   8.656 -0.3760 -0.3351 -0.1638
17300W        W60238  20.087  26.036   9.068  0.2473  0.0801  0.0695
17301W        W60239  21.100  27.223   8.322 -0.2903  0.2680 -0.1960
17302W        W60240  19.855  26.931   9.153 -0.0955 -0.1434 -0.0536
17303W        W60241  20.626  26.061   6.027 -0.2706  0.0304  0.3454
17304W        W60242  20.044  25.591   7.355  0.2582 -0.0822  0.1236
17305W        W60243  19.718  25.369   8.458  0.1174  0.2505  0.6404
17306W        W60244  20.652  26.092   8.992 -0.0743 -0.2863  0.2152
17307W        W60245  20.628  27.004   8.152 -0.0893 -0.3762  0.0678
17308W        W60246  19.972  26.443   9.318 -0.2113 -0.0741 -0.0731
17309W        W60247  18.843  24.559   8.611  0.0120  0.0114 -0.0966
17310W        W60248  23.393  27.251   7.440 -0.0406  0.0443 -0.4146
17311W        W60249  21.823  26.680   9.018  0.0099  0.0686 -0.0330
17312W        W60250  20.046  28.715   6.691  0.1359  0.0314  0.1334
17313W        W60251  21.239  27.281   7.327 -0.2668 -0.2602 -0.1653
17314W        W60252  20.500  26.939   8.643 -0.2786  0.0421  0.4016
17315W        W60253  18.724  26.690   8.703  0.1469  0.1786  0.0096
17316W        W60254  19.983  27.334   9.532  0.0936  0.3371  0.0678
17317W        W60255  20.106  27.823   8.969 -0.0293  0.2965 -0.1038
17318W        W60256  18.949  24.104   7.713  0.1552 -0.1036  0.1052
17319W        W60257  19.386  25.940   8.920  0.1294  0.0605  0.0741
17320W        W60258  17.398  28.058   9.040  0.1267  0.3853  0.1278
17321W        W60259  20.874  27.423   9.205 -0.0943  0.0902  0.1031
17322W        W60260  20.613  28.632   6.904  0.4334 -0.2659  0.0498
17323W        W60261  17.014  27.123   8.993  0.0389  0.1249 -0.2288
17324W        W60262  19.822  26.115   7.318 -0.1283  0.1936  0.2940
17325W        W60263  19.494  28.592   6.796 -0.0736  0.1481  0.0511
17326W        W60264  20.068  29.677   6.884 -0.0710 -0.1064  0.4150
17327W        W60265  21.669  29.297   8.387 -0.0254 -0.0981 -0.2078
17328W        W60266  19.158  26.051   8.099 -0.0737 -0.3934  0.1307
17329W        W60267  21.831  27.861   8.592 -0.2903  0.3382  0.0210
17330W        W60268  20.826  25.676   8.662 -0.0026  0.2603 -0.2212
17331W        W60269  22.630  27.459   8.695 -0.1084 -0.1472  0.1320
17332W        W60270  19.811  25.795   8.672 -0.0122  0.1743  0.1742
17333W        W60271  18.672  27.680   9.059  0.0946 -0.1031 -0.2238
17334W        W60272  18.067  27.351   7.853 -0.0296 -0.0962  0.1994
17335W        W60273  18.827  27.258   8.181 -0.1599 -0.0895  0.1744
17336W        W60274  17.680  27.157   9.810 -0.3240  0.0254 -0.0543
17337W        W60275  18.136  27.321   7.167 -0.0030 -0.1725  0.2187
17338W        W60276  18.901  24.564   7.482  0.1342 -0.1838  0.3881
17339W        W60277  21.732  27.442   9.894  0.1673  0.0118  0.0879
17340W        W60278  19.486  26.565   9.288  0.1302 -0.0223 -0.0773
17341W        W60279  18.851  24.788   9.201  0.1498  0.0743 -0.0261
17342W        W60280  21.527  26.557   8.524  0.1863  0.0071  0.3211
17343W        W60281  21.078  28.006   8.021 -0.1865 -0.2570  0.3206
17344W        W60282  19.838  24.409   7.116  0.0942 -0.1157  0.0233
17345W        W60283  17.305  26.436   8.969  0.0731 -0.4414  0.2781
17346W        W60284  17.942  24.687   7.890 -0.0317 -0.0536 -0.0598
17347W        W60285  20.008  26.639   8.073 -0.2720  0.1106  0.2246
17348W        W60286  19.752  28.322   7.636 -0.3101 -0.3131  0.0466
17349W        W60287  21.673  28.218   6.440 -0.0436 -0.1922 -0.0578
17350W        W60288  16.808  23.858   9.683 -0.2729 -0.1108 -0.0064
17351W        W60289  20.685  26.419   7.210  0.0969 -0.1013 -0.3244
17352W        W60290  20.843  27.613   8.192 -0.1204 -0.1101  0.3063
17353W        W60291  19.249  27.071  12.250  0.1142  0.0853  0.1106
17354W        W60292  21.014  26.669   8.510 -0.0593  0.0984 -0.2800
17355W        W60293  20.444  27.875   8.508  0.0437 -0.1589 -0.2067
17356W        W60294  19.834  24.221   7.809  0.1133  0.2631 -0.1361
17357W        W60295  21.667  25.580   8.497 -0.0901  0.4398  0.0213
17358W        W60296  20.030  27.554   7.339  0.0666 -0.0158 -0.1800
17359W        W60297  17.971  25.573   8.339  0.0434  0.2121 -0.4838
17360W        W60298  19.578  25.682   7.164  0.2583  0.1755 -0.2838
17361W        W60299  19.706  26.898   7.748 -0.0438 -0.2512  0.2804
17362W        W60300  19.384  26.510   7.754 -0.0490 -0.0226  0.0973
17363W        W60301  22.159  26.544   6.844 -0.0099  0.3383 -0.3666
17364W        W60302  20.725  28.420   9.715  0.0779  0.0599  0.4191
17365W        W60303  18.647  28.117   8.505 -0.0874  0.0951 -0.0284
17366W        W60304  21.280  27.135   9.218  0.3199 -0.1565  0.0362
17367W        W60305  18.450  25.432   8.879 -0.0945  0.1470  0.0282
17368W        W60306  18.192  25.908   8.019  0.1631 -0.0753  0.0289
17369W        W60307  20.193  26.573   8.925 -0.0655  0.1971 -0.1688
17370W        W60308  24.321  25.327   9.740 -0.0459 -0.2784 -0.1078
17371W        W60309  18.893  25.815   7.636  0.3047 -0.0475 -0.2188
17372W        W60310  20.355  25.945   8.587 -0.2206  0.1705  0.2116
17373W        W60311  19.624  29.842   9.048  0.1250 -0.1434 -0.2654
17374W        W60312  20.725  26.581   9.093 -0.0452 -0.2250 -0.2041
17375W        W60313  19.957  31.297   2.727 -0.0615 -0.3256  0.0902
17376W        W60314  19.031  30.589   0.508  0.1602 -0.2845 -0.5771
17377W        W60315  21.066  28.944   0.983 -0.1938  0.0016 -0.1125
17378W        W60316  20.177  30.445   1.851 -0.6899  0.2468  0.0108
17379W        W60317  17.982  29.197   1.654 -0.3375  0.3111 -0.2462
17380W        W60318  21.022  32.289   1.398 -0.1015  0.0972 -0.1663
17381W        W60319  19.388  30.135   3.588 -0.0230  0.0793 -0.2600
17382W        W60320  20.063  31.147   1.443 -0.1356  0.1947  0.1285
17383W        W60321  21.751  32.627   2.150  0.0493 -0.1875 -0.1611
17384W        W60322  19.501  31.614   0.331  0.0908  0.2571 -0.0688
17385W        W60323  20.874  30.660   1.428  0.0260  0.2254  0.0642
17386W        W60324  19.603  30.238   2.974  0.0302 -0.0233  0.2658
17387W        W60325  20.147  29.291   1.792  0.0106  0.0962 -0.1326
17388W        W60326  17.952  29.960   2.454 -0.0422 -0.1548  0.0865
17389W        W60327  21.817  29.417   3.402 -0.1042  0.0799  0.3234
17390W        W60328  20.676  31.111   1.339  0.4066 -0.3038 -0.1256
17391W        W60329  19.532  29.783   3.247  0.0151 -0.0557 -0.0232
17392W        W60330  20.124  28.835   0.964  0.0427 -0.0159 -0.1947
17393W        W60331  20.531  31.244   2.342 -0.3133  0.0719 -0.0646
17394W        W60332  20.170  29.678   3.291 -0.4425 -0.0646  0.0000
17395W        W60333  20.381  28.839   3.673 -0.0043 -0.0771  0.0547
17396W        W60334  21.273  32.688   1.314  0.1726 -0.0927  0.0836
17397W        W60335  18.603  29.321   0.487 -0.1040  0.1037 -0.0672
17398W        W60336  18.416  30.056   2.484  0.3201  0.0570  0.0941
17399W        W60337  20.784  29.477   2.400 -0.0884  0.1836  0.0521
17400W        W60338  20.156  29.197   2.778  0.1864  0.0402 -0.3171
17401W        W60339  22.019  32.008   1.603  0.2137  0.0818 -0.0097
17402W        W60340  20.024  31.856   2.075 -0.3123 -0.3022 -0.1689
17403W        W60341  19.907  32.337   0.799  0.1742 -0.0363 -0.0971
17404W        W60342  20.719  28.462   3.949  0.0986 -0.0018  0.0813
17405W        W60343  18.757  30.863   2.908  0.0847  0.0659  0.1065
17406W        W60344  17.857  33.152   2.038 -0.1386  0.0836  0.3320
17407W        W60345  20.006  30.935   0.836 -0.1896 -0.0964  0.1509
17408W        W60346  22.564  31.247   1.827  0.0520 -0.1198 -0.1400
17409W        W60347  21.274  31.224   2.860 -0.1135  0.2064  0.2559
17410W        W60348  19.856  31.654   3.795  0.3859  0.2138 -0.1636
17411W        W60349  18.840  33.554   0.471  0.4095 -0.1894  0.0111
17412W        W60350  20.806  30.976   4.039  0.0895  0.2673  0.1998
17413W        W60351  20.258  31.626   3.453  0.0812 -0.0101 -0.3258
17414W        W60352  20.769  30.206   3.175 -0.2218 -0.3681 -0.1110
17415W        W60353  20.358  30.225   2.278  0.0897  0.0208  0.2097
17416W        W60354  20.773  31.251  31.892  0.2229 -0.2533  0.0155
17417W        W60355  20.458  30.587   3.208 -0.0046 -0.0463  0.0135
17418W        W60356  20.243  31.890   2.923  0.0533 -0.0344 -0.3456
17419W        W60357  18.163  31.411   2.886 -0.0736 -0.1377  0.1382
17420W        W60358  21.725  28.891   3.400  0.2467 -0.2853  0.2009
17421W        W60359  18.607  32.766   1.680 -0.1224 -0.0357  0.2909
17422W        W60360  21.990  29.933   1.036  0.1630 -0.2729  0.0423
17423W        W60361  19.750  28.269  31.337  0.0386 -0.0877  0.0323
17424W        W60362  21.862  28.927   0.802 -0.0872 -0.0583  0.0565
17425W        W60363  19.298  28.648   2.872  0.2578  0.1052 -0.2919
17426W        W60364  19.536  31.484   1.272 -0.0755  0.1898  0.0767
17427W        W60365  18.035  30.354   2.110  0.1104 -0.0634 -0.1989
17428W        W60366  21.668  30.393   2.591  0.4049  0.1771 -0.0861
17429W        W60367  20.108  30.639   1.354  0.4460  0.0166  0.1394
17430W        W60368  22.169  29.548   3.046  0.0590 -0.0764  0.2473
17431W        W60369  19.048  31.301   2.831 -0.1911 -0.1797 -0.2660
17432W        W60370  19.320  28.994   1.533  0.1854  0.0961 -0.1563
17433W        W60371  22.488  33.504  31.946 -0.0940  0.3429  0.0001
17434W        W60372  21.627  33.080   1.469 -0.1554  0.1855  0.1620
17435W        W60373  19.465  29.574   0.613  0.0116  0.1192  0.0621
17436W        W60374  19.155  30.098   1.231  0.0538 -0.0859 -0.0323
17437W        W60375  19.277  30.718   2.947  0.1002  0.0291 -0.2196
17438W        W60376  18.795  29.642   2.127 -0.2891 -0.2172  0.0838
17439W        W60377  20.192  30.308   0.060 -0.2610 -0.0442 -0.2808
17440W        W60378  23.263  29.951   4.432 -0.2994  0.1699  0.2667
17441W        W60379  19.221  32.040   3.291 -0.0084 -0.2068 -0.1805
17442W        W60380  21.498  28.301   2.627  0.1317 -0.1561  0.0588
17443W        W60381  20.599  32.325   2.897 -0.4150 -0.1582  0.3275
17444W        W60382  21.785  32.695   2.944 -0.0197 -0.2366  0.2661
17445W        W60383  21.735  32.187   0.090  0.2093 -0.1136 -0.0176
17446W        W60384  21.089  28.318   1.492 -0.0285 -0.1779 -0.1922
17447W        W60385  22.027  29.009   3.003 -0.3561 -0.1641  0.0926
17448W        W60386  20.749  30.266   0.635  0.1111 -0.0931  0.1172
17449W        W60387  20.614  29.945   1.008  0.0853 -0.0473 -0.3597
17450W        W60388  21.625  30.732   3.035  0.1059 -0.0868 -0.1013
17451W        W60389  20.119  30.760  31.083  0.1123 -0.0158 -0.2521
17452W        W60390  18.960  32.354   3.714  0.0242 -0.2875 -0.0507
17453W        W60391  19.902  29.121   3.384  0.0203  0.2940 -0.0777
17454W        W60392  20.684  31.815   3.686 -0.1242  0.0555  0.4002
17455W        W60393  18.713  32.702   0.158 -0.2416 -0.0044 -0.0052
17456W        W60394  17.803  30.025   1.768  0.1153  0.1985  0.3063
17457W        W60395  19.434  31.326   0.819  0.1125  0.1824 -0.1296
17458W        W60396  19.172  29.429   2.443 -0.0968 -0.0559 -0.1904
17459W        W60397  20.826  31.999   4.177  0.0858  0.1106 -0.2169
17460W        W60398  22.677  29.943   0.903 -0.1017  0.2287  0.0473
17461W        W60399  18.079  29.528   3.905  0.0742 -0.1585 -0.0175
17462W        W60400  22.122  29.455   2.233  0.2629  0.0100 -0.0463
17463W        W60401  18.872  30.485   2.599 -0.0589 -0.3207 -0.2633
17464W        W60402  21.591  33.373   0.468 -0.4005 -0.1329  0.1312
17465W        W60403  21.746  28.484   2.100  0.1738  0.1710 -0.0710
17466W        W60404  20.990  29.435   0.681 -0.0288 -0.2351  0.0930
17467W        W60405  17.843  29.284   3.327  0.1753 -0.0910 -0.2029
17468W        W60406  19.351  28.579   0.641 -0.0996  0.1193  0.0682
17469W        W60407  19.584  28.438   3.315  0.0812  0.0547  0.2930
17470W        W60408  18.510  28.216   0.669 -0.0290  0.0663  0.0638
17471W        W60409  21.852  29.819   2.599 -0.1397  0.1565  0.3064
17472W        W60410  17.755  29.067  31.381 -0.0206 -0.0978  0.0916
17473W        W60411  20.270  28.686   1.583 -0.2571 -0.1328 -0.2181
17474W        W60412  19.259  29.334   0.985  0.0552 -0.1819 -0.2145
17475W        W60413  18.186  30.032   0.836  0.0704  0.2697  0.0983
17476W        W60414  20.016  28.684   3.072 -0.1843  0.1072  0.0956
17477W        W60415  21.065  32.744  30.945  0.4326 -0.1068 -0.3839
17478W        W60416  20.759  32.711   2.479  0.2490  0.2010 -0.2521
17479W        W60417  21.079  32.123   2.852 -0.0752 -0.2728  0.2046
17480W        W60418  19.636  29.900   4.018 -0.1999 -0.1685 -0.0923
17481W        W60419  18.361  29.672  31.933  0.0278 -0.1116  0.0999
17482W        W60420  19.139  33.080   1.955  0.0153  0.0913 -0.2381
17483W        W60421  20.969  30.921   2.456  0.1836  0.0846  0.1815
17484W        W60422  19.289  29.882   2.074 -0.2575  0.1638  0.0970
17485W        W60423  22.583  33.258   1.457 -0.0275 -0.2223 -0.1039
17486W        W60424  21.469  29.731   0.797  0.2218  0.1840 -0.0721
17487W        W60425  19.213  30.794   1.234 -0.2889  0.0949 -0.3574
17488W        W60426  20.438  28.634   2.547 -0.1406 -0.2143 -0.1165
17489W        W60427  21.721  30.570   4.057 -0.1229  0.0458 -0.4204
17490W        W60428  21.249  30.362   1.586 -0.2300 -0.0660  0.1329
17491W        W60429  18.268  31.228  31.032  0.1927 -0.0102 -0.0249
17492W        W60430  21.411  32.293   1.062  0.0531  0.4849 -0.1159
17493W        W60431  18.643  33.226   0.076 -0.2389 -0.1622  0.1030
17494W        W60432  18.921  30.492   0.963 -0.3295  0.0407  0.1286
17495W        W60433  21.009  31.620   0.115 -0.1131 -0.0369 -0.0767
17496W        W60434  21.684  29.812   2.043 -0.2270  0.1399  0.3866
17497W        W60435  17.660  30.025   3.569 -0.1567 -0.2297 -0.1805
17498W        W60436  19.263  29.646   3.767  0.1575 -0.1246  0.1661
17499W        W60437  17.921  32.052   0.484  0.0774  0.0905  0.0796
17500W        W60438  19.144  31.064   3.295  0.1741  0.2379 -0.1762
17501W        W60439  21.869  29.838   0.399 -0.0051  0.1234 -0.0640
17502W        W60440  21.778  30.694   0.428  0.2982  0.2846 -0.2043
17503W        W60441  18.859  29.032   2.805 -0.4653 -0.1552 -0.2625
17504W        W60442  22.692  31.356   1.374  0.0081  0.1970  0.2049
17505W        W60443  21.327  28.953   1.944  0.0041 -0.3335 -0.0325
17506W        W60444  18.969  28.363   0.907 -0.1276  0.0247  0.2702
17507W        W60445  19.179  30.560   4.168 -0.0932  0.2890  0.1510
17508W        W60446  20.385  30.872   1.726  0.0133  0.0219  0.2487
17509W        W60447  19.623  30.671   3.300 -0.0092  0.1077 -0.2750
17510W        W60448  21.247  29.396   1.501  0.1359 -0.0986  0.0757
17511W        W60449  21.234  32.406   2.141 -0.0491 -0.1091 -0.0869
17512W        W60450  18.757  30.174   2.143  0.3069  0.0263 -0.1180
17513W        W60451  20.550  29.867   4.420  0.1861 -0.0921  0.0626
17514W        W60452  21.262  31.342   1.386  0.0463 -0.2846 -0.2120
17515W        W60453  18.776  28.646   1.592  0.3290  0.0702  0.2337
17516W        W60454  19.841  29.516  31.090 -0.0080 -0.0876 -0.0358
17517W        W60455  19.687  28.383   2.837  0.1546  0.1972 -0.0539
17518W        W60456  18.152  32.987   0.150 -0.1482  0.4310 -0.1015
17519W        W60457  21.224  30.004   2.054 -0.1933 -0.3148  0.0132
17520W        W60458  21.256  29.349   3.301 -0.0662 -0.0897  0.1116
17521W        W60459  19.390  27.362   2.419 -0.2853  0.0079  0.0940
17522W        W60460  21.440  28.321   3.713  0.2453  0.0030 -0.2246
17523W        W60461  20.448  30.267   1.347  0.2253  0.0922 -0.3272
17524W        W60462  22.616  29.506   2.047 -0.1523 -0.1593  0.1142
17525W        W60463  20.534  32.004   0.165 -0.1908 -0.3586  0.0976
17526W        W60464  19.452  27.798   2.593 -0.1375  0.2752 -0.1085
17527W        W60465  18.449  29.263   1.953 -0.1988  0.0556 -0.1304
17528W        W60466  18.562  31.871   2.229 -0.2751 -0.3775  0.0778
17529W        W60467  22.909  31.129   2.197 -0.3750 -0.0453  0.2359
17530W        W60468  20.194  31.639   2.480 -0.0441  0.3678 -0.3354
17531W        W60469  20.176  29.799   3.973 -0.2101 -0.1040  0.4015
17532W        W60470  20.541  29.599   1.448  0.1960 -0.0292  0.2114
17533W        W60471  19.692  30.917   1.170  0.0670 -0.3396  0.2427
17534W        W60472  20.856  29.955   1.620 -0.1166 -0.0868  0.2332
17535W        W60473  19.547  29.768   1.193  0.1436 -0.1893  0.0285
17536W        W60474  20.559  29.522   2.905  0.2068  0.1806  0.0272
17537W        W60475  18.332  29.926   1.997 -0.0906  0.0369  0.0173
17538W        W60476  21.746  31.045   1.773 -0.1509  0.0097 -0.1648
17539W        W60477  19.957  32.520   1.300  0.0066 -0.0202  0.0246
17540W        W60478  20.985  28.549   2.859  0.1988  0.2473  0.1503
17541W        W60479  18.657  31.385   2.546 -0.1702  0.1171 -0.0845
17542W        W60480  18.223  29.112   0.744  0.4987 -0.2154 -0.1344
17543W        W60481  19.569  30.440   1.219 -0.2858 -0.1404  0.1143
17544W        W60482  19.770  29.727   1.742 -0.2708 -0.1986  0.1114
17545W        W60483  21.689  31.126   1.279 -0.0156 -0.0036  0.2336
17546W        W60484  18.149  29.681   1.635  0.0410  0.0952 -0.0970
17547W        W60485  19.731  29.631   2.360  0.3778  0.0795  0.1377
17548W        W60486  19.162  31.945   1.186 -0.0509  0.1748  0.1131
17549W        W60487  22.443  31.724   1.681  0.0849 -0.1147 -0.1912
17550W        W60488  19.470  29.054   0.579 -0.2500 -0.3450 -0.2272
17551W        W60489  21.586  32.060   1.868 -0.0093  0.0075  0.0052
17552W        W60490  20.057  30.369   3.326 -0.0812  0.0699  0.0392
17553W        W60491  19.240  28.625   0.117 -0.1638 -0.0776 -0.2093
17554W        W60492  22.704  30.067   1.917  0.2453 -0.2398  0.0705
17555W        W60493  19.964  28.718   2.559  0.1198  0.2221 -0.1142
17556W        W60494  19.291  31.921   1.758  0.0330 -0.2522  0.1070
17557W        W60495  20.408  32.367   2.100 -0.1202 -0.0065  0.0953
17558W        W60496  18.348  29.881   0.376  0.1065  0.0899 -0.0020
17559W        W60497  19.698  30.835   2.703 -0.1778 -0.0980 -0.2112
17560W        W60498  18.659  28.477   2.773  0.4786 -0.0466 -0.1445
17561W        W60499  20.686  29.965   2.727 -0.0465  0.3327  0.0483
17562W        W60500  19.237  29.350   2.949 -0.1252 -0.0342  0.0775
17563W        W60501  20.441  29.486   0.795  0.1144  0.1102 -0.0450
17564W        W60502  20.770  29.051   2.751 -0.0009 -0.1939  0.3740
17565W        W60503  23.404  31.862   2.637 -0.2554 -0.0096  0.2201
17566W        W60504  21.235  30.468   3.302 -0.1897  0.2259 -0.2949
17567W        W60505  18.524  31.248   4.040  0.0808 -0.2803 -0.1841
17568W        W60506  21.339  28.450   1.878 -0.1335 -0.1161 -0.1037
17569W        W60507  21.803  32.579  31.591  0.3443  0.1742 -0.2315
17570W        W60508  21.255  30.152   2.919 -0.0459  0.2770 -0.0953
17571W        W60509  18.983  29.644   0.625  0.1159  0.0170 -0.0444
17572W        W60510  19.485  31.421   2.505 -0.1193 -0.2366 -0.0954
17573W        W60511  19.912  30.910   1.881 -0.0876 -0.1133 -0.0622
17574W        W60512  19.703  29.108   2.871 -0.1429 -0.2095  0.0116
17575W        W60513  19.489  31.886   2.262 -0.3003  0.1042 -0.0022
17576W        W60514  19.656  31.504   1.857 -0.1361  0.0748 -0.0638
17577W        W60515  18.244  30.832   1.354  0.0096  0.1819 -0.2342
17578W        W60516  22.114  30.286  31.387 -0.0743  0.3354  0.2940
17579W        W60517  20.857  29.388   1.137  0.1252  0.2479  0.0619
17580W        W60518  21.164  29.539   1.989 -0.2531  0.1417 -0.0274
17581W        W60519  20.469  28.351   3.539 -0.1353 -0.0299 -0.1657
17582W        W60520  21.406  30.632   1.031  0.0198 -0.1030 -0.2452
17583W        W60521  19.947  28.605   3.598 -0.0925 -0.1168 -0.0122
17584W        W60522  17.668  28.502   2.948 -0.3443 -0.0681  0.0983
17585W        W60523  21.337  31.789   0.887  0.3400  0.0525  0.1316
17586W        W60524  18.918  29.919   2.561 -0.0406 -0.0247 -0.2648
17587W        W60525  21.432  32.244   3.656  0.0701 -0.2459  0.0075
17588W        W60526  18.639  31.282   3.186 -0.0895  0.2388 -0.0560
17589W        W60527  18.522  28.377   1.193 -0.2371 -0.2050 -0.0743
17590W        W60528  18.417  27.650   0.683 -0.1717  0.0566  0.3249
17591W        W60529  19.875  29.173   2.316  0.2037  0.3838  0.1589
17592W        W60530  21.997  30.403   3.010  0.1221 -0.0266  0.3016
17593W        W60531  20.750  30.360   1.836  0.2167 -0.1881 -0.3492
17594W        W60532  22.089  29.182   1.219  0.2436  0.0593 -0.0112
17595W        W60533  19.614  30.529   1.882 -0.0226 -0.2224 -0.2710
17596W        W60534  20.559  28.308   1.533 -0.0302  0.1174 -0.1387
17597W        W60535  19.897  31.555  31.587  0.0061  0.0141 -0.0806
17598W        W60536  19.464  30.053   1.607 -0.0144 -0.3838  0.0248
17599W        W60537  18.698  29.208   2.377 -0.0847  0.1233 -0.1501
17600W        W60538  20.393  31.381   3.837 -0.3293  0.0165 -0.1853
17601W        W60539  20.712  28.746   1.274  0.0574 -0.0006 -0.4356
17602W        W60540  21.245  29.005   3.020  0.1364 -0.1102 -0.0833
17603W        W60541  21.405  27.887   1.784 -0.1976 -0.0319 -0.1431
17604W        W60542  19.874  29.982   3.562  0.2391 -0.1372  0.1631
17605W        W60543  18.171  28.607   2.717 -0.1781 -0.1869  0.1143
17606W        W60544  21.101  32.627   3.687 -0.4768 -0.0030 -0.2919
17607W        W60545  21.121  29.053   0.349 -0.2913  0.2082 -0.0354
17608W        W60546  21.608  29.792   3.003  0.0985  0.0780  0.1256
17609W        W60547  22.251  31.028  31.528 -0.0218  0.1325 -0.1415
17610W        W60548  21.587  30.187   1.249  0.0615 -0.3031 -0.2910
17611W        W60549  19.273  30.056   0.762  0.1585  0.1389 -0.0887
17612W        W60550  20.268  29.946   4.941 -0.1303 -0.0429  0.0778
17613W        W60551  19.828  30.812   0.287  0.1817  0.0834  0.0400
17614W        W60552  18.681  27.914   1.034 -0.0635 -0.1940  0.0311
17615W        W60553  20.998  29.843   0.433 -0.0407 -0.1095  0.2265
17616W        W60554  21.284  28.760   2.438 -0.0030  0.2758 -0.2502
17617W        W60555  19.848  29.351   1.365  0.0621 -0.1153  0.0860
17618W        W60556  18.388  29.375   1.330 -0.0702 -0.0305  0.0964
17619W        W60557  19.470  31.861   3.658  0.0342 -0.1087  0.2759
17620W        W60558  18.611  29.901  30.886 -0.1557 -0.1000  0.1423
17621W        W60559  18.735  30.611  31.539  0.0133 -0.1833 -0.1081
17622W        W60560  20.509  31.433   3.026  0.0473  0.0891  0.1796
17623W        W60561  22.383  29.953   3.933 -0.4332 -0.0786 -0.1130
17624W        W60562  21.197  28.183  31.256  0.2075  0.0172  0.1422
17625W        W60563  20.619  28.670   3.148 -0.2059 -0.1011 -0.0192
17626W        W60564  19.403  31.537  31.773  0.0764  0.2386 -0.0693
17627W        W60565  21.630  28.731   0.335 -0.1566 -0.0926 -0.2671
17628W        W60566  20.214  32.662   2.458 -0.2311  0.0056  0.2886
17629W        W60567  19.232  31.348   2.070 -0.0118  0.0511 -0.1796
17630W        W60568  19.752  32.004   2.695  0.3194 -0.0730 -0.3509
17631W        W60569  20.439  28.531   2.034 -0.0570  0.0098 -0.0358
17632W        W60570  20.856  29.044   2.218 -0.1937  0.1804  0.0552
17633W        W60571  20.281  30.050   2.993  0.0211  0.0362 -0.2572
17634W        W60572  21.628  28.739   2.875 -0.0370  0.0725 -0.0272
17635W        W60573  20.236  31.973   3.848 -0.1987  0.1793  0.1232
17636W        W60574  20.696  29.699   3.387 -0.2557  0.1902 -0.1531
17637W        W60575  20.630  32.891   3.973  0.0514  0.1044  0.1103
17638W        W60576  22.517  32.220   2.481  0.0254 -0.0515  0.3659
17639W        W60577  19.067  31.298   1.588 -0.3871 -0.1778 -0.1189
17640W        W60578  17.404  28.212   2.559  0.0818 -0.0518 -0.0034
17641W        W60579  19.964  28.233   4.219  0.1394  0.2572  0.2209
17642W        W60580  21.287  30.874   1.621 -0.2218  0.0509  0.2144
17643W        W60581  17.670  29.586   1.653 -0.0938 -0.4833  0.1814
17644W        W60582  18.239  32.137   1.014  0.2486  0.1053 -0.1465
17645W        W60583  18.024  31.471   3.946 -0.4789 -0.0564  0.0870
17646W        W60584  18.762  30.355   3.892  0.2052 -0.2437  0.0552
17647W        W60585  18.245  32.827   2.084  0.0596 -0.0210 -0.2775
17648W        W60586  21.727  30.623   1.448  0.0718  0.1509  0.3943
17649W        W60587  20.412  29.983   1.779  0.1049 -0.0696 -0.2099
17650W        W60588  20.772  31.369   1.737 -0.1048 -0.1097  0.1202
17651W        W60589  19.256  28.230  31.278 -0.0144 -0.2113 -0.2250
17652W        W60590  17.955  32.406   1.256 -0.4624 -0.0865 -0.1324
17653W        W60591  18.338  33.439   0.333  0.0259 -0.1477  0.0945
17654W        W60592  21.952  29.803   1.542 -0.1296 -0.0214 -0.0791
17655W        W60593  20.775  32.713   1.261 -0.1659  0.3023 -0.0932
17656W        W60594  22.078  30.952   3.253 -0.0818  0.1352 -0.1142
17657W        W60595  21.521  28.499  31.050  0.0831  0.0308 -0.0014
17658W        W60596  20.958  30.111   3.615  0.3035 -0.1925 -0.1154
17659W        W60597  22.709  30.402   0.633  0.1664  0.1309  0.4887
17660W        W60598  21.227  30.706   3.872 -0.0328 -0.2743 -0.0967
17661W        W60599  20.739  29.953   2.165 -0.2218 -0.1675 -0.1849
17662W        W60600  19.964  28.222   0.761  0.1381 -0.0150  0.0791
17663W        W60601  20.411  30.043   3.542  0.3087  0.0437  0.1104
17664W        W60602  21.788  28.248   4.091  0.1410  0.1413 -0.1791
17665W        W60603  17.221  32.521   3.504 -0.0572 -0.1168 -0.1097
17666W        W60604  22.098  31.146   2.170  0.0612 -0.0215 -0.0351
17667W        W60605  18.845  29.774   0.076 -0.1411  0.0175  0.3326
17668W        W60606  21.277  29.794   2.501 -0.3598  0.0227  0.0529
17669W        W60607  21.917  27.934   3.752  0.0291  0.1351  0.0584
17670W        W60608  18.685  30.080   0.889  0.3053  0.0377  0.1467
17671W        W60609  20.157  29.773   1.225  0.1321 -0.2571 -0.2957
17672W        W60610  19.409  32.548   1.367 -0.0993  0.0801 -0.0034
17673W        W60611  20.670  31.698   2.216 -0.0461 -0.0724 -0.3446
17674W        W60612  20.489  33.329   3.640  0.0379  0.1523 -0.1425
17675W        W60613  17.402  30.215   0.609  0.1752  0.1034 -0.4708
17676W        W60614  21.455  29.244   0.694 -0.1897 -0.0960 -0.1209
17677W        W60615  19.451  30.916   2.213  0.1272 -0.1485 -0.0239
17678W        W60616  20.935  28.804   3.623  0.2011  0.3370  0.2239
17679W        W60617  20.949  30.707   0.509  0.0352 -0.2706 -0.2677
17680W        W60618  21.917  28.919   2.381  0.4374 -0.1720 -0.1301
17681W        W60619  21.274  29.753   3.939 -0.0135  0.2123  0.1652
17682W        W60620  19.415  29.918   2.608 -0.1261  0.0168 -0.1405
17683W        W60621  19.681  29.365  31.933  0.1337 -0.0499  0.0283
17684W        W60622  20.217  30.317   4.623  0.1021 -0.0738 -0.0170
17685W        W60623  18.790  29.119   1.420 -0.2424  0.2611  0.1353
17686W        W60624  20.421  31.802   1.805  0.3002  0.5278  0.1383
17687W        W60625  19.946  30.127   2.623  0.2258  0.1000 -0.0614
17688W        W60626  19.829  28.871   1.526  0.1079 -0.0644 -0.0409
17689W        W60627  18.741  30.860   1.422  0.1396  0.0023  0.2654
17690W        W60628  18.729  28.177   3.905 -0.0211 -0.0154  0.1408
17691W        W60629  20.344  32.192   3.370 -0.0192  0.0819  0.1280
17692W        W60630  17.157  29.501   1.444 -0.0019 -0.2638  0.1699
17693W        W60631  21.050  31.065   0.935  0.0615 -0.0445  0.1204
17694W        W60632  21.639  29.267   2.771  0.1330  0.0859  0.1518
17695W        W60633  18.889  32.275   0.414  0.3389  0.0655  0.2877
17696W        W60634  22.154  30.346   1.738 -0.0657 -0.1412  0.0678
17697W        W60635  21.431  32.447   3.204 -0.0184 -0.1439  0.2130
17698W        W60636  17.719  28.658   2.446 -0.0595  0.1987 -0.2632
17699W        W60637  19.681  32.306   2.153 -0.2676  0.1052 -0.0288
17700W        W60638  21.652  31.548   2.347 -0.1661 -0.2269  0.1489
17701W        W60639  19.658  28.427   1.095  0.1462  0.1102 -0.0161
17702W        W60640  20.074  30.303   0.879  0.0095 -0.0671 -0.1340
17703W        W60641  19.064  30.477   1.602  0.0013  0.3359  0.2091
17704W        W60642  22.367  29.594   1.103 -0.0067  0.0979  0.3744
17705W        W60643  22.135  29.995   3.314 -0.3583 -0.0897 -0.3551
17706W        W60644  17.835  31.569   0.659  0.2192  0.2692 -0.2123
17707W        W60645  20.391  29.067   2.235 -0.3093 -0.1324  0.0126
17708W        W60646  20.571  32.799   3.437 -0.1022  0.1540  0.0688
17709W        W60647  19.033  31.663   2.403 -0.2138 -0.2194  0.0245
17710W        W60648  18.022  30.010  31.652  0.2038  0.3108 -0.1898
17711W        W60649  20.854  30.988   2.998 -0.1012  0.1353  0.2998
17712W        W60650  20.102  30.526   2.796  0.2694 -0.0853  0.3601
17713W        W60651  20.136  32.248  31.890  0.1842 -0.3418  0.0785
17714W        W60652  20.933  31.416   2.543  0.0675 -0.0242 -0.1663
17715W        W60653  17.149  28.080   0.114  0.1019  0.2324 -0.0479
17716W        W60654  21.169  31.657   1.890 -0.1200  0.2830 -0.3825
17717W        W60655  21.072  30.311   2.425  0.3425 -0.0020  0.0780
17718W        W60656  23.201  29.130  31.488  0.3129  0.0844  0.1984
17719W        W60657  22.781  30.231  31.858  0.0491 -0.0689  0.1188
17720W        W60658  18.456  30.539   2.213  0.0332  0.0219 -0.2297
17721W        W60659  18.475  29.569   0.841 -0.0015 -0.2145  0.1894
17722W        W60660  19.659  31.923   0.806  0.0278  0.0171 -0.0194
17723W        W60661  20.163  32.153   2.465 -0.1464 -0.3600  0.0348
17724W        W60662  17.205  28.311   2.143 -0.0223  0.1005  0.2170
17725W        W60663  19.384  29.006   2.499 -0.0105 -0.3229  0.0151
17726W        W60664  19.532  30.416   2.450  0.4731 -0.0057 -0.1775
17727W        W60665  18.247  28.939  31.556  0.3633  0.3068  0.2840
17728W        W60666  20.873  31.590   0.983  0.0231  0.1743 -0.1561
17729W        W60667  18.519  28.797   2.036 -0.0637  0.0504  0.1374
17730W        W60668  18.030  28.375   1.383  0.0842  0.1378 -0.0534
17731W        W60669  20.486  30.753   2.172 -0.1981 -0.0367 -0.0356
17732W        W60670  22.118  31.817   2.432 -0.0218 -0.3590 -0.0341
17733W        W60671  18.724  27.503   1.370 -0.2833 -0.0270 -0.3835
17734W        W60672  22.198  31.722   3.850  0.0337  0.3066 -0.0417
17735W        W60673  18.928  31.194   0.974  0.1512  0.4855 -0.0684
17736W        W60674  20.755  29.693   3.925 -0.2956 -0.2953 -0.1749
17737W        W60675  20.453  29.308   3.599  0.3518 -0.2481  0.0239
17738W        W60676  17.311  29.228   0.344 -0.0125  0.2117 -0.2342
17739W        W60677  20.246  29.616   2.259  0.2019 -0.0628  0.0227
17740W        W60678  20.863  30.896   1.896  0.0392  0.3129 -0.1768
17741W        W60679  19.667  31.924  31.918  0.0885 -0.0684  0.0737
17742W        W60680  20.667  30.595   2.687  0.0326  0.1590 -0.0092
17743W        W60681  19.561  31.214   3.005  0.0702  0.1489 -0.0766
17744W        W60682  18.127  29.042   2.237 -0.0208  0.1446 -0.2141
17745W        W60683  21.289  30.647   2.066 -0.3279  0.0961  0.4221
17746W        W60684  20.689  31.900   3.169 -0.3237  0.1361 -0.0814
17747W        W60685  21.322  32.008   0.330  0.3622 -0.2506 -0.0536
17748W        W60686  23.137  27.712   1.537 -0.1792 -0.2212  0.1233
17749W        W60687  21.631  30.236   3.290 -0.1258 -0.0126 -0.0079
17750W        W60688  18.566  29.378   4.382 -0.1899 -0.2003 -0.0325
17751W        W60689  19.243  32.218   2.583  0.3096 -0.3033  0.0242
17752W        W60690  23.803  31.289   1.353  0.3759 -0.1479 -0.0300
17753W        W60691  19.821  30.135   2.099 -0.0398  0.0126 -0.1426
17754W        W60692  21.904  28.699   1.248 -0.2505  0.2224  0.3810
17755W        W60693  20.400  31.512   1.235  0.2684 -0.0982  0.1393
17756W        W60694  19.913  30.210   1.459 -0.1775  0.0802 -0.0832
17757W        W60695  19.377  29.701  31.743  0.0806 -0.1169 -0.0646
17758W        W60696  21.329  29.841   3.437 -0.3206 -0.2284  0.1281
17759W        W60697  20.692  31.866   2.670  0.2394  0.0435 -0.0697
17760W        W60698  21.286  30.970   3.326  0.2347 -0.0367 -0.1213
17761W        W60699  20.585  30.759   0.912 -0.3854 -0.0409  0.3870
17762W        W60700  21.823  30.969   0.825 -0.0840  0.1248  0.1839
17763W        W60701  21.056  31.481   3.231 -0.1023  0.2719  0.0024
17764W        W60702  21.141  32.903   4.138 -0.0985 -0.2469 -0.2216
17765W        W60703  20.116  32.628   4.010 -0.2845  0.1136  0.1114
17766W        W60704  21.655  30.310   1.848  0.3925  0.0285  0.0321
17767W        W60705  17.541  29.733   2.097 -0.2503  0.2363  0.0838
17768W        W60706  19.467  31.006   1.632 -0.0056  0.0037 -0.1664
17769W        W60707  19.861  31.191   2.269 -0.1690  0.0278  0.0406
17770W        W60708  20.754  29.114   3.239  0.1910 -0.0598 -0.0973
17771W        W60709  19.992  30.569   2.270  0.1427 -0.3399 -0.3823
17772W        W60710  20.839  29.218   1.621  0.0979  0.0570 -0.0850
17773W        W60711  19.057  29.533   4.199 -0.1949  0.1896  0.0503
17774W        W60712  21.085  29.699   2.965  0.1129  0.2051 -0.3691
17775W        W60713  20.227  31.480   4.773 -0.1273 -0.1176  0.2566
17776W        W60714  19.231  30.681   5.796  0.3243  0.0267 -0.2201
17777W        W60715  22.148  29.024   3.591  0.0507  0.0589 -0.0298
17778W        W60716  21.969  30.193   3.776 -0.3010 -0.1507  0.0446
17779W        W60717  17.296  28.384   5.401  0.0052  0.0952  0.0994
17780W        W60718  20.171  33.318   5.264  0.1018  0.1491 -0.1529
17781W        W60719  18.093  28.226   6.263 -0.0550  0.0108  0.1436
17782W        W60720  21.269  32.813   6.521  0.0929  0.0270  0.1116
17783W        W60721  20.873  31.372   6.276 -0.0595 -0.0505  0.0636
17784W        W60722  19.555  30.466   3.866 -0.1627 -0.0045 -0.1423
17785W        W60723  19.763  31.736   5.782  0.1320  0.0394  0.1067
17786W        W60724  17.402  32.788   5.234 -0.2448  0.1082 -0.2517
17787W        W60725  18.892  27.199   3.285 -0.2372  0.1144  0.2927
17788W        W60726  19.443  29.022   5.554  0.1738 -0.3761  0.1188
17789W        W60727  20.776  30.443   4.817  0.0487  0.4282  0.2104
17790W        W60728  18.913  29.258   3.796 -0.0965  0.0541 -0.2333
17791W        W60729  18.307  29.573   5.383 -0.0096  0.1784 -0.1939
17792W        W60730  18.783  29.860   4.689 -0.3136 -0.0624  0.1781
17793W        W60731  20.049  33.549   5.729 -0.2730 -0.0605  0.0967
17794W        W60732  19.236  29.701   6.151 -0.2408 -0.0218 -0.3673
17795W        W60733  19.511  29.954   5.235  0.0751 -0.2800  0.2249
17796W        W60734  21.020  30.054   4.888  0.3047  0.1815 -0.3015
17797W        W60735  18.573  29.620   2.685 -0.2560  0.1076  0.1439
17798W        W60736  19.178  28.028   3.980 -0.2720  0.1524 -0.0977
17799W        W60737  20.014  31.861   7.818  0.1000  0.0373 -0.1724
17800W        W60738  21.191  29.313   5.473  0.2215  0.0518 -0.2457
17801W        W60739  21.003  30.936   6.067 -0.1797  0.0771  0.1654
17802W        W60740  21.397  32.946   6.053  0.1556  0.0547  0.1073
17803W        W60741  20.835  32.539   4.326 -0.0821 -0.0836 -0.4081
17804W        W60742  20.365  30.754   8.559  0.1970  0.1618 -0.3954
17805W        W60743  18.940  29.394   4.728 -0.2401 -0.2664  0.0385
17806W        W60744  19.310  32.526   4.010 -0.2222  0.0507 -0.0748
17807W        W60745  20.078  32.522   4.722 -0.1009 -0.2560 -0.1668
17808W        W60746  22.165  32.599   6.103 -0.0819  0.0555  0.0104
17809W        W60747  20.575  33.030   5.872  0.2695  0.0956  0.1555
17810W        W60748  20.654  33.349   6.838 -0.0253  0.2257 -0.2633
17811W        W60749  18.740  31.778   3.410  0.0147 -0.1541 -0.2794
17812W        W60750  20.905  33.237   7.205  0.0108 -0.1046  0.2826
17813W        W60751  19.905  32.314   7.386 -0.1273  0.1634 -0.0943
17814W        W60752  19.153  31.101   5.477 -0.0884  0.3435  0.0392
17815W        W60753  19.868  30.640   5.010 -0.0453 -0.0497  0.2477
17816W        W60754  20.592  31.207   4.425  0.4665 -0.2133 -0.1389
17817W        W60755  20.759  31.619   5.479 -0.0562  0.3139  0.1929
17818W        W60756  19.940  30.758   7.820  0.0281  0.0141 -0.1373
17819W        W60757  18.435  31.079   5.732 -0.0845  0.1069 -0.0134
17820W        W60758  23.106  29.548   7.600  0.0597  0.1522  0.1875
17821W        W60759  19.175  31.532   3.306 -0.0904 -0.2239  0.4985
17822W        W60760  20.354  30.415   5.123  0.1875  0.1722 -0.0672
17823W        W60761  19.268  29.733   4.823  0.1234  0.1155 -0.4022
17824W        W60762  20.043  29.100   3.871  0.3460 -0.0626  0.0413
17825W        W60763  19.771  27.474   6.071  0.1827  0.3751 -0.2285
17826W        W60764  17.758  32.232   6.001  0.0669  0.1733 -0.2368
17827W        W60765  18.833  30.154   6.194  0.0071  0.0245 -0.2490
17828W        W60766  19.922  30.582   7.029  0.1000  0.0838 -0.1216
17829W        W60767  19.774  30.191   4.811  0.1636  0.1427  0.2211
17830W        W60768  19.377  30.363   5.504  0.3126 -0.0627 -0.2045
17831W        W60769  19.007  31.573   4.237 -0.1610  0.2457 -0.1261
17832W        W60770  17.832  29.722   5.397  0.0372 -0.0303  0.0982
17833W        W60771  21.254  33.546   3.571 -0.3334  0.0545 -0.0592
17834W        W60772  20.351  31.505   5.848 -0.1309 -0.1616 -0.2776
17835W        W60773  20.885  31.500   4.134  0.3561  0.0270 -0.1357
17836W        W60774  19.027  29.056   4.275  0.1281 -0.0679 -0.1053
17837W        W60775  18.405  32.103   8.062 -0.2044 -0.0784 -0.2015
17838W        W60776  18.417  30.003   6.020  0.1590  0.0187 -0.0674
17839W        W60777  18.511  27.909   3.534  0.0939 -0.0291 -0.1715
17840W        W60778  20.996  31.206   6.953 -0.0850  0.0292  0.0361
17841W        W60779  18.691  31.772   7.766 -0.3002 -0.1346 -0.3983
17842W        W60780  21.561  28.966   5.223  0.1845  0.3103  0.0927
17843W        W60781  19.591  31.988   6.548  0.2340  0.0129 -0.0007
17844W        W60782  22.232  32.055   6.862 -0.1914  0.1614 -0.2053
17845W        W60783  20.850  30.724   3.513 -0.0299  0.5163 -0.0944
17846W        W60784  20.008  28.829   5.148 -0.1043 -0.2573 -0.0869
17847W        W60785  21.312  30.499   4.882  0.3131  0.4390  0.1869
17848W        W60786  19.714  31.264   3.507 -0.5508 -0.1439 -0.0663
17849W        W60787  18.761  31.222   4.530  0.0307  0.1407  0.3234
17850W        W60788  20.268  31.248   6.786  0.0170  0.3640 -0.1350
17851W        W60789  20.846  30.206   5.410 -0.0842  0.3438  0.0269
17852W        W60790  18.793  32.826   6.197 -0.4122 -0.0509 -0.0037
17853W        W60791  20.051  29.496   5.707 -0.1479 -0.0340 -0.4877
17854W        W60792  19.487  32.172   7.152  0.1405 -0.0070 -0.0392
17855W        W60793  18.316  32.864   3.532  0.2076  0.0669  0.1776
17856W        W60794  17.318  30.648   6.139 -0.1898 -0.3705  0.1327
17857W        W60795  19.143  30.550   3.421  0.0436  0.1163 -0.0765
17858W        W60796  18.515  28.114   5.778  0.0227 -0.2891  0.1990
17859W        W60797  19.004  31.965   6.482 -0.1327 -0.2152  0.0873
17860W        W60798  21.619  28.617   4.430 -0.1755 -0.0043 -0.1712
17861W        W60799  19.159  29.852   5.592 -0.0092  0.1317  0.1497
17862W        W60800  21.516  29.951   5.672  0.1352  0.2003 -0.3675
17863W        W60801  17.837  32.153   4.942 -0.2026  0.3012 -0.1684
17864W        W60802  20.400  30.994   3.468  0.1973  0.0795  0.1622
17865W        W60803  21.136  30.178   4.116 -0.2558  0.5026  0.1425
17866W        W60804  21.229  30.559   4.366 -0.0279  0.0742  0.0617
17867W        W60805  18.612  28.828   6.518  0.4284  0.1816 -0.0417
17868W        W60806  18.896  28.715   5.667 -0.1403 -0.4404  0.0960
17869W        W60807  18.483  31.549   6.596  0.0235 -0.0610 -0.0417
17870W        W60808  17.903  28.767   4.919  0.1786  0.0707  0.0665
17871W        W60809  21.191  29.768   7.165  0.0717  0.0333  0.1698
17872W        W60810  17.074  29.188   3.180  0.5329 -0.2633 -0.3599
17873W        W60811  21.594  28.788   5.689 -0.1737 -0.1925 -0.1250
17874W        W60812  19.545  30.672   4.669 -0.3509 -0.0324  0.0005
17875W        W60813  17.867  30.533   4.100 -0.1550  0.0390  0.1401
17876W        W60814  22.205  29.588   7.127 -0.0343  0.0783 -0.1488
17877W        W60815  20.872  31.626   4.592  0.2470 -0.0802 -0.3893
17878W        W60816  21.805  32.711   5.690 -0.1732 -0.2104 -0.2491
17879W        W60817  21.641  31.746   5.852 -0.1022  0.0574  0.2063
17880W        W60818  19.255  30.219   5.985 -0.0640  0.2148  0.1143
17881W        W60819  18.875  29.967   3.532 -0.4073  0.1051  0.1661
17882W        W60820  18.552  32.184   5.504 -0.4547 -0.1862 -0.1386
17883W        W60821  19.738  31.638   4.688 -0.1934  0.0433 -0.0715
17884W        W60822  18.338  29.405   3.140 -0.3148 -0.1127  0.1298
17885W        W60823  22.376  32.246   5.767 -0.1310 -0.2842 -0.2286
17886W        W60824  20.152  30.779   5.495  0.1566  0.1145 -0.2771
17887W        W60825  19.702  32.194   6.112  0.0364  0.2599 -0.2240
17888W        W60826  21.103  27.591   6.178 -0.1908  0.3419  0.0693
17889W        W60827  20.107  30.723   6.042  0.2322 -0.2165 -0.1199
17890W        W60828  21.533  30.058   5.033 -0.0495  0.2607  0.0291
17891W        W60829  17.060  28.644   3.960  0.0330 -0.3417 -0.3162
17892W        W60830  20.371  33.992   6.000  0.1150  0.0788  0.1046
17893W        W60831  18.316  31.189   3.613 -0.1694  0.1878  0.2017
17894W        W60832  18.381  29.081   4.053  0.2270 -0.0176 -0.1063
17895W        W60833  19.818  31.999   5.257 -0.0473 -0.0699 -0.4183
17896W        W60834  21.206  29.156   4.988 -0.3116 -0.0783  0.2679
17897W        W60835  18.582  30.361   7.153 -0.0563 -0.0049 -0.3836
17898W        W60836  20.913  29.351   6.189  0.0902 -0.2143  0.2334
17899W        W60837  18.364  30.043   3.730 -0.4237  0.2864 -0.3294
17900W        W60838  18.057  31.302   6.444  0.0731 -0.0215  0.0410
17901W        W60839  20.539  28.788   5.305 -0.0721 -0.0531 -0.1825
17902W        W60840  21.461  28.441   5.363  0.0063 -0.0450 -0.0635
17903W        W60841  19.754  31.663   7.347  0.1601 -0.2843 -0.0699
17904W        W60842  22.423  32.180   4.051 -0.0662  0.0361  0.0237
17905W        W60843  21.412  27.926   4.046 -0.3106 -0.2076  0.1079
17906W        W60844  19.751  27.032   3.470  0.0079  0.2726 -0.2688
17907W        W60845  20.033  32.113   8.309 -0.0329  0.0077  0.1473
17908W        W60846  20.451  31.178   5.437 -0.1061 -0.2090 -0.1488
17909W        W60847  19.324  32.406   6.738  0.1008  0.0802 -0.1241
17910W        W60848  19.487  28.426   3.842  0.0071  0.0467 -0.4780
17911W        W60849  22.047  31.884   4.331 -0.0159  0.1542 -0.1603
17912W        W60850  18.332  30.772   6.867  0.0288 -0.0038  0.0563
17913W        W60851  19.970  32.328   6.858 -0.1586 -0.0360 -0.0289
17914W        W60852  20.498  31.104   4.917  0.0378 -0.0601  0.2649
17915W        W60853  19.753  29.205   5.068  0.0944  0.0747  0.0813
17916W        W60854  19.968  30.794   3.659 -0.2323  0.0250  0.1676
17917W        W60855  19.758  29.505   3.686  0.2273 -0.0300 -0.0149
17918W        W60856  18.374  32.995   4.087 -0.2176  0.0208 -0.2621
17919W        W60857  19.871  31.341   6.113 -0.1298  0.0756  0.0677
17920W        W60858  20.349  30.400   5.805 -0.2986  0.3558  0.1464
17921W        W60859  20.413  30.139   6.293 -0.2180  0.1955  0.0734
17922W        W60860  21.276  30.310   7.454 -0.0827  0.1299 -0.0985
17923W        W60861  19.899  30.304   5.340  0.2059  0.0959  0.4050
17924W        W60862  19.619  30.060   6.242  0.1157  0.0559 -0.1848
17925W        W60863  18.815  31.380   3.687 -0.0866 -0.1290 -0.2447
17926W        W60864  19.572  29.814   6.715  0.0667 -0.0607  0.0169
17927W        W60865  17.854  30.670   7.292 -0.0144 -0.1930  0.2541
17928W        W60866  18.977  31.541   5.937  0.3027 -0.0376  0.0469
17929W        W60867  19.427  31.740   6.952 -0.0031  0.0756 -0.3092
17930W        W60868  21.780  31.107   5.207  0.0393 -0.0835  0.1929
17931W        W60869  20.604  29.926   6.790 -0.0541 -0.0169 -0.0584
17932W        W60870  18.424  28.546   3.521 -0.1306 -0.0905 -0.1447
17933W        W60871  19.397  31.901   5.101  0.0768 -0.2308  0.3069
17934W        W60872  19.142  30.043   3.019  0.3099 -0.0859 -0.2809
17935W        W60873  18.016  27.873   5.904  0.0635 -0.2443 -0.1102
17936W        W60874  20.449  31.577   6.433  0.1080  0.0489  0.0789
17937W        W60875  18.542  31.775   4.274 -0.1311 -0.2417 -0.0139
17938W        W60876  20.080  31.930   6.215  0.1402  0.1351 -0.2020
17939W        W60877  17.938  30.002   4.099  0.2603  0.2362 -0.2325
17940W        W60878  22.214  28.833   5.806  0.1287  0.0252 -0.1162
17941W        W60879  18.393  30.260   4.186  0.0198 -0.2987 -0.0919
17942W        W60880  18.549  29.534   3.744 -0.1382  0.2489 -0.2771
17943W        W60881  17.574  29.919   4.532 -0.1653  0.1276  0.2904
17944W        W60882  20.408  28.959   4.897  0.0636  0.1109 -0.1609
17945W        W60883  22.791  29.837   4.208 -0.1469  0.2775  0.2839
17946W        W60884  18.440  30.473   6.365  0.1798 -0.0261  0.1688
17947W        W60885  19.965  29.848   4.436 -0.0014  0.0042  0.0481
17948W        W60886  18.183  31.785   6.232  0.1480  0.0738 -0.0501
17949W        W60887  19.234  31.130   4.261  0.0747 -0.1235 -0.0451
17950W        W60888  20.314  27.475   3.848  0.0783 -0.2102 -0.2668
17951W        W60889  20.296  32.741   6.905  0.2642 -0.0830  0.2064
17952W        W60890  20.060  30.921   7.342  0.0971  0.1298 -0.1097
17953W        W60891  18.699  30.805   3.449 -0.1761  0.0684 -0.2801
17954W        W60892  21.105  29.742   5.248  0.0669  0.1794  0.1804
17955W        W60893  19.663  30.877   5.513 -0.4119 -0.0010 -0.2065
17956W        W60894  19.010  31.780   5.518  0.0653  0.3742 -0.0009
17957W        W60895  20.863  32.253   5.807  0.3471 -0.0641  0.5981
17958W        W60896  19.557  30.240   4.346 -0.0705 -0.0411 -0.2301
17959W        W60897  18.946  31.130   4.980 -0.0006 -0.2103  0.1941
17960W        W60898  19.385  30.469   6.996 -0.0380  0.0630 -0.0194
17961W        W60899  20.591  29.031   6.050 -0.1523  0.0961 -0.1345
17962W        W60900  18.895  29.597   5.241 -0.2141 -0.2075 -0.2091
17963W        W60901  18.936  28.892   4.739  0.2994 -0.2626  0.1233
17964W        W60902  18.902  31.043   5.906 -0.1307  0.3690  0.0971
17965W        W60903  18.693  31.188   6.914 -0.2206 -0.2555 -0.0792
17966W        W60904  21.082  29.757   5.794  0.2413  0.1055 -0.3530
17967W        W60905  18.483  31.345   6.130  0.3593 -0.1175  0.2679
17968W        W60906  19.828  29.045   5.862 -0.3180 -0.0870 -0.1753
17969W        W60907  23.178  33.997   4.617 -0.0945  0.0431 -0.0253
17970W        W60908  20.814  29.862   6.273 -0.0648  0.1692  0.2857
17971W        W60909  19.698  31.152   4.484  0.1457 -0.0532  0.1084
17972W        W60910  18.013  30.484   6.127 -0.1834  0.0370 -0.2637
17973W        W60911  18.919  30.895   3.912 -0.1986  0.3653  0.2190
17974W        W60912  19.657  30.918   6.038  0.0884 -0.1026 -0.0534
17975W        W60913  18.092  30.644   4.931  0.0297  0.2481 -0.1270
17976W        W60914  18.461  30.319   4.734  0.4932  0.1166 -0.1258
17977W        W60915  19.326  31.391   4.675  0.0362  0.2657 -0.1113
17978W        W60916  20.620  29.944   5.835 -0.2833  0.2214  0.1474
17979W        W60917  19.038  30.168   5.194 -0.2938  0.2721 -0.2172
17980W        W60918  20.026  31.118   5.138  0.1289 -0.2361 -0.1754
17981W        W60919  21.382  29.349   6.008 -0.1142 -0.1439  0.2132
17982W        W60920  20.109  30.273   4.075 -0.1378 -0.1210 -0.3055
17983W        W60921  20.734  29.633   7.718 -0.4078  0.1429  0.0565
17984W        W60922  19.463  27.718   5.677  0.0707  0.1774  0.0959
17985W        W60923  21.662  32.070   4.612  0.1618  0.2264  0.5208
17986W        W60924  18.379  29.493   6.900 -0.1555  0.1342 -0.0671
17987W        W60925  19.855  33.405   7.155  0.0255 -0.2703 -0.0916
17988W        W60926  19.323  30.768   6.573 -0.0402  0.1491 -0.0533
17989W        W60927  21.823  28.683   3.866  0.0871 -0.1730  0.1734
17990W        W60928  19.829  27.081   4.238  0.0782  0.0736  0.0081
17991W        W60929  19.306  31.476   7.323  0.2419 -0.3394  0.2402
17992W        W60930  21.298  32.039   5.604  0.0531 -0.1362  0.1462
17993W        W60931  19.540  31.088   4.996 -0.2017  0.2005 -0.1822
17994W        W60932  20.627  27.961   5.118 -0.0883 -0.3969  0.2653
17995W        W60933  19.397  31.540   6.283  0.0693  0.0697  0.0836
17996W        W60934  20.074  31.380   4.248 -0.1189  0.0835  0.0837
17997W        W60935  19.629  31.410   5.351  0.0524  0.0091 -0.1087
17998W        W60936  18.119  28.894   6.236  0.1578 -0.2934 -0.0141
17999W        W60937  19.849  31.041   6.606  0.0722 -0.0374 -0.4472
18000W        W60938  20.699  29.004   4.033 -0.1800  0.1324 -0.0244
18001W        W60939  19.964  29.746   6.393  0.2214  0.0647 -0.1967
18002W        W60940  21.442  30.379   5.866 -0.1567 -0.0041  0.0566
18003W        W60941  19.203  29.339   8.203  0.3150 -0.3163 -0.3132
18004W        W60942  18.671  29.744   6.395 -0.1615 -0.1698 -0.3326
18005W        W60943  20.945  32.088   7.848  0.1077 -0.2930  0.2347
18006W        W60944  21.934  30.610   3.515 -0.0850 -0.0565  0.0082
18007W        W60945  22.231  29.454   5.928 -0.0745 -0.0065  0.2939
18008W        W60946  21.258  29.636   4.819 -0.3354  0.1284  0.1979
18009W        W60947  20.452  30.548   3.787  0.1445  0.0693  0.1980
18010W        W60948  18.540  30.596   5.851  0.1463  0.2382 -0.0269
18011W        W60949  19.796  30.488   6.470  0.0181 -0.0241 -0.2082
18012W        W60950  18.930  29.035   3.314 -0.1781 -0.4216  0.0596
18013W        W60951  20.513  27.811   6.747  0.2128 -0.0963  0.4085
18014W        W60952  20.229  30.907   4.137  0.1961 -0.0536 -0.1420
18015W        W60953  20.649  31.796   5.011 -0.1591 -0.0111  0.1432
18016W        W60954  21.637  29.235   4.772 -0.3180 -0.2933  0.4050
18017W        W60955  18.563  29.883   3.090 -0.3014  0.1147 -0.0336
18018W        W60956  19.851  33.123   8.032 -0.3994  0.5774  0.2920
18019W        W60957  19.244  28.873   3.734  0.0069 -0.1388 -0.1700
18020W        W60958  19.788  31.144   3.968 -0.0128  0.2034 -0.0034
18021W        W60959  20.016  31.852   6.956  0.1773  0.1265  0.0250
18022W        W60960  21.657  30.091   7.798 -0.1190 -0.1150  0.3578
18023W        W60961  19.588  27.754   3.881  0.0536 -0.0770  0.1165
18024W        W60962  20.616  30.625   6.218  0.0205 -0.1502  0.1595
18025W        W60963  18.203  30.658   4.477 -0.1198 -0.2752  0.0519
18026W        W60964  19.812  29.700   4.857 -0.0921 -0.1643  0.3089
18027W        W60965  20.134  32.985   6.118 -0.0761 -0.1937  0.0085
18028W        W60966  19.478  31.707   7.876 -0.0507 -0.0602  0.1481
18029W        W60967  18.780  31.857   4.757  0.1575  0.0768 -0.0325
18030W        W60968  19.582  29.502   5.555 -0.0463 -0.1331  0.0573
18031W        W60969  19.369  29.288   3.443 -0.1771  0.0823 -0.3202
18032W        W60970  19.426  31.310   5.806 -0.0512 -0.0301 -0.0892
18033W        W60971  21.892  31.333   7.349 -0.1731 -0.3985  0.0421
18034W        W60972  20.352  32.330   7.662 -0.0069 -0.0108 -0.0259
18035W        W60973  19.262  30.679   5.125  0.1121 -0.0899 -0.6104
18036W        W60974  21.055  33.294   6.069  0.1783  0.1245 -0.0205
18037W        W60975  20.018  32.213   5.698  0.0286 -0.0289 -0.1638
18038W        W60976  19.217  30.283   4.744 -0.1353  0.2082  0.0055
18039W        W60977  18.140  30.931   6.060  0.0832 -0.0157  0.3181
18040W        W60978  19.163  31.925   7.421  0.1417  0.0737 -0.1548
18041W        W60979  19.951  31.924   4.350  0.2098  0.2778 -0.2744
18042W        W60980  18.889  28.528   5.184 -0.2018  0.2531  0.0304
18043W        W60981  19.708  32.124   4.740 -0.1642 -0.1904 -0.1424
18044W        W60982  19.303  32.488   7.502 -0.1899  0.1382 -0.3289
18045W        W60983  17.984  30.137   5.733 -0.1200 -0.1173  0.4275
18046W        W60984  19.816  33.318   4.864  0.0137  0.0184  0.0339
18047W        W60985  20.938  31.159   5.577 -0.0582  0.2226  0.0176
18048W        W60986  21.431  30.039   4.515 -0.2185 -0.0267 -0.0740
18049W        W60987  20.627  33.926   4.810 -0.0277 -0.3894  0.0015
18050W        W60988  19.815  29.683   2.835  0.1494  0.1185  0.3751
18051W        W60989  18.267  32.179   5.888 -0.0983  0.0299  0.2107
18052W        W60990  19.791  30.683   4.212  0.0512  0.2001  0.1042
18053W        W60991  21.504  30.983   4.763  0.0821  0.5547  0.0254
18054W        W60992  17.855  31.645   4.454  0.0934  0.0827 -0.3605
18055W        W60993  20.598  31.625   6.888 -0.0758 -0.1869  0.0733
18056W        W60994  20.122  28.007   3.126  0.0520  0.1835  0.2851
18057W        W60995  21.326  30.972   5.276  0.3346  0.1117  0.2049
18058W        W60996  21.286  28.939   4.518  0.0251 -0.1247  0.0247
18059W        W60997  20.404  33.168   7.231 -0.3729 -0.0441 -0.1426
18060W        W60998  18.341  30.387   5.347 -0.5170 -0.0646  0.1850
18061W        W60999  19.889  27.147   2.546  0.0132  0.2114 -0.1525
18062W        W61000  20.003  31.286   7.867  0.2859 -0.0517  0.3385
18063W        W61001  22.591  28.398   6.319  0.0329 -0.2265 -0.0002
18064W        W61002  19.559  31.973   8.289  0.1076  0.1310 -0.1710
18065W        W61003  21.352  32.841   4.607 -0.1686  0.3979  0.0802
18066W        W61004  18.570  29.993   5.095 -0.0449 -0.1020  0.0949
18067W        W61005  20.402  31.742   4.281  0.1705  0.4136 -0.1908
18068W        W61006  22.276  28.924   6.332 -0.0272 -0.0370  0.2010
18069W        W61007  19.286  31.396   3.828 -0.2942  0.0627 -0.2381
18070W        W61008  18.579  29.970   5.587  0.3343 -0.1900  0.2152
18071W        W61009  19.069  32.077   5.915  0.2415  0.2314  0.1738
18072W        W61010  20.185  31.951   4.794  0.5818 -0.2061  0.0769
18073W        W61011  20.690  34.635   5.401  0.1109 -0.3466 -0.0207
18074W        W61012  18.025  29.349   4.461  0.1842  0.4205  0.0716
18075W        W61013  21.751  30.590   4.569 -0.1849  0.2795  0.0046
18076W        W61014  20.330  29.316   6.984  0.1808 -0.2231  0.0335
18077W        W61015  21.643  29.977   7.278  0.0592 -0.1991  0.0916
18078W        W61016  17.953  29.323   4.995  0.1086 -0.2518 -0.2773
18079W        W61017  21.288  27.856   3.506  0.1191  0.4956  0.3028
18080W        W61018  20.582  32.639   7.295 -0.0575  0.1750  0.0249
18081W        W61019  18.289  30.920   7.357 -0.1200  0.1314 -0.4430
18082W        W61020  19.474  29.188   4.040  0.1700 -0.1331  0.0168
18083W        W61021  21.466  32.094   6.563 -0.0847  0.0035 -0.0063
18084W        W61022  21.335  28.817   3.923  0.2947  0.0109 -0.1118
18085W        W61023  19.447  33.150   7.336 -0.1120 -0.1979  0.0133
18086W        W61024  18.745  28.793   3.969  0.3372  0.1826  0.0008
18087W        W61025  20.683  29.620   4.864  0.2709  0.1703  0.1576
18088W        W61026  18.883  30.251   4.393  0.1475 -0.2363 -0.2939
18089W        W61027  20.090  29.983   5.886 -0.0678 -0.1660  0.0169
18090W        W61028  21.342  30.816   7.067  0.0101  0.0195 -0.1244
18091W        W61029  17.434  29.089   3.499  0.1305  0.2704 -0.2573
18092W        W61030  23.350  30.546   4.010 -0.0841  0.0554  0.3213
18093W        W61031  20.333  31.162   6.221 -0.2609 -0.0352  0.1790
18094W        W61032  18.728  30.731   4.329 -0.0721  0.3344 -0.0615
18095W        W61033  22.516  31.245   4.249 -0.2156 -0.1907 -0.0812
18096W        W61034  21.098  31.966   5.031 -0.1510 -0.3680 -0.1185
18097W        W61035  17.602  29.276   5.462  0.0801  0.4110  0.0174
18098W        W61036  19.487  32.200   5.624  0.1359 -0.0133 -0.2068
18099W        W61037  21.736  31.123   6.400  0.1862 -0.1887 -0.1263
18100W        W61038  19.368  29.178   4.644  0.0615 -0.2517  0.1615
18101W        W61039  18.043  30.681   5.625 -0.1850 -0.2222  0.2457
18102W        W61040  18.054  32.481   4.066 -0.1118 -0.0130  0.0056
18103W        W61041  19.992  31.220   5.639 -0.3064 -0.0126 -0.2540
18104W        W61042  22.185  28.136   6.620 -0.0701  0.1064  0.0354
18105W        W61043  20.835  30.818   5.228 -0.0821 -0.1543  0.2395
18106W        W61044  22.361  27.351   6.512 -0.4631 -0.0921  0.2420
18107W        W61045  20.587  32.063   6.173 -0.2449  0.1105  0.0718
18108W        W61046  19.246  32.466   6.239  0.2317  0.0873  0.1489
18109W        W61047  18.234  31.360   4.487 -0.0328  0.3737 -0.1449
18110W        W61048  20.617  30.451   6.691  0.0979  0.2613  0.1445
18111W        W61049  20.560  32.770   5.422 -0.1021 -0.0876 -0.0681
18112W        W61050  18.533  31.779   5.210 -0.0331 -0.1215 -0.0055
18113W        W61051  20.605  32.603   4.906  0.0934  0.0719 -0.1386
18114W        W61052  20.004  31.015   3.117  0.0097 -0.1161 -0.2273
18115W        W61053  22.686  32.001   4.987 -0.0673 -0.0960  0.0601
18116W        W61054  19.764  30.461   5.791  0.0055  0.1100 -0.3461
18117W        W61055  20.463  28.194   4.420  0.5558  0.0903 -0.0328
18118W        W61056  21.834  28.395   3.355 -0.0466  0.1445  0.0462
18119W        W61057  20.120  32.746   7.342  0.0881  0.0757  0.0385
18120W        W61058  17.792  28.990   2.870 -0.0174 -0.0655 -0.0540
18121W        W61059  19.402  30.887   3.672  0.0010  0.0855  0.0608
18122W        W61060  18.680  31.347   5.421  0.0626  0.0363 -0.2737
18123W        W61061  20.466  28.716   6.464 -0.4566 -0.0317  0.2449
18124W        W61062  20.853  30.054   7.397 -0.2667 -0.1420  0.0474
18125W        W61063  18.774  29.643   5.906 -0.0676 -0.0987 -0.3415
18126W        W61064  18.290  29.040   4.760 -0.0579  0.0782 -0.3907
18127W        W61065  21.265  31.213   2.118 -0.1011 -0.2885  0.1608
18128W        W61066  17.684  28.761   5.370  0.0337 -0.1055 -0.2830
18129W        W61067  18.764  27.642   5.158  0.4218 -0.1925 -0.2819
18130W        W61068  22.178  30.807   4.286  0.4225  0.2340  0.0754
18131W        W61069  21.269  32.301   4.377 -0.2694 -0.1551 -0.0106
18132W        W61070  19.118  28.589   4.203 -0.2885 -0.3311 -0.1492
18133W        W61071  21.039  31.736   6.587 -0.0507  0.0320 -0.0647
18134W        W61072  19.031  30.730   4.709 -0.1740  0.0672  0.1583
18135W        W61073  20.403  30.536   7.531  0.1547  0.4765  0.0579
18136W        W61074  19.683  29.536   6.022  0.0859  0.1351  0.0508
18137W        W61075  17.370  27.322   3.484 -0.1381 -0.0427  0.0925
18138W        W61076  18.880  30.296   5.699  0.3098 -0.2769  0.3512
18139W        W61077  19.596  31.585   4.224 -0.1212  0.2528 -0.1762
18140W        W61078  21.244  31.744   3.787 -0.1041 -0.1185  0.0104
18141W        W61079  18.839  32.542   6.641 -0.2477 -0.1819  0.1032
18142W        W61080  21.062  32.012   8.313  0.0894 -0.0388  0.2004
18143W        W61081  19.428  28.632   6.010 -0.1765  0.0326  0.0030
18144W        W61082  20.909  31.325   5.094  0.1289 -0.1179 -0.2340
18145W        W61083  21.442  31.593   8.197  0.3104 -0.0059  0.1401
18146W        W61084  21.677  30.993   4.240  0.2232 -0.1289  0.0243
18147W        W61085  20.878  28.818   4.889 -0.2260  0.1330 -0.0422
18148W        W61086  21.499  29.325   3.822  0.2457  0.2387 -0.0720
18149W        W61087  18.769  30.254   6.667  0.1580 -0.1571 -0.3783
18150W        W61088  18.367  30.592   8.286  0.4082 -0.0328  0.1239
18151W        W61089  20.428  30.751   7.067  0.0079  0.0229  0.0874
18152W        W61090  19.998  28.608   5.635 -0.1775 -0.3550 -0.0949
18153W        W61091  21.750  27.200   2.586  0.2359 -0.0054  0.0673
18154W        W61092  21.888  32.791   4.401  0.5204  0.1991  0.0240
18155W        W61093  18.041  29.339   5.796  0.0386 -0.1984  0.0027
18156W        W61094  20.095  28.675   4.610 -0.2518  0.2030 -0.0593
18157W        W61095  19.729  29.978   7.139 -0.0258  0.1738  0.0142
18158W        W61096  19.326  31.271   6.784 -0.2068 -0.3843  0.0492
18159W        W61097  20.256  30.713   6.549  0.0431 -0.0545 -0.0595
18160W        W61098  19.513  29.611   4.438 -0.2705  0.0428 -0.0430
18161W        W61099  22.323  30.600   4.684 -0.2968 -0.2819 -0.1900
18162W        W61100  20.082  33.007   5.637 -0.2191  0.2271  0.1396
18163W        W61101  20.876  32.171   7.379 -0.1983  0.0301  0.0949
18164W        W61102  21.635  33.595   4.926  0.1315 -0.1090 -0.3114
18165W        W61103  21.264  31.949   6.090  0.2434  0.0417 -0.0673
18166W        W61104  16.802  28.995   5.689 -0.2640  0.2777 -0.5097
18167W        W61105  18.720  30.518   5.086  0.1783  0.3719 -0.1896
18168W        W61106  20.266  30.956   2.564  0.2106  0.0442  0.2417
18169W        W61107  21.483  29.515   4.392  0.0338  0.3105  0.0028
18170W        W61108  19.456  28.462   5.327 -0.1409  0.1295 -0.2490
18171W        W61109  19.913  29.115   4.542 -0.1930 -0.1271 -0.1223
18172W        W61110  20.389  32.440   5.937 -0.1233  0.1023 -0.3557
18173W        W61111  20.451  31.999   5.685 -0.0155  0.1203 -0.2085
18174W        W61112  18.273  32.028   9.905 -0.1386  0.0865 -0.1039
18175W        W61113  18.873  30.371   9.371 -0.4193 -0.0827 -0.3596
18176W        W61114  21.606  29.534   5.206 -0.1980 -0.2679  0.3865
18177W        W61115  21.565  31.075   8.543 -0.2407 -0.2207 -0.1290
18178W        W61116  17.273  30.194   9.000  0.5587  0.2871  0.2854
18179W        W61117  21.885  32.778   7.989 -0.0456  0.1093 -0.0277
18180W        W61118  21.728  32.174  10.097  0.0437 -0.1032  0.3378
18181W        W61119  22.841  33.644  10.773 -0.0805 -0.2468  0.1004
18182W        W61120  19.897  31.570   6.550  0.2159  0.0511  0.2455
18183W        W61121  20.109  29.999   8.098  0.1014  0.1938  0.0948
18184W        W61122  18.803  29.002   8.267 -0.0392 -0.1577 -0.2564
18185W        W61123  17.777  32.114  10.531  0.0311  0.2450 -0.1036
18186W        W61124  21.748  28.890   9.330  0.3446 -0.0767 -0.2747
18187W        W61125  18.817  30.338   8.209  0.2706 -0.0462  0.1613
18188W        W61126  18.905  28.252   9.943  0.1502 -0.0965 -0.0291
18189W        W61127  20.866  29.031   7.213  0.3194 -0.0794 -0.1101
18190W        W61128  20.967  33.094   8.628  0.0753 -0.2562 -0.0974
18191W        W61129  18.570  28.711   9.750 -0.2337 -0.1353  0.0045
18192W        W61130  19.703  30.766   9.640  0.1719  0.2516  0.0264
18193W        W61131  18.820  31.229   7.385 -0.2231  0.0877 -0.1303
18194W        W61132  19.080  30.854   8.975  0.0212  0.1141 -0.2262
18195W        W61133  20.238  31.001  10.086  0.0150  0.0348  0.2656
18196W        W61134  20.869  28.504   8.041 -0.0459 -0.5812 -0.1871
18197W        W61135  21.014  32.631  10.335 -0.0101  0.1167 -0.0081
18198W        W61136  20.140  33.006   9.997 -0.2745 -0.1517  0.2340
18199W        W61137  21.331  31.636  10.025  0.2131  0.0748  0.1557
18200W        W61138  18.249  30.348   9.999  0.0220 -0.1672 -0.2722
18201W        W61139  19.119  31.134   8.591  0.2055 -0.2318 -0.0575
18202W        W61140  20.493  31.127   9.074 -0.0105  0.0779 -0.2860
18203W        W61141  21.672  31.428   9.688  0.2476  0.0292  0.1723
18204W        W61142  20.323  32.262   5.246  0.1476  0.1727  0.3383
18205W        W61143  21.958  33.116  10.520  0.3420  0.1096  0.4421
18206W        W61144  20.986  31.194   7.808 -0.2645  0.4169  0.2272
18207W        W61145  19.837  32.718   7.770 -0.0044  0.2758 -0.3761
18208W        W61146  17.405  28.546   9.930  0.2407 -0.1347  0.1744
18209W        W61147  17.934  31.498   9.270  0.2139  0.1002  0.0146
18210W        W61148  20.330  32.440   9.262  0.0564 -0.1064 -0.4561
18211W        W61149  21.552  29.396   8.901 -0.2074 -0.0814 -0.0334
18212W        W61150  20.764  29.519   7.157 -0.3216 -0.3321  0.3087
18213W        W61151  22.136  29.530   6.393  0.0751 -0.2236  0.1049
18214W        W61152  19.976  28.154   8.075  0.0881 -0.4506 -0.0408
18215W        W61153  19.589  33.151   8.946 -0.2525  0.1222 -0.2764
18216W        W61154  19.413  28.030   9.708 -0.0985 -0.4511  0.1887
18217W        W61155  21.320  29.538   8.147 -0.0535 -0.1529 -0.0501
18218W        W61156  19.171  28.040   9.280  0.0758 -0.0828 -0.1848
18219W        W61157  21.120  31.807   8.901  0.0178  0.2169  0.0602
18220W        W61158  19.507  29.938   7.976 -0.0876  0.1587  0.4174
18221W        W61159  21.975  30.669   8.533 -0.3636  0.1415  0.1966
18222W        W61160  21.401  30.686   9.352 -0.0513 -0.0148  0.2383
18223W        W61161  21.284  32.352   8.844  0.1157  0.0655  0.1196
18224W        W61162  19.858  30.460   8.260 -0.0077  0.0747  0.0079
18225W        W61163  19.306  29.038   6.980 -0.1803 -0.2566 -0.0153
18226W        W61164  20.803  29.985   8.095 -0.0111  0.0020  0.4651
18227W        W61165  20.830  30.918   9.815  0.3455  0.1814  0.2869
18228W        W61166  22.358  31.008   9.664 -0.0255 -0.0498 -0.2176
18229W        W61167  21.125  29.533   6.696 -0.0923  0.0940 -0.1376
18230W        W61168  22.456  29.861   7.991  0.1265 -0.3669 -0.3108
18231W        W61169  17.665  27.461   8.859  0.1481  0.1595  0.0853
18232W        W61170  18.807  32.266   7.671  0.2783  0.1918  0.0209
18233W        W61171  19.678  30.365   8.982  0.3699  0.3528  0.1621
18234W        W61172  22.455  31.149   9.181  0.2770  0.0095  0.0615
18235W        W61173  21.200  31.719   7.764  0.2164 -0.0050  0.0463
18236W        W61174  18.185  32.564   9.151  0.0119 -0.1161 -0.3014
18237W        W61175  19.008  32.196   7.022  0.1621  0.0371  0.0809
18238W        W61176  18.328  31.494   9.002 -0.1371 -0.1273 -0.3324
18239W        W61177  17.688  30.860   9.095 -0.1483  0.0286 -0.1555
18240W        W61178  19.738  29.141   9.748  0.1190 -0.1011 -0.1175
18241W        W61179  22.160  33.801   9.869  0.1423 -0.2940 -0.1157
18242W        W61180  20.922  28.076   8.539  0.1195 -0.4808  0.0507
18243W        W61181  21.629  27.520   8.897  0.1712  0.1105 -0.1796
18244W        W61182  19.289  30.989   9.961  0.0660 -0.0021  0.3183
18245W        W61183  21.504  33.061   8.180 -0.3853 -0.4057 -0.0481
18246W        W61184  20.926  29.326   8.963 -0.0074  0.0979  0.0980
18247W        W61185  20.106  32.484   6.354 -0.0508  0.1164  0.2989
18248W        W61186  19.024  29.921   9.684  0.1956 -0.0057  0.3627
18249W        W61187  19.765  31.182  10.111  0.1029  0.0541  0.1497
18250W        W61188  20.400  29.972   8.570 -0.2748  0.0907  0.3567
18251W        W61189  18.925  28.671   6.889 -0.0017  0.1288 -0.0195
18252W        W61190  20.526  30.532   8.999 -0.3335  0.2507  0.0810
18253W        W61191  19.911  29.869   8.625  0.3273 -0.1229  0.2469
18254W        W61192  18.733  30.737   7.546 -0.3674  0.4228  0.1147
18255W        W61193  20.771  31.567   8.086 -0.1557 -0.0190 -0.0587
18256W        W61194  23.617  30.417   9.716 -0.1989 -0.0944  0.0691
18257W        W61195  21.881  32.330   9.218  0.1462  0.2307 -0.0500
18258W        W61196  15.901  27.709   9.645  0.1590 -0.0804 -0.0270
18259W        W61197  18.931  30.691   6.879  0.1043  0.0356 -0.2166
18260W        W61198  19.161  33.188   8.517 -0.2150  0.0077 -0.0923
18261W        W61199  18.066  34.171  12.291  0.0135  0.0713 -0.1792
18262W        W61200  20.247  29.151   9.590  0.2408  0.2334 -0.0277
18263W        W61201  22.420  32.531   9.387  0.1695  0.1158 -0.2276
18264W        W61202  21.156  31.014   8.243  0.0740 -0.0940 -0.1394
18265W        W61203  22.486  32.337   8.951  0.0407  0.2205  0.0259
18266W        W61204  21.526  30.304   9.627 -0.1387  0.1997  0.0475
18267W        W61205  19.382  29.378   6.524 -0.1218 -0.0620  0.2933
18268W        W61206  21.457  31.419   8.933  0.1855 -0.0544 -0.0637
18269W        W61207  18.454  32.022   7.403 -0.0734 -0.1618  0.0395
18270W        W61208  18.371  31.043   9.503 -0.1804  0.0904 -0.0969
18271W        W61209  20.506  31.373   7.712  0.1028  0.1341  0.3227
18272W        W61210  21.604  28.493   8.904  0.0383 -0.1275 -0.1499
18273W        W61211  19.471  30.761   8.116  0.2675 -0.0452  0.2791
18274W        W61212  20.276  28.596   8.366  0.0468  0.1269  0.1583
18275W        W61213  22.569  29.378   8.059 -0.1278 -0.0564 -0.1682
18276W        W61214  21.448  28.862   8.427 -0.4216  0.0771 -0.0141
18277W        W61215  21.300  29.989   8.487  0.2229 -0.0122 -0.3670
18278W        W61216  19.970  29.380   7.400 -0.1786 -0.5344  0.1541
18279W        W61217  20.134  30.500   9.899  0.2489  0.1910  0.1933
18280W        W61218  18.262  31.963   9.368  0.1413  0.1504  0.1209
18281W        W61219  20.951  30.306   5.896  0.0127  0.0793 -0.1330
18282W        W61220  21.782  31.606   7.837 -0.0939 -0.1087  0.0473
18283W        W61221  18.061  30.615   9.370  0.0537  0.0233 -0.1112
18284W        W61222  20.637  33.459   8.440  0.0340  0.1798 -0.0660
18285W        W61223  20.262  29.544   8.266  0.0636 -0.1792 -0.0454
18286W        W61224  19.271  30.949   7.205 -0.0149 -0.0605  0.0574
18287W        W61225  19.765  28.734   8.794 -0.1559 -0.1633  0.0469
18288W        W61226  18.404  31.085   8.235 -0.4635 -0.3294  0.1920
18289W        W61227  23.297  29.326   9.615  0.3127  0.3181  0.3249
18290W        W61228  19.606  29.407  10.171 -0.0531  0.0027  0.0078
18291W        W61229  22.359  30.987   6.863  0.0260 -0.3010 -0.2021
18292W        W61230  20.319  31.585  10.266 -0.2642  0.0516  0.0897
18293W        W61231  20.216  31.532   7.350 -0.0312  0.0876  0.1769
18294W        W61232  20.154  31.216   8.725 -0.0111  0.2388  0.0479
18295W        W61233  22.385  29.506   9.219  0.0697  0.1219  0.0788
18296W        W61234  20.997  30.473   9.026 -0.1713 -0.3877  0.1852
18297W        W61235  20.378  29.774   7.268  0.2540 -0.0209 -0.1978
18298W        W61236  19.346  32.826   9.370 -0.0713  0.0276 -0.0799
18299W        W61237  19.311  30.086   9.338 -0.1667 -0.0471  0.1243
18300W        W61238  19.971  29.055   9.168  0.2054  0.2673 -0.1127
18301W        W61239  19.291  31.840   9.368 -0.1387 -0.3954  0.2012
18302W        W61240  20.492  31.972   8.012 -0.2320 -0.2794 -0.1808
18303W        W61241  20.242  32.546   9.738 -0.1047  0.0068  0.0116
18304W        W61242  19.574  32.928   8.479 -0.2818  0.1472  0.0306
18305W        W61243  20.105  27.285   8.819 -0.4097  0.0293 -0.0656
18306W        W61244  19.627  31.125   7.558  0.0388  0.1883  0.0907
18307W        W61245  19.065  30.446   7.322 -0.1670 -0.0036 -0.2154
18308W        W61246  20.563  31.968   8.562 -0.0326 -0.2484 -0.0415
18309W        W61247  19.962  27.630   8.446  0.1733  0.1308 -0.1922
18310W        W61248  21.215  30.721   7.797  0.5436 -0.2772  0.0990
18311W        W61249  20.864  29.701   8.561  0.0186 -0.2396 -0.3635
18312W        W61250  19.392  28.344   8.596 -0.0343 -0.1554 -0.1923
18313W        W61251  20.795  30.992   8.734  0.1025 -0.0913 -0.1782
18314W        W61252  22.796  29.502   7.109  0.2996 -0.4138  0.2976
18315W        W61253  18.123  29.851   7.215  0.2413 -0.3599 -0.0780
18316W        W61254  22.710  32.516  10.053 -0.1587  0.0428  0.1951
18317W        W61255  20.008  29.090   8.478 -0.1807 -0.0419 -0.3052
18318W        W61256  20.311  33.435  10.235  0.0373 -0.2771  0.0080
18319W        W61257  21.579  32.737   9.119  0.0571  0.1483  0.2583
18320W        W61258  19.790  29.545   8.176  0.0292  0.2304  0.0811
18321W        W61259  19.754  32.770   9.685 -0.0846  0.0958 -0.2739
18322W        W61260  24.287  31.261  10.072 -0.0625  0.2332  0.2693
18323W        W61261  20.967  29.869   9.536 -0.1629 -0.0147 -0.2763
18324W        W61262  19.235  30.084   8.342  0.0146  0.5628 -0.0268
18325W        W61263  20.567  29.608   9.095 -0.2680  0.1257 -0.3071
18326W        W61264  21.079  32.590   9.431  0.0822 -0.0889  0.1754
18327W        W61265  21.212  32.109   9.848  0.2603  0.0236 -0.0083
18328W        W61266  19.105  27.503   7.267 -0.1074 -0.1459  0.0952
18329W        W61267  21.911  33.130   9.089  0.0342 -0.3284  0.1495
18330W        W61268  20.314  33.449   9.445  0.1349 -0.3379 -0.1171
18331W        W61269  19.091  29.544  10.001  0.1776 -0.1078  0.0371
18332W        W61270  20.193  32.090   9.626 -0.3765  0.0750  0.2245
18333W        W61271  19.114  29.175   8.767  0.1423 -0.4330 -0.0350
18334W        W61272  19.433  31.128   9.465  0.3958 -0.0784 -0.1048
18335W        W61273  18.615  31.234   7.839  0.0468 -0.3923  0.0789
18336W        W61274  19.661  30.647  10.171  0.1635  0.2075 -0.0635
18337W        W61275  21.133  29.274   8.538 -0.0858 -0.1868 -0.0146
18338W        W61276  21.377  31.693   9.377  0.0285 -0.0572 -0.1360
18339W        W61277  21.287  29.548   9.800  0.1828 -0.1048 -0.2878
18340W        W61278  18.496  30.968   6.425  0.1254 -0.1661 -0.1658
18341W        W61279  18.049  29.115   8.874 -0.0670 -0.3057 -0.1197
18342W        W61280  19.746  31.978  10.051 -0.1396  0.1767 -0.2093
18343W        W61281  19.453  29.160   7.445  0.0966  0.1228 -0.3134
18344W        W61282  19.271  29.577   7.704 -0.2416 -0.2899  0.0072
18345W        W61283  21.257  30.213  10.036 -0.0856 -0.0684  0.1046
18346W        W61284  20.869  30.930   9.335 -0.1667 -0.0609 -0.0409
18347W        W61285  19.725  31.204   7.107 -0.1298  0.0166  0.1970
18348W        W61286  22.020  29.409   8.016 -0.3007 -0.0668  0.1476
18349W        W61287  20.291  31.512   8.251  0.4296 -0.1883 -0.0760
18350W        W61288  22.782  30.323   8.057 -0.3494  0.1178  0.1443
18351W        W61289  20.588  31.127   8.297  0.3274 -0.2337 -0.0162
18352W        W61290  22.290  30.772   8.937  0.2724 -0.1347 -0.0209
18353W        W61291  20.700  32.292   9.626 -0.0535 -0.3404  0.2212
18354W        W61292  20.557  28.184   7.611  0.0771 -0.0052  0.0921
18355W        W61293  22.318  31.612   8.989 -0.4380 -0.3325  0.1206
18356W        W61294  20.691  30.362   8.584 -0.0160  0.2869 -0.1142
18357W        W61295  20.454  27.016   9.144 -0.2196 -0.2419 -0.2348
18358W        W61296  21.462  30.327   8.938  0.3399  0.1434  0.0125
18359W        W61297  21.106  29.329   7.709 -0.2253  0.1583 -0.0513
18360W        W61298  19.803  27.798   9.476 -0.2268 -0.1547 -0.0074
18361W        W61299  19.077  29.683   6.653 -0.0644  0.0810 -0.2424
18362W        W61300  20.546  32.515   8.174 -0.0960  0.2423 -0.1693
18363W        W61301  20.537  31.837   9.845  0.5008  0.1052 -0.0299
18364W        W61302  20.788  29.453   8.136  0.2511  0.1453 -0.1159
18365W        W61303  19.008  31.425   9.517  0.2501 -0.4449  0.2113
18366W        W61304  18.953  31.256   6.426  0.0551 -0.2244 -0.1141
18367W        W61305  19.464  30.140   7.506  0.2654 -0.4779  0.0851
18368W        W61306  19.130   0.294   9.937  0.0300 -0.0843 -0.2458
18369W        W61307  19.384  28.548   7.329  0.3944  0.1743  0.0133
18370W        W61308  19.146  30.957   7.687  0.4325  0.2492  0.0740
18371W        W61309  20.930  26.986   8.857  0.5474 -0.0375  0.0978
18372W        W61310  15.539  31.322   9.373  0.2947  0.2036  0.2341
18373W        W61311  20.062  30.618   9.157 -0.1158 -0.2214  0.3251
18374W        W61312  20.639  27.401   8.668  0.1777 -0.3006 -0.1800
18375W        W61313  21.642  29.779   9.514 -0.0967  0.1312 -0.2761
18376W        W61314  20.497  31.291   9.550 -0.1305 -0.0059 -0.4284
18377W        W61315  20.806  30.366   7.803  0.3804 -0.3068 -0.1772
18378W        W61316  22.068  31.920   9.810 -0.0299  0.0110 -0.0187
18379W        W61317  19.942  30.966   8.334  0.0835 -0.0230  0.2871
18380W        W61318  20.082  30.358   8.675  0.1637  0.0498  0.2035
18381W        W61319  18.999  29.975   7.481 -0.1024  0.1798 -0.1130
18382W        W61320  19.676  31.229   8.656 -0.0967  0.0714 -0.2316
18383W        W61321  19.585  29.389   8.577 -0.0091 -0.3173  0.1511
18384W        W61322  20.274  32.334   8.708 -0.2982 -0.1037 -0.1510
18385W        W61323  20.551  31.858   7.551 -0.1433 -0.0218  0.2705
18386W        W61324  21.200  29.705   9.081 -0.0690 -0.1695 -0.0436
18387W        W61325  22.301  34.337  10.003 -0.0626 -0.2855  0.0342
18388W        W61326  19.238  30.215   6.529 -0.1366  0.0540  0.0166
18389W        W61327  18.612  34.492   9.356 -0.1803 -0.1547  0.3594
18390W        W61328  19.295  31.556   8.378 -0.1304 -0.0587  0.0760
18391W        W61329  21.342  32.208   7.482 -0.2470  0.3512  0.2581
18392W        W61330  19.252  32.307   8.636 -0.1357 -0.0075 -0.3053
18393W        W61331  21.781  29.767   6.623  0.2083 -0.0651  0.0808
18394W        W61332  21.244  30.896   8.896 -0.0824 -0.1120  0.0090
18395W        W61333  21.815  28.985   8.890 -0.0933 -0.3704  0.0546
18396W        W61334  21.863  30.767   9.604  0.0261  0.0652  0.1654
18397W        W61335  20.116  30.179   6.690 -0.2202 -0.0006 -0.2912
18398W        W61336  21.437  32.568   8.064  0.3910  0.0982 -0.0038
18399W        W61337  18.302  29.562   9.150 -0.2512 -0.1322  0.1597
18400W        W61338  20.539  30.167   9.387 -0.3403 -0.3240  0.1010
18401W        W61339  20.632  28.437   8.651  0.2415  0.1700 -0.1217
18402W        W61340  19.938  30.327   7.455 -0.0458 -0.1312 -0.0339
18403W        W61341  20.675  28.665   7.551 -0.3549 -0.1156  0.0685
18404W        W61342  20.546  33.234   9.835  0.1280  0.0229  0.0961
18405W        W61343  17.882  33.013   9.142 -0.0202  0.3234 -0.1716
18406W        W61344  19.209  31.428   9.011  0.1071 -0.4232 -0.1673
18407W        W61345  18.703  29.825   6.977  0.0336  0.0520 -0.0534
18408W        W61346  20.181  28.392   9.595  0.2089  0.0200 -0.1375
18409W        W61347  21.441  28.614   9.770 -0.0446  0.4519  0.0418
18410W        W61348  20.188  30.019   9.011 -0.0983  0.2721  0.2280
18411W        W61349  20.237  29.600   7.750 -0.1463 -0.2179 -0.0225
18412W        W61350  19.935  31.222   9.466  0.1567 -0.1893  0.2432
18413W        W61351  18.421  31.562   9.652  0.0197  0.1644  0.3809
18414W        W61352  21.378  29.278   7.314 -0.0488 -0.0000  0.0745
18415W        W61353  20.371  29.546   6.031 -0.1097 -0.1934  0.2955
18416W        W61354  19.590  29.085   8.007  0.1459 -0.0916 -0.0883
18417W        W61355  20.335  30.238   7.116 -0.0664  0.3955 -0.0266
18418W        W61356  18.766  29.923   8.539 -0.1528 -0.1874  0.1036
18419W        W61357  21.670  33.785   9.728  0.1757  0.2579  0.1862
18420W        W61358  18.233  28.329   7.082  0.0099  0.0562  0.1375
18421W        W61359  21.920  31.192   9.273  0.0452  0.0950  0.1761
18422W        W61360  22.870  31.183   9.919  0.0733  0.0545 -0.0325
18423W        W61361  19.449  31.894   8.826  0.0289 -0.1750 -0.0552
18424W        W61362  20.703  29.217   9.420  0.1808 -0.3809 -0.1945
18425W        W61363  20.303  32.177  10.208 -0.0623 -0.2749 -0.0096
18426W        W61364  18.686  29.966   9.123 -0.1149 -0.4060 -0.1711
18427W        W61365  21.644  32.026   9.586  0.0682 -0.1100  0.3566
18428W        W61366  22.499  32.005   9.299 -0.5366  0.2210  0.2973
18429W        W61367  19.562  29.323   9.081 -0.2807 -0.0513 -0.0428
18430W        W61368  19.786  30.249   9.458  0.1297 -0.0076  0.1525
18431W        W61369  20.042  32.622   8.323 -0.0246 -0.0665 -0.0368
18432W        W61370  18.607  27.200   9.007 -0.0834  0.0855 -0.0586
18433W        W61371  20.892  32.562   7.798 -0.0619  0.0605 -0.5851
18434W        W61372  21.443  33.300   9.895  0.1479  0.0774 -0.1544
18435W        W61373  19.560  30.643   7.534  0.2551  0.0752 -0.0372
18436W        W61374  20.389  31.993   9.036 -0.2025 -0.2056  0.1438
18437W        W61375  21.518  31.996   8.541 -0.0640  0.2230 -0.1239
18438W        W61376  22.076  29.580   9.619  0.2465 -0.2616  0.1012
18439W        W61377  20.923  30.739   7.343  0.1360 -0.2051  0.3321
18440W        W61378  22.061  32.084   8.793 -0.0841 -0.3428  0.2485
18441W        W61379  20.249  28.557   7.800  0.2426 -0.0130 -0.0291
18442W        W61380  20.724  28.362   9.158 -0.0643 -0.1555  0.1289
18443W        W61381  20.399  28.770   9.289 -0.2648  0.2446  0.1730
18444W        W61382  20.472  30.684   9.447 -0.1202  0.2579  0.2601
18445W        W61383  18.311  31.619   8.097 -0.2036 -0.0364 -0.0517
18446W        W61384  20.802  32.425   8.604 -0.1462 -0.2391 -0.0483
18447W        W61385  20.170  31.547   9.147 -0.1619 -0.1163  0.1324
18448W        W61386  19.137  30.418   7.814 -0.0591  0.3693  0.2530
18449W        W61387  18.943  29.480   7.266  0.2288  0.4126  0.1738
18450W        W61388  21.090  32.710   7.314 -0.2458  0.0186  0.1220
18451W        W61389  18.670  29.544   8.265  0.2189 -0.2871 -0.4418
18452W        W61390  16.318  29.834   9.270 -0.0700 -0.1215 -0.0574
18453W        W61391  21.664  30.265   8.378 -0.1688 -0.1717  0.0747
18454W        W61392  20.935  31.415   9.130 -0.0013  0.0542 -0.1205
18455W        W61393  20.123  29.163   7.897  0.2280 -0.0043  0.2667
18456W        W61394  18.185  30.975   9.979 -0.0316 -0.1231  0.3384
18457W        W61395  17.924  29.387   7.051 -0.1715 -0.0452 -0.2660
18458W        W61396  19.017  27.394   9.835 -0.0998  0.1083 -0.0602
18459W        W61397  20.053  31.764   8.687 -0.1481 -0.0895  0.1614
18460W        W61398  20.776  32.269   6.905 -0.2844  0.1123  0.1061
18461W        W61399  19.485  28.754   9.870  0.1728 -0.0083 -0.2349
18462W        W61400  20.822  30.659   8.238  0.0929  0.3761  0.2809
18463W        W61401  21.754  30.854   8.961 -0.1039 -0.2149 -0.0687
18464W        W61402  24.956  26.066  11.760 -0.1125 -0.0336  0.3171
18465W        W61403  20.556  31.210   7.244  0.2573 -0.0198  0.1511
18466W        W61404  22.832  32.227  10.587  0.2179 -0.0107  0.0241
18467W        W61405  18.799  26.945   9.825  0.2092 -0.0210  0.2106
18468W        W61406  21.636  29.493   6.949  0.1013  0.0088 -0.2208
18469W        W61407  21.461  31.226   7.845  0.2781  0.0743  0.3466
18470W        W61408  17.987  32.085   9.002 -0.2009 -0.1103 -0.2611
18471W        W61409  20.367  30.470   8.125 -0.2982  0.2071  0.0855
18472W        W61410  20.588  30.314   9.885 -0.1891 -0.2727 -0.1048
18473W        W61411  20.327  28.971   7.317  0.0924 -0.3240  0.0556
18474W        W61412  21.272  30.584   8.524 -0.3280  0.0888  0.0221
18475W        W61413  22.918  31.965   9.654  0.3066  0.0707 -0.0438
18476W        W61414  19.591  33.221   9.963 -0.2989 -0.1607 -0.2901
18477W        W61415  22.456  32.205   9.782 -0.1956  0.3983  0.3690
18478W        W61416  18.907  28.510   9.301  0.1216  0.0967  0.4700
18479W        W61417  19.345  30.569   9.269  0.1474 -0.0869 -0.1021
18480W        W61418  20.804  30.010   8.944 -0.2115 -0.2088  0.1413
18481W        W61419  20.255  26.817   9.537 -0.1524 -0.1742 -0.0607
18482W        W61420  19.310  28.849   8.406 -0.0880 -0.2051 -0.2819
18483W        W61421  19.512  29.542   7.128  0.0536 -0.1981  0.0316
18484W        W61422  19.351  33.321   9.318 -0.4523  0.0500  0.1922
18485W        W61423  20.100  31.578   9.786 -0.3002 -0.1761 -0.1071
18486W        W61424  17.988  32.854   2.517 -0.1951  0.1237 -0.2880
18487W        W61425  20.345  33.181  31.565 -0.0612  0.3396  0.2346
18488W        W61426  22.015   0.652   0.340 -0.3457  0.0084 -0.0451
18489W        W61427  19.320  33.398   1.538 -0.3008  0.0679  0.1173
18490W        W61428  18.815  33.401   1.656  0.1527  0.0182 -0.0373
18491W        W61429  20.854   1.273   1.231  0.3862  0.1246 -0.0185
18492W        W61430  20.689  34.408   3.353 -0.1621 -0.0390 -0.1951
18493W        W61431  20.318  33.602   1.141  0.1309 -0.1261  0.1632
18494W        W61432  19.840  31.691   3.063  0.0237 -0.4788  0.2146
18495W        W61433  21.562  34.134   3.044 -0.1491 -0.2610  0.2051
18496W        W61434  19.080  33.885   0.849 -0.1243  0.0941  0.2032
18497W        W61435  20.492  33.596   2.363 -0.1000  0.2791  0.2495
18498W        W61436  18.931  33.312   1.049  0.1428 -0.1429 -0.2755
18499W        W61437  19.991  32.657   1.810 -0.2989 -0.0698  0.1456
18500W        W61438  21.327  33.392   3.072 -0.2760 -0.2311 -0.5066
18501W        W61439  18.402   0.010   0.643 -0.2873  0.0734 -0.3163
18502W        W61440  17.441  32.662   1.798  0.0827 -0.3733 -0.1146
18503W        W61441  20.150  34.565   2.814  0.0230 -0.2382  0.1034
18504W        W61442  20.686  34.165   2.390  0.0307  0.2321  0.2236
18505W        W61443  21.534   0.252   1.577 -0.2426  0.0257 -0.1764
18506W        W61444  21.803   0.483   3.251  0.2336  0.1265 -0.0912
18507W        W61445  20.544  33.810   2.870 -0.1527  0.0474 -0.0374
18508W        W61446  19.020  34.195   1.196 -0.0154 -0.3911 -0.1561
18509W        W61447  21.772  32.701   3.510 -0.1134  0.1861  0.0505
18510W        W61448  20.409  32.239   0.621  0.3075 -0.1635  0.2593
18511W        W61449  20.047  32.202   1.684  0.0753  0.0727  0.1462
18512W        W61450  19.894  33.392   1.266 -0.3435  0.0814  0.1268
18513W        W61451  20.628  32.016   1.090  0.0683 -0.3658 -0.0731
18514W        W61452  20.528  32.244   1.516  0.2287 -0.0469 -0.3187
18515W        W61453  19.568  33.368   2.074 -0.0771  0.0712  0.0875
18516W        W61454  20.970  34.689   2.439 -0.0546 -0.1964 -0.0470
18517W        W61455  18.487  33.707   1.503 -0.1465  0.1170 -0.2712
18518W        W61456  18.586  33.087   2.809  0.0258  0.1568 -0.0017
18519W        W61457  18.700  33.933   4.729  0.0098 -0.0029  0.2327
18520W        W61458  18.058  34.554   3.284  0.0951 -0.0437  0.1361
18521W        W61459  19.208  32.190  31.562 -0.1685 -0.1466  0.1322
18522W        W61460  21.515  33.702   2.741  0.1513  0.2611 -0.1503
18523W        W61461  20.906  33.089   2.152  0.1689 -0.1935 -0.0050
18524W        W61462  21.114  34.429   1.613  0.1893  0.2682  0.2546
18525W        W61463  21.138   1.251   0.435  0.1789 -0.2528  0.0887
18526W        W61464  20.345  33.140   2.356 -0.0814 -0.0109 -0.0963
18527W        W61465  18.465  32.388   1.423 -0.0465  0.2934  0.1255
18528W        W61466  20.636  33.229   0.817 -0.1424 -0.2353  0.2271
18529W        W61467  18.909  32.853   3.788 -0.1002 -0.3252 -0.0904
18530W        W61468  20.142  32.036   1.180  0.5076  0.1699  0.0192
18531W        W61469  20.711  34.183   0.578  0.1815  0.0040 -0.0979
18532W        W61470  19.698  33.197   2.568  0.0826 -0.1889  0.1327
18533W        W61471  17.403  32.140   2.116  0.0050  0.1899 -0.1892
18534W        W61472  18.827  34.220   4.357 -0.3902  0.2311 -0.0768
18535W        W61473  17.318  33.336   3.468 -0.2527 -0.2146 -0.4921
18536W        W61474  21.120  33.357   2.468 -0.0920 -0.2895  0.2468
18537W        W61475  19.847  33.326   0.787  0.0937 -0.2188  0.1303
18538W        W61476  20.889  32.832   0.690 -0.4050 -0.3323  0.1115
18539W        W61477  20.296   0.346   2.082  0.0507 -0.4167  0.0690
18540W        W61478  20.245  34.230   3.191  0.0711  0.1402 -0.0099
18541W        W61479  20.075  33.029   3.667 -0.1888 -0.0313 -0.3099
18542W        W61480  18.685  33.158  31.282 -0.1474  0.0075 -0.4326
18543W        W61481  18.978  33.756   1.386  0.0767 -0.0326 -0.1337
18544W        W61482  20.415  32.472   1.077 -0.1809  0.2214 -0.1291
18545W        W61483  21.404  33.584   1.382 -0.2809 -0.4380  0.2341
18546W        W61484  18.280  33.337   1.826  0.3914  0.0726  0.3567
18547W        W61485  18.586  32.397   2.032  0.0204  0.0595 -0.1884
18548W        W61486  22.062  33.002   1.813  0.1757 -0.3175  0.0527
18549W        W61487  18.773  34.362   5.095  0.2478 -0.1270  0.2404
18550W        W61488  20.080  34.209   4.674 -0.0415  0.2821 -0.0550
18551W        W61489  17.669  33.299   1.037 -0.3089  0.0483  0.3252
18552W        W61490  19.372  32.565   1.895  0.2113  0.1602 -0.3823
18553W        W61491  21.499  33.832   0.488  0.1629  0.1823 -0.2366
18554W        W61492  19.675  33.229  31.068 -0.0465  0.1095 -0.0720
18555W        W61493  20.481  31.509   0.379  0.0185  0.1331 -0.0612
18556W        W61494  18.163  32.919   1.483  0.3971 -0.2669 -0.0594
18557W        W61495  20.071  32.617   3.402 -0.0112 -0.0591 -0.0262
18558W        W61496  20.622  34.622   1.455 -0.3072 -0.1296 -0.0670
18559W        W61497  20.830  34.380   1.052 -0.0568 -0.2008  0.0253
18560W        W61498  22.506  33.270   1.925 -0.3483  0.0808 -0.1411
18561W        W61499  21.591  34.295   2.008 -0.2119 -0.2473 -0.2735
18562W        W61500  20.704  32.185   4.701 -0.0241  0.0987 -0.0430
18563W        W61501  21.325  32.927   3.218 -0.3805  0.1139 -0.0700
18564W        W61502  20.996  34.655   0.537  0.0036  0.1922  0.0918
18565W        W61503  21.002   0.494   2.607  0.1148  0.3832 -0.0817
18566W        W61504  19.865  34.137   0.202 -0.0626 -0.0208 -0.0109
18567W        W61505  20.030  33.505   3.628  0.1477  0.0551  0.3149
18568W        W61506  19.388  32.475   2.991 -0.2051  0.0354 -0.0577
18569W        W61507  19.673  32.015   1.464  0.2068  0.0119 -0.0160
18570W        W61508  18.691  31.847   1.714  0.3189  0.1691 -0.2312
18571W        W61509  20.922  32.618   3.135  0.0906 -0.1402  0.0845
18572W        W61510  19.138  34.488   1.597 -0.2620  0.4371  0.0935
18573W        W61511  17.706   0.013   0.158  0.3340 -0.3025 -0.0340
18574W        W61512  20.815  33.688   3.824 -0.1648  0.1879 -0.3160
18575W        W61513  18.951  33.519   2.131 -0.0647 -0.1972 -0.2293
18576W        W61514  20.056  33.139   1.704  0.1378  0.0535 -0.0375
18577W        W61515  20.724   1.746   2.333  0.2345  0.0287  0.0878
18578W        W61516  20.751  33.160   0.278  0.0499 -0.1025 -0.2154
18579W        W61517  20.988  34.348   4.657  0.1307  0.1276 -0.0563
18580W        W61518  19.441  33.733  31.041  0.2182 -0.0495  0.1537
18581W        W61519  21.581  34.195   3.631  0.3388 -0.3778 -0.0015
18582W        W61520  20.766   0.311  31.652 -0.1588 -0.2362 -0.3975
18583W        W61521  19.321  33.296   0.642  0.0136 -0.1083 -0.1345
18584W        W61522  18.139  32.394   2.394  0.1418  0.2026 -0.3011
18585W        W61523  20.815  32.218   2.375  0.0245  0.1135 -0.0494
18586W        W61524  20.426  32.884   1.964 -0.0184 -0.1043  0.0388
18587W        W61525  20.223  33.687   1.589  0.0237 -0.4385  0.2926
18588W        W61526  20.869   0.403   2.165 -0.0958 -0.4241  0.0101
18589W        W61527  20.851  31.799   1.452 -0.1935  0.0421 -0.2702
18590W        W61528  22.094  34.422   2.386 -0.3369  0.0856 -0.3376
18591W        W61529  19.640   0.098   0.812 -0.0005  0.0905 -0.2358
18592W        W61530  20.816  33.271  31.744  0.2837  0.0102 -0.2173
18593W        W61531  19.392  34.104   0.367  0.3333  0.2165  0.0750
18594W        W61532  22.077  31.624   1.975 -0.2043 -0.1215 -0.0101
18595W        W61533  21.179  34.078   1.158 -0.0655  0.3004  0.0640
18596W        W61534  21.179  31.188   4.382 -0.1763 -0.4378  0.1918
18597W        W61535  19.751  33.343   4.074 -0.1540 -0.0778 -0.3282
18598W        W61536  18.307   0.105   2.336  0.1368  0.0994  0.0595
18599W        W61537  18.048   0.090   2.815  0.2138 -0.4637  0.0884
18600W        W61538  19.838  33.958   1.259  0.0780  0.0557 -0.3226
18601W        W61539  19.139  32.926   1.450 -0.0185 -0.1210 -0.1082
18602W        W61540  20.636  34.470   2.796 -0.0901 -0.1856  0.0793
18603W        W61541  21.991   0.008   1.558 -0.2272  0.0093  0.2128
18604W        W61542  18.711  34.393   2.418  0.1388  0.0243  0.2434
18605W        W61543  21.258  33.773   2.214 -0.2511 -0.3349 -0.1896
18606W        W61544  19.777  32.285   3.919  0.2249  0.1381 -0.4076
18607W        W61545  20.273  31.347   1.911  0.0375 -0.0616 -0.0548
18608W        W61546  21.589   0.567   2.690 -0.0356  0.2123  0.0620
18609W        W61547  21.660  34.249   4.131 -0.0481 -0.0506 -0.2298
18610W        W61548  19.364  33.557   2.494  0.0202 -0.1070 -0.0170
18611W        W61549  18.766  32.216   3.070  0.3540  0.0578 -0.1664
18612W        W61550  20.357  34.180   1.014  0.1163  0.2498  0.1312
18613W        W61551  22.252  34.392   2.904 -0.0575  0.1106  0.1724
18614W        W61552  21.969  33.076   2.310 -0.1996 -0.3110 -0.2238
18615W        W61553  19.932  34.459   1.226 -0.0473 -0.2183  0.2136
18616W        W61554  20.704  34.117   1.557 -0.0505 -0.1894 -0.0982
18617W        W61555  21.822  34.695   2.033 -0.0337 -0.0055 -0.1488
18618W        W61556  19.563  32.333   0.365 -0.0944 -0.0430 -0.0680
18619W        W61557  20.219  33.465   2.822 -0.1398  0.0190 -0.1218
18620W        W61558  21.091  33.363   0.658  0.1437 -0.2372 -0.0676
18621W        W61559  19.525  33.703   3.058 -0.0368  0.1089 -0.1095
18622W        W61560  18.208  33.016  31.268 -0.1659  0.1258 -0.2180
18623W        W61561  19.457  33.051   1.137  0.0733  0.1044 -0.2517
18624W        W61562  19.965  31.530   1.036  0.0911  0.0414 -0.0751
18625W        W61563  22.945  33.919   2.148  0.0588 -0.1511  0.3268
18626W        W61564  20.206  33.029   0.611  0.1293  0.0208 -0.2243
18627W        W61565  20.581  32.423   3.801  0.1663  0.4458  0.0350
18628W        W61566  20.411  34.555   2.343 -0.1655  0.0951  0.0516
18629W        W61567  19.720  33.657   1.700 -0.0892  0.4081 -0.0841
18630W        W61568  21.756   1.290   4.216 -0.1784  0.1654 -0.2088
18631W        W61569  18.025  34.342   1.653 -0.0457 -0.1111  0.3008
18632W        W61570  17.647  32.292   3.391  0.4358 -0.4373  0.3812
18633W        W61571  19.791  32.920   2.196 -0.1137  0.1248 -0.0533
18634W        W61572  19.791  33.047   0.337 -0.2741  0.0095  0.0258
18635W        W61573  19.998  31.643   1.518 -0.0396 -0.0755 -0.0942
18636W        W61574  22.212   0.264   0.739  0.0808  0.3240 -0.1290
18637W        W61575  23.039  33.728   0.101  0.0677 -0.1204  0.2307
18638W        W61576  19.314  33.808   1.958  0.0710 -0.0115 -0.2899
18639W        W61577  17.701  32.833   1.166 -0.1958  0.0666  0.0446
18640W        W61578  19.017  33.949   2.470 -0.0427  0.1493 -0.1862
18641W        W61579  20.771  33.165   3.158  0.0400  0.1462 -0.0066
18642W        W61580  19.666  32.887   3.936  0.3558  0.3615  0.1339
18643W        W61581  19.386  34.012   1.517 -0.0536 -0.0511  0.0944
18644W        W61582  20.880  33.603   1.501  0.2659  0.1821 -0.0757
18645W        W61583  20.723  33.835   1.110 -0.1028 -0.0071 -0.1824
18646W        W61584  17.648  33.213   1.564 -0.1371 -0.0388  0.0168
18647W        W61585  22.965  34.159   0.358  0.0539 -0.1427  0.0743
18648W        W61586  20.231  34.135   2.610 -0.3210  0.0952 -0.0493
18649W        W61587  23.014  34.180   2.648  0.0405 -0.1749 -0.2291
18650W        W61588  16.554  33.678   1.246 -0.0659 -0.1611  0.0705
18651W        W61589  21.136  34.268   2.211  0.0140  0.0577  0.0317
18652W        W61590  18.517  32.739   2.486 -0.2744 -0.1836 -0.0756
18653W        W61591  19.450  33.601   1.097 -0.0129  0.1796  0.1735
18654W        W61592  21.475   0.456   2.070  0.2201 -0.1238  0.1229
18655W        W61593  20.145  33.006   1.114 -0.0715  0.1022 -0.3487
18656W        W61594  19.747  32.515   2.632 -0.0652  0.3217  0.2424
18657W        W61595  20.292  33.264   0.150  0.1492  0.2794 -0.2981
18658W        W61596  17.592   0.056   1.092 -0.1388  0.0704 -0.1272
18659W        W61597  19.847  33.775   2.700  0.0972  0.2169 -0.0652
18660W        W61598  18.229  31.494   1.031 -0.3599  0.1095 -0.0120
18661W        W61599  20.580   0.331   1.692  0.0573  0.0773 -0.0948
18662W        W61600  21.449   0.412   1.073  0.2343 -0.0628  0.0664
18663W        W61601  17.863  32.677   3.676 -0.0110 -0.0376  0.1413
18664W        W61602  19.421  32.791   0.524  0.0013  0.0955  0.1205
18665W        W61603  20.381  32.764   1.515 -0.2515  0.0273  0.2277
18666W        W61604  20.849  32.599   1.857  0.0729 -0.0836  0.5743
18667W        W61605  21.766  32.203   2.874  0.1884 -0.1530  0.0737
18668W        W61606  21.642  33.428   3.804  0.1725 -0.2783 -0.1641
18669W        W61607  20.085  34.310  31.714  0.2464 -0.0965  0.1681
18670W        W61608  20.119  32.359   2.933  0.3382  0.0483 -0.1051
18671W        W61609  21.384  32.710   1.800 -0.1509 -0.2034  0.0160
18672W        W61610  21.254  32.972  31.898  0.0226 -0.0710  0.0643
18673W        W61611  19.191  33.696   3.955 -0.2166 -0.0837  0.1010
18674W        W61612  18.101  33.862   0.364  0.0662 -0.2645 -0.0493
18675W        W61613  18.925  31.891   3.852 -0.0780 -0.0336  0.1782
18676W        W61614  19.853  33.676   4.498 -0.1865  0.3715  0.1979
18677W        W61615  18.832   0.211   2.339  0.1054 -0.3076 -0.0335
18678W        W61616  19.088  33.604   0.042 -0.0348  0.0286  0.0257
18679W        W61617  19.284  33.178   2.899 -0.1971  0.2042 -0.0888
18680W        W61618  18.958  32.418   1.177 -0.2258  0.0475  0.1057
18681W        W61619  20.553  33.177   1.341  0.0296 -0.2998  0.1581
18682W        W61620  20.075   0.479   4.194  0.1460 -0.3463  0.0112
18683W        W61621  20.335  33.542   4.559  0.0424  0.0124 -0.3390
18684W        W61622  18.178   0.286   0.258  0.0127  0.1011 -0.1090
18685W        W61623  19.845  33.833   2.224 -0.2901 -0.2251  0.0880
18686W        W61624  18.978  32.672   2.742  0.0973 -0.1331 -0.0067
18687W        W61625  20.732  33.866   1.989 -0.1308  0.0582  0.2525
18688W        W61626  20.036  34.530   2.009  0.0619 -0.3568 -0.1434
18689W        W61627  19.163  33.489   3.377  0.2657 -0.1362 -0.2850
18690W        W61628  20.257  33.140   3.229 -0.0361 -0.2914  0.0514
18691W        W61629  20.736  34.558   1.938 -0.0793 -0.0077  0.0791
18692W        W61630  18.122  33.762   0.949 -0.2614 -0.0112  0.5058
18693W        W61631  19.400  32.917   0.001 -0.0591 -0.0628 -0.0343
18694W        W61632  19.812  34.205   2.938 -0.1381  0.1490 -0.3313
18695W        W61633  18.957  34.203   0.062  0.1714 -0.0564 -0.3836
18696W        W61634  21.840   3.108  30.563  0.1750  0.0500 -0.0623
18697W        W61635  19.362  32.806   2.484  0.0843 -0.1769 -0.0479
18698W        W61636  18.287  33.225   2.410  0.1087 -0.0213 -0.1449
18699W        W61637  20.312  33.694   4.031 -0.3281 -0.2000  0.0120
18700W        W61638  21.244  33.424   1.863 -0.0614 -0.2712 -0.0324
18701W        W61639  20.926  32.110   1.850  0.2123 -0.2794  0.1562
18702W        W61640  20.519  32.718   0.392 -0.2251 -0.1153  0.0267
18703W        W61641  18.731  32.636   4.249  0.0017  0.1254 -0.0565
18704W        W61642  20.437   0.509   3.863 -0.1237 -0.0226  0.0590
18705W        W61643  22.110  34.085   4.337 -0.1279 -0.1728  0.0579
18706W        W61644  19.810  32.652   5.861  0.3423 -0.0893 -0.0621
18707W        W61645  20.347  33.705   7.004  0.3272 -0.2921 -0.0233
18708W        W61646  21.328   0.336   3.491 -0.0863 -0.2851 -0.3637
18709W        W61647  19.832   0.847   6.811 -0.2581 -0.1097 -0.0042
18710W        W61648  20.835  33.459   4.792  0.0211  0.0877 -0.0061
18711W        W61649  18.126  31.390   5.288 -0.4137 -0.0179 -0.0789
18712W        W61650  21.058   0.412   6.179  0.0935  0.0186 -0.2324
18713W        W61651  19.620  34.257   4.520  0.1039  0.0149 -0.1212
18714W        W61652  19.530  33.587   5.923  0.0793 -0.2709 -0.1409
18715W        W61653  18.858  33.222   4.167  0.1685 -0.3710 -0.0685
18716W        W61654  19.749  33.906   6.223  0.1381 -0.0629  0.0445
18717W        W61655  21.075  33.546   7.591  0.0447  0.3152 -0.0409
18718W        W61656  17.342  32.876   3.790 -0.0901 -0.1435  0.0270
18719W        W61657  17.970  33.095   4.937 -0.2427 -0.1474  0.0654
18720W        W61658  19.216   0.053   6.146  0.0165  0.0200  0.1214
18721W        W61659  21.848  33.187   4.675 -0.1295  0.0368  0.0298
18722W        W61660  21.883   0.160   5.604  0.0460  0.1021 -0.2413
18723W        W61661  22.425  33.691   6.205  0.1818 -0.2030 -0.3399
18724W        W61662  22.163   0.411   7.247 -0.1565 -0.4408  0.2049
18725W        W61663  20.952   0.970   4.597  0.2623 -0.1097 -0.0670
18726W        W61664  23.013  32.172   7.141 -0.1575 -0.1261 -0.0876
18727W        W61665  21.356  33.879   3.913  0.2515 -0.0366  0.0533
18728W        W61666  19.516  32.512   3.480 -0.2515 -0.1133  0.1195
18729W        W61667  21.091  32.886   2.771 -0.0570 -0.2092  0.2284
18730W        W61668  20.409  34.247   5.105  0.1586 -0.0598 -0.0655
18731W        W61669  19.494  33.983   5.471 -0.0716 -0.0226  0.0582
18732W        W61670  20.025   0.426   3.009  0.0659  0.0381  0.2387
18733W        W61671  21.144  33.438   5.194  0.2406 -0.1737  0.3379
18734W        W61672  20.149  34.136   4.170 -0.4238  0.1182  0.0294
18735W        W61673  19.167  34.251   4.778 -0.0888  0.0916 -0.2046
18736W        W61674  18.795   0.110   7.440 -0.0310 -0.0266  0.2255
18737W        W61675  18.690  34.417   6.594  0.0645  0.3176 -0.0775
18738W        W61676  19.856  32.087   3.320 -0.2557 -0.2628 -0.1433
18739W        W61677  21.599  33.509   5.569  0.3631  0.1200  0.1560
18740W        W61678  20.825  32.295   5.293 -0.1771 -0.0561  0.2088
18741W        W61679  22.098  32.869   6.549 -0.3031  0.2262 -0.0117
18742W        W61680  21.682  34.181   4.980 -0.1204  0.4402  0.1286
18743W        W61681  19.330  33.763   6.405  0.1389  0.0377 -0.0637
18744W        W61682  18.904  33.546   6.653  0.2415 -0.1868  0.2113
18745W        W61683  21.306  33.358   4.597  0.4052  0.3012  0.3713
18746W        W61684  18.768  33.337   6.206 -0.1488  0.1013 -0.1296
18747W        W61685  20.801  31.267   3.591  0.4670 -0.1689 -0.0076
18748W        W61686  20.337  33.990   3.624  0.0747  0.1875 -0.0387
18749W        W61687  18.769  33.418   5.609  0.2604  0.1775 -0.1203
18750W        W61688  20.175  32.835   5.094  0.1334 -0.1329 -0.1549
18751W        W61689  19.564  32.651   7.143 -0.2725 -0.2352 -0.1801
18752W        W61690  19.101  33.077   5.572  0.0731 -0.0179  0.1607
18753W        W61691  21.380   0.638   6.755 -0.0629  0.1041  0.3927
18754W        W61692  19.740  32.498   4.377  0.1638 -0.0419  0.0425
18755W        W61693  21.581  33.139   4.259  0.1122  0.1255 -0.2516
18756W        W61694  19.349   0.089   3.939 -0.0046  0.0673 -0.0773
18757W        W61695  23.150  32.925   6.371 -0.1149  0.0253 -0.0604
18758W        W61696  21.077  33.687   5.608  0.2278 -0.5535  0.1291
18759W        W61697  20.269  33.897   5.410 -0.0931 -0.0518  0.0799
18760W        W61698  19.953  33.042   4.484  0.3313 -0.0718 -0.2938
18761W        W61699  19.467  33.718   7.431 -0.0422  0.1894  0.0080
18762W        W61700  21.535   0.362   5.304 -0.1058  0.2426  0.0595
18763W        W61701  18.035  31.962   4.071 -0.0338  0.0658 -0.0823
18764W        W61702  18.172   0.528   4.150  0.1559  0.0040 -0.0563
18765W        W61703  22.054  33.135   5.637  0.1421 -0.0408 -0.0802
18766W        W61704  19.826   1.376   6.400 -0.3285 -0.1854 -0.1000
18767W        W61705  20.661  33.780   6.572 -0.1427 -0.2974  0.0258
18768W        W61706  19.468  32.992   3.417 -0.0702  0.1156 -0.1344
18769W        W61707  21.971  32.371   3.820 -0.1409  0.0198  0.2672
18770W        W61708  21.049  33.987   2.655 -0.2432  0.0429 -0.3494
18771W        W61709  20.735  33.373   4.241  0.1551 -0.0206 -0.0128
18772W        W61710  20.249  33.208   4.133 -0.2458 -0.0480  0.0324
18773W        W61711  20.406  32.774   4.395  0.2930  0.0679  0.1269
18774W        W61712  20.551  33.469   5.637  0.1061 -0.4591  0.1710
18775W        W61713  19.983  32.885   2.841 -0.1543 -0.0061 -0.1254
18776W        W61714  20.725  34.681   4.879 -0.4725 -0.0544 -0.0013
18777W        W61715  22.619  33.010   7.431 -0.1918  0.0645 -0.3409
18778W        W61716  20.972  33.115   5.621  0.1121 -0.1917  0.0034
18779W        W61717  19.817  32.825   6.749  0.0945 -0.0831 -0.1249
18780W        W61718  22.652   1.074   6.135  0.0443  0.3189  0.4402
18781W        W61719  21.083   0.382   4.547 -0.1443 -0.0384  0.1916
18782W        W61720  21.212  34.261   5.777 -0.1593 -0.1915 -0.0911
18783W        W61721  19.828  33.329   3.188 -0.2684 -0.1694  0.0075
18784W        W61722  21.929  33.272   6.893  0.2471  0.1054  0.0586
18785W        W61723  21.629  33.177   6.481  0.0437 -0.2965 -0.2201
18786W        W61724  18.779  32.503   4.810 -0.0987  0.0225 -0.3115
18787W        W61725  18.870  32.562   5.714 -0.1345 -0.0412 -0.0429
18788W        W61726  21.738  33.348   6.011  0.0940  0.2130 -0.1587
18789W        W61727  18.572  33.351   3.747 -0.1022 -0.0234 -0.4505
18790W        W61728  19.483  33.775   4.918  0.2057 -0.0506 -0.2454
18791W        W61729  20.662  33.177   5.183  0.0566  0.1881  0.0934
18792W        W61730  19.774   0.171   5.305 -0.0015 -0.1280 -0.1571
18793W        W61731  20.694  34.141   5.614 -0.3627 -0.1242  0.0023
18794W        W61732  21.765  33.870   6.857 -0.0187 -0.2020 -0.0268
18795W        W61733  21.810  33.200   3.371 -0.1286  0.2773  0.0175
18796W        W61734  20.364  34.122   8.222 -0.1048  0.0951 -0.1834
18797W        W61735  18.361  34.451   2.804 -0.0979 -0.4154 -0.1242
18798W        W61736  22.046  34.293   6.946  0.1088  0.1233 -0.3332
18799W        W61737  20.905  34.674   4.299 -0.1832  0.1440  0.4282
18800W        W61738  19.540  33.707   3.550  0.1228 -0.5694 -0.0787
18801W        W61739  19.039  33.675   5.978 -0.0168 -0.0263  0.2680
18802W        W61740  20.928  34.237   5.152 -0.1893  0.2043 -0.0799
18803W        W61741  19.360  33.498   5.465 -0.0334  0.0313  0.0670
18804W        W61742  20.238   0.555   4.727  0.1852 -0.1013 -0.0682
18805W        W61743  21.285   0.813   5.433  0.2298 -0.0288  0.0582
18806W        W61744  20.110  34.281   6.929  0.2762  0.3527  0.0038
18807W        W61745  21.698   0.139   6.283  0.3617  0.0955  0.1737
18808W        W61746  20.227  33.978   6.514 -0.3019 -0.3366 -0.0008
18809W        W61747  21.343  31.527   4.873  0.1523 -0.1294  0.1856
18810W        W61748  22.175  34.230   5.588 -0.0480 -0.1286 -0.1145
18811W        W61749  22.119  32.157   7.780 -0.1058 -0.3787  0.2745
18812W        W61750  21.815  34.498   4.609 -0.0001  0.0048 -0.1392
18813W        W61751  21.876  33.283   7.742 -0.1812  0.0013  0.0052
18814W        W61752  20.577  33.061   6.428  0.1060 -0.2288  0.1039
18815W        W61753  20.197  33.913   7.746 -0.2441  0.1170  0.1411
18816W        W61754  18.409   0.488   7.760  0.0490  0.0345  0.0875
18817W        W61755  21.202  33.442   4.055 -0.1045 -0.0140 -0.2039
18818W        W61756  18.956  32.150   4.250  0.0162  0.2384 -0.2155
18819W        W61757  19.436   0.388   4.861 -0.1479  0.0954 -0.2680
18820W        W61758  21.974  33.361   5.177 -0.1644 -0.3517  0.1094
18821W        W61759  20.619   0.594   5.675 -0.0707 -0.0018 -0.2275
18822W        W61760  22.733  34.207   5.370  0.0229  0.2592  0.2011
18823W        W61761  22.086  33.402   6.426  0.2158 -0.2405  0.1847
18824W        W61762  20.152  33.840   4.952  0.1436  0.1508  0.0833
18825W        W61763  21.089  32.898   5.171  0.0604 -0.2244  0.2733
18826W        W61764  21.588  33.667   6.316 -0.0920 -0.1255  0.2082
18827W        W61765  17.686   0.762   6.373  0.1242 -0.1031  0.2967
18828W        W61766  18.563  33.458   7.643 -0.1429 -0.2040  0.0050
18829W        W61767  20.894   0.544   4.067  0.2760 -0.0528  0.0163
18830W        W61768  22.992  33.433   7.288 -0.0773 -0.2958  0.1540
18831W        W61769  22.338  34.671   5.348  0.2048 -0.0328  0.0043
18832W        W61770  20.707  33.200   2.671  0.1567 -0.2134  0.2284
18833W        W61771  19.368  34.155   5.918 -0.1408 -0.1061 -0.0346
18834W        W61772  22.002   0.697   7.680  0.1508  0.1364 -0.1571
18835W        W61773  20.383  32.274   4.364 -0.2126 -0.1677 -0.0255
18836W        W61774  21.443  33.961   7.651 -0.0526  0.0594  0.0898
18837W        W61775  21.593  33.624   4.323  0.0844  0.0142  0.0792
18838W        W61776  18.930  33.489   4.709  0.2107  0.0939 -0.3332
18839W        W61777  20.809  33.678   3.314 -0.2946 -0.5290  0.3276
18840W        W61778  20.311  34.666   4.103 -0.0702 -0.2268  0.0334
18841W        W61779  20.127  30.833   4.611 -0.0933 -0.2707 -0.0067
18842W        W61780  21.143  33.480   6.591 -0.1748  0.2600 -0.1972
18843W        W61781  20.662  33.964   4.299  0.0597 -0.3039 -0.0024
18844W        W61782  20.880  32.752   6.163 -0.2931  0.2163  0.3508
18845W        W61783  21.113  33.871   4.919 -0.2067  0.2674  0.0515
18846W        W61784  21.477   1.130   6.470 -0.2991 -0.0573  0.3026
18847W        W61785  21.212  34.642   6.168 -0.0275 -0.2062  0.0896
18848W        W61786  19.101   1.069   5.795  0.1554 -0.2820 -0.2496
18849W        W61787  19.794  34.080   7.272 -0.0926 -0.0810 -0.1817
18850W        W61788  19.598  32.800   4.765 -0.0461 -0.0427 -0.0249
18851W        W61789  19.289  34.256   3.975  0.2073 -0.0627  0.2196
18852W        W61790  20.654  34.331   3.955  0.1099 -0.3557 -0.1363
18853W        W61791  22.176   0.338   4.679  0.0940  0.1772 -0.1006
18854W        W61792  22.197  33.928   3.515  0.0825  0.1365 -0.0607
18855W        W61793  19.669  34.564   5.705  0.0132  0.3543  0.1537
18856W        W61794  19.890  34.184   5.206 -0.3037  0.2136 -0.2949
18857W        W61795  19.277  34.640   7.496 -0.1872  0.4444 -0.1187
18858W        W61796  22.329  32.668   8.382 -0.2222 -0.0651 -0.0964
18859W        W61797  19.623  33.001   5.244 -0.0604 -0.2691  0.0517
18860W        W61798  19.305  33.232   4.935  0.0198 -0.0736 -0.1037
18861W        W61799  21.667  33.986   5.782  0.0030 -0.1468  0.1880
18862W        W61800  21.406  32.381   5.191  0.1968  0.1098  0.1257
18863W        W61801  18.404  32.276   4.448  0.1519  0.0197  0.2066
18864W        W61802  23.634  33.611   5.240 -0.1634  0.0560 -0.1262
18865W        W61803  20.882   0.327   7.091 -0.0616 -0.1720 -0.2065
18866W        W61804  21.568  31.199   5.655 -0.3470 -0.0338  0.0443
18867W        W61805  20.544  34.395   4.484  0.2603  0.2810  0.3091
18868W        W61806  22.072  33.616   5.791  0.0369 -0.1004  0.0886
18869W        W61807  19.285  32.918   6.755  0.1195 -0.3146  0.1162
18870W        W61808  18.524  33.255   4.518  0.1486 -0.0049 -0.0231
18871W        W61809  21.953   0.212   7.787 -0.3635  0.4243 -0.0071
18872W        W61810  21.284  34.456   2.795  0.0362  0.1256 -0.0366
18873W        W61811  18.482  33.520   4.915  0.4324 -0.0131  0.0517
18874W        W61812  19.291  33.224   3.817  0.3642  0.1284  0.0557
18875W        W61813  18.441  33.798   5.487 -0.0930 -0.0151  0.3482
18876W        W61814  21.125  34.106   7.282 -0.0822 -0.0469 -0.1902
18877W        W61815  19.356  31.714   2.924  0.0370 -0.0647 -0.0641
18878W        W61816  21.449   0.289   5.857 -0.4627 -0.0293 -0.0786
18879W        W61817  22.423   0.423   5.582  0.2154  0.0490 -0.2726
18880W        W61818  18.051  32.621   6.825  0.1361 -0.2014  0.0025
18881W        W61819  20.387  33.111   4.759 -0.1862  0.1443 -0.2242
18882W        W61820  19.934  34.103   5.741 -0.1672  0.1555  0.2403
18883W        W61821  21.485  33.031   5.517  0.0081  0.2185 -0.1326
18884W        W61822  21.287  32.427   6.072 -0.3135 -0.0455 -0.1510
18885W        W61823  21.725  32.748   6.916 -0.0427  0.1557  0.0078
18886W        W61824  20.196   0.033   4.580  0.3121  0.1268 -0.1517
18887W        W61825  20.761  33.704   5.227  0.1404 -0.0648 -0.1367
18888W        W61826  21.828  31.514   4.941 -0.0430  0.1642  0.0908
18889W        W61827  20.450  32.805   2.916 -0.0141  0.1335 -0.0594
18890W        W61828  20.656   1.129   7.750  0.2877 -0.1964  0.1885
18891W        W61829  18.250  33.988   5.071 -0.1073 -0.1236  0.1104
18892W        W61830  20.565  33.614   7.473 -0.1931 -0.0992  0.2296
18893W        W61831  19.209  33.817   6.930  0.1076  0.4048  0.0579
18894W        W61832  19.765  33.614   5.291 -0.2258 -0.1085 -0.1267
18895W        W61833  19.611  32.882   6.317 -0.0162  0.0372  0.2458
18896W        W61834  19.873  32.602   5.406 -0.0716 -0.0306 -0.0927
18897W        W61835  18.161  32.282   6.370  0.2029  0.1932  0.0986
18898W        W61836  21.200  32.645   5.616  0.3940  0.1541  0.1306
18899W        W61837  20.840  33.928   6.143 -0.0864  0.1846 -0.0260
18900W        W61838  19.246  32.894   5.991 -0.0258 -0.2904  0.0429
18901W        W61839  18.077  32.640   6.039  0.3311  0.1393 -0.3572
18902W        W61840  20.172  34.584   5.449  0.0450  0.1856 -0.2987
18903W        W61841  18.094  31.790   6.783  0.0684  0.0434 -0.1515
18904W        W61842  22.199  32.496   5.131 -0.1510  0.1215  0.0074
18905W        W61843  21.398  34.031   5.321  0.1533 -0.3350 -0.1402
18906W        W61844  19.481  33.426   6.788  0.1243  0.2558 -0.0288
18907W        W61845  20.222  31.679   5.284  0.1450 -0.2230  0.1339
18908W        W61846  21.481  33.102   5.031  0.0647  0.0560 -0.0898
18909W        W61847  19.573  33.131   5.717  0.1441  0.0671 -0.1475
18910W        W61848  19.899  34.623   3.277  0.0910 -0.0115  0.0333
18911W        W61849  21.159  33.914   8.077 -0.1676  0.0330 -0.1289
18912W        W61850  20.204  34.440   3.691  0.2258  0.0500 -0.0182
18913W        W61851  22.855   1.348   4.194  0.1963 -0.1335 -0.0598
18914W        W61852  19.296  33.290   6.283 -0.0356 -0.3747  0.1285
18915W        W61853  19.469  34.420   3.529  0.0806  0.0819 -0.0332
18916W        W61854  19.050   0.436   3.707 -0.1845 -0.3058 -0.0237
18917W        W61855  22.497  33.678   6.977 -0.0882 -0.2765 -0.1205
18918W        W61856  20.188   1.014   6.448  0.1016 -0.3171  0.1407
18919W        W61857  19.818  34.095   3.597  0.3193  0.1663  0.0628
18920W        W61858  19.402   0.574   6.627  0.1076 -0.0861 -0.3011
18921W        W61859  20.984  32.347   6.444 -0.2303  0.3448 -0.0402
18922W        W61860  20.427   0.315   8.917  0.0823 -0.1724 -0.1520
18923W        W61861  20.170  32.932   9.380  0.0788  0.0214 -0.1882
18924W        W61862  20.245   0.917   8.200  0.1104 -0.2759 -0.1432
18925W        W61863  20.977  33.519   8.863 -0.1129 -0.1561  0.4126
18926W        W61864  21.074  31.390   8.537 -0.0211  0.1171  0.3726
18927W        W61865  19.986  33.999   9.602  0.0357  0.2436  0.1093
18928W        W61866  20.420  34.400   7.745 -0.3256  0.1383  0.1561
18929W        W61867  19.619   0.796   9.053 -0.3374 -0.1853 -0.2169
18930W        W61868  20.641  32.816   9.479  0.1034  0.2046 -0.1520
18931W        W61869  19.593   0.148   7.867 -0.2793  0.1331  0.0623
18932W        W61870  20.755  34.553  10.424 -0.1303  0.1719 -0.1334
18933W        W61871  20.411  34.052   7.326 -0.0415 -0.0859 -0.4565
18934W        W61872  16.340  33.503   9.216 -0.1241  0.1420  0.0244
18935W        W61873  20.161   0.231  10.381 -0.1995 -0.0176  0.0526
18936W        W61874  20.948  34.072   9.501  0.0994 -0.1069  0.0157
18937W        W61875  21.971  34.595  10.465  0.2798  0.2730  0.2668
18938W        W61876  20.383  34.256   9.460 -0.2101 -0.1306  0.0400
18939W        W61877  20.006   0.760   7.737 -0.0549 -0.0095  0.0158
18940W        W61878  21.090  34.439   7.694  0.0212  0.4255  0.1737
18941W        W61879  20.121  34.510   7.396  0.0449  0.0560 -0.1733
18942W        W61880  21.681  33.622   9.167  0.0812 -0.1907 -0.0937
18943W        W61881  20.507  32.819   8.525 -0.1162  0.1231 -0.1042
18944W        W61882  19.913   0.677  10.292  0.1500  0.0617  0.1467
18945W        W61883  19.766   0.270   8.378  0.1073  0.3273 -0.0979
18946W        W61884  21.260  33.529   9.441  0.2475  0.3387 -0.1628
18947W        W61885  18.800  33.479   8.533 -0.0816 -0.1587 -0.4107
18948W        W61886  19.125  34.556  10.250  0.1228  0.3329  0.2031
18949W        W61887  21.373  34.185   6.303 -0.2945  0.2631 -0.3218
18950W        W61888  21.748  33.607  10.284 -0.1312  0.0177  0.2708
18951W        W61889  21.008  31.436   9.715 -0.2134 -0.3574 -0.3651
18952W        W61890  22.627  34.039  10.384  0.3052 -0.2040 -0.4070
18953W        W61891  20.907  34.386   6.486 -0.0030  0.0183 -0.0521
18954W        W61892  22.432  33.081   9.772 -0.3999  0.2652 -0.0539
18955W        W61893  21.673  34.147   8.934 -0.2294 -0.2032 -0.0886
18956W        W61894  21.653  32.624   7.507  0.0300  0.0825  0.0549
18957W        W61895  21.760  34.674   8.205  0.0598 -0.0102 -0.0004
18958W        W61896  22.890  34.482  10.050  0.2650 -0.2315  0.0522
18959W        W61897  19.095   0.333   8.851  0.0977  0.1048  0.1447
18960W        W61898  19.639  31.627   9.731  0.3595 -0.2565  0.1076
18961W        W61899  19.188  33.412   8.112  0.0457  0.0055  0.0202
18962W        W61900  20.499  33.151   8.882 -0.1194  0.3073 -0.0669
18963W        W61901  20.353   0.568   6.843 -0.3204  0.0780 -0.1386
18964W        W61902  20.615  34.200   6.892  0.1619  0.1155  0.1905
18965W        W61903  19.627  33.387   8.416  0.0895  0.2638  0.0299
18966W        W61904  18.747  34.415   7.154 -0.0121 -0.0687  0.0804
18967W        W61905  20.774  33.567   9.325 -0.2099  0.0928 -0.1064
18968W        W61906  20.110  33.311   7.644 -0.0826 -0.1360 -0.0659
18969W        W61907  18.534  34.047   7.832 -0.1118 -0.0873  0.1232
18970W        W61908  24.469  32.961   9.102 -0.0187  0.1877 -0.0333
18971W        W61909  19.414  34.501   8.224  0.2672 -0.4425 -0.0729
18972W        W61910  21.228  33.886   9.093 -0.0625 -0.0415 -0.2776
18973W        W61911  23.173  33.794   7.590  0.2702  0.2831 -0.0834
18974W        W61912  22.429  33.119   6.962 -0.0329  0.0506  0.1877
18975W        W61913  20.848  33.758   7.073 -0.0747 -0.0248  0.1033
18976W        W61914  20.821  32.774   6.891  0.0447 -0.3844 -0.2770
18977W        W61915  21.170  33.657  10.359 -0.1283 -0.2605 -0.0670
18978W        W61916  19.113  34.403   6.816  0.3224 -0.0333 -0.0089
18979W        W61917  21.617  32.504   9.569  0.0759  0.0492  0.0373
18980W        W61918  22.674   0.508   9.802  0.1876 -0.1530 -0.1952
18981W        W61919  20.848  32.254   9.101 -0.0157  0.0663 -0.0205
18982W        W61920  20.363   0.303   7.366 -0.1847 -0.1989  0.1284
18983W        W61921  22.610   0.877  10.278 -0.0916  0.0884  0.1504
18984W        W61922  19.813  33.843   6.863 -0.2818 -0.1811 -0.2184
18985W        W61923  20.041   0.386   9.863 -0.4626 -0.4322 -0.2292
18986W        W61924  21.332  33.092   6.967 -0.2029  0.0203  0.1266
18987W        W61925  21.311  31.075   9.890 -0.2195 -0.2424  0.1100
18988W        W61926  21.288  32.167   9.313 -0.0288 -0.2683 -0.0876
18989W        W61927  19.043  32.740   7.144  0.0483  0.1179  0.0333
18990W        W61928  19.391  33.794   8.395  0.0621 -0.0938 -0.0903
18991W        W61929  21.290  32.916   7.776  0.3664 -0.0443 -0.0193
18992W        W61930  19.259  33.538   8.878 -0.0210  0.0427  0.1103
18993W        W61931  20.739  33.045   7.698 -0.0857 -0.2176 -0.0015
18994W        W61932  22.609  33.702   8.797 -0.2733  0.0608 -0.0035
18995W        W61933  20.054  33.325   8.968  0.1962  0.3153  0.2616
18996W        W61934  21.499   0.986  12.500 -0.0756 -0.1968 -0.0077
18997W        W61935  19.844  34.258   8.713  0.0725 -0.0165 -0.0358
18998W        W61936  20.991  34.555   6.920 -0.0987 -0.1170 -0.2861
18999W        W61937  19.885  34.455   9.167 -0.2256 -0.0822 -0.1728
19000W        W61938  19.779  32.630   9.181  0.0515  0.0459 -0.0741
19001W        W61939  18.951   0.043   7.954 -0.0498  0.1123  0.0141
19002W        W61940  20.465  33.835   9.758 -0.2833 -0.1676 -0.1496
19003W        W61941  20.509   2.784   9.736  0.0675  0.0917 -0.0265
19004W        W61942  20.587  33.750   8.013 -0.2947 -0.1321 -0.4041
19005W        W61943  22.735  33.487  10.081 -0.3097 -0.0350  0.2661
19006W        W61944  21.896  32.973   8.507 -0.1676 -0.1438  0.1261
19007W        W61945  20.259  34.605   8.247 -0.0405  0.0847  0.3731
19008W        W61946  21.292   0.179   8.362 -0.0745  0.0482  0.3501
19009W        W61947  19.813  33.255   9.533  0.1494  0.2876  0.1729
19010W        W61948  20.977  33.361   8.111  0.2550  0.2549 -0.1178
19011W        W61949  20.965  32.801   8.244 -0.3814 -0.0660 -0.0577
19012W        W61950  19.430   0.622   8.635 -0.0651  0.1266 -0.1698
19013W        W61951  21.664  33.817   8.249 -0.0293 -0.0598  0.1119
19014W        W61952  21.341   0.418   9.231  0.2482  0.0182 -0.1250
19015W        W61953  21.348  33.477   8.486  0.1785  0.0037  0.5765
19016W        W61954  20.729  33.917   8.652  0.4191 -0.0853 -0.1929
19017W        W61955  22.345  33.812   8.307  0.0396 -0.2949 -0.0554
19018W        W61956  22.040  33.392   9.575  0.3215  0.2904  0.0284
19019W        W61957  21.953  34.516   8.892 -0.1996  0.4137  0.0880
19020W        W61958  21.489  33.278   7.457 -0.0709 -0.1996 -0.1164
19021W        W61959  18.318  33.541   8.723 -0.3175 -0.1760 -0.2388
19022W        W61960  20.496  33.492   6.151  0.1897 -0.0500 -0.0116
19023W        W61961  21.446  34.130   9.468  0.1403 -0.0069  0.1448
19024W        W61962  18.368  33.743   9.140  0.1180  0.0165 -0.1735
19025W        W61963  20.614   0.602   6.190  0.1564 -0.2436 -0.3008
19026W        W61964  19.651  33.642   7.934  0.4011 -0.2184 -0.1531
19027W        W61965  19.807  31.593   8.228  0.0806 -0.0299  0.0686
19028W        W61966  20.633  31.482   8.713 -0.2200 -0.2002  0.0182
19029W        W61967  20.042  33.518   9.859  0.2482 -0.0658 -0.0715
19030W        W61968  21.083  33.063   9.635 -0.3213 -0.3366  0.0453
19031W        W61969  21.082   0.166   8.900  0.0322 -0.1635  0.3423
19032W        W61970  18.686  33.477   9.543 -0.1990  0.1280 -0.0414
19033W        W61971  20.570  32.536   6.528  0.1203 -0.1862  0.0006
19034W        W61972  19.694  34.592   7.076  0.0630  0.0586  0.0160
19035W        W61973  20.161  33.362   6.689 -0.1167  0.1556 -0.0998
19036W        W61974  22.670  34.171   8.286 -0.0020 -0.0317  0.2583
19037W        W61975  23.351   0.334   8.199 -0.2127 -0.3181  0.1904
19038W        W61976  20.973  33.113  10.159  0.0234  0.0513 -0.0612
19039W        W61977  21.344  33.578   7.085  0.0155 -0.1837  0.1560
19040W        W61978  19.492   0.593   7.132  0.0572 -0.2269 -0.1880
19041W        W61979  20.609   0.174   9.557 -0.0798  0.1869 -0.0192
19042W        W61980  22.057  32.856   9.508  0.1935  0.1025 -0.0533
19043W        W61981  20.305  32.782   7.774 -0.0608  0.2338  0.2394
19044W        W61982  18.909   0.067   8.469  0.0785  0.4799  0.3119
19045W        W61983  21.873  34.334   9.678 -0.3860 -0.2020  0.6448
19046W        W61984  19.740  33.692   9.295 -0.0359 -0.1507  0.0220
19047W        W61985  20.009  34.442   9.741  0.0269 -0.1187 -0.5002
19048W        W61986  21.937  33.853   7.843 -0.1367 -0.0101  0.0574
19049W        W61987  20.141   0.233   9.392 -0.2255  0.0645 -0.1039
19050W        W61988  20.066   0.291   7.942 -0.3762 -0.1278 -0.2822
19051W        W61989  22.359  33.517   7.862 -0.1227 -0.0296 -0.1764
19052W        W61990  19.490  34.131   9.405 -0.0099  0.2558  0.1000
19053W        W61991  21.597  34.182   7.240  0.0276  0.3413 -0.0508
19054W        W61992  19.798  33.802  10.241  0.3994  0.1662  0.0615
19055W        W61993  19.948   1.486   9.914  0.0613 -0.0524 -0.1830
19056W        W61994  20.695  33.978  10.224 -0.2369 -0.0308 -0.0719
19057W        W61995  21.250   1.893   9.709  0.0430 -0.2616  0.0966
19058W        W61996  22.533  34.691   9.705  0.1815 -0.1472 -0.1153
19059W        W61997  19.217  32.676   9.819  0.0511 -0.0152  0.1674
19060W        W61998  20.481  33.125   8.086 -0.0934 -0.1046 -0.1797
19061W        W61999  18.844  34.002   8.924 -0.0117 -0.2487 -0.1308
19062W        W62000  23.343   0.452  10.068 -0.0124 -0.0898 -0.0604
19063W        W62001  20.095  33.082   8.487  0.0217  0.5125 -0.0077
19064W        W62002  20.185  33.535   8.154  0.2509 -0.3578  0.4185
19065W        W62003  21.846  31.673   8.633 -0.0174  0.3833 -0.1735
19066W        W62004  22.609  33.359   8.317 -0.3162  0.1176  0.0717
19067W        W62005  20.552   2.294   9.561 -0.0483  0.2107  0.0000
19068W        W62006  17.815  32.261   8.028  0.2024  0.2957 -0.1791
19069W        W62007  17.926   0.013   7.708  0.2187 -0.1813 -0.0155
19070W        W62008  19.455  34.122   7.822  0.3849 -0.0928 -0.0399
19071W        W62009  17.158  32.632   8.708 -0.2553 -0.0428  0.1071
19072W        W62010  19.562  33.762   9.762 -0.2010  0.0525 -0.2632
19073W        W62011  20.943  33.108   9.181 -0.2738  0.3115 -0.1850
19074W        W62012  19.040  31.475   7.950 -0.0122  0.3376 -0.0586
19075W        W62013  21.523   0.162  10.043  0.1646 -0.0971  0.0946
19076W        W62014  16.959  31.954   9.288  0.0311  0.0217  0.0453
19077W        W62015  22.754  34.151   9.043 -0.2803  0.0405 -0.1293
19078W        W62016  21.568   0.383   8.733 -0.2530  0.1792 -0.2917
19079W        W62017  20.684  32.677   8.996 -0.1606 -0.3317 -0.2644
19080W        W62018  21.426  33.225   8.916  0.0977 -0.0941 -0.3502
19081W        W62019  17.357  33.398   9.314  0.1922  0.2043 -0.0008
19082W        W62020  20.693  34.629   8.607 -0.3677  0.1911  0.1817
19083W        W62021  19.585  34.164   6.658 -0.1321 -0.1841  0.0139
19084W        W62022  22.050   0.167   8.598 -0.0286 -0.0829  0.1668
19085W        W62023  19.695  33.757   8.815 -0.0085  0.4863 -0.0808
19086W        W62024  20.131  33.784   8.566  0.0748 -0.0418 -0.0936
19087W        W62025  19.223   0.102   7.083 -0.2384 -0.0465 -0.1671
19088W        W62026  21.919  33.995   9.330 -0.0939 -0.3067  0.1606
19089W        W62027  19.799  34.024   8.284 -0.1393 -0.1150 -0.0625
19090W        W62028  21.372  32.812   8.620  0.0992  0.2245 -0.1517
19091W        W62029  22.152   1.755   3.969  0.0126 -0.4034 -0.4093
19092W        W62030  22.812   1.872  31.675 -0.1711  0.1668 -0.1752
19093W        W62031  25.270   2.299  31.134  0.1794  0.0416 -0.1409
19094W        W62032  24.929   3.010  31.889 -0.2176  0.2524 -0.0568
19095W        W62033  21.310  34.275   0.750  0.0969  0.3154  0.0294
19096W        W62034  24.469   3.465   0.657 -0.0645 -0.0589 -0.2644
19097W        W62035  23.085  34.586   2.151  0.3624  0.1310  0.1277
19098W        W62036  24.695   3.226   2.217 -0.1120 -0.1281  0.1109
19099W        W62037  25.098   3.122   1.797 -0.0044  0.2758  0.3652
19100W        W62038  24.441   1.841  31.826  0.4140 -0.0145  0.2837
19101W        W62039  23.899   0.374   3.961  0.0540 -0.3080 -0.2696
19102W        W62040  23.193   3.752   2.888 -0.0944  0.1102 -0.2511
19103W        W62041  22.950  34.229   0.915  0.1421  0.0008 -0.0927
19104W        W62042  22.531  34.657   1.097 -0.1891 -0.0312  0.1760
19105W        W62043  25.011   1.939   1.234 -0.0846 -0.0242 -0.2706
19106W        W62044  23.979   3.350   1.238 -0.1907 -0.1924 -0.2043
19107W        W62045  22.380   0.527   2.171  0.1777 -0.0194  0.0209
19108W        W62046  23.629   1.178   1.644  0.0934 -0.1696  0.1564
19109W        W62047  23.655   3.629   0.909 -0.1042  0.0194  0.2008
19110W        W62048  24.328   1.052   2.399  0.0579  0.2361  0.0421
19111W        W62049  24.010  34.594   3.999 -0.0739 -0.0662  0.0110
19112W        W62050  23.113   3.554   2.427 -0.0823 -0.1388  0.1935
19113W        W62051  23.053   2.218  31.321 -0.0980  0.1210 -0.0750
19114W        W62052  21.738   1.249   1.601 -0.1606 -0.0574 -0.0246
19115W        W62053  23.115   1.664   2.209 -0.2271 -0.1769  0.0151
19116W        W62054  24.588   1.803   1.425  0.1399 -0.1526  0.1895
19117W        W62055  24.981   2.454   1.164 -0.1966  0.2758 -0.1215
19118W        W62056  22.693   3.299   1.409 -0.1030 -0.2850 -0.1926
19119W        W62057  25.708   4.044   1.221 -0.3013  0.2874  0.1645
19120W        W62058  25.271   0.633   5.055 -0.2156  0.0000 -0.0148
19121W        W62059  22.050   2.266   2.744 -0.0050 -0.2624  0.1113
19122W        W62060  21.942   4.659   0.966 -0.0288  0.3668 -0.0493
19123W        W62061  22.919   3.457   0.972  0.0912 -0.2846 -0.0747
19124W        W62062  24.608   2.276   0.951 -0.1736  0.0166 -0.0171
19125W        W62063  24.282   3.096   1.547 -0.1905 -0.1269  0.1511
19126W        W62064  23.033   2.899   4.131 -0.0256  0.1688  0.2513
19127W        W62065  22.347   4.149  31.604  0.1581  0.0250  0.1831
19128W        W62066  24.455   3.974   2.928 -0.0044 -0.0703 -0.0584
19129W        W62067  24.234   4.405   2.678 -0.0736  0.0914 -0.0460
19130W        W62068  24.994   0.950   3.370  0.1945  0.0161 -0.4217
19131W        W62069  24.247   0.566   0.645 -0.0988  0.0066  0.0953
19132W        W62070  22.869   2.730   1.669  0.1665 -0.0345 -0.5755
19133W        W62071  23.410   2.006   1.827  0.0392 -0.1380  0.0003
19134W        W62072  23.541   2.507   4.416 -0.1446 -0.2249  0.2416
19135W        W62073  22.366   3.764   1.139  0.2077 -0.2605 -0.1269
19136W        W62074  25.850   0.075   5.048  0.1963  0.0797 -0.0970
19137W        W62075  23.308   3.596   1.311 -0.1795  0.0131 -0.0772
19138W        W62076  23.502   1.514   0.292 -0.2298 -0.0040  0.0436
19139W        W62077  23.956   1.789   0.145 -0.3160 -0.0967  0.3613
19140W        W62078  23.508   0.953   0.506 -0.0632  0.1916  0.0029
19141W        W62079  23.793   0.703   1.530  0.1033 -0.0294 -0.3000
19142W        W62080  23.931   4.761   1.930  0.1030  0.2223 -0.1807
19143W        W62081  22.239   0.196   2.596  0.0365  0.1175  0.0131
19144W        W62082  22.931   3.300   2.932  0.1748 -0.0356  0.0386
19145W        W62083  24.219   2.085   1.281 -0.0922  0.1227 -0.2760
19146W        W62084  24.680   1.714   4.240  0.0894 -0.0318 -0.1343
19147W        W62085  23.664   3.123   3.089  0.1919 -0.0289  0.1674
19148W        W62086  22.029   1.776   2.466  0.2085 -0.1844  0.1119
19149W        W62087  24.731   3.179   0.321 -0.2431 -0.3174 -0.0304
19150W        W62088  25.601   4.595   2.113 -0.0976 -0.0410  0.2845
19151W        W62089  23.904   3.842  31.901 -0.0426 -0.2817 -0.0728
19152W        W62090  22.425   2.827   1.168  0.3454 -0.0448 -0.1730
19153W        W62091  21.784   2.087   4.192 -0.1653  0.1915 -0.4021
19154W        W62092  21.621   0.894   2.316 -0.4511 -0.0205  0.0305
19155W        W62093  21.643   1.218  31.253  0.1724  0.1698  0.1774
19156W        W62094  24.905   2.881   3.431 -0.0523 -0.1654  0.0875
19157W        W62095  21.906   2.564   3.173 -0.0550 -0.2340  0.0485
19158W        W62096  25.062   1.336   2.052  0.0444 -0.0096 -0.2967
19159W        W62097  24.015   1.832   2.718 -0.2532 -0.0150 -0.1134
19160W        W62098  25.518   1.656   2.508 -0.3311  0.1205  0.0847
19161W        W62099  24.129   1.627  31.479 -0.2463 -0.0726  0.2093
19162W        W62100  23.748   2.336   1.575 -0.1649  0.0650 -0.0979
19163W        W62101  24.871   0.223   1.995 -0.1169  0.0012  0.0014
19164W        W62102  22.852   3.240   0.556 -0.1663  0.1658  0.2453
19165W        W62103  24.176   2.952   2.008 -0.2544  0.2879 -0.2652
19166W        W62104  25.691   1.186   2.082 -0.2461  0.2412 -0.1198
19167W        W62105  24.743   1.521  31.503  0.0171 -0.1538  0.3753
19168W        W62106  23.208   3.049   2.141 -0.0333  0.0314  0.1809
19169W        W62107  24.153   0.447   3.074 -0.0787 -0.1961  0.1808
19170W        W62108  24.129   3.074   3.445  0.0487  0.1241 -0.0779
19171W        W62109  21.700   4.675   1.747 -0.0908 -0.1915  0.0008
19172W        W62110  22.490   2.417   1.882  0.0771 -0.0702 -0.0581
19173W        W62111  21.199   1.803   2.225 -0.0317 -0.1255 -0.2349
19174W        W62112  21.722  33.688   3.378 -0.0245  0.4682 -0.1559
19175W        W62113  23.575   2.576   3.083 -0.1895  0.0595 -0.1697
19176W        W62114  26.113   1.936   0.516 -0.3611  0.0589  0.0564
19177W        W62115  24.148   2.190   3.570 -0.2167 -0.1153  0.1887
19178W        W62116  24.660   1.491   2.246  0.1157  0.0257 -0.0287
19179W        W62117  21.624   4.456   1.348  0.0036  0.1477  0.2893
19180W        W62118  25.209   4.045   0.969  0.1424  0.2762  0.0806
19181W        W62119  24.863   0.699   1.873 -0.1171 -0.3056  0.2159
19182W        W62120  23.834   4.177   1.091 -0.1136 -0.2279 -0.1044
19183W        W62121  23.148   2.040   2.551 -0.0899 -0.3124 -0.1664
19184W        W62122  21.971   2.327   1.817 -0.0304  0.3746  0.0522
19185W        W62123  22.525   2.334   4.544 -0.1400  0.0236  0.0896
19186W        W62124  22.053   0.829   2.551 -0.2407  0.1961 -0.0030
19187W        W62125  25.324   1.988   3.900 -0.1946  0.1305  0.0670
19188W        W62126  22.091   1.532   0.242  0.0027  0.2324  0.1154
19189W        W62127  24.014   2.040   1.849 -0.0528  0.2936 -0.0031
19190W        W62128  23.079   2.306   1.607 -0.2726 -0.1603 -0.3547
19191W        W62129  23.314   3.905   0.144  0.1386 -0.0290  0.0778
19192W        W62130  26.538  34.430   3.961  0.1758  0.2332  0.0635
19193W        W62131  23.110   6.548  31.185 -0.4471  0.1545 -0.3244
19194W        W62132  24.914   2.362   2.070  0.0699 -0.0908  0.1539
19195W        W62133  24.341   4.809   1.410 -0.1568  0.0421  0.2453
19196W        W62134  21.432   1.335   2.243  0.1090 -0.0463 -0.2342
19197W        W62135  21.948   1.107   0.081  0.1260 -0.0346 -0.1311
19198W        W62136  21.888   3.205   2.352  0.3278  0.0270  0.1549
19199W        W62137  23.077   2.687   3.702  0.2020 -0.2300  0.0677
19200W        W62138  23.462   0.897   1.231  0.0845  0.1112  0.2858
19201W        W62139  25.625   3.194   2.008  0.2534  0.0557  0.0225
19202W        W62140  24.267   2.585   1.567  0.2437 -0.2561  0.1564
19203W        W62141  22.724   2.759   2.159  0.0585  0.1184  0.3208
19204W        W62142  23.017  34.564   3.948 -0.0810 -0.2663  0.0137
19205W        W62143  26.002   1.562   2.437 -0.2133 -0.2728  0.1722
19206W        W62144  25.083   1.015   0.883 -0.0666  0.0341  0.1379
19207W        W62145  22.130   2.638   0.020 -0.2627 -0.2382 -0.3098
19208W        W62146  22.850   5.605   1.677  0.0320 -0.2986 -0.1209
19209W        W62147  22.685   4.624   0.729 -0.0729  0.1957  0.0939
19210W        W62148  21.284   1.459   1.760 -0.1071  0.2734 -0.2633
19211W        W62149  23.184   3.982   1.019 -0.1460  0.1920 -0.0098
19212W        W62150  24.063   2.179   2.400  0.0978  0.2836 -0.0412
19213W        W62151  21.884   1.319   3.189  0.1226  0.0912 -0.0619
19214W        W62152  23.005   0.616   3.423 -0.0219 -0.2353  0.1323
19215W        W62153  21.793   2.106   1.391 -0.2599  0.0504 -0.0043
19216W        W62154  23.626   2.130   3.436  0.0978 -0.1563  0.3482
19217W        W62155  24.523   0.180   0.714 -0.0219 -0.0519 -0.0643
19218W        W62156  24.797   1.399   0.644  0.1351  0.1955  0.1187
19219W        W62157  23.205   2.370   3.329  0.0076 -0.2298 -0.0090
19220W        W62158  25.122   2.403   0.095  0.0767  0.0067  0.2013
19221W        W62159  22.841   2.111   0.193 -0.5122  0.0819  0.3933
19222W        W62160  23.940   1.195   0.252 -0.0707 -0.3233 -0.3416
19223W        W62161  22.167   2.355   3.613 -0.1427  0.1504 -0.3312
19224W        W62162  25.140   1.486  31.809 -0.1851  0.0774  0.2515
19225W        W62163  24.755   2.869   1.342  0.1150  0.2553  0.1285
19226W        W62164  24.104   1.240  30.523  0.0559  0.2865  0.0010
19227W        W62165  24.704   3.858   0.486 -0.0253  0.0600 -0.0736
19228W        W62166  22.594   3.764   3.720 -0.2712 -0.2156  0.0514
19229W        W62167  23.663   1.321   3.778 -0.0711 -0.1742 -0.1110
19230W        W62168  23.712   2.986   2.117 -0.3089  0.0486 -0.0289
19231W        W62169  24.140   0.612   1.907  0.4400 -0.1255  0.1981
19232W        W62170  23.400   2.766   1.795  0.0706  0.0126 -0.0927
19233W        W62171  24.919   0.919   1.374  0.0226  0.0876 -0.3363
19234W        W62172  22.635   4.539  31.566  0.2767 -0.0554  0.1749
19235W        W62173  25.020   0.041   3.842  0.1428  0.0608  0.1062
19236W        W62174  23.798   0.236   2.087  0.4629  0.0554 -0.2212
19237W        W62175  23.028   0.451   2.884  0.1363 -0.1818  0.0194
19238W        W62176  24.863   1.860   4.677 -0.2212 -0.1035 -0.1525
19239W        W62177  24.454   1.262   1.306  0.0283  0.2793  0.1662
19240W        W62178  23.681   0.820   3.855  0.0140  0.1359  0.1914
19241W        W62179  22.567   2.523   0.263  0.2532 -0.0835  0.1405
19242W        W62180  23.257   1.048   3.615  0.1427  0.1736  0.0080
19243W        W62181  22.636   2.092   3.709  0.1453  0.1735  0.1562
19244W        W62182  21.843   4.261   3.727 -0.1362 -0.3166  0.2185
19245W        W62183  23.283   2.030   4.192 -0.0502  0.2486 -0.5599
19246W        W62184  24.165   1.278   1.714 -0.0805  0.1458 -0.0854
19247W        W62185  23.104   0.251   4.827  0.0406  0.0790  0.1684
19248W        W62186  23.830   0.622   0.948 -0.0131  0.0813  0.0292
19249W        W62187  22.488   4.632   1.794  0.1207  0.1427 -0.0775
19250W        W62188  22.617   3.784   0.710  0.0253  0.3033 -0.0030
19251W        W62189  21.889   0.384   2.304 -0.4043 -0.1499 -0.1366
19252W        W62190  23.189   2.876   3.092  0.1250 -0.2539 -0.1263
19253W        W62191  21.649   3.573  31.741  0.1296 -0.0262 -0.2135
19254W        W62192  25.300   1.916   3.374 -0.3313  0.1325  0.1173
19255W        W62193  23.113   5.434   0.525  0.3485  0.2954  0.0426
19256W        W62194  24.351   0.825   1.513 -0.1124 -0.2921  0.0219
19257W        W62195  22.908   3.946   1.952  0.2858  0.0759  0.0384
19258W        W62196  22.709   1.165   0.705 -0.0830 -0.0372  0.1649
19259W        W62197  23.779   1.829   0.944  0.1610 -0.0097  0.0963
19260W        W62198  24.876   1.266   2.988  0.0715  0.0151  0.0015
19261W        W62199  25.106   1.933   0.536 -0.5413 -0.2099 -0.2546
19262W        W62200  22.394   0.017   2.056 -0.2452  0.1933 -0.0219
19263W        W62201  22.132   1.683   1.242  0.0031  0.2534 -0.2961
19264W        W62202  21.041   2.720   1.678 -0.1522  0.2138  0.0754
19265W        W62203  24.911   1.384   1.128 -0.3215  0.2811 -0.5004
19266W        W62204  23.300  34.664   0.808 -0.1567 -0.1851  0.3272
19267W        W62205  24.598   1.795   3.743 -0.2055  0.3204 -0.1673
19268W        W62206  23.514   1.761   3.723 -0.0436 -0.2696  0.3387
19269W        W62207  23.482   2.717   0.078 -0.0343 -0.0034 -0.1261
19270W        W62208  25.708   1.359   4.579  0.0645 -0.1633 -0.0234
19271W        W62209  22.741   0.753   0.397  0.1638  0.1167 -0.0437
19272W        W62210  22.065   3.781   0.592 -0.0770 -0.1879 -0.1579
19273W        W62211  23.627   1.960   2.307 -0.1229  0.4002 -0.1476
19274W        W62212  22.482   0.972  31.532  0.1826 -0.0040 -0.0948
19275W        W62213  22.911   4.819   2.035 -0.2563  0.2185  0.0519
19276W        W62214  22.223  34.258   5.051 -0.2851  0.1347  0.1524
19277W        W62215  25.788   2.040   2.659  0.0496 -0.5240  0.1402
19278W        W62216  22.836   0.627   1.428 -0.0135  0.1303  0.2613
19279W        W62217  22.279   1.284   1.640 -0.0938  0.0281 -0.2269
19280W        W62218  22.247   1.933   1.739  0.1439  0.1462 -0.0159
19281W        W62219  25.218   3.214   2.365  0.0108  0.2800 -0.0006
19282W        W62220  24.127   1.353   3.202  0.3020  0.0395  0.4860
19283W        W62221  22.308   3.253   4.529  0.1444  0.2907  0.4249
19284W        W62222  23.595   0.260   1.226 -0.0167  0.0442 -0.3720
19285W        W62223  25.174   4.741   0.938  0.3945 -0.2008  0.1947
19286W        W62224  24.479   1.347   3.586 -0.0103 -0.1754  0.3641
19287W        W62225  23.395   2.776   0.601  0.0158  0.1449  0.2825
19288W        W62226  21.665   2.529   1.115 -0.3340  0.1081 -0.2572
19289W        W62227  22.518   1.035   2.158  0.2096  0.4141  0.1385
19290W        W62228  23.575   0.712   2.027 -0.2783 -0.0542  0.1903
19291W        W62229  22.316   3.166   2.104  0.0246  0.1770  0.2830
19292W        W62230  22.099   4.937   1.425  0.1889  0.1818  0.2550
19293W        W62231  21.730   2.467   2.264 -0.1498  0.0074  0.1606
19294W        W62232  23.870  34.505   1.120  0.1053  0.0728  0.1614
19295W        W62233  24.650   2.340  31.865 -0.1166 -0.0464  0.0316
19296W        W62234  22.775   0.325   2.463 -0.0345  0.0886  0.2608
19297W        W62235  25.036   0.971   3.909 -0.0927 -0.1521 -0.6010
19298W        W62236  24.186   1.094   0.645  0.1498 -0.1304  0.0153
19299W        W62237  24.485   0.249   3.818  0.0018 -0.3931 -0.1172
19300W        W62238  23.571   1.199   2.905  0.2181  0.1356 -0.0273
19301W        W62239  24.668   2.811   1.887 -0.0146 -0.0267 -0.0163
19302W        W62240  23.520   2.434   2.153  0.0098 -0.4227  0.1746
19303W        W62241  23.752   4.963   5.227  0.0164 -0.0049 -0.2613
19304W        W62242  22.679   1.601   3.361 -0.1240  0.0180  0.0760
19305W        W62243  23.977   1.052   1.260 -0.0131 -0.4346 -0.1043
19306W        W62244  23.240   1.345   0.765 -0.0111  0.2891  0.0328
19307W        W62245  24.027   2.321   2.964 -0.2694  0.2945  0.1748
19308W        W62246  25.289   2.996   1.150  0.3222 -0.1779 -0.1668
19309W        W62247  22.483   3.284   0.922 -0.2074  0.0694  0.0339
19310W        W62248  24.878   1.712   2.752  0.1274  0.3273 -0.1552
19311W        W62249  22.403   3.144   2.723 -0.0184 -0.1162 -0.1957
19312W        W62250  24.906   1.903  31.980  0.2283  0.0034  0.1963
19313W        W62251  23.852   2.853   1.499 -0.0990  0.1772  0.2511
19314W        W62252  22.260   2.167   2.251 -0.1446  0.1528  0.1776
19315W        W62253  22.088   1.744   3.395  0.1706 -0.2427  0.1898
19316W        W62254  24.405   2.715   2.411  0.0206  0.0456 -0.0939
19317W        W62255  23.012   1.277   1.228  0.0264  0.1602  0.0522
19318W        W62256  24.874   1.652   3.329 -0.1093 -0.0290  0.0166
19319W        W62257  24.656   0.528   3.266  0.0246  0.2910  0.0500
19320W        W62258  24.770   2.189   3.202  0.2047  0.0938  0.0019
19321W        W62259  21.210   1.403   4.158 -0.0335 -0.1037  0.1380
19322W        W62260  25.955   1.065   3.284  0.2502  0.1392 -0.0569
19323W        W62261  25.470   2.892   0.094  0.0762 -0.1440  0.2288
19324W        W62262  24.110   1.164   3.855 -0.2757  0.0245 -0.1744
19325W        W62263  25.323   1.558   0.922  0.1172  0.2856 -0.2685
19326W        W62264  24.182   0.153   0.320 -0.0669 -0.1625 -0.0926
19327W        W62265  21.990   0.458   1.779 -0.0584 -0.4807  0.0063
19328W        W62266  24.407   1.836   3.279 -0.0078  0.2133  0.2036
19329W        W62267  22.892   1.951  30.925  0.1439 -0.2383  0.1110
19330W        W62268  24.893   0.926   4.377  0.1897 -0.0231 -0.0791
19331W        W62269  22.018   4.143   1.244  0.0054  0.1090 -0.1810
19332W        W62270  24.708   2.289   1.543 -0.1085 -0.1761  0.0365
19333W        W62271  23.101   1.592  31.258 -0.0523 -0.1512  0.2090
19334W        W62272  22.225  34.231   1.243 -0.2693 -0.1369  0.0616
19335W        W62273  23.365   3.702   1.862  0.5346 -0.0195 -0.3202
19336W        W62274  22.532   2.369  31.747 -0.0308 -0.1774 -0.0098
19337W        W62275  23.853   2.912   0.989  0.1713  0.0313 -0.0572
19338W        W62276  24.949   3.049   2.728  0.0590  0.3805 -0.2165
19339W        W62277  25.329   1.506   3.008 -0.0120 -0.1597 -0.0630
19340W        W62278  23.118   1.200   0.298  0.0063  0.0263  0.0044
19341W        W62279  24.875   2.188   4.064  0.1450  0.0153 -0.3593
19342W        W62280  21.645   3.533   1.587 -0.1532 -0.2061 -0.0518
19343W        W62281  23.965   1.339   2.574 -0.2319 -0.0803 -0.0782
19344W        W62282  23.302   3.127   2.666  0.1473 -0.0325 -0.0393
19345W        W62283  22.554   2.307   2.712 -0.0138  0.4480  0.1883
19346W        W62284  22.566   4.282   2.144 -0.0569  0.1709 -0.1221
19347W        W62285  24.488   1.001   3.132 -0.2502 -0.2774 -0.0022
19348W        W62286  24.517   0.662   2.760 -0.0460 -0.1648 -0.0185
19349W        W62287  23.099   1.899   3.442 -0.1279 -0.2404 -0.2002
19350W        W62288  24.081   1.709   2.198  0.1078 -0.1727  0.1094
19351W        W62289  24.588   3.043   3.064  0.2392  0.1719  0.0810
19352W        W62290  22.001   2.189   0.888 -0.2262  0.0879  0.1191
19353W        W62291  23.635   4.061   2.792 -0.1196 -0.2749  0.1100
19354W        W62292  24.639   2.021   0.458 -0.0176 -0.3270  0.1045
19355W        W62293  22.748   1.948   1.906 -0.0784 -0.0541  0.0952
19356W        W62294  22.098   0.793   3.483  0.2283  0.2868  0.0471
19357W        W62295  23.673   2.020   4.522 -0.1014 -0.1727  0.0372
19358W        W62296  24.122   1.549   1.117  0.2603 -0.3804  0.1983
19359W        W62297  24.044   0.198  31.793  0.1301  0.0367 -0.0955
19360W        W62298  23.769   2.278   1.098  0.0842 -0.1652  0.2726
19361W        W62299  21.589   3.854   3.435  0.3626 -0.1084 -0.1601
19362W        W62300  22.528   3.630   1.810  0.0139 -0.0962  0.1055
19363W        W62301  23.200   4.505   0.800 -0.0414  0.0169 -0.2295
19364W        W62302  25.165   2.599   1.645  0.2788 -0.4213  0.2559
19365W        W62303  26.579   1.881   0.322 -0.0077 -0.0806  0.1631
19366W        W62304  24.947   3.602   2.430 -0.3363 -0.1901  0.1396
19367W        W62305  22.561   1.089   1.235 -0.1143  0.1137 -0.2486
19368W        W62306  22.411   2.894   1.651 -0.2123 -0.0962 -0.0392
19369W        W62307  21.850   3.654   1.157  0.3228 -0.2401 -0.0226
19370W        W62308  24.339   3.096   1.024  0.1445 -0.2628  0.0548
19371W        W62309  22.453   2.923   0.614 -0.1578  0.1612  0.0435
19372W        W62310  24.607   2.418   3.635 -0.1212 -0.2664 -0.1534
19373W        W62311  24.385   1.566   0.350 -0.3070  0.3578 -0.4516
19374W        W62312  25.401   1.128   1.262  0.0681 -0.4482  0.4667
19375W        W62313  24.541   0.307  31.234  0.1202  0.0560 -0.0921
19376W        W62314  23.071   2.556   4.508 -0.0216 -0.3412  0.1878
19377W        W62315  23.791   0.853   2.480  0.2282  0.2879 -0.0719
19378W        W62316  23.267   1.893   0.908 -0.0555  0.3323  0.0485
19379W        W62317  22.882   2.363   4.110  0.0324 -0.1737 -0.2093
19380W        W62318  24.274   0.615   4.062  0.0686  0.3746 -0.2024
19381W        W62319  21.797   4.090   4.378  0.1606 -0.1959 -0.0327
19382W        W62320  24.291   4.299   1.192 -0.2616 -0.1733  0.2955
19383W        W62321  22.180   3.301   1.341  0.1062  0.0676  0.0483
19384W        W62322  24.123   2.837   2.915  0.2336  0.1901  0.1814
19385W        W62323  24.837  34.678   4.333  0.0277 -0.2758  0.0807
19386W        W62324  23.557   4.731  31.940 -0.2933 -0.2253  0.1397
19387W        W62325  23.172   0.962   1.695 -0.1843  0.2992  0.0733
19388W        W62326  22.644   4.475   2.614 -0.0286  0.0173  0.0625
19389W        W62327  22.361   1.621   2.129  0.1321 -0.5519  0.1329
19390W        W62328  24.566   4.000   1.897 -0.0036 -0.0866  0.2090
19391W        W62329  22.471   0.318   1.470 -0.3801 -0.1057  0.0399
19392W        W62330  25.877   1.440   0.545  0.2818 -0.1280  0.0037
19393W        W62331  23.487   1.474   2.494 -0.3678  0.2804  0.1910
19394W        W62332  24.030  34.379   2.033  0.0299 -0.0707 -0.2947
19395W        W62333  22.043   2.760   0.876  0.0016 -0.1133 -0.2842
19396W        W62334  24.561   1.134   1.940  0.0176 -0.0261 -0.1134
19397W        W62335  23.938   3.820   1.913  0.0949  0.0615 -0.2364
19398W        W62336  22.769   2.008   3.099  0.5907  0.1785 -0.1070
19399W        W62337  23.263   3.213   1.694 -0.1094 -0.1080 -0.1136
19400W        W62338  25.324   1.876   4.379 -0.0560  0.1384  0.0172
19401W        W62339  22.971   1.555  30.615  0.2714  0.1657  0.2189
19402W        W62340  23.540   2.892   4.087  0.1636  0.1292 -0.0963
19403W        W62341  21.508   1.078  31.714 -0.5619 -0.0109  0.0305
19404W        W62342  23.357   1.914   0.032 -0.1109  0.0026 -0.1479
19405W        W62343  21.810   1.286   2.664  0.0035  0.0408  0.1835
19406W        W62344  23.905   1.128   2.066  0.1299  0.0006  0.0583
19407W        W62345  25.090   2.353   3.541  0.1243 -0.1448 -0.0466
19408W        W62346  23.521  34.597  31.795 -0.0070 -0.0013 -0.1118
19409W        W62347  23.981   1.967  31.162 -0.0217 -0.0854  0.3528
19410W        W62348  24.430   2.357   1.993  0.0036 -0.1889 -0.0645
19411W        W62349  23.546   5.046   0.856 -0.2254 -0.1815 -0.0339
19412W        W62350  24.641   1.780   0.928 -0.0896 -0.1208 -0.1487
19413W        W62351  24.705   3.859   0.983  0.3336  0.1966 -0.0369
19414W        W62352  23.527   2.161   2.873  0.3521  0.1157 -0.0741
19415W        W62353  24.368   3.442   1.930  0.3234  0.0782 -0.0766
19416W        W62354  24.709   3.314   1.585  0.3198 -0.0052 -0.2255
19417W        W62355  22.644   0.891   2.625  0.1051 -0.1371  0.2072
19418W        W62356  22.990   1.269   2.562 -0.1995 -0.1840  0.1593
19419W        W62357  22.868   4.350   1.181 -0.0025  0.2365  0.0190
19420W        W62358  26.071   0.275   1.677 -0.0704 -0.0786 -0.2041
19421W        W62359  25.465   0.256   3.752  0.1529  0.0957  0.2509
19422W        W62360  24.216   2.591   1.046  0.0960  0.0378 -0.2231
19423W        W62361  24.080   0.197   3.485 -0.3188  0.2645  0.0857
19424W        W62362  24.160   3.268   2.388  0.2617 -0.2726  0.0031
19425W        W62363  23.468   3.031   3.585 -0.1826  0.2349  0.2743
19426W        W62364  22.394   4.213   0.923 -0.0533 -0.0514  0.1903
19427W        W62365  24.932   3.620   1.926  0.3194  0.0486 -0.2258
19428W        W62366  23.927   2.545   1.987  0.0436 -0.0216 -0.0290
19429W        W62367  22.739   5.036   1.604  0.0851 -0.0669  0.1305
19430W        W62368  24.385   3.776   1.449  0.0056  0.2506  0.1107
19431W        W62369  23.731   0.496   0.386  0.1421 -0.1400  0.2246
19432W        W62370  24.744   3.380   1.105  0.0259  0.1912  0.2190
19433W        W62371  22.240   0.253  31.763  0.3426 -0.3325 -0.0700
19434W        W62372  25.633   1.487   1.630  0.1087 -0.4314  0.0484
19435W        W62373  24.611  34.633   1.124 -0.1028  0.3360  0.0003
19436W        W62374  23.158   2.647   2.439 -0.2462  0.2385 -0.2103
19437W        W62375  22.008   2.888   0.427  0.0791  0.0084  0.1728
19438W        W62376  23.616   3.094   0.278  0.0273  0.2355  0.1204
19439W        W62377  21.505   3.073   0.734  0.0934  0.3559  0.1314
19440W        W62378  23.175   1.575   2.890  0.1433 -0.1435 -0.1628
19441W        W62379  22.685   1.369   2.937  0.0016  0.0839  0.3681
19442W        W62380  21.846   1.800   2.983  0.2850 -0.0865  0.0399
19443W        W62381  23.174   1.498   1.649 -0.2751  0.1579  0.2071
19444W        W62382  25.076   2.514   0.628  0.1446  0.3244 -0.0746
19445W        W62383  21.083  33.773   4.429  0.0502 -0.0146  0.0852
19446W        W62384  21.599  34.670   0.588  0.0987 -0.1983 -0.1374
19447W        W62385  24.569   3.379  31.648 -0.3004  0.1713 -0.1840
19448W        W62386  23.434   4.168   1.470 -0.1771 -0.2159  0.1462
19449W        W62387  23.261   0.434   1.622 -0.0927  0.1068  0.0203
19450W        W62388  24.615   2.579   2.816  0.1395  0.4540  0.0358
19451W        W62389  23.579   4.059   0.615 -0.0640 -0.3096  0.0817
19452W        W62390  22.925   0.877   3.949 -0.2594  0.1213 -0.0427
19453W        W62391  22.815   1.124   3.559 -0.3105  0.2831  0.3797
19454W        W62392  22.356   1.871   0.615  0.2292 -0.0943 -0.1633
19455W        W62393  24.437   1.387   2.757  0.0906  0.3669 -0.6168
19456W        W62394  22.865   3.797   1.385 -0.0226 -0.0726 -0.0264
19457W        W62395  24.312   3.026   0.511 -0.1545 -0.0393 -0.2872
19458W        W62396  24.496   2.071   2.819  0.0833 -0.4365  0.2025
19459W        W62397  24.792   4.429   1.940 -0.2300  0.0600  0.2787
19460W        W62398  22.354   1.210   3.409 -0.1120 -0.1164  0.3172
19461W        W62399  24.130   2.006   0.637 -0.0859 -0.1877  0.1360
19462W        W62400  23.730   3.342   1.669  0.3342  0.1183 -0.2821
19463W        W62401  25.288   3.247  30.661 -0.2113 -0.2552  0.3221
19464W        W62402  24.188   0.725   3.505  0.0728 -0.4422 -0.1199
19465W        W62403  23.817   2.406   0.602  0.1459  0.3940 -0.0317
19466W        W62404  21.976   0.384   1.216  0.0456  0.0264  0.3386
19467W        W62405  23.495   3.872   4.126  0.1974 -0.3009  0.1097
19468W        W62406  26.367   2.964  31.916 -0.1348  0.2219  0.1581
19469W        W62407  22.656  34.285   1.945  0.2134 -0.2256  0.0131
19470W        W62408  23.529   1.398   1.144  0.0810  0.0836 -0.0458
19471W        W62409  24.661   2.664   0.260 -0.2247 -0.5614  0.0565
19472W        W62410  22.372   2.647   3.007  0.1059  0.2264 -0.6522
19473W        W62411  23.296   2.285   0.463  0.0996 -0.0628 -0.0380
19474W        W62412  23.792   1.749   3.253 -0.2349 -0.0999  0.3385
19475W        W62413  23.701   2.554   2.585  0.1382 -0.0414 -0.0189
19476W        W62414  24.278   3.388   4.095 -0.0824  0.2398  0.0850
19477W        W62415  23.661   1.962   0.476  0.3344 -0.2276  0.0876
19478W        W62416  26.404   3.069  30.650  0.2223  0.1601  0.0186
19479W        W62417  24.933   2.651   3.905 -0.4477 -0.1105  0.2241
19480W        W62418  24.742   4.089   4.285 -0.1324 -0.3278  0.2272
19481W        W62419  23.039   4.772  31.922  0.1712 -0.2860 -0.1673
19482W        W62420  24.868   1.830   1.900  0.1829 -0.2668  0.1814
19483W        W62421  23.010   0.876   0.971 -0.2129 -0.0066  0.2139
19484W        W62422  23.454   2.649   1.283  0.1871  0.0952  0.1175
19485W        W62423  23.921   1.520   0.596  0.2318 -0.1997  0.2237
19486W        W62424  26.023   1.394   3.808 -0.0630 -0.0702  0.2145
19487W        W62425  22.723   1.632   0.912  0.0441  0.1902 -0.0072
19488W        W62426  23.423  34.373   0.350 -0.0654  0.0213 -0.1639
19489W        W62427  21.930   2.751   1.556  0.0861 -0.0041  0.0213
19490W        W62428  23.450   3.129   1.247  0.2580 -0.2929 -0.0363
19491W        W62429  23.494   3.239   7.055  0.1936 -0.2054 -0.0733
19492W        W62430  23.353   2.307   4.852  0.0971  0.1591 -0.2347
19493W        W62431  24.915   1.386   4.538 -0.2584 -0.2039  0.1634
19494W        W62432  24.663   1.576   5.714 -0.3501  0.1888  0.1572
19495W        W62433  21.546   2.459   5.353 -0.1443 -0.3435  0.0995
19496W        W62434  23.372   3.813   6.021 -0.0598  0.1542  0.0379
19497W        W62435  22.598  34.327   5.879 -0.1216 -0.0261 -0.2358
19498W        W62436  26.454   3.004   6.108  0.1648  0.3986  0.1955
19499W        W62437  25.302   3.304   5.693  0.1731 -0.0282  0.0419
19500W        W62438  25.010   2.810   4.506 -0.1217  0.0629 -0.0034
19501W        W62439  23.055   1.934   6.325 -0.1195 -0.1552 -0.0149
19502W        W62440  23.449   2.883   6.135  0.1931  0.0144  0.2376
19503W        W62441  22.885  33.613   4.251 -0.0679  0.0222  0.1257
19504W        W62442  20.625  34.417   6.027  0.1226 -0.1889 -0.0266
19505W        W62443  25.518   2.950   6.544  0.1576 -0.0163  0.1808
19506W        W62444  21.900   2.536   4.430  0.1956 -0.3503 -0.1234
19507W        W62445  23.637   2.538   6.445 -0.0744 -0.3151  0.1706
19508W        W62446  22.441  34.670   4.401  0.0890  0.0856  0.2761
19509W        W62447  24.522   3.313   4.530 -0.1467 -0.0584  0.3353
19510W        W62448  22.404   0.723   6.417  0.1985 -0.2973  0.0447
19511W        W62449  23.660  33.614   7.201  0.0115 -0.0679  0.3114
19512W        W62450  23.375   4.029   5.105  0.1845 -0.0688 -0.0285
19513W        W62451  21.716   3.053   4.518 -0.0342  0.0938 -0.2929
19514W        W62452  21.879   2.490   6.605 -0.1767 -0.2016 -0.1513
19515W        W62453  24.558   2.779   6.168 -0.0632 -0.2353 -0.0972
19516W        W62454  24.020   1.413   5.646  0.1411 -0.0284 -0.2481
19517W        W62455  25.230   1.786   6.406 -0.1594  0.0602  0.0690
19518W        W62456  24.344   3.543   5.516 -0.1452 -0.0215 -0.0282
19519W        W62457  22.728   4.133   6.632  0.2001 -0.0267 -0.1163
19520W        W62458  25.279   1.350   7.196 -0.0616  0.0645  0.2118
19521W        W62459  23.203   3.512   4.692  0.2227 -0.0823  0.1480
19522W        W62460  22.266   4.787   4.977 -0.1666 -0.0629  0.0866
19523W        W62461  23.341   1.864   5.458 -0.2132  0.3983 -0.1671
19524W        W62462  24.532   2.527   4.280  0.2526 -0.1705  0.0286
19525W        W62463  25.722   3.101   5.787 -0.1105 -0.0679 -0.0429
19526W        W62464  23.059   4.399   7.421  0.1012  0.2934 -0.0613
19527W        W62465  22.467   3.926   4.845  0.1999  0.0445  0.5193
19528W        W62466  22.355   3.814   6.634  0.1026 -0.1541 -0.1218
19529W        W62467  23.874   3.590   7.119  0.3871 -0.3174 -0.2673
19530W        W62468  25.094   3.510   6.777  0.1033 -0.0075  0.0593
19531W        W62469  23.787   1.500   4.627 -0.0445  0.3008 -0.2739
19532W        W62470  24.093   3.083   4.925  0.1833  0.0140 -0.0190
19533W        W62471  24.989   2.884   5.563  0.2888  0.0818 -0.3933
19534W        W62472  22.840   3.322   8.034 -0.3867  0.2398 -0.2306
19535W        W62473  22.401   3.213   5.052  0.1522  0.1280 -0.0583
19536W        W62474  24.529   0.188   7.763 -0.1489 -0.2243  0.1165
19537W        W62475  23.672   3.328   6.127  0.1027  0.1183 -0.0653
19538W        W62476  25.254   1.335   4.164 -0.1883  0.0924  0.3521
19539W        W62477  21.806  34.528   3.220  0.0984 -0.1067 -0.0188
19540W        W62478  24.882   0.770   5.400  0.1151 -0.0972  0.4851
19541W        W62479  23.385   1.155   4.688  0.1104  0.1581 -0.4579
19542W        W62480  24.015   3.263   5.755  0.0846  0.2841  0.0340
19543W        W62481  23.325   1.759   5.930  0.1528 -0.0780 -0.3912
19544W        W62482  25.225   4.544   6.974  0.0695 -0.0157  0.0001
19545W        W62483  23.642   2.130   5.763  0.2549 -0.0709  0.1169
19546W        W62484  24.004   0.504   5.758 -0.2397  0.0813 -0.0389
19547W        W62485  22.954   2.838   6.071 -0.0704  0.1483  0.0391
19548W        W62486  22.304   2.312   4.078 -0.2791 -0.1399  0.0325
19549W        W62487  23.576   3.484   2.732 -0.2010  0.1105  0.2330
19550W        W62488  25.826   3.906   4.128  0.0247  0.0273 -0.0551
19551W        W62489  23.772   3.032   2.604 -0.0640 -0.0528  0.0833
19552W        W62490  21.623   1.727   4.566 -0.2331 -0.2457  0.0601
19553W        W62491  22.659   2.894   7.334 -0.0971  0.0600  0.2278
19554W        W62492  23.107   1.340   6.143 -0.3697  0.0390  0.0515
19555W        W62493  23.294   0.891   2.579  0.1473  0.0946 -0.0136
19556W        W62494  25.253   3.372   7.263 -0.2568 -0.0390 -0.0549
19557W        W62495  21.420   3.788   6.912 -0.0194 -0.2006  0.1640
19558W        W62496  24.318   0.575   5.407 -0.0776  0.0578  0.1061
19559W        W62497  23.653   2.296   5.288 -0.0025  0.1367  0.2051
19560W        W62498  24.612   3.700   6.696  0.0008 -0.1879  0.0741
19561W        W62499  25.187   3.821   3.158  0.1200  0.0769 -0.1559
19562W        W62500  23.964   1.035   4.782 -0.0130 -0.1156  0.0323
19563W        W62501  24.819  34.417   6.238 -0.0808  0.1367  0.3581
19564W        W62502  22.233   2.623   4.807  0.2177 -0.2092  0.0646
19565W        W62503  23.462   1.821   4.910 -0.3066 -0.1372  0.0552
19566W        W62504  26.387   3.197   6.589 -0.5589  0.2211 -0.2819
19567W        W62505  24.014   2.549   4.115 -0.1532  0.0721 -0.0017
19568W        W62506  23.056   3.397   6.036  0.0857  0.0660 -0.1237
19569W        W62507  24.994   1.430   6.729  0.0017 -0.0342 -0.0237
19570W        W62508  24.000   3.343   7.791  0.0261 -0.0997  0.1287
19571W        W62509  22.109   2.931   4.138  0.0386  0.3017 -0.0731
19572W        W62510  19.732   3.033   5.106  0.0919  0.1889  0.1016
19573W        W62511  23.381   3.002   4.568  0.2751  0.1115 -0.2444
19574W        W62512  22.029   1.674   5.674  0.1835  0.0659 -0.2711
19575W        W62513  23.232   2.304   6.014 -0.1208  0.0331  0.2077
19576W        W62514  25.538  34.299   4.283 -0.0508 -0.3529 -0.0931
19577W        W62515  23.007   0.250   7.068 -0.3423  0.0956 -0.0844
19578W        W62516  24.203   0.195   4.962  0.1768  0.1116 -0.1326
19579W        W62517  23.719   3.189   5.302 -0.0716  0.2433 -0.1742
19580W        W62518  25.916   4.630   5.489  0.0769  0.0904 -0.1619
19581W        W62519  24.803   0.982   5.793 -0.1057 -0.1010  0.0247
19582W        W62520  25.310   2.015   2.826 -0.0270 -0.3772 -0.1208
19583W        W62521  22.558   0.567   6.911 -0.2206 -0.2048  0.2406
19584W        W62522  21.487   2.194   5.811 -0.1420  0.2285  0.1106
19585W        W62523  21.645   1.142   7.502 -0.0432  0.0270  0.0305
19586W        W62524  21.648   1.104   6.930  0.0386 -0.1679 -0.0710
19587W        W62525  24.833   3.749   7.210  0.0299 -0.0415 -0.0066
19588W        W62526  21.378  34.589   4.982 -0.1071 -0.1805  0.1938
19589W        W62527  24.637   0.961   6.380 -0.0687  0.0683  0.0442
19590W        W62528  22.719   1.865   4.192 -0.0955  0.4198  0.3203
19591W        W62529  22.328   1.711   2.905  0.1509 -0.2254 -0.0954
19592W        W62530  24.674  34.681   8.641 -0.0118  0.1113  0.0478
19593W        W62531  23.781   3.459   4.324 -0.0859  0.0030 -0.0182
19594W        W62532  24.871   3.385   5.499  0.2197 -0.1301 -0.1081
19595W        W62533  24.613   4.446   5.194 -0.1962 -0.0285  0.0849
19596W        W62534  23.564   0.649   6.011 -0.0165  0.1706 -0.1652
19597W        W62535  21.263   2.437   3.430 -0.0147  0.0363  0.0079
19598W        W62536  22.298   2.746   5.589 -0.0816 -0.2016 -0.2611
19599W        W62537  24.109   2.264   5.486  0.0945  0.3245 -0.1210
19600W        W62538  22.286   1.359   4.338 -0.1066  0.4231  0.0820
19601W        W62539  25.393   4.311   5.156 -0.0485  0.1914  0.1917
19602W        W62540  24.339   2.894   3.848 -0.2000  0.0978  0.1389
19603W        W62541  22.652   3.598   6.253 -0.1110  0.2655  0.0959
19604W        W62542  24.042   0.071   7.917  0.0377  0.0628 -0.0775
19605W        W62543  25.193   2.136   5.658 -0.0239 -0.1022  0.0393
19606W        W62544  23.678   1.327   5.076  0.1556 -0.1467 -0.3277
19607W        W62545  21.398   0.387   4.001  0.1160  0.0286  0.0739
19608W        W62546  23.644   4.153   5.782  0.0385  0.0916  0.1517
19609W        W62547  21.956   3.015   4.936  0.1088  0.2348  0.0106
19610W        W62548  20.363   1.851   4.638 -0.1046  0.3411 -0.0112
19611W        W62549  23.751   2.665   4.904 -0.2733  0.0342 -0.2587
19612W        W62550  24.449  34.679   6.521 -0.2538 -0.0505  0.0235
19613W        W62551  22.355   2.496   7.300 -0.1030 -0.1313 -0.2409
19614W        W62552  25.645   0.962   6.296  0.1864  0.2164  0.3034
19615W        W62553  22.104   1.152   5.206  0.0302 -0.2826  0.1640
19616W        W62554  23.277   3.220   6.535  0.1983 -0.0098  0.1497
19617W        W62555  24.305  34.167   4.906 -0.0747  0.0621  0.0481
19618W        W62556  23.103  34.145   4.162 -0.0866  0.1787 -0.0473
19619W        W62557  22.594   1.518   7.076  0.2603 -0.0069  0.1251
19620W        W62558  24.473   2.251   6.473  0.3998 -0.2917  0.1727
19621W        W62559  24.083   0.589   4.598 -0.0133 -0.1590  0.3273
19622W        W62560  22.869   0.380   3.977 -0.0128 -0.2682 -0.0711
19623W        W62561  21.220   3.652   7.572  0.0198 -0.0011 -0.0061
19624W        W62562  25.233   2.905   6.115  0.0748 -0.1060 -0.2551
19625W        W62563  24.352   1.794   5.219 -0.3606 -0.0834 -0.2364
19626W        W62564  23.786   0.158   2.952  0.2536  0.0223  0.0792
19627W        W62565  25.377   2.836   3.578 -0.1255 -0.4607 -0.4341
19628W        W62566  21.445   2.769   5.805  0.1228 -0.1564 -0.3897
19629W        W62567  24.442   1.688   7.694  0.3758  0.1706  0.1257
19630W        W62568  25.116   4.520   5.956  0.0160 -0.0443 -0.0161
19631W        W62569  22.171   0.813   6.921 -0.0743 -0.0808 -0.0640
19632W        W62570  24.511  34.582   4.798 -0.0311  0.0403 -0.0205
19633W        W62571  23.692  34.193   4.197 -0.2002  0.2051 -0.1420
19634W        W62572  21.029   4.606   4.570 -0.0330 -0.1924 -0.2089
19635W        W62573  23.551   1.766   7.115 -0.0842  0.2064  0.0094
19636W        W62574  22.661  34.450   6.842 -0.1260  0.1260  0.1639
19637W        W62575  23.256  33.556   6.862  0.2176 -0.1356  0.2739
19638W        W62576  24.783   1.910   6.622  0.1815 -0.1037  0.4206
19639W        W62577  25.640   1.505   5.549  0.0568 -0.0387 -0.2499
19640W        W62578  23.071   0.573   6.201  0.1514  0.0106 -0.0869
19641W        W62579  22.385   2.154   4.975  0.2152 -0.0935 -0.0804
19642W        W62580  23.996   0.454   7.097 -0.1245 -0.0760  0.1623
19643W        W62581  23.135   3.632   7.043 -0.1292 -0.0230  0.3020
19644W        W62582  22.746   2.438   6.262  0.1830 -0.1345 -0.2225
19645W        W62583  24.350   2.174   7.475  0.1791 -0.0577  0.0458
19646W        W62584  24.237   1.860   5.772  0.0756 -0.2983  0.1747
19647W        W62585  24.000   0.035   7.394  0.2955  0.1133  0.0913
19648W        W62586  23.283   0.086   4.323 -0.1242 -0.0516 -0.0433
19649W        W62587  22.472   4.221   3.696 -0.0550  0.0438 -0.0472
19650W        W62588  24.116   2.997   4.359  0.2212  0.1329  0.0279
19651W        W62589  22.661  34.109   4.779  0.0725  0.2134 -0.0560
19652W        W62590  23.436   3.454   5.685 -0.0677 -0.2874  0.0531
19653W        W62591  23.456   3.595   3.668  0.1451  0.4311 -0.2169
19654W        W62592  24.320   1.782   7.020  0.1011 -0.0721 -0.0888
19655W        W62593  24.328   2.431   5.049  0.3570 -0.0604 -0.1801
19656W        W62594  24.937  34.620   6.738 -0.1015 -0.2270  0.1808
19657W        W62595  22.094   3.295   5.532 -0.1858 -0.1920  0.1044
19658W        W62596  23.045   3.832   3.889 -0.0583  0.0777 -0.1913
19659W        W62597  21.509   2.222   3.815  0.2123  0.2292 -0.2580
19660W        W62598  24.313   1.029   5.736  0.4535  0.1334  0.1951
19661W        W62599  25.760   2.208   3.698 -0.4555 -0.2080 -0.1918
19662W        W62600  22.145   1.637   6.876 -0.2085 -0.2860 -0.1489
19663W        W62601  24.081   1.080   5.275 -0.0697  0.0733 -0.2526
19664W        W62602  22.042   3.101   5.955 -0.1569  0.0735 -0.1237
19665W        W62603  23.369   1.217   6.767 -0.0690 -0.0672 -0.0272
19666W        W62604  24.371   0.756   4.932 -0.0937  0.2001  0.0281
19667W        W62605  23.790   1.720   6.633  0.1250 -0.0688 -0.0527
19668W        W62606  23.925   2.096   7.225  0.0973  0.1688 -0.0344
19669W        W62607  21.298  34.594   3.868  0.1133  0.2077 -0.1575
19670W        W62608  24.028   0.833   6.190  0.0216 -0.2621  0.1282
19671W        W62609  23.523   1.379   5.572 -0.3100  0.0402 -0.3547
19672W        W62610  21.322   2.967   5.158 -0.1857  0.1867  0.0364
19673W        W62611  23.839   1.676   6.040  0.0497 -0.0625  0.1011
19674W        W62612  22.559   1.744   4.700  0.0738 -0.0327  0.4865
19675W        W62613  23.188   3.055   5.622 -0.0162  0.0728 -0.2573
19676W        W62614  21.735   0.679   7.253  0.1792 -0.2850  0.0245
19677W        W62615  25.284   2.952   7.008  0.0519  0.1002 -0.2657
19678W        W62616  24.394   0.960   4.449 -0.3590  0.1176  0.1913
19679W        W62617  23.130   1.442   4.996  0.0432  0.0698 -0.2028
19680W        W62618  22.599   1.773   6.550  0.2913  0.1221 -0.2716
19681W        W62619  24.070   2.104   6.753 -0.3427  0.1124 -0.2654
19682W        W62620  23.599   2.035   7.629 -0.2298 -0.1272  0.1947
19683W        W62621  22.321   3.892   7.443  0.1251 -0.0794  0.0240
19684W        W62622  23.411   0.689   4.885 -0.0294  0.4659 -0.1248
19685W        W62623  24.236   4.082   5.011  0.4553  0.1242  0.1256
19686W        W62624  24.303  34.416   7.597  0.0086  0.0983  0.1871
19687W        W62625  24.070   2.431   4.582 -0.0539  0.1990 -0.0576
19688W        W62626  20.582   2.799   5.761 -0.0926 -0.2941 -0.0674
19689W        W62627  24.161   3.065   6.283  0.0919  0.0827  0.0798
19690W        W62628  22.950  34.271   6.196  0.0113  0.1420 -0.0865
19691W        W62629  22.434   3.937   3.207  0.1459  0.1930  0.1686
19692W        W62630  22.281   2.691   6.331  0.3652 -0.1153 -0.1881
19693W        W62631  22.557  33.817   5.721 -0.1908  0.3395 -0.0792
19694W        W62632  24.011   3.921   4.497  0.1119 -0.1822 -0.1936
19695W        W62633  23.438   0.022   5.293 -0.1689  0.1889  0.3579
19696W        W62634  25.043  34.658   7.311  0.0355  0.1218  0.3187
19697W        W62635  23.760   2.140   3.999 -0.1433  0.1021  0.2833
19698W        W62636  23.652  34.541   8.135 -0.1274 -0.0272 -0.1465
19699W        W62637  23.492   0.121   6.129  0.0317  0.0182  0.2692
19700W        W62638  25.432   2.942   5.361  0.2088  0.2876  0.1879
19701W        W62639  22.224   1.606   7.395  0.0861  0.1588 -0.2743
19702W        W62640  24.614   3.781   8.253 -0.1865 -0.1646 -0.1193
19703W        W62641  22.539   1.997   6.987  0.1411 -0.0778  0.1563
19704W        W62642  22.851  33.604   4.823 -0.0142 -0.0084  0.2551
19705W        W62643  22.234  34.325   3.868 -0.1256  0.1920  0.3048
19706W        W62644  23.965   2.593   7.013 -0.1937 -0.4202 -0.0338
19707W        W62645  25.758   3.396   6.753  0.2317 -0.2478  0.0223
19708W        W62646  24.308   0.071   1.978  0.2101  0.1463  0.4787
19709W        W62647  24.599   1.239   5.371  0.0581  0.0216  0.1475
19710W        W62648  21.399   2.240   6.640 -0.0762  0.1314  0.1781
19711W        W62649  22.959   2.049   4.611  0.1768  0.0855  0.1306
19712W        W62650  24.088   1.658   3.845 -0.2844  0.3402 -0.3470
19713W        W62651  23.965   2.775   5.957  0.0356 -0.1496  0.1743
19714W        W62652  22.970   1.295   7.823  0.4174  0.1859 -0.0821
19715W        W62653  25.998   1.862   5.483  0.1713  0.0140  0.0276
19716W        W62654  24.919   2.536   5.905  0.0531  0.1806  0.1290
19717W        W62655  25.431   0.180   7.020 -0.2314 -0.0586 -0.0783
19718W        W62656  24.631   0.450   6.579 -0.2812  0.1722 -0.0437
19719W        W62657  23.051   1.386   8.636  0.2164  0.0482  0.1045
19720W        W62658  21.724   1.512   6.245  0.1660 -0.2910 -0.3622
19721W        W62659  25.360   3.872   6.508  0.0703  0.0454 -0.2769
19722W        W62660  25.582   1.249   3.591 -0.0111 -0.1213 -0.1960
19723W        W62661  25.140   1.674   5.932 -0.2971 -0.0102 -0.0886
19724W        W62662  26.819   2.012   4.776 -0.2996 -0.1196  0.3638
19725W        W62663  23.358   1.457   3.339  0.0621  0.1123 -0.3431
19726W        W62664  22.243   1.823   6.100  0.0518 -0.1398  0.1358
19727W        W62665  24.079   0.233   6.173 -0.1150 -0.1757 -0.2005
19728W        W62666  23.701   1.640   4.155  0.0332  0.0261 -0.0901
19729W        W62667  25.202   0.871   6.583  0.1860  0.0713  0.0496
19730W        W62668  23.846   3.742   5.799  0.1457 -0.2465  0.0768
19731W        W62669  24.803   2.405   4.754  0.1543 -0.0754 -0.2982
19732W        W62670  25.428   2.623   5.755  0.2407 -0.3066  0.0393
19733W        W62671  21.957   0.959   6.438  0.2202 -0.2250  0.0224
19734W        W62672  22.961   2.673   6.978  0.0693 -0.0704 -0.2890
19735W        W62673  21.679   1.208   3.725 -0.0255 -0.1455 -0.1580
19736W        W62674  23.088   1.107   3.038  0.1862  0.0166  0.2152
19737W        W62675  24.119   2.601   6.450 -0.1447 -0.1155 -0.0325
19738W        W62676  24.796   3.228   5.958 -0.1191 -0.3461  0.2252
19739W        W62677  23.552   0.531   5.501 -0.0176 -0.1187 -0.1231
19740W        W62678  25.661   1.901   6.813 -0.0640 -0.0518 -0.1686
19741W        W62679  23.309   3.347   4.136  0.0247 -0.0913  0.0586
19742W        W62680  24.916  34.594   5.686 -0.1968  0.1973 -0.0613
19743W        W62681  22.632   3.386   6.773 -0.0267  0.1113  0.2724
19744W        W62682  22.119   3.694   7.046 -0.1755 -0.2078 -0.1868
19745W        W62683  22.784   2.668   5.628  0.0439  0.1384 -0.0302
19746W        W62684  24.123   0.013   6.914  0.0351  0.0645  0.1834
19747W        W62685  24.372   1.266   4.907  0.1245  0.1650 -0.1807
19748W        W62686  23.826   1.788   5.423  0.0361 -0.1056 -0.1186
19749W        W62687  25.150   2.287   6.759 -0.1999 -0.1565 -0.0655
19750W        W62688  24.025   1.505   7.493  0.1485  0.0134  0.2358
19751W        W62689  23.992   1.973   4.982 -0.2521 -0.0869 -0.2593
19752W        W62690  24.651   3.285   6.962 -0.1266  0.1827 -0.0158
19753W        W62691  24.889   2.932   5.004  0.0206 -0.0349 -0.3297
19754W        W62692  21.310   2.123   4.811  0.0981  0.3624  0.0640
19755W        W62693  22.100   1.198   7.177  0.1662  0.3177  0.0822
19756W        W62694  25.488   1.452   6.630 -0.1831 -0.1535 -0.0585
19757W        W62695  24.269   1.379   6.090 -0.2017  0.0223 -0.2673
19758W        W62696  21.905   1.108   4.711  0.1498 -0.2427 -0.0776
19759W        W62697  23.340   2.260   3.788 -0.0812  0.0351 -0.4234
19760W        W62698  21.600   2.115   7.892 -0.1453 -0.0973 -0.1893
19761W        W62699  20.701   1.534   6.870  0.3368 -0.0692 -0.2407
19762W        W62700  23.276   3.346   3.292  0.4042  0.1704  0.0968
19763W        W62701  23.109   3.869   3.353  0.1137  0.2662  0.0525
19764W        W62702  24.305   2.103   4.058 -0.3004 -0.0441  0.0940
19765W        W62703  24.029   2.800   5.433 -0.1904 -0.0028  0.1235
19766W        W62704  23.088   1.520   3.783 -0.0167  0.4861  0.0899
19767W        W62705  21.897   2.514   5.810 -0.2016  0.2733  0.2690
19768W        W62706  22.982   3.047   4.914 -0.1431 -0.2534 -0.0376
19769W        W62707  23.669   3.677   3.175 -0.0796 -0.2870 -0.1671
19770W        W62708  21.812   2.869   5.419  0.1666  0.0711  0.3145
19771W        W62709  24.582   3.264   6.450 -0.0594 -0.2379 -0.1473
19772W        W62710  25.366  34.394   3.768 -0.0804  0.3760  0.1597
19773W        W62711  26.045   2.140   5.057 -0.0615 -0.1052 -0.0460
19774W        W62712  24.769   0.415   5.703  0.1456  0.3035 -0.3242
19775W        W62713  24.467   4.091   6.948 -0.0180 -0.0325  0.1427
19776W        W62714  23.266   2.691   5.176 -0.1298  0.3426  0.1247
19777W        W62715  22.467  33.722   3.959 -0.0855 -0.2924  0.2582
19778W        W62716  23.164   2.944   8.260 -0.2983 -0.0440 -0.3020
19779W        W62717  25.124  34.005   7.787 -0.1672 -0.0666 -0.2925
19780W        W62718  21.991   3.401   7.619  0.4945  0.0262 -0.0125
19781W        W62719  24.485   3.609   3.313 -0.1017  0.0526  0.0069
19782W        W62720  22.243   2.753   2.493  0.2498  0.5848 -0.0535
19783W        W62721  23.794   1.131   4.303 -0.4201 -0.0127  0.0949
19784W        W62722  26.230   1.924   6.942  0.0022 -0.0470  0.1629
19785W        W62723  22.834   2.407   4.915 -0.2728 -0.2325 -0.0676
19786W        W62724  23.916   1.206   6.451 -0.1198 -0.0040 -0.0137
19787W        W62725  22.577   4.161   5.498  0.2365  0.2330 -0.0638
19788W        W62726  22.591   2.779   5.131 -0.0966 -0.1118 -0.0139
19789W        W62727  24.886   2.085   6.068 -0.2861 -0.1149 -0.0502
19790W        W62728  22.376   0.907   4.743  0.1571  0.0008  0.2344
19791W        W62729  25.311   0.181   4.250 -0.0352 -0.3017  0.3540
19792W        W62730  22.856   1.278   6.589 -0.0351  0.3971 -0.0991
19793W        W62731  25.261   0.789   5.827 -0.4010 -0.0039  0.1275
19794W        W62732  22.879   1.811   5.190  0.1318 -0.4016 -0.0076
19795W        W62733  25.874   1.131   5.166  0.1113 -0.2690  0.0808
19796W        W62734  24.481   2.846   4.691 -0.1755 -0.1256  0.3516
19797W        W62735  22.225   1.353   6.118  0.2932  0.0245  0.1753
19798W        W62736  23.743   1.046   3.336 -0.4572  0.0169 -0.0790
19799W        W62737  25.644   1.934   5.839  0.3103 -0.1667  0.2352
19800W        W62738  25.339   0.972   4.657  0.1212 -0.1066 -0.0586
19801W        W62739  24.343   3.683   7.117 -0.3413  0.0685 -0.3105
19802W        W62740  22.689   1.577   6.030  0.0941  0.1541 -0.2402
19803W        W62741  24.331   1.804   4.612  0.0283  0.3298 -0.1143
19804W        W62742  22.618   2.243   5.409 -0.0963  0.1400 -0.0241
19805W        W62743  23.416   1.180   7.622 -0.0337 -0.2306 -0.1196
19806W        W62744  24.941   3.394   7.782  0.3016  0.0931  0.3356
19807W        W62745  23.321   1.217   4.172 -0.1472 -0.0104  0.0365
19808W        W62746  26.116   2.434   3.414  0.1140  0.4572 -0.3565
19809W        W62747  25.666   2.596   5.193 -0.2795  0.2713  0.1623
19810W        W62748  22.493   3.666   5.279  0.2892  0.1930 -0.1802
19811W        W62749  25.213   1.704   5.248 -0.1719 -0.3386  0.0403
19812W        W62750  24.401   2.535   5.739 -0.3209 -0.2134  0.1487
19813W        W62751  21.010   1.680   5.851  0.2080 -0.1082 -0.0368
19814W        W62752  25.195   2.475   5.227  0.3687  0.2593  0.0594
19815W        W62753  26.052   3.793   5.514  0.2143  0.0318 -0.4020
19816W        W62754  23.821   0.088   4.380  0.0778 -0.0954  0.0192
19817W        W62755  22.462   1.336   5.629 -0.0136 -0.0122 -0.2436
19818W        W62756  23.736   3.367   4.777 -0.0187 -0.0370  0.2757
19819W        W62757  25.192   1.783   6.963  0.1279 -0.1450 -0.2618
19820W        W62758  24.463   0.548   6.077  0.1186  0.1795  0.1316
19821W        W62759  24.493   3.799   2.383 -0.0021 -0.1409  0.2194
19822W        W62760  24.093  33.613   7.826  0.2511  0.1780 -0.0771
19823W        W62761  24.292   3.509   6.080  0.2124  0.1808  0.1131
19824W        W62762  22.708   4.087   7.863 -0.1221  0.1261 -0.3744
19825W        W62763  22.681   2.810   4.622 -0.2260  0.5291  0.0830
19826W        W62764  24.139   3.562   6.655  0.1739 -0.2665  0.0453
19827W        W62765  24.496   3.005   5.614 -0.2818 -0.0573  0.2100
19828W        W62766  24.344   3.963   6.320 -0.4715 -0.2872 -0.0703
19829W        W62767  25.322   3.326   5.147 -0.1601 -0.0424  0.0143
19830W        W62768  24.205   1.416   4.329  0.1006  0.2017  0.0976
19831W        W62769  25.833   2.716   6.086  0.0473 -0.0469 -0.1403
19832W        W62770  22.765   0.333   4.496 -0.0657 -0.1131  0.0045
19833W        W62771  25.231  34.242   6.409  0.2845 -0.0767  0.0109
19834W        W62772  24.525  34.648   5.381  0.1292 -0.0367  0.2363
19835W        W62773  23.247   0.969   5.792  0.5464 -0.2635 -0.0171
19836W        W62774  20.777   1.508   3.850  0.2208 -0.1552  0.0356
19837W        W62775  23.243   1.603   4.497  0.0016  0.1352  0.4006
19838W        W62776  23.149   2.521   6.454 -0.0355 -0.0779  0.1132
19839W        W62777  23.405   0.949   6.386  0.1000 -0.0581  0.3613
19840W        W62778  22.283   2.111   6.493  0.1915 -0.2675 -0.1795
19841W        W62779  20.576   2.659   4.752  0.0074 -0.0993 -0.0852
19842W        W62780  22.597   0.781   4.297  0.2409 -0.0754 -0.6064
19843W        W62781  24.529   3.314   5.071 -0.0299 -0.3436  0.2118
19844W        W62782  22.749   0.791   5.745 -0.1372 -0.2937  0.0229
19845W        W62783  21.887   2.154   6.129 -0.0864  0.2249  0.1984
19846W        W62784  25.017   3.317   4.648 -0.1160 -0.0389  0.1346
19847W        W62785  25.106   4.022   5.953 -0.1876 -0.2112  0.3795
19848W        W62786  22.456  33.678   4.459  0.0291 -0.1643 -0.0414
19849W        W62787  25.804   2.815   6.970 -0.0296 -0.1522  0.1361
19850W        W62788  22.194   3.503   4.048  0.0693  0.0459 -0.0970
19851W        W62789  23.799   0.869   6.913  0.1748  0.1190 -0.0227
19852W        W62790  23.610   1.307   7.195  0.1842  0.2624 -0.1227
19853W        W62791  22.241   1.042   3.891  0.0640 -0.0251 -0.1176
19854W        W62792  23.466   0.952   5.278  0.2374  0.1052  0.2315
19855W        W62793  23.435   4.118   6.405 -0.2177 -0.1310 -0.0070
19856W        W62794  24.631   3.766   5.871  0.2729  0.0571 -0.2778
19857W        W62795  23.407   2.030   6.739 -0.5048 -0.0662 -0.0951
19858W        W62796  22.164   2.228   5.426 -0.2348 -0.0887 -0.1549
19859W        W62797  22.368   0.824   7.410 -0.5725  0.0258 -0.0721
19860W        W62798  24.719   2.570   5.365 -0.2069 -0.3985  0.2417
19861W        W62799  24.452   2.358   6.982  0.0140  0.0244 -0.2445
19862W        W62800  25.959   3.359   6.255 -0.4008 -0.0425  0.1332
19863W        W62801  25.471   0.475   6.333 -0.1749 -0.1818 -0.0881
19864W        W62802  24.833  34.379   5.138  0.3776 -0.2573 -0.0457
19865W        W62803  23.501  34.140   7.359 -0.1747  0.0008 -0.1203
19866W        W62804  23.064   2.086   7.862 -0.0010  0.0575 -0.1353
19867W        W62805  25.445   3.428   6.259 -0.0470 -0.3081  0.0619
19868W        W62806  23.002   0.565   5.317 -0.1264 -0.0810  0.0283
19869W        W62807  24.495  33.686   4.645 -0.1416 -0.3673  0.3150
19870W        W62808  23.836   3.867   6.286 -0.4624  0.1313  0.0066
19871W        W62809  22.526   2.477   6.768 -0.0424 -0.0812 -0.3604
19872W        W62810  23.670   2.046   6.266  0.0147  0.0901  0.0719
19873W        W62811  23.259   2.769   7.425 -0.1241 -0.1272 -0.0801
19874W        W62812  23.757   3.052   6.600 -0.1320 -0.1368  0.1696
19875W        W62813  24.874   2.539   6.435  0.1845 -0.2119  0.0270
19876W        W62814  23.336   0.429   3.907 -0.0177 -0.2157  0.1528
19877W        W62815  24.808   2.069   5.132 -0.3887 -0.1476  0.0160
19878W        W62816  24.893   4.034   6.399  0.0071  0.1180  0.3936
19879W        W62817  24.689   4.397   8.739  0.0653 -0.0568  0.0202
19880W        W62818  23.838   4.710   7.188 -0.3112 -0.1266 -0.0797
19881W        W62819  24.764   1.592   6.214  0.0496 -0.0841  0.3056
19882W        W62820  22.228   0.935   5.818 -0.1329  0.1962  0.4283
19883W        W62821  23.816   3.747   5.129  0.1191  0.4260 -0.1240
19884W        W62822  24.635   2.067   5.604  0.0929 -0.1562 -0.0129
19885W        W62823  23.866  34.359   7.141 -0.3090  0.0627 -0.0366
19886W        W62824  23.545   2.709   5.667  0.0137  0.0591  0.2658
19887W        W62825  23.495  34.451   4.608  0.0747 -0.1448  0.0503
19888W        W62826  22.739   2.888   6.575  0.0244 -0.0395  0.2563
19889W        W62827  23.352   1.595   6.443  0.1042 -0.3306  0.2036
19890W        W62828  23.151   3.517   9.574  0.0807  0.0294 -0.2318
19891W        W62829  21.784   1.752   8.704  0.0284 -0.4838  0.3111
19892W        W62830  24.980   0.602   6.178 -0.0075 -0.0038  0.0025
19893W        W62831  25.280   2.003   8.028  0.0106  0.2786  0.2987
19894W        W62832  22.120   0.012   9.418  0.0269 -0.2425 -0.1942
19895W        W62833  24.711   2.568   7.429 -0.1196 -0.2107  0.0554
19896W        W62834  25.025   1.925   8.603  0.0770  0.0194 -0.2585
19897W        W62835  27.177   3.280   9.127  0.1972 -0.1556  0.0375
19898W        W62836  23.834   3.075   7.406  0.0260  0.0980  0.1412
19899W        W62837  22.526   4.171  10.435 -0.1986  0.2421 -0.0362
19900W        W62838  24.332   0.405   8.183  0.2323  0.3043  0.1365
19901W        W62839  20.971   0.107   9.996 -0.0027  0.0673 -0.1988
19902W        W62840  22.071   1.717   9.126  0.0733 -0.2485  0.1014
19903W        W62841  22.805   2.696   7.837 -0.1847  0.0972  0.0853
19904W        W62842  22.281   1.698   8.436 -0.0484 -0.0072  0.1952
19905W        W62843  23.401   1.155   8.133  0.4361 -0.0359 -0.1725
19906W        W62844  25.264   5.276   8.429  0.1742 -0.0201 -0.0650
19907W        W62845  23.030   1.804  10.063 -0.0396  0.2169  0.2117
19908W        W62846  23.679   5.321   9.371 -0.1663  0.1802  0.2912
19909W        W62847  22.932   2.189   6.776 -0.2416  0.1704  0.1383
19910W        W62848  22.575   1.855   9.201  0.0012  0.1021 -0.2995
19911W        W62849  24.264   4.404   9.076 -0.1694  0.2040  0.0340
19912W        W62850  24.605   1.123   8.984  0.0643  0.1900 -0.0864
19913W        W62851  24.298   1.399   8.729  0.0352 -0.1121 -0.1416
19914W        W62852  25.009   5.379   9.287  0.0767 -0.3523 -0.2636
19915W        W62853  23.990   4.554   9.659  0.0961 -0.4067  0.0385
19916W        W62854  22.434   3.133   7.819 -0.2252  0.1041 -0.0113
19917W        W62855  20.972   3.170   9.695 -0.0763 -0.0294  0.1380
19918W        W62856  23.268   3.157   7.743 -0.1458 -0.2368  0.0335
19919W        W62857  25.651   2.802   8.023 -0.1288  0.0260  0.2952
19920W        W62858  21.847   2.768   8.406  0.2756 -0.0072 -0.2189
19921W        W62859  25.277   1.750   9.007  0.1723 -0.1058 -0.0949
19922W        W62860  25.200   1.794   9.523  0.1333 -0.1387  0.1185
19923W        W62861  22.755   3.788   8.227 -0.0857  0.0541 -0.1390
19924W        W62862  23.629   3.245   9.716 -0.0818 -0.0011 -0.0270
19925W        W62863  23.489   3.488   9.116  0.1749  0.3818  0.0069
19926W        W62864  21.965   2.987   7.912 -0.4734 -0.1367  0.0530
19927W        W62865  23.935   2.419   8.047  0.0907  0.2454  0.0382
19928W        W62866  24.219   0.905   7.173 -0.2932 -0.0405  0.1662
19929W        W62867  24.512   1.336   7.079  0.1755 -0.0536 -0.0768
19930W        W62868  24.793  34.465   9.112 -0.2623 -0.0473 -0.4021
19931W        W62869  23.613   5.661  10.144  0.4902  0.0468 -0.0041
19932W        W62870  24.065   0.344   9.359  0.2083 -0.0867 -0.0082
19933W        W62871  23.807   2.243   8.541  0.0801 -0.0250  0.0525
19934W        W62872  23.213   2.327   9.509 -0.1904  0.1072  0.0997
19935W        W62873  22.522   4.829   9.813 -0.3761 -0.1168 -0.2294
19936W        W62874  21.842   1.749   8.151  0.1989 -0.1891 -0.1783
19937W        W62875  24.477   3.256   7.466  0.0637  0.1161  0.1536
19938W        W62876  24.775   2.764   8.332 -0.2828  0.0257  0.0203
19939W        W62877  24.782   5.234   8.198 -0.0309 -0.2821  0.0365
19940W        W62878  24.405   2.123   9.264 -0.2066 -0.0863 -0.1674
19941W        W62879  23.225   0.908   7.196 -0.1943  0.1571 -0.1062
19942W        W62880  22.555   2.079  10.121 -0.0058  0.3975 -0.3394
19943W        W62881  24.142   3.720   9.767 -0.1578 -0.0161 -0.0038
19944W        W62882  26.308   1.476   8.542 -0.0604  0.0824 -0.2859
19945W        W62883  24.009   1.336   6.920 -0.2351  0.0407 -0.0955
19946W        W62884  24.974   1.452   8.748 -0.0377 -0.1448 -0.2739
19947W        W62885  24.089   0.310   9.985 -0.2129  0.0029  0.1086
19948W        W62886  22.426   3.175   6.311  0.0356 -0.1452  0.1538
19949W        W62887  22.766   3.143   9.710 -0.1208  0.0108 -0.0165
19950W        W62888  25.749   3.084   9.406  0.0051 -0.0051 -0.0306
19951W        W62889  25.540   1.948   8.446  0.0236 -0.1341  0.4245
19952W        W62890  22.231   7.856  10.093 -0.1389 -0.1131 -0.0641
19953W        W62891  21.539   4.438   7.697 -0.0364  0.3144 -0.1032
19954W        W62892  21.377   2.512   8.588 -0.2720 -0.1839  0.0654
19955W        W62893  23.733   1.768   8.862  0.2915  0.2500 -0.1595
19956W        W62894  20.677  34.111   9.107  0.0319 -0.2268  0.2462
19957W        W62895  22.719   4.771   8.997  0.1950 -0.1040  0.2872
19958W        W62896  26.514   0.758   7.392 -0.2436 -0.2948  0.0390
19959W        W62897  25.997  34.415   8.805 -0.0094 -0.1420  0.0826
19960W        W62898  23.148   3.670  10.222 -0.0664 -0.2273  0.0563
19961W        W62899  24.455   3.665   7.791  0.1609 -0.0109 -0.0031
19962W        W62900  25.795   0.096   7.854  0.1410  0.2528  0.2500
19963W        W62901  23.587   3.944   7.073  0.0376 -0.1989  0.1999
19964W        W62902  22.717   2.919   9.207  0.3163 -0.0342 -0.3754
19965W        W62903  21.367   2.236   8.980  0.0148 -0.0593 -0.0294
19966W        W62904  20.921  33.583   9.954 -0.1495 -0.0547  0.3685
19967W        W62905  23.594   0.247   7.651 -0.5084  0.0211 -0.2220
19968W        W62906  24.949   1.678   9.943 -0.0186 -0.0022 -0.1365
19969W        W62907  23.615   2.663   8.357 -0.1048  0.1894 -0.0924
19970W        W62908  22.576   2.228   7.690 -0.1753  0.0129  0.0054
19971W        W62909  24.322   4.064   8.528  0.0645 -0.0757 -0.5025
19972W        W62910  23.978   5.454   9.720 -0.1092 -0.0465  0.1895
19973W        W62911  25.478   3.097   8.860  0.0334  0.3242  0.0998
19974W        W62912  23.564   1.976   9.353  0.1524  0.2986  0.1297
19975W        W62913  20.873   1.301   8.182  0.0953 -0.2022  0.0032
19976W        W62914  24.258   5.650   9.161  0.1836  0.1380 -0.0734
19977W        W62915  24.820   2.625   9.147  0.0341  0.0843  0.1469
19978W        W62916  23.336   0.690   7.856  0.1276  0.2432  0.1488
19979W        W62917  26.473   1.678   9.555  0.0692 -0.1233  0.0867
19980W        W62918  24.220   3.155   9.893 -0.2137 -0.0126  0.3475
19981W        W62919  24.393  34.683   9.369  0.0368  0.0049  0.0506
19982W        W62920  24.804   1.483   9.314  0.2411 -0.3232  0.0082
19983W        W62921  22.721   1.012   7.035  0.0589 -0.0593  0.3255
19984W        W62922  24.076   3.280   8.851 -0.2046  0.0991  0.0851
19985W        W62923  21.786   3.627   8.191 -0.2529 -0.1709  0.0486
19986W        W62924  21.423   1.446   9.600 -0.0628 -0.1184 -0.0925
19987W        W62925  24.270   4.602   8.590 -0.3732  0.2126 -0.0572
19988W        W62926  23.433   1.003   9.431 -0.3177 -0.1850  0.0749
19989W        W62927  21.642   0.818   8.944 -0.2829  0.4536 -0.1510
19990W        W62928  23.806  34.066   9.094 -0.0945  0.1664  0.1191
19991W        W62929  24.811   1.069   7.325 -0.3316 -0.1711  0.0860
19992W        W62930  25.205   2.389   8.338  0.2767  0.1187  0.1408
19993W        W62931  24.300   1.101   7.610  0.1753  0.0810  0.0008
19994W        W62932  24.416   1.453   6.587  0.0938 -0.2401 -0.1480
19995W        W62933  23.948   3.458   9.351  0.2295  0.1333 -0.0510
19996W        W62934  23.714   4.713  10.040  0.0086 -0.1767 -0.0277
19997W        W62935  23.840   1.218   8.881  0.0252  0.0169 -0.1699
19998W        W62936  24.563   3.995   9.439 -0.2221  0.2479 -0.0189
19999W        W62937  23.240   2.921   9.559  0.0659 -0.2783  0.0073
20000W        W62938  24.194   2.896   7.777  0.2748  0.1361  0.0849
20001W        W62939  23.390   4.287  10.172  0.0752  0.2302  0.0479
20002W        W62940  22.577   1.245   7.502  0.0685 -0.1907 -0.2620
20003W        W62941  22.548   1.499   8.816  0.2228  0.1147 -0.3322
20004W        W62942  20.211   4.950   8.229 -0.0800  0.1828  0.0024
20005W        W62943  23.862   2.321   9.930  0.3029 -0.1443 -0.1783
20006W        W62944  25.293   0.789   9.595 -0.0348 -0.0202  0.0374
20007W        W62945  25.021   2.551   7.873  0.1310 -0.2674  0.2031
20008W        W62946  24.372   1.681   9.504  0.1195 -0.0794 -0.0870
20009W        W62947  23.382   2.538   7.845  0.0667  0.0782  0.1721
20010W        W62948  24.512   0.459   9.619 -0.0197  0.1340  0.2015
20011W        W62949  22.348   3.757   9.182 -0.0311 -0.2662  0.1351
20012W        W62950  23.614   3.419   8.633 -0.1027 -0.1978  0.0133
20013W        W62951  23.652   1.510   7.870 -0.0388 -0.2273 -0.1644
20014W        W62952  22.378   4.318   8.227  0.3773  0.0978  0.0020
20015W        W62953  22.126   2.960   7.423  0.0849 -0.1612  0.1430
20016W        W62954  22.995  34.645  10.561 -0.1476  0.0229  0.0770
20017W        W62955  24.732   5.844  10.039 -0.0742  0.1407  0.1859
20018W        W62956  23.407   3.977   8.811  0.2696 -0.1222 -0.1363
20019W        W62957  23.596   3.824  10.310  0.1273 -0.1755 -0.2260
20020W        W62958  22.830   3.840   8.735 -0.0421  0.1042  0.0666
20021W        W62959  22.710   1.490   9.705 -0.0165 -0.2026  0.1097
20022W        W62960  22.769   3.236  10.198 -0.2509  0.0710 -0.1567
20023W        W62961  23.837   1.036   7.863  0.1299  0.1965 -0.1869
20024W        W62962  21.264   0.909  10.283 -0.1340 -0.2327  0.0035
20025W        W62963  24.734   1.227   7.811  0.0066  0.0574  0.2293
20026W        W62964  25.815   0.541   6.728  0.1028  0.2293 -0.1203
20027W        W62965  22.853   1.427   9.215  0.1705  0.0686  0.1836
20028W        W62966  23.526   1.515   9.866 -0.2389 -0.1440 -0.0879
20029W        W62967  22.197   4.150   8.679 -0.0651 -0.0047 -0.1562
20030W        W62968  23.103   0.934   8.992 -0.0375  0.0078 -0.0395
20031W        W62969  21.624   1.242   7.947 -0.0376 -0.1578  0.0020
20032W        W62970  24.792   1.623   8.065 -0.0301  0.1104 -0.0474
20033W        W62971  22.022   0.823   8.197 -0.0891  0.0130  0.0425
20034W        W62972  23.505   3.809   9.751 -0.0090 -0.1316 -0.0104
20035W        W62973  23.618   2.527   9.464 -0.0248 -0.1223 -0.1916
20036W        W62974  23.351   2.582   9.975 -0.1150 -0.2540 -0.0912
20037W        W62975  22.509   3.607   7.838 -0.0521  0.0855  0.1632
20038W        W62976  25.385   2.858   9.657 -0.5462  0.0095 -0.4835
20039W        W62977  23.520   1.468   8.522  0.0962 -0.0877 -0.1371
20040W        W62978  22.315   1.165   8.445 -0.0808  0.2341 -0.0991
20041W        W62979  24.404   3.161   8.116  0.2854  0.1817  0.1907
20042W        W62980  27.205   4.150   9.613  0.1360  0.0533  0.0010
20043W        W62981  25.238   0.403   9.993  0.0041 -0.1795  0.1604
20044W        W62982  25.100   0.990   8.582  0.1131 -0.1939 -0.1395
20045W        W62983  24.377   2.676   8.867 -0.3224  0.0452  0.2056
20046W        W62984  23.022   4.346   8.906 -0.0015  0.0765  0.1493
20047W        W62985  22.492   2.028   8.215 -0.0093  0.1466 -0.1706
20048W        W62986  22.991   3.918   7.434  0.2144  0.1025 -0.6000
20049W        W62987  23.851   0.221   8.480  0.0524  0.3347  0.2529
20050W        W62988  23.028   3.972   9.789 -0.1690  0.1840  0.1406
20051W        W62989  22.995   3.154   7.086  0.0400 -0.2092 -0.2645
20052W        W62990  21.983   3.536   9.471  0.1109 -0.3592 -0.1373
20053W        W62991  23.914  34.319   8.672  0.1463 -0.3139  0.2123
20054W        W62992  24.913   2.092   7.667  0.0759  0.0328  0.0645
20055W        W62993  23.049   1.372   7.239  0.1567 -0.2940  0.1062
20056W        W62994  25.607   1.657   7.828  0.1326 -0.0358  0.2444
20057W        W62995  21.659   0.143   9.571 -0.1976 -0.1184 -0.2050
20058W        W62996  25.549   3.217   8.334 -0.0840  0.1845  0.0112
20059W        W62997  24.771   0.856   9.420  0.1561 -0.2071  0.2232
20060W        W62998  22.701   0.145   8.390  0.0766  0.3281  0.0184
20061W        W62999  23.242   2.641   9.111 -0.2212  0.1192  0.1589
20062W        W63000  24.618   1.767   8.979 -0.2387 -0.1600 -0.2051
20063W        W63001  24.476   3.379   9.393 -0.1437  0.0239  0.1158
20064W        W63002  25.040   3.100   9.357  0.3192 -0.2950 -0.3728
20065W        W63003  23.462   2.242   8.911 -0.2004 -0.1973 -0.2253
20066W        W63004  24.455   2.473   7.899  0.0933  0.2388  0.2081
20067W        W63005  24.853   2.107   7.127 -0.1503 -0.0060 -0.0043
20068W        W63006  23.116   3.189   9.038  0.0408 -0.1884  0.1303
20069W        W63007  25.698   2.408   8.239  0.3169  0.2640 -0.0230
20070W        W63008  23.727   0.538   9.700  0.0981  0.0132 -0.3064
20071W        W63009  22.762   2.134   9.619 -0.0039  0.2175  0.4120
20072W        W63010  25.117   0.410   6.710 -0.0908 -0.1252 -0.1689
20073W        W63011  26.268   2.566   8.632 -0.1798 -0.0222  0.1650
20074W        W63012  25.919   1.606   8.739  0.3231  0.0101  0.2659
20075W        W63013  24.393   2.865   7.176 -0.3243  0.0573 -0.0449
20076W        W63014  22.506   0.997   8.883  0.0724  0.2813  0.1368
20077W        W63015  23.315  33.051   8.016  0.0754 -0.0850 -0.1217
20078W        W63016  24.790   4.369   9.229 -0.2663 -0.2499  0.0453
20079W        W63017  23.910   3.029   8.363  0.0037 -0.0121  0.0054
20080W        W63018  23.972   1.964   9.603 -0.1565 -0.2085  0.4070
20081W        W63019  21.058  34.366   8.907 -0.2098 -0.0019 -0.0773
20082W        W63020  23.600   1.932   8.140  0.0450  0.2363 -0.3459
20083W        W63021  24.019   1.905   7.773 -0.0191 -0.0412  0.0388
20084W        W63022  24.909   4.474   9.670 -0.2886  0.3808  0.1251
20085W        W63023  23.763  33.570   6.724  0.2775  0.1734  0.2223
20086W        W63024  21.918   2.148   7.245 -0.0303 -0.0405  0.1405
20087W        W63025  24.215  33.390   8.917 -0.2674 -0.0007 -0.3238
20088W        W63026  21.773   5.866  10.536  0.1222 -0.5172 -0.0321
20089W        W63027  23.859   4.984   8.419 -0.2404  0.4767 -0.2661
20090W        W63028  23.485   0.926   8.596 -0.0048  0.2325  0.0452
20091W        W63029  23.192   1.898   8.634 -0.1858 -0.0289 -0.2155
20092W        W63030  24.359   1.983   8.137  0.0143 -0.0996 -0.1729
20093W        W63031  24.669   4.718  10.394 -0.1992  0.2160 -0.2363
20094W        W63032  25.778   1.221   7.446 -0.2962  0.1963 -0.2010
20095W        W63033  24.994   2.141   9.135 -0.1108 -0.0159 -0.0556
20096W        W63034  22.769   2.120   8.638  0.0706 -0.2073  0.1416
20097W        W63035  22.496   0.418   7.624 -0.0021 -0.3455  0.0094
20098W        W63036  23.799   3.888   8.441 -0.0452  0.1077 -0.0938
20099W        W63037  21.843   4.270   8.091 -0.2991  0.1890  0.4136
20100W        W63038  23.912   2.506   7.581 -0.2844 -0.1057  0.1054
20101W        W63039  23.703   2.944   7.937 -0.2464 -0.0060  0.0591
20102W        W63040  23.767   4.319   9.113  0.0916  0.0003 -0.1590
20103W        W63041  23.240   1.670   7.601 -0.1668 -0.1516 -0.1993
20104W        W63042  23.504   5.216   9.826  0.1933 -0.1945 -0.0179
20105W        W63043  22.148   3.909   7.909 -0.2187  0.0217 -0.2272
20106W        W63044  24.855   4.296   7.298 -0.2874  0.1126 -0.2163
20107W        W63045  22.680   5.144   8.519  0.0845 -0.0833  0.2458
20108W        W63046  24.866   1.629   7.401 -0.2782 -0.1028  0.1658
20109W        W63047  25.172   2.961   8.131  0.0713  0.2178  0.0276
20110W        W63048  25.343   0.702   7.072  0.0505 -0.2508  0.1063
20111W        W63049  22.915   2.785   8.669  0.0701 -0.0936  0.1214
20112W        W63050  24.192   0.563   7.578  0.3226 -0.1443  0.0928
20113W        W63051  24.869   2.680   6.970  0.1822  0.0525 -0.0042
20114W        W63052  23.069   0.725   8.353 -0.2327 -0.0104  0.2554
20115W        W63053  24.280   1.383   8.086  0.1521  0.0710  0.1981
20116W        W63054  26.111  32.708  10.125 -0.2756  0.0916  0.3871
20117W        W63055  23.448   2.784   6.907 -0.0490  0.0282 -0.0629
20118W        W63056  23.344   1.464   9.084 -0.1819  0.0665 -0.2429
20119W        W63057  24.447   4.345   9.879  0.0249  0.3362  0.1062
20120W        W63058  23.926   4.769   8.910 -0.0880  0.1568  0.0217
20121W        W63059  22.533   5.304  10.430  0.1885 -0.0578  0.0380
20122W        W63060  22.281   0.367   8.162  0.0791 -0.2738 -0.0275
20123W        W63061  24.510   3.381   8.591  0.2407 -0.2696 -0.2683
20124W        W63062  23.994   1.720   8.334  0.2044 -0.2666  0.1354
20125W        W63063  24.143   1.755   9.067 -0.0496  0.2245 -0.2710
20126W        W63064  25.925   0.260   9.124  0.1383  0.0150  0.3035
20127W        W63065  21.658   3.092   9.263 -0.1282 -0.1911 -0.0505
20128W        W63066  22.219   6.087  10.382 -0.0159  0.3571  0.1577
20129W        W63067  23.720   0.748   7.485 -0.0425 -0.1379  0.2789
20130W        W63068  24.544   0.473   7.175  0.1256  0.0163  0.2162
20131W        W63069  23.960  34.590   9.589  0.0079  0.0302  0.0500
20132W        W63070  23.440   0.016   7.245  0.0182 -0.1533 -0.0103
20133W        W63071  24.721   1.226   8.383 -0.0684 -0.1981  0.2726
20134W        W63072  23.249   3.130  10.048 -0.1382 -0.3373  0.1396
20135W        W63073  23.193   1.580   8.126  0.2421 -0.0466 -0.1306
20136W        W63074  25.969   1.993   8.037 -0.1728 -0.0242  0.3474
20137W        W63075  23.804   2.677   8.892  0.1492 -0.3220 -0.1708
20138W        W63076  23.294   3.802   8.341  0.5266 -0.1330  0.2183
20139W        W63077  25.165   1.416   7.749  0.2166  0.2438  0.0391
20140W        W63078  24.748   2.349   8.686  0.1270  0.1977  0.0875
20141W        W63079  22.032   1.279   8.881 -0.1518  0.4595  0.1328
20142W        W63080  25.044   2.794   8.737 -0.1186  0.3989  0.0598
20143W        W63081  25.363   2.696   9.174  0.2530 -0.0334  0.0062
20144W        W63082  24.494   0.853   8.588 -0.2498  0.2054 -0.0433
20145W        W63083  24.280   2.651   8.398  0.0845  0.1808 -0.0042
20146W        W63084  22.606   3.397   8.467  0.0319 -0.1282  0.0320
20147W        W63085  24.576   1.747   8.471 -0.3260  0.1714 -0.0995
20148W        W63086  24.758   4.484   6.854  0.0768  0.1727  0.0256
20149W        W63087  22.206   1.495   9.899 -0.1889  0.2637 -0.0145
20150W        W63088  22.442   1.433   8.046 -0.4877 -0.2324  0.3381
20151W        W63089  23.387   3.985   9.331  0.4943 -0.0688  0.1050
20152W        W63090  24.169   3.976   8.068 -0.0095  0.0500  0.0489
20153W        W63091  23.940   2.276   9.139 -0.0686  0.2800 -0.0524
20154W        W63092  24.291   0.905   8.129 -0.2058 -0.3338  0.1424
20155W        W63093  26.004   1.454   9.495  0.1812  0.0368  0.3548
20156W        W63094  23.759   1.486   9.403 -0.0680 -0.0916 -0.1918
20157W        W63095  25.872   0.613   7.763 -0.0061 -0.1028  0.0556
20158W        W63096  24.012   0.739   8.584  0.3377 -0.0710 -0.0337
20159W        W63097  22.894   2.621   9.752  0.0824  0.1694  0.1508
20160W        W63098  22.344   2.574   8.059  0.2991 -0.0601  0.1132
20161W        W63099  21.213   2.990   7.122 -0.0736  0.1124  0.1656
20162W        W63100  23.008   4.712   8.583  0.3199 -0.2847 -0.3125
20163W        W63101  22.451   2.996   8.783  0.2874  0.0449 -0.0150
20164W        W63102  22.160  33.376  10.112  0.0019 -0.0328  0.2338
20165W        W63103  24.920   3.929   8.566 -0.1501 -0.0592  0.1330
20166W        W63104  22.738   0.055   7.813  0.2565  0.1621  0.1452
20167W        W63105  21.320  34.522   9.719 -0.1467 -0.0933 -0.0970
20168W        W63106  24.701   2.933   7.813 -0.0064  0.1927 -0.3724
20169W        W63107  25.907   2.802   8.958 -0.0718 -0.0135  0.1599
20170W        W63108  23.844   0.558   8.111  0.0816 -0.2015  0.2260
20171W        W63109  21.845   2.885   6.951 -0.0503  0.2545  0.2152
20172W        W63110  22.827   1.148   8.253 -0.1753  0.2137 -0.0478
20173W        W63111  23.089   1.946   9.129 -0.4022 -0.0414 -0.1169
20174W        W63112  24.626   3.125   9.017  0.0220 -0.1678  0.0266
20175W        W63113  25.102   4.393   7.888  0.1262 -0.0687 -0.2045
20176W        W63114  23.162   1.637   9.529  0.0632 -0.1813 -0.3661
20177W        W63115  25.324   1.785   7.429 -0.0678  0.0069 -0.3455
20178W        W63116  24.896   3.010   7.304 -0.2978 -0.0166 -0.0385
20179W        W63117  26.887   1.524   9.357 -0.1677  0.0597 -0.0054
20180W        W63118  22.731   1.650   8.388  0.0982 -0.1431 -0.4929
20181W        W63119  26.298   1.976   8.434  0.2657  0.1416  0.1664
20182W        W63120  24.245  34.583   8.901 -0.3414  0.1116 -0.0321
20183W        W63121  24.273   2.223   8.809 -0.0629  0.1459 -0.1190
20184W        W63122  23.441   2.954   8.686 -0.1730  0.0708 -0.1446
20185W        W63123  22.772   2.395   9.090  0.0640 -0.0301 -0.3765
20186W        W63124  22.860   0.480   8.016  0.1513  0.0004  0.1406
20187W        W63125  25.955   2.362   9.214  0.2534 -0.1292  0.1760
20188W        W63126  23.621   3.038   9.185 -0.1144  0.1334  0.0865
20189W        W63127  26.716   0.814   7.828 -0.2298  0.1632 -0.0011
20190W        W63128  23.646   4.859   9.514  0.2791  0.0478 -0.0259
20191W        W63129  25.056   4.400   8.364  0.0748  0.5374  0.1074
20192W        W63130  25.422   0.760   9.006 -0.0824 -0.0168 -0.2205
20193W        W63131  22.494  33.563   9.620  0.1235  0.1427  0.2930
20194W        W63132  23.372   2.276   7.205 -0.1439  0.2231 -0.0088
20195W        W63133  23.985   5.278   8.906  0.2099  0.0644  0.3458
20196W        W63134  25.384   0.502   8.560  0.0748  0.2820 -0.0081
20197W        W63135  22.580   0.748   8.452 -0.0758 -0.0140 -0.0015
20198W        W63136  24.324   0.385   8.713  0.2171 -0.0430  0.0779
20199W        W63137  26.073   4.215   8.114  0.3691 -0.3350 -0.2136
20200W        W63138  24.796   2.190   8.173  0.2592 -0.2572 -0.1686
20201W        W63139  22.127   6.006   3.457  0.3447 -0.1168 -0.2347
20202W        W63140  24.887   5.541   1.409 -0.0877  0.1927 -0.1203
20203W        W63141  24.090   5.715   0.607  0.2091  0.0065  0.0717
20204W        W63142  24.615   8.186  31.955  0.1309  0.2491  0.1892
20205W        W63143  22.614   5.437   0.621 -0.2247  0.0501  0.0202
20206W        W63144  25.045   6.686  31.760  0.0293 -0.0961 -0.2500
20207W        W63145  22.621   3.666   2.843 -0.1584  0.1234 -0.2149
20208W        W63146  24.730   7.153   1.575 -0.1820 -0.1961 -0.1821
20209W        W63147  24.488   7.625   0.073  0.3250 -0.0713 -0.0346
20210W        W63148  23.123   6.568   0.081  0.0902 -0.0170  0.0171
20211W        W63149  25.268   4.390   1.327 -0.1980 -0.4482  0.1570
20212W        W63150  23.876   5.912   1.894 -0.0601  0.1431 -0.3608
20213W        W63151  24.020   3.903   0.526  0.2158  0.0943  0.0657
20214W        W63152  22.115   5.568   0.914  0.2948 -0.0142  0.1595
20215W        W63153  24.962   5.838   2.119  0.0043  0.1206  0.0321
20216W        W63154  22.902   6.174   0.995 -0.0349 -0.1457 -0.0792
20217W        W63155  24.185   4.962   3.287  0.0280 -0.1489 -0.2006
20218W        W63156  23.820   5.278   2.033 -0.1930 -0.0932 -0.4701
20219W        W63157  24.875   6.873   1.995 -0.4550 -0.0436  0.0805
20220W        W63158  24.054   5.184   1.589  0.0002  0.0416 -0.2333
20221W        W63159  23.840   2.711   3.655 -0.0965  0.0597  0.2235
20222W        W63160  24.160   7.611   2.824 -0.0448 -0.3867 -0.3250
20223W        W63161  23.242   6.231  31.683  0.1149  0.2400  0.2190
20224W        W63162  20.837   6.336   1.462  0.0527  0.1213  0.0861
20225W        W63163  22.121   4.581   2.216 -0.0396  0.0749  0.0624
20226W        W63164  24.176   4.270   2.182 -0.0885  0.0118 -0.2726
20227W        W63165  25.809   5.949   1.376  0.1210  0.1237  0.0969
20228W        W63166  23.580   6.673   1.413  0.2229  0.0867  0.0470
20229W        W63167  22.723   7.035   2.900 -0.0517 -0.0344 -0.2914
20230W        W63168  25.748   4.394   2.627  0.0312  0.0129  0.0853
20231W        W63169  22.447   6.444   0.355 -0.2704 -0.1563 -0.0641
20232W        W63170  21.822   8.333   1.137  0.1225  0.3234  0.1215
20233W        W63171  23.368   7.369   1.351  0.0729 -0.3006  0.1933
20234W        W63172  26.055   6.397  31.769  0.0492  0.3090  0.0457
20235W        W63173  26.430   6.671   1.448  0.0849 -0.0448  0.1216
20236W        W63174  23.111   7.087   3.151  0.1277 -0.1366  0.0738
20237W        W63175  22.097   6.302   2.338 -0.0811 -0.0791 -0.0832
20238W        W63176  24.680   6.813   3.680  0.2689 -0.1738  0.1623
20239W        W63177  22.789   7.255   3.587  0.2085 -0.1028  0.1125
20240W        W63178  24.082   6.154   2.526  0.1147  0.0552 -0.4315
20241W        W63179  24.817   5.395   0.893 -0.1665  0.1072 -0.1775
20242W        W63180  22.598   7.126  31.817  0.0514 -0.0503  0.2135
20243W        W63181  23.472   4.812   2.226 -0.2834  0.1969  0.2694
20244W        W63182  23.503   5.329   4.164 -0.2913  0.1242  0.1058
20245W        W63183  22.225   5.861   2.518  0.1885 -0.2124  0.0340
20246W        W63184  24.590   4.766   4.789  0.0464 -0.0891  0.2288
20247W        W63185  21.093   8.638   0.906 -0.1006  0.1356 -0.1221
20248W        W63186  24.339   5.512  31.904 -0.2520  0.0103  0.0111
20249W        W63187  23.194   6.534  30.646  0.4153  0.0832  0.1406
20250W        W63188  23.975   7.851   2.435 -0.0219  0.2243 -0.2208
20251W        W63189  22.906   4.048   2.487 -0.0305  0.3028 -0.1077
20252W        W63190  22.860   7.132   2.044  0.1913  0.0372  0.1417
20253W        W63191  22.604   4.494   3.237 -0.1107  0.0645  0.0979
20254W        W63192  25.825   6.578   2.448  0.0526 -0.0998  0.2638
20255W        W63193  24.995   6.564   1.414  0.1429 -0.1154  0.3008
20256W        W63194  25.202   5.319   2.364  0.2669 -0.2072 -0.3356
20257W        W63195  22.789   6.780   3.350  0.3449 -0.1855  0.2457
20258W        W63196  22.702   5.802   2.572 -0.2869 -0.2081 -0.1798
20259W        W63197  24.071   6.966  31.697  0.0910 -0.0126  0.0944
20260W        W63198  25.668   7.583   0.314 -0.1643 -0.2259  0.0981
20261W        W63199  23.552   7.064  31.901  0.0932  0.0001 -0.2298
20262W        W63200  21.802   6.176   1.045  0.0952 -0.0058  0.2454
20263W        W63201  22.304   6.624   3.854  0.4431 -0.0210  0.3746
20264W        W63202  21.400   6.016   3.156  0.0959  0.0208  0.0253
20265W        W63203  21.935   4.828  30.993 -0.0727 -0.1935  0.0121
20266W        W63204  25.343   6.682   2.496 -0.0508  0.1194  0.2753
20267W        W63205  21.824   6.472   1.848  0.1920  0.0770  0.1819
20268W        W63206  25.267   5.456   1.840 -0.0911 -0.0623 -0.2330
20269W        W63207  23.177   5.050   3.498 -0.2267 -0.0048 -0.0267
20270W        W63208  26.480   7.838   2.054 -0.6401 -0.1571 -0.1210
20271W        W63209  24.681   5.399   0.401  0.1803 -0.0476 -0.2510
20272W        W63210  23.680   3.479   2.221 -0.2983 -0.0172  0.2851
20273W        W63211  25.048   4.086   2.765  0.2557  0.0510 -0.5074
20274W        W63212  22.769   5.272  31.331 -0.0987 -0.3208 -0.0884
20275W        W63213  23.886   5.677   2.379  0.1449  0.2696 -0.2665
20276W        W63214  25.163   8.263   2.289 -0.0741 -0.1585 -0.3186
20277W        W63215  23.808   5.303   0.567 -0.1337 -0.0846  0.3598
20278W        W63216  22.520   7.531   3.090  0.0536 -0.0216 -0.1735
20279W        W63217  24.422   5.442   3.010 -0.0445 -0.2478 -0.0891
20280W        W63218  24.568   6.342   3.049 -0.3596 -0.1456 -0.0261
20281W        W63219  22.770   6.824   0.808  0.3122  0.0125  0.0600
20282W        W63220  21.214   4.692   1.278 -0.1618 -0.3074  0.1798
20283W        W63221  22.052   6.974   1.660 -0.0441 -0.0420 -0.0618
20284W        W63222  23.435   3.933   2.337  0.2584 -0.0299 -0.0118
20285W        W63223  23.300   6.449   3.872 -0.0289 -0.0207  0.0810
20286W        W63224  26.311   4.967  31.202  0.0446 -0.0997 -0.0331
20287W        W63225  22.858   4.706   3.807 -0.4625 -0.0100 -0.2784
20288W        W63226  24.888   3.445   3.059 -0.0727 -0.0872  0.0088
20289W        W63227  23.965   6.413   1.168 -0.0757 -0.0510 -0.0788
20290W        W63228  24.699   6.883   1.140 -0.0407  0.1998 -0.0390
20291W        W63229  24.712   4.827   0.746 -0.0930 -0.0991 -0.0460
20292W        W63230  24.089   7.310   0.835  0.1215 -0.0706  0.0785
20293W        W63231  22.028   5.450   2.715 -0.0490 -0.3317 -0.0767
20294W        W63232  21.572   5.201   1.473  0.0369  0.2775 -0.1562
20295W        W63233  21.063   4.832   4.113 -0.0308 -0.2424  0.2912
20296W        W63234  22.197   5.116   3.392 -0.0676  0.0992 -0.1524
20297W        W63235  24.974   4.553   3.363 -0.2438  0.0235  0.0376
20298W        W63236  23.247   3.771  31.296 -0.2325 -0.1844 -0.1441
20299W        W63237  26.104   6.017   1.854  0.0787 -0.2094  0.1315
20300W        W63238  23.132   5.347   1.392 -0.0304 -0.0446  0.1574
20301W        W63239  21.391   7.002   0.855  0.3507  0.1220 -0.0543
20302W        W63240  25.631   5.179   2.064  0.1885  0.1936 -0.1702
20303W        W63241  24.109   7.542   1.472 -0.0834 -0.3046  0.0160
20304W        W63242  25.698   8.475   4.225 -0.0570  0.2318  0.1759
20305W        W63243  25.429   6.996   0.959  0.0584 -0.0698  0.1142
20306W        W63244  23.538   5.355   2.648 -0.3173  0.2441 -0.0100
20307W        W63245  23.017   4.286  31.403  0.1871  0.1410 -0.0174
20308W        W63246  22.457   7.219   0.906  0.0562  0.2446  0.3341
20309W        W63247  22.472   5.737   2.090  0.0444  0.0327  0.0062
20310W        W63248  23.309   5.139   1.831 -0.0677 -0.0783 -0.1512
20311W        W63249  27.377   6.440   1.462 -0.2167 -0.1344  0.0150
20312W        W63250  23.765   7.179   1.645 -0.2695  0.1539  0.0568
20313W        W63251  22.127   6.094   4.750  0.1066  0.0049  0.1795
20314W        W63252  25.098   3.282   3.635  0.0684  0.1524 -0.0309
20315W        W63253  25.808   5.699   2.875 -0.2321  0.0981  0.3517
20316W        W63254  24.014   5.494   3.451  0.3251  0.4331 -0.0695
20317W        W63255  22.463   4.926  31.877 -0.2249 -0.1430 -0.1952
20318W        W63256  23.350   7.334   1.888  0.0631  0.1572 -0.3113
20319W        W63257  21.317   6.116   1.373 -0.1154 -0.3031  0.2142
20320W        W63258  23.882   6.207  31.867 -0.0862  0.1567 -0.0539
20321W        W63259  25.153   7.072   1.348  0.0279  0.0560 -0.2582
20322W        W63260  25.526   6.059   0.896  0.2433 -0.3597  0.0986
20323W        W63261  22.280   5.240   4.869 -0.0127  0.3244 -0.1193
20324W        W63262  24.224   4.244   4.162 -0.0427 -0.1862 -0.0317
20325W        W63263  22.450   6.066  30.946  0.1663 -0.0650 -0.0310
20326W        W63264  22.299   6.731   4.779  0.0664 -0.1518 -0.2006
20327W        W63265  24.372   4.582   1.827 -0.2131 -0.0643 -0.2141
20328W        W63266  24.436   6.558   2.238  0.1289  0.0846  0.2799
20329W        W63267  22.613   5.912   3.441 -0.0284  0.1385 -0.0811
20330W        W63268  25.705   6.030  31.782  0.4424  0.0911 -0.1072
20331W        W63269  24.169   6.174   1.586  0.2381  0.3860 -0.4108
20332W        W63270  23.095   5.714   0.105  0.2940  0.0079  0.1678
20333W        W63271  21.905   5.540   3.283 -0.1676  0.0451  0.2885
20334W        W63272  23.916   8.190   0.451 -0.0963  0.1047 -0.0124
20335W        W63273  23.462   6.125   3.493  0.1394  0.0023 -0.1674
20336W        W63274  23.928   4.539   1.433 -0.0374 -0.0614  0.3078
20337W        W63275  24.910   7.783   0.221 -0.4325  0.1489 -0.3484
20338W        W63276  21.912   7.382   3.368  0.2256 -0.2441 -0.1285
20339W        W63277  23.694   5.915   3.161 -0.0001  0.1669  0.0257
20340W        W63278  26.269   8.122   0.933 -0.3068 -0.3664  0.1644
20341W        W63279  23.595   4.842   3.235 -0.0595  0.0131  0.1669
20342W        W63280  24.271   6.283   0.806 -0.1294 -0.0060 -0.3571
20343W        W63281  22.519   4.124   1.593 -0.1703 -0.2045 -0.0225
20344W        W63282  21.073   8.527  31.901  0.0534 -0.0826 -0.2674
20345W        W63283  25.192   6.554   0.925 -0.0342 -0.0521 -0.0171
20346W        W63284  24.432   4.445   3.259  0.1783  0.1334  0.1251
20347W        W63285  24.853   5.363   3.604  0.1502  0.2253  0.0571
20348W        W63286  24.875   3.720   3.611 -0.0203  0.0793 -0.1367
20349W        W63287  25.045   7.533   1.475 -0.0539  0.2169  0.0589
20350W        W63288  23.927   6.825   2.217  0.3568  0.0156 -0.2963
20351W        W63289  22.049   5.800  30.634  0.0352  0.0726 -0.0597
20352W        W63290  25.228   4.426   2.480  0.0791  0.0659 -0.0999
20353W        W63291  21.351   5.726   2.154 -0.2107 -0.1075 -0.0320
20354W        W63292  22.002   7.827   3.086  0.2655  0.0418  0.0043
20355W        W63293  24.124   6.428   4.436 -0.0010  0.0560  0.3816
20356W        W63294  24.209   6.673   0.059  0.2264  0.2011 -0.0143
20357W        W63295  24.321   5.059   1.999 -0.0375  0.0945 -0.0203
20358W        W63296  23.439   5.554   0.935 -0.1666  0.0520  0.1877
20359W        W63297  22.892   7.348   0.607 -0.0977  0.0924  0.2589
20360W        W63298  22.171   7.917   0.296 -0.0935 -0.3936  0.0051
20361W        W63299  23.096   5.060   2.965 -0.1117 -0.1381 -0.0512
20362W        W63300  23.884   7.440   3.237 -0.2594  0.2906  0.2190
20363W        W63301  23.832   7.753  31.521 -0.1869 -0.0043 -0.4126
20364W        W63302  23.579   7.036   3.382 -0.1022  0.1266 -0.4039
20365W        W63303  22.744   6.525   1.273  0.0836 -0.1505  0.1811
20366W        W63304  25.472   3.619   1.985  0.1297  0.3088  0.1065
20367W        W63305  21.831   5.868   2.036 -0.1349  0.1982 -0.0952
20368W        W63306  24.209   6.101   0.206  0.0262  0.1561  0.3338
20369W        W63307  22.219   4.506   0.523  0.0192  0.1493  0.1522
20370W        W63308  24.164   4.187   1.645 -0.0894 -0.1962  0.0724
20371W        W63309  25.875   6.329  30.668  0.1692  0.5590 -0.3215
20372W        W63310  22.090   3.817   3.630 -0.2861  0.4264  0.1383
20373W        W63311  24.493   3.375   2.709 -0.0993  0.0461 -0.3554
20374W        W63312  21.646   7.440   1.015  0.3661  0.0204  0.5170
20375W        W63313  24.750   6.233   3.504  0.0501 -0.1213 -0.0990
20376W        W63314  24.696   5.232   2.295 -0.0891 -0.1636 -0.0187
20377W        W63315  23.445   4.842   2.763 -0.0092 -0.3062  0.3119
20378W        W63316  21.423   4.387   4.104 -0.1812 -0.4794 -0.2380
20379W        W63317  21.577   5.943  30.985 -0.2849  0.1806  0.1513
20380W        W63318  25.900   6.478   1.851  0.1362 -0.3892  0.2346
20381W        W63319  22.836   4.090   2.974 -0.0551  0.0240  0.0116
20382W        W63320  21.929   5.498   1.622  0.1331 -0.0423 -0.1029
20383W        W63321  23.541   6.578   2.488  0.0984 -0.2322 -0.1692
20384W        W63322  22.464   5.318   1.241 -0.1449  0.1687 -0.0061
20385W        W63323  22.219   6.412   0.794 -0.1246 -0.2397 -0.1433
20386W        W63324  24.122   3.378   3.043 -0.2815  0.2263 -0.4864
20387W        W63325  24.837   6.285   2.137 -0.1403 -0.2063  0.0362
20388W        W63326  24.575   5.906   1.202 -0.0328  0.0341 -0.2300
20389W        W63327  22.337   4.913   2.917 -0.0031  0.0615 -0.0061
20390W        W63328  23.930   5.629   2.853 -0.1676  0.2302  0.3686
20391W        W63329  24.670   7.962   1.930 -0.0464 -0.0369  0.3522
20392W        W63330  24.356   5.381   1.251 -0.1988 -0.2215  0.0428
20393W        W63331  23.448   5.672   4.552 -0.0849 -0.0790  0.3319
20394W        W63332  23.816   4.550   2.913  0.2086 -0.3987 -0.0182
20395W        W63333  25.431   7.794  30.598  0.0448  0.0283 -0.0669
20396W        W63334  26.133   5.332   3.034 -0.3003 -0.0780  0.2038
20397W        W63335  22.703   6.904   0.280  0.1578  0.0398  0.3949
20398W        W63336  21.449   5.738   1.637  0.0957 -0.0881 -0.0113
20399W        W63337  22.268   6.154   1.850 -0.2110 -0.1322  0.2644
20400W        W63338  24.922   4.806   2.509  0.4444  0.4724 -0.1316
20401W        W63339  22.309   7.811   2.736  0.1570 -0.0132 -0.1811
20402W        W63340  22.882   7.193   1.196  0.2500  0.0425 -0.0979
20403W        W63341  21.515   7.184   2.416 -0.1156 -0.0629  0.2720
20404W        W63342  25.577   4.904   1.669  0.0601  0.1769  0.1328
20405W        W63343  23.226   9.044  31.808 -0.2109 -0.0784  0.1959
20406W        W63344  24.635   5.510   1.900 -0.0275 -0.0922 -0.0802
20407W        W63345  25.719   4.374   1.712 -0.4501  0.0679 -0.1082
20408W        W63346  23.421   6.443   0.587  0.0801  0.0743 -0.1617
20409W        W63347  25.830   2.721   4.302 -0.2624  0.0402  0.1002
20410W        W63348  23.259   4.375   2.639  0.1679 -0.0910 -0.2001
20411W        W63349  26.201   7.378   1.985 -0.4454 -0.1079  0.0511
20412W        W63350  22.243   5.508   3.777 -0.1792  0.2477  0.1049
20413W        W63351  25.545   7.114   3.113 -0.1379  0.1532  0.1065
20414W        W63352  20.832   4.413   2.773  0.1754 -0.3271  0.0887
20415W        W63353  24.002   5.913   1.154  0.0512  0.0165  0.0119
20416W        W63354  23.877   5.420   1.084 -0.0189 -0.0455 -0.0280
20417W        W63355  23.323   6.289   1.993 -0.0297  0.0534  0.0205
20418W        W63356  24.696   6.104   2.637  0.0736 -0.2386  0.2057
20419W        W63357  23.086   7.230   0.045 -0.2397  0.0489 -0.3116
20420W        W63358  25.392   5.288   1.230 -0.0454 -0.2655  0.3062
20421W        W63359  21.863   5.931   2.991  0.1448  0.2163 -0.2882
20422W        W63360  24.707   6.422   0.835 -0.0221  0.0981  0.1420
20423W        W63361  23.641   6.563   3.355  0.1589 -0.2041  0.1093
20424W        W63362  22.608   6.224   2.256 -0.2034 -0.1453  0.0153
20425W        W63363  24.007   3.604   3.524  0.0739 -0.0265 -0.2870
20426W        W63364  24.282   7.061   1.436  0.2302  0.4184  0.0555
20427W        W63365  25.864   3.793   1.642  0.2860 -0.0785 -0.1205
20428W        W63366  24.607   3.284   3.707 -0.5027  0.1825  0.0835
20429W        W63367  24.743   4.504   2.905  0.2347 -0.1027  0.3328
20430W        W63368  23.395   4.649   3.650  0.1964 -0.3032 -0.2594
20431W        W63369  22.489   3.694   2.278  0.0581  0.1075  0.0432
20432W        W63370  25.793   9.080   2.461  0.3664  0.2518 -0.0634
20433W        W63371  25.031   5.444   0.069  0.0086  0.0901  0.2158
20434W        W63372  24.750   4.983   1.749 -0.0632 -0.0661  0.0025
20435W        W63373  25.311   6.811   0.505 -0.2762 -0.2308  0.1259
20436W        W63374  23.158   4.343   2.118  0.0660  0.1241 -0.0483
20437W        W63375  22.973   5.853   2.154 -0.1495  0.0546 -0.0545
20438W        W63376  24.693   4.971   3.218  0.1810  0.1853 -0.0645
20439W        W63377  23.524   4.598   1.134 -0.1661  0.1732  0.2429
20440W        W63378  24.322   2.577   3.279 -0.0218 -0.1985  0.0327
20441W        W63379  23.213   8.532  31.832  0.1083  0.1732 -0.0368
20442W        W63380  24.689   6.070   1.662  0.2339 -0.2188 -0.1092
20443W        W63381  23.478   4.636   1.681  0.0667  0.3483 -0.0169
20444W        W63382  22.513   4.857   2.339 -0.0798 -0.2785  0.0366
20445W        W63383  23.046   6.739   4.182  0.0255  0.3985 -0.0650
20446W        W63384  23.583   6.002  31.242  0.0790  0.2615  0.0802
20447W        W63385  22.011   5.814   0.498  0.1649  0.0186  0.0914
20448W        W63386  24.237   5.892   3.193 -0.1786 -0.1760 -0.1114
20449W        W63387  26.293   6.047   5.099 -0.4988 -0.0356  0.3674
20450W        W63388  23.592   5.092   1.339  0.0353 -0.0647 -0.0233
20451W        W63389  25.706   5.351   2.571  0.1623 -0.0495  0.0466
20452W        W63390  21.898   6.025   1.548  0.2609 -0.2863  0.1942
20453W        W63391  24.351   4.731   2.383 -0.0994  0.0433  0.1814
20454W        W63392  22.059   8.396   2.436 -0.0724  0.1202 -0.2459
20455W        W63393  21.735   6.351   3.309  0.0979 -0.3709  0.1273
20456W        W63394  22.517   7.012   2.391  0.0757  0.1804 -0.2516
20457W        W63395  24.895   3.816   1.428 -0.1247 -0.1809  0.0777
20458W        W63396  24.823   5.227   2.786  0.2288  0.1914  0.3405
20459W        W63397  22.625   6.524   2.660  0.2368  0.1529  0.1424
20460W        W63398  25.624   4.927   3.078  0.1167  0.0276 -0.0677
20461W        W63399  22.789   6.576   3.794 -0.0092  0.3657  0.1034
20462W        W63400  23.180   5.834   2.951 -0.0705  0.0172 -0.1815
20463W        W63401  25.009   5.719   2.642  0.0040  0.2237  0.1799
20464W        W63402  25.270   7.174   1.917 -0.0012  0.1286 -0.1196
20465W        W63403  22.054   6.678   3.136  0.0607  0.0138 -0.1805
20466W        W63404  20.895   4.848   3.198 -0.2162  0.2333 -0.2004
20467W        W63405  23.943   3.775   3.969  0.1457  0.0602  0.0706
20468W        W63406  23.926   6.365   2.064  0.3249 -0.1487  0.2054
20469W        W63407  23.076   5.439   2.537  0.3094 -0.1898  0.1955
20470W        W63408  23.703   6.881   0.695  0.4327 -0.0246  0.1861
20471W        W63409  21.677   7.721   3.893  0.0186  0.2664 -0.1695
20472W        W63410  22.429   6.415   3.414  0.1574 -0.0901  0.3239
20473W        W63411  22.672   7.590  31.598  0.2559 -0.0180 -0.0088
20474W        W63412  24.801   9.118   0.466  0.1338  0.3031  0.2884
20475W        W63413  23.788   7.126   1.185 -0.4050  0.1537 -0.2065
20476W        W63414  22.714   7.419   1.653 -0.2393  0.2577  0.0942
20477W        W63415  23.625   5.551   1.510 -0.0243 -0.2793  0.0528
20478W        W63416  23.163   6.745   2.807 -0.1536 -0.1437  0.1801
20479W        W63417  22.317   6.887   0.572 -0.1659 -0.3660  0.4301
20480W        W63418  24.535   6.393   1.294  0.0744  0.1490  0.1671
20481W        W63419  22.107   8.194   1.495  0.5322 -0.1077 -0.2871
20482W        W63420  26.187   6.119   2.870  0.0813  0.5435  0.1700
20483W        W63421  24.767   4.507   1.407 -0.1932  0.4358 -0.2024
20484W        W63422  27.134   6.413   2.412  0.3891  0.2667  0.3077
20485W        W63423  26.520   5.592   1.816 -0.0548 -0.1260 -0.0123
20486W        W63424  25.531   7.172   2.603  0.2886 -0.0342  0.2446
20487W        W63425  23.565   5.706   3.811  0.2911  0.1742 -0.0011
20488W        W63426  25.081   6.274   0.557  0.1682  0.0923 -0.1009
20489W        W63427  21.183   4.747   2.476  0.0546 -0.0521 -0.1047
20490W        W63428  24.335   4.347   4.623  0.3437  0.1021  0.0581
20491W        W63429  22.686   7.008   3.997 -0.2565 -0.2262 -0.3980
20492W        W63430  25.797   7.090   0.515  0.3014  0.3995 -0.2434
20493W        W63431  22.921   5.226   0.131  0.0725  0.3873  0.0581
20494W        W63432  23.489   6.031   2.620 -0.0531  0.0803  0.0027
20495W        W63433  25.577   3.931   2.814 -0.0063 -0.1646 -0.0355
20496W        W63434  22.982   6.418   0.543 -0.4129 -0.2394 -0.2024
20497W        W63435  25.178   4.892   1.431 -0.0068  0.0316  0.0212
20498W        W63436  23.235   6.646   1.040 -0.0706  0.2683  0.0348
20499W        W63437  21.592   6.302   2.758  0.0365  0.2428  0.1416
20500W        W63438  23.462   6.802   1.922 -0.2005  0.2016 -0.0837
20501W        W63439  22.920   4.126  30.153 -0.0926  0.4008  0.0122
20502W        W63440  24.306   5.251   0.737 -0.0026 -0.0352 -0.2545
20503W        W63441  23.078   4.570   3.051  0.0405 -0.0752  0.0473
20504W        W63442  25.003   4.761   3.790  0.1899  0.2169 -0.1642
20505W        W63443  21.638   5.659   1.194  0.1348  0.1212  0.1141
20506W        W63444  25.935   5.581   2.027 -0.2887 -0.0903 -0.2729
20507W        W63445  24.042   4.150   3.094 -0.0435 -0.1074 -0.1468
20508W        W63446  22.737   5.473   2.993 -0.0512  0.2618 -0.1612
20509W        W63447  25.057   6.093   1.226  0.0668 -0.0786 -0.0900
20510W        W63448  25.430   4.642   3.531 -0.2585 -0.3192  0.0318
20511W        W63449  25.002   7.261   0.165 -0.1821  0.0054 -0.2768
20512W        W63450  23.447   7.449   3.006 -0.0054 -0.0069  0.0625
20513W        W63451  22.464   5.967   0.813  0.1884 -0.1874 -0.3242
20514W        W63452  23.708   4.281   1.904  0.0688  0.0354 -0.1403
20515W        W63453  23.317   6.123   0.231 -0.2077 -0.0073 -0.0223
20516W        W63454  23.872   4.869   2.485  0.0141  0.2626 -0.1911
20517W        W63455  25.624   5.689   3.754  0.1523 -0.0704 -0.1443
20518W        W63456  22.745   4.941   3.287 -0.2349 -0.1663 -0.0544
20519W        W63457  24.295   8.934  30.631  0.2689  0.0550  0.1599
20520W        W63458  26.574   7.963   2.627 -0.0649  0.0022  0.0125
20521W        W63459  23.615   7.881   0.210  0.0976  0.2850  0.5122
20522W        W63460  24.344   7.070   1.954  0.1576 -0.3528  0.1398
20523W        W63461  24.647   7.413   2.843  0.0522 -0.0879 -0.1243
20524W        W63462  22.027   5.013   2.480  0.0278  0.0638  0.1024
20525W        W63463  24.873   7.841   2.425 -0.0851  0.0356  0.0135
20526W        W63464  25.281   7.553   2.371 -0.1150 -0.2596  0.1350
20527W        W63465  23.053   4.823   1.301  0.0110 -0.1834 -0.0730
20528W        W63466  22.796   6.179   1.694  0.1065  0.0491  0.0071
20529W        W63467  23.094   6.922   1.632  0.1402 -0.1780 -0.3650
20530W        W63468  26.793   5.487   2.411 -0.0252 -0.3274  0.0236
20531W        W63469  26.870   2.830   1.892 -0.0087 -0.0076 -0.4946
20532W        W63470  23.001   7.985  31.835 -0.1195  0.1746 -0.0809
20533W        W63471  25.489   3.491   3.433 -0.1766  0.3463 -0.1522
20534W        W63472  24.560   6.718   1.687  0.3467 -0.3129  0.2004
20535W        W63473  22.575   7.137   6.228  0.0387 -0.2721 -0.3186
20536W        W63474  22.884   5.937   0.524  0.0038  0.0218 -0.2459
20537W        W63475  23.978   5.609   4.510  0.0626  0.1903 -0.2347
20538W        W63476  22.778   6.648   2.000  0.1617  0.0969 -0.0029
20539W        W63477  23.256   7.101   0.881 -0.0201  0.0316  0.1210
20540W        W63478  25.567   7.912   1.500  0.0203  0.0205 -0.0899
20541W        W63479  25.566   5.922   1.901  0.1522 -0.1918 -0.0205
20542W        W63480  26.559   8.506   2.649 -0.3002  0.0133  0.2198
20543W        W63481  23.444   5.378   3.175  0.1686  0.1538 -0.3759
20544W        W63482  25.375   3.908   1.610 -0.1945 -0.3137  0.0419
20545W        W63483  23.682   4.376   2.399 -0.0412  0.0391 -0.0644
20546W        W63484  22.228   4.636   3.602  0.1454 -0.1755 -0.0350
20547W        W63485  21.869   5.155  30.583 -0.3726 -0.1438  0.4173
20548W        W63486  23.300   5.926   1.292 -0.3407 -0.3564 -0.1123
20549W        W63487  22.345   5.763   3.023  0.1197 -0.0983 -0.0433
20550W        W63488  25.029   4.014   2.179 -0.1159  0.3633  0.2716
20551W        W63489  22.188   4.470   2.834  0.1937  0.0640 -0.0353
20552W        W63490  21.480   5.003   0.210 -0.1551 -0.2174  0.2033
20553W        W63491  24.252   5.687   1.637  0.0187 -0.0436 -0.1413
20554W        W63492  24.697   5.834   0.179 -0.0780  0.2465 -0.2168
20555W        W63493  23.957   6.010   3.667  0.2314 -0.3292  0.0649
20556W        W63494  22.490   5.349   2.564  0.2373  0.2321 -0.0866
20557W        W63495  24.085   6.551   0.481  0.1086  0.0132 -0.0297
20558W        W63496  25.971   6.863  31.629  0.1255  0.0192 -0.1137
20559W        W63497  22.961   4.474   1.666 -0.1181  0.0678 -0.1314
20560W        W63498  25.224   8.101   3.289  0.1053 -0.0827  0.0254
20561W        W63499  21.363   7.267  31.874 -0.1187 -0.0321 -0.0765
20562W        W63500  22.550   5.061   3.786  0.0653 -0.1767 -0.2328
20563W        W63501  23.752   4.272   4.290  0.5597  0.1517 -0.1773
20564W        W63502  20.355   3.960   1.836  0.0263 -0.0082  0.0994
20565W        W63503  23.502   4.244   3.263  0.0174  0.0479 -0.1464
20566W        W63504  23.703   7.678   1.747 -0.1436  0.1986  0.0731
20567W        W63505  26.058   4.724   1.453  0.2804 -0.0111 -0.0320
20568W        W63506  23.382   6.047   4.172  0.0420  0.2449 -0.2029
20569W        W63507  23.161   6.434   3.304  0.0622  0.1946 -0.2503
20570W        W63508  21.836   4.064   2.564  0.0900 -0.0499 -0.1806
20571W        W63509  25.991   6.179   0.801 -0.1201  0.0104 -0.1507
20572W        W63510  23.029   5.731   3.950  0.1897  0.0320 -0.0025
20573W        W63511  24.842   7.190  31.649 -0.1246 -0.0309 -0.1318
20574W        W63512  25.918   3.041   0.248  0.0211 -0.2149 -0.3265
20575W        W63513  24.367   5.981   2.120  0.2196 -0.0574  0.0208
20576W        W63514  21.391   3.778   2.940  0.1987 -0.0541 -0.1013
20577W        W63515  22.786   6.218   3.077  0.0840 -0.1728  0.3649
20578W        W63516  24.385   5.674   2.513  0.0273  0.2288 -0.3310
20579W        W63517  23.076   4.941   2.458  0.1933 -0.0133 -0.0698
20580W        W63518  25.331   5.779   1.452  0.2621  0.1237 -0.0500
20581W        W63519  23.659   6.845   2.924  0.1390 -0.1475  0.0169
20582W        W63520  22.019   5.020   1.911  0.0056 -0.3093  0.0211
20583W        W63521  23.267   5.874   1.769 -0.1466 -0.0906 -0.0789
20584W        W63522  24.836   5.822   3.225 -0.0904  0.2524  0.0642
20585W        W63523  23.697   6.191   1.548 -0.0605 -0.1694  0.1234
20586W        W63524  25.668   5.466   1.606  0.2326 -0.2773  0.1799
20587W        W63525  23.873   5.148   2.923  0.0627 -0.1505 -0.2578
20588W        W63526  25.966   7.594   1.265  0.1358 -0.1652 -0.0035
20589W        W63527  24.402   7.314   3.377  0.0816  0.0702 -0.0350
20590W        W63528  24.041   6.965   3.204 -0.0506  0.1840 -0.0882
20591W        W63529  22.391   7.097   3.312 -0.0050  0.0311 -0.0400
20592W        W63530  25.605   7.506   1.777 -0.0857 -0.1124 -0.1583
20593W        W63531  24.008   3.742   2.714 -0.0400  0.0051  0.0623
20594W        W63532  23.303   5.993   0.710 -0.0926  0.0607  0.0850
20595W        W63533  23.453   5.583   2.169  0.0979 -0.1398 -0.0520
20596W        W63534  26.931   5.301   1.871  0.1754  0.1905  0.0188
20597W        W63535  22.754   5.100   0.922  0.1648  0.0677  0.1100
20598W        W63536  25.021   3.492   0.113 -0.1695 -0.0371  0.3141
20599W        W63537  22.286   7.725   1.707 -0.3290 -0.0766  0.1051
20600W        W63538  24.182   5.224   2.482  0.1049  0.2230 -0.0404
20601W        W63539  22.226   4.667   7.160  0.0287 -0.2057 -0.3475
20602W        W63540  22.579   4.738   5.381 -0.1647 -0.2393 -0.0843
20603W        W63541  25.074   4.919   4.697 -0.0157 -0.0870 -0.3445
20604W        W63542  25.477   5.318   4.603  0.0185  0.1959 -0.0578
20605W        W63543  23.346   4.911   4.717 -0.0211 -0.0181 -0.0759
20606W        W63544  25.610   7.796   5.475  0.2278  0.0270 -0.2273
20607W        W63545  22.954   4.227   8.391  0.0756 -0.1577  0.2008
20608W        W63546  23.519   6.583   4.892 -0.0608 -0.1442 -0.0130
20609W        W63547  25.816   6.827   5.695 -0.2574  0.1327  0.0625
20610W        W63548  23.625   4.101   3.705  0.3854  0.1506 -0.2054
20611W        W63549  23.226   5.992   6.954 -0.1430  0.2902 -0.3257
20612W        W63550  21.084   7.140   8.216 -0.0325 -0.0433 -0.1258
20613W        W63551  22.223   4.366   4.581 -0.0047 -0.2944  0.1089
20614W        W63552  23.529   3.498   7.473 -0.1393  0.1437 -0.1698
20615W        W63553  24.862   4.791   5.599 -0.3130 -0.0415  0.2713
20616W        W63554  22.423   5.690   5.117  0.1104 -0.0971  0.2565
20617W        W63555  23.343   4.994   6.339 -0.1817  0.5145  0.1094
20618W        W63556  24.087   4.573   5.254  0.1084 -0.1160 -0.0747
20619W        W63557  23.227   6.558   5.729 -0.1488  0.0291 -0.1398
20620W        W63558  23.292   4.755   7.168 -0.2894  0.2164 -0.1997
20621W        W63559  24.345   3.735   9.020 -0.3544 -0.0138  0.0430
20622W        W63560  24.070   6.454   5.705 -0.2359  0.1624  0.5247
20623W        W63561  22.081   6.410   4.258  0.0357 -0.0292 -0.2436
20624W        W63562  21.337   3.836   5.731 -0.0123  0.2730 -0.1390
20625W        W63563  23.222   5.027   5.210  0.0965  0.2804 -0.1707
20626W        W63564  24.036   5.592   8.517  0.1769  0.1942 -0.1324
20627W        W63565  24.516   5.481   4.601  0.2587  0.0443  0.2811
20628W        W63566  25.443   7.227   4.702  0.0167  0.1705  0.2887
20629W        W63567  22.980   6.902   5.893 -0.3023  0.1673  0.0800
20630W        W63568  24.938   5.467   5.951 -0.0082 -0.0551 -0.1186
20631W        W63569  21.364   4.791   4.908  0.0187 -0.2319  0.0077
20632W        W63570  23.281   7.634   5.025 -0.0572  0.4181 -0.1789
20633W        W63571  23.086   6.322   4.621 -0.1347 -0.1278 -0.2683
20634W        W63572  24.969   7.648   3.257 -0.1008 -0.1290 -0.1257
20635W        W63573  26.197   5.757   5.852 -0.2322 -0.1399 -0.2242
20636W        W63574  23.419   7.364   6.920 -0.0024  0.0699  0.0031
20637W        W63575  23.053   6.288   2.528 -0.3238 -0.1043 -0.0719
20638W        W63576  24.580   6.620   7.257 -0.0913 -0.3983 -0.1317
20639W        W63577  23.969   6.852   5.028 -0.1570 -0.0090 -0.2207
20640W        W63578  24.153   6.633   6.309 -0.1977 -0.2773 -0.1366
20641W        W63579  24.038   6.986   5.572  0.2770  0.0512  0.0288
20642W        W63580  24.433   5.857   3.615 -0.1107  0.0293 -0.0372
20643W        W63581  24.056   5.924   5.896 -0.0189 -0.0629 -0.0745
20644W        W63582  24.181   5.603   7.187  0.0008 -0.1451  0.0106
20645W        W63583  22.021   5.914   7.099  0.1950 -0.0000 -0.1775
20646W        W63584  26.848   5.066   8.899 -0.1376  0.0649 -0.3155
20647W        W63585  22.766   7.102   4.459  0.0273  0.2838  0.1001
20648W        W63586  23.910   4.557   3.920  0.1495 -0.0047  0.1251
20649W        W63587  23.549   3.830   4.664 -0.0000  0.0574  0.0528
20650W        W63588  24.110   6.011   4.791 -0.4062  0.3259  0.1155
20651W        W63589  22.746   3.183   5.375 -0.0330  0.0991  0.0237
20652W        W63590  22.033   7.982   6.889 -0.1681 -0.1316  0.0747
20653W        W63591  23.935   5.055   5.658  0.0017 -0.1391  0.1293
20654W        W63592  26.720   5.219   7.210  0.2078 -0.1360 -0.0598
20655W        W63593  23.579   4.815   4.255  0.3636  0.2280  0.0750
20656W        W63594  24.733   5.316   6.402  0.0602 -0.0952 -0.0056
20657W        W63595  22.349   7.218   7.098 -0.0728 -0.2680 -0.0670
20658W        W63596  22.869   5.188   5.672  0.2099  0.1430 -0.0607
20659W        W63597  24.860   5.797   3.826  0.3284 -0.1462 -0.0953
20660W        W63598  26.232   7.884   4.663 -0.2004 -0.0773  0.2076
20661W        W63599  23.169   6.840   4.656 -0.3665  0.0909  0.1033
20662W        W63600  22.044   5.921   3.980  0.2052  0.0995 -0.0690
20663W        W63601  22.031   5.121   7.323 -0.4160 -0.2513  0.1610
20664W        W63602  23.209   4.846   7.709 -0.0529  0.0419  0.2148
20665W        W63603  22.454   3.264   3.671 -0.1501 -0.3329 -0.2901
20666W        W63604  25.650   7.701   6.946  0.3449  0.1580  0.1740
20667W        W63605  22.072   7.208   7.578 -0.4677 -0.3003 -0.2310
20668W        W63606  24.650   4.320   5.815 -0.1343  0.1023 -0.0207
20669W        W63607  23.308   6.446   6.755 -0.1180  0.3335  0.0057
20670W        W63608  25.770   6.082   5.071  0.2750  0.0674 -0.0086
20671W        W63609  23.022   5.257   3.928  0.0626  0.0020 -0.0926
20672W        W63610  24.365   4.602   7.199 -0.1055  0.0316  0.0146
20673W        W63611  23.961   3.828   7.535 -0.0296 -0.0006 -0.2335
20674W        W63612  22.050   4.545   4.074  0.1144  0.1225 -0.0678
20675W        W63613  22.739   6.674   4.948  0.2097  0.0616 -0.1620
20676W        W63614  25.718   6.498   6.146  0.4339 -0.1811 -0.1415
20677W        W63615  24.077   5.593   3.965 -0.1573  0.3815  0.0692
20678W        W63616  22.493   5.966   6.489  0.2686 -0.1412  0.0408
20679W        W63617  23.469   5.068   6.846 -0.0602 -0.0277  0.3994
20680W        W63618  21.945   7.469   6.975  0.1073  0.0010 -0.0856
20681W        W63619  22.400   8.054   3.313  0.3262  0.0802  0.1509
20682W        W63620  22.443   5.289   6.572 -0.0000 -0.3937 -0.1147
20683W        W63621  22.847   6.014   5.367  0.0439  0.0988 -0.1302
20684W        W63622  21.993   4.288   7.536 -0.2980  0.2562  0.0497
20685W        W63623  22.818   6.438   7.731  0.0659 -0.0150 -0.1939
20686W        W63624  24.689   5.282   5.518  0.2106  0.2509 -0.0735
20687W        W63625  21.285   3.638   8.103 -0.1006 -0.1261  0.1079
20688W        W63626  25.005   4.337   5.461 -0.1516  0.3600  0.1114
20689W        W63627  22.934   5.818   4.421  0.2668 -0.1615  0.2814
20690W        W63628  25.267   9.174   4.976 -0.0965  0.2322  0.2058
20691W        W63629  25.850   4.484   3.269  0.1663 -0.0457  0.2624
20692W        W63630  25.632   6.192   4.393 -0.1793 -0.1917 -0.0651
20693W        W63631  21.542   4.744   5.696  0.0206  0.0221  0.1576
20694W        W63632  22.884   3.975   5.150  0.1279 -0.0663 -0.2358
20695W        W63633  23.682   5.474   7.294  0.2613 -0.2656  0.1698
20696W        W63634  22.722   5.027   6.238  0.0105 -0.1669 -0.0427
20697W        W63635  24.626   6.525   5.532 -0.2877  0.2297 -0.1013
20698W        W63636  22.552   3.791   4.363 -0.0980 -0.0342 -0.0114
20699W        W63637  23.470   4.505   6.133  0.0544  0.2358 -0.2856
20700W        W63638  23.094   4.474   6.500 -0.3123  0.1332 -0.0781
20701W        W63639  21.827   6.640   6.628 -0.0877 -0.0254 -0.0235
20702W        W63640  25.931   5.057   6.859 -0.0435 -0.0131 -0.0489
20703W        W63641  25.207   6.444   3.858 -0.0036  0.1005  0.0200
20704W        W63642  24.688   7.784   5.830 -0.0940  0.0949  0.1279
20705W        W63643  25.836   7.000   3.505  0.1577 -0.0985  0.2327
20706W        W63644  22.568   4.400   7.453 -0.0670 -0.4735  0.2021
20707W        W63645  23.094   4.386   5.490 -0.1132 -0.1399 -0.1574
20708W        W63646  21.947   6.973   6.161 -0.1282 -0.0307 -0.0978
20709W        W63647  23.639   6.796   5.922 -0.2694 -0.0404  0.1738
20710W        W63648  23.052   4.187   5.995  0.1911 -0.0181  0.0161
20711W        W63649  25.320   7.590   5.109 -0.0002 -0.2414 -0.1010
20712W        W63650  23.893   4.468   6.348 -0.1098 -0.2315  0.1167
20713W        W63651  22.650   5.630   5.690 -0.1695  0.2871 -0.1379
20714W        W63652  24.958   4.803   6.533  0.1373  0.1478 -0.1597
20715W        W63653  26.186   5.438   6.188 -0.0885 -0.2913 -0.4546
20716W        W63654  23.128   6.377   5.129 -0.1533 -0.1337  0.0553
20717W        W63655  22.174   4.065   4.085  0.2084 -0.4591  0.1141
20718W        W63656  24.876   5.865   4.332  0.2196  0.0093  0.0051
20719W        W63657  24.323   8.096   4.436 -0.3437  0.0762  0.1644
20720W        W63658  22.450   5.217   5.351 -0.1585  0.1214  0.3052
20721W        W63659  23.831   6.428   3.942 -0.1866  0.0286 -0.2949
20722W        W63660  25.609   4.250   5.620 -0.0670  0.4382  0.3109
20723W        W63661  21.514   5.472   7.973  0.0542 -0.1220 -0.0091
20724W        W63662  23.977   4.990   6.640 -0.0215 -0.2853 -0.1472
20725W        W63663  20.571   4.770   4.308 -0.0552  0.2862 -0.0981
20726W        W63664  22.752   6.095   8.163  0.1591  0.0944 -0.2877
20727W        W63665  24.699   3.809   4.722 -0.1171  0.0753  0.0773
20728W        W63666  24.786   5.138   5.060 -0.2150 -0.1312 -0.0737
20729W        W63667  25.691   5.909   5.579 -0.0532  0.1796 -0.0094
20730W        W63668  26.629   6.877   6.283 -0.0120 -0.2047  0.2791
20731W        W63669  23.930   4.554   3.418  0.1145 -0.0692 -0.3017
20732W        W63670  22.766   2.774   2.765  0.3037 -0.0269 -0.0698
20733W        W63671  21.275   5.650   5.714  0.1282 -0.4092  0.2420
20734W        W63672  23.629   6.278   5.792  0.1272 -0.2119 -0.1670
20735W        W63673  22.782   6.238   6.874 -0.1710  0.0384 -0.0623
20736W        W63674  24.464   3.864   3.899 -0.0020 -0.1032  0.0768
20737W        W63675  25.447   6.597   3.447 -0.0329  0.2637 -0.1274
20738W        W63676  21.702   8.216   6.441 -0.0264 -0.0767  0.1051
20739W        W63677  23.887   6.040   8.538  0.1613  0.1551 -0.0009
20740W        W63678  23.601   6.141   4.682 -0.3437  0.0431  0.2324
20741W        W63679  23.625   3.566   6.673  0.0374 -0.3370  0.0120
20742W        W63680  23.051   4.299   3.564 -0.0514 -0.0272  0.1692
20743W        W63681  22.563   4.384   5.043 -0.0429  0.0027 -0.1789
20744W        W63682  23.304   7.888   3.701 -0.0247  0.0048 -0.0730
20745W        W63683  24.189   4.104   5.561 -0.0336  0.0841 -0.1499
20746W        W63684  23.031   1.676   6.802  0.1296 -0.0222  0.0480
20747W        W63685  22.919   3.410   7.534  0.1414 -0.0821 -0.1957
20748W        W63686  25.310   4.821   8.238  0.2616  0.2856 -0.1075
20749W        W63687  25.421   5.177   5.170 -0.0996  0.0277  0.2595
20750W        W63688  23.676   4.658   5.670 -0.2135 -0.1626 -0.2790
20751W        W63689  21.832   4.698   3.211 -0.1962  0.1109 -0.0867
20752W        W63690  24.676   3.951   5.319  0.3544  0.0059  0.0018
20753W        W63691  22.322   5.295   5.816 -0.3961  0.2096 -0.1002
20754W        W63692  21.522   7.544   5.815  0.1157 -0.3672  0.0833
20755W        W63693  25.595   6.453   5.380  0.1466 -0.1279  0.3991
20756W        W63694  24.783   6.047   5.416 -0.3875  0.2148  0.0375
20757W        W63695  24.846   4.800   7.972  0.2541 -0.2698 -0.1694
20758W        W63696  22.986   4.628   5.028  0.1815  0.0566 -0.0460
20759W        W63697  23.180   7.454   4.547  0.0965 -0.1077  0.1533
20760W        W63698  25.038   7.186   5.127 -0.0980  0.3119  0.0618
20761W        W63699  22.776   3.708   5.703 -0.2557 -0.0567  0.1065
20762W        W63700  25.195   6.422   5.911 -0.2040 -0.2311  0.1111
20763W        W63701  24.107   6.401   3.411  0.0898 -0.0107 -0.3067
20764W        W63702  24.288   7.097   7.242  0.0258 -0.3210 -0.2080
20765W        W63703  24.988   7.639   4.142  0.0649  0.2012 -0.0794
20766W        W63704  24.996   3.587   6.196 -0.0692 -0.0949  0.1571
20767W        W63705  19.994   6.545   6.265  0.0785 -0.1001  0.0391
20768W        W63706  22.737   5.449   3.539  0.2555  0.0725 -0.0937
20769W        W63707  21.699   4.236   5.707 -0.2659  0.3350 -0.1003
20770W        W63708  24.299   5.055   5.249 -0.0451 -0.1328  0.3109
20771W        W63709  25.205   6.002   3.520  0.0295  0.1249 -0.0844
20772W        W63710  22.649   3.806   7.027 -0.2600 -0.1182  0.1408
20773W        W63711  24.000   4.008   6.767  0.1491  0.5102  0.0006
20774W        W63712  22.558   7.641   6.107  0.1610  0.0924  0.3477
20775W        W63713  23.844   6.278   6.209 -0.2052  0.1887  0.1128
20776W        W63714  25.323   3.004   4.085  0.1105 -0.1071  0.0256
20777W        W63715  25.518   4.880   4.130  0.0809 -0.0071  0.3786
20778W        W63716  24.815   5.950   7.350 -0.2984 -0.1953  0.0522
20779W        W63717  22.808   5.137   4.999  0.1709 -0.2735 -0.2619
20780W        W63718  26.029   6.147   6.740 -0.0937 -0.0563 -0.1780
20781W        W63719  23.598   4.475   6.775  0.2041 -0.0731  0.1609
20782W        W63720  21.054   6.760   3.970  0.0647  0.0945  0.2695
20783W        W63721  26.025   7.414   5.112  0.0747  0.1520 -0.2325
20784W        W63722  23.490   4.547   5.056 -0.0221 -0.1299  0.4177
20785W        W63723  23.199   5.947   4.929 -0.0512  0.4062 -0.6336
20786W        W63724  23.823   5.927   7.624  0.4593 -0.0052  0.1478
20787W        W63725  24.299   6.721   6.822  0.0326  0.2865 -0.0057
20788W        W63726  23.092   3.722   6.447 -0.1361  0.0701  0.2781
20789W        W63727  22.006   4.041   6.035 -0.0858  0.1111 -0.0259
20790W        W63728  24.300   5.419   6.657 -0.2163 -0.0712  0.2451
20791W        W63729  25.333   6.795   5.062  0.2946  0.3174  0.0167
20792W        W63730  25.446   4.700   7.535 -0.0737 -0.0654 -0.1997
20793W        W63731  23.928   7.140   6.854  0.1142  0.2061 -0.2402
20794W        W63732  22.645   4.520   6.283  0.1555  0.1562 -0.0645
20795W        W63733  25.974   7.655   5.774 -0.1791  0.0677  0.0002
20796W        W63734  24.511   4.922   6.814  0.2915 -0.3056 -0.0276
20797W        W63735  22.621   4.722   4.686  0.0974 -0.1189 -0.0604
20798W        W63736  21.610   4.804   6.640  0.3388 -0.0897 -0.2773
20799W        W63737  22.890   6.255   4.162 -0.1827  0.3016 -0.0036
20800W        W63738  22.617   3.185   5.842  0.1074  0.1272 -0.2838
20801W        W63739  22.621   6.919   6.710 -0.1844  0.3378  0.3195
20802W        W63740  22.689   5.537   4.742  0.1300  0.1739 -0.0369
20803W        W63741  23.247   5.596   5.614 -0.0726  0.4910 -0.0468
20804W        W63742  24.362   4.717   3.691  0.0323  0.1731 -0.2326
20805W        W63743  24.762   6.266   4.008 -0.1038 -0.1912 -0.1279
20806W        W63744  24.872   4.367   4.711 -0.0721 -0.3161 -0.2182
20807W        W63745  25.839   4.579   7.127 -0.0708  0.1794  0.0920
20808W        W63746  25.217   6.174   2.538 -0.1690  0.0655  0.0324
20809W        W63747  23.543   3.439   8.086 -0.1653 -0.2239  0.0417
20810W        W63748  21.684   3.917   7.784 -0.0145  0.1046 -0.1552
20811W        W63749  25.815   7.556   4.641  0.1314 -0.1112  0.0447
20812W        W63750  21.921   5.821   6.594  0.1005 -0.0958  0.1300
20813W        W63751  25.321   7.304   6.958 -0.2347 -0.1418 -0.0399
20814W        W63752  22.116   5.456   7.898 -0.2183  0.0279 -0.1392
20815W        W63753  23.597   5.989   6.657  0.0165  0.0556 -0.0302
20816W        W63754  23.872   3.229   3.861 -0.0541  0.2747 -0.4262
20817W        W63755  23.830   5.948   7.097 -0.1053 -0.0110  0.1944
20818W        W63756  26.598   6.510   5.869  0.0532 -0.2029 -0.1135
20819W        W63757  23.694   5.772   5.009 -0.2829  0.0406 -0.0933
20820W        W63758  24.604   6.025   4.720 -0.1486 -0.3471 -0.2548
20821W        W63759  22.933   6.756   7.123  0.0602 -0.1274 -0.3699
20822W        W63760  24.469   7.355   5.666  0.0983 -0.0360 -0.4700
20823W        W63761  24.296   4.844   2.876 -0.1601  0.2423  0.1433
20824W        W63762  23.193   5.473   6.087  0.1376 -0.0567  0.0918
20825W        W63763  23.185   4.308   7.938 -0.1414 -0.1552  0.1034
20826W        W63764  24.483   6.877   5.871 -0.2022 -0.1274  0.2318
20827W        W63765  23.168   4.172   6.884 -0.0636  0.0978 -0.3127
20828W        W63766  24.194   4.461   6.750 -0.2259  0.1022  0.1357
20829W        W63767  26.299   5.929   6.325  0.2032  0.1368 -0.2260
20830W        W63768  23.059   6.269   7.331  0.0807 -0.0436  0.1512
20831W        W63769  23.215   5.566   9.533  0.2114 -0.0928  0.1186
20832W        W63770  24.898   7.989   4.874 -0.0318  0.1168  0.0681
20833W        W63771  24.767   4.094   3.324 -0.2364 -0.0569  0.1592
20834W        W63772  25.339   5.987   6.222 -0.0204  0.2053 -0.0950
20835W        W63773  26.100   6.263   4.691  0.0878  0.2804  0.0069
20836W        W63774  24.132   4.731   4.313 -0.1541 -0.1190  0.3316
20837W        W63775  23.814   4.979   6.169 -0.2900 -0.1434 -0.0119
20838W        W63776  25.061   5.520   7.203  0.0861 -0.0408  0.0721
20839W        W63777  24.196   4.175   3.639 -0.3599  0.1853  0.4140
20840W        W63778  24.287   5.392   8.081  0.1071  0.3167  0.1431
20841W        W63779  24.278   6.463   5.049 -0.1297  0.1334 -0.0911
20842W        W63780  26.038   6.573   5.155 -0.2598 -0.3296  0.1131
20843W        W63781  23.690   5.259   4.807  0.1453 -0.0533  0.1678
20844W        W63782  22.511   4.786   6.649 -0.3366 -0.1335 -0.0397
20845W        W63783  23.195   7.716   6.461  0.0989 -0.0587  0.0499
20846W        W63784  23.195   4.315   4.062  0.1112  0.2162 -0.1473
20847W        W63785  23.529   6.545   4.331 -0.0806  0.0618  0.2090
20848W        W63786  24.134   7.301   4.397 -0.2155 -0.0226  0.1011
20849W        W63787  25.933   6.611   6.747  0.1330 -0.0434  0.1649
20850W        W63788  24.661   2.995   4.176  0.2500 -0.1298 -0.1202
20851W        W63789  25.508   3.757   6.981 -0.1140  0.1109  0.0642
20852W        W63790  22.698   5.647   6.217  0.0957  0.1386 -0.2426
20853W        W63791  22.346   4.232   7.019 -0.0490 -0.2060 -0.1868
20854W        W63792  23.350   7.208   5.626 -0.0383 -0.0624  0.0504
20855W        W63793  22.097   5.471   6.904 -0.3723 -0.1274  0.0011
20856W        W63794  25.083   7.465   5.600  0.1836 -0.0273  0.0276
20857W        W63795  24.176   4.324   5.999 -0.1232 -0.1087 -0.0286
20858W        W63796  24.541   5.649   5.084  0.1732 -0.0728 -0.0166
20859W        W63797  23.842   5.524   6.851  0.2374 -0.0717  0.0289
20860W        W63798  25.097   5.587   7.873  0.0789  0.0894 -0.0156
20861W        W63799  23.854   7.773   5.138 -0.4504  0.2421  0.0824
20862W        W63800  25.337   6.880   5.624 -0.0787  0.2933 -0.1261
20863W        W63801  23.500   6.854   6.926  0.1284 -0.1540 -0.1319
20864W        W63802  24.328   6.472   3.966  0.0124 -0.0263 -0.1136
20865W        W63803  23.481   5.916   6.060 -0.0691  0.1454 -0.0114
20866W        W63804  21.059   5.239   7.067  0.0835  0.0152 -0.0531
20867W        W63805  23.564   6.350   7.176 -0.0645 -0.1020 -0.4773
20868W        W63806  25.315   6.062   5.281  0.0433 -0.2028 -0.0859
20869W        W63807  22.643   4.223   4.154  0.0043  0.0731  0.2007
20870W        W63808  24.788   6.400   5.031  0.0947  0.0465  0.3388
20871W        W63809  22.540   6.918   8.325  0.0953  0.3083  0.2287
20872W        W63810  21.961   4.459   5.370  0.1713  0.0441  0.2344
20873W        W63811  22.940   7.223   4.925 -0.1702 -0.0714  0.2716
20874W        W63812  24.201   6.559   2.787 -0.2824  0.1667  0.3897
20875W        W63813  24.232   6.031   5.395  0.1105  0.1057 -0.3123
20876W        W63814  24.138   7.761   5.537 -0.3283 -0.0579  0.0413
20877W        W63815  23.933   4.741   4.776  0.0265 -0.0933  0.0580
20878W        W63816  22.343   6.737   5.426  0.0764  0.2089  0.0354
20879W        W63817  22.971   6.114   3.680 -0.0020 -0.1712  0.0927
20880W        W63818  25.636   7.118   5.223  0.2108 -0.1609  0.2751
20881W        W63819  24.495   6.944   4.292  0.1639 -0.1044  0.0246
20882W        W63820  25.230   5.809   5.716  0.2323 -0.0209  0.0017
20883W        W63821  23.852   6.019   4.252 -0.1706 -0.1264  0.2259
20884W        W63822  26.214   5.280   5.467  0.0782  0.1851  0.0627
20885W        W63823  24.983   5.509   4.721 -0.2781  0.0756 -0.3077
20886W        W63824  24.611   5.789   6.720 -0.1103 -0.2789 -0.0768
20887W        W63825  24.426   5.282   5.946  0.2591  0.1758 -0.1799
20888W        W63826  22.599   2.793   3.925 -0.0326 -0.1650  0.2566
20889W        W63827  22.789   4.546   7.033  0.1256 -0.1004 -0.4581
20890W        W63828  25.085   4.051   6.870 -0.0955  0.0355 -0.1091
20891W        W63829  20.788   6.704   6.879  0.1358  0.1302  0.1977
20892W        W63830  26.276   7.768   4.133 -0.3682  0.2198 -0.4544
20893W        W63831  21.432   5.403   3.436 -0.1397 -0.0743  0.2164
20894W        W63832  24.176   5.503   5.525  0.2393  0.1063  0.0134
20895W        W63833  25.455   4.974   6.603 -0.2243  0.3859  0.0905
20896W        W63834  24.232   5.091   4.704 -0.1899  0.0482 -0.2867
20897W        W63835  25.594   4.265   6.786  0.1905  0.2653 -0.0931
20898W        W63836  23.412   7.089   5.039 -0.0955 -0.1814 -0.0031
20899W        W63837  21.395   7.435   6.722  0.0570 -0.1515  0.0290
20900W        W63838  23.082   7.051   6.528  0.2548  0.0201 -0.2055
20901W        W63839  22.067   4.238   3.283 -0.0751 -0.3381 -0.1515
20902W        W63840  25.835   5.240   4.915  0.0711 -0.1865 -0.2844
20903W        W63841  22.010   4.527   5.940 -0.0350  0.1925 -0.0258
20904W        W63842  26.312   3.604   6.825  0.0523  0.0642 -0.3850
20905W        W63843  21.846   4.599   4.828 -0.0122 -0.0977  0.2860
20906W        W63844  24.367   5.206   3.670  0.0499  0.3848  0.2946
20907W        W63845  22.849   6.558   6.358 -0.2295 -0.0707  0.0085
20908W        W63846  22.824   5.637   7.273  0.3070  0.0089 -0.0472
20909W        W63847  22.738   3.531   3.306  0.0363 -0.1998 -0.0408
20910W        W63848  25.911   5.740   4.672  0.0463 -0.0871 -0.0604
20911W        W63849  25.414   4.354   3.062  0.1104 -0.1835 -0.0324
20912W        W63850  25.746   7.673   8.229  0.0891  0.2097 -0.1895
20913W        W63851  22.299   3.673   5.822  0.0663 -0.0047  0.0069
20914W        W63852  23.809   4.253   4.775 -0.4311 -0.2013 -0.0863
20915W        W63853  22.872   5.551   6.708 -0.1055 -0.1626  0.0775
20916W        W63854  24.339   4.711   5.668 -0.1313  0.1054 -0.1799
20917W        W63855  25.860   7.183   6.061 -0.1005  0.0073  0.1410
20918W        W63856  22.007   5.400   5.312  0.1710  0.1683  0.1058
20919W        W63857  25.414   5.178   3.666  0.0313 -0.1452  0.0213
20920W        W63858  26.072   4.991   5.898  0.0323 -0.1288 -0.0898
20921W        W63859  23.551   6.895   3.943 -0.4369  0.0305 -0.1598
20922W        W63860  24.635   6.562   4.584  0.1575 -0.0719  0.1326
20923W        W63861  24.964   6.611   3.295 -0.2056 -0.1567  0.0994
20924W        W63862  21.734   5.228   6.480  0.1810 -0.0097  0.1086
20925W        W63863  24.630   7.561   5.255 -0.0401 -0.0745 -0.2489
20926W        W63864  25.863   6.473   3.175  0.3429 -0.0716 -0.0453
20927W        W63865  24.273   4.790   6.255 -0.0692  0.2979 -0.2956
20928W        W63866  22.987   4.738   5.887  0.2666  0.0835  0.1902
20929W        W63867  21.036   6.916   6.073  0.1247 -0.0327  0.1138
20930W        W63868  24.658   4.469   6.349 -0.1072  0.0782  0.3162
20931W        W63869  24.047   4.332   7.712  0.2439 -0.0852 -0.0273
20932W        W63870  22.310   6.919   4.339 -0.4011  0.3279 -0.0768
20933W        W63871  26.156   3.498   7.534 -0.0048  0.0454 -0.2781
20934W        W63872  24.219   7.344   5.142  0.3365  0.0432 -0.0313
20935W        W63873  22.535   7.413   7.496  0.0475  0.1204  0.0645
20936W        W63874  22.472   4.734   4.133  0.1703  0.0685 -0.0050
20937W        W63875  24.917   6.252   6.977  0.1782  0.0706 -0.0879
20938W        W63876  23.572   6.767   5.389 -0.0456  0.2273  0.0639
20939W        W63877  23.575   7.188   4.337 -0.0020  0.3174  0.2413
20940W        W63878  25.923   7.072   4.616 -0.3369 -0.3357  0.0137
20941W        W63879  22.815   4.266   4.647 -0.0719 -0.0827  0.0951
20942W        W63880  25.752   6.319   3.799 -0.0121 -0.0768 -0.1663
20943W        W63881  24.089   3.147   6.952 -0.3523  0.0888 -0.2175
20944W        W63882  25.250   3.848   5.498  0.2800 -0.1594 -0.0198
20945W        W63883  24.213   3.645   4.840  0.0606 -0.2628  0.1936
20946W        W63884  22.287   6.639   6.444 -0.1272 -0.1571  0.2110
20947W        W63885  23.761   5.080   3.667  0.0632  0.1408 -0.4320
20948W        W63886  23.177   5.697   3.429 -0.1871 -0.0531  0.0276
20949W        W63887  21.765   6.643   4.604 -0.0740  0.0494  0.2772
20950W        W63888  24.630   5.309   7.717 -0.1811  0.0295 -0.0427
20951W        W63889  20.828   4.875   6.844  0.2545 -0.0309 -0.1448
20952W        W63890  22.061   4.931   5.547  0.1744  0.1239  0.0307
20953W        W63891  21.944   4.112   4.979 -0.0027  0.0306 -0.0317
20954W        W63892  23.979   6.901   3.654  0.1629  0.1174 -0.1165
20955W        W63893  23.689   5.396   5.908 -0.0242 -0.3010 -0.0310
20956W        W63894  21.571   3.284   6.785  0.1706  0.0046  0.0730
20957W        W63895  24.542   5.583   4.114  0.3356 -0.0261 -0.0604
20958W        W63896  26.892   6.952   3.839 -0.0473  0.0315 -0.0141
20959W        W63897  24.040   5.426   5.083  0.1508  0.0055  0.2340
20960W        W63898  23.840   6.502   6.778 -0.1982 -0.0849 -0.0759
20961W        W63899  21.649   5.929   3.587 -0.0273  0.3176  0.2398
20962W        W63900  23.894   5.029   7.973 -0.0443  0.0932  0.2231
20963W        W63901  24.313   5.106   8.572  0.0698 -0.0962 -0.0183
20964W        W63902  21.620   4.241   2.980  0.0434  0.0771  0.1505
20965W        W63903  23.782   4.197   5.304  0.1353  0.0593 -0.1594
20966W        W63904  24.371   6.037   4.222  0.0798  0.0390 -0.2370
20967W        W63905  23.719   7.371   4.769 -0.1202  0.0513  0.0248
20968W        W63906  23.237   5.492   7.043  0.1790  0.0696  0.1137
20969W        W63907  22.278   5.640   7.495 -0.0447  0.0478 -0.3118
20970W        W63908  21.556   4.694   8.292  0.1547  0.0959 -0.0872
20971W        W63909  25.481   5.718   5.033 -0.2130 -0.2309  0.1030
20972W        W63910  24.650   6.775   6.387  0.3977 -0.1129  0.0888
20973W        W63911  25.130   6.292   4.358 -0.1938 -0.0871 -0.2337
20974W        W63912  25.279   5.006   6.088  0.3074 -0.1033 -0.1906
20975W        W63913  23.286   5.458   5.043  0.3047  0.0883 -0.0484
20976W        W63914  21.193   4.718   7.151 -0.2013 -0.1568  0.0955
20977W        W63915  22.396   6.637   7.949  0.0016  0.2190 -0.1523
20978W        W63916  25.251   5.432   6.376 -0.3287  0.2328  0.0405
20979W        W63917  21.799   3.890   6.628  0.1235  0.0670 -0.1609
20980W        W63918  25.107   4.645   4.260  0.0105 -0.0671  0.2407
20981W        W63919  25.027   5.945   4.948  0.2438  0.0327  0.2790
20982W        W63920  22.480   4.706   5.861  0.1205 -0.0461 -0.0655
20983W        W63921  23.239   3.884   5.534  0.0157  0.1209  0.1368
20984W        W63922  24.879   5.857   6.307  0.0096  0.1230  0.0734
20985W        W63923  23.371   7.711   6.010  0.4077 -0.0849 -0.0864
20986W        W63924  25.643   7.492   9.407  0.1489  0.1728 -0.4040
20987W        W63925  24.582   5.781   5.784 -0.1206 -0.0052 -0.0122
20988W        W63926  25.362   5.701   3.136 -0.0284 -0.1242 -0.2470
20989W        W63927  24.374   7.262   6.700  0.1937 -0.3425 -0.0279
20990W        W63928  27.371   7.572   9.020 -0.2685 -0.0346  0.3186
20991W        W63929  22.798   7.435   6.572  0.0718  0.3650  0.1067
20992W        W63930  25.338   5.829   4.537  0.1480  0.2164 -0.2681
20993W        W63931  23.641   4.617   7.809  0.1166 -0.3136 -0.3072
20994W        W63932  23.654   5.373   5.391  0.2053 -0.1172  0.1376
20995W        W63933  23.806   6.263   5.198  0.0403  0.0034 -0.0478
20996W        W63934  25.039   5.613   5.303 -0.0070 -0.0877 -0.1146
20997W        W63935  22.761   3.317   4.263 -0.2886  0.3722  0.1594
20998W        W63936  23.314   4.330   4.632  0.2326 -0.2533  0.2771
20999W        W63937  24.154   8.065   7.093 -0.1379 -0.0796  0.1606
21000W        W63938  24.569   6.312   6.647  0.2019  0.1188  0.0343
21001W        W63939  21.778   6.756   9.474 -0.0868  0.0056 -0.2057
21002W        W63940  22.777   5.876   9.764 -0.1140  0.0988  0.0557
21003W        W63941  25.057   5.253   6.775 -0.3819  0.0235  0.0779
21004W        W63942  25.992   6.366   7.776 -0.3659  0.0163  0.4317
21005W        W63943  22.547   5.547   8.196 -0.0101 -0.1783  0.1638
21006W        W63944  25.671   7.386   8.655  0.1334 -0.3760 -0.2334
21007W        W63945  25.403   6.258   9.737  0.0027 -0.0694 -0.0709
21008W        W63946  27.355   5.666   9.690 -0.2875 -0.1785 -0.4856
21009W        W63947  25.362   6.879   7.586 -0.1931  0.0641 -0.0074
21010W        W63948  23.011   6.416   9.099  0.2684  0.2198 -0.2747
21011W        W63949  22.864   4.656   8.147 -0.0564 -0.0425 -0.4423
21012W        W63950  19.326   4.493  10.233 -0.0957 -0.0583  0.2125
21013W        W63951  24.696   7.173   9.600  0.1513 -0.2978 -0.4493
21014W        W63952  23.359   6.628   8.126 -0.0769  0.1917 -0.1793
21015W        W63953  21.335   4.009   9.918 -0.3141 -0.0970 -0.3768
21016W        W63954  24.538   6.189   7.794  0.0037 -0.0828  0.2927
21017W        W63955  24.435   8.391   9.703 -0.1846 -0.0079 -0.0482
21018W        W63956  23.880   6.823  10.548 -0.0033 -0.0360 -0.0763
21019W        W63957  23.646   7.594   7.752 -0.2555  0.3052 -0.0469
21020W        W63958  23.426   5.486   6.597 -0.1472 -0.1508  0.0912
21021W        W63959  22.686   3.425   8.994 -0.0666  0.0295 -0.1372
21022W        W63960  25.904   6.307   9.996  0.0979 -0.0803 -0.2105
21023W        W63961  25.023   3.884   9.558 -0.4257 -0.1850  0.2758
21024W        W63962  26.012   7.066   9.446  0.0884  0.1133  0.1914
21025W        W63963  23.661   7.384   9.604 -0.3276 -0.0412 -0.0109
21026W        W63964  23.132   7.922  10.133  0.0052 -0.0253  0.1327
21027W        W63965  24.564   5.741  10.507 -0.0266  0.3019 -0.2138
21028W        W63966  22.156   6.961   8.610  0.2175 -0.1008 -0.1365
21029W        W63967  22.844   7.047   9.210 -0.3322  0.0237  0.0895
21030W        W63968  25.396   6.806   8.381 -0.0100 -0.0996 -0.0340
21031W        W63969  20.887   5.258   9.318  0.3234 -0.2820 -0.2378
21032W        W63970  24.048   6.440   9.413  0.0278 -0.1260  0.1315
21033W        W63971  24.535   4.834   8.936 -0.3534  0.1939 -0.1518
21034W        W63972  22.878   6.570   8.218 -0.0877  0.1018 -0.1277
21035W        W63973  25.033   6.142   8.080  0.1781  0.0968 -0.1135
21036W        W63974  23.569   6.403   9.748 -0.3608 -0.1984 -0.0894
21037W        W63975  23.382   6.302   7.706 -0.1097 -0.1934 -0.1860
21038W        W63976  25.335   6.063   7.240  0.0836 -0.2432  0.3099
21039W        W63977  22.931   5.010   6.815  0.1422 -0.0696 -0.1256
21040W        W63978  25.618   4.252   7.797  0.2167 -0.1211 -0.2494
21041W        W63979  23.463   4.314   8.347  0.3054 -0.1836 -0.3018
21042W        W63980  23.866   7.968   8.136  0.2481  0.0385 -0.0619
21043W        W63981  23.882   6.066   9.106 -0.0738  0.2248 -0.1301
21044W        W63982  23.211   6.099  10.090 -0.0600 -0.0914 -0.0503
21045W        W63983  24.463   4.647   9.464  0.2389 -0.1168 -0.2186
21046W        W63984  22.608   7.917   9.668  0.0551  0.2044  0.1132
21047W        W63985  22.889   5.889   9.231 -0.0681  0.1936  0.2191
21048W        W63986  25.254   6.140   8.565  0.0546 -0.3531 -0.0274
21049W        W63987  24.639   7.629   9.782 -0.1164  0.0107 -0.2358
21050W        W63988  25.631   6.759   7.968  0.0150  0.0573  0.2251
21051W        W63989  23.598   5.594   8.988  0.4168 -0.2695 -0.1563
21052W        W63990  22.398   4.961   8.134  0.0604 -0.0717  0.0230
21053W        W63991  25.724   3.956   8.820  0.0561  0.2730 -0.0833
21054W        W63992  23.128   7.311   8.706  0.2788  0.5079  0.2520
21055W        W63993  24.233   5.705  10.108  0.0581 -0.0306  0.0275
21056W        W63994  25.958   6.356   7.255  0.0266  0.2326  0.0107
21057W        W63995  25.937   2.535   9.664  0.1401 -0.1575 -0.1238
21058W        W63996  24.845   3.337   9.755  0.2238  0.1392  0.3068
21059W        W63997  24.292   6.118   7.174  0.4442  0.0460 -0.1295
21060W        W63998  23.623   6.578   8.665  0.1750 -0.1699  0.3507
21061W        W63999  25.327   8.236  10.514 -0.0568  0.1195  0.0885
21062W        W64000  26.759   5.285   7.762  0.2204  0.1179  0.0837
21063W        W64001  22.742   7.585   8.439  0.1104 -0.0896  0.2713
21064W        W64002  21.462   7.536   7.191 -0.0820  0.1669  0.2663
21065W        W64003  22.138   6.321   9.943  0.0162 -0.0480 -0.0807
21066W        W64004  23.322   5.839   7.446  0.0756  0.1213 -0.1178
21067W        W64005  21.900   3.793   8.846  0.5521 -0.3559 -0.1420
21068W        W64006  23.382   7.439  10.371  0.2049 -0.3574  0.2414
21069W        W64007  25.445   4.366   8.765 -0.0749  0.0822  0.0193
21070W        W64008  26.612   2.004   9.922  0.1719 -0.0485  0.0148
21071W        W64009  22.434   6.062   9.106 -0.2178  0.1145 -0.0001
21072W        W64010  26.084   6.679   9.094  0.1461  0.3789  0.0174
21073W        W64011  25.439   5.140   9.029 -0.4008 -0.0483 -0.0883
21074W        W64012  25.966   7.475   9.080 -0.0737  0.5053  0.1103
21075W        W64013  21.271   4.552  10.340 -0.1084  0.2198  0.1068
21076W        W64014  22.384   5.913   8.563 -0.2879 -0.0327 -0.0836
21077W        W64015  23.079   6.346   9.632 -0.2726 -0.2528 -0.0213
21078W        W64016  22.179   5.459   8.565  0.0684 -0.1120  0.0943
21079W        W64017  25.545   5.527   7.551  0.0974 -0.1668  0.0135
21080W        W64018  23.409   5.975   9.445 -0.2400  0.1862 -0.1213
21081W        W64019  21.641   6.012   7.817 -0.1458 -0.0176 -0.2000
21082W        W64020  24.026   7.389   7.497 -0.0167  0.1846 -0.2493
21083W        W64021  25.202   8.773  10.514 -0.1450  0.2997  0.2708
21084W        W64022  23.284   6.832   8.982  0.0969 -0.0046  0.0341
21085W        W64023  22.631   6.223  10.122  0.1706  0.2221  0.1944
21086W        W64024  22.814   6.106   8.759 -0.0644 -0.1293 -0.0637
21087W        W64025  22.459   8.084   7.683  0.2840 -0.0776  0.1316
21088W        W64026  22.789   6.894   9.746 -0.1432 -0.1983 -0.3075
21089W        W64027  23.030   5.199   9.032 -0.1247  0.0388 -0.2682
21090W        W64028  24.297   7.010   9.344  0.2703 -0.0926 -0.2747
21091W        W64029  24.323   5.789   7.603  0.2466 -0.1069 -0.0336
21092W        W64030  25.786   5.983  10.356  0.0902  0.0624 -0.2762
21093W        W64031  24.803   4.805   8.471  0.0396 -0.2194  0.0311
21094W        W64032  23.175   5.363   7.607  0.0016  0.3599  0.1480
21095W        W64033  24.771   6.852  10.023  0.1284 -0.1472  0.1560
21096W        W64034  22.661   5.339   7.679  0.2625  0.1441  0.0897
21097W        W64035  22.357   6.376   8.375  0.0009 -0.0665  0.0349
21098W        W64036  23.302   7.346   9.257 -0.2351 -0.2447  0.0185
21099W        W64037  27.785   5.219   9.741 -0.4264 -0.0537  0.1951
21100W        W64038  23.377   5.848   7.908 -0.0325  0.0993  0.2155
21101W        W64039  23.316   5.147   8.577 -0.0456  0.0245  0.1252
21102W        W64040  25.987   3.835   8.394  0.0609 -0.1872 -0.3031
21103W        W64041  25.162   6.609   8.909 -0.0870 -0.1942  0.0041
21104W        W64042  23.990   4.222   7.219 -0.3389 -0.1121 -0.0644
21105W        W64043  23.608   5.084   7.554  0.2186  0.1609 -0.1507
21106W        W64044  25.573   8.150   7.011 -0.0735 -0.0547  0.0454
21107W        W64045  22.713   7.618  10.093  0.1957 -0.1673 -0.0114
21108W        W64046  24.621   5.776   8.121  0.1012  0.0056  0.1323
21109W        W64047  25.867   6.702   8.465  0.0130  0.1742  0.3265
21110W        W64048  23.368   4.622   9.202 -0.1630  0.0489 -0.1522
21111W        W64049  23.947   7.423   9.188  0.1771  0.3975 -0.2157
21112W        W64050  24.552   5.542   8.629  0.1131 -0.1644  0.0171
21113W        W64051  24.379   5.776   6.264  0.2543 -0.1146  0.1195
21114W        W64052  24.308   5.935   8.780  0.0627  0.3014  0.0519
21115W        W64053  21.821   7.671   6.517 -0.0335 -0.0246 -0.1399
21116W        W64054  24.439   5.198  10.475  0.0096 -0.0047 -0.1080
21117W        W64055  25.307   6.589  10.143  0.0097  0.1582  0.0567
21118W        W64056  25.241   5.635   9.742  0.0648 -0.1505  0.2954
21119W        W64057  25.239   5.335  10.171  0.0814  0.1282  0.0913
21120W        W64058  23.788   5.550   7.977  0.4623  0.0097 -0.0666
21121W        W64059  25.391   4.592   9.838  0.2116 -0.3164  0.0126
21122W        W64060  22.724   7.433   9.574 -0.0179 -0.2925  0.0387
21123W        W64061  24.048   6.420   8.867  0.0599 -0.0400 -0.3077
21124W        W64062  24.568   5.139   9.457 -0.0461  0.0352 -0.0431
21125W        W64063  23.700   6.902   6.399  0.2602 -0.0937  0.3794
21126W        W64064  23.543   5.606   8.462 -0.0585 -0.0095 -0.1066
21127W        W64065  25.819   4.420   9.499  0.0794  0.1160 -0.1414
21128W        W64066  23.753   8.874  10.470 -0.0329  0.0915 -0.0284
21129W        W64067  22.402   6.662   7.068  0.0281 -0.0892 -0.4779
21130W        W64068  25.685   6.701   9.421  0.1871 -0.1778  0.3654
21131W        W64069  22.140   6.689   7.495 -0.0780 -0.0973 -0.1789
21132W        W64070  23.853   3.807   8.942  0.1113 -0.0051  0.0715
21133W        W64071  20.835   6.923   8.911  0.1819  0.0600  0.0519
21134W        W64072  23.378   5.274   8.057 -0.0575 -0.4532  0.2206
21135W        W64073  21.086   6.156   9.451 -0.2431  0.0689  0.1549
21136W        W64074  25.284   3.991   9.020 -0.0773  0.2298  0.1666
21137W        W64075  26.526   6.251   7.328  0.2874 -0.1306 -0.1435
21138W        W64076  24.977   4.847   9.328  0.3783 -0.1968 -0.1128
21139W        W64077  24.732   5.361   9.912 -0.0693  0.1906  0.3396
21140W        W64078  21.798   8.180   9.869 -0.0901  0.0837  0.0956
21141W        W64079  24.510   4.437   7.655  0.0896 -0.2148 -0.0676
21142W        W64080  22.932   5.188   8.093  0.1976  0.0263  0.3097
21143W        W64081  27.347   5.109   9.905  0.1410 -0.0821 -0.1188
21144W        W64082  22.635   5.579   8.954 -0.0423  0.2433  0.0921
21145W        W64083  22.275   7.351   8.902 -0.0735 -0.0530 -0.4351
21146W        W64084  24.660   6.359   8.809 -0.1155  0.1405  0.0867
21147W        W64085  21.966   7.093  10.609 -0.0170 -0.0665 -0.2879
21148W        W64086  22.663   7.190   8.710  0.2071  0.2030  0.2170
21149W        W64087  25.127   5.142   9.705 -0.0576 -0.0049 -0.1300
21150W        W64088  20.722   4.717  10.201  0.1626  0.0011 -0.0070
21151W        W64089  22.547   5.342   9.821  0.0947 -0.1061  0.2507
21152W        W64090  23.413   6.188   8.818 -0.1317 -0.0743 -0.4224
21153W        W64091  25.342   4.407   9.331 -0.2065  0.3687 -0.2192
21154W        W64092  23.863   6.001   9.698 -0.1814  0.0687  0.0106
21155W        W64093  24.201   4.701  10.261 -0.1105 -0.0784  0.0070
21156W        W64094  26.015   7.090   8.763  0.0194  0.0771 -0.0661
21157W        W64095  22.986   5.630   8.338 -0.6182 -0.0003 -0.1516
21158W        W64096  20.891   7.294  10.122 -0.1185  0.0869  0.0042
21159W        W64097  22.332   6.720   9.741 -0.0689  0.2449  0.0161
21160W        W64098  24.435   6.122   9.287  0.4028 -0.1691  0.0452
21161W        W64099  19.090   6.471   9.387  0.0414 -0.1024 -0.0196
21162W        W64100  22.222   6.452   8.879 -0.0689 -0.0600  0.1825
21163W        W64101  18.660   7.346   9.370  0.0584 -0.5230 -0.1463
21164W        W64102  26.654   4.284   8.982  0.1996 -0.0182 -0.0196
21165W        W64103  25.112   6.783   7.197  0.6815  0.1235  0.1892
21166W        W64104  24.737   4.882   9.880 -0.1254 -0.1420 -0.0372
21167W        W64105  25.708   5.348   8.671 -0.0360 -0.2539  0.2236
21168W        W64106  22.496   4.564   8.595  0.1306 -0.2737  0.1819
21169W        W64107  25.186   7.421   9.554  0.0682 -0.3444 -0.0818
21170W        W64108  25.822   4.709   9.107  0.0606  0.1081  0.1208
21171W        W64109  21.943   5.131   8.216  0.0340 -0.0164 -0.3005
21172W        W64110  24.411   7.308  10.164  0.3284 -0.1725  0.1415
21173W        W64111  25.809   6.789   9.954  0.2155 -0.1056 -0.2439
21174W        W64112  24.525   6.211   8.352  0.0927  0.1391 -0.4162
21175W        W64113  26.335   4.773   8.936 -0.0193  0.0910  0.0320
21176W        W64114  25.269   5.907  10.249 -0.0671 -0.0655 -0.3607
21177W        W64115  26.264   4.606   8.325 -0.1953 -0.1655 -0.3928
21178W        W64116  25.705   3.595   7.382 -0.1443  0.2105  0.1314
21179W        W64117  23.145   6.566   8.625 -0.1667 -0.1506 -0.0491
21180W        W64118  25.332   5.670   8.792  0.1549  0.0807 -0.1623
21181W        W64119  25.777   4.702   8.060  0.1449 -0.1178  0.0947
21182W        W64120  23.626   7.417   8.791 -0.0173 -0.2776  0.1306
21183W        W64121  25.958   5.916   7.579  0.2073  0.2062 -0.0208
21184W        W64122  24.239   2.551   9.678  0.0907 -0.1658 -0.0592
21185W        W64123  25.552   5.150   7.993 -0.0497  0.0012 -0.1407
21186W        W64124  24.718   6.354   5.974 -0.0427  0.1672 -0.3396
21187W        W64125  22.916   5.099  10.047  0.1467 -0.1117  0.0821
21188W        W64126  23.413   4.820   8.221  0.1393 -0.2516  0.1017
21189W        W64127  23.613   7.045   8.454  0.2238  0.3502  0.1663
21190W        W64128  22.065   8.028  10.575  0.1057  0.2824 -0.4801
21191W        W64129  24.309   5.110   9.940  0.2934 -0.1552  0.3694
21192W        W64130  22.063   4.755   8.508 -0.0816  0.0292 -0.3328
21193W        W64131  23.903   5.621   6.383  0.3764 -0.2225  0.1364
21194W        W64132  24.134   5.939   8.113  0.0099  0.6229  0.0498
21195W        W64133  22.559   6.953  10.704  0.0263 -0.0202  0.1573
21196W        W64134  23.648   3.945   7.970 -0.3096  0.0350 -0.3293
21197W        W64135  20.900   5.975  10.325  0.3735 -0.2952 -0.0178
21198W        W64136  26.187   4.990   9.516  0.1002  0.0111 -0.1852
21199W        W64137  23.435   8.390   9.952  0.0979 -0.1253 -0.0660
21200W        W64138  24.214   7.380   9.676  0.0105  0.0045  0.2077
21201W        W64139  26.063   5.230  12.425 -0.2118 -0.2958 -0.1497
21202W        W64140  25.230   3.820   8.065  0.1170  0.0817 -0.0140
21203W        W64141  22.099   6.379   9.409  0.2919  0.2665 -0.0092
21204W        W64142  22.058   5.470   9.707  0.1772 -0.1851 -0.3888
21205W        W64143  25.416   7.049  10.220 -0.0795 -0.0154 -0.1020
21206W        W64144  22.588   6.291   9.644 -0.0033 -0.1742 -0.0332
21207W        W64145  25.374   6.910   9.723  0.3540 -0.1939 -0.1657
21208W        W64146  24.344   4.869   8.148  0.3474  0.1062  0.0961
21209W        W64147  24.823   5.900   8.882 -0.1528  0.0911 -0.3509
21210W        W64148  22.544   5.128   9.258 -0.1497 -0.2033 -0.2770
21211W        W64149  21.750   5.643   7.534 -0.0729 -0.2291 -0.0787
21212W        W64150  25.608   6.357   8.190 -0.3693 -0.0299 -0.1915
21213W        W64151  25.726   4.755   8.573  0.1733 -0.0379 -0.2257
21214W        W64152  23.169   7.772   9.569 -0.0408 -0.0984  0.0738
21215W        W64153  22.423   4.911   7.605  0.1722 -0.1371  0.3222
21216W        W64154  21.901   8.104   7.773  0.0686 -0.2155 -0.1385
21217W        W64155  21.013   6.203   7.391  0.2083 -0.1137 -0.0687
21218W        W64156  25.509   6.416   7.603 -0.1926 -0.2798  0.1886
21219W        W64157  22.867   7.281   7.061 -0.0367 -0.2014  0.0940
21220W        W64158  25.721   3.776   7.872 -0.0618  0.0980 -0.1762
21221W        W64159  27.727   5.785   9.991 -0.0128 -0.2294  0.0348
21222W        W64160  25.752   3.501   8.713  0.0829 -0.0436  0.2096
21223W        W64161  23.148   6.689  10.059 -0.1067 -0.1757  0.0492
21224W        W64162  22.014   4.717   7.885  0.0020 -0.3786 -0.1282
21225W        W64163  26.551   7.750   8.251  0.2662 -0.0095 -0.1000
21226W        W64164  21.914   6.078   8.589 -0.0505 -0.1091 -0.0433
21227W        W64165  24.780   6.969   8.634  0.1340  0.0800 -0.0191
21228W        W64166  28.064   4.068   9.697 -0.3859  0.2478 -0.2401
21229W        W64167  23.671   6.205   8.133  0.0883  0.2484 -0.1057
21230W        W64168  26.153   5.531   9.255 -0.3154  0.1627 -0.0739
21231W        W64169  23.551   8.243   8.467  0.0870  0.1199  0.2328
21232W        W64170  23.391   8.635   8.924  0.0923  0.0075 -0.0200
21233W        W64171  21.726   7.529   9.763 -0.0120 -0.0537  0.1203
21234W        W64172  23.110   5.688   8.829 -0.1405 -0.0210  0.2374
21235W        W64173  26.590   5.035   9.745 -0.3004 -0.0727 -0.0614
21236W        W64174  21.774   6.763  10.113  0.0804  0.3908  0.2897
21237W        W64175  21.685   5.430  10.115  0.2696 -0.0064  0.0586
21238W        W64176  25.954   5.153   9.073 -0.2290 -0.3202 -0.2053
21239W        W64177  23.245   6.836   9.566 -0.2567  0.0613  0.0314
21240W        W64178  23.691   6.382  10.213  0.1043 -0.1885  0.1902
21241W        W64179  24.372   4.055   7.468 -0.1853  0.3994  0.1888
21242W        W64180  25.486   5.809   8.303  0.2047 -0.3445 -0.0309
21243W        W64181  21.437   5.290   9.542 -0.0681 -0.0071 -0.0510
21244W        W64182  24.174   5.096   7.168 -0.1545 -0.0788 -0.1120
21245W        W64183  21.850   6.388  10.425  0.1867 -0.1393  0.5283
21246W        W64184  26.045   4.379   8.720  0.2825 -0.2915 -0.3173
21247W        W64185  22.284   5.056   8.849 -0.1210  0.0971 -0.2029
21248W        W64186  24.113   6.042   6.651  0.2091 -0.0501  0.0466
21249W        W64187  25.792   1.879   9.166 -0.0819  0.0264 -0.3280
21250W        W64188  24.199   8.598   7.364 -0.1097  0.0659 -0.1968
21251W        W64189  26.839   5.575   9.854 -0.2206 -0.2013  0.1272
21252W        W64190  24.811   6.775  10.505  0.2602 -0.2111  0.2346
21253W        W64191  23.796   7.521  10.034  0.0120 -0.0190  0.2531
21254W        W64192  26.303   5.988   9.970  0.0022  0.3297  0.1536
21255W        W64193  25.739   5.577  10.048 -0.1287 -0.0783 -0.0983
21256W        W64194  23.920   4.539   8.180  0.3351  0.0817 -0.2434
21257W        W64195  19.595   5.583   9.786  0.1589 -0.1380 -0.2892
21258W        W64196  22.679   6.691   8.799 -0.0405 -0.2733  0.0721
21259W        W64197  25.448   3.463   9.156 -0.2018 -0.0642 -0.1322
21260W        W64198  23.275   6.821   7.516 -0.0314 -0.0185  0.1125
21261W        W64199  24.021   7.802   9.549  0.2334 -0.2203  0.1785
21262W        W64200  24.034   6.409   7.533  0.1842  0.0921  0.4445
21263W        W64201  24.284   6.369   9.997 -0.0832  0.2584 -0.0702
21264W        W64202  24.196   6.478   8.013 -0.0006  0.1002 -0.0557
21265W        W64203  25.040   7.331   9.992  0.1550 -0.1592  0.1796
21266W        W64204  26.190   5.416   7.197 -0.4191 -0.0629  0.1501
21267W        W64205  26.156   5.159  10.078  0.2360  0.1578 -0.3276
21268W        W64206  23.026   5.589  10.106 -0.0629 -0.3450 -0.1644
21269W        W64207  24.815   2.264   9.585  0.0800  0.2181 -0.2243
21270W        W64208  23.894   4.164  10.088 -0.0686  0.2251  0.1643
21271W        W64209  24.874   6.329   9.891 -0.0897 -0.1412  0.2492
21272W        W64210  22.495   6.119   7.349  0.1188  0.0991  0.1058
21273W        W64211  22.841   5.879   7.705  0.1011  0.0919 -0.0507
21274W        W64212  22.563   6.607   9.260 -0.1814  0.1715 -0.0188
21275W        W64213  19.669   3.504   9.874  0.1247  0.0241 -0.2625
21276W        W64214  22.103   5.522  10.308 -0.2274 -0.0529 -0.1271
21277W        W64215  24.909   6.494   8.413 -0.2100  0.0259  0.0039
21278W        W64216  23.554   5.083   8.978  0.0997 -0.0421 -0.1378
21279W        W64217  21.622   5.352   9.048 -0.0550  0.1525 -0.0581
21280W        W64218  24.980   5.649   8.400  0.1046 -0.0566 -0.1149
21281W        W64219  24.889   5.909   9.509 -0.3292 -0.0159  0.0787
21282W        W64220  24.354   5.804   9.658 -0.0245  0.2323 -0.0882
21283W        W64221  23.461   7.096   7.970  0.0766 -0.1240  0.0603
21284W        W64222  21.416   4.146   8.215 -0.0565  0.1197  0.1094
21285W        W64223  24.882   5.181   8.815 -0.2742  0.3534 -0.4061
21286W        W64224  24.741   7.454   8.492 -0.0735 -0.1313  0.1055
21287W        W64225  25.563   6.620   7.090 -0.2210 -0.1898 -0.0340
21288W        W64226  22.364   6.710  10.253  0.0363  0.1413 -0.0245
21289W        W64227  25.099   5.127   7.667  0.1803  0.1889  0.1978
21290W        W64228  26.104   6.813   7.967  0.0394  0.0475 -0.2072
21291W        W64229  25.882   3.546   9.789  0.1525 -0.2346  0.2146
21292W        W64230  24.481   4.398   8.168 -0.1362  0.1866  0.0392
21293W        W64231  25.788   6.490  10.404 -0.0242  0.1961 -0.1921
21294W        W64232  24.161   6.882   9.887 -0.0351  0.1475  0.2814
21295W        W64233  26.066   4.671   7.666 -0.2139  0.2167 -0.3396
21296W        W64234  24.680   7.882   8.810  0.0673  0.0003 -0.2527
21297W        W64235  22.589   4.720  10.292 -0.0773 -0.1681 -0.1045
21298W        W64236  23.861   4.328   8.628 -0.0778 -0.3643 -0.3093
21299W        W64237  23.501   6.434   9.277 -0.0871 -0.1064 -0.1946
21300W        W64238  24.150   4.827   7.614  0.1166  0.1608 -0.2282
21301W        W64239  25.471   5.966   7.851  0.1604  0.1141 -0.0916
21302W        W64240  24.515   6.524   9.588 -0.1965  0.2690  0.0352
21303W        W64241  24.970   8.325  10.032 -0.3118  0.3111 -0.0805
21304W        W64242  26.584   5.426  10.260 -0.0775  0.0342  0.0059
21305W        W64243  22.514   4.251   9.073 -0.0047  0.1229 -0.1800
21306W        W64244  23.871   6.975   8.875  0.0725  0.0136 -0.0261
21307W        W64245  25.307   7.101   8.746 -0.2053 -0.2327  0.0288
21308W        W64246  25.098   4.758   8.811 -0.0949  0.2413 -0.3354
21309W        W64247  21.712   5.738   9.431 -0.0029  0.0689 -0.0991
21310W        W64248  24.105   5.324   7.618 -0.3075  0.2474  0.0952
21311W        W64249  25.267   7.862  10.226  0.2598  0.1505  0.3915
21312W        W64250  25.635   8.620  10.321  0.1846  0.1565 -0.0672
21313W        W64251  22.908  10.329   3.653 -0.2096 -0.3822 -0.1462
21314W        W64252  22.328   8.955   1.585 -0.2203  0.1386  0.1830
21315W        W64253  23.639   6.579   0.193  0.1031  0.2305 -0.1641
21316W        W64254  25.152  10.304   0.217  0.0105  0.1220  0.1476
21317W        W64255  22.503   8.271   0.711 -0.0475  0.2012 -0.4265
21318W        W64256  24.111  10.501   0.982  0.0259 -0.0257 -0.2049
21319W        W64257  24.281   7.800   3.268  0.3945  0.3353  0.1649
21320W        W64258  24.118  10.519   1.937  0.0336 -0.0079  0.1188
21321W        W64259  25.365  10.578   2.771  0.1782 -0.0899  0.0579
21322W        W64260  23.665   8.382   0.021 -0.2508 -0.0549 -0.4576
21323W        W64261  24.146   9.078   2.497 -0.0338 -0.1052  0.1879
21324W        W64262  23.889  10.284   3.346  0.2532 -0.1496 -0.0073
21325W        W64263  23.724   7.815   1.232  0.0711  0.0364  0.0275
21326W        W64264  22.598   7.625   1.159  0.1072  0.1360 -0.0133
21327W        W64265  23.014   8.412   0.729 -0.1182  0.0618  0.0963
21328W        W64266  22.896   9.819   1.598  0.2332 -0.0587  0.3460
21329W        W64267  22.390   7.627   3.590  0.0589 -0.0573  0.0627
21330W        W64268  23.595   8.488   0.780 -0.0906  0.0421 -0.3667
21331W        W64269  23.726  11.745   0.930 -0.4354 -0.2172 -0.0290
21332W        W64270  23.464   8.410   3.471  0.0968  0.2177  0.0195
21333W        W64271  23.546   7.064   2.416  0.1998 -0.0965  0.4919
21334W        W64272  23.094   8.847   1.281 -0.0685 -0.1387  0.1554
21335W        W64273  22.647  10.041   0.511 -0.1948 -0.1234 -0.1940
21336W        W64274  22.224   9.992   2.499 -0.0417 -0.0404  0.3772
21337W        W64275  24.771   8.492   4.215 -0.2280 -0.2288 -0.2463
21338W        W64276  22.780   7.961   1.596 -0.3738  0.0151  0.1482
21339W        W64277  25.661   7.916   2.031  0.2976  0.0312  0.1464
21340W        W64278  23.939  10.950   2.814 -0.0714 -0.0386 -0.0498
21341W        W64279  22.000  11.497   1.072  0.0297 -0.1102 -0.2883
21342W        W64280  24.376   8.929   2.951  0.0640 -0.0113  0.1549
21343W        W64281  21.210  10.177   2.408 -0.3900 -0.0387 -0.1684
21344W        W64282  21.421  10.775   1.526 -0.1856 -0.0471  0.2348
21345W        W64283  22.277  10.601   2.077 -0.0634 -0.0533  0.0314
21346W        W64284  26.024   9.850   1.628 -0.1301 -0.1213 -0.3412
21347W        W64285  25.196   9.832   3.321 -0.2016  0.2076 -0.1777
21348W        W64286  24.988  10.565   3.668  0.2487  0.1499  0.2460
21349W        W64287  22.586  10.729  31.752  0.1429  0.2862  0.0683
21350W        W64288  23.830  11.163   2.364  0.2536 -0.1378  0.0460
21351W        W64289  24.048   9.995   3.774  0.2956  0.4102  0.0684
21352W        W64290  23.859  10.383   2.725  0.4773  0.0863  0.1643
21353W        W64291  24.489   7.569   2.392  0.0681 -0.1959 -0.2033
21354W        W64292  24.215  10.510  31.724  0.1007 -0.1065  0.5152
21355W        W64293  23.949   9.386   1.586 -0.3642 -0.1869  0.4152
21356W        W64294  23.886  10.629   4.282  0.0271 -0.2664 -0.1000
21357W        W64295  20.847   9.817   2.495 -0.1739 -0.0515 -0.0567
21358W        W64296  24.619   7.881   2.884  0.2509  0.3181  0.1962
21359W        W64297  22.204  11.200   0.663  0.1634  0.0394 -0.1900
21360W        W64298  24.634   9.203   0.998  0.2658  0.2336 -0.0358
21361W        W64299  23.073   9.470   0.092 -0.0386 -0.2043 -0.1065
21362W        W64300  23.577   9.086   2.348 -0.0896 -0.0408 -0.0375
21363W        W64301  22.821   8.086   1.143  0.0033  0.2356  0.0225
21364W        W64302  22.742  10.794   2.763 -0.3087  0.2897  0.2542
21365W        W64303  22.992   7.568   2.936 -0.2524 -0.1061 -0.0222
21366W        W64304  25.259  10.117   2.606 -0.2500 -0.2748  0.2053
21367W        W64305  25.577   9.654   1.686 -0.0982  0.1576  0.2711
21368W        W64306  23.619   8.251   2.825 -0.1338 -0.0656 -0.2653
21369W        W64307  21.681  10.377   2.283 -0.2241 -0.0254 -0.2236
21370W        W64308  22.011   8.262   0.650  0.0555 -0.1769 -0.0812
21371W        W64309  24.310  11.389  31.777 -0.3603  0.0851 -0.2750
21372W        W64310  25.733   9.742   1.231 -0.0920 -0.2373 -0.3016
21373W        W64311  23.483  11.856  31.506  0.0603 -0.1152 -0.0043
21374W        W64312  22.616   9.218   2.109 -0.1994 -0.2576 -0.1446
21375W        W64313  22.207   8.489   3.795 -0.1942  0.0781 -0.0681
21376W        W64314  23.197   9.981   3.491  0.1124 -0.1696  0.1882
21377W        W64315  22.618  10.301   1.313 -0.0696 -0.2938 -0.2621
21378W        W64316  25.878   9.457   2.746 -0.2167  0.2401 -0.1821
21379W        W64317  21.144  10.994   1.896  0.0095 -0.1648 -0.2375
21380W        W64318  25.236   8.075  31.896  0.2747  0.0210  0.0680
21381W        W64319  22.199   8.819   2.775  0.1938 -0.0972 -0.0221
21382W        W64320  24.725  10.024   2.238 -0.3649 -0.2624  0.1075
21383W        W64321  24.550   9.842   0.476  0.1199 -0.0430 -0.0977
21384W        W64322  25.352   7.897   1.097  0.3603 -0.1356 -0.1543
21385W        W64323  24.284   8.381   1.966  0.0306 -0.1187 -0.1009
21386W        W64324  21.059  11.311  31.917 -0.2283 -0.0731 -0.1306
21387W        W64325  23.498   9.229   1.882 -0.0324  0.1903  0.3277
21388W        W64326  23.868   9.479   2.549  0.0214 -0.0907 -0.0814
21389W        W64327  25.304   7.570  31.918 -0.1947  0.0343 -0.3487
21390W        W64328  21.553  10.284   1.383  0.0228  0.0560 -0.2778
21391W        W64329  23.986   8.388   3.240 -0.2245  0.1856 -0.3017
21392W        W64330  23.478  11.305   3.323 -0.2322  0.0016  0.0391
21393W        W64331  21.744  10.417   0.252  0.0957  0.2266 -0.0601
21394W        W64332  21.544   9.378   3.175 -0.0386 -0.2210 -0.0049
21395W        W64333  22.656   9.677   0.847 -0.0945  0.0796  0.4763
21396W        W64334  21.636   8.131   2.809  0.1200 -0.0033 -0.1821
21397W        W64335  23.013  11.083   3.515  0.0766 -0.0649  0.2320
21398W        W64336  23.968   8.788   0.917 -0.2386 -0.0601 -0.1175
21399W        W64337  23.077   8.316   3.940 -0.0425  0.2394  0.0987
21400W        W64338  24.273   9.056   1.849 -0.1535  0.2805  0.0803
21401W        W64339  20.931  10.040   1.850  0.0261 -0.0180  0.1473
21402W        W64340  24.943  10.705   1.044  0.2103  0.0610 -0.3734
21403W        W64341  25.477   9.224   1.068  0.0184  0.3465  0.0539
21404W        W64342  24.241  11.897  31.519  0.1536  0.1207 -0.2894
21405W        W64343  22.563   8.657   3.527 -0.1664  0.0012  0.2992
21406W        W64344  22.407   8.122   2.061 -0.1231 -0.0505 -0.0658
21407W        W64345  23.039   8.919   2.928 -0.2206 -0.0447  0.0608
21408W        W64346  22.879   8.259   2.059 -0.2926  0.0044  0.0209
21409W        W64347  23.855   8.870   3.215  0.0727 -0.2450 -0.0728
21410W        W64348  21.986   7.073   0.946 -0.1428  0.5039  0.0523
21411W        W64349  25.145   7.879   1.954 -0.2242  0.2433 -0.1253
21412W        W64350  19.970   9.598   1.643 -0.0506 -0.1321  0.1705
21413W        W64351  25.759   7.466   2.233  0.0806  0.1307 -0.1892
21414W        W64352  22.999  10.432   1.727 -0.1136 -0.2654  0.2301
21415W        W64353  24.581  12.892   2.051  0.3642 -0.3589  0.2083
21416W        W64354  25.221  11.700   1.791  0.2132 -0.5245 -0.1549
21417W        W64355  23.924   8.746   2.754 -0.1730 -0.0382 -0.1153
21418W        W64356  23.258   8.174   0.250 -0.1723 -0.1523  0.0092
21419W        W64357  23.591  10.689   3.044 -0.0274  0.3049  0.1889
21420W        W64358  23.487  10.602   1.183  0.3706  0.1954 -0.5831
21421W        W64359  22.272   8.397   0.159  0.0444  0.2212  0.1187
21422W        W64360  26.422  10.573   2.347 -0.3401  0.2169  0.3599
21423W        W64361  24.166  10.889   0.589  0.0904  0.0211  0.2905
21424W        W64362  22.432  10.057   3.565  0.2048  0.5393 -0.0125
21425W        W64363  25.108   8.916   1.170 -0.0333  0.1302  0.4109
21426W        W64364  26.666  10.392   2.816  0.3499  0.1917 -0.0884
21427W        W64365  24.917   7.053   0.712  0.1437 -0.1705 -0.0200
21428W        W64366  22.470   7.995  31.800 -0.1280 -0.2862 -0.3832
21429W        W64367  23.764  10.947   0.982 -0.3037  0.2182 -0.0819
21430W        W64368  22.606   9.870   0.030 -0.0735  0.2402  0.0960
21431W        W64369  22.102  10.108   1.026 -0.1045  0.2805 -0.3547
21432W        W64370  23.455  11.368   1.147 -0.0117 -0.0083 -0.1627
21433W        W64371  23.985   6.716   1.717 -0.2060  0.3615 -0.3549
21434W        W64372  22.531   9.865   5.103  0.0002 -0.0991  0.0270
21435W        W64373  25.091   7.975   3.723 -0.0697  0.1353  0.0680
21436W        W64374  22.408   9.212   0.679  0.0565 -0.2534 -0.0222
21437W        W64375  23.255  10.625   3.454 -0.0521  0.2126 -0.1871
21438W        W64376  23.545   7.327   0.353  0.0660 -0.1249  0.0255
21439W        W64377  25.333   7.091  31.661  0.3385 -0.1191 -0.5804
21440W        W64378  24.672   9.933   3.217 -0.1907  0.0511 -0.0604
21441W        W64379  25.686  11.083   0.656  0.2059 -0.0577  0.1660
21442W        W64380  23.515   9.248   1.387  0.1211  0.1006 -0.2152
21443W        W64381  24.831   7.673  31.672 -0.2880  0.0402 -0.1708
21444W        W64382  21.612  10.359   3.257 -0.1907 -0.1084  0.2669
21445W        W64383  24.374   9.446   0.684  0.1580  0.0348  0.1562
21446W        W64384  23.729  10.865   1.904  0.0815  0.1962 -0.1887
21447W        W64385  24.044   7.069   0.360 -0.2963 -0.3075  0.0217
21448W        W64386  24.628  11.439  31.293 -0.0298  0.1265 -0.0061
21449W        W64387  23.454   8.824   3.819 -0.0592 -0.0106  0.0464
21450W        W64388  25.762  10.303   3.841 -0.0863  0.0198  0.1390
21451W        W64389  24.426   9.945   1.468  0.2580 -0.1077  0.1063
21452W        W64390  23.720   7.456   2.617 -0.0829  0.2657 -0.0722
21453W        W64391  23.790  10.557  31.417  0.0200 -0.3575  0.1849
21454W        W64392  23.076   7.655   1.037 -0.0741 -0.5604  0.2255
21455W        W64393  22.069  10.686   0.574 -0.1342  0.1087 -0.2015
21456W        W64394  25.228   7.607   2.840  0.1112  0.2704  0.0418
21457W        W64395  23.149   6.720   2.295 -0.0829 -0.0431  0.0504
21458W        W64396  23.791   7.990   3.527 -0.2765 -0.0332  0.1053
21459W        W64397  26.214   8.359   4.418 -0.4040  0.0431 -0.2229
21460W        W64398  25.175   9.447   1.914  0.1019  0.0355  0.0703
21461W        W64399  23.665   8.298   1.587  0.2528 -0.0113  0.1067
21462W        W64400  23.383  10.085  30.331 -0.3691  0.1125 -0.2329
21463W        W64401  23.114   7.163   2.555 -0.1089  0.1490  0.1568
21464W        W64402  22.769   9.688   3.437 -0.0525 -0.3214  0.1351
21465W        W64403  23.184  10.983   2.986  0.0761  0.0704 -0.1198
21466W        W64404  25.741  10.001   2.565  0.0757  0.1343 -0.2521
21467W        W64405  22.535   9.063   1.101  0.0862 -0.0404  0.1782
21468W        W64406  23.585   8.253   3.905 -0.1545 -0.1421 -0.1610
21469W        W64407  23.008   7.871   0.596 -0.1165 -0.0965  0.0193
21470W        W64408  22.513  10.788   1.166  0.3392 -0.1773  0.1005
21471W        W64409  22.005  10.008   1.572 -0.0150 -0.1774  0.2604
21472W        W64410  22.390   7.228   1.939 -0.1075 -0.1123 -0.1239
21473W        W64411  24.042  10.726   2.384 -0.1408  0.1863 -0.2355
21474W        W64412  22.698   9.456  31.743  0.0560 -0.0101 -0.0186
21475W        W64413  25.658   8.822   1.338  0.1862 -0.3712 -0.1481
21476W        W64414  22.692  10.852   2.199  0.2213 -0.0244  0.1339
21477W        W64415  25.898   8.311   1.753 -0.1496  0.0374  0.1757
21478W        W64416  21.731   9.365   2.356  0.0588 -0.0611 -0.0882
21479W        W64417  21.716   8.668   0.579  0.2298  0.0826 -0.1509
21480W        W64418  22.077   9.911   0.191 -0.3006  0.0143 -0.0552
21481W        W64419  24.203   7.663   1.950  0.0688  0.2303 -0.2476
21482W        W64420  24.360   9.697  31.782  0.1117  0.0682 -0.0831
21483W        W64421  22.514   6.072   3.902 -0.1938 -0.1521 -0.1008
21484W        W64422  22.644   8.944   2.613 -0.1358  0.2422  0.1599
21485W        W64423  22.604  10.342   2.601  0.0459  0.1318  0.0309
21486W        W64424  23.297  10.544   4.329  0.0460 -0.1441 -0.0909
21487W        W64425  23.985   7.401  31.921 -0.0583 -0.2555  0.1059
21488W        W64426  24.972   9.773   1.650 -0.0866 -0.2191  0.0176
21489W        W64427  24.246   8.470   3.993  0.1766  0.0828 -0.0920
21490W        W64428  22.152   9.696   0.633 -0.2865 -0.1304  0.0988
21491W        W64429  25.488   7.988   2.618  0.0004 -0.1536 -0.2540
21492W        W64430  22.023   9.509   1.660  0.3845  0.1361  0.4858
21493W        W64431  22.259   9.527   1.075  0.0748  0.0455 -0.0278
21494W        W64432  23.223  11.509   2.772 -0.0324  0.1922 -0.1513
21495W        W64433  22.190   9.516   2.200 -0.2048 -0.2216  0.0503
21496W        W64434  22.987   9.615   2.085 -0.0053 -0.1463  0.3447
21497W        W64435  24.082   7.939   3.942 -0.0827 -0.0712  0.1076
21498W        W64436  22.944   8.674   2.313 -0.1954 -0.2002  0.0337
21499W        W64437  23.444   8.660   2.508 -0.0541  0.0332 -0.0035
21500W        W64438  23.580   7.470   0.827  0.0676  0.1654 -0.3363
21501W        W64439  22.585   8.384   2.526 -0.2433  0.0255  0.2376
21502W        W64440  22.786  10.172   2.185 -0.2986  0.1609 -0.2304
21503W        W64441  23.483   7.680   2.230 -0.0844 -0.0562  0.1771
21504W        W64442  23.147  10.083   4.194 -0.0320 -0.0506 -0.1050
21505W        W64443  23.879   7.354   2.141  0.0297  0.0713 -0.1193
21506W        W64444  23.690  12.200   0.654  0.1693 -0.1231  0.2767
21507W        W64445  23.023   9.986   2.551  0.3174 -0.0199  0.0415
21508W        W64446  24.011  10.399   0.446 -0.2368  0.0408  0.0210
21509W        W64447  21.308   9.718   3.497 -0.1386  0.0855  0.1401
21510W        W64448  22.798   8.880   1.761 -0.1767 -0.0238 -0.2858
21511W        W64449  23.363   7.850   2.706  0.3203  0.1161  0.0387
21512W        W64450  22.899   8.295   3.484  0.2316 -0.0971 -0.0460
21513W        W64451  23.745  10.301   2.180  0.0258 -0.2334 -0.1417
21514W        W64452  21.954  10.921   2.299 -0.1661 -0.0626 -0.1684
21515W        W64453  24.208   8.479   0.107 -0.3161  0.1510  0.0796
21516W        W64454  24.556  10.523   0.261 -0.1860  0.0784 -0.0592
21517W        W64455  24.110   8.036   1.609  0.0913  0.1235 -0.1795
21518W        W64456  26.057   7.820   1.791  0.1173  0.0223 -0.2733
21519W        W64457  23.533   9.595   0.867 -0.2293  0.3289 -0.3026
21520W        W64458  25.948   7.851   2.475 -0.0088 -0.0339  0.2302
21521W        W64459  23.980   6.896   4.149 -0.2406 -0.1126 -0.1698
21522W        W64460  25.205  11.206   1.480  0.0159 -0.0212  0.2865
21523W        W64461  22.628   8.617   3.010  0.0667  0.2709  0.1220
21524W        W64462  24.596  10.221   5.077  0.0231  0.1694 -0.0441
21525W        W64463  23.499   9.651   3.781  0.0233  0.0861 -0.1056
21526W        W64464  23.019   9.248   0.863 -0.0182  0.0239  0.0143
21527W        W64465  22.272   7.363   0.367 -0.5090  0.0694  0.0783
21528W        W64466  24.398   8.685   2.491 -0.1146  0.0730 -0.0184
21529W        W64467  24.841   9.020   2.122 -0.2102 -0.0144  0.0725
21530W        W64468  23.220  10.001  31.794 -0.2535  0.3724  0.1893
21531W        W64469  23.537   8.663   1.298 -0.2008  0.0404  0.0950
21532W        W64470  23.567   9.231   3.454 -0.0700  0.0608 -0.0071
21533W        W64471  23.315   8.700   1.802  0.1754  0.0385 -0.4649
21534W        W64472  23.949   9.683   0.621 -0.3527  0.2222 -0.1990
21535W        W64473  23.097   9.083   2.090 -0.1024 -0.1356  0.1838
21536W        W64474  22.634   8.066   4.375  0.0255  0.4221  0.0538
21537W        W64475  22.535   9.062   3.155  0.0402 -0.0744 -0.0090
21538W        W64476  24.588   7.736   1.400 -0.0949 -0.1910 -0.0711
21539W        W64477  24.619   6.988   2.389 -0.0368  0.2021  0.2005
21540W        W64478  24.858   9.563   2.928  0.1841 -0.2651  0.1194
21541W        W64479  23.084   8.435   2.915  0.2309 -0.1501  0.0970
21542W        W64480  23.029   9.114   4.389 -0.2007  0.2311  0.0060
21543W        W64481  24.829  10.493   2.665  0.0169 -0.4369 -0.0422
21544W        W64482  24.476   9.587  31.312  0.0377  0.0867 -0.0844
21545W        W64483  24.693   8.083   3.301  0.0163 -0.0437  0.1600
21546W        W64484  24.706   8.976   1.638 -0.1213  0.1859  0.2576
21547W        W64485  23.856   9.862   1.741 -0.2454 -0.2886  0.2444
21548W        W64486  22.523   9.405   1.575  0.2407 -0.1392 -0.0230
21549W        W64487  25.558   8.991   3.991  0.1924  0.0714  0.1697
21550W        W64488  23.272   8.000   1.882  0.0863 -0.2261 -0.1597
21551W        W64489  24.815   7.238   4.001  0.2236  0.2556 -0.0354
21552W        W64490  24.245  11.023   0.122 -0.0656 -0.0456 -0.1089
21553W        W64491  24.930  10.300   1.833 -0.1361 -0.3583 -0.1798
21554W        W64492  23.745   8.883   1.679 -0.1070 -0.5608  0.0530
21555W        W64493  21.733   9.036   2.734  0.4515 -0.0095  0.1050
21556W        W64494  21.349  10.405   4.437  0.0693 -0.1819 -0.0794
21557W        W64495  22.843   9.408  31.114  0.1010 -0.1823  0.2587
21558W        W64496  24.418   9.081   0.110 -0.0050 -0.4786 -0.2426
21559W        W64497  24.560  10.537   2.198  0.0509 -0.0297  0.1625
21560W        W64498  25.340   9.676   2.785 -0.0676 -0.2451 -0.1533
21561W        W64499  23.342   8.216   1.162  0.0599 -0.1425 -0.1527
21562W        W64500  24.682   9.106   2.583 -0.0695  0.1549 -0.0321
21563W        W64501  22.591  10.767   1.643  0.0465 -0.3950 -0.1419
21564W        W64502  24.494   6.933   2.984 -0.0751  0.2974 -0.1269
21565W        W64503  23.066  11.538   3.254  0.1847  0.5440  0.1649
21566W        W64504  21.379   9.631   2.776 -0.3022 -0.2498  0.3272
21567W        W64505  23.936   9.933   2.827 -0.2273  0.2403 -0.3678
21568W        W64506  24.108   7.059   2.616 -0.2303  0.1511  0.2570
21569W        W64507  23.725   8.587   2.109  0.0467  0.0590  0.0793
21570W        W64508  23.544   9.113   2.835 -0.0486  0.0916 -0.1335
21571W        W64509  24.726   8.891   3.688 -0.1036 -0.4343 -0.2567
21572W        W64510  24.349   9.663   2.820 -0.1140  0.0488 -0.0225
21573W        W64511  22.741   9.490   2.927 -0.0048 -0.0405 -0.2228
21574W        W64512  24.304  10.232   3.008  0.1385 -0.0760 -0.5054
21575W        W64513  24.917   9.573   2.359  0.0307 -0.3152  0.0852
21576W        W64514  23.420   8.190   2.313 -0.0470 -0.1611 -0.0203
21577W        W64515  23.134   9.254   3.899 -0.0318  0.3922 -0.3632
21578W        W64516  23.798   7.865   2.985 -0.4991  0.0751 -0.0860
21579W        W64517  24.302  10.009   1.974 -0.1439 -0.1326 -0.1998
21580W        W64518  23.050   8.407   1.515 -0.0817 -0.2318  0.2391
21581W        W64519  23.291  10.156   1.315 -0.1401  0.1955  0.1351
21582W        W64520  22.935   9.734   3.952  0.1979 -0.1725 -0.2168
21583W        W64521  22.935   7.988   2.439 -0.1252  0.1578  0.0067
21584W        W64522  21.987  10.642   1.050 -0.1109  0.1865 -0.0670
21585W        W64523  24.045  11.360   0.612  0.1745 -0.0499  0.0333
21586W        W64524  23.566   9.581  31.809  0.0443  0.1327  0.1803
21587W        W64525  24.661  10.014   2.725  0.2112  0.3236  0.1793
21588W        W64526  23.377   9.764   1.688 -0.0815 -0.2421  0.0184
21589W        W64527  22.605   9.647   2.399 -0.1326 -0.0716 -0.2120
21590W        W64528  22.742   9.818  31.385 -0.1101  0.4586  0.0529
21591W        W64529  24.659  10.847   1.561  0.0698  0.0086 -0.2840
21592W        W64530  22.909  11.146   1.868  0.0896 -0.0033 -0.1768
21593W        W64531  24.756  10.901   3.973  0.3388  0.0780 -0.2991
21594W        W64532  24.771   8.104  30.939  0.0551 -0.0142  0.0457
21595W        W64533  25.029   8.013   1.438 -0.1479 -0.0324 -0.1530
21596W        W64534  24.477   8.213   1.177  0.0872  0.3566  0.2753
21597W        W64535  25.072  10.216   3.065 -0.1074 -0.0167 -0.0491
21598W        W64536  23.049   9.319   3.348  0.0203 -0.0630 -0.0088
21599W        W64537  23.432   9.342   0.450 -0.2710  0.1321 -0.0509
21600W        W64538  23.805   8.744   4.169  0.2604 -0.0594  0.0750
21601W        W64539  25.557   8.369   3.523 -0.0674 -0.0145 -0.1439
21602W        W64540  22.560  10.408   3.254  0.1330 -0.0967 -0.0179
21603W        W64541  24.701  11.294   1.373  0.0152  0.0996  0.1714
21604W        W64542  22.496  10.295   1.811 -0.1385  0.0020 -0.0072
21605W        W64543  22.423   9.852   1.461 -0.0708  0.3789 -0.0294
21606W        W64544  26.355   8.451   3.076 -0.2362 -0.1604  0.0978
21607W        W64545  23.996  10.237   1.466  0.2153  0.0008  0.0078
21608W        W64546  23.405   9.581   2.320 -0.1092 -0.0510  0.0834
21609W        W64547  22.959  10.346   3.007 -0.0093  0.0519 -0.2475
21610W        W64548  23.687   9.859   3.392  0.1641  0.2984  0.0591
21611W        W64549  22.523  10.934   3.412  0.0272  0.1068  0.0734
21612W        W64550  21.805   9.364   0.312  0.2579  0.0743 -0.0614
21613W        W64551  25.153   8.800   1.660 -0.1427 -0.0255  0.0934
21614W        W64552  24.823   8.428   3.684 -0.2798  0.1074  0.4313
21615W        W64553  24.757   8.515   2.169  0.2780 -0.0764  0.0895
21616W        W64554  23.096   9.344   1.625  0.1338 -0.1036 -0.0065
21617W        W64555  25.004   8.691   0.703  0.1739 -0.1431  0.1777
21618W        W64556  24.303  10.236   2.483 -0.1102  0.1504 -0.1280
21619W        W64557  23.051   8.791   3.458  0.2939 -0.2567  0.0116
21620W        W64558  22.358   9.474  31.254 -0.0912  0.0114  0.0246
21621W        W64559  24.901   9.479   3.471 -0.1415 -0.1640 -0.0606
21622W        W64560  24.408   8.919   0.659 -0.2705 -0.3745  0.4382
21623W        W64561  24.453  11.349   3.984 -0.1580 -0.1266 -0.0113
21624W        W64562  22.701   8.557   1.180 -0.1147  0.0099  0.0917
21625W        W64563  23.110   9.274   2.552  0.2661 -0.3007 -0.2443
21626W        W64564  21.754  10.599   1.811 -0.1991  0.0370  0.1538
21627W        W64565  22.822   7.687   2.043  0.1064 -0.0543 -0.0988
21628W        W64566  24.365  10.977   3.647  0.0848 -0.0035  0.2048
21629W        W64567  22.037   7.116   2.310 -0.1257  0.0035 -0.0948
21630W        W64568  24.763   9.954   0.075 -0.1078  0.4155 -0.0085
21631W        W64569  26.201   8.850   2.633  0.1445 -0.0670 -0.0152
21632W        W64570  23.085  10.797  31.898 -0.0300 -0.0358 -0.1146
21633W        W64571  24.166   8.558   1.420 -0.1799  0.1007  0.1461
21634W        W64572  26.825  10.322   2.339  0.0694  0.2968 -0.1156
21635W        W64573  21.918   7.905   2.103 -0.2089 -0.3890  0.0296
21636W        W64574  24.910   8.732   2.806  0.0993  0.0978 -0.1378
21637W        W64575  25.265   9.926   2.066 -0.2424  0.0424 -0.0576
21638W        W64576  24.223   7.772   0.931 -0.3326 -0.0704 -0.0046
21639W        W64577  23.506  10.048   2.602  0.0539 -0.1006  0.1516
21640W        W64578  22.562  11.447   1.644 -0.0017  0.1580 -0.2403
21641W        W64579  23.813   8.067   2.045 -0.4443  0.0792 -0.2441
21642W        W64580  23.957   8.329   2.506  0.1561  0.1400  0.0173
21643W        W64581  23.480  11.341   0.603  0.2256  0.0331  0.1275
21644W        W64582  25.149   7.496   3.700  0.1554  0.1946  0.0300
21645W        W64583  23.660  11.679   1.481  0.2786 -0.0114 -0.1727
21646W        W64584  25.912   9.678   5.451 -0.0777  0.3357 -0.0008
21647W        W64585  21.868   9.202   1.283  0.1253  0.3495  0.1047
21648W        W64586  23.259  10.863   3.896  0.0900 -0.3473  0.2744
21649W        W64587  23.285  10.079   2.089  0.0411  0.3589 -0.2627
21650W        W64588  23.193   9.625   1.226 -0.3003 -0.1220  0.1971
21651W        W64589  25.482  10.086   1.449  0.1057  0.1630  0.1199
21652W        W64590  23.931   9.270   0.968 -0.0828  0.1203  0.0036
21653W        W64591  26.712  10.576   1.956  0.1055  0.0945  0.1111
21654W        W64592  22.458   8.718   2.169  0.1130 -0.1644  0.0731
21655W        W64593  25.694   6.625   0.842 -0.2278 -0.1083 -0.0378
21656W        W64594  24.251   6.888   0.974 -0.0795  0.4326  0.0188
21657W        W64595  23.507   9.580   2.946 -0.3599  0.5039  0.0627
21658W        W64596  22.267   8.729   0.681  0.1073  0.0077  0.1398
21659W        W64597  22.788  10.258  31.666 -0.0556 -0.1170  0.1159
21660W        W64598  23.977   9.916   2.313  0.3114  0.0736  0.1752
21661W        W64599  23.951   7.739   4.431  0.0213 -0.2878 -0.5063
21662W        W64600  23.810   7.361   3.761 -0.1193  0.0681 -0.0445
21663W        W64601  22.011   9.222   3.136  0.0847 -0.0171  0.0711
21664W        W64602  22.903   8.687   0.274  0.0166  0.0678  0.1056
21665W        W64603  25.613  10.953   1.628 -0.2402  0.0274  0.0569
21666W        W64604  22.573   6.926   1.601  0.0498  0.2405 -0.0343
21667W        W64605  21.372   8.462   1.394 -0.1916 -0.0334  0.0359
21668W        W64606  24.498  10.402   1.303 -0.1217 -0.0513  0.0097
21669W        W64607  24.201  11.277   1.638 -0.0719 -0.2756  0.0302
21670W        W64608  22.469   9.815   1.925  0.2278 -0.2187 -0.1353
21671W        W64609  26.002  10.506   2.681 -0.1249 -0.0347 -0.0956
21672W        W64610  22.518  10.550   0.759 -0.1068  0.2130 -0.1038
21673W        W64611  25.627   6.811   3.951 -0.1652 -0.5182 -0.2428
21674W        W64612  24.191   8.108   2.859 -0.1357  0.3349 -0.0500
21675W        W64613  22.601   9.062   0.032 -0.0441  0.0993 -0.1139
21676W        W64614  23.982   9.327   3.018  0.0162 -0.0871 -0.0587
21677W        W64615  23.771  10.909   0.306 -0.1907  0.1557  0.0148
21678W        W64616  24.468  10.908   1.096 -0.3246 -0.2847 -0.1349
21679W        W64617  23.043   9.843   3.029  0.1625 -0.0287 -0.0547
21680W        W64618  23.606  11.015   4.225 -0.1549  0.2606 -0.3642
21681W        W64619  22.581   8.129   3.832 -0.0229 -0.1977 -0.1842
21682W        W64620  23.793   9.736   1.228  0.1271 -0.0714 -0.1185
21683W        W64621  24.147   9.731   3.266  0.0613  0.1115  0.1057
21684W        W64622  25.295   9.850  31.891 -0.0544 -0.0273  0.0651
21685W        W64623  24.394   8.116   2.373  0.2192  0.0889 -0.0843
21686W        W64624  24.465   9.488   2.222  0.0638  0.0267 -0.4134
21687W        W64625  21.907   6.838   4.087  0.0784  0.0621  0.1703
21688W        W64626  22.265   9.383   2.687  0.0649  0.0081  0.3114
21689W        W64627  26.723   9.633   2.231 -0.0178 -0.0763  0.2831
21690W        W64628  22.332   7.322   1.395  0.1794  0.1832  0.2485
21691W        W64629  23.435   7.946   0.720 -0.0083  0.0787  0.1331
21692W        W64630  24.849  10.800   0.571 -0.1878 -0.0711 -0.2614
21693W        W64631  22.314   9.609   3.194  0.0796  0.1541 -0.1615
21694W        W64632  23.940   8.233   1.093  0.2793  0.0017  0.1756
21695W        W64633  24.516   9.758   3.667 -0.0402 -0.0843 -0.0573
21696W        W64634  23.365  11.202   2.047 -0.0670 -0.1225  0.1401
21697W        W64635  24.963   8.227   2.790 -0.0181 -0.1109  0.3520
21698W        W64636  24.318   9.019   1.326  0.0971  0.3033  0.2521
21699W        W64637  25.917   9.668  31.531 -0.0323  0.1315  0.0867
21700W        W64638  25.304  11.565   5.443 -0.5428 -0.0775 -0.2360
21701W        W64639  25.139  10.982   2.482 -0.1541 -0.0020  0.1394
21702W        W64640  24.215  11.316   2.667 -0.0466 -0.3458  0.1627
21703W        W64641  26.116  10.205   2.145  0.1025  0.1192 -0.2420
21704W        W64642  23.285   7.395   3.539 -0.1242 -0.1127 -0.2740
21705W        W64643  22.666   9.461   0.351  0.4574  0.0900  0.0336
21706W        W64644  22.072  10.125   2.038 -0.2688  0.2406  0.0713
21707W        W64645  24.496   8.433   2.958 -0.1016  0.0822  0.2778
21708W        W64646  22.517   8.479   1.646 -0.4372  0.2031 -0.0901
21709W        W64647  24.594   7.351   1.063  0.1305  0.0724 -0.1431
21710W        W64648  24.366   9.313   3.365 -0.2793 -0.3494  0.3561
21711W        W64649  23.976   9.371   2.068  0.0613  0.1358 -0.1178
21712W        W64650  22.162   9.727   7.705 -0.0157  0.3015 -0.0197
21713W        W64651  23.825   9.658   4.214 -0.2573 -0.0064  0.0195
21714W        W64652  24.833   9.097   3.144 -0.1897  0.3051  0.0385
21715W        W64653  25.312   9.653   5.075  0.1758  0.0621 -0.0186
21716W        W64654  22.594   9.327   5.361 -0.3510 -0.2766  0.0588
21717W        W64655  25.836  10.295   4.903  0.3652 -0.0995 -0.2795
21718W        W64656  23.089   8.669   5.959 -0.0216  0.4924 -0.0821
21719W        W64657  24.510  11.424   6.944 -0.0088  0.3106  0.0094
21720W        W64658  25.667  10.237   5.868  0.0209 -0.1191 -0.2205
21721W        W64659  25.010   9.525   4.023 -0.0754 -0.0726  0.2208
21722W        W64660  23.968   8.232   6.488  0.1169  0.1539  0.1180
21723W        W64661  24.169  10.292   6.361  0.2504 -0.1947 -0.3158
21724W        W64662  23.021   6.847   5.341  0.0341  0.0076  0.0728
21725W        W64663  20.535   6.979   6.119  0.0641 -0.1906 -0.2509
21726W        W64664  24.334   8.957   6.929  0.3027 -0.1905 -0.1818
21727W        W64665  22.199  10.077   4.482 -0.2723  0.0390 -0.3558
21728W        W64666  23.462   7.736   5.529  0.0968 -0.2380 -0.0783
21729W        W64667  24.340   8.219   5.637  0.0362  0.0960 -0.1403
21730W        W64668  24.055  10.971   4.616 -0.0586  0.2456 -0.2379
21731W        W64669  23.584   9.589   6.798  0.1450 -0.0631 -0.0229
21732W        W64670  25.094   6.847   6.176  0.0431 -0.0186 -0.2995
21733W        W64671  24.532   9.279   3.975  0.0515 -0.0786  0.0700
21734W        W64672  22.042   9.259   3.994  0.2838  0.0901 -0.0918
21735W        W64673  21.663   9.225   6.890 -0.0864  0.1365 -0.1963
21736W        W64674  23.071   8.810   6.537  0.0491 -0.1390 -0.4136
21737W        W64675  24.665   7.678   6.379 -0.0921 -0.0436 -0.0938
21738W        W64676  26.615   9.713   6.897 -0.4892  0.2064 -0.1152
21739W        W64677  24.288  10.531   5.310 -0.1127 -0.1401 -0.2346
21740W        W64678  24.501  11.280   5.104  0.1854  0.6983 -0.1639
21741W        W64679  25.929   8.411   6.693  0.1882 -0.3240 -0.0860
21742W        W64680  22.909   8.982   5.459  0.2737  0.4393 -0.6491
21743W        W64681  21.691  10.879   3.326  0.2964  0.1499 -0.1210
21744W        W64682  24.099   9.873   4.671 -0.1160  0.1807 -0.0204
21745W        W64683  26.529  10.132   5.437 -0.0467  0.2219 -0.1849
21746W        W64684  26.306  11.064   6.244 -0.1386 -0.2642 -0.3589
21747W        W64685  23.125  10.360   7.040 -0.2240 -0.0251 -0.1675
21748W        W64686  24.447   9.328   4.531  0.2782 -0.3026 -0.1372
21749W        W64687  24.415  11.600   7.893  0.1173  0.1361  0.0994
21750W        W64688  23.623  12.461   6.731 -0.0314  0.0240  0.2518
21751W        W64689  25.004   9.044   7.302 -0.1737  0.0426  0.2195
21752W        W64690  23.483   9.915   5.322  0.0206  0.2700 -0.0354
21753W        W64691  24.350   8.573   4.622 -0.2479 -0.4308  0.0166
21754W        W64692  25.670   9.966   6.509 -0.2153  0.2289 -0.0641
21755W        W64693  23.711  10.210   8.279 -0.2528 -0.2276  0.1888
21756W        W64694  22.317  10.824   4.177  0.3040  0.1103 -0.1300
21757W        W64695  24.971   7.294   7.309 -0.1433 -0.0759 -0.3025
21758W        W64696  23.487   9.003   4.696  0.2576 -0.0254  0.1580
21759W        W64697  25.971   8.618   5.801  0.2041 -0.1559 -0.3715
21760W        W64698  21.857   7.046   4.993 -0.0663  0.0004  0.0810
21761W        W64699  24.570   8.022   3.975  0.4206 -0.1442  0.2825
21762W        W64700  23.327   6.487   6.230 -0.2315 -0.1153 -0.2542
21763W        W64701  23.557  11.838   5.342 -0.0670  0.0572 -0.0627
21764W        W64702  23.024   7.785   6.954 -0.0650  0.0438  0.2748
21765W        W64703  26.244   8.576   8.733 -0.0443  0.0755 -0.0896
21766W        W64704  24.101   8.531   6.108 -0.1584 -0.1709 -0.1449
21767W        W64705  24.026   8.667   5.616 -0.2521 -0.2134 -0.1092
21768W        W64706  23.494  12.032   6.531 -0.1499 -0.1020  0.1811
21769W        W64707  22.980   8.121   6.136 -0.1015 -0.0440  0.0094
21770W        W64708  24.914  10.055   3.800 -0.2672 -0.2079 -0.2328
21771W        W64709  26.081  10.426   5.438  0.1671 -0.1220  0.2126
21772W        W64710  23.928  11.282   3.238  0.2369  0.1428  0.0493
21773W        W64711  20.724   7.320   5.141 -0.1914  0.0567 -0.1435
21774W        W64712  22.599  10.363   6.112 -0.3628  0.0803  0.0808
21775W        W64713  22.710   9.794   6.760  0.3338  0.0114 -0.1463
21776W        W64714  23.154   7.281   4.018  0.2795  0.3827 -0.3398
21777W        W64715  27.914  10.150   6.789  0.2475  0.0746  0.0292
21778W        W64716  21.967  10.382   7.363 -0.0753  0.1891 -0.3397
21779W        W64717  25.821   8.385   4.773  0.1981  0.3820 -0.2319
21780W        W64718  23.506  10.853   5.586  0.0457 -0.1202 -0.0822
21781W        W64719  24.016  11.563   7.086 -0.0889 -0.5044 -0.1269
21782W        W64720  25.211   9.007   3.680  0.2032 -0.0108  0.1609
21783W        W64721  26.117   7.854   5.342  0.1265  0.1863 -0.0386
21784W        W64722  24.862   8.159   6.361  0.0136  0.0848 -0.0994
21785W        W64723  23.090   9.561   5.323 -0.3533  0.2588 -0.5129
21786W        W64724  22.792   8.451   5.159 -0.1001  0.1565 -0.0547
21787W        W64725  25.819  10.741   6.719 -0.2921  0.1240 -0.1259
21788W        W64726  24.418  10.302   4.024 -0.2100  0.1066  0.0751
21789W        W64727  22.822  11.198   5.791  0.2283  0.0426  0.0315
21790W        W64728  24.740   7.806   7.466 -0.0542  0.2056  0.0554
21791W        W64729  24.154   9.853   7.004 -0.2989  0.2220 -0.1919
21792W        W64730  20.282  10.235   3.887 -0.2916  0.2774  0.0455
21793W        W64731  22.368   9.836   5.978  0.3107 -0.3500 -0.1510
21794W        W64732  22.106   9.153   4.545 -0.0430 -0.0146 -0.0437
21795W        W64733  22.160   7.106   6.643 -0.1168 -0.2188  0.0770
21796W        W64734  23.920  10.639   6.648 -0.0282 -0.1289 -0.0972
21797W        W64735  25.363   8.117   4.693  0.1012 -0.0013 -0.1011
21798W        W64736  23.059   7.371   7.655 -0.0094 -0.0220  0.1780
21799W        W64737  25.376   6.760   4.481  0.2711 -0.0208 -0.0703
21800W        W64738  23.584  10.265   3.815  0.2532 -0.1071 -0.0730
21801W        W64739  24.647  12.016   4.541  0.0301  0.0189 -0.1039
21802W        W64740  25.235   8.604   4.018 -0.3130  0.1788 -0.0081
21803W        W64741  24.583   9.782   4.595  0.0166 -0.1345 -0.1944
21804W        W64742  25.043   8.576   6.472 -0.0189 -0.0589 -0.1426
21805W        W64743  22.129   8.442   5.676 -0.0376  0.2069  0.3492
21806W        W64744  22.335   7.548   6.521  0.3359 -0.2220  0.1948
21807W        W64745  21.736   7.443   4.718 -0.1247  0.2281  0.1991
21808W        W64746  25.766   9.041   6.614 -0.0878  0.0463  0.1650
21809W        W64747  22.181   7.893   5.186 -0.0999  0.2913  0.0601
21810W        W64748  24.691   8.815   5.627 -0.0335  0.3222  0.2391
21811W        W64749  22.179   9.225   5.974  0.1803 -0.1728 -0.3282
21812W        W64750  20.201   9.896   5.059  0.1077 -0.2274 -0.1226
21813W        W64751  24.271   6.907   7.721  0.1237 -0.0301  0.2306
21814W        W64752  24.845  10.455   4.242 -0.1896 -0.0677  0.0954
21815W        W64753  25.217  10.483   6.899  0.2915 -0.1280 -0.0244
21816W        W64754  25.483  10.992   4.824  0.1539 -0.1937  0.1218
21817W        W64755  22.529   8.171   5.998 -0.1140 -0.3141 -0.1740
21818W        W64756  23.353   6.050   5.439 -0.1200  0.1937 -0.0615
21819W        W64757  22.172  11.925   5.789  0.2672 -0.0649 -0.2003
21820W        W64758  23.099  10.571   5.248  0.3114  0.2265  0.0537
21821W        W64759  22.898   7.323   5.467  0.4461 -0.2197  0.1049
21822W        W64760  26.158  11.080   5.496  0.1626 -0.1222 -0.2231
21823W        W64761  24.514   7.609   4.334  0.1858 -0.1462 -0.0814
21824W        W64762  22.380  11.198   6.792  0.2159  0.0563  0.1357
21825W        W64763  25.514   7.655   6.435  0.0617 -0.1751 -0.1773
21826W        W64764  26.084   9.811   6.277 -0.1610 -0.4383 -0.1060
21827W        W64765  26.855   8.488   5.752 -0.1649 -0.0470  0.0028
21828W        W64766  23.474   8.859   5.473 -0.1326  0.2953 -0.3164
21829W        W64767  24.725  10.845   6.086 -0.1651 -0.0900  0.1418
21830W        W64768  21.381  11.238   3.184  0.2313  0.1182  0.1435
21831W        W64769  21.708   8.716   3.855 -0.0166  0.1485  0.2562
21832W        W64770  23.343  10.145   4.878 -0.0449 -0.0768 -0.0691
21833W        W64771  25.304   8.096   5.216  0.1331  0.0800  0.2583
21834W        W64772  22.102   8.534   8.206 -0.0021  0.0083  0.1218
21835W        W64773  24.637   8.284   7.236 -0.1017 -0.0083 -0.1644
21836W        W64774  22.894   8.585   4.633 -0.1916 -0.3533  0.1332
21837W        W64775  22.334  10.500   6.595 -0.2262  0.1441  0.2696
21838W        W64776  25.577   7.286   3.871 -0.1311  0.3055  0.1639
21839W        W64777  25.696   8.023   3.079  0.3103  0.1212 -0.0242
21840W        W64778  24.951  11.277   6.755  0.0154  0.3125 -0.2464
21841W        W64779  25.165  10.281   5.703 -0.0778  0.1326  0.3297
21842W        W64780  25.328   8.128   4.177 -0.2451  0.1131 -0.0320
21843W        W64781  24.946   7.020   4.570 -0.2058  0.1304  0.0836
21844W        W64782  22.459  10.741   7.867 -0.1710 -0.3300  0.3801
21845W        W64783  25.522   8.411   5.564 -0.4040 -0.0587  0.2162
21846W        W64784  23.999   9.028   5.093 -0.1869  0.1181 -0.5019
21847W        W64785  24.294   7.429   3.925 -0.0579  0.0643 -0.0044
21848W        W64786  25.846  10.661   4.468  0.0442 -0.2014  0.0992
21849W        W64787  23.299   8.189   4.357  0.0640  0.0701  0.1810
21850W        W64788  24.372   9.432   6.671 -0.0597 -0.1823 -0.3298
21851W        W64789  24.351   9.438   6.113  0.1123 -0.0683  0.2105
21852W        W64790  24.226   7.664   6.082 -0.3597 -0.2212  0.0923
21853W        W64791  23.417   8.711   3.119  0.0202  0.0670 -0.4509
21854W        W64792  22.296   6.661   5.909 -0.0624  0.0330 -0.1047
21855W        W64793  20.144  10.119   4.366  0.0460 -0.0142  0.2878
21856W        W64794  25.066   7.749   6.139  0.0599 -0.0566  0.2530
21857W        W64795  23.614   8.596   5.900  0.0089 -0.1187  0.2574
21858W        W64796  24.691   7.215   6.173 -0.1642 -0.1921  0.0268
21859W        W64797  25.111   7.763   7.151 -0.3196 -0.2702 -0.3574
21860W        W64798  25.017   8.444   5.466 -0.3567 -0.0617 -0.2093
21861W        W64799  25.584   8.648   6.344 -0.0246  0.0875  0.1132
21862W        W64800  22.639  10.129   4.065 -0.1138 -0.1970 -0.1668
21863W        W64801  25.367   9.166   6.905  0.2100 -0.1864  0.3473
21864W        W64802  24.674  10.362   5.667 -0.1275  0.1061  0.0703
21865W        W64803  21.767  11.678   6.051 -0.1281  0.0475 -0.1073
21866W        W64804  25.311  10.980   6.991 -0.1059  0.2740  0.0941
21867W        W64805  25.492  10.076   5.389  0.2594  0.2283  0.4700
21868W        W64806  23.882   6.745   7.215 -0.1112  0.0685  0.0056
21869W        W64807  25.245   7.164   4.247  0.1174  0.2287  0.1312
21870W        W64808  24.073   9.242   4.238 -0.3084 -0.0464 -0.1535
21871W        W64809  23.833   9.530   5.161  0.1140 -0.3565  0.1330
21872W        W64810  23.751   8.183   5.534  0.3614 -0.1785 -0.1095
21873W        W64811  23.688  10.196   6.157 -0.2093  0.0167 -0.1370
21874W        W64812  22.051  10.368   4.074 -0.2040 -0.2625  0.0970
21875W        W64813  24.827  11.906   6.050  0.1588 -0.0848  0.2764
21876W        W64814  23.563  10.125   4.446  0.0144  0.0441  0.4054
21877W        W64815  24.869   7.008   5.579 -0.0515 -0.1363 -0.2162
21878W        W64816  19.564   9.394   4.674 -0.1519 -0.2658  0.1570
21879W        W64817  23.424   8.166   5.185  0.1514  0.2042 -0.0055
21880W        W64818  21.688   8.727   5.626  0.0692  0.1075 -0.5681
21881W        W64819  25.419   7.646   4.330  0.0371 -0.3229 -0.0411
21882W        W64820  24.335   8.691   3.406  0.1478 -0.1017  0.2101
21883W        W64821  22.666   8.197   6.933  0.1755 -0.0099 -0.1343
21884W        W64822  24.411   8.135   6.125 -0.0898  0.0935  0.1496
21885W        W64823  21.712  10.037   4.673  0.0536 -0.1017  0.2576
21886W        W64824  24.631   8.791   6.153 -0.1266 -0.1709 -0.0746
21887W        W64825  25.360   9.076   4.448  0.2458  0.2411  0.1744
21888W        W64826  24.308   9.713   4.120  0.0705  0.1761 -0.0551
21889W        W64827  21.724   9.869   7.515  0.3270 -0.1434 -0.1922
21890W        W64828  22.211   8.252   4.242  0.3665  0.1722  0.3004
21891W        W64829  26.056   9.740   6.789 -0.1037  0.1651  0.0676
21892W        W64830  22.694   9.783   5.568 -0.0329  0.0447 -0.2967
21893W        W64831  21.743   8.986   6.043 -0.0997  0.0160 -0.1499
21894W        W64832  24.576  10.463   7.290  0.0449  0.3288  0.0951
21895W        W64833  22.944   9.705   4.877  0.0092  0.1045 -0.1710
21896W        W64834  23.730  10.606   5.192 -0.1139  0.1824  0.5243
21897W        W64835  22.744   8.971   7.402 -0.1534 -0.0963  0.4183
21898W        W64836  25.955  10.869   7.509  0.0577  0.2427 -0.2253
21899W        W64837  23.009   9.081   5.009  0.2085 -0.1186  0.3218
21900W        W64838  22.645   8.575   5.744  0.0399  0.0745  0.2112
21901W        W64839  23.570   8.459   4.706 -0.0761 -0.1040  0.2263
21902W        W64840  26.023  11.312   5.951 -0.1046 -0.2753  0.2325
21903W        W64841  25.057   8.568   7.260  0.1783  0.1235  0.1039
21904W        W64842  23.162   9.952   6.697 -0.2635 -0.2013 -0.3971
21905W        W64843  23.803   7.454   5.813 -0.0529 -0.0278  0.1512
21906W        W64844  24.568  11.919   3.456  0.1789 -0.2330  0.0075
21907W        W64845  25.764  10.210   6.970 -0.0743 -0.2132  0.2052
21908W        W64846  23.536   9.180   4.199  0.0626  0.2000  0.3107
21909W        W64847  23.007   9.428   6.488 -0.0687  0.0733 -0.0604
21910W        W64848  22.809   9.549   4.392 -0.0754 -0.2828  0.0317
21911W        W64849  23.985   8.207   4.846  0.0490  0.3158 -0.0914
21912W        W64850  23.769   9.781   5.928  0.0525 -0.1371  0.0596
21913W        W64851  22.544  10.577   3.781  0.0650 -0.1343  0.1961
21914W        W64852  22.617  10.887   6.106  0.0091 -0.1618  0.0652
21915W        W64853  25.658   8.888   4.823 -0.0331 -0.0293 -0.1077
21916W        W64854  23.992   9.940   5.475 -0.1526 -0.2082 -0.3062
21917W        W64855  23.928   8.027   5.966 -0.2289  0.1058 -0.0816
21918W        W64856  26.037   8.023   7.288 -0.3551 -0.2598  0.0576
21919W        W64857  24.761   8.046   5.420  0.1302  0.0630  0.3703
21920W        W64858  24.806   6.936   7.655  0.1019 -0.2420 -0.0281
21921W        W64859  22.876   7.822   5.186  0.1055  0.1374  0.1311
21922W        W64860  24.611  11.272   6.424 -0.0327  0.0526  0.0077
21923W        W64861  22.684   8.554   6.403  0.3243  0.0153 -0.0105
21924W        W64862  23.710  10.997   7.805  0.2468 -0.0320  0.2508
21925W        W64863  22.708  10.893   6.631  0.1862 -0.2515  0.2012
21926W        W64864  25.192   6.963   3.758  0.2170  0.3320  0.0634
21927W        W64865  23.766   6.345   2.970  0.0509  0.0833 -0.2590
21928W        W64866  23.447   9.203   5.140 -0.2037  0.0376 -0.2246
21929W        W64867  24.740  11.734   6.526  0.3717 -0.1048 -0.1189
21930W        W64868  23.998  10.524   3.787 -0.3287  0.1149  0.1289
21931W        W64869  26.535   9.773   5.909 -0.0199 -0.1865  0.1795
21932W        W64870  23.454   9.759   6.341  0.2057 -0.3293 -0.1784
21933W        W64871  25.193   9.765   5.660 -0.1287 -0.1241  0.0605
21934W        W64872  24.032  10.153   4.273 -0.0448 -0.0391  0.1706
21935W        W64873  21.216   9.051   5.671  0.1213 -0.2096  0.2795
21936W        W64874  22.844   7.018   7.940  0.0949 -0.1829 -0.1589
21937W        W64875  26.189  10.614   5.884 -0.2917 -0.4299  0.0660
21938W        W64876  24.989   9.047   4.130 -0.1298 -0.0978  0.1459
21939W        W64877  23.856   7.589   7.034  0.0220 -0.2062 -0.0427
21940W        W64878  25.351   6.843   6.757 -0.1707  0.1406  0.2764
21941W        W64879  22.493   9.443   6.340  0.3294 -0.1531 -0.3899
21942W        W64880  22.451   8.821   7.901  0.0511 -0.0475 -0.1288
21943W        W64881  25.110   9.569   6.674 -0.0533 -0.1354 -0.0860
21944W        W64882  25.148   9.152   2.736  0.2356  0.0959 -0.2419
21945W        W64883  25.586   9.707   6.044 -0.2211 -0.0444  0.4428
21946W        W64884  25.193   8.845   5.984 -0.1589  0.0453 -0.0335
21947W        W64885  25.350   8.620   5.107  0.0412  0.3470 -0.0829
21948W        W64886  22.581   8.000   6.463  0.3041  0.0263 -0.2244
21949W        W64887  25.431  10.283   7.746 -0.1900  0.0092  0.1834
21950W        W64888  23.633   7.691   4.090 -0.0926  0.1570  0.2445
21951W        W64889  24.368   7.589   7.129 -0.0832  0.1237 -0.0854
21952W        W64890  24.054  10.507   4.805 -0.2723  0.0236 -0.1952
21953W        W64891  23.889  10.380   5.661 -0.3676 -0.3607  0.0066
21954W        W64892  25.306   8.339   6.037  0.0611  0.0566  0.1988
21955W        W64893  20.797   9.080   5.137 -0.0134  0.2211 -0.3605
21956W        W64894  23.344  10.520   6.513 -0.0608  0.0897 -0.1035
21957W        W64895  22.623   7.519   4.198 -0.0074 -0.0992  0.3274
21958W        W64896  22.578   8.940   4.493  0.2585 -0.1018 -0.0452
21959W        W64897  26.319  10.698   6.582 -0.0818 -0.3124  0.1076
21960W        W64898  26.291   9.410   7.239  0.0144  0.5099  0.1174
21961W        W64899  24.612   7.679   3.658 -0.2159 -0.1041 -0.0239
21962W        W64900  26.853   7.837   7.351  0.2026 -0.4068 -0.4378
21963W        W64901  22.330   9.622   4.197  0.2968 -0.0607 -0.1332
21964W        W64902  25.752   6.599   4.772  0.1978  0.0818 -0.0668
21965W        W64903  22.934  11.703   6.595 -0.0166 -0.0672  0.0682
21966W        W64904  21.707   9.350   8.374  0.0614  0.0568  0.0014
21967W        W64905  23.112  11.095   5.381  0.3514  0.1238 -0.0897
21968W        W64906  25.035   6.422   6.388  0.5795 -0.1119 -0.1530
21969W        W64907  24.107   7.791   6.649  0.1172  0.4029 -0.0406
21970W        W64908  23.552   9.460   5.566  0.3181 -0.3327  0.0779
21971W        W64909  26.071   8.795   6.261 -0.1383  0.0368  0.1637
21972W        W64910  23.623  10.488   6.994 -0.0738  0.0922  0.0054
21973W        W64911  22.456   8.928   5.069 -0.0897  0.1072  0.1983
21974W        W64912  23.083  11.211   7.319 -0.0088 -0.1694  0.1959
21975W        W64913  26.181  10.169   6.666  0.2462  0.1861  0.1971
21976W        W64914  22.643  11.343   6.384 -0.4355  0.0677 -0.0096
21977W        W64915  22.600   9.544   7.300  0.3367  0.1908 -0.2031
21978W        W64916  24.276   9.591   7.727  0.1293 -0.5850  0.1792
21979W        W64917  25.840  10.823   6.187 -0.0740  0.1376  0.2602
21980W        W64918  24.240   7.736   4.817  0.1533  0.1433 -0.1415
21981W        W64919  24.316   9.550   5.011  0.1637  0.1535 -0.1660
21982W        W64920  22.079  10.354   6.123 -0.1060  0.1149 -0.1054
21983W        W64921  23.047  10.718   5.768  0.0691  0.0877 -0.1506
21984W        W64922  22.167  10.680   4.884 -0.0245 -0.1306  0.1898
21985W        W64923  24.718  10.538   3.206 -0.0660 -0.2474 -0.3334
21986W        W64924  24.798   9.463   4.955  0.2883 -0.1010  0.1639
21987W        W64925  25.062  11.876   7.551  0.1227  0.1028  0.1947
21988W        W64926  23.244   8.031   3.161 -0.1013  0.1469 -0.0313
21989W        W64927  22.952  10.547   4.715 -0.1983  0.1156  0.0865
21990W        W64928  21.094  10.088   4.080 -0.1123  0.2568 -0.0924
21991W        W64929  25.019  10.021   5.246  0.0924  0.1380 -0.1692
21992W        W64930  23.267   8.661   5.076 -0.0489 -0.1656  0.0115
21993W        W64931  25.669  12.032   6.588  0.1986  0.1650  0.0835
21994W        W64932  24.990   8.624   3.302  0.0057 -0.0017 -0.3135
21995W        W64933  24.597   9.691   5.470  0.0466  0.1006  0.1864
21996W        W64934  25.794   9.338   4.259  0.2119  0.2222  0.1356
21997W        W64935  24.344  10.731   7.666  0.0840  0.2922 -0.5255
21998W        W64936  24.180   9.538   5.678 -0.2015  0.4085  0.1587
21999W        W64937  24.596   7.350   4.732 -0.0109  0.0375 -0.1570
22000W        W64938  23.163   8.257   7.189  0.2160 -0.0084 -0.0894
22001W        W64939  25.746   7.194   6.650  0.1171  0.0270 -0.0142
22002W        W64940  21.972  12.178   6.987 -0.0627  0.1019 -0.1762
22003W        W64941  25.826  11.325   4.854 -0.0017  0.1135 -0.1475
22004W        W64942  22.522   8.108   4.944 -0.2358  0.0333 -0.0960
22005W        W64943  23.080  10.315   6.178  0.0632 -0.4295  0.2233
22006W        W64944  27.182   9.234   6.099  0.0662  0.0441 -0.2615
22007W        W64945  23.835   9.438   4.651 -0.1767  0.0099 -0.1550
22008W        W64946  23.370   8.173   5.841  0.0242 -0.1079 -0.2696
22009W        W64947  22.659   9.212   4.097  0.1970 -0.0180  0.0330
22010W        W64948  22.955   9.426   5.884  0.0889 -0.0341  0.0541
22011W        W64949  22.380  11.122   2.577  0.0943  0.0615 -0.1727
22012W        W64950  21.973   8.227   4.892  0.2055 -0.3222  0.0048
22013W        W64951  25.278   8.913   5.475 -0.3567  0.2484 -0.2133
22014W        W64952  23.763   8.666   6.404 -0.0821  0.3776  0.2534
22015W        W64953  23.781   7.567   6.332  0.2921 -0.0096 -0.3190
22016W        W64954  21.299   9.206   6.342 -0.2780 -0.1246 -0.0536
22017W        W64955  25.791   8.024   4.377 -0.0220 -0.0064  0.1059
22018W        W64956  24.740   8.628   6.895 -0.0880  0.1904  0.0672
22019W        W64957  23.438   9.091   6.281 -0.2371 -0.1498 -0.3561
22020W        W64958  23.870   8.603   3.687 -0.0801 -0.1317 -0.0877
22021W        W64959  25.786   9.813   7.612  0.0743  0.1814 -0.1381
22022W        W64960  24.226   9.014   3.717 -0.1092  0.1933  0.0526
22023W        W64961  24.948  11.400   7.362 -0.0650  0.2392  0.2061
22024W        W64962  22.279   7.369   5.177 -0.1311 -0.2388  0.0113
22025W        W64963  23.289   8.681   4.312 -0.0910 -0.1128 -0.1217
22026W        W64964  22.380   8.518   4.694  0.0187 -0.1566 -0.1990
22027W        W64965  23.969   9.318   7.027 -0.0966 -0.0605 -0.0530
22028W        W64966  25.049  10.645   7.340  0.2142  0.1332  0.0214
22029W        W64967  22.644   6.306   6.021 -0.0130 -0.0807 -0.3098
22030W        W64968  24.789   8.454   5.040 -0.1108 -0.0019 -0.0117
22031W        W64969  24.823   9.250   6.868  0.3754  0.2390 -0.0270
22032W        W64970  23.115  12.928   2.627 -0.0491 -0.0631  0.1764
22033W        W64971  24.650  10.341   6.228 -0.2180  0.3680 -0.1857
22034W        W64972  25.091   9.648   6.201  0.1034 -0.0672 -0.1952
22035W        W64973  22.136   9.354   5.156 -0.1648  0.3773  0.1453
22036W        W64974  23.862  10.707   6.135  0.3000  0.0177 -0.1687
22037W        W64975  25.848  11.656   5.595 -0.0607 -0.1010  0.1796
22038W        W64976  24.916   6.711   4.156 -0.1556  0.2689  0.0633
22039W        W64977  23.754   8.559   5.162 -0.0680 -0.1315  0.0151
22040W        W64978  21.887   9.664   3.450  0.0739 -0.1262 -0.0150
22041W        W64979  25.608   9.470   6.502 -0.0312  0.1125 -0.1345
22042W        W64980  26.029   7.840   6.647  0.2231 -0.0984  0.0614
22043W        W64981  24.071   9.493   3.785 -0.0823  0.0597  0.0780
22044W        W64982  24.801   6.954   6.851  0.0670 -0.1349 -0.0175
22045W        W64983  24.361  10.763   6.429  0.2205  0.2912 -0.0354
22046W        W64984  22.873  10.326   6.619  0.1084  0.1687  0.2242
22047W        W64985  22.631   8.539   4.174 -0.0465  0.0977  0.1854
22048W        W64986  23.334   9.117   6.816 -0.0565  0.0310 -0.2189
22049W        W64987  22.528   9.359   4.829  0.0936  0.1518  0.0785
22050W        W64988  24.056  10.994   5.103  0.3332 -0.0271  0.0752
22051W        W64989  25.274  10.653   6.014  0.0916  0.2705  0.2232
22052W        W64990  25.960   9.368   6.119 -0.1698  0.1357 -0.1681
22053W        W64991  25.282  10.110   6.150 -0.2488  0.2562  0.0301
22054W        W64992  23.761   7.292   5.308 -0.0464  0.0634 -0.1627
22055W        W64993  23.211   6.850   3.615  0.2674 -0.2286  0.1226
22056W        W64994  25.054   7.540   4.670  0.0648  0.2918  0.2305
22057W        W64995  22.768   9.126   6.909  0.0537  0.0901  0.1665
22058W        W64996  21.692   9.188   3.587 -0.0820 -0.0459 -0.1737
22059W        W64997  22.328   9.593   3.720 -0.2087  0.0297  0.1646
22060W        W64998  24.180  10.034   5.924  0.0319  0.0635 -0.3704
22061W        W64999  23.374   7.941   8.018  0.0350  0.1334 -0.1342
22062W        W65000  23.547   8.389   6.777  0.2362  0.1162  0.0696
22063W        W65001  24.083   8.532   6.851 -0.0658  0.0564  0.1638
22064W        W65002  23.075   8.134   4.840 -0.4316 -0.2173  0.1216
22065W        W65003  25.270   9.298   3.239 -0.0637  0.0058  0.0466
22066W        W65004  22.476   7.196   5.691  0.0189  0.0205 -0.2005
22067W        W65005  22.119   7.395   5.962  0.0619 -0.0713 -0.0020
22068W        W65006  24.829   8.954   5.154  0.2693 -0.4370 -0.0986
22069W        W65007  25.609  10.020   3.132 -0.2346  0.3368  0.2615
22070W        W65008  24.885   8.048   4.361  0.0603 -0.2419 -0.1971
22071W        W65009  25.099  11.189   6.283 -0.1537 -0.1317 -0.2762
22072W        W65010  22.951   8.820   3.905  0.0538 -0.0942 -0.0195
22073W        W65011  25.417   9.733   8.188 -0.1144  0.0384 -0.0876
22074W        W65012  23.369   8.767   7.213 -0.0032  0.0840 -0.1373
22075W        W65013  22.657   9.172   3.600  0.2021 -0.1985  0.0760
22076W        W65014  23.794   8.897   6.975 -0.1151  0.0236  0.3507
22077W        W65015  23.706  10.899   3.534  0.0857 -0.1030  0.2020
22078W        W65016  26.242  10.534   3.121 -0.3184 -0.1236  0.0743
22079W        W65017  24.755   9.378   5.848  0.3550 -0.0060  0.0242
22080W        W65018  24.252  11.086   6.022 -0.1084 -0.0190  0.0010
22081W        W65019  21.021   7.844   6.891 -0.3526 -0.0781 -0.0795
22082W        W65020  24.978   9.400   5.387  0.1008  0.3523 -0.1656
22083W        W65021  23.826   9.171   6.567 -0.0803 -0.1155 -0.1116
22084W        W65022  25.343  10.436   5.004  0.2707 -0.2927 -0.5477
22085W        W65023  25.056   8.241   6.923  0.0341  0.1833  0.0544
22086W        W65024  24.388   9.132   5.374 -0.0481  0.2695  0.3246
22087W        W65025  22.968   7.408   5.961  0.0262  0.0438 -0.2165
22088W        W65026  24.492   9.358   7.227 -0.0314  0.1423  0.2257
22089W        W65027  26.246   9.837   7.473  0.0628 -0.0675  0.1074
22090W        W65028  22.275   6.259   6.815  0.2018 -0.0260 -0.0595
22091W        W65029  23.839   8.213   4.362  0.0738 -0.3703 -0.4873
22092W        W65030  24.448  10.276   4.533 -0.1457 -0.0411 -0.1923
22093W        W65031  23.882   9.118   5.564 -0.4947 -0.1043  0.0491
22094W        W65032  24.303   8.200   3.588 -0.1330 -0.0994 -0.1759
22095W        W65033  24.658   9.760   6.398  0.1633 -0.3060 -0.1691
22096W        W65034  24.755   9.922   5.931  0.1506  0.1487  0.1868
22097W        W65035  25.557  10.458   6.443 -0.1861  0.4303 -0.5092
22098W        W65036  24.332   8.150   5.164  0.1730  0.2071 -0.0670
22099W        W65037  25.457   9.783   4.516  0.1239 -0.1288  0.0453
22100W        W65038  24.522  11.935   7.012 -0.2458  0.2932  0.0249
22101W        W65039  25.920  12.029   7.053 -0.2166  0.2622 -0.1252
22102W        W65040  24.742  10.330   6.700 -0.1790  0.1424 -0.1485
22103W        W65041  25.040   9.544   7.189 -0.0065 -0.1966  0.3429
22104W        W65042  23.133   8.445   5.495 -0.0175  0.2768 -0.0147
22105W        W65043  23.970   8.905   4.596 -0.1228 -0.2118  0.0858
22106W        W65044  23.846   9.258   6.029  0.0724  0.1893 -0.0475
22107W        W65045  25.251   9.118   6.376 -0.0239 -0.0705 -0.1015
22108W        W65046  24.805   8.363   5.910  0.0458  0.0626 -0.0748
22109W        W65047  24.756   8.928   4.627 -0.1247 -0.0252 -0.2681
22110W        W65048  23.642  11.080   6.382 -0.3044 -0.0931  0.2062
22111W        W65049  24.448   8.513   6.523  0.2375  0.0480  0.1305
22112W        W65050  23.339   9.654   9.436 -0.1503  0.1186 -0.1440
22113W        W65051  23.123   8.556   7.596 -0.2030 -0.0829  0.3587
22114W        W65052  25.138   6.639   7.988 -0.5293  0.0223  0.1589
22115W        W65053  25.779  11.101   7.110  0.0343 -0.3963  0.1160
22116W        W65054  22.928   8.080   7.717 -0.0014 -0.0439  0.2335
22117W        W65055  23.769   9.886   9.342 -0.0020  0.1381  0.0119
22118W        W65056  24.107  11.972   9.649  0.0866  0.0751  0.3849
22119W        W65057  24.314   9.919   9.381 -0.1210  0.0067 -0.1086
22120W        W65058  24.235   8.980   6.417 -0.0235 -0.1651  0.3489
22121W        W65059  22.672   8.386   8.000 -0.0436  0.1197 -0.2698
22122W        W65060  23.716   6.686   7.745  0.3646 -0.2382 -0.1308
22123W        W65061  22.363   7.661   9.258 -0.0239 -0.1895  0.0628
22124W        W65062  24.683   9.658   9.177  0.0640  0.0461 -0.0712
22125W        W65063  22.676   9.203   9.993  0.2038  0.0975 -0.0244
22126W        W65064  19.770  10.633   8.632  0.0385 -0.2981 -0.0412
22127W        W65065  22.741   7.824   7.381 -0.1249  0.0533 -0.1999
22128W        W65066  23.566  10.303   9.513 -0.3050  0.0855  0.0818
22129W        W65067  22.894   7.314  10.510 -0.0490  0.0028  0.0180
22130W        W65068  24.613  10.180   8.297  0.1500  0.1751  0.0065
22131W        W65069  23.107   9.521   6.991  0.2029 -0.1355 -0.2953
22132W        W65070  21.442   7.075   9.400  0.0487 -0.0776 -0.1791
22133W        W65071  22.863   9.291   9.178 -0.0666 -0.0899  0.2156
22134W        W65072  24.435   8.306   8.899 -0.0428  0.1300 -0.1426
22135W        W65073  24.593   7.748   7.969 -0.0417 -0.1148 -0.1554
22136W        W65074  23.213  10.549   8.376 -0.0000  0.1717  0.2974
22137W        W65075  22.894  10.090   8.254 -0.0797 -0.2162 -0.2366
22138W        W65076  21.440  10.705   8.555 -0.1781  0.1499  0.1318
22139W        W65077  21.087  10.037   9.736  0.3550 -0.2885  0.3006
22140W        W65078  22.604  10.562   8.408 -0.1584  0.0651  0.0494
22141W        W65079  24.277  11.320   8.500 -0.1692 -0.1670  0.0108
22142W        W65080  23.717  11.277   7.359  0.2486 -0.0237  0.1765
22143W        W65081  24.557   9.129   8.385  0.1128 -0.1895  0.1353
22144W        W65082  23.471   9.113   8.655  0.1519  0.1812  0.1246
22145W        W65083  23.910   9.643   7.428 -0.0620  0.3005 -0.2344
22146W        W65084  23.331   9.300   8.174 -0.2475 -0.0726  0.1618
22147W        W65085  21.522  10.155   9.087  0.0888 -0.0433 -0.1567
22148W        W65086  22.839  10.791   7.123 -0.3414  0.0499  0.0912
22149W        W65087  25.580   7.863   7.406 -0.0298  0.2645  0.0825
22150W        W65088  21.788   9.510   7.925 -0.1936 -0.1501 -0.0160
22151W        W65089  25.452   8.129   6.468  0.0553  0.0066  0.0005
22152W        W65090  23.166   7.472   8.143 -0.0136  0.1558  0.0270
22153W        W65091  21.742   9.980   9.652 -0.0603 -0.1211  0.1700
22154W        W65092  23.711   8.702   8.545 -0.0385 -0.0765 -0.0568
22155W        W65093  25.239   9.769   7.680  0.2244  0.0530 -0.2392
22156W        W65094  24.795   9.443   7.585  0.2169 -0.0082 -0.3508
22157W        W65095  23.444   9.653   8.886 -0.0196  0.1125 -0.1128
22158W        W65096  23.198   8.758   9.748  0.0396  0.1224 -0.3771
22159W        W65097  24.742  11.246   8.288  0.1753 -0.2111  0.2700
22160W        W65098  23.866  11.698   9.240 -0.1735 -0.1670  0.1172
22161W        W65099  24.005  10.662   8.785 -0.0299 -0.2391 -0.2018
22162W        W65100  21.345   8.829   7.945 -0.0436  0.1910 -0.1042
22163W        W65101  22.217   7.767   7.387 -0.0303  0.1597 -0.0332
22164W        W65102  25.271   7.421   8.330  0.0562 -0.1004 -0.1287
22165W        W65103  22.856   8.388   8.457 -0.1337 -0.0416  0.0943
22166W        W65104  24.703  10.191   9.387  0.2120  0.0220 -0.3534
22167W        W65105  24.873   9.830   8.596  0.1946 -0.2055 -0.0918
22168W        W65106  23.798   7.867   8.690  0.3775  0.1674  0.0610
22169W        W65107  25.155   7.652   8.748  0.0891  0.0501 -0.0343
22170W        W65108  23.417   9.916   7.144  0.1353  0.1506 -0.0374
22171W        W65109  24.106  10.183   7.448  0.1686  0.3728 -0.0904
22172W        W65110  22.485  10.934   9.753  0.2765 -0.0275  0.2899
22173W        W65111  25.432   8.627   6.898 -0.0464  0.0243  0.0763
22174W        W65112  21.769   9.193  10.041  0.2842 -0.0907 -0.2627
22175W        W65113  23.382  10.886   6.856 -0.0603 -0.0207 -0.1118
22176W        W65114  21.613   8.300   8.217 -0.2063 -0.1512  0.0360
22177W        W65115  22.974  10.393   7.552  0.4255  0.1980 -0.1309
22178W        W65116  19.931   7.955   9.127 -0.1981  0.3260 -0.1197
22179W        W65117  23.349  11.484   8.444  0.2081  0.1854  0.0108
22180W        W65118  24.923   7.339   9.017  0.2138  0.2468 -0.0551
22181W        W65119  25.902   9.235   9.608 -0.1944  0.1981 -0.1302
22182W        W65120  23.275  10.007   7.708 -0.2438  0.1243 -0.3395
22183W        W65121  25.082  10.702   6.474  0.4802  0.2666 -0.2291
22184W        W65122  25.973   9.317   7.601 -0.0618  0.0886  0.1195
22185W        W65123  25.452  11.610   7.647 -0.0456 -0.3836  0.0282
22186W        W65124  22.323   8.127   9.035  0.1642 -0.0535 -0.1164
22187W        W65125  23.187   8.415   8.065 -0.0704 -0.1115  0.0785
22188W        W65126  22.456   7.209  10.047 -0.2567 -0.0210 -0.0218
22189W        W65127  23.196   6.096   8.347  0.1111  0.0480 -0.1940
22190W        W65128  25.387   7.244   7.900 -0.2482 -0.0208  0.1865
22191W        W65129  23.715   8.468   8.058 -0.0750  0.0733 -0.1076
22192W        W65130  22.143   9.115   7.645  0.0911  0.1115 -0.0627
22193W        W65131  23.621  11.796   9.698 -0.0413  0.2381  0.1286
22194W        W65132  24.994  11.964   9.964 -0.3892 -0.4593 -0.3889
22195W        W65133  24.672  11.087   7.721  0.2977 -0.3552 -0.2816
22196W        W65134  22.744   8.454   8.950 -0.0087 -0.0413  0.0420
22197W        W65135  23.302   9.104   5.819  0.0795  0.0994  0.0566
22198W        W65136  22.086  10.599  10.140  0.1438  0.0747  0.2071
22199W        W65137  22.976   9.642   7.918 -0.1323 -0.1113 -0.0259
22200W        W65138  22.932   7.979   8.185  0.0845 -0.2421 -0.1821
22201W        W65139  21.974   9.990  10.104  0.1709 -0.0462 -0.2260
22202W        W65140  24.404   9.549   8.654  0.0532 -0.1025 -0.1171
22203W        W65141  24.082   8.288   9.311  0.1269  0.0184  0.0019
22204W        W65142  25.156   8.061   7.572  0.1980 -0.2554  0.2159
22205W        W65143  23.698   8.673   7.608 -0.0968  0.0653  0.1205
22206W        W65144  24.249  10.502   8.147 -0.0374  0.2215  0.0575
22207W        W65145  23.331  10.047   8.544 -0.5189  0.2465 -0.3642
22208W        W65146  21.484   9.278   9.125 -0.1553 -0.3303  0.0962
22209W        W65147  23.710  10.113   8.893  0.0844 -0.0803 -0.2516
22210W        W65148  24.989   8.278   8.740  0.0852 -0.0234 -0.1963
22211W        W65149  22.042   8.975   8.506  0.1507  0.1202  0.1219
22212W        W65150  24.518   7.528   9.274  0.1989 -0.2293  0.0510
22213W        W65151  24.459   7.211   8.162 -0.3134 -0.1749  0.2037
22214W        W65152  24.532  10.592   9.065 -0.1422  0.2262 -0.2484
22215W        W65153  24.644   6.664   8.060  0.0301 -0.0246 -0.0750
22216W        W65154  25.108   7.856   6.632  0.0252  0.1825 -0.2929
22217W        W65155  24.778   9.110   9.215 -0.2175 -0.1074  0.4161
22218W        W65156  24.191   8.618   7.861  0.0449 -0.1720  0.0379
22219W        W65157  25.282  10.136  10.237 -0.0596  0.0555 -0.1054
22220W        W65158  21.487   8.789   9.320 -0.1199 -0.0453  0.2239
22221W        W65159  22.836   9.675   8.942  0.0077 -0.5503 -0.0039
22222W        W65160  23.342   8.242   9.352  0.3052 -0.0977 -0.0863
22223W        W65161  22.088  10.179   7.809  0.1627  0.2412 -0.1083
22224W        W65162  23.337   7.789   8.513 -0.2557 -0.0046 -0.4270
22225W        W65163  21.191  11.228   8.091 -0.2788 -0.2681 -0.0296
22226W        W65164  25.906  10.300   9.520 -0.0818  0.1838  0.0461
22227W        W65165  24.763   8.222   7.856 -0.0389  0.0129  0.1101
22228W        W65166  25.004   8.956   7.850 -0.0800 -0.1146 -0.0548
22229W        W65167  24.506   8.045   9.297  0.1659 -0.0170  0.1648
22230W        W65168  23.091   8.264   6.628  0.0100 -0.0662  0.0318
22231W        W65169  23.613   7.956   9.804  0.1569 -0.0863  0.2205
22232W        W65170  23.401  12.119  10.299  0.1944 -0.1161 -0.1919
22233W        W65171  25.119  10.242   8.162 -0.1825 -0.0274  0.2178
22234W        W65172  24.346   6.727   8.513 -0.1161  0.2765  0.0904
22235W        W65173  22.382  10.461   8.878 -0.1981  0.2489 -0.1896
22236W        W65174  24.440  10.227   7.775 -0.1112 -0.3322 -0.2041
22237W        W65175  24.054   8.270   8.507  0.0630 -0.2584  0.0922
22238W        W65176  22.454  10.221   8.109 -0.1522 -0.0528  0.2624
22239W        W65177  23.857  11.057   6.950  0.2414  0.3427 -0.1667
22240W        W65178  24.753   9.995   9.900  0.2326 -0.1572 -0.3116
22241W        W65179  22.530  10.236   6.955 -0.0254 -0.1295  0.0722
22242W        W65180  27.081   8.295   9.617 -0.0582 -0.0895 -0.0907
22243W        W65181  20.559  11.226   9.247 -0.0741  0.0119 -0.1812
22244W        W65182  22.152   9.484   8.644  0.0842 -0.0588 -0.1440
22245W        W65183  21.987   9.458   7.291 -0.0547  0.4349  0.1972
22246W        W65184  25.001   7.865   8.361  0.1816  0.1481  0.0976
22247W        W65185  24.663   8.720   8.657 -0.0729  0.1855 -0.1864
22248W        W65186  24.342   6.779  10.392  0.0703 -0.0462 -0.0168
22249W        W65187  23.644   7.507   8.281 -0.2666  0.2641  0.3047
22250W        W65188  21.534  11.245   9.469 -0.2296 -0.2440  0.1209
22251W        W65189  25.159   7.679   7.890  0.1031 -0.1316  0.3969
22252W        W65190  21.656   8.456   6.997 -0.0245 -0.3169 -0.1946
22253W        W65191  26.956   7.678   9.536 -0.0077  0.0420 -0.1536
22254W        W65192  22.340   8.092   8.202  0.2721 -0.1266  0.1405
22255W        W65193  22.506   9.945   8.626 -0.0456 -0.1522 -0.1617
22256W        W65194  22.349   9.757   9.040 -0.0478  0.0531 -0.0061
22257W        W65195  23.526   9.311   7.219 -0.1302  0.1211 -0.3292
22258W        W65196  23.343   9.228   9.133  0.0035  0.1753  0.3699
22259W        W65197  24.959   9.270   9.746  0.0726 -0.0743 -0.0681
22260W        W65198  22.284   7.792   8.655  0.2026  0.1234 -0.3323
22261W        W65199  24.381   9.088   8.839  0.0646  0.0664 -0.0297
22262W        W65200  24.100   8.935   9.707  0.1447  0.1137 -0.0660
22263W        W65201  24.021   8.590   8.895  0.2458  0.1709  0.1373
22264W        W65202  23.052   9.638  10.014 -0.1069 -0.1757  0.0097
22265W        W65203  26.320  12.020   8.927  0.2088  0.2512  0.1845
22266W        W65204  23.276   9.030   7.714  0.2385  0.0273 -0.3504
22267W        W65205  21.898   9.724   9.170 -0.1452 -0.2069 -0.0286
22268W        W65206  22.585   9.276   8.789  0.1276 -0.0304  0.1231
22269W        W65207  21.954   7.107   9.823 -0.1857  0.1118  0.3421
22270W        W65208  22.752   9.306   8.284  0.1210  0.1021  0.0999
22271W        W65209  23.596  10.289   7.454  0.0225 -0.1419 -0.1067
22272W        W65210  21.434  10.376   9.557 -0.0020 -0.4356  0.0261
22273W        W65211  26.487   7.258   8.769 -0.0469 -0.1118  0.0481
22274W        W65212  25.404  10.131   7.254  0.0030 -0.0809 -0.1553
22275W        W65213  22.838   7.981   9.259  0.0106  0.0613  0.1507
22276W        W65214  25.483   7.319   7.423  0.3309  0.0524  0.2023
22277W        W65215  27.476   6.133   9.646  0.1094  0.1417 -0.2985
22278W        W65216  24.559   9.401  10.133 -0.0124  0.0114  0.0098
22279W        W65217  24.048   9.274   8.519  0.0771  0.3913  0.0758
22280W        W65218  23.555   7.179   7.323 -0.2500  0.3104  0.0965
22281W        W65219  22.538   9.592  10.481 -0.1588 -0.1549 -0.1626
22282W        W65220  22.421   7.635  10.525  0.0727  0.0279 -0.0671
22283W        W65221  23.718  10.099   6.720 -0.0050  0.1032 -0.0601
22284W        W65222  24.892   9.370   8.711  0.1581 -0.0364 -0.0119
22285W        W65223  22.930   8.880   8.043  0.0194  0.0498  0.1822
22286W        W65224  24.436   9.582   8.185  0.0400 -0.0138 -0.1271
22287W        W65225  24.503   9.869   7.421 -0.0875  0.0224  0.0040
22288W        W65226  24.580   8.897   7.534  0.1238 -0.0069 -0.0478
22289W        W65227  24.632   8.728   8.054 -0.0375  0.1018 -0.0884
22290W        W65228  25.246   7.831   9.754 -0.2850 -0.1257 -0.0556
22291W        W65229  26.630  12.068   9.403 -0.1690  0.1525 -0.1016
22292W        W65230  26.026   7.520   7.296 -0.2147  0.2688 -0.1006
22293W        W65231  24.473   8.351  10.210  0.4794  0.2445 -0.1992
22294W        W65232  25.585   8.427   7.475 -0.0036 -0.3181 -0.1095
22295W        W65233  23.958   7.072   8.102 -0.1254  0.1520 -0.1798
22296W        W65234  23.239   8.546  10.379 -0.1256 -0.1493 -0.2575
22297W        W65235  23.491   8.155   6.320 -0.1785 -0.0960  0.1115
22298W        W65236  22.490  11.115   7.252  0.0542  0.1984 -0.1244
22299W        W65237  24.691  10.632   8.043 -0.0448  0.4671  0.0864
22300W        W65238  24.543   7.398   7.579 -0.1837  0.3418 -0.1017
22301W        W65239  21.201   8.255   9.115 -0.1593 -0.1543  0.2967
22302W        W65240  22.874   9.989   7.218 -0.1153  0.0502  0.1547
22303W        W65241  23.804   9.041   8.022  0.1338  0.1530 -0.3153
22304W        W65242  21.487   9.530   9.608  0.1074 -0.0388 -0.2339
22305W        W65243  24.949   7.089   8.114 -0.4101 -0.0862 -0.1802
22306W        W65244  22.006  10.360   8.356 -0.4824  0.1795  0.4906
22307W        W65245  24.072   7.374   8.575  0.1343  0.0695 -0.2781
22308W        W65246  23.739   8.693   9.448 -0.0628  0.1754 -0.1425
22309W        W65247  23.915   9.542   8.069  0.1256  0.1877 -0.0892
22310W        W65248  23.351   7.802   9.049 -0.2352 -0.0899 -0.0483
22311W        W65249  24.162   7.894   9.004  0.3575  0.3017 -0.1233
22312W        W65250  24.690   8.814   9.670  0.1627 -0.0838  0.3665
22313W        W65251  22.655   8.093  10.260 -0.1639 -0.0615 -0.0724
22314W        W65252  25.572   9.114   8.576 -0.0312  0.0760  0.1935
22315W        W65253  22.579   8.890   9.049  0.3013  0.0263 -0.0991
22316W        W65254  24.765   9.874   7.893 -0.0455 -0.0537 -0.2408
22317W        W65255  22.815   7.541   9.079  0.2889  0.2432 -0.0403
22318W        W65256  24.701  10.812   6.828  0.1230 -0.0852  0.1777
22319W        W65257  22.844  11.270  10.008 -0.4091 -0.0242 -0.0521
22320W        W65258  21.447  10.832   7.973  0.1081 -0.0340 -0.1897
22321W        W65259  24.938  10.938   8.795 -0.0528 -0.1027 -0.0978
22322W        W65260  25.441  11.090   7.489  0.1393  0.0303  0.2108
22323W        W65261  25.304  11.217   8.090  0.2159  0.3773 -0.1449
22324W        W65262  21.869   7.867   8.296 -0.1541 -0.2315  0.0189
22325W        W65263  23.138  11.657   9.427 -0.2759  0.1923 -0.0225
22326W        W65264  21.959   9.723   6.243  0.4241 -0.0501  0.1108
22327W        W65265  24.695   9.824   6.915 -0.2790 -0.0770  0.0608
22328W        W65266  23.798  10.733   8.309  0.1915 -0.1885 -0.0976
22329W        W65267  26.342   6.713   7.447 -0.1354  0.1663  0.0696
22330W        W65268  25.051   8.426   8.289  0.0365  0.1535 -0.1012
22331W        W65269  26.107   6.238   8.878 -0.2211 -0.3308  0.2313
22332W        W65270  23.381   8.815   8.208 -0.2580  0.1096  0.0317
22333W        W65271  23.426   7.189   6.160  0.0200 -0.0432 -0.1105
22334W        W65272  26.319  10.207   7.139 -0.2670  0.2154  0.0052
22335W        W65273  22.367   8.396   8.604  0.1016  0.0558 -0.1111
22336W        W65274  22.547   8.781   8.373  0.0978 -0.2788  0.1338
22337W        W65275  24.696   8.790  10.201 -0.1463  0.1501 -0.1539
22338W        W65276  24.088   9.785   6.402 -0.0215  0.1330  0.0697
22339W        W65277  24.179   8.813   8.394  0.2307 -0.0396 -0.0269
22340W        W65278  22.956  10.363   8.787  0.2124  0.0329 -0.1627
22341W        W65279  21.989   9.553   9.705 -0.0826  0.2937 -0.0277
22342W        W65280  22.677  10.379   9.677  0.0854 -0.3322  0.2149
22343W        W65281  21.133   7.649   8.350  0.2043 -0.2279 -0.1987
22344W        W65282  24.179   8.816  10.234 -0.3204 -0.3420  0.1619
22345W        W65283  20.833   7.995   9.859 -0.3489 -0.1531 -0.2471
22346W        W65284  22.656   8.375   9.489 -0.1215 -0.1525 -0.1002
22347W        W65285  24.989   8.914   8.403  0.5563 -0.0883  0.2734
22348W        W65286  21.931   8.188   8.669  0.1547 -0.0263  0.0602
22349W        W65287  19.905   7.350   9.875  0.0695 -0.2712 -0.1272
22350W        W65288  24.564   8.296   8.408 -0.3130  0.0227 -0.0611
22351W        W65289  25.217   8.527   7.784  0.1882  0.0258  0.1038
22352W        W65290  22.674   7.671   7.921 -0.0419  0.0087 -0.1880
22353W        W65291  23.975   8.213   7.671 -0.2822 -0.1847  0.0043
22354W        W65292  21.432   7.898   7.932 -0.2980 -0.1827  0.1588
22355W        W65293  23.036   8.906   8.689  0.2196 -0.4557 -0.3882
22356W        W65294  23.123   7.011   8.340 -0.1401 -0.0871 -0.0868
22357W        W65295  26.526  10.806   8.276  0.0659  0.2839  0.4780
22358W        W65296  24.554   9.596   9.671 -0.2380  0.2128 -0.3907
22359W        W65297  23.625  12.004   7.482 -0.1750 -0.0365 -0.4144
22360W        W65298  25.342   9.263   8.020  0.1871 -0.0637  0.0751
22361W        W65299  25.573   9.992   9.861 -0.1335 -0.4400  0.3244
22362W        W65300  24.254   7.916   9.932 -0.3315  0.2240  0.0936
22363W        W65301  22.476   9.682   8.118 -0.0029 -0.0439  0.0985
22364W        W65302  25.364  10.549   8.795 -0.1465  0.0340 -0.4176
22365W        W65303  24.398   7.168   8.913 -0.1238 -0.0697 -0.1568
22366W        W65304  23.904  10.481   7.778  0.1038 -0.2730 -0.0144
22367W        W65305  23.044  10.929   9.654 -0.1187  0.0574 -0.0509
22368W        W65306  26.539   7.990   9.747  0.1412  0.2117  0.1348
22369W        W65307  23.342  10.792   7.404 -0.3030  0.2226 -0.0368
22370W        W65308  24.280   8.794   9.292  0.0836 -0.2155  0.2484
22371W        W65309  24.299   9.109   7.877 -0.1968 -0.1988 -0.0801
22372W        W65310  23.801  10.002   7.786  0.3718  0.0147  0.2966
22373W        W65311  24.175   9.948   8.063 -0.0227 -0.0980  0.1269
22374W        W65312  23.816  10.789   9.337 -0.1012  0.0637  0.1384
22375W        W65313  23.168   8.200   8.773  0.0520  0.3554 -0.1686
22376W        W65314  25.459   9.123   9.749  0.0325  0.3379 -0.0476
22377W        W65315  22.764   7.952   8.727  0.4451  0.0198  0.3453
22378W        W65316  25.030   7.804   9.276  0.2359  0.1405 -0.0828
22379W        W65317  24.586   8.000   6.786 -0.1657 -0.0170 -0.1681
22380W        W65318  23.988   9.278  10.158  0.1811 -0.0393  0.1379
22381W        W65319  21.009   8.623   7.553 -0.1719 -0.1128  0.3206
22382W        W65320  22.930  10.563   8.005  0.3694  0.2484  0.0269
22383W        W65321  22.162   8.613   9.010 -0.0018  0.0392  0.2215
22384W        W65322  21.467   7.186   9.957  0.3838  0.2984  0.0844
22385W        W65323  21.452   7.014   7.972  0.1017  0.0781 -0.0522
22386W        W65324  26.638  12.176   7.577 -0.0846  0.0779 -0.2607
22387W        W65325  21.790   7.488   8.627 -0.0992 -0.1038  0.1052
22388W        W65326  22.084   8.001   9.498 -0.0275  0.2180  0.1508
22389W        W65327  24.940  10.107   7.217  0.0893 -0.0529  0.1228
22390W        W65328  24.677  10.745   9.694 -0.4190  0.0557 -0.0572
22391W        W65329  24.113   7.561   8.011 -0.0589 -0.1022 -0.0266
22392W        W65330  23.535   9.456   7.742  0.0033  0.0130  0.1033
22393W        W65331  21.799   8.835   6.649  0.0229 -0.2200  0.0040
22394W        W65332  23.670   8.160   9.041 -0.0536 -0.1817 -0.0701
22395W        W65333  23.433   9.808   8.149 -0.1469  0.0641 -0.2908
22396W        W65334  24.294  10.356   6.918  0.4103 -0.0446 -0.0360
22397W        W65335  21.770   8.386   9.277 -0.2271  0.1194  0.3024
22398W        W65336  24.965  10.282   7.686  0.0507  0.0260 -0.2631
22399W        W65337  25.950  10.343   7.608 -0.3217 -0.1662 -0.2448
22400W        W65338  23.936   8.407   9.902  0.0308  0.1383 -0.1197
22401W        W65339  24.909   9.469   8.149  0.1209 -0.0991 -0.2342
22402W        W65340  25.385  12.229  10.172 -0.3300  0.1611 -0.1328
22403W        W65341  23.486   8.224   7.631 -0.0526 -0.1820  0.1634
22404W        W65342  24.274   7.832   7.620  0.0770  0.1952  0.0930
22405W        W65343  24.423  11.504   9.326  0.1208  0.1323  0.0177
22406W        W65344  22.372   9.635   9.937 -0.0010 -0.0186 -0.0158
22407W        W65345  23.811   9.717   8.519  0.1706 -0.1154 -0.1226
22408W        W65346  23.068   9.673   8.491  0.3561 -0.0201  0.1904
22409W        W65347  23.135   9.587   7.453  0.1443  0.1619  0.0725
22410W        W65348  25.497  10.534   8.301  0.2433 -0.3633  0.0152
22411W        W65349  24.412  13.876   9.764 -0.2502  0.1656  0.1825
22412W        W65350  23.673  12.878   9.701 -0.2609  0.1312  0.2585
22413W        W65351  24.502  10.837   8.503  0.1579 -0.0918 -0.3576
22414W        W65352  22.205   7.547   9.741 -0.1575 -0.2068 -0.2050
22415W        W65353  22.219   9.247   8.162 -0.0133  0.2571 -0.0629
22416W        W65354  23.743   8.365   7.214 -0.1240 -0.4482  0.0528
22417W        W65355  22.743   8.950   9.585 -0.0445  0.1311 -0.5265
22418W        W65356  22.973   8.235   9.808 -0.2133  0.0532  0.0218
22419W        W65357  23.693   7.936   7.293 -0.2451  0.2203  0.0649
22420W        W65358  24.660  11.664   9.815  0.0179 -0.4031  0.0309
22421W        W65359  23.862   9.031   9.061  0.3835 -0.0931  0.2593
22422W        W65360  23.859  13.758   2.293 -0.3081  0.0001 -0.2215
22423W        W65361  23.126  13.112   1.977  0.0787 -0.0385 -0.1139
22424W        W65362  23.364  10.598   0.267 -0.1653 -0.0906 -0.1581
22425W        W65363  24.889  13.367   0.490 -0.0466  0.0121 -0.0470
22426W        W65364  21.513  12.356   1.099  0.0148 -0.1128 -0.0429
22427W        W65365  24.391  14.355   1.468  0.0139  0.1284 -0.0517
22428W        W65366  23.131  12.024   2.607 -0.0697  0.0052  0.1369
22429W        W65367  23.705  14.967   1.869 -0.1836  0.1303 -0.2207
22430W        W65368  24.912  15.317   3.376 -0.2483  0.0269  0.1751
22431W        W65369  24.096  13.563   0.357  0.3410 -0.0925 -0.1063
22432W        W65370  23.600  11.926   2.715 -0.1035 -0.0822  0.0530
22433W        W65371  23.506  13.517   3.816 -0.0171  0.0858 -0.1403
22434W        W65372  23.598  10.060   0.873  0.0847  0.0542  0.4634
22435W        W65373  21.436  11.921   2.103 -0.0786  0.1568 -0.1418
22436W        W65374  23.655  12.690   1.307 -0.1207 -0.0295 -0.1833
22437W        W65375  23.036  11.744   0.401 -0.1006 -0.1430  0.2026
22438W        W65376  23.745  11.195   1.556  0.2463  0.0821 -0.1273
22439W        W65377  24.023  10.959  31.623 -0.0482 -0.0936  0.0616
22440W        W65378  23.569  14.459   0.474  0.2099 -0.0935  0.0885
22441W        W65379  24.105  12.449   1.640  0.0414 -0.1802  0.1389
22442W        W65380  24.262  11.403   2.111 -0.0523  0.0504 -0.0643
22443W        W65381  23.884  13.422   1.647 -0.2900  0.0179 -0.0869
22444W        W65382  23.188  11.349  31.576  0.0145 -0.0512 -0.0101
22445W        W65383  21.478  11.363   2.692 -0.0036 -0.2206  0.1676
22446W        W65384  23.731  13.232   4.166 -0.2038  0.2144 -0.3800
22447W        W65385  24.112  10.722   3.266  0.3738 -0.0114 -0.0876
22448W        W65386  25.026  14.456   0.574  0.1052 -0.3344 -0.0109
22449W        W65387  24.395  15.542   1.235 -0.2532  0.1887  0.2026
22450W        W65388  23.033  15.172   1.968 -0.0991 -0.1812 -0.2711
22451W        W65389  25.448  13.093   3.015 -0.0496 -0.0928  0.1325
22452W        W65390  22.328  12.444   0.262  0.2503  0.1112 -0.0639
22453W        W65391  22.088  13.205   0.915 -0.1714  0.0716  0.1644
22454W        W65392  21.847  13.072   0.489  0.0766  0.0089 -0.0662
22455W        W65393  23.619  14.251   0.916  0.1161  0.0456 -0.0912
22456W        W65394  24.708  14.602   2.439 -0.1922  0.1386  0.4079
22457W        W65395  23.624  13.847   1.842 -0.1460 -0.0818  0.1335
22458W        W65396  22.306  13.320  31.369 -0.1327  0.1133  0.0134
22459W        W65397  24.276  14.824   2.850  0.1923  0.1212  0.0840
22460W        W65398  22.314  13.966   2.187  0.2176 -0.1025  0.4027
22461W        W65399  25.323  12.230   2.502  0.0702 -0.0214  0.0692
22462W        W65400  22.362  11.836   1.134 -0.4103 -0.0132  0.0139
22463W        W65401  24.073  14.337   0.567  0.2593 -0.2469  0.0132
22464W        W65402  24.101  13.383  31.754  0.2762  0.2024 -0.1708
22465W        W65403  22.630  14.130   0.937 -0.1599 -0.1147 -0.2464
22466W        W65404  21.025  13.822   1.140 -0.2200  0.2876  0.3346
22467W        W65405  26.411  12.772   2.283 -0.0264  0.0489 -0.2181
22468W        W65406  23.787  15.191  30.117  0.0583  0.0112 -0.0391
22469W        W65407  24.211  13.125   0.139 -0.0991  0.3361  0.0863
22470W        W65408  22.396  11.057   0.232 -0.0782 -0.0565 -0.0083
22471W        W65409  26.073  11.828   1.682  0.0675 -0.3262 -0.3866
22472W        W65410  22.801  11.595   2.476  0.1121  0.0328 -0.1182
22473W        W65411  22.013  13.874   0.149  0.1266 -0.1796 -0.0654
22474W        W65412  23.808  11.766   3.178  0.1831  0.0821  0.0241
22475W        W65413  26.251  13.342   3.038  0.2415 -0.1894 -0.1957
22476W        W65414  25.417  12.376   0.988 -0.3998  0.2334  0.0501
22477W        W65415  23.225  12.680   1.695 -0.2161  0.1745 -0.4480
22478W        W65416  23.012  13.346   1.057 -0.0011  0.2851 -0.1066
22479W        W65417  22.030  11.876   2.271  0.0477 -0.1242 -0.3300
22480W        W65418  25.015  14.230  31.977  0.0428  0.2673 -0.2864
22481W        W65419  25.914  15.156  31.389  0.2380  0.3581  0.0833
22482W        W65420  22.626  13.253   0.707 -0.1000 -0.1040  0.3434
22483W        W65421  20.932  12.531   0.333 -0.0835 -0.2991 -0.1873
22484W        W65422  22.033  12.854   3.611  0.0180 -0.1673 -0.1528
22485W        W65423  21.640  12.833   2.649  0.2337  0.0423 -0.1190
22486W        W65424  21.076  10.538   0.267 -0.3232 -0.3917  0.0543
22487W        W65425  26.744  13.320   3.044 -0.1440  0.1402  0.2020
22488W        W65426  22.109  12.861   2.495 -0.1863  0.1416  0.1151
22489W        W65427  24.215  12.241   0.949 -0.2797 -0.1238  0.0645
22490W        W65428  23.394  13.843   2.359 -0.1010  0.0941 -0.2947
22491W        W65429  25.253  13.364   2.673  0.2559  0.0948 -0.1180
22492W        W65430  25.353  12.732   0.575 -0.3699 -0.0309 -0.2938
22493W        W65431  23.755  11.461   2.004 -0.4225 -0.2335 -0.0144
22494W        W65432  24.355  10.680   2.847  0.1703 -0.0882  0.1247
22495W        W65433  23.069  12.717  31.009  0.0301  0.0733 -0.3124
22496W        W65434  22.532  12.265  31.836  0.1383 -0.1441  0.1182
22497W        W65435  24.441  14.164   2.021 -0.0223  0.0512  0.1260
22498W        W65436  25.531  11.875   0.855  0.2081  0.2696 -0.3527
22499W        W65437  21.814  14.174   0.599 -0.0321 -0.0491 -0.2418
22500W        W65438  23.736  11.821   3.939 -0.0987  0.0030  0.2562
22501W        W65439  23.358  14.445   3.815 -0.1426  0.0944  0.2131
22502W        W65440  21.594  14.248   0.063  0.1105 -0.1947 -0.2425
22503W        W65441  22.359  12.435   1.748  0.2370 -0.0458  0.2005
22504W        W65442  22.034  14.054  31.364 -0.1026 -0.1193  0.4480
22505W        W65443  22.450  11.451   2.151  0.1233 -0.0302 -0.1341
22506W        W65444  22.489  13.329   1.399 -0.0318  0.0196 -0.0588
22507W        W65445  26.499  11.082   2.173 -0.0830 -0.1245  0.2335
22508W        W65446  22.109  11.222   3.239  0.1246 -0.3324  0.0156
22509W        W65447  24.791  11.858   1.571  0.2249  0.3141 -0.0715
22510W        W65448  22.731  12.769   0.467 -0.1683  0.0799  0.0955
22511W        W65449  24.732  14.723   0.112 -0.2000  0.0803 -0.0818
22512W        W65450  24.427  13.046  31.643  0.0851 -0.0878 -0.1456
22513W        W65451  23.532  14.211  30.988  0.1312  0.4009 -0.0632
22514W        W65452  22.305  13.280   2.775 -0.2923  0.0560  0.1132
22515W        W65453  21.302  12.809   3.080  0.1642 -0.1922 -0.2281
22516W        W65454  22.700  11.975   4.319 -0.1342 -0.4851  0.0975
22517W        W65455  22.233  12.387   2.330 -0.2765  0.0482 -0.0001
22518W        W65456  23.536  13.404   2.109 -0.0678  0.1866  0.2210
22519W        W65457  21.850  10.948  31.068  0.1209  0.1001  0.1181
22520W        W65458  24.124  13.300   2.112 -0.1605 -0.0415 -0.4077
22521W        W65459  22.979  11.683   2.030 -0.1360  0.2159 -0.1792
22522W        W65460  22.181  11.706  31.551  0.0272  0.2934  0.1215
22523W        W65461  24.708  11.419   2.789 -0.2049 -0.0550 -0.1172
22524W        W65462  25.334  14.075   0.412  0.2259 -0.0270  0.2741
22525W        W65463  25.028  14.310   1.467 -0.0491 -0.1093 -0.0689
22526W        W65464  25.809  15.674  31.566 -0.0322  0.2258  0.3424
22527W        W65465  23.138  12.387   3.436  0.1308  0.2038  0.0557
22528W        W65466  22.186  11.539   0.201 -0.1439  0.0535  0.0516
22529W        W65467  22.401  14.529   0.670 -0.1564  0.2893  0.0467
22530W        W65468  22.746  13.227   0.168  0.0461  0.1017  0.2527
22531W        W65469  22.927  11.573   0.920 -0.2501 -0.1058 -0.3308
22532W        W65470  26.352  15.367   2.133  0.2700 -0.0065  0.0229
22533W        W65471  23.131  11.859  30.662 -0.3695  0.0658 -0.0878
22534W        W65472  21.679  13.209   3.429  0.0020  0.0930 -0.0436
22535W        W65473  25.593  11.305   3.824 -0.0676  0.3124 -0.0558
22536W        W65474  25.746  12.018   2.489  0.1512  0.0511 -0.0359
22537W        W65475  23.126  14.085   1.600  0.3863 -0.0771  0.0956
22538W        W65476  21.492  12.462  30.560  0.2329  0.1311 -0.0139
22539W        W65477  22.919  15.371   1.114 -0.0776 -0.4129 -0.3596
22540W        W65478  22.301  14.251  31.924  0.2597  0.0360 -0.5009
22541W        W65479  22.000  12.221   1.268 -0.1718 -0.2911  0.3422
22542W        W65480  23.139  12.884   1.214  0.2787 -0.1904  0.0022
22543W        W65481  26.345  12.690   1.286  0.2982 -0.3313 -0.0882
22544W        W65482  22.349  11.400   3.811 -0.1801  0.1340 -0.1626
22545W        W65483  24.459  10.818   4.428 -0.1298 -0.0992  0.0488
22546W        W65484  22.913  12.859   3.993  0.0334  0.2916 -0.0288
22547W        W65485  24.440  12.659   1.072  0.1627  0.0702  0.4310
22548W        W65486  25.021  10.875   1.953  0.0855 -0.2399  0.2086
22549W        W65487  23.832  12.497   2.540  0.2241  0.1844  0.2029
22550W        W65488  24.566  13.509   0.047 -0.1130 -0.2350  0.1277
22551W        W65489  23.505  12.092   0.161  0.0352  0.4101  0.2633
22552W        W65490  25.195  12.065  31.941 -0.0133 -0.2984 -0.1187
22553W        W65491  21.432  12.794   2.203 -0.0802  0.0659  0.0297
22554W        W65492  25.077  13.130   2.273  0.0228  0.0789  0.2946
22555W        W65493  23.289  13.588   0.289 -0.2148  0.1642  0.0934
22556W        W65494  23.149  11.082   0.339 -0.0444 -0.0746  0.0032
22557W        W65495  24.276  13.933   0.045  0.1288  0.0062 -0.2261
22558W        W65496  21.635  13.464   1.711  0.1575  0.0573 -0.0339
22559W        W65497  23.887  13.017   3.734  0.0174 -0.1247  0.3419
22560W        W65498  23.942  13.850   0.786 -0.2210 -0.0619 -0.0585
22561W        W65499  24.391  11.160   3.103 -0.1086 -0.3276 -0.1784
22562W        W65500  22.315  13.294  31.882  0.0558 -0.0683  0.0738
22563W        W65501  22.800  11.915   1.525  0.0929 -0.0668  0.1212
22564W        W65502  21.328  14.658  31.961  0.1962 -0.4421  0.0940
22565W        W65503  25.026  11.822   2.741 -0.0352  0.0182  0.0613
22566W        W65504  24.930  11.415   2.372  0.0200  0.5725  0.1244
22567W        W65505  22.832  12.284   3.859 -0.1815 -0.0828  0.1993
22568W        W65506  25.831  13.928   2.791  0.1590  0.1119  0.0353
22569W        W65507  23.135  11.145  31.085 -0.1734 -0.1883 -0.1088
22570W        W65508  24.105  12.112   2.708 -0.1154  0.1643 -0.0755
22571W        W65509  22.532  12.420   0.730 -0.1659  0.2847 -0.1472
22572W        W65510  23.635  12.188   3.423 -0.0919 -0.0416 -0.0344
22573W        W65511  21.812  12.823   3.124  0.0416 -0.1382 -0.0956
22574W        W65512  23.375  14.635   2.214 -0.3418  0.3113 -0.0735
22575W        W65513  24.805  13.528   2.547  0.2792  0.2487  0.0235
22576W        W65514  24.107  12.104   0.417 -0.2754 -0.0420 -0.2030
22577W        W65515  23.900  13.128   3.124  0.0729  0.1171 -0.1301
22578W        W65516  23.100  13.174   0.561  0.0278  0.1662  0.0478
22579W        W65517  23.394  15.388   1.204 -0.1643 -0.2147  0.4334
22580W        W65518  21.847  13.431   0.069  0.1949  0.3885  0.1137
22581W        W65519  23.190  10.693   2.103 -0.0292 -0.0522  0.1165
22582W        W65520  23.415  12.830   0.761  0.0031  0.1707 -0.1176
22583W        W65521  21.949  12.562  31.755 -0.1193  0.1424  0.0843
22584W        W65522  25.096  12.399   2.921 -0.0759 -0.1917  0.1829
22585W        W65523  22.819  14.644  31.895  0.2166  0.0694  0.0507
22586W        W65524  25.550  10.867   2.237 -0.0702 -0.1115 -0.2419
22587W        W65525  19.351  12.420   2.633 -0.1248 -0.2772  0.3874
22588W        W65526  22.783  12.067   0.904 -0.0433 -0.0312  0.4207
22589W        W65527  22.872  11.284  31.934 -0.0283 -0.1008 -0.0313
22590W        W65528  24.371  12.646  31.912 -0.0098 -0.1699 -0.2174
22591W        W65529  24.018  14.110  30.935  0.1867  0.2618 -0.0263
22592W        W65530  23.663  11.359   2.768 -0.0616  0.0885 -0.1310
22593W        W65531  23.241  11.436   1.609  0.0085  0.1452  0.0197
22594W        W65532  22.511  14.714   2.702 -0.4107  0.0587 -0.2132
22595W        W65533  24.229  13.620   3.106 -0.0686 -0.0237  0.4432
22596W        W65534  24.091  11.342   1.118  0.1442  0.2067  0.2633
22597W        W65535  23.910  15.427   1.967 -0.0381  0.1283 -0.1024
22598W        W65536  23.896  11.507   4.717  0.3085  0.1078  0.3426
22599W        W65537  21.734  11.932   0.356  0.0528 -0.1320  0.1108
22600W        W65538  23.646  12.462   1.929 -0.0322 -0.0524  0.1082
22601W        W65539  22.477  12.287   1.257 -0.1708  0.1757 -0.0387
22602W        W65540  23.653  14.919   0.062 -0.2424  0.0474  0.2144
22603W        W65541  23.189  12.815   0.231  0.2008 -0.0186  0.1708
22604W        W65542  22.428  12.955  29.405  0.0871  0.3077  0.1271
22605W        W65543  22.531  13.792   0.155 -0.1750  0.1084 -0.1714
22606W        W65544  23.499  12.993   5.674 -0.1495 -0.3455  0.1263
22607W        W65545  25.505  11.638   3.048  0.1732 -0.0173  0.1921
22608W        W65546  23.400  13.643   0.828 -0.3512 -0.1157  0.3931
22609W        W65547  22.433  11.353   1.172 -0.0094  0.0616  0.1959
22610W        W65548  22.688  11.050   0.734  0.0001  0.1167 -0.1320
22611W        W65549  24.054  12.955   2.549 -0.1102  0.2669 -0.0684
22612W        W65550  24.068  11.850   3.600  0.0919  0.0799  0.0599
22613W        W65551  22.193  14.321   2.652  0.3307 -0.0388 -0.1912
22614W        W65552  23.420  10.177   3.085  0.0562  0.0630  0.2477
22615W        W65553  25.662  14.560   1.870  0.0610 -0.1155 -0.1773
22616W        W65554  23.807  11.942   4.964 -0.0998  0.2766 -0.0561
22617W        W65555  22.972  12.958  31.759 -0.0812 -0.1973  0.0508
22618W        W65556  21.136  12.324   2.784  0.2558 -0.0229  0.2665
22619W        W65557  23.761  13.136   0.537 -0.2487  0.2819 -0.3111
22620W        W65558  23.894  12.718   0.815  0.2239  0.1533  0.2657
22621W        W65559  21.848  14.087   2.307  0.1134 -0.1120 -0.1691
22622W        W65560  23.553  13.878  31.365  0.0867 -0.0150  0.0096
22623W        W65561  22.313  13.061   3.227  0.2251  0.1564  0.0353
22624W        W65562  25.268  10.579   0.649 -0.0463 -0.2574  0.1075
22625W        W65563  23.017  14.004   0.011 -0.0377 -0.1092 -0.2167
22626W        W65564  21.868  12.167   1.836  0.0773  0.0011 -0.3339
22627W        W65565  24.890  10.574   5.301 -0.1399 -0.0900 -0.1914
22628W        W65566  24.832  13.304  30.173  0.1261 -0.1223  0.2633
22629W        W65567  25.129  11.298   4.137  0.4414 -0.1177  0.1694
22630W        W65568  23.479  12.209   1.507  0.1482 -0.1564 -0.0099
22631W        W65569  23.528  14.470   1.708  0.0124  0.1859 -0.0815
22632W        W65570  22.328  11.547   2.769 -0.0841 -0.5289  0.0400
22633W        W65571  22.234  15.210   3.003  0.1560 -0.0358  0.1433
22634W        W65572  21.990  12.294   3.718 -0.1522  0.2070 -0.1921
22635W        W65573  24.897  12.342   0.921  0.3717 -0.0609 -0.1801
22636W        W65574  22.301  11.951   1.643 -0.1148  0.1304  0.0296
22637W        W65575  23.376  13.615   1.334 -0.3138  0.2223 -0.1273
22638W        W65576  24.315  14.211   2.998  0.1263 -0.1809  0.0479
22639W        W65577  22.569  12.040   0.352  0.1119 -0.3319  0.0341
22640W        W65578  24.927  13.876   0.558  0.0616  0.0743 -0.3685
22641W        W65579  23.610  13.417   2.619 -0.1745 -0.0202  0.0956
22642W        W65580  23.450  12.382   1.015  0.0555 -0.0141 -0.0501
22643W        W65581  23.926  12.386  31.946 -0.0301  0.1599 -0.0533
22644W        W65582  23.125  13.651   1.955 -0.3760  0.0712 -0.0347
22645W        W65583  24.390  11.461   3.495 -0.0724 -0.2129 -0.2633
22646W        W65584  24.336  13.112   2.978 -0.2643  0.1900  0.1575
22647W        W65585  24.616  12.354   1.531 -0.2022 -0.0981  0.0901
22648W        W65586  24.432  11.765   2.548  0.0571 -0.0638 -0.0420
22649W        W65587  25.042  12.898   3.256  0.0350  0.4087  0.2245
22650W        W65588  23.603  12.905   2.807 -0.0424 -0.0203 -0.0356
22651W        W65589  22.365  11.957   3.092 -0.2761  0.0989 -0.3372
22652W        W65590  23.777  14.899   3.082 -0.5765 -0.0924  0.1070
22653W        W65591  25.656  12.277   0.544  0.2411 -0.0249 -0.0844
22654W        W65592  25.831  12.777   0.472 -0.0875 -0.0579 -0.1855
22655W        W65593  25.169  13.222   0.924  0.3530 -0.2721 -0.3222
22656W        W65594  23.446  12.645  30.627  0.0575  0.0121  0.2626
22657W        W65595  23.912  12.097   1.309 -0.1130  0.0976 -0.0894
22658W        W65596  25.636  12.126   2.992 -0.0149 -0.3901 -0.0367
22659W        W65597  21.768  11.456   0.572  0.0149  0.0797 -0.1232
22660W        W65598  25.342  10.285   3.534  0.3509  0.0428  0.2633
22661W        W65599  22.627  14.913   0.290 -0.1291 -0.0251  0.1169
22662W        W65600  25.491  12.900   1.910 -0.0671 -0.2591  0.1813
22663W        W65601  25.278  11.556  31.844 -0.1188 -0.1595  0.0142
22664W        W65602  23.216  12.371   2.222  0.1491  0.6004  0.0834
22665W        W65603  21.887  13.396   3.031  0.1953  0.1754  0.1380
22666W        W65604  22.685  11.032  30.934  0.0610 -0.0167 -0.1507
22667W        W65605  22.560  11.729  31.929 -0.1414 -0.0610  0.1720
22668W        W65606  23.869  13.607   1.211  0.1293  0.1569 -0.1075
22669W        W65607  27.093  13.081   3.406  0.0250 -0.0105 -0.0410
22670W        W65608  23.277  10.121   0.409  0.0685 -0.3046 -0.4356
22671W        W65609  24.124  12.674   2.092 -0.1061 -0.2243 -0.2710
22672W        W65610  20.849  13.574  31.885 -0.2186 -0.1879 -0.0800
22673W        W65611  24.337  11.871   1.809 -0.0373  0.0862  0.1771
22674W        W65612  22.174  14.288   1.735  0.2355 -0.1160  0.6421
22675W        W65613  22.332  12.877   2.030 -0.0431 -0.2818 -0.2895
22676W        W65614  23.747  13.988   0.271 -0.0165 -0.4797  0.0587
22677W        W65615  24.431  10.224   3.495 -0.0291 -0.1148  0.0797
22678W        W65616  23.636  12.556   0.281  0.0832 -0.0789  0.0300
22679W        W65617  24.219  12.823   3.388  0.0465  0.0293  0.2916
22680W        W65618  24.989  12.612   1.704  0.1372 -0.1020 -0.0882
22681W        W65619  23.745  13.960   2.734  0.0832  0.0364 -0.0448
22682W        W65620  22.624  12.877   1.042  0.1770  0.4075 -0.2464
22683W        W65621  25.527  14.077   3.142  0.0157  0.4726  0.2954
22684W        W65622  25.195  13.497   1.406  0.0333 -0.1911  0.1351
22685W        W65623  22.135  14.215   1.070  0.1090 -0.3392 -0.0405
22686W        W65624  22.673  12.844   2.948 -0.1573  0.2579 -0.0031
22687W        W65625  23.702  11.964   4.490 -0.2284 -0.1328  0.2889
22688W        W65626  24.135  12.658   0.354  0.3130  0.1682  0.0268
22689W        W65627  22.228  11.099   1.948 -0.1689  0.1288  0.1683
22690W        W65628  23.289  11.874   0.777  0.0130 -0.0858 -0.2278
22691W        W65629  21.677  13.563   3.795  0.0428 -0.0434  0.0171
22692W        W65630  21.512  12.984   1.736 -0.1431  0.2215  0.3189
22693W        W65631  21.790  14.424  31.597 -0.0365  0.4081  0.0911
22694W        W65632  22.784  13.566  31.727 -0.3217  0.0938  0.2423
22695W        W65633  24.418  13.782   0.710 -0.1428 -0.0271 -0.2474
22696W        W65634  24.681  13.488   2.076  0.0311 -0.0193  0.0692
22697W        W65635  22.945  10.760  31.426 -0.2890  0.0660 -0.0924
22698W        W65636  22.592  12.015   2.044  0.0213  0.0524 -0.0571
22699W        W65637  20.708  14.398  30.351 -0.1968  0.1473  0.1661
22700W        W65638  24.331  15.089   0.085  0.2488 -0.0604 -0.1826
22701W        W65639  22.374  14.008   0.544 -0.1296 -0.3591  0.1055
22702W        W65640  26.346  14.619   3.500 -0.2192  0.2677 -0.0029
22703W        W65641  24.726  11.902   0.861 -0.2926  0.0651  0.4043
22704W        W65642  25.655  13.401   1.113  0.0295 -0.2291 -0.4092
22705W        W65643  25.147  12.141   0.533  0.3294  0.2595  0.0460
22706W        W65644  25.937  12.928   3.201  0.1693 -0.3105 -0.0440
22707W        W65645  22.743  13.565   2.718  0.0836 -0.2305 -0.1122
22708W        W65646  23.172  10.922   0.888 -0.1434  0.0135 -0.3054
22709W        W65647  22.979  13.406   1.538  0.1461 -0.2127  0.3527
22710W        W65648  24.268  11.674   3.022  0.1082 -0.0251  0.2731
22711W        W65649  21.061  14.502   2.293 -0.2515  0.1953  0.0292
22712W        W65650  26.382  14.965   0.752  0.2804  0.3034 -0.0095
22713W        W65651  21.124  12.039   1.067  0.0617  0.0136 -0.0791
22714W        W65652  21.855  11.771   1.427  0.0248  0.0343 -0.1539
22715W        W65653  25.108  10.475   2.282 -0.1009  0.0603  0.0350
22716W        W65654  23.566  10.994  31.866  0.1308  0.0912 -0.1144
22717W        W65655  23.867  12.004   1.853  0.0303 -0.2454 -0.2502
22718W        W65656  24.039  14.615   0.167  0.2955 -0.1373  0.0928
22719W        W65657  21.432  12.434   1.903 -0.0946 -0.0941  0.1583
22720W        W65658  23.268  14.559   0.115 -0.2715  0.1346  0.0322
22721W        W65659  22.053  11.296  30.813  0.4419  0.1780  0.0331
22722W        W65660  26.124  12.352   2.332 -0.1601 -0.1369  0.0352
22723W        W65661  23.251  13.280   2.955 -0.0551 -0.0933  0.0572
22724W        W65662  24.818  10.907   2.909 -0.0155  0.0500  0.3509
22725W        W65663  21.896  12.603   2.039  0.0013  0.2310 -0.0720
22726W        W65664  23.272  11.892   1.247 -0.0874 -0.2661  0.4221
22727W        W65665  23.316  14.932   1.559  0.0569 -0.0496 -0.0569
22728W        W65666  23.365  12.790   3.721 -0.1954 -0.2228  0.2000
22729W        W65667  24.522  13.524  31.412 -0.0206  0.3526 -0.0276
22730W        W65668  26.106  13.353   3.502  0.0653  0.1273  0.0288
22731W        W65669  23.350  13.170  30.981  0.3056 -0.2206  0.1512
22732W        W65670  23.806  14.502   3.620  0.3179 -0.0845 -0.1209
22733W        W65671  21.949  12.184   2.701 -0.2007  0.3405 -0.2693
22734W        W65672  23.731  11.781   0.425  0.0164 -0.0551 -0.0902
22735W        W65673  20.773  11.432   1.201  0.3048  0.1266 -0.2111
22736W        W65674  23.088  13.388   2.407 -0.0908  0.1515  0.0337
22737W        W65675  24.828  13.293   2.992 -0.3566 -0.3118 -0.1463
22738W        W65676  21.688  11.133   1.838 -0.1945 -0.2931 -0.0663
22739W        W65677  25.447  13.452  31.678  0.2786 -0.1720 -0.1076
22740W        W65678  25.747  13.232   2.695 -0.2006 -0.0361  0.2234
22741W        W65679  25.431  14.532  31.543  0.0361  0.0808  0.1396
22742W        W65680  24.466  13.339   1.620 -0.0765  0.1827 -0.1034
22743W        W65681  24.227  13.732   1.901 -0.0314 -0.1633  0.0801
22744W        W65682  23.659  12.340   2.986 -0.0095  0.1909  0.0286
22745W        W65683  24.138  13.398   0.857 -0.1147  0.1536 -0.1462
22746W        W65684  23.989  14.238   1.786  0.3033 -0.3353 -0.0651
22747W        W65685  22.972  10.611   1.221 -0.3334 -0.1272 -0.0901
22748W        W65686  23.014  12.193   1.829  0.1095 -0.2595 -0.2595
22749W        W65687  23.406  14.882  31.212  0.0321 -0.3426 -0.3262
22750W        W65688  24.088  10.787   1.468  0.1524  0.1203  0.2329
22751W        W65689  24.078  13.149   1.266  0.1249  0.0528 -0.1517
22752W        W65690  24.366  13.401  30.283 -0.3351  0.2995 -0.1252
22753W        W65691  24.845  11.884   2.098  0.0708  0.0708 -0.1030
22754W        W65692  24.856  14.441   3.838 -0.2531  0.2611 -0.2239
22755W        W65693  22.427  12.577   3.713  0.0031 -0.1491  0.1111
22756W        W65694  22.382  10.507   0.236  0.0204  0.2467 -0.0793
22757W        W65695  23.575  13.275   1.025  0.1279  0.4241  0.0665
22758W        W65696  22.999  12.585   0.844  0.0147 -0.1925 -0.1174
22759W        W65697  24.431  14.361  31.829 -0.1112  0.0838 -0.1183
22760W        W65698  24.535  14.271   0.345 -0.2449 -0.2450 -0.4208
22761W        W65699  23.410  13.139   1.565 -0.0340 -0.0602  0.0377
22762W        W65700  26.014  13.272   1.933 -0.1372  0.0425  0.1150
22763W        W65701  23.132  11.100   2.473  0.2763 -0.0456  0.2623
22764W        W65702  24.603  12.372   2.044  0.2468  0.2081  0.0284
22765W        W65703  24.519  11.380   0.840  0.0502 -0.1023 -0.0291
22766W        W65704  22.027  13.104   1.729  0.0679 -0.0744  0.1780
22767W        W65705  22.454  12.754  31.672  0.2262  0.0539  0.0004
22768W        W65706  22.154  12.282  30.955 -0.0101  0.1558 -0.0453
22769W        W65707  22.785  12.873   1.578 -0.3732  0.0254 -0.0525
22770W        W65708  24.086  10.965   4.004  0.3957  0.1441 -0.1314
22771W        W65709  23.154  11.886   3.933  0.0767 -0.0934 -0.0769
22772W        W65710  21.951  11.408   2.327 -0.2464 -0.3436  0.4150
22773W        W65711  22.240  12.824   0.615  0.0305  0.0065 -0.1881
22774W        W65712  23.019  12.342   1.303  0.0166 -0.3423 -0.2892
22775W        W65713  22.117  10.547   2.603 -0.3759 -0.1580  0.1250
22776W        W65714  22.781  12.704   2.065 -0.0986 -0.2462 -0.2266
22777W        W65715  25.288  12.407  31.507  0.0703  0.0973 -0.3214
22778W        W65716  24.131  13.920   1.468 -0.2479  0.1324  0.0314
22779W        W65717  23.402  11.642   2.341  0.1770  0.2261 -0.0094
22780W        W65718  24.130  14.726   2.333  0.0193  0.2292 -0.2967
22781W        W65719  21.618  13.987  31.103 -0.2950  0.0253 -0.2051
22782W        W65720  25.134  11.166   3.684 -0.2184 -0.0333 -0.2958
22783W        W65721  23.953  11.678   2.422 -0.1361  0.2092  0.1605
22784W        W65722  19.941  12.429  31.589  0.1226 -0.1681  0.2587
22785W        W65723  24.223  11.796   0.760 -0.1609  0.0217  0.0194
22786W        W65724  23.167  14.057   0.491  0.1177 -0.4026 -0.0119
22787W        W65725  23.964  14.677   0.892  0.0857  0.2897  0.0374
22788W        W65726  23.591  12.947   2.253  0.2137 -0.1535  0.1586
22789W        W65727  23.344  14.279   2.651  0.1099 -0.0557 -0.2050
22790W        W65728  23.287  11.923   3.158 -0.0400 -0.1097  0.1665
22791W        W65729  23.059  11.962  31.718  0.2110  0.2387  0.0118
22792W        W65730  22.638  13.209   1.903  0.3590 -0.0845  0.2490
22793W        W65731  25.532  12.891   1.020 -0.2118 -0.3855 -0.1516
22794W        W65732  25.642  11.970   1.920 -0.2385 -0.0333 -0.1868
22795W        W65733  23.226  12.325   0.507 -0.1040 -0.1761  0.3304
22796W        W65734  22.038  10.996   3.676 -0.0695  0.0187  0.0338
22797W        W65735  22.152  11.778   3.509 -0.1688  0.1276 -0.0514
22798W        W65736  24.575  13.102   2.522 -0.2499  0.1967 -0.1500
22799W        W65737  23.272  10.898   1.635 -0.2180  0.2271  0.0245
22800W        W65738  25.010  12.697   1.196 -0.0564 -0.2056 -0.0053
22801W        W65739  22.170  11.749   0.671  0.0154 -0.1367 -0.0449
22802W        W65740  20.820  13.129   2.296 -0.0342 -0.0350  0.0091
22803W        W65741  22.597  11.958  31.408 -0.0020  0.0199 -0.0699
22804W        W65742  22.746  12.526   2.514  0.4258 -0.0797  0.0453
22805W        W65743  23.145  14.070   1.137  0.0596  0.1956  0.1671
22806W        W65744  24.747  13.854   3.122  0.2651 -0.2299  0.1475
22807W        W65745  23.299  13.315  31.833 -0.1230  0.1724 -0.1520
22808W        W65746  25.384  12.039  31.107  0.0807  0.1574  0.0880
22809W        W65747  23.724  14.256   2.238  0.3498  0.2027 -0.1181
22810W        W65748  25.235  15.455   1.861  0.2961 -0.0852 -0.2734
22811W        W65749  24.443  13.874   2.429  0.0824 -0.2204  0.1539
22812W        W65750  24.477  12.831   1.590  0.0466 -0.2373  0.1918
22813W        W65751  23.136  12.825   3.131  0.1533 -0.0475 -0.3101
22814W        W65752  22.585  11.469   0.455  0.2805  0.1641 -0.1652
22815W        W65753  23.402  12.426  31.771 -0.3258  0.0299 -0.1702
22816W        W65754  24.725  12.161   2.508  0.2237 -0.2850  0.0212
22817W        W65755  23.656  12.114   2.301 -0.0139 -0.4311  0.1498
22818W        W65756  23.573  10.579   0.677 -0.0576  0.0981 -0.1226
22819W        W65757  22.799  13.804   1.324 -0.1459  0.0015 -0.0330
22820W        W65758  24.180  13.455   2.649 -0.0259  0.1719  0.0797
22821W        W65759  22.494  13.980   7.263  0.5935  0.0314  0.2205
22822W        W65760  22.648  11.762   5.105  0.0464 -0.1755  0.2208
22823W        W65761  25.448  12.842   2.450  0.0739  0.0334  0.1471
22824W        W65762  24.447  12.566   2.602  0.0010  0.0752  0.1060
22825W        W65763  21.622  10.682   5.025 -0.0858  0.0323  0.0590
22826W        W65764  24.696  13.393   5.115 -0.1789 -0.0118 -0.1629
22827W        W65765  22.305  10.660   7.063 -0.1011 -0.1878 -0.5651
22828W        W65766  24.066  14.472   6.728  0.0396 -0.0503 -0.1416
22829W        W65767  25.437  13.714   6.095  0.0473  0.0411  0.1378
22830W        W65768  24.655  12.866   3.619  0.0297  0.1979  0.0764
22831W        W65769  24.524  12.330   6.717 -0.1249  0.1989 -0.0414
22832W        W65770  22.405  13.372   5.480  0.0444 -0.1751  0.3907
22833W        W65771  21.955  11.008   4.592 -0.1436 -0.0061 -0.0570
22834W        W65772  21.975   9.876   3.910  0.0101 -0.1618  0.3702
22835W        W65773  25.086  12.412   5.442  0.3691  0.0885  0.0365
22836W        W65774  22.171  13.408   4.151  0.3319  0.0561  0.3103
22837W        W65775  23.174  12.154   6.169  0.1574 -0.0018 -0.1897
22838W        W65776  23.509  12.266   3.906  0.1963 -0.1099  0.2427
22839W        W65777  23.272  13.916   6.075  0.2954  0.0522 -0.1658
22840W        W65778  23.760  11.264   5.902 -0.0870  0.2463 -0.2646
22841W        W65779  24.099  11.154   6.493  0.0702 -0.1522  0.0826
22842W        W65780  22.888  14.066   5.006 -0.0832 -0.1097  0.0452
22843W        W65781  22.774  12.313   4.703  0.0418  0.1276  0.2170
22844W        W65782  22.685  11.961   5.567 -0.2297  0.0138 -0.2638
22845W        W65783  22.272  12.845   6.123  0.2094 -0.1040  0.2758
22846W        W65784  24.661  11.433   5.964 -0.1571 -0.0419 -0.4563
22847W        W65785  25.270  12.438   4.042  0.0960 -0.1112 -0.3197
22848W        W65786  23.125  13.593   5.254 -0.0837 -0.0377  0.0364
22849W        W65787  23.692  12.981   4.621  0.2906 -0.4309  0.2256
22850W        W65788  23.808  11.551   6.611 -0.0711 -0.0831  0.1583
22851W        W65789  22.904  13.448   5.687  0.0659  0.1994  0.2590
22852W        W65790  21.992  13.762   5.103 -0.1607 -0.1742  0.1647
22853W        W65791  22.569  13.720   5.060 -0.0369  0.1523 -0.0681
22854W        W65792  25.053  13.642   4.803 -0.0926 -0.1726 -0.4221
22855W        W65793  24.700  12.674   7.373 -0.5448 -0.0058 -0.1653
22856W        W65794  22.882  13.557   6.221 -0.2542  0.0225 -0.1156
22857W        W65795  22.058  12.680   4.202  0.0685 -0.0432 -0.4909
22858W        W65796  24.016  13.652   5.822  0.1573 -0.1640  0.3616
22859W        W65797  23.744  14.474   7.239  0.1136 -0.0445 -0.1097
22860W        W65798  23.545  13.451   5.935  0.1284 -0.1950 -0.1301
22861W        W65799  23.149  11.924   4.533 -0.1805  0.0082 -0.0090
22862W        W65800  23.026  14.418   3.406 -0.1845  0.3499  0.0912
22863W        W65801  24.171  13.349   4.938 -0.1510  0.1169  0.4727
22864W        W65802  23.175  11.745   7.454  0.0997 -0.1083 -0.0966
22865W        W65803  22.869  12.839   4.490 -0.0145  0.1295 -0.2213
22866W        W65804  25.629  12.809   5.987 -0.1194 -0.1200  0.1236
22867W        W65805  22.405  13.086   3.829 -0.0562  0.0938 -0.1257
22868W        W65806  24.455  12.407   3.710  0.2184  0.3055  0.0903
22869W        W65807  23.266  11.294   5.858 -0.0793  0.0156  0.1540
22870W        W65808  23.958  12.472   3.749 -0.1855 -0.3032  0.0758
22871W        W65809  23.409   9.646   4.942  0.3236  0.0484 -0.0953
22872W        W65810  23.155  14.617   6.146 -0.4410 -0.3121  0.2559
22873W        W65811  23.471  11.736   5.798  0.2154  0.2005  0.4704
22874W        W65812  24.601  13.951   6.863  0.3164  0.0033  0.0355
22875W        W65813  24.082  12.624   2.965 -0.0030  0.0273 -0.0115
22876W        W65814  24.265  11.380   5.613  0.2088  0.0278  0.0110
22877W        W65815  21.629  13.704   5.908  0.0636  0.1897 -0.0693
22878W        W65816  23.472  12.926   5.133 -0.1436  0.0152  0.1950
22879W        W65817  25.272  14.780   4.096 -0.1678  0.2200  0.2271
22880W        W65818  24.937  15.372   4.669 -0.2378  0.0896 -0.0530
22881W        W65819  24.132  14.258   2.548  0.3206  0.0086 -0.2318
22882W        W65820  21.805  11.713   4.405 -0.0597 -0.2959 -0.0302
22883W        W65821  22.064  12.735   6.855 -0.2346  0.0541 -0.1610
22884W        W65822  22.012  13.321   5.886 -0.1606  0.1075 -0.2834
22885W        W65823  22.920  11.508   3.739 -0.1762 -0.1035  0.1509
22886W        W65824  24.432  13.131   7.343 -0.0964 -0.1087 -0.2204
22887W        W65825  21.108  14.391   7.001  0.0156 -0.1335  0.2422
22888W        W65826  24.892  11.039   4.522  0.0291  0.1711  0.2142
22889W        W65827  22.536  12.841   5.365 -0.0785  0.3097  0.4393
22890W        W65828  23.677  14.187   6.705 -0.2914 -0.1715  0.3780
22891W        W65829  24.221  14.600   3.278  0.0009  0.0186  0.1633
22892W        W65830  24.762   9.287   6.381  0.1461 -0.2047 -0.2772
22893W        W65831  25.220  10.020   6.727  0.1081 -0.4615  0.2746
22894W        W65832  23.161  13.121   4.833  0.1465 -0.0657  0.2975
22895W        W65833  24.481  11.892   4.015  0.0609 -0.1157 -0.1647
22896W        W65834  24.427  13.347   5.910 -0.1905  0.1843 -0.0055
22897W        W65835  25.674  12.808   4.151  0.2155  0.1696 -0.1155
22898W        W65836  21.935  14.143   5.991  0.0218 -0.0844 -0.2704
22899W        W65837  23.350  11.545   6.273  0.0612  0.1012 -0.1350
22900W        W65838  25.063  14.119   7.008  0.2823  0.0300 -0.0873
22901W        W65839  21.717  13.296   2.550 -0.2293 -0.1693  0.5041
22902W        W65840  22.392  14.126   5.855 -0.1627 -0.3256 -0.1927
22903W        W65841  22.140  13.376   2.222  0.2763 -0.0238 -0.0597
22904W        W65842  22.524  12.237   5.968 -0.0460  0.3735  0.0600
22905W        W65843  22.637  12.973   5.831 -0.1341  0.1109  0.0891
22906W        W65844  25.217  10.703   4.489  0.4403 -0.2094 -0.3174
22907W        W65845  23.417  12.320   7.148 -0.0261 -0.1524 -0.2376
22908W        W65846  24.966  11.794   6.970  0.1109 -0.2863 -0.1510
22909W        W65847  23.080  13.281   3.723  0.0093  0.1705  0.2150
22910W        W65848  25.368  14.479   4.932 -0.0669 -0.0892  0.1720
22911W        W65849  25.530  12.590   3.248 -0.1503  0.2107  0.0812
22912W        W65850  25.436  13.235   4.098  0.0681 -0.0176  0.4010
22913W        W65851  23.023  12.990   5.384  0.0210  0.1624 -0.1211
22914W        W65852  22.315  12.454   5.598 -0.2168  0.2765 -0.0928
22915W        W65853  22.858  11.335   6.908  0.0848 -0.3381 -0.3847
22916W        W65854  21.409  12.718   6.055 -0.1266 -0.2401  0.1131
22917W        W65855  25.773  13.118   6.587  0.2471 -0.0731  0.0496
22918W        W65856  22.561  11.454   3.337 -0.0372 -0.1237  0.1663
22919W        W65857  24.286  12.198   4.849  0.2272 -0.1753  0.1035
22920W        W65858  22.640  11.004   4.561 -0.0407 -0.0181  0.1519
22921W        W65859  22.152  12.480   4.648  0.4332  0.0430  0.0778
22922W        W65860  24.635  11.021   7.256  0.0149  0.2346 -0.1287
22923W        W65861  22.737  13.982   6.313  0.2614  0.0192  0.1399
22924W        W65862  26.763  14.505   6.232  0.2892 -0.3042 -0.2046
22925W        W65863  24.658  14.159   5.932  0.1747 -0.1738 -0.1370
22926W        W65864  22.672  12.214   6.418 -0.2753  0.0911  0.0072
22927W        W65865  22.996  11.178   4.871  0.0312 -0.0269  0.0511
22928W        W65866  22.982  14.288   5.871  0.0697 -0.0175  0.1886
22929W        W65867  22.360  14.063   4.762 -0.0667 -0.1643 -0.0138
22930W        W65868  21.945  11.293   4.130  0.0545  0.0304 -0.1704
22931W        W65869  25.160  12.827   6.370 -0.0872 -0.1317 -0.1580
22932W        W65870  23.369  13.931   4.966  0.2830  0.1819 -0.1784
22933W        W65871  22.859  12.575   6.155 -0.1221 -0.0268 -0.2334
22934W        W65872  24.401  11.828   5.794  0.1695 -0.0351 -0.1444
22935W        W65873  24.687  14.291   5.298 -0.2286 -0.0383  0.0303
22936W        W65874  23.566  10.596   4.736 -0.2465 -0.2600 -0.0489
22937W        W65875  21.702  12.328   3.300  0.2910  0.0648 -0.0987
22938W        W65876  22.658  15.210   3.359 -0.1282  0.2028 -0.0641
22939W        W65877  22.662  14.945   4.653  0.0671 -0.3278  0.1701
22940W        W65878  21.992  13.167   4.552  0.1067  0.3266 -0.0676
22941W        W65879  21.156  13.606   3.641 -0.3116 -0.0565  0.1166
22942W        W65880  24.729  12.482   5.052 -0.2474 -0.2129  0.2629
22943W        W65881  21.434  13.795   6.719 -0.2293  0.0373  0.1647
22944W        W65882  22.546  12.766   7.196  0.1585 -0.1492  0.0302
22945W        W65883  21.840  12.033   4.917  0.1037 -0.1746  0.0404
22946W        W65884  22.302  13.049   7.515  0.1249 -0.3780 -0.0225
22947W        W65885  24.543  10.784   4.960  0.0244  0.1803  0.1085
22948W        W65886  25.475  12.167   3.549  0.2467 -0.1567 -0.0492
22949W        W65887  24.133  11.580   6.126  0.2134 -0.0081 -0.1818
22950W        W65888  24.875  12.926   5.287 -0.1657 -0.4328  0.0002
22951W        W65889  24.634  12.090   2.984 -0.5023 -0.3357 -0.1227
22952W        W65890  26.025  11.149   3.562  0.1844  0.0503 -0.4656
22953W        W65891  21.900  13.756   6.903  0.1301  0.0664 -0.1684
22954W        W65892  23.630  14.028   3.737  0.1816  0.1445  0.2210
22955W        W65893  23.631  13.729   5.411 -0.2020  0.2171 -0.0734
22956W        W65894  23.096  12.391   4.313  0.1120  0.2291  0.1264
22957W        W65895  24.850  14.130   4.858 -0.1185 -0.0287 -0.0849
22958W        W65896  21.874  12.621   5.870  0.0572  0.0916 -0.2641
22959W        W65897  23.689  13.227   8.524  0.0250 -0.1867  0.1613
22960W        W65898  24.435  13.822   5.094 -0.1139  0.1341  0.2373
22961W        W65899  23.377  10.749   6.085  0.0009 -0.1727 -0.1380
22962W        W65900  24.402  12.390   4.281  0.2323 -0.1328  0.0748
22963W        W65901  23.821  10.104   4.978  0.1806  0.0556  0.3279
22964W        W65902  22.175  13.930   3.510 -0.2279  0.1749 -0.4303
22965W        W65903  26.294  12.869   6.699 -0.0069  0.0600  0.0053
22966W        W65904  23.939  11.497   5.184  0.3570 -0.2038 -0.3185
22967W        W65905  22.682  11.577   7.316  0.0611 -0.1734 -0.0871
22968W        W65906  24.539  14.441   8.308  0.0931 -0.0096 -0.3079
22969W        W65907  23.992  12.182   4.125 -0.1476  0.2642 -0.0801
22970W        W65908  23.943  11.757   5.660 -0.0603  0.0496  0.1011
22971W        W65909  22.894  12.733   4.957  0.2653  0.0595 -0.0368
22972W        W65910  24.998  11.170   5.195  0.0051  0.2422  0.2583
22973W        W65911  21.841  12.211   6.101  0.1933 -0.3936  0.0828
22974W        W65912  22.564  13.660   6.680  0.0899 -0.0715 -0.4581
22975W        W65913  24.064  13.525   7.588 -0.3119 -0.3525 -0.0782
22976W        W65914  24.133  12.262   3.328 -0.0104 -0.0845 -0.2356
22977W        W65915  24.070  12.216   6.525  0.2099 -0.0123  0.0529
22978W        W65916  22.970  11.502   4.333 -0.2243  0.2731 -0.1448
22979W        W65917  22.024  14.842   4.684 -0.1232  0.1835  0.2499
22980W        W65918  23.433  13.155   3.401 -0.4311  0.0188 -0.1664
22981W        W65919  23.667  12.257   5.692 -0.3283 -0.3783 -0.2942
22982W        W65920  22.108  13.740   5.616 -0.0260  0.0587 -0.0387
22983W        W65921  24.322  13.276   3.501  0.0367 -0.2921 -0.0594
22984W        W65922  25.313  13.141   6.847 -0.0933 -0.3682  0.1351
22985W        W65923  22.618  13.539   3.639 -0.0442  0.0685 -0.0653
22986W        W65924  25.959  10.899   5.022 -0.2932 -0.2133 -0.3224
22987W        W65925  22.282  13.325   6.296  0.0107  0.0811 -0.0404
22988W        W65926  22.828  11.803   2.979  0.1083 -0.0618 -0.2442
22989W        W65927  21.247  13.436   5.653 -0.2864  0.1184 -0.0257
22990W        W65928  24.822  11.621   4.317  0.0173  0.0087  0.1001
22991W        W65929  25.910  13.687   3.798 -0.2566  0.0161 -0.0151
22992W        W65930  22.457  12.353   6.870 -0.0723  0.1082 -0.1822
22993W        W65931  23.971  10.971   5.537  0.2581 -0.1907 -0.1513
22994W        W65932  22.234  13.951   6.369 -0.2936  0.1821  0.1277
22995W        W65933  24.352  13.015   5.324  0.3580  0.0837  0.1672
22996W        W65934  24.876  11.596   3.746  0.1799 -0.1432 -0.0153
22997W        W65935  24.394  13.790   6.128  0.4777 -0.0976  0.3354
22998W        W65936  22.486  12.575   8.175  0.2941  0.0956  0.0351
22999W        W65937  22.436  12.021   3.846 -0.1383 -0.0191 -0.0872
23000W        W65938  25.921  13.590   5.745  0.2146 -0.2167  0.0981
23001W        W65939  22.848  11.745   6.096  0.1207  0.0052 -0.2375
23002W        W65940  21.237  13.605   5.184 -0.3648 -0.0691  0.0944
23003W        W65941  23.290  14.462   7.000  0.2109 -0.1635  0.1743
23004W        W65942  22.321  11.640   4.274 -0.1318 -0.3182  0.0172
23005W        W65943  21.577  12.857   5.506  0.0031  0.1664 -0.0940
23006W        W65944  23.021  11.023   7.817  0.2517 -0.1913  0.2658
23007W        W65945  24.082  13.007   5.794 -0.0450  0.2007 -0.0991
23008W        W65946  24.645  12.176   5.522  0.0885 -0.0794 -0.0814
23009W        W65947  22.573  10.510   5.601 -0.0157 -0.0815 -0.0043
23010W        W65948  24.622  11.000   5.518  0.2227  0.0100 -0.1011
23011W        W65949  23.854  13.272   5.407 -0.0524  0.0402 -0.1406
23012W        W65950  23.607  11.107   4.940  0.2116  0.4712 -0.1520
23013W        W65951  22.747  13.007   8.207 -0.1272 -0.0808 -0.1291
23014W        W65952  23.114  11.565   5.355  0.1671 -0.0974 -0.1069
23015W        W65953  25.127  12.847   4.836 -0.2847 -0.0325  0.1016
23016W        W65954  24.060  11.718   8.253  0.1000  0.0763  0.1793
23017W        W65955  22.760  13.299   3.241  0.2913  0.0305 -0.0996
23018W        W65956  21.876  12.400   5.392  0.1784  0.2144 -0.3478
23019W        W65957  22.776  14.265   3.968  0.0086 -0.1120 -0.2148
23020W        W65958  22.873  12.317   5.239 -0.1274 -0.0690 -0.1761
23021W        W65959  23.325  12.552   5.359  0.0530  0.2252  0.1743
23022W        W65960  22.770  13.374   4.363 -0.1063 -0.1337  0.2216
23023W        W65961  21.092  12.430   7.325 -0.1868  0.0252 -0.1290
23024W        W65962  25.199  12.278   2.005 -0.1855 -0.2125 -0.3718
23025W        W65963  23.913  13.597   3.538  0.3352 -0.1452 -0.0440
23026W        W65964  23.407  11.552   4.959 -0.0675  0.0342 -0.2191
23027W        W65965  25.400  12.105   7.143 -0.1070  0.0386  0.0234
23028W        W65966  24.932  12.085   3.808 -0.2850  0.0115  0.1642
23029W        W65967  25.035  12.147   6.582  0.3201 -0.2418  0.0866
23030W        W65968  22.127  10.972   6.354  0.0553  0.4389  0.1544
23031W        W65969  24.428  13.483   6.534  0.0787  0.5301  0.1045
23032W        W65970  22.489  12.090   7.356 -0.2978 -0.0398 -0.0128
23033W        W65971  24.107  14.207   6.106  0.1365 -0.1526  0.2825
23034W        W65972  21.690  12.510   7.363 -0.0081  0.5081  0.2153
23035W        W65973  24.285  10.564   5.935  0.0241 -0.0968  0.1501
23036W        W65974  22.817  10.585   4.236  0.0212  0.0282  0.0881
23037W        W65975  24.147  12.249   5.757  0.0472 -0.0873 -0.0620
23038W        W65976  24.986  13.373   4.371  0.2680  0.2147 -0.1468
23039W        W65977  22.962  13.626   4.741  0.4317 -0.0960 -0.1084
23040W        W65978  25.120  11.997   5.685 -0.0310 -0.2332  0.1734
23041W        W65979  22.844  12.557   5.660 -0.0606 -0.1945 -0.2519
23042W        W65980  24.341  12.496   5.319 -0.2072  0.0460 -0.1745
23043W        W65981  23.036  13.664   4.090 -0.0719 -0.1870 -0.0369
23044W        W65982  23.743  12.652   4.222  0.0614  0.2228 -0.2273
23045W        W65983  23.143  12.290   6.669  0.1285  0.2243 -0.2839
23046W        W65984  23.878  12.455   4.701  0.1746 -0.0731 -0.2502
23047W        W65985  25.150  11.538   5.896  0.1000 -0.1018  0.3160
23048W        W65986  24.672  11.924   5.076 -0.1343  0.0749 -0.1619
23049W        W65987  25.096  12.151   4.875 -0.2752 -0.1098 -0.1606
23050W        W65988  23.781  11.970   6.131 -0.1144  0.1107  0.0684
23051W        W65989  22.248  11.770   7.747 -0.2360 -0.0714 -0.0154
23052W        W65990  24.570  14.419   7.044 -0.0744 -0.0712  0.3258
23053W        W65991  25.914  12.969   3.739  0.0414 -0.2004 -0.1535
23054W        W65992  23.730  11.999   6.977  0.3428  0.2789 -0.0695
23055W        W65993  25.097  12.067   4.333 -0.1543 -0.2495  0.1338
23056W        W65994  23.367  12.547   4.712 -0.2521  0.1129 -0.0160
23057W        W65995  23.538  11.325   5.446  0.0032 -0.0752 -0.0474
23058W        W65996  24.749  12.472   7.901 -0.0580 -0.2876 -0.0787
23059W        W65997  21.755  11.428   3.531 -0.2543 -0.1454  0.0127
23060W        W65998  25.493  12.746   5.528  0.0250  0.1155  0.2623
23061W        W65999  24.372  13.867   3.464  0.0156 -0.0253  0.0778
23062W        W66000  22.675  13.208   4.924 -0.0298 -0.1419  0.1455
23063W        W66001  23.183  12.092   5.577 -0.1610  0.2634 -0.2921
23064W        W66002  21.627  11.340   4.747 -0.0175  0.0292 -0.3282
23065W        W66003  22.290  14.171   6.818 -0.0674 -0.2535 -0.2300
23066W        W66004  23.455  11.393   3.909 -0.2620 -0.0223 -0.1051
23067W        W66005  23.721  12.737   3.327 -0.1939  0.4850  0.1570
23068W        W66006  23.036  13.134   6.698 -0.0033  0.2993  0.0364
23069W        W66007  25.674  13.334   8.405 -0.1163 -0.1306  0.0961
23070W        W66008  23.439  11.747   3.572 -0.0133  0.2799 -0.1138
23071W        W66009  24.488  12.279   6.223 -0.0430 -0.1036  0.4257
23072W        W66010  20.962  12.575   3.876 -0.1798  0.0945 -0.1187
23073W        W66011  24.440  11.385   4.535  0.0615  0.0233 -0.1466
23074W        W66012  21.020  14.527   6.160  0.0099  0.0939  0.4066
23075W        W66013  20.984  13.476   6.628 -0.0608 -0.0743  0.1177
23076W        W66014  23.812  15.578   4.735  0.0545  0.1467 -0.0528
23077W        W66015  23.111  11.064   6.371  0.0754 -0.0292 -0.2479
23078W        W66016  24.847  12.538   4.537 -0.5733 -0.0306  0.0983
23079W        W66017  24.173  12.759   4.945 -0.1553 -0.3182  0.0814
23080W        W66018  25.832  13.445   6.206 -0.0050  0.0037  0.1899
23081W        W66019  23.483  12.874   6.879 -0.1145 -0.0206 -0.1913
23082W        W66020  23.292  12.746   6.377  0.1230  0.0739  0.0273
23083W        W66021  24.441  14.358   6.424  0.0037  0.1991  0.0124
23084W        W66022  24.203  11.863   4.447  0.1867 -0.2380  0.0985
23085W        W66023  22.115  12.949   5.525 -0.1081  0.3383  0.1568
23086W        W66024  21.243  12.573   5.213 -0.0958  0.2263 -0.1685
23087W        W66025  22.966  12.346   7.507 -0.0082  0.0168 -0.0066
23088W        W66026  23.774  12.382   5.171  0.0958 -0.1289  0.0391
23089W        W66027  21.709  10.605   3.757 -0.1325 -0.2373 -0.0852
23090W        W66028  23.225  13.825   2.889  0.2264 -0.2132  0.0154
23091W        W66029  21.519  14.010   7.142 -0.0575  0.0995 -0.3143
23092W        W66030  21.957  13.326   7.865 -0.0007 -0.3218  0.0666
23093W        W66031  22.840  15.645   3.089 -0.0346 -0.3408 -0.0365
23094W        W66032  23.886  12.770   5.378 -0.0326  0.0387  0.0755
23095W        W66033  24.161  12.806   4.464  0.2573  0.2180 -0.1462
23096W        W66034  23.696  14.127   5.765 -0.1172  0.0644 -0.0185
23097W        W66035  22.118  11.565   4.781 -0.0220  0.3491 -0.0011
23098W        W66036  22.406  13.929   4.017 -0.0711 -0.2046 -0.4088
23099W        W66037  21.273  13.394   4.081 -0.2432  0.0764 -0.0308
23100W        W66038  25.043  14.332   3.136  0.1160  0.1241 -0.3616
23101W        W66039  22.331  14.130   5.249 -0.0886  0.1648  0.2041
23102W        W66040  25.299  13.241   6.062  0.3918  0.2743 -0.0088
23103W        W66041  25.003  12.896   2.716 -0.0806  0.1956  0.1026
23104W        W66042  25.408  12.480   5.100  0.1975 -0.2761  0.2273
23105W        W66043  24.794  11.034   3.394  0.1754 -0.0897  0.1789
23106W        W66044  25.489  13.775   8.074 -0.0673  0.1784  0.2020
23107W        W66045  24.212  11.931   5.283  0.0651  0.0331 -0.0529
23108W        W66046  22.565  10.366   5.151  0.0242  0.1089 -0.0487
23109W        W66047  22.784  11.803   7.829  0.2413  0.2486  0.3888
23110W        W66048  26.489  11.644   6.035 -0.0372 -0.3450  0.0456
23111W        W66049  21.784  14.050   6.485 -0.0847  0.0262  0.1660
23112W        W66050  24.805  12.596   4.028  0.2279  0.3278  0.1171
23113W        W66051  22.611  11.517   4.682  0.0816 -0.1929  0.1933
23114W        W66052  23.321  12.147   4.954  0.0427 -0.0579  0.3797
23115W        W66053  26.558  12.981   5.592  0.2276 -0.1505  0.4512
23116W        W66054  22.427  12.985   4.331  0.3901  0.4229  0.2213
23117W        W66055  23.388  11.375   6.812  0.0398  0.1576 -0.1574
23118W        W66056  23.330  13.414   4.414 -0.3415  0.1513  0.0049
23119W        W66057  22.714  13.042   6.303  0.2019 -0.2622 -0.2025
23120W        W66058  21.977  14.319   4.898 -0.2302  0.1065  0.0215
23121W        W66059  22.322  11.141   4.951  0.1428 -0.3020 -0.3731
23122W        W66060  27.295  12.227   5.945  0.0675  0.0511  0.2139
23123W        W66061  24.913  13.309   5.609  0.0167  0.2120  0.1646
23124W        W66062  24.947  12.423   6.101  0.0626  0.0136  0.3362
23125W        W66063  23.981  11.384   4.213 -0.1740 -0.0667  0.2217
23126W        W66064  25.042  11.045   5.760 -0.1405 -0.1698 -0.1811
23127W        W66065  24.103  12.605   6.128 -0.0595  0.0496 -0.1880
23128W        W66066  24.133  12.646   6.708  0.0469 -0.0581  0.0603
23129W        W66067  25.175  10.752   3.251 -0.1333  0.0174 -0.2726
23130W        W66068  25.769  13.563   5.208 -0.0128 -0.2491  0.1347
23131W        W66069  24.929  12.466   3.489  0.1505  0.2048 -0.2362
23132W        W66070  24.902  13.192   6.626  0.1276 -0.1109  0.0361
23133W        W66071  22.708  11.071   3.986 -0.2477  0.0486 -0.2840
23134W        W66072  23.502  11.532   4.348  0.1259 -0.2906  0.1772
23135W        W66073  22.569  12.505   4.206  0.1267 -0.0129  0.0414
23136W        W66074  24.723  11.556   5.502  0.0355 -0.0823  0.3550
23137W        W66075  25.389  14.318   5.991  0.0277  0.2263  0.2901
23138W        W66076  20.864  10.046   4.964 -0.1333  0.0390 -0.1198
23139W        W66077  26.280  14.322   3.073 -0.0912  0.0128 -0.2719
23140W        W66078  24.231  11.770   6.620 -0.3973  0.0822  0.2917
23141W        W66079  22.124  13.438   3.530  0.2173  0.1892  0.0285
23142W        W66080  21.790  13.337   5.382  0.1993  0.0053  0.3391
23143W        W66081  24.185  13.305   4.369  0.2291  0.4286  0.0073
23144W        W66082  20.862  12.327   5.880  0.3599 -0.1969 -0.0670
23145W        W66083  24.373  15.228   6.906  0.0696 -0.2768  0.4689
23146W        W66084  23.741  13.816   6.200 -0.0270 -0.1432 -0.0180
23147W        W66085  22.759  11.977   3.462 -0.0627  0.0363 -0.0330
23148W        W66086  23.642  12.463   6.194 -0.3077  0.1046 -0.0191
23149W        W66087  21.597  12.298   4.027 -0.1413 -0.0527 -0.1004
23150W        W66088  25.059  12.820   5.857  0.1037  0.4805  0.1355
23151W        W66089  23.305  12.597   5.869  0.0924  0.0737  0.1512
23152W        W66090  22.893  14.400   2.404  0.2773 -0.1581  0.1394
23153W        W66091  24.226  11.050   8.082  0.1517 -0.1801 -0.0229
23154W        W66092  23.102  13.677   6.679  0.3789  0.2521 -0.2325
23155W        W66093  23.333  13.997   7.047 -0.0869 -0.1059  0.2113
23156W        W66094  23.244  13.626   3.326 -0.1206 -0.1951 -0.1182
23157W        W66095  23.818  13.103   6.598 -0.2068  0.0923  0.0479
23158W        W66096  23.462  14.679   5.779  0.0288  0.1261 -0.2456
23159W        W66097  22.616  14.156   3.524 -0.2697 -0.2076  0.0060
23160W        W66098  24.159  13.977   6.592  0.0730  0.1057 -0.0310
23161W        W66099  23.880  11.413   3.681  0.1288  0.0471 -0.2743
23162W        W66100  25.133  13.633   3.983  0.0806  0.0736  0.0548
23163W        W66101  23.159  11.034   4.429  0.2710  0.1560  0.0777
23164W        W66102  27.339  11.900   4.156 -0.0339  0.2053  0.2178
23165W        W66103  25.384  10.836   5.304 -0.2393 -0.0086 -0.1074
23166W        W66104  23.035  12.579   7.048 -0.0719 -0.1226 -0.0308
23167W        W66105  20.314  12.048   4.280 -0.0302  0.0523  0.3258
23168W        W66106  22.886  13.927   2.315  0.1509 -0.3497 -0.1095
23169W        W66107  24.027  13.387   6.244 -0.0522 -0.0408 -0.3008
23170W        W66108  25.365  12.012   5.274 -0.3802 -0.4926  0.2217
23171W        W66109  22.749  12.688   6.638  0.0689 -0.1589  0.0148
23172W        W66110  21.724  13.515   6.371  0.0846 -0.0595  0.3579
23173W        W66111  22.199  11.803   5.250  0.3955 -0.1878  0.0768
23174W        W66112  24.002  15.122   5.478 -0.1321  0.1639  0.2827
23175W        W66113  21.828  12.007   6.558 -0.1477 -0.0883  0.1892
23176W        W66114  22.122  10.448   3.550  0.0037 -0.1844  0.1123
23177W        W66115  24.494  13.359   3.958 -0.1140 -0.1021 -0.0401
23178W        W66116  23.331  12.938   4.252  0.1509  0.1884 -0.0288
23179W        W66117  23.555  10.751   2.548 -0.0915 -0.1402 -0.2614
23180W        W66118  24.008  14.096   7.582  0.2012  0.1109  0.0188
23181W        W66119  21.875  11.830   3.928  0.1478  0.5814  0.2948
23182W        W66120  24.406  12.066   8.067 -0.1071  0.1715 -0.0787
23183W        W66121  22.083  11.316   7.644  0.2580  0.0363  0.2538
23184W        W66122  20.403   9.770   4.616  0.0869  0.3259  0.2947
23185W        W66123  24.228  12.286   7.093 -0.4830  0.0068 -0.0904
23186W        W66124  24.451  13.774   4.225 -0.1382 -0.1721  0.2339
23187W        W66125  24.640  12.990   4.316 -0.1818  0.0862  0.1938
23188W        W66126  24.272  13.017   6.385 -0.0838  0.1295  0.0892
23189W        W66127  23.358  13.412   6.998 -0.1861 -0.1494  0.2692
23190W        W66128  21.235  10.636   6.385  0.0973 -0.0351  0.0561
23191W        W66129  25.405  11.627   4.460  0.0890 -0.1011 -0.1202
23192W        W66130  24.076  13.070   7.660  0.1221  0.1458 -0.0004
23193W        W66131  24.974  13.191   3.787 -0.0205 -0.0762  0.1894
23194W        W66132  25.986  12.477   6.668 -0.3074  0.0858 -0.2011
23195W        W66133  23.988  13.657   4.033  0.1568 -0.1342 -0.0823
23196W        W66134  21.527  10.943   7.374  0.3278  0.2075  0.0820
23197W        W66135  21.963  13.548   7.348 -0.0577  0.1045 -0.3759
23198W        W66136  25.792  12.981   5.108  0.1889  0.0825  0.1694
23199W        W66137  21.291  10.615   4.002 -0.0303  0.1098 -0.0679
23200W        W66138  25.694  12.797   4.642  0.1916  0.1531 -0.2130
23201W        W66139  24.269  12.855   3.969 -0.1723 -0.1141  0.1833
23202W        W66140  21.879  13.019   6.390  0.0573 -0.0896  0.3057
23203W        W66141  24.908   9.956   4.269 -0.2265  0.0869  0.0318
23204W        W66142  23.271  11.827   6.926  0.0603 -0.1298  0.1782
23205W        W66143  23.601  13.393   4.927 -0.0306  0.1558 -0.2586
23206W        W66144  23.694  12.953   6.147  0.0257 -0.1954 -0.2174
23207W        W66145  22.376  12.251   5.121  0.0821 -0.1736  0.2062
23208W        W66146  25.384  12.847   3.671 -0.0223 -0.0555 -0.0770
23209W        W66147  23.865  14.628   6.057 -0.0485 -0.0547 -0.1061
23210W        W66148  25.502  14.311   6.917  0.4427  0.1101 -0.3121
23211W        W66149  25.634  14.817   6.720 -0.2624 -0.0169  0.1215
23212W        W66150  25.155  12.883   4.266  0.1991 -0.0923 -0.2042
23213W        W66151  22.090  10.203   5.042 -0.0680  0.1533 -0.0143
23214W        W66152  22.775  13.857   3.164 -0.1457 -0.0093 -0.0640
23215W        W66153  22.389  12.856   4.797  0.1080 -0.2422  0.2409
23216W        W66154  24.571  12.664   5.758  0.0114  0.1509  0.1202
23217W        W66155  22.333  11.866   6.253  0.0831  0.0925 -0.0820
23218W        W66156  24.848  11.494   4.787  0.0907  0.2515 -0.4091
23219W        W66157  23.720  15.586   6.311 -0.0640 -0.2631  0.1192
23220W        W66158  24.588  12.962   4.791  0.2086  0.2100 -0.0908
23221W        W66159  19.116  14.745   8.615  0.0635  0.1212  0.1081
23222W        W66160  24.290  14.166   8.818  0.0559  0.0136  0.4457
23223W        W66161  25.325  13.277   5.176  0.3450  0.0416 -0.2748
23224W        W66162  25.771  12.468   9.340  0.0979 -0.2779 -0.0238
23225W        W66163  22.552  12.935   9.953  0.2085 -0.1699  0.0976
23226W        W66164  24.654  14.888   7.298 -0.1995  0.1159 -0.0936
23227W        W66165  25.246  14.233   8.974  0.1043  0.1624  0.1520
23228W        W66166  25.334  14.346   9.963  0.1746  0.3166  0.0109
23229W        W66167  24.509  12.900   6.879 -0.0169 -0.0357 -0.1648
23230W        W66168  26.004  11.754   8.578  0.1532  0.0061 -0.2750
23231W        W66169  23.423  10.482   7.865  0.1315  0.0670  0.2744
23232W        W66170  22.426  12.494   9.620  0.1352 -0.1047  0.2889
23233W        W66171  24.431  12.903   9.591 -0.1431  0.0841 -0.0116
23234W        W66172  21.043  12.125   7.842  0.1950 -0.1210  0.0420
23235W        W66173  23.078  13.249   8.647  0.1313 -0.2555 -0.3023
23236W        W66174  23.896  11.549   7.746  0.0647  0.0615 -0.3488
23237W        W66175  24.399  13.941   8.422 -0.0473 -0.1361 -0.1477
23238W        W66176  21.923  10.923   9.772 -0.0175  0.0261  0.1787
23239W        W66177  23.705  14.993   7.321  0.1444  0.2300 -0.0534
23240W        W66178  22.554  13.158   6.943 -0.0881 -0.2556 -0.2627
23241W        W66179  22.921  12.712   9.534 -0.2110  0.0712 -0.1049
23242W        W66180  22.528  11.725   8.668  0.0476 -0.2260 -0.0151
23243W        W66181  25.744  10.974   8.274  0.2195 -0.3189 -0.2390
23244W        W66182  23.405  11.398  10.023  0.1701 -0.0559 -0.0134
23245W        W66183  23.099  13.332   9.906 -0.1262 -0.1010 -0.0073
23246W        W66184  24.341  13.310   8.028  0.0561 -0.2523 -0.2364
23247W        W66185  21.367  13.305   8.543 -0.0028  0.0985 -0.0746
23248W        W66186  22.121  13.556   8.760  0.1538  0.1393 -0.0738
23249W        W66187  21.564  12.327   9.289 -0.0610 -0.0769  0.0427
23250W        W66188  26.173  12.992   8.387 -0.1351 -0.0866  0.1959
23251W        W66189  21.525  14.004   8.145  0.1583  0.0815  0.1621
23252W        W66190  24.273  17.121  10.000  0.0711  0.1776 -0.3180
23253W        W66191  24.369  12.801   8.699  0.0820  0.0949  0.0740
23254W        W66192  22.894  13.764   7.149 -0.0402 -0.2234  0.0484
23255W        W66193  24.450  14.067   9.290 -0.1983  0.1753 -0.3324
23256W        W66194  22.180  14.006  10.466 -0.1289 -0.1749  0.0475
23257W        W66195  24.675  13.544   7.102  0.0502 -0.1899  0.2317
23258W        W66196  24.657  13.527   8.437 -0.1960 -0.0831 -0.0529
23259W        W66197  24.853  12.289   7.106  0.0785  0.1669 -0.0873
23260W        W66198  25.041  10.781   8.339  0.0445  0.0548  0.0939
23261W        W66199  23.401  11.546   9.010 -0.1810 -0.1041  0.1178
23262W        W66200  23.163  13.778   9.684  0.0375 -0.0441  0.0181
23263W        W66201  23.871  11.209  10.073  0.3102  0.2384  0.0846
23264W        W66202  24.120  11.889   7.439 -0.0053 -0.1507  0.1688
23265W        W66203  23.913  10.537   9.845 -0.1655  0.1798 -0.0453
23266W        W66204  21.452  13.143  10.198 -0.0110 -0.3682  0.1562
23267W        W66205  22.101  11.341   8.570  0.1656  0.0471  0.0219
23268W        W66206  24.645  12.709   6.345  0.2969 -0.1815  0.2310
23269W        W66207  24.612  13.314   9.319  0.1831  0.1096 -0.0222
23270W        W66208  24.529  14.326   7.625 -0.0809 -0.1679 -0.2102
23271W        W66209  21.525  12.718   8.547  0.2538 -0.0090  0.1633
23272W        W66210  22.590  11.138   8.454 -0.1721  0.0571  0.2792
23273W        W66211  25.460  11.665   8.763  0.0786  0.0641  0.1282
23274W        W66212  23.077  12.692   8.480  0.1872  0.0892 -0.4113
23275W        W66213  22.449  14.820   9.167  0.0077 -0.1177  0.0075
23276W        W66214  23.708  13.204   7.297 -0.3499  0.0787  0.0187
23277W        W66215  24.698  12.806   9.124  0.1634 -0.0632 -0.2796
23278W        W66216  22.881   9.736   9.469  0.2039 -0.1128  0.2518
23279W        W66217  22.204  12.549   7.407  0.0163 -0.0390  0.1524
23280W        W66218  23.412  12.905   8.823 -0.0956 -0.0653 -0.2846
23281W        W66219  26.659  16.680  10.100 -0.1133  0.0382 -0.4188
23282W        W66220  25.245  12.618   7.164  0.2238 -0.1227 -0.2033
23283W        W66221  22.319  13.013   8.019 -0.0620  0.0426  0.0858
23284W        W66222  21.817  13.181   8.307  0.2141  0.0688  0.1165
23285W        W66223  21.083  11.371   9.619  0.0431 -0.0149  0.1418
23286W        W66224  21.056  13.750   7.033 -0.0102  0.1727 -0.2879
23287W        W66225  22.664  13.505  10.328  0.0942 -0.0095  0.2025
23288W        W66226  23.293  13.186   9.456  0.1648 -0.0506 -0.0412
23289W        W66227  25.729  12.096   8.939  0.1415  0.2507 -0.2310
23290W        W66228  24.745  11.864   8.928  0.5201 -0.2919 -0.0160
23291W        W66229  23.851  12.708   8.668 -0.1122  0.1892  0.0748
23292W        W66230  25.785  14.221   8.636 -0.0014  0.0819 -0.1994
23293W        W66231  26.529  12.647   8.533  0.1643  0.0015 -0.0083
23294W        W66232  23.410  13.331   6.423  0.0878 -0.0238 -0.0751
23295W        W66233  22.659  11.378   9.509 -0.2594 -0.3031 -0.1414
23296W        W66234  22.962  11.508   8.740  0.0066  0.3148  0.1155
23297W        W66235  22.346  10.666   9.359 -0.0024 -0.1799  0.0187
23298W        W66236  23.035  10.965   8.604 -0.1790 -0.1333  0.3837
23299W        W66237  25.871  11.578   7.343  0.0079 -0.1185 -0.1070
23300W        W66238  24.258  13.180   9.009 -0.1875  0.1927 -0.1384
23301W        W66239  21.006  13.012   8.322  0.3867  0.0448  0.1113
23302W        W66240  25.353  14.479   6.464  0.1506 -0.0827  0.1040
23303W        W66241  23.147  14.067   9.180  0.1390 -0.1311 -0.0536
23304W        W66242  23.859  12.439   8.250  0.2010 -0.1748 -0.0310
23305W        W66243  23.180  10.040   9.123 -0.4266  0.0834  0.3466
23306W        W66244  22.467  12.222   7.812  0.0525 -0.1823 -0.0733
23307W        W66245  21.716  14.640   8.843 -0.2476 -0.0744 -0.1352
23308W        W66246  23.014  13.484   9.161  0.0082  0.1510  0.2579
23309W        W66247  23.338  10.991   8.192  0.0264 -0.3474  0.0569
23310W        W66248  24.330  15.071   9.423 -0.1248 -0.1865  0.2871
23311W        W66249  23.512  12.388   8.828 -0.1158  0.1110  0.0190
23312W        W66250  23.385  10.369  10.129 -0.3724 -0.1123 -0.1667
23313W        W66251  25.487  13.773  10.384 -0.3013 -0.1047 -0.1559
23314W        W66252  21.948  11.217   7.134  0.1492  0.1744  0.0569
23315W        W66253  23.931  13.998   9.844 -0.2214  0.0291 -0.0209
23316W        W66254  20.974  13.791   7.962  0.3184  0.5074 -0.1263
23317W        W66255  21.873  11.702   9.419  0.0824 -0.2626  0.0824
23318W        W66256  22.873  14.195   9.730 -0.0627  0.0705 -0.1983
23319W        W66257  25.953  11.785   8.012  0.1803 -0.0357 -0.1644
23320W        W66258  22.596  11.262   7.715 -0.0709 -0.2369  0.2830
23321W        W66259  24.484  11.587   7.391 -0.0596 -0.1799  0.2452
23322W        W66260  25.195  12.385   7.711  0.0844  0.2587  0.1054
23323W        W66261  24.725  13.932   8.867  0.0356  0.2323 -0.2013
23324W        W66262  25.846  11.289   7.803 -0.3008 -0.1922 -0.2513
23325W        W66263  23.831  11.246   8.277  0.1708 -0.0025 -0.0137
23326W        W66264  23.512  13.675   9.234  0.0877  0.1049  0.0695
23327W        W66265  22.408  13.270   8.481 -0.5187 -0.1944 -0.2381
23328W        W66266  22.929  11.400   8.121 -0.0099  0.0203 -0.2502
23329W        W66267  26.026  13.400   9.171 -0.3069  0.0411  0.0965
23330W        W66268  21.190  13.913   9.048 -0.1195  0.1239  0.1283
23331W        W66269  24.584  13.499   7.618  0.3316 -0.3075 -0.2898
23332W        W66270  23.463  10.739   9.794  0.1971  0.1073  0.0543
23333W        W66271  24.573  12.153   7.516  0.0241  0.0758 -0.3373
23334W        W66272  25.597  11.081   9.607  0.1144 -0.1906 -0.1120
23335W        W66273  24.017  14.035   7.062  0.0423  0.4133  0.0093
23336W        W66274  22.311   9.953   9.543  0.2341 -0.0307  0.3018
23337W        W66275  24.049  10.380   9.333  0.0591  0.0600  0.0295
23338W        W66276  24.856  12.608   8.671 -0.4120  0.1860  0.1714
23339W        W66277  24.365  12.491   8.310 -0.0844  0.1676  0.0874
23340W        W66278  23.177  12.891   7.914  0.0415 -0.2875 -0.1206
23341W        W66279  23.639  13.159  10.099 -0.2587 -0.2283  0.0854
23342W        W66280  22.208  13.216  10.308  0.0545  0.0096 -0.4628
23343W        W66281  25.529  12.929   9.323 -0.2814  0.2576 -0.2666
23344W        W66282  23.113   9.240   9.742  0.0977 -0.1733  0.2377
23345W        W66283  24.476  13.908   7.337 -0.1102  0.1778  0.0818
23346W        W66284  21.675  13.865   7.674  0.0756  0.2297 -0.0627
23347W        W66285  23.134  10.885  10.231 -0.2242 -0.0319 -0.1275
23348W        W66286  24.245  15.566   9.264 -0.0766  0.3861  0.1305
23349W        W66287  22.531  14.581   6.733  0.0866 -0.4524  0.3990
23350W        W66288  24.850  12.276   9.167 -0.4014  0.2340  0.2336
23351W        W66289  22.978  14.282   8.426 -0.2776  0.0578 -0.2657
23352W        W66290  24.260  10.842   9.478  0.0008 -0.1550 -0.0936
23353W        W66291  21.504  15.230   8.028  0.0577 -0.2823 -0.3553
23354W        W66292  22.494  12.058   8.300  0.1272 -0.0585 -0.0060
23355W        W66293  22.250  12.384   8.674 -0.0306 -0.0338 -0.1545
23356W        W66294  24.574  11.806   8.394  0.0381  0.0046 -0.2931
23357W        W66295  25.272  12.845   8.732  0.0721 -0.1058  0.0731
23358W        W66296  24.237  12.490   9.781  0.2006 -0.1018  0.0448
23359W        W66297  22.112  12.686  10.042  0.2179  0.1413  0.0350
23360W        W66298  20.823  13.133   8.866 -0.0031  0.2910 -0.0147
23361W        W66299  25.587  11.195   6.578 -0.1420 -0.0030  0.2828
23362W        W66300  22.901  12.080   7.040 -0.1488 -0.0999  0.0710
23363W        W66301  26.125  11.675  10.107 -0.0129 -0.1317 -0.2903
23364W        W66302  24.936  11.534   7.907  0.1504  0.0867  0.3040
23365W        W66303  20.586  12.140   9.364 -0.0799  0.1521 -0.4326
23366W        W66304  24.800  16.219  10.007 -0.1694  0.1573 -0.0180
23367W        W66305  23.707  13.559   9.701  0.1514  0.1459  0.0104
23368W        W66306  21.143  13.791   8.480 -0.1935 -0.0245  0.0101
23369W        W66307  25.684  11.866   9.407  0.1824  0.0009 -0.3588
23370W        W66308  22.723  10.196   9.204  0.2801  0.1515  0.0145
23371W        W66309  23.838  11.525   8.759  0.0777 -0.2123  0.1396
23372W        W66310  24.308  12.094   9.238 -0.1910  0.1994  0.1811
23373W        W66311  23.597  13.766  10.131  0.0193 -0.1924 -0.1280
23374W        W66312  24.078  13.553  10.021  0.0012  0.2612  0.2133
23375W        W66313  23.129  11.196   9.200 -0.2562  0.0417  0.3552
23376W        W66314  25.725  13.875   9.144 -0.1431  0.0097  0.1770
23377W        W66315  22.708  14.006   8.110  0.0905 -0.3438 -0.2807
23378W        W66316  23.073  12.521   8.989  0.1484 -0.2615 -0.3221
23379W        W66317  23.233  13.567   7.506 -0.0572 -0.0075 -0.3811
23380W        W66318  22.658  14.711   9.659  0.0384  0.2243  0.0532
23381W        W66319  23.864  13.735   8.665 -0.5162  0.1374  0.2366
23382W        W66320  21.418  13.378   7.528 -0.1086 -0.2420 -0.0950
23383W        W66321  20.542  13.249   9.735  0.1904 -0.0958 -0.0186
23384W        W66322  25.031  11.585   8.512 -0.1653 -0.0120 -0.0155
23385W        W66323  22.893  13.137   7.302  0.0431 -0.1748  0.0247
23386W        W66324  23.343  12.608   9.377 -0.0763  0.3117  0.1253
23387W        W66325  24.141  13.497   7.073  0.1916  0.1035  0.0599
23388W        W66326  23.740  12.591  10.160 -0.1027 -0.2380  0.0084
23389W        W66327  25.303  12.533   9.149  0.2126 -0.1204 -0.0893
23390W        W66328  23.654   9.242   9.563 -0.0502  0.3498  0.0045
23391W        W66329  23.538  11.226   9.506  0.2025  0.0736  0.2044
23392W        W66330  23.381  12.043   9.231 -0.0848 -0.0753 -0.1971
23393W        W66331  24.860  11.007  10.089 -0.0895 -0.4266 -0.5277
23394W        W66332  22.761  13.198   7.753  0.1760 -0.2158  0.2743
23395W        W66333  26.494  11.571   8.717  0.0640 -0.1665  0.0820
23396W        W66334  21.536  12.828   9.099 -0.0158  0.2379 -0.0013
23397W        W66335  25.224  13.067   9.812  0.1305  0.0731 -0.0868
23398W        W66336  23.728  13.228   7.982  0.0722 -0.1365 -0.0522
23399W        W66337  23.431  14.139   8.731 -0.2401 -0.2686  0.0907
23400W        W66338  24.881  14.460   8.687 -0.1125  0.1604  0.0520
23401W        W66339  23.910  11.255   9.137 -0.1209 -0.0067  0.3843
23402W        W66340  24.436  16.745   9.735  0.0572  0.1156 -0.0482
23403W        W66341  24.942  13.067   7.160  0.0191 -0.1235  0.0495
23404W        W66342  24.359  10.306   9.743  0.2417  0.1461 -0.0555
23405W        W66343  25.641  12.135   7.751 -0.1973  0.0405  0.0918
23406W        W66344  23.541  11.088   8.714  0.0567  0.1779 -0.2807
23407W        W66345  22.580  11.375   9.004  0.0883  0.1669  0.4287
23408W        W66346  23.374  12.813   7.370  0.0585  0.0220 -0.0649
23409W        W66347  23.705  13.753   7.296  0.1264 -0.0546 -0.0725
23410W        W66348  24.607  12.967   8.332 -0.4674  0.2031 -0.0946
23411W        W66349  26.267  12.421   7.134 -0.0971  0.1520  0.3155
23412W        W66350  21.660  12.097   9.682 -0.0820  0.2110  0.0963
23413W        W66351  22.797  12.278   8.649  0.1768 -0.0084 -0.0122
23414W        W66352  23.298  13.380   8.118  0.0960 -0.2799 -0.0447
23415W        W66353  22.596  15.224   9.447  0.0969 -0.1969 -0.2027
23416W        W66354  24.015  10.751   7.312  0.1277 -0.0857  0.0854
23417W        W66355  21.478  14.352   7.828  0.2106  0.2147  0.2252
23418W        W66356  24.026  11.477   9.645  0.0153  0.1077  0.3135
23419W        W66357  23.690  14.131  10.460  0.3920  0.1971  0.1548
23420W        W66358  22.762  13.230   9.517  0.0083 -0.0242  0.1334
23421W        W66359  22.032  10.056   8.779  0.1300 -0.1321 -0.0368
23422W        W66360  24.491  12.307   8.848 -0.0501  0.0843  0.2562
23423W        W66361  23.787  13.306   9.040  0.3400  0.0478 -0.2828
23424W        W66362  21.224  12.717   9.745  0.1173 -0.1222  0.2550
23425W        W66363  26.464  12.880   8.961  0.1703  0.0590 -0.1318
23426W        W66364  23.538  12.809   8.237  0.2082 -0.0516  0.2689
23427W        W66365  25.201  13.246   8.460  0.0129 -0.3095 -0.0401
23428W        W66366  22.784  10.827   9.092 -0.0003  0.0141 -0.3338
23429W        W66367  24.020  13.677   8.199  0.3702  0.1502  0.4211
23430W        W66368  21.389  11.879   9.359 -0.0194  0.0445 -0.0533
23431W        W66369  22.974  14.134   7.432  0.0464 -0.0427  0.2958
23432W        W66370  24.032  12.879   8.269  0.0087 -0.1558 -0.2473
23433W        W66371  23.205  13.876   7.888 -0.2801  0.3371  0.1377
23434W        W66372  22.052  15.256   9.463 -0.2257 -0.2396  0.2038
23435W        W66373  23.416  11.852   8.052 -0.2096  0.0579  0.0782
23436W        W66374  21.761  13.246   8.832  0.0555  0.0242 -0.0532
23437W        W66375  20.382  14.879   6.798 -0.2099  0.1719  0.1725
23438W        W66376  25.080  12.756   8.218  0.2074 -0.1686  0.1028
23439W        W66377  21.450  13.514   8.059 -0.2358  0.1193  0.0167
23440W        W66378  25.601  10.736   7.831  0.1271  0.0001  0.0250
23441W        W66379  25.129  13.172   9.232 -0.1695 -0.1253 -0.4374
23442W        W66380  25.896  12.398   8.163  0.3305 -0.0453  0.4111
23443W        W66381  25.282  12.167   9.508 -0.0174 -0.0174 -0.0475
23444W        W66382  23.105  10.489   9.381 -0.3934 -0.1276  0.0696
23445W        W66383  25.113  12.844   7.661  0.0973  0.0625  0.0334
23446W        W66384  21.613  12.125   8.277  0.0282 -0.2971  0.2183
23447W        W66385  22.920  11.854   8.345  0.0599  0.2587 -0.0579
23448W        W66386  25.113  11.519   9.063  0.0740 -0.0331  0.0807
23449W        W66387  22.604  12.718   7.718  0.2907 -0.1258  0.0213
23450W        W66388  25.474  12.542   6.666  0.0938 -0.0339  0.2043
23451W        W66389  22.871  14.446   9.296 -0.0001 -0.2947 -0.4802
23452W        W66390  23.201  11.945   8.783 -0.3192 -0.0962 -0.1507
23453W        W66391  23.070  15.387   9.303 -0.1108  0.1128 -0.0464
23454W        W66392  21.938  11.562   8.081 -0.1142  0.1871  0.0648
23455W        W66393  25.009  12.607   9.563  0.0049 -0.2154  0.1082
23456W        W66394  24.016  13.797   9.371  0.1279 -0.2012 -0.0352
23457W        W66395  24.421  13.251  10.356  0.0010 -0.0953 -0.0569
23458W        W66396  25.696  12.454   7.364  0.1491 -0.0121 -0.0563
23459W        W66397  23.537  15.030   9.421 -0.0940  0.0481 -0.0183
23460W        W66398  21.447  13.607  10.384 -0.1491 -0.3926  0.0090
23461W        W66399  23.358  11.416   7.753 -0.0701 -0.0244 -0.3509
23462W        W66400  24.931  12.672   6.794 -0.1576  0.0980 -0.2856
23463W        W66401  22.124  12.052   9.905  0.0488 -0.1003  0.1661
23464W        W66402  24.271  11.742   8.844 -0.1529  0.2116  0.0260
23465W        W66403  22.142  11.557   9.008  0.0124 -0.0037  0.2351
23466W        W66404  23.366  16.296   9.645  0.2601  0.0242 -0.0276
23467W        W66405  21.578  10.285  10.043  0.1826 -0.0528  0.1351
23468W        W66406  25.035  13.857   8.421 -0.1195  0.0141 -0.2012
23469W        W66407  25.830  12.099   9.870  0.1019 -0.2536 -0.2581
23470W        W66408  21.924  14.967   6.192 -0.3433  0.3828 -0.0503
23471W        W66409  26.592  15.203   9.874 -0.0846  0.1058 -0.0293
23472W        W66410  24.503  13.354   9.789  0.2200  0.2733 -0.1079
23473W        W66411  21.330  10.631   9.070  0.0341  0.1126  0.1779
23474W        W66412  24.600  16.032   9.522  0.0059 -0.0520 -0.0488
23475W        W66413  25.991  14.736   8.790 -0.1959 -0.0621  0.0323
23476W        W66414  23.383  12.364   7.833 -0.4134 -0.0072  0.2647
23477W        W66415  23.773  12.764   9.186  0.2029  0.0332  0.0713
23478W        W66416  22.394  13.934   8.560 -0.0712  0.1841 -0.3069
23479W        W66417  24.493  12.027  10.111 -0.1427  0.0159  0.1597
23480W        W66418  21.578  13.164   5.898 -0.0597 -0.0826  0.0739
23481W        W66419  24.483  11.229   9.714  0.3340  0.0126 -0.4249
23482W        W66420  22.577  13.649   8.944 -0.0688 -0.0605  0.2171
23483W        W66421  23.047  14.898   9.344 -0.2210  0.0130 -0.1553
23484W        W66422  23.668  13.686   7.805 -0.1984 -0.1256 -0.0253
23485W        W66423  23.537  14.059   9.543  0.0026 -0.2092 -0.2456
23486W        W66424  24.871  12.003   8.044  0.1670  0.2313 -0.0681
23487W        W66425  26.163  13.895   8.752  0.1670 -0.4339  0.1674
23488W        W66426  24.022  12.166   8.632  0.3608 -0.4161 -0.0103
23489W        W66427  25.737  11.525   9.769  0.0448  0.2565 -0.0189
23490W        W66428  25.319  11.759   8.106  0.1768  0.2270  0.1259
23491W        W66429  21.946  14.151   9.715 -0.1183  0.2333 -0.1388
23492W        W66430  23.702  12.778   7.777 -0.0726  0.3116 -0.0785
23493W        W66431  21.807  13.001   7.224  0.2539 -0.2630 -0.1180
23494W        W66432  22.451  11.899   9.416 -0.1375 -0.1908  0.3393
23495W        W66433  22.158  13.919   9.136 -0.3434 -0.4497 -0.0472
23496W        W66434  22.922  12.313   8.066 -0.0452  0.3587 -0.0377
23497W        W66435  25.443  13.248   7.900 -0.3048 -0.1422  0.0193
23498W        W66436  22.438  11.572   8.165  0.2606 -0.1320 -0.0651
23499W        W66437  23.327   9.041  10.216  0.1628 -0.2267  0.0946
23500W        W66438  24.313  13.665   8.950 -0.2445  0.0376 -0.0728
23501W        W66439  24.208  13.268   8.536  0.3656  0.0393  0.0799
23502W        W66440  24.216  12.461   7.749  0.0596 -0.1395 -0.1165
23503W        W66441  21.862  13.266   6.852 -0.0046  0.2031 -0.0214
23504W        W66442  20.749  11.208   8.309  0.1986  0.4839 -0.3214
23505W        W66443  23.842  12.253   9.181  0.0408 -0.4064  0.0687
23506W        W66444  22.345  13.125   9.015 -0.0984 -0.0681  0.3352
23507W        W66445  24.908  13.927   7.583 -0.0765 -0.0953  0.1514
23508W        W66446  19.270  10.081   9.802  0.0216 -0.2109  0.0055
23509W        W66447  23.947  12.084   7.870  0.1888  0.0392 -0.0914
23510W        W66448  25.995  12.938   7.320 -0.3420 -0.0161 -0.1078
23511W        W66449  24.121   9.827   8.950  0.0621 -0.0377  0.0178
23512W        W66450  23.888  12.706   7.262 -0.0650 -0.1544  0.0526
23513W        W66451  26.103  14.261   9.131 -0.0880  0.0171  0.3599
23514W        W66452  23.197  12.289   9.814 -0.0207  0.0381 -0.3187
23515W        W66453  24.889  11.816   9.400  0.0603 -0.1039 -0.1761
23516W        W66454  23.875  14.705   8.185 -0.2417 -0.2775 -0.0384
23517W        W66455  24.511  14.298  10.087 -0.1603  0.4234  0.0913
23518W        W66456  23.503  10.574   9.021  0.1559 -0.3065  0.3211
23519W        W66457  24.755  13.220   8.841  0.0655 -0.1156 -0.1159
23520W        W66458  25.342  12.326   8.171  0.1916  0.0461 -0.0346
23521W        W66459  24.485  12.891   7.822  0.0242 -0.2263 -0.2345
23522W        W66460  24.029  14.402   9.510 -0.0847  0.2300 -0.0710
23523W        W66461  23.390  14.565   9.169  0.1881 -0.0238 -0.0060
23524W        W66462  24.693  12.705  10.054  0.1753 -0.1411  0.1102
23525W        W66463  21.624   9.712   8.681 -0.1372  0.0263  0.0906
23526W        W66464  23.365  12.299   8.319 -0.1188 -0.0346 -0.1097
23527W        W66465  24.025  13.257   9.522 -0.1421  0.0987  0.1519
23528W        W66466  23.691   9.898   9.869 -0.3791 -0.0654 -0.0833
23529W        W66467  22.760  11.934   9.029  0.0865 -0.1285 -0.0009
23530W        W66468  24.200  11.209   7.546  0.3815 -0.2135  0.0884
23531W        W66469  22.683  13.843   9.390 -0.4491 -0.0738  0.0346
23532W        W66470  23.395  13.624   8.695  0.0405 -0.2123  0.0351
23533W        W66471  22.096  17.296   3.036  0.4444  0.1956 -0.0198
23534W        W66472  22.116  16.516  31.574  0.0912 -0.1338 -0.0178
23535W        W66473  23.430  14.618  30.673  0.0161  0.1728  0.1202
23536W        W66474  23.996  16.950   1.289  0.1751  0.0111 -0.1778
23537W        W66475  20.495  14.585   1.367  0.0078 -0.1584 -0.1694
23538W        W66476  22.629  17.204   0.886 -0.0994  0.3094 -0.1772
23539W        W66477  22.653  13.809   1.811  0.1367 -0.1314 -0.2232
23540W        W66478  23.648  16.342   2.521  0.0344  0.1587  0.0169
23541W        W66479  24.069  16.580   2.358  0.2678  0.0064  0.3731
23542W        W66480  24.122  17.372  30.766  0.0384 -0.1632 -0.0580
23543W        W66481  21.392  16.323   1.339  0.0165  0.0372 -0.2431
23544W        W66482  22.861  17.972   2.048 -0.1843 -0.1635 -0.0794
23545W        W66483  23.568  14.606  31.601 -0.1748 -0.2237 -0.1507
23546W        W66484  19.589  13.833   1.117 -0.1380  0.2317  0.1936
23547W        W66485  24.684  15.773   2.565 -0.1849 -0.0601 -0.0917
23548W        W66486  23.341  16.998   0.624 -0.0093 -0.0384  0.0087
23549W        W66487  22.401  14.262   3.082 -0.1181  0.4296 -0.1391
23550W        W66488  24.292  14.860   1.280  0.0782  0.1399  0.1260
23551W        W66489  23.233  18.332   1.920 -0.1156 -0.0764  0.1759
23552W        W66490  22.648  14.300   2.024 -0.2086 -0.0979  0.1608
23553W        W66491  25.690  14.282   3.967 -0.0866 -0.1739  0.1503
23554W        W66492  23.503  18.932   1.641 -0.0773 -0.0436  0.2014
23555W        W66493  23.139  17.282  30.288  0.0584 -0.0948 -0.0883
23556W        W66494  21.612  13.702   2.210 -0.1062 -0.1374  0.3272
23557W        W66495  21.908  14.736   0.777 -0.1002 -0.0404 -0.0463
23558W        W66496  24.302  16.627   2.806 -0.1501  0.0971  0.4027
23559W        W66497  24.489  15.523   0.755  0.1926 -0.1028  0.1374
23560W        W66498  21.526  17.952   1.144 -0.1943  0.0749 -0.1361
23561W        W66499  22.886  18.063   0.541  0.0977 -0.0850 -0.3588
23562W        W66500  22.141  15.314   3.554 -0.2209  0.1634  0.1258
23563W        W66501  21.528  17.080   0.065  0.2400 -0.1459  0.1531
23564W        W66502  21.398  16.807   1.195  0.0481  0.0825 -0.2624
23565W        W66503  22.865  17.607  31.635 -0.0300  0.0342 -0.2652
23566W        W66504  25.273  17.505   0.822  0.2236  0.0059  0.0494
23567W        W66505  22.930  17.309   2.727 -0.0277 -0.0909 -0.1071
23568W        W66506  22.776  18.273   3.623 -0.1636  0.1177 -0.1255
23569W        W66507  21.994  18.303  30.839 -0.0185  0.2945 -0.0854
23570W        W66508  23.117  18.602   3.947 -0.2605 -0.1549 -0.1965
23571W        W66509  22.199  18.536   2.724  0.2068  0.0899 -0.0937
23572W        W66510  21.872  16.655   1.351 -0.2640  0.2242 -0.0426
23573W        W66511  22.268  16.899  30.669  0.0240  0.0795  0.1051
23574W        W66512  23.915  18.502   0.482  0.0582  0.3108 -0.0010
23575W        W66513  24.328  15.972   0.503 -0.1607  0.0087  0.0433
23576W        W66514  21.030  16.443   2.149 -0.0321 -0.0303  0.5557
23577W        W66515  23.236  15.807   1.061  0.0274 -0.1873  0.0705
23578W        W66516  25.141  14.637   2.695  0.0475 -0.0741  0.0649
23579W        W66517  22.406  18.297   0.250  0.2586 -0.3923 -0.0702
23580W        W66518  23.723  15.172  31.533  0.1517  0.0413  0.0169
23581W        W66519  24.401  15.514  30.069  0.0572 -0.1701 -0.1507
23582W        W66520  23.991  15.591  31.491 -0.2994 -0.4230 -0.0069
23583W        W66521  23.216  15.457   0.702 -0.0529 -0.0998 -0.0150
23584W        W66522  21.415  17.122   1.569  0.2319  0.1935  0.2074
23585W        W66523  22.966  16.883   1.893  0.2833  0.0472 -0.3412
23586W        W66524  23.682  15.952   2.004  0.2015  0.0908  0.1019
23587W        W66525  22.735  16.768  30.297 -0.3337 -0.0925 -0.0903
23588W        W66526  22.864  15.899   1.900  0.3974  0.5273 -0.2089
23589W        W66527  21.961  16.570   2.126 -0.2739  0.0037  0.1776
23590W        W66528  22.948  16.128   0.011  0.2263  0.3321 -0.1647
23591W        W66529  24.779  17.887  31.144 -0.0707  0.1760  0.0199
23592W        W66530  24.158  16.177   1.962 -0.0043 -0.0631  0.1825
23593W        W66531  23.684  18.193   0.903  0.1656  0.0623  0.3188
23594W        W66532  22.313  16.562   0.029  0.3234 -0.0956 -0.3210
23595W        W66533  21.366  15.926   4.081 -0.0170 -0.1475 -0.0460
23596W        W66534  21.736  16.308   2.741  0.2697 -0.0662  0.4896
23597W        W66535  23.160  13.955  30.058  0.0912  0.0892  0.0512
23598W        W66536  24.474  18.172   3.698 -0.0626 -0.0847  0.7005
23599W        W66537  21.416  17.174   2.552 -0.2152  0.0778 -0.0192
23600W        W66538  25.560  15.618   0.669  0.2786  0.1244  0.0621
23601W        W66539  22.449  15.717   1.520  0.1525  0.2027  0.2183
23602W        W66540  23.416  17.117   2.109 -0.1913 -0.1391  0.0177
23603W        W66541  23.405  15.536  31.883 -0.0687 -0.0966 -0.5187
23604W        W66542  26.589  13.412   0.710 -0.0636 -0.0812  0.0822
23605W        W66543  23.587  14.914   1.120 -0.1140  0.1197 -0.2644
23606W        W66544  21.843  15.368  31.774  0.3461 -0.1647 -0.0216
23607W        W66545  22.914  17.480   0.354  0.1774 -0.2724  0.2936
23608W        W66546  25.050  16.426   2.238 -0.1355 -0.0820  0.1385
23609W        W66547  23.005  16.892  30.681 -0.0102 -0.0453 -0.0315
23610W        W66548  22.028  17.774   0.980 -0.2794 -0.1135  0.1196
23611W        W66549  20.163  16.234   2.321  0.0749 -0.1642 -0.3997
23612W        W66550  23.057  16.633   3.857  0.1608  0.1254  0.0410
23613W        W66551  21.728  17.700  30.733  0.3166  0.2481 -0.2534
23614W        W66552  20.713  16.371  31.871  0.0444 -0.1666 -0.1875
23615W        W66553  22.070  15.654   0.137 -0.0995  0.1666  0.0499
23616W        W66554  21.865  14.940   1.759 -0.0790 -0.0923  0.1175
23617W        W66555  23.306  15.745   3.212  0.0108  0.1088  0.0097
23618W        W66556  24.917  15.382  31.475 -0.0229 -0.2472  0.4010
23619W        W66557  22.275  14.537   2.253 -0.1712 -0.0746  0.2712
23620W        W66558  24.474  13.649   1.224  0.0035  0.0313  0.2392
23621W        W66559  22.812  16.908   0.527 -0.1335  0.0919 -0.1614
23622W        W66560  25.099  16.976   0.489  0.0403 -0.1097  0.0904
23623W        W66561  24.984  14.172  31.088 -0.1996  0.4355 -0.2416
23624W        W66562  23.405  17.293  30.698 -0.1270  0.0482 -0.1338
23625W        W66563  20.420  15.066   1.376  0.0660  0.0222 -0.1168
23626W        W66564  22.624  15.563   0.140 -0.0086  0.0563  0.0597
23627W        W66565  21.976  14.005   3.076 -0.1635 -0.2486 -0.0005
23628W        W66566  21.871  15.457   0.973 -0.2714 -0.1153  0.2562
23629W        W66567  23.517  17.297   3.250  0.1730  0.0593  0.0160
23630W        W66568  21.576  14.270  30.685 -0.1801 -0.0748 -0.1154
23631W        W66569  23.691  15.329   0.777 -0.1556 -0.3301 -0.0296
23632W        W66570  22.977  15.467  31.563 -0.0412 -0.1771  0.1302
23633W        W66571  20.955  15.369   0.107 -0.1653  0.0321  0.0425
23634W        W66572  22.760  15.169   2.858 -0.0405  0.0816  0.0547
23635W        W66573  22.967  16.836  31.248  0.0239  0.0947  0.0005
23636W        W66574  25.065  17.616   3.161 -0.0408 -0.0824 -0.0280
23637W        W66575  23.333  17.119   1.562 -0.0254  0.2164 -0.1548
23638W        W66576  22.038  14.907   2.649 -0.0088 -0.4483 -0.0481
23639W        W66577  23.844  14.718  30.990  0.0896 -0.2601 -0.0413
23640W        W66578  21.595  16.380   0.907  0.1394 -0.0052 -0.2621
23641W        W66579  23.856  16.207   0.833  0.2497  0.1743  0.1732
23642W        W66580  23.857  15.265  31.003  0.3995 -0.1532 -0.2293
23643W        W66581  25.456  18.246   1.257  0.1572  0.1012  0.0248
23644W        W66582  21.539  15.794   0.164  0.0062 -0.0908  0.1263
23645W        W66583  21.148  17.805   0.875  0.2165 -0.2911 -0.0635
23646W        W66584  23.245  14.142   2.045 -0.0718  0.0553 -0.0182
23647W        W66585  23.922  18.136   3.067 -0.2725  0.1327 -0.0243
23648W        W66586  24.464  16.250   0.908 -0.0998 -0.6077 -0.1190
23649W        W66587  22.250  14.759  31.789  0.0005  0.0718 -0.0237
23650W        W66588  25.741  17.397   0.979 -0.0814 -0.1487 -0.3001
23651W        W66589  22.127  17.287   0.769 -0.2686  0.0787  0.0476
23652W        W66590  21.010  17.235   0.138  0.0407  0.3297 -0.1607
23653W        W66591  23.123  17.425   0.885  0.1043 -0.1524 -0.0130
23654W        W66592  25.581  15.790   1.854  0.2726  0.0460 -0.0860
23655W        W66593  21.486  14.941   3.597 -0.2729 -0.0508  0.1017
23656W        W66594  24.464  15.062   2.177  0.0244  0.0523 -0.3277
23657W        W66595  20.964  14.871   0.246  0.0699  0.4494  0.1763
23658W        W66596  23.363  16.289   1.116  0.1096  0.2383  0.2222
23659W        W66597  24.678  13.800   1.653 -0.0278  0.0765  0.1128
23660W        W66598  25.692  14.903  31.921 -0.0146  0.0585 -0.1439
23661W        W66599  23.256  17.099   3.987  0.0163 -0.0087 -0.0680
23662W        W66600  24.131  16.651   0.839 -0.1370  0.0972 -0.2041
23663W        W66601  24.221  15.100  31.369  0.1427 -0.0487 -0.1169
23664W        W66602  24.681  13.991  31.688 -0.4424 -0.1145  0.0405
23665W        W66603  22.111  14.532   3.443 -0.3399 -0.2185  0.3399
23666W        W66604  22.128  17.067  31.374 -0.0426 -0.0478 -0.0479
23667W        W66605  22.084  17.712   1.468 -0.1534 -0.1960  0.3722
23668W        W66606  24.441  15.449  31.743 -0.0291  0.1199 -0.2445
23669W        W66607  24.864  17.165   0.912  0.1976 -0.1019 -0.0777
23670W        W66608  20.916  16.732   0.221  0.2203  0.1639 -0.2471
23671W        W66609  23.609  16.659   2.146 -0.2636  0.0068  0.1530
23672W        W66610  23.528  16.761  31.656  0.2450 -0.1568 -0.0639
23673W        W66611  22.360  15.548   1.021  0.4459 -0.0342 -0.1508
23674W        W66612  21.592  16.453   0.428  0.1675 -0.0821  0.3204
23675W        W66613  22.805  14.951   1.477  0.0330  0.4278  0.1226
23676W        W66614  20.974  17.963  28.040  0.2621 -0.4712 -0.1212
23677W        W66615  24.646  15.120   1.036 -0.2180  0.2852 -0.1950
23678W        W66616  23.692  15.371   3.412  0.1077  0.2154  0.2175
23679W        W66617  23.246  14.550   1.268  0.0894  0.1337  0.2083
23680W        W66618  25.435  15.800   3.939 -0.0601 -0.1541 -0.1171
23681W        W66619  24.480  17.130   1.275  0.2373  0.0884 -0.1360
23682W        W66620  23.654  17.485   1.624 -0.0340  0.2183  0.0117
23683W        W66621  23.152  16.481  31.568 -0.0325  0.1777 -0.1805
23684W        W66622  22.250  16.154   2.012  0.1242  0.1182 -0.1005
23685W        W66623  21.368  16.550   2.463  0.0632 -0.2252  0.1091
23686W        W66624  22.031  17.447   1.859  0.0560 -0.0358 -0.0298
23687W        W66625  24.924  15.522   3.800 -0.2758  0.0184 -0.1156
23688W        W66626  23.963  15.434   0.014 -0.0958  0.3778 -0.1108
23689W        W66627  23.733  15.436   2.908 -0.0512 -0.0905  0.2484
23690W        W66628  24.649  14.881  31.624 -0.2012  0.0937  0.0878
23691W        W66629  20.609  18.579   0.090 -0.1547  0.0231 -0.0716
23692W        W66630  24.233  17.302  31.840 -0.0793 -0.1216  0.2691
23693W        W66631  22.499  14.801   1.867  0.0664 -0.1992  0.0239
23694W        W66632  21.052  16.443   1.034  0.1532  0.1340 -0.3423
23695W        W66633  23.337  17.789  30.757 -0.0805  0.1080  0.2386
23696W        W66634  22.545  15.323   1.994  0.1301  0.0025 -0.2125
23697W        W66635  22.305  17.438  30.999  0.0127 -0.0565  0.0537
23698W        W66636  23.821  14.928   0.495  0.2213 -0.0031 -0.3517
23699W        W66637  22.828  16.433   0.936 -0.1319  0.2374  0.4580
23700W        W66638  21.926  15.005  31.441 -0.0077  0.1880 -0.0511
23701W        W66639  20.616  16.953  31.868  0.2713  0.1899  0.2362
23702W        W66640  24.136  15.274   3.130 -0.1313 -0.2552 -0.4158
23703W        W66641  24.490  16.746   1.593  0.3394 -0.1389  0.2439
23704W        W66642  22.784  14.578   1.079  0.1188 -0.3723  0.2102
23705W        W66643  23.384  15.579   2.137 -0.3488 -0.3590  0.0061
23706W        W66644  21.916  16.065   1.300 -0.0583  0.0352 -0.1392
23707W        W66645  22.787  16.404   1.864  0.1647  0.0290 -0.1451
23708W        W66646  25.214  14.115   0.953  0.4439  0.1950  0.0820
23709W        W66647  23.224  16.016   2.374 -0.0212  0.0285  0.0143
23710W        W66648  23.168  15.670   4.157  0.3090  0.0402  0.3711
23711W        W66649  21.428  15.279   0.158  0.0604 -0.0234 -0.2742
23712W        W66650  23.953  14.499   1.351  0.4871  0.2383  0.2438
23713W        W66651  21.991  14.816  30.633  0.1882  0.2129  0.1562
23714W        W66652  21.332  18.173  31.634 -0.2754  0.0406  0.1788
23715W        W66653  22.425  18.026   1.327 -0.1660  0.0078  0.3611
23716W        W66654  21.716  17.349  31.641  0.1589 -0.0192 -0.0270
23717W        W66655  21.726  17.543   0.139 -0.1381  0.1781  0.0366
23718W        W66656  22.066  15.834   2.408  0.0259 -0.1072  0.1899
23719W        W66657  24.387  16.188   2.481 -0.3598  0.0953 -0.1147
23720W        W66658  21.834  14.525   2.068 -0.0739  0.0416  0.0357
23721W        W66659  22.938  15.932   0.613 -0.0016 -0.4651 -0.4087
23722W        W66660  23.035  15.325   0.201  0.0028  0.0350  0.0810
23723W        W66661  22.940  16.528   3.327  0.1285  0.1189  0.0771
23724W        W66662  22.614  14.737   3.196 -0.0829 -0.0619  0.1180
23725W        W66663  21.888  17.037   3.431 -0.0231  0.0424 -0.3363
23726W        W66664  23.016  14.557   1.886  0.0424  0.0364 -0.1947
23727W        W66665  25.912  17.135   2.550 -0.1564 -0.0187 -0.0625
23728W        W66666  24.627  16.145   3.172  0.3328  0.3645  0.0550
23729W        W66667  23.557  15.855   0.683 -0.1488  0.2188 -0.2829
23730W        W66668  20.737  16.548   0.691  0.1600 -0.2132 -0.1010
23731W        W66669  22.538  16.868  31.653  0.1681  0.0371  0.1671
23732W        W66670  22.747  15.327   0.602 -0.2837  0.1817 -0.1383
23733W        W66671  21.875  15.774   3.005 -0.0975  0.2203  0.0234
23734W        W66672  22.074  16.763  29.711 -0.1283  0.1593  0.0265
23735W        W66673  21.585  15.738   2.354 -0.1174  0.0020  0.0188
23736W        W66674  24.949  14.870  31.204  0.1751 -0.3901  0.0723
23737W        W66675  22.329  16.784   0.938 -0.0745  0.3870 -0.0105
23738W        W66676  23.293  14.973   0.511 -0.0263  0.1166 -0.1129
23739W        W66677  24.102  16.220   3.239 -0.0686 -0.0925  0.2455
23740W        W66678  24.841  16.165   0.344  0.2635 -0.3505 -0.4978
23741W        W66679  24.463  16.294   3.681  0.0004  0.2389 -0.0324
23742W        W66680  21.621  15.365   1.950 -0.2674  0.1201  0.2420
23743W        W66681  24.966  15.962   1.583  0.1991  0.2743 -0.1543
23744W        W66682  21.183  15.347   3.342 -0.0234  0.0237  0.1577
23745W        W66683  23.895  17.925   5.126 -0.0460  0.2315 -0.0137
23746W        W66684  22.314  16.768   3.057 -0.4122  0.1019  0.1621
23747W        W66685  23.637  15.670  30.712 -0.2119  0.0399  0.0404
23748W        W66686  23.005  15.523  30.760 -0.0027  0.0024  0.2200
23749W        W66687  22.630  17.817   3.484 -0.3294  0.3282 -0.1421
23750W        W66688  24.964  18.039   2.090  0.1496  0.1374 -0.0309
23751W        W66689  23.044  16.382   0.401  0.1167 -0.1382 -0.0826
23752W        W66690  24.473  16.276   0.026 -0.0509 -0.0199  0.0120
23753W        W66691  23.150  16.521   2.301  0.0677 -0.1056  0.3945
23754W        W66692  23.795  16.184   1.609  0.1308  0.0578 -0.0631
23755W        W66693  22.398  17.177  30.126 -0.1615  0.1872  0.2007
23756W        W66694  22.904  16.161   1.450  0.0738 -0.1848  0.0092
23757W        W66695  23.810  14.424   2.963 -0.4330 -0.1934  0.1454
23758W        W66696  21.853  16.938   1.768 -0.5249  0.3506  0.2890
23759W        W66697  23.449  15.379   1.729 -0.0258  0.0590 -0.1058
23760W        W66698  22.961  15.511   1.571 -0.3065  0.1950  0.4341
23761W        W66699  22.110  16.454   0.532  0.1541 -0.0375  0.0827
23762W        W66700  22.653  14.499   5.469 -0.0209 -0.2822  0.2862
23763W        W66701  23.765  14.151   4.196  0.3210 -0.0750  0.0573
23764W        W66702  25.199  18.647   1.829 -0.0489  0.3242 -0.0448
23765W        W66703  25.767  16.452   0.308 -0.0728 -0.3972 -0.1123
23766W        W66704  24.131  14.705   1.744 -0.0692 -0.1963 -0.0013
23767W        W66705  24.325  16.846  31.049 -0.1001 -0.1900  0.0166
23768W        W66706  22.514  16.760  31.112 -0.1414 -0.2808  0.2460
23769W        W66707  22.440  15.396   2.568  0.2565 -0.3225  0.0883
23770W        W66708  25.072  17.413   3.783  0.2663 -0.2968  0.0645
23771W        W66709  22.721  15.941  30.293 -0.3590 -0.1052 -0.0764
23772W        W66710  23.730  13.651   3.091 -0.3387  0.2023  0.1417
23773W        W66711  23.270  18.512   0.936 -0.2773 -0.0197 -0.1919
23774W        W66712  22.674  16.614   1.403 -0.3383 -0.3996 -0.1147
23775W        W66713  24.986  16.584  30.674  0.3216  0.0040 -0.0555
23776W        W66714  22.106  15.593   1.975  0.0507  0.3430  0.0652
23777W        W66715  21.329  15.872   3.585 -0.1191 -0.0557  0.2522
23778W        W66716  21.462  14.726  31.462  0.0499  0.0551 -0.0399
23779W        W66717  22.668  15.877  31.198  0.1221  0.0944 -0.3805
23780W        W66718  23.416  17.420   2.731 -0.5154  0.0908  0.0045
23781W        W66719  23.996  16.096   3.721  0.0486  0.0639  0.0551
23782W        W66720  26.183  13.577   1.011 -0.1571 -0.2495 -0.0117
23783W        W66721  24.338  15.247   1.685 -0.0979  0.0311 -0.2999
23784W        W66722  21.631  16.857  31.558 -0.0946  0.1719 -0.1349
23785W        W66723  24.301  15.062  30.778  0.1061 -0.0226 -0.0856
23786W        W66724  21.920  17.892   2.115 -0.1084  0.1630  0.2520
23787W        W66725  21.080  15.934   2.155 -0.2508  0.0024  0.1035
23788W        W66726  23.538  17.230   1.097  0.3212 -0.0929 -0.2178
23789W        W66727  24.192  14.157   1.044  0.0264 -0.1327 -0.1332
23790W        W66728  23.879  15.183   1.474  0.2472  0.1828  0.0810
23791W        W66729  24.119  15.214   0.960 -0.1906 -0.1154 -0.1277
23792W        W66730  24.293  17.183   3.143 -0.0905  0.2416  0.0977
23793W        W66731  22.561  16.453   0.497 -0.1551 -0.2766 -0.0607
23794W        W66732  21.773  15.943   0.620  0.5142 -0.3613 -0.0271
23795W        W66733  23.809  19.732   1.182 -0.1151  0.1549 -0.0791
23796W        W66734  24.391  17.110   0.776 -0.0286  0.3139 -0.5612
23797W        W66735  20.630  16.034   0.755 -0.0187 -0.2607 -0.2213
23798W        W66736  22.647  15.016   2.330  0.0500 -0.0349  0.5518
23799W        W66737  23.286  16.244   1.904  0.0691 -0.2304  0.0489
23800W        W66738  24.150  15.998   1.248 -0.1686 -0.0446  0.1679
23801W        W66739  23.176  14.122  31.547 -0.1512  0.0465 -0.1028
23802W        W66740  23.289  19.803   0.238  0.2301 -0.0838 -0.2762
23803W        W66741  20.557  16.402   2.922  0.0115  0.0562  0.1318
23804W        W66742  22.194  17.244   1.269  0.3192  0.1080  0.3762
23805W        W66743  21.122  18.703   0.910 -0.0931  0.1255 -0.1549
23806W        W66744  24.142  17.261   1.639 -0.3475  0.0253  0.2158
23807W        W66745  23.540  16.911   2.591 -0.0924  0.1656  0.1331
23808W        W66746  23.202  17.958   0.929  0.0254  0.2196  0.0032
23809W        W66747  24.069  15.399  30.495  0.2645  0.3642 -0.2453
23810W        W66748  22.761  17.156   1.434  0.2418  0.0434  0.0833
23811W        W66749  20.679  17.995  31.096 -0.1763 -0.0352  0.1304
23812W        W66750  23.605  16.659   0.948  0.4518  0.0465  0.1046
23813W        W66751  21.284  16.810   0.659 -0.1670 -0.0566  0.0654
23814W        W66752  24.441  16.653   3.275  0.2603 -0.0920 -0.2604
23815W        W66753  24.860  14.385  31.510  0.2176  0.2117  0.1206
23816W        W66754  23.912  15.680   1.581  0.0514 -0.1808  0.1719
23817W        W66755  25.622  13.833   1.358  0.0654 -0.0076 -0.4142
23818W        W66756  22.844  18.035   3.059 -0.0164  0.0847 -0.1329
23819W        W66757  23.276  15.806   0.304  0.1276  0.2408 -0.1587
23820W        W66758  24.120  14.760  31.710  0.1637  0.2252  0.1488
23821W        W66759  23.125  14.846   4.541  0.3036  0.1125 -0.2593
23822W        W66760  24.624  14.308   3.411  0.0737  0.0638  0.2162
23823W        W66761  21.053  17.561   1.833 -0.2808 -0.1897  0.1497
23824W        W66762  23.753  17.978   0.429 -0.0527 -0.0788 -0.0164
23825W        W66763  22.701  15.130  31.826  0.0991 -0.1822  0.1461
23826W        W66764  24.085  16.478   1.320  0.1647  0.2381  0.0598
23827W        W66765  25.847  15.527   3.825  0.4440 -0.0228 -0.1289
23828W        W66766  23.215  15.918  30.518  0.0888  0.2244 -0.0006
23829W        W66767  25.085  16.768  31.549 -0.0356 -0.0561  0.2592
23830W        W66768  22.152  18.527   2.215  0.0477  0.1336 -0.0458
23831W        W66769  23.527  16.490   0.472 -0.1257 -0.1752 -0.1119
23832W        W66770  22.968  17.421   1.819  0.0837  0.6276 -0.1131
23833W        W66771  22.807  16.725   0.073 -0.1807  0.2453  0.1856
23834W        W66772  26.307  15.666   1.309  0.2060 -0.1886 -0.0388
23835W        W66773  22.571  15.007   1.020  0.1188 -0.0261  0.4099
23836W        W66774  25.535  15.583   2.345  0.1121  0.0659  0.0711
23837W        W66775  22.246  15.186   0.039  0.0935 -0.1766  0.3701
23838W        W66776  25.905  14.161   0.462  0.0435 -0.0548 -0.1157
23839W        W66777  23.201  17.607   1.401 -0.2714  0.3450  0.0085
23840W        W66778  21.595  16.178   2.239 -0.0551  0.0905 -0.2892
23841W        W66779  22.286  15.486  31.611 -0.1992 -0.0673  0.0499
23842W        W66780  25.173  16.388   1.307 -0.2839 -0.2574 -0.0224
23843W        W66781  23.911  17.606  31.488 -0.1597 -0.4698 -0.1806
23844W        W66782  23.607  17.641   2.187  0.0981 -0.2176  0.0898
23845W        W66783  22.352  15.140   1.523 -0.1633 -0.1874 -0.0981
23846W        W66784  22.709  14.185  30.093  0.1257  0.1067  0.0305
23847W        W66785  21.918  16.127   0.122 -0.1240 -0.4428 -0.0262
23848W        W66786  22.391  17.022   2.656 -0.3513  0.0120  0.2576
23849W        W66787  23.137  17.595   2.266 -0.0491  0.0805  0.4563
23850W        W66788  21.869  15.309   0.475  0.1643 -0.1989  0.0027
23851W        W66789  25.292  15.874   0.984 -0.3621 -0.0541  0.0365
23852W        W66790  25.374  16.765   2.109  0.3305 -0.1906  0.0382
23853W        W66791  22.469  18.618  31.882  0.2896  0.4336  0.0939
23854W        W66792  23.620  16.679   1.486  0.0719  0.3519 -0.2858
23855W        W66793  23.846  17.046   0.740  0.1327  0.4092 -0.1975
23856W        W66794  21.382  14.237   1.341 -0.1284 -0.2960 -0.2698
23857W        W66795  24.239  17.167   2.097  0.2720 -0.1096  0.2402
23858W        W66796  24.795  17.351   2.879 -0.2078  0.1706  0.0624
23859W        W66797  24.823  15.192   0.544 -0.0503 -0.2025 -0.2036
23860W        W66798  22.259  15.039   0.627 -0.1999  0.2517 -0.1353
23861W        W66799  22.120  17.019  31.893  0.1306  0.1048 -0.1440
23862W        W66800  24.221  15.750   2.209  0.2448  0.1064 -0.1166
23863W        W66801  24.577  15.613   3.094 -0.0586 -0.3491 -0.0573
23864W        W66802  22.997  19.333  31.982  0.2169  0.0087 -0.0178
23865W        W66803  25.177  15.051   1.317 -0.0070 -0.1362  0.0060
23866W        W66804  22.890  16.807   2.630 -0.1962 -0.1043  0.0009
23867W        W66805  22.313  17.999   3.832  0.0839 -0.1143 -0.2188
23868W        W66806  21.422  15.267  31.302  0.1040  0.1387 -0.0960
23869W        W66807  22.275  16.594   1.754 -0.1474 -0.1601  0.2093
23870W        W66808  22.650  17.176   0.108  0.1803 -0.0839 -0.0847
23871W        W66809  24.046  18.278   1.225 -0.2008  0.4020 -0.1470
23872W        W66810  26.127  18.134   1.560 -0.0197  0.0740 -0.1646
23873W        W66811  25.382  15.623   3.447  0.2087  0.0089  0.0459
23874W        W66812  24.753  17.059   1.944 -0.2888  0.1431 -0.1107
23875W        W66813  22.349  15.727   0.533 -0.0288 -0.0368  0.4278
23876W        W66814  25.008  14.716   0.962  0.0315 -0.0895 -0.0659
23877W        W66815  25.329  14.062   1.811  0.1826  0.1607  0.0509
23878W        W66816  22.224  16.488   2.583  0.1703  0.1478  0.2012
23879W        W66817  22.456  16.092   0.133 -0.0309 -0.1101  0.0771
23880W        W66818  20.744  17.410  31.194  0.0309  0.0555  0.0310
23881W        W66819  22.248  16.039   0.918  0.0080  0.0366  0.0679
23882W        W66820  22.499  13.980   2.692  0.1289 -0.1362 -0.4750
23883W        W66821  21.031  14.493   2.804 -0.1061  0.1132 -0.1138
23884W        W66822  21.262  16.670  31.863 -0.2397  0.1866 -0.1334
23885W        W66823  22.203  15.701  31.146  0.1127  0.0983  0.1669
23886W        W66824  23.737  16.875   0.255 -0.0403 -0.0475  0.0928
23887W        W66825  21.976  15.462   1.547 -0.3133  0.2156 -0.0228
23888W        W66826  21.770  14.028   1.507  0.1052 -0.0738  0.0964
23889W        W66827  24.084  16.489   0.315 -0.1572  0.1850 -0.1835
23890W        W66828  24.002  16.752   1.769  0.0886 -0.2063 -0.2697
23891W        W66829  23.066  14.945   0.964 -0.0205  0.2451  0.1228
23892W        W66830  23.397  18.037   4.066  0.2712 -0.2725 -0.0855
23893W        W66831  21.185  16.187   0.110 -0.1548 -0.2637  0.1831
23894W        W66832  23.806  15.246   2.415 -0.2295  0.2171 -0.1464
23895W        W66833  22.905  15.505   2.316 -0.2934  0.0126 -0.1512
23896W        W66834  21.048  14.331   0.278 -0.3700  0.0631  0.1787
23897W        W66835  22.075  15.044   2.174 -0.3100 -0.1206 -0.0067
23898W        W66836  23.286  16.826   0.092  0.1007 -0.1575 -0.0965
23899W        W66837  25.134  16.923  31.081  0.3434  0.1632  0.2490
23900W        W66838  21.805  16.288   1.712  0.0204 -0.1035 -0.1554
23901W        W66839  22.515  16.705   2.179  0.0492 -0.0056  0.0771
23902W        W66840  21.645  12.747   0.872 -0.1051  0.0859 -0.0070
23903W        W66841  24.052  15.726   0.841  0.0258 -0.1297 -0.0356
23904W        W66842  22.744  17.099   3.106  0.1829  0.0008 -0.1474
23905W        W66843  25.248  17.438   0.321 -0.3429 -0.2375 -0.0712
23906W        W66844  24.457  14.855   0.555  0.0798  0.0068  0.0629
23907W        W66845  23.788  15.875   0.257 -0.1330 -0.0206  0.1469
23908W        W66846  22.705  14.363   1.514  0.1426  0.1381 -0.0475
23909W        W66847  20.957  16.204   3.475  0.3522  0.1003 -0.2217
23910W        W66848  24.659  17.378   2.302 -0.0775  0.1271 -0.0205
23911W        W66849  23.861  14.146  31.744  0.0200  0.1397  0.0382
23912W        W66850  23.387  15.189  30.783  0.2791  0.4719  0.0889
23913W        W66851  23.711  15.974  30.318  0.2397  0.0460 -0.1994
23914W        W66852  20.858  14.982   1.631 -0.0787 -0.1465  0.3213
23915W        W66853  23.538  15.366   0.322  0.0430 -0.0639 -0.2328
23916W        W66854  23.853  17.230   2.892  0.2331  0.2265 -0.0362
23917W        W66855  22.463  16.004   2.738 -0.2959  0.2050 -0.2941
23918W        W66856  23.282  15.524   2.708  0.0845 -0.2535  0.0063
23919W        W66857  21.956  14.541   0.251 -0.1218  0.0512 -0.2760
23920W        W66858  24.966  16.282  31.832  0.1142  0.0191  0.2129
23921W        W66859  22.813  17.197   2.250 -0.2350 -0.1650 -0.0016
23922W        W66860  23.674  17.753   1.180  0.1967  0.4285 -0.1936
23923W        W66861  22.297  17.595   2.609 -0.1877  0.0083 -0.1030
23924W        W66862  23.357  15.859   1.630 -0.2818 -0.1696 -0.2408
23925W        W66863  21.557  13.751   3.339  0.1661 -0.0780 -0.0205
23926W        W66864  22.108  16.007  31.650 -0.1364  0.0776  0.2116
23927W        W66865  23.243  15.021  31.799  0.0881 -0.1874  0.0863
23928W        W66866  23.151  16.578   1.563 -0.1471  0.0814 -0.3205
23929W        W66867  21.994  15.029   1.214 -0.3065  0.5310 -0.1113
23930W        W66868  22.714  14.262   0.308  0.1819 -0.0045 -0.2630
23931W        W66869  22.412  17.589   2.137 -0.1004  0.1502 -0.0347
23932W        W66870  22.382  16.222   1.386 -0.0641 -0.0762 -0.1695
23933W        W66871  23.349  15.616   6.653 -0.1054 -0.2536  0.1358
23934W        W66872  22.411  14.556   4.997 -0.0180  0.1702 -0.0706
23935W        W66873  22.726  13.983   4.419  0.0514 -0.3508 -0.0549
23936W        W66874  25.069  16.865   4.078  0.0431  0.1235  0.1036
23937W        W66875  22.975  15.987   4.505 -0.0302 -0.1902  0.0031
23938W        W66876  23.465  17.716   5.124 -0.0233 -0.0287 -0.0273
23939W        W66877  22.782  14.853   7.041 -0.2523 -0.2650 -0.3884
23940W        W66878  24.882  16.672   6.276 -0.1097  0.0017 -0.0950
23941W        W66879  25.382  17.364   6.148  0.3370 -0.2742  0.1737
23942W        W66880  24.819  16.043   3.935 -0.1886 -0.1021  0.2295
23943W        W66881  23.936  15.655   5.318  0.0698  0.0816  0.1527
23944W        W66882  22.837  16.446   6.763  0.1856 -0.0354  0.1913
23945W        W66883  23.099  13.965   3.699  0.2063 -0.0090 -0.1445
23946W        W66884  21.735  14.767   5.101  0.0226 -0.3348  0.0492
23947W        W66885  23.277  16.982   7.227  0.1403  0.0064 -0.2175
23948W        W66886  22.874  15.262   6.254 -0.0002  0.1306  0.4226
23949W        W66887  22.600  15.886   6.102 -0.3134  0.0042  0.1087
23950W        W66888  23.518  15.204   5.482  0.0556  0.3085 -0.3583
23951W        W66889  22.862  17.948   3.966 -0.4210  0.1103 -0.0318
23952W        W66890  24.044  14.589   7.614 -0.0266  0.0042  0.0686
23953W        W66891  24.186  14.307   8.031 -0.0718  0.1702 -0.0919
23954W        W66892  23.553  18.235   3.518 -0.3109 -0.1297 -0.1846
23955W        W66893  21.648  16.868   3.927 -0.1894  0.0350  0.0229
23956W        W66894  21.102  17.070   4.676 -0.3077  0.0574  0.0198
23957W        W66895  23.121  16.630   5.968  0.1001  0.0402  0.1215
23958W        W66896  24.422  15.408   5.471  0.0235  0.2347 -0.0484
23959W        W66897  23.944  14.583   5.530  0.0329 -0.1387 -0.1447
23960W        W66898  23.735  17.254   5.949 -0.0431  0.3317 -0.0455
23961W        W66899  24.531  17.102   6.187 -0.1636  0.1392  0.1271
23962W        W66900  25.023  14.906   6.559  0.1862 -0.1711  0.2268
23963W        W66901  22.038  17.576   3.884  0.2052 -0.1054 -0.2076
23964W        W66902  20.645  17.238   4.811  0.2192 -0.0605 -0.0705
23965W        W66903  22.124  18.561   3.771  0.1439 -0.1675 -0.1124
23966W        W66904  23.162  16.693   4.380 -0.0560 -0.1001  0.0037
23967W        W66905  24.759  17.501   6.647  0.1031 -0.0384 -0.2875
23968W        W66906  24.141  17.538   5.972 -0.0718  0.0053  0.2321
23969W        W66907  21.792  16.086   3.441 -0.2529  0.0026  0.2226
23970W        W66908  24.273  18.284   5.987  0.0119  0.1454  0.2082
23971W        W66909  23.048  16.725   6.404 -0.1608 -0.0482 -0.0281
23972W        W66910  22.301  16.736   7.425  0.1701 -0.0324 -0.2735
23973W        W66911  24.206  16.815   4.151  0.4800  0.0412  0.2111
23974W        W66912  23.127  17.940   3.424  0.0866  0.2638 -0.2026
23975W        W66913  24.105  16.889   6.032 -0.2638  0.0875  0.1129
23976W        W66914  23.115  16.292   7.232  0.0516 -0.1205  0.1063
23977W        W66915  22.200  17.297   4.987  0.0807 -0.0579  0.2751
23978W        W66916  25.617  14.719   7.346  0.0850 -0.2229  0.1736
23979W        W66917  21.287  17.567   2.851 -0.0474 -0.0644 -0.0379
23980W        W66918  22.537  15.786   2.237 -0.1677 -0.0024  0.1128
23981W        W66919  22.709  16.241   2.385  0.0090  0.0538  0.1843
23982W        W66920  24.271  13.515   5.414 -0.0063  0.1325 -0.1401
23983W        W66921  23.198  14.309   5.376  0.1862  0.0984 -0.4694
23984W        W66922  23.890  16.950   6.880  0.2759  0.2606 -0.1094
23985W        W66923  22.994  14.773   6.597  0.0967 -0.1007 -0.0912
23986W        W66924  26.085  16.600   5.599  0.0250  0.2009  0.1676
23987W        W66925  23.073  16.711   5.028  0.2247 -0.1627  0.1670
23988W        W66926  23.968  15.598   6.778 -0.0356  0.0657  0.1185
23989W        W66927  22.783  17.697   7.397  0.2698  0.5805 -0.2955
23990W        W66928  22.893  16.414   5.467 -0.0316 -0.2033 -0.1782
23991W        W66929  24.094  17.451   4.440 -0.1640 -0.1288  0.2335
23992W        W66930  25.523  16.584   4.171  0.0202  0.1246 -0.3219
23993W        W66931  23.878  18.115   3.882 -0.0564  0.1080 -0.1021
23994W        W66932  22.936  15.418   4.533  0.4260  0.1974  0.0615
23995W        W66933  22.076  15.279   6.663  0.0139 -0.1253 -0.0595
23996W        W66934  22.086  16.740   6.547 -0.1401 -0.1259  0.0786
23997W        W66935  22.287  13.893   1.416  0.0446 -0.2721 -0.3229
23998W        W66936  25.561  16.300   4.615 -0.0561 -0.2394 -0.0170
23999W        W66937  23.360  17.618   6.083  0.2464  0.2482  0.0962
24000W        W66938  25.126  16.279   4.267 -0.2522  0.3330  0.0423
24001W        W66939  23.485  16.596   4.787  0.1744  0.4159  0.0860
24002W        W66940  23.920  18.964   4.267  0.2034 -0.1104 -0.1090
24003W        W66941  23.476  16.005   2.851 -0.1426 -0.1284 -0.0378
24004W        W66942  25.490  13.500   6.556  0.0828 -0.5627  0.2037
24005W        W66943  23.135  14.245   6.525  0.1916  0.4900 -0.1998
24006W        W66944  22.673  16.088   3.376 -0.1255  0.1805  0.4132
24007W        W66945  22.573  16.783   3.531 -0.3026  0.1598 -0.1179
24008W        W66946  24.830  17.170   8.272 -0.1915  0.1252  0.4058
24009W        W66947  23.203  15.275   3.725 -0.2096  0.1390 -0.0288
24010W        W66948  22.926  17.674   5.915 -0.0806 -0.1028 -0.0066
24011W        W66949  22.403  15.425   6.279 -0.1653  0.2844  0.1070
24012W        W66950  24.166  16.521   7.016 -0.2184  0.1203  0.0364
24013W        W66951  21.198  19.402   3.375  0.0726 -0.2027  0.1076
24014W        W66952  21.293  16.197   5.503 -0.0981  0.0273  0.1424
24015W        W66953  23.156  16.125   3.516 -0.2401 -0.0086 -0.0937
24016W        W66954  22.147  14.471   6.379 -0.2004  0.1749  0.2504
24017W        W66955  23.782  16.561   6.589 -0.0824  0.0184 -0.1721
24018W        W66956  24.848  14.678   5.016  0.2367  0.2684  0.1537
24019W        W66957  22.813  15.707   6.601  0.2583 -0.0085  0.0770
24020W        W66958  24.566  13.425   4.640 -0.0274 -0.2040 -0.0610
24021W        W66959  23.290  15.097   5.001  0.1477 -0.0853  0.0433
24022W        W66960  25.438  17.518   4.753 -0.0418  0.1664 -0.1008
24023W        W66961  24.904  16.101   4.716  0.4103 -0.0757 -0.1878
24024W        W66962  23.506  17.568   4.162 -0.1134 -0.0855 -0.4579
24025W        W66963  21.368  15.922   5.950 -0.1209 -0.0930 -0.2834
24026W        W66964  23.493  16.091   4.543  0.2102  0.1713 -0.0950
24027W        W66965  23.128  13.100   6.001 -0.1963  0.2250 -0.0042
24028W        W66966  21.657  15.590   5.649  0.2185  0.0281  0.1582
24029W        W66967  23.952  16.361   6.184  0.3479 -0.1397 -0.1220
24030W        W66968  21.688  14.300   3.402  0.3113  0.2985 -0.1968
24031W        W66969  23.442  15.557   5.131  0.1643 -0.0129 -0.0233
24032W        W66970  23.142  17.200   5.007 -0.1756  0.2111  0.1115
24033W        W66971  20.630  17.284   3.009 -0.0711  0.2069 -0.0325
24034W        W66972  26.350  14.580   6.486  0.0940  0.0014 -0.1496
24035W        W66973  23.200  18.235   4.936  0.0339 -0.0839  0.1984
24036W        W66974  25.924  16.597   7.941  0.0025  0.0233 -0.0807
24037W        W66975  24.576  18.361   4.175  0.1061  0.3032  0.4997
24038W        W66976  21.620  14.511   6.322 -0.1411 -0.1048  0.2460
24039W        W66977  21.918  14.911   3.237 -0.0430 -0.2627 -0.3769
24040W        W66978  21.590  19.552   5.429 -0.1419 -0.0162  0.1210
24041W        W66979  22.591  17.493   4.638 -0.1347 -0.0261  0.0822
24042W        W66980  24.098  14.451   4.332  0.4080  0.0821  0.0917
24043W        W66981  24.634  18.060   5.406 -0.0950  0.1621  0.0243
24044W        W66982  23.616  17.115   4.797 -0.2357  0.1234 -0.0114
24045W        W66983  22.441  17.061   6.848  0.1695  0.1116  0.2677
24046W        W66984  24.599  15.375   7.373 -0.0386  0.0931 -0.2036
24047W        W66985  23.631  15.895   6.999  0.1711  0.4135  0.1555
24048W        W66986  24.576  15.087   4.822 -0.0396  0.1040  0.0950
24049W        W66987  21.501  15.131   3.011  0.4657  0.2383 -0.1151
24050W        W66988  22.574  16.514   4.198 -0.0194  0.2006  0.1912
24051W        W66989  21.806  17.444   2.490 -0.1193 -0.0565  0.2424
24052W        W66990  22.673  15.707   4.139 -0.2568 -0.1068 -0.3637
24053W        W66991  22.843  16.490   4.653 -0.0758  0.3857 -0.0340
24054W        W66992  26.605  14.905   5.445  0.3685  0.1654  0.0624
24055W        W66993  21.431  16.641   5.833 -0.3592  0.0111 -0.0086
24056W        W66994  22.623  15.229   6.740 -0.1811  0.0938  0.0498
24057W        W66995  23.688  14.803   2.585  0.3855  0.2657  0.1830
24058W        W66996  21.993  17.310   5.913 -0.0880 -0.0301  0.2088
24059W        W66997  24.219  14.277   3.779 -0.1053  0.0769  0.3725
24060W        W66998  24.204  15.883   2.858  0.2899  0.0581  0.1152
24061W        W66999  24.831  17.117   7.406 -0.0195  0.0109 -0.1062
24062W        W67000  23.480  16.399   5.276  0.0077 -0.1927 -0.5111
24063W        W67001  23.410  14.119   3.282  0.2425  0.1271  0.1493
24064W        W67002  23.044  14.804   2.624  0.3384 -0.2590  0.2614
24065W        W67003  22.280  17.710   6.542 -0.2498  0.1726  0.0801
24066W        W67004  23.539  18.202   5.389  0.2345 -0.0226 -0.0636
24067W        W67005  22.761  16.918   5.527  0.0113  0.0377 -0.1495
24068W        W67006  22.949  15.702   3.678  0.3347  0.0637 -0.1835
24069W        W67007  26.077  16.684   3.991 -0.0449  0.0523  0.0935
24070W        W67008  21.826  15.450   6.096 -0.1501  0.2306  0.2185
24071W        W67009  23.301  15.694   7.593 -0.0782 -0.0777  0.0097
24072W        W67010  25.001  17.164   6.383 -0.0846 -0.3954 -0.0935
24073W        W67011  23.208  15.227   7.426 -0.1594  0.3171  0.2212
24074W        W67012  22.239  16.237   3.184  0.1472 -0.1604 -0.1168
24075W        W67013  24.184  14.090   5.571  0.0848 -0.1302  0.2646
24076W        W67014  20.375  17.754   3.124  0.0084  0.1898 -0.1287
24077W        W67015  24.462  14.639   5.811 -0.2823  0.1979  0.1127
24078W        W67016  23.707  15.521   7.450 -0.0163 -0.0686  0.0224
24079W        W67017  23.795  16.242   8.442  0.2305 -0.1125 -0.0859
24080W        W67018  23.807  15.738   7.923 -0.0804 -0.2387 -0.0503
24081W        W67019  24.546  15.929   5.478  0.2103 -0.0404  0.1660
24082W        W67020  24.849  15.148   5.261 -0.0851  0.0405  0.2612
24083W        W67021  21.960  14.862   3.887 -0.3387 -0.0485  0.2100
24084W        W67022  22.448  14.934   6.384  0.0973  0.0044 -0.0238
24085W        W67023  21.184  16.311   6.341 -0.3767  0.4570  0.1842
24086W        W67024  21.419  16.458   4.155  0.1240  0.1346 -0.2473
24087W        W67025  25.458  16.232   7.355  0.0451  0.2338  0.0733
24088W        W67026  23.564  15.118   4.547 -0.0589 -0.1087  0.3405
24089W        W67027  23.361  15.035   8.335  0.0942  0.2338  0.1237
24090W        W67028  23.756  16.003   5.015 -0.1041  0.3151 -0.1016
24091W        W67029  21.654  17.325   3.716  0.1145 -0.0060 -0.1384
24092W        W67030  23.616  15.062   3.902  0.2323  0.1174  0.1410
24093W        W67031  22.750  13.898   5.550 -0.1060 -0.0963 -0.1897
24094W        W67032  23.574  16.769   6.112  0.1890 -0.1176 -0.1735
24095W        W67033  21.914  16.919   2.714  0.0236 -0.0200  0.2794
24096W        W67034  24.146  15.688   7.232  0.1547  0.3465  0.1059
24097W        W67035  22.195  16.488   3.598 -0.2190  0.0922 -0.2103
24098W        W67036  25.051  14.061   6.273 -0.4005  0.1896  0.4132
24099W        W67037  22.128  18.212   4.245 -0.1237 -0.0871 -0.2725
24100W        W67038  22.932  14.633   5.025 -0.1139 -0.2127  0.0745
24101W        W67039  22.317  16.097   4.193 -0.1208  0.3099  0.1474
24102W        W67040  25.145  15.262   4.162  0.1732 -0.2247 -0.2431
24103W        W67041  23.977  17.539   3.970 -0.1444  0.1689 -0.2190
24104W        W67042  22.758  15.464   5.853 -0.1193 -0.2026  0.4112
24105W        W67043  23.757  14.957   6.801 -0.0463 -0.0382  0.0983
24106W        W67044  21.753  17.256   5.356  0.0585 -0.2156 -0.1439
24107W        W67045  23.647  15.982   5.525  0.0123  0.1607  0.0492
24108W        W67046  23.423  14.838   3.547  0.0114  0.0662  0.1249
24109W        W67047  24.387  17.592   6.355 -0.1205  0.1832  0.2177
24110W        W67048  22.254  16.504   7.968  0.0141  0.1127  0.1096
24111W        W67049  22.467  15.618   5.225  0.1642  0.1151 -0.0640
24112W        W67050  24.476  15.729   6.804  0.1963 -0.2047 -0.0842
24113W        W67051  23.921  17.444   5.540  0.0902  0.0940 -0.2087
24114W        W67052  22.590  17.471   3.921 -0.0182  0.5608  0.1035
24115W        W67053  24.797  17.402   5.840  0.1814 -0.1360  0.0357
24116W        W67054  23.208  15.174   4.202  0.3394  0.0711 -0.0744
24117W        W67055  23.707  17.611   4.674  0.2826 -0.1003 -0.2553
24118W        W67056  21.931  14.775   6.748 -0.0214 -0.0440 -0.1639
24119W        W67057  23.453  14.643   6.589  0.0152 -0.3147  0.1846
24120W        W67058  23.120  15.806   6.188  0.3939  0.2151 -0.1236
24121W        W67059  23.341  13.949   4.450  0.1786  0.0882 -0.0828
24122W        W67060  23.110  15.396   5.557  0.3052  0.0111 -0.2319
24123W        W67061  24.170  16.086   5.797  0.1871 -0.2346  0.1267
24124W        W67062  23.563  15.368   6.985  0.0138 -0.2322 -0.1304
24125W        W67063  21.630  17.626   5.743 -0.2418  0.0236  0.0748
24126W        W67064  23.776  13.631   6.707 -0.2398 -0.0253  0.3202
24127W        W67065  25.824  18.205   3.430 -0.0028  0.0469  0.0897
24128W        W67066  23.662  15.805   8.553 -0.0411 -0.0592 -0.1437
24129W        W67067  22.920  15.682   5.013 -0.0071  0.1686  0.1782
24130W        W67068  21.779  17.261   4.192  0.3118  0.0114  0.1334
24131W        W67069  23.244  16.953   2.969 -0.0536 -0.0193  0.2360
24132W        W67070  23.124  15.637   7.075 -0.2235  0.2866  0.0214
24133W        W67071  23.537  17.248   5.313 -0.1116 -0.2321  0.1372
24134W        W67072  22.314  17.339   3.479  0.0811 -0.0031 -0.1438
24135W        W67073  23.271  17.195   4.487 -0.2617 -0.2856  0.1659
24136W        W67074  24.588  14.241   4.228 -0.2931  0.1100 -0.1499
24137W        W67075  22.764  17.685   1.136  0.1351  0.1359 -0.3081
24138W        W67076  23.817  15.059   4.980 -0.0963  0.0918 -0.1477
24139W        W67077  25.368  15.223   6.803 -0.1474 -0.2714 -0.3997
24140W        W67078  23.723  15.796   2.459 -0.0169  0.0473 -0.0005
24141W        W67079  26.060  13.026   5.860 -0.0659 -0.2938 -0.1013
24142W        W67080  21.570  13.850   5.446  0.0279  0.0269  0.2480
24143W        W67081  24.686  16.301   5.115 -0.1254 -0.2209 -0.1336
24144W        W67082  21.861  17.627   6.831  0.0044 -0.0954  0.0371
24145W        W67083  23.949  18.906   7.866  0.2590 -0.3891 -0.0072
24146W        W67084  21.580  15.829   6.354 -0.0501  0.0638  0.2869
24147W        W67085  25.219  14.950   5.502 -0.1801 -0.4538  0.0680
24148W        W67086  22.629  12.378   3.260 -0.1557  0.3539 -0.2063
24149W        W67087  23.219  16.130   5.811  0.0595 -0.0670  0.0633
24150W        W67088  25.099  17.811   7.905 -0.1541  0.3813  0.3179
24151W        W67089  23.263  16.442   2.919 -0.0570  0.1300  0.4138
24152W        W67090  25.237  15.478   5.246  0.1516 -0.2602 -0.1761
24153W        W67091  22.314  16.302   6.339 -0.1614 -0.3515 -0.1046
24154W        W67092  24.211  15.376   5.012  0.1344 -0.0440 -0.2713
24155W        W67093  23.722  16.601   2.963  0.0592 -0.1743  0.0945
24156W        W67094  22.665  17.242   5.138 -0.1313  0.0621 -0.2237
24157W        W67095  24.151  14.709   7.114  0.0818 -0.3005  0.0784
24158W        W67096  24.142  17.073   4.690  0.0991  0.0629  0.0911
24159W        W67097  23.681  14.223   5.256  0.0049 -0.0042  0.1583
24160W        W67098  24.876  13.589   6.014  0.1101  0.4382  0.0874
24161W        W67099  24.185  14.821   6.340 -0.1991 -0.0575  0.1100
24162W        W67100  22.366  15.642   6.752 -0.2316 -0.2352  0.0935
24163W        W67101  21.348  14.847   5.417  0.0214  0.0696 -0.0180
24164W        W67102  24.135  18.028   5.592 -0.1082  0.2278  0.0419
24165W        W67103  23.723  16.145   4.124  0.1483  0.1258  0.1122
24166W        W67104  24.953  15.366   6.947 -0.1321 -0.3274 -0.0813
24167W        W67105  23.601  14.682   4.728  0.2439  0.2754 -0.2036
24168W        W67106  23.115  14.894   5.452 -0.1967  0.0235 -0.2946
24169W        W67107  22.638  16.448   5.934  0.0644  0.1698  0.0439
24170W        W67108  24.854  16.197   6.444  0.0490 -0.2249  0.1305
24171W        W67109  23.626  14.066   1.363  0.0560 -0.0252 -0.2479
24172W        W67110  23.509  13.826   8.278 -0.0797  0.1402  0.0390
24173W        W67111  23.268  17.886   4.564  0.0329 -0.0728  0.0196
24174W        W67112  24.758  17.713   4.100  0.0579 -0.0183 -0.0290
24175W        W67113  24.488  15.602   4.664  0.2458  0.2048 -0.0628
24176W        W67114  22.726  15.920   5.570 -0.0325 -0.1009 -0.1800
24177W        W67115  22.849  17.252   6.494  0.3859 -0.1660  0.0338
24178W        W67116  21.863  15.346   2.536 -0.0145  0.2213 -0.0663
24179W        W67117  23.267  16.241   4.086  0.0141 -0.3374 -0.2630
24180W        W67118  22.932  16.268   6.327  0.1441 -0.0848  0.0306
24181W        W67119  25.669  15.072   6.154 -0.0138 -0.1151  0.2528
24182W        W67120  23.349  14.653   3.026  0.2133  0.0655  0.0629
24183W        W67121  24.614  16.097   8.049 -0.0237  0.0369 -0.0345
24184W        W67122  22.971  17.567   4.286  0.2462  0.0101  0.5743
24185W        W67123  24.318  14.015   4.648 -0.1189  0.0082  0.2937
24186W        W67124  22.573  16.576   5.066  0.2256  0.2057 -0.2934
24187W        W67125  22.636  17.718   5.397  0.1798  0.1895 -0.1139
24188W        W67126  22.345  17.783   4.976 -0.0853  0.1630  0.0728
24189W        W67127  23.759  15.111   6.137 -0.0553 -0.0551  0.0953
24190W        W67128  24.230  15.068   5.906  0.2969 -0.1223 -0.0200
24191W        W67129  24.254  16.195   6.642 -0.0523  0.0910 -0.1198
24192W        W67130  24.665  15.351   6.551 -0.1005  0.0573  0.1521
24193W        W67131  24.434  16.405   6.068 -0.2835 -0.0862  0.0785
24194W        W67132  22.060  16.724   5.016 -0.2480  0.2779 -0.0484
24195W        W67133  25.070  16.207   7.025 -0.1000 -0.0681 -0.1893
24196W        W67134  24.195  16.299   4.138 -0.0322  0.2304  0.3947
24197W        W67135  22.232  17.121   5.427  0.5756  0.0410  0.0628
24198W        W67136  21.754  15.161   7.071 -0.0963 -0.0285 -0.1133
24199W        W67137  22.261  15.087   7.105 -0.2824 -0.1234 -0.2806
24200W        W67138  23.257  16.781   5.496 -0.0800  0.1808 -0.1641
24201W        W67139  22.456  14.769   3.695 -0.2081  0.1075  0.1128
24202W        W67140  23.977  17.426   3.381  0.0948  0.0085  0.1485
24203W        W67141  21.023  16.586   8.249  0.0637  0.0270  0.1198
24204W        W67142  22.555  16.821   6.356  0.0494  0.1380  0.2090
24205W        W67143  22.820  17.012   4.652  0.2139  0.0504 -0.1377
24206W        W67144  24.176  17.656   2.991  0.2099 -0.0476  0.0310
24207W        W67145  23.142  17.055   3.485  0.1638 -0.0499 -0.3324
24208W        W67146  23.913  18.435   5.073  0.0592  0.0612  0.2964
24209W        W67147  22.158  16.066   6.812  0.2638  0.1630  0.1456
24210W        W67148  21.367  18.252   3.968  0.0886  0.1952  0.0514
24211W        W67149  22.166  17.063   3.889 -0.1960 -0.4694 -0.0362
24212W        W67150  24.547  17.550   5.432  0.3910 -0.2538 -0.1914
24213W        W67151  22.159  18.122   5.270 -0.0226 -0.1757  0.0351
24214W        W67152  24.142  17.444   7.621 -0.0489 -0.0399 -0.0803
24215W        W67153  24.239  15.231   2.619 -0.0257 -0.1709  0.0247
24216W        W67154  25.896  17.292   4.670 -0.2328 -0.1617 -0.1254
24217W        W67155  24.520  14.741   3.613 -0.2051 -0.3054 -0.0039
24218W        W67156  24.605  17.621   8.056 -0.3312 -0.1679 -0.1111
24219W        W67157  23.330  17.170   5.756  0.2709 -0.1459  0.0262
24220W        W67158  23.799  14.228   4.748 -0.0189 -0.1387  0.1212
24221W        W67159  21.359  15.756   7.187 -0.0798  0.1052  0.2692
24222W        W67160  24.870  14.387   6.661  0.2583  0.3094  0.2373
24223W        W67161  23.945  17.938   8.522  0.1048 -0.2672  0.0191
24224W        W67162  23.701  17.167   3.729  0.0139  0.2451  0.1034
24225W        W67163  23.344  15.560   4.637  0.3505  0.2406 -0.1346
24226W        W67164  23.078  17.976   5.471 -0.1028  0.1309 -0.2573
24227W        W67165  26.399  15.289   5.231 -0.0012 -0.3127 -0.0932
24228W        W67166  23.478  16.686   3.474 -0.0490 -0.0576 -0.0739
24229W        W67167  23.964  15.568   5.850 -0.2157  0.1062 -0.0496
24230W        W67168  22.001  17.983   4.654 -0.1095 -0.1501 -0.1948
24231W        W67169  23.335  18.129   5.880 -0.2579 -0.2003  0.0458
24232W        W67170  22.332  17.957   5.846  0.1260  0.0484 -0.0235
24233W        W67171  22.611  14.482   6.214 -0.0829 -0.0124  0.0508
24234W        W67172  24.945  15.573   5.631 -0.1964 -0.0113 -0.0442
24235W        W67173  22.139  15.685   5.747  0.2133 -0.1423  0.1108
24236W        W67174  25.059  15.315   6.034 -0.1309  0.0568  0.0690
24237W        W67175  22.877  17.063   6.035  0.0967 -0.0533 -0.2276
24238W        W67176  23.903  13.851   5.010 -0.1037 -0.3077 -0.1652
24239W        W67177  23.897  16.741   8.363 -0.2350  0.2240 -0.0111
24240W        W67178  23.341  15.134   6.465 -0.1136 -0.3704  0.0005
24241W        W67179  22.695  16.097   5.094 -0.0833 -0.1680  0.0099
24242W        W67180  26.477  16.214   8.376 -0.1076  0.1565 -0.1575
24243W        W67181  22.980  15.992   2.793 -0.0103  0.1413 -0.0143
24244W        W67182  24.091  17.985   6.347  0.0097  0.3943  0.1020
24245W        W67183  21.704  15.123   5.714 -0.0597 -0.0585 -0.3314
24246W        W67184  23.330  15.136   2.360 -0.0230 -0.0482  0.0623
24247W        W67185  22.194  16.225   5.199 -0.2124 -0.0348  0.0317
24248W        W67186  23.719  16.083   6.559 -0.0701 -0.0074  0.0635
24249W        W67187  24.773  16.695   7.729  0.2243 -0.3636 -0.0870
24250W        W67188  22.250  14.389   3.917  0.2700 -0.1579  0.0251
24251W        W67189  24.311  17.101   2.595 -0.2779 -0.0450  0.1802
24252W        W67190  24.499  15.480   6.000 -0.0260  0.2398 -0.2352
24253W        W67191  22.433  18.147   2.338 -0.1290 -0.1804 -0.1604
24254W        W67192  23.840  16.528   4.407 -0.0040  0.0503 -0.2792
24255W        W67193  25.142  18.297   4.514 -0.2489 -0.0272 -0.2729
24256W        W67194  22.348  16.597   5.501 -0.1781 -0.0582 -0.0109
24257W        W67195  25.492  16.808   5.497  0.0708 -0.2394  0.2752
24258W        W67196  25.099  17.057   7.883  0.3997  0.2176  0.4184
24259W        W67197  24.572  14.522   4.669  0.2821  0.1952  0.4583
24260W        W67198  23.444  15.639   5.807  0.2875 -0.1484  0.0066
24261W        W67199  23.063  18.327   4.405 -0.4066  0.0605  0.2190
24262W        W67200  24.466  14.802   5.367  0.1047 -0.0612 -0.0421
24263W        W67201  24.511  15.907   7.520 -0.2564 -0.0051 -0.1905
24264W        W67202  24.074  17.875   3.470 -0.3729  0.1443  0.1567
24265W        W67203  24.520  14.798   6.677  0.1356  0.1494  0.3834
24266W        W67204  23.755  16.912   5.633  0.0148  0.0861 -0.1425
24267W        W67205  22.841  15.906   7.518 -0.4470 -0.2019  0.4604
24268W        W67206  22.710  16.387   2.863  0.1368  0.0149  0.1729
24269W        W67207  23.367  16.668   6.811  0.0732 -0.1856 -0.1169
24270W        W67208  23.047  18.724   4.770 -0.1335 -0.1276  0.1350
24271W        W67209  24.045  17.457   4.991  0.2339  0.0585 -0.0650
24272W        W67210  24.986  17.284   4.789  0.0817 -0.0078 -0.1130
24273W        W67211  24.423  16.726   4.985  0.1015 -0.1543 -0.2816
24274W        W67212  24.997  16.834   5.052  0.1455 -0.2447 -0.2717
24275W        W67213  23.522  14.305   6.197  0.1607  0.0780  0.1257
24276W        W67214  24.920  14.559   5.662 -0.1105  0.3162 -0.3736
24277W        W67215  23.239  14.963   6.971 -0.2106  0.1111  0.2265
24278W        W67216  22.940  15.424   7.747 -0.1192  0.3187  0.1383
24279W        W67217  20.767  16.952   3.422  0.3644  0.3592  0.0469
24280W        W67218  23.573  16.722   3.995 -0.1535 -0.0413 -0.0005
24281W        W67219  22.511  17.412   5.805 -0.0843 -0.1889 -0.0719
24282W        W67220  23.337  16.138   7.780  0.0707 -0.2115  0.0610
24283W        W67221  21.963  14.747   7.247 -0.1009 -0.1213  0.0758
24284W        W67222  22.309  16.144   5.672 -0.0472 -0.1368 -0.2453
24285W        W67223  22.805  14.727   4.141  0.0308  0.3794 -0.3269
24286W        W67224  23.589  16.247   3.356  0.0532 -0.3098 -0.0349
24287W        W67225  21.657  15.662   4.786  0.0467 -0.2040 -0.0544
24288W        W67226  21.396  14.190   5.976  0.0808 -0.1946  0.3467
24289W        W67227  24.985  16.631   4.575  0.2318 -0.1079 -0.1416
24290W        W67228  24.628  18.062   4.543 -0.2023  0.1524  0.1403
24291W        W67229  23.317  15.139   5.948  0.0009  0.0983  0.2158
24292W        W67230  24.534  17.215   4.980 -0.1950  0.0700 -0.1857
24293W        W67231  21.435  16.638   3.001 -0.0420  0.2813  0.1639
24294W        W67232  22.741  16.710   7.244  0.2117 -0.1634  0.0099
24295W        W67233  23.484  14.146   7.535  0.0562  0.1521  0.0002
24296W        W67234  22.866  14.268   2.917  0.1547  0.3866  0.0295
24297W        W67235  23.616  16.012   6.056 -0.1734  0.0663 -0.2254
24298W        W67236  23.798  17.129   4.319  0.0185 -0.2313 -0.2483
24299W        W67237  24.167  17.973   4.669 -0.0856  0.1130  0.1589
24300W        W67238  23.195  15.987   5.346 -0.1179  0.2331  0.2007
24301W        W67239  24.323  16.676   6.477 -0.2345  0.1543  0.2046
24302W        W67240  21.374  16.810   6.445  0.0780 -0.2458 -0.3088
24303W        W67241  24.096  15.962   4.502 -0.0234  0.2852  0.2647
24304W        W67242  22.035  17.198   6.626  0.0537 -0.1296  0.1618
24305W        W67243  24.477  16.370   4.654 -0.1578 -0.2835  0.2439
24306W        W67244  25.996  16.111   5.607  0.0124  0.0566 -0.2892
24307W        W67245  23.511  15.777   3.758 -0.0223  0.2340 -0.0983
24308W        W67246  21.119  15.630   5.578  0.2062  0.1134  0.0891
24309W        W67247  22.697  16.432   8.266  0.1174  0.0221  0.0777
24310W        W67248  25.093  15.903   6.106 -0.0742 -0.3485 -0.0942
24311W        W67249  22.427  14.408   4.430 -0.0698  0.0672  0.1080
24312W        W67250  23.511  14.680   4.210 -0.1138 -0.0499  0.2098
24313W        W67251  24.555  15.983   4.355 -0.0511 -0.1366 -0.0038
24314W        W67252  23.390  16.371   6.299  0.1196  0.3045 -0.3470
24315W        W67253  24.865  14.507   6.143 -0.0640  0.2036  0.2775
24316W        W67254  24.196  15.076   7.423  0.1453 -0.0909 -0.1769
24317W        W67255  24.711  16.555   6.773  0.0586  0.0145  0.1494
24318W        W67256  24.574  16.124   7.099 -0.2049  0.2275  0.2041
24319W        W67257  22.375  16.715   4.646  0.0900 -0.0287  0.1843
24320W        W67258  24.990  16.608   3.324  0.3259  0.1089  0.1255
24321W        W67259  24.533  17.844   5.958  0.2373 -0.1017  0.0225
24322W        W67260  25.929  16.916   7.323  0.1556  0.0915  0.1778
24323W        W67261  24.934  17.702   6.251  0.1419 -0.1795 -0.1384
24324W        W67262  25.109  16.049   5.379  0.0920  0.0771 -0.1646
24325W        W67263  21.972  15.170   5.233  0.0507 -0.2401 -0.0565
24326W        W67264  23.616  16.407   5.760 -0.3615 -0.3055 -0.2099
24327W        W67265  23.149  16.184   4.916 -0.2242  0.0142 -0.2092
24328W        W67266  23.388  14.568   8.271 -0.0732 -0.2772 -0.1111
24329W        W67267  21.742  14.606   5.752  0.2241  0.0599 -0.2209
24330W        W67268  24.041  14.953   4.101 -0.2249 -0.1167  0.2525
24331W        W67269  23.728  18.347   6.295 -0.5012  0.0631 -0.3776
24332W        W67270  23.481  14.686   5.264  0.2155 -0.0038  0.1175
24333W        W67271  24.638  15.887   9.030 -0.0678  0.1743  0.0343
24334W        W67272  21.483  15.462   7.575 -0.1906 -0.0491 -0.1354
24335W        W67273  24.918  14.451   7.320  0.2057  0.0222  0.2855
24336W        W67274  24.568  15.917   8.535  0.0513 -0.0896 -0.2386
24337W        W67275  22.336  13.499   9.370 -0.2382  0.2958 -0.3498
24338W        W67276  23.680  17.796   9.420  0.1801 -0.0843 -0.0490
24339W        W67277  25.233  18.753  10.656  0.0226 -0.1192  0.0080
24340W        W67278  25.817  17.860   9.299 -0.0510 -0.3075 -0.1803
24341W        W67279  23.189  16.071   6.721  0.1282 -0.2282 -0.1939
24342W        W67280  20.659  12.638   9.640 -0.1350  0.2083  0.1171
24343W        W67281  22.822  14.262   6.935  0.3702  0.2330  0.1315
24344W        W67282  22.377  14.354  10.045 -0.0189  0.2432  0.0418
24345W        W67283  23.663  17.393   9.858  0.1790 -0.2573  0.1076
24346W        W67284  21.578  15.968   7.580 -0.1977 -0.0493  0.0265
24347W        W67285  22.753  12.447   9.999 -0.0179  0.1358 -0.0385
24348W        W67286  22.497  15.156   8.012  0.3801 -0.2550 -0.0879
24349W        W67287  22.597  16.946   8.424  0.0070 -0.0063  0.0988
24350W        W67288  22.981  15.641   9.779  0.1991  0.0480 -0.2119
24351W        W67289  23.456  17.415   8.875 -0.3011 -0.0148 -0.0164
24352W        W67290  21.624  15.173   6.543  0.0846 -0.0407 -0.2086
24353W        W67291  21.066  15.984   9.017 -0.0464  0.1053 -0.2919
24354W        W67292  25.845  18.875   9.131  0.0730  0.3621 -0.1100
24355W        W67293  23.138  14.623   9.860  0.2090  0.0715 -0.2201
24356W        W67294  24.054  16.618   8.883  0.3092 -0.0040  0.3886
24357W        W67295  22.506  17.259   8.797  0.2412 -0.1668 -0.2327
24358W        W67296  24.201  17.079   8.864  0.0731 -0.1583 -0.1172
24359W        W67297  21.909  16.657  11.458 -0.1729 -0.0300  0.3824
24360W        W67298  22.592  18.102   6.833 -0.1825 -0.0382 -0.0542
24361W        W67299  22.279  17.797   8.182 -0.2493  0.0868  0.0402
24362W        W67300  24.595  15.372   8.578  0.3241  0.1699  0.0183
24363W        W67301  21.861  16.966   7.645 -0.0741  0.2523 -0.0437
24364W        W67302  22.598  15.592   8.232 -0.1193 -0.2148  0.0999
24365W        W67303  23.721  17.302   9.322  0.2571 -0.0026 -0.0674
24366W        W67304  23.368  16.589   7.534  0.1695  0.1333  0.2206
24367W        W67305  22.035  16.187   9.051 -0.3742 -0.1286 -0.1985
24368W        W67306  21.043  16.839   8.887  0.4754  0.2334 -0.0896
24369W        W67307  23.224  17.570   8.222 -0.0463  0.0881 -0.0821
24370W        W67308  24.151  14.582   8.626  0.3885  0.0073 -0.0623
24371W        W67309  23.525  14.660   7.696  0.0926  0.1557 -0.0959
24372W        W67310  25.109  15.329   7.423 -0.3060  0.3287  0.1653
24373W        W67311  23.028  16.061   9.351  0.2598  0.3344 -0.0627
24374W        W67312  21.407  19.022   9.356  0.0747 -0.0326 -0.0856
24375W        W67313  22.259  14.798   8.293  0.1342  0.1321  0.0092
24376W        W67314  22.791  15.104   8.873 -0.2996 -0.0120 -0.1581
24377W        W67315  24.216  15.217   8.940 -0.0866  0.2247  0.2577
24378W        W67316  25.484  16.956   9.636  0.0357  0.2584  0.1026
24379W        W67317  21.946  15.683   7.784  0.3636 -0.2841  0.0030
24380W        W67318  24.992  18.645   8.109 -0.2885  0.1554 -0.0063
24381W        W67319  25.456  16.903   8.887 -0.1742 -0.2578  0.1061
24382W        W67320  23.615  17.550   7.843  0.1167 -0.0328  0.0387
24383W        W67321  22.882  15.960   7.999  0.1369  0.3324 -0.3360
24384W        W67322  22.456  13.579   5.903 -0.1480  0.0657 -0.1478
24385W        W67323  25.640  14.525   9.086 -0.0281 -0.1328 -0.2398
24386W        W67324  22.868  15.580   8.860  0.3785  0.0434  0.1991
24387W        W67325  25.563  17.048  10.094 -0.0902 -0.0065 -0.1423
24388W        W67326  25.090  16.034   8.505 -0.0955  0.1355  0.3287
24389W        W67327  22.223  14.873   9.808 -0.2701 -0.0783  0.2789
24390W        W67328  26.835  18.647  12.181  0.3723  0.1701 -0.0502
24391W        W67329  21.987  16.343   7.537  0.2652  0.0193  0.0911
24392W        W67330  23.912  16.217   7.975 -0.3390 -0.1353  0.0341
24393W        W67331  27.725  19.219   9.829 -0.1085 -0.2187 -0.4345
24394W        W67332  23.856  15.120   7.790 -0.1826 -0.2394 -0.2410
24395W        W67333  22.134  17.269  10.259 -0.0585 -0.0007  0.1086
24396W        W67334  21.707  17.857   7.694 -0.0087 -0.0176 -0.2771
24397W        W67335  22.041  17.116   9.103  0.1884  0.1471 -0.2742
24398W        W67336  23.157  16.445   8.968 -0.0056  0.1554  0.3297
24399W        W67337  19.855  13.867   9.470  0.2203 -0.1465  0.1187
24400W        W67338  23.374  17.069  10.082  0.0320 -0.1325 -0.0821
24401W        W67339  24.273  14.897   7.946  0.2330  0.1629  0.2931
24402W        W67340  24.757  14.676   7.885  0.0965  0.1344 -0.0829
24403W        W67341  22.929  17.176   7.492  0.1344 -0.2164  0.3941
24404W        W67342  25.185  17.894   8.814  0.0381 -0.0646  0.2795
24405W        W67343  24.097  15.847   8.333 -0.1648  0.1372 -0.0959
24406W        W67344  24.273  17.194   6.606  0.2448  0.1538 -0.1244
24407W        W67345  21.900  14.311  10.206  0.1499 -0.0987  0.1013
24408W        W67346  23.054  14.998   7.895  0.1257  0.0852 -0.0874
24409W        W67347  23.422  14.226   9.989 -0.3228 -0.1299 -0.0601
24410W        W67348  21.677  14.154   9.085  0.1186  0.0755 -0.1798
24411W        W67349  23.400  16.811   9.650 -0.0141 -0.1019 -0.1255
24412W        W67350  23.185  15.988   8.714  0.1105 -0.0871 -0.0471
24413W        W67351  20.627  15.137   8.560  0.0503 -0.0711  0.0322
24414W        W67352  24.011  17.545   8.746  0.2494 -0.1365  0.1767
24415W        W67353  26.204  16.583   9.891  0.0234  0.0518  0.0887
24416W        W67354  24.317  17.489   9.155 -0.1927 -0.2177  0.3776
24417W        W67355  20.886  14.540   9.893  0.3854 -0.0220  0.1555
24418W        W67356  23.119  14.702   7.402  0.1070  0.0096  0.0117
24419W        W67357  21.131  17.242   9.148  0.0497 -0.0661  0.1709
24420W        W67358  24.535  16.881   8.584  0.0249  0.1845  0.1950
24421W        W67359  22.329  14.819   7.639 -0.2103 -0.2504  0.1562
24422W        W67360  25.231  18.938   8.749 -0.0812 -0.0368 -0.1127
24423W        W67361  22.692  16.021   8.509  0.4156  0.1167  0.0010
24424W        W67362  26.935  17.067  11.089  0.1201  0.0940  0.1059
24425W        W67363  24.065  16.486   9.443 -0.1594 -0.0349 -0.0995
24426W        W67364  23.096  14.656   8.799 -0.1114 -0.1588  0.2110
24427W        W67365  24.095  18.450   8.444  0.0652  0.3259  0.1913
24428W        W67366  22.276  16.784   8.814  0.0562 -0.0469 -0.0970
24429W        W67367  21.108  15.288   7.286 -0.1983  0.1174 -0.5584
24430W        W67368  23.435  17.855   8.605 -0.0724  0.1122  0.1987
24431W        W67369  26.584  15.127   9.358  0.0678 -0.0706 -0.1307
24432W        W67370  22.732  15.975   7.017 -0.1070 -0.0974 -0.2982
24433W        W67371  25.180  13.750   8.887  0.2352  0.2393  0.2274
24434W        W67372  25.893  14.328   7.198 -0.0292 -0.1789  0.2391
24435W        W67373  24.531  17.470   8.643 -0.0677 -0.2345  0.0141
24436W        W67374  23.639  16.235   9.075  0.3096  0.2386 -0.0017
24437W        W67375  23.790  14.118   9.050  0.1493 -0.0611  0.1480
24438W        W67376  22.236  19.727  10.646 -0.2120 -0.0439  0.0060
24439W        W67377  22.616  16.380   8.868  0.2977  0.2798 -0.2600
24440W        W67378  22.458  16.254   7.386 -0.0863  0.1009 -0.1583
24441W        W67379  25.475  15.651   8.010 -0.0433  0.2437 -0.2102
24442W        W67380  22.504  18.827  10.639  0.0718  0.0555 -0.1456
24443W        W67381  24.406  18.240   9.727  0.3918  0.1907  0.0479
24444W        W67382  21.975  15.764   9.333 -0.2418 -0.1908 -0.2314
24445W        W67383  22.403  16.525   6.893  0.1740  0.2608  0.3148
24446W        W67384  22.620  14.212   8.944 -0.0372  0.3872 -0.0541
24447W        W67385  21.973  17.524   7.411 -0.2175 -0.0066 -0.3428
24448W        W67386  23.050  17.451  10.073 -0.0727  0.1476  0.0681
24449W        W67387  24.654  15.360   9.075  0.1182  0.1916 -0.0618
24450W        W67388  24.709  16.565   8.259  0.0992 -0.0721 -0.0752
24451W        W67389  23.304  16.932   9.010  0.0215 -0.0516 -0.0604
24452W        W67390  21.378  14.837   7.096 -0.0849  0.2937 -0.1073
24453W        W67391  25.069  17.272   9.891  0.2934 -0.1097 -0.0537
24454W        W67392  22.522  16.098   9.243  0.1455 -0.0764 -0.0351
24455W        W67393  23.719  17.010   8.731  0.1759 -0.2246 -0.0190
24456W        W67394  24.919  14.204   8.031 -0.2429 -0.1567  0.0680
24457W        W67395  21.657  17.669   8.180 -0.1210 -0.1695  0.0271
24458W        W67396  23.324  17.107   6.302  0.3665 -0.4060 -0.0272
24459W        W67397  23.008  15.153   9.767  0.3456 -0.1978  0.0103
24460W        W67398  24.588  17.627   9.536  0.1695 -0.0562  0.2258
24461W        W67399  22.301  17.807   7.094 -0.0117 -0.1180 -0.0588
24462W        W67400  25.165  16.725  10.141 -0.1693 -0.0005 -0.1647
24463W        W67401  21.311  17.239   8.586  0.2364  0.0038  0.2404
24464W        W67402  23.884  14.731   9.207 -0.0200  0.2136 -0.1794
24465W        W67403  21.284  17.616   9.530  0.0294  0.0258  0.2055
24466W        W67404  22.048  15.264   8.275 -0.2129 -0.1802  0.0577
24467W        W67405  21.481  14.978   7.596  0.2530  0.2478 -0.3253
24468W        W67406  23.632  14.607   8.767 -0.2205  0.5604 -0.2506
24469W        W67407  25.906  15.923   7.147  0.0343  0.1276  0.3357
24470W        W67408  21.643  13.604   9.167  0.3124 -0.1098  0.0110
24471W        W67409  22.335  12.987   9.514  0.5506  0.0301  0.2421
24472W        W67410  22.109  16.200   9.571 -0.1137 -0.1136 -0.3890
24473W        W67411  24.915  15.727   7.299  0.0263  0.2522  0.4181
24474W        W67412  22.410  14.536   7.210 -0.1965  0.0277 -0.2817
24475W        W67413  25.833  14.149  10.025  0.1568 -0.0954  0.2022
24476W        W67414  22.369  15.845   8.784 -0.0464 -0.0866 -0.1840
24477W        W67415  22.102  15.869   7.262  0.1947 -0.2658 -0.1330
24478W        W67416  24.244  17.991   9.328 -0.0963  0.2357 -0.3102
24479W        W67417  23.579  16.587   7.974  0.2634 -0.0788  0.1690
24480W        W67418  20.938  17.267   7.719 -0.1359 -0.2477 -0.2083
24481W        W67419  24.747  18.088   8.667  0.1028 -0.3295 -0.2696
24482W        W67420  22.391  14.369   9.342  0.1674  0.0248 -0.2956
24483W        W67421  21.835  14.809   7.908  0.1642 -0.0320  0.1005
24484W        W67422  23.524  15.660   9.711 -0.0111 -0.1754  0.1520
24485W        W67423  24.769  18.527   9.453 -0.0715 -0.0461  0.3563
24486W        W67424  21.624  16.241   9.351 -0.3895  0.3659 -0.2846
24487W        W67425  22.819  14.104  10.303 -0.3217 -0.4427  0.0896
24488W        W67426  26.271  16.990   7.738 -0.0358 -0.0582  0.0182
24489W        W67427  22.190  17.054   8.134  0.0259 -0.0110 -0.0884
24490W        W67428  21.321  18.072   9.747  0.1155  0.0495 -0.4627
24491W        W67429  22.923  17.146   8.031  0.1057 -0.2746 -0.3104
24492W        W67430  23.914  12.163  10.029 -0.2264 -0.0128  0.2359
24493W        W67431  22.972  17.315   9.063 -0.1431  0.3542 -0.1442
24494W        W67432  22.939  16.940   6.885  0.0684 -0.3860  0.0228
24495W        W67433  22.877  18.576  10.338 -0.0005  0.1304 -0.1126
24496W        W67434  24.917  13.666   9.291  0.2555 -0.0021  0.2523
24497W        W67435  24.600  16.646   7.242  0.3354  0.4125  0.2010
24498W        W67436  23.508  15.054   9.928 -0.3004 -0.1545 -0.0614
24499W        W67437  25.445  17.015   7.394  0.2995  0.0234 -0.3334
24500W        W67438  22.317  14.305   8.284 -0.0543 -0.0880  0.0413
24501W        W67439  25.264  18.514   9.535  0.0894  0.4125  0.0499
24502W        W67440  22.983  15.262   8.476 -0.3148  0.1042  0.1894
24503W        W67441  21.567  14.476   7.375  0.1258  0.2045  0.1866
24504W        W67442  23.327  14.568  10.403 -0.0449  0.1348 -0.2762
24505W        W67443  25.122  16.147   9.542 -0.0285 -0.2805  0.0616
24506W        W67444  22.637  16.918   9.169  0.1321 -0.0264  0.1612
24507W        W67445  25.097  17.686   9.595  0.0881 -0.0894 -0.1029
24508W        W67446  22.832  17.619   9.646  0.1327 -0.1892  0.0116
24509W        W67447  25.641  14.996   9.265  0.0421 -0.2113  0.1419
24510W        W67448  24.154  16.189   9.069  0.0550 -0.0552  0.0810
24511W        W67449  21.998  16.944   9.602 -0.1868  0.2727 -0.0603
24512W        W67450  24.625  16.382   8.701  0.2008  0.0071 -0.6545
24513W        W67451  24.890  14.162   9.688 -0.2487 -0.0547  0.0292
24514W        W67452  29.678  17.516   8.909  0.0040  0.1052  0.1778
24515W        W67453  25.363  15.746   7.034 -0.1338 -0.0090  0.2133
24516W        W67454  24.706  16.866  10.129  0.0928 -0.0871  0.0356
24517W        W67455  25.042  16.219   8.992 -0.2529 -0.1650  0.3366
24518W        W67456  23.761  15.042   8.708 -0.2628 -0.0190 -0.0314
24519W        W67457  21.585  15.553   8.396  0.4298 -0.0279  0.0274
24520W        W67458  23.354  15.767   8.181 -0.2081 -0.2626  0.1444
24521W        W67459  24.220  15.464   7.742  0.1911 -0.4247 -0.0318
24522W        W67460  24.625  17.108   9.123 -0.2840 -0.1632  0.1800
24523W        W67461  24.802  14.361   9.198 -0.0690  0.0843  0.2093
24524W        W67462  21.605  16.628   9.737  0.0738 -0.2115 -0.0611
24525W        W67463  24.409  13.851   7.939  0.0347  0.0557 -0.1104
24526W        W67464  22.680  15.506   7.214 -0.0929 -0.0661 -0.3765
24527W        W67465  23.581  18.906  10.635 -0.2164  0.0377  0.5319
24528W        W67466  23.625  14.257   7.985 -0.1407  0.0307 -0.1610
24529W        W67467  20.873  17.086   8.421  0.1649 -0.3935 -0.0306
24530W        W67468  23.337  15.081   8.980 -0.1538  0.3069  0.1275
24531W        W67469  22.930  18.661   8.636 -0.2757 -0.0202  0.3916
24532W        W67470  23.386  18.455  10.393 -0.1093  0.1841 -0.0824
24533W        W67471  20.384  13.774   9.551  0.1163  0.1195 -0.1065
24534W        W67472  26.444  15.540  10.265 -0.0286  0.2653  0.0830
24535W        W67473  24.733  17.704  10.030  0.2039  0.1694  0.0374
24536W        W67474  23.709  16.835   9.260  0.2432 -0.2483 -0.4113
24537W        W67475  25.679  16.564  10.062 -0.0939  0.2491  0.3577
24538W        W67476  21.623  17.501   9.078  0.0924 -0.0303 -0.0151
24539W        W67477  24.195  17.020   9.431  0.3019  0.1744 -0.0922
24540W        W67478  22.761  13.698   7.685 -0.0245  0.4096 -0.1412
24541W        W67479  23.887  16.566   7.613  0.2049  0.1356  0.2620
24542W        W67480  21.588  15.248   8.789  0.0078 -0.1359  0.0497
24543W        W67481  21.846  17.793   8.633 -0.1973 -0.4622  0.1678
24544W        W67482  24.961  16.707   8.971 -0.2513 -0.1911 -0.3010
24545W        W67483  24.255  16.370   8.359  0.0172 -0.0545 -0.0646
24546W        W67484  25.257  19.025   9.241 -0.2015  0.1075  0.1562
24547W        W67485  22.751  14.817   8.477  0.3686  0.1783 -0.0754
24548W        W67486  22.242  16.282   8.537  0.3117  0.1475  0.2843
24549W        W67487  21.441  16.271   8.228  0.2017 -0.2012  0.1198
24550W        W67488  25.324  15.760   7.581 -0.2869  0.0060  0.0253
24551W        W67489  22.526  17.628   9.233  0.1669 -0.0594 -0.0353
24552W        W67490  25.877  13.475   7.784  0.2551  0.1439  0.3532
24553W        W67491  25.171  16.575   8.049 -0.1253  0.0310 -0.1336
24554W        W67492  24.626  14.877   8.849  0.0319  0.1519  0.5056
24555W        W67493  22.635  16.235   9.744 -0.0283 -0.4853  0.2218
24556W        W67494  23.463  15.333   7.897  0.3216  0.0692  0.2158
24557W        W67495  25.752  16.842   8.523  0.2552  0.1448 -0.0096
24558W        W67496  21.944  14.296   7.759  0.2716 -0.1367  0.0059
24559W        W67497  22.528  17.361   7.822  0.0132  0.2495 -0.0275
24560W        W67498  25.644  14.785   9.815 -0.1695  0.1412  0.3086
24561W        W67499  23.696  16.581   7.147 -0.4310  0.3082 -0.1370
24562W        W67500  24.702  18.594   8.603  0.0332  0.3100 -0.1192
24563W        W67501  21.113  17.513   8.113  0.2871 -0.1064  0.4208
24564W        W67502  24.470  17.370  12.029  0.2176  0.3736 -0.2827
24565W        W67503  22.136  20.300  10.622  0.2114  0.1341 -0.4382
24566W        W67504  21.929  14.116   8.597  0.2520  0.2174 -0.0466
24567W        W67505  24.819  14.866   9.310  0.0292  0.1428  0.0331
24568W        W67506  22.749  14.652  10.232 -0.0296  0.1832 -0.0561
24569W        W67507  23.538  16.583   8.674 -0.0437  0.2610  0.3969
24570W        W67508  24.695  15.424   9.549  0.0684  0.2119 -0.0474
24571W        W67509  23.885  18.311  10.179 -0.0488  0.0481  0.1300
24572W        W67510  20.308  15.625   9.431  0.0498 -0.2610 -0.4347
24573W        W67511  22.981  16.684   8.552 -0.2399  0.1091 -0.0507
24574W        W67512  24.897  16.248   7.550  0.1884 -0.1276 -0.0129
24575W        W67513  21.271  14.893   8.964  0.0052  0.0306  0.0185
24576W        W67514  24.853  13.676   7.994 -0.0708 -0.3601  0.1007
24577W        W67515  22.407  15.519   7.647 -0.2154  0.0707 -0.1995
24578W        W67516  23.650  16.200  10.096 -0.0545  0.0576  0.0065
24579W        W67517  22.040  15.007   8.931 -0.0321 -0.0178 -0.1757
24580W        W67518  24.973  15.774   6.653 -0.5554  0.4415  0.1898
24581W        W67519  23.217  17.756   9.222 -0.0204 -0.2043  0.1405
24582W        W67520  22.608  16.850   7.829 -0.1164 -0.2306  0.1330
24583W        W67521  24.241  16.722   8.004  0.1961  0.2054  0.1645
24584W        W67522  26.649  20.236   9.391  0.1100  0.0504  0.1329
24585W        W67523  20.869  16.808  11.312 -0.1141 -0.1545 -0.0738
24586W        W67524  23.942  17.978   9.806  0.0144 -0.3851  0.1245
24587W        W67525  26.027  17.434   9.924  0.1198  0.1379 -0.2856
24588W        W67526  23.762  15.468   8.961  0.1604 -0.2779 -0.0773
24589W        W67527  21.992  13.150   9.821  0.1700 -0.2539  0.0072
24590W        W67528  20.732  15.895   7.880  0.0787 -0.3829  0.1111
24591W        W67529  26.019  16.101   9.664  0.0695 -0.3463 -0.0118
24592W        W67530  24.706  17.551   7.600 -0.0745  0.1854 -0.0173
24593W        W67531  25.316  16.550   9.205 -0.1348 -0.3002 -0.1246
24594W        W67532  21.805  17.074   8.588  0.0170  0.2714 -0.2006
24595W        W67533  23.118  19.088  10.420 -0.1302  0.1078  0.0605
24596W        W67534  23.275  16.281   8.277 -0.1130 -0.1554  0.0988
24597W        W67535  25.173  17.142   9.283  0.0810  0.2422 -0.0829
24598W        W67536  25.042  15.672   9.834  0.2623 -0.1154 -0.4672
24599W        W67537  27.032  19.119   8.769  0.3628  0.1480  0.0548
24600W        W67538  23.410  15.780   9.152  0.4765  0.2819 -0.2093
24601W        W67539  25.400  15.299   8.835  0.0876  0.1569  0.0030
24602W        W67540  23.888  14.173   8.431  0.2586  0.1141 -0.2490
24603W        W67541  20.547  16.035   9.232 -0.0476  0.3042  0.1395
24604W        W67542  21.823  15.657   6.815 -0.3773  0.4435 -0.1589
24605W        W67543  23.088  16.687   8.016 -0.2285 -0.1268  0.2656
24606W        W67544  21.573  16.611   7.929 -0.0564 -0.1093  0.1602
24607W        W67545  22.929  13.857   8.661  0.2258 -0.0785 -0.1305
24608W        W67546  23.064  14.377   7.844  0.1735 -0.2512 -0.2358
24609W        W67547  25.537  16.644   7.696 -0.0860  0.2024  0.1080
24610W        W67548  21.955  14.549   9.424 -0.0171 -0.2781  0.2317
24611W        W67549  20.899  14.139   8.740  0.3932 -0.0751 -0.1049
24612W        W67550  25.123  16.077   7.978  0.0705  0.0853  0.1099
24613W        W67551  24.259  18.680   9.995 -0.1574 -0.2106  0.1255
24614W        W67552  23.579  14.583   9.615 -0.0242  0.0786  0.0157
24615W        W67553  21.441  17.332   7.673  0.0190 -0.1497  0.1894
24616W        W67554  21.671  14.359   6.859 -0.2261  0.0365  0.0968
24617W        W67555  23.329  15.504   8.715  0.2993 -0.0097  0.1323
24618W        W67556  24.932  17.168   8.763 -0.0552 -0.1131 -0.0733
24619W        W67557  25.620  16.161   7.851 -0.0773  0.1448 -0.1301
24620W        W67558  20.670  14.436   9.442  0.1242  0.1160  0.1883
24621W        W67559  24.525  16.598   9.249 -0.0028  0.2363 -0.0105
24622W        W67560  26.339  17.068   8.638  0.1927  0.0273  0.0362
24623W        W67561  22.906  12.979   9.052  0.2618  0.0998 -0.1840
24624W        W67562  24.176  15.735   8.793  0.0855 -0.1622 -0.3991
24625W        W67563  26.323  15.598   9.665  0.2415 -0.1336  0.0021
24626W        W67564  22.842  13.564   8.303  0.2404  0.0756  0.0895
24627W        W67565  24.319  14.548   9.104  0.0409  0.3259 -0.1550
24628W        W67566  23.399  16.873   8.317 -0.0327  0.0742 -0.3215
24629W        W67567  22.133  15.795   8.278  0.3148 -0.0608 -0.1697
24630W        W67568  23.882  15.389   8.236 -0.0645  0.0270  0.0301
24631W        W67569  23.076  17.224   8.523 -0.0675  0.1468 -0.1120
24632W        W67570  22.330  16.022   7.867 -0.3280 -0.3507 -0.0857
24633W        W67571  24.376  16.370   7.609  0.3661 -0.3881  0.0766
24634W        W67572  25.408  19.542   9.849  0.1315 -0.1833  0.0947
24635W        W67573  24.839  17.580   9.076 -0.2380 -0.0591  0.4005
24636W        W67574  25.005  16.706   9.662 -0.0141  0.1723  0.0074
24637W        W67575  29.497  19.060  12.626 -0.1321  0.1864 -0.1401
24638W        W67576  23.712  16.086   7.466 -0.1912  0.0202  0.0634
24639W        W67577  23.244  17.329   9.557 -0.1495 -0.1141 -0.0609
24640W        W67578  25.380  15.448  10.192  0.1765  0.0843 -0.0445
24641W        W67579  22.378  15.347   8.691 -0.2236 -0.2171 -0.1201
24642W        W67580  25.061  13.444   7.527  0.4561 -0.0214  0.2672
24643W        W67581  22.553  18.892  10.028  0.1612  0.0895  0.1043
24644W        W67582  25.388  17.596   9.173 -0.1336  0.4020 -0.0882
24645W        W67583  23.264  19.785   2.908 -0.0141 -0.3243 -0.1025
24646W        W67584  22.925  20.758   0.406  0.0434 -0.2345  0.1202
24647W        W67585  24.330  17.413  31.373  0.1487  0.2118  0.5006
24648W        W67586  23.657  20.655   1.123 -0.0382 -0.1047  0.0726
24649W        W67587  20.820  18.239   1.089  0.4256  0.0448  0.4107
24650W        W67588  24.625  22.465   2.015 -0.0363 -0.1052  0.1906
24651W        W67589  22.356  17.980   1.873 -0.1457  0.0766 -0.1098
24652W        W67590  24.703  20.223   2.790 -0.3673 -0.2245  0.0444
24653W        W67591  24.565  21.598   3.171 -0.0978  0.1601  0.2374
24654W        W67592  23.944  19.400  31.709  0.1758 -0.0832  0.1322
24655W        W67593  23.696  18.384   2.629  0.0008 -0.0145 -0.0880
24656W        W67594  23.363  20.822   3.276 -0.0836  0.2021  0.0324
24657W        W67595  23.352  18.287   0.271  0.2059 -0.4868  0.4480
24658W        W67596  22.719  15.821   1.034 -0.0448  0.1623  0.0514
24659W        W67597  24.490  18.312   0.985 -0.1379 -0.4687 -0.0705
24660W        W67598  21.571  19.766   0.017 -0.1344  0.1993 -0.0468
24661W        W67599  22.989  18.831   1.935  0.0584 -0.1934  0.1803
24662W        W67600  22.627  18.526   1.419  0.1818  0.0668 -0.1202
24663W        W67601  22.380  21.068  31.681 -0.2006 -0.0694  0.0388
24664W        W67602  22.314  19.974   1.698  0.0265  0.3642 -0.0148
24665W        W67603  23.141  18.925   3.560  0.1128 -0.1577 -0.0325
24666W        W67604  22.758  21.449  31.776  0.0108  0.0359 -0.0856
24667W        W67605  21.380  18.259   0.781  0.2465 -0.1012 -0.0714
24668W        W67606  22.256  19.470   2.664  0.0464 -0.0234  0.0770
24669W        W67607  23.704  21.589   2.210  0.1647 -0.2468  0.1649
24670W        W67608  23.057  19.035   2.565 -0.2232  0.0649  0.3856
24671W        W67609  24.156  20.555   1.765 -0.2954 -0.0276  0.1610
24672W        W67610  23.698  21.135   2.388 -0.3366 -0.2360 -0.0585
24673W        W67611  24.024  23.206   0.701  0.1627 -0.0310  0.2668
24674W        W67612  23.490  20.776   2.723 -0.0120  0.0813 -0.0101
24675W        W67613  22.201  20.211   1.256  0.0570  0.1985 -0.1722
24676W        W67614  20.270  21.521   3.227 -0.0576  0.1655  0.1505
24677W        W67615  22.519  20.938   0.135  0.5008 -0.0700 -0.0056
24678W        W67616  23.952  20.753   0.614 -0.0562 -0.0781  0.1486
24679W        W67617  23.906  20.648   3.152 -0.0373 -0.0949  0.0897
24680W        W67618  23.941  22.033   3.426 -0.0712  0.0808 -0.1695
24681W        W67619  22.096  19.604  31.945 -0.0368 -0.0697 -0.0453
24682W        W67620  23.876  20.478   2.677  0.1878 -0.1097  0.0827
24683W        W67621  23.821  22.544   2.192  0.3223 -0.0343 -0.3857
24684W        W67622  23.820  21.098   1.353 -0.0726  0.0419  0.1185
24685W        W67623  23.900  21.846   0.716 -0.3218 -0.3996  0.0887
24686W        W67624  22.866  21.309  30.298  0.1652  0.1623 -0.1641
24687W        W67625  23.585  21.197   0.930 -0.0227  0.2566 -0.1478
24688W        W67626  21.653  21.024   2.758 -0.0664  0.1441  0.0388
24689W        W67627  21.872  21.692   0.467  0.0471 -0.2341 -0.3398
24690W        W67628  25.886  18.720   3.496  0.2305 -0.0108  0.0244
24691W        W67629  21.809  21.529   1.373 -0.0722 -0.1356 -0.2097
24692W        W67630  24.706  19.593   0.913 -0.2420 -0.1341 -0.1965
24693W        W67631  23.046  18.856  31.734 -0.0395 -0.0743  0.0711
24694W        W67632  24.599  17.955   0.621 -0.0563  0.1353  0.0002
24695W        W67633  22.363  18.605   0.990  0.1498  0.0455 -0.0906
24696W        W67634  21.366  21.920   2.238  0.5482  0.0870 -0.0591
24697W        W67635  22.995  20.610   2.573 -0.0722  0.0470 -0.0269
24698W        W67636  25.180  19.596   2.904  0.2741 -0.0679 -0.0582
24699W        W67637  23.132  18.583   1.483 -0.1012 -0.1186 -0.0832
24700W        W67638  23.236  18.961   3.003 -0.0475  0.1253 -0.0107
24701W        W67639  23.223  22.155   2.167 -0.3040 -0.1906 -0.0546
24702W        W67640  21.057  18.882   1.976 -0.0824  0.2645  0.1289
24703W        W67641  24.980  21.394   0.262 -0.1697 -0.2510  0.0112
24704W        W67642  24.857  21.506   1.644 -0.1035 -0.1839 -0.0754
24705W        W67643  23.934  23.268   1.228  0.1888  0.0861 -0.0231
24706W        W67644  20.435  19.761   0.432  0.0698  0.0180  0.0709
24707W        W67645  21.960  19.693   3.332  0.1579  0.2042 -0.0200
24708W        W67646  19.853  19.777   3.711 -0.1856 -0.3015 -0.0049
24709W        W67647  22.834  18.145  30.945 -0.0375 -0.0505 -0.2869
24710W        W67648  24.685  21.262   2.651  0.1688  0.1294  0.1773
24711W        W67649  19.290  19.880   3.120  0.2361 -0.2418  0.0853
24712W        W67650  24.933  17.965   1.093 -0.2485 -0.1348 -0.0910
24713W        W67651  22.662  20.410   1.190  0.1640  0.1695  0.1448
24714W        W67652  25.212  20.154   2.871 -0.4096 -0.1341 -0.2109
24715W        W67653  24.730  19.795  31.972 -0.0793  0.1240  0.4196
24716W        W67654  23.104  16.827   1.137 -0.3184 -0.0274  0.0260
24717W        W67655  23.883  18.075   2.096  0.0156 -0.0289  0.0340
24718W        W67656  22.998  19.455   0.496 -0.0038  0.0015 -0.2080
24719W        W67657  22.470  18.147  31.759  0.2564  0.4341 -0.0089
24720W        W67658  24.888  20.800   2.894 -0.1974  0.0683 -0.0732
24721W        W67659  24.427  18.433   0.479 -0.1678  0.0868 -0.3237
24722W        W67660  23.222  20.371   0.649 -0.3857 -0.1588 -0.1309
24723W        W67661  23.532  19.306   2.784 -0.2086  0.3677  0.0328
24724W        W67662  22.339  19.709   4.899 -0.3162  0.3626 -0.0596
24725W        W67663  21.891  21.801  31.307  0.1478 -0.0227 -0.2622
24726W        W67664  22.267  20.699   0.994  0.0380  0.2167  0.1780
24727W        W67665  21.781  20.387  31.296 -0.1246 -0.1000 -0.0473
24728W        W67666  21.613  17.716   0.641  0.0897 -0.0281  0.2865
24729W        W67667  22.150  21.201   2.722  0.0439  0.1403  0.1466
24730W        W67668  24.659  18.267   0.043  0.2576 -0.1980 -0.1128
24731W        W67669  21.547  20.536   2.963 -0.2077 -0.0362 -0.0793
24732W        W67670  24.253  17.874   1.381 -0.1605 -0.4012 -0.1878
24733W        W67671  22.030  20.249   0.733 -0.1189  0.0756  0.1662
24734W        W67672  24.619  21.305   1.239  0.2161 -0.0261 -0.1403
24735W        W67673  24.697  18.826   0.284  0.2138 -0.2429  0.2407
24736W        W67674  23.089  20.292   0.150  0.3514 -0.0972 -0.2793
24737W        W67675  22.096  19.173   3.078 -0.2383  0.0314  0.2945
24738W        W67676  22.987  19.381   1.020 -0.3435  0.0501  0.1679
24739W        W67677  22.633  18.678   2.389  0.2914  0.1296 -0.1701
24740W        W67678  21.551  20.202   1.985  0.0559  0.1241  0.1178
24741W        W67679  23.559  20.647   2.233 -0.0156 -0.1092  0.3051
24742W        W67680  21.182  17.739   0.392  0.1184 -0.1766 -0.1343
24743W        W67681  25.621  19.302   1.184  0.0074 -0.1424  0.0257
24744W        W67682  22.145  19.983  31.236 -0.0397 -0.0376  0.3337
24745W        W67683  21.086  21.044   0.042  0.0385  0.0500  0.2396
24746W        W67684  24.855  19.267   2.630  0.0757 -0.3064  0.0204
24747W        W67685  24.528  21.640   0.167 -0.1680 -0.0015 -0.2242
24748W        W67686  25.484  22.029   1.892 -0.2409  0.0430  0.4021
24749W        W67687  23.879  21.803   1.624  0.0367  0.3274 -0.1033
24750W        W67688  21.659  19.285   1.427 -0.0784  0.0123  0.0256
24751W        W67689  22.177  19.249   0.958  0.0111  0.0946  0.1414
24752W        W67690  20.895  21.834   1.782 -0.3429  0.1764  0.4174
24753W        W67691  22.989  20.608   1.526 -0.0381 -0.0966 -0.0932
24754W        W67692  23.331  19.806   0.716 -0.0578 -0.1254 -0.0920
24755W        W67693  25.011  20.477   2.493 -0.1175  0.2188  0.1813
24756W        W67694  23.948  21.437   0.446  0.1244 -0.2003 -0.1681
24757W        W67695  21.934  20.766   3.414 -0.1747  0.1679 -0.2095
24758W        W67696  24.611  17.515   1.775 -0.1168  0.1399  0.0902
24759W        W67697  25.883  19.825   3.510  0.0749  0.0677  0.1790
24760W        W67698  23.845  19.247   1.793  0.0939  0.2597 -0.3078
24761W        W67699  22.514  17.790  31.344  0.0045 -0.3695 -0.2074
24762W        W67700  23.649  21.357   1.794  0.2999  0.1547 -0.3320
24763W        W67701  21.460  20.769   0.270 -0.0348  0.0357 -0.0343
24764W        W67702  20.777  20.333  31.641  0.3265 -0.1057 -0.0386
24765W        W67703  23.857  22.354   0.773 -0.0225 -0.1000  0.3780
24766W        W67704  26.179  18.941   2.085 -0.1505 -0.3080  0.0651
24767W        W67705  21.535  19.588   3.696 -0.0822  0.0833 -0.2401
24768W        W67706  22.454  19.794   3.949  0.1432  0.2812  0.0435
24769W        W67707  22.570  19.111  31.108  0.0660 -0.1778 -0.3013
24770W        W67708  22.951  21.763   1.240 -0.0923  0.1599  0.2191
24771W        W67709  22.811  18.199   1.066 -0.2019  0.1995 -0.3127
24772W        W67710  25.122  17.926   0.589 -0.4645  0.2420 -0.2237
24773W        W67711  23.049  19.841   2.007 -0.0118 -0.1444 -0.1176
24774W        W67712  23.651  19.764   1.648  0.0146  0.0465 -0.1013
24775W        W67713  22.865  18.337   0.079 -0.0280  0.2730  0.2659
24776W        W67714  24.422  19.171   1.014 -0.3793 -0.0469  0.3906
24777W        W67715  21.486  20.280   4.306  0.0138  0.3723  0.0991
24778W        W67716  23.522  22.317   1.575 -0.1037 -0.2294  0.1307
24779W        W67717  23.077  20.337   2.025 -0.1077 -0.0563 -0.3829
24780W        W67718  23.312  17.756   0.480  0.0993 -0.3452  0.0873
24781W        W67719  24.142  21.159   0.947  0.0937 -0.1925  0.1132
24782W        W67720  22.739  19.677   1.661 -0.1182  0.1146 -0.3695
24783W        W67721  23.617  20.480   3.540 -0.1364 -0.0247 -0.0461
24784W        W67722  23.347  21.666   0.877  0.2610 -0.0623  0.0183
24785W        W67723  22.416  18.081   2.848 -0.3585 -0.0517 -0.3411
24786W        W67724  22.730  19.808  31.382  0.1880 -0.2766 -0.0981
24787W        W67725  23.371  17.900   1.808 -0.1245 -0.2178 -0.1517
24788W        W67726  19.475  21.538   0.113 -0.1427  0.2471  0.1238
24789W        W67727  25.790  18.493   1.529 -0.2509  0.2903  0.1252
24790W        W67728  24.059  17.428   1.097 -0.1514  0.1556  0.2309
24791W        W67729  22.680  18.360   1.911  0.1041 -0.0499  0.2459
24792W        W67730  23.964  19.071   2.995 -0.3559 -0.0118 -0.4865
24793W        W67731  24.664  19.840   1.377  0.1396  0.2276 -0.0288
24794W        W67732  23.206  19.786   1.180 -0.2543 -0.3172 -0.0354
24795W        W67733  23.120  19.842  31.721 -0.0748  0.2598 -0.1450
24796W        W67734  22.730  18.544   2.972  0.2604  0.0731 -0.0740
24797W        W67735  22.986  20.071   2.459 -0.1624 -0.1935 -0.0221
24798W        W67736  22.829  21.797   2.171  0.0762  0.1341 -0.3468
24799W        W67737  23.931  20.618   4.116  0.4289  0.0301 -0.0934
24800W        W67738  24.716  19.305   1.446  0.3422 -0.0653 -0.1751
24801W        W67739  24.913  18.517   3.772  0.0405  0.0307 -0.0966
24802W        W67740  23.753  19.765   0.461 -0.0252  0.1115  0.2836
24803W        W67741  22.341  21.718   0.568 -0.0920  0.2884 -0.2358
24804W        W67742  22.619  21.265   0.520  0.2742  0.0480 -0.1682
24805W        W67743  21.393  18.881   1.511 -0.0959 -0.0653 -0.0591
24806W        W67744  21.973  21.066   2.317  0.1251  0.1280  0.0439
24807W        W67745  22.248  20.605  31.813 -0.1529 -0.0367  0.1258
24808W        W67746  24.676  19.333   4.226  0.0250 -0.0325 -0.3235
24809W        W67747  22.296  20.069   0.376  0.1392  0.2764  0.1947
24810W        W67748  24.134  17.983   0.864  0.3330  0.0937  0.1823
24811W        W67749  22.309  22.069   1.959 -0.1453  0.1181  0.2181
24812W        W67750  22.916  19.986  30.598  0.1111 -0.1745 -0.2612
24813W        W67751  21.180  20.184   1.092 -0.3564 -0.2804 -0.0495
24814W        W67752  23.685  18.996   0.801 -0.0932 -0.0205  0.1400
24815W        W67753  24.325  18.727  31.294 -0.0647 -0.4570 -0.2789
24816W        W67754  20.808  17.754   2.326 -0.0180  0.0414  0.2375
24817W        W67755  22.136  18.408   1.575 -0.2231  0.0388  0.2724
24818W        W67756  20.813  20.865   1.914 -0.1384  0.0389  0.1949
24819W        W67757  23.142  20.354   3.012  0.2889 -0.2829 -0.0952
24820W        W67758  24.227  17.546   0.564 -0.0136 -0.0588 -0.0671
24821W        W67759  23.539  21.295   4.647  0.4615  0.0179  0.3223
24822W        W67760  22.319  19.923   3.528 -0.0249  0.1336 -0.0812
24823W        W67761  22.312  19.523  31.520  0.1214  0.0643 -0.0001
24824W        W67762  23.521  18.843   2.645  0.0271 -0.0908  0.1069
24825W        W67763  23.716  18.435   1.656  0.0307 -0.1834 -0.0307
24826W        W67764  22.016  21.010   0.011 -0.1081  0.1348 -0.1452
24827W        W67765  23.349  21.770   2.522  0.1737  0.0148  0.0416
24828W        W67766  22.237  20.936   1.928 -0.2855  0.0442  0.1472
24829W        W67767  23.704  20.202   0.781  0.1721 -0.2400  0.0199
24830W        W67768  22.781  19.430   2.836 -0.1327 -0.0557 -0.0208
24831W        W67769  24.581  20.774   2.298  0.0617 -0.3192 -0.0189
24832W        W67770  22.611  20.007   2.076  0.1068 -0.1511 -0.1893
24833W        W67771  22.833  18.588   0.651 -0.1710 -0.0461 -0.1330
24834W        W67772  22.721  20.244   1.661  0.2117  0.0637 -0.1458
24835W        W67773  24.544  20.285   2.298 -0.1468 -0.2905 -0.3145
24836W        W67774  22.897  18.229   2.459 -0.0086  0.0800 -0.0862
24837W        W67775  22.563  20.378   2.541  0.2699  0.2815  0.0363
24838W        W67776  22.539  17.594   1.649 -0.0194 -0.1445  0.0109
24839W        W67777  23.908  21.703  31.410 -0.2280 -0.3075  0.1034
24840W        W67778  23.938  21.040   1.896  0.0381  0.1952  0.0004
24841W        W67779  22.717  19.937   1.268 -0.1102  0.2031 -0.0046
24842W        W67780  21.286  19.569   2.090  0.3186 -0.3490 -0.1679
24843W        W67781  21.078  21.135   0.547 -0.0533 -0.1485  0.0791
24844W        W67782  22.484  18.985   1.317 -0.0316  0.0017  0.1405
24845W        W67783  22.416  21.083  31.053  0.2186 -0.0035  0.0845
24846W        W67784  22.207  20.124  31.678  0.1271 -0.1669  0.0723
24847W        W67785  21.884  21.314   3.189  0.3347  0.1372  0.0307
24848W        W67786  24.159  18.750   1.107 -0.0966  0.1597  0.0626
24849W        W67787  25.042  20.545  31.652 -0.0462  0.0056 -0.4141
24850W        W67788  23.359  19.394   1.536  0.0416  0.2156  0.2166
24851W        W67789  26.065  18.603   3.018  0.2424  0.1560  0.0600
24852W        W67790  24.867  19.632   1.832 -0.1116 -0.0704  0.1038
24853W        W67791  24.210  18.936   1.630  0.0856 -0.0107  0.0089
24854W        W67792  21.093  20.187   2.687 -0.0909 -0.2814 -0.0375
24855W        W67793  23.059  21.256   0.697 -0.1352  0.1581 -0.0942
24856W        W67794  20.807  18.569   3.473  0.1092 -0.2365  0.1399
24857W        W67795  24.622  21.310   3.653  0.1328  0.0384  0.4015
24858W        W67796  21.227  19.999   3.982  0.1562 -0.1798 -0.2012
24859W        W67797  23.830  19.187   1.252 -0.3018  0.1133  0.0968
24860W        W67798  22.058  18.706   0.136 -0.1278 -0.1149  0.0614
24861W        W67799  22.760  19.050   3.248 -0.0669 -0.1253  0.1671
24862W        W67800  25.247  19.318   2.062 -0.0539  0.2092 -0.2908
24863W        W67801  22.981  20.274  31.565 -0.0737  0.0728 -0.0516
24864W        W67802  24.748  20.545   1.913  0.1326 -0.2686  0.2800
24865W        W67803  23.064  19.326   2.042  0.0715  0.2717 -0.2317
24866W        W67804  24.011  19.408   0.819 -0.2851 -0.2299 -0.0198
24867W        W67805  24.425  20.541   0.456  0.0576 -0.1460  0.2290
24868W        W67806  22.301  20.456   2.096 -0.1042 -0.2895  0.0780
24869W        W67807  23.430  18.117   2.286 -0.1314 -0.3550 -0.1027
24870W        W67808  23.394  21.825   1.547 -0.1076  0.0188  0.0752
24871W        W67809  22.982  19.126   1.512  0.0904  0.3049  0.2681
24872W        W67810  24.278  18.472   2.173 -0.2894  0.1005 -0.0848
24873W        W67811  23.791  18.602   2.098 -0.0897  0.3219  0.0551
24874W        W67812  22.606  18.725   3.696 -0.0867 -0.1831 -0.0431
24875W        W67813  22.214  19.150   3.616 -0.0290  0.0227  0.2153
24876W        W67814  24.842  21.306   2.147  0.1179  0.1325  0.1752
24877W        W67815  24.379  19.170  30.988  0.4629  0.1159  0.2108
24878W        W67816  24.585  17.989   1.727 -0.0961  0.2343  0.2442
24879W        W67817  25.190  19.092   1.582  0.1553 -0.3326 -0.3779
24880W        W67818  24.357  19.148  31.930 -0.1057  0.0305  0.0100
24881W        W67819  22.553  20.405   0.629  0.0520  0.5501  0.0960
24882W        W67820  24.024  18.652   3.934  0.0420 -0.0298  0.2502
24883W        W67821  23.492  19.302   0.408  0.1489  0.3085  0.1280
24884W        W67822  23.242  17.901   2.763 -0.0551 -0.0155  0.1954
24885W        W67823  22.970  21.233   0.153 -0.0483 -0.0759  0.3950
24886W        W67824  23.203  22.872   1.393  0.0421  0.0248  0.2152
24887W        W67825  25.715  19.007   1.668 -0.1831 -0.0804 -0.0146
24888W        W67826  22.489  19.593   0.360  0.1884 -0.1515  0.1282
24889W        W67827  22.395  21.341   3.154 -0.3000  0.1766 -0.2298
24890W        W67828  21.205  18.235  30.134  0.1496  0.1527  0.1066
24891W        W67829  23.088  17.697  31.225 -0.0568 -0.2732 -0.0352
24892W        W67830  23.772  21.619   3.192 -0.1179  0.3225  0.2416
24893W        W67831  24.243  20.103   2.650  0.0687  0.3299  0.0602
24894W        W67832  22.253  17.484  31.662  0.2157  0.0644 -0.1193
24895W        W67833  24.696  19.264   2.121 -0.1191 -0.0390  0.0166
24896W        W67834  22.708  20.875   0.841  0.0702 -0.2425 -0.1371
24897W        W67835  23.676  17.526   0.745 -0.1275 -0.3046  0.1403
24898W        W67836  22.250  21.211   1.026 -0.0793  0.0292  0.2932
24899W        W67837  21.295  21.076   2.004 -0.0481 -0.0602 -0.0322
24900W        W67838  22.957  21.996   1.695 -0.1503 -0.1906 -0.2149
24901W        W67839  23.834  17.983   1.559 -0.3567  0.2097 -0.0415
24902W        W67840  23.836  19.259   2.399 -0.1395  0.0988 -0.1661
24903W        W67841  24.504  19.846   0.453  0.0830  0.2670  0.2266
24904W        W67842  25.549  19.791   2.083  0.3246 -0.2718 -0.2967
24905W        W67843  22.657  20.844   3.697  0.0214  0.1931 -0.1304
24906W        W67844  23.146  21.039   2.283  0.2682 -0.1400  0.0844
24907W        W67845  23.748  20.943   3.635 -0.2154 -0.2032 -0.2190
24908W        W67846  23.641  20.716   1.640 -0.0402 -0.0456 -0.1617
24909W        W67847  22.560  20.798   1.500 -0.3373 -0.0777 -0.0837
24910W        W67848  20.211  20.083   3.088  0.1172  0.2743  0.2498
24911W        W67849  21.890  20.538   2.464  0.2681  0.0397  0.1368
24912W        W67850  24.121  21.220   3.336  0.0434  0.0608 -0.0672
24913W        W67851  21.949  18.888   1.323 -0.0441  0.0862  0.3292
24914W        W67852  23.459  20.818   0.604 -0.3315 -0.0472 -0.1424
24915W        W67853  22.772  21.328   2.267  0.0396 -0.0618 -0.4447
24916W        W67854  21.515  19.993   2.985 -0.1912 -0.2103  0.2867
24917W        W67855  22.257  20.739   0.464 -0.3659  0.2356 -0.1786
24918W        W67856  24.497  20.840   0.883 -0.0437 -0.2270 -0.0221
24919W        W67857  24.912  19.987  31.543  0.0038  0.4649  0.3517
24920W        W67858  24.078  22.263   1.548  0.1469 -0.0692  0.1492
24921W        W67859  23.273  20.184   1.600 -0.0399 -0.1857 -0.2058
24922W        W67860  22.656  21.533   0.934 -0.0393  0.1356  0.3347
24923W        W67861  20.299  19.811  30.515  0.1666 -0.4246 -0.1348
24924W        W67862  24.007  20.246  31.767  0.0206  0.0704 -0.2545
24925W        W67863  23.205  20.840   1.045 -0.0026 -0.1569 -0.2372
24926W        W67864  25.487  20.586   4.788  0.1461  0.3791 -0.0047
24927W        W67865  24.573  19.378   0.354  0.2392  0.0564  0.0004
24928W        W67866  24.412  20.309   1.385  0.0361 -0.1502 -0.0485
24929W        W67867  23.639  18.671   1.160 -0.4581 -0.0719 -0.2061
24930W        W67868  23.746  21.561   2.698 -0.0479 -0.2653 -0.2940
24931W        W67869  22.597  19.745   2.507  0.0960 -0.1614 -0.3137
24932W        W67870  22.886  20.040   0.473  0.1584  0.2043  0.1585
24933W        W67871  22.546  19.479   3.293  0.0610 -0.1198  0.0387
24934W        W67872  24.754  16.426   2.692 -0.2140 -0.0246 -0.0647
24935W        W67873  21.254  21.874   3.169  0.2247  0.0106  0.0631
24936W        W67874  24.211  20.334   0.856  0.3587  0.2173  0.0336
24937W        W67875  22.678  19.723   0.784 -0.1203  0.0055 -0.2323
24938W        W67876  21.736  19.691   2.244  0.0495  0.0945  0.1085
24939W        W67877  24.383  18.445   1.572 -0.1324 -0.1977  0.1523
24940W        W67878  24.232  19.515   1.340 -0.1993 -0.3193  0.4105
24941W        W67879  23.466  19.038   2.210  0.2014  0.1278  0.0773
24942W        W67880  22.915  21.916   0.698  0.1522 -0.0537 -0.3714
24943W        W67881  21.529  20.172   2.451 -0.2101  0.0251 -0.1747
24944W        W67882  22.762  22.766   1.546 -0.1302 -0.0543 -0.0749
24945W        W67883  22.325  17.915  30.863  0.0478 -0.4192  0.1086
24946W        W67884  24.558  20.118   1.833 -0.2735  0.2073 -0.1013
24947W        W67885  20.366  18.506   1.327  0.1180 -0.1692 -0.0235
24948W        W67886  22.536  17.583   3.046  0.1044 -0.3011  0.0615
24949W        W67887  22.390  19.169   0.087 -0.1599  0.2429 -0.0753
24950W        W67888  24.224  18.992   2.122 -0.1615  0.1215  0.5158
24951W        W67889  23.630  19.734   2.551 -0.2470  0.0740  0.1293
24952W        W67890  22.083  20.054   2.320 -0.0837 -0.0034 -0.1758
24953W        W67891  22.096  19.768   0.803  0.1019 -0.0278  0.0031
24954W        W67892  25.345  20.681   2.815 -0.2260 -0.1413  0.1000
24955W        W67893  23.487  19.403   0.953 -0.1823 -0.3045  0.1102
24956W        W67894  24.169  21.505   2.886 -0.1118  0.0626 -0.3051
24957W        W67895  22.462  18.943   2.782  0.0198  0.2857 -0.4254
24958W        W67896  23.300  19.013   1.187 -0.2094 -0.1391 -0.3657
24959W        W67897  21.642  20.005   0.995 -0.0692  0.1333 -0.2240
24960W        W67898  23.591  20.054   2.137 -0.2568  0.1367 -0.0641
24961W        W67899  24.210  22.028   3.854  0.0811 -0.1667  0.2401
24962W        W67900  22.373  18.741   0.513  0.0197  0.1414 -0.0173
24963W        W67901  24.332  21.963  31.394  0.1215 -0.3148  0.0744
24964W        W67902  24.008  19.688   2.142  0.1382 -0.0010  0.0276
24965W        W67903  22.682  21.019  30.600 -0.1946 -0.3127  0.0066
24966W        W67904  23.683  22.135   2.471 -0.2816  0.1324  0.2428
24967W        W67905  24.274  21.966   3.072 -0.2519 -0.2137  0.0861
24968W        W67906  20.961  18.944   3.255  0.4992 -0.1457 -0.0442
24969W        W67907  25.322  21.599   2.496  0.0753 -0.0856  0.0294
24970W        W67908  24.148  20.724   1.274  0.0964 -0.0446  0.2211
24971W        W67909  24.201  19.042   0.539 -0.0748 -0.0614  0.2426
24972W        W67910  22.531  19.480   1.234 -0.2132  0.0641 -0.1861
24973W        W67911  21.578  21.267   0.394  0.1835 -0.3935 -0.2223
24974W        W67912  27.252  18.824   0.523 -0.0083  0.0569 -0.2787
24975W        W67913  24.626  18.777   1.839 -0.2647  0.0481  0.5164
24976W        W67914  22.496  21.827   1.550 -0.1191 -0.0863  0.1774
24977W        W67915  23.036  17.564   3.139 -0.1677 -0.0051 -0.3367
24978W        W67916  23.637  21.149   3.021  0.1237  0.1653 -0.1455
24979W        W67917  23.348  21.633   3.015  0.0478 -0.0409  0.0840
24980W        W67918  19.979  18.922  29.742  0.0322  0.0205 -0.1548
24981W        W67919  22.049  20.715   2.936 -0.1875 -0.2998 -0.1302
24982W        W67920  23.226  21.492   2.089 -0.2719 -0.0788 -0.1705
24983W        W67921  20.912  20.107   0.666 -0.1686 -0.4170  0.1463
24984W        W67922  24.090  20.762   2.326 -0.1265  0.0730 -0.1374
24985W        W67923  24.047  20.604   0.117 -0.0916 -0.1222  0.0525
24986W        W67924  24.322  21.681   1.403  0.1113  0.3272 -0.1426
24987W        W67925  22.449  18.812   1.908 -0.0363  0.0095  0.2722
24988W        W67926  24.994  17.507   1.288 -0.0771  0.0368 -0.1496
24989W        W67927  22.563  17.686   0.661 -0.2090 -0.0126  0.0851
24990W        W67928  23.216  18.610   2.330 -0.2692  0.1812  0.5558
24991W        W67929  21.580  19.052  31.233  0.1620  0.0624 -0.2141
24992W        W67930  22.395  19.590  31.020 -0.1223 -0.1365 -0.0948
24993W        W67931  21.810  21.320   1.881 -0.0566  0.1720  0.0279
24994W        W67932  23.121  17.544   3.748  0.1915  0.0863  0.2069
24995W        W67933  19.787  20.661   2.830 -0.1523  0.1081  0.0116
24996W        W67934  21.754  20.129   1.521 -0.0733  0.0441  0.1021
24997W        W67935  22.437  18.176   0.769  0.0456  0.0930  0.0062
24998W        W67936  23.844  21.061   0.061  0.1861 -0.1387  0.0394
24999W        W67937  21.247  18.362   1.302  0.2652  0.1755  0.0219
25000W        W67938  21.852  16.825   0.872 -0.0562  0.3305 -0.1925
25001W        W67939  24.138  19.840   1.679  0.0657  0.0573 -0.3692
25002W        W67940  23.371  21.391   1.365  0.0287  0.1058 -0.2195
25003W        W67941  23.467  19.432  31.927 -0.4043  0.0064 -0.1220
25004W        W67942  25.573  22.373   2.510  0.0969 -0.0360  0.0342
25005W        W67943  21.364  19.265  30.879 -0.3233 -0.3373 -0.2512
25006W        W67944  23.083  19.445   3.317 -0.3932  0.1656 -0.0766
25007W        W67945  22.344  18.709   3.267 -0.0757  0.2128 -0.0766
25008W        W67946  21.883  17.863  31.779 -0.0583  0.1174 -0.2381
25009W        W67947  23.752  20.249   1.701  0.2406  0.1627 -0.1162
25010W        W67948  24.360  21.147   1.630  0.1905 -0.2596 -0.3997
25011W        W67949  23.765  22.846   1.405 -0.0946  0.1338 -0.0545
25012W        W67950  23.092  20.569   3.716  0.0274 -0.0274 -0.0069
25013W        W67951  22.556  21.027   4.242  0.0163 -0.5175  0.2643
25014W        W67952  20.981  19.267   2.849  0.1870  0.0897  0.3762
25015W        W67953  24.060  20.125   0.418  0.0580 -0.1144  0.2460
25016W        W67954  22.347  18.795   4.159  0.0768  0.2243 -0.0966
25017W        W67955  24.253  19.850   0.932  0.0184 -0.1624  0.0743
25018W        W67956  24.549  17.640   1.010 -0.1510  0.2332 -0.0174
25019W        W67957  23.601  20.336   0.263 -0.3525  0.1232  0.1597
25020W        W67958  22.098  17.783   3.425  0.0188  0.2603 -0.0285
25021W        W67959  21.857  18.907   2.744 -0.2339 -0.0258 -0.1591
25022W        W67960  25.578  20.442   3.893  0.0874 -0.2816  0.2107
25023W        W67961  22.522  17.775   0.147 -0.1868 -0.2803 -0.1623
25024W        W67962  22.608  19.250   2.342  0.2585  0.1115 -0.3767
25025W        W67963  24.136  19.708   0.120  0.1048  0.0384 -0.1273
25026W        W67964  22.237  19.620   2.098  0.0596  0.0916  0.1939
25027W        W67965  23.246  17.865   0.011  0.2738 -0.0387  0.0447
25028W        W67966  23.437  20.254   2.579 -0.0122 -0.1870  0.3036
25029W        W67967  23.261  21.286   2.703 -0.0942 -0.1974 -0.2536
25030W        W67968  24.059  18.906   3.484  0.2231 -0.1918  0.2547
25031W        W67969  23.399  20.180  30.540 -0.0403 -0.0638  0.1893
25032W        W67970  25.504  19.845   1.195 -0.2508  0.0353 -0.3083
25033W        W67971  24.133  22.277   2.628  0.1797  0.1693  0.1037
25034W        W67972  25.070  20.424   3.924 -0.0029 -0.1537 -0.2823
25035W        W67973  22.870  21.747   3.204 -0.2327 -0.0520 -0.3745
25036W        W67974  24.360  20.622   2.797 -0.0093  0.1604 -0.0437
25037W        W67975  22.308  16.969   0.458  0.5057  0.1936 -0.2264
25038W        W67976  20.860  18.778   1.331 -0.1091 -0.1832 -0.0914
25039W        W67977  22.884  21.235   1.320 -0.1944 -0.1299  0.0010
25040W        W67978  24.041  18.757   2.526  0.1377 -0.1486 -0.1405
25041W        W67979  22.864  18.847   1.098 -0.0578 -0.0453  0.0267
25042W        W67980  23.137  18.972   0.643  0.0728  0.1187  0.0532
25043W        W67981  23.232  21.033   1.788  0.0228 -0.2409 -0.2592
25044W        W67982  23.666  20.177   3.977  0.1719 -0.0421  0.0066
25045W        W67983  22.976  21.673   6.993  0.1173 -0.0522  0.1329
25046W        W67984  22.831  18.899   5.691  0.0950 -0.3442 -0.3750
25047W        W67985  23.552  19.598   3.242 -0.0772 -0.2429 -0.1051
25048W        W67986  23.198  18.480   2.791  0.0034 -0.0271 -0.1717
25049W        W67987  22.311  19.021   5.440 -0.2195  0.0657  0.1161
25050W        W67988  24.803  20.337   5.534  0.0448  0.2602 -0.0808
25051W        W67989  23.426  17.157   6.793  0.0269  0.0088 -0.0751
25052W        W67990  23.741  20.816   4.656  0.1283  0.0185 -0.0235
25053W        W67991  24.863  22.233   6.077 -0.1255 -0.0917 -0.1355
25054W        W67992  23.919  19.675   2.924 -0.2587  0.0456  0.0765
25055W        W67993  23.448  19.166   6.884 -0.0426 -0.2968 -0.0232
25056W        W67994  22.001  20.389   5.343 -0.0630  0.0670 -0.2066
25057W        W67995  22.539  18.338   5.650 -0.4432 -0.0522 -0.0010
25058W        W67996  22.625  18.882   7.056 -0.1550 -0.0504 -0.0465
25059W        W67997  24.906  20.431   6.608  0.0425 -0.3887 -0.3114
25060W        W67998  21.092  19.843   3.472 -0.3897 -0.2682  0.0217
25061W        W67999  22.982  20.099   5.879 -0.1845  0.0486  0.1024
25062W        W68000  23.003  17.719   5.006 -0.1961  0.2037  0.0432
25063W        W68001  23.187  22.145   4.734  0.1274  0.0192 -0.2748
25064W        W68002  23.320  17.625   6.658 -0.0324 -0.2436  0.0794
25065W        W68003  25.857  18.378   7.442  0.2799  0.0526 -0.2989
25066W        W68004  23.396  20.777   4.131 -0.1261 -0.1984 -0.0857
25067W        W68005  22.241  18.986   4.912  0.0272  0.1986 -0.1560
25068W        W68006  21.633  18.779   7.152  0.1752  0.0966  0.2793
25069W        W68007  23.145  19.410   6.522  0.0543  0.2055  0.2007
25070W        W68008  23.408  18.015   6.365  0.0141 -0.1412 -0.0344
25071W        W68009  25.587  20.537   5.309  0.2670  0.4679 -0.1643
25072W        W68010  23.020  20.462   6.222  0.0982 -0.3393 -0.1429
25073W        W68011  23.992  21.911   5.403 -0.2616  0.1968  0.2776
25074W        W68012  24.904  18.854   6.535 -0.0814 -0.3059  0.3660
25075W        W68013  21.302  20.710   4.628 -0.1643 -0.0735  0.0447
25076W        W68014  21.368  21.115   6.485  0.3518 -0.1598 -0.3386
25077W        W68015  21.557  20.056   3.512 -0.2147 -0.0805  0.2840
25078W        W68016  23.686  21.017   5.105 -0.2348 -0.3874  0.1971
25079W        W68017  24.299  21.358   6.658  0.1156  0.1712  0.4679
25080W        W68018  22.771  20.435   7.887 -0.0120 -0.3936  0.1350
25081W        W68019  21.813  20.423   3.865  0.2245  0.2980  0.1189
25082W        W68020  23.377  21.886   7.561  0.1664 -0.0211 -0.0845
25083W        W68021  22.059  20.608   7.402 -0.0008 -0.1712  0.2116
25084W        W68022  23.573  18.777   6.558  0.1447 -0.0578  0.1846
25085W        W68023  24.258  20.187   4.870 -0.1051  0.0091 -0.0767
25086W        W68024  22.893  21.653   2.664 -0.1578  0.0478  0.1273
25087W        W68025  23.946  20.530   6.185 -0.0310 -0.0377  0.0686
25088W        W68026  22.541  20.859   7.025  0.3381 -0.3455  0.0196
25089W        W68027  22.870  19.768   5.529  0.0759 -0.0281 -0.0565
25090W        W68028  25.445  17.394   8.057  0.1591 -0.1558  0.0749
25091W        W68029  22.213  20.216   4.193 -0.0435 -0.1203  0.3937
25092W        W68030  23.570  19.125   3.367  0.0057  0.0623 -0.1761
25093W        W68031  22.941  18.130   1.567 -0.1118  0.3906  0.1810
25094W        W68032  24.472  18.814   3.980 -0.0920 -0.0686 -0.2146
25095W        W68033  22.289  17.193   4.350 -0.0275 -0.2836  0.4811
25096W        W68034  22.620  20.330   5.514 -0.0296  0.0077  0.1432
25097W        W68035  21.302  17.836   6.602  0.1378 -0.0158 -0.1712
25098W        W68036  23.320  21.311   6.655  0.0177  0.1940 -0.0324
25099W        W68037  23.302  20.086   4.853 -0.0761  0.0858  0.0939
25100W        W68038  24.428  19.098   5.392 -0.1876 -0.0704 -0.0964
25101W        W68039  21.439  21.211   5.847  0.4011  0.2740  0.0173
25102W        W68040  22.650  19.405   5.803 -0.0543  0.2057 -0.1024
25103W        W68041  24.833  22.182   4.353 -0.2707  0.2242 -0.0442
25104W        W68042  23.310  20.365   4.412 -0.0876 -0.2093 -0.0512
25105W        W68043  22.758  21.112   2.762  0.1139 -0.1899  0.0359
25106W        W68044  22.583  19.373   5.256 -0.0998 -0.2696 -0.2686
25107W        W68045  23.671  18.750   6.998  0.1113  0.0695  0.0044
25108W        W68046  22.936  19.237   6.909 -0.1220  0.1737 -0.1448
25109W        W68047  22.386  18.245   3.317 -0.2097  0.1458  0.1931
25110W        W68048  23.171  20.305   6.747 -0.2812  0.0916 -0.1505
25111W        W68049  21.179  20.392   5.581  0.0853  0.1612 -0.0958
25112W        W68050  23.654  18.105   4.725  0.1301  0.1663  0.1794
25113W        W68051  23.471  20.375   5.629 -0.0738  0.1951  0.2882
25114W        W68052  23.945  21.622   5.002 -0.0504  0.4563  0.0254
25115W        W68053  24.228  20.987   3.901 -0.0285  0.0525  0.0363
25116W        W68054  24.335  18.528   5.400 -0.0992 -0.3227 -0.0263
25117W        W68055  25.169  17.578   5.152 -0.0202 -0.2719  0.0067
25118W        W68056  22.089  20.337   4.762  0.1871 -0.1992  0.0803
25119W        W68057  24.219  18.772   5.859  0.1229 -0.2598 -0.1640
25120W        W68058  24.472  21.444   7.155 -0.2030  0.0585 -0.1753
25121W        W68059  24.435  19.242   3.606 -0.0166 -0.2946 -0.1810
25122W        W68060  22.194  20.502   6.870 -0.3295  0.2313  0.0308
25123W        W68061  23.893  19.489   9.058  0.0761 -0.1519  0.1772
25124W        W68062  23.687  21.033   6.265  0.1691  0.0544  0.0075
25125W        W68063  21.129  22.268   4.539 -0.3524 -0.0565 -0.0265
25126W        W68064  20.891  19.182   4.967  0.0413 -0.0012 -0.1173
25127W        W68065  20.598  20.675   4.045  0.3479 -0.2026  0.1366
25128W        W68066  21.994  18.165   6.565 -0.2292 -0.3564  0.0303
25129W        W68067  21.606  20.166   4.812 -0.0649  0.1909  0.0270
25130W        W68068  25.420  18.833   4.447 -0.0226 -0.0887 -0.1318
25131W        W68069  23.133  17.430   7.091  0.0171 -0.0296  0.1458
25132W        W68070  25.676  18.945   4.852 -0.2635  0.2218  0.2258
25133W        W68071  22.180  21.660   3.479  0.2893 -0.1866  0.0771
25134W        W68072  25.645  22.130   5.172  0.0057  0.1206 -0.1322
25135W        W68073  24.071  20.213   2.081  0.0311  0.2784 -0.3024
25136W        W68074  24.611  20.438   4.661 -0.2160 -0.0985 -0.2294
25137W        W68075  20.916  17.942   5.702 -0.0206  0.1046  0.0923
25138W        W68076  22.856  18.926   5.156  0.2037 -0.1137 -0.1927
25139W        W68077  23.392  17.050   7.774 -0.1025 -0.1264 -0.0667
25140W        W68078  21.541  19.375   5.957 -0.0052  0.1495  0.0145
25141W        W68079  24.590  19.467   5.875  0.0152 -0.1937 -0.2214
25142W        W68080  22.311  17.727   4.261 -0.2332  0.1037 -0.1779
25143W        W68081  24.576  19.332   4.866  0.1672 -0.1572 -0.4753
25144W        W68082  21.888  18.617   5.595 -0.1605  0.0766  0.1738
25145W        W68083  22.021  19.600   5.679  0.0272  0.4150 -0.1686
25146W        W68084  27.010  19.173   7.636  0.1322  0.0085 -0.2240
25147W        W68085  24.595  23.596   3.889  0.2834  0.1662 -0.1551
25148W        W68086  23.809  22.136   6.078  0.1798 -0.1654 -0.2524
25149W        W68087  24.584  21.327   6.185  0.0840  0.0744  0.0101
25150W        W68088  22.933  17.809   6.388 -0.0725 -0.1680  0.0688
25151W        W68089  22.841  19.069   4.275  0.2493 -0.0802 -0.1131
25152W        W68090  22.458  20.582   4.439  0.3953  0.0221 -0.2202
25153W        W68091  22.459  20.233   5.037  0.0427  0.2478 -0.3919
25154W        W68092  22.382  18.332   4.788  0.1746 -0.0762 -0.2472
25155W        W68093  24.107  21.165   4.772 -0.0387  0.1712 -0.2015
25156W        W68094  23.182  19.599   4.674  0.0483  0.0204 -0.4122
25157W        W68095  22.516  19.451   7.057 -0.0718 -0.0225 -0.0098
25158W        W68096  24.565  17.915   7.265  0.2912  0.0004 -0.2638
25159W        W68097  24.980  19.738   6.031  0.1723 -0.2112 -0.3107
25160W        W68098  24.085  19.314   4.577 -0.1714  0.1140  0.2979
25161W        W68099  21.811  19.950   4.092  0.1317 -0.0075  0.3177
25162W        W68100  22.961  21.377   5.388 -0.1255 -0.0341 -0.2861
25163W        W68101  20.040  19.972   4.181 -0.1281  0.1227  0.0480
25164W        W68102  22.391  19.865   5.363  0.0211  0.1768 -0.2554
25165W        W68103  23.803  20.285   4.607 -0.0385  0.0156 -0.1367
25166W        W68104  24.394  18.262   4.942 -0.0994 -0.2231 -0.1031
25167W        W68105  22.527  19.649   8.813 -0.0851 -0.0264  0.3248
25168W        W68106  24.026  21.485   7.363  0.1440 -0.0801  0.0667
25169W        W68107  21.912  20.264   3.181 -0.3000  0.0908 -0.2707
25170W        W68108  21.983  20.516   8.313  0.2579  0.0643  0.1856
25171W        W68109  23.867  19.113   5.105  0.1353 -0.1721  0.2764
25172W        W68110  24.697  19.002   3.045 -0.3578  0.0436  0.0928
25173W        W68111  23.216  20.396   7.582 -0.0041  0.0313 -0.3689
25174W        W68112  24.235  20.221   4.334 -0.0493  0.1303  0.0511
25175W        W68113  24.195  18.213   2.585 -0.1325 -0.0702  0.3077
25176W        W68114  23.613  18.603   3.139  0.1172  0.0440  0.1244
25177W        W68115  21.736  20.848   8.586  0.2640 -0.0905 -0.1245
25178W        W68116  22.928  19.656   4.131 -0.0401  0.1596  0.0470
25179W        W68117  22.725  20.154   6.547  0.1822  0.3424  0.1362
25180W        W68118  23.404  18.893   4.264  0.0172  0.1041 -0.3610
25181W        W68119  25.010  20.126   4.732 -0.1075 -0.0882 -0.2270
25182W        W68120  21.713  20.317   7.039 -0.0473  0.0401  0.0671
25183W        W68121  23.365  18.528   7.563  0.0619  0.0465  0.1472
25184W        W68122  22.476  20.082   4.586 -0.0362 -0.1212  0.0422
25185W        W68123  23.234  17.990   7.492 -0.5486  0.1757 -0.0199
25186W        W68124  23.445  19.741   3.911  0.1738  0.0142  0.0364
25187W        W68125  23.033  18.515   5.362 -0.3951  0.2255  0.1727
25188W        W68126  20.375  20.142   3.740  0.0433 -0.2332 -0.2222
25189W        W68127  24.853  17.525   7.126 -0.0165 -0.0605  0.0881
25190W        W68128  24.691  18.162   6.338 -0.0990 -0.1928 -0.0717
25191W        W68129  24.116  18.715   6.353 -0.1209  0.2557 -0.0851
25192W        W68130  23.035  18.442   7.106  0.0225 -0.0313 -0.1038
25193W        W68131  24.187  18.634   3.005  0.1871 -0.1187  0.1188
25194W        W68132  23.459  18.352   6.772  0.1322 -0.1907  0.1397
25195W        W68133  22.175  19.365   4.436  0.2171 -0.1487 -0.1399
25196W        W68134  23.608  18.221   7.203 -0.2064  0.1976  0.3156
25197W        W68135  22.806  20.145   7.407 -0.2037  0.0234 -0.2127
25198W        W68136  20.249  19.344   7.626 -0.2496 -0.0547 -0.2461
25199W        W68137  23.511  21.824   6.568 -0.1251  0.2651 -0.1525
25200W        W68138  24.400  21.339   5.195 -0.1369 -0.0001 -0.2872
25201W        W68139  25.610  17.838   7.547  0.1243 -0.2250  0.0359
25202W        W68140  22.751  18.022   4.629 -0.1424  0.0281 -0.2293
25203W        W68141  22.242  21.906   4.406 -0.3509  0.0613 -0.0929
25204W        W68142  23.150  21.786   5.063 -0.2509  0.0287  0.3983
25205W        W68143  23.494  17.732   5.614  0.4038  0.0625 -0.0816
25206W        W68144  23.152  20.830   6.804 -0.0957 -0.0720 -0.0669
25207W        W68145  22.261  20.385   3.547  0.1932  0.1627 -0.1444
25208W        W68146  23.982  20.460   6.806  0.0820 -0.1487  0.3554
25209W        W68147  22.260  20.649   3.947  0.3641 -0.1900 -0.1438
25210W        W68148  24.456  18.873   4.490  0.3033  0.1800  0.2947
25211W        W68149  20.986  19.907   5.446  0.0422  0.1914 -0.1712
25212W        W68150  21.675  19.190   3.430  0.0577 -0.2840 -0.0664
25213W        W68151  22.670  19.282   3.780 -0.0885  0.1256  0.0538
25214W        W68152  25.561  17.910   3.748 -0.0757  0.1952 -0.0123
25215W        W68153  24.454  19.755   4.056 -0.4221  0.0325 -0.0840
25216W        W68154  21.926  19.068   5.846  0.1282 -0.0160 -0.1524
25217W        W68155  22.786  19.120   6.183  0.0768  0.0471 -0.3108
25218W        W68156  22.297  21.081   7.495  0.2495 -0.3404 -0.0369
25219W        W68157  23.447  20.548   7.076 -0.0396  0.0017  0.0628
25220W        W68158  25.031  18.090   3.993  0.1302 -0.1699 -0.2361
25221W        W68159  23.405  21.532   6.159  0.0156  0.1388 -0.1297
25222W        W68160  22.324  19.885   6.628  0.0958 -0.1150 -0.2770
25223W        W68161  22.600  18.722   4.572 -0.1768 -0.0964  0.0399
25224W        W68162  23.309  18.581   6.167  0.0069 -0.0676 -0.3012
25225W        W68163  23.291  19.078   6.177 -0.0207 -0.2897 -0.0947
25226W        W68164  21.119  20.623   4.022 -0.2421  0.0377 -0.1222
25227W        W68165  22.104  21.676   5.527 -0.0878 -0.1402 -0.5244
25228W        W68166  23.266  19.244   4.988  0.1184  0.0421 -0.0851
25229W        W68167  21.645  21.107   4.570 -0.0200  0.2940 -0.2328
25230W        W68168  22.417  18.660   7.498 -0.0973 -0.0455  0.2264
25231W        W68169  23.664  19.334   6.441 -0.0824  0.0906  0.1367
25232W        W68170  23.542  20.609   6.538 -0.1984 -0.0444 -0.1254
25233W        W68171  22.281  18.726   5.841 -0.1131 -0.0464 -0.1467
25234W        W68172  23.350  20.072   7.156 -0.0125 -0.0094 -0.1242
25235W        W68173  23.382  20.740   5.992  0.0837 -0.2056  0.2032
25236W        W68174  24.382  19.135   6.600 -0.0438 -0.3014  0.2446
25237W        W68175  21.750  20.063   7.674  0.0114 -0.1507  0.2382
25238W        W68176  24.724  18.813   5.687 -0.0953  0.2113  0.2278
25239W        W68177  24.236  20.750   4.487  0.5434 -0.2534  0.1190
25240W        W68178  23.417  20.934   7.583  0.1858 -0.0754  0.0690
25241W        W68179  22.038  21.195   4.274  0.1128  0.1041 -0.2035
25242W        W68180  21.900  21.037   6.237 -0.1297 -0.1278  0.4071
25243W        W68181  22.332  20.701   5.651  0.2711 -0.0260  0.3089
25244W        W68182  23.962  19.303   6.903  0.1448  0.0748 -0.0671
25245W        W68183  20.733  20.236   5.754  0.0636 -0.1506  0.0985
25246W        W68184  22.638  20.248   3.894 -0.2214  0.0321 -0.2945
25247W        W68185  22.018  20.623   6.067 -0.1098  0.1176 -0.0752
25248W        W68186  25.032  17.813   4.636 -0.0425  0.2478 -0.1664
25249W        W68187  22.776  20.316   3.419 -0.2064  0.1826 -0.3364
25250W        W68188  24.236  16.997   5.491 -0.0690 -0.0038  0.1659
25251W        W68189  26.271  17.072   6.960  0.0036  0.0296  0.2577
25252W        W68190  23.276  19.688   5.247  0.2585 -0.0611  0.0641
25253W        W68191  25.835  17.844   7.101  0.0074 -0.2980  0.1332
25254W        W68192  22.454  17.306   7.324 -0.1498  0.1072  0.1083
25255W        W68193  25.455  19.771   4.888 -0.2612  0.0935  0.3366
25256W        W68194  22.196  18.464   7.057  0.1086  0.2276  0.0393
25257W        W68195  23.560  21.405   7.539 -0.1315  0.0241 -0.0780
25258W        W68196  22.964  19.137   7.986 -0.1122 -0.1015 -0.0787
25259W        W68197  23.289  19.166   5.534 -0.1149 -0.2154  0.2611
25260W        W68198  21.831  18.666   3.297  0.2406 -0.0388 -0.0987
25261W        W68199  22.960  21.505   5.867 -0.1960 -0.1843 -0.0112
25262W        W68200  24.333  19.666   6.257  0.1842  0.0178 -0.1012
25263W        W68201  22.980  20.548   5.705 -0.2328 -0.3091 -0.1858
25264W        W68202  24.769  18.504   4.765 -0.2433 -0.1888  0.0544
25265W        W68203  20.627  19.146   5.847  0.2610 -0.1794  0.1915
25266W        W68204  23.848  18.807   5.512 -0.2450 -0.0283 -0.0874
25267W        W68205  23.844  19.952   3.447 -0.0813 -0.2189 -0.1386
25268W        W68206  23.159  19.971   6.362  0.0751 -0.0178 -0.0714
25269W        W68207  22.987  18.922   6.559  0.0607 -0.4011 -0.2307
25270W        W68208  24.029  19.243   5.627  0.1084  0.0362 -0.1536
25271W        W68209  23.432  18.794   5.178  0.0932  0.3218 -0.0308
25272W        W68210  24.343  17.995   6.775 -0.0925 -0.0622  0.2016
25273W        W68211  23.664  19.781   6.268  0.1410 -0.4169  0.3504
25274W        W68212  22.559  19.734   7.459  0.0529 -0.0453  0.1268
25275W        W68213  23.084  19.579   7.251  0.1336 -0.3914  0.1415
25276W        W68214  24.582  21.795   6.845  0.2150  0.0622 -0.2128
25277W        W68215  25.101  18.829   3.435 -0.0949 -0.0516 -0.1822
25278W        W68216  25.218  16.536   6.666  0.0359  0.0758  0.0294
25279W        W68217  24.886  19.100   3.818  0.0378 -0.1267 -0.1105
25280W        W68218  23.674  19.251   3.918  0.2205  0.3171 -0.3063
25281W        W68219  23.624  19.388   5.902  0.1542  0.0049 -0.0286
25282W        W68220  23.525  20.269   6.166 -0.0464 -0.2698  0.2584
25283W        W68221  23.173  19.265   3.911  0.6217 -0.1546 -0.2775
25284W        W68222  24.866  19.882   5.591 -0.0583  0.0576 -0.3217
25285W        W68223  24.248  21.648   3.504 -0.1295 -0.0657 -0.0079
25286W        W68224  24.175  19.646   4.963 -0.0788  0.0476  0.3412
25287W        W68225  24.238  19.346   4.043  0.1826  0.2223  0.2128
25288W        W68226  21.613  19.654   4.395  0.1273 -0.0862 -0.0548
25289W        W68227  22.211  21.661   8.075  0.4640  0.0238 -0.4039
25290W        W68228  21.952  17.786   2.900  0.1868 -0.1005  0.0240
25291W        W68229  23.663  18.980   4.695  0.0094 -0.0610 -0.0873
25292W        W68230  24.041  20.629   5.011  0.1089 -0.0662  0.1033
25293W        W68231  24.709  21.040   7.316  0.1561 -0.4316 -0.0208
25294W        W68232  23.600  18.482   4.153 -0.3444 -0.0152  0.3074
25295W        W68233  25.528  18.798   6.239  0.0194  0.1536  0.0085
25296W        W68234  22.884  20.769   3.166  0.2283  0.1202  0.0275
25297W        W68235  23.821  18.413   5.851  0.0956 -0.1404  0.1304
25298W        W68236  22.208  20.915   6.588 -0.1304 -0.0052  0.1430
25299W        W68237  22.447  20.132   7.065  0.1501  0.2029 -0.0377
25300W        W68238  23.220  20.828   4.622 -0.0044  0.0745 -0.2149
25301W        W68239  24.935  17.967   6.819  0.1620 -0.1510 -0.1728
25302W        W68240  24.954  20.623   5.042  0.2758 -0.5571  0.1783
25303W        W68241  23.927  20.158   5.810 -0.1531 -0.0937 -0.1810
25304W        W68242  25.103  20.267   6.091 -0.0321 -0.0255  0.1791
25305W        W68243  22.643  20.619   6.597 -0.0535 -0.5127 -0.0302
25306W        W68244  22.010  19.441   5.165  0.2336 -0.2093  0.0674
25307W        W68245  22.544  22.016   5.713  0.1911 -0.2361 -0.1273
25308W        W68246  25.399  18.422   3.605 -0.1670 -0.0881  0.1045
25309W        W68247  23.981  19.816   4.489  0.1917 -0.0899 -0.1299
25310W        W68248  22.062  18.133   7.496 -0.1688  0.0649  0.0745
25311W        W68249  23.607  20.087   6.713  0.1720 -0.0360  0.1324
25312W        W68250  23.748  18.873   6.025  0.3038 -0.1819  0.3010
25313W        W68251  22.811  18.135   5.995  0.0956  0.1491  0.2617
25314W        W68252  23.085  21.298   3.216 -0.0110  0.3330 -0.0941
25315W        W68253  21.214  21.212   9.461 -0.3172 -0.5854 -0.1814
25316W        W68254  21.750  20.750   5.634 -0.0957  0.1388 -0.1882
25317W        W68255  21.781  20.957   3.887  0.1076 -0.3872 -0.0210
25318W        W68256  24.857  20.069   4.292  0.1319  0.2366 -0.0410
25319W        W68257  23.638  20.194   3.099  0.1677 -0.1121 -0.1218
25320W        W68258  22.852  21.038   5.824 -0.2803  0.0492  0.0471
25321W        W68259  23.144  19.560   2.454 -0.2052  0.2779  0.0358
25322W        W68260  22.480  21.172   5.560  0.2421  0.1830  0.3390
25323W        W68261  21.603  19.658   4.890  0.1938 -0.2796  0.1728
25324W        W68262  22.959  20.002   4.441  0.3068 -0.2250  0.2584
25325W        W68263  23.464  21.563   3.611  0.0415  0.1551 -0.0547
25326W        W68264  23.856  20.142   7.169  0.1134  0.2444 -0.1840
25327W        W68265  23.565  17.764   3.132  0.2467  0.0211  0.1227
25328W        W68266  24.460  18.808   5.012 -0.2830  0.0369 -0.1789
25329W        W68267  24.269  19.253   2.591 -0.1765  0.0619  0.1838
25330W        W68268  22.551  20.569   7.454 -0.0199 -0.1443 -0.0691
25331W        W68269  22.914  20.700   5.188  0.0368  0.0999 -0.1928
25332W        W68270  23.824  17.915   4.310  0.0357  0.2500  0.0654
25333W        W68271  23.455  19.675   6.860  0.0062  0.1238 -0.1116
25334W        W68272  26.052  17.475   6.752 -0.0350  0.0105  0.2715
25335W        W68273  22.245  21.580   7.558 -0.1261  0.0811 -0.3370
25336W        W68274  24.358  21.574   4.043 -0.3146  0.3673 -0.1507
25337W        W68275  22.447  18.598   5.259  0.1126 -0.1375 -0.0508
25338W        W68276  22.490  19.048   6.579 -0.1273  0.1762  0.0924
25339W        W68277  25.056  18.944   6.019  0.2457  0.1411 -0.0411
25340W        W68278  23.098  20.118   3.944 -0.1956 -0.0827  0.2354
25341W        W68279  24.055  19.674   5.857  0.0112 -0.0900 -0.0739
25342W        W68280  22.908  20.608   4.222  0.0740 -0.0197  0.1118
25343W        W68281  23.104  20.238   5.306 -0.1260 -0.2592 -0.1986
25344W        W68282  23.142  21.068   6.231 -0.2012  0.2585  0.3638
25345W        W68283  21.387  18.995   3.037  0.2350  0.1450 -0.0228
25346W        W68284  26.396  18.199   4.775 -0.2156  0.2697  0.1079
25347W        W68285  23.078  17.986   6.993 -0.4431  0.0904 -0.2167
25348W        W68286  24.056  18.405   4.352  0.0524  0.0958 -0.3017
25349W        W68287  21.983  19.893   4.545  0.1419 -0.2416 -0.1673
25350W        W68288  25.265  18.792   3.931  0.0378 -0.0518 -0.1958
25351W        W68289  24.099  20.847   6.606  0.1566 -0.0030 -0.2290
25352W        W68290  21.818  19.402   7.300 -0.1798  0.1413 -0.0153
25353W        W68291  23.524  19.384   4.383  0.1374  0.1426 -0.2144
25354W        W68292  24.688  20.849   5.495  0.2617  0.2631 -0.4106
25355W        W68293  22.471  20.426   2.995 -0.2204  0.0628  0.0079
25356W        W68294  24.525  21.374   5.668 -0.1408  0.1054  0.2189
25357W        W68295  23.035  17.404   5.476 -0.0349 -0.1718 -0.1498
25358W        W68296  24.984  17.981   3.537 -0.3433 -0.0531  0.0264
25359W        W68297  22.323  19.235   6.116  0.1268 -0.2597  0.0899
25360W        W68298  23.227  19.097   7.357 -0.0051  0.0527 -0.0514
25361W        W68299  23.802  21.404   6.788  0.0621  0.0372 -0.0725
25362W        W68300  21.751  18.487   4.155  0.2182  0.0630 -0.1815
25363W        W68301  25.225  22.043   4.104  0.0179  0.0192 -0.0968
25364W        W68302  25.256  18.866   5.469  0.0556 -0.0498  0.1176
25365W        W68303  23.812  22.141   2.947 -0.2006  0.0220 -0.2227
25366W        W68304  24.829  18.565   5.300  0.1438  0.3403  0.2295
25367W        W68305  23.479  19.867   4.387  0.1226  0.0057 -0.0244
25368W        W68306  22.259  20.297   6.357 -0.0451 -0.1365 -0.2395
25369W        W68307  24.108  21.790   5.863 -0.2192  0.4147  0.0586
25370W        W68308  23.862  20.350   5.356 -0.2338 -0.0332  0.0084
25371W        W68309  23.922  16.807   5.152 -0.0213 -0.0212 -0.1122
25372W        W68310  23.859  20.807   5.752 -0.0362  0.0908  0.2522
25373W        W68311  20.648  20.042   3.308 -0.4467 -0.2674 -0.0111
25374W        W68312  24.522  19.591   5.347  0.3773 -0.2185 -0.1888
25375W        W68313  25.369  17.690   7.131 -0.0690 -0.0414  0.3702
25376W        W68314  23.340  19.969   3.524  0.0508  0.1562 -0.0614
25377W        W68315  24.659  18.461   7.174  0.1130  0.0628  0.0498
25378W        W68316  22.946  19.774   6.823 -0.1209 -0.0293 -0.0571
25379W        W68317  22.240  21.025   8.181 -0.1182 -0.1317  0.2475
25380W        W68318  21.220  19.965   4.600  0.2588  0.0694  0.2451
25381W        W68319  21.873  20.816   7.831 -0.0847 -0.3533  0.0314
25382W        W68320  22.871  19.832   3.597 -0.0183  0.1698  0.1175
25383W        W68321  22.397  20.819   3.283  0.0272  0.3356  0.1652
25384W        W68322  25.763  19.671   5.420 -0.0308  0.0833  0.1028
25385W        W68323  23.398  18.624   5.664 -0.1465 -0.1874 -0.1405
25386W        W68324  24.403  20.426   5.279 -0.1505 -0.3673 -0.1101
25387W        W68325  22.979  18.313   6.534  0.0623 -0.0061  0.0255
25388W        W68326  25.616  18.374   4.604  0.2636  0.2773 -0.0754
25389W        W68327  23.657  19.586   4.831  0.2592 -0.1829 -0.0617
25390W        W68328  22.273  21.434   6.969 -0.1833 -0.0161 -0.0815
25391W        W68329  21.899  18.930   4.382 -0.1157 -0.0061  0.2544
25392W        W68330  20.658  20.399   2.928  0.0669  0.1867 -0.1514
25393W        W68331  21.602  20.203   5.586 -0.0484 -0.4115 -0.0384
25394W        W68332  24.303  17.899   7.706 -0.1775  0.1125 -0.1551
25395W        W68333  22.384  17.331   6.266 -0.1908  0.0637 -0.1389
25396W        W68334  21.479  18.496   5.353 -0.0880  0.2635  0.0925
25397W        W68335  23.802  19.578   5.309  0.0480  0.1676 -0.0781
25398W        W68336  24.291  19.771   3.466 -0.1399  0.1049  0.1509
25399W        W68337  23.845  17.568   6.365 -0.1934  0.2850  0.3458
25400W        W68338  22.617  18.544   6.707  0.2445 -0.3692  0.2119
25401W        W68339  23.795  21.094   4.194 -0.2112  0.1351 -0.2204
25402W        W68340  23.457  20.535   5.050 -0.0024 -0.1220 -0.2407
25403W        W68341  23.789  17.929   5.976  0.0894  0.2730 -0.1587
25404W        W68342  23.614  20.396   8.036  0.0560  0.0420 -0.1864
25405W        W68343  22.773  19.920   3.034 -0.3943 -0.1263 -0.2132
25406W        W68344  24.480  18.515   6.704  0.0350 -0.0823  0.2550
25407W        W68345  23.972  18.415   6.774 -0.3369  0.4368  0.1089
25408W        W68346  21.828  18.259   2.535  0.1142 -0.1229  0.0397
25409W        W68347  23.512  18.553   4.666 -0.1033 -0.1247 -0.4771
25410W        W68348  23.470  21.449   5.200 -0.4472  0.0545 -0.0287
25411W        W68349  25.013  21.464   3.383 -0.2049  0.0118 -0.1210
25412W        W68350  22.121  20.127   5.816  0.3634  0.1515 -0.2227
25413W        W68351  23.294  22.072   6.022 -0.0606 -0.0690  0.0127
25414W        W68352  22.400  16.957   5.905 -0.1272 -0.0976 -0.0685
25415W        W68353  24.046  18.729   4.712 -0.0475 -0.0866 -0.0477
25416W        W68354  22.753  21.315   6.753  0.2892 -0.1522  0.2910
25417W        W68355  25.467  20.168   4.528  0.2462 -0.1831 -0.0664
25418W        W68356  25.870  19.280   4.410  0.1950  0.2072 -0.2199
25419W        W68357  23.948  19.798   3.984  0.0331 -0.1926 -0.3195
25420W        W68358  21.656  17.117   8.131  0.1395  0.0923 -0.0464
25421W        W68359  22.165  19.700   6.203 -0.2618  0.1243 -0.4110
25422W        W68360  24.509  20.073   5.929 -0.0231 -0.2075 -0.2562
25423W        W68361  22.624  18.351   4.175 -0.0784  0.0891 -0.0814
25424W        W68362  24.932  18.723   4.296  0.0392 -0.3484  0.1628
25425W        W68363  22.227  20.978   4.709  0.1494 -0.0397 -0.2194
25426W        W68364  22.550  20.446   6.016  0.0691 -0.1342 -0.1998
25427W        W68365  24.025  18.426   3.486  0.4247 -0.0940  0.0028
25428W        W68366  23.572  19.949   7.584  0.3049  0.0471  0.1704
25429W        W68367  23.739  20.002   5.018 -0.0845 -0.0665 -0.1394
25430W        W68368  24.395  20.147   6.984  0.1566  0.1242 -0.2334
25431W        W68369  23.551  18.714   3.662  0.2237  0.0127  0.0806
25432W        W68370  24.753  18.443   2.290 -0.0865 -0.2027  0.2474
25433W        W68371  24.341  22.225   6.041  0.0016  0.0818 -0.1089
25434W        W68372  24.503  22.335   6.524  0.0922  0.1802 -0.1375
25435W        W68373  23.435  21.615   7.083 -0.2914  0.1687 -0.2660
25436W        W68374  24.032  20.086   6.359 -0.1909  0.1748 -0.3057
25437W        W68375  21.495  16.889   4.449 -0.0389  0.2941 -0.0127
25438W        W68376  23.099  19.587   6.042 -0.2870  0.0947 -0.0239
25439W        W68377  23.509  19.881   5.790 -0.1377 -0.3997 -0.2743
25440W        W68378  24.976  17.867   5.683 -0.1613 -0.0763  0.1811
25441W        W68379  22.758  18.583   6.165  0.0847 -0.0984  0.0282
25442W        W68380  22.703  18.163   5.166  0.2340  0.1308 -0.2012
25443W        W68381  21.576  22.927   7.804  0.1865  0.3205 -0.0666
25444W        W68382  24.128  19.220   6.132  0.1332  0.3775 -0.0666
25445W        W68383  22.301  19.950  10.062  0.0234 -0.2704  0.1013
25446W        W68384  22.022  19.720   8.879 -0.2202  0.1384 -0.0748
25447W        W68385  25.019  18.041   7.378 -0.2138  0.1802  0.0299
25448W        W68386  24.768  19.297   6.313 -0.1074  0.0628  0.0300
25449W        W68387  22.070  17.899  10.267 -0.1582 -0.2258  0.3723
25450W        W68388  23.829  20.717   8.563  0.0694  0.0682 -0.0890
25451W        W68389  24.516  19.479   9.537 -0.0701  0.0257  0.1174
25452W        W68390  24.712  19.778   9.909  0.2229  0.2248 -0.0527
25453W        W68391  23.764  19.316   9.517 -0.2701  0.0411 -0.2540
25454W        W68392  21.362  19.675  10.379  0.1511  0.0508 -0.0291
25455W        W68393  21.951  17.425   7.878  0.1212 -0.0822 -0.1112
25456W        W68394  23.715  18.009   8.982  0.0384  0.0787  0.2487
25457W        W68395  25.176  20.201   9.821 -0.1125  0.0177 -0.0498
25458W        W68396  22.831  20.304   8.465  0.1951 -0.0505 -0.3809
25459W        W68397  24.256  18.679   9.424 -0.1961 -0.0923  0.0978
25460W        W68398  23.546  19.272   8.204 -0.1786 -0.0934 -0.4459
25461W        W68399  22.496  20.979   8.976 -0.3440  0.2873  0.0164
25462W        W68400  24.102  17.443   9.605  0.0139  0.1131 -0.2046
25463W        W68401  23.310  19.998   8.597  0.0482 -0.1339  0.1965
25464W        W68402  23.002  19.352   8.441 -0.0437  0.0915  0.0933
25465W        W68403  21.031  19.258  10.155 -0.0055 -0.0563  0.5194
25466W        W68404  22.289  16.585   9.312  0.0914  0.0061  0.2014
25467W        W68405  23.882  18.434   8.999 -0.0867 -0.1288  0.0153
25468W        W68406  23.710  19.936   8.926 -0.1930  0.0501 -0.2608
25469W        W68407  22.222  20.871   9.431  0.1185 -0.0499 -0.2576
25470W        W68408  22.621  20.288  10.335  0.1158 -0.0729  0.2416
25471W        W68409  20.799  20.920   9.326 -0.1887 -0.3295 -0.1598
25472W        W68410  20.760  22.675   8.134  0.2733 -0.0569  0.0437
25473W        W68411  22.473  22.449   9.091 -0.0099  0.1276 -0.1054
25474W        W68412  24.129  20.565   7.277 -0.2383  0.3029  0.3128
25475W        W68413  21.185  21.085   8.474 -0.0194 -0.1286 -0.0891
25476W        W68414  24.738  19.007   9.446 -0.0215  0.1761 -0.2776
25477W        W68415  23.126  19.755   9.751 -0.3322 -0.0901 -0.1903
25478W        W68416  21.923  20.123   9.162  0.1099  0.1154 -0.0787
25479W        W68417  24.375  20.673   8.321 -0.0473  0.2397 -0.0294
25480W        W68418  21.708  21.450   9.282  0.0943 -0.0027  0.1446
25481W        W68419  21.977  20.075   8.112 -0.0730  0.0209  0.0851
25482W        W68420  24.225  19.781   7.270 -0.1112  0.3040 -0.1656
25483W        W68421  24.614  18.633   6.149 -0.1150  0.0912 -0.0730
25484W        W68422  24.396  19.249   7.197 -0.0678 -0.5044 -0.0697
25485W        W68423  24.498  17.125   7.835 -0.4164 -0.5197  0.0060
25486W        W68424  22.158  21.307   9.702 -0.1944 -0.0143 -0.0753
25487W        W68425  26.246  15.030  10.993  0.0985 -0.3508 -0.0306
25488W        W68426  23.333  19.815  10.309 -0.3852  0.1129  0.1247
25489W        W68427  22.375  19.490  11.194  0.0998  0.0224  0.2721
25490W        W68428  19.987  22.035  10.425 -0.0751 -0.1722  0.0097
25491W        W68429  22.640  18.166  10.443 -0.0979  0.1397 -0.0521
25492W        W68430  24.684  22.468   7.473 -0.1590  0.1512  0.1207
25493W        W68431  23.981  19.722   6.685  0.2074  0.0047  0.1066
25494W        W68432  23.805  21.370   8.408 -0.2486  0.0423 -0.0704
25495W        W68433  21.640  19.519   8.586  0.1142  0.3360  0.0187
25496W        W68434  23.714  17.954   6.747  0.0052  0.0881 -0.0510
25497W        W68435  26.066  18.853   7.677 -0.3174  0.4036  0.0561
25498W        W68436  23.114  20.549   9.697 -0.1733  0.1294  0.1908
25499W        W68437  23.471  21.089  10.332 -0.0159  0.1099  0.2502
25500W        W68438  23.685  20.522   7.508 -0.0394  0.2426 -0.1339
25501W        W68439  23.848  18.429   7.980 -0.0993  0.1827  0.1151
25502W        W68440  24.945  18.176   9.760 -0.0010 -0.0731 -0.3134
25503W        W68441  23.189  20.213   8.159  0.2009 -0.1665  0.0769
25504W        W68442  23.879  18.954   9.181  0.2833 -0.1779 -0.0379
25505W        W68443  27.066  19.475   9.762 -0.0948  0.1956  0.1591
25506W        W68444  23.883  19.090   7.406 -0.1132  0.0112  0.1442
25507W        W68445  22.528  22.012   9.259  0.0123  0.0713 -0.3142
25508W        W68446  21.868  21.302   7.335  0.2615  0.3447 -0.2615
25509W        W68447  20.645  21.340   9.845  0.4158  0.2514 -0.1406
25510W        W68448  21.114  20.002   8.471 -0.2620  0.1064 -0.0555
25511W        W68449  20.945  20.419   9.488  0.0656  0.1083  0.0390
25512W        W68450  21.676  21.085   9.606  0.2247  0.0867  0.1804
25513W        W68451  25.446  17.478   8.651  0.0180 -0.1017  0.0251
25514W        W68452  24.792  19.020   7.827 -0.0103 -0.1245 -0.0312
25515W        W68453  20.836  21.881   8.838 -0.1874 -0.3510 -0.1091
25516W        W68454  23.250  20.988   8.990 -0.0367 -0.0042 -0.2876
25517W        W68455  24.314  18.931   8.275  0.0451 -0.1729  0.0712
25518W        W68456  22.947  21.679   6.438  0.0220  0.1555  0.2112
25519W        W68457  20.624  20.045   9.511  0.2606  0.1101  0.2197
25520W        W68458  23.219  19.004  10.943  0.1100  0.3576 -0.0307
25521W        W68459  22.227  19.308   9.973  0.1002 -0.0532  0.3325
25522W        W68460  21.559  18.185   6.369  0.1429  0.2361  0.1062
25523W        W68461  23.305  18.941   8.431 -0.1856  0.1290 -0.1306
25524W        W68462  23.477  18.910  10.120 -0.0527  0.0390 -0.0251
25525W        W68463  21.001  21.274  10.301  0.2877  0.0004  0.2243
25526W        W68464  22.887  20.517   7.103  0.0904 -0.1485  0.2450
25527W        W68465  26.754  23.338   9.356  0.1470 -0.0108  0.1451
25528W        W68466  24.385  20.071   9.544 -0.0542 -0.0223 -0.0833
25529W        W68467  23.777  20.084  10.269  0.0992 -0.1743  0.3962
25530W        W68468  21.053  19.073   5.457  0.0947 -0.0910 -0.0215
25531W        W68469  21.005  21.605   9.913 -0.2836  0.2060 -0.1820
25532W        W68470  22.245  20.313   9.664 -0.0814  0.0302  0.2031
25533W        W68471  22.609  18.105   8.324  0.3199  0.1854  0.0849
25534W        W68472  25.210  21.314   8.511 -0.2643 -0.2662 -0.0455
25535W        W68473  21.689  18.268  10.212  0.0576  0.2821  0.1269
25536W        W68474  24.805  18.720   9.955 -0.1394 -0.4023 -0.0701
25537W        W68475  24.847  21.088   9.913  0.2235  0.0919  0.1211
25538W        W68476  21.629  18.107   6.965  0.0512 -0.0244 -0.1203
25539W        W68477  23.174  21.269   7.984 -0.1283  0.1393  0.2082
25540W        W68478  21.092  18.830   8.045 -0.2177  0.0371  0.0383
25541W        W68479  21.891  19.370  10.369 -0.4431  0.0503 -0.0188
25542W        W68480  23.498  22.388   9.850 -0.0491  0.1103 -0.0692
25543W        W68481  26.419  18.389   8.512 -0.2746 -0.0716  0.0276
25544W        W68482  21.923  19.299   8.188 -0.0281 -0.2233  0.1620
25545W        W68483  24.093  17.636   8.135  0.2136  0.2680 -0.0569
25546W        W68484  24.402  18.510   7.966  0.1576  0.1123  0.0049
25547W        W68485  24.301  21.200   8.345 -0.1750  0.2127  0.3919
25548W        W68486  23.571  17.650   7.297 -0.0471 -0.5444  0.1709
25549W        W68487  25.068  15.601   8.263  0.0872 -0.0899  0.0488
25550W        W68488  23.373  19.300   9.884  0.1470 -0.1696 -0.0482
25551W        W68489  23.910  19.812   9.476 -0.1718 -0.2598  0.0138
25552W        W68490  23.836  17.054   6.424 -0.0799  0.1040 -0.0243
25553W        W68491  24.869  21.694   7.465  0.1040  0.4063  0.1400
25554W        W68492  22.245  20.967  10.027  0.1886  0.1146 -0.0012
25555W        W68493  23.377  21.119   8.482  0.2609  0.1845  0.0238
25556W        W68494  21.903  16.644   8.278 -0.1623  0.2055 -0.0461
25557W        W68495  23.232  19.687   8.188  0.0857  0.0373 -0.3097
25558W        W68496  23.500  19.538   8.633  0.0777 -0.1908 -0.1122
25559W        W68497  21.434  21.306   8.048 -0.1846 -0.1280  0.2609
25560W        W68498  25.027  17.628   8.427 -0.2081 -0.2447 -0.1487
25561W        W68499  24.426  18.087   8.224 -0.2203  0.1179 -0.0747
25562W        W68500  24.050  19.358   8.172 -0.1815 -0.0057  0.4456
25563W        W68501  23.360  20.178   9.941 -0.0517 -0.2379 -0.0873
25564W        W68502  22.411  17.801   7.655 -0.0363  0.3893 -0.3621
25565W        W68503  23.830  18.444   9.459 -0.3588 -0.1431  0.3199
25566W        W68504  22.550  21.668   9.607  0.0108 -0.1130 -0.3318
25567W        W68505  24.488  20.392   7.876  0.0044  0.3136 -0.0003
25568W        W68506  24.283  18.802   7.028 -0.2201  0.1438  0.1706
25569W        W68507  22.815  20.809   9.284  0.2645  0.0727  0.1388
25570W        W68508  22.296  20.552   7.919 -0.1788  0.1703  0.0411
25571W        W68509  22.632  17.484   8.350 -0.0389 -0.2397 -0.2109
25572W        W68510  23.146  20.336  10.401  0.2955 -0.0676  0.1382
25573W        W68511  22.337  20.168   7.640 -0.3711 -0.1330  0.1140
25574W        W68512  24.682  20.371   9.257 -0.0017 -0.0296  0.0319
25575W        W68513  21.780  22.250   8.274 -0.1610  0.1533 -0.0602
25576W        W68514  25.515  17.507  10.261 -0.1148 -0.0053  0.0906
25577W        W68515  20.770  20.752   9.819  0.1006  0.1173 -0.3554
25578W        W68516  22.905  18.260   7.933 -0.0199 -0.0316  0.0885
25579W        W68517  22.909  18.707   7.649  0.0810  0.0285  0.0324
25580W        W68518  25.535  18.643   7.703  0.0808  0.3967 -0.2069
25581W        W68519  24.500  19.642   6.710 -0.0853 -0.1592  0.1354
25582W        W68520  22.926  16.875   9.687 -0.0969 -0.2158  0.1143
25583W        W68521  22.046  18.832   9.141 -0.1220 -0.1672  0.0451
25584W        W68522  21.388  20.109  10.143 -0.0224 -0.0458  0.2552
25585W        W68523  23.760  18.800   8.335 -0.0322 -0.0191  0.0169
25586W        W68524  21.399  18.799   7.607 -0.1093 -0.0096  0.0521
25587W        W68525  27.235  19.846   9.378  0.2866  0.2049  0.0966
25588W        W68526  23.669  17.388   8.405 -0.3389  0.0205 -0.3274
25589W        W68527  20.281  20.232   9.820 -0.2717 -0.2421 -0.1174
25590W        W68528  24.051  19.488   9.957 -0.1871 -0.1447 -0.1124
25591W        W68529  22.583  19.516   7.944 -0.1324  0.1491 -0.0516
25592W        W68530  22.239  21.532   9.247 -0.0856 -0.1204  0.1655
25593W        W68531  21.861  20.084  10.230  0.1607  0.1626  0.1464
25594W        W68532  22.657  21.096  10.451  0.1834 -0.2679 -0.2537
25595W        W68533  22.649  18.234   8.831  0.0788  0.0308 -0.3654
25596W        W68534  23.803  21.258   9.791  0.5394 -0.0279  0.1322
25597W        W68535  24.053  20.687   7.909  0.0063 -0.0011 -0.0914
25598W        W68536  24.964  18.169   8.193  0.4019 -0.3364  0.0148
25599W        W68537  24.673  17.172   9.648 -0.1054  0.1166 -0.0523
25600W        W68538  25.474  22.031   6.900  0.2304 -0.0919 -0.0678
25601W        W68539  22.423  20.165   8.177 -0.0123 -0.0999  0.1222
25602W        W68540  22.038  19.802   9.622 -0.2171  0.2344 -0.1240
25603W        W68541  23.652  19.842   8.242 -0.2161  0.0191  0.6178
25604W        W68542  23.486  18.588   8.714 -0.0584  0.2649 -0.1457
25605W        W68543  22.090  20.608   8.853 -0.1315 -0.0505  0.0642
25606W        W68544  22.033  21.204   8.912 -0.1356 -0.1361 -0.0112
25607W        W68545  21.431  20.237   9.392  0.0863 -0.1113  0.1015
25608W        W68546  24.182  17.164   8.357  0.6093  0.1321  0.1305
25609W        W68547  23.196  20.523   9.145 -0.1305 -0.2272  0.0411
25610W        W68548  22.548  19.201   8.382 -0.0237 -0.0697 -0.1697
25611W        W68549  23.604  20.945   8.072  0.0827  0.2048  0.0142
25612W        W68550  22.090  17.477   9.389 -0.0929  0.1577 -0.0684
25613W        W68551  24.301  19.299   7.701 -0.0149 -0.0292 -0.0504
25614W        W68552  24.337  17.907   8.849  0.0059  0.2363  0.1617
25615W        W68553  23.330  18.020   8.023  0.1763 -0.2221  0.3949
25616W        W68554  23.736  20.624  10.445  0.3980  0.0067 -0.0039
25617W        W68555  25.029  21.245   7.624 -0.2299 -0.2907 -0.1104
25618W        W68556  24.046  20.217   8.164  0.0614 -0.0512  0.1879
25619W        W68557  25.637  19.130   7.862 -0.2101 -0.1738  0.0979
25620W        W68558  22.392  19.345   9.292  0.0513  0.2851  0.4392
25621W        W68559  24.502  18.432   9.018 -0.2339 -0.1116  0.0656
25622W        W68560  22.816  17.803   7.962 -0.0282  0.1295  0.0423
25623W        W68561  23.103  18.760   9.102  0.1240 -0.0449  0.0354
25624W        W68562  24.145  19.745   7.779 -0.0347  0.2386  0.2234
25625W        W68563  23.269  18.193   8.939  0.0763 -0.1395 -0.0077
25626W        W68564  24.724  21.575   9.709 -0.1401 -0.2769 -0.2901
25627W        W68565  24.423  18.775   7.552 -0.1159 -0.1336 -0.1766
25628W        W68566  27.922  17.829   9.056 -0.1875  0.1999  0.2783
25629W        W68567  25.545  16.302   8.786  0.1216  0.1224 -0.0309
25630W        W68568  24.174  18.779   8.819  0.0668  0.0279  0.1136
25631W        W68569  22.505  18.443   9.373  0.0592  0.1953  0.1280
25632W        W68570  23.758  17.151   7.447  0.2790 -0.1276  0.3485
25633W        W68571  22.702  20.956   8.009  0.1378  0.1904  0.0277
25634W        W68572  23.499  20.776   9.405 -0.4316 -0.2873 -0.1958
25635W        W68573  23.669  19.507   7.286 -0.0876 -0.1172 -0.1424
25636W        W68574  22.949  17.726   8.632  0.1362 -0.1020  0.0312
25637W        W68575  22.571  18.904   9.183 -0.0721 -0.1005  0.1730
25638W        W68576  23.389  19.116   8.934  0.1802 -0.0724  0.1613
25639W        W68577  22.161  19.709   8.415 -0.1018 -0.0718  0.0869
25640W        W68578  23.880  17.500   6.861 -0.3887 -0.3002  0.2003
25641W        W68579  22.757  20.582   8.877 -0.1166 -0.1055  0.1644
25642W        W68580  24.809  19.042   8.430 -0.2856 -0.1545  0.1340
25643W        W68581  24.583  20.906   9.465  0.1416  0.1248  0.0834
25644W        W68582  24.514  19.067  10.105 -0.2727 -0.1513 -0.2539
25645W        W68583  23.815  18.625   7.501 -0.0006  0.2344 -0.0441
25646W        W68584  23.405  19.581   9.326 -0.1067 -0.0140 -0.1832
25647W        W68585  22.228  20.472  10.141  0.0249  0.0790 -0.1587
25648W        W68586  24.838  19.877   9.434  0.1150  0.0588 -0.0602
25649W        W68587  22.710  21.266   9.299  0.2009 -0.4131  0.2747
25650W        W68588  22.412  20.458   9.225 -0.3030 -0.4061  0.1426
25651W        W68589  21.955  18.519   8.391  0.3258 -0.0435 -0.0403
25652W        W68590  22.814  20.080   8.905 -0.1388  0.0286 -0.1118
25653W        W68591  20.298  19.738   9.316 -0.0949 -0.2167  0.0454
25654W        W68592  22.613  21.327   8.379 -0.0252 -0.4013 -0.1136
25655W        W68593  24.601  20.091   8.308  0.2519  0.2800 -0.0566
25656W        W68594  24.152  18.345   7.274 -0.1093  0.0084  0.1558
25657W        W68595  23.388  22.591  10.481  0.0044 -0.3022  0.0146
25658W        W68596  22.280  19.309   7.530  0.3935  0.0551  0.0528
25659W        W68597  21.289  20.730   9.341 -0.2646  0.2050  0.0778
25660W        W68598  21.806  21.674   8.827  0.0992  0.0050 -0.0174
25661W        W68599  24.630  22.052   7.737 -0.0345  0.1494 -0.2710
25662W        W68600  23.040  22.328  10.153  0.0765 -0.5046  0.1501
25663W        W68601  25.309  17.005   8.341 -0.2703 -0.2494  0.0617
25664W        W68602  24.705  19.738   8.687  0.2591  0.3832  0.0633
25665W        W68603  25.246  18.277   7.850  0.0996  0.0589 -0.0544
25666W        W68604  22.058  18.825  10.106 -0.2417  0.1221 -0.2169
25667W        W68605  24.259  17.026   7.271 -0.1558 -0.0123 -0.1359
25668W        W68606  23.995  21.221   7.919 -0.0616 -0.1754  0.1432
25669W        W68607  22.344  18.941   7.968 -0.1567  0.0377  0.0601
25670W        W68608  25.550  19.941   9.468  0.1147 -0.1096 -0.2327
25671W        W68609  25.391  18.025   9.823  0.0272 -0.2061  0.0001
25672W        W68610  23.353  20.606   8.500 -0.0007 -0.0387  0.0873
25673W        W68611  23.625  19.798   9.919  0.1008 -0.0045 -0.3513
25674W        W68612  22.367  21.691   8.793  0.0709  0.0461  0.0662
25675W        W68613  21.755  20.680   9.967 -0.1240  0.1660  0.0806
25676W        W68614  20.328  22.935  10.001  0.0244 -0.0467  0.2799
25677W        W68615  22.803  18.172   7.459  0.0335 -0.2170  0.2233
25678W        W68616  24.886  19.489   7.766  0.0749  0.0415 -0.1925
25679W        W68617  21.301  19.430   9.675  0.2161 -0.0271  0.2693
25680W        W68618  22.222  19.213   8.762  0.0154 -0.0411 -0.0873
25681W        W68619  24.046  17.906   7.149  0.1747  0.0853 -0.0192
25682W        W68620  22.575  20.617   9.818 -0.1753  0.0576  0.1337
25683W        W68621  20.662  19.710  10.966 -0.1042  0.1601 -0.1423
25684W        W68622  23.303  18.570   8.072  0.1348  0.0688  0.0713
25685W        W68623  22.725  19.622   6.347  0.1319 -0.0207  0.2725
25686W        W68624  23.323  18.384   9.370 -0.2623 -0.0991 -0.2264
25687W        W68625  23.698  19.494   7.808  0.2355  0.1673  0.0219
25688W        W68626  21.454  19.927   8.876 -0.1507  0.2365 -0.0697
25689W        W68627  23.239  19.122   9.406 -0.0335  0.0253  0.5591
25690W        W68628  21.787  18.305   8.803 -0.1204 -0.1649  0.1495
25691W        W68629  23.956  21.036   7.487  0.0086 -0.1487 -0.0729
25692W        W68630  23.825  20.242   9.708  0.1629  0.2217 -0.4459
25693W        W68631  22.673  21.301   7.239  0.0691  0.2061 -0.0853
25694W        W68632  25.430  17.851   8.304 -0.0647  0.0582 -0.1946
25695W        W68633  25.505  20.756   9.279 -0.3312 -0.0803  0.1735
25696W        W68634  23.321  18.439   9.904 -0.2328 -0.0199  0.0259
25697W        W68635  23.073  18.900   9.859 -0.1493 -0.1192 -0.0889
25698W        W68636  24.318  19.236   9.118 -0.2378 -0.1960 -0.0077
25699W        W68637  23.094  18.196   8.420 -0.4096  0.2226 -0.1449
25700W        W68638  22.311  18.339   9.960  0.0461  0.0464  0.0826
25701W        W68639  19.610  21.940   8.912 -0.1181 -0.2832 -0.3628
25702W        W68640  25.979  19.032   9.626 -0.0964  0.2411 -0.1478
25703W        W68641  23.576  20.435   8.891 -0.0360  0.0044  0.0914
25704W        W68642  24.238  20.585   9.668  0.4552  0.0173 -0.2383
25705W        W68643  21.725  19.780   6.837 -0.1501 -0.0287  0.0199
25706W        W68644  22.869  19.612   9.337  0.3651 -0.0063 -0.0128
25707W        W68645  23.090  21.551   8.415 -0.0360  0.2165  0.2030
25708W        W68646  26.028  20.202   9.857 -0.1387 -0.1191  0.3666
25709W        W68647  23.595  18.268   8.362  0.1370 -0.1137  0.2141
25710W        W68648  25.087  20.713   9.034  0.1436 -0.1557 -0.0977
25711W        W68649  22.451  18.703   8.675 -0.1997 -0.0655  0.0719
25712W        W68650  25.912  17.275   8.326  0.1436 -0.0340  0.0223
25713W        W68651  23.828  19.214   8.617  0.0308  0.2241 -0.1014
25714W        W68652  23.377  17.398  10.475  0.1091 -0.1711 -0.0325
25715W        W68653  21.341  19.258   8.289 -0.0096  0.3586  0.1214
25716W        W68654  22.771  19.798   8.358  0.0965  0.3926 -0.0070
25717W        W68655  22.721  19.173   9.639  0.4896  0.0295  0.0527
25718W        W68656  21.632  19.714   9.937  0.0461 -0.2433 -0.1469
25719W        W68657  22.109  17.443   8.431  0.2968  0.0128  0.0926
25720W        W68658  23.629  20.981   7.044  0.1659  0.3267  0.2083
25721W        W68659  22.877  18.108   9.447  0.1695  0.0946  0.2917
25722W        W68660  22.890  18.019   9.979  0.0812  0.0965  0.1161
25723W        W68661  25.249  20.337   9.288 -0.0742  0.0304 -0.0515
25724W        W68662  24.245  21.660   8.585  0.2211  0.2365  0.1637
25725W        W68663  21.935  18.954   7.578 -0.0493  0.1545 -0.0488
25726W        W68664  22.036  20.920   7.077 -0.1399 -0.1681 -0.1366
25727W        W68665  21.438  18.648   8.463  0.0396 -0.0379  0.3920
25728W        W68666  24.707  18.059   9.371  0.0370 -0.1317  0.4364
25729W        W68667  24.138  20.264   8.672 -0.0002 -0.1928  0.0255
25730W        W68668  22.909  20.912   7.514  0.0416 -0.1882  0.0306
25731W        W68669  21.725  20.217   9.784 -0.2579  0.0975 -0.2282
25732W        W68670  25.198  19.143   8.114  0.1929 -0.0990 -0.0820
25733W        W68671  24.191  21.089   7.047  0.0804  0.0404  0.1734
25734W        W68672  27.160  19.603   8.956 -0.0070 -0.0151 -0.1301
25735W        W68673  24.066  19.777   8.504 -0.0480 -0.2600  0.0681
25736W        W68674  26.788  20.033   8.892 -0.3423  0.0393 -0.1163
25737W        W68675  21.315  17.730   8.630  0.0518  0.1580 -0.0275
25738W        W68676  23.461  19.024   7.782  0.3291  0.1617 -0.0322
25739W        W68677  24.450  21.501   7.684  0.0957  0.4346 -0.2172
25740W        W68678  20.802  20.292  10.058 -0.1927  0.0890 -0.2156
25741W        W68679  23.815  18.012   7.638  0.1054 -0.0024 -0.1762
25742W        W68680  22.813  18.494   9.804  0.1806  0.1560 -0.0397
25743W        W68681  22.936  19.424  10.081  0.0671  0.2019  0.0609
25744W        W68682  23.178  20.678   7.986 -0.1560  0.3569 -0.0081
25745W        W68683  24.312  20.756   9.024 -0.0868  0.1095  0.0642
25746W        W68684  22.350  19.913   9.273  0.0854  0.0676  0.0310
25747W        W68685  26.789  18.674   8.652 -0.0952 -0.0943  0.1715
25748W        W68686  23.508  17.893  10.171  0.0756  0.2484  0.0092
25749W        W68687  22.388  17.727   8.706 -0.0910  0.0293  0.0581
25750W        W68688  22.695  19.309  10.836  0.1434 -0.3825  0.1179
25751W        W68689  25.235  18.046   9.289 -0.2222 -0.2243  0.0403
25752W        W68690  22.099  17.951   9.122  0.0673  0.0936  0.2132
25753W        W68691  23.161  17.510   7.696  0.0397  0.1433  0.0235
25754W        W68692  21.634  22.697  10.233  0.1579  0.1806 -0.2457
25755W        W68693  24.360  18.564  10.549  0.2106 -0.2973 -0.1052
25756W        W68694  20.917  23.434   2.925  0.3112  0.0054  0.1180
25757W        W68695  22.980  23.020   1.941  0.4749  0.0951 -0.0780
25758W        W68696  25.222  22.904  30.429  0.1502 -0.2800  0.0890
25759W        W68697  25.021  23.424   0.200  0.0019 -0.1539  0.1402
25760W        W68698  20.957  21.921  31.869  0.2207  0.1335 -0.3525
25761W        W68699  23.804  24.837   0.899 -0.3144  0.2337  0.1155
25762W        W68700  21.574  21.328   2.297  0.1747  0.0412  0.0044
25763W        W68701  23.645  25.504   2.095  0.0134 -0.1938 -0.1119
25764W        W68702  25.004  24.158   2.395 -0.0735 -0.2250  0.0655
25765W        W68703  24.224  22.883   0.293 -0.1789  0.0183 -0.2275
25766W        W68704  24.213  22.468   3.091  0.2170 -0.2429 -0.0150
25767W        W68705  21.579  24.559   1.824 -0.0617  0.0513 -0.1070
25768W        W68706  22.302  22.856  30.564 -0.1154  0.0964 -0.2480
25769W        W68707  21.339  22.402   2.471 -0.0248  0.0496  0.0511
25770W        W68708  25.016  21.556   2.894 -0.0528  0.0653 -0.1067
25771W        W68709  21.226  22.806   0.660  0.2228 -0.0138  0.0949
25772W        W68710  21.216  23.644   1.858  0.2037  0.1253 -0.0503
25773W        W68711  23.510  22.216   0.203 -0.1811 -0.1364  0.3439
25774W        W68712  22.449  25.592   1.092 -0.1964 -0.3270  0.0493
25775W        W68713  22.504  22.840   3.006  0.0234  0.2355  0.1351
25776W        W68714  23.376  23.306   2.154  0.1674 -0.0568 -0.1740
25777W        W68715  22.788  25.032   0.024  0.0824  0.0764  0.2023
25778W        W68716  19.912  21.782  31.320 -0.2290 -0.1410 -0.0731
25779W        W68717  20.055  22.517   3.363 -0.0550  0.0585  0.2488
25780W        W68718  22.224  23.653   2.645 -0.0097  0.0311  0.0183
25781W        W68719  22.116  23.334   1.544  0.1848  0.2497 -0.0035
25782W        W68720  25.109  22.296   2.151 -0.0755  0.2081 -0.1387
25783W        W68721  22.090  25.253   1.273 -0.0295  0.0778  0.2530
25784W        W68722  22.548  23.687   1.665  0.1309  0.1088 -0.3401
25785W        W68723  23.567  22.928   4.076 -0.0767 -0.0519  0.3522
25786W        W68724  21.882  23.089   1.141  0.1291 -0.1272  0.1138
25787W        W68725  21.158  24.869   0.944 -0.2170 -0.2597  0.0235
25788W        W68726  22.385  26.627   1.066  0.2332  0.2953  0.1914
25789W        W68727  24.283  25.390   0.931 -0.1233 -0.3769 -0.1594
25790W        W68728  23.037  25.373   3.512  0.3367  0.1311 -0.0656
25791W        W68729  22.422  24.833   3.218  0.0923  0.2512  0.1274
25792W        W68730  22.483  24.976   1.409  0.2017  0.0010  0.1233
25793W        W68731  22.602  23.978   2.922 -0.0608  0.0031 -0.1073
25794W        W68732  21.895  25.222   3.288 -0.1031 -0.0872 -0.0674
25795W        W68733  23.988  23.288   2.910  0.0356  0.0161 -0.1742
25796W        W68734  22.683  23.676   1.166 -0.0283 -0.0236  0.4728
25797W        W68735  21.628  26.527  31.958  0.1444 -0.0354  0.0068
25798W        W68736  23.708  23.542   0.864 -0.1506  0.1932 -0.0898
25799W        W68737  22.568  23.215   2.348  0.0053  0.0042 -0.0130
25800W        W68738  21.935  24.081   3.601  0.2383 -0.3036  0.0750
25801W        W68739  25.511  22.296   3.821  0.2393 -0.1408  0.0965
25802W        W68740  23.107  24.222   0.617 -0.3230 -0.1448 -0.0538
25803W        W68741  24.954  21.915  31.304 -0.3977  0.2315 -0.5429
25804W        W68742  22.475  22.339  30.366 -0.0247 -0.1914  0.5570
25805W        W68743  23.155  23.177  31.761 -0.2089 -0.1637  0.4444
25806W        W68744  24.160  21.493   1.909  0.0414  0.3062  0.2107
25807W        W68745  22.842  26.427   1.560  0.1145 -0.1133  0.0966
25808W        W68746  22.047  22.975   2.291  0.0782 -0.2085 -0.0351
25809W        W68747  23.601  23.495   2.624 -0.1833 -0.0512 -0.3095
25810W        W68748  23.414  24.264   1.594  0.0183 -0.3970 -0.0442
25811W        W68749  23.349  24.970   2.154  0.0651 -0.0644  0.0936
25812W        W68750  21.887  23.613   3.433 -0.4829  0.1077 -0.1782
25813W        W68751  20.440  22.560   1.933  0.1877 -0.0484 -0.2054
25814W        W68752  24.200  23.699   0.859  0.1131 -0.2822  0.2458
25815W        W68753  23.712  25.111   1.762 -0.1804  0.0594  0.0392
25816W        W68754  24.083  24.501   1.173  0.4145  0.0444  0.0211
25817W        W68755  19.911  21.664   0.414  0.0299 -0.0538 -0.1323
25818W        W68756  20.805  23.185   3.400  0.0856  0.0034 -0.0921
25819W        W68757  20.722  23.699   4.558  0.1381  0.1182 -0.2090
25820W        W68758  22.412  20.538  30.384 -0.0510  0.3315 -0.0951
25821W        W68759  24.973  23.485   3.002 -0.1372 -0.0886 -0.1731
25822W        W68760  20.788  25.386   3.714 -0.0521 -0.1656 -0.1806
25823W        W68761  25.701  21.214   0.597  0.0266  0.3006 -0.0079
25824W        W68762  21.756  24.414   0.978  0.0624 -0.0774 -0.1883
25825W        W68763  23.767  24.048   1.810 -0.0257 -0.0672  0.3009
25826W        W68764  24.623  23.426  31.256  0.1051  0.2432  0.2130
25827W        W68765  22.989  22.624   2.227 -0.0610 -0.1063  0.2470
25828W        W68766  24.398  23.086   2.634 -0.0019  0.4885 -0.1983
25829W        W68767  21.324  22.393   0.982 -0.2189 -0.2701  0.0195
25830W        W68768  22.328  22.557   1.562  0.0367  0.0167 -0.1998
25831W        W68769  23.517  26.640   2.443  0.1672 -0.0638  0.1533
25832W        W68770  24.978  22.584  31.782 -0.2050 -0.1832 -0.2066
25833W        W68771  21.422  23.079   2.460  0.0581 -0.1553  0.2112
25834W        W68772  23.264  22.063   3.426 -0.2408  0.1649 -0.3168
25835W        W68773  23.200  23.421   3.518 -0.0491  0.2652 -0.0403
25836W        W68774  21.326  24.670  31.555 -0.1440 -0.1350 -0.1440
25837W        W68775  20.929  23.531   2.372 -0.3572  0.3504 -0.0006
25838W        W68776  21.725  23.439   1.840 -0.0043 -0.1064  0.2355
25839W        W68777  21.963  22.420   1.843 -0.0068  0.0722  0.0641
25840W        W68778  21.932  23.792   1.492  0.0160  0.0121  0.0524
25841W        W68779  23.748  23.250   1.699  0.1241 -0.0025  0.2296
25842W        W68780  21.095  22.672   3.391  0.1099  0.1250  0.0075
25843W        W68781  23.857  21.566   1.185 -0.3624  0.1283  0.1630
25844W        W68782  21.387  23.317   1.446 -0.3475 -0.1027 -0.0473
25845W        W68783  24.915  23.457   1.144  0.2715 -0.1968  0.2080
25846W        W68784  24.512  23.027   0.603 -0.0189  0.2296  0.2408
25847W        W68785  25.378  23.323   1.141 -0.0545 -0.0502 -0.0182
25848W        W68786  20.298  23.055   3.375 -0.0441  0.0849 -0.2380
25849W        W68787  21.655  22.089   1.300  0.0709 -0.0639 -0.1469
25850W        W68788  22.455  22.225   3.358  0.3726  0.1519 -0.0897
25851W        W68789  22.112  21.246   0.543 -0.1378  0.0778 -0.0820
25852W        W68790  24.326  25.009   2.497  0.1193 -0.0527  0.0178
25853W        W68791  20.098  19.792  31.403  0.1476  0.0766  0.1880
25854W        W68792  25.277  22.645   0.944  0.3801 -0.1019 -0.1797
25855W        W68793  23.524  22.289  31.685 -0.0888  0.1766 -0.1104
25856W        W68794  23.000  23.583   0.739  0.0161 -0.0802  0.0508
25857W        W68795  24.978  20.905   3.634 -0.1880 -0.4184 -0.3567
25858W        W68796  23.592  24.360   1.102 -0.0785  0.1866 -0.2186
25859W        W68797  22.992  26.772   2.491 -0.2240  0.1473  0.0109
25860W        W68798  23.927  26.709   1.193  0.0656 -0.0943 -0.1046
25861W        W68799  21.141  21.176   4.279 -0.0765  0.2235 -0.1456
25862W        W68800  20.516  20.898   0.227  0.0455  0.0600  0.1723
25863W        W68801  21.746  26.471   0.492 -0.0691  0.1957  0.3517
25864W        W68802  22.678  23.102  31.878  0.0649  0.2898  0.1556
25865W        W68803  22.963  22.398   0.762  0.1205 -0.0387 -0.0689
25866W        W68804  25.343  25.094   2.847  0.1466  0.0525 -0.1451
25867W        W68805  23.416  25.550   1.554 -0.1273  0.0641  0.0082
25868W        W68806  22.080  22.546   3.760 -0.1640  0.0419  0.0980
25869W        W68807  23.758  22.479   3.482  0.1022  0.0701 -0.0291
25870W        W68808  24.187  22.206   2.105 -0.0564  0.1819 -0.1189
25871W        W68809  22.716  22.293   1.998  0.0097 -0.2145 -0.3997
25872W        W68810  19.489  19.991  30.857  0.2453  0.0976 -0.2640
25873W        W68811  22.716  24.423   1.524  0.0184 -0.0550  0.0635
25874W        W68812  21.423  24.753   0.130 -0.2260 -0.1524  0.0909
25875W        W68813  21.406  24.568   1.358  0.0042 -0.2282  0.0900
25876W        W68814  22.469  25.819   1.527 -0.2945  0.1567 -0.1936
25877W        W68815  23.548  23.172   0.118 -0.0015 -0.1195  0.0336
25878W        W68816  20.455  23.164   3.860 -0.0899 -0.0632  0.1391
25879W        W68817  22.759  22.381   3.875 -0.1877 -0.3435 -0.2167
25880W        W68818  22.330  21.731  31.684  0.0513  0.2057  0.0255
25881W        W68819  22.907  24.306   3.086 -0.0934 -0.1023 -0.0559
25882W        W68820  24.165  22.628   1.180  0.2025  0.0349  0.1690
25883W        W68821  24.252  21.954   0.426  0.1346 -0.1012  0.0916
25884W        W68822  23.790  24.298   2.769 -0.0293  0.1091 -0.2690
25885W        W68823  24.370  24.029   0.454 -0.1057  0.1241  0.1697
25886W        W68824  23.450  22.460  30.822  0.1712  0.1178 -0.0513
25887W        W68825  24.308  20.702  31.653  0.0865  0.0587 -0.2338
25888W        W68826  20.489  23.508   3.208 -0.0005  0.1101 -0.4038
25889W        W68827  22.957  25.027   0.527 -0.1704  0.0102 -0.3842
25890W        W68828  24.015  23.667   1.640  0.4357  0.0308  0.1125
25891W        W68829  23.160  21.740  31.821  0.3404  0.1887  0.2752
25892W        W68830  24.515  24.508   1.447 -0.1132 -0.1015 -0.0103
25893W        W68831  20.249  24.703   2.927 -0.2368 -0.0975 -0.1763
25894W        W68832  23.781  24.484   3.740  0.1780 -0.0405 -0.0106
25895W        W68833  25.200  23.885   1.068  0.1792 -0.1197  0.0024
25896W        W68834  22.649  23.214   0.858  0.3148 -0.0964  0.2493
25897W        W68835  23.077  23.073   0.407  0.0996  0.0180 -0.2052
25898W        W68836  22.789  22.334   1.401 -0.1125 -0.0538 -0.2533
25899W        W68837  21.741  26.452  30.953 -0.0754  0.0850 -0.0998
25900W        W68838  26.015  22.816   2.178 -0.1440 -0.0124  0.1856
25901W        W68839  24.074  22.683   1.794  0.2077 -0.2529  0.0795
25902W        W68840  23.123  21.974   3.980  0.0440 -0.1901 -0.0143
25903W        W68841  25.009  21.989   2.615 -0.0832  0.0372 -0.0469
25904W        W68842  23.756  22.929  30.949  0.1645 -0.1123  0.1386
25905W        W68843  22.677  24.934   1.841  0.1009  0.1575  0.2463
25906W        W68844  21.896  22.774  31.786 -0.0887  0.1451 -0.1574
25907W        W68845  24.445  23.527   2.907  0.0260  0.0429 -0.1430
25908W        W68846  21.042  23.947   3.674  0.1212  0.0690  0.0439
25909W        W68847  21.454  24.177   2.347 -0.0337 -0.2574 -0.0920
25910W        W68848  23.867  22.971   3.703  0.2683  0.1640  0.2214
25911W        W68849  23.238  24.815   0.912  0.3462 -0.1473  0.0755
25912W        W68850  23.003  21.156   4.358  0.1090  0.0247  0.1573
25913W        W68851  22.336  21.587  31.145 -0.0162 -0.2044  0.3700
25914W        W68852  22.623  25.824   1.969  0.2536  0.1846 -0.0142
25915W        W68853  22.785  23.967   0.367 -0.4029  0.0970 -0.1464
25916W        W68854  23.714  22.065   1.966 -0.2332  0.0986 -0.3361
25917W        W68855  21.997  25.658   1.604 -0.0267 -0.0185 -0.2789
25918W        W68856  22.272  24.579   1.734  0.0137  0.2061 -0.0218
25919W        W68857  23.846  24.033   1.323 -0.2111 -0.1428  0.2368
25920W        W68858  22.708  26.157   1.169 -0.1897 -0.4197 -0.0243
25921W        W68859  24.216  22.072   1.074 -0.1562 -0.0869 -0.2589
25922W        W68860  21.138  23.914   0.210  0.2204  0.0242 -0.0318
25923W        W68861  22.226  23.091   0.706  0.1036 -0.0848  0.0102
25924W        W68862  21.003  22.121   0.740  0.1316  0.1790  0.1166
25925W        W68863  23.371  22.124   0.690 -0.0065 -0.4058  0.3939
25926W        W68864  25.265  22.966  31.901 -0.0572 -0.0907  0.2003
25927W        W68865  22.537  22.357   2.930  0.1645  0.0554  0.1698
25928W        W68866  23.431  22.530   2.626 -0.0639 -0.0570 -0.0412
25929W        W68867  22.737  24.158   0.910  0.1043  0.0149  0.5620
25930W        W68868  22.701  23.677   2.465  0.0945  0.0879 -0.0442
25931W        W68869  23.347  23.564   0.425  0.3128  0.0116 -0.2704
25932W        W68870  23.095  25.625   1.896  0.2815 -0.1910  0.1703
25933W        W68871  23.078  23.184   2.570 -0.2867 -0.1059 -0.2738
25934W        W68872  20.139  21.281   1.496  0.1338 -0.1020 -0.2263
25935W        W68873  24.522  22.964   1.932 -0.0047 -0.1381 -0.0030
25936W        W68874  21.685  22.205   0.134  0.0652  0.0432 -0.0579
25937W        W68875  22.234  26.102   0.973  0.0920 -0.1180 -0.1488
25938W        W68876  21.848  24.311   2.699  0.2456  0.1111  0.1155
25939W        W68877  21.685  23.363   0.650  0.0187  0.0725 -0.1080
25940W        W68878  23.531  24.563   0.512  0.3286 -0.1531 -0.1266
25941W        W68879  23.396  22.527   3.820 -0.1234 -0.1299  0.2932
25942W        W68880  24.808  22.833   2.322  0.1874  0.0687 -0.1448
25943W        W68881  23.074  22.096   2.864 -0.5635 -0.1300 -0.1599
25944W        W68882  22.357  22.972   1.327 -0.0439  0.0722 -0.0439
25945W        W68883  22.739  21.329   3.579  0.0589 -0.2254  0.0440
25946W        W68884  23.649  23.959   2.443  0.1131  0.1498 -0.3274
25947W        W68885  22.531  22.782   2.008 -0.1395  0.2348 -0.2303
25948W        W68886  22.862  23.761   3.332  0.0509  0.0838  0.0203
25949W        W68887  23.468  22.796   1.911 -0.0675  0.0046  0.1371
25950W        W68888  26.455  26.950  31.583  0.2719  0.0424  0.0028
25951W        W68889  24.192  23.114   1.638  0.0362 -0.1581  0.1235
25952W        W68890  21.289  23.214   0.909  0.2867 -0.0168  0.2734
25953W        W68891  20.856  23.406   1.607 -0.1038  0.1699 -0.2489
25954W        W68892  21.183  23.188   2.021  0.0627  0.1606 -0.3205
25955W        W68893  23.356  22.452   3.142 -0.3736  0.2769  0.0497
25956W        W68894  21.597  23.870   2.814 -0.0212  0.0801  0.0880
25957W        W68895  22.856  25.447   1.444  0.1474  0.0163  0.0110
25958W        W68896  22.367  23.608   3.164  0.2430  0.0800  0.3181
25959W        W68897  24.593  23.642  31.665 -0.0942  0.2283 -0.0571
25960W        W68898  24.476  24.231  31.944 -0.0589  0.0534 -0.2430
25961W        W68899  23.228  22.182   1.174  0.2478 -0.1816  0.0779
25962W        W68900  25.680  23.580   3.010 -0.1156 -0.0219  0.0124
25963W        W68901  24.424  23.526   0.335  0.1826  0.2189 -0.1187
25964W        W68902  25.137  21.079   2.517 -0.0498  0.2472  0.1641
25965W        W68903  22.041  21.575   2.367 -0.2408  0.0763 -0.1840
25966W        W68904  23.922  25.085   2.218  0.0350 -0.2003  0.2365
25967W        W68905  20.699  21.898   3.074  0.1429 -0.2418  0.0664
25968W        W68906  24.295  24.839   4.947 -0.1854  0.3189 -0.0169
25969W        W68907  20.397  22.698   4.396 -0.1828 -0.2069 -0.1922
25970W        W68908  23.215  23.376   1.615  0.1033 -0.2812  0.0454
25971W        W68909  22.180  21.928   0.120 -0.0288 -0.2598  0.1427
25972W        W68910  21.244  23.196   3.622  0.1785 -0.2091  0.0259
25973W        W68911  24.146  24.596   2.243 -0.2927 -0.1542  0.2255
25974W        W68912  23.492  24.043   0.337  0.0668 -0.0429 -0.0297
25975W        W68913  25.062  22.144   1.017 -0.1051 -0.1448  0.0805
25976W        W68914  20.704  22.955   2.923 -0.0815  0.1432 -0.4354
25977W        W68915  23.944  23.046   2.134  0.1765 -0.0575  0.1913
25978W        W68916  23.693  23.614  31.523 -0.1842  0.3765  0.3490
25979W        W68917  22.438  23.673   0.694  0.3796  0.1663 -0.4514
25980W        W68918  21.804  22.522   2.614 -0.1223  0.1947  0.1846
25981W        W68919  25.210  23.221   1.633  0.0463  0.0846 -0.0448
25982W        W68920  25.436  22.849   0.511  0.0389 -0.2339  0.1834
25983W        W68921  23.826  23.575   2.093 -0.0584  0.0942 -0.2674
25984W        W68922  22.975  22.605   2.884  0.1490 -0.0718  0.1297
25985W        W68923  22.215  23.103   2.708 -0.0118 -0.0862 -0.0414
25986W        W68924  21.273  22.507   5.064  0.0970  0.3348  0.0799
25987W        W68925  23.171  25.152   1.749 -0.0877  0.1436 -0.0341
25988W        W68926  23.952  22.346   0.233 -0.0652 -0.0445 -0.0921
25989W        W68927  25.552  20.809   2.384 -0.1517  0.2088  0.2806
25990W        W68928  23.929  22.747   2.724 -0.2632 -0.2996  0.2187
25991W        W68929  23.082  24.413   1.144  0.0997  0.0083  0.0288
25992W        W68930  22.886  21.519   1.723  0.2903 -0.0962  0.0203
25993W        W68931  23.374  22.969   2.906  0.1283  0.2627 -0.2670
25994W        W68932  22.531  22.120   1.013  0.2643 -0.2492  0.1198
25995W        W68933  24.159  23.444   2.462  0.0309  0.1940 -0.2670
25996W        W68934  22.500  22.628  31.596 -0.0289 -0.0498  0.2865
25997W        W68935  24.072  25.439   1.716  0.2836  0.0569  0.1224
25998W        W68936  23.939  23.743   0.387 -0.0429 -0.1143 -0.1947
25999W        W68937  21.854  22.252  31.085 -0.0181 -0.1974 -0.0162
26000W        W68938  21.737  23.172   3.731  0.1078 -0.0494  0.0796
26001W        W68939  20.984  21.641  28.564  0.2134 -0.3607  0.0882
26002W        W68940  22.729  23.255   1.466  0.0034  0.1694 -0.0899
26003W        W68941  23.149  24.644   1.823 -0.0736  0.0438  0.2387
26004W        W68942  25.680  23.499   2.351  0.0513  0.0221 -0.1648
26005W        W68943  22.672  21.982  31.893 -0.1473 -0.2050 -0.1287
26006W        W68944  24.113  23.405   3.394 -0.0494 -0.1953 -0.1815
26007W        W68945  21.791  25.731   0.264 -0.3559 -0.0169  0.1674
26008W        W68946  24.020  21.008   2.772 -0.1767  0.1178 -0.1586
26009W        W68947  20.872  26.652   2.322 -0.0328 -0.1762 -0.3491
26010W        W68948  20.577  23.782   2.686 -0.2539  0.4182  0.0201
26011W        W68949  23.293  24.309   2.622  0.3473  0.0057  0.2219
26012W        W68950  23.342  22.893   3.398 -0.1507 -0.2839 -0.0443
26013W        W68951  24.270  22.700   2.263  0.0023 -0.2147 -0.1371
26014W        W68952  21.747  22.921   2.952 -0.2496 -0.1549 -0.3415
26015W        W68953  27.014  23.687   2.260 -0.3456  0.2317 -0.1421
26016W        W68954  21.956  24.506   2.139 -0.0315  0.2694 -0.2699
26017W        W68955  20.888  23.076   1.199  0.2282  0.1018 -0.2019
26018W        W68956  22.957  25.249   2.225  0.1469  0.1241 -0.2283
26019W        W68957  25.253  23.277   2.221 -0.0145 -0.1084 -0.1075
26020W        W68958  22.763  24.720   0.837  0.0875  0.1848 -0.3281
26021W        W68959  20.587  22.589   3.275  0.0774  0.0095  0.3212
26022W        W68960  22.463  22.790   4.040 -0.0190  0.0404 -0.0989
26023W        W68961  23.690  24.622   1.937 -0.1785  0.2501  0.1250
26024W        W68962  22.132  22.638   0.459 -0.0122 -0.0274 -0.0539
26025W        W68963  21.516  24.379  31.099 -0.2596 -0.0300 -0.2370
26026W        W68964  21.997  24.028   4.205  0.0967  0.1870  0.4029
26027W        W68965  21.512  24.381   3.152  0.0750  0.0844  0.1954
26028W        W68966  22.238  27.176   1.835  0.0873 -0.1065 -0.0118
26029W        W68967  24.068  23.788  31.905 -0.2709  0.2077 -0.1175
26030W        W68968  24.239  24.224   2.607  0.0969  0.1840 -0.0636
26031W        W68969  23.132  25.996   1.510 -0.0166 -0.0129 -0.0258
26032W        W68970  22.532  22.211   0.420 -0.2294 -0.4352  0.0705
26033W        W68971  21.053  23.598   1.152 -0.1611  0.2005  0.1519
26034W        W68972  21.567  25.062  31.360 -0.0260 -0.2364 -0.1736
26035W        W68973  24.222  25.380  31.368 -0.0674 -0.1636 -0.0068
26036W        W68974  23.083  26.103   3.081 -0.2120  0.2599  0.1057
26037W        W68975  23.573  25.240   2.533  0.0630 -0.4503 -0.3791
26038W        W68976  24.628  22.623   0.936 -0.1849 -0.0885 -0.0699
26039W        W68977  23.576  22.966   2.429  0.0771  0.1900 -0.1836
26040W        W68978  24.379  23.561   1.305  0.4154  0.0802  0.0094
26041W        W68979  23.076  25.077   2.762 -0.0061 -0.1870 -0.0249
26042W        W68980  23.377  23.776   1.877 -0.1077 -0.1566 -0.0371
26043W        W68981  22.220  22.571   1.032 -0.0605 -0.0642 -0.1163
26044W        W68982  21.360  23.490   3.205 -0.2867  0.1005 -0.3298
26045W        W68983  25.189  20.773   1.999  0.0095  0.1443  0.3187
26046W        W68984  20.621  25.476   3.121  0.2640  0.1548  0.0536
26047W        W68985  23.305  24.240   2.080  0.1208  0.0412 -0.0556
26048W        W68986  22.300  21.407   0.132 -0.0209 -0.1821 -0.0290
26049W        W68987  23.153  23.437   2.968 -0.1938  0.2100 -0.0138
26050W        W68988  26.722  22.852   3.476  0.1086  0.1467  0.0854
26051W        W68989  21.958  24.545   0.310  0.0243 -0.1524  0.0751
26052W        W68990  22.707  22.735   1.084  0.0444 -0.0818 -0.2271
26053W        W68991  23.054  26.292   2.034  0.0556  0.2098  0.3997
26054W        W68992  22.451  24.419   2.184 -0.1939 -0.1336  0.1252
26055W        W68993  23.553  27.014   2.105  0.0854  0.0735  0.1695
26056W        W68994  21.866  21.571  31.963  0.1311  0.2100 -0.0915
26057W        W68995  25.856  22.033   0.961  0.0133  0.0456 -0.2484
26058W        W68996  23.269  23.321   1.129 -0.0231 -0.1856 -0.0628
26059W        W68997  26.034  23.204   3.077 -0.3312 -0.0302  0.3474
26060W        W68998  22.027  22.154   0.758  0.0717 -0.1741 -0.0214
26061W        W68999  24.782  23.865   0.237 -0.1115  0.0974 -0.0330
26062W        W69000  22.296  25.056   2.189 -0.1320  0.0030 -0.0923
26063W        W69001  21.490  22.300   3.588 -0.1412  0.1343 -0.0654
26064W        W69002  23.115  23.942   1.358  0.0065 -0.0086  0.0825
26065W        W69003  25.431  22.711   2.937 -0.1630  0.1410  0.1644
26066W        W69004  22.322  23.441  31.908 -0.2753  0.1206  0.4044
26067W        W69005  23.482  25.082   4.918 -0.2024  0.0637  0.0024
26068W        W69006  21.533  22.118   0.672 -0.2023 -0.0830 -0.2114
26069W        W69007  21.272  23.238   0.287 -0.2053  0.0927  0.2095
26070W        W69008  20.935  20.592   0.209 -0.1271  0.1617 -0.0850
26071W        W69009  20.950  23.567   4.144 -0.1227 -0.2856  0.0324
26072W        W69010  24.250  23.907   3.629  0.0556  0.1524  0.4155
26073W        W69011  21.537  21.161  31.845 -0.0019 -0.4809 -0.0558
26074W        W69012  23.860  24.135   0.739  0.0590  0.0172  0.2478
26075W        W69013  25.783  21.640   2.418 -0.0163  0.1531  0.0439
26076W        W69014  22.404  24.028   1.364 -0.2389  0.1740 -0.1959
26077W        W69015  24.679  22.276   1.331  0.1859 -0.0939 -0.3383
26078W        W69016  24.334  25.600   2.301  0.0847  0.2410 -0.0714
26079W        W69017  21.570  22.819   3.424  0.0274 -0.5302  0.1211
26080W        W69018  22.977  26.154   2.625  0.2025  0.0107 -0.1170
26081W        W69019  24.754  23.317   2.109 -0.2303 -0.3618  0.0846
26082W        W69020  23.942  20.210   1.215 -0.1243  0.0935  0.2730
26083W        W69021  22.160  22.143   1.353  0.0507  0.0708 -0.3316
26084W        W69022  22.849  25.153   1.016 -0.0548  0.5037  0.1379
26085W        W69023  25.886  22.316   2.112  0.1847 -0.5716 -0.1549
26086W        W69024  25.502  21.727   3.077  0.0308  0.2315 -0.1234
26087W        W69025  23.078  24.023  31.977 -0.0133  0.1615 -0.0271
26088W        W69026  25.055  22.460   2.642 -0.0143  0.2114 -0.4644
26089W        W69027  22.218  24.707   2.538  0.0453  0.2328  0.0026
26090W        W69028  22.424  24.107   3.387  0.2360  0.1474 -0.2231
26091W        W69029  22.617  22.761   0.596  0.3116  0.2054  0.2859
26092W        W69030  22.725  24.106   1.930  0.3479  0.0484 -0.1209
26093W        W69031  22.499  24.371   0.534  0.1420 -0.2067  0.0789
26094W        W69032  22.915  25.728   1.001  0.1061  0.0009  0.2068
26095W        W69033  24.131  23.919   2.168  0.1174  0.0049  0.2325
26096W        W69034  22.171  21.717   1.091 -0.0745  0.1203  0.2413
26097W        W69035  24.307  26.687   2.833 -0.1299  0.1502 -0.0861
26098W        W69036  21.854  21.831   1.888 -0.1728 -0.1685 -0.0926
26099W        W69037  23.368  22.650   0.993 -0.1098 -0.0695  0.1837
26100W        W69038  23.504  23.048   0.713  0.1346  0.0824  0.2926
26101W        W69039  21.842  23.439   2.941  0.0271 -0.0980  0.2264
26102W        W69040  20.277  22.329   0.841 -0.1290  0.2802 -0.1991
26103W        W69041  21.707  24.369  30.133 -0.0804 -0.2426  0.3583
26104W        W69042  22.207  23.521   1.093 -0.0701  0.3791 -0.1194
26105W        W69043  23.056  21.086   3.856 -0.1417  0.0225  0.3756
26106W        W69044  22.385  21.947   2.491 -0.2133  0.1762  0.1249
26107W        W69045  22.447  23.223   1.864  0.0272 -0.0221  0.3561
26108W        W69046  23.589  24.754   1.398 -0.1442  0.1762  0.1919
26109W        W69047  21.459  22.299   1.947 -0.0862 -0.3256  0.1988
26110W        W69048  22.410  21.567   2.013  0.1623  0.1673 -0.0546
26111W        W69049  22.930  24.857   1.395 -0.1171 -0.5091  0.0634
26112W        W69050  22.961  23.548   0.092  0.1364  0.0565  0.1196
26113W        W69051  23.732  22.078   1.167  0.3823  0.1680 -0.0660
26114W        W69052  23.038  25.618   2.919 -0.1413  0.0673 -0.3946
26115W        W69053  21.691  22.669   0.818 -0.1165  0.1977  0.0187
26116W        W69054  23.865  21.952   4.263 -0.2390  0.3284  0.2174
26117W        W69055  21.957  22.150   2.950 -0.0573  0.0081 -0.1299
26118W        W69056  21.191  21.636  31.504 -0.1983  0.1153  0.0329
26119W        W69057  21.865  22.080   2.330  0.1222 -0.1095 -0.0463
26120W        W69058  23.451  25.058   0.488  0.0482 -0.2745  0.1960
26121W        W69059  24.853  24.968   0.563  0.1221  0.0145  0.2593
26122W        W69060  22.035  24.008   2.334  0.3397  0.0880 -0.0689
26123W        W69061  22.819  24.216   2.581  0.0203 -0.0848 -0.1650
26124W        W69062  21.075  20.662   2.746  0.3500  0.1920 -0.3471
26125W        W69063  23.550  23.658   1.342  0.1927 -0.0479 -0.0407
26126W        W69064  22.229  23.590   2.095 -0.0907  0.1491  0.2458
26127W        W69065  25.178  25.920   0.712  0.0254  0.1765 -0.1937
26128W        W69066  24.642  22.051   1.767 -0.0270 -0.2705  0.1612
26129W        W69067  25.372  23.890   0.155  0.1213 -0.0775 -0.2084
26130W        W69068  20.590  20.833   3.603 -0.3961  0.0791 -0.0035
26131W        W69069  22.639  22.706   2.551 -0.2030  0.1925 -0.1377
26132W        W69070  24.627  23.826   1.695  0.1880 -0.1328  0.0144
26133W        W69071  23.495  21.280   0.364  0.0673 -0.1686 -0.0375
26134W        W69072  24.738  21.767   1.149  0.0370 -0.0104 -0.1115
26135W        W69073  23.971  24.199   0.153 -0.1147  0.1122 -0.1750
26136W        W69074  21.922  22.942   1.761 -0.0816 -0.3436  0.4177
26137W        W69075  23.447  22.593  31.321 -0.0393  0.3267 -0.0564
26138W        W69076  22.228  22.479   2.328  0.0744  0.1037 -0.0902
26139W        W69077  23.483  25.960   1.898  0.4038  0.1794  0.0392
26140W        W69078  23.640  24.682   2.463  0.4087  0.0707 -0.1278
26141W        W69079  23.310  21.727   0.364  0.0866  0.2103 -0.1732
26142W        W69080  24.807  20.926   0.499  0.0034 -0.3717 -0.1423
26143W        W69081  22.730  25.735   3.357 -0.2384  0.0853 -0.3542
26144W        W69082  23.790  24.994   3.962  0.3360 -0.0544 -0.0825
26145W        W69083  22.318  24.395   2.965 -0.0511  0.2112 -0.0786
26146W        W69084  26.011  23.974   2.295 -0.1169  0.2113 -0.1483
26147W        W69085  21.452  21.471   2.947  0.1394  0.1377 -0.0579
26148W        W69086  20.373  22.735  31.870  0.0418  0.2073 -0.2524
26149W        W69087  20.336  23.261   0.577 -0.1396 -0.3013 -0.3671
26150W        W69088  23.206  23.792   2.527 -0.0340 -0.0083  0.0871
26151W        W69089  21.802  22.605   1.420 -0.3892 -0.1808  0.1030
26152W        W69090  24.376  21.668   0.875 -0.0214 -0.0875 -0.0133
26153W        W69091  21.364  25.779   2.686 -0.2076  0.1605 -0.0235
26154W        W69092  22.824  24.766   2.278 -0.2222  0.0228  0.0388
26155W        W69093  23.023  23.721   6.353 -0.2556  0.0340 -0.0898
26156W        W69094  22.297  22.126   3.962  0.0901 -0.3359  0.2460
26157W        W69095  25.024  21.963   3.415  0.4828 -0.0645 -0.1132
26158W        W69096  24.340  23.413   5.514  0.0779 -0.1379  0.2073
26159W        W69097  22.389  20.712   5.156 -0.0407  0.1002  0.2253
26160W        W69098  23.799  25.404   4.597 -0.3894  0.0191  0.2805
26161W        W69099  22.446  20.601   8.394 -0.0935 -0.0148  0.1248
26162W        W69100  24.423  24.022   5.536 -0.0069 -0.1083 -0.2183
26163W        W69101  24.134  24.884   6.444 -0.0834  0.0138  0.0889
26164W        W69102  23.844  23.781   3.303 -0.2391 -0.3622 -0.1049
26165W        W69103  22.511  23.087   5.044 -0.0680 -0.1593  0.2344
26166W        W69104  22.762  24.456   6.853 -0.0002 -0.0348 -0.0585
26167W        W69105  22.940  20.413   4.739  0.4616  0.0452 -0.0270
26168W        W69106  21.918  19.940   5.335 -0.1457  0.1783 -0.0550
26169W        W69107  24.080  22.439   5.689  0.1536  0.0280 -0.0017
26170W        W69108  20.810  22.043   4.189 -0.2601 -0.4719  0.2008
26171W        W69109  22.158  22.825   4.738 -0.1133  0.1414  0.3497
26172W        W69110  22.232  23.167   3.854  0.2298 -0.0977  0.1607
26173W        W69111  23.938  24.903   4.626  0.2094  0.1207  0.2475
26174W        W69112  22.600  21.742   5.280  0.2324  0.2715  0.0664
26175W        W69113  23.391  22.407   6.557 -0.0101  0.0166 -0.3042
26176W        W69114  22.973  24.084   4.262  0.1436 -0.1063 -0.0432
26177W        W69115  22.628  23.332   2.826  0.1756 -0.3836 -0.4728
26178W        W69116  22.496  21.487   4.430 -0.1467  0.2326  0.1650
26179W        W69117  23.251  23.191   5.250  0.0637 -0.0678  0.0913
26180W        W69118  24.004  22.977   5.713  0.0266  0.1776 -0.1994
26181W        W69119  24.891  23.314   6.147 -0.0701  0.1338  0.3132
26182W        W69120  22.652  25.051   6.131  0.2189 -0.1371 -0.0971
26183W        W69121  24.268  24.441   6.211 -0.0431  0.1302 -0.0309
26184W        W69122  23.074  22.529   7.304 -0.0282  0.1719 -0.0297
26185W        W69123  19.804  23.784   5.715 -0.1202  0.1052 -0.1038
26186W        W69124  20.879  23.679   5.459  0.2542  0.1692 -0.3043
26187W        W69125  21.709  24.052   4.724 -0.1971  0.1638 -0.0882
26188W        W69126  24.880  24.218   5.771  0.1662 -0.1932  0.0727
26189W        W69127  24.637  23.594   6.451 -0.1323  0.0851 -0.0650
26190W        W69128  23.246  25.312   6.746  0.2062  0.2577  0.4061
26191W        W69129  21.008  24.555   4.596  0.5045 -0.1516 -0.2975
26192W        W69130  23.713  24.169   7.254 -0.1515 -0.0498  0.0058
26193W        W69131  21.615  23.905   6.409 -0.1041 -0.0431 -0.1731
26194W        W69132  23.837  24.166   6.288  0.3414  0.1338 -0.0450
26195W        W69133  23.503  22.297   4.284  0.1525 -0.0221  0.0974
26196W        W69134  23.353  24.253   3.995  0.1183 -0.0078  0.2475
26197W        W69135  24.579  23.692   5.879 -0.0869  0.1656  0.2631
26198W        W69136  22.201  23.496   6.763  0.2761 -0.0359 -0.0593
26199W        W69137  21.358  23.897   5.982  0.0592 -0.0440  0.1028
26200W        W69138  25.183  21.861   6.264 -0.1809 -0.3988  0.4028
26201W        W69139  21.927  24.456   5.066 -0.0368  0.5222  0.1946
26202W        W69140  23.581  23.313   3.229  0.4246 -0.3188 -0.1816
26203W        W69141  23.404  23.151   4.518  0.1423 -0.2131  0.4768
26204W        W69142  23.019  22.346   4.293  0.2247 -0.0698  0.1743
26205W        W69143  24.369  21.938   4.341 -0.0118 -0.1071 -0.1789
26206W        W69144  22.115  24.385   5.526 -0.0498  0.1299  0.0411
26207W        W69145  22.462  20.931   6.071 -0.2610  0.1953  0.0417
26208W        W69146  23.498  24.080   5.668  0.4543 -0.3377  0.2969
26209W        W69147  22.572  23.779   6.119  0.1730  0.3622 -0.0153
26210W        W69148  24.119  23.433   5.954  0.2391 -0.1917  0.0537
26211W        W69149  20.780  24.015   6.122  0.1010  0.0206 -0.1462
26212W        W69150  22.085  22.541   4.300 -0.1474 -0.1097 -0.0059
26213W        W69151  24.177  25.141   4.208  0.1482 -0.2262 -0.0822
26214W        W69152  24.675  24.528   4.755 -0.0524 -0.0304 -0.1550
26215W        W69153  23.326  24.714   4.032  0.0220  0.0488  0.3075
26216W        W69154  21.289  22.738   3.838  0.0087 -0.1369  0.1396
26217W        W69155  21.357  23.498   5.555  0.0709  0.2909 -0.4086
26218W        W69156  21.562  22.698   7.406  0.1235  0.1904 -0.0105
26219W        W69157  21.487  21.370   3.567  0.4114  0.1830  0.0376
26220W        W69158  24.478  23.339   7.270 -0.1814  0.6388  0.2553
26221W        W69159  22.212  23.905   5.736 -0.0133  0.2680 -0.0376
26222W        W69160  25.082  22.370   4.761 -0.2354 -0.1233 -0.1619
26223W        W69161  23.026  23.623   5.095  0.2669 -0.0232 -0.0659
26224W        W69162  25.358  24.055   6.547  0.1549 -0.2725  0.1182
26225W        W69163  23.703  23.506   3.738 -0.0520  0.1054 -0.1886
26226W        W69164  24.139  21.785   6.433 -0.3254 -0.0466 -0.2234
26227W        W69165  24.604  22.440   5.708 -0.0991  0.1974  0.1452
26228W        W69166  23.338  23.736   3.989 -0.1417  0.0359 -0.3686
26229W        W69167  22.831  24.096   3.681  0.1957  0.0012 -0.1119
26230W        W69168  24.437  24.526   5.760  0.2218 -0.2051 -0.1173
26231W        W69169  23.798  22.838   4.501 -0.0237 -0.0809  0.0873
26232W        W69170  20.623  24.511   5.888 -0.2729 -0.2575 -0.3583
26233W        W69171  22.434  22.294   6.517 -0.1804  0.3125  0.1344
26234W        W69172  23.091  24.519   6.489 -0.1159  0.0424 -0.3554
26235W        W69173  22.004  25.600   4.358  0.0048  0.0108  0.0657
26236W        W69174  19.539  22.873   4.287 -0.0551  0.4200 -0.0949
26237W        W69175  20.649  24.160   4.703  0.1854 -0.2626  0.1528
26238W        W69176  21.785  21.538   6.294 -0.0463  0.3541  0.1671
26239W        W69177  22.145  24.579   7.625  0.0396  0.1668 -0.1216
26240W        W69178  25.749  22.882   5.758  0.4823  0.2452 -0.0737
26241W        W69179  21.933  21.776   7.161 -0.3570  0.1210  0.0862
26242W        W69180  26.723  21.570   4.506  0.1531  0.1700 -0.0844
26243W        W69181  21.485  22.722   6.876 -0.0322 -0.0841  0.2847
26244W        W69182  24.605  24.918   4.489 -0.0819  0.1669  0.1273
26245W        W69183  24.206  22.633   3.668  0.5225 -0.0825 -0.3132
26246W        W69184  24.690  24.791   3.491 -0.2089 -0.1679  0.0483
26247W        W69185  22.080  22.670   5.580  0.1301 -0.1070  0.1728
26248W        W69186  22.227  23.136   4.344 -0.0821  0.1572 -0.1202
26249W        W69187  22.301  22.228   7.045  0.0020  0.1502 -0.0716
26250W        W69188  22.327  22.296   5.352  0.5408 -0.1233  0.0241
26251W        W69189  24.315  24.037   6.471  0.1003  0.2319  0.0885
26252W        W69190  20.571  20.874   2.697 -0.2111  0.1671  0.0273
26253W        W69191  24.513  22.211   4.763  0.0708  0.3484  0.0415
26254W        W69192  21.799  22.833   5.098  0.1392  0.5581  0.0116
26255W        W69193  21.123  23.264   4.569  0.2302  0.1549 -0.2367
26256W        W69194  25.227  22.543   7.212 -0.0412 -0.1287  0.0511
26257W        W69195  23.689  24.851   3.367 -0.0092  0.1021  0.0850
26258W        W69196  25.043  24.741   6.541  0.0603  0.1492 -0.2034
26259W        W69197  24.309  25.396   4.697 -0.1450  0.2240  0.2898
26260W        W69198  22.803  23.244   5.506 -0.2012  0.3368  0.2772
26261W        W69199  21.485  23.273   4.191 -0.0464 -0.1932  0.1162
26262W        W69200  22.441  25.238   5.661  0.0245  0.0246  0.1450
26263W        W69201  22.650  24.218   6.419 -0.4168  0.1195  0.0583
26264W        W69202  22.424  21.837   3.008  0.3795  0.0198  0.0514
26265W        W69203  24.621  25.007   5.758  0.0488 -0.0663  0.0680
26266W        W69204  22.467  23.758   4.257 -0.1457  0.0748  0.0206
26267W        W69205  21.852  24.133   6.021 -0.0880  0.0191  0.0463
26268W        W69206  23.738  22.634   6.037 -0.2494 -0.0838 -0.1773
26269W        W69207  24.630  21.803   6.314  0.0831 -0.0519 -0.0228
26270W        W69208  25.116  22.470   5.712 -0.0532 -0.0742 -0.1525
26271W        W69209  22.633  21.847   3.620 -0.1732  0.0316 -0.0458
26272W        W69210  24.654  24.805   6.198 -0.2113  0.2121 -0.1060
26273W        W69211  21.171  24.336   6.064 -0.1767  0.0724  0.0715
26274W        W69212  21.524  23.795   5.109  0.0450 -0.0895 -0.2172
26275W        W69213  23.364  23.675   4.703 -0.1156  0.0006  0.0950
26276W        W69214  25.210  21.904   5.114  0.2869  0.0499  0.0290
26277W        W69215  22.252  23.331   8.802  0.1605  0.0658  0.0280
26278W        W69216  24.881  21.618   5.892 -0.0665 -0.0317  0.0459
26279W        W69217  22.082  22.601   3.159 -0.2088  0.1207  0.0772
26280W        W69218  22.487  23.447   4.642 -0.3167 -0.2170 -0.3412
26281W        W69219  24.273  20.968   6.095 -0.2742 -0.3078  0.2988
26282W        W69220  25.266  22.456   3.442  0.2176 -0.1798 -0.0932
26283W        W69221  22.707  23.228   6.987  0.0448 -0.0625  0.1170
26284W        W69222  23.905  23.935   6.808 -0.2365 -0.2945  0.0787
26285W        W69223  23.690  22.377   4.724 -0.0166  0.1308 -0.0993
26286W        W69224  23.869  21.537   3.863  0.3876  0.0006 -0.0147
26287W        W69225  21.439  23.073   6.513  0.1067  0.2640  0.3124
26288W        W69226  23.100  24.130   4.923  0.2131  0.1564  0.0449
26289W        W69227  22.999  24.048   5.929  0.3078  0.0323 -0.1951
26290W        W69228  22.878  23.675   3.904 -0.1938  0.3716 -0.0021
26291W        W69229  25.020  24.453   4.407  0.0799  0.0477 -0.4062
26292W        W69230  21.479  22.991   5.506  0.4146 -0.1071 -0.2638
26293W        W69231  23.905  23.076   7.544 -0.4908 -0.0987  0.1998
26294W        W69232  23.964  23.749   5.619 -0.0481 -0.3188  0.0384
26295W        W69233  22.573  22.730   5.443  0.0112 -0.1573 -0.0762
26296W        W69234  23.337  22.425   5.156 -0.2271  0.1893 -0.1723
26297W        W69235  22.796  22.159   5.140 -0.1376 -0.1160 -0.2162
26298W        W69236  21.482  25.255   5.045 -0.0585 -0.2213 -0.0213
26299W        W69237  24.511  23.025   5.830  0.1532  0.3225  0.2622
26300W        W69238  23.552  21.731   5.714  0.2336  0.0425  0.1222
26301W        W69239  23.094  22.316   7.771  0.0218 -0.2563 -0.0541
26302W        W69240  25.233  22.473   6.247  0.0811 -0.0953 -0.0194
26303W        W69241  24.442  23.083   3.683 -0.5595  0.0338 -0.0298
26304W        W69242  25.115  21.731   6.741 -0.3630 -0.2517  0.1719
26305W        W69243  21.597  22.439   4.560  0.0136  0.0477 -0.2479
26306W        W69244  22.522  21.797   6.743 -0.0704  0.1709  0.2716
26307W        W69245  23.150  23.483   7.285 -0.1427 -0.0943  0.1104
26308W        W69246  21.609  25.178   6.286 -0.2394 -0.1321  0.1343
26309W        W69247  23.260  24.494   5.915 -0.1085  0.2967 -0.0205
26310W        W69248  23.756  24.391   4.718 -0.0416 -0.0647 -0.1017
26311W        W69249  23.231  21.167   7.162  0.3115 -0.0238  0.0126
26312W        W69250  24.598  21.929   5.681  0.1519  0.1788  0.0124
26313W        W69251  23.625  24.025   4.394 -0.0731  0.1252  0.0645
26314W        W69252  22.800  24.555   4.081 -0.0052 -0.0321 -0.1721
26315W        W69253  22.364  21.438   5.953  0.0581 -0.0122  0.2910
26316W        W69254  22.810  24.916   6.647  0.0256 -0.2020  0.0617
26317W        W69255  22.894  22.852   3.732  0.1376  0.0420  0.5238
26318W        W69256  24.709  22.473   6.954  0.0199  0.0247 -0.3113
26319W        W69257  22.409  24.253   4.286 -0.1895  0.1709  0.2322
26320W        W69258  24.174  20.924   5.377 -0.0079 -0.3687 -0.2217
26321W        W69259  21.332  25.349   5.893  0.0669  0.0766  0.1822
26322W        W69260  22.862  22.470   3.297 -0.0408 -0.0811  0.2682
26323W        W69261  22.953  23.575   4.403  0.2858 -0.1939  0.0009
26324W        W69262  25.392  21.422   5.238  0.2327 -0.0414  0.3744
26325W        W69263  24.005  23.757   4.505  0.0044 -0.1854 -0.2171
26326W        W69264  21.732  21.805   5.104  0.1046  0.1395  0.1332
26327W        W69265  23.581  21.978   5.168 -0.1579  0.0645 -0.0273
26328W        W69266  21.462  24.712   6.447 -0.2016  0.3367 -0.2035
26329W        W69267  22.121  21.875   6.007 -0.1251  0.0004  0.2261
26330W        W69268  24.984  21.693   4.424  0.0839 -0.0376 -0.2771
26331W        W69269  25.509  24.035   5.899  0.1500 -0.2804 -0.1233
26332W        W69270  22.652  23.648   6.676  0.1310  0.1600 -0.1848
26333W        W69271  20.940  21.876   3.553 -0.0356 -0.0298 -0.0423
26334W        W69272  24.954  23.489   7.201 -0.0433 -0.4660 -0.1808
26335W        W69273  22.493  22.491   4.893 -0.2683 -0.2140  0.2302
26336W        W69274  20.912  24.040   5.098 -0.0782 -0.1634  0.0188
26337W        W69275  24.057  23.870   5.038 -0.2325  0.0548  0.1037
26338W        W69276  22.663  22.902   4.558  0.0276 -0.1891 -0.0166
26339W        W69277  20.880  22.729   4.697 -0.0232 -0.0216  0.3773
26340W        W69278  22.822  24.319   8.929 -0.0822 -0.1827 -0.3245
26341W        W69279  24.374  23.721   6.954 -0.0412 -0.1934  0.0369
26342W        W69280  21.549  21.405   5.372 -0.1552 -0.2916 -0.0906
26343W        W69281  23.598  21.785   4.635 -0.0371  0.1721 -0.0966
26344W        W69282  23.058  21.915   5.546 -0.1732 -0.0174 -0.2962
26345W        W69283  24.266  22.694   6.099 -0.2336  0.0501  0.1867
26346W        W69284  22.765  22.267   6.106 -0.0530 -0.0752  0.3253
26347W        W69285  21.358  24.575   7.771  0.0551  0.2720  0.1589
26348W        W69286  23.928  21.345   5.428  0.0404 -0.1912 -0.0390
26349W        W69287  25.453  23.885   3.930 -0.2621  0.2340 -0.3699
26350W        W69288  23.932  24.031   7.762 -0.2187  0.1056 -0.2808
26351W        W69289  22.436  22.790   3.534 -0.0233  0.2662 -0.1142
26352W        W69290  21.744  22.120   6.154  0.1205  0.2089  0.1872
26353W        W69291  23.233  22.683   4.686 -0.1962 -0.0043  0.0209
26354W        W69292  23.215  22.539   6.069 -0.1395 -0.0178 -0.1466
26355W        W69293  23.338  24.138   6.313 -0.0483  0.0151  0.0412
26356W        W69294  22.295  23.701   3.784  0.1454  0.3683  0.1360
26357W        W69295  22.797  24.804   5.612 -0.0867 -0.1673  0.2883
26358W        W69296  24.800  21.728   3.829 -0.0250  0.0284 -0.2079
26359W        W69297  24.039  24.142   4.166  0.0403 -0.3206 -0.0881
26360W        W69298  24.065  22.079   4.932  0.3555  0.2644 -0.1901
26361W        W69299  25.000  22.888   5.922  0.2185 -0.0742 -0.2226
26362W        W69300  24.516  24.132   4.151  0.2710  0.1542  0.1184
26363W        W69301  25.626  21.469   6.929 -0.2386  0.0935  0.3079
26364W        W69302  22.894  22.134   6.740 -0.2370 -0.0410  0.0684
26365W        W69303  25.155  23.809   5.577 -0.1283  0.1174 -0.4401
26366W        W69304  21.785  22.756   8.211  0.0461 -0.0568  0.0293
26367W        W69305  23.182  24.479   7.168 -0.1773  0.3231 -0.2824
26368W        W69306  21.774  22.241   7.306 -0.0181 -0.1995 -0.1684
26369W        W69307  22.891  22.467   5.653 -0.0628 -0.1908  0.0347
26370W        W69308  22.783  22.223   2.479  0.1032  0.1342  0.1357
26371W        W69309  23.653  23.203   6.884 -0.2557 -0.2483 -0.1409
26372W        W69310  25.686  23.020   5.147 -0.0004 -0.1073  0.0237
26373W        W69311  23.563  24.124   5.147  0.3613 -0.2365  0.2082
26374W        W69312  24.761  21.376   4.826  0.0425  0.0769  0.0092
26375W        W69313  23.169  23.962   6.791  0.2039 -0.2562 -0.2757
26376W        W69314  24.238  22.851   4.747 -0.2259 -0.2164  0.0784
26377W        W69315  23.708  23.434   4.243  0.2828  0.3744 -0.4131
26378W        W69316  21.556  23.547   4.654  0.0998  0.1918  0.2223
26379W        W69317  21.334  21.960   8.054 -0.0124 -0.1886 -0.0714
26380W        W69318  23.802  23.152   6.219  0.0273  0.2895 -0.2029
26381W        W69319  23.074  21.296   4.835  0.3509  0.0289  0.0691
26382W        W69320  22.718  22.529   7.009 -0.1574  0.3796 -0.0473
26383W        W69321  24.100  21.847   6.960  0.4336  0.1122  0.3446
26384W        W69322  22.899  22.998   6.516  0.2051  0.0823  0.2115
26385W        W69323  23.401  22.847   9.044  0.4251 -0.0153 -0.0572
26386W        W69324  22.635  24.332   5.631 -0.1572  0.1054  0.0241
26387W        W69325  22.610  23.278   3.517 -0.0829 -0.1605  0.0822
26388W        W69326  26.113  22.869   5.346 -0.0852  0.1614 -0.0954
26389W        W69327  24.159  23.435   4.006  0.0349 -0.0888  0.1682
26390W        W69328  22.878  22.521   6.498 -0.0742 -0.0054  0.0156
26391W        W69329  22.941  23.226   4.811  0.0148 -0.1279  0.1830
26392W        W69330  23.703  22.416   7.060  0.2256  0.2322 -0.0053
26393W        W69331  22.759  20.732   2.027  0.0178  0.0882 -0.0464
26394W        W69332  24.177  22.366   6.951 -0.0503  0.0837 -0.0836
26395W        W69333  23.267  24.534   4.453  0.1339 -0.1337 -0.0032
26396W        W69334  23.335  23.324   6.168 -0.1954 -0.1471  0.0017
26397W        W69335  23.167  23.238   3.989 -0.0180  0.2049  0.0638
26398W        W69336  21.412  21.650   6.668  0.0321 -0.0204 -0.2641
26399W        W69337  22.613  24.491   7.404  0.0256  0.0256  0.0505
26400W        W69338  21.707  21.780   3.276  0.1761  0.0120 -0.2032
26401W        W69339  23.593  22.806   5.487  0.0635 -0.2079 -0.0615
26402W        W69340  22.630  24.007   5.159  0.1310  0.0246  0.0011
26403W        W69341  23.705  24.700   7.105 -0.1189  0.4009  0.0746
26404W        W69342  22.959  21.532   3.990  0.1137 -0.1655 -0.1669
26405W        W69343  24.051  22.793   7.168  0.1022 -0.1899  0.2970
26406W        W69344  22.537  25.221   4.556  0.1573 -0.0268 -0.0634
26407W        W69345  22.517  21.825   6.243  0.1890  0.0913 -0.1162
26408W        W69346  22.766  24.950   4.998  0.0608 -0.2360 -0.0180
26409W        W69347  21.735  23.992   5.541 -0.1372 -0.0375 -0.0036
26410W        W69348  21.540  23.430   6.095 -0.1303 -0.0421 -0.1460
26411W        W69349  23.608  22.254   5.640  0.4686  0.0531  0.1062
26412W        W69350  25.550  21.139   4.491  0.2347  0.2008  0.1779
26413W        W69351  22.875  23.318   6.011 -0.0511  0.0068  0.0233
26414W        W69352  26.432  22.051   4.106 -0.3388 -0.0662 -0.0361
26415W        W69353  24.159  23.943   6.010  0.2597 -0.0725 -0.0944
26416W        W69354  21.757  22.830   4.094  0.2247  0.2265 -0.0241
26417W        W69355  24.476  24.524   6.722  0.3805 -0.1478  0.2181
26418W        W69356  25.093  24.262   4.864 -0.3429 -0.0759  0.2609
26419W        W69357  23.092  24.061   5.415  0.0115 -0.0162 -0.0013
26420W        W69358  21.517  23.102   7.150 -0.0609  0.0652 -0.3394
26421W        W69359  23.842  23.591   8.000 -0.1504 -0.1958  0.1390
26422W        W69360  24.638  22.633   5.000 -0.2514  0.0893 -0.0251
26423W        W69361  22.655  21.884   4.132  0.0911 -0.1189 -0.0049
26424W        W69362  23.715  24.257   3.272  0.1372 -0.1892 -0.1180
26425W        W69363  21.966  23.080   6.940 -0.3759  0.0229  0.2882
26426W        W69364  22.013  21.963   6.610 -0.1480 -0.0554 -0.0309
26427W        W69365  22.117  24.927   3.640  0.0634  0.0988  0.1742
26428W        W69366  24.603  23.172   4.441 -0.2530  0.0963 -0.1893
26429W        W69367  24.623  24.272   3.671 -0.2309 -0.2734  0.0314
26430W        W69368  25.254  24.492   6.149  0.0767  0.0651 -0.2145
26431W        W69369  24.159  22.400   4.519 -0.0378 -0.4470  0.1476
26432W        W69370  22.456  24.491   5.165 -0.2301 -0.1940 -0.1477
26433W        W69371  19.864  24.067   5.329 -0.0638 -0.2114 -0.0747
26434W        W69372  24.719  23.635   5.225 -0.1999 -0.2315 -0.1825
26435W        W69373  22.249  25.423   3.988  0.0949  0.1761 -0.2507
26436W        W69374  24.257  24.420   8.192 -0.1810  0.1543 -0.0852
26437W        W69375  24.925  22.311   3.848  0.1343 -0.2657  0.1845
26438W        W69376  24.339  23.519   4.822 -0.1359  0.3733  0.2846
26439W        W69377  25.475  22.543   4.247  0.0244 -0.0368  0.0221
26440W        W69378  23.999  23.521   7.268 -0.1923 -0.1668  0.1253
26441W        W69379  23.159  22.959   5.714 -0.2394  0.0281 -0.1499
26442W        W69380  24.542  22.107   3.489 -0.1623  0.0369 -0.0388
26443W        W69381  21.971  22.579   7.018 -0.1887  0.0443  0.1863
26444W        W69382  25.998  19.938   5.881 -0.0090  0.1458  0.1036
26445W        W69383  22.146  24.089   6.440  0.0312  0.1714 -0.2038
26446W        W69384  24.245  24.324   4.956 -0.0714  0.1226 -0.1015
26447W        W69385  21.617  21.463   4.170 -0.0255 -0.1293 -0.2026
26448W        W69386  23.570  23.626   5.337 -0.0288  0.0956  0.0476
26449W        W69387  24.632  21.812   5.093  0.1665  0.0617  0.2033
26450W        W69388  23.391  24.676   3.003  0.0432 -0.0766  0.0075
26451W        W69389  24.270  22.719   5.304 -0.3194  0.0111 -0.0141
26452W        W69390  22.801  24.490   4.631 -0.1698  0.0798 -0.1603
26453W        W69391  22.798  24.567   6.072  0.0906 -0.3220 -0.1219
26454W        W69392  24.168  24.896   5.956 -0.5872  0.1521 -0.4162
26455W        W69393  21.924  22.298   4.984  0.1745  0.0521  0.3068
26456W        W69394  26.145  23.392   5.125  0.1127  0.0827  0.3004
26457W        W69395  22.761  22.767   6.050 -0.1372 -0.0166  0.0838
26458W        W69396  25.008  22.205   6.609 -0.0552 -0.3042  0.1033
26459W        W69397  22.520  23.239   6.328 -0.1297 -0.1844 -0.0360
26460W        W69398  25.529  23.033   4.644  0.1127 -0.2802  0.3075
26461W        W69399  23.515  23.736   6.549  0.2190  0.0367 -0.1977
26462W        W69400  22.082  23.630   6.268  0.0928 -0.1066 -0.1781
26463W        W69401  23.797  23.982   3.765 -0.1740  0.0777 -0.0974
26464W        W69402  25.094  24.396   6.967 -0.0174 -0.0910  0.3343
26465W        W69403  23.034  22.856   4.248 -0.1557  0.1875  0.0738
26466W        W69404  24.452  26.037   6.762  0.3311 -0.0164 -0.1051
26467W        W69405  23.079  21.685   4.480 -0.1409  0.2462  0.0247
26468W        W69406  23.969  21.508   4.426  0.0653 -0.2305  0.0479
26469W        W69407  21.970  23.542   4.143 -0.2635  0.1461  0.2621
26470W        W69408  23.671  23.798   6.036 -0.0826  0.1060 -0.1654
26471W        W69409  24.247  24.566   7.613  0.1059  0.2054 -0.0855
26472W        W69410  22.728  21.288   6.222 -0.2524 -0.0859 -0.0926
26473W        W69411  24.963  23.875   4.338  0.2856 -0.1065  0.0661
26474W        W69412  25.324  23.282   5.935 -0.1949 -0.1378  0.1295
26475W        W69413  22.366  24.781   4.215  0.2035  0.1973 -0.0047
26476W        W69414  24.047  23.188   5.184  0.0110 -0.0843 -0.1640
26477W        W69415  25.329  23.759   6.982  0.1617 -0.2985 -0.0068
26478W        W69416  20.842  22.292   5.013 -0.1861  0.0478 -0.1761
26479W        W69417  23.944  24.230   5.420  0.0910  0.2133 -0.2832
26480W        W69418  23.804  23.446   4.852 -0.3121 -0.1597 -0.0390
26481W        W69419  22.254  21.125   3.620 -0.1845 -0.0788  0.0327
26482W        W69420  23.198  23.585   5.658 -0.3318 -0.1475  0.1904
26483W        W69421  21.652  24.492   5.523 -0.3449  0.1669 -0.0851
26484W        W69422  25.643  21.959   5.906  0.0340 -0.0032  0.2016
26485W        W69423  23.362  22.876   6.398  0.1251  0.0793  0.1302
26486W        W69424  23.336  23.977   2.939 -0.2157 -0.1355 -0.1516
26487W        W69425  24.605  20.885   6.473  0.3626  0.0772 -0.1119
26488W        W69426  23.574  24.656   6.308  0.1789  0.1637  0.1743
26489W        W69427  22.821  23.879   8.136 -0.1956 -0.0213  0.0939
26490W        W69428  21.148  23.920   4.629 -0.0419 -0.0114  0.4315
26491W        W69429  23.077  22.994   7.477  0.0294 -0.1143 -0.0390
26492W        W69430  22.041  23.315   4.873  0.0028 -0.1966  0.0428
26493W        W69431  23.911  24.403   5.856 -0.0211 -0.0158 -0.0682
26494W        W69432  22.350  23.419   5.862 -0.1251 -0.1735  0.0304
26495W        W69433  24.676  22.569   3.307  0.1452 -0.0502 -0.2959
26496W        W69434  24.892  23.508   4.754  0.1376 -0.2433  0.4671
26497W        W69435  25.748  22.742   3.838  0.0296  0.0591 -0.0600
26498W        W69436  25.328  21.515   4.743 -0.0490 -0.0933 -0.0843
26499W        W69437  22.344  22.959   5.868  0.1649 -0.1429  0.1214
26500W        W69438  20.588  22.314   4.585  0.2996  0.1084  0.0954
26501W        W69439  21.477  24.200   3.753  0.0780 -0.1636 -0.3047
26502W        W69440  21.920  23.038   7.443 -0.1085  0.0147  0.0416
26503W        W69441  22.498  22.883   8.799 -0.1458 -0.1887  0.1918
26504W        W69442  21.983  22.417   6.460  0.3506 -0.0456  0.1879
26505W        W69443  22.555  22.437   4.413  0.0190  0.1337  0.0247
26506W        W69444  22.402  21.476   3.925 -0.1122  0.1411 -0.2880
26507W        W69445  25.436  24.077   4.481  0.0097  0.0251 -0.0441
26508W        W69446  22.837  19.851   4.967 -0.3365  0.1274  0.0774
26509W        W69447  22.231  23.154   5.420 -0.2681 -0.0404  0.0187
26510W        W69448  23.559  22.968   4.975 -0.2453  0.0152 -0.1298
26511W        W69449  24.591  23.132   5.089  0.0575  0.0121 -0.2303
26512W        W69450  24.422  22.427   4.089  0.2553  0.0337  0.2564
26513W        W69451  25.822  24.943   6.960  0.0157  0.1432 -0.1762
26514W        W69452  20.764  22.802   3.706 -0.0927  0.5087 -0.1912
26515W        W69453  23.174  22.569   8.230  0.2180 -0.1358  0.1515
26516W        W69454  22.951  22.005   7.346  0.2896  0.1581 -0.0182
26517W        W69455  21.975  22.130   3.524  0.1402  0.0426 -0.1470
26518W        W69456  22.324  22.748   6.299 -0.2606 -0.1354 -0.1826
26519W        W69457  23.762  24.609   4.258 -0.2051 -0.0040  0.0144
26520W        W69458  23.235  25.738   2.442 -0.0780  0.3469  0.0841
26521W        W69459  23.187  23.361   6.736  0.0657  0.1792  0.0073
26522W        W69460  23.215  25.023   6.342  0.3005  0.1436 -0.0316
26523W        W69461  21.870  21.372   7.868 -0.0523 -0.1269 -0.2625
26524W        W69462  24.110  23.246   4.464  0.0406 -0.2309  0.0688
26525W        W69463  23.442  23.275   7.653  0.2726  0.0032  0.1693
26526W        W69464  25.873  23.117   3.546 -0.1067  0.1250  0.2170
26527W        W69465  24.926  21.559   5.382 -0.1779  0.0276 -0.0228
26528W        W69466  23.617  23.355   5.779  0.0387 -0.0688 -0.1926
26529W        W69467  21.918  22.510   8.791  0.0404  0.0760  0.1371
26530W        W69468  22.279  22.706   7.983 -0.0320  0.2024 -0.2847
26531W        W69469  26.180  24.325   4.913  0.0688  0.0736  0.3233
26532W        W69470  23.638  22.000   3.815 -0.1041  0.0066 -0.0649
26533W        W69471  24.836  22.824   3.891 -0.0461 -0.1485 -0.0626
26534W        W69472  21.878  23.512   5.481  0.0275  0.1424  0.0261
26535W        W69473  22.151  23.536   7.390 -0.1921  0.4111  0.1424
26536W        W69474  23.861  22.446   5.214  0.1202 -0.0317 -0.1253
26537W        W69475  23.999  23.630   6.393  0.1826 -0.3526 -0.1290
26538W        W69476  24.479  23.644   4.381 -0.1606  0.0411 -0.0823
26539W        W69477  24.381  22.858   6.740 -0.0231 -0.2146 -0.0207
26540W        W69478  22.676  21.990   4.661  0.1489 -0.0292  0.1695
26541W        W69479  25.630  24.333   4.061 -0.4070 -0.0302  0.0239
26542W        W69480  24.433  25.273   6.164  0.2907 -0.2242  0.0467
26543W        W69481  25.615  24.823   6.243  0.0765 -0.1305  0.0562
26544W        W69482  24.170  24.900   7.009  0.1670  0.2462 -0.1360
26545W        W69483  25.213  23.286   5.184 -0.2596  0.1235 -0.1595
26546W        W69484  21.535  21.730   5.836  0.0849 -0.0752 -0.3905
26547W        W69485  21.067  23.520   5.031  0.4177 -0.2637 -0.1584
26548W        W69486  22.710  23.817   5.649  0.4058 -0.1112  0.3007
26549W        W69487  24.855  23.971   7.248 -0.0871  0.0488 -0.0597
26550W        W69488  24.368  22.225   5.281  0.2351  0.1223  0.1849
26551W        W69489  23.501  21.572   4.185 -0.0000 -0.1603 -0.0890
26552W        W69490  22.261  24.799   5.802 -0.0713 -0.0191 -0.0531
26553W        W69491  22.720  23.239   4.079  0.1020 -0.3479  0.0099
26554W        W69492  23.712  24.418   9.710 -0.0072 -0.0884  0.2128
26555W        W69493  23.671  23.084   8.037 -0.2777  0.0294 -0.2594
26556W        W69494  25.142  23.806   7.625 -0.0832 -0.1482 -0.1554
26557W        W69495  25.343  21.705   7.267  0.0939  0.2889 -0.3191
26558W        W69496  23.148  22.103   8.387 -0.0165  0.2664 -0.1269
26559W        W69497  23.903  24.384   8.713 -0.1487 -0.1063  0.3447
26560W        W69498  23.975  23.577   9.787  0.1543  0.0869 -0.1962
26561W        W69499  25.528  23.461  10.236 -0.2816  0.1057 -0.1763
26562W        W69500  24.332  23.958   7.387  0.0366 -0.2566 -0.2685
26563W        W69501  22.057  23.528  10.130  0.0459 -0.1307 -0.4018
26564W        W69502  22.847  21.095   9.786 -0.1049  0.0225 -0.1739
26565W        W69503  21.279  23.246   9.346 -0.1879  0.1518 -0.0387
26566W        W69504  23.424  22.314   9.219 -0.1176  0.1262  0.1312
26567W        W69505  20.804  23.837   8.849  0.0706 -0.1452 -0.0853
26568W        W69506  23.791  22.651  10.160  0.3088 -0.1688 -0.0823
26569W        W69507  23.069  23.036   8.614  0.0352 -0.0042  0.3330
26570W        W69508  23.722  25.305   8.607  0.3903  0.1581  0.2152
26571W        W69509  20.967  24.620   9.541 -0.3115 -0.1787 -0.1604
26572W        W69510  23.543  23.676   7.039  0.2455 -0.0456 -0.2324
26573W        W69511  22.069  23.147   7.890  0.1041  0.2312 -0.1514
26574W        W69512  21.962  20.889  10.460  0.3690 -0.1004 -0.1375
26575W        W69513  21.557  21.581   9.726 -0.1292  0.0123  0.4198
26576W        W69514  24.500  21.443   9.290  0.1651  0.0819  0.2792
26577W        W69515  23.878  22.154   9.351 -0.0767  0.2166 -0.2361
26578W        W69516  24.467  23.981   9.263 -0.0228 -0.0400 -0.0100
26579W        W69517  24.076  23.820   8.816  0.2561 -0.2545 -0.0338
26580W        W69518  21.811  24.302   9.009  0.1135 -0.0509 -0.0943
26581W        W69519  22.314  24.126   7.981 -0.2238 -0.3729  0.0039
26582W        W69520  23.845  25.022   8.972  0.1454  0.0528 -0.1255
26583W        W69521  24.851  24.162   8.824 -0.3976  0.5306  0.0931
26584W        W69522  23.205  24.003   7.320 -0.0425 -0.0672  0.3022
26585W        W69523  23.752  22.170  10.268 -0.0139  0.1873 -0.1933
26586W        W69524  23.590  23.055   8.555 -0.1601  0.2520 -0.0802
26587W        W69525  22.644  24.557   7.967 -0.0078  0.0728  0.4132
26588W        W69526  24.232  23.539   9.281  0.1156 -0.2224 -0.1884
26589W        W69527  21.795  25.099   9.630 -0.4550  0.1183 -0.0372
26590W        W69528  23.243  24.153   7.953  0.0920 -0.0348  0.2865
26591W        W69529  24.828  22.979   7.194  0.0573  0.0314  0.2780
26592W        W69530  23.560  22.754   7.373 -0.1556 -0.4124  0.1432
26593W        W69531  24.404  22.909   7.512  0.5331 -0.1383 -0.2909
26594W        W69532  22.297  20.192   8.766 -0.3142 -0.2103 -0.1644
26595W        W69533  24.177  24.840   8.529  0.0370  0.0040 -0.0835
26596W        W69534  23.100  22.564   9.608  0.1202  0.0778 -0.0535
26597W        W69535  22.549  23.741   9.097  0.2596  0.1474  0.0518
26598W        W69536  24.717  22.190   9.750 -0.1917 -0.0001 -0.0092
26599W        W69537  22.607  27.636   9.292 -0.2947  0.0742  0.0671
26600W        W69538  21.283  22.590   8.166 -0.0221 -0.0598  0.0796
26601W        W69539  25.767  23.914   7.880 -0.1477 -0.1014 -0.0669
26602W        W69540  24.659  24.699   8.700 -0.0369 -0.1032 -0.6411
26603W        W69541  23.546  24.253   8.285  0.1129  0.0708 -0.0142
26604W        W69542  21.148  23.072   8.056 -0.1247  0.1633  0.0551
26605W        W69543  22.618  21.816   8.366 -0.0683 -0.0572 -0.0652
26606W        W69544  25.899  21.792   7.153  0.0879  0.0172 -0.1052
26607W        W69545  22.641  25.621  10.098 -0.0136 -0.0286 -0.0709
26608W        W69546  25.233  22.832   9.106 -0.0299 -0.2458  0.0687
26609W        W69547  24.387  23.157   6.325  0.1472 -0.1484  0.0394
26610W        W69548  23.719  21.011   8.919 -0.2494 -0.2981 -0.5171
26611W        W69549  23.491  21.268   9.343  0.2394 -0.1543  0.2088
26612W        W69550  22.221  23.024   8.365 -0.1133 -0.1791  0.0511
26613W        W69551  23.793  22.697   6.581  0.0749 -0.2711 -0.1852
26614W        W69552  23.414  23.608   9.629 -0.2134 -0.2257 -0.1848
26615W        W69553  24.687  24.373   7.887 -0.1727 -0.2354 -0.3422
26616W        W69554  22.044  24.579   9.403 -0.3710 -0.2110 -0.1268
26617W        W69555  21.091  23.286   7.634 -0.2517 -0.2051  0.1696
26618W        W69556  21.089  23.665   9.856  0.2015 -0.0750  0.0556
26619W        W69557  22.424  23.681   7.799 -0.0382 -0.0919 -0.3204
26620W        W69558  23.772  21.593  10.325 -0.1133 -0.2213 -0.1561
26621W        W69559  23.350  23.579  10.178  0.0157 -0.1373  0.3791
26622W        W69560  25.447  21.330   8.077  0.0486 -0.2564  0.2995
26623W        W69561  22.916  20.820   8.457 -0.1222  0.0338 -0.3526
26624W        W69562  22.804  23.344   8.872  0.2247  0.0591 -0.3058
26625W        W69563  24.787  24.401   8.372  0.2126  0.2449 -0.1044
26626W        W69564  25.067  22.731   7.668 -0.0072  0.0435  0.1109
26627W        W69565  24.599  24.387   7.258 -0.1006 -0.1228  0.2170
26628W        W69566  23.145  22.089   9.685 -0.0060 -0.0963  0.1634
26629W        W69567  22.508  22.831   9.419 -0.0555  0.0944 -0.1961
26630W        W69568  20.731  22.347   8.808 -0.0686  0.0695  0.2044
26631W        W69569  21.601  22.104   8.763 -0.1843 -0.0108 -0.0060
26632W        W69570  24.079  23.103   8.405  0.0262  0.1685  0.1523
26633W        W69571  22.146  22.667   9.849 -0.2977 -0.0867 -0.1640
26634W        W69572  20.601  23.613   8.469 -0.1581  0.2388 -0.1358
26635W        W69573  24.555  26.180   8.769 -0.1551  0.4215 -0.3091
26636W        W69574  26.266  26.601   9.489 -0.3752  0.1721  0.1261
26637W        W69575  24.835  23.406   8.592  0.0474  0.0057  0.0207
26638W        W69576  23.496  20.150   9.360  0.0994  0.2052 -0.2771
26639W        W69577  22.597  21.891   7.737 -0.0355 -0.0887 -0.0323
26640W        W69578  22.086  26.026   7.764  0.0445  0.0097 -0.0129
26641W        W69579  23.192  24.453   9.343  0.0978  0.2451  0.0304
26642W        W69580  23.010  22.551   8.715 -0.0053  0.0718  0.1834
26643W        W69581  24.355  23.979   7.975 -0.3343  0.0418  0.2414
26644W        W69582  23.373  23.546   8.099 -0.0520  0.1533  0.1595
26645W        W69583  24.377  22.297   9.383  0.0370 -0.1362  0.0323
26646W        W69584  22.153  22.039   9.614  0.1735 -0.2305 -0.0271
26647W        W69585  20.265  23.497   8.079  0.1308  0.2287 -0.1355
26648W        W69586  24.795  26.199   7.103  0.0143  0.1272 -0.0945
26649W        W69587  22.939  24.832   8.741 -0.2050  0.0757  0.0968
26650W        W69588  21.561  23.732   9.375  0.3272 -0.2634  0.2241
26651W        W69589  24.214  25.790   8.558  0.1286  0.0017 -0.2105
26652W        W69590  23.542  21.567   8.022  0.1698  0.1935  0.3158
26653W        W69591  21.863  23.394   9.095 -0.1028 -0.4781  0.0033
26654W        W69592  22.907  20.750  10.182 -0.2709  0.0817  0.2382
26655W        W69593  23.588  22.351   7.618 -0.1670 -0.0292  0.2446
26656W        W69594  23.578  23.917   8.753  0.2213  0.3812 -0.1536
26657W        W69595  23.828  21.987   7.339  0.0576  0.1521 -0.1969
26658W        W69596  23.531  22.105   8.039 -0.2503 -0.2374 -0.1886
26659W        W69597  23.422  24.871   8.888 -0.0816  0.2823 -0.1640
26660W        W69598  24.009  23.308  10.249  0.1574  0.1226 -0.0965
26661W        W69599  24.307  21.848   9.058 -0.2671 -0.2922  0.0153
26662W        W69600  26.512  22.824   8.077  0.1518 -0.3088 -0.0932
26663W        W69601  20.119  23.937   9.081 -0.2110  0.0852 -0.1111
26664W        W69602  24.093  26.199   8.830  0.0559  0.1718  0.0982
26665W        W69603  21.710  20.928   9.093 -0.4071 -0.0649  0.0010
26666W        W69604  22.170  22.342   5.940 -0.3755 -0.1291  0.1848
26667W        W69605  22.313  22.569   8.442 -0.1094 -0.0211 -0.0527
26668W        W69606  23.028  24.612   7.679 -0.4146 -0.2857  0.0981
26669W        W69607  24.245  19.112   9.695  0.1441 -0.1368 -0.0297
26670W        W69608  24.190  21.266   8.881 -0.0811  0.2320 -0.1521
26671W        W69609  24.146  22.729   7.916  0.0570  0.2104  0.1112
26672W        W69610  24.357  23.295   9.797  0.0956  0.0075 -0.0290
26673W        W69611  22.787  22.736   7.769 -0.1730  0.0330 -0.0804
26674W        W69612  24.337  21.877   9.631  0.0150  0.3512 -0.0111
26675W        W69613  23.393  26.412   9.331 -0.2831  0.0446 -0.1794
26676W        W69614  24.287  23.557   7.742  0.1375  0.0376  0.1422
26677W        W69615  23.080  21.512   7.522 -0.0233  0.2022 -0.1861
26678W        W69616  23.020  26.499   8.855 -0.2310 -0.2426 -0.0747
26679W        W69617  22.769  24.137   7.698 -0.4724  0.1216 -0.1079
26680W        W69618  23.348  21.842  10.128  0.0562  0.0186 -0.0728
26681W        W69619  24.270  24.496   9.544 -0.0378  0.2276  0.0774
26682W        W69620  22.702  24.033   7.167 -0.0033  0.1011 -0.0567
26683W        W69621  24.332  21.119   9.854 -0.0588  0.0201  0.0282
26684W        W69622  22.181  24.578   8.249  0.0644 -0.0095 -0.2121
26685W        W69623  23.584  19.375  10.383  0.1687  0.1404  0.1251
26686W        W69624  22.580  24.756   9.443 -0.1448  0.3094  0.0992
26687W        W69625  22.712  22.837   8.275 -0.1160  0.1415  0.0204
26688W        W69626  21.805  23.015   8.663 -0.0714 -0.2520 -0.2061
26689W        W69627  23.039  21.781   8.000 -0.0695 -0.2040 -0.0244
26690W        W69628  25.373  25.131   8.081 -0.0153  0.0772  0.3390
26691W        W69629  24.285  22.152  10.197 -0.1502 -0.1262  0.0604
26692W        W69630  24.043  20.328   9.246  0.1786  0.0461  0.0829
26693W        W69631  24.414  24.693  10.618  0.3309 -0.1008  0.0694
26694W        W69632  24.144  21.905   7.766 -0.2479  0.0273 -0.1069
26695W        W69633  22.619  23.159   7.865  0.0067  0.1387  0.0077
26696W        W69634  24.120  20.425  10.145 -0.0581 -0.3162  0.1299
26697W        W69635  21.719  23.986   9.926 -0.1314 -0.1191 -0.0118
26698W        W69636  22.006  23.647   9.506  0.0168  0.2032  0.2268
26699W        W69637  24.650  23.818   9.799  0.0078  0.2200 -0.0953
26700W        W69638  20.376  23.524   8.972 -0.4069 -0.2149  0.1688
26701W        W69639  22.779  24.972   8.229 -0.2187 -0.1615 -0.0912
26702W        W69640  23.557  23.215   9.861 -0.0852  0.0773 -0.1198
26703W        W69641  21.286  20.971   9.898  0.0180  0.1134  0.1912
26704W        W69642  22.954  22.242   9.241 -0.1758 -0.1740  0.0185
26705W        W69643  21.759  21.636  10.628  0.1843  0.1745  0.2378
26706W        W69644  23.816  23.192   9.404  0.1060 -0.1640 -0.0124
26707W        W69645  21.253  22.507  10.473 -0.0305  0.0323 -0.2575
26708W        W69646  24.235  21.599  10.060 -0.3220  0.1351 -0.1193
26709W        W69647  25.973  24.864   7.850  0.1510 -0.2461  0.1628
26710W        W69648  21.507  24.060   7.604  0.1811 -0.0543 -0.0393
26711W        W69649  21.782  23.115  10.033 -0.0682 -0.0749  0.0378
26712W        W69650  23.536  23.751   7.577 -0.0125 -0.0634 -0.1133
26713W        W69651  24.825  21.123   8.977 -0.1062  0.0753 -0.0097
26714W        W69652  21.576  23.507  10.322 -0.0737 -0.3081  0.1879
26715W        W69653  21.580  23.307   8.161 -0.0376 -0.1724 -0.2279
26716W        W69654  24.035  22.425   9.742  0.3446 -0.0111 -0.0793
26717W        W69655  26.032  21.357   6.394 -0.0418  0.1841 -0.1644
26718W        W69656  24.579  23.925   8.423  0.0890 -0.0628  0.3273
26719W        W69657  22.019  22.908   9.098  0.0312  0.0710 -0.2029
26720W        W69658  24.712  22.739   6.296 -0.2046 -0.1751  0.0672
26721W        W69659  24.343  23.031   9.334 -0.1410  0.0039  0.1178
26722W        W69660  24.613  22.978   8.523  0.1424 -0.2799 -0.0924
26723W        W69661  23.548  21.805   8.494 -0.0541  0.0100  0.1536
26724W        W69662  22.715  22.352   8.208 -0.1102  0.1421 -0.0708
26725W        W69663  23.346  21.485   9.743  0.2798 -0.0411 -0.0821
26726W        W69664  24.641  22.533   7.953  0.5765  0.1991 -0.1928
26727W        W69665  24.316  23.422   8.745  0.0387  0.1565 -0.1978
26728W        W69666  24.942  22.143   8.144  0.0092  0.0046 -0.2843
26729W        W69667  20.687  22.589  10.255  0.1737 -0.1366  0.0437
26730W        W69668  25.096  22.611   8.185  0.2993 -0.3271 -0.0128
26731W        W69669  23.766  22.626   8.782  0.0709  0.0777 -0.0703
26732W        W69670  23.837  21.591   8.861  0.1672 -0.1594  0.1633
26733W        W69671  24.507  23.128   7.960  0.0563  0.0404 -0.3299
26734W        W69672  23.059  21.917   8.917  0.1622  0.3203  0.0872
26735W        W69673  24.712  23.093  10.066  0.3815 -0.1982  0.2857
26736W        W69674  24.774  24.046   6.693  0.1081 -0.0349  0.3481
26737W        W69675  25.917  19.650   9.594 -0.2215 -0.1095 -0.1628
26738W        W69676  24.758  21.885  10.138 -0.0482 -0.0516  0.0861
26739W        W69677  22.895  22.903   9.128  0.4304  0.0347 -0.0135
26740W        W69678  22.493  23.739   9.604  0.4622 -0.1266  0.1977
26741W        W69679  22.269  22.154   8.091  0.3037 -0.0844  0.1361
26742W        W69680  23.352  24.903   7.394  0.1801 -0.1533  0.0160
26743W        W69681  24.102  25.282  10.224  0.1329 -0.0715  0.2407
26744W        W69682  23.780  21.843   9.834 -0.1175 -0.2354 -0.0291
26745W        W69683  21.238  23.201  10.053 -0.1026 -0.1908 -0.4150
26746W        W69684  22.531  21.811   7.213  0.3573  0.0743 -0.0668
26747W        W69685  23.057  23.721   7.682  0.1534  0.2857 -0.3917
26748W        W69686  23.806  25.694   8.893  0.2615 -0.1271  0.1746
26749W        W69687  22.831  21.411   8.830  0.1469  0.0784 -0.1614
26750W        W69688  20.726  23.407   7.236  0.0958 -0.0084 -0.2102
26751W        W69689  23.487  21.800   9.293 -0.1352 -0.1489 -0.2538
26752W        W69690  22.012  23.806   8.905 -0.1543 -0.3991 -0.3503
26753W        W69691  23.268  23.489   8.644 -0.1895 -0.3266  0.2409
26754W        W69692  23.383  21.457   8.865 -0.1643  0.1308  0.0280
26755W        W69693  24.403  22.701   8.972 -0.2245 -0.4196  0.1521
26756W        W69694  26.543  21.640   9.241 -0.4302  0.0441 -0.0056
26757W        W69695  22.282  23.560   8.245 -0.2965 -0.0477 -0.3183
26758W        W69696  26.151  21.780   8.947  0.0840 -0.0652  0.3006
26759W        W69697  23.411  24.412   8.798 -0.2365  0.1901  0.0539
26760W        W69698  23.530  22.812   9.597  0.1224 -0.0175  0.1048
26761W        W69699  22.126  22.102   8.591 -0.0058  0.1531  0.0396
26762W        W69700  23.851  24.509   7.949 -0.1635  0.1281 -0.0104
26763W        W69701  20.855  22.099  10.194 -0.1960  0.0269  0.0556
26764W        W69702  23.362  25.696   8.684 -0.0549 -0.0096  0.2309
26765W        W69703  23.976  24.004   8.319  0.0879  0.0164  0.2124
26766W        W69704  24.303  23.558   8.260  0.1765  0.3705  0.1244
26767W        W69705  22.694  22.817   9.881 -0.2875 -0.2517  0.0922
26768W        W69706  23.447  22.263   8.716  0.1598 -0.3052  0.1335
26769W        W69707  23.480  23.974   9.264 -0.0396  0.0472  0.0831
26770W        W69708  23.249  24.859   6.883  0.3110 -0.0438 -0.2944
26771W        W69709  24.064  25.029   7.999  0.0390  0.0510  0.3054
26772W        W69710  22.587  24.217   8.382 -0.0397 -0.0114 -0.0398
26773W        W69711  25.593  20.793   6.987 -0.0369  0.0321 -0.0797
26774W        W69712  24.625  22.348   8.450  0.3927 -0.2095  0.2125
26775W        W69713  25.522  21.835   8.289  0.2157 -0.0575 -0.4460
26776W        W69714  22.987  23.230  10.108 -0.3666  0.1244  0.0389
26777W        W69715  23.958  22.188   6.534  0.0719  0.0825  0.1747
26778W        W69716  24.379  25.048   7.421 -0.1902  0.0069  0.0576
26779W        W69717  21.777  21.920   7.847  0.0475 -0.0296 -0.0165
26780W        W69718  23.222  23.273   9.127 -0.0175  0.0654 -0.2138
26781W        W69719  26.000  20.854   9.192  0.0571 -0.2697 -0.3399
26782W        W69720  23.461  24.381   6.800  0.0413  0.3528  0.1440
26783W        W69721  23.978  21.571   9.385 -0.2626  0.2002  0.1636
26784W        W69722  24.527  24.931   8.080  0.3077  0.0939  0.1684
26785W        W69723  24.123  24.047   9.881 -0.0229  0.2710  0.1119
26786W        W69724  22.196  25.055   9.286 -0.1580  0.0940  0.1387
26787W        W69725  21.247  21.700   8.485  0.1298  0.0376  0.0347
26788W        W69726  24.118  22.399   7.516  0.1463  0.0137 -0.1695
26789W        W69727  21.982  21.753  10.023 -0.0571  0.0876 -0.2014
26790W        W69728  22.636  23.264   9.734  0.3355  0.1904 -0.0107
26791W        W69729  24.271  22.223   8.126 -0.2395 -0.0354 -0.1964
26792W        W69730  23.083  23.054   9.555  0.1140  0.0979 -0.1202
26793W        W69731  19.756  21.657   9.331  0.0126  0.0048 -0.0722
26794W        W69732  23.163  22.864   6.881  0.0440  0.1106  0.2001
26795W        W69733  23.684  22.626   8.235  0.2491  0.2405  0.4252
26796W        W69734  22.146  22.191   7.614  0.1260  0.0331 -0.1869
26797W        W69735  24.187  22.605   8.455  0.0232 -0.0693  0.1105
26798W        W69736  22.026  22.292  10.126  0.2020  0.1193  0.0054
26799W        W69737  21.441  21.583  10.239 -0.0574  0.2073  0.1038
26800W        W69738  21.517  21.260   8.822 -0.0508 -0.0344  0.0420
26801W        W69739  24.409  25.354   7.034 -0.1682 -0.0354 -0.0409
26802W        W69740  22.811  20.095   9.396 -0.2440  0.1544  0.0524
26803W        W69741  23.942  24.444   6.681 -0.0730  0.1251  0.1405
26804W        W69742  23.695  23.521   9.024  0.0783 -0.1971 -0.1358
26805W        W69743  25.018  23.152   9.684 -0.3384  0.0874  0.0583
26806W        W69744  21.622  19.969  10.727 -0.2186 -0.1167  0.2106
26807W        W69745  23.973  23.075   8.929 -0.2934 -0.1032  0.3693
26808W        W69746  25.051  24.116  10.007  0.1939  0.1878 -0.1488
26809W        W69747  23.356  21.009   9.803  0.0261  0.1775 -0.1771
26810W        W69748  22.994  23.989   9.489 -0.0552 -0.4078 -0.0136
26811W        W69749  22.199  24.480   7.030  0.1832  0.2092  0.1958
26812W        W69750  25.071  21.789   8.468  0.1840  0.0880  0.3790
26813W        W69751  23.870  25.289   7.070 -0.2229 -0.1076  0.2762
26814W        W69752  23.942  24.860   9.606 -0.1955 -0.0792 -0.2844
26815W        W69753  21.492  22.875   9.060 -0.1662 -0.0736  0.0469
26816W        W69754  23.101  23.789   8.991  0.1839 -0.2506 -0.0727
26817W        W69755  23.341  25.819   7.690 -0.1517  0.1281 -0.2130
26818W        W69756  25.254  23.972   8.609 -0.0785 -0.1655 -0.0301
26819W        W69757  22.550  22.342   9.619 -0.1684 -0.0100 -0.0094
26820W        W69758  25.175  24.526   8.651 -0.0590  0.3116 -0.1708
26821W        W69759  22.034  22.073   9.117  0.0545 -0.0577 -0.1127
26822W        W69760  25.609  22.426   9.002 -0.1019  0.3370 -0.0477
26823W        W69761  24.433  21.989   7.309  0.1316  0.1337  0.2020
26824W        W69762  22.419  23.269   9.261  0.1979  0.1143  0.0358
26825W        W69763  19.892  23.285   8.265  0.1263 -0.1718  0.0694
26826W        W69764  22.422  22.867   6.733 -0.0466 -0.1070  0.3083
26827W        W69765  22.734  23.377   8.332  0.1473  0.3948  0.3339
26828W        W69766  20.400  22.616   8.507  0.0594  0.2025  0.0001
26829W        W69767  22.666  23.536   7.407 -0.1274 -0.0506  0.0663
26830W        W69768  25.471  23.365   7.887  0.2758  0.1954  0.0816
26831W        W69769  21.087  22.234   8.454 -0.0646  0.2198 -0.1025
26832W        W69770  21.039  22.752   8.949 -0.0385  0.2028 -0.0695
26833W        W69771  24.358  24.272   8.764  0.0724  0.2113 -0.0840
26834W        W69772  23.608  25.356   7.605 -0.0903  0.0709  0.0541
26835W        W69773  22.646  21.390   7.817 -0.1343  0.0428 -0.1321
26836W        W69774  21.717  23.488   6.639 -0.0048 -0.2850 -0.0524
26837W        W69775  21.733  22.415   7.773  0.0556  0.0615  0.1207
26838W        W69776  23.945  22.682   9.254 -0.1498 -0.1591 -0.1058
26839W        W69777  23.091  24.518   8.323  0.2287  0.1944 -0.0694
26840W        W69778  24.864  24.780   7.570  0.0285 -0.1917  0.0011
26841W        W69779  21.228  22.445   9.996 -0.1659 -0.0358 -0.0893
26842W        W69780  23.312  22.133   7.027  0.0830 -0.2113 -0.2769
26843W        W69781  25.954  23.510   7.965 -0.1637 -0.2689 -0.2168
26844W        W69782  24.082  20.991   9.412 -0.0080 -0.2041 -0.0965
26845W        W69783  22.902  23.527   9.376  0.2695 -0.0319 -0.1652
26846W        W69784  25.119  20.663   9.610 -0.0614 -0.0147  0.2079
26847W        W69785  22.728  22.151   8.685  0.0768  0.4668  0.2436
26848W        W69786  25.006  21.691   7.938  0.3328  0.0778 -0.0623
26849W        W69787  23.112  24.067   8.549  0.0609 -0.1894  0.0650
26850W        W69788  21.667  22.837   9.614 -0.1319  0.1393  0.0074
26851W        W69789  22.972  21.730   9.383  0.0337 -0.0308  0.0479
26852W        W69790  23.791  23.509   8.511 -0.2596  0.1003  0.1461
26853W        W69791  23.351  22.736   7.800  0.0892  0.0679 -0.2326
26854W        W69792  25.174  23.746   8.132 -0.1711 -0.1190 -0.5388
26855W        W69793  23.454  25.813   9.420  0.1525  0.2512 -0.2215
26856W        W69794  24.642  25.678   8.881 -0.5333  0.0793 -0.2829
26857W        W69795  23.255  22.791  10.050 -0.2281 -0.1170 -0.1538
26858W        W69796  21.459  22.581   8.650 -0.0217 -0.2123  0.1035
26859W        W69797  23.996  24.402  10.353 -0.0468 -0.1746  0.1617
26860W        W69798  23.079  23.145   7.980  0.0004  0.2626  0.0326
26861W        W69799  22.624  19.691   9.735 -0.0762  0.0851  0.1487
26862W        W69800  22.620  22.348   7.530 -0.1565 -0.0259 -0.0322
26863W        W69801  23.877  22.164   8.478 -0.0708 -0.0352 -0.0633
26864W        W69802  22.878  24.662  10.165  0.1603  0.1149 -0.0377
26865W        W69803  22.956  23.725   9.878 -0.2703 -0.0004 -0.1516
26866W        W69804  23.916  28.782   4.333 -0.1779  0.1148 -0.1734
26867W        W69805  23.606  27.498   0.402  0.0848 -0.2307  0.0232
26868W        W69806  24.325  25.918   0.172 -0.0566 -0.0835  0.1731
26869W        W69807  24.654  29.009   2.300  0.2973  0.3147 -0.0453
26870W        W69808  22.589  27.017  31.395  0.1715  0.1148  0.1939
26871W        W69809  24.722  29.561  31.407 -0.4154 -0.1876  0.1323
26872W        W69810  21.140  23.868   2.657  0.1183 -0.0432  0.2759
26873W        W69811  23.833  27.743   2.722 -0.3178  0.0651 -0.2429
26874W        W69812  25.517  28.262   2.837 -0.0439  0.1081  0.0465
26875W        W69813  24.164  26.875  31.880  0.1138  0.0854  0.0076
26876W        W69814  23.334  27.505   3.441 -0.1223  0.1121  0.0460
26877W        W69815  24.853  28.954   3.059  0.2121  0.0024  0.0276
26878W        W69816  24.333  24.692   0.168 -0.0208  0.0098 -0.1898
26879W        W69817  21.448  23.930   3.341  0.0786 -0.1805  0.3116
26880W        W69818  25.196  26.118   3.006  0.2110  0.0789  0.2090
26881W        W69819  20.999  27.019   1.393  0.0650 -0.2560 -0.3782
26882W        W69820  23.415  26.550   1.827 -0.2060  0.0020  0.2011
26883W        W69821  22.134  26.047   1.947 -0.1653  0.2050  0.0408
26884W        W69822  24.365  28.481   2.372  0.1897 -0.0832  0.2360
26885W        W69823  22.604  25.984   2.874 -0.0188  0.1161 -0.1408
26886W        W69824  23.353  23.905   3.458 -0.0422  0.1376  0.0641
26887W        W69825  23.550  27.712   0.945 -0.2115 -0.2750  0.2152
26888W        W69826  21.868  26.942  31.790 -0.0731 -0.0006 -0.1421
26889W        W69827  21.872  25.595   3.638 -0.2053  0.1788 -0.1793
26890W        W69828  21.820  27.005   2.125  0.0760  0.1195 -0.0140
26891W        W69829  22.945  26.603   0.928  0.3309 -0.1806 -0.0438
26892W        W69830  24.727  27.012   1.131  0.4460 -0.0888  0.0644
26893W        W69831  23.630  27.824   2.008 -0.0919  0.1281 -0.0413
26894W        W69832  23.705  28.814   2.762 -0.0422  0.4834  0.2397
26895W        W69833  24.919  27.229   2.359 -0.1402 -0.1815 -0.1032
26896W        W69834  21.507  28.256   0.328 -0.0363 -0.1292 -0.1071
26897W        W69835  23.079  28.274   2.897  0.1568 -0.1315 -0.0878
26898W        W69836  23.638  30.171   0.554  0.4523 -0.0788  0.0497
26899W        W69837  24.598  28.552   1.320  0.1564 -0.2740 -0.1547
26900W        W69838  26.532  28.068   2.829 -0.1672 -0.1959  0.1302
26901W        W69839  22.472  28.152   2.657 -0.3661 -0.1569 -0.0228
26902W        W69840  23.223  28.304   0.155 -0.1090 -0.3835 -0.0098
26903W        W69841  23.595  28.786   3.526 -0.2547 -0.1070  0.0665
26904W        W69842  22.011  28.264   4.514 -0.2286  0.0378 -0.0884
26905W        W69843  23.497  27.506   2.385  0.0465 -0.0594 -0.0289
26906W        W69844  24.288  27.145   0.737 -0.1227 -0.2496  0.1555
26907W        W69845  22.657  28.615   0.453  0.1433 -0.2267 -0.1056
26908W        W69846  22.714  28.361   0.947 -0.0247 -0.1164 -0.3013
26909W        W69847  24.053  27.546   2.166  0.1420 -0.1342 -0.0218
26910W        W69848  21.579  27.531   2.153  0.0840 -0.1693 -0.2452
26911W        W69849  25.753  25.880   3.407  0.0428 -0.1699 -0.0565
26912W        W69850  23.184  29.528  31.151 -0.0366  0.0429 -0.2304
26913W        W69851  23.572  27.436   1.372 -0.1458  0.1086  0.1497
26914W        W69852  23.505  25.960   0.606  0.2644  0.0371  0.2350
26915W        W69853  25.067  28.375   0.486 -0.0629 -0.1274 -0.2346
26916W        W69854  22.642  26.111   0.637  0.0740  0.3428  0.3542
26917W        W69855  21.667  27.733   2.655  0.2182  0.0123 -0.1642
26918W        W69856  22.952  24.921   3.237 -0.1046 -0.5247  0.2733
26919W        W69857  25.022  28.565   3.454  0.0807 -0.1385  0.1177
26920W        W69858  23.425  26.681   0.975  0.1419 -0.1550 -0.0903
26921W        W69859  23.983  25.305   3.233 -0.1856 -0.1968 -0.3162
26922W        W69860  22.742  28.812   4.167  0.1650 -0.1005 -0.2576
26923W        W69861  21.071  26.267   1.909  0.1102 -0.0062  0.1253
26924W        W69862  25.710  29.310  31.815  0.1236 -0.1723  0.1060
26925W        W69863  25.839  28.681   0.909 -0.1290 -0.1479 -0.0140
26926W        W69864  23.809  30.704  31.144 -0.1415 -0.1710  0.2868
26927W        W69865  24.398  27.607   0.447 -0.0267  0.4053 -0.0220
26928W        W69866  22.746  27.149   2.648  0.2449  0.1808 -0.1311
26929W        W69867  21.750  27.424   1.715  0.3319  0.5258  0.0417
26930W        W69868  23.031  24.599   0.203 -0.1301 -0.0818  0.3891
26931W        W69869  25.029  28.332   3.016  0.1140 -0.1668  0.1372
26932W        W69870  22.743  28.364   3.918  0.0460  0.1345  0.0169
26933W        W69871  24.647  26.751   2.399 -0.1964  0.1101 -0.0215
26934W        W69872  21.299  26.875   2.574  0.0657  0.0019  0.0326
26935W        W69873  25.968  26.763   2.673  0.1987 -0.4453  0.1683
26936W        W69874  24.211  28.152  31.785  0.1906 -0.2179  0.1479
26937W        W69875  24.468  25.455   1.501 -0.3301  0.1127  0.0387
26938W        W69876  23.891  27.189   2.493  0.0213  0.2035 -0.3235
26939W        W69877  22.935  26.496  31.675 -0.1125 -0.0180 -0.0787
26940W        W69878  23.467  26.373  31.220 -0.0981  0.1554 -0.1415
26941W        W69879  25.382  27.413   3.370 -0.1309  0.1157 -0.0358
26942W        W69880  23.474  29.173  31.950  0.0529  0.3274 -0.1759
26943W        W69881  21.934  28.070   2.366  0.2980  0.0010  0.0047
26944W        W69882  22.611  26.932   2.183  0.1674  0.1220 -0.1451
26945W        W69883  23.794  27.797   3.313  0.1938 -0.0675  0.1427
26946W        W69884  21.551  27.720   0.360 -0.0481 -0.1172  0.1388
26947W        W69885  21.734  26.236   2.222 -0.1031 -0.0951  0.3167
26948W        W69886  21.453  27.160   1.200  0.0141 -0.1503  0.1077
26949W        W69887  20.836  25.082   2.384 -0.1644 -0.0009  0.4021
26950W        W69888  22.301  26.330   3.065 -0.3651 -0.0426  0.1527
26951W        W69889  23.133  25.377   0.206 -0.0327  0.3131  0.2112
26952W        W69890  22.556  26.312   2.110  0.0030  0.1248 -0.0607
26953W        W69891  23.419  25.221   1.134 -0.4489 -0.0348  0.1076
26954W        W69892  22.592  29.150   1.260  0.2056  0.0808 -0.1250
26955W        W69893  25.192  29.344   0.701  0.2167  0.1659 -0.0040
26956W        W69894  24.338  28.624  31.604  0.0694 -0.2181  0.0668
26957W        W69895  22.956  30.309  30.840 -0.0795  0.2011 -0.1150
26958W        W69896  22.027  27.496   2.242  0.1878  0.0328 -0.0871
26959W        W69897  21.928  24.766   1.388 -0.0613  0.1192  0.1617
26960W        W69898  22.628  25.346   2.995 -0.1891 -0.0733 -0.0771
26961W        W69899  22.698  26.737   0.462 -0.0279 -0.0266 -0.0753
26962W        W69900  24.402  27.989   2.238  0.1465 -0.1121 -0.1852
26963W        W69901  22.672  26.056  31.046  0.2856  0.2066 -0.2635
26964W        W69902  23.782  25.927   1.473 -0.2017  0.0422  0.0686
26965W        W69903  22.335  27.282   1.175 -0.2349 -0.0671 -0.1471
26966W        W69904  20.810  27.589   0.674  0.0247 -0.1113 -0.1670
26967W        W69905  26.212  26.732   3.091 -0.3761 -0.2479 -0.2619
26968W        W69906  24.809  29.388   1.057 -0.0413  0.0991  0.0197
26969W        W69907  24.628  28.268   3.645  0.3925  0.1018  0.2893
26970W        W69908  24.917  29.399   2.223 -0.0238  0.0824 -0.3292
26971W        W69909  22.835  25.567   3.917  0.1433  0.3002 -0.1647
26972W        W69910  22.235  25.776  31.847  0.1444 -0.0641 -0.0547
26973W        W69911  23.254  29.429   0.385 -0.1095 -0.1513  0.2394
26974W        W69912  21.420  26.184   3.340  0.0954  0.2331  0.0250
26975W        W69913  23.479  26.468   0.514  0.1204 -0.2658  0.1555
26976W        W69914  23.617  28.002   1.330 -0.1914  0.2657  0.1693
26977W        W69915  23.488  29.049   0.738  0.2534  0.4243 -0.0808
26978W        W69916  22.539  27.771   3.105  0.0461 -0.0768 -0.2132
26979W        W69917  23.977  27.269   3.537  0.3178  0.0917 -0.3034
26980W        W69918  25.873  27.623   1.379  0.0369 -0.1272  0.3426
26981W        W69919  24.328  27.616   2.613  0.1672  0.3850  0.2165
26982W        W69920  22.687  25.535   0.567  0.0983 -0.0568  0.0368
26983W        W69921  23.954  28.935   0.890  0.0875  0.0257  0.2455
26984W        W69922  23.118  30.229   0.310  0.3060  0.2424  0.5967
26985W        W69923  22.237  26.413   0.593 -0.0103  0.1211 -0.2115
26986W        W69924  24.073  27.181   1.280 -0.0693  0.0829 -0.1484
26987W        W69925  24.092  24.695   1.654  0.1088  0.1431 -0.0572
26988W        W69926  21.398  25.758   3.677 -0.0791  0.2757 -0.0672
26989W        W69927  24.719  24.976   2.791 -0.1989 -0.1916  0.1031
26990W        W69928  23.183  28.536   0.700 -0.3579 -0.0211  0.3156
26991W        W69929  22.566  27.545   3.909  0.0485  0.1887  0.0600
26992W        W69930  22.560  24.503   0.080 -0.1278  0.2056 -0.1828
26993W        W69931  24.441  26.720   1.890 -0.0617  0.0355  0.1088
26994W        W69932  24.741  26.071   2.504 -0.1632 -0.0044 -0.0403
26995W        W69933  24.685  28.234   1.689  0.1097  0.2980  0.1815
26996W        W69934  24.583  24.201  31.454  0.3253 -0.0929 -0.3165
26997W        W69935  24.411  26.585   1.400 -0.0973  0.3019  0.2333
26998W        W69936  21.768  25.992   4.579 -0.2050  0.0504 -0.2437
26999W        W69937  23.379  29.645  31.726  0.3533 -0.1066 -0.1566
27000W        W69938  23.625  27.028   0.666 -0.1823 -0.0504  0.3686
27001W        W69939  24.678  25.556  31.110 -0.0546 -0.0806 -0.0675
27002W        W69940  25.137  29.234  31.585 -0.1887  0.6030  0.1154
27003W        W69941  22.032  26.878   2.907 -0.0874 -0.0048  0.1565
27004W        W69942  24.208  27.293   3.982 -0.0903  0.1369 -0.1154
27005W        W69943  25.398  27.329   2.233 -0.0739  0.0984 -0.3281
27006W        W69944  23.860  25.817   3.634  0.1285 -0.0263  0.4514
27007W        W69945  23.556  26.059  31.603  0.0405 -0.1910 -0.0581
27008W        W69946  23.987  27.883   1.705 -0.0270 -0.0788  0.2427
27009W        W69947  22.721  29.954  30.587 -0.0797  0.1470  0.0530
27010W        W69948  25.130  23.678   2.577  0.1286 -0.2477  0.0672
27011W        W69949  24.227  25.867   2.744 -0.0207 -0.1348 -0.0272
27012W        W69950  22.387  26.656   1.794 -0.0808 -0.1971 -0.2244
27013W        W69951  25.447  26.533   2.934  0.3043 -0.0292 -0.0543
27014W        W69952  24.006  26.328   1.653  0.0011 -0.0834 -0.1515
27015W        W69953  24.070  26.707   2.370  0.3779  0.0838 -0.0590
27016W        W69954  22.762  29.501   0.475 -0.3074  0.1916  0.0583
27017W        W69955  24.159  25.506   3.839 -0.1477  0.1973 -0.1294
27018W        W69956  21.618  25.995   1.779  0.0721  0.1539  0.1485
27019W        W69957  22.543  27.436   2.214  0.0123  0.0741 -0.0417
27020W        W69958  24.325  29.036   3.247  0.1537 -0.2826  0.0963
27021W        W69959  23.107  28.978   0.349  0.2636 -0.1488 -0.0722
27022W        W69960  24.139  26.403   4.077  0.0340 -0.0084  0.0742
27023W        W69961  23.382  25.554  31.790 -0.0072 -0.0502 -0.0147
27024W        W69962  23.597  29.523   0.810 -0.0146  0.0242  0.0551
27025W        W69963  22.181  27.801   0.288  0.1834 -0.1251  0.0032
27026W        W69964  23.519  25.856   4.416 -0.0999  0.1213  0.0185
27027W        W69965  23.278  28.309   4.057  0.1114  0.2553  0.0566
27028W        W69966  23.010  27.450  31.202  0.0904 -0.1355 -0.0671
27029W        W69967  24.373  27.813   4.598  0.1000 -0.1025 -0.0493
27030W        W69968  23.427  28.683  31.877 -0.1921 -0.1028 -0.2526
27031W        W69969  23.554  25.665   2.826  0.1941  0.1754  0.1011
27032W        W69970  21.590  25.702   3.180 -0.2136 -0.0998 -0.0880
27033W        W69971  23.631  27.348  31.840  0.2312  0.1486 -0.1150
27034W        W69972  22.669  26.921  31.979  0.1608  0.0813 -0.0348
27035W        W69973  23.773  26.261   0.958 -0.1583  0.1369 -0.0975
27036W        W69974  24.593  28.350   0.086 -0.0420  0.1587  0.0382
27037W        W69975  20.644  26.271   2.763 -0.2560 -0.1064  0.1572
27038W        W69976  21.267  26.345   2.503 -0.0286  0.5963 -0.0589
27039W        W69977  21.714  27.893   3.256  0.3312 -0.0999 -0.1545
27040W        W69978  25.449  26.216   4.090 -0.0899 -0.1385  0.0525
27041W        W69979  25.046  24.288   0.005  0.2568  0.0049 -0.2484
27042W        W69980  24.123  26.796   4.873 -0.2733  0.1768  0.1726
27043W        W69981  23.639  26.924   6.210 -0.1097  0.3918 -0.3540
27044W        W69982  22.846  26.637  31.194  0.0020 -0.0338 -0.0250
27045W        W69983  25.083  26.672   3.293  0.1771 -0.0665 -0.1837
27046W        W69984  23.119  27.094   1.395  0.1033 -0.2282 -0.1831
27047W        W69985  22.742  28.288  31.612  0.4348 -0.0721 -0.0749
27048W        W69986  23.810  29.145   3.149  0.0532 -0.1445 -0.0455
27049W        W69987  21.899  26.501   1.013 -0.2072 -0.0552  0.4928
27050W        W69988  22.812  28.568   1.869 -0.2534  0.0728  0.1568
27051W        W69989  23.027  25.443   4.452  0.1832 -0.0398  0.3602
27052W        W69990  24.990  26.860   2.818  0.2637 -0.0151  0.2790
27053W        W69991  22.838  27.098   0.969 -0.2519  0.2734  0.0755
27054W        W69992  22.236  25.731   0.627  0.0468 -0.3280  0.1666
27055W        W69993  23.881  28.485   1.340 -0.1587 -0.3367  0.1765
27056W        W69994  24.580  27.122   2.783 -0.1405  0.1056  0.0387
27057W        W69995  24.708  26.395   2.894 -0.3820 -0.0358 -0.3563
27058W        W69996  22.926  28.081   4.793  0.1070  0.2181 -0.1441
27059W        W69997  24.187  25.067   1.295 -0.0782  0.3130 -0.1647
27060W        W69998  25.123  28.588   0.028  0.3641 -0.1215 -0.0572
27061W        W69999  24.838  26.289   3.419  0.2813 -0.2065 -0.2208
27062W        W70000  23.650  28.972   1.353  0.3899  0.0242 -0.1186
27063W        W70001  21.891  25.206   1.847  0.0205  0.1420 -0.0792
27064W        W70002  22.850  29.676  31.606 -0.2242 -0.3142 -0.0047
27065W        W70003  21.892  26.065   1.361  0.0103  0.1314 -0.0801
27066W        W70004  20.997  28.106   2.619 -0.2960 -0.4868 -0.0177
27067W        W70005  22.818  28.702   0.016  0.0988 -0.2129  0.1128
27068W        W70006  22.263  27.603   3.525 -0.0883 -0.0307  0.1123
27069W        W70007  25.263  25.531   1.049 -0.0222  0.1280 -0.2262
27070W        W70008  24.054  26.698   0.579 -0.2835  0.2197 -0.1472
27071W        W70009  23.001  26.343   0.423  0.3338 -0.4393 -0.1887
27072W        W70010  26.814  26.449   3.925 -0.0489  0.0156 -0.0128
27073W        W70011  22.642  29.131   0.195  0.0785  0.1508  0.2126
27074W        W70012  24.469  25.954   3.970  0.1222  0.0683 -0.2138
27075W        W70013  21.659  25.314   2.864 -0.1211 -0.0869 -0.0985
27076W        W70014  24.639  27.600   2.053 -0.4350 -0.0075 -0.1043
27077W        W70015  20.110  24.165   1.267 -0.0597  0.2175 -0.1963
27078W        W70016  23.972  30.103   3.796 -0.0256  0.1452 -0.2777
27079W        W70017  21.954  26.575   4.208  0.0495 -0.2035  0.1602
27080W        W70018  23.512  25.812   1.077  0.0111  0.0895  0.0578
27081W        W70019  23.841  24.807   0.130  0.3572 -0.4060 -0.1887
27082W        W70020  23.673  27.565   3.805  0.3419  0.0872 -0.4168
27083W        W70021  25.212  27.297   2.812 -0.0513  0.0503  0.1874
27084W        W70022  23.425  27.977   0.525  0.0943 -0.0081  0.3944
27085W        W70023  24.869  26.804   1.753 -0.1526 -0.1434  0.0119
27086W        W70024  21.910  26.998   1.459  0.0349  0.0400 -0.3123
27087W        W70025  23.685  28.309   0.909  0.0165 -0.0597  0.1035
27088W        W70026  25.125  27.260  31.532  0.2553  0.0354  0.0143
27089W        W70027  21.816  26.522   1.732  0.0139  0.2451 -0.2401
27090W        W70028  22.160  25.706   2.891  0.3087  0.0259  0.0923
27091W        W70029  24.186  28.363   1.914  0.0098  0.0479  0.0074
27092W        W70030  23.109  26.905   0.562  0.0875  0.1763  0.1534
27093W        W70031  24.040  25.339   2.732 -0.1689  0.0119 -0.1223
27094W        W70032  23.733  26.353   3.093 -0.0007 -0.4043 -0.0227
27095W        W70033  21.855  27.475   1.208 -0.2070  0.2141 -0.4720
27096W        W70034  22.682  24.549   3.486 -0.1218  0.0084 -0.2253
27097W        W70035  25.229  27.788   2.131  0.0040 -0.2976  0.1006
27098W        W70036  23.930  26.478  31.379 -0.1673  0.2562  0.2190
27099W        W70037  24.168  24.645   2.841 -0.0665  0.1720  0.1689
27100W        W70038  25.032  27.291   1.798  0.0668 -0.3418  0.0466
27101W        W70039  22.688  26.418   0.100 -0.2003  0.0547  0.2202
27102W        W70040  21.886  24.767   2.915  0.1297  0.0128 -0.1699
27103W        W70041  24.737  27.556   2.975 -0.2858 -0.0626  0.0756
27104W        W70042  21.821  25.397   0.659  0.0039 -0.1470 -0.0513
27105W        W70043  23.502  25.031   4.423  0.1325  0.0460 -0.3515
27106W        W70044  22.799  27.704   0.154  0.0872 -0.0215  0.1201
27107W        W70045  23.972  26.808   3.335  0.2592 -0.0300 -0.0191
27108W        W70046  23.652  26.922   0.143 -0.2155  0.0683 -0.0841
27109W        W70047  21.608  25.427   2.216 -0.1209  0.3796 -0.1842
27110W        W70048  23.124  28.739   2.729 -0.4720 -0.2950 -0.0152
27111W        W70049  21.913  27.876   0.775 -0.0826  0.1527 -0.2778
27112W        W70050  23.959  27.503   0.735 -0.1655  0.2814 -0.0349
27113W        W70051  23.885  28.090   2.348 -0.1664 -0.0200 -0.0525
27114W        W70052  25.106  27.095   3.742 -0.0735 -0.1562 -0.2369
27115W        W70053  23.840  25.991   0.039  0.1092  0.2200 -0.2480
27116W        W70054  25.152  25.703   3.368 -0.3230  0.1502  0.1713
27117W        W70055  22.092  27.394   0.603  0.2480 -0.0666 -0.1438
27118W        W70056  21.789  24.984   0.925 -0.0105 -0.2337 -0.0790
27119W        W70057  22.562  29.043   1.780  0.0715  0.4173  0.1221
27120W        W70058  22.150  26.563   2.212  0.2400  0.2414  0.2719
27121W        W70059  23.218  28.695   2.245 -0.0147  0.0373  0.1353
27122W        W70060  22.184  25.590   2.265 -0.1017  0.0285  0.0347
27123W        W70061  23.927  27.349   1.713  0.3417  0.1429 -0.0969
27124W        W70062  23.701  28.261   1.750  0.1189 -0.1751 -0.1326
27125W        W70063  26.910  26.917   2.404 -0.1860  0.2205  0.0178
27126W        W70064  23.723  28.579   3.946 -0.4102 -0.0117 -0.2088
27127W        W70065  21.217  27.083   2.062 -0.1277  0.0692  0.0695
27128W        W70066  23.911  28.350   2.796  0.1225  0.1727  0.1561
27129W        W70067  24.719  27.819   0.804 -0.1276 -0.0739  0.1892
27130W        W70068  22.584  28.163   1.363 -0.3051 -0.1015 -0.0582
27131W        W70069  22.688  24.721   2.853 -0.0413  0.4048  0.1847
27132W        W70070  23.766  27.263   4.188  0.2682 -0.2321 -0.2175
27133W        W70071  23.347  28.525   1.209 -0.2603  0.2190  0.1969
27134W        W70072  23.455  26.401   1.355  0.3273 -0.0481  0.1848
27135W        W70073  23.903  28.925  31.592 -0.1816 -0.0122 -0.1197
27136W        W70074  22.360  28.456   2.272 -0.0688 -0.0328 -0.0617
27137W        W70075  21.047  27.631   2.062  0.2222  0.1224  0.1891
27138W        W70076  23.880  29.658  31.870  0.0185 -0.1470 -0.0089
27139W        W70077  23.691  28.238   0.081  0.3297  0.0101 -0.0763
27140W        W70078  25.117  28.473   1.399 -0.1675  0.2499  0.2144
27141W        W70079  23.880  29.413   2.558  0.0004 -0.0599 -0.0363
27142W        W70080  21.386  26.212   0.773  0.3299 -0.4021 -0.0039
27143W        W70081  22.257  30.883   1.572  0.0497  0.0343 -0.0574
27144W        W70082  21.098  30.953   0.100 -0.1525 -0.0526  0.1943
27145W        W70083  25.022  29.880   0.774  0.1385 -0.0258  0.2145
27146W        W70084  22.308  29.228   0.636  0.1032  0.1085 -0.5543
27147W        W70085  24.578  28.508   3.189  0.1124  0.2414 -0.0363
27148W        W70086  25.711  24.708  31.800 -0.1787 -0.3576 -0.0949
27149W        W70087  25.538  26.897   2.477 -0.1282  0.1865  0.4184
27150W        W70088  24.735  27.270   0.527 -0.1532 -0.1164  0.0218
27151W        W70089  24.164  27.776   3.719 -0.4106  0.0028  0.2271
27152W        W70090  22.615  26.937   1.389  0.3171  0.1900 -0.0660
27153W        W70091  23.926  24.965  31.372 -0.0121 -0.2183  0.2276
27154W        W70092  23.269  26.611   2.899  0.0146  0.3678 -0.1699
27155W        W70093  25.023  23.744   3.618  0.2982 -0.3237 -0.0697
27156W        W70094  21.947  26.996   3.863 -0.0463 -0.1263  0.2612
27157W        W70095  25.241  29.603  31.940  0.1546 -0.1343  0.3139
27158W        W70096  23.063  25.835   0.403 -0.4042 -0.0487  0.0330
27159W        W70097  22.884  27.361   1.830  0.0495 -0.1363  0.2128
27160W        W70098  24.182  25.087   3.662  0.1524  0.1878  0.6035
27161W        W70099  23.956  26.171   0.491 -0.1152  0.3731  0.1459
27162W        W70100  22.739  27.497   1.356 -0.1733  0.1955 -0.0514
27163W        W70101  24.564  29.181   1.457 -0.0997 -0.2551  0.0048
27164W        W70102  23.348  28.234   2.131 -0.0725 -0.1600  0.0428
27165W        W70103  23.043  27.879   3.232  0.1122 -0.2412  0.0998
27166W        W70104  20.497  26.676   0.108 -0.2454  0.0595  0.0769
27167W        W70105  25.103  26.595   1.336 -0.0449 -0.0855 -0.0119
27168W        W70106  22.269  27.106   2.453 -0.1848  0.0012 -0.2370
27169W        W70107  24.350  25.007   3.142 -0.0949  0.3507 -0.1295
27170W        W70108  21.494  25.928   1.104  0.0529 -0.4223  0.0483
27171W        W70109  23.011  26.836   1.840  0.0711 -0.2680 -0.0303
27172W        W70110  25.523  26.088   2.590  0.0383 -0.2597  0.0381
27173W        W70111  22.150  26.078   2.488  0.2658 -0.1787 -0.0741
27174W        W70112  23.078  27.033  31.513  0.0941  0.2788 -0.1975
27175W        W70113  25.307  26.163   3.506  0.0001  0.1393 -0.2486
27176W        W70114  22.525  25.880   0.248  0.0881 -0.0086  0.3536
27177W        W70115  24.060  28.866   3.714 -0.0739  0.1835  0.2307
27178W        W70116  21.492  25.586   1.496 -0.0865 -0.0366  0.0909
27179W        W70117  24.056  25.672  31.730  0.3510 -0.2632  0.1357
27180W        W70118  22.624  27.489   0.688 -0.0165 -0.1913  0.2217
27181W        W70119  23.270  27.925   2.559  0.0659  0.2547 -0.1339
27182W        W70120  25.364  28.385   4.291  0.0291 -0.4251  0.0370
27183W        W70121  21.839  26.011   0.671  0.2148  0.1201 -0.4637
27184W        W70122  24.354  26.412   0.212 -0.0274  0.3853 -0.0324
27185W        W70123  22.446  26.594   2.688  0.0447 -0.0533  0.4045
27186W        W70124  23.583  30.144  31.979 -0.0669  0.1190  0.0607
27187W        W70125  23.277  28.680   1.737  0.2020 -0.2908 -0.2386
27188W        W70126  24.394  28.164   2.788  0.0766 -0.0177  0.1290
27189W        W70127  20.514  26.291   2.087 -0.2634 -0.3646  0.1834
27190W        W70128  24.897  28.595   2.132 -0.1312  0.0210 -0.1358
27191W        W70129  25.738  29.170   2.858  0.0336  0.1955 -0.2532
27192W        W70130  21.433  26.585   2.091  0.1201 -0.1854 -0.1021
27193W        W70131  20.985  25.573   2.414 -0.5601 -0.0319 -0.1926
27194W        W70132  22.250  30.251   0.705 -0.2240  0.1119  0.1525
27195W        W70133  23.799  26.345   2.107  0.0212  0.1751  0.3712
27196W        W70134  24.809  25.040   2.291 -0.0281 -0.0295  0.0477
27197W        W70135  22.162  28.715   0.492 -0.1882  0.0066  0.0178
27198W        W70136  23.393  25.244   3.142 -0.1228  0.2264  0.0373
27199W        W70137  24.282  28.760   2.769  0.1089  0.1900  0.0262
27200W        W70138  22.999  29.198   4.030  0.1210  0.0325 -0.2255
27201W        W70139  21.585  27.388   0.773  0.0995  0.0592 -0.2780
27202W        W70140  23.900  28.601   2.320  0.1709 -0.0474 -0.1330
27203W        W70141  23.606  28.687   0.419 -0.1215  0.2817 -0.0236
27204W        W70142  24.002  29.916   0.714  0.4838 -0.0041  0.5853
27205W        W70143  23.587  26.977   1.603  0.2606 -0.2117 -0.0871
27206W        W70144  23.988  27.712   1.233 -0.0462 -0.2164  0.0087
27207W        W70145  25.122  28.142   2.571  0.1670 -0.0546  0.1722
27208W        W70146  22.294  26.303   1.450 -0.0250 -0.1888  0.1394
27209W        W70147  24.518  25.474   2.798  0.1294 -0.0192 -0.0383
27210W        W70148  24.027  25.936   1.960  0.0174  0.0441 -0.1091
27211W        W70149  23.076  27.226   2.282  0.0431  0.2997  0.0553
27212W        W70150  20.187  27.249   0.939  0.0038 -0.2023  0.0604
27213W        W70151  21.509  27.785   1.316 -0.0268 -0.1028 -0.0299
27214W        W70152  20.627  27.262   3.445 -0.6818 -0.0429  0.0801
27215W        W70153  22.901  23.017   3.219 -0.0560  0.1911  0.1381
27216W        W70154  22.609  25.145   3.535 -0.2750 -0.0509  0.0039
27217W        W70155  20.717  26.480   1.511 -0.1451  0.1636 -0.4449
27218W        W70156  21.119  27.075   0.828 -0.0122  0.1878 -0.2364
27219W        W70157  25.419  28.371  31.597  0.1210 -0.0813  0.2528
27220W        W70158  20.892  25.820   2.907 -0.0460  0.1225  0.1957
27221W        W70159  22.246  25.221   2.751  0.2728  0.0387 -0.1318
27222W        W70160  23.996  28.663   0.001  0.0120 -0.1638 -0.2874
27223W        W70161  24.466  29.031   0.925 -0.1765 -0.3711  0.1910
27224W        W70162  24.288  28.175   1.351 -0.1837 -0.1313  0.0185
27225W        W70163  26.320  27.506   3.576 -0.0849  0.0553 -0.0333
27226W        W70164  22.642  27.431  31.723  0.0800  0.3577  0.0799
27227W        W70165  23.546  27.016   3.708 -0.2515  0.1366 -0.0343
27228W        W70166  22.975  24.951   3.767  0.0561  0.1070 -0.1817
27229W        W70167  23.196  26.692   0.131 -0.2778  0.0481 -0.0506
27230W        W70168  22.416  27.729   1.688  0.0177 -0.2026  0.0781
27231W        W70169  24.823  28.096   2.125  0.0882  0.1637  0.1103
27232W        W70170  23.979  30.123  31.648 -0.1539  0.1273  0.0020
27233W        W70171  23.572  27.046   3.161 -0.1160  0.0928 -0.3786
27234W        W70172  23.458  28.514   3.109  0.2803 -0.2325 -0.2130
27235W        W70173  21.859  25.071   2.442 -0.1013  0.1289 -0.3703
27236W        W70174  25.245  27.898   0.876  0.1371 -0.3026 -0.0300
27237W        W70175  23.060  27.024   3.080  0.1946  0.2132  0.1827
27238W        W70176  25.910  27.956  30.556  0.1571 -0.2383  0.1574
27239W        W70177  24.967  24.533   2.111 -0.0259 -0.1544 -0.0752
27240W        W70178  22.760  29.041   0.719 -0.0082  0.1903  0.0860
27241W        W70179  21.470  23.664   3.740  0.0650  0.2106  0.2059
27242W        W70180  21.739  26.614   2.578  0.1158 -0.0130  0.0913
27243W        W70181  24.816  28.614   2.626  0.3260 -0.2221 -0.3965
27244W        W70182  23.176  26.157   0.956  0.1347 -0.0589  0.1408
27245W        W70183  25.039  27.355   0.916  0.1181 -0.0132 -0.0413
27246W        W70184  25.105  29.938  31.354 -0.2493 -0.1705 -0.0818
27247W        W70185  21.333  24.997   1.971  0.0432  0.1800  0.0473
27248W        W70186  24.748  25.656   0.831  0.3034 -0.0865  0.2923
27249W        W70187  22.253  27.668   2.643  0.1561  0.0540 -0.0983
27250W        W70188  23.537  28.025   3.000 -0.1395  0.1243 -0.2068
27251W        W70189  23.981  26.856   1.915  0.4362  0.0730  0.1801
27252W        W70190  24.120  25.844   1.026  0.2823  0.1163 -0.1089
27253W        W70191  25.417  27.885  31.229  0.0604 -0.0208  0.1118
27254W        W70192  24.974  29.093   3.527  0.1582  0.0157 -0.2662
27255W        W70193  25.518  29.212   4.834  0.1036  0.2910 -0.1731
27256W        W70194  23.216  28.172   1.552  0.0459  0.0069 -0.5163
27257W        W70195  24.873  27.637   3.470 -0.0415  0.1081  0.3137
27258W        W70196  20.249  24.052   3.065  0.0790 -0.1330 -0.1197
27259W        W70197  23.114  27.555   0.550 -0.0672  0.0111 -0.0093
27260W        W70198  22.843  27.995   0.574 -0.2785  0.1042 -0.1451
27261W        W70199  24.540  24.701   1.899  0.1355  0.3904  0.1602
27262W        W70200  21.486  26.896   1.672  0.0822 -0.4461 -0.0681
27263W        W70201  24.029  24.163  31.623 -0.1353  0.0853  0.2667
27264W        W70202  23.499  28.312   2.600  0.0583 -0.1680  0.1256
27265W        W70203  23.652  28.278   3.553  0.1391 -0.2158  0.1185
27266W        W70204  23.444  26.302   5.355  0.1200  0.0392 -0.0159
27267W        W70205  21.599  26.806   4.593 -0.0885 -0.1402 -0.2338
27268W        W70206  23.334  25.763   3.877  0.0170 -0.0007  0.2465
27269W        W70207  26.096  27.419   5.549  0.0696 -0.1853  0.0905
27270W        W70208  21.658  24.770   4.737  0.1168  0.2800 -0.2599
27271W        W70209  24.692  28.188   4.484  0.2168  0.1429  0.1052
27272W        W70210  22.425  25.334   5.033 -0.2227  0.1895  0.2197
27273W        W70211  25.123  28.275   5.358 -0.0204 -0.1768  0.1685
27274W        W70212  25.512  28.045   5.592 -0.3448 -0.1669 -0.1896
27275W        W70213  23.330  26.299   4.501  0.0638  0.0670  0.0608
27276W        W70214  23.548  26.085   4.921 -0.2994  0.0420  0.2216
27277W        W70215  22.968  27.600   7.336  0.0026  0.0761 -0.2539
27278W        W70216  22.686  25.598   2.496  0.1836  0.1228 -0.1353
27279W        W70217  22.349  24.336   6.055 -0.1650 -0.0781 -0.0272
27280W        W70218  22.892  27.063   7.558  0.1085 -0.0110  0.1693
27281W        W70219  21.599  25.302   3.982  0.1428 -0.0105 -0.2638
27282W        W70220  22.382  27.087   4.118 -0.1092  0.0776  0.1572
27283W        W70221  24.570  26.863   5.070 -0.0818  0.1182  0.0818
27284W        W70222  23.644  27.061   5.148 -0.0386 -0.2101 -0.3968
27285W        W70223  22.706  25.791   6.593  0.2189  0.1312  0.0749
27286W        W70224  23.766  25.135   6.107  0.1970 -0.4040 -0.0375
27287W        W70225  23.495  27.555   4.663 -0.1970 -0.0815 -0.3661
27288W        W70226  21.880  26.102   4.070  0.0355  0.3373 -0.1055
27289W        W70227  22.416  25.590   6.254  0.1211 -0.1359  0.0058
27290W        W70228  23.242  26.832   5.908 -0.0642  0.1412 -0.1030
27291W        W70229  24.734  26.084   5.338  0.1820  0.0362  0.2054
27292W        W70230  24.537  26.258   6.277 -0.0329 -0.0040  0.0387
27293W        W70231  23.665  28.332   4.542 -0.0106 -0.0169  0.1186
27294W        W70232  23.252  29.736   5.677 -0.0985 -0.2399  0.0720
27295W        W70233  23.880  26.495   7.003 -0.1895 -0.0555  0.3556
27296W        W70234  21.851  26.997   6.323 -0.2056  0.3387 -0.1195
27297W        W70235  20.753  29.184   4.530 -0.0438  0.0720 -0.1329
27298W        W70236  21.973  27.550   3.049  0.0824  0.2643 -0.3009
27299W        W70237  24.853  28.612   4.580  0.0999  0.1145 -0.0133
27300W        W70238  24.284  28.485   5.288 -0.0957 -0.2447  0.3005
27301W        W70239  22.816  28.839   6.444  0.1361 -0.2477 -0.1335
27302W        W70240  21.380  27.656   4.598  0.0213  0.0967 -0.0667
27303W        W70241  23.750  28.244   7.050  0.2867  0.1912 -0.2341
27304W        W70242  22.814  28.525   6.808  0.1620 -0.0406 -0.1933
27305W        W70243  24.308  27.856   5.135 -0.0046 -0.0372  0.0078
27306W        W70244  23.681  25.071   5.477 -0.1950  0.3934 -0.1731
27307W        W70245  22.507  28.179   4.616 -0.2473 -0.0221  0.1927
27308W        W70246  24.683  27.650   5.386 -0.0102 -0.0242 -0.1888
27309W        W70247  21.947  27.618   7.232 -0.3122  0.1848  0.1632
27310W        W70248  23.346  27.327   6.065  0.2840  0.0424  0.3557
27311W        W70249  23.892  24.917   7.497  0.2444 -0.0317  0.0938
27312W        W70250  22.208  27.910   4.874 -0.0747  0.1868  0.0679
27313W        W70251  25.340  25.787   3.812  0.0775  0.0588  0.0316
27314W        W70252  22.998  26.234   3.765  0.1088  0.1802  0.4140
27315W        W70253  25.615  26.021   4.551  0.3033  0.2569  0.0558
27316W        W70254  23.020  24.950   4.561 -0.0733 -0.2859 -0.1260
27317W        W70255  22.611  27.935   5.207 -0.1508 -0.1368 -0.1654
27318W        W70256  22.899  26.140   5.728  0.0254  0.2109 -0.1369
27319W        W70257  23.092  26.207   6.244 -0.0597  0.1109 -0.1245
27320W        W70258  23.091  25.869   5.354 -0.2039 -0.2089  0.1828
27321W        W70259  22.474  26.130   5.996  0.1371  0.3500 -0.3090
27322W        W70260  22.298  27.051   5.105  0.0515 -0.1038  0.1293
27323W        W70261  22.705  27.038   5.601 -0.2414 -0.0158  0.5317
27324W        W70262  25.645  27.158   3.832  0.0256 -0.0410  0.2678
27325W        W70263  25.199  27.553   5.703 -0.0892  0.0005  0.1081
27326W        W70264  24.046  27.696   4.243 -0.0458 -0.1546 -0.2946
27327W        W70265  21.541  25.806   4.177 -0.1207  0.2166 -0.0375
27328W        W70266  22.947  26.210   6.718  0.0243  0.1714  0.0636
27329W        W70267  23.046  27.452   7.841 -0.1997 -0.5145  0.2124
27330W        W70268  23.258  24.525   3.570 -0.1329 -0.3675 -0.0053
27331W        W70269  26.893  27.350   6.136  0.1204  0.0240  0.2657
27332W        W70270  21.982  27.557   7.730  0.0045  0.1018 -0.1174
27333W        W70271  24.865  25.531   4.659  0.1454 -0.2040 -0.0820
27334W        W70272  23.347  28.015   5.017  0.0955  0.4983 -0.1232
27335W        W70273  24.677  28.425   5.528  0.2264 -0.1638 -0.0358
27336W        W70274  25.533  28.430   3.317  0.2152 -0.1724  0.1811
27337W        W70275  23.799  24.729   5.078 -0.1004 -0.2729 -0.1392
27338W        W70276  24.137  25.809   6.430 -0.1625 -0.0361 -0.1906
27339W        W70277  20.685  26.435   4.962 -0.2487 -0.2120  0.2340
27340W        W70278  23.985  25.219   5.089 -0.0255 -0.0392  0.0123
27341W        W70279  24.546  27.515   6.840 -0.0502  0.3409  0.0057
27342W        W70280  23.906  26.359   3.623  0.3211  0.0445 -0.0187
27343W        W70281  21.951  28.630   5.378  0.0693  0.2813  0.1335
27344W        W70282  22.562  26.392   6.467  0.0260  0.1590 -0.1492
27345W        W70283  24.372  27.613   7.396 -0.2211  0.3410  0.4579
27346W        W70284  22.943  28.444   4.433 -0.0307 -0.1043 -0.0347
27347W        W70285  21.986  26.705   5.297  0.1123 -0.0981 -0.0747
27348W        W70286  22.832  27.394   3.304  0.3372 -0.2754  0.0970
27349W        W70287  21.160  24.529   6.801  0.0516 -0.0529 -0.2402
27350W        W70288  22.375  27.763   7.399 -0.2089 -0.0338  0.2196
27351W        W70289  24.675  25.125   3.876 -0.0765  0.1904  0.2774
27352W        W70290  22.089  25.703   4.893  0.2899  0.3985  0.2457
27353W        W70291  24.743  26.357   4.363  0.0243 -0.2589  0.0982
27354W        W70292  20.995  28.520   6.244 -0.2529 -0.0469  0.1323
27355W        W70293  24.803  27.595   4.430 -0.0489  0.1319 -0.2225
27356W        W70294  25.935  26.214   3.743 -0.3130 -0.1121 -0.2390
27357W        W70295  24.428  28.026   4.083  0.1221 -0.0926 -0.3119
27358W        W70296  21.774  25.995   7.406  0.1641  0.0252  0.0531
27359W        W70297  23.596  25.506   5.148 -0.2189 -0.1488  0.0282
27360W        W70298  23.521  25.651   6.944 -0.1146  0.1280 -0.1671
27361W        W70299  21.878  26.157   5.229 -0.0663  0.0891  0.2075
27362W        W70300  24.604  26.857   5.643  0.2064  0.1725  0.0774
27363W        W70301  20.989  23.052   4.099  0.0080  0.2260  0.0314
27364W        W70302  24.550  25.527   4.226  0.3056 -0.0524  0.0267
27365W        W70303  22.924  25.319   5.841 -0.1110 -0.3012 -0.3256
27366W        W70304  21.163  25.331   2.926 -0.0107 -0.0340 -0.1702
27367W        W70305  24.877  25.754   6.974 -0.0242  0.3436 -0.2796
27368W        W70306  23.674  29.087   4.050  0.4378  0.1031 -0.1273
27369W        W70307  24.445  27.752   6.157  0.0060 -0.1720  0.0411
27370W        W70308  23.570  29.489   5.995 -0.1648  0.1182 -0.1741
27371W        W70309  22.233  25.884   5.401 -0.1563  0.0728 -0.0864
27372W        W70310  21.062  26.520   5.347  0.2278  0.1982  0.0837
27373W        W70311  22.273  28.471   5.008 -0.0806  0.2188 -0.0270
27374W        W70312  24.794  29.482   4.447  0.1255  0.1590 -0.1148
27375W        W70313  21.666  26.520   3.720 -0.0095  0.1871 -0.0975
27376W        W70314  24.865  28.964   4.176  0.3100 -0.1836  0.1071
27377W        W70315  23.096  27.804   3.784  0.1900  0.1241 -0.2925
27378W        W70316  21.189  28.006   5.532  0.3140  0.1043 -0.2112
27379W        W70317  25.166  24.938   6.097  0.0286 -0.2825 -0.0747
27380W        W70318  24.389  28.048   5.633 -0.2166  0.0672  0.2325
27381W        W70319  25.016  25.951   4.788  0.2707 -0.0915 -0.2219
27382W        W70320  21.547  24.714   3.520  0.1127  0.1273 -0.0654
27383W        W70321  24.152  28.653   6.412  0.0151 -0.2268  0.0392
27384W        W70322  21.836  28.308   4.974 -0.2698 -0.0842  0.0176
27385W        W70323  21.818  27.136   5.049 -0.0615 -0.1527  0.0859
27386W        W70324  23.739  28.561   6.055  0.2312  0.0312 -0.2113
27387W        W70325  23.758  25.827   5.467 -0.0539 -0.0027  0.0510
27388W        W70326  22.311  25.602   6.808  0.2477 -0.3384  0.1618
27389W        W70327  24.497  27.078   7.144  0.0387  0.0479 -0.0557
27390W        W70328  22.650  26.184   5.293 -0.0218 -0.2551  0.0661
27391W        W70329  21.656  27.979   8.072 -0.2564  0.2335 -0.0206
27392W        W70330  23.954  26.339   2.671 -0.0942  0.0808  0.1425
27393W        W70331  25.192  24.670   3.182  0.2349  0.1378 -0.0312
27394W        W70332  23.215  26.531   7.082 -0.0814  0.0591  0.0327
27395W        W70333  24.528  27.117   3.654  0.0642  0.1512 -0.1346
27396W        W70334  24.719  25.843   3.079  0.0375  0.2689 -0.0731
27397W        W70335  23.783  24.945   2.859  0.3901  0.0034 -0.0959
27398W        W70336  21.902  28.890   8.160 -0.1654  0.0823 -0.0234
27399W        W70337  22.578  27.090   4.684 -0.0333 -0.0441 -0.0063
27400W        W70338  23.920  28.699   4.968 -0.1515  0.1486  0.1495
27401W        W70339  24.102  25.763   4.265 -0.1702 -0.1213 -0.1842
27402W        W70340  25.735  27.639   5.791 -0.4322 -0.1356 -0.1188
27403W        W70341  21.845  26.733   5.831 -0.1216  0.1056  0.2346
27404W        W70342  23.892  28.756   7.871 -0.3490  0.1115 -0.1964
27405W        W70343  23.417  28.096   6.027 -0.0234  0.0325  0.2606
27406W        W70344  22.393  25.201   6.541 -0.2176 -0.1559  0.2670
27407W        W70345  23.042  25.972   4.236 -0.2538  0.0492 -0.0291
27408W        W70346  23.404  24.532   5.459 -0.1461 -0.0827 -0.0876
27409W        W70347  20.965  29.296   3.677 -0.2604 -0.0869 -0.0330
27410W        W70348  24.692  24.239   5.162 -0.2553  0.0122  0.3729
27411W        W70349  24.130  25.351   5.633  0.2302  0.4031 -0.3116
27412W        W70350  24.145  24.427   7.138  0.2339  0.1749  0.1804
27413W        W70351  25.719  27.218   6.532 -0.1347  0.0659  0.2132
27414W        W70352  24.567  26.785   3.217 -0.0425  0.1065  0.0349
27415W        W70353  22.820  27.181   5.159  0.1025 -0.1617 -0.0068
27416W        W70354  22.247  25.900   3.779  0.0989  0.1445  0.0959
27417W        W70355  23.704  26.016   6.240 -0.0984 -0.1286 -0.0355
27418W        W70356  22.979  27.565   6.850  0.3594 -0.2041  0.0519
27419W        W70357  21.602  29.326   6.476 -0.2610 -0.2114 -0.2388
27420W        W70358  24.615  29.349   8.118  0.0071  0.3728 -0.1447
27421W        W70359  24.291  28.257   4.821 -0.0024 -0.1278 -0.0823
27422W        W70360  22.434  24.930   6.940 -0.0459 -0.1627  0.0544
27423W        W70361  23.425  25.759   3.320 -0.1393  0.5299 -0.0086
27424W        W70362  22.243  28.715   4.337 -0.0098 -0.2223  0.4264
27425W        W70363  22.156  26.664   3.430  0.0515 -0.2612 -0.0983
27426W        W70364  22.401  23.586   5.289  0.1237 -0.0024  0.3188
27427W        W70365  23.506  28.904   4.594  0.0362 -0.1867 -0.2146
27428W        W70366  22.236  28.342   3.712 -0.2254 -0.1109  0.0358
27429W        W70367  23.767  28.732   6.880  0.1349 -0.0728 -0.0019
27430W        W70368  22.042  27.464   4.723  0.1454  0.1850  0.0213
27431W        W70369  25.441  25.088   6.659  0.0851  0.0999  0.1649
27432W        W70370  22.473  27.887   6.276  0.2692 -0.0164  0.2098
27433W        W70371  21.793  26.192   2.975 -0.0528 -0.0595 -0.1802
27434W        W70372  22.302  26.288   4.888 -0.1088  0.1953  0.2634
27435W        W70373  24.595  24.017   4.681 -0.0541  0.0359 -0.4176
27436W        W70374  26.056  26.837   4.298 -0.0597 -0.0358  0.2673
27437W        W70375  22.343  26.980   6.043  0.1748  0.3340  0.1580
27438W        W70376  22.641  26.258   7.128 -0.0552 -0.1599 -0.3556
27439W        W70377  21.842  30.200   5.400  0.1206 -0.1513 -0.2503
27440W        W70378  23.438  26.114   6.806  0.0037  0.1449 -0.1283
27441W        W70379  24.407  24.653   3.956  0.0480 -0.0637  0.0127
27442W        W70380  23.725  28.904   6.389  0.1190 -0.0047 -0.3807
27443W        W70381  22.505  26.827   7.304  0.3967 -0.1550  0.2821
27444W        W70382  21.409  24.970   4.351  0.2659  0.1377 -0.0417
27445W        W70383  24.008  26.333   6.526  0.0482  0.0099 -0.0183
27446W        W70384  22.827  25.368   6.449 -0.4708  0.2223  0.0891
27447W        W70385  22.177  27.153   5.590 -0.3315 -0.0123  0.0482
27448W        W70386  23.794  27.339   6.575 -0.1837 -0.1085 -0.1568
27449W        W70387  21.046  25.694   3.350  0.0802 -0.0341  0.1829
27450W        W70388  21.731  27.769   4.968 -0.2094  0.3843  0.2619
27451W        W70389  22.769  25.381   6.975 -0.1226  0.0303  0.1182
27452W        W70390  23.350  27.676   6.445  0.2291  0.1001 -0.0678
27453W        W70391  22.969  26.577   5.453 -0.2731  0.1463  0.1538
27454W        W70392  22.296  25.554   3.399  0.1025  0.1026 -0.1410
27455W        W70393  25.207  28.143   4.777  0.0607  0.1546 -0.3833
27456W        W70394  23.518  26.471   6.397 -0.1131 -0.0106 -0.1863
27457W        W70395  23.325  24.576   4.914  0.0511 -0.1936 -0.1234
27458W        W70396  23.977  28.134   8.578 -0.5738  0.3630  0.0541
27459W        W70397  25.476  28.699   4.671  0.0856  0.3363  0.0303
27460W        W70398  24.104  27.594   5.604 -0.2386  0.0180  0.1329
27461W        W70399  22.698  26.678   3.153 -0.3026 -0.0367  0.0436
27462W        W70400  21.034  25.767   6.258 -0.1083 -0.0819 -0.1390
27463W        W70401  24.083  26.882   4.353 -0.0513 -0.0520  0.0874
27464W        W70402  24.491  25.300   5.332  0.0469  0.0897 -0.0324
27465W        W70403  21.558  27.003   5.504  0.1083 -0.1072 -0.1475
27466W        W70404  22.962  26.806   3.524 -0.1133 -0.1280 -0.0850
27467W        W70405  22.721  27.147   6.708 -0.0955  0.0702  0.1568
27468W        W70406  26.012  24.809   3.913  0.1485  0.1054 -0.0455
27469W        W70407  23.475  27.760   5.658 -0.2853 -0.1248 -0.0042
27470W        W70408  23.955  25.834   4.747  0.1020 -0.1197 -0.0863
27471W        W70409  23.905  25.991   6.911 -0.2978  0.0835  0.1241
27472W        W70410  24.890  27.097   4.197 -0.0541 -0.1561 -0.2457
27473W        W70411  23.380  25.421   5.650  0.2144 -0.2232 -0.0765
27474W        W70412  22.293  24.153   4.828  0.1473 -0.0089  0.2820
27475W        W70413  24.730  28.386   5.025 -0.0383 -0.0925 -0.1043
27476W        W70414  21.837  25.907   6.197  0.1576  0.0901 -0.2109
27477W        W70415  24.315  29.291   7.195  0.3819 -0.2874  0.1702
27478W        W70416  22.229  27.089   6.931 -0.0135 -0.0088 -0.1442
27479W        W70417  23.467  26.612   3.416  0.1405  0.1268  0.0296
27480W        W70418  23.034  28.370   5.244  0.0309 -0.2763  0.1497
27481W        W70419  23.907  28.078   5.628  0.1274  0.0982 -0.1309
27482W        W70420  24.485  26.724   4.065  0.3870  0.0425 -0.1687
27483W        W70421  25.024  25.907   4.251  0.0104  0.1185 -0.4218
27484W        W70422  23.097  27.431   5.646  0.0223  0.0522  0.1824
27485W        W70423  24.139  27.122   5.343  0.4894 -0.1960 -0.1095
27486W        W70424  22.698  26.672   3.899  0.1036 -0.3893  0.2276
27487W        W70425  23.898  26.278   5.633  0.0425  0.4155 -0.0603
27488W        W70426  22.002  25.125   7.024 -0.1244  0.2309 -0.0386
27489W        W70427  25.200  28.778   5.165 -0.0621  0.0699  0.2953
27490W        W70428  23.066  25.372   4.979 -0.1587  0.0179  0.0185
27491W        W70429  23.202  25.762   6.539 -0.0847 -0.1035  0.0419
27492W        W70430  24.260  25.864   5.480  0.1788 -0.1445  0.1673
27493W        W70431  22.767  26.621   6.035  0.4028 -0.2261 -0.0941
27494W        W70432  21.394  25.700   7.207 -0.0887  0.0608 -0.0946
27495W        W70433  24.531  28.470   6.174  0.0913  0.0560  0.2372
27496W        W70434  24.838  26.702   3.723 -0.0993 -0.2368  0.1687
27497W        W70435  25.321  26.472   6.329 -0.0482 -0.1688  0.1397
27498W        W70436  26.025  26.924   5.634  0.2063  0.2276 -0.2399
27499W        W70437  23.603  25.324   3.592 -0.1182  0.0404  0.1752
27500W        W70438  21.833  26.413   4.840  0.0674 -0.1128 -0.2199
27501W        W70439  24.504  26.354   5.714  0.0379 -0.1049  0.1614
27502W        W70440  23.770  26.073   4.037  0.1254  0.1256 -0.1464
27503W        W70441  23.807  26.920   7.735  0.2668 -0.1875 -0.3312
27504W        W70442  22.872  28.825   3.212 -0.3406 -0.3361 -0.0256
27505W        W70443  23.684  26.550   4.037  0.0386 -0.0567 -0.1570
27506W        W70444  23.451  26.166   3.586 -0.0316  0.0883  0.1257
27507W        W70445  21.964  25.419   5.337 -0.1973 -0.1233 -0.0231
27508W        W70446  21.887  27.395   6.664  0.2471 -0.0503 -0.1989
27509W        W70447  22.293  24.386   3.818 -0.1590 -0.1055  0.1221
27510W        W70448  23.156  27.167   4.668 -0.0974 -0.0389 -0.1543
27511W        W70449  24.154  26.012   5.991 -0.0975  0.3100  0.2706
27512W        W70450  25.151  27.869   7.832  0.0833 -0.1369 -0.1160
27513W        W70451  22.599  26.092   4.025  0.1866 -0.0092 -0.2700
27514W        W70452  23.901  26.512   6.069 -0.1253  0.0597  0.0876
27515W        W70453  22.452  27.573   4.394  0.2382  0.0229 -0.1733
27516W        W70454  22.954  24.529   5.223  0.0351  0.1649 -0.1655
27517W        W70455  22.343  28.946   5.232 -0.0153 -0.1563  0.2679
27518W        W70456  23.114  27.127   7.052 -0.1812 -0.0497  0.1733
27519W        W70457  23.374  27.550   4.164 -0.1136  0.1054 -0.0465
27520W        W70458  24.012  25.533   6.071  0.1480  0.1483  0.3495
27521W        W70459  24.272  26.195   4.999  0.1189 -0.1676 -0.1667
27522W        W70460  23.051  27.885   5.383  0.0350  0.1066 -0.4410
27523W        W70461  24.962  27.260   7.033  0.2591 -0.0902 -0.1606
27524W        W70462  22.752  27.888   7.711 -0.1979 -0.1918  0.2511
27525W        W70463  22.618  26.688   5.103 -0.0762 -0.2552  0.1918
27526W        W70464  24.006  27.333   6.049  0.0932  0.1994 -0.0407
27527W        W70465  24.178  26.593   5.349  0.1730 -0.0630 -0.1024
27528W        W70466  22.162  27.710   5.709  0.1472  0.0146 -0.2460
27529W        W70467  20.155  27.044   6.597 -0.0416  0.3618 -0.1396
27530W        W70468  23.764  28.494   7.481 -0.1326  0.1736 -0.2814
27531W        W70469  24.963  26.162   5.925 -0.1430 -0.0724  0.1426
27532W        W70470  23.171  25.801   4.783  0.2533  0.0834  0.2740
27533W        W70471  24.101  28.255   3.767  0.1455  0.0921 -0.1349
27534W        W70472  21.991  28.139   7.384  0.0980  0.5349  0.1798
27535W        W70473  21.202  28.093   6.108 -0.1389 -0.3373  0.1405
27536W        W70474  21.951  28.804   4.850 -0.0514  0.0848  0.1464
27537W        W70475  24.101  27.274   2.980  0.0847  0.0336 -0.0547
27538W        W70476  23.748  26.776   2.830 -0.2364  0.0441  0.0350
27539W        W70477  23.122  29.237   5.696 -0.0620  0.1069 -0.2952
27540W        W70478  22.840  27.232   4.265 -0.2651  0.1275 -0.0488
27541W        W70479  22.606  27.489   5.465  0.0816  0.0111 -0.0056
27542W        W70480  22.971  26.675   4.447  0.2089  0.1042 -0.1266
27543W        W70481  24.419  27.551   3.344  0.5094  0.3529 -0.3780
27544W        W70482  22.039  29.860   5.106 -0.1788 -0.0305  0.2005
27545W        W70483  24.374  27.268   6.355  0.4554  0.0243 -0.3385
27546W        W70484  24.361  25.891   3.522 -0.0547  0.1067 -0.1685
27547W        W70485  25.011  27.062   5.452  0.1317  0.1310 -0.1173
27548W        W70486  26.060  25.769   4.822 -0.0886  0.0082 -0.3671
27549W        W70487  23.539  27.777   7.244  0.0644 -0.1495  0.2899
27550W        W70488  24.404  28.562   3.985  0.0784 -0.1073 -0.1024
27551W        W70489  23.301  25.236   4.024  0.0192 -0.1020  0.0029
27552W        W70490  22.607  25.922   7.748  0.1632 -0.2954 -0.0022
27553W        W70491  25.426  24.718   7.602 -0.2835  0.0381  0.0797
27554W        W70492  23.211  28.584   6.221 -0.0270 -0.1338  0.1304
27555W        W70493  24.123  28.269   4.369 -0.1380  0.0841  0.2163
27556W        W70494  23.072  26.252   5.010 -0.0277  0.1091 -0.2652
27557W        W70495  24.420  26.403   3.654 -0.0528  0.3215  0.2292
27558W        W70496  24.768  26.335   4.890 -0.0880 -0.1532 -0.0873
27559W        W70497  22.980  27.267   3.750  0.2703  0.0119 -0.0727
27560W        W70498  23.907  27.324   4.742  0.0902 -0.2438 -0.1025
27561W        W70499  23.271  28.480   4.836  0.1633 -0.0551  0.0148
27562W        W70500  21.995  27.982   6.106 -0.3093  0.3879  0.1371
27563W        W70501  22.966  27.730   6.038 -0.0806 -0.0098 -0.1733
27564W        W70502  21.429  24.358   4.476 -0.0512  0.2163 -0.4326
27565W        W70503  25.426  24.570   4.645 -0.0527 -0.1171 -0.0559
27566W        W70504  22.879  27.159   6.061  0.0918 -0.0087  0.0340
27567W        W70505  24.413  25.768   7.295 -0.2163 -0.1840 -0.0230
27568W        W70506  25.008  26.747   6.044 -0.2908 -0.0831  0.1920
27569W        W70507  24.522  25.946   4.547 -0.5752 -0.0369 -0.1914
27570W        W70508  23.206  27.004   5.402 -0.0961  0.0393 -0.5592
27571W        W70509  23.460  26.336   5.894 -0.1453 -0.0943 -0.2866
27572W        W70510  23.904  25.929   3.154 -0.0873 -0.1845 -0.1874
27573W        W70511  24.083  27.126   6.894 -0.3476  0.1234  0.0891
27574W        W70512  24.850  27.152   3.228 -0.0039 -0.1491  0.0820
27575W        W70513  23.826  28.998   7.326  0.0821 -0.4387 -0.1356
27576W        W70514  22.294  24.930   5.309  0.0136  0.1959 -0.0795
27577W        W70515  24.263  26.277   3.180  0.1358 -0.0418  0.2341
27578W        W70516  20.669  25.304   5.425  0.1823 -0.1062 -0.0403
27579W        W70517  24.579  25.790   6.029  0.0546  0.2046 -0.2694
27580W        W70518  24.182  28.524   7.090 -0.1409 -0.1162  0.1875
27581W        W70519  22.081  23.929   5.159  0.1105  0.0835 -0.0093
27582W        W70520  24.383  27.286   4.478 -0.0077 -0.4484  0.0343
27583W        W70521  24.428  26.820   6.114  0.4306 -0.1660 -0.2315
27584W        W70522  23.263  29.977   2.765  0.2267  0.0440 -0.0725
27585W        W70523  25.654  27.949   4.963 -0.1972 -0.0489  0.1366
27586W        W70524  23.559  28.341   6.505  0.1747 -0.1345 -0.0021
27587W        W70525  22.886  25.615   7.457  0.1635  0.0441 -0.0692
27588W        W70526  24.006  27.714   7.065 -0.0009  0.1738 -0.0984
27589W        W70527  24.145  27.753   6.575 -0.0565  0.3447  0.1974
27590W        W70528  23.588  26.894   4.578 -0.0418 -0.2246  0.0817
27591W        W70529  21.477  25.676   6.472  0.1504 -0.0790  0.1601
27592W        W70530  22.083  27.526   5.247  0.1081 -0.1100  0.2646
27593W        W70531  25.852  27.722   6.289  0.1734 -0.0087  0.1170
27594W        W70532  23.661  26.429   7.600 -0.0443 -0.0293 -0.1183
27595W        W70533  23.283  27.478   5.162 -0.1042  0.2250  0.0947
27596W        W70534  25.443  24.508   6.648  0.0484  0.0485 -0.0504
27597W        W70535  23.227  28.057   6.933  0.1121 -0.0175 -0.2752
27598W        W70536  23.203  29.111   6.173 -0.0083 -0.0025  0.0935
27599W        W70537  20.602  25.887   3.439  0.0437 -0.0188 -0.2971
27600W        W70538  23.522  27.362   6.983  0.1311 -0.0570  0.0415
27601W        W70539  22.939  27.589   4.657  0.1423  0.0463  0.2584
27602W        W70540  22.513  27.519   4.950  0.1723 -0.1385 -0.0356
27603W        W70541  24.897  27.962   5.726  0.0994  0.0040 -0.1123
27604W        W70542  23.674  27.252   5.648 -0.0577 -0.2664  0.0670
27605W        W70543  24.927  27.699   6.264 -0.1792 -0.4397  0.1815
27606W        W70544  22.646  25.796   4.955 -0.1524  0.2420 -0.2892
27607W        W70545  25.130  24.952   4.517 -0.2513  0.1356  0.0072
27608W        W70546  24.222  24.551   4.464 -0.1179  0.1731 -0.1149
27609W        W70547  22.270  27.692   6.850 -0.2469  0.0969  0.0776
27610W        W70548  20.121  25.494   4.253  0.0299  0.1145 -0.1844
27611W        W70549  23.294  27.021   4.125 -0.1751  0.2868 -0.3413
27612W        W70550  20.702  27.286   4.583  0.0795 -0.0547  0.2540
27613W        W70551  23.921  25.695   7.347  0.0573 -0.0907 -0.1468
27614W        W70552  22.157  27.197   7.432  0.1531  0.4155 -0.0117
27615W        W70553  23.051  26.723   6.413  0.1465  0.2399  0.0598
27616W        W70554  20.746  24.491   5.147  0.4564 -0.1056  0.1411
27617W        W70555  25.317  27.428   4.142  0.2168 -0.0878  0.1280
27618W        W70556  22.766  26.127   4.649 -0.2076  0.0170  0.3110
27619W        W70557  21.026  23.399   5.908  0.0141  0.1300  0.0452
27620W        W70558  23.817  26.415   4.514 -0.1615  0.0411  0.2082
27621W        W70559  23.665  26.727   5.595  0.1740 -0.6086  0.2790
27622W        W70560  22.773  25.142   4.165  0.1479  0.1137 -0.1375
27623W        W70561  24.563  28.907   7.027 -0.1464 -0.1145 -0.2692
27624W        W70562  21.932  26.158   3.438 -0.1236 -0.0859 -0.3278
27625W        W70563  22.385  25.248   7.329 -0.0325 -0.2485 -0.4099
27626W        W70564  22.754  25.507   5.321  0.0938 -0.0273 -0.0745
27627W        W70565  20.915  26.609   4.097  0.1875  0.0173 -0.0626
27628W        W70566  23.180  24.990   5.368  0.1278 -0.0788  0.2954
27629W        W70567  23.882  27.921   4.695  0.2915 -0.0545 -0.2137
27630W        W70568  24.343  29.920   3.537 -0.0580  0.0960  0.1196
27631W        W70569  23.011  28.933   4.596 -0.1566 -0.1440  0.1966
27632W        W70570  23.297  28.825   6.676 -0.0417 -0.0356 -0.0726
27633W        W70571  22.138  25.167   6.124 -0.0453 -0.3269  0.2779
27634W        W70572  24.348  27.357   4.984  0.1317 -0.1065 -0.3874
27635W        W70573  24.115  28.206   6.711  0.1729 -0.1506  0.0075
27636W        W70574  25.390  27.728   3.764  0.1689 -0.1725 -0.0159
27637W        W70575  24.783  25.575   5.607 -0.1271  0.0593  0.1337
27638W        W70576  24.029  26.816   3.844  0.5644  0.0498  0.4035
27639W        W70577  22.648  24.978   7.684 -0.0960  0.1109 -0.0579
27640W        W70578  22.772  26.701   6.851 -0.0708  0.1217 -0.3638
27641W        W70579  24.470  27.337   5.806  0.0091  0.0014  0.2605
27642W        W70580  22.137  23.783   4.632 -0.0454 -0.0078  0.0670
27643W        W70581  24.313  26.470   4.564 -0.1389 -0.0849 -0.0262
27644W        W70582  23.712  28.012   4.068  0.1348  0.0880  0.2504
27645W        W70583  23.370  25.873   5.834 -0.0603  0.2216 -0.2419
27646W        W70584  22.562  25.720   5.759 -0.0243 -0.1544  0.1415
27647W        W70585  23.137  26.640   7.606 -0.2566 -0.1703  0.1627
27648W        W70586  23.019  28.098   6.382  0.1865  0.0110 -0.2943
27649W        W70587  24.119  26.785   7.292  0.1010  0.0590 -0.0378
27650W        W70588  22.507  27.074   3.541  0.3542 -0.3434 -0.2273
27651W        W70589  26.830  27.552   3.605  0.2658 -0.1384  0.0320
27652W        W70590  24.217  29.152   6.208 -0.0237  0.1362  0.4151
27653W        W70591  24.740  30.652   6.665  0.1148  0.0895  0.2549
27654W        W70592  23.805  27.810   6.041  0.0522 -0.3799  0.2657
27655W        W70593  24.809  26.456   6.654  0.0283 -0.2220 -0.0325
27656W        W70594  21.815  26.062   5.758  0.1984  0.0933  0.1091
27657W        W70595  22.485  26.555   4.466  0.3122 -0.1365  0.1020
27658W        W70596  23.737  26.540   5.004  0.2432  0.1003  0.0065
27659W        W70597  22.916  25.765   6.126  0.0741  0.0766  0.1549
27660W        W70598  22.299  24.788   4.711  0.1490 -0.1771  0.0367
27661W        W70599  23.490  26.156   2.688  0.0491 -0.2861 -0.1283
27662W        W70600  23.196  30.054   7.866  0.0809  0.0993  0.1843
27663W        W70601  26.190  28.486   6.160 -0.1083  0.0058  0.2412
27664W        W70602  22.022  29.442   8.774  0.1582 -0.0607 -0.2157
27665W        W70603  22.419  25.816   7.289 -0.1503  0.1388 -0.0001
27666W        W70604  24.363  26.274   7.275 -0.1723 -0.0221 -0.0796
27667W        W70605  24.098  26.899   5.795 -0.2204  0.0151 -0.1889
27668W        W70606  21.936  26.538   9.484 -0.1787  0.2790 -0.0976
27669W        W70607  24.955  28.674   7.870 -0.1456 -0.0315  0.1749
27670W        W70608  24.343  28.555  10.105  0.0748  0.2493 -0.2347
27671W        W70609  25.290  28.000   9.381 -0.2138 -0.0783  0.1294
27672W        W70610  23.416  26.565   8.015 -0.2503  0.1415 -0.0489
27673W        W70611  22.240  27.778   8.914 -0.0425  0.0511 -0.1517
27674W        W70612  22.906  24.942   7.238  0.2819 -0.0326  0.0066
27675W        W70613  23.156  25.289   8.763  0.0393  0.2270  0.3567
27676W        W70614  24.585  28.496  10.624 -0.3912  0.2621 -0.4749
27677W        W70615  21.515  27.716   7.468 -0.0596 -0.1949 -0.0777
27678W        W70616  22.596  26.317   9.033 -0.0011 -0.2945 -0.0897
27679W        W70617  23.303  26.948   8.924  0.0512 -0.0344 -0.3431
27680W        W70618  23.148  28.677   8.121  0.1164 -0.3182 -0.0582
27681W        W70619  24.503  26.642  12.111  0.1848 -0.2697  0.2353
27682W        W70620  22.917  29.664   8.267  0.0705 -0.1053 -0.0114
27683W        W70621  22.685  26.441   7.616  0.0476  0.0506 -0.3838
27684W        W70622  21.117  24.856   9.135  0.1772  0.0452  0.3483
27685W        W70623  22.353  25.624   9.652 -0.1468 -0.2319 -0.4421
27686W        W70624  25.775  26.659   8.656  0.0065 -0.0106 -0.0482
27687W        W70625  24.094  26.675   8.687  0.1579  0.2868 -0.3446
27688W        W70626  23.264  29.938   9.579  0.1216  0.1603 -0.2548
27689W        W70627  22.749  29.845   9.803 -0.0517 -0.1211 -0.0352
27690W        W70628  20.968  27.797   9.573  0.4756 -0.1293 -0.0840
27691W        W70629  21.776  27.978   9.085 -0.2160  0.1806 -0.0266
27692W        W70630  24.197  28.137   9.241  0.0647  0.2947 -0.2261
27693W        W70631  23.999  27.868   9.594 -0.1828 -0.3035 -0.1708
27694W        W70632  21.611  28.280   7.601 -0.1489  0.0146 -0.2752
27695W        W70633  24.365  26.898   9.020  0.1667 -0.0537  0.1527
27696W        W70634  24.250  26.470   9.289  0.1236 -0.1303  0.1828
27697W        W70635  24.362  28.898   8.531  0.1981  0.0543 -0.1895
27698W        W70636  22.998  28.341   7.726 -0.1200  0.0330  0.1758
27699W        W70637  21.078  28.296   7.578 -0.0732  0.1010 -0.0916
27700W        W70638  22.271  27.961   7.845 -0.0582 -0.2811  0.1086
27701W        W70639  23.533  26.605   8.602  0.2912  0.2439 -0.1223
27702W        W70640  23.248  25.381   7.256  0.3459  0.1599 -0.2305
27703W        W70641  23.362  25.454   6.125 -0.0406 -0.0323 -0.0570
27704W        W70642  23.792  26.545   9.087 -0.1589 -0.0935  0.0247
27705W        W70643  23.349  28.757   8.541  0.1692 -0.2016 -0.2417
27706W        W70644  23.947  26.056   9.279  0.0066 -0.1210 -0.0596
27707W        W70645  24.609  26.668   8.481 -0.1817  0.3206  0.1426
27708W        W70646  24.608  25.758   9.705 -0.0726 -0.1118  0.3327
27709W        W70647  20.833  28.862   8.473  0.0700  0.2735 -0.0141
27710W        W70648  22.494  27.949   8.516 -0.2003 -0.0315 -0.0096
27711W        W70649  25.252  29.171   6.910 -0.0025  0.0841 -0.0884
27712W        W70650  24.800  28.901   8.357 -0.1035 -0.1383 -0.2250
27713W        W70651  24.790  29.360   7.221  0.0375 -0.2844 -0.2269
27714W        W70652  21.949  25.515   6.481  0.0268  0.0815 -0.1812
27715W        W70653  24.987  25.877   9.359 -0.0585  0.1873 -0.1981
27716W        W70654  21.697  28.367   9.415  0.0835 -0.1505  0.0503
27717W        W70655  23.685  28.239   8.983  0.0426 -0.1431 -0.2932
27718W        W70656  23.545  26.895   6.775 -0.0197  0.4854  0.4350
27719W        W70657  24.212  25.418   8.256 -0.1056  0.3291 -0.2647
27720W        W70658  24.255  24.717   9.080  0.1387 -0.1354  0.1728
27721W        W70659  22.458  27.446   7.785  0.2411  0.0674 -0.5150
27722W        W70660  23.597  27.342   8.648  0.1794  0.0774  0.1843
27723W        W70661  24.712  26.458  10.155 -0.1880  0.0008  0.0044
27724W        W70662  24.359  26.579   6.881  0.0246 -0.3152  0.2109
27725W        W70663  23.525  27.782   9.250 -0.0895  0.3198  0.1593
27726W        W70664  22.322  28.202   7.060  0.0309 -0.1012  0.1930
27727W        W70665  23.333  25.656   9.914  0.0638 -0.2889  0.0437
27728W        W70666  22.312  27.301   8.305 -0.1587  0.2439 -0.2049
27729W        W70667  21.904  26.995  10.235 -0.2523 -0.0697 -0.2993
27730W        W70668  25.152  26.038  10.543 -0.1757 -0.1288  0.0362
27731W        W70669  24.598  25.705   8.316  0.3200 -0.0006  0.2620
27732W        W70670  24.763  24.806   7.059 -0.0721  0.5024  0.5448
27733W        W70671  22.572  28.174   8.955 -0.3052  0.2363 -0.0398
27734W        W70672  25.592  30.303   9.225 -0.2581  0.1390 -0.0416
27735W        W70673  23.593  24.963   7.905 -0.1378 -0.1320  0.1223
27736W        W70674  25.281  29.240   7.424  0.1930  0.3523  0.0984
27737W        W70675  22.122  26.281   9.072 -0.3344 -0.0294 -0.1937
27738W        W70676  23.548  26.925   9.385  0.0932  0.4502 -0.1458
27739W        W70677  20.266  22.733   9.489 -0.2066 -0.2865 -0.0553
27740W        W70678  21.824  24.793   7.956  0.2643 -0.1077 -0.5977
27741W        W70679  25.149  27.147   9.821 -0.4064 -0.3676 -0.0601
27742W        W70680  22.807  27.099   8.132  0.2427  0.1096  0.1114
27743W        W70681  21.996  27.122   7.963 -0.2222  0.1545 -0.4302
27744W        W70682  24.240  30.292   7.142  0.1475  0.3484  0.1458
27745W        W70683  23.180  25.055  10.140  0.0177 -0.3892 -0.2292
27746W        W70684  24.446  29.005   8.973  0.3165 -0.1712  0.0593
27747W        W70685  21.988  24.710   8.809 -0.0849 -0.0608 -0.1560
27748W        W70686  21.813  25.340   8.093  0.0740  0.3891  0.2048
27749W        W70687  20.499  28.808  10.013  0.1394 -0.0380  0.1471
27750W        W70688  23.956  27.413   9.333 -0.0303 -0.1211  0.1456
27751W        W70689  23.457  26.137   8.922 -0.2140 -0.1452 -0.1875
27752W        W70690  27.344  28.601   9.694 -0.1670 -0.0675 -0.0234
27753W        W70691  24.566  27.260   8.421 -0.2068 -0.0928 -0.0369
27754W        W70692  25.814  27.138   9.728  0.0814  0.0874 -0.0067
27755W        W70693  25.086  26.908   9.259 -0.3533  0.0690  0.0848
27756W        W70694  21.801  24.320   7.885 -0.0065 -0.2315  0.2010
27757W        W70695  23.389  29.651   9.185 -0.3099  0.0942 -0.0577
27758W        W70696  21.334  28.015   8.890  0.2322  0.1307  0.0372
27759W        W70697  21.220  26.622   9.020  0.1191  0.2736  0.0151
27760W        W70698  22.309  28.677   8.202  0.1532 -0.0731  0.0647
27761W        W70699  24.884  25.346   9.465  0.5191 -0.0910  0.3301
27762W        W70700  22.399  26.811   8.267 -0.2926 -0.2659 -0.0041
27763W        W70701  22.667  25.054   9.954  0.1466  0.1702  0.0553
27764W        W70702  24.710  25.578   6.538  0.2233  0.1780  0.0950
27765W        W70703  24.639  28.025   6.496 -0.0790  0.3351 -0.4021
27766W        W70704  24.050  26.093   7.621 -0.3890  0.2005 -0.3075
27767W        W70705  24.179  25.370   6.624  0.1602  0.0348 -0.0636
27768W        W70706  24.609  27.076   9.996 -0.1681  0.1597 -0.1974
27769W        W70707  23.879  26.896   9.908 -0.1373  0.3557 -0.1032
27770W        W70708  23.612  26.071   7.259 -0.0032 -0.3783  0.1021
27771W        W70709  25.653  30.101   7.711  0.1941 -0.0935 -0.1937
27772W        W70710  22.003  27.556   9.300 -0.1149  0.0079  0.0261
27773W        W70711  24.663  27.984   9.188  0.2735  0.0897 -0.0775
27774W        W70712  22.727  26.562   9.756  0.1127 -0.0002  0.0319
27775W        W70713  23.270  27.011   7.923 -0.2115  0.0524  0.0078
27776W        W70714  23.158  26.140   9.697 -0.1053 -0.2689 -0.1420
27777W        W70715  21.517  28.710   7.194 -0.0245 -0.2171  0.0931
27778W        W70716  25.765  25.791   8.816 -0.0043 -0.2821 -0.1655
27779W        W70717  24.178  26.609   7.796 -0.1225  0.2615 -0.2691
27780W        W70718  24.397  27.456   9.109 -0.0982  0.0581 -0.1280
27781W        W70719  24.738  26.539   9.223  0.1716  0.0789 -0.5535
27782W        W70720  22.397  26.293   8.069  0.0088 -0.3871  0.2337
27783W        W70721  23.111  24.781   9.706 -0.2331 -0.1503  0.0189
27784W        W70722  20.991  30.431   9.598  0.3387  0.0973  0.1739
27785W        W70723  24.399  28.232   9.721  0.3317 -0.0151  0.1353
27786W        W70724  23.037  26.736   9.305  0.1441  0.1382 -0.4741
27787W        W70725  23.232  28.538   7.083  0.1892 -0.1420  0.1325
27788W        W70726  23.612  29.187   6.828  0.3931 -0.2404  0.0806
27789W        W70727  25.398  26.510   8.340  0.1771  0.3860 -0.2764
27790W        W70728  23.776  29.474   9.461  0.3062  0.0963 -0.0366
27791W        W70729  22.837  28.123   7.252  0.2752  0.3637  0.1173
27792W        W70730  26.042  28.721   9.981  0.1462  0.2000 -0.2157
27793W        W70731  22.901  28.398   8.418 -0.2726  0.0639  0.0125
27794W        W70732  22.922  25.986   8.687  0.1204  0.3313 -0.1336
27795W        W70733  23.434  29.657  10.035  0.1455 -0.0489 -0.1099
27796W        W70734  21.797  25.600   6.931 -0.1853  0.1314 -0.2033
27797W        W70735  22.257  25.443   8.439 -0.0615  0.1378 -0.1711
27798W        W70736  24.694  24.452   9.197 -0.0539 -0.2148  0.2306
27799W        W70737  25.019  27.278   6.499  0.1430 -0.3202  0.1789
27800W        W70738  23.958  26.329  10.119 -0.1427 -0.1422 -0.1096
27801W        W70739  23.819  26.460   9.600 -0.0207 -0.1744  0.4473
27802W        W70740  19.745  28.653   9.419 -0.4795  0.4942 -0.1961
27803W        W70741  23.051  25.826   7.019 -0.1635 -0.2401 -0.0830
27804W        W70742  23.338  27.551   8.268  0.0664 -0.0900 -0.0727
27805W        W70743  27.142  23.762   8.113 -0.0898  0.2864  0.3636
27806W        W70744  22.548  26.341   8.544 -0.2697  0.0857 -0.1928
27807W        W70745  21.523  28.268   8.457  0.2460  0.0766 -0.1973
27808W        W70746  23.248  27.927   9.793  0.0312 -0.0496  0.1395
27809W        W70747  23.759  27.903   8.170  0.3980  0.2598 -0.1061
27810W        W70748  24.545  24.962   9.433  0.0601  0.0159 -0.1224
27811W        W70749  22.856  27.214   9.090 -0.0276 -0.1595 -0.1708
27812W        W70750  24.206  26.234   8.375  0.3102 -0.0767 -0.2645
27813W        W70751  22.313  26.066  10.132  0.3633  0.1403 -0.2431
27814W        W70752  25.385  25.508   9.552 -0.0384 -0.0182 -0.0310
27815W        W70753  23.979  22.970   9.810  0.2479 -0.0761 -0.4358
27816W        W70754  24.001  25.284   9.355  0.0808  0.0912 -0.1168
27817W        W70755  25.561  29.214   8.020  0.0564 -0.1014 -0.1443
27818W        W70756  22.560  28.561   8.693  0.1086  0.0599 -0.0024
27819W        W70757  21.471  23.046  10.543  0.1056 -0.1063  0.1443
27820W        W70758  22.090  28.662   7.315 -0.0056  0.0124 -0.4014
27821W        W70759  23.182  25.337   9.557 -0.0288 -0.1333 -0.2246
27822W        W70760  21.363  27.818   9.812 -0.3543  0.0070  0.0194
27823W        W70761  22.065  28.432   7.834  0.1778 -0.0585  0.1851
27824W        W70762  21.190  25.981   9.858 -0.1139  0.1310  0.2950
27825W        W70763  24.969  25.231   6.833 -0.0087 -0.0508  0.0967
27826W        W70764  23.578  26.796   7.283  0.2646  0.0213  0.0297
27827W        W70765  23.299  26.610   9.871  0.3136 -0.0740 -0.0910
27828W        W70766  23.993  27.394   8.011 -0.1478 -0.3002 -0.3529
27829W        W70767  22.393  24.967   8.573 -0.0314  0.1234  0.1796
27830W        W70768  24.212  27.614   8.361 -0.0249 -0.3748 -0.0474
27831W        W70769  23.644  26.091   7.948  0.1178 -0.3094 -0.2174
27832W        W70770  23.117  25.197   7.767 -0.0281 -0.0225 -0.0673
27833W        W70771  26.086  29.182   9.802  0.1593  0.0252 -0.3034
27834W        W70772  25.359  26.937   8.798 -0.0158 -0.1912  0.2217
27835W        W70773  24.014  28.288   7.944  0.1877 -0.0703  0.1255
27836W        W70774  25.242  26.394   9.238  0.2048 -0.1679  0.3139
27837W        W70775  22.678  27.094   9.565 -0.0423  0.0556  0.0058
27838W        W70776  25.457  25.878   9.217  0.0721 -0.1032  0.0925
27839W        W70777  23.567  27.441   7.842 -0.3743 -0.1961 -0.1708
27840W        W70778  23.416  27.860   8.773 -0.2055 -0.0741 -0.2720
27841W        W70779  26.005  26.766  10.011 -0.0522  0.1263 -0.0603
27842W        W70780  25.480  25.840  10.068 -0.2339  0.2112  0.2279
27843W        W70781  23.299  28.217   9.350  0.4210 -0.0164  0.1747
27844W        W70782  23.654  25.557   6.484  0.1888  0.0969 -0.1637
27845W        W70783  25.237  28.675   9.824  0.2450 -0.1889 -0.0982
27846W        W70784  25.075  26.882   8.303 -0.2175  0.0562  0.1198
27847W        W70785  24.484  26.009   9.255 -0.2958 -0.1466 -0.0502
27848W        W70786  23.153  27.130   8.427  0.0184 -0.1103  0.2632
27849W        W70787  21.698  24.743   7.401 -0.1546 -0.0707  0.0418
27850W        W70788  25.044  29.216   7.899 -0.0651  0.0604 -0.1508
27851W        W70789  25.226  28.172  10.007  0.3031 -0.1989  0.1685
27852W        W70790  24.830  27.002   8.830 -0.0773 -0.0717  0.0218
27853W        W70791  23.038  25.572   9.118 -0.0716 -0.2431 -0.2136
27854W        W70792  22.443  26.900   7.772  0.1750  0.0447 -0.1347
27855W        W70793  23.035  28.017   8.086 -0.5381 -0.0891 -0.2305
27856W        W70794  25.307  29.186   8.425 -0.2909  0.1311 -0.0802
27857W        W70795  23.241  25.051   8.337  0.0568  0.0783 -0.1912
27858W        W70796  20.887  27.884   9.081  0.4473  0.1230 -0.3362
27859W        W70797  23.712  24.506   9.179  0.1337  0.1134 -0.1408
27860W        W70798  21.573  27.425  10.692 -0.0051 -0.2047  0.0969
27861W        W70799  24.264  29.256   9.371  0.1620 -0.2660 -0.1077
27862W        W70800  23.982  24.115   9.257  0.1281  0.1781 -0.2004
27863W        W70801  24.329  26.621   9.824 -0.1563  0.0904  0.3142
27864W        W70802  23.629  27.616   9.764  0.1247 -0.1924  0.1301
27865W        W70803  22.990  27.862   8.518  0.0346  0.0594  0.1098
27866W        W70804  24.740  27.627   8.790  0.1656  0.0677  0.2242
27867W        W70805  22.544  28.263   8.075 -0.4163  0.2274  0.1135
27868W        W70806  24.267  27.366   9.802  0.1151  0.1249  0.0989
27869W        W70807  23.266  25.667   8.178  0.1283  0.6003  0.0051
27870W        W70808  22.604  27.340   7.181 -0.0978 -0.1141 -0.0353
27871W        W70809  21.807  26.330  10.024 -0.1080  0.0481  0.0146
27872W        W70810  22.752  29.000   8.440  0.0759  0.0504  0.1435
27873W        W70811  23.671  27.889   6.740 -0.1375 -0.1228 -0.3015
27874W        W70812  23.897  27.709   8.898 -0.2280  0.2227  0.0448
27875W        W70813  25.583  28.448   9.581 -0.0835 -0.0917 -0.0781
27876W        W70814  22.764  25.467   8.004 -0.1707 -0.0627  0.2494
27877W        W70815  21.930  29.350   9.236 -0.5094 -0.0360 -0.0249
27878W        W70816  22.844  29.078   7.496 -0.0067 -0.2944  0.3021
27879W        W70817  24.528  28.390   7.760 -0.1963 -0.3059 -0.0794
27880W        W70818  23.165  28.840   9.422  0.1315  0.0519  0.0054
27881W        W70819  25.251  24.222   7.984 -0.1320  0.1056  0.0501
27882W        W70820  24.520  27.752   9.615  0.0293 -0.2004  0.1514
27883W        W70821  25.519  26.296   8.855  0.3282 -0.0626  0.1424
27884W        W70822  23.597  26.047   9.861 -0.1709  0.0995 -0.2730
27885W        W70823  23.356  24.966   5.870 -0.1318  0.1933 -0.4273
27886W        W70824  24.303  29.840   8.406  0.1288  0.0405 -0.0886
27887W        W70825  22.421  26.259   9.543  0.3242  0.3505  0.0485
27888W        W70826  24.123  27.251   8.637 -0.1130 -0.0228  0.0045
27889W        W70827  25.631  24.281   8.925  0.3299  0.0405  0.0208
27890W        W70828  22.480  27.454   6.020 -0.0881 -0.1145 -0.1687
27891W        W70829  24.032  26.883   9.408 -0.1656 -0.1115 -0.0676
27892W        W70830  23.371  29.563   8.051 -0.1005  0.1662  0.0426
27893W        W70831  23.352  28.420   9.864 -0.0287  0.1628  0.2194
27894W        W70832  24.242  25.887  10.193 -0.4361 -0.2666  0.2589
27895W        W70833  22.771  25.442   8.479 -0.0866 -0.0629  0.2662
27896W        W70834  25.602  27.064   8.356 -0.0274 -0.2649 -0.0301
27897W        W70835  23.352  24.591  10.286  0.3664 -0.1540 -0.0082
27898W        W70836  22.747  26.897   8.589 -0.1413  0.5909 -0.3094
27899W        W70837  24.053  25.887   8.066  0.1756  0.0325 -0.1371
27900W        W70838  22.039  25.520  10.069  0.1499 -0.1513 -0.0835
27901W        W70839  23.720  25.396   9.720 -0.0884 -0.0399 -0.0842
27902W        W70840  23.070  26.139   7.385 -0.0674  0.0331  0.0371
27903W        W70841  24.976  26.549   7.981  0.2123 -0.3667 -0.3278
27904W        W70842  23.704  25.484   8.111  0.0111 -0.1478 -0.1416
27905W        W70843  23.853  26.494   8.220  0.1240 -0.0281 -0.3418
27906W        W70844  22.680  27.683   8.145 -0.0051  0.3288 -0.0475
27907W        W70845  22.267  27.601   9.789 -0.3602  0.5274 -0.0849
27908W        W70846  23.736  25.998   8.463  0.2849 -0.2206 -0.2571
27909W        W70847  25.721  27.397   7.794  0.3069 -0.1199 -0.1837
27910W        W70848  24.225  26.127   9.708 -0.0244  0.1355  0.2066
27911W        W70849  23.549  29.314   7.606 -0.1218 -0.0447  0.0279
27912W        W70850  24.259  27.765  10.097  0.4130 -0.1637  0.1577
27913W        W70851  25.024  29.155   9.830  0.0030  0.1322  0.0122
27914W        W70852  22.815  26.092  10.050  0.4142 -0.2554  0.1377
27915W        W70853  24.634  28.131  10.141 -0.0275 -0.4018 -0.3672
27916W        W70854  25.974  25.838   9.667  0.0178  0.1927  0.4537
27917W        W70855  23.513  25.403   9.128  0.0355  0.2073  0.0627
27918W        W70856  23.268  26.181   8.410 -0.2195  0.0873 -0.1616
27919W        W70857  20.829  28.852   8.963 -0.2752  0.1782 -0.0872
27920W        W70858  25.564  27.088  10.163 -0.2956 -0.1053  0.1201
27921W        W70859  24.453  28.104   8.649 -0.0577 -0.0904  0.1537
27922W        W70860  23.176  28.315   8.837  0.1528 -0.0373 -0.0508
27923W        W70861  21.871  26.532   8.059  0.0482 -0.1517  0.0747
27924W        W70862  23.327  27.841   7.688 -0.1456  0.1448  0.1907
27925W        W70863  23.789  28.577   8.327  0.0079 -0.0618 -0.0252
27926W        W70864  24.433  26.692  10.438 -0.0728 -0.0260 -0.0568
27927W        W70865  25.059  26.512   8.712  0.1969 -0.0226  0.2672
27928W        W70866  24.970  28.977   8.897 -0.3069 -0.1602  0.0008
27929W        W70867  23.603  24.911   9.950 -0.0675  0.2173 -0.1186
27930W        W70868  24.846  26.139   8.352 -0.1754  0.0223  0.0124
27931W        W70869  23.569  24.505   7.563 -0.0480  0.1457 -0.2576
27932W        W70870  22.186  27.015   9.709 -0.0333 -0.2106  0.0322
27933W        W70871  22.108  26.038   6.973  0.2458 -0.2145  0.1835
27934W        W70872  21.961  29.165   7.414  0.3411  0.2858  0.0914
27935W        W70873  22.610  28.618   9.231  0.0038  0.1186  0.0439
27936W        W70874  22.045  27.265   8.732  0.2673  0.1129  0.1653
27937W        W70875  23.144  27.480   8.771 -0.4094 -0.5243  0.0181
27938W        W70876  23.856  27.855   7.684 -0.3373 -0.0524  0.0969
27939W        W70877  23.543  24.986   9.370  0.0477 -0.0684  0.1859
27940W        W70878  23.620  24.076  10.150 -0.0919  0.0084 -0.1334
27941W        W70879  26.078  29.335   9.230  0.2939  0.1379 -0.1226
27942W        W70880  23.184  29.223   8.453 -0.0491  0.0168 -0.1438
27943W        W70881  23.685  24.742   8.384 -0.0464  0.1245  0.1045
27944W        W70882  21.295  27.750   8.370  0.1073 -0.0050  0.1015
27945W        W70883  21.690  26.086   8.569  0.0515 -0.2379  0.3653
27946W        W70884  24.716  28.648   9.762  0.0711 -0.1987 -0.2487
27947W        W70885  24.936  28.882   7.431  0.1833 -0.1585 -0.2527
27948W        W70886  24.587  29.246   7.663  0.0351 -0.0191  0.0025
27949W        W70887  24.808  24.598   9.669  0.0369 -0.0091 -0.0366
27950W        W70888  24.653  27.506   7.912  0.1844  0.0510 -0.3867
27951W        W70889  25.529  28.201   8.798  0.2258  0.2021  0.4393
27952W        W70890  26.497  27.190   8.715 -0.1614 -0.1109 -0.1272
27953W        W70891  23.615  26.998   8.280  0.4980  0.3405 -0.1315
27954W        W70892  24.914  26.713   9.750 -0.2119 -0.0011  0.4147
27955W        W70893  22.997  26.078   9.213 -0.1818  0.0918 -0.1217
27956W        W70894  24.110  25.472   7.755 -0.2353 -0.1523  0.2210
27957W        W70895  23.396  28.208   7.396  0.2225  0.0412 -0.0143
27958W        W70896  22.405  26.732   9.301 -0.0198  0.1169  0.2410
27959W        W70897  24.152  26.928   8.224  0.3902 -0.0568  0.3310
27960W        W70898  24.667  28.570   8.765 -0.1935  0.1779 -0.0562
27961W        W70899  22.321  26.818   6.498 -0.1901 -0.2609  0.2458
27962W        W70900  24.858  26.761   7.078 -0.1109  0.0677 -0.0833
27963W        W70901  23.657  28.892   9.592  0.1592 -0.0978 -0.1238
27964W        W70902  21.890  27.883   9.641  0.0812  0.2403  0.6093
27965W        W70903  24.849  27.423   9.352 -0.1744 -0.3842  0.1401
27966W        W70904  23.107  27.569   9.445 -0.0189  0.0908  0.0504
27967W        W70905  22.071  28.217   8.288  0.1613 -0.1357  0.3095
27968W        W70906  23.375  28.207   8.406 -0.2032  0.1848 -0.2462
27969W        W70907  25.161  25.390   9.027 -0.0603 -0.1002 -0.2190
27970W        W70908  23.821  27.007   8.970  0.1296 -0.1286  0.2514
27971W        W70909  24.452  25.838   7.764  0.1437 -0.1237  0.0577
27972W        W70910  20.815  27.631   9.997 -0.2695 -0.4096  0.2081
27973W        W70911  24.908  29.469  10.302  0.1536  0.2877 -0.1505
27974W        W70912  23.715  31.568   0.932 -0.1756 -0.0998 -0.2661
27975W        W70913  23.883  29.826   1.214 -0.0436  0.0571 -0.4744
27976W        W70914  25.154  30.613   0.301 -0.1802 -0.1717 -0.0200
27977W        W70915  26.500  31.964  31.570  0.0619  0.0014 -0.1212
27978W        W70916  21.218  30.661   2.775 -0.2341  0.4416  0.0271
27979W        W70917  23.204  32.194   0.775 -0.2978 -0.1682  0.3755
27980W        W70918  23.635  29.040   2.226  0.1551  0.0214  0.1610
27981W        W70919  23.900  32.094   1.743 -0.1347  0.1723  0.1133
27982W        W70920  24.599  31.851   2.976 -0.1484  0.2639  0.2313
27983W        W70921  22.654  31.561  31.341  0.0688  0.1303 -0.0857
27984W        W70922  23.443  29.399   1.276 -0.1742 -0.1075 -0.1322
27985W        W70923  22.960  32.525   1.739  0.0241  0.3087  0.2237
27986W        W70924  22.999  30.269   1.569 -0.2555 -0.0537 -0.1151
27987W        W70925  21.912  27.919   1.880  0.3461  0.0273 -0.0183
27988W        W70926  22.597  32.129   1.903  0.1227  0.0852 -0.0210
27989W        W70927  23.557  31.005   0.369 -0.0129  0.2952 -0.0059
27990W        W70928  23.372  30.045   1.948  0.2494 -0.2049 -0.1407
27991W        W70929  24.106  30.527  31.953 -0.1534 -0.2693  0.1687
27992W        W70930  22.391  32.435   1.028  0.0111 -0.3006  0.0439
27993W        W70931  23.356  29.273   2.651  0.2022 -0.1412 -0.3195
27994W        W70932  24.568  29.210   2.718  0.1659 -0.3220  0.1163
27995W        W70933  23.516  31.884   0.609 -0.2540  0.0115  0.1226
27996W        W70934  21.451  29.661  31.621 -0.1760  0.1487 -0.1776
27997W        W70935  22.101  31.397   1.531 -0.1190  0.1129  0.0542
27998W        W70936  22.597  29.785   3.201 -0.0251 -0.0545  0.0597
27999W        W70937  23.548  29.705   1.629  0.0919 -0.1277  0.0342
28000W        W70938  24.497  31.832   0.885  0.3350  0.0981 -0.1805
28001W        W70939  23.697  32.350   2.510  0.0159  0.1019  0.1507
28002W        W70940  24.224  32.398   2.300  0.1999  0.2165  0.0777
28003W        W70941  23.262  31.091   3.132  0.0252  0.2159 -0.0419
28004W        W70942  20.796  31.884   0.597  0.2989 -0.1343 -0.0535
28005W        W70943  21.801  31.566   1.131  0.3440  0.2892  0.0355
28006W        W70944  23.241  32.949   0.479 -0.0154 -0.0865 -0.1827
28007W        W70945  24.752  33.092   1.743  0.3718 -0.1250  0.0696
28008W        W70946  24.016  32.711   3.166 -0.1407  0.2582 -0.2239
28009W        W70947  23.478  31.430   3.432  0.2806  0.1405 -0.0105
28010W        W70948  21.392  32.426   0.596  0.2232 -0.0298  0.1992
28011W        W70949  22.873  31.543   3.160 -0.2391  0.2523 -0.0829
28012W        W70950  21.394  32.512   2.639  0.2461  0.3035  0.0988
28013W        W70951  23.696  31.310   1.835 -0.0203  0.0346 -0.3457
28014W        W70952  23.031  30.530   2.061 -0.2049 -0.0094 -0.2127
28015W        W70953  22.424  33.487   0.454 -0.1443 -0.0353 -0.0985
28016W        W70954  23.304  31.308   0.682  0.1124 -0.0815 -0.0226
28017W        W70955  22.181  31.105   3.889  0.1174 -0.3118 -0.0723
28018W        W70956  23.382  32.813   1.872 -0.2027 -0.2286  0.0941
28019W        W70957  23.692  30.040   3.137  0.1166 -0.1678 -0.1200
28020W        W70958  22.084  32.548   0.086 -0.0322 -0.2603 -0.2105
28021W        W70959  25.892  30.852  30.567  0.0694 -0.1833 -0.1508
28022W        W70960  24.366  30.114  30.797 -0.0397  0.1695  0.0291
28023W        W70961  24.377  30.134   0.959  0.2601  0.0705  0.0870
28024W        W70962  22.492  30.041   1.372  0.2158  0.1551 -0.2249
28025W        W70963  23.103  32.846   2.977  0.0163  0.1003  0.1277
28026W        W70964  23.016  29.603   2.441  0.1149 -0.4063  0.0546
28027W        W70965  25.409  32.160   2.669  0.0897 -0.2672 -0.0626
28028W        W70966  25.135  31.939  31.816  0.2121  0.1851  0.1440
28029W        W70967  23.400  30.924   2.207  0.3468  0.1456 -0.0948
28030W        W70968  22.756  32.665   2.553 -0.0493 -0.0121 -0.0269
28031W        W70969  23.001  31.792   0.524  0.1798  0.0743 -0.3784
28032W        W70970  24.838  33.245  31.642  0.1230  0.0073  0.3443
28033W        W70971  24.870  33.544   2.877  0.2149  0.2235  0.1039
28034W        W70972  23.794  32.920   0.437  0.1969  0.5808 -0.1279
28035W        W70973  25.012  31.932   0.596 -0.1514 -0.0105 -0.2117
28036W        W70974  22.042  30.220   2.315 -0.1804 -0.1697 -0.2750
28037W        W70975  20.600  30.120   4.034  0.0565 -0.0558 -0.2621
28038W        W70976  23.799  28.965  30.700 -0.2756  0.1297 -0.0018
28039W        W70977  25.636  32.614   1.252  0.0381 -0.3454 -0.0797
28040W        W70978  21.550  31.467   3.474  0.0298  0.2246  0.1299
28041W        W70979  25.436  30.556   0.946 -0.1991 -0.0098 -0.0250
28042W        W70980  21.646  32.125   2.363  0.0040  0.0137 -0.1492
28043W        W70981  23.249  31.427   2.783  0.0642  0.0064  0.0118
28044W        W70982  24.815  32.984   0.189 -0.0938 -0.0668 -0.1388
28045W        W70983  24.920  28.873   1.047 -0.3968 -0.2965  0.1226
28046W        W70984  24.430  30.197   1.624 -0.1082  0.0809  0.1021
28047W        W70985  22.276  31.863  31.360 -0.3050  0.2780  0.1671
28048W        W70986  23.095  31.049   0.246 -0.0529 -0.0955 -0.0711
28049W        W70987  26.311  32.996   2.674 -0.1263  0.2223  0.2624
28050W        W70988  25.927  32.124  30.823  0.0819 -0.1180 -0.0694
28051W        W70989  21.642  33.475   2.306 -0.1784 -0.0484 -0.5678
28052W        W70990  23.885  29.479   2.014 -0.0581  0.2282  0.1830
28053W        W70991  23.333  31.079   4.281  0.0347 -0.0995  0.0150
28054W        W70992  21.889  32.950  31.270  0.1504 -0.2334  0.1622
28055W        W70993  22.821  30.848   0.620  0.1896  0.1706  0.0305
28056W        W70994  21.340  30.961   0.507  0.0541 -0.0306  0.2934
28057W        W70995  22.807  29.237   3.545  0.0728  0.0860 -0.0258
28058W        W70996  22.575  32.297   1.468 -0.1732 -0.0046  0.2566
28059W        W70997  24.242  28.930   0.466 -0.1306 -0.1488  0.0194
28060W        W70998  22.738  28.833   2.284  0.2048  0.0825 -0.2209
28061W        W70999  25.337  28.803   2.014  0.0634 -0.2160 -0.2210
28062W        W71000  21.977  31.682   0.187 -0.0465  0.0450  0.0262
28063W        W71001  23.848  32.766   1.031 -0.1468  0.2497  0.1237
28064W        W71002  25.575  30.584  31.668 -0.0664 -0.4754  0.1504
28065W        W71003  24.567  33.228   1.238  0.0918  0.1532 -0.0155
28066W        W71004  22.293  30.099   2.794 -0.2941  0.2355 -0.3044
28067W        W71005  23.242  30.583   0.569  0.1111 -0.1373 -0.0438
28068W        W71006  23.057  29.477   3.141  0.0876 -0.2205  0.0350
28069W        W71007  22.330  29.533   1.619 -0.0894  0.2103 -0.1751
28070W        W71008  24.193  30.087   3.012  0.0302  0.1604  0.2682
28071W        W71009  23.475  28.873  31.140 -0.1479  0.0601 -0.0479
28072W        W71010  23.607  30.821   1.338  0.0299 -0.1420 -0.0165
28073W        W71011  24.102  30.161   0.281 -0.0476  0.1479  0.0976
28074W        W71012  21.734  31.893   0.528 -0.0402 -0.5820  0.1243
28075W        W71013  23.892  29.318   3.641 -0.0874  0.0814  0.0249
28076W        W71014  23.023  32.583   0.229 -0.0843 -0.5006 -0.0872
28077W        W71015  25.158  33.135   2.860  0.0140 -0.0091  0.3105
28078W        W71016  24.770  32.249  31.711  0.1643 -0.0203  0.1193
28079W        W71017  23.897  28.788   1.788 -0.0402 -0.1629 -0.4236
28080W        W71018  20.511  30.084  31.481 -0.2180  0.0343  0.2359
28081W        W71019  21.189  33.948   1.725 -0.1885 -0.0901  0.1512
28082W        W71020  23.270  32.352   2.823  0.0625 -0.1758  0.1385
28083W        W71021  23.301  32.783   2.447  0.1377 -0.0169 -0.0258
28084W        W71022  23.256  32.104   0.239 -0.1270  0.1960 -0.4794
28085W        W71023  22.449  32.570   2.118  0.0029 -0.0673 -0.1068
28086W        W71024  22.802  29.587   1.338 -0.2121  0.2683  0.2267
28087W        W71025  25.533  31.350   2.193 -0.0710  0.3067 -0.0559
28088W        W71026  24.900  30.344   1.725 -0.3547 -0.1535  0.1489
28089W        W71027  22.355  29.604  31.122  0.0145  0.1979 -0.1476
28090W        W71028  22.898  32.586   0.713  0.0017 -0.1361  0.1918
28091W        W71029  21.637  33.222  31.673  0.1601  0.2434 -0.0629
28092W        W71030  23.301  30.155  31.510  0.2221  0.1353 -0.0034
28093W        W71031  23.557  32.352   2.047  0.3278  0.0618  0.3296
28094W        W71032  25.594  30.815   1.702 -0.0602  0.3244  0.1366
28095W        W71033  20.596  30.558   4.358  0.3553  0.1457 -0.0924
28096W        W71034  23.479  30.545   3.205 -0.0505  0.0265 -0.0017
28097W        W71035  21.616  31.548   1.746 -0.2973  0.1666  0.1775
28098W        W71036  23.004  32.056   4.096 -0.0156 -0.1346 -0.2736
28099W        W71037  23.844  29.202   0.370  0.1864  0.0946  0.0362
28100W        W71038  25.627  29.030   0.267 -0.2539  0.1702 -0.0862
28101W        W71039  22.773  32.200   2.956  0.1107 -0.0379  0.0752
28102W        W71040  25.007  32.853   1.009  0.2441  0.2076 -0.0983
28103W        W71041  23.942  31.288   0.555  0.1021  0.0528  0.0122
28104W        W71042  24.269  29.545   0.280 -0.0538  0.0927 -0.1605
28105W        W71043  21.756  29.938   4.150  0.0051 -0.1381 -0.1149
28106W        W71044  23.802  32.348   0.823 -0.3050 -0.4115 -0.0137
28107W        W71045  23.623  31.735   1.458  0.3992  0.0417  0.2424
28108W        W71046  24.562  31.553   0.455  0.0825  0.1413 -0.0061
28109W        W71047  25.244  32.386   1.052  0.0355  0.0370 -0.0712
28110W        W71048  22.991  31.565   1.755 -0.0053 -0.2150 -0.0929
28111W        W71049  24.663  30.706   3.952 -0.1855 -0.0534 -0.0211
28112W        W71050  24.130  32.963   1.434 -0.1828  0.2333 -0.6159
28113W        W71051  23.074  28.948   1.056  0.0567  0.1010 -0.0447
28114W        W71052  24.511  31.335  30.808 -0.3016  0.1363 -0.0516
28115W        W71053  23.755  30.987   0.902  0.3441  0.1190 -0.0125
28116W        W71054  21.827  30.731  31.448 -0.1217  0.0843 -0.0572
28117W        W71055  25.435  30.328   1.502 -0.2731 -0.1149 -0.0728
28118W        W71056  24.293  29.149   1.856  0.1019  0.0267 -0.0520
28119W        W71057  24.117  29.011   2.307 -0.0918 -0.0822  0.0449
28120W        W71058  24.956  29.895   2.315 -0.2516 -0.3124 -0.2250
28121W        W71059  24.771  32.290   0.995 -0.1297  0.1351 -0.2015
28122W        W71060  23.198  31.149   1.810 -0.0206 -0.2144 -0.3851
28123W        W71061  23.895  30.029  30.972  0.1058 -0.1786  0.1019
28124W        W71062  23.250  30.470   2.805  0.1254 -0.1441 -0.3699
28125W        W71063  22.470  30.883   2.925  0.1986 -0.0822  0.0809
28126W        W71064  21.227  31.910   2.409  0.1443 -0.2029  0.0068
28127W        W71065  26.169  31.581   3.238  0.0809 -0.4987  0.3735
28128W        W71066  24.122  30.330   2.017 -0.0333 -0.2913 -0.3177
28129W        W71067  23.426  29.544   4.026 -0.0270 -0.2946 -0.0080
28130W        W71068  23.409  30.619   0.077  0.3558 -0.1399  0.0076
28131W        W71069  22.096  34.342  31.288 -0.2052  0.2060 -0.0318
28132W        W71070  24.135  31.691   0.227  0.0596  0.0926 -0.2902
28133W        W71071  23.014  29.176   1.547  0.0363  0.1339 -0.1565
28134W        W71072  23.034  31.404   4.031 -0.1960 -0.0029 -0.2983
28135W        W71073  21.952  32.410   0.576  0.0817  0.0000 -0.0228
28136W        W71074  25.782  30.907   4.260 -0.3113  0.2182  0.2095
28137W        W71075  21.339  32.456   0.012 -0.0879 -0.1169 -0.2901
28138W        W71076  24.598  28.811   3.579 -0.1233 -0.6453 -0.0652
28139W        W71077  22.410  33.793   1.616 -0.3360  0.3820 -0.1967
28140W        W71078  23.555  30.473   0.982  0.1219  0.2079 -0.1712
28141W        W71079  22.165  29.899   1.939 -0.2060 -0.1258  0.0853
28142W        W71080  24.674  29.913   1.918 -0.0632 -0.0512 -0.0971
28143W        W71081  25.123  31.504   0.419  0.2858  0.2384  0.3753
28144W        W71082  22.603  29.596   2.729 -0.0363  0.0949  0.1139
28145W        W71083  23.153  28.136   1.001  0.1607 -0.1586 -0.1507
28146W        W71084  21.474  32.974   2.478  0.0175  0.1479 -0.4660
28147W        W71085  23.056  32.446   3.368  0.2606  0.0882  0.2683
28148W        W71086  25.934  28.944  30.332 -0.0651 -0.3316 -0.1973
28149W        W71087  23.377  32.117   1.647  0.1585  0.0896 -0.2320
28150W        W71088  23.672  29.761   3.611  0.3141 -0.0820 -0.0852
28151W        W71089  22.200  30.046   0.114  0.1268 -0.1242 -0.1131
28152W        W71090  25.488  30.605   2.782  0.1650 -0.0466 -0.2611
28153W        W71091  22.271  31.238   0.951 -0.0248  0.0155  0.0088
28154W        W71092  22.701  32.079   0.903  0.0726  0.0191 -0.0856
28155W        W71093  23.017  33.176   2.562  0.1559 -0.3133 -0.2648
28156W        W71094  21.556  30.962   2.521 -0.1210 -0.0348 -0.0971
28157W        W71095  22.532  32.797   1.642  0.1534  0.2440  0.0659
28158W        W71096  22.596  28.711   2.743  0.0250  0.2521  0.1434
28159W        W71097  24.173  31.389   2.986  0.1953 -0.0392 -0.0834
28160W        W71098  23.103  29.480   0.923 -0.2773  0.2160 -0.1250
28161W        W71099  22.337  30.742   0.804  0.0897  0.1452 -0.4112
28162W        W71100  23.495  29.188   1.759 -0.0555  0.2458 -0.3480
28163W        W71101  24.967  32.248   2.303  0.0922  0.0386  0.2253
28164W        W71102  23.252  31.281   1.315  0.1715  0.4755  0.1693
28165W        W71103  23.687  32.003   3.460  0.2978  0.0759 -0.1612
28166W        W71104  22.870  28.655   1.362  0.2305 -0.1843 -0.0011
28167W        W71105  25.098  34.243   1.334  0.1320  0.0320  0.2386
28168W        W71106  24.356  30.467   3.594 -0.1933 -0.1770 -0.1475
28169W        W71107  22.733  31.851  31.916 -0.1151  0.0810 -0.0261
28170W        W71108  21.967  30.711   2.038 -0.0232 -0.1399 -0.2905
28171W        W71109  23.553  32.148   1.187 -0.0718  0.0500 -0.0775
28172W        W71110  24.536  28.703   1.812  0.0094 -0.2691 -0.1173
28173W        W71111  22.356  30.553   3.794  0.0913  0.1121  0.3238
28174W        W71112  22.174  30.994  31.970 -0.1351  0.3451 -0.0997
28175W        W71113  22.033  31.443   3.401  0.1479 -0.1851  0.2409
28176W        W71114  24.904  29.624   0.336 -0.0955  0.1673  0.2939
28177W        W71115  24.092  32.164  31.887 -0.2223  0.0370 -0.0802
28178W        W71116  23.189  29.942   0.722 -0.3186 -0.1388  0.0577
28179W        W71117  24.666  29.969   3.093 -0.0401 -0.2123 -0.0656
28180W        W71118  24.958  32.697  31.821 -0.1452  0.0814 -0.1849
28181W        W71119  24.472  29.306   3.682 -0.1596  0.1337  0.3002
28182W        W71120  22.776  30.446   2.508 -0.0087 -0.2228  0.0131
28183W        W71121  24.175  32.521   0.526  0.0989 -0.1247  0.1719
28184W        W71122  21.845  29.391   1.755 -0.3987 -0.1403 -0.2513
28185W        W71123  24.510  32.882   4.229  0.3970 -0.0069  0.0840
28186W        W71124  22.051  30.754   2.627 -0.0249 -0.0278 -0.3111
28187W        W71125  25.665  30.335   0.222 -0.0979 -0.0002  0.4659
28188W        W71126  23.838  28.417  31.522 -0.0841 -0.1847 -0.3929
28189W        W71127  23.306  31.451   2.246 -0.2386 -0.1160 -0.1171
28190W        W71128  23.982  31.956   2.666  0.1740 -0.1033  0.2516
28191W        W71129  21.981  32.101   1.119 -0.1091 -0.3205  0.0501
28192W        W71130  24.618  30.352   2.149  0.2248 -0.0171 -0.0318
28193W        W71131  22.193  30.426   1.245 -0.0944 -0.0161 -0.1716
28194W        W71132  24.934  32.649   0.547 -0.3120  0.0432 -0.0184
28195W        W71133  24.657  31.137   1.219  0.5085 -0.2112  0.1563
28196W        W71134  21.957  31.477   0.672 -0.4035  0.4333  0.0285
28197W        W71135  22.632  27.987   3.576  0.1365 -0.0906 -0.2728
28198W        W71136  22.896  32.840   2.084  0.0636  0.2446 -0.0346
28199W        W71137  24.356  29.607   1.244  0.0504 -0.0274 -0.0066
28200W        W71138  24.900  29.586   2.702 -0.3243  0.1484  0.0550
28201W        W71139  24.352  31.475   3.992 -0.1782  0.0688 -0.1035
28202W        W71140  23.958  29.943   1.715 -0.0203  0.1973  0.2968
28203W        W71141  22.497  29.170   3.123 -0.1573  0.2178 -0.1408
28204W        W71142  24.619  33.087   2.598  0.2683  0.1289 -0.2510
28205W        W71143  24.865  30.343   0.691  0.1518 -0.0845 -0.0778
28206W        W71144  24.953  29.562   1.739 -0.0102  0.0681 -0.0068
28207W        W71145  24.826  31.298   1.732  0.0643 -0.5193 -0.1056
28208W        W71146  24.196  29.653  30.963  0.2905  0.6379 -0.3273
28209W        W71147  22.374  29.173   2.627  0.0707 -0.0300 -0.0037
28210W        W71148  23.698  31.813   3.941  0.0583 -0.0721  0.1262
28211W        W71149  24.221  29.513  31.490  0.0022  0.0644 -0.1846
28212W        W71150  24.089  29.889   2.227  0.0415 -0.1944 -0.0566
28213W        W71151  23.706  31.831  31.917  0.1992  0.1191  0.1613
28214W        W71152  24.170  31.392   1.026 -0.1448  0.0835  0.2024
28215W        W71153  25.019  30.315   1.176  0.1724  0.0204 -0.0128
28216W        W71154  23.057  30.407   1.071  0.1204  0.0648  0.1462
28217W        W71155  21.746  31.474   3.999 -0.1661 -0.0447  0.0846
28218W        W71156  22.744  30.898   1.139  0.2364  0.1836 -0.1390
28219W        W71157  24.926  31.534  31.140 -0.1110  0.0362 -0.4814
28220W        W71158  24.448  32.127   1.430 -0.0097 -0.2319 -0.1383
28221W        W71159  26.222  32.057   2.993  0.3785  0.5504  0.2021
28222W        W71160  23.032  29.763   0.138 -0.4120 -0.4487 -0.0911
28223W        W71161  24.203  30.013   4.342  0.1795 -0.0981  0.1396
28224W        W71162  22.571  31.673   0.369  0.0328 -0.0079  0.3464
28225W        W71163  24.181  28.882   1.356  0.2212 -0.0455  0.0844
28226W        W71164  22.456  31.825   2.804 -0.0247 -0.0147 -0.2697
28227W        W71165  21.720  31.248   3.085 -0.0175 -0.1202 -0.2197
28228W        W71166  23.435  31.519   0.263  0.1057  0.0838  0.1404
28229W        W71167  24.366  30.533   2.595  0.2285  0.0103  0.1067
28230W        W71168  24.276  30.680   1.647  0.0031 -0.1630 -0.2249
28231W        W71169  23.046  32.390   2.214  0.2289  0.0006 -0.0340
28232W        W71170  27.396  30.788   4.289  0.1739 -0.3194 -0.0138
28233W        W71171  23.487  30.913   2.700 -0.0709  0.2494  0.0576
28234W        W71172  23.130  30.776   1.480  0.0469  0.0897 -0.2569
28235W        W71173  24.464  31.150   4.676  0.0969  0.0408 -0.0660
28236W        W71174  25.253  32.927   1.500  0.3915 -0.0363 -0.0473
28237W        W71175  21.376  31.897   3.260 -0.0330 -0.3097 -0.3263
28238W        W71176  22.128  29.316   4.449 -0.1959  0.0341 -0.3399
28239W        W71177  23.118  31.749   3.671 -0.0736 -0.0878  0.0531
28240W        W71178  24.141  31.871   2.089  0.0593  0.1127  0.2152
28241W        W71179  21.863  29.961  31.727  0.2218  0.0389 -0.0692
28242W        W71180  23.031  31.308  31.600 -0.1478  0.0890 -0.3042
28243W        W71181  22.799  32.622   4.400  0.1222  0.2909 -0.0196
28244W        W71182  21.962  31.712   2.902  0.3275 -0.3817  0.3673
28245W        W71183  21.791  32.657   0.991  0.1233 -0.0947 -0.0659
28246W        W71184  25.513  32.482   1.761 -0.4615 -0.0444  0.0893
28247W        W71185  24.356  30.974   0.680 -0.0046  0.1785  0.3500
28248W        W71186  24.394  33.478   2.970 -0.1395  0.1078  0.1746
28249W        W71187  23.094  30.668  31.667  0.1608 -0.4258  0.0063
28250W        W71188  24.491  31.341  31.872 -0.0025  0.0372 -0.1271
28251W        W71189  21.422  32.861  31.378 -0.0508 -0.1116 -0.5902
28252W        W71190  23.621  33.171   0.925  0.2345  0.1564  0.0024
28253W        W71191  22.310  31.724   1.190 -0.0038 -0.0370 -0.3453
28254W        W71192  24.613  30.872   3.459 -0.0761  0.0409 -0.0517
28255W        W71193  23.010  29.232  31.916 -0.3194  0.0371 -0.3448
28256W        W71194  24.759  30.835   1.877  0.2945 -0.2347 -0.0238
28257W        W71195  25.417  29.353   1.190 -0.1907 -0.2318  0.0459
28258W        W71196  24.563  32.198   3.635 -0.0413 -0.0387 -0.1487
28259W        W71197  23.992  30.322   1.355 -0.0981 -0.0326 -0.3505
28260W        W71198  23.640  30.470  31.579 -0.0325 -0.1610 -0.0423
28261W        W71199  22.894  30.767   3.121  0.0830  0.1187 -0.0893
28262W        W71200  25.410  28.771   2.891  0.2155 -0.2689  0.0671
28263W        W71201  21.434  31.759   2.801  0.2102  0.1026 -0.3032
28264W        W71202  24.935  33.265   0.708  0.1589  0.1508  0.1192
28265W        W71203  23.791  30.571   0.374 -0.0442  0.0075  0.2282
28266W        W71204  23.256  30.896   0.978 -0.0753 -0.3430 -0.2571
28267W        W71205  25.703  30.463   2.121 -0.4265  0.0294 -0.0870
28268W        W71206  22.261  31.971   0.695  0.1706  0.1669 -0.0575
28269W        W71207  23.193  29.847   1.260 -0.0798 -0.0055  0.0126
28270W        W71208  22.018  32.939   0.430  0.1984  0.0025 -0.1055
28271W        W71209  22.112  31.260   2.711 -0.0638 -0.2626  0.2302
28272W        W71210  22.452  34.522   1.599 -0.0141  0.2620 -0.1052
28273W        W71211  23.406  31.081  31.279  0.0125  0.0279 -0.0087
28274W        W71212  25.640  29.114   1.651 -0.1371 -0.0929 -0.3731
28275W        W71213  23.094  30.119   2.349 -0.2109  0.1821 -0.1157
28276W        W71214  24.486  30.015   2.551  0.0217 -0.0857 -0.2158
28277W        W71215  22.493  30.607  31.699 -0.0724 -0.0515 -0.1524
28278W        W71216  24.636  30.614   1.311  0.1024 -0.3387  0.0485
28279W        W71217  23.799  30.859   4.047  0.3316 -0.0699 -0.0007
28280W        W71218  22.102  28.538   2.690  0.0225  0.0563  0.1858
28281W        W71219  23.413  31.033  31.763 -0.1480  0.1231 -0.2646
28282W        W71220  26.045  31.168   2.851  0.0111 -0.0206 -0.0388
28283W        W71221  24.885  32.147  30.772  0.0133  0.0396 -0.1270
28284W        W71222  23.821  31.362   4.354  0.1391 -0.0085  0.2143
28285W        W71223  22.625  31.686   2.195 -0.3349 -0.0419  0.0014
28286W        W71224  24.711  30.402   0.110 -0.0285  0.0638 -0.1984
28287W        W71225  22.894  31.862   1.321  0.2117 -0.0874  0.2762
28288W        W71226  22.869  29.162   2.696 -0.0791  0.1287 -0.2289
28289W        W71227  23.776  31.086   3.236 -0.0729 -0.2475  0.2787
28290W        W71228  22.476  30.469   2.127 -0.0554  0.0867 -0.0788
28291W        W71229  25.051  31.882   1.138  0.1639 -0.3058 -0.0568
28292W        W71230  23.844  30.708   2.331  0.1577 -0.1031 -0.0986
28293W        W71231  21.512  31.717  31.849  0.0549 -0.0739  0.0490
28294W        W71232  24.328  30.894   2.151  0.0439 -0.0291 -0.2248
28295W        W71233  24.534  33.525   2.463  0.1819  0.1862  0.1336
28296W        W71234  21.290  28.605   3.294  0.0811  0.0319  0.2011
28297W        W71235  23.632  32.715   2.850 -0.0912 -0.1090  0.3040
28298W        W71236  25.911  33.784   2.113 -0.1091 -0.1897 -0.3252
28299W        W71237  23.721  29.705   0.351 -0.0199 -0.2862 -0.2097
28300W        W71238  22.535  31.019   3.477 -0.1440 -0.1816  0.2088
28301W        W71239  21.933  31.898  31.640  0.2778  0.1808 -0.2295
28302W        W71240  23.501  30.180   1.450 -0.3279  0.0887  0.2366
28303W        W71241  25.095  29.780   3.201 -0.0605  0.1720 -0.0519
28304W        W71242  23.822  33.412   0.549 -0.4356 -0.0530  0.1320
28305W        W71243  23.689  30.073   4.784 -0.1944 -0.1043 -0.0626
28306W        W71244  21.729  31.042   3.697 -0.2376  0.1505  0.0383
28307W        W71245  21.946  32.192   3.332  0.0512 -0.2029 -0.0712
28308W        W71246  21.960  30.466  31.849  0.1510  0.2269 -0.2042
28309W        W71247  22.571  31.346   2.619 -0.0436  0.0535 -0.0825
28310W        W71248  24.243  32.993   0.272 -0.1161 -0.5093 -0.2139
28311W        W71249  23.635  31.823   2.088 -0.3055 -0.0472  0.0254
28312W        W71250  23.154  31.997   3.196  0.1133 -0.0030  0.0669
28313W        W71251  24.094  29.420   0.870 -0.2664 -0.2361 -0.3953
28314W        W71252  25.051  32.753   2.534 -0.2065  0.1326  0.0918
28315W        W71253  23.134  27.750   2.117 -0.4623  0.0718  0.0669
28316W        W71254  24.792  29.851   1.337 -0.0643 -0.1311 -0.2484
28317W        W71255  24.509  29.692   0.753  0.1448 -0.1667 -0.0242
28318W        W71256  22.498  29.980   2.336  0.0210 -0.1469 -0.1690
28319W        W71257  21.645  29.518   1.221 -0.0793 -0.0505  0.1118
28320W        W71258  20.986  30.288   1.074  0.2699  0.1540  0.0152
28321W        W71259  22.938  31.480   0.098 -0.1643 -0.1067 -0.1972
28322W        W71260  25.091  29.330   3.950  0.2151 -0.2165  0.2953
28323W        W71261  22.464  30.520   3.275 -0.1321 -0.1639  0.1633
28324W        W71262  21.797  31.278  31.766 -0.1501  0.0318 -0.2204
28325W        W71263  22.318  29.719   0.598  0.1759  0.0086  0.1394
28326W        W71264  23.582  32.692  31.318  0.2265  0.0001  0.3739
28327W        W71265  22.376  27.940   2.217 -0.0187 -0.0262  0.1576
28328W        W71266  22.315  30.572   0.235 -0.0665  0.2877 -0.1578
28329W        W71267  24.508  32.589   0.068  0.0996 -0.1902 -0.0285
28330W        W71268  24.657  32.716   1.298 -0.0506  0.1204  0.3672
28331W        W71269  23.019  29.660   1.782 -0.1644  0.0844  0.1359
28332W        W71270  26.730  32.077   2.848  0.0770  0.0124 -0.1517
28333W        W71271  19.800  32.778   0.834 -0.3684 -0.0373 -0.2225
28334W        W71272  23.858  29.930   2.679  0.3028 -0.1828  0.0259
28335W        W71273  23.476  29.665   2.307 -0.1248 -0.0145  0.1024
28336W        W71274  21.635  29.061  31.931 -0.2495 -0.0423 -0.2327
28337W        W71275  22.687  30.686   1.676  0.0648 -0.0845 -0.3166
28338W        W71276  23.243  31.724   0.983 -0.1235 -0.2479 -0.0610
28339W        W71277  25.295  32.772   0.223  0.2222  0.0163 -0.3011
28340W        W71278  23.158  31.938   2.113  0.2004  0.2546 -0.2611
28341W        W71279  23.820  32.799   3.630 -0.2239  0.2297 -0.0702
28342W        W71280  21.980  27.166   4.372 -0.2420  0.3898  0.1295
28343W        W71281  25.582  30.838   0.147 -0.0232 -0.0226 -0.2049
28344W        W71282  22.309  32.293   2.965  0.0532 -0.0520  0.0826
28345W        W71283  25.007  32.613   1.929  0.2889  0.0691  0.0529
28346W        W71284  24.299  28.573   0.851  0.0997  0.1194 -0.1723
28347W        W71285  23.992  31.860   0.640  0.2563 -0.1801  0.1619
28348W        W71286  22.730  28.078   1.852  0.0987 -0.2037 -0.4191
28349W        W71287  23.735  31.451   2.450 -0.1333 -0.2259  0.0135
28350W        W71288  25.535  32.652   2.746  0.2456  0.0360 -0.0583
28351W        W71289  22.642  30.018   0.351  0.0598  0.0845  0.2449
28352W        W71290  25.161  29.119   1.525  0.4425 -0.0163 -0.4351
28353W        W71291  23.014  33.733  30.664  0.1279  0.1103 -0.3121
28354W        W71292  23.936  29.357   1.476 -0.3441  0.1223 -0.2012
28355W        W71293  24.605  30.027   0.429  0.1519 -0.4262  0.0152
28356W        W71294  23.131  29.971   3.290 -0.1237 -0.0436 -0.2429
28357W        W71295  24.145  30.810   1.191  0.0486  0.0353  0.2018
28358W        W71296  24.872  30.340   2.660 -0.0038  0.0741 -0.2213
28359W        W71297  23.477  30.530   1.852 -0.0401  0.2877  0.0994
28360W        W71298  25.775  31.075  31.551  0.0864 -0.0856  0.0993
28361W        W71299  22.605  32.687   3.032  0.1865 -0.3471  0.2345
28362W        W71300  24.373  32.229   4.352  0.3207  0.0024  0.3091
28363W        W71301  23.687  31.596   2.993 -0.0258  0.0523  0.0865
28364W        W71302  24.550  30.448   3.106 -0.3172 -0.1205  0.3588
28365W        W71303  23.135  28.308   3.493 -0.0774 -0.2147 -0.3582
28366W        W71304  23.078  33.352   1.209  0.0868  0.0411  0.0536
28367W        W71305  22.812  31.355   0.754 -0.0378 -0.0013  0.1238
28368W        W71306  24.334  29.614   1.719  0.2504 -0.2118 -0.1196
28369W        W71307  23.078  29.178   2.139 -0.1490 -0.0836  0.2229
28370W        W71308  24.128  29.215  31.902  0.0205 -0.0651  0.3266
28371W        W71309  23.470  32.582   1.429 -0.2948 -0.2592  0.0550
28372W        W71310  24.361  31.554   2.475  0.1080  0.0496  0.1250
28373W        W71311  24.630  32.483   7.070 -0.2582 -0.2145  0.0168
28374W        W71312  21.003  29.718   4.450  0.0304 -0.1279  0.1660
28375W        W71313  24.467  29.567   2.203 -0.1836  0.0597  0.5083
28376W        W71314  23.973  30.594   5.376 -0.3677 -0.0696 -0.0536
28377W        W71315  21.104  29.218   4.153  0.0246 -0.3464 -0.2053
28378W        W71316  24.567  32.681   4.848  0.0306 -0.0685  0.0464
28379W        W71317  22.995  29.605   5.230 -0.0250  0.4822 -0.1665
28380W        W71318  23.812  31.888   5.558 -0.0705 -0.0220  0.0934
28381W        W71319  24.135  32.153   5.889  0.0870 -0.0046  0.0689
28382W        W71320  24.139  31.014   2.588  0.2228 -0.2736  0.1428
28383W        W71321  22.099  31.036   5.610 -0.0960  0.0177 -0.1397
28384W        W71322  22.740  30.468   5.425 -0.2973 -0.0084  0.2443
28385W        W71323  22.418  29.140   4.000  0.0200 -0.1536 -0.0418
28386W        W71324  20.946  28.381   5.218 -0.3552  0.2283 -0.2247
28387W        W71325  23.670  31.029   6.910 -0.0616  0.1819 -0.0887
28388W        W71326  22.682  30.057   5.198 -0.1826  0.2007 -0.2442
28389W        W71327  21.265  31.972   7.017  0.3301 -0.0410  0.3390
28390W        W71328  21.858  30.592   5.034  0.3673 -0.2470 -0.1022
28391W        W71329  23.548  31.308   4.763  0.3089 -0.0339 -0.1831
28392W        W71330  23.258  30.534   7.932  0.1726 -0.0196 -0.1175
28393W        W71331  22.955  30.431   6.976  0.0194  0.0517  0.1767
28394W        W71332  23.757  33.703   2.875 -0.0469  0.1965  0.0319
28395W        W71333  22.032  29.570   3.974  0.0003 -0.1362  0.3553
28396W        W71334  20.566  30.852   5.801  0.2179 -0.1138 -0.1693
28397W        W71335  22.061  31.423   6.838 -0.0166 -0.1355 -0.1990
28398W        W71336  22.353  30.071   5.566  0.3852  0.1946  0.1158
28399W        W71337  24.224  30.149   5.811 -0.1760 -0.1426  0.0612
28400W        W71338  23.217  32.667   5.587  0.0487 -0.0588  0.1387
28401W        W71339  23.695  31.343   5.647 -0.0646  0.1108  0.2244
28402W        W71340  24.116  31.131   7.350 -0.4183  0.0546 -0.3085
28403W        W71341  21.685  32.558   4.792 -0.4110 -0.1146 -0.2754
28404W        W71342  22.211  33.930   6.596 -0.0783 -0.2342  0.3776
28405W        W71343  22.306  32.769   4.689  0.0901 -0.3217 -0.2564
28406W        W71344  26.563  32.754   6.515  0.1035 -0.3011 -0.0110
28407W        W71345  24.719  31.693   6.634  0.0917 -0.1464  0.2600
28408W        W71346  23.796  32.318   8.066 -0.1177 -0.2764  0.0104
28409W        W71347  23.112  32.327   5.159 -0.0603 -0.0906  0.0282
28410W        W71348  23.325  32.550   7.886 -0.0728 -0.1999  0.2130
28411W        W71349  21.919  32.350   6.593 -0.0418  0.0865  0.3075
28412W        W71350  22.586  31.671   6.550  0.0367  0.0265  0.1265
28413W        W71351  24.140  30.521   6.670 -0.0450  0.0718 -0.0582
28414W        W71352  21.798  31.885   3.647  0.1288 -0.1515 -0.2355
28415W        W71353  23.355  30.850   6.150 -0.0069 -0.4558 -0.1244
28416W        W71354  22.592  31.791   7.077 -0.0827 -0.0994 -0.3918
28417W        W71355  21.530  31.592   6.333 -0.0087 -0.3295 -0.0594
28418W        W71356  24.448  30.932   6.325  0.0132 -0.1173  0.1305
28419W        W71357  22.691  31.983   3.677  0.3674 -0.1764 -0.0755
28420W        W71358  23.523  32.117   4.294  0.2403  0.1691 -0.1054
28421W        W71359  23.380  29.304   3.573 -0.4117 -0.2749 -0.1462
28422W        W71360  23.044  30.380   4.396 -0.3849 -0.2229  0.0761
28423W        W71361  23.272  28.794   4.153  0.3114  0.0213  0.2460
28424W        W71362  22.434  33.358   5.431  0.0954  0.2837  0.1402
28425W        W71363  22.870  30.974   7.148 -0.2991 -0.0475 -0.2261
28426W        W71364  24.533  30.441   6.190  0.2546  0.0465 -0.3916
28427W        W71365  22.990  31.335   4.647  0.0372 -0.0481 -0.4436
28428W        W71366  23.279  30.027   6.119  0.1684 -0.3824  0.1379
28429W        W71367  23.375  34.032   6.079 -0.2353  0.2499 -0.2955
28430W        W71368  22.399  31.438   5.669  0.0875  0.1772  0.0335
28431W        W71369  25.287  30.561   5.008 -0.0791  0.2281 -0.4142
28432W        W71370  25.330  31.750   4.417  0.0800  0.0550 -0.0674
28433W        W71371  22.652  31.697   4.100  0.1874  0.0415  0.0325
28434W        W71372  22.277  30.334   5.168 -0.0115 -0.1564 -0.1378
28435W        W71373  22.018  31.196   8.781  0.1397  0.2350  0.1970
28436W        W71374  22.026  29.199   6.798 -0.1773  0.0686 -0.1181
28437W        W71375  22.298  28.661   3.255  0.1960  0.0504  0.2026
28438W        W71376  23.798  30.582   7.019  0.0497 -0.3019 -0.1089
28439W        W71377  21.714  32.235   7.143  0.0945 -0.0216 -0.0048
28440W        W71378  23.940  29.286   4.434  0.0442  0.0732  0.1585
28441W        W71379  22.343  32.723   5.625 -0.0304 -0.1226  0.2075
28442W        W71380  24.819  30.727   5.883 -0.1441  0.2942 -0.1681
28443W        W71381  24.126  31.364   2.073 -0.0480 -0.1387 -0.3314
28444W        W71382  23.843  29.077   5.326 -0.4413 -0.2276 -0.0016
28445W        W71383  22.769  29.641   5.706 -0.1870  0.1497  0.2448
28446W        W71384  22.598  31.462   3.667 -0.0097 -0.0672 -0.0657
28447W        W71385  23.680  30.033   5.309  0.1407  0.1225 -0.0643
28448W        W71386  25.878  30.893   7.607  0.0843 -0.0975  0.1507
28449W        W71387  24.137  30.968   5.005 -0.2197  0.1666 -0.2036
28450W        W71388  22.000  31.816   6.396 -0.3930 -0.0431 -0.0560
28451W        W71389  22.272  30.588   5.655  0.0318 -0.0913 -0.2383
28452W        W71390  23.377  32.412   8.400 -0.0756 -0.1690 -0.0633
28453W        W71391  20.974  32.197   3.446  0.1749 -0.0001  0.0737
28454W        W71392  20.810  31.714   5.954 -0.0492  0.3620 -0.0350
28455W        W71393  22.690  31.491   5.056 -0.3704 -0.0493 -0.1731
28456W        W71394  22.195  28.113   5.409 -0.2641  0.2363 -0.0196
28457W        W71395  22.790  32.140   6.176 -0.4699  0.1901 -0.2123
28458W        W71396  23.971  28.607   3.199 -0.1101 -0.0236  0.0205
28459W        W71397  22.965  28.296   5.836  0.0349  0.2003  0.1828
28460W        W71398  23.888  28.162   5.099 -0.0028 -0.0710  0.0589
28461W        W71399  23.153  31.781   4.974 -0.0795  0.1067 -0.2357
28462W        W71400  25.221  31.115   4.142 -0.1703  0.0961 -0.1196
28463W        W71401  24.436  30.371   5.398  0.0007 -0.0052  0.0628
28464W        W71402  24.162  30.998   3.677  0.3609 -0.0024 -0.2719
28465W        W71403  21.213  31.036   6.482 -0.0762 -0.0091 -0.2914
28466W        W71404  20.729  29.235   5.203  0.0658  0.1153 -0.3430
28467W        W71405  22.867  29.034   6.960 -0.1460  0.1939  0.0286
28468W        W71406  22.008  30.137   5.963  0.0905  0.0409  0.2891
28469W        W71407  25.055  30.299   5.808  0.1263  0.1258 -0.1262
28470W        W71408  22.839  27.923   4.322  0.1374  0.1542 -0.1486
28471W        W71409  23.833  30.608   3.532  0.1480 -0.1585 -0.0576
28472W        W71410  21.734  30.679   5.591  0.1559  0.2520 -0.0945
28473W        W71411  22.259  30.853   5.138 -0.1348  0.1727  0.4247
28474W        W71412  24.996  30.028   6.302  0.0553  0.4251  0.0392
28475W        W71413  24.203  31.903   3.242  0.1768  0.0989 -0.0404
28476W        W71414  25.183  31.593   6.538  0.1629  0.2541 -0.1134
28477W        W71415  23.027  33.081   6.924  0.0865 -0.0692  0.1731
28478W        W71416  21.857  28.409   6.896  0.1087 -0.0483  0.3484
28479W        W71417  22.308  29.524   3.549  0.0477  0.3426  0.0157
28480W        W71418  23.207  32.773   4.677 -0.2100 -0.0825  0.0455
28481W        W71419  22.586  30.436   4.245 -0.1520  0.0518  0.2077
28482W        W71420  22.440  29.693   4.819 -0.0505 -0.1215  0.2464
28483W        W71421  24.185  31.582   5.697 -0.0582 -0.1327 -0.1539
28484W        W71422  23.202  32.241   4.647 -0.2227  0.1632  0.5069
28485W        W71423  21.781  31.843   6.871  0.0520  0.1446  0.0247
28486W        W71424  24.284  29.824   7.051 -0.1181 -0.2082 -0.2314
28487W        W71425  25.246  31.453   5.990 -0.1912  0.0054 -0.2107
28488W        W71426  23.747  30.920   4.545  0.1351  0.1830  0.0425
28489W        W71427  22.679  28.310   3.176  0.1367  0.0524 -0.4220
28490W        W71428  23.892  31.238   6.482  0.0686  0.0981  0.0650
28491W        W71429  21.927  32.992   3.881  0.1265 -0.1109  0.1640
28492W        W71430  21.380  30.347   5.382  0.0299  0.3191 -0.1098
28493W        W71431  22.858  32.069   5.607  0.0623 -0.0701  0.0586
28494W        W71432  24.666  28.973   5.899  0.1270  0.1841 -0.2921
28495W        W71433  21.566  30.808   8.137  0.1546  0.2601  0.0264
28496W        W71434  22.868  30.456   7.596 -0.3342  0.0515 -0.0536
28497W        W71435  22.559  30.171   4.696 -0.3518 -0.2877 -0.0015
28498W        W71436  23.158  32.119   7.679 -0.1083  0.1034  0.3238
28499W        W71437  23.953  29.657   4.043  0.2119  0.3990 -0.0427
28500W        W71438  26.572  29.762   3.544  0.0492  0.0504 -0.1046
28501W        W71439  23.630  31.017   7.430 -0.1952  0.1374 -0.2658
28502W        W71440  24.595  30.636   4.936 -0.4739  0.2589  0.0434
28503W        W71441  22.801  30.222   2.964 -0.2170 -0.0010  0.1689
28504W        W71442  24.913  29.624   3.585  0.0300 -0.0957  0.0729
28505W        W71443  21.324  31.216   7.356  0.0005  0.1129  0.0564
28506W        W71444  23.127  31.203   5.734 -0.1723 -0.1640 -0.0719
28507W        W71445  23.672  30.814   5.757  0.0915 -0.2059 -0.3112
28508W        W71446  24.480  29.626   4.103 -0.2438  0.0766  0.1928
28509W        W71447  25.720  31.269   4.746 -0.4969 -0.0132 -0.3445
28510W        W71448  21.039  30.344   6.946 -0.1381  0.0743  0.0036
28511W        W71449  24.634  32.243   7.550 -0.3217 -0.3627 -0.3963
28512W        W71450  25.044  30.695   5.425  0.0687  0.5198 -0.4440
28513W        W71451  22.589  27.930   5.746  0.0801 -0.0206 -0.2214
28514W        W71452  22.438  31.364   3.107 -0.0332 -0.0485 -0.1425
28515W        W71453  23.202  28.690   5.700  0.2146  0.1763  0.0232
28516W        W71454  22.764  30.844   3.888  0.1906  0.1772  0.2319
28517W        W71455  24.222  28.648   5.840  0.2051  0.0848  0.1041
28518W        W71456  23.865  28.604   5.526  0.1350 -0.1668  0.2018
28519W        W71457  22.723  27.994   6.790 -0.0080 -0.0409  0.1404
28520W        W71458  23.388  29.683   6.444 -0.2569 -0.0071  0.0021
28521W        W71459  24.083  29.240   5.742  0.0392 -0.2020  0.2013
28522W        W71460  24.463  29.972   6.323 -0.0866 -0.0453 -0.2148
28523W        W71461  22.619  30.146   3.543 -0.0143  0.1449  0.0993
28524W        W71462  22.320  30.322   7.745 -0.2620  0.0221 -0.0127
28525W        W71463  21.333  29.989   6.691 -0.2893 -0.1116 -0.2391
28526W        W71464  22.305  33.002   7.956 -0.1917  0.0322 -0.0015
28527W        W71465  25.611  32.373   7.316 -0.0550 -0.3051 -0.0665
28528W        W71466  24.121  31.494   4.784 -0.1541  0.1377 -0.3159
28529W        W71467  23.055  30.480   6.280  0.1201  0.0202  0.1495
28530W        W71468  23.296  29.228   4.946 -0.2274 -0.0374  0.1174
28531W        W71469  21.577  32.580   4.088 -0.0667  0.0384  0.2203
28532W        W71470  21.987  31.433   4.457 -0.1820  0.2902 -0.1039
28533W        W71471  22.752  28.629   4.905  0.1993  0.3299 -0.4272
28534W        W71472  21.930  31.559   5.433  0.0463  0.0331 -0.2995
28535W        W71473  23.525  31.336   3.935  0.1041 -0.0407 -0.0111
28536W        W71474  23.187  30.985   6.596  0.0065 -0.1510 -0.1931
28537W        W71475  22.545  32.217   4.539 -0.2028 -0.0664 -0.1609
28538W        W71476  23.186  27.203   6.541  0.2270 -0.4175  0.2905
28539W        W71477  21.922  32.880   5.221  0.1326  0.3567 -0.0170
28540W        W71478  22.129  30.299   4.292 -0.2454 -0.5287 -0.0576
28541W        W71479  22.770  30.686   5.001 -0.1364 -0.1964  0.2975
28542W        W71480  25.096  29.807   4.789  0.1849 -0.0851  0.3955
28543W        W71481  25.032  31.911   5.323  0.0767 -0.3065  0.2295
28544W        W71482  22.458  30.370   6.761  0.1797  0.2332  0.2150
28545W        W71483  22.993  29.574   6.128 -0.4490 -0.3171 -0.2568
28546W        W71484  21.877  32.184   5.568  0.0935  0.1552  0.3536
28547W        W71485  24.073  30.032   6.578  0.2922  0.3393 -0.0288
28548W        W71486  24.128  30.544   4.008 -0.3157  0.2814 -0.0485
28549W        W71487  23.931  31.460   7.010 -0.0226 -0.3488  0.1541
28550W        W71488  24.371  32.123   8.101  0.1798  0.1160  0.0415
28551W        W71489  22.854  29.698   3.701  0.1560 -0.0340  0.2455
28552W        W71490  26.085  29.567   7.006 -0.3412  0.0230  0.1383
28553W        W71491  23.194  30.779   5.446 -0.0557 -0.1186 -0.1200
28554W        W71492  21.286  31.414   5.948 -0.1700  0.0371  0.1244
28555W        W71493  23.912  32.239   6.348  0.3102 -0.1750  0.0560
28556W        W71494  23.202  30.165   5.386  0.1483 -0.0599  0.0487
28557W        W71495  22.277  31.325   5.193 -0.0712  0.2332  0.1355
28558W        W71496  22.772  31.312   6.850  0.2673 -0.0763  0.0059
28559W        W71497  24.059  31.217   6.033  0.1526  0.2210  0.0583
28560W        W71498  22.184  30.068   6.415 -0.0603 -0.0798  0.1087
28561W        W71499  21.116  30.457   6.395 -0.0829  0.0407 -0.4197
28562W        W71500  22.653  29.290   6.183 -0.0395  0.3740  0.0392
28563W        W71501  23.455  30.583   6.646 -0.0913 -0.1349 -0.1206
28564W        W71502  22.548  29.793   6.163  0.0757 -0.0771  0.1140
28565W        W71503  23.889  31.775   6.650 -0.3120 -0.1597 -0.1706
28566W        W71504  23.536  29.461   5.384 -0.0615 -0.1675 -0.1564
28567W        W71505  25.534  31.939   3.981 -0.1201  0.1858  0.0282
28568W        W71506  24.101  31.222   7.827  0.1481  0.0283 -0.3585
28569W        W71507  22.071  32.378   4.503 -0.1138  0.0422 -0.0022
28570W        W71508  20.376  32.182   7.195 -0.2219  0.3687  0.0917
28571W        W71509  22.452  31.140   4.722 -0.1987 -0.1280 -0.0077
28572W        W71510  22.659  30.804   6.469  0.1718  0.1873 -0.1753
28573W        W71511  21.574  32.081   7.875  0.3684 -0.2112 -0.0681
28574W        W71512  22.451  31.661   4.593  0.1225 -0.0081 -0.0163
28575W        W71513  20.987  31.632   7.271  0.0891 -0.0624 -0.2797
28576W        W71514  23.886  30.481   2.812  0.1189 -0.1213  0.2529
28577W        W71515  24.536  31.567   4.450  0.0321 -0.0152  0.3972
28578W        W71516  21.993  31.000   4.704  0.0168  0.0054 -0.2729
28579W        W71517  24.678  29.296   6.731 -0.0489 -0.1054  0.3890
28580W        W71518  23.089  30.204   4.890 -0.0494  0.0279  0.2199
28581W        W71519  24.270  29.575   6.546 -0.3413  0.0399  0.1991
28582W        W71520  23.442  28.274   5.488 -0.1738 -0.1120  0.0929
28583W        W71521  24.201  30.702   5.950 -0.2375  0.1895  0.3572
28584W        W71522  21.716  30.176   6.388 -0.2015  0.0124 -0.0622
28585W        W71523  25.047  32.242   7.207  0.1363  0.0316  0.1395
28586W        W71524  22.134  31.903   7.358 -0.1334 -0.0640  0.2809
28587W        W71525  23.205  29.450   4.470  0.0674  0.0378 -0.1311
28588W        W71526  22.073  29.340   5.022  0.0131  0.0219  0.0614
28589W        W71527  23.623  32.072   7.676  0.1427  0.0577 -0.0435
28590W        W71528  25.436  32.052   4.772 -0.0703  0.1215  0.0013
28591W        W71529  22.506  32.412   3.445  0.0865  0.1339 -0.0188
28592W        W71530  25.308  31.957   5.755  0.0225  0.1480  0.3203
28593W        W71531  21.851  30.535   7.845  0.1910  0.0262 -0.1134
28594W        W71532  24.032  30.550   4.794 -0.1316  0.0689 -0.3502
28595W        W71533  23.043  30.097   3.860 -0.1677 -0.0821 -0.0060
28596W        W71534  23.532  31.389   6.167 -0.1331 -0.2090  0.0111
28597W        W71535  22.482  29.212   6.652 -0.0190 -0.0071 -0.1083
28598W        W71536  24.990  32.418   5.599  0.0157 -0.2580 -0.2813
28599W        W71537  23.718  29.684   4.545 -0.0672 -0.1626  0.2513
28600W        W71538  22.636  30.024   7.081 -0.1983 -0.1094  0.1047
28601W        W71539  23.308  30.768   7.119 -0.2794 -0.0733 -0.1151
28602W        W71540  22.878  31.295   6.341  0.1206 -0.2199 -0.1247
28603W        W71541  22.318  28.678   6.750 -0.0641 -0.0140 -0.0628
28604W        W71542  24.567  30.907   5.435  0.0307 -0.1185 -0.1008
28605W        W71543  23.815  30.393   4.363 -0.2363 -0.2941  0.3860
28606W        W71544  25.439  29.275   5.794  0.2310 -0.0940 -0.5398
28607W        W71545  24.575  29.439   5.726 -0.0353  0.1084 -0.0870
28608W        W71546  22.861  30.928   4.455  0.0158  0.0546  0.1774
28609W        W71547  22.393  29.514   5.383  0.1927  0.1440 -0.0149
28610W        W71548  23.629  31.334   7.967 -0.0161  0.1391  0.0660
28611W        W71549  21.703  29.077   4.256  0.3622  0.0326 -0.2354
28612W        W71550  22.937  30.021   6.496 -0.0755 -0.2253  0.1505
28613W        W71551  22.937  31.826   4.535 -0.0169  0.1798  0.0014
28614W        W71552  23.289  30.420   5.798  0.1483  0.1460  0.3136
28615W        W71553  23.746  30.303   5.767  0.0846 -0.1067 -0.0813
28616W        W71554  22.007  30.230   4.754  0.1780 -0.0241 -0.3352
28617W        W71555  22.809  32.479   7.575 -0.3289  0.3610 -0.2661
28618W        W71556  21.753  29.804   3.670  0.2058  0.0445 -0.0733
28619W        W71557  22.706  32.482   5.427  0.0932 -0.0008  0.2128
28620W        W71558  23.609  30.158   6.483  0.3740  0.1638  0.0136
28621W        W71559  24.824  30.458   7.159 -0.1838  0.0227 -0.7144
28622W        W71560  23.312  27.975   4.485 -0.2691 -0.0223 -0.0419
28623W        W71561  24.693  29.443   6.257 -0.0685  0.1692  0.2142
28624W        W71562  21.217  31.521   5.447 -0.3614 -0.2474  0.2807
28625W        W71563  23.432  28.816   5.222  0.3700  0.0130 -0.2738
28626W        W71564  23.052  31.754   6.827 -0.2348  0.1166 -0.0315
28627W        W71565  21.819  30.968   6.969 -0.0068 -0.4425 -0.0697
28628W        W71566  21.081  32.509   4.818 -0.1973 -0.1967  0.3020
28629W        W71567  22.618  28.396   5.463  0.2634 -0.1281 -0.0845
28630W        W71568  23.602  29.018   5.841 -0.0153  0.1831  0.1253
28631W        W71569  23.661  31.051   5.204  0.1310  0.1880  0.0717
28632W        W71570  25.591  29.229   6.334 -0.1135 -0.3037  0.0274
28633W        W71571  23.242  32.637   6.909 -0.1594 -0.2182  0.0722
28634W        W71572  21.985  31.366   5.993 -0.1125 -0.2358 -0.3369
28635W        W71573  23.947  31.707   6.095 -0.2321 -0.1840  0.0043
28636W        W71574  25.152  30.467   4.019 -0.1421  0.2670 -0.1673
28637W        W71575  20.345  32.114   6.609 -0.0600 -0.1327  0.5092
28638W        W71576  21.804  29.812   8.161  0.0344 -0.0561  0.1721
28639W        W71577  22.765  30.813   8.096  0.1092  0.3350  0.2470
28640W        W71578  24.237  31.025   4.249  0.0267 -0.0232 -0.1612
28641W        W71579  22.626  29.121   5.674  0.0965 -0.1286  0.0332
28642W        W71580  22.959  30.451   3.513 -0.0147  0.2418 -0.3661
28643W        W71581  22.474  32.382   7.983 -0.1118 -0.0495  0.1352
28644W        W71582  21.804  29.638   6.063 -0.0717  0.0245  0.2206
28645W        W71583  23.408  32.989   4.198 -0.0588 -0.0743  0.0989
28646W        W71584  24.193  32.025   3.932  0.0757  0.0239 -0.3429
28647W        W71585  23.670  31.823   4.756  0.2987 -0.2077  0.0903
28648W        W71586  24.274  31.498   6.547 -0.1142  0.1227  0.1065
28649W        W71587  23.463  30.282   3.582 -0.0740 -0.1695  0.0766
28650W        W71588  21.779  32.206   6.017  0.0480 -0.3278  0.0458
28651W        W71589  21.282  31.225   3.892 -0.3217  0.1359  0.1424
28652W        W71590  24.035  31.936   5.102 -0.0103 -0.1148  0.4010
28653W        W71591  22.926  33.014   4.211 -0.1351  0.0635 -0.0835
28654W        W71592  23.896  32.029   7.224  0.2067  0.0026  0.0196
28655W        W71593  23.308  29.018   3.152 -0.2157 -0.1002 -0.0192
28656W        W71594  25.779  30.304   4.674  0.3352  0.2621 -0.0711
28657W        W71595  24.712  29.935   4.458  0.0160  0.1057 -0.0189
28658W        W71596  24.434  31.626   8.063 -0.0080  0.1452  0.1774
28659W        W71597  22.095  30.637   6.221 -0.3005 -0.1062 -0.1383
28660W        W71598  22.610  28.749   3.647 -0.0161 -0.1115 -0.1372
28661W        W71599  23.166  31.776   5.855 -0.1069  0.0329  0.1532
28662W        W71600  24.024  30.023   7.579 -0.0320  0.1066 -0.4221
28663W        W71601  21.273  32.448   6.958  0.0218 -0.2021  0.0116
28664W        W71602  24.728  31.526   4.938  0.0533 -0.3883  0.0550
28665W        W71603  22.233  29.798   4.362 -0.1653 -0.1100 -0.1474
28666W        W71604  22.862  30.154   5.803 -0.0784 -0.0178  0.0717
28667W        W71605  24.568  28.531   6.683  0.2585 -0.2034  0.2160
28668W        W71606  23.024  31.147   3.619  0.0018 -0.0406 -0.1189
28669W        W71607  24.213  29.678   4.705 -0.2705  0.1338 -0.0860
28670W        W71608  23.562  33.603   4.737 -0.0212 -0.2389 -0.1753
28671W        W71609  21.543  30.360   6.982  0.1507  0.0489  0.1289
28672W        W71610  23.551  32.654   6.312  0.2762 -0.1050 -0.2308
28673W        W71611  22.748  27.771   2.566  0.1153  0.0988  0.4185
28674W        W71612  25.036  29.551   5.909 -0.2403  0.2442  0.1245
28675W        W71613  22.397  31.413   7.305  0.0877  0.0184  0.2148
28676W        W71614  24.966  27.747   6.763  0.0027 -0.1138 -0.0833
28677W        W71615  21.425  31.428   6.829  0.0183  0.1558 -0.0348
28678W        W71616  24.604  30.001   4.932  0.0267  0.0175 -0.0115
28679W        W71617  23.461  31.843   7.184  0.1158  0.1652 -0.0270
28680W        W71618  21.651  30.844   7.446  0.0450  0.3212  0.0802
28681W        W71619  23.595  30.250   2.434 -0.0338  0.1521 -0.1385
28682W        W71620  25.250  30.956   6.889  0.1593  0.1070 -0.1373
28683W        W71621  23.518  29.559   3.024  0.0496  0.2734 -0.0866
28684W        W71622  25.302  31.162   7.415  0.4697  0.0267 -0.1698
28685W        W71623  22.861  28.899   5.322  0.3693 -0.2762  0.0427
28686W        W71624  23.534  30.077   4.010  0.4304 -0.2076  0.0678
28687W        W71625  21.462  30.866   6.008  0.2612  0.0385  0.0277
28688W        W71626  22.530  30.424   6.182 -0.2202 -0.0320  0.0168
28689W        W71627  24.918  30.617   7.691  0.0450 -0.1329  0.2321
28690W        W71628  21.001  28.193   4.704  0.1707  0.0747  0.0840
28691W        W71629  24.894  31.229   3.686  0.1570  0.1580  0.0773
28692W        W71630  23.806  29.905   6.148 -0.1778  0.0504  0.1020
28693W        W71631  24.038  32.260   4.697 -0.0118 -0.0191 -0.1016
28694W        W71632  25.013  30.310   4.673 -0.1461  0.4319 -0.3370
28695W        W71633  23.369  32.180   5.645  0.1987  0.0959  0.0178
28696W        W71634  21.371  29.784   6.256  0.0969  0.1110  0.0680
28697W        W71635  24.447  32.421   5.568  0.0197  0.0165  0.0218
28698W        W71636  24.094  31.037   5.528  0.5926 -0.0863 -0.0079
28699W        W71637  24.064  29.600   5.241 -0.0770 -0.0442 -0.4568
28700W        W71638  22.498  30.474   7.249  0.0176  0.3238  0.1128
28701W        W71639  20.954  30.945   4.741 -0.3377 -0.0600  0.0743
28702W        W71640  24.440  29.863   5.426  0.0577 -0.0980  0.0915
28703W        W71641  23.301  29.972   6.835 -0.2819  0.0294  0.4607
28704W        W71642  22.528  30.914   2.385  0.2011 -0.3520 -0.2706
28705W        W71643  24.739  29.779   6.729 -0.0169 -0.0200  0.0711
28706W        W71644  22.681  32.788   6.018  0.0427  0.1018  0.0360
28707W        W71645  24.281  32.705   7.377  0.0479  0.1649  0.0072
28708W        W71646  22.678  29.376   4.404  0.2238 -0.1424 -0.0491
28709W        W71647  23.856  32.442   8.581 -0.1981 -0.1064 -0.2056
28710W        W71648  22.088  32.037   4.915  0.0853  0.0049  0.0011
28711W        W71649  23.533  32.096   5.178 -0.2625  0.1442 -0.1468
28712W        W71650  23.238  32.818   3.738  0.0134 -0.0687  0.2367
28713W        W71651  24.561  29.385   5.213  0.3370  0.1288  0.0207
28714W        W71652  25.799  31.851   5.506 -0.2183  0.0189 -0.1516
28715W        W71653  22.774  29.285   4.912  0.2569  0.1537 -0.0213
28716W        W71654  24.441  29.197   4.665  0.0217 -0.1351  0.2872
28717W        W71655  24.344  28.718   4.663  0.0822  0.0524  0.2518
28718W        W71656  21.521  30.677   6.589  0.0959  0.1722 -0.2327
28719W        W71657  21.103  30.676   5.643 -0.2510  0.1941  0.2051
28720W        W71658  21.634  32.057   4.103  0.0239  0.2982  0.1232
28721W        W71659  22.188  31.819   5.877  0.3980  0.0406  0.0802
28722W        W71660  23.813  29.398   6.437  0.2919 -0.0181  0.1723
28723W        W71661  21.527  29.156   7.849 -0.2358 -0.0897 -0.0095
28724W        W71662  22.247  31.260   6.424  0.0624 -0.0511 -0.0564
28725W        W71663  21.922  29.205   5.553 -0.1989  0.2781  0.2391
28726W        W71664  24.066  31.818   4.393  0.3338  0.2339 -0.0509
28727W        W71665  22.076  30.038   6.930  0.2685  0.1725 -0.0477
28728W        W71666  21.814  29.724   4.682  0.1433  0.0975  0.2783
28729W        W71667  23.503  30.527   5.037 -0.1017 -0.1212  0.2922
28730W        W71668  24.935  31.939   4.731 -0.0921 -0.0882 -0.0554
28731W        W71669  22.663  28.716   5.965  0.1147 -0.1403 -0.2345
28732W        W71670  24.980  31.481   6.983 -0.0821 -0.0587 -0.3627
28733W        W71671  22.907  29.796   4.715 -0.3198  0.1259 -0.0290
28734W        W71672  22.971  31.331   7.944 -0.3088 -0.2305  0.1030
28735W        W71673  23.151  30.921   7.605  0.0438  0.3494 -0.1116
28736W        W71674  21.318  28.546   4.888 -0.0914 -0.1257  0.3491
28737W        W71675  23.785  29.224   4.865 -0.0965 -0.0906  0.0189
28738W        W71676  24.453  31.933   4.757 -0.0067  0.4880 -0.1056
28739W        W71677  25.060  32.572   3.604  0.1003  0.0285  0.1349
28740W        W71678  23.404  31.670   5.367 -0.0025  0.0909 -0.0183
28741W        W71679  23.470  32.443   7.386 -0.0497  0.0731  0.3511
28742W        W71680  22.495  29.754   6.688  0.2123  0.0068 -0.0973
28743W        W71681  24.588  31.198   5.831 -0.3328  0.1398  0.1247
28744W        W71682  23.423  31.461   6.657  0.1324 -0.0868 -0.0981
28745W        W71683  25.161  30.724   3.580 -0.2348  0.0273 -0.1329
28746W        W71684  24.387  28.943   5.441 -0.1020 -0.0784  0.1351
28747W        W71685  23.894  29.784   5.662 -0.2406 -0.1298 -0.0849
28748W        W71686  23.115  29.150   7.934  0.1370 -0.2077 -0.0133
28749W        W71687  22.170  32.566   7.024  0.0409  0.2793 -0.2149
28750W        W71688  23.829  30.774   6.300 -0.0959  0.0161  0.1988
28751W        W71689  22.402  28.915   4.712  0.2192 -0.0819  0.2425
28752W        W71690  24.043  29.603   3.195 -0.0555 -0.0876  0.1172
28753W        W71691  24.067  32.319   3.500 -0.0101  0.0937 -0.0667
28754W        W71692  22.431  31.031   5.981 -0.0921  0.1037 -0.1075
28755W        W71693  21.450  30.273   3.766 -0.0913 -0.0083  0.2366
28756W        W71694  22.933  31.689   8.338 -0.1560  0.0088  0.1812
28757W        W71695  23.498  32.020   6.117 -0.0226  0.2324 -0.1266
28758W        W71696  23.116  30.687   8.522  0.0364  0.1768  0.1519
28759W        W71697  23.363  29.720   4.900 -0.2513  0.2213  0.0981
28760W        W71698  24.921  30.260   3.606  0.0219 -0.1002 -0.1872
28761W        W71699  24.318  32.547   8.334  0.0181  0.2135  0.2315
28762W        W71700  25.431  31.897   7.189  0.3380 -0.0696  0.1456
28763W        W71701  24.407  31.661   6.122 -0.0346  0.0025 -0.1431
28764W        W71702  24.844  31.081   5.020 -0.1134  0.4346  0.2166
28765W        W71703  21.836  29.089   6.096 -0.1263 -0.0855 -0.1825
28766W        W71704  23.191  30.938   4.871  0.1622 -0.0731  0.2768
28767W        W71705  23.361  33.179   4.924 -0.0184 -0.1744 -0.0748
28768W        W71706  24.263  29.650   6.051 -0.0704  0.0814  0.1907
28769W        W71707  21.945  30.472   6.722  0.1704  0.1966 -0.0070
28770W        W71708  23.093  28.725   3.690 -0.2640  0.3406  0.2308
28771W        W71709  22.717  32.108   6.729  0.1411  0.0625 -0.0615
28772W        W71710  22.819  30.704   5.875 -0.2892 -0.0482  0.1540
28773W        W71711  23.333  33.269  10.065 -0.0157  0.0427 -0.0156
28774W        W71712  22.758  30.443   9.115  0.0128  0.0522  0.1583
28775W        W71713  24.653  30.153   8.488 -0.0085 -0.3458 -0.1472
28776W        W71714  24.816  31.215   8.641  0.1329 -0.0100  0.1857
28777W        W71715  21.097  28.992   8.076  0.2147  0.5295 -0.0219
28778W        W71716  24.120  31.958   8.493 -0.1069 -0.0799 -0.1612
28779W        W71717  25.703  31.978   9.424 -0.5209 -0.1266 -0.0457
28780W        W71718  26.115  31.199   9.891  0.1988  0.0538  0.0401
28781W        W71719  23.913  31.451   8.566  0.2284  0.0774  0.0665
28782W        W71720  22.943  30.334   9.621  0.1750 -0.1602  0.0743
28783W        W71721  22.703  28.795   7.852  0.1597 -0.0967  0.0124
28784W        W71722  20.371  27.987   9.401 -0.0050  0.0787 -0.0239
28785W        W71723  27.131  31.752  10.532  0.2267  0.1045 -0.1622
28786W        W71724  22.144  30.223   8.199  0.1846 -0.2580  0.0041
28787W        W71725  22.144  32.559   9.963  0.1052 -0.1668  0.0402
28788W        W71726  22.009  29.854   9.102 -0.0857 -0.3439  0.0252
28789W        W71727  24.488  33.791   9.577  0.0389  0.1060 -0.1335
28790W        W71728  22.529  30.573  12.268  0.1412  0.3055  0.0678
28791W        W71729  24.581  33.406   9.304  0.4493  0.0081 -0.1813
28792W        W71730  20.725  30.922   6.591 -0.5004  0.0126 -0.1276
28793W        W71731  20.552  28.951   8.084 -0.0159  0.2334  0.1741
28794W        W71732  22.388  30.575   9.460 -0.1731  0.0692  0.2222
28795W        W71733  24.198  30.192   8.057  0.1012  0.0093  0.0535
28796W        W71734  27.365  29.029   9.937 -0.0218  0.0966  0.1322
28797W        W71735  23.134  32.002  10.098  0.1708  0.0439 -0.0409
28798W        W71736  26.551  32.120   9.253 -0.0731  0.2950 -0.1338
28799W        W71737  22.464  33.160   9.259 -0.1633  0.1233  0.1452
28800W        W71738  23.279  33.557   8.001  0.0382 -0.0034 -0.1070
28801W        W71739  22.698  31.968   7.641  0.0544  0.1965  0.0639
28802W        W71740  25.501  31.405   8.278  0.0319  0.2937  0.2503
28803W        W71741  23.098  31.764   6.357 -0.3391  0.2498 -0.0341
28804W        W71742  22.241  26.601   9.958  0.0664 -0.1628  0.1577
28805W        W71743  23.099  30.048   7.317  0.2828 -0.1361 -0.0726
28806W        W71744  23.708  33.346   8.024  0.0314 -0.1019 -0.0370
28807W        W71745  23.645  31.921   8.499  0.2517 -0.2157  0.0256
28808W        W71746  23.501  29.183   8.859  0.0281  0.1690  0.2666
28809W        W71747  22.766  32.435   8.605 -0.3531 -0.3177  0.0102
28810W        W71748  24.983  29.742   8.658 -0.0350  0.0045 -0.0555
28811W        W71749  23.381  29.572   7.143 -0.1839  0.0704 -0.0189
28812W        W71750  24.726  29.921   7.236  0.3245  0.3008 -0.2845
28813W        W71751  23.800  28.329   9.518  0.2542  0.1780  0.0972
28814W        W71752  23.234  34.136   9.892  0.5384  0.1133 -0.1997
28815W        W71753  26.625  30.927  10.003 -0.2577 -0.3778  0.1762
28816W        W71754  23.332  29.989   8.350 -0.2174 -0.1574  0.0692
28817W        W71755  20.084  27.874   9.990  0.2875  0.4158 -0.0396
28818W        W71756  26.018  30.652   9.912 -0.1393 -0.2050 -0.0916
28819W        W71757  21.293  28.137   9.378  0.4185 -0.3209 -0.1130
28820W        W71758  24.502  32.664   7.857  0.0647  0.0268 -0.0474
28821W        W71759  25.755  32.293   8.416  0.2613 -0.2781  0.2883
28822W        W71760  24.042  32.982   8.677  0.0160 -0.3399  0.0096
28823W        W71761  22.106  30.095   9.670 -0.0220  0.1170  0.1809
28824W        W71762  22.241  28.940   7.746  0.3783 -0.1153 -0.3453
28825W        W71763  25.696  29.978   8.702  0.2370  0.0520  0.0261
28826W        W71764  25.419  30.841  10.300  0.1518  0.1894 -0.1054
28827W        W71765  27.099  31.483   9.430  0.1170  0.0904  0.2649
28828W        W71766  23.812  31.620   7.557  0.3110 -0.2845 -0.1635
28829W        W71767  24.098  30.443   8.510  0.2243  0.0968 -0.1793
28830W        W71768  24.160  28.711   9.532 -0.1837 -0.2007  0.0414
28831W        W71769  23.311  31.384   7.218 -0.2119 -0.0368  0.0579
28832W        W71770  23.813  31.854   9.403 -0.0618  0.4738 -0.0376
28833W        W71771  24.475  32.441   9.975 -0.0080 -0.2131 -0.4351
28834W        W71772  24.036  30.952   8.763 -0.0149  0.1796  0.0222
28835W        W71773  25.016  33.222  10.322  0.0691 -0.1985 -0.0467
28836W        W71774  23.624  32.824   8.386  0.2206  0.1825 -0.2161
28837W        W71775  21.392  31.159   9.330 -0.1630 -0.1177 -0.1137
28838W        W71776  22.248  30.787   8.141  0.0809  0.2921  0.3053
28839W        W71777  20.306  29.810   9.824  0.0164  0.0817 -0.1855
28840W        W71778  23.321  32.518   9.245 -0.2050 -0.1970 -0.1889
28841W        W71779  26.487  29.938  10.088  0.2005 -0.0873 -0.1308
28842W        W71780  23.531  29.835   7.570  0.2162  0.1427 -0.2900
28843W        W71781  22.133  29.926   7.461 -0.2478  0.0036 -0.2825
28844W        W71782  25.630  33.664   7.829  0.1124  0.0517 -0.1203
28845W        W71783  25.072  30.229   6.760  0.0250  0.0084 -0.1118
28846W        W71784  24.302  32.561   8.834  0.0840  0.1071 -0.0118
28847W        W71785  22.745  31.590   9.297  0.0785  0.0579 -0.0571
28848W        W71786  22.649  30.529   8.628  0.1198  0.0706  0.4264
28849W        W71787  21.122  28.657   9.344 -0.0489  0.1316  0.0092
28850W        W71788  22.450  28.363   7.550 -0.1178 -0.0265 -0.4218
28851W        W71789  24.535  29.772   8.819  0.1956  0.1054 -0.0978
28852W        W71790  23.374  31.469   8.465  0.2144  0.0172 -0.0479
28853W        W71791  22.940  31.140   8.419 -0.2091  0.2143 -0.3704
28854W        W71792  23.780  32.666   9.010  0.0861 -0.0656  0.0883
28855W        W71793  24.750  33.456   9.940 -0.3126 -0.0403  0.1582
28856W        W71794  25.671  32.312   9.012  0.1922 -0.2945 -0.0031
28857W        W71795  21.229  29.245   9.362 -0.1298  0.0694  0.1791
28858W        W71796  23.405  28.821   7.627 -0.1164  0.1528 -0.0955
28859W        W71797  21.354  32.766   9.961  0.3524  0.0996 -0.0715
28860W        W71798  23.169  31.587   9.829  0.1053  0.0394  0.3372
28861W        W71799  22.171  29.029   9.721  0.3844 -0.0830 -0.1711
28862W        W71800  26.071  31.881   8.476  0.1057  0.1060  0.1314
28863W        W71801  24.383  30.973   9.615 -0.0755 -0.0395  0.1660
28864W        W71802  27.531  31.253   9.081  0.1262 -0.0894 -0.0657
28865W        W71803  24.671  31.115   9.115 -0.2301 -0.1261  0.0147
28866W        W71804  22.692  28.683   7.282  0.2660 -0.3417  0.0939
28867W        W71805  24.821  32.542   8.856  0.2084  0.1009 -0.2812
28868W        W71806  21.544  31.657   7.301 -0.1548 -0.2882 -0.1820
28869W        W71807  21.934  30.455   7.301 -0.2557 -0.2708 -0.1998
28870W        W71808  23.764  32.402   9.456 -0.1079 -0.0337 -0.2137
28871W        W71809  26.017  28.799   8.876 -0.1392  0.0681 -0.0381
28872W        W71810  21.947  31.115   7.822  0.0276 -0.2371 -0.0864
28873W        W71811  23.111  29.707   8.772  0.2786  0.2536  0.2055
28874W        W71812  26.162  30.382   8.353  0.1878  0.0302 -0.3143
28875W        W71813  24.337  30.681   9.063  0.1898 -0.1091 -0.0325
28876W        W71814  23.696  30.779   7.841 -0.1052  0.0036 -0.0607
28877W        W71815  23.800  29.995   8.636  0.1920 -0.0016 -0.1941
28878W        W71816  26.707  31.222   9.566 -0.2309 -0.1783  0.2768
28879W        W71817  25.417  33.441  10.716  0.3504  0.0878 -0.4708
28880W        W71818  22.447  29.435   7.535 -0.0314  0.1176  0.0107
28881W        W71819  24.782  31.859   8.412 -0.3969 -0.1642  0.1878
28882W        W71820  22.914  32.518   9.563  0.1756  0.0654 -0.2135
28883W        W71821  24.868  31.889   9.363  0.1194  0.2082  0.2411
28884W        W71822  19.490  30.014   9.976 -0.3538 -0.0318  0.0431
28885W        W71823  22.235  32.631   7.525  0.0940 -0.0169 -0.3509
28886W        W71824  23.902  29.039   9.136  0.1960 -0.0847 -0.0038
28887W        W71825  22.223  33.490   7.352 -0.2008 -0.0144 -0.0274
28888W        W71826  24.185  28.555   8.929 -0.1395 -0.0249 -0.0645
28889W        W71827  24.261  29.775   9.343  0.1015  0.3261 -0.0947
28890W        W71828  23.610  30.481   8.389 -0.1628  0.3994 -0.1739
28891W        W71829  26.575  30.984   8.979 -0.2922  0.0958 -0.0142
28892W        W71830  22.406  29.085   7.156 -0.2886 -0.0187 -0.0412
28893W        W71831  24.221  30.510   9.899  0.1020  0.1928 -0.0271
28894W        W71832  22.110  34.009  10.398 -0.2530 -0.1456 -0.1508
28895W        W71833  23.232  30.656   8.998  0.0497 -0.1441  0.0676
28896W        W71834  23.039  28.768   8.902 -0.1384 -0.0776 -0.1098
28897W        W71835  23.290  31.774   9.268 -0.0323  0.0960  0.2364
28898W        W71836  23.573  32.107   9.005 -0.0563  0.0901 -0.1514
28899W        W71837  20.464  27.404   9.572 -0.1364 -0.0415 -0.0711
28900W        W71838  26.132  30.179  10.425  0.0692 -0.1302 -0.0652
28901W        W71839  24.287  31.207   8.308 -0.0230  0.0420  0.0946
28902W        W71840  24.208  32.068  10.271  0.1722  0.0265  0.0260
28903W        W71841  21.940  31.283   8.278 -0.3157 -0.0267  0.1242
28904W        W71842  24.893  28.241   9.593 -0.2233 -0.6093  0.2241
28905W        W71843  22.023  31.854   8.175  0.1326 -0.0328 -0.3919
28906W        W71844  23.413  29.054  10.114 -0.1817 -0.0573  0.3843
28907W        W71845  22.505  29.881   8.828 -0.0874 -0.0608  0.1604
28908W        W71846  25.089  29.649   8.119  0.1276  0.0528  0.0271
28909W        W71847  26.085  31.622   9.400 -0.0100 -0.5074 -0.0685
28910W        W71848  20.953  28.902   9.718  0.2475 -0.3769 -0.2664
28911W        W71849  20.862  31.853   9.450 -0.2190 -0.0125  0.3417
28912W        W71850  24.143  32.217   9.674  0.1937 -0.2095  0.0541
28913W        W71851  25.025  28.187   6.769 -0.0205 -0.3434 -0.2948
28914W        W71852  21.749  29.939   8.711  0.0333 -0.2804  0.0753
28915W        W71853  27.291  32.081  10.141  0.3298  0.0703  0.0276
28916W        W71854  23.829  29.985   9.458 -0.3951  0.0270 -0.2192
28917W        W71855  23.057  33.244   8.559 -0.0566 -0.3686 -0.0644
28918W        W71856  24.444  31.558   8.611  0.2495 -0.0140  0.1547
28919W        W71857  23.480  31.024   8.722 -0.1249  0.0106  0.1995
28920W        W71858  23.122  32.026   8.694 -0.2457  0.0968  0.2576
28921W        W71859  25.915  31.803   8.979 -0.0085  0.1107  0.0789
28922W        W71860  23.824  30.985   9.722 -0.0365 -0.0809 -0.1747
28923W        W71861  22.863  29.567   9.457  0.2876 -0.2503  0.1025
28924W        W71862  25.589  29.899   9.630  0.1335  0.0993  0.0710
28925W        W71863  24.567  29.504   9.734  0.1994  0.2695  0.0443
28926W        W71864  22.955  29.345  10.023 -0.2042  0.3804  0.3728
28927W        W71865  23.487  28.673   9.072 -0.1792 -0.0732  0.0171
28928W        W71866  25.782  33.209   8.815 -0.1610 -0.0040  0.1933
28929W        W71867  23.323  30.980   8.168 -0.0782  0.1185  0.1620
28930W        W71868  20.410  30.055   7.673  0.3031 -0.2803 -0.1549
28931W        W71869  22.549  31.813   8.080 -0.1694 -0.1668  0.0739
28932W        W71870  23.595  32.880   9.736  0.0564  0.0772  0.2763
28933W        W71871  22.521  29.992   9.292 -0.2751  0.0561  0.1809
28934W        W71872  22.261  31.588   7.751 -0.0919 -0.0813 -0.0348
28935W        W71873  23.342  30.771   9.503 -0.0323 -0.0275  0.1548
28936W        W71874  25.673  29.617   7.299  0.0641 -0.1963  0.4891
28937W        W71875  24.201  31.281   9.166  0.1266  0.2043 -0.0554
28938W        W71876  23.708  30.495   8.868  0.1975  0.1925 -0.1342
28939W        W71877  22.601  31.151   7.659 -0.2407  0.1075  0.1910
28940W        W71878  22.721  28.784   9.831  0.2927 -0.3676 -0.2167
28941W        W71879  25.122  30.172   9.595 -0.1623  0.1063  0.0437
28942W        W71880  23.219  31.204   9.187  0.1572 -0.0174  0.0998
28943W        W71881  22.835  30.125   8.503  0.2185  0.3404 -0.2280
28944W        W71882  24.676  30.026   9.829  0.0158  0.0234 -0.0974
28945W        W71883  26.071  30.193   9.524 -0.1276  0.0699 -0.0298
28946W        W71884  24.555  32.437   9.272  0.1269 -0.0120  0.0956
28947W        W71885  24.099  30.182   9.020 -0.0498 -0.1320 -0.1018
28948W        W71886  25.178  29.759   9.927  0.3015  0.4980 -0.0655
28949W        W71887  24.412  30.784   7.585  0.0582 -0.1155 -0.0710
28950W        W71888  25.179  30.371  10.115 -0.0044  0.0548 -0.5145
28951W        W71889  22.503  31.243   8.143  0.2158  0.2655  0.1833
28952W        W71890  25.201  31.347   9.231 -0.0635 -0.2539  0.0667
28953W        W71891  23.255  30.149  10.079 -0.2189  0.1042  0.0980
28954W        W71892  26.895  31.800   9.007 -0.0413  0.0332 -0.2693
28955W        W71893  24.442  30.791   8.495 -0.0209  0.2642 -0.3930
28956W        W71894  25.819  27.752   9.030  0.1032 -0.2467  0.0564
28957W        W71895  25.563  29.345   9.890 -0.3273 -0.1741 -0.1677
28958W        W71896  25.176  31.097   9.800  0.1560  0.2655  0.2298
28959W        W71897  21.280  28.942   8.870 -0.0735 -0.0812 -0.2337
28960W        W71898  22.669  29.903   7.562  0.1097 -0.0079  0.0461
28961W        W71899  23.344  31.608   7.685  0.1372  0.1276  0.2249
28962W        W71900  25.171  29.497   9.432  0.0402  0.1903  0.2549
28963W        W71901  24.836  29.468   9.080 -0.0087  0.2641 -0.1700
28964W        W71902  20.565  29.259   8.560 -0.0314 -0.1025 -0.0466
28965W        W71903  24.145  29.345   8.372  0.1674 -0.0703 -0.0943
28966W        W71904  24.039  32.242   9.077  0.1271 -0.1304  0.1828
28967W        W71905  25.874  28.155  10.007 -0.2140 -0.5188  0.0369
28968W        W71906  23.053  29.385   6.593  0.0814 -0.1488  0.0193
28969W        W71907  22.669  31.918   8.812 -0.1547 -0.0229 -0.0782
28970W        W71908  24.657  29.310   8.614  0.0463 -0.0712 -0.1553
28971W        W71909  23.392  34.440   9.506 -0.1380  0.3080  0.2436
28972W        W71910  24.377  31.916   9.366 -0.0920  0.3768 -0.2021
28973W        W71911  22.254  28.073   9.327 -0.1047  0.0385 -0.3729
28974W        W71912  25.908  29.845   9.112 -0.2150  0.0189  0.0935
28975W        W71913  24.091  29.169   9.898 -0.3416  0.0487  0.0577
28976W        W71914  23.234  30.664  10.009  0.0969  0.2895  0.0141
28977W        W71915  25.649  31.228   9.537 -0.4453 -0.0343 -0.0131
28978W        W71916  22.408  33.372  10.631  0.0619  0.3068  0.0739
28979W        W71917  26.712  30.427   8.358  0.1358 -0.0866  0.0241
28980W        W71918  23.849  28.963   8.606 -0.2543  0.1510 -0.1426
28981W        W71919  24.565  32.055   8.878 -0.0857  0.0915 -0.4939
28982W        W71920  22.605  31.665   9.897 -0.1601  0.0856  0.1747
28983W        W71921  23.245  32.745   8.757  0.0082 -0.2559 -0.0030
28984W        W71922  24.653  30.314   8.971 -0.2618  0.1466  0.0666
28985W        W71923  22.916  31.537   7.445 -0.0325 -0.0775 -0.1685
28986W        W71924  25.073  32.122   8.780 -0.1422  0.0212 -0.0688
28987W        W71925  23.312  29.049   7.190  0.0071 -0.1115  0.2057
28988W        W71926  22.904  32.739   9.072  0.0922 -0.2408 -0.1645
28989W        W71927  21.932  32.345   8.263  0.0190  0.0311 -0.2537
28990W        W71928  25.833  32.725   8.115  0.1699  0.1821 -0.0645
28991W        W71929  23.397  32.240   9.691 -0.0833 -0.1714 -0.0305
28992W        W71930  23.895  29.522   7.349 -0.1875 -0.2692 -0.1838
28993W        W71931  24.716  30.566   8.158  0.0559  0.0970  0.0843
28994W        W71932  25.690  30.173   8.180  0.1458  0.3915 -0.3484
28995W        W71933  24.810  30.535   9.812  0.0868 -0.0704 -0.3038
28996W        W71934  22.477  31.000   8.559 -0.1731  0.0627  0.0923
28997W        W71935  25.866  32.337   7.801 -0.1593 -0.3540 -0.2561
28998W        W71936  22.222  29.156   8.428  0.0977  0.0221 -0.1035
28999W        W71937  24.149  32.889  10.156 -0.1587  0.0222  0.0654
29000W        W71938  25.009  28.597  10.335  0.0463  0.0237  0.0625
29001W        W71939  23.413  31.950   8.101 -0.0828 -0.0769  0.1727
29002W        W71940  23.871  29.686   8.078  0.3048  0.0207  0.1909
29003W        W71941  24.296  33.228   9.728 -0.0301  0.0473 -0.0191
29004W        W71942  23.632  31.839   9.930 -0.0671  0.1591  0.1354
29005W        W71943  24.479  31.866   9.867 -0.1455  0.1917 -0.0748
29006W        W71944  20.602  29.178   7.630  0.1331 -0.1064  0.1278
29007W        W71945  26.452  29.754   9.127  0.0548  0.0568  0.1160
29008W        W71946  23.565  31.419   9.508 -0.1994  0.0640  0.2192
29009W        W71947  23.700  31.556   8.987  0.2511  0.0725  0.0931
29010W        W71948  25.363  29.869   9.198  0.0860  0.0164 -0.2953
29011W        W71949  23.828  33.281   9.948 -0.1965 -0.1191  0.1142
29012W        W71950  23.773  32.403  10.037 -0.0325 -0.1333 -0.0900
29013W        W71951  22.277  30.794   7.588 -0.2728  0.1170 -0.0697
29014W        W71952  23.788  30.990   8.330  0.0123  0.1684 -0.1578
29015W        W71953  20.093  29.680   9.359  0.1715 -0.1496  0.0161
29016W        W71954  24.366  28.861   7.492  0.3092  0.3188 -0.2458
29017W        W71955  22.945  29.290   9.025 -0.0310 -0.2172  0.1611
29018W        W71956  25.108  27.503  10.231 -0.0984  0.2009 -0.0977
29019W        W71957  22.071  28.557   9.172 -0.0200 -0.4668  0.0469
29020W        W71958  24.987  31.454   8.157  0.0043  0.1284 -0.0863
29021W        W71959  26.334  31.780  10.081 -0.0018  0.1366  0.2117
29022W        W71960  23.966  33.097   9.236  0.0458  0.3297  0.2228
29023W        W71961  24.060  29.228   7.800  0.1764 -0.2090 -0.0999
29024W        W71962  25.288  32.781   9.585 -0.1128 -0.1304  0.1959
29025W        W71963  21.148  28.471   8.801 -0.2884  0.1922  0.1856
29026W        W71964  25.812  32.845   9.716 -0.1389 -0.1474  0.2017
29027W        W71965  25.576  31.282  10.078  0.1231 -0.0089 -0.1557
29028W        W71966  24.167  29.447   8.936 -0.0766 -0.1098  0.1262
29029W        W71967  22.853  30.863   9.415 -0.2738 -0.0961 -0.1765
29030W        W71968  22.020  31.874   9.306  0.0103  0.2594 -0.0046
29031W        W71969  25.241  27.813   8.949  0.4890 -0.0279  0.0349
29032W        W71970  24.135  32.252   7.619 -0.1361  0.0210  0.0975
29033W        W71971  25.639  29.458   9.384  0.2311 -0.1698  0.0048
29034W        W71972  21.274  30.261   8.074  0.3204 -0.0755  0.0090
29035W        W71973  24.157  31.784   8.948  0.1066 -0.1272  0.1602
29036W        W71974  22.385  31.598   8.504 -0.0210 -0.0192  0.2511
29037W        W71975  26.727  32.383   8.666  0.3340  0.0058 -0.0618
29038W        W71976  23.269  30.222   8.800  0.2650  0.0378 -0.1426
29039W        W71977  27.808  30.295   8.837 -0.1164  0.0712 -0.1356
29040W        W71978  26.522  30.654  10.449 -0.3950 -0.0792 -0.3625
29041W        W71979  24.989  27.687   9.774  0.0182  0.2023  0.1037
29042W        W71980  24.298  29.714   7.857 -0.0083  0.1083  0.0350
29043W        W71981  23.960  30.567   9.362 -0.4749 -0.2598  0.1764
29044W        W71982  23.007  29.978   9.178 -0.2206  0.1304 -0.2263
29045W        W71983  21.615  31.946   9.036 -0.0128 -0.4648  0.1507
29046W        W71984  22.213  31.466   9.560  0.0070  0.0562 -0.1249
29047W        W71985  23.055  31.574   8.888 -0.0623 -0.0340  0.1357
29048W        W71986  22.069  28.263   8.792 -0.1377 -0.1164 -0.2228
29049W        W71987  24.343  31.794   7.632  0.1022  0.2431 -0.2116
29050W        W71988  23.018  27.893   9.050  0.1806  0.0503 -0.0053
29051W        W71989  20.566  28.121   8.084  0.3409 -0.1683  0.2507
29052W        W71990  23.682  33.730  10.040  0.0617  0.0149  0.2328
29053W        W71991  24.858  31.969   7.930 -0.1799  0.0406 -0.1117
29054W        W71992  22.784  28.161   9.475  0.2127  0.4671  0.0475
29055W        W71993  22.868  30.953   8.862 -0.1281  0.0998 -0.0924
29056W        W71994  21.679  29.575   7.613 -0.2053 -0.0784 -0.3113
29057W        W71995  23.665  31.026   9.202  0.0174  0.2979 -0.0465
29058W        W71996  24.944  32.829   9.249 -0.1834 -0.3028 -0.0432
29059W        W71997  24.894  32.380   8.278 -0.0060  0.1169 -0.0414
29060W        W71998  21.444  25.341   9.181 -0.0858  0.1909  0.1535
29061W        W71999  23.945  31.767   8.002 -0.1855  0.3753 -0.1476
29062W        W72000  25.146  30.995   8.897  0.0261 -0.0136 -0.1017
29063W        W72001  24.797  29.897   9.332  0.0399 -0.1696  0.2782
29064W        W72002  25.214  30.488   8.981 -0.1437 -0.1437  0.2993
29065W        W72003  26.812  31.377   8.703  0.0132 -0.2214  0.3326
29066W        W72004  22.377  29.036   8.921  0.1960  0.2261 -0.2110
29067W        W72005  23.756  29.678   6.827 -0.0824 -0.1283 -0.3142
29068W        W72006  24.578  33.288   8.650  0.1562  0.2518 -0.2558
29069W        W72007  21.902  30.440   9.178  0.0389 -0.1004 -0.1033
29070W        W72008  23.648  30.203   7.946 -0.3768 -0.5428  0.1309
29071W        W72009  27.353  31.220  10.199 -0.1582  0.1707  0.1734
29072W        W72010  22.612  29.470   8.613  0.0947 -0.4240 -0.0830
29073W        W72011  24.653  31.019   8.026 -0.1197  0.4410 -0.1687
29074W        W72012  24.633  31.457   9.519  0.1449 -0.1969  0.1383
29075W        W72013  23.455  30.298   9.276 -0.2164  0.1518 -0.2843
29076W        W72014  26.309  30.821   8.190  0.1896  0.2498 -0.3437
29077W        W72015  19.623  27.190   8.337 -0.0722  0.1765  0.0600
29078W        W72016  22.221  30.249   8.828 -0.0886 -0.0379  0.1576
29079W        W72017  25.525  31.294   8.859  0.1080  0.0246 -0.0312
29080W        W72018  24.179  29.870   9.829  0.3227  0.2701  0.1454
29081W        W72019  22.686  29.094   9.406  0.0936  0.0179  0.0010
29082W        W72020  23.698  29.204   8.137  0.2662  0.1147 -0.0760
29083W        W72021  23.264  32.591   9.964  0.1409  0.5018  0.0104
29084W        W72022  25.234  28.961   9.339  0.1269  0.0882  0.0160
29085W        W72023  21.967  33.477   1.818  0.2878  0.2117  0.2130
29086W        W72024  23.885  33.708  30.810 -0.0126 -0.2902  0.0752
29087W        W72025  25.674   1.183   0.121 -0.1570  0.3599 -0.1159
29088W        W72026  21.334  32.890   0.391 -0.0566  0.0271  0.1035
29089W        W72027  21.380  31.648   4.328 -0.0906  0.1223 -0.0345
29090W        W72028  24.038   0.196  30.663 -0.1865  0.0894  0.2335
29091W        W72029  22.942  34.437   4.557  0.1683  0.4005  0.1661
29092W        W72030  23.421  34.119  30.883  0.4955  0.0910  0.0728
29093W        W72031  22.124  33.530   2.597 -0.1284 -0.2374 -0.1322
29094W        W72032  24.609   0.787   3.734 -0.1413 -0.1782  0.3179
29095W        W72033  21.082   0.733  31.786  0.4471 -0.1520 -0.2615
29096W        W72034  23.512  33.164   2.670  0.1787 -0.1929  0.1535
29097W        W72035  23.072  33.473  31.696  0.3110  0.1605  0.0995
29098W        W72036  23.045  33.005   1.572 -0.0534 -0.0809 -0.0966
29099W        W72037  23.969  32.799   4.144  0.0133  0.0429  0.3047
29100W        W72038  21.719   0.530  31.845  0.0851 -0.1188  0.1063
29101W        W72039  21.874   1.455   2.062 -0.1502 -0.1584 -0.0314
29102W        W72040  24.035   0.219   1.581 -0.0760 -0.0190  0.2780
29103W        W72041  23.334  32.691   0.928  0.1452  0.0499  0.1661
29104W        W72042  23.930  34.346   0.576  0.1544 -0.2397 -0.0501
29105W        W72043  25.428  34.059   3.396  0.1550 -0.4271 -0.1592
29106W        W72044  23.013  34.624   1.594  0.0109  0.1859 -0.1835
29107W        W72045  23.928  33.452   1.356  0.0217 -0.4524 -0.2033
29108W        W72046  25.303  32.982   3.638  0.0915 -0.0152  0.0563
29109W        W72047  24.005  32.646   0.026  0.3681  0.1512 -0.1965
29110W        W72048  23.515  34.254  31.389 -0.2466 -0.1475  0.1498
29111W        W72049  23.559  33.900   0.389  0.0301 -0.0012 -0.0838
29112W        W72050  23.059  32.303   1.234 -0.0038 -0.0750 -0.4262
29113W        W72051  23.314  32.221   3.683 -0.1609  0.1600 -0.3804
29114W        W72052  23.433  33.815   2.031  0.2413  0.2662  0.3002
29115W        W72053  23.782  34.486   3.376  0.2456  0.0406 -0.0212
29116W        W72054  22.079  34.244   1.855  0.0189  0.1415 -0.2177
29117W        W72055  22.512  34.516  31.536  0.0059 -0.1126  0.1348
29118W        W72056  20.819   1.845   4.199  0.2608  0.0622  0.0121
29119W        W72057  22.329  34.512   3.397 -0.2425 -0.2436  0.1660
29120W        W72058  19.632  32.448  30.524  0.3191  0.1114 -0.0753
29121W        W72059  25.020  33.854   1.012 -0.3038  0.2620 -0.0267
29122W        W72060  22.851  32.810   1.148 -0.1544  0.0526 -0.1385
29123W        W72061  23.572  33.002   3.240  0.0754  0.0699 -0.2023
29124W        W72062  24.905  34.296   0.298  0.2409 -0.1259  0.1812
29125W        W72063  23.407  33.616   2.500  0.2349 -0.1432  0.1813
29126W        W72064  21.000  33.043   1.646  0.0594  0.1860 -0.0177
29127W        W72065  23.490  33.229   2.146  0.2251  0.4336  0.0324
29128W        W72066  23.877  33.440   2.404  0.1366  0.2639  0.2768
29129W        W72067  24.961  33.148   2.201  0.0418  0.1304  0.1251
29130W        W72068  25.338   0.465   1.949 -0.1771  0.2445  0.1083
29131W        W72069  22.170   0.258   3.584  0.1096 -0.1530 -0.1266
29132W        W72070  21.876  34.220   0.739 -0.1083  0.0413 -0.0119
29133W        W72071  22.172  33.051   2.841  0.2083 -0.1567  0.1636
29134W        W72072  21.562  34.109   2.485  0.1761  0.1945 -0.2581
29135W        W72073  24.136   0.462   2.567 -0.1365 -0.0839 -0.0306
29136W        W72074  21.850  33.800   0.059 -0.2148  0.1091  0.0169
29137W        W72075  24.616  34.081   1.331 -0.0838  0.0466 -0.0877
29138W        W72076  22.564  33.851  30.882  0.1291 -0.3661  0.4710
29139W        W72077  24.692   0.078   3.355  0.0235 -0.0915  0.0049
29140W        W72078  22.772  33.041   4.696 -0.0325 -0.0175 -0.2001
29141W        W72079  22.093  34.479  31.759  0.3082  0.1100  0.0446
29142W        W72080  22.600   0.391  31.513 -0.2653  0.2039 -0.2004
29143W        W72081  24.412  32.922   3.023  0.1824 -0.0357  0.0241
29144W        W72082  23.889  34.016   1.261  0.1810  0.0132  0.1064
29145W        W72083  21.710  32.864   0.017 -0.0937 -0.0584  0.0189
29146W        W72084  22.345  34.006  31.858 -0.2004 -0.1844 -0.1379
29147W        W72085  25.621   0.269   1.552  0.3075  0.5480 -0.0994
29148W        W72086  21.015  34.115   3.599 -0.2228  0.2276  0.0981
29149W        W72087  24.948   0.456   2.489  0.2865 -0.0549  0.4437
29150W        W72088  22.792   1.072  31.905  0.0192  0.0666  0.0576
29151W        W72089  23.491  32.530   0.443  0.1052 -0.1664  0.1786
29152W        W72090  25.493  33.690  31.627  0.0486  0.0393  0.0458
29153W        W72091  24.333  33.372   1.660 -0.0225 -0.1259 -0.1926
29154W        W72092  23.805  32.192   0.297 -0.0705 -0.3644  0.0685
29155W        W72093  23.543  33.644   1.041 -0.2063  0.0815  0.0309
29156W        W72094  23.097  33.426   2.011  0.0513 -0.2953  0.1294
29157W        W72095  23.135   0.178  31.729  0.0387 -0.0508 -0.0611
29158W        W72096  22.848  33.357   0.738  0.0279 -0.0995  0.0855
29159W        W72097  24.651  33.607   1.990  0.0283  0.0139 -0.0212
29160W        W72098  23.955  33.115   1.872  0.1245 -0.1588 -0.3784
29161W        W72099  24.604  32.514   3.267 -0.1311 -0.0341 -0.1058
29162W        W72100  25.773  33.818   4.284 -0.0306 -0.0757 -0.1132
29163W        W72101  24.482  33.682   1.024 -0.0681  0.0652  0.1005
29164W        W72102  23.554   1.558   2.000  0.1410 -0.0753 -0.0032
29165W        W72103  22.110   0.480  31.094  0.1194 -0.2775 -0.1502
29166W        W72104  24.680   0.027   2.366 -0.2550  0.0759  0.0444
29167W        W72105  23.617  33.560   3.351 -0.0364  0.2573 -0.1357
29168W        W72106  23.072  32.283  31.803  0.2317  0.2128 -0.2387
29169W        W72107  22.140  32.481   1.669 -0.1094 -0.2937  0.3098
29170W        W72108  24.729  34.038   2.283 -0.0992  0.2085  0.1534
29171W        W72109  23.049   0.639  31.513  0.3109  0.1745  0.3277
29172W        W72110  21.585   0.516   0.596  0.0328  0.1156 -0.0977
29173W        W72111  23.612  33.051   1.471 -0.1314  0.1544 -0.1204
29174W        W72112  22.443  33.022   2.353 -0.3180 -0.0719  0.1610
29175W        W72113  23.639  34.554   2.561 -0.0808  0.2037 -0.2247
29176W        W72114  24.667  34.519   1.575  0.1044  0.1231 -0.2780
29177W        W72115  25.876  33.385   0.660 -0.1165 -0.0668 -0.2461
29178W        W72116  22.195   0.647   2.979  0.0882 -0.1436 -0.2008
29179W        W72117  22.387   0.772   0.876 -0.2659  0.0815 -0.1592
29180W        W72118  23.812  32.881   2.288  0.0019  0.3788  0.1635
29181W        W72119  23.593  34.111   0.868  0.3318  0.0033  0.2554
29182W        W72120  23.289   0.208   0.298 -0.3790  0.0109  0.2881
29183W        W72121  23.571   0.020   1.735  0.2969 -0.2192  0.2215
29184W        W72122  22.073  33.471   1.355 -0.1562 -0.1662  0.1663
29185W        W72123  21.793  33.368   1.010 -0.1314  0.2230  0.2928
29186W        W72124  23.697  34.225   1.729  0.0302 -0.1409 -0.0669
29187W        W72125  23.669   0.516   3.449  0.2505 -0.2351  0.1833
29188W        W72126  22.740  34.175   1.387  0.2329  0.4634 -0.1685
29189W        W72127  25.019  33.841   3.752  0.0238 -0.0978  0.0079
29190W        W72128  24.154  33.871   1.692  0.0467  0.0213 -0.2375
29191W        W72129  26.253  33.317   0.274 -0.0392  0.1997  0.1347
29192W        W72130  23.421  34.446   1.275  0.0726  0.0314 -0.1333
29193W        W72131  23.959  33.973   3.268 -0.0627  0.0516  0.0809
29194W        W72132  24.954  34.197  31.756 -0.1432 -0.2015 -0.0556
29195W        W72133  23.924  31.407   3.638 -0.2592 -0.1473 -0.1819
29196W        W72134  22.405  31.866   3.302 -0.1890  0.0909 -0.2182
29197W        W72135  22.565   0.215   2.949  0.3687 -0.1161 -0.0975
29198W        W72136  21.789   0.005   3.711  0.0982 -0.2131  0.0024
29199W        W72137  23.387  33.471   1.580 -0.2034 -0.0645  0.2543
29200W        W72138  22.487  34.020   0.492  0.1084 -0.0130  0.1644
29201W        W72139  22.870   0.011   0.494 -0.0863  0.1001  0.0535
29202W        W72140  23.802  33.587   1.877  0.1039  0.1549  0.2051
29203W        W72141  22.454   0.782   1.711 -0.0280 -0.0604 -0.0545
29204W        W72142  24.247  34.177   0.944 -0.3186 -0.2451 -0.0316
29205W        W72143  23.682  32.089   2.979 -0.1642  0.0473  0.3303
29206W        W72144  23.961  32.418   1.404 -0.1376 -0.2583  0.0263
29207W        W72145  25.344  34.068   2.397  0.1783 -0.1775 -0.3124
29208W        W72146  23.098  33.868   3.679  0.1181 -0.7413 -0.2445
29209W        W72147  23.769  33.976   2.446  0.0381  0.0963  0.2645
29210W        W72148  22.392  32.917   3.828  0.2488 -0.1044  0.0740
29211W        W72149  24.574  33.929   0.077  0.1463 -0.3026  0.1446
29212W        W72150  25.051   0.259   2.951  0.0686  0.2106 -0.0508
29213W        W72151  24.997  34.368   0.782  0.0854  0.0554  0.1526
29214W        W72152  24.134  33.200   0.905  0.0132  0.2264 -0.0299
29215W        W72153  22.462  33.729   2.191 -0.0022  0.2729 -0.3844
29216W        W72154  23.930  34.451   4.771  0.0715 -0.0540  0.2194
29217W        W72155  21.362  33.136  30.918  0.1701 -0.0414 -0.3515
29218W        W72156  24.138  34.589   2.503  0.2547  0.0102  0.2268
29219W        W72157  24.003  33.718   0.897  0.0435 -0.0017 -0.0216
29220W        W72158  21.709  33.265   2.834  0.1973 -0.2864 -0.2813
29221W        W72159  22.043  33.529  31.647 -0.2055  0.5801  0.1384
29222W        W72160  22.765   1.227   1.744 -0.1391 -0.2534  0.2141
29223W        W72161  22.614  32.591  31.893 -0.2975 -0.1857 -0.0478
29224W        W72162  23.622  33.913   3.732 -0.0606 -0.1900 -0.0452
29225W        W72163  24.195  34.393   1.527 -0.1817  0.0942  0.0574
29226W        W72164  23.376  34.237   2.297 -0.0393  0.2394  0.0446
29227W        W72165  25.316   0.960   1.775 -0.0591 -0.0336  0.0118
29228W        W72166  23.278   1.120   2.132  0.0344 -0.1230 -0.1569
29229W        W72167  25.063  33.488   3.366  0.0772 -0.3078  0.1048
29230W        W72168  21.962  33.882   2.251  0.0892  0.0165  0.1022
29231W        W72169  22.128   0.126   3.076 -0.0541 -0.2930 -0.0406
29232W        W72170  22.942  33.252   0.209  0.0845  0.2505 -0.1580
29233W        W72171  22.422  32.821  31.406 -0.0402 -0.2380 -0.0355
29234W        W72172  24.503  31.740  31.064  0.0818  0.0240 -0.1086
29235W        W72173  25.771   0.661   2.901  0.1251 -0.1266  0.3602
29236W        W72174  25.704   0.781   0.357 -0.0745 -0.0776  0.3017
29237W        W72175  23.262   0.199   3.215 -0.0380  0.0464 -0.0130
29238W        W72176  23.053  34.027  31.186 -0.0973  0.1671  0.0997
29239W        W72177  22.661  34.520   2.526  0.0684  0.0072  0.1220
29240W        W72178  24.244  32.295   2.891 -0.1275 -0.1722  0.0530
29241W        W72179  22.306  34.518   0.640 -0.0397  0.1767  0.0649
29242W        W72180  21.897  34.591   1.007  0.2955  0.2104 -0.3872
29243W        W72181  24.528   0.137   2.847  0.2044  0.2328  0.3278
29244W        W72182  23.239   0.342   2.160  0.0318  0.3538  0.1637
29245W        W72183  21.413  32.994   0.886 -0.1804 -0.1454 -0.2695
29246W        W72184  25.030   0.176   0.787  0.0266  0.0533 -0.0544
29247W        W72185  22.925   0.737   2.231 -0.1776  0.0000  0.0463
29248W        W72186  25.689  32.230   3.068 -0.1900 -0.0991  0.2715
29249W        W72187  22.511  34.434   0.124 -0.1797 -0.0733  0.2991
29250W        W72188  24.433  34.385   0.557 -0.1426  0.2142 -0.1825
29251W        W72189  22.730  34.473   3.039 -0.0918  0.1458  0.1913
29252W        W72190  24.013   0.645  31.952 -0.0447  0.3181  0.3125
29253W        W72191  25.174  34.541   2.621  0.3427 -0.1767  0.1691
29254W        W72192  22.852  34.088  31.760  0.1767  0.0464  0.2635
29255W        W72193  21.670  33.881   1.807  0.2093  0.1302 -0.2769
29256W        W72194  22.824  32.646  31.186 -0.0433  0.0546  0.0920
29257W        W72195  22.152  33.795   0.985  0.0759 -0.0857  0.0723
29258W        W72196  24.037   0.956   2.917 -0.1358  0.1308  0.1174
29259W        W72197  21.688  32.360   1.482  0.1735 -0.0421 -0.1907
29260W        W72198  24.360  33.206   2.133 -0.0631  0.1384 -0.2107
29261W        W72199  26.221   0.717   1.489  0.0854  0.0415 -0.0791
29262W        W72200  21.631  33.130   1.980 -0.0685 -0.0468  0.0036
29263W        W72201  22.923  33.686   1.513 -0.0714 -0.0267  0.1193
29264W        W72202  21.836  33.908   1.346 -0.0115  0.2036  0.0411
29265W        W72203  23.280  34.403   3.027  0.1990 -0.1531 -0.0241
29266W        W72204  24.513  34.097   3.148  0.2926  0.1981 -0.2839
29267W        W72205  25.080  31.596   2.196  0.0277 -0.4406 -0.0056
29268W        W72206  23.864  32.634   1.850  0.1742  0.0384  0.1729
29269W        W72207  22.668  33.824   1.035 -0.1109 -0.1173 -0.3111
29270W        W72208  25.109  33.433   1.818  0.0881  0.1293  0.1187
29271W        W72209  24.535  32.856   0.814  0.1555  0.2968  0.4907
29272W        W72210  22.310   0.417   4.154  0.1907 -0.1152  0.0492
29273W        W72211  21.645  34.331   1.522  0.0656  0.2735  0.1109
29274W        W72212  23.465  30.937   3.666  0.0653 -0.4093  0.2741
29275W        W72213  23.182  34.147   1.734  0.1049 -0.1666  0.1793
29276W        W72214  22.109   0.115   0.270  0.2046 -0.1686 -0.0120
29277W        W72215  21.495  33.785   0.957  0.0899  0.0046 -0.0652
29278W        W72216  22.726  33.762   2.761  0.0162 -0.1383  0.1168
29279W        W72217  21.057  33.223   1.125  0.0181  0.0029 -0.0755
29280W        W72218  23.421  33.464   0.084 -0.2151  0.0940 -0.0293
29281W        W72219  22.636   0.858   3.131 -0.1886  0.4109  0.0774
29282W        W72220  24.094  32.731   4.717  0.1115  0.2912 -0.4464
29283W        W72221  21.022  34.571   0.072  0.1017 -0.1530  0.0080
29284W        W72222  22.790   0.325   1.927  0.0494 -0.1908 -0.1855
29285W        W72223  22.087  32.201   2.056  0.1351  0.0481 -0.0764
29286W        W72224  24.276  33.889   2.742 -0.0722 -0.0622  0.0807
29287W        W72225  23.247  33.943   1.251 -0.1393 -0.0639 -0.4690
29288W        W72226  21.416  33.017   3.704 -0.0459 -0.2786  0.3603
29289W        W72227  22.372  33.353   0.931 -0.2279 -0.1643  0.1603
29290W        W72228  24.490  32.208   1.943  0.0456  0.0020  0.2413
29291W        W72229  24.481  34.288   1.962  0.0634  0.1786  0.1660
29292W        W72230  25.435  34.211   0.954 -0.0072  0.1187  0.1756
29293W        W72231  23.122   0.034   2.679  0.2630 -0.1614  0.2204
29294W        W72232  23.344   0.507   0.784  0.3574 -0.2716  0.0935
29295W        W72233  25.445   0.683  31.895  0.0735 -0.1284 -0.0094
29296W        W72234  22.196  33.011   1.269 -0.0474 -0.0988 -0.0987
29297W        W72235  22.751   0.451   0.854  0.0373  0.1589 -0.2597
29298W        W72236  24.220  34.440   0.045  0.1498 -0.1140 -0.2233
29299W        W72237  23.538   0.358   2.529  0.0679 -0.4475 -0.0248
29300W        W72238  23.103   0.236   1.156 -0.4042 -0.0624  0.1329
29301W        W72239  23.313  33.414   0.629 -0.0904 -0.4298  0.0558
29302W        W72240  21.988  34.617   4.169 -0.2124  0.0073 -0.4449
29303W        W72241  24.982  33.933   3.200  0.1957 -0.1181 -0.0980
29304W        W72242  24.824  33.494   4.345 -0.2335  0.0808  0.0423
29305W        W72243  22.023  33.392   4.190  0.1552 -0.2114 -0.0039
29306W        W72244  23.111  33.720   8.908 -0.2430 -0.1668  0.2374
29307W        W72245  23.620   0.695   2.978  0.0933 -0.1211  0.0190
29308W        W72246  22.471  34.293   6.417  0.1169 -0.1980  0.1309
29309W        W72247  22.941  34.020   3.116  0.0262  0.0563 -0.1455
29310W        W72248  23.215  32.521   4.171  0.1532 -0.0987  0.0608
29311W        W72249  25.026  33.869   5.971 -0.6697  0.0689 -0.1840
29312W        W72250  23.188   0.767   4.346  0.2555  0.4497  0.0257
29313W        W72251  24.062  33.888   5.306 -0.1084  0.2347 -0.3897
29314W        W72252  23.439  33.798   4.280 -0.2587  0.0086 -0.1756
29315W        W72253  23.229  32.194   6.581  0.0762 -0.2770  0.1531
29316W        W72254  24.342  32.850   6.864 -0.3197 -0.1155 -0.1061
29317W        W72255  23.253  33.459   3.927 -0.2783 -0.0774  0.0185
29318W        W72256  22.111  34.084   6.083  0.0615  0.0578  0.0375
29319W        W72257  23.581   1.250   6.049 -0.2228 -0.2222  0.3956
29320W        W72258  23.839  31.511   5.167 -0.0676 -0.2123  0.0294
29321W        W72259  24.905  34.129   6.790 -0.0953 -0.1243 -0.0508
29322W        W72260  24.440  34.101   7.174 -0.0883 -0.1431  0.0105
29323W        W72261  23.563  34.020   6.768 -0.3128 -0.2828 -0.1924
29324W        W72262  23.864  33.482   6.239  0.0089 -0.0250 -0.1961
29325W        W72263  26.704   0.072   6.685  0.2670 -0.0433 -0.0395
29326W        W72264  24.068  33.160   3.346  0.1192  0.3091 -0.1887
29327W        W72265  24.207  34.292   4.391  0.4489 -0.0826  0.0508
29328W        W72266  24.623  32.513   2.665  0.1160 -0.1039 -0.0751
29329W        W72267  22.717  31.015   5.466 -0.0635  0.2762  0.0316
29330W        W72268  23.066  33.292   5.983 -0.1751  0.0759  0.4396
29331W        W72269  23.631   0.605   4.304  0.0798 -0.1696  0.0704
29332W        W72270  23.670   0.590   6.475  0.2851 -0.0710  0.4232
29333W        W72271  22.603   1.377   5.158 -0.0040 -0.1750  0.1239
29334W        W72272  22.301   0.003   5.851 -0.0208 -0.1668  0.0566
29335W        W72273  21.927  34.683   7.295  0.1108  0.0254 -0.3417
29336W        W72274  23.465   0.478   7.082  0.3176  0.0094  0.2829
29337W        W72275  21.806  34.539   2.733  0.1930  0.0244 -0.1527
29338W        W72276  26.136  32.593   4.763 -0.0621  0.0137 -0.1041
29339W        W72277  25.568  32.602   3.828  0.1716 -0.1102 -0.2707
29340W        W72278  24.219  32.304   6.899 -0.3276  0.0260  0.1751
29341W        W72279  24.616  33.160   4.651 -0.1991 -0.1231 -0.2352
29342W        W72280  23.406  33.598   6.358 -0.3016  0.2990  0.2566
29343W        W72281  22.292  34.539   7.614 -0.3971  0.0197  0.1474
29344W        W72282  24.055  33.612   4.899 -0.1000  0.0511 -0.0345
29345W        W72283  23.247  32.862   7.463 -0.1215 -0.0355 -0.1456
29346W        W72284  24.300  32.521   3.939 -0.2716  0.5309 -0.2500
29347W        W72285  24.144  34.286   5.663 -0.0543  0.1069  0.1496
29348W        W72286  22.171  33.088   6.076  0.0562  0.1445 -0.3162
29349W        W72287  22.914  33.220   5.161 -0.3222 -0.1446 -0.0647
29350W        W72288  23.131  32.467   6.056 -0.0618  0.3689 -0.0597
29351W        W72289  22.832  33.005   5.590 -0.0915  0.1923 -0.0746
29352W        W72290  24.236  33.742   6.426 -0.1285  0.0185 -0.0276
29353W        W72291  20.973  33.180   3.674 -0.2521  0.0335 -0.3695
29354W        W72292  23.728   0.094   5.700  0.0338  0.1063 -0.2734
29355W        W72293  22.736   0.156   3.476  0.4251 -0.1176 -0.1075
29356W        W72294  24.590  33.266   6.919 -0.2035 -0.1942 -0.1357
29357W        W72295  22.963   0.050   6.115  0.1223 -0.0184 -0.1084
29358W        W72296  22.572   0.014   3.942  0.1630 -0.0215 -0.0715
29359W        W72297  23.654  32.568   4.480 -0.0791  0.0821  0.0696
29360W        W72298  24.277  32.575   6.115  0.0364 -0.0243 -0.3454
29361W        W72299  22.544  34.626   4.851 -0.2152 -0.3309 -0.0749
29362W        W72300  22.344  32.652   4.203 -0.0732  0.0707 -0.0628
29363W        W72301  21.994   0.515   6.010  0.1469  0.0774 -0.0372
29364W        W72302  24.697  32.868   3.757 -0.0261  0.2092 -0.0472
29365W        W72303  22.212  34.481   8.071 -0.0605 -0.1127  0.0180
29366W        W72304  24.986  33.138   6.181 -0.2989  0.4509  0.2363
29367W        W72305  21.930  33.846   5.347  0.2356 -0.2152  0.3217
29368W        W72306  24.187  32.891   5.771 -0.0810  0.2843  0.1413
29369W        W72307  24.248  33.049   3.846 -0.0206 -0.1140 -0.4430
29370W        W72308  23.860  34.245   2.871 -0.1433  0.1778 -0.0725
29371W        W72309  22.707  32.581   4.918 -0.2642 -0.1826  0.0907
29372W        W72310  23.765  32.358   3.916 -0.1586  0.2069  0.0756
29373W        W72311  24.166  33.221   4.367  0.0701  0.3826 -0.1221
29374W        W72312  23.125  33.192   3.414 -0.1022 -0.1415 -0.0116
29375W        W72313  23.297  33.184   5.472 -0.0857  0.0040 -0.5840
29376W        W72314  24.646  32.183   6.148  0.0960  0.0909 -0.0014
29377W        W72315  24.766  32.839   5.316  0.0081 -0.1968 -0.1584
29378W        W72316  23.636  33.037   6.666 -0.2545 -0.2992 -0.0414
29379W        W72317  23.925  32.954   6.167 -0.2372 -0.2473 -0.1674
29380W        W72318  25.526  33.824   6.218  0.1843 -0.0031  0.0189
29381W        W72319  24.404  34.666   5.907  0.0310 -0.0523 -0.1378
29382W        W72320  21.946  33.960   2.793 -0.0789 -0.0472  0.0070
29383W        W72321  23.250  34.463   5.798  0.1615 -0.1355  0.0284
29384W        W72322  23.369  33.310   7.559 -0.0398  0.3059 -0.0135
29385W        W72323  24.511  31.788   5.257 -0.0633 -0.5015 -0.2301
29386W        W72324  22.829  31.577   5.520 -0.0921 -0.2413  0.1968
29387W        W72325  25.126  32.310   6.062  0.1620  0.0157  0.2515
29388W        W72326  22.858  32.464   3.804  0.1585 -0.1329 -0.2057
29389W        W72327  22.421  32.927   5.160  0.0436  0.0854  0.0219
29390W        W72328  23.691  33.243   3.788  0.0735  0.0338 -0.3960
29391W        W72329  22.601  32.913   6.550 -0.0498  0.3480  0.0637
29392W        W72330  23.038  34.022   5.715  0.4201 -0.2804  0.3531
29393W        W72331  24.268  34.132   6.117 -0.1125 -0.2795  0.3674
29394W        W72332  24.492  33.808   3.669 -0.1171 -0.2402 -0.0469
29395W        W72333  23.028   0.700   6.753  0.1480  0.1050 -0.0280
29396W        W72334  22.736  33.646   3.361  0.1525 -0.0005 -0.1043
29397W        W72335  25.739  32.994   6.212 -0.0074  0.0153 -0.3609
29398W        W72336  22.912  33.524   5.563 -0.0425  0.1563 -0.2104
29399W        W72337  22.536   1.447   3.853 -0.0022  0.0824 -0.4738
29400W        W72338  22.604  33.793   7.521  0.2867 -0.0297  0.2998
29401W        W72339  23.755  32.492   5.886  0.0752 -0.2050 -0.1312
29402W        W72340  22.226  32.872   3.360 -0.0259  0.4173 -0.1140
29403W        W72341  25.044  33.122   6.676  0.2738  0.2493 -0.0206
29404W        W72342  24.072  33.766   5.865 -0.3598  0.0792  0.2584
29405W        W72343  22.349  31.856   5.385  0.0344  0.0039 -0.0736
29406W        W72344  25.332  33.872   6.828 -0.0771  0.2372 -0.2946
29407W        W72345  23.200   0.195   6.568 -0.1202 -0.0177 -0.2943
29408W        W72346  24.687  31.898   4.061 -0.1916 -0.2159 -0.0363
29409W        W72347  22.898  32.499   6.489 -0.1128 -0.0107 -0.1949
29410W        W72348  25.303  32.765   6.026 -0.2030  0.1044  0.1319
29411W        W72349  24.351   0.082   4.316  0.2720  0.1799  0.0933
29412W        W72350  24.971  34.149   7.302 -0.1057  0.2462 -0.2534
29413W        W72351  22.496  33.774   5.200  0.0022  0.0311 -0.0165
29414W        W72352  21.827  34.179   6.471 -0.1209 -0.0887  0.2323
29415W        W72353  22.254   0.044   6.856 -0.4884 -0.0584 -0.1124
29416W        W72354  23.710  33.101   4.550 -0.0152  0.1040 -0.0362
29417W        W72355  20.849  32.968   4.605  0.1712 -0.0085  0.0619
29418W        W72356  22.366   1.239   6.601  0.2429 -0.1161  0.0022
29419W        W72357  24.278  32.973   5.239  0.3168  0.1681  0.0488
29420W        W72358  22.863   0.739   4.797  0.0406 -0.2217  0.1376
29421W        W72359  25.601  33.095   5.690  0.0672 -0.0476  0.0689
29422W        W72360  22.501  32.233   7.255 -0.0477 -0.4809 -0.2362
29423W        W72361  24.265  33.284   5.989 -0.1436  0.0058  0.2808
29424W        W72362  23.413  32.955   5.949  0.0368 -0.0706 -0.5157
29425W        W72363  24.649  33.433   6.414 -0.0403  0.0082 -0.0870
29426W        W72364  22.512  34.204   7.243 -0.0262  0.0123 -0.1397
29427W        W72365  22.966  33.723   6.163  0.0419 -0.0370 -0.1164
29428W        W72366  24.197  33.430   5.477 -0.0862  0.1286  0.0580
29429W        W72367  25.882  33.603   5.829  0.0507 -0.2828  0.2956
29430W        W72368  25.816   0.914   4.689 -0.3216  0.2602  0.1423
29431W        W72369  23.400  33.971   3.175  0.1097  0.1093  0.1841
29432W        W72370  22.931  32.852   8.344 -0.0180 -0.1470 -0.0071
29433W        W72371  23.721  33.839   8.179 -0.0849 -0.0246  0.0112
29434W        W72372  23.541  32.490   3.311  0.2241 -0.1687 -0.2284
29435W        W72373  25.096  32.681   6.958  0.1484 -0.1044 -0.0890
29436W        W72374  23.564  33.711   5.756 -0.1255  0.0060 -0.0194
29437W        W72375  22.344  32.131   6.238  0.0231 -0.0388  0.0005
29438W        W72376  22.250  33.370   3.598  0.5302  0.1448 -0.1032
29439W        W72377  22.619  34.140   4.235 -0.0772  0.3435 -0.3170
29440W        W72378  24.019  33.226   2.810 -0.0828 -0.1344 -0.1283
29441W        W72379  25.606  32.488   6.288  0.0744 -0.1456  0.0151
29442W        W72380  25.075  33.287   5.154 -0.0273  0.0941  0.1436
29443W        W72381  24.522  32.975   6.390 -0.1131  0.0985 -0.0512
29444W        W72382  24.377  34.190   6.688 -0.1147 -0.4861  0.0736
29445W        W72383  22.225   0.012   6.326 -0.0809 -0.1947 -0.1952
29446W        W72384  25.044  33.635   6.537  0.0596 -0.0260  0.1848
29447W        W72385  22.869   0.044   5.374 -0.5727  0.0859 -0.1361
29448W        W72386  21.702  34.508   5.909  0.0250 -0.0026 -0.0565
29449W        W72387  22.419  33.955   3.069 -0.2352  0.1211  0.0670
29450W        W72388  23.082  34.379   5.063 -0.0279 -0.1236  0.0324
29451W        W72389  24.835  32.496   4.060  0.1690  0.0086 -0.0345
29452W        W72390  24.556  33.681   5.948 -0.2364  0.2021 -0.1023
29453W        W72391  25.047  32.849   4.826  0.0879 -0.1990 -0.0198
29454W        W72392  22.845  33.326   6.506  0.3200  0.3995 -0.2865
29455W        W72393  22.701  33.180   2.979 -0.1963 -0.1118 -0.1429
29456W        W72394  22.862  34.254   7.759 -0.0052  0.1101  0.0703
29457W        W72395  26.677  33.470   7.350  0.0643  0.0316  0.2631
29458W        W72396  22.705  32.907   3.453 -0.0345 -0.3259 -0.2222
29459W        W72397  23.446  34.160   5.425  0.3528 -0.0092  0.1288
29460W        W72398  25.596  32.836   7.146 -0.0730  0.0973  0.2481
29461W        W72399  23.844  33.966   6.280 -0.0983  0.1150 -0.0704
29462W        W72400  22.106  33.516   3.102  0.0634 -0.0990  0.0801
29463W        W72401  23.836  33.483   4.178 -0.4042 -0.0879  0.4577
29464W        W72402  22.996   1.086   5.351  0.0893  0.0654 -0.1783
29465W        W72403  24.643  31.949   5.704  0.2198 -0.1569  0.1800
29466W        W72404  24.145  33.963   4.005 -0.4268 -0.2420 -0.1455
29467W        W72405  25.355  34.368   6.858 -0.4420 -0.1412 -0.0409
29468W        W72406  22.679  31.621   6.016 -0.0975 -0.0719  0.4215
29469W        W72407  24.367  33.522   4.075 -0.1270 -0.0973 -0.3586
29470W        W72408  25.598  34.312   7.784  0.1620 -0.0132  0.1049
29471W        W72409  23.987  33.811   4.468  0.1774 -0.0214 -0.1225
29472W        W72410  23.121  33.857   5.135  0.0796  0.3297 -0.0872
29473W        W72411  23.121  33.497   2.949 -0.1047 -0.1519  0.2043
29474W        W72412  21.926   0.060   5.050 -0.2361  0.2478  0.0249
29475W        W72413  23.747  34.351   5.976 -0.0327 -0.1072 -0.0311
29476W        W72414  22.393  33.132   4.336  0.1558  0.0405 -0.0324
29477W        W72415  26.333  33.506   5.473 -0.1403  0.2189  0.1632
29478W        W72416  25.422  34.411   5.395  0.3110 -0.1731  0.2037
29479W        W72417  22.578  33.317   5.968  0.3391 -0.0629 -0.1040
29480W        W72418  23.362  31.661   4.301 -0.1602 -0.2867 -0.2245
29481W        W72419  23.600  34.054   4.956  0.0902 -0.0557 -0.3779
29482W        W72420  25.839  33.587   5.279  0.0656  0.0326  0.0416
29483W        W72421  24.609  32.443   6.581  0.1523 -0.1235  0.2117
29484W        W72422  25.968  31.951   6.002  0.0367 -0.0888 -0.1273
29485W        W72423  23.204  33.338   4.531 -0.2063  0.1495  0.0348
29486W        W72424  23.699  32.808   5.474 -0.0602 -0.0059 -0.2904
29487W        W72425  25.742  32.241   4.389 -0.2330 -0.3699  0.1532
29488W        W72426  25.050  31.593   3.990  0.0038 -0.2305  0.0524
29489W        W72427  23.456  34.435   6.394  0.0351  0.0830 -0.4328
29490W        W72428  22.577   0.663   3.642 -0.2629 -0.2464 -0.1439
29491W        W72429  23.652  32.236   6.844 -0.3269  0.3193  0.1870
29492W        W72430  21.959   0.465   6.619  0.1467 -0.1490 -0.4084
29493W        W72431  22.579   0.414   6.093 -0.2656 -0.2412 -0.0344
29494W        W72432  23.278  34.341   3.586  0.0046  0.3808 -0.1092
29495W        W72433  23.837  33.124   5.042 -0.2488  0.3963 -0.1343
29496W        W72434  22.732  33.274   3.793 -0.0380  0.3655  0.0172
29497W        W72435  23.166  31.269   5.204 -0.2468  0.0016 -0.0714
29498W        W72436  22.406  32.471   6.583  0.1462  0.3324 -0.0603
29499W        W72437  23.782  32.760   7.773  0.6754 -0.0789 -0.1399
29500W        W72438  21.944  33.791   3.930 -0.2492  0.0642  0.0944
29501W        W72439  22.749  33.890   6.571 -0.0179 -0.3275 -0.0629
29502W        W72440  21.724  32.645   6.280  0.1915  0.0738 -0.2435
29503W        W72441  24.694  33.215   5.711  0.0154  0.0737 -0.0418
29504W        W72442  23.193   0.322   5.756  0.1386  0.2506  0.2168
29505W        W72443  22.399  32.164   8.416  0.2939 -0.4532  0.1599
29506W        W72444  21.602  31.898   5.190 -0.2285 -0.1972 -0.0557
29507W        W72445  24.491  33.430   5.067 -0.0789  0.1713  0.0926
29508W        W72446  23.800   0.935   5.712 -0.0631 -0.1079 -0.1729
29509W        W72447  23.667   0.273   4.846  0.0234  0.2402  0.0037
29510W        W72448  24.120   0.437   6.578  0.0564  0.1773 -0.2263
29511W        W72449  22.357  33.338   4.834  0.1262 -0.1570 -0.0091
29512W        W72450  25.238   0.264   5.672 -0.0843 -0.0051 -0.1382
29513W        W72451  22.654  32.625   7.000 -0.1906 -0.0409  0.1545
29514W        W72452  22.702  34.224   3.506  0.2514 -0.0209  0.1036
29515W        W72453  23.645  32.520   4.989 -0.0791  0.1300 -0.3278
29516W        W72454  25.354  32.714   5.305  0.3160  0.1890  0.1022
29517W        W72455  22.629   0.207   6.544 -0.3109  0.2486 -0.0074
29518W        W72456  24.875  32.416   4.569 -0.0314  0.1705 -0.2098
29519W        W72457  23.339   0.422   8.732  0.0502 -0.0221  0.1169
29520W        W72458  24.803  33.590   5.435  0.2859 -0.1352  0.0425
29521W        W72459  25.490  34.226   8.732 -0.1240  0.3168 -0.0211
29522W        W72460  22.159  32.737   8.908  0.0178 -0.1971  0.0640
29523W        W72461  24.042  33.917   6.923 -0.1806 -0.0314  0.2846
29524W        W72462  22.852  33.024  10.184 -0.0211 -0.2188 -0.0412
29525W        W72463  24.758  33.767   8.528 -0.1013  0.0086 -0.0337
29526W        W72464  22.268  33.603   9.182 -0.0828 -0.0283 -0.0894
29527W        W72465  25.347  33.944  10.146  0.0298 -0.0593  0.0190
29528W        W72466  22.076   1.221   7.687 -0.2073  0.0002 -0.0392
29529W        W72467  23.340  34.129   9.059 -0.0227  0.1713  0.0088
29530W        W72468  24.546  33.335   8.137 -0.2323  0.0057 -0.2205
29531W        W72469  22.887  34.366   9.495 -0.0525  0.3155 -0.2104
29532W        W72470  22.867   0.783   7.631 -0.0753 -0.4048  0.1078
29533W        W72471  24.109  31.561   9.674 -0.2257  0.0059  0.0386
29534W        W72472  25.036  34.617   9.517  0.2082 -0.1449 -0.2027
29535W        W72473  26.616  31.711   9.595  0.3057 -0.0885  0.1584
29536W        W72474  25.380  34.519   9.162 -0.4051 -0.0012 -0.0619
29537W        W72475  24.925  32.730  10.503  0.1395 -0.1185  0.2231
29538W        W72476  23.866   0.854   9.203  0.0949 -0.0147  0.0634
29539W        W72477  24.260  33.621   7.266 -0.0028  0.1026  0.1031
29540W        W72478  24.810  33.084   7.808 -0.0184  0.1835  0.1122
29541W        W72479  25.165  33.027   7.417  0.3154  0.2049 -0.0214
29542W        W72480  22.905  33.380   9.213 -0.1309  0.2556  0.0032
29543W        W72481  23.575   0.009   9.890  0.1539  0.1239 -0.3337
29544W        W72482  23.418   0.498   9.280  0.1128 -0.2765 -0.0366
29545W        W72483  24.570   0.020   9.816 -0.1459 -0.0010 -0.1210
29546W        W72484  21.743  34.130  10.065 -0.0279  0.1953 -0.2160
29547W        W72485  23.152   0.738   9.703  0.0309  0.2910 -0.0318
29548W        W72486  23.516  33.152   7.111  0.0608 -0.2314  0.0212
29549W        W72487  25.050  32.832   8.241 -0.0211  0.2889 -0.1796
29550W        W72488  24.674  32.947  10.104 -0.1502 -0.0977 -0.0179
29551W        W72489  25.452   1.485  10.260  0.1901 -0.1797 -0.1749
29552W        W72490  24.644   0.690   7.742  0.1129  0.2006  0.2302
29553W        W72491  22.547  34.219  10.940  0.0106  0.2611  0.1751
29554W        W72492  25.403  32.421   8.021 -0.1601  0.0706  0.1914
29555W        W72493  25.150  31.590   8.663  0.0586  0.1080  0.1115
29556W        W72494  24.876   0.416   8.511 -0.1389 -0.0051 -0.0383
29557W        W72495  20.623  32.777   9.966 -0.0031  0.0545  0.1736
29558W        W72496  22.376  34.179   9.426 -0.3845  0.0356  0.0269
29559W        W72497  21.403  33.148  10.389 -0.0200 -0.0548  0.0823
29560W        W72498  22.645  33.046   8.722 -0.0237 -0.1727  0.0992
29561W        W72499  24.689  34.293   8.220 -0.0327  0.0087 -0.2501
29562W        W72500  23.457  34.598   8.758 -0.4514 -0.2621  0.0951
29563W        W72501  22.732  33.239  12.935 -0.2160  0.1364 -0.5160
29564W        W72502  23.999  33.992   7.428 -0.0608 -0.0326  0.3308
29565W        W72503  23.366  34.128   7.974 -0.0275  0.2134  0.2819
29566W        W72504  25.141  33.884   9.098  0.1720  0.1451 -0.1481
29567W        W72505  22.575   0.110   7.240 -0.0899 -0.0702  0.1675
29568W        W72506  22.776   0.333  10.273 -0.2736 -0.4188  0.1410
29569W        W72507  25.551  32.380   9.680 -0.0891 -0.0905 -0.0794
29570W        W72508  23.146   0.098   9.177  0.0336  0.2824  0.1090
29571W        W72509  26.264  34.082   9.552  0.2725  0.2533  0.0193
29572W        W72510  25.293  33.613   7.460 -0.0837 -0.0339  0.3184
29573W        W72511  24.035  33.177   7.062 -0.3468 -0.1624 -0.3678
29574W        W72512  24.139  33.215   6.569  0.4008 -0.0353 -0.2795
29575W        W72513  24.105  32.966   8.137 -0.2294  0.2784  0.2102
29576W        W72514  26.017  33.688   9.444  0.0640 -0.0035 -0.2990
29577W        W72515  23.222  34.378   6.858 -0.1304  0.1820 -0.0606
29578W        W72516  25.141  32.349   9.201 -0.1869  0.1231  0.1106
29579W        W72517  25.865   0.275   9.816 -0.1501  0.0303  0.0922
29580W        W72518  23.172  33.748  10.253  0.0088  0.2217  0.1569
29581W        W72519  24.721  33.960   6.378 -0.0173 -0.1827 -0.0590
29582W        W72520  24.944  34.440  10.025  0.1870 -0.0281 -0.0466
29583W        W72521  23.951  33.825   8.644 -0.4229 -0.2890  0.1558
29584W        W72522  23.086   1.218   9.813  0.0880 -0.0721  0.2591
29585W        W72523  24.480  34.196   8.723 -0.1554 -0.2433  0.1189
29586W        W72524  23.551  33.344   9.463 -0.1084  0.3878  0.4310
29587W        W72525  25.732  34.551   9.504  0.1844  0.0971  0.0654
29588W        W72526  23.019  33.980   7.136  0.1670 -0.1159 -0.5207
29589W        W72527  22.384  34.083   7.862 -0.0925  0.0492 -0.2603
29590W        W72528  24.878  32.269  10.225  0.1748 -0.2026 -0.1003
29591W        W72529  24.844  31.801  10.400 -0.1205  0.1328  0.0517
29592W        W72530  23.528   0.970   9.954 -0.0589  0.0169 -0.0823
29593W        W72531  24.624  32.873   8.466 -0.0785 -0.0527 -0.1203
29594W        W72532  22.962  34.469   7.360 -0.0351  0.2254 -0.1069
29595W        W72533  24.333  34.193   9.231  0.0958 -0.1599  0.0814
29596W        W72534  22.862   0.551   8.779  0.4595  0.1969 -0.1298
29597W        W72535  23.271  34.552   7.690 -0.2255 -0.1631 -0.0288
29598W        W72536  25.937   2.178   8.703 -0.1625  0.1257 -0.0013
29599W        W72537  23.901  34.073   9.605 -0.0292 -0.2334 -0.0797
29600W        W72538  23.158  33.621   9.795 -0.2133  0.2572  0.0161
29601W        W72539  23.317  33.188   9.037 -0.0236 -0.2620  0.2062
29602W        W72540  24.337   0.753   9.128 -0.0591 -0.0597  0.1100
29603W        W72541  22.441  29.431   9.916  0.0663 -0.2703 -0.0269
29604W        W72542  23.780  34.632   9.119  0.0339  0.1347 -0.2547
29605W        W72543  25.000  33.563   7.058  0.1722 -0.3562  0.2209
29606W        W72544  24.012  33.569   9.429 -0.0300  0.0903 -0.1812
29607W        W72545  24.279   0.859   6.703 -0.1201  0.0810 -0.0983
29608W        W72546  21.873   0.389  10.397  0.1320 -0.1525 -0.2873
29609W        W72547  25.024  33.310   8.436  0.0979  0.2493  0.0547
29610W        W72548  23.872  33.299   7.523  0.3673  0.1424 -0.2645
29611W        W72549  23.908   1.153   8.347 -0.2547  0.2313 -0.2279
29612W        W72550  24.963  33.138   9.639  0.0176  0.0944  0.3138
29613W        W72551  22.910  34.523   8.764 -0.3811  0.1315 -0.0211
29614W        W72552  24.933  33.576   7.976 -0.1010 -0.1525  0.0440
29615W        W72553  23.461  33.891   9.500 -0.0470  0.1151  0.1245
29616W        W72554  25.488  32.874   6.646 -0.0149  0.2624  0.0347
29617W        W72555  25.694  32.763   9.152 -0.2560  0.0181 -0.2304
29618W        W72556  25.254  33.902   8.453  0.1403 -0.0412  0.0319
29619W        W72557  25.299  33.223   7.888 -0.0500 -0.2323  0.0409
29620W        W72558  21.720  34.398   7.776 -0.1169 -0.0609 -0.0529
29621W        W72559  22.947  32.217   8.179 -0.0493  0.1324 -0.0012
29622W        W72560  24.593  32.766   9.616  0.0980 -0.0728 -0.1283
29623W        W72561  21.769  33.579   8.647  0.1829  0.1768  0.2111
29624W        W72562  22.803  33.774   7.990 -0.0568  0.1250  0.1368
29625W        W72563  23.140  34.538   8.263 -0.0237 -0.0535  0.0341
29626W        W72564  24.361  33.204   7.709  0.1441 -0.0356  0.0289
29627W        W72565  24.800  34.160   9.586  0.1555  0.1541  0.0063
29628W        W72566  24.795  31.563   8.984 -0.2209  0.3566 -0.1473
29629W        W72567  24.214  33.640  10.019  0.1885 -0.0778  0.1289
29630W        W72568  25.104  33.700   9.687  0.0162  0.0207  0.1304
29631W        W72569  23.117   0.170   9.711 -0.0667  0.2156  0.0668
29632W        W72570  23.798  32.715   7.110 -0.0642  0.0234  0.2493
29633W        W72571  23.686   0.113   6.726 -0.0922  0.0759  0.1347
29634W        W72572  24.543  33.723   6.882 -0.4099 -0.0460  0.4746
29635W        W72573  23.992   1.358   9.862 -0.0526 -0.2192 -0.3703
29636W        W72574  24.730  33.546   7.528 -0.3391 -0.3376  0.0163
29637W        W72575  23.193   1.327  10.346  0.1111 -0.1150 -0.2276
29638W        W72576  23.974  32.640   6.628  0.0987 -0.1047  0.2307
29639W        W72577  21.905  34.261   8.459  0.2471  0.1646 -0.0440
29640W        W72578  22.571  34.628   9.144  0.0349  0.0920 -0.0046
29641W        W72579  26.805  32.002   9.980  0.1783  0.0454 -0.0411
29642W        W72580  24.109  32.726   9.636 -0.2340 -0.0433  0.2831
29643W        W72581  23.637  33.805   7.690 -0.2519  0.2711 -0.2199
29644W        W72582  25.799  33.474   8.321 -0.0449  0.0583  0.0156
29645W        W72583  26.283  34.084   9.011 -0.2495 -0.1932  0.2160
29646W        W72584  23.736  33.532   9.014 -0.0940  0.1395 -0.1155
29647W        W72585  25.182   0.209   8.981 -0.0033 -0.2974 -0.0455
29648W        W72586  22.784   0.934   9.401  0.0732 -0.1334  0.0607
29649W        W72587  23.484  33.531   8.525 -0.1977 -0.2816  0.1213
29650W        W72588  23.764  34.386   7.658 -0.2770  0.0691 -0.4096
29651W        W72589  23.124  33.933   8.349 -0.0679 -0.3422 -0.2672
29652W        W72590  24.577  33.921   7.862 -0.2859  0.1236  0.3575
29653W        W72591  22.398  34.499   8.619  0.2847  0.0123  0.2171
29654W        W72592  26.633  33.755   9.132  0.3708 -0.0048 -0.2458
29655W        W72593  22.216  33.326   8.697 -0.0970 -0.1760 -0.3985
29656W        W72594  26.749  33.822   9.726  0.0048 -0.0718 -0.1482
29657W        W72595  24.250  34.619   8.391  0.2994  0.2129  0.1026
29658W        W72596  24.159   0.835   9.698 -0.1601  0.1838  0.0305
29659W        W72597  24.259  33.807   8.291 -0.2898 -0.1219  0.0898
29660W        W72598  22.229  34.038   8.890  0.1945 -0.2291 -0.1968
29661W        W72599  26.285   1.666  10.140  0.0655 -0.1223 -0.0649
29662W        W72600  23.814   0.384   8.942  0.0507 -0.0877 -0.0404
29663W        W72601  22.930  32.148   9.157  0.0254 -0.1970 -0.3000
29664W        W72602  25.488  33.075   8.316 -0.0504 -0.2952 -0.3515
29665W        W72603  25.324  32.519   8.551 -0.1064 -0.0988 -0.2499
29666W        W72604  24.121   2.984   9.422 -0.1654  0.1981 -0.0969
29667W        W72605  22.061  34.101   7.428 -0.0716  0.1507 -0.0609
29668W        W72606  24.396  34.235   9.796 -0.0269 -0.0654  0.0475
29669W        W72607  22.766  32.809   7.889 -0.0907 -0.0743  0.2160
29670W        W72608  23.807  28.919  10.835  0.0071  0.2064  0.1346
29671W        W72609  21.307  34.001   8.558 -0.1597 -0.0067  0.2729
29672W        W72610  23.036  33.155   9.718 -0.1949  0.0210 -0.1251
29673W        W72611  21.752  32.460   8.727 -0.2319  0.0113 -0.0316
29674W        W72612  21.991   2.212   9.240  0.1952  0.0839  0.0118
29675W        W72613  21.841  33.048   9.958  0.2510 -0.1868 -0.3606
29676W        W72614  27.161  31.090   9.738 -0.3024  0.0990  0.1949
29677W        W72615  25.457  34.646   9.942  0.1858  0.1150  0.1951
29678W        W72616  22.864  33.858   9.439 -0.7330  0.2701  0.0286
29679W        W72617  24.969  34.219   8.701  0.0629 -0.0483 -0.0966
29680W        W72618  22.366  32.852  10.250 -0.0533 -0.1429  0.0635
29681W        W72619  24.613  33.798   9.019 -0.0632 -0.0198 -0.2638
29682W        W72620  24.047  33.420   8.383  0.2256 -0.0651  0.0380
29683W        W72621  25.044   0.439   7.393  0.1757  0.0075  0.2212
29684W        W72622  25.359  31.840   9.094 -0.1266  0.2352 -0.2473
29685W        W72623  23.491  34.165   8.511 -0.1943 -0.1006  0.2556
29686W        W72624  22.457   0.890   7.909 -0.0760 -0.2299  0.1803
29687W        W72625  26.207  34.561   9.260  0.0223  0.2119  0.1392
29688W        W72626  22.705  33.985   9.873 -0.3237  0.0678 -0.1113
29689W        W72627  24.670  32.953   7.277 -0.2110  0.1610 -0.4310
29690W        W72628  26.690   1.932   2.313  0.1862  0.0104  0.0071
29691W        W72629  26.457   1.805   1.776 -0.0194  0.1816 -0.2626
29692W        W72630  28.791   1.052   1.463  0.4111  0.0688  0.2812
29693W        W72631  27.618   2.253   0.380 -0.1421 -0.1551 -0.1156
29694W        W72632  26.356   1.548   0.751  0.1737 -0.3585  0.0575
29695W        W72633  26.355   3.466  31.485  0.0260 -0.3027 -0.2998
29696W        W72634  25.524   0.766   3.796  0.1485 -0.2108 -0.1575
29697W        W72635  29.405   2.429   1.575  0.2598  0.1328 -0.1893
29698W        W72636  29.148   2.224   1.990 -0.1114  0.0066 -0.0521
29699W        W72637  26.813   3.628  30.615 -0.0280  0.0159  0.0038
29700W        W72638  25.859   0.296   2.123  0.1919  0.1443  0.0205
29701W        W72639  26.455   2.535   2.125 -0.4311 -0.2707  0.2649
29702W        W72640  26.843   1.423   2.327 -0.0552  0.1217  0.2132
29703W        W72641  23.113  33.812   0.684  0.1111  0.2127  0.0028
29704W        W72642  28.542   1.160   3.658 -0.1624  0.1536 -0.3260
29705W        W72643  25.481   1.722  31.471 -0.3084  0.0905 -0.5922
29706W        W72644  24.616   1.258   4.084 -0.3381  0.2492  0.1622
29707W        W72645  27.115   0.800  31.670 -0.1764 -0.3634 -0.3576
29708W        W72646  26.402   2.860   2.691  0.0426  0.2601  0.0514
29709W        W72647  26.399   0.409   2.473  0.2151 -0.0630  0.0555
29710W        W72648  26.578   0.285   3.883  0.1363  0.1041 -0.0223
29711W        W72649  26.123   3.701  31.034  0.3466 -0.3019  0.0858
29712W        W72650  25.346   2.061  31.860 -0.0331 -0.1945  0.0565
29713W        W72651  25.223   0.572   1.413  0.3333  0.0149  0.1253
29714W        W72652  26.879   0.625   4.314 -0.1535 -0.0274 -0.1235
29715W        W72653  28.211   2.017   2.317 -0.0165 -0.2317  0.1388
29716W        W72654  28.493   0.758   2.352  0.0206  0.4245  0.1399
29717W        W72655  26.832   2.301   0.422  0.1404  0.0925 -0.0671
29718W        W72656  27.734   2.015   2.054  0.3255 -0.0251 -0.2674
29719W        W72657  27.718   0.658   3.479 -0.3869 -0.0877  0.1581
29720W        W72658  25.243   3.893   0.291 -0.0583  0.0421  0.0826
29721W        W72659  25.571   4.397   0.884  0.0921  0.0360  0.2512
29722W        W72660  26.171   3.859  31.811 -0.3452 -0.0498 -0.1628
29723W        W72661  28.455   2.001   1.427 -0.2814  0.3425  0.0273
29724W        W72662  27.842   3.203   3.137  0.0902 -0.3430 -0.0305
29725W        W72663  26.124   3.650   2.698 -0.3259 -0.2254 -0.3531
29726W        W72664  24.548   4.460   0.424 -0.3070  0.0893 -0.1407
29727W        W72665  27.160   3.756   2.709  0.1103  0.0451  0.2937
29728W        W72666  26.149   4.035   3.492  0.0640  0.3478 -0.2313
29729W        W72667  27.729   2.261   2.562 -0.1660 -0.1066  0.0754
29730W        W72668  27.562   1.107   2.230 -0.0067  0.1290  0.0135
29731W        W72669  25.251   4.843  31.244  0.0430  0.1328  0.0780
29732W        W72670  26.527   3.010   1.548  0.1156 -0.2098  0.0143
29733W        W72671  27.181   3.265   3.406  0.1847  0.0191  0.1958
29734W        W72672  25.484   2.470   1.325  0.0693  0.2663 -0.3738
29735W        W72673  27.834   0.080   2.966  0.0050  0.0579 -0.1304
29736W        W72674  25.404   3.748  31.777 -0.2557  0.1991 -0.0401
29737W        W72675  27.013   1.126  31.246  0.0257 -0.3069 -0.0041
29738W        W72676  27.752   0.635  31.371 -0.0219 -0.0715 -0.2313
29739W        W72677  28.093   1.283   0.491  0.3239  0.0827  0.0731
29740W        W72678  25.959   0.727   0.794 -0.0648 -0.0312 -0.1389
29741W        W72679  26.755   2.496   0.873  0.1597  0.1741  0.3906
29742W        W72680  26.747   1.175   0.973 -0.2124  0.0679  0.1187
29743W        W72681  27.639   2.326   1.691 -0.1826  0.0286 -0.0345
29744W        W72682  27.593   2.009   1.226 -0.0081 -0.0837  0.0219
29745W        W72683  29.011   0.630   2.926  0.1915 -0.0673  0.1103
29746W        W72684  26.879   2.395   2.398 -0.1271  0.3168 -0.2123
29747W        W72685  25.293   1.959   1.736  0.1027  0.0765 -0.0191
29748W        W72686  27.697   4.339  31.650  0.4245  0.0919 -0.1968
29749W        W72687  28.544   2.396   1.004  0.3183 -0.1719  0.2048
29750W        W72688  27.064   4.931   0.283 -0.2137 -0.1353  0.5399
29751W        W72689  25.147   3.009   0.528 -0.1212  0.1341  0.0865
29752W        W72690  25.208   2.376   4.479  0.4162 -0.2183 -0.0033
29753W        W72691  25.801   1.878   4.549  0.0847 -0.1958 -0.4170
29754W        W72692  26.470   0.256  30.653  0.0237 -0.0913 -0.2179
29755W        W72693  27.797   3.173   2.107 -0.2288 -0.2184  0.0188
29756W        W72694  25.793   1.741   3.459 -0.2321  0.1985 -0.2681
29757W        W72695  29.595   0.911   1.252  0.1963 -0.2659  0.0888
29758W        W72696  27.717   0.965   2.991 -0.0332 -0.0267  0.1919
29759W        W72697  28.455   3.146   3.140  0.1302  0.0750  0.2228
29760W        W72698  26.860   4.523  31.905  0.1481 -0.0203  0.0515
29761W        W72699  29.587  34.355   0.169  0.2545 -0.0352  0.0958
29762W        W72700  27.797   0.648   2.214 -0.3045 -0.3014 -0.0209
29763W        W72701  26.400   1.990  31.849 -0.0603  0.1695 -0.2941
29764W        W72702  25.914   2.548   0.141 -0.1194 -0.3080 -0.0308
29765W        W72703  29.781   2.587   2.149  0.0019  0.0822 -0.0404
29766W        W72704  28.963   0.051  31.525  0.0359 -0.1559 -0.2051
29767W        W72705  25.515   1.883   1.286 -0.2592 -0.0784 -0.1520
29768W        W72706  27.208   0.856   3.997  0.0470 -0.1135  0.2198
29769W        W72707  27.231   3.166   4.228  0.2418  0.2835 -0.0910
29770W        W72708  25.729   4.091  31.719  0.0706  0.1532  0.0857
29771W        W72709  25.543   2.919   1.566  0.0817  0.0538 -0.3395
29772W        W72710  24.186   3.958  31.155  0.0344  0.1950 -0.0477
29773W        W72711  24.767   0.510   4.137  0.0737 -0.2528  0.2395
29774W        W72712  28.122   2.477   2.387 -0.0293 -0.2834  0.0376
29775W        W72713  28.530   1.495   0.601  0.1695 -0.0212  0.0962
29776W        W72714  26.539   1.168   3.083 -0.0231  0.1031 -0.2619
29777W        W72715  30.004   0.774   1.514 -0.2612  0.2436 -0.2355
29778W        W72716  26.376   3.985  31.338 -0.2649 -0.2927  0.1312
29779W        W72717  27.503   3.247   0.700 -0.0262  0.0647 -0.1761
29780W        W72718  28.124   1.495   0.030  0.1264 -0.0130 -0.4384
29781W        W72719  26.975   4.174   0.666 -0.0178 -0.1460 -0.4820
29782W        W72720  25.620   1.185   2.633 -0.3396 -0.0597 -0.3154
29783W        W72721  26.857   0.893   1.874  0.1204 -0.2289 -0.0002
29784W        W72722  26.763   0.954   4.782 -0.2362 -0.0735  0.4488
29785W        W72723  25.255   0.852   2.269 -0.3764  0.2969 -0.0425
29786W        W72724  29.021   1.085   4.146 -0.0514  0.1171 -0.2426
29787W        W72725  26.045   0.833  31.921  0.1724  0.1050  0.0099
29788W        W72726  27.313   1.277   1.812  0.1345 -0.0527  0.0627
29789W        W72727  26.750   1.662   1.188 -0.2728 -0.1412  0.0083
29790W        W72728  25.097   3.550   0.627  0.1953 -0.2258 -0.1355
29791W        W72729  28.854   0.723   3.815 -0.0272  0.0474  0.1998
29792W        W72730  26.480   5.067   1.544 -0.1532  0.0708  0.1374
29793W        W72731  27.472   3.415   2.334 -0.0824  0.1684  0.0596
29794W        W72732  27.983   3.558   1.824  0.3717 -0.1304  0.2807
29795W        W72733  25.492   0.458   4.659  0.0225 -0.1463  0.2434
29796W        W72734  26.556   0.953  31.089  0.2631  0.0191 -0.1405
29797W        W72735  26.175   3.118   1.180  0.0273  0.4922 -0.1392
29798W        W72736  25.543   3.455   0.303 -0.2788  0.1474  0.1076
29799W        W72737  27.825   1.432   1.854 -0.1723 -0.0010 -0.2126
29800W        W72738  29.725   3.523   2.494 -0.0655  0.0189  0.2128
29801W        W72739  27.108   2.821   0.396  0.0633  0.1184  0.1883
29802W        W72740  26.152   2.371   3.944  0.3226  0.1662 -0.1833
29803W        W72741  27.935   1.179   2.610  0.2168  0.2703 -0.0019
29804W        W72742  29.008   1.377   1.783 -0.0481 -0.1778  0.5177
29805W        W72743  28.937   2.653   0.636 -0.1510 -0.0941  0.1778
29806W        W72744  26.214   1.263  31.631 -0.0791 -0.0166 -0.2354
29807W        W72745  27.958   3.940   1.432 -0.2671  0.1845  0.1115
29808W        W72746  25.059   4.745  31.745 -0.0558  0.1590 -0.1136
29809W        W72747  25.468   3.889  31.297  0.0662  0.1161 -0.1722
29810W        W72748  27.134   2.846   0.928 -0.1134  0.0765 -0.3287
29811W        W72749  28.703   1.670   2.272  0.0005  0.0155 -0.0632
29812W        W72750  25.328   1.581   4.784  0.0992 -0.2030  0.1361
29813W        W72751  26.200   1.994   2.999 -0.2572 -0.3294 -0.1561
29814W        W72752  25.884   2.140  31.920 -0.1153 -0.1129 -0.2821
29815W        W72753  26.350   2.878   3.210  0.2479 -0.2282  0.2695
29816W        W72754  28.937   0.249   0.850 -0.2486  0.0095  0.2110
29817W        W72755  27.607   1.695   0.245  0.4630  0.2140  0.2531
29818W        W72756  27.911   1.824   3.343  0.0029  0.0486  0.0356
29819W        W72757  28.490   1.003  31.823  0.0824  0.3045 -0.1264
29820W        W72758  28.198  34.647  31.019  0.0401  0.4785 -0.0167
29821W        W72759  27.216   1.469  31.850  0.1197  0.1304  0.0316
29822W        W72760  26.429   1.636   2.771  0.0779  0.0131  0.0837
29823W        W72761  25.950   2.270   1.291  0.0682  0.0239 -0.0035
29824W        W72762  27.204   2.268   1.499 -0.1746  0.0621 -0.0403
29825W        W72763  27.252   1.953   0.568 -0.2049 -0.0377  0.1161
29826W        W72764  28.404   3.318   0.470  0.2645  0.2827 -0.2256
29827W        W72765  26.592   1.323   1.880 -0.0040 -0.1437  0.2799
29828W        W72766  28.325   3.655   3.913  0.0009 -0.4082  0.0747
29829W        W72767  28.118   2.242   0.752  0.1228 -0.1565  0.0401
29830W        W72768  26.278  33.758   3.387 -0.0613 -0.1799 -0.0196
29831W        W72769  25.627   1.663   0.006 -0.1975  0.2279 -0.1942
29832W        W72770  27.425   1.787   1.698 -0.1247  0.2376  0.0767
29833W        W72771  25.503   4.682   0.050  0.0045  0.2225  0.2239
29834W        W72772  28.659   0.653   1.762 -0.1890  0.0269 -0.1835
29835W        W72773  28.361   1.010   2.840  0.0826 -0.0618  0.0433
29836W        W72774  26.864  34.509   3.119 -0.0421  0.0245 -0.2163
29837W        W72775  28.217   1.495   4.785  0.0494 -0.0325 -0.0502
29838W        W72776  26.184   2.937   0.692 -0.2461  0.0296 -0.0443
29839W        W72777  29.332   1.007   2.597  0.0286 -0.1393 -0.0220
29840W        W72778  26.822   3.153   0.124  0.2202 -0.1456 -0.2999
29841W        W72779  26.201   1.510   3.232  0.0778  0.4090  0.0036
29842W        W72780  26.675   0.723   2.803 -0.0858  0.0225 -0.0575
29843W        W72781  24.573   2.024   2.353  0.1209  0.0321  0.6021
29844W        W72782  28.626   2.654   3.108 -0.0774  0.0657  0.1663
29845W        W72783  27.422   1.586   2.228  0.1972 -0.0581  0.0048
29846W        W72784  25.715  34.470   3.424 -0.2750  0.0003  0.1138
29847W        W72785  28.097   0.471   0.250 -0.0874 -0.0231  0.0836
29848W        W72786  27.238   3.405   0.297 -0.1842  0.1300 -0.0517
29849W        W72787  26.349   2.518  31.738  0.0598  0.0711 -0.0229
29850W        W72788  25.721   0.686   1.252  0.0027 -0.1387 -0.4553
29851W        W72789  27.360   3.016   2.622 -0.0962 -0.1224  0.1614
29852W        W72790  26.105   4.090  30.729  0.1629  0.0422  0.0086
29853W        W72791  28.745   2.931   3.521  0.2570  0.0872 -0.2767
29854W        W72792  25.853   3.537   1.149 -0.0977 -0.1419 -0.3692
29855W        W72793  28.815   0.238   1.373  0.2376  0.0017  0.0107
29856W        W72794  26.600   2.583   3.666  0.0033  0.1060 -0.2892
29857W        W72795  27.089   1.058   0.585 -0.1163 -0.1855  0.2277
29858W        W72796  24.377   1.354  31.853  0.1524 -0.1678 -0.0506
29859W        W72797  29.709  34.550   0.610  0.0940 -0.0419 -0.3069
29860W        W72798  28.075   2.368   0.141  0.1594  0.0100  0.2788
29861W        W72799  26.744   0.771   3.325 -0.0661 -0.2788 -0.2323
29862W        W72800  28.085   1.815   1.022 -0.1490  0.3529 -0.0586
29863W        W72801  25.594   2.644   0.538 -0.1442 -0.0888 -0.0482
29864W        W72802  27.950   1.624   2.377  0.1961  0.1659  0.1294
29865W        W72803  28.306  33.753  31.087  0.3648  0.1795 -0.0775
29866W        W72804  26.712   1.671   3.204  0.1263 -0.3619 -0.0375
29867W        W72805  27.985   0.640   2.643  0.2554 -0.1266 -0.0990
29868W        W72806  26.417   0.747  31.538 -0.1936  0.2438  0.5043
29869W        W72807  28.148   0.927   3.352 -0.0675 -0.0695 -0.0965
29870W        W72808  26.682   0.869   1.354  0.2031 -0.3350  0.1213
29871W        W72809  26.823   3.753   0.407  0.1924 -0.1374 -0.0999
29872W        W72810  27.785   2.597   2.065 -0.0183  0.1603  0.1347
29873W        W72811  25.498   2.878  30.903 -0.2365 -0.3061 -0.0212
29874W        W72812  25.637   1.937   2.068  0.0302 -0.2404 -0.0824
29875W        W72813  27.098  33.289   2.498 -0.2125 -0.0712 -0.1888
29876W        W72814  29.306   1.004   1.663 -0.1529  0.0218 -0.2015
29877W        W72815  27.440   0.736   2.551  0.0217  0.1585  0.5003
29878W        W72816  26.077   1.456   1.879  0.0954  0.2522 -0.0866
29879W        W72817  27.311   0.119   1.716 -0.1522 -0.0063 -0.4086
29880W        W72818  28.526   1.921   3.269  0.2883  0.1620  0.2306
29881W        W72819  27.030   1.036   2.538 -0.4429 -0.2835  0.1640
29882W        W72820  26.916   3.259   3.837  0.3228 -0.1246  0.4493
29883W        W72821  27.296   1.595   0.881 -0.1377 -0.0909 -0.0280
29884W        W72822  29.104   2.572  31.604 -0.0570 -0.2304 -0.2538
29885W        W72823  28.619   2.269   2.701  0.0994  0.0125  0.0734
29886W        W72824  25.889   1.096   1.515  0.1985  0.0908 -0.1550
29887W        W72825  25.143   1.292   2.558  0.1103  0.0413 -0.3037
29888W        W72826  26.332   3.267   0.373 -0.1733  0.2086  0.0729
29889W        W72827  27.057   2.005   1.050  0.1445 -0.0418  0.2314
29890W        W72828  26.444   0.551   1.941 -0.0569  0.2865 -0.3790
29891W        W72829  24.091   3.506  31.555 -0.0928  0.1482 -0.0797
29892W        W72830  26.192   1.503   4.342  0.0378 -0.1064 -0.0892
29893W        W72831  28.077   0.513  31.743  0.1208 -0.4070 -0.1931
29894W        W72832  27.126   2.542  30.897 -0.1345 -0.0912  0.1766
29895W        W72833  26.660   1.337   0.390 -0.1092 -0.0933 -0.1498
29896W        W72834  29.346   1.203   2.111 -0.0637 -0.1099 -0.0136
29897W        W72835  26.814   3.648  31.430 -0.3721  0.2527 -0.3769
29898W        W72836  27.092   0.358   3.819 -0.1735  0.0077 -0.2729
29899W        W72837  25.714  34.681   4.561 -0.0012 -0.0230 -0.0255
29900W        W72838  29.112   1.365   1.265 -0.0353  0.1431  0.0988
29901W        W72839  25.835   1.609   2.906  0.2654 -0.1144  0.0393
29902W        W72840  28.878   3.789   4.623 -0.0971  0.0246  0.1028
29903W        W72841  26.119   1.858   3.937  0.1094  0.4527  0.2950
29904W        W72842  28.382   0.460   0.648  0.1376 -0.2223 -0.1149
29905W        W72843  25.425   0.359  31.346  0.0922  0.1777  0.0944
29906W        W72844  26.362   1.055   3.540 -0.0024  0.0073 -0.1973
29907W        W72845  28.159   2.247   1.880  0.1427  0.1115  0.3104
29908W        W72846  24.809   3.843  30.320  0.2659 -0.2272 -0.0328
29909W        W72847  28.376   2.063  31.925  0.1751  0.4302 -0.0358
29910W        W72848  27.010   1.479   2.834  0.3575 -0.0753  0.1092
29911W        W72849  27.132   1.846   2.542 -0.1720  0.3472  0.1179
29912W        W72850  27.880   1.937  31.851  0.0700 -0.0695 -0.1241
29913W        W72851  27.379   2.491   2.334 -0.1421 -0.3294  0.3680
29914W        W72852  24.549   0.425   4.580  0.1569  0.1014 -0.0583
29915W        W72853  28.096   1.454   3.036 -0.0067  0.4073 -0.2251
29916W        W72854  29.614   0.255   0.859  0.3383 -0.0628  0.1769
29917W        W72855  26.728  34.685   2.486 -0.1266 -0.3401  0.1784
29918W        W72856  26.936   0.039   4.169  0.0805  0.0370  0.1590
29919W        W72857  26.544   3.297   2.873  0.2363  0.1557 -0.1108
29920W        W72858  24.830   1.493   5.017 -0.2413 -0.2219 -0.0574
29921W        W72859  26.959   3.414   2.432 -0.0762  0.0160  0.1208
29922W        W72860  30.880   1.594   1.325  0.0676 -0.0928 -0.5006
29923W        W72861  28.856   1.784   2.839  0.0996 -0.4228 -0.2453
29924W        W72862  29.822   0.660   0.419  0.1927  0.1353 -0.0429
29925W        W72863  27.792   0.824   0.420 -0.4325  0.1065  0.1125
29926W        W72864  25.956   1.876   1.614 -0.1830 -0.1329  0.0162
29927W        W72865  28.035   1.803   4.371  0.0119 -0.5513 -0.0444
29928W        W72866  25.701  33.548   0.214 -0.1123 -0.0869  0.1688
29929W        W72867  28.417   0.544   3.516  0.1349 -0.5498 -0.0778
29930W        W72868  27.086   3.635  31.808  0.1731  0.0464 -0.1727
29931W        W72869  27.446   1.323   2.671 -0.0142  0.1613  0.1811
29932W        W72870  26.828   1.703   0.695 -0.3997  0.2123 -0.2347
29933W        W72871  25.486   1.062   3.104  0.2066 -0.3335 -0.0653
29934W        W72872  26.425   3.276   2.413  0.2055 -0.4735  0.0650
29935W        W72873  24.756   0.963  31.113  0.0875  0.0478 -0.1234
29936W        W72874  26.772   2.634   0.021  0.2374  0.2052  0.3107
29937W        W72875  28.139   2.205   3.024  0.4013  0.0215 -0.0386
29938W        W72876  28.539   2.312   4.409 -0.0569  0.1364  0.1941
29939W        W72877  28.500   0.844   0.374 -0.0150  0.0781  0.0551
29940W        W72878  28.683   0.844   3.267  0.1275 -0.1285  0.3681
29941W        W72879  24.902   3.904  31.829 -0.1816 -0.2792  0.1326
29942W        W72880  27.226   2.102   2.007  0.2135  0.0014 -0.3674
29943W        W72881  25.974   2.738   1.585 -0.2449 -0.0997 -0.3672
29944W        W72882  25.178   2.683   2.515  0.1283  0.0112 -0.1489
29945W        W72883  26.302   3.831   0.472 -0.1314  0.0981 -0.3032
29946W        W72884  27.076  34.597   2.144  0.0545 -0.0195 -0.0362
29947W        W72885  27.291   0.339   2.176  0.1592 -0.0393 -0.2160
29948W        W72886  27.244   2.268   2.739 -0.4499  0.3355  0.0285
29949W        W72887  28.841   1.037   2.516 -0.0346  0.0940 -0.0673
29950W        W72888  27.143   1.615   3.514 -0.1637 -0.0213 -0.1910
29951W        W72889  26.105   1.144   2.766  0.0260 -0.4307  0.0010
29952W        W72890  26.945   2.812   2.844 -0.3696 -0.0470 -0.3905
29953W        W72891  28.943   1.724   0.552  0.1547  0.2375 -0.0454
29954W        W72892  25.866   2.702   1.068  0.1777  0.0919 -0.1861
29955W        W72893  26.069   0.364   4.580 -0.2131 -0.1564 -0.0743
29956W        W72894  26.125   1.974   2.187 -0.0669 -0.1467  0.1204
29957W        W72895  28.202   1.352   0.957  0.1163  0.1939  0.0293
29958W        W72896  26.177   0.596   0.341 -0.1625  0.2673  0.0101
29959W        W72897  26.698   2.858  30.256  0.0376 -0.0653 -0.2308
29960W        W72898  25.541   3.422   1.535  0.0049  0.1355 -0.1011
29961W        W72899  26.810   2.036   2.858  0.0536 -0.1538  0.0163
29962W        W72900  25.289   3.516   1.142 -0.1169 -0.2097 -0.1921
29963W        W72901  27.675   2.746   0.714 -0.2197 -0.3640  0.0521
29964W        W72902  26.340   2.583   1.175  0.0472  0.0490  0.0186
29965W        W72903  27.865   2.857   1.644  0.2621 -0.1412 -0.2696
29966W        W72904  27.324   2.419  31.520  0.1400 -0.2783 -0.3144
29967W        W72905  26.373   1.368   1.423 -0.1166 -0.0947 -0.1796
29968W        W72906  24.671   2.826   0.785  0.1827  0.0176  0.2341
29969W        W72907  27.435   2.953  31.084  0.2630 -0.0063 -0.1388
29970W        W72908  25.633   3.171   0.857  0.0902  0.3205 -0.0763
29971W        W72909  28.676   4.525   3.665  0.0652  0.0231 -0.0411
29972W        W72910  29.306  34.290  31.628 -0.4798 -0.0549  0.1440
29973W        W72911  29.283   1.673   2.029 -0.1029 -0.4963 -0.1096
29974W        W72912  29.692   0.508  31.875 -0.0568  0.1746 -0.1894
29975W        W72913  28.289   2.693   3.910 -0.1315 -0.0810  0.1789
29976W        W72914  26.948   1.711   1.918  0.2622  0.2468 -0.0267
29977W        W72915  27.092   0.184   0.133 -0.0393 -0.0756  0.0951
29978W        W72916  25.798   0.630   4.277  0.3656  0.1118 -0.0217
29979W        W72917  27.802  34.459   3.335  0.2719  0.0125 -0.1533
29980W        W72918  24.953   2.232   2.620  0.1273  0.0254 -0.0061
29981W        W72919  28.908   3.221   0.690  0.0823  0.1980 -0.2071
29982W        W72920  26.475   1.062   0.072  0.1237 -0.0601  0.0644
29983W        W72921  25.729   1.907   0.812  0.1730  0.1064  0.0702
29984W        W72922  27.654   0.285   2.554  0.1121  0.1257  0.0075
29985W        W72923  26.375   2.320   0.221 -0.1427  0.2208 -0.1584
29986W        W72924  28.329   1.075   1.729 -0.1654 -0.1034  0.3053
29987W        W72925  27.030   2.780  31.504 -0.1646 -0.3436  0.0476
29988W        W72926  25.606   2.647   3.168  0.0361 -0.0134  0.2202
29989W        W72927  26.037   3.268   1.619  0.0731  0.0956 -0.0788
29990W        W72928  25.589   0.164   1.052  0.2554  0.2286  0.0670
29991W        W72929  29.638   1.732   1.243  0.1744 -0.0366 -0.1321
29992W        W72930  26.365   1.155   4.044  0.1864 -0.1041  0.0436
29993W        W72931  29.668   0.530   3.433 -0.1511  0.2401 -0.1385
29994W        W72932  26.152   0.939   2.011  0.0846 -0.0144 -0.0101
29995W        W72933  28.072   0.924   1.339  0.4938  0.2303  0.3710
29996W        W72934  26.235   2.926   1.967  0.1187 -0.0073  0.1656
29997W        W72935  25.791   2.132   3.168 -0.2714  0.0175 -0.1745
29998W        W72936  26.615   2.084   1.380  0.0085 -0.0384 -0.1095
29999W        W72937  28.187   2.246   4.754  0.1786 -0.1346  0.0197
30000W        W72938  26.961   1.967  31.973  0.1827 -0.0396 -0.0431
30001W        W72939  27.793   2.830   2.508 -0.2775 -0.0149  0.0800
30002W        W72940  25.760   0.724   1.835  0.0075  0.6082  0.0860
30003W        W72941  28.118   0.973   0.122 -0.0765 -0.0238 -0.0396
30004W        W72942  25.946   3.499   0.607 -0.0508 -0.0993 -0.1369
30005W        W72943  25.318   0.746   4.228  0.3390  0.0444 -0.0836
30006W        W72944  27.662   2.213   3.193  0.0085 -0.2346  0.0872
30007W        W72945  26.552   0.338   1.394 -0.1140 -0.1644 -0.1531
30008W        W72946  28.120   3.350  31.916 -0.1065 -0.0731  0.2001
30009W        W72947  27.792   0.470   1.645 -0.0231  0.0595  0.0332
30010W        W72948  27.774   4.121  30.347 -0.0155  0.1991  0.0327
30011W        W72949  28.092   1.409   1.466 -0.0088 -0.1834 -0.0649
30012W        W72950  27.596   2.607   2.905  0.0339 -0.1055  0.3359
30013W        W72951  26.010   0.273   3.923  0.0665  0.0442  0.2040
30014W        W72952  28.856   1.892   1.805  0.2224  0.0742 -0.2376
30015W        W72953  30.049   2.630   1.298  0.3702 -0.2375  0.2538
30016W        W72954  26.651   0.858   0.511  0.3759  0.0930 -0.1963
30017W        W72955  25.357   2.201   2.338 -0.0732  0.4350 -0.4000
30018W        W72956  26.320   4.363  31.623 -0.1089 -0.1953 -0.2134
30019W        W72957  28.999   0.757   2.119  0.0247 -0.3020  0.0662
30020W        W72958  27.762   1.205   3.455  0.0083 -0.1953 -0.0259
30021W        W72959  26.573   3.507  31.043 -0.0509  0.0337 -0.2211
30022W        W72960  28.284   0.532   2.984 -0.1092 -0.1441 -0.0681
30023W        W72961  26.491   3.769   3.129 -0.1087  0.0468 -0.0292
30024W        W72962  26.625   3.705   2.643  0.3119 -0.3008 -0.3341
30025W        W72963  25.618   3.313  31.799  0.2333  0.1545 -0.2197
30026W        W72964  26.626   1.520   4.763 -0.0134 -0.0756  0.3255
30027W        W72965  26.262   1.874   1.184  0.1371 -0.0870 -0.1324
30028W        W72966  26.550   3.543  31.923 -0.0416  0.0529  0.1861
30029W        W72967  28.619   3.164   1.966  0.2493 -0.0411 -0.4841
30030W        W72968  27.593   0.670  31.913 -0.0844  0.1332  0.1787
30031W        W72969  28.877   2.072   0.124 -0.0954  0.0972 -0.3724
30032W        W72970  25.611   1.085   0.773 -0.2264 -0.2410  0.0567
30033W        W72971  29.171  32.920   2.239  0.0303 -0.2479  0.3121
30034W        W72972  28.402  34.486  31.552  0.0116  0.4929 -0.0185
30035W        W72973  26.566   2.397   3.184  0.0385 -0.3308 -0.1553
30036W        W72974  24.896   0.578  31.467  0.1811 -0.1319  0.2892
30037W        W72975  24.939   3.866  31.318  0.1595 -0.1624  0.1291
30038W        W72976  25.339   2.195   0.911 -0.0991  0.2202  0.0408
30039W        W72977  27.629   0.567   3.984 -0.1052  0.2347  0.1138
30040W        W72978  25.742   1.113   4.189  0.0858  0.0641 -0.0400
30041W        W72979  25.832   1.493   1.094 -0.1126 -0.1968  0.0343
30042W        W72980  26.245   1.503   0.181  0.2458 -0.0980 -0.1972
30043W        W72981  29.927   2.093  31.362 -0.2511 -0.0259 -0.5504
30044W        W72982  26.519  34.645   1.846 -0.1233  0.1086 -0.2587
30045W        W72983  25.069   1.777   2.315 -0.2212 -0.3097 -0.0406
30046W        W72984  27.822   2.703  31.372 -0.0529  0.1186 -0.3799
30047W        W72985  28.471   2.919   0.742  0.0997 -0.2451 -0.3727
30048W        W72986  27.183   1.107   1.191 -0.0827  0.2688 -0.3456
30049W        W72987  29.076   2.216   2.922 -0.1929 -0.1844 -0.0115
30050W        W72988  24.313   2.468   0.535 -0.0689  0.1297 -0.0959
30051W        W72989  26.793   2.588   4.564  0.1593  0.2092  0.1129
30052W        W72990  26.711   0.818   3.823 -0.2329 -0.3293  0.5711
30053W        W72991  28.022   1.057  31.589 -0.1236 -0.0799 -0.3874
30054W        W72992  28.307   1.629   1.974 -0.0979 -0.2783 -0.2929
30055W        W72993  26.836   3.808   0.969  0.0588 -0.0281  0.1074
30056W        W72994  27.090   3.344  30.925 -0.2944 -0.0528  0.2347
30057W        W72995  27.231   1.836   3.074 -0.1172  0.3118  0.1553
30058W        W72996  27.037   3.301   2.902  0.0611  0.0564  0.1958
30059W        W72997  24.995   0.778   2.852 -0.0086 -0.3247  0.1399
30060W        W72998  27.246   2.406   0.726 -0.2967 -0.1127 -0.0490
30061W        W72999  25.851   2.690   3.745  0.4055 -0.2841 -0.0722
30062W        W73000  28.583   1.693  31.619 -0.0726 -0.1105 -0.1798
30063W        W73001  29.374   1.330   3.297  0.1562 -0.1578 -0.2829
30064W        W73002  27.756   1.720   0.732  0.1153  0.1059 -0.0495
30065W        W73003  25.882  34.039   3.210  0.4831 -0.0603 -0.5092
30066W        W73004  26.400   2.246   2.592 -0.2085 -0.0169  0.1479
30067W        W73005  29.832   2.170   1.483  0.0192  0.1206 -0.1846
30068W        W73006  27.332   0.686   1.819 -0.3109  0.0576 -0.0383
30069W        W73007  28.651   1.904  31.081 -0.0061 -0.0000  0.0491
30070W        W73008  27.500   3.353  31.855 -0.0811  0.0833 -0.3153
30071W        W73009  25.834   0.502   3.467 -0.0006 -0.3308 -0.3383
30072W        W73010  27.489   0.223  31.664 -0.0355  0.2418  0.0116
30073W        W73011  27.020   2.418   3.802  0.2171  0.0468 -0.1196
30074W        W73012  26.297   2.370   1.696  0.0555 -0.1082  0.1434
30075W        W73013  29.060   2.855   4.846 -0.1329 -0.3050 -0.0749
30076W        W73014  25.659   1.257  31.585  0.2410 -0.1878  0.1100
30077W        W73015  28.777   0.797  30.448 -0.0942  0.1087 -0.3209
30078W        W73016  28.254   2.767   3.437  0.0688  0.0487  0.1179
30079W        W73017  27.435   4.099   3.983  0.2806  0.0340  0.1647
30080W        W73018  26.739   2.196   1.899 -0.2137  0.1751 -0.0657
30081W        W73019  27.329   0.979   3.535  0.1336  0.0374 -0.0877
30082W        W73020  25.030   0.475   3.682  0.1016  0.2019 -0.3090
30083W        W73021  25.951   2.392   0.703  0.0216 -0.0245  0.2274
30084W        W73022  26.479   1.084   2.442  0.1693 -0.1701 -0.3564
30085W        W73023  27.437   1.366   3.132  0.0260  0.1186  0.1453
30086W        W73024  26.838   0.606   2.300  0.0312  0.0339  0.1793
30087W        W73025  27.491   0.151   1.251 -0.1099  0.1501  0.2148
30088W        W73026  25.859   3.041   3.308 -0.1892 -0.1595 -0.0020
30089W        W73027  26.556   2.789   0.451  0.2965  0.2152  0.1694
30090W        W73028  26.789   3.329   6.364 -0.0149 -0.1161  0.1017
30091W        W73029  27.377   1.764   4.771 -0.2745 -0.0559 -0.2392
30092W        W73030  28.518   1.032   4.105  0.1326  0.0947 -0.0700
30093W        W73031  28.385   1.323   2.494 -0.4177  0.1238  0.4353
30094W        W73032  23.934  34.382   6.522 -0.0793 -0.1040  0.1274
30095W        W73033  27.579   1.381   4.458  0.0121  0.0084  0.2938
30096W        W73034  26.279  34.495   6.485 -0.1337 -0.0142  0.1417
30097W        W73035  28.292   2.851   5.974 -0.2546  0.1669 -0.2962
30098W        W73036  28.040   3.071   6.398  0.1229  0.0472  0.2101
30099W        W73037  26.832   2.920   2.380 -0.1693  0.0840  0.1529
30100W        W73038  28.991   1.810   5.539  0.6618  0.1690  0.2142
30101W        W73039  27.097   4.072   6.720  0.2947  0.2502 -0.0937
30102W        W73040  26.759  34.425   5.008 -0.0719 -0.2635  0.3541
30103W        W73041  26.136  33.979   5.607 -0.1972 -0.1081 -0.0358
30104W        W73042  28.926   1.311   5.395 -0.2264  0.0125  0.3780
30105W        W73043  26.344   2.646   5.730  0.1214  0.2727  0.1205
30106W        W73044  26.897   1.754   6.554  0.1709  0.2729  0.0551
30107W        W73045  26.265   2.864   4.088 -0.1653  0.2791 -0.1700
30108W        W73046  26.581   3.999   4.952  0.0019  0.0847  0.0278
30109W        W73047  26.576   0.122   6.034 -0.1070  0.1723  0.0649
30110W        W73048  26.981   0.750   7.182  0.1484  0.1226 -0.1601
30111W        W73049  27.375   2.755   4.396 -0.0471  0.0289 -0.0225
30112W        W73050  25.275   2.089   4.908 -0.0448  0.1752  0.0542
30113W        W73051  26.491   2.331   4.902 -0.0320 -0.0894  0.3286
30114W        W73052  26.988   1.458   7.033 -0.2602 -0.2101  0.3330
30115W        W73053  27.207   1.186   4.694  0.1507 -0.3176  0.0055
30116W        W73054  28.582   2.929   5.135  0.0524  0.2115  0.2648
30117W        W73055  27.680   2.896   5.672 -0.1337  0.4845  0.0285
30118W        W73056  27.476   3.292   5.174  0.0354  0.0919  0.1624
30119W        W73057  28.985   0.156   7.543  0.1252 -0.2548 -0.2910
30120W        W73058  25.697   3.633   5.865 -0.0446 -0.0573  0.2198
30121W        W73059  25.179   5.225   5.609 -0.3254  0.1683 -0.1342
30122W        W73060  25.752   3.191   3.851 -0.0981 -0.3293 -0.0951
30123W        W73061  29.319   3.644   4.342  0.0587 -0.2203  0.1054
30124W        W73062  29.136   3.330   6.315 -0.1974  0.1488 -0.0193
30125W        W73063  27.469   3.686   7.480 -0.2420  0.1460  0.1462
30126W        W73064  25.206   4.201   4.085 -0.0222  0.1737 -0.2412
30127W        W73065  27.452   4.150   7.161  0.0397 -0.0707 -0.3656
30128W        W73066  27.877   3.842   7.090 -0.0717 -0.2198  0.1346
30129W        W73067  27.256   1.742   5.717  0.0263  0.2615 -0.0430
30130W        W73068  26.914   2.678   5.536 -0.2186 -0.0299  0.2933
30131W        W73069  26.016   4.112   3.007 -0.2148 -0.2144 -0.1251
30132W        W73070  27.731   2.676   4.737  0.2079  0.1811  0.0841
30133W        W73071  28.358   2.595   7.258 -0.2409  0.6533 -0.1866
30134W        W73072  25.661   3.849   4.674  0.2297  0.1348 -0.2250
30135W        W73073  28.078   1.073   6.379 -0.1439 -0.1005  0.0442
30136W        W73074  25.289   3.433   2.820  0.2287  0.0421 -0.0084
30137W        W73075  28.066   0.851   3.874 -0.4033 -0.1605  0.1966
30138W        W73076  26.987   0.116   4.673  0.0983  0.0062 -0.1156
30139W        W73077  27.598   1.093   3.935 -0.0894 -0.2274  0.0972
30140W        W73078  26.195   0.141   5.721 -0.3071 -0.0324 -0.0729
30141W        W73079  26.961   3.892   5.741 -0.0990 -0.1943  0.1230
30142W        W73080  26.328   1.852   6.257  0.2843 -0.0818 -0.1963
30143W        W73081  28.876   2.924   6.043  0.0784 -0.2137 -0.0084
30144W        W73082  27.234   2.876   5.018  0.2033  0.2641  0.0096
30145W        W73083  28.239   0.994   5.870  0.0866 -0.0176 -0.0961
30146W        W73084  24.492   2.818   6.680  0.1051 -0.1702 -0.4218
30147W        W73085  25.182   1.259   5.668 -0.1956 -0.1625  0.0613
30148W        W73086  27.903   4.041   4.741 -0.0781  0.1116  0.2295
30149W        W73087  29.529   3.214   4.518  0.1515  0.1225 -0.1103
30150W        W73088  26.351   4.292   2.663 -0.2767 -0.1979 -0.0214
30151W        W73089  24.592  34.006   5.348  0.2246 -0.1767  0.0059
30152W        W73090  26.109   2.183   6.552  0.1230  0.2008  0.0013
30153W        W73091  25.947   1.578   6.436  0.1717  0.0963 -0.1333
30154W        W73092  25.685  34.098   5.821 -0.1030 -0.2366  0.0819
30155W        W73093  28.088   1.597   6.874 -0.1577 -0.2364  0.0484
30156W        W73094  27.061   3.095   7.631 -0.2058  0.1829  0.0784
30157W        W73095  27.805  34.378   5.600 -0.1299  0.0340 -0.3277
30158W        W73096  26.906   3.775   6.243 -0.0446  0.2319  0.1614
30159W        W73097  28.569   0.990   5.476  0.1893  0.0965 -0.1415
30160W        W73098  27.931   2.322   4.264 -0.0671 -0.1145  0.1986
30161W        W73099  28.416   0.572   4.737 -0.1390 -0.2578 -0.2159
30162W        W73100  27.338  33.722   5.580  0.0297  0.0022  0.3868
30163W        W73101  25.113   2.600   3.039 -0.0940  0.0789  0.0892
30164W        W73102  26.475   1.556   3.722 -0.1149 -0.1950 -0.1671
30165W        W73103  28.108   3.416   5.989 -0.1865  0.0455 -0.0658
30166W        W73104  28.738   1.397   4.739  0.0437  0.1825  0.0533
30167W        W73105  26.585   4.116   5.511  0.1704 -0.3320 -0.0646
30168W        W73106  26.436   1.402   6.363 -0.1062  0.1579  0.2080
30169W        W73107  27.953   3.463   7.552 -0.2900  0.1646  0.2936
30170W        W73108  25.925   3.056   2.388  0.0969 -0.0569  0.3106
30171W        W73109  25.773   3.378   5.349 -0.1210 -0.0492 -0.2932
30172W        W73110  25.616   2.456   2.703 -0.0243 -0.2509  0.0270
30173W        W73111  25.231  34.322   5.928  0.3191 -0.1028  0.0187
30174W        W73112  26.511   3.608   5.356 -0.0393  0.1466 -0.1848
30175W        W73113  28.344   0.101   4.501  0.1799 -0.3469  0.3305
30176W        W73114  26.246  34.559   7.566  0.1184  0.1247 -0.1207
30177W        W73115  27.607   0.017   4.735  0.0450 -0.1441 -0.0720
30178W        W73116  25.898   2.439   5.628 -0.3233  0.1077 -0.0279
30179W        W73117  28.411   4.521   5.119  0.0443  0.0324  0.1051
30180W        W73118  28.904   3.108   4.404  0.1507  0.0476 -0.1444
30181W        W73119  26.853   2.859   3.329  0.0267 -0.0779  0.1716
30182W        W73120  25.677   2.031   6.327 -0.1228  0.2107  0.1780
30183W        W73121  26.223   0.373   5.260 -0.0564  0.2173 -0.0538
30184W        W73122  25.686   1.074   5.811  0.1668  0.1252 -0.0699
30185W        W73123  26.628   0.981   6.184 -0.0756  0.1795  0.1713
30186W        W73124  27.386   1.791   6.213  0.0216  0.1963 -0.6227
30187W        W73125  25.652  34.692   5.896 -0.3247  0.0573 -0.1481
30188W        W73126  28.082   0.689   4.350  0.2182  0.4100  0.0217
30189W        W73127  27.450   1.305   5.535 -0.1613 -0.0935 -0.0100
30190W        W73128  25.387   2.474   3.995 -0.2361 -0.0391  0.3477
30191W        W73129  28.946   1.633   6.005  0.0068 -0.0270  0.1023
30192W        W73130  27.366   4.281   5.548  0.0073  0.2585  0.0007
30193W        W73131  28.836   3.183   6.682  0.1776  0.0697 -0.1662
30194W        W73132  27.878   3.985   4.168 -0.0604  0.2354  0.0667
30195W        W73133  26.087   0.861   5.572 -0.0713 -0.1823 -0.0914
30196W        W73134  26.143   2.363   4.455  0.3551  0.1631  0.1870
30197W        W73135  26.262   4.012   4.567 -0.0878  0.1330  0.0742
30198W        W73136  25.829   0.578   5.027  0.0476  0.0898  0.1705
30199W        W73137  29.918   2.770   3.973  0.1413 -0.2037  0.0984
30200W        W73138  27.379   2.294   4.746  0.2136  0.5740  0.0439
30201W        W73139  27.348   2.730   6.008 -0.0757  0.0038  0.0674
30202W        W73140  26.986   1.173   7.490  0.2262  0.2158  0.6669
30203W        W73141  29.408   1.825   6.715 -0.0706 -0.2079 -0.0523
30204W        W73142  28.378   1.439   5.658 -0.0081 -0.1597  0.0806
30205W        W73143  26.317   1.887   4.618 -0.0192 -0.1741 -0.1105
30206W        W73144  27.034   3.762   3.223 -0.3015 -0.2925  0.1377
30207W        W73145  25.741   4.710   5.039 -0.3006 -0.2380 -0.4270
30208W        W73146  25.312   0.166   5.182 -0.1665  0.1469 -0.1348
30209W        W73147  28.340   3.341   4.448  0.1735 -0.0706 -0.1158
30210W        W73148  27.656   0.274   6.488  0.0475 -0.0449  0.0484
30211W        W73149  25.683   2.518   6.548 -0.0294  0.2391  0.0438
30212W        W73150  28.503   1.396   6.232  0.1811  0.3249 -0.3102
30213W        W73151  25.735   2.203   4.200  0.0307  0.0170  0.0244
30214W        W73152  26.437   3.782   6.403  0.2351 -0.2325 -0.2510
30215W        W73153  27.494   0.897   4.399  0.0883 -0.2592  0.0944
30216W        W73154  29.475   0.432   4.564  0.4423 -0.2250 -0.1673
30217W        W73155  27.283   2.767   6.584  0.1195  0.0180  0.2270
30218W        W73156  28.576   1.880   4.766  0.1939 -0.2666 -0.2644
30219W        W73157  26.553   0.241   3.249 -0.0658 -0.2643  0.3139
30220W        W73158  26.286   0.699   4.185 -0.2991 -0.3364  0.1638
30221W        W73159  26.198   2.865   7.976  0.0456  0.3554 -0.0341
30222W        W73160  27.945   2.376   5.635  0.0020  0.0392 -0.1266
30223W        W73161  26.899   1.971   6.037 -0.0594  0.3305 -0.0125
30224W        W73162  27.145   0.468   3.315  0.5550 -0.1786 -0.0341
30225W        W73163  28.578   3.158   3.977  0.2095  0.0358 -0.1907
30226W        W73164  26.288   4.150   6.793 -0.1271  0.1052  0.3616
30227W        W73165  29.288   3.105   7.061 -0.0329  0.2282  0.1065
30228W        W73166  28.111   2.771   4.368  0.1202 -0.2360 -0.0217
30229W        W73167  26.745  34.290   5.841  0.2465 -0.0352 -0.1585
30230W        W73168  26.582   1.794   4.196  0.1869 -0.2739 -0.2365
30231W        W73169  26.492   0.532   4.835 -0.1087 -0.3067  0.1846
30232W        W73170  25.642   3.953   3.378  0.0218  0.1581 -0.2877
30233W        W73171  28.448   0.322   5.452  0.1847 -0.1334 -0.0254
30234W        W73172  27.628   0.309   5.178  0.0311  0.2306 -0.0488
30235W        W73173  27.049   0.097   5.887  0.1144 -0.0202 -0.3454
30236W        W73174  27.618   0.573   6.912  0.1031  0.0443  0.0503
30237W        W73175  27.896   1.035   4.673  0.0416 -0.1008  0.2446
30238W        W73176  27.582   2.341   6.199  0.2878 -0.3397  0.1862
30239W        W73177  26.194   2.660   5.188 -0.0991  0.2459  0.0361
30240W        W73178  27.431   0.019   5.542  0.1244  0.1072 -0.4703
30241W        W73179  26.000   1.576   5.880  0.0958  0.0737  0.2519
30242W        W73180  25.883   3.921   6.572  0.0473 -0.1105  0.2070
30243W        W73181  28.614   3.027   5.613 -0.1809 -0.2517  0.2486
30244W        W73182  27.832   1.731   3.944  0.0228  0.0329 -0.2003
30245W        W73183  27.399   1.698   6.852  0.0314  0.0127  0.1032
30246W        W73184  27.401   0.383   4.409 -0.2434 -0.1052 -0.2046
30247W        W73185  26.317   3.120   3.688 -0.1171  0.0539 -0.0132
30248W        W73186  25.933   3.193   4.409  0.3288  0.3358  0.1414
30249W        W73187  26.876  33.890   5.527 -0.1204  0.2245 -0.3510
30250W        W73188  26.466   4.528   7.901  0.3169  0.0302 -0.1439
30251W        W73189  26.795   4.150   2.986  0.1351 -0.1177 -0.2852
30252W        W73190  27.983   1.997   6.328 -0.0819 -0.2291  0.1435
30253W        W73191  25.400   4.349   4.643  0.1349 -0.3597 -0.0552
30254W        W73192  28.759  34.619   5.693  0.3487  0.2277 -0.1577
30255W        W73193  26.664   4.218   5.990 -0.0092 -0.4893  0.0462
30256W        W73194  26.145   1.400   4.813 -0.4334 -0.0367  0.0956
30257W        W73195  25.563   2.103   5.359  0.1051  0.3396  0.0677
30258W        W73196  27.992   0.146   5.501  0.0824 -0.4962  0.0901
30259W        W73197  28.659   1.690   3.738 -0.0135  0.2042 -0.0357
30260W        W73198  26.263   0.557   6.412  0.5149 -0.2011 -0.0242
30261W        W73199  26.935   2.121   5.462 -0.1865  0.0974 -0.5053
30262W        W73200  26.604   3.338   7.233 -0.0457  0.4727  0.0233
30263W        W73201  27.948   1.420   6.025  0.0054 -0.1294  0.0971
30264W        W73202  28.304  34.423   3.551 -0.2956 -0.1288  0.4235
30265W        W73203  28.626   1.893   6.908  0.0012  0.0564 -0.2114
30266W        W73204  27.412   2.425   7.050  0.2143 -0.1456 -0.2529
30267W        W73205  24.727   0.306   5.096  0.1024 -0.0909 -0.0558
30268W        W73206  28.663   2.029   5.260  0.0349 -0.0462  0.2161
30269W        W73207  26.786   1.539   5.620 -0.3080 -0.2810 -0.3248
30270W        W73208  26.246   3.167   5.095 -0.0744  0.0358 -0.2673
30271W        W73209  28.930   2.594   5.611 -0.5381  0.2161 -0.0394
30272W        W73210  26.632   2.804   4.961 -0.1807  0.5000 -0.2850
30273W        W73211  27.566   3.170   6.221  0.0443  0.4309  0.0572
30274W        W73212  26.575   0.000   8.462  0.2496 -0.0387  0.0550
30275W        W73213  29.174   2.456   6.513 -0.1645  0.0323 -0.1145
30276W        W73214  26.990   0.203   7.125 -0.0561  0.1056 -0.1483
30277W        W73215  27.116   1.052   5.258  0.0874 -0.0168  0.0447
30278W        W73216  27.910   1.640   5.489 -0.0483  0.0119  0.1320
30279W        W73217  29.357   2.986   5.709 -0.0628 -0.1421  0.0094
30280W        W73218  27.014   1.111   5.717  0.1666 -0.2228 -0.0026
30281W        W73219  27.548   3.152   7.483 -0.0354 -0.0829 -0.0472
30282W        W73220  27.284  34.653   5.087  0.3030 -0.1178 -0.0473
30283W        W73221  28.919   3.343   3.200  0.2028 -0.0719  0.2192
30284W        W73222  28.268   1.082   6.856 -0.0635  0.3450 -0.2134
30285W        W73223  26.393   2.032   3.574 -0.2622 -0.0012  0.0344
30286W        W73224  25.038   3.024   6.594 -0.2140  0.2012 -0.1977
30287W        W73225  26.162   3.683   4.994 -0.0428 -0.2439  0.1626
30288W        W73226  28.099   0.708   5.121 -0.1027 -0.0942  0.1150
30289W        W73227  26.066   3.264   7.147  0.1578  0.0804 -0.1416
30290W        W73228  26.283   2.835   4.612 -0.0349  0.0900 -0.0129
30291W        W73229  26.802   3.572   7.725 -0.0616  0.1477  0.1177
30292W        W73230  28.034   0.207   3.396  0.2004  0.5192 -0.0252
30293W        W73231  27.727   2.762   3.516 -0.0543 -0.1600  0.4491
30294W        W73232  27.880   1.846   4.850 -0.0198  0.0543  0.0387
30295W        W73233  28.330   0.315   5.956  0.3183  0.1116  0.2479
30296W        W73234  26.850   1.233   3.467  0.0676  0.0754 -0.3077
30297W        W73235  26.942   0.570   6.303 -0.3212 -0.2284  0.0788
30298W        W73236  25.475  34.107   7.333  0.2139  0.0679 -0.0945
30299W        W73237  28.438   2.396   5.526  0.3025 -0.2537  0.2952
30300W        W73238  25.601   1.065   6.878 -0.2002  0.3448 -0.2514
30301W        W73239  27.977   3.672   8.386  0.1474  0.1193 -0.0569
30302W        W73240  25.622   2.332   7.043 -0.2538  0.5111  0.2021
30303W        W73241  26.341   0.045   4.879  0.0346  0.0598 -0.1842
30304W        W73242  26.388   1.797   5.161  0.1600 -0.1888 -0.0537
30305W        W73243  26.066   1.140   6.626  0.0016 -0.1391  0.1126
30306W        W73244  28.157   2.858   4.932 -0.0103  0.3011 -0.0659
30307W        W73245  26.478   3.793   4.125 -0.1000 -0.0528 -0.0635
30308W        W73246  27.455   0.755   5.705  0.1618 -0.1471  0.1589
30309W        W73247  28.040   2.479   6.463 -0.0490 -0.0913  0.0734
30310W        W73248  27.620   1.367   5.002 -0.2005 -0.0852  0.0112
30311W        W73249  27.489   2.421   4.026 -0.0204 -0.0762 -0.0766
30312W        W73250  27.105   1.570   5.193  0.1714  0.0195  0.0641
30313W        W73251  26.820   1.116   6.643  0.2927 -0.0605  0.0973
30314W        W73252  29.072   1.737   3.337  0.2117  0.1001 -0.0814
30315W        W73253  26.616   0.351   5.548  0.2449 -0.1323  0.0362
30316W        W73254  28.969   2.022   6.548  0.2080  0.0374 -0.1040
30317W        W73255  27.302   1.256   6.514  0.2320 -0.2844  0.3241
30318W        W73256  26.535   1.031   5.606 -0.0728 -0.1670  0.2560
30319W        W73257  26.087   0.158   8.595 -0.0400 -0.0595  0.0867
30320W        W73258  28.375   4.698   6.920 -0.1284 -0.0449  0.0835
30321W        W73259  27.365   2.018   3.722 -0.3397 -0.3098  0.1091
30322W        W73260  28.499   1.030   5.000  0.1005  0.3005 -0.1219
30323W        W73261  29.488   2.020   5.181 -0.1245 -0.0054 -0.1193
30324W        W73262  26.903   1.274   3.974  0.3367 -0.0597 -0.2510
30325W        W73263  25.317   2.355   6.214  0.1921  0.2436 -0.2228
30326W        W73264  28.456   2.080   7.340 -0.2042  0.0431 -0.2245
30327W        W73265  25.388   1.168   5.185 -0.3674  0.1701 -0.0570
30328W        W73266  27.922   0.585   6.129  0.1241  0.0135  0.1955
30329W        W73267  27.132   3.687   3.909 -0.2736  0.1102 -0.1800
30330W        W73268  28.243   1.958   5.717  0.1066  0.0743  0.1541
30331W        W73269  28.077   0.352   3.853 -0.0244 -0.1378 -0.4235
30332W        W73270  24.576  34.629   7.155  0.3709  0.0968 -0.1967
30333W        W73271  26.005   3.436   8.119 -0.0258 -0.0355  0.3146
30334W        W73272  25.714   1.628   4.142 -0.0060  0.1071  0.1426
30335W        W73273  26.852   1.931   3.795 -0.1750  0.1206  0.0904
30336W        W73274  27.717   3.414   5.586 -0.0096  0.1620  0.1351
30337W        W73275  29.415   1.290   7.887 -0.2835  0.2303 -0.0824
30338W        W73276  26.235  33.549   4.302  0.0019 -0.0231  0.1319
30339W        W73277  29.154   0.155   6.764  0.2031  0.0205  0.0199
30340W        W73278  25.166   3.870   4.987 -0.1446 -0.1308  0.0634
30341W        W73279  27.184  34.139   5.233  0.2927  0.0929 -0.0019
30342W        W73280  27.095   4.314   6.244  0.0969 -0.1439 -0.0323
30343W        W73281  26.031   2.896   6.490 -0.3417  0.3216  0.1043
30344W        W73282  26.752   3.412   5.817 -0.3257  0.4083 -0.4862
30345W        W73283  26.161  34.281   5.012  0.0259 -0.0462  0.1715
30346W        W73284  28.545   1.546   5.165 -0.1405 -0.0133 -0.1273
30347W        W73285  27.271   2.267   5.840 -0.0511  0.2664 -0.0103
30348W        W73286  29.566   0.890   5.698  0.4328  0.2903 -0.2024
30349W        W73287  27.658   2.156   6.668  0.0396  0.1311  0.0618
30350W        W73288  26.809   2.716   6.385 -0.2808 -0.0659  0.0765
30351W        W73289  27.565   4.100   5.943 -0.3005 -0.1397 -0.0826
30352W        W73290  29.285   1.430   4.596 -0.3390  0.3156 -0.0926
30353W        W73291  26.213   3.350   5.702 -0.0685 -0.1438 -0.0275
30354W        W73292  25.583   1.474   6.092 -0.2709 -0.4418 -0.4963
30355W        W73293  27.682   1.976   7.143  0.3779  0.0439  0.0238
30356W        W73294  27.451   1.940   4.313  0.1368 -0.1700  0.0318
30357W        W73295  26.172  33.898   6.088  0.1503 -0.4547 -0.2558
30358W        W73296  26.958   2.140   3.345 -0.4224 -0.1506 -0.0748
30359W        W73297  26.813   2.716   7.885 -0.1125  0.0132 -0.0869
30360W        W73298  26.433   3.798   5.865 -0.0043  0.2826 -0.0608
30361W        W73299  25.814   4.287   3.734 -0.0882  0.1722 -0.0575
30362W        W73300  27.422   3.460   4.690 -0.1160 -0.0236 -0.3683
30363W        W73301  28.092   3.219   4.011  0.0655  0.0370 -0.1638
30364W        W73302  27.929   3.317   4.929 -0.2925 -0.1033  0.0016
30365W        W73303  27.027   1.607   4.419  0.0812 -0.0711  0.5863
30366W        W73304  25.448   3.090   4.542  0.0890 -0.0991 -0.0393
30367W        W73305  25.544   2.978   2.749  0.0896  0.3159 -0.4428
30368W        W73306  27.619   3.360   3.749  0.0126 -0.3141 -0.3293
30369W        W73307  27.003   4.153   3.801 -0.0663 -0.1146  0.0094
30370W        W73308  28.292   2.363   6.016  0.1066  0.2715 -0.1001
30371W        W73309  27.267  34.490   3.499  0.1548  0.0005 -0.0577
30372W        W73310  28.046   1.186   5.282 -0.1832  0.0693 -0.1129
30373W        W73311  29.474   0.337   5.746  0.4126  0.0171  0.0674
30374W        W73312  27.810   3.513   6.545  0.0497  0.1099  0.2172
30375W        W73313  27.445   1.315   6.001 -0.1310  0.1919  0.0732
30376W        W73314  26.349   0.561   3.569 -0.0518  0.1036 -0.1125
30377W        W73315  26.373   2.503   6.252  0.2305  0.0740 -0.3599
30378W        W73316  29.467  34.639   7.773 -0.0038 -0.1877 -0.0978
30379W        W73317  26.188   2.873   7.461 -0.0450 -0.2042 -0.2276
30380W        W73318  28.335   4.272   5.557  0.3258  0.2919  0.0585
30381W        W73319  26.288   0.861   5.111  0.0333 -0.2719 -0.1578
30382W        W73320  26.864   3.202   5.122  0.1995 -0.1053  0.2843
30383W        W73321  28.469  34.551   6.257  0.0226  0.0915 -0.0224
30384W        W73322  26.573   2.347   4.130 -0.1304 -0.1079  0.0100
30385W        W73323  28.998   1.735   5.055 -0.1235  0.0872  0.2179
30386W        W73324  26.565   3.043   5.508 -0.2897  0.6253  0.0847
30387W        W73325  26.965   2.954   5.958 -0.0018 -0.0383 -0.1620
30388W        W73326  27.373   3.812   6.354 -0.2805  0.3890  0.0945
30389W        W73327  25.983   0.154   6.242  0.2187 -0.1114 -0.0330
30390W        W73328  30.360   2.302   5.244 -0.1810 -0.0030  0.1139
30391W        W73329  26.079   2.192   6.006 -0.0979 -0.1679  0.0303
30392W        W73330  27.845  34.508   6.485  0.1543  0.1434  0.2335
30393W        W73331  27.017   2.192   4.296  0.1357 -0.0031  0.0968
30394W        W73332  29.267   0.796   3.318 -0.2124 -0.2158  0.0708
30395W        W73333  27.674   3.228   6.941 -0.2316 -0.1634 -0.0354
30396W        W73334  26.799   2.483   5.964 -0.3548  0.2239 -0.2360
30397W        W73335  28.003   2.445   5.168  0.1553 -0.1331 -0.0369
30398W        W73336  29.927   1.732   5.904  0.0059 -0.1844  0.0030
30399W        W73337  27.684  34.262   2.882  0.1805 -0.0077  0.2433
30400W        W73338  28.226   4.261   7.836  0.2380 -0.0203 -0.2039
30401W        W73339  23.848   0.687   5.100 -0.1706 -0.1035 -0.0041
30402W        W73340  27.572   0.498   3.004  0.1776 -0.1576 -0.0609
30403W        W73341  25.355   2.747   4.879  0.1543 -0.3992 -0.0371
30404W        W73342  27.187   3.131   5.553 -0.1584  0.0475  0.1191
30405W        W73343  29.905   4.360   7.539 -0.2809 -0.1516  0.2145
30406W        W73344  25.859   0.586   5.999  0.1275 -0.1944  0.1261
30407W        W73345  26.584   3.618   3.682  0.3329  0.0055 -0.0442
30408W        W73346  29.323   2.200   5.629  0.2820 -0.0473  0.3249
30409W        W73347  26.119   4.920   3.289 -0.1478 -0.3717 -0.2564
30410W        W73348  28.817   0.862   4.570 -0.1880 -0.0336  0.0995
30411W        W73349  27.966   3.860   5.649 -0.0828  0.0650 -0.1393
30412W        W73350  24.200   1.840   6.349  0.1406  0.1952 -0.1949
30413W        W73351  27.299   3.327   6.630 -0.1725  0.2765  0.2365
30414W        W73352  29.856   3.369   4.009  0.2680 -0.2906 -0.2131
30415W        W73353  26.440  33.504   4.764  0.0245 -0.0514 -0.0704
30416W        W73354  26.177   1.387   5.482  0.1575  0.0692  0.0470
30417W        W73355  25.854   3.640   3.691 -0.1386  0.1868 -0.1973
30418W        W73356  28.726   0.608   5.157 -0.1871 -0.0637 -0.0591
30419W        W73357  26.958   1.462   6.108 -0.1402 -0.1021  0.1737
30420W        W73358  26.153   3.452   4.061 -0.0028 -0.0090 -0.2458
30421W        W73359  27.180   0.932   6.142  0.1224 -0.1710  0.2312
30422W        W73360  27.819   2.744   6.105 -0.1652 -0.0329 -0.0065
30423W        W73361  27.526   4.597   7.330 -0.2538  0.0884 -0.2820
30424W        W73362  25.642   2.366   4.694  0.2098 -0.3686  0.0339
30425W        W73363  27.982   3.001   7.285  0.0548  0.2358 -0.1673
30426W        W73364  26.387   2.250   5.419 -0.0814 -0.3324 -0.3268
30427W        W73365  27.786   3.138   4.455 -0.2830  0.2280 -0.2407
30428W        W73366  28.712   3.509   5.261 -0.2030  0.0429 -0.0014
30429W        W73367  28.043   1.297   4.136  0.0931 -0.5625 -0.0204
30430W        W73368  30.252   2.324   5.826 -0.7846 -0.3029  0.2329
30431W        W73369  27.988   0.870   7.447  0.1094 -0.3726 -0.0636
30432W        W73370  28.327  34.325   4.684  0.1478  0.1221 -0.0060
30433W        W73371  26.737  33.727   5.104 -0.1543  0.0105  0.0723
30434W        W73372  26.421   1.828   5.705 -0.1172 -0.2319 -0.1775
30435W        W73373  24.872   0.936   4.866  0.1231 -0.0377 -0.0755
30436W        W73374  25.255   3.132   3.209 -0.1124 -0.0119  0.2599
30437W        W73375  27.410   2.516   5.375  0.1505  0.0776  0.1581
30438W        W73376  27.613   0.238   8.037  0.1060 -0.0644  0.0415
30439W        W73377  25.840   0.707   7.206  0.1389 -0.3466 -0.0858
30440W        W73378  26.619   1.372   5.204 -0.2802 -0.1268 -0.2509
30441W        W73379  25.550   0.767   5.456 -0.1742  0.2736 -0.0291
30442W        W73380  28.174   1.963   5.232  0.1629  0.2120 -0.0242
30443W        W73381  25.762   0.256   5.509  0.0665 -0.1796  0.4715
30444W        W73382  24.700  34.185   5.816 -0.0309 -0.3826 -0.1963
30445W        W73383  26.585   3.174   4.270 -0.1388  0.2933  0.1331
30446W        W73384  28.222   4.297   3.786 -0.1391  0.0050  0.0492
30447W        W73385  27.116   0.571   4.828 -0.0659 -0.2169  0.0848
30448W        W73386  28.178   3.426   7.148  0.2276  0.2361  0.1826
30449W        W73387  25.836   2.864   4.790  0.3254 -0.1920  0.0567
30450W        W73388  25.604  34.551   7.355 -0.3016 -0.1641  0.1729
30451W        W73389  27.260  34.047   6.927  0.0242 -0.3214  0.0105
30452W        W73390  26.329   1.052   4.562 -0.2375  0.2930  0.0815
30453W        W73391  27.632   1.998   5.343  0.0076  0.0817  0.0761
30454W        W73392  26.375   3.364   4.671  0.2705  0.0201 -0.3814
30455W        W73393  28.198   4.412   4.382 -0.4309 -0.3256  0.4167
30456W        W73394  27.110   2.197   6.476  0.1421  0.0995 -0.3197
30457W        W73395  27.001   3.846   7.222 -0.0499  0.1712  0.1568
30458W        W73396  25.072   1.170   6.173  0.0659 -0.1076  0.2193
30459W        W73397  28.925   0.350   3.460  0.4024  0.2293  0.0192
30460W        W73398  26.248   2.554   6.905  0.0966 -0.0111 -0.0570
30461W        W73399  27.859   3.775   3.714  0.0774  0.0516  0.2224
30462W        W73400  27.800   0.118   5.969  0.0543 -0.1029 -0.0548
30463W        W73401  27.367   1.538   4.010 -0.0746  0.3331  0.1763
30464W        W73402  25.234   0.045   7.735 -0.1658 -0.1760 -0.1450
30465W        W73403  26.876   3.155   6.824  0.1260  0.5191  0.0335
30466W        W73404  29.482   1.774   5.652 -0.0164  0.0298  0.1570
30467W        W73405  26.186   0.172   6.791 -0.2823  0.1283 -0.3523
30468W        W73406  27.896   0.229   4.291  0.0755 -0.0364  0.1503
30469W        W73407  25.554   3.538   4.277 -0.1251 -0.3207 -0.2348
30470W        W73408  26.394   0.650   5.924 -0.0747 -0.0279  0.0263
30471W        W73409  26.792   0.244   5.105 -0.0522 -0.3181 -0.2182
30472W        W73410  27.725   1.584   6.494  0.2364 -0.2773 -0.3086
30473W        W73411  28.163   2.890   5.422  0.1479  0.3151  0.1064
30474W        W73412  28.795   2.737   6.779  0.0850  0.2282 -0.0406
30475W        W73413  26.946   3.072   4.611 -0.1811 -0.3028 -0.2004
30476W        W73414  27.723   2.882   4.028 -0.0005  0.1521 -0.3177
30477W        W73415  26.812   4.693   6.020 -0.0680 -0.2088 -0.1326
30478W        W73416  29.681   3.780   6.892  0.0909 -0.1083 -0.0108
30479W        W73417  26.806   3.672   6.768 -0.2721 -0.2166 -0.0855
30480W        W73418  27.754   1.942   5.896  0.0464  0.1461 -0.1792
30481W        W73419  26.173  34.389   6.008 -0.0289  0.0327  0.3141
30482W        W73420  26.950   2.430   5.054  0.1241  0.2397 -0.3319
30483W        W73421  25.773   3.332   4.850  0.0819  0.0399 -0.0913
30484W        W73422  29.306   1.976   6.177  0.1189  0.1315 -0.1836
30485W        W73423  28.021   0.604   5.649  0.4376  0.0450 -0.2640
30486W        W73424  26.555  33.702   3.860  0.0592 -0.1236  0.0046
30487W        W73425  26.389   5.214   6.675 -0.1129 -0.0632 -0.0000
30488W        W73426  27.683   3.606   6.069 -0.1677 -0.0103 -0.2608
30489W        W73427  27.336   2.919   8.485  0.1110  0.0320 -0.2473
30490W        W73428  26.745   0.157   9.372  0.1737 -0.6183  0.1714
30491W        W73429  29.031  34.437   7.979  0.1140 -0.0076 -0.0319
30492W        W73430  28.865   0.941   8.567  0.2604 -0.0485  0.2397
30493W        W73431  25.618   0.948   8.474 -0.0733 -0.1366  0.1363
30494W        W73432  29.459   3.551   7.841  0.3909 -0.1485 -0.0393
30495W        W73433  28.008   2.394   7.612 -0.1722 -0.2680 -0.0047
30496W        W73434  28.620   2.424   8.342  0.0511  0.1104 -0.2019
30497W        W73435  28.459   1.904   6.198  0.1448 -0.2911  0.1031
30498W        W73436  24.906   0.680   8.939  0.1193  0.0592  0.3308
30499W        W73437  25.629  34.059   8.224  0.1947 -0.4089 -0.1318
30500W        W73438  25.641  34.574  10.461 -0.1507  0.0423 -0.2357
30501W        W73439  29.128   1.090   8.962  0.3446 -0.1217 -0.2367
30502W        W73440  25.824   1.962   7.534 -0.3569  0.2645 -0.0955
30503W        W73441  27.509  33.859   9.960 -0.0793  0.0356 -0.1950
30504W        W73442  26.116   0.933   8.428  0.1669  0.1511  0.0553
30505W        W73443  29.149   4.218   6.717  0.1780  0.1693 -0.2090
30506W        W73444  27.440  34.108   9.472  0.2375 -0.0317  0.1312
30507W        W73445  27.010   3.736   8.190  0.1110  0.2443  0.1486
30508W        W73446  26.269   0.645   6.954  0.1412  0.0839 -0.0036
30509W        W73447  24.769   0.838  10.013  0.2031  0.2254 -0.2368
30510W        W73448  27.511   1.185   8.096 -0.0797 -0.4344 -0.2058
30511W        W73449  29.031   0.557   8.948  0.2199  0.0857 -0.1282
30512W        W73450  27.374   2.376   8.403 -0.1055 -0.0304 -0.1118
30513W        W73451  27.821   3.359   9.347 -0.0568 -0.0322  0.0812
30514W        W73452  25.741   1.772   9.915 -0.0452 -0.2055  0.1060
30515W        W73453  26.181   2.408   8.195  0.1401  0.3274  0.1015
30516W        W73454  27.518   3.602   8.957 -0.0395  0.1080  0.0995
30517W        W73455  29.640   1.809   8.463  0.0145 -0.2836 -0.0384
30518W        W73456  26.587   2.216   6.635  0.2232  0.3524  0.0750
30519W        W73457  28.297   3.957   8.831  0.1643 -0.0028  0.2114
30520W        W73458  28.568   1.626   9.124  0.1448  0.0791 -0.1094
30521W        W73459  27.733   2.790   6.705  0.2502  0.2181  0.2216
30522W        W73460  28.290   4.409   9.086  0.0492  0.1359 -0.2148
30523W        W73461  25.112   1.131   9.065  0.2500  0.0497 -0.3896
30524W        W73462  26.093   2.251   7.225 -0.0627 -0.0760  0.0512
30525W        W73463  29.068   0.647   7.622  0.0992 -0.2101  0.2396
30526W        W73464  26.215   0.171   8.120  0.0275  0.0146 -0.1008
30527W        W73465  26.736   1.738   7.299 -0.0759  0.3385 -0.1143
30528W        W73466  27.606  33.636   8.261 -0.0740 -0.0446 -0.0623
30529W        W73467  26.372   3.696   9.335 -0.0222 -0.3187  0.0319
30530W        W73468  27.040   1.051   9.062 -0.0670  0.0186 -0.0367
30531W        W73469  27.845   1.362   7.281 -0.3176  0.1701 -0.1176
30532W        W73470  28.365   0.786   8.674 -0.3109 -0.1353 -0.1447
30533W        W73471  28.067   4.672   8.217 -0.1862 -0.0320 -0.0526
30534W        W73472  26.963   0.560   8.483 -0.3298 -0.0279 -0.0269
30535W        W73473  28.608   3.624   7.039 -0.4126  0.1345  0.1068
30536W        W73474  28.759   2.208   9.622 -0.2807 -0.0012  0.2952
30537W        W73475  28.961   4.126   8.185 -0.0434  0.2375 -0.0882
30538W        W73476  26.314   0.674   9.050 -0.1730  0.0909 -0.0330
30539W        W73477  27.275  34.552   7.861  0.0785 -0.1345  0.2131
30540W        W73478  30.305   0.193   9.213 -0.2584  0.0447  0.3324
30541W        W73479  27.028   1.837   8.544 -0.2560  0.0452 -0.0051
30542W        W73480  30.670   0.116   9.688 -0.0337  0.1812 -0.1621
30543W        W73481  28.927   1.295   7.432  0.0246  0.0552 -0.3477
30544W        W73482  29.841   0.924   9.368 -0.0983  0.2570  0.1701
30545W        W73483  27.440   0.269   8.600  0.2410  0.2625 -0.0390
30546W        W73484  25.893   1.502   6.928 -0.2043  0.0146 -0.1070
30547W        W73485  27.475   0.689   8.357 -0.0398  0.0446 -0.0877
30548W        W73486  30.659  34.648   9.003 -0.3116 -0.0444 -0.1696
30549W        W73487  28.727   0.292   6.574  0.0188  0.3083 -0.2519
30550W        W73488  24.648  34.277  10.345 -0.1517  0.0766 -0.0648
30551W        W73489  26.576   3.105   7.725 -0.0656 -0.1416 -0.1934
30552W        W73490  25.464   2.226   8.990 -0.2018 -0.1748  0.2576
30553W        W73491  25.186   2.503   7.303 -0.0224 -0.0515  0.0642
30554W        W73492  25.102   1.201   9.820 -0.4535 -0.3952 -0.1402
30555W        W73493  26.236   2.879   9.385 -0.3908 -0.3351  0.0176
30556W        W73494  29.471   0.136   7.270 -0.4687 -0.1944 -0.1436
30557W        W73495  27.895   0.232   9.987  0.1469  0.2581 -0.0551
30558W        W73496  26.612   2.249   7.157  0.2828 -0.0562 -0.3014
30559W        W73497  29.172   4.039   7.203  0.1117 -0.0046  0.1777
30560W        W73498  27.797   2.047   8.046  0.0650 -0.0625  0.2238
30561W        W73499  28.219   2.856   6.824  0.0383 -0.0818 -0.0170
30562W        W73500  23.011   2.938  10.493 -0.1087  0.0821  0.0005
30563W        W73501  25.770   0.940   9.461  0.4851  0.2181 -0.0326
30564W        W73502  24.208   1.230   9.396  0.1196 -0.1726 -0.3165
30565W        W73503  25.933  33.944   8.623 -0.1735 -0.0669  0.0127
30566W        W73504  27.216   0.568   7.887 -0.3318  0.2072 -0.4465
30567W        W73505  26.593   2.209   8.087 -0.1129  0.4257  0.2188
30568W        W73506  24.988   3.433   8.286 -0.2776 -0.0203  0.3321
30569W        W73507  28.687   4.763   9.885 -0.1564 -0.2452  0.0168
30570W        W73508  27.375   2.010   8.819 -0.1855 -0.2072 -0.2240
30571W        W73509  29.908   3.589   9.036  0.1619 -0.1053 -0.0275
30572W        W73510  29.423   0.002   9.188  0.3950  0.1096 -0.2280
30573W        W73511  26.796  34.453   8.035 -0.2265 -0.3648 -0.1529
30574W        W73512  26.445   3.178   9.864 -0.1714 -0.1018 -0.1442
30575W        W73513  27.838   4.185   8.724  0.0630  0.2730 -0.3465
30576W        W73514  27.438   0.638   7.441  0.0683  0.1469  0.1368
30577W        W73515  29.193   4.515   8.966 -0.0075  0.1838  0.1080
30578W        W73516  28.576   2.874   8.108 -0.0044  0.0541  0.2600
30579W        W73517  29.525   3.261   9.767 -0.0738  0.0975 -0.3278
30580W        W73518  27.382   2.136   7.502  0.0032 -0.2771  0.1501
30581W        W73519  25.823  34.181   7.021 -0.0763 -0.3354 -0.0586
30582W        W73520  28.692   2.763   8.928 -0.0553 -0.0835 -0.0447
30583W        W73521  25.432   3.344   7.842 -0.1535  0.2042 -0.2028
30584W        W73522  25.285   1.546   8.297  0.3312 -0.1203 -0.3924
30585W        W73523  27.984   4.170   8.242 -0.0083  0.2021 -0.0653
30586W        W73524  26.661   2.217   8.695 -0.2056  0.0834 -0.0679
30587W        W73525  24.795   0.740   8.176  0.0552 -0.2960 -0.0296
30588W        W73526  27.960   1.629   8.273  0.1293  0.0783 -0.2232
30589W        W73527  27.926   1.236   7.780  0.0018  0.0348 -0.0688
30590W        W73528  28.457   1.153   8.209 -0.0123 -0.1162 -0.2696
30591W        W73529  27.392   0.429   6.016  0.1042 -0.3745  0.0364
30592W        W73530  26.847   0.390   7.567  0.1559 -0.0367  0.0636
30593W        W73531  27.902   2.880   7.805 -0.1561 -0.1686 -0.1941
30594W        W73532  27.108   3.988   9.105  0.1571  0.1694  0.0330
30595W        W73533  28.211   0.041   7.376  0.5013 -0.0290  0.1894
30596W        W73534  30.441   3.455   7.709  0.1170 -0.0361 -0.3096
30597W        W73535  25.965   1.062   9.010 -0.2063 -0.1440  0.4626
30598W        W73536  28.831   3.731   7.940 -0.1184 -0.1720 -0.2555
30599W        W73537  27.159  33.514  10.183 -0.1164  0.1532 -0.1018
30600W        W73538  27.263   1.651   7.440  0.1550 -0.0263  0.3673
30601W        W73539  27.925   0.396   7.537 -0.1979 -0.1190  0.2439
30602W        W73540  24.937   3.582   9.158  0.1475  0.2725 -0.1483
30603W        W73541  27.724  32.372   9.896 -0.0582  0.4735 -0.0494
30604W        W73542  26.481  33.316   8.724 -0.0375  0.0783 -0.2872
30605W        W73543  28.515   2.475   7.760 -0.1189 -0.0493 -0.1784
30606W        W73544  27.652   1.592   8.905  0.2960  0.1673  0.2531
30607W        W73545  26.500   1.466   6.902  0.2867 -0.0392 -0.0976
30608W        W73546  29.434  33.286   9.484 -0.1572  0.0978  0.0703
30609W        W73547  26.754   4.501  12.031  0.3490 -0.0577  0.0103
30610W        W73548  26.550   1.033   8.642  0.3541 -0.2373  0.3776
30611W        W73549  26.376  34.232   8.330  0.3006  0.1269  0.1573
30612W        W73550  26.728   4.082   9.450 -0.0772 -0.0277  0.0289
30613W        W73551  26.329   1.159   7.652  0.1457  0.1776  0.0006
30614W        W73552  26.982  34.095   9.321  0.1284  0.2380  0.0751
30615W        W73553  26.472   2.917   8.355  0.0618 -0.0908 -0.1454
30616W        W73554  27.123   2.370   7.979  0.1324 -0.3858  0.0179
30617W        W73555  27.847   2.803  10.586 -0.0765 -0.1191  0.2783
30618W        W73556  26.488   2.482   7.603 -0.4891  0.2320 -0.1182
30619W        W73557  30.322  33.868   9.654 -0.1272  0.0624  0.3442
30620W        W73558  25.545   3.996   9.558  0.2459 -0.0897 -0.2269
30621W        W73559  27.061   0.998   8.131 -0.1390  0.0285  0.1570
30622W        W73560  24.097   1.752  10.140 -0.2695  0.2078 -0.0026
30623W        W73561  27.252   1.053   8.582 -0.2532  0.0184  0.1315
30624W        W73562  28.257   1.851   7.891 -0.0624  0.0199 -0.0137
30625W        W73563  28.922   1.946   9.183  0.3263  0.0756 -0.1173
30626W        W73564  27.791  34.011   9.097 -0.0806 -0.0744  0.2135
30627W        W73565  27.334   3.361   9.635 -0.0929  0.2778 -0.2209
30628W        W73566  27.210   0.318   6.657  0.2121 -0.1796  0.1541
30629W        W73567  24.982   0.408   9.421 -0.0822 -0.3602 -0.1086
30630W        W73568  26.771   1.171   9.692  0.1236 -0.0521 -0.2395
30631W        W73569  26.773   0.747   9.461 -0.1662  0.0172  0.1134
30632W        W73570  26.967   3.627   9.436  0.2497 -0.0434 -0.0620
30633W        W73571  28.489   3.132   8.634 -0.0153 -0.0207  0.0041
30634W        W73572  27.486   1.078   7.631 -0.2531 -0.0030 -0.2301
30635W        W73573  25.814   3.150   7.632 -0.0453 -0.2736  0.0745
30636W        W73574  28.911  34.495   9.194 -0.1575  0.0806  0.1370
30637W        W73575  29.256  34.086   9.320 -0.0074 -0.2623  0.0249
30638W        W73576  27.239   0.273   9.217  0.1176 -0.1874 -0.0283
30639W        W73577  27.149   1.508   8.925  0.1173  0.2417 -0.1414
30640W        W73578  28.638   1.617   8.232  0.1211 -0.1587 -0.3030
30641W        W73579  27.308   1.920   7.967  0.4465  0.1007 -0.2291
30642W        W73580  27.891   0.505   9.529 -0.1492  0.2697  0.0002
30643W        W73581  29.211   1.979   8.310  0.1356 -0.7995 -0.0164
30644W        W73582  27.113   2.432   8.835  0.6289 -0.2289 -0.2033
30645W        W73583  25.280   2.046   9.920  0.0411 -0.1830 -0.0742
30646W        W73584  25.954   2.904   8.389 -0.2518  0.1166 -0.0924
30647W        W73585  27.892  33.566   9.949 -0.3313  0.0376  0.2393
30648W        W73586  26.204   1.639   9.131  0.0246 -0.1065 -0.3720
30649W        W73587  27.657   1.651   7.770 -0.0594 -0.0239  0.0242
30650W        W73588  24.493   1.326   9.836  0.1816  0.0064 -0.1445
30651W        W73589  27.994  33.927   8.003 -0.3257  0.0274  0.1742
30652W        W73590  28.472   2.785   6.412  0.0871 -0.1104  0.0244
30653W        W73591  27.853   0.833   8.838  0.0475 -0.0566 -0.1564
30654W        W73592  28.031   1.901   7.436  0.2088  0.1205 -0.1448
30655W        W73593  26.643  34.405   9.608 -0.2175 -0.2516  0.0185
30656W        W73594  29.310   4.153   8.584  0.1080 -0.0647  0.1967
30657W        W73595  28.266   0.542   7.136  0.0276 -0.1019  0.0893
30658W        W73596  25.221   1.034   8.093 -0.0059 -0.0298 -0.1075
30659W        W73597  26.746   2.825   7.250  0.2948 -0.1218 -0.0741
30660W        W73598  28.107   2.457   8.134  0.1971  0.3469 -0.3153
30661W        W73599  27.900   2.555   7.137 -0.0951 -0.0548 -0.0739
30662W        W73600  29.613   0.437   9.689 -0.0529  0.2097  0.2686
30663W        W73601  25.939   2.455   7.754 -0.0056  0.0743 -0.0543
30664W        W73602  28.106   2.139   6.984  0.0902 -0.2198 -0.2023
30665W        W73603  27.128   2.016   7.067 -0.4717 -0.1968 -0.0326
30666W        W73604  26.899   2.156   7.609  0.0764  0.0538  0.0438
30667W        W73605  28.373   1.544   7.313 -0.1886 -0.0618 -0.2892
30668W        W73606  28.231   0.384   8.069 -0.2964 -0.1613 -0.1352
30669W        W73607  26.854   2.812   9.137 -0.1682  0.1925 -0.2643
30670W        W73608  28.447   0.678   6.277 -0.2661 -0.1959 -0.2490
30671W        W73609  29.862  33.450   9.660 -0.0178  0.1568 -0.1817
30672W        W73610  28.355   1.474   8.650 -0.1459  0.2182 -0.1163
30673W        W73611  27.689   0.143   7.148 -0.1490 -0.0619 -0.2410
30674W        W73612  27.103  34.450   8.501  0.0706 -0.0537  0.0281
30675W        W73613  26.247  34.444   7.050 -0.0129  0.3100 -0.0076
30676W        W73614  27.789   4.579   6.794 -0.1427 -0.2412 -0.3972
30677W        W73615  28.314   3.296   8.072  0.1573  0.1728 -0.1126
30678W        W73616  26.838   1.390   8.435  0.0743 -0.2298 -0.1232
30679W        W73617  26.994   0.444   9.754  0.2923 -0.0794  0.0551
30680W        W73618  26.266   1.111   7.170 -0.4260  0.0111 -0.1049
30681W        W73619  26.441   1.117   8.130 -0.1538 -0.1256 -0.2173
30682W        W73620  28.760   3.120   9.690  0.0928 -0.0210 -0.2860
30683W        W73621  28.124   0.123   6.869  0.0682  0.0406 -0.2594
30684W        W73622  24.835   4.007   7.750 -0.1554 -0.2477  0.0580
30685W        W73623  28.652   0.429   8.457 -0.0158 -0.1753  0.1466
30686W        W73624  26.605   3.228   9.343  0.1361  0.3690 -0.2440
30687W        W73625  26.089   1.570   7.835  0.0645 -0.0086 -0.0650
30688W        W73626  27.103  33.676   9.114  0.2152  0.3383  0.0481
30689W        W73627  28.674  33.596   9.611 -0.1815  0.1751  0.1059
30690W        W73628  28.191   2.660   9.184  0.2328 -0.1673 -0.2677
30691W        W73629  26.444   0.474   8.576  0.0281  0.0877 -0.0149
30692W        W73630  28.295   2.059   8.332  0.0332  0.2271 -0.0357
30693W        W73631  26.306   2.031   7.686  0.0723  0.1384 -0.2372
30694W        W73632  29.224   1.898   8.787  0.3642 -0.0013 -0.0383
30695W        W73633  25.812  34.481   8.336  0.0133 -0.1624  0.2138
30696W        W73634  28.829   2.305   6.991 -0.0115 -0.0944 -0.1533
30697W        W73635  25.541   2.634   8.636  0.0717 -0.1552  0.0385
30698W        W73636  26.209   3.311   8.574 -0.0639 -0.1421 -0.1003
30699W        W73637  28.346   3.341   6.627 -0.2411 -0.2420  0.1635
30700W        W73638  28.798   3.267   7.848  0.1370  0.0897  0.1965
30701W        W73639  28.575   3.177   9.257  0.0027  0.3100 -0.0424
30702W        W73640  26.692   0.377   8.065 -0.0282 -0.0944  0.0325
30703W        W73641  25.022   3.317   8.777  0.2919 -0.2774 -0.0138
30704W        W73642  26.374   3.825   8.001  0.0513 -0.0618 -0.0724
30705W        W73643  28.846   3.265   8.364  0.1311  0.1448 -0.0164
30706W        W73644  24.158   3.537   8.332  0.1701 -0.0802  0.3219
30707W        W73645  28.480  34.310   7.217 -0.0191 -0.0794 -0.0870
30708W        W73646  28.870   1.031   9.430 -0.1253  0.1268 -0.4343
30709W        W73647  29.412   0.632   9.229 -0.1759  0.1809 -0.0951
30710W        W73648  27.780   2.686   9.464  0.1370 -0.2038  0.3762
30711W        W73649  26.759  34.606   7.511  0.0345 -0.0810 -0.1292
30712W        W73650  28.668   1.355   6.949  0.0580  0.0012  0.1094
30713W        W73651  25.476   0.856  10.111  0.2079  0.0159  0.0904
30714W        W73652  27.495  33.283   9.881 -0.0080 -0.2606  0.1261
30715W        W73653  28.367   0.791   9.193  0.1540  0.1219  0.0759
30716W        W73654  27.099   3.373   7.246  0.1002  0.3448  0.0831
30717W        W73655  27.938   0.135   8.437 -0.1711 -0.1084  0.1152
30718W        W73656  27.520   1.211   9.159  0.1484  0.2895 -0.1783
30719W        W73657  27.264   2.852   9.471  0.1183  0.3551 -0.1140
30720W        W73658  25.375   3.501   9.666  0.2375  0.1762 -0.0576
30721W        W73659  25.366   0.981   7.557  0.2130  0.1459 -0.0430
30722W        W73660  28.622   1.146   8.961  0.2186  0.0668 -0.0466
30723W        W73661  27.384   2.388   9.262 -0.0345 -0.3021  0.0255
30724W        W73662  27.865   2.114   9.062 -0.1132 -0.0687  0.0843
30725W        W73663  28.490   1.373   7.749  0.1056  0.0482  0.1330
30726W        W73664  26.475   2.530   9.088  0.0222  0.2696  0.1128
30727W        W73665  23.623   1.683  10.347 -0.2160  0.5281 -0.0348
30728W        W73666  27.058   1.534   7.874  0.3974 -0.0405 -0.2359
30729W        W73667  28.765   0.751   7.233  0.0678 -0.0071 -0.0301
30730W        W73668  25.480   1.333   8.794 -0.2604  0.3935  0.0312
30731W        W73669  27.420  34.509   6.832  0.2167 -0.2358  0.1737
30732W        W73670  26.578   1.225   9.131 -0.1577 -0.4339 -0.0670
30733W        W73671  30.364   2.604   9.171  0.0241  0.2240  0.0251
30734W        W73672  27.869   1.426   9.530  0.1008  0.2282  0.0634
30735W        W73673  27.417   3.709   6.932 -0.0242  0.0661  0.3448
30736W        W73674  28.035  34.575   9.679 -0.1571  0.0265  0.5592
30737W        W73675  27.674   3.750   9.597  0.3619 -0.1754 -0.1309
30738W        W73676  27.667   2.571   8.872  0.1948 -0.1166 -0.0888
30739W        W73677  27.795   3.041   9.887  0.1367  0.0813 -0.3529
30740W        W73678  26.599   0.342  10.273 -0.0098 -0.1866 -0.2996
30741W        W73679  28.762   2.697   9.436  0.0302  0.0035 -0.0219
30742W        W73680  28.217   1.853   8.869  0.1053 -0.2882 -0.2368
30743W        W73681  28.032   0.664   6.687 -0.0573  0.2657 -0.3584
30744W        W73682  25.886   1.177  10.245 -0.1571  0.1092  0.4227
30745W        W73683  25.395   4.163   7.269  0.0002 -0.0090 -0.1489
30746W        W73684  28.898   1.463   8.722  0.1255  0.2579  0.2210
30747W        W73685  27.305   2.901   7.079  0.1796 -0.1193 -0.0269
30748W        W73686  26.101   1.993   9.636  0.4220 -0.1139 -0.2062
30749W        W73687  25.681   1.050   7.913  0.0773  0.1433 -0.2068
30750W        W73688  27.347   3.377   7.971 -0.0510 -0.0906 -0.5193
30751W        W73689  28.390   3.078   7.682  0.0545 -0.1533 -0.0930
30752W        W73690  28.963   3.202   8.938 -0.2062 -0.2803 -0.0070
30753W        W73691  27.420   1.624   8.370  0.0144  0.3359 -0.2176
30754W        W73692  28.976   2.784   8.454 -0.0401 -0.1437  0.0080
30755W        W73693  27.579  34.466   8.699 -0.2297 -0.3535 -0.0508
30756W        W73694  28.892  34.174   9.782  0.1328  0.0083  0.0209
30757W        W73695  29.354  34.317   8.775  0.0143  0.0178 -0.3762
30758W        W73696  26.737   3.614   8.964 -0.2064 -0.0302  0.0203
30759W        W73697  26.306   0.639   8.054  0.0472  0.0307 -0.0181
30760W        W73698  27.111   2.567   7.483 -0.4628  0.2458  0.0365
30761W        W73699  25.275   2.943   7.588  0.1217 -0.1446 -0.0634
30762W        W73700  26.219   1.619   7.360  0.1235 -0.1375 -0.2414
30763W        W73701  27.152   0.158   8.203  0.0863  0.1729  0.1648
30764W        W73702  29.416   4.010   9.050 -0.1171 -0.1097 -0.2114
30765W        W73703  25.838   0.639   8.790  0.1858 -0.1230 -0.1065
30766W        W73704  25.838   0.461   8.314  0.0194  0.1741 -0.2186
30767W        W73705  28.945   2.821   7.637 -0.1982 -0.1913 -0.0450
30768W        W73706  29.446   2.664   8.302  0.0327  0.1067  0.0696
30769W        W73707  26.984   0.173   8.782  0.3496  0.0948  0.0668
30770W        W73708  25.686   2.706   7.399 -0.2476  0.0107 -0.3336
30771W        W73709  24.075  34.219   7.995 -0.2281 -0.0492 -0.0873
30772W        W73710  27.333   0.745   9.418  0.3202 -0.0593 -0.0319
30773W        W73711  26.863   2.986   8.651 -0.0358 -0.3521  0.1928
30774W        W73712  27.852   3.338   8.007  0.3136  0.0848 -0.3146
30775W        W73713  26.410   0.045   9.846  0.0574 -0.1134 -0.0456
30776W        W73714  29.944   2.114   8.762 -0.2328  0.1023 -0.2319
30777W        W73715  29.366   2.756   8.801 -0.0329  0.1319  0.2412
30778W        W73716  29.461   0.118   8.649  0.0663  0.1743  0.1753
30779W        W73717  29.247   0.762   8.126  0.4160 -0.2907  0.2094
30780W        W73718  29.258   1.550   9.267  0.1803 -0.0366 -0.0047
30781W        W73719  26.074  34.327   7.956  0.1171  0.0433  0.0919
30782W        W73720  28.601  34.545   6.746  0.1406 -0.1429  0.0203
30783W        W73721  27.594   2.622   7.536  0.1094  0.0873 -0.2006
30784W        W73722  26.288   0.398   9.485  0.3300  0.0972 -0.0750
30785W        W73723  27.766   1.144   6.763 -0.3483  0.1445  0.1834
30786W        W73724  28.368   4.399   8.597  0.0116  0.1880 -0.0573
30787W        W73725  26.802   0.600   8.958  0.1117  0.2478 -0.0363
30788W        W73726  29.504   1.426   8.833  0.0522 -0.0899  0.1505
30789W        W73727  27.754   5.303  10.282  0.1448  0.0519  0.2380
30790W        W73728  27.667   3.298   8.500 -0.1380 -0.2267  0.0968
30791W        W73729  29.953   2.604   8.723 -0.1045 -0.1516  0.0828
30792W        W73730  26.218  32.303   8.957  0.2996  0.0179  0.2302
30793W        W73731  25.465   2.314   7.678  0.2852 -0.0514 -0.0571
30794W        W73732  26.669   1.644   8.854 -0.1690 -0.2010 -0.1958
30795W        W73733  28.055  34.296   8.317  0.0148  0.1835 -0.1638
30796W        W73734  26.411   0.230   9.005  0.1243 -0.0071  0.0670
30797W        W73735  27.765  33.312   7.485  0.1107  0.0933 -0.1499
30798W        W73736  26.408   2.054   9.102 -0.1167  0.2244 -0.7411
30799W        W73737  27.166   3.464   8.631  0.0560  0.1089 -0.0336
30800W        W73738  26.314   6.633   2.664  0.2666  0.1798 -0.1912
30801W        W73739  25.838   5.630   0.939  0.1989  0.3388 -0.0481
30802W        W73740  27.890   5.821   0.322  0.0436  0.1494 -0.1153
30803W        W73741  28.226   5.798   1.602 -0.0625  0.2841 -0.2160
30804W        W73742  25.193   4.924   2.035 -0.0326  0.3740  0.0635
30805W        W73743  27.845   7.005   2.592  0.0418 -0.2736  0.0125
30806W        W73744  25.336   3.727   3.889  0.0358 -0.0629 -0.0977
30807W        W73745  27.313   6.593   3.836  0.2320 -0.0054  0.2454
30808W        W73746  29.770   7.658   3.741  0.2517  0.3481  0.1229
30809W        W73747  28.255   6.920   0.833  0.3937  0.0031  0.2098
30810W        W73748  26.980   5.869   3.138 -0.0907  0.1501  0.0250
30811W        W73749  26.453   7.663   3.504 -0.0621 -0.2938  0.2384
30812W        W73750  24.411   3.870  31.602 -0.2809  0.0759 -0.3571
30813W        W73751  27.323   2.696   1.789  0.0799  0.1570  0.1758
30814W        W73752  28.143   5.641   2.626  0.2053 -0.3281  0.0089
30815W        W73753  26.034   7.138   0.996  0.0778 -0.1031  0.2800
30816W        W73754  27.163   5.844   2.660  0.0050 -0.1913 -0.2668
30817W        W73755  26.586   3.990   1.432 -0.2297  0.2787 -0.0950
30818W        W73756  28.563   7.930   2.294 -0.0199  0.0458 -0.0861
30819W        W73757  26.865   4.366   2.421  0.0992  0.0014 -0.2072
30820W        W73758  27.495   4.070   2.982  0.0011  0.0025  0.0081
30821W        W73759  27.437   5.990   1.628  0.0345  0.1617 -0.1485
30822W        W73760  24.818   5.084  30.970  0.1142  0.3045  0.3025
30823W        W73761  24.710   4.318   2.409  0.0347  0.0100 -0.0451
30824W        W73762  27.369   4.889   2.818 -0.1912  0.0839  0.3270
30825W        W73763  27.587   4.873   0.356 -0.1871  0.2802 -0.1134
30826W        W73764  29.105   4.972   1.953  0.0976  0.1661  0.1019
30827W        W73765  28.359   6.303   1.398 -0.2027  0.0762 -0.2710
30828W        W73766  28.916   7.191   2.713  0.1163 -0.2209  0.1867
30829W        W73767  27.028   5.302   3.291  0.3721  0.1984 -0.1505
30830W        W73768  24.812   7.768   0.804 -0.1357 -0.0478 -0.1743
30831W        W73769  26.781   6.636   1.085  0.1445 -0.3288  0.1265
30832W        W73770  27.350   6.966   0.486  0.1762 -0.0911 -0.1179
30833W        W73771  29.039   7.409   1.475 -0.0413 -0.2920 -0.0496
30834W        W73772  30.144   6.377   2.485  0.1443 -0.0563 -0.0227
30835W        W73773  27.024   7.135   2.844  0.0172 -0.3352 -0.1056
30836W        W73774  27.514   7.832  31.789 -0.1840  0.2448  0.0259
30837W        W73775  27.819   8.339   3.554  0.2288 -0.1593  0.0679
30838W        W73776  26.596   6.518   3.620  0.2160 -0.1451  0.0712
30839W        W73777  27.998   4.824   2.470  0.0625  0.0286 -0.0084
30840W        W73778  28.220   5.467   2.141 -0.1881  0.3704 -0.0738
30841W        W73779  26.702   7.146   1.336  0.0817  0.4210 -0.2736
30842W        W73780  27.089   7.660   3.033  0.0368  0.2768  0.0436
30843W        W73781  26.965   6.224   3.473 -0.2494  0.4676  0.1250
30844W        W73782  27.743   4.683   1.772 -0.0375 -0.1423 -0.2456
30845W        W73783  28.521   5.907   4.113 -0.2295 -0.0839 -0.0545
30846W        W73784  26.488   8.533   0.129 -0.0195 -0.1765  0.0540
30847W        W73785  27.573   4.830  31.614  0.0557  0.1196  0.1958
30848W        W73786  26.182   5.512  31.240 -0.1070  0.0451  0.1117
30849W        W73787  28.564   5.833   1.269 -0.1662 -0.1824 -0.0170
30850W        W73788  27.194   3.544   1.923 -0.1086  0.2731  0.3495
30851W        W73789  26.670   7.087   1.873 -0.2273 -0.3438 -0.1950
30852W        W73790  26.968   3.691   1.512 -0.5711 -0.2162 -0.3569
30853W        W73791  29.077   6.498   2.167  0.0943 -0.0464 -0.0132
30854W        W73792  27.283   3.776   0.625 -0.4287 -0.5040 -0.0403
30855W        W73793  27.516   3.690   1.479 -0.2169 -0.0142  0.0761
30856W        W73794  26.255   6.875   1.888 -0.0853  0.1080  0.1147
30857W        W73795  26.806   5.024   0.950  0.2245 -0.0549 -0.2089
30858W        W73796  28.207   7.599   0.517  0.1243  0.0474  0.0509
30859W        W73797  29.034   6.745   1.372 -0.0979  0.0922  0.3003
30860W        W73798  29.314   8.535   0.396  0.2174  0.2552 -0.2230
30861W        W73799  26.924   5.586   0.145  0.3174 -0.0329 -0.0009
30862W        W73800  25.653   6.057   3.294  0.1545 -0.2948  0.0696
30863W        W73801  26.911   5.157   2.860 -0.0419 -0.2045 -0.0768
30864W        W73802  26.168   3.913   1.129 -0.0610 -0.5307  0.0180
30865W        W73803  28.978   5.082   2.515  0.0553 -0.0692 -0.2376
30866W        W73804  25.834   6.028   2.333 -0.1729  0.0698  0.3541
30867W        W73805  27.388   5.324  31.680  0.2970  0.0547  0.2046
30868W        W73806  26.532   7.072   2.960  0.0438  0.2230 -0.0559
30869W        W73807  28.340   7.106   2.988 -0.0582  0.1078 -0.2486
30870W        W73808  26.567   7.088   0.878 -0.0216  0.0630 -0.2017
30871W        W73809  28.343   4.073   2.394  0.0276 -0.0247 -0.0305
30872W        W73810  29.931   1.692   1.712  0.0850 -0.0838 -0.0299
30873W        W73811  27.213   6.898   1.182 -0.0930  0.0179 -0.0020
30874W        W73812  27.205   5.868   2.167 -0.1076  0.0114 -0.2331
30875W        W73813  29.256   6.775   2.852  0.1751  0.1809  0.0847
30876W        W73814  29.357   5.192  30.764 -0.1001 -0.0448 -0.5266
30877W        W73815  25.518   6.332   2.164  0.0092  0.0115  0.0017
30878W        W73816  27.590   3.605   4.192  0.2261 -0.1379  0.0692
30879W        W73817  26.841   6.764   3.278 -0.0017  0.0801 -0.1412
30880W        W73818  27.040   7.271   0.930 -0.0248 -0.3059 -0.1332
30881W        W73819  26.821   6.709   2.766  0.0590 -0.0703  0.2431
30882W        W73820  25.339   7.297   0.510  0.2613  0.3960  0.0239
30883W        W73821  26.093   4.362   1.138 -0.0806 -0.2746  0.1970
30884W        W73822  26.776   8.515   3.481 -0.0404  0.0242 -0.0677
30885W        W73823  28.882   3.770   1.269 -0.0644  0.0138 -0.0445
30886W        W73824  26.052   4.410   2.181  0.1158 -0.0440  0.2086
30887W        W73825  27.139   3.455   1.098 -0.0332 -0.0696 -0.3821
30888W        W73826  26.645   5.940   2.120 -0.2734 -0.0299  0.0842
30889W        W73827  28.197   6.328   1.897  0.0784  0.1334  0.0090
30890W        W73828  26.251   5.274  31.677 -0.2425 -0.0539  0.1147
30891W        W73829  26.531  10.266  31.742  0.2138  0.0712  0.2539
30892W        W73830  26.718   6.104   2.632 -0.1056 -0.2024 -0.1325
30893W        W73831  27.493   4.662   2.259  0.0334  0.0515  0.1851
30894W        W73832  27.699   5.096   2.142  0.0770  0.0421 -0.0633
30895W        W73833  26.169   4.229   1.689  0.1216  0.0183  0.2367
30896W        W73834  28.195   4.897   2.895  0.0710 -0.0463  0.0456
30897W        W73835  26.598   4.242   0.225 -0.2822  0.0576  0.2365
30898W        W73836  28.026   3.873  31.778  0.0924 -0.0143 -0.0824
30899W        W73837  27.786   6.776   1.123 -0.1710  0.1032 -0.0799
30900W        W73838  25.653   7.237   1.298  0.1115 -0.0849  0.2754
30901W        W73839  27.718   1.135   0.953 -0.1947 -0.0431  0.2582
30902W        W73840  29.044   7.446   0.550  0.2511  0.2306  0.0824
30903W        W73841  28.244   6.819   3.397 -0.2445 -0.0108  0.2742
30904W        W73842  28.055   8.770   0.830 -0.1949  0.0416  0.1081
30905W        W73843  25.779   3.509   3.003 -0.3546  0.1737 -0.1637
30906W        W73844  26.806   5.322  31.663 -0.1378 -0.2098  0.0129
30907W        W73845  27.232   6.713   1.945  0.0897 -0.1854 -0.0389
30908W        W73846  26.442   7.028   3.503 -0.2974  0.2387 -0.1064
30909W        W73847  26.987   2.423  30.440 -0.2264 -0.0542  0.1859
30910W        W73848  28.675   6.766   2.138 -0.0764  0.0679 -0.1535
30911W        W73849  27.530   6.310   2.060 -0.3048 -0.1259  0.3271
30912W        W73850  26.549   5.624   2.814 -0.0625 -0.1776 -0.1022
30913W        W73851  29.025   2.859   2.772  0.0002 -0.3142 -0.1734
30914W        W73852  28.914   5.904   2.745 -0.2978 -0.0790 -0.1673
30915W        W73853  26.827   3.185   0.599 -0.0348 -0.0360  0.0319
30916W        W73854  26.832   4.360  31.309 -0.1856  0.4050  0.0044
30917W        W73855  29.960   8.061   1.347  0.0860  0.0772 -0.0721
30918W        W73856  27.553   6.279   1.012  0.1716 -0.1355  0.1203
30919W        W73857  25.269   4.311   1.830  0.0781  0.1014 -0.3053
30920W        W73858  27.455   7.511   0.584  0.3098  0.2050 -0.2919
30921W        W73859  28.151   4.378   1.483 -0.0078 -0.1301 -0.2127
30922W        W73860  25.679   6.188   2.811  0.1330 -0.2982 -0.0722
30923W        W73861  27.531   4.581   3.298 -0.0657  0.1674 -0.1714
30924W        W73862  27.323   5.431   1.152 -0.1129 -0.0246 -0.0627
30925W        W73863  25.120   7.009   2.891 -0.0545 -0.2334 -0.0850
30926W        W73864  27.292   4.606   1.589  0.1999 -0.0089 -0.0143
30927W        W73865  28.001   2.293   1.280 -0.0386 -0.3659 -0.1675
30928W        W73866  27.052   5.685   3.670  0.1187 -0.0469 -0.0158
30929W        W73867  28.179   5.596   0.672 -0.0524 -0.0209 -0.1214
30930W        W73868  29.099   3.718  31.398  0.1877  0.1858  0.3439
30931W        W73869  27.351   4.601  31.966  0.0600 -0.1177 -0.2299
30932W        W73870  25.083   5.408   4.198  0.0696  0.5057  0.1328
30933W        W73871  28.599   6.516   0.931 -0.2075 -0.0196  0.1767
30934W        W73872  26.320   6.671   3.201  0.0086 -0.0391  0.5062
30935W        W73873  27.275   3.235  31.444 -0.0465 -0.5036  0.0151
30936W        W73874  27.594   7.556   1.832 -0.2001 -0.0369  0.2809
30937W        W73875  26.157   6.216   3.520 -0.3726 -0.1256 -0.1193
30938W        W73876  28.877   7.435   3.672 -0.1976  0.0032  0.2182
30939W        W73877  28.600   6.971   1.239 -0.0462  0.2609 -0.0554
30940W        W73878  26.925   2.741   1.433  0.2381  0.1910  0.0229
30941W        W73879  26.955   5.161  31.056  0.1395  0.1377 -0.2564
30942W        W73880  27.635   2.975   0.238  0.1094 -0.1180  0.1083
30943W        W73881  25.379   8.067  31.028 -0.0709 -0.0654 -0.1249
30944W        W73882  28.089   4.078   1.918  0.2093 -0.0044 -0.0281
30945W        W73883  26.877   3.871   2.223 -0.1378 -0.1203 -0.1739
30946W        W73884  26.925   2.841   4.091 -0.1283 -0.1396  0.0096
30947W        W73885  28.531   5.414   4.283  0.1850  0.1801  0.1925
30948W        W73886  28.008   5.353   1.685 -0.3008 -0.2267  0.0835
30949W        W73887  28.246   4.931   1.946  0.1341 -0.0368 -0.0192
30950W        W73888  26.472   5.334   0.100 -0.4288  0.2521  0.1201
30951W        W73889  28.665   3.985   3.702 -0.0576 -0.1004  0.1961
30952W        W73890  26.595   5.966   3.671 -0.1340  0.2364 -0.1919
30953W        W73891  27.262   6.981   3.460  0.1971  0.1830  0.2345
30954W        W73892  28.505   6.397   4.022 -0.0577  0.0604  0.1850
30955W        W73893  29.307   5.950   1.388 -0.0031  0.0262 -0.0032
30956W        W73894  27.105   4.349   3.329 -0.1011  0.0275  0.1047
30957W        W73895  27.816   4.769   0.765  0.0445 -0.0351  0.0806
30958W        W73896  25.143   7.429   0.974 -0.0774  0.1135 -0.0549
30959W        W73897  26.668   7.478   0.009 -0.0405 -0.0942  0.1629
30960W        W73898  25.808   2.311   1.807  0.0657  0.1691  0.1154
30961W        W73899  28.365   7.446   2.138  0.0935 -0.1365  0.1629
30962W        W73900  26.364   5.035   0.498 -0.2485 -0.0955  0.0261
30963W        W73901  27.914   6.187   4.041 -0.0954 -0.1257  0.0712
30964W        W73902  26.051   6.387   1.299  0.0571  0.4182  0.2830
30965W        W73903  27.245   2.888   3.713  0.0345 -0.0619 -0.1198
30966W        W73904  25.785   8.203   1.134 -0.0890  0.0597 -0.0362
30967W        W73905  27.347   5.340   0.176  0.0013 -0.2249  0.0086
30968W        W73906  25.189   6.195   1.727 -0.0223  0.1893  0.0437
30969W        W73907  27.614   3.873   1.980 -0.1227  0.2854  0.1376
30970W        W73908  27.735   5.338   0.522  0.0744  0.0494 -0.1628
30971W        W73909  26.032   5.016   2.306  0.0009 -0.0562  0.2822
30972W        W73910  26.095   2.549   2.902 -0.2905  0.0297 -0.2602
30973W        W73911  26.069   8.909   0.856 -0.0062  0.3547  0.0520
30974W        W73912  27.790   6.038   5.027 -0.1099  0.2128  0.2195
30975W        W73913  28.259   3.772   0.745  0.0721 -0.1389  0.0222
30976W        W73914  27.656   5.311   3.898 -0.0711 -0.1091  0.0468
30977W        W73915  27.928   3.965   2.685  0.2456  0.0069 -0.1170
30978W        W73916  25.145   5.204   0.509  0.3367  0.3077 -0.2151
30979W        W73917  28.648   4.286   3.184 -0.2535 -0.0091 -0.0070
30980W        W73918  27.034   5.043   1.390 -0.3885 -0.0282 -0.3412
30981W        W73919  26.923   6.139   1.411 -0.1569  0.3088 -0.0188
30982W        W73920  27.960   7.440   2.774 -0.0910  0.0305  0.0860
30983W        W73921  26.162   5.481   0.506 -0.0755  0.0751  0.2901
30984W        W73922  27.320   7.733   1.451  0.2683  0.1627 -0.0089
30985W        W73923  26.376   4.588   3.629 -0.2976  0.2767  0.0812
30986W        W73924  28.270   7.153   4.252  0.2028 -0.1937 -0.2911
30987W        W73925  27.412   4.121   2.458 -0.0150  0.2301  0.0911
30988W        W73926  26.539   3.710   1.808 -0.0856 -0.0119  0.1487
30989W        W73927  27.662   4.427   1.241 -0.0262 -0.1198 -0.0523
30990W        W73928  28.012   5.665   3.850  0.0159 -0.2275  0.1254
30991W        W73929  27.488   3.536   3.129  0.2162  0.2811  0.1386
30992W        W73930  26.691   8.041   3.119 -0.1095  0.3176  0.2876
30993W        W73931  27.256   3.054   2.148  0.3768 -0.0127 -0.0925
30994W        W73932  29.672   7.106   0.040 -0.1091  0.1837  0.4627
30995W        W73933  28.394   3.999   2.893 -0.3944 -0.1245  0.2371
30996W        W73934  26.951   5.781   1.737 -0.0374 -0.1573 -0.2095
30997W        W73935  25.457   6.644   2.942  0.2674  0.1293  0.0667
30998W        W73936  28.863   5.455   2.020  0.0378  0.3686 -0.0435
30999W        W73937  27.924   4.331   2.288  0.2440 -0.1176  0.0655
31000W        W73938  26.012   7.017   2.378  0.0762 -0.2105 -0.0899
31001W        W73939  27.838   6.226   1.425 -0.1845 -0.2418 -0.3456
31002W        W73940  26.231   7.857   2.989 -0.1915  0.2209 -0.0232
31003W        W73941  27.955   4.168   0.978 -0.1249 -0.1879  0.2914
31004W        W73942  28.641   5.117   1.135  0.0580 -0.1545  0.2139
31005W        W73943  27.301   3.983   1.152 -0.0716 -0.1931  0.0356
31006W        W73944  27.860   3.487   2.747 -0.0238 -0.2240 -0.1580
31007W        W73945  25.908   5.690   0.098  0.1681 -0.1207 -0.1549
31008W        W73946  28.150   2.741   2.952 -0.0806 -0.0507  0.0751
31009W        W73947  26.056   3.456   2.126  0.3080 -0.0916  0.0343
31010W        W73948  28.892   5.878   1.690  0.2868 -0.1655  0.0170
31011W        W73949  26.726   3.294   1.956  0.0322 -0.2964  0.0659
31012W        W73950  27.758   8.121   4.009 -0.0304 -0.0772 -0.1864
31013W        W73951  25.164   4.833   2.941 -0.2993  0.4310  0.0488
31014W        W73952  28.461   3.520   1.554 -0.0995  0.1246  0.0209
31015W        W73953  27.413   3.812  30.679  0.0745  0.1714  0.0268
31016W        W73954  27.739   4.536   2.846  0.1146  0.0006 -0.0140
31017W        W73955  27.924   4.984  31.978 -0.0992 -0.3201 -0.2457
31018W        W73956  28.034   4.906   1.320  0.1538  0.1359 -0.0332
31019W        W73957  27.589   5.079   1.533  0.4976 -0.0272 -0.1725
31020W        W73958  26.608   7.547   2.970 -0.2980 -0.1572  0.4949
31021W        W73959  28.563   5.386   1.547 -0.0500  0.2778  0.2920
31022W        W73960  28.019   6.398   0.912  0.0602 -0.0321 -0.1296
31023W        W73961  27.333   5.334   2.402 -0.2304 -0.1458 -0.2074
31024W        W73962  25.216   4.178   3.491  0.1617 -0.1567 -0.0871
31025W        W73963  28.900   6.217   1.219  0.0911  0.1961  0.1269
31026W        W73964  28.300   4.565   1.035 -0.3102 -0.0397  0.2138
31027W        W73965  28.660   3.196   2.724  0.2924  0.2871 -0.0886
31028W        W73966  28.743   6.292   1.877 -0.0986 -0.2298  0.0738
31029W        W73967  25.845   3.895   2.283 -0.0597 -0.0214 -0.2205
31030W        W73968  26.167   4.578   4.229 -0.0945  0.1637  0.0236
31031W        W73969  27.570   7.974   2.730 -0.1093  0.1493  0.4015
31032W        W73970  27.637   3.676  31.506 -0.1180  0.0722  0.0209
31033W        W73971  27.369   2.971   3.099  0.2562  0.2259  0.0910
31034W        W73972  28.183   5.067   0.798 -0.0200 -0.1888  0.1066
31035W        W73973  28.095   4.760  31.572  0.1435  0.2470  0.3634
31036W        W73974  25.465   4.884   2.533 -0.1029 -0.1247  0.2587
31037W        W73975  28.220   6.612   2.790 -0.0029  0.0981  0.0723
31038W        W73976  25.954   5.186   1.327  0.0361  0.1449 -0.1552
31039W        W73977  29.647   6.158   3.551  0.2323 -0.0314  0.1460
31040W        W73978  29.060   5.889   0.829  0.1845 -0.3694  0.0283
31041W        W73979  27.424   5.972   3.567 -0.0734  0.1943 -0.0189
31042W        W73980  25.935   4.983   0.775  0.0180  0.2170  0.0609
31043W        W73981  26.057   5.151   1.806  0.0447 -0.0684  0.1867
31044W        W73982  26.905   8.216   2.289 -0.1762 -0.2669 -0.0723
31045W        W73983  26.299   4.189  29.704 -0.2620 -0.3339 -0.2500
31046W        W73984  26.059   4.844  31.833  0.0676  0.0379 -0.2018
31047W        W73985  28.067   7.808   2.500  0.1132  0.1109 -0.0430
31048W        W73986  29.484   6.148   4.037  0.3268  0.0070  0.0303
31049W        W73987  26.046   3.135   2.866 -0.0308  0.2009  0.1944
31050W        W73988  29.511   3.582   2.987  0.1461  0.0471  0.2461
31051W        W73989  26.263   6.352   2.182 -0.2027 -0.0203 -0.0051
31052W        W73990  27.823   3.370   1.270 -0.1692 -0.1129  0.2000
31053W        W73991  25.825   7.519   2.820  0.0581 -0.1458  0.1168
31054W        W73992  25.349   6.718   1.848 -0.0905  0.2747  0.1088
31055W        W73993  27.480   7.352   1.080  0.3000  0.0104 -0.4192
31056W        W73994  27.183   4.398   2.839  0.2923 -0.1579  0.1542
31057W        W73995  27.961   6.023   2.279 -0.2090 -0.0279 -0.0091
31058W        W73996  28.123   5.881   1.039 -0.3227 -0.1589 -0.0576
31059W        W73997  29.045   4.244   3.495 -0.1628 -0.4488 -0.0564
31060W        W73998  28.430   4.752   3.327 -0.1439 -0.0241  0.0451
31061W        W73999  26.335   3.932   2.281  0.0300  0.1932  0.1672
31062W        W74000  27.837   6.130   4.536 -0.0684 -0.0968  0.0929
31063W        W74001  27.684   7.111   1.482  0.0827  0.0419 -0.1378
31064W        W74002  27.380   6.728   2.852 -0.0390 -0.1069 -0.0675
31065W        W74003  26.181   3.492   3.363  0.0158  0.1893 -0.0048
31066W        W74004  27.701   5.215   4.533  0.0185 -0.1990  0.0436
31067W        W74005  27.797   6.319   3.564 -0.0110 -0.0587  0.0033
31068W        W74006  25.903   4.086   0.673  0.0098  0.3664  0.0949
31069W        W74007  29.274   7.039   0.611  0.1985  0.0947  0.1647
31070W        W74008  26.925   7.881   3.528  0.0171  0.2426 -0.0442
31071W        W74009  26.679   6.604   2.232 -0.0172  0.4466  0.0822
31072W        W74010  26.805   7.552   2.502 -0.1244 -0.1919  0.0897
31073W        W74011  27.782   7.754   0.841 -0.1855 -0.2169 -0.0823
31074W        W74012  29.163   5.356  31.859 -0.0375  0.0418 -0.1697
31075W        W74013  27.257   8.534   3.509  0.2087  0.0936 -0.2868
31076W        W74014  26.347   4.803   1.031  0.2090 -0.0290 -0.1208
31077W        W74015  27.199   7.801   2.341 -0.0936 -0.1223 -0.1272
31078W        W74016  24.475   7.113   0.032  0.0483  0.2441  0.0913
31079W        W74017  29.049   6.713   0.300  0.2315 -0.1425 -0.0650
31080W        W74018  26.154   7.557   0.659 -0.2056  0.3790  0.3475
31081W        W74019  28.625   6.829   4.286 -0.0620  0.0577 -0.1446
31082W        W74020  28.616   3.406  31.647 -0.1479 -0.1097  0.2511
31083W        W74021  28.652   4.934   0.656 -0.0713 -0.2657  0.1472
31084W        W74022  29.126   5.150  31.239 -0.1274  0.1304  0.2355
31085W        W74023  27.892   7.112   3.908 -0.2328  0.0960 -0.0450
31086W        W74024  27.394   5.366   2.947  0.0219  0.2311 -0.1632
31087W        W74025  25.589   4.298   0.333  0.1922  0.0609  0.0814
31088W        W74026  25.778   5.400   3.348  0.1529  0.0451 -0.1459
31089W        W74027  28.575   4.223   4.763  0.0396 -0.1812 -0.0809
31090W        W74028  24.885   7.406   1.992 -0.1922  0.1200 -0.3286
31091W        W74029  27.715   7.775  31.092 -0.0606 -0.0620 -0.4656
31092W        W74030  26.534   3.469   1.358  0.0964 -0.3690 -0.0817
31093W        W74031  27.380   5.505   1.769  0.0201 -0.1232  0.3145
31094W        W74032  28.019   3.320   0.755 -0.1292  0.0032 -0.0058
31095W        W74033  27.824   6.759   0.568 -0.1413  0.2322  0.1816
31096W        W74034  26.898   4.904   2.360  0.0840 -0.0310  0.0628
31097W        W74035  27.580   8.927   2.607  0.2536  0.0241 -0.1798
31098W        W74036  27.686   7.885   2.184  0.0425 -0.2529 -0.1221
31099W        W74037  25.715   8.389   2.244 -0.1156  0.0024  0.1927
31100W        W74038  24.018   5.128   0.005  0.0906 -0.0167  0.0889
31101W        W74039  28.790   4.662   1.040 -0.0762 -0.3177  0.0841
31102W        W74040  26.420   4.721   2.384 -0.1414  0.0694 -0.0991
31103W        W74041  29.149   5.286   2.937 -0.1327  0.0917 -0.1243
31104W        W74042  27.187   5.939   1.041  0.0989  0.2245 -0.2933
31105W        W74043  27.271   4.046  31.591  0.0394 -0.0991  0.3796
31106W        W74044  27.621   5.693   2.568 -0.0243  0.3993 -0.1902
31107W        W74045  26.419   4.716   1.870  0.5363  0.0330 -0.0384
31108W        W74046  25.120   5.321  31.597 -0.1662 -0.2087 -0.1161
31109W        W74047  27.984   6.104   2.937 -0.0921  0.3225  0.1676
31110W        W74048  26.850   5.534   1.265 -0.0405 -0.1727  0.2557
31111W        W74049  27.676   8.414   1.974 -0.1620  0.0190  0.4729
31112W        W74050  26.889   4.652   1.859  0.0541 -0.0087  0.1236
31113W        W74051  27.538   3.245   1.701 -0.0598  0.2623  0.1072
31114W        W74052  25.515   6.345   1.290 -0.1403 -0.1624  0.0181
31115W        W74053  27.561   4.170   1.617 -0.0961 -0.1221 -0.0656
31116W        W74054  28.017   8.803   2.860 -0.1493  0.1485 -0.2372
31117W        W74055  24.788   5.035   1.212  0.0402 -0.0751  0.1106
31118W        W74056  29.848   5.722   0.544 -0.3313  0.1858 -0.1722
31119W        W74057  29.454   5.214   1.663  0.3736 -0.0446  0.0708
31120W        W74058  27.277   7.404   0.024 -0.1140 -0.4407 -0.0317
31121W        W74059  28.554   4.201   1.747 -0.1327 -0.5173  0.1030
31122W        W74060  27.340   7.468   2.666  0.1346 -0.1053 -0.4747
31123W        W74061  26.435   5.145   2.679 -0.0663  0.2529  0.0671
31124W        W74062  28.065   6.639   3.792  0.0128  0.2135  0.1009
31125W        W74063  29.319   4.823   2.812 -0.0536 -0.1413  0.3581
31126W        W74064  27.533   2.605   1.298 -0.2103 -0.3464 -0.0553
31127W        W74065  26.668   4.239   1.958 -0.0295  0.3850 -0.0772
31128W        W74066  26.431   7.590   1.076  0.2022 -0.0883 -0.4666
31129W        W74067  28.708   4.301   2.634 -0.0385 -0.1673 -0.0258
31130W        W74068  28.208   4.439   2.725 -0.0268  0.2995  0.1903
31131W        W74069  26.901   7.263   0.415  0.0678  0.1969  0.0917
31132W        W74070  28.478   2.311   3.624 -0.3424  0.0795 -0.3170
31133W        W74071  27.491   6.410   4.276  0.1429 -0.0002  0.4162
31134W        W74072  26.651   8.261   1.845 -0.1657  0.0994 -0.0585
31135W        W74073  26.514   5.133   2.124  0.2724 -0.1779  0.2430
31136W        W74074  26.031   4.839   2.839  0.0661 -0.1448  0.1910
31137W        W74075  27.717   5.719   1.382 -0.0477  0.2457  0.0845
31138W        W74076  27.762   6.680   1.803  0.1122 -0.1107 -0.0795
31139W        W74077  27.517   5.504   3.422 -0.0683 -0.2744 -0.2430
31140W        W74078  27.740   5.228   1.106 -0.0090  0.4144 -0.0479
31141W        W74079  29.624   5.265   2.678 -0.2170 -0.0031  0.0340
31142W        W74080  27.278   2.828  31.912  0.1249  0.3385  0.0687
31143W        W74081  29.038   2.571   0.147  0.1027 -0.0442  0.2989
31144W        W74082  27.492   4.003  31.165 -0.4302  0.0028 -0.0349
31145W        W74083  26.588   6.245   3.113 -0.1774  0.0785  0.0574
31146W        W74084  25.124   5.752   0.470 -0.1136  0.0455  0.3598
31147W        W74085  25.876   6.785   1.421  0.1986  0.1643 -0.2409
31148W        W74086  26.544   7.046   2.402 -0.4960  0.4368 -0.0935
31149W        W74087  27.243   4.256   2.006  0.1905  0.0738  0.0756
31150W        W74088  24.672   5.106   4.009 -0.4602 -0.0970 -0.0170
31151W        W74089  26.531   6.312   1.725 -0.2323  0.1129 -0.4441
31152W        W74090  26.929   4.500   1.127  0.0971 -0.0409 -0.1343
31153W        W74091  28.390   7.110   0.358  0.1477 -0.1420 -0.0630
31154W        W74092  26.640   2.993   1.018  0.2482  0.0742 -0.0190
31155W        W74093  26.400   3.430   0.834 -0.0753 -0.1431 -0.0095
31156W        W74094  27.776   6.294   0.319 -0.3626 -0.0904  0.0898
31157W        W74095  26.605   7.568   0.658  0.2161 -0.3718  0.0166
31158W        W74096  26.538   4.471   1.426  0.4057  0.0680  0.4203
31159W        W74097  29.608   7.226   2.788 -0.2450  0.1316  0.2288
31160W        W74098  26.305   6.122  31.373  0.0634  0.4412 -0.1357
31161W        W74099  27.561   5.820   4.116  0.1920 -0.1152  0.1263
31162W        W74100  26.635   3.328   3.335  0.2896 -0.1258  0.1420
31163W        W74101  25.801   3.791  30.353  0.2872 -0.1775  0.0163
31164W        W74102  27.282   4.947   1.930  0.3192  0.5167  0.1585
31165W        W74103  28.749   7.650   1.844  0.3117  0.1277 -0.0400
31166W        W74104  29.388   7.497   0.219 -0.0095 -0.5373  0.1967
31167W        W74105  27.370   6.507   3.294 -0.0838 -0.3677  0.1209
31168W        W74106  26.855   7.312   3.378  0.0720  0.0946 -0.0337
31169W        W74107  25.585   2.690   2.061 -0.0136  0.0570  0.0180
31170W        W74108  28.731   3.723   0.709  0.1001  0.1325 -0.0825
31171W        W74109  27.028   8.101   2.743 -0.1649 -0.0994 -0.2352
31172W        W74110  29.326   4.662   1.062  0.0765  0.0852 -0.2222
31173W        W74111  28.128   2.913   1.060  0.2224 -0.0409 -0.2849
31174W        W74112  28.228   5.345   1.184 -0.0708 -0.4098  0.1674
31175W        W74113  25.901   4.765   3.806 -0.2518  0.1361 -0.0828
31176W        W74114  25.441   5.732   2.325  0.5690  0.0170  0.0358
31177W        W74115  28.408   5.910   2.027  0.0242  0.0297 -0.1212
31178W        W74116  27.077   3.160   1.586 -0.0275 -0.3627  0.0227
31179W        W74117  28.462   3.378   1.006 -0.1754  0.3508 -0.1118
31180W        W74118  28.738   6.920   0.668  0.2021 -0.0062 -0.0717
31181W        W74119  26.726   4.639   2.795 -0.0837  0.1948 -0.0934
31182W        W74120  25.630   4.814   1.148  0.0947  0.0125  0.0332
31183W        W74121  28.154   5.393   3.076  0.0195  0.2589  0.0956
31184W        W74122  27.113   6.306   2.933  0.2692  0.1032  0.2047
31185W        W74123  27.990   5.264   3.565 -0.0803 -0.2571  0.2565
31186W        W74124  27.417   4.803   1.162  0.1915 -0.2466 -0.1750
31187W        W74125  28.780   5.474   0.775 -0.1951  0.0934 -0.1290
31188W        W74126  27.876   8.318   3.075 -0.0631  0.1694 -0.2457
31189W        W74127  28.158   6.527   4.838 -0.0548  0.3734 -0.0144
31190W        W74128  26.313   5.712   2.393 -0.1800  0.0741 -0.0695
31191W        W74129  27.816   5.193   2.696 -0.2424  0.5634 -0.0167
31192W        W74130  25.959   2.528   2.321 -0.0323  0.0869  0.1694
31193W        W74131  27.723   5.627   2.039  0.0297  0.3384  0.0566
31194W        W74132  27.005   6.262   1.913 -0.2942 -0.5239 -0.2591
31195W        W74133  28.468   4.827   1.508  0.1300  0.2517 -0.1219
31196W        W74134  26.993   4.234   1.529  0.2654 -0.1457 -0.0326
31197W        W74135  28.603   4.253   0.805 -0.0829  0.1638  0.0589
31198W        W74136  26.047   8.695   3.929  0.0151 -0.0185  0.0138
31199W        W74137  26.638   4.937   3.196 -0.3816 -0.3795  0.1864
31200W        W74138  26.943   7.490   5.598  0.0706 -0.2681 -0.0504
31201W        W74139  27.140   4.395   4.337  0.1245 -0.0623 -0.1287
31202W        W74140  29.578   6.131   5.068 -0.1307 -0.0937  0.0255
31203W        W74141  29.082   6.163   4.812 -0.2280  0.0119 -0.2436
31204W        W74142  24.551   6.906   5.202  0.2367 -0.0375  0.1714
31205W        W74143  29.406   7.136   5.146 -0.0232  0.4385 -0.0536
31206W        W74144  26.045   3.899   6.125  0.0101  0.0181 -0.1331
31207W        W74145  28.552   6.476   5.588 -0.1584 -0.1269  0.0087
31208W        W74146  28.534   6.264   6.790 -0.1697  0.2610  0.3954
31209W        W74147  26.614   5.549   3.375 -0.1154  0.0230 -0.0434
31210W        W74148  25.995   6.360   5.724 -0.1330 -0.2429 -0.0086
31211W        W74149  26.612   7.274   5.957 -0.5219 -0.0871 -0.1686
31212W        W74150  27.385   4.550   3.807 -0.0868  0.1118  0.0826
31213W        W74151  26.101   4.234   5.789 -0.0498 -0.0684 -0.1677
31214W        W74152  27.823   5.767   5.508 -0.0238 -0.1360  0.0623
31215W        W74153  26.348   5.398   4.808  0.0771 -0.1629  0.0996
31216W        W74154  26.741   4.759   7.077 -0.3638 -0.0622  0.2506
31217W        W74155  26.528   5.985   4.154  0.1004  0.2701 -0.0096
31218W        W74156  29.362   7.377   4.057 -0.0622 -0.2432  0.1900
31219W        W74157  27.325   5.978   7.371  0.2446 -0.0340  0.3927
31220W        W74158  28.202   4.266   6.709  0.0295 -0.0449 -0.1836
31221W        W74159  28.113   6.664   4.297  0.1438 -0.2986 -0.0759
31222W        W74160  25.105   6.527   5.389  0.2041  0.0133 -0.2496
31223W        W74161  26.634   5.518   6.355 -0.1824 -0.0503 -0.1947
31224W        W74162  26.106   5.650   6.708  0.3257  0.1625  0.1472
31225W        W74163  28.216   4.714   6.458 -0.0349  0.0154  0.0318
31226W        W74164  28.660   4.239   6.437  0.0411 -0.1920  0.1618
31227W        W74165  27.607   8.633   5.161 -0.0199  0.2223  0.0740
31228W        W74166  28.398   5.512   5.262  0.3580  0.0573 -0.1302
31229W        W74167  27.775   5.937   5.973 -0.0601  0.0562 -0.0343
31230W        W74168  26.728   6.997   4.858  0.0720 -0.1690  0.1886
31231W        W74169  24.096   7.148   6.051  0.0766  0.0038  0.2752
31232W        W74170  27.617   7.116   3.032 -0.1925  0.1108  0.0314
31233W        W74171  27.934   6.512   5.272 -0.0809 -0.2250 -0.0807
31234W        W74172  27.858   6.952   6.653  0.2060 -0.1122 -0.0849
31235W        W74173  27.405   7.586   7.114  0.3361 -0.4143  0.2472
31236W        W74174  25.190   6.178   3.025  0.1954  0.0135 -0.1342
31237W        W74175  26.868   5.788   8.401  0.3113  0.3948 -0.1386
31238W        W74176  26.742   8.237   7.083 -0.1419  0.1308  0.0839
31239W        W74177  27.077   5.727   6.689  0.1770 -0.2859 -0.1961
31240W        W74178  28.747   5.329   5.583  0.4232  0.0272  0.1292
31241W        W74179  28.568   7.411   4.718 -0.0248 -0.0347 -0.1164
31242W        W74180  27.448   7.023   4.872  0.0015 -0.3548 -0.1498
31243W        W74181  27.036   6.308   7.096  0.0838  0.0565  0.0030
31244W        W74182  25.883   6.637   4.341 -0.1692  0.0734  0.2436
31245W        W74183  29.154   3.639   6.781  0.1543 -0.1285 -0.2679
31246W        W74184  26.177   7.347   3.200  0.1037 -0.1228  0.0323
31247W        W74185  28.262   6.112   3.683  0.2007 -0.0755  0.2395
31248W        W74186  26.003   5.240   3.919 -0.2617  0.0426 -0.0438
31249W        W74187  28.862   5.463   4.991 -0.0197  0.1459 -0.0415
31250W        W74188  27.988   4.369   7.247  0.0063  0.0393 -0.1872
31251W        W74189  26.737   7.549   4.436 -0.2686  0.0731 -0.2603
31252W        W74190  27.943   4.729   5.256 -0.2134 -0.0108  0.0742
31253W        W74191  27.624   5.713   7.027  0.2858 -0.0813 -0.0409
31254W        W74192  28.014   5.024   5.864  0.2835  0.2565 -0.0842
31255W        W74193  27.846   6.567   6.207 -0.0216  0.2468 -0.2612
31256W        W74194  26.690   7.978   7.817 -0.0838  0.0330 -0.1553
31257W        W74195  25.403   4.989   7.158  0.2121 -0.0780 -0.0807
31258W        W74196  29.355   7.678   2.976  0.2554  0.1332 -0.0028
31259W        W74197  30.230   8.269   5.350 -0.0664  0.1027  0.0428
31260W        W74198  28.731   4.974   5.174  0.0503  0.2003 -0.4305
31261W        W74199  26.124   4.201   5.164 -0.3189 -0.0622 -0.0843
31262W        W74200  26.673   7.104   5.462 -0.0338 -0.1597  0.0523
31263W        W74201  25.939   5.358   7.827 -0.0115 -0.2671 -0.0504
31264W        W74202  25.658   3.459   2.440  0.1422 -0.1646 -0.1286
31265W        W74203  28.331   7.185   6.673  0.1271  0.1277 -0.0030
31266W        W74204  25.628   7.317   5.648 -0.3433  0.0206  0.0250
31267W        W74205  29.369   3.831   4.848  0.1451  0.1168  0.1091
31268W        W74206  27.149   7.438   6.082 -0.0301 -0.1449  0.1660
31269W        W74207  29.872   6.549   4.755 -0.0188  0.2146 -0.0528
31270W        W74208  30.795   5.697   3.004  0.1155 -0.0504  0.1946
31271W        W74209  28.772   3.581   4.169 -0.1616  0.0938 -0.0105
31272W        W74210  26.677   4.575   5.177 -0.1991 -0.0620  0.1619
31273W        W74211  26.754   6.513   4.086 -0.1179  0.0151  0.2863
31274W        W74212  26.650   5.486   4.008 -0.0837 -0.1889 -0.1324
31275W        W74213  28.902   6.427   6.426  0.1695  0.0450 -0.1423
31276W        W74214  27.780   4.191   3.510  0.0645 -0.1555  0.2227
31277W        W74215  23.504   7.855   6.781  0.0421 -0.0852 -0.0384
31278W        W74216  28.577   5.029   6.595  0.0753 -0.5438  0.0638
31279W        W74217  28.701   6.618   7.162  0.2860  0.4501 -0.1467
31280W        W74218  26.550   8.906   3.111 -0.0916  0.0481  0.1468
31281W        W74219  27.262   5.744   5.686  0.2136 -0.1185  0.0880
31282W        W74220  25.936   5.044   4.379 -0.0328  0.1043 -0.0826
31283W        W74221  25.922   4.419   6.462 -0.0975 -0.2134 -0.0396
31284W        W74222  26.672   6.100   6.844  0.5352 -0.0319 -0.1266
31285W        W74223  28.433   3.728   4.842  0.0462 -0.0655  0.1557
31286W        W74224  26.754   4.284   6.989 -0.2549 -0.2028  0.4259
31287W        W74225  27.983   3.777   3.151 -0.0602  0.3662 -0.0229
31288W        W74226  26.413   6.247   5.522  0.0902 -0.0136  0.0510
31289W        W74227  29.672   7.031   4.654  0.2776  0.1339  0.1052
31290W        W74228  29.177   5.016   4.951 -0.1375  0.0815  0.4897
31291W        W74229  29.394   5.796   2.774  0.0904  0.2890  0.0518
31292W        W74230  25.123   5.783   6.742  0.2106  0.0268  0.4228
31293W        W74231  25.334   4.492   6.391 -0.0487 -0.1728 -0.1164
31294W        W74232  26.194   3.768   8.833  0.2027 -0.2346 -0.0955
31295W        W74233  26.219   4.801   5.035  0.2947  0.0852  0.0535
31296W        W74234  27.975   5.341   7.150 -0.4025  0.0428 -0.1854
31297W        W74235  24.600   4.650   4.208  0.1248  0.1414  0.1000
31298W        W74236  26.935   3.561   4.386 -0.0968 -0.2295 -0.1208
31299W        W74237  26.942   5.448   5.379 -0.3048 -0.2217  0.1661
31300W        W74238  25.719   5.229   5.607  0.0203 -0.1185  0.1938
31301W        W74239  28.264   3.373   5.422  0.2744 -0.1936 -0.0475
31302W        W74240  26.580   7.020   4.352  0.0938  0.2836 -0.0350
31303W        W74241  28.519   7.706   5.578 -0.0669  0.0143 -0.0951
31304W        W74242  28.849   8.419   5.549 -0.2207 -0.1425  0.1717
31305W        W74243  26.525   5.109   6.083  0.3314 -0.0174 -0.3232
31306W        W74244  27.083   5.209   3.840 -0.4983 -0.0703 -0.0545
31307W        W74245  26.287   6.975   5.143 -0.1585  0.0806 -0.1924
31308W        W74246  27.418   5.664   4.671 -0.0306 -0.1079  0.1725
31309W        W74247  26.461   4.945   4.591  0.0744  0.0452 -0.0010
31310W        W74248  29.389   8.263   6.547  0.1034 -0.1853  0.1344
31311W        W74249  26.894   5.657   4.868  0.1093  0.3116  0.1775
31312W        W74250  26.229   5.934   7.163 -0.0869 -0.2258 -0.1556
31313W        W74251  27.045   4.469   7.402 -0.2258  0.0966 -0.0475
31314W        W74252  28.292   5.767   7.283  0.1349  0.0665 -0.1698
31315W        W74253  28.379   4.807   5.561  0.0486  0.1931 -0.1771
31316W        W74254  27.231   5.212   4.833  0.0596  0.1434 -0.1905
31317W        W74255  27.631   6.539   4.851 -0.0736  0.0839  0.0114
31318W        W74256  26.141   6.826   3.832 -0.3424 -0.0483 -0.0613
31319W        W74257  25.395   4.720   5.543  0.4984  0.0722  0.2627
31320W        W74258  27.533   6.187   5.600 -0.2041 -0.2952 -0.0624
31321W        W74259  27.879   4.263   5.417  0.2701 -0.5550 -0.1908
31322W        W74260  24.935   6.430   7.555  0.0275  0.4249  0.2346
31323W        W74261  27.511   5.425   6.640 -0.2585 -0.1213 -0.0647
31324W        W74262  27.373   7.075   3.940  0.0664 -0.0029  0.0529
31325W        W74263  25.808   7.558   7.717 -0.3928 -0.2278 -0.2570
31326W        W74264  27.419   3.874   3.519 -0.1347  0.0175  0.0450
31327W        W74265  28.889   5.033   4.154  0.0183 -0.1161 -0.0038
31328W        W74266  27.211   5.435   7.092 -0.2157 -0.0342  0.0357
31329W        W74267  28.810   6.822   6.076 -0.0872  0.4540  0.3451
31330W        W74268  27.864   3.755   5.196  0.1016  0.1424 -0.0230
31331W        W74269  27.676   4.408   4.466  0.1806 -0.0239 -0.0159
31332W        W74270  26.409   6.532   6.925  0.1979 -0.2112  0.0559
31333W        W74271  26.896   6.524   5.486 -0.2438  0.2048  0.0439
31334W        W74272  27.660   6.018   6.616  0.2547 -0.3686 -0.0751
31335W        W74273  27.653   4.873   4.199  0.3965 -0.2437  0.2711
31336W        W74274  30.219   7.624   5.135 -0.1885  0.1015 -0.1779
31337W        W74275  26.124   7.210   5.574 -0.0609 -0.0054  0.1625
31338W        W74276  27.568   6.014   7.788  0.0337  0.0252 -0.2077
31339W        W74277  27.436   6.242   6.183 -0.0689  0.3659 -0.0523
31340W        W74278  27.421   5.030   3.533 -0.2459  0.0436 -0.0344
31341W        W74279  27.915   4.706   3.619  0.1807 -0.4648  0.0752
31342W        W74280  25.596   7.782   3.791  0.1933 -0.0753 -0.4627
31343W        W74281  27.294   4.786   6.015  0.0726 -0.0651  0.0219
31344W        W74282  26.754   5.043   5.645  0.0525 -0.1067  0.1810
31345W        W74283  28.195   3.792   6.639  0.0015  0.3713 -0.1460
31346W        W74284  29.884   4.701   6.574  0.0873  0.2781  0.0673
31347W        W74285  28.917   6.313   3.050  0.0191  0.2389  0.4732
31348W        W74286  27.686   4.494   6.280 -0.0293  0.0837 -0.1966
31349W        W74287  26.381   4.507   3.124 -0.0872  0.1498  0.0591
31350W        W74288  26.350   4.482   7.274 -0.1479  0.1825  0.0362
31351W        W74289  25.758   5.898   7.102  0.2630 -0.0236  0.1094
31352W        W74290  26.507   7.219   7.381 -0.0471  0.0465  0.0663
31353W        W74291  28.273   6.766   6.952  0.0509 -0.1475  0.0105
31354W        W74292  28.211   5.963   4.824 -0.0128  0.1309  0.0195
31355W        W74293  29.003   3.482   7.382  0.1053  0.2114 -0.2421
31356W        W74294  27.794   4.449   4.011 -0.1003 -0.0103 -0.0133
31357W        W74295  26.264   7.434   2.572 -0.1592 -0.0057  0.0712
31358W        W74296  25.742   5.549   4.251 -0.0362 -0.1192 -0.2266
31359W        W74297  26.634   4.836   7.545  0.1000  0.3541 -0.2631
31360W        W74298  26.467   7.629   5.111 -0.1783 -0.2451 -0.0477
31361W        W74299  27.523   7.463   3.425  0.2534  0.1224  0.0088
31362W        W74300  26.867   5.821   7.205 -0.1481  0.2520 -0.1721
31363W        W74301  27.264   7.851   4.691  0.0417  0.0795  0.2894
31364W        W74302  28.685   4.216   5.937 -0.0765 -0.1242 -0.0708
31365W        W74303  26.628   8.288   6.198  0.2658 -0.0577  0.0677
31366W        W74304  26.125   5.813   3.232  0.0192  0.3089  0.0478
31367W        W74305  26.203   6.489   6.254 -0.4166  0.1129 -0.0660
31368W        W74306  28.232   4.752   4.006 -0.2306  0.1871  0.3958
31369W        W74307  28.717   5.915   3.429  0.2013  0.1654 -0.0683
31370W        W74308  25.555   5.456   6.987  0.1243  0.0541  0.3322
31371W        W74309  28.315   4.542   6.038 -0.0678 -0.2229  0.1586
31372W        W74310  26.200   7.399   6.777 -0.1359 -0.0044  0.0127
31373W        W74311  27.543   6.285   7.009  0.1303 -0.0329 -0.2959
31374W        W74312  27.273   5.313   4.331  0.0723  0.2123  0.1454
31375W        W74313  28.269   8.048   7.591  0.1888  0.1343 -0.1682
31376W        W74314  26.756   7.521   7.011 -0.1245  0.3470  0.1382
31377W        W74315  25.104   3.813   4.440  0.0441 -0.2979 -0.0520
31378W        W74316  27.639   5.104   6.201  0.1348  0.2112 -0.1725
31379W        W74317  26.613   5.103   5.170 -0.0066 -0.0557 -0.3939
31380W        W74318  26.062   7.236   4.131  0.0656  0.3876 -0.4246
31381W        W74319  27.435   6.741   5.311  0.4303  0.0339  0.0968
31382W        W74320  26.677   4.467   4.104 -0.0411  0.2212  0.1334
31383W        W74321  27.809   6.611   3.108 -0.3767  0.1775 -0.2663
31384W        W74322  26.956   5.176   6.787 -0.0814  0.3328 -0.2818
31385W        W74323  27.990   4.863   7.237  0.4023  0.1957 -0.1640
31386W        W74324  26.501   3.880   7.209  0.0009  0.1692  0.1586
31387W        W74325  27.202   4.495   6.897  0.1930  0.0370  0.1250
31388W        W74326  27.084   4.933   5.212 -0.0106 -0.1551  0.0994
31389W        W74327  27.931   6.489   6.683 -0.3771 -0.1988 -0.3591
31390W        W74328  27.172   4.934   7.366  0.2268 -0.2570  0.1836
31391W        W74329  27.483   6.618   6.606 -0.1105 -0.1766  0.1021
31392W        W74330  27.036   4.062   5.260 -0.1366  0.0491 -0.1283
31393W        W74331  28.890   7.838   4.453 -0.0148  0.1173  0.0282
31394W        W74332  27.268   6.508   8.499  0.1955 -0.2795 -0.1763
31395W        W74333  27.088   6.875   4.288 -0.3491 -0.0908 -0.1983
31396W        W74334  25.575   5.547   6.018  0.2119 -0.3882 -0.0091
31397W        W74335  26.032   5.921   4.140 -0.2477 -0.3435 -0.0858
31398W        W74336  27.445   5.359   5.362 -0.1467 -0.1354  0.2063
31399W        W74337  27.530   9.110   5.530 -0.0698  0.1774  0.0159
31400W        W74338  26.738   8.254   4.324 -0.0813  0.1269 -0.0117
31401W        W74339  26.628   7.047   6.873  0.2677 -0.0668  0.2269
31402W        W74340  27.767   5.016   3.142  0.2339  0.0727 -0.0868
31403W        W74341  29.226   4.199   5.232 -0.0753  0.3094  0.0198
31404W        W74342  27.931   5.598   6.250  0.0172 -0.2683 -0.0886
31405W        W74343  29.765   3.889   7.410  0.0018 -0.0916  0.1387
31406W        W74344  28.592   6.547   5.121  0.1732  0.0242 -0.0989
31407W        W74345  27.568   5.090   7.035  0.1005 -0.1257 -0.2080
31408W        W74346  26.297   4.945   7.163 -0.1497 -0.0463 -0.3931
31409W        W74347  28.246   6.089   5.398 -0.2064  0.1974 -0.1105
31410W        W74348  25.793   5.053   7.442  0.0309  0.0328 -0.4349
31411W        W74349  27.411   7.018   7.729 -0.1765 -0.1735 -0.4336
31412W        W74350  26.347   5.501   7.631  0.3695 -0.0650 -0.1494
31413W        W74351  27.390   3.749   5.477  0.0346  0.1054  0.4454
31414W        W74352  26.806   5.307   4.513  0.1575  0.0098 -0.5623
31415W        W74353  26.976   5.889   6.232  0.0281  0.1654  0.1222
31416W        W74354  27.167   6.213   6.629 -0.1424 -0.0740 -0.1819
31417W        W74355  26.955   5.725   4.336  0.2392 -0.0799  0.2225
31418W        W74356  27.376   4.770   4.598 -0.3626  0.0633 -0.0536
31419W        W74357  25.306   6.342   4.842 -0.3660  0.0969 -0.0410
31420W        W74358  28.821   4.642   6.171 -0.0409 -0.1518  0.0309
31421W        W74359  28.225   4.985   4.523 -0.2358 -0.4025  0.1724
31422W        W74360  27.150   7.507   3.813 -0.0063 -0.0420 -0.2568
31423W        W74361  26.965   2.526   6.904  0.2912 -0.0725 -0.0639
31424W        W74362  28.000   6.319   5.791 -0.2572  0.1249 -0.0511
31425W        W74363  27.728   2.839   5.168  0.2934 -0.0427  0.0750
31426W        W74364  26.894   4.713   6.602  0.4069  0.1904  0.1966
31427W        W74365  27.350   4.862   6.608 -0.1884  0.1073  0.0813
31428W        W74366  27.225   4.842   8.449  0.0658  0.0400 -0.0095
31429W        W74367  27.828   3.998   7.539 -0.2348 -0.2310 -0.1688
31430W        W74368  28.568   9.155   6.697 -0.1885 -0.3993 -0.0323
31431W        W74369  28.323   3.531   2.851 -0.3424 -0.2640 -0.1192
31432W        W74370  28.428   5.248   7.012  0.0083 -0.3167  0.0108
31433W        W74371  28.681   6.035   5.063 -0.0977  0.0821  0.0734
31434W        W74372  27.492   5.842   3.022  0.2134  0.0784  0.1808
31435W        W74373  26.435   4.684   5.601  0.2943 -0.1418 -0.1243
31436W        W74374  28.604   4.524   8.097 -0.0118  0.0986 -0.0288
31437W        W74375  26.467   5.855   4.685 -0.0675 -0.0140 -0.3303
31438W        W74376  28.348   3.980   7.307  0.1549  0.0237 -0.1342
31439W        W74377  27.714   7.614   3.888 -0.1685 -0.1673 -0.0120
31440W        W74378  28.277   6.917   5.268  0.2321  0.1514  0.0966
31441W        W74379  29.330   5.537   4.839 -0.1586  0.2343  0.0590
31442W        W74380  25.768   5.321   6.475 -0.1446 -0.0146  0.3470
31443W        W74381  26.778   7.925   6.656  0.1906 -0.1158  0.1676
31444W        W74382  26.416   5.018   4.112 -0.0875  0.1270  0.3031
31445W        W74383  27.016   4.881   4.215 -0.0339  0.0922 -0.0587
31446W        W74384  27.438   5.651   6.181  0.2035  0.0747 -0.0422
31447W        W74385  29.305   5.856   7.169 -0.1015 -0.2243  0.0785
31448W        W74386  26.409   5.155   3.636 -0.2568  0.0369 -0.0171
31449W        W74387  28.046   4.135   6.192  0.1897  0.0682 -0.0462
31450W        W74388  26.172   5.656   3.728 -0.0709  0.3918  0.0365
31451W        W74389  25.658   3.819   5.171 -0.2191  0.0697  0.2023
31452W        W74390  27.048   8.414   6.583  0.1124 -0.2050 -0.5458
31453W        W74391  25.842   6.036   6.129 -0.1451 -0.1789  0.0868
31454W        W74392  27.377   6.596   5.795  0.1179  0.0964  0.0020
31455W        W74393  28.262   5.081   5.043  0.0611 -0.0581 -0.2147
31456W        W74394  27.733   4.113   6.598 -0.1081  0.1682  0.1154
31457W        W74395  27.809   5.526   5.021  0.0029 -0.2822  0.0456
31458W        W74396  29.490   5.531   6.807 -0.0876 -0.2259  0.0255
31459W        W74397  26.821   5.777   7.706  0.0688  0.2244  0.0893
31460W        W74398  26.179   7.012   6.445 -0.2194  0.0291  0.0664
31461W        W74399  27.858   6.809   7.691 -0.0820  0.1523  0.0591
31462W        W74400  30.648   4.303   6.895  0.2535 -0.1281 -0.2990
31463W        W74401  27.378   6.149   4.690  0.3502  0.0022 -0.0397
31464W        W74402  25.930   4.037   7.118 -0.1410 -0.2591  0.0502
31465W        W74403  26.913   4.398   8.195  0.0166 -0.2135  0.0730
31466W        W74404  27.449   3.954   4.989  0.1727 -0.2646 -0.3857
31467W        W74405  25.675   4.387   4.244 -0.0958  0.2352 -0.0861
31468W        W74406  27.576   6.844   4.446 -0.1860 -0.3355  0.2899
31469W        W74407  27.604   7.393   6.407  0.1484 -0.0151 -0.0621
31470W        W74408  24.759   4.936   6.100 -0.0357  0.0044 -0.1590
31471W        W74409  24.917   7.169   3.377 -0.2592  0.0391 -0.3978
31472W        W74410  28.991   6.583   3.926 -0.1527  0.0916  0.0217
31473W        W74411  27.548   4.449   5.118  0.2370 -0.2612 -0.0134
31474W        W74412  28.291   8.546   5.630  0.1799  0.2698 -0.0782
31475W        W74413  28.688   5.180   3.004  0.0006 -0.2735  0.0727
31476W        W74414  26.350   7.344   4.704 -0.0420 -0.0797 -0.1683
31477W        W74415  25.969   6.974   2.877 -0.1025  0.0906 -0.1117
31478W        W74416  29.074   7.539   5.035  0.0594  0.2103  0.3728
31479W        W74417  26.036   7.474   3.729  0.3217  0.1859 -0.3575
31480W        W74418  28.439   5.022   6.086 -0.0232  0.4164  0.0047
31481W        W74419  29.078   3.769   3.478 -0.1869 -0.0323 -0.2014
31482W        W74420  29.947   5.710   5.029  0.2717 -0.0937  0.0849
31483W        W74421  28.107   5.256   4.114  0.0048 -0.1251 -0.0133
31484W        W74422  27.646   6.843   8.400 -0.0127  0.3434 -0.0168
31485W        W74423  27.057   6.958   5.852  0.3781 -0.1485 -0.1258
31486W        W74424  27.100   4.805   3.232  0.0793 -0.0501  0.2034
31487W        W74425  24.851   4.852   7.184  0.1066  0.3074  0.3983
31488W        W74426  30.070   3.797   6.534 -0.0690 -0.1883 -0.0416
31489W        W74427  26.653   5.522   5.777  0.1586 -0.1440  0.1774
31490W        W74428  27.845   7.279   5.345 -0.1270 -0.1007  0.4016
31491W        W74429  25.701   4.628   5.972 -0.4485  0.0984  0.0390
31492W        W74430  27.200   5.231   5.811 -0.2757  0.1323  0.4188
31493W        W74431  28.963   3.409   5.701  0.1306 -0.3528  0.1354
31494W        W74432  27.721   5.046   5.012 -0.2166 -0.0725  0.0284
31495W        W74433  26.656   4.264   6.486  0.1477 -0.4643 -0.0446
31496W        W74434  28.061   7.684   4.188  0.0282 -0.2282  0.2099
31497W        W74435  26.831   5.977   5.401 -0.4589 -0.1516 -0.0431
31498W        W74436  27.070   6.622   4.749  0.4685 -0.3365  0.0083
31499W        W74437  25.589   4.804   4.617 -0.3880 -0.2379  0.0723
31500W        W74438  29.907   3.751   4.437  0.1808  0.0269 -0.0772
31501W        W74439  27.428   4.383   8.310  0.1830  0.1479 -0.0249
31502W        W74440  28.923   3.749   6.032 -0.2066 -0.0233 -0.1068
31503W        W74441  26.557   6.581   5.164  0.0659  0.3870  0.0525
31504W        W74442  29.059   5.383   4.447 -0.1279  0.2729 -0.1026
31505W        W74443  27.072   6.183   5.827 -0.1836  0.0176  0.2695
31506W        W74444  25.408   6.210   6.712 -0.1139  0.3108 -0.1003
31507W        W74445  27.927   5.640   4.451 -0.0223 -0.1245 -0.1917
31508W        W74446  28.996   5.460   6.771 -0.0747 -0.1491  0.1310
31509W        W74447  28.099   4.400   3.199 -0.1512 -0.2765 -0.3753
31510W        W74448  27.608   7.887   8.113  0.1946  0.5163 -0.1134
31511W        W74449  26.528   4.461   4.689 -0.1636  0.0586  0.3663
31512W        W74450  26.960   4.516   5.612 -0.3055 -0.2039 -0.0294
31513W        W74451  26.917   6.230   4.506 -0.1087 -0.0939  0.5224
31514W        W74452  27.097   6.910   9.296  0.0747  0.6373  0.1764
31515W        W74453  28.072   7.107   8.347  0.2473 -0.3719  0.0984
31516W        W74454  26.740   4.107   4.421  0.0475 -0.3978  0.4162
31517W        W74455  28.913   6.678   4.686  0.2026 -0.2216  0.1491
31518W        W74456  29.401   5.136   3.428  0.0397  0.1916  0.1377
31519W        W74457  27.329   8.072   3.150  0.2777  0.2266  0.2119
31520W        W74458  27.575   4.908   5.597 -0.0167 -0.2198 -0.2078
31521W        W74459  26.724   6.206   4.950  0.0644  0.3950  0.1037
31522W        W74460  26.617   5.977   5.937 -0.1466 -0.2592 -0.2234
31523W        W74461  27.856   7.536   5.935 -0.1557 -0.0432 -0.0304
31524W        W74462  28.290   6.678   6.420  0.0872  0.1579  0.2901
31525W        W74463  26.996   3.638   4.903 -0.0350  0.3140 -0.0789
31526W        W74464  26.908   4.834   4.717 -0.1513  0.0024 -0.1243
31527W        W74465  24.922   6.586   2.729 -0.2893 -0.0535  0.0845
31528W        W74466  28.015   4.615   4.787 -0.0976  0.0126 -0.0498
31529W        W74467  27.663   4.980   8.084  0.1694 -0.3909  0.0770
31530W        W74468  28.367   7.652   3.127  0.0481  0.2322 -0.4112
31531W        W74469  30.004   4.475   6.999 -0.1789  0.2217  0.4621
31532W        W74470  28.133   7.547   6.371 -0.0576  0.0564 -0.2643
31533W        W74471  26.273   6.988   8.375  0.0753  0.0520 -0.0217
31534W        W74472  24.792   4.278   3.824 -0.1213 -0.1543  0.0751
31535W        W74473  27.276   5.777   8.107 -0.0196 -0.1917 -0.0749
31536W        W74474  27.242   6.261   5.201 -0.1439 -0.1534 -0.3099
31537W        W74475  27.162   6.097   3.988  0.1278 -0.0480 -0.0488
31538W        W74476  28.915   8.065   5.226 -0.2579  0.1868 -0.0518
31539W        W74477  27.926   5.209   5.404  0.0832 -0.0487  0.0015
31540W        W74478  28.679   7.087   5.668 -0.2262 -0.0433  0.1072
31541W        W74479  26.479   5.625   5.271  0.0787  0.0924 -0.0121
31542W        W74480  30.117   4.276   4.433 -0.0295  0.2101 -0.2497
31543W        W74481  28.682   3.285   4.791  0.0610 -0.0878  0.2078
31544W        W74482  27.310   6.708   7.127 -0.0357 -0.0462 -0.2383
31545W        W74483  25.301   5.912   4.043 -0.1245  0.2117  0.0604
31546W        W74484  25.122   5.279   3.166 -0.0558 -0.0220 -0.0624
31547W        W74485  26.253   6.890   5.905  0.1638  0.3203  0.1323
31548W        W74486  26.830   2.573   8.376 -0.2569 -0.3102  0.1353
31549W        W74487  27.267   5.234   8.050  0.2650 -0.2750  0.1696
31550W        W74488  25.653   5.793   6.564  0.2948 -0.0407 -0.0125
31551W        W74489  26.857   4.792   3.678 -0.1048 -0.0312 -0.2555
31552W        W74490  27.839   6.809   5.685 -0.1896  0.2089 -0.1629
31553W        W74491  27.217   3.453   5.980  0.0092  0.1170 -0.0330
31554W        W74492  24.813   3.505   4.130  0.3056  0.3679  0.0666
31555W        W74493  27.304   5.819   5.198 -0.0870  0.0077  0.1332
31556W        W74494  28.589   7.872   4.927 -0.0772 -0.1363  0.0191
31557W        W74495  27.332   3.962   4.488  0.0701  0.2896 -0.1718
31558W        W74496  28.697   7.881   7.775  0.1916  0.1983 -0.0123
31559W        W74497  26.283   5.494   4.306 -0.0153  0.1549  0.1044
31560W        W74498  27.738   5.505   8.123  0.3459 -0.1234 -0.0257
31561W        W74499  27.041   5.155   6.311 -0.3633 -0.1857  0.0775
31562W        W74500  25.068   4.708   5.131 -0.2356  0.1270 -0.0860
31563W        W74501  26.351   4.598   6.144 -0.0965  0.0166  0.1595
31564W        W74502  27.022   7.812   5.241  0.1824 -0.0541 -0.1937
31565W        W74503  28.489   6.916   4.787  0.0208 -0.1086 -0.1075
31566W        W74504  27.484   6.953   6.152  0.1046 -0.0065  0.1898
31567W        W74505  27.761   7.067   7.127  0.0342  0.0739 -0.0240
31568W        W74506  25.237   3.801   7.532  0.1230 -0.1138 -0.0421
31569W        W74507  28.891   4.886   5.772  0.1556 -0.5844 -0.1189
31570W        W74508  26.866   6.244   8.122  0.0294 -0.1802 -0.0246
31571W        W74509  29.274   5.328   3.933  0.2542 -0.1074  0.1511
31572W        W74510  26.393   4.627   6.708  0.0453 -0.2564  0.0027
31573W        W74511  27.842   4.521   5.820  0.0354  0.1355  0.0186
31574W        W74512  25.535   4.191   8.292  0.4894  0.0930  0.1647
31575W        W74513  27.254   4.093   7.784 -0.0418  0.0138 -0.0193
31576W        W74514  28.661   5.998   6.358 -0.0231  0.1556  0.0577
31577W        W74515  25.944   4.494   4.660  0.1409 -0.0302  0.1456
31578W        W74516  28.954   4.526   4.929  0.0186  0.3955  0.0922
31579W        W74517  28.792   5.842   4.537 -0.1410  0.2497 -0.0794
31580W        W74518  26.626   5.592   6.873 -0.0555  0.3749  0.1136
31581W        W74519  27.073   4.384   4.892  0.1359  0.0979  0.1508
31582W        W74520  27.707   5.577   7.520  0.2252 -0.0334  0.2220
31583W        W74521  26.664   6.295   6.330 -0.3279 -0.0061 -0.0485
31584W        W74522  27.963   5.119   6.604  0.0969  0.2272  0.0276
31585W        W74523  26.245   6.407   4.080  0.1947 -0.0846 -0.0782
31586W        W74524  28.312   6.789   5.889  0.1648  0.0098  0.2375
31587W        W74525  28.497   7.703   6.943 -0.1001 -0.1637 -0.2294
31588W        W74526  27.849   7.787   7.243  0.1005 -0.1061  0.2950
31589W        W74527  27.189   7.188   5.342  0.0211 -0.1996 -0.1448
31590W        W74528  28.882   5.118   6.188  0.0762 -0.0708  0.1941
31591W        W74529  25.611   4.139   6.147  0.2718  0.0078 -0.0458
31592W        W74530  25.997   5.683   5.196 -0.0345  0.3418 -0.0066
31593W        W74531  27.673   5.415   5.836  0.0287 -0.1664  0.3962
31594W        W74532  29.118   4.157   6.225 -0.2151  0.0271 -0.0339
31595W        W74533  26.294   4.201   3.913 -0.3810 -0.1377 -0.3220
31596W        W74534  26.607   4.166   3.454 -0.2237 -0.0685 -0.0562
31597W        W74535  28.005   8.161   6.409  0.0692 -0.1897  0.1027
31598W        W74536  28.305   5.480   4.770  0.0862 -0.1252  0.2361
31599W        W74537  26.964   5.896   8.941 -0.1304 -0.2939  0.0691
31600W        W74538  26.359   5.549   9.726 -0.1475 -0.2150  0.1422
31601W        W74539  28.654   4.587   7.326 -0.1328 -0.0105 -0.1636
31602W        W74540  28.195   5.840   9.061 -0.2728 -0.1271  0.1441
31603W        W74541  25.888   3.750   9.240 -0.1657  0.2580 -0.2813
31604W        W74542  28.076   7.586   8.128 -0.0440  0.1137 -0.1555
31605W        W74543  30.193   5.900   9.963  0.0330 -0.0523 -0.2560
31606W        W74544  29.819   6.501   9.250 -0.1320  0.3954 -0.3520
31607W        W74545  27.840   6.087   7.359 -0.0606 -0.2687 -0.0486
31608W        W74546  27.397   7.026  10.307 -0.0559 -0.0427  0.3288
31609W        W74547  26.964   3.138   9.915 -0.1573 -0.0522 -0.0993
31610W        W74548  25.610   1.281   9.803 -0.3704  0.1203  0.0902
31611W        W74549  28.012   5.984  10.484 -0.0165 -0.1491  0.0195
31612W        W74550  27.465   4.825   9.481  0.2337  0.1241 -0.2876
31613W        W74551  28.519   4.824   9.344 -0.1054 -0.3368 -0.1150
31614W        W74552  26.300   7.420  10.333 -0.2509 -0.1456  0.2258
31615W        W74553  27.862   7.345   8.889  0.1408 -0.3675 -0.3479
31616W        W74554  27.757   2.035   9.560  0.2782 -0.0999 -0.2090
31617W        W74555  27.771   7.404   9.389 -0.0562  0.0064  0.1013
31618W        W74556  26.076   4.936   6.380 -0.0638 -0.1111  0.3084
31619W        W74557  26.294   4.538   9.439 -0.0460  0.1785  0.2145
31620W        W74558  26.188   8.355   9.988 -0.0625 -0.1609  0.0020
31621W        W74559  26.351  33.878  12.706  0.0740 -0.0946 -0.2198
31622W        W74560  28.263   3.691   9.306  0.1628  0.2415 -0.1105
31623W        W74561  27.286   8.806   9.570  0.1655  0.0919 -0.0061
31624W        W74562  29.096   7.498   9.766 -0.0460  0.1961 -0.0457
31625W        W74563  25.570   7.398   9.880 -0.2326 -0.1131  0.1538
31626W        W74564  24.913   8.240   9.542  0.4935 -0.1110 -0.2243
31627W        W74565  26.703   6.273   8.593 -0.2202  0.2575 -0.0591
31628W        W74566  28.732   5.637   8.825  0.0088  0.0977 -0.0570
31629W        W74567  27.310   4.828   8.990  0.1676 -0.0674 -0.1825
31630W        W74568  26.640   7.039  10.151  0.2705  0.0914 -0.3033
31631W        W74569  29.073   5.526   9.230  0.1289  0.1820  0.0553
31632W        W74570  25.254   6.120   9.055  0.2860  0.1699 -0.1121
31633W        W74571  27.116   7.358  10.019  0.0932  0.3484  0.0247
31634W        W74572  26.198   6.682  10.188  0.0901 -0.1086  0.0076
31635W        W74573  27.828   6.568   7.261  0.1888  0.1220  0.2292
31636W        W74574  29.315   5.172   7.173  0.0413  0.1042 -0.2508
31637W        W74575  27.983   5.133   8.423 -0.1475 -0.2867 -0.1085
31638W        W74576  28.691   5.823   8.091  0.3095 -0.1002 -0.0473
31639W        W74577  26.848   5.849  10.379  0.4041 -0.4886  0.1147
31640W        W74578  27.107   7.471   8.595  0.2608  0.2272  0.0352
31641W        W74579  28.228   5.459  10.340 -0.0001  0.0457  0.2710
31642W        W74580  27.968   4.876   9.321  0.0273  0.0616 -0.0920
31643W        W74581  28.898   6.643   9.511  0.1242 -0.1563 -0.1753
31644W        W74582  26.783   6.079   9.968  0.0358 -0.0241 -0.0581
31645W        W74583  26.598   3.626   9.798 -0.0497 -0.0573 -0.2382
31646W        W74584  28.255   6.974   8.873  0.0873  0.2492 -0.1020
31647W        W74585  29.201   8.156   8.209  0.0982  0.2774  0.2021
31648W        W74586  27.241   8.135   7.880 -0.0199  0.2814  0.0236
31649W        W74587  25.663   6.216   9.334 -0.1933 -0.1093  0.1294
31650W        W74588  26.152   4.184   9.164 -0.1144 -0.0372 -0.0564
31651W        W74589  28.919   4.109   9.230  0.3862 -0.2404  0.0882
31652W        W74590  26.727   6.614   9.500  0.0301  0.1701 -0.0154
31653W        W74591  29.296   6.218   9.476  0.2265 -0.1651  0.1550
31654W        W74592  28.161   6.438   7.813  0.0167 -0.1530  0.1187
31655W        W74593  28.824   1.656   9.564 -0.0090 -0.3472 -0.2234
31656W        W74594  28.420   5.530   9.415 -0.1196 -0.0499  0.0876
31657W        W74595  27.020   3.960   8.624  0.2330 -0.0662 -0.0299
31658W        W74596  26.548   6.324   9.143 -0.3002  0.1917  0.1479
31659W        W74597  28.798   7.571   9.334  0.0489  0.0719  0.0451
31660W        W74598  28.770   6.301   8.224 -0.1863 -0.1738  0.1234
31661W        W74599  26.437   6.780   8.778  0.3201 -0.2203  0.2209
31662W        W74600  26.791   6.717   7.242 -0.0458  0.0899  0.1518
31663W        W74601  27.864   5.759   9.519  0.0219 -0.1557  0.1424
31664W        W74602  26.768   6.736   8.291  0.0699 -0.0478  0.0792
31665W        W74603  26.120   4.693   9.859 -0.2996 -0.0991  0.2466
31666W        W74604  26.901   6.997   8.707 -0.1255  0.0351  0.1013
31667W        W74605  28.910   4.506   7.765  0.0390 -0.0789 -0.2241
31668W        W74606  29.803   3.147   8.798  0.0124 -0.0295 -0.0491
31669W        W74607  25.247   6.977   9.275  0.0278  0.0238  0.0932
31670W        W74608  29.006   8.503   9.089  0.0178  0.0245 -0.0160
31671W        W74609  28.051   5.254   7.843 -0.0242 -0.2639 -0.1605
31672W        W74610  27.442   6.492   7.584  0.3458 -0.1959 -0.1672
31673W        W74611  25.490   4.874   9.465  0.1594 -0.2079  0.0553
31674W        W74612  25.907   4.314  10.252 -0.3725  0.0727  0.1214
31675W        W74613  27.016   5.334  10.638 -0.3364 -0.1401  0.1082
31676W        W74614  26.684   4.099   7.729  0.0994 -0.1178 -0.0142
31677W        W74615  29.427   4.417   7.582  0.0376  0.2687  0.0949
31678W        W74616  27.495   5.366   9.316 -0.1221  0.1236 -0.1369
31679W        W74617  25.945   5.724   8.191 -0.1266 -0.4425  0.1085
31680W        W74618  27.056   6.250   9.312 -0.4131 -0.1209  0.3356
31681W        W74619  26.739   8.399   9.995  0.0877  0.0859 -0.2642
31682W        W74620  28.703   7.750   8.862 -0.0768 -0.0217  0.1716
31683W        W74621  27.347   7.701  10.320 -0.0376  0.2176 -0.2830
31684W        W74622  27.006   5.214   9.482 -0.1042  0.0483 -0.2736
31685W        W74623  26.518   9.713   9.654  0.1341  0.0149 -0.0109
31686W        W74624  27.026   8.010   9.114  0.0624  0.0076 -0.0630
31687W        W74625  28.658   3.097   7.262  0.0586  0.0600 -0.0894
31688W        W74626  29.179   7.549   8.767  0.2930 -0.2981  0.0189
31689W        W74627  28.867   6.086   8.686  0.0300 -0.0504 -0.0496
31690W        W74628  30.346   4.990   8.554  0.0112  0.0118 -0.0287
31691W        W74629  28.165   4.827   8.790  0.3232  0.0670  0.1001
31692W        W74630  26.153   4.141   7.610  0.2237  0.1391 -0.1310
31693W        W74631  27.389   7.893   9.509 -0.0105  0.1375  0.0320
31694W        W74632  27.066   6.568   6.226  0.2015  0.1787  0.2419
31695W        W74633  26.614   3.534   8.376  0.2779 -0.2256 -0.1212
31696W        W74634  29.957   4.640   9.427  0.1579  0.1355  0.0976
31697W        W74635  26.587   5.375   9.311  0.0333  0.0277 -0.1859
31698W        W74636  28.002   2.945   8.441 -0.0464 -0.0443 -0.2767
31699W        W74637  29.179   5.070   6.587 -0.0859 -0.3104 -0.1512
31700W        W74638  28.266   7.431   9.285  0.0885  0.0588  0.0069
31701W        W74639  27.625   5.061   7.563 -0.3184 -0.0371  0.0218
31702W        W74640  28.497   3.571   7.552  0.0248  0.0888 -0.1486
31703W        W74641  28.445   6.462   9.877  0.2508  0.0243 -0.0877
31704W        W74642  26.983   5.702   9.366 -0.0668 -0.0595 -0.2870
31705W        W74643  27.783   5.646   8.826 -0.1522  0.0338  0.0713
31706W        W74644  29.312   7.298   7.868  0.0497  0.0317  0.1450
31707W        W74645  26.621   5.967   9.534  0.2430 -0.1235 -0.1979
31708W        W74646  28.862   6.661  10.069  0.2016 -0.0067  0.2197
31709W        W74647  26.026   0.747   9.943 -0.1050  0.0196 -0.2565
31710W        W74648  26.927   5.258   8.459 -0.5585  0.3032 -0.1752
31711W        W74649  28.039   6.487   9.510  0.0815  0.0131  0.2541
31712W        W74650  26.334   5.924   7.938  0.1827  0.1421 -0.2267
31713W        W74651  27.267   1.285   9.640  0.0559 -0.0022  0.0560
31714W        W74652  27.767   4.788  10.148 -0.2286  0.1979 -0.3250
31715W        W74653  28.570   5.512   7.737 -0.0748  0.1514  0.0917
31716W        W74654  27.948   7.127  10.394 -0.3717 -0.0965  0.2465
31717W        W74655  26.791   4.633   8.627  0.2424  0.2892  0.2372
31718W        W74656  27.475   3.863   8.459 -0.0772  0.2436 -0.0074
31719W        W74657  27.571   6.571   9.885 -0.0192  0.1276 -0.0583
31720W        W74658  28.866   7.243  10.132 -0.1589  0.0620  0.0423
31721W        W74659  28.520   4.853   8.440  0.0990  0.0725 -0.1126
31722W        W74660  25.646   6.432   8.793  0.0835  0.2926 -0.1512
31723W        W74661  26.637   5.480   8.818  0.2073 -0.0759 -0.1478
31724W        W74662  25.708   5.016   9.944 -0.0566  0.0907 -0.1948
31725W        W74663  28.272   7.563   8.713 -0.0262 -0.3554 -0.0554
31726W        W74664  27.087   7.139   7.256 -0.0549 -0.1204 -0.2822
31727W        W74665  28.779   5.834   9.648 -0.2149  0.1940  0.1868
31728W        W74666  26.247   7.280   7.843 -0.5025  0.3990 -0.3165
31729W        W74667  30.765   2.199   9.052  0.1452 -0.0570 -0.0870
31730W        W74668  25.807   7.639  10.295 -0.1515  0.1112 -0.0454
31731W        W74669  27.882   6.116   8.768 -0.1949  0.1472 -0.0699
31732W        W74670  25.682   5.322   9.570  0.0035  0.0936  0.0640
31733W        W74671  26.433   2.336   9.602 -0.3371  0.2074  0.0495
31734W        W74672  28.712   6.989   7.544  0.0384 -0.0224 -0.1282
31735W        W74673  28.831   5.536  10.095  0.0921 -0.0999 -0.2334
31736W        W74674  27.229   2.004   9.673 -0.3825 -0.3995 -0.1744
31737W        W74675  25.649   8.815   9.340  0.0871  0.1853  0.2870
31738W        W74676  28.511   5.445   6.340  0.0123 -0.2414 -0.2959
31739W        W74677  27.047   4.661   9.729 -0.0742  0.0824  0.1466
31740W        W74678  28.979   4.703   9.476 -0.0210 -0.4168 -0.0330
31741W        W74679  26.493   4.120   8.487 -0.0401 -0.3255 -0.1056
31742W        W74680  26.775   7.820   8.680 -0.1775  0.2719 -0.4278
31743W        W74681  29.100   7.148   9.371  0.5172  0.1636  0.0958
31744W        W74682  25.977   5.121   8.314  0.1554  0.1690  0.1915
31745W        W74683  25.515   5.677   9.276 -0.2752 -0.0813  0.1337
31746W        W74684  28.699   4.713   8.907  0.0797  0.0160 -0.0847
31747W        W74685  26.553   5.483   8.193 -0.3917 -0.0264  0.3753
31748W        W74686  27.243   4.357  10.140  0.0591 -0.1306 -0.2943
31749W        W74687  28.127   6.629   8.370 -0.0660  0.5491  0.0178
31750W        W74688  28.451   7.371  10.422 -0.1928  0.2138  0.2234
31751W        W74689  28.537   4.038   9.495  0.3033 -0.1964  0.1082
31752W        W74690  26.939   2.459   9.563  0.2692 -0.0866 -0.0926
31753W        W74691  29.606   6.947   7.590 -0.1188 -0.0090  0.0995
31754W        W74692  27.208   5.432   7.573 -0.1496 -0.0557 -0.1435
31755W        W74693  27.622   4.415   9.722  0.4318  0.1755 -0.0867
31756W        W74694  26.945   6.595   8.958 -0.3373 -0.1015  0.2113
31757W        W74695  28.052   3.520   8.852  0.1494 -0.0901  0.1375
31758W        W74696  26.388   6.960   9.711  0.1199  0.0220 -0.2150
31759W        W74697  26.262   6.395   8.278  0.1566  0.0115  0.2286
31760W        W74698  27.949   6.269  10.018  0.2046  0.3011 -0.1785
31761W        W74699  28.782   4.077   7.564 -0.0088  0.3063 -0.0284
31762W        W74700  27.628   7.051   9.732  0.0477 -0.1939  0.0376
31763W        W74701  27.110   6.882   9.846  0.0437 -0.1548  0.0716
31764W        W74702  28.202   5.631   8.277 -0.0507 -0.0326  0.0903
31765W        W74703  23.911   4.058   9.468  0.2526 -0.2530  0.1903
31766W        W74704  28.274   7.716  10.070  0.0047 -0.0710 -0.1702
31767W        W74705  28.299   5.095   9.678  0.0851 -0.3555 -0.1268
31768W        W74706  27.703   4.737   8.579  0.1480 -0.1128 -0.0038
31769W        W74707  27.230   5.485  10.235  0.3431 -0.0175  0.2341
31770W        W74708  29.179   6.991   8.902  0.3127 -0.2068  0.0073
31771W        W74709  27.573   6.390   8.071  0.0089  0.0148 -0.0245
31772W        W74710  27.862   3.952   9.155 -0.2695  0.1024  0.0698
31773W        W74711  26.299   5.866  10.485 -0.0927 -0.0181 -0.2167
31774W        W74712  29.862   4.939   8.747 -0.0246  0.1368  0.5202
31775W        W74713  27.366   5.938   8.618  0.1446  0.0871  0.0515
31776W        W74714  25.084   6.478   9.380  0.0546  0.1768 -0.2009
31777W        W74715  29.124   6.477   9.048 -0.2161  0.1263  0.1028
31778W        W74716  28.069   3.499   9.771 -0.0405  0.1104  0.0570
31779W        W74717  27.018   8.813  10.031  0.2059  0.2530  0.2099
31780W        W74718  29.173   4.618   7.183 -0.1248 -0.1284 -0.1686
31781W        W74719  28.021   1.264   9.065  0.1347  0.4790 -0.3053
31782W        W74720  29.664   5.135   8.281  0.2195 -0.2242 -0.0289
31783W        W74721  28.620   5.379   8.386 -0.0299  0.1269 -0.1418
31784W        W74722  25.424   4.809  10.327 -0.1050 -0.2800 -0.2064
31785W        W74723  27.712   4.471   7.836  0.0729  0.2151 -0.0354
31786W        W74724  27.216   7.031   8.305 -0.1860  0.3260  0.3403
31787W        W74725  28.468   6.891  10.307 -0.0341  0.1591  0.0089
31788W        W74726  28.193   3.025   9.525 -0.0137  0.3331 -0.1361
31789W        W74727  25.342   3.642   8.637  0.0623  0.0070  0.0254
31790W        W74728  27.215   4.625   7.860 -0.0538  0.0397 -0.1916
31791W        W74729  27.233   4.380   8.776  0.0124 -0.1346  0.1310
31792W        W74730  27.547   5.742  10.542  0.2087 -0.1635  0.1397
31793W        W74731  29.588   4.286   7.107 -0.1561 -0.2300 -0.0286
31794W        W74732  24.750   6.824   9.163 -0.1805 -0.0730  0.3439
31795W        W74733  28.041   3.061   8.963  0.0265  0.3632  0.3370
31796W        W74734  26.093   7.385   9.822 -0.4061 -0.1981  0.0636
31797W        W74735  26.697   6.942   7.734 -0.0199  0.0024  0.1665
31798W        W74736  29.173   5.517   8.462  0.1615 -0.2824  0.2261
31799W        W74737  30.200   5.565   9.467 -0.0708  0.0596 -0.2758
31800W        W74738  27.465   6.533   9.399 -0.0075 -0.0897 -0.0129
31801W        W74739  26.227   6.483   9.609 -0.2078  0.2808 -0.0227
31802W        W74740  28.268   6.032   9.535  0.0203  0.2924 -0.2600
31803W        W74741  25.673   7.085   9.102  0.1601 -0.2585 -0.3093
31804W        W74742  28.256   4.728  10.237 -0.0677 -0.1954 -0.2533
31805W        W74743  27.428   2.842   7.964  0.1037  0.1516  0.0879
31806W        W74744  27.008   6.744   6.712  0.0386  0.0377  0.0747
31807W        W74745  27.247   5.957  10.069 -0.2359  0.0140 -0.0721
31808W        W74746  27.681   8.525   8.744  0.1927 -0.0114 -0.0151
31809W        W74747  28.949   6.845   8.049  0.0684  0.0621  0.1369
31810W        W74748  27.397   6.305   8.955  0.4158  0.1886  0.1782
31811W        W74749  27.528   8.566  10.140  0.0080  0.1267  0.0017
31812W        W74750  27.792   6.011   8.290  0.0835 -0.0501 -0.1976
31813W        W74751  27.409   7.111   8.788 -0.2329  0.1626  0.1045
31814W        W74752  26.083   6.982   7.040 -0.4005  0.4533  0.1858
31815W        W74753  27.882   6.621   9.013 -0.0303  0.0097 -0.3044
31816W        W74754  26.874   7.308   9.117  0.4450  0.0000  0.2600
31817W        W74755  29.253   5.541   6.311  0.1098 -0.1387  0.0272
31818W        W74756  28.997   4.526   8.463  0.2414  0.1636  0.1928
31819W        W74757  29.448   4.476   9.373 -0.1631  0.0636  0.2388
31820W        W74758  26.447   5.861   9.024  0.2052  0.2976  0.0739
31821W        W74759  27.584   2.988   9.126 -0.3081  0.0192 -0.0652
31822W        W74760  28.383   7.433   7.695  0.0913 -0.1600 -0.0625
31823W        W74761  26.153   5.479   8.704  0.2310 -0.1961 -0.1152
31824W        W74762  27.693   5.125   8.893 -0.0268  0.1589 -0.0494
31825W        W74763  30.819   3.261   9.185  0.0548 -0.0617 -0.2892
31826W        W74764  26.439   5.069   8.551  0.1757 -0.0082  0.2535
31827W        W74765  29.429   4.283   8.111 -0.3343 -0.2418  0.1130
31828W        W74766  27.076   7.704   8.074  0.0228  0.0004  0.0599
31829W        W74767  26.023   7.884   9.389  0.0774  0.2035  0.0167
31830W        W74768  27.102   6.391   9.825 -0.0618 -0.1648  0.0746
31831W        W74769  27.667   3.821   7.964  0.0804 -0.0092  0.1640
31832W        W74770  29.581   4.926   9.172  0.2425  0.0863 -0.0036
31833W        W74771  26.637   6.588   9.977  0.1569  0.2388  0.1047
31834W        W74772  26.965   6.292   7.605  0.3850  0.1266  0.2270
31835W        W74773  29.754   5.335   7.239  0.0028 -0.0393 -0.1325
31836W        W74774  29.249   5.783   9.911 -0.0971 -0.1481  0.1126
31837W        W74775  26.725   4.819   9.310 -0.0527 -0.2441  0.1666
31838W        W74776  27.428   5.867   9.182  0.1575  0.0133 -0.1381
31839W        W74777  27.464   5.286   8.480  0.0957 -0.0556 -0.0056
31840W        W74778  27.090   4.453   9.251  0.0031  0.0213 -0.0536
31841W        W74779  28.482   4.080   8.248  0.0506  0.1048  0.0888
31842W        W74780  25.778   5.796   8.867  0.1230  0.3819  0.2014
31843W        W74781  28.210   5.643   9.854 -0.1999  0.2215 -0.2546
31844W        W74782  25.847   1.373   8.235 -0.0794  0.1434  0.0988
31845W        W74783  29.067   6.008   7.702 -0.0715  0.0673  0.0331
31846W        W74784  28.455   6.020  10.002  0.1933 -0.0955  0.1310
31847W        W74785  27.162   7.591   6.642 -0.0238  0.2137 -0.1542
31848W        W74786  28.540   4.996   7.964 -0.0540  0.0633  0.0765
31849W        W74787  27.523   8.066  10.024  0.0794  0.0733 -0.1385
31850W        W74788  26.060   4.023   9.652 -0.1880 -0.0776 -0.2680
31851W        W74789  28.008   6.829   9.960  0.0097  0.0376 -0.1161
31852W        W74790  28.062   6.957   9.380 -0.1465 -0.4107 -0.0131
31853W        W74791  28.791   4.136   8.688  0.0123 -0.0668 -0.0079
31854W        W74792  26.763   4.436  10.447 -0.3656  0.0275 -0.1510
31855W        W74793  25.764   7.834   9.805 -0.0225 -0.0692  0.1067
31856W        W74794  30.756   3.914   9.618 -0.2273  0.0599  0.0282
31857W        W74795  27.517   7.357   8.070 -0.0455  0.6254  0.0372
31858W        W74796  29.453   7.353  10.152  0.3345  0.3409 -0.0157
31859W        W74797  26.812   4.910   8.120 -0.1378  0.1770 -0.0376
31860W        W74798  26.157   6.029   9.376  0.1862  0.4151  0.0638
31861W        W74799  27.160   8.377   8.771  0.3010 -0.0259 -0.1804
31862W        W74800  29.089   6.646   8.515 -0.2714 -0.0054 -0.2135
31863W        W74801  28.613   5.212   9.000  0.0934  0.0153 -0.1150
31864W        W74802  30.338   7.194   9.655  0.0623 -0.0513 -0.1404
31865W        W74803  28.246   5.447   8.800 -0.0580 -0.0804 -0.1059
31866W        W74804  29.220   3.952   7.699  0.0285 -0.1357 -0.0238
31867W        W74805  28.185   3.792   7.883  0.0872 -0.1587  0.0105
31868W        W74806  25.661   7.327  10.630  0.0420 -0.1359  0.1524
31869W        W74807  26.326   5.023   7.972 -0.1318  0.0805  0.3687
31870W        W74808  27.087   7.142   6.432 -0.3855 -0.0314 -0.1774
31871W        W74809  26.819   7.179   9.615  0.1290  0.3274  0.0390
31872W        W74810  26.912   6.633  10.347 -0.1399  0.0144  0.1939
31873W        W74811  27.720   4.466   9.154  0.0845  0.2108 -0.0390
31874W        W74812  28.289   6.755   7.475 -0.0560 -0.5110 -0.1743
31875W        W74813  25.625   1.417   9.251 -0.0388  0.0624 -0.2228
31876W        W74814  26.106   3.322   9.148  0.0072  0.1006  0.0539
31877W        W74815  28.082   5.732   7.799  0.0035 -0.1297  0.0977
31878W        W74816  29.180   7.107   7.322  0.4364  0.2953 -0.0727
31879W        W74817  28.000   5.369   9.248 -0.1622 -0.1401 -0.2371
31880W        W74818  26.524   6.458   7.819  0.1237 -0.3001  0.2568
31881W        W74819  24.612   5.334   7.109  0.0709  0.0289 -0.0377
31882W        W74820  27.829   6.179   9.212  0.1345 -0.1808 -0.0444
31883W        W74821  27.442   6.514  10.383 -0.1798 -0.0481 -0.1632
31884W        W74822  24.631   2.921   9.589  0.1387 -0.1455  0.2406
31885W        W74823  28.282   6.117   8.153 -0.1172 -0.1254 -0.1002
31886W        W74824  29.790   6.237  10.091  0.0940 -0.2412  0.1392
31887W        W74825  29.277   5.156   9.532  0.0078 -0.1362  0.2997
31888W        W74826  29.027   5.025   8.501  0.1360  0.1246  0.3873
31889W        W74827  30.627   3.319   9.705 -0.1137 -0.2321  0.2676
31890W        W74828  26.935   3.183   8.183  0.2222 -0.3264 -0.1634
31891W        W74829  28.500   3.646   8.477  0.2393  0.2318  0.0924
31892W        W74830  28.427   6.534   9.233 -0.1851  0.1539  0.3253
31893W        W74831  27.151   5.435   8.887 -0.1819  0.3692 -0.0439
31894W        W74832  28.120   4.546   9.791  0.2973 -0.2879  0.0287
31895W        W74833  29.799   7.211  10.475  0.1124 -0.0816  0.1284
31896W        W74834  26.351   5.885   8.478  0.0532 -0.0688 -0.0721
31897W        W74835  28.832   5.540   7.241 -0.1761 -0.2709  0.0951
31898W        W74836  26.204   6.916  10.604 -0.1750  0.3020  0.0786
31899W        W74837  27.647   8.347   9.638  0.0002  0.0253  0.2618
31900W        W74838  29.323   7.634   9.258 -0.1891 -0.1390 -0.1085
31901W        W74839  25.459   2.246   9.466  0.1006  0.3530 -0.0482
31902W        W74840  26.700   7.209   8.233  0.1129  0.2266  0.0849
31903W        W74841  27.130   6.666   7.932  0.0440 -0.0682  0.2652
31904W        W74842  29.145   4.868   9.944 -0.2235 -0.1305 -0.1594
31905W        W74843  26.575   4.310   9.901 -0.1837 -0.0633 -0.3411
31906W        W74844  26.437   3.020   8.877  0.2064 -0.0009 -0.0997
31907W        W74845  25.363   7.777  10.759 -0.2533 -0.0602 -0.0896
31908W        W74846  28.598   6.086   9.135  0.2263  0.1632  0.0804
31909W        W74847  27.383  10.936   2.644 -0.2646  0.1560 -0.4322
31910W        W74848  26.924   8.344   0.386  0.0078 -0.1065 -0.1174
31911W        W74849  28.071   8.669  31.857  0.1080 -0.2030  0.0199
31912W        W74850  28.867   9.990   1.726  0.0035  0.1501  0.1968
31913W        W74851  25.323   8.424   1.238 -0.1528  0.2147  0.2552
31914W        W74852  27.811  13.907   2.515  0.2231 -0.0686  0.2606
31915W        W74853  26.848   8.940   3.874  0.0999 -0.0200 -0.2651
31916W        W74854  28.222  10.974   3.899 -0.1259 -0.0404 -0.4157
31917W        W74855  29.954  11.949   3.587 -0.0099 -0.2059 -0.1814
31918W        W74856  26.638  10.357   0.405 -0.1502  0.2884 -0.0849
31919W        W74857  27.049   9.414   2.569 -0.2706 -0.1943  0.0481
31920W        W74858  27.038   9.111   2.216 -0.0461  0.0326  0.0574
31921W        W74859  27.488   8.196   1.187  0.2519 -0.3509 -0.1544
31922W        W74860  26.344   8.271   2.257  0.1772  0.3804 -0.0236
31923W        W74861  28.961  10.429   2.061 -0.1279  0.0342  0.1198
31924W        W74862  25.807   9.300   1.996 -0.1791  0.0203  0.0236
31925W        W74863  27.874   8.173   1.584 -0.1795  0.1185  0.2312
31926W        W74864  26.460   7.617   1.586  0.0334 -0.1470  0.1739
31927W        W74865  25.871  11.587  31.816 -0.1192  0.0409  0.0545
31928W        W74866  26.512   9.314   4.448  0.2284 -0.2403  0.4640
31929W        W74867  27.703   8.959   3.670  0.0831 -0.1128 -0.2467
31930W        W74868  27.185   9.714   0.600  0.2825  0.0166  0.0158
31931W        W74869  26.356   8.861  31.650  0.0647  0.2407  0.1211
31932W        W74870  25.362   8.338   1.762 -0.1979  0.0459  0.0737
31933W        W74871  28.286   9.603   1.023 -0.3372  0.1805  0.1792
31934W        W74872  28.722   8.811   1.671  0.0972 -0.0857 -0.1128
31935W        W74873  28.552  10.587   1.152  0.3136  0.0161 -0.1137
31936W        W74874  27.179  11.338   2.384  0.4312  0.0357 -0.1766
31937W        W74875  27.537  10.120   2.213 -0.1546  0.0509 -0.3418
31938W        W74876  27.830   9.145   4.192 -0.0215  0.3288 -0.0977
31939W        W74877  25.839   9.797   2.105 -0.1172  0.0942 -0.0814
31940W        W74878  25.770  10.285   1.802  0.0143 -0.3360 -0.0077
31941W        W74879  26.861  10.094  30.945  0.1201  0.4404  0.1911
31942W        W74880  29.452  11.794   1.577  0.0280 -0.1259  0.0558
31943W        W74881  27.738   9.767   3.175 -0.2686  0.2291 -0.2132
31944W        W74882  26.405  11.959   4.178 -0.1102 -0.3041  0.1597
31945W        W74883  24.644   9.766   0.981  0.0392  0.2703 -0.1288
31946W        W74884  28.163  11.055   4.972  0.1788  0.2201 -0.0174
31947W        W74885  27.851  10.652   3.928 -0.0180  0.1308  0.0234
31948W        W74886  27.503   9.621   2.664 -0.0173  0.3908  0.1231
31949W        W74887  28.290   9.092   1.955  0.2203  0.3657  0.1864
31950W        W74888  26.592   9.403   1.519 -0.0402 -0.2574  0.0184
31951W        W74889  28.183   9.314   3.331 -0.1195  0.1838 -0.2023
31952W        W74890  26.982   9.540   3.498  0.1152 -0.0421 -0.1701
31953W        W74891  25.151  10.651   1.501 -0.0945  0.0428  0.0882
31954W        W74892  29.803   7.793   4.771 -0.2938  0.0906 -0.0175
31955W        W74893  25.962   9.412   0.984 -0.0310  0.0714  0.0675
31956W        W74894  28.222   9.265   0.678  0.0212 -0.0977  0.2366
31957W        W74895  26.892   7.694   1.220 -0.1062  0.3724 -0.3172
31958W        W74896  28.519   9.169   1.298  0.0128 -0.0967 -0.1468
31959W        W74897  28.119   8.200   2.079  0.1127  0.0411  0.0716
31960W        W74898  25.913  10.608   1.441 -0.3126  0.0719 -0.1246
31961W        W74899  27.073   9.405   1.353 -0.2952 -0.3352 -0.2882
31962W        W74900  28.705  11.522   1.289  0.2628 -0.2183 -0.0015
31963W        W74901  26.306   9.803   0.919 -0.0969 -0.2339 -0.0843
31964W        W74902  27.644   8.778   3.199  0.1244  0.0980 -0.0019
31965W        W74903  25.524  12.428   1.608 -0.0236 -0.0918  0.1027
31966W        W74904  26.393   9.368   0.363 -0.1648  0.3495 -0.0782
31967W        W74905  28.238  11.219  31.498  0.0049  0.1897  0.1209
31968W        W74906  28.278  11.408   0.974 -0.1482  0.1822  0.1902
31969W        W74907  27.306  11.012   0.477  0.2820 -0.0173  0.0850
31970W        W74908  25.809   7.978   0.608 -0.0592  0.3063  0.2356
31971W        W74909  27.138  10.353   3.774  0.0178  0.1608 -0.0006
31972W        W74910  26.195   9.978   2.929 -0.2823  0.0878  0.0813
31973W        W74911  27.896   7.231   0.774 -0.4092 -0.0219 -0.0106
31974W        W74912  29.883  10.555   2.638  0.0454  0.2001  0.0640
31975W        W74913  25.605  10.329   2.256  0.1778  0.0261 -0.1968
31976W        W74914  29.315   9.074   1.186  0.0037  0.0893 -0.0859
31977W        W74915  27.429  10.151   3.186 -0.0137  0.2767  0.0814
31978W        W74916  28.518  10.511   2.340  0.0449 -0.2674  0.2112
31979W        W74917  27.002  10.040   0.183  0.0948 -0.0154 -0.0108
31980W        W74918  28.120   7.199   1.214  0.2727  0.1754  0.2087
31981W        W74919  28.642   8.617   2.129  0.0379 -0.1828 -0.0828
31982W        W74920  25.489   8.779   0.393  0.1153  0.0601 -0.0033
31983W        W74921  26.485  10.696   1.212  0.3014 -0.1165  0.4300
31984W        W74922  28.412  10.637   4.649 -0.2296  0.0137  0.1601
31985W        W74923  28.788   9.456  30.963 -0.3964 -0.1016  0.0683
31986W        W74924  25.105  12.173   1.350  0.1443  0.1093  0.2483
31987W        W74925  27.342   9.000   4.045 -0.0358 -0.0562 -0.1609
31988W        W74926  27.901  10.367   4.388 -0.1053  0.0737  0.0772
31989W        W74927  25.387  11.670  30.750 -0.0789  0.0800 -0.0428
31990W        W74928  26.571   9.861   3.349  0.0199 -0.2273 -0.3118
31991W        W74929  26.137   8.534   1.216  0.1290 -0.0724 -0.0396
31992W        W74930  26.288   9.009   1.309  0.1104 -0.2006 -0.0649
31993W        W74931  26.258  10.375   1.657  0.0695  0.2036  0.0721
31994W        W74932  27.916   8.293   0.953 -0.2566 -0.1415 -0.0752
31995W        W74933  25.608   9.054   2.957 -0.1645 -0.0820 -0.3683
31996W        W74934  28.739   7.358   3.189  0.2038 -0.0637  0.2378
31997W        W74935  26.079   9.867   0.009 -0.0484 -0.2147  0.2633
31998W        W74936  28.559  12.096   0.461 -0.0555  0.2211 -0.0468
31999W        W74937  28.543   8.584  31.666 -0.0396 -0.1084 -0.1910
32000W        W74938  26.564   9.853   0.006 -0.3671 -0.0594  0.1556
32001W        W74939  26.643   9.167   1.954 -0.1282  0.1340  0.1214
32002W        W74940  25.635   7.572   0.880 -0.3592 -0.0300 -0.3405
32003W        W74941  26.056   9.219   4.710  0.2817  0.0997  0.0189
32004W        W74942  27.406   8.509   1.553 -0.1878 -0.2176 -0.0319
32005W        W74943  27.947   8.834   2.233  0.0324  0.1285  0.1391
32006W        W74944  26.015   7.182   0.036  0.1063  0.0673 -0.1129
32007W        W74945  28.778   9.433   0.873  0.0198  0.0517  0.1567
32008W        W74946  25.784   8.797  31.462  0.0693 -0.2522 -0.1504
32009W        W74947  25.945   9.311   1.493  0.0134 -0.2699  0.3114
32010W        W74948  30.026   7.332   4.245  0.3231  0.0561  0.2926
32011W        W74949  28.210  10.925   1.040  0.0943 -0.0533 -0.0364
32012W        W74950  29.337  11.555   3.321 -0.0891 -0.0092  0.6722
32013W        W74951  28.555  10.811  31.607  0.1794  0.3108  0.1183
32014W        W74952  25.736   9.455   3.204  0.2024 -0.1356 -0.0235
32015W        W74953  25.755   6.970   1.908 -0.2637 -0.0156 -0.2640
32016W        W74954  26.533  11.660   1.259  0.1456  0.0009 -0.3558
32017W        W74955  26.724  10.347   1.529 -0.0864 -0.0921 -0.0808
32018W        W74956  26.651   8.979   0.096  0.0849 -0.0146 -0.0509
32019W        W74957  28.879  10.821   2.480 -0.1658 -0.1732 -0.5737
32020W        W74958  26.956   9.492  31.923 -0.0605 -0.1713 -0.0968
32021W        W74959  27.764   9.472   0.626  0.0321  0.1957 -0.0327
32022W        W74960  29.060   8.453   1.472  0.0213 -0.0778 -0.0716
32023W        W74961  28.155   9.813   3.520 -0.3609  0.0656 -0.0395
32024W        W74962  27.780   8.468   0.405  0.3923 -0.2282 -0.3071
32025W        W74963  27.804   7.775   0.171  0.1174  0.2067 -0.2312
32026W        W74964  27.227  10.785   0.914 -0.0622  0.1651  0.3033
32027W        W74965  24.895  11.999  30.716  0.1736  0.0000 -0.0531
32028W        W74966  26.153   8.951   2.139  0.2077 -0.1240 -0.0750
32029W        W74967  28.280   9.905   3.005 -0.0981 -0.1206 -0.0275
32030W        W74968  28.050   9.134   1.397 -0.1194 -0.2578 -0.0397
32031W        W74969  25.027   9.490   4.512  0.0134 -0.0550  0.0378
32032W        W74970  28.429   9.040   2.967 -0.1609 -0.2000  0.2835
32033W        W74971  26.854   9.362   0.458 -0.0662 -0.1571 -0.3898
32034W        W74972  27.071  10.703   2.999  0.2897 -0.1046 -0.0953
32035W        W74973  29.112   8.495   2.091  0.3586  0.0133 -0.1612
32036W        W74974  28.576   7.500  31.671  0.1700 -0.2051  0.0680
32037W        W74975  27.495  10.709   4.325  0.0936  0.4223  0.1829
32038W        W74976  27.495   8.542  31.958  0.1229 -0.3986  0.1293
32039W        W74977  28.974   9.402  31.446  0.2463  0.0699  0.3620
32040W        W74978  27.990   7.704  31.645 -0.0307  0.1117  0.0351
32041W        W74979  25.174  11.296   2.999  0.0881  0.2154  0.1133
32042W        W74980  27.533  10.738   1.323  0.0126  0.0503  0.0812
32043W        W74981  26.762   9.773   2.787 -0.0902  0.1388 -0.0571
32044W        W74982  26.988   9.335  29.856  0.3037 -0.1439  0.0303
32045W        W74983  28.452  12.427   0.922  0.1778 -0.0255  0.1106
32046W        W74984  26.590   8.774   1.719 -0.2131  0.0868 -0.0808
32047W        W74985  28.406  10.517   4.112 -0.3377  0.1237 -0.0870
32048W        W74986  27.575  10.410   0.855 -0.3187 -0.0279  0.1704
32049W        W74987  27.821   7.778   3.120  0.2438  0.1510 -0.2570
32050W        W74988  28.509   8.308   0.164  0.1910  0.1068  0.2223
32051W        W74989  27.832   8.455   2.560  0.2829  0.3249 -0.0225
32052W        W74990  24.253  11.647   0.240  0.1165 -0.2341  0.1552
32053W        W74991  28.874   8.127   1.907 -0.0043 -0.2721  0.0881
32054W        W74992  27.435   8.780   2.141 -0.1901  0.0848  0.4337
32055W        W74993  27.114   8.703   2.530 -0.2398 -0.2841 -0.0890
32056W        W74994  28.358   9.042   4.301  0.0945 -0.0805  0.1887
32057W        W74995  27.364  10.266  31.891  0.0618 -0.0076  0.0887
32058W        W74996  28.263   9.075   3.784  0.1529  0.1979 -0.3043
32059W        W74997  25.978   7.949  30.301  0.0826  0.1077 -0.0481
32060W        W74998  27.426   8.438   2.858  0.1365 -0.3064 -0.1529
32061W        W74999  27.026  11.027   1.974 -0.0699 -0.1021 -0.2846
32062W        W75000  25.644  12.471   2.186  0.0123 -0.0074  0.0375
32063W        W75001  29.366  10.200   3.927  0.1747 -0.2750 -0.2866
32064W        W75002  29.304  10.279   1.658 -0.1816 -0.1306 -0.0552
32065W        W75003  26.791   9.930   3.824  0.0432  0.0182  0.1289
32066W        W75004  27.549   6.263   2.702  0.1714 -0.3163 -0.0316
32067W        W75005  25.069  10.001   0.769  0.1612 -0.0545 -0.1286
32068W        W75006  26.833   9.614   0.965  0.1203  0.2264  0.0534
32069W        W75007  28.068   7.746   1.876 -0.0462  0.1728  0.0734
32070W        W75008  28.448  10.907   2.801 -0.0749  0.0216  0.0485
32071W        W75009  25.020   9.443   0.846 -0.0246  0.3135  0.0252
32072W        W75010  29.029   9.077   3.159 -0.2593 -0.1504 -0.1489
32073W        W75011  25.739  11.501   1.797 -0.3080  0.0374  0.2641
32074W        W75012  28.635   6.943   3.810 -0.0897 -0.0816 -0.1046
32075W        W75013  26.537  11.973   2.097 -0.0419 -0.1147 -0.0807
32076W        W75014  25.512   7.923  31.519  0.2012  0.3193  0.2238
32077W        W75015  24.829   8.442   1.643 -0.1564  0.6179 -0.0018
32078W        W75016  28.443   8.088   1.662 -0.0689  0.1102 -0.2124
32079W        W75017  27.975   8.186   0.008 -0.1400 -0.1976 -0.1063
32080W        W75018  27.137   8.587   1.120  0.2824  0.0075  0.2267
32081W        W75019  27.740   6.941   3.468  0.2190  0.1166 -0.0938
32082W        W75020  24.346  11.736   1.258  0.1035  0.1100  0.1605
32083W        W75021  27.726   8.876   1.757 -0.0417 -0.1290 -0.0033
32084W        W75022  28.445   8.455  30.730  0.2350  0.2813  0.0014
32085W        W75023  27.510  10.329   1.705  0.2819 -0.3557 -0.0463
32086W        W75024  27.120   8.479   1.934 -0.0546  0.1525 -0.1038
32087W        W75025  25.123   8.529   0.187 -0.2409 -0.1167  0.2703
32088W        W75026  29.260   8.192   3.649 -0.1169  0.4468 -0.2645
32089W        W75027  26.353   9.308   2.469  0.0392  0.0453 -0.2413
32090W        W75028  26.449   9.971   1.344 -0.1874  0.3287  0.0963
32091W        W75029  26.271  11.421   2.540  0.0632 -0.1411  0.4248
32092W        W75030  26.468   8.621   0.796  0.5578  0.3534 -0.0103
32093W        W75031  25.404  10.431   1.117  0.0982  0.2221 -0.2022
32094W        W75032  25.729   8.816   3.466 -0.1806  0.1473  0.1507
32095W        W75033  29.037  10.285   2.578  0.1091  0.0433 -0.3278
32096W        W75034  27.573   8.721   0.896 -0.0493  0.1258  0.1767
32097W        W75035  27.284   7.796   0.953 -0.1988 -0.0092  0.0568
32098W        W75036  27.882   9.670   1.321  0.1591 -0.1872 -0.3907
32099W        W75037  27.766  10.194   1.292 -0.0450  0.3965 -0.1300
32100W        W75038  27.510   9.360   1.519  0.0428  0.2245 -0.1898
32101W        W75039  26.250  11.184   4.650  0.0623 -0.3103  0.1217
32102W        W75040  27.385   8.291   2.344 -0.2650 -0.0343  0.1402
32103W        W75041  30.481  11.594   1.728 -0.1729 -0.1571  0.0225
32104W        W75042  27.942   9.735   2.287 -0.2017 -0.3644  0.1308
32105W        W75043  26.516   9.176  31.067 -0.1190  0.0032  0.1371
32106W        W75044  26.100   8.748   1.696 -0.1830  0.1362 -0.0145
32107W        W75045  26.817   8.948   1.329 -0.1797  0.2423  0.2172
32108W        W75046  27.037   8.129   1.438  0.1821 -0.0357  0.0907
32109W        W75047  25.690  10.671   3.127  0.1637 -0.0045  0.1226
32110W        W75048  25.659  10.561  30.622  0.1440 -0.1510 -0.1225
32111W        W75049  25.960  11.157   2.114  0.1183 -0.0719 -0.2920
32112W        W75050  28.988   8.246   0.048  0.0769  0.0055  0.3755
32113W        W75051  28.818   9.816   1.263  0.2842  0.2035  0.1310
32114W        W75052  28.051   7.269   1.737 -0.0967  0.2306 -0.1052
32115W        W75053  28.320   8.420   2.520 -0.2568 -0.1167 -0.0755
32116W        W75054  26.211  10.653   0.557  0.2876  0.0448  0.0899
32117W        W75055  27.790   9.246   3.045 -0.0714 -0.1363 -0.2478
32118W        W75056  27.352   8.030   1.818 -0.1912 -0.0452 -0.0927
32119W        W75057  28.279   9.659   0.388  0.0238  0.7159 -0.0375
32120W        W75058  26.853   9.322   3.008 -0.1554  0.0563  0.4227
32121W        W75059  27.555  10.262   5.130  0.2509 -0.0976  0.0005
32122W        W75060  25.937   9.273   3.741  0.2044  0.0171 -0.2586
32123W        W75061  27.184   7.176   1.642  0.1541 -0.1514  0.0491
32124W        W75062  27.017   7.774  31.643 -0.1221  0.2041 -0.0439
32125W        W75063  27.003   8.982   3.350 -0.1443 -0.4574  0.0846
32126W        W75064  27.914  10.018   1.763 -0.2585 -0.1085  0.0033
32127W        W75065  25.605  10.045   0.368  0.1853 -0.2903 -0.0358
32128W        W75066  27.435   8.943   1.300  0.0845 -0.0160  0.1053
32129W        W75067  26.503   9.328   3.498  0.1213 -0.1659 -0.3762
32130W        W75068  28.304   8.016   1.068  0.0349 -0.3375 -0.0404
32131W        W75069  28.098  10.147   0.438  0.1279 -0.3991  0.1168
32132W        W75070  27.297   9.936   1.075 -0.0766  0.0649 -0.2712
32133W        W75071  27.436   8.004   3.634  0.3131  0.0663  0.0634
32134W        W75072  27.972   9.482   1.758 -0.1243 -0.5268  0.0136
32135W        W75073  29.051   7.786   0.900 -0.0690  0.1118 -0.1283
32136W        W75074  28.380   8.194   3.339  0.1695 -0.0889 -0.2038
32137W        W75075  27.659   8.733   4.416 -0.0292  0.0955  0.2349
32138W        W75076  26.377   9.504   2.932  0.0485 -0.0483 -0.0639
32139W        W75077  24.434   8.859   4.210  0.3168  0.3660  0.0540
32140W        W75078  27.524  11.441   2.718 -0.0051  0.2833  0.1190
32141W        W75079  29.798   9.866  31.353  0.1301 -0.0061 -0.2982
32142W        W75080  29.277   8.011   2.180  0.0063  0.2891 -0.0265
32143W        W75081  29.168   9.756   2.652  0.2364 -0.1106  0.0440
32144W        W75082  28.321  10.035   1.298 -0.1527 -0.2722  0.2762
32145W        W75083  26.628   9.905   1.833  0.2118  0.1372  0.1689
32146W        W75084  28.830   8.337   3.398 -0.2404  0.5143  0.1655
32147W        W75085  25.463   6.610  30.366  0.2318  0.2219 -0.4600
32148W        W75086  28.828   9.081   2.104 -0.0809 -0.2240 -0.2702
32149W        W75087  26.940  10.938   1.294  0.1335 -0.1052 -0.2870
32150W        W75088  28.037  10.586   1.416 -0.0222  0.1344  0.1019
32151W        W75089  28.413   9.435  31.357 -0.0937  0.0440  0.2424
32152W        W75090  25.456   9.186   1.607  0.1626  0.4218  0.1738
32153W        W75091  26.038  10.700   1.984 -0.0412 -0.0396 -0.1665
32154W        W75092  25.303   7.776   0.643  0.1683 -0.1390 -0.1521
32155W        W75093  27.113  10.255   0.680 -0.1562  0.1649  0.0777
32156W        W75094  28.537   9.578   1.723 -0.1124 -0.0256 -0.0703
32157W        W75095  27.928   9.880   4.521  0.0521 -0.0024 -0.1238
32158W        W75096  25.893   8.076  30.790 -0.2069 -0.3569  0.1587
32159W        W75097  30.213   9.167   3.024  0.0262  0.1479  0.5550
32160W        W75098  24.520   9.477   1.681 -0.0953 -0.0571 -0.0198
32161W        W75099  27.160   6.948   2.386  0.2333  0.0446  0.2380
32162W        W75100  26.495  10.973   3.309 -0.1422  0.0140 -0.0140
32163W        W75101  25.588  11.024   2.719  0.0931 -0.0461  0.0276
32164W        W75102  27.170  10.395   1.282 -0.0016  0.0611 -0.0110
32165W        W75103  28.412   8.536   2.995 -0.1709 -0.0745 -0.1360
32166W        W75104  28.962   8.830   2.474 -0.2838 -0.2426  0.1013
32167W        W75105  28.122   8.786   3.387 -0.1749 -0.0345  0.1693
32168W        W75106  28.613   9.988   3.319  0.2617  0.5968 -0.3100
32169W        W75107  27.459   9.891   3.618 -0.0277 -0.0503  0.1559
32170W        W75108  27.048   7.809   0.514  0.0460 -0.1682 -0.1861
32171W        W75109  27.353   9.488   3.914 -0.1058 -0.0771  0.2968
32172W        W75110  28.863  10.655   0.794 -0.2780 -0.0431 -0.1673
32173W        W75111  27.091  10.184   1.902 -0.4009  0.1987 -0.1932
32174W        W75112  24.355   8.647   5.157 -0.0980 -0.1475  0.0024
32175W        W75113  28.849   9.072   4.919 -0.2969 -0.0402  0.2331
32176W        W75114  28.595   9.148   0.352 -0.1920  0.1059 -0.0277
32177W        W75115  26.379   8.070   1.470  0.0854  0.0981 -0.3667
32178W        W75116  27.546  10.681  31.750 -0.4503 -0.0559 -0.1947
32179W        W75117  26.201  10.684   3.747 -0.1294  0.0216  0.0113
32180W        W75118  27.122  10.128   2.740  0.0584  0.2250 -0.0549
32181W        W75119  26.415  10.874   1.658  0.0402  0.0045 -0.1522
32182W        W75120  27.416   9.736   0.001 -0.0685  0.1710  0.1071
32183W        W75121  28.176  10.965   0.465 -0.2428  0.0796 -0.2474
32184W        W75122  27.426  12.035   2.461  0.0608 -0.3736 -0.3980
32185W        W75123  28.061   8.065   0.480  0.2461 -0.0382  0.1728
32186W        W75124  25.386  11.752   2.251  0.1186  0.0366  0.1520
32187W        W75125  25.124  10.752  31.538  0.1490  0.0718  0.1053
32188W        W75126  27.292  11.318   0.989 -0.1631  0.1610  0.0925
32189W        W75127  25.062  11.210   0.933 -0.1689  0.2556 -0.1623
32190W        W75128  28.241  10.717   3.212 -0.0323 -0.0991 -0.2338
32191W        W75129  29.066   7.475  31.805  0.1342  0.0449 -0.0075
32192W        W75130  30.228   9.560   2.520 -0.0034 -0.2076  0.0183
32193W        W75131  29.636  10.156   2.586 -0.5878  0.2732  0.1731
32194W        W75132  28.591  10.161   5.151 -0.1066 -0.0457 -0.0592
32195W        W75133  27.404  10.693   2.102  0.0991  0.2832 -0.1395
32196W        W75134  27.816   9.147   1.009 -0.0855 -0.0292 -0.1343
32197W        W75135  27.170   9.830   2.282 -0.3597 -0.0064  0.2921
32198W        W75136  29.530   7.665   5.280 -0.0326 -0.2686 -0.1012
32199W        W75137  26.042  12.266   1.855 -0.1041  0.1768 -0.2754
32200W        W75138  27.590  11.281   0.124 -0.0902 -0.2659  0.2562
32201W        W75139  25.427   8.299   0.725  0.0951  0.2329  0.1537
32202W        W75140  27.465   9.511   1.028  0.4150  0.0973  0.2290
32203W        W75141  29.305   9.251   2.757  0.0914  0.1361  0.0246
32204W        W75142  26.159  10.373   0.081  0.3552 -0.0336  0.4008
32205W        W75143  27.814   8.649   1.332  0.2490 -0.0413 -0.1151
32206W        W75144  27.113   8.947   1.748 -0.3363 -0.1248 -0.1568
32207W        W75145  27.917  10.382   2.142  0.0938 -0.2609 -0.0620
32208W        W75146  26.835  10.679   3.583  0.2960 -0.0504 -0.1661
32209W        W75147  25.610   6.447   0.324 -0.1692  0.1040 -0.1916
32210W        W75148  29.704   9.422   1.629 -0.1280 -0.2582 -0.0076
32211W        W75149  27.010   8.467   3.921 -0.1227  0.2191  0.1673
32212W        W75150  27.803   6.563   2.446 -0.2211  0.0843 -0.1023
32213W        W75151  25.781   9.187   0.490  0.3851  0.0681  0.0359
32214W        W75152  29.755   8.961   1.435 -0.2000  0.4358  0.0040
32215W        W75153  27.196   9.714   3.059  0.0386 -0.1604  0.1122
32216W        W75154  25.539   9.494   2.369  0.0490  0.2770  0.0269
32217W        W75155  26.876   8.108   0.927 -0.0398  0.0831  0.1383
32218W        W75156  28.609   9.884   3.806 -0.2242 -0.0385  0.0182
32219W        W75157  27.573  10.124   0.401 -0.2763 -0.0077 -0.1616
32220W        W75158  28.661  10.726   3.713 -0.4482  0.2100  0.2128
32221W        W75159  26.966   8.536   3.010  0.0349 -0.0247  0.3090
32222W        W75160  28.313   7.870   0.117 -0.2363 -0.1022 -0.0178
32223W        W75161  26.075   9.187  31.911  0.1678 -0.0791 -0.0132
32224W        W75162  27.336  10.712   3.431  0.0586 -0.1322  0.0169
32225W        W75163  29.243   9.145   3.663 -0.2303 -0.1319 -0.3558
32226W        W75164  24.522   7.424   0.556 -0.0005  0.0475  0.0541
32227W        W75165  30.231   8.912  30.613  0.0946  0.0916  0.1152
32228W        W75166  29.544  10.264   3.407 -0.0225 -0.0019  0.0542
32229W        W75167  26.146  12.074  31.544  0.1819  0.2313  0.1069
32230W        W75168  28.355   8.586   1.342 -0.0520 -0.2180 -0.1443
32231W        W75169  26.015  11.669   2.174 -0.1728 -0.0980  0.0976
32232W        W75170  26.704   8.693   2.225 -0.0779  0.0280  0.0889
32233W        W75171  28.475  10.380   2.913  0.0062  0.0764 -0.0987
32234W        W75172  29.357  10.763   1.964 -0.1071 -0.1472  0.0030
32235W        W75173  27.220   8.122   0.083  0.0658 -0.1803  0.0375
32236W        W75174  25.616   8.792   1.887  0.1586  0.1828  0.2112
32237W        W75175  24.250   9.543   1.212 -0.2264  0.1228  0.3978
32238W        W75176  28.837   9.327   2.550 -0.0065  0.0866  0.0358
32239W        W75177  28.752   8.857   3.593  0.0925  0.1886  0.2001
32240W        W75178  25.953   9.605   0.501  0.0029  0.1594  0.2007
32241W        W75179  28.042   7.317   3.337  0.0391  0.0707  0.1066
32242W        W75180  27.558  10.465   2.542 -0.1137 -0.0432 -0.1069
32243W        W75181  26.557  10.844   2.836 -0.2307  0.2492 -0.1442
32244W        W75182  26.210   8.903   0.393  0.0758 -0.1182 -0.4890
32245W        W75183  28.416   9.484   4.029  0.2503 -0.1722  0.0264
32246W        W75184  25.578  10.031   0.895  0.1011 -0.0036 -0.0533
32247W        W75185  26.828  11.309   0.825 -0.1167  0.0325 -0.4656
32248W        W75186  27.253   9.027   2.939  0.0703 -0.3349  0.0049
32249W        W75187  28.971   7.280   1.029  0.1966 -0.0670 -0.1983
32250W        W75188  29.826  11.427   2.937 -0.3152 -0.0141  0.0341
32251W        W75189  28.237   8.056   2.872 -0.2329  0.0283  0.2031
32252W        W75190  28.642   7.171   1.742  0.0769  0.0954  0.1233
32253W        W75191  29.566   9.444   3.180  0.0243 -0.0523  0.1119
32254W        W75192  27.551  10.560   3.002  0.1266  0.2120  0.1436
32255W        W75193  25.604   6.940   0.084 -0.0529 -0.2569 -0.2219
32256W        W75194  27.289   8.610  31.415 -0.0620  0.1102 -0.2147
32257W        W75195  28.422   9.486   2.223 -0.1716  0.3563  0.2156
32258W        W75196  27.313   8.245   4.298  0.1407  0.1183 -0.2190
32259W        W75197  25.400   8.450   3.034 -0.0738 -0.0906 -0.0247
32260W        W75198  26.270   9.485   1.967  0.2544  0.1037  0.2392
32261W        W75199  24.954   8.248   0.957  0.0428  0.1344 -0.0240
32262W        W75200  29.813  10.958  31.244  0.1283 -0.0398 -0.2354
32263W        W75201  27.132   7.350   2.112 -0.0852  0.0825 -0.0788
32264W        W75202  26.879   8.871   0.578 -0.0921  0.0797 -0.1740
32265W        W75203  28.549   9.986   0.775 -0.2615  0.1783 -0.1000
32266W        W75204  28.416   9.982   2.022 -0.2760 -0.3037  0.0415
32267W        W75205  26.927   6.700   1.572  0.1000  0.0275  0.0886
32268W        W75206  29.808  11.964   5.151  0.0862  0.0705 -0.0962
32269W        W75207  24.959   8.856  30.738 -0.0323 -0.3691 -0.0588
32270W        W75208  28.995   9.370   1.411 -0.0518 -0.0721 -0.0739
32271W        W75209  26.016   8.288   2.665 -0.1661 -0.0225  0.0708
32272W        W75210  25.194   7.549  31.312  0.0376  0.1014  0.1924
32273W        W75211  26.722   9.020   2.594  0.1357 -0.0492 -0.3181
32274W        W75212  28.167  11.461   1.550  0.1208 -0.1710  0.0776
32275W        W75213  28.525  11.935   1.012  0.0621  0.2619 -0.1934
32276W        W75214  27.165  10.710   1.640 -0.1476  0.0300 -0.2732
32277W        W75215  28.686   9.426   3.047 -0.1323 -0.2392 -0.0154
32278W        W75216  25.316   9.054   2.215 -0.1280  0.0298 -0.1062
32279W        W75217  28.221   9.920  31.370 -0.3233 -0.1484  0.2334
32280W        W75218  26.066  11.035   3.016  0.3370  0.4499  0.0384
32281W        W75219  29.572  10.434   1.064  0.2470 -0.0227 -0.1749
32282W        W75220  28.861   7.259   2.180  0.1494 -0.4611 -0.2674
32283W        W75221  28.159   9.230   0.154  0.0575 -0.2406  0.2599
32284W        W75222  26.068   8.432   3.507 -0.4139  0.1671 -0.2219
32285W        W75223  25.412   9.536   3.722 -0.2286 -0.0354 -0.0481
32286W        W75224  28.330  11.008   2.312  0.0486  0.1247  0.1640
32287W        W75225  26.949   7.766   1.835  0.0848  0.2747  0.3073
32288W        W75226  28.799   8.700   0.501 -0.0857 -0.1160  0.1039
32289W        W75227  26.936   9.889   1.431  0.1734 -0.1045  0.0547
32290W        W75228  27.043   9.598   1.820  0.0784  0.3460 -0.1553
32291W        W75229  28.448   7.540   1.388 -0.0506 -0.0651  0.1424
32292W        W75230  28.707   9.571   4.974 -0.0490  0.1482 -0.0310
32293W        W75231  27.402   9.881   1.574 -0.0220  0.1229 -0.1483
32294W        W75232  29.194   9.401   4.780  0.0140  0.1292  0.1938
32295W        W75233  26.575   9.170   0.929  0.0357  0.2419  0.0642
32296W        W75234  29.804   9.266   1.053  0.0925  0.0399 -0.0446
32297W        W75235  27.703  11.674   2.232 -0.1453 -0.0171  0.2517
32298W        W75236  29.089  10.767   3.965 -0.0860  0.2911 -0.0512
32299W        W75237  27.734  11.359   0.670  0.1277  0.1033  0.4251
32300W        W75238  29.035  10.739   1.544  0.2662  0.1843  0.0910
32301W        W75239  26.645   8.499   1.295 -0.2991 -0.1587 -0.0170
32302W        W75240  27.822   9.892   0.877 -0.1758  0.2635  0.2571
32303W        W75241  28.090  10.367   0.942  0.1311  0.1122  0.0768
32304W        W75242  29.270   9.113   1.729  0.1456 -0.2679  0.0128
32305W        W75243  27.438   9.402   2.071 -0.0759  0.0062 -0.1977
32306W        W75244  29.623   7.409   0.650  0.0120  0.1499 -0.1385
32307W        W75245  27.855  10.217   3.631  0.0134 -0.0982  0.0280
32308W        W75246  28.402   9.006   2.428 -0.1263 -0.1532  0.1543
32309W        W75247  25.511   9.674   6.982  0.1423  0.0811  0.0607
32310W        W75248  26.999   8.699   4.361 -0.3783 -0.0084 -0.2382
32311W        W75249  29.314   8.380   2.495  0.2737  0.2521  0.1052
32312W        W75250  27.708   8.415   5.943  0.1992 -0.1163  0.1550
32313W        W75251  25.239   9.305   5.850  0.0532 -0.0411 -0.1553
32314W        W75252  27.535  11.483   5.854  0.0576 -0.1919  0.0092
32315W        W75253  27.081   7.411   4.890  0.0294  0.0551  0.2258
32316W        W75254  28.808   9.601   5.483  0.1483  0.0140  0.1120
32317W        W75255  28.920   8.963   5.716 -0.1044 -0.2379  0.1845
32318W        W75256  27.944   9.139   5.223  0.0984  0.3105  0.0006
32319W        W75257  28.137   8.851   6.051  0.2299  0.1402 -0.0405
32320W        W75258  26.420  10.600   7.546  0.0864  0.0667 -0.2215
32321W        W75259  26.514   7.315   3.924 -0.1759 -0.0531 -0.2412
32322W        W75260  26.641   7.762   6.158  0.0894  0.0141 -0.1053
32323W        W75261  28.431   8.617   6.508  0.0389  0.1695  0.1649
32324W        W75262  26.515   9.792   4.236 -0.0995 -0.0580  0.1191
32325W        W75263  26.626   8.716   6.644  0.0088  0.1107  0.2157
32326W        W75264  26.737   7.928   4.801  0.0247 -0.0044 -0.1239
32327W        W75265  27.169  11.053   6.604 -0.1674  0.0513 -0.0411
32328W        W75266  27.341   7.131   6.831  0.1436  0.1423 -0.0450
32329W        W75267  27.994   8.398   7.381 -0.1275 -0.1423 -0.1483
32330W        W75268  26.509   9.351   4.985  0.2958 -0.1327 -0.0167
32331W        W75269  25.282   8.584   4.531  0.0845 -0.1483 -0.1633
32332W        W75270  25.106   7.308   6.447 -0.1336  0.1424 -0.0594
32333W        W75271  28.324  10.259   7.097 -0.2048  0.0914 -0.2036
32334W        W75272  29.452   9.128   6.789 -0.2808 -0.1855  0.2356
32335W        W75273  29.004   8.811   5.263 -0.1702  0.1889  0.0023
32336W        W75274  27.950  11.235   5.901  0.0610 -0.1579  0.0518
32337W        W75275  29.314  11.013   6.113 -0.0299 -0.1032  0.1266
32338W        W75276  27.665   8.976   7.658  0.0106 -0.0933 -0.0260
32339W        W75277  27.484   9.653   4.347  0.1126  0.0611 -0.2661
32340W        W75278  26.438  10.902   5.060 -0.0181  0.0658 -0.2796
32341W        W75279  27.646  11.537   3.949  0.1193  0.3455 -0.1908
32342W        W75280  30.348   9.830   3.891  0.1724  0.0540 -0.2411
32343W        W75281  29.265  10.533   7.014  0.2026  0.1890 -0.1478
32344W        W75282  28.316  11.523   6.965 -0.0183 -0.1591  0.3001
32345W        W75283  25.646  10.786   3.612  0.1019  0.2261 -0.2498
32346W        W75284  27.004  11.600   6.816  0.1352  0.4061 -0.1237
32347W        W75285  28.083  11.114   7.219  0.2200 -0.1851  0.2586
32348W        W75286  27.006   9.761   6.172  0.1016  0.0883  0.1026
32349W        W75287  28.153   9.744   4.925  0.3273  0.2539  0.2148
32350W        W75288  27.042  10.626   4.905  0.2516 -0.4073  0.0780
32351W        W75289  27.613   7.892   6.490  0.1584  0.4892 -0.1960
32352W        W75290  27.926  10.123   7.347 -0.1188 -0.0311 -0.4442
32353W        W75291  26.234  11.205   7.325  0.2225  0.2673 -0.0892
32354W        W75292  29.038   7.189   8.434 -0.2177  0.1803 -0.0618
32355W        W75293  26.863  12.914   3.837 -0.0775  0.1538  0.2466
32356W        W75294  27.829   8.434   4.791 -0.2673  0.1509 -0.4310
32357W        W75295  28.709   9.446   4.442  0.0556  0.2364 -0.2241
32358W        W75296  28.712   7.314   4.158 -0.0722 -0.0466  0.2225
32359W        W75297  27.614   7.506   4.936  0.4806 -0.3518 -0.0408
32360W        W75298  26.881   9.804   5.212 -0.1180 -0.1191  0.2200
32361W        W75299  27.364   8.687   5.734  0.0199 -0.2121 -0.0381
32362W        W75300  28.564  10.494   8.018 -0.1973 -0.0128 -0.0069
32363W        W75301  28.756   7.959   2.968 -0.0841 -0.0948  0.1911
32364W        W75302  27.862   9.306   6.217 -0.1268  0.3283 -0.1738
32365W        W75303  26.162  11.109   6.769  0.2871 -0.1288 -0.0106
32366W        W75304  25.784   9.792   4.913  0.0787  0.1777 -0.0578
32367W        W75305  28.431  11.482   4.920  0.0376  0.0883 -0.0921
32368W        W75306  29.272  11.567   5.940 -0.0043  0.1128 -0.3243
32369W        W75307  28.961  10.263   3.103 -0.1721 -0.0002 -0.1542
32370W        W75308  25.622   9.387   4.793 -0.0267 -0.1453  0.0157
32371W        W75309  26.806   9.559   7.486 -0.3716 -0.2715 -0.0941
32372W        W75310  26.229   8.983   6.958 -0.1641  0.0327 -0.2802
32373W        W75311  25.887   8.670   3.002 -0.1848 -0.1943 -0.1258
32374W        W75312  28.451  10.767   7.116 -0.3014  0.1788 -0.0572
32375W        W75313  25.863  11.564   6.820 -0.2328  0.3091  0.1215
32376W        W75314  28.096   9.011   6.585 -0.2959  0.3799 -0.0137
32377W        W75315  26.383   8.798   4.926  0.1500  0.0790 -0.2584
32378W        W75316  29.393   9.880   4.634 -0.0639 -0.2360  0.0591
32379W        W75317  28.450  11.119   3.409  0.1174  0.2250 -0.0079
32380W        W75318  28.291   8.118   5.877 -0.0613  0.2056  0.2908
32381W        W75319  28.913   7.375   6.548 -0.2754 -0.0145 -0.3823
32382W        W75320  25.374  10.568   4.007 -0.1992 -0.0539  0.0408
32383W        W75321  26.724   9.409   4.003  0.0422  0.0120 -0.0875
32384W        W75322  28.542  10.775   7.644  0.0247 -0.0041 -0.0983
32385W        W75323  29.092   9.538   3.345  0.5428 -0.0351  0.0400
32386W        W75324  26.802  11.668   5.691  0.1312 -0.1114 -0.2430
32387W        W75325  27.555   9.006   6.658 -0.2829 -0.1683  0.0098
32388W        W75326  27.047   9.829   6.694 -0.2619 -0.0086  0.2120
32389W        W75327  25.374  11.859   3.975  0.0377 -0.0079 -0.0846
32390W        W75328  27.058  11.282   6.088  0.1137  0.1388 -0.0549
32391W        W75329  26.085   9.121   3.146  0.0112  0.0251 -0.2638
32392W        W75330  24.832   7.537   6.842 -0.0443 -0.1370  0.0589
32393W        W75331  26.920   9.004   5.730 -0.0812  0.1125 -0.0361
32394W        W75332  29.218   7.843   4.000 -0.0780 -0.0784 -0.1209
32395W        W75333  27.163   9.443   7.046  0.1131  0.0862  0.3372
32396W        W75334  29.718   8.249   6.943  0.0370  0.2699 -0.4258
32397W        W75335  26.681  10.255   4.942 -0.0441  0.0181  0.0463
32398W        W75336  29.220  10.895   4.967  0.2548 -0.1892 -0.2178
32399W        W75337  28.522   8.993   5.361 -0.0061  0.3641  0.0195
32400W        W75338  28.425  10.939   5.793  0.0156  0.1638  0.2450
32401W        W75339  26.489   8.522   3.992  0.0725  0.0002  0.1633
32402W        W75340  25.814   7.139   8.183  0.1220 -0.1329  0.1295
32403W        W75341  26.192   7.524   6.246 -0.1072 -0.2007 -0.2619
32404W        W75342  28.442   9.363   7.280  0.1460  0.0057 -0.0189
32405W        W75343  26.466   7.703   5.689  0.3403  0.2495 -0.3219
32406W        W75344  26.716   8.460   4.764 -0.2481  0.1604 -0.3191
32407W        W75345  27.518   7.909   5.980 -0.1151  0.0575 -0.0085
32408W        W75346  25.010   9.945   4.781 -0.0924  0.0610 -0.1959
32409W        W75347  27.272   7.535   7.679  0.0188 -0.3142  0.2873
32410W        W75348  28.392  11.403   5.543 -0.0984 -0.0718 -0.1851
32411W        W75349  29.430  10.915   7.345  0.0901  0.0545  0.3669
32412W        W75350  29.077  10.322   5.335  0.0649  0.3262 -0.2715
32413W        W75351  27.969   8.528   6.771  0.0929 -0.1116  0.2899
32414W        W75352  26.393   8.811   3.593 -0.1830 -0.1312  0.1716
32415W        W75353  26.533  10.659   5.506  0.0275 -0.2363 -0.3033
32416W        W75354  27.789  10.403   5.581 -0.0543  0.0496  0.2124
32417W        W75355  27.750   7.974   4.545 -0.0632 -0.1841 -0.0814
32418W        W75356  30.066  11.483   6.259  0.0584 -0.2478 -0.1584
32419W        W75357  28.369   9.885   5.738 -0.0754 -0.0452  0.0133
32420W        W75358  26.549  10.329   6.342  0.1788  0.0469 -0.1823
32421W        W75359  28.397   8.300   6.951 -0.1359  0.1433 -0.3791
32422W        W75360  28.707   8.009   7.309 -0.3243  0.0365  0.2596
32423W        W75361  29.057   7.840   5.687 -0.1606 -0.1470  0.4663
32424W        W75362  26.480   8.127   3.639  0.1724 -0.1652 -0.0502
32425W        W75363  27.630  11.201   4.814  0.1064 -0.1698  0.1771
32426W        W75364  27.064  10.445   4.407 -0.0129  0.1638 -0.1619
32427W        W75365  26.545  10.200   4.488  0.1282  0.4098  0.0606
32428W        W75366  29.244  11.048   5.606  0.1668  0.2267 -0.2365
32429W        W75367  30.432   9.223   6.346 -0.0199 -0.1354 -0.1766
32430W        W75368  26.851   9.030   7.695  0.0954 -0.1700  0.0495
32431W        W75369  27.696   9.833   7.814 -0.3141 -0.1343  0.3133
32432W        W75370  26.182   9.687   4.596  0.2047  0.1406 -0.3158
32433W        W75371  26.769  11.189   7.866  0.2429 -0.2643 -0.4888
32434W        W75372  28.026   7.734   5.393 -0.2731 -0.0271  0.0674
32435W        W75373  29.252   7.176   3.245  0.1642  0.0355 -0.3643
32436W        W75374  28.069   9.432   7.590 -0.1709 -0.0657 -0.1372
32437W        W75375  28.619   9.356   3.561 -0.0791 -0.3411 -0.0416
32438W        W75376  28.589   7.608   2.688 -0.4418  0.0644 -0.1585
32439W        W75377  27.988   8.938   4.682  0.1893  0.0427 -0.1750
32440W        W75378  25.909  10.274   8.528 -0.0737  0.1015  0.2922
32441W        W75379  27.052   9.985   4.255 -0.0889  0.1463 -0.0097
32442W        W75380  27.133   9.499   4.861 -0.2159 -0.0018 -0.0786
32443W        W75381  27.053   9.502   4.373  0.2181 -0.1008 -0.0581
32444W        W75382  28.654  11.587   4.440  0.2364  0.5194 -0.0474
32445W        W75383  26.939   9.964   7.185 -0.0813  0.1499  0.1048
32446W        W75384  28.294  10.313   7.600 -0.0671  0.2261  0.0194
32447W        W75385  28.577  10.613   6.601 -0.1556  0.1703 -0.1764
32448W        W75386  26.365   8.195   6.629  0.0406  0.1291  0.1299
32449W        W75387  27.936   9.637   4.094 -0.0750 -0.2414 -0.0958
32450W        W75388  29.161   8.852   6.120  0.0049  0.3467  0.5325
32451W        W75389  26.626  12.370   4.938  0.2910 -0.1360 -0.1502
32452W        W75390  28.821   8.360   6.725 -0.0866  0.0578 -0.0397
32453W        W75391  28.010   7.051   4.872 -0.0680 -0.1894 -0.2738
32454W        W75392  28.733   7.767   6.066 -0.0175 -0.1606 -0.0674
32455W        W75393  29.476  10.277   8.356 -0.0724  0.1211 -0.1312
32456W        W75394  29.107   7.198   4.688  0.1331 -0.0454 -0.0258
32457W        W75395  28.891   8.595   7.196  0.0769 -0.0237  0.1134
32458W        W75396  25.792   9.863   3.621  0.2614  0.0977  0.2402
32459W        W75397  27.262   8.055   6.837  0.2099  0.1984 -0.0722
32460W        W75398  26.577   9.270   5.977 -0.1676 -0.0410 -0.3058
32461W        W75399  26.352  11.565   5.576 -0.0192 -0.0626  0.1885
32462W        W75400  28.712   9.311   7.790  0.2145 -0.1672 -0.3869
32463W        W75401  27.943   9.229   5.751  0.1709 -0.0138 -0.0054
32464W        W75402  27.996   8.059   6.851  0.0469  0.0925 -0.0174
32465W        W75403  28.029   8.679   3.895 -0.2822 -0.3497 -0.1217
32466W        W75404  27.810  12.256   2.708 -0.2253 -0.0296  0.2276
32467W        W75405  25.797  11.349   4.333 -0.0711  0.2186 -0.0583
32468W        W75406  28.378   7.414   5.163  0.2449 -0.2312 -0.1225
32469W        W75407  27.480   9.868   7.179 -0.2131  0.1219  0.1476
32470W        W75408  26.275  10.816   4.283 -0.0704 -0.1465  0.4910
32471W        W75409  28.615   9.058   6.080  0.0005  0.2435  0.0866
32472W        W75410  27.102  11.147   5.068  0.2152 -0.0270  0.0635
32473W        W75411  28.092   6.076   6.910  0.2405  0.1433  0.0455
32474W        W75412  27.504  10.241   4.631  0.1624 -0.0055  0.0781
32475W        W75413  25.904   9.798   4.130 -0.0826  0.0152 -0.2246
32476W        W75414  24.893  10.395   4.766 -0.0722 -0.1170 -0.0030
32477W        W75415  28.694   8.558   5.045 -0.1657  0.3333  0.2626
32478W        W75416  28.441   9.915   4.514  0.0479  0.1947 -0.1627
32479W        W75417  26.952   7.971   5.856  0.1196  0.2712 -0.1397
32480W        W75418  26.171   9.202   5.643 -0.0422  0.0036 -0.1957
32481W        W75419  26.536   9.852   6.460  0.0786  0.0565  0.1515
32482W        W75420  27.924   9.829   6.419  0.2386 -0.1901 -0.2742
32483W        W75421  29.238   6.636   3.363 -0.1680  0.3792 -0.2601
32484W        W75422  28.706  10.201   6.192  0.0053  0.2633 -0.1743
32485W        W75423  27.179  10.357   8.090  0.0790  0.0337  0.1263
32486W        W75424  25.449   8.640   2.579 -0.0638  0.1424 -0.2128
32487W        W75425  29.592   8.616   7.476  0.0408 -0.1639 -0.3391
32488W        W75426  27.331   8.195   5.610 -0.0174  0.2214  0.0875
32489W        W75427  26.648  11.298   5.340  0.1321 -0.2659  0.3575
32490W        W75428  28.045  10.176   6.005 -0.3271  0.3008 -0.0667
32491W        W75429  26.017   9.306   5.162 -0.1438  0.0315  0.2652
32492W        W75430  27.720  10.724   4.778 -0.3082  0.2475  0.0241
32493W        W75431  26.365   9.106   7.875  0.1614 -0.1346  0.0883
32494W        W75432  29.371   9.648   6.397 -0.3214 -0.0112  0.1698
32495W        W75433  27.884   8.222   5.496 -0.1779  0.1836 -0.1571
32496W        W75434  25.716   7.907   4.977 -0.1617 -0.0340  0.1514
32497W        W75435  28.990   7.641   6.978  0.1129  0.0822  0.1411
32498W        W75436  28.351   9.231   4.924 -0.4431 -0.2966 -0.1264
32499W        W75437  27.108   7.928   6.309 -0.0233  0.0986  0.3199
32500W        W75438  26.403  10.109   7.936 -0.0071  0.0408 -0.0604
32501W        W75439  28.210   7.319   5.675  0.1393 -0.0098  0.3289
32502W        W75440  29.321  11.350   3.822  0.0620 -0.1516 -0.0600
32503W        W75441  28.971   9.853   6.588  0.1158 -0.5083  0.0804
32504W        W75442  28.206  10.037   4.038 -0.0344  0.0937 -0.0038
32505W        W75443  26.342   9.351   6.431 -0.1595 -0.3067 -0.0598
32506W        W75444  26.117  10.144   3.408 -0.0112  0.1788  0.1586
32507W        W75445  29.306   7.943   6.154 -0.1072  0.1668  0.0905
32508W        W75446  25.406  11.481   7.101  0.0740 -0.0734  0.0659
32509W        W75447  27.135  10.037   4.829  0.1485  0.0672  0.0051
32510W        W75448  26.603  11.946   5.301 -0.0220  0.1472  0.0504
32511W        W75449  29.420   7.565   4.516  0.2148  0.1673 -0.1392
32512W        W75450  27.626   9.832   4.993 -0.1476  0.2347 -0.0728
32513W        W75451  26.702   7.389   6.493 -0.0887  0.0673  0.0545
32514W        W75452  29.483   7.470   7.219 -0.0918  0.2559  0.0593
32515W        W75453  29.152   9.301   5.401 -0.1038 -0.2749 -0.1558
32516W        W75454  27.759   8.087   7.670 -0.2900 -0.0170 -0.0907
32517W        W75455  27.008   8.275   5.141  0.0599  0.1330 -0.0689
32518W        W75456  29.083   8.436   4.736 -0.5089 -0.2499 -0.0566
32519W        W75457  27.175   8.386   6.091  0.1946 -0.1366  0.2647
32520W        W75458  27.527  10.765   7.873 -0.1172 -0.0526  0.1246
32521W        W75459  25.447   8.891   7.624 -0.1398 -0.0910 -0.1087
32522W        W75460  27.542   8.818   6.159  0.0313 -0.1249 -0.1072
32523W        W75461  25.960   8.200   3.924  0.3067 -0.1053  0.1240
32524W        W75462  26.648  10.327   5.860  0.0882 -0.3660 -0.1307
32525W        W75463  28.631   8.589   6.029 -0.0067  0.2212  0.4453
32526W        W75464  26.942   9.247   5.267 -0.1750  0.0884  0.0449
32527W        W75465  29.964   9.084   6.487 -0.2082  0.0194 -0.0339
32528W        W75466  26.442   9.634   5.383 -0.1478 -0.1784  0.2543
32529W        W75467  26.524   9.014   5.397 -0.1621  0.2083 -0.3271
32530W        W75468  27.029  10.039   5.729  0.3375 -0.1008  0.2593
32531W        W75469  26.020  10.272   6.206 -0.0334  0.0655 -0.0198
32532W        W75470  27.000   8.504   7.528  0.0129  0.3077  0.0712
32533W        W75471  29.548   8.899   5.397 -0.0213 -0.0396  0.1322
32534W        W75472  28.520   7.800   4.009 -0.0579  0.1423  0.1934
32535W        W75473  27.650   8.817   7.094  0.1802  0.1471 -0.0540
32536W        W75474  28.449   7.194   6.171  0.0716  0.0635 -0.0997
32537W        W75475  27.432   9.678   6.346  0.1919 -0.1290 -0.1397
32538W        W75476  26.406   7.698   7.555 -0.0978  0.0638 -0.0564
32539W        W75477  28.064  11.984   6.587 -0.1320 -0.2050  0.1396
32540W        W75478  28.876   8.650   2.987  0.4126  0.1867  0.2369
32541W        W75479  29.229   9.342   7.861 -0.1842 -0.2406 -0.2268
32542W        W75480  28.203   8.664   5.074 -0.0302  0.0621 -0.3071
32543W        W75481  28.136   8.434   4.326  0.2323  0.0565 -0.1138
32544W        W75482  25.668   9.038   5.815  0.0452 -0.1358  0.0083
32545W        W75483  28.931   9.595   8.172  0.0284  0.0635 -0.2422
32546W        W75484  25.934   8.823   4.426  0.0635  0.0354 -0.0082
32547W        W75485  27.631   8.284   7.122  0.0966 -0.0213 -0.0524
32548W        W75486  26.177  12.356   4.539  0.1842  0.2942 -0.3060
32549W        W75487  28.827  10.272   5.740 -0.2115  0.1184 -0.1499
32550W        W75488  27.523   8.117   5.098 -0.1969  0.3095  0.0004
32551W        W75489  25.754   8.131   5.954  0.5661  0.1569 -0.1952
32552W        W75490  26.401  11.522   6.890  0.3787 -0.1895  0.1416
32553W        W75491  26.049  10.148   4.433  0.2604 -0.1003 -0.0669
32554W        W75492  27.750   9.396   4.706 -0.1227  0.1461 -0.1296
32555W        W75493  27.819   9.614   5.454 -0.0150 -0.0475 -0.5268
32556W        W75494  28.803  10.323   7.502  0.4162  0.3832  0.0972
32557W        W75495  26.815   7.893   4.010  0.0617  0.3949 -0.0077
32558W        W75496  28.991   9.040   6.980 -0.0886 -0.0818  0.1062
32559W        W75497  26.269  10.127   3.939 -0.0787  0.1060  0.0284
32560W        W75498  29.819   7.921   6.302  0.2847 -0.1229  0.1682
32561W        W75499  26.193  10.723   7.115 -0.0263 -0.2574 -0.1619
32562W        W75500  26.694   9.218   7.016  0.0794  0.2436 -0.1134
32563W        W75501  27.737  10.970   6.274  0.0829 -0.1728 -0.0585
32564W        W75502  27.518   7.185   5.697 -0.0271  0.0141 -0.0271
32565W        W75503  28.342   9.590   5.311  0.3375  0.0874  0.0337
32566W        W75504  27.397   9.924   5.452  0.1236  0.3035  0.1219
32567W        W75505  28.602   8.438   7.570 -0.0512  0.2473  0.1503
32568W        W75506  28.047  10.548   6.454  0.1674 -0.1024 -0.3368
32569W        W75507  26.669  10.412   4.040 -0.0538  0.0765 -0.1177
32570W        W75508  28.077  11.705   7.990 -0.0027  0.1830  0.1733
32571W        W75509  30.254   9.135   5.011  0.1003 -0.0523  0.1769
32572W        W75510  25.884  10.960   4.030 -0.0521 -0.1593  0.2152
32573W        W75511  25.854   6.926   7.556 -0.1356  0.0247 -0.3682
32574W        W75512  28.846  10.867   8.838 -0.0322 -0.1619 -0.3794
32575W        W75513  28.288   9.619   6.169  0.1738 -0.0273  0.2676
32576W        W75514  25.918   8.277   5.280  0.2182  0.1701  0.4083
32577W        W75515  26.529  10.319   3.533  0.1901  0.1835 -0.1244
32578W        W75516  27.207  10.310   6.937 -0.1122  0.0957 -0.0413
32579W        W75517  25.447   9.355   7.378  0.1889  0.3286 -0.0429
32580W        W75518  27.593  10.259   4.042  0.1411 -0.3558  0.2947
32581W        W75519  29.194   9.920   5.560 -0.0692  0.0439 -0.3460
32582W        W75520  28.648  11.105   5.243  0.1605 -0.0147  0.2365
32583W        W75521  27.968  10.640   6.963 -0.1110 -0.0196 -0.0744
32584W        W75522  27.317   9.069   4.564  0.2845 -0.2430  0.0498
32585W        W75523  26.702  10.186   6.803  0.0155 -0.4267  0.1459
32586W        W75524  25.380   9.992   3.989  0.0073 -0.2100 -0.1476
32587W        W75525  28.366  10.404   5.614 -0.1061  0.1815  0.1444
32588W        W75526  27.007  10.853   5.467  0.0363 -0.0206  0.0939
32589W        W75527  28.808  10.234   6.857  0.1937  0.0593 -0.1044
32590W        W75528  29.342   7.605   3.499 -0.2515  0.0347 -0.0731
32591W        W75529  29.514   8.735   6.457  0.2016  0.0312  0.4070
32592W        W75530  28.303   7.983   4.528 -0.2566  0.2183 -0.0533
32593W        W75531  28.022  10.696   7.469 -0.0174 -0.3540 -0.0926
32594W        W75532  28.623   9.536   6.458  0.4618 -0.0221  0.0624
32595W        W75533  27.247   7.319   4.410  0.1083  0.1590 -0.2343
32596W        W75534  25.867   9.544   8.053 -0.0818 -0.0299 -0.1448
32597W        W75535  27.936   7.485   6.859  0.1302 -0.0506 -0.4587
32598W        W75536  26.654  11.395   6.453 -0.1308  0.0655 -0.3369
32599W        W75537  27.010  10.791   4.082  0.1214 -0.1479 -0.3962
32600W        W75538  25.537   9.323   5.376 -0.1236  0.2647 -0.0720
32601W        W75539  27.122   8.766   5.324  0.4536  0.0733 -0.2061
32602W        W75540  29.510   7.826   6.798  0.1511  0.2054 -0.2108
32603W        W75541  28.046  10.344   4.871 -0.0774 -0.1823  0.0719
32604W        W75542  28.087   7.567   4.766 -0.1106 -0.0710 -0.1016
32605W        W75543  27.010  10.196   6.268  0.0535  0.1145  0.1563
32606W        W75544  26.932  10.594   6.616  0.2864 -0.0236 -0.1837
32607W        W75545  27.428  12.347   5.493  0.2989  0.2545  0.0752
32608W        W75546  26.282   8.308   4.912 -0.2227 -0.0900  0.2891
32609W        W75547  28.838   8.221   4.012 -0.1350  0.0254  0.1658
32610W        W75548  26.948   9.517   5.744  0.0386 -0.2746  0.0907
32611W        W75549  28.517   9.172   8.297  0.4295 -0.5565 -0.3239
32612W        W75550  26.271   8.180   5.787  0.0442  0.0885  0.3293
32613W        W75551  28.581   8.671   4.006 -0.1622  0.0007 -0.1052
32614W        W75552  28.059  11.197   7.804  0.0322  0.3130  0.2648
32615W        W75553  26.441   8.757   5.839  0.0130  0.0518 -0.1829
32616W        W75554  27.523   8.556   3.934  0.2233 -0.0816  0.0439
32617W        W75555  28.400   9.840   7.426 -0.0918  0.2072 -0.0252
32618W        W75556  28.639   9.798   2.715 -0.1527 -0.0690  0.3276
32619W        W75557  27.378  12.077   8.523 -0.1096 -0.0784 -0.3972
32620W        W75558  26.467   8.782   4.451 -0.1685 -0.0684  0.0494
32621W        W75559  28.021   8.024   4.953  0.0961 -0.0322  0.1001
32622W        W75560  25.459  10.285   4.451  0.3820  0.3643  0.1888
32623W        W75561  28.209   9.535   6.746  0.1620  0.0459  0.0166
32624W        W75562  28.803  11.594   7.661  0.1705 -0.0988 -0.2229
32625W        W75563  26.317   6.683   4.736 -0.0176 -0.1170  0.0695
32626W        W75564  28.312  11.422   2.877 -0.2663  0.1279  0.0059
32627W        W75565  29.211   9.566   6.901  0.0176  0.1540  0.2772
32628W        W75566  28.354  10.626   5.159 -0.3119 -0.0987 -0.0865
32629W        W75567  29.328   7.971   4.928  0.0219  0.0339  0.0308
32630W        W75568  28.896  10.712   6.092 -0.1111  0.2878  0.1139
32631W        W75569  26.170   7.997   6.193  0.0317  0.2494  0.0862
32632W        W75570  29.732   9.612   5.432  0.0880 -0.0229 -0.0835
32633W        W75571  29.662  10.774   5.931 -0.1715  0.1092 -0.0833
32634W        W75572  28.068   7.865   3.570 -0.3190  0.0628 -0.0853
32635W        W75573  26.924   8.808   6.254  0.3757 -0.2479  0.3128
32636W        W75574  27.140  11.289   5.565  0.1869  0.0919  0.1878
32637W        W75575  30.424   8.281   6.144 -0.1485 -0.0784  0.1448
32638W        W75576  28.205   9.976   7.938  0.1998  0.3553  0.0915
32639W        W75577  28.060  11.375   4.547  0.0020  0.0593 -0.1093
32640W        W75578  28.429   7.952   6.504  0.1281  0.0118  0.0248
32641W        W75579  27.573  10.668   6.686 -0.0397 -0.0647  0.3305
32642W        W75580  27.575  10.503   7.221  0.0863 -0.0343 -0.2300
32643W        W75581  26.251   9.800   2.413 -0.3095 -0.0350 -0.0586
32644W        W75582  27.732   9.370   7.951  0.0213  0.0217 -0.1513
32645W        W75583  27.962  10.759   5.869  0.2642  0.1423  0.0902
32646W        W75584  26.678  10.725   4.608 -0.0559  0.0453  0.0795
32647W        W75585  29.722  11.081   5.477  0.1999 -0.0523 -0.2302
32648W        W75586  28.386  10.004   6.602 -0.3170 -0.2715  0.0035
32649W        W75587  29.464   9.664   7.486 -0.0155 -0.1464  0.0732
32650W        W75588  25.243   7.978   5.705  0.1207  0.2638 -0.1276
32651W        W75589  29.545   7.589   5.814 -0.2030  0.1047 -0.0656
32652W        W75590  28.375   7.385   3.777  0.1209  0.0746 -0.1580
32653W        W75591  27.626   9.394   7.383 -0.2882 -0.1159  0.0718
32654W        W75592  26.208   9.984   5.081 -0.1787  0.0958  0.4944
32655W        W75593  27.812   9.491   3.668 -0.1584 -0.2796 -0.0373
32656W        W75594  26.718   9.781   4.762 -0.1517  0.0985 -0.0319
32657W        W75595  28.310   8.263   8.562 -0.1359  0.1132 -0.0422
32658W        W75596  25.837   8.801   7.188 -0.2179 -0.0572 -0.1631
32659W        W75597  27.473  10.173   6.545  0.4017 -0.0996  0.4325
32660W        W75598  26.019   7.878   3.408  0.1349 -0.0085 -0.2800
32661W        W75599  28.726  11.101   4.713  0.1086  0.0175  0.2292
32662W        W75600  26.620   8.069   5.419 -0.2755  0.0095  0.5246
32663W        W75601  25.872   8.817   5.320  0.1765 -0.1536  0.0075
32664W        W75602  29.255  10.505   5.837  0.0283 -0.1153 -0.1913
32665W        W75603  29.612  10.616   5.255 -0.0853 -0.1552  0.1239
32666W        W75604  28.275   8.239   3.893 -0.2409 -0.2263  0.1003
32667W        W75605  28.829  10.997   8.268 -0.2001  0.0930 -0.3310
32668W        W75606  26.298   9.681   3.741 -0.1410  0.2272  0.2842
32669W        W75607  26.741   8.742   7.161 -0.1356 -0.3223  0.0701
32670W        W75608  27.603   9.540   6.800  0.0299  0.1878 -0.0478
32671W        W75609  25.528   7.595   3.333 -0.1832 -0.1815 -0.0820
32672W        W75610  27.434   9.112   5.036 -0.1064  0.1510  0.1733
32673W        W75611  28.036  10.055   5.313 -0.0318 -0.2963 -0.0718
32674W        W75612  29.049  11.239   4.265 -0.0515 -0.1751  0.0757
32675W        W75613  28.725  11.108   6.868  0.1585 -0.1618  0.0662
32676W        W75614  29.034   9.270   6.457 -0.4243  0.0931  0.0647
32677W        W75615  26.355   7.841   6.971  0.0937 -0.0244 -0.0811
32678W        W75616  28.964  10.003   4.887 -0.0381  0.0530 -0.1520
32679W        W75617  27.119  10.905   7.558  0.1496 -0.0169 -0.1635
32680W        W75618  28.933   9.840   4.277 -0.1039  0.1614 -0.1803
32681W        W75619  29.284   8.595   5.707 -0.4888  0.0664 -0.1646
32682W        W75620  28.206   9.465   4.481  0.0846  0.0305  0.2441
32683W        W75621  27.557   8.420   6.486  0.5404  0.1964 -0.1335
32684W        W75622  26.223  11.960   6.656  0.1858  0.1959  0.0739
32685W        W75623  29.180  10.030   6.132 -0.6181  0.0487 -0.2186
32686W        W75624  25.355   7.221   6.024  0.2255  0.0206  0.0068
32687W        W75625  27.248   8.443   4.772  0.2063 -0.0626  0.0322
32688W        W75626  28.837  10.738   5.533  0.1644 -0.1619 -0.3662
32689W        W75627  25.846   9.324   7.023 -0.0856 -0.1017  0.0568
32690W        W75628  27.705   7.334   4.324  0.1064  0.2540  0.0674
32691W        W75629  29.004   8.333   6.233  0.0158 -0.1993  0.2038
32692W        W75630  27.858   9.716   5.917  0.0219  0.2927 -0.1710
32693W        W75631  28.764   9.753   6.011  0.2980  0.1353 -0.0716
32694W        W75632  28.464   8.761   4.682 -0.2832  0.2038 -0.0608
32695W        W75633  29.368   9.908   3.105  0.0933 -0.2094 -0.2971
32696W        W75634  27.563  11.406   6.368 -0.1035  0.0289 -0.1426
32697W        W75635  27.484  11.550   8.464 -0.0806  0.3213 -0.0766
32698W        W75636  27.217  11.286   7.233  0.2128 -0.0035  0.0145
32699W        W75637  30.027   9.446   6.142 -0.2699  0.0148 -0.1205
32700W        W75638  27.033   8.958   6.746 -0.2539  0.3018 -0.2236
32701W        W75639  26.320   9.115   4.021 -0.1935  0.1287 -0.1999
32702W        W75640  26.840   9.048   4.842  0.2102 -0.0480 -0.0354
32703W        W75641  27.867   8.742   5.609 -0.0131  0.2530 -0.1867
32704W        W75642  26.355   8.495   5.412  0.0132  0.2712  0.1704
32705W        W75643  28.431   8.201   5.331  0.1362 -0.4546  0.4762
32706W        W75644  26.811  10.627   7.847 -0.0014 -0.2120 -0.0394
32707W        W75645  27.433   9.525   5.799  0.0412  0.0068 -0.0350
32708W        W75646  24.751  10.400  10.179  0.0860  0.4384 -0.0269
32709W        W75647  26.535   9.081   8.654  0.0899  0.0623  0.0005
32710W        W75648  27.071   9.379   9.433 -0.0234  0.1547 -0.1569
32711W        W75649  27.854   9.083   8.880 -0.0795 -0.0611 -0.1293
32712W        W75650  25.681   8.319   8.952  0.0586  0.1309  0.0559
32713W        W75651  28.449  11.330   8.017  0.3447 -0.1690  0.4786
32714W        W75652  28.222  10.036   8.845 -0.1028 -0.1449 -0.1715
32715W        W75653  29.525  11.082   9.264 -0.3045 -0.0146  0.0878
32716W        W75654  28.028  10.476   8.013  0.0148 -0.0648 -0.1080
32717W        W75655  25.916   9.076  10.169  0.0701  0.3443  0.1585
32718W        W75656  27.171   9.044   7.254 -0.3172 -0.0662 -0.1801
32719W        W75657  25.514   8.229  10.034 -0.1276 -0.0084  0.2228
32720W        W75658  29.853   8.633   9.582 -0.2711 -0.2657 -0.0663
32721W        W75659  25.223   8.985   8.959  0.4394 -0.1088  0.0558
32722W        W75660  27.361   9.224   9.799  0.0710 -0.0824  0.1032
32723W        W75661  26.825   8.619   8.509  0.0181 -0.2025  0.2195
32724W        W75662  26.141  10.848   8.540 -0.2005 -0.3427 -0.0563
32725W        W75663  26.478   8.946  10.274  0.0322  0.1605 -0.2287
32726W        W75664  28.700   9.241   9.200  0.0725 -0.0249  0.2440
32727W        W75665  25.879   9.044   8.048 -0.1365 -0.3236  0.1239
32728W        W75666  24.291   7.834   8.414 -0.1084  0.3118 -0.0052
32729W        W75667  26.118   8.769   9.336 -0.3795  0.0450 -0.0574
32730W        W75668  29.561   8.446   9.224  0.2299 -0.5012 -0.1939
32731W        W75669  30.156   9.983  10.283 -0.2150 -0.2301 -0.1412
32732W        W75670  25.797  10.903   9.060  0.0827  0.0809  0.2696
32733W        W75671  28.983  13.137   9.231 -0.0925 -0.0086  0.2487
32734W        W75672  26.114   9.984   9.898 -0.1447  0.0894 -0.0282
32735W        W75673  26.099  12.082   9.456 -0.0860  0.0290 -0.1130
32736W        W75674  26.244  10.042   9.290  0.0859  0.0203 -0.5063
32737W        W75675  28.891  10.314   9.800 -0.1209 -0.0096  0.0958
32738W        W75676  26.831   9.444   6.508  0.0813  0.1732  0.0622
32739W        W75677  27.211   9.321  10.788  0.1697 -0.1420  0.1404
32740W        W75678  26.423  10.343  10.174 -0.2457  0.1110  0.0690
32741W        W75679  26.753  10.578   7.122 -0.0578 -0.2498 -0.0102
32742W        W75680  26.363  10.484   9.617  0.0339  0.1658 -0.1083
32743W        W75681  24.708  11.107   9.272  0.1749 -0.1230 -0.1425
32744W        W75682  26.373  10.373   8.533 -0.2287  0.2539  0.0697
32745W        W75683  29.172  10.007   7.151 -0.3729 -0.0530  0.3601
32746W        W75684  26.607   8.652   7.840 -0.0416  0.1927 -0.1580
32747W        W75685  27.849   8.765   8.367 -0.1385 -0.1312  0.1566
32748W        W75686  27.621   6.972   9.204  0.0780 -0.0090 -0.2607
32749W        W75687  26.683  11.015   7.390 -0.0357 -0.0840 -0.0770
32750W        W75688  26.524   7.958   9.235  0.0619 -0.0542  0.3144
32751W        W75689  27.867  11.139   8.829  0.0969 -0.0137 -0.3876
32752W        W75690  26.541   8.808   9.087  0.0596  0.2748  0.1044
32753W        W75691  25.054   9.738   9.526  0.0937  0.1427 -0.3059
32754W        W75692  25.391   8.594   8.686  0.1018  0.2741 -0.0671
32755W        W75693  28.184  11.564   7.482  0.1347  0.0843 -0.1376
32756W        W75694  27.982  12.330   9.040 -0.2198  0.1001 -0.3050
32757W        W75695  29.018  10.245   9.284  0.1284  0.2819  0.2507
32758W        W75696  24.741   8.609   9.199 -0.0804 -0.1556  0.1889
32759W        W75697  27.429   7.705   5.504 -0.0285  0.0419  0.1863
32760W        W75698  29.709   9.395   9.482  0.0265  0.1093 -0.1714
32761W        W75699  25.631  10.545   9.807  0.0905  0.1557 -0.0485
32762W        W75700  28.781   7.789  10.112  0.0214 -0.0381 -0.2149
32763W        W75701  28.617  10.030   8.243 -0.0718  0.0132 -0.2127
32764W        W75702  27.860   7.706  10.455 -0.2335  0.1938 -0.0145
32765W        W75703  26.988   7.383  10.506  0.0742  0.1160 -0.0088
32766W        W75704  27.505   9.412   8.434 -0.0264 -0.1052  0.1315
32767W        W75705  27.357   9.238   8.961 -0.1011 -0.3508  0.3153
32768W        W75706  28.349   9.834  10.483  0.3602  0.1685  0.0176
32769W        W75707  28.924   9.543   8.774 -0.5826 -0.1492  0.0627
32770W        W75708  25.120  11.044   9.619 -0.0450  0.1291  0.1170
32771W        W75709  26.765  11.487   7.283  0.1722 -0.1557 -0.0068
32772W        W75710  26.257   9.336  10.508  0.1814  0.0496 -0.2045
32773W        W75711  26.641  10.424   9.209  0.3135  0.0385 -0.3335
32774W        W75712  26.618   8.317  10.446  0.0937  0.0830  0.0211
32775W        W75713  25.359  10.176   9.431  0.2243  0.1687 -0.0148
32776W        W75714  28.431   8.116   9.847  0.2155 -0.2094 -0.0841
32777W        W75715  28.586   7.455   9.747  0.0577 -0.1902  0.1530
32778W        W75716  24.253   9.323   9.318  0.1327 -0.3604 -0.0022
32779W        W75717  27.847  11.859   8.466 -0.1829  0.0884  0.3691
32780W        W75718  27.999   9.190   7.081 -0.3269  0.1417 -0.1499
32781W        W75719  27.148  10.871   8.181 -0.1443 -0.0280  0.0962
32782W        W75720  24.917  10.522  12.025  0.2763  0.1571  0.1534
32783W        W75721  26.877   8.467   9.210  0.1982  0.3289  0.0689
32784W        W75722  26.636   7.559   9.910  0.1950 -0.0511  0.2764
32785W        W75723  26.753   7.490   7.790  0.1890 -0.0027  0.0840
32786W        W75724  28.202   8.978   9.242  0.3637  0.2881  0.1297
32787W        W75725  27.016   9.336   8.540 -0.0650  0.0226 -0.0491
32788W        W75726  25.108  10.821   7.798 -0.0384  0.0220 -0.1950
32789W        W75727  26.767  12.441   8.979  0.0449  0.0514 -0.0804
32790W        W75728  30.729  12.975  10.541 -0.1544  0.1291 -0.0862
32791W        W75729  27.876  11.332   9.348  0.0509  0.0561 -0.0922
32792W        W75730  25.904   7.159  10.232  0.2306  0.1097  0.3014
32793W        W75731  25.202   8.456   9.136  0.1313 -0.0845  0.1443
32794W        W75732  26.141  10.670   9.990  0.0635 -0.1783 -0.1344
32795W        W75733  27.170  12.674   9.832  0.3665 -0.0312  0.0091
32796W        W75734  26.763   9.033   8.185 -0.2592  0.1949 -0.2807
32797W        W75735  29.321  10.609   9.604  0.1178  0.2426  0.3301
32798W        W75736  28.579  10.103   9.423  0.0816 -0.1377 -0.2311
32799W        W75737  29.556   8.538   9.994  0.3270  0.0354  0.2160
32800W        W75738  28.434   9.655   9.077 -0.0922  0.2032 -0.0594
32801W        W75739  26.164   7.865   7.997  0.4239  0.1608 -0.0711
32802W        W75740  27.854  10.034   9.307 -0.0070 -0.0998  0.0370
32803W        W75741  26.768  11.139   8.582  0.0610 -0.0731  0.1578
32804W        W75742  24.693  11.374   8.781  0.1502 -0.2389 -0.0969
32805W        W75743  26.760  11.328   9.634  0.1778  0.1535  0.1442
32806W        W75744  28.430   7.866  10.544  0.2803 -0.1102 -0.0862
32807W        W75745  25.455   8.078   8.611  0.0090  0.0199 -0.1706
32808W        W75746  27.253   7.913   8.625 -0.2697  0.0345  0.0372
32809W        W75747  28.855   7.505   7.493 -0.2775 -0.1442  0.0000
32810W        W75748  29.553   9.589  10.763  0.0805 -0.0088  0.3451
32811W        W75749  27.642  10.293   7.702 -0.0156 -0.2920  0.3889
32812W        W75750  28.378   8.672   8.302  0.0941 -0.0091 -0.2099
32813W        W75751  26.035  11.661   9.071 -0.0519  0.1278  0.1778
32814W        W75752  28.123   9.268   9.668  0.2462 -0.0210  0.2146
32815W        W75753  27.447   8.566   7.482  0.0296  0.0297  0.1993
32816W        W75754  30.217  11.184   8.008  0.0477 -0.1088 -0.6030
32817W        W75755  27.101   8.587  10.458 -0.2921  0.1345 -0.2206
32818W        W75756  27.303  10.183   8.529 -0.2132 -0.0571 -0.2237
32819W        W75757  26.287   0.911   9.476  0.3489 -0.2392  0.1620
32820W        W75758  27.197   8.546   7.023 -0.1486 -0.0381  0.4420
32821W        W75759  26.706   7.764  10.339 -0.3719 -0.0178  0.0047
32822W        W75760  25.668  11.461   8.261 -0.1514  0.0114  0.3762
32823W        W75761  27.952   7.937   9.678  0.0162 -0.1116 -0.0169
32824W        W75762  26.970   8.909   8.975  0.0945 -0.1480 -0.0534
32825W        W75763  28.181  10.637   8.637  0.1685 -0.0001 -0.2601
32826W        W75764  26.737   9.314   9.854 -0.0036 -0.0077 -0.0426
32827W        W75765  26.774  10.087   8.266  0.2445 -0.1045  0.0906
32828W        W75766  26.536   6.295  10.352 -0.1835  0.1765 -0.0528
32829W        W75767  23.032   8.704   9.282  0.2835 -0.0211 -0.0126
32830W        W75768  27.099  10.643   9.016  0.1648  0.1067  0.1733
32831W        W75769  27.346   7.964   7.383 -0.0217  0.1970  0.0804
32832W        W75770  26.389  11.605   9.689 -0.0849  0.0281 -0.0866
32833W        W75771  26.095   9.846   8.856  0.1410 -0.3408 -0.0897
32834W        W75772  27.750   7.557   9.959 -0.0824  0.0011 -0.1765
32835W        W75773  26.300  11.126   8.963 -0.1402  0.2127 -0.1441
32836W        W75774  27.666  10.458   6.161  0.0720  0.0376  0.0164
32837W        W75775  26.028  11.340   9.448 -0.3493  0.1931 -0.0007
32838W        W75776  25.731  10.368   9.063  0.0289 -0.0125 -0.1351
32839W        W75777  28.586   6.969   9.762 -0.1792  0.2089  0.2188
32840W        W75778  24.287  10.845  10.012  0.0579  0.1283 -0.2279
32841W        W75779  26.339   8.288   8.034 -0.0145  0.2785 -0.0627
32842W        W75780  25.417   8.809   8.167 -0.0400 -0.2909  0.2012
32843W        W75781  28.720   8.674   8.716 -0.2876  0.0574  0.2036
32844W        W75782  27.805  10.858   8.250  0.0791  0.2220  0.2569
32845W        W75783  25.582   9.842   8.980 -0.1324 -0.0856  0.4000
32846W        W75784  27.024   7.888   9.980 -0.1223  0.0529  0.3344
32847W        W75785  25.060  10.093   9.038  0.2112 -0.3198 -0.3152
32848W        W75786  27.183  10.004   7.722 -0.3340 -0.0199  0.1522
32849W        W75787  26.288   8.911   7.443 -0.0499  0.1273  0.0941
32850W        W75788  28.490   7.938   9.435 -0.0253  0.1640 -0.0556
32851W        W75789  27.316   9.047   8.141  0.2303 -0.1966  0.0438
32852W        W75790  22.080  10.401   9.717 -0.0786  0.1605 -0.0309
32853W        W75791  28.529   8.658   9.226 -0.0373 -0.0157  0.1879
32854W        W75792  26.250   8.451   7.081 -0.1271  0.0295 -0.0951
32855W        W75793  25.799   9.647   8.535  0.0096  0.1290 -0.0727
32856W        W75794  28.626   8.618   9.977  0.1663  0.1699  0.3150
32857W        W75795  26.033   9.580   9.299 -0.1076  0.1285  0.2622
32858W        W75796  26.557   8.270   8.836  0.3849  0.3141 -0.0069
32859W        W75797  26.520   9.612   9.086 -0.0578 -0.2452  0.3197
32860W        W75798  29.668   9.930  10.331  0.0458 -0.2752  0.3773
32861W        W75799  26.310   9.817  10.802  0.0322  0.0805  0.0562
32862W        W75800  28.118   7.309   9.773 -0.0168  0.0589  0.6105
32863W        W75801  27.411  11.158   9.300 -0.1843  0.0130 -0.0645
32864W        W75802  26.074   9.315   8.844 -0.0472 -0.1465 -0.1080
32865W        W75803  20.176  11.543   9.144 -0.2187 -0.0572  0.0500
32866W        W75804  26.396   9.632   7.956 -0.1151  0.1420  0.2668
32867W        W75805  27.822   9.407  10.155  0.0560 -0.0983 -0.3575
32868W        W75806  25.030  10.622   9.163 -0.0880  0.2339  0.1842
32869W        W75807  25.878   8.868   8.881 -0.0258 -0.1111  0.2634
32870W        W75808  24.057   9.523   9.742  0.3680 -0.3443 -0.1938
32871W        W75809  28.750   8.334   8.169  0.1309  0.1343  0.1809
32872W        W75810  28.309  10.910   8.205 -0.1705 -0.2675 -0.2414
32873W        W75811  26.453   8.255   7.534  0.0257  0.1468 -0.1736
32874W        W75812  29.044  10.404   8.814 -0.1464  0.2370 -0.2741
32875W        W75813  27.276   7.352   9.447  0.1331  0.0669  0.0819
32876W        W75814  28.419  11.696   9.811 -0.1479  0.0437 -0.3800
32877W        W75815  27.549   8.055   9.025  0.0906  0.0608 -0.3534
32878W        W75816  26.930   8.149   8.330  0.0532  0.3972 -0.0630
32879W        W75817  27.296   9.598  10.159  0.3262 -0.2211  0.2843
32880W        W75818  28.671  10.633   9.446 -0.1665 -0.1780  0.1876
32881W        W75819  26.890   9.516   8.009 -0.1205 -0.2431 -0.1087
32882W        W75820  29.011   8.881   9.409  0.1595  0.0353  0.0792
32883W        W75821  26.313   8.925   9.768  0.0028 -0.2703  0.1124
32884W        W75822  27.296  10.120   9.671 -0.2410 -0.0028 -0.0066
32885W        W75823  27.797  10.249   8.736 -0.1235  0.1958 -0.2795
32886W        W75824  25.475  10.643   9.350  0.0612 -0.1407 -0.1867
32887W        W75825  30.401   8.906   9.990  0.0244 -0.0048 -0.2871
32888W        W75826  27.410   8.510   9.189  0.0123  0.1540  0.0451
32889W        W75827  28.263  10.913   9.958  0.1266 -0.0678  0.0809
32890W        W75828  28.764   9.905   7.771  0.2613 -0.2454  0.1593
32891W        W75829  30.169   6.575   9.901  0.2813 -0.0521 -0.0163
32892W        W75830  29.928   9.853   8.623  0.1079 -0.0182  0.1586
32893W        W75831  28.711  10.041   8.916 -0.0114 -0.0692 -0.0419
32894W        W75832  25.553   8.280   8.139  0.1382  0.1149  0.0879
32895W        W75833  27.604   8.513   7.961  0.1492  0.0377  0.1119
32896W        W75834  27.297  11.113   8.705  0.1381  0.0486 -0.1638
32897W        W75835  27.410   9.784   9.280 -0.0957  0.1234 -0.1974
32898W        W75836  27.785   9.644   9.736 -0.0781  0.1491 -0.2234
32899W        W75837  25.766   9.570   9.988 -0.3181  0.4066  0.1071
32900W        W75838  25.863   8.136   7.756  0.0169  0.0481  0.3386
32901W        W75839  27.842   9.750   8.320  0.0539 -0.0753  0.0817
32902W        W75840  27.049   9.667   8.913 -0.0630 -0.0553 -0.0877
32903W        W75841  27.025   8.630   8.073  0.1378  0.1199  0.0643
32904W        W75842  24.159  10.245   8.543 -0.0217  0.0787 -0.1233
32905W        W75843  27.641   7.586   8.525  0.1061  0.1912  0.1222
32906W        W75844  26.691  11.585  10.309 -0.0464  0.1761  0.2649
32907W        W75845  26.347  12.089   9.963 -0.5779  0.1530 -0.2699
32908W        W75846  27.967   7.813   9.164 -0.0583  0.3047  0.0160
32909W        W75847  29.481   9.008   9.719  0.2707 -0.1688 -0.2203
32910W        W75848  26.128   8.297   9.102 -0.1397  0.0752  0.1140
32911W        W75849  25.131   9.453   9.137  0.1270  0.0339 -0.0425
32912W        W75850  28.946   9.724   9.245 -0.2427 -0.1820 -0.0784
32913W        W75851  24.889  10.415   8.658 -0.1955  0.1128 -0.0513
32914W        W75852  26.997   9.732   9.763  0.0819 -0.0211  0.1236
32915W        W75853  25.881   8.356   9.565  0.1195 -0.2005  0.0307
32916W        W75854  27.677  10.198   8.185 -0.0351 -0.0766  0.0559
32917W        W75855  22.478   9.439   9.489  0.2839  0.0716 -0.0191
32918W        W75856  26.094  10.532   8.106  0.3620 -0.0095  0.1954
32919W        W75857  27.453  10.584   9.487 -0.0723  0.2686 -0.1146
32920W        W75858  27.552  10.779   9.065 -0.1319 -0.2411  0.0541
32921W        W75859  28.188  10.398  10.062  0.1254 -0.0726 -0.1548
32922W        W75860  27.341   8.892   8.624 -0.0696 -0.1558 -0.2827
32923W        W75861  25.288  11.577   9.614  0.1259 -0.1295 -0.0353
32924W        W75862  26.169  11.347   8.240  0.0248  0.0507  0.0366
32925W        W75863  28.010  11.343   8.346 -0.0683 -0.5242  0.3109
32926W        W75864  26.413  11.179  10.225 -0.1099 -0.0535  0.1002
32927W        W75865  27.750   7.367   7.594  0.0061  0.0623 -0.0002
32928W        W75866  27.321  10.250   9.123 -0.1067 -0.0806 -0.0121
32929W        W75867  29.775   9.651   9.073  0.1375 -0.0011 -0.1365
32930W        W75868  25.314   9.578   8.647 -0.2490  0.1127 -0.3414
32931W        W75869  28.015   9.697   7.178  0.1413  0.1332  0.1261
32932W        W75870  28.562  11.392   8.545  0.1709  0.0436 -0.0432
32933W        W75871  26.259   7.744   8.825 -0.4377  0.0974 -0.0865
32934W        W75872  27.220   9.814   8.215 -0.3142 -0.2265 -0.3540
32935W        W75873  29.097   7.540  10.508 -0.0529  0.2037  0.0262
32936W        W75874  27.115  10.457   7.416  0.3272 -0.0415 -0.0593
32937W        W75875  27.724   8.893   9.813 -0.4869 -0.3494 -0.0573
32938W        W75876  26.864   9.960   9.338 -0.2143 -0.1478  0.0398
32939W        W75877  25.050   9.401  10.473 -0.0667  0.1760 -0.0780
32940W        W75878  27.569  10.017  10.073 -0.1346  0.3901  0.1068
32941W        W75879  26.175   7.478   8.429  0.2406 -0.3413  0.1260
32942W        W75880  29.932   8.665   8.321  0.0786  0.2718  0.0938
32943W        W75881  26.105  12.189  10.380 -0.1535  0.2129  0.2492
32944W        W75882  26.323   8.792   8.268  0.2339 -0.0724  0.0242
32945W        W75883  28.739   7.815   8.388  0.0143 -0.2048  0.1508
32946W        W75884  25.095  10.464   9.778  0.0683  0.1500 -0.1283
32947W        W75885  25.460   9.202  10.234  0.0930 -0.0050  0.2684
32948W        W75886  27.691   9.349   9.362 -0.4512 -0.0062 -0.0403
32949W        W75887  28.474   8.803   7.016  0.4214  0.0735 -0.0828
32950W        W75888  25.602   7.758   8.971 -0.1427  0.1802  0.1197
32951W        W75889  28.292   9.502   8.039 -0.1681  0.1419 -0.2748
32952W        W75890  25.585   9.296   9.052  0.2101 -0.1644  0.3303
32953W        W75891  27.737   8.824   9.301  0.3324 -0.1966  0.2708
32954W        W75892  26.465   7.001   9.215 -0.1192 -0.0190  0.2576
32955W        W75893  29.044  10.029   8.478 -0.0255  0.1180  0.0793
32956W        W75894  29.292   9.384   9.101  0.0588 -0.2027 -0.2206
32957W        W75895  27.461  10.663   8.552  0.0616 -0.1788  0.1182
32958W        W75896  28.517   8.945   9.641  0.1075  0.1994  0.0039
32959W        W75897  26.011  10.813   9.469 -0.0273  0.2584  0.1522
32960W        W75898  25.533   8.015   9.418 -0.2575  0.0091 -0.1343
32961W        W75899  26.554  10.933   9.383 -0.0237 -0.0275 -0.0828
32962W        W75900  27.892  10.871   9.527  0.1433 -0.1260 -0.0967
32963W        W75901  27.896   8.252   8.266 -0.1252  0.0383  0.1182
32964W        W75902  25.353   8.496   9.675 -0.1775  0.0795 -0.2843
32965W        W75903  24.345  11.075   8.940  0.0433  0.0799  0.0287
32966W        W75904  29.990   9.148   8.506  0.1537 -0.1839  0.0743
32967W        W75905  27.591  11.259   8.057 -0.0789 -0.0804 -0.1057
32968W        W75906  26.758  10.148   8.807  0.3752 -0.0122 -0.0527
32969W        W75907  25.859   8.641   8.422  0.0562  0.0597  0.1737
32970W        W75908  25.447  10.093   8.567  0.2276 -0.3028  0.0122
32971W        W75909  27.227  10.826   7.068 -0.0319  0.0701  0.2088
32972W        W75910  29.134  10.698   9.177  0.0320 -0.0642  0.0496
32973W        W75911  27.387   8.340   8.327  0.2331  0.0634  0.1747
32974W        W75912  29.048  12.080  10.328  0.1291 -0.0461 -0.0219
32975W        W75913  26.759   8.894   9.579 -0.2490  0.0791  0.0273
32976W        W75914  29.773   7.907   9.267 -0.0761  0.3255 -0.3965
32977W        W75915  28.354   8.003   8.114  0.0307 -0.0400 -0.2451
32978W        W75916  25.258   9.673  10.030 -0.1635 -0.0230 -0.1498
32979W        W75917  26.192   9.913   8.321  0.2959  0.3435  0.1228
32980W        W75918  26.169   9.359   8.382  0.0523 -0.2025 -0.0542
32981W        W75919  25.794  10.096   8.086 -0.0768  0.0698  0.1553
32982W        W75920  24.520  10.099   8.888 -0.1712 -0.1251 -0.1938
32983W        W75921  25.905   8.040   8.625 -0.2070 -0.0338  0.3389
32984W        W75922  28.454  10.437   9.060 -0.0024 -0.0982  0.1253
32985W        W75923  25.791   5.864   9.652  0.2350 -0.0152  0.0472
32986W        W75924  24.300   8.146   8.059 -0.0552 -0.0317  0.0406
32987W        W75925  27.246  10.938   9.755 -0.2367 -0.2301  0.1410
32988W        W75926  27.975   9.568   8.840  0.2181 -0.2770  0.2368
32989W        W75927  28.190   8.533   7.823  0.4618  0.0868 -0.3943
32990W        W75928  25.951   8.650   7.739 -0.1096  0.2772 -0.0361
32991W        W75929  25.901   6.131   8.449 -0.1791 -0.0763 -0.0310
32992W        W75930  26.476   8.460   9.509  0.2674  0.5289  0.1508
32993W        W75931  27.281   9.463   7.719  0.0573 -0.2172 -0.3907
32994W        W75932  27.794  12.264   8.171  0.1031  0.2325  0.2193
32995W        W75933  26.817   4.872  10.179 -0.0351  0.1202 -0.0004
32996W        W75934  29.457   9.361   8.601  0.1214  0.0269  0.0629
32997W        W75935  30.364   9.600   9.957  0.1054 -0.1355 -0.0162
32998W        W75936  30.154   8.206   9.473 -0.0450  0.0478  0.2534
32999W        W75937  28.262   9.752   9.525  0.3406 -0.3066 -0.0117
33000W        W75938  28.630  11.231   9.804 -0.0272  0.0973 -0.0850
33001W        W75939  26.425   7.467   9.458 -0.4156  0.0711 -0.0352
33002W        W75940  28.544   8.210   9.021 -0.0987 -0.2027  0.0711
33003W        W75941  26.939  10.559   8.471  0.0232 -0.1698  0.2324
33004W        W75942  25.163   8.862   9.412 -0.2729 -0.1503 -0.1407
33005W        W75943  28.352   9.148   8.835 -0.1784 -0.0173  0.0373
33006W        W75944  26.981  10.507   9.617 -0.0763  0.2108 -0.1555
33007W        W75945  26.357   9.173   9.344 -0.1570  0.1746  0.0164
33008W        W75946  28.015   9.210   8.439  0.0403 -0.1342  0.2402
33009W        W75947  28.367   9.163  10.130 -0.0296 -0.2102 -0.2309
33010W        W75948  26.965  11.745   9.852  0.3359 -0.0139 -0.0659
33011W        W75949  28.703   9.495   9.627  0.0261  0.2074  0.3809
33012W        W75950  25.776   8.754   9.825 -0.4100  0.2469  0.2612
33013W        W75951  26.645   9.682   8.606 -0.1442 -0.3717 -0.0652
33014W        W75952  27.518   9.822   8.778  0.3086  0.0611  0.0494
33015W        W75953  26.259   9.479  10.016 -0.1167 -0.0695 -0.2447
33016W        W75954  25.553   9.622   9.494  0.2890  0.3028  0.1104
33017W        W75955  27.965   7.929   8.680  0.1446 -0.1399 -0.2425
33018W        W75956  25.256  10.698  10.271 -0.1015 -0.1219  0.0098
33019W        W75957  26.904  11.165   9.089  0.3703  0.1897 -0.2685
33020W        W75958  25.432  14.640   3.145  0.2261 -0.0246  0.0245
33021W        W75959  24.644  10.289   0.824  0.1005  0.4175  0.2367
33022W        W75960  28.839  12.069  31.943 -0.2757 -0.2800 -0.0355
33023W        W75961  30.479  13.532   1.014  0.3394 -0.0569 -0.2659
33024W        W75962  25.390  12.953  31.691 -0.1273 -0.1688 -0.0604
33025W        W75963  27.357  13.609  31.702  0.2079 -0.1129  0.3031
33026W        W75964  26.940  10.174   3.284 -0.0602 -0.1583 -0.3157
33027W        W75965  27.142  12.204   0.359 -0.1096 -0.2928  0.0332
33028W        W75966  28.562  14.527   1.529 -0.1407 -0.1593  0.1200
33029W        W75967  28.878  12.954  31.447 -0.2922 -0.1202 -0.0427
33030W        W75968  27.222  13.662   2.435 -0.0665 -0.2261  0.1427
33031W        W75969  27.056  15.973   3.642 -0.0782  0.2123 -0.0105
33032W        W75970  27.596  11.949   0.557  0.1786  0.1045  0.1332
33033W        W75971  27.068  11.643   1.358 -0.1241 -0.0143 -0.0934
33034W        W75972  28.470  14.070   3.731  0.0975  0.0259  0.0365
33035W        W75973  25.774  12.532   2.717  0.1153 -0.1623 -0.3831
33036W        W75974  27.819  12.212   1.028 -0.2662  0.0085 -0.3805
33037W        W75975  26.761  11.798   1.712 -0.0768  0.0510 -0.0905
33038W        W75976  27.423  14.092  31.805 -0.0136 -0.1139  0.1918
33039W        W75977  26.279  11.479   4.097  0.1273  0.0686 -0.0236
33040W        W75978  27.398  11.159   3.216 -0.0384 -0.0397 -0.3031
33041W        W75979  27.499  14.081   0.456  0.0992 -0.0023 -0.0590
33042W        W75980  24.791  12.406  31.264  0.2138 -0.2923 -0.4418
33043W        W75981  25.595  13.314   3.583 -0.1334  0.1150  0.1303
33044W        W75982  26.613  13.020   2.700  0.2069  0.3492 -0.2398
33045W        W75983  28.014  12.687   0.980 -0.0314  0.4171 -0.2270
33046W        W75984  27.432  12.547   0.709  0.0320 -0.0549  0.3254
33047W        W75985  26.080  15.161   2.995  0.1552  0.0406 -0.0269
33048W        W75986  28.280  14.839   3.326  0.1403 -0.0236 -0.1316
33049W        W75987  27.350  12.703   3.569  0.1778 -0.0662 -0.1938
33050W        W75988  26.013  11.994   0.715 -0.1367 -0.1598 -0.1633
33051W        W75989  25.635  13.662   1.842 -0.0830  0.0180 -0.1095
33052W        W75990  27.454  13.166   1.429  0.1169 -0.4169  0.1204
33053W        W75991  29.722  14.062  31.902  0.0295  0.0334  0.1332
33054W        W75992  30.224  15.224   2.638  0.1338  0.0506  0.1304
33055W        W75993  27.599  15.770   2.932 -0.1671  0.3110  0.0208
33056W        W75994  26.486  12.000   0.497  0.1138 -0.1815  0.2684
33057W        W75995  27.828  14.501   3.342  0.3862  0.1110 -0.0607
33058W        W75996  25.715  14.192   2.176 -0.4683 -0.2727 -0.1432
33059W        W75997  28.103  13.392   3.797  0.2722 -0.1275  0.3554
33060W        W75998  26.421  13.720  31.813 -0.1690  0.2891 -0.0598
33061W        W75999  26.602  13.776   0.295  0.0360 -0.1180  0.0312
33062W        W76000  27.618  13.153   0.476 -0.0240  0.2760 -0.1184
33063W        W76001  27.065  14.655   2.474 -0.1688  0.0061  0.2950
33064W        W76002  25.063  13.072   1.575 -0.1579  0.0795 -0.0212
33065W        W76003  28.177  12.246   3.797 -0.0049  0.1273  0.2397
33066W        W76004  26.963  14.292   0.309 -0.3285 -0.0415  0.1455
33067W        W76005  29.275  13.709  31.023 -0.3242 -0.1275 -0.1637
33068W        W76006  28.593  10.553  30.761  0.2534  0.1681 -0.2720
33069W        W76007  29.448  11.131   1.369 -0.1206  0.2255 -0.1494
33070W        W76008  26.947  12.150   1.252  0.1593  0.0618  0.0052
33071W        W76009  25.143  14.385   2.269  0.1047  0.1698 -0.1292
33072W        W76010  26.480  11.414   3.015  0.0811  0.3217  0.4570
33073W        W76011  29.268  13.415   3.238 -0.0493  0.1766 -0.0196
33074W        W76012  26.880  11.789   0.301 -0.3870 -0.0356  0.2990
33075W        W76013  26.658  15.060   3.506  0.0717 -0.4250 -0.4396
33076W        W76014  25.653  15.237   1.619  0.1932 -0.2188 -0.1046
33077W        W76015  26.075  11.304   0.771  0.1617  0.0408 -0.0889
33078W        W76016  28.268  15.294  30.434 -0.1278 -0.1187  0.0124
33079W        W76017  30.316  15.214   0.813 -0.0617 -0.0277 -0.4307
33080W        W76018  28.417  14.663   0.618  0.1005 -0.0902  0.0897
33081W        W76019  26.055  11.695   1.175  0.1063 -0.2465 -0.3600
33082W        W76020  27.609  13.378   2.824 -0.0867  0.1222  0.0852
33083W        W76021  25.341  13.763   2.383  0.0804  0.0458  0.3073
33084W        W76022  26.559  10.251   0.921 -0.4046  0.3896  0.0930
33085W        W76023  28.111  12.062   5.255 -0.0511  0.0201 -0.0714
33086W        W76024  26.001  13.874   3.250 -0.0048  0.2704 -0.0184
33087W        W76025  29.267  12.283   1.561 -0.1191 -0.1328 -0.1862
33088W        W76026  27.246  12.122   0.858 -0.1777 -0.3487  0.0150
33089W        W76027  29.238  13.705   2.071  0.1326  0.0473 -0.0160
33090W        W76028  28.174  13.166   0.430  0.3349 -0.2096  0.2208
33091W        W76029  29.392  11.678   0.611  0.1102  0.1215 -0.0150
33092W        W76030  27.964  11.262   2.539  0.4000 -0.0644 -0.3308
33093W        W76031  26.442  11.675  30.497 -0.2632 -0.0693 -0.0744
33094W        W76032  26.484  12.535   0.787 -0.0037  0.1553 -0.1663
33095W        W76033  29.507  13.888   2.463 -0.2003  0.0792  0.1054
33096W        W76034  26.864  13.607  31.671 -0.0610  0.2029  0.2172
33097W        W76035  26.149  14.497   2.086 -0.1981 -0.0070  0.0370
33098W        W76036  28.413  13.199   2.306  0.1444 -0.1608 -0.0570
33099W        W76037  25.587  14.990   2.738 -0.1720 -0.1631  0.0709
33100W        W76038  24.149  15.365   0.478  0.3310  0.1440 -0.3394
33101W        W76039  25.775  14.301   1.392  0.1194 -0.0037 -0.0267
33102W        W76040  26.152  12.870   0.085 -0.1648  0.0751  0.2016
33103W        W76041  25.968  12.804   1.713 -0.0406 -0.0838  0.2748
33104W        W76042  26.451  13.524   1.847  0.0717  0.1481 -0.0649
33105W        W76043  27.665  12.339   0.231  0.1894 -0.2559 -0.3827
33106W        W76044  26.486  11.889   2.581 -0.1056 -0.0248 -0.1433
33107W        W76045  28.035  11.830   1.201  0.2787  0.0186 -0.0491
33108W        W76046  26.473  12.091   1.002 -0.2037 -0.3018  0.0845
33109W        W76047  28.362  15.194   0.842  0.0062  0.2561  0.1546
33110W        W76048  29.731  12.569   1.862  0.1698  0.2751 -0.1446
33111W        W76049  30.653  14.897  31.857 -0.0288 -0.0519 -0.2706
33112W        W76050  24.643  10.993   2.402  0.0090  0.4063  0.2351
33113W        W76051  26.196  11.187  31.901 -0.0623 -0.1540 -0.0125
33114W        W76052  26.115  10.948   2.558  0.0070  0.0981 -0.3566
33115W        W76053  25.922  12.906   2.292  0.3332 -0.0047 -0.1917
33116W        W76054  29.217  12.997   4.378  0.1593  0.2759 -0.0401
33117W        W76055  25.756  10.472   0.771 -0.0663  0.0272 -0.1118
33118W        W76056  27.946  12.897   1.435 -0.1679  0.0534 -0.0063
33119W        W76057  27.400  11.808   0.119 -0.0745  0.1078 -0.1828
33120W        W76058  24.938  13.310  31.712  0.1372  0.0865  0.1500
33121W        W76059  29.764  10.631   3.185 -0.1250  0.2504  0.0183
33122W        W76060  28.176  12.883   1.881 -0.2000 -0.1072  0.2974
33123W        W76061  29.110  14.492   3.390  0.3124 -0.1491  0.0649
33124W        W76062  28.680  14.214   0.997 -0.1542  0.1206  0.2013
33125W        W76063  26.900  12.617   0.508 -0.1216  0.0553 -0.0430
33126W        W76064  25.446  10.925   1.061 -0.0791 -0.0988 -0.0477
33127W        W76065  26.108  14.790   2.655  0.1151  0.3449  0.1378
33128W        W76066  27.139  14.145   2.297 -0.2604 -0.1150 -0.0492
33129W        W76067  25.154  11.657   1.192  0.1701  0.2247  0.1386
33130W        W76068  28.880  13.580   0.551 -0.4659  0.0629 -0.4336
33131W        W76069  27.978  13.318  31.491  0.1074 -0.1521 -0.2387
33132W        W76070  24.907  13.960   2.175 -0.0703  0.1229  0.2823
33133W        W76071  29.348  11.360   2.843 -0.0869  0.2047 -0.2772
33134W        W76072  29.259  12.940   0.671  0.0002  0.1344 -0.2293
33135W        W76073  27.307  12.705   1.627 -0.0061  0.1887  0.3335
33136W        W76074  26.901  11.431  30.483  0.0520 -0.1392 -0.0753
33137W        W76075  27.686  13.929   1.431 -0.2954 -0.3642 -0.2059
33138W        W76076  26.231  14.475   0.671  0.0509 -0.0329  0.0830
33139W        W76077  26.502  13.269   1.352 -0.1902  0.3254  0.0266
33140W        W76078  28.065  14.282   1.916 -0.0229 -0.1813 -0.1487
33141W        W76079  28.685  10.859   1.905  0.3068 -0.0811 -0.0012
33142W        W76080  25.782  12.505   3.732  0.0798 -0.1943 -0.2928
33143W        W76081  29.155  12.836   1.546  0.2542  0.1094 -0.0604
33144W        W76082  26.695  11.143  31.755  0.0942  0.0137 -0.1219
33145W        W76083  23.919  14.082   3.323 -0.0686 -0.0302 -0.0057
33146W        W76084  26.768  11.317   1.631  0.0977 -0.2511  0.3956
33147W        W76085  28.065  12.236   0.553 -0.2951 -0.1761 -0.2478
33148W        W76086  28.957  13.271   3.602  0.1584  0.2844 -0.2649
33149W        W76087  29.576  14.301   0.416 -0.0763  0.0521  0.2351
33150W        W76088  28.265  12.393   0.068  0.0027 -0.0175  0.1565
33151W        W76089  26.515  11.039   0.516  0.1071 -0.0319 -0.4773
33152W        W76090  26.367  13.716   2.313  0.0346 -0.2780 -0.0441
33153W        W76091  28.952  12.126   0.881 -0.0432  0.4662  0.0457
33154W        W76092  27.907  13.434   1.621 -0.1267 -0.1562  0.1673
33155W        W76093  28.433  11.514   0.361 -0.0285  0.0904 -0.0958
33156W        W76094  30.033  14.492   0.193 -0.1698  0.3166 -0.0688
33157W        W76095  26.798  12.657   1.417  0.0052 -0.1767  0.1376
33158W        W76096  28.243  13.785   4.131  0.0130  0.1711  0.0871
33159W        W76097  29.601  14.614   3.232  0.1989  0.0009 -0.0341
33160W        W76098  27.005  11.934   2.241 -0.1343  0.1138  0.1566
33161W        W76099  26.790  11.527  31.367 -0.2318 -0.1060 -0.1387
33162W        W76100  27.823  10.865   2.255 -0.3677  0.2743  0.1741
33163W        W76101  24.582  12.398   0.566 -0.0718 -0.1535  0.2858
33164W        W76102  30.223  11.986   3.101  0.1527  0.0646 -0.0021
33165W        W76103  26.423  11.513   0.259 -0.0940 -0.1748 -0.1610
33166W        W76104  26.005  12.055   3.699 -0.0622  0.1303  0.0492
33167W        W76105  28.496  11.544   2.387 -0.1205 -0.1493 -0.0133
33168W        W76106  28.246  14.086   1.459 -0.2476 -0.1104  0.0889
33169W        W76107  27.369  12.781   0.256 -0.0994 -0.0112 -0.1043
33170W        W76108  27.854  11.337   1.199 -0.1778  0.2584 -0.1492
33171W        W76109  27.057  12.762   3.021  0.1627  0.2188 -0.3676
33172W        W76110  25.797  14.404   2.861  0.1250  0.2602  0.1714
33173W        W76111  25.749  13.476   3.133  0.0454 -0.0662 -0.0982
33174W        W76112  28.184  14.186   2.413 -0.3785 -0.0529  0.2784
33175W        W76113  29.477  11.676   2.085 -0.2252 -0.2430  0.1058
33176W        W76114  26.532  12.013   3.609  0.2572 -0.0664 -0.0452
33177W        W76115  26.696  10.770  31.373  0.2339 -0.0089  0.1403
33178W        W76116  27.049  13.256   1.828  0.0691  0.2817 -0.1137
33179W        W76117  26.669  12.136  31.767  0.0908 -0.3002  0.2868
33180W        W76118  26.718  11.254   2.618 -0.0895 -0.3744  0.3415
33181W        W76119  26.661  14.079   2.490  0.3529  0.0823  0.0586
33182W        W76120  27.804  13.971   0.866  0.1392 -0.1979 -0.0386
33183W        W76121  28.682  13.009   1.930 -0.0156  0.4878  0.3663
33184W        W76122  26.627  13.859   1.095 -0.0957  0.2284 -0.1441
33185W        W76123  28.201   9.469   2.682 -0.2503 -0.0063 -0.1875
33186W        W76124  26.433  15.235   2.624  0.2563 -0.0308  0.1831
33187W        W76125  25.964  11.651   0.346 -0.0567  0.2133 -0.0474
33188W        W76126  25.466  13.951  31.830 -0.1010  0.0633 -0.0402
33189W        W76127  28.200  12.404   1.419 -0.1762 -0.0102 -0.2509
33190W        W76128  28.229  14.367   0.992  0.2934 -0.1491  0.2727
33191W        W76129  26.143  12.144   2.824  0.1205 -0.0036 -0.2232
33192W        W76130  27.839  11.068   1.644 -0.2697  0.1310  0.1545
33193W        W76131  24.835  14.167   2.631 -0.2413 -0.1704 -0.1833
33194W        W76132  29.530  12.499   2.955 -0.0032  0.0573  0.0968
33195W        W76133  28.057  10.830  31.853  0.1446 -0.0108  0.1822
33196W        W76134  28.326  13.648   2.386 -0.0033 -0.3556 -0.1020
33197W        W76135  27.489  13.754   4.390 -0.0114  0.0702 -0.1467
33198W        W76136  26.304  11.889  31.971 -0.0521  0.1188  0.3765
33199W        W76137  27.537  12.848   2.632  0.1710 -0.0520 -0.1092
33200W        W76138  26.354  11.444   1.847  0.1649  0.1669  0.2345
33201W        W76139  25.591  13.258   1.614 -0.0913 -0.1643  0.3038
33202W        W76140  27.552  14.038   1.995  0.0598  0.2099  0.0464
33203W        W76141  26.886  11.790   0.858  0.2439 -0.0080  0.3342
33204W        W76142  26.438  14.845   2.261  0.2761  0.0964 -0.1140
33205W        W76143  26.365  11.887   3.158  0.1817  0.1443  0.1214
33206W        W76144  29.113  14.225   2.513 -0.0885  0.0621  0.3382
33207W        W76145  26.939  12.267   1.747  0.0052  0.0290 -0.1749
33208W        W76146  26.767  10.709   0.822  0.2148  0.0604 -0.2717
33209W        W76147  27.984  12.033   1.675 -0.2089  0.2299  0.3883
33210W        W76148  28.011  13.778   1.984  0.2081  0.0327 -0.1879
33211W        W76149  28.969  11.908   1.387 -0.3596  0.2994  0.0367
33212W        W76150  27.097  14.223   3.508 -0.0795 -0.1446  0.1167
33213W        W76151  27.788  10.012   2.683 -0.1910 -0.2221  0.0423
33214W        W76152  29.429  13.026   1.163 -0.0052 -0.0713 -0.0946
33215W        W76153  28.313  12.694   3.635 -0.1693  0.0522  0.0142
33216W        W76154  24.718  13.009   0.105 -0.0067  0.0333  0.2620
33217W        W76155  25.119  13.602   1.887  0.0745 -0.1078 -0.3679
33218W        W76156  28.731  13.051   0.417  0.0354  0.2941 -0.0068
33219W        W76157  27.772  12.482   1.732  0.2426  0.1573  0.2851
33220W        W76158  24.769  14.779   1.432 -0.0139  0.3380 -0.0856
33221W        W76159  26.456  13.036   1.847 -0.0210  0.2107 -0.0626
33222W        W76160  25.989  13.063   1.291 -0.3832 -0.2329 -0.1868
33223W        W76161  28.153   9.875  31.923  0.3319 -0.1771  0.0662
33224W        W76162  27.689  13.258  31.093 -0.1202  0.1013 -0.1236
33225W        W76163  27.321  11.168   1.581  0.2279  0.1795  0.2668
33226W        W76164  29.098  12.274   2.585 -0.2071 -0.2067  0.1201
33227W        W76165  27.147  12.127  31.825 -0.1174  0.0955  0.2083
33228W        W76166  28.042  10.431   2.670 -0.0377 -0.1584  0.1674
33229W        W76167  25.043  11.977   3.338  0.1186  0.1269  0.0692
33230W        W76168  28.497  14.441   2.073  0.2512 -0.1335 -0.2509
33231W        W76169  26.173  12.874   2.750 -0.1676 -0.1426  0.2766
33232W        W76170  28.760  13.941   4.107  0.0077 -0.2116  0.0172
33233W        W76171  26.973  13.733   2.010 -0.0927  0.1201 -0.0542
33234W        W76172  28.442  13.038  31.950 -0.0537  0.0656 -0.2808
33235W        W76173  26.411  11.151   1.091 -0.2246 -0.0912  0.1987
33236W        W76174  27.534  11.974   1.860 -0.1868 -0.1804 -0.1974
33237W        W76175  28.859  13.496   2.359 -0.0537  0.0591  0.3963
33238W        W76176  26.529  11.914  31.273 -0.0779  0.1700 -0.0352
33239W        W76177  28.472  11.955   1.570 -0.0297 -0.0316  0.0206
33240W        W76178  26.199  13.323   2.505  0.0837  0.2886  0.0699
33241W        W76179  29.401  12.440   0.741 -0.4214 -0.4075 -0.0238
33242W        W76180  26.909  11.282   0.270  0.0523 -0.0888  0.0863
33243W        W76181  27.323  13.011   0.944 -0.1435 -0.2546  0.0959
33244W        W76182  27.014  11.684   2.704  0.0730 -0.1759 -0.0725
33245W        W76183  28.366  12.718   0.501 -0.1288 -0.2464 -0.0977
33246W        W76184  27.540  11.160   2.025 -0.1298  0.2749  0.3449
33247W        W76185  27.676  12.996   1.836 -0.0699  0.1215 -0.0827
33248W        W76186  28.225  12.576   2.784  0.1172  0.4942  0.0053
33249W        W76187  27.660  11.203   4.276 -0.1453 -0.0840  0.0023
33250W        W76188  26.470  12.173   1.517  0.4261 -0.0310  0.1269
33251W        W76189  29.322  14.792   2.408  0.0042 -0.0508  0.2128
33252W        W76190  29.608  13.333   0.637  0.4327 -0.1893 -0.0719
33253W        W76191  28.821  12.930   0.992 -0.0253  0.0601  0.4335
33254W        W76192  29.717  12.094   1.862  0.1096 -0.2900  0.3317
33255W        W76193  28.730  12.346   1.351  0.2305  0.0295 -0.2805
33256W        W76194  26.462  12.574   1.794  0.0832 -0.1212 -0.2808
33257W        W76195  28.220  12.959   4.274 -0.0212 -0.0791  0.0808
33258W        W76196  24.854  11.236  31.760 -0.0006 -0.2760  0.0570
33259W        W76197  28.385  11.415   4.111 -0.1469  0.0327  0.1643
33260W        W76198  26.804  15.458   0.031 -0.1191  0.3470 -0.1150
33261W        W76199  27.579  13.460   1.081 -0.0376 -0.0179  0.0202
33262W        W76200  28.117  11.314   2.023  0.3560 -0.1697 -0.2949
33263W        W76201  25.576  11.896   1.426  0.2436 -0.4103  0.0972
33264W        W76202  24.738  13.946   3.863  0.1283  0.0171  0.2036
33265W        W76203  25.010   9.593   0.384  0.1770  0.2787  0.2091
33266W        W76204  25.961  12.545   0.945 -0.1791  0.1729  0.0423
33267W        W76205  28.563  14.611   2.573  0.4130 -0.0482 -0.1548
33268W        W76206  28.192  11.951   3.017  0.0227  0.1569  0.1218
33269W        W76207  25.479  11.917  31.599 -0.0353  0.1045 -0.0242
33270W        W76208  27.699  12.492   3.162  0.4010  0.1278  0.1937
33271W        W76209  25.745  13.153   0.131  0.1907 -0.0358 -0.1531
33272W        W76210  27.419   9.321   3.357  0.1819 -0.2387  0.2929
33273W        W76211  25.586  14.698   2.362  0.2355 -0.0932 -0.0352
33274W        W76212  25.115  13.817   2.802 -0.0872  0.1336 -0.0491
33275W        W76213  27.278  13.642   1.475 -0.4445  0.1211  0.1483
33276W        W76214  28.162  10.746   1.854  0.4684 -0.2344 -0.2106
33277W        W76215  28.334  12.337   1.912  0.0633 -0.0081 -0.2284
33278W        W76216  27.064  12.587   1.025 -0.1915  0.0361  0.3495
33279W        W76217  30.466  14.220   2.015 -0.0867  0.1823 -0.0453
33280W        W76218  27.169  13.250   2.758 -0.3946 -0.1249 -0.1561
33281W        W76219  26.110  12.325   0.269  0.0144  0.3245  0.3651
33282W        W76220  28.142  14.271   3.044 -0.0718  0.1151  0.0492
33283W        W76221  27.528  14.854   0.776  0.1260  0.0533 -0.1968
33284W        W76222  26.742  12.961   0.899 -0.0419 -0.1988  0.0769
33285W        W76223  27.092  14.180   2.804 -0.0455 -0.1688  0.1908
33286W        W76224  27.356  14.699   3.462  0.1738 -0.0740 -0.0253
33287W        W76225  28.466  12.871   1.366 -0.3351  0.2358  0.1159
33288W        W76226  25.465  11.082  31.695 -0.0580 -0.3255  0.3904
33289W        W76227  28.523  15.457  31.733  0.0721  0.0271  0.3145
33290W        W76228  24.923  13.853   4.362  0.4469  0.3405 -0.1147
33291W        W76229  25.429  14.187   2.617  0.1618  0.3087 -0.2649
33292W        W76230  24.759  14.046   1.101  0.0669 -0.0308  0.0616
33293W        W76231  29.815  14.388  31.472  0.0687  0.0143 -0.1189
33294W        W76232  28.304  12.985  31.287  0.2135 -0.0445  0.0039
33295W        W76233  29.310  14.206   1.921 -0.3019 -0.2156  0.0343
33296W        W76234  27.044  12.609  31.531  0.0150  0.0301  0.0372
33297W        W76235  25.094  14.780   3.517 -0.0245 -0.0908 -0.2339
33298W        W76236  22.985  12.381   0.072  0.2366 -0.2117 -0.0724
33299W        W76237  28.415  13.668  31.509  0.0064  0.1563 -0.0513
33300W        W76238  24.672  14.585   1.900  0.0596  0.1271  0.0691
33301W        W76239  28.012  14.677   2.809 -0.3226  0.2513 -0.3754
33302W        W76240  28.557  10.278  31.215  0.1118  0.1255  0.1929
33303W        W76241  29.281  13.567   1.588  0.0148  0.2137 -0.2762
33304W        W76242  29.838  12.459   1.062 -0.2750  0.0602 -0.0011
33305W        W76243  27.931  13.455   3.211 -0.0644  0.0459 -0.4530
33306W        W76244  26.880  12.762   1.945 -0.2461 -0.0593  0.2934
33307W        W76245  25.491  11.351  31.169  0.1737 -0.1687  0.0071
33308W        W76246  25.987  13.535   1.521 -0.0296 -0.0080 -0.0725
33309W        W76247  29.608  12.173   4.769  0.2266 -0.1950  0.0188
33310W        W76248  26.069  15.570   4.229 -0.0872 -0.0333 -0.0009
33311W        W76249  29.248  15.635   1.066 -0.0396 -0.1929 -0.4322
33312W        W76250  25.626  10.704   0.320  0.0174 -0.1626  0.2322
33313W        W76251  27.786  13.395   2.353  0.2858  0.2808  0.0051
33314W        W76252  28.671  11.772   2.801  0.0783 -0.0028  0.0360
33315W        W76253  27.871  13.538   0.661 -0.0007  0.0164 -0.0095
33316W        W76254  27.913  12.158   2.244 -0.0722 -0.0858  0.0485
33317W        W76255  27.203  14.368   0.705  0.0054 -0.1354  0.1497
33318W        W76256  25.526  13.294   2.237 -0.5226 -0.2874 -0.2721
33319W        W76257  28.658  14.106   2.878  0.2018  0.2662 -0.0577
33320W        W76258  25.368  11.266   1.979 -0.5096  0.0943 -0.0324
33321W        W76259  30.061  12.348   1.457  0.0273  0.1245  0.1113
33322W        W76260  26.192  14.236   2.576 -0.2281  0.1447  0.0959
33323W        W76261  27.946  10.273   3.125 -0.1672 -0.1842 -0.3063
33324W        W76262  28.055  11.718   0.673  0.0798 -0.3031  0.0255
33325W        W76263  28.915  11.017   1.165  0.1921 -0.2340  0.3680
33326W        W76264  28.223  13.805   2.932  0.2658  0.1206 -0.0254
33327W        W76265  26.721  13.598   2.642 -0.2382 -0.1857  0.2673
33328W        W76266  27.512  11.751   1.030 -0.0853  0.0546  0.0473
33329W        W76267  28.199  12.379   3.245 -0.0670  0.1516 -0.1573
33330W        W76268  26.786  12.196  30.634  0.0582  0.3725 -0.2384
33331W        W76269  27.007  15.454   3.584  0.2350 -0.0054 -0.0664
33332W        W76270  24.751  11.265   1.887 -0.2002 -0.0331 -0.1590
33333W        W76271  29.445  12.123   1.153 -0.2930 -0.0240  0.0042
33334W        W76272  26.430  11.601   0.772  0.1996 -0.0830  0.0172
33335W        W76273  27.447  13.847   3.466  0.3061  0.4321 -0.0433
33336W        W76274  27.711  13.746   3.913 -0.2053  0.0076  0.1665
33337W        W76275  25.648  11.405   1.112 -0.0472 -0.0748 -0.2134
33338W        W76276  28.495  14.120   0.551 -0.0342 -0.1963  0.1796
33339W        W76277  29.147  13.678   2.802  0.1077  0.0018  0.1201
33340W        W76278  28.318  14.427  31.532  0.2297  0.0664  0.1000
33341W        W76279  29.092  13.350   0.984 -0.0009  0.1123 -0.1249
33342W        W76280  28.056  14.523   1.416 -0.1592 -0.0435 -0.0482
33343W        W76281  24.890  12.817   0.728 -0.0261 -0.2775  0.0121
33344W        W76282  28.594  15.071   2.338  0.0278 -0.1869  0.3552
33345W        W76283  29.481  14.217   2.909  0.0880  0.0798 -0.0885
33346W        W76284  28.987  10.300   1.292 -0.1174 -0.1054  0.0655
33347W        W76285  27.501  13.525   1.905 -0.0677  0.0672  0.2531
33348W        W76286  26.822  14.328   1.313  0.0280 -0.0710 -0.0778
33349W        W76287  30.472  12.077   2.703  0.1126  0.2021  0.0735
33350W        W76288  27.860  10.841   2.816 -0.2471  0.0664 -0.2735
33351W        W76289  27.470  15.152  31.507  0.2161  0.0397 -0.0329
33352W        W76290  28.845  10.277   4.012  0.1396 -0.1197  0.3146
33353W        W76291  26.640  15.326   3.102 -0.0109  0.1550 -0.3959
33354W        W76292  23.938  15.457   3.810  0.3337  0.1624  0.0428
33355W        W76293  26.291  11.576  31.556 -0.4295 -0.0314  0.1577
33356W        W76294  28.366  13.380   1.771  0.0679  0.1107  0.1161
33357W        W76295  27.681  14.961   1.427 -0.2757  0.3265  0.2343
33358W        W76296  26.841  14.480   2.098 -0.1488  0.1854 -0.1385
33359W        W76297  28.650  14.041   2.357 -0.2276 -0.1039 -0.1425
33360W        W76298  27.671  11.622   1.526  0.0102  0.1442  0.3376
33361W        W76299  28.649  13.737   1.371 -0.2385 -0.2868  0.1723
33362W        W76300  26.696  11.525   2.209  0.1241 -0.2536 -0.3124
33363W        W76301  27.474  12.201   1.354 -0.2434  0.0910  0.0454
33364W        W76302  28.465  11.042   1.478  0.2529 -0.2423 -0.3289
33365W        W76303  27.552  12.984   3.176  0.0052  0.1333 -0.1674
33366W        W76304  25.089  11.611   0.628  0.0381 -0.0232  0.2123
33367W        W76305  26.967  14.086  31.689 -0.1013  0.0237 -0.1248
33368W        W76306  27.358  14.544   2.012  0.2353  0.0057 -0.1047
33369W        W76307  27.389  11.658   3.484  0.0173  0.0548 -0.0535
33370W        W76308  27.651  12.609   2.231 -0.2791 -0.1479  0.0487
33371W        W76309  26.749  13.300   2.224 -0.1612  0.1094 -0.0733
33372W        W76310  24.640  11.746  31.815  0.1015  0.1863 -0.1566
33373W        W76311  29.235  13.149  31.005  0.0768  0.1705 -0.3642
33374W        W76312  25.978  12.275   1.339 -0.1540 -0.2071 -0.1994
33375W        W76313  24.963  10.123   1.308 -0.1120  0.1371 -0.1142
33376W        W76314  27.925  13.164   1.013 -0.4434 -0.0035  0.1485
33377W        W76315  28.899  14.116   1.590  0.1045  0.1376 -0.0902
33378W        W76316  25.734  11.522   2.544  0.1864  0.2690  0.6740
33379W        W76317  29.039  12.175   3.851  0.0955 -0.0463  0.1511
33380W        W76318  23.977  12.959   1.686  0.1413  0.1085  0.1483
33381W        W76319  27.270  12.350   2.087  0.0642  0.0686  0.1353
33382W        W76320  27.821  10.687   3.418 -0.2800  0.1099  0.2273
33383W        W76321  24.889  12.813  31.623  0.0699 -0.0362  0.2111
33384W        W76322  26.527  12.859   3.171  0.2028 -0.1427  0.0554
33385W        W76323  27.263  15.172   2.488  0.0069  0.1825  0.2172
33386W        W76324  26.687  14.445   0.842  0.1367 -0.2466  0.1761
33387W        W76325  26.568  12.525   2.737 -0.1054 -0.0588 -0.1892
33388W        W76326  27.413  14.349   3.132 -0.3309 -0.1033 -0.4730
33389W        W76327  26.020  11.589   2.963 -0.0553 -0.0996  0.1458
33390W        W76328  29.216  14.201   0.066  0.0452  0.0251 -0.2331
33391W        W76329  25.899  15.517   3.269  0.2015  0.1657 -0.3115
33392W        W76330  29.072  13.829   1.056  0.1967  0.2251 -0.2474
33393W        W76331  27.928  11.764   2.665  0.2356 -0.2418  0.0159
33394W        W76332  29.561  13.907   0.740  0.0398  0.0977  0.0428
33395W        W76333  25.840  11.685   3.448  0.2093  0.0708  0.1869
33396W        W76334  27.226  11.576   1.901 -0.1673 -0.1055 -0.2531
33397W        W76335  28.312  12.678   2.313 -0.0214 -0.1445 -0.2807
33398W        W76336  26.913  10.846   2.406 -0.0293 -0.0506  0.0023
33399W        W76337  29.106  12.603   1.142  0.1573 -0.3354 -0.0639
33400W        W76338  28.237  15.142  31.951 -0.0661 -0.1734 -0.0610
33401W        W76339  25.829  13.637   2.286  0.0345 -0.1224 -0.2827
33402W        W76340  27.174  11.430  31.777 -0.2328 -0.0465 -0.2880
33403W        W76341  28.008  12.886   3.200 -0.2696  0.2008 -0.1395
33404W        W76342  27.555  12.654   1.199  0.2546  0.3667 -0.0760
33405W        W76343  29.984  12.180   2.285 -0.1005 -0.0281  0.0372
33406W        W76344  25.646  12.529   0.070 -0.0205 -0.0527  0.1961
33407W        W76345  30.067  13.746   0.880  0.0510 -0.1180  0.2040
33408W        W76346  26.406  15.789   2.400 -0.0311 -0.1260  0.1176
33409W        W76347  28.160  14.554   3.721  0.0799 -0.0815  0.1589
33410W        W76348  29.289  14.927   2.984  0.1975  0.2238  0.1244
33411W        W76349  29.451  13.404   2.452 -0.1143 -0.1290 -0.0615
33412W        W76350  24.952  12.596   2.288 -0.3284  0.1061 -0.2527
33413W        W76351  25.620  13.246   0.598  0.2217 -0.1152 -0.0254
33414W        W76352  27.241  11.591   0.567 -0.2068  0.0909  0.4482
33415W        W76353  27.158  12.364   2.662  0.1129  0.0745  0.0519
33416W        W76354  26.703  11.625  31.844  0.1534  0.1868  0.1400
33417W        W76355  28.109  11.913   0.168 -0.3246  0.1145 -0.2277
33418W        W76356  27.402  14.793   2.946  0.0069  0.0584  0.0322
33419W        W76357  29.245  12.568   1.958 -0.0268 -0.4297 -0.2142
33420W        W76358  24.942  13.762   5.276  0.0141  0.1611 -0.1880
33421W        W76359  26.253  12.540   3.805  0.0106 -0.0768 -0.0441
33422W        W76360  27.936  10.853   5.361 -0.1616 -0.0647 -0.0192
33423W        W76361  27.931  13.616   5.692  0.1708  0.0402 -0.2704
33424W        W76362  24.299  11.674   4.906  0.0907  0.2444 -0.0295
33425W        W76363  27.579  14.239   4.723 -0.1283 -0.1781 -0.2795
33426W        W76364  27.042  10.301   5.319 -0.1126 -0.2630  0.0503
33427W        W76365  27.901  15.054   4.520 -0.0003  0.0422 -0.2382
33428W        W76366  29.234  14.092   5.182  0.1316 -0.2298  0.0905
33429W        W76367  28.004  13.325   4.545 -0.0555  0.0560  0.0362
33430W        W76368  27.182  12.807   6.227 -0.1032 -0.1788  0.0499
33431W        W76369  28.601  14.279   6.220 -0.0342 -0.0968 -0.1364
33432W        W76370  26.936  11.615   3.748  0.1627 -0.1142  0.1385
33433W        W76371  25.774  11.821   5.124  0.0503 -0.2782  0.0101
33434W        W76372  29.397  14.011   5.634 -0.0502  0.1995  0.0059
33435W        W76373  26.985  12.869   2.424 -0.0264 -0.0848 -0.0199
33436W        W76374  25.574  12.021   5.822 -0.3699 -0.3005  0.0937
33437W        W76375  27.563  13.278   4.207 -0.1348  0.0267  0.0791
33438W        W76376  25.633  15.247   4.248  0.1178  0.3352  0.1162
33439W        W76377  26.442  12.160   5.826  0.0821 -0.0575  0.2603
33440W        W76378  27.953  11.494   6.670 -0.2689  0.0626 -0.0942
33441W        W76379  27.956  13.858   4.488  0.1896  0.2612  0.2756
33442W        W76380  26.945  11.260   3.113  0.0419 -0.3358  0.1159
33443W        W76381  26.097  13.149   4.684 -0.1522 -0.0465 -0.0579
33444W        W76382  25.797  13.551   4.700  0.1831 -0.2570  0.3295
33445W        W76383  28.172  12.622   6.881  0.0796  0.1859  0.0690
33446W        W76384  27.881  12.252   5.688  0.1494 -0.1440  0.2983
33447W        W76385  27.205  15.342   5.784 -0.3746  0.1045 -0.2199
33448W        W76386  27.051  13.977   5.445 -0.0029 -0.1888 -0.0602
33449W        W76387  28.666  12.482   7.723 -0.1058 -0.0162  0.0564
33450W        W76388  25.275  13.511   3.213 -0.3511 -0.0815 -0.2870
33451W        W76389  25.855  14.771   4.184  0.3380  0.1462  0.0613
33452W        W76390  26.456  14.857   3.071 -0.2170 -0.4192  0.1218
33453W        W76391  28.631  13.216   5.132  0.0179  0.1583  0.3002
33454W        W76392  29.285  14.867   7.256  0.1511  0.0535  0.3737
33455W        W76393  26.641  15.318   5.752  0.3174 -0.2089 -0.1597
33456W        W76394  25.519  13.867   3.646 -0.1505 -0.2558 -0.4116
33457W        W76395  27.084  16.078   6.287  0.1392 -0.1489  0.3302
33458W        W76396  26.117  13.670   6.643  0.1763 -0.2004  0.0850
33459W        W76397  26.776  13.263   4.806  0.2476  0.0801 -0.1062
33460W        W76398  27.466  12.518   4.583 -0.1287  0.0214 -0.0178
33461W        W76399  26.706  14.098   3.799 -0.0866 -0.3260 -0.2124
33462W        W76400  26.566  12.596   4.196 -0.0588  0.1480 -0.2174
33463W        W76401  27.129  14.170   6.677 -0.2445 -0.0578 -0.1975
33464W        W76402  27.006  12.625   5.201  0.0850  0.0878  0.3050
33465W        W76403  28.189  13.222   7.504  0.4364  0.2631  0.1017
33466W        W76404  25.466  14.869   4.555 -0.0932 -0.4505 -0.1398
33467W        W76405  27.798  11.624   3.093 -0.2170  0.1181  0.2490
33468W        W76406  26.850  11.758   3.274  0.3185  0.2306  0.0729
33469W        W76407  28.983  11.818   3.548 -0.1681  0.1979 -0.1888
33470W        W76408  27.260  10.737   6.229 -0.0821  0.0542  0.2131
33471W        W76409  26.061  13.911   5.377 -0.2634  0.0914  0.3386
33472W        W76410  26.108  12.057   5.495  0.1184 -0.3357  0.1061
33473W        W76411  28.557  12.345   6.652 -0.1478  0.1556  0.1709
33474W        W76412  27.261  12.045   4.636  0.2352 -0.1009 -0.0409
33475W        W76413  28.606  11.889   5.344  0.3505  0.2473 -0.0813
33476W        W76414  24.208  14.488   5.008  0.1119  0.0223 -0.0570
33477W        W76415  25.731  12.242   4.791 -0.0553 -0.1928  0.4809
33478W        W76416  28.385  13.602   4.720  0.0678 -0.3466  0.1816
33479W        W76417  30.119  12.644   5.942 -0.0277 -0.1953  0.1021
33480W        W76418  26.739  13.983   3.095 -0.2141 -0.1290  0.0379
33481W        W76419  25.966  13.257   4.208  0.0878  0.0901 -0.2438
33482W        W76420  25.455  13.553   5.604  0.1860 -0.0922  0.0880
33483W        W76421  26.131  12.338   8.599 -0.3240  0.0698 -0.1244
33484W        W76422  27.655  11.065   3.766  0.0775 -0.0981  0.0469
33485W        W76423  30.243  13.452   7.724  0.1058 -0.0642  0.3596
33486W        W76424  24.931  13.664   6.551  0.1300 -0.1345 -0.0724
33487W        W76425  30.119  10.812   5.297  0.2697  0.0115  0.0350
33488W        W76426  26.633  13.403   5.294  0.2063 -0.2554 -0.2770
33489W        W76427  29.712  14.023   7.077 -0.3216 -0.2261 -0.0068
33490W        W76428  27.716  13.894   3.025  0.5307  0.0482 -0.1857
33491W        W76429  28.933  10.927   6.518  0.0970 -0.3047 -0.0353
33492W        W76430  27.138  12.549   6.791 -0.2386  0.2068  0.1582
33493W        W76431  26.974  13.702   3.415 -0.3347  0.0660  0.0997
33494W        W76432  26.937  13.783   4.650  0.3294 -0.2029  0.0223
33495W        W76433  29.737  15.171   6.978 -0.0211  0.2385  0.2322
33496W        W76434  28.695  13.642   3.266  0.1464  0.0308  0.2709
33497W        W76435  25.627  14.630   5.630  0.4158  0.0285 -0.0728
33498W        W76436  27.011  12.697   5.749  0.0014  0.0069  0.3582
33499W        W76437  28.197  15.351   7.756  0.2260  0.2540 -0.3206
33500W        W76438  26.686  15.888   3.261  0.1382 -0.0273  0.0344
33501W        W76439  24.791  13.122   6.140 -0.1505 -0.3277 -0.0948
33502W        W76440  26.660  13.315   3.585 -0.1086  0.0268  0.0265
33503W        W76441  25.260  11.620   4.972 -0.1227 -0.0697 -0.0774
33504W        W76442  26.326  13.153   6.281  0.0764  0.2747  0.1879
33505W        W76443  28.887  11.554   5.058 -0.1520 -0.2516  0.0709
33506W        W76444  26.698  11.032   6.854 -0.0127  0.0420  0.1404
33507W        W76445  28.478  12.941   5.917  0.1257 -0.2379 -0.3585
33508W        W76446  25.721  14.405   4.529  0.0012 -0.1848 -0.1684
33509W        W76447  28.731  13.683   5.150 -0.0013  0.0052  0.2321
33510W        W76448  29.084  12.219   3.111  0.0473  0.2225  0.1146
33511W        W76449  27.081  15.110   3.222  0.2936  0.1008  0.2575
33512W        W76450  26.457  12.961   5.097  0.2283 -0.0177 -0.2252
33513W        W76451  26.939  12.407   4.539  0.3695  0.0900 -0.0960
33514W        W76452  25.358  12.438   5.884 -0.3673 -0.1056  0.1621
33515W        W76453  26.020  12.496   5.831 -0.1197 -0.0397 -0.1018
33516W        W76454  28.605  12.877   6.753 -0.2542 -0.1243 -0.0290
33517W        W76455  26.756  12.427   3.692 -0.1687  0.1176  0.2990
33518W        W76456  27.108  11.284   4.142  0.2525  0.2108 -0.2341
33519W        W76457  26.392  13.460   5.776  0.2036 -0.0484  0.0030
33520W        W76458  24.784  13.514   3.492 -0.3884 -0.2929 -0.0094
33521W        W76459  29.577  12.722   7.599 -0.1306 -0.0366 -0.1199
33522W        W76460  28.126  15.312   4.188 -0.0707 -0.2361  0.3686
33523W        W76461  28.978  14.402   5.859 -0.1077 -0.0974  0.0314
33524W        W76462  28.459  14.279   5.756  0.2322 -0.0392  0.1734
33525W        W76463  26.451  12.708   5.999  0.1318 -0.0944  0.2969
33526W        W76464  27.139  11.058   3.707 -0.5541 -0.3142  0.3354
33527W        W76465  24.519  15.399   4.135 -0.1014 -0.0597 -0.2937
33528W        W76466  26.500  12.833   4.631  0.0172  0.2433  0.0759
33529W        W76467  27.062  12.388   3.300  0.0977 -0.1919  0.1980
33530W        W76468  29.790  14.846   6.037  0.1388  0.0620  0.4289
33531W        W76469  27.643  12.985   4.688 -0.0078  0.0816 -0.0201
33532W        W76470  25.475  13.096   7.365 -0.1436 -0.1247  0.1071
33533W        W76471  27.374  12.348   6.421 -0.2475  0.0904  0.2336
33534W        W76472  29.254  13.574   6.465 -0.3318  0.0701  0.1727
33535W        W76473  27.919  13.572   6.334  0.1959 -0.1701  0.2169
33536W        W76474  24.823  11.525   3.255 -0.2015  0.0626  0.0526
33537W        W76475  27.986  14.455   4.460  0.2501  0.0357  0.1488
33538W        W76476  25.751  14.790   3.662 -0.1512 -0.0977 -0.0181
33539W        W76477  25.318  14.041   4.617 -0.0293 -0.0142  0.0447
33540W        W76478  27.274  13.322   4.609  0.0762  0.2339  0.1908
33541W        W76479  28.675  12.793   4.341  0.2150 -0.1241 -0.2343
33542W        W76480  25.676  12.762   8.354  0.2214  0.0210 -0.0317
33543W        W76481  27.457  14.245   7.468 -0.1497 -0.1151  0.0165
33544W        W76482  26.912  12.174   4.134 -0.0266  0.3076 -0.0090
33545W        W76483  25.099  13.942   5.713  0.2385  0.0468 -0.3083
33546W        W76484  27.441  11.624   5.079 -0.0579 -0.1119  0.1112
33547W        W76485  28.820  12.321   5.242 -0.1682  0.0597 -0.0496
33548W        W76486  26.973  13.377   8.059 -0.2685  0.0049 -0.2368
33549W        W76487  29.308  12.097   4.373  0.4355 -0.2617 -0.1285
33550W        W76488  27.642  12.168   3.626 -0.1942 -0.1948 -0.3122
33551W        W76489  28.768  12.099   4.330 -0.1895 -0.3435 -0.0551
33552W        W76490  25.859  14.049   6.107  0.3780  0.0684  0.1885
33553W        W76491  25.491  13.932   5.084 -0.1259  0.2301 -0.2564
33554W        W76492  27.158  13.595   5.063  0.3906  0.2477 -0.0775
33555W        W76493  28.081  11.393   3.661  0.1962  0.1433  0.0579
33556W        W76494  29.096  13.503   6.030  0.3331  0.1727 -0.1723
33557W        W76495  25.236  14.351   5.379 -0.1423  0.0550  0.0617
33558W        W76496  27.069  13.986   7.626 -0.0561  0.3022  0.3188
33559W        W76497  27.893  14.364   5.394 -0.1402  0.0839  0.0089
33560W        W76498  26.746  12.780   6.426  0.1170 -0.3084  0.0716
33561W        W76499  26.799  12.378   2.323  0.4151 -0.0181  0.1726
33562W        W76500  27.497  10.887   5.765 -0.5043 -0.2538  0.2422
33563W        W76501  26.358  13.849   2.892  0.1640  0.1112 -0.2561
33564W        W76502  30.124  12.342   5.299  0.2131  0.4451  0.0137
33565W        W76503  27.033  13.604   5.765 -0.0887  0.0096  0.2570
33566W        W76504  27.539  11.885   6.561 -0.0119  0.0524 -0.1672
33567W        W76505  28.606  13.276   8.322  0.0414 -0.0949 -0.0124
33568W        W76506  28.524  13.052   3.899 -0.1611 -0.0704 -0.1049
33569W        W76507  27.583  12.704   5.988 -0.2661 -0.0799 -0.1749
33570W        W76508  27.142  12.727   4.220 -0.0894  0.2262  0.0461
33571W        W76509  28.127  13.204   8.210  0.0019  0.1732 -0.2574
33572W        W76510  26.621  13.911   7.003 -0.0966 -0.0248  0.1330
33573W        W76511  27.617  14.052   6.261 -0.0098  0.1727 -0.1091
33574W        W76512  28.920  13.381   7.314  0.1297  0.0907 -0.1296
33575W        W76513  28.808  14.431   5.316 -0.1778 -0.0853 -0.1121
33576W        W76514  27.917  12.759   8.272 -0.1481 -0.3025 -0.3041
33577W        W76515  27.947  11.687   4.937 -0.2445 -0.1270 -0.0865
33578W        W76516  27.539  14.329   2.672 -0.0975 -0.0203  0.3689
33579W        W76517  27.210  13.881   3.888  0.0692  0.0346 -0.1631
33580W        W76518  28.098  11.899   4.153 -0.0988 -0.1699 -0.4085
33581W        W76519  27.280  13.602   6.193  0.0319  0.2042 -0.3834
33582W        W76520  26.328  15.526   3.453  0.1949  0.2899 -0.0711
33583W        W76521  28.415  14.020   6.622 -0.1642  0.0090  0.6558
33584W        W76522  26.531  13.866   5.104 -0.0233  0.1436  0.2368
33585W        W76523  29.031  11.534   6.710  0.0405  0.3374  0.1376
33586W        W76524  26.082  15.165   4.496 -0.1448  0.1690  0.3843
33587W        W76525  26.837  12.088   2.914  0.2449  0.1054 -0.1104
33588W        W76526  25.981  12.336   3.294 -0.0390 -0.0962 -0.0820
33589W        W76527  28.957  13.041   5.909  0.0424  0.1328 -0.2059
33590W        W76528  27.112  14.279   4.543  0.0832  0.1092 -0.0797
33591W        W76529  26.106  12.588   4.944  0.1292 -0.1440 -0.0135
33592W        W76530  26.152  12.312   7.601  0.2464  0.3987  0.0890
33593W        W76531  25.224  14.817   5.980  0.2251 -0.2845  0.1055
33594W        W76532  28.276  13.329   8.707 -0.2726  0.2277  0.1676
33595W        W76533  27.124  10.993   4.537 -0.0552  0.2733  0.0356
33596W        W76534  27.920  14.429   7.579 -0.0891 -0.1909  0.1367
33597W        W76535  26.716  13.688   7.456  0.1829  0.1245 -0.3538
33598W        W76536  25.612  11.172   3.216 -0.1025  0.0703  0.1474
33599W        W76537  28.988  12.999   7.068 -0.1905  0.1035  0.0117
33600W        W76538  27.440  10.774   5.222  0.2932  0.1680  0.3891
33601W        W76539  26.612  14.378   4.749  0.2785  0.0234  0.0047
33602W        W76540  27.788  13.364   6.827  0.1341  0.2308  0.0020
33603W        W76541  28.023  11.852   3.464  0.1365  0.0523  0.1696
33604W        W76542  25.335  12.478   4.556  0.1480  0.1166  0.2833
33605W        W76543  26.288  12.278   6.303  0.1435 -0.0597  0.0183
33606W        W76544  27.799  12.719   6.468  0.0755 -0.0642  0.3586
33607W        W76545  27.301  13.180   5.923  0.2090  0.0091  0.3004
33608W        W76546  25.832  11.731   4.037  0.0248 -0.2116 -0.1731
33609W        W76547  27.639  11.921   6.087  0.3473  0.1533  0.1888
33610W        W76548  28.687  13.738   6.262  0.4960 -0.1078  0.1818
33611W        W76549  27.654  13.089   7.342  0.0954 -0.3231  0.2648
33612W        W76550  26.919  15.233   6.789 -0.1500 -0.0587  0.1541
33613W        W76551  28.454  12.005   7.488  0.0174  0.1337 -0.0947
33614W        W76552  29.197  13.711   4.503  0.0718  0.1752 -0.2215
33615W        W76553  28.042  12.268   7.225  0.0273 -0.1334 -0.3623
33616W        W76554  26.863  14.531   3.086 -0.1436 -0.3801 -0.4704
33617W        W76555  25.398  13.273   4.659  0.0376  0.1267  0.1783
33618W        W76556  25.355  14.336   3.582  0.0879 -0.0424  0.0010
33619W        W76557  26.919  12.184   5.615  0.0855  0.2078  0.3397
33620W        W76558  27.836  13.158   5.985  0.0865 -0.0745  0.0011
33621W        W76559  25.979  14.980   2.092  0.0581 -0.0632 -0.1570
33622W        W76560  25.589  14.069   5.637 -0.0536 -0.2210  0.0034
33623W        W76561  28.222  10.982   6.708 -0.4027  0.0327 -0.0849
33624W        W76562  26.870  14.645   3.610 -0.0588  0.1358 -0.0489
33625W        W76563  26.949  11.693   5.170 -0.2523  0.2834 -0.1561
33626W        W76564  28.454  11.354   6.474  0.1544 -0.0022 -0.0501
33627W        W76565  28.473  12.365   4.796 -0.4305 -0.4814 -0.1208
33628W        W76566  28.653  10.576   8.510  0.3766 -0.0683  0.0703
33629W        W76567  27.307  11.771   5.543 -0.0914  0.2800 -0.0122
33630W        W76568  28.058  13.146   6.451 -0.1857 -0.0184  0.0814
33631W        W76569  26.429  12.473   5.466  0.0790 -0.0121 -0.0494
33632W        W76570  27.764  15.112   7.888  0.2018 -0.2874 -0.0356
33633W        W76571  25.676  12.842   6.975  0.0869  0.2045 -0.0408
33634W        W76572  26.758  11.333   4.808  0.0585 -0.2328  0.4293
33635W        W76573  26.459  11.393   3.596  0.0314 -0.4669  0.2169
33636W        W76574  26.786  13.662   6.243  0.2155 -0.0087 -0.2321
33637W        W76575  28.302  13.379   5.964 -0.1222 -0.4232 -0.1791
33638W        W76576  27.586  14.449   3.835 -0.1154 -0.0143 -0.1415
33639W        W76577  28.914  11.986   5.928 -0.2133  0.1226  0.2371
33640W        W76578  25.072  13.987   3.483  0.1163 -0.0136  0.1970
33641W        W76579  28.898  13.268   4.665 -0.0260 -0.1418  0.3340
33642W        W76580  26.834  13.162   4.293  0.1688  0.1839 -0.2106
33643W        W76581  26.792  13.780   4.186  0.2333 -0.2331  0.1485
33644W        W76582  26.266  10.995   7.860 -0.0960  0.0517 -0.2980
33645W        W76583  29.129  11.681   4.636  0.2374 -0.0278  0.0470
33646W        W76584  27.154  12.074   3.676 -0.1189 -0.1203 -0.1739
33647W        W76585  27.215  12.093   6.875  0.1826 -0.2821 -0.2141
33648W        W76586  28.499  12.334   5.701 -0.0922  0.1362 -0.1839
33649W        W76587  26.671  13.267   6.610  0.0090 -0.3139  0.2999
33650W        W76588  25.812  12.352   6.197  0.0287  0.0107  0.0496
33651W        W76589  28.202  15.099   7.103 -0.2798 -0.0279 -0.0627
33652W        W76590  29.060  10.770   4.444 -0.2229  0.0726  0.1889
33653W        W76591  26.862  12.342   6.176  0.0590 -0.0808  0.0869
33654W        W76592  28.942  12.323   6.326  0.4632  0.3124  0.1451
33655W        W76593  28.318  11.925   4.629 -0.0010  0.1660  0.3094
33656W        W76594  25.711  10.708   5.718  0.0264  0.1211 -0.0758
33657W        W76595  28.118  12.672   7.496 -0.0270 -0.2685  0.0957
33658W        W76596  27.326  11.888   3.064  0.1356 -0.0715  0.0359
33659W        W76597  26.566  12.396   6.709 -0.3257  0.1220 -0.1248
33660W        W76598  27.110  14.462   4.014  0.0130  0.0045 -0.0915
33661W        W76599  27.555  14.260   4.261 -0.2831  0.0358 -0.0455
33662W        W76600  26.568  10.975   3.879 -0.0983  0.1850 -0.2430
33663W        W76601  26.615  11.145   5.794  0.0247 -0.0663  0.2158
33664W        W76602  26.414  15.077   6.910  0.0037  0.4072  0.1649
33665W        W76603  26.358  11.659   4.553  0.1284  0.1111 -0.0314
33666W        W76604  27.659  12.815   4.231  0.1514 -0.2131  0.0286
33667W        W76605  27.453  13.795   5.758  0.0988 -0.1235 -0.1864
33668W        W76606  28.112  13.598   7.133  0.0957  0.0988  0.0067
33669W        W76607  26.798  11.626   4.307  0.1211 -0.0444 -0.2015
33670W        W76608  29.458  14.046   6.612 -0.0506  0.1405 -0.2495
33671W        W76609  25.468  15.194   3.761  0.0169 -0.1917 -0.2917
33672W        W76610  28.044  11.648   6.156 -0.0792 -0.2542 -0.0304
33673W        W76611  27.361  15.000   5.316  0.1241  0.0975  0.3932
33674W        W76612  26.471  14.536   5.723  0.0251  0.1782 -0.1609
33675W        W76613  26.379  14.804   4.392 -0.2322  0.1548 -0.2680
33676W        W76614  27.113  12.848   4.691  0.2810  0.1450  0.1563
33677W        W76615  27.462  13.419   5.418  0.0422  0.2190 -0.0101
33678W        W76616  28.066  13.144   5.541  0.0578 -0.0690 -0.0872
33679W        W76617  29.285  12.712   6.169  0.2147 -0.0679  0.1790
33680W        W76618  28.381  13.617   8.015 -0.1861  0.0284  0.1186
33681W        W76619  26.141  13.302   5.403  0.1923 -0.2450  0.1489
33682W        W76620  28.376  14.492   4.910 -0.0479 -0.2907 -0.2555
33683W        W76621  28.629  12.813   5.409  0.3902 -0.2988 -0.2268
33684W        W76622  26.002  14.357   5.706 -0.2757  0.2476 -0.1502
33685W        W76623  27.025  13.133   5.512 -0.0455 -0.0865 -0.1174
33686W        W76624  27.420  13.642   7.847 -0.3523 -0.0781  0.1393
33687W        W76625  27.602  13.958   5.301  0.2533  0.0985 -0.1125
33688W        W76626  26.661  11.147   4.327 -0.1601  0.0010 -0.0968
33689W        W76627  27.098  13.379   3.887  0.1734  0.2180 -0.1209
33690W        W76628  26.966  14.117   5.940 -0.2139 -0.3498  0.0734
33691W        W76629  25.606  12.706   7.805  0.0718 -0.2607  0.2886
33692W        W76630  25.059  14.451   4.419 -0.1007  0.1425 -0.2831
33693W        W76631  28.646  12.441   3.918 -0.0022  0.0007 -0.1206
33694W        W76632  28.422  14.088   4.589  0.0603  0.0265 -0.0906
33695W        W76633  27.147  14.115   4.998 -0.2099  0.2579 -0.0982
33696W        W76634  28.804  11.248   5.854 -0.0861  0.2843  0.1714
33697W        W76635  26.432  13.445   4.424  0.1294 -0.2004 -0.0475
33698W        W76636  25.238  14.162   4.047 -0.0830 -0.2057  0.0670
33699W        W76637  29.061  12.489   4.305  0.0066  0.2410 -0.0428
33700W        W76638  25.966  14.792   4.794 -0.0399  0.0088  0.2283
33701W        W76639  29.171  14.908   6.765 -0.1666 -0.2340 -0.1881
33702W        W76640  28.580  10.962   4.250 -0.2753  0.2347 -0.0842
33703W        W76641  30.075  13.659   5.970 -0.0478  0.0445 -0.3694
33704W        W76642  29.967  12.578   4.876  0.0263 -0.1032 -0.0665
33705W        W76643  28.858  13.950   5.723  0.0257 -0.2631  0.2456
33706W        W76644  26.045  12.757   6.280 -0.0559  0.0704 -0.0651
33707W        W76645  27.895  12.910   3.761  0.1215 -0.0189 -0.0223
33708W        W76646  26.962  12.400   8.510  0.0313 -0.0705  0.2090
33709W        W76647  28.979  11.496   8.121  0.1985 -0.0670  0.0038
33710W        W76648  26.347  14.283   7.206  0.2130 -0.2376 -0.1018
33711W        W76649  29.072  13.718   3.683 -0.1731  0.3471 -0.2172
33712W        W76650  26.124  12.773   4.262  0.3360  0.1747  0.3053
33713W        W76651  26.283  13.493   4.925 -0.4526 -0.2545 -0.0556
33714W        W76652  30.135  10.987   5.960 -0.1430 -0.1802  0.1127
33715W        W76653  26.727  14.293   4.249  0.1304 -0.1134 -0.1820
33716W        W76654  27.594  12.087   5.010 -0.0816  0.0906  0.1210
33717W        W76655  26.246  14.087   3.900 -0.1498  0.0984 -0.0331
33718W        W76656  26.730  14.349   5.236 -0.1909  0.0782  0.3485
33719W        W76657  27.492  12.913   5.528 -0.0354 -0.1204 -0.2754
33720W        W76658  25.736  12.229   4.191 -0.0415  0.2917 -0.0478
33721W        W76659  29.364  12.108   5.607  0.0634 -0.2336  0.1228
33722W        W76660  26.264  13.264   6.973  0.1529  0.2975  0.0791
33723W        W76661  28.959  12.006   7.442 -0.2465  0.0730 -0.3087
33724W        W76662  27.226  11.550   4.679 -0.3014  0.5657  0.0973
33725W        W76663  28.500  11.678   3.437 -0.0726 -0.3381  0.5418
33726W        W76664  26.500  13.958   5.642  0.1933  0.0139  0.0031
33727W        W76665  25.716  11.614   6.207 -0.0084  0.1070 -0.0864
33728W        W76666  27.811  12.190   4.530 -0.0698  0.0068 -0.1145
33729W        W76667  29.673  13.238   7.754 -0.2789 -0.0678  0.2409
33730W        W76668  27.603  13.328   3.613  0.0228 -0.0367  0.1055
33731W        W76669  29.747  14.074   7.615 -0.2482  0.1866 -0.2843
33732W        W76670  26.209  12.080   5.033  0.2808 -0.0269 -0.2410
33733W        W76671  28.049  10.888   4.363 -0.1583  0.2658  0.0535
33734W        W76672  24.578  12.602   3.101 -0.1340 -0.1079  0.1375
33735W        W76673  26.778  13.166   5.980 -0.2694 -0.0473 -0.5677
33736W        W76674  27.693  15.072   6.982  0.0140 -0.3599 -0.1402
33737W        W76675  25.908  11.811   4.510 -0.0394  0.1322  0.2139
33738W        W76676  28.534  13.582   3.717 -0.2016  0.0356  0.0418
33739W        W76677  29.099  12.325   4.803 -0.0891 -0.0534  0.1590
33740W        W76678  27.827  15.559   3.814 -0.0091  0.0640 -0.0511
33741W        W76679  28.075  12.680   4.717 -0.0417 -0.1189  0.1226
33742W        W76680  27.823  14.734   4.901 -0.2347  0.0152  0.0572
33743W        W76681  27.607  11.245   5.370  0.2572 -0.0152 -0.0350
33744W        W76682  28.141  14.225   7.027 -0.0435  0.0333 -0.0351
33745W        W76683  28.793  12.745   4.901 -0.1667 -0.0701  0.1386
33746W        W76684  29.032  11.631   5.526 -0.1865  0.0379  0.0721
33747W        W76685  25.650  11.231   5.326  0.1241  0.0612  0.0465
33748W        W76686  25.578  13.740   4.230 -0.2220  0.0621  0.2696
33749W        W76687  27.815  11.668   5.479  0.0558 -0.0141  0.3302
33750W        W76688  27.740  11.110   6.883  0.3336 -0.1719  0.2063
33751W        W76689  26.573  14.555   2.691  0.2566 -0.2630 -0.0618
33752W        W76690  27.717  12.313   6.859 -0.1546  0.0235  0.0175
33753W        W76691  28.138  14.785   6.704  0.1908  0.1279  0.0822
33754W        W76692  27.787  14.976   6.308  0.0414 -0.1514 -0.0773
33755W        W76693  27.351  13.177   2.233  0.0408 -0.1610 -0.0527
33756W        W76694  26.989  13.654   6.655 -0.5327  0.2087 -0.2044
33757W        W76695  27.358  13.062   5.057  0.2103 -0.2047 -0.0233
33758W        W76696  27.514  15.257   3.441 -0.2445 -0.0445  0.3765
33759W        W76697  28.045  14.102   4.959  0.0577  0.1370  0.3437
33760W        W76698  28.137  12.631   5.307  0.4145  0.1789 -0.1245
33761W        W76699  30.636  14.690   7.341 -0.2551  0.2185 -0.0261
33762W        W76700  27.483  12.399   4.071 -0.0290 -0.0711  0.2151
33763W        W76701  28.253  10.979   6.249  0.0514 -0.2657 -0.0876
33764W        W76702  27.558  11.022   7.399  0.1547 -0.0929  0.1077
33765W        W76703  26.046  11.912   6.036 -0.0914  0.1822 -0.3040
33766W        W76704  26.536  12.331   3.229  0.0281 -0.0093  0.1653
33767W        W76705  26.466  13.767   3.419  0.1328 -0.0318 -0.2053
33768W        W76706  25.797  12.360   5.343 -0.1560  0.0949  0.1502
33769W        W76707  27.483  11.594   6.936  0.0972 -0.2390  0.2751
33770W        W76708  25.295  11.934   6.214 -0.0630  0.2820 -0.1209
33771W        W76709  26.086  13.812   4.300  0.0099 -0.1148 -0.0614
33772W        W76710  26.810  11.887   4.706 -0.1798  0.0479  0.1045
33773W        W76711  29.062  13.363   4.138 -0.0386 -0.2070 -0.2261
33774W        W76712  26.727  10.740   6.117  0.0577 -0.0362 -0.0955
33775W        W76713  25.506  11.139   5.951 -0.2629  0.2546 -0.1609
33776W        W76714  27.811  14.843   5.378 -0.0996  0.1262 -0.0863
33777W        W76715  29.640  13.095   5.172  0.3009 -0.2391 -0.0465
33778W        W76716  27.639  11.660   4.511 -0.0833 -0.3222  0.2605
33779W        W76717  29.118  12.963   7.553  0.3377  0.1775 -0.1561
33780W        W76718  27.159  13.708   2.973 -0.1065 -0.0988 -0.0760
33781W        W76719  27.757  12.380   8.639  0.1034 -0.2489  0.0119
33782W        W76720  26.667  11.945   6.409  0.2827 -0.0116 -0.1659
33783W        W76721  25.320  11.584   3.489  0.1649  0.1321  0.0205
33784W        W76722  27.110  11.757   6.324  0.0204  0.2241 -0.1979
33785W        W76723  26.956  14.773   5.092 -0.3811 -0.1442 -0.0365
33786W        W76724  28.729  14.805   4.105  0.0042  0.2504  0.1635
33787W        W76725  27.494  13.805   6.661 -0.2772 -0.1778 -0.2452
33788W        W76726  26.261  14.358   5.111 -0.2766  0.0076  0.0397
33789W        W76727  26.374  11.794   7.343 -0.4004  0.0920 -0.0259
33790W        W76728  28.419  13.095   4.679  0.4220 -0.1771 -0.4285
33791W        W76729  27.652  14.217   6.984 -0.0035  0.0150  0.2206
33792W        W76730  29.807  12.663   5.429 -0.0724 -0.3764 -0.1052
33793W        W76731  28.669  11.843   6.489  0.0066  0.0358  0.1272
33794W        W76732  27.916  13.189   5.034 -0.0766 -0.1689 -0.1285
33795W        W76733  26.234  11.578   5.029 -0.0925 -0.1522  0.3890
33796W        W76734  26.632  12.875   7.071  0.0751 -0.1378 -0.1592
33797W        W76735  28.794  13.444   6.791 -0.3351  0.0888  0.2046
33798W        W76736  26.252  10.503   4.746  0.3009 -0.2738  0.2859
33799W        W76737  27.457  10.017   5.941  0.0829  0.2707 -0.1712
33800W        W76738  26.212  14.318   4.418 -0.0988 -0.0200 -0.2326
33801W        W76739  26.091  12.799   5.408 -0.1302  0.4349  0.0957
33802W        W76740  27.085  12.158   5.068  0.2272  0.2602 -0.0984
33803W        W76741  27.336  12.462   8.066 -0.3088 -0.0444 -0.0538
33804W        W76742  28.327  13.497   6.686  0.1317  0.0877 -0.0637
33805W        W76743  28.639  13.920   7.073  0.1069  0.1212 -0.0062
33806W        W76744  26.385  13.583   3.910 -0.1235  0.4400 -0.2077
33807W        W76745  29.502  11.569   4.212  0.3281 -0.2645  0.0988
33808W        W76746  27.623  14.600   6.621 -0.2283 -0.2828  0.0652
33809W        W76747  28.584  14.520   6.726 -0.2502  0.0362 -0.0950
33810W        W76748  27.358  15.606   6.232 -0.2496 -0.1573  0.1409
33811W        W76749  28.325  12.666   6.370 -0.1704  0.0711 -0.0633
33812W        W76750  26.095  10.010   5.806 -0.1274  0.2407  0.0028
33813W        W76751  26.435  13.053   3.997 -0.0191  0.1617 -0.1264
33814W        W76752  27.631  12.608   5.081  0.2117  0.1824 -0.0236
33815W        W76753  28.052  12.667   5.854 -0.0695  0.1622 -0.0883
33816W        W76754  27.201  10.480   5.778  0.0423 -0.1512 -0.2538
33817W        W76755  28.354  10.389   3.558  0.3492  0.2018 -0.0574
33818W        W76756  28.286  14.742   6.205 -0.2903  0.1229 -0.3876
33819W        W76757  27.616  13.710   7.386 -0.0415 -0.1465 -0.4085
33820W        W76758  23.982  14.851   9.741 -0.1589  0.2378  0.1638
33821W        W76759  26.961  11.985   8.903 -0.0181  0.0992  0.1764
33822W        W76760  28.513  12.456   7.205  0.3271 -0.1967  0.0654
33823W        W76761  28.605  12.815   8.492 -0.1246 -0.3193  0.1646
33824W        W76762  26.306  12.479   9.154 -0.0970 -0.0472  0.2148
33825W        W76763  27.753  14.616  10.098  0.1092  0.1040 -0.0496
33826W        W76764  28.286  14.693   8.697 -0.3857  0.0796  0.2279
33827W        W76765  28.275  14.618   9.235  0.1867  0.0591  0.1000
33828W        W76766  27.111  13.053   6.694 -0.0724 -0.0759  0.2856
33829W        W76767  27.134  11.541   9.330  0.1018 -0.4095  0.0192
33830W        W76768  27.207  11.380   7.714  0.0899 -0.4048 -0.1951
33831W        W76769  25.181   8.806  10.044  0.2934  0.1010 -0.2370
33832W        W76770  29.000  14.022   9.735  0.4696 -0.3889  0.0282
33833W        W76771  26.397  12.757   7.526  0.1085 -0.0375 -0.1724
33834W        W76772  29.523  13.262  10.032  0.1326  0.0646 -0.0481
33835W        W76773  27.597  11.658  10.277  0.0397  0.2698 -0.0418
33836W        W76774  26.925  15.604   8.355  0.0188  0.4727 -0.2716
33837W        W76775  27.252  10.874  10.321 -0.1661  0.2047  0.2399
33838W        W76776  26.311  14.059   8.293 -0.1946 -0.2812 -0.0211
33839W        W76777  25.264  11.591   6.542 -0.0085  0.0271 -0.3249
33840W        W76778  26.114  12.864   9.378  0.0354  0.0020  0.1314
33841W        W76779  27.083  13.412  10.282  0.1786  0.2569  0.0902
33842W        W76780  29.570  12.775   9.896  0.3240  0.3439 -0.2933
33843W        W76781  28.464  14.202   8.866  0.0427  0.1398 -0.0584
33844W        W76782  28.525  16.310  10.251  0.2253 -0.0851  0.1909
33845W        W76783  27.774  14.479   9.450  0.2213 -0.3366 -0.2038
33846W        W76784  26.339  14.347   8.711  0.0890 -0.2238  0.0796
33847W        W76785  25.286  13.980   9.438  0.0083  0.2058 -0.0985
33848W        W76786  27.145  14.533   7.737 -0.2303  0.0858  0.2020
33849W        W76787  28.774  14.610   8.637  0.1201 -0.1591  0.2697
33850W        W76788  26.019  13.667   8.293  0.2738  0.2135  0.0618
33851W        W76789  27.061  13.420   9.459  0.0774 -0.2123  0.3093
33852W        W76790  27.803  13.113   8.663 -0.0506 -0.1531  0.0533
33853W        W76791  26.701  14.449   8.048 -0.0474 -0.1008  0.1872
33854W        W76792  27.094  14.519  10.402  0.2824 -0.1974 -0.1159
33855W        W76793  26.676  14.723   8.534 -0.1971  0.2650  0.1954
33856W        W76794  25.642  13.852   7.038  0.0604  0.2328 -0.0379
33857W        W76795  28.060  12.705   9.478  0.1105 -0.0927 -0.0740
33858W        W76796  27.314  12.953   7.668 -0.1120 -0.0915 -0.0091
33859W        W76797  27.160  13.002   7.208 -0.1384 -0.1191 -0.0924
33860W        W76798  26.942  10.509  10.097  0.0175  0.2221 -0.1957
33861W        W76799  27.249  15.517   8.927 -0.1009 -0.0644  0.0484
33862W        W76800  25.069  12.115   8.482  0.1476  0.0035 -0.0187
33863W        W76801  28.250  13.621   9.600  0.1533  0.0004  0.1069
33864W        W76802  26.658  12.155  10.415  0.0146 -0.1373  0.0206
33865W        W76803  26.700  14.256   9.490  0.1638  0.4637 -0.1072
33866W        W76804  26.688  13.419   9.771 -0.2819 -0.1054 -0.1377
33867W        W76805  27.190  15.147   6.339 -0.1571 -0.0521 -0.1403
33868W        W76806  29.603  14.657   9.728  0.0805 -0.3502  0.1109
33869W        W76807  27.499  14.812   7.490 -0.0686 -0.1784 -0.1457
33870W        W76808  27.195  13.318   8.479  0.1456 -0.0590 -0.3236
33871W        W76809  27.519  13.160   6.401  0.0451 -0.2382  0.0064
33872W        W76810  27.455  12.032   9.047  0.0258  0.2470  0.0252
33873W        W76811  27.614  13.923   9.398 -0.0628  0.2521  0.0213
33874W        W76812  28.312  15.464   9.898  0.3346  0.2641 -0.2030
33875W        W76813  26.843  12.674   7.669 -0.0609  0.3719 -0.0832
33876W        W76814  27.791  13.667  10.026  0.0454  0.1725 -0.0810
33877W        W76815  26.992  11.243  10.072 -0.1601  0.1511 -0.1364
33878W        W76816  26.141  13.830   7.199  0.0621  0.3082 -0.2186
33879W        W76817  27.389  13.784   8.350  0.1615 -0.0372 -0.3447
33880W        W76818  29.075  12.946   9.690 -0.0967  0.0518 -0.0679
33881W        W76819  28.097  12.756   8.757  0.3862 -0.1222 -0.1141
33882W        W76820  26.553  14.958  10.472 -0.1184  0.2688  0.2018
33883W        W76821  25.113  14.835   7.538  0.3210 -0.0345  0.0426
33884W        W76822  25.508  12.572   9.755  0.2899  0.2024 -0.1435
33885W        W76823  26.608  14.076   6.485 -0.2136  0.1003 -0.3150
33886W        W76824  25.209  12.007   8.999 -0.0789  0.1738 -0.1834
33887W        W76825  27.450  13.889  10.348  0.0263  0.2659 -0.0034
33888W        W76826  28.277  12.439   8.413  0.1423  0.0457  0.0447
33889W        W76827  29.873  11.656   9.313  0.2541  0.0660  0.1234
33890W        W76828  27.228  12.834   8.579  0.2146  0.3759  0.0748
33891W        W76829  28.066  14.768   8.109 -0.1969  0.1723 -0.2149
33892W        W76830  29.866  12.940   8.108 -0.0379 -0.3695  0.1451
33893W        W76831  28.682  14.916   6.989 -0.2726 -0.1752 -0.1922
33894W        W76832  23.237  12.790  10.068  0.1683  0.3849  0.1343
33895W        W76833  26.837  12.990   9.551  0.3997 -0.2173  0.1433
33896W        W76834  26.071  12.979  10.190  0.3068 -0.3897 -0.1817
33897W        W76835  26.349  11.489   7.718 -0.2169 -0.2507 -0.1932
33898W        W76836  28.586  12.099   9.441  0.1914 -0.1583 -0.1352
33899W        W76837  26.549  12.504   9.593  0.1033 -0.1870 -0.0200
33900W        W76838  27.329  12.063   7.711  0.1137 -0.1161 -0.1307
33901W        W76839  27.623  14.870   8.355  0.1285  0.3311  0.1833
33902W        W76840  28.613  14.354  10.539 -0.2751 -0.1309 -0.2202
33903W        W76841  28.672  15.153   7.407  0.1220 -0.0300  0.1270
33904W        W76842  27.427  12.155   9.960  0.1273 -0.1666 -0.0311
33905W        W76843  26.999  11.844   8.314  0.0760 -0.0748 -0.2897
33906W        W76844  25.272  14.302   8.413 -0.0542  0.0046 -0.0701
33907W        W76845  27.382  14.376   8.631 -0.2002 -0.1368 -0.0906
33908W        W76846  27.282  12.474   8.886  0.4840 -0.2321  0.2426
33909W        W76847  29.220  14.405  10.481  0.0048 -0.0653 -0.1841
33910W        W76848  27.514  13.044   8.208  0.1896 -0.0559 -0.0480
33911W        W76849  27.973  14.062   9.710  0.2309  0.0225  0.1089
33912W        W76850  28.058  13.196   9.769  0.1623 -0.1836 -0.1854
33913W        W76851  26.717  12.048   7.059 -0.2386  0.1220 -0.0121
33914W        W76852  28.478  14.074   9.539  0.0179  0.0906  0.1949
33915W        W76853  26.547  13.182   7.961  0.1804  0.1428 -0.0387
33916W        W76854  25.645  12.011   8.390 -0.0911 -0.1812 -0.1027
33917W        W76855  27.814  14.528   8.895 -0.0818 -0.4243  0.1909
33918W        W76856  29.750  11.610   9.914 -0.0525 -0.1870 -0.1279
33919W        W76857  26.475  11.939   7.983  0.1136 -0.2306  0.0976
33920W        W76858  26.616  10.756   8.830 -0.2246 -0.1731  0.2110
33921W        W76859  29.521  12.944   8.528 -0.0514  0.2020  0.0050
33922W        W76860  28.897  13.705   9.026  0.1824  0.2357  0.0218
33923W        W76861  28.877  12.866   7.971 -0.1917  0.1813  0.2550
33924W        W76862  27.930  12.006   7.598 -0.3002 -0.1644 -0.0174
33925W        W76863  27.317  14.233   8.174  0.0969  0.2652 -0.0057
33926W        W76864  28.127  13.240   9.279  0.2034 -0.0211  0.0312
33927W        W76865  28.477  12.474   8.991 -0.0638  0.2093  0.0127
33928W        W76866  27.783  14.324   8.313 -0.0009 -0.1475  0.1068
33929W        W76867  25.369  11.192  10.082  0.2522  0.0596  0.0835
33930W        W76868  27.885  15.692   8.519  0.1404 -0.3818 -0.1265
33931W        W76869  25.303  11.067   9.134 -0.1178  0.1926 -0.1147
33932W        W76870  27.620  11.607   7.493 -0.0463 -0.2726  0.3438
33933W        W76871  28.557  12.527   9.625  0.0100 -0.0929  0.0118
33934W        W76872  27.048  15.033   7.590 -0.0344 -0.1702  0.1187
33935W        W76873  29.843  11.155  10.171 -0.0673  0.0869 -0.0955
33936W        W76874  28.472  12.070  10.150 -0.2225  0.0962  0.3010
33937W        W76875  27.768  13.203   7.815  0.0012 -0.0641  0.3546
33938W        W76876  28.539  13.125   9.545  0.0205 -0.0541 -0.1313
33939W        W76877  27.151  11.792   7.327  0.0574 -0.0021 -0.0619
33940W        W76878  28.310  12.012   8.870  0.0325  0.0497 -0.0134
33941W        W76879  26.233  14.244   9.694 -0.1658 -0.1871 -0.0635
33942W        W76880  27.273  13.630   9.074  0.2398  0.0845 -0.0274
33943W        W76881  27.174  12.709   9.340 -0.1229  0.1221  0.1693
33944W        W76882  27.124  13.863   7.183 -0.1334 -0.0934  0.0463
33945W        W76883  26.249  13.730   6.150  0.0999  0.2031 -0.1223
33946W        W76884  25.638  11.420   9.192 -0.0210  0.5849  0.4673
33947W        W76885  26.885  15.564   9.368  0.1107  0.1638  0.0921
33948W        W76886  28.100  14.363   6.426 -0.0201 -0.0921  0.1115
33949W        W76887  27.594  14.953   9.696  0.1329 -0.0422  0.1924
33950W        W76888  24.635  15.188   7.877  0.0758  0.1495 -0.2941
33951W        W76889  29.065   9.866   9.704  0.1212  0.2528 -0.1920
33952W        W76890  26.661  14.080   8.970 -0.1765  0.0664 -0.1028
33953W        W76891  27.620  12.598   7.348  0.2301 -0.0342  0.1665
33954W        W76892  26.754  13.111   7.499  0.0166 -0.0122  0.0277
33955W        W76893  27.750  12.694   7.836 -0.0566  0.0630 -0.0756
33956W        W76894  29.442  13.745   8.898 -0.2899 -0.3482  0.0068
33957W        W76895  27.445  10.503   9.992 -0.1402  0.0569 -0.1005
33958W        W76896  28.549  15.764  10.216  0.1535 -0.0068 -0.1646
33959W        W76897  26.187  13.349   9.794 -0.1330 -0.2367 -0.0377
33960W        W76898  28.327  11.807   8.409  0.2964 -0.0605  0.1632
33961W        W76899  25.706  13.162   5.561 -0.1141 -0.0140  0.1760
33962W        W76900  29.455  11.700  10.374  0.2382 -0.4157 -0.3553
33963W        W76901  25.442  13.846   9.857  0.0003  0.0343 -0.1104
33964W        W76902  26.687  13.141   8.419  0.1071  0.1730 -0.2564
33965W        W76903  26.956  14.334   9.917  0.0001  0.1182  0.2309
33966W        W76904  27.075  12.334   7.312 -0.0728  0.1016 -0.1697
33967W        W76905  26.120  14.403   7.641  0.1974  0.2246 -0.0186
33968W        W76906  28.669  16.799  10.375  0.1126  0.0735  0.1710
33969W        W76907  25.637  13.369  10.028 -0.3782 -0.3274  0.2074
33970W        W76908  26.582  12.116   8.521 -0.1551  0.2294  0.1260
33971W        W76909  27.620  14.042   8.943  0.2066  0.0408 -0.1743
33972W        W76910  26.051  14.660  10.130 -0.0626 -0.2040  0.1424
33973W        W76911  27.631  11.905   9.527 -0.1929 -0.0016  0.2371
33974W        W76912  27.428  11.463   9.772 -0.1166  0.0411  0.2544
33975W        W76913  29.851  14.638   6.909  0.3038  0.0181  0.3395
33976W        W76914  26.818  13.670   8.591  0.0127 -0.1087  0.1134
33977W        W76915  24.107  11.670  10.185  0.1941 -0.2243  0.2893
33978W        W76916  28.898  14.816  10.338 -0.0980  0.2997  0.0207
33979W        W76917  27.304  13.658   9.902 -0.1666 -0.0420  0.0236
33980W        W76918  26.549  14.600   9.119  0.2806 -0.0254  0.2177
33981W        W76919  26.284  13.400   7.554 -0.1840 -0.1006  0.1485
33982W        W76920  24.680  12.250   9.643 -0.0955 -0.2408  0.1371
33983W        W76921  28.601  11.870   8.025 -0.0707  0.0331 -0.0405
33984W        W76922  28.031  13.763   7.639 -0.0657  0.1913  0.0906
33985W        W76923  29.140  12.402   9.574  0.2670 -0.1678 -0.0496
33986W        W76924  26.817  13.026  10.139 -0.1101 -0.0031 -0.0814
33987W        W76925  26.938   9.181  10.372  0.2746  0.0467  0.0960
33988W        W76926  29.272  12.457  10.057  0.1451  0.0423 -0.3146
33989W        W76927  27.679  12.726   9.078 -0.0883 -0.2529  0.0520
33990W        W76928  26.745  10.173   7.575  0.1173  0.1862 -0.0963
33991W        W76929  26.641  10.845   9.906  0.1864 -0.1876  0.0158
33992W        W76930  27.542  12.557  10.295  0.0252 -0.0342  0.1785
33993W        W76931  27.985  13.873   6.733 -0.1363  0.1253  0.2205
33994W        W76932  29.668  12.284   9.690 -0.2130  0.1732 -0.0656
33995W        W76933  25.894  13.763   9.676 -0.3066  0.0850  0.0068
33996W        W76934  29.013  12.480   9.104  0.1822 -0.0212  0.2823
33997W        W76935  27.110  12.181   9.407 -0.2993 -0.0370  0.0245
33998W        W76936  26.431  13.401   8.767 -0.0036 -0.0348 -0.2520
33999W        W76937  27.900  15.060   8.731  0.1634 -0.4262 -0.2161
34000W        W76938  28.405  11.419   9.370 -0.1344 -0.2290  0.0256
34001W        W76939  30.831  16.462   9.693  0.2448  0.2876  0.0536
34002W        W76940  30.180  11.923   7.936  0.2555  0.1389 -0.1002
34003W        W76941  27.989  10.541   9.184 -0.1862 -0.0057  0.0262
34004W        W76942  29.416  13.289   9.462 -0.1310  0.3733 -0.1140
34005W        W76943  28.339  12.752   8.027 -0.2866  0.0770 -0.1525
34006W        W76944  26.394  12.893   9.841 -0.1999  0.2166  0.0818
34007W        W76945  27.577  11.784   8.048  0.0230  0.1263 -0.3851
34008W        W76946  26.694  15.007   6.399 -0.1763  0.0301 -0.0291
34009W        W76947  29.183  14.424  10.018  0.1591  0.1172 -0.0074
34010W        W76948  28.765  12.458  10.079  0.1682  0.1321  0.1899
34011W        W76949  27.016  12.846   8.134  0.2125  0.1100 -0.2450
34012W        W76950  26.831  12.237   8.046 -0.0759  0.0768 -0.0574
34013W        W76951  28.078  14.098   9.173  0.4444  0.1354 -0.2492
34014W        W76952  26.783  14.207   8.488 -0.3560  0.1074 -0.3789
34015W        W76953  27.088  11.331   8.200  0.0377 -0.1463  0.0473
34016W        W76954  26.366  13.940   7.739 -0.0673  0.3268 -0.2131
34017W        W76955  28.188  11.541   8.840 -0.0672  0.2057  0.2384
34018W        W76956  25.691  14.241   9.550  0.2784 -0.0810  0.4952
34019W        W76957  25.577  13.328   8.953 -0.0034  0.0006  0.0925
34020W        W76958  27.044  11.516   8.800 -0.1052 -0.5237 -0.1520
34021W        W76959  28.667  13.180  10.066  0.2494 -0.0629 -0.0057
34022W        W76960  27.656  13.459   9.571  0.0857  0.0454  0.0664
34023W        W76961  27.426  13.152   9.159  0.0789 -0.0896  0.0135
34024W        W76962  29.457  12.595  10.505 -0.1035 -0.1089  0.0069
34025W        W76963  26.283  13.815   9.273  0.2411 -0.1426 -0.2965
34026W        W76964  26.432  13.338  10.260  0.0695 -0.1246 -0.1250
34027W        W76965  25.836  11.261   8.721 -0.2936 -0.1395 -0.0326
34028W        W76966  25.863  13.430   7.237  0.1207  0.1731 -0.2107
34029W        W76967  25.002  13.573   9.785  0.1459  0.0321 -0.0322
34030W        W76968  24.691  14.896   8.365 -0.0199  0.2225  0.2568
34031W        W76969  27.932  13.734   8.257  0.2084 -0.1028  0.2201
34032W        W76970  26.739  13.417   7.053  0.3119  0.0246  0.2017
34033W        W76971  27.365  15.284   9.353 -0.1157  0.0231 -0.0992
34034W        W76972  28.132  12.206   9.612 -0.0234  0.1520 -0.2106
34035W        W76973  25.792  13.001   9.756  0.2553 -0.2278  0.1111
34036W        W76974  24.885  13.186   7.962 -0.0284 -0.0640 -0.0442
34037W        W76975  28.394  14.139   7.458 -0.3551 -0.0563 -0.2371
34038W        W76976  24.169  15.048   8.411 -0.0701  0.2839 -0.2767
34039W        W76977  29.664  11.840   6.020  0.2304 -0.2326 -0.0449
34040W        W76978  30.200  13.654   9.616 -0.0134 -0.2136  0.0156
34041W        W76979  28.916  10.805   9.886  0.0754 -0.1712 -0.3265
34042W        W76980  28.277  15.113   9.571 -0.1799 -0.1897 -0.0314
34043W        W76981  28.221  12.268   7.948  0.2844 -0.0274 -0.2356
34044W        W76982  28.595  13.710   7.560 -0.1499  0.3024 -0.0229
34045W        W76983  26.624  11.513   8.199  0.2928 -0.0190  0.1139
34046W        W76984  27.139  13.982   8.770 -0.3076  0.1798 -0.1929
34047W        W76985  31.560  12.226  10.165  0.0061 -0.1547  0.1522
34048W        W76986  26.080  12.938   7.887 -0.0093  0.0858  0.0178
34049W        W76987  28.827  11.653  10.138 -0.0186 -0.1241 -0.3810
34050W        W76988  26.532  15.050   8.874  0.0713 -0.0735  0.0110
34051W        W76989  26.530  14.662   9.852  0.3067  0.2417  0.1437
34052W        W76990  28.068  16.092  10.255 -0.2997 -0.0842  0.3357
34053W        W76991  25.622  10.576   7.281  0.0141 -0.4385 -0.1550
34054W        W76992  29.874  12.757   9.486  0.1970  0.1077  0.0605
34055W        W76993  22.715  10.671  10.145 -0.3101  0.2407  0.0584
34056W        W76994  27.645  12.945   9.525  0.1941 -0.1509 -0.2639
34057W        W76995  29.257  11.886   9.391 -0.0559  0.0626 -0.1226
34058W        W76996  26.019  12.565   9.849  0.2642 -0.3243 -0.1614
34059W        W76997  26.549  12.528  10.096 -0.0715  0.1278 -0.1820
34060W        W76998  27.573  12.869   6.910  0.0717 -0.0875 -0.0662
34061W        W76999  27.570  12.049   7.225  0.0624  0.1407  0.0424
34062W        W77000  27.060  12.454  10.442 -0.0031 -0.1183  0.4415
34063W        W77001  28.326  11.064   8.963  0.0688  0.0465  0.1950
34064W        W77002  25.433  12.370   8.664 -0.1963  0.1960  0.0739
34065W        W77003  26.775  13.846   8.086 -0.0467  0.0279 -0.0343
34066W        W77004  26.902  12.234   9.909  0.0301  0.0186  0.0643
34067W        W77005  29.115  13.777   6.978 -0.3215  0.1609 -0.1217
34068W        W77006  31.612  13.453  10.189  0.1881 -0.0272 -0.0946
34069W        W77007  26.222  14.552   8.085  0.2683 -0.2405 -0.2141
34070W        W77008  29.254  13.221   8.824 -0.0356  0.0112 -0.2041
34071W        W77009  28.175  15.655   9.411 -0.1976 -0.0917  0.1932
34072W        W77010  28.058  11.813   9.280  0.1230  0.0632 -0.0558
34073W        W77011  29.584  16.225  10.197  0.2627  0.1073 -0.1141
34074W        W77012  27.039  16.079   9.579 -0.0203  0.2968 -0.0654
34075W        W77013  26.526  11.572   9.210  0.0015  0.1501 -0.3094
34076W        W77014  26.496  13.847   9.799 -0.1669  0.1046  0.1985
34077W        W77015  25.576  13.779   8.633  0.0347  0.3681  0.2909
34078W        W77016  30.012  13.503  10.103  0.3244 -0.2437 -0.1497
34079W        W77017  28.286  15.274   5.884 -0.0449 -0.2955  0.1911
34080W        W77018  26.787  13.568   9.074  0.2318 -0.2792 -0.5170
34081W        W77019  27.348  13.445   6.991  0.1608  0.4822  0.1731
34082W        W77020  27.380  14.766   9.231 -0.2531  0.1792 -0.1422
34083W        W77021  26.706  14.983   8.148 -0.2193  0.1053 -0.2135
34084W        W77022  27.873  11.873   9.965 -0.0548  0.0592 -0.3819
34085W        W77023  28.487  12.962   9.013  0.1666 -0.3062  0.4231
34086W        W77024  28.411  13.694   9.094 -0.0605  0.0708 -0.0203
34087W        W77025  27.810  12.742   9.937 -0.1858  0.1665 -0.0126
34088W        W77026  29.944  11.594   8.357  0.0703 -0.3740 -0.4284
34089W        W77027  29.315  11.537   9.045 -0.0634  0.1565  0.3738
34090W        W77028  27.091  13.954   9.467 -0.1124  0.1861 -0.0109
34091W        W77029  25.840  12.721   8.875 -0.1065  0.1840  0.1265
34092W        W77030  27.406  14.943   8.777 -0.2143  0.6091  0.2413
34093W        W77031  27.799  15.179  10.548 -0.0981 -0.2384 -0.0696
34094W        W77032  25.513  13.472   9.519 -0.1501 -0.3141  0.1586
34095W        W77033  26.495  12.606   8.049 -0.1776 -0.0880  0.0332
34096W        W77034  28.668  14.134   8.048 -0.0299  0.1437 -0.3211
34097W        W77035  25.754  12.557  10.267  0.0649  0.0794  0.1870
34098W        W77036  25.321  11.213   8.571  0.2191 -0.0092 -0.1288
34099W        W77037  29.242  13.755   9.374 -0.2855  0.0322  0.2794
34100W        W77038  28.136  14.939   7.556  0.0263  0.1375 -0.1795
34101W        W77039  27.644  12.419   9.514 -0.2698  0.1343 -0.1498
34102W        W77040  25.193  13.625   7.029 -0.2472  0.0410 -0.1146
34103W        W77041  26.159  11.520   6.367  0.1846 -0.0758  0.1315
34104W        W77042  27.917  12.336  10.149  0.0746 -0.0982 -0.0675
34105W        W77043  27.533  15.336   8.416 -0.2097  0.0980  0.1532
34106W        W77044  28.044  15.240   8.328 -0.1297 -0.1189 -0.2458
34107W        W77045  26.540  14.320  10.193 -0.4201  0.1263  0.1714
34108W        W77046  27.699  14.054   7.898  0.1200  0.1683  0.1194
34109W        W77047  28.906  13.731   8.063  0.1030 -0.0252  0.0860
34110W        W77048  30.136  11.855   9.717 -0.1255 -0.2135  0.1513
34111W        W77049  27.866  13.593   9.003  0.3053  0.0315 -0.1589
34112W        W77050  29.759  14.868   8.763 -0.3127 -0.2533  0.1803
34113W        W77051  26.926  13.060   8.975 -0.0408  0.0361 -0.0971
34114W        W77052  26.844  11.723   7.689  0.0817  0.0320  0.0302
34115W        W77053  27.588  14.574   7.946 -0.4508 -0.1343  0.0472
34116W        W77054  28.278  13.422  10.278  0.0237 -0.0706  0.1701
34117W        W77055  28.367  10.938   9.482  0.2971 -0.0202 -0.1074
34118W        W77056  27.138  15.196   8.077 -0.0342 -0.1937  0.0136
34119W        W77057  27.170  13.400   7.492 -0.0745  0.1870  0.1360
34120W        W77058  29.563  12.393   9.188  0.2269  0.0783  0.0064
34121W        W77059  29.953  17.108  10.038  0.0581  0.3591  0.1326
34122W        W77060  28.557  13.774   9.997  0.0786 -0.1064 -0.2642
34123W        W77061  28.773  13.616   9.531  0.0715  0.0726 -0.2575
34124W        W77062  26.174  10.579   8.954  0.1943 -0.2635 -0.1421
34125W        W77063  24.174  12.956   9.998 -0.1508  0.0598  0.3511
34126W        W77064  27.212  13.193   9.854 -0.3174 -0.2923  0.4489
34127W        W77065  27.721  11.675   8.883  0.0996 -0.2469  0.1322
34128W        W77066  27.170  11.925  10.318 -0.3329 -0.3645  0.2891
34129W        W77067  28.244  13.127   6.997 -0.1384 -0.1733 -0.3826
34130W        W77068  24.274  12.549   9.265 -0.2849  0.3360 -0.2151
34131W        W77069  26.888  13.871  10.117  0.0201  0.2132 -0.0842
34132W        W77070  25.407  16.797   1.588 -0.3835  0.2357  0.0896
34133W        W77071  26.126  14.852   0.264  0.1739 -0.4462  0.0039
34134W        W77072  27.958  17.257   0.919 -0.0764  0.3370  0.1030
34135W        W77073  28.939  17.097  31.673 -0.2494 -0.2980  0.2287
34136W        W77074  27.096  15.005  31.891 -0.0220  0.1245  0.3465
34137W        W77075  27.002  18.031   1.503  0.1288 -0.1769 -0.2520
34138W        W77076  25.053  15.474   2.421  0.0755 -0.0186 -0.0179
34139W        W77077  29.591  17.593   1.931 -0.2409 -0.3035 -0.3824
34140W        W77078  27.159  17.579   1.781  0.2020 -0.0596  0.0118
34141W        W77079  26.332  15.691   0.094 -0.1701  0.0283  0.1349
34142W        W77080  25.726  16.641   2.441  0.0370  0.1147 -0.1267
34143W        W77081  27.090  17.209   0.771  0.1079  0.2650  0.1318
34144W        W77082  26.147  14.024   1.980 -0.0513  0.0090 -0.2137
34145W        W77083  24.804  15.480   1.558 -0.1366 -0.2871  0.2353
34146W        W77084  27.679  16.321   2.740 -0.0443 -0.0484  0.0282
34147W        W77085  24.666  15.637   0.247 -0.1034  0.4945 -0.0425
34148W        W77086  26.613  15.328   1.104 -0.5063  0.0005 -0.1020
34149W        W77087  26.397  14.725   1.232  0.1120  0.0216  0.1769
34150W        W77088  27.074  18.260   2.036  0.2454  0.1939 -0.1034
34151W        W77089  27.245  16.090   3.043  0.0979 -0.0017  0.1618
34152W        W77090  29.614  12.831   3.356  0.1928 -0.4615 -0.0742
34153W        W77091  25.863  16.802   1.819  0.0015 -0.1833 -0.0863
34154W        W77092  25.746  15.712   0.157  0.3801 -0.0348 -0.3156
34155W        W77093  25.251  15.272   0.803  0.1772 -0.4571  0.3283
34156W        W77094  26.807  17.903   3.366 -0.0561  0.0322  0.1746
34157W        W77095  28.385  16.619   1.471 -0.2248 -0.3202 -0.1023
34158W        W77096  27.537  17.210   1.845 -0.2033 -0.0573  0.0600
34159W        W77097  27.075  16.748   0.910  0.0298  0.0173 -0.0186
34160W        W77098  26.658  17.251   1.776  0.1843 -0.2019 -0.3099
34161W        W77099  28.221  15.890   3.061  0.1311 -0.0337 -0.0182
34162W        W77100  24.604  16.256   1.368  0.2083  0.1865  0.2116
34163W        W77101  25.466  18.772   1.305  0.1842 -0.1914  0.3786
34164W        W77102  26.376  17.563   2.378  0.1630 -0.0708  0.1771
34165W        W77103  28.488  17.557   1.683  0.0273  0.1815  0.1125
34166W        W77104  28.972  17.747   3.528 -0.0185 -0.0589 -0.0564
34167W        W77105  26.409  18.587   3.435  0.3769 -0.0863 -0.0349
34168W        W77106  25.194  16.428  31.107  0.1647 -0.0466 -0.1566
34169W        W77107  27.857  18.910   3.881  0.2630  0.2234  0.4482
34170W        W77108  27.418  18.730   3.525 -0.0555  0.2722  0.2262
34171W        W77109  26.518  16.762   3.080  0.4285  0.3334  0.0799
34172W        W77110  28.051  16.586   1.881  0.0950  0.1243  0.1130
34173W        W77111  26.024  16.969   1.079  0.2241 -0.1521  0.2153
34174W        W77112  27.359  18.276   1.207  0.0388 -0.2457  0.3380
34175W        W77113  27.048  16.501   2.056  0.1264 -0.0996 -0.2071
34176W        W77114  24.540  17.796   2.653 -0.0801 -0.0827 -0.2372
34177W        W77115  28.587  15.305   4.411  0.2904  0.1249  0.0294
34178W        W77116  26.224  17.957   2.105 -0.1982  0.3054 -0.0586
34179W        W77117  27.596  15.720   0.767  0.1968  0.1381 -0.2808
34180W        W77118  26.158  15.215   1.329 -0.1380  0.0441  0.2565
34181W        W77119  28.720  16.696  31.859 -0.1662 -0.0749  0.1242
34182W        W77120  27.767  14.476   2.268  0.1394  0.2565  0.1270
34183W        W77121  25.215  19.143   3.068  0.0518  0.1094 -0.0924
34184W        W77122  27.896  15.549   3.273  0.0645  0.0120  0.0838
34185W        W77123  28.615  18.036   2.403 -0.1189  0.0382 -0.0957
34186W        W77124  26.764  15.759   0.881 -0.2701  0.0437 -0.1322
34187W        W77125  28.231  16.447   3.052  0.1727 -0.2423  0.4194
34188W        W77126  27.489  18.606   2.963 -0.2554 -0.0070 -0.1732
34189W        W77127  23.682  15.879   1.180  0.0121 -0.0122  0.0297
34190W        W77128  29.301  17.528  30.850  0.0023  0.1665 -0.1749
34191W        W77129  29.488  16.583   2.049 -0.0016 -0.1625 -0.2509
34192W        W77130  27.989  18.036  31.487  0.4080  0.0747  0.1444
34193W        W77131  24.947  16.229   0.824 -0.1039 -0.0450  0.0400
34194W        W77132  25.396  17.337   1.500  0.0660 -0.0870  0.1210
34195W        W77133  26.120  16.329   2.488 -0.1014  0.1078 -0.2363
34196W        W77134  27.250  13.973   1.097  0.1922  0.0811 -0.1927
34197W        W77135  29.077  16.157   3.467  0.0721  0.0204  0.0188
34198W        W77136  25.315  16.915   3.584 -0.0745  0.1350  0.1967
34199W        W77137  28.836  15.275   0.994 -0.2877  0.1980  0.0675
34200W        W77138  27.871  16.956   1.368 -0.0243 -0.0857 -0.1317
34201W        W77139  28.529  16.753   3.260  0.2825 -0.0337 -0.1039
34202W        W77140  30.004  19.073  31.451  0.3884  0.0249  0.0151
34203W        W77141  28.215  13.453  31.966 -0.3362 -0.0637 -0.0111
34204W        W77142  29.493  15.436   4.008  0.1333  0.1417 -0.1960
34205W        W77143  26.301  15.905   0.846 -0.2460 -0.1844 -0.3547
34206W        W77144  27.527  16.708   1.802 -0.0707 -0.1557 -0.3394
34207W        W77145  28.784  17.228   2.433 -0.0341  0.0509 -0.0879
34208W        W77146  28.949  17.967  31.858  0.0948 -0.0562 -0.0208
34209W        W77147  24.175  17.626   2.407 -0.0018  0.1140 -0.3032
34210W        W77148  25.980  15.845   2.141 -0.1658  0.1301  0.1494
34211W        W77149  27.071  18.900   2.549 -0.1063  0.1768  0.0061
34212W        W77150  27.723  17.537  31.614  0.3029 -0.2462  0.0989
34213W        W77151  24.677  16.157   2.011 -0.2112  0.1149  0.1705
34214W        W77152  25.956  16.548   1.303  0.3733 -0.1130 -0.0595
34215W        W77153  24.892  15.051   1.848 -0.1315  0.0721 -0.3342
34216W        W77154  26.118  17.798   3.100  0.1514 -0.0563 -0.1294
34217W        W77155  28.964  15.764   0.672  0.4205  0.1436  0.1858
34218W        W77156  25.171  14.624   1.862  0.0232 -0.0850 -0.1884
34219W        W77157  28.374  15.016   2.874  0.2567  0.3561 -0.1414
34220W        W77158  23.955  16.363  31.745 -0.0476 -0.1627 -0.2608
34221W        W77159  29.069  18.635   0.425 -0.1766  0.1620 -0.0571
34222W        W77160  28.376  16.459   0.540 -0.0538  0.1609  0.0028
34223W        W77161  29.355  18.376   0.148  0.4050  0.3359 -0.0239
34224W        W77162  25.039  15.737   3.116  0.0656 -0.0546 -0.0999
34225W        W77163  24.698  15.595   2.096 -0.2077  0.0697  0.1501
34226W        W77164  27.870  16.427   4.002  0.0946  0.3224 -0.0564
34227W        W77165  25.792  16.385   2.856 -0.2571 -0.1038 -0.2828
34228W        W77166  28.667  15.979   2.271 -0.3048 -0.3835  0.1026
34229W        W77167  26.152  14.742  31.757 -0.3390  0.2040  0.1574
34230W        W77168  27.862  15.368   1.654 -0.0505 -0.2275  0.2198
34231W        W77169  25.946  14.768   1.527 -0.2026 -0.1465  0.1984
34232W        W77170  25.329  16.047   0.502  0.1124  0.0401 -0.0773
34233W        W77171  28.371  15.386   3.361  0.1579 -0.0661  0.1347
34234W        W77172  27.154  16.853  31.932 -0.0965  0.0253 -0.0782
34235W        W77173  28.657  18.733   2.206  0.2223 -0.1237 -0.0976
34236W        W77174  28.797  18.593   1.192 -0.0660  0.0414 -0.1363
34237W        W77175  27.418  15.995   2.493  0.1992  0.3994 -0.0213
34238W        W77176  27.321  14.756   0.291 -0.1590 -0.0416  0.4684
34239W        W77177  26.554  18.241   1.741  0.0419  0.2464  0.0121
34240W        W77178  26.628  16.774   1.921  0.0578 -0.3342 -0.4178
34241W        W77179  25.256  15.563   1.364  0.0447 -0.2281 -0.0934
34242W        W77180  27.858  18.351   2.012 -0.1413 -0.0622 -0.0159
34243W        W77181  26.772  15.933   1.313  0.0686  0.0607  0.1453
34244W        W77182  23.903  16.882   3.315  0.1718 -0.0576  0.0120
34245W        W77183  30.030  14.820   2.441  0.0624  0.0107 -0.1017
34246W        W77184  28.376  16.234   2.596  0.0349  0.0495  0.1779
34247W        W77185  28.386  14.923   1.812 -0.1164  0.0825 -0.1923
34248W        W77186  27.033  15.163   0.359 -0.2788  0.2310 -0.1799
34249W        W77187  27.615  17.560   0.116  0.0948 -0.1501 -0.2169
34250W        W77188  25.020  17.911   0.098  0.1295 -0.1977  0.0529
34251W        W77189  25.401  15.367   0.285 -0.1793  0.3850  0.1742
34252W        W77190  27.842  17.800   0.884  0.1344 -0.1930  0.0692
34253W        W77191  27.546  15.172   2.032  0.1246 -0.0729 -0.1923
34254W        W77192  26.441  17.435   3.294  0.1849  0.0157 -0.2979
34255W        W77193  29.165  15.029   3.968  0.1674  0.2826  0.0697
34256W        W77194  27.274  15.689  31.491  0.2688  0.0660 -0.0715
34257W        W77195  26.309  17.202   3.760 -0.0407 -0.0453 -0.0409
34258W        W77196  27.187  14.600   1.139 -0.0774  0.0493 -0.4818
34259W        W77197  29.228  15.568   1.629  0.0014  0.0603 -0.2003
34260W        W77198  27.160  17.649   2.677  0.1899 -0.3908 -0.3197
34261W        W77199  28.364  17.569   0.846 -0.1228  0.2213  0.0630
34262W        W77200  27.591  16.097   1.027 -0.1010 -0.1217 -0.0465
34263W        W77201  29.113  16.437   0.127  0.0875  0.1464 -0.0310
34264W        W77202  25.986  17.560   3.578  0.2172  0.2893  0.1615
34265W        W77203  27.205  15.772   1.174  0.0793  0.0644  0.2414
34266W        W77204  27.939  16.205   2.289  0.0640  0.0689 -0.1798
34267W        W77205  26.983  15.487   2.194 -0.0582  0.0363 -0.2179
34268W        W77206  29.528  16.446   1.078  0.1297  0.1784 -0.2548
34269W        W77207  22.731  17.832   2.616 -0.0905 -0.1411  0.0570
34270W        W77208  27.194  18.293   3.983 -0.4324 -0.3945 -0.0710
34271W        W77209  28.325  18.323   1.692  0.0807 -0.1212 -0.1238
34272W        W77210  28.853  15.269   3.506  0.0326 -0.0228  0.3913
34273W        W77211  25.877  16.168  31.898  0.0193  0.3015 -0.0405
34274W        W77212  26.325  13.939   1.517 -0.1534 -0.0011 -0.1208
34275W        W77213  26.285  17.248   0.631 -0.3465 -0.1118 -0.3168
34276W        W77214  28.896  15.034   2.686 -0.3097 -0.0496  0.0145
34277W        W77215  26.052  15.486   1.701 -0.1913  0.1864 -0.1460
34278W        W77216  28.056  13.935   3.457  0.1594 -0.1812  0.3076
34279W        W77217  28.308  17.038   3.639 -0.0427  0.2632 -0.1178
34280W        W77218  28.723  14.387   0.162 -0.1067  0.0012 -0.0377
34281W        W77219  27.605  15.240   1.036 -0.0512 -0.1322 -0.1776
34282W        W77220  25.078  16.730   0.891 -0.1317 -0.1183 -0.0266
34283W        W77221  28.575  15.387   4.907  0.1416  0.2512 -0.2279
34284W        W77222  25.364  17.275   2.490 -0.2899 -0.2904  0.0482
34285W        W77223  26.038  17.254   3.053  0.1224  0.1597 -0.3708
34286W        W77224  28.742  17.160   2.989 -0.1416  0.0983  0.0169
34287W        W77225  27.194  17.314   0.159  0.1146 -0.5741  0.2788
34288W        W77226  27.628  15.357   4.254  0.2296  0.0603 -0.0298
34289W        W77227  27.092  15.760   1.679  0.1504 -0.0156  0.2480
34290W        W77228  25.914  18.515   0.014 -0.1290  0.1205 -0.0234
34291W        W77229  26.352  16.266   1.213 -0.1766 -0.1485 -0.1014
34292W        W77230  25.426  16.267   1.932 -0.3009  0.0358 -0.1131
34293W        W77231  27.060  19.344   2.273  0.1213  0.0746  0.0010
34294W        W77232  26.288  17.411   1.257 -0.1098 -0.2688  0.0770
34295W        W77233  28.003  16.693   3.436  0.1577  0.2668  0.1365
34296W        W77234  24.406  15.756   1.736  0.0902 -0.2726  0.1253
34297W        W77235  28.355  15.631   2.357  0.3102 -0.0041  0.1980
34298W        W77236  25.408  17.026   1.110 -0.0213 -0.1151  0.1847
34299W        W77237  27.195  15.694   0.420 -0.0996  0.2246  0.1986
34300W        W77238  24.565  14.500   0.947 -0.2308 -0.1135 -0.1146
34301W        W77239  28.370  15.435   1.747 -0.1939 -0.1076  0.4273
34302W        W77240  30.549  18.711  31.354  0.1909  0.2335  0.3478
34303W        W77241  27.009  14.723   1.619 -0.1085 -0.2661 -0.0727
34304W        W77242  28.013  15.392   2.792 -0.7331  0.2223 -0.0353
34305W        W77243  25.567  17.841   3.191 -0.2426  0.0080  0.1949
34306W        W77244  28.689  16.528   2.869 -0.1602  0.2416  0.0341
34307W        W77245  27.681  15.050  31.971 -0.3597 -0.0145  0.0645
34308W        W77246  26.658  17.117   2.350 -0.0052  0.2661  0.0037
34309W        W77247  26.189  16.240   4.430 -0.2776 -0.0200  0.0174
34310W        W77248  25.669  15.143   1.124 -0.2201 -0.2173 -0.0948
34311W        W77249  28.530  15.457   2.893 -0.3075 -0.0777  0.1222
34312W        W77250  28.533  15.947   1.785  0.0206  0.0820  0.0196
34313W        W77251  26.254  18.616   1.656  0.3980 -0.0736  0.0107
34314W        W77252  27.953  18.097   1.475  0.1316 -0.0558 -0.1110
34315W        W77253  26.787  15.959   0.413 -0.2352 -0.0370 -0.1878
34316W        W77254  25.001  16.893   1.374 -0.1640  0.0452  0.0713
34317W        W77255  26.595  16.446   4.012  0.1502  0.1238  0.0536
34318W        W77256  29.147  17.736   2.298  0.0399 -0.1659 -0.2821
34319W        W77257  27.684  14.990   2.451 -0.0699 -0.0914  0.0337
34320W        W77258  27.897  15.063   3.125 -0.0730 -0.1225  0.1368
34321W        W77259  26.541  15.789   1.817 -0.0094  0.1890  0.1012
34322W        W77260  27.900  17.208   2.619 -0.1379 -0.1419  0.0845
34323W        W77261  28.229  15.787   3.569  0.0384  0.2168  0.0615
34324W        W77262  24.288  17.896   4.191 -0.3069  0.2858  0.2784
34325W        W77263  25.807  15.604   1.230  0.2669 -0.0898  0.0879
34326W        W77264  30.220  19.007   1.127  0.0756  0.2525 -0.2399
34327W        W77265  29.178  16.936   2.140 -0.2455  0.0018 -0.2177
34328W        W77266  25.542  16.670  31.380 -0.0921  0.3482 -0.2102
34329W        W77267  24.798  15.794   1.063 -0.0836  0.1463 -0.0494
34330W        W77268  27.162  16.274   1.222 -0.0652  0.0856  0.0651
34331W        W77269  27.460  15.275   2.898 -0.0474  0.2702 -0.1084
34332W        W77270  26.082  18.707   2.478 -0.2953  0.3574 -0.0725
34333W        W77271  24.948  16.515   1.726 -0.3662  0.2537  0.0183
34334W        W77272  24.482  17.959   2.198 -0.1092  0.1424  0.0918
34335W        W77273  30.572  15.375   1.712  0.0783 -0.2555  0.0520
34336W        W77274  27.138  17.650  31.815 -0.1634  0.0788 -0.2444
34337W        W77275  26.479  14.462   1.703  0.3580  0.0788 -0.0477
34338W        W77276  30.086  14.387   3.418 -0.1555 -0.2374  0.0764
34339W        W77277  26.539  16.790  31.527  0.0234 -0.0300 -0.0263
34340W        W77278  27.962  14.178   4.017 -0.0740 -0.0520  0.0376
34341W        W77279  25.894  14.327   3.506 -0.0241  0.3146 -0.4463
34342W        W77280  27.972  17.544   1.529  0.0626  0.1905 -0.1090
34343W        W77281  24.528  15.010   3.218 -0.0538 -0.2331 -0.0463
34344W        W77282  27.862  17.818   4.637  0.0624  0.0380 -0.0336
34345W        W77283  26.750  16.202   1.703 -0.0894 -0.0365  0.1818
34346W        W77284  28.517  13.935   1.878 -0.2565 -0.0449 -0.2370
34347W        W77285  25.803  13.689   0.663  0.1517 -0.0619  0.2481
34348W        W77286  27.628  17.788   1.872  0.3173  0.1930  0.1008
34349W        W77287  29.187  18.722   0.920  0.2736  0.0285  0.1104
34350W        W77288  26.326  16.339   0.440  0.0085  0.3015 -0.2020
34351W        W77289  29.041  14.705   1.729  0.0233  0.0685  0.0657
34352W        W77290  26.140  16.793   2.777  0.3171  0.0683 -0.2712
34353W        W77291  27.569  17.352   1.296 -0.2737 -0.2499  0.1881
34354W        W77292  25.676  14.895   0.594  0.1868  0.2813 -0.0383
34355W        W77293  25.450  16.360   0.889 -0.2263  0.0088  0.1677
34356W        W77294  25.959  15.265   2.513  0.1797 -0.0999  0.0189
34357W        W77295  27.794  16.424   1.365  0.2137 -0.1164  0.1006
34358W        W77296  28.765  15.544   2.005 -0.4059 -0.1382 -0.2593
34359W        W77297  28.632  14.397   3.262  0.0072 -0.2847  0.1364
34360W        W77298  27.845  16.990   2.172 -0.0091  0.0542 -0.0260
34361W        W77299  26.480  16.355   3.468 -0.0137  0.4272 -0.1622
34362W        W77300  24.678  14.584   2.959 -0.2433  0.4155  0.0462
34363W        W77301  28.115  19.758   3.209  0.1026 -0.3589 -0.0501
34364W        W77302  28.865  15.776   1.355  0.1660 -0.0752 -0.1248
34365W        W77303  29.786  15.129   2.126  0.0928 -0.1773 -0.3749
34366W        W77304  29.451  14.695   1.421 -0.1131 -0.0052  0.2762
34367W        W77305  28.421  15.575   1.262  0.2345 -0.0401 -0.3423
34368W        W77306  25.572  15.960   3.120 -0.1180  0.0094 -0.2508
34369W        W77307  28.608  15.996   3.832 -0.1892  0.0497  0.0329
34370W        W77308  26.268  14.250   1.134  0.1244 -0.0162 -0.1352
34371W        W77309  28.563  13.438   4.281  0.0582  0.2715  0.0347
34372W        W77310  26.285  17.635   1.700 -0.1195  0.0947 -0.0491
34373W        W77311  28.690  16.291   0.955  0.3023 -0.0060 -0.1309
34374W        W77312  28.005  17.454   2.027  0.0952 -0.1485 -0.0431
34375W        W77313  25.579  16.101   2.375 -0.0765  0.0130 -0.1201
34376W        W77314  26.739  18.283   3.647  0.3278  0.1575 -0.0387
34377W        W77315  26.038  16.453  31.452  0.1880 -0.2841 -0.2328
34378W        W77316  28.002  14.850   1.003 -0.1064 -0.2635 -0.0894
34379W        W77317  27.082  16.799   1.652 -0.1742 -0.1030  0.0247
34380W        W77318  28.880  15.529   2.515 -0.1483 -0.2403 -0.2188
34381W        W77319  28.313  13.687   0.410  0.2821 -0.1928  0.0772
34382W        W77320  28.753  14.495   4.534 -0.1189 -0.1691 -0.4176
34383W        W77321  25.435  17.787   1.219 -0.1174 -0.1658  0.2812
34384W        W77322  28.043  13.667   1.182 -0.1749  0.1965  0.2502
34385W        W77323  26.522  17.209   2.814 -0.1794  0.0742 -0.1324
34386W        W77324  25.441  17.708   2.157 -0.3334  0.0292 -0.1543
34387W        W77325  26.839  17.920   2.447 -0.5735 -0.3448  0.2988
34388W        W77326  26.829  15.865   2.775 -0.0110 -0.2869  0.2508
34389W        W77327  28.846  15.221   1.625  0.2358 -0.3413 -0.0435
34390W        W77328  26.770  16.614   0.493 -0.2558  0.0389  0.2263
34391W        W77329  29.969  16.683   2.211  0.2344  0.5288 -0.3091
34392W        W77330  28.165  18.432   3.510 -0.1347 -0.1859 -0.0284
34393W        W77331  25.896  15.919   2.674 -0.0443  0.0980 -0.0764
34394W        W77332  28.322  16.411   3.675  0.2144 -0.0733 -0.2295
34395W        W77333  28.081  17.627  31.940  0.0214  0.1420 -0.2323
34396W        W77334  25.087  17.406   2.025  0.0179 -0.2304  0.2478
34397W        W77335  26.317  15.672   2.883  0.0046 -0.0274 -0.1458
34398W        W77336  27.067  17.005   2.069  0.2846 -0.3307  0.1131
34399W        W77337  27.367  15.394   1.495 -0.0745 -0.1388  0.0768
34400W        W77338  26.606  14.051   1.918  0.2010  0.1453  0.0426
34401W        W77339  26.721  17.603   1.414 -0.1795 -0.3131 -0.3451
34402W        W77340  23.608  17.709   3.650 -0.2041  0.1076 -0.2663
34403W        W77341  25.223  16.469   3.783  0.2072  0.2992 -0.1461
34404W        W77342  26.898  18.616   1.660  0.0136 -0.2378  0.1423
34405W        W77343  27.617  16.790  31.941  0.1898  0.1290 -0.2363
34406W        W77344  27.045  16.777  31.446  0.0305  0.0223 -0.0230
34407W        W77345  28.335  18.855   1.491 -0.1452  0.2126 -0.1699
34408W        W77346  26.506  15.632  30.591 -0.1625  0.0367 -0.1709
34409W        W77347  25.730  17.767   1.744  0.0640  0.1809 -0.2472
34410W        W77348  25.610  17.408  31.888  0.0847  0.0306  0.2925
34411W        W77349  27.870  18.313   1.012 -0.2952 -0.0149 -0.0470
34412W        W77350  26.467  17.974   1.164 -0.1432 -0.0548  0.1484
34413W        W77351  27.707  17.607   2.798 -0.2504 -0.1593  0.0744
34414W        W77352  29.530  15.102   0.133  0.2639 -0.1686 -0.3874
34415W        W77353  27.538  14.431   1.537 -0.2131  0.2652 -0.0135
34416W        W77354  29.380  15.216   2.608 -0.0800 -0.1975 -0.0672
34417W        W77355  27.206  18.261   4.498  0.0848  0.4705 -0.1591
34418W        W77356  27.381  16.172   1.780  0.0973 -0.1157  0.0501
34419W        W77357  26.678  16.757   0.034 -0.2151  0.2413 -0.0053
34420W        W77358  25.205  17.035   3.091 -0.2823  0.0687 -0.1193
34421W        W77359  29.360  15.104   3.443 -0.0359  0.1712  0.0197
34422W        W77360  26.800  16.312   3.027 -0.3128 -0.1089 -0.1148
34423W        W77361  29.071  18.853   0.004 -0.3122 -0.0092 -0.1835
34424W        W77362  25.142  14.931  31.709 -0.0246  0.2851 -0.0811
34425W        W77363  25.696  16.876   3.012  0.2629  0.0257  0.1000
34426W        W77364  29.038  15.443   2.976  0.2697 -0.1055  0.4762
34427W        W77365  25.835  17.387   0.489  0.0552  0.0290  0.2621
34428W        W77366  27.909  14.761   1.844 -0.1347  0.0224 -0.2519
34429W        W77367  26.158  17.169   2.066  0.2970 -0.1323 -0.0162
34430W        W77368  26.276  18.264   2.619 -0.0643 -0.1174  0.1922
34431W        W77369  26.510  18.475   2.172 -0.0236 -0.0074 -0.2252
34432W        W77370  26.127  15.416   0.849 -0.1435 -0.3734  0.0968
34433W        W77371  29.074  16.048   1.842 -0.0455  0.0629 -0.2161
34434W        W77372  26.160  16.017   3.325  0.1727  0.1277 -0.1261
34435W        W77373  28.781  15.735   3.334 -0.3924  0.2049 -0.0768
34436W        W77374  26.746  16.603   1.294 -0.3987 -0.0187  0.1321
34437W        W77375  29.138  16.139   1.113 -0.1323 -0.0731 -0.0354
34438W        W77376  28.098  16.671   2.490  0.0507  0.2145 -0.1276
34439W        W77377  26.625  15.454   3.928 -0.1478  0.0468 -0.1061
34440W        W77378  28.052  15.598   0.584  0.1562 -0.3029  0.1399
34441W        W77379  28.816  18.539   1.755 -0.1492 -0.1110  0.0961
34442W        W77380  27.139  16.305   0.256 -0.2975  0.2844  0.1017
34443W        W77381  28.667  19.094   3.520 -0.1443  0.0349  0.1656
34444W        W77382  26.369  16.278  31.766  0.0563 -0.1332 -0.1120
34445W        W77383  27.679  15.257   0.412 -0.1608 -0.2390 -0.1561
34446W        W77384  25.912  17.244   1.605  0.0832  0.1545  0.2571
34447W        W77385  26.252  16.700   2.178 -0.2618 -0.1962  0.1576
34448W        W77386  28.642  16.753   4.410 -0.0015 -0.0014 -0.2298
34449W        W77387  27.163  15.368   0.791  0.0130 -0.1174  0.2559
34450W        W77388  29.569  16.516   0.503  0.0716  0.0130  0.3232
34451W        W77389  28.656  16.965   2.008 -0.0821 -0.3296  0.2286
34452W        W77390  28.129  19.584  31.749 -0.4590  0.1945 -0.2845
34453W        W77391  27.967  15.703   2.029  0.0682 -0.0009 -0.1325
34454W        W77392  27.428  17.916   2.330 -0.1329  0.2086  0.0292
34455W        W77393  25.137  16.048   3.492  0.1177  0.0548  0.2486
34456W        W77394  28.321  19.674   2.060 -0.0591  0.3868  0.1131
34457W        W77395  28.315  17.119   2.332 -0.2139 -0.0984 -0.0951
34458W        W77396  26.806  13.717   1.539  0.1564 -0.4915 -0.1249
34459W        W77397  25.909  16.337   1.981 -0.1397 -0.1098 -0.2714
34460W        W77398  25.749  18.284   0.433  0.1524 -0.0894  0.2624
34461W        W77399  28.173  14.722   2.311  0.1886  0.1308  0.1596
34462W        W77400  28.351  14.819   4.495  0.0624  0.0894 -0.3401
34463W        W77401  26.420  18.474   0.045 -0.0520  0.0154  0.1848
34464W        W77402  28.824  14.399   3.890  0.1195 -0.1795 -0.0763
34465W        W77403  28.202  18.142   2.647  0.1325 -0.1598 -0.2093
34466W        W77404  27.065  17.119   2.651 -0.2241  0.2113 -0.0111
34467W        W77405  25.871  17.069   0.125 -0.2249  0.1011 -0.0049
34468W        W77406  26.542  16.825   3.546 -0.1909 -0.1260 -0.0451
34469W        W77407  27.051  17.209   1.425 -0.2861  0.0183  0.2830
34470W        W77408  26.969  17.651   0.530  0.0369  0.0200 -0.0677
34471W        W77409  26.642  17.055   1.007 -0.1748 -0.1217 -0.0734
34472W        W77410  27.096  15.092   1.215  0.2687 -0.0973 -0.2553
34473W        W77411  28.308  18.389   2.234 -0.0944  0.1824  0.1018
34474W        W77412  26.412  14.977   1.778 -0.0596 -0.1269  0.1195
34475W        W77413  29.803  14.776   0.536  0.0394  0.0608 -0.0048
34476W        W77414  28.735  13.812   0.124 -0.0241 -0.1027 -0.3029
34477W        W77415  25.299  16.649   2.745  0.0327  0.0801 -0.1539
34478W        W77416  24.973  15.665   0.609  0.1011 -0.2635 -0.1351
34479W        W77417  26.708  16.235   0.882 -0.2927 -0.0311  0.1610
34480W        W77418  25.606  16.106   1.524  0.3382  0.0370  0.0716
34481W        W77419  27.843  16.013   3.728  0.2126 -0.0686 -0.2770
34482W        W77420  25.452  16.462   3.230  0.4197 -0.2294  0.0366
34483W        W77421  26.097  16.028   1.608  0.0448  0.3361  0.1354
34484W        W77422  25.839  14.087   0.956 -0.1138  0.6334 -0.2167
34485W        W77423  28.276  17.972   0.553 -0.0928 -0.3863 -0.2834
34486W        W77424  26.500  15.240   0.411  0.0474 -0.2972  0.0849
34487W        W77425  25.388  14.593   1.215 -0.4342  0.0559 -0.1239
34488W        W77426  27.452  18.633  30.920  0.0817 -0.2537  0.1035
34489W        W77427  27.492  17.508   0.700 -0.1140  0.1930 -0.1298
34490W        W77428  25.863  16.034   0.541 -0.0259 -0.0766 -0.2236
34491W        W77429  28.993  15.687   3.801 -0.3538 -0.1593  0.0789
34492W        W77430  26.306  17.211   0.009  0.1291 -0.1632  0.0912
34493W        W77431  27.000  16.257   4.415  0.0245 -0.0227 -0.1704
34494W        W77432  27.909  15.049   3.641  0.0168  0.1608  0.4514
34495W        W77433  25.079  13.825  31.479 -0.0771  0.0708 -0.0602
34496W        W77434  27.465  15.717   2.017  0.1690 -0.2943  0.0172
34497W        W77435  27.954  17.179  31.959  0.2213  0.2692 -0.0426
34498W        W77436  27.773  18.026   0.338 -0.1265 -0.1670  0.1573
34499W        W77437  26.972  18.127   2.911 -0.0412  0.1149 -0.1100
34500W        W77438  28.133  19.277   2.364 -0.0221 -0.1736  0.0867
34501W        W77439  26.306  16.213   2.937  0.0103  0.3283  0.0026
34502W        W77440  28.418  15.083   1.333  0.0713  0.0004 -0.1157
34503W        W77441  26.962  16.034   2.205  0.3089 -0.5616 -0.0309
34504W        W77442  28.825  17.278   0.852 -0.2403  0.2553 -0.2817
34505W        W77443  30.135  14.736   0.966 -0.2914  0.1998 -0.1652
34506W        W77444  27.920  16.112   1.744  0.1420  0.1689  0.1515
34507W        W77445  25.590  15.124   3.277  0.0542  0.0660 -0.1575
34508W        W77446  27.010  16.520   3.483 -0.4082  0.2833 -0.0009
34509W        W77447  28.168  17.050   1.754  0.1725  0.0281  0.2645
34510W        W77448  26.849  15.019   2.763 -0.0149  0.0556 -0.2044
34511W        W77449  27.916  14.504   0.540 -0.1220 -0.0209  0.0701
34512W        W77450  28.854  18.114   0.369  0.1585  0.0625  0.1098
34513W        W77451  25.679  16.516   3.662  0.0174  0.2245  0.1235
34514W        W77452  27.096  14.167   1.693  0.2358 -0.0060  0.3981
34515W        W77453  27.330  16.661   3.087 -0.2693  0.0654  0.2366
34516W        W77454  28.342  17.708  31.514 -0.0624 -0.0960 -0.3381
34517W        W77455  29.123  16.251   2.530  0.0931 -0.1876  0.0278
34518W        W77456  27.882  15.440  31.609  0.2452  0.0069  0.1006
34519W        W77457  29.574  18.109   0.629 -0.3069  0.0650 -0.1780
34520W        W77458  27.345  19.259   2.696  0.0513 -0.2613 -0.1229
34521W        W77459  28.985  18.694   4.637 -0.0290 -0.1619  0.0243
34522W        W77460  26.931  18.670   3.133  0.0526 -0.1437 -0.0134
34523W        W77461  27.529  16.495   2.245  0.1255  0.1630  0.2497
34524W        W77462  25.025  14.982   2.337 -0.1122 -0.0175  0.2597
34525W        W77463  25.420  17.147  31.510 -0.1745 -0.1502 -0.1016
34526W        W77464  27.404  16.827   1.306 -0.1189 -0.1001 -0.1157
34527W        W77465  28.917  16.531   1.915 -0.2276  0.2537 -0.0660
34528W        W77466  25.459  15.037   2.011  0.0698 -0.0811 -0.3572
34529W        W77467  27.946  15.590   1.127  0.2112  0.0182  0.0109
34530W        W77468  25.571  17.454   2.915 -0.1494 -0.0234  0.0369
34531W        W77469  27.494  16.872   2.529 -0.0389  0.4077  0.4068
34532W        W77470  26.624  16.370   6.835  0.1282 -0.2556 -0.3008
34533W        W77471  24.130  14.846   4.666  0.0038 -0.4328  0.1835
34534W        W77472  28.009  15.869   2.613  0.1064  0.1985  0.1652
34535W        W77473  27.554  16.312   4.524  0.5084  0.3822 -0.3552
34536W        W77474  25.206  15.023   4.946 -0.2349  0.1063  0.0171
34537W        W77475  28.351  17.532   3.465  0.2165 -0.0681 -0.0638
34538W        W77476  26.036  14.908   5.675 -0.2381  0.2163  0.3463
34539W        W77477  28.783  17.969   5.069  0.0974 -0.1061  0.0899
34540W        W77478  29.545  16.750   6.203 -0.1978 -0.0745  0.0865
34541W        W77479  26.540  15.932   3.778  0.0568 -0.4123 -0.1577
34542W        W77480  26.918  14.935   5.948  0.2860  0.2103 -0.1570
34543W        W77481  26.625  16.678   5.764  0.1775  0.2173  0.0083
34544W        W77482  26.957  14.715   4.464 -0.2532  0.2340 -0.0645
34545W        W77483  26.184  16.019   5.167 -0.0470 -0.1007 -0.4814
34546W        W77484  28.398  16.541   6.205  0.2498  0.2892 -0.1050
34547W        W77485  24.236  15.893   4.980 -0.3731 -0.2628 -0.3422
34548W        W77486  26.479  15.731   5.520 -0.2168 -0.0840 -0.1272
34549W        W77487  25.760  14.303   5.267  0.2311 -0.0615  0.1049
34550W        W77488  27.416  17.713   4.309  0.0549 -0.0727 -0.0495
34551W        W77489  27.096  15.764   5.373  0.2892 -0.0786 -0.1882
34552W        W77490  28.864  15.208   5.861  0.1829  0.2219  0.3019
34553W        W77491  28.107  17.014   4.531 -0.0505 -0.1186 -0.0143
34554W        W77492  25.135  15.887   2.120  0.1106  0.1131 -0.0064
34555W        W77493  26.130  15.055   6.408 -0.2432  0.1354  0.0621
34556W        W77494  26.683  16.832   6.749 -0.0091 -0.0954  0.3885
34557W        W77495  29.346  15.977   5.748  0.0930  0.0632  0.4023
34558W        W77496  28.352  16.781   4.948 -0.1354 -0.0326 -0.0227
34559W        W77497  26.425  17.149   5.747  0.0618 -0.2409  0.3532
34560W        W77498  26.944  17.406   3.082  0.1719  0.1198 -0.0697
34561W        W77499  26.901  15.929   7.456  0.1868  0.0329 -0.0453
34562W        W77500  24.650  16.988   4.516  0.3625  0.0540  0.0352
34563W        W77501  24.929  17.204   5.389  0.3709  0.3354 -0.0232
34564W        W77502  24.744  16.855   2.985 -0.0491  0.0060 -0.0904
34565W        W77503  29.653  17.865   4.658 -0.0257  0.1232  0.1791
34566W        W77504  28.466  17.488   6.708  0.2409 -0.0712 -0.1980
34567W        W77505  27.595  18.002   6.860 -0.2331  0.2586 -0.0165
34568W        W77506  25.606  17.426   3.958  0.1500  0.2599 -0.0086
34569W        W77507  26.694  17.327   6.931  0.0385 -0.1736  0.0421
34570W        W77508  27.283  17.807   6.435  0.1485  0.1816  0.1372
34571W        W77509  26.262  15.968   6.847  0.2708 -0.2380  0.1658
34572W        W77510  28.054  16.525   6.612 -0.0165 -0.3857  0.1333
34573W        W77511  28.511  18.208   3.228  0.0701 -0.2580 -0.1121
34574W        W77512  28.085  17.362   3.961 -0.2569 -0.1333  0.2883
34575W        W77513  25.251  16.431   4.907  0.0072  0.2052  0.1115
34576W        W77514  28.521  17.301   4.487 -0.4667  0.1131  0.2663
34577W        W77515  30.288  15.738   6.527 -0.2651  0.0689  0.1880
34578W        W77516  25.442  17.833   4.311 -0.1501  0.0464 -0.0221
34579W        W77517  26.972  17.456   2.240  0.1327 -0.1095  0.0700
34580W        W77518  27.490  15.804   3.453  0.1692 -0.1968  0.0148
34581W        W77519  28.066  15.970   4.587 -0.0245 -0.2182  0.1805
34582W        W77520  27.409  14.512   5.224 -0.1064  0.0432  0.0053
34583W        W77521  25.743  17.031   4.211  0.0791 -0.1409  0.1511
34584W        W77522  27.612  13.617   4.870 -0.0482  0.0506  0.2240
34585W        W77523  29.307  17.162   6.590 -0.2212  0.1181  0.0194
34586W        W77524  27.132  15.988   4.861 -0.0280  0.1236 -0.1372
34587W        W77525  26.719  15.700   5.084 -0.1409  0.1738  0.0202
34588W        W77526  24.620  17.752   4.968 -0.1303 -0.1375  0.2457
34589W        W77527  26.420  16.799   5.275  0.3029  0.1627  0.1299
34590W        W77528  27.549  17.176   2.982  0.3206  0.0169  0.3532
34591W        W77529  30.225  18.662   4.793 -0.0471 -0.0232 -0.0426
34592W        W77530  28.850  17.640   2.669 -0.0868  0.0992  0.0210
34593W        W77531  25.856  16.793   5.124  0.1574  0.0189 -0.0107
34594W        W77532  24.156  15.350   6.385 -0.0180  0.1230 -0.1251
34595W        W77533  25.376  15.522   6.366 -0.4487  0.2134  0.1069
34596W        W77534  27.130  15.652   3.128 -0.0146  0.1540 -0.2060
34597W        W77535  31.413  17.460   6.933 -0.0645  0.1845 -0.1422
34598W        W77536  24.900  18.317   5.762  0.0378 -0.1912 -0.1913
34599W        W77537  28.863  15.431   5.329  0.1339  0.0108 -0.1445
34600W        W77538  27.853  16.679   4.840  0.0228 -0.0145  0.1541
34601W        W77539  27.978  17.036   6.214  0.1089  0.0527 -0.1045
34602W        W77540  29.702  16.130   2.702  0.0441  0.1856  0.2616
34603W        W77541  27.725  15.418   5.871 -0.0524  0.1737 -0.3263
34604W        W77542  26.924  16.450   7.257 -0.1670 -0.0333  0.0239
34605W        W77543  24.455  15.297   3.673  0.2165 -0.1195  0.2026
34606W        W77544  25.303  15.873   4.929  0.0770  0.0911  0.1751
34607W        W77545  29.099  15.072   7.623  0.1621 -0.0965 -0.0751
34608W        W77546  29.414  16.357   4.904  0.2141 -0.1757  0.5698
34609W        W77547  26.262  16.449   6.406 -0.1398 -0.2487  0.1963
34610W        W77548  27.842  16.854   5.717  0.3292  0.1672  0.0710
34611W        W77549  26.738  17.978   6.838  0.1068  0.2153 -0.0200
34612W        W77550  23.757  17.770   2.694 -0.2330  0.0351  0.1534
34613W        W77551  23.978  16.360   5.360  0.2280 -0.2920 -0.3000
34614W        W77552  24.233  17.087   3.615 -0.0679  0.0714 -0.2009
34615W        W77553  25.426  16.332   5.673  0.2431 -0.4277 -0.0469
34616W        W77554  26.634  17.646   5.602  0.3951  0.1059 -0.2950
34617W        W77555  27.726  15.878   4.239  0.1075  0.0615 -0.2211
34618W        W77556  27.378  14.278   5.682 -0.3026  0.2266 -0.0439
34619W        W77557  28.685  15.638   5.783 -0.1625  0.0226  0.1836
34620W        W77558  27.188  17.343   4.100  0.0411  0.0915 -0.1828
34621W        W77559  28.910  18.166   5.491  0.2259  0.1602 -0.6628
34622W        W77560  28.094  15.479   4.678  0.2522  0.2060 -0.1378
34623W        W77561  28.164  16.829   4.063 -0.2164 -0.1213 -0.1937
34624W        W77562  25.487  15.787   4.420  0.1066 -0.3748  0.2496
34625W        W77563  27.145  16.791   5.866  0.0389 -0.0127 -0.1590
34626W        W77564  26.883  15.495   7.232  0.2166 -0.0025 -0.1221
34627W        W77565  25.711  16.210   5.037 -0.0412  0.0309 -0.1573
34628W        W77566  28.832  16.110   5.825  0.4849  0.1753  0.1036
34629W        W77567  24.900  14.903   4.467 -0.1293  0.0851 -0.1198
34630W        W77568  27.886  16.190   5.592  0.1895  0.1289  0.0957
34631W        W77569  26.477  15.859   4.256  0.0815  0.2072 -0.0186
34632W        W77570  25.177  16.062   2.742 -0.0240 -0.4097  0.0959
34633W        W77571  29.411  15.843   6.303 -0.2211 -0.0328 -0.0018
34634W        W77572  27.184  19.434   4.217  0.0088  0.0219 -0.4265
34635W        W77573  29.124  18.308   6.506  0.0190  0.2984 -0.0642
34636W        W77574  27.004  19.332   3.077 -0.1010  0.1197 -0.3081
34637W        W77575  26.982  14.534   5.603  0.1630  0.2329 -0.4189
34638W        W77576  24.497  14.769   4.205  0.0976  0.0330  0.3192
34639W        W77577  26.223  16.957   4.817  0.0975 -0.2618  0.0471
34640W        W77578  27.099  16.965   3.733  0.1118  0.2318 -0.0944
34641W        W77579  24.097  15.385   4.400 -0.1753 -0.3244 -0.0881
34642W        W77580  29.195  18.173   4.934 -0.2039 -0.2513 -0.1525
34643W        W77581  25.478  17.400   3.454  0.0001 -0.1437 -0.0298
34644W        W77582  24.924  16.344   5.893 -0.1434 -0.2667 -0.0059
34645W        W77583  27.968  15.311   5.444  0.0155 -0.0530 -0.0997
34646W        W77584  29.598  16.745   5.679 -0.0312 -0.1748 -0.0418
34647W        W77585  28.178  16.514   4.462 -0.2030  0.0361  0.4432
34648W        W77586  27.328  15.601   3.922  0.0895 -0.2651  0.3499
34649W        W77587  27.693  16.737   4.387  0.1544  0.1062 -0.0177
34650W        W77588  24.038  16.607   3.713  0.0159  0.1690 -0.2304
34651W        W77589  25.002  15.739   4.260  0.0325 -0.0098  0.0634
34652W        W77590  27.452  17.613   4.933 -0.4434 -0.0673 -0.1491
34653W        W77591  29.323  15.526   5.428 -0.2337  0.0788 -0.0423
34654W        W77592  23.887  15.877   9.424  0.0945  0.1362  0.1015
34655W        W77593  26.454  15.732   6.023 -0.0161  0.2780 -0.0339
34656W        W77594  25.918  16.673   4.491 -0.0236 -0.1451 -0.2843
34657W        W77595  24.659  17.042   6.893  0.2484  0.1423  0.3091
34658W        W77596  27.341  14.864   4.809 -0.2077 -0.0367  0.0768
34659W        W77597  28.592  15.830   4.460  0.0812 -0.0031 -0.0264
34660W        W77598  28.696  17.205   5.784  0.4294  0.2079 -0.2289
34661W        W77599  29.028  17.198   4.356 -0.1513 -0.1158 -0.3354
34662W        W77600  28.561  15.469   3.935 -0.0429 -0.3397  0.1895
34663W        W77601  27.373  14.961   3.849 -0.1851 -0.1397 -0.1268
34664W        W77602  24.603  15.957   6.065  0.0491 -0.0809 -0.0904
34665W        W77603  28.748  17.202   3.462  0.1041 -0.2974 -0.1401
34666W        W77604  27.767  16.959   6.750 -0.3227  0.0112 -0.0976
34667W        W77605  27.631  15.834   4.885 -0.5290 -0.2086 -0.0599
34668W        W77606  28.655  17.518   3.877 -0.0319  0.1581  0.0528
34669W        W77607  24.454  17.535   3.733  0.2266  0.0089 -0.1306
34670W        W77608  26.382  16.712   7.333  0.3815  0.1881 -0.0907
34671W        W77609  29.242  16.742   5.175  0.1330  0.1085 -0.1439
34672W        W77610  26.624  15.217   4.335 -0.0511 -0.0538  0.4698
34673W        W77611  25.831  17.035   3.571 -0.0910  0.2736  0.0881
34674W        W77612  27.962  14.855   4.097 -0.0528  0.3339 -0.2932
34675W        W77613  24.460  18.206   3.207  0.3619 -0.0565  0.3690
34676W        W77614  27.445  15.909   5.720 -0.0568  0.0021  0.0420
34677W        W77615  27.433  16.133   5.287 -0.0676  0.1453  0.0615
34678W        W77616  26.415  14.946   5.996 -0.2621 -0.3723 -0.1074
34679W        W77617  29.879  14.512   7.341  0.0267 -0.1294  0.0463
34680W        W77618  28.782  16.559   3.707 -0.0870 -0.2405 -0.1408
34681W        W77619  28.000  17.354   5.696 -0.2937 -0.0839 -0.2188
34682W        W77620  26.091  16.242   3.735  0.2366  0.0729 -0.4019
34683W        W77621  28.238  13.935   6.203 -0.1950 -0.2575  0.1508
34684W        W77622  24.665  14.938   6.210 -0.3140 -0.1500 -0.1050
34685W        W77623  26.818  16.500   6.348 -0.0441 -0.2641 -0.0706
34686W        W77624  27.902  16.572   7.061  0.0631  0.0034  0.0743
34687W        W77625  27.519  16.437   3.638 -0.1241  0.2424 -0.1088
34688W        W77626  26.818  15.438   7.813  0.0669  0.2329 -0.1091
34689W        W77627  26.424  14.804   4.964  0.0174 -0.0069 -0.0579
34690W        W77628  26.329  17.925   4.326  0.1096 -0.2167 -0.1889
34691W        W77629  27.601  16.984   3.942  0.0636  0.1710 -0.0996
34692W        W77630  27.293  14.558   6.228 -0.0125  0.4769  0.1470
34693W        W77631  26.355  17.158   6.428  0.1135  0.0533 -0.4671
34694W        W77632  26.568  16.524   2.581 -0.1250 -0.1197  0.2014
34695W        W77633  28.367  17.066   5.366  0.1319  0.1363  0.1293
34696W        W77634  25.840  17.908   4.605 -0.1613  0.4139 -0.0580
34697W        W77635  28.368  14.592   5.399 -0.1789  0.0604 -0.2633
34698W        W77636  24.654  16.523   4.143 -0.2814 -0.4533 -0.2039
34699W        W77637  26.697  16.978   4.027  0.1725 -0.1507  0.1463
34700W        W77638  24.113  15.692   3.394 -0.1473 -0.0244  0.3578
34701W        W77639  29.333  15.006   5.172 -0.0568 -0.0606 -0.0548
34702W        W77640  30.106  18.236   4.509 -0.1832 -0.1342  0.2050
34703W        W77641  25.610  15.936   5.990  0.2517 -0.1809 -0.3062
34704W        W77642  28.585  14.773   5.831  0.1267 -0.1796  0.0187
34705W        W77643  26.200  16.797   6.057 -0.0898 -0.5411 -0.0926
34706W        W77644  27.954  17.474   6.808  0.0302 -0.0411  0.2119
34707W        W77645  27.752  15.289   4.951 -0.1260 -0.0939 -0.2055
34708W        W77646  27.804  17.266   5.211 -0.0843  0.2640 -0.1125
34709W        W77647  26.732  15.937   6.967  0.0780 -0.0368 -0.0225
34710W        W77648  24.690  15.135   2.705  0.2181  0.0579 -0.0589
34711W        W77649  30.080  16.592   5.895 -0.0794 -0.2733  0.0556
34712W        W77650  25.900  15.882   4.646 -0.2079  0.1361 -0.1223
34713W        W77651  24.775  15.036   5.738 -0.3878 -0.1647 -0.0378
34714W        W77652  27.660  17.418   6.395  0.4734  0.0638 -0.1198
34715W        W77653  24.586  15.829   3.561 -0.0508 -0.2125  0.0752
34716W        W77654  26.325  17.549   4.671  0.0559  0.2275 -0.3460
34717W        W77655  27.028  15.694   6.604  0.1298 -0.0102 -0.2458
34718W        W77656  28.843  16.235   6.905  0.1534 -0.0117 -0.1322
34719W        W77657  27.228  15.458   4.917  0.0379  0.0966 -0.1571
34720W        W77658  24.050  16.368   4.885  0.2029 -0.1902 -0.2958
34721W        W77659  28.356  16.851   5.876  0.1093  0.0501  0.0081
34722W        W77660  28.793  16.690   5.914 -0.3227 -0.0215  0.1873
34723W        W77661  27.509  15.326   6.626  0.3329  0.0866 -0.1354
34724W        W77662  25.885  16.003   6.498  0.1093  0.0148 -0.0478
34725W        W77663  27.706  14.512   5.980 -0.0614 -0.3610  0.2208
34726W        W77664  30.236  19.562   3.590  0.0266  0.0464 -0.0306
34727W        W77665  29.005  16.370   7.938 -0.1501 -0.3985  0.1008
34728W        W77666  24.613  17.714   3.244 -0.3165  0.4627  0.4112
34729W        W77667  25.043  16.616   5.493  0.0266  0.2611  0.0022
34730W        W77668  25.718  15.972   3.608 -0.0110 -0.0333 -0.0279
34731W        W77669  27.627  16.077   6.176 -0.2291 -0.0787  0.2094
34732W        W77670  24.650  16.801   5.771 -0.0719  0.1996  0.3554
34733W        W77671  24.765  17.238   3.372  0.1805 -0.1870 -0.1842
34734W        W77672  25.107  16.648   7.374  0.1332 -0.2611  0.2495
34735W        W77673  29.256  14.087   4.013  0.0946  0.0340  0.0440
34736W        W77674  27.766  17.570   3.326 -0.0909  0.1226  0.0539
34737W        W77675  26.806  16.482   4.891 -0.0147 -0.4162  0.0349
34738W        W77676  29.276  15.475   5.906  0.2641 -0.0449 -0.2795
34739W        W77677  28.511  16.302   4.141 -0.1625  0.2119 -0.1947
34740W        W77678  27.414  16.401   5.712 -0.2431  0.0756  0.1040
34741W        W77679  25.967  15.454   4.894  0.0300 -0.0488  0.0426
34742W        W77680  29.102  17.626   4.113  0.0881 -0.0086 -0.1128
34743W        W77681  25.972  14.624   6.122 -0.4178  0.0527  0.0452
34744W        W77682  28.754  19.028   7.429 -0.3297  0.0265 -0.0042
34745W        W77683  25.371  16.078   6.452  0.0654  0.2369 -0.3822
34746W        W77684  27.545  14.733   4.358  0.0069 -0.4219  0.2325
34747W        W77685  25.797  16.102   4.096 -0.0210 -0.0297  0.1528
34748W        W77686  25.464  16.978   6.489  0.1433  0.1022  0.2820
34749W        W77687  28.624  18.329   4.770 -0.0260 -0.0609 -0.1403
34750W        W77688  25.078  18.411   3.169 -0.0553 -0.3078  0.0709
34751W        W77689  28.347  15.573   5.326 -0.1083 -0.1420 -0.0706
34752W        W77690  25.551  16.952   5.984 -0.4310 -0.2138  0.2496
34753W        W77691  28.683  17.068   4.067 -0.0120 -0.2669  0.1658
34754W        W77692  27.265  17.380   3.537 -0.1170  0.0730  0.1759
34755W        W77693  25.496  17.219   5.169  0.1277  0.1175  0.0187
34756W        W77694  26.555  16.007   4.725 -0.0890  0.0941 -0.0359
34757W        W77695  28.832  17.095   5.299 -0.2358  0.2019 -0.4868
34758W        W77696  27.659  17.298   4.378 -0.1971 -0.0131  0.0931
34759W        W77697  28.385  16.380   5.724  0.2081 -0.0288  0.0394
34760W        W77698  27.850  15.612   6.335 -0.1359 -0.2167  0.1074
34761W        W77699  26.479  15.750   7.577  0.0131  0.2507 -0.2903
34762W        W77700  25.938  15.570   6.265 -0.2676 -0.4358 -0.1000
34763W        W77701  29.703  17.123   7.315 -0.1577  0.2800  0.1204
34764W        W77702  27.859  16.224   5.034  0.0597 -0.2014  0.1610
34765W        W77703  29.744  14.965   4.872 -0.4097 -0.2813  0.0673
34766W        W77704  28.963  16.433   4.573  0.3333  0.0084 -0.0181
34767W        W77705  27.940  15.795   5.265  0.3874  0.0806 -0.1717
34768W        W77706  26.124  15.084   3.494 -0.3024 -0.4415 -0.2055
34769W        W77707  27.618  16.428   7.771 -0.0412 -0.1499 -0.1411
34770W        W77708  27.242  15.202   4.504  0.0409  0.2322 -0.0755
34771W        W77709  28.395  15.575   6.271 -0.2616  0.1794 -0.1617
34772W        W77710  26.729  16.996   4.821  0.2255  0.2367 -0.3116
34773W        W77711  29.517  16.345   3.943  0.1806 -0.2000  0.1326
34774W        W77712  27.335  16.095   4.034  0.0721  0.1755  0.1476
34775W        W77713  25.805  14.387   6.539 -0.1787 -0.2462 -0.2512
34776W        W77714  26.097  16.484   6.923  0.3042  0.0955 -0.3235
34777W        W77715  26.265  17.156   4.281 -0.1071 -0.0872  0.3571
34778W        W77716  27.287  16.633   4.109 -0.2400  0.2787 -0.0058
34779W        W77717  26.787  17.018   6.175 -0.1160  0.0407  0.1730
34780W        W77718  29.122  16.337   7.456  0.2390 -0.2342 -0.1085
34781W        W77719  26.940  15.266   5.295  0.1113 -0.0319  0.0579
34782W        W77720  28.495  16.069   6.517  0.1168 -0.2369  0.0086
34783W        W77721  26.021  17.565   4.256 -0.0868  0.1540 -0.1378
34784W        W77722  27.983  14.120   5.843  0.2089  0.2869  0.0694
34785W        W77723  25.512  17.802   5.469  0.2968 -0.0771 -0.0617
34786W        W77724  25.928  16.378   7.427 -0.1390  0.2185  0.3395
34787W        W77725  28.113  18.229   4.953 -0.1400 -0.0266 -0.0505
34788W        W77726  27.375  14.812   5.787  0.2650 -0.0912 -0.1710
34789W        W77727  28.878  16.821   4.844 -0.0826  0.0738 -0.0032
34790W        W77728  27.329  16.583   4.871  0.0619 -0.1345 -0.0180
34791W        W77729  29.391  16.248   7.033 -0.0731  0.2635 -0.0767
34792W        W77730  28.004  17.084   7.165  0.0937 -0.2869 -0.2062
34793W        W77731  26.886  17.134   5.541 -0.2735  0.0068  0.1275
34794W        W77732  27.386  17.201   6.991 -0.1671 -0.0060 -0.1908
34795W        W77733  27.576  17.668   5.997 -0.4229 -0.1853 -0.2560
34796W        W77734  27.886  16.480   6.127 -0.1152  0.3796 -0.0709
34797W        W77735  25.419  14.343   7.859 -0.0817  0.2136  0.1850
34798W        W77736  29.054  15.886   6.676 -0.1037 -0.0383  0.2693
34799W        W77737  28.512  16.290   4.801  0.0364  0.2679 -0.3425
34800W        W77738  25.924  14.709   3.203  0.0921  0.1211 -0.0709
34801W        W77739  27.185  16.949   4.496 -0.0727 -0.1915  0.3525
34802W        W77740  26.045  15.469   8.193  0.0233 -0.0559  0.1011
34803W        W77741  25.321  16.456   6.191 -0.1018  0.3188 -0.1307
34804W        W77742  26.328  17.982   3.506  0.1378 -0.2132 -0.5598
34805W        W77743  27.196  18.303   3.385  0.3950 -0.0500  0.3077
34806W        W77744  27.139  16.389   2.645 -0.1722 -0.0871 -0.2749
34807W        W77745  26.942  17.418   6.478 -0.1818 -0.2397 -0.0526
34808W        W77746  26.070  16.625   3.289 -0.0681  0.0087  0.1393
34809W        W77747  26.441  16.692   4.400 -0.2639  0.1351  0.1858
34810W        W77748  25.241  18.159   2.749  0.0848 -0.0941 -0.1514
34811W        W77749  26.326  17.690   3.912 -0.3238  0.2640  0.2230
34812W        W77750  26.838  18.436   4.867  0.1143  0.1998 -0.0724
34813W        W77751  28.561  17.288   7.215  0.0647  0.0869 -0.1606
34814W        W77752  28.105  14.820   5.785 -0.0569 -0.2541 -0.0463
34815W        W77753  29.200  17.208   4.974  0.3270 -0.2803 -0.0215
34816W        W77754  28.597  16.568   5.306  0.2858 -0.0966 -0.0115
34817W        W77755  28.291  16.997   6.753 -0.5876 -0.3818  0.1137
34818W        W77756  27.326  16.464   6.176 -0.2229 -0.0193  0.0172
34819W        W77757  27.297  15.785   4.437 -0.0654  0.2514  0.0210
34820W        W77758  25.642  15.163   8.258  0.0043  0.0383 -0.0800
34821W        W77759  28.922  14.278   7.041  0.4951 -0.3039 -0.2604
34822W        W77760  25.100  16.929   5.843  0.2683 -0.2690 -0.0222
34823W        W77761  29.270  16.662   3.656  0.0251  0.0998 -0.2773
34824W        W77762  25.597  15.509   2.858  0.0416  0.1218  0.1210
34825W        W77763  25.447  16.934   4.662  0.0933 -0.1764 -0.1187
34826W        W77764  28.600  15.105   6.352  0.1898 -0.0389 -0.2325
34827W        W77765  26.554  17.722   2.901  0.0697  0.1955 -0.0829
34828W        W77766  27.526  15.500   5.400 -0.1399  0.1682 -0.1023
34829W        W77767  27.731  17.734   5.349  0.1179  0.2623  0.0918
34830W        W77768  25.121  17.371   4.291  0.0546  0.0319  0.0009
34831W        W77769  27.586  18.530   6.752 -0.0376 -0.1585  0.0302
34832W        W77770  23.913  13.751   4.544  0.2397 -0.4722  0.3445
34833W        W77771  28.106  15.735   5.742 -0.3683 -0.0244 -0.1552
34834W        W77772  26.916  16.305   5.850 -0.0534  0.0729  0.0540
34835W        W77773  29.360  15.991   5.226 -0.3103  0.1589 -0.0029
34836W        W77774  26.157  16.433   4.859  0.1607  0.0507  0.0097
34837W        W77775  28.091  16.640   5.326 -0.0886  0.0067  0.0159
34838W        W77776  27.222  17.673   5.450  0.0261  0.2530  0.1900
34839W        W77777  26.079  15.648   5.745  0.0505 -0.1865  0.3664
34840W        W77778  27.843  16.772   2.961 -0.1706 -0.1713 -0.0751
34841W        W77779  28.879  15.714   6.257 -0.1351  0.0690  0.0134
34842W        W77780  26.488  16.235   2.143  0.0458 -0.1523  0.0080
34843W        W77781  30.748  17.473   6.772  0.4019 -0.1476 -0.1681
34844W        W77782  24.782  15.673   5.124  0.0316 -0.0685  0.2545
34845W        W77783  29.026  15.422   4.747 -0.1632 -0.1364 -0.0372
34846W        W77784  24.671  16.824   3.735 -0.1959 -0.0519  0.1230
34847W        W77785  26.376  15.542   4.684 -0.0489 -0.1561  0.0364
34848W        W77786  28.832  17.047   6.823  0.0476  0.0104  0.1417
34849W        W77787  24.857  14.954   3.950  0.0263 -0.1448  0.0064
34850W        W77788  29.040  16.887   2.710  0.0566  0.1237 -0.0349
34851W        W77789  30.047  16.776   5.392  0.1969 -0.0429 -0.2704
34852W        W77790  26.744  18.437   2.626 -0.0209 -0.1783 -0.0876
34853W        W77791  28.323  16.176   5.281  0.3803 -0.0165  0.2214
34854W        W77792  28.511  17.941   5.698  0.6655  0.0083 -0.1789
34855W        W77793  24.147  15.890   6.280  0.0313 -0.1581 -0.0462
34856W        W77794  25.666  17.713   6.428 -0.2190 -0.0848  0.2346
34857W        W77795  30.078  16.829   7.237  0.0723 -0.3421  0.1656
34858W        W77796  26.882  14.942   4.006 -0.1325  0.3181  0.2172
34859W        W77797  28.862  16.736   7.262  0.2689  0.0338  0.0512
34860W        W77798  27.028  16.793   5.223 -0.0073 -0.0145  0.1996
34861W        W77799  28.236  15.005   5.046  0.1889  0.2552 -0.1637
34862W        W77800  28.698  15.438   6.691  0.2495  0.2415  0.0013
34863W        W77801  26.709  17.511   4.256  0.1216  0.1631  0.0547
34864W        W77802  29.385  14.359   7.420 -0.1804 -0.1211  0.0251
34865W        W77803  26.881  18.162   5.546  0.1904  0.3147 -0.0612
34866W        W77804  27.177  17.688   6.965  0.1310  0.0859  0.3121
34867W        W77805  24.305  15.806   3.956 -0.0523 -0.0291 -0.3564
34868W        W77806  27.049  17.383   5.915 -0.3450  0.2907  0.1520
34869W        W77807  26.797  17.928   3.970  0.1183 -0.1871  0.0716
34870W        W77808  24.538  17.152   4.075  0.1231  0.1678 -0.3634
34871W        W77809  29.639  16.864   6.860  0.0752 -0.0482  0.1186
34872W        W77810  26.928  15.854   4.117  0.1925 -0.5292 -0.2404
34873W        W77811  28.273  17.822   4.103 -0.1179  0.0404  0.0910
34874W        W77812  26.836  15.622   4.524 -0.2153 -0.1564  0.1152
34875W        W77813  28.590  16.216   3.281 -0.0488 -0.0568  0.0703
34876W        W77814  29.306  14.495   6.435  0.2904  0.0534  0.1427
34877W        W77815  25.906  16.354   6.080  0.1141  0.0486 -0.1499
34878W        W77816  23.641  15.516   4.179 -0.2243 -0.1144 -0.0171
34879W        W77817  24.966  16.927   2.445 -0.0817 -0.3807  0.1013
34880W        W77818  26.588  15.955   6.467 -0.1852  0.0847 -0.0489
34881W        W77819  26.363  14.222   6.126  0.0501 -0.0044  0.0852
34882W        W77820  26.461  15.448   6.582 -0.2682  0.1491 -0.0329
34883W        W77821  24.469  16.414   5.540 -0.1503  0.2690 -0.2077
34884W        W77822  25.492  15.397   4.679 -0.2156  0.2087  0.0763
34885W        W77823  30.507  16.979   2.484 -0.1438 -0.0671  0.2368
34886W        W77824  25.650  14.995   5.193 -0.2231  0.0305  0.0896
34887W        W77825  24.621  13.802   5.629 -0.0734  0.4312  0.2014
34888W        W77826  28.712  17.486   4.942  0.2355  0.1378 -0.1729
34889W        W77827  27.798  16.191   3.228 -0.0384  0.3399  0.0701
34890W        W77828  26.477  16.292   5.398  0.0851  0.2576  0.0569
34891W        W77829  28.738  16.863   8.052 -0.1850  0.1484 -0.1152
34892W        W77830  24.037  14.972   3.604 -0.0196  0.1277  0.1721
34893W        W77831  27.301  15.499   7.606  0.0193 -0.0995 -0.1278
34894W        W77832  27.083  14.721   6.623 -0.0439 -0.0275 -0.1265
34895W        W77833  25.155  15.241   2.910  0.1950  0.0026 -0.0571
34896W        W77834  28.523  17.094   6.295  0.0332  0.2356 -0.1903
34897W        W77835  27.434  17.063   4.906  0.0685 -0.2063 -0.2365
34898W        W77836  28.337  18.184   4.445  0.1345  0.0071  0.2621
34899W        W77837  27.477  16.742   5.295 -0.2930 -0.0242 -0.1722
34900W        W77838  25.364  17.999   5.994  0.2167  0.2016 -0.0284
34901W        W77839  25.843  15.395   5.357 -0.0655  0.2286 -0.2943
34902W        W77840  29.578  17.263   4.600  0.4302  0.1871  0.2350
34903W        W77841  27.486  16.957   6.394  0.1736  0.1044  0.1312
34904W        W77842  28.819  17.902   4.366 -0.1230  0.1841 -0.2043
34905W        W77843  29.773  15.264   5.248 -0.0084  0.0959 -0.2063
34906W        W77844  26.985  16.301   5.341  0.0804 -0.0581  0.2269
34907W        W77845  26.873  14.849   7.169 -0.1337 -0.0219  0.0373
34908W        W77846  25.677  16.373   8.315 -0.4966 -0.1312 -0.2388
34909W        W77847  28.957  16.815   6.382  0.1621 -0.1658 -0.2129
34910W        W77848  26.034  14.028   4.847  0.1328 -0.0077 -0.1064
34911W        W77849  27.022  15.801   5.905 -0.0604  0.3988 -0.0245
34912W        W77850  26.938  16.931   3.271  0.0844 -0.1114  0.0729
34913W        W77851  25.993  17.171   5.506  0.2360  0.3897 -0.1346
34914W        W77852  26.474  14.612   3.951 -0.0242 -0.0580 -0.1050
34915W        W77853  27.409  16.542   7.120 -0.0404  0.0241 -0.2366
34916W        W77854  27.127  16.681   6.706  0.1485  0.2893  0.1838
34917W        W77855  28.566  16.618   6.675  0.0852  0.0770  0.1257
34918W        W77856  26.792  15.174   4.805  0.0369 -0.0533  0.2690
34919W        W77857  29.046  16.716   3.198 -0.0616 -0.1567  0.0456
34920W        W77858  27.565  16.498   6.636  0.2922  0.0279 -0.3262
34921W        W77859  28.913  17.811   6.497  0.0523 -0.1050 -0.0367
34922W        W77860  28.389  18.003   6.470 -0.0389  0.1276  0.0389
34923W        W77861  28.925  16.266   6.330 -0.1242  0.0613 -0.1396
34924W        W77862  25.525  15.409   5.725  0.0868  0.3199  0.0360
34925W        W77863  26.159  17.869   6.252  0.0926 -0.0522  0.0970
34926W        W77864  25.783  17.680   5.870 -0.0009  0.2858  0.0682
34927W        W77865  28.203  16.064   6.121 -0.0052 -0.2940  0.2442
34928W        W77866  26.181  15.088   3.988 -0.0359  0.2862 -0.3858
34929W        W77867  28.510  15.149   5.486  0.1944 -0.0440 -0.0206
34930W        W77868  27.514  17.208   5.913  0.0255 -0.2292  0.1879
34931W        W77869  28.294  17.760   5.215 -0.1522 -0.0167  0.0198
34932W        W77870  27.332  18.105   9.629 -0.2172  0.0880  0.0322
34933W        W77871  26.522  16.177   8.910  0.1196 -0.0618 -0.5321
34934W        W77872  28.932  15.870   8.666  0.1575  0.0160  0.0270
34935W        W77873  28.308  17.510   8.652 -0.1103  0.1228  0.0539
34936W        W77874  26.163  14.223  10.491  0.2463 -0.0592  0.2492
34937W        W77875  29.378  17.647   6.677 -0.2023  0.0758 -0.0723
34938W        W77876  28.166  17.803   7.896  0.0496 -0.0664 -0.0701
34939W        W77877  31.129  23.183  12.222  0.0338 -0.1234 -0.1200
34940W        W77878  28.166  15.295   6.654 -0.2131  0.0726 -0.2813
34941W        W77879  27.863  15.802  10.707  0.1538 -0.2859 -0.1301
34942W        W77880  25.488  14.741   8.538  0.0134  0.1351 -0.1030
34943W        W77881  25.866  14.820  11.183  0.2549  0.1406  0.3591
34944W        W77882  27.773  17.265  10.312  0.1705 -0.0754  0.0406
34945W        W77883  25.661  15.397   7.267 -0.1404 -0.1257  0.0112
34946W        W77884  26.038  15.979   9.155 -0.0498 -0.0417  0.0663
34947W        W77885  27.308  15.737   7.070  0.0859  0.0036 -0.0834
34948W        W77886  27.253  16.829   8.598 -0.0062  0.1251  0.2273
34949W        W77887  26.917  17.483  12.280 -0.1212 -0.3785 -0.2942
34950W        W77888  27.288  16.281   8.123  0.2148  0.4143  0.2566
34951W        W77889  26.118  14.801   7.347  0.1168 -0.3258  0.0271
34952W        W77890  25.130  15.228   9.247  0.0142  0.1753 -0.0698
34953W        W77891  26.368  17.121  10.269  0.0029  0.0390 -0.3075
34954W        W77892  27.801  15.636   8.043 -0.0499 -0.2067 -0.0307
34955W        W77893  28.266  15.998   7.956  0.2379  0.2312 -0.0351
34956W        W77894  26.517  17.438   8.971  0.5250  0.1518  0.0377
34957W        W77895  27.780  17.269   9.431  0.3587 -0.0117  0.3142
34958W        W77896  25.934  15.808   7.724 -0.1565 -0.1577  0.3310
34959W        W77897  25.555  17.448   9.686  0.0016  0.2358  0.1997
34960W        W77898  28.102  16.480   7.905 -0.1126  0.0763 -0.0873
34961W        W77899  30.489  17.279   9.305  0.0932  0.2606 -0.0641
34962W        W77900  26.540  17.839   9.411  0.1110  0.0500  0.1476
34963W        W77901  27.243  15.466   9.794  0.0593  0.2079 -0.1281
34964W        W77902  29.112  16.348   8.548  0.0529 -0.1794  0.1103
34965W        W77903  27.581  17.023   7.468  0.2316  0.1302 -0.1497
34966W        W77904  27.296  17.338   8.635  0.2413  0.0216 -0.3737
34967W        W77905  25.478  16.029   9.229 -0.0972 -0.1236  0.1687
34968W        W77906  26.287  17.550   8.541 -0.0336 -0.1390 -0.2097
34969W        W77907  28.992  15.411   8.096 -0.0584 -0.1144 -0.0090
34970W        W77908  26.357  15.278   7.876  0.0346  0.1241  0.1374
34971W        W77909  27.867  15.440   9.102 -0.6625  0.2372 -0.2978
34972W        W77910  27.142  14.733   8.376  0.1970 -0.0474  0.2347
34973W        W77911  26.105  17.992   9.815 -0.0521 -0.2287 -0.4752
34974W        W77912  27.792  15.420   9.678  0.0962  0.0042 -0.5365
34975W        W77913  28.024  16.213   7.439  0.2578 -0.0946  0.2175
34976W        W77914  28.711  15.291  10.802 -0.1017 -0.0057  0.3374
34977W        W77915  27.036  18.200   9.219  0.0746 -0.1948  0.1694
34978W        W77916  26.578  15.963   9.369 -0.0318 -0.1942 -0.1096
34979W        W77917  29.157  16.924   7.585 -0.1628  0.3660 -0.0262
34980W        W77918  29.647  17.997   8.242 -0.0714 -0.0357 -0.2020
34981W        W77919  28.051  17.341   7.591 -0.0333  0.1469 -0.3888
34982W        W77920  25.865  15.601   6.807 -0.3176 -0.0072  0.0184
34983W        W77921  26.074  14.670   6.860  0.1739 -0.0572 -0.2892
34984W        W77922  28.725  14.486   9.631  0.1114 -0.0643 -0.1488
34985W        W77923  25.893  16.675   8.996 -0.0306  0.0768  0.0618
34986W        W77924  29.180  17.397   8.030  0.2232  0.0804 -0.2566
34987W        W77925  27.953  16.734   7.511  0.0976 -0.0954 -0.2204
34988W        W77926  28.755  15.037   8.870 -0.0492 -0.1984 -0.0503
34989W        W77927  28.498  15.016   8.388  0.3564 -0.3776 -0.0255
34990W        W77928  25.705  16.485   6.540  0.0593 -0.0925 -0.0157
34991W        W77929  25.988  17.398   7.389 -0.2984  0.1356 -0.1721
34992W        W77930  30.217  17.982   9.862 -0.1983 -0.1654 -0.0723
34993W        W77931  28.322  15.159   9.083 -0.1095  0.0852 -0.0407
34994W        W77932  26.591  18.423   9.039  0.2243  0.1196  0.2017
34995W        W77933  26.680  18.009   8.797 -0.1754  0.2266  0.0639
34996W        W77934  26.300  17.054   9.656  0.2747 -0.2026 -0.0488
34997W        W77935  26.434  16.176   7.282 -0.1170 -0.0508 -0.1216
34998W        W77936  26.847  16.132  10.191 -0.2653 -0.1232  0.2801
34999W        W77937  28.034  17.435   9.871 -0.0222  0.2238 -0.5034
35000W        W77938  28.132  15.950   8.964  0.0751 -0.0366 -0.0957
35001W        W77939  29.228  16.536  10.124  0.0775 -0.1361 -0.1925
35002W        W77940  26.134  16.434   8.641 -0.0024  0.0925  0.0991
35003W        W77941  29.625  19.153   8.678  0.2364  0.0086  0.4044
35004W        W77942  28.164  16.498   9.449  0.2604 -0.1514 -0.0917
35005W        W77943  28.455  18.850   7.058  0.0928 -0.2629 -0.1927
35006W        W77944  24.035  14.482  10.286 -0.2453  0.0542  0.0934
35007W        W77945  26.312  15.772   8.669  0.2644 -0.1257  0.0146
35008W        W77946  25.953  15.328   8.635 -0.2378 -0.0737 -0.1867
35009W        W77947  25.507  13.643   7.494  0.1466  0.1219 -0.2233
35010W        W77948  28.930  15.794  10.584  0.0425  0.3115 -0.1340
35011W        W77949  27.739  16.601   8.500 -0.0743 -0.0656  0.1639
35012W        W77950  26.395  15.586   7.123 -0.3383 -0.2698  0.2943
35013W        W77951  29.513  17.709   7.830  0.0713 -0.0639  0.2766
35014W        W77952  28.651  18.933   9.267  0.0355  0.1187 -0.1282
35015W        W77953  28.402  18.638   7.486 -0.1215  0.0719  0.1495
35016W        W77954  25.246  16.179  10.238 -0.0015 -0.0806  0.0053
35017W        W77955  26.504  14.693   7.617 -0.0589 -0.0007 -0.0492
35018W        W77956  26.686  16.855   9.392 -0.1960  0.0199  0.0787
35019W        W77957  28.627  17.616   8.081 -0.1131  0.1762  0.3007
35020W        W77958  26.470  15.345   8.426  0.7046  0.1825  0.0461
35021W        W77959  31.003  17.537   8.947  0.2152 -0.1074 -0.2072
35022W        W77960  28.375  16.634   7.204 -0.5246  0.4314 -0.1527
35023W        W77961  28.661  16.392   9.341 -0.0440  0.2475  0.0264
35024W        W77962  26.515  16.226   9.765  0.3074 -0.1523  0.1649
35025W        W77963  26.951  14.511   8.864  0.2980  0.1684  0.1515
35026W        W77964  28.595  18.428   8.723  0.3885  0.0028 -0.0234
35027W        W77965  25.615  17.223   6.986 -0.0805 -0.0863 -0.1055
35028W        W77966  26.126  15.156   9.700  0.0658  0.0281  0.1975
35029W        W77967  26.839  17.564   8.580 -0.1231 -0.0783  0.0001
35030W        W77968  27.423  16.201  10.299  0.2435  0.0442 -0.2248
35031W        W77969  25.967  14.886   7.821 -0.0996  0.1138  0.1339
35032W        W77970  27.885  14.691   7.139 -0.2451 -0.0109  0.1265
35033W        W77971  29.258  16.423   6.015 -0.0890 -0.2326  0.0161
35034W        W77972  28.838  19.134  10.023 -0.1740  0.1484  0.2512
35035W        W77973  28.287  15.730   6.733 -0.0971 -0.1278 -0.2620
35036W        W77974  27.685  16.132   7.047  0.1773 -0.0944 -0.2826
35037W        W77975  27.656  17.159   8.376 -0.0180  0.0407 -0.1191
35038W        W77976  26.960  16.138   8.506  0.3135  0.2394 -0.0070
35039W        W77977  26.552  15.189   7.434  0.1408  0.3090 -0.2063
35040W        W77978  30.571  17.486   7.371  0.0403 -0.3592 -0.0144
35041W        W77979  26.902  17.312   9.443  0.0744 -0.3190 -0.1071
35042W        W77980  27.905  18.485   9.267  0.3755 -0.2692 -0.1436
35043W        W77981  26.509  13.245   9.294 -0.0124  0.0049  0.3347
35044W        W77982  25.715  14.645   8.136  0.1445  0.0175  0.1270
35045W        W77983  27.597  15.965   8.914 -0.0719 -0.1670  0.0019
35046W        W77984  24.746  18.243   7.681  0.0862  0.2496 -0.1983
35047W        W77985  27.975  16.511   9.916 -0.1723  0.0821  0.2414
35048W        W77986  27.014  14.997   9.059 -0.1554 -0.0857 -0.3919
35049W        W77987  29.971  16.643   9.857  0.0199  0.2882 -0.1248
35050W        W77988  27.433  16.457   9.873 -0.0363 -0.0460 -0.0203
35051W        W77989  25.177  14.759   8.121 -0.3937  0.1005  0.0455
35052W        W77990  27.642  16.860   8.921  0.2964  0.1256  0.0313
35053W        W77991  25.585  18.366   9.167  0.0144  0.0408  0.1736
35054W        W77992  26.164  17.493   9.471  0.0470 -0.1047  0.2437
35055W        W77993  27.680  15.924   7.641  0.2377  0.2685  0.3599
35056W        W77994  27.893  17.909   7.501  0.0483  0.0322 -0.1176
35057W        W77995  26.107  15.345   7.488  0.0239 -0.0700  0.1343
35058W        W77996  27.788  15.695  10.136  0.1974 -0.0324  0.6879
35059W        W77997  28.253  18.548   8.328  0.0301  0.1260 -0.1521
35060W        W77998  27.141  16.188   6.820 -0.1090  0.0285  0.0130
35061W        W77999  28.152  16.400   8.747 -0.3873  0.2983  0.0266
35062W        W78000  27.282  16.902   8.102  0.2345  0.0726  0.0225
35063W        W78001  27.860  14.949   9.261  0.0949  0.3719  0.0640
35064W        W78002  26.525  18.000  10.050  0.0350 -0.1398 -0.2220
35065W        W78003  27.168  16.749   9.167 -0.2643  0.0064  0.0866
35066W        W78004  25.207  14.717   7.008 -0.3196  0.0067 -0.0250
35067W        W78005  29.224  15.671  10.029 -0.1942 -0.0443  0.2002
35068W        W78006  29.519  16.346   7.807  0.1523 -0.2628 -0.0846
35069W        W78007  25.891  15.637   9.986 -0.0956 -0.0832  0.0788
35070W        W78008  25.872  14.145   8.079  0.1596 -0.2208  0.1641
35071W        W78009  26.873  17.107   9.879 -0.2206 -0.0252 -0.0966
35072W        W78010  29.398  14.629   8.265  0.4097 -0.1839  0.0567
35073W        W78011  25.867  13.985   7.572 -0.3126 -0.2790  0.4616
35074W        W78012  27.698  16.684   9.516 -0.1102  0.0763 -0.2507
35075W        W78013  24.979  15.662   8.764 -0.0728  0.1858  0.4802
35076W        W78014  26.188  14.973   8.298  0.1224 -0.1881  0.1275
35077W        W78015  27.313  17.338  10.049 -0.0857  0.3432  0.1155
35078W        W78016  26.427  15.767   8.107 -0.1774  0.1407 -0.0450
35079W        W78017  28.047  17.003   8.646 -0.0948  0.2534 -0.1438
35080W        W78018  26.785  15.719   9.877  0.0214 -0.0342 -0.0870
35081W        W78019  27.780  16.967   9.949  0.0655 -0.0642 -0.1377
35082W        W78020  27.467  15.771   9.427  0.0498  0.0764 -0.1288
35083W        W78021  25.810  15.603   9.428 -0.0097 -0.0371  0.4212
35084W        W78022  27.741  16.161   8.243 -0.0831 -0.2650 -0.1504
35085W        W78023  28.600  17.337   9.804  0.1349 -0.1616 -0.0913
35086W        W78024  26.034  13.682  10.138  0.0575  0.1117 -0.2192
35087W        W78025  30.359  17.953   7.681 -0.1325 -0.3039  0.0513
35088W        W78026  25.935  15.100   7.004  0.3016  0.0887 -0.2864
35089W        W78027  26.442  16.683   8.969  0.0296  0.0131 -0.1083
35090W        W78028  26.863  17.091   8.962 -0.1819  0.0020  0.2844
35091W        W78029  27.431  15.928   9.903 -0.0950  0.1567 -0.0544
35092W        W78030  26.848  16.398   9.236  0.0291  0.0522  0.2922
35093W        W78031  26.302  16.814   8.241 -0.3178  0.1975 -0.1830
35094W        W78032  22.522  19.410  10.351  0.1828 -0.0875 -0.1341
35095W        W78033  28.703  14.622   8.136 -0.2377  0.0972  0.0122
35096W        W78034  28.756  17.264   7.685  0.1743  0.3513  0.1091
35097W        W78035  28.076  15.049  10.020 -0.1997  0.1791 -0.0732
35098W        W78036  28.632  15.899   9.113  0.1416  0.0150  0.1936
35099W        W78037  27.188  14.821   9.987  0.0041 -0.2195 -0.1645
35100W        W78038  28.567  16.512   7.781 -0.3264 -0.0216 -0.2305
35101W        W78039  28.700  15.563   7.712  0.1550 -0.0355  0.2374
35102W        W78040  25.402  14.201   7.376  0.2849 -0.0388  0.1603
35103W        W78041  25.097  17.170  10.365  0.2427  0.0540 -0.1380
35104W        W78042  29.449  16.933   9.777 -0.0827 -0.0995 -0.0311
35105W        W78043  27.203  16.716   7.628 -0.1971  0.0286 -0.1191
35106W        W78044  28.918  15.850   9.648  0.1678 -0.2288  0.0409
35107W        W78045  27.334  17.261   9.148 -0.0416  0.0208 -0.1040
35108W        W78046  28.258  16.978   7.875 -0.0434 -0.2648 -0.1024
35109W        W78047  26.277  16.226   7.820 -0.1110 -0.0637 -0.0325
35110W        W78048  25.717  16.579   9.480 -0.1601 -0.1617 -0.0497
35111W        W78049  31.584  17.505  10.593 -0.0382 -0.1911  0.0960
35112W        W78050  27.810  16.409   9.054  0.1219  0.1061 -0.1713
35113W        W78051  28.344  17.603  10.302 -0.1481  0.0662 -0.2047
35114W        W78052  30.097  15.905   6.995 -0.3829 -0.0571 -0.1835
35115W        W78053  29.714  15.687  10.352 -0.1015 -0.0571  0.1099
35116W        W78054  28.637  15.483   9.362 -0.2729 -0.1750 -0.0138
35117W        W78055  28.312  16.203   6.962  0.1942 -0.1606  0.0138
35118W        W78056  25.202  15.217   7.950  0.0066 -0.1289  0.4505
35119W        W78057  27.323  15.779   8.039 -0.1412  0.0909  0.0620
35120W        W78058  26.806  17.049   7.864 -0.2711 -0.0263  0.1893
35121W        W78059  28.517  17.187   8.410  0.1344 -0.3904 -0.1908
35122W        W78060  27.799  15.612   6.920 -0.0061 -0.3989  0.0551
35123W        W78061  25.777  16.065  10.154 -0.0682  0.0679  0.1154
35124W        W78062  26.811  15.465   6.231  0.1381  0.1904  0.1658
35125W        W78063  26.039  16.026   8.268  0.2609  0.1374  0.4125
35126W        W78064  28.083  16.908   9.177 -0.3449 -0.3081 -0.2476
35127W        W78065  26.701  14.415   6.912 -0.2133 -0.2708  0.0600
35128W        W78066  24.874  15.655   7.813  0.1553 -0.1726  0.0885
35129W        W78067  28.662  16.376   8.342  0.0339 -0.0278  0.0557
35130W        W78068  26.217  17.848   9.023 -0.1093 -0.2340 -0.0284
35131W        W78069  25.942  17.394   8.860  0.3097 -0.1453 -0.3304
35132W        W78070  27.006  15.093   9.618 -0.2050 -0.4283 -0.3062
35133W        W78071  28.311  16.755   8.321  0.0754  0.0983 -0.2452
35134W        W78072  26.806  16.545   8.210  0.2147 -0.0116  0.0826
35135W        W78073  26.968  15.225  10.204 -0.0764 -0.0095  0.0327
35136W        W78074  29.120  16.274   9.093  0.1734  0.1109  0.0435
35137W        W78075  26.969  17.659   9.073  0.3562 -0.0016 -0.2240
35138W        W78076  28.402  16.031   9.799  0.0588  0.3637 -0.0299
35139W        W78077  26.831  14.379   7.350 -0.3073  0.1220  0.0313
35140W        W78078  28.121  17.509   6.248 -0.3008 -0.0816  0.2813
35141W        W78079  25.468  15.330   9.682  0.3438  0.1953  0.0674
35142W        W78080  27.012  17.927   7.955  0.2822 -0.0767 -0.0430
35143W        W78081  30.201  17.318   7.671  0.0325 -0.1425 -0.0844
35144W        W78082  28.947  17.715   9.024 -0.0400  0.0904 -0.1153
35145W        W78083  30.176  16.669  10.298  0.2091  0.2527  0.0975
35146W        W78084  28.736  15.883   8.154  0.2439  0.2826 -0.1452
35147W        W78085  25.742  17.147   9.254  0.2571 -0.3067 -0.1698
35148W        W78086  24.335  17.498   7.062 -0.2028 -0.1479  0.0583
35149W        W78087  27.220  17.385   7.486 -0.2233  0.0051 -0.1179
35150W        W78088  25.469  15.653   8.491  0.1425 -0.1411 -0.0955
35151W        W78089  28.390  14.611   7.205  0.2089 -0.1135 -0.1307
35152W        W78090  29.727  16.959   8.946 -0.2599 -0.0508  0.0125
35153W        W78091  30.094  15.888   9.075  0.0855 -0.2552  0.0063
35154W        W78092  26.956  14.648   9.378 -0.1283  0.0232 -0.1241
35155W        W78093  27.478  15.869   6.624  0.2317  0.3541 -0.2451
35156W        W78094  29.490  17.619   7.185 -0.0586  0.1031 -0.0138
35157W        W78095  25.507  14.001   6.505 -0.1386  0.2423  0.3087
35158W        W78096  26.250  17.057   9.166 -0.1302  0.1886 -0.1662
35159W        W78097  30.991  18.462   9.656 -0.2087 -0.2476  0.0529
35160W        W78098  26.837  17.006   8.373 -0.0800  0.0544  0.2370
35161W        W78099  28.137  16.542  10.478 -0.1937  0.0872 -0.2498
35162W        W78100  27.663  20.139   9.138 -0.1515  0.1457  0.0198
35163W        W78101  27.405  17.734   8.897  0.2050  0.3495 -0.1179
35164W        W78102  28.485  16.559   9.843 -0.1494  0.1296  0.0196
35165W        W78103  24.514  15.612   8.131  0.1487  0.0111  0.0915
35166W        W78104  28.600  14.905   9.925  0.0411 -0.0315 -0.0297
35167W        W78105  29.633  17.984   9.649 -0.0319 -0.2915 -0.1516
35168W        W78106  27.077  17.410   8.127  0.1124  0.0486  0.1353
35169W        W78107  29.653  15.265   9.959  0.2699  0.0502 -0.0302
35170W        W78108  27.363  16.316   9.283 -0.0926 -0.0500 -0.0237
35171W        W78109  27.437  15.519  10.474 -0.0768  0.2110  0.0894
35172W        W78110  26.843  16.018   8.010 -0.3047 -0.3180 -0.3412
35173W        W78111  26.661  16.542   7.688 -0.2762  0.0742 -0.1347
35174W        W78112  26.147  15.061   9.164  0.1021 -0.1683 -0.1984
35175W        W78113  27.756  15.383   7.393  0.2162 -0.1268  0.0345
35176W        W78114  25.182  16.544   8.534  0.1050 -0.5220  0.0198
35177W        W78115  29.465  19.156  11.347  0.0258  0.0983  0.0880
35178W        W78116  25.119  15.137   8.444  0.0539 -0.1807 -0.2348
35179W        W78117  28.529  16.806   8.788  0.0708 -0.0576  0.1699
35180W        W78118  28.389  17.882   9.841 -0.0437  0.0980 -0.1050
35181W        W78119  26.577  17.640   7.762 -0.0691  0.0725  0.2117
35182W        W78120  27.775  16.191   9.609 -0.1947  0.2083  0.2402
35183W        W78121  28.065  18.367   8.755 -0.0486 -0.0372  0.1177
35184W        W78122  26.385  18.806   9.429  0.0689  0.0447 -0.0348
35185W        W78123  27.354  18.544   9.428 -0.0076  0.1491 -0.0883
35186W        W78124  27.803  17.756   9.543  0.0143  0.2962  0.0325
35187W        W78125  27.304  15.242   7.147 -0.3374 -0.0898 -0.3699
35188W        W78126  25.549  15.949   9.731 -0.0724 -0.0902  0.0643
35189W        W78127  25.046  18.532   9.032  0.1839 -0.0169  0.1860
35190W        W78128  27.124  16.665  10.252 -0.0960 -0.0741 -0.0220
35191W        W78129  28.346  18.031   7.413  0.2347 -0.0033 -0.3583
35192W        W78130  26.219  16.530   9.403 -0.2276 -0.2019 -0.0162
35193W        W78131  26.957  15.153   8.565 -0.0397  0.2045  0.0438
35194W        W78132  27.759  16.903   7.956  0.1411 -0.0237 -0.1008
35195W        W78133  26.074  19.308   8.664  0.1967 -0.0155 -0.2707
35196W        W78134  29.453  18.762   7.393 -0.0477 -0.1057 -0.4303
35197W        W78135  27.031  15.974   9.026  0.1259  0.1937  0.0374
35198W        W78136  30.011  17.875   8.588  0.1781  0.1541 -0.3666
35199W        W78137  26.296  15.535   9.122  0.0697 -0.0047  0.2492
35200W        W78138  29.028  14.994   8.386 -0.3731 -0.0334 -0.0549
35201W        W78139  29.798  15.559   9.394  0.1489  0.2596 -0.0765
35202W        W78140  27.298  17.034   9.592 -0.2896 -0.4489  0.1268
35203W        W78141  23.845  17.044   7.971 -0.1626  0.2641 -0.1078
35204W        W78142  25.597  15.845   5.468 -0.2375 -0.0970 -0.2087
35205W        W78143  27.745  18.247   9.720 -0.2432 -0.0338 -0.0903
35206W        W78144  25.071  15.692   9.264  0.3100  0.4697 -0.0590
35207W        W78145  25.705  15.303   7.788 -0.3249 -0.2309  0.0901
35208W        W78146  28.790  18.063   7.757  0.2356 -0.0724  0.1018
35209W        W78147  27.368  15.834   8.534  0.1560 -0.1632  0.1567
35210W        W78148  24.503  14.555   9.631 -0.2835 -0.2287  0.0352
35211W        W78149  27.908  18.798   7.413 -0.1221  0.4680  0.1440
35212W        W78150  29.969  18.780   8.722 -0.0351 -0.0667  0.0187
35213W        W78151  28.127  15.740   7.366  0.1125  0.0164  0.0185
35214W        W78152  25.178  17.475   7.545  0.1364  0.1678  0.0437
35215W        W78153  26.197  14.138   6.774  0.0531  0.1242 -0.1187
35216W        W78154  27.413  14.223   9.789  0.2743  0.2328  0.1109
35217W        W78155  29.189  17.982   7.397  0.0599  0.0641  0.2096
35218W        W78156  28.992  17.561   6.999 -0.0739  0.2222 -0.0257
35219W        W78157  25.697  15.768   8.879  0.2224 -0.4097 -0.2261
35220W        W78158  27.948  16.053   6.597  0.0545  0.0105  0.0351
35221W        W78159  29.370  16.665   8.818 -0.0173  0.0047  0.0966
35222W        W78160  28.794  15.077   9.536  0.2043  0.3954 -0.0533
35223W        W78161  29.173  17.500   7.510  0.0600 -0.3031  0.0362
35224W        W78162  28.623  17.657   9.427 -0.4536  0.0015 -0.2349
35225W        W78163  25.199  14.780   8.954 -0.1699  0.0120 -0.0777
35226W        W78164  28.664  15.043   7.880 -0.2145 -0.1874 -0.1618
35227W        W78165  24.947  15.094   9.875 -0.0106 -0.2686 -0.1464
35228W        W78166  27.301  16.159   7.404 -0.1573 -0.0764 -0.0141
35229W        W78167  28.234  17.011   9.629  0.1363 -0.1908 -0.1547
35230W        W78168  26.729  15.552   8.869  0.2621 -0.0832  0.2829
35231W        W78169  29.523  17.044   8.492  0.2913  0.2918 -0.2761
35232W        W78170  30.397  16.828   9.797  0.2407 -0.1496  0.1917
35233W        W78171  25.098  19.396   9.506 -0.1500 -0.1833  0.0993
35234W        W78172  25.006  15.901  12.000 -0.0236  0.2232 -0.0031
35235W        W78173  23.874  15.360   9.582  0.1689 -0.0409  0.0449
35236W        W78174  26.843  16.621   8.694 -0.3098  0.1385  0.2212
35237W        W78175  28.683  16.104   7.435 -0.3678 -0.2703 -0.3606
35238W        W78176  25.259  14.599   9.402 -0.0404 -0.1376 -0.1287
35239W        W78177  26.189  14.712   9.506  0.3388 -0.0227 -0.3375
35240W        W78178  27.291  14.614   7.132 -0.3792  0.0474  0.3268
35241W        W78179  25.823  18.513   9.606  0.0645  0.1583 -0.0207
35242W        W78180  28.923  15.371  10.274 -0.2771  0.4592  0.2690
35243W        W78181  26.169  20.232   3.028  0.1692  0.0848 -0.1218
35244W        W78182  26.092  17.903   0.419 -0.0673 -0.2773  0.1327
35245W        W78183  29.405  19.972   1.372  0.1662 -0.0410  0.2439
35246W        W78184  28.439  19.950   0.589 -0.1790  0.0947 -0.1285
35247W        W78185  26.953  18.603   1.134  0.0147  0.0995 -0.3122
35248W        W78186  26.967  20.980   1.505 -0.0185 -0.0286 -0.0184
35249W        W78187  27.450  17.319   2.319 -0.0814 -0.1646 -0.1996
35250W        W78188  27.149  21.880   1.024  0.0633  0.0049  0.1431
35251W        W78189  27.451  22.223   1.105 -0.1458 -0.2434  0.1864
35252W        W78190  27.694  20.428  31.773 -0.2392 -0.5310  0.0362
35253W        W78191  27.846  19.058   1.223  0.2211  0.0372 -0.0578
35254W        W78192  25.975  20.778   2.686 -0.0682  0.0150  0.6294
35255W        W78193  25.481  19.504   1.634 -0.2723  0.0155  0.1197
35256W        W78194  25.169  17.786   1.708 -0.1118 -0.0826 -0.0959
35257W        W78195  27.960  20.692   1.466 -0.2431 -0.0078 -0.0968
35258W        W78196  25.714  20.236  31.942 -0.2566  0.2558 -0.1419
35259W        W78197  26.215  19.213   1.623  0.0379  0.0648  0.1595
35260W        W78198  26.598  19.662   1.249 -0.1009  0.3995  0.0083
35261W        W78199  28.312  22.307   1.267  0.1456  0.0962 -0.1889
35262W        W78200  27.708  19.133   1.692  0.1028 -0.0404 -0.1675
35263W        W78201  27.866  18.510   2.523 -0.3529  0.0006  0.2100
35264W        W78202  26.632  22.296  31.807  0.0058  0.1588 -0.0909
35265W        W78203  24.775  17.497   0.582 -0.0641 -0.1048 -0.1036
35266W        W78204  24.586  18.646   3.451  0.2022  0.1206 -0.0265
35267W        W78205  25.137  20.198   2.045  0.0492  0.1115  0.0383
35268W        W78206  26.611  19.000   2.352  0.2652 -0.0955  0.0915
35269W        W78207  27.054  20.549   1.196 -0.1525 -0.0904 -0.0598
35270W        W78208  26.547  20.628   1.406 -0.1955  0.1269  0.0081
35271W        W78209  27.719  23.011   0.612 -0.1869  0.2233  0.0513
35272W        W78210  29.316  21.497   3.839 -0.2523 -0.0441  0.3062
35273W        W78211  25.004  20.981   1.172 -0.2725  0.0731 -0.1604
35274W        W78212  22.948  23.573   2.014  0.0343 -0.0782  0.1268
35275W        W78213  25.986  20.687   2.078  0.3315 -0.1349 -0.0487
35276W        W78214  29.030  21.280   1.169  0.2563  0.1355 -0.1354
35277W        W78215  27.320  22.292   1.751 -0.2405 -0.0254  0.1346
35278W        W78216  26.486  23.320   3.441  0.1008  0.1088  0.2119
35279W        W78217  26.027  20.255  31.515  0.2695  0.2131 -0.0349
35280W        W78218  27.681  21.459   2.753  0.3303  0.2927 -0.2662
35281W        W78219  26.875  21.080   3.178  0.0856  0.2560  0.1750
35282W        W78220  26.332  19.894   2.253 -0.0298  0.2387  0.1783
35283W        W78221  28.121  19.785   1.606  0.0444 -0.0895 -0.0263
35284W        W78222  25.629  21.221  31.467  0.0453 -0.2990 -0.0928
35285W        W78223  27.828  20.377   2.398  0.0204  0.3368 -0.1060
35286W        W78224  26.600  20.544   2.670 -0.0516  0.0883 -0.0011
35287W        W78225  25.366  21.221   3.133  0.2065 -0.2952 -0.0079
35288W        W78226  28.209  20.470   4.022 -0.0011 -0.3153 -0.2784
35289W        W78227  25.277  20.919  31.874  0.1429  0.3030  0.2565
35290W        W78228  28.963  19.983   0.351  0.2137 -0.1668  0.1637
35291W        W78229  27.552  19.422  31.926  0.2387  0.1307  0.0933
35292W        W78230  27.210  19.955  31.159 -0.0883 -0.0862 -0.0891
35293W        W78231  26.958  19.255   1.250  0.0652  0.0534  0.2764
35294W        W78232  27.239  21.395   0.577 -0.1302  0.1121  0.3916
35295W        W78233  27.295  19.682   1.894  0.0229  0.0790 -0.0410
35296W        W78234  29.125  20.173   2.585 -0.0451  0.0529 -0.0841
35297W        W78235  27.796  20.013   1.941 -0.0541 -0.0984  0.3495
35298W        W78236  26.002  19.896   2.621  0.3913 -0.2518  0.0441
35299W        W78237  26.695  21.464   2.353 -0.0376  0.1845  0.0889
35300W        W78238  24.936  19.140   1.040 -0.0946 -0.2269 -0.2848
35301W        W78239  29.810  21.096   1.004 -0.2620  0.0992 -0.0894
35302W        W78240  28.770  21.086   1.536  0.2014  0.0125 -0.1590
35303W        W78241  26.912  20.719  31.635  0.0282  0.1484  0.2971
35304W        W78242  25.811  19.634   0.827  0.0549 -0.0556 -0.4935
35305W        W78243  26.770  19.628   4.042  0.2958  0.0412 -0.0764
35306W        W78244  25.408  19.256   2.596  0.0007  0.2327  0.0903
35307W        W78245  26.193  18.527   0.565 -0.2668  0.1063 -0.0999
35308W        W78246  29.330  19.744   2.220  0.0114 -0.2848  0.0147
35309W        W78247  24.104  21.769   2.421 -0.0241  0.0442  0.0361
35310W        W78248  28.642  17.647   3.110 -0.1626 -0.0128 -0.0468
35311W        W78249  27.382  20.225   0.940  0.0275 -0.0984 -0.0559
35312W        W78250  28.063  21.988   2.369  0.0014  0.2451 -0.1478
35313W        W78251  29.355  19.618  31.443  0.1985 -0.0551  0.0386
35314W        W78252  28.671  18.038   0.878  0.1169  0.0882  0.0401
35315W        W78253  28.220  19.566   2.746  0.2999 -0.1336 -0.0206
35316W        W78254  25.836  18.771   0.787  0.1094  0.1899 -0.0298
35317W        W78255  26.781  19.935  31.734  0.1073  0.1707 -0.1815
35318W        W78256  27.790  22.145   2.907 -0.2812 -0.2592 -0.0927
35319W        W78257  29.450  20.078   0.182  0.1529  0.1210  0.2933
35320W        W78258  26.950  22.379   2.469 -0.2801  0.0827 -0.2538
35321W        W78259  26.024  18.378   2.015  0.4175 -0.2869  0.2510
35322W        W78260  27.870  21.097   3.048  0.0745 -0.0575 -0.0021
35323W        W78261  25.018  21.343  31.278  0.2123 -0.0748 -0.0193
35324W        W78262  25.329  20.725   1.458 -0.2777  0.2089  0.0561
35325W        W78263  25.028  19.701   0.442  0.0241  0.1911 -0.5430
35326W        W78264  25.693  19.073   3.042  0.0746 -0.2792  0.2520
35327W        W78265  26.916  20.937   2.212 -0.1151 -0.1544 -0.1442
35328W        W78266  29.261  18.545   1.443  0.1666  0.2416 -0.0211
35329W        W78267  26.554  18.286   3.079  0.0569  0.0145  0.0633
35330W        W78268  28.772  17.591   1.206 -0.0243  0.0469  0.0810
35331W        W78269  26.423  20.114   0.527 -0.1682 -0.0254  0.1426
35332W        W78270  28.409  20.966   1.215 -0.1290 -0.2949 -0.0721
35333W        W78271  27.872  20.321   0.802  0.0095  0.0588  0.1629
35334W        W78272  27.539  20.650   1.116  0.0784  0.1749 -0.1474
35335W        W78273  23.270  20.258   1.143  0.1221 -0.1464 -0.1025
35336W        W78274  26.776  20.049   1.932 -0.1886 -0.1469 -0.0347
35337W        W78275  24.689  18.299   2.776 -0.0083  0.0747 -0.0341
35338W        W78276  27.030  18.825   2.082 -0.1603 -0.1878  0.0480
35339W        W78277  27.982  21.623   3.396  0.0702 -0.2801 -0.2642
35340W        W78278  25.545  17.264   1.940  0.2230 -0.2603  0.0139
35341W        W78279  28.191  19.438   1.220 -0.1890  0.0792 -0.0320
35342W        W78280  26.794  19.538   1.705 -0.1039  0.1181 -0.0183
35343W        W78281  24.501  21.789   2.140 -0.1065  0.1370 -0.1705
35344W        W78282  27.574  18.118   2.782 -0.0068  0.0158 -0.0982
35345W        W78283  27.497  22.632   1.476  0.1251 -0.0895 -0.1160
35346W        W78284  29.137  20.945   2.142 -0.2134  0.3804  0.0179
35347W        W78285  27.798  22.137   0.290  0.0934 -0.3923  0.0823
35348W        W78286  25.681  20.281   2.899  0.0012 -0.0048 -0.0939
35349W        W78287  25.111  18.907   2.304 -0.0550 -0.1689  0.2607
35350W        W78288  25.340  21.377   1.658  0.0037 -0.1602 -0.0612
35351W        W78289  24.968  20.573   0.771  0.2824 -0.0227 -0.1332
35352W        W78290  25.414  18.320   0.037  0.2109 -0.1238 -0.0190
35353W        W78291  28.516  22.650   0.992 -0.2238  0.0291 -0.3497
35354W        W78292  25.860  20.223   1.145 -0.0037 -0.0953  0.0806
35355W        W78293  25.763  21.476   1.882 -0.1848 -0.1300 -0.1908
35356W        W78294  27.890  19.068   2.818 -0.0222  0.1890  0.0379
35357W        W78295  29.354  19.873   3.557  0.2108  0.1479  0.0089
35358W        W78296  28.190  19.053   0.777  0.1058 -0.2822  0.2009
35359W        W78297  25.938  17.774   1.247  0.1185 -0.0049  0.1647
35360W        W78298  26.335  23.157   2.302  0.1817  0.2934 -0.1424
35361W        W78299  24.908  20.518   1.307  0.2123  0.2218  0.3351
35362W        W78300  25.232  18.407   2.311 -0.4589  0.1142  0.1385
35363W        W78301  27.786  20.888  31.961 -0.1328  0.0256 -0.2963
35364W        W78302  27.456  18.208   1.710 -0.1625 -0.2510  0.0893
35365W        W78303  25.470  19.270   3.918 -0.2682  0.0815  0.2706
35366W        W78304  27.373  19.627   3.299 -0.1780 -0.0859  0.0771
35367W        W78305  24.654  20.153   0.943 -0.2670 -0.0089 -0.1421
35368W        W78306  24.481  20.993   3.087 -0.0542  0.1852  0.1150
35369W        W78307  28.519  18.436   0.586 -0.0765 -0.1034  0.3457
35370W        W78308  29.471  18.976   1.280  0.1404 -0.0498  0.2043
35371W        W78309  27.730  20.258   3.937  0.1336  0.3960  0.3936
35372W        W78310  29.182  19.772   0.971  0.1498  0.4058 -0.2401
35373W        W78311  29.139  20.031  30.743 -0.0211 -0.0494 -0.1068
35374W        W78312  27.544  17.987  31.849 -0.2137  0.1950  0.0441
35375W        W78313  24.157  20.252   3.808 -0.0562 -0.2483  0.2586
35376W        W78314  28.044  19.264   0.285  0.2038  0.1237 -0.1245
35377W        W78315  27.291  21.145   1.948 -0.1626 -0.2180  0.0199
35378W        W78316  29.174  19.201  31.683 -0.0594 -0.3543 -0.0292
35379W        W78317  29.291  21.212   0.236 -0.0907  0.0144  0.0466
35380W        W78318  25.977  22.038   2.827  0.2517 -0.4266 -0.1726
35381W        W78319  26.676  19.062   3.414  0.0886  0.1235 -0.0996
35382W        W78320  27.939  22.703   0.967  0.1575 -0.1788 -0.1833
35383W        W78321  28.907  18.089   2.967 -0.3530  0.1269  0.1597
35384W        W78322  25.017  19.217   0.514 -0.2799 -0.2044  0.0262
35385W        W78323  27.312  20.125   2.197 -0.1427  0.1085 -0.0622
35386W        W78324  25.308  21.006   0.381 -0.3060 -0.0034  0.1669
35387W        W78325  29.305  17.919   2.747 -0.1489 -0.0039  0.0177
35388W        W78326  27.794  18.585   1.583 -0.2687 -0.0750 -0.2575
35389W        W78327  27.926  17.758   2.376  0.0330 -0.1334 -0.0170
35390W        W78328  29.963  20.636   5.155  0.1164  0.0504  0.0217
35391W        W78329  28.069  19.749   0.279 -0.1277  0.1021 -0.1312
35392W        W78330  28.181  19.550   0.728  0.0683 -0.1836 -0.1242
35393W        W78331  26.645  20.201  30.793 -0.3066  0.1203 -0.0765
35394W        W78332  28.259  19.277   1.748  0.2405  0.1219  0.4128
35395W        W78333  24.596  19.771   2.699 -0.1781  0.3940  0.1361
35396W        W78334  25.613  21.200   2.720  0.1107  0.0627  0.0220
35397W        W78335  28.100  20.532   3.070  0.0241  0.0064 -0.2704
35398W        W78336  26.993  20.235   2.703  0.0086 -0.0915 -0.0438
35399W        W78337  27.741  19.553   2.931 -0.0147  0.0166 -0.0235
35400W        W78338  27.318  18.784   1.511 -0.1766 -0.1791  0.2139
35401W        W78339  26.230  20.482   0.103 -0.1703 -0.1911 -0.1042
35402W        W78340  25.383  20.925   0.840 -0.4198  0.0385  0.2433
35403W        W78341  26.495  19.455   2.605  0.0420  0.5020 -0.1518
35404W        W78342  27.507  21.515   0.997 -0.0190 -0.2822 -0.0371
35405W        W78343  26.140  20.401  31.035 -0.0131 -0.0901 -0.1100
35406W        W78344  28.705  19.614   0.951 -0.2048 -0.0154 -0.2540
35407W        W78345  26.434  19.942  31.208  0.0219  0.0719  0.0061
35408W        W78346  29.587  16.845   3.074 -0.1037  0.0113 -0.0519
35409W        W78347  26.021  21.546   1.470 -0.1636 -0.2905 -0.1605
35410W        W78348  26.081  19.795   0.402  0.0077 -0.1204 -0.1142
35411W        W78349  25.452  19.993   0.619  0.0526  0.0267 -0.5534
35412W        W78350  28.710  18.978   0.309 -0.2275 -0.0404  0.1133
35413W        W78351  26.746  20.293   0.199  0.1129  0.1051  0.1164
35414W        W78352  26.348  19.003   3.718 -0.0099 -0.1236 -0.0081
35415W        W78353  25.717  18.257   2.402  0.0025 -0.1421  0.1533
35416W        W78354  24.841  20.998   1.637 -0.0128 -0.1057 -0.0753
35417W        W78355  27.607  20.584   2.800 -0.3816 -0.1967  0.2453
35418W        W78356  29.482  19.104   0.717 -0.3149 -0.0325 -0.1450
35419W        W78357  28.360  20.884   1.743  0.1839  0.0625 -0.0479
35420W        W78358  25.668  19.693   3.082  0.0908 -0.0435  0.2317
35421W        W78359  25.243  18.710   0.276  0.3833  0.0661  0.2168
35422W        W78360  27.771  20.150   3.061  0.3640  0.5312  0.0747
35423W        W78361  26.561  18.964   1.280 -0.3256 -0.2499 -0.0511
35424W        W78362  25.102  19.592   1.327 -0.0444 -0.0683 -0.1007
35425W        W78363  27.821  20.539   1.896 -0.0905  0.0122 -0.0019
35426W        W78364  25.514  20.401  31.209 -0.1313 -0.0436 -0.2935
35427W        W78365  26.137  20.747  31.461  0.3451  0.1676 -0.1140
35428W        W78366  25.346  19.514   3.401 -0.0438  0.2382  0.2016
35429W        W78367  28.431  20.188   3.168  0.0295  0.2009  0.1890
35430W        W78368  27.501  19.655   2.352  0.1307 -0.0581  0.2407
35431W        W78369  25.520  17.811   0.282 -0.1145 -0.1609  0.2973
35432W        W78370  27.302  18.983   1.028 -0.2180  0.0747 -0.2896
35433W        W78371  28.720  21.257   2.027  0.3445 -0.0965  0.2772
35434W        W78372  27.209  19.710   2.799  0.0242  0.1148  0.1259
35435W        W78373  26.614  20.561   4.263  0.1822  0.0257  0.1514
35436W        W78374  27.543  18.688   1.975 -0.3319 -0.3126  0.0168
35437W        W78375  28.022  20.797   0.941  0.1274  0.1436 -0.1830
35438W        W78376  27.777  20.924   2.358 -0.1825 -0.1526 -0.0130
35439W        W78377  26.591  19.489   0.617  0.5687  0.2694 -0.1016
35440W        W78378  23.506  19.562   2.102  0.0756  0.0793 -0.0508
35441W        W78379  27.021  22.406   0.807 -0.0178  0.0730  0.0930
35442W        W78380  27.298  20.629   2.118 -0.0734 -0.2146  0.1639
35443W        W78381  25.592  20.008   1.672  0.1371  0.1587 -0.1393
35444W        W78382  25.767  20.754   0.090  0.3241  0.1009 -0.0303
35445W        W78383  26.017  21.695   3.446 -0.2305 -0.2139  0.1211
35446W        W78384  30.077  17.246   2.457  0.1958  0.2303  0.0733
35447W        W78385  27.681  21.358  31.681 -0.0365  0.0799  0.0914
35448W        W78386  26.896  19.036   0.758  0.1084 -0.3253 -0.1474
35449W        W78387  27.889  19.209   4.251 -0.1583  0.3316 -0.0530
35450W        W78388  26.698  19.794   0.232  0.2922  0.2113 -0.0162
35451W        W78389  28.069  18.368   4.047  0.0969 -0.0572  0.2276
35452W        W78390  26.359  19.497   3.673 -0.1702 -0.1284  0.0494
35453W        W78391  28.153  21.210   2.103 -0.1905 -0.1527 -0.0535
35454W        W78392  25.929  19.331   3.407  0.0147  0.0562 -0.1532
35455W        W78393  29.112  22.233   2.566 -0.1085  0.1661  0.1654
35456W        W78394  26.420  19.402   2.073  0.1647 -0.0066 -0.1436
35457W        W78395  27.687  18.827   0.749  0.3154 -0.0453  0.2426
35458W        W78396  26.370  16.687   0.821 -0.3942  0.2109 -0.3986
35459W        W78397  28.273  20.138   2.704 -0.0640  0.1244  0.0739
35460W        W78398  29.538  18.877   3.102 -0.2038 -0.1119 -0.0987
35461W        W78399  26.427  20.701   0.466 -0.1326 -0.1788 -0.3011
35462W        W78400  28.822  19.907   2.264  0.0360 -0.3923  0.1151
35463W        W78401  26.146  20.205   1.523  0.1163  0.0843  0.1982
35464W        W78402  28.835  20.873   1.000 -0.0606  0.0649 -0.1544
35465W        W78403  26.235  19.344   1.069 -0.1297 -0.0651  0.2840
35466W        W78404  26.911  20.598   1.808 -0.3635  0.1174  0.0905
35467W        W78405  27.569  19.141   2.249 -0.2582 -0.4643 -0.0519
35468W        W78406  28.269  21.351   0.885  0.0239  0.1953 -0.0455
35469W        W78407  29.062  19.441   1.325 -0.0518 -0.0883 -0.1068
35470W        W78408  27.498  20.066   2.673 -0.1963 -0.0478  0.0247
35471W        W78409  28.035  18.862   2.062  0.1001  0.2167  0.0430
35472W        W78410  25.960  19.262   2.689 -0.0659  0.3869  0.0544
35473W        W78411  25.867  17.755   2.541 -0.0932 -0.0028  0.3305
35474W        W78412  27.752  21.550   2.213 -0.0415 -0.0269 -0.1341
35475W        W78413  29.510  19.091   0.176  0.0591 -0.0572 -0.0290
35476W        W78414  27.813  19.510   1.981 -0.2247 -0.2210 -0.1542
35477W        W78415  28.596  19.975   1.802 -0.2865 -0.3739 -0.0607
35478W        W78416  26.836  19.616  31.279 -0.2085 -0.3697 -0.3319
35479W        W78417  27.250  19.546   0.927  0.0033 -0.0114  0.0518
35480W        W78418  27.513  21.192   3.972  0.2076  0.0505 -0.1002
35481W        W78419  27.444  18.387   0.510 -0.0626  0.3409  0.1336
35482W        W78420  28.382  19.695   3.759 -0.0998  0.0947  0.1655
35483W        W78421  27.108  21.461  31.287  0.3160 -0.2472 -0.0874
35484W        W78422  27.828  21.194   1.195 -0.0108  0.1218 -0.3279
35485W        W78423  27.382  20.769   1.579  0.0435  0.0601 -0.0486
35486W        W78424  26.034  18.803   1.226  0.0500  0.1433  0.0408
35487W        W78425  25.823  22.527   3.332 -0.0370  0.1202  0.0944
35488W        W78426  25.266  20.073   0.146  0.0570  0.0150 -0.1233
35489W        W78427  26.735  19.094   0.295  0.0628  0.1733  0.0822
35490W        W78428  27.157  20.424   3.610  0.2725  0.2110 -0.0441
35491W        W78429  28.875  20.921   3.054  0.0076 -0.0566 -0.0713
35492W        W78430  26.681  17.529   0.913 -0.2431  0.1629  0.0765
35493W        W78431  28.917  18.450   3.276  0.0261 -0.1309  0.1594
35494W        W78432  24.680  20.606   0.057 -0.0930  0.0122  0.3416
35495W        W78433  27.360  18.537   2.500 -0.2057 -0.1040 -0.1089
35496W        W78434  27.428  21.310   1.522 -0.0804  0.1619  0.3106
35497W        W78435  24.992  19.647   4.533  0.0419 -0.0801 -0.0011
35498W        W78436  27.117  20.650   3.038 -0.2533  0.1696  0.2403
35499W        W78437  26.726  17.807   1.938 -0.0555 -0.0278 -0.0267
35500W        W78438  28.572  19.539   1.543 -0.1293  0.1201 -0.3379
35501W        W78439  26.548  20.063   2.692  0.1588  0.0133  0.1782
35502W        W78440  29.257  20.759   4.881 -0.1234 -0.3756 -0.2100
35503W        W78441  29.157  20.585   3.330  0.4192  0.1168  0.4497
35504W        W78442  25.624  20.298   2.368 -0.0954  0.1451  0.1033
35505W        W78443  27.686  22.046   2.012  0.0795  0.2810 -0.2058
35506W        W78444  29.106  20.167   1.755  0.1964 -0.3381  0.0359
35507W        W78445  26.525  21.262   1.392 -0.1113  0.2988 -0.1383
35508W        W78446  24.637  18.837   2.562  0.2590 -0.0954 -0.0760
35509W        W78447  27.563  20.668   3.395  0.1071 -0.1271 -0.1785
35510W        W78448  28.657  20.519   1.323 -0.1581  0.0201  0.2072
35511W        W78449  25.718  18.282   2.913 -0.2088 -0.2706 -0.0132
35512W        W78450  26.219  18.943   0.269 -0.1904 -0.2605  0.0138
35513W        W78451  26.915  21.973   3.253  0.2971  0.1468  0.2174
35514W        W78452  26.370  20.855   2.365 -0.0019  0.1531 -0.1735
35515W        W78453  24.226  21.925  31.907  0.1823 -0.3567 -0.1123
35516W        W78454  28.069  21.219   0.401  0.2301  0.0314 -0.1862
35517W        W78455  28.312  19.978   1.154  0.1746 -0.0616 -0.0566
35518W        W78456  27.165  22.011   2.224  0.0234  0.0290  0.0864
35519W        W78457  25.942  18.294   1.095 -0.1266  0.1634 -0.0353
35520W        W78458  25.951  19.716   1.341 -0.3099 -0.0213 -0.1076
35521W        W78459  23.784  21.808   0.054 -0.0852 -0.2199  0.2072
35522W        W78460  28.947  20.311  31.858  0.4223 -0.4374  0.4192
35523W        W78461  26.187  20.895   1.111 -0.0745 -0.1034 -0.3739
35524W        W78462  28.741  22.653   2.437  0.0296 -0.2457 -0.3416
35525W        W78463  27.432  19.561  31.037 -0.0268  0.1452  0.2938
35526W        W78464  28.973  19.622   1.843  0.2831  0.3487  0.0463
35527W        W78465  29.799  18.732   0.975  0.2779  0.1281  0.0111
35528W        W78466  26.524  21.455   4.063 -0.0155 -0.2604  0.0754
35529W        W78467  27.309  20.277   1.646  0.1493  0.4194  0.0905
35530W        W78468  28.000  19.021  31.814  0.0684  0.0182 -0.1245
35531W        W78469  26.707  19.264   4.984  0.0524 -0.5740  0.1595
35532W        W78470  29.134  17.616   3.093 -0.1478 -0.0515 -0.0162
35533W        W78471  26.022  20.739   3.607 -0.1620 -0.1641 -0.1612
35534W        W78472  27.137  19.566   0.426 -0.0138 -0.2986  0.1733
35535W        W78473  25.506  18.234   1.883 -0.0507 -0.0744 -0.0313
35536W        W78474  26.377  18.923   0.788 -0.0307  0.2464 -0.0167
35537W        W78475  28.963  17.363   1.936 -0.0477  0.0400 -0.1548
35538W        W78476  25.876  19.283   0.056 -0.3342  0.1562 -0.0196
35539W        W78477  27.161  19.163   1.806  0.0793 -0.2846  0.1610
35540W        W78478  25.608  20.668  31.576  0.1776 -0.1145 -0.1001
35541W        W78479  26.773  20.974   1.012  0.0003  0.0020 -0.1436
35542W        W78480  26.723  21.866   2.035 -0.1743 -0.0227 -0.0174
35543W        W78481  25.021  17.327  31.801  0.1309 -0.2009  0.0960
35544W        W78482  28.652  18.888   0.799  0.1026  0.1859 -0.0549
35545W        W78483  25.977  20.110   2.039 -0.2355 -0.1230  0.2196
35546W        W78484  27.469  19.023   4.522 -0.1392  0.0623  0.1381
35547W        W78485  25.242  19.493   0.874 -0.0047 -0.1369  0.0567
35548W        W78486  29.851  19.661  31.264 -0.2560  0.5094 -0.3208
35549W        W78487  28.435  21.577   2.445 -0.3022  0.1867 -0.2033
35550W        W78488  24.357  19.415   1.812 -0.2228  0.0846 -0.0732
35551W        W78489  27.608  19.289   0.538 -0.0818 -0.1277 -0.1660
35552W        W78490  28.578  19.708   4.657  0.1016 -0.4218  0.2575
35553W        W78491  26.495  20.321  31.681 -0.2925  0.1290  0.5534
35554W        W78492  28.479  22.059   2.677 -0.0801  0.0567 -0.1447
35555W        W78493  26.416  20.422   1.904  0.1183 -0.0786  0.1062
35556W        W78494  27.617  18.335  31.521  0.0282 -0.0190  0.0209
35557W        W78495  25.614  20.427   1.862  0.1993 -0.1237 -0.2909
35558W        W78496  26.367  20.839   3.065 -0.0808  0.0128  0.2009
35559W        W78497  29.022  21.424   2.979 -0.2043  0.1190  0.1660
35560W        W78498  24.988  18.314   1.524 -0.0019  0.0193 -0.1916
35561W        W78499  29.694  21.008   0.520  0.1044 -0.2236  0.0865
35562W        W78500  28.244  20.179   2.133  0.1224  0.1275  0.4419
35563W        W78501  24.935  21.313  31.782 -0.0013 -0.0521  0.2458
35564W        W78502  28.623  20.360   0.246  0.0415 -0.1095  0.0645
35565W        W78503  27.357  21.648   1.931  0.2147  0.0470  0.0152
35566W        W78504  25.687  18.747   2.115  0.2068 -0.0788  0.0073
35567W        W78505  29.246  22.250   1.065 -0.2265 -0.1680  0.0883
35568W        W78506  28.669  19.070   2.828 -0.1005 -0.1317  0.2605
35569W        W78507  26.956  18.235   0.508 -0.2147 -0.0424  0.0561
35570W        W78508  26.202  19.644   3.034  0.0450 -0.0548  0.0283
35571W        W78509  24.699  20.505   3.291 -0.1582 -0.0937  0.1373
35572W        W78510  28.667  19.778   3.394 -0.0440  0.0985 -0.0512
35573W        W78511  28.965  20.152   3.458 -0.1746 -0.0391  0.0431
35574W        W78512  26.437  22.548  30.583 -0.0179 -0.1080  0.2426
35575W        W78513  27.337  17.740   3.149  0.2907  0.1805  0.1981
35576W        W78514  27.224  21.066   1.015 -0.1463  0.0343 -0.0110
35577W        W78515  27.494  22.909   2.474 -0.1301  0.4763  0.0231
35578W        W78516  25.479  19.345  31.648  0.2627 -0.0266 -0.1384
35579W        W78517  26.232  20.337   2.415 -0.0339 -0.2350 -0.5690
35580W        W78518  27.160  20.319  31.840  0.4741 -0.0750 -0.0029
35581W        W78519  26.090  23.881   0.830 -0.1124  0.0985  0.2531
35582W        W78520  28.700  20.510   1.866  0.0865  0.0536 -0.0186
35583W        W78521  27.144  19.943   1.248 -0.0660 -0.2542  0.2588
35584W        W78522  29.290  21.778   1.663  0.2286 -0.0656 -0.1647
35585W        W78523  26.424  18.489   1.161 -0.0539  0.1054  0.0908
35586W        W78524  26.778  19.949   0.841  0.0894 -0.0392 -0.0203
35587W        W78525  28.648  18.407   0.059 -0.4601 -0.0395 -0.0686
35588W        W78526  24.548  19.814   2.177 -0.0241 -0.0449 -0.1964
35589W        W78527  25.187  20.066   1.488  0.1436  0.0353  0.0237
35590W        W78528  25.198  20.854  31.284  0.0676 -0.0404 -0.2643
35591W        W78529  26.429  20.292   0.996 -0.2374  0.0373  0.2931
35592W        W78530  26.943  19.809   2.373  0.2584  0.1750 -0.1218
35593W        W78531  25.611  18.715   2.682 -0.0276 -0.1021 -0.0893
35594W        W78532  25.399  20.348   1.063 -0.2463 -0.3117  0.2758
35595W        W78533  25.721  17.946   0.823 -0.1662 -0.0770  0.2365
35596W        W78534  29.289  21.463   0.817  0.0746 -0.0154  0.0237
35597W        W78535  26.851  20.425   2.289 -0.2325  0.2125  0.1812
35598W        W78536  25.278  18.883   0.844 -0.2305  0.1538 -0.2307
35599W        W78537  29.108  20.654   1.623  0.2581 -0.1173  0.1217
35600W        W78538  28.228  21.755   0.486  0.0328  0.0980 -0.3430
35601W        W78539  27.502  17.840   1.371 -0.1496  0.2947  0.1226
35602W        W78540  28.001  21.094   3.568 -0.2627 -0.0425 -0.0259
35603W        W78541  25.606  19.631   0.386  0.2573 -0.1001  0.0524
35604W        W78542  27.135  19.115   3.522 -0.0675 -0.0991 -0.0236
35605W        W78543  27.898  18.852   3.365 -0.0673 -0.0633 -0.1514
35606W        W78544  25.578  19.190   0.608 -0.1463  0.1668  0.0493
35607W        W78545  26.357  19.845   1.733  0.1604 -0.2273  0.0143
35608W        W78546  26.585  20.736  31.242  0.1996  0.1506  0.0543
35609W        W78547  28.560  19.754  31.036 -0.0046  0.1099  0.0706
35610W        W78548  26.487  18.851   2.813 -0.0506 -0.0179 -0.0199
35611W        W78549  25.503  20.878   3.609 -0.0530 -0.0580 -0.0765
35612W        W78550  24.557  16.710   2.305  0.1266 -0.0528  0.0185
35613W        W78551  30.811  19.451   1.529  0.1727 -0.1473  0.1110
35614W        W78552  26.645  19.057   1.770  0.2747  0.0259 -0.0445
35615W        W78553  28.917  20.476   0.587 -0.1235 -0.2327  0.0327
35616W        W78554  29.557  18.104   2.343  0.2666 -0.1522 -0.1467
35617W        W78555  28.263  18.741   0.184  0.2980  0.1793  0.0729
35618W        W78556  25.096  17.725   2.585  0.1027 -0.0606  0.1318
35619W        W78557  25.771  22.082   4.243  0.1411  0.0731 -0.0059
35620W        W78558  28.688  19.914   2.756 -0.3190  0.0142 -0.0996
35621W        W78559  24.916  18.366   0.474 -0.0608 -0.1676 -0.0926
35622W        W78560  28.031  18.457   0.509 -0.1425 -0.0740 -0.1117
35623W        W78561  27.222  20.771   0.085  0.1912 -0.3605  0.0051
35624W        W78562  25.730  19.247   2.203  0.2274  0.1343  0.1888
35625W        W78563  28.447  17.979   1.349  0.3685  0.2618  0.2621
35626W        W78564  28.525  21.974   3.599 -0.0481 -0.2687 -0.1632
35627W        W78565  27.816  21.589   1.657 -0.0494 -0.1394  0.1387
35628W        W78566  29.761  20.308   3.466  0.3256  0.1298  0.0714
35629W        W78567  27.810  20.123   1.456 -0.0618 -0.3525  0.3234
35630W        W78568  29.384  20.082  31.676  0.2433 -0.1363  0.0399
35631W        W78569  27.227  22.414   3.320 -0.2124  0.1315  0.2074
35632W        W78570  28.176  21.662   2.835 -0.2800  0.0405  0.0085
35633W        W78571  26.726  21.061   2.711 -0.0828  0.2351  0.4228
35634W        W78572  28.565  19.503   2.416 -0.1000  0.5512  0.1417
35635W        W78573  24.160  17.699   1.908 -0.1018  0.0555 -0.5067
35636W        W78574  25.855  20.713   0.718 -0.2634 -0.0287 -0.0143
35637W        W78575  26.687  20.108   1.430  0.0752  0.5417  0.1493
35638W        W78576  27.183  20.970   3.563 -0.2838 -0.1016  0.1634
35639W        W78577  27.396  19.414   1.418  0.0859 -0.2704 -0.2133
35640W        W78578  29.109  19.266   0.339 -0.0833  0.1471 -0.0869
35641W        W78579  28.139  23.514   3.096 -0.0077  0.0521  0.2774
35642W        W78580  26.553  20.977   1.864  0.1245  0.1216 -0.1587
35643W        W78581  25.914  19.410   7.038 -0.2251  0.1229  0.2180
35644W        W78582  25.915  18.735   4.492  0.0225 -0.3350 -0.1707
35645W        W78583  28.303  19.392   4.392 -0.1844  0.1166  0.0264
35646W        W78584  28.046  21.104   5.237 -0.0712 -0.3150 -0.0289
35647W        W78585  25.459  17.991   4.911 -0.2655  0.0178 -0.2974
35648W        W78586  27.949  21.265   4.549 -0.2172  0.0464 -0.3490
35649W        W78587  26.444  17.356   8.154  0.1985  0.2203  0.1672
35650W        W78588  26.859  20.979   6.520  0.2296  0.0792  0.1588
35651W        W78589  27.802  21.017   5.982 -0.3206 -0.0865 -0.0809
35652W        W78590  27.317  19.909   3.858  0.1852 -0.1241  0.0989
35653W        W78591  27.835  18.637   5.820 -0.0724  0.2371  0.1953
35654W        W78592  26.907  20.524   5.512 -0.0054 -0.3699  0.0619
35655W        W78593  27.060  17.949   5.017 -0.0266 -0.0014  0.2731
35656W        W78594  26.112  17.647   5.432 -0.0166  0.1143 -0.1156
35657W        W78595  28.237  19.437   6.638 -0.0174  0.2534  0.1474
35658W        W78596  26.619  19.934   4.415 -0.0231 -0.0920 -0.2961
35659W        W78597  25.855  18.143   5.783 -0.0491  0.2729  0.0054
35660W        W78598  26.853  20.320   4.619 -0.1639 -0.0102 -0.0288
35661W        W78599  27.867  20.852   3.960 -0.0734 -0.2901  0.0228
35662W        W78600  26.907  18.933   6.047 -0.1137  0.0639 -0.0910
35663W        W78601  27.661  18.396   7.613  0.0229  0.0333 -0.0301
35664W        W78602  26.276  21.223   2.678 -0.2003 -0.0368  0.1782
35665W        W78603  25.029  19.792   2.449  0.1511 -0.0306  0.1819
35666W        W78604  25.324  18.287   5.374 -0.0225  0.0709 -0.1308
35667W        W78605  25.946  19.099   5.287 -0.0223  0.2329 -0.2859
35668W        W78606  29.389  17.901   5.415 -0.2486 -0.0727  0.0506
35669W        W78607  28.504  20.400   5.410  0.0973 -0.1566  0.1409
35670W        W78608  26.615  21.045   5.647  0.1522  0.0735 -0.3018
35671W        W78609  27.488  21.441   3.440 -0.2385 -0.1621 -0.2408
35672W        W78610  28.264  19.858   6.279  0.3395 -0.2223 -0.1511
35673W        W78611  25.392  19.313   4.715 -0.4151 -0.3228 -0.0824
35674W        W78612  25.354  21.505   5.694 -0.0942  0.0024  0.0100
35675W        W78613  25.665  21.341   3.743  0.1044 -0.1446 -0.2522
35676W        W78614  29.505  21.593   3.429  0.1290  0.1743 -0.3185
35677W        W78615  27.790  20.786   7.310 -0.1082 -0.0075  0.0270
35678W        W78616  26.820  21.841   6.803 -0.3967 -0.0871 -0.3325
35679W        W78617  24.389  21.258   4.398 -0.0744  0.4359 -0.3164
35680W        W78618  25.990  20.546   6.429  0.1147  0.2119 -0.5081
35681W        W78619  26.672  19.772   6.193  0.1717 -0.0443  0.0355
35682W        W78620  26.968  19.362   6.274  0.0693 -0.2376  0.4824
35683W        W78621  26.245  19.589   4.312 -0.1498 -0.1906 -0.0120
35684W        W78622  26.698  20.671   3.498 -0.0316  0.0447 -0.3248
35685W        W78623  27.032  21.104   5.376 -0.1225 -0.0584 -0.1411
35686W        W78624  24.902  19.972   6.925 -0.2684  0.1124  0.0753
35687W        W78625  25.515  20.104   5.644  0.0012  0.1497 -0.0919
35688W        W78626  30.310  18.785   6.133  0.3273 -0.0482 -0.0987
35689W        W78627  26.427  21.334   3.172 -0.0010 -0.0702 -0.1786
35690W        W78628  29.004  20.457   5.208 -0.2065 -0.0856  0.2693
35691W        W78629  26.498  18.663   4.012  0.0249 -0.1782  0.2009
35692W        W78630  27.114  18.705   4.331 -0.0084 -0.2279 -0.1603
35693W        W78631  25.722  18.303   6.222 -0.1878  0.0797  0.1853
35694W        W78632  25.314  20.570   5.766  0.0407 -0.3752 -0.0411
35695W        W78633  26.546  17.548   6.122 -0.3638 -0.2753 -0.1114
35696W        W78634  28.641  19.832   5.970  0.1013  0.1027 -0.0736
35697W        W78635  27.302  18.215   5.344 -0.1170 -0.0158  0.0320
35698W        W78636  27.252  18.284   6.331  0.0624  0.4009  0.3983
35699W        W78637  25.270  21.213   6.646  0.1639 -0.0728  0.0716
35700W        W78638  23.914  19.455   3.539  0.2897 -0.1644 -0.0301
35701W        W78639  28.388  20.942   3.192  0.2629  0.0291 -0.0702
35702W        W78640  29.960  20.763   6.102 -0.0712  0.1836 -0.0078
35703W        W78641  26.610  19.961   3.606  0.1395  0.1270  0.2761
35704W        W78642  24.734  19.958   5.098  0.1742 -0.0279 -0.2082
35705W        W78643  24.513  20.682   6.970 -0.0482 -0.0982  0.1049
35706W        W78644  25.075  19.556   6.646 -0.0805  0.5318  0.4531
35707W        W78645  26.741  19.723   3.044 -0.1979  0.0374 -0.0117
35708W        W78646  30.173  21.204   6.177  0.0322 -0.1582 -0.2457
35709W        W78647  25.763  20.027   6.393 -0.1866  0.2358  0.1136
35710W        W78648  29.603  18.198   5.763  0.0614  0.3320 -0.1119
35711W        W78649  25.507  19.642   4.386  0.2988 -0.1194 -0.1619
35712W        W78650  27.618  20.236   6.471  0.0792 -0.0107  0.1102
35713W        W78651  28.776  20.017   4.268 -0.3379  0.3275 -0.1860
35714W        W78652  26.789  17.880   4.584 -0.0855 -0.0468  0.0318
35715W        W78653  28.629  18.372   7.149 -0.0470 -0.1017 -0.1221
35716W        W78654  27.373  20.620   3.992 -0.0577 -0.6231  0.4953
35717W        W78655  25.804  18.843   3.999 -0.1954  0.0046 -0.1693
35718W        W78656  29.589  21.780   4.817  0.0716 -0.0462  0.0667
35719W        W78657  28.654  20.497   4.230 -0.0629 -0.0086 -0.0159
35720W        W78658  25.226  20.021   6.548  0.0529 -0.1591 -0.1346
35721W        W78659  27.382  17.988   7.358  0.1087 -0.0389  0.0655
35722W        W78660  27.669  20.657   5.254  0.1584  0.1671  0.0366
35723W        W78661  24.950  21.130   5.181 -0.3019  0.3413  0.2235
35724W        W78662  25.125  20.176   5.226  0.0384  0.1239  0.1540
35725W        W78663  25.088  20.615   4.526 -0.0922  0.0850 -0.1147
35726W        W78664  25.617  16.657   7.038 -0.0311  0.1808 -0.0132
35727W        W78665  25.465  19.276   5.213  0.1439 -0.0653 -0.0508
35728W        W78666  28.277  18.805   4.381 -0.0561  0.1059 -0.3209
35729W        W78667  26.459  17.271   7.357 -0.4541  0.4931  0.0520
35730W        W78668  27.198  17.816   3.739  0.1334  0.0448 -0.1259
35731W        W78669  26.114  20.934   5.580 -0.0007  0.0613  0.3019
35732W        W78670  27.500  22.434   3.822 -0.1118 -0.0494  0.0401
35733W        W78671  27.588  20.864   4.366 -0.1958  0.1739 -0.3115
35734W        W78672  28.890  20.376   2.942 -0.1149 -0.0541  0.3081
35735W        W78673  25.235  17.504   6.700 -0.0849  0.2037 -0.0200
35736W        W78674  26.987  19.006   4.686  0.0161 -0.2734 -0.2916
35737W        W78675  25.506  18.533   6.693 -0.2571  0.3379 -0.4297
35738W        W78676  25.921  18.015   4.079  0.2211 -0.1920  0.0875
35739W        W78677  27.268  18.828   6.438 -0.0207  0.0177  0.0542
35740W        W78678  25.491  18.644   3.198 -0.1866 -0.0800  0.0829
35741W        W78679  27.364  20.424   4.866 -0.2698  0.0202 -0.1308
35742W        W78680  26.447  20.137   4.819  0.0270  0.0085 -0.3091
35743W        W78681  25.212  20.571   3.289  0.0448 -0.0887  0.2762
35744W        W78682  28.573  19.441   7.063  0.1342 -0.1620  0.3214
35745W        W78683  25.795  21.483   4.769  0.3224 -0.1379 -0.2185
35746W        W78684  29.647  21.793   6.823 -0.2998  0.1213 -0.0186
35747W        W78685  28.605  20.444   4.891 -0.1895 -0.0095 -0.0444
35748W        W78686  26.334  19.027   7.315  0.1183  0.3459  0.1930
35749W        W78687  25.524  19.063   3.498  0.2266  0.0153 -0.1447
35750W        W78688  26.631  21.070   4.312  0.2186 -0.0349  0.2699
35751W        W78689  25.480  21.043   5.622 -0.0120 -0.2305  0.1131
35752W        W78690  26.182  18.359   4.361 -0.0971 -0.0416 -0.1041
35753W        W78691  28.764  22.174   4.250 -0.1551  0.0822  0.1727
35754W        W78692  27.052  20.717   4.492 -0.0923  0.1849 -0.1784
35755W        W78693  25.083  20.845   6.342  0.0989 -0.1336 -0.1607
35756W        W78694  28.210  17.598   7.249 -0.3306  0.1207  0.0476
35757W        W78695  27.819  19.987   6.117 -0.0894 -0.1143  0.0421
35758W        W78696  28.243  20.789   4.399 -0.0157 -0.0876  0.1039
35759W        W78697  25.525  19.821   2.632 -0.2399  0.3618 -0.1591
35760W        W78698  27.754  21.421   5.006  0.1724  0.2510  0.0923
35761W        W78699  25.884  19.972   4.141  0.0047  0.1366  0.2638
35762W        W78700  25.685  18.603   5.323  0.2820  0.0809 -0.3495
35763W        W78701  27.340  21.479   4.696 -0.0047  0.0403  0.0305
35764W        W78702  28.644  19.523   5.295 -0.0127 -0.1416 -0.0285
35765W        W78703  23.119  19.512   7.726 -0.0846 -0.1646  0.1742
35766W        W78704  27.870  19.529   6.309  0.3347 -0.2389  0.0770
35767W        W78705  24.877  19.605   3.804 -0.2837  0.0192 -0.2575
35768W        W78706  25.519  19.525   7.573  0.0584  0.0293 -0.1137
35769W        W78707  27.111  17.427   4.587  0.2278 -0.0985 -0.0603
35770W        W78708  29.183  18.722   4.196 -0.1501 -0.0779 -0.0313
35771W        W78709  27.214  19.672   5.946  0.0857  0.0013  0.2821
35772W        W78710  28.421  20.915   3.912  0.1316 -0.0552  0.2726
35773W        W78711  28.101  20.062   3.638  0.0013 -0.0008  0.0938
35774W        W78712  27.600  18.297   3.706  0.1150 -0.4803 -0.0497
35775W        W78713  25.469  19.841   6.014  0.1652 -0.2624 -0.4671
35776W        W78714  27.753  22.595   3.298 -0.1168  0.2538 -0.0312
35777W        W78715  27.344  20.258   5.475  0.2557  0.2553 -0.3025
35778W        W78716  26.501  18.352   5.314  0.2900  0.0295 -0.0159
35779W        W78717  28.276  20.313   4.511  0.0464 -0.0747 -0.0337
35780W        W78718  25.297  19.630   5.556  0.1269  0.0617 -0.4343
35781W        W78719  28.526  20.917   5.241  0.1261  0.0602 -0.0201
35782W        W78720  29.573  20.725   5.808  0.2209  0.1350  0.4493
35783W        W78721  27.279  18.630   5.945  0.3893  0.2648 -0.1875
35784W        W78722  26.800  19.115   3.943 -0.1327 -0.1915  0.1739
35785W        W78723  27.785  20.447   4.458  0.0460 -0.2586 -0.0447
35786W        W78724  25.095  20.094   3.404  0.2190 -0.0922  0.2440
35787W        W78725  28.707  18.589   6.671  0.1649 -0.1371  0.0581
35788W        W78726  27.830  18.260   5.392  0.3179 -0.1767 -0.1177
35789W        W78727  27.006  18.778   5.186  0.0311 -0.0538 -0.3322
35790W        W78728  27.887  19.881   6.672 -0.3246 -0.1952 -0.0935
35791W        W78729  27.398  21.029   4.808 -0.0491  0.2373  0.2778
35792W        W78730  27.194  19.437   4.830 -0.3415 -0.0217 -0.1453
35793W        W78731  24.649  20.136   3.672  0.0397 -0.1931 -0.1420
35794W        W78732  27.155  19.116   5.588 -0.2643 -0.0277  0.1196
35795W        W78733  25.135  17.033   6.972 -0.1004  0.3081 -0.0842
35796W        W78734  24.317  20.575   5.723  0.0841  0.0452  0.0472
35797W        W78735  28.055  21.241   6.401  0.0207  0.1131  0.0361
35798W        W78736  28.758  21.029   3.578 -0.0749  0.0121 -0.0075
35799W        W78737  27.542  18.204   5.859  0.2058 -0.0352 -0.2809
35800W        W78738  26.511  18.736   4.604 -0.0581 -0.0318 -0.2072
35801W        W78739  26.989  21.515   3.336 -0.0059  0.1116  0.0212
35802W        W78740  26.346  20.362   3.473  0.0329  0.0037  0.0084
35803W        W78741  26.799  19.022   6.562  0.2602  0.3797 -0.1426
35804W        W78742  26.828  22.240   4.316 -0.1986  0.2887 -0.3513
35805W        W78743  27.268  21.413   2.385  0.2089 -0.0669  0.1433
35806W        W78744  27.434  19.056   5.094 -0.1458 -0.0481 -0.0704
35807W        W78745  26.462  21.795   2.998  0.0995 -0.0068  0.2854
35808W        W78746  29.110  16.986   5.742 -0.3841 -0.4165  0.1524
35809W        W78747  23.996  21.423   6.168 -0.0899 -0.0754  0.1269
35810W        W78748  26.647  18.310   4.285 -0.4505  0.0236  0.0744
35811W        W78749  25.343  19.767   3.935  0.3156 -0.4455 -0.0372
35812W        W78750  28.198  18.320   5.725 -0.2609 -0.2684 -0.1640
35813W        W78751  28.531  20.859   2.274 -0.2715  0.0383 -0.0315
35814W        W78752  26.802  17.941   6.352 -0.3084 -0.1633 -0.2264
35815W        W78753  26.504  17.776   5.119  0.3351  0.0410 -0.2558
35816W        W78754  23.561  21.220   5.831  0.3775 -0.2002 -0.1532
35817W        W78755  27.898  19.683   5.788 -0.1831 -0.1264  0.1447
35818W        W78756  27.589  19.295   3.686  0.1081  0.0074 -0.0474
35819W        W78757  27.968  20.743   4.830  0.1788  0.1135  0.0471
35820W        W78758  26.018  19.415   5.864 -0.1884 -0.2166 -0.0981
35821W        W78759  24.859  19.377   3.350 -0.2146  0.0741 -0.1146
35822W        W78760  28.266  19.142   7.533  0.0756 -0.2428 -0.3991
35823W        W78761  25.923  18.108   5.217  0.0825 -0.0661  0.0750
35824W        W78762  26.314  19.443   5.366 -0.2552  0.1402 -0.0955
35825W        W78763  26.576  21.790   5.986 -0.2541  0.1184  0.0444
35826W        W78764  24.914  19.013   4.678  0.0482 -0.0343  0.4230
35827W        W78765  25.075  21.144   4.534  0.0782 -0.0169  0.1540
35828W        W78766  25.985  17.599   7.894  0.2413 -0.3380 -0.0154
35829W        W78767  27.412  19.211   6.141 -0.0728 -0.2810  0.3753
35830W        W78768  27.797  18.630   5.049  0.1719 -0.2013  0.0934
35831W        W78769  25.074  18.457   6.275  0.1592  0.0044 -0.0756
35832W        W78770  26.251  20.428   6.015 -0.2785 -0.1595  0.0394
35833W        W78771  28.580  21.069   6.344  0.1016  0.0089  0.0640
35834W        W78772  28.084  19.162   7.033  0.0469  0.1033 -0.2496
35835W        W78773  25.736  20.262   6.859  0.0893 -0.1304  0.1300
35836W        W78774  27.363  17.173   5.430  0.1861  0.1745  0.1852
35837W        W78775  27.551  21.896   2.543 -0.0709  0.0301 -0.2743
35838W        W78776  27.892  19.279   8.040 -0.1468 -0.1705 -0.1662
35839W        W78777  25.850  19.454   4.992  0.2766 -0.2285  0.2198
35840W        W78778  24.296  20.009   5.434 -0.0794  0.0362  0.0164
35841W        W78779  26.943  20.728   5.000 -0.1512 -0.0007  0.2673
35842W        W78780  27.464  18.690   5.471  0.0712 -0.1512 -0.2205
35843W        W78781  26.266  20.071   6.342  0.3142  0.2298  0.0004
35844W        W78782  26.146  20.433   3.936  0.2420 -0.0099  0.1637
35845W        W78783  25.881  21.278   5.240  0.1180 -0.2732 -0.2549
35846W        W78784  28.630  18.910   5.402 -0.2267  0.2466  0.0903
35847W        W78785  26.850  20.201   4.098  0.1553 -0.3713 -0.2667
35848W        W78786  27.819  20.201   4.963  0.0970  0.0284 -0.0542
35849W        W78787  29.628  19.698   5.723 -0.0813  0.2089  0.4252
35850W        W78788  27.654  19.984   4.480  0.2307  0.0149 -0.1181
35851W        W78789  29.098  18.522   7.964  0.2114 -0.1241 -0.1045
35852W        W78790  27.007  17.366   5.144  0.1767 -0.0731  0.0327
35853W        W78791  28.732  20.840   4.677  0.0148  0.0725  0.0333
35854W        W78792  26.355  18.313   6.524  0.1815  0.2031 -0.3512
35855W        W78793  26.685  21.304   6.974  0.0606  0.2828  0.1269
35856W        W78794  25.261  19.358   6.208  0.1271 -0.0082  0.0545
35857W        W78795  26.694  19.275   4.387 -0.0290 -0.3446  0.2267
35858W        W78796  26.083  18.391   3.869 -0.1065 -0.1779  0.0504
35859W        W78797  25.832  19.199   6.312  0.3786  0.4515  0.0848
35860W        W78798  29.314  21.166   5.498 -0.0281 -0.0820  0.3143
35861W        W78799  25.713  20.365   3.436 -0.3089  0.0236 -0.1414
35862W        W78800  27.901  18.989   6.103 -0.0076 -0.3114  0.0218
35863W        W78801  25.405  19.813   7.021 -0.0129  0.0773 -0.2444
35864W        W78802  28.057  19.725   4.630 -0.0202  0.2975  0.1449
35865W        W78803  28.506  21.455   3.159 -0.2056  0.0054 -0.1512
35866W        W78804  26.537  21.162   5.158 -0.0725  0.0802  0.4574
35867W        W78805  26.300  17.682   7.101 -0.1533  0.1894  0.0420
35868W        W78806  27.875  21.871   5.266  0.2559 -0.2230  0.0036
35869W        W78807  28.719  18.344   6.181  0.3914  0.1832  0.2336
35870W        W78808  28.562  17.887   6.994  0.0715 -0.2718  0.0602
35871W        W78809  28.188  18.557   6.209  0.1294 -0.1750  0.1746
35872W        W78810  26.100  19.625   6.335  0.2082  0.0649  0.3869
35873W        W78811  25.424  18.243   7.194  0.1105 -0.3089 -0.2615
35874W        W78812  28.805  21.222   5.935 -0.2928  0.1237 -0.0194
35875W        W78813  28.287  19.311   5.048  0.0383  0.1705  0.2504
35876W        W78814  29.429  18.416   5.337  0.3301  0.1253 -0.2072
35877W        W78815  28.032  20.673   5.566 -0.0349  0.4344 -0.1933
35878W        W78816  26.311  19.615   4.818  0.0353 -0.0169 -0.1130
35879W        W78817  28.244  20.555   7.030 -0.1538  0.4193 -0.1646
35880W        W78818  26.243  19.090   3.122 -0.1059  0.1160  0.0049
35881W        W78819  29.067  18.349   8.485  0.0081 -0.0424 -0.1737
35882W        W78820  27.358  21.238   3.043 -0.4711 -0.1723  0.1290
35883W        W78821  28.280  21.584   5.252  0.1164  0.2859  0.3758
35884W        W78822  27.966  19.061   4.720 -0.5075 -0.1964 -0.1337
35885W        W78823  26.579  19.842   5.235 -0.1807 -0.1257 -0.1563
35886W        W78824  24.789  20.350   7.307  0.0326 -0.0516 -0.1142
35887W        W78825  27.344  19.889   4.944  0.1373  0.0232  0.0251
35888W        W78826  26.377  19.976   4.008  0.2730 -0.3215 -0.1187
35889W        W78827  27.565  21.116   5.398 -0.1172 -0.2019 -0.0497
35890W        W78828  28.222  18.417   6.798  0.0995 -0.1776  0.0031
35891W        W78829  27.658  18.646   4.221 -0.0197  0.2503  0.1818
35892W        W78830  28.683  19.143   6.655  0.2760 -0.0637  0.1326
35893W        W78831  25.911  20.944   4.887 -0.1747  0.0605 -0.2933
35894W        W78832  28.159  17.833   3.059  0.2816 -0.1602 -0.0904
35895W        W78833  25.808  21.760   5.460  0.0058  0.1701  0.1137
35896W        W78834  24.793  21.369   6.620 -0.2473  0.3501 -0.2911
35897W        W78835  25.982  20.344   5.602 -0.0106 -0.0911  0.2693
35898W        W78836  27.133  17.916   5.971  0.0731 -0.1595 -0.0726
35899W        W78837  28.353  18.915   5.815  0.4016 -0.0827  0.2409
35900W        W78838  27.001  19.554   5.258 -0.2917 -0.1191  0.1358
35901W        W78839  28.725  19.343   5.765 -0.0274 -0.0809  0.0838
35902W        W78840  27.389  20.145   5.929  0.1198 -0.0219  0.3104
35903W        W78841  25.919  18.805   5.974  0.2450  0.4217  0.2015
35904W        W78842  27.005  21.497   6.521  0.0062  0.0721 -0.2171
35905W        W78843  28.396  21.433   3.619 -0.0513  0.1506 -0.0912
35906W        W78844  26.481  20.190   5.639  0.2121  0.1953  0.1861
35907W        W78845  24.980  19.280   5.623 -0.1647  0.2309 -0.1033
35908W        W78846  27.405  19.678   6.388  0.0930 -0.0552 -0.1073
35909W        W78847  27.137  21.180   4.317  0.0104 -0.0458  0.1871
35910W        W78848  25.423  18.439   5.801 -0.3011  0.0320  0.1846
35911W        W78849  27.205  20.913   2.621  0.0135  0.0819  0.1291
35912W        W78850  26.493  21.450   6.509  0.3751  0.2853 -0.1108
35913W        W78851  24.481  19.756   4.555  0.0145  0.2371 -0.0422
35914W        W78852  25.976  20.437   4.844  0.2283 -0.0627  0.0185
35915W        W78853  26.778  19.765   4.820 -0.1299  0.1530 -0.0080
35916W        W78854  26.910  20.778   3.945  0.1550  0.2883 -0.2668
35917W        W78855  27.472  20.770   5.735  0.1006 -0.2856  0.0355
35918W        W78856  27.625  19.543   4.572  0.0673  0.5071  0.0448
35919W        W78857  26.243  20.269   4.375  0.2073  0.0091  0.0598
35920W        W78858  24.268  21.320   2.336  0.1948  0.0629 -0.1312
35921W        W78859  25.811  20.912   4.049  0.0637  0.2880 -0.1936
35922W        W78860  26.879  19.935   5.666 -0.0939  0.0098 -0.0275
35923W        W78861  27.458  19.661   7.470  0.1040 -0.1295 -0.2313
35924W        W78862  27.735  18.160   3.258 -0.2204 -0.4433 -0.1745
35925W        W78863  30.209  19.492   5.351  0.1162 -0.1084  0.0849
35926W        W78864  28.885  19.054   4.999 -0.3380 -0.0794 -0.1158
35927W        W78865  27.263  19.987   6.803  0.1481 -0.1502 -0.2976
35928W        W78866  26.309  19.087   6.752 -0.2006  0.1165  0.1190
35929W        W78867  27.776  17.966   4.124 -0.1197 -0.4635  0.5418
35930W        W78868  25.128  20.748   7.327  0.4828 -0.2059 -0.1023
35931W        W78869  28.954  18.828   7.012 -0.1589  0.2676 -0.2562
35932W        W78870  24.429  20.965   7.943  0.0439 -0.0366  0.1628
35933W        W78871  27.543  20.078   3.467 -0.0982 -0.2473  0.4738
35934W        W78872  26.184  19.152   4.792 -0.1339  0.2707  0.0886
35935W        W78873  27.501  19.442   5.471 -0.2138  0.1012  0.0511
35936W        W78874  28.106  17.912   5.994 -0.1022  0.0886  0.1799
35937W        W78875  27.081  19.848   4.436 -0.1562  0.2625 -0.1824
35938W        W78876  27.325  18.638   4.813 -0.0848 -0.4213 -0.0062
35939W        W78877  26.398  20.855   3.907 -0.0682 -0.2513  0.0383
35940W        W78878  26.875  21.241   6.075 -0.2734  0.1431  0.0844
35941W        W78879  27.672  20.730   6.431 -0.2173 -0.1676  0.2558
35942W        W78880  24.342  19.424   3.072 -0.1489 -0.0859 -0.0948
35943W        W78881  29.576  18.669   5.710  0.0523  0.1274 -0.1718
35944W        W78882  26.590  18.720   6.972 -0.0929 -0.0315  0.1030
35945W        W78883  29.155  20.251   6.048 -0.0256  0.1857 -0.0422
35946W        W78884  25.023  19.550   5.152 -0.3699 -0.0018  0.0644
35947W        W78885  28.342  18.700   4.859  0.2727 -0.0777  0.2105
35948W        W78886  26.137  18.617   5.570  0.2343  0.0523  0.1244
35949W        W78887  26.195  18.377   6.077 -0.0399 -0.0758 -0.0524
35950W        W78888  25.184  19.224   4.296  0.0687 -0.0306 -0.1234
35951W        W78889  28.134  20.299   6.484  0.0035  0.0451  0.0370
35952W        W78890  26.913  19.581   3.521 -0.0473 -0.0552 -0.0319
35953W        W78891  27.620  21.918   5.717 -0.1598  0.1165 -0.1281
35954W        W78892  25.017  18.149   5.006 -0.1967 -0.0726 -0.2627
35955W        W78893  27.633  19.628   4.084 -0.1328  0.0531 -0.0486
35956W        W78894  26.104  20.024   5.202  0.4178 -0.2164 -0.0285
35957W        W78895  26.789  18.303   6.036  0.0118  0.3113 -0.0044
35958W        W78896  27.359  21.071   6.291  0.4865 -0.5088 -0.0127
35959W        W78897  26.764  17.501   3.690  0.0273  0.1028  0.0716
35960W        W78898  30.241  20.655   4.433 -0.1140  0.1173  0.1774
35961W        W78899  28.445  20.006   6.787 -0.1341 -0.0177 -0.0308
35962W        W78900  28.099  21.422   4.083  0.0888  0.2187  0.3231
35963W        W78901  28.416  21.274   4.841  0.2583  0.1917 -0.0530
35964W        W78902  28.589  21.183   4.358  0.1752 -0.3550 -0.1692
35965W        W78903  25.249  18.671   4.912  0.1974 -0.5214  0.1561
35966W        W78904  28.103  22.317   5.533  0.0981  0.0468 -0.0906
35967W        W78905  29.348  21.522   5.154 -0.0756  0.0702 -0.2732
35968W        W78906  25.411  17.340   5.651 -0.1504  0.1101  0.2167
35969W        W78907  26.798  18.670   5.628 -0.1853  0.2521 -0.3919
35970W        W78908  24.555  20.523   4.078  0.0904  0.0144  0.0740
35971W        W78909  29.010  17.251   6.152 -0.4131 -0.0039  0.0318
35972W        W78910  28.091  17.970   6.935  0.0770  0.0113 -0.1199
35973W        W78911  26.877  21.557   2.859  0.3595  0.1953 -0.2087
35974W        W78912  30.128  17.361   7.158  0.1014  0.0616  0.1219
35975W        W78913  26.781  21.510   5.645  0.1828  0.0028 -0.1390
35976W        W78914  27.143  20.638   6.081  0.0948 -0.0664  0.1038
35977W        W78915  24.888  19.050   5.190 -0.2102 -0.0486 -0.1012
35978W        W78916  25.629  19.558   6.640  0.0850  0.1750  0.2579
35979W        W78917  26.333  21.194   4.700  0.1354  0.3158 -0.1465
35980W        W78918  25.579  21.569   4.229  0.0298  0.1752 -0.0998
35981W        W78919  28.593  20.748   5.732  0.0625 -0.0073 -0.3533
35982W        W78920  28.923  20.224   5.623 -0.3120 -0.1524  0.1038
35983W        W78921  29.500  20.733   5.329 -0.2636 -0.0657  0.3209
35984W        W78922  26.034  18.548   4.970  0.1114 -0.1187  0.0054
35985W        W78923  28.908  18.557   5.154 -0.2030 -0.2601  0.0331
35986W        W78924  28.678  18.502   5.679  0.2471 -0.0689  0.0331
35987W        W78925  24.773  19.213   6.871 -0.1277 -0.0237 -0.2277
35988W        W78926  24.732  19.854   3.178  0.1215 -0.0155 -0.3005
35989W        W78927  25.907  19.963   4.679  0.0218 -0.2131  0.0967
35990W        W78928  26.492  20.669   4.775  0.2036  0.1634 -0.2304
35991W        W78929  27.137  18.853   6.915 -0.5471 -0.3387 -0.4103
35992W        W78930  26.339  18.199   7.040 -0.1811  0.2302 -0.0865
35993W        W78931  26.482  18.875   5.235 -0.0636 -0.0288 -0.0611
35994W        W78932  25.837  17.655   4.998  0.3024 -0.2708 -0.0933
35995W        W78933  29.247  19.995   4.349 -0.2414  0.0875  0.0537
35996W        W78934  26.485  17.626   6.599 -0.1586  0.0758 -0.0455
35997W        W78935  25.588  18.392   4.124  0.2204 -0.2434 -0.1622
35998W        W78936  26.909  21.230   4.785 -0.0509  0.0880 -0.0035
35999W        W78937  26.691  20.340   3.102 -0.0321 -0.0181 -0.0948
36000W        W78938  26.288  19.047   4.244  0.2464 -0.1973 -0.4461
36001W        W78939  27.222  21.155   6.847  0.2256  0.0460  0.1165
36002W        W78940  24.296  20.721   3.501 -0.1924  0.2621  0.1517
36003W        W78941  26.639  19.473   6.642  0.5076  0.1345 -0.1049
36004W        W78942  27.570  19.001   7.042  0.0210  0.1597 -0.1523
36005W        W78943  24.585  17.505   4.509  0.2147  0.1690 -0.0647
36006W        W78944  28.145  18.670   5.375  0.2185  0.1629  0.0211
36007W        W78945  26.546  21.900   4.893 -0.0780  0.5181 -0.0984
36008W        W78946  27.101  20.070   3.216  0.2394 -0.2444  0.1231
36009W        W78947  25.724  20.424   6.011 -0.3357 -0.0491  0.2690
36010W        W78948  26.483  20.508   5.250 -0.0465 -0.0181  0.2013
36011W        W78949  25.959  16.887   6.568  0.0842 -0.2236 -0.0762
36012W        W78950  28.595  18.908   6.249  0.0600 -0.1223 -0.1136
36013W        W78951  26.070  20.957   6.072  0.2524  0.1170 -0.0785
36014W        W78952  30.545  20.805   3.880  0.2967  0.0097  0.1990
36015W        W78953  28.819  17.662   5.423  0.2047  0.2940 -0.0080
36016W        W78954  27.293  20.285   4.364  0.1329 -0.2191 -0.0552
36017W        W78955  26.109  17.910   7.526 -0.0284 -0.0925 -0.0250
36018W        W78956  24.709  20.654   6.053  0.1329  0.0517 -0.1230
36019W        W78957  28.854  19.936   7.070 -0.1496  0.2099 -0.0634
36020W        W78958  26.498  17.291   5.247 -0.1062  0.1106  0.1519
36021W        W78959  27.976  18.478   4.596  0.1249 -0.0940  0.0742
36022W        W78960  28.011  20.563   3.572  0.1438 -0.0005  0.2056
36023W        W78961  24.683  20.033   6.437  0.1379  0.3278  0.0549
36024W        W78962  26.982  18.715   3.807 -0.4261 -0.2085  0.1077
36025W        W78963  26.419  19.043   5.690 -0.2277  0.2762  0.5345
36026W        W78964  26.200  20.829   4.389 -0.2071 -0.0875  0.0525
36027W        W78965  27.386  20.510   7.236 -0.2545  0.2233 -0.1250
36028W        W78966  26.945  20.199   5.099 -0.0107  0.1251  0.0342
36029W        W78967  29.246  19.375   5.207 -0.0174 -0.0770  0.0058
36030W        W78968  26.320  21.566   5.469  0.1819 -0.0177 -0.2455
36031W        W78969  28.534  21.518   7.074 -0.1283 -0.1585 -0.0160
36032W        W78970  27.436  22.073   6.164 -0.3706  0.1124 -0.1801
36033W        W78971  27.893  20.147   5.482  0.1565 -0.1656 -0.4150
36034W        W78972  25.893  17.251   6.164  0.0754 -0.4172  0.1574
36035W        W78973  27.320  19.019   4.018 -0.5371  0.1134  0.3039
36036W        W78974  25.940  19.342   3.894 -0.2248  0.4737  0.2398
36037W        W78975  28.736  20.023   5.189 -0.2170  0.2034  0.0588
36038W        W78976  26.411  18.036   5.765  0.0711  0.3508 -0.1618
36039W        W78977  27.566  18.135   4.942 -0.1349  0.1211 -0.0023
36040W        W78978  26.468  22.665   4.988 -0.2568 -0.0463  0.0038
36041W        W78979  28.256  19.364   5.590 -0.0754  0.0615 -0.2600
36042W        W78980  25.555  19.745   8.604 -0.0533  0.0953 -0.0867
36043W        W78981  25.423  19.583   8.053 -0.1843  0.1466 -0.0957
36044W        W78982  29.322  18.542   6.926 -0.5011  0.1359 -0.5202
36045W        W78983  29.393  19.439   9.742 -0.2152  0.0602  0.0187
36046W        W78984  25.642  19.287   8.371 -0.1361  0.2968 -0.5586
36047W        W78985  26.418  20.288   6.929  0.0298  0.2255 -0.0802
36048W        W78986  27.655  19.719   8.810 -0.2284  0.0002  0.0582
36049W        W78987  29.984  22.079   8.617 -0.1043 -0.0361 -0.1409
36050W        W78988  27.638  19.506   6.939  0.1397 -0.2122  0.1782
36051W        W78989  28.282  18.689   9.694  0.1991 -0.5577 -0.2750
36052W        W78990  27.684  17.503   7.288  0.0604  0.1450 -0.2227
36053W        W78991  26.049  18.394   8.934 -0.2518  0.0758  0.0537
36054W        W78992  29.146  19.167   8.820  0.1139  0.0542 -0.2241
36055W        W78993  24.865  19.548   7.198 -0.1093 -0.3193 -0.0912
36056W        W78994  27.399  19.228   7.936  0.3073 -0.1119  0.5772
36057W        W78995  27.883  18.161   8.218 -0.1771 -0.1840 -0.1287
36058W        W78996  27.685  21.282   8.598  0.0209 -0.0783  0.0499
36059W        W78997  28.495  19.237   9.680 -0.0321  0.1665 -0.3311
36060W        W78998  27.049  20.504   7.807  0.0419 -0.0641  0.1304
36061W        W78999  25.297  19.054   6.654 -0.0127  0.0665 -0.5236
36062W        W79000  24.885  19.284   9.898  0.3565 -0.2816  0.0579
36063W        W79001  26.849  18.298   8.252  0.0134  0.2458 -0.0785
36064W        W79002  28.876  19.675   8.967  0.3344 -0.0596 -0.0732
36065W        W79003  28.281  19.540   8.042 -0.1088 -0.4695 -0.0172
36066W        W79004  27.527  22.804   9.115 -0.0467  0.1047 -0.0795
36067W        W79005  28.831  21.629   7.775  0.0054  0.2538 -0.0635
36068W        W79006  27.283  17.822   8.380 -0.0742  0.1345 -0.0402
36069W        W79007  24.009  21.801   8.192 -0.0961  0.4162 -0.1238
36070W        W79008  26.468  20.426   9.912 -0.0324 -0.0710 -0.0576
36071W        W79009  28.285  20.412   8.210  0.2082 -0.0246  0.0971
36072W        W79010  25.566  20.031   7.675  0.4725  0.0230 -0.1155
36073W        W79011  28.473  19.792   9.696 -0.0200 -0.0688  0.0320
36074W        W79012  26.518  19.038   7.749 -0.0941 -0.2584  0.0218
36075W        W79013  26.762  20.258   6.024  0.0634  0.0004 -0.2516
36076W        W79014  26.706  20.740   6.944 -0.1302  0.0207 -0.0867
36077W        W79015  24.703  20.420   9.775  0.0643 -0.1131 -0.2704
36078W        W79016  26.159  20.717   6.936 -0.2389 -0.0431  0.1654
36079W        W79017  27.686  19.976   7.111  0.4167  0.0138 -0.0647
36080W        W79018  27.154  18.220   6.854 -0.0805  0.0769 -0.1605
36081W        W79019  26.474  19.201   6.240 -0.3601 -0.0814  0.3845
36082W        W79020  26.551  17.487   9.780  0.5661 -0.0922 -0.2121
36083W        W79021  24.591  19.445   8.144  0.1748 -0.2580 -0.4008
36084W        W79022  24.661  18.319  10.177 -0.1522  0.2761  0.0173
36085W        W79023  25.739  19.022   6.816  0.0093 -0.1900  0.2052
36086W        W79024  27.426  18.691   8.957  0.0272  0.0609 -0.1323
36087W        W79025  25.713  21.547   9.948  0.2587 -0.2890 -0.0802
36088W        W79026  25.661  18.082   7.939  0.2764  0.3019 -0.2454
36089W        W79027  26.924  20.261   7.019  0.0873  0.2158  0.0832
36090W        W79028  27.950  21.120   8.163  0.1122 -0.0289  0.0531
36091W        W79029  26.628  20.826   7.834  0.3034  0.0269  0.0817
36092W        W79030  25.007  20.014   8.986 -0.0692 -0.2580 -0.0739
36093W        W79031  27.034  16.922   7.188  0.1695 -0.0056 -0.3204
36094W        W79032  30.086  18.233   7.346  0.1321 -0.2442  0.0163
36095W        W79033  25.613  20.211   8.421  0.0896 -0.2354 -0.1766
36096W        W79034  29.714  20.408   8.836  0.1349 -0.0981 -0.1077
36097W        W79035  27.719  20.466   6.857 -0.0720 -0.2539  0.2011
36098W        W79036  29.143  18.010   8.077 -0.0971  0.0416 -0.1106
36099W        W79037  28.779  17.766  10.090  0.2451 -0.3035 -0.2732
36100W        W79038  25.975  18.747   6.461 -0.1843 -0.2154 -0.0380
36101W        W79039  26.372  19.522   7.074 -0.0038 -0.1353 -0.1706
36102W        W79040  32.684  22.789   9.475 -0.2091  0.1442 -0.1864
36103W        W79041  29.661  18.522   8.056  0.1430  0.0391  0.0036
36104W        W79042  24.249  19.933  10.059  0.0310  0.1311 -0.2038
36105W        W79043  25.449  20.547   6.547  0.2111 -0.1434 -0.4765
36106W        W79044  25.134  20.397   7.747 -0.1200 -0.0830 -0.0486
36107W        W79045  25.612  20.391   7.330 -0.3631  0.0869 -0.1241
36108W        W79046  27.318  17.651   9.509 -0.1844  0.0600  0.0319
36109W        W79047  28.049  19.882   9.159  0.1447 -0.1246  0.0683
36110W        W79048  29.263  19.246   7.373 -0.2383  0.0778 -0.0059
36111W        W79049  30.060  18.345   8.429  0.1022  0.2876 -0.3616
36112W        W79050  25.825  19.866   7.260  0.0499 -0.2199 -0.2291
36113W        W79051  28.414  21.878   7.804 -0.3478  0.1434 -0.2007
36114W        W79052  29.081  18.966   7.757 -0.1401  0.1573  0.0253
36115W        W79053  26.334  20.923   6.522 -0.2345 -0.0931 -0.0823
36116W        W79054  22.776  19.842  10.326 -0.2571  0.1023  0.0948
36117W        W79055  27.325  18.290   8.211  0.2139 -0.2328 -0.1113
36118W        W79056  27.266  18.771   8.453 -0.0445  0.1386 -0.2042
36119W        W79057  25.181  19.142   7.557 -0.1082 -0.0547  0.0779
36120W        W79058  27.965  18.831   8.843 -0.0456 -0.1793  0.0605
36121W        W79059  28.164  18.334   7.797 -0.1223  0.0656  0.0055
36122W        W79060  24.834  18.962   7.284 -0.2329  0.1777 -0.2337
36123W        W79061  25.800  20.987   8.116 -0.2825 -0.0530 -0.1315
36124W        W79062  28.426  22.126   8.303 -0.2716 -0.2673 -0.4018
36125W        W79063  28.424  22.292   7.364  0.0074  0.0164 -0.0268
36126W        W79064  28.456  20.155   8.901  0.0825 -0.0893 -0.0685
36127W        W79065  26.183  19.246   9.174 -0.3352 -0.3116 -0.1798
36128W        W79066  26.525  19.425   8.407 -0.2088 -0.0026 -0.1198
36129W        W79067  27.009  20.855   8.247  0.1909 -0.1042  0.2522
36130W        W79068  27.654  18.564   8.529 -0.2013  0.2173 -0.0472
36131W        W79069  28.637  20.722   8.901 -0.1315  0.1725 -0.3024
36132W        W79070  26.800  19.194   7.106  0.0345  0.1514 -0.1278
36133W        W79071  30.323  20.263   8.798 -0.1375  0.3083 -0.1440
36134W        W79072  28.493  18.895   8.760 -0.0483  0.2106 -0.3256
36135W        W79073  25.582  16.180   6.885 -0.1520  0.2621  0.1329
36136W        W79074  27.518  21.961   9.248  0.0502  0.0686  0.2155
36137W        W79075  25.963  21.478   8.017  0.2316 -0.1234 -0.1178
36138W        W79076  26.437  17.979   8.203  0.1580  0.1171 -0.3215
36139W        W79077  25.990  18.676   8.172  0.0711 -0.0584  0.2030
36140W        W79078  28.023  19.334   8.948 -0.1159  0.1773 -0.0067
36141W        W79079  26.995  18.734   8.023 -0.2027  0.2165 -0.1365
36142W        W79080  28.886  16.812   9.864  0.0691 -0.0848  0.1250
36143W        W79081  29.191  19.946   9.399  0.1060  0.0028 -0.3817
36144W        W79082  28.049  19.974   8.136 -0.1254  0.0614 -0.0402
36145W        W79083  28.250  18.927   6.602 -0.0637 -0.2708  0.0484
36146W        W79084  28.682  17.687   7.479  0.0414 -0.3772  0.4102
36147W        W79085  28.328  20.346   9.395  0.0954 -0.0294  0.0776
36148W        W79086  26.560  19.248   8.877 -0.2454 -0.4834 -0.0293
36149W        W79087  26.770  18.297   7.260 -0.0549 -0.0808 -0.1087
36150W        W79088  29.395  20.012   8.908 -0.1025  0.0172  0.1101
36151W        W79089  24.404  19.289   8.625 -0.1246  0.1930 -0.0772
36152W        W79090  28.433  21.581   8.280 -0.2566  0.0217 -0.1696
36153W        W79091  28.714  18.183   9.265 -0.2430  0.0637 -0.0414
36154W        W79092  26.525  18.696   6.247 -0.3688  0.0843 -0.1338
36155W        W79093  28.671  19.256   8.404 -0.0142 -0.1498 -0.0343
36156W        W79094  24.440  20.443   6.454 -0.1673 -0.1133 -0.0856
36157W        W79095  26.893  17.823   9.765 -0.0024  0.0160 -0.2389
36158W        W79096  27.528  18.105   9.197 -0.1784 -0.2098 -0.0126
36159W        W79097  28.417  19.687   8.742  0.0391  0.5034  0.1318
36160W        W79098  28.916  20.231   8.038  0.3237  0.0571  0.0753
36161W        W79099  25.514  19.119   5.847 -0.1135  0.1278  0.0548
36162W        W79100  27.664  19.043   8.531  0.0591  0.0293  0.0829
36163W        W79101  26.258  20.878   8.701 -0.1960 -0.3012  0.0278
36164W        W79102  26.430  20.977   7.330  0.1704  0.0144  0.0208
36165W        W79103  28.108  18.817   7.871 -0.2656  0.1289  0.0908
36166W        W79104  25.588  22.114   7.451 -0.0975  0.1401 -0.0125
36167W        W79105  26.611  20.483   6.523  0.1199 -0.2659 -0.0239
36168W        W79106  28.340  17.095  10.174 -0.0809  0.1243  0.1577
36169W        W79107  25.291  19.560   9.046  0.1420 -0.1441  0.0701
36170W        W79108  26.927  19.664   7.030 -0.0034 -0.1367  0.0532
36171W        W79109  27.726  21.161   9.061 -0.0339 -0.0561  0.3387
36172W        W79110  24.977  20.853   6.868 -0.2206 -0.2252  0.1907
36173W        W79111  29.652  16.737  10.271 -0.3202  0.0579 -0.0761
36174W        W79112  24.930  20.857   7.891  0.2509 -0.2420  0.1384
36175W        W79113  25.930  18.178   6.712 -0.1682 -0.1023  0.0089
36176W        W79114  25.377  18.812   7.129 -0.1819 -0.1029 -0.1046
36177W        W79115  28.623  18.703   7.912 -0.0436  0.1167  0.0385
36178W        W79116  27.817  19.347   7.466  0.0314 -0.0284  0.1857
36179W        W79117  25.261  17.091  10.960 -0.0293 -0.1812  0.1526
36180W        W79118  25.848  18.779   8.624 -0.2496  0.0139 -0.0204
36181W        W79119  26.409  20.511   9.023 -0.0735  0.1170 -0.0881
36182W        W79120  28.353  20.053   7.325 -0.2043 -0.0343  0.0721
36183W        W79121  26.416  16.275   5.931  0.1802 -0.2117 -0.0628
36184W        W79122  27.671  20.361   8.692 -0.0609 -0.1435  0.3082
36185W        W79123  27.767  17.362   8.884  0.0159 -0.0822 -0.4249
36186W        W79124  26.196  20.273   8.653  0.1150 -0.2477  0.0496
36187W        W79125  27.683  20.436   9.514  0.2641  0.3665 -0.3917
36188W        W79126  26.002  18.634   7.016  0.0287  0.1205 -0.2625
36189W        W79127  25.123  19.449   8.565 -0.1873 -0.0756  0.1369
36190W        W79128  28.541  19.403   9.203  0.0081 -0.2252  0.1460
36191W        W79129  28.191  17.399   9.212 -0.0751 -0.1504  0.2377
36192W        W79130  27.794  17.631   8.442 -0.1773  0.0286 -0.1900
36193W        W79131  27.489  19.484   8.343 -0.0270  0.2775 -0.3015
36194W        W79132  28.100  19.456   9.467  0.0082  0.2152 -0.3068
36195W        W79133  27.009  19.801   8.473 -0.1225 -0.2404  0.2077
36196W        W79134  28.412  17.869   9.014 -0.0742 -0.0468 -0.2081
36197W        W79135  28.879  21.902   8.212  0.1338 -0.3107 -0.1332
36198W        W79136  25.712  20.597   8.799 -0.0474 -0.0315 -0.1809
36199W        W79137  23.081  19.643   8.893 -0.1391 -0.0021 -0.0815
36200W        W79138  25.603  20.495   7.908  0.2859  0.0051  0.1351
36201W        W79139  29.129  17.619   9.650 -0.0499 -0.2206 -0.0926
36202W        W79140  25.901  19.718   7.939  0.0711 -0.1538 -0.0816
36203W        W79141  25.491  20.981   7.694  0.1562  0.1678 -0.3754
36204W        W79142  25.652  19.306   8.919 -0.0390 -0.2508 -0.3408
36205W        W79143  29.034  18.037   6.969  0.0074 -0.2304  0.0636
36206W        W79144  27.753  21.015   6.823 -0.4490  0.1296 -0.0430
36207W        W79145  28.206  20.510   8.722  0.1848  0.0178 -0.1399
36208W        W79146  26.831  18.517   6.571 -0.1560 -0.0359 -0.1666
36209W        W79147  29.168  17.287  10.042  0.3151  0.1733 -0.1532
36210W        W79148  28.668  18.344   9.756  0.1565  0.1615 -0.0452
36211W        W79149  28.608  19.209   7.896 -0.0093  0.1560  0.1204
36212W        W79150  26.789  17.660   7.329 -0.0514  0.1543 -0.2342
36213W        W79151  27.538  19.995   8.383 -0.2916 -0.2361  0.0172
36214W        W79152  27.471  20.907   8.301  0.0296  0.3017 -0.2158
36215W        W79153  26.545  19.714   7.956  0.4030 -0.1546 -0.1799
36216W        W79154  28.845  18.795   8.379 -0.3155  0.2390 -0.2185
36217W        W79155  25.269  19.000   9.790  0.0231  0.2916 -0.0969
36218W        W79156  28.913  20.218   9.715  0.0937 -0.1607  0.0936
36219W        W79157  27.075  19.624   7.862 -0.0467  0.4317 -0.0757
36220W        W79158  26.095  19.222   8.051  0.3527 -0.0755  0.0460
36221W        W79159  27.234  19.306   7.221  0.1545 -0.0619 -0.0006
36222W        W79160  29.073  18.452   7.451  0.0445  0.1256  0.0660
36223W        W79161  27.959  22.058   8.026  0.2082 -0.1220  0.2368
36224W        W79162  27.650  18.595   6.274 -0.3102 -0.0649 -0.1218
36225W        W79163  29.487  19.534   9.076 -0.1505  0.0573 -0.2749
36226W        W79164  29.331  19.501   7.813  0.0263  0.4028  0.0406
36227W        W79165  26.835  18.756   7.444  0.2098 -0.0690 -0.1897
36228W        W79166  26.765  18.926   9.772 -0.0389 -0.0478  0.0141
36229W        W79167  27.877  17.890   6.473  0.1032 -0.1856 -0.0514
36230W        W79168  26.842  21.453   8.921  0.2258  0.2065  0.3485
36231W        W79169  26.769  20.959   8.822 -0.0201 -0.1685  0.2578
36232W        W79170  28.106  19.691   7.075 -0.3511 -0.1410 -0.0433
36233W        W79171  26.657  19.208   9.366 -0.1614 -0.0334 -0.3128
36234W        W79172  26.353  18.496   7.469 -0.0631 -0.1750 -0.2523
36235W        W79173  26.674  19.951   6.705 -0.2217  0.0892  0.1839
36236W        W79174  27.059  19.150   8.238  0.5021  0.3582  0.1778
36237W        W79175  27.859  18.387   7.152 -0.1010 -0.2672  0.3617
36238W        W79176  25.013  19.916   7.983 -0.0994 -0.2633  0.0065
36239W        W79177  26.680  18.279   9.582 -0.1598  0.2414 -0.4314
36240W        W79178  27.291  20.040   8.796  0.0001  0.1063 -0.0845
36241W        W79179  25.130  19.923   7.455 -0.1051  0.0340  0.2627
36242W        W79180  28.129  17.427   8.207  0.0329  0.2099 -0.1924
36243W        W79181  29.924  19.861   8.963 -0.0722 -0.0967  0.0772
36244W        W79182  26.938  20.050   8.042  0.1442  0.0237  0.0337
36245W        W79183  26.349  18.939   8.437  0.0044 -0.0395 -0.1469
36246W        W79184  28.874  21.102   7.713 -0.1949  0.0849 -0.1448
36247W        W79185  24.723  20.427   8.656 -0.0985  0.3605 -0.0291
36248W        W79186  26.088  20.190   8.118  0.1367 -0.3384 -0.3849
36249W        W79187  25.920  17.795   8.327  0.0697  0.1851 -0.2964
36250W        W79188  27.371  18.487   7.202  0.2573 -0.0803 -0.2721
36251W        W79189  26.312  18.808   8.908  0.2433 -0.2632 -0.0957
36252W        W79190  25.394  20.800   8.301  0.0082  0.3104 -0.0337
36253W        W79191  27.886  20.319   7.540  0.1334 -0.0132  0.0512
36254W        W79192  27.954  21.623   8.217 -0.0631  0.2787  0.0302
36255W        W79193  29.151  22.164   8.900  0.0579  0.1091 -0.1526
36256W        W79194  26.625  18.187   7.722 -0.0169 -0.2716  0.4404
36257W        W79195  27.659  19.540   9.296  0.0906 -0.1635  0.4121
36258W        W79196  24.980  21.404   7.097 -0.0914 -0.1944  0.1322
36259W        W79197  27.516  20.020   7.916  0.3779  0.2884  0.0150
36260W        W79198  25.552  20.136   8.927 -0.0110  0.0142 -0.2327
36261W        W79199  30.868  17.675   7.897  0.0129 -0.0417 -0.0684
36262W        W79200  29.109  18.178   9.547  0.1305 -0.0066 -0.3051
36263W        W79201  28.764  19.697   7.955  0.1993  0.1523 -0.1437
36264W        W79202  27.646  18.905   9.443  0.1718 -0.0388 -0.0455
36265W        W79203  26.791  19.439   5.763 -0.0139 -0.1134  0.2474
36266W        W79204  29.249  22.638   7.642  0.0257 -0.0106  0.0986
36267W        W79205  25.442  18.728   8.321 -0.0765 -0.1274  0.0419
36268W        W79206  25.735  19.061   7.417  0.1279 -0.2052  0.1009
36269W        W79207  28.184  18.095   9.463  0.1651 -0.3187  0.0558
36270W        W79208  27.087  20.114   6.390  0.0579  0.1785  0.2925
36271W        W79209  28.967  20.852   8.218 -0.1947  0.1403 -0.1301
36272W        W79210  25.610  21.181   9.527 -0.1973  0.2732 -0.1350
36273W        W79211  26.522  18.589   8.022  0.0580 -0.1701 -0.1321
36274W        W79212  26.745  19.693   9.329  0.1551  0.2338 -0.0257
36275W        W79213  25.084  18.596   7.496 -0.2845 -0.0923  0.1023
36276W        W79214  31.094  19.303   8.535 -0.1811  0.2390 -0.0467
36277W        W79215  24.834  19.350   9.049  0.0910 -0.3947  0.0481
36278W        W79216  27.801  18.703   9.897 -0.1693 -0.1285  0.0122
36279W        W79217  26.114  19.354   7.588  0.1671  0.3555 -0.1869
36280W        W79218  27.184  19.175   9.323 -0.2062  0.0011  0.2256
36281W        W79219  23.797  18.877   9.711 -0.1027  0.0336 -0.3043
36282W        W79220  26.407  19.716   5.739 -0.0999  0.4251 -0.0130
36283W        W79221  26.047  19.873   6.817  0.0925 -0.2815 -0.2158
36284W        W79222  25.867  19.726   9.005  0.2590 -0.1876 -0.0230
36285W        W79223  27.236  19.325   6.718  0.0257 -0.0060  0.1743
36286W        W79224  27.150  18.328   7.670 -0.1669  0.0065 -0.2047
36287W        W79225  26.438  19.898   9.754 -0.1158 -0.0401 -0.1096
36288W        W79226  25.778  17.107   7.812 -0.2084 -0.1652 -0.1015
36289W        W79227  28.596  21.027   7.339  0.2749  0.1287 -0.1871
36290W        W79228  30.456  19.362   9.195  0.0197  0.1158  0.1087
36291W        W79229  26.670  20.779   6.080  0.2337 -0.4030 -0.0740
36292W        W79230  28.392  19.613   7.534 -0.1260 -0.0764  0.0002
36293W        W79231  27.886  20.645   9.121  0.2394  0.1883 -0.0810
36294W        W79232  24.694  18.893   8.970  0.1316 -0.1703  0.1228
36295W        W79233  26.208  20.552   9.515 -0.1035  0.3419 -0.2863
36296W        W79234  28.551  20.835   7.937 -0.1369 -0.3878 -0.1710
36297W        W79235  27.561  17.885   7.925  0.1509 -0.0071 -0.0963
36298W        W79236  29.103  19.836   8.400  0.3784  0.0018 -0.0842
36299W        W79237  24.891  20.916   8.545 -0.1305  0.2674 -0.0274
36300W        W79238  28.177  20.999   8.908 -0.0855 -0.1183  0.0561
36301W        W79239  25.799  20.946   6.564  0.0680  0.1203  0.0294
36302W        W79240  27.296  18.824   9.885  0.1338  0.1797  0.1595
36303W        W79241  25.048  18.457   6.861  0.3446 -0.2549 -0.2087
36304W        W79242  26.111  18.274   7.920 -0.0297 -0.0542  0.2907
36305W        W79243  26.108  21.765   6.092 -0.2023 -0.1400 -0.0723
36306W        W79244  28.378  22.324   8.868 -0.1816  0.2399  0.0903
36307W        W79245  28.249  19.050   8.293  0.0345 -0.0754 -0.2596
36308W        W79246  28.163  21.515   8.780 -0.2665  0.3122 -0.3424
36309W        W79247  26.239  18.304   9.423  0.0930 -0.2481  0.0733
36310W        W79248  29.871  18.996   8.254 -0.1938 -0.3975  0.1855
36311W        W79249  29.290  19.916   7.509 -0.0317  0.2341  0.0678
36312W        W79250  25.005  21.215   9.409 -0.0237 -0.1150 -0.3376
36313W        W79251  25.282  18.082   6.503 -0.0404  0.0352 -0.1513
36314W        W79252  24.068  20.201   7.640  0.0166  0.2332  0.1439
36315W        W79253  28.217  18.945  10.169  0.1288  0.2340 -0.0803
36316W        W79254  27.343  18.798   7.592 -0.0133  0.1042 -0.1010
36317W        W79255  25.695  17.905   8.774 -0.0003  0.2663  0.0777
36318W        W79256  27.849  20.482   6.029 -0.0173 -0.0837  0.3261
36319W        W79257  26.506  19.388   9.769 -0.2475 -0.3321 -0.1071
36320W        W79258  26.294  18.580   9.910 -0.2293  0.0965 -0.4313
36321W        W79259  28.347  21.338   7.841 -0.0430  0.0654  0.0149
36322W        W79260  26.646  19.491   7.533 -0.0066 -0.0389  0.2380
36323W        W79261  28.236  17.946   8.430 -0.2385 -0.2829  0.1132
36324W        W79262  26.280  19.824   7.532  0.0652 -0.2703  0.0766
36325W        W79263  25.911  18.248   8.379 -0.1197 -0.1560  0.0233
36326W        W79264  28.026  19.503   8.452 -0.2109  0.1042  0.1236
36327W        W79265  26.546  20.524   8.262  0.2567 -0.0567  0.0904
36328W        W79266  27.551  20.623   7.851  0.0135 -0.1965 -0.1097
36329W        W79267  25.392  18.300   8.669  0.1957  0.0478 -0.2384
36330W        W79268  29.372  20.352   7.735 -0.1295  0.1932  0.0433
36331W        W79269  28.039  20.794   7.757 -0.2922 -0.2171 -0.0419
36332W        W79270  28.377  18.543   9.160 -0.0514 -0.0100 -0.1349
36333W        W79271  27.729  19.130   6.579  0.1554  0.0446 -0.0114
36334W        W79272  28.014  22.410   8.359 -0.0150  0.2939  0.1662
36335W        W79273  27.589  17.377   7.859  0.2590 -0.1280 -0.0505
36336W        W79274  28.866  19.518   7.478 -0.0699 -0.2245 -0.0634
36337W        W79275  26.522  20.236   7.789  0.0503 -0.2201  0.0215
36338W        W79276  25.579  19.366   9.384  0.0087  0.1526 -0.3453
36339W        W79277  27.628  18.638   8.045 -0.1338  0.1015 -0.2039
36340W        W79278  28.018  21.978   8.595 -0.1141  0.0872 -0.1638
36341W        W79279  25.364  19.337   7.093 -0.0777  0.3402 -0.2351
36342W        W79280  28.942  20.607   7.609 -0.3496 -0.1890 -0.2276
36343W        W79281  26.885  20.487   8.689 -0.0543  0.1799  0.2147
36344W        W79282  26.304  24.205  10.009  0.0985  0.1142 -0.2839
36345W        W79283  28.623  21.307   8.680  0.0587  0.2457 -0.1870
36346W        W79284  26.781  16.588  10.804 -0.0651 -0.2987  0.5857
36347W        W79285  26.924  18.751   9.253 -0.1242  0.1228 -0.0210
36348W        W79286  28.435  20.021   7.870  0.0243 -0.0022 -0.4045
36349W        W79287  28.826  17.949   8.614 -0.0835 -0.0049 -0.1116
36350W        W79288  27.136  18.303   8.710  0.2354  0.1174  0.0418
36351W        W79289  28.299  19.339   6.121 -0.2463  0.0538 -0.1709
36352W        W79290  27.978  21.469   9.420  0.0036  0.1126  0.0560
36353W        W79291  26.596  20.062   8.407 -0.0845  0.1674  0.0625
36354W        W79292  27.401  24.635   2.262  0.1278  0.1604  0.1103
36355W        W79293  26.312  21.422   1.993 -0.1275  0.0287 -0.0652
36356W        W79294  27.742  21.618   0.566  0.1486  0.0830  0.0568
36357W        W79295  27.895  24.528   0.795  0.1737  0.0839 -0.0934
36358W        W79296  25.866  20.649   1.441  0.3004  0.2833  0.1119
36359W        W79297  27.522  25.971   0.211  0.0823 -0.3593 -0.0743
36360W        W79298  26.764  22.587   3.051 -0.2512  0.0990  0.3117
36361W        W79299  29.096  26.450   2.348  0.0908  0.0452  0.0574
36362W        W79300  26.968  25.021   0.763 -0.1430  0.1231  0.4316
36363W        W79301  26.735  24.333   0.078 -0.1071 -0.0501 -0.1011
36364W        W79302  26.123  23.535   2.613  0.0446 -0.3339  0.2123
36365W        W79303  26.842  24.250   2.537 -0.3133 -0.3527 -0.1464
36366W        W79304  26.359  21.164   0.747 -0.2349 -0.0009 -0.1222
36367W        W79305  25.090  21.938   1.502  0.1370 -0.1878  0.2167
36368W        W79306  27.838  24.599   2.023  0.0653 -0.0907  0.1848
36369W        W79307  25.138  22.481   1.491 -0.1625 -0.1376  0.0186
36370W        W79308  26.088  21.872   2.041  0.1773 -0.2153 -0.1905
36371W        W79309  28.543  21.482  31.501 -0.2308  0.1054  0.0337
36372W        W79310  25.658  25.846   1.041  0.1122 -0.0348  0.2850
36373W        W79311  27.385  23.064   1.838  0.4603 -0.0900 -0.0829
36374W        W79312  28.285  23.052   2.954 -0.0369  0.1563 -0.3075
36375W        W79313  26.021  22.977   0.460  0.1830  0.1890  0.1985
36376W        W79314  24.860  21.524   0.776 -0.2340  0.1890 -0.1279
36377W        W79315  25.985  21.548   2.937 -0.0672 -0.0133 -0.0059
36378W        W79316  25.054  24.135   1.810 -0.2561 -0.0853  0.1512
36379W        W79317  27.711  23.361   1.596 -0.2582  0.2264 -0.4079
36380W        W79318  28.535  22.191   0.353  0.0572 -0.1709  0.0690
36381W        W79319  26.249  24.307   1.772 -0.1611 -0.5983 -0.0932
36382W        W79320  26.132  25.562   1.400 -0.0353  0.4038  0.0074
36383W        W79321  27.418  22.612   2.903  0.1769  0.1681  0.1805
36384W        W79322  25.598  23.822   1.383  0.0353 -0.0857  0.4497
36385W        W79323  25.103  26.446   2.541  0.0615 -0.3200 -0.2373
36386W        W79324  26.135  24.563   1.173  0.3125 -0.0480 -0.1316
36387W        W79325  28.157  25.093   0.884 -0.0343 -0.2487  0.1041
36388W        W79326  27.346  25.952   2.756 -0.0119  0.3184 -0.1698
36389W        W79327  27.198  24.837   3.154 -0.3668 -0.3506  0.3639
36390W        W79328  24.795  24.181   1.250  0.0787  0.1889  0.3178
36391W        W79329  27.396  23.913   2.813 -0.1413 -0.1406 -0.1631
36392W        W79330  26.324  24.731   2.040  0.0079 -0.1135 -0.0983
36393W        W79331  28.136  24.039   2.694 -0.2605 -0.1127 -0.0834
36394W        W79332  26.622  23.332   1.983 -0.0615  0.2982  0.0040
36395W        W79333  25.593  24.741   0.585 -0.0195 -0.0068  0.0762
36396W        W79334  26.138  24.105   1.335 -0.2548 -0.1831  0.0659
36397W        W79335  26.589  24.191   2.067 -0.0441 -0.0586 -0.0788
36398W        W79336  26.105  25.052   1.271  0.2663 -0.0630 -0.0179
36399W        W79337  30.097  23.160   2.426 -0.0019  0.1696 -0.2793
36400W        W79338  26.503  26.121  31.145 -0.6658 -0.1442  0.0813
36401W        W79339  27.664  21.065   0.721  0.0711  0.1834 -0.0131
36402W        W79340  27.414  21.770   0.196  0.0191  0.1671 -0.1554
36403W        W79341  28.200  23.089   0.799 -0.0574 -0.1559 -0.0321
36404W        W79342  26.786  21.415   0.752  0.4238 -0.1839 -0.1019
36405W        W79343  24.654  25.870   1.964 -0.1828  0.2085  0.1527
36406W        W79344  27.854  22.124   0.802  0.2004  0.0211 -0.2949
36407W        W79345  28.334  24.782   3.118  0.2366  0.0041  0.0796
36408W        W79346  25.598  24.347   1.441  0.2851  0.0931  0.0324
36409W        W79347  27.271  22.579   2.128  0.0255 -0.0234  0.4141
36410W        W79348  26.427  25.820   2.605 -0.0895  0.1201 -0.2082
36411W        W79349  25.120  21.762   2.039  0.0989 -0.1502 -0.0085
36412W        W79350  26.512  24.244   0.941  0.1542  0.1283 -0.0444
36413W        W79351  28.045  25.309   0.160 -0.2315 -0.4598  0.1948
36414W        W79352  27.851  26.934   0.058  0.3582 -0.0581  0.0304
36415W        W79353  26.612  22.065   0.754 -0.0543 -0.0425  0.0693
36416W        W79354  24.588  22.654   2.779  0.2201  0.2785  0.1794
36417W        W79355  26.648  22.828   2.256  0.2003  0.2045  0.1720
36418W        W79356  24.477  21.309   0.573  0.3946 -0.2362  0.0400
36419W        W79357  27.339  24.809   3.664  0.0145 -0.3619 -0.0926
36420W        W79358  24.146  24.569   3.382  0.1762  0.3197 -0.2686
36421W        W79359  30.429  22.865   0.343 -0.2213 -0.0367 -0.2529
36422W        W79360  25.865  23.966   1.813 -0.2716  0.4176  0.0656
36423W        W79361  27.414  24.640   0.717 -0.2109 -0.1130 -0.0277
36424W        W79362  26.351  23.978  31.864 -0.0500 -0.5064 -0.1613
36425W        W79363  27.841  22.247   1.443 -0.0325  0.1487  0.2886
36426W        W79364  27.620  23.396   2.165  0.1901  0.0048  0.2091
36427W        W79365  26.425  24.062   0.466 -0.0299 -0.0792 -0.5195
36428W        W79366  26.553  23.025   0.520 -0.4669 -0.2026  0.0205
36429W        W79367  29.251  26.898   1.920  0.1907 -0.1814  0.2661
36430W        W79368  28.439  22.788   0.466  0.0504  0.1730 -0.3361
36431W        W79369  24.660  24.970   1.502 -0.1414  0.0439 -0.0480
36432W        W79370  26.123  23.791   3.117  0.2541 -0.0087  0.2693
36433W        W79371  26.640  24.648   5.090 -0.1448 -0.1158  0.2618
36434W        W79372  27.038  25.953   0.239 -0.0975 -0.0761 -0.0757
36435W        W79373  24.598  24.156   2.072 -0.0718 -0.2534  0.0736
36436W        W79374  25.893  23.464   1.084  0.0323 -0.2210  0.3759
36437W        W79375  25.435  23.246   2.732 -0.3950  0.0059 -0.1482
36438W        W79376  25.684  24.754   3.037  0.0631  0.1777 -0.1561
36439W        W79377  28.873  22.051   0.719  0.1198  0.2016 -0.0166
36440W        W79378  25.644  20.977   1.798 -0.1587 -0.0468 -0.1471
36441W        W79379  28.199  22.444   2.435  0.2703  0.3510 -0.2109
36442W        W79380  25.041  23.078   0.693 -0.2055  0.1532  0.1994
36443W        W79381  26.999  25.669   0.988 -0.2372  0.4550 -0.0114
36444W        W79382  27.529  23.380  31.527  0.0863  0.1221  0.0220
36445W        W79383  29.294  26.260  30.468 -0.1291  0.2530  0.0651
36446W        W79384  25.858  23.084   2.605 -0.1163  0.1169  0.0984
36447W        W79385  26.455  21.632   1.103  0.0905 -0.0390  0.0766
36448W        W79386  25.416  23.203   3.244 -0.3118 -0.0759  0.1004
36449W        W79387  25.462  21.691   0.840  0.0352  0.2371 -0.0432
36450W        W79388  28.120  23.590   3.588 -0.1633  0.3117 -0.0697
36451W        W79389  24.706  22.130   0.248 -0.1528  0.1027 -0.0070
36452W        W79390  27.745  21.059   1.802  0.0013  0.1626  0.1208
36453W        W79391  27.495  21.878   1.428  0.0439  0.1248 -0.2496
36454W        W79392  26.069  22.580   1.566 -0.1923 -0.2106 -0.3174
36455W        W79393  28.721  21.929   3.086  0.0925 -0.0339 -0.2796
36456W        W79394  27.565  26.449   0.467  0.1463 -0.0568 -0.2236
36457W        W79395  28.744  25.217   2.269  0.2510 -0.3002 -0.0590
36458W        W79396  27.149  25.456   0.081 -0.1453 -0.1269 -0.0699
36459W        W79397  26.412  22.301   2.828  0.1085 -0.3193 -0.0542
36460W        W79398  25.791  21.882   0.444  0.2304  0.3053  0.1280
36461W        W79399  25.614  23.109   1.946 -0.1212 -0.1859  0.2249
36462W        W79400  26.409  23.573   0.163  0.0403 -0.0035  0.1258
36463W        W79401  26.510  21.973   0.245 -0.1029 -0.3107 -0.0553
36464W        W79402  26.704  25.276   1.140  0.0204 -0.2534  0.2399
36465W        W79403  26.851  24.036   0.688 -0.1077  0.0364  0.0468
36466W        W79404  24.287  23.434   1.977 -0.0158 -0.1518  0.2090
36467W        W79405  28.282  21.713   1.990 -0.0126  0.0296  0.0062
36468W        W79406  29.288  24.275   2.515 -0.2817  0.1563 -0.0965
36469W        W79407  27.565  21.244   0.224 -0.0630  0.0845 -0.0382
36470W        W79408  26.233  22.488   0.189 -0.1436 -0.0103  0.1815
36471W        W79409  27.985  26.441   0.179 -0.0787 -0.3615 -0.0144
36472W        W79410  25.889  24.347   0.453 -0.4696  0.0065  0.2188
36473W        W79411  25.901  22.538   1.050 -0.0187 -0.1814 -0.2506
36474W        W79412  27.282  24.219   1.616 -0.0166  0.4584  0.1103
36475W        W79413  27.898  21.736   1.198  0.3454  0.2838  0.2173
36476W        W79414  24.257  22.922   4.118  0.2258 -0.1859 -0.0396
36477W        W79415  28.590  23.136   2.533  0.6040  0.5411 -0.1084
36478W        W79416  25.071  22.361  30.077 -0.0600  0.1041 -0.0056
36479W        W79417  24.632  23.778   3.291  0.0128 -0.3410  0.1888
36480W        W79418  28.101  22.755   1.541 -0.1110 -0.0921 -0.5268
36481W        W79419  28.726  22.964   1.406 -0.1368 -0.0077  0.0050
36482W        W79420  27.104  25.048   2.149  0.1689  0.0916 -0.2915
36483W        W79421  28.395  24.679   0.636  0.2627 -0.1774 -0.0934
36484W        W79422  28.131  22.441   0.571 -0.0312 -0.1024  0.1182
36485W        W79423  25.622  22.506  31.049  0.1407 -0.1641  0.1207
36486W        W79424  24.611  24.539   3.026 -0.1860  0.1671  0.0409
36487W        W79425  28.222  24.584   1.180 -0.0954  0.2885 -0.0200
36488W        W79426  26.934  23.782   2.839  0.1537 -0.0985  0.0650
36489W        W79427  26.227  21.815  31.532 -0.1857 -0.0580 -0.4458
36490W        W79428  29.263  26.289   0.331  0.3387 -0.0394  0.1494
36491W        W79429  25.021  22.758   1.850  0.0858 -0.3176 -0.0274
36492W        W79430  27.619  24.512   4.175  0.0860 -0.1150 -0.0567
36493W        W79431  25.582  25.122   1.524  0.1873 -0.1317  0.1503
36494W        W79432  26.890  22.913   1.824  0.2538 -0.0653  0.1295
36495W        W79433  25.890  23.856   0.278  0.0468  0.2195  0.0226
36496W        W79434  27.361  22.083   0.607  0.2035  0.0660 -0.0674
36497W        W79435  25.131  25.440   0.548  0.2376 -0.0323 -0.2568
36498W        W79436  28.236  22.063   3.224  0.2110 -0.0332 -0.0031
36499W        W79437  26.272  21.699   2.493 -0.1319  0.1686  0.1534
36500W        W79438  26.238  22.141   3.321 -0.3519 -0.3178  0.0984
36501W        W79439  28.302  21.875   1.469  0.2958 -0.0549  0.0747
36502W        W79440  28.204  24.058   1.615  0.0872  0.0783  0.3915
36503W        W79441  26.719  23.171  31.922 -0.2836 -0.0371  0.1892
36504W        W79442  24.630  22.110   0.780 -0.0939 -0.0038  0.0951
36505W        W79443  26.852  23.109   3.061 -0.1917 -0.1811  0.0085
36506W        W79444  25.504  22.261   1.272  0.4568 -0.0711  0.1511
36507W        W79445  23.916  23.824   2.851  0.1643 -0.1189  0.0611
36508W        W79446  27.323  25.592   2.000  0.0442  0.1312 -0.2047
36509W        W79447  25.764  25.019   2.017 -0.0029  0.0097  0.3075
36510W        W79448  26.675  21.213   3.644  0.0675 -0.0677  0.3852
36511W        W79449  27.903  21.621   0.081  0.0567 -0.0115 -0.0075
36512W        W79450  25.877  26.245   0.390  0.0969  0.0885  0.1057
36513W        W79451  27.671  23.945   1.428 -0.2191  0.0088  0.0196
36514W        W79452  27.771  22.544   1.898  0.0333 -0.0179  0.0823
36515W        W79453  26.615  25.087   1.978 -0.2130  0.1199 -0.1968
36516W        W79454  28.539  25.396  31.743  0.0554  0.1316  0.2672
36517W        W79455  28.506  24.757   2.276 -0.1007 -0.2158 -0.0325
36518W        W79456  24.286  26.307   0.976 -0.2428 -0.3035 -0.0268
36519W        W79457  30.528  23.514   3.163 -0.1568 -0.1240  0.0565
36520W        W79458  25.223  24.387   1.125 -0.1068 -0.3407 -0.0668
36521W        W79459  26.064  22.977   1.269 -0.1149 -0.6364 -0.1007
36522W        W79460  24.985  22.416   0.588 -0.0524 -0.0605 -0.0566
36523W        W79461  28.375  20.383   0.808 -0.3893  0.1606 -0.1540
36524W        W79462  28.675  24.956   0.999  0.0309 -0.2350  0.2357
36525W        W79463  26.450  22.163   2.293 -0.1003  0.2881 -0.4623
36526W        W79464  26.757  21.956   2.617  0.1976  0.1724  0.0767
36527W        W79465  25.174  25.935   2.245 -0.1230 -0.0731  0.1220
36528W        W79466  28.230  23.193   1.393 -0.0747  0.1899 -0.0755
36529W        W79467  28.981  21.721  31.721  0.1312 -0.0099  0.3193
36530W        W79468  28.592  23.945   2.493 -0.1722 -0.0391  0.1544
36531W        W79469  26.671  24.642   4.330  0.0569  0.4074  0.1622
36532W        W79470  26.267  21.669   0.644 -0.1103  0.0287 -0.1535
36533W        W79471  28.285  23.547   2.552 -0.2303  0.2899  0.1403
36534W        W79472  26.483  21.714   1.596  0.0904 -0.3241 -0.3059
36535W        W79473  25.408  24.605   1.822  0.0165  0.0740  0.0367
36536W        W79474  28.224  24.615   1.690  0.1525  0.3583 -0.3495
36537W        W79475  24.862  22.795   0.262  0.0254  0.2734 -0.0963
36538W        W79476  25.014  23.742   2.098  0.0047 -0.0767  0.1641
36539W        W79477  25.958  23.607   3.588 -0.1578  0.0374  0.0674
36540W        W79478  27.427  24.825   1.765 -0.0989  0.1643  0.1388
36541W        W79479  26.447  22.893   2.734 -0.2295  0.2117 -0.2776
36542W        W79480  26.836  22.922   0.963 -0.1717  0.2781  0.2284
36543W        W79481  26.838  23.541   1.570 -0.1677  0.0121  0.1536
36544W        W79482  27.125  24.281   2.089  0.0397  0.0986  0.0008
36545W        W79483  27.313  23.385   2.729  0.4677 -0.2587  0.2475
36546W        W79484  25.455  24.452   2.337  0.1913 -0.0331 -0.0661
36547W        W79485  26.876  21.873   3.940 -0.0497  0.2098  0.1648
36548W        W79486  27.564  26.386  31.912 -0.1978 -0.0814 -0.0395
36549W        W79487  28.546  24.387   2.970  0.1163  0.1628 -0.2657
36550W        W79488  26.548  23.612   0.618 -0.0928  0.3462 -0.0847
36551W        W79489  24.567  22.264   2.478  0.0577  0.3165  0.3250
36552W        W79490  25.630  23.751   0.773 -0.2061 -0.0313 -0.0512
36553W        W79491  27.955  23.787   2.237 -0.1899 -0.1125  0.1279
36554W        W79492  26.416  24.267   2.998 -0.1120 -0.2409 -0.1608
36555W        W79493  25.585  22.924   1.379  0.1951  0.0220  0.0015
36556W        W79494  24.779  25.429   1.897 -0.0380  0.0227 -0.1207
36557W        W79495  28.620  23.463   1.384 -0.1075  0.0057  0.0809
36558W        W79496  27.997  24.499  31.299 -0.2170 -0.0922 -0.4329
36559W        W79497  27.059  21.853   1.614  0.0508  0.0485  0.3654
36560W        W79498  29.355  23.024   3.722 -0.1586  0.0950 -0.2076
36561W        W79499  27.818  23.470   0.671 -0.1699  0.1791 -0.0517
36562W        W79500  27.736  22.097   3.384 -0.0960 -0.0498 -0.0868
36563W        W79501  25.934  20.247   0.480 -0.1276 -0.0829  0.0761
36564W        W79502  27.641  25.140   2.119 -0.1979 -0.0569  0.0949
36565W        W79503  26.470  23.748   2.239  0.2205  0.3826  0.0738
36566W        W79504  26.534  25.408   1.608  0.2547  0.0254 -0.1004
36567W        W79505  24.753  22.169   3.013 -0.3665 -0.3517  0.3590
36568W        W79506  27.735  23.171   1.137  0.0059 -0.0951  0.2853
36569W        W79507  25.327  22.436   0.163 -0.1174 -0.0941  0.0546
36570W        W79508  25.766  23.354   1.535  0.1271  0.0232 -0.1865
36571W        W79509  27.659  24.864   1.153 -0.1020  0.2631  0.0482
36572W        W79510  26.848  23.783   0.217  0.2031  0.1957 -0.1522
36573W        W79511  27.098  22.840   0.510 -0.1486 -0.1075  0.0417
36574W        W79512  26.286  23.484   1.443  0.2750  0.2079 -0.0113
36575W        W79513  28.095  22.988   0.237 -0.3396 -0.1735  0.1696
36576W        W79514  27.111  23.039  31.687 -0.0481  0.0667  0.2005
36577W        W79515  26.404  23.260   0.937 -0.2347  0.3035 -0.1530
36578W        W79516  25.713  20.769   3.119 -0.0700 -0.0881  0.0692
36579W        W79517  28.028  23.649   1.225  0.2095  0.2465 -0.1537
36580W        W79518  28.144  22.219   1.871 -0.1805  0.2418 -0.0745
36581W        W79519  28.811  22.926   1.885 -0.2682  0.1714  0.2189
36582W        W79520  26.989  23.657   3.527 -0.2094  0.0409 -0.0548
36583W        W79521  28.128  23.017   2.432 -0.0033 -0.3665 -0.1902
36584W        W79522  25.693  22.049   3.415 -0.2795 -0.2298 -0.2989
36585W        W79523  26.955  26.170   1.305 -0.0200  0.3253  0.0267
36586W        W79524  29.550  23.833   1.334 -0.0451  0.1036  0.2147
36587W        W79525  28.313  21.332   1.598 -0.1785 -0.1662  0.0209
36588W        W79526  28.636  24.376   1.372 -0.0212 -0.1201 -0.4371
36589W        W79527  27.542  22.522   0.517  0.0370 -0.2029  0.0015
36590W        W79528  26.970  21.479   1.220 -0.1949 -0.0618  0.0115
36591W        W79529  29.834  23.241   3.826  0.0172  0.0558  0.1269
36592W        W79530  26.793  21.864  31.603  0.3564  0.2059  0.1051
36593W        W79531  27.910  22.657   2.829 -0.1942 -0.0091 -0.0288
36594W        W79532  27.528  24.394   1.123 -0.0391 -0.0865  0.1511
36595W        W79533  26.398  24.448   2.470  0.0981 -0.3126  0.1938
36596W        W79534  27.788  22.988  31.791 -0.3072 -0.1009  0.0625
36597W        W79535  25.409  21.270   2.147 -0.0103  0.0739  0.2184
36598W        W79536  25.829  24.368   2.644 -0.1230 -0.1223  0.0953
36599W        W79537  25.960  21.119  31.766 -0.1127 -0.0448 -0.0626
36600W        W79538  26.428  24.444  31.356  0.0436 -0.0827  0.3057
36601W        W79539  27.479  25.315   1.628 -0.2099 -0.2054 -0.1076
36602W        W79540  27.758  23.164   2.852  0.3671 -0.3843  0.1227
36603W        W79541  28.912  22.598  31.066 -0.3432  0.1797 -0.0060
36604W        W79542  29.605  22.482   3.619  0.3825  0.2195 -0.3510
36605W        W79543  24.543  23.783   2.431 -0.0952 -0.1607  0.1686
36606W        W79544  26.821  22.386   1.892 -0.2005 -0.1331  0.2695
36607W        W79545  25.462  24.008   2.088  0.1961  0.2030 -0.1338
36608W        W79546  25.131  24.230   3.919  0.2239 -0.1842 -0.0194
36609W        W79547  24.353  26.279   2.293  0.0747  0.0803 -0.1676
36610W        W79548  26.966  22.829   2.644  0.1214 -0.1219 -0.1757
36611W        W79549  27.298  23.205   0.871 -0.1018 -0.0908  0.0562
36612W        W79550  26.501  23.443   2.983 -0.1809 -0.4299  0.1907
36613W        W79551  29.817  23.122   1.952 -0.0799  0.0824  0.1810
36614W        W79552  26.655  23.915   3.296  0.1162 -0.0342  0.0835
36615W        W79553  27.014  22.482   1.436  0.3928  0.1949  0.0433
36616W        W79554  27.413  23.400   4.359 -0.2815  0.2880 -0.2232
36617W        W79555  28.350  25.507   1.268 -0.3262  0.2230 -0.1648
36618W        W79556  25.984  24.799   2.422 -0.0316 -0.1803  0.0614
36619W        W79557  23.857  22.870   3.197 -0.2664  0.1497 -0.0285
36620W        W79558  27.081  23.114   2.207  0.0843 -0.0935 -0.0641
36621W        W79559  28.776  23.638   0.875 -0.3348  0.1628 -0.1004
36622W        W79560  26.037  22.039   0.047 -0.1393  0.2025  0.0866
36623W        W79561  26.950  22.674   0.014  0.0583  0.2061 -0.0876
36624W        W79562  25.481  24.766   3.582  0.0191 -0.1061  0.5395
36625W        W79563  24.838  23.274   2.586  0.0126  0.1072  0.1547
36626W        W79564  26.321  26.947   2.295  0.1151  0.0197 -0.0864
36627W        W79565  27.276  23.702   0.528 -0.1406  0.2792 -0.1015
36628W        W79566  25.862  24.433   2.083 -0.1405 -0.3451 -0.3880
36629W        W79567  26.484  25.943   1.278 -0.2580 -0.3810 -0.0803
36630W        W79568  25.885  22.033   1.587  0.2722  0.1453 -0.0278
36631W        W79569  25.100  23.715   1.544 -0.1014 -0.1085  0.1432
36632W        W79570  25.752  24.194   1.015  0.1759 -0.0753  0.2349
36633W        W79571  27.286  26.048   0.679 -0.0154  0.2516  0.1458
36634W        W79572  23.863  25.869   2.466  0.0937  0.2446  0.1602
36635W        W79573  29.057  24.860   2.449  0.0723 -0.0531  0.0143
36636W        W79574  29.354  21.343  31.711  0.0010  0.0511 -0.1192
36637W        W79575  26.967  23.321   0.503  0.0302  0.3196  0.1333
36638W        W79576  29.112  23.695   1.912  0.2010 -0.0520  0.2522
36639W        W79577  26.802  24.995   3.466  0.0913  0.2077  0.3004
36640W        W79578  27.344  23.480   1.297 -0.1495  0.0263  0.2290
36641W        W79579  25.446  21.499   0.321  0.1304 -0.0409  0.1547
36642W        W79580  24.531  22.722   1.479  0.1173  0.3302  0.2286
36643W        W79581  29.693  19.739   3.223  0.0717 -0.0911  0.1671
36644W        W79582  24.566  25.428   3.425 -0.0861 -0.0486  0.1504
36645W        W79583  28.113  25.953   0.460 -0.3354  0.1085  0.0762
36646W        W79584  25.581  21.755   1.328  0.0505  0.0093  0.0838
36647W        W79585  26.771  24.322   1.483 -0.0581  0.1626  0.0840
36648W        W79586  28.932  22.443   2.002 -0.1631  0.0429  0.0479
36649W        W79587  27.339  22.988   0.125 -0.1944  0.0609  0.1031
36650W        W79588  26.684  23.158   1.342  0.0931  0.0795 -0.0808
36651W        W79589  26.238  25.912   1.719  0.3131  0.3874  0.0099
36652W        W79590  27.332  23.693   1.788 -0.0209 -0.3230 -0.1525
36653W        W79591  25.913  24.681   1.630 -0.0331  0.1109 -0.2434
36654W        W79592  26.730  22.114   1.283 -0.1204 -0.1199 -0.1377
36655W        W79593  27.612  23.526   0.139 -0.0377 -0.0196  0.3787
36656W        W79594  26.560  22.620   1.458 -0.1375 -0.0874 -0.0656
36657W        W79595  29.105  23.614   1.266  0.0543  0.2849 -0.1193
36658W        W79596  25.929  21.454   0.956  0.0704 -0.2821  0.0416
36659W        W79597  27.462  22.476  31.982  0.1081 -0.0379 -0.0764
36660W        W79598  26.422  24.163   3.662 -0.0539 -0.2025  0.0556
36661W        W79599  26.390  22.960   1.787  0.0564  0.1164 -0.1865
36662W        W79600  27.576  22.225  31.387 -0.0394  0.0088  0.3157
36663W        W79601  28.771  23.530   2.843 -0.1236  0.0507 -0.2300
36664W        W79602  26.226  24.685   0.442  0.1865  0.0031  0.0395
36665W        W79603  27.087  24.935   2.619 -0.1236 -0.0569  0.1099
36666W        W79604  25.693  21.116   1.297  0.3410  0.2663 -0.0402
36667W        W79605  27.541  20.810  31.486 -0.0755 -0.0377 -0.0250
36668W        W79606  25.819  22.491   0.459 -0.0576 -0.1290 -0.0431
36669W        W79607  26.060  23.452   1.921 -0.0890  0.0487  0.2139
36670W        W79608  26.490  24.941   2.451  0.0011 -0.1366 -0.0265
36671W        W79609  26.118  21.070   1.671 -0.0300  0.1047  0.1288
36672W        W79610  28.553  23.755  30.848  0.1637 -0.1088  0.3675
36673W        W79611  29.184  23.316   2.771  0.2131 -0.0627 -0.0273
36674W        W79612  27.337  25.043   0.391 -0.0171  0.1309 -0.1301
36675W        W79613  29.880  23.442   0.614  0.3859  0.0579 -0.0674
36676W        W79614  27.827  25.365   1.196  0.0729 -0.3954  0.1761
36677W        W79615  24.581  21.754   2.622 -0.0787 -0.1803 -0.1143
36678W        W79616  27.754  25.826   2.299  0.2188  0.0553  0.0298
36679W        W79617  27.791  24.079   1.886  0.2139  0.0666  0.2192
36680W        W79618  27.679  22.007  31.818 -0.2751 -0.2141 -0.2049
36681W        W79619  27.392  22.715   0.937 -0.0338  0.1408  0.0094
36682W        W79620  24.818  25.775   1.332 -0.1321  0.1163 -0.0904
36683W        W79621  29.270  22.758   1.814  0.3283  0.0395 -0.2847
36684W        W79622  28.448  23.926   3.155  0.0151  0.1207 -0.1036
36685W        W79623  27.004  22.118   0.103 -0.3730  0.0877  0.2972
36686W        W79624  27.922  23.068   1.934 -0.1787  0.0413  0.3537
36687W        W79625  27.586  24.895   2.615 -0.3134  0.2029 -0.0551
36688W        W79626  25.939  25.429   3.113 -0.0627  0.2613  0.2189
36689W        W79627  26.416  22.657   0.886  0.0591  0.1309  0.0618
36690W        W79628  25.454  22.796   2.300  0.1156 -0.2921  0.3330
36691W        W79629  26.417  23.886   1.715 -0.1347  0.2533  0.1491
36692W        W79630  27.069  25.473   0.564 -0.1225  0.1025 -0.2483
36693W        W79631  27.415  23.925   2.281  0.0065  0.1559  0.0250
36694W        W79632  28.007  24.100   1.045 -0.0064 -0.3009  0.1867
36695W        W79633  28.646  25.775   0.523 -0.0950  0.0365 -0.0733
36696W        W79634  26.279  22.216   1.183 -0.2490 -0.1498  0.3939
36697W        W79635  28.616  22.541   1.655  0.2041  0.2934 -0.0345
36698W        W79636  28.879  21.341  31.982 -0.1615 -0.0694  0.1178
36699W        W79637  26.395  24.690   3.308  0.2487  0.3485  0.0576
36700W        W79638  24.714  23.593   0.719 -0.1080 -0.0812 -0.3636
36701W        W79639  26.683  25.275  30.902  0.1675 -0.1146  0.0485
36702W        W79640  25.233  24.856   1.324 -0.1585 -0.0560 -0.0004
36703W        W79641  27.823  21.982   3.965  0.0057 -0.0109  0.1448
36704W        W79642  27.472  23.830   4.066  0.2175  0.1727 -0.1528
36705W        W79643  25.552  22.548   1.798  0.0678  0.2452 -0.1538
36706W        W79644  25.424  20.448   0.498  0.1296 -0.2098 -0.0463
36707W        W79645  27.849  24.863   0.470 -0.0064  0.0656 -0.1570
36708W        W79646  25.895  21.150   2.309 -0.2017  0.0715  0.3082
36709W        W79647  26.334  22.248   1.775  0.2057  0.1550 -0.4136
36710W        W79648  27.342  24.170   0.650  0.0545 -0.3248  0.4464
36711W        W79649  27.604  25.239   0.773  0.2424  0.3069 -0.1344
36712W        W79650  26.905  21.785   0.471  0.2607  0.2081  0.1616
36713W        W79651  27.901  23.204   3.450  0.3556  0.1928 -0.0119
36714W        W79652  24.326  24.021   1.208  0.0638  0.1412  0.0664
36715W        W79653  26.175  23.334   3.874 -0.0730  0.3477 -0.1124
36716W        W79654  26.554  23.415   4.279  0.0906 -0.0035  0.0893
36717W        W79655  25.457  22.257   0.690  0.3615  0.1213  0.3410
36718W        W79656  28.307  22.703   2.028 -0.0783  0.0446 -0.1329
36719W        W79657  26.962  23.928   1.211 -0.1108 -0.0119 -0.1846
36720W        W79658  26.954  27.022  31.718  0.0417 -0.0180  0.0167
36721W        W79659  28.222  24.490   2.570 -0.1929 -0.1212  0.1236
36722W        W79660  28.889  24.191   3.360  0.3134  0.2648 -0.0359
36723W        W79661  25.916  22.679   2.800  0.2318  0.5397  0.2031
36724W        W79662  27.764  23.934   0.465 -0.1206  0.0119  0.0445
36725W        W79663  25.603  23.246   4.201  0.0170 -0.1715  0.0418
36726W        W79664  29.328  25.306   0.095 -0.1052  0.0132 -0.2329
36727W        W79665  27.214  22.184   2.880  0.3484  0.2021  0.0167
36728W        W79666  28.164  23.579   1.798 -0.1880  0.1820 -0.2644
36729W        W79667  24.220  20.205   3.270  0.2227 -0.1238 -0.1441
36730W        W79668  24.746  24.097   2.787 -0.1903 -0.1666 -0.0468
36731W        W79669  27.618  25.847   1.621  0.3427  0.1528 -0.0131
36732W        W79670  26.536  21.395   0.321 -0.0043  0.0940  0.1140
36733W        W79671  26.900  23.454   1.019 -0.0931 -0.0336  0.2932
36734W        W79672  27.968  23.984  31.982  0.1161 -0.0403 -0.2271
36735W        W79673  24.722  23.322   1.627  0.0453  0.1439  0.1017
36736W        W79674  26.492  23.770   1.118 -0.1018  0.1840 -0.0011
36737W        W79675  27.811  23.656   2.690  0.1379 -0.1251  0.1804
36738W        W79676  26.834  24.610   1.917 -0.0543  0.0914 -0.0318
36739W        W79677  28.517  23.315   3.416 -0.0383 -0.1548 -0.0008
36740W        W79678  26.992  23.879  31.755  0.1155  0.3157  0.2001
36741W        W79679  29.153  23.966  31.535 -0.1684  0.1930  0.1928
36742W        W79680  26.529  25.627   2.048 -0.0313  0.0638  0.0030
36743W        W79681  28.279  25.074   2.639 -0.0924 -0.0426 -0.0632
36744W        W79682  26.972  25.170   1.599  0.0597 -0.0907 -0.0551
36745W        W79683  29.287  23.826   2.347  0.0257 -0.1155 -0.3326
36746W        W79684  26.832  21.385   1.775  0.1233 -0.0247 -0.0062
36747W        W79685  27.600  23.818   0.965 -0.1598  0.1195 -0.0045
36748W        W79686  24.997  24.947   1.855 -0.2590  0.1618  0.0681
36749W        W79687  28.591  23.806   1.990  0.0057 -0.2392 -0.0247
36750W        W79688  27.315  21.730  31.671 -0.2459  0.1644 -0.1435
36751W        W79689  28.524  22.418  31.384  0.1948  0.0231 -0.1133
36752W        W79690  26.809  25.176   2.910  0.1876  0.3518 -0.0486
36753W        W79691  27.307  25.548   2.494 -0.3017  0.1704 -0.5096
36754W        W79692  25.550  23.681   6.191 -0.3405 -0.0044  0.1858
36755W        W79693  26.458  24.662   3.792  0.0230  0.1079  0.2932
36756W        W79694  27.825  22.605   4.309  0.2932  0.1014 -0.1414
36757W        W79695  28.766  24.179   3.948  0.2944  0.2087 -0.0028
36758W        W79696  25.331  22.891   5.539  0.0613  0.1425  0.0849
36759W        W79697  28.004  26.183   3.214  0.1333 -0.1148  0.2757
36760W        W79698  26.318  22.080   5.702 -0.2165 -0.0245 -0.2332
36761W        W79699  28.265  23.478   6.368 -0.1315  0.3879 -0.0382
36762W        W79700  26.854  25.790   6.441 -0.0697 -0.0854 -0.0385
36763W        W79701  28.406  22.694   3.401 -0.1334  0.2266 -0.2435
36764W        W79702  26.875  22.611   5.233  0.0648 -0.3108 -0.2518
36765W        W79703  27.552  23.476   7.018 -0.0758 -0.0010 -0.0062
36766W        W79704  25.406  21.035   4.952 -0.1505 -0.2057  0.0926
36767W        W79705  25.082  22.001   5.687 -0.1372  0.0014  0.1068
36768W        W79706  28.406  23.108   5.972 -0.1054  0.3819  0.3734
36769W        W79707  25.533  23.827   3.381  0.0919 -0.2099  0.0758
36770W        W79708  26.712  23.362   5.686  0.1842  0.0108  0.2211
36771W        W79709  26.058  21.713   3.979 -0.0133 -0.1424  0.1058
36772W        W79710  27.632  25.800   4.791  0.0304  0.0103  0.0239
36773W        W79711  27.164  22.843   6.691  0.1506  0.1572  0.0448
36774W        W79712  28.150  22.580   5.997  0.0827  0.1913  0.0510
36775W        W79713  28.417  24.211   4.943 -0.1885 -0.0219  0.0340
36776W        W79714  24.251  24.108   3.138 -0.0099 -0.2865 -0.3228
36777W        W79715  28.800  23.410   6.123 -0.0614  0.1616 -0.2183
36778W        W79716  26.607  23.031   6.635  0.0339  0.0753 -0.2609
36779W        W79717  25.958  22.280   3.793 -0.2697 -0.2717  0.0405
36780W        W79718  28.985  23.257   3.266  0.2577  0.1824  0.0827
36781W        W79719  26.144  24.921   4.437  0.0978  0.1646  0.0000
36782W        W79720  27.698  26.345   5.755 -0.2737  0.1004  0.3825
36783W        W79721  27.465  22.464   6.918  0.2165  0.0699 -0.3827
36784W        W79722  26.645  24.047   5.608  0.1282  0.0092  0.0944
36785W        W79723  24.091  24.774   5.480 -0.1100 -0.0975  0.0577
36786W        W79724  27.009  24.582   3.939 -0.0013 -0.2828  0.0713
36787W        W79725  28.683  24.046   5.408  0.0073 -0.1579  0.0132
36788W        W79726  27.876  25.843   6.204  0.2757 -0.1846  0.1822
36789W        W79727  27.319  25.005   7.146  0.2917 -0.0325 -0.0887
36790W        W79728  27.426  24.238   3.720  0.0352  0.0237 -0.0713
36791W        W79729  27.371  25.469   8.464  0.2667 -0.1542 -0.0789
36792W        W79730  26.759  25.060   5.934 -0.0523  0.1384  0.2444
36793W        W79731  26.854  21.312   7.616  0.1343  0.2465 -0.3204
36794W        W79732  27.706  22.572   4.870 -0.5124  0.2597 -0.0934
36795W        W79733  26.688  24.671   2.870  0.2580 -0.3330  0.0101
36796W        W79734  26.945  23.416   5.104  0.1080  0.0078  0.1750
36797W        W79735  26.547  22.997   7.311 -0.2096 -0.2174  0.1926
36798W        W79736  25.548  22.493   4.766 -0.0320 -0.0071  0.0397
36799W        W79737  28.362  22.816   7.165  0.1245  0.3190 -0.3249
36800W        W79738  25.760  24.157   3.078 -0.3208 -0.2170  0.0077
36801W        W79739  28.923  22.801   3.455  0.2041 -0.3057  0.1026
36802W        W79740  27.510  23.879   4.657 -0.0365 -0.0133  0.2841
36803W        W79741  29.993  21.984   5.041  0.0635 -0.0839  0.2546
36804W        W79742  26.077  21.277   4.222  0.3744 -0.0497  0.0243
36805W        W79743  24.601  24.784   5.323  0.1135  0.0576  0.1461
36806W        W79744  25.648  21.639   6.275 -0.1940 -0.0429 -0.3967
36807W        W79745  27.763  24.190   7.699  0.0031 -0.2526 -0.2760
36808W        W79746  26.572  22.285   3.675  0.2446 -0.0585  0.0671
36809W        W79747  28.379  22.730   5.379 -0.1163  0.0727  0.0767
36810W        W79748  26.119  23.829   5.478  0.1168 -0.1381 -0.0205
36811W        W79749  26.594  23.074   5.309  0.3246  0.2540  0.0982
36812W        W79750  27.281  24.468   2.692  0.1161 -0.0376 -0.0151
36813W        W79751  27.438  25.388   4.838 -0.0852  0.0560 -0.1385
36814W        W79752  26.918  25.082   4.027  0.4342 -0.1137 -0.3834
36815W        W79753  26.164  23.159   5.709  0.2155 -0.1488 -0.1903
36816W        W79754  25.685  22.716   7.117 -0.1220  0.2458 -0.0162
36817W        W79755  25.139  21.278   3.999 -0.0489  0.1140  0.0861
36818W        W79756  28.627  24.299   5.862  0.2987 -0.1217 -0.1575
36819W        W79757  24.817  24.324   6.301 -0.0740 -0.2317 -0.3648
36820W        W79758  28.233  22.463   4.149 -0.2193 -0.1244 -0.0131
36821W        W79759  26.976  24.836   6.359 -0.1771 -0.2466  0.2977
36822W        W79760  28.835  25.392   5.788  0.0123  0.0167 -0.0790
36823W        W79761  29.696  23.710   3.879 -0.1348  0.1273  0.1568
36824W        W79762  27.654  21.734   4.408  0.1260  0.1743 -0.1500
36825W        W79763  27.008  22.474   3.926  0.0721 -0.1821 -0.3551
36826W        W79764  26.012  24.505   3.516 -0.0732 -0.1535  0.0180
36827W        W79765  28.192  23.861   4.082 -0.0443 -0.0118  0.2137
36828W        W79766  28.151  24.516   6.264 -0.4291 -0.0329  0.1069
36829W        W79767  28.093  22.368   3.653  0.5807  0.0026  0.2123
36830W        W79768  25.930  24.451   6.808 -0.1039 -0.1364  0.0226
36831W        W79769  25.692  21.383   7.473  0.1470 -0.1936  0.3001
36832W        W79770  27.874  24.260   7.182  0.0777 -0.0247  0.1517
36833W        W79771  25.444  25.670   2.979 -0.0364 -0.3904  0.0827
36834W        W79772  26.598  24.123   5.090  0.1020  0.0954  0.1868
36835W        W79773  23.902  22.528   4.046  0.0161 -0.3762  0.1799
36836W        W79774  24.963  21.150   5.700  0.2316  0.1280  0.1351
36837W        W79775  25.953  24.802   5.474  0.1584  0.0735 -0.0427
36838W        W79776  29.352  22.344   4.145  0.1266  0.0645  0.4785
36839W        W79777  25.280  23.022   6.414 -0.0488  0.0733 -0.0989
36840W        W79778  28.539  22.377   5.767 -0.1733  0.2289 -0.1708
36841W        W79779  25.004  23.396   4.050  0.1214 -0.0179  0.1432
36842W        W79780  25.668  24.993   4.602 -0.0653  0.0674  0.2878
36843W        W79781  28.881  21.543   3.467  0.0244 -0.0782  0.0785
36844W        W79782  28.219  24.369   3.346  0.1851  0.1754 -0.1713
36845W        W79783  26.476  22.642   5.625 -0.2338 -0.0330 -0.0899
36846W        W79784  25.977  22.537   4.405  0.0992  0.0201 -0.1197
36847W        W79785  26.027  21.763   6.672  0.1160  0.0639 -0.0060
36848W        W79786  25.894  23.506   6.497  0.2059  0.4060  0.0052
36849W        W79787  28.490  22.117   5.303  0.0759  0.0753  0.0060
36850W        W79788  26.392  22.252   4.539 -0.0188  0.2796 -0.0820
36851W        W79789  28.399  22.170   4.632  0.2496 -0.1124  0.0290
36852W        W79790  27.891  25.117   3.971 -0.0470  0.0549  0.0138
36853W        W79791  24.777  22.698   4.523 -0.1395  0.1656  0.1358
36854W        W79792  28.154  21.771   6.390  0.0284 -0.1638 -0.0028
36855W        W79793  28.341  25.181   4.672  0.1192 -0.1186  0.0922
36856W        W79794  27.344  24.044   5.962  0.0995  0.3342 -0.1122
36857W        W79795  28.172  26.032   5.445 -0.0831  0.1337  0.1279
36858W        W79796  25.428  22.501   6.745  0.3550 -0.0582 -0.0238
36859W        W79797  26.237  22.801   3.702 -0.1500  0.1509  0.1876
36860W        W79798  24.880  25.398   6.097 -0.0961 -0.0216  0.1237
36861W        W79799  25.872  25.284   5.012  0.0248  0.1236  0.3154
36862W        W79800  25.339  21.761   3.696 -0.0412 -0.2033  0.2316
36863W        W79801  29.003  25.827   5.265  0.0214 -0.0579 -0.2524
36864W        W79802  28.295  24.264   4.408  0.1434  0.2276 -0.0856
36865W        W79803  27.508  23.794   6.433  0.1689 -0.0006 -0.2424
36866W        W79804  28.311  21.211   5.637 -0.1957 -0.2573 -0.0041
36867W        W79805  29.585  25.967   4.966  0.3279  0.0322  0.0772
36868W        W79806  30.090  23.786   5.795  0.3881  0.3252 -0.1214
36869W        W79807  25.433  22.039   4.615 -0.0427 -0.3610 -0.2828
36870W        W79808  27.970  24.588   4.706 -0.4123 -0.0537 -0.1765
36871W        W79809  26.710  25.979   3.541 -0.1081 -0.2770  0.0272
36872W        W79810  25.906  24.495   4.517 -0.1609  0.1069 -0.0620
36873W        W79811  26.758  25.004   4.598 -0.1243 -0.2733 -0.1123
36874W        W79812  30.157  21.106   5.721 -0.0436 -0.0390  0.1284
36875W        W79813  25.201  23.543   6.551 -0.3297 -0.1264  0.0530
36876W        W79814  27.547  22.902   7.290 -0.1090 -0.0742 -0.0834
36877W        W79815  25.314  22.901   3.657  0.0653  0.0304  0.0600
36878W        W79816  26.284  23.869   6.485 -0.3446 -0.0206 -0.1125
36879W        W79817  26.139  21.255   3.712  0.0968 -0.0699 -0.5390
36880W        W79818  29.994  21.514   4.096  0.1750 -0.2332 -0.0007
36881W        W79819  26.680  23.558   6.771  0.0039  0.1164 -0.0414
36882W        W79820  28.414  24.007   3.657  0.1858  0.1847  0.1205
36883W        W79821  28.832  22.861   2.957  0.1640  0.0073  0.0190
36884W        W79822  28.310  21.958   4.086 -0.2842 -0.0560  0.0429
36885W        W79823  25.754  23.983   6.836  0.0534  0.0958  0.0992
36886W        W79824  28.139  23.727   5.536  0.0300  0.0788  0.3391
36887W        W79825  26.558  24.601   5.958  0.0012  0.1318 -0.7664
36888W        W79826  26.643  22.741   4.488  0.2904  0.2916 -0.1458
36889W        W79827  29.199  25.459   4.166  0.1061 -0.1318 -0.2434
36890W        W79828  24.551  25.052   6.628  0.0298 -0.0161  0.1349
36891W        W79829  27.249  24.378   6.584 -0.0194  0.0549  0.0327
36892W        W79830  27.752  24.247   5.545 -0.1142  0.3844 -0.1102
36893W        W79831  27.097  22.497   6.070 -0.2373  0.2255  0.6624
36894W        W79832  26.962  24.079   3.783  0.1078 -0.1033  0.5380
36895W        W79833  28.596  22.513   4.990  0.1826 -0.4613 -0.0040
36896W        W79834  24.854  25.609   3.798 -0.2515  0.1505  0.0968
36897W        W79835  28.571  21.939   6.092  0.0415 -0.0541  0.0299
36898W        W79836  28.237  20.868   6.021  0.0811  0.0043  0.0154
36899W        W79837  26.297  21.345   5.918  0.0080  0.3545  0.2805
36900W        W79838  28.164  24.421   6.788 -0.0932  0.3557  0.0916
36901W        W79839  26.740  23.169   3.889 -0.1424  0.3255 -0.3160
36902W        W79840  28.184  24.855   4.262 -0.2189 -0.1514  0.0957
36903W        W79841  27.816  24.080   4.299 -0.1944  0.0092 -0.0648
36904W        W79842  28.017  22.078   5.987 -0.1565 -0.0479  0.0898
36905W        W79843  26.889  22.889   5.634  0.1124 -0.0297 -0.2734
36906W        W79844  26.249  24.363   6.417  0.1986  0.0708  0.0042
36907W        W79845  27.976  23.621   6.767  0.0982 -0.1032  0.0944
36908W        W79846  27.900  23.516   4.965 -0.0009  0.2645 -0.2186
36909W        W79847  26.682  22.241   7.241 -0.2026 -0.0283 -0.0678
36910W        W79848  28.255  23.206   4.633  0.4292  0.2668 -0.0094
36911W        W79849  26.406  26.079   4.645 -0.0573  0.0672 -0.0782
36912W        W79850  26.211  24.856   2.884  0.5531 -0.3488  0.2364
36913W        W79851  27.584  22.076   4.907 -0.3326 -0.0909 -0.0478
36914W        W79852  27.418  24.627   5.460  0.0604  0.0155 -0.1596
36915W        W79853  26.867  24.503   3.417  0.1146  0.1773  0.3255
36916W        W79854  26.602  23.018   6.047  0.1596 -0.0487 -0.0493
36917W        W79855  25.024  25.217   3.572  0.2051 -0.2033  0.1508
36918W        W79856  29.693  21.168   5.002  0.2235 -0.0253 -0.6135
36919W        W79857  25.184  23.779   5.002 -0.0611 -0.1102  0.3787
36920W        W79858  26.659  24.138   4.190 -0.0712  0.0707 -0.3612
36921W        W79859  24.886  23.203   3.497 -0.2460  0.0876  0.1083
36922W        W79860  29.646  22.892   4.174 -0.1838 -0.0538 -0.3498
36923W        W79861  26.788  23.311   2.541  0.3208  0.0135 -0.0758
36924W        W79862  26.108  23.042   6.464 -0.1331  0.1637  0.0295
36925W        W79863  26.401  22.540   4.104 -0.2893 -0.1610  0.1759
36926W        W79864  25.768  24.296   6.312  0.0173  0.1519  0.0779
36927W        W79865  27.803  23.328   5.416  0.1120 -0.0176  0.1247
36928W        W79866  27.920  22.881   3.860 -0.1189 -0.1447 -0.0571
36929W        W79867  29.286  25.524   5.946  0.0127 -0.2154 -0.2718
36930W        W79868  25.625  22.641   7.566 -0.0828 -0.4135 -0.1424
36931W        W79869  27.902  24.070   3.773  0.0227  0.0743  0.1323
36932W        W79870  28.397  21.928   6.764  0.0317 -0.0487  0.0602
36933W        W79871  27.526  23.714   5.638 -0.3181  0.2674 -0.2123
36934W        W79872  25.097  24.718   5.029  0.0010  0.3315 -0.2582
36935W        W79873  27.487  23.976   6.929 -0.1706 -0.0358 -0.1406
36936W        W79874  26.193  23.794   4.028 -0.1117  0.0556  0.2694
36937W        W79875  25.278  23.548   4.458  0.2719  0.2496 -0.1033
36938W        W79876  26.386  21.548   7.354  0.3378  0.2213 -0.2381
36939W        W79877  27.009  23.944   6.630  0.2314 -0.1514 -0.1540
36940W        W79878  26.532  22.248   5.231 -0.2870 -0.0598 -0.0382
36941W        W79879  27.078  24.463   4.813 -0.4674  0.0777  0.3370
36942W        W79880  27.862  22.732   5.431  0.2532 -0.0789 -0.1534
36943W        W79881  27.670  22.407   5.875 -0.1507 -0.3172  0.1978
36944W        W79882  26.652  22.594   6.868 -0.4762  0.2600  0.2090
36945W        W79883  25.942  22.357   7.749  0.1436  0.0157  0.0722
36946W        W79884  27.273  21.979   3.639  0.1719 -0.0589  0.0280
36947W        W79885  29.114  26.050   6.403  0.0849  0.1688 -0.2600
36948W        W79886  27.441  22.827   5.813 -0.0172  0.0817 -0.2206
36949W        W79887  26.113  24.340   4.095 -0.0028 -0.2212 -0.0452
36950W        W79888  25.723  23.132   6.172 -0.0539  0.1042 -0.2669
36951W        W79889  27.434  24.431   3.191  0.1287  0.2392 -0.3219
36952W        W79890  27.420  21.316   5.875  0.1207  0.0120 -0.0825
36953W        W79891  25.622  23.781   5.335 -0.2327  0.0387  0.1041
36954W        W79892  25.462  24.803   4.153  0.1743  0.1353  0.0635
36955W        W79893  26.133  24.150   5.853 -0.0485 -0.0720  0.3447
36956W        W79894  28.705  21.767   5.022 -0.0121  0.0983  0.2625
36957W        W79895  27.314  23.501   3.201  0.2347 -0.0820 -0.0672
36958W        W79896  28.481  23.591   5.145 -0.3318  0.1487 -0.1630
36959W        W79897  29.333  22.595   5.072 -0.0652 -0.0516 -0.0229
36960W        W79898  28.288  24.435   3.888  0.2864 -0.0993  0.1356
36961W        W79899  27.409  21.933   6.717 -0.1667 -0.1535  0.2907
36962W        W79900  25.374  21.170   7.213  0.3061  0.0063 -0.4698
36963W        W79901  27.852  25.141   4.865 -0.1539 -0.1995  0.0610
36964W        W79902  25.207  21.358   6.127 -0.1552  0.3299  0.0623
36965W        W79903  26.933  24.756   6.903 -0.1491  0.2711  0.0490
36966W        W79904  26.267  23.204   6.925  0.2150 -0.1269 -0.3759
36967W        W79905  27.326  22.016   4.155 -0.0427  0.2477 -0.0726
36968W        W79906  25.296  20.842   4.107  0.0359  0.0026  0.0464
36969W        W79907  25.767  22.668   6.339 -0.1908 -0.4143  0.1134
36970W        W79908  27.491  23.363   6.068 -0.2050 -0.3121  0.0723
36971W        W79909  28.619  23.633   3.892  0.0625  0.2738 -0.3087
36972W        W79910  28.476  23.056   5.031  0.2435 -0.3490 -0.2129
36973W        W79911  27.077  21.983   4.707  0.0364 -0.0699  0.0930
36974W        W79912  29.257  24.025   4.348  0.0997 -0.3012 -0.0529
36975W        W79913  27.538  23.759   3.585 -0.2979 -0.1697 -0.1862
36976W        W79914  26.168  24.054   4.516 -0.0263 -0.0337 -0.2302
36977W        W79915  25.658  22.118   6.438 -0.3491 -0.0297 -0.0873
36978W        W79916  26.543  23.134   4.783 -0.5844  0.2116  0.1293
36979W        W79917  29.103  22.414   3.720  0.1909 -0.0891 -0.1164
36980W        W79918  27.130  21.701   6.005  0.0184 -0.2386 -0.2282
36981W        W79919  26.902  22.090   5.743 -0.1770  0.0517  0.1903
36982W        W79920  26.168  22.757   6.037  0.0804  0.1510 -0.1493
36983W        W79921  24.996  22.056   7.097  0.0129  0.0742 -0.3411
36984W        W79922  26.921  24.533   7.434 -0.1522  0.0966  0.0416
36985W        W79923  29.230  21.894   4.554  0.2394 -0.0107  0.2200
36986W        W79924  28.947  22.532   6.507 -0.1247 -0.2039  0.0927
36987W        W79925  28.590  22.954   3.877 -0.1062  0.2811 -0.1454
36988W        W79926  27.379  23.278   3.747  0.4386 -0.2006 -0.0131
36989W        W79927  27.176  22.055   5.340  0.1219  0.0718  0.0244
36990W        W79928  28.236  24.148   7.568 -0.1215  0.1334  0.0243
36991W        W79929  25.401  22.189   2.957  0.2540 -0.1754  0.0809
36992W        W79930  28.071  21.604   6.884  0.1628  0.0908 -0.1357
36993W        W79931  26.196  25.777   3.622  0.2121  0.1699  0.0698
36994W        W79932  27.533  23.728   5.149 -0.1876 -0.0209  0.4400
36995W        W79933  27.285  22.426   5.033 -0.1473  0.2967  0.0360
36996W        W79934  24.858  22.815   5.450 -0.1267 -0.0972 -0.0858
36997W        W79935  26.360  26.612   6.519  0.2547 -0.2914 -0.2606
36998W        W79936  25.819  24.079   3.673  0.1512  0.1286  0.1888
36999W        W79937  24.433  23.108   3.167  0.0786  0.0055 -0.1451
37000W        W79938  27.980  23.876   6.292 -0.0771  0.2439  0.0008
37001W        W79939  30.042  24.116   6.150  0.1368 -0.4558  0.2412
37002W        W79940  27.402  21.567   5.360 -0.1179 -0.1536 -0.2116
37003W        W79941  27.862  22.759   6.737 -0.0630 -0.1800  0.2458
37004W        W79942  25.125  22.992   4.386  0.0400 -0.3571 -0.2308
37005W        W79943  27.205  22.828   3.654  0.1475 -0.0751 -0.1246
37006W        W79944  26.467  24.970   6.338  0.1858 -0.1422 -0.1272
37007W        W79945  25.005  23.873   6.204 -0.0386 -0.2891  0.0469
37008W        W79946  25.641  23.481   4.839  0.3352  0.1318  0.1792
37009W        W79947  27.225  22.499   5.574  0.0035  0.0271 -0.0392
37010W        W79948  29.415  23.335   5.392  0.0641 -0.2134 -0.0505
37011W        W79949  26.884  23.657   6.176 -0.1732 -0.2447  0.1668
37012W        W79950  29.471  23.585   4.893  0.1885 -0.4224  0.4510
37013W        W79951  26.822  24.720   8.238  0.0939  0.2550  0.2529
37014W        W79952  27.410  23.323   4.887  0.1356  0.2621  0.1760
37015W        W79953  27.850  24.847   7.169 -0.1383 -0.1228 -0.1573
37016W        W79954  29.126  23.588   4.530  0.0298 -0.2149 -0.1724
37017W        W79955  25.321  24.271   5.419 -0.1234  0.0518  0.2534
37018W        W79956  25.525  22.828   8.026  0.3354  0.2364 -0.2255
37019W        W79957  27.160  23.427   6.586  0.0945  0.5469  0.0754
37020W        W79958  27.194  24.808   4.445  0.0538  0.1576  0.2946
37021W        W79959  26.065  22.267   4.922 -0.0109  0.1635  0.0745
37022W        W79960  27.013  23.121   4.362  0.2078  0.0374 -0.0791
37023W        W79961  25.565  24.508   7.161  0.2107 -0.0999 -0.1093
37024W        W79962  25.783  23.509   5.741  0.0377  0.0131  0.0177
37025W        W79963  26.393  25.208   3.234 -0.0931  0.3679  0.0527
37026W        W79964  27.697  24.347   2.604 -0.1075 -0.0455  0.0584
37027W        W79965  28.453  24.536   5.357  0.0711 -0.1370 -0.0773
37028W        W79966  26.949  25.338   5.394 -0.1095 -0.1912 -0.1283
37029W        W79967  26.121  21.863   4.577  0.0241  0.1614 -0.4096
37030W        W79968  25.781  23.755   4.335 -0.0539 -0.0877 -0.1120
37031W        W79969  24.945  24.687   4.012 -0.2346  0.1368  0.2376
37032W        W79970  28.134  24.866   3.562 -0.2469 -0.0773  0.4690
37033W        W79971  25.703  25.648   5.777 -0.0459 -0.1405  0.1154
37034W        W79972  27.358  26.124   6.083 -0.1093 -0.0578  0.1048
37035W        W79973  27.422  21.849   3.132  0.0251  0.1232  0.0335
37036W        W79974  28.358  23.676   4.621 -0.1134 -0.2952 -0.2061
37037W        W79975  29.432  22.773   5.529 -0.0987 -0.1042  0.0416
37038W        W79976  28.262  25.909   6.491 -0.0655 -0.4724 -0.1318
37039W        W79977  27.898  22.131   4.435  0.1405  0.1108  0.1595
37040W        W79978  26.237  22.736   3.148  0.1233 -0.0470  0.1469
37041W        W79979  25.017  22.750   6.752 -0.2425 -0.0669 -0.0441
37042W        W79980  29.055  21.828   6.920  0.0950 -0.0053  0.1654
37043W        W79981  26.251  25.017   5.824 -0.1475 -0.3631  0.1092
37044W        W79982  29.034  24.881   5.623 -0.0819 -0.0081 -0.1062
37045W        W79983  24.908  23.329   5.595 -0.3135 -0.0974 -0.0995
37046W        W79984  26.513  23.743   4.678  0.0396 -0.2495 -0.0038
37047W        W79985  30.366  20.671   6.877 -0.0308 -0.2864  0.0151
37048W        W79986  26.933  23.541   4.608  0.0326 -0.0698 -0.1664
37049W        W79987  28.272  23.213   5.479  0.1101 -0.1678  0.1501
37050W        W79988  26.399  25.319   3.696  0.0296  0.0084 -0.1936
37051W        W79989  25.057  22.856   4.922 -0.1879 -0.1378 -0.1822
37052W        W79990  26.353  24.790   6.775 -0.0673  0.0170 -0.0080
37053W        W79991  25.360  22.518   5.228  0.1131  0.1743 -0.1151
37054W        W79992  29.113  22.487   4.529  0.1947 -0.0036 -0.2986
37055W        W79993  27.257  23.321   5.590 -0.2383  0.2804 -0.1838
37056W        W79994  28.948  22.555   5.396  0.0519  0.4775 -0.0672
37057W        W79995  26.833  22.417   4.781  0.3169 -0.0357 -0.1424
37058W        W79996  28.742  22.915   5.663 -0.1303 -0.0019  0.0568
37059W        W79997  27.483  24.535   7.010 -0.0677  0.2870 -0.1386
37060W        W79998  25.719  22.998   6.711 -0.0872  0.1003 -0.1778
37061W        W79999  27.378  23.025   3.258 -0.1178 -0.4929 -0.1956
37062W        W80000  29.909  24.920   5.842  0.0469 -0.3816  0.1330
37063W        W80001  26.597  23.621   3.775 -0.1280 -0.0001 -0.0132
37064W        W80002  27.190  25.385   7.488 -0.3208 -0.1000 -0.2744
37065W        W80003  23.313  20.974   5.424  0.0027  0.1922  0.1874
37066W        W80004  27.203  24.185   4.237 -0.1437 -0.1376 -0.1098
37067W        W80005  27.083  23.889   4.967  0.2811  0.0138  0.1365
37068W        W80006  26.099  22.195   7.303  0.2368 -0.1917  0.1674
37069W        W80007  28.420  25.445   6.643  0.3181 -0.2390 -0.1596
37070W        W80008  25.580  22.454   5.892  0.0885  0.0100 -0.0054
37071W        W80009  27.794  23.453   3.964  0.2398  0.0236  0.0171
37072W        W80010  27.443  22.913   5.191  0.3042 -0.3643 -0.1544
37073W        W80011  26.961  26.063   3.154  0.3269  0.2161 -0.1017
37074W        W80012  27.796  24.571   3.650  0.2011  0.3389 -0.1166
37075W        W80013  28.157  26.190   5.913 -0.0668 -0.1153 -0.0419
37076W        W80014  24.881  22.300   5.287  0.0371  0.1485  0.2309
37077W        W80015  27.426  24.847   6.600 -0.1540 -0.1467 -0.0278
37078W        W80016  29.874  24.166   5.306 -0.0642  0.1344 -0.0362
37079W        W80017  26.919  21.630   5.146 -0.2382  0.1038 -0.1306
37080W        W80018  27.622  22.316   5.331  0.0077 -0.0844 -0.0673
37081W        W80019  26.022  23.367   4.560  0.0958 -0.0954  0.1238
37082W        W80020  27.873  21.438   5.586 -0.0106  0.1230  0.0963
37083W        W80021  27.803  21.552   6.070  0.1499 -0.1236 -0.0343
37084W        W80022  27.285  25.281   3.542 -0.0269  0.1155  0.0862
37085W        W80023  28.852  21.078   6.799  0.1502  0.1310  0.0972
37086W        W80024  27.990  24.909   6.568  0.3804 -0.0428 -0.0792
37087W        W80025  27.655  24.409   6.135  0.4554 -0.1416  0.2573
37088W        W80026  24.922  22.947   2.983  0.4721  0.0673 -0.4420
37089W        W80027  26.383  21.931   6.992  0.1954  0.0528  0.0930
37090W        W80028  27.632  25.028   6.154 -0.2983 -0.1404 -0.2796
37091W        W80029  27.488  26.669   5.463 -0.2490  0.0902  0.2158
37092W        W80030  28.216  24.943   5.140  0.1428 -0.3289 -0.1264
37093W        W80031  27.241  23.981   3.298 -0.1184 -0.1716  0.1637
37094W        W80032  27.714  24.944   4.424 -0.1483 -0.0351 -0.0423
37095W        W80033  27.034  22.957   4.852 -0.0645 -0.0358  0.0019
37096W        W80034  29.913  22.799   4.935 -0.4590 -0.0029  0.3060
37097W        W80035  27.140  21.446   3.876  0.3648 -0.2188  0.1486
37098W        W80036  27.034  23.792   5.453  0.1349 -0.1669 -0.1525
37099W        W80037  25.480  23.440   3.641 -0.2398 -0.1249  0.0114
37100W        W80038  26.983  24.265   2.982  0.1611 -0.1193 -0.1120
37101W        W80039  26.055  25.334   5.535 -0.1837 -0.0257  0.1497
37102W        W80040  26.000  22.220   6.081  0.1090  0.0534 -0.2413
37103W        W80041  25.966  22.372   5.444  0.1907 -0.2229 -0.0099
37104W        W80042  26.526  23.658   5.216  0.0221  0.0423  0.0919
37105W        W80043  26.088  22.880   4.756 -0.0033  0.1902  0.0467
37106W        W80044  27.806  24.052   3.221  0.2341  0.0260  0.2357
37107W        W80045  25.556  20.932   6.118 -0.0361 -0.2813 -0.1801
37108W        W80046  25.819  20.478   4.359  0.0401 -0.2449  0.0402
37109W        W80047  28.238  23.265   4.120 -0.0482 -0.1508 -0.0637
37110W        W80048  29.365  24.071   5.207 -0.0152  0.3117  0.0639
37111W        W80049  27.292  22.385   4.543 -0.1252 -0.1691  0.0942
37112W        W80050  28.655  24.114   6.929  0.1759  0.0217  0.0843
37113W        W80051  26.404  23.903   2.650  0.0836  0.0347  0.0140
37114W        W80052  26.737  22.690   7.665 -0.1976  0.0094  0.1605
37115W        W80053  26.086  20.370   7.338  0.1336 -0.0877 -0.1710
37116W        W80054  24.729  20.982   4.108 -0.3402 -0.0411  0.2331
37117W        W80055  26.488  22.301   6.087 -0.0083 -0.2022  0.0643
37118W        W80056  26.980  25.582   3.808  0.0980  0.1047 -0.2339
37119W        W80057  28.857  25.512   3.092  0.2458  0.1629  0.2097
37120W        W80058  26.956  24.298   5.874 -0.4190 -0.0668 -0.1579
37121W        W80059  26.861  25.224   6.690 -0.0976 -0.2809  0.5679
37122W        W80060  24.334  21.653   4.745 -0.2217 -0.0686  0.2362
37123W        W80061  27.459  22.902   4.608 -0.4007  0.1065 -0.0641
37124W        W80062  27.382  23.369   7.461 -0.0636  0.0265 -0.1660
37125W        W80063  29.268  24.351   4.857 -0.0542 -0.0270  0.1072
37126W        W80064  29.272  22.259   5.619  0.1029 -0.0183 -0.0020
37127W        W80065  27.963  24.074   4.899 -0.1824 -0.1991 -0.3356
37128W        W80066  25.805  21.359   5.841 -0.2251  0.2735 -0.0538
37129W        W80067  26.734  24.409   6.560 -0.0013 -0.1592 -0.0334
37130W        W80068  29.217  23.226   5.847  0.3768  0.0111  0.2201
37131W        W80069  24.546  20.867   4.932 -0.0362 -0.1118  0.0884
37132W        W80070  28.667  21.677   4.546  0.2210  0.1414  0.1083
37133W        W80071  26.257  23.026   4.243 -0.2476  0.2665 -0.4841
37134W        W80072  24.832  23.185   6.680 -0.1554  0.2226 -0.2816
37135W        W80073  27.372  22.784   4.145 -0.1248 -0.0618 -0.0181
37136W        W80074  26.861  22.047   6.326 -0.1702 -0.1143  0.2707
37137W        W80075  26.402  24.502   5.482 -0.2203 -0.0353 -0.1004
37138W        W80076  28.484  24.879   6.666  0.0640  0.2701  0.2598
37139W        W80077  27.000  24.326   5.395  0.0738 -0.1837 -0.0211
37140W        W80078  29.203  23.757   3.080 -0.0696 -0.2445  0.1172
37141W        W80079  27.617  23.218   6.589  0.0326  0.0341  0.0222
37142W        W80080  28.579  25.046   8.208 -0.1020  0.2129 -0.1193
37143W        W80081  25.914  24.247   5.418 -0.4049  0.0064 -0.0524
37144W        W80082  27.084  23.017   6.198 -0.2323  0.1455  0.3329
37145W        W80083  25.253  20.306   7.023  0.1931  0.1033  0.3075
37146W        W80084  25.510  24.964   5.326 -0.0336 -0.1274  0.1145
37147W        W80085  25.999  23.861   4.940  0.2118  0.2503 -0.2043
37148W        W80086  28.387  21.435   6.059  0.1316  0.1037  0.2451
37149W        W80087  26.122  21.805   5.082  0.2639  0.1186  0.2865
37150W        W80088  26.495  21.746   3.586 -0.1757  0.5470  0.1492
37151W        W80089  27.483  24.568   7.524  0.1129  0.1195  0.3373
37152W        W80090  27.536  24.376   4.612 -0.0244 -0.0919 -0.0193
37153W        W80091  24.731  26.282   9.659 -0.1186  0.2202 -0.1919
37154W        W80092  26.004  22.958   7.849 -0.0909 -0.0884 -0.1489
37155W        W80093  27.535  22.790   6.312 -0.1612  0.2729 -0.1088
37156W        W80094  27.324  24.138   7.369  0.2625 -0.2494 -0.1724
37157W        W80095  24.567  21.753   8.162 -0.3668 -0.0881  0.2363
37158W        W80096  27.205  25.236   7.939 -0.4018  0.0336  0.1805
37159W        W80097  27.734  23.782   9.095  0.1138  0.0276 -0.1356
37160W        W80098  28.223  23.740   9.094 -0.1358  0.1038 -0.0516
37161W        W80099  25.542  24.173  10.122  0.1573  0.1530 -0.2321
37162W        W80100  25.727  21.676   9.296 -0.0007  0.0895 -0.2031
37163W        W80101  27.173  20.540   6.671  0.0748 -0.0695 -0.2820
37164W        W80102  24.327  19.795   9.134  0.0874 -0.0669  0.0857
37165W        W80103  27.039  22.196   9.503  0.1188 -0.1486 -0.1558
37166W        W80104  25.748  23.214   8.925  0.2238  0.1340  0.0720
37167W        W80105  26.014  22.562   9.930  0.1726 -0.1203  0.0782
37168W        W80106  26.599  22.993   9.024  0.1376  0.1484 -0.2935
37169W        W80107  26.148  25.035   9.811 -0.1859  0.0531 -0.0263
37170W        W80108  26.732  20.825   9.357  0.2061 -0.1799  0.0465
37171W        W80109  26.094  24.137   7.262  0.0715 -0.2071  0.1889
37172W        W80110  25.472  22.299   7.990  0.1806  0.0648 -0.0302
37173W        W80111  25.678  21.151   8.571 -0.0721 -0.1469  0.3418
37174W        W80112  27.559  23.337   9.146  0.1348  0.0645  0.1663
37175W        W80113  28.538  23.520   8.735  0.2915 -0.1341  0.0161
37176W        W80114  28.886  24.718   7.750  0.1486 -0.2972  0.0059
37177W        W80115  25.599  25.365   8.711 -0.0603 -0.0877 -0.0994
37178W        W80116  27.400  23.608   8.633 -0.1221  0.1816  0.4101
37179W        W80117  25.736  22.550   9.454 -0.0749  0.2772  0.0183
37180W        W80118  26.201  25.365   8.213 -0.3421 -0.0655 -0.4661
37181W        W80119  25.531  23.531   7.427  0.0536  0.0602 -0.1437
37182W        W80120  28.882  24.647   7.025  0.0471  0.0366 -0.3892
37183W        W80121  24.727  23.520   8.087 -0.3388  0.1664 -0.0598
37184W        W80122  26.636  23.788   7.970 -0.1324  0.0087  0.3003
37185W        W80123  26.113  24.150   9.547  0.2122 -0.0936  0.1179
37186W        W80124  26.199  22.711   7.454  0.2150 -0.2712  0.1328
37187W        W80125  26.487  23.966   8.595 -0.2191  0.3486 -0.0290
37188W        W80126  26.733  24.289   9.708  0.1414  0.2404  0.2016
37189W        W80127  25.805  24.366   7.637  0.2213  0.0084 -0.2009
37190W        W80128  27.112  22.138   7.041 -0.1180  0.1686  0.0143
37191W        W80129  25.956  21.563   8.505 -0.0536 -0.0787 -0.4125
37192W        W80130  27.212  22.880   7.660  0.1388 -0.0791 -0.1029
37193W        W80131  26.213  20.041   9.282 -0.2436 -0.2746  0.0347
37194W        W80132  25.793  25.109   8.314 -0.0835  0.1655  0.2305
37195W        W80133  27.867  20.810   8.576 -0.0297  0.0081 -0.2949
37196W        W80134  25.687  23.760   8.381 -0.1465  0.0407  0.1535
37197W        W80135  25.417  21.877  10.363 -0.0613 -0.0555  0.3456
37198W        W80136  25.337  24.722  10.278 -0.1030  0.0805  0.0074
37199W        W80137  26.078  22.084   9.379  0.1301 -0.0962  0.1065
37200W        W80138  28.391  24.614   7.905 -0.0410 -0.1913 -0.1193
37201W        W80139  29.243  24.460   8.918 -0.0497 -0.1104 -0.1817
37202W        W80140  27.723  25.442   6.532  0.1214  0.0684 -0.0134
37203W        W80141  25.936  23.143   7.357 -0.2499  0.0765  0.2634
37204W        W80142  25.927  20.847   7.375 -0.1921 -0.1505  0.1853
37205W        W80143  30.170  23.148   8.355  0.0334  0.1800  0.1047
37206W        W80144  26.359  24.529   7.676  0.1449 -0.0010  0.2100
37207W        W80145  28.515  23.131   8.307  0.1212 -0.1106 -0.1692
37208W        W80146  27.534  22.319   8.115  0.0758  0.1296  0.2007
37209W        W80147  27.757  22.400   9.295  0.0519  0.2859 -0.0495
37210W        W80148  27.999  23.113   9.015  0.1174  0.4388 -0.2238
37211W        W80149  25.217  24.262   7.466  0.3331  0.2198 -0.1478
37212W        W80150  25.112  23.140   8.184 -0.0717 -0.0816 -0.1355
37213W        W80151  28.264  23.611   8.340 -0.1936  0.1045  0.0195
37214W        W80152  28.211  23.894   7.125 -0.0247  0.0213 -0.1681
37215W        W80153  28.001  23.400   9.452  0.3250 -0.1636 -0.0379
37216W        W80154  27.445  25.675   5.998  0.2383 -0.0891  0.2235
37217W        W80155  24.930  22.645   8.778  0.1872  0.1220 -0.0208
37218W        W80156  26.257  24.056   7.740 -0.1271 -0.3245 -0.3971
37219W        W80157  26.369  19.705   8.909  0.2067 -0.1038 -0.0123
37220W        W80158  24.913  24.122   9.514  0.1303  0.0057 -0.2647
37221W        W80159  28.795  22.740   7.395 -0.2820 -0.2257  0.2586
37222W        W80160  26.604  20.492   7.381  0.2557  0.0608  0.1250
37223W        W80161  26.156  23.916   8.226 -0.1981  0.1324  0.0069
37224W        W80162  27.532  24.928   8.733 -0.2051 -0.2560 -0.0559
37225W        W80163  27.539  21.971   7.233  0.0069 -0.0303 -0.0705
37226W        W80164  28.005  25.325   6.910  0.1393 -0.0492 -0.1781
37227W        W80165  25.012  21.625   8.946  0.1398  0.3055 -0.2664
37228W        W80166  26.470  21.908   8.197 -0.2590 -0.1518  0.1788
37229W        W80167  26.542  22.176   9.291  0.0741 -0.1332  0.3832
37230W        W80168  26.150  19.763   8.474 -0.1068  0.0293  0.2165
37231W        W80169  29.026  23.027   9.265 -0.0373  0.0679 -0.1576
37232W        W80170  26.227  22.347   8.336  0.1545 -0.1486  0.1038
37233W        W80171  25.744  22.484   8.418  0.0759 -0.0365 -0.1074
37234W        W80172  26.880  25.042   7.573  0.0878  0.0065  0.3477
37235W        W80173  29.731  26.392   8.991  0.1163  0.0265 -0.2342
37236W        W80174  26.623  25.091   8.542 -0.1847 -0.3438  0.2011
37237W        W80175  24.859  22.730   9.447  0.5225 -0.0820 -0.0079
37238W        W80176  27.248  22.364   9.094 -0.1401 -0.0700 -0.1347
37239W        W80177  24.776  26.183   7.592  0.1883  0.2132 -0.0559
37240W        W80178  24.133  24.793  10.055 -0.0455  0.1353 -0.0823
37241W        W80179  25.152  21.683   9.496 -0.2710 -0.0962 -0.3799
37242W        W80180  28.480  24.439   8.477 -0.2788 -0.2323  0.0487
37243W        W80181  26.529  21.998   7.682 -0.0019  0.0321  0.0744
37244W        W80182  27.644  22.220   8.735 -0.0272 -0.1802  0.0744
37245W        W80183  27.341  23.317   7.956 -0.0814 -0.2562  0.2169
37246W        W80184  25.964  22.235   6.827  0.1792 -0.0686  0.0473
37247W        W80185  27.616  25.683   9.274  0.1057 -0.0639  0.1001
37248W        W80186  25.349  24.511   9.771 -0.1791 -0.3453  0.1576
37249W        W80187  24.717  21.899   9.335 -0.0418 -0.0430 -0.0728
37250W        W80188  26.920  25.607   9.404  0.3186  0.2054  0.0548
37251W        W80189  29.132  23.020   8.027  0.1088 -0.2146 -0.0870
37252W        W80190  25.335  22.915   8.549 -0.3570 -0.0941 -0.3182
37253W        W80191  27.397  21.099   7.353  0.0957 -0.2548 -0.1110
37254W        W80192  28.240  21.867   7.306 -0.1017 -0.0864 -0.0101
37255W        W80193  27.039  22.645   7.191  0.1292  0.4747  0.0699
37256W        W80194  26.877  23.254   7.567 -0.0167  0.4440 -0.1614
37257W        W80195  26.131  20.609   7.873  0.2073 -0.0352  0.0686
37258W        W80196  27.070  23.692   7.101 -0.2639 -0.0546  0.0226
37259W        W80197  27.199  24.326   9.339 -0.2086  0.2257  0.1256
37260W        W80198  26.187  21.121   7.748 -0.1393  0.3390  0.0311
37261W        W80199  28.769  26.151   7.148 -0.0437  0.0192 -0.1106
37262W        W80200  25.987  23.046   9.297 -0.1112  0.1485  0.0509
37263W        W80201  28.240  24.375   8.951  0.0612 -0.1039 -0.3665
37264W        W80202  27.518  21.862   7.866 -0.2074  0.0750  0.1399
37265W        W80203  26.022  22.866   8.361  0.0744 -0.2946 -0.0983
37266W        W80204  27.113  21.240   8.535 -0.2769 -0.0003 -0.1366
37267W        W80205  25.723  25.419   6.946 -0.1501 -0.0142  0.1405
37268W        W80206  29.812  22.565   9.223  0.0397 -0.0298 -0.0292
37269W        W80207  27.466  19.231   8.947 -0.0396 -0.0997 -0.0926
37270W        W80208  27.930  22.591   7.198  0.4658  0.0439 -0.1134
37271W        W80209  27.913  23.493   8.729  0.2907 -0.1440 -0.1413
37272W        W80210  25.330  23.204   6.903 -0.2938  0.0563 -0.0870
37273W        W80211  25.195  22.223   9.598  0.0870 -0.3768  0.0222
37274W        W80212  25.391  24.875   8.964  0.0718 -0.0209  0.0412
37275W        W80213  27.055  22.714   8.181 -0.2691  0.2045 -0.0956
37276W        W80214  26.990  20.783   7.342  0.2029  0.0370  0.1753
37277W        W80215  26.381  23.340   7.769  0.0092  0.1112  0.0122
37278W        W80216  25.030  24.752   8.047  0.3509 -0.2168 -0.2721
37279W        W80217  24.646  19.917   7.586  0.0969  0.0917 -0.3002
37280W        W80218  25.743  24.601   9.454  0.2774 -0.1015  0.1259
37281W        W80219  26.430  23.412   6.305  0.0620 -0.0963 -0.0734
37282W        W80220  27.163  23.921   9.672 -0.2350  0.1587  0.2784
37283W        W80221  25.750  25.443   9.898  0.3288  0.0251 -0.0734
37284W        W80222  27.374  20.885   9.352 -0.4373 -0.1552 -0.0080
37285W        W80223  24.714  23.117   8.973 -0.0928 -0.1122 -0.1627
37286W        W80224  25.132  22.195   7.588  0.0393  0.2307 -0.1485
37287W        W80225  25.502  21.738   7.775 -0.1077  0.3951 -0.0557
37288W        W80226  26.368  23.395   8.275 -0.1165 -0.2389 -0.2622
37289W        W80227  27.731  24.233   6.621  0.0477  0.1718 -0.2908
37290W        W80228  24.692  22.010   8.762 -0.0827 -0.1493  0.0114
37291W        W80229  27.181  21.020   7.788 -0.2093 -0.3504 -0.0677
37292W        W80230  25.180  23.400   9.052  0.0057 -0.2192 -0.0323
37293W        W80231  27.822  22.279   6.441  0.0301 -0.1985  0.0238
37294W        W80232  25.431  23.032   7.402  0.0015 -0.0533  0.3079
37295W        W80233  28.916  22.562   8.116 -0.0974 -0.0767 -0.3850
37296W        W80234  26.193  23.559   9.376  0.2252 -0.2018  0.0445
37297W        W80235  24.727  23.682   8.948 -0.0631 -0.1905  0.1601
37298W        W80236  29.135  24.141   9.235  0.0620 -0.1561  0.1714
37299W        W80237  26.220  23.738   6.969 -0.1867  0.0788  0.0824
37300W        W80238  25.103  25.242   7.652 -0.1830  0.2589 -0.4130
37301W        W80239  25.370  25.232  10.212  0.0077 -0.1316 -0.1349
37302W        W80240  24.333  22.760  10.310 -0.0070  0.1553  0.0630
37303W        W80241  25.831  23.631   9.734 -0.1085 -0.1679  0.1104
37304W        W80242  26.519  23.536   7.264  0.1860 -0.0860  0.1559
37305W        W80243  29.946  23.803   8.411 -0.1765 -0.2592  0.4139
37306W        W80244  28.546  25.801   9.292  0.0870  0.1262  0.0144
37307W        W80245  26.797  22.282   8.256  0.1648  0.0382  0.0677
37308W        W80246  28.828  25.326   9.020  0.0935  0.0298 -0.1979
37309W        W80247  25.320  23.474   8.578  0.3188 -0.1883 -0.1029
37310W        W80248  24.078  21.148  10.299  0.2838 -0.0301  0.2049
37311W        W80249  25.860  24.707   8.650  0.0800 -0.3418 -0.2775
37312W        W80250  26.565  21.900   8.677 -0.1132  0.1149 -0.1586
37313W        W80251  23.414  23.105  11.665 -0.1319 -0.2111 -0.1373
37314W        W80252  25.194  23.668   9.669 -0.1380  0.0379  0.0151
37315W        W80253  24.478  22.667   9.774 -0.0281 -0.1948  0.2625
37316W        W80254  27.948  22.057   6.972 -0.2834  0.0456  0.0161
37317W        W80255  27.385  24.119   8.700  0.2381 -0.1991 -0.2463
37318W        W80256  26.982  21.790   7.895  0.0382  0.0884 -0.0525
37319W        W80257  27.161  24.691   7.853 -0.0276 -0.0693  0.3029
37320W        W80258  25.221  20.501   8.642  0.2093  0.3422  0.0944
37321W        W80259  27.736  22.699   7.717  0.0240  0.1067 -0.2498
37322W        W80260  26.839  21.371   8.153  0.0868 -0.2971 -0.3951
37323W        W80261  26.022  21.837   7.635 -0.1381 -0.1269  0.0935
37324W        W80262  26.883  22.678   9.255 -0.0925 -0.0583 -0.2254
37325W        W80263  29.506  22.084   9.276 -0.0838 -0.2378 -0.0312
37326W        W80264  26.080  24.230   8.620  0.2603  0.1628  0.1224
37327W        W80265  26.824  23.287   8.050 -0.1907  0.0824 -0.1672
37328W        W80266  24.133  22.303   8.923  0.0206 -0.0916 -0.0294
37329W        W80267  28.094  23.778   7.794  0.3283  0.2396  0.3646
37330W        W80268  26.987  23.209   7.062 -0.0133 -0.2409 -0.0641
37331W        W80269  26.080  23.681   8.703 -0.1886 -0.1964 -0.2533
37332W        W80270  27.276  24.508   8.433  0.2392 -0.2601 -0.0979
37333W        W80271  26.793  22.377   8.865 -0.1005 -0.1756  0.3398
37334W        W80272  28.117  25.793   8.958 -0.2989 -0.0725 -0.3794
37335W        W80273  28.805  23.117   6.526 -0.0943 -0.0379 -0.1196
37336W        W80274  29.562  22.266   7.630  0.1424 -0.2117  0.1805
37337W        W80275  27.896  24.521   8.098 -0.1063 -0.1843 -0.2093
37338W        W80276  27.468  22.404   7.461 -0.0997  0.2214  0.1643
37339W        W80277  25.528  22.918   9.718  0.0909  0.3287 -0.0008
37340W        W80278  27.403  21.416   8.098  0.0577  0.0436  0.0161
37341W        W80279  26.473  24.571   8.705 -0.3127 -0.0383  0.0884
37342W        W80280  28.856  23.295   9.707  0.1422 -0.1934  0.1650
37343W        W80281  27.154  22.366   6.537 -0.1557 -0.0967 -0.0729
37344W        W80282  25.798  20.339   9.251 -0.1065 -0.4037  0.1774
37345W        W80283  26.253  22.536   6.481 -0.1066 -0.0062  0.2333
37346W        W80284  26.740  22.664   6.340  0.4818  0.3122 -0.1519
37347W        W80285  29.787  26.554   9.481  0.2101 -0.0152  0.1145
37348W        W80286  26.834  21.760   7.359  0.0443  0.0059  0.2740
37349W        W80287  25.759  23.461   6.953 -0.3157  0.1902  0.3426
37350W        W80288  27.293  21.564   7.549 -0.0411  0.2702 -0.1905
37351W        W80289  25.793  25.376   7.840  0.0837 -0.2929 -0.0809
37352W        W80290  25.558  24.687   8.108  0.1633  0.1624 -0.1831
37353W        W80291  26.348  21.111   8.226 -0.2797  0.0880  0.0837
37354W        W80292  27.878  24.024   8.694 -0.0063  0.2058 -0.0090
37355W        W80293  27.558  23.119   8.689 -0.1995  0.1679 -0.3992
37356W        W80294  24.697  23.437   9.446 -0.1285  0.0553  0.0554
37357W        W80295  29.137  23.503   7.873 -0.1546  0.2172  0.2776
37358W        W80296  24.923  23.548  10.164  0.0424  0.1947  0.1007
37359W        W80297  27.055  22.783   8.698  0.0504 -0.0622 -0.1046
37360W        W80298  25.876  21.286   8.997 -0.3538 -0.1130 -0.2308
37361W        W80299  26.024  23.676   7.425  0.0774 -0.3593  0.0742
37362W        W80300  24.376  23.737  10.234 -0.4653 -0.1148 -0.1093
37363W        W80301  26.238  24.805   8.285  0.0237 -0.3032  0.1131
37364W        W80302  27.570  25.044   7.659 -0.0852 -0.1554  0.1818
37365W        W80303  26.148  22.717   6.945 -0.2786  0.0098 -0.0116
37366W        W80304  28.744  24.540   8.934  0.1352 -0.1106  0.0733
37367W        W80305  27.329  21.659   8.832 -0.3497  0.0975 -0.0166
37368W        W80306  24.590  25.188   8.554 -0.2928 -0.1110 -0.1956
37369W        W80307  25.277  24.886   7.120 -0.1465 -0.3386  0.0704
37370W        W80308  27.110  25.053   8.440  0.0645 -0.0083  0.0814
37371W        W80309  25.244  26.153   8.033  0.0588  0.3702  0.2400
37372W        W80310  27.611  21.477   6.531 -0.1625  0.2398  0.1241
37373W        W80311  28.210  22.641   9.367  0.0649  0.0694  0.2586
37374W        W80312  28.129  22.832   8.056 -0.0151  0.0446 -0.0116
37375W        W80313  25.359  21.970   9.119 -0.1672  0.2029  0.0946
37376W        W80314  25.641  20.448   9.681  0.0967 -0.3405 -0.0764
37377W        W80315  27.335  24.220   7.930  0.1792 -0.0529  0.2790
37378W        W80316  26.006  22.734   8.881  0.3540 -0.0386  0.0339
37379W        W80317  25.602  23.366   9.379  0.0431  0.0438  0.1170
37380W        W80318  28.178  20.707  12.482 -0.1738  0.0378  0.0507
37381W        W80319  25.640  23.711   8.966 -0.2571  0.0362 -0.2027
37382W        W80320  28.423  22.840   8.897 -0.1882 -0.1477 -0.1907
37383W        W80321  26.160  25.274   8.683 -0.0917 -0.3871 -0.2658
37384W        W80322  26.081  23.978   9.065 -0.0407  0.0195  0.2240
37385W        W80323  26.950  24.343   8.808 -0.1598 -0.0688 -0.1799
37386W        W80324  25.952  21.972   8.122 -0.1413  0.1073 -0.0673
37387W        W80325  28.497  23.978   7.977 -0.3254 -0.2646 -0.2120
37388W        W80326  27.888  19.943   9.648  0.0017 -0.3318  0.3726
37389W        W80327  26.549  23.575   8.930 -0.0476 -0.1346 -0.1280
37390W        W80328  29.317  22.579   9.152 -0.1408  0.0788 -0.0032
37391W        W80329  28.239  26.234   9.604  0.1263 -0.2830 -0.1893
37392W        W80330  27.184  22.218   8.536  0.1326 -0.0288 -0.1628
37393W        W80331  26.835  24.268   7.847  0.0321 -0.0021 -0.0787
37394W        W80332  26.668  24.026   7.429 -0.0588 -0.0721 -0.1275
37395W        W80333  24.829  21.291   8.135  0.2627 -0.2423  0.1277
37396W        W80334  27.643  21.497   7.125  0.0558  0.1613  0.4325
37397W        W80335  25.818  24.585  10.038 -0.0609  0.0147 -0.5605
37398W        W80336  26.221  23.190   8.780 -0.2286 -0.1611 -0.1568
37399W        W80337  25.352  21.190   9.066 -0.4140 -0.1933 -0.3496
37400W        W80338  28.690  23.669   7.174  0.3216  0.0337 -0.0687
37401W        W80339  28.126  24.121   8.211 -0.0097 -0.3532 -0.0931
37402W        W80340  26.612  25.958   8.232  0.0165 -0.0262 -0.1333
37403W        W80341  28.492  24.933   8.728  0.0310  0.3581  0.0977
37404W        W80342  28.068  25.669   9.467  0.3573  0.1689 -0.0689
37405W        W80343  26.414  21.204   9.095 -0.0729 -0.4305  0.1823
37406W        W80344  28.375  24.891   9.232 -0.0618  0.1921  0.0665
37407W        W80345  28.708  24.267   7.579 -0.2788 -0.0201 -0.1720
37408W        W80346  25.966  20.595   8.383 -0.0159  0.0109 -0.1626
37409W        W80347  25.620  24.310   8.437  0.1068  0.0593  0.0216
37410W        W80348  24.911  25.799   7.963  0.2995 -0.0003  0.3443
37411W        W80349  29.896  21.734   9.910  0.1886  0.1205 -0.2035
37412W        W80350  26.340  23.650   5.884 -0.0719 -0.3100 -0.2726
37413W        W80351  27.984  22.620   8.795 -0.2051  0.1467 -0.1104
37414W        W80352  24.962  23.333   7.678  0.0833  0.0859  0.2741
37415W        W80353  26.025  24.392   8.146  0.0452  0.2188  0.0753
37416W        W80354  26.075  25.001   9.102  0.3039 -0.2534 -0.0821
37417W        W80355  28.026  24.973   7.840 -0.0040  0.0004  0.4084
37418W        W80356  28.067  23.024   8.485  0.3081  0.0918  0.0953
37419W        W80357  28.468  23.988   8.639 -0.0644  0.1085 -0.2003
37420W        W80358  26.240  22.247   8.837  0.0715  0.4101  0.0123
37421W        W80359  29.561  21.537   8.055 -0.2044  0.1478  0.2187
37422W        W80360  26.704  19.996   7.356 -0.1262  0.3420 -0.0790
37423W        W80361  26.956  23.725   8.592 -0.3116 -0.1575  0.0315
37424W        W80362  25.339  22.205   8.604 -0.1672 -0.2162 -0.0904
37425W        W80363  25.622  24.028   7.328  0.0030 -0.2915 -0.2320
37426W        W80364  25.629  23.967   9.394 -0.2186  0.1765  0.0224
37427W        W80365  25.205  21.435   9.957  0.0024  0.0139  0.0251
37428W        W80366  26.440  21.431   8.624  0.1105 -0.1617  0.1010
37429W        W80367  28.090  24.604   7.459 -0.3997  0.0886 -0.1565
37430W        W80368  25.567  21.587   8.780 -0.1414 -0.2652 -0.3353
37431W        W80369  25.787  22.024   8.754  0.1146 -0.0179  0.1025
37432W        W80370  28.876  25.149   6.767 -0.0967  0.1855 -0.0957
37433W        W80371  27.699  24.955   8.253 -0.0377 -0.0556 -0.0128
37434W        W80372  26.935  20.194   9.931  0.1435 -0.1664  0.0273
37435W        W80373  24.119  23.351   6.764  0.0836 -0.4108  0.1683
37436W        W80374  26.198  21.278   6.938  0.1521  0.0276 -0.0648
37437W        W80375  26.173  23.148   9.785 -0.1808 -0.0076 -0.0439
37438W        W80376  26.477  24.316   8.164 -0.0388 -0.2322 -0.2339
37439W        W80377  27.216  25.570   6.874 -0.0421  0.5572 -0.2103
37440W        W80378  26.283  22.625   9.241 -0.1917 -0.0641 -0.4287
37441W        W80379  26.711  23.199   8.564  0.0157  0.0444 -0.2376
37442W        W80380  29.395  24.702   8.137  0.0904  0.1651  0.0481
37443W        W80381  29.838  22.499   8.364  0.0931  0.1004 -0.2084
37444W        W80382  27.071  23.765   7.602  0.5905  0.0798 -0.0083
37445W        W80383  26.966  24.156   8.327 -0.2697  0.2439  0.0451
37446W        W80384  25.153  19.997   8.446 -0.4911 -0.2845  0.0285
37447W        W80385  27.873  22.134   7.510 -0.1794 -0.0364  0.1433
37448W        W80386  27.012  24.253   7.003 -0.0621 -0.0374  0.1069
37449W        W80387  24.960  22.299   9.132 -0.2689  0.0519 -0.1344
37450W        W80388  26.414  21.975   6.489  0.1671 -0.4117 -0.2846
37451W        W80389  26.917  23.939   9.098 -0.0286  0.4995 -0.0845
37452W        W80390  27.036  22.253   7.672  0.2177  0.1046 -0.0812
37453W        W80391  28.374  23.929   6.563 -0.0049  0.4734 -0.1505
37454W        W80392  28.520  25.335   9.453 -0.3142 -0.3001  0.0771
37455W        W80393  26.419  25.708   9.471  0.2003  0.2090 -0.1114
37456W        W80394  27.550  21.885   8.440  0.3235 -0.1368 -0.2105
37457W        W80395  24.662  21.415   8.607  0.1601 -0.0872 -0.0662
37458W        W80396  25.687  23.211   8.379  0.1215  0.2188  0.0638
37459W        W80397  26.081  24.508   9.083 -0.2750  0.2771 -0.0701
37460W        W80398  27.679  23.000   8.149 -0.0054  0.0103  0.2419
37461W        W80399  24.979  20.508   8.228  0.3530  0.2920 -0.2094
37462W        W80400  26.475  21.551   7.843 -0.0596  0.1199 -0.3128
37463W        W80401  24.558  24.288   9.982 -0.3107 -0.1491  0.0033
37464W        W80402  27.203  23.187   8.388  0.1850 -0.2894 -0.1558
37465W        W80403  26.005  26.853   3.522  0.0742  0.2093  0.3109
37466W        W80404  25.431  26.957   1.837  0.1666 -0.0771  0.2691
37467W        W80405  27.489  27.280  31.814  0.0438  0.2132 -0.0675
37468W        W80406  28.038  28.053   0.145  0.2521  0.0934 -0.0872
37469W        W80407  25.465  26.528   2.067  0.5773  0.0001 -0.3189
37470W        W80408  26.510  28.948   0.215 -0.0293  0.0750 -0.0678
37471W        W80409  25.079  24.660   2.632 -0.2690 -0.2212 -0.1478
37472W        W80410  27.469  28.330   2.736  0.0726  0.1735 -0.0675
37473W        W80411  27.749  29.960   1.732 -0.0075  0.2448 -0.0175
37474W        W80412  26.868  26.665  31.353 -0.3627 -0.1173 -0.2051
37475W        W80413  26.226  26.804   1.447 -0.1670 -0.1550  0.1463
37476W        W80414  26.378  28.481   1.954  0.1320 -0.0744  0.1108
37477W        W80415  26.789  24.921   0.288  0.0066 -0.0120 -0.1101
37478W        W80416  25.669  25.282   1.090 -0.2926 -0.3151 -0.0083
37479W        W80417  29.342  26.983   0.398  0.3177  0.1848 -0.1828
37480W        W80418  24.709  27.313  31.903  0.0665  0.2574 -0.4652
37481W        W80419  26.323  27.090   1.817 -0.0076  0.0074 -0.2252
37482W        W80420  25.955  27.756   0.480  0.4172  0.0746  0.1900
37483W        W80421  26.562  30.515   0.654 -0.1408  0.1346 -0.0460
37484W        W80422  25.656  27.035   2.915 -0.0402 -0.1361  0.1366
37485W        W80423  27.948  25.260   3.028  0.1414 -0.0567 -0.1710
37486W        W80424  26.029  28.930  31.909 -0.3011  0.2472 -0.2105
37487W        W80425  24.115  28.060   0.874  0.1366 -0.0385 -0.1678
37488W        W80426  24.396  27.658   1.577  0.0473 -0.0313  0.0738
37489W        W80427  25.508  27.769   2.567  0.0057 -0.0672 -0.1496
37490W        W80428  28.589  27.272   1.752  0.4058  0.1761  0.0824
37491W        W80429  27.921  27.879   0.939  0.0404  0.1379 -0.3055
37492W        W80430  26.189  28.331   2.389  0.2221 -0.1775 -0.0917
37493W        W80431  25.684  29.158   0.760 -0.1410 -0.0498 -0.2660
37494W        W80432  29.014  26.956   2.415 -0.0047 -0.1772 -0.0220
37495W        W80433  26.265  27.973   0.813  0.0276  0.2637 -0.1136
37496W        W80434  26.202  29.530   0.941  0.1513  0.2748 -0.1487
37497W        W80435  25.649  27.223   0.125 -0.3258  0.1883  0.2238
37498W        W80436  29.642  29.977  31.537 -0.1973  0.0614  0.2249
37499W        W80437  28.643  29.181   2.272 -0.3781 -0.2842  0.1579
37500W        W80438  25.934  30.161   5.718 -0.1339  0.0694  0.0071
37501W        W80439  26.722  28.448  30.414 -0.0075 -0.2934  0.1107
37502W        W80440  26.523  27.970   3.583  0.1720  0.1152 -0.1229
37503W        W80441  24.933  28.448   4.052 -0.0589  0.1087 -0.3762
37504W        W80442  27.954  26.700   1.858  0.4765 -0.2972 -0.2420
37505W        W80443  26.587  27.361   2.187  0.1105  0.0812  0.0123
37506W        W80444  26.561  28.187  31.901  0.0215  0.3871 -0.0945
37507W        W80445  26.727  28.577   1.139 -0.3013 -0.1465  0.1001
37508W        W80446  25.795  29.260   4.401 -0.2144 -0.0228 -0.1276
37509W        W80447  25.454  28.052   0.473  0.2691 -0.2801 -0.1261
37510W        W80448  29.380  25.822   1.949  0.3089 -0.0118 -0.0663
37511W        W80449  26.098  30.579  30.955  0.0492 -0.0367 -0.0371
37512W        W80450  28.272  27.598  30.822 -0.3596 -0.1613 -0.0506
37513W        W80451  27.051  26.125  31.184 -0.0106  0.1707 -0.0747
37514W        W80452  28.117  27.486   1.132 -0.0451 -0.0837 -0.1774
37515W        W80453  26.685  26.516   1.528  0.1626  0.0792 -0.1491
37516W        W80454  26.827  28.340   2.108  0.0968  0.2277 -0.1868
37517W        W80455  25.499  25.628   1.465 -0.2074  0.0552 -0.2356
37518W        W80456  28.847  27.425   2.146  0.0481 -0.0785  0.0274
37519W        W80457  26.376  27.783   1.265  0.0434 -0.0884 -0.2527
37520W        W80458  27.693  26.576   2.283 -0.3818 -0.0126  0.1816
37521W        W80459  25.931  29.453   2.459 -0.0667 -0.1454 -0.3369
37522W        W80460  24.381  25.139   1.941  0.0690  0.2362  0.2076
37523W        W80461  28.308  29.914   0.155  0.0576 -0.0074  0.0112
37524W        W80462  28.483  29.974   1.169  0.1004 -0.0215  0.3329
37525W        W80463  28.609  28.199   1.447  0.0552 -0.0304 -0.0830
37526W        W80464  26.262  27.310   1.399  0.2175 -0.1452 -0.1833
37527W        W80465  27.101  28.138   3.051 -0.1307 -0.0096  0.2780
37528W        W80466  25.888  25.291   4.096 -0.0443  0.3495 -0.0366
37529W        W80467  25.241  25.066   0.832 -0.2095  0.0097 -0.0910
37530W        W80468  28.641  29.062   2.809  0.0053 -0.0538  0.0985
37531W        W80469  25.707  27.881   3.243 -0.0795  0.0607  0.2667
37532W        W80470  27.620  26.854   1.491 -0.1093  0.0502 -0.1274
37533W        W80471  26.997  29.139   2.409 -0.0913  0.1738 -0.0573
37534W        W80472  27.405  27.337   2.748  0.0606  0.1132 -0.3372
37535W        W80473  27.299  27.714   0.968  0.1370 -0.1215 -0.1846
37536W        W80474  28.011  26.622   1.300  0.1849 -0.2417 -0.2186
37537W        W80475  27.861  25.510   1.921  0.0850 -0.1211 -0.0180
37538W        W80476  27.319  27.582   0.251  0.2389 -0.0935 -0.0912
37539W        W80477  26.669  28.553  31.585 -0.1224 -0.0440 -0.0940
37540W        W80478  28.227  28.418   3.211 -0.0077  0.1630 -0.0347
37541W        W80479  27.751  27.389   0.248 -0.0346  0.0534 -0.2077
37542W        W80480  25.399  29.419   2.465  0.1557  0.3152  0.1087
37543W        W80481  27.892  27.034   2.522 -0.2471 -0.0264  0.2503
37544W        W80482  27.256  27.821   4.128 -0.1120  0.3003  0.0557
37545W        W80483  26.288  30.908   0.942  0.1334  0.1076 -0.0016
37546W        W80484  25.927  27.119   1.063  0.2312  0.3422 -0.1233
37547W        W80485  25.183  27.480  31.976 -0.2127 -0.3549 -0.0656
37548W        W80486  25.554  23.908   2.633 -0.0975  0.0142  0.0444
37549W        W80487  26.093  28.080   1.930 -0.0062  0.0749  0.0126
37550W        W80488  27.858  26.218   0.921 -0.0868 -0.0866  0.0019
37551W        W80489  25.376  24.341   2.858 -0.2563 -0.0106 -0.2502
37552W        W80490  29.887  26.817   0.683  0.2742  0.2126 -0.0383
37553W        W80491  24.521  28.895   0.018  0.0067 -0.1460  0.0089
37554W        W80492  28.519  29.448   0.227 -0.1628  0.0110  0.0912
37555W        W80493  29.094  29.349  31.607  0.2412  0.0462 -0.1397
37556W        W80494  27.599  28.306   0.023 -0.0403  0.2532 -0.0874
37557W        W80495  26.935  26.757   2.929 -0.2149  0.2890 -0.0251
37558W        W80496  25.136  26.844   2.195 -0.0185 -0.3247  0.0353
37559W        W80497  25.773  25.297   2.612  0.1433  0.1674  0.0906
37560W        W80498  25.765  26.144   1.567  0.1489 -0.0706 -0.0425
37561W        W80499  27.570  27.037   3.656 -0.2642  0.0895 -0.1823
37562W        W80500  26.688  25.518   0.100 -0.3934  0.2496  0.1875
37563W        W80501  26.726  26.008   1.781  0.0078 -0.1251 -0.2358
37564W        W80502  25.728  27.139   1.485 -0.1359  0.0009 -0.0483
37565W        W80503  24.968  27.827   1.707 -0.1270 -0.1758  0.0093
37566W        W80504  27.348  25.699   3.255  0.0200 -0.1384 -0.3692
37567W        W80505  28.364  28.863  31.316  0.0421  0.2959  0.1170
37568W        W80506  28.776  28.280   3.249  0.0766 -0.0796 -0.2030
37569W        W80507  26.765  28.066   0.972  0.1508 -0.0417 -0.0209
37570W        W80508  24.605  24.556   2.473 -0.1150  0.1229 -0.2546
37571W        W80509  24.535  27.150   1.675  0.1681  0.1772  0.1962
37572W        W80510  24.890  28.673  31.562 -0.0374 -0.1098  0.2185
37573W        W80511  26.731  28.998   0.700 -0.0955  0.0170 -0.0236
37574W        W80512  25.115  25.891   1.733 -0.1521  0.2931 -0.1109
37575W        W80513  28.132  28.960   2.873 -0.3316 -0.1343 -0.2669
37576W        W80514  26.398  28.291   1.255  0.1027  0.1242  0.1204
37577W        W80515  24.360  27.102   2.252  0.0643 -0.2018  0.0798
37578W        W80516  29.201  25.159   2.971  0.0277 -0.0273 -0.1269
37579W        W80517  28.419  28.754   2.404  0.1651  0.2986  0.1883
37580W        W80518  26.025  27.809   2.451 -0.1919 -0.1551  0.2003
37581W        W80519  25.872  24.934   0.181 -0.0300  0.1135 -0.0714
37582W        W80520  28.975  29.183   0.334 -0.0560  0.3176  0.3700
37583W        W80521  25.623  28.451   0.101  0.2402  0.1816 -0.0957
37584W        W80522  24.694  27.954   1.288 -0.0030  0.0125  0.2084
37585W        W80523  26.571  30.472  31.836 -0.2636 -0.3365 -0.1433
37586W        W80524  28.142  28.515   0.209 -0.3380 -0.1607  0.2357
37587W        W80525  26.212  27.015   4.731  0.1668  0.2178  0.2705
37588W        W80526  28.496  25.490   2.772  0.1662  0.1659 -0.0494
37589W        W80527  25.468  27.424   1.059  0.1271 -0.0981 -0.3984
37590W        W80528  26.845  29.648   2.158  0.1245 -0.0250  0.1183
37591W        W80529  26.405  26.419   1.057  0.0865  0.1242  0.0129
37592W        W80530  28.732  25.889   1.099 -0.3083 -0.1704 -0.1123
37593W        W80531  27.118  28.003   3.611 -0.2072 -0.1191  0.0302
37594W        W80532  27.698  29.567   0.726  0.1601 -0.2328 -0.1086
37595W        W80533  28.356  28.140   0.609  0.0996  0.0246 -0.1189
37596W        W80534  27.149  24.780  31.888  0.1755  0.1202  0.4462
37597W        W80535  25.630  29.570   3.128 -0.0733  0.0309 -0.3182
37598W        W80536  28.042  29.219   1.471  0.1875  0.2504 -0.1424
37599W        W80537  26.257  27.792   3.159 -0.1440  0.0138  0.2513
37600W        W80538  27.059  27.161   0.215 -0.4428  0.0141  0.0255
37601W        W80539  29.699  29.072  31.885 -0.2023  0.0033 -0.0368
37602W        W80540  25.508  26.901   3.377 -0.3922 -0.1813 -0.0416
37603W        W80541  26.984  27.717   1.909  0.2398 -0.1335 -0.3719
37604W        W80542  27.579  28.920   0.076  0.0583 -0.0963  0.1967
37605W        W80543  25.887  25.502   1.861 -0.0069 -0.0519  0.2253
37606W        W80544  27.726  28.691  31.596 -0.1401 -0.0163  0.3540
37607W        W80545  26.597  27.285   0.506  0.0720  0.0244  0.2070
37608W        W80546  25.260  27.122   0.447  0.2942 -0.0054  0.2005
37609W        W80547  28.129  27.136   1.494  0.1508 -0.1548 -0.3185
37610W        W80548  26.382  26.993   0.954 -0.0295 -0.0051  0.0964
37611W        W80549  26.181  25.267   2.262  0.4225  0.1168 -0.5254
37612W        W80550  27.836  26.797   4.036  0.0976 -0.3439  0.0449
37613W        W80551  27.665  27.444   0.742  0.0768 -0.0632  0.3006
37614W        W80552  26.734  27.443   1.603  0.1786  0.0704  0.1602
37615W        W80553  25.405  29.744  29.882  0.0732  0.3507  0.2262
37616W        W80554  27.776  26.281   2.719  0.1583 -0.3060  0.0874
37617W        W80555  25.642  26.673   3.846 -0.1100  0.1962  0.0659
37618W        W80556  25.196  28.091   3.418 -0.0279 -0.0064 -0.1276
37619W        W80557  29.172  29.003   2.665 -0.0411 -0.3881 -0.0277
37620W        W80558  27.518  28.490   1.412  0.3410  0.0708  0.0560
37621W        W80559  27.394  26.985   2.409 -0.0506  0.2717 -0.0633
37622W        W80560  26.250  26.950   0.458  0.0296  0.0039  0.2602
37623W        W80561  25.674  28.027   1.668  0.3359  0.0409 -0.3894
37624W        W80562  24.525  28.239   0.558 -0.3024 -0.1256  0.2253
37625W        W80563  26.443  25.705   3.121  0.1099 -0.0686  0.2862
37626W        W80564  25.411  28.810   1.203  0.0223  0.2201 -0.0611
37627W        W80565  26.975  28.926  31.242 -0.1301  0.0667 -0.4929
37628W        W80566  27.765  28.060   1.809 -0.2264  0.0129 -0.0821
37629W        W80567  25.428  28.379   0.991  0.1417  0.3016 -0.0373
37630W        W80568  28.052  26.231   1.606  0.1638 -0.1929  0.2200
37631W        W80569  25.698  28.165   2.300  0.0168 -0.2266  0.2614
37632W        W80570  25.498  27.565   0.522  0.1413 -0.2083 -0.1963
37633W        W80571  25.936  26.691   2.132 -0.2498 -0.1610 -0.1125
37634W        W80572  28.725  25.438   0.864 -0.1994  0.1021 -0.4271
37635W        W80573  26.407  27.543  31.070 -0.1733  0.0985 -0.2068
37636W        W80574  26.939  26.408   2.181  0.0260 -0.2986 -0.0076
37637W        W80575  27.220  26.123   1.774  0.2269  0.0535 -0.0130
37638W        W80576  25.095  29.061   2.544 -0.0431  0.0204 -0.2055
37639W        W80577  28.265  26.660   2.449  0.2287 -0.2415  0.1985
37640W        W80578  26.911  25.226  31.711 -0.1401 -0.2113  0.2436
37641W        W80579  27.954  28.089   2.287  0.2415 -0.0137  0.0669
37642W        W80580  26.393  26.142   3.911  0.1761  0.0611  0.1186
37643W        W80581  24.106  25.616   0.509  0.0079 -0.0883  0.0777
37644W        W80582  29.205  26.716   2.885  0.0575 -0.0433  0.3954
37645W        W80583  26.647  26.760   1.998  0.1732 -0.2727  0.1346
37646W        W80584  24.657  29.216   0.443 -0.1119 -0.0279  0.3512
37647W        W80585  27.238  28.619   3.196  0.0791  0.0890 -0.2006
37648W        W80586  24.879  26.424   0.291  0.0150  0.0199 -0.2019
37649W        W80587  25.469  27.539   1.701  0.0846 -0.1166  0.0024
37650W        W80588  26.905  25.644   2.866  0.2320  0.4866 -0.1093
37651W        W80589  27.646  27.133   1.969 -0.1365  0.3280  0.0170
37652W        W80590  25.909  26.178   2.050  0.3178 -0.3217 -0.1384
37653W        W80591  25.271  26.113   1.334 -0.1365 -0.1151 -0.0044
37654W        W80592  25.720  27.715   2.075  0.0604 -0.0440  0.0720
37655W        W80593  27.086  27.435   2.318  0.0142 -0.0761 -0.0640
37656W        W80594  27.653  26.524   3.689  0.1202  0.0857 -0.2769
37657W        W80595  26.194  27.858   3.989  0.0448 -0.1529  0.0794
37658W        W80596  26.532  24.797   1.539  0.0258  0.0377  0.0808
37659W        W80597  28.638  30.354   1.452 -0.0977  0.0418  0.2084
37660W        W80598  28.082  26.234   2.278 -0.1519 -0.2235  0.0565
37661W        W80599  26.723  27.772   0.568 -0.2366 -0.0011 -0.0587
37662W        W80600  24.970  26.384   2.007  0.3532 -0.0128 -0.3835
37663W        W80601  26.539  27.650   0.119  0.0896 -0.0196  0.0516
37664W        W80602  26.932  26.865   4.253  0.1974 -0.3607 -0.0994
37665W        W80603  26.082  27.192   3.121  0.0577  0.1414  0.0618
37666W        W80604  25.526  27.518  31.631  0.2870  0.2228 -0.1217
37667W        W80605  25.805  28.609   2.638  0.0499 -0.0548 -0.1197
37668W        W80606  27.946  27.162  31.585  0.4140  0.1501  0.3041
37669W        W80607  26.789  28.514  31.094  0.0588  0.2947 -0.1757
37670W        W80608  24.778  26.209   1.505  0.1206 -0.0295 -0.1152
37671W        W80609  28.792  25.853   2.515  0.1536  0.0911 -0.1722
37672W        W80610  27.214  27.144   1.438 -0.0354 -0.0144 -0.1029
37673W        W80611  28.042  26.079   4.927 -0.1098  0.1769  0.0030
37674W        W80612  25.009  25.393   3.005  0.2288 -0.2219  0.0562
37675W        W80613  29.080  28.336   1.952  0.0342  0.3475 -0.1683
37676W        W80614  25.381  25.527   2.420  0.2821 -0.2245  0.1416
37677W        W80615  26.842  27.314   2.947 -0.0630 -0.0022 -0.0066
37678W        W80616  26.608  26.388   3.062  0.3607 -0.0512 -0.1675
37679W        W80617  26.603  27.542  31.589 -0.0111 -0.1659  0.1059
37680W        W80618  26.854  26.868   0.634  0.2190 -0.2509  0.3650
37681W        W80619  26.583  28.028   1.701  0.1357 -0.1346 -0.1027
37682W        W80620  26.515  27.859   2.170 -0.1757  0.0960  0.0373
37683W        W80621  27.573  28.623   0.439  0.0609 -0.0924 -0.2206
37684W        W80622  27.592  27.933   1.319 -0.0793 -0.1129 -0.3942
37685W        W80623  26.020  28.116   2.864  0.1042  0.1291  0.2105
37686W        W80624  28.581  28.545   1.844 -0.0023  0.0325  0.0411
37687W        W80625  27.093  27.357   0.674 -0.0438 -0.3586  0.1289
37688W        W80626  25.987  26.676   0.790  0.1726  0.0253  0.0265
37689W        W80627  25.491  25.293   3.324 -0.2391  0.4028  0.2403
37690W        W80628  26.295  27.597   1.796  0.1017 -0.2941 -0.0141
37691W        W80629  27.116  28.113   0.557 -0.1381 -0.1523  0.1732
37692W        W80630  27.689  26.182   1.928  0.1764 -0.0479  0.0409
37693W        W80631  29.176  27.500   1.739 -0.3019  0.0465  0.1062
37694W        W80632  27.383  26.585   2.719 -0.2816  0.0437  0.2255
37695W        W80633  24.924  24.226   3.291  0.2826 -0.1879 -0.1209
37696W        W80634  26.965  30.358   1.657  0.1190  0.2237 -0.0818
37697W        W80635  26.264  28.541  31.206  0.0776  0.2692  0.2502
37698W        W80636  28.467  26.463   0.384  0.1765 -0.0647 -0.0592
37699W        W80637  27.130  28.235   1.279 -0.1309  0.1041  0.1174
37700W        W80638  26.151  26.540  31.055  0.0057  0.2457 -0.0689
37701W        W80639  25.951  25.775   2.338  0.1935 -0.0737 -0.2163
37702W        W80640  27.624  27.143   3.111 -0.0214 -0.1799  0.0797
37703W        W80641  26.246  26.058   0.667  0.0044 -0.0335  0.2744
37704W        W80642  28.478  26.266   1.916 -0.2628  0.2399  0.1137
37705W        W80643  27.334  28.578  31.258 -0.0593 -0.1698 -0.0272
37706W        W80644  27.934  28.782   1.247 -0.1421 -0.0410 -0.0422
37707W        W80645  27.290  26.987   0.968 -0.1924 -0.1937 -0.2184
37708W        W80646  25.338  24.990   2.304  0.0170 -0.0318  0.2925
37709W        W80647  26.006  29.848   2.759 -0.3402  0.1011 -0.0796
37710W        W80648  25.429  26.342   0.864  0.1611  0.1148  0.1405
37711W        W80649  26.408  25.174   0.521  0.0806 -0.2823 -0.0432
37712W        W80650  26.811  28.463   3.475  0.2436 -0.3494  0.4165
37713W        W80651  27.227  26.246   3.666 -0.1639 -0.0889 -0.1889
37714W        W80652  27.573  25.510   0.291 -0.1464 -0.0758 -0.1816
37715W        W80653  29.726  25.243   2.979  0.1273 -0.1926 -0.0199
37716W        W80654  26.564  29.860  30.402 -0.0884  0.0758 -0.0653
37717W        W80655  25.796  27.153   0.575 -0.0926  0.3097  0.1057
37718W        W80656  25.962  29.737   1.323 -0.0307 -0.1784 -0.0113
37719W        W80657  24.874  27.695   2.482  0.1191  0.0769 -0.2668
37720W        W80658  26.526  28.896   2.151 -0.1594  0.3672 -0.3120
37721W        W80659  25.884  27.285   1.915 -0.0360 -0.1741 -0.0351
37722W        W80660  26.535  26.499   2.491  0.2134 -0.2210  0.1907
37723W        W80661  27.388  26.205   2.322  0.1457 -0.0517  0.1599
37724W        W80662  27.357  26.718   1.982  0.0564 -0.3867  0.0405
37725W        W80663  26.403  26.082   2.175 -0.2683  0.0531 -0.0379
37726W        W80664  24.674  27.818  31.949 -0.3901 -0.1069  0.0097
37727W        W80665  27.555  30.216   2.259 -0.1444  0.3717  0.2104
37728W        W80666  29.024  27.908   1.498 -0.0829 -0.0096 -0.2754
37729W        W80667  25.758  27.862   0.951 -0.1748 -0.0412 -0.1038
37730W        W80668  26.271  26.430   1.792 -0.2256  0.0416 -0.0818
37731W        W80669  26.607  26.958   3.318  0.1516 -0.2481  0.4577
37732W        W80670  27.202  27.641   3.250 -0.0520  0.0850 -0.2237
37733W        W80671  25.959  26.268   1.151  0.1291 -0.1314 -0.1062
37734W        W80672  25.624  29.150  31.305  0.1329  0.0650  0.4403
37735W        W80673  25.323  29.073   4.408 -0.0285  0.1422 -0.1180
37736W        W80674  26.370  26.699   4.000 -0.2216 -0.2024 -0.0949
37737W        W80675  25.107  29.158   0.249  0.0657  0.0294  0.1582
37738W        W80676  27.058  28.566   0.775 -0.0528  0.0505 -0.3786
37739W        W80677  27.948  28.380   0.714 -0.3086 -0.1362  0.5103
37740W        W80678  27.912  29.639   3.187 -0.3560  0.0669 -0.1503
37741W        W80679  26.115  27.375   0.270 -0.0983  0.0157  0.0041
37742W        W80680  25.833  28.241   1.238  0.0977  0.3835 -0.3196
37743W        W80681  27.079  28.419  29.920 -0.1228  0.1160  0.0817
37744W        W80682  27.595  29.583  30.407 -0.1244  0.1098 -0.2720
37745W        W80683  25.971  28.705   0.389 -0.2904 -0.0908  0.4310
37746W        W80684  28.874  27.994   3.822  0.0145 -0.1045 -0.1077
37747W        W80685  28.828  27.148  30.871  0.0610 -0.2713 -0.0426
37748W        W80686  27.615  27.414   1.294  0.0977  0.4446  0.0007
37749W        W80687  28.860  28.927   0.807 -0.1838 -0.1619 -0.1789
37750W        W80688  27.498  27.774   2.242  0.2802 -0.0545  0.1992
37751W        W80689  27.185  28.164   1.799 -0.0126 -0.3046 -0.0736
37752W        W80690  28.249  24.999  31.803  0.1979  0.2804 -0.1091
37753W        W80691  25.778  26.657   1.642 -0.0471  0.1713  0.1732
37754W        W80692  27.846  25.379   3.533 -0.3555  0.2199 -0.2577
37755W        W80693  25.803  27.586   4.029  0.0217 -0.1673 -0.2808
37756W        W80694  27.966  30.034   0.887  0.0227  0.0655  0.0245
37757W        W80695  26.134  27.492   0.861  0.0676  0.0746 -0.2498
37758W        W80696  27.180  28.860   1.416 -0.0731 -0.2527  0.2567
37759W        W80697  27.990  25.888   1.293 -0.4041 -0.0881 -0.0858
37760W        W80698  25.996  28.416  30.790  0.1396  0.0465  0.4708
37761W        W80699  26.718  26.995   1.338 -0.1743  0.1004 -0.0977
37762W        W80700  25.929  29.149   1.207 -0.3209 -0.1802 -0.0811
37763W        W80701  26.866  29.245   1.876  0.2006 -0.1572  0.3252
37764W        W80702  25.382  30.153   3.534  0.2416 -0.1585  0.2157
37765W        W80703  23.849  25.458   1.297 -0.1879  0.0979  0.1595
37766W        W80704  29.342  27.972   0.834 -0.2569  0.2183 -0.2799
37767W        W80705  26.490  26.946   2.729  0.2870  0.0373 -0.3529
37768W        W80706  27.172  24.802   1.320  0.3018 -0.2242  0.4366
37769W        W80707  24.430  27.573   1.108 -0.2210  0.2090 -0.1287
37770W        W80708  27.532  26.965   0.481 -0.2083  0.2540 -0.0977
37771W        W80709  25.786  27.546   2.936 -0.1793 -0.1709  0.0294
37772W        W80710  24.939  27.817   0.385 -0.1070  0.3068  0.0241
37773W        W80711  26.540  27.160   0.023 -0.3679 -0.1130 -0.2668
37774W        W80712  27.415  26.694   3.238 -0.0004 -0.0594  0.0519
37775W        W80713  28.281  27.229   0.255 -0.2373  0.3159 -0.2667
37776W        W80714  27.903  28.541   2.606  0.0837 -0.0037 -0.1029
37777W        W80715  25.568  25.868   1.946  0.1631  0.0513  0.0723
37778W        W80716  27.166  26.653   1.452 -0.0314 -0.1835 -0.1069
37779W        W80717  25.317  27.976   1.329 -0.0750  0.0566 -0.2690
37780W        W80718  27.587  26.299   1.436 -0.1699  0.1119 -0.0778
37781W        W80719  28.563  28.887   3.275  0.0691  0.0206  0.1748
37782W        W80720  25.846  26.743   0.222  0.1811  0.0591  0.1551
37783W        W80721  27.536  30.297  31.552 -0.2911  0.0144  0.0497
37784W        W80722  28.964  27.109   0.835 -0.1431  0.2675 -0.0269
37785W        W80723  25.621  27.762   0.099 -0.0035  0.2360  0.2863
37786W        W80724  27.243  29.412   0.089  0.1873 -0.1559 -0.0561
37787W        W80725  26.324  29.566   0.402  0.0917  0.1847  0.2188
37788W        W80726  25.785  26.453   3.276 -0.0459 -0.4645  0.0738
37789W        W80727  27.180  29.079   0.856  0.1292 -0.1552  0.1253
37790W        W80728  28.621  28.238   2.276 -0.1537  0.2102  0.1338
37791W        W80729  27.282  25.261   1.154 -0.3194  0.3355  0.2927
37792W        W80730  24.873  25.577   2.377  0.0832 -0.0008 -0.1420
37793W        W80731  25.616  28.595   1.594  0.1429  0.3914  0.0869
37794W        W80732  28.077  28.419   1.575 -0.1080  0.2247  0.2380
37795W        W80733  26.786  25.368   2.361  0.2265  0.0820  0.0355
37796W        W80734  26.781  29.940   0.206  0.2604  0.0409 -0.0136
37797W        W80735  27.773  25.742   2.940 -0.0319  0.2873 -0.3005
37798W        W80736  27.435  27.659   1.799  0.0932 -0.0163  0.0087
37799W        W80737  26.786  28.506   2.967 -0.1312  0.0842  0.1602
37800W        W80738  26.504  28.310   0.403 -0.0930 -0.0545 -0.1390
37801W        W80739  25.895  28.683   2.072  0.1361 -0.2610 -0.0615
37802W        W80740  25.248  28.011  31.902  0.2928  0.2014  0.0054
37803W        W80741  26.141  29.161  31.449 -0.1333 -0.4360 -0.1257
37804W        W80742  26.069  28.714   1.414  0.1563 -0.0651  0.0541
37805W        W80743  27.126  27.730   1.448  0.2604 -0.2786  0.0448
37806W        W80744  28.292  28.359   1.104  0.0332 -0.2777  0.1346
37807W        W80745  24.980  22.951   1.256 -0.0455  0.2514 -0.0470
37808W        W80746  29.565  25.672   1.241  0.3993  0.0567 -0.0771
37809W        W80747  27.491  27.859  31.800  0.1691 -0.1315  0.0417
37810W        W80748  26.727  27.781   3.165  0.2124  0.2104  0.0689
37811W        W80749  25.455  26.938   0.991 -0.1718 -0.0132  0.1606
37812W        W80750  25.549  26.995  31.552 -0.6527  0.1382  0.1995
37813W        W80751  24.682  28.016   3.217  0.1516 -0.0249 -0.0930
37814W        W80752  26.185  25.096   1.756  0.1093 -0.1429  0.1771
37815W        W80753  25.844  25.441   3.627 -0.1831  0.1387 -0.0763
37816W        W80754  26.785  27.513   1.078  0.0108 -0.1451 -0.2916
37817W        W80755  23.783  25.346   0.783  0.1807  0.1003 -0.1472
37818W        W80756  26.881  29.630  31.795  0.3941 -0.0136  0.0841
37819W        W80757  25.498  23.569   1.840 -0.1374 -0.0513  0.0586
37820W        W80758  24.348  25.936   1.526 -0.1799 -0.2968 -0.0865
37821W        W80759  26.711  29.493   0.810 -0.3195 -0.0773  0.1084
37822W        W80760  29.123  28.434  31.958  0.0186  0.0209  0.1036
37823W        W80761  26.140  24.839  31.553 -0.0239  0.0324 -0.0746
37824W        W80762  27.704  28.647   3.416  0.0414 -0.0681 -0.0765
37825W        W80763  26.071  28.039   0.103 -0.2010  0.1018  0.0727
37826W        W80764  28.333  26.345   2.890 -0.0310 -0.1433 -0.0371
37827W        W80765  27.477  25.680   4.316  0.2127 -0.0730  0.1701
37828W        W80766  25.339  26.130   0.235 -0.1106  0.0100  0.2053
37829W        W80767  26.962  27.139   1.932 -0.1079 -0.0531 -0.0146
37830W        W80768  26.564  28.946   1.603  0.2358 -0.2171 -0.4205
37831W        W80769  27.668  29.344  31.761 -0.1009  0.2205  0.1109
37832W        W80770  26.271  28.541   2.889 -0.0809  0.0102 -0.1590
37833W        W80771  26.916  28.120   2.564 -0.0517 -0.2512  0.0751
37834W        W80772  25.400  24.294   3.443  0.1906  0.1058 -0.1679
37835W        W80773  28.544  28.785   0.396 -0.1774 -0.3189  0.3118
37836W        W80774  26.675  29.818   1.186  0.0632 -0.2553  0.1955
37837W        W80775  28.500  29.320  31.681 -0.0337 -0.0063  0.3308
37838W        W80776  28.140  27.274   0.713 -0.0935 -0.0413  0.1584
37839W        W80777  27.560  29.139   0.542 -0.1277 -0.1469  0.0709
37840W        W80778  23.717  25.491   4.044  0.4244 -0.0737 -0.1046
37841W        W80779  25.811  28.712   3.674 -0.0828  0.0551 -0.0044
37842W        W80780  28.966  27.397   2.602 -0.1803 -0.2744 -0.2433
37843W        W80781  25.086  25.335   1.470 -0.2902  0.0724 -0.0549
37844W        W80782  27.807  26.997   1.019  0.1342  0.3590 -0.0858
37845W        W80783  27.141  29.518   0.592 -0.1729 -0.0970  0.1661
37846W        W80784  23.338  27.128   2.666  0.1230  0.4729 -0.1218
37847W        W80785  27.516  28.171   0.873 -0.0993  0.0917  0.2138
37848W        W80786  28.668  26.730   2.810 -0.1713  0.1189  0.1376
37849W        W80787  27.834  29.486   1.886  0.1655 -0.0585  0.0573
37850W        W80788  28.285  27.589   1.970  0.2401 -0.2131 -0.1290
37851W        W80789  26.540  26.442   0.567  0.0101 -0.3387 -0.0140
37852W        W80790  28.838  28.395  31.472  0.0718 -0.0699  0.0758
37853W        W80791  27.474  29.504   3.064 -0.2868  0.0616 -0.2576
37854W        W80792  28.436  29.913   3.504 -0.1919 -0.0055 -0.0827
37855W        W80793  26.443  29.592   1.786 -0.2628  0.1651  0.3700
37856W        W80794  27.005  28.008   0.101 -0.3679  0.1175  0.0179
37857W        W80795  27.071  25.691   1.538 -0.0747 -0.3059  0.0432
37858W        W80796  25.924  27.602  31.350 -0.0692  0.0113 -0.0287
37859W        W80797  26.397  28.538   0.801  0.0622 -0.2814  0.2458
37860W        W80798  28.464  27.759   0.951 -0.3423  0.0589  0.1549
37861W        W80799  25.880  27.271   2.503  0.1086 -0.2097  0.2119
37862W        W80800  26.446  25.992   0.123 -0.2314  0.1235 -0.0455
37863W        W80801  26.159  29.546   3.742  0.0396  0.4350 -0.0551
37864W        W80802  25.309  28.571   2.428 -0.3641  0.2471 -0.0530
37865W        W80803  26.590  28.081   6.880  0.1515  0.2902 -0.4067
37866W        W80804  27.620  26.230   4.570 -0.1016 -0.3705  0.0594
37867W        W80805  29.091  24.773   3.719 -0.1910 -0.0762  0.0508
37868W        W80806  28.517  25.996   4.415 -0.0538 -0.4010 -0.2050
37869W        W80807  26.522  27.057   5.133 -0.0593 -0.0692  0.3225
37870W        W80808  27.644  29.706   4.705 -0.2303 -0.0622 -0.0584
37871W        W80809  25.972  25.217   6.330  0.1621 -0.1553  0.1503
37872W        W80810  27.820  28.523   6.185  0.1806 -0.5277  0.0748
37873W        W80811  28.347  29.253   5.816 -0.1931  0.2306 -0.1005
37874W        W80812  27.651  28.847   2.971  0.2251 -0.0441 -0.3914
37875W        W80813  26.456  26.040   6.600  0.1967 -0.1034 -0.1109
37876W        W80814  26.589  28.149   4.782 -0.3795  0.1132  0.0653
37877W        W80815  26.220  25.795   4.293 -0.3109 -0.3886 -0.0176
37878W        W80816  24.778  25.079   4.935  0.0416 -0.2025 -0.0117
37879W        W80817  28.068  27.179   6.608 -0.0905  0.0842  0.1912
37880W        W80818  25.725  25.769   4.145  0.3372  0.0656 -0.0248
37881W        W80819  26.787  25.829   5.489  0.0157  0.0640  0.0054
37882W        W80820  27.306  26.335   5.160  0.1810  0.1543  0.2977
37883W        W80821  26.911  29.212   4.920  0.1368  0.0151  0.1319
37884W        W80822  27.261  24.684   5.944  0.3520  0.0756  0.0293
37885W        W80823  28.261  26.155   7.312  0.1323 -0.2781  0.2603
37886W        W80824  26.129  27.179   3.920  0.0595  0.1824  0.0658
37887W        W80825  25.518  25.464   5.358 -0.0399 -0.2857 -0.1393
37888W        W80826  25.218  26.407   4.640 -0.0063 -0.3678 -0.0833
37889W        W80827  25.744  26.261   5.055  0.2062 -0.0817  0.0443
37890W        W80828  28.997  24.387   5.526 -0.0327 -0.0754  0.1777
37891W        W80829  27.489  28.633   5.667  0.2723  0.2473 -0.0650
37892W        W80830  26.677  28.566   5.184 -0.1122  0.0756  0.1818
37893W        W80831  26.321  28.585   4.759  0.1057 -0.4053  0.2567
37894W        W80832  27.569  27.637   6.654 -0.1432  0.0248 -0.0998
37895W        W80833  25.162  26.692   4.176 -0.5454  0.0892 -0.0232
37896W        W80834  25.921  27.194   6.047 -0.1556  0.0475  0.3006
37897W        W80835  25.698  28.781   4.174  0.0684  0.2408 -0.4268
37898W        W80836  28.000  27.392   2.813 -0.0110 -0.0358 -0.0722
37899W        W80837  28.218  28.039   6.202  0.2189 -0.1445 -0.0307
37900W        W80838  26.335  28.477   6.638  0.0274 -0.0659  0.1744
37901W        W80839  26.522  27.188   4.296 -0.0233 -0.0771 -0.2114
37902W        W80840  26.811  28.275   6.476  0.1819  0.1111  0.2021
37903W        W80841  27.309  28.830   6.952 -0.0901 -0.0349 -0.1428
37904W        W80842  28.018  25.858   4.400  0.1651 -0.1350 -0.0506
37905W        W80843  26.623  27.355   5.643 -0.0445  0.2253 -0.3532
37906W        W80844  27.837  27.938   2.731  0.1965  0.2814  0.0770
37907W        W80845  25.637  26.593   4.362 -0.4319  0.2424 -0.1704
37908W        W80846  26.571  26.318   5.472 -0.2913 -0.3010  0.3016
37909W        W80847  24.964  26.506   5.560 -0.0105  0.0105  0.0564
37910W        W80848  27.481  27.205   6.894 -0.2756 -0.0798  0.1347
37911W        W80849  25.623  28.461   5.176  0.3718  0.2130  0.4665
37912W        W80850  28.116  26.372   3.665  0.0651  0.2660 -0.3336
37913W        W80851  26.920  25.904   2.246  0.1149 -0.2353 -0.0586
37914W        W80852  29.234  25.783   3.815  0.3929  0.0392 -0.3873
37915W        W80853  27.504  24.763   4.913  0.3071 -0.1154 -0.0386
37916W        W80854  26.101  27.850   4.757 -0.0651  0.2219  0.0630
37917W        W80855  27.850  25.758   5.722 -0.0190  0.0170  0.2077
37918W        W80856  27.180  28.454   6.085 -0.1359 -0.1946  0.0417
37919W        W80857  27.805  27.310   4.002 -0.1252  0.0245 -0.0910
37920W        W80858  28.750  25.636   6.168  0.1326 -0.0924 -0.0860
37921W        W80859  27.033  28.206   5.653 -0.0358  0.1214 -0.2328
37922W        W80860  25.706  26.878   4.775  0.0601  0.1666  0.2118
37923W        W80861  26.338  27.451   2.743  0.0838  0.0242  0.0319
37924W        W80862  28.660  28.839   5.090  0.0747 -0.1413 -0.1877
37925W        W80863  27.237  27.805   2.767 -0.0356 -0.0514 -0.1238
37926W        W80864  26.213  26.150   5.154 -0.3781  0.2416 -0.2098
37927W        W80865  24.970  27.217   5.944 -0.0993  0.1680  0.1447
37928W        W80866  25.792  26.744   6.778 -0.0120 -0.1179 -0.1761
37929W        W80867  25.987  24.978   3.375  0.4219  0.0806 -0.1688
37930W        W80868  28.976  27.135   6.725  0.3206  0.0144 -0.0890
37931W        W80869  24.376  28.908   8.053 -0.0734  0.1391 -0.1635
37932W        W80870  28.457  26.444   4.090  0.2180  0.0650 -0.0298
37933W        W80871  26.237  27.407   4.996 -0.1347 -0.1880  0.1981
37934W        W80872  27.638  28.799   7.445 -0.2246  0.2023 -0.3175
37935W        W80873  28.375  27.660   2.495 -0.0294 -0.1687  0.0660
37936W        W80874  27.261  25.995   5.585  0.3158  0.1374 -0.0608
37937W        W80875  27.701  26.137   4.049  0.0709 -0.0585 -0.1407
37938W        W80876  26.130  26.292   2.768 -0.2476 -0.2236 -0.1355
37939W        W80877  27.348  27.435   3.772  0.2574 -0.2514  0.1541
37940W        W80878  29.824  28.216   6.976 -0.1694  0.0451  0.0956
37941W        W80879  27.356  27.878   4.850 -0.1544 -0.1213 -0.1588
37942W        W80880  24.971  28.652   6.311 -0.1218 -0.1932  0.0035
37943W        W80881  26.515  25.460   5.664 -0.1455 -0.1244 -0.1471
37944W        W80882  25.927  29.181   5.492 -0.0334  0.2129 -0.2125
37945W        W80883  26.881  27.490   4.130  0.1967  0.1182 -0.1878
37946W        W80884  25.437  26.228   5.832  0.1289  0.0238 -0.2737
37947W        W80885  24.672  26.822   4.564 -0.0689 -0.1830  0.1478
37948W        W80886  25.102  26.689   5.030  0.1513 -0.1669 -0.2448
37949W        W80887  26.161  27.997   5.913  0.2284  0.3655  0.2536
37950W        W80888  28.652  26.129   6.202  0.0724  0.0635 -0.0005
37951W        W80889  26.048  24.636   6.021  0.0530  0.0222  0.0124
37952W        W80890  28.096  25.552   4.821 -0.3096 -0.0733  0.1325
37953W        W80891  26.918  27.380   5.091  0.0409 -0.0201  0.0951
37954W        W80892  28.018  29.119   5.334 -0.2189 -0.1555 -0.0970
37955W        W80893  27.778  27.089   4.517 -0.0838 -0.1614  0.0452
37956W        W80894  29.017  28.514   4.110  0.2647  0.0098  0.1245
37957W        W80895  26.292  27.518   5.978 -0.2030 -0.1422 -0.2225
37958W        W80896  25.505  26.057   6.615  0.1449  0.0575  0.2165
37959W        W80897  26.179  25.208   7.233 -0.5412 -0.1215  0.0057
37960W        W80898  25.040  25.621   5.166 -0.1054  0.0768  0.5594
37961W        W80899  28.365  26.723   7.343  0.1764 -0.1843 -0.2011
37962W        W80900  25.526  25.424   4.482  0.2501  0.0339  0.2159
37963W        W80901  28.582  27.160   4.638 -0.2300  0.2074 -0.0365
37964W        W80902  25.659  27.154   4.358  0.0294 -0.0084  0.0430
37965W        W80903  23.804  27.652   5.199  0.0683 -0.2531 -0.0011
37966W        W80904  28.141  25.797   8.230 -0.1627  0.1548  0.0586
37967W        W80905  27.851  29.524   3.963  0.1142 -0.0838 -0.2431
37968W        W80906  29.080  28.353   7.187 -0.0660 -0.0061 -0.2366
37969W        W80907  28.444  28.797   5.546 -0.1177  0.3438 -0.2385
37970W        W80908  25.274  25.824   5.578 -0.1931  0.1287  0.1329
37971W        W80909  26.848  25.509   3.369  0.0212 -0.0153  0.3715
37972W        W80910  26.206  29.230   4.153 -0.2058 -0.3216 -0.0723
37973W        W80911  27.061  28.959   5.350 -0.0536  0.0872  0.0040
37974W        W80912  26.595  25.642   4.619 -0.4299  0.2103  0.2678
37975W        W80913  27.341  29.343   5.136  0.0692  0.0386  0.0034
37976W        W80914  26.558  27.833   5.169 -0.0026  0.1339  0.0508
37977W        W80915  26.867  29.391   5.476  0.2382  0.2096 -0.1113
37978W        W80916  27.831  26.359   6.969 -0.1428 -0.1153 -0.0659
37979W        W80917  28.581  25.747   5.568  0.0524  0.1056 -0.3553
37980W        W80918  27.234  26.822   4.979  0.1030  0.3670 -0.2754
37981W        W80919  25.395  25.247   3.879 -0.1629 -0.3399 -0.1263
37982W        W80920  28.059  29.487   4.457 -0.2292 -0.1430 -0.7161
37983W        W80921  25.401  29.749   3.925  0.2081  0.2155  0.2725
37984W        W80922  25.238  26.184   5.139  0.0967 -0.2186  0.2462
37985W        W80923  25.809  28.278   4.676 -0.0721 -0.3699  0.2568
37986W        W80924  28.618  24.940   6.188 -0.5111  0.0241  0.1025
37987W        W80925  24.611  26.996   7.991 -0.2105  0.4039 -0.1851
37988W        W80926  27.929  27.947   5.785 -0.0861 -0.2895 -0.1302
37989W        W80927  27.474  26.215   3.243  0.0987 -0.3012  0.1054
37990W        W80928  24.094  26.850   6.440  0.3927 -0.1645 -0.1887
37991W        W80929  28.263  25.739   3.303 -0.0797 -0.1546 -0.3043
37992W        W80930  28.288  25.942   3.960  0.4238  0.1821 -0.0305
37993W        W80931  27.353  27.512   6.059 -0.0166 -0.0906  0.1895
37994W        W80932  27.824  27.446   3.488  0.2319 -0.1117  0.0005
37995W        W80933  28.644  25.958   3.015 -0.3982 -0.0408  0.0637
37996W        W80934  26.303  25.351   2.751 -0.0470  0.3930 -0.1224
37997W        W80935  25.225  28.420   7.323  0.3629  0.1756  0.0732
37998W        W80936  27.203  28.706   4.282 -0.1331  0.0362 -0.0236
37999W        W80937  28.228  26.734   4.793  0.1353  0.3173  0.1025
38000W        W80938  26.720  25.914   4.206 -0.1812 -0.1593  0.0214
38001W        W80939  29.061  28.868   4.648  0.0053 -0.0834 -0.4394
38002W        W80940  26.973  28.099   5.046  0.0019 -0.0322 -0.0785
38003W        W80941  27.619  27.225   6.354 -0.1271 -0.0544  0.0481
38004W        W80942  27.689  29.460   6.041 -0.0413  0.1269 -0.0321
38005W        W80943  25.505  25.353   6.245 -0.3911 -0.3081 -0.3606
38006W        W80944  28.421  26.691   3.316  0.2574  0.1206  0.1023
38007W        W80945  27.079  25.938   4.575 -0.0211  0.2724 -0.1102
38008W        W80946  25.052  30.802   3.090  0.1501  0.1582 -0.0154
38009W        W80947  27.919  25.534   5.301  0.0998  0.0728 -0.0135
38010W        W80948  27.221  25.106   5.717 -0.1300 -0.1253 -0.0805
38011W        W80949  28.276  25.658   5.945 -0.3647  0.0089 -0.0686
38012W        W80950  29.365  26.850   5.748 -0.3100  0.1497 -0.2815
38013W        W80951  27.966  26.796   3.336 -0.3975 -0.0689 -0.2811
38014W        W80952  27.066  28.608   4.758  0.1840  0.3350  0.1767
38015W        W80953  26.090  25.390   4.514  0.2954 -0.1371  0.1808
38016W        W80954  28.248  26.684   6.834  0.0421  0.3582  0.1493
38017W        W80955  25.932  26.197   6.393  0.0444 -0.1638 -0.0507
38018W        W80956  25.107  27.917   7.193  0.3189 -0.0251 -0.2112
38019W        W80957  27.265  27.170   5.410  0.0960  0.0589 -0.2113
38020W        W80958  27.339  28.730   3.699  0.1747  0.2067  0.0909
38021W        W80959  26.543  24.890   7.251  0.0418 -0.1332 -0.0269
38022W        W80960  27.383  25.212   4.078 -0.4916  0.0423  0.0106
38023W        W80961  26.905  26.575   3.433  0.1489  0.0279  0.2446
38024W        W80962  26.551  26.520   4.432 -0.1372  0.1025 -0.1173
38025W        W80963  25.602  24.546   5.728  0.1172 -0.0052 -0.3367
38026W        W80964  25.917  28.649   6.925 -0.1422 -0.0055  0.3328
38027W        W80965  26.224  28.385   3.875 -0.1960  0.2018  0.0848
38028W        W80966  27.996  27.949   7.038 -0.0970 -0.1053  0.1664
38029W        W80967  26.106  28.725   5.248 -0.3731  0.1296  0.2094
38030W        W80968  28.309  26.521   6.379 -0.2219 -0.0385 -0.3190
38031W        W80969  25.535  27.205   5.661  0.0077 -0.1600  0.1892
38032W        W80970  26.426  26.509   3.561  0.2211  0.0428  0.1542
38033W        W80971  25.209  26.928   4.615 -0.2731 -0.3916  0.1265
38034W        W80972  27.436  25.514   5.458 -0.0689 -0.0257  0.0022
38035W        W80973  28.099  27.200   4.848  0.0948  0.4633 -0.2157
38036W        W80974  25.668  25.059   5.829  0.0018  0.0938  0.1596
38037W        W80975  26.580  24.102   6.094  0.2352  0.2210  0.1768
38038W        W80976  24.101  28.226   6.187 -0.0481  0.0874 -0.2703
38039W        W80977  26.517  26.802   5.599 -0.2233 -0.0476  0.1290
38040W        W80978  28.199  25.909   2.665  0.0395  0.0446 -0.1369
38041W        W80979  27.290  29.583   5.604 -0.1912 -0.1590  0.1473
38042W        W80980  25.357  27.527   7.462  0.2819 -0.0875 -0.1494
38043W        W80981  24.851  27.233   4.898 -0.3959 -0.0195  0.2189
38044W        W80982  28.836  26.783   5.561  0.0617 -0.0071 -0.2056
38045W        W80983  26.404  25.247   4.855 -0.1555 -0.0548 -0.1738
38046W        W80984  24.184  28.186   3.295  0.0821 -0.1841 -0.2374
38047W        W80985  26.799  28.691   5.651  0.0779  0.1575 -0.0196
38048W        W80986  27.078  26.878   3.754 -0.0114  0.0388 -0.5317
38049W        W80987  26.705  28.364   4.357  0.2525 -0.1249 -0.2284
38050W        W80988  25.766  25.761   6.285  0.1702  0.1021 -0.0759
38051W        W80989  27.515  27.291   4.986 -0.5116  0.1421  0.0858
38052W        W80990  26.886  24.800   5.538  0.0634  0.1960 -0.3826
38053W        W80991  26.372  25.671   5.176  0.2029  0.0794  0.1791
38054W        W80992  26.688  26.012   5.975 -0.0103 -0.1730 -0.2946
38055W        W80993  28.922  26.877   5.057  0.1763  0.0018 -0.2084
38056W        W80994  25.884  26.428   5.506 -0.3172  0.2487  0.0837
38057W        W80995  27.028  27.894   6.234  0.0421  0.0344 -0.1471
38058W        W80996  26.292  25.950   5.639 -0.0747  0.4423 -0.1613
38059W        W80997  30.099  28.711   4.666  0.0142 -0.2959 -0.1603
38060W        W80998  27.811  27.699   4.929 -0.1821  0.1195  0.1792
38061W        W80999  24.760  27.929   4.932  0.0955 -0.0931  0.2140
38062W        W81000  26.500  26.542   5.030 -0.0814  0.2068 -0.0986
38063W        W81001  27.582  27.894   3.637  0.1872  0.2174  0.0038
38064W        W81002  28.253  25.224   5.585 -0.0604  0.1699 -0.0412
38065W        W81003  25.671  26.647   5.863 -0.4959 -0.0882  0.5903
38066W        W81004  26.624  27.117   3.796  0.3256  0.1258  0.0818
38067W        W81005  25.934  28.815   4.671 -0.1740 -0.1460  0.1997
38068W        W81006  28.968  25.953   5.865  0.3837  0.2690  0.2544
38069W        W81007  27.517  27.546   4.440  0.0501 -0.1309  0.2152
38070W        W81008  28.482  25.444   5.183 -0.1945  0.0732 -0.1701
38071W        W81009  28.539  26.288   6.738  0.4104 -0.0283  0.0164
38072W        W81010  28.778  26.108   3.862 -0.1497 -0.2492 -0.0503
38073W        W81011  27.758  25.251   5.748 -0.0819 -0.1344  0.1365
38074W        W81012  24.954  25.977   6.498  0.2164  0.0401 -0.2372
38075W        W81013  28.495  28.317   5.399  0.1432 -0.3672 -0.0770
38076W        W81014  25.409  26.955   6.204 -0.0768 -0.0537 -0.0216
38077W        W81015  26.868  29.576   8.072  0.1113  0.0033  0.0783
38078W        W81016  25.357  27.020   6.795 -0.2766  0.0404 -0.1279
38079W        W81017  27.183  25.771   5.133  0.3306  0.1019  0.0324
38080W        W81018  25.262  25.203   4.910 -0.1384  0.4072  0.2177
38081W        W81019  26.709  26.879   4.712 -0.0189 -0.0616  0.2056
38082W        W81020  27.901  29.374   6.537  0.0153  0.1626 -0.0538
38083W        W81021  27.129  29.128   2.908  0.0720  0.1561 -0.3214
38084W        W81022  28.746  27.360   5.076  0.0014 -0.0684  0.1361
38085W        W81023  26.235  27.147   6.509 -0.0395  0.0963  0.2513
38086W        W81024  26.962  28.434   3.919 -0.1007  0.0262 -0.3311
38087W        W81025  27.107  27.229   4.635 -0.1660 -0.0637 -0.0023
38088W        W81026  27.131  25.386   6.321 -0.0845 -0.0480  0.1820
38089W        W81027  27.597  28.489   4.608  0.0550  0.2432  0.0216
38090W        W81028  26.994  26.401   6.423  0.3245  0.0740  0.0085
38091W        W81029  26.451  25.434   6.217  0.2258 -0.1991 -0.2509
38092W        W81030  27.615  25.451   7.185 -0.0647  0.0725 -0.1981
38093W        W81031  25.860  25.818   5.335 -0.1309  0.0677 -0.1551
38094W        W81032  25.396  25.663   7.660  0.3067  0.1790  0.0995
38095W        W81033  27.770  28.523   7.066  0.0560 -0.0340 -0.1154
38096W        W81034  27.884  25.948   3.602  0.0734  0.0343 -0.0016
38097W        W81035  27.855  26.269   6.439 -0.0993  0.0859 -0.0022
38098W        W81036  29.128  26.879   3.932  0.0881 -0.0428  0.1763
38099W        W81037  28.740  25.018   2.853  0.2265  0.1826 -0.1565
38100W        W81038  25.618  27.573   5.315 -0.1738  0.2887 -0.1515
38101W        W81039  27.107  26.351   7.290  0.2443  0.3808 -0.1811
38102W        W81040  26.494  25.084   5.338 -0.0151  0.0533  0.1295
38103W        W81041  28.596  27.465   6.673  0.0773 -0.2722 -0.1033
38104W        W81042  26.622  29.581   4.580  0.0228  0.0590  0.0716
38105W        W81043  26.643  28.699   6.135 -0.1546 -0.0172  0.2830
38106W        W81044  27.039  26.902   5.901  0.2030  0.3193  0.2478
38107W        W81045  24.536  25.697   5.050  0.0609 -0.1539 -0.3021
38108W        W81046  25.741  28.221   6.034  0.0005  0.1548  0.3194
38109W        W81047  25.733  24.698   4.986 -0.1921 -0.0049 -0.2358
38110W        W81048  26.982  26.300   2.669 -0.0143  0.0353  0.1468
38111W        W81049  27.475  28.279   6.592  0.3052 -0.0756 -0.0093
38112W        W81050  28.590  27.311   7.541  0.1281 -0.1829 -0.0729
38113W        W81051  27.654  24.983   3.294 -0.0739 -0.0869 -0.0564
38114W        W81052  27.618  27.573   5.686 -0.0976  0.1654 -0.1186
38115W        W81053  25.248  27.457   4.618  0.1293 -0.0613 -0.1352
38116W        W81054  27.766  24.754   5.757 -0.0013  0.0335 -0.3909
38117W        W81055  25.839  28.937   5.968  0.3197  0.4065  0.1811
38118W        W81056  26.476  27.034   6.071 -0.0588  0.1117 -0.2628
38119W        W81057  26.509  29.485   5.064 -0.2417  0.1587 -0.1578
38120W        W81058  27.415  25.856   6.520  0.2252 -0.0862 -0.0772
38121W        W81059  27.913  26.438   5.259  0.2897  0.3283 -0.2036
38122W        W81060  25.971  27.939   5.420  0.1288 -0.2429 -0.4754
38123W        W81061  29.511  26.421   7.763 -0.0907  0.1918 -0.0321
38124W        W81062  28.397  26.991   5.192  0.0283 -0.1220  0.0890
38125W        W81063  26.906  26.822   5.343 -0.3353  0.2187  0.1208
38126W        W81064  27.472  28.003   7.171  0.2205 -0.1319 -0.2621
38127W        W81065  28.271  26.914   4.365 -0.1703  0.0250 -0.0841
38128W        W81066  25.353  27.179   5.062  0.0559  0.0692  0.0020
38129W        W81067  24.660  26.726   7.538  0.0445  0.0538 -0.0930
38130W        W81068  27.639  27.962   6.249  0.2511  0.1966 -0.1711
38131W        W81069  27.242  28.491   5.247 -0.2037  0.0617 -0.2378
38132W        W81070  27.174  24.977   5.181 -0.2500  0.1426  0.0898
38133W        W81071  28.299  28.166   2.668 -0.0331  0.0576  0.0181
38134W        W81072  26.597  28.189   6.059  0.0887 -0.0031  0.0234
38135W        W81073  25.417  27.447   6.176 -0.1237  0.1858  0.1658
38136W        W81074  25.823  27.991   3.747  0.1072 -0.2853  0.3054
38137W        W81075  27.779  29.031   4.470  0.0049  0.0251  0.1124
38138W        W81076  27.818  28.206   4.924  0.0583  0.1738 -0.2662
38139W        W81077  27.137  29.079   5.794 -0.0416 -0.1425 -0.0188
38140W        W81078  26.924  25.439   4.916  0.0487 -0.0611 -0.0455
38141W        W81079  27.478  28.079   5.829  0.2080  0.0795 -0.2576
38142W        W81080  25.815  27.512   3.540 -0.2819 -0.0400 -0.2487
38143W        W81081  28.527  28.322   3.674  0.1156 -0.0324 -0.2705
38144W        W81082  25.930  28.502   5.655 -0.0098  0.2529  0.1494
38145W        W81083  28.455  27.980   6.677  0.1424 -0.5340 -0.0124
38146W        W81084  27.005  26.401   4.701 -0.1079 -0.0595  0.1326
38147W        W81085  27.893  26.974   5.306  0.1467 -0.0989 -0.0499
38148W        W81086  30.316  25.999   3.993  0.1117  0.0614 -0.0338
38149W        W81087  27.035  29.280   6.926  0.4446  0.0529 -0.1084
38150W        W81088  26.058  26.503   4.694 -0.1525 -0.1642 -0.0762
38151W        W81089  28.242  25.529   2.265 -0.1759  0.2698 -0.0305
38152W        W81090  25.877  27.670   6.825  0.2361  0.1843  0.0808
38153W        W81091  28.487  26.146   7.995  0.0082  0.0591 -0.2422
38154W        W81092  25.214  28.209   6.231  0.0238  0.0006  0.0790
38155W        W81093  29.870  29.154   4.449 -0.1962  0.2929  0.0518
38156W        W81094  26.046  26.257   4.258 -0.0032 -0.1868  0.1457
38157W        W81095  27.047  26.463   5.671 -0.0255  0.0245  0.2458
38158W        W81096  28.346  24.787   5.801  0.0558 -0.1956 -0.2657
38159W        W81097  27.298  26.467   4.091 -0.1398 -0.2715  0.1813
38160W        W81098  28.580  26.300   5.686  0.1391  0.3098  0.0558
38161W        W81099  26.642  29.243   5.853 -0.0408  0.0930  0.0630
38162W        W81100  26.399  28.382   5.579  0.0159 -0.1050 -0.2941
38163W        W81101  26.364  29.059   6.323  0.1358  0.1428 -0.0629
38164W        W81102  25.485  25.715   4.910 -0.0102  0.0587  0.1017
38165W        W81103  29.562  26.749   4.204  0.0938 -0.2009 -0.2301
38166W        W81104  26.797  27.558   6.843 -0.2033  0.1332  0.0157
38167W        W81105  28.131  25.119   6.087 -0.1190  0.2037  0.0868
38168W        W81106  26.686  26.566   6.058  0.2648 -0.1615  0.1628
38169W        W81107  27.439  25.832   3.782 -0.0135  0.1254  0.3671
38170W        W81108  28.503  26.811   5.943  0.1723  0.3305  0.0872
38171W        W81109  26.082  26.760   5.151  0.1151 -0.2934 -0.2276
38172W        W81110  27.956  27.818   4.000  0.0370  0.0673  0.1948
38173W        W81111  27.926  28.934   5.796  0.1363  0.2849  0.0001
38174W        W81112  26.720  27.666   2.597 -0.2077  0.2524  0.1038
38175W        W81113  27.986  28.472   7.594  0.2275 -0.2121  0.3743
38176W        W81114  25.029  25.316   4.208 -0.1663 -0.1543  0.1439
38177W        W81115  27.017  25.476   4.379  0.3324  0.1120 -0.0514
38178W        W81116  26.634  27.419   4.680  0.2710 -0.1648  0.2384
38179W        W81117  27.518  27.059   5.873  0.2778 -0.0105  0.1905
38180W        W81118  28.112  28.200   8.001 -0.0973  0.2333  0.1015
38181W        W81119  25.914  25.831   2.863  0.1606  0.0679 -0.2663
38182W        W81120  28.258  28.092   4.666 -0.1836  0.0485  0.2556
38183W        W81121  29.401  26.764   5.213  0.0308  0.2154  0.0033
38184W        W81122  27.236  28.215   4.443  0.0806 -0.0664 -0.0798
38185W        W81123  28.330  27.628   5.765  0.3646  0.1164  0.2342
38186W        W81124  28.468  28.229   7.498  0.0490 -0.1273  0.1781
38187W        W81125  25.571  26.784   5.319 -0.2437 -0.1631  0.3753
38188W        W81126  27.643  29.935   5.767 -0.0369  0.0130 -0.1863
38189W        W81127  28.839  27.637   5.812 -0.2543  0.3231  0.1125
38190W        W81128  27.917  24.506   5.202  0.0145  0.1909  0.1082
38191W        W81129  26.584  25.313   4.266 -0.0601  0.0982 -0.2679
38192W        W81130  25.427  30.089   5.083  0.1930  0.0240 -0.1274
38193W        W81131  27.910  26.705   6.127 -0.0135 -0.0019 -0.2570
38194W        W81132  28.992  26.534   6.566 -0.4538 -0.2720 -0.2973
38195W        W81133  27.495  29.438   4.310  0.0880  0.0659  0.0833
38196W        W81134  28.470  24.468   7.186  0.4387 -0.0935  0.0251
38197W        W81135  26.390  28.521   7.105  0.1311 -0.2905  0.1984
38198W        W81136  25.506  28.847   7.176 -0.0362  0.0452  0.0008
38199W        W81137  24.815  27.521   3.959  0.2152  0.1291  0.3451
38200W        W81138  27.575  28.021   5.290  0.1309 -0.1631 -0.1612
38201W        W81139  26.101  27.394   4.390 -0.0720 -0.0635 -0.3210
38202W        W81140  26.750  27.949   4.045 -0.1024 -0.2790 -0.2022
38203W        W81141  27.568  29.178   5.549 -0.3255 -0.2152  0.1430
38204W        W81142  26.780  26.070   4.963  0.2019  0.2308  0.0373
38205W        W81143  28.237  27.475   4.377  0.0635  0.0641 -0.2063
38206W        W81144  28.787  26.664   6.984  0.1438  0.2397 -0.2261
38207W        W81145  28.904  26.168   4.714  0.4352  0.2438 -0.0384
38208W        W81146  28.129  26.329   4.513  0.0945 -0.0118  0.1217
38209W        W81147  26.299  28.935   5.737 -0.0129  0.2607 -0.1801
38210W        W81148  26.236  26.162   3.297  0.0582  0.0783 -0.0350
38211W        W81149  24.963  26.244   3.912  0.1042 -0.1946 -0.1826
38212W        W81150  24.636  26.960   6.683  0.0466  0.1435  0.0619
38213W        W81151  26.428  24.996   7.814 -0.2651 -0.0581  0.2564
38214W        W81152  25.353  26.504   6.910 -0.0525  0.1184 -0.0220
38215W        W81153  25.249  25.831   6.124 -0.1231 -0.0339  0.2647
38216W        W81154  24.981  25.109   5.397  0.1171 -0.1618 -0.1934
38217W        W81155  27.436  28.296   3.870 -0.4120  0.2242 -0.1633
38218W        W81156  25.241  25.314   5.769 -0.0030 -0.2885 -0.0122
38219W        W81157  25.644  24.171   4.963 -0.0488  0.0141  0.1538
38220W        W81158  25.824  28.295   4.114 -0.0948  0.2964  0.2051
38221W        W81159  27.274  29.179   3.902 -0.2159 -0.2079  0.0294
38222W        W81160  26.235  24.813   4.999 -0.1686  0.2228 -0.0132
38223W        W81161  28.518  28.527   7.926  0.1615 -0.0438  0.0402
38224W        W81162  25.272  27.799   3.060 -0.1298  0.0109 -0.0241
38225W        W81163  25.942  28.007   7.554  0.2065 -0.0478 -0.1124
38226W        W81164  26.747  25.336   7.202  0.1174  0.1236 -0.0685
38227W        W81165  25.197  23.897   3.043 -0.0073 -0.1905  0.1194
38228W        W81166  26.971  25.580   5.896 -0.4937 -0.0130  0.1317
38229W        W81167  26.271  29.939   4.392 -0.0701 -0.0257  0.2566
38230W        W81168  27.730  29.083   3.751 -0.0314  0.2689  0.0671
38231W        W81169  26.679  28.979   4.282  0.0352 -0.1835 -0.1423
38232W        W81170  26.264  28.200   4.369  0.1340 -0.1560 -0.2310
38233W        W81171  24.847  25.288   7.270  0.2549 -0.1462  0.1312
38234W        W81172  27.693  28.121   4.272  0.1988  0.2168  0.1634
38235W        W81173  28.051  28.570   4.409 -0.0579  0.1695 -0.0576
38236W        W81174  27.811  28.171   3.159  0.1280 -0.2133  0.4375
38237W        W81175  28.281  25.727   7.087  0.0104  0.1949 -0.0155
38238W        W81176  27.429  26.613   6.066  0.0894 -0.0442  0.0581
38239W        W81177  25.785  25.673   7.360 -0.2430  0.0922  0.0351
38240W        W81178  25.404  27.526   6.959  0.0253 -0.2010 -0.4292
38241W        W81179  27.953  27.234   5.774 -0.1454 -0.0123 -0.1786
38242W        W81180  25.081  24.687   5.654  0.0763  0.0698  0.0429
38243W        W81181  27.884  25.628   3.955  0.1372  0.0073  0.3550
38244W        W81182  26.934  27.791   4.567  0.0406  0.4039 -0.4032
38245W        W81183  25.849  27.182   5.160  0.0607  0.1735 -0.0569
38246W        W81184  27.163  27.142   3.335  0.1270  0.1704 -0.3290
38247W        W81185  27.665  26.770   6.603 -0.0327 -0.0110  0.0488
38248W        W81186  27.863  28.530   5.327  0.0248  0.2668 -0.0391
38249W        W81187  28.548  27.245   5.668  0.1226 -0.3584 -0.0031
38250W        W81188  27.363  27.109   4.154 -0.0502  0.0497  0.2087
38251W        W81189  28.216  26.969   2.962 -0.1333  0.4519  0.1931
38252W        W81190  27.885  30.220   6.691  0.0389 -0.1589  0.2730
38253W        W81191  26.494  29.820   7.184 -0.0593 -0.0799 -0.2079
38254W        W81192  26.952  29.139   6.422 -0.1047 -0.2344 -0.0969
38255W        W81193  28.026  27.770   6.565 -0.2400  0.3265 -0.1849
38256W        W81194  25.286  25.612   6.659  0.0948  0.0927 -0.1696
38257W        W81195  25.185  27.706   5.095  0.0566 -0.0610  0.0380
38258W        W81196  25.179  27.886   4.327 -0.1413 -0.1125  0.0211
38259W        W81197  28.070  27.491   5.368 -0.1665 -0.3788 -0.1370
38260W        W81198  27.053  27.685   5.638  0.2892  0.0069 -0.1627
38261W        W81199  27.378  26.744   4.536  0.2258 -0.2129  0.0277
38262W        W81200  26.523  29.011   5.259  0.0637 -0.0602 -0.2117
38263W        W81201  25.697  27.443   4.780 -0.0494  0.1521  0.1024
38264W        W81202  24.609  25.563  10.514 -0.0715 -0.2158  0.0355
38265W        W81203  25.744  26.550   7.254  0.1108 -0.0849 -0.0318
38266W        W81204  28.984  27.065   7.275  0.3564  0.0971 -0.2050
38267W        W81205  28.576  27.612   8.916  0.2546  0.2792  0.0421
38268W        W81206  24.087  25.691   9.604 -0.0115  0.1432 -0.2019
38269W        W81207  27.588  28.538   7.954  0.0612  0.2623  0.2848
38270W        W81208  29.283  29.404   9.523 -0.2230 -0.3630 -0.2555
38271W        W81209  31.247  28.524   9.354 -0.2209 -0.1448  0.3145
38272W        W81210  27.092  27.914   6.714 -0.0768 -0.2431  0.3196
38273W        W81211  26.193  25.995   9.018 -0.3172  0.1456  0.0306
38274W        W81212  27.812  25.453   8.171  0.0618  0.0570  0.0174
38275W        W81213  25.199  24.431   9.214  0.2296 -0.2031 -0.0814
38276W        W81214  28.002  26.981   8.017  0.0796  0.0727 -0.3913
38277W        W81215  26.724  28.364   7.790  0.3907 -0.0474  0.2627
38278W        W81216  25.150  26.174  10.041  0.0123  0.1637 -0.1392
38279W        W81217  25.974  25.865   7.853 -0.0545 -0.1130 -0.3021
38280W        W81218  27.470  29.087   7.823  0.2665 -0.2654 -0.0018
38281W        W81219  29.100  25.719   9.493  0.2050 -0.2603  0.0097
38282W        W81220  25.619  27.911   7.232  0.1980 -0.3263  0.2129
38283W        W81221  25.272  27.026   7.307  0.2478 -0.0140  0.0840
38284W        W81222  26.356  27.489   7.806  0.0758 -0.1801 -0.0769
38285W        W81223  26.701  27.320   8.258  0.0017 -0.0959 -0.3227
38286W        W81224  26.267  27.135  10.051  0.0646  0.0315 -0.1136
38287W        W81225  27.198  27.345   8.548  0.1997 -0.3860 -0.0553
38288W        W81226  26.721  28.091   8.449  0.0723 -0.1577 -0.0140
38289W        W81227  26.919  27.594   9.452 -0.1567  0.0168 -0.0774
38290W        W81228  25.388  27.705   8.344  0.2759 -0.0956 -0.1291
38291W        W81229  24.456  30.346   9.449 -0.1365 -0.0662 -0.1740
38292W        W81230  25.674  27.886   7.937  0.0335 -0.2060 -0.1946
38293W        W81231  28.514  27.552   8.430 -0.1436  0.1647  0.1673
38294W        W81232  25.829  29.380   8.808  0.0771  0.0297 -0.2030
38295W        W81233  26.332  28.851   9.476  0.1820 -0.0368  0.1179
38296W        W81234  27.585  26.703   8.930 -0.0102 -0.0578  0.0774
38297W        W81235  27.148  26.707   6.829  0.2937  0.4869  0.1851
38298W        W81236  26.418  28.421   8.176  0.1344 -0.0058  0.1402
38299W        W81237  26.125  29.685   9.607 -0.0871 -0.4028  0.1625
38300W        W81238  25.794  28.532   7.419 -0.1058 -0.1503  0.0077
38301W        W81239  27.504  27.190   7.633 -0.5608  0.4617 -0.0155
38302W        W81240  25.893  26.064   5.922  0.1369 -0.0191  0.1472
38303W        W81241  27.461  26.004   7.112 -0.2785 -0.0411  0.0741
38304W        W81242  25.351  25.600   8.185 -0.0129  0.0880  0.2933
38305W        W81243  26.505  27.914   9.544 -0.1008  0.2020  0.0397
38306W        W81244  25.556  24.975   9.781  0.1517 -0.2930  0.1483
38307W        W81245  25.385  28.717   8.178  0.0260 -0.0314  0.5223
38308W        W81246  28.413  24.573   9.834  0.0383  0.0159 -0.3686
38309W        W81247  26.328  23.734   9.822 -0.2780  0.2406  0.1573
38310W        W81248  26.168  27.046   8.390  0.0401 -0.1379 -0.3585
38311W        W81249  28.208  28.742   6.738  0.1636 -0.0864  0.0009
38312W        W81250  28.530  27.951   8.037  0.2388 -0.0477 -0.1125
38313W        W81251  27.116  28.370   8.165 -0.0105  0.2161  0.1533
38314W        W81252  25.315  25.533   7.207  0.2480 -0.3086 -0.0966
38315W        W81253  26.319  25.696   7.308  0.2419  0.1386 -0.1328
38316W        W81254  28.075  27.249   7.588 -0.0592  0.1052 -0.2403
38317W        W81255  26.866  26.836   8.782 -0.0957 -0.0677  0.2021
38318W        W81256  29.638  27.598   9.596  0.0299  0.4687  0.1929
38319W        W81257  28.705  27.994   7.103  0.3923  0.0904 -0.2332
38320W        W81258  27.555  24.745   9.258 -0.1164 -0.2281  0.2053
38321W        W81259  29.469  26.164   9.475 -0.4037  0.1342  0.2366
38322W        W81260  26.752  27.087   6.556  0.1401  0.1414  0.2910
38323W        W81261  26.424  28.030   7.374  0.1776  0.0429  0.0460
38324W        W81262  29.357  28.991   8.833 -0.0616  0.1935 -0.2635
38325W        W81263  26.717  27.621   7.417 -0.2639  0.2840  0.2142
38326W        W81264  26.290  28.877   8.470  0.1380 -0.1667  0.1812
38327W        W81265  27.443  29.211   6.548  0.0447  0.1663  0.0238
38328W        W81266  25.565  27.413   8.723  0.0538  0.1233 -0.0023
38329W        W81267  26.460  26.941   7.863 -0.1176 -0.1802 -0.1024
38330W        W81268  25.961  27.093   8.859 -0.2404 -0.1372  0.1356
38331W        W81269  27.075  27.724   8.258 -0.1269 -0.0564 -0.3029
38332W        W81270  28.184  26.484   7.755  0.0518 -0.2101  0.0208
38333W        W81271  27.046  24.882   9.483  0.0628  0.2958  0.0692
38334W        W81272  23.591  29.533   8.559  0.1228  0.2885 -0.2812
38335W        W81273  27.965  29.803   7.714  0.1464  0.3281 -0.2636
38336W        W81274  28.916  28.287   8.282 -0.0759  0.0280 -0.0226
38337W        W81275  29.004  27.538   7.098 -0.0913 -0.1950  0.0420
38338W        W81276  25.390  25.972   8.491  0.0332 -0.2139 -0.1222
38339W        W81277  26.077  26.130   7.324  0.3939 -0.1891 -0.1435
38340W        W81278  25.126  25.039   8.572 -0.0031  0.0669 -0.1535
38341W        W81279  26.255  25.434   7.736  0.0280 -0.0569 -0.3284
38342W        W81280  27.887  26.795   7.532 -0.1610 -0.0539  0.2533
38343W        W81281  25.206  28.182   8.252  0.0825 -0.4160  0.1657
38344W        W81282  24.709  28.006   7.487 -0.0829 -0.0910  0.0753
38345W        W81283  27.120  30.229   8.657 -0.3014 -0.0315  0.2059
38346W        W81284  30.345  28.866   9.545 -0.0346 -0.3351  0.3536
38347W        W81285  28.044  28.916   9.228 -0.0963  0.1163  0.2503
38348W        W81286  26.585  24.387   9.189 -0.1791  0.1871  0.0639
38349W        W81287  24.899  25.709   7.509  0.1739  0.0725  0.0622
38350W        W81288  26.771  28.586   8.523 -0.1822 -0.1513 -0.1086
38351W        W81289  25.922  28.480   8.421  0.3449  0.0260  0.0857
38352W        W81290  25.951  24.784   7.378 -0.1169 -0.0626 -0.1720
38353W        W81291  29.389  28.508   9.638  0.3007  0.1263  0.1168
38354W        W81292  27.227  28.104   8.591  0.1899 -0.0653  0.1421
38355W        W81293  28.848  27.925   9.597 -0.0040  0.4538 -0.3695
38356W        W81294  26.345  27.639   8.316 -0.1507  0.1497 -0.0272
38357W        W81295  24.595  25.337   7.724 -0.0052 -0.1648  0.0888
38358W        W81296  28.925  28.157   7.802 -0.2941 -0.1555  0.0934
38359W        W81297  24.935  29.657   7.647  0.0322 -0.0999 -0.3271
38360W        W81298  24.284  27.107   7.623  0.0492 -0.2120  0.0560
38361W        W81299  27.150  28.833   8.298  0.0460  0.1033  0.0727
38362W        W81300  27.994  26.341   8.724 -0.1082 -0.0974 -0.1757
38363W        W81301  26.406  26.002   7.700 -0.1453  0.1102 -0.3403
38364W        W81302  27.111  24.802   9.002 -0.0048 -0.1892 -0.2642
38365W        W81303  27.787  26.334   7.472 -0.2875  0.2821 -0.0830
38366W        W81304  27.962  28.851   7.938 -0.0234 -0.2853 -0.1396
38367W        W81305  27.236  26.935   6.389  0.0792 -0.3229 -0.1854
38368W        W81306  26.634  25.689   6.888 -0.2675 -0.0753  0.2265
38369W        W81307  25.859  27.956   8.534  0.0566  0.0056  0.3078
38370W        W81308  24.555  25.050  10.201  0.1302 -0.4191 -0.1862
38371W        W81309  27.425  26.337   6.687 -0.0648  0.4269 -0.1904
38372W        W81310  28.288  29.202   6.958  0.1122 -0.0639 -0.3970
38373W        W81311  24.973  26.999  10.306 -0.0881  0.2712 -0.0878
38374W        W81312  28.393  28.936   7.640 -0.1384  0.0101  0.3999
38375W        W81313  27.721  24.318   9.071  0.0092  0.1676 -0.0986
38376W        W81314  25.069  26.983   7.739  0.0934  0.2957  0.1390
38377W        W81315  27.110  25.417   8.941 -0.1561  0.0188 -0.2574
38378W        W81316  26.101  29.023   7.306  0.0223  0.0994  0.1468
38379W        W81317  28.324  25.353   8.965  0.1126  0.5182 -0.2071
38380W        W81318  26.377  26.238   8.585  0.1373  0.1550  0.1297
38381W        W81319  27.148  27.129   7.308  0.1326 -0.2168 -0.0114
38382W        W81320  26.813  26.709   7.408  0.1366 -0.1303  0.3340
38383W        W81321  26.698  26.546   6.852  0.0233  0.1064 -0.0481
38384W        W81322  26.597  24.938   9.049  0.1681  0.0928 -0.0657
38385W        W81323  26.115  27.587   9.405 -0.0599  0.0689 -0.0940
38386W        W81324  27.298  26.720   7.592 -0.0305  0.0606 -0.2145
38387W        W81325  26.060  26.477   7.759 -0.4716 -0.2191 -0.1237
38388W        W81326  26.025  29.340   8.272 -0.1795  0.1418 -0.0744
38389W        W81327  26.924  28.022   7.262  0.1158  0.4471  0.2968
38390W        W81328  25.015  25.614   8.539 -0.0950  0.1616  0.0596
38391W        W81329  27.617  27.552   8.364  0.1466 -0.0992 -0.2038
38392W        W81330  26.972  29.818   6.882  0.2153 -0.0277 -0.0599
38393W        W81331  26.364  28.307   8.712 -0.1695  0.1602 -0.1460
38394W        W81332  26.839  28.482   7.339 -0.0265  0.3128 -0.1566
38395W        W81333  27.940  24.524   9.493  0.1751 -0.1407 -0.1768
38396W        W81334  25.180  28.583   8.647  0.0264  0.0378 -0.0873
38397W        W81335  27.064  25.753   7.963 -0.1290 -0.0185 -0.2267
38398W        W81336  23.865  27.337   7.382  0.2063  0.1839  0.0620
38399W        W81337  27.191  26.010   8.410 -0.0956 -0.0150  0.0928
38400W        W81338  28.403  27.584   7.143  0.1539 -0.1392 -0.3646
38401W        W81339  25.645  25.123   9.341  0.2807 -0.2636 -0.0361
38402W        W81340  27.527  27.190   8.911  0.0493 -0.0457 -0.1135
38403W        W81341  23.793  28.172  10.035 -0.1346  0.2659 -0.0266
38404W        W81342  26.713  27.167   7.154 -0.0210  0.1356  0.1776
38405W        W81343  24.884  27.438   7.490  0.2992 -0.0290  0.0903
38406W        W81344  27.785  25.205   9.173 -0.0620  0.1651  0.0353
38407W        W81345  26.643  25.088   9.563  0.0737 -0.0421  0.3703
38408W        W81346  23.481  28.330   7.930 -0.1295 -0.2721  0.0844
38409W        W81347  28.248  27.950   8.913  0.0199 -0.0644  0.5108
38410W        W81348  25.883  27.159   6.975  0.0701  0.2274 -0.3092
38411W        W81349  24.930  28.110   8.649 -0.1158 -0.0126 -0.0902
38412W        W81350  27.809  26.769   8.464 -0.2724  0.3563  0.0305
38413W        W81351  26.336  24.705   9.466 -0.2424 -0.0416  0.0398
38414W        W81352  25.646  26.078   7.078 -0.1202  0.2128 -0.2282
38415W        W81353  28.399  26.735   9.671 -0.1189 -0.1207  0.1836
38416W        W81354  28.069  27.658   9.759  0.0757 -0.1314  0.2368
38417W        W81355  25.884  26.212   8.554 -0.0440  0.2641  0.1503
38418W        W81356  27.623  24.008   8.282  0.0974 -0.0808 -0.0350
38419W        W81357  29.745  30.405   8.607 -0.3270 -0.0446 -0.2249
38420W        W81358  25.403  28.309   7.780  0.0721 -0.2029 -0.0769
38421W        W81359  25.128  27.366   8.035  0.2996 -0.3192 -0.2390
38422W        W81360  27.239  27.627   7.563 -0.0062 -0.2501  0.0153
38423W        W81361  27.622  25.316   9.682 -0.1209 -0.1197  0.0294
38424W        W81362  26.992  30.684   9.508  0.0583  0.0801 -0.0034
38425W        W81363  25.985  28.143   6.902  0.1741  0.1004 -0.0091
38426W        W81364  26.301  26.699   8.807  0.1821 -0.2615 -0.0605
38427W        W81365  28.812  25.936   7.690 -0.0081  0.4528  0.2154
38428W        W81366  27.012  26.102   6.859 -0.2337  0.1581  0.2443
38429W        W81367  26.270  26.606   7.390  0.1462  0.0211 -0.0624
38430W        W81368  28.245  27.774   7.568  0.0919 -0.0419 -0.2339
38431W        W81369  26.648  26.731   9.916 -0.0749  0.2627  0.1645
38432W        W81370  27.785  25.810   8.546  0.0850  0.1023 -0.3211
38433W        W81371  26.715  25.278   8.114 -0.4068  0.2392  0.1613
38434W        W81372  26.259  25.375   6.769  0.2240 -0.2540 -0.0844
38435W        W81373  26.535  27.529   9.134 -0.1371 -0.0660 -0.4498
38436W        W81374  30.289  27.960   9.551  0.1922 -0.1019 -0.2147
38437W        W81375  27.037  28.385   6.888 -0.0151 -0.0854 -0.0599
38438W        W81376  27.761  27.689   8.826 -0.1904 -0.0989 -0.0582
38439W        W81377  25.439  26.779   9.613  0.0590 -0.1544  0.1427
38440W        W81378  27.949  26.982   7.060 -0.0093 -0.0367  0.0721
38441W        W81379  27.517  26.785   7.166  0.0405  0.0251  0.0069
38442W        W81380  26.751  27.845   7.850  0.1740  0.0825 -0.4029
38443W        W81381  27.534  28.150   8.995  0.0697 -0.1533  0.4249
38444W        W81382  28.820  26.307   9.729  0.1895  0.1550 -0.1496
38445W        W81383  29.105  27.579   9.295 -0.0454 -0.0400 -0.0908
38446W        W81384  28.319  27.420   7.984 -0.1292  0.1904  0.0106
38447W        W81385  28.695  24.012   9.110  0.3287  0.3783 -0.0379
38448W        W81386  29.157  27.307   8.315 -0.3528  0.0448 -0.1420
38449W        W81387  26.252  27.092   7.374 -0.1681 -0.2350 -0.3489
38450W        W81388  25.746  26.243   8.073  0.1427  0.4955 -0.0969
38451W        W81389  27.875  25.837   6.857  0.1004 -0.2193  0.1004
38452W        W81390  27.754  28.046   7.646  0.0853 -0.2032  0.2646
38453W        W81391  27.830  27.482   7.927  0.1846 -0.0379 -0.2449
38454W        W81392  26.324  26.844   6.941 -0.0123 -0.1016  0.3288
38455W        W81393  25.838  27.490  10.351  0.1989 -0.0060 -0.1562
38456W        W81394  26.534  24.122   6.914 -0.1045 -0.4323 -0.0209
38457W        W81395  26.560  27.870   5.633 -0.0927  0.0488  0.0387
38458W        W81396  27.265  26.818   8.446  0.0486 -0.1724  0.0870
38459W        W81397  27.837  25.300   8.668 -0.0891  0.7635 -0.2003
38460W        W81398  24.160  28.143   7.403 -0.1759 -0.3816 -0.1215
38461W        W81399  26.341  25.702   8.566  0.0642  0.1031  0.3777
38462W        W81400  27.692  29.522   8.497 -0.0614 -0.1644 -0.2352
38463W        W81401  25.494  28.835   8.902  0.0459 -0.0075 -0.3409
38464W        W81402  27.424  26.468   9.417  0.3155  0.2470 -0.0801
38465W        W81403  26.512  25.484   9.008 -0.1128  0.1919  0.0673
38466W        W81404  26.874  26.399   8.400 -0.1873  0.0101 -0.1636
38467W        W81405  27.664  26.216   9.048  0.0879  0.0362  0.0288
38468W        W81406  28.114  27.361   8.930  0.0031 -0.1746  0.0715
38469W        W81407  24.692  28.382   8.237 -0.2848 -0.0693 -0.0867
38470W        W81408  26.826  27.250   7.692 -0.1545  0.2804  0.0939
38471W        W81409  26.883  25.569   8.444  0.2998  0.1329 -0.2684
38472W        W81410  26.212  26.476   5.895  0.0594  0.1631  0.0386
38473W        W81411  26.137  26.582   8.273  0.0872  0.1999 -0.1934
38474W        W81412  26.111  30.318   9.028 -0.2183 -0.0168  0.0581
38475W        W81413  27.317  28.444   7.303  0.3967  0.0361 -0.1328
38476W        W81414  27.147  27.381   6.565 -0.1240 -0.0212 -0.1455
38477W        W81415  27.733  29.004   8.324 -0.2682  0.1033 -0.3248
38478W        W81416  25.920  26.756   6.262  0.0831  0.0744 -0.0442
38479W        W81417  25.089  27.345   8.554 -0.1503 -0.0166  0.2026
38480W        W81418  24.695  28.471   7.265 -0.1081 -0.3230  0.0626
38481W        W81419  27.932  27.501   6.980 -0.1856  0.2942 -0.1501
38482W        W81420  25.897  27.471   8.266 -0.0081  0.0986 -0.0452
38483W        W81421  28.064  25.330   7.451 -0.1016 -0.1518  0.2464
38484W        W81422  28.501  27.110   8.721 -0.0002  0.0706 -0.0147
38485W        W81423  28.203  25.389   7.946 -0.2120  0.2102  0.0900
38486W        W81424  25.506  26.454  10.450 -0.1069 -0.3140 -0.2945
38487W        W81425  26.971  25.796   7.242 -0.3526  0.3514  0.1135
38488W        W81426  27.382  29.704   7.848  0.1597  0.0948  0.1947
38489W        W81427  25.188  26.558   7.439  0.0453 -0.1749 -0.0543
38490W        W81428  26.025  25.379   9.455 -0.2159 -0.1212 -0.1393
38491W        W81429  28.860  25.386   8.513  0.0153 -0.0435 -0.1160
38492W        W81430  26.574  27.670   6.400 -0.0287 -0.1380  0.0479
38493W        W81431  28.044  25.006   9.574  0.0177 -0.0414 -0.0717
38494W        W81432  26.962  28.998   7.327  0.0795  0.1442 -0.0713
38495W        W81433  26.933  27.226   9.053 -0.1239 -0.3052 -0.0636
38496W        W81434  27.397  29.153   8.672  0.0381 -0.2686  0.3791
38497W        W81435  26.588  26.153   7.214  0.1401 -0.1343  0.1805
38498W        W81436  27.518  27.971   8.127 -0.0105 -0.0147 -0.2000
38499W        W81437  26.247  25.578  10.012  0.5816  0.1064  0.2085
38500W        W81438  24.499  26.307   8.004  0.1739 -0.0287  0.2593
38501W        W81439  27.665  26.592   7.924  0.0515  0.0655  0.0567
38502W        W81440  26.734  26.875   9.320 -0.0363 -0.0090 -0.1818
38503W        W81441  26.306  27.123   9.260  0.0035 -0.0098 -0.2753
38504W        W81442  26.330  27.535   7.113  0.1736  0.2196 -0.0740
38505W        W81443  26.009  25.876   6.826  0.0103  0.3434 -0.2294
38506W        W81444  26.227  26.221   9.946  0.4049  0.1317  0.1208
38507W        W81445  26.885  26.292   7.727  0.1232 -0.1652 -0.0492
38508W        W81446  25.936  26.974   7.938 -0.1106  0.1868  0.1840
38509W        W81447  27.415  27.634   9.987 -0.0105 -0.0250 -0.2036
38510W        W81448  24.850  25.300   8.126  0.1021  0.0822 -0.1095
38511W        W81449  29.252  28.522   7.642  0.1434 -0.2216 -0.1301
38512W        W81450  27.513  27.131   8.124  0.0194 -0.1050 -0.2876
38513W        W81451  26.616  29.475   6.724 -0.1463 -0.2322 -0.0327
38514W        W81452  27.900  28.136   8.581  0.0286 -0.4278 -0.2435
38515W        W81453  26.805  28.095   8.903 -0.0476  0.0002 -0.0252
38516W        W81454  25.113  25.556  10.036  0.0133  0.1694  0.2679
38517W        W81455  28.327  28.877   8.780  0.2316  0.0295  0.0620
38518W        W81456  26.671  24.439  11.477 -0.2024 -0.2114  0.1625
38519W        W81457  26.061  26.347   6.886  0.0170 -0.4098  0.1577
38520W        W81458  26.972  27.101   9.703 -0.1997  0.1670 -0.2743
38521W        W81459  24.314  27.906   7.945 -0.1865 -0.2833 -0.0285
38522W        W81460  28.073  26.843   8.902  0.2956  0.2138 -0.1444
38523W        W81461  27.219  27.611   7.072 -0.1230  0.3166 -0.0811
38524W        W81462  27.774  27.604   7.436 -0.0807  0.2042  0.1570
38525W        W81463  25.735  27.027   7.451 -0.1207 -0.0330 -0.1480
38526W        W81464  27.006  29.657   8.770  0.2348 -0.0904 -0.3068
38527W        W81465  26.261  29.019   6.810  0.1290  0.1476 -0.2844
38528W        W81466  28.415  29.298   9.223 -0.2501 -0.0658  0.0260
38529W        W81467  27.520  26.361   8.520 -0.0649 -0.1611  0.1293
38530W        W81468  29.017  26.935   8.735  0.3683  0.1787  0.0810
38531W        W81469  26.507  26.436   8.015  0.1280  0.1786  0.0431
38532W        W81470  27.726  24.500   8.552 -0.1355 -0.0762 -0.1657
38533W        W81471  27.622  25.635   7.702  0.2004  0.0828 -0.2763
38534W        W81472  25.554  26.151   9.696 -0.1729  0.1913 -0.4139
38535W        W81473  25.608  26.187   7.566 -0.2101  0.1066 -0.1721
38536W        W81474  25.918  27.513   7.374  0.3219 -0.0389  0.2522
38537W        W81475  25.159  27.337   9.037  0.1656  0.0955 -0.2803
38538W        W81476  24.563  28.077   7.015  0.0961  0.2157 -0.0214
38539W        W81477  25.807  25.782   8.324 -0.1693  0.0501  0.1739
38540W        W81478  28.836  27.528   8.015  0.2762  0.3255  0.1670
38541W        W81479  28.023  27.116   9.784  0.0872  0.2715 -0.0370
38542W        W81480  24.589  26.982   9.450  0.0121 -0.0638 -0.0589
38543W        W81481  27.855  27.420   9.321  0.0313 -0.3056 -0.0871
38544W        W81482  28.786  27.772   7.566 -0.2028 -0.2013 -0.2460
38545W        W81483  25.580  25.185   7.436 -0.0105 -0.1252 -0.0316
38546W        W81484  25.384  28.806   7.710  0.0827  0.3461 -0.2312
38547W        W81485  25.229  25.998   7.263  0.1217 -0.1186 -0.2173
38548W        W81486  26.541  23.896   9.390 -0.0879 -0.1166  0.1170
38549W        W81487  27.390  29.285   7.316 -0.1844 -0.2602 -0.0565
38550W        W81488  27.167  28.086   7.704  0.0052  0.2463  0.3777
38551W        W81489  25.163  23.919   9.085 -0.1750 -0.2289 -0.0806
38552W        W81490  28.055  27.780   8.275 -0.0386  0.3511 -0.1959
38553W        W81491  28.158  28.796   7.227 -0.0337  0.0367  0.3950
38554W        W81492  29.008  26.285   8.680 -0.0699  0.1215 -0.1584
38555W        W81493  26.775  27.618   8.714 -0.0414 -0.3010 -0.1146
38556W        W81494  29.979  28.364   9.740 -0.1878  0.1905  0.0210
38557W        W81495  25.148  24.927   9.412 -0.2160 -0.1734 -0.1856
38558W        W81496  27.331  25.868   8.865 -0.2254  0.1662  0.0409
38559W        W81497  28.287  29.349   7.880 -0.1849 -0.0317  0.1316
38560W        W81498  26.956  26.766   7.960  0.1999 -0.1405  0.0699
38561W        W81499  26.749  25.567   7.659  0.0495 -0.0209 -0.0670
38562W        W81500  28.402  28.981   8.136 -0.4334 -0.0631 -0.1242
38563W        W81501  25.522  26.678   7.927  0.0503 -0.1207 -0.1298
38564W        W81502  30.191  27.835   7.601 -0.0307 -0.0140 -0.0204
38565W        W81503  28.540  29.403   8.760 -0.1462 -0.0682 -0.0443
38566W        W81504  26.305  27.928   9.027 -0.0840 -0.1947 -0.0690
38567W        W81505  28.671  27.236   9.801  0.1397 -0.0356 -0.2739
38568W        W81506  24.238  25.322   8.862  0.0977 -0.1333 -0.3486
38569W        W81507  24.766  27.862   8.235 -0.0242 -0.3147 -0.4852
38570W        W81508  26.312  27.983   7.930 -0.0758  0.0616 -0.0992
38571W        W81509  29.098  27.206   9.609 -0.0712 -0.3165  0.0929
38572W        W81510  25.075  25.997   8.861 -0.1403 -0.4151  0.0056
38573W        W81511  29.067  25.059   8.010 -0.1431 -0.1789  0.1311
38574W        W81512  27.620  28.478   8.420  0.0272  0.0479  0.1155
38575W        W81513  29.364  26.651   9.669  0.1484 -0.0263 -0.1343
38576W        W81514  25.365  31.505   2.682 -0.2112 -0.2409 -0.2021
38577W        W81515  25.401  31.636   0.851 -0.1159 -0.0424  0.1697
38578W        W81516  28.919  31.555  31.809  0.0827  0.0699  0.1769
38579W        W81517  28.179  30.956   0.993 -0.1347 -0.0782 -0.2495
38580W        W81518  25.509  29.628  31.496  0.2084  0.3710 -0.2519
38581W        W81519  28.347  33.588   1.259  0.0182  0.0056  0.0241
38582W        W81520  25.426  28.333   3.816 -0.3729  0.2567 -0.1487
38583W        W81521  27.580  32.818   0.818 -0.0681  0.0324  0.2316
38584W        W81522  27.617  31.688   2.272 -0.3426  0.1519 -0.0340
38585W        W81523  27.914  32.169   0.688 -0.1031 -0.1574 -0.1614
38586W        W81524  26.201  29.930   2.228 -0.1274 -0.0434  0.1261
38587W        W81525  26.005  33.372   2.420 -0.0155 -0.1381  0.0788
38588W        W81526  25.747  31.365  30.370  0.0208  0.1976 -0.0376
38589W        W81527  26.145  29.094   1.819 -0.0453 -0.0161 -0.0878
38590W        W81528  27.668  31.588   4.509 -0.1980  0.1877 -0.1705
38591W        W81529  26.361  31.997  31.088  0.2385  0.1697 -0.3028
38592W        W81530  27.008  31.674   1.239 -0.1007  0.3450  0.0200
38593W        W81531  25.993  30.629  31.931 -0.0990 -0.3153  0.2268
38594W        W81532  26.112  32.678   1.116  0.0369  0.1713  0.1639
38595W        W81533  26.232  29.033   3.703  0.1374 -0.0547 -0.2089
38596W        W81534  27.306  28.259   2.281 -0.0653  0.1993  0.2592
38597W        W81535  26.981  32.207   1.052 -0.1394  0.0276  0.0250
38598W        W81536  26.214  31.473  31.674  0.1617 -0.1426  0.1047
38599W        W81537  25.348  29.308   1.997  0.1733 -0.2596  0.2208
38600W        W81538  26.529  30.545   3.167  0.0494 -0.2343  0.1815
38601W        W81539  27.044  29.726   3.124  0.1598 -0.2836  0.1984
38602W        W81540  28.062  30.374   2.459  0.1036  0.1589 -0.4051
38603W        W81541  26.980  33.546   1.423  0.0687  0.2346  0.0784
38604W        W81542  26.204  32.969   1.532 -0.1146  0.2731 -0.0265
38605W        W81543  27.802  30.542   4.584 -0.4899  0.0233  0.0383
38606W        W81544  24.079  31.903   1.184  0.2535 -0.2011 -0.1702
38607W        W81545  24.212  33.936   2.243 -0.1416  0.2403  0.1396
38608W        W81546  25.988  32.574   1.649 -0.2407  0.2669  0.0104
38609W        W81547  29.028  32.532   0.872  0.3214  0.1341 -0.1388
38610W        W81548  27.320  33.412   3.871  0.4607  0.2659 -0.0474
38611W        W81549  26.704  33.451   2.112  0.0923 -0.2456 -0.1010
38612W        W81550  26.450  32.416   0.198  0.0341 -0.0003 -0.0326
38613W        W81551  26.853  33.239   3.988 -0.1106  0.0954  0.0613
38614W        W81552  26.467  32.368   3.819  0.0355 -0.0330 -0.3826
38615W        W81553  27.043  31.066   2.309 -0.0657 -0.4648 -0.1421
38616W        W81554  25.568  31.104   2.881 -0.1043 -0.0870  0.2213
38617W        W81555  27.080  32.435  31.525 -0.2259  0.1618 -0.3313
38618W        W81556  26.625  31.964   2.038 -0.0892  0.0273 -0.0359
38619W        W81557  26.915  30.743   2.840  0.0260 -0.3588  0.2852
38620W        W81558  24.571  31.664   1.955 -0.0266 -0.2673  0.1564
38621W        W81559  28.381  29.471   1.902 -0.0231  0.0510 -0.1300
38622W        W81560  25.731  33.036   1.535 -0.2417  0.1337 -0.1155
38623W        W81561  27.324  30.405   0.616  0.0048 -0.1468 -0.1547
38624W        W81562  25.605  29.937  30.400  0.1864 -0.0884  0.1424
38625W        W81563  27.732  31.720   0.469  0.1732 -0.1790 -0.0549
38626W        W81564  26.828  29.125   1.192  0.2224  0.2945  0.0286
38627W        W81565  25.946  34.522   0.966  0.0601 -0.0720  0.1064
38628W        W81566  27.151  29.885   2.567  0.4369  0.0381  0.0103
38629W        W81567  28.922  32.802   3.596  0.2645  0.0344 -0.1130
38630W        W81568  27.366  31.307   0.495 -0.2927  0.3367 -0.1899
38631W        W81569  27.365  29.901   0.840  0.1152 -0.0992  0.2829
38632W        W81570  27.358  31.474   2.636 -0.1222  0.2967 -0.1890
38633W        W81571  27.142  30.720   1.388 -0.1209  0.1222 -0.0935
38634W        W81572  28.443  33.093  31.561  0.0657 -0.3591 -0.2206
38635W        W81573  27.963  33.760   1.987 -0.1514  0.0335 -0.1788
38636W        W81574  27.705  32.958   0.196 -0.1050 -0.1421 -0.0087
38637W        W81575  25.891  30.692   1.147 -0.0273 -0.0624  0.1236
38638W        W81576  24.254  30.826   3.086  0.3048 -0.2005 -0.0562
38639W        W81577  26.392  29.418   2.260  0.0879  0.0500  0.5247
38640W        W81578  25.730  29.781  31.934 -0.3569  0.0115 -0.0130
38641W        W81579  28.294  32.513   3.763  0.1629 -0.2107  0.2018
38642W        W81580  25.516  33.034   2.441  0.3040  0.1228 -0.1714
38643W        W81581  27.377  29.802  31.779  0.0505 -0.1435  0.0083
38644W        W81582  26.004  30.516   3.183  0.1301  0.0533 -0.1546
38645W        W81583  28.946  32.642   3.109 -0.0901 -0.0743  0.2632
38646W        W81584  28.099  32.212   1.114 -0.2201 -0.0460  0.0414
38647W        W81585  26.380  31.528   0.542  0.1187 -0.3750  0.0895
38648W        W81586  26.838  30.258   2.585  0.0685 -0.0211  0.0419
38649W        W81587  25.081  30.753  31.732 -0.0019 -0.0604  0.1590
38650W        W81588  26.174  31.882   1.877  0.1162  0.1959 -0.0037
38651W        W81589  27.758  33.177   4.023 -0.1788  0.3688 -0.1094
38652W        W81590  28.266  33.114   1.009 -0.2490 -0.2640 -0.1923
38653W        W81591  26.916  33.765   2.486 -0.0034 -0.0190  0.0890
38654W        W81592  26.119  29.647   3.212 -0.2473 -0.0755 -0.3657
38655W        W81593  27.599  31.854   4.016 -0.3834  0.0506 -0.1501
38656W        W81594  25.042  32.330   0.171  0.1587  0.0996 -0.1841
38657W        W81595  25.979  31.704   2.335 -0.2484  0.0861 -0.1653
38658W        W81596  26.792  31.808  31.191 -0.0103 -0.0436 -0.2120
38659W        W81597  25.722  29.041   2.354 -0.1865 -0.3676  0.5440
38660W        W81598  26.281  30.295   2.799 -0.0472  0.4076  0.0257
38661W        W81599  27.750  31.210   0.844 -0.0870 -0.0077 -0.1522
38662W        W81600  25.777  30.399   3.641  0.4017 -0.0168 -0.0403
38663W        W81601  27.541  29.184   1.253  0.2743 -0.0347  0.0043
38664W        W81602  25.373  32.069   1.495  0.0304  0.0774 -0.0839
38665W        W81603  28.804  33.443   1.062 -0.4450 -0.1195 -0.1266
38666W        W81604  28.735  31.202   0.282 -0.0394  0.0718  0.0523
38667W        W81605  28.509  31.305  31.516 -0.2383  0.2053 -0.1220
38668W        W81606  25.489  29.656   1.594 -0.1207  0.0774  0.0901
38669W        W81607  25.698  30.145   3.100 -0.0589  0.1667 -0.1713
38670W        W81608  26.550  29.967   3.061 -0.1862 -0.1462  0.1733
38671W        W81609  25.876  28.738   3.161 -0.0364  0.1845  0.1613
38672W        W81610  27.371  30.929   2.655 -0.0055  0.1739  0.2943
38673W        W81611  25.484  28.351  30.900  0.1464 -0.4349  0.1096
38674W        W81612  28.760  31.660   1.583  0.1690  0.0107 -0.2260
38675W        W81613  25.776  30.742   0.634  0.1472  0.0547 -0.2238
38676W        W81614  25.398  32.018   2.149 -0.0355  0.0861  0.1404
38677W        W81615  27.517  30.009   4.239  0.2718  0.1420 -0.0469
38678W        W81616  27.191  32.687   1.112  0.0781  0.1686 -0.2665
38679W        W81617  26.528  33.472   2.645  0.0519  0.1014  0.1444
38680W        W81618  27.719  31.403   1.790  0.2474 -0.0415  0.0822
38681W        W81619  26.609  29.842   2.520  0.0062 -0.0238 -0.1505
38682W        W81620  25.503  28.877  31.661 -0.2225  0.3675  0.0074
38683W        W81621  26.312  31.585   2.688  0.1777  0.1544 -0.1353
38684W        W81622  28.125  31.657   2.953 -0.0079  0.2207 -0.1372
38685W        W81623  25.001  32.404   1.481  0.0776  0.0052  0.0146
38686W        W81624  28.631  32.135   2.372 -0.2874  0.2817  0.1439
38687W        W81625  25.700  31.713   1.866  0.1375 -0.2194 -0.0942
38688W        W81626  24.766  30.741   2.429  0.1889 -0.1212  0.1226
38689W        W81627  27.376  29.408   2.591  0.1210  0.1928 -0.2107
38690W        W81628  27.911  31.458   3.866 -0.1053 -0.2062  0.1829
38691W        W81629  26.327  30.111   1.497 -0.0029 -0.1671  0.2848
38692W        W81630  26.026  29.181  30.946  0.0703 -0.0653  0.0362
38693W        W81631  27.303  33.209   1.017 -0.0919  0.0903  0.1216
38694W        W81632  25.979  34.050   1.120  0.0823 -0.0412  0.1458
38695W        W81633  25.097  30.759   1.469  0.1454  0.1386 -0.1733
38696W        W81634  25.430  32.514   2.257 -0.1195  0.2721  0.0729
38697W        W81635  29.168  31.227   0.723  0.1520  0.0864  0.2324
38698W        W81636  24.155  30.067   5.089  0.0222  0.3088 -0.1709
38699W        W81637  27.384  30.702   3.102 -0.2188 -0.2356 -0.1402
38700W        W81638  26.367  28.950   1.057  0.1591 -0.0913  0.1259
38701W        W81639  26.694  31.580   3.081  0.0397  0.0600  0.1120
38702W        W81640  27.571  30.372   1.168 -0.0261 -0.2598 -0.0988
38703W        W81641  27.859  29.975  31.792 -0.0795  0.0159 -0.0290
38704W        W81642  27.727  31.863   2.728 -0.2702  0.0784 -0.0889
38705W        W81643  26.512  31.704   1.510  0.1144  0.1971  0.0189
38706W        W81644  28.264  30.663   0.521 -0.1133  0.3661 -0.1254
38707W        W81645  25.921  30.212  31.597 -0.0541  0.0815  0.1539
38708W        W81646  24.313  29.614   2.805  0.0522 -0.0707  0.0264
38709W        W81647  26.065  32.208   0.860 -0.2376  0.0504 -0.1516
38710W        W81648  26.198  30.342   1.984 -0.0918 -0.1185  0.0235
38711W        W81649  25.988  31.117   0.023  0.0010  0.0623  0.1888
38712W        W81650  28.746  33.915   1.236 -0.2245 -0.1096  0.0864
38713W        W81651  24.703  28.698   0.473 -0.2120 -0.3429 -0.3610
38714W        W81652  26.922  31.317   3.568  0.0270 -0.0908 -0.2190
38715W        W81653  27.232  31.255   1.828 -0.1359 -0.1395 -0.0282
38716W        W81654  26.606  28.555   2.512 -0.0334  0.1572 -0.1663
38717W        W81655  26.113  30.310  30.472  0.3275  0.0036 -0.1887
38718W        W81656  27.706  28.997   1.724 -0.1147 -0.2598 -0.0210
38719W        W81657  26.629  33.782  31.567  0.1163 -0.1989 -0.4815
38720W        W81658  28.151  29.768   2.645 -0.3445  0.1000  0.1107
38721W        W81659  26.631  30.073   1.953 -0.1931 -0.1884 -0.3054
38722W        W81660  26.592  28.709   3.889 -0.2750  0.1385 -0.0694
38723W        W81661  27.991  32.442   3.367  0.0734  0.0137 -0.0717
38724W        W81662  28.257  31.551   1.703 -0.1409  0.1943 -0.0396
38725W        W81663  27.617  31.189   3.060  0.2586  0.0439 -0.4069
38726W        W81664  24.689  31.946   0.149  0.2240 -0.0256 -0.1731
38727W        W81665  27.089  28.812   1.974  0.1736  0.2241  0.1074
38728W        W81666  25.221  30.608   2.022 -0.1023 -0.1375 -0.4664
38729W        W81667  25.051  33.631   2.362 -0.0370 -0.1166 -0.2304
38730W        W81668  26.994  31.560   5.173 -0.0684 -0.0020  0.1493
38731W        W81669  27.603  32.525   0.404  0.1191 -0.2075  0.0930
38732W        W81670  27.364  30.102   3.182 -0.3382 -0.2885 -0.0218
38733W        W81671  26.815  31.002   0.035 -0.1097  0.2037  0.1815
38734W        W81672  26.594  33.889   1.186  0.0237  0.3992 -0.1292
38735W        W81673  25.677  32.009   1.058 -0.2644 -0.0158 -0.1494
38736W        W81674  26.330  29.477   2.779 -0.3078 -0.2963 -0.2074
38737W        W81675  27.059  31.220   2.959 -0.4322 -0.1114  0.0938
38738W        W81676  25.856  32.952   0.253 -0.0769  0.0865 -0.0570
38739W        W81677  27.838  32.648   3.886  0.1266  0.0332  0.1203
38740W        W81678  26.448  33.843  31.041 -0.2790 -0.2249 -0.0915
38741W        W81679  27.287  30.023   1.485 -0.2697 -0.0687 -0.0594
38742W        W81680  23.865  30.859   1.837  0.2626  0.0294 -0.0175
38743W        W81681  25.332  31.265  30.934  0.2176  0.0586 -0.0162
38744W        W81682  25.328  30.994   0.549 -0.2294 -0.0414 -0.0660
38745W        W81683  28.413  30.180   0.589 -0.0826  0.0882 -0.0608
38746W        W81684  28.391  32.015   0.738  0.0442 -0.2986 -0.0499
38747W        W81685  26.155  28.972   2.582 -0.2646 -0.0602  0.0280
38748W        W81686  25.975  29.926   0.438  0.1428 -0.3842 -0.2061
38749W        W81687  26.870  33.297   0.273 -0.1969 -0.1240  0.0246
38750W        W81688  26.261  30.916   2.050  0.1091  0.3887 -0.0211
38751W        W81689  27.420  29.968  31.098  0.0706  0.0947  0.1335
38752W        W81690  27.782  30.422   2.948  0.0230 -0.1234 -0.0052
38753W        W81691  27.795  31.846   3.422 -0.0901 -0.0724 -0.0490
38754W        W81692  25.060  27.720  31.536  0.2171 -0.1333  0.1083
38755W        W81693  28.509  31.260   2.453  0.1374 -0.1486 -0.1702
38756W        W81694  26.515  30.616   1.713 -0.0546  0.1325 -0.0123
38757W        W81695  25.903  32.251   2.012 -0.2225  0.0896 -0.2728
38758W        W81696  26.844  32.866   0.797  0.2075 -0.4588 -0.0726
38759W        W81697  26.320  32.974  31.875  0.0318 -0.0349  0.1915
38760W        W81698  26.121  31.674   1.131 -0.0969  0.1467 -0.4639
38761W        W81699  26.420  30.437   1.117 -0.0213 -0.3643 -0.3899
38762W        W81700  28.019  32.228   2.867  0.0972 -0.2689 -0.1119
38763W        W81701  25.674  30.889   2.406 -0.0325  0.0469 -0.0686
38764W        W81702  25.341  28.800   0.626 -0.3663 -0.1330 -0.2320
38765W        W81703  27.810  30.769   1.313  0.0257  0.0851  0.0083
38766W        W81704  27.041  31.631   2.166 -0.0467  0.1257  0.4391
38767W        W81705  27.311  30.360   2.692 -0.2633  0.1724  0.1761
38768W        W81706  26.309  31.181   3.485 -0.0771 -0.1264  0.1657
38769W        W81707  25.919  31.202   1.052 -0.0020 -0.0382 -0.0762
38770W        W81708  27.940  33.574   1.536  0.1447  0.1126  0.1142
38771W        W81709  26.485  31.452   1.954  0.0035 -0.1871  0.2068
38772W        W81710  27.448  32.113  31.692  0.2511  0.3920  0.2561
38773W        W81711  22.970  30.942   2.646 -0.2834  0.2324  0.2941
38774W        W81712  26.549  33.651   0.057  0.1250 -0.0079  0.1773
38775W        W81713  27.272  29.791   1.974 -0.0346 -0.1478  0.2056
38776W        W81714  25.352  32.963   2.006  0.4476 -0.3959 -0.2049
38777W        W81715  26.673  33.306  31.671 -0.1110 -0.0100  0.2843
38778W        W81716  24.627  32.776   2.247  0.1389 -0.0723 -0.1415
38779W        W81717  28.325  29.220   0.587 -0.0416 -0.1347 -0.2939
38780W        W81718  26.507  32.443   0.902  0.0211 -0.0141 -0.0510
38781W        W81719  27.427  30.387   0.073 -0.0923 -0.3039  0.0528
38782W        W81720  28.273  29.340   3.152 -0.1647  0.1900  0.0144
38783W        W81721  27.443  30.895  29.945  0.2726 -0.2068  0.1642
38784W        W81722  27.875  29.353   2.779 -0.4356  0.3632  0.0338
38785W        W81723  25.248  29.295   2.975  0.0819 -0.0500 -0.0203
38786W        W81724  28.118  32.238   2.368 -0.2656 -0.0095  0.0841
38787W        W81725  26.162  28.325   3.310 -0.2118 -0.0123 -0.2843
38788W        W81726  26.672  33.153   3.107 -0.2547 -0.1967  0.0243
38789W        W81727  26.276  30.715   3.703 -0.1143  0.1788  0.0524
38790W        W81728  27.142  29.506   1.142  0.0529  0.0367 -0.0237
38791W        W81729  26.759  28.018  30.220 -0.1978  0.0061  0.1231
38792W        W81730  27.154  31.652   3.231  0.1242  0.0596  0.3904
38793W        W81731  28.129  31.298   2.175  0.2370  0.4768  0.4090
38794W        W81732  25.878  31.717   0.680  0.1067 -0.4289 -0.1595
38795W        W81733  27.411  30.838   0.978  0.0931  0.2970 -0.0531
38796W        W81734  25.334  31.325   1.745 -0.0408  0.1898  0.2226
38797W        W81735  26.916  30.299   3.100 -0.0420 -0.3755 -0.1676
38798W        W81736  26.969  31.517   0.360  0.2804  0.1348 -0.0968
38799W        W81737  24.570  32.011   2.383 -0.0594 -0.1400 -0.1727
38800W        W81738  25.419  28.970   3.330  0.2320 -0.0379  0.1405
38801W        W81739  26.734  30.675   2.153 -0.3998  0.1117  0.0433
38802W        W81740  27.032  30.276   1.100  0.2296 -0.0783  0.0450
38803W        W81741  27.368  29.093   3.327  0.0430 -0.0658 -0.0679
38804W        W81742  29.368  30.346   2.292 -0.2066 -0.1555 -0.2785
38805W        W81743  26.433  30.705   4.166 -0.0855 -0.4448  0.0051
38806W        W81744  26.695  29.404   3.187  0.1951 -0.0895 -0.0842
38807W        W81745  26.651  32.936   1.733 -0.1478  0.1732 -0.4043
38808W        W81746  27.744  30.996  30.327 -0.1036 -0.3060  0.1663
38809W        W81747  28.805  30.045   3.113  0.0473  0.3115  0.2692
38810W        W81748  27.653  30.883   1.783  0.0584  0.0679 -0.2253
38811W        W81749  26.919  30.430   0.235  0.1195  0.0589 -0.3252
38812W        W81750  24.648  31.071   2.760  0.3359 -0.0636  0.0844
38813W        W81751  28.398  30.235   3.864 -0.1249  0.2259  0.0402
38814W        W81752  25.372  29.713   0.405  0.2612  0.2231 -0.1840
38815W        W81753  28.242  29.361   3.642 -0.1698  0.0876  0.4840
38816W        W81754  26.654  34.469   1.129 -0.2323 -0.3621  0.3211
38817W        W81755  27.435  33.274   1.528  0.2145 -0.1699 -0.0416
38818W        W81756  28.470  31.257   1.297  0.0399  0.0377 -0.4203
38819W        W81757  25.539  31.069   1.287 -0.0871  0.2270  0.1333
38820W        W81758  27.446  31.466   3.624  0.2479  0.1194 -0.1559
38821W        W81759  26.337  29.858  31.920 -0.1458  0.1458 -0.1929
38822W        W81760  26.178  33.847   0.370  0.2655  0.1124  0.0788
38823W        W81761  26.576  31.909   1.036  0.2898 -0.0716 -0.1260
38824W        W81762  27.993  30.773   3.330 -0.1291 -0.3568  0.2077
38825W        W81763  25.920  28.275   0.631  0.1147  0.4652 -0.1301
38826W        W81764  28.084  30.059   3.072 -0.1024  0.2609  0.2251
38827W        W81765  26.033  31.582   0.221 -0.1521  0.1066  0.0932
38828W        W81766  27.335  29.244   2.052  0.2754 -0.5528  0.0070
38829W        W81767  26.167  33.457   1.819  0.1637  0.2846 -0.1726
38830W        W81768  25.349  31.156   3.452  0.1084 -0.3620 -0.1141
38831W        W81769  26.382  32.073   2.495  0.3303  0.1599  0.1785
38832W        W81770  26.608  28.980   2.822 -0.0115 -0.1772 -0.0840
38833W        W81771  27.585  30.426   1.675 -0.1254 -0.1888 -0.0433
38834W        W81772  28.528  30.001   1.801 -0.3679 -0.1901  0.1011
38835W        W81773  28.784  31.003   2.759  0.0626 -0.3581 -0.0535
38836W        W81774  26.582  31.534   3.881  0.4238 -0.1119 -0.1753
38837W        W81775  26.736  31.036   1.800 -0.2599  0.0373 -0.0782
38838W        W81776  26.883  32.789   2.125  0.1097  0.0542  0.0370
38839W        W81777  28.106  32.524   1.875  0.1153 -0.0538  0.1043
38840W        W81778  25.838  30.054   1.773 -0.0207 -0.1205 -0.1716
38841W        W81779  24.758  29.407   3.188 -0.2230 -0.2620 -0.1047
38842W        W81780  27.508  30.688   2.253  0.0324  0.3555  0.1402
38843W        W81781  26.079  31.244   2.372 -0.2557  0.1770  0.1347
38844W        W81782  26.214  29.126   0.592  0.0137 -0.2268 -0.1400
38845W        W81783  28.099  33.557   0.789 -0.3213 -0.2235 -0.1372
38846W        W81784  26.329  31.602   4.335 -0.1268  0.0460 -0.1486
38847W        W81785  25.151  31.082   2.618 -0.2173 -0.3550  0.0250
38848W        W81786  25.401  33.780   2.018  0.0669  0.0785 -0.3252
38849W        W81787  27.940  33.472   0.347  0.0863  0.1135 -0.1340
38850W        W81788  26.793  31.199   1.331  0.1395  0.0589 -0.2536
38851W        W81789  28.202  34.433   3.011 -0.1664 -0.1634  0.0543
38852W        W81790  25.251  31.331  30.343 -0.1218  0.0721  0.0654
38853W        W81791  25.480  33.130   0.969 -0.2760  0.3904  0.0466
38854W        W81792  25.549  33.613   1.041 -0.0214 -0.1800 -0.0608
38855W        W81793  28.038  33.951   1.121 -0.0026  0.1953  0.0524
38856W        W81794  25.184  33.697   0.497 -0.0706 -0.0421  0.1210
38857W        W81795  27.381  33.487   3.268  0.0778  0.2365 -0.0127
38858W        W81796  28.142  29.633   1.071  0.2676 -0.2842  0.1185
38859W        W81797  27.518  31.861   1.843  0.0796  0.0849 -0.1821
38860W        W81798  28.817  30.369   0.266 -0.3833 -0.0814 -0.1427
38861W        W81799  26.999  32.402   3.706  0.2612  0.0188 -0.0980
38862W        W81800  27.095  30.869   0.491  0.2160  0.2389 -0.2131
38863W        W81801  26.697  32.344  31.175 -0.1460 -0.1777  0.0911
38864W        W81802  26.271  30.163   3.447 -0.3415 -0.2413 -0.1458
38865W        W81803  28.687  29.912   4.076 -0.3314 -0.5320 -0.1043
38866W        W81804  24.684  31.268   2.238 -0.3673  0.3885 -0.1495
38867W        W81805  29.134  33.145  30.710 -0.0062  0.1264  0.0041
38868W        W81806  25.812  29.604  31.086 -0.1033  0.3773 -0.0408
38869W        W81807  26.911  29.713   1.599 -0.1946  0.1092  0.1486
38870W        W81808  29.775  31.153   1.876  0.1760 -0.1343 -0.2809
38871W        W81809  27.325  32.212   1.480  0.0463  0.1388  0.1149
38872W        W81810  28.116  30.328   1.884  0.0900  0.1635 -0.0453
38873W        W81811  26.553  32.899   0.364 -0.0754 -0.0403 -0.0944
38874W        W81812  27.913  31.345   2.609 -0.2238  0.1589  0.2942
38875W        W81813  27.104  33.605   0.871 -0.1250  0.0532  0.0697
38876W        W81814  24.863  29.043   1.887  0.0117 -0.2297 -0.1557
38877W        W81815  29.344  31.038   2.049  0.0179  0.0075 -0.2104
38878W        W81816  26.721  30.511   3.676 -0.1536 -0.0780 -0.0356
38879W        W81817  28.179  29.331   2.348 -0.3631 -0.0479 -0.1415
38880W        W81818  25.077  30.892   0.980  0.1576 -0.1538  0.0017
38881W        W81819  27.674  30.834  31.970 -0.0670 -0.2021 -0.0539
38882W        W81820  26.349  32.077   4.192 -0.1377  0.1595 -0.0838
38883W        W81821  25.498  30.127   0.644 -0.0665  0.1724  0.1002
38884W        W81822  25.917  31.217   1.820  0.5844  0.1585 -0.5680
38885W        W81823  28.466  31.647   3.297  0.0840  0.0422 -0.1882
38886W        W81824  27.172  31.916   0.164  0.3199 -0.1364 -0.0540
38887W        W81825  28.004  34.432   2.478 -0.2541 -0.0853 -0.0678
38888W        W81826  26.409  29.387   1.322 -0.1876  0.3178  0.1471
38889W        W81827  26.931  30.102   0.636  0.2168  0.0052 -0.1700
38890W        W81828  25.592  30.777  31.023  0.2697  0.0913 -0.2288
38891W        W81829  26.426  29.965   0.747 -0.0325 -0.0562 -0.1035
38892W        W81830  28.622  33.028   4.404 -0.0717 -0.3080  0.0555
38893W        W81831  26.851  28.554   1.601  0.1781 -0.1148  0.1890
38894W        W81832  29.638  31.489   0.863  0.1137 -0.4417 -0.0177
38895W        W81833  27.408  31.155   1.377 -0.0008 -0.5596 -0.1980
38896W        W81834  27.160  34.476   0.924 -0.1599 -0.2243  0.0714
38897W        W81835  27.023  31.236   0.837  0.1749 -0.0916 -0.0876
38898W        W81836  26.844  32.328   2.336 -0.1422 -0.1307 -0.1981
38899W        W81837  25.731  29.907   2.238  0.0899  0.0895  0.1218
38900W        W81838  26.814  32.123   1.575 -0.0274  0.1824  0.2273
38901W        W81839  29.730  30.909   2.360  0.0995  0.3516  0.2876
38902W        W81840  25.864  30.231   1.215 -0.1291  0.1642  0.2334
38903W        W81841  26.001  30.548   1.590 -0.2398 -0.2497 -0.1165
38904W        W81842  24.611  31.663   1.357 -0.3766  0.2399  0.1291
38905W        W81843  28.276  30.677   1.553 -0.0528  0.1396  0.0269
38906W        W81844  28.649  28.960   3.754  0.0356  0.2466  0.0583
38907W        W81845  25.756  33.995   1.610 -0.3778  0.1319  0.0663
38908W        W81846  27.706  29.690   2.338 -0.2570 -0.0968 -0.1070
38909W        W81847  26.173  32.539   2.391 -0.1956  0.2524 -0.2323
38910W        W81848  26.825  31.564   2.638 -0.3272 -0.1567 -0.0792
38911W        W81849  25.471  31.858   0.197 -0.0100 -0.1482 -0.0455
38912W        W81850  27.211  31.967   3.731  0.3308  0.4475 -0.1305
38913W        W81851  26.359  32.179   1.391  0.2445 -0.0961 -0.0631
38914W        W81852  25.502  32.121   0.650 -0.1312  0.2448 -0.1083
38915W        W81853  26.426  32.409   1.948  0.2354 -0.2137  0.1601
38916W        W81854  26.802  30.770   0.973 -0.1006  0.3554  0.1662
38917W        W81855  31.042  32.299   0.635 -0.1975 -0.3644 -0.1294
38918W        W81856  25.367  29.958   1.167 -0.0928 -0.0021  0.0572
38919W        W81857  29.150  28.730   0.428  0.2373  0.2926  0.0844
38920W        W81858  26.752  29.050  31.752 -0.1322 -0.0797  0.2345
38921W        W81859  24.921  32.037   1.835  0.0509 -0.0342 -0.0006
38922W        W81860  25.296  31.121  31.442  0.0001 -0.0334  0.0681
38923W        W81861  27.279  32.674  31.058  0.3921  0.2332 -0.0582
38924W        W81862  24.097  31.594   1.626  0.0237 -0.0222 -0.3766
38925W        W81863  26.398  28.784   3.327  0.1066 -0.1721  0.0756
38926W        W81864  27.089  31.174   4.327 -0.1363  0.1061 -0.1934
38927W        W81865  25.131  31.405   1.318 -0.2320 -0.2372 -0.3783
38928W        W81866  26.099  31.093   0.482 -0.1436 -0.0472  0.0137
38929W        W81867  27.178  30.774   1.907  0.1207  0.0067  0.2964
38930W        W81868  26.056  30.346   0.778  0.0734 -0.0859 -0.1311
38931W        W81869  25.286  28.358   1.918  0.1347 -0.0224  0.1359
38932W        W81870  26.594  33.693   1.711 -0.2215  0.2940  0.1120
38933W        W81871  28.297  33.077   0.446 -0.0435  0.0681  0.0694
38934W        W81872  25.661  29.672   0.782 -0.1028  0.2597  0.1217
38935W        W81873  29.768  33.282   3.890 -0.0401  0.0316 -0.0093
38936W        W81874  25.694  32.473   0.259 -0.0072  0.1327 -0.0758
38937W        W81875  27.342  30.557   3.574  0.2295 -0.0423  0.1991
38938W        W81876  26.656  30.211   4.127  0.0220  0.0269  0.2420
38939W        W81877  24.865  28.256   0.992  0.3764  0.2055 -0.2139
38940W        W81878  25.857  30.316   2.643  0.4026 -0.0081 -0.0756
38941W        W81879  27.470  33.848   1.708 -0.0574 -0.0919 -0.1900
38942W        W81880  27.234  33.111  31.862  0.3379 -0.0936 -0.0262
38943W        W81881  25.104  31.083   2.109  0.0288 -0.0229  0.2486
38944W        W81882  27.121  32.454   2.756  0.2357  0.0781  0.2603
38945W        W81883  25.257  28.830   3.935 -0.4932  0.2875 -0.1937
38946W        W81884  27.942  31.891   1.573 -0.2664 -0.3094 -0.0983
38947W        W81885  27.070  32.226   3.214  0.2550 -0.1198 -0.2655
38948W        W81886  28.925  32.028   0.724  0.2618  0.2444 -0.2859
38949W        W81887  28.478  30.152   2.774 -0.0350 -0.0853  0.2511
38950W        W81888  26.641  31.101   0.528 -0.2034  0.0479  0.0208
38951W        W81889  25.356  29.809   2.753 -0.1415 -0.0345 -0.0905
38952W        W81890  24.692  31.151   4.166 -0.1735 -0.1647  0.1350
38953W        W81891  28.341  32.127   3.351 -0.0516 -0.1602 -0.2085
38954W        W81892  26.284  31.031   1.462  0.2402 -0.2283  0.2157
38955W        W81893  26.364  30.211   0.316 -0.2368  0.0902  0.0818
38956W        W81894  26.552  32.141   0.551 -0.3243 -0.0275 -0.1338
38957W        W81895  25.183  30.327   3.099 -0.2136 -0.1021  0.1677
38958W        W81896  27.567  31.714   1.365 -0.1974  0.3256 -0.1579
38959W        W81897  26.982  30.064   3.518  0.0038 -0.0232 -0.1882
38960W        W81898  27.091  31.686   1.696 -0.4375  0.2156 -0.0855
38961W        W81899  28.757  32.297   3.578  0.1593  0.1514  0.3624
38962W        W81900  24.831  31.072   0.451  0.0601 -0.0428  0.1583
38963W        W81901  29.320  32.305   1.749 -0.1481 -0.2126 -0.1123
38964W        W81902  26.180  33.670   1.377 -0.1014  0.1154  0.1588
38965W        W81903  28.617  34.306   2.786 -0.0976  0.0138  0.1826
38966W        W81904  28.471  32.612   3.298 -0.2162 -0.1664 -0.0067
38967W        W81905  27.876  30.822   2.707  0.1050  0.0802  0.1011
38968W        W81906  26.173  29.160   3.088  0.1515 -0.0403  0.3356
38969W        W81907  24.309  31.169   1.654 -0.1688  0.1148 -0.0500
38970W        W81908  25.859  32.064   1.539 -0.0588  0.2565 -0.1162
38971W        W81909  27.100  30.243   2.096  0.1068  0.3241  0.0978
38972W        W81910  25.942  29.566   1.916  0.1111  0.1461 -0.3857
38973W        W81911  25.816  29.490   0.337 -0.0134  0.0432 -0.2192
38974W        W81912  27.582  32.168   3.118  0.1676  0.2135 -0.1513
38975W        W81913  24.405  32.686   1.790  0.0960  0.4578  0.1713
38976W        W81914  25.978  31.351   5.280 -0.2206 -0.0928 -0.2240
38977W        W81915  25.863  29.807   5.281 -0.0125 -0.0347  0.0061
38978W        W81916  26.691  29.276   3.790  0.0208  0.0384 -0.2798
38979W        W81917  29.617  32.285   3.804 -0.0249 -0.0783  0.0484
38980W        W81918  25.335  29.592   4.392 -0.1159 -0.1474 -0.0090
38981W        W81919  28.282  32.841   5.065  0.2190  0.0114 -0.1005
38982W        W81920  25.055  29.123   5.494  0.2205 -0.3290 -0.0247
38983W        W81921  28.406  30.583   6.661  0.1608 -0.0181  0.1458
38984W        W81922  29.764  32.565   6.053  0.0178  0.3040 -0.0096
38985W        W81923  28.103  31.435   4.375  0.1418  0.1283 -0.0631
38986W        W81924  26.297  29.877   6.650  0.1451 -0.0582 -0.1913
38987W        W81925  26.346  32.313   6.232  0.1673  0.1774 -0.1235
38988W        W81926  25.623  29.266   3.900  0.0038 -0.1567 -0.2078
38989W        W81927  26.243  27.971   6.507 -0.1738 -0.0742 -0.0831
38990W        W81928  28.784  30.300   6.280 -0.0422 -0.0388 -0.0692
38991W        W81929  26.807  31.973   4.089  0.0789  0.1882 -0.2425
38992W        W81930  25.640  30.749   6.357  0.3400  0.0990 -0.1482
38993W        W81931  26.888  28.961   3.325 -0.1981 -0.0539  0.3158
38994W        W81932  25.314  32.689   3.196 -0.4179  0.0706 -0.1192
38995W        W81933  27.071  30.244   6.538  0.0295  0.2321 -0.0237
38996W        W81934  26.742  29.881   6.367  0.2893 -0.4168  0.1572
38997W        W81935  25.821  30.829   4.907  0.3110  0.1372  0.1046
38998W        W81936  25.225  29.950   1.910  0.2643 -0.0331 -0.1378
38999W        W81937  24.335  31.338   5.228 -0.0804 -0.1431 -0.3140
39000W        W81938  25.952  30.317   6.276 -0.2599 -0.0832 -0.0421
39001W        W81939  28.197  30.979   5.458 -0.2332 -0.1744 -0.3157
39002W        W81940  28.509  31.232   4.580  0.4030 -0.1082  0.2553
39003W        W81941  25.854  31.722   4.455  0.0993  0.1240 -0.4670
39004W        W81942  26.755  31.768   5.672 -0.0725 -0.0097 -0.1698
39005W        W81943  27.774  30.532   7.155  0.2394  0.2278 -0.1193
39006W        W81944  26.399  32.600   4.299  0.1116 -0.0765 -0.2666
39007W        W81945  26.049  32.395   3.369 -0.1457  0.1716 -0.1573
39008W        W81946  27.083  32.822   4.537  0.3958  0.2649 -0.1917
39009W        W81947  30.253  32.603   5.160  0.0887 -0.2400  0.1567
39010W        W81948  28.521  31.628   7.662  0.1640 -0.1345 -0.1087
39011W        W81949  27.088  32.377   7.469  0.1305  0.0668 -0.0992
39012W        W81950  24.997  31.357   4.525 -0.0705  0.0366 -0.1054
39013W        W81951  26.494  32.893   7.003 -0.3056 -0.1742 -0.0030
39014W        W81952  26.739  31.616   6.953  0.0363 -0.0904  0.1522
39015W        W81953  27.498  30.880   5.782  0.0323 -0.2217  0.0179
39016W        W81954  27.044  32.050   5.302  0.1034  0.2558 -0.0242
39017W        W81955  27.056  31.551   3.995 -0.2059  0.2859 -0.0317
39018W        W81956  27.046  30.966   6.035  0.1394  0.2943 -0.1077
39019W        W81957  25.818  30.792   8.100  0.0119 -0.1111  0.0545
39020W        W81958  24.353  32.346   5.116 -0.0921  0.1195  0.0769
39021W        W81959  28.547  30.872   7.061  0.1640  0.0689  0.0071
39022W        W81960  26.143  32.765   3.714 -0.0296  0.0743  0.2117
39023W        W81961  28.259  30.727   3.755  0.0405 -0.0382 -0.1993
39024W        W81962  26.954  30.861   3.341 -0.0123  0.0403 -0.2586
39025W        W81963  27.965  28.325   3.814  0.0350 -0.1434 -0.3352
39026W        W81964  26.514  29.653   4.084 -0.0051 -0.0970 -0.1722
39027W        W81965  25.452  32.638   4.474  0.3074  0.2065  0.3812
39028W        W81966  26.041  29.379   6.066 -0.0153  0.2512 -0.2966
39029W        W81967  29.154  30.769   6.951 -0.0289 -0.1915  0.2737
39030W        W81968  27.787  30.311   3.951 -0.2280 -0.2948  0.3955
39031W        W81969  28.653  29.609   6.031 -0.2831  0.2019  0.2681
39032W        W81970  26.295  31.817   6.666 -0.0698 -0.2185  0.3592
39033W        W81971  25.490  30.262   5.991 -0.2705  0.2999 -0.3088
39034W        W81972  29.549  32.697   4.192 -0.1879  0.0255  0.0976
39035W        W81973  30.087  32.637   3.805 -0.2503 -0.0115  0.1989
39036W        W81974  27.369  32.248   6.080  0.1308 -0.0018 -0.2640
39037W        W81975  25.321  30.722   5.883 -0.0829  0.0807 -0.0892
39038W        W81976  24.768  31.328   6.281  0.0538 -0.3235  0.2419
39039W        W81977  25.358  30.697   7.339 -0.2758 -0.0913 -0.5061
39040W        W81978  26.045  29.280   5.032  0.4454  0.2496  0.4152
39041W        W81979  29.743  31.402   7.017  0.0331 -0.2958  0.0029
39042W        W81980  24.143  30.974   6.843  0.0871 -0.2421  0.0633
39043W        W81981  28.490  30.777   3.332  0.0262  0.0131  0.0222
39044W        W81982  27.455  30.885   6.291  0.2741  0.1325 -0.1743
39045W        W81983  28.843  32.935   6.114 -0.0480  0.1588 -0.0773
39046W        W81984  27.919  32.171   3.812  0.2021  0.2615  0.1048
39047W        W81985  28.971  29.665   5.271  0.2999 -0.0347  0.1529
39048W        W81986  28.065  30.578   5.072 -0.2153 -0.1457 -0.3954
39049W        W81987  25.850  31.018   3.290 -0.0918  0.0943  0.1165
39050W        W81988  27.050  32.425   4.965 -0.1822  0.1880  0.1549
39051W        W81989  29.458  31.693   7.435 -0.0756 -0.0098  0.0070
39052W        W81990  28.991  29.478   2.518 -0.0304 -0.0651 -0.1113
39053W        W81991  24.331  32.019   6.516  0.1339 -0.3729 -0.0787
39054W        W81992  27.189  29.969   6.097 -0.0694  0.0204 -0.1122
39055W        W81993  28.287  31.602   5.809 -0.4330 -0.2298 -0.2388
39056W        W81994  25.861  32.832   2.069  0.0304  0.2226 -0.0495
39057W        W81995  24.850  32.331   5.083 -0.1660  0.3157 -0.1909
39058W        W81996  25.899  32.168   2.556 -0.0122  0.2478 -0.0252
39059W        W81997  25.022  28.667   6.913  0.0622 -0.2858  0.1999
39060W        W81998  25.067  31.127   5.689 -0.1119 -0.0181 -0.1790
39061W        W81999  29.093  29.590   3.978  0.1521  0.0172 -0.1067
39062W        W82000  25.875  29.830   6.354 -0.1680  0.1481 -0.0043
39063W        W82001  29.181  29.071   5.312  0.1237 -0.2116 -0.1960
39064W        W82002  25.438  31.005   5.309  0.0240 -0.0379  0.1982
39065W        W82003  29.996  32.293   3.423  0.0950 -0.2908  0.0014
39066W        W82004  27.975  29.879   3.597 -0.0749 -0.1563 -0.0764
39067W        W82005  28.262  32.458   4.248  0.2581  0.0064 -0.1902
39068W        W82006  25.922  30.171   6.790  0.2166 -0.0530 -0.2556
39069W        W82007  26.504  30.485   5.357  0.2592 -0.0419 -0.1167
39070W        W82008  25.130  29.109   6.198  0.0783  0.2459 -0.0990
39071W        W82009  25.039  29.314   5.000  0.0740  0.0280 -0.1837
39072W        W82010  29.228  30.406   6.487 -0.1490  0.1164 -0.2261
39073W        W82011  24.361  29.044   4.169  0.2640  0.1365  0.0127
39074W        W82012  27.747  30.205   5.006  0.0922  0.0309 -0.0343
39075W        W82013  26.296  30.976   5.042 -0.1925 -0.3904  0.1218
39076W        W82014  25.406  30.075   4.530  0.1638 -0.0837 -0.1372
39077W        W82015  28.381  28.344   7.028  0.0802 -0.1923 -0.1083
39078W        W82016  27.546  31.411   5.480 -0.2686  0.1526 -0.2254
39079W        W82017  28.340  33.819   7.086  0.3021 -0.2754 -0.0239
39080W        W82018  27.707  33.752   3.982 -0.0201 -0.0795  0.2167
39081W        W82019  25.136  30.195   7.933  0.0164 -0.0202 -0.0283
39082W        W82020  26.217  29.983   4.921 -0.0221  0.0779  0.0806
39083W        W82021  25.259  32.251   4.257 -0.1694 -0.1002 -0.3227
39084W        W82022  26.111  32.106   4.733 -0.0161  0.0850  0.2931
39085W        W82023  26.617  31.182   4.274  0.3070  0.1228 -0.3621
39086W        W82024  29.465  32.627   5.169 -0.0285  0.0174 -0.0004
39087W        W82025  26.636  31.318   4.791 -0.0243 -0.0180 -0.2876
39088W        W82026  25.715  31.574   5.885  0.2438  0.3680 -0.0131
39089W        W82027  28.076  30.085   5.418 -0.1041 -0.0140  0.1983
39090W        W82028  29.248  30.296   5.995 -0.0505 -0.1675 -0.1568
39091W        W82029  28.322  30.487   5.487  0.0801  0.0579 -0.1027
39092W        W82030  25.831  29.849   3.544 -0.3156  0.3435 -0.1863
39093W        W82031  27.018  31.920   4.800  0.0121  0.1418 -0.3247
39094W        W82032  24.167  32.778   2.645  0.0022 -0.3247 -0.0823
39095W        W82033  24.940  29.635   5.438 -0.2199  0.1285 -0.1655
39096W        W82034  26.500  31.861   6.119 -0.2132 -0.1133  0.1001
39097W        W82035  28.185  29.698   6.032 -0.1044  0.2255 -0.1755
39098W        W82036  24.694  29.993   7.998  0.5285 -0.1269  0.0165
39099W        W82037  26.335  30.030   6.036  0.0917  0.0756 -0.0388
39100W        W82038  26.174  31.105   4.573 -0.1437 -0.0243  0.1811
39101W        W82039  24.931  31.789   7.385  0.0929 -0.0639  0.0993
39102W        W82040  27.326  29.045   4.637 -0.2823 -0.0187  0.0244
39103W        W82041  27.618  29.764   5.215 -0.0153 -0.6789 -0.0343
39104W        W82042  27.958  30.731   6.739  0.3104 -0.1215 -0.0709
39105W        W82043  28.434  32.166   4.992  0.0502  0.3008  0.3420
39106W        W82044  27.159  30.952   3.839  0.1751 -0.1618 -0.0523
39107W        W82045  27.086  28.647   2.440 -0.0497 -0.0214  0.0446
39108W        W82046  25.122  30.202   7.422  0.1976 -0.1864 -0.1307
39109W        W82047  28.537  30.634   5.060  0.3005 -0.1611 -0.1724
39110W        W82048  26.138  31.548   4.828  0.4564  0.1773 -0.1186
39111W        W82049  26.806  29.932   4.859  0.1167 -0.1950 -0.0386
39112W        W82050  29.665  32.388   4.691 -0.2485 -0.1217  0.0550
39113W        W82051  25.006  31.860   6.125 -0.1015  0.1133 -0.2401
39114W        W82052  28.170  31.663   6.800  0.2779 -0.0854 -0.1270
39115W        W82053  28.461  31.587   4.986 -0.0419  0.0841 -0.0651
39116W        W82054  26.291  29.513   5.575  0.0074 -0.1909 -0.2486
39117W        W82055  25.800  29.812   4.327 -0.0635  0.0228 -0.2390
39118W        W82056  27.288  30.437   4.606  0.3321  0.0774  0.0699
39119W        W82057  26.333  32.809   3.187 -0.1564  0.1526 -0.3215
39120W        W82058  28.156  29.759   6.764 -0.1013 -0.2590 -0.0463
39121W        W82059  26.543  29.924   5.337  0.6275 -0.3453  0.1400
39122W        W82060  25.524  30.520   6.822 -0.0422 -0.1191  0.0809
39123W        W82061  28.751  30.443   7.364  0.1651  0.0350  0.0514
39124W        W82062  27.563  31.106   4.769 -0.3120  0.4593 -0.0637
39125W        W82063  28.889  32.291   5.810  0.0715 -0.1253  0.2972
39126W        W82064  25.295  30.245   2.462  0.2233 -0.3971 -0.1830
39127W        W82065  26.847  30.320   6.064  0.1337 -0.0510  0.2922
39128W        W82066  26.091  30.837   6.740  0.0767 -0.2734 -0.0228
39129W        W82067  24.831  31.392   5.400 -0.0352  0.0351  0.2674
39130W        W82068  27.794  31.379   7.003 -0.0817  0.3022  0.0332
39131W        W82069  27.283  31.829   5.735  0.0914  0.0975  0.0688
39132W        W82070  25.684  31.004   7.136  0.0302 -0.1167 -0.1432
39133W        W82071  27.073  29.443   3.516 -0.3458  0.2292 -0.0568
39134W        W82072  26.073  32.570   2.867 -0.2124 -0.0769  0.0424
39135W        W82073  25.636  31.480   3.209  0.0516  0.0032 -0.4549
39136W        W82074  25.780  29.149   6.885 -0.2097  0.0604  0.1775
39137W        W82075  26.736  32.099   7.662  0.1142  0.1911  0.0392
39138W        W82076  26.161  30.653   2.452  0.1795  0.1646 -0.5115
39139W        W82077  28.268  30.071   6.341 -0.1341  0.2558  0.1153
39140W        W82078  26.306  31.908   3.664 -0.0297 -0.0631 -0.2136
39141W        W82079  27.767  29.911   6.304  0.0957 -0.2309 -0.0521
39142W        W82080  24.753  31.767   3.570 -0.0004 -0.2800  0.0927
39143W        W82081  26.870  29.493   2.687  0.2559 -0.3093  0.0278
39144W        W82082  24.546  30.227   4.000 -0.1830 -0.2942  0.0889
39145W        W82083  26.964  29.367   4.322  0.1082 -0.2871  0.0993
39146W        W82084  30.408  32.984   3.881  0.0174 -0.1618 -0.1984
39147W        W82085  25.829  30.694   5.861 -0.0942  0.2019 -0.0798
39148W        W82086  26.479  29.531   6.175  0.3081 -0.0850 -0.0788
39149W        W82087  25.007  31.450   3.140  0.1512  0.1578 -0.0714
39150W        W82088  27.938  31.025   5.956 -0.0479 -0.0421  0.0251
39151W        W82089  27.597  29.496   3.520  0.3593  0.0942  0.1774
39152W        W82090  28.275  32.612   6.332  0.0709 -0.0659  0.1901
39153W        W82091  27.145  31.232   7.772  0.0277 -0.2561  0.2072
39154W        W82092  25.684  27.827   4.452 -0.2395  0.0106  0.2780
39155W        W82093  27.033  30.731   5.574 -0.0536 -0.0028 -0.0515
39156W        W82094  25.971  30.341   5.189  0.0383  0.1389  0.0951
39157W        W82095  25.614  32.495   4.929  0.2057  0.0286 -0.1080
39158W        W82096  26.966  32.533   6.950  0.0581  0.0978  0.0666
39159W        W82097  26.111  30.059   3.911  0.0728 -0.2625  0.0795
39160W        W82098  25.748  31.403   3.663 -0.3007 -0.1900 -0.0403
39161W        W82099  26.378  30.246   6.995  0.1688  0.3775  0.2233
39162W        W82100  27.489  30.298   6.326  0.1166  0.0999 -0.1542
39163W        W82101  26.295  30.538   5.950 -0.2271 -0.4698  0.0140
39164W        W82102  27.234  31.460   4.775 -0.2151 -0.0560 -0.0076
39165W        W82103  27.492  31.354   6.003  0.0383 -0.2593  0.2493
39166W        W82104  28.873  31.230   7.633  0.0941 -0.2234  0.3386
39167W        W82105  28.065  31.889   5.314 -0.1743 -0.3150 -0.1553
39168W        W82106  25.776  31.491   7.332 -0.1214 -0.1722 -0.2230
39169W        W82107  26.461  27.716   4.380 -0.1445 -0.0916 -0.2538
39170W        W82108  28.393  33.475   4.481 -0.1573 -0.2314  0.0185
39171W        W82109  28.455  29.392   6.409  0.0116  0.0214  0.0207
39172W        W82110  25.351  31.680   3.620 -0.3563 -0.1283 -0.1047
39173W        W82111  24.033  30.340   6.206 -0.3586  0.1462 -0.2236
39174W        W82112  26.551  31.834   4.850  0.0494  0.1926  0.3387
39175W        W82113  27.374  29.681   6.471 -0.2232  0.0937  0.0862
39176W        W82114  26.371  31.861   5.288  0.0741  0.1078 -0.2369
39177W        W82115  26.673  31.004   3.835 -0.1658  0.3478  0.1091
39178W        W82116  25.091  32.628   6.461  0.0998 -0.1399 -0.0382
39179W        W82117  28.577  28.836   4.567  0.0106  0.2438 -0.1293
39180W        W82118  29.171  31.324   3.880 -0.0791  0.2683 -0.1954
39181W        W82119  25.392  28.775   6.575  0.1314  0.4671 -0.2038
39182W        W82120  28.443  28.470   6.336  0.0675 -0.3587 -0.2249
39183W        W82121  28.216  31.815   3.701 -0.2683  0.1336  0.0453
39184W        W82122  27.680  29.536   6.913  0.0821  0.1977 -0.0284
39185W        W82123  25.530  28.831   5.619  0.0646  0.1787  0.1991
39186W        W82124  28.248  30.969   6.340 -0.2681  0.2606 -0.1861
39187W        W82125  24.583  31.387   7.286  0.0872 -0.1630 -0.0812
39188W        W82126  28.190  32.083   8.337 -0.2856 -0.0696  0.1373
39189W        W82127  25.463  31.413   6.934 -0.1369 -0.1183  0.1683
39190W        W82128  27.052  29.985   4.425 -0.3113 -0.1369 -0.1508
39191W        W82129  25.840  29.205   3.422  0.0899  0.0486 -0.1986
39192W        W82130  25.391  31.544   5.444  0.2954  0.2503 -0.5155
39193W        W82131  28.498  31.952   6.254  0.1011 -0.1477 -0.2024
39194W        W82132  25.867  31.895   3.481 -0.3863  0.0057 -0.1447
39195W        W82133  28.637  31.377   5.476  0.0372  0.0353 -0.0701
39196W        W82134  26.006  31.127   5.821 -0.3405  0.0463 -0.1249
39197W        W82135  28.512  31.092   5.074  0.2539 -0.3617  0.0612
39198W        W82136  27.740  30.289   3.431 -0.1713 -0.3836 -0.0710
39199W        W82137  25.283  31.543   4.957  0.1377  0.0190 -0.1306
39200W        W82138  27.103  29.538   6.066  0.1825  0.4964 -0.0178
39201W        W82139  27.263  31.827   4.381  0.2506 -0.2014  0.1662
39202W        W82140  28.001  30.034   4.563  0.0340  0.0188 -0.4913
39203W        W82141  27.336  29.766   7.322 -0.1369 -0.3526  0.0183
39204W        W82142  28.539  31.060   5.877  0.2092 -0.1099 -0.2787
39205W        W82143  26.381  30.458   6.516  0.0048  0.1217 -0.1000
39206W        W82144  25.451  30.176   6.478 -0.1179 -0.2746 -0.1185
39207W        W82145  28.680  32.885   6.659 -0.0436  0.1065 -0.0987
39208W        W82146  26.987  29.734   3.934  0.0437  0.0864  0.1643
39209W        W82147  28.359  31.169   7.421 -0.0299  0.3837  0.1158
39210W        W82148  26.913  30.680   4.264 -0.0829 -0.0989  0.1543
39211W        W82149  26.801  31.655   4.442 -0.5456  0.3380  0.0052
39212W        W82150  25.794  29.660   5.754  0.5478 -0.2320 -0.1020
39213W        W82151  27.223  30.779   7.106  0.0342 -0.0909 -0.0114
39214W        W82152  27.139  30.314   3.967 -0.0941 -0.0617 -0.0549
39215W        W82153  27.438  29.973   6.835 -0.4604 -0.0192  0.1586
39216W        W82154  27.396  32.343   4.062  0.1914 -0.0004  0.0297
39217W        W82155  28.799  31.682   5.894  0.1485  0.1487 -0.0648
39218W        W82156  26.320  30.464   4.858  0.2077  0.0880 -0.2141
39219W        W82157  24.151  29.061   6.726 -0.2119 -0.1993  0.1074
39220W        W82158  24.859  31.396   7.686  0.3357 -0.2065  0.1923
39221W        W82159  26.774  30.407   4.639  0.2400  0.2708  0.0330
39222W        W82160  27.490  31.304   4.089  0.2033  0.2385  0.1139
39223W        W82161  27.835  31.727   5.731  0.0381  0.1032 -0.0448
39224W        W82162  29.127  30.791   7.443  0.3399 -0.1029 -0.2462
39225W        W82163  27.908  29.131   3.326  0.1605 -0.0456 -0.0359
39226W        W82164  28.852  30.133   6.943 -0.0558  0.1173 -0.1777
39227W        W82165  26.624  33.089   4.437  0.3209  0.1485  0.2599
39228W        W82166  27.533  28.918   6.117 -0.0398 -0.1890  0.1809
39229W        W82167  25.472  32.130   5.287  0.1710  0.2237 -0.1703
39230W        W82168  25.140  31.015   6.329 -0.0074  0.0469 -0.1059
39231W        W82169  27.358  33.175   4.372  0.0025  0.0733 -0.4561
39232W        W82170  27.258  28.742   6.489  0.0047  0.1966 -0.1111
39233W        W82171  26.476  31.205   6.617 -0.0230 -0.2114 -0.0662
39234W        W82172  27.052  30.747   6.464  0.0006 -0.2380  0.2068
39235W        W82173  28.376  30.152   7.065 -0.1449  0.0488 -0.0211
39236W        W82174  28.545  31.429   7.037  0.1160 -0.1866 -0.0129
39237W        W82175  26.904  30.164   5.556  0.1500 -0.1209 -0.3076
39238W        W82176  28.789  33.641   5.567  0.1509  0.0473  0.0346
39239W        W82177  29.098  31.213   5.531 -0.0922 -0.0637  0.1812
39240W        W82178  26.126  31.183   3.979  0.0224  0.0086  0.0568
39241W        W82179  25.452  29.777   6.123 -0.1218  0.0045  0.0710
39242W        W82180  27.541  31.006   6.773  0.3696  0.2055 -0.0398
39243W        W82181  27.916  30.579   6.298  0.3653  0.0379  0.1419
39244W        W82182  26.057  30.402   4.263 -0.1716 -0.1236  0.0480
39245W        W82183  26.783  30.963   5.195 -0.0043 -0.0843 -0.4301
39246W        W82184  25.750  31.853   8.114 -0.1211 -0.0442 -0.0321
39247W        W82185  25.083  30.497   6.296 -0.1094 -0.1030 -0.0695
39248W        W82186  25.845  33.290   4.192 -0.0876  0.3068 -0.2598
39249W        W82187  28.587  32.560   4.666 -0.0119  0.2138 -0.0392
39250W        W82188  28.934  31.435   5.005 -0.0956 -0.2676 -0.0043
39251W        W82189  29.413  32.180   4.279 -0.2184 -0.1258 -0.0227
39252W        W82190  27.088  30.949   4.763  0.1146  0.3010  0.3538
39253W        W82191  25.732  31.760   5.001 -0.0709 -0.2769  0.3272
39254W        W82192  24.556  31.346   3.317  0.0774  0.2392 -0.5557
39255W        W82193  27.617  32.159   5.551 -0.1569 -0.0338 -0.2609
39256W        W82194  26.005  31.714   3.976  0.0677 -0.6000  0.1123
39257W        W82195  28.622  32.261   7.286 -0.2165 -0.3487 -0.1146
39258W        W82196  28.690  29.514   3.365 -0.1248 -0.0012  0.0672
39259W        W82197  29.209  32.291   4.812 -0.2757  0.3326 -0.3255
39260W        W82198  28.545  30.129   4.482  0.0423  0.2178 -0.1513
39261W        W82199  29.539  32.584   8.381 -0.0743  0.1304 -0.1858
39262W        W82200  27.402  30.372   5.864 -0.0810  0.3280 -0.0779
39263W        W82201  26.211  28.735   4.246 -0.1042  0.2104 -0.1653
39264W        W82202  26.808  30.774   7.399  0.1370 -0.0797 -0.1578
39265W        W82203  28.620  28.843   7.106  0.2559 -0.0342  0.1457
39266W        W82204  24.998  32.652   7.688 -0.4060  0.1186 -0.0543
39267W        W82205  28.089  31.422   5.388 -0.0411 -0.2617  0.0340
39268W        W82206  25.373  29.925   5.615  0.5111 -0.0223  0.0680
39269W        W82207  27.358  30.205   5.404 -0.2860 -0.1324 -0.1310
39270W        W82208  29.203  28.841   5.827 -0.1161  0.1249 -0.1846
39271W        W82209  27.608  31.645   5.034  0.1311 -0.0183 -0.0710
39272W        W82210  26.627  30.863   6.287  0.3135 -0.0373  0.0649
39273W        W82211  25.059  32.099   3.827  0.3116 -0.3277 -0.1077
39274W        W82212  24.978  30.155   5.335  0.1491  0.0535  0.0240
39275W        W82213  27.067  31.513   6.045  0.2087  0.0716 -0.2445
39276W        W82214  25.535  30.635   3.293 -0.0352  0.1854  0.2131
39277W        W82215  27.763  30.984   5.297 -0.1939  0.2843 -0.0773
39278W        W82216  25.918  32.106   7.036  0.1946 -0.1906  0.3645
39279W        W82217  27.756  28.783   6.572  0.0420 -0.0499 -0.1109
39280W        W82218  25.485  30.404   5.457  0.1158 -0.0392 -0.0439
39281W        W82219  28.459  30.097   5.794 -0.1222  0.0825  0.0615
39282W        W82220  28.023  31.660   6.246 -0.2699 -0.0724  0.0219
39283W        W82221  25.577  29.596   6.740  0.3786 -0.1197  0.2555
39284W        W82222  28.070  31.370   3.420 -0.2400  0.0560  0.1286
39285W        W82223  28.015  30.273   5.925 -0.0385 -0.0826  0.0506
39286W        W82224  29.134  29.697   3.181 -0.1623  0.2304 -0.1661
39287W        W82225  28.035  32.223   6.467  0.1877  0.3597  0.3242
39288W        W82226  26.105  29.536   4.593 -0.0859 -0.0889 -0.0446
39289W        W82227  27.003  30.467   5.096 -0.1530  0.2032  0.2050
39290W        W82228  25.310  30.959   4.755 -0.2122  0.0253 -0.0068
39291W        W82229  27.251  31.414   6.510 -0.2672  0.1064 -0.0997
39292W        W82230  29.677  30.669   7.210  0.1822  0.2521  0.1946
39293W        W82231  25.697  29.691   4.828 -0.1121 -0.0418 -0.2171
39294W        W82232  29.992  32.874   4.259 -0.0958 -0.0498  0.2183
39295W        W82233  28.707  30.181   5.290 -0.1364  0.3032 -0.0471
39296W        W82234  26.663  32.799   3.601  0.1423  0.2260 -0.2883
39297W        W82235  28.066  31.961   4.235 -0.3697 -0.0920  0.1353
39298W        W82236  28.924  32.707   5.079  0.0546 -0.1225 -0.1630
39299W        W82237  24.604  28.913   6.400 -0.1147  0.1276 -0.1810
39300W        W82238  27.571  31.781   6.202 -0.1621  0.2013 -0.5146
39301W        W82239  29.495  32.170   5.789  0.1058 -0.0484 -0.2215
39302W        W82240  27.191  29.601   4.686 -0.0416  0.1243 -0.1055
39303W        W82241  25.572  31.112   6.063 -0.1391 -0.0258 -0.3266
39304W        W82242  25.618  31.338   4.163 -0.3122  0.0360  0.0011
39305W        W82243  29.091  29.898   5.716 -0.1021  0.0613 -0.0684
39306W        W82244  26.947  31.158   6.775 -0.2318  0.1742 -0.1187
39307W        W82245  27.179  32.341   4.500  0.2145 -0.0425  0.1994
39308W        W82246  27.343  30.282   7.260 -0.0052 -0.0011  0.1980
39309W        W82247  27.010  32.475   6.365  0.0450  0.3508 -0.0407
39310W        W82248  26.680  31.106   7.939 -0.0848 -0.0751  0.0283
39311W        W82249  25.590  30.224   4.081 -0.0858  0.0922  0.0769
39312W        W82250  27.316  31.524   6.985  0.0351 -0.3617  0.0071
39313W        W82251  26.220  31.577   5.784 -0.1739  0.1140 -0.0892
39314W        W82252  25.846  33.508   3.276  0.0509  0.0173 -0.1846
39315W        W82253  29.279  31.454   5.938 -0.1650  0.0743  0.0688
39316W        W82254  26.735  29.761   5.782  0.2983  0.2286 -0.0382
39317W        W82255  29.312  30.955   6.378 -0.3882 -0.0864 -0.0104
39318W        W82256  25.825  28.323   6.495  0.0033 -0.1591  0.1222
39319W        W82257  27.298  30.040   4.880 -0.1177  0.1157  0.2270
39320W        W82258  27.519  30.661   5.046  0.2742  0.0654  0.3094
39321W        W82259  26.598  31.554   7.711  0.0399  0.1874 -0.2437
39322W        W82260  24.890  30.825   4.549 -0.2756  0.2550  0.1070
39323W        W82261  25.851  31.692   2.812 -0.1033 -0.0766 -0.0981
39324W        W82262  25.756  31.207   6.548  0.0010 -0.1296  0.1023
39325W        W82263  25.517  28.376   6.921 -0.2502 -0.0459  0.1371
39326W        W82264  26.899  30.312   7.054 -0.2066 -0.0542 -0.0447
39327W        W82265  26.620  30.834   4.689 -0.0627  0.1013  0.1413
39328W        W82266  24.978  27.998   3.842  0.1150 -0.1480 -0.2826
39329W        W82267  28.527  32.106   3.968  0.0668  0.2253 -0.1109
39330W        W82268  25.433  29.505   5.267  0.1708  0.2494 -0.4720
39331W        W82269  24.919  29.874   4.017 -0.1387  0.0558 -0.2038
39332W        W82270  27.977  31.948   4.780  0.1236 -0.3926  0.2823
39333W        W82271  28.067  32.420   4.665 -0.2037  0.0483  0.0624
39334W        W82272  28.021  31.365   4.876 -0.0794  0.1602  0.2964
39335W        W82273  29.681  33.277   7.535  0.0433  0.0885  0.1131
39336W        W82274  25.589  30.864   3.804  0.1836  0.3245  0.0197
39337W        W82275  27.471  30.507   6.758 -0.0805  0.2273  0.0755
39338W        W82276  26.555  29.818   7.674 -0.2019 -0.0837 -0.5122
39339W        W82277  25.367  29.473   3.528 -0.0637 -0.0043 -0.0568
39340W        W82278  26.102  30.922   6.265 -0.1698  0.2118  0.2506
39341W        W82279  26.630  32.261   5.561 -0.2643 -0.0235 -0.0561
39342W        W82280  29.342  33.428   4.067  0.0145  0.1875  0.0818
39343W        W82281  27.796  31.316   6.476  0.1089  0.2256 -0.4390
39344W        W82282  27.902  31.805   7.253  0.0416 -0.2796 -0.1058
39345W        W82283  25.094  28.673   5.746  0.0129  0.1568  0.0998
39346W        W82284  28.894  31.009   4.189 -0.0903  0.2986 -0.0447
39347W        W82285  27.532  31.557   7.520 -0.3573  0.2868 -0.1422
39348W        W82286  28.998  31.864   4.298 -0.1750  0.5016  0.1723
39349W        W82287  27.930  29.533   5.593  0.3715  0.0436 -0.1893
39350W        W82288  28.208  30.530   4.273 -0.5719  0.2246  0.0565
39351W        W82289  26.076  29.397   6.539  0.3692  0.1128  0.1134
39352W        W82290  25.239  30.627   8.206  0.1968 -0.2546  0.1970
39353W        W82291  28.356  32.148   5.842  0.3610  0.0347 -0.0858
39354W        W82292  26.156  28.255   5.055 -0.4479  0.0959  0.0503
39355W        W82293  27.251  31.102   5.207  0.1051 -0.2037  0.1606
39356W        W82294  28.700  32.611   4.022  0.1676  0.0070  0.1105
39357W        W82295  25.391  30.661   4.417 -0.0937  0.0493  0.0747
39358W        W82296  27.060  29.791   5.248 -0.2243  0.3061 -0.1061
39359W        W82297  26.335  31.664   7.255 -0.2673 -0.0545  0.2461
39360W        W82298  26.960  31.235   5.634  0.1341 -0.0685  0.0667
39361W        W82299  28.179  31.169   6.782 -0.1204  0.0196  0.1390
39362W        W82300  27.727  30.948   3.694  0.1633  0.1994 -0.1006
39363W        W82301  27.871  30.847   4.155 -0.3201  0.0672  0.0406
39364W        W82302  27.452  32.850   7.681 -0.0109  0.0880 -0.0451
39365W        W82303  28.616  31.804   8.147 -0.0129 -0.3020  0.2532
39366W        W82304  26.708  32.108   6.562 -0.0124 -0.3199 -0.0513
39367W        W82305  29.041  30.790   5.945 -0.1198  0.0207  0.0580
39368W        W82306  24.727  28.938   4.976 -0.1108  0.1453 -0.2694
39369W        W82307  24.425  30.564   4.417 -0.1281 -0.0015  0.1801
39370W        W82308  25.880  30.851   5.397  0.2640  0.0919 -0.0339
39371W        W82309  28.906  29.270   6.917  0.0733 -0.2646 -0.3189
39372W        W82310  26.395  29.071   4.721  0.0446  0.1040 -0.4718
39373W        W82311  28.281  29.178   4.857  0.0184 -0.1786 -0.0462
39374W        W82312  26.618  32.108   7.127 -0.0192  0.2056 -0.2294
39375W        W82313  27.778  30.530   5.477  0.0098 -0.1554  0.2597
39376W        W82314  27.912  33.901  10.424  0.0393  0.0292 -0.0321
39377W        W82315  25.780  29.737  10.040 -0.1077 -0.3381  0.0176
39378W        W82316  26.958  30.120   7.542  0.0065  0.1705  0.3167
39379W        W82317  29.015  30.900   8.012  0.1337  0.2197  0.0848
39380W        W82318  25.523  30.551   9.758  0.1193 -0.1546 -0.1193
39381W        W82319  27.200  33.180   9.479 -0.1497 -0.0225 -0.0185
39382W        W82320  27.714  32.835   8.176  0.1734  0.1726 -0.3515
39383W        W82321  29.193  31.261   9.604  0.1395 -0.0700 -0.2488
39384W        W82322  28.635  29.684   7.832 -0.0015 -0.3041  0.1266
39385W        W82323  28.396  30.333   9.451 -0.0045  0.1328 -0.1417
39386W        W82324  26.159  29.053   7.891 -0.0596 -0.3885 -0.4701
39387W        W82325  25.335  29.412   8.926 -0.0873 -0.0257  0.2493
39388W        W82326  29.236  30.132   9.980  0.0600  0.2815  0.1193
39389W        W82327  24.812  30.993   7.302 -0.0570 -0.0469 -0.2042
39390W        W82328  26.758  28.573   9.699  0.2642  0.0650  0.0279
39391W        W82329  26.199  28.404   7.682  0.0698 -0.1121 -0.0018
39392W        W82330  28.016  33.296  10.702  0.1383 -0.0606 -0.0968
39393W        W82331  27.283  29.433   9.652 -0.5029  0.1735 -0.0757
39394W        W82332  29.060  31.287   7.186  0.2632 -0.0839  0.2112
39395W        W82333  24.690  29.970   5.809 -0.0439  0.3391 -0.2032
39396W        W82334  26.333  30.827   9.590 -0.1251  0.0327 -0.0093
39397W        W82335  27.045  31.060   9.149  0.1842  0.0167 -0.1733
39398W        W82336  28.145  29.310   8.407 -0.0112  0.1925  0.0850
39399W        W82337  27.802  29.986   7.215 -0.2570 -0.3028 -0.2135
39400W        W82338  27.337  33.041  10.294 -0.1260  0.0020 -0.0281
39401W        W82339  28.685  31.261   8.153 -0.1337  0.0871  0.2163
39402W        W82340  26.269  30.732   8.709  0.1756 -0.0459 -0.0106
39403W        W82341  26.024  32.374   9.363  0.0799  0.1039 -0.0364
39404W        W82342  27.000  31.243   7.311  0.1389 -0.1002 -0.0104
39405W        W82343  28.786  32.760   7.147 -0.0965  0.0738 -0.0991
39406W        W82344  24.556  31.937   7.068  0.0155  0.1077 -0.0751
39407W        W82345  28.115  31.406   9.749 -0.0094 -0.0126  0.1650
39408W        W82346  28.213  29.736   8.185 -0.1422  0.0641  0.0925
39409W        W82347  26.323  30.765   7.216  0.1483  0.0181  0.0359
39410W        W82348  28.143  28.441   8.924  0.3828 -0.0610 -0.3109
39411W        W82349  27.444  31.736   9.105 -0.1951 -0.2805 -0.0858
39412W        W82350  25.737  31.302   7.816 -0.0453  0.1146 -0.1601
39413W        W82351  29.400  29.062   6.246  0.1753 -0.1406 -0.0840
39414W        W82352  25.916  29.740   7.917  0.0780  0.0885 -0.3590
39415W        W82353  27.318  30.261   7.821 -0.1652  0.0577 -0.1552
39416W        W82354  27.669  29.298   9.265  0.3286  0.3260  0.0419
39417W        W82355  27.961  31.559   8.861 -0.0584  0.1397 -0.2715
39418W        W82356  26.557  29.305   9.530  0.3163  0.0118  0.1035
39419W        W82357  26.705  30.698   6.819  0.3023 -0.3041  0.1095
39420W        W82358  26.493  28.393   9.237  0.1132  0.0151  0.1830
39421W        W82359  27.832  32.101  10.319 -0.3554 -0.0792 -0.1438
39422W        W82360  25.153  30.195   8.469 -0.2894 -0.0948 -0.1965
39423W        W82361  28.396  32.090   6.734 -0.1859 -0.2826  0.0563
39424W        W82362  31.070  32.789   9.272  0.0207  0.2267 -0.0190
39425W        W82363  27.163  32.854   8.144 -0.2896  0.0885 -0.1012
39426W        W82364  24.524  30.307   7.605  0.1138  0.1992  0.0633
39427W        W82365  25.520  27.983   6.622  0.1739 -0.3946 -0.0626
39428W        W82366  29.098  28.754   8.145  0.1018 -0.0424 -0.0073
39429W        W82367  27.955  30.586   9.281 -0.1067 -0.1214  0.2897
39430W        W82368  28.823  31.243   9.206 -0.2111  0.2221 -0.0724
39431W        W82369  28.817  32.604   7.661  0.0737  0.1049  0.1572
39432W        W82370  27.261  27.705   8.929  0.0543 -0.0097  0.0655
39433W        W82371  29.991  29.016   8.831  0.0727  0.0394 -0.0618
39434W        W82372  25.137  31.043   7.909  0.0759 -0.3270  0.0877
39435W        W82373  26.710  30.949   8.492  0.2903  0.1123 -0.2343
39436W        W82374  28.613  32.291   9.034 -0.0902 -0.0411  0.1028
39437W        W82375  29.382  29.899   7.356 -0.0649  0.1802 -0.1665
39438W        W82376  28.560  31.093   9.806 -0.1118 -0.3739 -0.0338
39439W        W82377  25.962  32.189   6.531 -0.0884 -0.1591  0.0703
39440W        W82378  26.444  31.843   8.826  0.3334 -0.2467  0.0805
39441W        W82379  25.437  30.942   8.484  0.2942  0.0508 -0.0747
39442W        W82380  25.521  27.622   9.712 -0.1506  0.1013  0.2216
39443W        W82381  27.828  30.082   9.297  0.4337  0.3503 -0.3633
39444W        W82382  27.463  29.860   8.810 -0.2052 -0.2800 -0.1399
39445W        W82383  28.799  29.040   8.446 -0.1031  0.1988 -0.2880
39446W        W82384  25.840  30.877   8.876  0.3302 -0.1535 -0.0306
39447W        W82385  27.118  33.550   8.088 -0.1127 -0.2710 -0.0272
39448W        W82386  29.565  30.410   7.613  0.3625  0.0309 -0.0546
39449W        W82387  28.998  31.802   7.692  0.4304  0.2865 -0.2739
39450W        W82388  26.099  28.407   9.601 -0.0555  0.3846  0.0536
39451W        W82389  24.581  29.056  10.016 -0.3573 -0.0692  0.0864
39452W        W82390  25.753  28.960   8.452 -0.0582 -0.0422 -0.2538
39453W        W82391  25.104  29.649   7.046  0.0095 -0.1421 -0.1545
39454W        W82392  27.276  29.330   8.177  0.1473 -0.1888 -0.2927
39455W        W82393  28.362  30.875   9.112 -0.0328 -0.0817  0.1006
39456W        W82394  24.855  30.627   8.657 -0.0661  0.2499  0.0050
39457W        W82395  27.763  31.989   8.862  0.0993 -0.0679  0.3325
39458W        W82396  29.213  32.314   9.802 -0.0382 -0.1321 -0.0492
39459W        W82397  28.354  31.267   8.761 -0.2176  0.3096  0.0722
39460W        W82398  25.776  28.919   9.495 -0.2502  0.2942  0.1759
39461W        W82399  26.068  30.045   7.432 -0.0590  0.3068  0.1389
39462W        W82400  26.373  32.401   7.918  0.0211 -0.0628 -0.1582
39463W        W82401  26.907  31.849   8.513  0.2435 -0.0236 -0.3515
39464W        W82402  26.389  29.540   8.630 -0.3774 -0.0224  0.0483
39465W        W82403  29.639  31.919   8.924  0.0937  0.2427  0.1123
39466W        W82404  27.114  31.320   8.242 -0.3202  0.1251  0.2476
39467W        W82405  28.020  29.819   8.607 -0.0963 -0.2611 -0.0555
39468W        W82406  27.364  29.886   9.391  0.0774  0.0790 -0.2499
39469W        W82407  25.161  29.440   6.513  0.1800 -0.0203  0.0281
39470W        W82408  27.373  33.116   8.472  0.0594  0.0375  0.2193
39471W        W82409  27.038  31.713   7.464  0.3078  0.3131 -0.0299
39472W        W82410  26.091  31.208   9.129  0.0442 -0.1607  0.0446
39473W        W82411  26.981  32.311   8.175 -0.4510  0.1010 -0.2252
39474W        W82412  27.402  28.908   9.246  0.0653 -0.0647 -0.0420
39475W        W82413  26.731  29.905   8.452  0.0260  0.3255  0.0802
39476W        W82414  26.743  28.789   9.074 -0.1380 -0.1625  0.0062
39477W        W82415  27.842  30.315   7.593 -0.0331 -0.0352 -0.1016
39478W        W82416  28.607  30.698   7.834 -0.2045  0.1100 -0.2080
39479W        W82417  26.571  29.210   7.170 -0.4248  0.3325 -0.3953
39480W        W82418  28.160  28.976   6.259  0.0192 -0.0025  0.0336
39481W        W82419  27.912  30.923   8.892 -0.0274  0.0656 -0.4000
39482W        W82420  28.903  29.827   8.833 -0.2737  0.0364 -0.1166
39483W        W82421  27.123  28.689   7.799 -0.0232  0.2165 -0.0527
39484W        W82422  29.119  33.073   7.504  0.1527 -0.2984  0.0523
39485W        W82423  26.022  30.841  10.380 -0.4154  0.0910 -0.0056
39486W        W82424  29.289  31.373   7.841  0.0836 -0.0520 -0.1930
39487W        W82425  26.709  25.905   8.855 -0.1935 -0.0517 -0.1563
39488W        W82426  25.462  30.531   7.797 -0.1750 -0.3101  0.2683
39489W        W82427  26.607  29.262   9.056  0.0294  0.2974  0.0286
39490W        W82428  25.809  31.709   6.604  0.0923 -0.0339 -0.1179
39491W        W82429  28.059  29.385   8.908 -0.4280  0.3096  0.0482
39492W        W82430  29.415  28.487   9.144 -0.4347  0.2028  0.0616
39493W        W82431  28.432  30.063   7.514  0.2037 -0.0947  0.0991
39494W        W82432  28.459  29.774   9.783 -0.0483  0.1128  0.0372
39495W        W82433  24.427  30.732   7.130  0.2982 -0.1479 -0.0812
39496W        W82434  27.090  28.297   9.284 -0.0863 -0.1934  0.0778
39497W        W82435  27.455  29.872   9.951  0.1960  0.0867  0.2425
39498W        W82436  28.252  30.619   7.504 -0.2099 -0.0227  0.1552
39499W        W82437  26.381  29.662   8.132  0.0571 -0.0650 -0.0328
39500W        W82438  26.200  32.544   8.380  0.2656 -0.0316 -0.0794
39501W        W82439  25.947  31.183   8.418  0.1799  0.3054  0.0769
39502W        W82440  26.686  28.860   8.092  0.2510  0.2062  0.2181
39503W        W82441  28.175  31.992   7.614  0.2375  0.0803  0.2457
39504W        W82442  28.258  32.495   7.525  0.1438 -0.0920 -0.1112
39505W        W82443  28.281  31.939   9.101  0.1832 -0.0977  0.1914
39506W        W82444  25.591  31.804   8.628 -0.2445  0.0871  0.1716
39507W        W82445  25.548  28.538  10.272  0.3003 -0.0951 -0.1312
39508W        W82446  26.479  32.129   8.332 -0.2890  0.2205 -0.2507
39509W        W82447  25.463  30.084   7.038  0.1154  0.3716 -0.1683
39510W        W82448  26.150  29.553   7.487  0.1167 -0.0932  0.1077
39511W        W82449  27.810  28.425   9.432  0.0836 -0.1812 -0.0672
39512W        W82450  30.025  31.926   7.825  0.0132  0.2253 -0.0590
39513W        W82451  29.681  31.374   9.783  0.0613  0.2536 -0.1559
39514W        W82452  26.513  30.467   9.869  0.0179 -0.0306  0.0323
39515W        W82453  25.379  31.633   9.658 -0.0105 -0.0879 -0.1266
39516W        W82454  27.843  29.396   8.022  0.0465  0.1432  0.0027
39517W        W82455  23.979  30.561   7.513  0.1503 -0.1849  0.2809
39518W        W82456  31.503  31.228   9.532  0.3563 -0.4890 -0.2025
39519W        W82457  27.092  29.262   9.092  0.0898 -0.2195 -0.0313
39520W        W82458  26.589  31.545   8.246 -0.0836 -0.1734  0.2391
39521W        W82459  28.736  31.720   9.045  0.4277 -0.0175  0.1126
39522W        W82460  26.852  30.601   7.920 -0.0960 -0.0775 -0.2202
39523W        W82461  26.303  32.769   8.811  0.1506 -0.2028  0.0235
39524W        W82462  29.796  30.705   9.062  0.0845 -0.0315 -0.1345
39525W        W82463  27.912  30.156   9.824 -0.0469 -0.1295 -0.2097
39526W        W82464  28.265  29.081   9.677  0.1386 -0.0913 -0.0793
39527W        W82465  28.413  29.825   8.937  0.0279 -0.1700  0.0781
39528W        W82466  28.419  31.954  10.249 -0.1368  0.3613  0.1223
39529W        W82467  28.577  28.790   9.318  0.0401  0.0064 -0.1883
39530W        W82468  27.034  28.070   9.804 -0.1278  0.0554  0.1526
39531W        W82469  29.626  33.195   6.982 -0.0896  0.0742 -0.0013
39532W        W82470  26.497  30.105   8.810 -0.2886  0.2854 -0.1382
39533W        W82471  26.587  30.532   9.275 -0.1518 -0.1691 -0.0764
39534W        W82472  27.519  30.648   8.727 -0.3122 -0.1830  0.0953
39535W        W82473  29.144  28.819   9.389  0.0679 -0.1165 -0.1191
39536W        W82474  27.583  30.807   9.778  0.0987 -0.4107  0.2249
39537W        W82475  25.299  31.589   7.792  0.3706  0.1508  0.0136
39538W        W82476  24.897  31.527   9.943  0.0477 -0.1218 -0.3254
39539W        W82477  28.486  28.102   8.505  0.2880  0.0501  0.4089
39540W        W82478  26.972  31.729   7.991 -0.0128  0.3918 -0.3135
39541W        W82479  28.014  27.972   9.361 -0.0641 -0.1998 -0.4306
39542W        W82480  28.601  30.178   7.982 -0.2563 -0.1634  0.1392
39543W        W82481  27.023  26.326   8.861  0.0616 -0.0812  0.1403
39544W        W82482  29.218  31.557   9.007 -0.0176 -0.1132  0.3664
39545W        W82483  27.189  28.658   8.826  0.3594  0.2012 -0.0989
39546W        W82484  25.786  29.232   7.602  0.1294  0.1158 -0.2585
39547W        W82485  28.743  31.299  10.529 -0.1826  0.1418  0.0167
39548W        W82486  28.347  31.882   9.581 -0.1011  0.0178 -0.1013
39549W        W82487  27.476  32.409   7.985  0.0479  0.4749 -0.0982
39550W        W82488  29.166  29.918   9.282  0.3105  0.1207 -0.1984
39551W        W82489  28.875  30.646   9.899  0.2162  0.0657 -0.1442
39552W        W82490  26.969  30.578   8.991 -0.1383 -0.2874 -0.0534
39553W        W82491  27.783  30.828   7.689  0.2509 -0.3022 -0.1591
39554W        W82492  26.591  31.447   9.135  0.0585 -0.0386  0.0991
39555W        W82493  28.769  30.722   9.425 -0.1907  0.4444 -0.1777
39556W        W82494  27.694  29.953   8.131  0.1533  0.2857 -0.0346
39557W        W82495  25.813  33.482   9.835  0.1377  0.1289 -0.2545
39558W        W82496  26.905  29.544   7.378 -0.1574  0.1548  0.2223
39559W        W82497  26.146  27.542   8.764 -0.1327 -0.0243 -0.1243
39560W        W82498  29.360  30.499   8.200  0.2871 -0.1910 -0.3940
39561W        W82499  27.018  29.218   7.758  0.0323  0.1767 -0.2814
39562W        W82500  26.769  31.415  10.070 -0.0779 -0.1006 -0.1617
39563W        W82501  25.424  28.689   6.101 -0.0531 -0.0046 -0.2209
39564W        W82502  27.507  33.231   7.981 -0.0186 -0.1789 -0.1526
39565W        W82503  29.275  30.691   8.654  0.0525  0.0051  0.0461
39566W        W82504  27.488  30.388   8.318 -0.1501 -0.2304 -0.0954
39567W        W82505  26.908  29.737   9.941  0.3833  0.1825  0.1550
39568W        W82506  26.006  30.480   7.752 -0.0231 -0.2130  0.2221
39569W        W82507  26.442  30.332   7.485  0.2361 -0.1752 -0.0314
39570W        W82508  28.359  31.394   9.284 -0.2291  0.4832  0.0555
39571W        W82509  26.511  28.775   7.559  0.3644  0.0285 -0.3269
39572W        W82510  25.344  30.869   9.359 -0.2216 -0.1784 -0.0129
39573W        W82511  27.737  28.684   8.978  0.0551 -0.0661  0.1270
39574W        W82512  27.616  31.343   9.653  0.0500 -0.0516 -0.0288
39575W        W82513  27.201  31.070   8.666 -0.0359  0.2351 -0.1169
39576W        W82514  26.128  27.718   9.936  0.2901  0.2085  0.2333
39577W        W82515  28.963  30.374   9.109 -0.1774  0.0887  0.1423
39578W        W82516  27.658  31.245   8.584  0.0818  0.2693  0.0956
39579W        W82517  26.613  30.004   9.620 -0.3301  0.0210 -0.0046
39580W        W82518  29.574  31.182   9.166 -0.3047  0.0365  0.1555
39581W        W82519  27.431  30.361  10.077 -0.0818 -0.1367 -0.0576
39582W        W82520  27.529  30.410   9.541 -0.2565 -0.1576 -0.0624
39583W        W82521  26.717  29.189   8.536  0.0797 -0.0258  0.2785
39584W        W82522  28.189  31.584   8.144  0.2689 -0.0764  0.1410
39585W        W82523  27.055  30.217   9.756  0.3528 -0.1413 -0.0688
39586W        W82524  26.243  31.282   7.572 -0.2309 -0.0035 -0.0204
39587W        W82525  29.120  31.665   8.238 -0.0411 -0.1121  0.0036
39588W        W82526  27.573  30.959   8.183  0.4287 -0.2011 -0.4166
39589W        W82527  30.159  32.009   9.369  0.0666  0.2603  0.1931
39590W        W82528  27.110  30.746   8.309 -0.0819 -0.1593 -0.0284
39591W        W82529  27.069  31.979   9.487  0.4408  0.1090  0.2191
39592W        W82530  25.285  32.082   7.686 -0.1190 -0.0315 -0.0405
39593W        W82531  29.880  31.489   7.741  0.1682 -0.3661 -0.0153
39594W        W82532  27.291  32.117   8.791  0.0229 -0.2396  0.2260
39595W        W82533  29.559  29.606   5.378 -0.3988 -0.1392 -0.0078
39596W        W82534  29.728  31.062   8.709 -0.0785 -0.1613 -0.1007
39597W        W82535  29.148  29.586   7.940  0.0843 -0.3821 -0.3289
39598W        W82536  26.701  32.447   9.727 -0.0443 -0.0519  0.2771
39599W        W82537  25.849  28.830   6.495  0.2289  0.2912  0.3554
39600W        W82538  29.674  32.164   6.324 -0.0207 -0.0404 -0.0495
39601W        W82539  25.452  29.623   7.741  0.2205 -0.0254 -0.1932
39602W        W82540  26.403  30.757   7.716  0.0593  0.0799  0.2341
39603W        W82541  28.720  29.715   9.366 -0.3891  0.0688  0.3265
39604W        W82542  28.048  31.486   7.609 -0.2045 -0.0886  0.1418
39605W        W82543  28.668  29.295   9.951  0.1686 -0.2279  0.1303
39606W        W82544  27.582  32.825   9.831  0.1393  0.1644 -0.0644
39607W        W82545  27.919  31.877   9.874  0.1533 -0.0225 -0.0288
39608W        W82546  27.944  31.668   9.344 -0.0798 -0.0184 -0.0123
39609W        W82547  24.158  30.773   8.054  0.0731  0.0011  0.0947
39610W        W82548  27.857  31.102  10.117  0.2094 -0.2566  0.1111
39611W        W82549  27.187  31.648   9.967  0.0753  0.2633 -0.1186
39612W        W82550  26.708  27.741  10.045 -0.1711  0.2263 -0.2796
39613W        W82551  27.984  30.672   8.435 -0.0044 -0.1763  0.1828
39614W        W82552  29.208  30.858   9.205 -0.1104 -0.0537  0.0371
39615W        W82553  27.033  30.646  10.069  0.0207 -0.1174 -0.0457
39616W        W82554  25.856  30.462   7.268  0.1690 -0.2177 -0.0096
39617W        W82555  27.484  31.523   8.042 -0.0773  0.0581 -0.4242
39618W        W82556  25.862  28.675   7.939  0.1124  0.0022  0.2060
39619W        W82557  27.279  29.862   8.365  0.1463 -0.1498 -0.0985
39620W        W82558  26.055  29.863   8.428  0.4731 -0.1458 -0.1390
39621W        W82559  28.758  31.601   9.563 -0.1217 -0.1564  0.0447
39622W        W82560  26.560  29.291   7.762  0.1154  0.1322 -0.0460
39623W        W82561  29.901  32.293   8.703  0.1659 -0.1752 -0.3173
39624W        W82562  28.593  29.940   8.423  0.1138 -0.2253 -0.4906
39625W        W82563  27.288  32.745   9.104 -0.0817  0.0632 -0.0310
39626W        W82564  29.469  29.974   7.847 -0.2158  0.1752  0.1107
39627W        W82565  27.676  32.658   8.849  0.0727 -0.0515 -0.0549
39628W        W82566  25.324  26.637  10.059 -0.1853  0.2189 -0.0864
39629W        W82567  28.379  31.723   8.620  0.3821 -0.0718 -0.4410
39630W        W82568  30.454  31.596   8.651  0.0951 -0.3435 -0.0791
39631W        W82569  26.776  30.093   8.019 -0.0079 -0.0634  0.2607
39632W        W82570  26.876  30.129   9.194 -0.0109  0.1283 -0.0741
39633W        W82571  26.303  31.307   8.682 -0.1121 -0.1145 -0.1148
39634W        W82572  29.040  29.706   9.863  0.2129  0.3453 -0.1698
39635W        W82573  27.102  32.002   6.833 -0.5818 -0.0495 -0.0735
39636W        W82574  29.375  30.760   9.903  0.3108 -0.4592 -0.0258
39637W        W82575  23.462  30.479   7.478  0.1267  0.0521  0.0591
39638W        W82576  27.292  31.604   8.677 -0.1462 -0.1200  0.4113
39639W        W82577  28.223  31.087   7.905 -0.0744  0.0981 -0.0191
39640W        W82578  29.065  30.403   7.754  0.0602 -0.1355 -0.0270
39641W        W82579  27.440  30.759   9.217  0.1601 -0.1953 -0.0579
39642W        W82580  28.861  31.907   8.630 -0.3190 -0.0616 -0.0676
39643W        W82581  26.962  28.986   9.523  0.1955 -0.2272 -0.2010
39644W        W82582  29.218  30.187   8.725  0.0130 -0.3478  0.0084
39645W        W82583  27.928  29.271   7.491  0.0771  0.0035 -0.0118
39646W        W82584  25.843  30.670   9.434 -0.0154  0.2617  0.1092
39647W        W82585  24.545  30.215   6.793 -0.2438  0.1632  0.0873
39648W        W82586  27.815  31.869   7.928  0.2503 -0.0459 -0.2052
39649W        W82587  28.359  30.407   8.889  0.1285  0.2171 -0.1439
39650W        W82588  28.183  29.328  10.058  0.0148 -0.2925  0.1215
39651W        W82589  29.340  32.174   8.557 -0.1132 -0.0538 -0.1991
39652W        W82590  25.074  28.347   9.113 -0.0390  0.0340  0.0671
39653W        W82591  25.573  29.599   8.319 -0.1419  0.0204 -0.3594
39654W        W82592  28.067  31.172   8.368 -0.1016  0.2223  0.0462
39655W        W82593  29.654  31.672   9.347 -0.3951 -0.3827 -0.2117
39656W        W82594  27.386  30.275   9.089 -0.0230  0.1736 -0.1667
39657W        W82595  24.645  31.159   6.721 -0.2320 -0.2502  0.0656
39658W        W82596  23.727  30.078   7.134 -0.2398 -0.3164  0.1214
39659W        W82597  27.862  30.568  10.136  0.2037  0.0817 -0.1492
39660W        W82598  26.826  32.869   9.467 -0.1797  0.2211  0.0389
39661W        W82599  29.550  31.157   7.452 -0.3228 -0.1628  0.0189
39662W        W82600  24.588  28.523   9.262 -0.0628 -0.0169 -0.0166
39663W        W82601  28.498  30.846   8.430 -0.1358  0.0150 -0.0795
39664W        W82602  30.304  32.072   8.367 -0.0517  0.4081 -0.2533
39665W        W82603  29.778  28.144   9.253  0.2272 -0.0955 -0.3223
39666W        W82604  26.237  30.106   7.934  0.1971  0.2079 -0.2162
39667W        W82605  31.710  30.932   9.195 -0.2008 -0.1376  0.0902
39668W        W82606  26.844  29.234   9.939  0.0414  0.1229  0.3934
39669W        W82607  28.226  29.660   7.234  0.1796  0.3616  0.0405
39670W        W82608  27.503  31.084   7.380  0.0298  0.0576 -0.1231
39671W        W82609  24.720  29.038   9.403 -0.4135  0.0529  0.0833
39672W        W82610  26.894  29.623   9.396 -0.1956  0.0846 -0.0488
39673W        W82611  27.799  31.746   8.435 -0.0251 -0.1117 -0.0493
39674W        W82612  27.267  30.759   7.649 -0.0450  0.0471  0.0396
39675W        W82613  30.788  30.105   6.766  0.1465 -0.0633 -0.1020
39676W        W82614  28.139  30.748   9.730 -0.2397 -0.1437  0.1084
39677W        W82615  28.884  32.052   9.442 -0.1498  0.0080  0.0644
39678W        W82616  30.234  31.078   9.130 -0.2095  0.0349  0.0458
39679W        W82617  25.967  28.308   9.094 -0.3210 -0.3980 -0.1940
39680W        W82618  25.750  30.520   8.540 -0.0378  0.3024  0.0752
39681W        W82619  28.855  31.387   8.703 -0.2690 -0.0114  0.1255
39682W        W82620  26.555  27.409   9.704  0.0442 -0.2369  0.1347
39683W        W82621  25.613  27.327   9.250  0.5453  0.0932  0.1568
39684W        W82622  26.761  28.817   6.773  0.2028 -0.1218  0.1141
39685W        W82623  27.583  34.379   9.914 -0.0570  0.1007  0.2316
39686W        W82624  28.669  28.498   8.920 -0.1226 -0.1477 -0.0540
39687W        W82625  24.786   0.420   1.146 -0.0862  0.0530  0.0999
39688W        W82626  30.159  33.862  31.920  0.0516  0.1188 -0.2744
39689W        W82627  28.811  33.909   0.117 -0.2159 -0.1009 -0.1343
39690W        W82628  26.367  34.280   0.794 -0.3382  0.1678  0.3817
39691W        W82629  27.238  33.074   3.020  0.1923 -0.0239  0.1636
39692W        W82630  25.877  34.322   0.508 -0.0509 -0.0916  0.3674
39693W        W82631  27.260  34.056   3.191  0.1173  0.0008  0.1409
39694W        W82632  26.702  33.336   0.749  0.1084 -0.1722  0.2843
39695W        W82633  22.900  31.827   2.610  0.2740  0.0863  0.0008
39696W        W82634  29.001  33.971   2.801 -0.0350 -0.1661  0.0067
39697W        W82635  24.233   0.364   1.134  0.4046  0.1313  0.1978
39698W        W82636  25.923  34.244   2.255  0.1981  0.2228 -0.0544
39699W        W82637  27.073   0.411   1.334 -0.2238 -0.4053 -0.1627
39700W        W82638  25.474  33.192   3.264 -0.0986  0.0268 -0.0821
39701W        W82639  27.060  33.121   3.515  0.0158 -0.1192 -0.0094
39702W        W82640  25.797   0.154  31.574  0.2495  0.0352 -0.1792
39703W        W82641  24.186  34.575   3.030  0.2984  0.4599 -0.0603
39704W        W82642  27.236  34.295   1.795 -0.0968  0.0130 -0.0213
39705W        W82643  28.768  34.211   0.522 -0.0032  0.0455  0.0154
39706W        W82644  27.775   0.926   1.745  0.2490  0.0481  0.1491
39707W        W82645  26.790  34.103   3.456 -0.2582 -0.2211  0.3653
39708W        W82646  27.431  33.607   2.244 -0.0978  0.1418 -0.2723
39709W        W82647  27.568   1.287   0.523 -0.5305 -0.1733 -0.0255
39710W        W82648  27.188  33.833   3.665  0.0436  0.1365 -0.0964
39711W        W82649  27.923   0.005  31.896  0.1014 -0.2443 -0.1648
39712W        W82650  26.841   0.197   0.981  0.2124 -0.0808 -0.1000
39713W        W82651  28.422   0.115   0.007 -0.1852 -0.0812  0.0671
39714W        W82652  26.831  32.886   2.683  0.0924 -0.0580  0.0798
39715W        W82653  26.974  32.420   0.437  0.3278  0.1547  0.2322
39716W        W82654  27.113   1.493   0.375 -0.0166 -0.1997 -0.0085
39717W        W82655  28.559  34.506   2.343 -0.0803  0.0234 -0.1224
39718W        W82656  24.555   0.336   1.589 -0.0966 -0.1649  0.0614
39719W        W82657  25.305   1.525   0.363  0.2878  0.1265 -0.2039
39720W        W82658  26.014   0.864   3.833 -0.0613  0.1111  0.0966
39721W        W82659  24.500  34.397   4.002  0.1133  0.1678  0.1625
39722W        W82660  25.567  32.671   0.741  0.1730  0.0026 -0.1213
39723W        W82661  27.926  33.057   1.669  0.0273 -0.1650 -0.1711
39724W        W82662  28.028  33.183  31.906  0.1857 -0.1804 -0.2196
39725W        W82663  26.366  33.792   2.206  0.0503  0.1138 -0.1305
39726W        W82664  28.697   0.494  31.718 -0.0964 -0.0212  0.0805
39727W        W82665  27.061  33.793   4.141 -0.2400  0.3399 -0.1858
39728W        W82666  24.977  32.111   3.295 -0.1756  0.0395 -0.0504
39729W        W82667  29.080  34.123   1.520  0.3827 -0.1386  0.1107
39730W        W82668  25.388  34.266   2.961  0.0505  0.1456 -0.3798
39731W        W82669  29.248  33.799   1.149  0.1308  0.1132 -0.4375
39732W        W82670  30.366  34.184  31.545 -0.0161 -0.2969  0.1458
39733W        W82671  24.512  34.340   2.675 -0.0934  0.3236  0.2248
39734W        W82672  25.606  34.633   2.355  0.0515  0.0746  0.1876
39735W        W82673  25.029  32.432   2.892  0.0370  0.5099 -0.0418
39736W        W82674  25.966  33.225   1.161  0.0069  0.0694 -0.3056
39737W        W82675  28.234   0.142   2.633  0.1780 -0.1254  0.2996
39738W        W82676  25.621  34.430   1.395 -0.2591  0.0543 -0.1093
39739W        W82677  29.880   0.148   0.234 -0.1966 -0.0903  0.0861
39740W        W82678  26.236  34.594   1.460 -0.2337 -0.0690  0.0639
39741W        W82679  27.426  34.474   2.554  0.0572  0.3289 -0.0054
39742W        W82680  26.311  34.161   2.616 -0.0900  0.0452  0.0658
39743W        W82681  25.119  34.691   1.278 -0.2920  0.1092 -0.0017
39744W        W82682  24.969  34.004   1.836 -0.0908 -0.1623 -0.2267
39745W        W82683  26.990  34.189   2.757 -0.0772  0.1078 -0.2788
39746W        W82684  27.555   1.489   1.315  0.0887  0.1094 -0.5734
39747W        W82685  26.610  34.131   0.360 -0.0947  0.0219  0.3422
39748W        W82686  25.275   0.029   0.177  0.0401  0.3973  0.0624
39749W        W82687  27.148  32.192   1.972 -0.2642  0.1912  0.0433
39750W        W82688  23.545  34.631   3.893  0.0504  0.0500 -0.2708
39751W        W82689  28.487   0.129   3.215 -0.0715 -0.0352  0.1290
39752W        W82690  25.290  33.807   1.443  0.1603 -0.2533 -0.3761
39753W        W82691  27.403  33.929   2.669  0.0656  0.0776 -0.0953
39754W        W82692  29.122  33.544   0.151  0.2016  0.1564 -0.1832
39755W        W82693  27.796  32.530  31.897 -0.0810  0.0731 -0.1422
39756W        W82694  28.997  33.724   0.663 -0.0674 -0.0803  0.1337
39757W        W82695  27.739   0.219   0.713 -0.2482  0.3315  0.0950
39758W        W82696  24.832  31.477   2.667 -0.0391 -0.0273  0.2642
39759W        W82697  27.479  34.034   0.243  0.0585  0.1936 -0.1869
39760W        W82698  28.293   0.381   1.445 -0.1908 -0.0713  0.0234
39761W        W82699  27.096  33.228   1.873 -0.0132 -0.1411 -0.1954
39762W        W82700  29.357   0.455   0.470  0.3642 -0.0982  0.0915
39763W        W82701  26.348  33.050   2.104  0.0375 -0.2291  0.1206
39764W        W82702  27.513  34.189   3.931 -0.1043 -0.1246 -0.1222
39765W        W82703  28.568   0.606   1.098 -0.0455  0.1387  0.4721
39766W        W82704  28.087   1.075   2.168  0.0798  0.0464  0.0037
39767W        W82705  27.562  34.500  31.386 -0.2915 -0.2539  0.0727
39768W        W82706  25.405  33.700   4.913 -0.0415  0.1749  0.2022
39769W        W82707  26.604  32.594   1.367  0.1525  0.2134 -0.2947
39770W        W82708  27.653  34.156   2.099  0.0533  0.0435  0.0159
39771W        W82709  25.786  34.011   2.686 -0.0391 -0.0644  0.2171
39772W        W82710  27.449  32.984   2.134 -0.3527  0.2272 -0.2029
39773W        W82711  26.955  34.548   1.462 -0.1692  0.2638 -0.3062
39774W        W82712  25.454  34.618   0.607  0.1510  0.1909 -0.2799
39775W        W82713  29.514  34.642   2.163  0.0457  0.0244 -0.0804
39776W        W82714  25.175  34.628   3.344  0.0727  0.1081  0.2925
39777W        W82715  25.890   0.725   2.382 -0.1170  0.0563  0.0996
39778W        W82716  28.267  34.126   2.142 -0.0794 -0.0659  0.0185
39779W        W82717  28.609  33.431   0.566  0.1589  0.2304  0.0159
39780W        W82718  25.708  34.097   4.697  0.2653  0.0747 -0.1232
39781W        W82719  24.325  33.423   0.522 -0.2024 -0.3612  0.0214
39782W        W82720  27.303  32.550   2.296  0.2307  0.0138  0.0277
39783W        W82721  26.194  34.672   2.276 -0.2643  0.2428 -0.0633
39784W        W82722  26.992   0.707   0.900  0.1441  0.2211  0.1673
39785W        W82723  25.893  34.459   3.907  0.2209 -0.0283  0.2260
39786W        W82724  25.369   0.528   3.301  0.1128 -0.3996 -0.0900
39787W        W82725  25.480  34.261   1.984 -0.3037 -0.2009 -0.1122
39788W        W82726  26.996   0.356   2.795 -0.2319 -0.1900  0.1824
39789W        W82727  27.501  33.803   4.474 -0.1888 -0.2421  0.1008
39790W        W82728  27.391  33.488   0.312 -0.4467  0.0973 -0.1272
39791W        W82729  27.051  34.292   3.897  0.2825  0.1316 -0.1001
39792W        W82730  28.154  34.572   1.643 -0.1589 -0.1285 -0.0462
39793W        W82731  29.016  32.682   0.395 -0.0925 -0.3226  0.0411
39794W        W82732  28.186   0.629   1.906  0.4302  0.0060  0.2175
39795W        W82733  27.849  33.821   2.497 -0.2146 -0.0835 -0.1674
39796W        W82734  28.200   0.886   0.830  0.0923  0.0894  0.0073
39797W        W82735  26.429  33.213   3.565  0.4098  0.1023  0.1098
39798W        W82736  26.286  33.061   0.784  0.3008  0.2466 -0.1497
39799W        W82737  24.856  32.996   3.236 -0.2365 -0.0414  0.0698
39800W        W82738  25.012   0.464   4.611 -0.0429  0.0179  0.0209
39801W        W82739  28.480  33.844   0.836 -0.2156  0.1212 -0.0949
39802W        W82740  26.209   0.300  31.771  0.2599 -0.1784  0.0359
39803W        W82741  27.157   0.904   3.010  0.0293  0.1289 -0.1150
39804W        W82742  29.334  34.196   2.152  0.0789 -0.1650  0.1197
39805W        W82743  25.336   0.559   0.899  0.0278  0.0650 -0.4208
39806W        W82744  28.908   0.779   0.657  0.0154  0.0292 -0.2197
39807W        W82745  26.243  34.038   1.778 -0.1350  0.0129  0.1079
39808W        W82746  29.410  33.278   0.903  0.0562  0.0637  0.1806
39809W        W82747  25.772  33.171   2.837  0.0777 -0.2850  0.1478
39810W        W82748  27.603  34.256   1.159 -0.1187  0.0114  0.0664
39811W        W82749  26.357  34.322   3.157 -0.3702  0.4555 -0.2266
39812W        W82750  24.004  33.586   3.652  0.0189  0.2113 -0.1792
39813W        W82751  30.406  34.474  30.745 -0.2802 -0.2398 -0.0243
39814W        W82752  28.777  33.649   1.710  0.0152  0.0492  0.0477
39815W        W82753  28.850  34.578  31.941 -0.2088 -0.1466 -0.2174
39816W        W82754  28.139   0.060   0.487 -0.3451 -0.0213 -0.0256
39817W        W82755  25.418   0.377   2.517 -0.1721  0.0323  0.1545
39818W        W82756  27.667  34.003   3.506  0.0092  0.1200  0.3970
39819W        W82757  26.266  33.378  31.371  0.1298 -0.2699 -0.1541
39820W        W82758  27.788  33.787   4.882 -0.0161  0.2841  0.2497
39821W        W82759  27.887  34.042   0.662 -0.1340  0.0013  0.1878
39822W        W82760  24.791   0.995   2.436  0.2246 -0.1368 -0.1144
39823W        W82761  25.670  34.221  31.553 -0.0070 -0.1473  0.1782
39824W        W82762  25.316   0.472   0.335 -0.0994 -0.1799 -0.0680
39825W        W82763  27.477  34.106  30.553  0.2315 -0.2546 -0.3087
39826W        W82764  27.545  33.384   2.682  0.2410  0.0282  0.1051
39827W        W82765  28.749  34.424   1.036  0.1943 -0.0757 -0.0168
39828W        W82766  26.339   0.001   2.848 -0.2257 -0.1360  0.0025
39829W        W82767  27.930  34.632   1.143 -0.0510 -0.1462  0.0004
39830W        W82768  27.249   0.221   0.704  0.1218  0.0128  0.2206
39831W        W82769  29.089  34.372   3.120  0.0590 -0.0070 -0.2328
39832W        W82770  26.549  34.276   2.177 -0.2440  0.1097 -0.1122
39833W        W82771  24.813  34.279   3.541 -0.0092  0.2212 -0.2195
39834W        W82772  26.728  34.562   0.597 -0.0603 -0.3256  0.0451
39835W        W82773  27.049  32.600   1.595  0.0484  0.0570  0.1723
39836W        W82774  27.586  33.360  31.618  0.1509  0.1047  0.1432
39837W        W82775  29.568  34.019   0.817  0.3775  0.1812 -0.0315
39838W        W82776  29.829  34.419  31.564  0.0737 -0.0442  0.0869
39839W        W82777  26.859   0.335   1.811 -0.3831 -0.0238 -0.0789
39840W        W82778  27.164  34.111   2.274 -0.2832 -0.1021 -0.1922
39841W        W82779  25.924   0.225   2.683 -0.0209 -0.0043  0.3237
39842W        W82780  28.228  32.948   4.092 -0.1553  0.0380 -0.3053
39843W        W82781  24.993  34.444   2.091  0.1611 -0.2879  0.0236
39844W        W82782  27.023   1.052   0.086 -0.1828 -0.3363 -0.0549
39845W        W82783  27.608  32.414   2.663  0.0985 -0.0534 -0.1493
39846W        W82784  26.220   1.092   1.025 -0.1080 -0.1103  0.0292
39847W        W82785  24.503   0.527   2.241 -0.2325  0.3327  0.0520
39848W        W82786  28.730  34.468   1.537 -0.1180 -0.2152 -0.0322
39849W        W82787  25.871  34.581   1.843  0.0497  0.2064 -0.0543
39850W        W82788  28.408  33.100   3.659 -0.1018  0.0313  0.0070
39851W        W82789  26.306   0.225   0.724  0.0680 -0.2277 -0.1882
39852W        W82790  29.559  33.899  31.921 -0.0857  0.1004  0.2007
39853W        W82791  26.564   0.229   4.415 -0.1895 -0.1173 -0.1222
39854W        W82792  27.119  34.345   0.359 -0.1267  0.0639 -0.0712
39855W        W82793  28.653   0.468   2.705 -0.0770  0.1209 -0.3482
39856W        W82794  27.387  34.081  31.636  0.1462  0.0376 -0.1060
39857W        W82795  26.048  32.655   0.608 -0.1066 -0.3636  0.1940
39858W        W82796  28.789  34.115   1.948 -0.0347  0.2337 -0.1368
39859W        W82797  26.284   0.029   0.212 -0.3874 -0.2120 -0.0859
39860W        W82798  28.079   0.145   2.135  0.2795 -0.1293  0.2559
39861W        W82799  25.708  33.344   2.021 -0.1146 -0.0706  0.0568
39862W        W82800  27.943  34.088   1.570  0.2760  0.0454  0.1069
39863W        W82801  29.139   0.432   2.510 -0.0544  0.4620  0.0269
39864W        W82802  24.829  34.455   3.028 -0.0674 -0.3830 -0.2424
39865W        W82803  27.606  33.591   0.765  0.1671 -0.0299 -0.0700
39866W        W82804  25.266  34.692   1.750 -0.1339  0.2890  0.0305
39867W        W82805  28.699  33.369   2.173  0.0081  0.1145  0.2337
39868W        W82806  28.502   0.157   1.870  0.0340  0.1314  0.1791
39869W        W82807  28.283  33.526   3.145 -0.0517  0.1283 -0.2587
39870W        W82808  27.636  34.660   2.108  0.2815 -0.0728  0.0242
39871W        W82809  26.768  34.137   1.648  0.2673 -0.0671 -0.0249
39872W        W82810  27.683  32.366   2.019  0.3442 -0.1244 -0.0101
39873W        W82811  28.257  32.732   1.360 -0.3176 -0.0128 -0.0584
39874W        W82812  26.031   0.113   3.216 -0.2733 -0.0116 -0.0779
39875W        W82813  25.122  33.334   1.201  0.0169  0.2102  0.2389
39876W        W82814  26.562  32.328   3.357  0.2276  0.2060  0.1361
39877W        W82815  26.268   0.708   3.104 -0.2081  0.1642  0.0076
39878W        W82816  26.507   0.621   0.976 -0.1381  0.0354 -0.1398
39879W        W82817  26.092   0.338   1.160 -0.1387 -0.2456 -0.2208
39880W        W82818  26.890  34.081   0.796 -0.2157  0.3660 -0.1683
39881W        W82819  25.540   0.045   2.964  0.3130  0.0165  0.1856
39882W        W82820  27.921   0.520   1.047 -0.1038  0.0538 -0.0225
39883W        W82821  26.656  34.435   4.482 -0.0967 -0.1530 -0.2735
39884W        W82822  27.026  33.744   1.926 -0.0220  0.1987 -0.1318
39885W        W82823  24.655  33.985   0.655 -0.4333  0.2539  0.0931
39886W        W82824  27.132  34.104   1.261 -0.0676 -0.0235  0.2202
39887W        W82825  25.495  33.521   2.480  0.0094  0.1648  0.0158
39888W        W82826  29.510  32.951   3.108  0.0283 -0.0588  0.2210
39889W        W82827  28.406   0.112   0.992  0.0040  0.1034 -0.0924
39890W        W82828  25.782  32.794   3.200  0.0136  0.0389 -0.0828
39891W        W82829  26.556  33.269   1.264  0.3241  0.0951  0.1748
39892W        W82830  27.770  33.186   1.170 -0.1744  0.0253 -0.0098
39893W        W82831  24.947  34.032   2.731 -0.0749  0.2891  0.2849
39894W        W82832  27.628  34.471   1.574 -0.0925 -0.1464  0.1891
39895W        W82833  27.357  34.654   2.996 -0.1004 -0.0893 -0.0606
39896W        W82834  27.535  33.761   1.262 -0.1799 -0.2044  0.0879
39897W        W82835  28.613   0.004   0.543 -0.2362  0.0547  0.1432
39898W        W82836  26.574  31.194   2.332 -0.2140  0.1115 -0.1874
39899W        W82837  26.207   1.080   0.503  0.0428 -0.0190 -0.0479
39900W        W82838  26.933   1.396   1.502  0.0546  0.0069 -0.2465
39901W        W82839  28.742   0.341   2.241 -0.1666 -0.4793 -0.3598
39902W        W82840  25.095   1.397   1.563 -0.1753  0.1226 -0.1428
39903W        W82841  28.455  34.261   0.040 -0.0219 -0.2234 -0.1331
39904W        W82842  25.353  33.338   4.552  0.3335 -0.0859 -0.2628
39905W        W82843  27.775  33.780   2.996 -0.2582 -0.0515 -0.0657
39906W        W82844  28.219  34.365   4.178 -0.1164  0.1139 -0.0085
39907W        W82845  25.788  33.465   4.766  0.0647  0.0907 -0.0871
39908W        W82846  26.538  30.909   5.749 -0.0930  0.1307  0.3180
39909W        W82847  27.180   0.409   5.413  0.2182  0.3340  0.2932
39910W        W82848  26.279  33.145   6.425 -0.0839  0.0051  0.1677
39911W        W82849  25.904  34.440   2.914 -0.1071 -0.0092  0.1193
39912W        W82850  23.941  32.393   5.418  0.1778  0.0894  0.0962
39913W        W82851  27.344   1.166   7.181 -0.2201  0.1819  0.1914
39914W        W82852  25.726  34.626   6.722  0.1867 -0.0286  0.0569
39915W        W82853  25.924  33.528   6.310 -0.3689  0.0664 -0.1599
39916W        W82854  26.150  34.575   4.387 -0.0730  0.1552 -0.5635
39917W        W82855  27.227  32.784   6.116  0.1349  0.3741  0.1648
39918W        W82856  28.094  32.242   7.089  0.0387 -0.0509 -0.0561
39919W        W82857  24.691  34.176   4.557 -0.0979  0.0309 -0.1070
39920W        W82858  26.969  33.688   6.459  0.0320 -0.0461 -0.1245
39921W        W82859  26.788  33.546   4.452  0.0502 -0.0609 -0.0628
39922W        W82860  27.194  32.935   5.575 -0.5486  0.0769  0.2117
39923W        W82861  27.423  34.229   4.804  0.0081 -0.1308 -0.0088
39924W        W82862  28.088  33.408   6.122  0.2422 -0.0293  0.0931
39925W        W82863  27.661  33.094   5.652 -0.1845 -0.2074  0.0350
39926W        W82864  25.954  34.440   5.502 -0.2952 -0.0912 -0.2015
39927W        W82865  28.650  32.863   8.875 -0.2605 -0.2912 -0.1226
39928W        W82866  28.143   0.183   4.964  0.3903 -0.2041  0.0022
39929W        W82867  26.838  32.687   3.171 -0.1437  0.3260  0.0472
39930W        W82868  29.123  32.886   4.048 -0.0835 -0.2219 -0.3632
39931W        W82869  26.821  32.684   5.335  0.1555 -0.2917  0.2406
39932W        W82870  25.552  32.440   5.782 -0.1654  0.4572  0.1269
39933W        W82871  24.740  33.915   4.167  0.1323  0.1445  0.2802
39934W        W82872  28.274  34.504   5.829 -0.1055  0.0981  0.2039
39935W        W82873  24.915  33.803   4.897  0.0044  0.1641 -0.0196
39936W        W82874  25.098  34.692   4.813  0.2251  0.1410  0.0756
39937W        W82875  25.977   0.174   7.239 -0.1412  0.0972 -0.1965
39938W        W82876  26.298  33.883   7.190  0.0485  0.0988 -0.1076
39939W        W82877  26.026  33.560   3.768 -0.0139 -0.1750  0.0670
39940W        W82878  27.227  32.899   5.084 -0.1527 -0.2278  0.1503
39941W        W82879  27.458  32.538   5.269 -0.2251 -0.0332 -0.2933
39942W        W82880  27.609  34.024   5.324  0.0134  0.1119  0.0513
39943W        W82881  26.814  34.625   3.614  0.0324  0.0265  0.0495
39944W        W82882  27.212  33.343   7.558  0.5217 -0.2020  0.2032
39945W        W82883  25.097  32.079   6.566 -0.1812 -0.1364  0.0762
39946W        W82884  28.993  33.853   3.992  0.1836  0.2142  0.2885
39947W        W82885  26.023  32.704   6.470  0.1822  0.5740  0.1866
39948W        W82886  28.101  32.893   5.989  0.0165  0.0281  0.0177
39949W        W82887  27.168  34.290   4.359 -0.1021 -0.1725 -0.2175
39950W        W82888  26.258  34.031   6.675  0.0124 -0.1007 -0.2635
39951W        W82889  26.316  33.401   5.990 -0.1571 -0.4249 -0.0093
39952W        W82890  26.308  33.440   6.944 -0.0660  0.0962 -0.0717
39953W        W82891  26.123  33.087   5.560 -0.1348 -0.4479  0.0530
39954W        W82892  27.810  34.236   6.058 -0.2321 -0.1755  0.1370
39955W        W82893  25.511  32.228   3.517 -0.0144 -0.1431 -0.1706
39956W        W82894  28.554  33.194   4.885 -0.0721 -0.2240 -0.3240
39957W        W82895  26.442  34.624   5.329  0.1117 -0.1449  0.0943
39958W        W82896  28.135  34.258   7.577  0.2114  0.1618  0.0057
39959W        W82897  26.699  33.252   6.675 -0.1088 -0.1802  0.4030
39960W        W82898  24.983  33.007   4.261  0.0843  0.2118 -0.1001
39961W        W82899  25.913  32.674   4.184  0.0001  0.2976  0.0686
39962W        W82900  28.462  31.468   6.450 -0.0790 -0.0938 -0.1550
39963W        W82901  26.092   1.082   6.121  0.2183 -0.1698  0.5511
39964W        W82902  26.103  33.645   2.832 -0.2665 -0.2214 -0.0172
39965W        W82903  25.062  34.307   4.139  0.0690  0.0222  0.1147
39966W        W82904  27.547  32.627   5.758 -0.0808  0.0041  0.0657
39967W        W82905  25.153  34.688   8.560  0.2097  0.4001 -0.2771
39968W        W82906  27.183  33.203   6.461  0.1646 -0.0014  0.1851
39969W        W82907  25.423  33.070   4.130  0.0310  0.0164 -0.0884
39970W        W82908  28.582  31.936   5.461  0.1430  0.2329 -0.0542
39971W        W82909  29.076  34.364   4.105  0.1491  0.1305  0.1029
39972W        W82910  26.114  33.230   5.038 -0.1551 -0.1769  0.0864
39973W        W82911  25.858  34.003   3.692  0.2405  0.1510 -0.0068
39974W        W82912  26.552  34.067   4.780 -0.0537  0.2564  0.0311
39975W        W82913  27.964  32.331   5.168  0.2353 -0.0095 -0.1470
39976W        W82914  25.097  34.046   5.502  0.0424  0.0269 -0.1399
39977W        W82915  27.461  32.137   5.000  0.1074 -0.3314  0.1039
39978W        W82916  26.737  33.175   6.165 -0.2168  0.0444  0.1519
39979W        W82917  26.761  31.552   6.456 -0.0660 -0.2347  0.3196
39980W        W82918  27.046  33.510   7.021  0.2298 -0.2556 -0.0141
39981W        W82919  28.423   1.046   7.383  0.2255 -0.1359  0.2132
39982W        W82920  27.487  34.626   4.165 -0.2600  0.0123 -0.0057
39983W        W82921  27.512   0.846   4.983 -0.0765  0.3683  0.0900
39984W        W82922  25.510  33.612   3.671 -0.4234  0.0185 -0.2504
39985W        W82923  27.707  32.601   6.238 -0.0526 -0.1266  0.1119
39986W        W82924  27.860  33.091   6.630 -0.1177 -0.1053  0.3414
39987W        W82925  27.475  32.440   3.538  0.1312  0.1319 -0.0950
39988W        W82926  26.557  31.292   6.072 -0.0700 -0.3061  0.1330
39989W        W82927  27.846  32.587   6.737 -0.2541  0.0209  0.0855
39990W        W82928  25.151  33.922   4.462 -0.1782  0.1121  0.2253
39991W        W82929  23.844  34.455   5.312 -0.0185 -0.1783  0.1167
39992W        W82930  27.793  33.439   5.316 -0.3003  0.2414 -0.2945
39993W        W82931  25.097  32.960   5.628 -0.2657  0.2001 -0.2565
39994W        W82932  26.542  31.331   5.334 -0.0505 -0.2112  0.2582
39995W        W82933  26.943   0.646   5.795 -0.1807  0.1417 -0.2642
39996W        W82934  27.750  34.327   4.444 -0.1018 -0.0094 -0.0588
39997W        W82935  27.490  34.105   6.432 -0.0393 -0.1064  0.2719
39998W        W82936  25.683  32.989   4.732 -0.1542 -0.0209 -0.0726
39999W        W82937  28.206  33.995   6.065  0.2074  0.2677  0.3084
40000W        W82938  26.259  32.867   5.980  0.0150 -0.1197 -0.0533
40001W        W82939  25.293  33.566   4.121 -0.2089 -0.2636 -0.1089
40002W        W82940  26.934  34.340   6.550  0.0205  0.1029 -0.1066
40003W        W82941  27.066  33.009   6.887 -0.0911  0.2077  0.0312
40004W        W82942  26.348  32.622   5.395 -0.0445 -0.0923 -0.2084
40005W        W82943  27.768  32.991   5.153 -0.1143 -0.2792 -0.0908
40006W        W82944  26.636  33.201   5.111  0.0007  0.2485 -0.0843
40007W        W82945  26.850  32.189   6.029  0.1807  0.0411 -0.3235
40008W        W82946  26.623  34.071   6.293  0.0564  0.1573 -0.0996
40009W        W82947  26.037  33.103   7.195 -0.0467 -0.0238 -0.0144
40010W        W82948  29.174  33.183   4.481 -0.0660 -0.3949 -0.0213
40011W        W82949  26.675  33.086   5.629 -0.0888 -0.0284  0.0665
40012W        W82950  28.989  32.757   5.615  0.0751  0.1240 -0.1695
40013W        W82951  27.890  34.488   3.819  0.2370 -0.0672  0.2990
40014W        W82952  27.674  31.880   6.779 -0.1055  0.0923  0.0636
40015W        W82953  27.121  31.941   6.346  0.1610  0.0633 -0.1879
40016W        W82954  25.490  33.389   6.470 -0.2175  0.0316  0.0761
40017W        W82955  26.340   0.322   7.613  0.2148  0.2162 -0.0923
40018W        W82956  28.884  33.638   4.521  0.0317 -0.1198 -0.3528
40019W        W82957  26.199  33.268   3.111 -0.1136 -0.0473  0.2115
40020W        W82958  25.786  34.067   6.546  0.0077  0.0964  0.1882
40021W        W82959  28.014  32.973   4.567  0.0101 -0.2022 -0.1278
40022W        W82960  25.769   1.681   5.080  0.0622  0.0287  0.0580
40023W        W82961  27.262  33.689   5.038 -0.0468 -0.0812 -0.0163
40024W        W82962  26.447  32.406   6.808  0.2284  0.0416 -0.2569
40025W        W82963  27.060  33.390   5.368  0.1491 -0.0877 -0.2893
40026W        W82964  27.424  32.810   6.607  0.1535  0.2377 -0.2992
40027W        W82965  27.329  34.276   5.702  0.1852 -0.4200 -0.0675
40028W        W82966  26.452   0.214   7.175  0.1641  0.2226  0.0300
40029W        W82967  26.939  32.902   7.474 -0.0025 -0.3657 -0.3787
40030W        W82968  28.191  33.993   3.264 -0.2975  0.0745 -0.2109
40031W        W82969  29.693  33.274   5.075 -0.2439 -0.1423  0.3447
40032W        W82970  27.815  33.533   3.569 -0.0931  0.2619  0.1923
40033W        W82971  26.632  33.921   3.020  0.0683  0.3491 -0.2166
40034W        W82972  25.552  33.172   5.183  0.0073 -0.1851 -0.2255
40035W        W82973  28.644   0.246   7.082 -0.1878 -0.3458 -0.2702
40036W        W82974  25.779  33.137   3.626  0.0274 -0.0476 -0.2788
40037W        W82975  28.295  32.707   6.980 -0.1042  0.0991  0.0002
40038W        W82976  27.054  33.296   4.778  0.2357  0.1972 -0.2221
40039W        W82977  24.848  33.403   3.828  0.0845  0.2978  0.1360
40040W        W82978  25.408  33.630   2.994 -0.2836 -0.2544 -0.2445
40041W        W82979  27.012  33.619   2.974 -0.0023  0.0044  0.0161
40042W        W82980  27.707  32.962   3.550  0.0248 -0.2173  0.2130
40043W        W82981  27.480  33.698   7.237 -0.1699 -0.0249  0.2529
40044W        W82982  27.445  32.458   7.096  0.3118  0.2900  0.0921
40045W        W82983  27.870  32.808   7.267  0.1063 -0.0461  0.4293
40046W        W82984  27.663  32.185   4.482 -0.0015 -0.2700  0.3686
40047W        W82985  26.711   0.708   5.249  0.0486 -0.1991  0.1202
40048W        W82986  29.406   0.020   6.341 -0.0422  0.3263  0.0254
40049W        W82987  26.618  32.728   4.830 -0.1419  0.1628  0.0659
40050W        W82988  25.494  32.327   6.785 -0.1682  0.0290  0.0318
40051W        W82989  26.788  31.849   3.504  0.0013  0.0995  0.0250
40052W        W82990  26.253  33.804   5.095 -0.0310 -0.0626 -0.4192
40053W        W82991  28.811  33.336   3.991  0.0635  0.0278  0.0887
40054W        W82992  28.932   0.294   4.613 -0.1728 -0.0931  0.1370
40055W        W82993  29.255  34.664   4.801 -0.1767 -0.2083  0.0155
40056W        W82994  26.441  33.623   6.416 -0.2657  0.0042 -0.1413
40057W        W82995  26.170  34.063   4.529  0.0829 -0.0791  0.1694
40058W        W82996  27.418  34.571   6.191  0.1778  0.1418 -0.3188
40059W        W82997  28.855  31.742   7.250 -0.1413 -0.0809  0.3250
40060W        W82998  23.804  33.251   5.807 -0.0530  0.2901  0.0490
40061W        W82999  25.943  33.686   6.800  0.0828  0.2408  0.2915
40062W        W83000  29.642  33.267   4.517  0.1227  0.0311 -0.0798
40063W        W83001  26.769  33.886   6.857  0.0974 -0.3994  0.1436
40064W        W83002  25.299  31.845   3.092 -0.2475  0.1999  0.1673
40065W        W83003  28.867  33.729   5.033  0.1136  0.0901  0.0773
40066W        W83004  27.464  33.584   6.205  0.2608  0.2261  0.1215
40067W        W83005  28.381  31.850   7.203 -0.0601  0.1283  0.1991
40068W        W83006  28.076  33.951   5.265  0.0205  0.0026  0.0037
40069W        W83007  27.613  32.771   4.302  0.0294 -0.2837 -0.0902
40070W        W83008  25.882  32.704   5.295 -0.1171  0.0179 -0.1201
40071W        W83009  27.537  33.310   4.862 -0.1248 -0.0892  0.3171
40072W        W83010  29.331  32.924   6.055  0.0808 -0.3215  0.1376
40073W        W83011  26.799  33.620   3.444  0.4156 -0.1966  0.2134
40074W        W83012  26.299  33.107   4.055  0.3169  0.1888  0.3302
40075W        W83013  26.597  31.055   3.012  0.2423 -0.1206 -0.1489
40076W        W83014  25.701  34.034   5.242 -0.1663  0.0508  0.2060
40077W        W83015  27.163  33.983   6.077  0.1313  0.0114  0.1592
40078W        W83016  26.507  32.525   2.763 -0.0551  0.0337 -0.3544
40079W        W83017  27.905  34.358   4.984  0.0226 -0.0593  0.0980
40080W        W83018  27.770  33.791   5.858 -0.4083 -0.2468 -0.4239
40081W        W83019  25.128   0.090   6.177 -0.1782 -0.2305 -0.1919
40082W        W83020  27.592  32.585   4.801 -0.0819  0.1101  0.0509
40083W        W83021  26.022  32.201   5.179  0.0608 -0.3393 -0.0527
40084W        W83022  27.589  33.080   6.182 -0.1147 -0.2349 -0.1220
40085W        W83023  28.310  33.082   6.432 -0.1377  0.1141 -0.3291
40086W        W83024  27.741  32.315   7.470  0.1366  0.0383 -0.0725
40087W        W83025  26.619  33.953   4.293  0.0322 -0.0712 -0.3610
40088W        W83026  27.324  32.872   3.936 -0.2902  0.0943 -0.0178
40089W        W83027  29.815  34.007   4.709  0.3132  0.4999  0.0709
40090W        W83028  26.832  32.711   4.051  0.0523 -0.0865 -0.0520
40091W        W83029  27.183   0.853   6.709 -0.0047  0.2896 -0.3115
40092W        W83030  24.232  34.337   3.575  0.2807 -0.1219 -0.0166
40093W        W83031  26.633  32.805   8.375 -0.0109  0.1367 -0.1377
40094W        W83032  25.863  33.193   6.741 -0.0840 -0.0639 -0.2066
40095W        W83033  25.383  33.588   5.483 -0.3785 -0.2693 -0.0662
40096W        W83034  26.592  32.293   5.043 -0.0719  0.2706  0.1013
40097W        W83035  24.713  32.765   5.889 -0.0961 -0.3845 -0.1895
40098W        W83036  26.676  32.216   4.530 -0.1488 -0.2947  0.0454
40099W        W83037  26.063  32.319   5.673 -0.3103  0.0610 -0.0855
40100W        W83038  28.203  33.631   5.680 -0.3204  0.2038 -0.0447
40101W        W83039  26.542  31.198   7.209  0.2169  0.0943 -0.1691
40102W        W83040  24.482  33.264   3.508 -0.0846 -0.0892  0.0339
40103W        W83041  28.743  33.130   5.384  0.2758 -0.0364  0.0636
40104W        W83042  25.490  31.918   6.235 -0.0941 -0.1403  0.1081
40105W        W83043  27.461  32.257   6.575 -0.1516 -0.1326  0.3507
40106W        W83044  27.035  33.911   4.690 -0.0207  0.4613 -0.0866
40107W        W83045  26.107  31.437   6.301 -0.5522  0.1692  0.0946
40108W        W83046  25.945  32.217   3.943  0.1541  0.1607  0.0750
40109W        W83047  27.845  32.153   6.014  0.2016 -0.0041 -0.3729
40110W        W83048  25.807  33.635   7.241  0.0457  0.2174  0.0887
40111W        W83049  26.291  34.676   3.613 -0.0900  0.1920 -0.0954
40112W        W83050  26.813  33.639   5.963 -0.1700 -0.1087  0.1056
40113W        W83051  26.227  34.072   4.010 -0.2688 -0.2211 -0.1332
40114W        W83052  27.620   0.168   3.622 -0.1248  0.1291  0.1711
40115W        W83053  26.782  32.671   5.853  0.0328  0.0605  0.1361
40116W        W83054  25.262  34.163   4.975 -0.2586  0.1756 -0.1043
40117W        W83055  26.549  34.187   5.336  0.0578 -0.0687 -0.2214
40118W        W83056  27.245  33.304   5.885  0.1356 -0.1446 -0.0057
40119W        W83057  27.127  32.394   5.616  0.0753  0.0873  0.0418
40120W        W83058  26.112  33.096   4.580  0.2186  0.3156  0.0365
40121W        W83059  26.811  34.390   7.062 -0.1567  0.3393 -0.0457
40122W        W83060  28.406  33.839   7.771  0.3426  0.0641  0.1210
40123W        W83061  29.784  34.190   9.045  0.0600  0.1481  0.2438
40124W        W83062  26.320  32.892   7.955  0.1056 -0.1889  0.4942
40125W        W83063  27.862  33.780   6.412 -0.0694 -0.1514 -0.2511
40126W        W83064  26.456  32.620   9.248 -0.2396 -0.1383 -0.0180
40127W        W83065  27.367  31.909   8.282 -0.0263  0.1470  0.2576
40128W        W83066  25.012  32.343   9.686 -0.1653  0.3236 -0.1967
40129W        W83067  28.084  34.428   8.868 -0.0290 -0.3958 -0.2201
40130W        W83068  24.952   0.280   8.045 -0.0944  0.1255 -0.1255
40131W        W83069  26.451  33.362   9.615 -0.0316 -0.0524 -0.2654
40132W        W83070  26.449  33.430   8.166  0.3177  0.5074 -0.1036
40133W        W83071  28.341  32.620   9.328 -0.0659  0.1616 -0.2256
40134W        W83072  25.471  33.367   6.954  0.0211  0.2515  0.1098
40135W        W83073  25.688  30.238  10.115  0.0166 -0.0296 -0.3161
40136W        W83074  25.520   0.315   9.438 -0.5053 -0.0631 -0.3070
40137W        W83075  26.325  32.856   9.672  0.2235 -0.0533  0.0354
40138W        W83076  27.462   0.307   9.665 -0.0435  0.1411 -0.2323
40139W        W83077  28.262  33.304  10.028 -0.2370  0.3120  0.2775
40140W        W83078  28.528   0.388   7.648 -0.2794  0.0920  0.1248
40141W        W83079  27.745  33.955   6.925 -0.0425  0.1184  0.1284
40142W        W83080  27.542  33.186   7.074  0.1281 -0.2461  0.0944
40143W        W83081  28.351  33.890   8.825  0.1044 -0.3124 -0.0932
40144W        W83082  27.644  32.358   8.454 -0.3019 -0.1578 -0.2038
40145W        W83083  25.222  32.935   8.769 -0.2042 -0.0542  0.0805
40146W        W83084  25.994  32.811   7.580  0.0014  0.1749  0.2581
40147W        W83085  27.215  33.669   9.575  0.3147 -0.0598  0.0026
40148W        W83086  25.621   0.028   8.787  0.0065 -0.2075 -0.2406
40149W        W83087  25.208  34.383   8.119 -0.2316  0.3023 -0.1757
40150W        W83088  25.868  33.182   7.908  0.0503 -0.1406  0.1564
40151W        W83089  28.849  33.431   8.833 -0.2568 -0.2192 -0.2402
40152W        W83090  27.556  32.264   9.177 -0.1203 -0.1872 -0.1583
40153W        W83091  28.465  33.487   9.119  0.2818 -0.3587 -0.0493
40154W        W83092  28.903  33.821   7.947  0.1647  0.4214  0.2277
40155W        W83093  28.386  30.341   9.960  0.1589 -0.3471  0.0144
40156W        W83094  28.246  33.375   7.352  0.0134 -0.0523  0.0301
40157W        W83095  26.784  32.639   7.854  0.3099  0.0491  0.1918
40158W        W83096  28.639  33.854   8.473  0.3023  0.0562 -0.1133
40159W        W83097  25.137  32.739  10.039 -0.2446 -0.0620 -0.1090
40160W        W83098  25.641  33.199   7.468  0.0014 -0.1587  0.1634
40161W        W83099  26.979  32.786   9.997  0.0301  0.2002  0.0171
40162W        W83100  25.768  31.877   7.607 -0.0052  0.0782 -0.0179
40163W        W83101  27.557  33.140   9.103 -0.0046 -0.0513 -0.2613
40164W        W83102  27.764  34.602   7.595 -0.0181 -0.1015  0.3896
40165W        W83103  27.114  34.610   9.610 -0.1545  0.1558  0.0069
40166W        W83104  25.990  34.090   7.521  0.0152 -0.0201  0.1181
40167W        W83105  25.509  33.270   9.398  0.0240 -0.0533 -0.1283
40168W        W83106  27.659  34.616   9.336  0.1089 -0.0012  0.0261
40169W        W83107  26.135  31.383   6.935 -0.1969  0.0499 -0.2689
40170W        W83108  25.548   0.391   7.489 -0.0741  0.0968 -0.0703
40171W        W83109  28.067  32.387   8.963  0.1194 -0.1571 -0.3337
40172W        W83110  26.217  33.589   7.610  0.1726 -0.0522 -0.1595
40173W        W83111  26.704  33.698   7.801  0.2224 -0.1396  0.0576
40174W        W83112  29.187  33.001   8.882  0.2797 -0.1881  0.1516
40175W        W83113  28.069  32.944   7.742 -0.1266  0.2156  0.1445
40176W        W83114  28.548  33.471   8.104  0.2981  0.3169 -0.2447
40177W        W83115  28.546  32.976   7.487  0.0260  0.1777  0.0647
40178W        W83116  28.087  31.582  10.257 -0.0888 -0.1237  0.4285
40179W        W83117  26.939  34.571   5.486  0.0221 -0.2933 -0.2733
40180W        W83118  26.788  32.832   8.883 -0.0838 -0.0063  0.0868
40181W        W83119  27.506  33.585   8.834 -0.0599 -0.1622 -0.0335
40182W        W83120  28.044  33.053   9.115  0.0865 -0.2886  0.1870
40183W        W83121  28.102  33.629   8.434  0.0364 -0.3131 -0.0020
40184W        W83122  27.314  34.068   8.889 -0.2328  0.2645 -0.1166
40185W        W83123  26.769   0.555   6.763 -0.3238  0.2269  0.0476
40186W        W83124  28.159  32.524  10.288  0.0645 -0.2400 -0.2550
40187W        W83125  26.496  32.546   7.361  0.0304 -0.0355 -0.1495
40188W        W83126  25.603  33.693   9.194 -0.2869 -0.0947  0.1427
40189W        W83127  27.849  33.099  10.228 -0.2752 -0.4537  0.1878
40190W        W83128  27.952  34.380   7.073 -0.0774  0.3241 -0.2607
40191W        W83129  25.860  34.174   9.241 -0.1617  0.0461  0.1437
40192W        W83130  29.118  32.647   8.130  0.2371 -0.0608  0.3343
40193W        W83131  26.279  32.059   9.663  0.1354 -0.1595 -0.0271
40194W        W83132  25.793  32.734   8.618  0.2000  0.1237 -0.1103
40195W        W83133  27.397  31.962   7.245 -0.3149 -0.2555  0.1205
40196W        W83134  25.064  33.397   9.198 -0.1778  0.1273 -0.0591
40197W        W83135  29.823  34.590   9.448  0.1498 -0.0878 -0.0622
40198W        W83136  25.308  34.238   9.575 -0.0244  0.0381  0.1741
40199W        W83137  27.547  33.729   7.782 -0.2311  0.1029 -0.0098
40200W        W83138  28.243   1.773   9.510  0.0945 -0.1988 -0.1488
40201W        W83139  27.626  32.550  10.405  0.0415  0.0513  0.2637
40202W        W83140  25.355  33.471   8.853 -0.0555  0.1700 -0.1755
40203W        W83141  24.773  33.913  10.037 -0.0488  0.2599  0.3410
40204W        W83142  25.894  34.450  10.018 -0.2416 -0.0817 -0.3126
40205W        W83143  27.190  32.657   8.629 -0.0070  0.1920 -0.3967
40206W        W83144  28.851  31.956   9.946 -0.0408  0.0493 -0.2531
40207W        W83145  28.916  33.099   7.955 -0.4225 -0.1727 -0.0479
40208W        W83146  28.061  33.420   7.888  0.2697 -0.1472 -0.0918
40209W        W83147  27.138  34.096   7.908  0.0702  0.3694  0.2377
40210W        W83148  24.868  30.675   9.311 -0.0415 -0.0807  0.2629
40211W        W83149  27.273  34.514   7.311  0.0957 -0.3387  0.0666
40212W        W83150  27.341  31.989   7.774 -0.2418 -0.0359  0.2202
40213W        W83151  26.141   1.219   9.855  0.0499 -0.4065 -0.0652
40214W        W83152  27.878  33.230   8.657  0.0661 -0.4297  0.1961
40215W        W83153  25.864  31.706   9.799  0.1816  0.2542 -0.0916
40216W        W83154  28.445  33.360   8.601 -0.0340  0.0241 -0.0896
40217W        W83155  26.444  33.775   8.598 -0.0443  0.2325  0.4264
40218W        W83156  28.369  33.693   6.602 -0.2626  0.3358 -0.1569
40219W        W83157  28.285   0.355   8.960  0.0192 -0.2144  0.0582
40220W        W83158  29.926  33.178   8.164 -0.2595  0.4935 -0.1267
40221W        W83159  27.573  34.164   7.395  0.2649 -0.0988 -0.0202
40222W        W83160  25.477   0.128   8.220  0.0460  0.1476 -0.2415
40223W        W83161  26.006  32.574   7.069 -0.2737  0.0373 -0.0110
40224W        W83162  26.913  33.567   8.697 -0.1422 -0.1501 -0.0005
40225W        W83163  27.008   0.037  10.185  0.3423  0.1049  0.2326
40226W        W83164  25.503  32.708   7.657 -0.1077 -0.2466  0.2813
40227W        W83165  26.761  33.942   8.255 -0.1176  0.1487 -0.1446
40228W        W83166  28.567  32.160   7.813  0.2142  0.0143 -0.1423
40229W        W83167  27.964  32.184   9.464 -0.0767 -0.0970  0.1138
40230W        W83168  27.978  33.583   8.973 -0.3304  0.1798 -0.0578
40231W        W83169  27.612  31.657  10.257  0.2116 -0.0317  0.0447
40232W        W83170  28.734  33.980   9.293  0.2756 -0.1168 -0.0023
40233W        W83171  26.553   1.650   8.028 -0.1288 -0.1512 -0.1056
40234W        W83172  26.236  31.936   7.901  0.2804 -0.0731  0.2439
40235W        W83173  26.492  34.183   7.623 -0.4678  0.0380 -0.4343
40236W        W83174  28.742  33.425   7.599  0.0691  0.1848 -0.0069
40237W        W83175  29.037  33.413   8.317  0.2005 -0.0109  0.0428
40238W        W83176  28.571  34.232   8.169  0.0338 -0.2313 -0.1549
40239W        W83177  28.031  34.166  10.048  0.0215 -0.2159 -0.1375
40240W        W83178  28.745  32.903   8.405 -0.1030  0.0434 -0.1174
40241W        W83179  26.073  33.080   8.426  0.0199 -0.1047  0.1585
40242W        W83180  27.258  33.974   8.395  0.1048  0.0517 -0.1081
40243W        W83181  30.761  33.009   8.645  0.0734  0.1165 -0.0427
40244W        W83182  26.907  32.413   9.176  0.1691  0.2007 -0.0033
40245W        W83183  24.852  34.438   7.792 -0.2584 -0.0272 -0.1492
40246W        W83184  29.980  31.679   8.496  0.3020  0.0107 -0.1424
40247W        W83185  26.849  34.036   8.746 -0.0267  0.1394 -0.3698
40248W        W83186  27.645  34.291   8.071 -0.0154  0.0770 -0.1831
40249W        W83187  28.345  33.113   9.530  0.0448 -0.0265  0.0966
40250W        W83188  23.437   2.064   9.825 -0.0600  0.1528 -0.1063
40251W        W83189  26.934  33.935   7.381 -0.2066  0.1570  0.3224
40252W        W83190  28.182  34.117   6.553 -0.0547 -0.2423 -0.0702
40253W        W83191  26.107  31.498   8.083 -0.1726 -0.2945  0.1737
40254W        W83192  28.245  34.580   7.904 -0.2018 -0.0942  0.2042
40255W        W83193  25.318   0.589   7.975  0.1691  0.1485 -0.1564
40256W        W83194  26.525  33.135   9.216 -0.0151  0.0186  0.1339
40257W        W83195  25.246  32.045   8.313  0.3585  0.3372  0.1294
40258W        W83196  27.964  34.045   9.586 -0.2154 -0.0626 -0.0650
40259W        W83197  27.792  34.011   8.616  0.0054  0.1723  0.2347
40260W        W83198  26.913  31.087  10.394 -0.1336  0.1107  0.2310
40261W        W83199  28.084  32.611   8.443 -0.0560 -0.1236  0.1702
40262W        W83200  25.401  33.142   9.894 -0.1808 -0.3964  0.0150
40263W        W83201  27.642  33.544   9.346 -0.1979 -0.1558 -0.1112
40264W        W83202  28.256  33.091   8.222  0.0163  0.0368 -0.3019
40265W        W83203  26.104  33.646   8.981  0.2989 -0.1968 -0.0655
40266W        W83204  28.868  32.237   8.180  0.2337  0.4043 -0.0394
40267W        W83205  27.122  33.182   8.920  0.1128 -0.2225 -0.0184
40268W        W83206  27.233  34.488   9.084  0.3140 -0.1449 -0.3544
40269W        W83207  26.438  33.050   7.506 -0.0179 -0.1757  0.0197
40270W        W83208  26.643  34.489   9.066  0.4492  0.2810  0.3038
40271W        W83209  26.061  33.814   8.074  0.0232  0.0466 -0.2535
40272W        W83210  25.150  31.977   9.993 -0.0263  0.1452 -0.1622
40273W        W83211  25.595  33.869   9.711  0.1224  0.0042  0.0705
40274W        W83212  26.215  32.132   7.437  0.0192  0.0384  0.0228
40275W        W83213  25.359  33.418   5.986 -0.2902  0.1394 -0.1909
40276W        W83214  27.456  32.801  10.800  0.2099 -0.0812 -0.0469
40277W        W83215  26.519   0.720   9.937 -0.0438  0.0963  0.0498
40278W        W83216  29.141  31.190  10.242 -0.3569 -0.3017 -0.1319
40279W        W83217  27.717   0.733   7.880 -0.0011  0.0150  0.1480
40280W        W83218  26.915  33.230   8.340 -0.0901 -0.3402  0.0562
40281W        W83219  26.820  33.175   7.843 -0.3356  0.2099  0.2392
40282W        W83220  24.652   0.268   9.050  0.1136  0.0380  0.2999
40283W        W83221  28.514  33.216   6.975  0.0925  0.1304  0.1259
40284W        W83222  27.480  33.535   6.733  0.2260  0.1750 -0.0161
40285W        W83223  28.657  34.452   7.641  0.0074 -0.0787 -0.0278
40286W        W83224  27.942  31.093   9.333 -0.1268  0.2326  0.1234
40287W        W83225  24.746   0.881   6.855 -0.3300  0.0471 -0.0750
40288W        W83226  27.947  33.800   7.485  0.1365  0.0690 -0.1968
40289W        W83227  28.374  33.810   9.942  0.3148 -0.1272 -0.1124
40290W        W83228  26.027  33.191   9.258  0.2419  0.1625 -0.0234
40291W        W83229  28.528  32.414   8.524 -0.1593  0.2903  0.0959
40292W        W83230  28.161   3.162   2.555  0.0386 -0.2546 -0.3746
40293W        W83231  30.721   0.147   0.522  0.2369  0.0748 -0.2568
40294W        W83232  33.802  34.423   0.807  0.1614  0.1712  0.0191
40295W        W83233  33.538   1.290   1.547  0.2901  0.2046  0.2404
40296W        W83234  30.049   0.650   0.979  0.1935  0.1078 -0.0933
40297W        W83235  32.263   2.651   1.003  0.0077 -0.1349 -0.3682
40298W        W83236  28.794  34.032   3.300 -0.3186 -0.0508 -0.1236
40299W        W83237  30.626   2.371   2.007  0.0125 -0.0154 -0.1786
40300W        W83238  32.929   2.219   2.248  0.1412 -0.3502 -0.0381
40301W        W83239  30.537   3.492   3.154  0.0549 -0.1669  0.2422
40302W        W83240  30.448   1.389   1.518 -0.1649 -0.1825 -0.0190
40303W        W83241  30.219   3.485   2.674  0.2451 -0.0865  0.2646
40304W        W83242  31.046  34.006   0.112  0.1204  0.1198  0.0912
40305W        W83243  29.661  33.804   2.068 -0.1046  0.0329  0.0643
40306W        W83244  31.151   0.096   0.841  0.1547 -0.1512  0.1517
40307W        W83245  29.272  34.621   1.635 -0.1136 -0.1124 -0.1070
40308W        W83246  29.751   2.157   2.886 -0.0169 -0.0768  0.0015
40309W        W83247  30.840   0.021  30.573  0.0104 -0.1590 -0.3225
40310W        W83248  31.129   4.496   1.226  0.1610  0.0491  0.0830
40311W        W83249  29.762   1.492   2.081 -0.1686  0.3722 -0.1599
40312W        W83250  31.426   1.733   2.114 -0.0495 -0.1810  0.1775
40313W        W83251  30.122   2.468   1.832 -0.0005  0.0913  0.1891
40314W        W83252  29.815   1.100  31.427 -0.0318  0.2296 -0.1243
40315W        W83253  29.997   1.323   1.356  0.0179  0.1228  0.0562
40316W        W83254  31.119   0.435   2.224 -0.0451 -0.1236  0.1930
40317W        W83255  33.345   1.500   1.971 -0.3149 -0.3256 -0.1165
40318W        W83256  31.786   0.417   1.700 -0.4548  0.3772 -0.0009
40319W        W83257  29.559   3.768   1.841 -0.3481 -0.0798  0.0715
40320W        W83258  31.030   3.708   2.281  0.0137  0.4266  0.0484
40321W        W83259  31.196   1.998   2.572  0.2172 -0.1032 -0.0155
40322W        W83260  29.452   2.170   1.094 -0.1429 -0.1884 -0.1144
40323W        W83261  29.536   2.898   1.516 -0.1631 -0.1184 -0.1976
40324W        W83262  30.269   1.157  31.613 -0.0306  0.1117 -0.0279
40325W        W83263  32.915   1.503   1.108  0.2758  0.0082  0.0499
40326W        W83264  31.172   2.849   3.150  0.0896  0.0039 -0.0116
40327W        W83265  30.798   4.567   3.316  0.1632  0.0768 -0.0906
40328W        W83266  31.051   1.714   0.785  0.1396 -0.3608  0.0331
40329W        W83267  29.548   3.060   2.908  0.0580 -0.0673 -0.2222
40330W        W83268  28.977   2.921   1.612 -0.4170  0.0401  0.1330
40331W        W83269  31.395   1.280   3.736  0.0477 -0.0422  0.0919
40332W        W83270  31.615   0.797   0.433 -0.0721 -0.3558 -0.0011
40333W        W83271  30.920   3.305  31.899 -0.0336  0.1572  0.2625
40334W        W83272  30.238   1.884   1.419 -0.1894  0.0025  0.1188
40335W        W83273  29.800   3.096   3.529 -0.1731 -0.3656 -0.0308
40336W        W83274  28.185   2.394  31.634 -0.2276 -0.1265 -0.0423
40337W        W83275  33.845   0.483   3.044  0.1113  0.0659 -0.1693
40338W        W83276  28.926   3.058  31.702  0.1291  0.2448  0.0146
40339W        W83277  32.105   0.669   0.590  0.1171 -0.2040  0.4687
40340W        W83278  30.255   0.519   0.008  0.3671 -0.1417  0.1641
40341W        W83279  34.536   0.898  31.918  0.5144 -0.1785  0.2062
40342W        W83280  30.602  34.461   1.883 -0.2417 -0.0026 -0.0687
40343W        W83281  28.707   2.181   2.187 -0.1088  0.2649 -0.1437
40344W        W83282  29.524   1.435   1.607 -0.1595  0.1135  0.0261
40345W        W83283  31.960   3.133   4.658 -0.4271  0.1864 -0.0168
40346W        W83284  31.507   0.860   1.080 -0.2276 -0.2313  0.1118
40347W        W83285  32.184   0.629   2.078 -0.0777 -0.0606 -0.1501
40348W        W83286  30.768   3.242   2.413 -0.0279 -0.1432 -0.0791
40349W        W83287  30.574   0.134   1.359  0.1182  0.0877  0.1520
40350W        W83288  32.776   3.711   0.356  0.1892  0.1374  0.2154
40351W        W83289  32.206   0.671   1.393 -0.0672  0.0339  0.0074
40352W        W83290  30.687   3.384   1.395  0.4343 -0.0644 -0.0460
40353W        W83291  30.202   0.284   0.607 -0.2823 -0.1617  0.1129
40354W        W83292  29.443   2.121   3.253  0.3115  0.0059  0.0398
40355W        W83293  28.172   1.454   3.530  0.1704  0.0974 -0.3566
40356W        W83294  30.702  34.217  31.049 -0.0955  0.2606 -0.0667
40357W        W83295  33.182   2.144   2.738  0.1301 -0.1751  0.1848
40358W        W83296  28.670   4.693   4.460  0.0146 -0.2338  0.2285
40359W        W83297  31.715  33.883   1.103 -0.0090  0.1084 -0.0784
40360W        W83298  28.811   2.612   4.040  0.1090  0.0973  0.0933
40361W        W83299  32.387   0.809   2.622  0.1783 -0.2820 -0.1051
40362W        W83300  32.822   2.007   0.412 -0.3397 -0.2751  0.3716
40363W        W83301  31.648   0.243   2.261 -0.2327  0.1059 -0.1316
40364W        W83302  29.745   0.699   2.452  0.1830  0.0180 -0.1145
40365W        W83303  31.505   1.207  31.866 -0.0675  0.2620 -0.0940
40366W        W83304  31.267   0.904   1.690 -0.1390  0.0310 -0.0076
40367W        W83305  33.396   2.424   3.597 -0.0710  0.2236  0.0020
40368W        W83306  32.134   0.115   1.283  0.0303 -0.2083  0.1256
40369W        W83307  29.682   1.025   2.956 -0.1655 -0.2588 -0.0362
40370W        W83308  30.647   2.008   4.239 -0.1240 -0.3650  0.1098
40371W        W83309  29.259   3.128   3.460  0.0894  0.0506  0.4236
40372W        W83310  29.225   2.994   1.127  0.1345 -0.0944 -0.2011
40373W        W83311  28.531   1.965   0.727  0.1279 -0.0036 -0.3370
40374W        W83312  30.190   2.859  31.699  0.2761  0.1183  0.0931
40375W        W83313  29.019   1.128   3.574  0.2320 -0.0365 -0.0506
40376W        W83314  28.719   2.676   1.910  0.0115 -0.2780  0.0537
40377W        W83315  32.547   0.041   1.016  0.0267  0.0200 -0.0287
40378W        W83316  28.894   0.162   4.068 -0.1599 -0.2663  0.2411
40379W        W83317  31.805  34.564  31.820 -0.0438 -0.0166 -0.1538
40380W        W83318  30.501   1.124   0.071  0.1053 -0.0578  0.1403
40381W        W83319  33.007   3.910   1.655 -0.2851 -0.0800  0.0512
40382W        W83320  32.982   0.617   0.807 -0.0122 -0.2129  0.0449
40383W        W83321  33.066   2.633  30.620 -0.2413  0.2496 -0.0196
40384W        W83322  29.125   2.154   0.656  0.2047 -0.1170  0.2305
40385W        W83323  30.383  33.936   0.422 -0.3300 -0.0264  0.0840
40386W        W83324  29.345   0.453   3.758  0.1962  0.1618 -0.5637
40387W        W83325  29.150  34.420   2.600 -0.2279  0.0687  0.2433
40388W        W83326  31.804   1.077   1.953  0.2732  0.1159 -0.1845
40389W        W83327  29.943  34.543  30.088 -0.1686  0.1513 -0.1205
40390W        W83328  33.012   0.621   1.394  0.0395 -0.2570 -0.1881
40391W        W83329  28.759   1.547   0.131  0.2122  0.1004 -0.1589
40392W        W83330  30.844   1.995   0.397 -0.0530  0.1771  0.0105
40393W        W83331  32.253  34.605   2.938 -0.0851 -0.0634 -0.0908
40394W        W83332  31.032   3.837   0.631  0.1090 -0.2661  0.0867
40395W        W83333  33.061   3.141   2.977  0.0157 -0.0972  0.0425
40396W        W83334  32.595   2.647   2.153 -0.0951 -0.0481 -0.0372
40397W        W83335  29.691   0.626   4.105 -0.0272 -0.0295  0.1834
40398W        W83336  28.967  33.814  30.244 -0.1316 -0.0982  0.0906
40399W        W83337  28.660   2.831   1.244  0.0288 -0.3190 -0.0407
40400W        W83338  29.352   2.868   1.955 -0.1369 -0.1287 -0.5528
40401W        W83339  30.970   0.687   1.232  0.1167 -0.6864 -0.2564
40402W        W83340  32.604   1.875   1.414  0.3417 -0.0329 -0.2669
40403W        W83341  30.235   3.202   1.485  0.0123 -0.1128 -0.2972
40404W        W83342  28.525   2.747   2.529  0.0841  0.0659 -0.0681
40405W        W83343  29.497   0.120   2.619  0.5929 -0.0982  0.1875
40406W        W83344  32.753   2.343   2.768  0.0727 -0.1371  0.0287
40407W        W83345  31.697   0.272   0.316  0.1482  0.0016  0.0893
40408W        W83346  29.425  33.746   1.590  0.3295  0.2549 -0.0574
40409W        W83347  31.195   2.189   2.002 -0.1059 -0.0604 -0.2698
40410W        W83348  28.553   2.343   0.414  0.1154  0.0195 -0.0819
40411W        W83349  29.343   0.147   0.065  0.1233  0.4953 -0.3124
40412W        W83350  29.980   2.057  31.947 -0.2802 -0.0496 -0.1607
40413W        W83351  31.326  34.633   0.416 -0.0764 -0.1422 -0.2902
40414W        W83352  29.469   2.598   3.616  0.0612 -0.2834  0.0817
40415W        W83353  31.451   2.424   3.786 -0.3366 -0.0661 -0.0021
40416W        W83354  29.472   0.119  31.539  0.2687 -0.0458 -0.1942
40417W        W83355  27.695   1.788   2.746 -0.3133 -0.0540 -0.0157
40418W        W83356  31.386  34.244   1.279  0.3346 -0.1574 -0.0790
40419W        W83357  33.152   0.397  31.904 -0.1554  0.1907 -0.0205
40420W        W83358  31.588   1.272   2.439  0.1334  0.0177 -0.3799
40421W        W83359  31.521   1.313   0.768 -0.0784  0.4034  0.3323
40422W        W83360  30.557   0.209  31.542  0.1291  0.4573  0.0274
40423W        W83361  32.141  34.623  31.353 -0.1765 -0.0434  0.0169
40424W        W83362  27.997   3.631   4.575  0.1637 -0.3821  0.0781
40425W        W83363  30.960   2.357   0.776 -0.0182  0.0959 -0.1234
40426W        W83364  30.486   2.306   1.515 -0.0314 -0.1873  0.3502
40427W        W83365  31.589   0.468  30.946 -0.1562  0.2258 -0.1700
40428W        W83366  33.186   3.084   0.933 -0.3055 -0.1800 -0.0610
40429W        W83367  30.025   2.202   1.013  0.1804 -0.0434 -0.2939
40430W        W83368  31.531   2.981   2.833  0.1095 -0.1395 -0.2839
40431W        W83369  32.430   2.378   1.367 -0.2258  0.1429  0.2780
40432W        W83370  30.315   1.334   2.908 -0.0826 -0.0399  0.1430
40433W        W83371  31.298   1.700   0.300  0.1101  0.2103 -0.1271
40434W        W83372  31.671   0.455   0.820  0.0529  0.1413  0.1645
40435W        W83373  27.677   2.460  31.892  0.1444 -0.1760 -0.2474
40436W        W83374  32.109  33.641   1.972  0.3067 -0.2760 -0.0078
40437W        W83375  31.744   0.073   2.787 -0.1311  0.1716  0.1000
40438W        W83376  30.141  33.840   2.221 -0.0550  0.0283  0.0838
40439W        W83377  31.504   1.982   2.969  0.0988 -0.3451  0.0111
40440W        W83378  32.043   1.100   0.199  0.2451 -0.0484  0.3015
40441W        W83379  31.570   0.059   1.318 -0.1286  0.0522  0.2108
40442W        W83380  30.539   1.920  31.225 -0.3901  0.1907 -0.0673
40443W        W83381  30.814   1.595   3.217  0.2119 -0.2055 -0.0924
40444W        W83382  29.108   1.462   2.511  0.3116 -0.3183 -0.3683
40445W        W83383  28.208   2.811   2.027  0.3563  0.2224  0.1215
40446W        W83384  32.463   2.784   2.934 -0.5511  0.2612 -0.2313
40447W        W83385  30.514   2.845   1.195 -0.1526 -0.0806  0.0327
40448W        W83386  30.421   1.010   4.186 -0.1012 -0.3045 -0.0445
40449W        W83387  30.823   0.389  31.920 -0.3799  0.0518  0.0069
40450W        W83388  30.352   3.597   1.123  0.0082 -0.0232 -0.0706
40451W        W83389  31.471   1.333   1.243  0.0646 -0.1953  0.0236
40452W        W83390  29.439  34.442   1.100 -0.0714 -0.1227  0.1361
40453W        W83391  29.991   2.940   1.813 -0.1297 -0.1107  0.3291
40454W        W83392  29.971   3.186  31.106  0.2094 -0.1651 -0.0032
40455W        W83393  31.392   2.990   3.803 -0.0528  0.0283 -0.1790
40456W        W83394  29.715   4.001   2.241  0.2945 -0.3729 -0.1613
40457W        W83395  33.020  33.468   2.406 -0.0454  0.3688 -0.2148
40458W        W83396  29.855   3.469   1.119  0.2439  0.1864 -0.2252
40459W        W83397  32.022   0.041   1.968  0.2313 -0.2571 -0.0970
40460W        W83398  29.189   0.527  31.726  0.0969  0.2734 -0.3747
40461W        W83399  32.539  34.340   2.256  0.0867 -0.1759  0.0573
40462W        W83400  31.523   1.815   1.211 -0.2153  0.2074  0.0870
40463W        W83401  30.277   1.148   2.306 -0.2836  0.3993 -0.1265
40464W        W83402  30.586   0.242   2.182 -0.0758 -0.1229 -0.1106
40465W        W83403  29.131   1.942   2.459 -0.4003  0.0410 -0.1102
40466W        W83404  31.866   2.628   3.669  0.1022 -0.1545  0.0480
40467W        W83405  31.056   0.337  31.384  0.1531 -0.2017 -0.0284
40468W        W83406  31.856   2.215   2.665  0.0414  0.0653 -0.4229
40469W        W83407  29.812   0.795   4.534  0.1002 -0.1281 -0.2489
40470W        W83408  30.597   0.495   0.958  0.0101 -0.2614 -0.2659
40471W        W83409  31.303   1.502   2.826 -0.0311 -0.3166  0.0387
40472W        W83410  31.620   1.466   1.685 -0.0866 -0.4748  0.0758
40473W        W83411  30.353   2.258  31.568 -0.1211  0.3862  0.1409
40474W        W83412  32.726   1.881   2.539 -0.2126 -0.1606  0.2921
40475W        W83413  32.021   1.015   0.973 -0.1531 -0.0378 -0.0963
40476W        W83414  29.394   2.913  31.384  0.0974 -0.1280 -0.3041
40477W        W83415  30.377   0.935   1.210 -0.0626  0.0348 -0.3432
40478W        W83416  32.284   1.762   1.827 -0.2220  0.0138  0.0662
40479W        W83417  30.919   0.124   1.785 -0.0006 -0.1487  0.0099
40480W        W83418  30.559   1.931   0.878 -0.3604  0.1870 -0.2237
40481W        W83419  30.269   1.993   1.965  0.1393 -0.0421  0.1405
40482W        W83420  31.830   2.302   1.350 -0.1046  0.3885 -0.3263
40483W        W83421  29.470   2.812   2.428  0.0963  0.2494 -0.2874
40484W        W83422  29.578   4.175   4.243 -0.0884  0.1003  0.0271
40485W        W83423  31.273  34.514   2.739  0.0184  0.3000 -0.0944
40486W        W83424  32.980   3.214   0.285 -0.1345  0.0655 -0.1221
40487W        W83425  31.017   0.818   2.576 -0.0913  0.1224 -0.3242
40488W        W83426  30.625   2.232   0.003  0.0379 -0.1395  0.0413
40489W        W83427  29.391   1.718   2.891  0.0571 -0.2887 -0.1746
40490W        W83428  29.877   2.755   0.179  0.3051  0.1663 -0.2724
40491W        W83429  30.605   0.726   2.338 -0.3932 -0.0941  0.0667
40492W        W83430  29.547   1.340   1.003  0.1067  0.0467 -0.1896
40493W        W83431  29.732   3.363   1.603 -0.0391 -0.2585 -0.0621
40494W        W83432  29.382   1.950   1.613 -0.2448  0.2098 -0.1634
40495W        W83433  31.857   0.861  31.769 -0.1749  0.0349 -0.2786
40496W        W83434  32.136   1.804   0.605 -0.0305 -0.1807  0.2610
40497W        W83435  30.871  34.135   1.277 -0.1048 -0.1240 -0.0215
40498W        W83436  32.583   0.228   2.751 -0.1267 -0.0819 -0.0307
40499W        W83437  31.958   0.886  31.247 -0.0048 -0.2846  0.0042
40500W        W83438  32.070   1.314   4.748  0.0310  0.0472  0.0133
40501W        W83439  30.173   0.898   2.695 -0.2531  0.2518 -0.2704
40502W        W83440  32.607   0.952   1.344  0.0219 -0.0313 -0.2851
40503W        W83441  29.312   0.366   2.025 -0.0781  0.0861  0.1802
40504W        W83442  32.413   3.193   4.457  0.0302 -0.1117  0.0265
40505W        W83443  29.379   4.059   3.178  0.1619  0.0078 -0.0065
40506W        W83444  31.221   0.460   0.432 -0.2665 -0.1092  0.1068
40507W        W83445  29.525   1.879  31.074 -0.0513  0.0521  0.3383
40508W        W83446  30.943   2.132   1.193 -0.0365 -0.1091 -0.2673
40509W        W83447  31.654   1.730   2.553 -0.1877 -0.1325 -0.1329
40510W        W83448  31.317   2.244   0.367  0.3054 -0.2473 -0.1725
40511W        W83449  33.039   1.102   1.732  0.0739  0.0404 -0.0242
40512W        W83450  29.102   1.251   0.593  0.0910 -0.0255 -0.0161
40513W        W83451  32.017   1.457   1.439  0.0948  0.0137 -0.1625
40514W        W83452  31.920   1.526   0.989  0.0436  0.1079  0.3198
40515W        W83453  30.750   1.456   0.457  0.1713  0.3014 -0.0692
40516W        W83454  29.843   0.220   3.854 -0.0593 -0.4152 -0.1425
40517W        W83455  32.190   1.887   2.485 -0.2369  0.0219  0.1320
40518W        W83456  31.089  34.225   1.880 -0.0181  0.0356  0.2579
40519W        W83457  30.537   1.714   2.608 -0.0943 -0.0327 -0.1960
40520W        W83458  30.495   1.512   2.014 -0.0702  0.2599 -0.0003
40521W        W83459  29.278   2.374   4.089  0.2359 -0.1660  0.2366
40522W        W83460  29.302   1.418   3.865 -0.0449  0.0332 -0.0429
40523W        W83461  31.777   4.241   3.512 -0.0418  0.1859  0.0058
40524W        W83462  32.172   0.452  31.445 -0.3005 -0.0863  0.1466
40525W        W83463  32.912  34.475   2.615 -0.2129  0.0480 -0.0381
40526W        W83464  31.701  34.678   0.779 -0.2062 -0.1474 -0.1906
40527W        W83465  32.922   1.514   0.372 -0.3337 -0.0344 -0.0278
40528W        W83466  30.052   1.153   1.825 -0.0729 -0.0304 -0.1663
40529W        W83467  31.206   2.460   2.839 -0.1417 -0.2442 -0.2176
40530W        W83468  30.172  34.447   0.495  0.2803  0.0593 -0.0139
40531W        W83469  31.801  34.026   4.504  0.0429  0.2304  0.1933
40532W        W83470  31.699   2.479   1.828  0.3248  0.3320  0.4686
40533W        W83471  30.844   1.833   2.146  0.1262  0.0961  0.0086
40534W        W83472  30.984  33.816  30.981 -0.1737  0.0548 -0.0402
40535W        W83473  29.145   0.538   1.568  0.1919  0.0627  0.1319
40536W        W83474  30.329   3.986   2.985  0.0504 -0.0061  0.0263
40537W        W83475  29.138   2.715  30.742  0.2238 -0.0572 -0.0681
40538W        W83476  30.438   2.430   0.894 -0.2583 -0.2651 -0.0508
40539W        W83477  31.254   1.762   1.613 -0.0503 -0.0456  0.1508
40540W        W83478  32.521   2.326   4.990  0.2389 -0.5060 -0.1381
40541W        W83479  31.320   0.197  31.893 -0.1134 -0.1389  0.2529
40542W        W83480  30.142   0.908   3.239  0.0655  0.1090  0.0824
40543W        W83481  30.862   2.428  31.533 -0.0423 -0.0666  0.3269
40544W        W83482  32.282   0.497   3.129 -0.1593  0.0041  0.0895
40545W        W83483  29.063   3.343   1.891 -0.1729 -0.0485  0.1251
40546W        W83484  29.629   1.784   2.450 -0.0238  0.3523 -0.4433
40547W        W83485  31.665   2.748   1.219 -0.1849 -0.0159 -0.0054
40548W        W83486  33.672   1.145   2.553 -0.3411 -0.0263 -0.0866
40549W        W83487  31.530  33.355   2.628 -0.2908 -0.0114 -0.0115
40550W        W83488  29.062   2.511   2.421 -0.1656  0.0508  0.2938
40551W        W83489  31.773   1.664   3.724 -0.2068  0.1093 -0.1914
40552W        W83490  29.926   3.070   2.336  0.0818 -0.1248 -0.1663
40553W        W83491  29.731   1.228   0.360 -0.3085 -0.4301 -0.0710
40554W        W83492  29.758   2.703   3.227 -0.3192 -0.0303 -0.0045
40555W        W83493  33.402   1.389   1.014 -0.3972  0.0883  0.2600
40556W        W83494  30.128   1.688   2.328  0.0636  0.0646  0.2000
40557W        W83495  29.990   0.439   2.950  0.0176  0.6191 -0.1124
40558W        W83496  30.631   1.776   3.800  0.1042  0.0850  0.1009
40559W        W83497  31.936   1.357   2.873 -0.1350 -0.1917 -0.1253
40560W        W83498  30.476   0.019   0.085  0.0686 -0.0916  0.1356
40561W        W83499  29.840   2.183   0.405  0.2559 -0.1448 -0.0356
40562W        W83500  29.934   4.411   2.031 -0.1215  0.3391 -0.1658
40563W        W83501  28.285   1.815   2.768 -0.1404  0.2736 -0.0588
40564W        W83502  29.765   3.044   0.609  0.3183  0.0828  0.2861
40565W        W83503  32.717   2.423  31.727  0.1044 -0.0522  0.0159
40566W        W83504  31.902   2.246   0.786  0.0261  0.1574  0.1627
40567W        W83505  31.600   3.170   0.982  0.2529  0.0111 -0.1106
40568W        W83506  30.524  34.629   0.939  0.2140  0.1039  0.0615
40569W        W83507  29.770   2.038   2.009  0.0652 -0.0380 -0.4223
40570W        W83508  30.714   2.542   0.391  0.0649  0.4826 -0.3331
40571W        W83509  31.563   2.524   0.068 -0.0183 -0.1218  0.1077
40572W        W83510  30.228   4.009   1.910  0.3279 -0.1125 -0.0023
40573W        W83511  30.967   3.270   2.937  0.2748 -0.2226 -0.2273
40574W        W83512  33.888   1.010   0.757 -0.3421 -0.1331  0.1450
40575W        W83513  33.202   1.647   2.434  0.2503 -0.0462 -0.2410
40576W        W83514  33.157   0.558   1.867  0.0170 -0.0735 -0.4125
40577W        W83515  31.639   3.003   3.326 -0.2554  0.1040 -0.1313
40578W        W83516  30.048   1.698   0.950  0.1063  0.1545 -0.0625
40579W        W83517  29.128  34.176   0.863  0.0211 -0.1434 -0.2074
40580W        W83518  30.255   2.357   4.109 -0.0655 -0.2092  0.1884
40581W        W83519  31.638   2.113   3.415  0.2800 -0.2481  0.1284
40582W        W83520  29.400   2.934   4.030  0.0377 -0.3106 -0.0324
40583W        W83521  31.928   2.292   0.285 -0.0441  0.1334 -0.1273
40584W        W83522  29.400   0.894   0.220  0.0374 -0.1558 -0.0456
40585W        W83523  30.241   1.581   0.460 -0.0713 -0.1708 -0.1425
40586W        W83524  32.252  33.907   1.525  0.0004  0.0490  0.0388
40587W        W83525  31.174   3.089   1.277  0.0727  0.2451  0.0662
40588W        W83526  30.784   1.952   1.661 -0.2772 -0.0698 -0.0023
40589W        W83527  30.765   2.795   0.828 -0.0654 -0.4394  0.1910
40590W        W83528  29.499   2.264   2.394  0.2906  0.1904  0.1996
40591W        W83529  30.999   3.764   1.555 -0.0541 -0.0686  0.0008
40592W        W83530  30.310   0.768   0.556 -0.1052  0.1604  0.2458
40593W        W83531  33.088   1.653   1.562  0.0565  0.0597 -0.0458
40594W        W83532  28.597   1.535   1.193  0.1557  0.1427  0.0451
40595W        W83533  33.116   0.995   2.700 -0.3591  0.0263  0.0340
40596W        W83534  32.118   0.182   0.763 -0.4784  0.3177 -0.3005
40597W        W83535  32.985   0.776   0.203  0.0052  0.1362  0.0408
40598W        W83536  30.709   3.727   2.721 -0.0596 -0.2323  0.3777
40599W        W83537  28.849   2.043   4.011 -0.0207 -0.2756 -0.0737
40600W        W83538  29.934   0.082  30.617 -0.0975 -0.0464 -0.0505
40601W        W83539  31.931   3.463   4.112  0.1254 -0.5323  0.2579
40602W        W83540  31.463   1.648  31.578 -0.1415  0.1225  0.0198
40603W        W83541  30.356   3.891   4.183  0.1056 -0.2016  0.1842
40604W        W83542  29.857  34.084   1.329 -0.0172  0.0193 -0.0819
40605W        W83543  30.843  33.986  31.545 -0.0703 -0.5594  0.0282
40606W        W83544  31.022   1.382   0.014 -0.1246  0.0705 -0.2266
40607W        W83545  30.057   3.708   3.738  0.1967  0.4929  0.1421
40608W        W83546  30.651   2.671   3.408 -0.1441 -0.1097 -0.1365
40609W        W83547  29.470   0.923   0.715  0.0091 -0.1568  0.0009
40610W        W83548  33.294   2.459  31.556  0.1890  0.3429  0.2397
40611W        W83549  32.855   0.674   3.927 -0.3080  0.4058 -0.1308
40612W        W83550  31.015   2.675   1.900  0.1878  0.2210  0.0760
40613W        W83551  31.291   2.250   1.499 -0.1122  0.1868  0.1008
40614W        W83552  32.077   2.489   3.073  0.2463  0.0775 -0.0477
40615W        W83553  27.918   1.853   1.598  0.1358  0.1947 -0.0927
40616W        W83554  32.342   2.430   2.573 -0.1041 -0.1098 -0.1373
40617W        W83555  32.409   3.133   1.960 -0.3424 -0.1899  0.1321
40618W        W83556  32.089  33.381  30.808  0.2193 -0.0133 -0.2406
40619W        W83557  29.824   1.316   2.536  0.2303 -0.2017  0.1782
40620W        W83558  29.550   3.947   0.575 -0.2339 -0.0444 -0.1929
40621W        W83559  31.062  34.634   2.302 -0.1517  0.0832 -0.0782
40622W        W83560  30.817   1.088   2.887 -0.0268 -0.1293  0.0065
40623W        W83561  30.919   3.755   0.103  0.0473 -0.5142  0.0477
40624W        W83562  31.823  32.971   2.303  0.2225  0.1544  0.1767
40625W        W83563  30.405   2.995   2.671  0.0143  0.2076 -0.4359
40626W        W83564  30.906   3.920   4.044  0.0943  0.1189 -0.1026
40627W        W83565  28.648   1.122   0.924 -0.1035 -0.1319  0.1341
40628W        W83566  30.074   2.229   2.342  0.1695 -0.0869  0.1682
40629W        W83567  31.428   2.838   1.656  0.2547  0.1164 -0.2136
40630W        W83568  30.636   2.906   1.719  0.0043  0.0456 -0.0493
40631W        W83569  30.984   2.455   2.382  0.1460  0.1191  0.1354
40632W        W83570  31.809   0.360  31.839 -0.3014 -0.0914 -0.1715
40633W        W83571  33.728   2.259   1.920 -0.0053  0.0746  0.0448
40634W        W83572  31.379  34.659   1.834 -0.1583 -0.1795  0.1816
40635W        W83573  32.673   0.721   1.823 -0.1285 -0.1038 -0.1834
40636W        W83574  31.832  33.688   0.265  0.2491  0.2289 -0.1493
40637W        W83575  29.987   2.629   2.727 -0.0320 -0.2182 -0.0255
40638W        W83576  28.905   1.925   1.130  0.0428 -0.1318 -0.1766
40639W        W83577  30.303   2.165   0.509 -0.0770  0.1460 -0.3141
40640W        W83578  29.039   0.784   1.164  0.0774 -0.1193  0.0942
40641W        W83579  30.117   0.678   2.097 -0.2422 -0.2384 -0.2600
40642W        W83580  29.027   1.110   3.021  0.1749  0.1171  0.0815
40643W        W83581  30.956   1.395   2.409  0.2543  0.0247 -0.0676
40644W        W83582  29.602   0.973  30.481  0.1223 -0.0875 -0.2787
40645W        W83583  31.773   0.911   1.500  0.2704 -0.3544 -0.1501
40646W        W83584  30.554   1.326   0.932 -0.2740 -0.2441  0.0680
40647W        W83585  29.132  34.591   0.495 -0.3276 -0.1983 -0.1541
40648W        W83586  31.568   1.855   0.666  0.0675 -0.1304  0.0504
40649W        W83587  32.468   3.017   1.397 -0.1625 -0.5097  0.2369
40650W        W83588  31.281   0.421   1.542  0.0421 -0.2870 -0.0302
40651W        W83589  32.737   2.921   2.528 -0.0422  0.3607  0.0074
40652W        W83590  30.514   1.773   0.083 -0.1735 -0.0701  0.1042
40653W        W83591  30.672   0.677   3.811 -0.1571 -0.3046 -0.1287
40654W        W83592  31.231   1.117   3.285  0.1994 -0.3859  0.1468
40655W        W83593  29.240   0.072  30.727 -0.2667  0.0350 -0.0384
40656W        W83594  30.973   0.989   2.130 -0.2681 -0.0135 -0.4089
40657W        W83595  31.869   3.024   2.015  0.1523  0.0590  0.1165
40658W        W83596  31.495   3.634   0.667  0.1190 -0.2997  0.3539
40659W        W83597  29.503   3.542   3.646 -0.1770  0.4022 -0.0333
40660W        W83598  29.239   3.371   2.530 -0.0378 -0.2018 -0.1232
40661W        W83599  28.649   1.171   2.083  0.0323  0.0421 -0.3593
40662W        W83600  32.974   1.143   2.259  0.1846  0.0879 -0.2241
40663W        W83601  30.437   1.950   3.296 -0.0007  0.1171 -0.0504
40664W        W83602  32.868   2.423   0.742 -0.0066  0.0190 -0.0681
40665W        W83603  32.956   2.361   1.366 -0.1060  0.0781 -0.0713
40666W        W83604  32.435   1.385   1.119  0.0038 -0.0298 -0.3835
40667W        W83605  29.916   0.200   4.421  0.3176 -0.0403 -0.0563
40668W        W83606  28.083   3.387   3.515  0.1420 -0.2419  0.0234
40669W        W83607  33.509   2.600   2.305 -0.1919  0.1260 -0.1471
40670W        W83608  30.182   0.001   1.837  0.4853 -0.0111 -0.0243
40671W        W83609  31.106   0.015   1.328 -0.0381  0.0657 -0.0886
40672W        W83610  32.385   2.624   0.070  0.1316  0.1754 -0.0219
40673W        W83611  29.414   2.604   2.901 -0.1587 -0.1826 -0.2725
40674W        W83612  31.399   0.692  31.920 -0.1834 -0.3193  0.3520
40675W        W83613  30.504   2.277   2.547 -0.0136 -0.0893  0.0284
40676W        W83614  31.906   1.583   2.100 -0.1050  0.1888  0.1609
40677W        W83615  32.329   1.945   4.629 -0.2194  0.1116 -0.1059
40678W        W83616  31.015   0.815  31.168  0.0405  0.0916  0.4282
40679W        W83617  31.433   2.278   0.988  0.1593  0.0858  0.1074
40680W        W83618  29.980   3.562   2.030  0.3932  0.0581  0.5293
40681W        W83619  32.552   2.420   4.465  0.1356  0.1275 -0.1894
40682W        W83620  32.719   3.360   2.252  0.1081  0.1982 -0.1993
40683W        W83621  31.764   1.920   1.659  0.0603  0.0743  0.0439
40684W        W83622  29.743  34.647   1.507 -0.0880  0.1278  0.0019
40685W        W83623  29.981   1.170   0.807  0.1007 -0.0780  0.1901
40686W        W83624  30.860   0.631   1.825  0.0402  0.4350 -0.2115
40687W        W83625  33.061  34.274   3.061 -0.2171 -0.1917 -0.0010
40688W        W83626  31.012   1.386   1.823 -0.1251  0.2021 -0.4217
40689W        W83627  32.797  34.556  31.591 -0.0230  0.0761  0.3613
40690W        W83628  28.912   2.169   3.457 -0.0614 -0.0774  0.0722
40691W        W83629  31.859   2.142   2.183  0.0364  0.0076 -0.1295
40692W        W83630  28.866   1.813   7.426  0.2974  0.1563  0.0162
40693W        W83631  30.510   0.649   2.991  0.2304 -0.1698  0.0732
40694W        W83632  31.012   0.673   3.094  0.2261 -0.1479 -0.2264
40695W        W83633  31.979   2.306   4.832 -0.0673  0.0435 -0.3161
40696W        W83634  29.414   0.916   3.820 -0.1584 -0.0295  0.1087
40697W        W83635  33.467   3.662   5.336 -0.0870 -0.0605  0.1041
40698W        W83636  29.946  32.814   6.870  0.0254  0.3265 -0.0536
40699W        W83637  32.806   3.261   5.082 -0.1474 -0.0115  0.4269
40700W        W83638  31.460   3.293   7.519 -0.2163  0.1053 -0.0209
40701W        W83639  31.116   2.876   2.597 -0.0951 -0.2716 -0.2326
40702W        W83640  31.873   0.244   5.616  0.0856 -0.2232 -0.1063
40703W        W83641  31.832   3.374   6.577 -0.3209 -0.0275  0.0452
40704W        W83642  29.929   0.413   4.893 -0.1493  0.0366 -0.0291
40705W        W83643  27.810   0.478   4.752  0.1530  0.1702  0.0218
40706W        W83644  32.253   1.360   6.830 -0.2899  0.0929 -0.2826
40707W        W83645  28.543   2.881   4.582  0.2135  0.4360  0.0437
40708W        W83646  29.042   0.298   6.097  0.0099  0.1588  0.0525
40709W        W83647  30.257  34.403   6.146 -0.1977 -0.3296  0.1709
40710W        W83648  31.263   4.018   5.306 -0.0994 -0.1195  0.1528
40711W        W83649  31.014   1.146   6.880 -0.0084  0.1948 -0.1492
40712W        W83650  30.703   0.386   7.254  0.1114 -0.3449 -0.0252
40713W        W83651  30.104   1.800   2.834  0.0211  0.2632 -0.2206
40714W        W83652  29.757   1.064   3.484 -0.1547  0.1921  0.3484
40715W        W83653  29.962   2.260   4.904 -0.1100 -0.0440  0.0096
40716W        W83654  29.751   2.065   7.539 -0.1204 -0.1129  0.2317
40717W        W83655  32.315   0.281   5.977 -0.2262  0.0710  0.2352
40718W        W83656  31.045   2.767   6.181  0.0551 -0.0343 -0.0299
40719W        W83657  31.077   3.038   5.741  0.2878 -0.1682  0.2456
40720W        W83658  31.109   3.430   4.799  0.0267  0.2624 -0.0712
40721W        W83659  32.447   2.978   7.940  0.2301 -0.0460  0.2803
40722W        W83660  29.054   2.326   5.102  0.0766 -0.1715 -0.0262
40723W        W83661  28.396   3.908   4.365  0.0203  0.0517 -0.4610
40724W        W83662  30.552   2.754   3.971 -0.1638 -0.1598 -0.0347
40725W        W83663  32.072   2.416   4.260  0.1526  0.1129  0.2254
40726W        W83664  30.857   3.135   6.439  0.0890 -0.1203 -0.1427
40727W        W83665  30.899   3.487   6.893  0.1985  0.1959  0.4522
40728W        W83666  30.232   4.412   3.132  0.0092 -0.0459 -0.1178
40729W        W83667  31.329   2.624   7.245 -0.0434 -0.1158 -0.0072
40730W        W83668  29.802   3.937   7.898  0.1215 -0.2146 -0.1661
40731W        W83669  30.542   1.138   6.725 -0.1293  0.1492 -0.0523
40732W        W83670  30.388   2.250   4.698 -0.0367 -0.0965  0.1987
40733W        W83671  31.005   4.717   4.403  0.0054  0.3091  0.2785
40734W        W83672  31.457   3.076   4.796 -0.2622  0.0712 -0.2668
40735W        W83673  30.601   2.518   6.619 -0.0846  0.0279 -0.0159
40736W        W83674  30.194   1.584   7.095 -0.1293  0.2830  0.1592
40737W        W83675  31.639  34.380   6.669 -0.0547  0.3540 -0.3739
40738W        W83676  28.951   3.023   2.321 -0.2390 -0.0429 -0.3404
40739W        W83677  32.147   2.905   4.213  0.0189 -0.3422 -0.0782
40740W        W83678  30.821   2.017   2.904  0.2531  0.1496  0.0044
40741W        W83679  31.325   1.610   4.504  0.1536 -0.2232  0.0347
40742W        W83680  29.620   0.763   5.084  0.2948  0.2873  0.3363
40743W        W83681  29.545   3.379   5.439  0.1396 -0.2063 -0.0494
40744W        W83682  31.242   0.035   4.948  0.0061 -0.0093 -0.3622
40745W        W83683  30.909   2.669   7.858  0.1316 -0.0058  0.2659
40746W        W83684  31.488   2.237   4.341  0.1442 -0.3103  0.3868
40747W        W83685  31.931   2.523   6.751 -0.0691  0.4060 -0.0107
40748W        W83686  29.472   3.544   7.305  0.1216  0.2904 -0.0016
40749W        W83687  30.139   1.913   3.885 -0.1869 -0.0081  0.1644
40750W        W83688  32.860   2.945   4.600 -0.0802  0.1116 -0.0805
40751W        W83689  33.247   1.872   5.893 -0.1274  0.0632  0.0856
40752W        W83690  31.257   3.196   5.241  0.1492  0.0454  0.0426
40753W        W83691  29.726   1.167   5.347  0.1931  0.1992 -0.0528
40754W        W83692  30.252   2.170   6.774 -0.0933 -0.1070 -0.0669
40755W        W83693  29.299   1.284   5.759  0.0431  0.3122 -0.1739
40756W        W83694  30.336   1.567   4.159  0.0856  0.1025  0.0431
40757W        W83695  33.691   2.533   7.224  0.2937  0.2742 -0.1371
40758W        W83696  28.452   2.346   6.652 -0.1824  0.1281  0.2049
40759W        W83697  31.679   1.269   5.449  0.1298  0.1966  0.0165
40760W        W83698  29.612   2.596   6.235  0.1426 -0.1048  0.1403
40761W        W83699  32.665   3.161   6.968 -0.2350 -0.1375 -0.0587
40762W        W83700  32.254   2.725   4.780 -0.1033 -0.1690  0.1603
40763W        W83701  31.936   0.444   6.197 -0.2065  0.0679  0.0555
40764W        W83702  31.114  34.486   6.596 -0.1162  0.1628  0.0561
40765W        W83703  29.857   1.553   3.196  0.0201  0.0557 -0.0165
40766W        W83704  30.328   2.741   5.512 -0.3269 -0.1593  0.3172
40767W        W83705  30.686   1.826   7.612  0.0723 -0.0242 -0.0681
40768W        W83706  31.106   1.850   3.512  0.1570 -0.0722  0.1314
40769W        W83707  29.256   2.941   6.574  0.2942  0.1025 -0.0144
40770W        W83708  29.707  34.304   6.431  0.3374  0.1074  0.0103
40771W        W83709  30.331   1.225   7.472  0.0513  0.2098 -0.0816
40772W        W83710  29.720   4.994   3.078  0.1706 -0.0748 -0.0115
40773W        W83711  29.201   2.560   6.012 -0.1800 -0.2094  0.2550
40774W        W83712  27.916   2.209   3.644 -0.2147 -0.3596  0.1120
40775W        W83713  29.170   0.537   4.942 -0.2617 -0.0871 -0.1045
40776W        W83714  29.890   2.114   5.507  0.2049  0.2727 -0.1259
40777W        W83715  33.095   2.334   6.287 -0.1078  0.0948 -0.2648
40778W        W83716  29.251   0.590   7.126 -0.1665 -0.1557  0.1706
40779W        W83717  31.704   0.750   4.826 -0.1647  0.1711  0.0057
40780W        W83718  30.313   0.812   5.807  0.0791 -0.2489 -0.0814
40781W        W83719  33.045   3.482   5.489  0.0995 -0.2094 -0.2650
40782W        W83720  31.063   2.043   4.538 -0.0057 -0.1090 -0.1076
40783W        W83721  31.848   3.147   3.761 -0.1721 -0.0270  0.1715
40784W        W83722  29.709   1.781   4.735  0.0384 -0.0427  0.3666
40785W        W83723  29.939   1.440   3.854  0.3354  0.0651 -0.0405
40786W        W83724  29.869  33.997   8.203 -0.0135  0.1988  0.0131
40787W        W83725  28.350   1.049   4.554 -0.0746  0.0782  0.4629
40788W        W83726  31.976   1.989   6.906  0.0531 -0.1214 -0.0064
40789W        W83727  28.809  34.541   3.464  0.0111  0.1334 -0.1100
40790W        W83728  30.755   1.979   5.455 -0.0649 -0.0407 -0.1452
40791W        W83729  30.683   1.390   5.749  0.0435  0.1698 -0.0531
40792W        W83730  28.476   1.542   4.336 -0.0198 -0.1892  0.2487
40793W        W83731  31.371  34.008   6.902  0.0891 -0.1651  0.0741
40794W        W83732  30.642   3.246   4.572 -0.0592  0.1214  0.1327
40795W        W83733  33.162   3.297   7.017  0.1611 -0.0027 -0.3308
40796W        W83734  31.463   2.751   5.375 -0.1059 -0.1721  0.0208
40797W        W83735  29.123   0.823   5.994  0.0548  0.0412  0.0711
40798W        W83736  29.333   0.899   4.565 -0.0613  0.1131  0.2323
40799W        W83737  29.111   3.988   5.676 -0.1221  0.0395 -0.0099
40800W        W83738  29.156   3.390   4.883  0.1092 -0.0463 -0.1252
40801W        W83739  31.189   0.266   4.406  0.1741 -0.0247 -0.0911
40802W        W83740  34.383   2.554   5.641 -0.0868  0.0621 -0.0757
40803W        W83741  31.012   2.831   4.657 -0.0517  0.1367 -0.1805
40804W        W83742  28.808   2.442   6.211  0.0262 -0.3108 -0.3023
40805W        W83743  31.484   1.094   7.226  0.0640 -0.0045 -0.1814
40806W        W83744  32.540   2.126   7.829  0.1136  0.2735 -0.0482
40807W        W83745  31.129   2.288   5.304  0.0725  0.1564  0.1419
40808W        W83746  30.647   0.122   3.785 -0.1580  0.0675 -0.2382
40809W        W83747  31.910   2.982   5.464 -0.0482  0.0081 -0.2201
40810W        W83748  28.720   4.241   4.288 -0.0813  0.0819 -0.0757
40811W        W83749  30.357   1.836   5.109  0.2423  0.2130  0.0418
40812W        W83750  30.472   3.984   3.701 -0.1394  0.4282 -0.0329
40813W        W83751  32.782   1.349   6.469  0.1756  0.0863 -0.2131
40814W        W83752  29.157   0.270   8.053 -0.1502 -0.1228  0.2543
40815W        W83753  31.573   1.249   6.735  0.0999  0.2303 -0.0045
40816W        W83754  30.323   1.429   3.398 -0.0081  0.1310  0.2965
40817W        W83755  29.494   1.005   6.241  0.2170  0.2717 -0.1473
40818W        W83756  32.051   0.278   5.078 -0.1638 -0.3087  0.3752
40819W        W83757  32.852   0.721   2.361  0.2260 -0.0748  0.1033
40820W        W83758  31.042   3.539   7.683 -0.1843  0.1839 -0.3815
40821W        W83759  32.873   2.384   5.368  0.2082 -0.4634 -0.1515
40822W        W83760  31.366   1.810   3.986  0.2048  0.1725 -0.0929
40823W        W83761  32.592   0.571   3.528  0.1278  0.1846  0.2226
40824W        W83762  29.623   3.344   6.649  0.2154  0.2588 -0.0997
40825W        W83763  30.593   5.189   3.560  0.1232  0.0496 -0.2235
40826W        W83764  30.462   2.696   7.549 -0.2718  0.0805 -0.0117
40827W        W83765  30.090   2.810   5.932 -0.0639  0.4488  0.1468
40828W        W83766  32.991   2.355   4.847  0.0511  0.0618 -0.1306
40829W        W83767  30.208   1.786   4.552  0.2495 -0.2555  0.2559
40830W        W83768  31.428   2.809   7.689 -0.1732 -0.1568 -0.0472
40831W        W83769  32.231   2.605   5.276  0.2585  0.0843  0.0922
40832W        W83770  29.917   1.208   5.911  0.1757  0.0940 -0.2293
40833W        W83771  29.735   1.836   3.592  0.1948  0.1299 -0.0460
40834W        W83772  31.383   0.025   5.639  0.0915 -0.0142 -0.1753
40835W        W83773  28.933   4.990   3.661 -0.4040 -0.0039 -0.1165
40836W        W83774  30.923   0.670   5.864 -0.3645 -0.2353  0.0293
40837W        W83775  31.174   1.242   6.427 -0.2330 -0.2220 -0.1402
40838W        W83776  30.472  33.872   5.996 -0.2107 -0.2645 -0.2519
40839W        W83777  32.837   2.977   9.348  0.0006  0.1627  0.0790
40840W        W83778  31.848   2.088   3.984 -0.0865  0.0530  0.2280
40841W        W83779  31.031   0.486   5.406 -0.2403  0.2124 -0.1674
40842W        W83780  30.756   2.701   2.883 -0.1389 -0.0512  0.1321
40843W        W83781  31.829   1.083   8.429  0.0303  0.2931 -0.1017
40844W        W83782  29.431   1.026   7.484  0.1168  0.2347 -0.0195
40845W        W83783  29.701   2.532   5.745  0.0835 -0.2389 -0.0827
40846W        W83784  32.109   3.112   6.963 -0.1660  0.0044  0.2665
40847W        W83785  31.386   2.539   4.872 -0.1090 -0.1907 -0.4547
40848W        W83786  30.952  34.376   5.652  0.1243 -0.1284  0.0804
40849W        W83787  30.769   1.286   3.821  0.0296 -0.1641  0.0861
40850W        W83788  29.418   2.606   5.363  0.2360 -0.1991 -0.1364
40851W        W83789  30.809   2.512   4.363  0.0792  0.1234  0.0891
40852W        W83790  28.719   0.656   5.804 -0.0807  0.1728 -0.0675
40853W        W83791  29.826   2.984   5.576  0.2146 -0.1253  0.4161
40854W        W83792  30.311   3.426   4.212  0.0620  0.0169 -0.1068
40855W        W83793  30.306   2.201   7.834  0.0287  0.0304 -0.1158
40856W        W83794  30.043   3.218   4.589  0.0767 -0.1177  0.0583
40857W        W83795  31.017  33.773   5.358 -0.4167  0.4219 -0.0842
40858W        W83796  28.789   4.004   5.164  0.0986  0.1527 -0.2687
40859W        W83797  29.544   2.749   4.468  0.0468  0.1878 -0.0661
40860W        W83798  29.761   1.861   4.152 -0.1219 -0.0207 -0.0297
40861W        W83799  31.826   0.703   5.335 -0.1992 -0.0379 -0.3481
40862W        W83800  31.309   2.725   4.243 -0.2017 -0.0669  0.0308
40863W        W83801  29.015   0.334   5.494 -0.3053 -0.0270 -0.0233
40864W        W83802  31.014   1.642   6.749 -0.1007  0.0840  0.1778
40865W        W83803  29.430   3.530   5.935  0.0067 -0.6827  0.3497
40866W        W83804  30.056   0.959   6.381 -0.0357  0.1098  0.0320
40867W        W83805  31.833   1.003   3.906  0.0059  0.1431 -0.0129
40868W        W83806  32.850   2.991   7.632 -0.2246 -0.0559  0.0988
40869W        W83807  30.831   2.331   7.514 -0.0005 -0.2194  0.0379
40870W        W83808  28.936   1.604   4.261 -0.0393 -0.0653  0.0510
40871W        W83809  32.948   1.712   6.922  0.3138 -0.1722 -0.1437
40872W        W83810  30.649   1.924   5.963  0.0429  0.0511 -0.1951
40873W        W83811  28.813   1.177   5.883  0.1836 -0.0313  0.0868
40874W        W83812  31.284   3.930   4.658  0.0877 -0.2210 -0.2731
40875W        W83813  28.530   0.125   3.722  0.0858 -0.0112  0.2304
40876W        W83814  30.245   3.212   3.725 -0.1933 -0.0906 -0.6043
40877W        W83815  29.534  34.566   6.903  0.1189 -0.0801 -0.3530
40878W        W83816  30.942   2.392   7.027  0.1495  0.0627  0.1986
40879W        W83817  30.609   1.084   6.130  0.0872 -0.2101 -0.2020
40880W        W83818  29.115   0.567   4.226  0.1582  0.1554  0.0474
40881W        W83819  29.916   1.622   5.261  0.2642 -0.0418 -0.1711
40882W        W83820  32.424   2.661   6.834 -0.2824  0.1322  0.0682
40883W        W83821  31.509   1.766   6.720  0.1576  0.1424  0.3346
40884W        W83822  29.682   3.180   8.126 -0.1395  0.3665  0.1663
40885W        W83823  30.069   0.488   6.608 -0.2292  0.2956 -0.0552
40886W        W83824  33.583   4.022   5.830 -0.0980  0.0784  0.2268
40887W        W83825  31.127   2.961   8.482 -0.0908 -0.0386  0.1982
40888W        W83826  30.300   2.739   2.292  0.2362  0.1430  0.2184
40889W        W83827  27.572   0.775   6.409 -0.0037 -0.0816  0.3182
40890W        W83828  31.310   3.454   6.012 -0.2428  0.1752  0.1056
40891W        W83829  30.873   1.579   6.283 -0.2188  0.0730  0.0153
40892W        W83830  29.698   2.790   6.724 -0.0184 -0.0431  0.0276
40893W        W83831  29.890   2.221   3.370  0.3615  0.1997 -0.3560
40894W        W83832  28.582   2.488   4.892 -0.1374  0.0518 -0.0228
40895W        W83833  32.103   1.150   5.276  0.0847  0.1639  0.1219
40896W        W83834  31.183   1.337   5.468 -0.3672 -0.0134  0.3505
40897W        W83835  30.012   1.361   4.469 -0.1067 -0.0654  0.3201
40898W        W83836  31.111   0.276   6.916  0.1567  0.0803  0.0937
40899W        W83837  31.436   2.079   4.890  0.0920 -0.1297  0.0591
40900W        W83838  31.115   2.016   7.261  0.0270 -0.0572 -0.1370
40901W        W83839  29.837  34.443   7.340  0.2969  0.1885  0.3031
40902W        W83840  32.878   3.452   4.578 -0.1204  0.1204 -0.1237
40903W        W83841  29.157   1.100   7.006 -0.2097 -0.2698 -0.2896
40904W        W83842  31.891   5.278   8.363 -0.0888 -0.1137 -0.0038
40905W        W83843  29.772   1.247   7.103 -0.1170 -0.1006  0.2706
40906W        W83844  31.085   0.809   3.579  0.3632 -0.0215 -0.2973
40907W        W83845  28.701  34.453   4.379 -0.2159 -0.2075  0.1302
40908W        W83846  31.342   1.670   6.256  0.1365  0.1144  0.2550
40909W        W83847  31.512   2.399   6.298  0.1069  0.0511 -0.1363
40910W        W83848  30.830   3.144   3.524  0.3470 -0.0540  0.1521
40911W        W83849  32.001   2.159   5.735 -0.1481 -0.2170 -0.1289
40912W        W83850  29.051   2.467   4.502 -0.2917 -0.1002  0.1274
40913W        W83851  30.801   2.330   4.956  0.0929  0.0095 -0.1661
40914W        W83852  29.704   2.263   4.453 -0.2056  0.0877 -0.1257
40915W        W83853  29.326   2.058   7.175 -0.1666 -0.0469  0.0018
40916W        W83854  30.233   0.249   5.921  0.0289 -0.0908 -0.1709
40917W        W83855  31.548   2.072   5.945 -0.0149 -0.2656 -0.2261
40918W        W83856  31.862   0.822   5.900  0.1279  0.0207  0.0426
40919W        W83857  30.812   0.981   5.482 -0.4266  0.1176  0.2362
40920W        W83858  30.829   2.177   7.992 -0.0830  0.3697 -0.3582
40921W        W83859  31.605   1.859   7.378 -0.0528  0.0217 -0.1128
40922W        W83860  29.594   0.837   6.789 -0.3077  0.1037 -0.2321
40923W        W83861  32.346   3.568   7.124 -0.2799  0.0824  0.2308
40924W        W83862  31.971   1.927   3.095  0.2654 -0.2524 -0.1650
40925W        W83863  32.949   2.743   7.133 -0.0896 -0.0096 -0.1039
40926W        W83864  31.957   2.020   6.322  0.0294  0.2084 -0.0228
40927W        W83865  30.937   2.279   3.326 -0.2563 -0.0955  0.1124
40928W        W83866  29.872   0.165   5.552  0.0135  0.2692  0.0777
40929W        W83867  32.098   1.972   7.516 -0.1103 -0.0727 -0.0685
40930W        W83868  31.124   1.145   4.162 -0.0498 -0.0002  0.0134
40931W        W83869  31.749   2.363   7.551  0.0939 -0.0106  0.1403
40932W        W83870  30.864   4.278   4.613 -0.0087  0.1568  0.1869
40933W        W83871  31.782   2.792   5.026  0.1212 -0.0556  0.5398
40934W        W83872  31.232   1.112   5.913 -0.1571  0.2906 -0.0223
40935W        W83873  29.381   1.480   5.214 -0.3128  0.2899  0.2073
40936W        W83874  29.745   2.886   7.236  0.3262  0.1198  0.2443
40937W        W83875  30.642   3.475   3.844 -0.0774  0.3740 -0.0019
40938W        W83876  29.951   3.065   6.400 -0.2577  0.1151  0.2984
40939W        W83877  32.810   2.547   8.007  0.1753 -0.0852 -0.3222
40940W        W83878  30.934   0.899   4.574 -0.0008  0.1491 -0.0201
40941W        W83879  31.874   0.852   6.930 -0.1517  0.0442 -0.0210
40942W        W83880  29.306   1.893   3.952 -0.1075  0.2168 -0.0661
40943W        W83881  32.515   1.134   4.644 -0.3790 -0.4283 -0.0430
40944W        W83882  29.386   3.764   6.386  0.0773  0.1845 -0.1996
40945W        W83883  28.878   2.156   5.865 -0.2491  0.2981 -0.0100
40946W        W83884  29.549   2.483   4.924  0.2475 -0.2499  0.2143
40947W        W83885  31.305   0.905   5.249 -0.0695 -0.0185 -0.0832
40948W        W83886  32.513   2.024   6.953  0.2429 -0.1845  0.2109
40949W        W83887  30.356   1.737   5.625  0.3004 -0.2158 -0.0703
40950W        W83888  32.345   1.763   6.470 -0.3305 -0.3017  0.0500
40951W        W83889  30.616   2.970   5.980  0.4674 -0.2649 -0.0567
40952W        W83890  29.784   2.181   6.087 -0.2788 -0.1993  0.3182
40953W        W83891  30.979   3.601   8.208  0.1653  0.2114  0.4220
40954W        W83892  31.476   1.918   5.423  0.1934 -0.0983 -0.2080
40955W        W83893  30.661   3.082   5.397  0.0889 -0.1046  0.0105
40956W        W83894  29.643   0.319   6.760 -0.1524 -0.1532  0.0769
40957W        W83895  32.281   2.188   9.183  0.2561  0.2850  0.0476
40958W        W83896  31.848   1.557   6.470  0.0415  0.0818  0.2040
40959W        W83897  30.361   0.399   5.139  0.0355  0.1268 -0.1124
40960W        W83898  32.711   1.575   2.089 -0.0383 -0.2498  0.0732
40961W        W83899  29.926   3.470   7.648 -0.1853 -0.1808 -0.1433
40962W        W83900  28.821   1.004   6.370  0.3094  0.1293  0.0888
40963W        W83901  29.121   4.461   4.084  0.0685 -0.1883  0.0961
40964W        W83902  30.511   2.780   4.890 -0.1115 -0.1673  0.3198
40965W        W83903  31.592   2.488   3.091 -0.2053 -0.0544  0.0095
40966W        W83904  31.383   3.147   6.478  0.1778  0.1895  0.3552
40967W        W83905  31.636   0.180   4.720  0.0251  0.1153  0.1075
40968W        W83906  29.802   2.317   3.857  0.0767  0.1231 -0.0171
40969W        W83907  30.307   2.517   3.099  0.0578 -0.0288 -0.2085
40970W        W83908  32.406   3.257   3.808 -0.0365 -0.2942 -0.1106
40971W        W83909  29.566   4.328   4.749 -0.2021  0.1448 -0.0845
40972W        W83910  33.641   2.696   7.743 -0.0078 -0.0987 -0.0404
40973W        W83911  33.390   1.404   2.845  0.0953 -0.0166  0.3387
40974W        W83912  32.624   1.493   5.961 -0.3957  0.0313  0.0447
40975W        W83913  32.555   1.303   5.457 -0.1541 -0.1863 -0.1361
40976W        W83914  32.012   3.626   7.853  0.1897  0.0021  0.0226
40977W        W83915  29.987   0.658   5.418 -0.1386 -0.3600 -0.0229
40978W        W83916  31.593  34.341   4.094  0.0269 -0.0505 -0.0919
40979W        W83917  29.072   0.844   5.487 -0.0358  0.0413 -0.2313
40980W        W83918  32.764   0.291   9.878 -0.0348 -0.2270 -0.1950
40981W        W83919  29.116   3.681   8.772 -0.1332 -0.1036 -0.1374
40982W        W83920  31.703   4.052   5.036 -0.0739  0.4349 -0.3203
40983W        W83921  28.643  34.693   4.935  0.1647 -0.0972 -0.2391
40984W        W83922  31.177   1.733   5.795 -0.0891  0.1729 -0.1500
40985W        W83923  33.195  34.394   6.517 -0.4123  0.2945  0.0460
40986W        W83924  31.023   2.725   3.753 -0.2496  0.1438  0.0202
40987W        W83925  32.137   1.283   5.769 -0.1506  0.0966  0.1236
40988W        W83926  30.050   2.717   5.054  0.0186 -0.1468  0.0275
40989W        W83927  30.513   3.489   6.390  0.0027  0.2170 -0.1748
40990W        W83928  30.757   2.477   5.604 -0.2971 -0.1590 -0.0613
40991W        W83929  29.703   1.293   4.841  0.0054  0.1210 -0.0198
40992W        W83930  31.877   1.698   5.950 -0.0697  0.0529  0.0314
40993W        W83931  30.353   1.575   6.152 -0.0809  0.0731  0.0848
40994W        W83932  31.343  34.462   7.071 -0.3108 -0.1959  0.2342
40995W        W83933  30.173   0.832   4.963 -0.1465  0.3639 -0.1080
40996W        W83934  31.804   1.815   4.451  0.2097 -0.0031 -0.0460
40997W        W83935  29.637   2.282   6.593  0.2443 -0.1245  0.1711
40998W        W83936  29.731   1.752   7.073  0.0735 -0.0851 -0.1207
40999W        W83937  30.867   1.569   4.249  0.2022 -0.0036  0.0048
41000W        W83938  32.822   3.181   6.441 -0.1260 -0.1209  0.2513
41001W        W83939  29.237  34.688   3.703 -0.1085 -0.1244  0.0950
41002W        W83940  32.269   3.909   8.316  0.1392  0.0487 -0.2922
41003W        W83941  29.726  34.556   5.931  0.1432 -0.1891  0.0847
41004W        W83942  31.612   0.158   4.156  0.2916  0.0677  0.3613
41005W        W83943  29.623   1.207   4.208  0.2484  0.0769  0.1311
41006W        W83944  30.662   1.900   6.992  0.1872 -0.1171 -0.0406
41007W        W83945  31.242   3.177   6.997 -0.0183 -0.0316  0.1830
41008W        W83946  29.780  34.654   4.888 -0.1060  0.1343  0.1352
41009W        W83947  31.900   1.794   5.037  0.2540 -0.0945 -0.2821
41010W        W83948  33.173   2.010   5.353  0.1078  0.3806  0.1592
41011W        W83949  30.316   3.659   4.710  0.1483 -0.0500 -0.2498
41012W        W83950  31.532   2.980   5.889  0.2260  0.0030  0.4364
41013W        W83951  33.031   2.696   6.590  0.2166 -0.2341  0.3614
41014W        W83952  29.045   1.452   6.502 -0.0738  0.3642 -0.0824
41015W        W83953  31.784   2.854   6.311  0.0147 -0.0871 -0.0677
41016W        W83954  32.478   2.236   6.474 -0.2076 -0.0217 -0.0833
41017W        W83955  30.512   1.093   4.666 -0.1294 -0.0002 -0.0690
41018W        W83956  30.820   1.466   7.291 -0.0951 -0.1178 -0.1231
41019W        W83957  29.541   3.029   5.033 -0.3147  0.1149  0.0476
41020W        W83958  30.607   0.046   6.293 -0.0516  0.3004  0.5953
41021W        W83959  31.834   2.814   7.294 -0.1015 -0.1860  0.1131
41022W        W83960  30.435   4.487   3.678  0.0742 -0.1232 -0.2820
41023W        W83961  32.305   1.079   8.605  0.0212 -0.0521 -0.0226
41024W        W83962  30.420   2.995   6.527 -0.1270 -0.1793 -0.1685
41025W        W83963  29.867   2.981   7.719  0.0250 -0.2919 -0.2086
41026W        W83964  30.186   2.580   3.606 -0.0234  0.0839 -0.0001
41027W        W83965  29.262   1.249   8.384 -0.1655 -0.1563 -0.0322
41028W        W83966  30.337   3.048   3.257 -0.1726 -0.1197 -0.0004
41029W        W83967  30.804   3.414   5.964  0.2097 -0.5397 -0.0210
41030W        W83968  32.247   2.916   5.926 -0.0258  0.1021  0.1379
41031W        W83969  30.687   1.514   5.274 -0.2772 -0.1170  0.1839
41032W        W83970  31.773   2.386   5.319  0.0497 -0.0332  0.0057
41033W        W83971  29.566   1.522   6.213 -0.1642 -0.1316 -0.1419
41034W        W83972  32.812   0.496   6.060 -0.1165  0.1570 -0.0821
41035W        W83973  32.696   1.764   5.535 -0.1906 -0.2797 -0.3334
41036W        W83974  29.833   1.367   7.583 -0.2392 -0.3204 -0.2502
41037W        W83975  28.323   1.975   4.013  0.0712 -0.2947  0.1566
41038W        W83976  29.106   2.695   3.224 -0.1346  0.1782 -0.1895
41039W        W83977  30.285   3.214   5.732  0.0080  0.2685  0.1506
41040W        W83978  31.193   0.264   7.447 -0.1162  0.1006 -0.0393
41041W        W83979  29.249  34.320   7.516  0.1707 -0.1004 -0.0982
41042W        W83980  29.283   2.054   4.681  0.0308  0.1840 -0.1566
41043W        W83981  29.475   0.514   6.258  0.2485  0.1449 -0.2030
41044W        W83982  31.098   1.696   5.081  0.1754  0.1079 -0.1828
41045W        W83983  28.947  34.537   6.268 -0.1542 -0.2839 -0.2832
41046W        W83984  29.164  34.191   3.644  0.2450  0.1707  0.1146
41047W        W83985  31.507   3.606   5.092  0.3507  0.3084  0.1055
41048W        W83986  30.929   3.155   4.112 -0.1114  0.2558 -0.1545
41049W        W83987  32.322   0.158   4.649 -0.1266 -0.1621  0.0069
41050W        W83988  32.374   3.893   6.744 -0.0289  0.1318 -0.0093
41051W        W83989  27.292   2.562   3.353  0.2259  0.3823 -0.0723
41052W        W83990  31.836   1.507   7.083  0.0102  0.0965  0.1485
41053W        W83991  31.273   1.551   7.122 -0.2995 -0.5231 -0.1895
41054W        W83992  30.206   0.533   4.050  0.1494 -0.0831  0.0037
41055W        W83993  30.958   0.157   5.927  0.0360 -0.0491 -0.2653
41056W        W83994  32.307   3.157   5.023 -0.3462 -0.0007 -0.0720
41057W        W83995  31.674   3.093   4.260 -0.2826 -0.1946  0.2193
41058W        W83996  30.207   2.033   6.269 -0.2844  0.3787 -0.1544
41059W        W83997  30.093   3.020   6.887  0.0624  0.0342  0.2145
41060W        W83998  28.416  33.574   5.239 -0.1316  0.1970 -0.0458
41061W        W83999  31.004   2.189   3.908 -0.1107 -0.0549 -0.0829
41062W        W84000  30.223   2.134   7.308  0.2486  0.1130  0.2357
41063W        W84001  32.147   2.888   3.416  0.0606 -0.0574  0.2665
41064W        W84002  32.230   2.982   6.483 -0.2374  0.1429  0.1565
41065W        W84003  30.946   2.754   5.179  0.3439 -0.2274  0.0343
41066W        W84004  29.015  33.766   6.459  0.0478  0.1220 -0.0392
41067W        W84005  29.912   1.750   6.572 -0.0867 -0.0379  0.2158
41068W        W84006  33.500   1.864   7.927 -0.1918 -0.1351  0.2287
41069W        W84007  31.252   0.534   4.786  0.1103 -0.2461  0.1988
41070W        W84008  30.732   1.628   4.744 -0.0290  0.1315 -0.0685
41071W        W84009  31.214   4.313   4.213 -0.3343 -0.3706 -0.1941
41072W        W84010  29.424   0.187   5.231 -0.2005 -0.0589  0.4831
41073W        W84011  30.346   1.041   5.377  0.3372 -0.0041  0.3657
41074W        W84012  31.549   2.191   7.049 -0.1272  0.0879 -0.4644
41075W        W84013  31.085   2.134   6.133  0.2407 -0.0451  0.0144
41076W        W84014  32.213   2.467   6.146  0.0339 -0.1669 -0.3396
41077W        W84015  30.118   2.665   4.552 -0.2050 -0.2097 -0.0279
41078W        W84016  32.122   2.136   3.574 -0.0889  0.1772 -0.3323
41079W        W84017  31.469   3.681   7.951  0.0759 -0.0481 -0.2401
41080W        W84018  32.970   3.943   6.488  0.0113  0.1822  0.4072
41081W        W84019  31.050   3.034   7.495 -0.0744 -0.0377  0.2020
41082W        W84020  30.507   2.521   6.163 -0.0538 -0.2291  0.1823
41083W        W84021  29.437  33.681   4.906 -0.1967  0.1065 -0.3648
41084W        W84022  30.550   2.282   3.699  0.0121 -0.0026 -0.0878
41085W        W84023  31.348   2.449   5.791 -0.2019  0.2860 -0.2479
41086W        W84024  31.020   0.238   6.417  0.0368 -0.1117 -0.2629
41087W        W84025  31.505   1.424   4.988 -0.1034  0.0612 -0.3081
41088W        W84026  31.654   1.373   4.196  0.0210 -0.2520 -0.0164
41089W        W84027  31.377   5.015   8.457  0.1261  0.4397 -0.0895
41090W        W84028  32.017   3.296   7.438  0.1655  0.3016 -0.4179
41091W        W84029  31.364   0.941  12.597 -0.1572  0.3641 -0.0970
41092W        W84030  29.589   1.880   9.112 -0.1441 -0.4996  0.3181
41093W        W84031  31.960   1.430   7.644  0.1930  0.2947 -0.4026
41094W        W84032  34.414   1.980   7.642  0.1802  0.2189 -0.3177
41095W        W84033  29.060  33.595   9.267  0.2104 -0.1184 -0.2308
41096W        W84034  33.354   3.030   7.400  0.1611 -0.1400  0.0133
41097W        W84035  32.437   1.582   8.690 -0.3022  0.1232  0.2577
41098W        W84036  31.280   2.729   9.383 -0.0626  0.3598 -0.3255
41099W        W84037  31.486   1.137   9.590  0.0962 -0.0662  0.0538
41100W        W84038  27.337   0.632   8.895  0.0876  0.1306  0.0818
41101W        W84039  32.470   0.035   8.654  0.1437  0.1201 -0.0756
41102W        W84040  29.822  34.006   9.572 -0.0717 -0.1916  0.2887
41103W        W84041  30.499   0.354   8.678  0.1365 -0.0289  0.0130
41104W        W84042  29.188   0.649   6.644  0.2158  0.0698  0.1686
41105W        W84043  27.490   1.710   9.312  0.3215 -0.2001  0.2785
41106W        W84044  29.579   2.223   8.043 -0.4173 -0.0426  0.0411
41107W        W84045  31.787   4.149   8.921  0.1977  0.0299  0.0901
41108W        W84046  29.348   1.085   9.541 -0.3115  0.0455 -0.0861
41109W        W84047  30.287   2.995   8.863  0.0078 -0.0979  0.1936
41110W        W84048  29.633   0.476   8.280 -0.0713 -0.3962  0.0573
41111W        W84049  27.736   0.275   9.017  0.0720 -0.0904 -0.2100
41112W        W84050  31.956   2.332   9.582  0.1760  0.0194  0.0685
41113W        W84051  31.849   0.182   8.604 -0.1692  0.1964 -0.0183
41114W        W84052  31.593   1.488   9.188 -0.0371 -0.1060  0.1248
41115W        W84053  31.226   4.344   8.955 -0.1514 -0.1577  0.0046
41116W        W84054  31.339   1.998   9.100 -0.0382  0.0502  0.0040
41117W        W84055  29.474   0.899   8.618  0.0709  0.2592 -0.1364
41118W        W84056  30.447   3.487   8.949 -0.1648 -0.3208  0.2755
41119W        W84057  29.921   2.796   9.206 -0.3121  0.0677 -0.0649
41120W        W84058  34.033   2.538   8.040  0.2000  0.3092 -0.2338
41121W        W84059  29.074   1.597   7.056 -0.2419  0.0355 -0.0646
41122W        W84060  32.728   1.737   9.934 -0.0603 -0.3544 -0.3926
41123W        W84061  30.589   1.759   9.705 -0.1972  0.1099 -0.0436
41124W        W84062  30.023   2.510   7.583  0.0150 -0.0602 -0.0678
41125W        W84063  32.062   2.907   8.876 -0.0465 -0.1451 -0.4224
41126W        W84064  31.384   0.250   9.453 -0.1337  0.2632 -0.0912
41127W        W84065  30.458   3.649   8.464  0.3236  0.0903  0.4168
41128W        W84066  32.679   1.385   8.282 -0.3595  0.2453  0.1269
41129W        W84067  30.737   2.040   6.470  0.0065 -0.1991 -0.2576
41130W        W84068  31.933   0.676   8.729 -0.1465 -0.0309  0.0618
41131W        W84069  30.731   0.971   9.320  0.1914 -0.0646  0.1421
41132W        W84070  30.332   3.634   9.405 -0.3091 -0.1165  0.0853
41133W        W84071  31.295   0.674   9.187  0.2147 -0.0300  0.0781
41134W        W84072  31.434   1.413   7.629  0.0414  0.0531 -0.0643
41135W        W84073  31.819  34.218  10.006 -0.2503  0.1352  0.0897
41136W        W84074  29.779   3.899  10.056 -0.3711  0.0705  0.0534
41137W        W84075  30.981   1.659   8.958 -0.3526 -0.5131 -0.2439
41138W        W84076  33.498   4.418   6.182  0.1980  0.2511  0.0524
41139W        W84077  31.171   2.517   8.887  0.0041  0.1894 -0.2270
41140W        W84078  31.015   3.995   7.009 -0.1789 -0.2042  0.1835
41141W        W84079  29.913   1.052   8.868  0.4774  0.1460  0.1234
41142W        W84080  30.682   0.913   7.341  0.2473 -0.2877  0.1958
41143W        W84081  32.796  34.253   8.658  0.1974  0.2776  0.3288
41144W        W84082  32.532   3.150  10.058 -0.0999 -0.1556 -0.2717
41145W        W84083  34.617   2.722  10.645 -0.1290 -0.1001 -0.0973
41146W        W84084  32.403   1.587   7.758  0.2522 -0.4502 -0.0720
41147W        W84085  31.650  34.032   9.572  0.0346 -0.1497  0.0698
41148W        W84086  31.940   0.906   9.852 -0.0188  0.1580  0.0030
41149W        W84087  30.836   2.936   6.932  0.1676 -0.1705 -0.1022
41150W        W84088  30.116   1.684   8.440  0.0647  0.0669 -0.2104
41151W        W84089  33.791   1.015   9.484  0.2296 -0.2727  0.1314
41152W        W84090  33.240   2.863   8.480 -0.2700  0.0934  0.0940
41153W        W84091  29.542   2.559   9.562  0.1045 -0.2373 -0.1350
41154W        W84092  30.108   2.568   6.502  0.0864  0.1100  0.2860
41155W        W84093  29.517   2.278   8.624 -0.0493 -0.0612 -0.1164
41156W        W84094  30.361   2.549   7.072  0.0052 -0.3027  0.0422
41157W        W84095  28.728   0.146   8.926  0.0988 -0.1587  0.1586
41158W        W84096  32.014   3.958   9.319 -0.1972 -0.0914 -0.2746
41159W        W84097  33.119   0.910   7.189  0.2452  0.1663  0.2157
41160W        W84098  31.937   1.322   9.547 -0.1987 -0.1252  0.2184
41161W        W84099  29.196   1.878   7.830 -0.0009  0.0180 -0.0784
41162W        W84100  33.634   3.076   9.636  0.0945 -0.0143 -0.1049
41163W        W84101  31.808   1.876   8.400 -0.3447 -0.1706  0.0914
41164W        W84102  31.875   3.159   7.904  0.3018 -0.2219  0.0828
41165W        W84103  29.406  32.686   9.434 -0.0671 -0.2288  0.0383
41166W        W84104  29.858   0.406   9.263  0.2147  0.0654 -0.0707
41167W        W84105  30.445  33.528   8.801  0.1971  0.1447 -0.0986
41168W        W84106  28.670   0.096   8.055 -0.1503 -0.0741 -0.1355
41169W        W84107  31.264   1.117   8.067  0.0000 -0.0669  0.0237
41170W        W84108  30.143   1.426   7.996 -0.0478  0.1539  0.1405
41171W        W84109  28.759   0.517   9.395 -0.1117 -0.0351 -0.2227
41172W        W84110  30.753   3.926   9.003 -0.0266 -0.1942  0.2000
41173W        W84111  32.147   4.353   9.575  0.1119 -0.2529  0.0931
41174W        W84112  31.424   2.250   9.628  0.1956 -0.0214  0.1175
41175W        W84113  28.147   2.543   8.723  0.1742  0.3447 -0.3759
41176W        W84114  29.050  34.462   7.096  0.0676 -0.2323 -0.2134
41177W        W84115  30.347   3.082   9.352  0.1566 -0.0566  0.0221
41178W        W84116  31.266   2.447   8.250  0.0388 -0.2320 -0.1941
41179W        W84117  28.927  34.659   8.441 -0.1202 -0.0763 -0.1575
41180W        W84118  33.045   4.589   9.274 -0.1338 -0.1428  0.0466
41181W        W84119  30.068   2.139   8.229 -0.3151  0.0057 -0.2839
41182W        W84120  32.467   3.999   9.790  0.2696 -0.1668 -0.2674
41183W        W84121  30.822   2.118   9.958 -0.3155 -0.1367  0.1691
41184W        W84122  30.985   0.783   6.386  0.2673 -0.0619  0.2022
41185W        W84123  31.617   3.315   8.979  0.2242  0.1770  0.2616
41186W        W84124  28.786   2.032   8.011  0.1487 -0.2307 -0.0798
41187W        W84125  29.719   1.440   9.357 -0.1050  0.0546 -0.1172
41188W        W84126  31.362   3.413   8.449 -0.3326  0.0731 -0.0277
41189W        W84127  32.563  33.904   8.226  0.2161  0.3100 -0.3552
41190W        W84128  29.989   0.798   8.432 -0.1982  0.4926  0.0676
41191W        W84129  32.688   1.227   8.953  0.0693  0.1809 -0.2248
41192W        W84130  32.064  34.356   8.529  0.0172  0.0209  0.1567
41193W        W84131  32.494   3.058   8.624  0.0591  0.0171  0.4002
41194W        W84132  31.560   2.231   8.643  0.0175 -0.0075 -0.0693
41195W        W84133  31.164   0.211   8.047 -0.0606 -0.5260  0.0041
41196W        W84134  31.654   2.813   8.158  0.0880  0.0213  0.1035
41197W        W84135  31.828   2.109  10.027  0.2423  0.1162 -0.1122
41198W        W84136  31.744   1.001   7.897 -0.1364  0.1497  0.0308
41199W        W84137  32.928   3.630   7.311  0.0373  0.2041  0.6609
41200W        W84138  30.107   1.650   9.626  0.3229 -0.0912  0.2794
41201W        W84139  32.222   3.330   8.233 -0.2213 -0.0943  0.3918
41202W        W84140  31.333   3.128   9.992 -0.0439  0.0169 -0.4487
41203W        W84141  30.185   0.843   7.075 -0.0909 -0.1360 -0.1964
41204W        W84142  30.032   0.303   8.540 -0.1123 -0.2331 -0.2545
41205W        W84143  28.588   3.299   6.180 -0.1457 -0.2392  0.0982
41206W        W84144  33.206  34.156  10.588  0.2718 -0.1959  0.1695
41207W        W84145  30.807   0.727   8.892  0.4978 -0.1821  0.1633
41208W        W84146  32.480   0.782   9.000 -0.1305 -0.0295 -0.0682
41209W        W84147  32.557  34.508   9.467 -0.3264  0.0620  0.1667
41210W        W84148  29.905   0.186   7.524 -0.3772  0.1258  0.0997
41211W        W84149  32.300   1.863   9.581 -0.2424 -0.2342  0.0967
41212W        W84150  30.534   2.840   9.768 -0.0321  0.1901  0.0380
41213W        W84151  33.149   2.537   9.525 -0.0247  0.3359  0.1170
41214W        W84152  31.140   0.695   7.154  0.0713  0.1119  0.2822
41215W        W84153  31.837   3.200   8.520 -0.0785  0.0469  0.3045
41216W        W84154  29.734   1.652   8.026 -0.1063 -0.0477 -0.0184
41217W        W84155  30.529  33.371   9.941 -0.1129  0.0945  0.0996
41218W        W84156  30.436   2.289   8.653 -0.0472 -0.0603  0.1032
41219W        W84157  30.649   3.312   7.305  0.1744 -0.1446 -0.2432
41220W        W84158  32.659   3.414   9.575 -0.1914  0.0090  0.1054
41221W        W84159  29.136   2.453   9.213  0.0990 -0.1204 -0.2930
41222W        W84160  32.604  33.670  10.031  0.0276  0.3179 -0.2899
41223W        W84161  28.983   2.359   8.721  0.0707  0.3080 -0.2345
41224W        W84162  30.317   0.968   8.001  0.0257 -0.1952 -0.0759
41225W        W84163  28.766   0.634   8.059 -0.0728  0.3586 -0.2352
41226W        W84164  32.411   2.277   9.903  0.0291 -0.0025  0.0831
41227W        W84165  32.214   2.492   7.757  0.0877  0.0179 -0.1284
41228W        W84166  29.897  34.681   8.940 -0.1951  0.1845 -0.1431
41229W        W84167  33.182   3.633  10.392  0.0873  0.3781  0.0532
41230W        W84168  29.059   2.444   8.031  0.1481  0.0408 -0.0493
41231W        W84169  32.415   0.575   7.604  0.1399 -0.1630 -0.0652
41232W        W84170  28.386  34.656   8.499  0.0394  0.0209 -0.1229
41233W        W84171   0.423  33.280   9.185  0.2404 -0.4759  0.0606
41234W        W84172  30.525   0.507   8.160 -0.2697  0.1389  0.0468
41235W        W84173  28.929   1.269   7.960  0.0681 -0.1104  0.2733
41236W        W84174  31.779   2.966   9.287 -0.0619  0.1892 -0.3612
41237W        W84175  30.217   1.707   7.563  0.0886  0.1144 -0.1152
41238W        W84176  29.265   2.024   9.557  0.2145 -0.9264  0.4079
41239W        W84177  31.104   0.634   9.638 -0.0798 -0.1596  0.2252
41240W        W84178  30.536   1.552   9.270 -0.1640  0.0518 -0.0756
41241W        W84179  31.378   0.172   8.462  0.1367  0.0577 -0.1317
41242W        W84180  31.457   1.552   8.717  0.1085  0.1870 -0.2293
41243W        W84181  29.422   1.565   9.763 -0.3918  0.2551  0.0479
41244W        W84182  31.608   0.633   9.651 -0.3941  0.1961 -0.1578
41245W        W84183  30.643  32.965  10.290 -0.0233  0.1661 -0.0207
41246W        W84184  31.650   1.872   7.852  0.1133 -0.4332 -0.0786
41247W        W84185  31.420   2.547  10.255  0.0657 -0.0382 -0.0492
41248W        W84186  30.412   3.000   7.921 -0.1460  0.0533 -0.2447
41249W        W84187  31.004   0.311   8.764  0.0020  0.2711 -0.2239
41250W        W84188  30.781   2.598   9.380  0.0060  0.0436 -0.0772
41251W        W84189  29.278   2.543   7.018  0.2637 -0.2123  0.1164
41252W        W84190  26.970   1.996   9.229  0.3397  0.0238  0.1110
41253W        W84191  31.997  34.403   7.989 -0.3392 -0.0956 -0.2140
41254W        W84192  32.557   3.361   7.591 -0.0678  0.1874 -0.1223
41255W        W84193  30.664  34.392   7.855  0.0419 -0.2675 -0.2228
41256W        W84194  30.564   1.222   9.782 -0.0603 -0.6912  0.3044
41257W        W84195  27.026  34.211  10.000 -0.1378  0.2562 -0.5647
41258W        W84196  33.638   2.574   9.379  0.0258  0.1457  0.1107
41259W        W84197  30.425   0.589   7.673 -0.0422 -0.0731 -0.1817
41260W        W84198  30.563   1.368   8.317 -0.1715  0.1954 -0.0284
41261W        W84199  30.502   0.884   8.479 -0.5764 -0.0001  0.0634
41262W        W84200  31.727   2.421   9.076 -0.1619  0.2340 -0.0540
41263W        W84201  30.509   2.562   8.146  0.3645 -0.2873  0.2360
41264W        W84202  32.797   2.656  10.094 -0.4461  0.2040 -0.0185
41265W        W84203  31.053   1.698   9.849 -0.0028 -0.0793  0.1209
41266W        W84204  31.977   2.434   8.405  0.1776 -0.1465  0.0234
41267W        W84205  31.256   2.152   7.759  0.2203  0.1402  0.1509
41268W        W84206  30.514   1.787   8.099  0.0257  0.0771  0.0481
41269W        W84207  32.825   2.544   9.124 -0.1616  0.0660 -0.1945
41270W        W84208  31.051   1.119   9.905 -0.2563  0.0226  0.1477
41271W        W84209  32.694   5.037   9.958 -0.1505  0.0064 -0.0404
41272W        W84210  30.461   1.617   6.634 -0.1209  0.1848 -0.1309
41273W        W84211  33.639   0.715   9.896 -0.0730 -0.0359  0.3799
41274W        W84212  33.207   2.188   8.623  0.0926  0.3589  0.0876
41275W        W84213  32.826   3.188   8.177 -0.3211  0.2377 -0.1976
41276W        W84214  30.891   0.752   7.870  0.1788 -0.1614 -0.3609
41277W        W84215  29.965   0.883   7.592 -0.1332 -0.1317  0.0207
41278W        W84216  29.887   2.624   8.079 -0.1231  0.2372 -0.2962
41279W        W84217  31.584   2.756   8.658  0.3023  0.2049  0.0377
41280W        W84218  31.566   0.700   8.269  0.0691 -0.1787  0.0656
41281W        W84219  28.330  34.615   9.261 -0.0926  0.0666 -0.1012
41282W        W84220  29.443  34.456   8.242  0.1771  0.1793 -0.1490
41283W        W84221  29.393   1.544   7.444 -0.0564  0.0488  0.0678
41284W        W84222  33.536   2.383   9.852  0.0841  0.0155 -0.0271
41285W        W84223  32.249   0.278   9.057 -0.0375  0.1796 -0.2021
41286W        W84224  30.145   2.964   8.343  0.1826  0.2198 -0.3166
41287W        W84225  33.469  33.770   9.646 -0.0716 -0.2052 -0.1469
41288W        W84226  29.573   5.737  10.236 -0.0325 -0.1694  0.0845
41289W        W84227  31.359   3.261   9.440 -0.1448  0.0664  0.3575
41290W        W84228  31.859  34.607   9.048 -0.2702  0.3245 -0.0728
41291W        W84229  32.798   0.915   9.518  0.2064  0.1573  0.1756
41292W        W84230  30.404   2.364   9.655 -0.1753  0.2912 -0.3795
41293W        W84231  31.635   2.664   9.794  0.3237  0.3783 -0.1328
41294W        W84232  33.736   3.263   7.850 -0.0288 -0.1473 -0.0496
41295W        W84233  30.608   2.979   8.483  0.0946 -0.1751 -0.1922
41296W        W84234  30.786   1.132  12.361  0.0687 -0.1193  0.3285
41297W        W84235  29.835  34.404   8.515 -0.0826  0.3618  0.4701
41298W        W84236  30.242   3.965   7.630 -0.0130  0.1826 -0.1395
41299W        W84237  30.266   0.651   9.436 -0.0608 -0.1669 -0.1778
41300W        W84238  29.361   3.202   8.593 -0.2182  0.2214 -0.2178
41301W        W84239  33.165   3.439   7.860  0.0491  0.2593  0.0890
41302W        W84240  31.708   2.325   8.026 -0.1122  0.3033 -0.0365
41303W        W84241  31.288   2.013  10.149 -0.2454  0.1512 -0.3224
41304W        W84242  32.052   0.577   8.032  0.0797 -0.0289  0.2338
41305W        W84243  31.099   2.012   8.629  0.2308 -0.0178 -0.1930
41306W        W84244  29.014   2.304   7.503  0.0592 -0.0916 -0.1969
41307W        W84245  32.509   4.222   8.616  0.1520 -0.0256 -0.2260
41308W        W84246  29.468   5.304  10.000 -0.0114 -0.0240 -0.1363
41309W        W84247  32.373   0.532   8.438 -0.2555  0.2041 -0.0387
41310W        W84248  31.804   1.923   8.948 -0.0785 -0.2327 -0.1030
41311W        W84249  32.800   0.929   8.555  0.3075 -0.1032  0.0769
41312W        W84250  31.815   0.238   9.976 -0.1133 -0.2684 -0.0295
41313W        W84251  31.969   0.917   6.383 -0.0229  0.1032 -0.2321
41314W        W84252  32.333   2.931   7.391 -0.0877 -0.5128  0.2127
41315W        W84253  30.043   0.538   7.990  0.2425  0.1154 -0.1085
41316W        W84254  29.802   1.293   8.404 -0.2954 -0.0165  0.0369
41317W        W84255  33.800  34.506   8.532 -0.0184 -0.1556  0.2292
41318W        W84256  29.807   2.308   7.079 -0.1833 -0.1431 -0.1228
41319W        W84257  31.641   1.457   8.127  0.0744  0.5640 -0.3079
41320W        W84258  31.585   3.699   9.568  0.4072  0.1181 -0.2767
41321W        W84259  29.840   2.096   9.606 -0.0342  0.0966 -0.1449
41322W        W84260  31.190   4.615  10.644 -0.2107 -0.0753 -0.0817
41323W        W84261  28.328   0.804   7.821  0.0491 -0.0742 -0.1296
41324W        W84262  33.525   1.352   8.062 -0.1725  0.1001 -0.1621
41325W        W84263  29.433   3.378   9.076 -0.2625 -0.0308  0.0910
41326W        W84264  28.404   1.246   9.477 -0.3027 -0.0318  0.0264
41327W        W84265  33.268   1.488   9.031  0.1382 -0.0287 -0.0607
41328W        W84266  33.071  34.035   9.847 -0.1226 -0.4065  0.0956
41329W        W84267  27.791   1.247   8.581  0.3288  0.1102  0.0123
41330W        W84268  30.522   0.086   6.888 -0.0031  0.2611  0.1597
41331W        W84269  31.152   2.145   6.639  0.1085 -0.3924 -0.2477
41332W        W84270  29.750  32.923   9.697 -0.0393 -0.2226 -0.0209
41333W        W84271  32.277   1.595   7.282  0.2843  0.1604  0.0995
41334W        W84272  30.354   1.258   8.744  0.4435 -0.1497  0.0421
41335W        W84273  30.764   0.787  10.215  0.1259 -0.0479  0.2059
41336W        W84274  29.771   0.579   8.848 -0.1512 -0.2079  0.0434
41337W        W84275  30.211   3.109   7.388  0.0007  0.0036  0.1537
41338W        W84276  33.316   0.971   9.494  0.0046  0.0038 -0.3179
41339W        W84277  31.311   3.191   7.976 -0.1979 -0.0379 -0.0061
41340W        W84278  32.393   2.536   8.806  0.1243  0.2446 -0.1425
41341W        W84279  32.325   3.130   9.366  0.2475 -0.2821  0.3255
41342W        W84280  28.381   0.271   9.697 -0.1154  0.6394  0.0261
41343W        W84281  34.155   2.850  10.290 -0.0021 -0.1621  0.1970
41344W        W84282  33.497   3.132   8.796 -0.0910  0.0793 -0.0750
41345W        W84283  31.976   1.489   8.660 -0.0796 -0.1358 -0.2735
41346W        W84284  30.551   1.730   8.690  0.0535  0.0088 -0.1063
41347W        W84285  27.833   2.161   8.535 -0.0278 -0.2244 -0.2182
41348W        W84286  31.753   0.943   9.242  0.2370 -0.1101  0.1469
41349W        W84287  30.294   4.449   7.897  0.1030 -0.1516 -0.1217
41350W        W84288  32.499   3.587   8.582 -0.3407 -0.0098  0.0721
41351W        W84289  29.740   0.631   7.194 -0.0392 -0.2571  0.1528
41352W        W84290  31.103   1.606   7.930  0.0202 -0.0411 -0.1620
41353W        W84291  30.151   4.014   8.708  0.0383  0.1537 -0.1560
41354W        W84292  33.489   4.278   9.867 -0.0050 -0.0859  0.0155
41355W        W84293  30.669   0.610   6.791 -0.4780 -0.1366  0.0898
41356W        W84294  33.091   1.976   9.163 -0.3926  0.1161 -0.1575
41357W        W84295  31.415   0.861  10.061 -0.0483  0.0290  0.0655
41358W        W84296  34.309  34.392   8.336  0.4129  0.0038  0.0697
41359W        W84297  32.910  34.555   9.057  0.0327 -0.2273  0.0301
41360W        W84298  30.839   3.383   8.654  0.2989 -0.0773 -0.1870
41361W        W84299  27.986   0.869   8.337 -0.0690 -0.1725  0.1175
41362W        W84300  30.841   3.177   8.019 -0.0755 -0.0781  0.0188
41363W        W84301  30.079   1.601   8.953  0.2881 -0.0156  0.1680
41364W        W84302  29.451   2.570   7.727  0.1311  0.1114  0.0834
41365W        W84303  29.533   0.494   7.709  0.2420  0.2214 -0.4120
41366W        W84304  32.147   2.868   8.347 -0.2823 -0.0693 -0.1512
41367W        W84305  29.166   0.272   9.540  0.0278  0.1940 -0.2792
41368W        W84306  27.354  34.204  10.364 -0.2722 -0.2527 -0.1463
41369W        W84307  31.351   1.948   8.236  0.1845  0.2233 -0.1302
41370W        W84308  31.114   1.561   8.414  0.2998 -0.3670  0.0219
41371W        W84309  29.949   1.145   9.797 -0.1658  0.2600 -0.1981
41372W        W84310  29.526   1.345   6.681 -0.0418 -0.2199 -0.0513
41373W        W84311  30.071  34.565   6.853 -0.1906 -0.1819 -0.1905
41374W        W84312  31.482   1.513  10.086  0.1388  0.1893  0.3048
41375W        W84313  32.208   3.956   8.832  0.3461 -0.3848  0.1218
41376W        W84314  31.683   2.924   6.788 -0.0624 -0.1394  0.1390
41377W        W84315  26.354   2.712   9.931  0.0379 -0.0251  0.0518
41378W        W84316  30.966   2.031   9.473 -0.0652  0.2414 -0.0710
41379W        W84317  33.097   4.227   7.133 -0.1838 -0.0731  0.0011
41380W        W84318  32.698   2.114   9.439  0.0884 -0.0862  0.2123
41381W        W84319  30.618   1.353   7.843  0.2505  0.0903  0.0408
41382W        W84320  32.674   2.557   9.638 -0.0988  0.2325  0.1762
41383W        W84321  30.245  34.280   9.312  0.1418 -0.1828 -0.0400
41384W        W84322  32.163   1.563   8.209 -0.1122 -0.1314  0.0300
41385W        W84323  32.878   3.920   7.823  0.1165 -0.4236  0.2731
41386W        W84324  30.281   1.128   9.252 -0.2037 -0.1024 -0.1569
41387W        W84325  32.171   2.405   7.277 -0.2879  0.0889 -0.0533
41388W        W84326  30.084   3.490   9.882  0.2839 -0.0488 -0.1887
41389W        W84327  31.126   1.069   7.516  0.3057  0.1000  0.1303
41390W        W84328  33.222   2.825   9.909 -0.1161 -0.0428  0.0772
41391W        W84329  32.647   4.374  11.135  0.2695  0.3174 -0.1140
41392W        W84330  28.798   5.279   9.647  0.0978  0.0844  0.2023
41393W        W84331   0.529   2.684  10.938  0.0521 -0.1231 -0.0067
41394W        W84332  28.419  34.237   9.633  0.1049 -0.0840 -0.0776
41395W        W84333  30.971   3.016   9.677 -0.2046 -0.0004  0.1560
41396W        W84334  32.111   2.068   8.071  0.0174  0.0999  0.1956
41397W        W84335  32.457   0.797   9.858  0.0276 -0.1417  0.2300
41398W        W84336  30.966   1.087   8.552 -0.1384 -0.3096  0.1654
41399W        W84337  31.418   0.560   8.728  0.2346  0.2715  0.0926
41400W        W84338  30.035   2.855   9.725 -0.0708  0.0486  0.1759
41401W        W84339   1.293   5.054  10.853 -0.0809 -0.1913 -0.0179
41402W        W84340  30.984   6.050   2.705 -0.1865 -0.1620  0.1252
41403W        W84341  30.383   6.307   1.098 -0.2004 -0.1499  0.2439
41404W        W84342  31.740   3.930   0.983  0.1284 -0.0048  0.0472
41405W        W84343  32.607   5.840   1.193  0.3070 -0.1251 -0.0410
41406W        W84344  28.704   3.724   1.920  0.0425 -0.1021 -0.2875
41407W        W84345  33.259   5.789   1.120  0.2606  0.0475  0.1143
41408W        W84346  30.129   3.956   2.479  0.2399 -0.1760 -0.0355
41409W        W84347  32.686   6.281   0.862  0.0461 -0.1179  0.0968
41410W        W84348  31.660   6.657   3.204  0.2931  0.2443  0.4755
41411W        W84349  31.119   4.765   0.825  0.2468  0.2486 -0.0600
41412W        W84350  30.599   4.583   1.452  0.0647  0.0827 -0.3833
41413W        W84351  31.412   5.821   3.452  0.3548  0.1100 -0.0226
41414W        W84352  30.975   2.629   1.287 -0.0782 -0.3137  0.0377
41415W        W84353  28.308   3.566   2.315  0.2231  0.0828 -0.0471
41416W        W84354  31.339   6.211   1.827  0.0146 -0.3612  0.2859
41417W        W84355  29.907   6.977   1.045 -0.0049  0.0936  0.0725
41418W        W84356  29.889   5.855   1.917  0.4187  0.0507  0.1395
41419W        W84357  31.028   4.199  31.548  0.0112  0.1760 -0.0697
41420W        W84358  31.239   6.639   1.663 -0.3075  0.0933 -0.0984
41421W        W84359  30.467   4.400   2.681 -0.2956 -0.0300 -0.2035
41422W        W84360  32.216   3.629   2.784  0.0860  0.1073  0.0162
41423W        W84361  30.309   5.646   0.763 -0.0965 -0.1781 -0.0926
41424W        W84362  28.895   3.366   0.094 -0.0718 -0.1274 -0.0549
41425W        W84363  28.643   6.687   1.652  0.2617 -0.2481 -0.0700
41426W        W84364  30.884   4.599   2.193 -0.1018  0.0720 -0.1707
41427W        W84365  32.746   3.857   0.841  0.1914 -0.0538  0.1526
41428W        W84366  31.051   5.603   2.507  0.2013 -0.0367  0.1752
41429W        W84367  30.257   7.712   1.633 -0.1772  0.0503  0.1137
41430W        W84368  30.374   6.557   1.694  0.1958  0.2661 -0.0010
41431W        W84369  31.704   4.875   2.944  0.2799  0.1401  0.3084
41432W        W84370  28.812   6.646   2.647 -0.0906  0.1266 -0.0472
41433W        W84371  29.155   5.541   2.475 -0.2308  0.0660 -0.1329
41434W        W84372  30.466   7.404   1.218  0.0068  0.1602  0.2053
41435W        W84373  33.047   6.551   1.520 -0.2974  0.2241 -0.3090
41436W        W84374  32.169   6.520   4.428  0.3784  0.0480 -0.2072
41437W        W84375  30.613   6.403   3.215  0.1358 -0.0767  0.0744
41438W        W84376  31.048   6.351   0.226 -0.1096  0.1176 -0.0222
41439W        W84377  31.471   7.067   4.119  0.1936 -0.0532 -0.4300
41440W        W84378  29.960   6.486   3.315  0.1295 -0.0630  0.0447
41441W        W84379  29.881   5.303   1.897  0.1193  0.4832 -0.1668
41442W        W84380  30.002   6.509   1.300  0.0324 -0.2079 -0.1536
41443W        W84381  31.276   9.368   0.878  0.1218 -0.2916 -0.1175
41444W        W84382  31.001   7.715   0.402 -0.2805  0.2827 -0.0869
41445W        W84383  29.991   9.061   3.594  0.1000  0.0273  0.1229
41446W        W84384  28.448   6.114   2.770 -0.1722  0.2020 -0.1451
41447W        W84385  31.498   3.794   4.115  0.1164  0.1334  0.1190
41448W        W84386  30.835   7.107   0.966  0.0031  0.1190  0.1510
41449W        W84387  32.192   5.479   0.716  0.1326  0.0402  0.0708
41450W        W84388  30.918   4.064   1.124 -0.2141  0.2476  0.3349
41451W        W84389  32.692   5.218   0.491 -0.1454  0.0049 -0.1340
41452W        W84390  31.233   4.226   2.157  0.1180  0.0505 -0.1133
41453W        W84391  29.651   8.362   0.732  0.0690  0.3646 -0.0732
41454W        W84392  29.309   4.273   2.072  0.2933 -0.2174 -0.0974
41455W        W84393  32.630   5.233   3.827 -0.0531 -0.1402  0.0302
41456W        W84394  32.518   6.362   1.407  0.0467 -0.0714  0.1106
41457W        W84395  32.574   4.276   3.524  0.0305 -0.3702  0.2805
41458W        W84396  29.802   7.604   2.432  0.0632  0.0684 -0.1356
41459W        W84397  29.675   6.671   2.627  0.3015 -0.1642 -0.1570
41460W        W84398  32.786   7.139   0.746  0.2222  0.0931  0.1200
41461W        W84399  31.797   6.314   2.036  0.1044  0.2454 -0.1007
41462W        W84400  32.030   7.772   0.738  0.0138 -0.0029 -0.1118
41463W        W84401  27.784   3.503   0.340 -0.2804 -0.0194  0.1221
41464W        W84402  28.740   6.517   3.529  0.3056 -0.0022  0.1859
41465W        W84403  28.477   3.675   3.320 -0.1026  0.4290 -0.3447
41466W        W84404  30.069   1.461  31.972 -0.0063  0.3353 -0.2281
41467W        W84405  33.113   5.453   4.165 -0.3802 -0.0740 -0.0202
41468W        W84406  27.385   7.729   4.200 -0.2325  0.2040  0.3477
41469W        W84407  31.544   6.433   1.367 -0.0277  0.1459 -0.0442
41470W        W84408  29.562   6.254   3.036  0.3105 -0.0731 -0.1348
41471W        W84409  30.997   7.519   1.147 -0.1927 -0.0358  0.0935
41472W        W84410  31.365   3.424   0.182 -0.0956 -0.0111  0.4185
41473W        W84411  31.607   3.555   1.399 -0.1979 -0.1669  0.2126
41474W        W84412  32.183   2.212   1.764  0.1049 -0.1344 -0.1106
41475W        W84413  29.483   4.971  31.754  0.3137 -0.3297  0.1919
41476W        W84414  30.443   5.146   2.020  0.2458  0.2179 -0.2826
41477W        W84415  32.932   6.403   3.913 -0.3286 -0.0659  0.1668
41478W        W84416  31.840   5.256  30.593  0.0441 -0.1223 -0.0752
41479W        W84417  30.343   7.637   2.486  0.0593 -0.2807 -0.0967
41480W        W84418  31.226   4.825   3.049 -0.2005 -0.2358  0.1559
41481W        W84419  32.467   7.023   3.234  0.0526 -0.0424  0.0813
41482W        W84420  30.680   5.859   0.997  0.0746 -0.0997  0.1077
41483W        W84421  29.036   5.473   1.304  0.1290 -0.3337  0.1869
41484W        W84422  29.903   4.091   0.270  0.2014  0.0452  0.2019
41485W        W84423  29.299   3.541   1.446  0.1903 -0.1466 -0.1790
41486W        W84424  29.974   5.719   2.796  0.3100 -0.0760 -0.1253
41487W        W84425  32.390   4.376   1.533 -0.3674  0.1245  0.3170
41488W        W84426  29.325   4.216   2.548  0.3442 -0.0567 -0.1187
41489W        W84427  32.233   2.979   2.463 -0.0960 -0.0835 -0.1152
41490W        W84428  29.120   5.083   0.866  0.1783 -0.3060  0.0927
41491W        W84429  31.142   6.741   1.141  0.1992  0.1310 -0.0484
41492W        W84430  31.197   5.886   0.875 -0.2171 -0.2362 -0.1079
41493W        W84431  30.515   4.835  31.160 -0.0465  0.1258  0.1359
41494W        W84432  28.833   4.159   2.165  0.2807  0.0347  0.1513
41495W        W84433  27.744   3.760   0.791  0.0970 -0.0212  0.3418
41496W        W84434  30.383   4.787   2.389  0.4746 -0.1747  0.0750
41497W        W84435  32.616   4.001   1.915 -0.1037 -0.2060 -0.0566
41498W        W84436  30.230   2.475   0.126  0.1201 -0.1511 -0.0429
41499W        W84437  31.245   5.125   1.827  0.5080 -0.0595  0.2742
41500W        W84438  30.577   6.047   1.443 -0.0919 -0.1722  0.1486
41501W        W84439  29.524   5.740   0.936 -0.0006 -0.2663  0.1937
41502W        W84440  32.048   4.609   4.238  0.1546 -0.0311 -0.1768
41503W        W84441  30.781   6.958   1.492 -0.0252  0.2727 -0.0360
41504W        W84442  31.711   6.763   2.155 -0.2243 -0.0559 -0.0690
41505W        W84443  31.864   7.728   2.221 -0.2937  0.0808 -0.1269
41506W        W84444  29.847   4.948   2.374 -0.2779  0.1959  0.0498
41507W        W84445  30.808   4.310   0.208  0.0694 -0.1979 -0.2257
41508W        W84446  29.013   7.923   1.471 -0.3119 -0.1732  0.2249
41509W        W84447  30.518   5.289   0.588  0.2724  0.1240  0.3270
41510W        W84448  30.759   5.573   1.579 -0.0897 -0.1341  0.0800
41511W        W84449  31.879   7.475   2.655 -0.1509  0.0018 -0.0324
41512W        W84450  31.226   5.657   1.691 -0.1955 -0.0480 -0.0274
41513W        W84451  28.601   5.663   2.472 -0.4098  0.3641  0.1024
41514W        W84452  31.994   2.233  31.788 -0.0775 -0.0677  0.0458
41515W        W84453  33.107   5.040   3.730 -0.4288 -0.0774  0.0548
41516W        W84454  30.538   3.984   1.460 -0.2076  0.0658  0.1422
41517W        W84455  28.226   3.533  31.363 -0.1057  0.2210  0.0454
41518W        W84456  30.437   8.617   1.909  0.1625  0.2413  0.0574
41519W        W84457  30.393   7.021   0.577 -0.0496 -0.2060  0.0251
41520W        W84458  29.420   6.972   1.071 -0.0383  0.0296  0.0465
41521W        W84459  30.548   6.588   2.182  0.1511 -0.1394 -0.2142
41522W        W84460  31.797   3.241   2.483 -0.2270  0.0309  0.6377
41523W        W84461  30.919   5.081   2.414  0.2109  0.0310 -0.3931
41524W        W84462  32.262   5.127   3.503 -0.1776 -0.1233 -0.1214
41525W        W84463  29.998   5.233   0.502  0.2202  0.1962  0.0181
41526W        W84464  29.191   6.924   2.370 -0.2804  0.0780  0.0594
41527W        W84465  30.702   3.971   1.940 -0.0114  0.0975 -0.0151
41528W        W84466  31.673   4.161   0.465  0.2882 -0.1016 -0.1301
41529W        W84467  29.804   8.081   5.219  0.1572 -0.1570 -0.1550
41530W        W84468  32.471   5.787   2.303 -0.1161  0.3562  0.1289
41531W        W84469  32.075   4.564   0.639 -0.2347  0.0513  0.0849
41532W        W84470  32.906   3.681  31.841  0.1959  0.1443 -0.0370
41533W        W84471  29.973   5.885   3.303 -0.1021 -0.3903  0.2948
41534W        W84472  30.288   4.816   0.631  0.0277 -0.3487  0.0577
41535W        W84473  31.300   5.204   2.694 -0.1645 -0.0026 -0.0925
41536W        W84474  31.978   3.195   1.422 -0.0613 -0.1693  0.2702
41537W        W84475  31.042   6.152   1.271 -0.1569  0.0093  0.1727
41538W        W84476  29.003   5.972   2.249 -0.1854 -0.0910 -0.1358
41539W        W84477  32.029   5.631   4.943  0.0545 -0.1938 -0.0732
41540W        W84478  30.814   5.697   0.525  0.1802 -0.2690  0.1265
41541W        W84479  30.444   3.669   2.222 -0.2121  0.1727  0.1999
41542W        W84480  30.310   2.823   0.493 -0.2251 -0.1622  0.1211
41543W        W84481  30.444   3.579   1.756  0.0106 -0.2363 -0.4574
41544W        W84482  30.393   6.213   0.063  0.1709 -0.1015 -0.1185
41545W        W84483  32.174   4.155   2.471 -0.1638  0.2525 -0.1323
41546W        W84484  31.481   2.455   2.367  0.3986  0.3206  0.0667
41547W        W84485  31.316   3.966   2.668  0.0322  0.0595  0.2092
41548W        W84486  31.642   3.591   3.566  0.0721 -0.1144 -0.0934
41549W        W84487  30.610   3.548   0.427 -0.2389  0.0443 -0.0040
41550W        W84488  31.322   4.743   2.567 -0.2254 -0.0498 -0.0457
41551W        W84489  29.392   3.336   0.750  0.1080 -0.1788  0.3769
41552W        W84490  30.107   5.271   2.826  0.1630  0.1366 -0.1397
41553W        W84491  29.717   5.614   1.477 -0.2330 -0.2459  0.0752
41554W        W84492  29.246   7.450   2.449  0.2200 -0.0416 -0.1427
41555W        W84493  31.371   6.105   4.683  0.2263  0.1636 -0.2264
41556W        W84494  31.070   5.251   0.767 -0.0629 -0.1861  0.1746
41557W        W84495  28.710   5.127   4.659  0.3268 -0.1627  0.3533
41558W        W84496  31.579   4.820   0.789  0.4815  0.0299 -0.0512
41559W        W84497  31.300   7.264   0.847 -0.1705 -0.1080 -0.1803
41560W        W84498  29.914   5.167   1.394  0.1628  0.0008 -0.2457
41561W        W84499  31.054   4.412   2.825  0.0149  0.0420 -0.0707
41562W        W84500  30.314   7.153   1.689  0.1818 -0.3160  0.1871
41563W        W84501  30.055   6.023   1.343  0.2400 -0.0484  0.2056
41564W        W84502  32.041   4.388   3.051  0.0180  0.1357  0.1434
41565W        W84503  30.435   5.634   2.021  0.1595  0.1843  0.0154
41566W        W84504  32.701   4.900   2.224 -0.2270  0.2635  0.1413
41567W        W84505  29.922   6.858   1.793  0.2001 -0.0295 -0.1867
41568W        W84506  29.228   4.262   0.169 -0.1709  0.0335  0.0615
41569W        W84507  27.883   4.469   0.119 -0.1133  0.1861  0.2233
41570W        W84508  32.801   2.757   0.342 -0.0427  0.1469 -0.0713
41571W        W84509  31.753   5.914   1.712 -0.1978 -0.1867  0.1612
41572W        W84510  29.582   4.216   1.623  0.0468 -0.2676 -0.0198
41573W        W84511  29.454   2.527   0.516 -0.2082  0.0267 -0.0130
41574W        W84512  28.462   7.101   2.508 -0.1738  0.2966  0.2676
41575W        W84513  31.370   4.694   2.039 -0.3798  0.2311  0.4111
41576W        W84514  31.371   4.113   1.410 -0.0132 -0.0601 -0.0068
41577W        W84515  30.831   6.388   1.799  0.1106 -0.2143 -0.0684
41578W        W84516  29.677   5.594   3.597 -0.1028 -0.0150  0.0775
41579W        W84517  29.992   3.703  31.232  0.2799 -0.2647  0.1100
41580W        W84518  31.793   4.913   2.419 -0.1141  0.0106 -0.2455
41581W        W84519  31.508   5.233   1.053 -0.1562  0.2131  0.0304
41582W        W84520  29.237   6.289   2.661 -0.0086 -0.0162 -0.0713
41583W        W84521  30.311   7.899   1.045 -0.0057 -0.1586  0.2848
41584W        W84522  29.950   3.819   1.446  0.0212  0.2070 -0.0811
41585W        W84523  30.156   6.609   0.728  0.0637 -0.2639  0.0777
41586W        W84524  29.125   4.382   3.001  0.1495 -0.2614 -0.0388
41587W        W84525  31.273   5.659   2.984 -0.1659  0.1150  0.0628
41588W        W84526  29.068   4.025   1.731 -0.2046  0.1087  0.3239
41589W        W84527  28.848   3.300   1.339  0.0633 -0.3257  0.0169
41590W        W84528  30.901   5.943   2.047 -0.0364 -0.2089 -0.1102
41591W        W84529  32.192   5.742   2.736  0.0259  0.0054  0.0976
41592W        W84530  30.757   4.801   2.817  0.0310  0.1816  0.1595
41593W        W84531  29.651   7.181   3.587  0.5400  0.0707  0.2773
41594W        W84532  30.469   4.465   1.920  0.1270  0.0360 -0.2461
41595W        W84533  33.612   8.564   0.398  0.0824 -0.0335  0.0750
41596W        W84534  31.847   5.546   3.605  0.1163 -0.1119  0.0567
41597W        W84535  28.985   4.203   1.163  0.3340 -0.2853  0.0950
41598W        W84536  27.913   5.840   3.360  0.2038  0.2916  0.1141
41599W        W84537  29.484   5.234   1.194 -0.0527  0.0911 -0.0440
41600W        W84538  31.849   5.347   2.901  0.0533 -0.0668 -0.1552
41601W        W84539  31.079   6.145   3.258 -0.0037  0.1111  0.0475
41602W        W84540  30.188   4.213   1.050  0.4823  0.1636 -0.1292
41603W        W84541  29.607   7.183   2.195  0.1866 -0.2325  0.0205
41604W        W84542  31.357   3.025   2.125 -0.1987  0.0658  0.1715
41605W        W84543  31.234   5.494   0.329 -0.2093 -0.1797  0.0595
41606W        W84544  30.458   5.182   1.474  0.0785  0.2016  0.1852
41607W        W84545  33.004   5.254   1.904  0.3848  0.1978 -0.3072
41608W        W84546  30.933   5.193  31.961  0.2081  0.1690  0.0790
41609W        W84547  31.876   2.692   2.632 -0.3581  0.0007 -0.2085
41610W        W84548  29.699   4.433   2.981 -0.1613  0.3138  0.0445
41611W        W84549  32.757   5.881   2.710 -0.0331  0.1073 -0.0962
41612W        W84550  30.163   4.856   1.719  0.3248  0.1377  0.0826
41613W        W84551  30.531   7.146   3.573  0.1994  0.0097  0.0766
41614W        W84552  30.228   6.140   3.692 -0.0901  0.2226 -0.1024
41615W        W84553  31.752   4.382   2.584  0.0057  0.0115 -0.2799
41616W        W84554  29.609   2.526  31.669  0.0665 -0.1720 -0.1059
41617W        W84555  31.437   6.146   2.951 -0.0868  0.3706 -0.2310
41618W        W84556  31.648   5.527   4.602 -0.0507 -0.2666 -0.0350
41619W        W84557  30.424   5.089   0.143  0.1920  0.0298  0.1671
41620W        W84558  33.074   4.775   3.188 -0.1868  0.1081 -0.1269
41621W        W84559  28.365   5.199   2.535  0.2408 -0.1682 -0.2646
41622W        W84560  31.522   3.518   2.143  0.0604 -0.2021 -0.0770
41623W        W84561  31.003   4.680  31.701  0.0382 -0.0933  0.0974
41624W        W84562  32.590   6.752   1.025 -0.2993  0.0818 -0.0417
41625W        W84563  30.112   5.390   2.376 -0.0143  0.1265 -0.0932
41626W        W84564  31.039   6.710   3.180  0.1979  0.2693 -0.0038
41627W        W84565  31.326   3.426   2.591 -0.3132  0.0165  0.1088
41628W        W84566  31.358   3.891   3.138 -0.3273 -0.1001  0.0835
41629W        W84567  31.245   3.943   3.666 -0.0880  0.0143  0.5373
41630W        W84568  31.229   6.566   4.123  0.0174  0.3818  0.2763
41631W        W84569  29.961   3.417   3.125  0.0932 -0.2341  0.0915
41632W        W84570  32.660   7.222   4.462  0.0210  0.1138 -0.0649
41633W        W84571  33.181   4.514  31.870 -0.1646  0.3429  0.0268
41634W        W84572  32.179   3.419   2.270 -0.0376 -0.0998  0.4268
41635W        W84573  31.318   4.967   0.317 -0.2288  0.0129 -0.2194
41636W        W84574  31.729   5.235   0.478  0.0285  0.1150 -0.1538
41637W        W84575  28.550   4.672   0.081  0.1196 -0.1662  0.3840
41638W        W84576  31.523   4.367   3.055 -0.1542 -0.1108 -0.0598
41639W        W84577  29.575   2.652   1.016 -0.1646 -0.0251  0.1640
41640W        W84578  32.107   3.358   3.358  0.0134 -0.3815 -0.0682
41641W        W84579  31.113   7.939   0.834  0.4544  0.2500 -0.3386
41642W        W84580  31.530   5.238   2.191  0.0458 -0.1051 -0.0500
41643W        W84581  31.893   3.509   1.816  0.2648 -0.1632  0.0964
41644W        W84582  29.080   3.621   0.416  0.1526  0.2400 -0.0837
41645W        W84583  29.740   8.146   2.292 -0.1160 -0.2206 -0.0062
41646W        W84584  28.635   2.951   0.200 -0.0828  0.1068  0.2652
41647W        W84585  29.723   4.969   0.847  0.0926 -0.0720 -0.1368
41648W        W84586  31.424   6.129   2.435  0.2047  0.0230 -0.2035
41649W        W84587  32.141   6.543   4.982 -0.1242  0.3375  0.3360
41650W        W84588  29.459   1.800   0.745  0.3910  0.0012  0.0694
41651W        W84589  31.736   4.164   4.590  0.2390  0.2678 -0.0490
41652W        W84590  29.653   6.858   3.161  0.1443 -0.2001  0.0187
41653W        W84591  30.836   3.354   1.943 -0.0194  0.2279 -0.0891
41654W        W84592  29.706   7.741   1.944 -0.0223 -0.1789 -0.2253
41655W        W84593  29.640   5.659   2.351 -0.2443  0.0813 -0.0890
41656W        W84594  30.410   6.865   1.074  0.4489 -0.0225  0.0694
41657W        W84595  30.994   4.314   1.702 -0.0579 -0.1533  0.0216
41658W        W84596  32.216   3.865   3.290 -0.0794  0.1538  0.0274
41659W        W84597  30.100   5.853   2.339 -0.3577  0.0447  0.2505
41660W        W84598  32.046   4.525   4.767 -0.2934  0.1006  0.1275
41661W        W84599  32.181   5.931   3.489  0.3923 -0.1721 -0.0149
41662W        W84600  29.504   6.119   2.092  0.0303  0.1581  0.1962
41663W        W84601  31.421   5.274   3.231 -0.1661 -0.2355 -0.0539
41664W        W84602  32.632   6.479   2.396  0.0913  0.1127  0.1639
41665W        W84603  30.906   5.432   2.053 -0.1304  0.0887 -0.0262
41666W        W84604  28.978   4.597   2.274 -0.0177  0.1099 -0.0160
41667W        W84605  30.935   6.188   4.186 -0.0530 -0.1210  0.0002
41668W        W84606  32.052   6.231   1.534  0.0920 -0.0172  0.0794
41669W        W84607  29.999   5.142  31.842 -0.1097 -0.2094  0.0266
41670W        W84608  29.531   6.632   3.789  0.1955 -0.0717 -0.0198
41671W        W84609  28.564   5.644   2.979  0.4903  0.1763 -0.1144
41672W        W84610  28.402   6.336   3.204  0.2979 -0.0291 -0.1680
41673W        W84611  32.314   6.212   2.101  0.2006 -0.0694  0.1446
41674W        W84612  30.273   4.362   0.458 -0.0173 -0.1200 -0.0102
41675W        W84613  31.083   5.452   3.517 -0.1219  0.2873 -0.1127
41676W        W84614  30.191   4.694   1.165 -0.0649 -0.1130  0.0327
41677W        W84615  29.970   7.558   1.273  0.0833  0.0541 -0.1375
41678W        W84616  29.507   7.769   1.485 -0.0626 -0.2853 -0.1290
41679W        W84617  30.772   4.418   0.824  0.2337  0.2127 -0.0596
41680W        W84618  29.557   6.603   2.157 -0.0204 -0.1895  0.2166
41681W        W84619  32.283   5.550   4.443  0.1951 -0.2841  0.1922
41682W        W84620  32.713   3.496   1.749 -0.3395 -0.0414 -0.2283
41683W        W84621  32.563   5.370   2.827  0.1056 -0.1187 -0.2810
41684W        W84622  33.176   4.084   0.613  0.0074  0.1808  0.1236
41685W        W84623  32.101   6.703   3.418  0.0168  0.3172 -0.2471
41686W        W84624  29.401   6.384   1.196  0.0516 -0.0395  0.1212
41687W        W84625  30.188   3.304   0.472 -0.1981 -0.3109 -0.1082
41688W        W84626  29.476   5.238   2.194 -0.0426 -0.1196 -0.0521
41689W        W84627  32.590   3.182   3.340 -0.0250  0.1399 -0.0705
41690W        W84628  28.792   7.919   3.605  0.0691 -0.3422 -0.0395
41691W        W84629  31.330   6.408   0.873  0.3486 -0.2706 -0.1284
41692W        W84630  30.561   3.218   0.868  0.1613  0.0405  0.2758
41693W        W84631  29.926   5.475   0.956  0.0415  0.1693 -0.0329
41694W        W84632  32.679   2.687   1.662 -0.1011 -0.1755  0.0605
41695W        W84633  30.719   6.650   0.747 -0.2432  0.2644 -0.3797
41696W        W84634  31.817   3.734   2.501  0.0473 -0.2874 -0.3242
41697W        W84635  30.780   7.820   1.525  0.2218  0.1736 -0.4425
41698W        W84636  29.751   6.147   2.560  0.3486  0.0006  0.1775
41699W        W84637  29.702   6.247   1.644 -0.1166 -0.1687 -0.0455
41700W        W84638  29.920   2.578   0.664  0.1615  0.0564 -0.1373
41701W        W84639  32.485   5.401   1.971  0.0369 -0.0326  0.0112
41702W        W84640  30.573   6.069   2.401  0.0657  0.3354 -0.0131
41703W        W84641  31.183   3.599   1.097 -0.2067  0.1971 -0.1286
41704W        W84642  28.653   5.526   0.028  0.2078  0.2891 -0.0678
41705W        W84643  31.893   4.036   1.462  0.0176  0.2189  0.0814
41706W        W84644  30.727   6.553   4.580 -0.0777  0.2379  0.2964
41707W        W84645  28.457   4.591   2.300  0.2614 -0.0600  0.3059
41708W        W84646  32.437   3.905  31.941 -0.0422 -0.0020 -0.2404
41709W        W84647  31.502   5.722   2.149  0.2452 -0.0610 -0.0158
41710W        W84648  32.262   4.543   0.131  0.1480 -0.1386 -0.2334
41711W        W84649  31.282   5.482   3.966  0.1532 -0.0814  0.0754
41712W        W84650  28.417   4.074   1.222 -0.0163 -0.1861 -0.0229
41713W        W84651  31.964   4.528   2.126  0.0707  0.0036  0.1838
41714W        W84652  29.362   5.613   1.904 -0.2004  0.1504  0.1711
41715W        W84653  31.581   4.359   1.745  0.0189 -0.0288 -0.1844
41716W        W84654  31.128   6.466   2.218  0.1714  0.4875 -0.1342
41717W        W84655  29.542   3.328   2.101 -0.1358 -0.1013  0.0970
41718W        W84656  32.257   5.283   1.575 -0.1307  0.0949  0.1405
41719W        W84657  31.787   5.005   3.388  0.0405  0.1119  0.0230
41720W        W84658  30.678   7.619   0.803  0.2092 -0.0945 -0.3046
41721W        W84659  31.820   6.731   1.644 -0.1783 -0.0329  0.0489
41722W        W84660  31.160   6.511   2.755  0.0806  0.0734  0.0735
41723W        W84661  29.025   4.932   1.359 -0.1481  0.0921  0.1305
41724W        W84662  30.755   6.527   1.335 -0.1014  0.1740  0.0249
41725W        W84663  30.626   7.572   1.982 -0.3468  0.0378 -0.1725
41726W        W84664  29.714   4.679   1.385 -0.0515  0.0395 -0.3751
41727W        W84665  29.081   4.186   0.654  0.1078  0.3769 -0.0290
41728W        W84666  30.031   6.826   2.277 -0.1754  0.3844  0.0533
41729W        W84667  32.650   4.254   4.070  0.1547  0.1140  0.3995
41730W        W84668  30.372   3.201   2.049  0.2245  0.1303 -0.0952
41731W        W84669  31.484   5.878   1.285 -0.2903 -0.3094  0.0794
41732W        W84670  31.168   3.506   4.326 -0.0489 -0.1943 -0.1261
41733W        W84671  30.288   7.579   3.903  0.1930  0.3622 -0.1424
41734W        W84672  30.085   7.248   2.711 -0.1145  0.0469  0.0141
41735W        W84673  31.112   6.390  30.327 -0.1926  0.0652 -0.1404
41736W        W84674  31.291   6.841   3.585  0.2058 -0.0747 -0.1627
41737W        W84675  29.198   6.333   1.691  0.2993  0.0746 -0.0879
41738W        W84676  31.745   4.691   0.296  0.5586  0.0155  0.1817
41739W        W84677  32.694   7.265   1.219  0.3153  0.4029  0.3593
41740W        W84678  31.815   5.027   1.854 -0.0248 -0.1056 -0.1034
41741W        W84679  32.541   5.912   3.115 -0.0352  0.2907  0.0856
41742W        W84680  29.259   4.621   1.632  0.1499 -0.4233 -0.5030
41743W        W84681  31.974   5.075   0.955 -0.0134  0.0418 -0.2167
41744W        W84682  32.223   3.168   0.882  0.2867  0.1001 -0.2424
41745W        W84683  30.974   7.241   3.214 -0.1483 -0.2575 -0.2703
41746W        W84684  31.216   4.440   0.479  0.1184 -0.1305 -0.2174
41747W        W84685  28.897   4.569   0.421  0.2374 -0.3522  0.2888
41748W        W84686  30.315   5.616   1.257 -0.1124  0.0335  0.1579
41749W        W84687  30.754   4.123   2.411  0.0020 -0.3718  0.1956
41750W        W84688  29.455   4.683   2.357 -0.0559 -0.2951  0.2890
41751W        W84689  29.083   7.019   1.837 -0.1469 -0.1630 -0.2295
41752W        W84690  28.399   3.784   0.266 -0.1322  0.1880 -0.0123
41753W        W84691  32.046   6.501   1.146 -0.2137  0.2907  0.2315
41754W        W84692  29.219   3.799   2.176  0.1797  0.0132 -0.1542
41755W        W84693  28.383   2.555   1.525  0.1003 -0.0798 -0.2108
41756W        W84694  32.893   5.808   2.019  0.0415  0.1687 -0.1578
41757W        W84695  31.552   7.607   1.777  0.1405 -0.1121  0.1239
41758W        W84696  30.079   4.341   1.508 -0.2380 -0.0352  0.1001
41759W        W84697  31.625   5.630   2.588  0.0121  0.3632 -0.0117
41760W        W84698  30.007   6.369   0.333 -0.3448  0.1386  0.0543
41761W        W84699  30.734   5.445   3.974 -0.0754 -0.2937 -0.0123
41762W        W84700  31.401   4.778   3.557  0.3389  0.2576 -0.1588
41763W        W84701  29.033   2.437   1.071  0.2990 -0.1414 -0.2249
41764W        W84702  31.998   3.068   2.941 -0.4607 -0.1035 -0.0636
41765W        W84703  32.269   6.040   0.946  0.0106 -0.2813  0.1804
41766W        W84704  31.384   6.077   0.455  0.1719 -0.1486 -0.1070
41767W        W84705  30.709   6.290   3.726 -0.1991  0.1397 -0.1099
41768W        W84706  30.200   6.707   2.911  0.0474 -0.0363 -0.2460
41769W        W84707  28.889   2.262   1.512  0.3977 -0.2228 -0.0585
41770W        W84708  32.780   4.877   1.023 -0.3766 -0.0852 -0.1452
41771W        W84709  31.795   7.116   3.533 -0.2018  0.0963 -0.1171
41772W        W84710  33.300   5.722   2.374  0.3261 -0.0314 -0.1584
41773W        W84711  32.170   4.300   3.806 -0.0846  0.1126  0.3469
41774W        W84712  31.462   3.886   1.860 -0.1024 -0.1364  0.2381
41775W        W84713  28.918   3.923   2.972  0.1332 -0.0609 -0.3851
41776W        W84714  29.659   4.782   1.839  0.1406  0.0996 -0.0051
41777W        W84715  32.529   6.510   3.143  0.1070 -0.1449 -0.3668
41778W        W84716  29.763   4.464   0.630  0.0228  0.2424  0.1496
41779W        W84717  33.072   3.747   2.209  0.3575  0.1792  0.1168
41780W        W84718  29.853   6.986   0.539  0.0475  0.0993 -0.2050
41781W        W84719  28.496   5.594   3.753 -0.2692  0.4879 -0.2648
41782W        W84720  31.094   5.020   1.345 -0.1497  0.0543 -0.1998
41783W        W84721  29.615   5.489   3.134  0.0337 -0.0259  0.1582
41784W        W84722  28.966   8.223   0.550  0.1771 -0.5108  0.0364
41785W        W84723  31.146   5.596   4.811 -0.1142  0.2048 -0.3774
41786W        W84724  29.555   4.232   1.103  0.1823  0.0840  0.1460
41787W        W84725  31.759   5.405   1.481 -0.0212  0.0035 -0.2625
41788W        W84726  30.903   7.268   3.927 -0.0542  0.2657 -0.5867
41789W        W84727  32.357   6.175   4.723 -0.0576 -0.1991 -0.2494
41790W        W84728  31.193   6.355   3.696 -0.0847  0.0616 -0.0503
41791W        W84729  32.184   4.602   3.463  0.0773 -0.0287  0.0431
41792W        W84730  28.325   3.073   1.574 -0.0626  0.0288  0.1299
41793W        W84731  29.293   3.773   1.008 -0.0764 -0.0157  0.3934
41794W        W84732  30.779   4.879   1.781  0.0818  0.0225  0.2411
41795W        W84733  32.105   4.121   1.875  0.2152  0.0366  0.0045
41796W        W84734  29.831   3.952   2.932 -0.0811  0.0017 -0.1697
41797W        W84735  32.359   2.860   0.514  0.1671  0.0102 -0.0745
41798W        W84736  30.603   6.921   3.088  0.1603  0.0083 -0.0260
41799W        W84737  31.185   5.487   1.223  0.0573 -0.0932  0.0554
41800W        W84738  29.545   6.017   6.740  0.0192  0.0042 -0.1945
41801W        W84739  29.354   5.719   4.250 -0.0713 -0.1141  0.2018
41802W        W84740  31.282   3.359   3.313 -0.0599 -0.1745 -0.0239
41803W        W84741  31.600   4.635   4.455 -0.0799 -0.0390  0.2252
41804W        W84742  29.053   3.135   5.298 -0.1635  0.1863  0.2991
41805W        W84743  31.769   6.719   3.823  0.1257 -0.3806 -0.0838
41806W        W84744  29.720   3.491   4.910 -0.1442 -0.0179 -0.1724
41807W        W84745  31.556   6.760   7.585  0.0924  0.2035  0.0555
41808W        W84746  32.633   7.398   6.299 -0.1974  0.0415  0.2168
41809W        W84747  30.575   5.236   2.768 -0.0464 -0.0316  0.0164
41810W        W84748  31.709   3.724   7.483 -0.2571  0.0327  0.1599
41811W        W84749  30.319   6.646   4.881  0.0636 -0.0243  0.0260
41812W        W84750  29.554   4.258   3.733  0.2085 -0.0530 -0.1229
41813W        W84751  28.444   3.782   6.207 -0.0726 -0.0377 -0.0252
41814W        W84752  31.712   4.871   7.672 -0.1707  0.1348 -0.3328
41815W        W84753  30.400   4.154   4.862 -0.0244  0.0540  0.2506
41816W        W84754  30.342   5.030   5.683  0.0769  0.1929 -0.1199
41817W        W84755  29.924   3.994   4.902  0.1937  0.1281  0.2349
41818W        W84756  32.157   6.329   5.529 -0.1837  0.0804 -0.1594
41819W        W84757  30.533   3.985   6.242  0.1118  0.3378  0.0073
41820W        W84758  31.674   4.121   7.753  0.5135 -0.2072 -0.3140
41821W        W84759  30.455   7.023   4.174 -0.0064  0.0769 -0.0033
41822W        W84760  29.104   6.165   3.679 -0.0597 -0.1435 -0.1305
41823W        W84761  29.166   4.743   5.353 -0.1255  0.0638 -0.0722
41824W        W84762  30.281   4.299   6.541 -0.1284  0.0152 -0.0641
41825W        W84763  32.449   4.751   3.992 -0.2636 -0.1719  0.0757
41826W        W84764  33.024   6.553   6.348 -0.3051  0.0230  0.6678
41827W        W84765  30.725   8.848   5.830 -0.2023  0.2858  0.0858
41828W        W84766  31.810   6.697   5.499  0.0381  0.0109  0.2164
41829W        W84767  31.159   4.808   8.060  0.0711 -0.1372  0.1350
41830W        W84768  29.930   5.853   4.044 -0.0718 -0.0279 -0.0321
41831W        W84769  29.771   8.806   7.021 -0.1343 -0.1386  0.2008
41832W        W84770  29.849   5.461   4.541  0.1940  0.0213  0.3501
41833W        W84771  32.499   6.033   5.658  0.0091  0.0629 -0.1690
41834W        W84772  31.751   6.443   5.960 -0.2344  0.2232  0.4344
41835W        W84773  31.034   6.873   7.669  0.2828 -0.0141 -0.0091
41836W        W84774  31.018   5.878   3.795 -0.1612  0.0408  0.2033
41837W        W84775  30.845   6.313   6.075 -0.0022  0.0978 -0.2157
41838W        W84776  29.945   6.635   6.168 -0.2643 -0.2487 -0.2134
41839W        W84777  32.074   4.620   5.953 -0.0802  0.0912  0.0626
41840W        W84778  30.472   4.618   4.566  0.1595  0.0831  0.1638
41841W        W84779  30.229   5.569   3.686 -0.0206  0.2150 -0.1107
41842W        W84780  30.327   6.222   4.312  0.0918 -0.2311  0.2747
41843W        W84781  28.448   6.051   7.657 -0.1736  0.2027  0.1512
41844W        W84782  29.303   6.021   6.158 -0.1267 -0.0718 -0.2949
41845W        W84783  33.369   4.213   7.599  0.0897 -0.0616  0.0882
41846W        W84784  29.684   6.998   4.141 -0.0218  0.1091  0.1361
41847W        W84785  31.808   5.584   4.162 -0.0265  0.1508 -0.2190
41848W        W84786  29.308   5.885   3.310 -0.2443 -0.0260 -0.0579
41849W        W84787  31.370   4.709   4.027  0.2724 -0.1083  0.2196
41850W        W84788  30.907   3.951   4.978 -0.1330  0.3036 -0.2256
41851W        W84789  29.726   6.999   6.423  0.0700  0.2684 -0.0506
41852W        W84790  30.205   5.624   6.086 -0.0061  0.3610 -0.0019
41853W        W84791  33.577   7.614   7.372 -0.0939  0.0773  0.1578
41854W        W84792  31.015   5.037   3.928 -0.1759  0.0365  0.2836
41855W        W84793  30.854   4.284   7.454 -0.1071 -0.0859  0.1475
41856W        W84794  29.627   5.782   5.505  0.0402 -0.1386  0.0343
41857W        W84795  30.415   4.507   5.217 -0.0129  0.0466  0.1716
41858W        W84796  32.447   7.359   4.006 -0.1271 -0.1855  0.2106
41859W        W84797  32.715   5.643   7.398  0.0305 -0.2273  0.0649
41860W        W84798  32.231   7.506   4.468 -0.0447  0.1990 -0.2583
41861W        W84799  30.925   5.178   5.718 -0.0867 -0.0189  0.0432
41862W        W84800  28.622   5.734   6.794 -0.0958 -0.0819 -0.2465
41863W        W84801  29.853   5.118   6.824  0.3904  0.1999 -0.1528
41864W        W84802  29.959   4.129   3.435 -0.0743  0.2246  0.0068
41865W        W84803  31.759   7.135   8.758  0.0009 -0.1845  0.2066
41866W        W84804  29.041   6.002   6.717 -0.0148 -0.2286  0.1359
41867W        W84805  32.641   2.795   5.062 -0.1786  0.3309 -0.1922
41868W        W84806  31.465   6.336   5.498  0.0769  0.0304 -0.0802
41869W        W84807  31.258   7.358   7.480  0.1208  0.0832 -0.1859
41870W        W84808  32.336   7.168   4.859 -0.1075 -0.3726 -0.1901
41871W        W84809  32.489   5.091   6.047  0.0251 -0.0110 -0.0319
41872W        W84810  31.278   4.338   6.090 -0.0954  0.1160  0.0064
41873W        W84811  30.179   6.180   4.814 -0.0776  0.2457 -0.2489
41874W        W84812  29.978   7.753   5.569  0.2379 -0.3803  0.2616
41875W        W84813  31.894   6.322   7.332  0.1182 -0.0041  0.2692
41876W        W84814  31.413   5.845   4.272 -0.0010  0.3306  0.0369
41877W        W84815  28.142   6.065   6.454 -0.1200  0.3640 -0.1943
41878W        W84816  30.400   3.708   5.803 -0.1576  0.0873  0.1690
41879W        W84817  29.015   7.323   6.091 -0.0710  0.2069 -0.0195
41880W        W84818  31.909   7.362   4.009  0.2055 -0.0029 -0.1302
41881W        W84819  28.772   5.635   6.020 -0.0516 -0.1154  0.2484
41882W        W84820  28.837   7.072   5.138 -0.1341 -0.1463 -0.0612
41883W        W84821  29.209   3.671   5.305 -0.1295 -0.2093  0.0469
41884W        W84822  29.986   6.127   5.699 -0.1248  0.0233 -0.2371
41885W        W84823  32.386   4.139   5.001 -0.0304 -0.1460  0.1221
41886W        W84824  29.595   4.006   5.989 -0.1041  0.1189  0.0530
41887W        W84825  31.949   3.436   5.240 -0.0453  0.3768  0.2672
41888W        W84826  29.483   6.214   5.690  0.3581 -0.1862  0.3461
41889W        W84827  31.195   7.425   6.993 -0.0598 -0.0462 -0.2406
41890W        W84828  32.342   4.131   5.689  0.0641  0.0739  0.1105
41891W        W84829  31.710   6.790   4.538  0.4542  0.0805 -0.0719
41892W        W84830  29.647   5.305   5.114 -0.3482 -0.1422 -0.0858
41893W        W84831  28.910   5.448   3.485  0.1550  0.4104 -0.0489
41894W        W84832  30.178   3.964   7.030 -0.2741 -0.1569  0.0607
41895W        W84833  29.217   4.699   4.503 -0.2717  0.1281  0.2929
41896W        W84834  32.349   5.800   6.884  0.0100  0.2256 -0.2592
41897W        W84835  28.477   5.121   3.742  0.1577 -0.0297  0.1883
41898W        W84836  32.126   5.404   6.313 -0.3065  0.0035 -0.3638
41899W        W84837  31.511   5.792   5.045  0.1279  0.2430  0.0039
41900W        W84838  29.285   6.572   5.004 -0.3743  0.3731  0.0253
41901W        W84839  32.132   3.859   6.257  0.0821 -0.1743 -0.0548
41902W        W84840  32.994   6.142   5.478  0.0760  0.0929  0.2561
41903W        W84841  32.402   6.465   7.545  0.1675 -0.0426 -0.0736
41904W        W84842  30.519   6.442   6.559  0.3083  0.0480  0.2180
41905W        W84843  30.964   4.206   6.512 -0.1260 -0.0466  0.2542
41906W        W84844  29.000   4.855   3.175 -0.0653  0.0851  0.0043
41907W        W84845  30.111   8.936   7.402  0.0732 -0.2041  0.1290
41908W        W84846  30.323   7.417   5.676 -0.0619  0.0068 -0.0036
41909W        W84847  30.014   4.676   3.484 -0.0051 -0.1507 -0.0125
41910W        W84848  31.626   7.508   6.068  0.0686  0.5083 -0.1565
41911W        W84849  31.657   6.324   4.281  0.0475 -0.0563 -0.3281
41912W        W84850  28.734   6.859   6.619  0.0706  0.0242 -0.0006
41913W        W84851  32.015   4.002   7.190 -0.1883  0.0591 -0.2157
41914W        W84852  33.072   5.040   7.764  0.3265  0.2476  0.3023
41915W        W84853  31.513   5.272   6.483  0.3112  0.1467 -0.1687
41916W        W84854  28.567   1.360   3.106  0.1842 -0.3014  0.0173
41917W        W84855  31.344   7.061   4.701  0.0037  0.1712 -0.1302
41918W        W84856  29.866   8.558   3.552 -0.1202 -0.1109  0.2050
41919W        W84857  29.414   6.580   6.096 -0.0723  0.2054 -0.1876
41920W        W84858  30.693   7.577   4.871  0.1539  0.1886 -0.1912
41921W        W84859  32.963   4.234   5.938 -0.1544  0.1643 -0.2310
41922W        W84860  28.145   5.600   6.715  0.1085 -0.3653 -0.0235
41923W        W84861  32.320   3.711   5.331 -0.3774  0.2515 -0.0933
41924W        W84862  29.452   4.638   3.377  0.0195  0.1145  0.0086
41925W        W84863  29.918   6.581   6.647 -0.3410 -0.1042 -0.1820
41926W        W84864  31.828   4.174   5.878 -0.1781  0.2094  0.2808
41927W        W84865  32.994   3.412   3.501 -0.1072  0.0497  0.1399
41928W        W84866  30.854   4.604   6.056 -0.1434  0.0981 -0.1563
41929W        W84867  32.705   3.833   5.630 -0.0126 -0.0034  0.0458
41930W        W84868  31.681   3.492   3.058  0.0591 -0.0217  0.0549
41931W        W84869  31.796   3.962   2.917 -0.2177 -0.2041  0.0800
41932W        W84870  30.265   6.924   7.072 -0.0245  0.0183  0.0119
41933W        W84871  31.007   6.053   5.086  0.0163  0.0089  0.1413
41934W        W84872  30.257   5.079   6.475  0.2185 -0.1305 -0.1026
41935W        W84873  30.338   4.971   3.166  0.0966 -0.3890 -0.1118
41936W        W84874  32.147   7.001   4.401  0.4435  0.2935  0.0774
41937W        W84875  28.270   5.398   5.767 -0.1437 -0.1321  0.3533
41938W        W84876  31.199   6.898   6.733 -0.1325  0.2447 -0.1481
41939W        W84877  30.473   7.720   6.633 -0.1937  0.1496 -0.2523
41940W        W84878  30.511   4.246   5.746  0.0933  0.0926 -0.0487
41941W        W84879  30.251   5.465   3.225  0.0735  0.0637  0.1453
41942W        W84880  31.692   4.664   5.048 -0.0998 -0.2555 -0.2233
41943W        W84881  29.369   6.538   4.319 -0.1376 -0.3426 -0.1044
41944W        W84882  31.576   4.772   7.125  0.1374  0.1377 -0.1546
41945W        W84883  31.358   3.707   6.778  0.2197 -0.3643  0.0640
41946W        W84884  31.250   3.635   7.222  0.0599  0.2041 -0.3108
41947W        W84885  32.943   4.413   8.375  0.0214 -0.1050  0.0869
41948W        W84886  31.839   5.080   4.446  0.3334  0.0255 -0.4415
41949W        W84887  31.077   5.148   6.223 -0.0356  0.0979 -0.3947
41950W        W84888  30.317   6.094   2.976  0.0110  0.0698 -0.0277
41951W        W84889  30.332   3.454   6.876  0.1308  0.0844 -0.0699
41952W        W84890  29.652   5.223   6.404 -0.2609  0.0904 -0.1314
41953W        W84891  28.738   6.040   7.215  0.1771 -0.1029 -0.1607
41954W        W84892  31.374   6.466   6.397  0.0744  0.1916  0.2708
41955W        W84893  31.604   6.562   5.005  0.1760 -0.1135  0.1745
41956W        W84894  31.685   5.636   7.563 -0.0541  0.1023  0.1248
41957W        W84895  30.039   4.277   3.938 -0.3955 -0.1125 -0.2018
41958W        W84896  29.919   6.349   4.006 -0.3482  0.2001 -0.2224
41959W        W84897  30.333   7.329   4.672  0.0741  0.5701  0.1612
41960W        W84898  29.914   3.446   7.153  0.0336  0.0277 -0.0255
41961W        W84899  31.702   6.981   5.942  0.0259  0.1097 -0.0443
41962W        W84900  31.404   7.557   4.089 -0.4266 -0.1163 -0.1705
41963W        W84901  31.572   7.694   7.672  0.1723  0.1104 -0.2206
41964W        W84902  29.652   6.645   5.559  0.0315 -0.3959  0.2684
41965W        W84903  32.335   3.423   6.686 -0.2680 -0.2124 -0.1421
41966W        W84904  29.506   7.125   5.957 -0.0868  0.3342 -0.0595
41967W        W84905  29.461   4.792   3.857 -0.0642 -0.0573 -0.4010
41968W        W84906  29.127   4.193   4.612  0.3398 -0.2221  0.0464
41969W        W84907  32.495   3.618   4.847 -0.0478 -0.1615 -0.0630
41970W        W84908  32.316   5.917   5.222 -0.1357 -0.0511 -0.3569
41971W        W84909  28.758   3.727   6.543 -0.0849 -0.1534  0.2787
41972W        W84910  31.588   3.502   5.574 -0.0362 -0.1680 -0.2026
41973W        W84911  28.999   7.903   6.539  0.0484  0.0672  0.0830
41974W        W84912  31.189   5.530   7.480 -0.1024  0.0118 -0.2179
41975W        W84913  30.725   3.794   4.515 -0.0290 -0.0826 -0.1546
41976W        W84914  31.140   5.148   7.047 -0.4200 -0.1599  0.0907
41977W        W84915  30.727   5.915   6.587  0.2678  0.3282 -0.0777
41978W        W84916  29.165   3.337   3.964 -0.1084 -0.2689 -0.2481
41979W        W84917  32.193   4.330   6.506  0.3837  0.1374 -0.3054
41980W        W84918  31.351   6.111   5.990 -0.1034  0.1179  0.2610
41981W        W84919  29.127   7.330   5.544 -0.0410 -0.0642  0.0160
41982W        W84920  30.581   6.323   5.091  0.1289  0.0346  0.0677
41983W        W84921  29.482   5.148   4.384  0.2296 -0.2006 -0.1357
41984W        W84922  29.018   6.384   5.359  0.0490 -0.0135  0.0277
41985W        W84923  30.745   5.144   6.761 -0.1796 -0.2752  0.4496
41986W        W84924  32.350   5.309   7.151 -0.2549  0.2112  0.1146
41987W        W84925  31.814   6.195   6.384 -0.2571  0.1420 -0.0796
41988W        W84926  32.164   4.841   6.455  0.4350 -0.3064 -0.1711
41989W        W84927  31.208   4.898   4.860 -0.0318 -0.1528  0.0077
41990W        W84928  31.707   4.850   5.635 -0.0593  0.1079  0.1234
41991W        W84929  31.464   4.265   6.585 -0.0232  0.1184 -0.0446
41992W        W84930  30.220   6.389   7.180  0.3466  0.0893  0.1610
41993W        W84931  30.660   3.507   5.078 -0.0917  0.0726 -0.0321
41994W        W84932  31.912   8.373   4.874 -0.0719  0.1040 -0.2791
41995W        W84933  31.332   6.466   7.185 -0.2706 -0.1929 -0.0935
41996W        W84934  30.915   5.702   4.350  0.0137  0.0474  0.0831
41997W        W84935  29.672   3.914   5.284 -0.0290  0.0149  0.0558
41998W        W84936  31.327   5.109   4.431 -0.0475 -0.1825 -0.2626
41999W        W84937  31.660   3.770   6.251  0.2537  0.0973  0.0299
42000W        W84938  28.284   7.207   7.244  0.2065  0.2167  0.2013
42001W        W84939  29.793   5.223   4.049 -0.1725  0.1930 -0.1776
42002W        W84940  28.335   6.308   7.234  0.3014 -0.0094  0.2433
42003W        W84941  32.836   3.263   4.041  0.1795  0.2089 -0.1057
42004W        W84942  31.449   5.785   5.542  0.0299 -0.0583 -0.2996
42005W        W84943  31.318   4.401   4.787 -0.0690 -0.0659 -0.0595
42006W        W84944  33.317   4.275   6.700  0.1188  0.1679  0.2600
42007W        W84945  32.078   5.097   4.954  0.1239  0.3049  0.2116
42008W        W84946  31.232   4.115   8.096 -0.1248  0.1917 -0.0633
42009W        W84947  29.739   4.630   6.058 -0.2423 -0.0087  0.1653
42010W        W84948  33.130   5.985   5.026 -0.0203  0.2855  0.1921
42011W        W84949  29.722   4.237   6.622 -0.1395  0.2448  0.0664
42012W        W84950  30.909   7.719   7.351 -0.3088 -0.5944 -0.1916
42013W        W84951  30.375   5.591   6.750 -0.2783 -0.1122 -0.0750
42014W        W84952  29.668   4.868   4.715  0.2093 -0.3773 -0.0737
42015W        W84953  29.839   4.411   2.496 -0.0015  0.4295  0.0681
42016W        W84954  30.938   5.644   5.467 -0.1828  0.1883 -0.0891
42017W        W84955  32.430   6.395   6.281 -0.0377  0.0075  0.1467
42018W        W84956  30.299   6.600   3.665  0.0356  0.0635  0.1833
42019W        W84957  31.430   3.932   5.783  0.0648  0.0238  0.0319
42020W        W84958  29.292   4.628   6.220  0.4633  0.0757  0.0546
42021W        W84959  31.207   6.608   4.595 -0.0912  0.0080  0.1718
42022W        W84960  30.522   5.867   4.039  0.0446 -0.1876  0.0621
42023W        W84961  30.366   5.905   5.185  0.2076 -0.0392 -0.1494
42024W        W84962  29.675   4.776   7.367  0.0044 -0.0022  0.1290
42025W        W84963  30.914   7.310   5.765 -0.0762 -0.0259 -0.0434
42026W        W84964  33.037   4.500   6.331  0.0505  0.2423  0.1124
42027W        W84965  32.228   4.956   7.562 -0.0058  0.1282 -0.3172
42028W        W84966  31.896   5.806   7.083  0.0171  0.1238 -0.0067
42029W        W84967  29.334   5.121   6.006  0.2743  0.1810  0.3184
42030W        W84968  30.260   6.050   6.277 -0.0869 -0.0696  0.0160
42031W        W84969  32.710   7.184   7.568 -0.2052 -0.2398  0.0993
42032W        W84970  31.642   5.171   3.906 -0.2070 -0.3509 -0.0684
42033W        W84971  32.381   4.515   7.602  0.2518  0.1755 -0.1960
42034W        W84972  32.532   4.888   6.894  0.0565 -0.0186  0.0392
42035W        W84973  30.074   4.875   5.241  0.1786 -0.2243 -0.2118
42036W        W84974  30.625   4.973   4.984 -0.0481  0.0199 -0.1227
42037W        W84975  31.486   4.172   7.226  0.0845 -0.3560  0.0603
42038W        W84976  30.059   4.784   2.787 -0.0780  0.1719 -0.1787
42039W        W84977  31.237   2.637   6.710  0.1368  0.1419  0.1152
42040W        W84978  30.117   4.822   3.902 -0.2007 -0.1081  0.0981
42041W        W84979  31.668   6.624   6.868 -0.1782  0.1794 -0.0435
42042W        W84980  30.603   4.916   4.085 -0.1230 -0.1575 -0.0294
42043W        W84981  29.262   5.339   5.429  0.0277 -0.0573  0.3128
42044W        W84982  30.235   7.031   6.613 -0.0430  0.2062  0.1516
42045W        W84983  28.934   5.703   3.921 -0.1822  0.1702  0.0563
42046W        W84984  31.871   5.497   5.386  0.0447 -0.0538  0.0984
42047W        W84985  31.833   6.143   5.191 -0.4121  0.2090  0.1419
42048W        W84986  32.606   5.218   7.701  0.2824  0.0695  0.0415
42049W        W84987  30.862   3.956   3.336  0.1219  0.0156 -0.1976
42050W        W84988  32.599   4.749   7.972 -0.1634 -0.1073  0.0179
42051W        W84989  28.972   6.139   4.164  0.1330  0.2959 -0.3710
42052W        W84990  30.954   3.639   5.467  0.0770  0.1009 -0.2483
42053W        W84991  30.093   8.028   7.616  0.1215  0.0682 -0.3298
42054W        W84992  28.257   5.932   5.937  0.1509 -0.1994 -0.0993
42055W        W84993  30.011   7.258   6.034  0.2323  0.0261 -0.0107
42056W        W84994  30.927   3.896   5.937 -0.2987 -0.0797  0.0524
42057W        W84995  32.144   3.651   5.799  0.3482  0.2170 -0.0794
42058W        W84996  31.076   5.605   5.991  0.1954  0.0125 -0.0550
42059W        W84997  32.996   4.712   6.890 -0.0297  0.1187 -0.4135
42060W        W84998  31.267   5.956   6.457 -0.0204 -0.0700 -0.1347
42061W        W84999  30.255   5.440   4.254 -0.1485 -0.0770  0.0513
42062W        W85000  30.688   5.441   6.341 -0.0039 -0.0315 -0.0590
42063W        W85001  32.526   5.364   6.654  0.3355  0.3951  0.1593
42064W        W85002  28.989   6.403   5.868 -0.0834  0.3570 -0.0589
42065W        W85003  29.197   5.670   5.766 -0.1237 -0.0966  0.1660
42066W        W85004  31.016   6.361   6.766 -0.1053  0.3261  0.1382
42067W        W85005  31.694   5.636   6.075  0.0950 -0.0198  0.0666
42068W        W85006  30.621   4.355   4.148 -0.3274 -0.1871  0.3797
42069W        W85007  29.889   7.837   2.857  0.1846  0.0076 -0.2745
42070W        W85008  29.368   7.263   6.738  0.1250  0.0835 -0.1101
42071W        W85009  29.164   6.799   6.915  0.1541  0.4413  0.2118
42072W        W85010  28.803   6.811   3.118 -0.0677 -0.0304  0.2410
42073W        W85011  32.802   5.691   5.308  0.1586  0.0856  0.0760
42074W        W85012  30.956   7.002   4.355 -0.0663  0.0689 -0.2703
42075W        W85013  31.424   7.468   5.616  0.1824  0.0179  0.1507
42076W        W85014  29.705   4.640   4.254 -0.0605 -0.0660  0.0089
42077W        W85015  29.764   6.004   4.485 -0.0032  0.3014 -0.1261
42078W        W85016  28.520   6.283   4.531 -0.2569  0.0841  0.0331
42079W        W85017  32.385   5.403   5.281 -0.3234  0.0686  0.2289
42080W        W85018  29.991   8.594   5.112  0.0682  0.1553 -0.0998
42081W        W85019  31.338   7.498   8.250 -0.1986  0.1837 -0.1626
42082W        W85020  32.131   2.703   1.618  0.1109 -0.1069 -0.3399
42083W        W85021  32.559   4.567   6.257 -0.2405 -0.1171 -0.1824
42084W        W85022  32.415   3.658   4.237 -0.1037 -0.2035  0.0138
42085W        W85023  30.747   7.309   6.855 -0.1782 -0.3248  0.0649
42086W        W85024  29.992   6.378   5.254 -0.2511  0.2207 -0.1143
42087W        W85025  31.209   3.465   3.805  0.2152  0.0709 -0.0773
42088W        W85026  29.777   5.276   5.622  0.1340 -0.1633 -0.1740
42089W        W85027  33.874   4.877   8.165  0.0675 -0.0488 -0.0899
42090W        W85028  29.195   6.924   6.420  0.1566  0.1443 -0.0559
42091W        W85029  32.177   6.758   5.996 -0.0400 -0.0783 -0.0264
42092W        W85030  29.919   5.150   3.567 -0.3049  0.0415  0.4398
42093W        W85031  31.052   6.574   5.226 -0.4499  0.0842 -0.2382
42094W        W85032  33.754   3.103   6.060 -0.2229  0.1974  0.1953
42095W        W85033  30.670   6.033   4.665 -0.0854 -0.5245  0.1005
42096W        W85034  32.548   4.658   5.785  0.1430 -0.1476  0.0638
42097W        W85035  30.597   8.198   6.625 -0.0526  0.1984  0.2109
42098W        W85036  29.159   5.850   5.267  0.2020 -0.2352 -0.1808
42099W        W85037  31.441   5.321   5.763 -0.0364 -0.1361  0.2503
42100W        W85038  30.036   4.540   4.853 -0.3575  0.0032  0.0706
42101W        W85039  31.715   4.862   6.658  0.0337 -0.0484 -0.0293
42102W        W85040  30.082   3.428   6.116 -0.1268 -0.1270  0.1402
42103W        W85041  31.792   3.560   7.032  0.2751  0.0593 -0.0354
42104W        W85042  30.260   5.248   4.763 -0.0921  0.0549  0.0281
42105W        W85043  32.073   4.887   7.065 -0.0073 -0.1498 -0.1230
42106W        W85044  30.097   4.138   5.367 -0.5531  0.1442 -0.1228
42107W        W85045  28.516   3.791   5.723  0.5491 -0.0486  0.2877
42108W        W85046  30.940   5.205   3.115  0.2968  0.1649 -0.0464
42109W        W85047  31.969   6.084   7.760  0.1668  0.0572 -0.3946
42110W        W85048  30.885   5.236   4.595  0.0772 -0.0675 -0.3830
42111W        W85049  30.652   6.662   6.993 -0.7243 -0.2762 -0.2654
42112W        W85050  30.072   4.185   6.065  0.0206  0.1402 -0.2259
42113W        W85051  30.927   4.591   3.812  0.1280 -0.0037 -0.0762
42114W        W85052  28.681   5.961   5.651 -0.1732  0.0917 -0.2067
42115W        W85053  29.908   5.645   6.509  0.3753  0.1783 -0.3272
42116W        W85054  31.841   5.973   9.239 -0.1083  0.0123  0.1124
42117W        W85055  29.128   3.969   3.968  0.2582  0.0416  0.0989
42118W        W85056  33.537   5.728   3.958  0.1424 -0.0323 -0.1452
42119W        W85057  31.495   5.993   7.366 -0.0984 -0.1473  0.1757
42120W        W85058  30.629   6.450   2.676 -0.0047 -0.2408 -0.3154
42121W        W85059  32.876   6.218   5.941  0.3878 -0.3253  0.0142
42122W        W85060  31.875   7.036   8.241 -0.1148  0.1095 -0.1299
42123W        W85061  29.589   4.294   5.577 -0.1154  0.1103  0.1100
42124W        W85062  32.183   6.490   7.983  0.1225 -0.2927 -0.1768
42125W        W85063  34.104   6.178   4.905 -0.1819  0.0430 -0.0913
42126W        W85064  31.113   5.265   5.233 -0.1692  0.1147  0.1661
42127W        W85065  30.097   3.633   5.197 -0.0099  0.1659 -0.3325
42128W        W85066  30.686   6.905   5.434 -0.0908 -0.0817  0.2853
42129W        W85067  32.469   3.187   5.485 -0.1372  0.2747 -0.1477
42130W        W85068  32.925   5.185   7.272  0.2447 -0.0382  0.1145
42131W        W85069  32.182   8.902   4.023  0.0770  0.0216 -0.1803
42132W        W85070  32.662   2.518   7.446  0.3227  0.1112  0.0667
42133W        W85071  33.575   5.303   7.928  0.0844  0.1007 -0.1662
42134W        W85072  30.051   7.212   7.448  0.1879 -0.1269 -0.2239
42135W        W85073  29.967   6.376   2.030  0.1555  0.3662  0.1900
42136W        W85074  31.026   7.181   5.192 -0.1092 -0.3105  0.0148
42137W        W85075  31.253   4.691   5.312 -0.0224 -0.0949 -0.0149
42138W        W85076  31.534   7.425   5.132 -0.2780  0.0441 -0.0894
42139W        W85077  34.130   6.727   5.866  0.1600 -0.0446  0.2618
42140W        W85078  30.330   4.620   6.088 -0.4416  0.2445  0.0787
42141W        W85079  33.078   6.072   6.375  0.1325  0.0793  0.3529
42142W        W85080  31.084   4.315   5.648  0.3226 -0.0426 -0.0255
42143W        W85081  33.585   4.543   5.699  0.1355  0.0017 -0.0992
42144W        W85082  32.710   5.037   5.491 -0.0589 -0.1528 -0.0195
42145W        W85083  29.779   6.133   6.339  0.0372 -0.2863  0.0675
42146W        W85084  28.714   4.673   1.884 -0.0307 -0.2311  0.1595
42147W        W85085  30.633   5.839   3.468 -0.0420 -0.1646  0.3612
42148W        W85086  30.268   5.315   5.278 -0.0673  0.3289 -0.0718
42149W        W85087  31.181   3.980   7.580 -0.3728  0.0559  0.0757
42150W        W85088  28.920   4.669   6.745  0.1134  0.4856 -0.2972
42151W        W85089  30.095   6.884   5.746  0.1888 -0.2965  0.0016
42152W        W85090  28.742   3.464   3.674  0.1231  0.2606  0.1129
42153W        W85091  33.585   7.582   4.818  0.1063 -0.6216  0.3897
42154W        W85092  29.598   4.666   5.146 -0.0586  0.0514  0.1102
42155W        W85093  30.292   3.179   5.124 -0.0077 -0.0089  0.1080
42156W        W85094  31.919   5.889   5.671 -0.1731 -0.2502 -0.1322
42157W        W85095  31.692   7.120   6.666 -0.3353  0.0856  0.0496
42158W        W85096  30.903   4.430   5.109  0.0106 -0.0956  0.0505
42159W        W85097  31.554   7.806   8.596 -0.0055  0.1459  0.3553
42160W        W85098  28.666   4.772   2.720  0.0300 -0.1122  0.2493
42161W        W85099  31.058   3.633   6.415  0.1974 -0.0656  0.1053
42162W        W85100  30.350   4.368   7.352  0.2799 -0.0722 -0.3510
42163W        W85101  28.755   3.765   2.493 -0.0247 -0.1717  0.0485
42164W        W85102  31.290   4.802   5.903  0.0815 -0.0540 -0.0752
42165W        W85103  30.178   8.179   4.809  0.3084 -0.1490 -0.2430
42166W        W85104  32.246   7.394   3.544 -0.0869  0.0783  0.0159
42167W        W85105  30.107   5.686   5.609  0.2457 -0.0245 -0.0627
42168W        W85106  30.639   5.546   5.014 -0.0998 -0.0209 -0.0081
42169W        W85107  29.143   4.448   5.798 -0.1516 -0.2066  0.0361
42170W        W85108  32.094   5.286   5.775 -0.0764 -0.3165 -0.3649
42171W        W85109  30.584   5.913   5.904  0.0965  0.1870  0.1644
42172W        W85110  32.570   6.718   4.895  0.2211 -0.0060  0.5967
42173W        W85111  32.592   2.635   5.711 -0.0610  0.1678 -0.0210
42174W        W85112  31.545   5.159   5.091 -0.4444 -0.2799 -0.0672
42175W        W85113  29.585   3.133   6.150  0.5118  0.0885  0.1965
42176W        W85114  28.720   6.515   7.694  0.1883  0.1872 -0.2570
42177W        W85115  32.616   6.615   6.692  0.2255  0.1927 -0.1836
42178W        W85116  29.934   3.643   5.648  0.1631 -0.0509 -0.0497
42179W        W85117  31.601   4.373   5.440  0.0369 -0.1562 -0.2371
42180W        W85118  31.116   7.447   4.485 -0.1819 -0.1225 -0.0883
42181W        W85119  28.500   6.384   6.096 -0.0440  0.0901  0.1831
42182W        W85120  30.092   4.920   4.439  0.2408  0.0322  0.0843
42183W        W85121  31.240   4.714   6.411 -0.0951 -0.0037  0.0871
42184W        W85122  31.382   6.868   5.428  0.0304 -0.2140  0.0114
42185W        W85123  32.223   7.117   7.836  0.0585 -0.0384  0.0690
42186W        W85124  30.772   6.970   4.859  0.0522  0.1371  0.1858
42187W        W85125  33.644   5.837   5.041  0.1283 -0.0663 -0.0251
42188W        W85126  32.093   7.753   6.970 -0.0987 -0.0365 -0.0225
42189W        W85127  30.448   6.753   6.084  0.0690 -0.2638  0.1638
42190W        W85128  31.877   3.942   6.739  0.3973 -0.2972 -0.0535
42191W        W85129  28.779   4.410   5.439 -0.0559 -0.3320  0.0952
42192W        W85130  30.514   5.453   5.756  0.0640  0.0751  0.1553
42193W        W85131  30.297   5.736   4.629  0.0832 -0.0067  0.1279
42194W        W85132  30.525   3.933   5.327 -0.0272  0.1769 -0.0354
42195W        W85133  30.805   4.715   5.522  0.2857  0.0354 -0.0095
42196W        W85134  32.124   3.799   3.784 -0.1787 -0.3018  0.3226
42197W        W85135  29.643   9.047   7.721 -0.2283  0.0088 -0.0245
42198W        W85136  31.793   5.757   6.627 -0.4466  0.0744  0.1286
42199W        W85137  28.958   8.713  10.382  0.0779 -0.0044 -0.1760
42200W        W85138  31.603   4.542   8.611 -0.0944 -0.1274 -0.2612
42201W        W85139  32.626   4.014   7.158 -0.0944 -0.1789  0.0691
42202W        W85140  32.447   5.767   7.976  0.2926  0.3287 -0.1693
42203W        W85141  30.627   4.850   7.898 -0.0187  0.2082 -0.3863
42204W        W85142  33.422   6.791   9.204 -0.2709 -0.0387 -0.1279
42205W        W85143  32.285  10.187  10.568  0.0237  0.2497  0.3078
42206W        W85144  32.503   6.954   9.834  0.0204 -0.3916  0.2778
42207W        W85145  31.331   4.483   7.673  0.2526 -0.1423 -0.1838
42208W        W85146  29.536   5.141   7.739  0.1584 -0.1391  0.1849
42209W        W85147  30.924   4.882   9.433  0.2378  0.0711  0.0373
42210W        W85148  29.648   3.689   8.624 -0.1507 -0.0389  0.0012
42211W        W85149  33.101   5.222  10.200  0.1590 -0.1906 -0.0224
42212W        W85150  29.373   6.238   8.612 -0.1463  0.2517  0.1211
42213W        W85151  30.221   4.034   9.757 -0.1548 -0.0421 -0.3266
42214W        W85152  31.162   4.487   6.959  0.1219  0.0846  0.2258
42215W        W85153  31.874   7.249   9.254 -0.3250 -0.0459 -0.0904
42216W        W85154  29.998   5.385   8.634 -0.0463 -0.4648  0.0172
42217W        W85155  31.253   6.677  10.021 -0.1421  0.1315  0.0619
42218W        W85156  30.043   4.548   5.668 -0.4685 -0.3230 -0.0795
42219W        W85157  30.740   4.409   8.801  0.3470  0.0617 -0.0817
42220W        W85158  30.398   7.242  10.698 -0.0163 -0.0242  0.1589
42221W        W85159  33.404   3.884   8.732 -0.0072 -0.0208  0.2127
42222W        W85160  31.431   5.135   9.295  0.0261 -0.0275 -0.3056
42223W        W85161  29.832   7.681  10.628 -0.1531 -0.0803 -0.0081
42224W        W85162  31.705   8.160  10.511 -0.2744  0.0203 -0.1080
42225W        W85163  29.842   5.567   9.803  0.0947 -0.0009 -0.1403
42226W        W85164  29.501   6.642   8.803  0.1396  0.0325  0.1890
42227W        W85165  30.219   5.875   7.465 -0.0467 -0.2329  0.3246
42228W        W85166  33.244   5.411   8.274 -0.2841  0.0620 -0.0982
42229W        W85167  30.052   7.263   8.464 -0.0960  0.1002  0.0069
42230W        W85168  32.841   5.577   9.225  0.1044 -0.0780 -0.1521
42231W        W85169  31.292   6.666   8.123 -0.0040  0.0571 -0.2737
42232W        W85170  30.598   7.155   7.384 -0.1189  0.2591  0.3708
42233W        W85171  30.641   5.486  10.071 -0.2486 -0.3629 -0.3601
42234W        W85172  30.502   6.836  10.242 -0.2823  0.1093 -0.1156
42235W        W85173  30.036   6.137   7.857 -0.2537 -0.0180  0.1761
42236W        W85174  31.917   4.472   7.470 -0.1213  0.1637 -0.3039
42237W        W85175  30.008   5.137   6.045 -0.0216  0.0887 -0.0162
42238W        W85176  32.817   3.901   8.889 -0.0057 -0.3127 -0.0528
42239W        W85177  31.537   4.490  10.050 -0.2799  0.4752 -0.3129
42240W        W85178  30.314   6.693   8.977 -0.1582 -0.0997  0.1194
42241W        W85179  28.983   3.527   9.307 -0.0259  0.5307  0.0726
42242W        W85180  30.310   5.401   7.174  0.0121 -0.0933  0.0269
42243W        W85181  32.225   4.964   9.751 -0.0506 -0.2263  0.0060
42244W        W85182  29.168   5.964   8.243 -0.0884  0.0058 -0.1006
42245W        W85183  30.570   3.867   6.781 -0.0672 -0.0002  0.0785
42246W        W85184  33.300   5.803   8.575  0.0041 -0.2238 -0.2054
42247W        W85185  32.919   7.656   9.737 -0.1711  0.0908 -0.2656
42248W        W85186  31.002   5.959   7.532  0.0375  0.0046 -0.1113
42249W        W85187  30.619   5.442   8.504  0.3345  0.1199 -0.3713
42250W        W85188  29.227   3.597   8.304  0.0176 -0.2185  0.3117
42251W        W85189  30.500   5.299   8.064 -0.0098  0.1351  0.0498
42252W        W85190  31.090   7.620  10.059 -0.0675 -0.0569  0.1430
42253W        W85191  32.518   6.330   8.490  0.0197 -0.0990  0.0463
42254W        W85192  31.223   2.991   8.985 -0.0330  0.1183  0.2127
42255W        W85193  29.784   4.327   9.754  0.2220  0.0343  0.1512
42256W        W85194  28.442   6.872   7.979 -0.0155  0.0162 -0.3670
42257W        W85195  30.669   5.597   7.686 -0.2596 -0.3231 -0.2149
42258W        W85196  32.981   6.557   9.108  0.2527 -0.2082  0.0887
42259W        W85197  32.743   5.123   9.030  0.0100 -0.1001 -0.1541
42260W        W85198  30.217   6.204   9.253  0.1145  0.0714 -0.1962
42261W        W85199  29.931   7.018   7.923  0.2295 -0.0965 -0.1565
42262W        W85200  29.919   6.385   8.768 -0.0885 -0.1591  0.0147
42263W        W85201  30.616   6.094   7.024 -0.1843 -0.0344 -0.0519
42264W        W85202  28.724   1.888   8.653 -0.0873  0.0207 -0.1925
42265W        W85203  30.532   6.271   8.407 -0.0295 -0.0390  0.0549
42266W        W85204  33.626   3.999   7.185 -0.2931  0.0992 -0.1538
42267W        W85205  32.928   3.788   9.441 -0.3338 -0.0270  0.3262
42268W        W85206  28.938   5.383   7.998  0.2001 -0.0340  0.3517
42269W        W85207  32.407   7.215   8.443 -0.1144  0.1105  0.0733
42270W        W85208  32.367   5.648   9.077  0.0544  0.0662  0.0403
42271W        W85209  31.419   6.618   8.665  0.0465  0.2110 -0.2402
42272W        W85210  29.652   2.348   9.093 -0.1705 -0.0862  0.1343
42273W        W85211  30.472   5.829   8.144  0.0533  0.1697 -0.1699
42274W        W85212  29.366   4.023   9.567  0.1517 -0.1787 -0.0999
42275W        W85213  30.846   4.428   7.915  0.0155 -0.4185  0.0347
42276W        W85214  32.540   4.762   9.381 -0.2750  0.2981  0.2329
42277W        W85215  31.573   5.142   8.837 -0.3074 -0.0651 -0.2994
42278W        W85216  28.382   6.050   8.690 -0.1170  0.0234 -0.2298
42279W        W85217  32.671   6.869   7.155  0.0486  0.0206  0.0706
42280W        W85218  32.244   5.359  10.703  0.4246  0.0603 -0.0451
42281W        W85219  32.209   7.549  10.005  0.0243  0.0508  0.1482
42282W        W85220  30.399   4.219   9.233 -0.1858  0.4550 -0.0588
42283W        W85221  30.831   4.031   8.421 -0.2599 -0.1573  0.2831
42284W        W85222  29.375   7.917  10.000  0.1369  0.0302  0.1611
42285W        W85223  30.734   6.201  10.124  0.2412  0.1087  0.1182
42286W        W85224  30.214   4.072   8.162 -0.0392  0.0088 -0.4475
42287W        W85225  33.317   6.793   8.558  0.3942  0.1520  0.1000
42288W        W85226  31.487   5.622   8.395 -0.0568 -0.0217  0.1771
42289W        W85227  32.659   4.219   9.315  0.4276  0.0567  0.1000
42290W        W85228  32.005   3.900   9.825  0.5252 -0.0274 -0.4100
42291W        W85229  28.703   4.134   6.940 -0.0472 -0.0803  0.0264
42292W        W85230  32.376   7.163  10.304  0.0355  0.1540  0.3369
42293W        W85231  29.751   7.455   8.143  0.0569  0.1408  0.0051
42294W        W85232  29.288   5.790   8.905 -0.0215 -0.3619  0.0752
42295W        W85233  29.854   5.695   9.156  0.0518 -0.0810 -0.2609
42296W        W85234  32.613   3.626   8.089  0.2407 -0.2461  0.1170
42297W        W85235  30.162   4.829   7.525 -0.2001 -0.2992 -0.2321
42298W        W85236  31.874   3.653   8.601 -0.1370  0.0268 -0.1505
42299W        W85237  32.697   4.799   7.377  0.0118  0.1001 -0.0734
42300W        W85238  32.481   5.810   9.547  0.2004 -0.1720 -0.0498
42301W        W85239  33.528   4.597   8.523  0.1728  0.2335 -0.2501
42302W        W85240  31.332   3.966   8.621 -0.2956  0.1324  0.1323
42303W        W85241  31.629   6.158   8.783  0.1464 -0.1815 -0.1542
42304W        W85242  29.338   6.312  10.483 -0.3557 -0.0742  0.0820
42305W        W85243  32.165   5.513   7.613  0.0210  0.2602  0.1832
42306W        W85244  31.949   5.641   8.017  0.0265  0.0167 -0.0222
42307W        W85245  29.661   5.836   8.529  0.3108 -0.0115 -0.1701
42308W        W85246  31.885   6.465   9.450  0.0767 -0.0874  0.0627
42309W        W85247  31.168   4.192   9.668 -0.0513 -0.0599  0.0893
42310W        W85248  31.085   5.982   7.043 -0.1677  0.0993 -0.0414
42311W        W85249  29.424   5.772   9.412  0.3396 -0.2418 -0.2970
42312W        W85250  29.172   6.328   7.115  0.2090 -0.2764 -0.1318
42313W        W85251  30.879   4.390   9.339  0.1698  0.0519 -0.2564
42314W        W85252  30.082   5.152   9.180  0.0752  0.1471 -0.5142
42315W        W85253  32.033   5.350   8.867  0.1794 -0.2505 -0.1501
42316W        W85254  30.516   4.173  10.208 -0.2495 -0.0044 -0.3616
42317W        W85255  30.583   5.020   6.109 -0.2096  0.1651  0.2092
42318W        W85256  32.973   4.202   9.737  0.2425 -0.0892 -0.0371
42319W        W85257  26.668   9.716  10.178  0.4007 -0.2369  0.0326
42320W        W85258  31.288   6.351   7.688 -0.1416  0.1029  0.0250
42321W        W85259  30.701   4.694   6.481  0.1148 -0.2596 -0.0028
42322W        W85260  30.421   6.695   7.532  0.0690  0.2640 -0.2309
42323W        W85261  29.561   6.165   7.509 -0.0871  0.0411 -0.2094
42324W        W85262  30.768   4.545   9.921 -0.0762 -0.0042  0.4105
42325W        W85263  30.288   6.696   9.448 -0.0384  0.1120  0.2558
42326W        W85264  31.444   5.567   7.030 -0.0822 -0.0043 -0.0384
42327W        W85265  29.490   5.368   8.786  0.0871 -0.4061 -0.1111
42328W        W85266  29.910   6.263   8.305  0.0913 -0.2414 -0.1064
42329W        W85267  31.674   4.211   9.538  0.2401 -0.1708 -0.0266
42330W        W85268  28.540   6.999   8.473  0.1760 -0.0750 -0.1297
42331W        W85269  29.437   4.634   6.779  0.1236 -0.2935 -0.0291
42332W        W85270  30.140   4.968   8.090  0.0401 -0.1406  0.1324
42333W        W85271  32.135   3.362   8.904 -0.1430  0.1731 -0.0231
42334W        W85272  32.415   6.033   7.374 -0.0983  0.1886 -0.2245
42335W        W85273  31.164   4.104  10.195  0.3103  0.1945  0.0502
42336W        W85274  33.079   1.312   9.846  0.1093  0.0278  0.0393
42337W        W85275  29.964   6.789   8.465 -0.1099 -0.2093  0.0700
42338W        W85276  32.495   4.641   8.406 -0.0192 -0.0415  0.2107
42339W        W85277  28.986   4.983   7.584  0.3574  0.1730 -0.1383
42340W        W85278  32.411   5.304   9.443  0.0231 -0.3411 -0.3589
42341W        W85279  30.847   5.007   8.442  0.0001  0.0148 -0.3211
42342W        W85280  29.453   5.558   8.041 -0.1867  0.0454  0.0195
42343W        W85281  30.242   7.218   9.099 -0.0214  0.3232 -0.0639
42344W        W85282  31.102   5.540   6.685 -0.1194  0.2034 -0.2652
42345W        W85283  29.918   5.747   7.012  0.5306  0.2919  0.0601
42346W        W85284  31.647   5.854  10.215 -0.0855  0.0009  0.2777
42347W        W85285  29.172   3.023   9.445 -0.2905 -0.0410 -0.4576
42348W        W85286  31.168   4.910   8.877 -0.2981 -0.0162 -0.3027
42349W        W85287  29.969   5.652   8.165  0.2196  0.2729  0.0596
42350W        W85288  31.149   5.788  10.181 -0.0882  0.3457  0.1018
42351W        W85289  32.043   4.494  10.081  0.0860  0.1999  0.0350
42352W        W85290  30.765   2.831   8.942 -0.0094 -0.0386  0.1026
42353W        W85291  32.842   6.832   8.633  0.2983  0.0999 -0.0803
42354W        W85292  29.713   6.331   7.092 -0.2125  0.2065 -0.1010
42355W        W85293  29.824   5.075   9.608  0.3779  0.1444  0.0614
42356W        W85294  30.970   5.236   7.858 -0.3553  0.0443 -0.0430
42357W        W85295  30.869   2.512   8.503  0.0051 -0.1597 -0.2843
42358W        W85296  29.604   6.002   8.031  0.2676  0.2405  0.2008
42359W        W85297  30.804   5.888   8.612 -0.0802 -0.0425 -0.1031
42360W        W85298  30.615   5.922   9.110  0.1723 -0.1378 -0.1583
42361W        W85299  33.552   4.862   7.635  0.1980  0.0217 -0.1267
42362W        W85300  31.720   4.514   6.284 -0.1351  0.0872 -0.0063
42363W        W85301  31.616   4.620   8.100  0.0085  0.2889 -0.0963
42364W        W85302  32.214   5.237   8.023 -0.3433  0.1184 -0.0375
42365W        W85303  29.801   3.812   9.558 -0.0214  0.2991  0.1331
42366W        W85304  31.683   6.354   8.127  0.1143 -0.0528  0.0601
42367W        W85305  31.452   5.880   7.939  0.0027  0.1550  0.1068
42368W        W85306  29.181   3.003   8.063 -0.0738  0.0068 -0.1968
42369W        W85307  32.587   6.637   9.462 -0.2856  0.1332 -0.3014
42370W        W85308  31.927   5.967   9.756  0.1688  0.0537 -0.1796
42371W        W85309  30.951   6.080   8.071  0.1146  0.3729  0.0085
42372W        W85310  32.403   5.181   8.559 -0.2831  0.1220 -0.0420
42373W        W85311  28.879   6.886  10.667  0.0464 -0.1340  0.0503
42374W        W85312  32.502   6.530   8.962 -0.1077  0.2488 -0.1619
42375W        W85313  30.792   5.522   7.144 -0.2736  0.1853  0.1835
42376W        W85314  30.693   5.747   9.595 -0.3409 -0.4369  0.1234
42377W        W85315  31.486   5.781   9.616 -0.0016  0.1790 -0.1939
42378W        W85316  30.523   3.644  10.149  0.1562 -0.0633  0.1789
42379W        W85317  32.227   9.802  11.198 -0.1624  0.1076  0.0814
42380W        W85318  32.733   4.589   8.890  0.1200  0.1476  0.0571
42381W        W85319  31.151   3.791   9.342  0.2740  0.4270  0.0635
42382W        W85320  31.772   4.769   9.686  0.2444  0.0720 -0.0754
42383W        W85321  31.554   5.359   7.961  0.0548 -0.2362 -0.1477
42384W        W85322  29.696   4.416   8.856 -0.0036 -0.1405  0.0311
42385W        W85323  30.603   3.878   7.274  0.1131  0.0290  0.1660
42386W        W85324  31.380   7.050   8.423  0.3645  0.1214 -0.3269
42387W        W85325  31.162   5.242  10.294 -0.0481  0.0624  0.0734
42388W        W85326  32.046   4.322   8.538  0.0858  0.2081  0.0936
42389W        W85327  30.009   4.560   8.352 -0.1274 -0.1170 -0.1416
42390W        W85328  29.711   4.627   7.972  0.0712 -0.1865 -0.2013
42391W        W85329  30.781   4.741   7.204  0.0534  0.0325 -0.2126
42392W        W85330  29.759   6.065   9.601 -0.1247  0.1566 -0.2179
42393W        W85331  32.114   4.215   7.956 -0.1230 -0.1952 -0.0839
42394W        W85332  28.695   7.412   8.106  0.0408  0.0158 -0.3039
42395W        W85333  30.820   5.027   9.921  0.0356 -0.0865  0.0488
42396W        W85334  30.636   7.662   9.735 -0.1483  0.2417  0.3369
42397W        W85335  29.596   7.221   9.188  0.0923  0.2594 -0.0249
42398W        W85336  31.206   3.551   8.887 -0.4237 -0.0680 -0.1014
42399W        W85337  32.922   5.058   9.512 -0.0729 -0.2213 -0.1761
42400W        W85338  30.844   3.176  10.138  0.1995  0.3607 -0.1032
42401W        W85339  30.675   4.986   8.962 -0.0547  0.1098 -0.1178
42402W        W85340  30.406   5.455   9.001  0.0671  0.0236  0.1375
42403W        W85341  30.577   5.216   9.397  0.0277 -0.1922 -0.0952
42404W        W85342  32.609   5.476  10.167  0.1315 -0.1852  0.1699
42405W        W85343  30.299   4.631   8.928 -0.1102 -0.0771  0.1782
42406W        W85344  29.757   5.674   7.602  0.0141 -0.0991  0.1054
42407W        W85345  29.649   6.562   9.689 -0.2156  0.1657 -0.0915
42408W        W85346  30.750   8.463   8.051 -0.0605 -0.0588 -0.0291
42409W        W85347  32.586   6.815   8.134 -0.1420  0.2878 -0.1670
42410W        W85348  30.173   6.602   7.971 -0.2539  0.1542  0.0042
42411W        W85349  32.529   7.205   9.402  0.0845 -0.0823  0.0518
42412W        W85350  30.706   3.960   7.897  0.3216 -0.2475  0.2807
42413W        W85351  30.964   6.314   8.783  0.0921 -0.1266 -0.1348
42414W        W85352  29.216   5.540   7.531  0.1647  0.1260  0.0168
42415W        W85353  32.991   6.361   8.645 -0.0478  0.1571 -0.0255
42416W        W85354  29.471   6.970   8.224 -0.2667  0.0068  0.0945
42417W        W85355  32.725   4.337   6.756 -0.1089 -0.0403 -0.2430
42418W        W85356  32.874   5.777   8.291 -0.0869 -0.1606  0.0185
42419W        W85357  32.892   3.901   8.423 -0.0187 -0.1427 -0.1252
42420W        W85358  30.559   4.525   8.344  0.0798  0.0588 -0.1959
42421W        W85359  31.111   4.474   8.487 -0.1613  0.2066  0.1466
42422W        W85360  31.806   6.667  10.024  0.3274 -0.0332  0.1779
42423W        W85361  30.117   5.315   7.662  0.0444 -0.2121  0.1808
42424W        W85362  31.730   4.081  10.283  0.1369 -0.0986  0.2633
42425W        W85363  32.459   4.557   9.914 -0.1663 -0.1803  0.0983
42426W        W85364  32.161   6.078   8.239  0.0101 -0.1130  0.0192
42427W        W85365  30.979   5.406   9.159 -0.1096  0.0470 -0.3165
42428W        W85366  31.080   6.650   9.500 -0.2662 -0.1500 -0.0582
42429W        W85367  29.208   6.935   9.787  0.4198 -0.1216 -0.0168
42430W        W85368  29.421   6.784   9.324  0.0165  0.1681  0.2638
42431W        W85369  28.838   5.017   7.083  0.0638 -0.0159 -0.1574
42432W        W85370  32.009   4.813   8.525 -0.1597  0.0515  0.2093
42433W        W85371  28.498   2.246   9.123  0.1690  0.1271 -0.2218
42434W        W85372  30.355   4.833   6.874 -0.3551 -0.3022  0.4071
42435W        W85373  32.278   4.870   8.957  0.4948 -0.0139  0.0730
42436W        W85374  32.509   5.933  10.716  0.2213 -0.2456 -0.0313
42437W        W85375  29.073   5.057   9.039 -0.0170  0.3711 -0.0792
42438W        W85376  31.869   4.443   6.869  0.3243 -0.0010 -0.2102
42439W        W85377  29.704   5.649   6.031  0.1171 -0.2331  0.1243
42440W        W85378  28.218   2.346   9.585 -0.2811 -0.2834 -0.1303
42441W        W85379  31.534   5.641   8.898  0.1495 -0.1396 -0.0025
42442W        W85380  30.630   5.110   7.459 -0.2472 -0.0933  0.1566
42443W        W85381  34.252   5.620  10.361 -0.1760  0.1213  0.0818
42444W        W85382  29.460   4.673   8.491  0.0290  0.0107 -0.0232
42445W        W85383  33.068   6.844   8.102 -0.2702  0.0819  0.2181
42446W        W85384  32.946   6.546  10.717 -0.0359  0.1941 -0.2713
42447W        W85385  31.430   6.262   9.235 -0.0557 -0.1095 -0.0467
42448W        W85386  34.083   5.310   8.393  0.0740  0.1240  0.0045
42449W        W85387  33.436   7.747   9.162  0.1173 -0.4189  0.0182
42450W        W85388  28.667   3.614   8.934  0.3227  0.1903 -0.0076
42451W        W85389  31.449   7.129   9.892 -0.4816  0.0016 -0.1563
42452W        W85390  32.850   6.158  10.382  0.1486  0.0529 -0.0684
42453W        W85391  31.842   4.559   9.180 -0.2675  0.1531 -0.2891
42454W        W85392  30.313   5.145   9.826 -0.1065  0.0971 -0.2565
42455W        W85393  28.784   7.297   8.863  0.0037  0.1432  0.0656
42456W        W85394  32.963   5.408   8.682 -0.3114 -0.0456  0.0332
42457W        W85395  30.869   7.358   7.825 -0.0377  0.2571 -0.0907
42458W        W85396  29.652   6.592   7.940  0.2921  0.0502  0.0358
42459W        W85397  28.482   5.046   7.477 -0.3793 -0.1996  0.3612
42460W        W85398  30.140   6.096   6.745  0.0962  0.2731 -0.1163
42461W        W85399  31.292   7.489   9.515 -0.0587  0.1269  0.2610
42462W        W85400  31.528   6.271   9.830  0.1223 -0.1168 -0.0029
42463W        W85401  30.663   6.533   7.957 -0.0654 -0.1040 -0.1949
42464W        W85402  31.217   7.173  10.317  0.1473 -0.0447  0.3422
42465W        W85403  31.918   5.047   9.259 -0.0060 -0.0522 -0.2531
42466W        W85404  34.311   4.081   8.154 -0.1347 -0.0679 -0.1395
42467W        W85405  32.621   4.185   8.122  0.3098  0.0334 -0.1723
42468W        W85406  30.407   4.767   9.461  0.0412 -0.2099  0.1688
42469W        W85407  28.179   4.734   7.737 -0.2483 -0.0188  0.1919
42470W        W85408  29.242   6.404   8.047  0.2014  0.0554 -0.1818
42471W        W85409  31.163   5.397   8.641  0.0529 -0.2597  0.2914
42472W        W85410  29.194   4.802   8.047 -0.0139 -0.2055  0.0985
42473W        W85411  29.884   4.158   9.209  0.0217  0.0198  0.4287
42474W        W85412  33.426   7.028   7.789 -0.1954 -0.0335  0.0743
42475W        W85413  31.001   2.586   9.968  0.1609  0.1421 -0.0384
42476W        W85414  30.078   3.560   8.124 -0.2147 -0.0395 -0.6064
42477W        W85415  33.067   5.519   7.736 -0.0907 -0.2754 -0.3253
42478W        W85416  32.241   7.082   8.968 -0.1215 -0.2009 -0.0285
42479W        W85417  31.720   4.002   8.236 -0.1305  0.1996  0.1332
42480W        W85418  30.183   5.895   8.780 -0.1147 -0.1359  0.2993
42481W        W85419  29.371   3.142   7.588 -0.1104  0.0866  0.1680
42482W        W85420  31.900   4.682  10.601 -0.2342 -0.0866 -0.2022
42483W        W85421  30.952   7.103   8.211  0.3391  0.2378  0.0056
42484W        W85422  32.990   7.084   9.069  0.0552 -0.3000  0.0776
42485W        W85423  31.069   3.591   9.811  0.0780  0.1393 -0.1970
42486W        W85424  31.190   4.979   7.491 -0.1779 -0.0086  0.1510
42487W        W85425  31.936   5.799   8.616 -0.0320 -0.1265 -0.2005
42488W        W85426  30.279   4.568   9.970 -0.0444  0.2500  0.2475
42489W        W85427  31.805   5.250   7.259 -0.2794 -0.0902 -0.0364
42490W        W85428  32.775   5.562  10.762  0.3877 -0.1566  0.1334
42491W        W85429  29.837   3.248   9.375 -0.1004 -0.2159  0.1588
42492W        W85430  33.120   4.505   7.941  0.2268 -0.1598 -0.0250
42493W        W85431  32.139   6.201   8.830 -0.2310  0.2226  0.1291
42494W        W85432  29.165   6.289   9.937 -0.0611  0.2327 -0.2372
42495W        W85433  30.572   6.132   7.623  0.0849 -0.0329 -0.1201
42496W        W85434  32.895   7.059  10.701  0.0535  0.5918 -0.2758
42497W        W85435  31.537   6.156   6.871  0.3328 -0.0476  0.1008
42498W        W85436  32.598   6.030   8.935  0.0779  0.0161 -0.1167
42499W        W85437  30.705   7.950  10.214 -0.1653 -0.4108  0.0215
42500W        W85438  31.108   5.394   9.729 -0.4531 -0.2979  0.0350
42501W        W85439  32.268   6.360   9.895  0.1875  0.2193  0.2443
42502W        W85440  31.757   3.203   9.766 -0.1290  0.0408 -0.0880
42503W        W85441  31.015   5.579   8.171  0.3301 -0.1689  0.0158
42504W        W85442  31.346   6.125   8.410 -0.0791 -0.2097 -0.2691
42505W        W85443  31.350   4.634   9.368 -0.2036  0.0806  0.0241
42506W        W85444  29.773   4.138   8.437  0.0489 -0.1797  0.1501
42507W        W85445  32.086   4.721   7.986 -0.0802 -0.1493  0.3031
42508W        W85446  30.722   6.703   9.813  0.1506  0.1318  0.1293
42509W        W85447  32.632   6.671  10.317 -0.0349 -0.2483 -0.0886
42510W        W85448  31.014   9.390   3.776  0.0019  0.2193 -0.1104
42511W        W85449  29.960   9.615   0.652 -0.1471 -0.1129  0.0756
42512W        W85450  31.022   8.939   0.384  0.3557 -0.2091  0.3453
42513W        W85451  31.846   8.583   0.163 -0.2139 -0.0720  0.1430
42514W        W85452  28.184   6.901   2.142 -0.0009  0.0253  0.4644
42515W        W85453  32.784  11.340   1.708  0.1288 -0.2153  0.2514
42516W        W85454  29.667   7.983   3.303 -0.0843  0.2772  0.1089
42517W        W85455  32.117   9.473   2.389 -0.0756 -0.1629  0.2785
42518W        W85456  32.712   9.414   3.547  0.0620 -0.1510 -0.0736
42519W        W85457  31.191   9.976   0.495 -0.3070 -0.0192 -0.0289
42520W        W85458  30.795   6.739   3.975 -0.0444 -0.2535 -0.1259
42521W        W85459  29.403  10.648   2.494 -0.0448  0.4255  0.3942
42522W        W85460  29.573   6.610   0.306  0.1932 -0.2270  0.0957
42523W        W85461  28.533   6.317   2.336 -0.2302  0.0415  0.2652
42524W        W85462  31.633   8.181   3.900 -0.1231  0.0337  0.1542
42525W        W85463  28.847   9.983   2.253  0.2941 -0.1268 -0.1135
42526W        W85464  29.448   6.745   1.634 -0.1890  0.3460  0.2481
42527W        W85465  29.048   9.457   0.059  0.1529 -0.0327  0.3214
42528W        W85466  32.528  10.648   2.175 -0.0721  0.0261  0.1149
42529W        W85467  30.155   7.331   2.165  0.1253  0.1533 -0.0715
42530W        W85468  31.940   7.603   3.178  0.2487 -0.3722  0.0790
42531W        W85469  32.527   9.935   2.387  0.0184 -0.0208 -0.1560
42532W        W85470  30.754   9.731  31.733  0.0450 -0.1331  0.2348
42533W        W85471  29.068   9.496   1.931  0.1732 -0.1040  0.1168
42534W        W85472  30.651   8.607   1.411  0.1986  0.0171 -0.2890
42535W        W85473  32.183   9.042   2.622 -0.0238 -0.1227  0.0900
42536W        W85474  31.780   8.605   2.016  0.0358  0.2563 -0.0898
42537W        W85475  31.058   9.231   2.854  0.0597 -0.1125  0.1092
42538W        W85476  30.686  10.081   2.955  0.1601  0.0914  0.4344
42539W        W85477  29.717   8.738   2.412  0.0317  0.0471 -0.1900
42540W        W85478  28.498  10.510   0.512 -0.2276  0.2354 -0.0957
42541W        W85479  29.767  11.495   0.990  0.0712  0.0825 -0.1622
42542W        W85480  31.527   9.940   1.679  0.3761  0.1422 -0.3258
42543W        W85481  32.966   9.755   2.614  0.0835 -0.2871  0.0407
42544W        W85482  31.777   8.650   3.996  0.1612  0.1021  0.0898
42545W        W85483  29.528  10.743   3.640  0.0769  0.2079  0.0204
42546W        W85484  29.515  10.297  31.476 -0.4402  0.0766  0.2697
42547W        W85485  29.999  11.061   3.233  0.1133 -0.2084  0.0352
42548W        W85486  29.933   9.531   3.484 -0.4362 -0.0622 -0.3609
42549W        W85487  31.361   8.555   2.410 -0.4257 -0.2058 -0.2394
42550W        W85488  31.030   8.395   0.654  0.4992 -0.1235  0.0606
42551W        W85489  29.429   9.794   1.828  0.3336 -0.0483 -0.3776
42552W        W85490  30.932   9.722   2.100  0.1327 -0.0508  0.1583
42553W        W85491  30.188   9.699   3.040 -0.2695  0.2046 -0.1127
42554W        W85492  29.678  10.993   2.776 -0.4172  0.2187  0.2453
42555W        W85493  32.177   7.426   5.396 -0.2259  0.0380  0.0039
42556W        W85494  30.312   9.496   0.209 -0.0082  0.2145 -0.3167
42557W        W85495  30.758   9.240   0.801 -0.0097 -0.1905  0.0583
42558W        W85496  29.467   8.457  31.814 -0.0014 -0.0070 -0.1161
42559W        W85497  31.065   7.436   1.697  0.2565  0.0459  0.1901
42560W        W85498  31.294   7.887   1.359  0.3336 -0.2447 -0.0077
42561W        W85499  30.879  11.708   2.014  0.0901  0.0251 -0.0992
42562W        W85500  30.748   8.345   3.105  0.0171 -0.4068  0.0392
42563W        W85501  33.087   9.476   3.875 -0.1933 -0.1373 -0.0737
42564W        W85502  30.736   9.198   1.272  0.2053  0.2756 -0.0335
42565W        W85503  31.545   8.142   1.875  0.2773  0.2575  0.1032
42566W        W85504  30.602  10.893   2.119 -0.0737  0.0850  0.4097
42567W        W85505  30.392   8.588   2.840  0.0129  0.0797 -0.1647
42568W        W85506  31.317   9.088  31.936  0.1348 -0.0929 -0.2628
42569W        W85507  33.059   9.065   1.790 -0.2230 -0.0992  0.1910
42570W        W85508  31.195   8.930   1.419  0.2110  0.1737 -0.2722
42571W        W85509  28.906   8.934   0.007  0.0094  0.0364 -0.0154
42572W        W85510  29.876   9.965   3.783 -0.0374 -0.1125 -0.3366
42573W        W85511  28.302  10.040   2.475 -0.0282  0.1607  0.0080
42574W        W85512  30.322   6.686  31.648  0.0984 -0.0430 -0.5803
42575W        W85513  32.553   9.796   3.869 -0.0908 -0.0440  0.1700
42576W        W85514  29.113   9.988   3.580  0.2002 -0.0121 -0.0060
42577W        W85515  31.372   7.051   1.907 -0.3881  0.0412 -0.0779
42578W        W85516  31.175   9.554   2.493 -0.1170  0.0771  0.0026
42579W        W85517  32.331  11.141   2.015  0.0419  0.2475 -0.1738
42580W        W85518  33.504  10.298  31.064  0.3788  0.0173  0.1568
42581W        W85519  30.929   8.501   2.129 -0.2725 -0.2601 -0.2168
42582W        W85520  31.814   6.006   3.851 -0.0773 -0.0574 -0.0202
42583W        W85521  30.606  10.598  30.539 -0.2905 -0.0260  0.2487
42584W        W85522  31.204  10.846   0.802 -0.0202  0.1363 -0.2394
42585W        W85523  32.260   9.185   3.618  0.2786  0.0537 -0.0300
42586W        W85524  32.771   8.111   0.115 -0.1996 -0.0570  0.1872
42587W        W85525  30.405   9.872   2.187 -0.1489 -0.1100 -0.0295
42588W        W85526  30.094   8.882   4.049 -0.4171 -0.0093  0.1976
42589W        W85527  30.533  10.900   3.257 -0.0300 -0.0304 -0.5671
42590W        W85528  29.447  10.294   0.149  0.3023  0.4255 -0.0685
42591W        W85529  29.648  11.431   2.447  0.0217  0.1991  0.0440
42592W        W85530  30.346  10.891  31.326  0.2550 -0.1278 -0.0187
42593W        W85531  30.147   8.054   3.709 -0.3458  0.4563  0.2282
42594W        W85532  29.688  10.038   1.469 -0.0028 -0.0063 -0.0672
42595W        W85533  31.300   7.426   2.218 -0.1161  0.0476 -0.1403
42596W        W85534  29.765   7.811   4.188 -0.0052 -0.0900 -0.0043
42597W        W85535  32.648   7.737   1.080 -0.1314 -0.1168  0.1466
42598W        W85536  30.336   8.370   0.980 -0.3580  0.1158  0.1128
42599W        W85537  31.820   9.314   0.943 -0.0814  0.1895 -0.0837
42600W        W85538  32.933   8.196   1.816  0.0664  0.0820  0.2237
42601W        W85539  31.129  10.470   0.388  0.1294  0.0498 -0.3170
42602W        W85540  30.855   9.730   3.425 -0.2331  0.1465 -0.0155
42603W        W85541  29.754   8.809   0.101 -0.0307 -0.3123 -0.0333
42604W        W85542  30.287   7.692   3.356 -0.1591 -0.0576  0.1443
42605W        W85543  29.976   8.317   1.816 -0.2095  0.0660 -0.0900
42606W        W85544  32.261   8.654   4.513  0.3336  0.1079  0.2448
42607W        W85545  30.003   7.652  31.458 -0.2228  0.1896  0.1399
42608W        W85546  31.786  10.063   0.470 -0.0859  0.1112  0.1936
42609W        W85547  30.448   9.279  31.666  0.1899  0.1139 -0.1947
42610W        W85548  28.561  10.063   0.231  0.0672 -0.0794 -0.1949
42611W        W85549  32.312   7.831   3.023  0.1335 -0.1404  0.2526
42612W        W85550  31.007  10.183   1.783  0.0769  0.1083 -0.3291
42613W        W85551  32.661  10.317   4.015 -0.0722 -0.3151 -0.0384
42614W        W85552  31.697   8.933   1.648 -0.1995 -0.4370  0.3412
42615W        W85553  30.148   7.917   2.109  0.0719 -0.1079  0.2183
42616W        W85554  30.802   7.251   0.475 -0.1529  0.0309  0.0825
42617W        W85555  28.587  11.511   1.832 -0.0121  0.1307  0.0843
42618W        W85556  30.194  10.748   0.835 -0.2004  0.0936  0.2743
42619W        W85557  30.126   8.828   1.069 -0.0810  0.1257  0.0053
42620W        W85558  32.002  11.556   3.617  0.0175 -0.0716 -0.0094
42621W        W85559  31.536   7.634   0.504 -0.1702  0.1005  0.2671
42622W        W85560  29.733   9.678   2.753 -0.0188  0.0957 -0.0675
42623W        W85561  31.461   7.444   3.155  0.1632  0.0541  0.2028
42624W        W85562  32.420   8.684   3.560 -0.1288 -0.2346  0.0174
42625W        W85563  30.962   9.652   1.405  0.0876  0.1429  0.2548
42626W        W85564  29.665   6.622   0.821 -0.2690 -0.2555 -0.1634
42627W        W85565  31.835  10.802   2.154 -0.2566 -0.0667 -0.1726
42628W        W85566  28.415  10.547   0.034 -0.0861  0.2398  0.3822
42629W        W85567  28.588   8.815   0.931 -0.0959 -0.0790 -0.1428
42630W        W85568  30.495  10.750   1.646  0.3397  0.3096  0.1237
42631W        W85569  31.251   6.955   2.396 -0.0834  0.0027 -0.1545
42632W        W85570  29.255   8.609   3.430  0.2243  0.0433 -0.0558
42633W        W85571  30.732   7.639   3.616  0.0013  0.0773 -0.5751
42634W        W85572  29.820   9.934   0.244 -0.2776 -0.1019  0.1996
42635W        W85573  29.794  10.852   2.263  0.2951  0.2348  0.0688
42636W        W85574  32.124   5.645   1.238  0.0183 -0.0044  0.1094
42637W        W85575  33.364   9.734  31.245 -0.2177  0.2940 -0.0356
42638W        W85576  30.503   9.360   4.107  0.1318  0.1388  0.0585
42639W        W85577  33.211   9.373   1.409 -0.0231 -0.0162  0.3542
42640W        W85578  30.270  12.006   0.600  0.1966  0.0426  0.1158
42641W        W85579  30.684   4.851   1.061  0.3074 -0.4276  0.2633
42642W        W85580  30.519  10.588   4.653 -0.0191  0.0903  0.0158
42643W        W85581  31.355   9.063   2.456 -0.1389  0.0152  0.0242
42644W        W85582  30.564   9.897   1.669 -0.2507  0.1745  0.0307
42645W        W85583  31.050   8.786   0.949 -0.2278 -0.1697 -0.0879
42646W        W85584  31.620  10.892   0.620  0.0060  0.1492 -0.1059
42647W        W85585  30.178  10.695   1.947  0.2145 -0.1259 -0.1452
42648W        W85586  30.779   9.977   4.804  0.0152  0.1288 -0.0569
42649W        W85587  32.058   9.000   3.107  0.0485 -0.1651  0.0070
42650W        W85588  30.921   6.975   2.753  0.0646  0.1027  0.2509
42651W        W85589  29.552   8.837  30.779  0.0184  0.0753 -0.0917
42652W        W85590  30.614   8.070   0.601 -0.6007  0.1186  0.1347
42653W        W85591  29.753  12.053   0.737 -0.1593  0.1964  0.2307
42654W        W85592  31.704   9.318   2.697 -0.1634  0.0901  0.3034
42655W        W85593  30.829   7.810   2.475 -0.0811  0.1859 -0.2970
42656W        W85594  32.003   6.213   3.067  0.0119  0.0631  0.0604
42657W        W85595  33.191   7.882   5.132  0.0602  0.2421  0.1689
42658W        W85596  31.287   8.662   1.887  0.1232  0.1719 -0.0220
42659W        W85597  30.664   8.263   2.521 -0.0762 -0.3633  0.3133
42660W        W85598  29.442   9.613   1.246 -0.0769  0.0336  0.0901
42661W        W85599  31.767   7.267   2.121  0.1338 -0.0055  0.2564
42662W        W85600  30.576  10.058   4.304  0.0382  0.0778  0.1394
42663W        W85601  29.032  10.514   3.497 -0.0961  0.2310 -0.0502
42664W        W85602  31.781   9.942   3.551  0.0333 -0.1407 -0.0991
42665W        W85603  33.261   8.271   1.382 -0.1340 -0.1002  0.0001
42666W        W85604  31.451   7.998   4.359 -0.2060  0.3313 -0.0612
42667W        W85605  32.124   8.123   1.921 -0.0532  0.0120  0.3516
42668W        W85606  30.008  10.574   1.256  0.1663  0.0129 -0.0212
42669W        W85607  29.353   9.808   0.321 -0.1195  0.0308 -0.1407
42670W        W85608  30.839   6.969   1.989 -0.1834  0.0888 -0.2650
42671W        W85609  31.482  10.109   3.166 -0.0098 -0.0266 -0.0285
42672W        W85610  28.680  11.532  31.823 -0.1051 -0.2688 -0.2267
42673W        W85611  31.452   7.963   2.350 -0.2167 -0.1352 -0.1460
42674W        W85612  30.774  11.717   0.752 -0.0578 -0.0226  0.2626
42675W        W85613  31.069   8.082   2.835  0.2548 -0.3055  0.0219
42676W        W85614  28.846  11.255   2.785  0.0636 -0.1247 -0.0093
42677W        W85615  30.666   9.421   1.783  0.1497  0.0427 -0.0436
42678W        W85616  29.527   9.344  31.477  0.1107 -0.0508  0.0026
42679W        W85617  32.523   7.993   1.561  0.1959  0.2290 -0.0068
42680W        W85618  32.317   9.379   0.758 -0.0143 -0.0918 -0.1564
42681W        W85619  29.451   8.178   1.754 -0.3618  0.0307 -0.0880
42682W        W85620  29.738   7.851   0.911  0.1679 -0.1337 -0.3793
42683W        W85621  29.466  10.959   4.168  0.6570 -0.0001 -0.0223
42684W        W85622  31.456   9.555   3.285  0.2623 -0.1189 -0.2402
42685W        W85623  32.223   7.010   0.788 -0.1568  0.2662  0.0229
42686W        W85624  32.732  10.216   3.493 -0.0834  0.3042 -0.1852
42687W        W85625  30.841   9.913   3.886  0.1362 -0.0620 -0.1448
42688W        W85626  30.010   9.140   0.611  0.3125 -0.2352 -0.2307
42689W        W85627  32.667   7.733   3.669  0.1219 -0.2820  0.0470
42690W        W85628  30.569   8.783   0.860 -0.0748  0.0657  0.2551
42691W        W85629  29.547  11.961   2.534 -0.0435  0.1078  0.1708
42692W        W85630  31.476  10.698   2.460  0.1768 -0.2022 -0.0177
42693W        W85631  30.444  10.341   0.970  0.0846 -0.0661  0.4010
42694W        W85632  29.180  11.359   1.659  0.0891 -0.2599 -0.0728
42695W        W85633  31.822   8.000   5.209  0.3633 -0.3604  0.0219
42696W        W85634  32.014   8.204   2.829  0.1215  0.2327 -0.3748
42697W        W85635  30.608   9.165   2.643  0.0847 -0.0537  0.0321
42698W        W85636  29.828   7.720   0.239  0.0209  0.0193  0.1973
42699W        W85637  31.026  10.031   2.458 -0.1528  0.0593  0.0769
42700W        W85638  32.123   8.315   3.805  0.0011  0.0431 -0.0972
42701W        W85639  30.520   8.074   4.088 -0.2820  0.1602 -0.2458
42702W        W85640  28.827  10.538   5.004 -0.2797 -0.2036  0.0698
42703W        W85641  30.936   8.324   1.676  0.2044  0.3205  0.0053
42704W        W85642  32.371  11.817   1.136 -0.3517 -0.2656 -0.0805
42705W        W85643  31.624   7.855   2.851 -0.1830 -0.1552  0.2066
42706W        W85644  30.130  10.109   0.681  0.0904 -0.1791  0.2007
42707W        W85645  30.277  10.868   2.838 -0.0761  0.2140  0.1219
42708W        W85646  31.698   9.442   0.090  0.1138  0.1550 -0.1799
42709W        W85647  30.659   8.093   2.062 -0.3004  0.1799 -0.2470
42710W        W85648  30.078  11.748   2.601  0.2104  0.0315 -0.0138
42711W        W85649  29.825  10.990   1.107 -0.4480  0.2135 -0.0324
42712W        W85650  29.013  11.788   1.869 -0.0032  0.0852  0.1331
42713W        W85651  31.359   7.824   0.025 -0.1871  0.0240  0.2246
42714W        W85652  30.992  10.413   0.932  0.1995 -0.1939  0.0092
42715W        W85653  29.617   8.874   0.790  0.1437 -0.0441  0.0228
42716W        W85654  32.346   7.369   2.791 -0.1178 -0.2093  0.4147
42717W        W85655  31.129   9.527  31.329  0.1553  0.1007 -0.0433
42718W        W85656  30.998   8.008   5.686 -0.1930  0.0419 -0.1997
42719W        W85657  30.409   8.183   1.632  0.2812 -0.2021  0.1649
42720W        W85658  32.282   8.597   1.963 -0.3807  0.1909 -0.3678
42721W        W85659  29.380   8.786   2.836  0.4750  0.0435 -0.1070
42722W        W85660  30.034  10.427   3.734 -0.1626 -0.0574 -0.2307
42723W        W85661  29.476   9.561   2.296 -0.2031 -0.1134 -0.0351
42724W        W85662  32.903   9.110  31.095 -0.1693 -0.2500  0.2018
42725W        W85663  29.617   8.489   1.328  0.1020  0.0597 -0.2971
42726W        W85664  30.685  10.321   1.441 -0.4081  0.0573  0.2275
42727W        W85665  30.952   8.649   2.750  0.4375  0.0135 -0.1134
42728W        W85666  30.458  11.452   2.260  0.0020 -0.2570  0.2394
42729W        W85667  31.757   8.715   2.722  0.1797  0.3448  0.0769
42730W        W85668  30.143   8.469   2.232  0.1650  0.0027  0.0190
42731W        W85669  30.866   8.942   1.800  0.2540 -0.0624 -0.2002
42732W        W85670  31.554   8.871   1.104 -0.2323 -0.0540  0.1278
42733W        W85671  29.083  11.186   0.590  0.0592  0.1863 -0.0344
42734W        W85672  30.135   8.240   3.202  0.0478  0.0979 -0.0412
42735W        W85673  30.298   9.132   1.535 -0.0548  0.1551  0.0025
42736W        W85674  31.730   7.859  31.370 -0.0546  0.2104  0.0848
42737W        W85675  31.681   6.562   2.622 -0.1353 -0.1743  0.1546
42738W        W85676  30.898   7.706   3.167 -0.1053 -0.0422 -0.2707
42739W        W85677  29.939   8.731   3.005 -0.0003  0.0944  0.0283
42740W        W85678  29.658   8.358   3.945 -0.3640 -0.0785 -0.1087
42741W        W85679  32.736   9.020   3.888  0.1224  0.0325 -0.0714
42742W        W85680  31.439   8.657   0.641  0.0923  0.1928  0.3124
42743W        W85681  32.176   8.583   2.431  0.2034  0.0373 -0.2292
42744W        W85682  33.427   9.130   0.211 -0.1948 -0.2413 -0.1924
42745W        W85683  30.285   9.948  31.475  0.0423  0.2640 -0.1734
42746W        W85684  29.999   8.917   1.873  0.2942  0.0897  0.0512
42747W        W85685  32.552   8.541   4.063  0.0810  0.0444  0.2275
42748W        W85686  30.454   7.596   0.354  0.0486  0.1078 -0.2240
42749W        W85687  32.289   8.031   4.618  0.1754  0.0096 -0.3411
42750W        W85688  29.868  10.190  31.807 -0.2645  0.2090  0.0372
42751W        W85689  33.180   8.743   0.519  0.3422 -0.0772 -0.0302
42752W        W85690  31.444   8.209   0.425 -0.1191  0.1108 -0.0330
42753W        W85691  29.146   8.614   0.907  0.0025 -0.0695 -0.0146
42754W        W85692  29.577   8.958   3.278 -0.3089 -0.2334 -0.0117
42755W        W85693  30.844   6.442  31.772  0.4855  0.1335  0.0213
42756W        W85694  32.116   9.661  31.932 -0.1255 -0.3274 -0.1363
42757W        W85695  32.141   9.445   1.871 -0.0309  0.1539 -0.1125
42758W        W85696  31.868   9.284   4.112  0.0500  0.2448 -0.4868
42759W        W85697  31.490   6.610   0.117 -0.3211 -0.1144 -0.0444
42760W        W85698  32.680   7.214   5.195  0.1359 -0.0167  0.0378
42761W        W85699  29.252  10.686   0.430 -0.0346  0.0182 -0.0623
42762W        W85700  30.512   7.919   2.933  0.3318  0.1272  0.0441
42763W        W85701  30.061  11.744   2.074 -0.1220  0.0754  0.3342
42764W        W85702  27.811   9.294   2.387  0.1428  0.0153 -0.0957
42765W        W85703  30.634  10.757   1.171 -0.0190 -0.1218 -0.1301
42766W        W85704  30.566   7.388   2.898 -0.0859  0.2569 -0.1196
42767W        W85705  31.639   8.008   0.914  0.0592 -0.3339 -0.1488
42768W        W85706  30.761   9.769   0.254  0.0194 -0.0790  0.0912
42769W        W85707  32.649   8.313   4.503 -0.1002 -0.2040  0.2047
42770W        W85708  31.291  10.021   4.093 -0.0411  0.2729  0.1332
42771W        W85709  29.208  10.887   2.922 -0.0856 -0.0752 -0.1296
42772W        W85710  30.907  10.289   3.439 -0.3874  0.0530 -0.0798
42773W        W85711  33.505   8.999   1.499 -0.0215  0.2350 -0.2065
42774W        W85712  29.332  10.091   2.199 -0.4447 -0.0016  0.0622
42775W        W85713  29.386   8.187   4.444 -0.0123  0.0978 -0.1879
42776W        W85714  31.406   8.536   3.644  0.0330  0.4115 -0.0010
42777W        W85715  32.395   8.582   0.888  0.1649  0.0094 -0.0955
42778W        W85716  30.398   6.136   1.928 -0.1330 -0.1015  0.0088
42779W        W85717  31.542   9.107   0.509  0.1971  0.4051  0.1212
42780W        W85718  29.401  10.405   2.948  0.0462 -0.0234  0.1742
42781W        W85719  29.704   8.272   2.829  0.1816 -0.0465 -0.1901
42782W        W85720  27.827   9.503  31.572 -0.3102  0.1466 -0.1601
42783W        W85721  31.305  10.167   1.329  0.0893 -0.1245 -0.3104
42784W        W85722  32.421   8.906   0.410  0.0918  0.1672 -0.1915
42785W        W85723  30.295  10.454   3.253 -0.1133 -0.1558  0.3363
42786W        W85724  31.903   8.077   0.238 -0.0306 -0.2176  0.2936
42787W        W85725  29.637  11.225   1.960  0.0133  0.0765  0.1109
42788W        W85726  29.570  11.154  31.673 -0.1232 -0.0757 -0.3927
42789W        W85727  32.590   9.480   0.316 -0.0343 -0.2227  0.0421
42790W        W85728  29.581  11.170   0.649 -0.0708 -0.0789 -0.0286
42791W        W85729  33.063   8.043   3.642 -0.0022  0.1976 -0.0747
42792W        W85730  30.330   9.280   1.035 -0.2404  0.1335  0.2198
42793W        W85731  31.930   8.815   3.542 -0.1842 -0.0060 -0.5272
42794W        W85732  33.673   8.952  31.824  0.1556 -0.1283 -0.2650
42795W        W85733  31.106   9.085   3.339  0.0037  0.0330  0.0499
42796W        W85734  30.915   9.262   2.225  0.1017 -0.3808  0.3003
42797W        W85735  29.656   9.351   0.160  0.5155 -0.0816  0.1061
42798W        W85736  29.359   9.012   2.230  0.1520 -0.0547 -0.0139
42799W        W85737  32.570   6.804   4.098 -0.2242  0.2652 -0.0483
42800W        W85738  30.056  11.624   3.997  0.2674 -0.1444  0.0571
42801W        W85739  30.400   9.983   3.434  0.0928  0.0917  0.0659
42802W        W85740  30.244   8.822   0.129  0.1071 -0.0155 -0.0555
42803W        W85741  30.875   8.633   3.530 -0.0465  0.0349  0.1283
42804W        W85742  32.709   6.212   5.039 -0.1337 -0.2409 -0.2830
42805W        W85743  31.100  10.643  31.936 -0.1367 -0.2671 -0.2568
42806W        W85744  31.125   7.858   1.996  0.0456 -0.1435 -0.0819
42807W        W85745  31.836  11.033   2.643  0.1010 -0.0262 -0.0201
42808W        W85746  28.838  11.627   0.698  0.1142  0.2279  0.0377
42809W        W85747  29.228  11.455   1.023  0.0909  0.1414  0.2089
42810W        W85748  30.735   8.113   1.053  0.1079  0.0770 -0.0830
42811W        W85749  33.150   8.991   2.930 -0.2439  0.0379 -0.0519
42812W        W85750  30.147   8.954   2.538 -0.2065 -0.1272 -0.0023
42813W        W85751  32.789   8.014   3.241  0.1304 -0.2358 -0.1217
42814W        W85752  29.565   8.658   1.947 -0.1629  0.0292  0.1247
42815W        W85753  32.085   8.279  31.793  0.1686 -0.0037  0.0031
42816W        W85754  31.648   9.425   2.219 -0.1470  0.0535  0.1926
42817W        W85755  30.327   8.659   3.359  0.2530 -0.2168 -0.1283
42818W        W85756  30.088   9.562   1.385 -0.0094 -0.2214  0.1767
42819W        W85757  31.747   8.030   3.359 -0.2123 -0.3960 -0.1651
42820W        W85758  31.228   8.673  31.589 -0.0040 -0.0705  0.1561
42821W        W85759  31.998  10.184   3.096 -0.0422 -0.1321 -0.2335
42822W        W85760  29.810   7.498   3.239  0.3266 -0.0806 -0.1540
42823W        W85761  31.313   8.590   0.099 -0.2704 -0.0727  0.1319
42824W        W85762  30.101  10.224   1.735  0.0381  0.0560  0.2022
42825W        W85763  31.505   8.312   2.802  0.2994 -0.1737  0.0021
42826W        W85764  30.506  10.296   3.787  0.1480 -0.1077 -0.0613
42827W        W85765  28.225   8.590   1.806 -0.1021  0.0826  0.0753
42828W        W85766  33.392   8.941   0.981 -0.1866 -0.1788 -0.0323
42829W        W85767  32.245   8.317   3.322 -0.2946  0.1945  0.1078
42830W        W85768  30.098  10.385   0.254 -0.1127 -0.0752  0.1517
42831W        W85769  32.079   8.906   1.234 -0.2045 -0.0770 -0.0814
42832W        W85770  31.627  10.500   2.930  0.1475  0.0304  0.0623
42833W        W85771  29.056   9.073   0.638  0.2699 -0.3093  0.2527
42834W        W85772  31.400  10.413   3.662  0.0181  0.1163  0.2965
42835W        W85773  32.753   9.563   3.101 -0.0226 -0.0969 -0.0077
42836W        W85774  31.275   7.139   1.406 -0.2399  0.1647 -0.0904
42837W        W85775  30.615   8.560   0.395  0.1709 -0.0107  0.0735
42838W        W85776  28.484  10.367   1.690 -0.3894 -0.1547  0.0334
42839W        W85777  32.038   8.507   1.557 -0.0427  0.2198  0.1024
42840W        W85778  31.645   6.259   3.446 -0.0359 -0.0338 -0.0961
42841W        W85779  30.552  11.112  30.922  0.0116  0.1555  0.0750
42842W        W85780  32.212   6.442   3.896  0.2414  0.1699 -0.0681
42843W        W85781  31.675   8.507   3.188 -0.0130 -0.0440 -0.1417
42844W        W85782  29.494   9.561   3.857 -0.1040 -0.0687  0.1984
42845W        W85783  30.052   9.361  30.711  0.0464  0.0055 -0.1183
42846W        W85784  30.700   9.005   3.142 -0.2129 -0.0644  0.3109
42847W        W85785  31.663   9.467   1.607  0.0468 -0.0738  0.3718
42848W        W85786  30.587  10.304   2.006 -0.0260 -0.0341 -0.3189
42849W        W85787  31.552   9.033   3.124  0.1456  0.0710 -0.2290
42850W        W85788  30.126  10.047   1.238  0.2021 -0.1811 -0.0103
42851W        W85789  32.247   9.012   1.674  0.4199 -0.1533  0.3170
42852W        W85790  30.418   9.117   2.064 -0.1091  0.1563  0.0691
42853W        W85791  32.130   7.604   1.816  0.1192  0.3203 -0.1781
42854W        W85792  31.742   7.281   1.393  0.0826 -0.0953 -0.1311
42855W        W85793  31.223   8.132   3.332  0.0949  0.2621  0.0980
42856W        W85794  28.892  10.442   0.001  0.0014 -0.2703  0.1621
42857W        W85795  30.344  10.449  31.662 -0.0124  0.2264 -0.0347
42858W        W85796  30.162   9.566   1.854 -0.0492 -0.1250 -0.1763
42859W        W85797  30.440   6.956   2.541 -0.1186 -0.0162 -0.0312
42860W        W85798  30.708   8.093   3.521 -0.2376 -0.3563 -0.0643
42861W        W85799  30.467   9.710   0.703  0.1524  0.1245  0.2983
42862W        W85800  29.602   7.229   1.471 -0.2111 -0.0566 -0.4215
42863W        W85801  31.839  10.415   1.437 -0.1956  0.0539  0.2212
42864W        W85802  29.117   7.948   2.639  0.0116  0.3001  0.1245
42865W        W85803  30.185   8.131   2.618  0.1872  0.0087 -0.3066
42866W        W85804  30.670   9.723   2.576 -0.0681 -0.0206  0.3352
42867W        W85805  32.512   9.874   1.427  0.3233  0.2250  0.1736
42868W        W85806  31.655   7.056  31.942 -0.0411 -0.0317 -0.1236
42869W        W85807  33.023   9.815   3.555 -0.1462  0.0068  0.0003
42870W        W85808  28.616  11.107   0.764 -0.0227 -0.3949 -0.4204
42871W        W85809  30.433   8.541   3.829 -0.1686 -0.2494  0.2037
42872W        W85810  30.568   8.718   2.398 -0.0148  0.0127 -0.0271
42873W        W85811  30.151   8.589   1.468 -0.2341  0.1376 -0.0305
42874W        W85812  31.101   9.745   2.970 -0.1377 -0.1919  0.0013
42875W        W85813  31.830   8.434   1.107  0.0558  0.0690  0.4240
42876W        W85814  31.960   9.845   1.432  0.1836 -0.2199 -0.0987
42877W        W85815  29.860   9.873   2.157 -0.1026 -0.1131  0.0969
42878W        W85816  31.235   9.927   3.571  0.2904 -0.2562 -0.1458
42879W        W85817  27.876   7.345   2.205 -0.1694  0.0212  0.0913
42880W        W85818  31.321   9.117   1.951 -0.3843 -0.0013 -0.0282
42881W        W85819  30.135  10.047   2.605 -0.2318 -0.0464  0.1549
42882W        W85820  31.967  10.665  31.933 -0.0153 -0.0785 -0.1856
42883W        W85821  31.549   8.476   1.502  0.0499  0.2097  0.1766
42884W        W85822  32.234   8.143   1.171  0.0708  0.1202 -0.0067
42885W        W85823  30.180   6.698   4.395  0.0368  0.1275 -0.1478
42886W        W85824  30.303  10.609   4.183  0.1597 -0.1772 -0.1178
42887W        W85825  32.636   8.269   3.679 -0.1457 -0.3119 -0.0259
42888W        W85826  30.057   8.088   0.640  0.0018 -0.1117 -0.1032
42889W        W85827  32.873   9.243   0.701 -0.1002 -0.1915 -0.0373
42890W        W85828  30.514   9.710   1.199  0.0127  0.0015  0.1066
42891W        W85829  29.924   9.296   2.234 -0.3612 -0.1217 -0.0078
42892W        W85830  31.812   7.955   1.464  0.2533  0.1373  0.1873
42893W        W85831  32.027   7.043   3.060  0.1357  0.1078 -0.1358
42894W        W85832  31.452  10.373   0.763 -0.0486  0.0556  0.0471
42895W        W85833  32.797   7.261   3.581  0.3552 -0.0037 -0.0849
42896W        W85834  29.838   9.771  30.493  0.1284  0.1287  0.1024
42897W        W85835  31.602   9.628   0.572  0.0138  0.0371 -0.2382
42898W        W85836  31.315  10.821   4.015 -0.1823  0.1813  0.2229
42899W        W85837  33.497  10.380   3.947 -0.0833  0.1519 -0.1587
42900W        W85838  32.316  10.471   3.390 -0.0764  0.0844  0.3335
42901W        W85839  32.320   8.629   2.956  0.0066  0.1030  0.3125
42902W        W85840  29.253   7.574   1.910  0.2735 -0.2971 -0.2016
42903W        W85841  29.781  10.799   1.731  0.4195  0.0841  0.0651
42904W        W85842  30.769   8.691  31.840  0.0894 -0.3412 -0.2005
42905W        W85843  31.372   6.974   2.925  0.0005  0.0013 -0.0138
42906W        W85844  28.823   8.259   1.074  0.2277 -0.3225 -0.0160
42907W        W85845  32.036   9.011   2.109  0.0551  0.1411  0.0941
42908W        W85846  30.107  11.183   2.529  0.2733  0.0620  0.1298
42909W        W85847  32.951   8.991   3.426 -0.3727 -0.3514  0.0616
42910W        W85848  31.368  10.780   6.702 -0.0022  0.0908  0.2020
42911W        W85849  29.892   8.831   4.673 -0.0701 -0.1528 -0.0429
42912W        W85850  32.572   9.015   4.379  0.2588  0.1027  0.0691
42913W        W85851  32.392   9.960   5.618  0.2175  0.1504  0.0972
42914W        W85852  30.496   8.754   5.320 -0.0285 -0.1590 -0.2837
42915W        W85853  30.000  10.830   4.529 -0.1923 -0.0393 -0.0434
42916W        W85854  29.306   8.597   6.961  0.2716  0.0228 -0.0431
42917W        W85855  32.083   8.773   6.768  0.0355 -0.1362 -0.1203
42918W        W85856  32.485  10.357   5.952  0.1384  0.1045  0.0160
42919W        W85857  33.538   9.444   4.126 -0.1790  0.2586 -0.0782
42920W        W85858  30.384   8.004   7.175  0.1445 -0.0485  0.1359
42921W        W85859  29.704  10.892   6.941 -0.2981  0.0137  0.0098
42922W        W85860  29.764   7.201   5.512  0.1666  0.2331  0.0634
42923W        W85861  29.527   7.512   6.324 -0.0968  0.1901  0.1743
42924W        W85862  31.679   8.080   6.587  0.1309 -0.1040 -0.1578
42925W        W85863  29.904   8.432   6.335  0.0708 -0.2806  0.2770
42926W        W85864  31.264   8.088   7.483 -0.2954  0.1322  0.0230
42927W        W85865  30.248   8.568   5.775  0.2855 -0.1046 -0.1516
42928W        W85866  31.742  10.144   4.006  0.1896 -0.2865 -0.3774
42929W        W85867  28.731   7.226   7.052  0.1019  0.0068  0.2529
42930W        W85868  32.247   8.220   9.230  0.0585  0.0883 -0.0483
42931W        W85869  31.197   9.914   5.084 -0.3507  0.1199 -0.0136
42932W        W85870  30.224   8.418   4.296  0.1499  0.0123  0.0191
42933W        W85871  30.182   9.162   7.853 -0.0202 -0.1843 -0.2601
42934W        W85872  29.509   9.974   6.798  0.2026  0.0514  0.0953
42935W        W85873  31.254   7.858   6.122  0.1090  0.0201  0.1178
42936W        W85874  32.067   9.062   5.714 -0.1440  0.2255  0.0720
42937W        W85875  29.789  11.042   6.361 -0.2110 -0.0476 -0.3408
42938W        W85876  31.677   9.630   6.093  0.2276  0.1440 -0.1651
42939W        W85877  31.174   9.899   7.977  0.1549 -0.0002  0.2329
42940W        W85878  28.895   8.858   4.474 -0.2500 -0.1484  0.0096
42941W        W85879  28.794  10.292   4.526  0.3228  0.2695 -0.3642
42942W        W85880  31.128  10.817   4.755 -0.1232  0.0664 -0.5605
42943W        W85881  32.960   9.504   4.794  0.2200  0.2193 -0.1287
42944W        W85882  32.129   9.266   6.843  0.3689  0.0101  0.3093
42945W        W85883  30.796  11.484   7.876 -0.2390 -0.3208  0.2037
42946W        W85884  29.711  10.488   4.112  0.1799  0.2466 -0.0367
42947W        W85885  30.717  10.652   6.537 -0.3841  0.2919  0.3464
42948W        W85886  29.857   9.396   7.305 -0.0862 -0.3430 -0.0389
42949W        W85887  30.373   9.408   7.354  0.0268  0.0322 -0.0676
42950W        W85888  30.926   9.918   6.214  0.2978  0.0777 -0.1664
42951W        W85889  29.763  10.956   4.927 -0.3919 -0.0065 -0.0481
42952W        W85890  31.032   9.200   5.647 -0.0130  0.0150  0.3092
42953W        W85891  29.756  11.089   8.204 -0.1114  0.0783 -0.0312
42954W        W85892  29.727   9.862   4.254 -0.0183 -0.0041 -0.0286
42955W        W85893  33.019   6.347   7.405 -0.1313 -0.2382  0.0301
42956W        W85894  29.914  10.127   3.022 -0.0544 -0.0611 -0.0426
42957W        W85895  31.991   8.310   4.294 -0.0935  0.0419 -0.1536
42958W        W85896  31.280   7.354   3.619 -0.0894 -0.1232 -0.1003
42959W        W85897  32.380   9.366   4.125  0.1183 -0.0112 -0.1330
42960W        W85898  31.309   7.771   4.771 -0.0372 -0.2458 -0.1913
42961W        W85899  29.630  10.281   6.212 -0.2217 -0.0883  0.1845
42962W        W85900  30.626   9.441   5.910 -0.2498  0.0774 -0.1807
42963W        W85901  31.994  10.360   7.785  0.1509  0.1040 -0.3647
42964W        W85902  30.185   9.236   4.476 -0.0843 -0.0582 -0.0577
42965W        W85903  31.045   6.899   7.177  0.0169  0.1024  0.0231
42966W        W85904  29.597  10.240   5.584 -0.0165 -0.0075  0.0776
42967W        W85905  31.026   9.762   5.628 -0.0058  0.1324  0.2708
42968W        W85906  32.731  11.554   5.472 -0.2158 -0.4442 -0.1300
42969W        W85907  33.341   9.505   5.688 -0.2268 -0.1066  0.1318
42970W        W85908  30.896  10.402   5.021 -0.0724 -0.1549 -0.0498
42971W        W85909  30.208   9.679   5.764 -0.3909  0.1645 -0.3628
42972W        W85910  28.147  10.188   8.392 -0.0126  0.1473 -0.0915
42973W        W85911  29.586   9.241   6.236  0.1053 -0.0406  0.3321
42974W        W85912  31.140   7.886   3.759 -0.1308  0.0273 -0.0440
42975W        W85913  32.500  10.792   8.143  0.1927  0.2374  0.2552
42976W        W85914  29.439  11.382   7.607 -0.3440 -0.0991  0.1035
42977W        W85915  32.065   7.691   7.580  0.2768  0.0721  0.0119
42978W        W85916  30.211   9.204   6.943  0.2234  0.0027 -0.3662
42979W        W85917  31.870   9.975   6.490 -0.0758 -0.1340  0.0408
42980W        W85918  31.296   9.385   5.225  0.0034  0.1482 -0.0691
42981W        W85919  30.701   8.608   6.376  0.4630  0.1371 -0.2696
42982W        W85920  30.267   7.434   6.994  0.2061  0.0933  0.1532
42983W        W85921  31.014  10.683   5.646  0.0201 -0.1793  0.1135
42984W        W85922  30.022  10.103   5.948  0.1900  0.1825 -0.1058
42985W        W85923  33.495  10.359   6.217 -0.1365  0.2278 -0.0597
42986W        W85924  32.943   9.275   4.334 -0.2682  0.1199 -0.3685
42987W        W85925  29.237  11.124   6.883  0.1588  0.3144 -0.3825
42988W        W85926  30.602   7.435   8.275 -0.2745  0.0361  0.2157
42989W        W85927  31.898   9.822   7.449 -0.2533  0.0278 -0.1723
42990W        W85928  29.373  11.415   5.164  0.2639 -0.1410 -0.3004
42991W        W85929  29.825   9.861   6.366  0.3430 -0.1880  0.0974
42992W        W85930  29.345   8.727   4.392  0.5687  0.1704 -0.1866
42993W        W85931  30.612   9.025   6.727 -0.0331 -0.0287 -0.0143
42994W        W85932  31.732  10.373   6.835 -0.1800 -0.0655 -0.0375
42995W        W85933  31.966   7.471   4.922  0.0806  0.2081  0.0107
42996W        W85934  28.052   9.002   8.000 -0.1461  0.2967 -0.1817
42997W        W85935  30.513   7.075   7.860  0.0410 -0.0402 -0.2164
42998W        W85936  28.807   9.131   4.070  0.0327 -0.0666 -0.0645
42999W        W85937  32.868  10.067   5.524 -0.0442  0.1913 -0.2692
43000W        W85938  32.872   7.462   5.794 -0.1183  0.0604  0.0047
43001W        W85939  33.398   9.809   4.464  0.0046  0.1827  0.1531
43002W        W85940  29.184   9.432   5.897  0.5877  0.0069  0.2303
43003W        W85941  29.735   9.256   5.074 -0.2517 -0.1062 -0.1835
43004W        W85942  30.427   9.295   8.331  0.0068 -0.1824 -0.1828
43005W        W85943  30.025   8.453   7.286  0.5862  0.0736 -0.0715
43006W        W85944  31.448   8.453   6.940  0.0111 -0.0593 -0.0514
43007W        W85945  29.094   6.977   4.244 -0.4168  0.2227  0.2452
43008W        W85946  30.742   8.397   5.557  0.2725 -0.0227 -0.0392
43009W        W85947  31.562   9.573   4.430 -0.3252  0.1359  0.1065
43010W        W85948  29.347   9.766   5.115 -0.2514  0.0018  0.1975
43011W        W85949  32.331   8.661   8.509  0.0540  0.0946 -0.2167
43012W        W85950  29.978  10.500   4.924 -0.2360 -0.2175 -0.2606
43013W        W85951  33.551  11.212   6.440  0.3338  0.4340 -0.1246
43014W        W85952  32.450  10.108   6.477  0.0067  0.0767 -0.4334
43015W        W85953  30.210   9.890   8.147 -0.1533 -0.3636 -0.2000
43016W        W85954  30.718   8.436   4.388  0.0294  0.0816  0.1725
43017W        W85955  29.403  10.758   6.529 -0.0427 -0.5374  0.2826
43018W        W85956  31.449  10.000   6.754 -0.1445 -0.0791  0.2266
43019W        W85957  31.113   8.237   4.646  0.0661 -0.1321 -0.2502
43020W        W85958  32.653  11.063   5.400  0.1175 -0.0885  0.0237
43021W        W85959  30.770   9.609   4.412 -0.1967 -0.0729  0.1805
43022W        W85960  28.956   9.607   7.392 -0.1707 -0.0452  0.1353
43023W        W85961  31.800   8.120   7.776 -0.0332  0.0242  0.3450
43024W        W85962  32.548   8.462   6.889  0.2674 -0.2913 -0.0467
43025W        W85963  30.583   8.448   4.971 -0.0556 -0.1500  0.1582
43026W        W85964  29.142   7.030   3.757 -0.1610 -0.2607 -0.1918
43027W        W85965  31.951  10.592   5.863 -0.0141  0.0637 -0.2494
43028W        W85966  29.780  10.040   5.144 -0.1610 -0.0016 -0.1946
43029W        W85967  29.379   8.914   4.844  0.0520 -0.0899  0.1059
43030W        W85968  32.016  10.038   5.257  0.0095 -0.5823  0.0429
43031W        W85969  30.254   8.804   6.221 -0.0563  0.1940 -0.2777
43032W        W85970  29.154  10.457   8.027  0.1733  0.1078  0.1631
43033W        W85971  31.764   8.822   7.163  0.2024 -0.0957  0.3319
43034W        W85972  30.963   8.799   4.628 -0.0269 -0.3631  0.0928
43035W        W85973  28.933  10.796   7.355  0.0231  0.2705  0.1572
43036W        W85974  31.072   7.499   6.481 -0.2513  0.1424  0.1415
43037W        W85975  31.432   8.929   5.326 -0.1481  0.0146 -0.1088
43038W        W85976  31.480  10.743   7.226 -0.0678  0.1112 -0.2114
43039W        W85977  33.624   8.286   5.589  0.0080 -0.0165  0.4191
43040W        W85978  32.037   9.701   3.919  0.1480 -0.3484  0.0687
43041W        W85979  32.331   7.712   5.974  0.2583 -0.2017 -0.0758
43042W        W85980  29.504  10.430   8.937  0.3809  0.1547 -0.1377
43043W        W85981  31.642  10.919   5.597 -0.0714 -0.2504  0.0420
43044W        W85982  30.037   9.917   7.039 -0.1050  0.4907 -0.1080
43045W        W85983  30.977   7.884   4.290  0.0211 -0.3832  0.1298
43046W        W85984  31.931   9.548   5.660  0.1982 -0.2991 -0.1832
43047W        W85985  30.586   8.913   7.585 -0.0696 -0.1524  0.1297
43048W        W85986  31.709   9.842   7.934 -0.2950 -0.0747  0.1109
43049W        W85987  31.246   9.944   4.612  0.2203 -0.0563  0.2228
43050W        W85988  30.938   6.158   5.598  0.0489  0.2239  0.1226
43051W        W85989  30.527   9.005   3.689  0.0719 -0.1289  0.2372
43052W        W85990  31.244   8.553   5.582  0.1514  0.2828 -0.4418
43053W        W85991  29.497  11.113   3.307 -0.2344  0.4423 -0.3157
43054W        W85992  30.772   7.962   8.392 -0.0949  0.0271 -0.3542
43055W        W85993  30.462   6.398   5.622 -0.0728 -0.1927 -0.1503
43056W        W85994  30.095   8.057   6.702  0.1699  0.3497 -0.0897
43057W        W85995  32.894   8.623   8.251  0.1347 -0.0680 -0.0367
43058W        W85996  32.854   9.744   4.263  0.0944  0.3341  0.0961
43059W        W85997  31.744   8.752   5.838 -0.0393 -0.1508 -0.1348
43060W        W85998  30.649   9.506   3.016  0.4097 -0.0265  0.0135
43061W        W85999  31.885   7.499   8.064  0.0247  0.0406 -0.0174
43062W        W86000  30.647  11.003   7.807 -0.1088 -0.0698  0.1444
43063W        W86001  28.992  11.320   6.295  0.1404  0.2696 -0.0657
43064W        W86002  32.209  10.300   6.873  0.0872  0.1261  0.2139
43065W        W86003  31.848   9.282   5.244  0.1726  0.0566  0.3533
43066W        W86004  31.837   8.592   8.421 -0.2965 -0.0802 -0.0956
43067W        W86005  30.494   8.643   7.180  0.0781 -0.0962 -0.1070
43068W        W86006  30.195   9.709   4.378 -0.0611 -0.0971  0.0727
43069W        W86007  30.002   9.427   3.986 -0.0943 -0.1599 -0.0470
43070W        W86008  29.601   9.820   5.884 -0.0514 -0.1111 -0.0883
43071W        W86009  32.384   9.404   7.324 -0.2431 -0.1302 -0.1078
43072W        W86010  29.650   9.248   4.551  0.2802 -0.1825 -0.1459
43073W        W86011  30.745  10.350   6.952 -0.0265 -0.2357  0.0603
43074W        W86012  29.534  10.676   4.579  0.1646  0.0494 -0.2670
43075W        W86013  32.534   7.312   6.918 -0.2937 -0.1228 -0.3591
43076W        W86014  30.164  10.113   5.448  0.0788  0.0445 -0.0710
43077W        W86015  29.633   9.052   3.944  0.1635  0.1212  0.1751
43078W        W86016  28.766   8.250   2.587 -0.0221  0.0877  0.1716
43079W        W86017  30.852   6.415   7.378 -0.0953 -0.1820 -0.1410
43080W        W86018  32.907   9.779   6.617  0.1546  0.0014  0.1003
43081W        W86019  29.226   8.104   7.169 -0.0027 -0.3872 -0.0743
43082W        W86020  30.653   7.537   5.353 -0.0847  0.2414  0.1143
43083W        W86021  31.829   9.326   7.252 -0.1175  0.1600  0.2169
43084W        W86022  30.931   8.341   3.911  0.0960  0.2787  0.1752
43085W        W86023  31.608  10.716   7.705 -0.1185  0.1438  0.0098
43086W        W86024  30.246  10.807   7.648  0.3002 -0.1215  0.0182
43087W        W86025  29.370   8.446   5.235  0.1747  0.3491 -0.0626
43088W        W86026  32.550   9.018   8.177  0.4434 -0.3234 -0.2407
43089W        W86027  31.185   8.187   5.199  0.1546  0.2741 -0.1452
43090W        W86028  29.207  11.932   5.090  0.0413 -0.2210  0.1841
43091W        W86029  32.423  10.792   5.829  0.0489 -0.1758 -0.1704
43092W        W86030  29.146   8.654   3.899  0.0320  0.1673  0.1039
43093W        W86031  28.637   8.382   4.444 -0.1125 -0.0226 -0.2212
43094W        W86032  29.391   9.724   8.218 -0.1281 -0.4279 -0.0235
43095W        W86033  31.848   9.363   7.906 -0.2008 -0.0762 -0.1057
43096W        W86034  30.875   9.068   6.219  0.2196  0.1072 -0.2467
43097W        W86035  29.949   6.866   5.155  0.0319 -0.1525  0.1507
43098W        W86036  31.225   8.866   7.192 -0.0297 -0.0651  0.1125
43099W        W86037  31.173   9.617   6.517 -0.0831 -0.2546 -0.1346
43100W        W86038  29.418   6.504   6.589  0.2622  0.1607  0.1410
43101W        W86039  29.225  10.767   8.442 -0.2099 -0.3153 -0.0502
43102W        W86040  31.236   7.043   6.085 -0.1677  0.0426  0.1901
43103W        W86041  31.841  10.561   3.624 -0.1893 -0.1474  0.0815
43104W        W86042  31.473  10.245   7.871 -0.0882 -0.6006 -0.0923
43105W        W86043  30.542  10.532   5.563 -0.0969  0.1861  0.1354
43106W        W86044  28.653   8.813   7.916 -0.3612  0.2068  0.1523
43107W        W86045  30.183   9.643   5.226 -0.2013 -0.0666 -0.1184
43108W        W86046  31.149   6.620   5.810 -0.0152  0.2237 -0.0835
43109W        W86047  30.953  10.880   6.948 -0.3074 -0.2807 -0.2846
43110W        W86048  29.240  10.297   4.391 -0.2012 -0.2408  0.1804
43111W        W86049  29.225  10.323   6.526  0.0254 -0.2559  0.0605
43112W        W86050  31.958   6.686   6.445  0.4275  0.0082  0.0645
43113W        W86051  32.252   9.673   3.483  0.1744 -0.0996 -0.0659
43114W        W86052  31.156   9.465   6.012  0.1161  0.1785  0.0090
43115W        W86053  31.346   7.938   6.985 -0.1037  0.1097  0.0056
43116W        W86054  31.530   9.077   3.742  0.0976  0.0779 -0.0349
43117W        W86055  31.856   7.943   9.107  0.0508 -0.0471 -0.0546
43118W        W86056  29.521   8.845   8.633 -0.1030 -0.0709 -0.0369
43119W        W86057  31.512   9.762   5.490  0.0593 -0.1929  0.0096
43120W        W86058  28.860   9.006   7.459  0.0092  0.1481  0.1132
43121W        W86059  32.026  10.233   8.829 -0.0086  0.0362 -0.0869
43122W        W86060  30.073   9.872   7.508  0.3400 -0.0699  0.3590
43123W        W86061  30.256   7.724   6.085 -0.4385  0.0218  0.1405
43124W        W86062  30.097   6.969   3.864  0.1011 -0.2427  0.0589
43125W        W86063  29.704  10.429   6.712 -0.1914  0.0355  0.1375
43126W        W86064  31.924   7.947   6.167  0.0795  0.1473  0.1054
43127W        W86065  31.542   9.080   4.871  0.0417  0.1082 -0.2472
43128W        W86066  32.539   8.839   5.353 -0.0215 -0.0647  0.0541
43129W        W86067  29.155   8.810   7.815  0.0724  0.0533  0.1224
43130W        W86068  31.479   8.590   4.875 -0.0698  0.2412 -0.2337
43131W        W86069  31.149   8.838   3.932 -0.1603  0.0979  0.0147
43132W        W86070  30.549  10.113   5.791  0.2563  0.0018 -0.2969
43133W        W86071  29.720   7.631   7.689 -0.0186 -0.1069  0.1171
43134W        W86072  31.723   8.504   5.324 -0.5095 -0.1231  0.0353
43135W        W86073  30.504   7.305   6.261  0.0535 -0.1041  0.2332
43136W        W86074  32.721   7.354   8.053  0.0725  0.1202 -0.3023
43137W        W86075  30.912   7.842   6.861 -0.3081  0.4337 -0.1465
43138W        W86076  31.289   8.810   8.075 -0.0651  0.1281  0.2991
43139W        W86077  29.203   7.757   7.732 -0.1672 -0.1456 -0.1842
43140W        W86078  32.270  11.484   7.264  0.0829 -0.2105 -0.2641
43141W        W86079  32.845   6.977   5.609  0.1358 -0.1106  0.0983
43142W        W86080  31.589   8.932   6.716  0.0683  0.2284  0.0999
43143W        W86081  31.025   8.651   5.147 -0.0994 -0.0531 -0.0894
43144W        W86082  31.485   8.978   4.291  0.0980  0.0475  0.1158
43145W        W86083  29.761   8.514   5.541 -0.2127  0.0444  0.0107
43146W        W86084  32.527   8.835   7.750 -0.1115  0.1800 -0.0547
43147W        W86085  31.212   8.620   3.142  0.0843 -0.0097  0.1266
43148W        W86086  33.024   7.884   8.848 -0.1868 -0.0572 -0.1327
43149W        W86087  30.952  10.462   3.972 -0.2177  0.1569 -0.1117
43150W        W86088  31.280  10.313   7.108 -0.0144  0.1516  0.2843
43151W        W86089  31.834   7.933   4.703 -0.1667  0.1328 -0.3314
43152W        W86090  30.033   8.126   5.876 -0.0389  0.0224  0.1899
43153W        W86091  30.511  10.612   8.079 -0.1069  0.1364  0.0840
43154W        W86092  30.444   9.600   4.814 -0.0144  0.0481 -0.1662
43155W        W86093  31.119   9.458   4.743 -0.1433  0.2466 -0.1216
43156W        W86094  31.681   9.142   6.258 -0.0055  0.3392  0.3836
43157W        W86095  32.396  11.052   7.273 -0.1429 -0.0275 -0.0483
43158W        W86096  31.716   7.625   3.680 -0.3271 -0.0221  0.0961
43159W        W86097  33.086   9.159   8.485  0.2256 -0.1613 -0.1081
43160W        W86098  30.594  12.736   5.746 -0.2220 -0.0023  0.1235
43161W        W86099  30.736   7.862   6.138 -0.0681 -0.2278 -0.0320
43162W        W86100  29.499  11.594   6.878 -0.0271  0.0083 -0.1217
43163W        W86101  29.755   9.517   6.796  0.1036 -0.3150  0.3738
43164W        W86102  31.011   9.867   6.989 -0.1131 -0.2001 -0.0323
43165W        W86103  30.874   6.870   6.348 -0.1665 -0.0112  0.0366
43166W        W86104  30.979   8.373   6.024 -0.1634 -0.1242 -0.1217
43167W        W86105  30.519   9.875   7.163 -0.1361 -0.2208 -0.2919
43168W        W86106  32.691   7.682   8.528  0.1660 -0.0468 -0.1185
43169W        W86107  31.087  10.802   7.647 -0.1540  0.0325 -0.2174
43170W        W86108  30.673   9.996   6.646 -0.2317  0.0861  0.0585
43171W        W86109  32.003  10.967   8.091  0.0507  0.3073 -0.3622
43172W        W86110  32.390   9.571   5.967 -0.3231 -0.1083 -0.1727
43173W        W86111  31.258   9.964   7.464 -0.1867 -0.0261  0.1399
43174W        W86112  28.162   8.678   8.770 -0.3332 -0.1249  0.0289
43175W        W86113  30.984   9.534   7.411  0.0130 -0.1768  0.0040
43176W        W86114  31.578   9.614   4.945  0.2590 -0.0519  0.1385
43177W        W86115  30.347   7.111   5.164  0.0407  0.0583 -0.1675
43178W        W86116  31.346  10.399   4.901  0.2205 -0.2189  0.1475
43179W        W86117  29.667  10.564   7.940 -0.1153  0.0419  0.3762
43180W        W86118  28.662   9.686   6.968 -0.0714  0.1490 -0.4047
43181W        W86119  29.899  11.412   5.132 -0.2256  0.1657 -0.1265
43182W        W86120  31.818   9.979   4.525 -0.1297  0.0620  0.1934
43183W        W86121  30.634  11.603   3.887  0.0588  0.2504 -0.0091
43184W        W86122  31.207  12.184   6.566 -0.0551 -0.1360 -0.4724
43185W        W86123  30.540   9.345   5.423  0.0130  0.1722 -0.0176
43186W        W86124  30.964  10.436   6.018 -0.0976  0.1412 -0.1536
43187W        W86125  28.749  11.984   4.855 -0.2918  0.0674 -0.2969
43188W        W86126  30.971  10.804   3.562  0.2063 -0.1896 -0.0854
43189W        W86127  30.095  11.421   5.636 -0.0542 -0.1562  0.0694
43190W        W86128  32.684   8.965   8.705  0.2119 -0.1762 -0.1157
43191W        W86129  31.889   7.831   4.156  0.1822  0.1081 -0.0477
43192W        W86130  31.275  10.066   5.929 -0.0779 -0.1824  0.1994
43193W        W86131  30.597   8.875   4.230 -0.0810 -0.0124  0.1595
43194W        W86132  32.569   8.291   8.347  0.2266  0.0357  0.2673
43195W        W86133  30.228   9.104   5.848 -0.1310  0.0833  0.0240
43196W        W86134  32.208   6.977   3.853  0.2304 -0.1046  0.1321
43197W        W86135  31.376   9.375   7.098 -0.2383  0.1341  0.1937
43198W        W86136  30.413   7.593   7.579  0.0102  0.2298  0.2417
43199W        W86137  27.914  11.758   7.114  0.1195  0.2960  0.0266
43200W        W86138  32.642   9.825   5.129  0.2811 -0.1745 -0.0944
43201W        W86139  28.913   8.761   6.531 -0.1323 -0.3271 -0.0937
43202W        W86140  31.525   9.261   5.743 -0.3580  0.0026  0.1961
43203W        W86141  32.291   7.694   6.539 -0.0911 -0.1250 -0.0200
43204W        W86142  30.859   9.576   5.144 -0.2029  0.1773  0.1644
43205W        W86143  31.090   8.168   6.527 -0.1348  0.0370  0.0442
43206W        W86144  29.368  10.279   4.954 -0.0985  0.1354 -0.1326
43207W        W86145  29.764   9.221   5.756 -0.1468  0.4003  0.2483
43208W        W86146  30.249  10.561   6.888 -0.2098  0.1134  0.1126
43209W        W86147  29.202   6.826   5.622  0.1256  0.3710 -0.0485
43210W        W86148  34.088   7.751   5.430 -0.0390  0.2057 -0.4506
43211W        W86149  30.968  10.339   7.495 -0.2458  0.2992 -0.0365
43212W        W86150  32.468   7.844   8.114  0.1149  0.0071  0.1763
43213W        W86151  30.377   8.772   4.642  0.1801  0.1480  0.0324
43214W        W86152  31.241   8.845   6.003 -0.1039  0.2110 -0.0453
43215W        W86153  31.090   9.096   6.711  0.1401 -0.1088  0.3336
43216W        W86154  29.700   8.045   7.378  0.1957  0.0613  0.0744
43217W        W86155  31.198   7.466   2.727 -0.0468 -0.1388 -0.1723
43218W        W86156  31.666   9.519   6.608 -0.0411 -0.0903 -0.0404
43219W        W86157  31.338   8.477   4.286  0.0713  0.0856  0.1623
43220W        W86158  32.924  10.243   8.323  0.2347  0.0571 -0.1166
43221W        W86159  29.843   7.331   4.975  0.2161 -0.0563 -0.1364
43222W        W86160  30.186   7.102   3.219  0.1328  0.0634 -0.2102
43223W        W86161  30.381   9.841   6.196 -0.0896  0.2318  0.1187
43224W        W86162  29.855  11.121   7.468 -0.1058  0.1059  0.1895
43225W        W86163  32.953  10.813   8.360  0.0669  0.0701  0.1167
43226W        W86164  28.454   9.369   5.726  0.2905 -0.2498  0.1056
43227W        W86165  32.118   9.996   6.071 -0.1311 -0.0526 -0.4266
43228W        W86166  33.040   9.790   7.150  0.2215  0.1046  0.0275
43229W        W86167  30.209  11.582   4.769  0.1736 -0.1666 -0.0563
43230W        W86168  31.759  10.123   5.812  0.0576 -0.1538  0.0328
43231W        W86169  32.237  10.978   4.867  0.0507 -0.3429 -0.0121
43232W        W86170  29.766   8.777   5.955 -0.0011  0.0383  0.1191
43233W        W86171  32.363  10.454   5.454  0.1747  0.1350  0.0022
43234W        W86172  32.532   9.996   7.349 -0.1153  0.0301  0.1603
43235W        W86173  31.099   7.726   5.267 -0.3402  0.0299  0.0821
43236W        W86174  31.036   8.590   7.604  0.4765  0.0301 -0.3449
43237W        W86175  30.074  10.554   5.737  0.0917 -0.2869  0.2131
43238W        W86176  31.700   8.107   8.252  0.1678  0.2269  0.0460
43239W        W86177  29.960   7.678   7.221  0.4251 -0.0261  0.0042
43240W        W86178  30.186  10.062   4.782 -0.1248 -0.0708  0.1521
43241W        W86179  31.534   6.813   9.440 -0.0237  0.2366 -0.3661
43242W        W86180  31.656  11.381   7.981 -0.0262 -0.3032 -0.1431
43243W        W86181  29.947  12.014   7.499 -0.0949 -0.2304  0.1825
43244W        W86182  29.620   8.481   4.778  0.0540  0.1582  0.4686
43245W        W86183  30.116  10.146   6.610  0.1457 -0.2056 -0.2095
43246W        W86184  29.888   9.604   4.759  0.0321  0.0894  0.2998
43247W        W86185  30.658  10.823   5.151  0.1338 -0.1040  0.0985
43248W        W86186  32.391   8.864   7.181  0.1240  0.3320  0.3137
43249W        W86187  31.879   8.218   5.731  0.0782  0.1354 -0.3608
43250W        W86188  32.108   9.567   4.901  0.2490  0.1252  0.2602
43251W        W86189  30.823   9.083   5.110  0.1360  0.1302 -0.0833
43252W        W86190  33.248   7.742   5.593  0.2735 -0.0682  0.1033
43253W        W86191  31.980   8.615   6.268  0.0233 -0.2837  0.3212
43254W        W86192  29.374  10.411   7.571  0.1394  0.0401 -0.3539
43255W        W86193  30.452   9.475   3.524  0.0440 -0.4667  0.1588
43256W        W86194  29.237   9.472   4.290 -0.1482  0.1398 -0.4126
43257W        W86195  30.034   8.959   5.405  0.0585  0.0184 -0.1567
43258W        W86196  30.552   7.989   7.935  0.0648 -0.1966  0.0036
43259W        W86197  31.523   8.936   7.653  0.1871 -0.2230 -0.2480
43260W        W86198  29.334   9.145   7.317  0.0552 -0.0631  0.0188
43261W        W86199  30.289   7.789   4.420  0.3922 -0.1032  0.1936
43262W        W86200  32.300  10.041   4.785 -0.3222 -0.0110  0.1478
43263W        W86201  29.925   6.551   7.528  0.0091 -0.0166 -0.0646
43264W        W86202  29.498   8.367   6.060 -0.1315 -0.1297  0.0833
43265W        W86203  32.502   8.541   6.322 -0.1019 -0.0603  0.0599
43266W        W86204  31.516   9.575   3.793 -0.2341 -0.1994 -0.2914
43267W        W86205  30.672   8.012   5.169  0.1033  0.2914  0.1903
43268W        W86206  32.605  10.473   8.591 -0.1681 -0.2784  0.0737
43269W        W86207  29.791   9.173   2.792  0.1684 -0.1121  0.1068
43270W        W86208  32.125   9.996   9.314  0.0420 -0.4907 -0.2227
43271W        W86209  30.377   8.359   8.622 -0.1552  0.1996  0.2262
43272W        W86210  29.260   8.225   3.110  0.1728  0.0372 -0.3412
43273W        W86211  30.702   9.506   6.743  0.2386 -0.0898  0.0891
43274W        W86212  31.471  10.547   5.841 -0.0802  0.0763 -0.3804
43275W        W86213  33.525  11.228   3.936 -0.2321 -0.0592 -0.0688
43276W        W86214  30.195   9.647   6.654 -0.1290 -0.1592  0.0682
43277W        W86215  31.343  10.681   8.590  0.2487  0.2915 -0.1180
43278W        W86216  29.986   7.510   6.518  0.0654  0.3828 -0.0251
43279W        W86217  30.575   9.942   5.280 -0.1578  0.4451 -0.2028
43280W        W86218  29.927  11.313   6.839  0.3310 -0.1104 -0.1489
43281W        W86219  32.380   9.381   5.357  0.0678  0.0517 -0.0271
43282W        W86220  33.229   7.993   6.611  0.3445  0.4015  0.1072
43283W        W86221  31.038   9.205   4.300 -0.0308 -0.2801  0.0597
43284W        W86222  30.323   8.584   6.686  0.1438  0.1012  0.1374
43285W        W86223  30.053  10.564   6.318 -0.0092  0.2258  0.0640
43286W        W86224  32.735   9.931   6.086  0.1042  0.0611  0.0106
43287W        W86225  30.672   7.441   4.305 -0.2232 -0.1273 -0.3746
43288W        W86226  31.464   8.053   5.558  0.1759 -0.0538 -0.0225
43289W        W86227  32.296  10.764   4.423  0.3369  0.0814 -0.3416
43290W        W86228  30.483   7.967   5.695 -0.2553 -0.2126 -0.0478
43291W        W86229  32.676   7.522   3.182  0.4456 -0.1039 -0.0153
43292W        W86230  30.784   8.220   7.370 -0.1943 -0.1079 -0.1278
43293W        W86231  31.837  10.625   5.142  0.0979  0.0112 -0.1159
43294W        W86232  31.687  10.316   7.381 -0.0007  0.1897 -0.1057
43295W        W86233  30.925  10.417   4.493  0.0687 -0.1848  0.1184
43296W        W86234  32.544   9.080   4.869 -0.2807  0.0906  0.0942
43297W        W86235  32.037  11.720   8.319  0.0667 -0.1601  0.0004
43298W        W86236  33.014   9.923   8.919 -0.0814 -0.0029 -0.0020
43299W        W86237  30.345  11.106   7.136 -0.1551  0.3661 -0.2384
43300W        W86238  31.992  10.730   7.197  0.1125 -0.3500  0.0438
43301W        W86239  27.984   7.091   6.136 -0.1284  0.0830  0.1748
43302W        W86240  30.678   9.188   4.635  0.0492  0.0248  0.0177
43303W        W86241  31.007  10.214   5.482 -0.3270 -0.1541 -0.0646
43304W        W86242  31.378   9.487   7.694 -0.1365  0.0602  0.4686
43305W        W86243  29.474   8.078   5.582  0.1231 -0.0888 -0.0276
43306W        W86244  31.846   7.693   5.651 -0.3148  0.1556 -0.1140
43307W        W86245  30.278  11.658   7.149 -0.0046 -0.1802 -0.2396
43308W        W86246  30.896   8.613   6.905  0.0316 -0.2418  0.1240
43309W        W86247  27.803  10.320   9.730  0.2401  0.2386  0.0565
43310W        W86248  30.892   9.084   8.235  0.0149 -0.1936  0.4054
43311W        W86249  32.351   7.674   9.421 -0.0159  0.0503 -0.0452
43312W        W86250  32.682   8.844   9.666 -0.3558  0.1465 -0.1245
43313W        W86251  30.550   9.075   9.159 -0.2523 -0.0361  0.2426
43314W        W86252  31.799  11.446   8.687  0.1392 -0.1231 -0.1547
43315W        W86253  32.640  11.963  10.956  0.1299 -0.0974  0.3361
43316W        W86254  32.358  11.410  11.144  0.0237 -0.0871 -0.1299
43317W        W86255  29.859  10.631   7.394 -0.1400  0.2216 -0.1780
43318W        W86256  30.585   8.545   9.054 -0.1311  0.2696  0.1716
43319W        W86257  30.805   7.317   9.217  0.1956  0.2570  0.0296
43320W        W86258  28.029   8.327   9.180  0.1075  0.1287 -0.4591
43321W        W86259  33.080   9.621  11.263 -0.0441  0.2007  0.0062
43322W        W86260  28.138   8.594   9.681  0.1846 -0.1456  0.0469
43323W        W86261  28.944   7.932   9.639  0.3083  0.1422  0.1288
43324W        W86262  31.111   8.402   9.097 -0.2418  0.1670  0.1072
43325W        W86263  31.356   9.693   9.663  0.2338  0.1043 -0.0081
43326W        W86264  29.315   8.293   9.615  0.4103  0.0446 -0.1621
43327W        W86265  31.665  10.542   8.956  0.1151  0.3002 -0.0169
43328W        W86266  29.873   7.195   6.907  0.1555  0.0496 -0.2119
43329W        W86267  28.998   8.151   8.679  0.1767  0.0350  0.1886
43330W        W86268  27.452   9.030  10.259 -0.0465  0.1208 -0.1252
43331W        W86269  32.570   9.860  10.789 -0.3006 -0.2400 -0.0146
43332W        W86270  30.628   7.256  10.070  0.2574 -0.1097 -0.0109
43333W        W86271  30.973  10.191   9.674  0.0970  0.1147 -0.2540
43334W        W86272  31.139  10.931  10.391 -0.2601 -0.6059  0.2592
43335W        W86273  29.201   9.974  10.159 -0.1182 -0.1845  0.0444
43336W        W86274  30.412  11.575   8.231  0.0252  0.0806 -0.1513
43337W        W86275  28.228   9.670  10.037 -0.0706  0.2424 -0.1603
43338W        W86276  32.048   9.505  10.005 -0.0774 -0.2733 -0.1857
43339W        W86277  28.744  11.371   9.054 -0.0166 -0.0129 -0.0061
43340W        W86278  31.559   8.875   9.978  0.2172 -0.0556 -0.2328
43341W        W86279  31.473   8.258   9.942 -0.0649 -0.2135 -0.1761
43342W        W86280  29.496  11.584   8.076  0.1880 -0.3677 -0.2091
43343W        W86281  30.238   7.739  10.359 -0.1261 -0.1913 -0.0527
43344W        W86282  28.885  12.046   9.813 -0.1327 -0.0173 -0.3763
43345W        W86283  29.355  10.912   7.839  0.1778  0.0847  0.1313
43346W        W86284  30.749  10.091   8.327  0.4387 -0.0501  0.0499
43347W        W86285  31.528   8.499   7.430  0.0789 -0.2762 -0.0393
43348W        W86286  31.768   9.067   8.693 -0.1695  0.0618  0.1746
43349W        W86287  31.193   6.939   9.034 -0.3500  0.0277 -0.1786
43350W        W86288  29.876  10.679   9.739  0.0039 -0.1047  0.1009
43351W        W86289  31.429   8.707  10.527  0.1882 -0.1425  0.0913
43352W        W86290  30.089   8.611   9.080  0.0839  0.3190  0.0942
43353W        W86291  30.368   7.731   9.235  0.1984  0.2312  0.0666
43354W        W86292  30.903   8.807   9.547 -0.2411  0.1764 -0.1325
43355W        W86293  29.189   9.439   9.609 -0.2310  0.5165 -0.2077
43356W        W86294  32.256   9.122   8.973 -0.0219  0.1085 -0.0626
43357W        W86295  32.684   9.489   8.734  0.0169  0.0824 -0.1983
43358W        W86296  31.856  10.384   8.268  0.1485  0.2588  0.1188
43359W        W86297  29.544  10.172   9.895  0.0652  0.2803 -0.4115
43360W        W86298  30.435   8.395   7.634 -0.2355 -0.1137  0.0300
43361W        W86299  31.558   8.972  11.175  0.0181 -0.2285 -0.0992
43362W        W86300  31.500   8.775   8.980  0.2898  0.1621 -0.1248
43363W        W86301  30.679  10.883  10.743  0.0372 -0.2860  0.5695
43364W        W86302  32.424   9.858   9.671  0.4795 -0.0056 -0.2366
43365W        W86303  32.090   8.122  10.109  0.0311  0.3985  0.2707
43366W        W86304  31.578   7.572  10.314  0.2254  0.0016 -0.1077
43367W        W86305  32.216   9.703   8.901 -0.2794 -0.2874 -0.1159
43368W        W86306  30.731   9.686   8.753  0.0545 -0.1381 -0.0855
43369W        W86307  32.818  10.943  11.042  0.0881 -0.1062  0.1028
43370W        W86308  32.492   9.539   8.232 -0.1221 -0.2778 -0.1193
43371W        W86309  30.351  11.007   9.933  0.0981 -0.1178  0.0687
43372W        W86310  29.721  10.698   8.510  0.1488  0.2178 -0.0906
43373W        W86311  29.812   9.628   9.917  0.2167 -0.0160  0.0133
43374W        W86312  29.409   9.927   8.841  0.2920 -0.2778 -0.0063
43375W        W86313  29.583   6.113   9.053 -0.0510 -0.0794  0.1476
43376W        W86314  30.704   8.412  10.040  0.2995  0.3004 -0.0870
43377W        W86315  31.190   7.900   8.902 -0.3589  0.1649  0.0544
43378W        W86316  33.181   6.290   9.732  0.0256  0.1316  0.2788
43379W        W86317  29.029   9.006   8.875 -0.1239 -0.1122  0.1134
43380W        W86318  32.601  10.633   9.141  0.4392  0.0178 -0.1733
43381W        W86319  32.494   8.662   9.166 -0.4010 -0.0673  0.2601
43382W        W86320  32.496   9.391   9.764  0.0758  0.1000 -0.0427
43383W        W86321  29.200   6.615   7.467 -0.1995  0.2821 -0.0964
43384W        W86322  28.727   8.378   9.547  0.0228  0.1382  0.2313
43385W        W86323  29.955   6.994  10.000 -0.1491 -0.0801 -0.0734
43386W        W86324  30.654   8.276   9.524 -0.0823  0.1639  0.1283
43387W        W86325  31.829   6.706   9.048 -0.0501  0.0424  0.1578
43388W        W86326  30.301   8.871   8.737  0.1850  0.1802 -0.0103
43389W        W86327  29.314  10.560  10.116  0.1151  0.1154  0.0614
43390W        W86328  32.168  11.078   8.953 -0.1563 -0.0505 -0.2812
43391W        W86329  32.520  10.473  11.855 -0.1919  0.1805 -0.0853
43392W        W86330  29.984  11.848  10.282 -0.1407  0.1650 -0.3425
43393W        W86331  30.099   8.478   9.953  0.1670 -0.0319 -0.1528
43394W        W86332  30.126   7.995   8.910  0.1386 -0.1598 -0.0759
43395W        W86333  30.142   9.885  10.807 -0.0893  0.1439 -0.1481
43396W        W86334  31.123  11.023  10.928  0.1829  0.2779 -0.0569
43397W        W86335  29.637   8.338   8.595 -0.1366  0.3670  0.1851
43398W        W86336  32.845  10.135   9.405  0.1410  0.2502  0.1567
43399W        W86337  30.131  10.349   7.813 -0.0577  0.1148  0.1596
43400W        W86338  30.680  11.423  11.681 -0.0190 -0.3093 -0.0508
43401W        W86339  30.904   7.872   9.290 -0.0256  0.3537 -0.3543
43402W        W86340  29.562   7.178   8.662 -0.1308  0.0915  0.1726
43403W        W86341  32.035  11.546  10.009 -0.3049 -0.0164 -0.0356
43404W        W86342  30.534  11.078   8.341  0.0686  0.2005 -0.0976
43405W        W86343  30.017  10.136   9.851 -0.3173  0.1232  0.1051
43406W        W86344  31.570   9.717  10.116 -0.0950 -0.1327  0.1122
43407W        W86345  31.744   9.233  10.799 -0.0854  0.2579  0.0166
43408W        W86346  29.481   9.886   9.373 -0.1123  0.0361  0.2092
43409W        W86347  30.852   8.503   8.651  0.0178 -0.1460 -0.0882
43410W        W86348  32.006   8.063   9.617  0.0506 -0.0038  0.2984
43411W        W86349  32.802  10.370  10.905  0.0959 -0.1487 -0.1336
43412W        W86350  32.096   8.113   8.660  0.0868  0.1238 -0.1088
43413W        W86351  31.182   8.189   8.467 -0.0400  0.3355 -0.1781
43414W        W86352  30.928   9.616   8.318  0.2100  0.2367 -0.4269
43415W        W86353  30.826  11.517  10.840  0.2913  0.1188  0.2576
43416W        W86354  31.042   9.492  10.901 -0.0905  0.0145  0.0953
43417W        W86355  33.066  10.608  10.097 -0.0722  0.0275  0.1978
43418W        W86356  26.723  10.121   9.809 -0.4934 -0.1904 -0.1946
43419W        W86357  30.741  10.534   9.320  0.2395 -0.1118  0.1365
43420W        W86358  30.721   4.816  10.368 -0.0704 -0.1440 -0.0226
43421W        W86359  30.807   9.140   7.185 -0.2686 -0.1897 -0.1393
43422W        W86360  31.700   8.424   9.287  0.0166  0.0903 -0.0186
43423W        W86361  28.809  12.262   8.695  0.2971 -0.1764  0.0785
43424W        W86362  32.812   8.507  10.995  0.2447 -0.0100  0.2492
43425W        W86363  30.506   7.494   8.762 -0.0766  0.0412  0.1754
43426W        W86364  31.043   9.121   7.720 -0.2970  0.3654 -0.0633
43427W        W86365  31.249   9.142  10.557 -0.0978  0.1695  0.0030
43428W        W86366  29.232  10.020   7.852 -0.0050  0.3981  0.1101
43429W        W86367  32.009   5.418   9.958 -0.2263  0.0816  0.1789
43430W        W86368  31.105  10.306  11.279 -0.2782  0.0684  0.1772
43431W        W86369  31.130   9.181   9.810  0.0286  0.0987  0.0402
43432W        W86370  29.621   8.083   7.946 -0.2022 -0.2086 -0.1660
43433W        W86371  31.214  10.770   9.292 -0.1501 -0.2490  0.0346
43434W        W86372  30.011   9.860   9.418 -0.2615 -0.0742  0.0650
43435W        W86373  29.538   7.364   9.690 -0.0600 -0.1973 -0.1282
43436W        W86374  28.636  14.230  10.080  0.1214  0.0322 -0.2014
43437W        W86375  30.276   9.797   8.980  0.2957  0.0880  0.2616
43438W        W86376  31.764  10.849  11.251 -0.3146 -0.0289  0.1153
43439W        W86377  29.832  10.752   9.013  0.0763  0.0560  0.1478
43440W        W86378  32.941   9.322  10.219  0.0756  0.0375  0.1861
43441W        W86379  30.255   9.075  10.539 -0.1338 -0.0532 -0.0407
43442W        W86380  31.241   9.114   8.561  0.0778  0.1042 -0.1547
43443W        W86381  29.211   7.615   8.246 -0.1952  0.0972 -0.0833
43444W        W86382  32.726   7.477  10.199 -0.2170  0.1849  0.2201
43445W        W86383  32.086   9.629  10.499  0.2814 -0.2148 -0.0509
43446W        W86384  32.430   6.915  10.782  0.0866 -0.2125 -0.2323
43447W        W86385  31.003   7.129   9.663 -0.0691 -0.0472 -0.0722
43448W        W86386  27.880  11.355   9.929  0.2381 -0.0539  0.0241
43449W        W86387  33.048   7.239   8.430 -0.1889 -0.2533  0.0659
43450W        W86388  28.247   8.835   7.463 -0.1977 -0.2713  0.2912
43451W        W86389  32.076  10.937  10.475 -0.0270  0.0761  0.0693
43452W        W86390  30.903   6.777   8.589  0.3812 -0.0718 -0.3147
43453W        W86391  30.202  10.715  10.897 -0.0293 -0.1479 -0.0056
43454W        W86392  31.292  10.791  11.325 -0.0581 -0.0242  0.0530
43455W        W86393  29.700  10.058   7.936  0.1194  0.0078 -0.2043
43456W        W86394  30.272  10.720   8.573 -0.0234  0.0396  0.3159
43457W        W86395  32.202  10.591  12.222  0.0881 -0.0018 -0.0621
43458W        W86396  29.927   7.483   8.857  0.0660 -0.0281 -0.0313
43459W        W86397  29.005   8.017   9.178  0.1452 -0.0656 -0.3034
43460W        W86398  31.476   7.164   7.912  0.1286  0.2882 -0.0505
43461W        W86399  31.522  10.471  10.977  0.2138  0.0147  0.1724
43462W        W86400  29.022   8.999   9.943  0.0762  0.3344 -0.1591
43463W        W86401  32.783  10.257  10.429  0.2294  0.1096 -0.3374
43464W        W86402  33.541  11.222   8.927  0.2376 -0.1681  0.1549
43465W        W86403  29.877   9.457  10.375  0.3395 -0.0278  0.1047
43466W        W86404  28.778   8.253  10.454  0.1668 -0.0899 -0.5983
43467W        W86405  29.360   9.436  10.116 -0.3899  0.0749 -0.2414
43468W        W86406  31.783  10.721   9.761  0.0058 -0.2885  0.2119
43469W        W86407  28.843   9.570  10.190  0.0290 -0.0608  0.0951
43470W        W86408  29.916  10.189   8.985 -0.1836  0.2870 -0.1295
43471W        W86409  25.690  11.838  10.353 -0.1987 -0.2171 -0.0381
43472W        W86410  31.042   7.399   8.690  0.4693  0.4895  0.1209
43473W        W86411  32.254  10.732   7.663  0.1746 -0.1538 -0.0976
43474W        W86412  31.529   8.252   8.843 -0.1585  0.0566 -0.1420
43475W        W86413  31.273   9.665   8.678 -0.0322  0.1024 -0.0837
43476W        W86414  31.083   6.107   9.587 -0.2204  0.0889 -0.3947
43477W        W86415  31.908   8.573  10.267 -0.2988 -0.0096  0.1946
43478W        W86416  31.360   8.332   7.926 -0.1019 -0.0578  0.0992
43479W        W86417  29.557   9.072   8.226 -0.3031 -0.3328  0.0927
43480W        W86418  30.332   8.702   9.479  0.0648  0.0689  0.1959
43481W        W86419  31.865   9.860   9.735 -0.1948 -0.0800  0.1266
43482W        W86420  31.464  10.068   8.371  0.0328 -0.2242  0.3002
43483W        W86421  30.395   8.418  10.412 -0.0913  0.0779 -0.1339
43484W        W86422  30.559  10.043  10.005  0.2276 -0.1127  0.2124
43485W        W86423  31.422   9.624  10.582  0.0300 -0.0146  0.0339
43486W        W86424  32.044   9.002   8.248  0.2719  0.1189 -0.1400
43487W        W86425  30.985   9.503  10.364 -0.1527  0.3103 -0.1647
43488W        W86426  32.453  10.670  10.623 -0.2704 -0.2191 -0.0964
43489W        W86427  31.588   6.567  10.586  0.0307 -0.4378  0.2727
43490W        W86428  33.297  11.976  12.183 -0.3245  0.0215 -0.1215
43491W        W86429  31.992   8.671   8.901 -0.1191  0.2889  0.0779
43492W        W86430  33.773   4.692   9.855  0.0448  0.0818  0.1156
43493W        W86431  32.197   7.777  10.476 -0.1575 -0.0664 -0.1110
43494W        W86432  32.585   8.934  10.672  0.3629  0.3857 -0.0034
43495W        W86433  29.881   6.918   8.952  0.0002 -0.0576 -0.1834
43496W        W86434  31.419   8.870   9.418 -0.0133 -0.1055 -0.2569
43497W        W86435  32.140  11.630   9.123  0.1036  0.3214  0.3106
43498W        W86436  31.661  11.732  10.753 -0.2504 -0.1986  0.3893
43499W        W86437  31.685   9.294   9.743 -0.1835 -0.0862 -0.0324
43500W        W86438  29.945   7.495  10.016 -0.1916  0.2341 -0.0864
43501W        W86439  28.455   9.672   8.568  0.2828  0.1057  0.0641
43502W        W86440  30.450  10.196   8.746 -0.1202 -0.2316  0.2580
43503W        W86441  30.358  10.498   9.792  0.2024 -0.2182  0.1670
43504W        W86442  30.694   6.419   9.241 -0.2624 -0.0039 -0.0937
43505W        W86443  29.979  10.264   8.322 -0.1309 -0.2327  0.2690
43506W        W86444  30.708   9.060  10.702  0.1834 -0.0343  0.0915
43507W        W86445  29.734  10.599  10.748  0.0119 -0.0457  0.0021
43508W        W86446  30.826  10.567   8.759 -0.1075 -0.4428  0.1732
43509W        W86447  31.033   8.047   9.810 -0.0238  0.0469 -0.0118
43510W        W86448  31.455   8.027   9.473  0.3419 -0.0337  0.0573
43511W        W86449  30.933  11.265  11.331 -0.1462  0.3325 -0.2428
43512W        W86450  30.640   9.200   9.702  0.3645 -0.5811 -0.0785
43513W        W86451  31.857  10.105  10.966  0.4624 -0.1168  0.0852
43514W        W86452  30.813  10.072   9.017  0.1036 -0.1898  0.2000
43515W        W86453  31.117  10.224   8.669  0.0963 -0.2633 -0.2624
43516W        W86454  30.040   8.630   7.852 -0.1874  0.1747  0.0282
43517W        W86455  30.608  11.468   9.044 -0.3518 -0.0375  0.1889
43518W        W86456  27.060  10.007  10.257 -0.0416 -0.0013  0.0412
43519W        W86457  30.989  10.855   8.253  0.2246  0.3271 -0.1174
43520W        W86458  31.356  10.521  10.486 -0.0841  0.0313 -0.0211
43521W        W86459  31.195   9.765   9.182 -0.3425  0.0406  0.3822
43522W        W86460  31.217  11.969  10.634 -0.0868 -0.1863 -0.0773
43523W        W86461  31.033   8.867   9.015  0.3120  0.0035 -0.0058
43524W        W86462  29.518   8.935   9.162 -0.1097  0.1053 -0.3809
43525W        W86463  29.692  10.194   7.244 -0.0822  0.2970  0.2314
43526W        W86464  31.629  10.252   9.409  0.3569  0.0305  0.1053
43527W        W86465  29.733  10.281   9.454  0.0573  0.2809  0.0060
43528W        W86466  31.771   8.018   7.274  0.1244 -0.3530  0.0447
43529W        W86467  30.953   8.376  10.523 -0.2047  0.0553  0.1323
43530W        W86468  33.079   8.086  10.680 -0.2916 -0.0177  0.0292
43531W        W86469  31.213   8.430   9.581 -0.0222  0.0135  0.0974
43532W        W86470  29.581   7.799   8.510 -0.1645 -0.0425  0.2097
43533W        W86471  33.842   9.520   9.734  0.1672 -0.0173 -0.3652
43534W        W86472  29.536   8.583   8.094  0.0854 -0.2158 -0.2935
43535W        W86473  30.445   9.577  10.457 -0.0362  0.2301 -0.0352
43536W        W86474  34.182   7.396  10.650  0.0639 -0.1622 -0.3095
43537W        W86475  30.519  10.028   7.687 -0.1663 -0.1211 -0.2548
43538W        W86476  31.763   7.070  10.409  0.0075 -0.2850  0.2446
43539W        W86477  30.813   9.054  10.194 -0.2664 -0.1321 -0.1191
43540W        W86478  31.642  10.097  10.528  0.0618 -0.0093  0.1812
43541W        W86479  30.792  10.067  10.497  0.2054  0.0983  0.3353
43542W        W86480  29.042   9.162   8.399 -0.0870  0.0470 -0.0719
43543W        W86481  32.067   9.009   9.951 -0.0019 -0.0047  0.0493
43544W        W86482  28.631   7.022   9.262 -0.0401 -0.0815 -0.1166
43545W        W86483  29.989   7.485   9.512 -0.2127  0.3710 -0.2040
43546W        W86484  32.777   8.113   9.261 -0.1944  0.2172 -0.2998
43547W        W86485  30.748   9.982  11.168  0.1238 -0.2331 -0.0712
43548W        W86486  29.300   9.013  10.543 -0.1590 -0.5257  0.1757
43549W        W86487  30.563   9.511   7.898 -0.2337  0.0783  0.0493
43550W        W86488  32.560   8.914  10.139 -0.0500  0.2233  0.1168
43551W        W86489  28.630   6.520   8.704 -0.1521 -0.4728  0.1324
43552W        W86490  30.323   7.862   8.464 -0.0349 -0.0545 -0.1638
43553W        W86491  30.079   9.135   9.758 -0.3317  0.2070  0.0540
43554W        W86492  29.422  11.480   9.562 -0.2580  0.2562 -0.3804
43555W        W86493  29.557   6.706  10.193 -0.2415  0.5330  0.0707
43556W        W86494  32.547   9.663   9.219  0.1365 -0.1028 -0.1542
43557W        W86495  33.110  10.048  10.796 -0.1705 -0.0494  0.0759
43558W        W86496  31.214  10.286   9.154  0.0191 -0.3085 -0.0106
43559W        W86497  31.141   9.271   9.311  0.4449  0.0414 -0.0100
43560W        W86498  32.017  10.106  10.157 -0.5754  0.1317 -0.1681
43561W        W86499  26.180   7.878  10.069  0.1204 -0.1217 -0.1354
43562W        W86500  29.363   8.089  10.475  0.0146 -0.1901 -0.1043
43563W        W86501  33.821  10.532  11.182  0.0999  0.1439  0.0417
43564W        W86502  30.214   7.540   7.990 -0.2531 -0.0269  0.0279
43565W        W86503  29.411   8.013   8.892 -0.3441  0.1737 -0.1390
43566W        W86504  29.080  11.326   8.665 -0.1261 -0.0375  0.0775
43567W        W86505  29.822   8.075  10.291 -0.0408 -0.4195 -0.0269
43568W        W86506  29.869  11.501   7.833  0.1777 -0.2771  0.0447
43569W        W86507  30.265  12.618   8.977 -0.0223  0.3393 -0.0144
43570W        W86508  29.142   8.304   7.610  0.0876  0.2308  0.1072
43571W        W86509  30.282  10.892   9.441  0.2045  0.0792 -0.1067
43572W        W86510  31.801  10.590  10.262  0.1470  0.0680  0.0299
43573W        W86511  31.674   9.265  10.284  0.4797 -0.3714 -0.1146
43574W        W86512  32.989   7.060  10.190  0.0022  0.2694  0.1586
43575W        W86513  32.151  11.049   9.938 -0.1903  0.2405 -0.0388
43576W        W86514  30.254   7.981   9.897  0.0646 -0.1901  0.3082
43577W        W86515  33.589   7.816  10.196 -0.0633  0.1938  0.0634
43578W        W86516  31.352   8.652   8.557  0.3820  0.2583 -0.0565
43579W        W86517  30.038   9.214   9.005 -0.1934  0.1115 -0.1123
43580W        W86518  30.413   8.786   8.236 -0.2095 -0.0358  0.0492
43581W        W86519  29.750   9.563   7.890  0.0144  0.1544 -0.0468
43582W        W86520  28.617   9.927   9.951  0.2653  0.2628 -0.0508
43583W        W86521  27.713  10.918  10.022 -0.0665  0.0303 -0.2505
43584W        W86522  30.030   8.188   8.246 -0.1120  0.0609  0.0180
43585W        W86523  32.867   9.714   9.898  0.1627  0.1362  0.3790
43586W        W86524  29.901   6.994   9.536 -0.4572  0.0974  0.4213
43587W        W86525  29.134   8.655   8.362  0.0075  0.0471 -0.1574
43588W        W86526  31.115   8.618  10.044 -0.2240 -0.0987 -0.0641
43589W        W86527  32.490  11.405   9.694  0.0779  0.2081  0.0033
43590W        W86528  30.644   8.023   8.880 -0.3710  0.0058 -0.0491
43591W        W86529  30.253  10.422   9.270 -0.0569  0.0186 -0.3818
43592W        W86530  29.653   6.793   7.068  0.0607 -0.0365  0.1517
43593W        W86531  29.751   8.124   9.764 -0.2030  0.2026 -0.3207
43594W        W86532  31.126   9.975  10.115  0.1678 -0.0213  0.1074
43595W        W86533  32.987  11.444   8.991 -0.0825 -0.0847  0.3622
43596W        W86534  26.617   7.802  12.188  0.0499  0.0899  0.0863
43597W        W86535  32.200   8.543   9.823 -0.0331 -0.1699 -0.0008
43598W        W86536  33.131  10.946   8.938  0.0282 -0.3498 -0.1117
43599W        W86537  32.546   8.049  10.835  0.0105  0.0254  0.0090
43600W        W86538  31.545  10.002   8.914  0.0909 -0.1384  0.0397
43601W        W86539  31.069  11.599  10.248  0.1056 -0.0248  0.0488
43602W        W86540  30.457   6.912   8.417  0.3587  0.2183 -0.1557
43603W        W86541  31.026   7.858   7.862  0.0308 -0.1427 -0.2334
43604W        W86542  32.024   9.901   8.320  0.1853 -0.0926  0.1221
43605W        W86543  29.476  11.004   9.819 -0.1449 -0.1001  0.3312
43606W        W86544  31.363   9.302   8.132 -0.3132  0.2334 -0.0733
43607W        W86545  31.536  10.241   9.978 -0.2763 -0.1407 -0.1100
43608W        W86546  30.234  10.277   7.283  0.1584 -0.3035 -0.5130
43609W        W86547  31.709   9.191   9.200  0.2857  0.3923  0.2198
43610W        W86548  31.781  12.576  11.491  0.0711 -0.0266 -0.0639
43611W        W86549  28.098  14.265  10.184  0.0245  0.0832  0.2729
43612W        W86550  32.328  10.874  11.038 -0.0592 -0.3731  0.1557
43613W        W86551  28.990   8.249  10.021  0.1401 -0.1378 -0.1287
43614W        W86552  30.728   9.205   8.687 -0.1180 -0.1781  0.0195
43615W        W86553  30.688   9.672   9.227  0.3186  0.2658 -0.1554
43616W        W86554  31.253  10.021  10.870  0.1288 -0.0995 -0.0527
43617W        W86555  30.815   7.548  10.458 -0.2121  0.3234 -0.0161
43618W        W86556  31.103   5.897   9.040  0.1883  0.2796 -0.0095
43619W        W86557  30.737   8.486  11.060  0.0935  0.0559 -0.0102
43620W        W86558  30.202  10.315  11.238 -0.2105  0.2896 -0.0162
43621W        W86559  30.107  13.825   2.718  0.2019  0.0186  0.2442
43622W        W86560  29.562  10.118   0.644  0.0750 -0.1517  0.2361
43623W        W86561  30.689  10.688   0.613 -0.1330  0.0155  0.2524
43624W        W86562  32.658  12.126   0.865 -0.0017  0.3506  0.0738
43625W        W86563  31.027  10.653   1.563 -0.0292 -0.2037  0.1156
43626W        W86564  31.953  14.254   0.882 -0.0866 -0.2700  0.1052
43627W        W86565  28.973   9.556   3.861  0.2139 -0.0975 -0.3679
43628W        W86566  32.839  14.297   1.182 -0.0914 -0.1282  0.1125
43629W        W86567  32.058  13.450   1.952  0.0077  0.1202  0.0820
43630W        W86568  30.766  10.211  31.667  0.1305 -0.2470  0.3025
43631W        W86569  30.079  12.863   3.235  0.1668  0.0512  0.0862
43632W        W86570  30.917  13.319   3.933  0.3440 -0.0307 -0.1652
43633W        W86571  31.602  10.770   1.715 -0.0610  0.2719 -0.0534
43634W        W86572  28.832  13.006   2.642 -0.2637  0.1387 -0.3378
43635W        W86573  32.201  12.506   4.776  0.1292  0.0783 -0.2431
43636W        W86574  30.787  12.559   0.881  0.0577  0.3002 -0.1033
43637W        W86575  29.285  11.100   2.412  0.0741 -0.2402 -0.1179
43638W        W86576  31.289  11.510   1.910  0.1224  0.0823 -0.0704
43639W        W86577  30.659  14.338   3.211 -0.1248  0.2217  0.2878
43640W        W86578  30.328  11.202   4.261  0.0001  0.1527 -0.2651
43641W        W86579  32.024  11.889   4.226 -0.1110 -0.3521  0.1522
43642W        W86580  32.773  14.487  31.523  0.0146 -0.5381 -0.3370
43643W        W86581  28.935  12.598   0.620  0.1018  0.0022  0.1015
43644W        W86582  29.913  11.610   0.532  0.1800 -0.1947  0.1511
43645W        W86583  28.514  12.904   2.989  0.2486  0.2799 -0.3236
43646W        W86584  32.384  12.418   3.791 -0.2743 -0.2833 -0.0820
43647W        W86585  31.193  12.069   1.865  0.2825  0.0270  0.2149
43648W        W86586  31.152  14.293   2.177 -0.1027  0.0731 -0.0989
43649W        W86587  32.384  14.607   1.863 -0.2746  0.0328 -0.0337
43650W        W86588  31.674  11.556   4.573 -0.1912  0.0739 -0.0244
43651W        W86589  29.666  13.136   1.571 -0.2907  0.0209  0.1932
43652W        W86590  29.114  14.642   0.382  0.1919  0.2323 -0.0602
43653W        W86591  31.570  15.131   1.547 -0.1079 -0.4628 -0.1358
43654W        W86592  33.005  14.268   0.674  0.1449 -0.1561 -0.1576
43655W        W86593  32.082  13.508   3.274 -0.1446  0.0713 -0.2311
43656W        W86594  30.805  14.835   3.287  0.1797  0.2322  0.1858
43657W        W86595  29.439  13.729   0.291 -0.2123 -0.0647 -0.1526
43658W        W86596  31.283  13.586   3.640  0.0131  0.1710 -0.0922
43659W        W86597  28.725  14.791   3.560 -0.0152  0.4156  0.1858
43660W        W86598  31.188  13.173   2.882 -0.0808 -0.3573 -0.0140
43661W        W86599  30.952  12.743   2.464  0.0330  0.1817 -0.1128
43662W        W86600  30.862  13.132   1.884 -0.2043 -0.0569  0.0667
43663W        W86601  31.631  12.869   1.750 -0.1330  0.0664 -0.0400
43664W        W86602  28.990  12.843   3.902 -0.0803 -0.1573 -0.1899
43665W        W86603  28.778  14.987   3.123 -0.2354 -0.0290  0.0365
43666W        W86604  32.137  10.288   4.223 -0.1020  0.0304 -0.4603
43667W        W86605  30.261  14.885   0.340 -0.0258  0.0772 -0.0684
43668W        W86606  31.565  11.396  31.978  0.2622 -0.1278  0.0477
43669W        W86607  30.612  12.110   1.049  0.0791  0.1771 -0.1481
43670W        W86608  31.204  11.890   0.480 -0.1512 -0.0658 -0.0455
43671W        W86609  30.231  11.081   1.377 -0.0359  0.0414 -0.3924
43672W        W86610  29.525  14.687   0.909 -0.4617 -0.0231  0.0598
43673W        W86611  30.253  12.334   1.916  0.2871  0.1260 -0.0262
43674W        W86612  32.522  12.794   2.925  0.0969 -0.4884 -0.1454
43675W        W86613  31.469  12.407   1.605  0.0450 -0.1774 -0.3902
43676W        W86614  31.661  11.801   1.806  0.0018 -0.0563 -0.3845
43677W        W86615  29.406  13.106   2.886  0.3366  0.0813  0.1194
43678W        W86616  29.998  11.837   1.565 -0.0185 -0.0537 -0.1960
43679W        W86617  32.786  13.337   0.241  0.0869 -0.2647  0.1957
43680W        W86618  32.328  15.170   1.095 -0.1084 -0.1425  0.2365
43681W        W86619  31.633  13.554  31.642  0.1560 -0.4512  0.1576
43682W        W86620  30.573  11.827   0.222  0.1427  0.0963 -0.2811
43683W        W86621  28.112  12.491   4.262 -0.0022  0.1051  0.2852
43684W        W86622  29.461  13.197   3.729  0.2643  0.2032 -0.0363
43685W        W86623  31.513   9.770   1.103 -0.1422 -0.0934  0.0243
43686W        W86624  32.919  12.974   4.962  0.3472  0.1556  0.1987
43687W        W86625  29.951  13.224   3.567 -0.3440 -0.0074  0.1028
43688W        W86626  33.805  11.628   1.907  0.0319 -0.2066  0.2760
43689W        W86627  30.635  13.088   2.895 -0.0126  0.2153 -0.1263
43690W        W86628  31.971  13.639   4.028  0.1802  0.3671 -0.3176
43691W        W86629  32.068  10.481   0.438  0.0069 -0.2538  0.1941
43692W        W86630  32.227  10.296   2.223  0.2053 -0.0364 -0.0094
43693W        W86631  31.905  11.497   2.349 -0.2423 -0.1885 -0.1271
43694W        W86632  30.433  13.032   0.169  0.1732 -0.0541  0.0686
43695W        W86633  30.730  12.199   0.597 -0.0041 -0.0461 -0.0371
43696W        W86634  32.319  13.076   2.358  0.1229 -0.0988  0.1394
43697W        W86635  31.436  12.243   0.139 -0.1173  0.0493 -0.1258
43698W        W86636  30.102  13.884   1.386  0.0741 -0.3691 -0.2795
43699W        W86637  31.319  12.415   2.612  0.3570  0.1693 -0.1492
43700W        W86638  30.769  14.009   4.345 -0.2177 -0.1928 -0.1697
43701W        W86639  29.803  17.004  31.215  0.2833 -0.1912  0.1932
43702W        W86640  29.218  12.799   2.506  0.1527  0.1820 -0.1318
43703W        W86641  28.109  15.016   0.468 -0.1453  0.1644 -0.0906
43704W        W86642  28.219  11.770   2.029 -0.2622 -0.1086  0.0991
43705W        W86643  31.429  13.578   3.134  0.1398  0.0999 -0.2000
43706W        W86644  32.704  10.551   3.084 -0.0691 -0.0562  0.0609
43707W        W86645  31.171  11.466   3.035 -0.3568 -0.2207 -0.1021
43708W        W86646  32.114  10.035   2.645  0.1015 -0.4089 -0.1992
43709W        W86647  30.687  13.894   1.333 -0.2191  0.2273 -0.1295
43710W        W86648  33.461  15.034   1.314  0.1865  0.1448 -0.0881
43711W        W86649  32.098  11.052   1.215  0.0374 -0.2558  0.0163
43712W        W86650  32.112  12.579   0.482  0.2565  0.4803  0.3558
43713W        W86651  30.062  12.797   2.182  0.1695  0.2382 -0.0103
43714W        W86652  30.515  12.051   1.616 -0.1467  0.1465  0.1754
43715W        W86653  29.042  11.005   3.528  0.1288  0.0025 -0.1782
43716W        W86654  29.092  12.702   3.017  0.0311  0.0443  0.0752
43717W        W86655  31.140  12.718   2.968 -0.2315  0.0909  0.1439
43718W        W86656  29.688  10.941   0.238 -0.1232 -0.1831  0.0786
43719W        W86657  31.830  12.488   1.971  0.1189  0.2294 -0.0594
43720W        W86658  31.335  13.759   1.389  0.4078 -0.0790 -0.0160
43721W        W86659  29.745  13.711   1.750 -0.2555  0.1873 -0.1079
43722W        W86660  32.569  11.900   3.497  0.0303  0.1880  0.2777
43723W        W86661  31.814  13.585   1.177  0.1592  0.0974  0.0947
43724W        W86662  31.568  13.877   2.622  0.0760  0.0918  0.0526
43725W        W86663  31.885  15.311   1.221 -0.0684 -0.0769 -0.0501
43726W        W86664  30.763  11.367   3.410 -0.0259  0.3277  0.0731
43727W        W86665  30.513  12.121  31.814 -0.0984 -0.0360 -0.0859
43728W        W86666  30.070  13.346   1.890 -0.1613 -0.1409  0.0149
43729W        W86667  30.736  12.990   1.319 -0.1632 -0.2761 -0.1002
43730W        W86668  30.323  10.869   0.258 -0.1555  0.1305 -0.3881
43731W        W86669  32.713  14.946   2.660 -0.1570  0.2116 -0.0281
43732W        W86670  30.514  12.568   1.296 -0.2240  0.1654 -0.1460
43733W        W86671  29.572  12.482   2.322  0.1865  0.0610 -0.0143
43734W        W86672  32.437  10.402   2.673 -0.0276  0.1800  0.0039
43735W        W86673  32.525  12.768   3.462 -0.1143  0.2012  0.1252
43736W        W86674  31.774  12.464   2.489  0.1626 -0.0779  0.3043
43737W        W86675  30.304  12.405   0.285  0.0602 -0.0149  0.2470
43738W        W86676  32.111  15.899   1.613  0.0856 -0.1093  0.1511
43739W        W86677  29.875  14.834   1.608 -0.0817  0.0760  0.1185
43740W        W86678  28.552  13.497   2.768  0.0057 -0.1570  0.2448
43741W        W86679  31.465  15.063   1.057  0.1779  0.2276  0.0188
43742W        W86680  31.331  11.102   2.738 -0.2123 -0.0786 -0.0329
43743W        W86681  30.877  12.342   4.811 -0.0205  0.1960 -0.0136
43744W        W86682  31.323  12.271   3.144  0.1084  0.0168  0.1496
43745W        W86683  31.425  11.394   0.571  0.0355 -0.0318  0.0074
43746W        W86684  29.718  14.361   4.054 -0.1738 -0.1066  0.3228
43747W        W86685  31.939   9.879   2.101 -0.0980  0.2327 -0.0629
43748W        W86686  31.238   9.568  31.910 -0.0119  0.1502  0.1808
43749W        W86687  32.139  13.037   3.693 -0.1263  0.1308  0.0870
43750W        W86688  31.200  12.478   0.583 -0.0807  0.1541  0.2478
43751W        W86689  31.326  11.791  31.361  0.3220 -0.1552  0.0469
43752W        W86690  31.143   9.447   0.415  0.2431  0.0780 -0.0599
43753W        W86691  28.699  12.597   3.378  0.2922  0.0628 -0.1387
43754W        W86692  32.433  14.075   1.373 -0.0248 -0.0487 -0.3448
43755W        W86693  31.447  13.092   3.262  0.0782  0.2994 -0.2925
43756W        W86694  30.832  10.979   0.260 -0.1182 -0.1276 -0.2684
43757W        W86695  32.151  15.120   1.954  0.2895 -0.3556  0.2492
43758W        W86696  29.644  13.794   3.072  0.1422 -0.0608 -0.0485
43759W        W86697  30.092  13.748   3.410 -0.2864  0.0919 -0.0588
43760W        W86698  32.275  13.563   1.362  0.0714  0.0718 -0.0710
43761W        W86699  30.758  11.748   3.039 -0.1144 -0.0066  0.1861
43762W        W86700  31.138  12.983   0.974 -0.0458 -0.1762  0.4794
43763W        W86701  30.819  11.621   2.564 -0.3574 -0.1340 -0.1221
43764W        W86702  29.185  15.159   1.291 -0.1007 -0.1183 -0.2552
43765W        W86703  32.576  11.051   3.031  0.0533 -0.1401  0.0250
43766W        W86704  31.500  12.094   4.468 -0.1444 -0.3154  0.1071
43767W        W86705  31.634  11.253   3.120 -0.0866 -0.2164  0.2156
43768W        W86706  31.551  12.237   4.009 -0.0044 -0.2189 -0.2850
43769W        W86707  32.198  12.052   0.553 -0.0051  0.0103  0.0230
43770W        W86708  32.125  11.914   3.282  0.2750 -0.3467 -0.0589
43771W        W86709  31.430  14.346   0.976 -0.2356 -0.1721  0.0125
43772W        W86710  29.938  10.960   4.013 -0.0143 -0.0986 -0.3037
43773W        W86711  30.421  13.027   2.412  0.0532 -0.1181 -0.0470
43774W        W86712  29.726  14.272   1.030 -0.3860 -0.0782 -0.0048
43775W        W86713  30.680  13.461   4.342  0.2178 -0.1492 -0.1549
43776W        W86714  31.856  11.246   1.858 -0.1379 -0.2479 -0.0750
43777W        W86715  30.141  12.112   3.983 -0.0202 -0.0870  0.2596
43778W        W86716  31.343  10.967   0.219  0.0707 -0.3984 -0.1092
43779W        W86717  31.936  13.657   0.012 -0.0918  0.1943  0.1742
43780W        W86718  31.550  12.780   0.722 -0.1905  0.1234  0.0179
43781W        W86719  31.418   9.907   2.162  0.0223  0.3281  0.0658
43782W        W86720  30.914  13.268   2.447  0.1175 -0.0987 -0.0908
43783W        W86721  31.653  13.222   0.018  0.2116  0.1812 -0.0732
43784W        W86722  30.301  11.248   3.657  0.0849 -0.2784  0.0206
43785W        W86723  30.078  14.233   0.705 -0.1821 -0.0813 -0.1493
43786W        W86724  31.591  11.596   2.754  0.1943  0.3147  0.5602
43787W        W86725  29.113  13.148   2.122 -0.0316 -0.0406 -0.1973
43788W        W86726  29.743  10.412   2.073  0.1584 -0.0864  0.0842
43789W        W86727  28.853  13.224   1.451  0.2734  0.0599 -0.2127
43790W        W86728  32.384  11.567   3.990  0.3241 -0.2034  0.0260
43791W        W86729  31.644  11.255  31.428 -0.1291  0.4418  0.2093
43792W        W86730  32.351  10.451   1.433 -0.0382  0.0567 -0.2231
43793W        W86731  28.879  12.312   1.801  0.1367  0.2470 -0.2779
43794W        W86732  30.141  14.332   2.444 -0.1019 -0.1430 -0.2827
43795W        W86733  31.974  12.969   4.117 -0.0131  0.0424  0.1204
43796W        W86734  31.925   8.768   0.729  0.0367  0.0259 -0.1147
43797W        W86735  31.519  14.590   2.755 -0.1537  0.0748 -0.1017
43798W        W86736  30.411  13.165   4.038 -0.2208  0.0154  0.2025
43799W        W86737  29.215  12.338   0.280  0.1410  0.1667 -0.2829
43800W        W86738  31.576  11.734   3.862 -0.1423 -0.1672  0.2719
43801W        W86739  31.143  14.151   2.761 -0.0129  0.1011 -0.2310
43802W        W86740  31.110  16.090   0.970 -0.2330  0.0320  0.3624
43803W        W86741  31.367  14.091   3.605 -0.2244  0.4908 -0.4886
43804W        W86742  30.113  13.247   0.783 -0.1487  0.1787 -0.0974
43805W        W86743  30.402  14.136   1.074 -0.2324  0.2426 -0.0186
43806W        W86744  29.190  12.600   3.491  0.0428 -0.0815 -0.1613
43807W        W86745  32.126  12.284   2.835  0.0169  0.0979  0.0584
43808W        W86746  29.816  11.373   1.546  0.1158 -0.0305  0.0239
43809W        W86747  31.639  11.127   1.089  0.3619  0.0012  0.2516
43810W        W86748  30.759  12.330   1.919  0.0459  0.1611  0.1773
43811W        W86749  31.598  14.053   3.096  0.1988  0.1671 -0.2128
43812W        W86750  30.329  12.482   2.970  0.1263 -0.1265 -0.1420
43813W        W86751  28.973  11.705   4.071  0.0846 -0.0654 -0.1198
43814W        W86752  30.921  10.921   2.564 -0.2949 -0.0365  0.0706
43815W        W86753  32.871  13.897   0.246 -0.0330 -0.0896  0.2419
43816W        W86754  30.783  12.043   4.413 -0.1957  0.0521  0.0608
43817W        W86755  30.788  14.981   0.401  0.0903 -0.1820 -0.0676
43818W        W86756  28.743  12.019   2.219 -0.3117 -0.2488  0.1123
43819W        W86757  31.741  13.180   2.853 -0.2217 -0.0710 -0.2766
43820W        W86758  29.842  11.468   3.463 -0.2344 -0.1571 -0.1276
43821W        W86759  29.228  14.325   1.043  0.1399 -0.0339 -0.0151
43822W        W86760  31.254  13.054   0.459 -0.1152  0.0696  0.1463
43823W        W86761  29.669  14.443   2.494 -0.0402 -0.0321 -0.0436
43824W        W86762  32.151   9.402   1.289 -0.1269 -0.0157  0.4520
43825W        W86763  31.407  13.424   2.461 -0.0778 -0.0208  0.0191
43826W        W86764  31.476  11.955   1.363  0.0005  0.0572  0.0476
43827W        W86765  31.809  10.759   4.167  0.2652  0.0008  0.1661
43828W        W86766  31.821  13.628   0.533  0.0683  0.2237  0.0437
43829W        W86767  31.489  10.959   3.539  0.1503 -0.2367 -0.1211
43830W        W86768  30.912  12.166   2.393 -0.1743  0.2161  0.2561
43831W        W86769  32.071  12.011   2.421 -0.1454 -0.3091  0.1491
43832W        W86770  30.828  12.174   3.321 -0.0507  0.1772 -0.0047
43833W        W86771  31.641  14.117   5.317 -0.0315  0.1615 -0.2484
43834W        W86772  29.873  13.014   4.013  0.2069  0.2286  0.1436
43835W        W86773  31.188  11.910   2.817  0.0274 -0.3419  0.1417
43836W        W86774  31.232  11.542   1.013 -0.1131 -0.2145  0.2986
43837W        W86775  31.205  13.103   1.491  0.2918  0.1088 -0.0484
43838W        W86776  32.143  12.851   1.847  0.0217 -0.1136  0.1812
43839W        W86777  32.134  14.439   1.452  0.0037 -0.0444 -0.0564
43840W        W86778  30.798  11.517   4.396  0.0022 -0.0161  0.0074
43841W        W86779  30.178  13.813   2.197 -0.0895 -0.0788  0.1459
43842W        W86780  32.512  12.128   2.151  0.1435 -0.0227 -0.0318
43843W        W86781  31.895  10.671   0.916  0.2741 -0.0832  0.0697
43844W        W86782  30.834  12.373   2.835 -0.0633  0.4586  0.1626
43845W        W86783  28.844  11.224   2.213  0.1186  0.0324 -0.1987
43846W        W86784  32.293  12.376   1.105  0.1615  0.0352  0.2023
43847W        W86785  30.784  11.154   1.721  0.0745 -0.1973 -0.1303
43848W        W86786  31.187  10.304   2.810 -0.0005  0.0107 -0.1091
43849W        W86787  32.138  11.223   2.996  0.4453 -0.0023 -0.0079
43850W        W86788  28.888  13.210   3.093  0.0516  0.1450 -0.1624
43851W        W86789  28.331  12.046   2.557 -0.1960  0.2805  0.1613
43852W        W86790  33.297  14.390   3.994 -0.0362  0.1451 -0.0314
43853W        W86791  32.305  11.636  31.552 -0.0038  0.1866 -0.2249
43854W        W86792  32.637  11.997   3.986  0.0846  0.1177 -0.0808
43855W        W86793  32.933  12.577   3.124 -0.0202  0.0481  0.1380
43856W        W86794  31.573  13.242   0.808  0.0224  0.0169 -0.2131
43857W        W86795  29.648  11.910   3.086 -0.0130  0.0401  0.0271
43858W        W86796  31.105  11.980   4.023  0.1675 -0.1092 -0.1691
43859W        W86797  30.223  12.479   0.764 -0.2983 -0.3040  0.1073
43860W        W86798  31.580  11.236   3.918  0.0334 -0.0852 -0.2424
43861W        W86799  33.030  15.465   2.131  0.1276  0.1383  0.1442
43862W        W86800  31.616  12.917   1.253 -0.2254  0.2626  0.0499
43863W        W86801  31.324  12.519   2.085 -0.2517  0.0912 -0.0268
43864W        W86802  30.497  11.968   2.165  0.2338 -0.1521  0.2571
43865W        W86803  30.770  15.659   2.119 -0.0615  0.0792  0.0133
43866W        W86804  30.153  12.008   1.081  0.1341 -0.3859 -0.1345
43867W        W86805  30.930  13.543   1.541 -0.0403 -0.1584 -0.1096
43868W        W86806  31.985  13.881   1.708 -0.1178 -0.2081 -0.0363
43869W        W86807  30.460  12.367   4.291 -0.2616  0.1960 -0.0985
43870W        W86808  31.559   9.951   2.675  0.2335 -0.1530 -0.2255
43871W        W86809  32.068  11.744   2.798 -0.2336 -0.2205  0.4812
43872W        W86810  30.655  12.692   3.222 -0.0271  0.3021  0.2686
43873W        W86811  30.947  11.275   2.252  0.0021  0.0424 -0.4480
43874W        W86812  30.636  15.021   2.839  0.1910  0.2306 -0.0682
43875W        W86813  29.841  13.314   2.956 -0.1911 -0.0828 -0.0467
43876W        W86814  30.893  14.224   0.626 -0.4053 -0.1288 -0.1133
43877W        W86815  30.561  10.281   2.535  0.2479  0.0624  0.0806
43878W        W86816  31.724  12.195   3.477  0.2097  0.1522  0.0794
43879W        W86817  30.466  12.493   2.400 -0.1383  0.3945 -0.0929
43880W        W86818  32.332  12.294   4.290 -0.3572 -0.0277 -0.0627
43881W        W86819  30.446  13.516   3.692 -0.0621  0.4009 -0.0026
43882W        W86820  28.441  13.225   3.419  0.0391 -0.1270  0.0189
43883W        W86821  31.676  12.565   2.980  0.0290 -0.1266  0.2217
43884W        W86822  32.905  12.209   1.459  0.1005 -0.5855 -0.3058
43885W        W86823  30.556  13.420   2.120  0.2734  0.0367 -0.0617
43886W        W86824  30.321  12.401   3.532 -0.1411  0.1781 -0.1038
43887W        W86825  30.705  12.259   3.823  0.1305 -0.2978  0.1471
43888W        W86826  30.060  12.829   1.641 -0.2688  0.0134  0.1768
43889W        W86827  30.941  10.530   2.299 -0.2096  0.1596  0.0097
43890W        W86828  31.732  12.341   1.076  0.3089 -0.2385  0.2102
43891W        W86829  29.071  14.009   3.171 -0.0177 -0.2529 -0.1349
43892W        W86830  28.771  12.586   2.211 -0.2609  0.0100 -0.0574
43893W        W86831  30.575  14.684   0.800 -0.2353  0.0147  0.1277
43894W        W86832  32.107  14.384   0.021 -0.0345  0.0273 -0.0155
43895W        W86833  31.656  14.597   1.408  0.2307 -0.1159  0.2185
43896W        W86834  31.499  12.729   4.120  0.0859 -0.1951 -0.0702
43897W        W86835  30.663  10.133   0.595  0.0631 -0.1228  0.0974
43898W        W86836  28.499  13.742   0.883  0.1361 -0.0768 -0.0217
43899W        W86837  29.116  14.757  31.867 -0.0753  0.1908 -0.0228
43900W        W86838  31.547  13.857   0.874 -0.4247  0.0285 -0.1140
43901W        W86839  30.443  14.858   1.649  0.1877 -0.1893 -0.0682
43902W        W86840  32.842  13.086   5.497  0.1331 -0.1291 -0.0128
43903W        W86841  32.049  10.924  31.358  0.0492 -0.0710 -0.2138
43904W        W86842  32.149  10.747   2.993  0.1384  0.0561 -0.4482
43905W        W86843  31.598  12.002   2.282  0.1396 -0.0833  0.0596
43906W        W86844  31.414  13.453   4.653  0.2342  0.1667 -0.0176
43907W        W86845  29.533  12.950   2.198  0.2984 -0.0312  0.0126
43908W        W86846  30.630  10.415   0.162 -0.0778  0.1278  0.0160
43909W        W86847  29.930  12.255   2.738 -0.0252  0.1588 -0.0434
43910W        W86848  33.780   9.970   4.146  0.2569 -0.2851  0.0737
43911W        W86849  28.404  14.413   4.209 -0.2013 -0.3124 -0.1153
43912W        W86850  31.323  16.714   1.603 -0.2297  0.1651  0.2062
43913W        W86851  30.714  12.632  31.815 -0.0588  0.2250  0.0556
43914W        W86852  31.824  11.571   1.340  0.5647 -0.0050 -0.3016
43915W        W86853  34.130  10.700   3.850  0.0889  0.2804 -0.2616
43916W        W86854  31.664  13.409   1.635 -0.2864  0.2662  0.0611
43917W        W86855  31.131  12.603   3.539  0.1814  0.3093 -0.0849
43918W        W86856  31.641  13.770   2.126 -0.0934  0.2894 -0.0281
43919W        W86857  31.026  13.673   2.762  0.1992 -0.1057  0.1798
43920W        W86858  30.805  15.280   3.633  0.0999 -0.0086  0.0347
43921W        W86859  29.844  12.337   0.350  0.0204 -0.3123 -0.1491
43922W        W86860  33.363  11.656   3.726  0.3554  0.1297 -0.1889
43923W        W86861  29.415  12.639   4.016 -0.2504  0.1788  0.0465
43924W        W86862  33.060  11.083   3.639 -0.3810  0.1114  0.0074
43925W        W86863  30.412  14.359   1.510 -0.5022  0.2613  0.1947
43926W        W86864  32.300  11.648   2.012  0.1296  0.2657 -0.1175
43927W        W86865  29.987  13.562   3.966 -0.2231  0.1427  0.2293
43928W        W86866  29.879  12.744   2.687  0.0241 -0.1162 -0.1872
43929W        W86867  30.754  13.155   0.649 -0.0181  0.0979 -0.1776
43930W        W86868  33.609  14.040   4.525  0.2742 -0.0348  0.3796
43931W        W86869  30.944  12.198   0.108 -0.1897 -0.0864  0.3490
43932W        W86870  30.932  15.267   4.116 -0.2161 -0.0780  0.0386
43933W        W86871  31.000  12.294   1.470  0.1345  0.0851 -0.3847
43934W        W86872  31.872  11.125   0.247 -0.1667 -0.2048  0.0277
43935W        W86873  29.318  12.111   2.135  0.0084 -0.0576 -0.2802
43936W        W86874  30.436  11.848   3.528 -0.0696 -0.3970  0.2511
43937W        W86875  31.782  13.883   3.599  0.1433 -0.2625  0.1520
43938W        W86876  31.279  11.624   2.369 -0.0419  0.0175  0.1036
43939W        W86877  32.510  12.830   1.361 -0.5943  0.4554 -0.0194
43940W        W86878  33.021  11.995   3.258  0.2365 -0.0253  0.3221
43941W        W86879  30.404  13.466   0.388 -0.1632 -0.1776  0.1326
43942W        W86880  32.091  11.918   1.635  0.1560  0.4428 -0.2003
43943W        W86881  31.574  14.184   1.858  0.1422 -0.1559 -0.2846
43944W        W86882  29.972  12.905   1.173 -0.0424  0.3817 -0.0253
43945W        W86883  32.859  14.029   1.618 -0.2319  0.1743 -0.2199
43946W        W86884  32.903  13.510   1.743 -0.0256 -0.4475  0.2129
43947W        W86885  31.050  12.710   1.673 -0.2130  0.1255  0.0564
43948W        W86886  31.170  10.858   2.002 -0.2402 -0.0536 -0.1938
43949W        W86887  29.497  14.004   1.360  0.1179 -0.0687 -0.1610
43950W        W86888  32.700  11.757   2.986 -0.1178  0.2977 -0.0901
43951W        W86889  30.736  10.592   2.891 -0.0655 -0.0787  0.3009
43952W        W86890  31.389  15.615   0.837 -0.2205 -0.3493 -0.1755
43953W        W86891  32.198  10.158   3.723  0.2966  0.1339  0.1852
43954W        W86892  32.040  12.983   3.215 -0.2090 -0.0871 -0.1597
43955W        W86893  30.258  13.839   5.376 -0.0113  0.2861 -0.0709
43956W        W86894  29.853  12.764   0.639 -0.0249 -0.1340 -0.4548
43957W        W86895  31.780  13.030   2.233  0.1537  0.2187  0.1491
43958W        W86896  31.529  14.807   0.592  0.0722 -0.1429  0.1466
43959W        W86897  32.078  13.066   1.405 -0.0288  0.0911  0.3179
43960W        W86898  32.765  14.065   2.448  0.0408  0.1908  0.1976
43961W        W86899  31.669  12.091   2.779 -0.0254 -0.1755 -0.1788
43962W        W86900  31.965  12.558   1.503  0.2085  0.0096  0.0962
43963W        W86901  30.490  11.578   1.219  0.2427  0.0546  0.0338
43964W        W86902  32.388  10.881   0.371 -0.0422  0.0351 -0.0049
43965W        W86903  31.410  10.409   2.081  0.0943 -0.0121 -0.1768
43966W        W86904  30.525  13.099   3.532  0.0239  0.2795 -0.1600
43967W        W86905  29.593  12.653   1.416 -0.1500  0.0647 -0.3953
43968W        W86906  30.282  14.050   0.091  0.3007 -0.0635 -0.1762
43969W        W86907  28.046  13.122   2.765  0.2634 -0.0554  0.3164
43970W        W86908  29.902  11.955   4.405  0.2112  0.1242 -0.3814
43971W        W86909  29.933  12.360   3.256 -0.3249  0.4140  0.2668
43972W        W86910  30.421  13.174   1.637  0.0319  0.1106 -0.0370
43973W        W86911  30.932  11.244   0.636 -0.1805 -0.1090 -0.3294
43974W        W86912  32.997  14.946   0.486  0.0660  0.2608  0.1256
43975W        W86913  29.107  11.602   2.431 -0.2259  0.0125  0.2340
43976W        W86914  30.709  11.244   2.877  0.0346 -0.4674  0.0420
43977W        W86915  32.011  12.788   0.978 -0.0103 -0.0292  0.0699
43978W        W86916  32.118  13.261   0.940  0.0807  0.0834 -0.0710
43979W        W86917  30.476  12.762   1.931 -0.0866  0.1126 -0.1288
43980W        W86918  31.942  15.806   4.691 -0.1056 -0.2505 -0.0284
43981W        W86919  30.049  13.420   1.267  0.2978 -0.0126 -0.0052
43982W        W86920  30.088  13.082   4.871  0.0550 -0.3741 -0.1929
43983W        W86921  29.763  10.242   4.554  0.0991  0.1356 -0.1571
43984W        W86922  29.684  13.093  31.737 -0.1215 -0.3841  0.0952
43985W        W86923  31.587  11.756   3.237 -0.1101  0.0466  0.0324
43986W        W86924  33.200  14.629   1.388 -0.1040 -0.0761  0.1931
43987W        W86925  31.212  15.229   0.593  0.3062  0.1431 -0.1241
43988W        W86926  30.957  13.084   3.317 -0.0028  0.1310 -0.0818
43989W        W86927  30.900  13.880   3.858  0.3580  0.1074  0.2034
43990W        W86928  28.751  10.749   3.170  0.1105  0.2334  0.0735
43991W        W86929  31.122  12.148   0.979  0.0040  0.0797  0.0480
43992W        W86930  30.825  13.611   3.431  0.0649 -0.4893 -0.2789
43993W        W86931  33.016  13.150   3.060 -0.1965  0.2078  0.0211
43994W        W86932  33.090  11.028   3.026  0.0900 -0.1563 -0.1687
43995W        W86933  31.430  10.609   1.206 -0.1435  0.0717  0.0097
43996W        W86934  27.895  11.132   3.215  0.0176 -0.4916 -0.0736
43997W        W86935  29.177  14.228   4.457 -0.0124 -0.0915  0.4478
43998W        W86936  31.688  12.747   3.576 -0.1730 -0.0389 -0.0265
43999W        W86937  30.101  11.184   1.904 -0.3155  0.1362 -0.0188
44000W        W86938  33.264  11.454   1.971  0.1316 -0.0767  0.3200
44001W        W86939  32.562  14.688   0.501  0.1201 -0.3431  0.1842
44002W        W86940  29.827  12.539   3.723 -0.1822  0.0473  0.0340
44003W        W86941  30.975  11.735   1.497 -0.0057  0.2231 -0.0253
44004W        W86942  30.952  13.612   4.849 -0.1842  0.3471 -0.0316
44005W        W86943  30.503  13.530   2.586  0.0071 -0.2492  0.0438
44006W        W86944  31.085  13.933   3.202 -0.0142  0.0273 -0.1428
44007W        W86945  30.951  12.125  31.611 -0.1575 -0.1408 -0.0470
44008W        W86946  31.676  12.665  31.760 -0.2074  0.1317 -0.0729
44009W        W86947  32.123  14.531   5.236  0.1358 -0.1185  0.2853
44010W        W86948  31.791  14.328   4.823 -0.3797  0.0196  0.1366
44011W        W86949  31.288  13.050   3.745 -0.0784  0.1539 -0.3722
44012W        W86950  31.472  12.878   2.620  0.1143  0.1774  0.2087
44013W        W86951  29.161  11.786   2.897  0.0296  0.0784 -0.3371
44014W        W86952  30.454  12.889   0.921 -0.0350 -0.5278  0.1430
44015W        W86953  31.070  13.989   1.760 -0.0222  0.1082 -0.0744
44016W        W86954  32.896  10.260   2.505  0.1269 -0.1031  0.1404
44017W        W86955  28.651  12.369   2.885 -0.1652 -0.2149  0.1387
44018W        W86956  31.953  10.195  31.925  0.1741  0.1336  0.1453
44019W        W86957  31.239  14.135   4.099 -0.1389 -0.2853 -0.0047
44020W        W86958  31.130  13.527   2.022  0.1001 -0.0463  0.1401
44021W        W86959  30.400  13.900   6.332 -0.3636  0.1992  0.2049
44022W        W86960  29.966  12.191   6.243  0.0129 -0.0016  0.3220
44023W        W86961  30.706  11.306   4.825  0.3083 -0.2607 -0.2365
44024W        W86962  32.720  13.693   6.194  0.0283 -0.1074  0.0884
44025W        W86963  28.408  10.560   6.090  0.2759  0.1426 -0.0767
44026W        W86964  30.191  14.290   4.262 -0.0657 -0.1968  0.0667
44027W        W86965  29.430  12.252   6.143  0.1156  0.1282  0.0804
44028W        W86966  31.022  13.391   7.240  0.0409  0.4289  0.1722
44029W        W86967  33.161  14.154   6.537  0.1059  0.1201  0.0188
44030W        W86968  31.117  13.060   4.396  0.3407 -0.2055 -0.0094
44031W        W86969  29.819  11.570   7.325 -0.1683  0.0989 -0.2824
44032W        W86970  31.651  14.329   7.086  0.1803 -0.3213  0.1167
44033W        W86971  29.383  11.187   4.638  0.1689 -0.0689 -0.0573
44034W        W86972  28.777  11.653   7.177 -0.0305  0.1587  0.2285
44035W        W86973  31.875  11.202   7.093 -0.2370  0.0715  0.0286
44036W        W86974  30.911  12.746   6.645  0.4308  0.5332 -0.1803
44037W        W86975  28.391  12.022   6.964 -0.2683  0.2701 -0.1157
44038W        W86976  31.625  13.361   5.106  0.0996  0.2740 -0.0005
44039W        W86977  30.331  14.080   5.831 -0.2783  0.2327  0.4008
44040W        W86978  30.018  12.952   8.598 -0.1459  0.2413 -0.0504
44041W        W86979  31.182  11.153   7.954 -0.4361 -0.3063  0.1801
44042W        W86980  31.565  14.436   4.443  0.1239 -0.0159 -0.0060
44043W        W86981  28.551  12.156   3.468  0.0376  0.1448 -0.2713
44044W        W86982  28.567  11.907   3.911 -0.1507  0.3436 -0.0415
44045W        W86983  30.789  12.963   7.102  0.0327  0.1366  0.0615
44046W        W86984  31.184  11.393   6.240 -0.0593 -0.1332 -0.1008
44047W        W86985  31.982  13.482   4.466  0.0846  0.2148  0.0511
44048W        W86986  30.710  14.480   6.363 -0.0833  0.0060 -0.3173
44049W        W86987  29.834  13.636   7.370  0.0749  0.0339  0.1206
44050W        W86988  33.119  12.874   8.820 -0.0226  0.1353  0.1356
44051W        W86989  29.628  15.148   5.689  0.2735 -0.5185 -0.0164
44052W        W86990  29.488  15.566   4.945 -0.0508 -0.1086 -0.2756
44053W        W86991  30.141  14.303   5.442  0.1040  0.1208  0.1255
44054W        W86992  33.271  14.403   5.891  0.0821 -0.2662 -0.0449
44055W        W86993  32.132  14.430   7.276  0.2910 -0.0328 -0.0778
44056W        W86994  32.343  14.999   7.281 -0.2001  0.0775  0.4021
44057W        W86995  29.557  13.381   4.215  0.2315  0.0553  0.0864
44058W        W86996  30.510  13.847   7.877 -0.3620  0.0090  0.1732
44059W        W86997  30.771  14.266   7.662  0.1263  0.0761 -0.3675
44060W        W86998  30.409  12.190   7.217  0.2565  0.0751  0.1817
44061W        W86999  31.910  13.162   5.969  0.2269 -0.1967  0.1331
44062W        W87000  30.909  13.462   5.336 -0.4652 -0.0958  0.2444
44063W        W87001  32.402  12.078   5.050  0.0523  0.0967  0.0974
44064W        W87002  29.991  13.842   8.016 -0.0840 -0.1006 -0.0873
44065W        W87003  28.609  13.244   6.340  0.0935 -0.0983  0.0094
44066W        W87004  33.321  11.423   7.457 -0.2324 -0.0705  0.0911
44067W        W87005  29.499  13.583   5.250 -0.2454  0.4027 -0.2041
44068W        W87006  31.529  11.795   5.041  0.2120 -0.2428 -0.3305
44069W        W87007  28.882  11.396   3.263 -0.0504  0.2804  0.1522
44070W        W87008  31.286  12.193   5.143  0.1686 -0.3726  0.1002
44071W        W87009  31.757  10.865   6.218 -0.1000 -0.3071  0.1875
44072W        W87010  30.312  14.582   6.613  0.1139 -0.1664  0.1163
44073W        W87011  29.013  12.522   7.279  0.3748  0.1615 -0.2222
44074W        W87012  30.516  13.077   7.752 -0.2467 -0.0730 -0.1144
44075W        W87013  31.163  13.190   5.033  0.0398 -0.0983  0.1300
44076W        W87014  32.333  12.311   6.609 -0.2673 -0.0386  0.3140
44077W        W87015  29.949  12.908   6.318  0.0048 -0.0950 -0.2495
44078W        W87016  29.172  11.841   6.322 -0.0794  0.3332 -0.1062
44079W        W87017  32.459  13.678   4.810 -0.3711 -0.2503  0.0429
44080W        W87018  30.700  14.597   5.872 -0.0259 -0.2433 -0.0511
44081W        W87019  30.435  14.969   4.061  0.1479 -0.0237  0.0282
44082W        W87020  29.262  12.832   4.890 -0.3062  0.1775  0.4271
44083W        W87021  28.926  14.207   7.634 -0.0311 -0.2662  0.1724
44084W        W87022  29.519  13.201   6.218  0.1340 -0.0760 -0.1875
44085W        W87023  30.088  10.151   4.164  0.2980 -0.2636  0.2229
44086W        W87024  31.378  14.037   8.171  0.2894  0.2224 -0.0607
44087W        W87025  29.980  12.469   7.266 -0.0131  0.2561 -0.0153
44088W        W87026  34.361  11.739   4.723  0.3027  0.1696 -0.1435
44089W        W87027  29.595  13.116   6.720 -0.3309 -0.2446 -0.0661
44090W        W87028  33.295  14.144   8.094 -0.0735 -0.0922  0.1905
44091W        W87029  32.544  13.221   4.611 -0.1955  0.3151  0.4507
44092W        W87030  32.402  11.521   6.302 -0.1693  0.1079 -0.0048
44093W        W87031  32.153  10.219   7.366 -0.3544 -0.0533  0.2993
44094W        W87032  30.330  11.792   5.231 -0.0683 -0.0187 -0.3588
44095W        W87033  30.426  13.371   5.323  0.0661 -0.5819  0.0672
44096W        W87034  31.395  13.496   7.845 -0.0192 -0.0438  0.1360
44097W        W87035  31.697  13.004   5.451  0.0404 -0.0426 -0.2502
44098W        W87036  28.789  14.629   7.464  0.1094  0.0761 -0.0544
44099W        W87037  31.418  11.697   8.549 -0.2073  0.0896 -0.2759
44100W        W87038  31.423  14.901   6.911 -0.0876  0.1333  0.1559
44101W        W87039  29.554  14.192   3.507  0.3274 -0.0042  0.2678
44102W        W87040  29.851  13.959   5.696  0.0196  0.1310  0.0069
44103W        W87041  29.826  11.309   4.404 -0.4005  0.3386  0.3787
44104W        W87042  28.527  11.194   7.361 -0.0378 -0.1771  0.2375
44105W        W87043  31.417  12.875   5.936  0.1385 -0.2199  0.2828
44106W        W87044  33.052  10.529   4.781 -0.1290 -0.2774 -0.2512
44107W        W87045  28.213  11.903   5.716  0.2320 -0.1026 -0.1558
44108W        W87046  33.277  10.266   5.198  0.0155  0.3578  0.0826
44109W        W87047  31.009  12.680   6.111  0.1047 -0.0032 -0.0528
44110W        W87048  31.157  14.491   5.212 -0.0145  0.2207 -0.4162
44111W        W87049  32.491  13.670   6.745 -0.3428  0.1816  0.2578
44112W        W87050  32.068  13.654   5.975 -0.0380 -0.1052 -0.0508
44113W        W87051  29.105  13.110   6.455  0.0729 -0.0556 -0.0998
44114W        W87052  30.846  11.177   6.542  0.1822 -0.1086  0.2353
44115W        W87053  29.063  11.274   7.275  0.0125  0.1222 -0.0462
44116W        W87054  30.089  11.945   5.656  0.1182  0.3823 -0.0610
44117W        W87055  32.723  12.217   7.745 -0.1895  0.1953 -0.1512
44118W        W87056  30.147  12.859   4.395  0.0052 -0.1148  0.0081
44119W        W87057  32.042  11.107   5.844 -0.0019 -0.2052 -0.0750
44120W        W87058  30.649  12.414   5.248  0.0647 -0.0555 -0.0634
44121W        W87059  29.112  12.814   5.393  0.0761 -0.2144 -0.0528
44122W        W87060  32.651  11.101   8.693 -0.2368 -0.2681 -0.2621
44123W        W87061  30.748  14.974   4.470 -0.0061  0.1130 -0.0965
44124W        W87062  31.919  15.269   7.415  0.1466  0.2123 -0.0382
44125W        W87063  32.556  14.594   4.788  0.3608 -0.2217  0.0516
44126W        W87064  30.049  13.313   6.747 -0.1515  0.2246 -0.3506
44127W        W87065  30.966  12.167   5.595  0.2519 -0.0244  0.0343
44128W        W87066  30.016  14.087   6.716  0.0819  0.0783  0.2802
44129W        W87067  31.096  12.638   5.564 -0.1958 -0.0461 -0.2640
44130W        W87068  30.595  10.803   6.044 -0.0096 -0.1436 -0.3801
44131W        W87069  32.783  14.917   7.081 -0.1348  0.0815  0.1210
44132W        W87070  31.016  14.367   4.643 -0.2375  0.2719  0.0724
44133W        W87071  30.729  13.486   7.576  0.0337  0.0679  0.2266
44134W        W87072  31.913  11.503   6.259 -0.0246 -0.1079 -0.0518
44135W        W87073  31.780  13.027   7.962 -0.1118  0.1930 -0.0657
44136W        W87074  31.171  11.658   5.604 -0.1789  0.0056  0.1992
44137W        W87075  30.590  11.188   5.728 -0.0157 -0.0135 -0.3197
44138W        W87076  32.660  14.221   6.713  0.0909  0.0116 -0.0822
44139W        W87077  29.334  14.621   4.828 -0.1106  0.0934  0.1469
44140W        W87078  31.227  13.346   6.121  0.0422 -0.0512 -0.0252
44141W        W87079  29.714  14.334   4.600  0.2130 -0.0090 -0.0898
44142W        W87080  32.342  10.823   6.816  0.2067 -0.1645 -0.2681
44143W        W87081  30.413  13.289   7.134  0.1798  0.2696  0.2155
44144W        W87082  33.136  11.541   7.951 -0.0453 -0.2761  0.2771
44145W        W87083  30.953  11.226   5.323 -0.1542  0.1740  0.2114
44146W        W87084  29.004  13.655   8.526  0.1436  0.2200 -0.1937
44147W        W87085  31.123  11.196   5.779  0.1068 -0.0183 -0.0262
44148W        W87086  32.946  11.742   4.384  0.0912  0.1130 -0.0890
44149W        W87087  31.098  13.619   8.278  0.4157  0.0850  0.0529
44150W        W87088  32.180  13.701   5.299  0.2194 -0.2168  0.1900
44151W        W87089  30.359  11.750   4.355 -0.0771 -0.0699  0.1221
44152W        W87090  32.459  11.354   5.031 -0.1869 -0.3383 -0.1510
44153W        W87091  28.593  12.910   7.417  0.0202  0.0713 -0.0898
44154W        W87092  30.445  14.186   5.049 -0.1969 -0.1695 -0.1748
44155W        W87093  31.259  13.616   6.668 -0.1267 -0.0818 -0.0514
44156W        W87094  30.490  10.802   3.781 -0.0629  0.0649 -0.0669
44157W        W87095  33.368  14.460   5.411 -0.3399  0.4492  0.5984
44158W        W87096  30.308  12.165   6.632 -0.0848  0.0825  0.1619
44159W        W87097  31.459  13.124   7.542 -0.0432 -0.1655  0.5007
44160W        W87098  31.974  15.195   6.147 -0.2271  0.0272  0.1403
44161W        W87099  30.601  10.675   7.318  0.0151  0.0825  0.0290
44162W        W87100  30.443  12.661   4.829 -0.0159  0.3024  0.0350
44163W        W87101  32.216  10.977   6.331 -0.3711 -0.1310  0.0095
44164W        W87102  29.983  14.046   3.760 -0.0317  0.1030  0.1897
44165W        W87103  33.055  11.341   6.204  0.1185 -0.2072 -0.0769
44166W        W87104  32.155  11.940   6.230 -0.0260 -0.0908 -0.3079
44167W        W87105  30.763  11.518   6.955  0.3359  0.0685 -0.2797
44168W        W87106  33.275  12.516   7.385  0.0708  0.0222  0.3314
44169W        W87107  31.873  12.901   4.983 -0.3569  0.1949 -0.2554
44170W        W87108  32.432  12.885   7.239 -0.0337  0.2424  0.4899
44171W        W87109  29.456  12.229   3.434 -0.1450  0.0770 -0.0068
44172W        W87110  31.198  11.531   8.969 -0.2811  0.1581 -0.0614
44173W        W87111  30.447  12.606   6.882  0.0728  0.1341 -0.2364
44174W        W87112  29.613  13.598   6.863  0.2202  0.0422 -0.0403
44175W        W87113  32.909  13.778   7.785 -0.1386  0.0328 -0.1757
44176W        W87114  31.290  13.238   5.605  0.1846  0.1914 -0.2002
44177W        W87115  32.335  11.229   7.837 -0.1653  0.0376  0.2041
44178W        W87116  30.791  10.849   4.248 -0.0182 -0.4233  0.1816
44179W        W87117  30.434  14.501   3.820 -0.1201 -0.0091  0.1632
44180W        W87118  30.671  12.825   4.378  0.1220 -0.3790 -0.1798
44181W        W87119  30.729  12.379   7.636  0.3252 -0.0973 -0.1785
44182W        W87120  31.033  14.076   6.511  0.4346  0.0638  0.0916
44183W        W87121  30.388  13.789   4.104  0.2502 -0.1676 -0.0665
44184W        W87122  31.751  13.167   6.451 -0.4109 -0.0463  0.0315
44185W        W87123  29.480  13.398   4.724 -0.0223 -0.1163  0.1927
44186W        W87124  33.124  11.083   7.759 -0.0074  0.0652 -0.1632
44187W        W87125  29.859  13.902   4.292  0.4878  0.1518 -0.2762
44188W        W87126  30.919  12.820   4.803 -0.1627  0.0348 -0.1138
44189W        W87127  28.238  13.581   5.239  0.1567  0.1430  0.1155
44190W        W87128  33.511  10.019   5.641  0.0546 -0.0623  0.1286
44191W        W87129  31.417  14.705   4.826 -0.4396  0.0550 -0.2019
44192W        W87130  29.597  11.492   6.391  0.0290 -0.0433  0.0050
44193W        W87131  30.406  11.414   7.581  0.0972  0.4130  0.0997
44194W        W87132  28.430  13.751   5.644 -0.1299  0.1759  0.2350
44195W        W87133  31.778  12.936   7.253 -0.2074 -0.3397  0.1363
44196W        W87134  31.917  11.504   5.270  0.4243 -0.3577 -0.0462
44197W        W87135  32.579  12.792   7.717 -0.1026 -0.1771  0.1604
44198W        W87136  30.326  13.781   8.374 -0.0086 -0.0152  0.0031
44199W        W87137  30.780  12.969   5.287  0.0250  0.3439 -0.0239
44200W        W87138  32.622  13.326   7.129 -0.0471  0.0596 -0.1485
44201W        W87139  28.930  12.536   5.847  0.1088  0.0222  0.3717
44202W        W87140  30.713  14.154   6.892 -0.1047  0.0643 -0.3651
44203W        W87141  31.388  13.868   6.260  0.1752 -0.0237  0.2142
44204W        W87142  30.291  12.679   3.920  0.2817  0.2074 -0.0048
44205W        W87143  29.504  13.898   4.791 -0.1351  0.1398 -0.1136
44206W        W87144  30.574  12.783   8.630 -0.0864  0.0690  0.0574
44207W        W87145  33.542  12.770   7.717  0.1248 -0.0178 -0.0666
44208W        W87146  30.364  11.609   6.615  0.1837  0.1994  0.2408
44209W        W87147  30.619  11.707   5.677 -0.0330 -0.2557 -0.0589
44210W        W87148  32.339  12.463   6.101  0.0008  0.2189  0.2176
44211W        W87149  31.843  13.675   6.506 -0.1333 -0.3522  0.2161
44212W        W87150  27.950  12.306   6.209 -0.3269  0.0813  0.2003
44213W        W87151  29.176  14.553   7.850  0.1462  0.1662  0.1247
44214W        W87152  29.868  12.052   6.976  0.0164  0.1554  0.0220
44215W        W87153  32.912  14.102   5.756 -0.0118  0.1525  0.0822
44216W        W87154  30.535  12.577   8.087  0.2297 -0.0756  0.1410
44217W        W87155  29.834  12.479   4.225 -0.2097  0.2527 -0.1097
44218W        W87156  29.401  12.620   5.678  0.1925  0.0857 -0.1331
44219W        W87157  30.491  13.764   4.684  0.1783  0.3649 -0.0298
44220W        W87158  31.133  11.633   7.444  0.0810  0.0528  0.1988
44221W        W87159  29.229  13.996   6.124 -0.0149  0.0768  0.0593
44222W        W87160  30.364  15.356   3.752 -0.2022 -0.0778 -0.2708
44223W        W87161  29.394  13.333   7.227 -0.1144 -0.1781 -0.2252
44224W        W87162  31.498  10.395   4.390 -0.0638  0.2267 -0.1105
44225W        W87163  31.380  13.952   4.842  0.1746 -0.1873 -0.1884
44226W        W87164  31.479  10.403   6.360 -0.2474 -0.3433  0.1497
44227W        W87165  34.040  10.904   7.363 -0.1348 -0.3710  0.4557
44228W        W87166  31.913  11.173   4.436  0.2889 -0.1815 -0.2437
44229W        W87167  32.044  10.483   6.368 -0.2113  0.2928 -0.0430
44230W        W87168  30.376  11.000   6.489  0.0408  0.0112  0.2113
44231W        W87169  31.124  14.432   6.130  0.1194 -0.1859  0.2075
44232W        W87170  29.202  12.510   7.810 -0.3169  0.0362 -0.2224
44233W        W87171  31.216  15.857   8.393 -0.0291  0.1285  0.2009
44234W        W87172  29.174  12.620   8.622  0.1571  0.2278  0.0904
44235W        W87173  31.145  10.869   6.235 -0.0230 -0.1398 -0.0889
44236W        W87174  29.663  11.681   4.779 -0.2278 -0.0538 -0.3608
44237W        W87175  32.136  12.959   7.599 -0.2482 -0.0078 -0.0193
44238W        W87176  32.210  13.712   7.130  0.1117 -0.1313 -0.0373
44239W        W87177  30.554  13.227   4.827 -0.0193 -0.0289  0.4431
44240W        W87178  31.618  11.418   5.823  0.2410 -0.1402  0.1754
44241W        W87179  30.509  13.018   6.654  0.4145 -0.1330  0.0400
44242W        W87180  31.192  11.838   4.711  0.0429 -0.2227 -0.1461
44243W        W87181  30.903  11.145   3.888  0.3716 -0.2015  0.1507
44244W        W87182  30.581  13.589   5.819  0.0723 -0.0807  0.1172
44245W        W87183  29.411  11.824   7.389  0.1409  0.1664  0.0736
44246W        W87184  32.393  13.342   6.315 -0.0773 -0.0370 -0.2251
44247W        W87185  32.664  11.096   6.438 -0.3996  0.2830  0.2631
44248W        W87186  31.326  11.328   7.009 -0.2628  0.1451  0.1359
44249W        W87187  30.956  12.394   7.151 -0.1792  0.3159  0.1213
44250W        W87188  29.874  13.135   7.152  0.2451  0.1646  0.0674
44251W        W87189  29.378  12.117   6.690 -0.1035  0.0774 -0.0711
44252W        W87190  31.828  16.510   6.364  0.3852  0.0643 -0.1744
44253W        W87191  31.934  12.539   3.905 -0.1099 -0.1413  0.2655
44254W        W87192  33.624  12.077   7.294  0.0884  0.2277  0.0679
44255W        W87193  32.075  14.345   6.233 -0.4460  0.1406  0.2499
44256W        W87194  32.116  11.037   5.321  0.1833  0.1188 -0.2027
44257W        W87195  28.547  11.670   6.022 -0.2262 -0.3463  0.2822
44258W        W87196  33.486  12.829   8.271 -0.0904 -0.1292  0.0907
44259W        W87197  30.914  11.768   5.199  0.0589  0.2666 -0.1541
44260W        W87198  32.631  11.970   7.263  0.1028 -0.0015  0.1276
44261W        W87199  30.583  15.434   4.385  0.2007  0.0733 -0.1932
44262W        W87200  31.107  14.926   5.810  0.3805 -0.1706  0.0938
44263W        W87201  31.240  11.346   4.863  0.1397 -0.4063  0.0300
44264W        W87202  29.374  12.435   5.197  0.3160 -0.4955  0.1076
44265W        W87203  31.172  14.527   6.635 -0.2161 -0.3775 -0.1693
44266W        W87204  29.159  13.260   5.093  0.1160  0.1375 -0.0758
44267W        W87205  31.240  11.979   3.562 -0.1152  0.1220  0.1723
44268W        W87206  31.472  13.283   7.077 -0.0797  0.0314  0.3062
44269W        W87207  31.359  12.802   7.906 -0.0734 -0.3011  0.2368
44270W        W87208  30.323  11.449   3.137 -0.3098 -0.0834  0.1850
44271W        W87209  32.153  11.288   6.692  0.2320  0.1093 -0.0534
44272W        W87210  29.963  13.595   4.885  0.0102 -0.0760 -0.3626
44273W        W87211  31.111  10.306   6.626  0.3574  0.0879 -0.0821
44274W        W87212  30.585  15.664   7.431  0.2698  0.1862 -0.4332
44275W        W87213  28.943  14.173   6.549 -0.0795  0.0276 -0.1368
44276W        W87214  31.108  13.676   5.811  0.5269  0.1977  0.1245
44277W        W87215  31.931  11.142   7.596  0.0095  0.1969  0.0428
44278W        W87216  32.803  12.306   5.990  0.1868 -0.0228 -0.1359
44279W        W87217  31.387  12.930   6.722 -0.3069  0.3094  0.0996
44280W        W87218  34.286  11.817   6.535  0.0179 -0.1068 -0.2739
44281W        W87219  30.764  13.991   8.252 -0.1748 -0.0594  0.1146
44282W        W87220  30.763  12.256   6.274 -0.0259  0.3709 -0.1198
44283W        W87221  32.115  14.160   6.789 -0.1448  0.0836  0.1718
44284W        W87222  32.439  12.966   5.973  0.1376 -0.3322 -0.1806
44285W        W87223  31.114  14.623   7.255 -0.0764 -0.2269  0.0048
44286W        W87224  29.460  12.296   7.214  0.0509  0.0050  0.0581
44287W        W87225  30.563  14.104   8.705 -0.0179  0.2196  0.0723
44288W        W87226  31.586  13.923   5.835  0.3357 -0.0951 -0.0088
44289W        W87227  31.526  10.336   5.401 -0.2813  0.1391 -0.0098
44290W        W87228  30.200  13.398   4.435 -0.0317 -0.0091  0.3125
44291W        W87229  31.422  13.837   7.483  0.2198 -0.1680 -0.0105
44292W        W87230  28.630  13.295   5.603  0.0370  0.0620 -0.0618
44293W        W87231  30.367  14.581   4.670 -0.0666  0.1840  0.0844
44294W        W87232  30.836  12.821   3.840  0.2721 -0.0941 -0.2432
44295W        W87233  32.880  13.243   6.045  0.3984  0.1559  0.1046
44296W        W87234  32.440  14.057   7.506  0.3228  0.1720  0.2541
44297W        W87235  30.648  11.843   4.812 -0.0986  0.2609 -0.0095
44298W        W87236  29.552  15.088   6.396  0.0819 -0.1287 -0.1090
44299W        W87237  29.444  14.716   3.790  0.1248  0.0070 -0.0929
44300W        W87238  31.186  13.648   4.275  0.1993  0.0003  0.0533
44301W        W87239  29.314  14.542   5.399  0.1727 -0.4995 -0.1868
44302W        W87240  32.271  13.194   8.043 -0.0305 -0.1027  0.2957
44303W        W87241  31.649  11.045   4.893  0.0744  0.1065 -0.0712
44304W        W87242  32.864  13.374   8.163  0.0407  0.2115  0.0712
44305W        W87243  33.195  10.859   5.224  0.3787  0.1646  0.4196
44306W        W87244  32.894  14.610   8.154 -0.0646 -0.3651 -0.0786
44307W        W87245  31.693  11.588   7.526  0.2646  0.0045 -0.1791
44308W        W87246  29.583  12.100   3.934  0.1075 -0.1101  0.1904
44309W        W87247  29.517  12.721   7.004 -0.1121  0.2781 -0.3204
44310W        W87248  32.979  11.586   9.675  0.2794 -0.1845  0.3386
44311W        W87249  29.591  13.550   5.865  0.0788  0.0532  0.0134
44312W        W87250  30.248  14.731   5.167  0.1797  0.0837  0.0338
44313W        W87251  30.677  11.870   7.587  0.3191  0.0937 -0.0812
44314W        W87252  30.636  13.033   6.179  0.0962  0.1440  0.2090
44315W        W87253  32.854  10.708   6.015  0.1020  0.4043 -0.1921
44316W        W87254  30.290  13.346   3.171 -0.0295 -0.1331 -0.2229
44317W        W87255  32.759  12.822   6.336  0.1134 -0.1230  0.0785
44318W        W87256  29.518  14.375   5.923  0.3740 -0.0523  0.1057
44319W        W87257  29.271  14.862   6.011 -0.0040 -0.1092 -0.2152
44320W        W87258  30.948  13.247   6.577 -0.3146  0.0853  0.0196
44321W        W87259  30.216  12.111   4.757 -0.0056 -0.1924 -0.0732
44322W        W87260  32.242  12.227   5.640  0.1688  0.2441 -0.0607
44323W        W87261  30.578  13.587   6.725 -0.0322 -0.2180  0.1588
44324W        W87262  31.988   9.760   6.974  0.0572 -0.2028  0.0690
44325W        W87263  30.472  12.248   5.683  0.1435  0.0544  0.0984
44326W        W87264  31.725  12.316   4.863  0.0787 -0.1985 -0.2224
44327W        W87265  31.535  12.278   6.989  0.0541 -0.0711 -0.3751
44328W        W87266  29.373  13.144   5.665  0.0333 -0.0507  0.0365
44329W        W87267  30.906  11.884   6.015  0.1483  0.1154  0.0632
44330W        W87268  34.487  13.113   7.687  0.1281  0.2386 -0.2126
44331W        W87269  30.273  11.056   4.887  0.1723  0.0867  0.3392
44332W        W87270  30.786  14.663   4.961 -0.0965  0.2367  0.2484
44333W        W87271  30.865  11.727   6.458 -0.3051 -0.1224 -0.2324
44334W        W87272  31.304  10.802   5.213  0.0690 -0.0379 -0.1884
44335W        W87273  32.055  12.714   5.776 -0.1741 -0.2168 -0.1289
44336W        W87274  29.964  12.793   6.792 -0.1309  0.2529 -0.0371
44337W        W87275  31.295  15.837   5.933  0.3806 -0.1854  0.0199
44338W        W87276  30.470  10.316   6.249 -0.0222 -0.1287  0.0908
44339W        W87277  31.097  12.465   4.183  0.3281  0.2094  0.2446
44340W        W87278  32.953  12.038   8.178 -0.1789  0.1638  0.2359
44341W        W87279  30.212  14.833   3.070 -0.1811  0.3290  0.3303
44342W        W87280  31.791  13.556   5.568  0.3846  0.3338  0.2479
44343W        W87281  31.210  16.275   6.143 -0.1553  0.0519  0.0321
44344W        W87282  29.813  13.042   5.828 -0.0909 -0.2957  0.2255
44345W        W87283  31.505  14.517   5.709 -0.0969  0.1277  0.1514
44346W        W87284  33.250  14.186   7.619  0.0430 -0.0711  0.0373
44347W        W87285  30.414  11.331   5.256 -0.0261 -0.1069  0.2323
44348W        W87286  30.819  13.169   5.739  0.0973 -0.0203 -0.0463
44349W        W87287  28.458  14.122   5.290  0.0689 -0.0284  0.1227
44350W        W87288  32.647  11.999   6.345 -0.2119 -0.0954  0.2235
44351W        W87289  31.341  12.307   7.455  0.2275  0.4236 -0.0372
44352W        W87290  31.213  15.089   3.474  0.1664 -0.2204 -0.0959
44353W        W87291  32.133   9.429   8.515  0.1801 -0.0473  0.1934
44354W        W87292  30.733  14.989   5.457  0.0625 -0.2807 -0.0245
44355W        W87293  31.097  15.101   7.256 -0.2315  0.3820  0.1507
44356W        W87294  31.616  12.999   4.573  0.0248  0.0812 -0.2595
44357W        W87295  30.936  12.829   7.549 -0.2875  0.0421 -0.4201
44358W        W87296  31.167  14.150   5.662 -0.2440 -0.1517 -0.0360
44359W        W87297  30.266  14.406   6.174  0.1063 -0.0810  0.0533
44360W        W87298  30.563  15.315   5.795 -0.0258  0.0191  0.1129
44361W        W87299  32.012  13.250   6.930 -0.1021  0.0325  0.0663
44362W        W87300  32.404  14.569   5.892 -0.3001  0.0760  0.0373
44363W        W87301  30.623  11.436   6.122  0.1976 -0.0471 -0.1162
44364W        W87302  32.111  11.169   3.935 -0.1693 -0.0069 -0.4203
44365W        W87303  31.846  10.596   4.664 -0.1818 -0.1289 -0.1397
44366W        W87304  31.176  14.080   7.028 -0.2436  0.2034 -0.0797
44367W        W87305  28.741  11.222   3.819 -0.0350 -0.1063 -0.1368
44368W        W87306  30.248  12.886   5.388 -0.1236 -0.1864  0.0215
44369W        W87307  30.341  13.358   6.325 -0.0798  0.1843  0.2991
44370W        W87308  31.616  12.023   7.756 -0.2393  0.0232  0.0462
44371W        W87309  29.616  12.592   6.487  0.0368  0.1480 -0.4276
44372W        W87310  30.370  12.596   6.341  0.0664  0.0618 -0.0588
44373W        W87311  30.397  11.949   6.130  0.2717 -0.0519 -0.1744
44374W        W87312  30.908  14.061   5.074 -0.3643  0.0370 -0.0342
44375W        W87313  29.142  12.623   6.712  0.0028 -0.0980  0.2220
44376W        W87314  29.610  11.609   5.550  0.1428  0.0865  0.0222
44377W        W87315  31.867  13.825   4.911 -0.3326  0.1811  0.2262
44378W        W87316  31.138  14.705   4.265 -0.2522 -0.3261  0.1061
44379W        W87317  31.605  12.496   5.565  0.0578 -0.1750  0.3201
44380W        W87318  31.128  15.706   6.430  0.0197 -0.0903 -0.0362
44381W        W87319  29.703  12.948   4.611  0.0822  0.0058 -0.3046
44382W        W87320  31.821  12.453   7.461  0.0878  0.0032  0.0110
44383W        W87321  31.945  11.900   7.224  0.2723 -0.0321  0.0801
44384W        W87322  28.464  12.181   6.175  0.1584 -0.0387 -0.2381
44385W        W87323  30.742  11.980   6.871  0.0020 -0.1134  0.2555
44386W        W87324  30.750  13.916   5.500  0.0678 -0.0890  0.0165
44387W        W87325  31.256  13.811   5.317  0.1334 -0.0649 -0.0502
44388W        W87326  30.783  13.899   7.320 -0.1083 -0.2184 -0.2180
44389W        W87327  30.386  13.012   8.228  0.2241  0.1630  0.0547
44390W        W87328  29.725  11.291   5.933 -0.2900  0.0963  0.1469
44391W        W87329  33.083  11.350   5.121 -0.1517 -0.1388 -0.2963
44392W        W87330  30.020  13.393   8.172  0.0390 -0.0608 -0.2006
44393W        W87331  33.004  13.608   5.722  0.1450  0.1603  0.0952
44394W        W87332  31.558  11.240   6.531 -0.0898  0.0285  0.0757
44395W        W87333  31.499  11.754   6.154  0.2218 -0.2668  0.0761
44396W        W87334  29.895  11.837   6.540 -0.1615  0.1795  0.1645
44397W        W87335  29.840  13.565   6.400  0.0811 -0.1313  0.0048
44398W        W87336  32.800  12.449   7.313 -0.0999  0.0548  0.0964
44399W        W87337  29.754  12.322   5.805 -0.0216  0.0295 -0.0900
44400W        W87338  32.728  10.862   4.897 -0.0843  0.0057 -0.1095
44401W        W87339  30.527  13.990   3.579 -0.1083  0.1605  0.3668
44402W        W87340  29.931  13.383   5.475 -0.1060 -0.2350 -0.0767
44403W        W87341  30.791  13.562   6.225 -0.1307  0.0519 -0.2721
44404W        W87342  31.775  12.492   7.975  0.1220  0.0008  0.2852
44405W        W87343  30.809  14.032   6.040 -0.1915 -0.1992 -0.1924
44406W        W87344  33.082  12.547   7.859 -0.0024  0.2333  0.0564
44407W        W87345  31.315  12.564   4.615  0.0364  0.0347  0.2146
44408W        W87346  33.116  12.226   5.116  0.1265 -0.1308  0.1595
44409W        W87347  31.186  15.294   6.140  0.0452 -0.0711 -0.1493
44410W        W87348  32.266  14.368   7.939  0.0263 -0.2194  0.3724
44411W        W87349  31.886  14.842   7.097  0.2952  0.1415  0.0991
44412W        W87350  31.673  12.638   6.298 -0.2346 -0.0912  0.1022
44413W        W87351  28.881  11.130   7.741  0.1471 -0.1629  0.0726
44414W        W87352  30.297  13.145   5.829 -0.0167  0.0483  0.1431
44415W        W87353  31.297  12.278   6.012 -0.2046 -0.3414 -0.0219
44416W        W87354  30.592  12.272   8.509  0.0213 -0.1007 -0.1258
44417W        W87355  31.862  10.851   6.695  0.1242  0.0449 -0.3434
44418W        W87356  30.384  10.372   5.140  0.0711  0.1600 -0.1545
44419W        W87357  30.431  15.095   8.092 -0.0263  0.0131  0.1100
44420W        W87358  31.282  11.666   6.660  0.2345 -0.4406 -0.2862
44421W        W87359  31.398  15.504   9.720  0.0642 -0.1526  0.1065
44422W        W87360  30.083  12.983   7.564  0.0246  0.1312  0.2560
44423W        W87361  32.516  10.576   7.214 -0.0501  0.2712  0.0865
44424W        W87362  33.102  12.877   9.848 -0.0512  0.0718  0.0576
44425W        W87363  28.877  11.616   9.541  0.1599  0.2602  0.0711
44426W        W87364  33.657  13.106   8.760 -0.1164  0.0358 -0.1162
44427W        W87365  30.824  13.510  10.434  0.0014  0.0778 -0.1635
44428W        W87366  33.302  14.279   9.456 -0.0906 -0.0248  0.1128
44429W        W87367  31.367  13.516   8.666 -0.1258 -0.0156  0.2159
44430W        W87368  30.935  11.460   8.343  0.0725  0.2689  0.1317
44431W        W87369  31.413  11.177   7.497  0.0522  0.0152  0.2160
44432W        W87370  29.598  11.182   8.694  0.4118  0.3028  0.0714
44433W        W87371  33.508  13.556  11.650  0.0036 -0.0505  0.2534
44434W        W87372  29.214  12.041   8.911 -0.0778  0.2507  0.0787
44435W        W87373  29.198  11.199  10.158 -0.0661 -0.1267 -0.0888
44436W        W87374  31.136  12.233   8.661 -0.4973  0.0139  0.0645
44437W        W87375  30.773  14.527   8.616  0.2905 -0.1583 -0.0080
44438W        W87376  30.318  11.427  10.123  0.2357  0.2329  0.0497
44439W        W87377  30.430  14.545   9.855 -0.0660 -0.1008  0.1933
44440W        W87378  29.583  12.536   8.175  0.1404  0.0504  0.2317
44441W        W87379  30.021  12.904  10.026  0.2439  0.0991  0.1008
44442W        W87380  30.223  13.270   9.145 -0.1080 -0.1557  0.0653
44443W        W87381  34.275  11.560  11.371  0.0993  0.2509  0.0031
44444W        W87382  32.325  13.133   9.391  0.3023 -0.1773  0.2710
44445W        W87383  31.464  14.988   9.730  0.0396 -0.2736 -0.1472
44446W        W87384  30.780  14.254  10.202  0.0134  0.0836  0.3525
44447W        W87385  29.779  12.778   8.998  0.2755  0.0941 -0.0122
44448W        W87386  29.821  15.459   8.702  0.2377 -0.0818 -0.0602
44449W        W87387  29.889  13.242   9.648 -0.2851  0.6051  0.0957
44450W        W87388  31.890  12.488   8.871  0.1101  0.0484  0.1798
44451W        W87389  28.170  14.117   7.910  0.0118 -0.1645 -0.2616
44452W        W87390  31.586  11.736  10.273 -0.1365 -0.0254 -0.2911
44453W        W87391  31.615  10.898  10.678 -0.4178 -0.2807 -0.1086
44454W        W87392  30.203  14.256   7.856  0.3645 -0.2233  0.0715
44455W        W87393  31.079  12.425   9.976 -0.0276 -0.1730  0.3704
44456W        W87394  30.622  15.690   9.752  0.2860 -0.2125  0.3660
44457W        W87395  30.317  14.599   8.834 -0.0997 -0.2799  0.1472
44458W        W87396  33.386  12.267   8.883 -0.3266  0.1569 -0.0955
44459W        W87397  31.584  12.141   8.245 -0.2494 -0.2804 -0.2911
44460W        W87398  32.175  12.237   8.465  0.0700 -0.1192  0.2367
44461W        W87399  32.610  12.065  10.361  0.2012 -0.0767  0.0307
44462W        W87400  30.081  14.629  10.526  0.1248 -0.0258 -0.0539
44463W        W87401  30.775  11.292   9.828  0.1343 -0.2886  0.0154
44464W        W87402  30.400  13.330   8.639 -0.0036  0.5023  0.0043
44465W        W87403  31.113  11.781  11.155  0.0949 -0.0188  0.3527
44466W        W87404  31.147  11.555  11.859  0.2371 -0.0800  0.0257
44467W        W87405  30.790  11.988   9.041  0.0878  0.0556 -0.1460
44468W        W87406  31.689  14.219   8.479 -0.2556  0.0609 -0.1696
44469W        W87407  33.682  13.336   9.260  0.2755  0.0243 -0.0092
44470W        W87408  31.045  13.850   7.822 -0.1770  0.1858  0.0235
44471W        W87409  29.994  14.393   9.567  0.1190  0.0878  0.2958
44472W        W87410  29.370  11.742   8.532  0.1983 -0.1303  0.2257
44473W        W87411  32.948  12.835  10.693 -0.0044 -0.0682 -0.1262
44474W        W87412  29.147  13.506   9.859 -0.3902  0.2944 -0.1108
44475W        W87413  33.926  12.090  11.610  0.1574 -0.0290  0.1418
44476W        W87414  31.046  13.224   8.871 -0.0302 -0.0748  0.1634
44477W        W87415  31.545   9.544  11.145 -0.1445 -0.0926 -0.0220
44478W        W87416  31.708  11.785   9.717  0.0146 -0.2506  0.1716
44479W        W87417  28.737  12.334   8.195 -0.1572  0.1258  0.0926
44480W        W87418  30.504  14.617   8.114  0.3717  0.2169  0.2710
44481W        W87419  32.072  12.923   9.025  0.0136 -0.2019  0.1458
44482W        W87420  33.790  12.825   9.140 -0.0133  0.0125 -0.2850
44483W        W87421  34.575  13.410  10.800  0.2801 -0.2529 -0.2011
44484W        W87422  29.905  14.809   8.182  0.2432  0.3755  0.2391
44485W        W87423  28.843  14.137   9.270 -0.0334 -0.0486 -0.1409
44486W        W87424  28.026  14.029   8.654  0.0026  0.3974 -0.2152
44487W        W87425  32.167  14.343  10.000 -0.0711 -0.1593  0.2246
44488W        W87426  31.678  12.746  10.732 -0.0823 -0.2606  0.1115
44489W        W87427  33.024  11.931   9.134 -0.0483 -0.2036 -0.2042
44490W        W87428  32.384  12.047  11.859 -0.1704 -0.1487  0.0787
44491W        W87429  28.643  13.247   7.757  0.1134 -0.0835  0.0507
44492W        W87430  32.320  13.413   8.910  0.0292  0.0535 -0.1068
44493W        W87431  34.122  13.095   9.377 -0.2220  0.0572  0.0552
44494W        W87432  31.284  14.253   7.749 -0.2212  0.0848  0.0609
44495W        W87433  29.391  13.992   8.484  0.1866  0.0581 -0.0634
44496W        W87434  30.122  11.167   8.618  0.0685 -0.0657 -0.1034
44497W        W87435  32.474   9.904  10.157  0.0169 -0.1821 -0.1166
44498W        W87436  29.120  11.897   7.922 -0.0782  0.1091 -0.1531
44499W        W87437  31.746  11.021   9.335 -0.0222  0.1450  0.2723
44500W        W87438  29.723  13.292   9.025  0.1583  0.1614  0.1796
44501W        W87439  28.757  13.313   8.807 -0.0168  0.2922  0.2792
44502W        W87440  30.902  14.967   8.210  0.0931 -0.0393  0.0865
44503W        W87441  33.799  13.844  10.123 -0.2842  0.0931 -0.3959
44504W        W87442  31.629  13.561   9.687 -0.0388 -0.1441  0.1136
44505W        W87443  30.142  12.475   9.785  0.2336 -0.0848  0.0850
44506W        W87444  29.204  12.224   8.330  0.0113 -0.2875 -0.0389
44507W        W87445  29.706  15.753   9.858  0.2450  0.1574 -0.1894
44508W        W87446  31.992  12.192   9.877  0.0001  0.1622 -0.0371
44509W        W87447  29.616  12.314   8.672  0.1541 -0.0911 -0.0161
44510W        W87448  32.277  13.840   7.943  0.0270 -0.0191  0.0977
44511W        W87449  30.633  12.970   9.096  0.0003 -0.0061 -0.2318
44512W        W87450  33.855  13.622   9.643  0.0893  0.0981 -0.3208
44513W        W87451  32.341  12.539  11.745  0.4056 -0.0071  0.2639
44514W        W87452  28.843  11.784   8.549 -0.3936  0.0143  0.0362
44515W        W87453  32.777  14.190   9.147  0.1645  0.1498 -0.2610
44516W        W87454  29.152  14.279   8.926 -0.1127 -0.2251 -0.1934
44517W        W87455  30.475  13.331   9.980 -0.0713 -0.2949 -0.0493
44518W        W87456  31.447  12.493   9.124  0.2066 -0.3361 -0.0669
44519W        W87457  33.332  11.904   9.711 -0.0141 -0.0734 -0.1365
44520W        W87458  30.201  12.115   8.768 -0.1695  0.0374 -0.0423
44521W        W87459  31.654  11.559   9.188  0.2996  0.3472 -0.0208
44522W        W87460  32.257  11.282   8.395 -0.0646  0.2568  0.1069
44523W        W87461  32.040  11.337   9.485 -0.1892 -0.0049 -0.0787
44524W        W87462  32.648  11.630   7.670 -0.1730 -0.2247 -0.2703
44525W        W87463  31.728  11.667   6.828 -0.1653 -0.1029 -0.1086
44526W        W87464  32.416  12.353  10.731 -0.2205 -0.2410 -0.0488
44527W        W87465  32.972  12.281  10.671 -0.0422  0.2494 -0.0539
44528W        W87466  31.349  11.978   9.137  0.1566  0.2251 -0.3114
44529W        W87467  31.032  13.175   7.973  0.3270  0.1418 -0.2218
44530W        W87468  27.558  15.170  10.135  0.0312  0.0687  0.1218
44531W        W87469  30.459  14.123   9.606  0.4648 -0.1939  0.0144
44532W        W87470  30.676  10.605  11.171 -0.2979 -0.0979  0.0279
44533W        W87471  30.062  12.400   7.784 -0.3093  0.1858 -0.0451
44534W        W87472  32.420  10.747   9.628 -0.0312  0.0945 -0.0817
44535W        W87473  30.194  14.781   7.738 -0.0299 -0.0671  0.0481
44536W        W87474  30.195  11.396  10.669  0.1846 -0.3574  0.1645
44537W        W87475  31.251  12.044  11.770 -0.3032 -0.2400 -0.3142
44538W        W87476  32.709  12.128   8.638 -0.1791  0.1344 -0.1180
44539W        W87477  32.496  12.638  10.300 -0.3524 -0.2110 -0.0460
44540W        W87478  30.612  13.434   8.119 -0.1608 -0.0023  0.1071
44541W        W87479  30.087  12.519  10.343  0.4555 -0.3170  0.2336
44542W        W87480  31.298  13.126  10.451  0.1178  0.1695 -0.1231
44543W        W87481  31.252  12.742   9.554  0.0589  0.1210 -0.1699
44544W        W87482  31.465  10.641   8.129  0.1466  0.1767  0.2075
44545W        W87483  31.089  14.489   8.156  0.2208  0.0055  0.3669
44546W        W87484  30.788  12.458   9.029  0.0773 -0.1023  0.2804
44547W        W87485  30.824  10.782   9.877 -0.1804  0.1613 -0.1407
44548W        W87486  32.467  13.436  10.460 -0.2392 -0.0190 -0.0667
44549W        W87487  30.220  13.888   7.470 -0.0507  0.0563  0.0624
44550W        W87488  33.375  12.343  11.783 -0.0361  0.0880  0.5095
44551W        W87489  29.683  14.574   7.783  0.1321 -0.1686  0.3659
44552W        W87490  31.935  11.274  10.986  0.1248 -0.0695  0.0621
44553W        W87491  28.315  14.674  10.266 -0.0017  0.0267  0.2052
44554W        W87492  30.811  11.943   8.110 -0.1423  0.0878  0.0007
44555W        W87493  30.062  12.291   9.349  0.2795 -0.0649 -0.0829
44556W        W87494  32.137  11.875  10.825  0.0112  0.0530  0.2502
44557W        W87495  31.443  12.616   8.369  0.0512 -0.0313 -0.2211
44558W        W87496  29.961  11.228   9.610  0.3199  0.0161 -0.0628
44559W        W87497  30.318  10.288  10.634  0.3245  0.0155 -0.2363
44560W        W87498  31.183  15.099  10.279 -0.2104 -0.2269  0.0119
44561W        W87499  32.327  10.257   8.124  0.1944  0.2372 -0.1704
44562W        W87500  29.592  12.125   7.811 -0.0868  0.2453 -0.0887
44563W        W87501  32.150  11.716  11.619  0.1332 -0.2564 -0.1866
44564W        W87502  31.448  11.089   8.948 -0.2789  0.0999 -0.2188
44565W        W87503  28.891  14.138   8.492  0.2839  0.1753 -0.1419
44566W        W87504  32.260  11.937   9.494 -0.0180  0.0953  0.2905
44567W        W87505  29.532  13.754   7.938 -0.1920 -0.2718  0.1994
44568W        W87506  28.187  14.555   9.766  0.0875 -0.0982 -0.1352
44569W        W87507  32.500  13.560   9.672  0.1672 -0.1138 -0.0242
44570W        W87508  31.340  10.697   9.954 -0.1648  0.0565  0.1306
44571W        W87509  30.036  12.509   8.341  0.0968  0.1613 -0.0853
44572W        W87510  31.146  12.736   8.769 -0.1736  0.0021  0.0635
44573W        W87511  30.641  11.798   9.864  0.2472 -0.1387 -0.0838
44574W        W87512  30.761  12.072  10.962 -0.3000  0.2699 -0.1095
44575W        W87513  31.504  11.138  11.594  0.1020  0.2200  0.1051
44576W        W87514  32.870  13.823   8.290  0.2577  0.1646  0.0599
44577W        W87515  29.040  13.080   8.430  0.3273  0.2327 -0.0089
44578W        W87516  27.262  14.290   9.181 -0.0709  0.0361 -0.3837
44579W        W87517  30.492  15.173   7.587  0.0761  0.1418 -0.1353
44580W        W87518  29.822   8.982  10.228  0.2386  0.1282  0.4215
44581W        W87519  31.510  12.708  10.226 -0.0103  0.1182  0.2006
44582W        W87520  29.560  14.101   9.237  0.0295  0.1231 -0.0966
44583W        W87521  31.512  13.046   9.855  0.1382  0.1281  0.1045
44584W        W87522  30.783  11.048   9.348 -0.0625 -0.3705 -0.1387
44585W        W87523  32.210  12.881  10.628 -0.0560 -0.1463  0.0382
44586W        W87524  30.514  12.209   9.610  0.1472 -0.1247  0.0858
44587W        W87525  32.202  12.207   7.903  0.1715  0.1836 -0.2652
44588W        W87526  29.352  11.909   9.885 -0.2253 -0.0411  0.0092
44589W        W87527  30.940  12.032  10.225 -0.0454  0.2546 -0.2451
44590W        W87528  31.233  11.710   8.040 -0.3104 -0.1144 -0.0618
44591W        W87529  30.896  11.205   7.420 -0.2571  0.0970 -0.0803
44592W        W87530  30.119  14.790   9.307 -0.0743  0.2450 -0.2954
44593W        W87531  33.440  13.510  10.346 -0.0446 -0.1358 -0.1568
44594W        W87532  29.891  14.054   8.709  0.0532 -0.2559  0.1302
44595W        W87533  33.026  12.067  11.350 -0.1876 -0.0821  0.0347
44596W        W87534  30.766  12.627   9.595 -0.0774 -0.3946 -0.0576
44597W        W87535  32.192  12.226  11.356  0.1085  0.2688  0.0241
44598W        W87536  31.201  12.233   7.954  0.0659 -0.2696  0.3964
44599W        W87537  29.227  14.921   9.252  0.2429 -0.1260 -0.2359
44600W        W87538  31.005  12.183   9.419  0.2301  0.3500 -0.2919
44601W        W87539  32.460  11.503  10.248  0.1635  0.0365 -0.2515
44602W        W87540  32.856  13.825   9.768 -0.0909 -0.0352  0.0523
44603W        W87541  32.424  12.584   8.711 -0.2190 -0.1323 -0.3102
44604W        W87542  32.597  11.793  11.383  0.0314  0.1716  0.0696
44605W        W87543  32.482  12.613   9.190  0.1194 -0.2076  0.2262
44606W        W87544  32.410  12.119   9.030 -0.1286  0.2585  0.0076
44607W        W87545  30.240  10.941  10.431 -0.1282  0.0395 -0.0135
44608W        W87546  30.455  12.734   7.382  0.0612 -0.1080  0.1517
44609W        W87547  31.305  13.874   9.009  0.0037  0.1081  0.0494
44610W        W87548  32.860  13.023  11.457  0.1556  0.2995 -0.0981
44611W        W87549  30.889  13.688   8.830 -0.3587  0.2358  0.2170
44612W        W87550  29.701  12.266  10.188 -0.1482  0.2483 -0.0427
44613W        W87551  29.814  12.061   8.269  0.4245  0.0657 -0.1502
44614W        W87552  29.856  13.505   8.609 -0.1429 -0.0986  0.2276
44615W        W87553  29.137  13.888  10.169  0.0357 -0.1080  0.1220
44616W        W87554  30.536  10.896   8.976 -0.0568  0.1653 -0.0931
44617W        W87555  28.306  14.357   8.343  0.1282 -0.0280 -0.0452
44618W        W87556  32.065  11.464  10.499 -0.0337 -0.1362  0.2688
44619W        W87557  30.994  14.869   9.334  0.1658 -0.3143 -0.0863
44620W        W87558  29.573  14.428   8.661 -0.0596  0.2312 -0.0330
44621W        W87559  31.343  11.337  10.589 -0.3604 -0.1988 -0.0126
44622W        W87560  32.010  12.485  10.324  0.4560 -0.0799 -0.0751
44623W        W87561  30.527  15.214  10.041  0.1492  0.0029  0.1747
44624W        W87562  30.378  13.029   9.599 -0.0583 -0.3460  0.0206
44625W        W87563  31.296  11.253   9.417  0.1273  0.2053  0.0699
44626W        W87564  31.156  13.431   9.345  0.0400 -0.2668  0.0686
44627W        W87565  32.087  11.958  10.310  0.1821 -0.2765  0.1366
44628W        W87566  30.651  10.563  10.275  0.1798 -0.2345  0.1595
44629W        W87567  31.100  14.128   8.608 -0.0055  0.1440  0.0181
44630W        W87568  29.008  11.109   9.449  0.1053  0.0470  0.3030
44631W        W87569  30.110  14.424   8.390 -0.0325 -0.5039 -0.1123
44632W        W87570  30.976  12.696   8.247  0.1251  0.0950 -0.0153
44633W        W87571  31.343  12.964   9.126  0.0855 -0.4304 -0.2154
44634W        W87572  32.158  14.230   8.900  0.2417 -0.0028  0.3742
44635W        W87573  28.906  12.063   6.858  0.1356  0.1658 -0.3395
44636W        W87574  29.729  15.062   9.474 -0.1852  0.2707 -0.3855
44637W        W87575  28.373  14.535   7.781  0.1452  0.1701 -0.0124
44638W        W87576  31.970  13.761   8.902  0.2521 -0.0274 -0.0443
44639W        W87577  28.771  14.648   9.158 -0.3152  0.1591 -0.7555
44640W        W87578  33.072  11.273   5.648 -0.0214  0.0078 -0.0763
44641W        W87579  32.838  13.092  10.238  0.1697 -0.2762  0.0326
44642W        W87580   0.531  10.986  11.743  0.0597 -0.0883 -0.3438
44643W        W87581  30.935  11.669   9.410 -0.0747  0.3230 -0.0909
44644W        W87582  31.037  10.378   8.115 -0.0001 -0.1459 -0.1477
44645W        W87583  32.836  12.706   9.486  0.0283 -0.2222 -0.1209
44646W        W87584  30.366  11.905   9.271 -0.1668 -0.4247  0.1687
44647W        W87585  31.098  12.905  10.073  0.0890  0.0223 -0.1580
44648W        W87586  32.361  11.061  11.967 -0.2374  0.0654 -0.0059
44649W        W87587  30.270  13.709   8.927 -0.2267 -0.0914  0.0567
44650W        W87588  30.543  12.404  10.571  0.0572 -0.1295  0.3432
44651W        W87589  31.005  15.488   8.617  0.0582 -0.2304 -0.0589
44652W        W87590  30.669  13.449   9.237 -0.0005  0.2259 -0.0732
44653W        W87591  33.053  16.443   9.716 -0.4239 -0.3354 -0.0223
44654W        W87592  29.167  13.432   7.805 -0.1977  0.1823 -0.1696
44655W        W87593  32.076  10.620   9.279 -0.2687 -0.2390 -0.0749
44656W        W87594  29.648  13.649   9.690  0.3460 -0.2771 -0.0021
44657W        W87595  29.679  14.548   9.170 -0.1592  0.0680 -0.2093
44658W        W87596  31.243  12.330  11.019  0.1336  0.1580 -0.0593
44659W        W87597  31.754  11.170  10.209  0.0216 -0.0080  0.1714
44660W        W87598  28.450  15.233  10.331  0.0323  0.1308 -0.2004
44661W        W87599  31.353  11.226   8.457  0.1503  0.1811  0.0073
44662W        W87600  32.297  12.429   7.417  0.1632 -0.1257 -0.2859
44663W        W87601  31.375  11.327   9.921 -0.0388 -0.3275 -0.0152
44664W        W87602  31.791  10.963   8.532  0.0480 -0.1231  0.1998
44665W        W87603  30.102  14.938   9.836 -0.2765 -0.0350 -0.1975
44666W        W87604  30.705  11.152  10.340 -0.0643 -0.1573 -0.3180
44667W        W87605  29.354  12.825   9.309  0.0374 -0.1262 -0.1044
44668W        W87606  30.906  13.167   8.421  0.0019  0.2486  0.1418
44669W        W87607  31.668  12.201  11.247  0.0497  0.0923 -0.5829
44670W        W87608  30.245  15.459   7.010 -0.2714 -0.1002 -0.3660
44671W        W87609  32.879  11.656  10.605 -0.1217  0.0888 -0.0383
44672W        W87610  32.762  13.538   9.170  0.1458 -0.1473 -0.2245
44673W        W87611  29.449  13.457   8.330 -0.0466 -0.0031  0.1749
44674W        W87612  32.047  13.804  10.158 -0.3008  0.0764  0.0803
44675W        W87613  33.797  14.162  11.055 -0.0393  0.0996  0.0687
44676W        W87614  32.595  11.640   9.221  0.0764  0.0388 -0.1149
44677W        W87615  31.126  12.431  10.467  0.0534 -0.0327  0.0917
44678W        W87616  29.302  15.337   9.535  0.3396  0.1388  0.0537
44679W        W87617  33.170  11.297  10.660  0.5817 -0.2301 -0.2738
44680W        W87618  30.161  13.719   6.993 -0.3820 -0.1799  0.0070
44681W        W87619  31.587  14.712   9.345 -0.0385  0.2083  0.3001
44682W        W87620  30.263  14.214   9.152  0.2689  0.1819 -0.1122
44683W        W87621  31.249  13.866   9.537 -0.1365  0.0001  0.1156
44684W        W87622  30.643  15.031   8.594  0.2094  0.2706  0.0551
44685W        W87623  31.630  12.886   8.725  0.1923  0.0461 -0.0356
44686W        W87624  33.762  12.026   8.727 -0.0237  0.1119  0.0372
44687W        W87625  32.924  13.622  10.279  0.2176  0.0194  0.1243
44688W        W87626  30.940  11.070   8.704  0.0125 -0.2115  0.1313
44689W        W87627  31.130  11.831   9.815 -0.0414  0.0993  0.2497
44690W        W87628  33.079  11.952  10.127  0.0042 -0.2335  0.0854
44691W        W87629  31.085  14.577  10.472  0.0699 -0.0314  0.0839
44692W        W87630  29.363  12.999   8.008  0.2233 -0.0375  0.0657
44693W        W87631  29.309  13.825   7.494  0.0748  0.1586  0.2088
44694W        W87632  30.553  12.794  10.085 -0.0128 -0.2077 -0.0083
44695W        W87633  30.017  14.032   9.889  0.1721  0.1433  0.0066
44696W        W87634  30.226  11.638   8.758  0.1750 -0.3333 -0.1334
44697W        W87635  31.997  12.537   9.323  0.0080 -0.3382 -0.0682
44698W        W87636  30.497  10.013   9.485 -0.2072  0.0228  0.1011
44699W        W87637  30.162  11.299   9.144 -0.0280 -0.2992 -0.0242
44700W        W87638  31.735  13.047   9.414  0.0177 -0.0173 -0.1444
44701W        W87639  32.353  12.494   9.711 -0.1958 -0.1022 -0.0565
44702W        W87640  32.122  10.325   9.688 -0.1051 -0.0681 -0.1274
44703W        W87641  28.478  13.834   8.469  0.0945 -0.0082 -0.2652
44704W        W87642  28.793  11.864   9.062  0.0483  0.3350 -0.1553
44705W        W87643  33.241  11.668  11.137 -0.0623 -0.0962  0.3163
44706W        W87644  31.643  12.234  10.705 -0.0750  0.0843  0.2258
44707W        W87645  31.932  15.090   8.394 -0.0590  0.2306  0.0078
44708W        W87646  29.878  10.443  10.220  0.0965 -0.0881 -0.1281
44709W        W87647  31.480  12.232   9.578 -0.1950  0.5785 -0.2456
44710W        W87648  31.919  13.303   8.397 -0.0162 -0.2843  0.1733
44711W        W87649  31.491  11.309  11.133  0.1621 -0.1112 -0.2507
44712W        W87650  32.041  12.759   8.385 -0.2223  0.0326 -0.1305
44713W        W87651  32.586  13.313  11.062 -0.0716  0.1872 -0.0468
44714W        W87652  31.977  10.551  10.790 -0.1763 -0.0667 -0.1735
44715W        W87653  31.806  11.963   8.707 -0.0009 -0.1870 -0.1406
44716W        W87654  32.135  15.343   6.928  0.0667 -0.0111 -0.1219
44717W        W87655  30.415  11.471   9.539  0.0500  0.0979  0.2061
44718W        W87656  30.741  11.783   8.610  0.2811  0.0671  0.0672
44719W        W87657  32.536  12.970   9.887 -0.3523  0.0085 -0.0918
44720W        W87658  29.913  13.823   9.261  0.1741  0.2244  0.2551
44721W        W87659  32.728  13.065   9.024 -0.2032 -0.0193 -0.0648
44722W        W87660  32.536  14.897   9.771 -0.3525 -0.0421  0.4068
44723W        W87661  30.808  14.025   9.188 -0.1204  0.0361  0.1604
44724W        W87662  31.932  12.773   9.780 -0.3857  0.2092  0.2546
44725W        W87663  30.292   9.413   9.403 -0.1376 -0.2095  0.3354
44726W        W87664  29.508  14.143   9.784  0.1363  0.2940 -0.1360
44727W        W87665  30.572  11.690  10.428 -0.2198 -0.0165 -0.2646
44728W        W87666  33.614  12.249  10.446  0.1994 -0.0248  0.0312
44729W        W87667  29.747  11.791   8.818 -0.0682  0.0068  0.2493
44730W        W87668  32.595  10.388   7.695 -0.1845  0.1237  0.1748
44731W        W87669  31.735  13.321   8.931  0.2521  0.2693  0.0109
44732W        W87670  33.596  13.480  12.344  0.1740 -0.2971  0.2593
44733W        W87671  30.323  17.203   3.033  0.0639 -0.1930  0.0034
44734W        W87672  30.743  16.054   0.618 -0.1454 -0.0487  0.2010
44735W        W87673  33.966  16.740  31.902 -0.2042 -0.1640 -0.2145
44736W        W87674  34.134  15.435   0.661 -0.0502  0.0280 -0.2756
44737W        W87675  30.011  15.600   0.996  0.3290  0.1287  0.3330
44738W        W87676  32.296  19.418   1.387  0.1891 -0.0284 -0.2467
44739W        W87677  28.970  14.948   4.541 -0.1461  0.2939  0.0867
44740W        W87678  32.506  18.206   1.548 -0.1979  0.0059  0.1876
44741W        W87679  32.545  19.213   2.963  0.0786  0.3055 -0.0857
44742W        W87680  31.425  17.160   0.411  0.1961  0.2220  0.0864
44743W        W87681  30.380  15.056   2.152  0.1984  0.0566 -0.0223
44744W        W87682  31.017  18.061   2.963  0.0968 -0.3019  0.1339
44745W        W87683  30.181  16.191   0.191 -0.0596  0.2214 -0.1743
44746W        W87684  28.948  14.578   2.234 -0.2034  0.1204 -0.2015
44747W        W87685  31.817  14.645   1.837 -0.0320  0.0967  0.0514
44748W        W87686  29.406  17.371  31.361  0.1216 -0.0585  0.2987
44749W        W87687  29.894  15.993   1.387 -0.1216 -0.2063  0.4325
44750W        W87688  31.016  15.839   2.997 -0.0161 -0.0014 -0.0533
44751W        W87689  32.640  19.267   1.024 -0.3044  0.2294  0.3962
44752W        W87690  30.634  14.131   2.621  0.2194  0.3002  0.4169
44753W        W87691  30.923  14.334   3.713 -0.0836 -0.0273  0.1279
44754W        W87692  32.639  16.861   2.237  0.3368 -0.2760 -0.0467
44755W        W87693  29.216  16.689  31.691 -0.3043 -0.2824 -0.1237
44756W        W87694  27.613  15.850   1.469 -0.1048  0.2971 -0.0318
44757W        W87695  31.427  15.923   2.683 -0.2047  0.1597  0.0311
44758W        W87696  30.047  15.303   1.718 -0.0662  0.2417  0.1076
44759W        W87697  33.061  17.497   2.268 -0.1966 -0.0890 -0.0155
44760W        W87698  30.344  18.359   2.228 -0.2529  0.0473 -0.0351
44761W        W87699  30.979  17.130   2.441 -0.1717 -0.2117  0.3928
44762W        W87700  32.343  16.704   4.267 -0.0644  0.1695  0.3645
44763W        W87701  28.513  16.888   0.910 -0.1893 -0.0853  0.3545
44764W        W87702  29.583  16.913   1.281  0.1829 -0.0588 -0.1343
44765W        W87703  31.773  17.440   2.050 -0.3753  0.3456  0.1172
44766W        W87704  32.506  17.007   0.638 -0.0513  0.2147 -0.2785
44767W        W87705  31.793  18.859   2.817  0.2059  0.3102  0.2381
44768W        W87706  29.593  19.267   3.564 -0.2531 -0.0805 -0.1639
44769W        W87707  30.012  17.189   1.027  0.1596 -0.4218 -0.3583
44770W        W87708  31.444  18.891   4.441  0.3136 -0.1165  0.0179
44771W        W87709  30.793  17.543   3.492  0.1459  0.0017 -0.3233
44772W        W87710  31.569  17.856   1.816  0.1810  0.1096  0.2729
44773W        W87711  31.002  16.559   2.350  0.2683 -0.5366 -0.2544
44774W        W87712  31.124  17.931  31.808 -0.0019  0.1092 -0.0507
44775W        W87713  30.959  17.368   1.920  0.0003 -0.0198  0.0934
44776W        W87714  29.332  15.945   4.225  0.2241 -0.0562 -0.2157
44777W        W87715  29.924  16.583   1.338 -0.0469  0.4452  0.1973
44778W        W87716  32.765  15.327   3.093  0.0714 -0.2507 -0.4048
44779W        W87717  29.560  18.215   1.093  0.2288  0.0194 -0.0700
44780W        W87718  31.198  16.618  31.515  0.0647 -0.1356 -0.0481
44781W        W87719  30.355  16.336  31.249 -0.1862  0.2214 -0.1153
44782W        W87720  33.488  16.491   0.512 -0.2493  0.0320  0.4034
44783W        W87721  31.723  14.111   1.342 -0.0396  0.1904 -0.2949
44784W        W87722  30.513  17.427   2.252 -0.2282 -0.0882 -0.1650
44785W        W87723  31.125  14.796   1.350 -0.1257  0.3174  0.0316
44786W        W87724  33.132  18.338   2.912  0.1662  0.1299 -0.1505
44787W        W87725  30.356  16.620   1.108 -0.2404 -0.2626 -0.0677
44788W        W87726  30.825  15.115   2.386 -0.1143 -0.1389  0.0001
44789W        W87727  31.885  17.578   3.031 -0.1143 -0.2227  0.1642
44790W        W87728  28.166  17.939   1.946 -0.0430  0.0933  0.0891
44791W        W87729  32.969  18.181  30.892 -0.2884  0.1730  0.2285
44792W        W87730  32.140  17.877   2.202  0.5267 -0.1003 -0.0247
44793W        W87731  31.592  18.415   0.384  0.2779 -0.0468 -0.1124
44794W        W87732  30.792  16.504   0.929 -0.1758 -0.0866  0.0149
44795W        W87733  29.963  16.112   2.270  0.3832  0.0799 -0.4549
44796W        W87734  28.047  15.210   2.136  0.0617  0.1104 -0.1270
44797W        W87735  30.527  15.038  31.423  0.1122 -0.0134 -0.2229
44798W        W87736  31.588  17.323   4.002  0.2362  0.0521 -0.1042
44799W        W87737  28.095  17.156   3.212 -0.0118 -0.1004  0.0344
44800W        W87738  31.536  16.306   1.238  0.3098  0.1388  0.0692
44801W        W87739  29.158  17.761   1.673 -0.0767  0.0902 -0.0583
44802W        W87740  33.393  16.679   3.127 -0.1030 -0.2182 -0.2888
44803W        W87741  31.671  17.067  31.946  0.1203 -0.1411  0.0126
44804W        W87742  31.629  15.145   2.060  0.1500 -0.1171 -0.0951
44805W        W87743  31.782  13.390   3.656  0.0438  0.2404  0.2504
44806W        W87744  29.787  17.067   0.385  0.0682 -0.2881  0.1634
44807W        W87745  30.295  16.623   1.724 -0.2002  0.1110  0.2296
44808W        W87746  32.250  18.990   2.588 -0.0024  0.1854  0.1316
44809W        W87747  33.165  16.716   1.035 -0.0059 -0.1945  0.2494
44810W        W87748  29.320  15.478   2.126  0.1139  0.0576 -0.2390
44811W        W87749  30.659  14.482   4.263 -0.1345 -0.2330  0.0593
44812W        W87750  30.891  17.672   2.580 -0.1027 -0.0194  0.1106
44813W        W87751  30.990  18.029   1.244 -0.1964  0.1446  0.2775
44814W        W87752  29.304  18.439   2.880 -0.1100  0.0270 -0.0996
44815W        W87753  29.128  18.266   0.829 -0.0169  0.1162  0.2485
44816W        W87754  29.654  15.424   2.960 -0.1081 -0.1785  0.1326
44817W        W87755  29.948  16.269   3.101 -0.3912  0.0219 -0.0786
44818W        W87756  31.520  16.648   0.431 -0.0146 -0.1017 -0.2244
44819W        W87757  29.265  15.686   3.334  0.0203 -0.1425  0.1692
44820W        W87758  32.698  13.343   0.761 -0.0637  0.2023  0.1897
44821W        W87759  31.008  18.449   0.179 -0.2707  0.2484  0.0932
44822W        W87760  32.491  18.435   0.050  0.0817 -0.0690 -0.1934
44823W        W87761   0.259  16.023   0.805  0.0832  0.0573 -0.3812
44824W        W87762  31.745  17.565   0.188 -0.2285  0.0978  0.0905
44825W        W87763  28.605  16.687   2.395  0.0170  0.0345  0.0061
44826W        W87764  29.723  16.017   0.284  0.0868  0.0231 -0.1879
44827W        W87765  29.198  16.244   3.026  0.0399 -0.1175 -0.2165
44828W        W87766  30.081  15.172   1.271 -0.1416  0.3195  0.0897
44829W        W87767  31.605  15.108   3.184 -0.1888 -0.4556 -0.0543
44830W        W87768  31.046  14.613   0.190 -0.0507 -0.2577 -0.0595
44831W        W87769  32.533  15.839   1.340  0.2083 -0.1089 -0.1217
44832W        W87770  31.375  16.820   2.541  0.1968  0.3596 -0.2032
44833W        W87771  28.348  17.224   1.294  0.3909 -0.1645  0.0960
44834W        W87772  31.163  14.458   3.208 -0.0140  0.1498 -0.0334
44835W        W87773  32.459  18.837   0.700  0.1139  0.0673  0.2008
44836W        W87774  32.807  19.533   1.656  0.1040 -0.3170 -0.1137
44837W        W87775  31.956  19.026   1.589 -0.0353  0.0452  0.0145
44838W        W87776  31.398  16.010   3.257  0.2203  0.1350 -0.3742
44839W        W87777  29.586  15.941   0.926  0.3226 -0.0623 -0.0816
44840W        W87778  29.127  17.697   0.844  0.0624  0.2317  0.0534
44841W        W87779  31.326  18.468   2.274  0.1242 -0.1577  0.0305
44842W        W87780  30.833  14.422   1.159  0.1265  0.1361  0.0129
44843W        W87781  32.070  18.818   2.041 -0.3758  0.3564 -0.0033
44844W        W87782  31.842  17.755   1.110 -0.1275  0.0573 -0.1926
44845W        W87783  31.729  16.748   2.146 -0.0865 -0.0313 -0.0348
44846W        W87784  32.290  13.852   2.415  0.1128  0.0857  0.1301
44847W        W87785  31.518  16.672   3.064 -0.0161  0.0813  0.0090
44848W        W87786  30.834  16.727   1.441 -0.2026 -0.0455 -0.0138
44849W        W87787  31.043  13.506   0.982 -0.0597 -0.1693  0.1689
44850W        W87788  32.042  18.822   1.167  0.2963 -0.0804  0.0095
44851W        W87789  29.631  18.879   1.763 -0.1522 -0.2893  0.1314
44852W        W87790  29.285  17.003   1.662 -0.0420  0.2444  0.2313
44853W        W87791  32.281  17.217   1.961  0.1426  0.1557  0.1228
44854W        W87792  30.827  15.669   1.297  0.0421 -0.1529 -0.1272
44855W        W87793  29.952  16.253   3.644  0.2789  0.0777  0.1060
44856W        W87794  31.950  15.276   3.549  0.1601  0.1847 -0.1351
44857W        W87795  29.269  17.400   0.436  0.2943 -0.0421  0.0390
44858W        W87796  28.976  19.516   2.939 -0.0087 -0.3908  0.0910
44859W        W87797  32.571  14.213   2.039  0.0051  0.1462 -0.3641
44860W        W87798  33.085  14.820  31.861 -0.3247 -0.0596  0.1079
44861W        W87799  30.670  16.927   3.203  0.0774  0.1043 -0.0387
44862W        W87800  33.707  15.711   0.745  0.0151 -0.0244 -0.0233
44863W        W87801  32.065  16.216   1.176  0.0170  0.2426 -0.0735
44864W        W87802  30.672  15.874   0.139  0.1544 -0.1744  0.1346
44865W        W87803  29.552  16.653   2.638  0.1051  0.3833  0.0283
44866W        W87804  31.253  16.652   0.941 -0.3325  0.0540  0.0693
44867W        W87805  30.101  17.659   1.689  0.1003 -0.0712 -0.2503
44868W        W87806  30.300  15.772   0.568  0.1361 -0.1790 -0.0412
44869W        W87807  32.697  17.144   0.133  0.3135  0.3382 -0.1960
44870W        W87808  28.337  16.919   2.832 -0.2241 -0.0373  0.2001
44871W        W87809  31.626  17.978   2.332  0.0295  0.2443 -0.1864
44872W        W87810  31.843  18.277   1.946  0.0023 -0.0152  0.1158
44873W        W87811  31.316  14.701   1.845  0.3942  0.0222  0.0807
44874W        W87812  30.632  16.451   0.247 -0.3725 -0.0361 -0.1578
44875W        W87813  30.871  17.092   0.248 -0.1582  0.0119  0.0080
44876W        W87814  29.594  18.590   0.583 -0.1112 -0.0228 -0.2692
44877W        W87815  31.970  14.381   2.612 -0.0032 -0.2350 -0.1022
44878W        W87816  31.324  15.722   1.327  0.3363  0.2621  0.2763
44879W        W87817  31.965  14.818   4.003 -0.2935 -0.0534 -0.2200
44880W        W87818  33.212  16.477   3.855  0.1313 -0.1121 -0.1009
44881W        W87819  31.138  16.205   1.490 -0.0971 -0.0099  0.1899
44882W        W87820  31.024  18.055   2.273  0.1431  0.2466  0.3540
44883W        W87821  29.804  16.870   1.728  0.2054  0.0853 -0.1258
44884W        W87822  31.146  15.754   1.760 -0.5473  0.2757  0.3993
44885W        W87823  29.717  15.701   1.872  0.2825 -0.1058  0.4567
44886W        W87824  29.680  17.147   2.182  0.2059 -0.0014  0.0274
44887W        W87825  32.045  17.078   2.389 -0.1221  0.0749 -0.0185
44888W        W87826  30.573  15.059   1.252 -0.2763  0.0690  0.0913
44889W        W87827  31.379  15.487   3.006 -0.0291 -0.3787  0.2400
44890W        W87828  32.320  15.097   0.581  0.1174  0.2595  0.1480
44891W        W87829  31.308  17.618   1.432 -0.3506  0.1257 -0.2085
44892W        W87830  30.110  18.050  31.773 -0.2731  0.1742  0.0831
44893W        W87831  30.872  14.459   1.742 -0.0892 -0.0163 -0.0663
44894W        W87832  32.002  16.596   3.150 -0.1203  0.1694  0.0720
44895W        W87833  31.034  19.363   0.084  0.3354 -0.2087 -0.2172
44896W        W87834  32.083  15.796   4.173 -0.1484  0.0681  0.0675
44897W        W87835  29.302  17.860   0.303  0.0442  0.0872 -0.1759
44898W        W87836  31.912  15.398   2.907 -0.0807  0.1882  0.2698
44899W        W87837  30.549  17.917   2.136  0.0362  0.0974  0.0140
44900W        W87838  30.307  17.823   0.238 -0.2064  0.2125 -0.0218
44901W        W87839  28.824  16.914   0.377  0.0995  0.0908  0.0607
44902W        W87840  32.623  15.276   1.816  0.1235 -0.0011  0.1561
44903W        W87841  32.360  17.758   1.261 -0.0200  0.0754  0.0219
44904W        W87842  30.465  14.575   2.689 -0.0255  0.0144 -0.0548
44905W        W87843  31.994  14.737   0.929  0.0172 -0.1986  0.0997
44906W        W87844  30.609  16.298   1.492 -0.0880  0.2968 -0.0433
44907W        W87845  32.479  16.810   3.173 -0.0127 -0.1248  0.0579
44908W        W87846  31.882  13.518  31.117 -0.2399  0.0271  0.2008
44909W        W87847  32.348  17.172   2.849  0.0460  0.1323  0.1229
44910W        W87848  30.461  17.214   3.650  0.1506 -0.1317  0.0646
44911W        W87849  29.839  16.568  31.479 -0.2243 -0.2647  0.0847
44912W        W87850  32.411  13.926   4.009  0.2285  0.0561 -0.1168
44913W        W87851  31.812  15.567   1.825 -0.0003 -0.1536  0.0801
44914W        W87852  29.046  18.074   1.271 -0.1042  0.3684 -0.3058
44915W        W87853  31.393  18.094   3.340 -0.2621 -0.1967  0.0549
44916W        W87854  30.392  16.460   0.653  0.3007 -0.1689  0.1161
44917W        W87855  29.304  16.426   1.598 -0.0842 -0.2660  0.2931
44918W        W87856  29.017  15.505   4.266 -0.1798  0.1098 -0.0599
44919W        W87857  31.847  15.836   2.463 -0.0597 -0.4035  0.0646
44920W        W87858  30.812  16.646   2.802 -0.0467  0.0945  0.0838
44921W        W87859  31.691  17.214   1.211 -0.2624  0.3378 -0.2125
44922W        W87860  31.494  15.029   4.024 -0.2788  0.4058 -0.1392
44923W        W87861  32.199  16.452   3.594 -0.0387 -0.2515 -0.1068
44924W        W87862  30.795  15.707   3.962  0.2646 -0.1898  0.0046
44925W        W87863  30.078  17.671   3.171 -0.1491 -0.1011 -0.0133
44926W        W87864  32.197  15.650   1.010 -0.2033  0.1115  0.1038
44927W        W87865  33.568  19.222   1.074 -0.2267  0.2950 -0.1237
44928W        W87866  31.626  16.039   1.710 -0.1797  0.0084 -0.3314
44929W        W87867  31.294  17.805   0.987  0.1179  0.0500  0.3129
44930W        W87868  28.481  17.611   2.199  0.0768 -0.1640  0.2778
44931W        W87869  29.461  15.967   1.517 -0.4585 -0.0108  0.1361
44932W        W87870  32.037  13.781   2.874 -0.2224 -0.1993 -0.2694
44933W        W87871  30.591  17.408   1.572  0.1228 -0.0842 -0.1267
44934W        W87872  30.173  19.623   0.585  0.1993  0.2142  0.0216
44935W        W87873  29.361  17.433   2.663 -0.0619 -0.1182  0.0239
44936W        W87874  32.140  13.981   0.385  0.1539  0.5308  0.1493
44937W        W87875  32.029  16.894  31.554  0.1181 -0.0976 -0.0366
44938W        W87876  30.795  13.841   2.214 -0.0824 -0.2247 -0.0066
44939W        W87877  32.857  13.944   3.822 -0.3456 -0.2010  0.0329
44940W        W87878  32.051  15.874  30.636 -0.2580 -0.3463  0.1756
44941W        W87879  31.421  14.559   3.855  0.4449 -0.1473 -0.0039
44942W        W87880  30.557  15.650   2.871  0.3116 -0.3469 -0.1181
44943W        W87881  32.907  16.509   1.974 -0.0586  0.2078  0.2361
44944W        W87882  30.777  14.560   2.222 -0.0285 -0.1651  0.0766
44945W        W87883  30.593  18.908   4.160 -0.1235  0.4820 -0.1991
44946W        W87884  30.421  16.487   3.366 -0.2667 -0.1703  0.0130
44947W        W87885  31.776  15.317   0.711  0.0779 -0.1212  0.0993
44948W        W87886  31.058  13.983   1.014  0.0664  0.1040  0.0620
44949W        W87887  31.328  17.578   2.272 -0.2655  0.0193 -0.0706
44950W        W87888  33.049  16.258   2.396 -0.0794  0.1703  0.1017
44951W        W87889  30.843  17.550   1.117 -0.0571 -0.1806 -0.0312
44952W        W87890  32.765  17.361   1.803  0.1847  0.0691  0.1199
44953W        W87891  30.813  17.418   3.009 -0.0208 -0.0543  0.3036
44954W        W87892  31.249  16.953   2.047 -0.0467  0.1134  0.1560
44955W        W87893  30.122  17.444   0.545 -0.2652  0.2650  0.0383
44956W        W87894  29.852  16.275   1.800 -0.0829  0.0586  0.1819
44957W        W87895  29.829  14.342   1.559  0.3667  0.1431 -0.0778
44958W        W87896  31.610  16.373   2.465 -0.1391  0.1099 -0.0664
44959W        W87897  33.146  15.289   1.007 -0.0159  0.0539 -0.0138
44960W        W87898  31.207  14.846   2.303 -0.2206  0.1295 -0.1161
44961W        W87899  31.879  16.103   2.956 -0.0260 -0.0034  0.2358
44962W        W87900  31.138  16.953   2.968  0.0002 -0.0802  0.0088
44963W        W87901  28.820  14.974   5.042  0.2671  0.2469  0.1723
44964W        W87902  32.094  19.793   2.418 -0.0281  0.1988 -0.0435
44965W        W87903  33.120  15.561  31.336 -0.3134 -0.0883  0.5134
44966W        W87904  31.996  14.238   2.136 -0.1158  0.1012  0.1127
44967W        W87905  32.611  16.839   1.170  0.1615  0.1487  0.0867
44968W        W87906  30.971  16.934   0.693  0.1359  0.0813  0.0184
44969W        W87907  29.541  14.643   1.943  0.0894  0.0524  0.4867
44970W        W87908  32.089  18.109   3.179  0.0050  0.0779  0.0717
44971W        W87909  30.517  15.996   1.041 -0.0089  0.0826 -0.1068
44972W        W87910  31.154  15.597   3.435  0.1461  0.1663 -0.1332
44973W        W87911  31.092  18.228   0.724 -0.0609 -0.0533  0.2176
44974W        W87912  32.351  16.457   1.542  0.0508 -0.0490  0.0250
44975W        W87913  31.118  15.901   0.358  0.2384  0.3528 -0.2435
44976W        W87914  29.050  15.061   2.072 -0.3958 -0.1172  0.0588
44977W        W87915  29.262  18.102   3.325  0.0189 -0.0688 -0.2060
44978W        W87916  29.640  17.013  29.231 -0.1843  0.0780 -0.0874
44979W        W87917  32.098  16.907   1.572 -0.0467 -0.0463  0.4951
44980W        W87918  32.615  16.595   2.626  0.1632  0.2945 -0.0134
44981W        W87919  32.916  16.712   3.366 -0.0166 -0.2174  0.1730
44982W        W87920  30.412  13.688   1.708  0.0689  0.1205 -0.0835
44983W        W87921  32.505  15.343   2.304  0.1562  0.0685 -0.1696
44984W        W87922  29.528  17.124  30.832 -0.0432  0.0104  0.0373
44985W        W87923  31.586  14.548   2.243 -0.0163  0.1722 -0.0955
44986W        W87924  30.830  18.316   1.870  0.0620 -0.0328  0.1679
44987W        W87925  30.219  17.091   1.463  0.0546  0.0013  0.2374
44988W        W87926  31.664  17.037   1.761 -0.1209 -0.1749  0.0474
44989W        W87927  31.936  13.500   2.477  0.0689  0.2997 -0.2276
44990W        W87928  32.878  15.701   1.665 -0.3403 -0.1673 -0.1292
44991W        W87929  30.625  17.068   1.104 -0.4689  0.1342  0.0591
44992W        W87930  32.537  16.268   2.274  0.4189  0.2560  0.1278
44993W        W87931  31.448  17.871   2.759 -0.2816  0.1426  0.2408
44994W        W87932  29.097  16.725   1.183 -0.0644 -0.0982 -0.0587
44995W        W87933  32.070  18.059   2.622  0.0867  0.0183 -0.0468
44996W        W87934  32.601  16.892   1.677 -0.0511  0.2476  0.1526
44997W        W87935  31.270  17.280   0.875 -0.0684  0.4057  0.0727
44998W        W87936  28.752  16.004   2.834  0.0738 -0.0458 -0.3546
44999W        W87937  30.729  16.103   3.302 -0.0055 -0.3155  0.1413
45000W        W87938  31.686  18.086   0.741  0.1827  0.0612  0.2908
45001W        W87939  30.734  15.416   0.668 -0.1167  0.0191  0.1227
45002W        W87940  31.145  17.633   0.543 -0.0375  0.0071 -0.2218
45003W        W87941  29.741  17.548   5.628  0.1991 -0.2201  0.4262
45004W        W87942  28.479  16.363   2.040 -0.0507 -0.3395  0.0226
45005W        W87943  28.738  17.951   1.883  0.3063  0.1464  0.2090
45006W        W87944  31.964  17.467   1.580 -0.1827 -0.0047  0.2313
45007W        W87945  31.872  16.500   1.699 -0.2633 -0.2208 -0.0639
45008W        W87946  31.451  18.952   2.423  0.1823 -0.0136 -0.3418
45009W        W87947  31.015  15.264   1.061  0.5076  0.1888 -0.0013
45010W        W87948  30.225  15.580   2.139 -0.0007 -0.1634 -0.1028
45011W        W87949  29.506  17.693   1.274  0.0052  0.2178 -0.1119
45012W        W87950  32.369  17.405  31.097  0.0752  0.0210 -0.2470
45013W        W87951  29.639  18.010   1.630  0.2081  0.1675  0.1906
45014W        W87952  32.275  17.273   3.356  0.0779  0.2000  0.0201
45015W        W87953   0.371  13.830  31.233 -0.0155  0.0123 -0.1229
45016W        W87954  33.676  16.148   1.736  0.2303  0.0759  0.1088
45017W        W87955  32.863  16.550   0.670  0.2477 -0.1286  0.1697
45018W        W87956  30.454  17.455   4.498 -0.3233 -0.0081 -0.1965
45019W        W87957  30.060  15.759   2.878 -0.3612 -0.2735  0.1886
45020W        W87958  31.061  14.751   0.803  0.4206 -0.0168  0.0167
45021W        W87959  29.801  15.666   2.378  0.2090  0.1527 -0.0703
45022W        W87960  33.118  13.886   4.244  0.1520  0.3807  0.0039
45023W        W87961  29.052  19.419   3.452  0.1172  0.1460 -0.0672
45024W        W87962  32.936  17.758   0.743 -0.5035  0.1215 -0.1104
45025W        W87963  29.799  16.536   0.041  0.0467 -0.5910  0.1082
45026W        W87964  30.289  15.699   1.396 -0.0076  0.1290 -0.2791
45027W        W87965  32.706  13.315   2.152  0.0864 -0.2987  0.0650
45028W        W87966  30.865  16.914  31.284  0.2754 -0.0067 -0.0232
45029W        W87967  30.818  16.097   1.881  0.0223  0.1269 -0.1540
45030W        W87968  31.502  18.968   1.294 -0.0982  0.0001 -0.1665
45031W        W87969  31.417  18.629   3.739 -0.1688  0.1401 -0.0662
45032W        W87970  31.248  18.960   2.845  0.2023 -0.0826 -0.0826
45033W        W87971  30.074  14.614   1.978  0.2177 -0.0658  0.1875
45034W        W87972  33.326  16.401   1.459 -0.4498 -0.2472  0.1004
45035W        W87973  30.147  16.445   2.612  0.2553 -0.0608  0.0644
45036W        W87974  32.334  13.302   4.127 -0.0502 -0.1636 -0.0349
45037W        W87975  31.883  16.498   0.752  0.2269  0.2272 -0.0908
45038W        W87976  31.946  16.178   2.072 -0.3226  0.0933 -0.1910
45039W        W87977  30.683  16.137   2.749  0.2582 -0.3244 -0.1234
45040W        W87978  31.225  15.382   2.123 -0.2052  0.1744  0.1710
45041W        W87979  30.501  16.993   0.583 -0.1034  0.0844  0.1358
45042W        W87980  33.779  17.001   3.346  0.0261 -0.4783  0.1726
45043W        W87981  31.647  16.611  31.753  0.1245 -0.0063 -0.0939
45044W        W87982  31.021  18.666   4.127 -0.1147 -0.1211  0.0441
45045W        W87983  29.469  15.109   1.724 -0.0446  0.2277 -0.0255
45046W        W87984  30.004  16.226   0.908 -0.1101  0.0878 -0.2925
45047W        W87985  30.846  18.272  31.608  0.0963 -0.2374  0.1065
45048W        W87986  30.932  15.279   3.094 -0.3352  0.1421  0.0379
45049W        W87987  31.666  18.306   2.851  0.1076  0.2876 -0.0878
45050W        W87988  30.820  15.003   1.919  0.0832  0.2293  0.3763
45051W        W87989  32.584  16.075   1.779 -0.1333 -0.1012  0.2187
45052W        W87990  31.733  15.653   3.297 -0.1535 -0.2381  0.3277
45053W        W87991  30.159  18.064   0.629  0.2374 -0.2156  0.0855
45054W        W87992  32.155  16.909   0.981  0.3473  0.1585  0.0220
45055W        W87993  32.422  19.463   2.483  0.2062  0.0849 -0.0696
45056W        W87994  27.665  15.477   2.455  0.2418 -0.0050  0.1215
45057W        W87995  31.193  18.467   2.736  0.0259  0.2219  0.2118
45058W        W87996  32.681  17.830   2.223 -0.0472  0.0102  0.1122
45059W        W87997  31.796  16.734   1.217  0.0929  0.2556  0.1167
45060W        W87998  29.695  15.508   1.400  0.0599  0.0590  0.2571
45061W        W87999  29.462  17.101   0.823 -0.0838 -0.2126  0.0383
45062W        W88000  32.509  14.183   0.817  0.0582  0.1986 -0.0651
45063W        W88001  33.670  15.443   3.290 -0.0479  0.1256  0.1792
45064W        W88002  30.825  18.920   0.491  0.0504  0.0155 -0.1267
45065W        W88003  32.923  13.010   4.301 -0.0451 -0.2173 -0.0463
45066W        W88004  31.181  18.629   3.242  0.0581  0.3279 -0.0267
45067W        W88005  29.237  18.864   3.561  0.0301 -0.4500 -0.0663
45068W        W88006  29.215  17.267   1.271  0.3239 -0.4092 -0.3965
45069W        W88007  30.112  15.851   3.408 -0.1878  0.3783  0.1935
45070W        W88008  32.025  17.990   1.555 -0.1748  0.1668  0.1810
45071W        W88009  30.455  17.898   1.331  0.2636 -0.0598  0.1653
45072W        W88010  32.536  17.413   0.845 -0.0269 -0.4662 -0.3082
45073W        W88011  31.623  15.765   0.385 -0.0139  0.1810  0.1013
45074W        W88012  33.189  18.126   1.409  0.1967 -0.0111  0.2512
45075W        W88013  30.434  15.904   2.379 -0.2037 -0.2850  0.2987
45076W        W88014  32.158  14.931   1.509 -0.1266  0.2679  0.0012
45077W        W88015  32.245  16.039   0.200  0.0017 -0.2176 -0.1399
45078W        W88016  30.007  17.145   3.360  0.0343  0.2355  0.0396
45079W        W88017  29.673  14.849  31.632 -0.1134 -0.0228  0.1866
45080W        W88018  29.745  18.136  31.411  0.0289 -0.0159 -0.0904
45081W        W88019  28.783  16.291   1.431 -0.4339 -0.0367 -0.2833
45082W        W88020  31.642  14.690   5.252 -0.1313 -0.0736 -0.5127
45083W        W88021  30.006  15.614   3.829  0.2028 -0.0954  0.0398
45084W        W88022  28.252  16.125   1.332 -0.3144  0.0610  0.1329
45085W        W88023  31.451  15.842   2.180  0.2115  0.2105  0.2345
45086W        W88024  32.345  17.709   1.792 -0.1782  0.3513  0.1443
45087W        W88025  29.354  15.805   2.788  0.0305  0.1193 -0.0516
45088W        W88026  29.971  13.301   2.425 -0.1337 -0.2864 -0.1702
45089W        W88027  32.012  18.251   1.130 -0.0719 -0.3943 -0.0055
45090W        W88028  32.838  18.031   0.075  0.4733  0.1052  0.1336
45091W        W88029  30.423  16.385   2.189 -0.0230 -0.2353 -0.4136
45092W        W88030  30.801  18.597   3.603  0.0548  0.4833 -0.2276
45093W        W88031  30.324  17.173   0.172 -0.1463  0.0564  0.1016
45094W        W88032  31.333  16.004   3.819 -0.0344 -0.0474  0.2593
45095W        W88033  31.790  15.713   3.790 -0.1998 -0.2017  0.2028
45096W        W88034  29.247  16.187   0.622 -0.0729 -0.1693 -0.0147
45097W        W88035  31.284  15.037   2.785 -0.3990  0.0577 -0.0330
45098W        W88036  32.192  18.562   1.598  0.1034  0.2855 -0.0667
45099W        W88037  32.078  17.351   0.494  0.3450 -0.0568  0.1419
45100W        W88038  31.872  16.725   4.006 -0.3441 -0.0604  0.2304
45101W        W88039  29.857  18.847   3.464 -0.2537 -0.2033  0.0602
45102W        W88040  28.966  14.565   2.928 -0.2035 -0.0675 -0.1708
45103W        W88041  32.356  16.550   0.365 -0.1510 -0.1431 -0.3688
45104W        W88042  30.011  17.561   3.813 -0.1422 -0.2200  0.1411
45105W        W88043  31.696  17.470  31.627 -0.0476 -0.4224  0.1489
45106W        W88044  32.359  14.611   2.939 -0.1375  0.1701 -0.3043
45107W        W88045  29.948  15.259   0.321 -0.1687  0.1607 -0.0787
45108W        W88046  29.424  15.189   4.464  0.1272  0.0268 -0.1084
45109W        W88047  29.602  17.588   3.302  0.0976  0.0299 -0.0627
45110W        W88048  32.756  15.804   2.337 -0.3846  0.1856 -0.2338
45111W        W88049  31.840  16.253   0.289 -0.0548  0.0593  0.1616
45112W        W88050  31.489  15.434   2.519 -0.0595  0.2580  0.0101
45113W        W88051  32.265  17.885   0.812 -0.2877 -0.1291  0.0705
45114W        W88052  29.463  16.052   2.179 -0.0311 -0.0899 -0.3818
45115W        W88053  32.308  15.653   0.510 -0.0142  0.0649 -0.0638
45116W        W88054  30.998  15.564   2.582 -0.0073  0.2500  0.0066
45117W        W88055  31.774  17.006   0.730 -0.2535 -0.3007  0.1091
45118W        W88056  31.865  16.082   3.447  0.0061  0.0844 -0.0913
45119W        W88057  31.111  17.132   1.313 -0.0674  0.0343  0.1746
45120W        W88058  33.561  19.221  30.641 -0.1689  0.1701 -0.1458
45121W        W88059  31.719  18.251   3.695 -0.2881 -0.1982 -0.1191
45122W        W88060  31.453  18.431   4.237 -0.1942 -0.0078 -0.2681
45123W        W88061  31.520  18.910   1.854 -0.1472 -0.0541  0.2992
45124W        W88062  32.098  16.527   2.577 -0.0000  0.0802 -0.1788
45125W        W88063  29.813  14.145   2.038 -0.0951 -0.1736  0.2990
45126W        W88064  30.756  16.628   1.956  0.1530 -0.1711 -0.0012
45127W        W88065  30.141  17.207   1.963  0.0169  0.4384  0.0483
45128W        W88066  31.955  15.364   2.336 -0.0453 -0.0221 -0.2109
45129W        W88067  31.031  16.076   2.385 -0.0605  0.0408 -0.0600
45130W        W88068  33.549  15.667   1.844  0.0246  0.1769  0.0138
45131W        W88069  30.440  19.130   2.863 -0.2239 -0.0567 -0.0497
45132W        W88070  31.294  16.278   1.962  0.1917  0.1078  0.0613
45133W        W88071  31.773  17.313   6.034 -0.0723 -0.2171  0.1952
45134W        W88072  29.535  17.323   4.127  0.2805 -0.0009 -0.1195
45135W        W88073  31.974  14.200   4.001 -0.0690  0.1258  0.1458
45136W        W88074  32.996  16.940   5.135  0.0005  0.1641 -0.0556
45137W        W88075  29.109  15.899   4.688  0.2679 -0.1065 -0.2692
45138W        W88076  32.124  18.547   5.633 -0.2332 -0.0435 -0.0854
45139W        W88077  30.223  14.920   7.140 -0.1817 -0.2530  0.0890
45140W        W88078  32.253  16.530   6.621  0.0985  0.3971 -0.1002
45141W        W88079  31.986  18.945   5.979 -0.0968  0.0408 -0.2590
45142W        W88080  31.675  18.564   3.260  0.3519  0.0058 -0.4145
45143W        W88081  29.469  15.407   7.400 -0.2989 -0.1080  0.1233
45144W        W88082  30.695  15.989   6.237 -0.0731  0.0753 -0.1218
45145W        W88083  30.404  14.902   3.538 -0.0360  0.0640 -0.0460
45146W        W88084  29.384  14.448   6.963 -0.4117  0.1662 -0.1020
45147W        W88085  31.817  16.955   7.637  0.5151  0.0075 -0.1821
45148W        W88086  29.990  15.193   4.096 -0.1395 -0.0461  0.2838
45149W        W88087  30.509  16.575   7.291  0.1076 -0.1162  0.3547
45150W        W88088  30.048  14.092   4.793 -0.0880  0.0568 -0.0530
45151W        W88089  31.743  17.570   4.478  0.0980 -0.0454 -0.1666
45152W        W88090  29.342  15.399   6.745 -0.1481 -0.1596 -0.0927
45153W        W88091  31.528  14.888   7.468  0.1510  0.3035 -0.2948
45154W        W88092  30.510  18.052   5.733 -0.3290 -0.1441  0.0041
45155W        W88093  30.215  15.081   4.548  0.4452  0.0717  0.1678
45156W        W88094  28.691  15.862   4.972  0.1658 -0.1166 -0.0249
45157W        W88095  30.231  16.205   6.199 -0.1438 -0.0884  0.0228
45158W        W88096  32.425  14.741   6.347 -0.2403  0.1268 -0.4593
45159W        W88097  31.898  16.375   5.449  0.1189  0.0130 -0.3474
45160W        W88098  30.605  17.019   5.903 -0.1326  0.0848 -0.0410
45161W        W88099  32.148  17.683   5.839  0.0130 -0.1686  0.4081
45162W        W88100  31.747  16.535   8.043  0.0566  0.1735 -0.1118
45163W        W88101  29.114  17.712   4.682  0.1205 -0.0265 -0.2317
45164W        W88102  27.883  19.090   5.377 -0.2731  0.0480 -0.3762
45165W        W88103  30.460  17.593   3.994  0.0184 -0.1326 -0.1780
45166W        W88104  32.234  19.656   5.685 -0.1782 -0.0601 -0.0153
45167W        W88105  32.963  16.827   6.186 -0.0328  0.0779  0.0849
45168W        W88106  30.513  18.545   5.743 -0.2051 -0.1952 -0.4928
45169W        W88107  29.798  16.741   3.586 -0.1106  0.3585 -0.1177
45170W        W88108  32.128  18.155   6.487 -0.0513  0.0650 -0.1800
45171W        W88109  29.916  16.495   6.460  0.1572  0.0322  0.0031
45172W        W88110  31.175  16.716   6.503 -0.2891 -0.2849  0.1002
45173W        W88111  30.030  17.497   4.828 -0.0732 -0.1180  0.1384
45174W        W88112  32.498  17.821   3.442 -0.0211 -0.1662 -0.4161
45175W        W88113  30.678  17.022   4.627  0.0334 -0.0540  0.0158
45176W        W88114  29.619  16.385   8.323 -0.0543 -0.1312  0.0143
45177W        W88115  29.180  16.631   6.820 -0.0318  0.1336 -0.2928
45178W        W88116  33.747  15.413   7.955  0.0543 -0.1701  0.1887
45179W        W88117  30.568  17.871   3.100  0.3655  0.0395  0.1711
45180W        W88118  31.371  15.467   3.908 -0.2629 -0.0678 -0.2374
45181W        W88119  30.037  16.802   2.952 -0.2434  0.3057  0.0360
45182W        W88120  32.216  15.824   3.140 -0.1434 -0.1571  0.1037
45183W        W88121  29.809  14.493   6.434 -0.2468  0.1155 -0.0289
45184W        W88122  30.038  18.814   5.685  0.0540  0.0208  0.1384
45185W        W88123  30.100  15.151   5.606  0.2175  0.1243 -0.0895
45186W        W88124  33.057  17.087   6.727  0.1493  0.0682 -0.1548
45187W        W88125  30.958  17.084   5.016  0.1706  0.0969 -0.0363
45188W        W88126  32.012  16.737   7.219 -0.0065  0.0035 -0.1109
45189W        W88127  30.094  18.318   5.878  0.2981 -0.1476  0.0663
45190W        W88128  29.641  15.628   4.437  0.1616  0.0331 -0.1176
45191W        W88129  32.296  16.219   4.101 -0.1390  0.3490 -0.1615
45192W        W88130  32.789  19.193   5.843 -0.0963  0.4031  0.1360
45193W        W88131  30.557  18.658   5.192  0.0091  0.0139 -0.1407
45194W        W88132  29.731  16.392   5.323 -0.4597 -0.1838 -0.1609
45195W        W88133  29.949  16.391   7.438  0.0011  0.1012 -0.1775
45196W        W88134  30.331  16.734   6.768 -0.0959 -0.0473 -0.3502
45197W        W88135  30.963  14.832   3.859 -0.0167  0.0071 -0.1944
45198W        W88136  34.173  16.904   8.902  0.0405  0.2566 -0.0628
45199W        W88137  30.585  17.010   7.616  0.1896  0.0644 -0.3014
45200W        W88138  32.847  15.645   4.874 -0.0096 -0.1013 -0.1950
45201W        W88139  30.917  17.750   5.819  0.2405 -0.0037 -0.1513
45202W        W88140  32.542  17.643   6.656  0.1588  0.0601 -0.2766
45203W        W88141  31.801  16.889   5.359 -0.2819 -0.0201 -0.1463
45204W        W88142  31.624  15.137   5.851 -0.1893 -0.0829 -0.0295
45205W        W88143  31.187  15.420   5.633  0.1664  0.1812 -0.0078
45206W        W88144  30.839  16.780   3.764  0.1620 -0.2982 -0.1503
45207W        W88145  30.832  16.495   4.230 -0.1904  0.1452  0.0128
45208W        W88146  33.416  16.719   7.540 -0.1214 -0.0805 -0.0031
45209W        W88147  31.668  15.250   4.804  0.1812 -0.0296  0.1196
45210W        W88148  31.023  18.128   5.417  0.1298 -0.0516 -0.0265
45211W        W88149  31.382  15.852   7.924 -0.2092 -0.0788 -0.1103
45212W        W88150  31.790  17.305   6.577 -0.1217 -0.0673 -0.3197
45213W        W88151  31.867  19.029   4.724  0.1815  0.0697  0.0279
45214W        W88152  29.581  17.226   6.038 -0.0570 -0.0266 -0.2684
45215W        W88153  29.225  17.176   3.314  0.0904 -0.1646 -0.2235
45216W        W88154  29.739  16.246   6.070 -0.1009 -0.0396 -0.0765
45217W        W88155  29.924  16.957   6.473 -0.2830 -0.1036  0.2329
45218W        W88156  31.770  15.352   4.181 -0.0741 -0.0094 -0.1590
45219W        W88157  30.229  15.769   5.942 -0.0644  0.1654 -0.4020
45220W        W88158  32.160  15.299   4.975 -0.1668 -0.1870 -0.0436
45221W        W88159  29.525  16.373   3.390  0.3380 -0.0728 -0.1274
45222W        W88160  32.966  18.132   4.537 -0.3608  0.0732 -0.0616
45223W        W88161  32.365  14.973   4.372 -0.1390 -0.1126 -0.1642
45224W        W88162  31.190  16.342   2.813 -0.1248  0.0742 -0.1392
45225W        W88163  29.259  16.809   8.086 -0.0852 -0.1972 -0.2199
45226W        W88164  29.044  14.903   5.563  0.1881  0.3712 -0.4033
45227W        W88165  30.451  15.142   6.648 -0.1196  0.0540 -0.1357
45228W        W88166  29.720  15.599   6.036 -0.1487  0.0339 -0.1348
45229W        W88167  32.935  16.869   7.377 -0.0614  0.1042  0.0120
45230W        W88168  29.998  14.353   2.915 -0.0154 -0.0624 -0.0416
45231W        W88169  31.034  16.902   5.557  0.0644 -0.0557 -0.2910
45232W        W88170  29.838  15.993   4.125  0.0831  0.2167 -0.1601
45233W        W88171  29.617  17.218   3.664  0.2523 -0.0416  0.2567
45234W        W88172  31.216  15.418   8.146 -0.0451 -0.2942 -0.2592
45235W        W88173  32.025  18.197   4.282  0.1367 -0.1041  0.0335
45236W        W88174  33.360  18.034   6.206 -0.0411  0.1395 -0.0951
45237W        W88175  31.905  17.887   5.246  0.1948  0.2271 -0.1898
45238W        W88176  28.849  14.673   6.291  0.1394  0.1328  0.1221
45239W        W88177  30.154  15.644   4.318  0.0358  0.1222  0.2926
45240W        W88178  30.121  18.190   6.399 -0.1239  0.0982  0.1473
45241W        W88179  29.696  16.876   4.225  0.0267  0.1522 -0.5251
45242W        W88180  31.030  15.604   4.454 -0.0211 -0.0722  0.4042
45243W        W88181  32.559  17.600   5.621  0.0658 -0.1775 -0.1106
45244W        W88182  31.175  16.916   4.288  0.0476  0.2092 -0.0418
45245W        W88183  29.268  16.033   8.165 -0.1039 -0.3496  0.0375
45246W        W88184  31.691  14.355   7.565  0.1901  0.2122  0.2035
45247W        W88185  31.704  14.631   6.553 -0.1780  0.2696 -0.1341
45248W        W88186  29.732  17.917   4.180 -0.1602  0.1310  0.3581
45249W        W88187  29.695  15.473   3.489 -0.4388 -0.2026 -0.2399
45250W        W88188  31.967  18.368   5.130 -0.1815 -0.1331 -0.3202
45251W        W88189  30.157  18.398   3.680  0.2420 -0.1091 -0.0041
45252W        W88190  29.046  16.709   4.148  0.3244 -0.1232 -0.0709
45253W        W88191  31.091  18.120   4.348  0.0408 -0.0720  0.1964
45254W        W88192  31.518  16.585   5.927 -0.0133 -0.1484  0.0438
45255W        W88193  28.425  15.949   8.579  0.0252 -0.2879  0.0506
45256W        W88194  32.080  15.615   5.970 -0.1995 -0.0105  0.3054
45257W        W88195  29.410  14.654   4.329  0.1450 -0.0647 -0.1929
45258W        W88196  29.815  17.533   6.343 -0.1796 -0.2659  0.0165
45259W        W88197  29.724  14.034   5.187  0.0763 -0.0504 -0.0228
45260W        W88198  32.992  15.716   5.771 -0.5772 -0.2230  0.1902
45261W        W88199  31.860  16.294   6.851  0.1493 -0.0441 -0.0734
45262W        W88200  30.857  17.558   4.826 -0.2761 -0.2352  0.0820
45263W        W88201  32.371  16.174   2.768  0.0676 -0.1797  0.0842
45264W        W88202  32.253  15.846   3.718  0.2842  0.0409  0.0789
45265W        W88203  29.457  18.541   6.235  0.3032  0.0020 -0.0348
45266W        W88204  31.297  17.695   3.683 -0.2606 -0.1001 -0.1237
45267W        W88205  31.555  16.658   4.913 -0.1949  0.0220  0.1227
45268W        W88206  31.121  16.081   4.303  0.2938  0.2088  0.0642
45269W        W88207  33.212  18.414   5.526 -0.3617 -0.0535 -0.2120
45270W        W88208  30.051  17.120   5.831  0.2853 -0.0363 -0.1381
45271W        W88209  32.053  16.527   7.684 -0.2581 -0.2118 -0.1194
45272W        W88210  32.635  17.123   5.448 -0.0727  0.0106  0.1276
45273W        W88211  31.343  12.717   7.193  0.1170 -0.3658 -0.1237
45274W        W88212  32.227  15.249   3.991  0.0754 -0.1870  0.0737
45275W        W88213  31.334  15.480   5.180  0.1733  0.0572 -0.1920
45276W        W88214  28.561  18.109   3.731  0.0599  0.3955  0.0180
45277W        W88215  31.454  15.195   6.548  0.0436  0.0750 -0.1290
45278W        W88216  32.068  14.971   6.576  0.1019 -0.2007  0.0655
45279W        W88217  31.023  15.338   7.692  0.1606 -0.2013  0.0937
45280W        W88218  33.299  16.607   7.078 -0.2493 -0.2047 -0.0435
45281W        W88219  32.723  16.421   3.680 -0.3125  0.2120  0.1706
45282W        W88220  30.602  16.014   5.206 -0.0153  0.0776  0.2494
45283W        W88221  30.158  15.385   3.216  0.0621  0.0715  0.3994
45284W        W88222  32.998  15.381   7.220  0.0336 -0.1962 -0.2033
45285W        W88223  31.299  16.863   7.748 -0.0379 -0.0454  0.1106
45286W        W88224  31.419  17.625   6.331  0.1301 -0.2678  0.0212
45287W        W88225  33.677  16.882   7.935  0.0078 -0.3123  0.0940
45288W        W88226  32.214  17.744   4.321 -0.1525 -0.2749  0.1796
45289W        W88227  31.457  15.617   7.451 -0.0695  0.1021  0.0345
45290W        W88228  30.727  15.505   5.312 -0.1249  0.0878  0.1781
45291W        W88229  31.195  19.019   6.466  0.1638 -0.2722  0.5056
45292W        W88230  31.038  16.616   4.661  0.1434  0.0035  0.0336
45293W        W88231  31.619  15.555   6.194  0.2488  0.2167 -0.1405
45294W        W88232  31.445  17.257   5.148  0.1318  0.0902  0.2891
45295W        W88233  31.540  17.938   4.088 -0.1192 -0.0612 -0.0713
45296W        W88234  33.391  17.893   6.822  0.1432 -0.0743 -0.0928
45297W        W88235  29.320  18.300   4.487 -0.1238 -0.1225 -0.0498
45298W        W88236  31.609  15.351   7.053 -0.0776 -0.0843  0.0865
45299W        W88237  29.335  17.682   6.159  0.1210  0.2529  0.1197
45300W        W88238  30.165  16.944   4.964  0.0263  0.4822  0.1294
45301W        W88239  29.042  16.253   4.004 -0.0624  0.1519 -0.3343
45302W        W88240  31.907  15.179   5.441 -0.0340  0.1249 -0.0034
45303W        W88241  33.572  16.273   4.504  0.1125  0.1536 -0.5174
45304W        W88242  30.705  15.644   6.784 -0.0335 -0.1545  0.4101
45305W        W88243  30.740  14.753   6.804 -0.1680  0.2748  0.0416
45306W        W88244  28.220  17.315   4.889 -0.1062  0.0374 -0.2565
45307W        W88245  31.869  16.911   5.842  0.0338  0.2478  0.2257
45308W        W88246  31.929  14.741   5.910 -0.2884  0.0815 -0.0838
45309W        W88247  31.035  16.396   5.651  0.0167 -0.1971  0.3077
45310W        W88248  30.846  16.563   6.927 -0.1159  0.2133  0.0832
45311W        W88249  28.372  15.072   3.780  0.0260  0.1671 -0.0847
45312W        W88250  33.079  15.450   6.670 -0.2001  0.0870 -0.0339
45313W        W88251  30.644  15.843   5.694 -0.5224 -0.0245 -0.3695
45314W        W88252  28.481  18.292   5.241  0.0263 -0.3409  0.1316
45315W        W88253  30.560  18.496   6.456  0.1873  0.1784 -0.2792
45316W        W88254  29.604  17.555   5.059 -0.0506  0.0608  0.1240
45317W        W88255  30.529  17.976   4.324 -0.1683 -0.0254 -0.1689
45318W        W88256  30.780  16.223   7.611  0.0236 -0.2817 -0.1122
45319W        W88257  32.324  15.848   6.794  0.1242  0.2632 -0.3292
45320W        W88258  30.287  17.715   5.256  0.0355 -0.0718  0.0467
45321W        W88259  29.956  14.712   4.349 -0.0708 -0.0733 -0.3219
45322W        W88260  31.001  15.749   4.911  0.1074 -0.3603 -0.0361
45323W        W88261  32.512  16.868   6.032  0.2736 -0.2733  0.2644
45324W        W88262  31.574  15.900   7.024  0.3726 -0.0940  0.2039
45325W        W88263  30.997  17.625   7.181 -0.2501  0.0501 -0.1726
45326W        W88264  31.575  14.162   6.626  0.0910  0.2667  0.0558
45327W        W88265  32.023  17.928   4.777 -0.0426  0.1532  0.0482
45328W        W88266  31.546  16.201   8.349 -0.2501 -0.0102 -0.0733
45329W        W88267  29.762  18.000   3.527  0.1976 -0.3451  0.0299
45330W        W88268  29.770  15.771   5.528  0.0780  0.1240  0.3132
45331W        W88269  29.973  17.300   5.316  0.0753  0.0744  0.1401
45332W        W88270  30.998  15.220   6.776  0.0873 -0.1714 -0.1216
45333W        W88271  30.749  17.042   6.452 -0.1391 -0.0598 -0.0371
45334W        W88272  29.978  18.010   4.929 -0.1488 -0.4202 -0.1052
45335W        W88273  29.557  15.936   7.428 -0.2138  0.1121  0.0131
45336W        W88274  32.938  14.505   5.097  0.1404  0.0278  0.0924
45337W        W88275  31.411  17.346   2.677 -0.0198 -0.0089 -0.2118
45338W        W88276  30.224  15.654   5.318  0.0940  0.1649 -0.2633
45339W        W88277  33.817  16.601   7.182 -0.0081 -0.0085 -0.2075
45340W        W88278  31.446  15.706   4.731 -0.1573  0.1115 -0.2032
45341W        W88279  32.575  14.735   7.768 -0.1035  0.4465  0.1391
45342W        W88280  30.367  16.213   6.709 -0.2755  0.1104  0.0254
45343W        W88281  31.584  18.099   4.576  0.1465  0.3343 -0.0877
45344W        W88282  29.427  16.295   6.504 -0.1647  0.1190 -0.0199
45345W        W88283  32.739  18.742   6.800 -0.1823 -0.5017 -0.0177
45346W        W88284  31.549  16.614   7.419  0.2014 -0.3807  0.1665
45347W        W88285  30.440  16.534   4.519 -0.3199  0.1501 -0.1691
45348W        W88286  31.336  16.465   4.082  0.1810 -0.0143 -0.1873
45349W        W88287  30.744  16.155   4.743 -0.2268 -0.3780  0.1491
45350W        W88288  31.848  17.225   4.892 -0.1282 -0.1448 -0.1354
45351W        W88289  30.123  16.961   4.494  0.0901 -0.2983 -0.1112
45352W        W88290  30.999  14.901   6.355 -0.3592 -0.1167  0.0082
45353W        W88291  29.660  16.953   5.050 -0.2617 -0.2835 -0.2831
45354W        W88292  31.408  16.239   4.673  0.3480  0.0610  0.0469
45355W        W88293  31.653  16.846   4.449  0.1551  0.3474 -0.0637
45356W        W88294  29.814  15.979   5.045 -0.1336 -0.0546  0.1246
45357W        W88295  30.829  14.746   7.767 -0.2169 -0.2621  0.0274
45358W        W88296  32.904  14.703   5.646  0.0020 -0.2388 -0.0700
45359W        W88297  30.538  16.424   5.929 -0.2451  0.0566  0.0751
45360W        W88298  30.699  15.436   6.256  0.0433 -0.0071 -0.2716
45361W        W88299  32.958  14.733   6.129  0.1633 -0.0523 -0.1486
45362W        W88300  30.675  16.080   7.066  0.0090  0.0632  0.1898
45363W        W88301  28.608  15.673   7.121  0.3003 -0.1083  0.2027
45364W        W88302  31.754  18.476   7.635  0.2718 -0.0499  0.1644
45365W        W88303  32.766  17.148   3.487  0.0896 -0.1858  0.0162
45366W        W88304  31.484  14.775   6.144 -0.1720  0.1464  0.0498
45367W        W88305  32.703  17.576   4.432 -0.2011 -0.0931 -0.0960
45368W        W88306  30.908  16.279   3.806  0.0766 -0.0568 -0.0373
45369W        W88307  30.159  16.115   4.645 -0.1419  0.1351  0.2991
45370W        W88308  32.316  16.447   8.143  0.2691  0.0849  0.0746
45371W        W88309  30.631  15.633   3.327  0.0314  0.0493 -0.0338
45372W        W88310  32.810  15.785   6.971 -0.0682 -0.1918 -0.0203
45373W        W88311  32.313  18.074   5.484 -0.0377  0.3757 -0.0185
45374W        W88312  32.242  16.209   4.594  0.2356  0.0822  0.0323
45375W        W88313  31.474  16.088   5.141  0.3223  0.1517 -0.1627
45376W        W88314  29.771  14.946   2.856 -0.3147 -0.1318 -0.2646
45377W        W88315  31.763  16.824   6.761  0.0632 -0.0612 -0.0787
45378W        W88316  29.664  15.914   3.170  0.2741  0.0501  0.1853
45379W        W88317  30.385  16.510   3.892  0.0220 -0.1494 -0.2254
45380W        W88318  30.123  16.976   3.990 -0.3856  0.1414 -0.4024
45381W        W88319  32.262  17.802   8.027 -0.0411  0.1076 -0.0911
45382W        W88320  30.344  15.215   5.130 -0.0458 -0.1778  0.0454
45383W        W88321  31.266  16.194   7.310  0.1946  0.0980  0.2373
45384W        W88322  28.087  17.970   3.644  0.0838  0.0084  0.1856
45385W        W88323  30.722  14.419   5.389 -0.0593  0.2637  0.2453
45386W        W88324  31.221  18.220   6.956  0.2441 -0.1779  0.0849
45387W        W88325  29.275  17.121   7.105  0.1378 -0.3125  0.2346
45388W        W88326  29.725  18.675   4.417 -0.0776  0.4413 -0.0048
45389W        W88327  30.260  14.660   5.698 -0.0418 -0.1588 -0.0932
45390W        W88328  31.995  14.291   5.671  0.1741  0.2065  0.3698
45391W        W88329  30.687  16.478   6.419 -0.1027  0.2684 -0.0654
45392W        W88330  33.084  16.558   6.643 -0.3585 -0.0780 -0.3090
45393W        W88331  31.461  17.137   5.692  0.2080  0.1596 -0.0542
45394W        W88332  30.544  17.053   5.364  0.1693 -0.2950 -0.2876
45395W        W88333  32.136  17.601   6.370 -0.3172  0.1717 -0.0062
45396W        W88334  31.412  17.192   4.652  0.0178 -0.0382 -0.1457
45397W        W88335  29.400  17.196   5.398  0.0593  0.0362 -0.0156
45398W        W88336  29.484  16.640   7.320  0.0109 -0.2014  0.0076
45399W        W88337  32.462  15.608   7.361 -0.2047 -0.2044  0.0132
45400W        W88338  30.006  17.417   4.263  0.0872 -0.1382 -0.2303
45401W        W88339  29.816  14.014   6.268  0.1154 -0.0454  0.2127
45402W        W88340  30.456  17.327   4.999 -0.1138  0.0387  0.4372
45403W        W88341  30.028  18.237   7.960  0.0260 -0.3216  0.0192
45404W        W88342  29.026  16.454   5.499 -0.0926 -0.2567 -0.0335
45405W        W88343  30.672  19.186   5.099  0.2425  0.2081  0.1669
45406W        W88344  32.742  16.148   4.783  0.2164  0.0556  0.0980
45407W        W88345  32.209  18.179   3.718  0.0740 -0.0360 -0.0028
45408W        W88346  32.594  18.440   6.433  0.5408 -0.0120 -0.2399
45409W        W88347  29.964  14.729   3.811  0.1080 -0.2959  0.0066
45410W        W88348  31.209  18.465   4.689 -0.0264 -0.1219  0.0161
45411W        W88349  28.369  17.468   2.716 -0.0789  0.1289  0.1246
45412W        W88350  31.409  17.607   5.871 -0.2159 -0.1385  0.1258
45413W        W88351  31.100  18.630   5.200  0.0848 -0.2299 -0.0247
45414W        W88352  33.430  17.581   7.207  0.1270 -0.0090  0.1991
45415W        W88353  32.603  14.905   3.878 -0.0251  0.0631 -0.0985
45416W        W88354  32.150  15.907   5.585  0.1959 -0.1724 -0.1585
45417W        W88355  31.052  16.349   5.146 -0.1405 -0.0718  0.0555
45418W        W88356  32.621  17.010   6.519 -0.0258  0.1463  0.0721
45419W        W88357  30.204  16.406   5.048 -0.4026 -0.1172 -0.3104
45420W        W88358  30.971  14.636   2.749  0.0596  0.0518  0.0890
45421W        W88359  31.023  16.139   6.704 -0.0362  0.1590 -0.1393
45422W        W88360  32.714  15.177   7.572 -0.0762  0.1737 -0.1228
45423W        W88361  30.827  18.821   6.157  0.0222  0.1560  0.0334
45424W        W88362  32.263  18.759   4.343  0.1243  0.1865 -0.0889
45425W        W88363  29.871  15.012   3.408  0.0721 -0.3279 -0.2769
45426W        W88364  29.844  16.635   4.738 -0.2247 -0.3589 -0.1861
45427W        W88365  32.958  14.575   6.768 -0.2752 -0.0096 -0.2165
45428W        W88366  31.918  17.001   3.563 -0.0041 -0.1284 -0.0518
45429W        W88367  30.493  15.733   4.849  0.2287 -0.1397 -0.0085
45430W        W88368  31.935  19.079   5.222  0.4554 -0.0057 -0.1225
45431W        W88369  31.205  17.254   6.551 -0.0561 -0.1014 -0.4015
45432W        W88370  30.933  18.063   4.850  0.0146 -0.1680  0.0309
45433W        W88371  28.846  14.135   4.846 -0.4083  0.1311  0.0505
45434W        W88372  32.946  15.483   3.679  0.0493  0.0050  0.0509
45435W        W88373  30.222  15.325   6.211  0.3774  0.0030 -0.1021
45436W        W88374  32.631  15.356   6.852  0.0502 -0.2547 -0.4299
45437W        W88375  29.802  14.751   5.434  0.1079 -0.0501 -0.1581
45438W        W88376  31.350  16.910   3.761  0.3460  0.3007 -0.0456
45439W        W88377  31.482  17.297   7.466  0.0276 -0.1159  0.2990
45440W        W88378  29.871  16.366   6.940  0.2103  0.0948  0.0837
45441W        W88379  30.934  17.351   3.936 -0.0884 -0.0121 -0.1306
45442W        W88380  32.229  16.253   7.179 -0.0982 -0.1286  0.1101
45443W        W88381  31.074  16.528   3.332 -0.3385 -0.0443 -0.1232
45444W        W88382  31.045  18.195   6.424 -0.2376  0.2394  0.2905
45445W        W88383  29.096  15.264   6.337 -0.0328  0.0619  0.1351
45446W        W88384  32.596  15.950   4.306 -0.0219  0.2347 -0.1194
45447W        W88385  29.144  17.163   3.835  0.4266 -0.0898  0.3885
45448W        W88386  30.619  16.638   4.955  0.0771 -0.0333 -0.1465
45449W        W88387  32.620  17.245   7.060  0.1040  0.1265 -0.0651
45450W        W88388  29.850  14.490   5.043 -0.0172 -0.0501 -0.0564
45451W        W88389  31.673  16.559   3.539 -0.1119 -0.0568 -0.2753
45452W        W88390  31.845  15.669   6.674  0.2212  0.3472  0.1276
45453W        W88391  30.241  18.564   4.134  0.1148  0.0095  0.2156
45454W        W88392  31.404  16.606   5.435  0.0056 -0.0247 -0.1595
45455W        W88393  32.480  15.990   6.015  0.0469  0.2118 -0.1930
45456W        W88394  30.988  16.703   6.021  0.2594 -0.3986 -0.2236
45457W        W88395  32.204  17.081   6.763 -0.0407  0.5319 -0.2046
45458W        W88396  33.011  16.856   5.619 -0.3109  0.2223  0.2429
45459W        W88397  31.172  15.025   5.188 -0.2882 -0.2455  0.0756
45460W        W88398  29.523  16.380   4.407  0.1198  0.1812 -0.1483
45461W        W88399  27.644  17.541   3.833 -0.1446  0.2340 -0.0988
45462W        W88400  32.395  15.012   5.642 -0.0607  0.0052 -0.1359
45463W        W88401  33.144  15.384   7.866  0.1994 -0.0490 -0.2479
45464W        W88402  31.303  17.641   3.153 -0.0184 -0.0140  0.0945
45465W        W88403  33.594  14.646   7.664  0.1321  0.2406 -0.0415
45466W        W88404  31.814  17.937   6.206 -0.0790  0.0088 -0.1341
45467W        W88405  32.160  17.502   7.015  0.1241 -0.0552 -0.3557
45468W        W88406  30.484  17.967   4.799 -0.0693 -0.2359  0.1931
45469W        W88407  31.132  17.766   6.667 -0.0243 -0.2695 -0.0877
45470W        W88408  31.845  17.483   3.541 -0.0367 -0.2550 -0.4538
45471W        W88409  30.601  18.286   3.945 -0.0507 -0.1033  0.2589
45472W        W88410  31.546  16.951   6.290  0.1804  0.1341 -0.2601
45473W        W88411  30.538  16.055   4.248  0.2232  0.0162 -0.0484
45474W        W88412  32.512  18.236   4.278  0.1323 -0.1203 -0.0169
45475W        W88413  30.446  14.875   6.235 -0.2741  0.0950 -0.2021
45476W        W88414  32.842  14.690   4.349  0.0308 -0.0721 -0.1023
45477W        W88415  31.284  15.207   4.448  0.0812  0.0138 -0.2228
45478W        W88416  31.361  16.495   6.875 -0.0233  0.1717 -0.0355
45479W        W88417  28.191  15.887   4.094 -0.2129  0.1327  0.3448
45480W        W88418  31.069  17.147   3.407  0.2789  0.1941  0.0290
45481W        W88419  30.387  17.494   5.739 -0.1072  0.0455 -0.0014
45482W        W88420  31.125  15.682   7.116  0.1219  0.2303  0.0746
45483W        W88421  29.594  15.767   6.936  0.0274  0.0910 -0.1588
45484W        W88422  28.874  15.908   5.399 -0.0958 -0.0125 -0.1592
45485W        W88423  29.060  13.533   5.515 -0.0493  0.2261 -0.0265
45486W        W88424  32.752  18.255   3.834 -0.0864 -0.0548 -0.0912
45487W        W88425  30.109  16.128   5.568 -0.1244 -0.2152  0.0754
45488W        W88426  30.005  15.496   4.764  0.0255  0.2616 -0.2880
45489W        W88427  30.311  17.298   6.210  0.0511 -0.4729  0.2793
45490W        W88428  33.161  18.207   5.032 -0.0923  0.0518 -0.0795
45491W        W88429  30.003  14.990   6.562 -0.2498  0.0906  0.2392
45492W        W88430  32.998  17.613   6.845 -0.0842 -0.1893 -0.4665
45493W        W88431  30.613  17.060   1.894  0.2782 -0.1056  0.1014
45494W        W88432  32.261  15.241   7.739 -0.2541 -0.2041  0.3911
45495W        W88433  30.104  15.113   8.528  0.0040 -0.5812 -0.0062
45496W        W88434  29.574  13.673   3.690 -0.0134  0.1280 -0.0352
45497W        W88435  31.497  16.050   6.501  0.2273 -0.0214 -0.0250
45498W        W88436  30.913  17.858   3.953 -0.2520 -0.1241 -0.2157
45499W        W88437  31.171  18.263   3.876 -0.1049 -0.1365  0.1015
45500W        W88438  30.276  17.241   6.716 -0.0378 -0.1293  0.2386
45501W        W88439  30.938  18.314   5.895  0.0507  0.1728 -0.3541
45502W        W88440  29.978  15.529   7.384  0.0448 -0.0080 -0.1417
45503W        W88441  32.310  15.657   2.700 -0.1116 -0.2189  0.2193
45504W        W88442  30.789  17.496   6.286 -0.1148 -0.0810 -0.0643
45505W        W88443  32.272  15.495   4.476  0.1196 -0.0348  0.1048
45506W        W88444  34.074  14.105   6.548  0.1267 -0.0163  0.2454
45507W        W88445  30.570  17.068   4.119  0.0116  0.1098 -0.4409
45508W        W88446  30.654  15.263   7.129 -0.4408 -0.0669  0.1549
45509W        W88447  29.796  16.008   8.670  0.0497  0.2787 -0.3127
45510W        W88448  32.138  16.077   6.398 -0.1551 -0.0550 -0.0762
45511W        W88449  29.870  15.980   6.537  0.0974  0.4309  0.0905
45512W        W88450  30.819  15.296   4.862  0.1012 -0.1658  0.0546
45513W        W88451  30.761  17.595   5.334  0.2063 -0.3301  0.0382
45514W        W88452  30.346  16.779   6.259 -0.1173  0.1778  0.1670
45515W        W88453  29.974  16.476   4.147 -0.0122 -0.3618 -0.1752
45516W        W88454  32.023  15.735   7.209  0.0320 -0.2858 -0.1327
45517W        W88455  31.499  17.708   4.941  0.2539 -0.0773 -0.4118
45518W        W88456  32.092  16.972   6.313  0.1656  0.0829  0.0788
45519W        W88457  29.547  15.927   3.732 -0.1736  0.1915  0.0888
45520W        W88458  32.623  17.792   3.955  0.0848  0.0180 -0.1138
45521W        W88459  31.800  18.515   5.994  0.1016 -0.2711 -0.0532
45522W        W88460  33.103  17.057   8.195  0.1882  0.0332  0.0343
45523W        W88461  30.411  17.864   7.056  0.0873 -0.2268 -0.1312
45524W        W88462  31.038  15.942   5.444 -0.0290 -0.1709  0.4318
45525W        W88463  30.337  14.379   7.135  0.0646  0.0014 -0.3935
45526W        W88464  29.331  16.796   4.658  0.1237  0.1077  0.2060
45527W        W88465  30.556  16.516   5.426 -0.0535  0.1266 -0.1026
45528W        W88466  33.624  14.727   7.143  0.2568 -0.0220 -0.0534
45529W        W88467  31.678  15.636   5.647 -0.2328 -0.0294 -0.1270
45530W        W88468  31.836  16.358   4.366  0.1499  0.4712  0.3618
45531W        W88469  29.922  17.769   7.500  0.0275 -0.1116  0.4396
45532W        W88470  28.977  16.275   5.051 -0.0178 -0.1452  0.0295
45533W        W88471  30.793  17.937   9.153  0.0193 -0.0373 -0.2046
45534W        W88472  30.135  15.887   9.600 -0.2520 -0.0074 -0.0426
45535W        W88473  32.910  15.745   7.495  0.0339  0.2254 -0.0468
45536W        W88474  32.581  16.919   8.827  0.1158 -0.4773 -0.4313
45537W        W88475  29.487  15.056   7.879  0.0050  0.1770  0.0134
45538W        W88476  32.946  16.053   8.701  0.5368  0.0263 -0.2596
45539W        W88477  32.395  18.592  10.129 -0.0973  0.2823 -0.1568
45540W        W88478  33.536  18.484   9.446  0.0111  0.1421 -0.2580
45541W        W88479  32.544  16.705   7.052  0.0176  0.3880 -0.1847
45542W        W88480  32.730  18.320   9.687 -0.2833  0.0453 -0.0581
45543W        W88481  31.725  15.626   8.287  0.3392 -0.1474 -0.0455
45544W        W88482  27.656  13.175  10.138 -0.3090  0.1808 -0.1691
45545W        W88483  31.844  16.386   9.666 -0.2747  0.0342 -0.0309
45546W        W88484  28.314  15.500   8.696 -0.2522 -0.3716 -0.1875
45547W        W88485  29.144  16.357   9.588  0.4311 -0.0990  0.2441
45548W        W88486  30.940  15.535  10.147 -0.2801  0.1730  0.3344
45549W        W88487  31.383  18.616   8.882  0.0075  0.2755 -0.1801
45550W        W88488  32.437  14.551   9.343 -0.0972  0.0727  0.1358
45551W        W88489  31.464  17.399   7.962 -0.0553 -0.1787 -0.0475
45552W        W88490  29.068  15.846   7.193 -0.2927  0.1145  0.0613
45553W        W88491  29.205  17.311   8.949 -0.3463  0.0791  0.0384
45554W        W88492  29.640  17.540   9.943  0.0623  0.1472  0.0351
45555W        W88493  31.669  14.288   8.982  0.4939  0.2857  0.5116
45556W        W88494  30.863  17.005   9.472 -0.1091 -0.0621 -0.1522
45557W        W88495  29.359  17.838   8.697  0.0486  0.0312  0.3624
45558W        W88496  32.583  17.425  10.063 -0.2982 -0.1350  0.1326
45559W        W88497  30.452  16.741   9.316  0.0059  0.0728  0.0968
45560W        W88498  29.362  18.916   8.338 -0.0122 -0.0600 -0.1255
45561W        W88499  31.587  16.995   8.168 -0.0266 -0.1025  0.0597
45562W        W88500  33.854  17.718   8.367  0.0449  0.0209 -0.3312
45563W        W88501  30.138  17.807   6.085  0.0369  0.0554  0.0571
45564W        W88502  28.937  15.480   8.982  0.2516  0.0579 -0.1007
45565W        W88503  31.261  16.634   9.402  0.0576 -0.1652  0.2905
45566W        W88504  30.389  16.959   8.081 -0.4161  0.3040 -0.0052
45567W        W88505  32.105  16.860   8.518 -0.0585 -0.0249 -0.0005
45568W        W88506  29.583  17.539   8.328  0.0994  0.1642  0.0240
45569W        W88507  30.969  16.758   7.434  0.0810  0.0863  0.1761
45570W        W88508  31.709  15.251   7.878  0.1858  0.0698  0.1421
45571W        W88509  31.735  15.205   8.829 -0.1346  0.2027 -0.0102
45572W        W88510  31.483  15.209   9.311 -0.1793 -0.2113  0.0616
45573W        W88511  30.573  15.042   9.072 -0.1015  0.0969 -0.3094
45574W        W88512  30.814  17.605   9.496 -0.0103  0.0934  0.2410
45575W        W88513  30.791  16.740  10.100  0.0679 -0.0775  0.0727
45576W        W88514  31.325  16.091   8.807  0.1584  0.0207  0.1563
45577W        W88515  31.589  14.601  10.257 -0.2135 -0.0983 -0.0534
45578W        W88516  30.371  17.763   9.370 -0.0444  0.2182 -0.0932
45579W        W88517  30.576  16.049   9.412 -0.0275  0.0599 -0.1722
45580W        W88518  32.762  16.990   7.872  0.0995 -0.0988  0.1074
45581W        W88519  32.826  17.792   8.865  0.1025  0.3279  0.3594
45582W        W88520  31.403  18.350   8.510 -0.2554 -0.0927 -0.1180
45583W        W88521  29.849  15.964   7.948  0.2169 -0.0515 -0.1200
45584W        W88522  30.340  15.569   7.832  0.0925 -0.0401  0.3956
45585W        W88523  31.666  13.718   8.336  0.2622  0.4772 -0.2275
45586W        W88524  31.684  16.360   9.143  0.1421 -0.0283  0.0695
45587W        W88525   0.397  17.882   9.763  0.1638 -0.3862 -0.0093
45588W        W88526  32.563  16.495   7.685  0.0944 -0.1059 -0.0227
45589W        W88527  30.767  13.677   9.644  0.0332  0.4421 -0.2900
45590W        W88528  32.587  14.505   8.788 -0.0353 -0.0576 -0.1631
45591W        W88529  30.691  15.825   8.447 -0.0039 -0.0361  0.1259
45592W        W88530  28.425  15.468   8.151 -0.0096  0.0895 -0.1800
45593W        W88531  33.829  18.877   9.387  0.1829 -0.1525  0.0247
45594W        W88532  34.441  15.941   7.700  0.1843 -0.2965 -0.0392
45595W        W88533  32.032  18.419   9.239 -0.0090 -0.0628 -0.3078
45596W        W88534  30.351  17.442   8.191  0.0186  0.2457  0.0684
45597W        W88535  31.391  16.187   9.461 -0.1231 -0.0961  0.0698
45598W        W88536  30.570  17.041   7.116 -0.2415  0.3947  0.3367
45599W        W88537  31.193  14.337   9.998  0.0934  0.2194 -0.5659
45600W        W88538  28.909  19.579   9.562 -0.0428  0.2063 -0.0517
45601W        W88539  33.789  15.106   8.440  0.0393  0.0272 -0.0382
45602W        W88540  33.783  14.925   9.274  0.2148  0.0977 -0.0493
45603W        W88541  30.896  16.867   8.449  0.0750 -0.2454 -0.0307
45604W        W88542  32.767  17.921   8.401 -0.2211 -0.2139 -0.1917
45605W        W88543  32.614  15.462   8.498 -0.1694 -0.2713  0.2582
45606W        W88544  31.308  17.748   7.555  0.0392 -0.0743 -0.1482
45607W        W88545  29.008  16.081  10.109 -0.0984 -0.0380  0.1600
45608W        W88546  29.804  16.210  10.613  0.0878  0.4238  0.0437
45609W        W88547  30.063  16.169  10.016  0.3278 -0.0186  0.1810
45610W        W88548  29.183  14.098   8.049 -0.2506  0.0235 -0.2608
45611W        W88549  32.327  16.588   9.535  0.1784 -0.2363 -0.1225
45612W        W88550  29.979  15.364   8.099  0.0114  0.1945 -0.2258
45613W        W88551  30.250  17.065   8.963 -0.1832 -0.0079  0.2520
45614W        W88552  32.369  18.682   8.620  0.3533 -0.1928  0.0551
45615W        W88553   0.085  18.795  10.175  0.3279 -0.1315  0.0331
45616W        W88554  33.683  18.756   8.467 -0.2065  0.2369  0.0270
45617W        W88555  27.631  16.661  10.301  0.3138  0.0737  0.0887
45618W        W88556  29.586  15.656   8.294  0.0580 -0.2256 -0.0977
45619W        W88557  29.528  18.766   9.009 -0.0812  0.2440  0.1304
45620W        W88558  30.890  17.054   8.934  0.0910 -0.0225  0.1621
45621W        W88559  30.413  16.061   7.998  0.1187  0.2793  0.2084
45622W        W88560  33.838  17.489   9.513  0.2055  0.4456 -0.3813
45623W        W88561  32.589  16.888   8.345 -0.1175  0.0021 -0.5054
45624W        W88562  29.202  17.998  10.015 -0.2372  0.0638 -0.0703
45625W        W88563  30.872  16.510   9.168  0.1109 -0.2543 -0.2438
45626W        W88564  29.030  15.347   7.147  0.0663 -0.3023 -0.0027
45627W        W88565  30.889  18.977   8.897  0.4532 -0.5481 -0.1994
45628W        W88566  29.587  17.148   7.784 -0.2570 -0.3192 -0.2455
45629W        W88567  30.179  16.316   8.502  0.0009  0.1463 -0.0991
45630W        W88568  31.316  17.543   9.667  0.1613  0.1684 -0.1500
45631W        W88569  33.268  14.760   9.293 -0.4971  0.1018  0.0313
45632W        W88570  31.247  16.571   8.185  0.1351  0.2038 -0.1818
45633W        W88571  31.570  14.701   8.723 -0.1783  0.2931  0.2610
45634W        W88572  32.498  16.079   8.392 -0.0999  0.0207 -0.1501
45635W        W88573  33.014  14.823   9.757 -0.0145 -0.2010  0.2156
45636W        W88574  31.684  16.622   8.543  0.1114 -0.1085 -0.0245
45637W        W88575  31.643  14.611   8.010  0.1302  0.0449 -0.3090
45638W        W88576  32.273  17.301   8.362 -0.1576  0.2003  0.0604
45639W        W88577  31.650  15.925   9.887  0.0688  0.3402  0.3479
45640W        W88578  31.726  16.092   7.504 -0.1759 -0.1032  0.1659
45641W        W88579  33.260  17.124   7.757  0.2466 -0.0189 -0.0914
45642W        W88580  27.344  16.384   8.811 -0.0691  0.1881 -0.3837
45643W        W88581  32.756  18.287   8.724 -0.0625 -0.0495 -0.1389
45644W        W88582  30.361  12.142  10.103  0.0724  0.0785 -0.2420
45645W        W88583  31.265  16.307   7.778 -0.1371  0.2333 -0.2896
45646W        W88584  30.642  14.524   9.264 -0.1237 -0.4934 -0.1388
45647W        W88585  29.934  18.646   7.631  0.1317  0.2047 -0.1271
45648W        W88586  32.348  15.048   8.723 -0.0780 -0.0183 -0.1778
45649W        W88587  30.215  15.545  10.595 -0.0673 -0.3290  0.0685
45650W        W88588  32.537  15.846   8.898 -0.2582 -0.0333 -0.0358
45651W        W88589  32.707  16.914   9.952 -0.2390  0.2389 -0.2710
45652W        W88590  30.180  15.789   8.448 -0.0514  0.0662 -0.2045
45653W        W88591  32.698  15.578   9.543  0.0029  0.1693 -0.0301
45654W        W88592  27.650  18.042   8.634  0.1004 -0.1051 -0.1927
45655W        W88593  32.756  16.819   9.368  0.3972 -0.0745 -0.0691
45656W        W88594  32.078  16.601   8.967  0.0826 -0.0466  0.2586
45657W        W88595  30.912  18.580   8.628 -0.0834  0.0684  0.0375
45658W        W88596  30.564  16.558   8.270 -0.0599  0.0913 -0.0659
45659W        W88597  30.424  13.860  10.122  0.0015  0.3492 -0.0782
45660W        W88598  31.160  17.982   9.507  0.1373  0.0527  0.1360
45661W        W88599  31.763  17.175   7.115  0.0364  0.0599 -0.0838
45662W        W88600  31.804  15.866   8.914  0.2322 -0.1738 -0.3400
45663W        W88601  31.277  16.721   8.885 -0.1641  0.1054  0.0855
45664W        W88602  32.842  13.918  10.688  0.2469 -0.3610 -0.0519
45665W        W88603  29.122  16.848   9.188  0.0664 -0.1708 -0.2180
45666W        W88604  30.251  16.037   7.482  0.1232  0.1872  0.0088
45667W        W88605  28.676  16.348   8.848  0.2505 -0.0485  0.1929
45668W        W88606  32.982  15.733   8.271 -0.1249 -0.0631 -0.1285
45669W        W88607  33.112  16.371   9.200 -0.0838  0.1239 -0.2009
45670W        W88608  30.600  16.122  10.035 -0.1375  0.0438 -0.1303
45671W        W88609  30.867  13.128   9.593 -0.0843 -0.2303  0.2341
45672W        W88610  29.641  19.428   8.208 -0.3160 -0.3542  0.1589
45673W        W88611  32.641  15.597   7.880 -0.2652 -0.0866 -0.2804
45674W        W88612  29.810  15.027   7.441 -0.0501  0.0174 -0.0530
45675W        W88613  32.028  13.873   9.651  0.1737  0.0510  0.1125
45676W        W88614  30.968  14.797   9.872 -0.1164 -0.1882 -0.1518
45677W        W88615  30.009  17.316   8.586 -0.1645 -0.0145 -0.0625
45678W        W88616  31.321  17.727   8.620 -0.3481 -0.2151  0.0952
45679W        W88617  30.865  15.260   9.632 -0.1684  0.2614 -0.0048
45680W        W88618  30.023  16.778   8.469 -0.0290  0.0720  0.2258
45681W        W88619  32.143  17.237   8.826  0.1079 -0.3485 -0.0265
45682W        W88620  29.603  17.320   9.416  0.0130  0.0485 -0.3263
45683W        W88621  31.173  14.468   9.009 -0.0689  0.1888  0.0869
45684W        W88622  30.542  16.673   8.805  0.1045 -0.1113  0.1891
45685W        W88623  31.644  17.648  10.078  0.2432 -0.0973  0.0025
45686W        W88624  30.022  15.108  10.311  0.2504  0.1096 -0.0772
45687W        W88625  29.197  14.429   9.464  0.0006  0.0013  0.1872
45688W        W88626  33.431  17.669   8.776 -0.0352  0.1546 -0.1313
45689W        W88627  28.983  16.940   8.540 -0.1839 -0.1772  0.2193
45690W        W88628  30.026  17.453   9.207 -0.0245  0.4608  0.0882
45691W        W88629  29.973  17.702   7.983  0.3121  0.1224 -0.0222
45692W        W88630  32.757  14.926  10.227  0.2643 -0.0026  0.0055
45693W        W88631  29.551  18.423   9.367  0.0854  0.0372 -0.2877
45694W        W88632  30.969  17.143   8.010 -0.3137 -0.0323 -0.1830
45695W        W88633  29.240  18.202   9.036  0.1514 -0.0131  0.3395
45696W        W88634  33.318  14.806   8.527 -0.2580 -0.0948 -0.1635
45697W        W88635  32.080  17.429   7.697  0.2045 -0.2727  0.1353
45698W        W88636  32.152  16.092   9.163 -0.4241  0.1826 -0.1237
45699W        W88637  31.961  17.874   9.278  0.1265  0.0602 -0.2218
45700W        W88638  30.154  12.109  10.647  0.1255  0.1806  0.0707
45701W        W88639  34.024  16.418   8.911  0.0243 -0.2899  0.1214
45702W        W88640  32.213  15.687   8.178  0.1424  0.2115  0.0192
45703W        W88641  30.480  15.496   8.787  0.0852  0.0674  0.1627
45704W        W88642  31.407  16.899   9.775  0.0100 -0.1090  0.1009
45705W        W88643  31.179  18.847   9.305  0.1800 -0.0362 -0.1810
45706W        W88644  31.006  17.218   7.532  0.0257 -0.3150 -0.0691
45707W        W88645  32.523  14.003  10.159  0.1613 -0.0534  0.0609
45708W        W88646  30.548  18.084   8.686  0.0541 -0.1867  0.2888
45709W        W88647  31.392  13.868   9.984  0.3573 -0.3659  0.2468
45710W        W88648  32.233  17.015   9.282  0.0080 -0.0777 -0.0163
45711W        W88649  29.960  17.896   9.117 -0.1394  0.4147 -0.1340
45712W        W88650  31.690  18.031   9.636  0.0330  0.1528 -0.0073
45713W        W88651  31.108  14.346   9.435  0.2350 -0.0908  0.0826
45714W        W88652  32.874  19.534   8.834  0.0269 -0.1974 -0.0944
45715W        W88653  33.211  17.175   8.645 -0.2744 -0.1650  0.0774
45716W        W88654  32.018  13.493   9.332 -0.0520 -0.0388 -0.0544
45717W        W88655  32.541  16.056   9.451  0.0357  0.0860  0.0257
45718W        W88656  33.170  16.335   7.496 -0.0242  0.2736  0.0389
45719W        W88657  26.956  15.133  10.798  0.5151 -0.0012 -0.2937
45720W        W88658  29.833  15.472   6.513  0.0703  0.2345 -0.0522
45721W        W88659  31.685  18.201   7.223  0.0742  0.2522 -0.1053
45722W        W88660  31.691  17.121   8.770  0.0115  0.5116  0.0715
45723W        W88661  33.158  15.298   8.497  0.1121  0.0175  0.1062
45724W        W88662  29.360  15.869   9.482 -0.1526  0.2985  0.1822
45725W        W88663  29.400  15.611   7.850  0.1167  0.2484 -0.1556
45726W        W88664  30.781  15.735   7.946 -0.1549  0.1013  0.4083
45727W        W88665  32.640  19.596   9.397 -0.0844  0.1326  0.0867
45728W        W88666  31.099  15.649   9.333  0.3081  0.0589 -0.1499
45729W        W88667  28.903  17.481   8.554 -0.5210 -0.0576  0.1806
45730W        W88668  32.373  13.849   9.253  0.0436 -0.0445  0.3773
45731W        W88669  29.635  16.662   9.360 -0.2398 -0.0245 -0.2687
45732W        W88670  29.937  17.154   8.093 -0.0650  0.1400 -0.1534
45733W        W88671  32.078  13.294   9.798  0.2005  0.1397 -0.1127
45734W        W88672  31.889  15.294   9.625 -0.1029  0.1864 -0.2582
45735W        W88673  30.164  15.666  10.055  0.0669  0.1077  0.0193
45736W        W88674  30.461  16.195   8.908  0.1943 -0.5569 -0.2943
45737W        W88675  31.630  15.739   9.360  0.0576 -0.1024 -0.1232
45738W        W88676  30.044  18.365   8.984  0.4018  0.0193  0.1714
45739W        W88677  31.370  15.579   8.941  0.0160  0.1404  0.1146
45740W        W88678  31.139  14.955   8.888 -0.0217 -0.0792  0.2917
45741W        W88679  31.109  17.198   6.021  0.0704 -0.1441 -0.1998
45742W        W88680  29.626  16.255   9.701  0.2028  0.0236 -0.0394
45743W        W88681  31.772  17.686   7.261 -0.2541 -0.1644 -0.2666
45744W        W88682  31.794  17.403   8.364 -0.3679  0.2332  0.3077
45745W        W88683  31.231  17.001   7.066 -0.2071 -0.0106  0.1747
45746W        W88684  32.169  18.171   9.708 -0.1086 -0.0384 -0.0719
45747W        W88685  30.823  15.829   8.943 -0.2439  0.0012  0.2617
45748W        W88686  29.743  19.126   9.204 -0.2329 -0.1329  0.2111
45749W        W88687  29.757  17.361   6.810  0.3664 -0.1178 -0.2224
45750W        W88688  33.083  17.949   7.254  0.2575  0.0460 -0.0135
45751W        W88689  30.509  17.124   8.578 -0.0210  0.1590  0.1280
45752W        W88690  31.790  14.010   7.906 -0.1565 -0.1608 -0.0841
45753W        W88691  34.559  15.736  10.468 -0.1046  0.1216 -0.1591
45754W        W88692  32.043  14.830   7.649 -0.0797 -0.0127 -0.2947
45755W        W88693  29.781  18.059  10.174  0.0097  0.1468 -0.1948
45756W        W88694  30.072  15.223   9.022  0.1979 -0.0056  0.1254
45757W        W88695  32.675  17.829   7.627  0.3007  0.1146 -0.3175
45758W        W88696  29.710  14.232   8.185 -0.0353  0.0067 -0.0787
45759W        W88697  30.067  16.561   9.022  0.1085 -0.0842  0.1781
45760W        W88698  32.569  13.901   8.705  0.0196  0.1023  0.0114
45761W        W88699  32.182  16.988   7.956  0.1583  0.1761  0.0722
45762W        W88700  31.981  14.774   9.702  0.0896  0.2923 -0.1214
45763W        W88701  31.210  18.073   8.923  0.3366  0.1377  0.0051
45764W        W88702  29.438  17.781   9.227 -0.1109 -0.0903  0.2582
45765W        W88703  31.794  17.993   8.370 -0.2638 -0.3118  0.2523
45766W        W88704  29.539  15.188   8.408  0.1379 -0.3315  0.1946
45767W        W88705  32.372  15.090   9.341 -0.4126 -0.1655 -0.5335
45768W        W88706  31.434  18.385   9.339  0.0769  0.1110  0.1853
45769W        W88707  30.915  16.321   8.619  0.1233  0.0455  0.0238
45770W        W88708  30.529  14.937   9.581 -0.0658 -0.1784  0.2774
45771W        W88709  29.588  18.798   9.815  0.1859  0.0237 -0.0951
45772W        W88710  26.240  16.129  10.187  0.0832  0.0974  0.4343
45773W        W88711  32.658  16.235   6.786  0.1959  0.1476 -0.2444
45774W        W88712  30.373  16.531   7.773 -0.1045 -0.2743 -0.0231
45775W        W88713  29.291  14.778   8.759 -0.0803 -0.2421  0.2110
45776W        W88714  31.296  14.978   7.910 -0.0745  0.2022  0.1530
45777W        W88715  28.663  17.229   9.034 -0.0144  0.2388  0.2420
45778W        W88716  31.734  15.070  10.184 -0.2945 -0.0980 -0.2175
45779W        W88717  29.292  15.488   8.690 -0.0859  0.0354 -0.1558
45780W        W88718  33.411  16.659   8.322  0.1701  0.1123  0.0730
45781W        W88719  32.123  15.530   8.652  0.2081  0.0251 -0.1419
45782W        W88720  32.576  17.773   7.155 -0.4672  0.1257  0.0497
45783W        W88721  32.738  14.863   9.105  0.3348 -0.3200 -0.1021
45784W        W88722  32.367  18.201   8.402 -0.0630 -0.2194 -0.0553
45785W        W88723  30.688  14.851  10.357 -0.0867 -0.0506  0.2193
45786W        W88724  32.445  17.553   9.072 -0.2438 -0.0853 -0.0341
45787W        W88725  32.774  17.423   9.532 -0.0337 -0.0651 -0.2214
45788W        W88726  32.110  14.003   8.449  0.1213 -0.2054  0.0921
45789W        W88727  29.661  16.270   9.043  0.1559  0.1405  0.1125
45790W        W88728  31.278  17.816   8.101  0.0131  0.2485  0.0992
45791W        W88729  33.094  14.233  10.336 -0.1647 -0.1637 -0.0373
45792W        W88730  32.108  18.079   6.998 -0.1545  0.0495  0.0612
45793W        W88731  30.332  17.641   8.845 -0.1163  0.0574  0.0678
45794W        W88732  29.446  15.831   8.972  0.1308  0.1563 -0.2247
45795W        W88733  31.275  17.110   9.229  0.2086 -0.0555  0.2863
45796W        W88734  32.168  19.433   9.356  0.1280  0.4129 -0.0657
45797W        W88735  30.174  17.414   9.707  0.1564  0.1442 -0.1206
45798W        W88736  31.833  16.779   9.399  0.1039 -0.1363 -0.2142
45799W        W88737  33.566  19.587   9.094 -0.0891 -0.0304  0.0633
45800W        W88738  31.673  13.876   9.303  0.3676 -0.0436  0.2384
45801W        W88739  32.971  14.208   8.568 -0.0085 -0.0145 -0.0062
45802W        W88740  32.763  15.132   8.075 -0.2217  0.0356 -0.3228
45803W        W88741  31.218  17.218  10.172  0.2794  0.0299  0.0960
45804W        W88742  29.080  15.927   7.719 -0.1217  0.2358 -0.1101
45805W        W88743  30.333  17.682   6.548 -0.1059  0.3350  0.0465
45806W        W88744  30.092  16.357   9.482  0.2573 -0.2670  0.2047
45807W        W88745  29.648  18.271   8.672 -0.0183 -0.1201 -0.0899
45808W        W88746  30.192  15.381   9.634 -0.3232 -0.1669  0.2708
45809W        W88747  32.741  17.383   8.550 -0.0864 -0.0112  0.2931
45810W        W88748  29.608  14.812  10.291  0.1894  0.0410 -0.0013
45811W        W88749  29.672  14.247  10.261  0.0652  0.1368 -0.1352
45812W        W88750  32.434  17.903   9.369 -0.0099  0.0445 -0.2381
45813W        W88751  32.250  17.457   9.561  0.0949 -0.3336 -0.1251
45814W        W88752  32.020  14.707   9.003  0.1409 -0.2616  0.0725
45815W        W88753  29.917  16.598   7.970  0.2758 -0.0200  0.2126
45816W        W88754  28.747  15.422   8.533  0.3488  0.1409 -0.1192
45817W        W88755  29.162  14.910   9.796  0.0330 -0.1097  0.0457
45818W        W88756  31.325  17.239   8.500  0.0159 -0.1145  0.1368
45819W        W88757  32.659  17.443   8.084 -0.1538  0.0140 -0.0487
45820W        W88758  29.034  12.848  10.245  0.0556 -0.2926 -0.1974
45821W        W88759  32.767  15.425   9.055 -0.5012 -0.0958  0.1239
45822W        W88760  34.121  16.566   9.413  0.1918 -0.1173  0.0111
45823W        W88761  33.503  15.075   9.699 -0.0348  0.0296  0.3534
45824W        W88762  32.439  16.492   8.639 -0.1488  0.2780  0.3133
45825W        W88763  31.818  17.325   9.299  0.0149 -0.2544  0.0369
45826W        W88764  29.556  15.304   9.077 -0.1783  0.0917  0.4682
45827W        W88765  32.187  15.543   9.137  0.1126  0.0145 -0.1115
45828W        W88766  32.250  17.705   8.586 -0.0586 -0.1374 -0.0065
45829W        W88767  31.441  17.687   9.189  0.1555 -0.1619 -0.2381
45830W        W88768  31.961  16.087   8.010  0.0026  0.1351  0.1793
45831W        W88769  29.251  16.162  10.580  0.2042 -0.0334 -0.1582
45832W        W88770  30.946  16.167   8.118  0.1672 -0.4107 -0.1356
45833W        W88771  32.666  16.407   6.274 -0.1417 -0.2568 -0.0595
45834W        W88772  31.924  18.577   9.758  0.1563  0.3700  0.3337
45835W        W88773  27.053  16.638   9.689  0.0138  0.1271 -0.3017
45836W        W88774  31.136  17.794  10.055 -0.0085  0.1174  0.2369
45837W        W88775  29.182  14.951  12.503  0.2231  0.2974 -0.1198
45838W        W88776  30.863  16.670   7.913  0.1534  0.3992 -0.2269
45839W        W88777  30.029  16.961   9.429 -0.0667  0.1075 -0.1154
45840W        W88778  31.837  15.566  12.240  0.3237 -0.0624  0.2423
45841W        W88779  30.530  15.520   9.278 -0.1779  0.1503  0.1028
45842W        W88780  31.370  15.045   8.422  0.1716 -0.1862  0.3524
45843W        W88781  30.633  17.682   9.989 -0.0519  0.0931 -0.0975
45844W        W88782  31.059  16.005   9.867  0.0959 -0.2537  0.3024
45845W        W88783  30.137  19.656   1.862  0.0977  0.2028  0.0703
45846W        W88784  29.919  18.978   0.484 -0.2440  0.0746  0.2766
45847W        W88785  32.610  18.257  31.283 -0.1392  0.2900  0.0246
45848W        W88786  31.588  21.289  31.951  0.0324  0.1090  0.1632
45849W        W88787  28.307  18.615   1.063  0.1235  0.2228  0.0188
45850W        W88788  32.248  22.593  31.311  0.2412 -0.0773 -0.5473
45851W        W88789  29.725  18.406   3.986  0.0293  0.1081 -0.1805
45852W        W88790  29.579  22.250   2.761 -0.0435  0.1001  0.2760
45853W        W88791  33.571  22.393   0.843 -0.3899  0.2680 -0.2283
45854W        W88792  30.582  21.126   0.757 -0.1044  0.0755  0.0359
45855W        W88793  30.037  18.193   2.583  0.1208 -0.0039  0.0704
45856W        W88794  30.898  20.496   2.994  0.0128  0.0436 -0.1040
45857W        W88795  30.686  18.945   1.433  0.0156 -0.3456 -0.2174
45858W        W88796  27.561  16.962   3.389 -0.1325  0.2252 -0.2597
45859W        W88797  32.085  19.975   3.612  0.2047 -0.3328  0.1230
45860W        W88798  29.730  19.462   2.143 -0.1830  0.2587 -0.1773
45861W        W88799  29.544  18.498   3.420  0.1049 -0.1567 -0.0351
45862W        W88800  30.696  18.441   1.419  0.1147  0.0866  0.1161
45863W        W88801  31.563  20.614   1.728  0.2291 -0.1122 -0.2793
45864W        W88802  28.767  18.532   2.792  0.1618  0.0026  0.0801
45865W        W88803  30.704  19.777   3.686  0.0013 -0.2334 -0.0664
45866W        W88804  30.925  22.170   0.010 -0.1118  0.1888 -0.1398
45867W        W88805  28.886  19.927   1.325  0.0736 -0.1091  0.1256
45868W        W88806  29.084  19.004   1.630  0.0040  0.0959  0.1245
45869W        W88807  29.418  19.347   3.053  0.2106 -0.3530  0.2870
45870W        W88808  32.487  18.948   1.365 -0.0793  0.0267 -0.0994
45871W        W88809  32.118  20.200   2.142 -0.0446  0.0284 -0.0428
45872W        W88810  29.923  21.942   2.503 -0.1255 -0.0401 -0.2103
45873W        W88811  30.911  22.045   3.049 -0.0785  0.4122 -0.1561
45874W        W88812  32.712  19.655   2.803 -0.0528  0.1399  0.1018
45875W        W88813  28.638  20.349   2.414  0.1453 -0.0012  0.1184
45876W        W88814  30.005  20.856   2.232  0.0636  0.2284 -0.1227
45877W        W88815  31.118  21.838   0.392  0.3696  0.1166 -0.4284
45878W        W88816  32.798  21.882   0.554  0.0637 -0.1617  0.1946
45879W        W88817  32.164  21.809   1.780 -0.2637 -0.2815 -0.0459
45880W        W88818  30.302  21.201   2.952 -0.1058 -0.1914  0.0210
45881W        W88819  30.021  20.826   0.176  0.1188  0.0611  0.2722
45882W        W88820  31.060  21.132   2.778  0.0266 -0.0371  0.1612
45883W        W88821  29.291  20.564   4.288 -0.0663 -0.1824  0.3075
45884W        W88822  31.264  19.463   2.067  0.0592 -0.3786  0.0588
45885W        W88823  32.649  19.722   1.273 -0.0873 -0.2579  0.3363
45886W        W88824  30.557  22.388   1.314 -0.0272  0.0265  0.1646
45887W        W88825  30.237  20.375  31.710 -0.0335 -0.0225  0.0517
45888W        W88826  29.500  20.433   2.983 -0.0530 -0.4418  0.0357
45889W        W88827  28.865  21.778   2.591 -0.1838 -0.0741 -0.3204
45890W        W88828  32.625  20.155   2.915 -0.2060 -0.0163 -0.3943
45891W        W88829  31.435  21.405  31.504 -0.0269 -0.3000 -0.1654
45892W        W88830  32.400  19.719   0.135 -0.1532 -0.3493  0.1417
45893W        W88831  31.435  19.650   0.262 -0.0474  0.1968  0.2557
45894W        W88832  32.594  17.589  31.834 -0.0311  0.0801  0.3235
45895W        W88833  30.365  17.533   0.991 -0.1423  0.1440  0.0551
45896W        W88834  29.803  21.109   2.838 -0.3395 -0.1023 -0.0091
45897W        W88835  29.988  19.117   2.450  0.0937 -0.0411 -0.2895
45898W        W88836  32.010  21.621   2.311 -0.1453 -0.0569  0.2410
45899W        W88837  30.266  20.404   0.265  0.2279  0.2373 -0.1962
45900W        W88838  30.232  19.550   2.398  0.3583  0.1922  0.1836
45901W        W88839  30.357  20.975   3.423  0.1554  0.2993  0.0830
45902W        W88840  29.451  19.581   0.584  0.0035  0.1210  0.0127
45903W        W88841  31.869  22.469   1.326 -0.0834 -0.2694  0.2094
45904W        W88842  31.645  21.781   0.281 -0.2856  0.0990 -0.1878
45905W        W88843  31.242  22.532  31.859 -0.2614 -0.1545  0.3241
45906W        W88844  30.075  20.796   1.770  0.0058 -0.3302 -0.2240
45907W        W88845  29.393  19.683   4.000 -0.4681 -0.1337  0.4263
45908W        W88846  28.781  18.999   4.145 -0.4136  0.0768  0.0156
45909W        W88847  30.410  18.235  31.381 -0.0351 -0.2011 -0.3384
45910W        W88848  33.410  20.004   3.102 -0.2084  0.2773  0.2528
45911W        W88849  29.107  22.031   3.385  0.1004 -0.2027 -0.0920
45912W        W88850  32.445  19.199   0.043 -0.1947 -0.0316  0.1486
45913W        W88851  29.581  20.791   1.904  0.0945 -0.0564  0.0991
45914W        W88852  31.158  19.938   2.366  0.3928 -0.1825  0.0462
45915W        W88853  33.233  21.433   1.132  0.2264 -0.2131 -0.2034
45916W        W88854  31.631  19.917   2.666  0.4815  0.1185 -0.3805
45917W        W88855  32.938  19.212   2.695  0.2637 -0.2439  0.0716
45918W        W88856  31.231  20.892  31.439  0.0063  0.0413 -0.0294
45919W        W88857  32.144  20.484  31.454 -0.2324 -0.0594 -0.0592
45920W        W88858  31.666  21.330   2.516 -0.0027 -0.0546 -0.2899
45921W        W88859  32.139  20.662  31.911 -0.4757  0.2271  0.1274
45922W        W88860  30.105  22.222   1.532  0.4450  0.0624  0.1120
45923W        W88861  30.667  19.521   3.124 -0.0915 -0.0302  0.0101
45924W        W88862  31.700  20.796   2.468  0.1511  0.1817 -0.0833
45925W        W88863  30.432  22.074  31.698 -0.1519  0.2327 -0.3576
45926W        W88864  28.543  20.700   2.805  0.2769  0.0099 -0.2076
45927W        W88865  31.023  21.263   1.077 -0.0235  0.0901  0.0392
45928W        W88866  28.007  18.553   3.024 -0.1848 -0.0330 -0.2705
45929W        W88867  29.234  21.233   1.765 -0.3684 -0.2188  0.1126
45930W        W88868  33.323  18.336   1.011  0.0077  0.0382 -0.1576
45931W        W88869  29.758  17.297   2.917  0.1325 -0.3488  0.2150
45932W        W88870  33.693  18.731   2.010  0.0163  0.0636 -0.0776
45933W        W88871  30.489  21.602   0.984  0.0309 -0.4189  0.0063
45934W        W88872  33.075  20.810   2.341  0.0409 -0.2965 -0.0555
45935W        W88873  31.651  20.048   0.788  0.1273  0.1915  0.1397
45936W        W88874  32.396  20.912  31.459 -0.2205 -0.1380  0.3148
45937W        W88875  28.565  22.216   2.216 -0.2926 -0.0903 -0.2334
45938W        W88876  29.811  18.480   2.939 -0.2827 -0.1668  0.0459
45939W        W88877  28.765  18.426   4.255  0.2781 -0.0556 -0.2122
45940W        W88878  29.763  17.360   1.501  0.0749 -0.0526 -0.0701
45941W        W88879  32.066  20.251   2.654  0.0318  0.2277 -0.0737
45942W        W88880  30.299  18.270   1.737 -0.1293  0.1730  0.3233
45943W        W88881  31.351  19.863   1.112 -0.3893  0.0472 -0.3401
45944W        W88882  31.162  20.599   0.348 -0.0709  0.1464  0.3859
45945W        W88883  28.280  20.276   1.589 -0.0780  0.0547 -0.4702
45946W        W88884  32.952  19.345   3.253  0.2807 -0.0996  0.3067
45947W        W88885  31.233  21.216   2.297 -0.0844  0.1305  0.0514
45948W        W88886  32.553  22.589   4.141  0.3241  0.2674 -0.0165
45949W        W88887  32.327  22.239   1.551  0.0204 -0.1892 -0.0246
45950W        W88888  29.848  17.726   2.680 -0.0110  0.0003 -0.2249
45951W        W88889  30.643  18.159   0.942 -0.0978  0.0944 -0.1343
45952W        W88890  29.545  23.726   2.781 -0.1435  0.0965  0.1353
45953W        W88891  30.775  21.266   3.756 -0.0492  0.0939  0.3540
45954W        W88892  30.284  19.612   1.044 -0.3459  0.0527 -0.1183
45955W        W88893  32.703  23.163   2.264  0.0192 -0.0754  0.1808
45956W        W88894  30.605  20.472   0.870 -0.0759 -0.0354 -0.0950
45957W        W88895  29.705  20.293   4.511  0.5452 -0.0295 -0.1076
45958W        W88896  30.247  18.677   2.636  0.2908 -0.1836 -0.1781
45959W        W88897  33.339  19.510   2.630 -0.1424  0.0495 -0.0029
45960W        W88898  30.557  19.025   2.396  0.2732  0.0040  0.0058
45961W        W88899  29.912  19.305   0.853  0.0773  0.1060 -0.2085
45962W        W88900  31.436  21.674   2.285 -0.0249 -0.0122  0.0712
45963W        W88901  28.823  20.088   0.858 -0.0830 -0.0898  0.0761
45964W        W88902  29.464  19.347   1.669 -0.3053  0.1918  0.2484
45965W        W88903  31.377  21.820   0.805  0.3628 -0.1146  0.0702
45966W        W88904  32.489  19.370   0.546 -0.3312  0.0398  0.1394
45967W        W88905  28.113  19.933   4.114  0.0282  0.0044 -0.0503
45968W        W88906  31.872  19.108   3.623 -0.1886  0.1103  0.0581
45969W        W88907  30.233  18.371   1.150  0.1040 -0.3125 -0.0215
45970W        W88908  29.196  19.986   3.030 -0.0705  0.0668 -0.2534
45971W        W88909  32.111  19.251   0.862  0.3137  0.1341  0.0966
45972W        W88910  33.095  19.547   1.185  0.0119  0.2508 -0.2363
45973W        W88911  32.084  20.525   3.677 -0.2227 -0.2408 -0.0256
45974W        W88912  32.339  20.668   1.074 -0.1164 -0.0943 -0.0732
45975W        W88913  33.152  19.340   1.954 -0.4333 -0.1167 -0.3358
45976W        W88914  31.680  19.827   2.080  0.0952  0.0341 -0.0374
45977W        W88915  29.331  20.953   2.900 -0.1104 -0.2906 -0.1864
45978W        W88916  30.707  21.727   0.001  0.0332  0.0719  0.0636
45979W        W88917  30.839  20.216   1.372 -0.0746 -0.2317 -0.1161
45980W        W88918  32.078  18.248  31.109  0.0640 -0.0792 -0.0879
45981W        W88919  31.769  21.388   0.573  0.3079 -0.3251 -0.0676
45982W        W88920  29.784  19.926   2.384 -0.4634 -0.0614  0.2963
45983W        W88921  30.023  20.712   3.681  0.0403 -0.0200 -0.0873
45984W        W88922  31.248  20.755   1.142  0.0390  0.4727  0.3144
45985W        W88923  30.194  18.266   3.176 -0.1856 -0.0312 -0.2620
45986W        W88924  30.153  19.460  31.756 -0.0652 -0.0166  0.2014
45987W        W88925  30.195  18.712   1.531  0.0272 -0.0564 -0.0749
45988W        W88926  28.510  21.665   0.074  0.0973 -0.3304  0.3265
45989W        W88927  32.219  20.774   2.704  0.3175  0.1488 -0.3387
45990W        W88928  30.943  19.319   2.513  0.2795  0.0658 -0.0944
45991W        W88929  30.721  18.412   3.169 -0.0865  0.1877  0.0172
45992W        W88930  30.461  20.502   2.799  0.0453 -0.1661 -0.0266
45993W        W88931  32.159  20.558   0.445 -0.1824  0.2700 -0.1094
45994W        W88932  30.563  18.771   1.975  0.0412 -0.0098 -0.0241
45995W        W88933  31.272  19.262   0.577  0.2554 -0.0269  0.1494
45996W        W88934  31.151  19.865   3.429 -0.1368  0.1068 -0.0886
45997W        W88935  30.049  20.246   2.021 -0.1620 -0.0636 -0.1966
45998W        W88936  29.823  22.875   3.432  0.1367 -0.2015  0.2308
45999W        W88937  30.775  20.234   2.448 -0.0026  0.1918  0.1847
46000W        W88938  31.399  19.762   1.589 -0.3090 -0.0353  0.1158
46001W        W88939  31.148  20.375   4.273 -0.2590 -0.0115  0.0061
46002W        W88940  32.262  20.151   1.286  0.1550 -0.1988  0.1346
46003W        W88941  29.637  22.120   0.133 -0.0203 -0.0673  0.1232
46004W        W88942  30.776  20.823   1.195 -0.2784  0.2343 -0.0722
46005W        W88943  29.714  18.040   3.031 -0.2084  0.0212  0.0762
46006W        W88944  31.014  19.922   1.797  0.1879 -0.1407  0.0253
46007W        W88945  30.941  20.680  29.999 -0.1451  0.1974  0.0386
46008W        W88946  31.618  19.866   3.617  0.2018  0.0774  0.1620
46009W        W88947  30.346  22.380   0.121  0.0138  0.0890 -0.0924
46010W        W88948  33.252  17.376   3.321  0.0309 -0.2889  0.0341
46011W        W88949  29.974  21.405   2.441 -0.3467 -0.2128 -0.1491
46012W        W88950  30.331  19.335   1.474 -0.3364 -0.1153 -0.0692
46013W        W88951  27.746  19.732   1.132  0.1030 -0.0897  0.1981
46014W        W88952  32.375  18.544   2.446  0.1421  0.0040  0.1970
46015W        W88953  31.775  20.427   1.185  0.2233 -0.0307 -0.0376
46016W        W88954  28.337  18.764   2.605 -0.1471 -0.2955 -0.1401
46017W        W88955  31.489  19.578   3.064 -0.0531 -0.0317  0.0703
46018W        W88956  28.379  22.018   0.854 -0.1113  0.1039  0.1717
46019W        W88957  30.920  19.102   3.269  0.0894 -0.2993 -0.0849
46020W        W88958  31.642  18.792  31.611 -0.0913  0.3968  0.1486
46021W        W88959  30.524  20.978   1.596 -0.0231 -0.1099  0.1459
46022W        W88960  28.916  19.678   3.874  0.3661 -0.0085  0.0199
46023W        W88961  27.803  19.314  31.311  0.1089  0.3832  0.0194
46024W        W88962  31.892  18.520   2.429 -0.0841 -0.0300  0.0874
46025W        W88963  29.051  18.906   2.557 -0.0165  0.2067  0.5620
46026W        W88964  30.482  21.648   0.472  0.0928 -0.3316  0.1074
46027W        W88965  30.376  20.520   2.219  0.2223 -0.0741 -0.3128
46028W        W88966  30.174  18.601   0.652  0.0008 -0.3574 -0.3064
46029W        W88967  30.246  22.773   1.571  0.1159 -0.1394  0.1690
46030W        W88968  30.245  19.945   3.208 -0.2368  0.0425 -0.1681
46031W        W88969  31.298  20.723   2.186  0.1135  0.0138 -0.2774
46032W        W88970  30.815  18.524   2.328  0.1657 -0.0790  0.0274
46033W        W88971  31.612  18.101   1.328  0.0441 -0.2505 -0.0048
46034W        W88972  31.096  18.790   1.593 -0.0049 -0.0035 -0.1063
46035W        W88973  33.375  19.069   2.434  0.0302 -0.1879  0.1589
46036W        W88974  30.944  19.060   3.771 -0.0336  0.0314 -0.0673
46037W        W88975  30.884  20.267   3.844 -0.2141  0.0102  0.0657
46038W        W88976  32.522  20.160   3.511 -0.3465 -0.1256  0.1793
46039W        W88977  33.068  23.089   1.019 -0.0130 -0.0598  0.2267
46040W        W88978  31.244  20.393   2.626  0.0841 -0.0547  0.1490
46041W        W88979  29.055  20.447   2.164 -0.0244  0.0156  0.2724
46042W        W88980  29.623  18.702   2.393 -0.1835  0.1843  0.0354
46043W        W88981  30.104  21.392   0.764 -0.0603  0.2473  0.5381
46044W        W88982  29.727  18.403   1.959  0.1073 -0.0451 -0.1356
46045W        W88983  29.107  21.554   2.188 -0.1344  0.2762  0.0359
46046W        W88984  30.237  22.443   0.620  0.0196  0.0645 -0.0027
46047W        W88985  28.203  21.133   2.627 -0.1900 -0.1705  0.1653
46048W        W88986  33.130  19.426   0.659  0.0460 -0.2888 -0.0289
46049W        W88987  31.847  21.919   0.712  0.3520  0.2225 -0.1456
46050W        W88988  29.880  19.189   1.462  0.0784 -0.2397 -0.2871
46051W        W88989  33.803  18.016   3.523 -0.0472  0.1690  0.2456
46052W        W88990  32.238  21.646  31.892 -0.3003 -0.1510 -0.1548
46053W        W88991  32.089  19.008   3.184  0.5316  0.0767 -0.1347
46054W        W88992  32.396  17.786   2.894  0.1317 -0.3693  0.1476
46055W        W88993  32.883  19.999   1.939 -0.0214  0.2096 -0.0325
46056W        W88994  28.849  18.640   3.766 -0.1597  0.0105 -0.3481
46057W        W88995  32.092  20.893   4.071  0.1588 -0.0792  0.0107
46058W        W88996  29.892  20.800   4.138 -0.3370 -0.0266  0.0376
46059W        W88997  31.749  19.396   1.209 -0.1174  0.1988 -0.2961
46060W        W88998  31.939  16.776   0.191 -0.0808  0.1721  0.2244
46061W        W88999  32.067  20.289   0.821  0.3744  0.2361 -0.1295
46062W        W89000  31.651  21.038   2.053 -0.0799 -0.0844 -0.1566
46063W        W89001  30.876  20.931  31.043 -0.1640 -0.1498  0.0285
46064W        W89002  32.003  20.684   2.027  0.1549 -0.1485 -0.1807
46065W        W89003  29.508  19.206   2.565 -0.0924  0.1370  0.1570
46066W        W89004  31.811  20.910  31.323 -0.0613 -0.3600 -0.3130
46067W        W89005  31.235  20.475  31.871  0.0354 -0.1059  0.2583
46068W        W89006  30.211  20.742   1.206 -0.5163  0.0618 -0.2991
46069W        W89007  29.963  19.260   3.937 -0.1621  0.0339 -0.1334
46070W        W89008  32.654  20.330   0.903 -0.1116 -0.0618 -0.0156
46071W        W89009  31.318  18.297   1.652 -0.1028 -0.0858  0.1330
46072W        W89010  31.471  19.038   3.318 -0.1492  0.0269  0.2143
46073W        W89011  31.850  21.084   2.884  0.0676 -0.0576 -0.1468
46074W        W89012  29.083  18.252   2.434  0.1871 -0.0827  0.0598
46075W        W89013  28.469  19.374   3.202 -0.1716  0.1440  0.0610
46076W        W89014   0.166  23.952   1.676 -0.1868 -0.3677  0.1097
46077W        W89015  31.578  18.523   0.930 -0.0449  0.2233 -0.0690
46078W        W89016  31.649  20.284   2.351 -0.0061 -0.1369 -0.0344
46079W        W89017  33.410  20.570   0.496 -0.0438  0.2330 -0.0153
46080W        W89018  31.820  19.891   1.187 -0.2158 -0.2987  0.0253
46081W        W89019  29.422  17.694   3.768 -0.0850  0.1234 -0.1051
46082W        W89020  30.360  19.852   4.137  0.3819  0.1534 -0.0454
46083W        W89021  30.673  19.698   0.571 -0.1884 -0.0187  0.0194
46084W        W89022  31.858  19.344   2.266  0.0468  0.2094 -0.3978
46085W        W89023  30.173  21.820   0.001 -0.1816 -0.1616 -0.2635
46086W        W89024  31.893  20.908   1.348 -0.0016  0.0715 -0.0035
46087W        W89025  30.540  18.341   0.463  0.3990 -0.0094 -0.1850
46088W        W89026  28.581  19.174   1.193 -0.1649 -0.0642  0.1188
46089W        W89027  28.871  21.221   2.553 -0.1654 -0.0036  0.0861
46090W        W89028  29.800  17.970   0.227  0.0342  0.2846 -0.0234
46091W        W89029  30.450  20.449   1.645 -0.2357 -0.2574 -0.0905
46092W        W89030  29.917  21.228   1.571 -0.0697  0.0954 -0.0144
46093W        W89031  33.920  20.832   2.761  0.2637 -0.0579 -0.0004
46094W        W89032  31.676  17.544   0.670  0.5855  0.0576 -0.0839
46095W        W89033  32.906  19.599   2.315  0.1544  0.1122 -0.1128
46096W        W89034  29.439  21.942   0.602 -0.0390 -0.1710  0.0671
46097W        W89035  32.229  16.589   2.020  0.0522  0.1802  0.0775
46098W        W89036  30.710  21.295   2.486  0.0896  0.1206 -0.3872
46099W        W89037  29.445  20.193   3.926  0.1939  0.3353 -0.0376
46100W        W89038  31.244  21.382   0.485 -0.1568  0.1520  0.3345
46101W        W89039  30.770  18.751   2.775  0.5196 -0.2216 -0.4139
46102W        W89040  31.323  20.241   1.452 -0.0145  0.0056  0.0676
46103W        W89041  30.507  19.844   1.542 -0.0754 -0.2138  0.0439
46104W        W89042  32.983  20.986   2.917 -0.1868  0.0481  0.1421
46105W        W89043  30.378  20.914   2.510 -0.1348 -0.3331 -0.1030
46106W        W89044  30.679  19.568   1.944 -0.1199  0.2154 -0.2190
46107W        W89045  32.142  21.084   2.284  0.2864 -0.0880  0.1040
46108W        W89046  32.687  21.044   1.062  0.1158  0.3809 -0.0481
46109W        W89047  29.427  21.272   2.373  0.0445  0.3338 -0.1962
46110W        W89048  28.580  20.139   3.829  0.0575  0.1559  0.1633
46111W        W89049  31.105  19.814   2.850 -0.1493  0.3755  0.1127
46112W        W89050  29.484  21.398   1.297 -0.2495  0.3406  0.1355
46113W        W89051  29.299  18.232   1.896 -0.1247 -0.0516 -0.0563
46114W        W89052  30.822  21.261   0.276  0.0367 -0.1808 -0.1445
46115W        W89053  29.416  20.671   3.766 -0.0777  0.1576 -0.1824
46116W        W89054  27.491  19.135   3.169  0.3825  0.3335 -0.0749
46117W        W89055  29.243  22.399   0.506  0.0008 -0.0595  0.1047
46118W        W89056  31.183  21.539  31.980 -0.0258  0.0846 -0.1858
46119W        W89057  31.675  19.567   0.724  0.1715 -0.1651 -0.1058
46120W        W89058  32.009  21.253   1.757 -0.1143 -0.0911  0.2184
46121W        W89059  31.358  20.146   0.354 -0.1549  0.0377 -0.1757
46122W        W89060  29.667  20.402   1.054 -0.1837 -0.0341  0.1524
46123W        W89061  30.298  20.112   0.665  0.2198 -0.0141  0.2651
46124W        W89062  32.416  20.944   1.765  0.1834 -0.1728  0.0440
46125W        W89063  30.441  22.400   1.924  0.0293  0.1793 -0.2950
46126W        W89064  33.631  20.813   3.192 -0.2377 -0.2168  0.1848
46127W        W89065  31.880  19.753  31.899 -0.0672  0.3354 -0.0404
46128W        W89066  32.888  19.301   0.227  0.2174  0.0055 -0.2804
46129W        W89067  33.975  20.127   0.882 -0.1670 -0.0116 -0.0895
46130W        W89068  32.299  21.300   2.704 -0.2270 -0.1252  0.0887
46131W        W89069  30.055  18.797   2.043  0.0516 -0.3735  0.1795
46132W        W89070  31.370  18.868   0.089 -0.2026  0.3687  0.0105
46133W        W89071  29.531  20.287   2.089  0.1913 -0.1052 -0.0678
46134W        W89072  33.015  17.713   3.594  0.2396  0.0213 -0.0326
46135W        W89073  29.019  21.894   3.897 -0.1069  0.0634 -0.3281
46136W        W89074  31.627  21.993   1.420 -0.1810 -0.0017  0.0866
46137W        W89075  30.828  21.082   1.979  0.3744 -0.4394 -0.0695
46138W        W89076  29.711  21.681   1.002  0.3357  0.2183  0.1839
46139W        W89077  32.569  18.226   0.600 -0.4606  0.0666  0.1664
46140W        W89078  31.425  20.855  30.880 -0.1457  0.2872 -0.1292
46141W        W89079  31.747  18.548   1.463 -0.1568 -0.0551  0.0452
46142W        W89080  31.338  22.534   2.410 -0.0335  0.3295 -0.1057
46143W        W89081  29.078  20.428   1.148  0.2371  0.0206  0.1890
46144W        W89082  30.185  21.194   3.788  0.1610 -0.1414 -0.0453
46145W        W89083  31.322  19.281   1.585  0.1897 -0.2452 -0.1117
46146W        W89084  33.202  20.578  31.880  0.0882 -0.0524 -0.1881
46147W        W89085  30.577  19.570   4.484  0.0946  0.0016 -0.1954
46148W        W89086  32.109  19.897   1.691 -0.2908  0.4206  0.1501
46149W        W89087  29.981  21.290   3.346 -0.1506  0.0503  0.0220
46150W        W89088  32.208  18.739   0.287  0.2473  0.1496  0.3895
46151W        W89089  29.859  19.791   3.760  0.2268  0.0800  0.0788
46152W        W89090  28.754  19.203   2.024  0.0255 -0.0307 -0.5347
46153W        W89091  31.377  20.010  31.724  0.1758 -0.2544  0.1136
46154W        W89092  33.785  19.624   3.376  0.2673  0.1079  0.1383
46155W        W89093  31.446  18.404  31.875  0.1738 -0.0422 -0.0221
46156W        W89094  31.801  21.279   4.246  0.1064 -0.0457 -0.1492
46157W        W89095  29.999  17.912   2.078  0.1301  0.3398  0.1538
46158W        W89096  30.969  20.016   0.097  0.2074  0.3692 -0.0683
46159W        W89097  29.598  20.859   1.435  0.0244 -0.0675 -0.0942
46160W        W89098  30.293  20.068   2.441 -0.1015 -0.1953 -0.2832
46161W        W89099  32.347  21.748   2.855 -0.1805  0.0781  0.0651
46162W        W89100  30.286  16.048   1.837  0.2072 -0.1678 -0.0597
46163W        W89101  32.463  22.035   0.146 -0.2602 -0.2856 -0.1215
46164W        W89102  31.840  19.465   1.745  0.0341  0.2979 -0.4776
46165W        W89103  30.248  19.893  31.428 -0.1051 -0.1725 -0.1640
46166W        W89104  30.683  19.755   2.441  0.0185 -0.0961  0.1226
46167W        W89105  33.188  21.015   1.314  0.0905  0.1755 -0.0953
46168W        W89106  29.068  19.393   2.482 -0.0177 -0.2448  0.1868
46169W        W89107  32.686  20.613   3.139  0.1515 -0.2597 -0.0448
46170W        W89108  31.495  21.112   1.447  0.0435 -0.3554 -0.0803
46171W        W89109  31.157  18.613   1.158  0.0000 -0.3173 -0.0200
46172W        W89110  29.131  18.670   2.142 -0.3258  0.2372 -0.2368
46173W        W89111  28.881  22.577   0.216  0.0069  0.2857  0.1468
46174W        W89112  33.593  20.567   1.272 -0.3245 -0.3355 -0.1857
46175W        W89113  32.882  20.169   0.052 -0.0525  0.1167 -0.2499
46176W        W89114  29.365  20.171   0.687  0.0463  0.1382  0.0782
46177W        W89115  32.173  18.541   2.883 -0.1200  0.2082  0.0657
46178W        W89116  29.957  20.546   2.652  0.1232  0.1945  0.0601
46179W        W89117  30.001  21.711   3.585 -0.0396  0.1433  0.2066
46180W        W89118  31.598  19.006   0.805 -0.2724 -0.1347 -0.1391
46181W        W89119  30.621  20.037   2.892  0.0889 -0.0817  0.2693
46182W        W89120  30.911  21.665   0.776  0.1492 -0.2000  0.1214
46183W        W89121  31.479  20.958   0.434 -0.0619  0.1417  0.0508
46184W        W89122  32.841  20.544   1.898  0.1705  0.0242 -0.3250
46185W        W89123  32.116  20.521   1.547  0.2593 -0.2081 -0.0385
46186W        W89124  32.752  20.745   1.454  0.2275 -0.0904  0.0060
46187W        W89125  30.632  18.754   0.952 -0.1209  0.0391 -0.2029
46188W        W89126  33.883  18.831   1.512  0.0993 -0.5259  0.0052
46189W        W89127  33.390  17.499   0.511  0.2278 -0.1171  0.3047
46190W        W89128  31.839  19.947   3.140  0.1526 -0.1181 -0.1752
46191W        W89129  29.620  20.351   1.598  0.0285  0.2379 -0.0567
46192W        W89130  30.113  20.245   1.292 -0.2400  0.3511 -0.1587
46193W        W89131  29.653  19.848   1.826 -0.0912 -0.2159 -0.2070
46194W        W89132  31.582  17.232   3.251  0.1917  0.0059 -0.3255
46195W        W89133  29.015  18.908   3.133  0.0798 -0.0893 -0.3452
46196W        W89134  27.944  19.851   2.478 -0.1696  0.0592 -0.4470
46197W        W89135  30.330  19.241   1.993 -0.1828 -0.1358 -0.1429
46198W        W89136  32.672  20.744   0.657  0.1926  0.1584 -0.1825
46199W        W89137  30.938  17.858   1.780  0.4431 -0.0422 -0.0108
46200W        W89138  28.790  17.070   1.498  0.0089 -0.3679  0.1589
46201W        W89139  30.670  19.971   0.975 -0.1878 -0.1376  0.0208
46202W        W89140  30.906  21.587   2.130 -0.0371  0.0148  0.2868
46203W        W89141  29.628  17.598   0.663 -0.1188  0.1004  0.1375
46204W        W89142  33.989  20.483   2.348  0.0766 -0.0065  0.0701
46205W        W89143  29.870  19.432   0.240  0.1049  0.0333  0.1455
46206W        W89144  30.247  19.283   4.850 -0.1222 -0.1272 -0.1838
46207W        W89145  30.308  18.750   3.197  0.2081 -0.4799 -0.1479
46208W        W89146  29.768  18.477   1.437 -0.0250 -0.1084 -0.0956
46209W        W89147  30.836  20.584   1.990 -0.0707  0.0769  0.0374
46210W        W89148  31.159  20.963  31.979  0.0829 -0.2755 -0.0104
46211W        W89149  32.950  21.230   1.941 -0.2382  0.1378 -0.3032
46212W        W89150  29.504  19.601   4.676 -0.1223  0.1219  0.2211
46213W        W89151  29.275  22.686   2.694  0.4377 -0.0719 -0.3316
46214W        W89152  30.521  18.243   2.685  0.2517 -0.0437  0.1559
46215W        W89153  31.706  20.565   0.280 -0.0899 -0.0153  0.1653
46216W        W89154  29.937  20.034   2.848 -0.1198  0.3263 -0.0834
46217W        W89155  31.907  20.826   0.784  0.0997  0.4023  0.2348
46218W        W89156  32.426  18.246   2.041  0.1964  0.2493  0.0187
46219W        W89157  31.742  21.580   1.126  0.0335  0.1091  0.3902
46220W        W89158  28.101  19.279   3.655 -0.0297 -0.2257 -0.2237
46221W        W89159  29.469  19.694   2.739  0.2257  0.2202 -0.0506
46222W        W89160  32.459  20.502   2.343  0.0513  0.0444 -0.1183
46223W        W89161  31.911  17.506   2.536  0.1240 -0.2489 -0.0730
46224W        W89162  32.775  19.771  31.791 -0.4417 -0.1348  0.0035
46225W        W89163  31.347  21.958  31.871  0.0269 -0.4298  0.1209
46226W        W89164  30.395  17.686   2.689 -0.2314 -0.1288  0.1893
46227W        W89165  31.455  20.495   0.748  0.1271 -0.2341  0.1241
46228W        W89166  31.386  19.447   2.575 -0.4561  0.1153  0.1204
46229W        W89167  31.048  19.060   0.986  0.0023 -0.2506 -0.3375
46230W        W89168  31.697  20.404   2.871 -0.4180 -0.0864  0.0919
46231W        W89169  29.907  19.690   1.428 -0.1323 -0.4855  0.0308
46232W        W89170  32.414  20.196  31.926  0.0785 -0.1185 -0.1321
46233W        W89171  33.751  20.912   2.208  0.0204  0.0285 -0.0293
46234W        W89172  32.398  21.868   4.843  0.0368 -0.2701 -0.1367
46235W        W89173  31.432  21.791   3.527 -0.0582 -0.1070 -0.1607
46236W        W89174  31.293  20.233   2.014 -0.0463 -0.3347 -0.2105
46237W        W89175  29.190  18.224   3.836  0.4203 -0.0396 -0.1211
46238W        W89176  29.585  22.153   1.845 -0.3653  0.1960  0.1765
46239W        W89177  31.098  20.890   1.623  0.0607  0.1413  0.2583
46240W        W89178  32.478  20.247   1.815 -0.1762 -0.3530  0.1226
46241W        W89179  31.012  19.007   2.069 -0.0183 -0.0853  0.1866
46242W        W89180  32.080  17.378   0.989  0.2684 -0.0353 -0.0202
46243W        W89181  28.939  20.505   3.829  0.1169  0.2026  0.0045
46244W        W89182  31.376  20.128   3.087 -0.1685 -0.3245  0.0568
46245W        W89183  29.396  21.321   6.783 -0.1933 -0.1107 -0.0144
46246W        W89184  30.548  20.319   4.215 -0.1312 -0.0446  0.0593
46247W        W89185  33.430  19.276   3.125  0.0235  0.1362  0.1938
46248W        W89186  33.477  19.908   3.692  0.1361  0.0493  0.0189
46249W        W89187  29.933  17.953   5.419 -0.2348 -0.2625 -0.0081
46250W        W89188  33.486  22.133   3.942  0.0406 -0.2428  0.4004
46251W        W89189  30.868  18.038   7.401  0.3191 -0.0996 -0.0732
46252W        W89190  31.562  21.198   6.192  0.0104 -0.0655 -0.0782
46253W        W89191  33.186  21.516   4.568 -0.1205  0.1898  0.1257
46254W        W89192  31.721  20.321   3.425 -0.3269  0.0215  0.0532
46255W        W89193  30.224  18.841   6.629  0.2548  0.2657 -0.0346
46256W        W89194  30.411  20.621   6.389  0.1395  0.2075  0.0576
46257W        W89195  30.213  19.832   5.665  0.1803 -0.0734  0.0735
46258W        W89196  28.397  17.766   4.664 -0.1707  0.1596 -0.3977
46259W        W89197  33.035  20.760   6.046 -0.0809 -0.1681 -0.3133
46260W        W89198  29.828  20.035   5.304 -0.0361 -0.0958  0.0872
46261W        W89199  28.843  19.856   6.559 -0.0972  0.4084  0.1012
46262W        W89200  31.139  19.614   5.183 -0.1295  0.0740 -0.0868
46263W        W89201  30.244  20.935   4.867  0.0397  0.2280  0.1615
46264W        W89202  31.309  17.722   5.369  0.0614 -0.0151  0.1636
46265W        W89203  32.335  18.720   8.143  0.1603 -0.1491  0.1825
46266W        W89204  31.656  20.770   4.294  0.2129  0.0015  0.2687
46267W        W89205  29.059  19.496   4.367  0.0377 -0.1196 -0.0601
46268W        W89206  28.270  20.227   5.866 -0.2300 -0.2221 -0.2324
46269W        W89207  31.560  20.114   7.032  0.0327  0.0263 -0.1960
46270W        W89208  31.298  19.534   5.723 -0.3493  0.1874  0.2714
46271W        W89209  31.494  19.413   6.792  0.2164 -0.2099  0.0050
46272W        W89210  30.306  22.358   5.083 -0.2534 -0.0796 -0.0503
46273W        W89211  31.455  21.720   4.316 -0.1695  0.0225  0.2563
46274W        W89212  32.428  19.192   8.191 -0.0178  0.0111 -0.0597
46275W        W89213  27.941  19.685   5.191 -0.0949 -0.1962  0.1533
46276W        W89214  29.035  21.481   4.288 -0.0412  0.1786 -0.3851
46277W        W89215  29.941  20.271   4.015  0.1435 -0.3229  0.2897
46278W        W89216  32.157  21.940   3.790  0.0892  0.1772 -0.0976
46279W        W89217  32.153  20.961   5.807 -0.1098 -0.1158  0.2785
46280W        W89218  29.657  23.188   6.804 -0.1910 -0.0411  0.0448
46281W        W89219  29.793  20.805   4.653  0.2331  0.0052  0.0433
46282W        W89220  29.911  21.990   7.247  0.0859 -0.2650 -0.2263
46283W        W89221  30.104  21.829   6.515 -0.4442  0.2511  0.4888
46284W        W89222  32.425  19.950   6.957 -0.2299 -0.0187 -0.0138
46285W        W89223  30.609  21.057   5.986  0.3047  0.2805 -0.3114
46286W        W89224  30.843  21.696   3.496 -0.1031 -0.2370  0.3983
46287W        W89225  30.352  19.609   6.034  0.2958  0.1445 -0.1244
46288W        W89226  29.472  20.066   6.431 -0.0098  0.3006 -0.3765
46289W        W89227  30.288  21.862   5.427 -0.0906  0.0306 -0.0131
46290W        W89228  33.881  18.578   7.144  0.2192 -0.0918 -0.0665
46291W        W89229  30.254  23.280   3.542  0.1195 -0.0854 -0.0057
46292W        W89230  31.390  19.069   3.909 -0.0361  0.1466  0.1630
46293W        W89231  29.890  19.471   2.775 -0.1674 -0.4564 -0.0545
46294W        W89232  31.921  19.527   3.388  0.0761  0.1568  0.1365
46295W        W89233  30.685  18.425   4.513  0.1672 -0.0567  0.0661
46296W        W89234  30.319  21.413   5.160 -0.1275  0.2276  0.0135
46297W        W89235  31.164  19.511   6.234 -0.0220  0.3071 -0.0969
46298W        W89236  31.730  20.910   6.578 -0.2120 -0.0402  0.3971
46299W        W89237  31.506  19.413   4.907  0.0890 -0.2471  0.1070
46300W        W89238  33.034  18.472   6.023 -0.1502  0.1410  0.0791
46301W        W89239  31.065  21.226   6.153  0.0080  0.0623  0.2484
46302W        W89240  29.092  20.714   5.687 -0.0819 -0.0551  0.1444
46303W        W89241  32.653  20.647   3.813  0.2127 -0.1795  0.0629
46304W        W89242  31.655  20.785   5.599 -0.1904 -0.2392  0.0347
46305W        W89243  29.208  21.930   2.894  0.2516  0.0831  0.1978
46306W        W89244  28.251  20.005   4.997 -0.1766  0.0521 -0.3291
46307W        W89245  28.819  20.083   7.563  0.0097  0.1652  0.0860
46308W        W89246  28.579  20.609   6.617 -0.1352 -0.0147 -0.0324
46309W        W89247  30.139  18.014   3.950 -0.0735  0.3225  0.0903
46310W        W89248  33.170  19.863   6.202 -0.0806 -0.0933 -0.1725
46311W        W89249  29.052  21.219   6.377 -0.1965 -0.1282  0.0603
46312W        W89250  32.754  18.645   4.570  0.0016  0.0839  0.1026
46313W        W89251  30.403  20.177   6.662  0.0586  0.2383  0.0527
46314W        W89252  32.339  20.511   6.081  0.1477  0.0995  0.2387
46315W        W89253  33.108  20.777   3.371  0.2250 -0.0095  0.1567
46316W        W89254  31.409  18.149   6.031  0.2383  0.2016  0.1759
46317W        W89255  31.190  19.660   7.072 -0.0683 -0.2531 -0.3365
46318W        W89256  30.301  20.249   5.302  0.2472  0.1216  0.2975
46319W        W89257  29.005  20.150   4.756  0.0414  0.0042 -0.0590
46320W        W89258  31.601  22.569   5.016 -0.1498 -0.0674  0.0879
46321W        W89259  32.581  21.410   4.922 -0.2593 -0.0680  0.3845
46322W        W89260  29.420  22.047   5.225  0.1010 -0.0849  0.0126
46323W        W89261  30.160  19.779   6.505  0.1888 -0.0027 -0.1263
46324W        W89262  31.069  21.865   6.807 -0.2122 -0.1539  0.2047
46325W        W89263  30.044  22.320   3.565 -0.1749 -0.2692 -0.0708
46326W        W89264  29.867  21.547   5.313 -0.3078 -0.0540  0.0694
46327W        W89265  29.391  19.852   5.123  0.1663  0.1243 -0.0029
46328W        W89266  29.168  17.474   5.746  0.1393  0.1784  0.0353
46329W        W89267  30.864  20.676   6.168  0.1270 -0.0650  0.2800
46330W        W89268  32.318  19.089   3.847 -0.1345  0.4457  0.3323
46331W        W89269  30.665  20.202   6.176 -0.0325 -0.0899 -0.1112
46332W        W89270  33.589  18.626   5.151 -0.0429 -0.0114 -0.0366
46333W        W89271  29.646  19.127   5.431  0.0379 -0.3200 -0.1771
46334W        W89272  32.246  21.310   4.515 -0.0041  0.2286 -0.1902
46335W        W89273  32.122  20.618   4.576  0.1242  0.0976  0.0343
46336W        W89274  33.470  20.701   2.690 -0.0071  0.3840 -0.1404
46337W        W89275  31.647  19.648   5.352 -0.1215  0.1419  0.0851
46338W        W89276  29.282  19.160   4.626  0.1784  0.0722 -0.0474
46339W        W89277  29.007  18.741   5.982 -0.0551  0.0511 -0.0125
46340W        W89278  28.656  17.691   6.118  0.0873  0.0475 -0.0424
46341W        W89279  32.732  19.517   7.821 -0.1144  0.2999  0.1550
46342W        W89280  28.402  18.768   3.932 -0.0633  0.0461 -0.1890
46343W        W89281  33.080  18.700   5.145  0.1349  0.2057 -0.1170
46344W        W89282  29.558  19.248   4.241  0.1660  0.1955  0.0061
46345W        W89283  29.816  22.413   5.229 -0.0112 -0.2264  0.5192
46346W        W89284  32.136  19.659   7.663  0.2140  0.0134 -0.0163
46347W        W89285  31.234  20.567   4.820 -0.0683  0.0705 -0.1535
46348W        W89286  31.570  21.346   5.686 -0.0896  0.1220 -0.1391
46349W        W89287  33.128  22.214   5.197  0.0854 -0.3943  0.0107
46350W        W89288  30.686  18.895   6.837 -0.1039  0.1580  0.0665
46351W        W89289  31.111  18.944   4.812 -0.6832  0.0219  0.1383
46352W        W89290  29.642  22.852   6.008 -0.1890 -0.1347 -0.1112
46353W        W89291  30.893  20.180   4.644 -0.0293 -0.0707  0.1958
46354W        W89292  30.088  19.456   4.403  0.4017 -0.3588 -0.3673
46355W        W89293  30.814  21.501   5.044 -0.0726  0.0653 -0.0018
46356W        W89294  31.350  19.967   6.054  0.2496 -0.2555  0.2669
46357W        W89295  29.610  21.410   7.213 -0.2448 -0.3943  0.0643
46358W        W89296  31.487  18.752   6.805 -0.1260 -0.1952  0.1178
46359W        W89297  32.879  19.639   6.552 -0.1473 -0.0560 -0.1208
46360W        W89298  31.370  19.830   4.562 -0.5062  0.1812 -0.1655
46361W        W89299  29.025  19.567   4.811  0.0980  0.1954  0.1666
46362W        W89300  31.340  21.146   5.275  0.1494 -0.0127  0.0974
46363W        W89301  29.974  19.348   3.245  0.4497 -0.0530 -0.0721
46364W        W89302  29.582  20.395   4.953 -0.0675 -0.0062  0.1820
46365W        W89303  31.672  20.769   5.023  0.2176  0.1812 -0.0301
46366W        W89304  32.656  19.633   4.772 -0.1115  0.2218 -0.0550
46367W        W89305  29.773  19.675   7.632  0.1619  0.3484 -0.1675
46368W        W89306  30.328  19.004   7.623 -0.1629  0.0335 -0.3915
46369W        W89307  30.013  19.297   5.806  0.4543  0.2551 -0.0706
46370W        W89308  29.786  21.584   6.230 -0.2584  0.2252 -0.1162
46371W        W89309  32.002  19.102   6.863 -0.0087  0.0340  0.0449
46372W        W89310  32.983  19.104   3.747 -0.2742  0.1144 -0.0535
46373W        W89311  32.125  20.357   7.000  0.1895  0.3531 -0.0649
46374W        W89312  31.596  20.437   3.894  0.2712  0.0336 -0.0274
46375W        W89313  32.159  20.492   3.156 -0.0341 -0.2195  0.2160
46376W        W89314  31.890  18.571   4.020 -0.2622 -0.0059 -0.0591
46377W        W89315  29.185  20.749   6.713  0.3683 -0.1760 -0.1605
46378W        W89316  30.200  20.091   6.091 -0.0304  0.1781 -0.3188
46379W        W89317  31.221  20.608   5.339 -0.0868  0.0748 -0.0307
46380W        W89318  30.990  19.181   4.279 -0.0108 -0.0465  0.3046
46381W        W89319  34.100  19.869   4.076  0.0230 -0.3273 -0.1933
46382W        W89320  30.532  19.771   5.080 -0.2699  0.1655  0.0227
46383W        W89321  31.584  19.162   7.193 -0.2986 -0.1703  0.0927
46384W        W89322  31.815  21.211   4.803  0.0477  0.0482 -0.1664
46385W        W89323  31.616  18.310   6.486 -0.2840  0.1381  0.0683
46386W        W89324  29.935  18.996   2.927 -0.1533  0.0898  0.0779
46387W        W89325  32.209  19.410   6.121 -0.1064 -0.0934  0.2649
46388W        W89326  29.451  21.990   3.730  0.3691 -0.2585  0.3825
46389W        W89327   0.175  19.751   4.176 -0.1531 -0.2136 -0.1345
46390W        W89328  31.023  18.610   6.667  0.0056 -0.0365  0.1652
46391W        W89329  31.796  17.876   6.683  0.0138 -0.2560 -0.1149
46392W        W89330  33.446  19.756   7.123 -0.0887 -0.2718 -0.0119
46393W        W89331  32.612  19.809   4.328 -0.2528 -0.0708  0.1087
46394W        W89332  32.570  19.788   7.404  0.1102 -0.1964  0.1317
46395W        W89333  29.837  19.936   4.852 -0.1259  0.0607 -0.1085
46396W        W89334  30.904  18.520   7.549 -0.2289  0.2265  0.1217
46397W        W89335  30.777  19.406   7.154  0.2893 -0.1408  0.2038
46398W        W89336  29.105  23.111   7.548  0.2567 -0.1009  0.1213
46399W        W89337  31.413  21.827   7.826 -0.1490 -0.0040  0.6246
46400W        W89338  32.312  19.989   4.687 -0.0821 -0.0345  0.2492
46401W        W89339  32.249  18.591   6.930  0.0677  0.3669 -0.1601
46402W        W89340  31.854  19.061   4.170  0.1355 -0.1259 -0.3419
46403W        W89341  30.517  21.896   4.934 -0.0403 -0.3372  0.0625
46404W        W89342  31.259  20.395   3.529 -0.1195 -0.0480 -0.1866
46405W        W89343  29.891  18.724   7.053 -0.0522  0.1767 -0.0937
46406W        W89344  31.033  21.300   5.685  0.1310  0.3890  0.0551
46407W        W89345  29.787  19.414   5.073 -0.0854  0.2957 -0.3736
46408W        W89346  31.401  18.810   7.774  0.0023 -0.1024  0.0660
46409W        W89347  31.032  23.132   3.495 -0.0143  0.0753 -0.1621
46410W        W89348  32.773  18.188   5.663  0.4748 -0.1931 -0.1108
46411W        W89349  28.591  20.213   6.248 -0.0186 -0.2755 -0.0579
46412W        W89350  28.490  18.735   3.167  0.2715  0.1560  0.3660
46413W        W89351  29.151  19.215   3.928  0.0992 -0.4952 -0.2531
46414W        W89352  33.156  19.553   4.525 -0.0490 -0.0833  0.1740
46415W        W89353  33.763  20.360   2.960 -0.1306  0.2238 -0.3495
46416W        W89354  30.604  17.995   6.203  0.1374  0.1614 -0.0880
46417W        W89355  31.517  18.175   5.157 -0.2539 -0.0412 -0.0303
46418W        W89356  29.449  23.060   4.953  0.1484 -0.0813 -0.2027
46419W        W89357  32.256  19.447   5.077 -0.1839 -0.0726  0.0259
46420W        W89358  31.801  19.486   3.901  0.0085  0.0543 -0.1795
46421W        W89359  31.486  22.224   5.367 -0.2437 -0.1571 -0.1455
46422W        W89360  31.779  19.829   7.965 -0.2715  0.0224  0.1812
46423W        W89361  29.734  18.421   4.850  0.0363  0.2265  0.0956
46424W        W89362  32.338  19.041   6.494  0.2148 -0.1208  0.0094
46425W        W89363  31.353  20.403   6.344  0.1194  0.0813 -0.1413
46426W        W89364  30.097  21.199   4.436 -0.1165  0.1554  0.1876
46427W        W89365  29.420  22.712   6.703  0.0013  0.1680 -0.1555
46428W        W89366  30.393  20.779   5.432  0.0700 -0.1767  0.0832
46429W        W89367  30.372  21.637   4.491  0.0753 -0.0733  0.0331
46430W        W89368  31.316  18.223   7.688  0.0332  0.0373  0.0563
46431W        W89369  32.687  19.157   5.364 -0.0688 -0.0376 -0.1725
46432W        W89370  30.971  19.436   6.695  0.1835  0.2911 -0.2121
46433W        W89371  31.535  18.775   4.988  0.0642  0.2448  0.0289
46434W        W89372  31.545  19.880   6.599  0.1032  0.0778 -0.2278
46435W        W89373  32.565  19.358   6.855  0.0951 -0.0893 -0.0540
46436W        W89374  31.281  18.621   6.174 -0.0231  0.0927 -0.4691
46437W        W89375  29.684  20.170   7.421 -0.2037  0.1834  0.4381
46438W        W89376  32.361  18.240   5.973 -0.0399  0.2656 -0.0148
46439W        W89377  32.342  22.971   3.209 -0.3645 -0.2377 -0.0287
46440W        W89378  31.808  18.845   8.083  0.0930 -0.1906 -0.0638
46441W        W89379  30.490  21.441   4.080 -0.0185  0.0704 -0.2807
46442W        W89380  28.324  19.882   5.527  0.1139  0.2376 -0.0897
46443W        W89381  29.477  19.209   5.889  0.1018  0.0584 -0.0346
46444W        W89382  31.648  19.451   4.426  0.0507 -0.0640  0.0420
46445W        W89383  29.964  20.369   6.520 -0.1609  0.2478  0.1148
46446W        W89384  30.304  20.120   3.632 -0.2495 -0.1665  0.1586
46447W        W89385  29.563  21.083   6.367 -0.2055  0.1815 -0.3608
46448W        W89386  32.914  18.231   3.350 -0.0305 -0.0546 -0.1280
46449W        W89387  29.800  19.841   4.248  0.0136  0.2113 -0.1970
46450W        W89388  31.759  19.981   5.711  0.0870 -0.1180 -0.0313
46451W        W89389  32.606  18.134   6.856 -0.0875  0.0250 -0.1160
46452W        W89390  31.816  19.762   4.794  0.1099 -0.0120  0.0427
46453W        W89391  32.550  18.262   7.820  0.2636  0.0001 -0.0398
46454W        W89392  30.513  19.066   5.614  0.1791  0.0105 -0.2356
46455W        W89393  32.701  20.687   5.500  0.1770 -0.1789 -0.1934
46456W        W89394  29.817  19.717   6.174  0.2022  0.3533  0.2956
46457W        W89395  30.557  20.284   7.122  0.0299 -0.0015  0.3410
46458W        W89396  29.830  19.165   7.354  0.0161  0.1153 -0.1878
46459W        W89397  31.709  20.046   4.266  0.2007 -0.0078 -0.1239
46460W        W89398  29.596  18.886   3.901  0.3870  0.2237  0.4480
46461W        W89399  30.841  20.698   7.039 -0.1002  0.1645 -0.1081
46462W        W89400  32.170  20.690   5.307 -0.0639  0.1843 -0.0186
46463W        W89401  31.090  19.976   6.458 -0.3516  0.0697 -0.1216
46464W        W89402  32.048  20.287   5.024 -0.1478 -0.2329  0.0465
46465W        W89403  29.421  20.285   5.595 -0.0440 -0.5739  0.2223
46466W        W89404  32.348  20.935   4.945 -0.0571  0.2998  0.2255
46467W        W89405  32.837  21.510   3.272 -0.0729  0.2851 -0.1571
46468W        W89406  30.829  19.815   5.920  0.0923  0.0762 -0.1026
46469W        W89407  29.637  18.078   6.352 -0.1462  0.1498 -0.0397
46470W        W89408  31.801  19.136   6.358  0.0186  0.1743 -0.0476
46471W        W89409  31.786  20.174   6.187  0.1748  0.1493  0.3893
46472W        W89410  30.749  18.368   7.066  0.3196  0.5599  0.0429
46473W        W89411  31.567  18.924   5.548  0.1494 -0.2407 -0.0960
46474W        W89412  32.154  20.166   6.530  0.1069 -0.0418  0.1037
46475W        W89413  29.548  19.581   7.150 -0.0890 -0.0234  0.3521
46476W        W89414  32.037  21.600   5.594 -0.1026 -0.2466 -0.0621
46477W        W89415  32.181  20.936   3.503 -0.1767  0.2006 -0.0501
46478W        W89416  32.774  18.659   5.561 -0.0489 -0.0525 -0.4189
46479W        W89417  33.333  20.560   4.608 -0.0494 -0.3877 -0.1533
46480W        W89418  31.320  20.039   3.967  0.0440 -0.0148  0.1930
46481W        W89419  29.094  19.773   6.143  0.0325 -0.0376 -0.1564
46482W        W89420  32.162  20.045   8.756  0.1041  0.0386 -0.2793
46483W        W89421  30.397  18.917   3.688  0.0671 -0.0681  0.0192
46484W        W89422  32.315  19.628   6.548 -0.2029 -0.3060  0.1061
46485W        W89423  32.917  20.816   4.742 -0.1322 -0.1174  0.0397
46486W        W89424  30.759  21.041   5.267  0.2255  0.0151 -0.1402
46487W        W89425  32.368  18.720   5.233  0.2659  0.1225  0.1618
46488W        W89426  29.064  18.853   6.484  0.0351  0.0086  0.3469
46489W        W89427  30.859  21.457   6.656  0.3517 -0.0902  0.0529
46490W        W89428  29.798  18.964   4.826  0.0434 -0.2640 -0.1979
46491W        W89429  31.402  19.465   3.566  0.0260 -0.0766 -0.1537
46492W        W89430  31.148  21.077   6.968  0.2431  0.2899 -0.0728
46493W        W89431  32.448  20.425   7.371 -0.1827 -0.2132 -0.2214
46494W        W89432  31.150  17.561   4.376  0.1304 -0.1833  0.1476
46495W        W89433  32.970  18.405   7.084  0.4475 -0.1878  0.0012
46496W        W89434  30.624  22.996   3.156  0.0265  0.2025 -0.2222
46497W        W89435  31.837  18.079   5.692 -0.1433 -0.1817  0.0888
46498W        W89436  29.574  21.190   4.344 -0.2780 -0.1619 -0.0214
46499W        W89437  29.093  20.265   6.604  0.0860 -0.1149 -0.3157
46500W        W89438  30.466  21.864   3.750 -0.1482  0.0683  0.0322
46501W        W89439  31.140  19.041   6.943  0.1960 -0.2915  0.1940
46502W        W89440  31.138  20.144   5.105  0.0661  0.3152 -0.0441
46503W        W89441  32.191  19.422   4.393 -0.0429 -0.1653 -0.3256
46504W        W89442  32.774  20.148   7.719 -0.5445  0.1936 -0.0113
46505W        W89443  30.292  20.678   7.462  0.0443  0.0041 -0.1441
46506W        W89444  30.357  18.195   5.206  0.1617 -0.1229 -0.0132
46507W        W89445  29.302  22.195   6.737  0.1093  0.2003 -0.1638
46508W        W89446  33.247  20.341   3.863 -0.0359  0.0809  0.2065
46509W        W89447  29.983  21.519   4.783  0.4232 -0.1810 -0.0949
46510W        W89448  29.031  19.252   6.189  0.0143  0.1837  0.3137
46511W        W89449  31.934  19.746   6.853 -0.0071 -0.0986 -0.2460
46512W        W89450  32.818  20.287   6.027 -0.0489  0.1809 -0.2197
46513W        W89451  31.051  18.892   5.653  0.2995 -0.0000 -0.0318
46514W        W89452  30.174  20.565   3.230 -0.1335 -0.1065  0.1702
46515W        W89453  29.271  21.691   6.444 -0.1458 -0.1505 -0.2273
46516W        W89454  28.342  21.073   6.881 -0.0983  0.1965  0.1390
46517W        W89455  29.867  22.486   4.116  0.0353  0.1350 -0.1191
46518W        W89456  32.928  20.994   5.195 -0.3136 -0.4282 -0.0684
46519W        W89457  32.191  20.353   4.143 -0.1489  0.3604  0.0413
46520W        W89458  31.023  21.076   4.862 -0.0900 -0.0096  0.0697
46521W        W89459  30.757  20.709   4.544 -0.0311  0.0713 -0.0924
46522W        W89460  29.735  22.434   5.727 -0.1972 -0.0344 -0.1564
46523W        W89461  28.554  20.570   3.518 -0.1775 -0.0916 -0.1959
46524W        W89462  32.337  21.463   3.450 -0.1664  0.0210 -0.0321
46525W        W89463  30.631  21.211   4.574  0.1741  0.4808 -0.2081
46526W        W89464  32.225  20.685   6.517  0.1360  0.3916  0.1371
46527W        W89465  32.551  17.981   4.722 -0.1983  0.2928  0.1354
46528W        W89466  32.934  19.134   4.881  0.2751 -0.0208 -0.1085
46529W        W89467  32.519  18.892   3.377  0.0656  0.1977 -0.1618
46530W        W89468  30.572  22.861   6.232 -0.0946  0.0596 -0.1279
46531W        W89469  30.660  19.736   6.385 -0.2413 -0.1637 -0.0860
46532W        W89470  30.874  18.049   3.458  0.0591  0.0617 -0.1124
46533W        W89471  29.934  20.541   7.166 -0.0286 -0.0623 -0.1006
46534W        W89472  32.324  18.993   7.259 -0.0177  0.3402  0.0658
46535W        W89473  29.432  21.634   5.694 -0.1355 -0.0164  0.2604
46536W        W89474  33.167  21.908   3.598  0.1229  0.2319  0.0495
46537W        W89475  30.118  18.979   4.392  0.3593  0.1078 -0.0302
46538W        W89476  30.512  20.381   5.740 -0.0626  0.5400  0.0908
46539W        W89477  32.848  18.943   6.298 -0.1280 -0.4707  0.0206
46540W        W89478  30.361  21.160   2.056  0.0605  0.0893  0.3611
46541W        W89479  30.787  18.974   7.319 -0.1241 -0.0473  0.1316
46542W        W89480  30.603  22.111   4.517 -0.0579 -0.0674  0.0879
46543W        W89481  30.931  20.789   5.674 -0.2568  0.0012  0.0838
46544W        W89482  31.052  21.978   4.895  0.1073 -0.0573 -0.1149
46545W        W89483  29.374  18.835   5.056  0.1539 -0.1617 -0.2965
46546W        W89484  34.061  18.988   4.482 -0.1481 -0.0455 -0.2264
46547W        W89485  30.780  20.457   7.582  0.0439 -0.2033 -0.0344
46548W        W89486  32.513  18.376   7.301  0.1168  0.1426  0.0472
46549W        W89487  30.118  18.980   5.232 -0.2567 -0.0484  0.2292
46550W        W89488  32.853  20.336   4.539 -0.0297 -0.0235  0.0106
46551W        W89489  31.355  20.596   6.818 -0.2125  0.3361 -0.0091
46552W        W89490  30.927  19.432   4.733  0.0201 -0.2196 -0.1118
46553W        W89491  33.067  20.554   6.811 -0.1086  0.1600 -0.1330
46554W        W89492  31.169  20.750   3.884 -0.3693 -0.2990  0.1730
46555W        W89493  30.231  20.188   7.531 -0.1487  0.2071 -0.1614
46556W        W89494  31.351  18.468   5.582  0.2443  0.1069 -0.1694
46557W        W89495  32.107  19.831   4.108 -0.2378 -0.1522  0.0237
46558W        W89496  29.469  20.568   6.329 -0.0060 -0.2398 -0.3007
46559W        W89497  30.909  20.412   6.604  0.0855 -0.2017 -0.4464
46560W        W89498  32.109  21.188   6.769  0.0906 -0.1650 -0.1234
46561W        W89499  29.102  18.066   5.981  0.1726 -0.1934  0.3227
46562W        W89500  32.629  21.086   2.337  0.0150 -0.0477  0.1484
46563W        W89501  32.613  19.687   5.391 -0.0881 -0.0975 -0.1444
46564W        W89502  29.941  21.925   4.520 -0.0095 -0.0859  0.1130
46565W        W89503  31.484  20.401   5.821 -0.0346 -0.1148 -0.2105
46566W        W89504  32.153  21.469   5.065  0.1992  0.0510  0.1441
46567W        W89505  31.386  19.101   5.999 -0.4253  0.0573  0.0506
46568W        W89506  31.331  21.627   6.094 -0.0405  0.3390 -0.0070
46569W        W89507  32.702  21.645   4.322 -0.4035 -0.2998  0.1834
46570W        W89508  31.213  19.143   5.279  0.3408 -0.2982  0.2297
46571W        W89509  31.278  20.029   5.574 -0.1069 -0.0784  0.0785
46572W        W89510  29.025  22.227   4.992  0.2328  0.0875 -0.1241
46573W        W89511  33.614  18.131   5.324  0.0309  0.2554 -0.2108
46574W        W89512  33.086  18.495   6.500  0.0093  0.1252 -0.1118
46575W        W89513  29.231  21.109   3.509  0.0922 -0.0146 -0.1470
46576W        W89514  32.976  18.269   7.576  0.2601 -0.0426  0.0787
46577W        W89515  30.477  21.586   6.258  0.0668 -0.3972  0.1138
46578W        W89516  30.236  21.673   6.984 -0.2420  0.0151 -0.1493
46579W        W89517  29.029  19.722   5.589 -0.1266 -0.0317 -0.1303
46580W        W89518  30.997  21.035   7.462 -0.1202  0.5655  0.2557
46581W        W89519  30.906  19.896   4.191  0.4354 -0.0490  0.1089
46582W        W89520  31.641  20.946   3.776  0.0242 -0.0291 -0.0651
46583W        W89521  32.026  20.390   5.720  0.2837  0.0419 -0.2509
46584W        W89522  30.756  20.044   5.471 -0.0942 -0.0054 -0.3969
46585W        W89523  32.762  20.022   5.063  0.4104  0.0824  0.1703
46586W        W89524  30.641  19.443   4.019  0.1699  0.5810 -0.1455
46587W        W89525  32.303  19.044   5.609  0.0242 -0.2060  0.0002
46588W        W89526  32.666  18.726   3.935 -0.1455  0.1527 -0.0295
46589W        W89527  31.014  20.323   5.838  0.0152 -0.1134 -0.0403
46590W        W89528  29.258  21.383   4.713 -0.0825  0.3356  0.2708
46591W        W89529  29.707  20.224   6.007  0.4120 -0.2346  0.3028
46592W        W89530  30.066  19.321   6.352  0.2597  0.0132 -0.0953
46593W        W89531  32.057  18.300   7.965 -0.0979  0.1397  0.1465
46594W        W89532  30.357  18.642   7.252 -0.1084  0.0750  0.2183
46595W        W89533  30.728  19.529   5.469 -0.1999  0.1409  0.0156
46596W        W89534  30.600  18.921   4.660  0.2507 -0.1326  0.0784
46597W        W89535  31.283  20.758   3.123 -0.1804 -0.1818 -0.1528
46598W        W89536  29.777  18.582   6.586 -0.3930 -0.0422 -0.3372
46599W        W89537  29.969  18.493   5.300  0.1461 -0.4283 -0.3585
46600W        W89538  30.861  20.692   3.489 -0.0199  0.0942  0.3317
46601W        W89539  30.885  21.061   4.176  0.0326 -0.2119  0.0030
46602W        W89540  31.830  18.531   4.575  0.3674 -0.0888  0.2956
46603W        W89541  33.039  22.152   5.704  0.0728  0.0558 -0.1181
46604W        W89542  28.727  19.228   4.581 -0.0838 -0.1384 -0.1531
46605W        W89543  31.099  18.568   8.069  0.0004 -0.2962 -0.0919
46606W        W89544  31.779  17.891   7.824 -0.1809 -0.1211 -0.2489
46607W        W89545  30.393  17.839   3.572  0.1349  0.1771 -0.1346
46608W        W89546  30.794  19.344   5.943 -0.2024 -0.4149  0.1301
46609W        W89547  31.681  20.388   4.689  0.3501 -0.0026  0.1296
46610W        W89548  32.590  23.169   4.698  0.3172  0.1694  0.1594
46611W        W89549  30.683  20.934   6.631 -0.2921 -0.3735  0.0950
46612W        W89550  29.985  20.856   6.612 -0.2408 -0.0380  0.0118
46613W        W89551  29.130  18.878   5.479  0.0939  0.2827  0.0013
46614W        W89552  33.331  21.246   3.270  0.0582  0.2094  0.3163
46615W        W89553  30.187  20.888   8.024  0.0892  0.1829 -0.1397
46616W        W89554  31.415  21.539   4.804  0.1060  0.1449  0.0915
46617W        W89555  33.961  17.477   5.871  0.0707 -0.1458  0.0649
46618W        W89556  31.283  19.564   4.115  0.2496  0.3240 -0.0028
46619W        W89557  31.019  18.106   8.435  0.0131 -0.2557  0.1715
46620W        W89558  29.234  20.405   7.176  0.0175  0.3444 -0.0077
46621W        W89559  32.880  21.709   5.808 -0.1635  0.1168  0.2578
46622W        W89560  30.573  19.181   6.367 -0.0363  0.1020 -0.0455
46623W        W89561  32.329  18.396   4.732  0.0509 -0.0723 -0.1338
46624W        W89562  30.644  20.913   2.977  0.1281 -0.0262  0.0120
46625W        W89563  29.572  20.407   6.821 -0.1222 -0.1246  0.0507
46626W        W89564  32.652  18.754   2.932  0.2638  0.0930 -0.0383
46627W        W89565  31.844  19.357   5.698  0.0732  0.0994 -0.2463
46628W        W89566  31.331  20.835   5.987 -0.0068 -0.0808  0.2666
46629W        W89567  32.694  19.700   6.085  0.3055  0.0091 -0.6053
46630W        W89568  30.311  20.062   4.669 -0.1069  0.1188  0.0778
46631W        W89569  32.713  20.197   4.037 -0.2865  0.0513  0.2026
46632W        W89570  29.703  21.263   5.901  0.0453  0.2245 -0.0604
46633W        W89571  32.953  21.522   6.832 -0.1894  0.3305  0.1421
46634W        W89572  30.966  21.799   5.834  0.0942 -0.1465  0.0511
46635W        W89573  32.480  20.076   5.599 -0.0566 -0.0353  0.0275
46636W        W89574  29.919  17.848   6.839 -0.3806 -0.1708 -0.1271
46637W        W89575  29.975  20.455   5.621  0.3025  0.3221 -0.0653
46638W        W89576  30.738  20.579   5.020  0.0059  0.0612  0.3866
46639W        W89577  32.645  19.108   4.300  0.0351 -0.1006 -0.0019
46640W        W89578  31.669  20.280   5.300  0.1968 -0.2181  0.0274
46641W        W89579  32.075  18.645   3.525  0.2878 -0.0188 -0.1988
46642W        W89580  30.613  21.507   5.525  0.2383  0.1569  0.1256
46643W        W89581  31.043  20.142   7.213 -0.0355 -0.3612  0.0688
46644W        W89582  29.348  20.844   9.137 -0.1069 -0.0973  0.0689
46645W        W89583  30.600  19.815   7.360 -0.0047 -0.1014 -0.0608
46646W        W89584  33.228  19.143   7.291  0.0509  0.1143 -0.2830
46647W        W89585  32.880  20.140   7.178  0.2646  0.3358  0.2857
46648W        W89586  31.205  19.652   7.587  0.4865 -0.2120  0.0126
46649W        W89587  31.916  22.400   8.385 -0.1692  0.0916  0.2263
46650W        W89588  30.803  21.785   8.736 -0.0721  0.2759 -0.2964
46651W        W89589  33.271  21.478   8.721  0.0087 -0.0048  0.2971
46652W        W89590  32.086  19.979   7.300 -0.0202  0.0234 -0.0085
46653W        W89591  31.349  20.151   9.061 -0.0771 -0.0909  0.0580
46654W        W89592  32.160  18.082   7.524 -0.1228 -0.3948 -0.0628
46655W        W89593  29.162  19.348   8.284  0.0274 -0.2160  0.0563
46656W        W89594  32.209  19.920   9.798  0.1914 -0.0029  0.0046
46657W        W89595  30.054  19.290   7.890 -0.0148  0.0948 -0.1413
46658W        W89596  29.378  21.546   9.161  0.0170 -0.1814  0.0131
46659W        W89597  30.733  18.884   7.883  0.0131  0.2207  0.0389
46660W        W89598  31.126  21.152   7.969  0.0164 -0.0441  0.3311
46661W        W89599  32.590  18.420   9.190 -0.0352  0.2551  0.2206
46662W        W89600  29.869  21.350   6.705  0.4431  0.3353  0.3272
46663W        W89601  30.307  19.089   7.076 -0.1018 -0.1556 -0.1612
46664W        W89602  29.272  20.387   8.476 -0.0250  0.2973  0.0447
46665W        W89603  30.085  19.597   9.388 -0.2728  0.1477  0.1650
46666W        W89604  31.477  20.330   8.464  0.2750 -0.0409  0.2357
46667W        W89605  32.966  19.623   9.891 -0.0470  0.1379 -0.0363
46668W        W89606  31.001  21.675   8.045  0.0948  0.0717  0.1442
46669W        W89607  31.637  20.956   8.129 -0.2907 -0.0964 -0.2208
46670W        W89608  30.608  21.113   8.691  0.0814 -0.1073  0.0306
46671W        W89609  27.548  23.740   7.805  0.1757  0.1213 -0.3461
46672W        W89610  29.689  21.091   7.911 -0.0042 -0.0224  0.2778
46673W        W89611  33.397  19.643   6.622  0.0328 -0.0807 -0.3385
46674W        W89612  27.993  20.048   8.633 -0.2121  0.0008 -0.0654
46675W        W89613  31.910  20.395   8.968 -0.2833  0.0619 -0.0109
46676W        W89614  31.733  20.479   7.926 -0.0757 -0.3988 -0.4276
46677W        W89615  29.354  21.317   7.612 -0.0447 -0.0142 -0.0744
46678W        W89616  30.906  20.418   8.685 -0.0070  0.3374  0.0823
46679W        W89617  29.660  20.868   8.590  0.0305  0.0680  0.4224
46680W        W89618  27.177  21.595   7.044  0.0383  0.0875 -0.3035
46681W        W89619  33.524  19.474   7.629  0.1560  0.0666  0.1564
46682W        W89620  29.580  18.086   7.091  0.0989  0.0148  0.1922
46683W        W89621  32.229  18.667   7.610  0.2310 -0.0666  0.3185
46684W        W89622  30.936  18.432   9.101  0.0387  0.0190 -0.2527
46685W        W89623  28.731  22.240   9.266 -0.1968 -0.3371  0.0442
46686W        W89624  30.686  18.091   9.705  0.0887  0.1855 -0.2390
46687W        W89625  31.517  19.471   8.370 -0.1182  0.0466 -0.2418
46688W        W89626  33.515  19.952   8.831 -0.1075  0.2685 -0.1227
46689W        W89627  30.046  20.327   9.241 -0.0104 -0.1622 -0.3650
46690W        W89628  28.494  19.988   8.382  0.0013  0.1888 -0.1832
46691W        W89629  33.136  21.541   7.271 -0.3996  0.0656 -0.4189
46692W        W89630  33.155  23.023   9.911  0.1878 -0.0468  0.1615
46693W        W89631  31.572  21.301   7.125  0.0097 -0.1525  0.1076
46694W        W89632  30.286  19.581   8.467 -0.0725  0.0939 -0.2108
46695W        W89633  30.700  18.018   6.723 -0.2022  0.3589 -0.1659
46696W        W89634  31.450  20.409   9.464  0.2736  0.0044  0.2603
46697W        W89635  28.881  20.556   9.369 -0.0695  0.4545  0.0530
46698W        W89636  33.010  21.637   9.312 -0.0649 -0.5259 -0.1281
46699W        W89637  31.814  21.466   6.519  0.2178  0.1847  0.0892
46700W        W89638  32.833  18.796   8.842 -0.1259 -0.0003 -0.2273
46701W        W89639  33.162  18.672   9.954 -0.0564 -0.1002 -0.1096
46702W        W89640  31.823  20.754   7.118  0.1164 -0.1849 -0.0435
46703W        W89641  29.918  20.066   6.949  0.3334 -0.0068  0.1256
46704W        W89642  33.683  20.941   9.257 -0.0185  0.2105 -0.1162
46705W        W89643  31.782  19.664   6.218 -0.0331 -0.4570 -0.5110
46706W        W89644  29.020  21.401   8.216 -0.3522  0.0076 -0.1325
46707W        W89645  29.154  20.913   7.214 -0.1141 -0.0589 -0.1635
46708W        W89646  30.001  20.519   8.362  0.0885  0.2481  0.1199
46709W        W89647  28.434  20.499   7.506  0.1543  0.0569  0.0961
46710W        W89648  28.337  20.894   8.384 -0.1301 -0.0035 -0.4791
46711W        W89649  29.849  20.906   9.108  0.2949 -0.0273  0.4855
46712W        W89650  33.271  19.055   8.444  0.0107  0.0355 -0.0987
46713W        W89651  33.092  18.041   8.033 -0.0539  0.0612 -0.0106
46714W        W89652  30.424  20.156   8.309 -0.5059 -0.4621  0.0243
46715W        W89653  32.011  22.552   7.881 -0.0840  0.1616 -0.0206
46716W        W89654  32.580  19.172   8.666  0.1531 -0.0908  0.0475
46717W        W89655  32.813  21.962   7.433  0.1534  0.2888  0.1233
46718W        W89656  30.273  21.713   8.826 -0.0967  0.0818 -0.0722
46719W        W89657  30.478  18.657   8.823 -0.1703 -0.0306  0.1782
46720W        W89658  29.463  19.965   8.047  0.1729  0.0389 -0.3030
46721W        W89659  29.365  19.969   6.958  0.2523  0.0101 -0.0109
46722W        W89660  31.076  19.953   8.648  0.0266  0.2107 -0.0054
46723W        W89661  30.891  20.288   8.215  0.3087 -0.2508  0.0547
46724W        W89662  28.995  21.411   7.186  0.1920  0.0057 -0.4940
46725W        W89663  31.704  21.895   6.747 -0.2878  0.0401 -0.2976
46726W        W89664  33.497  21.389   9.158 -0.0069  0.1880 -0.0595
46727W        W89665  32.032  21.656   7.090 -0.0294 -0.1517  0.0706
46728W        W89666  27.125  20.433   9.181  0.2483 -0.1100  0.0192
46729W        W89667  30.274  18.314   6.854 -0.2497 -0.4175 -0.1717
46730W        W89668  30.174  20.760   8.745 -0.0046  0.0143  0.2274
46731W        W89669  30.735  22.601   8.551 -0.0651  0.3525  0.0171
46732W        W89670  31.337  18.859   8.436 -0.1778  0.1578  0.2038
46733W        W89671  32.374  22.326   9.420 -0.0080 -0.3386 -0.1924
46734W        W89672  31.660  21.442   7.652  0.3270  0.2273 -0.0752
46735W        W89673  33.408  21.169   9.595 -0.1397  0.1125  0.1999
46736W        W89674  31.905  20.614   8.519  0.0286  0.3137  0.0744
46737W        W89675  30.891  17.587   8.384  0.0477 -0.0240 -0.1238
46738W        W89676  31.695  22.666   8.741  0.1089 -0.6193  0.1002
46739W        W89677  27.928  19.721   7.755 -0.1692  0.0519  0.1888
46740W        W89678  29.621  18.991   7.809 -0.1618  0.4310  0.1857
46741W        W89679  30.075  21.373   8.025 -0.1440 -0.1214  0.0049
46742W        W89680  32.797  20.558   9.858 -0.0046  0.2580 -0.1550
46743W        W89681  29.922  19.988   8.472 -0.3444  0.1622 -0.4069
46744W        W89682  32.025  19.647   8.500 -0.2085 -0.1303 -0.0439
46745W        W89683  33.198  18.551   7.891  0.3133  0.0893 -0.2441
46746W        W89684  32.129  20.773   7.602  0.2229  0.1470 -0.2096
46747W        W89685  33.089  19.021   7.943 -0.1980  0.2398  0.2252
46748W        W89686  32.027  18.645   6.405 -0.2793 -0.1328 -0.1957
46749W        W89687  31.995  21.210   8.406 -0.0783  0.0688 -0.0396
46750W        W89688  31.736  21.600   8.600 -0.2049  0.1882 -0.2632
46751W        W89689  32.188  20.192   7.760  0.0904  0.0524  0.0786
46752W        W89690  32.845  21.437   8.243 -0.0819  0.0898 -0.0225
46753W        W89691  29.866  21.674   9.064  0.0876 -0.3901  0.2090
46754W        W89692  31.868  21.880   7.578 -0.0303 -0.1774  0.0361
46755W        W89693  30.006  19.211   9.694  0.1466 -0.0496  0.0103
46756W        W89694  30.443  19.435   6.703 -0.2117  0.1099 -0.3948
46757W        W89695  33.402  17.902   9.246  0.1045 -0.1781  0.1638
46758W        W89696  27.948  23.050   6.279 -0.0148  0.0707 -0.1797
46759W        W89697  33.489  19.142   9.691  0.0978  0.0583  0.0774
46760W        W89698  33.251  20.274   9.625 -0.0573  0.2188  0.1898
46761W        W89699  32.344  19.731   8.085  0.3095  0.1151 -0.1061
46762W        W89700  31.573  21.165   8.667 -0.1769  0.4260  0.0369
46763W        W89701  29.488  19.200   6.458  0.0951  0.5450 -0.2364
46764W        W89702  31.692  18.181   8.885 -0.0746 -0.3067 -0.1374
46765W        W89703  28.946  21.244   9.136 -0.1054  0.1017  0.2304
46766W        W89704  30.413  20.469   7.938 -0.0921 -0.0263  0.0270
46767W        W89705  32.799  18.399   8.206  0.2973 -0.2020  0.1199
46768W        W89706  28.714  20.460   7.075  0.0187  0.1532  0.1021
46769W        W89707  29.852  19.142   6.816  0.1994 -0.0230  0.1857
46770W        W89708  31.837  18.837   8.942  0.0679 -0.0972  0.1823
46771W        W89709  32.942  21.985   8.822 -0.0743 -0.3416  0.0022
46772W        W89710  31.193  19.719   8.083 -0.0109 -0.2925  0.2297
46773W        W89711  34.132  19.199   9.179 -0.0303 -0.1031  0.3123
46774W        W89712  27.723  21.261   7.683  0.2389  0.0268 -0.1462
46775W        W89713  33.993  17.786  10.000 -0.1073 -0.2048  0.1727
46776W        W89714  29.805  21.665   7.581 -0.1000  0.0021 -0.1809
46777W        W89715  29.789  18.925   6.169 -0.3598 -0.0980  0.1520
46778W        W89716  30.166  18.910   9.316  0.0248 -0.1129  0.0940
46779W        W89717  33.341  19.527   8.640  0.1434 -0.1145 -0.0107
46780W        W89718  32.320  20.811   7.105  0.1514  0.3311 -0.2261
46781W        W89719  30.062  18.288   9.510 -0.0879 -0.1665 -0.0875
46782W        W89720  30.649  18.840   9.310 -0.3073 -0.1052 -0.2025
46783W        W89721  29.578  23.536   8.668 -0.0430  0.0263 -0.2938
46784W        W89722  33.893  16.624   8.291 -0.1380 -0.3122 -0.2825
46785W        W89723  29.076  19.445   6.907 -0.1748 -0.3433  0.0490
46786W        W89724  33.178  19.126   8.910  0.2090 -0.1336 -0.0540
46787W        W89725  31.442  19.124   8.901 -0.0343 -0.0962 -0.1371
46788W        W89726  29.881  21.648   8.426  0.0134  0.0101 -0.4020
46789W        W89727  29.273  19.933   9.876 -0.3607  0.0001 -0.0254
46790W        W89728  30.303  19.458   7.406  0.0577 -0.0043 -0.2999
46791W        W89729  30.826  22.042   8.320  0.3616  0.0682  0.1356
46792W        W89730  33.062  21.115   9.215  0.0214 -0.0864 -0.1202
46793W        W89731  31.671  21.033   9.613  0.0939  0.1159  0.2157
46794W        W89732  31.540  19.382   7.826 -0.0094  0.0147  0.0451
46795W        W89733  31.204  20.809   8.452  0.1985  0.1514 -0.1196
46796W        W89734  31.083  21.406   8.587  0.0369 -0.1655 -0.0044
46797W        W89735  30.708  19.612   9.550 -0.0127 -0.0728 -0.2125
46798W        W89736  32.843  19.150   9.681  0.1534  0.3396 -0.1790
46799W        W89737  33.569  22.493   7.165 -0.0488  0.0792 -0.0438
46800W        W89738  31.005  20.526   9.215  0.1696  0.3745 -0.3419
46801W        W89739  28.756  20.469   8.474 -0.2392  0.1294  0.0386
46802W        W89740  31.164  20.951   6.519  0.0023 -0.1373 -0.1864
46803W        W89741  32.533  19.752   8.531 -0.0462  0.2093  0.2813
46804W        W89742  30.383  21.337   9.236 -0.0109 -0.2478 -0.0999
46805W        W89743  30.320  19.795   7.807 -0.2345 -0.1177 -0.3181
46806W        W89744  31.642  22.104   8.738 -0.1158  0.0340  0.0305
46807W        W89745  33.932  19.630   8.596  0.0688 -0.1652 -0.3606
46808W        W89746  31.537  20.988   7.486  0.1846 -0.0531 -0.2081
46809W        W89747  31.891  19.128   7.591 -0.0564  0.0757  0.1458
46810W        W89748  32.955  19.857   8.110 -0.0259  0.1249 -0.1120
46811W        W89749  31.653  19.354   9.308 -0.3080 -0.0561  0.4073
46812W        W89750  33.188  20.277   8.174 -0.2124 -0.1934  0.0290
46813W        W89751  31.102  19.160   8.000  0.1098  0.0737  0.2049
46814W        W89752  30.460  18.452   7.833  0.0327  0.1530  0.0375
46815W        W89753  30.379  18.639   9.756 -0.0091 -0.0620  0.3062
46816W        W89754  33.836  22.065   9.388  0.1271  0.0502 -0.1288
46817W        W89755  31.769  20.415   6.682 -0.0508  0.0007 -0.1737
46818W        W89756  32.715  19.152   9.163  0.0876 -0.3940 -0.1167
46819W        W89757  28.973  20.204   8.934  0.1407 -0.0888  0.5250
46820W        W89758  31.369  19.591   8.987  0.2605  0.0467  0.0937
46821W        W89759  31.176  20.672   7.821  0.0858 -0.3223 -0.0575
46822W        W89760  30.532  20.656   9.136  0.2842 -0.1486  0.2219
46823W        W89761  32.793  18.874   8.367 -0.3705 -0.1264  0.0597
46824W        W89762  33.196  18.582   8.477 -0.1312  0.2300 -0.2473
46825W        W89763  31.344  21.321   9.076 -0.1352  0.0044  0.0536
46826W        W89764  33.332  18.632   7.308  0.0030 -0.4913 -0.0601
46827W        W89765  33.123  19.982   9.183  0.1511 -0.1889  0.0234
46828W        W89766  33.321  19.486   8.106  0.3319  0.0620 -0.0965
46829W        W89767  30.711  19.465   7.729 -0.0864 -0.0880 -0.1344
46830W        W89768  29.595  19.657   8.613  0.2236 -0.1727 -0.0136
46831W        W89769  30.828  18.182   7.922 -0.4843  0.0714  0.2491
46832W        W89770  31.304  20.585   7.343  0.2050 -0.1167  0.0532
46833W        W89771  30.798  20.990   9.344 -0.2212 -0.0686 -0.1834
46834W        W89772  31.881  19.369   8.868  0.1327  0.2556  0.1301
46835W        W89773  30.544  18.439   8.328 -0.2991  0.1179  0.1661
46836W        W89774  30.032  19.603   6.982  0.5055  0.0058 -0.3916
46837W        W89775  31.980  20.146   8.312 -0.1862 -0.2859  0.4564
46838W        W89776  30.109  22.125   9.081  0.0692  0.2374  0.1202
46839W        W89777  32.263  19.021   9.062 -0.1615  0.0309 -0.3113
46840W        W89778  27.219  20.390   8.290 -0.0576 -0.1148  0.1089
46841W        W89779  31.741  17.628   8.830 -0.4998  0.0134 -0.2219
46842W        W89780  29.714  19.983   9.388  0.1818  0.0614 -0.1485
46843W        W89781  30.241  21.159   7.620 -0.1038 -0.2117 -0.1270
46844W        W89782  32.531  18.831   9.461  0.2738  0.0344  0.4469
46845W        W89783  31.956  19.043   8.508 -0.1828 -0.1109  0.0315
46846W        W89784  31.437  20.078   7.522  0.3558  0.1634  0.0012
46847W        W89785  30.717  19.564   8.788 -0.0161  0.2013 -0.3829
46848W        W89786  33.196  20.510   7.691 -0.1716 -0.1601 -0.3633
46849W        W89787  31.491  21.445   8.170  0.2302 -0.0044 -0.2067
46850W        W89788  31.824  20.369   7.429  0.1144 -0.0228 -0.2465
46851W        W89789  32.035  18.989   9.538  0.3404  0.1664  0.0664
46852W        W89790  29.426  19.054   6.961  0.2191 -0.1548 -0.1127
46853W        W89791  30.869  21.494   9.101  0.1688  0.1357  0.1004
46854W        W89792  29.285  21.796   7.389  0.0214 -0.1392  0.1749
46855W        W89793  33.039  21.067   7.953 -0.0724  0.0829 -0.1940
46856W        W89794  31.362  20.155   7.995 -0.0973 -0.0807  0.1161
46857W        W89795  31.191  21.905   9.471  0.5096 -0.0744 -0.2054
46858W        W89796  30.753  19.881   6.871 -0.2079  0.1958  0.0687
46859W        W89797  32.148  21.458   9.677  0.0179 -0.1007 -0.1120
46860W        W89798  27.159  20.092   7.422 -0.0677  0.2237  0.0152
46861W        W89799  31.695  22.170   8.036  0.2599  0.3011  0.0329
46862W        W89800  28.898  21.747   9.219  0.0925  0.0371  0.1528
46863W        W89801  32.946  17.984   6.513 -0.1294  0.0442  0.0726
46864W        W89802  31.965  21.331   9.196  0.2367 -0.1955 -0.0292
46865W        W89803  34.226  19.393   8.176  0.1489  0.2049 -0.3154
46866W        W89804  28.723  20.001   9.316 -0.2129  0.1440 -0.0973
46867W        W89805  31.906  18.506   8.487  0.0520  0.1968 -0.2401
46868W        W89806  32.589  22.340   7.056  0.1166 -0.2577 -0.3729
46869W        W89807  28.856  19.674  10.043  0.0854  0.1244 -0.3539
46870W        W89808  31.416  20.613   8.866  0.3167  0.3956 -0.3118
46871W        W89809  31.788  19.830   9.218 -0.0023 -0.0241  0.0302
46872W        W89810  29.995  21.112   7.193  0.3401 -0.2451  0.0990
46873W        W89811  31.958  19.363   9.824  0.2339  0.0937  0.0837
46874W        W89812  31.025  20.921   8.921  0.1125 -0.0643 -0.0263
46875W        W89813  30.933  21.528   7.215  0.1605  0.2470  0.0179
46876W        W89814  30.364  21.715   8.341 -0.1980  0.1175  0.0606
46877W        W89815  30.971  19.365   9.249 -0.1620 -0.3063 -0.1189
46878W        W89816  33.590  18.134  10.072  0.1535 -0.2855 -0.1444
46879W        W89817  31.702  21.837   9.173 -0.0628  0.2832 -0.0676
46880W        W89818  30.423  19.836   9.130 -0.0204 -0.1272 -0.1984
46881W        W89819  33.039  19.772   7.544  0.0751 -0.4903 -0.0167
46882W        W89820  30.577  19.163   9.708 -0.1286 -0.2307 -0.3269
46883W        W89821  28.502  21.497   9.357 -0.0475 -0.3713 -0.0324
46884W        W89822  31.282  18.668   7.302 -0.0392  0.1543 -0.1070
46885W        W89823  31.222  19.172   7.519  0.4379 -0.2993 -0.1122
46886W        W89824  30.019  19.413   8.824  0.1317  0.1249  0.2358
46887W        W89825  32.707  18.723   7.839 -0.4267 -0.1973  0.5955
46888W        W89826  28.305  20.842   9.364 -0.3317  0.2923  0.2059
46889W        W89827  30.507  20.639   8.392  0.1070  0.1514 -0.0533
46890W        W89828  30.767  18.933   8.386 -0.1417  0.0883  0.0712
46891W        W89829  32.063  21.161   7.321 -0.0033 -0.0677  0.2863
46892W        W89830  32.658  20.061   8.935  0.1047  0.1218 -0.0962
46893W        W89831  29.540  22.436   7.100  0.0275  0.1498 -0.1286
46894W        W89832  33.647  20.053   9.310 -0.2657  0.2260  0.0189
46895W        W89833  32.257  20.910   9.363  0.2658 -0.3750 -0.1563
46896W        W89834  28.667  18.174   8.220 -0.0178  0.2037 -0.0151
46897W        W89835  32.282  22.631   8.651 -0.2648  0.3890  0.2261
46898W        W89836  30.930  19.910   9.193 -0.2748  0.0813  0.2850
46899W        W89837  32.382  19.161   7.729  0.2169  0.0552  0.0624
46900W        W89838  30.824  20.004   7.842  0.1555  0.0109 -0.2060
46901W        W89839  29.301  21.944   7.891 -0.1859  0.1150  0.1548
46902W        W89840  34.074  18.667   8.977 -0.1546  0.1180  0.5130
46903W        W89841  30.763  22.422   6.878 -0.2049  0.1411 -0.3450
46904W        W89842  28.865  22.271   8.542  0.0390 -0.0802 -0.0344
46905W        W89843  29.611  19.633   6.662 -0.2346  0.2654  0.2694
46906W        W89844  31.435  21.852   7.208 -0.2036 -0.2551 -0.1852
46907W        W89845  29.997  22.088   6.043 -0.2698  0.2074  0.3546
46908W        W89846  32.290  19.958   9.240 -0.2187  0.2674 -0.1313
46909W        W89847  31.999  19.330   8.038  0.0712  0.2738 -0.1718
46910W        W89848  32.628  20.873   7.575  0.3647 -0.0453  0.0852
46911W        W89849  29.136  19.164   9.341 -0.1439 -0.3200 -0.0827
46912W        W89850  34.127  19.062   8.666  0.0454  0.2668  0.1689
46913W        W89851  33.150  18.459   9.038  0.0834 -0.3507 -0.3218
46914W        W89852  29.552  21.807   8.734  0.0131  0.1233 -0.4082
46915W        W89853  29.881  20.552   7.745 -0.3564 -0.1021 -0.0386
46916W        W89854  28.969  20.751   6.213  0.4255  0.0054  0.1755
46917W        W89855  29.948  20.117   7.978  0.2148 -0.1299 -0.2568
46918W        W89856  29.577  21.321   8.699 -0.0013 -0.1831 -0.0122
46919W        W89857  31.716  19.688   7.325 -0.1608  0.1224  0.0960
46920W        W89858  33.056  21.685   7.765 -0.1141 -0.1206 -0.0539
46921W        W89859  30.434  17.936   8.185  0.2057 -0.1438 -0.1037
46922W        W89860  30.272  18.798   8.087  0.0207 -0.1149 -0.0872
46923W        W89861  32.026  21.188   7.861  0.0561 -0.0306 -0.2230
46924W        W89862  32.101  22.823   6.243  0.2195 -0.1885  0.0908
46925W        W89863  32.908  19.376   8.366  0.0887  0.4332  0.1808
46926W        W89864  27.778  20.452   8.210 -0.0161 -0.0614 -0.1769
46927W        W89865  29.598  18.177   7.641  0.0523 -0.1061 -0.0573
46928W        W89866  32.902  20.513   8.590  0.1598 -0.1793  0.1027
46929W        W89867  29.592  20.891   6.966  0.0878 -0.1730  0.0957
46930W        W89868  30.305  23.186   6.968  0.3184  0.2593 -0.0001
46931W        W89869  28.624  16.871   9.365 -0.2337  0.2857 -0.2829
46932W        W89870  30.528  19.235   8.095 -0.0843 -0.3161  0.0599
46933W        W89871  33.351  20.211   7.329  0.3822 -0.0311  0.0537
46934W        W89872  32.296  18.166   8.902  0.2254  0.0726  0.0417
46935W        W89873  31.679  19.984   8.727 -0.3033  0.2122 -0.1560
46936W        W89874  32.568  21.727   9.687  0.0862 -0.1176 -0.0050
46937W        W89875  30.517  18.333   9.258  0.2675  0.0300  0.0979
46938W        W89876  33.765  20.100   9.833 -0.0219  0.0663  0.0190
46939W        W89877  32.235  21.584   7.577 -0.0972 -0.1692  0.0637
46940W        W89878  29.043  18.617   9.283  0.1236  0.0104 -0.2725
46941W        W89879  30.646  20.917   7.816  0.0046  0.3359  0.0433
46942W        W89880  33.418  21.509  10.160  0.2743  0.0541 -0.1039
46943W        W89881  31.565  18.390   8.067 -0.1352 -0.3176  0.1994
46944W        W89882  32.694  21.348   7.757 -0.1736 -0.0652  0.2906
46945W        W89883  27.554  22.697   8.505 -0.0096  0.2570 -0.3679
46946W        W89884  30.968  20.186   9.644  0.0035  0.1731  0.1597
46947W        W89885  32.595  20.202   8.339 -0.0560 -0.0657 -0.2883
46948W        W89886  28.161  19.014   9.293  0.0840  0.0851  0.0890
46949W        W89887  29.346  20.431   9.452 -0.0262  0.2347 -0.3447
46950W        W89888  29.575  20.826   7.464 -0.1746 -0.0732  0.0518
46951W        W89889  32.328  20.397   9.619  0.1227 -0.0144  0.1641
46952W        W89890  30.739  19.659   8.300 -0.1172 -0.0788 -0.2006
46953W        W89891  33.278  17.541   9.587  0.1083 -0.1656 -0.0046
46954W        W89892  31.378  21.945   8.395 -0.1928  0.0380  0.0637
46955W        W89893  29.007  17.199   9.536 -0.2002  0.1049 -0.0979
46956W        W89894  31.030  23.805   2.739  0.1333  0.0569 -0.0439
46957W        W89895  29.148  25.805   0.854 -0.0463  0.3006 -0.2233
46958W        W89896  31.767  22.904   1.134  0.2547  0.0401  0.0071
46959W        W89897  32.116  23.885   0.474  0.0416 -0.0975  0.0262
46960W        W89898  28.598  21.582   1.069 -0.3062 -0.2549 -0.2295
46961W        W89899  31.330  25.828   1.061 -0.1421  0.0683 -0.2394
46962W        W89900  29.036  20.697   2.578  0.1445 -0.1207  0.3212
46963W        W89901  30.807  23.799   1.476 -0.0362 -0.1600 -0.0765
46964W        W89902  32.371  23.498   1.972 -0.1047  0.3008 -0.3525
46965W        W89903  32.651  23.943   0.483 -0.0856 -0.3929  0.0731
46966W        W89904  30.640  23.464   2.199 -0.2339 -0.0903 -0.2912
46967W        W89905  28.962  26.085   1.964 -0.0615  0.1214 -0.0741
46968W        W89906  31.375  23.295  30.204  0.1207 -0.0829 -0.2667
46969W        W89907  27.717  22.358   2.407 -0.0855  0.1658  0.0095
46970W        W89908  32.000  23.224   2.138 -0.0503 -0.0765 -0.1769
46971W        W89909  28.354  25.046   1.397  0.1739 -0.0615 -0.0161
46972W        W89910  29.611  23.442   1.647 -0.0228 -0.2024 -0.1564
46973W        W89911  30.415  24.024   0.955  0.3370  0.1163  0.0024
46974W        W89912  30.909  23.059   0.415 -0.2476 -0.1422  0.0180
46975W        W89913  30.975  21.664   2.707  0.1110  0.0009  0.1387
46976W        W89914  32.454  21.788   2.379  0.1394 -0.0561 -0.1666
46977W        W89915  30.263  25.589   0.581 -0.1278  0.2532 -0.1411
46978W        W89916  29.143  22.256   1.612 -0.0012  0.1975  0.0079
46979W        W89917  28.669  24.339   1.855  0.1293 -0.1763  0.2014
46980W        W89918  31.011  23.675   1.918  0.2467 -0.1668  0.0592
46981W        W89919  32.073  22.641   1.845  0.0630 -0.1385 -0.0202
46982W        W89920  31.918  24.360   0.787 -0.1888  0.3689  0.2179
46983W        W89921  30.150  25.863   2.380  0.0020  0.0014 -0.2420
46984W        W89922  31.540  24.545   1.696  0.4200  0.2637  0.0684
46985W        W89923  30.754  22.093   2.234  0.1211  0.0271  0.0800
46986W        W89924  27.768  25.724   0.854 -0.0870  0.0794  0.2600
46987W        W89925  27.090  26.418   0.465  0.0708 -0.2202  0.1816
46988W        W89926  29.805  23.982  31.608 -0.0160  0.1533 -0.2266
46989W        W89927  31.810  25.048   1.232  0.2078  0.0810  0.0091
46990W        W89928  31.462  25.147   2.503  0.2540  0.2747  0.1333
46991W        W89929  28.889  25.156   4.867  0.1928  0.2956  0.0061
46992W        W89930  28.952  24.998   0.480 -0.0591 -0.1020  0.0193
46993W        W89931  28.908  25.517   1.917  0.0530  0.1869  0.0885
46994W        W89932  29.030  24.773   4.577  0.2562  0.0132  0.0468
46995W        W89933  30.890  24.046   2.320  0.0596  0.2587 -0.0452
46996W        W89934  30.256  23.873  31.824  0.3729 -0.0323 -0.2227
46997W        W89935  29.857  25.595   0.233  0.1164  0.0655 -0.0524
46998W        W89936  30.102  24.657   1.610 -0.0291  0.0508  0.2919
46999W        W89937  30.043  24.253   3.855 -0.0294 -0.0164  0.2805
47000W        W89938  29.489  24.668   2.302 -0.0293 -0.1901 -0.1576
47001W        W89939  32.718  23.313   3.469 -0.1194 -0.2433 -0.1340
47002W        W89940  29.438  26.924   1.006 -0.1177  0.1136 -0.0049
47003W        W89941  32.680  21.538   0.186 -0.0267  0.1092  0.0510
47004W        W89942  32.868  22.936   1.425  0.0851 -0.0025  0.1837
47005W        W89943  32.516  23.091   0.084  0.5437  0.2787  0.2803
47006W        W89944  29.428  21.806   2.449  0.0772 -0.3870 -0.1152
47007W        W89945  30.571  25.404   2.357 -0.2066 -0.2834 -0.2959
47008W        W89946  30.051  21.942   0.523 -0.0060 -0.0234  0.1452
47009W        W89947  30.858  24.256   2.753 -0.0181 -0.1782  0.0013
47010W        W89948  29.476  24.358   1.038 -0.0240  0.0158  0.1317
47011W        W89949  32.702  22.907   3.709  0.2494  0.1693  0.0715
47012W        W89950  29.213  25.162   1.611  0.1504 -0.2765 -0.1479
47013W        W89951  28.464  23.269   2.076  0.0050 -0.0827 -0.0960
47014W        W89952  31.822  26.087   0.375 -0.0637  0.1333 -0.1607
47015W        W89953  32.064  24.597   1.830  0.3407 -0.5276  0.1578
47016W        W89954  29.906  23.810   0.258  0.0459 -0.1060  0.3396
47017W        W89955  27.914  24.995   1.589 -0.0106 -0.2560 -0.3929
47018W        W89956  29.601  23.899   1.827 -0.1873  0.2606  0.5897
47019W        W89957  30.084  24.302   3.372 -0.0261 -0.1658  0.1706
47020W        W89958  29.761  20.462   0.562  0.0150 -0.0299 -0.4044
47021W        W89959  31.667  23.907   2.725 -0.1922 -0.0080 -0.3505
47022W        W89960  28.950  24.103   2.836 -0.0670 -0.0115 -0.4970
47023W        W89961  33.106  24.369   1.981 -0.0876 -0.0040 -0.2470
47024W        W89962  31.452  25.517   1.370  0.0310 -0.0094 -0.1706
47025W        W89963  31.293  24.140   1.500 -0.0722  0.0401  0.0456
47026W        W89964  32.408  24.078  31.968 -0.0132  0.2805  0.0711
47027W        W89965  32.017  22.135   2.984 -0.1971  0.0432 -0.1412
47028W        W89966  31.780  21.941   2.557  0.1238 -0.1188 -0.1463
47029W        W89967  29.057  24.058   1.023  0.1100 -0.0892  0.3744
47030W        W89968  30.481  23.862   1.836  0.0639 -0.0187 -0.2410
47031W        W89969  31.977  23.928   3.126 -0.3415 -0.3184  0.2257
47032W        W89970  33.304  23.681   0.563  0.0287  0.0407  0.2425
47033W        W89971  28.135  25.035   2.098  0.3645 -0.3135  0.3357
47034W        W89972  30.379  22.318   2.441 -0.0621 -0.0854  0.3138
47035W        W89973  30.570  26.323   2.673 -0.1337 -0.0849  0.1353
47036W        W89974  28.990  24.792   1.412 -0.0709  0.1332  0.2957
47037W        W89975  27.780  25.373   2.577 -0.1904  0.0257  0.2970
47038W        W89976  29.354  25.254   0.594 -0.1325 -0.2401 -0.1479
47039W        W89977  29.728  22.162   3.233  0.2663  0.0975 -0.3433
47040W        W89978  29.863  24.196   1.469  0.2067  0.0195  0.0105
47041W        W89979  32.397  23.384   0.544 -0.0906 -0.0836  0.0307
47042W        W89980  29.107  22.010   2.093 -0.0380  0.2353  0.1641
47043W        W89981  32.429  22.224   2.658  0.1918 -0.1196  0.3901
47044W        W89982  28.899  26.614   1.095 -0.3061 -0.0416 -0.2835
47045W        W89983  33.008  24.814   0.048 -0.1426  0.1298 -0.1805
47046W        W89984  32.098  24.185   1.515  0.1689  0.0278 -0.1334
47047W        W89985  30.759  25.437   1.050 -0.0520  0.1407  0.0206
47048W        W89986  29.832  25.135   0.402 -0.3926 -0.2693 -0.2382
47049W        W89987  29.030  21.784   1.145  0.0206  0.1526  0.0603
47050W        W89988  30.242  23.558   3.937  0.1168 -0.3349 -0.0878
47051W        W89989  29.651  21.670   1.953 -0.0076 -0.0376  0.1537
47052W        W89990  31.354  23.058   2.627 -0.0173 -0.1929  0.3375
47053W        W89991  30.321  21.219   1.262  0.3003 -0.0347  0.0307
47054W        W89992  32.175  23.185   0.944  0.0361 -0.1103  0.0791
47055W        W89993  31.008  24.720   1.801  0.1981  0.0322  0.1355
47056W        W89994  28.130  24.216   0.444  0.1332 -0.1057  0.1779
47057W        W89995  31.776  22.912   2.443  0.0946 -0.1815 -0.3410
47058W        W89996  31.180  25.660  31.006 -0.1025 -0.1200 -0.0350
47059W        W89997  31.627  25.967   3.216  0.2167 -0.0423 -0.5326
47060W        W89998  30.834  24.976   2.359 -0.0420 -0.1608  0.0946
47061W        W89999  29.203  24.284   3.760 -0.0682 -0.2642 -0.0788
47062W        W90000  29.667  22.938   1.469  0.1017  0.1587  0.0458
47063W        W90001  28.872  24.515   0.846  0.0192 -0.2973 -0.0513
47064W        W90002  31.799  24.540   1.222 -0.2954 -0.0424 -0.0750
47065W        W90003  31.337  22.919   1.604 -0.3267 -0.1497 -0.0128
47066W        W90004  31.536  26.825   2.891  0.0592 -0.2179  0.0734
47067W        W90005  30.336  25.159   0.991  0.0132  0.0073  0.0345
47068W        W90006  29.443  24.818   2.768  0.0597 -0.0380  0.2702
47069W        W90007  33.442  23.279   2.467 -0.0901 -0.0027 -0.0347
47070W        W90008  32.459  22.465   3.144 -0.0454  0.3437 -0.0100
47071W        W90009  30.228  23.859   2.299  0.0141  0.4303  0.2360
47072W        W90010  29.683  22.556  31.834 -0.0120  0.2216  0.2076
47073W        W90011  30.226  24.941  31.971 -0.3338 -0.0621 -0.1229
47074W        W90012  27.949  25.962  31.907 -0.2003  0.2690  0.1301
47075W        W90013  28.978  23.577  31.836  0.2952  0.0011  0.1567
47076W        W90014  30.601  25.891   0.191  0.0921  0.0451  0.0820
47077W        W90015  31.313  22.161   2.113 -0.0744  0.4831  0.1503
47078W        W90016  28.735  23.875   4.333  0.0483  0.1217 -0.0978
47079W        W90017  31.731  22.587   3.879 -0.2079 -0.1634 -0.0349
47080W        W90018  29.878  24.389   0.661 -0.0407  0.3759  0.0436
47081W        W90019  29.711  25.400   3.781  0.1116  0.0188  0.1668
47082W        W90020  32.593  22.792   1.042  0.0421 -0.0936 -0.0104
47083W        W90021  31.374  23.538   1.473 -0.0486  0.3982  0.2630
47084W        W90022  31.199  26.101   3.149  0.0616  0.1094  0.0254
47085W        W90023  31.511  24.719   0.854  0.0920 -0.0924  0.1728
47086W        W90024  30.163  23.110  31.249 -0.2399 -0.3040 -0.0967
47087W        W90025  31.583  22.400   1.726 -0.0966  0.2754 -0.0727
47088W        W90026  30.212  23.773   4.487 -0.2973  0.0005 -0.0079
47089W        W90027  30.963  24.544   0.694 -0.1059 -0.0835 -0.1082
47090W        W90028  30.983  22.363   1.749  0.1278 -0.3482  0.0399
47091W        W90029  31.228  23.783   1.060 -0.2451  0.0521  0.0020
47092W        W90030  33.547  25.172   0.839  0.0691  0.0698 -0.2705
47093W        W90031  29.373  25.270   4.634  0.1425 -0.0283 -0.1209
47094W        W90032  30.576  21.675   2.928  0.2861  0.2312 -0.0922
47095W        W90033  31.134  24.584   1.271 -0.0044  0.2017  0.0826
47096W        W90034  30.571  20.080   2.030  0.0822 -0.1637 -0.3696
47097W        W90035  30.746  22.668   0.754  0.1150  0.1677  0.1015
47098W        W90036  31.226  22.312   1.273 -0.3031  0.1168  0.3131
47099W        W90037  28.747  26.004  31.153  0.0757  0.0150 -0.0355
47100W        W90038  33.444  21.241   1.976  0.0966 -0.1903 -0.1180
47101W        W90039  32.294  21.274   1.367 -0.1607 -0.0060  0.1931
47102W        W90040  30.461  21.795   2.448  0.1526  0.1408 -0.3935
47103W        W90041  31.154  22.666   2.911  0.0122 -0.1502  0.1034
47104W        W90042  31.875  23.308   0.617  0.1655  0.2369  0.2302
47105W        W90043  31.021  22.138   3.567  0.1820 -0.0348 -0.2502
47106W        W90044  29.112  24.139   2.044  0.0005 -0.4532 -0.2093
47107W        W90045  30.879  20.780   2.478 -0.0368  0.0950 -0.4143
47108W        W90046  30.161  24.226   1.964 -0.0933  0.0533 -0.1730
47109W        W90047  28.859  24.983   3.328 -0.0908  0.0774  0.0911
47110W        W90048  32.280  24.355   3.239 -0.0335 -0.0395  0.1077
47111W        W90049  31.627  23.447   2.499  0.0742 -0.0398 -0.3214
47112W        W90050  30.461  21.471   3.370  0.0478 -0.1478 -0.2085
47113W        W90051  30.848  21.315  31.744  0.1958 -0.3088 -0.2295
47114W        W90052  29.113  26.185   1.389 -0.0683  0.2125  0.1335
47115W        W90053  29.654  24.900   1.848  0.1538 -0.1140 -0.1741
47116W        W90054  29.484  21.453   2.816  0.1564  0.2191  0.0240
47117W        W90055  30.952  25.220   1.479  0.4625 -0.0635  0.0480
47118W        W90056  30.272  23.725   0.626 -0.2501  0.1339 -0.2779
47119W        W90057  32.771  22.414   1.404  0.1401 -0.2169  0.1297
47120W        W90058  28.755  26.126   0.139  0.2482  0.0025 -0.2596
47121W        W90059  34.028  23.778   3.480  0.0022  0.2870  0.0877
47122W        W90060  28.679  24.959   1.772 -0.0625 -0.2225 -0.2874
47123W        W90061  29.526  22.718   0.989  0.4009  0.0238  0.2965
47124W        W90062  27.699  24.410   0.290 -0.1157  0.0698 -0.2056
47125W        W90063  31.248  21.435   1.832  0.1586 -0.0980 -0.2229
47126W        W90064  30.874  25.164   0.663 -0.4507  0.0474  0.7003
47127W        W90065  30.840  22.399   2.669  0.0270 -0.1395 -0.2727
47128W        W90066  30.351  21.718   1.466 -0.3579 -0.0612  0.1689
47129W        W90067  27.393  25.926   1.188 -0.0188  0.0128 -0.1219
47130W        W90068  32.269  22.724   2.268 -0.0890 -0.1024  0.1722
47131W        W90069  31.573  22.326   0.885 -0.1270  0.0717  0.1110
47132W        W90070  30.383  25.686   1.982  0.0792  0.1211  0.1738
47133W        W90071  29.937  24.095   2.975 -0.1942  0.0178  0.2858
47134W        W90072  28.742  23.109   0.928  0.1255 -0.0227  0.0118
47135W        W90073  32.336  22.257   2.119  0.0495  0.1213  0.0303
47136W        W90074  29.232  23.143   1.162 -0.3213 -0.1936 -0.1691
47137W        W90075  28.228  25.706   0.864 -0.1664  0.1634 -0.1144
47138W        W90076  30.526  23.808   2.729  0.0365 -0.5678  0.1483
47139W        W90077  29.927  23.424  31.860  0.2484 -0.0067 -0.2271
47140W        W90078  28.347  26.246   0.917 -0.2962 -0.0477  0.3644
47141W        W90079  30.915  23.991   3.675 -0.3070  0.1658  0.0845
47142W        W90080  31.644  21.962   3.936 -0.2324  0.1814 -0.0069
47143W        W90081  30.425  22.904   1.076  0.1786 -0.2539  0.6245
47144W        W90082  30.788  21.415   1.555  0.0957  0.2680  0.2057
47145W        W90083  30.088  22.114   2.009  0.1858 -0.0106  0.1490
47146W        W90084  32.018  23.702   2.275 -0.0035  0.1880 -0.0297
47147W        W90085  30.318  22.746   2.720  0.0021 -0.0499 -0.3302
47148W        W90086  30.550  24.866   3.730 -0.0544  0.0144  0.0493
47149W        W90087  32.430  21.429   1.991  0.0819 -0.0113  0.1860
47150W        W90088  33.884  25.667   0.512  0.0148 -0.0458  0.1976
47151W        W90089  30.081  23.585   2.886 -0.0449 -0.1633  0.1236
47152W        W90090  29.285  24.862   0.973 -0.0236  0.1780  0.1660
47153W        W90091  29.102  22.987   2.355  0.1259  0.2622  0.1141
47154W        W90092  30.828  23.990   0.669  0.0825  0.0855  0.2137
47155W        W90093  31.291  21.622   1.246 -0.1353 -0.0515  0.0746
47156W        W90094  27.414  25.267   2.959  0.1251 -0.1881  0.0116
47157W        W90095  28.864  26.228   0.701 -0.0838  0.1569 -0.3261
47158W        W90096  29.578  24.243   4.077 -0.1643 -0.1271  0.3860
47159W        W90097  32.297  22.032   0.670  0.0776 -0.1280  0.0448
47160W        W90098  31.099  24.419   0.219 -0.0418  0.1087  0.0522
47161W        W90099  30.687  24.215  31.517  0.1034  0.2037  0.2910
47162W        W90100  33.823  23.737   1.862  0.3751 -0.0120 -0.2279
47163W        W90101  33.842  24.611  31.467 -0.0551 -0.0867 -0.0277
47164W        W90102  31.837  21.284   3.350  0.0528  0.0579 -0.1110
47165W        W90103  29.877  22.532   2.422 -0.1495 -0.0926  0.1049
47166W        W90104  31.583  23.955   0.073  0.1343 -0.3026 -0.1048
47167W        W90105  28.790  22.286   1.256  0.1611 -0.1386  0.2190
47168W        W90106  28.690  25.693   3.537 -0.0166 -0.0478 -0.0749
47169W        W90107  28.491  24.721   4.740  0.1859  0.2952 -0.0005
47170W        W90108  30.904  21.907   1.229 -0.2588  0.0289  0.0646
47171W        W90109  29.029  22.040   0.188 -0.2155  0.1012 -0.0780
47172W        W90110  31.942  24.868   2.394  0.0959 -0.1895 -0.3335
47173W        W90111  32.092  23.548   1.488 -0.2418  0.0465 -0.1826
47174W        W90112  31.410  25.233  31.171  0.3233 -0.0830 -0.1283
47175W        W90113  31.862  22.392   2.249 -0.0884  0.0718  0.2585
47176W        W90114  29.626  24.445   3.642 -0.0729  0.1408  0.2016
47177W        W90115  31.330  23.165   0.974 -0.0816  0.1530 -0.2042
47178W        W90116  32.476  23.675  29.941 -0.1278 -0.0456 -0.2744
47179W        W90117  30.080  24.700   0.366  0.1050 -0.0706  0.3059
47180W        W90118  30.085  22.281   2.885 -0.1711  0.0155  0.1798
47181W        W90119  32.578  24.400   1.631  0.0293  0.5067  0.0550
47182W        W90120  30.474  23.214   0.716 -0.0904 -0.0018 -0.0967
47183W        W90121  32.324  23.118   2.607  0.2679  0.3373 -0.1617
47184W        W90122  30.342  22.547   3.200 -0.2086  0.0616  0.2648
47185W        W90123  30.782  22.925   2.538 -0.2627  0.0126 -0.0506
47186W        W90124  29.676  23.424   3.183 -0.1320  0.3863  0.0087
47187W        W90125  31.093  26.188   2.068  0.1168 -0.2962 -0.1283
47188W        W90126  31.770  24.078  31.263  0.0214 -0.3260 -0.1347
47189W        W90127  33.421  22.141   2.220 -0.1790  0.1379 -0.0136
47190W        W90128  32.472  23.247   1.373  0.1588 -0.1654  0.1867
47191W        W90129  32.275  24.697  31.493  0.0707  0.0109  0.1392
47192W        W90130  28.236  24.201   2.213 -0.0219  0.0707  0.0420
47193W        W90131  33.154  23.701   4.255 -0.1953 -0.1250 -0.0176
47194W        W90132  30.052  23.719   1.601  0.1148 -0.1208 -0.1440
47195W        W90133  31.657  21.564   1.634  0.1901 -0.3664 -0.2176
47196W        W90134  29.525  24.735   0.541 -0.2690  0.1839  0.3972
47197W        W90135  31.619  23.792   0.666  0.1241  0.1273 -0.1620
47198W        W90136  31.927  23.028   0.148 -0.0072  0.4589  0.0637
47199W        W90137  28.765  22.374   3.322 -0.3522 -0.1192 -0.2108
47200W        W90138  30.352  24.965   2.382 -0.0855  0.0680  0.2208
47201W        W90139  29.455  23.088   0.614  0.4132 -0.0221 -0.0550
47202W        W90140  29.557  24.867   0.059 -0.1244  0.1635  0.2084
47203W        W90141  30.789  24.275   1.835 -0.1016 -0.0358 -0.1331
47204W        W90142  31.568  23.511   4.110  0.0889  0.1065  0.4438
47205W        W90143  32.782  21.582   0.980 -0.3477  0.3635 -0.1093
47206W        W90144  33.038  22.408   2.697 -0.1920  0.2631 -0.0811
47207W        W90145  28.826  25.303   1.345 -0.0723 -0.0152 -0.2900
47208W        W90146  30.137  21.587   1.905  0.2730 -0.0864  0.6696
47209W        W90147  28.590  26.297   2.458 -0.3078 -0.0388  0.4067
47210W        W90148  29.583  22.975   2.348 -0.0139  0.1936 -0.1155
47211W        W90149  29.516  24.691   1.403  0.0944  0.2413  0.2523
47212W        W90150  31.898  21.547   2.937  0.2614  0.1484 -0.1309
47213W        W90151  31.569  22.771   2.011  0.2388 -0.1826 -0.0273
47214W        W90152  29.629  24.419   1.882  0.1208 -0.0520 -0.0307
47215W        W90153  32.846  22.921   3.225 -0.2844  0.0907 -0.1146
47216W        W90154  31.164  25.680   3.470 -0.1598  0.2336 -0.0568
47217W        W90155  28.859  23.547   2.314  0.1182 -0.1607  0.0589
47218W        W90156  30.771  25.267   1.930 -0.2579 -0.0502  0.0887
47219W        W90157  32.301  25.204   0.331 -0.0972  0.1745  0.1052
47220W        W90158  29.668  23.377   1.114 -0.4476 -0.2724 -0.0652
47221W        W90159  29.355  23.475   3.552 -0.2369 -0.1228 -0.1806
47222W        W90160  30.734  24.014   3.172 -0.1813 -0.0845 -0.0050
47223W        W90161  30.686  21.874   1.788 -0.1045 -0.0632 -0.4620
47224W        W90162  30.285  23.361   0.253  0.0795  0.1950 -0.1196
47225W        W90163  30.419  25.095   0.435 -0.1037  0.3100 -0.0988
47226W        W90164  28.635  24.575   3.519  0.1301  0.3090  0.1132
47227W        W90165  28.419  22.548   2.938 -0.1985  0.0715  0.1059
47228W        W90166  29.508  27.186   1.399  0.0138  0.4245 -0.0138
47229W        W90167  31.334  25.268   0.605  0.1302 -0.2292  0.0623
47230W        W90168  31.500  24.234   0.488  0.1538  0.0470  0.0190
47231W        W90169  31.103  25.438   2.499 -0.0598 -0.1184  0.1012
47232W        W90170  30.130  22.975  31.916  0.0048 -0.2359  0.1703
47233W        W90171  29.648  25.371   2.028 -0.2554  0.0779 -0.4332
47234W        W90172  28.383  25.730   0.041 -0.0757 -0.1579 -0.0268
47235W        W90173  32.029  24.930  31.853  0.1422  0.1519 -0.1272
47236W        W90174  29.867  24.899   0.853  0.2692 -0.0635 -0.1373
47237W        W90175  32.492  24.274   3.694 -0.0626 -0.0190  0.2593
47238W        W90176  31.985  22.411   0.428  0.1688 -0.0901 -0.3542
47239W        W90177  32.270  24.534   2.394 -0.0040  0.2658 -0.1140
47240W        W90178  33.162  21.916   0.098  0.1432  0.1861  0.1027
47241W        W90179  31.314  24.344   3.563 -0.1779 -0.0012  0.0579
47242W        W90180  30.617  23.370   1.726  0.2412 -0.2486 -0.1051
47243W        W90181  31.250  22.722   0.664 -0.0920  0.1041  0.0408
47244W        W90182  28.966  23.289   3.981 -0.0424  0.1197  0.1471
47245W        W90183  32.906  22.304   3.328  0.2101 -0.0262 -0.3324
47246W        W90184  29.526  25.019   3.542  0.2055 -0.0055  0.0676
47247W        W90185  30.488  24.677   0.740 -0.1730 -0.3681  0.2836
47248W        W90186  28.909  23.102   0.011  0.2755  0.1965 -0.0303
47249W        W90187  29.992  24.687   2.202 -0.1674 -0.0703  0.3314
47250W        W90188  33.475  20.233   2.575  0.0566 -0.0244  0.1524
47251W        W90189  31.848  26.720   0.980  0.1097  0.1965  0.4301
47252W        W90190  31.234  21.904   1.684 -0.1476 -0.2722 -0.0059
47253W        W90191  31.288  26.252   0.389 -0.1356 -0.2763  0.2714
47254W        W90192  29.753  24.107   2.263 -0.1793 -0.0169 -0.4247
47255W        W90193  29.006  24.565   2.879  0.2805  0.1426 -0.4231
47256W        W90194  29.356  22.023  31.700  0.1885 -0.2159 -0.1818
47257W        W90195  32.588  23.885   1.437  0.2146  0.0247 -0.3453
47258W        W90196  29.474  23.964   3.456  0.3099 -0.0199 -0.0184
47259W        W90197  33.272  22.724   3.076  0.1429 -0.1471  0.1023
47260W        W90198  29.567  23.969   0.643  0.1223 -0.0214 -0.3998
47261W        W90199  29.926  23.957   0.980  0.0191  0.4455  0.0172
47262W        W90200  30.860  25.254   3.512  0.1222  0.2512 -0.1053
47263W        W90201  28.696  22.004   1.797  0.0440  0.3546  0.0132
47264W        W90202  31.296  25.152   1.077 -0.0213 -0.4715  0.1052
47265W        W90203  32.222  24.597   4.019  0.1079 -0.1845  0.0546
47266W        W90204  32.249  22.858   0.516 -0.0654  0.0872 -0.0643
47267W        W90205  30.552  24.789   3.207  0.2025 -0.4738  0.0918
47268W        W90206  29.660  21.519   0.487  0.1961 -0.3811 -0.0385
47269W        W90207  30.986  22.845   1.169 -0.0218  0.0181 -0.1854
47270W        W90208  30.534  25.506   1.503 -0.0502  0.4753  0.0387
47271W        W90209  31.377  23.872   2.280 -0.2244 -0.0730  0.2946
47272W        W90210  32.205  25.312   3.181  0.1129  0.2019 -0.3740
47273W        W90211  29.309  22.445   3.218 -0.0196 -0.2061 -0.2269
47274W        W90212  31.728  24.680  31.471 -0.1102  0.1310  0.1715
47275W        W90213  31.856  25.375   2.246 -0.1122 -0.1748 -0.1269
47276W        W90214  29.368  26.947  31.584 -0.4028 -0.0213  0.0050
47277W        W90215  31.311  25.318   0.076 -0.0802  0.0736 -0.1148
47278W        W90216  31.414  24.683   2.239 -0.1800 -0.3571  0.0635
47279W        W90217  29.184  22.699   1.317 -0.1794 -0.3352  0.0368
47280W        W90218  30.734  25.660   0.634 -0.2562  0.2502  0.1006
47281W        W90219  31.722  24.038   1.789 -0.0711 -0.1277 -0.3257
47282W        W90220  32.252  21.590   0.965 -0.1308  0.1785 -0.1838
47283W        W90221  29.896  22.602   1.851  0.3021 -0.0326 -0.0594
47284W        W90222  30.086  24.529   1.094  0.2316  0.0877  0.2485
47285W        W90223  32.625  21.885   1.949  0.1767  0.1786 -0.0136
47286W        W90224  34.412  22.902   3.017 -0.1075  0.1315 -0.3743
47287W        W90225  32.043  25.456  31.811  0.0285  0.5446  0.0377
47288W        W90226  31.753  20.752   3.243  0.0803  0.2638 -0.1246
47289W        W90227  30.932  24.534   2.272  0.0359  0.0081  0.0140
47290W        W90228  28.401  25.246   3.276  0.0854  0.2560  0.0922
47291W        W90229  29.048  24.271  29.965  0.0363 -0.2548 -0.0924
47292W        W90230  31.088  23.413   2.413  0.2795 -0.0887 -0.4096
47293W        W90231  30.281  25.073   1.826 -0.0841 -0.2612  0.2756
47294W        W90232  30.078  25.912   0.893  0.5989  0.2077  0.0454
47295W        W90233  33.188  24.960   0.511 -0.0455 -0.2060  0.0344
47296W        W90234  30.195  23.246   1.387 -0.2214 -0.2397 -0.1349
47297W        W90235  32.639  24.926   2.601 -0.0775  0.0862  0.0395
47298W        W90236  29.010  22.701   0.850  0.0131  0.2099  0.2658
47299W        W90237  32.839  23.423   1.740  0.3538 -0.1513 -0.1606
47300W        W90238  32.198  22.926  31.690  0.0969 -0.0254 -0.0736
47301W        W90239  30.343  24.414   2.435 -0.0075  0.5038 -0.2450
47302W        W90240  28.479  23.902   1.182 -0.1831 -0.0207  0.1455
47303W        W90241  28.607  25.874   1.574 -0.0528 -0.0201 -0.2559
47304W        W90242  29.078  23.237   1.619 -0.3521  0.2715  0.2205
47305W        W90243  29.683  20.842   3.328  0.2416  0.3629  0.1371
47306W        W90244  29.709  23.281   2.723  0.2556 -0.2332 -0.2026
47307W        W90245  27.779  24.467   1.566 -0.1993 -0.0658 -0.0265
47308W        W90246  30.057  22.939   0.724 -0.2168 -0.1269  0.3354
47309W        W90247  31.244  25.753   0.345 -0.0057  0.2670 -0.0540
47310W        W90248  29.596  22.404   1.433  0.0758 -0.0637 -0.2289
47311W        W90249  28.568  21.337   0.464 -0.0596 -0.3051  0.1986
47312W        W90250  30.782  25.383   0.199 -0.0558  0.2269 -0.0127
47313W        W90251  32.319  25.125   2.170 -0.0492 -0.3920  0.1037
47314W        W90252  29.819  21.761   1.454  0.1229  0.1042  0.0550
47315W        W90253  31.703  26.135   2.427  0.3214  0.3291 -0.1971
47316W        W90254  28.753  23.938   1.573  0.1137  0.1572  0.0614
47317W        W90255  29.683  21.098   3.863  0.1838 -0.3052  0.1051
47318W        W90256  31.425  21.344   3.041 -0.1409 -0.2887 -0.1725
47319W        W90257  28.564  21.944  31.477  0.2895  0.1874  0.0415
47320W        W90258  31.611  22.544   2.963  0.1930 -0.1621  0.0323
47321W        W90259  30.831  24.934   1.078  0.0699 -0.1201 -0.1588
47322W        W90260  31.383  23.424   0.471 -0.0412  0.0544  0.0195
47323W        W90261  30.722  22.785   1.698 -0.2899 -0.1714 -0.3675
47324W        W90262  31.324  24.308   2.591 -0.1460 -0.1307 -0.1437
47325W        W90263  28.796  21.579   1.520 -0.2540  0.0512  0.3330
47326W        W90264  32.637  23.546   0.925 -0.3007 -0.5363 -0.0216
47327W        W90265  29.253  25.159   2.134  0.3333  0.3266  0.4866
47328W        W90266  33.824  24.932  31.871 -0.0453 -0.0686 -0.1439
47329W        W90267  33.788  23.413   2.816 -0.1745  0.1467 -0.0791
47330W        W90268  32.128  24.801   0.879  0.2568 -0.0908  0.3567
47331W        W90269  31.272  22.377   3.907  0.0447 -0.0647  0.1701
47332W        W90270  29.711  25.597   2.616 -0.1879  0.0185  0.0194
47333W        W90271  32.422  24.745   3.517 -0.2415  0.0364  0.1844
47334W        W90272  31.052  23.144   1.999  0.0069  0.2765 -0.0766
47335W        W90273  30.943  23.432   0.779  0.2554  0.1418 -0.0166
47336W        W90274  30.382  24.252   0.527  0.2230 -0.2142 -0.1632
47337W        W90275  29.330  23.296   2.027 -0.4813 -0.0367 -0.2511
47338W        W90276  30.513  23.525   1.119 -0.0491 -0.2652  0.0386
47339W        W90277  31.268  24.239   2.032 -0.1442 -0.0466 -0.2037
47340W        W90278  30.357  24.168   1.480 -0.2085 -0.2709 -0.0903
47341W        W90279  31.178  24.775   2.674 -0.0720  0.0940 -0.0030
47342W        W90280  31.162  23.863   0.323 -0.0510 -0.2969  0.2413
47343W        W90281  32.337  23.767  30.448 -0.0051 -0.1339  0.1900
47344W        W90282  29.386  26.605   1.394  0.3985  0.1131 -0.1730
47345W        W90283  31.845  24.390   4.417  0.2087 -0.3616 -0.3069
47346W        W90284  30.369  24.375   2.947  0.1645  0.2856 -0.2862
47347W        W90285  31.759  24.232   2.305  0.0613 -0.2364  0.0975
47348W        W90286  29.530  20.706   2.454  0.3685 -0.0816  0.2123
47349W        W90287  30.077  26.009   0.387  0.1027 -0.1108 -0.1183
47350W        W90288  30.436  24.620   1.965 -0.0037 -0.0939  0.6381
47351W        W90289  31.746  21.970   1.923  0.0776  0.1260 -0.1180
47352W        W90290  30.093  22.050   1.040  0.2431  0.0293 -0.1273
47353W        W90291  31.087  20.915   0.706 -0.1191  0.2718  0.0747
47354W        W90292  29.090  24.669   1.975 -0.2077  0.0593 -0.2898
47355W        W90293  30.933  23.363   1.269  0.0622 -0.1859  0.1250
47356W        W90294  29.596  25.218   6.265  0.2082 -0.0393 -0.1710
47357W        W90295  30.670  23.598   4.216 -0.0206 -0.0995 -0.1377
47358W        W90296  31.877  21.512   3.839 -0.2874 -0.0197 -0.2679
47359W        W90297  32.465  23.650   3.882  0.0883  0.1165  0.0348
47360W        W90298  30.262  22.783   3.677 -0.0436 -0.2867  0.1817
47361W        W90299  30.519  24.495   6.105  0.1304 -0.0807 -0.1303
47362W        W90300  28.605  21.534   6.529  0.2391  0.2219 -0.0711
47363W        W90301  31.455  23.571   5.331 -0.0829  0.0926 -0.1660
47364W        W90302  31.317  25.603   6.170  0.0170  0.1452  0.2103
47365W        W90303  32.645  22.774   2.793  0.0147  0.1109  0.2504
47366W        W90304  31.720  23.341   6.359 -0.3456  0.1939 -0.0768
47367W        W90305  30.646  24.495   5.460  0.0820 -0.4596  0.0693
47368W        W90306  31.378  21.057   4.550 -0.0858 -0.0154  0.2404
47369W        W90307  28.651  21.594   4.013 -0.2080 -0.3563  0.2244
47370W        W90308  32.228  23.807   5.246 -0.2302 -0.2740 -0.1502
47371W        W90309  27.903  22.999   4.966  0.2180 -0.2010  0.0757
47372W        W90310  32.021  22.660   4.413  0.2855 -0.0518  0.1274
47373W        W90311  33.263  23.060   3.522  0.2368  0.2095 -0.2630
47374W        W90312  30.677  24.772   5.006 -0.0863 -0.1624  0.0367
47375W        W90313  29.499  22.011   6.009 -0.1393  0.0261  0.1376
47376W        W90314  31.338  22.215   6.562  0.3052  0.1079 -0.0342
47377W        W90315  30.237  24.253   4.900  0.2786  0.1929 -0.1336
47378W        W90316  30.333  22.821   2.125  0.3020 -0.2397  0.0104
47379W        W90317  28.262  22.713   4.694 -0.0133 -0.2069  0.1326
47380W        W90318  30.747  24.148   4.992  0.1254 -0.0870  0.0551
47381W        W90319  32.436  21.197   5.377 -0.0012 -0.0111  0.0742
47382W        W90320  32.713  24.882   5.621  0.1785  0.1565  0.2011
47383W        W90321  30.354  24.513   4.163 -0.0101  0.2810 -0.1014
47384W        W90322  30.329  25.865   5.517 -0.1495 -0.0001  0.2247
47385W        W90323  31.448  22.683   5.695  0.2341  0.0899 -0.2167
47386W        W90324  29.085  25.309   5.368  0.2610  0.3592  0.1743
47387W        W90325  28.709  24.974   5.282  0.5936  0.1264 -0.1354
47388W        W90326  30.259  25.157   5.080 -0.1364 -0.0217  0.0103
47389W        W90327  30.536  25.194   2.821  0.2021  0.3596  0.0305
47390W        W90328  31.751  26.417   6.844 -0.0016  0.0540 -0.2974
47391W        W90329  30.437  25.909   7.800  0.1016 -0.4009 -0.0171
47392W        W90330  29.112  24.453   4.211 -0.0500  0.1717 -0.1023
47393W        W90331  30.578  26.961   7.755 -0.2531 -0.2731  0.1868
47394W        W90332  30.290  25.065   7.319  0.0719  0.2647 -0.2665
47395W        W90333  28.689  25.146   4.315  0.4397  0.0270 -0.0463
47396W        W90334  30.323  24.200   5.712 -0.2041  0.2374 -0.0260
47397W        W90335  30.588  24.182   4.531  0.0985 -0.2672  0.0898
47398W        W90336  29.608  23.759   6.117  0.2376  0.0892 -0.2206
47399W        W90337  30.424  23.901   7.604  0.1521  0.1329  0.6320
47400W        W90338  30.025  24.626   6.264  0.0592 -0.2046 -0.2707
47401W        W90339  33.414  22.875   6.253 -0.2207  0.3863 -0.2547
47402W        W90340  29.697  25.233   4.263 -0.1028 -0.1626 -0.0907
47403W        W90341  31.432  23.035   3.064 -0.4007  0.2077 -0.0743
47404W        W90342  30.094  23.134   3.070  0.0598 -0.0291  0.1627
47405W        W90343  32.253  23.560   4.794  0.1309  0.0411 -0.0736
47406W        W90344  29.995  23.363   4.280 -0.2685 -0.1604  0.1540
47407W        W90345  29.128  25.424   6.420  0.1533 -0.1601  0.0547
47408W        W90346  30.425  22.786   4.695  0.0827 -0.1898 -0.0084
47409W        W90347  31.360  25.673   7.526 -0.2342 -0.1062  0.0603
47410W        W90348  31.379  23.207   4.555  0.1337 -0.1231 -0.0821
47411W        W90349  32.373  23.466   5.622 -0.0492  0.0161  0.0124
47412W        W90350  30.728  24.357   7.346  0.0092 -0.1343  0.2536
47413W        W90351  29.574  22.732   4.589 -0.2054 -0.0834  0.1813
47414W        W90352  31.329  24.419   4.250 -0.0791 -0.1291  0.1195
47415W        W90353  30.484  24.053   4.058  0.0224 -0.2883 -0.2053
47416W        W90354  31.514  23.797   3.483  0.1664  0.2126 -0.0061
47417W        W90355  27.839  23.081   4.313  0.0872  0.1218 -0.1292
47418W        W90356  29.719  23.277   6.322  0.0317 -0.0504  0.0019
47419W        W90357  29.987  23.544   6.733 -0.1210 -0.1113  0.2530
47420W        W90358  30.320  22.023   3.259 -0.0460 -0.0103 -0.2362
47421W        W90359  31.909  24.574   7.559 -0.2396 -0.1791  0.4198
47422W        W90360  29.543  24.522   5.472 -0.2731 -0.2080  0.1480
47423W        W90361  32.262  22.571   5.243 -0.0831  0.2069  0.3430
47424W        W90362  29.038  24.486   6.173 -0.0312  0.0710  0.2707
47425W        W90363  31.362  24.668   7.466  0.1191  0.1077 -0.1780
47426W        W90364  31.899  23.727   3.824  0.0780 -0.3190  0.2821
47427W        W90365  31.225  21.656   5.406 -0.2089 -0.2330  0.0306
47428W        W90366  31.841  22.658   5.465  0.1214 -0.0198  0.0727
47429W        W90367  30.337  24.969   6.165 -0.1110 -0.0464  0.4591
47430W        W90368  30.723  23.764   4.709 -0.0623 -0.0737 -0.0241
47431W        W90369  32.486  24.478   7.537  0.1125  0.0829 -0.4298
47432W        W90370  30.427  22.507   4.266  0.2101 -0.2014 -0.0441
47433W        W90371  28.645  24.430   6.518 -0.3174 -0.1605  0.3221
47434W        W90372  30.440  22.013   5.873 -0.2292  0.0269  0.1244
47435W        W90373  30.520  24.664   7.027 -0.2095 -0.2146  0.0939
47436W        W90374  29.311  25.742   2.929 -0.0123  0.0672 -0.0323
47437W        W90375  28.858  24.495   5.079 -0.2727 -0.3263  0.2529
47438W        W90376  29.956  24.332   4.401  0.1511  0.1738 -0.5376
47439W        W90377  28.832  21.979   5.670  0.1983  0.1816  0.1917
47440W        W90378  30.178  23.570   6.250 -0.0822  0.0749 -0.0296
47441W        W90379  32.604  23.627   4.388  0.2421 -0.0495  0.1520
47442W        W90380  28.849  22.004   6.517  0.0208  0.0891 -0.0685
47443W        W90381  33.115  23.887   5.091 -0.1571 -0.0827 -0.3584
47444W        W90382  28.882  23.393   4.910 -0.1516 -0.2051  0.0677
47445W        W90383  31.015  25.619   4.184 -0.0617 -0.3752  0.1139
47446W        W90384  32.178  23.255   3.790  0.4221  0.0568 -0.0360
47447W        W90385  30.820  24.237   1.103 -0.0463 -0.0103  0.1678
47448W        W90386  28.675  22.756   6.153 -0.0005  0.2912  0.2298
47449W        W90387  29.708  24.552   5.004 -0.1104  0.0419 -0.0868
47450W        W90388  29.123  22.300   7.298  0.3372 -0.0742 -0.1108
47451W        W90389  29.579  22.259   4.734  0.1243 -0.2400 -0.2348
47452W        W90390  31.361  23.251   6.700 -0.0972  0.0199  0.2090
47453W        W90391  30.493  22.339   3.743 -0.0371  0.1471  0.2366
47454W        W90392  31.908  23.471   5.179  0.1244  0.2882 -0.3492
47455W        W90393  29.719  23.815   4.406  0.2219 -0.0704  0.3864
47456W        W90394  29.496  23.407   4.229 -0.0091  0.1024  0.1076
47457W        W90395  32.671  22.199   6.040  0.4524 -0.0227  0.3290
47458W        W90396  30.888  24.468   4.048 -0.0383 -0.0393 -0.0890
47459W        W90397  31.244  24.350   8.186 -0.0586  0.0359  0.2655
47460W        W90398  31.290  25.686   5.157 -0.1084 -0.0712  0.1427
47461W        W90399  29.018  22.184   6.107 -0.0923 -0.0404 -0.4231
47462W        W90400  31.329  22.921   3.833 -0.3348  0.0146 -0.0733
47463W        W90401  29.044  27.257   5.575  0.0246  0.1328  0.1981
47464W        W90402  29.812  25.969   5.756  0.1492 -0.2291 -0.1385
47465W        W90403  29.986  23.792   3.393 -0.1584  0.0054 -0.1649
47466W        W90404  32.075  25.651   5.749 -0.1934  0.3519  0.1011
47467W        W90405  31.509  24.092   5.060 -0.1059  0.1680  0.1276
47468W        W90406  28.758  23.422   5.637  0.1208  0.3584 -0.0113
47469W        W90407  31.743  22.899   6.559  0.1031 -0.2370 -0.0829
47470W        W90408  31.491  23.749   6.471  0.3604 -0.2846  0.3371
47471W        W90409  32.463  24.238   5.456 -0.0704 -0.2133 -0.1860
47472W        W90410  30.913  22.620   3.360  0.0723 -0.0182  0.0424
47473W        W90411  29.489  25.191   6.757  0.2989  0.0798  0.1173
47474W        W90412  30.586  24.407   3.538  0.1974  0.0891  0.3388
47475W        W90413  31.117  21.753   3.915  0.2328 -0.2907 -0.1942
47476W        W90414  29.250  24.828   5.173 -0.0855  0.1239 -0.1803
47477W        W90415  32.503  23.037   5.231 -0.2775 -0.1535  0.1142
47478W        W90416  29.555  23.855   6.778 -0.0042  0.1957  0.4641
47479W        W90417  30.985  22.854   5.924 -0.1768  0.1740 -0.4935
47480W        W90418  29.844  25.475   5.828  0.1519 -0.1555  0.3484
47481W        W90419  29.341  24.906   7.125 -0.0291 -0.2917  0.1855
47482W        W90420  31.970  21.149   5.347 -0.2434  0.1268 -0.1189
47483W        W90421  32.092  22.230   4.149 -0.0674 -0.0656  0.5269
47484W        W90422  29.625  23.795   5.610  0.1908 -0.1875 -0.2358
47485W        W90423  33.480  23.890   3.716 -0.2942 -0.0275  0.1751
47486W        W90424  31.134  22.079   4.418  0.4482 -0.1486 -0.1700
47487W        W90425  30.891  21.246   3.255  0.3637 -0.4961  0.4687
47488W        W90426  30.268  24.233   7.215  0.1012  0.1081  0.0043
47489W        W90427  30.160  25.475   2.738 -0.0701 -0.0517 -0.2036
47490W        W90428  30.722  23.710   5.232 -0.4246  0.2145  0.2289
47491W        W90429  31.473  23.535   3.052 -0.1298  0.1567 -0.0624
47492W        W90430  31.140  23.632   4.465  0.0828  0.0065 -0.2910
47493W        W90431  28.455  23.779   5.986 -0.1801  0.1639  0.2529
47494W        W90432  32.064  24.040   7.525 -0.1618  0.0541  0.1474
47495W        W90433  32.351  24.317   4.503  0.0440 -0.1175  0.0621
47496W        W90434  30.791  22.423   4.891 -0.0264 -0.1641 -0.1171
47497W        W90435  29.802  24.407   2.640 -0.2523  0.0578 -0.2494
47498W        W90436  30.088  22.427   4.614 -0.2581  0.2547  0.2200
47499W        W90437  30.083  24.876   2.767 -0.2591 -0.0603  0.0336
47500W        W90438  31.767  21.955   6.285 -0.0607 -0.0777  0.1146
47501W        W90439  32.222  22.783   3.789 -0.1959  0.2495 -0.2942
47502W        W90440  29.796  22.000   5.543  0.0884  0.3474  0.0991
47503W        W90441  32.185  23.674   6.417  0.1212 -0.2825  0.1290
47504W        W90442  32.057  22.342   3.469  0.0847  0.0403 -0.2693
47505W        W90443  32.099  23.295   6.051  0.3716  0.0129  0.1399
47506W        W90444  30.395  23.316   4.551 -0.5526 -0.0062 -0.0150
47507W        W90445  30.686  23.363   6.463 -0.2589 -0.0445  0.1088
47508W        W90446  30.276  23.533   4.980 -0.1296  0.1470 -0.3327
47509W        W90447  29.089  22.646   5.881 -0.1597 -0.2676  0.2530
47510W        W90448  31.844  23.470   7.400 -0.2612 -0.1319 -0.3308
47511W        W90449  31.667  23.947   4.427  0.2535  0.1140  0.1115
47512W        W90450  30.019  23.097   7.387  0.1568  0.0253  0.2636
47513W        W90451  30.909  22.550   4.300 -0.0519  0.0804  0.4124
47514W        W90452  30.342  25.647   5.017  0.1029  0.1739  0.3272
47515W        W90453  29.861  23.592   5.265 -0.0585  0.3261  0.2032
47516W        W90454  31.541  23.154   5.603 -0.2102  0.1394 -0.0077
47517W        W90455  31.693  25.399   5.899  0.1039  0.0169 -0.1007
47518W        W90456  30.396  24.999   4.596 -0.1334 -0.1047 -0.2369
47519W        W90457  30.551  23.954   6.138  0.0845  0.0966 -0.1423
47520W        W90458  27.865  25.375   4.411 -0.1330  0.0652 -0.3242
47521W        W90459  31.945  21.756   4.609  0.2262 -0.0467  0.3070
47522W        W90460  29.299  24.718   6.556 -0.0958  0.1161  0.1776
47523W        W90461  28.891  23.730   3.451  0.0103  0.2093  0.2034
47524W        W90462  29.218  23.123   4.482 -0.1382 -0.1066 -0.0755
47525W        W90463  31.987  22.260   4.748  0.0615  0.3775  0.1258
47526W        W90464  31.795  23.088   4.136  0.0536  0.3831  0.0838
47527W        W90465  28.614  24.601   4.174 -0.1920  0.0127  0.0550
47528W        W90466  32.112  22.923   4.919 -0.0193  0.1787 -0.0763
47529W        W90467  27.462  24.271   5.069 -0.0232  0.0781  0.2794
47530W        W90468  30.963  23.693   6.094 -0.1902  0.2894 -0.3816
47531W        W90469  32.075  22.712   2.827  0.1103 -0.1372 -0.2767
47532W        W90470  31.006  24.589   6.776  0.1485  0.0408  0.3762
47533W        W90471  29.058  24.164   6.664  0.1279 -0.0184  0.0398
47534W        W90472  30.200  22.075   4.144  0.1323 -0.2242  0.0950
47535W        W90473  30.376  22.848   5.673  0.0588  0.4355 -0.0298
47536W        W90474  29.679  25.707   6.269  0.1634  0.1721  0.0792
47537W        W90475  30.794  25.466   5.851 -0.1141  0.3115 -0.0280
47538W        W90476  29.928  25.655   5.271  0.0665  0.1729 -0.0860
47539W        W90477  31.380  22.703   6.195 -0.0549  0.0761 -0.2642
47540W        W90478  31.287  24.080   6.084 -0.2165  0.2626  0.0451
47541W        W90479  31.256  22.467   4.683  0.3015  0.3311 -0.1461
47542W        W90480  30.968  23.161   4.162 -0.1211  0.1413 -0.1042
47543W        W90481  32.100  23.096   5.487  0.1310 -0.1006  0.1942
47544W        W90482  31.847  23.525   5.671 -0.1544 -0.2253  0.2604
47545W        W90483  31.701  23.016   6.037 -0.2123  0.0211 -0.3164
47546W        W90484  29.226  25.445   7.644  0.0632  0.0096 -0.0786
47547W        W90485  30.727  22.104   5.406  0.3304 -0.0945  0.0478
47548W        W90486  32.068  25.171   3.667 -0.1628 -0.1836  0.0726
47549W        W90487  30.216  23.356   5.584 -0.2949  0.1142 -0.0220
47550W        W90488  27.680  25.003   5.306  0.0980  0.0854 -0.0594
47551W        W90489  29.381  24.180   5.772 -0.2293  0.4135  0.2908
47552W        W90490  28.790  24.332   4.565  0.0764 -0.0284  0.4404
47553W        W90491  30.048  21.605   5.809  0.3333 -0.0818 -0.1674
47554W        W90492  30.331  24.230   6.513 -0.0220 -0.0224  0.0782
47555W        W90493  30.795  25.719   5.377  0.3419  0.0432  0.0272
47556W        W90494  29.610  24.320   6.398  0.2321  0.0310  0.0687
47557W        W90495  33.704  21.565   4.171 -0.1002 -0.0341 -0.0738
47558W        W90496  31.482  24.643   3.061 -0.0927  0.1640  0.0609
47559W        W90497  30.528  23.274   2.686  0.1240 -0.1187  0.0076
47560W        W90498  32.668  23.627   6.469 -0.1146  0.0368 -0.1467
47561W        W90499  31.404  24.086   3.083 -0.1525 -0.2652  0.0428
47562W        W90500  32.532  21.404   5.847  0.1270 -0.2445 -0.3135
47563W        W90501  30.388  22.268   6.393  0.0450  0.0367 -0.1257
47564W        W90502  31.783  25.048   4.045  0.0289 -0.0102  0.3651
47565W        W90503  28.685  22.889   4.383  0.0848  0.2377  0.0373
47566W        W90504  31.677  26.072   7.793  0.0048  0.0772  0.1013
47567W        W90505  28.743  23.609   6.617  0.1994 -0.1369 -0.1161
47568W        W90506  31.621  23.114   4.989 -0.0052  0.2075 -0.2622
47569W        W90507  29.416  22.431   2.190  0.1459 -0.1542  0.1220
47570W        W90508  29.874  24.429   5.783  0.0558  0.1925 -0.1178
47571W        W90509  30.517  24.670   6.540 -0.1461 -0.0732 -0.1301
47572W        W90510  29.486  25.157   5.745 -0.2847 -0.1800 -0.0500
47573W        W90511  31.821  24.059   6.659 -0.0504 -0.1799  0.2859
47574W        W90512  29.974  24.597   6.971  0.0918  0.3597 -0.0722
47575W        W90513  31.109  24.283   5.317 -0.0574 -0.1390 -0.1578
47576W        W90514  31.048  23.580   3.398  0.6161  0.0078  0.4944
47577W        W90515  27.891  23.609   4.431  0.1746  0.0574 -0.1393
47578W        W90516  30.501  23.073   7.501  0.1639  0.0958 -0.0813
47579W        W90517  30.969  25.490   6.755 -0.2153  0.5322 -0.0026
47580W        W90518  32.023  24.034   4.782 -0.1319 -0.0368  0.1833
47581W        W90519  30.142  22.606   6.048 -0.0658  0.1448  0.1051
47582W        W90520  31.090  23.357   5.756 -0.1499  0.1752  0.1184
47583W        W90521  30.592  23.289   5.960  0.0585 -0.2289 -0.1370
47584W        W90522  28.260  22.434   6.873  0.0681  0.0339 -0.2071
47585W        W90523  31.327  26.589   6.494 -0.0169 -0.0760 -0.0119
47586W        W90524  33.019  22.456   4.244 -0.1068 -0.0619 -0.1342
47587W        W90525  32.472  21.719   5.328  0.2635 -0.3335  0.0239
47588W        W90526  31.170  22.630   5.203  0.0553 -0.0385 -0.0050
47589W        W90527  31.038  23.317   2.915 -0.0170  0.0155  0.1278
47590W        W90528  30.601  22.471   5.903 -0.2950 -0.1144  0.3266
47591W        W90529  31.976  23.848   7.101  0.0814  0.3968 -0.1831
47592W        W90530  30.475  23.018   4.088  0.3035 -0.0679 -0.0317
47593W        W90531  30.931  21.958   6.302  0.1891 -0.0608 -0.2606
47594W        W90532  30.666  25.838   3.699 -0.0593 -0.1514  0.0719
47595W        W90533  31.654  23.593   4.769 -0.0316  0.1380  0.1258
47596W        W90534  31.973  23.209   4.575  0.1369  0.2974  0.1505
47597W        W90535  28.112  22.292   5.017 -0.1778  0.1172  0.2416
47598W        W90536  29.228  25.917   7.296 -0.1593 -0.0625 -0.3186
47599W        W90537  30.173  23.464   2.012 -0.0895 -0.1877 -0.3109
47600W        W90538  30.434  23.899   3.600 -0.0615 -0.1310  0.1999
47601W        W90539  30.356  25.334   5.532 -0.0585 -0.0339  0.3122
47602W        W90540  33.242  25.175   7.046 -0.0032  0.2616  0.1078
47603W        W90541  31.229  22.087   2.604 -0.1477 -0.0378 -0.3180
47604W        W90542  32.778  24.057   6.307 -0.0939  0.0276 -0.0627
47605W        W90543  31.138  24.554   4.894  0.2410 -0.0429 -0.1430
47606W        W90544  30.189  22.381   5.601 -0.0865  0.0886 -0.0545
47607W        W90545  31.159  26.156   5.306 -0.1584  0.0847 -0.0341
47608W        W90546  28.833  24.021   6.225  0.2490 -0.1284 -0.0864
47609W        W90547  29.514  24.673   5.997  0.1574 -0.0140 -0.0713
47610W        W90548  30.605  21.921   6.710  0.0237 -0.2381 -0.0126
47611W        W90549  33.736  22.735   6.662  0.0717  0.0198 -0.1846
47612W        W90550  32.955  24.284   5.750 -0.0724 -0.1626  0.1361
47613W        W90551  30.421  23.736   6.644 -0.0903 -0.3267 -0.1911
47614W        W90552  29.000  23.649   5.294 -0.2541  0.2064 -0.2111
47615W        W90553  31.165  24.287   7.097  0.1437 -0.0589  0.2163
47616W        W90554  31.126  25.614   4.642  0.0802  0.1035 -0.0285
47617W        W90555  29.711  24.103   4.827  0.0162 -0.0531 -0.1531
47618W        W90556  28.374  22.840   6.540  0.1762  0.0882  0.1152
47619W        W90557  29.807  25.052   7.129 -0.0366  0.0379  0.0931
47620W        W90558  31.838  23.834   6.116  0.2939 -0.1606  0.0593
47621W        W90559  30.653  22.623   5.309  0.0701 -0.2984 -0.1286
47622W        W90560  30.185  25.111   4.099 -0.0286  0.0199 -0.4272
47623W        W90561  28.146  24.841   8.372  0.0956 -0.0779  0.1331
47624W        W90562  28.495  22.330   6.408 -0.0124 -0.3982 -0.1112
47625W        W90563  30.554  25.541   4.065  0.0286  0.2024  0.0819
47626W        W90564  31.541  24.750   4.606  0.1970  0.1091  0.1274
47627W        W90565  30.981  24.546   3.215 -0.0671  0.0624 -0.0897
47628W        W90566  30.296  25.038   6.809  0.1809  0.0900  0.3066
47629W        W90567  30.652  24.714   2.729 -0.0659  0.1547 -0.0791
47630W        W90568  29.971  26.489   6.185  0.0815  0.2905 -0.1174
47631W        W90569  27.827  24.635   2.980 -0.0089 -0.0295  0.1861
47632W        W90570  30.110  25.349   2.237  0.0323 -0.2038  0.2496
47633W        W90571  28.758  25.835   6.704  0.0990  0.1613  0.1533
47634W        W90572  31.777  25.074   6.857  0.0699  0.1167  0.0969
47635W        W90573  33.439  20.488   2.116 -0.1262  0.1471  0.0502
47636W        W90574  32.709  22.551   5.467 -0.0120  0.0724  0.2124
47637W        W90575  31.521  22.024   4.892  0.0599 -0.0120 -0.0986
47638W        W90576  31.927  24.572   5.717  0.1877 -0.0599 -0.1456
47639W        W90577  30.775  23.327   4.912 -0.0023 -0.2482  0.0146
47640W        W90578  29.823  22.772   2.872  0.0958  0.3976  0.1808
47641W        W90579  29.697  23.325   5.783 -0.2517  0.0720  0.1314
47642W        W90580  32.581  20.952   6.071  0.0142  0.2578  0.0592
47643W        W90581  28.166  24.172   5.862 -0.0902  0.0978  0.2386
47644W        W90582  31.459  24.027   3.888 -0.1159 -0.1296 -0.2487
47645W        W90583  28.595  22.431   3.834 -0.1966 -0.1051  0.2973
47646W        W90584  29.890  23.016   5.410 -0.0502 -0.2184 -0.1689
47647W        W90585  31.918  21.585   6.064  0.2497  0.1552 -0.1762
47648W        W90586  29.448  24.222   3.014 -0.1358 -0.1877  0.1288
47649W        W90587  32.275  22.552   5.775 -0.0252 -0.2548 -0.1386
47650W        W90588  29.281  24.943   4.155 -0.0201 -0.0800  0.0451
47651W        W90589  29.851  24.888   6.608 -0.1763 -0.0581 -0.3852
47652W        W90590  30.248  27.468   6.359 -0.0991 -0.0204  0.1272
47653W        W90591  31.036  22.352   5.698  0.2106 -0.3966 -0.0535
47654W        W90592  32.544  22.669   4.671  0.2704  0.0691  0.1427
47655W        W90593  30.872  22.460   6.343 -0.3096  0.2108  0.0064
47656W        W90594  30.232  22.229   6.896 -0.0521 -0.3440  0.4852
47657W        W90595  30.325  23.055   5.155  0.0815  0.3751 -0.5499
47658W        W90596  31.859  23.146   2.877 -0.1860  0.2039  0.0696
47659W        W90597  31.229  25.096   6.527 -0.0901  0.1961 -0.0444
47660W        W90598  30.088  22.869   4.363 -0.0042  0.0052 -0.3713
47661W        W90599  28.781  24.376   2.342  0.2799 -0.1328  0.0255
47662W        W90600  33.690  23.840   6.453  0.0040  0.0410 -0.0068
47663W        W90601  31.684  23.220   3.589  0.0303  0.1000  0.0275
47664W        W90602  30.303  25.620   6.054  0.0323 -0.0569  0.0765
47665W        W90603  28.119  21.748   4.809 -0.0353  0.0867 -0.0241
47666W        W90604  30.835  22.596   2.184  0.2791 -0.3129  0.0218
47667W        W90605  28.002  23.493   5.970 -0.1156 -0.1623 -0.0511
47668W        W90606  29.882  22.832   6.418 -0.0593  0.3606  0.4317
47669W        W90607  30.131  24.658   7.506  0.3421 -0.2309 -0.0258
47670W        W90608  28.898  21.117   5.006  0.0512  0.1778  0.0810
47671W        W90609  31.374  25.053   5.046 -0.0629 -0.2669  0.0236
47672W        W90610  33.291  24.126   6.090  0.2726  0.3508 -0.4060
47673W        W90611  30.583  26.127   2.212 -0.2649  0.1330 -0.0612
47674W        W90612  32.564  25.250   5.195  0.0255 -0.1352  0.1039
47675W        W90613  30.835  25.097   4.111 -0.0207  0.0679 -0.0067
47676W        W90614  29.582  21.761   4.202 -0.2711 -0.2481  0.1050
47677W        W90615  31.067  23.881   5.530 -0.0605 -0.0782  0.0230
47678W        W90616  31.512  24.649   6.560 -0.0147  0.2590 -0.0433
47679W        W90617  31.496  22.363   3.397 -0.1539 -0.2131  0.0671
47680W        W90618  28.654  23.390   4.394 -0.0350  0.1378 -0.0229
47681W        W90619  28.789  25.572   4.545  0.3860  0.3235 -0.0030
47682W        W90620  31.607  21.881   5.750 -0.2226  0.0300 -0.2165
47683W        W90621  33.024  22.762   5.927  0.0364 -0.0724  0.4925
47684W        W90622  30.596  24.686   1.445 -0.1051 -0.2792  0.0324
47685W        W90623  32.573  21.269   7.246 -0.0448 -0.3261 -0.2251
47686W        W90624  29.801  24.695   4.073  0.2100 -0.2280  0.0278
47687W        W90625  29.670  25.588   7.198  0.0248 -0.0810  0.0797
47688W        W90626  29.149  22.784   4.064 -0.2789 -0.2631 -0.0586
47689W        W90627  30.427  24.394   7.859 -0.1987  0.0163 -0.3329
47690W        W90628  29.090  25.940   4.323  0.0856  0.2208  0.1459
47691W        W90629  30.950  25.590   2.981  0.1985 -0.1803 -0.0622
47692W        W90630  30.877  24.840   5.908  0.4498  0.3399 -0.0548
47693W        W90631  31.138  23.593   3.869 -0.1474 -0.1331 -0.0508
47694W        W90632  32.158  25.000   5.794  0.5478 -0.1385  0.0242
47695W        W90633  31.417  22.780   4.301  0.2692  0.0671 -0.0374
47696W        W90634  32.945  23.515   4.673 -0.3917  0.0138 -0.1564
47697W        W90635  32.978  21.993   4.506  0.1582  0.3158 -0.0593
47698W        W90636  30.720  23.167   5.443 -0.4913  0.3158 -0.1032
47699W        W90637  26.976  23.624   4.106 -0.0517  0.3389  0.2956
47700W        W90638  29.413  22.977   3.169  0.2688  0.0540  0.0871
47701W        W90639  28.916  23.889   4.921  0.0038 -0.0591 -0.1173
47702W        W90640  30.722  21.418   7.651 -0.1254  0.0864 -0.1026
47703W        W90641  28.751  22.775   6.906  0.0115  0.3439  0.0909
47704W        W90642  29.008  23.066   5.260 -0.0078 -0.2163 -0.1529
47705W        W90643  30.841  22.742   3.829  0.1614 -0.0091 -0.2993
47706W        W90644  31.150  24.091   4.696 -0.1195 -0.0912  0.0271
47707W        W90645  30.937  21.604   4.379  0.1865  0.1122  0.0903
47708W        W90646  28.238  21.767   5.673 -0.3379 -0.1433  0.0012
47709W        W90647  31.260  25.286   5.463  0.2163 -0.1176  0.1491
47710W        W90648  30.746  25.158   5.445  0.0710 -0.0375  0.3053
47711W        W90649  30.036  21.690   2.985  0.1959 -0.0957 -0.1398
47712W        W90650  31.648  25.257   6.390 -0.1158 -0.0037  0.1377
47713W        W90651  29.181  23.733   3.909  0.1361  0.0023 -0.0897
47714W        W90652  30.564  23.756   5.710  0.0882  0.0140 -0.0700
47715W        W90653  30.101  23.087   6.002  0.0450 -0.0873  0.0852
47716W        W90654  28.957  20.953   4.117 -0.0472  0.2007  0.3857
47717W        W90655  31.152  23.189   5.242 -0.2216 -0.1169 -0.2095
47718W        W90656  30.192  24.665   5.180 -0.3561  0.0147 -0.1812
47719W        W90657  30.886  25.733   2.142 -0.2442  0.1667  0.2042
47720W        W90658  29.703  24.103   7.252 -0.2773  0.1882  0.2478
47721W        W90659  30.687  25.191   7.593  0.1734 -0.2150  0.2580
47722W        W90660  29.042  21.653   6.015  0.1976  0.2290  0.0603
47723W        W90661  31.968  24.258   5.250  0.1915 -0.0351 -0.0155
47724W        W90662  30.894  24.815   7.267  0.2045 -0.2759 -0.2008
47725W        W90663  31.905  24.543   4.870 -0.0296 -0.0184  0.0026
47726W        W90664  32.536  21.282   6.502 -0.3282 -0.1128 -0.0529
47727W        W90665  32.023  23.388   3.275 -0.1556  0.0056 -0.0582
47728W        W90666  29.276  21.044   5.962  0.0443 -0.3999 -0.1092
47729W        W90667  29.964  24.120   6.834  0.1548  0.1280 -0.0522
47730W        W90668  32.128  24.147   6.277 -0.1751  0.1497  0.3745
47731W        W90669  31.628  22.287   4.294  0.1034 -0.0876 -0.1737
47732W        W90670  31.376  21.287   4.020 -0.0526  0.3831  0.1076
47733W        W90671  30.767  24.663   4.490  0.2603 -0.0337  0.1802
47734W        W90672  28.929  22.868   4.809  0.1693 -0.0732 -0.2176
47735W        W90673  30.683  23.388   3.772 -0.0687  0.2164  0.3048
47736W        W90674  30.409  24.807   5.699 -0.1212  0.0620  0.0737
47737W        W90675  31.146  23.762   5.014 -0.0828  0.0033 -0.1182
47738W        W90676  30.692  24.128   6.911  0.1151  0.0851 -0.4438
47739W        W90677  28.334  25.503   4.264 -0.0212  0.0154  0.0047
47740W        W90678  33.178  24.111   3.996  0.1246 -0.2528 -0.3096
47741W        W90679  29.280  26.208   6.895 -0.0026 -0.1809 -0.3169
47742W        W90680  31.800  25.837   6.241  0.1333 -0.4254  0.2537
47743W        W90681  31.570  24.091   5.689 -0.2189  0.0694  0.2732
47744W        W90682  32.459  23.750   6.041 -0.0259 -0.2136  0.1453
47745W        W90683  29.512  22.424   6.287 -0.0382  0.0484 -0.0597
47746W        W90684  29.882  23.304   4.780 -0.4107  0.0674 -0.0166
47747W        W90685  30.318  23.891   5.318 -0.2154 -0.3192 -0.0010
47748W        W90686  32.558  22.954   5.853  0.1315  0.0975  0.0368
47749W        W90687  30.777  22.067   4.090 -0.1267 -0.0702  0.1554
47750W        W90688  31.337  21.300   3.532 -0.0667  0.0690  0.2097
47751W        W90689  30.147  25.691   7.465 -0.2094 -0.4089 -0.1308
47752W        W90690  31.099  24.796   5.415 -0.2424 -0.2456 -0.0762
47753W        W90691  30.813  23.757   9.261  0.1997  0.1785 -0.0313
47754W        W90692  30.607  22.154   7.846 -0.0099 -0.2157 -0.0085
47755W        W90693  31.594  24.200   7.354  0.1361 -0.2440 -0.0906
47756W        W90694  32.623  24.285   8.297 -0.1626 -0.1278 -0.0539
47757W        W90695  30.061  21.244   8.791 -0.0111 -0.3081 -0.0829
47758W        W90696  30.257  25.955   8.645 -0.1700 -0.0162 -0.2729
47759W        W90697  29.966  24.249   8.647 -0.2728 -0.0268  0.1821
47760W        W90698  31.209  26.592  10.206  0.2852 -0.0044  0.2651
47761W        W90699  31.456  23.584   5.988  0.1113  0.0476 -0.1841
47762W        W90700  30.403  22.980   8.791  0.0988  0.0571 -0.2704
47763W        W90701  29.485  20.635   8.129  0.1376 -0.0425 -0.1813
47764W        W90702  29.112  21.009   8.661  0.2119  0.2249 -0.0695
47765W        W90703  32.731  22.853   8.462 -0.2163 -0.0994 -0.0732
47766W        W90704  29.538  23.576   7.192  0.0933  0.3360  0.2438
47767W        W90705  30.019  22.993   9.513 -0.1971  0.0882  0.1735
47768W        W90706  31.009  23.393   7.967  0.0080  0.0663 -0.1517
47769W        W90707  29.012  24.640   9.338 -0.0047  0.1124 -0.0501
47770W        W90708  31.619  23.742   9.087  0.0481  0.1782 -0.0904
47771W        W90709  31.004  23.680   6.618  0.0659  0.1374 -0.1733
47772W        W90710  29.245  23.528   6.353  0.1252  0.0725 -0.0105
47773W        W90711  27.794  23.195   7.671  0.3253  0.0909  0.0197
47774W        W90712  32.367  23.405   9.266  0.1912 -0.1470 -0.0562
47775W        W90713  32.004  23.382   8.373  0.2820 -0.1587  0.1504
47776W        W90714  32.750  22.188   7.885  0.1659 -0.2864 -0.0249
47777W        W90715  30.292  25.184   8.881 -0.1179 -0.0053  0.3468
47778W        W90716  30.524  25.304   9.439 -0.4073 -0.2580  0.0422
47779W        W90717  30.221  25.456   8.474 -0.0752 -0.4141  0.5333
47780W        W90718  28.002  24.837   8.845  0.0431 -0.0948 -0.1844
47781W        W90719  29.787  24.229   8.150 -0.2568 -0.1566 -0.2773
47782W        W90720  32.350  23.577   7.772 -0.0150 -0.0482 -0.0750
47783W        W90721  30.553  25.464   7.026  0.0856 -0.0698 -0.0563
47784W        W90722  30.966  21.910   7.592  0.0835  0.0944  0.2161
47785W        W90723  31.559  23.365   8.173 -0.0659  0.0580 -0.1429
47786W        W90724  30.571  23.717   8.303 -0.1463  0.3340  0.0735
47787W        W90725  28.824  23.561   9.297 -0.3522 -0.2082 -0.4349
47788W        W90726  27.967  26.039   7.825 -0.0373 -0.1565  0.1662
47789W        W90727  30.120  21.874   7.941  0.1226 -0.1420  0.1475
47790W        W90728  30.862  24.243   5.829  0.3206  0.1166  0.0918
47791W        W90729  33.095  22.493   7.160 -0.2178 -0.4242  0.0848
47792W        W90730  30.882  22.427   7.471 -0.0012  0.4780  0.1207
47793W        W90731  30.291  26.181   8.203 -0.0328 -0.2063 -0.0733
47794W        W90732  30.177  23.460   8.726  0.3153  0.2156 -0.3332
47795W        W90733  31.660  24.393   6.197 -0.2452 -0.2173  0.2108
47796W        W90734  30.909  27.043  10.252 -0.0148 -0.4019  0.1832
47797W        W90735  27.320  20.871   8.831  0.1433 -0.0152  0.0241
47798W        W90736  29.746  22.030   8.157  0.1030  0.0263 -0.3511
47799W        W90737  31.196  25.120   7.568 -0.2004 -0.0439 -0.0073
47800W        W90738  31.125  24.921   9.173  0.0074  0.5034  0.0550
47801W        W90739  32.115  24.853   8.463 -0.0401 -0.0945  0.0729
47802W        W90740  30.850  22.637   8.072  0.0522  0.2101 -0.0336
47803W        W90741  29.813  22.264   6.641  0.3386 -0.2351  0.0041
47804W        W90742  34.392  22.934   9.139  0.1479  0.2807 -0.0889
47805W        W90743  29.440  24.268   7.730  0.0285 -0.2168 -0.2386
47806W        W90744  29.569  24.010   9.443  0.3104 -0.0478 -0.1007
47807W        W90745  32.455  23.798   7.331 -0.0989  0.3427  0.1418
47808W        W90746  32.386  21.608   8.121 -0.0033  0.1841  0.0268
47809W        W90747  31.152  22.252   8.744 -0.0769  0.1801 -0.0835
47810W        W90748  30.502  23.425   7.926 -0.0175 -0.3454  0.0500
47811W        W90749  28.596  23.462   7.842 -0.1375  0.4975 -0.3389
47812W        W90750  32.447  25.441   8.714 -0.1264 -0.2106 -0.2203
47813W        W90751  32.559  23.054   6.958  0.0796  0.4522  0.0687
47814W        W90752  28.994  25.172   9.641  0.0958  0.1604 -0.3174
47815W        W90753  30.293  25.422   7.870  0.1651 -0.1864 -0.1523
47816W        W90754  28.924  23.149   8.691  0.0543  0.2028  0.0572
47817W        W90755  29.966  24.179   7.686 -0.2568 -0.5003  0.0688
47818W        W90756  29.417  23.599   9.165  0.2967 -0.0420  0.3553
47819W        W90757  28.345  22.415   7.865 -0.2499  0.1485 -0.0281
47820W        W90758  31.398  23.806   7.017 -0.1264  0.2248  0.0267
47821W        W90759  31.287  20.901   9.336 -0.1474 -0.1008  0.4540
47822W        W90760  28.928  25.095   7.400 -0.2832  0.0960 -0.1389
47823W        W90761  30.711  26.784  10.770  0.0122  0.4195  0.2356
47824W        W90762  32.948  23.719   5.924 -0.3111  0.2490 -0.5253
47825W        W90763  31.649  24.336   7.924 -0.3295  0.2780  0.2027
47826W        W90764  29.582  22.337   8.771  0.0876  0.2594  0.0883
47827W        W90765  30.931  22.951   7.649  0.2710  0.3066 -0.1037
47828W        W90766  28.722  23.182   7.240  0.0161 -0.1037 -0.0201
47829W        W90767  28.082  21.262   7.270 -0.1098 -0.2668 -0.4304
47830W        W90768  32.676  22.756   7.353  0.1215  0.2118 -0.0518
47831W        W90769  31.341  23.881   8.120 -0.1677 -0.0328  0.3630
47832W        W90770  29.851  25.166   7.625  0.1054  0.0445  0.0693
47833W        W90771  32.168  25.743   9.083 -0.1852 -0.1518  0.0801
47834W        W90772  33.177  24.414   9.088  0.1450  0.0415 -0.1390
47835W        W90773  32.255  26.256   9.020 -0.3186  0.2460  0.1229
47836W        W90774  31.032  23.074   8.695 -0.2925  0.2261  0.1980
47837W        W90775  29.691  22.782   7.888  0.1253 -0.0930  0.2682
47838W        W90776  28.475  25.019   7.545 -0.1122 -0.0155 -0.0757
47839W        W90777  29.820  24.707   7.900 -0.1820  0.1816  0.1399
47840W        W90778  30.348  21.325   6.656 -0.0587 -0.0403 -0.0683
47841W        W90779  33.160  25.932   8.092 -0.2672 -0.0296 -0.1776
47842W        W90780  32.004  24.711   8.025 -0.1737 -0.0097  0.0246
47843W        W90781  30.184  25.386   9.946 -0.0256  0.1054  0.1992
47844W        W90782  31.793  22.427   6.592  0.0402 -0.1001 -0.1226
47845W        W90783  28.703  22.257   6.976  0.0893 -0.1016 -0.2030
47846W        W90784  30.226  26.442   9.017 -0.0682 -0.0510  0.4221
47847W        W90785  28.943  24.277   8.199  0.0900  0.1115 -0.0253
47848W        W90786  30.121  23.133   7.867 -0.1983  0.0079  0.0009
47849W        W90787  30.805  24.112   8.001  0.0710  0.1733 -0.2863
47850W        W90788  32.196  21.689   8.893  0.1460 -0.0541  0.1141
47851W        W90789  29.153  23.154   6.925 -0.0076 -0.4982  0.1683
47852W        W90790  31.273  22.666   7.839 -0.1384 -0.4553  0.3083
47853W        W90791  32.671  22.659   6.313 -0.0324  0.1375 -0.2406
47854W        W90792  32.500  25.246   9.153  0.0690  0.1341  0.2716
47855W        W90793  31.181  23.196   6.242  0.0816  0.1896  0.1153
47856W        W90794  31.329  21.431   6.605  0.2464  0.0323 -0.0954
47857W        W90795  30.983  24.642   7.759 -0.0817 -0.1900 -0.0206
47858W        W90796  31.343  24.900   8.691  0.0072 -0.0685 -0.0510
47859W        W90797  30.380  22.677   6.680 -0.0460 -0.1921 -0.1543
47860W        W90798  32.831  24.565   8.687  0.1987 -0.3827 -0.0532
47861W        W90799  29.425  23.965   8.819 -0.1729 -0.3511 -0.1069
47862W        W90800  30.454  25.029   8.348  0.3511 -0.2023 -0.0817
47863W        W90801  28.478  22.605   8.443  0.0912  0.0871  0.1481
47864W        W90802  30.379  22.726   7.155  0.1208 -0.1019  0.1493
47865W        W90803  31.278  21.792   8.888  0.1198 -0.0008  0.1266
47866W        W90804  27.702  26.101   9.564  0.0283  0.0247  0.0309
47867W        W90805  32.766  20.257   9.404  0.2480  0.0169 -0.0267
47868W        W90806  31.748  24.208   9.237 -0.1348 -0.1631  0.0933
47869W        W90807  33.460  22.129   8.540  0.0651 -0.0161  0.1603
47870W        W90808  29.392  24.423   9.612 -0.0522 -0.2273  0.3529
47871W        W90809  29.455  24.428   6.959 -0.2103 -0.1191 -0.1564
47872W        W90810  31.413  22.295   9.171  0.0972  0.3808  0.0824
47873W        W90811  28.912  24.677   9.811  0.0605 -0.1281 -0.0749
47874W        W90812  32.423  22.185   8.818 -0.0648  0.1630 -0.3380
47875W        W90813  29.883  22.605   7.439 -0.0996 -0.0562  0.0523
47876W        W90814  29.299  26.021   9.004 -0.3383 -0.1874  0.0879
47877W        W90815  30.289  24.944   7.876  0.0779  0.0445 -0.0397
47878W        W90816  31.665  22.789   8.157 -0.0460 -0.1364  0.0296
47879W        W90817  29.646  25.031   8.877  0.0566  0.0244 -0.3364
47880W        W90818  30.763  25.035   6.809  0.0311  0.0440 -0.1775
47881W        W90819  29.701  25.442   8.457  0.0213  0.0477 -0.0923
47882W        W90820  29.330  25.098   8.463  0.2014 -0.0115 -0.0925
47883W        W90821  33.020  21.121  10.184 -0.1464  0.1311 -0.1071
47884W        W90822  28.860  23.750   8.352  0.0064 -0.0609  0.0539
47885W        W90823  29.261  23.022   6.336  0.0730  0.0114 -0.1755
47886W        W90824  27.767  23.765   7.357 -0.2521 -0.2534  0.0678
47887W        W90825  32.109  22.612   7.157  0.1697 -0.0402  0.3672
47888W        W90826  32.960  23.765   7.254  0.1923 -0.3603  0.0567
47889W        W90827  29.403  22.386   8.091  0.1338 -0.0144  0.0113
47890W        W90828  32.901  22.220   8.376  0.1786  0.0733  0.0618
47891W        W90829  28.941  24.166   8.673 -0.4086  0.3103  0.1702
47892W        W90830  30.893  22.947   6.610 -0.0683  0.0517  0.1383
47893W        W90831  27.964  23.124   7.150  0.1643  0.0616 -0.0051
47894W        W90832  33.523  24.476   8.253 -0.6226 -0.1876  0.2292
47895W        W90833  31.211  22.957   8.232  0.2740 -0.0462 -0.5362
47896W        W90834  29.111  25.521   8.136  0.0837 -0.1909 -0.0601
47897W        W90835  29.006  24.662   8.536  0.1380 -0.0297 -0.1954
47898W        W90836  29.666  24.586   7.391 -0.0999  0.1061  0.0398
47899W        W90837  29.422  24.949   7.640  0.1194  0.2697  0.3400
47900W        W90838  30.314  24.152   8.268  0.1050  0.1255  0.0235
47901W        W90839  32.411  22.289   8.298 -0.0650 -0.0371  0.0492
47902W        W90840  30.339  22.697   8.190 -0.2634  0.3461 -0.1173
47903W        W90841  30.760  23.383   6.982 -0.3731  0.0493  0.1676
47904W        W90842  28.583  21.847   8.836  0.0091 -0.1654  0.0773
47905W        W90843  29.998  23.632   9.391 -0.1426  0.0312 -0.0233
47906W        W90844  31.343  22.432   8.344  0.2503 -0.2533  0.2059
47907W        W90845  32.662  26.347   8.717  0.2517 -0.1627  0.0706
47908W        W90846  30.394  23.700   7.113 -0.0018 -0.0573  0.0942
47909W        W90847  27.099  23.223   8.956  0.2609 -0.1398  0.0131
47910W        W90848  29.980  23.694   7.405 -0.3899 -0.1912  0.0388
47911W        W90849  31.981  22.347   8.998 -0.1223  0.1671  0.0320
47912W        W90850  28.872  24.044   9.657  0.1910 -0.3620 -0.0243
47913W        W90851  30.206  24.623   8.228 -0.0562  0.2050  0.1452
47914W        W90852  27.727  23.558   8.222  0.1190 -0.3816 -0.0830
47915W        W90853  32.113  21.932   8.386 -0.3658  0.2454  0.1945
47916W        W90854  32.132  23.174   7.124 -0.1622  0.1341 -0.2218
47917W        W90855  31.440  22.244   7.554 -0.2305  0.1154 -0.1420
47918W        W90856  31.886  23.429   6.779 -0.0408  0.0355  0.3009
47919W        W90857  30.546  22.176   8.740  0.2443  0.0584 -0.1667
47920W        W90858  33.117  24.074   7.969 -0.0570  0.0587  0.0356
47921W        W90859  31.411  22.759   7.358 -0.0602  0.0334 -0.1430
47922W        W90860  28.725  21.880   7.332 -0.3206  0.2370  0.3205
47923W        W90861  29.532  25.162  10.275 -0.2809  0.1267 -0.0018
47924W        W90862  30.348  23.973   9.435  0.0465  0.0621  0.1482
47925W        W90863  31.912  22.921   7.475  0.1677  0.1598  0.2649
47926W        W90864  33.683  22.356   8.934 -0.0394  0.1504  0.1522
47927W        W90865  28.613  22.968   7.864 -0.1394  0.1048 -0.2647
47928W        W90866  31.331  22.733   6.722 -0.1066 -0.1359 -0.1983
47929W        W90867  31.865  23.818   7.917 -0.3426  0.1852 -0.2791
47930W        W90868  29.063  23.978   7.810  0.0837  0.2076 -0.1254
47931W        W90869  30.770  24.332   9.143 -0.0188  0.2168 -0.2152
47932W        W90870  33.462  22.993   9.331  0.0035  0.3634  0.0113
47933W        W90871  29.784  23.257   9.064  0.0795 -0.0784  0.4547
47934W        W90872  32.944  23.218   6.232 -0.1584 -0.0967 -0.0447
47935W        W90873  32.165  21.882   9.427  0.0677 -0.1542 -0.3438
47936W        W90874  32.322  23.588   8.808  0.3301 -0.2859  0.1627
47937W        W90875  32.375  22.451   7.607  0.0484 -0.1802 -0.3394
47938W        W90876  28.250  23.334   7.481  0.1866  0.0051  0.4884
47939W        W90877  30.009  23.658   7.904 -0.0928 -0.2175 -0.0100
47940W        W90878  30.830  26.126   8.043 -0.1484 -0.0883  0.1460
47941W        W90879  31.817  24.506   8.810  0.2929  0.0641 -0.1059
47942W        W90880  32.142  22.932   8.238 -0.0237 -0.1379 -0.4372
47943W        W90881  28.838  22.176   7.743  0.0035 -0.0911 -0.3010
47944W        W90882  30.243  23.152   6.492 -0.2996 -0.3382 -0.1341
47945W        W90883  30.966  24.030   8.479  0.0676 -0.3319  0.0799
47946W        W90884  29.725  24.368   9.073  0.2220 -0.1322 -0.1161
47947W        W90885  31.343  22.132   6.062 -0.0923 -0.3234 -0.0880
47948W        W90886  28.540  25.276   7.116  0.2787  0.0364  0.1427
47949W        W90887  30.206  22.522   8.645  0.2722  0.1059 -0.0023
47950W        W90888  29.383  23.069   8.825 -0.2235  0.0162  0.0511
47951W        W90889  29.300  25.874   8.461 -0.1054 -0.3179  0.1160
47952W        W90890  30.448  23.921   8.901 -0.1883  0.0574  0.1561
47953W        W90891  31.453  23.116   7.754 -0.0525 -0.0107  0.0145
47954W        W90892  30.962  22.857   7.110 -0.3514 -0.1798  0.0344
47955W        W90893  29.142  24.495   7.420 -0.2451 -0.0322  0.1439
47956W        W90894  32.713  24.173   9.355 -0.1012  0.0232  0.0654
47957W        W90895  29.203  22.614   8.527  0.0407  0.0850 -0.0276
47958W        W90896  31.372  23.705   7.582  0.0942  0.1890  0.2306
47959W        W90897  30.594  21.121   7.161  0.1425 -0.1824 -0.2048
47960W        W90898  30.757  25.425   8.587 -0.0613  0.0422 -0.0165
47961W        W90899  29.208  23.400   8.377 -0.0319  0.3776  0.1674
47962W        W90900  28.329  26.229   9.124 -0.0708 -0.0511  0.1279
47963W        W90901  31.357  24.198   6.588 -0.2672 -0.1281 -0.0103
47964W        W90902  32.259  23.816   8.275  0.2840 -0.2023 -0.1261
47965W        W90903  30.323  26.393   9.674  0.1667 -0.0230 -0.0601
47966W        W90904  28.335  23.278   6.867 -0.2021  0.0290  0.1013
47967W        W90905  29.682  24.715   8.522  0.0180 -0.4851  0.0438
47968W        W90906  28.093  23.337   7.998 -0.2256 -0.0148  0.0997
47969W        W90907  31.890  25.627   8.655 -0.0668 -0.0500  0.5495
47970W        W90908  30.881  26.728   8.881  0.3171 -0.0730  0.0678
47971W        W90909  32.140  22.088   6.810  0.1251 -0.2231 -0.0894
47972W        W90910  31.567  23.106   8.603 -0.0205  0.3237  0.2248
47973W        W90911  32.383  23.208   6.467 -0.1229 -0.1042  0.0492
47974W        W90912  31.158  23.411   9.091  0.1407 -0.0057  0.0602
47975W        W90913  29.488  22.934   7.292 -0.0658  0.5017  0.3054
47976W        W90914  31.215  25.340   8.389 -0.3070  0.0774  0.0602
47977W        W90915  30.318  22.245   7.396  0.2917 -0.0383  0.2242
47978W        W90916  32.922  22.967   8.883 -0.0834 -0.2373  0.0087
47979W        W90917  33.644  22.583   9.540  0.0515 -0.0206  0.3044
47980W        W90918  31.187  24.200   7.619 -0.1494 -0.1757 -0.0420
47981W        W90919  31.107  23.029   9.483 -0.1421 -0.0019  0.1312
47982W        W90920  30.551  26.820   9.261  0.1485 -0.0454 -0.4719
47983W        W90921  28.511  24.340   9.401  0.2076  0.0048 -0.0128
47984W        W90922  29.341  25.550  12.346 -0.1761  0.1924 -0.2162
47985W        W90923  27.981  21.670   7.648 -0.3986 -0.0563  0.0944
47986W        W90924  31.899  24.199   8.367  0.0420  0.1569  0.0047
47987W        W90925  32.256  22.858   9.134  0.0155  0.1984  0.0660
47988W        W90926  30.760  23.539   8.742 -0.1280  0.0411 -0.1845
47989W        W90927  32.264  22.022   7.257 -0.5371  0.2656  0.1391
47990W        W90928  31.316  25.619   9.256  0.0651 -0.1176 -0.0304
47991W        W90929  30.748  22.956   9.116 -0.1108 -0.3596 -0.1550
47992W        W90930  31.226  23.519   8.552  0.0918 -0.0889  0.0098
47993W        W90931  32.397  23.576   6.920  0.0847  0.1114 -0.0611
47994W        W90932  29.580  22.918   8.433 -0.1551  0.0964  0.2126
47995W        W90933  31.203  22.292   7.091  0.2828 -0.0046  0.1966
47996W        W90934  29.096  24.095   7.170  0.1252 -0.0300  0.1159
47997W        W90935  29.585  23.257   7.742 -0.0590  0.2946  0.0866
47998W        W90936  30.634  21.202   8.197  0.0481 -0.1197 -0.0318
47999W        W90937  32.610  24.010   7.741 -0.0504  0.0560  0.0090
48000W        W90938  30.462  23.415   9.179 -0.0407 -0.0702 -0.1733
48001W        W90939  28.882  26.002   8.268  0.1231  0.1819 -0.1558
48002W        W90940  30.813  22.087   9.176  0.3089 -0.1753 -0.0390
48003W        W90941  29.941  25.075   8.215  0.1736 -0.0208 -0.0503
48004W        W90942  28.871  22.636   8.891  0.0973 -0.3834 -0.1464
48005W        W90943  31.853  25.404   9.287  0.0385  0.0323  0.1495
48006W        W90944  33.420  24.707   8.658 -0.0629  0.3256 -0.0852
48007W        W90945  30.316  22.190   8.268  0.1169  0.1425  0.2372
48008W        W90946  30.657  23.118   8.297  0.1808 -0.0507  0.1256
48009W        W90947  29.117  24.995   8.922 -0.2134 -0.4484 -0.0745
48010W        W90948  31.898  23.351   8.903  0.0536  0.0194 -0.2989
48011W        W90949  31.050  25.840   7.145 -0.2550 -0.2171 -0.0416
48012W        W90950  30.505  24.405   8.632  0.1777 -0.0025  0.0130
48013W        W90951  29.107  23.634   7.406 -0.2881 -0.0071 -0.0786
48014W        W90952  30.803  23.468   7.498 -0.2553 -0.0498  0.2090
48015W        W90953  29.874  25.480   8.881  0.0932 -0.0171 -0.2811
48016W        W90954  30.875  27.119   9.464  0.1921 -0.2362  0.1439
48017W        W90955  31.209  23.286   7.249 -0.4322  0.0449  0.1600
48018W        W90956  32.317  24.353   8.682 -0.0291 -0.0866  0.0722
48019W        W90957  30.289  22.589   9.170  0.0252  0.1581  0.1763
48020W        W90958  32.982  23.085   7.633  0.0350  0.3779  0.0218
48021W        W90959  32.393  21.383   8.555 -0.5024 -0.1488 -0.1700
48022W        W90960  26.930  21.916   9.049  0.0748  0.2998 -0.1040
48023W        W90961  27.933  23.013   5.808  0.1481  0.1424 -0.0885
48024W        W90962  30.452  22.652   7.695  0.1117  0.1989  0.2276
48025W        W90963  29.431  23.803   8.225  0.0513  0.0201 -0.0660
48026W        W90964  29.897  22.865   8.803  0.2396 -0.0957  0.1318
48027W        W90965  30.271  21.717   7.527  0.2022  0.0700  0.2585
48028W        W90966  31.557  24.837   7.852  0.3675 -0.0712  0.1266
48029W        W90967  29.301  22.073   8.405 -0.1714 -0.2168 -0.0813
48030W        W90968  28.134  21.847   9.131  0.1595  0.1480  0.3395
48031W        W90969  31.498  24.168   8.615 -0.0050 -0.2885 -0.0158
48032W        W90970  31.737  25.983   9.714  0.0550 -0.1135 -0.1656
48033W        W90971  30.692  22.007   7.180  0.0814 -0.4111  0.2600
48034W        W90972  29.091  23.774   5.773  0.1675  0.4657 -0.3378
48035W        W90973  28.733  21.495   5.523  0.2265 -0.3647 -0.0868
48036W        W90974  29.749  23.397   8.249  0.1420 -0.0342  0.2105
48037W        W90975  31.159  24.835   8.225 -0.1072 -0.0420 -0.1103
48038W        W90976  29.762  25.949   8.623  0.2717  0.3625  0.0307
48039W        W90977  26.425  22.725   8.653 -0.1473  0.0803  0.0695
48040W        W90978  31.722  22.956   7.052  0.3713  0.0813  0.0577
48041W        W90979  32.093  25.326   7.204 -0.0240  0.0754  0.2260
48042W        W90980  31.685  22.997   9.159  0.2559  0.1804 -0.0138
48043W        W90981  30.888  25.352   9.075  0.0878 -0.0344 -0.1366
48044W        W90982  29.044  21.718   8.689 -0.2987 -0.2363  0.0714
48045W        W90983  31.785  22.219   7.128 -0.2866 -0.1167 -0.1508
48046W        W90984  30.763  24.592   8.205  0.1523  0.1131 -0.1845
48047W        W90985  31.117  22.186   7.953 -0.1126 -0.3389 -0.1762
48048W        W90986  30.990  23.859   7.261 -0.1977  0.1284 -0.1309
48049W        W90987  30.846  25.193   8.061 -0.5853  0.1117 -0.3416
48050W        W90988  31.981  23.221   7.849  0.0912  0.0609 -0.1847
48051W        W90989  32.560  23.416   8.182 -0.0011  0.0120 -0.0791
48052W        W90990  31.917  22.341   9.523 -0.1423  0.1651 -0.3501
48053W        W90991  29.475  24.804   9.275 -0.0830  0.2109  0.1232
48054W        W90992  30.538  24.726   9.264 -0.0236  0.0622  0.2109
48055W        W90993  27.014  21.772   8.445 -0.1414  0.1788 -0.2357
48056W        W90994  29.929  22.782   6.926  0.2955  0.0616 -0.1349
48057W        W90995  29.550  23.736   7.699 -0.0211  0.1144  0.2501
48058W        W90996  28.248  22.827   7.613 -0.0631  0.1618 -0.0839
48059W        W90997  30.045  22.363   7.881  0.3111 -0.3195 -0.2653
48060W        W90998  31.914  21.660   8.024  0.1052  0.0315  0.1086
48061W        W90999  29.025  23.672   8.838 -0.1099  0.2392 -0.1372
48062W        W91000  31.673  23.716   8.506  0.0894  0.2072  0.1174
48063W        W91001  30.491  28.290   3.025 -0.1083 -0.1065  0.0594
48064W        W91002  30.134  28.756   0.081  0.0898 -0.3579  0.0921
48065W        W91003  31.656  26.555   0.453 -0.0058 -0.1974 -0.1491
48066W        W91004  30.629  27.604   1.090  0.0793 -0.0009 -0.1027
48067W        W91005  29.224  26.165  31.844  0.1151 -0.1587  0.0464
48068W        W91006  31.417  27.787   1.520  0.0434 -0.1644  0.1297
48069W        W91007  28.401  25.352   1.786 -0.1992  0.3313  0.1788
48070W        W91008  31.395  28.309   1.379 -0.1899 -0.0327  0.0984
48071W        W91009  31.505  29.258   0.972 -0.0334  0.1353  0.0302
48072W        W91010  30.915  28.484  31.612  0.2008 -0.0727 -0.0078
48073W        W91011  29.542  26.745   2.290 -0.2108 -0.2475  0.2755
48074W        W91012  29.350  27.746   2.585  0.4033 -0.0251  0.0498
48075W        W91013  30.385  26.731   0.491  0.0801  0.1610 -0.0558
48076W        W91014  28.207  25.841   1.883 -0.2462 -0.2772 -0.1300
48077W        W91015  32.006  27.882   3.770  0.0789  0.0839  0.1807
48078W        W91016  28.867  26.703   0.579 -0.2701  0.2111  0.3913
48079W        W91017  30.170  27.517   1.864 -0.2075 -0.1837 -0.1060
48080W        W91018  30.505  26.774   1.399  0.0433  0.0680 -0.0337
48081W        W91019  29.369  28.675   2.326  0.1955  0.2085  0.1933
48082W        W91020  29.931  25.644   3.242  0.2109 -0.0335 -0.4581
48083W        W91021  30.955  24.022   4.185 -0.1962 -0.1910  0.1667
48084W        W91022  29.498  29.800   0.731  0.1072  0.4113 -0.2583
48085W        W91023  29.291  26.517   0.786 -0.1601 -0.0956 -0.2632
48086W        W91024  29.457  27.343   2.904 -0.0652 -0.1731  0.0804
48087W        W91025  28.478  27.670   1.465  0.0484 -0.0921 -0.0537
48088W        W91026  30.947  27.151   2.303  0.2300  0.0024 -0.3452
48089W        W91027  30.954  28.061   1.412  0.0453  0.0804 -0.1828
48090W        W91028  30.754  29.218   1.424 -0.0369  0.2656 -0.2102
48091W        W91029  30.410  29.243   2.517  0.0965  0.3086  0.1619
48092W        W91030  32.574  26.589   2.896 -0.2125  0.0776  0.3251
48093W        W91031  30.061  27.636   1.214 -0.3123  0.1192 -0.1992
48094W        W91032  27.586  28.737   0.923 -0.4272 -0.0942 -0.5043
48095W        W91033  30.362  28.698   2.176  0.2382 -0.0380  0.1771
48096W        W91034  31.214  28.057   0.511 -0.1837 -0.0915 -0.1180
48097W        W91035  32.068  29.169   3.156 -0.2037 -0.1467  0.1328
48098W        W91036  29.903  29.997   3.903  0.1022  0.1466 -0.2183
48099W        W91037  28.690  30.808  31.556 -0.1422  0.2504 -0.1855
48100W        W91038  29.768  28.670   2.057  0.1604  0.3445  0.0323
48101W        W91039  30.182  28.219   4.687  0.1311  0.0352 -0.2654
48102W        W91040  30.020  27.394   2.960  0.0879  0.0242 -0.0165
48103W        W91041  28.907  28.180   1.062  0.0836  0.2858  0.0534
48104W        W91042  29.384  29.606  31.220 -0.0639 -0.0330 -0.1119
48105W        W91043  30.463  28.103   0.208 -0.2419 -0.0379  0.0609
48106W        W91044  29.376  27.854   3.830  0.1167 -0.0691 -0.0707
48107W        W91045  28.974  28.541   1.450 -0.0668 -0.1954 -0.0414
48108W        W91046  31.532  25.812   3.804 -0.1892  0.0825  0.0451
48109W        W91047  29.594  28.557   0.039 -0.2698 -0.0630 -0.0441
48110W        W91048  30.467  26.308  31.603  0.1979  0.2631  0.0057
48111W        W91049  29.134  26.671  30.988  0.0026 -0.0079 -0.2478
48112W        W91050  31.354  26.288  30.813 -0.2099  0.0061 -0.0219
48113W        W91051  30.011  26.313   1.273 -0.0882  0.0424  0.0352
48114W        W91052  28.307  28.997   1.864  0.1020 -0.2557  0.2018
48115W        W91053  28.960  27.634   1.094 -0.1413  0.1031 -0.0310
48116W        W91054  30.861  28.473   2.657 -0.3509  0.0339  0.1698
48117W        W91055  31.120  26.989   0.491  0.0356  0.0966 -0.0788
48118W        W91056  32.229  27.606   2.993  0.1011 -0.0827  0.2301
48119W        W91057  30.041  28.439   3.021 -0.0807 -0.1457 -0.1006
48120W        W91058  29.682  26.243   2.235  0.1547 -0.1422  0.5508
48121W        W91059  31.701  28.052   0.493  0.0743 -0.1115  0.1254
48122W        W91060  33.104  27.921   0.476  0.0210  0.3039  0.0958
48123W        W91061  31.033  29.003  31.522 -0.1917  0.1034  0.0575
48124W        W91062  29.314  28.557   0.894 -0.0562 -0.0025 -0.1486
48125W        W91063  29.698  27.461   3.477 -0.1551  0.2991  0.0761
48126W        W91064  29.861  27.391   2.472  0.2761 -0.1851  0.2351
48127W        W91065  29.515  26.619  31.957 -0.1399 -0.3486  0.1741
48128W        W91066  34.292  26.465   3.942  0.1585  0.1116 -0.1501
48129W        W91067  28.590  27.737   4.507 -0.1228 -0.0520  0.0153
48130W        W91068  31.681  25.997   1.501  0.2054  0.0830  0.0096
48131W        W91069  29.696  28.326   0.554  0.1418 -0.2315  0.1713
48132W        W91070  31.837  28.339   2.356  0.0617 -0.3777 -0.0947
48133W        W91071  32.517  28.574   0.462 -0.3243 -0.1400 -0.1022
48134W        W91072  32.220  26.385   2.449  0.1001 -0.1756  0.0623
48135W        W91073  31.934  25.981   2.025 -0.1159 -0.1972 -0.1962
48136W        W91074  30.866  27.734   0.591  0.2003 -0.5411 -0.2049
48137W        W91075  29.242  29.482   1.586  0.0066 -0.2337  0.0124
48138W        W91076  31.880  28.316   3.080  0.0458  0.1808  0.2110
48139W        W91077  30.812  25.437  31.321  0.0027  0.0364 -0.0552
48140W        W91078  31.351  29.160   2.276 -0.3038 -0.1257 -0.4622
48141W        W91079  28.890  26.428   3.231 -0.2159 -0.1898 -0.1459
48142W        W91080  29.287  28.140   2.947  0.2368 -0.1180  0.0391
48143W        W91081  29.461  29.412   1.098  0.1706  0.0401  0.1569
48144W        W91082  27.535  28.612   1.934 -0.0893  0.2275 -0.0792
48145W        W91083  29.903  28.153   0.128  0.1232 -0.1133  0.0386
48146W        W91084  29.213  24.249   1.513 -0.0669 -0.2862  0.3069
48147W        W91085  30.699  28.344   2.165 -0.0336  0.0451 -0.2345
48148W        W91086  29.645  26.157   1.567  0.0170  0.3261 -0.1943
48149W        W91087  28.312  28.096   1.897 -0.0864  0.1651 -0.0034
48150W        W91088  33.425  25.425   0.399 -0.0257  0.0919  0.1232
48151W        W91089  29.587  27.802   0.246 -0.1691  0.2050  0.1880
48152W        W91090  32.711  28.227   1.903 -0.3729 -0.1624 -0.1965
48153W        W91091  30.284  25.933   1.510 -0.2698 -0.1030 -0.1360
48154W        W91092  32.203  27.781   0.260  0.4782  0.1194 -0.1072
48155W        W91093  30.239  28.284   0.589  0.0306 -0.2041 -0.0305
48156W        W91094  29.565  26.441   2.706 -0.1939 -0.1519  0.1504
48157W        W91095  31.033  26.603   2.826 -0.0403 -0.2349  0.0919
48158W        W91096  29.087  25.411   2.572  0.2203  0.0423  0.2446
48159W        W91097  32.091  27.062   3.135 -0.0034 -0.3760  0.2039
48160W        W91098  28.985  27.084   1.417 -0.0250 -0.2239 -0.4497
48161W        W91099  31.262  27.584   2.029 -0.0201  0.2112  0.0065
48162W        W91100  28.361  29.761  31.407 -0.2667 -0.2240  0.1074
48163W        W91101  32.038  26.432   1.650  0.1996 -0.0937 -0.0040
48164W        W91102  31.160  29.199   0.581 -0.0977  0.0867 -0.1466
48165W        W91103  32.515  27.950   2.759  0.0169  0.3309  0.0388
48166W        W91104  32.405  28.146   2.280 -0.0207 -0.1835 -0.0309
48167W        W91105  29.064  25.992   3.357  0.0132  0.0983 -0.2598
48168W        W91106  29.375  27.418   0.811  0.3103 -0.1530 -0.0183
48169W        W91107  28.513  29.203   1.238 -0.0121  0.1192  0.0384
48170W        W91108  30.102  28.321   1.366 -0.1404  0.1107  0.2486
48171W        W91109  30.491  27.007   0.979 -0.0235 -0.2519 -0.2871
48172W        W91110  33.699  28.262   1.613 -0.0199  0.0088  0.2444
48173W        W91111  30.690  26.818   0.127 -0.1113  0.0370 -0.0149
48174W        W91112  29.223  28.821   3.606  0.1389 -0.1808 -0.1101
48175W        W91113  30.723  25.845   2.604  0.1539 -0.1309  0.3501
48176W        W91114  31.578  27.696   2.565  0.2126 -0.2937  0.0754
48177W        W91115  30.350  27.784   0.691 -0.0348 -0.0127  0.2380
48178W        W91116  27.958  26.511  31.672  0.1509 -0.1056 -0.0475
48179W        W91117  31.183  29.451   1.890 -0.0047  0.2824 -0.0927
48180W        W91118  28.627  29.602   1.480 -0.0231 -0.0547 -0.5099
48181W        W91119  28.051  28.571   2.094 -0.2109 -0.1722 -0.0444
48182W        W91120  30.295  29.911   1.277  0.1423 -0.2432  0.4077
48183W        W91121  30.653  26.274   1.366  0.0399  0.1084  0.1159
48184W        W91122  28.644  25.012   3.819 -0.1153 -0.0448 -0.1843
48185W        W91123  31.601  27.435   3.034 -0.1009  0.1418 -0.1342
48186W        W91124  30.014  26.812   0.145  0.0185  0.2448  0.0091
48187W        W91125  29.563  28.231   1.952 -0.2511  0.1688 -0.1289
48188W        W91126  30.946  26.132   0.919 -0.1296  0.0254 -0.2373
48189W        W91127  31.810  26.045   0.960  0.0224 -0.2379  0.0842
48190W        W91128  30.892  27.647   2.422 -0.1110  0.2086 -0.3109
48191W        W91129  31.657  27.052   0.154 -0.3121 -0.0887  0.2279
48192W        W91130  30.159  26.015  31.864 -0.3586  0.0858  0.0797
48193W        W91131  31.526  24.251  31.635 -0.4248  0.4121  0.1178
48194W        W91132  28.526  27.912   3.032 -0.1158  0.1013  0.0764
48195W        W91133  31.081  28.686   0.545 -0.0601  0.2713  0.2010
48196W        W91134  31.278  28.886   1.854  0.1895 -0.1752 -0.0643
48197W        W91135  30.279  27.278   0.127  0.2488 -0.1849  0.3764
48198W        W91136  31.665  28.508   1.931 -0.0486  0.0437 -0.0065
48199W        W91137  28.214  27.026   2.050 -0.3909  0.2833  0.0782
48200W        W91138  29.798  27.986   3.576 -0.2560 -0.3210  0.2917
48201W        W91139  30.905  28.594   1.367  0.0364  0.0125 -0.1255
48202W        W91140  29.699  25.094   2.482 -0.2713  0.2130 -0.0761
48203W        W91141  28.691  27.487  29.916 -0.1812  0.1036  0.0193
48204W        W91142  29.720  26.022   2.944 -0.2045 -0.1105 -0.2834
48205W        W91143  28.219  30.613  31.384  0.2988  0.3921 -0.2231
48206W        W91144  32.527  26.422   1.571  0.0525 -0.1241 -0.1572
48207W        W91145  29.395  26.401   1.863  0.1404  0.0829 -0.1648
48208W        W91146  30.809  26.475   1.772 -0.1044 -0.2615 -0.2270
48209W        W91147  32.495  27.737   3.778  0.0563  0.0685 -0.1223
48210W        W91148  30.884  27.827   0.097  0.2235 -0.0578 -0.1355
48211W        W91149  31.117  28.357   1.856 -0.3121 -0.2299 -0.2177
48212W        W91150  28.796  25.389   0.193 -0.0248 -0.1904  0.2063
48213W        W91151  29.806  25.512   4.842 -0.1549  0.0727  0.1573
48214W        W91152  30.106  26.874   2.426  0.2770  0.1059 -0.1345
48215W        W91153  29.798  29.556   2.349  0.5289 -0.2378 -0.1036
48216W        W91154  31.922  28.821   2.701 -0.1411 -0.1448  0.3872
48217W        W91155  30.400  27.734  31.860  0.0903 -0.1746  0.0100
48218W        W91156  30.543  25.822   4.528  0.4531  0.0180 -0.3341
48219W        W91157  30.439  26.389   0.136  0.1891  0.4087 -0.3172
48220W        W91158  28.099  29.728   1.533 -0.1311  0.2213  0.1974
48221W        W91159  30.562  28.668   0.358  0.2091  0.3659 -0.1410
48222W        W91160  29.241  25.338   1.084 -0.0788 -0.1824  0.0319
48223W        W91161  29.690  30.053   1.949  0.0536  0.3848 -0.0049
48224W        W91162  30.602  28.846  31.826  0.0714  0.0760 -0.1075
48225W        W91163  29.420  28.204   1.418 -0.0032 -0.2023  0.0332
48226W        W91164  28.887  29.020   1.570 -0.0813 -0.0840 -0.0425
48227W        W91165  31.952  25.551   1.217 -0.0680  0.0292  0.0964
48228W        W91166  28.914  28.592   2.467  0.0642 -0.0789 -0.1907
48229W        W91167  29.478  28.180  31.111  0.1627 -0.0290  0.2054
48230W        W91168  28.117  27.975   1.426  0.0732  0.1332  0.1184
48231W        W91169  31.286  25.758   1.774 -0.0234 -0.1198 -0.0573
48232W        W91170  31.860  26.400  31.438 -0.3766 -0.0618  0.0451
48233W        W91171  29.336  26.032   2.458 -0.0480  0.0972 -0.0773
48234W        W91172  30.290  26.041   3.407  0.1017  0.0100 -0.0827
48235W        W91173  29.302  29.820   2.222  0.2657  0.1995  0.0350
48236W        W91174  32.016  27.965   2.712 -0.0200  0.3307 -0.1990
48237W        W91175  32.352  25.637  31.362 -0.2077  0.0443  0.0064
48238W        W91176  32.901  28.303   2.413 -0.1874 -0.2140 -0.1356
48239W        W91177  28.520  27.107   2.509  0.1487 -0.1268 -0.0017
48240W        W91178  28.787  27.850   0.585  0.0024 -0.0286 -0.0598
48241W        W91179  32.017  26.870   2.329  0.1701 -0.2655 -0.0355
48242W        W91180  30.832  26.472   0.497 -0.1157 -0.2190 -0.2821
48243W        W91181  28.411  28.778   0.927 -0.1665  0.1029 -0.1055
48244W        W91182  31.823  28.979   2.076  0.1744  0.0473  0.2309
48245W        W91183  30.394  27.644  31.317 -0.0233  0.1360  0.0819
48246W        W91184  28.847  28.036   2.698 -0.0858  0.0583  0.2548
48247W        W91185  29.176  26.412   3.658  0.3343  0.1833 -0.0434
48248W        W91186  31.939  27.902   2.164 -0.2135  0.1282  0.1415
48249W        W91187  30.004  27.843   2.620  0.1735  0.0164 -0.0789
48250W        W91188  29.904  25.571   1.635  0.0310  0.0423 -0.0479
48251W        W91189  29.825  29.095   1.207 -0.0753  0.0659  0.2144
48252W        W91190  31.240  26.671   1.760 -0.3640 -0.3240  0.0390
48253W        W91191  30.842  27.292   2.767 -0.0940 -0.0006 -0.0177
48254W        W91192  28.981  27.628   3.022  0.1258 -0.0909  0.1403
48255W        W91193  31.736  25.575   1.808  0.1481 -0.0778  0.2550
48256W        W91194  31.967  29.771  31.118 -0.1011 -0.1092 -0.0149
48257W        W91195  31.943  27.823   3.304  0.3095 -0.0408 -0.4066
48258W        W91196  30.222  27.285   0.616  0.2160  0.2685  0.0939
48259W        W91197  29.504  27.710   1.293 -0.0678  0.4623  0.0404
48260W        W91198  29.275  28.950   1.217  0.0563  0.0489 -0.2433
48261W        W91199  29.875  25.074   1.364 -0.0318 -0.0334 -0.1171
48262W        W91200  29.404  28.643   1.711 -0.1067  0.3297  0.2664
48263W        W91201  27.405  29.554  30.850 -0.3558  0.2434  0.1234
48264W        W91202  30.497  28.311   1.650 -0.1220  0.1097 -0.1577
48265W        W91203  31.297  25.595  31.523  0.2931 -0.1285 -0.0738
48266W        W91204  31.182  27.738  30.674 -0.1067  0.0223 -0.4269
48267W        W91205  30.841  26.639   1.019  0.0780  0.4924  0.0292
48268W        W91206  32.483  26.081   2.758 -0.0291  0.0570 -0.3406
48269W        W91207  31.722  27.525   0.266 -0.5133 -0.0083  0.1468
48270W        W91208  31.853  25.571   3.467 -0.1810 -0.1599 -0.0526
48271W        W91209  28.910  27.114   3.068 -0.0012 -0.2592 -0.1869
48272W        W91210  31.549  28.749   1.462 -0.0318 -0.1788  0.1479
48273W        W91211  29.753  26.879   2.754 -0.3722 -0.2135  0.0720
48274W        W91212  30.607  28.192   3.914 -0.0103  0.2630  0.5442
48275W        W91213  28.520  28.593   2.889  0.0070  0.2414 -0.0347
48276W        W91214  30.950  26.232   0.059  0.2699  0.1630  0.4494
48277W        W91215  27.637  27.912   0.406 -0.0294  0.0108  0.4144
48278W        W91216  29.681  28.598   1.284 -0.2546 -0.0994  0.4619
48279W        W91217  31.363  27.212   2.645  0.1990  0.0262  0.3206
48280W        W91218  31.507  28.891  31.835  0.0388 -0.0675 -0.0522
48281W        W91219  30.370  27.324   2.572  0.0437  0.1922 -0.1157
48282W        W91220  29.778  27.811   2.091 -0.0029  0.1446 -0.0312
48283W        W91221  30.864  26.936   1.879  0.1217 -0.0721  0.1818
48284W        W91222  30.047  26.533  31.743 -0.2160  0.0297 -0.1472
48285W        W91223  29.408  29.027   0.777 -0.0089 -0.0709  0.0633
48286W        W91224  29.085  25.270   3.731 -0.0571  0.0076 -0.0671
48287W        W91225  32.280  27.517   1.469  0.1583  0.1671 -0.1473
48288W        W91226  29.952  25.992   1.923  0.1996  0.0799  0.0510
48289W        W91227  31.279  27.601   3.423 -0.1065  0.0525  0.1949
48290W        W91228  31.074  26.189   2.590 -0.3716  0.4866  0.0150
48291W        W91229  30.480  27.410   3.084 -0.2176 -0.1514 -0.3845
48292W        W91230  28.317  27.410   3.590 -0.1297  0.3052  0.0634
48293W        W91231  32.549  29.037   3.277  0.1228  0.0881 -0.3128
48294W        W91232  31.627  25.135  31.648 -0.0329 -0.0263  0.2097
48295W        W91233  31.421  27.033   2.147 -0.0137  0.1671 -0.2334
48296W        W91234  31.872  27.268   1.390 -0.3451  0.0116  0.1690
48297W        W91235  31.321  26.684   0.099 -0.1478  0.0817  0.0361
48298W        W91236  28.935  26.555   1.770 -0.0659  0.0579  0.1930
48299W        W91237  31.025  27.082   3.613 -0.2464 -0.2061  0.1058
48300W        W91238  29.092  27.424   0.376 -0.1679  0.3094 -0.1053
48301W        W91239  31.360  25.298   1.976 -0.1453 -0.3079 -0.0210
48302W        W91240  30.103  28.057  31.412 -0.1131  0.3368 -0.1941
48303W        W91241  31.211  28.557   2.281  0.1717 -0.2967  0.0186
48304W        W91242  29.145  25.708   1.540 -0.1293  0.0331  0.0589
48305W        W91243  29.871  27.976   1.625 -0.3683 -0.2320  0.1119
48306W        W91244  29.526  28.935   3.996 -0.0387  0.3187  0.1802
48307W        W91245  28.776  26.787  30.443 -0.2058 -0.0531 -0.2669
48308W        W91246  29.842  27.262   0.996  0.0880  0.1389  0.2793
48309W        W91247  30.058  29.102   2.077  0.1255 -0.1484  0.2071
48310W        W91248  33.307  27.835   3.599  0.2652  0.2669  0.3320
48311W        W91249  29.611  25.859   0.680  0.2253  0.0622 -0.2559
48312W        W91250  30.883  26.634   3.793 -0.1393  0.0653  0.2358
48313W        W91251  28.012  28.836   0.631  0.0778 -0.0043  0.0491
48314W        W91252  31.022  27.280   0.930 -0.1374  0.0469 -0.0638
48315W        W91253  29.647  29.094   2.589  0.1876 -0.0749 -0.1782
48316W        W91254  28.541  27.418   2.912  0.3143 -0.1539  0.1167
48317W        W91255  29.791  29.297   0.722  0.0318  0.2330 -0.2478
48318W        W91256  31.039  26.632   2.289  0.1732 -0.0841  0.2113
48319W        W91257  30.896  27.910   1.943 -0.3926  0.4308  0.2284
48320W        W91258  30.314  27.835   2.175 -0.1606  0.4618 -0.0177
48321W        W91259  32.981  25.915   2.922  0.0256  0.1909  0.0631
48322W        W91260  30.572  27.815   2.728  0.0832 -0.2328 -0.1293
48323W        W91261  30.122  28.739   1.717  0.1131 -0.1002 -0.0665
48324W        W91262  31.515  28.399   2.762  0.1819  0.0722 -0.1836
48325W        W91263  32.197  27.429   1.964  0.2790 -0.1783  0.3724
48326W        W91264  28.948  28.825   2.030  0.1141  0.0063 -0.0173
48327W        W91265  28.665  26.766   2.136  0.0468  0.3751 -0.0252
48328W        W91266  29.798  27.012   3.262 -0.2149 -0.0481  0.0566
48329W        W91267  31.574  27.571   1.124  0.2023  0.3473 -0.1259
48330W        W91268  29.704  26.827   1.720 -0.1922  0.1512  0.0859
48331W        W91269  29.216  27.926  31.472  0.2879  0.1708  0.2060
48332W        W91270  27.655  27.711   3.078  0.1401 -0.0508 -0.1132
48333W        W91271  29.651  27.521   1.712  0.1527  0.0255 -0.1498
48334W        W91272  29.207  29.962   1.751 -0.1227  0.2833 -0.1638
48335W        W91273  32.204  27.244   1.020 -0.0020 -0.1391 -0.1021
48336W        W91274  31.796  27.202   0.740 -0.0568  0.0394  0.0746
48337W        W91275  32.841  28.761   2.659  0.1360 -0.0902 -0.0041
48338W        W91276  30.708  27.274   0.496  0.1132 -0.0354  0.1533
48339W        W91277  28.985  29.332   1.098 -0.3140  0.0542  0.0930
48340W        W91278  29.114  29.681   0.186  0.2425  0.0881 -0.1640
48341W        W91279  30.148  28.978  31.531  0.2714 -0.1041 -0.0871
48342W        W91280  29.887  30.199   1.487 -0.0119 -0.0632 -0.0277
48343W        W91281  32.193  29.415   2.762  0.1166 -0.2126  0.4387
48344W        W91282  31.044  27.038  31.750  0.2273 -0.2886 -0.3741
48345W        W91283  31.168  28.085   2.509  0.0980  0.0730 -0.3437
48346W        W91284  31.501  27.156  31.645  0.0068 -0.0237 -0.1237
48347W        W91285  31.551  28.052   3.479 -0.1734  0.1822  0.3372
48348W        W91286  29.612  27.780   3.027 -0.0845  0.4778 -0.1973
48349W        W91287  29.365  26.465  31.479 -0.2041  0.0515  0.0331
48350W        W91288  28.713  27.708   3.473  0.2661  0.1073  0.0101
48351W        W91289  33.074  26.278   2.566  0.0160  0.5831 -0.1333
48352W        W91290  29.028  28.713   3.059 -0.3791 -0.1531 -0.0656
48353W        W91291  33.569  27.634   0.313  0.1577 -0.0187 -0.3116
48354W        W91292  28.643  27.380   0.575 -0.1276 -0.0023  0.0438
48355W        W91293  31.940  27.677   0.721  0.4193 -0.2767  0.1620
48356W        W91294  32.212  25.961   1.536  0.0402 -0.1754  0.0321
48357W        W91295  30.345  28.313  31.800  0.3332 -0.0256  0.0819
48358W        W91296  30.342  28.301   2.534 -0.0492 -0.2733 -0.1571
48359W        W91297  30.258  30.448   0.388 -0.0373  0.1726 -0.0672
48360W        W91298  29.395  29.193   2.156 -0.0609 -0.3648  0.1148
48361W        W91299  29.273  28.241   2.464 -0.1715  0.1557 -0.4504
48362W        W91300  28.507  26.846   1.517 -0.1125 -0.0137 -0.2051
48363W        W91301  31.642  25.654   0.697 -0.0213  0.0773  0.1779
48364W        W91302  29.344  26.309   3.153  0.0043 -0.1904 -0.0080
48365W        W91303  33.121  25.442   3.280  0.2540 -0.1379  0.2761
48366W        W91304  29.372  27.390   2.189  0.1055  0.1624 -0.1494
48367W        W91305  30.428  26.792  31.393  0.1225 -0.2740 -0.0885
48368W        W91306  29.812  28.292   2.428  0.1204  0.0531 -0.0057
48369W        W91307  29.798  27.193   2.044 -0.0040 -0.0704 -0.1050
48370W        W91308  30.311  25.529  31.060 -0.0311  0.2332  0.0313
48371W        W91309  32.218  28.618   3.183  0.0014  0.1594 -0.3284
48372W        W91310  31.974  26.854  31.643 -0.1467  0.1433 -0.1670
48373W        W91311  33.343  28.294   3.262  0.1922  0.1105 -0.0527
48374W        W91312  28.617  26.340   1.424 -0.1110  0.0238  0.1512
48375W        W91313  29.758  26.326   0.613 -0.1472 -0.1380  0.0386
48376W        W91314  29.213  27.869   2.057 -0.4489 -0.0900 -0.0807
48377W        W91315  30.131  26.396   2.487  0.1593 -0.2331 -0.2617
48378W        W91316  33.005  27.886   2.635  0.0243  0.3239  0.1492
48379W        W91317  30.106  25.526   1.232  0.1435  0.1277  0.2187
48380W        W91318  33.068  26.221   1.376 -0.0328 -0.4252  0.3408
48381W        W91319  32.521  27.171   2.275  0.2682 -0.0939  0.4796
48382W        W91320  31.077  28.350   0.991 -0.2568 -0.1344 -0.2086
48383W        W91321  31.738  27.374   2.162  0.0745 -0.2326 -0.1033
48384W        W91322  31.479  29.631   1.393  0.0213  0.0573  0.0466
48385W        W91323  28.546  27.244   1.144 -0.0173 -0.0958 -0.0377
48386W        W91324  32.059  30.642   1.469 -0.2729  0.2766  0.0044
48387W        W91325  34.182  28.425   2.040  0.2323 -0.3033  0.2541
48388W        W91326  29.730  26.202   0.094 -0.0025  0.0341 -0.3449
48389W        W91327  30.505  27.277   1.512  0.0933  0.1164  0.1948
48390W        W91328  28.423  28.736   1.404  0.0681 -0.1030 -0.0570
48391W        W91329  30.664  27.479   1.966 -0.0191  0.3558 -0.1038
48392W        W91330  32.635  26.671   2.391  0.1719  0.3369 -0.2246
48393W        W91331  30.917  29.519   0.146 -0.3350  0.0590 -0.0341
48394W        W91332  31.440  25.498   3.129  0.0741  0.0445 -0.1110
48395W        W91333  30.098  28.297   2.032 -0.1509 -0.0904  0.0217
48396W        W91334  29.954  28.719   4.193  0.3510  0.2468 -0.0087
48397W        W91335  28.562  29.677   0.766  0.1380  0.1471 -0.2274
48398W        W91336  31.563  27.020   3.349  0.2746 -0.2889 -0.1781
48399W        W91337  30.749  28.249   0.635  0.1890  0.3409  0.0872
48400W        W91338  30.708  29.408   0.875 -0.0325 -0.1703 -0.1871
48401W        W91339  32.310  27.864   1.849  0.1539  0.1840  0.1251
48402W        W91340  30.529  27.784   1.593 -0.2434 -0.1723 -0.0791
48403W        W91341  32.736  27.773   2.236  0.1518  0.0074 -0.5251
48404W        W91342  30.137  25.155   3.272 -0.0418 -0.0285  0.0338
48405W        W91343  32.701  24.914   0.789  0.0787 -0.2121 -0.2003
48406W        W91344  30.742  25.976   1.765 -0.0822 -0.0795  0.3089
48407W        W91345  30.178  27.844   3.095  0.1182 -0.0713 -0.0430
48408W        W91346  29.375  29.057  31.273  0.1801 -0.1403  0.0182
48409W        W91347  29.653  27.340  30.646 -0.3801  0.1405  0.0893
48410W        W91348  28.947  28.869  31.389  0.0204  0.2457 -0.2395
48411W        W91349  30.966  25.019   3.068 -0.0352 -0.1325  0.1611
48412W        W91350  30.250  26.934   2.979  0.0906  0.1628 -0.0060
48413W        W91351  28.737  27.855   1.909 -0.1959 -0.1544 -0.2354
48414W        W91352  30.028  27.172   1.528 -0.2303  0.0182  0.2616
48415W        W91353  30.910  28.375   0.091 -0.0634 -0.1432 -0.4956
48416W        W91354  28.420  26.742   0.975  0.0712  0.1948  0.3210
48417W        W91355  30.482  28.081   1.059  0.1639 -0.0564  0.2048
48418W        W91356  31.262  27.483   0.097 -0.0995  0.0531  0.1929
48419W        W91357  32.868  27.543   0.216  0.2337 -0.1227 -0.0839
48420W        W91358  29.968  26.799   1.173  0.0553 -0.0450  0.1825
48421W        W91359  33.138  27.416   2.806 -0.0181 -0.3745  0.0580
48422W        W91360  28.706  28.770  31.838  0.0583 -0.3242  0.0703
48423W        W91361  31.481  25.727   2.214 -0.1120  0.1081 -0.1191
48424W        W91362  29.778  24.782   3.200 -0.4128 -0.2449 -0.0732
48425W        W91363  28.119  26.783   0.566 -0.0634  0.1027 -0.1061
48426W        W91364  30.226  25.958   2.883 -0.1751  0.1064 -0.0912
48427W        W91365  31.366  27.550   0.679  0.3584  0.1020  0.1455
48428W        W91366  32.125  28.360   1.159 -0.1078 -0.1308 -0.1875
48429W        W91367  30.977  27.664   2.997 -0.1292  0.1799 -0.3546
48430W        W91368  30.412  28.789   3.312 -0.0863 -0.1784 -0.2401
48431W        W91369  29.385  25.480   3.386  0.1308 -0.0770  0.1681
48432W        W91370  32.499  27.480   0.542 -0.0624 -0.0257  0.0446
48433W        W91371  28.122  29.096   4.077  0.1000  0.1834  0.0794
48434W        W91372  32.238  26.339   1.141 -0.0139  0.0468  0.3741
48435W        W91373  31.557  26.598   2.390  0.0016 -0.1421 -0.3353
48436W        W91374  31.105  26.219   1.498 -0.1623  0.0524 -0.1467
48437W        W91375  29.535  24.649   4.501 -0.2033  0.2307 -0.0782
48438W        W91376  29.165  27.917   3.367 -0.3248  0.4991 -0.1423
48439W        W91377  32.203  27.564   2.494  0.0015 -0.1221 -0.2443
48440W        W91378  31.628  25.698   0.034  0.2098  0.0129  0.1946
48441W        W91379  31.530  29.323   0.156  0.3088 -0.2824  0.1885
48442W        W91380  30.429  28.595   0.930 -0.0332 -0.0377 -0.1348
48443W        W91381  31.325  26.067  31.774  0.0055  0.0581 -0.2264
48444W        W91382  30.527  26.631   2.215  0.3208  0.1290  0.0071
48445W        W91383  31.518  28.041   0.950  0.0006 -0.3638  0.3853
48446W        W91384  31.411  27.976   3.010 -0.4835  0.0002 -0.3009
48447W        W91385  28.960  26.627  31.898 -0.0298 -0.1522 -0.1676
48448W        W91386  31.838  27.679   1.739  0.4305 -0.0125 -0.1905
48449W        W91387  29.993  28.727   2.576  0.1294  0.0779 -0.1018
48450W        W91388  31.570  29.346   3.007 -0.1573  0.0064 -0.0151
48451W        W91389  30.002  29.451   2.783  0.0378  0.2652  0.2296
48452W        W91390  33.412  27.128   2.492 -0.2597  0.0348  0.1386
48453W        W91391  29.704  23.575   2.250 -0.0739 -0.3298 -0.1944
48454W        W91392  29.837  27.773   0.694  0.1286  0.1426 -0.1477
48455W        W91393  31.042  27.879   0.995  0.0917  0.1348 -0.0821
48456W        W91394  30.349  26.326   1.759  0.2233 -0.1941 -0.2112
48457W        W91395  30.496  26.122   0.631  0.0441 -0.4553 -0.0270
48458W        W91396  30.540  25.871   1.064 -0.1252 -0.0613  0.0052
48459W        W91397  29.572  28.589   2.782  0.1744 -0.0461 -0.1433
48460W        W91398  31.038  27.537   1.419  0.1292  0.3341  0.1264
48461W        W91399  30.694  28.302   7.201 -0.2992  0.0206 -0.1758
48462W        W91400  29.493  25.275   5.130  0.0163 -0.2351  0.1300
48463W        W91401  31.868  25.615   2.821  0.0755  0.5306  0.1083
48464W        W91402  30.970  26.990   4.679  0.0444  0.1954  0.2298
48465W        W91403  28.546  25.889   5.047  0.0036  0.2341  0.2476
48466W        W91404  30.522  29.740   5.017  0.3454  0.0139  0.0160
48467W        W91405  29.162  25.409   7.096  0.3895  0.3755 -0.3135
48468W        W91406  30.887  28.786   5.394  0.2560  0.1583 -0.1026
48469W        W91407  31.380  30.302   5.344 -0.2172  0.0282 -0.4209
48470W        W91408  31.781  26.586   3.328 -0.1118 -0.2817 -0.3114
48471W        W91409  31.027  26.786   7.695  0.1409 -0.1359  0.0181
48472W        W91410  30.761  28.791   6.348 -0.1471  0.0402 -0.0769
48473W        W91411  29.011  26.207   2.780 -0.1358 -0.0256 -0.2181
48474W        W91412  29.747  26.089   6.656  0.0078  0.0481  0.2723
48475W        W91413  30.609  27.173   4.990 -0.4933  0.1173 -0.2494
48476W        W91414  27.543  28.897   5.114 -0.1827  0.0237  0.0278
48477W        W91415  28.132  28.014   5.273 -0.0090  0.0389  0.0895
48478W        W91416  30.118  27.220   4.753 -0.1706 -0.2547  0.0068
48479W        W91417  31.045  30.294   4.814  0.1747  0.1122  0.2858
48480W        W91418  30.585  26.004   7.299  0.1560 -0.1004 -0.1265
48481W        W91419  31.106  26.975   6.239  0.0997 -0.4326 -0.1868
48482W        W91420  29.702  28.215   4.449 -0.0207 -0.2045  0.2167
48483W        W91421  28.562  26.184   3.446 -0.3227  0.2251 -0.0274
48484W        W91422  28.713  26.686   3.754  0.0101  0.1701 -0.1420
48485W        W91423  29.402  27.337   5.964  0.0066  0.2004  0.1170
48486W        W91424  31.371  26.835   4.443  0.1162 -0.2122 -0.0307
48487W        W91425  31.887  27.959   4.843 -0.2806 -0.2114 -0.2530
48488W        W91426  30.921  27.624   5.654  0.0961 -0.6238 -0.0858
48489W        W91427  30.102  27.237   3.963  0.0246 -0.1394 -0.0128
48490W        W91428  31.158  27.808   5.282 -0.1495  0.0518  0.0843
48491W        W91429  29.081  27.904   4.456 -0.3775 -0.1168 -0.1663
48492W        W91430  27.791  29.338   4.977 -0.0280  0.1886  0.2958
48493W        W91431  29.710  28.274   4.971 -0.3510  0.1500  0.1219
48494W        W91432  32.092  28.871   3.570  0.1351  0.0639 -0.0110
48495W        W91433  32.076  28.903   6.339 -0.1586  0.0850  0.1089
48496W        W91434  29.897  29.276   5.710 -0.2620  0.0687 -0.0717
48497W        W91435  28.505  27.696   4.000 -0.0177  0.0209 -0.1907
48498W        W91436  30.694  29.393   7.213  0.0914  0.1275 -0.0946
48499W        W91437  30.480  28.928   7.219  0.0222 -0.0148  0.2465
48500W        W91438  30.522  26.717   4.746  0.1485  0.2445  0.3793
48501W        W91439  31.940  27.445   4.912  0.1301  0.2549 -0.0324
48502W        W91440  28.976  27.441   4.599  0.0212 -0.0925  0.3866
48503W        W91441  31.438  27.725   4.849  0.1874  0.0637  0.3377
48504W        W91442  30.191  29.291   6.952 -0.0613  0.2466  0.0418
48505W        W91443  28.375  28.490   4.910  0.1083 -0.0832 -0.3551
48506W        W91444  31.166  25.812   5.697  0.1615 -0.1995 -0.1795
48507W        W91445  30.392  29.073   4.349  0.0621  0.0648  0.1033
48508W        W91446  30.367  26.456   0.965 -0.0149  0.0237 -0.1482
48509W        W91447  31.527  26.295   1.881 -0.1686 -0.2722 -0.0674
48510W        W91448  31.147  27.095   3.140 -0.1109 -0.1186 -0.0772
48511W        W91449  29.981  26.419   4.895  0.2547  0.2065  0.0382
48512W        W91450  28.541  28.091   5.832  0.1613 -0.1380  0.1022
48513W        W91451  28.585  26.863   6.515  0.2071 -0.3826 -0.2098
48514W        W91452  31.556  28.284   6.167 -0.0229 -0.3960 -0.4616
48515W        W91453  30.210  27.300   3.476 -0.1334 -0.1141  0.2500
48516W        W91454  29.497  26.430   4.714 -0.0103 -0.1991  0.0887
48517W        W91455  30.435  27.513   5.812 -0.0287 -0.2324 -0.4212
48518W        W91456  27.716  26.739   4.888  0.0243  0.0385 -0.2075
48519W        W91457  31.832  28.339   4.512  0.1414 -0.2134  0.3163
48520W        W91458  31.429  28.207   5.033 -0.0032 -0.1526  0.1037
48521W        W91459  29.953  28.960   3.095 -0.0177  0.0797  0.1135
48522W        W91460  29.522  27.078   4.686  0.1443 -0.0742  0.0705
48523W        W91461  29.433  27.218   7.153 -0.0583  0.2009 -0.1473
48524W        W91462  30.116  27.395   7.351  0.0717 -0.0400  0.0151
48525W        W91463  29.994  24.843   3.682 -0.1610  0.0370 -0.1151
48526W        W91464  33.764  29.245   6.281 -0.0297 -0.1048 -0.2068
48527W        W91465  27.972  28.262   6.589  0.0076 -0.0461 -0.1035
48528W        W91466  30.733  25.345   4.527 -0.2885  0.0435  0.2162
48529W        W91467  29.796  28.753   6.092  0.2885  0.2425  0.2423
48530W        W91468  31.298  27.927   5.831 -0.0391  0.1279  0.0991
48531W        W91469  32.620  27.665   3.301  0.0034 -0.3090  0.1470
48532W        W91470  30.801  25.161   6.297 -0.3401  0.0171 -0.1857
48533W        W91471  30.505  26.256   6.396  0.0471 -0.0311  0.0313
48534W        W91472  30.291  27.616   4.260  0.1615  0.0510  0.0340
48535W        W91473  30.415  26.503   3.111 -0.2284 -0.0192  0.0907
48536W        W91474  32.373  29.285   6.580  0.1229  0.0885 -0.0356
48537W        W91475  31.077  27.131   4.103 -0.2149  0.2265 -0.3579
48538W        W91476  29.442  28.694   5.109 -0.2455  0.0469 -0.0829
48539W        W91477  30.101  26.375   6.679 -0.3465  0.0736  0.0926
48540W        W91478  32.474  28.653   7.771 -0.2519  0.1077  0.0059
48541W        W91479  28.540  28.630   4.125  0.1731 -0.0829 -0.0563
48542W        W91480  28.965  28.084   5.490 -0.2055  0.1837  0.2341
48543W        W91481  29.021  27.534   3.953  0.2249 -0.1002  0.0627
48544W        W91482  29.135  25.027   6.118 -0.4399  0.0791 -0.0074
48545W        W91483  29.803  27.964   6.115  0.1661 -0.0617  0.3162
48546W        W91484  30.711  26.337   3.480 -0.1090  0.1864 -0.0842
48547W        W91485  30.444  26.715   6.183  0.0466 -0.0316 -0.1843
48548W        W91486  31.436  25.881   4.315  0.2350 -0.1214  0.2444
48549W        W91487  28.816  27.887   4.961  0.1827 -0.2665 -0.1579
48550W        W91488  30.825  29.113   3.434 -0.0963 -0.0887 -0.1753
48551W        W91489  32.226  26.642   4.481 -0.1665 -0.3802 -0.1257
48552W        W91490  30.126  26.694   3.500  0.1635  0.0374 -0.0987
48553W        W91491  29.186  27.665   5.369  0.3162 -0.1414  0.0761
48554W        W91492  29.590  27.223   5.490  0.2304 -0.0118  0.1879
48555W        W91493  29.796  27.295   8.825 -0.2029  0.0370 -0.4626
48556W        W91494  29.620  26.925   6.180 -0.1654  0.1153 -0.2530
48557W        W91495  32.619  28.341   6.501 -0.0271 -0.1250  0.1813
48558W        W91496  28.767  25.657   4.041 -0.1519  0.4217  0.1678
48559W        W91497  32.072  27.104   5.193 -0.4798 -0.0659 -0.0246
48560W        W91498  29.896  27.769   4.635 -0.3512 -0.1487 -0.0625
48561W        W91499  28.343  28.177   4.178  0.0203 -0.1311 -0.2213
48562W        W91500  31.478  26.450   5.610 -0.2714  0.2503 -0.2011
48563W        W91501  29.525  29.586   2.764 -0.2129 -0.2922  0.0634
48564W        W91502  33.628  28.632   7.014 -0.2643 -0.0039 -0.1434
48565W        W91503  30.657  29.304   5.186 -0.1041 -0.3906 -0.1591
48566W        W91504  30.066  25.829   6.972  0.0724  0.2199  0.1289
48567W        W91505  30.702  25.955   5.913  0.0287  0.4403 -0.1793
48568W        W91506  28.411  30.614   5.986 -0.1712  0.1038  0.1272
48569W        W91507  31.373  28.790   5.735 -0.2366  0.0773  0.0695
48570W        W91508  30.345  26.304   4.466 -0.1504  0.0218 -0.1121
48571W        W91509  31.025  29.818   4.969 -0.3176  0.2082 -0.0016
48572W        W91510  31.837  28.431   3.563 -0.0351 -0.0298 -0.2823
48573W        W91511  29.482  27.994   6.521  0.1062  0.1232 -0.0755
48574W        W91512  30.987  26.884   6.873 -0.1349  0.3409  0.0973
48575W        W91513  29.389  27.751   4.829 -0.1774  0.5834 -0.0672
48576W        W91514  31.921  26.982   3.713  0.2790  0.0304 -0.4556
48577W        W91515  29.155  26.825   3.412 -0.2371 -0.1646  0.2838
48578W        W91516  30.901  28.911   4.387  0.0308  0.0768  0.0729
48579W        W91517  27.665  28.721   4.108 -0.0035  0.0089  0.3273
48580W        W91518  28.394  26.445   5.215  0.0902  0.1543 -0.2342
48581W        W91519  30.756  27.598   5.200  0.1705  0.2269  0.4774
48582W        W91520  33.009  25.344   5.034 -0.0040  0.0259  0.0940
48583W        W91521  28.315  26.675   8.349 -0.0506 -0.2474  0.3219
48584W        W91522  30.614  27.132   7.118  0.1469  0.1498 -0.0693
48585W        W91523  29.470  26.230   4.045  0.0126  0.0323  0.3893
48586W        W91524  29.731  27.890   7.311  0.3258  0.4301  0.0052
48587W        W91525  30.916  25.334   5.022  0.0543 -0.0918  0.3004
48588W        W91526  31.823  26.708   4.177  0.2598  0.0220  0.1572
48589W        W91527  30.684  27.785   7.138 -0.0698  0.3231  0.1496
48590W        W91528  32.441  29.518   3.198  0.0152  0.0969 -0.2211
48591W        W91529  30.833  26.704   4.272  0.1624  0.1559 -0.3240
48592W        W91530  31.096  26.151   3.710 -0.2982  0.1064  0.4202
48593W        W91531  28.288  27.269   6.155 -0.1153 -0.0350  0.1671
48594W        W91532  31.056  28.126   4.164 -0.3202 -0.1805 -0.2029
48595W        W91533  30.197  27.863   7.124  0.0394 -0.1501  0.1236
48596W        W91534  29.594  26.055   3.528  0.1713  0.0599  0.3246
48597W        W91535  31.431  28.637   4.744  0.0005 -0.1627 -0.1234
48598W        W91536  28.305  27.630   4.979  0.1691 -0.0154 -0.4731
48599W        W91537  30.680  27.121   5.546 -0.0916  0.1694 -0.0081
48600W        W91538  30.796  29.347   4.680  0.0555  0.1099  0.1457
48601W        W91539  30.471  25.455   6.542  0.1544  0.2530  0.1116
48602W        W91540  30.663  26.933   3.297  0.2683  0.1631 -0.1002
48603W        W91541  29.457  25.751   5.451  0.0147 -0.1590 -0.1525
48604W        W91542  28.701  28.309   4.490 -0.1779 -0.0516  0.1943
48605W        W91543  32.749  26.422   4.924  0.0855 -0.1561  0.0068
48606W        W91544  30.611  26.300   5.543 -0.0732 -0.1638  0.2882
48607W        W91545  29.710  26.190   7.189  0.1628 -0.1721 -0.4288
48608W        W91546  32.437  26.664   6.087  0.0929 -0.3752 -0.2947
48609W        W91547  31.127  26.615   3.368 -0.3743  0.0988 -0.1677
48610W        W91548  31.397  26.790   3.895  0.1203 -0.1572  0.2617
48611W        W91549  28.193  27.921   3.417  0.2629  0.0739 -0.1776
48612W        W91550  30.859  26.755   5.886  0.0406  0.2327  0.2759
48613W        W91551  30.168  26.909   7.461 -0.1676 -0.2955  0.1582
48614W        W91552  28.640  27.786   6.252 -0.1652 -0.1236 -0.0528
48615W        W91553  34.082  27.832   6.501 -0.2239  0.1485 -0.0371
48616W        W91554  30.468  28.532   4.295 -0.1463 -0.0929 -0.0859
48617W        W91555  31.289  24.913   6.991 -0.0699 -0.1132 -0.1497
48618W        W91556  29.859  25.009   4.736  0.0805  0.1898  0.1476
48619W        W91557  29.567  28.809   4.565 -0.1725 -0.1828 -0.2389
48620W        W91558  30.844  27.721   3.970  0.0834  0.1279  0.0950
48621W        W91559  30.857  25.707   6.310 -0.0962  0.0150  0.0132
48622W        W91560  31.180  28.416   6.526  0.0846 -0.3131 -0.1976
48623W        W91561  30.815  28.447   3.497 -0.1937  0.1163 -0.0048
48624W        W91562  30.758  27.652   6.244 -0.5013 -0.1911  0.0587
48625W        W91563  30.172  28.714   5.698  0.0714  0.1600  0.0972
48626W        W91564  30.898  24.221   6.440  0.2489 -0.0665  0.0458
48627W        W91565  28.597  27.804   5.376 -0.2035 -0.0205 -0.0097
48628W        W91566  30.443  26.477   3.840  0.0467 -0.0391 -0.3276
48629W        W91567  30.038  25.942   4.713  0.0301  0.0325  0.2211
48630W        W91568  30.790  27.446   4.370 -0.1304 -0.1111 -0.0003
48631W        W91569  31.719  28.138   4.042  0.2462 -0.0490  0.1146
48632W        W91570  29.044  26.912   4.494  0.0851 -0.1481  0.1210
48633W        W91571  30.420  26.147   4.922 -0.1234 -0.1115 -0.1584
48634W        W91572  28.998  28.595   5.400  0.1588  0.1889  0.1787
48635W        W91573  31.847  28.856   5.516 -0.3984  0.1172 -0.1035
48636W        W91574  31.529  24.592   5.222 -0.0203 -0.5457 -0.0265
48637W        W91575  32.247  29.355   5.980 -0.2369 -0.2287  0.3279
48638W        W91576  30.753  28.224   6.416 -0.1676  0.0142  0.1208
48639W        W91577  29.008  26.461   4.178  0.0742  0.2228  0.0992
48640W        W91578  32.635  26.273   6.363  0.0185  0.1645  0.0104
48641W        W91579  29.916  28.647   5.187 -0.1399  0.0152 -0.1094
48642W        W91580  29.244  28.188   5.104  0.1041  0.0581 -0.2751
48643W        W91581  30.936  28.370   4.572 -0.2525  0.2174  0.3535
48644W        W91582  29.344  27.284   4.251 -0.0480 -0.1996 -0.2151
48645W        W91583  30.216  28.283   5.238  0.1517  0.4045  0.0074
48646W        W91584  29.293  25.853   7.881 -0.0182  0.0493 -0.1636
48647W        W91585  32.289  28.794   5.280 -0.0035 -0.0251 -0.2173
48648W        W91586  29.684  26.488   5.690 -0.0261 -0.0508  0.2158
48649W        W91587  29.160  27.393   3.461 -0.0737  0.0183 -0.0276
48650W        W91588  31.204  27.335   5.933  0.2224  0.1600 -0.0846
48651W        W91589  30.323  27.915   5.608 -0.2810  0.1769 -0.0323
48652W        W91590  30.836  26.348   7.007  0.0835 -0.2751  0.0003
48653W        W91591  29.444  28.674   6.546 -0.0728 -0.1651 -0.2344
48654W        W91592  31.125  24.603   6.255  0.1771  0.1417 -0.1437
48655W        W91593  31.307  29.111   4.568  0.0478  0.1821 -0.0684
48656W        W91594  31.617  27.710   6.210  0.1550  0.2571 -0.0721
48657W        W91595  28.744  27.153   4.150 -0.0488  0.0290  0.0216
48658W        W91596  30.440  26.719   6.847  0.1305 -0.1081 -0.0807
48659W        W91597  30.104  27.131   6.035  0.0856 -0.1353  0.2871
48660W        W91598  30.234  26.116   5.958  0.0450  0.2926  0.1255
48661W        W91599  30.295  27.442   6.842  0.4421 -0.0868 -0.1108
48662W        W91600  28.158  28.429   5.813 -0.1486  0.1796  0.2435
48663W        W91601  29.386  27.892   5.811  0.3746  0.4652  0.1746
48664W        W91602  30.733  26.066   3.069 -0.4198 -0.2262  0.2396
48665W        W91603  30.277  27.748   3.687  0.1326  0.1262  0.1461
48666W        W91604  30.045  26.855   6.496  0.0205 -0.2464  0.0145
48667W        W91605  31.378  27.017   5.024 -0.4770  0.1891 -0.0248
48668W        W91606  32.292  27.340   3.517  0.0756  0.3962 -0.3215
48669W        W91607  31.271  25.790   7.986 -0.1810 -0.1626  0.1573
48670W        W91608  29.870  25.419   6.780 -0.0119 -0.2949  0.0092
48671W        W91609  30.393  27.649   4.734 -0.0324 -0.3521  0.0862
48672W        W91610  28.355  25.752   7.655  0.0396 -0.1604  0.1325
48673W        W91611  31.296  29.463   7.118  0.2493 -0.2064 -0.0744
48674W        W91612  29.524  27.598   8.494 -0.1432  0.0172  0.1001
48675W        W91613  29.740  27.446   5.080 -0.3936  0.0845  0.2290
48676W        W91614  29.263  24.558   3.306  0.2217 -0.1228  0.1363
48677W        W91615  30.623  27.127   6.062 -0.1343  0.2290 -0.1755
48678W        W91616  31.938  29.333   4.596 -0.1647  0.3258  0.0541
48679W        W91617  30.953  28.627   3.989 -0.2338  0.2531 -0.1091
48680W        W91618  31.834  26.307   4.537  0.0002  0.2054  0.0140
48681W        W91619  29.288  27.261   5.067  0.2563 -0.2685 -0.0359
48682W        W91620  31.513  27.296   4.576  0.0249  0.3157 -0.0410
48683W        W91621  31.146  29.538   4.357 -0.0138  0.0961  0.0650
48684W        W91622  30.562  28.803   4.833 -0.1120  0.0651  0.2292
48685W        W91623  29.534  25.237   7.995 -0.0257  0.1848  0.0678
48686W        W91624  30.561  27.019   3.822  0.2025  0.0466 -0.0995
48687W        W91625  29.642  26.606   3.554 -0.3205 -0.4422 -0.1837
48688W        W91626  31.122  27.273   5.374  0.0142 -0.2573  0.2079
48689W        W91627  32.202  27.062   5.698  0.0783 -0.1053  0.1629
48690W        W91628  31.225  27.552   6.967  0.0156 -0.1465 -0.1765
48691W        W91629  28.492  27.104   7.025  0.1258  0.2008  0.1128
48692W        W91630  31.226  28.924   6.210 -0.2709 -0.0103 -0.1145
48693W        W91631  32.528  27.306   4.233  0.2574 -0.1014 -0.0407
48694W        W91632  31.834  26.813   4.785  0.1668  0.0290 -0.1349
48695W        W91633  32.931  27.350   5.021 -0.1298  0.1244 -0.0344
48696W        W91634  31.587  26.307   3.619 -0.1826 -0.0030 -0.2509
48697W        W91635  30.733  27.516   3.515  0.1050  0.3286 -0.2790
48698W        W91636  32.898  27.773   5.900  0.2087 -0.0509  0.1058
48699W        W91637  30.452  25.588   3.173  0.2716  0.2061 -0.0069
48700W        W91638  31.138  27.943   6.321  0.1938 -0.1730 -0.0753
48701W        W91639  31.046  28.002   3.645 -0.0570 -0.3428 -0.3007
48702W        W91640  30.995  28.254   5.541  0.2539 -0.0191  0.2072
48703W        W91641  30.471  27.102   4.320 -0.0881  0.2586 -0.2967
48704W        W91642  27.686  25.988   5.291  0.4633 -0.1903 -0.1185
48705W        W91643  28.977  27.953   6.613  0.2468 -0.1062  0.2064
48706W        W91644  29.618  25.770   4.441  0.0017  0.0986 -0.0818
48707W        W91645  31.509  26.296   2.829  0.0199 -0.0080 -0.1113
48708W        W91646  31.928  28.150   7.102 -0.2815  0.0516  0.1673
48709W        W91647  33.006  27.557   6.930 -0.2032  0.2428 -0.2167
48710W        W91648  30.755  26.135   4.100  0.1387  0.2961  0.0275
48711W        W91649  31.490  26.954   6.830  0.1648  0.2240 -0.1170
48712W        W91650  27.948  28.721   4.859 -0.0845 -0.0339  0.0819
48713W        W91651  30.824  26.436   5.080  0.1249  0.1056  0.1043
48714W        W91652  30.233  28.921   6.159  0.1882  0.0563 -0.3237
48715W        W91653  28.933  27.045   7.888 -0.0568  0.0466 -0.0070
48716W        W91654  29.507  28.404   5.625 -0.3206  0.1110 -0.1956
48717W        W91655  30.801  26.620   6.537  0.2296 -0.0970  0.1635
48718W        W91656  31.561  27.265   4.027 -0.0343  0.0291  0.0481
48719W        W91657  29.667  27.982   5.376 -0.0189 -0.1733  0.0273
48720W        W91658  32.742  25.798   4.851  0.3815  0.0452 -0.1525
48721W        W91659  30.646  28.978   5.869 -0.2301  0.0834  0.0726
48722W        W91660  29.858  26.923   5.055  0.1918 -0.1918 -0.1386
48723W        W91661  31.015  29.017   7.309 -0.2615  0.0830  0.1778
48724W        W91662  31.482  30.034   4.835 -0.1429  0.2203  0.0407
48725W        W91663  30.021  27.925   6.615  0.1136  0.5217 -0.1063
48726W        W91664  29.361  26.842   8.146 -0.0468 -0.2409  0.1491
48727W        W91665  33.090  27.851   7.314  0.0188  0.2494  0.0167
48728W        W91666  31.412  28.813   5.214  0.1746 -0.0166 -0.4040
48729W        W91667  29.766  24.944   5.334  0.2080 -0.3350  0.3480
48730W        W91668  31.203  27.658   4.388 -0.0960 -0.1583 -0.2862
48731W        W91669  29.410  28.332   6.107 -0.2944  0.0196 -0.1395
48732W        W91670  28.139  26.640   5.652 -0.0844  0.1185  0.0473
48733W        W91671  29.327  29.856   5.007 -0.4074 -0.2606  0.2650
48734W        W91672  31.757  27.439   3.581 -0.0517  0.0856 -0.3066
48735W        W91673  29.838  27.319   4.320 -0.0937  0.1582  0.2689
48736W        W91674  30.980  29.308   6.132  0.1679  0.1800 -0.1081
48737W        W91675  29.857  26.296   4.348  0.0286  0.2111 -0.0380
48738W        W91676  29.647  28.923   5.511  0.0915  0.0233 -0.2810
48739W        W91677  30.355  28.625   3.821  0.1230  0.3140 -0.1518
48740W        W91678  31.706  29.306   3.515  0.2305  0.0425 -0.0875
48741W        W91679  30.455  30.011   5.505  0.3061  0.1239  0.1651
48742W        W91680  32.669  28.139   7.310 -0.3173  0.0527 -0.1231
48743W        W91681  31.326  24.907   4.177  0.0119 -0.0651  0.5274
48744W        W91682  31.921  26.582   5.307  0.2229  0.0203  0.0529
48745W        W91683  31.390  26.025   4.774 -0.2550 -0.0527  0.0817
48746W        W91684  32.376  28.193   9.622 -0.0241  0.0675  0.1090
48747W        W91685  29.522  27.071   6.641  0.0258 -0.3749 -0.0288
48748W        W91686  30.058  26.659   2.007  0.2867  0.1958  0.2480
48749W        W91687  29.317  27.536   6.710 -0.0331 -0.1013 -0.0758
48750W        W91688  31.649  24.888   6.026  0.1220 -0.0517 -0.3337
48751W        W91689  29.306  29.089   6.821  0.0109 -0.2502 -0.1871
48752W        W91690  31.253  28.504   3.298 -0.2347 -0.0951 -0.2447
48753W        W91691  29.766  25.852   3.961 -0.0107  0.1980  0.0499
48754W        W91692  30.327  27.934   6.178 -0.3292  0.1371 -0.0913
48755W        W91693  31.121  26.747   5.411  0.0869 -0.0666 -0.0556
48756W        W91694  30.659  27.909   3.277  0.0315  0.1050 -0.1026
48757W        W91695  31.503  28.347   5.602 -0.1130 -0.0703 -0.5437
48758W        W91696  30.882  29.762   5.429 -0.0007 -0.1530 -0.0028
48759W        W91697  29.680  27.491   6.368  0.0423  0.0530  0.2189
48760W        W91698  29.903  28.480   6.524  0.0242 -0.1423 -0.2785
48761W        W91699  29.190  25.727   4.804 -0.1524  0.2125 -0.1213
48762W        W91700  32.575  26.932   5.124  0.2003  0.1312 -0.2300
48763W        W91701  31.023  27.484   4.815 -0.2605  0.0915 -0.0560
48764W        W91702  31.045  26.369   4.629  0.1229 -0.0698  0.0927
48765W        W91703  30.125  28.211   4.038  0.3966  0.3641 -0.0370
48766W        W91704  32.308  25.842   3.155  0.2098 -0.1442 -0.2324
48767W        W91705  31.936  28.013   6.490 -0.0691  0.2028  0.2497
48768W        W91706  29.111  26.942   6.273 -0.1810 -0.2761  0.0932
48769W        W91707  30.643  26.884   2.623  0.0980  0.1502 -0.2230
48770W        W91708  32.412  28.426   5.612  0.2808 -0.2641 -0.2468
48771W        W91709  31.976  26.114   2.891  0.0797 -0.0309 -0.1115
48772W        W91710  32.774  29.334   7.004 -0.0997 -0.0883  0.1977
48773W        W91711  29.424  26.111   6.029 -0.0666 -0.1561 -0.0524
48774W        W91712  32.131  26.523   3.781  0.1475  0.1376  0.2035
48775W        W91713  29.243  28.399   4.510  0.2503  0.4751 -0.2122
48776W        W91714  31.470  26.843   5.940 -0.2001  0.0398 -0.4010
48777W        W91715  31.977  28.523   5.948  0.2263  0.3078 -0.1134
48778W        W91716  30.086  26.289   5.440  0.3539  0.2366 -0.0329
48779W        W91717  31.542  29.853   3.319  0.1009  0.0548 -0.0213
48780W        W91718  31.705  27.923   5.391  0.2156  0.1518 -0.3089
48781W        W91719  30.005  30.456   4.023  0.0513  0.1224 -0.2331
48782W        W91720  32.351  28.186   6.035 -0.1506 -0.3923  0.0298
48783W        W91721  30.545  28.389   5.584 -0.2118 -0.3193  0.0473
48784W        W91722  29.093  26.444   5.932 -0.2846  0.1992  0.0278
48785W        W91723  31.110  28.403   5.980  0.2752 -0.2911 -0.2744
48786W        W91724  32.412  28.869   5.765  0.0626 -0.2325  0.0958
48787W        W91725  29.982  26.287   3.800  0.1950 -0.0526  0.2684
48788W        W91726  30.104  26.744   4.068 -0.0269 -0.1237 -0.2214
48789W        W91727  28.805  29.148   5.612  0.1335  0.1131  0.0186
48790W        W91728  31.755  25.567   5.368  0.1104  0.2987 -0.3428
48791W        W91729  31.040  27.968   4.800  0.2338 -0.0148 -0.2286
48792W        W91730  31.390  28.598   4.258 -0.0255  0.1833  0.1543
48793W        W91731  31.408  25.404   6.991 -0.4483  0.2852 -0.3520
48794W        W91732  30.354  29.452   6.124  0.2290  0.1362 -0.1757
48795W        W91733  29.114  29.477   7.377 -0.3825 -0.0765  0.0458
48796W        W91734  28.742  27.115   3.538 -0.0256 -0.0706 -0.1976
48797W        W91735  28.795  27.256   6.218 -0.3666 -0.1035 -0.1273
48798W        W91736  31.051  28.535   5.016 -0.2178 -0.3947 -0.0242
48799W        W91737  30.699  28.126   5.167 -0.2127  0.0534 -0.1395
48800W        W91738  30.336  28.844   5.244  0.2068 -0.2290 -0.2488
48801W        W91739  31.539  27.449   5.226  0.0277  0.0643 -0.0652
48802W        W91740  32.237  26.502   4.954 -0.0803 -0.0772  0.1111
48803W        W91741  29.562  27.059   3.752  0.1315  0.3046 -0.2365
48804W        W91742  32.112  25.250   5.387 -0.0017 -0.0281 -0.1023
48805W        W91743  30.180  25.528   4.438 -0.0734 -0.0041 -0.1450
48806W        W91744  29.928  27.623   5.812 -0.2143 -0.4948 -0.0976
48807W        W91745  28.264  26.950   3.808 -0.2727  0.0049 -0.0843
48808W        W91746  29.528  27.716   4.338  0.0166 -0.2471 -0.0161
48809W        W91747  28.901  28.438   4.928 -0.1373  0.2021 -0.2645
48810W        W91748  31.684  25.259   8.380 -0.0613  0.1426 -0.0007
48811W        W91749  29.293  26.428   7.313  0.1153  0.1348  0.1538
48812W        W91750  30.121  27.229   5.451  0.2746  0.4038 -0.0496
48813W        W91751  28.600  26.572   4.569  0.1480 -0.1197 -0.2596
48814W        W91752  31.679  28.768   3.220 -0.1916  0.0439 -0.1881
48815W        W91753  29.289  26.745   6.927 -0.1621  0.2618  0.5778
48816W        W91754  29.733  26.613   6.822 -0.1565 -0.0567 -0.1995
48817W        W91755  31.417  27.759   3.918  0.1743  0.0320 -0.1520
48818W        W91756  31.722  27.709   4.302  0.0195 -0.0428  0.1448
48819W        W91757  31.252  26.357   4.173  0.1472 -0.0397  0.0254
48820W        W91758  31.894  29.564   7.446  0.1013  0.1276  0.4132
48821W        W91759  27.915  27.547   2.339  0.2526  0.0449 -0.0656
48822W        W91760  29.698  26.728   7.317  0.3314  0.0111 -0.2003
48823W        W91761  29.539  27.645   9.075  0.0574 -0.0939  0.0602
48824W        W91762  28.308  25.442   3.763 -0.1853 -0.0561 -0.1436
48825W        W91763  31.491  26.463   4.976  0.0494  0.1424  0.1954
48826W        W91764  30.133  29.578   5.239  0.1918 -0.3996 -0.2045
48827W        W91765  29.623  28.396   3.944  0.0227 -0.1257 -0.0558
48828W        W91766  32.124  28.458   6.452 -0.0155  0.0353  0.0323
48829W        W91767  30.336  28.849   6.633  0.1688  0.3466 -0.0305
48830W        W91768  27.886  25.845   7.358  0.0618  0.0681 -0.1603
48831W        W91769  32.614  27.195   3.146  0.1831 -0.0122  0.0229
48832W        W91770  30.741  28.579   6.782 -0.1265  0.0621 -0.1280
48833W        W91771  32.784  28.071   3.566  0.2563  0.2018 -0.2959
48834W        W91772  31.921  25.961   6.675 -0.0451  0.1395 -0.2271
48835W        W91773  30.001  26.784   4.552 -0.1923  0.3250  0.3154
48836W        W91774  28.740  25.690   7.260 -0.1505 -0.1392 -0.1736
48837W        W91775  28.815  28.666   7.542  0.5073 -0.3131  0.2237
48838W        W91776  32.015  27.529   5.610  0.0808 -0.0641  0.2123
48839W        W91777  29.414  25.696   6.747  0.2685 -0.1607 -0.3189
48840W        W91778  30.896  25.957   4.914 -0.1686 -0.1537  0.0747
48841W        W91779  30.642  29.034   3.904  0.1482 -0.0601  0.1077
48842W        W91780  29.986  28.285   5.781  0.0629  0.2364 -0.2751
48843W        W91781  29.865  27.704   3.985 -0.1629 -0.4508 -0.0024
48844W        W91782  30.168  26.728   5.703 -0.2419  0.1484 -0.1519
48845W        W91783  30.874  27.395   6.706 -0.0176 -0.2074 -0.0924
48846W        W91784  34.135  27.660   6.946  0.4613 -0.1519 -0.1664
48847W        W91785  30.401  26.691   5.264 -0.0600  0.1793  0.0906
48848W        W91786  32.003  27.154   4.438  0.2463  0.3959 -0.1484
48849W        W91787  30.778  29.760   6.028  0.1783 -0.3165 -0.1671
48850W        W91788  31.774  27.916   7.677  0.0217  0.1357  0.1636
48851W        W91789  29.860  29.263   6.201  0.0674  0.0918  0.1298
48852W        W91790  31.886  28.015   5.841 -0.2912 -0.2519 -0.1304
48853W        W91791  30.134  25.840   6.446  0.1692  0.1634 -0.0669
48854W        W91792  29.084  29.041   4.002  0.0160  0.2806  0.2874
48855W        W91793  30.577  27.982   4.388  0.0313  0.1874 -0.0471
48856W        W91794  29.377  26.284   5.336  0.0052  0.1583 -0.0014
48857W        W91795  28.872  26.337   5.252  0.1689 -0.1461 -0.1016
48858W        W91796  29.930  26.418   3.151  0.0661  0.0688 -0.0270
48859W        W91797  30.453  28.479   6.084 -0.2565 -0.0187  0.1023
48860W        W91798  31.720  27.067   5.555  0.1364  0.2240 -0.4410
48861W        W91799  30.074  27.678   9.199 -0.0976 -0.1901 -0.2327
48862W        W91800  28.258  27.139   9.337 -0.3156  0.2154  0.0873
48863W        W91801  30.578  25.723   8.204 -0.0242  0.0140  0.1513
48864W        W91802  32.759  26.245   9.189 -0.1143 -0.3930 -0.1279
48865W        W91803  28.607  25.627   8.122  0.1304 -0.2092 -0.0697
48866W        W91804  31.453  28.931   9.622  0.2491  0.0854 -0.0488
48867W        W91805  30.784  26.652   8.120  0.3323  0.0919 -0.4083
48868W        W91806  31.029  27.587   9.257 -0.1057 -0.0642 -0.1158
48869W        W91807  31.547  28.250   6.823 -0.1216  0.0874  0.1599
48870W        W91808  29.854  23.828   8.966  0.0544  0.1551  0.2050
48871W        W91809  30.507  25.656   9.000 -0.0199 -0.2581 -0.0892
48872W        W91810  29.889  25.211   9.405 -0.1059  0.0390  0.0361
48873W        W91811  30.802  26.749   9.815  0.1922  0.0555 -0.1884
48874W        W91812  30.286  28.336   6.850 -0.1441  0.0524  0.1201
48875W        W91813  28.888  26.168   9.268 -0.2987  0.1764  0.1855
48876W        W91814  30.004  26.430   8.555  0.2284  0.1427 -0.1715
48877W        W91815  32.280  28.494   8.706 -0.0269 -0.0920  0.1757
48878W        W91816  29.113  29.141   9.870  0.0424  0.0025  0.0487
48879W        W91817  31.662  28.402   8.854 -0.2784  0.2038  0.0361
48880W        W91818  28.873  26.713   9.428  0.1057 -0.1029  0.0575
48881W        W91819  28.902  28.033   8.906  0.1167 -0.1969 -0.1866
48882W        W91820  29.191  27.405   8.824 -0.0832 -0.0516 -0.1512
48883W        W91821  32.636  27.813  10.036  0.1827  0.2987 -0.0616
48884W        W91822  33.088  27.729   8.524  0.2187 -0.1831 -0.1682
48885W        W91823  29.890  28.665   9.314  0.1395  0.1252 -0.0385
48886W        W91824  30.624  29.576   8.743  0.1576 -0.0909  0.1213
48887W        W91825  28.003  26.546   9.297  0.1782 -0.0693  0.0390
48888W        W91826  28.822  28.980   8.944  0.1373  0.1896 -0.1128
48889W        W91827  30.466  29.776   6.927  0.0196  0.1059 -0.1354
48890W        W91828  32.576  28.092   8.755  0.1470  0.0726 -0.0728
48891W        W91829  29.255  27.422   7.756 -0.1180 -0.2330 -0.1164
48892W        W91830  32.033  27.473   9.318  0.0436 -0.0502  0.1930
48893W        W91831  31.091  28.161   8.510 -0.0692 -0.1691 -0.2431
48894W        W91832  30.385  29.652   7.901  0.3352  0.1603  0.1229
48895W        W91833  30.055  27.520   8.241  0.1060  0.0971  0.0157
48896W        W91834  29.950  27.812   8.715  0.1603 -0.0431  0.1120
48897W        W91835  28.071  30.509   7.987  0.1621  0.1686 -0.1528
48898W        W91836  32.731  27.176   6.439 -0.1283  0.3701 -0.0783
48899W        W91837  30.436  27.001   8.212 -0.0648 -0.0407  0.1904
48900W        W91838  31.242  26.425   7.990 -0.0934  0.0924 -0.0358
48901W        W91839  29.560  27.270   9.967  0.1462 -0.1366 -0.0447
48902W        W91840  30.768  28.127   8.159  0.2083 -0.0175 -0.1672
48903W        W91841  31.128  27.700   9.819  0.3214 -0.2758 -0.1170
48904W        W91842  29.274  27.879   7.566  0.0348  0.1511 -0.1221
48905W        W91843  29.865  29.775   9.221  0.0078  0.0222 -0.3079
48906W        W91844  28.061  29.683   9.333 -0.1490  0.1342 -0.3191
48907W        W91845  28.843  26.654   7.532  0.0002 -0.1252  0.3715
48908W        W91846  32.144  29.022   8.084 -0.0996  0.0032  0.2650
48909W        W91847  34.106  28.256   8.353  0.1470 -0.3037 -0.0016
48910W        W91848  32.228  27.483   7.783  0.1602  0.0668  0.2949
48911W        W91849  30.846  27.702   8.693  0.2186  0.0771  0.0695
48912W        W91850  30.885  25.643   7.579  0.3272  0.0827 -0.0934
48913W        W91851  32.382  26.575   8.232 -0.1321 -0.2209 -0.0229
48914W        W91852  31.156  28.092   9.079 -0.0122 -0.3380  0.2036
48915W        W91853  31.290  26.650   9.624  0.2319  0.0838 -0.0430
48916W        W91854  31.041  28.070   6.849  0.2165  0.0580  0.0028
48917W        W91855  30.200  24.328   9.093 -0.0345  0.1328 -0.0722
48918W        W91856  31.253  24.407   9.094  0.0694 -0.0713 -0.1033
48919W        W91857  31.230  27.470   6.412  0.0444  0.0278  0.1246
48920W        W91858  30.132  27.230   7.822 -0.0957  0.2591 -0.2701
48921W        W91859  31.230  27.068   8.742  0.2904  0.1072 -0.0487
48922W        W91860  32.410  26.598   5.495  0.0190  0.0128  0.1173
48923W        W91861  29.808  29.070   9.619  0.3318 -0.0500 -0.0799
48924W        W91862  29.712  30.852   9.544  0.2813 -0.0639 -0.1271
48925W        W91863  29.477  28.304   8.299  0.3107  0.5525  0.0368
48926W        W91864  27.159  26.042   9.437  0.2271 -0.0322  0.0963
48927W        W91865  29.688  28.458   8.729 -0.0300 -0.3332 -0.1468
48928W        W91866  31.681  25.697   8.191 -0.0662  0.2554 -0.1988
48929W        W91867  31.428  25.902   8.637 -0.0063  0.0122 -0.3119
48930W        W91868  29.590  28.145   7.799 -0.0214  0.1104  0.1563
48931W        W91869  34.347  27.305   9.093  0.0835  0.1453 -0.0258
48932W        W91870  33.254  26.352   7.319 -0.0616  0.1494  0.0760
48933W        W91871  31.151  28.490   7.111  0.1965  0.1488 -0.0535
48934W        W91872  26.547  26.355   9.100  0.1600 -0.0818 -0.0241
48935W        W91873  26.621  26.820   8.333  0.2804  0.0688  0.1616
48936W        W91874  24.833  25.047   9.048 -0.2854 -0.0642  0.1389
48937W        W91875  27.337  26.052   7.653 -0.0819 -0.2631 -0.1473
48938W        W91876  32.277  25.930   8.664  0.0686 -0.1661 -0.1455
48939W        W91877  28.031  27.323   8.452  0.0901 -0.1974 -0.1039
48940W        W91878  29.835  27.953   8.234 -0.2650  0.0027 -0.0934
48941W        W91879  32.114  28.523   8.262  0.1280 -0.0948  0.1243
48942W        W91880  31.531  28.652  10.081  0.0080 -0.0308  0.0443
48943W        W91881  32.247  30.170   9.462  0.0700 -0.1474  0.0128
48944W        W91882  25.859  28.004   9.558 -0.0501 -0.1534 -0.2344
48945W        W91883  27.272  26.347   8.058 -0.1377  0.1051 -0.1398
48946W        W91884  28.619  29.454   8.289  0.1161 -0.1518  0.0612
48947W        W91885  31.346  27.657   7.692  0.1453 -0.1699 -0.1784
48948W        W91886  30.536  27.080   6.532 -0.1370 -0.0285  0.0663
48949W        W91887  32.902  28.475   9.603  0.2483  0.0824 -0.0730
48950W        W91888  30.603  26.705   7.299 -0.2831  0.1796 -0.0333
48951W        W91889  33.037  26.697   9.225  0.1071  0.2990  0.3270
48952W        W91890  30.361  27.033   9.660 -0.0149 -0.0854  0.0053
48953W        W91891  27.915  27.597   6.126 -0.1221  0.0473 -0.0739
48954W        W91892  32.386  28.713   9.550 -0.1743  0.0479  0.1003
48955W        W91893  28.578  28.579   8.382 -0.0069 -0.1499  0.2211
48956W        W91894  30.149  28.198   8.969 -0.1989  0.0654 -0.1098
48957W        W91895  31.070  28.607   8.212  0.1467  0.2301  0.0115
48958W        W91896  31.511  26.656   8.730 -0.1258 -0.1283 -0.0059
48959W        W91897  30.004  29.739   7.130  0.0319  0.4303  0.1758
48960W        W91898  32.058  26.083   8.191  0.0897 -0.0965 -0.3050
48961W        W91899  31.520  25.343   7.917  0.1584  0.1689 -0.3501
48962W        W91900  32.710  27.434   8.617 -0.0322  0.4015  0.4373
48963W        W91901  31.544  27.552   5.693  0.1750 -0.0171  0.0373
48964W        W91902  30.972  25.337   7.190 -0.1764 -0.2507 -0.1392
48965W        W91903  31.489  27.882   8.481 -0.2410 -0.0741 -0.0573
48966W        W91904  30.361  27.384   8.634  0.3230 -0.3173 -0.2355
48967W        W91905  30.578  27.505   8.197 -0.0631 -0.0422 -0.0867
48968W        W91906  32.973  28.606   8.029 -0.1270  0.1964  0.0268
48969W        W91907  31.408  27.934   9.467 -0.1267 -0.0549 -0.0526
48970W        W91908  33.035  27.348   7.397  0.0228 -0.1016 -0.3435
48971W        W91909  29.539  26.544  10.184 -0.0493  0.1649 -0.0747
48972W        W91910  29.453  26.521   6.370  0.1428 -0.0274 -0.0941
48973W        W91911  30.581  26.188   9.205  0.1975  0.1072  0.2686
48974W        W91912  27.766  29.065   6.986  0.1306  0.0497  0.1327
48975W        W91913  28.882  28.372   9.800  0.1837  0.0781 -0.1556
48976W        W91914  32.488  27.781   9.295  0.2354 -0.2191 -0.2869
48977W        W91915  30.918  26.506   9.335  0.0680 -0.0498 -0.3002
48978W        W91916  31.585  26.208   8.278  0.0485  0.2100  0.1045
48979W        W91917  31.185  26.642   7.255 -0.3671  0.3020 -0.1855
48980W        W91918  29.356  24.271   8.400  0.0506 -0.0884  0.0033
48981W        W91919  31.086  28.362   9.887  0.2352 -0.1006  0.1422
48982W        W91920  32.402  26.643   7.724 -0.2578 -0.1512 -0.1259
48983W        W91921  30.212  26.348   7.258 -0.0608 -0.1529 -0.2146
48984W        W91922  29.285  27.851   8.076  0.0887 -0.0935  0.0974
48985W        W91923  30.307  27.948   8.103 -0.1715 -0.1526 -0.0575
48986W        W91924  29.280  25.948   9.941 -0.1320 -0.0275 -0.1315
48987W        W91925  31.387  27.161   9.883 -0.0805 -0.1501 -0.0886
48988W        W91926  31.859  29.928   7.847 -0.2682 -0.0515 -0.0050
48989W        W91927  31.285  27.046   9.243 -0.0042 -0.1148  0.0946
48990W        W91928  30.073  28.785   7.598  0.2570  0.4072 -0.2944
48991W        W91929  30.128  24.736   8.779 -0.0515  0.0122  0.0646
48992W        W91930  30.095  28.849   8.169 -0.2089  0.2542 -0.0890
48993W        W91931  30.264  26.608   7.943 -0.0187 -0.1237 -0.3255
48994W        W91932  29.997  26.230   7.638 -0.1335 -0.0897 -0.2114
48995W        W91933  31.844  26.238   8.706 -0.1480  0.3126  0.4504
48996W        W91934  32.369  28.307   6.920  0.0119  0.0917  0.3156
48997W        W91935  29.355  25.308   9.285  0.3187 -0.1897  0.1193
48998W        W91936  30.500  27.359  10.076  0.2733  0.0293 -0.0792
48999W        W91937  31.381  30.034   9.743 -0.1406 -0.0519  0.2445
49000W        W91938  32.345  26.362   6.831 -0.0840 -0.1583 -0.0098
49001W        W91939  27.594  25.909   8.105  0.4622 -0.4416 -0.1916
49002W        W91940  33.373  28.622   9.908  0.1999  0.0204  0.0535
49003W        W91941  30.309  27.256   9.129 -0.1230 -0.3581  0.0669
49004W        W91942  29.420  28.030   8.742 -0.3419  0.1262  0.0637
49005W        W91943  29.909  26.231   9.838  0.1449  0.1937  0.3957
49006W        W91944  31.383  27.186   7.812  0.0581 -0.6047  0.0495
49007W        W91945  30.701  28.751   7.638  0.1372 -0.0188 -0.0490
49008W        W91946  30.922  25.110   9.695  0.0346 -0.0510 -0.1516
49009W        W91947  27.914  26.328   8.243  0.1074 -0.0183 -0.0118
49010W        W91948  28.811  26.625   8.285  0.0196 -0.0800  0.0093
49011W        W91949  31.942  27.240   9.742  0.0774 -0.0722 -0.0549
49012W        W91950  33.192  28.165   7.714  0.1399 -0.0789  0.2654
49013W        W91951  31.100  26.006   9.011  0.0160 -0.1465  0.0927
49014W        W91952  29.896  24.419   9.615  0.1813  0.3444  0.0304
49015W        W91953  32.616  28.870   8.973  0.4165 -0.1432  0.1318
49016W        W91954  30.171  28.285   7.386  0.2365  0.0375  0.1257
49017W        W91955  28.100  28.611   8.374  0.2835 -0.0296 -0.0109
49018W        W91956  30.885  28.994   9.716  0.2200  0.1699  0.1075
49019W        W91957  30.658  27.876   9.894 -0.2445  0.4747 -0.1286
49020W        W91958  30.545  28.567   8.073  0.0030  0.2376 -0.0331
49021W        W91959  29.816  29.107   6.693  0.0473 -0.0298 -0.1978
49022W        W91960  30.232  28.345   8.401 -0.1706  0.0351  0.1716
49023W        W91961  30.635  25.915   6.745 -0.2351  0.1084  0.1174
49024W        W91962  32.659  27.876   8.292 -0.1036  0.2697  0.1320
49025W        W91963  29.916  26.870   9.909 -0.0136 -0.3243  0.1195
49026W        W91964  32.089  27.649   6.124 -0.1876 -0.0426 -0.1586
49027W        W91965  28.411  26.909   7.818 -0.0730  0.1047 -0.2451
49028W        W91966  33.098  28.691   9.017  0.0898 -0.1323  0.0174
49029W        W91967  31.147  26.416   8.520  0.0201 -0.0870 -0.0971
49030W        W91968  29.352  25.511   8.844 -0.0985  0.1999 -0.0130
49031W        W91969  30.623  28.517   9.764  0.0270  0.0178  0.0043
49032W        W91970  32.625  27.758   7.631 -0.0794 -0.2666  0.1208
49033W        W91971  31.075  27.954   7.320 -0.0422  0.0392 -0.1701
49034W        W91972  31.612  26.911  10.274  0.0359  0.3384 -0.0455
49035W        W91973  29.998  28.345   7.961 -0.2522 -0.1668  0.0820
49036W        W91974  32.628  27.106   7.666  0.0077  0.1932 -0.3231
49037W        W91975  32.314  27.537   8.274  0.0218 -0.2234  0.2359
49038W        W91976  29.648  28.801   7.864  0.2202 -0.1876 -0.0032
49039W        W91977  32.253  28.021   7.960 -0.1831  0.1698  0.0373
49040W        W91978  30.339  26.663  10.140  0.1956 -0.0984 -0.1084
49041W        W91979  30.084  31.084   9.829 -0.1673  0.1131 -0.2736
49042W        W91980  31.740  26.786   6.410  0.0094 -0.0378 -0.0875
49043W        W91981  32.245  25.581  10.070 -0.1387 -0.0285  0.2847
49044W        W91982  32.104  26.995   7.569  0.0751 -0.1919  0.0538
49045W        W91983  31.846  27.096   7.948 -0.0336  0.0853  0.0196
49046W        W91984  29.508  25.160   9.793 -0.1710 -0.1859 -0.1089
49047W        W91985  28.849  25.818   8.845  0.1175  0.0997 -0.1179
49048W        W91986  30.497  27.884   6.664  0.0911  0.0243 -0.0247
49049W        W91987  30.608  26.403   8.604 -0.0625 -0.0753  0.1953
49050W        W91988  30.560  27.746   9.128  0.0139  0.0741  0.3302
49051W        W91989  28.410  27.675   9.391 -0.4496  0.0699 -0.0866
49052W        W91990  29.015  26.369   7.894  0.1612 -0.1653 -0.2908
49053W        W91991  30.911  27.205   7.984  0.1999 -0.1373  0.0650
49054W        W91992  31.963  29.601  10.026  0.1986 -0.0592  0.0918
49055W        W91993  29.720  25.655   7.702 -0.0427 -0.2151  0.1031
49056W        W91994  29.017  29.977   8.225 -0.2845 -0.1866  0.1267
49057W        W91995  32.042  25.231   8.852 -0.0064  0.2146 -0.3150
49058W        W91996  30.781  28.975   8.750 -0.1021 -0.1298 -0.0045
49059W        W91997  31.132  27.643   8.204 -0.3401  0.2451 -0.0074
49060W        W91998  28.462  28.257   9.336 -0.3401  0.2895 -0.1706
49061W        W91999  32.006  26.675   8.973 -0.3659 -0.2627  0.0626
49062W        W92000  29.912  27.118   9.411 -0.0225 -0.0602 -0.4187
49063W        W92001  30.397  27.932   8.590  0.0371  0.0431  0.0251
49064W        W92002  33.596  27.561   8.653  0.0786  0.0877 -0.0283
49065W        W92003  28.403  28.073   9.842 -0.0193  0.0465  0.1360
49066W        W92004  30.449  26.926   8.758 -0.0280 -0.0288  0.2567
49067W        W92005  29.922  26.877   8.995  0.1206 -0.4078 -0.0324
49068W        W92006  32.124  28.049   8.497 -0.0202 -0.0640  0.0357
49069W        W92007  27.160  26.783   9.141 -0.2649 -0.1942 -0.3346
49070W        W92008  29.664  29.518   7.540 -0.2106 -0.1104  0.2270
49071W        W92009  30.960  27.401   7.391 -0.0053 -0.0020 -0.0743
49072W        W92010  32.253  28.394   7.425 -0.1820 -0.1170 -0.1537
49073W        W92011  31.593  28.799   9.130  0.3264 -0.2471  0.3081
49074W        W92012  29.746  27.660   7.823 -0.0640 -0.0864 -0.1805
49075W        W92013  30.833  27.129   8.483  0.0655  0.2659 -0.1040
49076W        W92014  29.319  27.985   7.000 -0.0244  0.1405 -0.0481
49077W        W92015  32.752  28.205   7.816  0.0833 -0.1683 -0.0607
49078W        W92016  30.403  29.112   7.869 -0.0421 -0.1486 -0.4648
49079W        W92017  31.965  26.693   5.874  0.1037 -0.2596  0.4797
49080W        W92018  31.822  27.721   8.963  0.0361 -0.3781  0.0597
49081W        W92019  32.012  25.467   6.698  0.1497  0.2908  0.0278
49082W        W92020  29.410  27.062   9.231 -0.0914 -0.1344 -0.0302
49083W        W92021  29.982  25.765   8.106 -0.1567 -0.2034 -0.1498
49084W        W92022  34.501  28.187   8.792 -0.2369  0.1413  0.0561
49085W        W92023  29.681  27.216   7.552 -0.1513  0.0859 -0.4667
49086W        W92024  31.117  28.960   7.865  0.2171 -0.0181  0.1584
49087W        W92025  32.100  24.798   9.175  0.0437 -0.0725  0.1189
49088W        W92026  31.561  27.839   7.239 -0.2949  0.1126 -0.0465
49089W        W92027  30.944  26.247   9.949 -0.0778  0.2082 -0.0758
49090W        W92028  31.918  29.188   8.967  0.0891 -0.0879  0.1106
49091W        W92029  30.740  28.647   9.176  0.0860 -0.1487  0.1098
49092W        W92030  29.333  28.010   9.394 -0.1182  0.0688 -0.2289
49093W        W92031  28.433  26.141   8.559 -0.0035 -0.0066 -0.0769
49094W        W92032  31.746  26.790   7.217  0.1194  0.1741 -0.2410
49095W        W92033  31.844  28.381   9.756  0.0023 -0.1156  0.0650
49096W        W92034  29.320  26.891   7.627 -0.3073 -0.0523  0.0261
49097W        W92035  33.413  27.578   8.181  0.0667 -0.0539  0.0128
49098W        W92036  31.687  26.555   9.885  0.2091  0.3604  0.2059
49099W        W92037  27.544  27.855   9.406  0.0552 -0.0357 -0.0328
49100W        W92038  31.148  26.071   6.403 -0.3232  0.1085  0.2498
49101W        W92039  31.323  26.157   6.907 -0.0870 -0.0571  0.0887
49102W        W92040  28.719  27.162   9.179 -0.1507  0.0147 -0.0351
49103W        W92041  31.814  27.461   7.525  0.3219 -0.2738  0.1896
49104W        W92042  29.010  27.785   8.465  0.1095  0.1047  0.4245
49105W        W92043  29.507  28.045   9.847 -0.0789 -0.1550 -0.3138
49106W        W92044  29.629  27.278   8.072 -0.1430 -0.1124  0.2576
49107W        W92045  31.840  27.266   6.684 -0.1515  0.3130  0.3308
49108W        W92046  32.315  27.028   8.065  0.3026 -0.1275 -0.2627
49109W        W92047  29.701  28.473   7.443  0.1471  0.0254 -0.1809
49110W        W92048  32.595  26.723   6.568 -0.3195  0.3532  0.0422
49111W        W92049  31.997  27.230   8.465 -0.0972 -0.0992 -0.1923
49112W        W92050  30.077  24.752   9.303 -0.1684  0.2169 -0.0032
49113W        W92051  31.692  27.651   9.787  0.1368  0.3015 -0.2075
49114W        W92052  34.429  26.748   9.108  0.2172 -0.0083  0.1460
49115W        W92053  30.683  26.367   7.665 -0.0180  0.0904  0.1603
49116W        W92054  28.580  26.738   9.018 -0.2208  0.3512  0.0490
49117W        W92055  29.638  29.354   8.590  0.1398 -0.0434 -0.2107
49118W        W92056  30.045  26.011   9.370  0.0428  0.2251  0.3732
49119W        W92057  29.770  30.151   7.193  0.1448  0.0797 -0.0737
49120W        W92058  31.531  26.749   7.693  0.2781  0.1122 -0.2126
49121W        W92059  29.504  26.936   8.685  0.1685  0.2392  0.0285
49122W        W92060  31.944  26.707   8.426 -0.1081 -0.0530 -0.0186
49123W        W92061  31.305  28.148   8.063 -0.2838  0.3796 -0.1159
49124W        W92062  32.563  28.384   9.163 -0.0960  0.0985  0.0313
49125W        W92063  29.829  26.270   8.111  0.1945 -0.3527 -0.3108
49126W        W92064  31.450  26.846   8.253  0.3252  0.0697 -0.2776
49127W        W92065  31.902  26.380   9.483  0.4765  0.1860  0.2431
49128W        W92066  31.746  26.861   9.487  0.0443 -0.3675 -0.0022
49129W        W92067  30.917  25.954   8.519 -0.0184  0.0166  0.0334
49130W        W92068  32.243  26.915   9.951 -0.1680  0.0026  0.2365
49131W        W92069  29.779  27.551   6.912  0.0200  0.0491  0.3939
49132W        W92070  30.582  28.185   7.703  0.1443 -0.2961 -0.0959
49133W        W92071  28.613  27.075   8.219 -0.1989  0.2314 -0.3119
49134W        W92072  30.777  27.266   8.997  0.0549 -0.2037 -0.2838
49135W        W92073  29.706  25.680   9.804  0.1813 -0.2046 -0.1099
49136W        W92074  31.790  28.209   8.051  0.2660  0.0243  0.2020
49137W        W92075  30.544  27.527   7.632  0.0105  0.2431 -0.3505
49138W        W92076  26.007  26.442   9.116  0.0544  0.2066  0.2252
49139W        W92077  32.495  27.401   7.275 -0.3984 -0.3578  0.1390
49140W        W92078  32.939  28.845   8.494  0.2510 -0.0925  0.0006
49141W        W92079  29.488  26.385   8.452 -0.1285 -0.3596  0.1224
49142W        W92080  29.904  27.062   6.995  0.1080  0.3339  0.0756
49143W        W92081  28.755  25.414   7.699 -0.1304  0.1563 -0.2006
49144W        W92082   0.212  28.459   8.865 -0.2752 -0.2085  0.1421
49145W        W92083  31.481  27.329   8.381  0.0414  0.0948 -0.0553
49146W        W92084  31.876  28.616   6.920  0.1054 -0.4580  0.0959
49147W        W92085  27.341  27.339   9.341  0.0006 -0.1196 -0.1397
49148W        W92086  31.939  27.572   7.056  0.2842  0.0467 -0.2940
49149W        W92087  32.384  27.341   6.711  0.2192 -0.3486 -0.2947
49150W        W92088  30.844  25.753   9.395 -0.1315 -0.1551 -0.1951
49151W        W92089  31.644  28.349   7.460 -0.2492 -0.1453 -0.0168
49152W        W92090  31.762  25.519   9.784 -0.1480 -0.2650 -0.2272
49153W        W92091  29.230  26.610   9.071 -0.1004 -0.1024  0.1553
49154W        W92092  31.715  25.068   7.415  0.1007  0.2393 -0.0175
49155W        W92093  30.890  27.839   7.783  0.2310  0.0145 -0.2717
49156W        W92094  30.604  29.139   9.193 -0.1611  0.0156  0.0949
49157W        W92095  29.807  26.779   7.856 -0.0152  0.1856  0.0812
49158W        W92096  29.614  28.851   8.386 -0.0536 -0.0911  0.2378
49159W        W92097  31.159  26.123   7.564 -0.0424  0.1654  0.0953
49160W        W92098  33.454  27.497   7.155  0.1418 -0.1671 -0.0126
49161W        W92099  30.081  27.474   9.777  0.1443  0.2284  0.1593
49162W        W92100  32.338  28.987  10.318 -0.0252  0.1305  0.2437
49163W        W92101  34.114  25.981   8.848 -0.0962  0.1517  0.0939
49164W        W92102  28.306  25.369   8.461  0.1321 -0.0429 -0.0652
49165W        W92103  29.949  26.934   8.489 -0.1066 -0.3105 -0.3258
49166W        W92104  31.836  27.642   8.165  0.2047 -0.0208 -0.1875
49167W        W92105  31.464  26.502   9.180 -0.1463 -0.0544  0.1212
49168W        W92106  29.127  26.932  10.012  0.0036 -0.1342 -0.0022
49169W        W92107  31.211  26.120   9.514 -0.0076 -0.1812 -0.0138
49170W        W92108  30.693  28.566   8.539  0.1136 -0.1176  0.1864
49171W        W92109  31.314  27.554   8.866 -0.0767  0.0284  0.0311
49172W        W92110  29.599  31.680   2.702  0.1207  0.0988 -0.0165
49173W        W92111  29.073  31.380   2.424 -0.1277  0.1718  0.0004
49174W        W92112  31.555  29.506  30.936  0.1959 -0.0799  0.2735
49175W        W92113  30.511  31.354   0.832 -0.2622  0.0418 -0.0691
49176W        W92114  29.603  29.545  31.789  0.1146 -0.0080 -0.0265
49177W        W92115  31.311  33.803   0.741 -0.0355 -0.3250  0.0031
49178W        W92116  28.163  28.744   3.662 -0.0768 -0.0929  0.0913
49179W        W92117  31.931  30.991   2.729 -0.3974  0.2621  0.0117
49180W        W92118  32.543  31.781   2.068 -0.3582 -0.3039 -0.1988
49181W        W92119  31.453  30.133  30.090 -0.0696 -0.4305  0.0781
49182W        W92120  30.618  29.197   2.047  0.0231 -0.0498  0.0675
49183W        W92121  28.921  32.252   2.778 -0.0427 -0.0428 -0.0063
49184W        W92122  30.783  30.221   1.000 -0.2161  0.0418  0.0945
49185W        W92123  28.587  29.697   2.380 -0.4314 -0.0214 -0.1723
49186W        W92124  31.876  31.058   0.607  0.1540  0.2646  0.2180
49187W        W92125  29.393  30.937   1.576  0.2724  0.1753 -0.0653
49188W        W92126  30.544  30.864   1.076  0.1965 -0.0248 -0.3355
49189W        W92127  30.734  31.162   1.506 -0.3281  0.0763 -0.4165
49190W        W92128  30.494  32.756   0.041  0.1627 -0.2930  0.1913
49191W        W92129  30.714  30.570   2.769 -0.1883 -0.1064 -0.0834
49192W        W92130  29.467  29.070   3.094 -0.0105 -0.2042  0.1596
49193W        W92131  30.920  32.673   0.293 -0.0241  0.2516  0.0835
49194W        W92132  28.286  30.452   1.009  0.1413 -0.0390  0.1917
49195W        W92133  28.141  31.772   2.475 -0.0816  0.1519 -0.1639
49196W        W92134  29.876  30.732   1.529  0.0072  0.1942 -0.2682
49197W        W92135  33.051  29.851   1.829  0.0221 -0.2200  0.1056
49198W        W92136  32.040  30.139   0.727  0.0970  0.0896 -0.0893
49199W        W92137  29.898  32.066   2.978 -0.2205  0.0257  0.1315
49200W        W92138  31.063  33.096   2.842 -0.0685 -0.5145 -0.1275
49201W        W92139  31.086  30.492   3.702  0.0987 -0.0795  0.3950
49202W        W92140  31.414  31.945   0.649 -0.0569 -0.0204  0.1181
49203W        W92141  28.294  33.544   2.335  0.0894  0.0085  0.0980
49204W        W92142  31.184  32.222   1.601  0.1555  0.1120  0.1951
49205W        W92143  32.240  32.061   1.030  0.3040  0.1398  0.0366
49206W        W92144  32.817  33.198   1.526 -0.1774 -0.1763  0.0308
49207W        W92145  30.493  33.324   3.501  0.3694 -0.0291 -0.2920
49208W        W92146  27.603  30.811   0.519  0.3510 -0.0922  0.1545
49209W        W92147  30.990   1.210   4.974 -0.0285 -0.2956  0.0545
49210W        W92148  29.783  32.700   2.705  0.2000  0.1662  0.1984
49211W        W92149  32.003  30.352   2.574 -0.2198 -0.0102  0.1210
49212W        W92150  30.497  31.427   0.285 -0.0925  0.1003 -0.2423
49213W        W92151  28.737  31.792   0.174  0.3060  0.2206 -0.4265
49214W        W92152  30.622  30.217   1.518  0.1497 -0.2641 -0.0064
49215W        W92153  28.744  31.181   3.249 -0.1009  0.1429  0.1380
49216W        W92154  28.316  33.000   2.411 -0.3161 -0.0082 -0.1114
49217W        W92155  31.801  29.729   2.698  0.2352  0.0672 -0.1355
49218W        W92156  29.952  30.623   0.756 -0.1093 -0.0410 -0.0684
49219W        W92157  33.620  32.601   0.274  0.2444  0.0154 -0.3921
49220W        W92158  31.253  30.380  31.185 -0.0423 -0.0368 -0.3406
49221W        W92159  32.408  30.601   1.111 -0.0378  0.0814 -0.0765
49222W        W92160  30.692  28.788   1.748  0.0191 -0.0754 -0.1628
49223W        W92161  30.043  32.709   1.934  0.0776 -0.0397 -0.3732
49224W        W92162  29.631  30.668   3.025 -0.2938 -0.0560 -0.2078
49225W        W92163  32.829  31.408   2.235  0.0836  0.2282  0.0006
49226W        W92164  30.899  31.716  31.866  0.2481 -0.1759  0.0999
49227W        W92165  31.816  29.287   2.469 -0.4207  0.2582  0.0953
49228W        W92166  30.453  33.005   1.925  0.0802  0.0978  0.0824
49229W        W92167  28.459  32.926   1.843  0.0511 -0.2056 -0.1900
49230W        W92168  31.900  31.839  31.745 -0.2870 -0.2930 -0.0604
49231W        W92169  32.097  32.591   1.422 -0.0902  0.1464 -0.0842
49232W        W92170  30.420  31.864   1.101 -0.2434 -0.2466 -0.1315
49233W        W92171  29.728  31.947   0.694 -0.1305 -0.2188 -0.1025
49234W        W92172  28.756  30.500   2.989 -0.0428  0.0890 -0.3493
49235W        W92173  28.189  30.931   4.756 -0.0474 -0.2071  0.0405
49236W        W92174  29.917  30.190   1.030 -0.3254 -0.0806  0.3601
49237W        W92175  31.863  32.265   2.861  0.3361  0.0169  0.0643
49238W        W92176  27.238  31.942   2.580  0.1194 -0.1803  0.1209
49239W        W92177  32.383  30.474   2.340 -0.0260  0.0696 -0.1745
49240W        W92178  29.168  31.357   2.926  0.2547  0.0883 -0.1351
49241W        W92179  32.827  31.807   2.601  0.0123  0.0113 -0.0851
49242W        W92180  30.966  31.293   0.117  0.2854  0.1000 -0.0675
49243W        W92181  31.614  29.541   2.124 -0.0252  0.3404  0.0526
49244W        W92182  30.401  27.064   2.022  0.2358 -0.1479  0.2622
49245W        W92183  28.712  31.569   0.621 -0.1029  0.0687  0.2730
49246W        W92184  29.356  30.337   0.823  0.0727  0.0783 -0.1364
49247W        W92185  31.686  32.672   1.901 -0.3090 -0.2275 -0.1166
49248W        W92186  33.358  30.414   0.767  0.0895  0.1941 -0.0398
49249W        W92187  28.315  33.491   1.854  0.0472 -0.0693  0.0479
49250W        W92188  30.541  30.197   2.009 -0.2496  0.1618 -0.2036
49251W        W92189  30.787  31.930   3.688 -0.1966  0.5412  0.2913
49252W        W92190  29.243  30.793  31.522  0.0465 -0.0809 -0.0246
49253W        W92191  28.317  31.136   2.960 -0.4829 -0.0473 -0.1484
49254W        W92192  29.077  32.192   0.159  0.1167 -0.0497 -0.0668
49255W        W92193  28.019  30.215   1.359  0.3440  0.3094  0.0607
49256W        W92194  29.409  31.944   2.129 -0.1360 -0.0194  0.0414
49257W        W92195  32.219  28.898   0.718 -0.1048  0.0975 -0.0868
49258W        W92196  29.183  30.887   3.043 -0.2343 -0.0546  0.2480
49259W        W92197  31.052  29.065   0.039 -0.0073 -0.2442 -0.1362
49260W        W92198  29.332  31.950   1.031  0.2477 -0.2407 -0.0749
49261W        W92199  31.281  32.202   0.209  0.1368  0.1043 -0.5166
49262W        W92200  31.806  29.668   0.459 -0.0979 -0.0773  0.0098
49263W        W92201  31.790  34.065  31.937  0.0359 -0.1452 -0.0317
49264W        W92202  28.671  31.148   0.841 -0.2588 -0.1432 -0.2966
49265W        W92203  29.781  30.173   0.503 -0.0818  0.0226 -0.0275
49266W        W92204  30.844  28.924   2.369 -0.2011 -0.5734 -0.2064
49267W        W92205  28.921  30.723   1.633 -0.0145 -0.0298 -0.0121
49268W        W92206  31.658  30.839   3.769  0.0877  0.0045  0.1234
49269W        W92207  29.751  30.675   0.267  0.1162  0.2279  0.0345
49270W        W92208  32.418  29.442   1.615  0.2220 -0.2386  0.0185
49271W        W92209  29.548  31.411   2.294 -0.0555 -0.1564 -0.3813
49272W        W92210  27.589  31.201   2.255  0.1058  0.0997  0.2948
49273W        W92211  31.340  29.594   2.596 -0.1993  0.0975  0.0124
49274W        W92212  32.262  33.439   0.190  0.1007  0.1288  0.1193
49275W        W92213  30.647  32.367   2.949 -0.3669 -0.0740  0.2465
49276W        W92214  31.645  32.235  31.892 -0.1192  0.0859  0.1058
49277W        W92215  30.839  29.501   2.371  0.0056 -0.3189 -0.0955
49278W        W92216  29.899  29.724   0.392 -0.0878  0.0801 -0.1995
49279W        W92217  29.763  32.384   1.021 -0.2289  0.3238  0.1648
49280W        W92218  29.349  32.526   1.239 -0.1059 -0.0417  0.1743
49281W        W92219  31.300  30.286  31.664  0.0174 -0.3496  0.2472
49282W        W92220  31.516  31.381   1.957 -0.2437  0.0837 -0.1076
49283W        W92221  30.970  31.929   0.966  0.4339  0.0921 -0.0338
49284W        W92222  29.534  32.405   3.142  0.2740 -0.2387  0.2107
49285W        W92223  30.206  29.618   3.271  0.0349 -0.1467  0.3206
49286W        W92224  33.260  30.571   2.327  0.0777 -0.0969  0.0471
49287W        W92225  30.764  32.110   1.415  0.0214 -0.1857 -0.1508
49288W        W92226  28.844  30.811   0.580 -0.0970  0.4246 -0.2790
49289W        W92227  31.340  33.229   1.685 -0.0983  0.1506  0.1839
49290W        W92228  29.473  32.702   0.764 -0.2248 -0.1652  0.1328
49291W        W92229  28.280  31.955   1.925  0.0230 -0.1228 -0.2469
49292W        W92230  31.387  31.608   1.062 -0.0072  0.3552  0.0993
49293W        W92231  32.148  29.364   2.034  0.2374 -0.3056  0.1945
49294W        W92232  28.781  31.793   3.692 -0.0042 -0.0664  0.1636
49295W        W92233  30.888  30.069   3.432 -0.1106  0.2627  0.1026
49296W        W92234  29.359  31.190   0.252 -0.2145 -0.1620 -0.0754
49297W        W92235  29.148  31.803   2.656  0.2571 -0.0535 -0.0230
49298W        W92236  31.988  29.686   1.714  0.1434  0.1485 -0.0901
49299W        W92237  31.241  28.843   1.060 -0.1203 -0.2683  0.1630
49300W        W92238  31.533  30.192   2.955  0.1798 -0.1245  0.1095
49301W        W92239  31.709  31.537   0.725 -0.0425 -0.3360 -0.1468
49302W        W92240  30.988  30.147   0.105 -0.0112  0.2095  0.0944
49303W        W92241  31.021  29.787  31.693 -0.1685 -0.0351 -0.3453
49304W        W92242  29.203  33.670   3.502 -0.2462  0.0670  0.1531
49305W        W92243  30.231  32.328   1.232  0.0569 -0.1740 -0.3889
49306W        W92244  30.290  32.143   2.629  0.0171 -0.2782 -0.0981
49307W        W92245  31.473  28.485   0.237  0.2713 -0.3620 -0.2866
49308W        W92246  32.730  30.699  31.215  0.2647  0.1929  0.2465
49309W        W92247  28.720  31.600   2.837  0.1842  0.0734  0.3550
49310W        W92248  30.333  32.020   4.616  0.1780  0.0296  0.1728
49311W        W92249  32.400  31.544   0.936  0.1403 -0.0560 -0.0476
49312W        W92250  30.992  29.205   2.792  0.0489 -0.3629 -0.0953
49313W        W92251  28.278  31.153   0.438 -0.0384 -0.2138  0.2051
49314W        W92252  30.266  30.975   0.611  0.1838 -0.4672  0.0996
49315W        W92253  29.703  32.196  31.262  0.1693  0.1360  0.0101
49316W        W92254  31.108  30.002   1.529  0.4792  0.0033 -0.0281
49317W        W92255  31.132  31.021   1.199  0.0395  0.4128  0.0034
49318W        W92256  30.464  29.233   2.999  0.1324 -0.2660 -0.1495
49319W        W92257  32.814  30.765   2.940  0.1906 -0.0180  0.2117
49320W        W92258  32.749  30.682   1.444  0.1437  0.0090 -0.2956
49321W        W92259  31.447  30.346   1.538  0.0716  0.1352 -0.0723
49322W        W92260  30.193  30.124  31.536 -0.0842 -0.4371  0.0391
49323W        W92261  30.723  29.716   1.819  0.2102 -0.0822 -0.0916
49324W        W92262  29.598  31.518   3.189 -0.1046  0.1292  0.0473
49325W        W92263  30.494  32.578   2.210  0.0909  0.0065  0.2813
49326W        W92264  31.254  30.918   3.519 -0.0249 -0.0051 -0.2764
49327W        W92265  31.444  32.573   0.660 -0.2090  0.0905 -0.3327
49328W        W92266  30.944  30.538   2.272  0.1991  0.2260  0.4499
49329W        W92267  30.333  28.919   1.312  0.0895  0.2447  0.0657
49330W        W92268  29.729  31.535   0.345 -0.0026 -0.0209  0.1988
49331W        W92269  32.174  32.012   0.149 -0.2192  0.3443  0.2728
49332W        W92270  30.154  30.932   2.029  0.2355 -0.1760 -0.0677
49333W        W92271  31.920  32.096   2.315 -0.1413  0.0802 -0.1775
49334W        W92272  30.112  31.963  31.161 -0.1277 -0.0249  0.1672
49335W        W92273  32.608  31.332   2.692  0.1162 -0.0326 -0.1184
49336W        W92274  28.750  31.763  31.295 -0.0014  0.2940  0.2848
49337W        W92275  31.742  29.208   1.668 -0.3376 -0.2208  0.1977
49338W        W92276  28.935  32.673   1.810  0.2003 -0.1630  0.0850
49339W        W92277  31.057  30.627  31.918  0.0050 -0.1544  0.1060
49340W        W92278  28.301  31.809   1.235 -0.1852  0.0519 -0.4007
49341W        W92279  31.544  29.953   1.809 -0.2893 -0.0082 -0.2398
49342W        W92280  32.533  30.242   0.747  0.0027 -0.0938  0.1083
49343W        W92281  28.264  30.361   3.395  0.0538 -0.2495 -0.2164
49344W        W92282  30.315  30.961   1.517  0.0077  0.0869 -0.1920
49345W        W92283  27.861  32.766   2.267 -0.2039 -0.0234 -0.2500
49346W        W92284  30.310  31.444   1.337  0.0219 -0.2930  0.0418
49347W        W92285  31.890  30.606   0.916 -0.0179 -0.1992  0.0417
49348W        W92286  31.833  30.997   3.305 -0.3537 -0.1506 -0.0472
49349W        W92287  30.098  30.870   3.683 -0.0593 -0.0137 -0.1731
49350W        W92288  29.536  31.052  31.226  0.2326  0.0686  0.1374
49351W        W92289  32.465  30.315   2.911  0.3300  0.1513 -0.0206
49352W        W92290  29.308  31.594   1.388 -0.1393  0.0233  0.0066
49353W        W92291  27.543  32.815   1.464 -0.1978 -0.0357 -0.0928
49354W        W92292  31.513  31.798   2.313 -0.0363  0.0273  0.1811
49355W        W92293  29.315  31.404  30.926  0.1880  0.0414  0.3715
49356W        W92294  29.545  33.212   2.525 -0.3461 -0.0573  0.1641
49357W        W92295  29.277  29.351   3.536 -0.1700 -0.0729  0.3190
49358W        W92296  30.868  29.959   3.916  0.1132 -0.2621 -0.2005
49359W        W92297  28.638  30.768   1.192  0.2427 -0.0398 -0.0679
49360W        W92298  30.280  29.377   1.120  0.1244  0.1201  0.1144
49361W        W92299  30.696  30.533   0.619 -0.0581 -0.2535  0.0094
49362W        W92300  31.104  29.797   3.004 -0.2775 -0.1373  0.2401
49363W        W92301  32.332  29.868   2.635 -0.0867  0.2295  0.4361
49364W        W92302  30.800  32.181   2.426 -0.1878 -0.2624 -0.0084
49365W        W92303  30.828  30.646   1.386 -0.0745  0.1880 -0.0229
49366W        W92304  33.576  32.679   1.419  0.0964  0.1751  0.1040
49367W        W92305  32.334  30.744   2.801  0.1661 -0.2161 -0.4194
49368W        W92306  29.409  30.796   0.585  0.1322 -0.1633 -0.1047
49369W        W92307  28.381  30.780   2.479  0.0269  0.1487  0.0541
49370W        W92308  29.781  32.547   1.545  0.1980  0.0836 -0.2235
49371W        W92309  31.510  30.575   2.570  0.0590 -0.2237 -0.5545
49372W        W92310  29.663  31.914   3.432 -0.2376 -0.0326 -0.0604
49373W        W92311  30.211  32.863  31.625 -0.2403 -0.2421 -0.3793
49374W        W92312  28.466  32.035   2.839 -0.0965  0.1091 -0.1114
49375W        W92313  31.171  29.665   0.984  0.1755  0.3162 -0.2617
49376W        W92314  31.220  32.194  31.704  0.1633  0.2319 -0.0405
49377W        W92315  30.206  31.482   1.823 -0.2193 -0.0094  0.2344
49378W        W92316  32.719  29.873   2.926 -0.2055 -0.2381  0.0061
49379W        W92317  29.960  29.692   0.959 -0.0998  0.0543  0.1484
49380W        W92318  30.988  28.183   3.035 -0.1010  0.0390 -0.0189
49381W        W92319  29.001  29.856   1.085 -0.2399  0.1105  0.0950
49382W        W92320  31.031  31.181   1.937 -0.0377 -0.2144 -0.0455
49383W        W92321  29.246  30.819   2.537 -0.0215 -0.2911 -0.5698
49384W        W92322  31.160  34.275   3.205 -0.2996  0.2264  0.1593
49385W        W92323  28.439  32.613   2.697  0.0736  0.1821  0.0743
49386W        W92324  31.204  30.744   1.674 -0.0246 -0.0749  0.0316
49387W        W92325  30.813  28.953   1.013 -0.0495 -0.1966  0.2147
49388W        W92326  29.341  31.983   3.041 -0.0178  0.1477  0.0034
49389W        W92327  31.910  31.259   2.303  0.0118 -0.2671  0.0466
49390W        W92328  30.391  31.836  31.829 -0.1881  0.1657 -0.2343
49391W        W92329  31.975  29.313   0.737  0.0714 -0.1953 -0.1083
49392W        W92330  29.378  30.428   1.798  0.0730 -0.1586 -0.0629
49393W        W92331  31.466  31.280   1.440 -0.0771 -0.2773 -0.1307
49394W        W92332  30.842  31.055   0.648 -0.0685  0.1138 -0.0229
49395W        W92333  29.655  31.153   2.760  0.1667  0.0473 -0.0268
49396W        W92334  30.033  29.968   2.874  0.0545 -0.1940 -0.1512
49397W        W92335  30.068  31.960   0.307  0.4238  0.1469  0.4075
49398W        W92336  31.859  30.343   1.855  0.1840 -0.3318 -0.0248
49399W        W92337  31.087  29.939   2.086  0.1001 -0.0310  0.1336
49400W        W92338  32.374  31.098   3.180  0.4213  0.1404  0.0899
49401W        W92339  30.501  30.041   3.084 -0.1294 -0.0069 -0.1219
49402W        W92340  29.457  29.877   4.212  0.0521  0.0361  0.2480
49403W        W92341  31.410  32.164   2.714 -0.0116 -0.0883 -0.2112
49404W        W92342  31.631  28.917   0.593 -0.1387  0.1939 -0.1406
49405W        W92343  32.410  30.158   3.411 -0.1362  0.1471  0.3061
49406W        W92344  32.891  30.915   2.402  0.2244  0.3622 -0.2046
49407W        W92345  30.022  30.589  31.755 -0.2206 -0.0969 -0.3749
49408W        W92346  30.221  30.436   1.754  0.2733  0.2359 -0.0684
49409W        W92347  31.816  30.761   4.232 -0.0681 -0.1724  0.0847
49410W        W92348  29.958  28.596   0.881  0.0154  0.4147  0.0438
49411W        W92349  31.289  28.968   3.604 -0.0762  0.0301  0.1638
49412W        W92350  30.318  32.315  31.880  0.1355  0.0423 -0.1103
49413W        W92351  29.878  31.877   2.295  0.0136 -0.1012  0.3346
49414W        W92352  29.241  31.810   0.386  0.1962 -0.0239 -0.0707
49415W        W92353  28.474  30.180   2.260 -0.0826  0.1736 -0.3009
49416W        W92354  30.030  33.163   3.425 -0.0777  0.1198 -0.1668
49417W        W92355  30.070  31.023   1.095  0.1130 -0.1307 -0.1415
49418W        W92356  31.368  30.948   0.144  0.3281  0.0961  0.2667
49419W        W92357  31.001  31.282   2.449 -0.1012  0.0149  0.1609
49420W        W92358  32.111  31.639   4.455  0.2406  0.1762  0.2906
49421W        W92359  29.648  28.061  31.675  0.2080  0.2331  0.1963
49422W        W92360  32.725  29.964   2.309  0.0641  0.2464 -0.1280
49423W        W92361  30.058  31.408   2.304  0.0954 -0.1261  0.0072
49424W        W92362  29.614  30.599   1.119 -0.0358  0.1168  0.2668
49425W        W92363  30.637  33.077   2.398  0.0800  0.3295 -0.2438
49426W        W92364  29.435  32.669   3.562  0.1644 -0.0421 -0.0232
49427W        W92365  31.357  32.357   1.176 -0.1249  0.1548  0.0425
49428W        W92366  30.444  28.750   2.748 -0.2960 -0.1977 -0.2199
49429W        W92367  31.522  30.045   2.382  0.4641 -0.2617  0.2197
49430W        W92368  29.737  31.652   1.806  0.0861  0.1172 -0.1358
49431W        W92369  31.122  30.160   2.656  0.2219  0.1184  0.3624
49432W        W92370  31.151  32.675   1.749 -0.2733  0.1069 -0.2402
49433W        W92371  29.754  30.483   2.595 -0.0539 -0.0972 -0.0811
49434W        W92372  31.242  32.778   3.302  0.2911 -0.2630 -0.1331
49435W        W92373  32.840  29.889   0.827 -0.1084  0.0003  0.3557
49436W        W92374  30.322  32.125   1.960 -0.2397  0.1669  0.1909
49437W        W92375  29.361  29.241   4.361  0.1778  0.2140  0.3326
49438W        W92376  29.869  31.249   4.129 -0.0953  0.2531  0.0189
49439W        W92377  30.666  31.734   1.753 -0.1278 -0.1491  0.0502
49440W        W92378  29.535  31.063   1.038  0.0224  0.0284  0.0329
49441W        W92379  29.903  31.771   1.138  0.2556 -0.2226 -0.1902
49442W        W92380  30.191  33.573   3.155  0.2301 -0.2124  0.0257
49443W        W92381  28.851  30.966   2.186  0.3590 -0.0603 -0.0679
49444W        W92382  28.759  32.610   1.349 -0.2335  0.0268 -0.1328
49445W        W92383  32.514  31.641   0.194  0.3289 -0.1046 -0.0675
49446W        W92384  31.997  31.510   0.264  0.1106  0.0955 -0.2568
49447W        W92385  30.901  32.549   1.228  0.2041  0.1837 -0.0401
49448W        W92386  29.769  29.609   1.423  0.0654  0.0746  0.0018
49449W        W92387  28.928  32.123   1.369  0.0212 -0.1856  0.1885
49450W        W92388  28.507  32.454   0.978 -0.1311 -0.0649 -0.0558
49451W        W92389  32.210  30.650   0.495 -0.0236  0.0490 -0.0817
49452W        W92390  30.514  32.494   0.492 -0.1408  0.2153 -0.4051
49453W        W92391  31.826  31.778   2.716  0.2133 -0.0585  0.0923
49454W        W92392  31.313  29.429  31.689 -0.0408 -0.1293  0.3997
49455W        W92393  32.275  31.086   1.220  0.1324  0.3858  0.2303
49456W        W92394  33.268  30.549  31.732 -0.1328  0.0212  0.0594
49457W        W92395  30.660  34.354   3.558  0.0573  0.0424 -0.0405
49458W        W92396  31.421  30.448   2.077 -0.1141 -0.2604 -0.2863
49459W        W92397  31.618  30.008  30.865 -0.0410  0.1631 -0.2062
49460W        W92398  29.258  30.186   3.809 -0.2005 -0.0746 -0.0259
49461W        W92399  31.360  28.897   2.765  0.2969  0.0077 -0.0778
49462W        W92400  27.791  33.237   3.139 -0.1734  0.0181 -0.0004
49463W        W92401  31.970  31.603   1.209  0.2327 -0.0014 -0.0700
49464W        W92402  29.996  29.244   0.232 -0.2376  0.2402 -0.2452
49465W        W92403  28.629  32.308   1.889  0.0038 -0.0442  0.0436
49466W        W92404  32.917  28.751   1.831 -0.1827  0.0893 -0.0770
49467W        W92405  31.810  31.925  30.825  0.1714 -0.2181 -0.0800
49468W        W92406  33.094  29.554   2.533 -0.1447 -0.0604 -0.4048
49469W        W92407  30.132  32.954   0.224  0.0540 -0.0584 -0.3993
49470W        W92408  30.327  30.423   1.173  0.2451 -0.1160 -0.2519
49471W        W92409  30.494  32.541   1.675 -0.2340 -0.1203  0.0561
49472W        W92410  28.131  29.640   0.482  0.0154 -0.2763  0.0827
49473W        W92411  31.340  31.011   0.729  0.0107  0.0896 -0.2300
49474W        W92412  30.987  31.642   0.542  0.2281 -0.3613  0.3746
49475W        W92413  33.394  29.490   2.921  0.1994 -0.0795  0.3001
49476W        W92414  29.110  32.417   2.227  0.1955 -0.0527  0.0659
49477W        W92415  31.992  29.855   2.237 -0.0155  0.1490 -0.0001
49478W        W92416  30.563  31.277   2.124  0.0608 -0.0078 -0.0757
49479W        W92417  30.642  30.733   1.922  0.2137  0.2793 -0.3296
49480W        W92418  30.574  30.338   0.021 -0.0640 -0.0596  0.1174
49481W        W92419  32.827  30.948   1.950  0.1812  0.0253 -0.5923
49482W        W92420  30.274  29.965   0.215 -0.1944 -0.0754  0.1778
49483W        W92421  30.514  31.821   3.002  0.0705 -0.0655  0.2292
49484W        W92422  29.056  30.787   1.004  0.2960  0.1137  0.1864
49485W        W92423  30.370  30.053   0.747 -0.2187  0.4128  0.1307
49486W        W92424  28.599  31.149   1.765  0.1341  0.0234 -0.0341
49487W        W92425  28.947  31.916   1.986 -0.1258 -0.1550  0.2428
49488W        W92426  31.873  34.138   3.681 -0.2041  0.1031 -0.4208
49489W        W92427  28.997  31.177   1.415 -0.0685  0.0292  0.1541
49490W        W92428  32.057  30.080   0.185  0.0821 -0.0019 -0.2485
49491W        W92429  31.950  30.752   2.247  0.0939  0.1883  0.0531
49492W        W92430  30.475  33.004   0.601  0.3134 -0.0462  0.1806
49493W        W92431  31.931  29.550  31.950  0.0702  0.1813  0.3545
49494W        W92432  31.092  31.629   1.596  0.0889  0.2745 -0.0205
49495W        W92433  28.240  30.533   2.883 -0.0174 -0.2467  0.1224
49496W        W92434  29.827  33.846   3.509  0.3304 -0.0205  0.0939
49497W        W92435  32.826  31.798   1.081  0.0221  0.1134 -0.1889
49498W        W92436  30.752  29.716   1.270  0.0070 -0.4300 -0.3048
49499W        W92437  28.065  31.118   1.622  0.1828 -0.1903 -0.0531
49500W        W92438  29.029  33.009   1.179  0.1570  0.2659 -0.0326
49501W        W92439  32.821  29.171   1.422  0.1928 -0.0392  0.0204
49502W        W92440  29.603  29.058   1.685 -0.0169  0.1929 -0.0346
49503W        W92441  29.247  31.371  30.029 -0.1079 -0.3999 -0.2087
49504W        W92442  32.031  28.742   1.584  0.0327 -0.2292 -0.0550
49505W        W92443  30.464  31.775   2.284  0.1461  0.0472 -0.0295
49506W        W92444  30.673  33.346   2.896  0.1363  0.0338  0.0086
49507W        W92445  28.416  32.112  31.969  0.0285  0.3810  0.0256
49508W        W92446  31.561  31.328   2.648 -0.0426 -0.1317 -0.0673
49509W        W92447  29.834  32.229   1.919  0.0007 -0.0835  0.0689
49510W        W92448  31.500  31.838   1.527  0.0274  0.0327  0.2013
49511W        W92449  32.344  31.353   1.969  0.0559 -0.0189  0.1603
49512W        W92450  31.579  30.774   1.336 -0.2747  0.2495  0.1996
49513W        W92451  31.689  32.195   1.870 -0.0493 -0.0104 -0.0427
49514W        W92452  29.158  30.398   1.326 -0.0948  0.0897  0.2967
49515W        W92453  31.684  29.743   0.920 -0.2322  0.0455 -0.0262
49516W        W92454  31.259  29.148   1.469  0.0008 -0.0209  0.0738
49517W        W92455  30.076  30.841   2.765  0.1683  0.0769  0.3044
49518W        W92456  28.616  32.363   0.498 -0.2861 -0.0900  0.0423
49519W        W92457  29.343  31.289  31.664 -0.1083 -0.4402  0.1272
49520W        W92458  28.051  30.831   2.116  0.2835 -0.2741 -0.2523
49521W        W92459  30.229  30.384   2.704 -0.2274  0.0581 -0.1031
49522W        W92460  29.507  30.061   3.102 -0.1750  0.0944 -0.0763
49523W        W92461  27.635  29.972   2.738  0.0694 -0.1618 -0.0540
49524W        W92462  30.576  31.901   0.525 -0.0045 -0.0764  0.1553
49525W        W92463  31.719  30.577   0.347  0.1888  0.0512 -0.0062
49526W        W92464  28.890  29.569   1.996 -0.2369  0.3079  0.1479
49527W        W92465  27.639  29.825   1.223  0.0124  0.0336 -0.2657
49528W        W92466  31.828  32.207   0.456 -0.0477 -0.3034  0.1564
49529W        W92467  31.931  31.730   1.909  0.0314 -0.3770 -0.0711
49530W        W92468  30.168  29.903   1.764  0.2224 -0.1926  0.1832
49531W        W92469  31.583  33.257   3.127  0.1085 -0.1311  0.0282
49532W        W92470  27.808  32.415   1.455  0.2155 -0.2228 -0.0089
49533W        W92471  30.739  29.584   3.228  0.2612  0.1038  0.1355
49534W        W92472  29.928  28.667   3.561 -0.1557 -0.2558 -0.1937
49535W        W92473  27.289  29.867   0.310 -0.0717 -0.0417  0.1604
49536W        W92474  30.956  30.358   1.850  0.0645 -0.0273 -0.1716
49537W        W92475  30.230  32.943   1.460 -0.1071 -0.2246  0.0614
49538W        W92476  31.709  32.761  31.671  0.0122 -0.0305 -0.1816
49539W        W92477  29.656  31.399   3.705 -0.1900 -0.1977 -0.0400
49540W        W92478  30.966  32.656   2.351 -0.0900  0.3843 -0.2295
49541W        W92479  29.641  29.555   1.883 -0.3934  0.1144 -0.1815
49542W        W92480  30.888  31.459   1.122 -0.1421 -0.0841 -0.1586
49543W        W92481  29.847  31.824   4.080 -0.1040  0.3200 -0.1605
49544W        W92482  33.782  28.737   1.281  0.2218  0.2323  0.1547
49545W        W92483  32.962  29.340   3.161  0.0491  0.0195 -0.0363
49546W        W92484  31.147  30.591   0.410 -0.1984  0.1592  0.0859
49547W        W92485  28.937  29.979   2.644  0.3328 -0.4507  0.0589
49548W        W92486  29.528  32.252   2.654 -0.1698  0.1495 -0.0583
49549W        W92487  32.354  31.130   0.644  0.0339  0.1649  0.3755
49550W        W92488  29.479  29.978   1.247  0.0877 -0.3922 -0.0530
49551W        W92489  31.317  30.151   1.058  0.0034  0.0147  0.3174
49552W        W92490  30.724  32.198   0.152  0.0982 -0.0867 -0.2106
49553W        W92491  28.164  29.812   2.153  0.2474 -0.3412  0.1230
49554W        W92492  29.781  31.342   1.394 -0.1785  0.2375  0.0745
49555W        W92493  31.489  30.761   3.010  0.0702  0.0539 -0.0490
49556W        W92494  31.240  32.177   2.159  0.1170 -0.1585 -0.2685
49557W        W92495  32.265  30.982   3.640  0.0028 -0.0942 -0.0518
49558W        W92496  30.131  31.026   0.151 -0.0345 -0.1837 -0.0134
49559W        W92497  33.134  30.962   0.653  0.0564 -0.2070 -0.0060
49560W        W92498  30.904  32.406   3.383 -0.0086  0.0369 -0.0990
49561W        W92499  30.979  34.115   3.931 -0.0521 -0.0390  0.0218
49562W        W92500  30.261  32.717   2.732  0.2349 -0.1163 -0.2187
49563W        W92501  32.843  29.724   1.383 -0.0820  0.2589  0.4325
49564W        W92502  29.832  30.517   2.076 -0.1745 -0.1148  0.0469
49565W        W92503  28.934  31.534   1.069 -0.0004 -0.0633 -0.1222
49566W        W92504  30.532  29.696   2.746 -0.4170 -0.2097  0.0537
49567W        W92505  32.524  29.851   1.867 -0.2365 -0.0214  0.0535
49568W        W92506  28.539  30.607   2.014  0.0885 -0.1240  0.1358
49569W        W92507  31.047  30.141   0.629  0.0643  0.2075 -0.0222
49570W        W92508  29.539  32.648   2.157  0.0090 -0.0746 -0.0756
49571W        W92509  30.074  31.980   1.567  0.1617  0.0218 -0.0009
49572W        W92510  30.920  32.642   6.817 -0.0769 -0.3736  0.0389
49573W        W92511  28.627  29.621   2.888 -0.3090 -0.1648  0.1620
49574W        W92512  33.008  29.781   3.379  0.0893 -0.0803 -0.0204
49575W        W92513  31.185  31.173   4.343 -0.0152  0.2204 -0.1191
49576W        W92514  29.075  29.765   4.530  0.0764 -0.2793 -0.1489
49577W        W92515  30.928  31.401   2.992 -0.0127 -0.0520 -0.0196
49578W        W92516  28.918  28.610   6.320  0.0613  0.3380 -0.2717
49579W        W92517  30.614  32.171   5.956  0.3715 -0.0890  0.0313
49580W        W92518  31.923  32.229   6.366  0.2120  0.0158 -0.1080
49581W        W92519  31.124  30.839   2.610  0.1399 -0.1835  0.0803
49582W        W92520  29.598  29.649   5.986  0.5076 -0.1427 -0.2853
49583W        W92521  31.027  32.451   5.077  0.0226 -0.1994 -0.0255
49584W        W92522  30.319  29.199   3.501 -0.2164 -0.3819 -0.0732
49585W        W92523  28.174  29.576   5.110 -0.3792  0.0268 -0.0010
49586W        W92524  30.374  31.441   5.314 -0.1365  0.3036 -0.1918
49587W        W92525  29.428  31.188   4.884  0.2299  0.1703  0.3653
49588W        W92526  29.830  30.339   5.368 -0.0830 -0.1472 -0.2501
49589W        W92527  29.525  29.798   3.601  0.0069  0.0241 -0.1891
49590W        W92528  30.683  33.284   4.238 -0.1154  0.0620  0.1713
49591W        W92529  31.207  30.011   4.337  0.0760  0.0585  0.0146
49592W        W92530  32.696  30.104   6.795  0.4603  0.1729 -0.3165
49593W        W92531  29.241  30.449   3.275  0.2619  0.2081 -0.4933
49594W        W92532  28.878  30.914   3.662  0.2736 -0.0250 -0.1990
49595W        W92533  28.844  30.379   5.725 -0.0623  0.0833  0.1596
49596W        W92534  29.680  31.192   6.189 -0.0391 -0.0973 -0.2115
49597W        W92535  32.136  30.376   4.823 -0.1925  0.0276 -0.1809
49598W        W92536  32.133  31.076   4.459 -0.0269  0.1799  0.0764
49599W        W92537  31.031  33.778   4.791 -0.0498  0.0009 -0.1814
49600W        W92538  30.721  33.244   5.307  0.1402  0.1031 -0.2473
49601W        W92539  30.878  30.269   5.579 -0.0490 -0.0768  0.3002
49602W        W92540  29.449  31.005   5.800  0.0450  0.0413  0.0770
49603W        W92541  28.970  30.944   4.896 -0.1908 -0.1093  0.0588
49604W        W92542  29.585  32.078   5.103  0.0747 -0.3175  0.0305
49605W        W92543  31.675  32.513   4.487  0.0237 -0.2948  0.0868
49606W        W92544  31.377  32.626   6.532 -0.0848 -0.2562  0.2382
49607W        W92545  31.392  33.174   7.406 -0.0404 -0.4026 -0.1527
49608W        W92546  30.403  32.642   3.386 -0.0360  0.3360 -0.1987
49609W        W92547  30.821  32.524   5.505  0.1625  0.2763  0.1718
49610W        W92548  31.016  32.624   5.965  0.1681  0.0022 -0.0986
49611W        W92549  28.740  30.847   5.471 -0.0186 -0.1062 -0.3535
49612W        W92550  30.012  31.147   5.064 -0.2546 -0.1125 -0.1331
49613W        W92551  30.642  33.834   3.089 -0.1711  0.0888  0.0664
49614W        W92552  30.133  32.497   4.678  0.1362  0.2492  0.2046
49615W        W92553  29.977  31.244   6.582  0.2236  0.1270  0.0042
49616W        W92554  29.569  31.768   5.502 -0.2467 -0.2037 -0.0926
49617W        W92555  31.948  30.622   7.240 -0.0170 -0.1101  0.3146
49618W        W92556  30.232  33.282   4.339 -0.0679  0.3269 -0.0396
49619W        W92557  31.500  30.472   3.410 -0.1875 -0.1219 -0.1452
49620W        W92558  31.450  30.949   2.258 -0.0163 -0.0312 -0.1574
49621W        W92559  31.922  30.513   3.134 -0.0876  0.1140  0.0468
49622W        W92560  29.446  29.268   4.932  0.1613  0.1050 -0.1236
49623W        W92561  29.260  32.435   6.102 -0.0162 -0.1287 -0.2768
49624W        W92562  29.619  30.847   3.909 -0.0290  0.0088  0.2453
49625W        W92563  31.419  32.219   5.980 -0.0486  0.0467 -0.0396
49626W        W92564  30.212  31.579   4.310 -0.3336 -0.0080  0.0504
49627W        W92565  29.985  30.855   5.441 -0.0814  0.1480 -0.1283
49628W        W92566  28.554  32.424   5.362 -0.2491  0.3331 -0.0047
49629W        W92567  29.922  31.347   5.768 -0.1137 -0.1527  0.1203
49630W        W92568  31.917  32.697   3.121  0.1971  0.0897 -0.0815
49631W        W92569  31.755  31.734   3.971  0.3368  0.0775 -0.0009
49632W        W92570  30.876  32.923   3.635  0.1231  0.1951  0.1207
49633W        W92571  28.407  29.657   5.518 -0.1988  0.2252 -0.2346
49634W        W92572  27.970  30.972   7.208 -0.2765 -0.0531  0.1678
49635W        W92573  28.989  29.362   6.457 -0.1319  0.0341 -0.0441
49636W        W92574  27.749  28.993   2.439  0.1256  0.3452 -0.1421
49637W        W92575  33.567  31.035   7.109  0.0930 -0.0896  0.0852
49638W        W92576  28.808  31.753   6.636  0.1284 -0.1227  0.1049
49639W        W92577  32.078  30.029   3.063  0.0293 -0.0261 -0.1045
49640W        W92578  29.789  31.871   4.681  0.0583  0.4513  0.1314
49641W        W92579  31.803  32.302   5.687  0.2543 -0.1403 -0.0354
49642W        W92580  32.187  31.377   4.006  0.3015  0.0762  0.0276
49643W        W92581  30.587  29.510   4.093 -0.1606 -0.1653  0.0693
49644W        W92582  31.977  30.050   7.219  0.2295  0.0061  0.3271
49645W        W92583  28.820  30.480   2.450  0.0352  0.1591  0.0467
49646W        W92584  28.553  31.654   4.166 -0.3183  0.2021  0.2495
49647W        W92585  31.635  31.818   6.288 -0.0515  0.3778  0.2718
49648W        W92586  32.325  30.169   3.879  0.1913 -0.3082 -0.1983
49649W        W92587  28.041  32.607   5.579  0.2125 -0.1484  0.0820
49650W        W92588  29.597  30.018   6.369  0.2724 -0.1911 -0.0091
49651W        W92589  31.162  31.120   6.706 -0.1211  0.1690  0.0229
49652W        W92590  28.325  33.050   3.044 -0.2760 -0.0176 -0.1479
49653W        W92591  28.939  31.234   6.206 -0.0718  0.1021 -0.1201
49654W        W92592  29.523  33.412   3.175  0.1061  0.2326  0.0723
49655W        W92593  28.698  28.561   5.874  0.2188  0.0267  0.1019
49656W        W92594  30.335  31.705   5.982  0.1663  0.1025 -0.1524
49657W        W92595  30.632  30.113   2.501 -0.0132 -0.0218  0.0753
49658W        W92596  29.676  30.359   6.739 -0.0083 -0.2023 -0.2808
49659W        W92597  30.397  30.017   4.065  0.1557  0.2179 -0.3306
49660W        W92598  28.863  31.904   4.972 -0.0312  0.1032 -0.1021
49661W        W92599  32.836  32.180   6.807 -0.3256 -0.3034 -0.2312
49662W        W92600  31.527  30.529   4.814 -0.2210  0.0072  0.0566
49663W        W92601  30.084  31.704   2.715 -0.1880  0.0883 -0.1274
49664W        W92602  28.818  31.104   6.728  0.1353 -0.3695 -0.1677
49665W        W92603  28.644  30.718   4.521 -0.2742 -0.1747 -0.1375
49666W        W92604  29.138  29.755   6.763 -0.0551 -0.0541 -0.0383
49667W        W92605  28.667  29.832   6.575 -0.2833 -0.0626 -0.2177
49668W        W92606  32.613  30.693   7.282  0.0093  0.1377 -0.1027
49669W        W92607  28.919  29.904   3.598 -0.0485  0.1944 -0.4679
49670W        W92608  30.463  30.785   5.256  0.1971  0.1432  0.4116
49671W        W92609  29.758  30.790   4.424  0.0770  0.1411  0.0543
49672W        W92610  28.540  31.293   3.717  0.2626  0.1302  0.1836
49673W        W92611  31.535  30.948   7.038 -0.1743 -0.1181 -0.2529
49674W        W92612  31.005  33.320   3.344  0.0175 -0.1255  0.2054
49675W        W92613  32.941  32.777   6.210 -0.1971  0.1575  0.1712
49676W        W92614  31.148  31.065   5.900 -0.1365 -0.3082  0.2173
49677W        W92615  30.496  29.864   6.447 -0.0643 -0.0765  0.0790
49678W        W92616  29.416  31.618   4.331  0.1186 -0.2392 -0.2103
49679W        W92617  28.776  32.449   6.328 -0.1048  0.0095  0.2869
49680W        W92618  29.884  32.876   4.759 -0.0288  0.0603  0.1475
49681W        W92619  29.676  29.524   3.255 -0.1089  0.1537  0.1092
49682W        W92620  31.559  33.783   3.977 -0.5110 -0.2609 -0.1593
49683W        W92621  30.774  30.889   4.472  0.2291  0.3679  0.1387
49684W        W92622  31.170  31.765   6.598  0.1965 -0.0190 -0.0250
49685W        W92623  31.503  29.905   7.363  0.1059  0.0679  0.0497
49686W        W92624  32.069  30.951   6.870 -0.0453  0.1463  0.1315
49687W        W92625  29.321  30.723   4.594 -0.1117 -0.0178 -0.2027
49688W        W92626  28.650  29.266   4.425 -0.0599  0.0822  0.0293
49689W        W92627  31.599  33.523   4.641 -0.0657  0.1875  0.0033
49690W        W92628  29.252  32.694   2.709 -0.0971  0.0838 -0.2957
49691W        W92629  29.353  30.137   5.401  0.0545 -0.0357 -0.1220
49692W        W92630  30.797  32.798   4.155 -0.1920 -0.3724  0.0174
49693W        W92631  31.015  30.655   5.327 -0.1555 -0.2302 -0.1650
49694W        W92632  30.024  30.775   6.480  0.0429  0.3463 -0.0477
49695W        W92633  30.179  30.772   4.832  0.0646  0.1558  0.3998
49696W        W92634  28.956  30.159   2.138  0.0121 -0.0136 -0.2347
49697W        W92635  30.284  34.011   7.893 -0.3227  0.1415  0.1484
49698W        W92636  31.352  28.415   3.776 -0.0714 -0.4769 -0.1890
49699W        W92637  31.109  30.416   3.074 -0.2746  0.0037 -0.0331
49700W        W92638  30.420  29.780   7.426  0.0327 -0.0584  0.1897
49701W        W92639  32.011  32.094   4.279 -0.2850  0.2249 -0.2013
49702W        W92640  30.891  28.728   3.055 -0.1389 -0.3460 -0.1660
49703W        W92641  30.052  30.103   2.262 -0.3013  0.3071 -0.0675
49704W        W92642  29.108  33.158   6.996 -0.1716 -0.1428  0.1341
49705W        W92643  31.605  29.854   5.539 -0.0274 -0.4453 -0.2102
49706W        W92644  29.928  30.807   5.938  0.1093  0.4390 -0.0881
49707W        W92645  30.103  30.527   3.330  0.0615  0.1324 -0.0962
49708W        W92646  31.877  32.249   3.598  0.0793 -0.0834  0.1253
49709W        W92647  29.871  32.301   5.512 -0.1426 -0.0513  0.2319
49710W        W92648  31.843  29.652   6.950  0.0067 -0.2310  0.0785
49711W        W92649  30.711  32.342   4.657  0.3758 -0.0556  0.0695
49712W        W92650  30.100  27.780   5.154  0.1179  0.0195 -0.0888
49713W        W92651  30.645  30.494   3.284  0.2287  0.2353  0.1503
49714W        W92652  30.740  30.327   4.306  0.0617  0.2069  0.1787
49715W        W92653  29.093  31.522   3.412 -0.3968 -0.0548  0.0466
49716W        W92654  32.658  30.903   6.038 -0.1887 -0.2021 -0.0383
49717W        W92655  30.379  30.190   4.663  0.3614  0.0305 -0.0008
49718W        W92656  29.147  27.643   6.249  0.1311  0.2425 -0.1291
49719W        W92657  33.090  30.924   6.976 -0.1469 -0.1568 -0.1129
49720W        W92658  31.214  30.623   4.425 -0.2079 -0.0636 -0.0937
49721W        W92659  31.252  31.443   5.206  0.0349  0.0300 -0.0260
49722W        W92660  29.345  31.021   3.491 -0.0184 -0.1091 -0.0613
49723W        W92661  31.549  28.835   7.210 -0.1176 -0.0134  0.1614
49724W        W92662  30.663  31.340   6.003  0.0848  0.1125  0.0877
49725W        W92663  30.228  32.073   6.381 -0.4047 -0.1270 -0.1946
49726W        W92664  31.443  31.838   7.263 -0.4308 -0.4252 -0.1647
49727W        W92665  30.547  31.142   4.948  0.0309 -0.0189 -0.1796
49728W        W92666  30.873  30.838   6.260  0.0482 -0.0784 -0.1624
49729W        W92667  28.987  29.205   3.177  0.1424  0.0557 -0.0625
49730W        W92668  30.588  32.375   3.817  0.0779 -0.1903 -0.1562
49731W        W92669  31.024  31.743   2.229  0.3056  0.2209  0.0123
49732W        W92670  30.261  30.452   5.730  0.3180 -0.2986 -0.0150
49733W        W92671  30.223  33.172   5.121 -0.0083  0.3166 -0.2803
49734W        W92672  29.170  31.479   1.931  0.1439  0.1311  0.1961
49735W        W92673  31.629  31.038   5.833  0.2454 -0.1277 -0.2730
49736W        W92674  30.101  32.116   5.051 -0.1604 -0.1326  0.0817
49737W        W92675  31.619  29.277   5.597 -0.2428  0.0809  0.1406
49738W        W92676  29.335  32.793   4.749 -0.0123 -0.2867  0.0702
49739W        W92677  30.418  30.073   3.571 -0.0820  0.2019  0.0475
49740W        W92678  28.595  29.441   3.938 -0.0962 -0.2537 -0.2369
49741W        W92679  30.545  30.487   3.824 -0.0250 -0.0319 -0.2051
49742W        W92680  32.039  30.876   4.884 -0.0600 -0.3511 -0.3707
49743W        W92681  29.913  29.105   5.011 -0.1231 -0.1327 -0.1474
49744W        W92682  29.532  28.480   3.279 -0.0446  0.2340  0.2384
49745W        W92683  29.480  31.949   6.987  0.0607 -0.0099  0.0825
49746W        W92684  30.020  29.873   6.110  0.0247  0.0073 -0.1200
49747W        W92685  30.350  29.711   2.199 -0.1490  0.1156 -0.2271
49748W        W92686  31.133  32.208   6.339  0.2566 -0.2270  0.0451
49749W        W92687  30.778  30.725   5.786 -0.1437  0.0881  0.0359
49750W        W92688  28.531  29.681   4.756 -0.2425 -0.5103 -0.2467
49751W        W92689  30.807  31.590   5.028 -0.0532 -0.2827 -0.0005
49752W        W92690  28.356  31.041   4.126 -0.1508 -0.1426 -0.1498
49753W        W92691  28.794  30.404   3.631 -0.1030 -0.1225  0.0204
49754W        W92692  30.858  33.473   5.773 -0.1040  0.1196  0.4548
49755W        W92693  29.634  29.407   3.971  0.1041  0.0611  0.0544
49756W        W92694  29.814  31.287   4.606  0.2663  0.0830 -0.1812
49757W        W92695  29.686  28.989   7.381  0.1730 -0.0387  0.0439
49758W        W92696  31.556  32.453   4.975 -0.0464  0.1531 -0.0012
49759W        W92697  29.769  30.460   4.872  0.0919 -0.0672  0.0569
49760W        W92698  29.005  30.240   4.300  0.1935 -0.2375  0.2212
49761W        W92699  30.252  31.139   4.507 -0.0324  0.1755 -0.0234
49762W        W92700  31.224  31.503   5.728  0.1006 -0.1742  0.1153
49763W        W92701  30.826  30.761   6.811  0.1422 -0.1867 -0.1128
49764W        W92702  30.268  31.456   6.940  0.0846  0.0668 -0.1254
49765W        W92703  30.530  29.426   5.657 -0.1513 -0.0593  0.1286
49766W        W92704  31.617  32.848   3.590  0.0182  0.0637  0.0820
49767W        W92705  31.997  31.292   6.205  0.0563 -0.0921  0.0564
49768W        W92706  30.239  31.333   3.051  0.2928  0.3086  0.0248
49769W        W92707  29.638  30.562   6.266 -0.0680  0.1952  0.2899
49770W        W92708  29.884  32.299   4.228 -0.2403  0.0039  0.2467
49771W        W92709  31.123  29.904   6.356 -0.0649 -0.1909  0.0286
49772W        W92710  29.123  31.957   6.097 -0.0983 -0.0856  0.0684
49773W        W92711  29.287  31.778   3.856 -0.0621  0.2513 -0.1404
49774W        W92712  29.134  32.442   7.347 -0.1304 -0.0285 -0.2240
49775W        W92713  32.407  28.444   2.677 -0.2576  0.0330  0.3125
49776W        W92714  32.007  31.413   2.985 -0.3775  0.3135 -0.2708
49777W        W92715  30.118  29.522   4.256  0.0832  0.2669  0.1318
49778W        W92716  31.883  30.259   5.264  0.0267 -0.2122  0.0347
49779W        W92717  31.049  31.371   3.603  0.0743 -0.1425  0.2626
49780W        W92718  32.107  30.659   8.037 -0.1959 -0.0595 -0.1179
49781W        W92719  29.632  29.616   4.680  0.0237 -0.0965 -0.1176
49782W        W92720  32.058  30.022   6.702  0.1849 -0.0448  0.2273
49783W        W92721  28.668  28.941   6.645 -0.1659 -0.1851 -0.0018
49784W        W92722  32.147  32.208   7.133 -0.2956  0.3399 -0.2491
49785W        W92723  30.719  31.535   6.804  0.1181 -0.0072  0.0558
49786W        W92724  30.136  29.601   3.770 -0.1653 -0.0954 -0.0700
49787W        W92725  29.174  28.346   3.631  0.1606  0.1129  0.0567
49788W        W92726  29.573  31.279   5.401 -0.0477 -0.0531  0.0470
49789W        W92727  31.788  30.512   6.641  0.3428  0.0942 -0.1053
49790W        W92728  31.216  31.743   4.104  0.0020  0.2484 -0.3924
49791W        W92729  31.623  29.806   4.303  0.1684 -0.2083  0.2754
49792W        W92730  29.040  31.708   5.461 -0.1500 -0.2223  0.0426
49793W        W92731  31.263  30.590   5.796 -0.0230 -0.3851 -0.0825
49794W        W92732  31.342  30.969   5.407 -0.0296  0.1510  0.0998
49795W        W92733  30.609  32.137   5.116  0.2058  0.1237  0.2146
49796W        W92734  29.522  29.532   6.505 -0.4123  0.1444 -0.0466
49797W        W92735  31.083  31.064   4.975  0.0765 -0.0029 -0.0850
49798W        W92736  31.348  29.567   5.242  0.0717  0.2111  0.2172
49799W        W92737  31.367  28.848   6.761 -0.2833  0.1109  0.2925
49800W        W92738  31.815  30.203   5.802 -0.3108 -0.1285 -0.2636
49801W        W92739  31.064  29.254   5.599 -0.1793  0.0485  0.0982
49802W        W92740  29.546  28.704   7.019 -0.1595 -0.0820  0.0443
49803W        W92741  31.986  32.706   6.492 -0.4547  0.2252 -0.0660
49804W        W92742  31.838  30.367   7.645  0.0207  0.0948  0.3224
49805W        W92743  33.317  30.442   5.373  0.0306  0.0965  0.0606
49806W        W92744  31.231  31.580   4.707 -0.3017  0.1442  0.0938
49807W        W92745  29.844  29.919   5.628  0.3163  0.1814  0.0469
49808W        W92746  31.399  29.407   6.518  0.0755  0.0461  0.0015
49809W        W92747  29.652  30.028   2.590  0.1885 -0.2249 -0.0752
49810W        W92748  30.899  31.225   5.434 -0.2264  0.2859 -0.0133
49811W        W92749  30.674  32.831   3.026  0.1794 -0.1162  0.2610
49812W        W92750  31.753  31.381   5.370 -0.1861  0.0393  0.3311
49813W        W92751  30.410  31.010   4.053 -0.2676 -0.0534  0.1857
49814W        W92752  28.958  29.402   4.839  0.0548  0.1755 -0.1570
49815W        W92753  30.027  32.709   8.196 -0.0705 -0.1003  0.0748
49816W        W92754  29.256  30.374   2.809  0.0430  0.0167 -0.1474
49817W        W92755  30.467  31.926   4.169 -0.3956  0.0289 -0.3619
49818W        W92756  31.521  32.271   3.200  0.1220  0.1696 -0.1894
49819W        W92757  31.339  31.339   7.534 -0.3186  0.0481  0.1804
49820W        W92758  31.676  28.951   3.922 -0.0646 -0.2436 -0.1951
49821W        W92759  31.962  29.524   6.444 -0.1483  0.1223 -0.3139
49822W        W92760  29.150  32.438   3.903  0.0799  0.3182  0.1924
49823W        W92761  30.105  29.096   3.900  0.3548 -0.1089 -0.3314
49824W        W92762  30.061  33.511   4.810 -0.1119  0.1321 -0.2025
49825W        W92763  29.287  31.473   6.818 -0.0804 -0.0092  0.0621
49826W        W92764  30.241  33.533   3.868 -0.0190  0.1651 -0.1930
49827W        W92765  30.704  30.188   5.124  0.1998  0.1742 -0.1036
49828W        W92766  30.979  32.271   4.173  0.3264 -0.1345  0.1887
49829W        W92767  30.697  31.417   3.948 -0.0291  0.1109 -0.1624
49830W        W92768  31.804  31.381   7.572  0.0549  0.2428  0.1643
49831W        W92769  31.484  31.884   5.432  0.0973  0.3129  0.0154
49832W        W92770  29.731  30.345   5.865  0.1238 -0.1800 -0.1514
49833W        W92771  30.632  32.588   6.345  0.0780  0.3329  0.1363
49834W        W92772  33.049  30.282   7.180  0.2188  0.0021  0.2217
49835W        W92773  30.875  31.890   4.512  0.0028 -0.1096  0.4905
49836W        W92774  30.145  30.569   6.923 -0.2206 -0.0012  0.1981
49837W        W92775  30.384  31.026   5.718  0.1082  0.3180  0.1925
49838W        W92776  31.698  31.300   4.428  0.2667 -0.1681 -0.0831
49839W        W92777  30.320  29.296   4.824 -0.0734  0.2724 -0.0632
49840W        W92778  30.208  31.980   3.786  0.0963 -0.1500  0.0009
49841W        W92779  29.022  32.547   8.593  0.2020  0.0248 -0.0816
49842W        W92780  30.563  30.465   6.518 -0.0698 -0.0720 -0.0149
49843W        W92781  31.261  33.207   6.044 -0.2286  0.0460 -0.1111
49844W        W92782  31.436  31.238   3.151  0.1736 -0.0356  0.1106
49845W        W92783  31.490  32.185   4.116 -0.3644 -0.1100 -0.1368
49846W        W92784  31.293  32.382   5.470  0.0542 -0.1396  0.0970
49847W        W92785  30.421  30.886   3.116  0.0838  0.4114  0.2905
49848W        W92786  28.500  32.051   4.509 -0.1631 -0.0528  0.0229
49849W        W92787  29.068  32.546   4.402  0.0026  0.2523 -0.1201
49850W        W92788  31.331  32.839   5.207  0.0606 -0.0171  0.1772
49851W        W92789  29.852  32.902   5.403  0.0418  0.1289  0.0273
49852W        W92790  31.724  32.449   6.835  0.3021 -0.1218 -0.1814
49853W        W92791  32.747  29.375   3.627 -0.3023  0.0380  0.1772
49854W        W92792  32.729  30.625   5.596  0.0136 -0.1495 -0.1625
49855W        W92793  34.292  30.045   5.233 -0.1169 -0.2190  0.0497
49856W        W92794  29.825  31.597   5.073  0.3528 -0.3157  0.3404
49857W        W92795  30.638  31.057   3.553  0.0080  0.0835  0.1481
49858W        W92796  29.931  30.021   3.381  0.1809  0.0977 -0.1100
49859W        W92797  30.167  30.318   6.275 -0.1494 -0.2843  0.0891
49860W        W92798  32.014  28.927   7.463  0.1309  0.2557 -0.0698
49861W        W92799  29.469  32.622   5.651  0.2572 -0.2257 -0.0332
49862W        W92800  31.080  32.588   2.840  0.1764  0.2732  0.1776
49863W        W92801  28.873  30.174   4.830  0.0213  0.1722  0.0159
49864W        W92802  29.356  31.114   4.304  0.2593  0.0026 -0.1056
49865W        W92803  32.196  29.258   7.082 -0.4543 -0.1463 -0.2450
49866W        W92804  31.019  30.856   3.104 -0.1760  0.0491  0.0109
49867W        W92805  30.331  30.656   4.369  0.3465 -0.2138  0.0040
49868W        W92806  31.149  33.432   4.391 -0.0002 -0.4593 -0.4036
49869W        W92807  30.361  32.263   5.542 -0.0226  0.0583  0.0654
49870W        W92808  30.340  33.768   4.293 -0.0911 -0.0273  0.0130
49871W        W92809  28.218  29.830   4.165 -0.0100 -0.0911  0.1347
49872W        W92810  31.368  29.517   3.806 -0.2672 -0.2572  0.1416
49873W        W92811  29.332  30.604   5.565  0.1091 -0.2521  0.3307
49874W        W92812  31.596  29.905   6.396  0.2136 -0.0074 -0.1871
49875W        W92813  29.078  30.524   5.133 -0.3038 -0.2586  0.0187
49876W        W92814  31.763  30.265   4.460 -0.1378 -0.1103  0.3417
49877W        W92815  30.615  31.815   5.488 -0.3629  0.0763  0.0176
49878W        W92816  28.307  30.176   4.952  0.1224  0.2920 -0.0768
49879W        W92817  31.489  30.460   4.002 -0.1067 -0.0046  0.1189
49880W        W92818  33.422  31.227   8.150  0.0534 -0.1426  0.0811
49881W        W92819  30.486  30.871   2.407  0.0302 -0.1175 -0.0097
49882W        W92820  31.998  32.904   8.785  0.0846 -0.1088 -0.0182
49883W        W92821  29.120  29.381   5.964 -0.3274  0.3129  0.0360
49884W        W92822  31.200  29.410   3.314 -0.0530 -0.1399  0.0867
49885W        W92823  29.564  30.779   5.189 -0.2187  0.3417  0.3587
49886W        W92824  31.384  29.567   5.974  0.1166  0.0170 -0.1928
49887W        W92825  33.487  32.290   7.892 -0.2593 -0.0350 -0.2548
49888W        W92826  29.843  29.972   5.059 -0.0229  0.0632  0.1372
49889W        W92827  30.965  31.877   3.189  0.1657  0.0411 -0.2364
49890W        W92828  31.671  28.675   6.429  0.0539  0.0002  0.1498
49891W        W92829  30.235  34.106   3.936  0.2334  0.4909  0.0303
49892W        W92830  31.811  29.130   6.794 -0.0575 -0.1172  0.1792
49893W        W92831  31.684  33.009   4.605  0.0446 -0.1331  0.1429
49894W        W92832  28.736  28.978   6.090 -0.0048 -0.1609 -0.1590
49895W        W92833  31.703  31.943   4.958  0.3855 -0.2663  0.0972
49896W        W92834  31.216  31.962   5.023  0.1726 -0.1208  0.1128
49897W        W92835  30.748  29.901   4.535  0.2174  0.0657  0.0478
49898W        W92836  29.534  30.384   4.190 -0.2917  0.0920 -0.0718
49899W        W92837  29.202  33.193   3.653 -0.2476  0.1273 -0.1545
49900W        W92838  32.186  29.240   5.381 -0.1804 -0.1188  0.1060
49901W        W92839  32.396  30.504   7.678  0.0920  0.2075 -0.1833
49902W        W92840  30.616   0.086   4.379 -0.4056 -0.1181  0.1736
49903W        W92841  31.285  30.579   6.794 -0.1274  0.1302 -0.0734
49904W        W92842  30.048  32.195   6.844 -0.0456 -0.2675 -0.1013
49905W        W92843  29.422  32.317   7.948 -0.2837 -0.2900  0.3209
49906W        W92844  29.086  32.187   5.314 -0.4072 -0.1925  0.0861
49907W        W92845  30.890  31.772   6.106 -0.1700  0.1022  0.0090
49908W        W92846  30.787  33.580   3.809  0.0002  0.2084  0.2713
49909W        W92847  30.231  31.359   3.698 -0.2955  0.2699 -0.0260
49910W        W92848  31.615  31.788   4.440  0.0045  0.1974  0.0852
49911W        W92849  29.178  30.671   4.029 -0.0588  0.2146  0.0629
49912W        W92850  31.329  32.157   4.584 -0.2408 -0.2096  0.0240
49913W        W92851  29.420  30.224   4.651 -0.1082  0.3390 -0.0055
49914W        W92852  31.672  29.316   4.221  0.3076 -0.3400  0.0988
49915W        W92853  31.030  29.050   4.973 -0.0613  0.0701 -0.0982
49916W        W92854  30.675  32.831   5.017 -0.2496 -0.4347 -0.0467
49917W        W92855  27.465  29.917   3.714  0.0790 -0.4415  0.3764
49918W        W92856  28.844  31.945   3.168 -0.0192 -0.0271  0.2527
49919W        W92857  29.299  31.759   4.828  0.1684 -0.0482  0.2554
49920W        W92858  30.911  29.070   6.746  0.0659  0.1793 -0.1483
49921W        W92859  29.092  29.899   6.273  0.0219  0.1502  0.2028
49922W        W92860  28.695  30.816   6.318  0.0648  0.2921  0.0343
49923W        W92861  29.720  30.438   3.634  0.0792  0.2721 -0.1833
49924W        W92862  31.434  31.297   3.922  0.0375 -0.0779  0.0179
49925W        W92863  29.955  30.165   4.412  0.2427 -0.0231 -0.1054
49926W        W92864  28.497  29.270   5.262 -0.2152  0.0004  0.1364
49927W        W92865  32.206  31.330   5.252  0.0666  0.1443  0.0755
49928W        W92866  32.918  31.314   5.124 -0.2062 -0.2806 -0.2391
49929W        W92867  30.263  30.370   5.183 -0.0180 -0.0738  0.1204
49930W        W92868  31.558  30.314   6.180  0.0871  0.0967 -0.0091
49931W        W92869  29.003  31.423   4.536 -0.2116 -0.0222 -0.0200
49932W        W92870  30.074  30.076   6.788 -0.1197 -0.2340  0.1357
49933W        W92871  31.003  29.654   6.782 -0.1334 -0.1267 -0.2121
49934W        W92872  29.751  29.155   3.539 -0.0006 -0.5032 -0.0040
49935W        W92873  30.104  29.756   4.686  0.1187  0.0239 -0.1382
49936W        W92874  30.530  31.362   2.678  0.1572  0.1807 -0.2325
49937W        W92875  30.446  32.157   3.353  0.0713 -0.0345  0.0978
49938W        W92876  30.049  32.140   5.946 -0.2327  0.3125  0.2467
49939W        W92877  30.387  33.590   7.379 -0.1539 -0.2668 -0.0055
49940W        W92878  28.814  28.394   6.763 -0.0729 -0.2374  0.1635
49941W        W92879  32.272  30.751   5.334  0.0673  0.2026  0.1956
49942W        W92880  29.898  31.661   6.157  0.0032  0.0014 -0.0029
49943W        W92881  31.889  31.456   4.891  0.1696  0.1852 -0.0523
49944W        W92882  31.593  31.090   4.912  0.1358  0.0647  0.0356
49945W        W92883  32.097  32.294   5.203 -0.1951 -0.0118  0.0511
49946W        W92884  29.295  30.341   7.153  0.3845 -0.0672  0.1423
49947W        W92885  30.037  31.067   7.225  0.1888  0.1506 -0.2390
49948W        W92886  32.237  31.258   7.232 -0.1523  0.1060  0.0438
49949W        W92887  30.739  28.017   5.939  0.0883  0.1310  0.0232
49950W        W92888  31.250  29.113   4.092  0.3391 -0.3852 -0.1608
49951W        W92889  31.441  31.684   3.026 -0.0174 -0.1256  0.0764
49952W        W92890  29.478  31.676   6.410  0.1212  0.3098  0.1238
49953W        W92891  30.857  30.883   3.966  0.0583 -0.0654 -0.1359
49954W        W92892  29.382  32.728   7.004 -0.2393  0.0979  0.0454
49955W        W92893  31.661  31.505   5.901 -0.0869  0.3496 -0.4099
49956W        W92894  32.068  31.673   7.961  0.0344 -0.1554 -0.0399
49957W        W92895  29.866  31.024   3.243 -0.0239 -0.1550 -0.1133
49958W        W92896  33.866  30.495   4.429  0.0642  0.2646  0.2606
49959W        W92897  31.795  31.998   6.803  0.0289  0.2087  0.2452
49960W        W92898  32.245  33.645   7.435 -0.1643  0.1224 -0.1117
49961W        W92899  31.970  31.897   5.880 -0.0179  0.3612 -0.1394
49962W        W92900  30.715  31.420   4.493  0.1419  0.1598 -0.1332
49963W        W92901  28.921  28.150   6.104 -0.0652 -0.1724 -0.3456
49964W        W92902  28.664  30.583   4.066  0.2692 -0.0345 -0.2338
49965W        W92903  29.229  32.141   3.484  0.1846  0.2405 -0.1534
49966W        W92904  30.268  31.582   4.849 -0.0893  0.3614 -0.0229
49967W        W92905  29.623  30.941   6.799 -0.5009 -0.2591 -0.1567
49968W        W92906  30.253  28.247   3.506  0.0762  0.0027  0.2346
49969W        W92907  30.445  33.662   5.172 -0.1729  0.0623  0.1237
49970W        W92908  30.054  31.846   5.454 -0.2460 -0.0590 -0.2201
49971W        W92909  32.539  31.636   9.559 -0.0109  0.1323 -0.1360
49972W        W92910  29.805  29.711   8.108  0.0829  0.2468  0.0736
49973W        W92911  32.394  29.344   8.805 -0.0227 -0.1619 -0.1472
49974W        W92912  32.692  30.675   8.054 -0.3327 -0.0038  0.0903
49975W        W92913  28.829  29.167   7.937 -0.1207  0.0417  0.0588
49976W        W92914  30.738  31.133   7.638 -0.1532  0.2692  0.1042
49977W        W92915  32.355  30.656   9.855  0.0229 -0.2214 -0.1948
49978W        W92916  33.376  31.347  10.008  0.3337  0.0577  0.0184
49979W        W92917  31.272  30.032   6.928  0.0059 -0.2079 -0.1120
49980W        W92918  29.227  30.387   9.531 -0.0997 -0.1539 -0.0227
49981W        W92919  31.518  28.653   8.421  0.3888  0.1790  0.1605
49982W        W92920  27.838  29.576   9.757  0.2422  0.1996 -0.1721
49983W        W92921  31.788  30.099   9.123 -0.4026 -0.1121 -0.0805
49984W        W92922  30.476  30.667   7.399  0.1681  0.0745 -0.1927
49985W        W92923  30.693  31.302   8.260  0.0664  0.0721 -0.2249
49986W        W92924  30.424  30.763   6.160 -0.1944 -0.0203  0.1929
49987W        W92925  31.427  33.087   7.995  0.1275 -0.1114  0.1613
49988W        W92926  31.175  28.629   8.868  0.0245 -0.0578  0.0967
49989W        W92927  31.763  31.383   7.073 -0.0467  0.0803 -0.0686
49990W        W92928  30.418  30.210   7.139  0.1916  0.0409 -0.0856
49991W        W92929  29.537  30.019   8.381  0.0775  0.3157 -0.2549
49992W        W92930  29.869  31.967   9.790 -0.0919  0.3223  0.2026
49993W        W92931  33.216  26.630  10.038  0.1390 -0.1278  0.1360
49994W        W92932  33.344  30.485   8.848 -0.1761  0.0197 -0.1529
49995W        W92933  32.505  32.715   9.143 -0.0011  0.0836  0.1071
49996W        W92934  31.896  31.342   8.989  0.0984  0.4175 -0.0838
49997W        W92935  31.606  31.650   9.278 -0.1414  0.1606 -0.4144
49998W        W92936  30.060  32.575   9.119 -0.0172 -0.2585 -0.1110
49999W        W92937  31.517  32.488   8.816 -0.4318  0.1926  0.3678
50000W        W92938  32.092  31.731   7.117 -0.2816  0.0634  0.1976
50001W        W92939  30.450  31.992   7.038 -0.2652  0.4745 -0.1610
50002W        W92940  32.722  31.589  10.024  0.0907 -0.2105 -0.2098
50003W        W92941  32.011  30.009   8.680 -0.1467 -0.0427 -0.2419
50004W        W92942  30.327  33.357   7.869  0.1033 -0.1468 -0.0359
50005W        W92943  31.668  31.970   8.293 -0.0637 -0.0562  0.3618
50006W        W92944  28.863  32.417  10.274 -0.1341  0.2885  0.1321
50007W        W92945  30.062  32.888   7.725  0.1439 -0.4655  0.1411
50008W        W92946  32.487  30.163   7.279  0.3279 -0.0589  0.1345
50009W        W92947  30.111  30.352   7.465 -0.0002 -0.3784 -0.0323
50010W        W92948  31.437  30.481   7.266 -0.3157  0.1159  0.0006
50011W        W92949  31.952  29.050   9.987  0.0680 -0.0946  0.0331
50012W        W92950  30.835  33.516   8.476  0.0571  0.2700  0.1223
50013W        W92951  30.101  29.480   8.851 -0.0452 -0.0795 -0.0546
50014W        W92952  31.257  31.435   7.029 -0.0116  0.0941  0.0580
50015W        W92953  31.462  30.530   9.111  0.0998 -0.4452  0.1029
50016W        W92954  30.157  30.761   8.713  0.0700  0.1652 -0.0921
50017W        W92955  28.197  30.215   8.398 -0.1391  0.3028 -0.4261
50018W        W92956  33.252  30.802   7.946 -0.0688 -0.1845 -0.3002
50019W        W92957  32.867  31.304   9.266 -0.1376  0.0338 -0.1275
50020W        W92958  31.314  32.656   7.089  0.0991  0.0114 -0.0130
50021W        W92959  28.846  30.838   8.817  0.2820 -0.0476  0.1779
50022W        W92960  30.827  29.388   7.711 -0.3089  0.0466  0.1594
50023W        W92961  33.139  28.225   9.173 -0.0042  0.0292 -0.0152
50024W        W92962  30.729  31.790   8.246 -0.1151  0.1903  0.0900
50025W        W92963  33.232  31.841  10.114  0.2115  0.0374  0.3740
50026W        W92964  31.972  31.111   8.185 -0.1267 -0.2038 -0.1957
50027W        W92965  29.532  29.872   9.632  0.1322 -0.1509 -0.2725
50028W        W92966  31.802  29.823   9.537 -0.1842  0.2054 -0.3225
50029W        W92967  30.204  31.244   6.161 -0.0470 -0.1536  0.1721
50030W        W92968  31.123  31.004   8.288 -0.2595 -0.1462  0.0804
50031W        W92969  33.340  31.133   9.407  0.1157 -0.2732 -0.1447
50032W        W92970  32.516  29.894   8.543  0.0666 -0.1450  0.1525
50033W        W92971  29.359  33.488   8.743  0.0357  0.4410 -0.1190
50034W        W92972  30.145  33.120   7.323  0.2812 -0.0905  0.2906
50035W        W92973  30.023  30.280   9.135  0.2045  0.1711  0.1524
50036W        W92974  30.341  31.610   6.467  0.2284  0.2169 -0.0434
50037W        W92975  29.539  29.532   9.949 -0.2708 -0.2946 -0.0436
50038W        W92976  32.056  32.354   9.709 -0.1195 -0.1635 -0.1991
50039W        W92977  31.621  28.649   7.870 -0.1472 -0.1391 -0.1827
50040W        W92978  32.763  27.395   8.088  0.1301 -0.0383 -0.5043
50041W        W92979  29.767  32.208   7.328  0.5191 -0.0834 -0.0645
50042W        W92980  31.784  32.693   7.954 -0.1426 -0.0893 -0.3518
50043W        W92981  32.460  28.933   8.515  0.0181 -0.2270 -0.0684
50044W        W92982  31.832  33.447   6.847  0.1936  0.0804  0.2277
50045W        W92983  32.997  30.413   9.790 -0.2268  0.2232  0.0809
50046W        W92984  30.755  29.547   8.237 -0.1244 -0.2005  0.1422
50047W        W92985  30.684  28.186   8.886  0.2056  0.0082  0.4605
50048W        W92986  28.697  29.247   7.388  0.3785 -0.4231  0.2810
50049W        W92987  32.728  29.932   9.613 -0.0610 -0.1191  0.0449
50050W        W92988  31.082  31.467   7.991  0.0715  0.0097  0.3451
50051W        W92989  29.811  31.307   8.217  0.2459 -0.2068 -0.1892
50052W        W92990  31.669  32.363   7.321  0.0329 -0.3521 -0.2957
50053W        W92991  32.820  30.551   9.007 -0.1075 -0.0223 -0.1074
50054W        W92992  31.893  31.550   8.464 -0.0952 -0.1300 -0.0748
50055W        W92993  31.117  30.295   9.388  0.1877 -0.1641 -0.0228
50056W        W92994  29.474  29.255   8.114 -0.0930 -0.1301  0.3570
50057W        W92995  29.511  32.257  10.140  0.2920 -0.1930 -0.0415
50058W        W92996  31.332  32.406   8.331  0.2350 -0.3903  0.4167
50059W        W92997  30.588  30.232   7.599 -0.3266  0.1252  0.0113
50060W        W92998  32.221  32.768   7.171 -0.3523 -0.2965 -0.1226
50061W        W92999  32.553  31.010   9.003  0.1327  0.0323 -0.1553
50062W        W93000  32.131  28.099  10.172 -0.2490  0.1859 -0.0605
50063W        W93001  32.088  29.622   9.075 -0.0169  0.4243  0.1713
50064W        W93002  29.629  29.427   7.037  0.0318 -0.0940 -0.0722
50065W        W93003  32.699  32.932   8.302  0.3656 -0.1870  0.0855
50066W        W93004  29.162  32.733   6.546 -0.3180  0.3544  0.0709
50067W        W93005  29.464  31.526   8.603 -0.1255 -0.0556  0.0494
50068W        W93006  31.060  32.292   7.375 -0.1879 -0.1995 -0.1854
50069W        W93007  32.847  29.300   8.976 -0.0024  0.2583 -0.3177
50070W        W93008  29.570  29.888   6.888 -0.1015  0.1014 -0.0610
50071W        W93009  31.486  29.141   8.770  0.1163 -0.1790 -0.0566
50072W        W93010  32.700  29.783   8.067  0.0603 -0.1341 -0.0471
50073W        W93011  32.237  32.160   8.497 -0.0901  0.0352 -0.0724
50074W        W93012  31.221  30.022   5.862  0.1433  0.4205 -0.0071
50075W        W93013  30.620  29.394   6.558  0.0304  0.0550 -0.3524
50076W        W93014  31.596  31.779  10.269 -0.1238 -0.0179  0.0425
50077W        W93015  31.005  30.763   9.180  0.2246 -0.0906 -0.0277
50078W        W93016  30.273  30.399   8.384  0.2833  0.1113 -0.0082
50079W        W93017  33.170  31.549   7.832 -0.1194  0.3400 -0.0915
50080W        W93018  30.002  29.776   9.695  0.0489 -0.0086  0.2202
50081W        W93019  33.522  30.516   9.422  0.0704  0.2204 -0.0039
50082W        W93020  31.459  31.621   9.830 -0.0940  0.1486  0.0855
50083W        W93021  29.264  29.106   7.670 -0.2661 -0.0064 -0.0789
50084W        W93022  31.808  30.425   9.634 -0.2534  0.0150 -0.2821
50085W        W93023  28.484  33.210   5.823 -0.1158  0.1908  0.0220
50086W        W93024  33.219  32.819   8.624  0.1496  0.1955 -0.2244
50087W        W93025  31.916  29.187   9.509 -0.1426 -0.1607  0.3231
50088W        W93026  31.176  29.106   8.369  0.1663  0.1148  0.0368
50089W        W93027  31.541  31.232   8.481 -0.2221 -0.0494  0.3038
50090W        W93028  28.913  29.969   7.510 -0.2732  0.2157  0.3052
50091W        W93029  33.234  30.847   9.996 -0.1866  0.0905  0.2342
50092W        W93030  30.810  32.371   8.312  0.1476  0.1230 -0.4210
50093W        W93031  31.501  31.586   8.782 -0.1270 -0.0258 -0.2237
50094W        W93032  30.253  30.112   8.025  0.3043 -0.0153 -0.0608
50095W        W93033  30.778  33.353   7.470  0.1405  0.2657  0.4043
50096W        W93034  31.193  31.418   6.278  0.3876  0.3427 -0.2133
50097W        W93035  30.312  28.405   9.386 -0.1248  0.1031 -0.0704
50098W        W93036  31.357  32.037   8.679  0.0228  0.1628 -0.3048
50099W        W93037  29.902  31.736   6.675 -0.1499  0.0635  0.1589
50100W        W93038  33.114  33.308   8.874 -0.1425 -0.1415 -0.1567
50101W        W93039  29.857  32.435   7.755  0.0899  0.1894  0.1762
50102W        W93040  31.021  29.414   9.488  0.2024  0.0011 -0.1232
50103W        W93041  29.488  32.141   9.376 -0.2003  0.0379 -0.2524
50104W        W93042  30.101  29.348   7.458 -0.2054  0.0492 -0.2046
50105W        W93043  29.521  30.830   7.886  0.0914  0.1324  0.0698
50106W        W93044  33.207  29.526   8.065  0.0141 -0.1109  0.4040
50107W        W93045  32.426  30.240   8.210 -0.2047  0.1689  0.2744
50108W        W93046  32.234  28.605  10.002 -0.2302 -0.0684 -0.2183
50109W        W93047  33.532  32.835  10.037  0.0277 -0.1093 -0.0369
50110W        W93048  27.216  29.465  10.203  0.3668 -0.0649  0.0069
50111W        W93049  31.263  30.113   8.120  0.0106 -0.1613  0.0155
50112W        W93050  28.705  29.707   7.166  0.1848 -0.2040  0.5177
50113W        W93051   0.148  29.380  10.187 -0.1781  0.0666 -0.1332
50114W        W93052  30.279  31.561   8.136 -0.1103 -0.1359 -0.2143
50115W        W93053  30.841  32.053   8.648  0.1478 -0.1979 -0.1196
50116W        W93054  33.054  30.792   9.489  0.4126  0.0083  0.1508
50117W        W93055  29.899  30.756   8.230 -0.1199 -0.1726  0.0010
50118W        W93056  29.274  31.733   9.703  0.2535  0.0229  0.1942
50119W        W93057  32.617  30.486   9.439  0.2519 -0.1709  0.0983
50120W        W93058  29.103  32.278   9.046 -0.0462  0.2106  0.0824
50121W        W93059  30.237  29.365   8.355  0.2200  0.0735  0.1965
50122W        W93060  31.288  29.848   9.284  0.1249  0.0164  0.3210
50123W        W93061  31.175  32.991   9.739  0.0929  0.2754 -0.0917
50124W        W93062  31.726  30.022  12.680 -0.0087  0.0575  0.0013
50125W        W93063  31.656  29.218   8.175  0.1137  0.0464 -0.1777
50126W        W93064  31.608  32.846   9.171  0.0440 -0.1225  0.1449
50127W        W93065  30.318  30.531   7.849 -0.1673  0.1146 -0.1850
50128W        W93066  31.052  31.486   9.411  0.0229  0.0555  0.0168
50129W        W93067  30.428  31.987   7.543  0.1961  0.4254 -0.0716
50130W        W93068   0.012  30.327  10.242 -0.0553 -0.1332  0.0530
50131W        W93069  30.962  32.533   8.794  0.2806  0.2651 -0.1127
50132W        W93070  30.925  32.628   7.887 -0.1586 -0.1379 -0.0535
50133W        W93071  30.334  29.676   9.266  0.0449  0.0914 -0.1488
50134W        W93072  32.208  29.471   7.864 -0.1100 -0.4985  0.1723
50135W        W93073  31.554  31.730   7.880 -0.1525 -0.0686  0.0981
50136W        W93074  31.129  29.466   8.936 -0.0049 -0.0822  0.3665
50137W        W93075  30.893  29.829   7.857  0.1527  0.2006 -0.1695
50138W        W93076  27.802  29.076   9.726  0.1066  0.0625  0.0224
50139W        W93077  33.020  32.789  10.106  0.1155 -0.1188 -0.3303
50140W        W93078  31.517  29.756   8.868 -0.0621  0.3671  0.1229
50141W        W93079  30.122  29.544   6.535  0.1329 -0.0058  0.1062
50142W        W93080  33.662  31.504   9.568 -0.5885  0.2318 -0.0117
50143W        W93081  33.924  30.906   9.414  0.0016 -0.1888 -0.1148
50144W        W93082  31.977  31.896   8.892 -0.0391  0.1154  0.0000
50145W        W93083  31.922  29.495   8.580 -0.1390  0.4274  0.0670
50146W        W93084  30.418  30.185   9.450 -0.0561  0.1235  0.2493
50147W        W93085  30.992  30.563   8.276  0.4448  0.0055 -0.2567
50148W        W93086  30.571  31.101   7.131 -0.1105  0.3431 -0.0589
50149W        W93087  30.128  29.238   9.327  0.2510 -0.3834  0.3335
50150W        W93088  33.093  30.219   9.300 -0.3726  0.1292 -0.0174
50151W        W93089  30.692  30.395   8.684  0.0094 -0.1730  0.1701
50152W        W93090  31.114  32.315   9.203  0.2316  0.2057  0.5301
50153W        W93091  32.790  30.621   6.712 -0.1135 -0.1321  0.0907
50154W        W93092  34.082  32.640   9.425 -0.1833 -0.1384 -0.1188
50155W        W93093  33.497  30.004   8.798 -0.3476  0.4556 -0.2483
50156W        W93094  31.409  29.275   7.621  0.2666 -0.1740 -0.2281
50157W        W93095  30.350  29.837   8.432 -0.2042 -0.0566 -0.1452
50158W        W93096  30.858  29.866   7.226 -0.0312 -0.1189 -0.1993
50159W        W93097  30.980  31.920   7.079 -0.1207  0.1371 -0.1270
50160W        W93098  31.143  31.785   9.062  0.2525 -0.0702  0.1666
50161W        W93099  31.653  29.835   8.328  0.1559  0.1873  0.0886
50162W        W93100  28.634  31.514  10.074  0.1833  0.1439 -0.0352
50163W        W93101  30.029  28.777   7.083  0.5471 -0.2520 -0.0098
50164W        W93102  30.663  31.589   7.799 -0.0386  0.1543  0.0918
50165W        W93103  32.087  32.414   8.993  0.0507 -0.3316  0.1258
50166W        W93104  31.076  28.413   7.734 -0.1287 -0.1891 -0.1570
50167W        W93105  29.784  32.101   8.229 -0.1076  0.1691  0.4832
50168W        W93106  30.307  28.620   8.869 -0.0151 -0.1341  0.0719
50169W        W93107  31.903  30.955   8.676 -0.1119 -0.2115  0.3481
50170W        W93108  31.347  32.650   7.577  0.0758  0.0021 -0.0893
50171W        W93109  31.937  30.943   9.660 -0.1211  0.0567  0.6422
50172W        W93110  30.457  29.347   9.657 -0.0080 -0.0203  0.2100
50173W        W93111  31.510  31.230   8.011 -0.2082  0.0261 -0.1265
50174W        W93112  30.983  32.030   9.543 -0.0948  0.1874  0.0097
50175W        W93113  32.910  31.116   7.868  0.1422  0.2207  0.0404
50176W        W93114  29.542  30.240   9.077 -0.3070 -0.3258 -0.0786
50177W        W93115  31.177  31.896   8.161  0.2532 -0.2008 -0.1931
50178W        W93116  30.716  28.981   8.255  0.2443 -0.0720 -0.1496
50179W        W93117  31.585  30.779   8.220  0.0792 -0.0571 -0.1546
50180W        W93118  29.409  29.758   8.859 -0.0830 -0.2448 -0.2729
50181W        W93119  30.676  33.971   8.290  0.1030  0.0804 -0.0226
50182W        W93120  31.881  31.913   7.560  0.1832  0.2473  0.0309
50183W        W93121  30.804  32.136   7.804 -0.0344 -0.3885 -0.1333
50184W        W93122  32.203  33.363   9.676  0.3572  0.0003  0.3498
50185W        W93123  31.118  29.812   8.519  0.0447  0.2373 -0.0096
50186W        W93124  28.320  32.284   9.885  0.0113  0.2851 -0.0861
50187W        W93125  29.535  31.790   7.948  0.1919 -0.0970 -0.0600
50188W        W93126  32.486  32.058   7.774  0.2262 -0.3272 -0.2539
50189W        W93127  30.545  32.881   8.167  0.0512  0.0255  0.1774
50190W        W93128  32.437  29.412   8.330 -0.4779  0.0182  0.0443
50191W        W93129  33.137  31.625   9.624  0.1390  0.0199  0.1732
50192W        W93130  31.918  28.918   8.558 -0.1105  0.0278  0.0025
50193W        W93131  31.131  30.182   8.886  0.0775 -0.0799  0.1382
50194W        W93132  31.075  30.373   6.378 -0.0092 -0.2791 -0.2989
50195W        W93133  32.829  33.135   6.525 -0.1117 -0.0994  0.1416
50196W        W93134  29.975  29.927   7.664  0.4012 -0.3110 -0.0070
50197W        W93135  30.618  31.891   9.140  0.2030 -0.2044  0.1157
50198W        W93136  31.091  29.049   9.169  0.0011 -0.0258 -0.0683
50199W        W93137  31.669  30.839   7.646  0.0169  0.4056 -0.2743
50200W        W93138  31.333  30.765   8.719  0.5367 -0.0627  0.1452
50201W        W93139  30.693  31.976   6.531 -0.3707  0.1439  0.0466
50202W        W93140  30.468  30.642   9.070  0.1056  0.0088 -0.0377
50203W        W93141  31.096  32.866   8.295  0.1493 -0.1592 -0.0136
50204W        W93142  28.848  30.414   8.430 -0.0214 -0.0692  0.1216
50205W        W93143  34.544  31.081  10.074  0.1624  0.3520 -0.0588
50206W        W93144  31.553  32.124   9.770  0.0858 -0.2079  0.2334
50207W        W93145  30.245  31.193   8.482  0.0346 -0.2147  0.2017
50208W        W93146  32.132  28.102   8.973 -0.2407  0.4075 -0.0415
50209W        W93147  31.053  31.518   8.537 -0.0136 -0.0493 -0.0454
50210W        W93148  27.775  26.951   9.331 -0.0858 -0.2199 -0.0114
50211W        W93149  30.902  30.406   7.159  0.1169  0.0568 -0.2294
50212W        W93150  30.693  30.235   6.058  0.0008 -0.0791 -0.0936
50213W        W93151  29.919  29.952   8.754 -0.0416 -0.1450  0.0307
50214W        W93152  31.735  30.300   8.111  0.0918  0.2881  0.0414
50215W        W93153  29.363  31.057   8.325 -0.0261  0.0382 -0.0297
50216W        W93154  30.440  32.479   7.859 -0.1040  0.1733  0.1842
50217W        W93155  29.953  29.260   7.927 -0.2896 -0.0286 -0.0011
50218W        W93156  32.072  31.516   6.665  0.0554  0.1824 -0.2081
50219W        W93157  33.231  29.694   9.348  0.2656  0.2640 -0.1752
50220W        W93158  30.446  32.481   6.841  0.0043  0.2782  0.4501
50221W        W93159  32.366  30.214   8.930 -0.0206 -0.3328 -0.0099
50222W        W93160  32.855  31.193   9.832 -0.1026  0.2215  0.0418
50223W        W93161  31.892  27.987   9.403 -0.0596  0.1815  0.0391
50224W        W93162  32.524  32.456   8.124  0.2467  0.1477  0.1271
50225W        W93163  32.985  31.013   8.417 -0.0110  0.0054  0.0639
50226W        W93164  32.150  29.819   8.214  0.2523  0.2161 -0.1419
50227W        W93165  30.551  30.808   8.254 -0.1876  0.2007  0.0975
50228W        W93166  29.887  33.367   8.758  0.4233 -0.0342  0.0621
50229W        W93167  32.295  30.068   9.960 -0.0541  0.1406 -0.0477
50230W        W93168  29.695  32.769   7.377  0.2820  0.1953 -0.1306
50231W        W93169  30.812  30.944   8.735 -0.1303 -0.3183 -0.1876
50232W        W93170  30.650  32.517   7.290  0.1111 -0.0817  0.0014
50233W        W93171  31.679  32.255   9.246 -0.1827  0.0423 -0.1098
50234W        W93172  30.537  32.904   7.681  0.1182  0.0393 -0.2770
50235W        W93173  32.348  31.641   7.508 -0.0408 -0.2918  0.0728
50236W        W93174  30.869  30.682   7.739  0.4822  0.0672 -0.0638
50237W        W93175  31.791  30.093  10.119  0.0807  0.2536  0.3470
50238W        W93176  32.110  30.607   9.242  0.0529 -0.0020  0.0005
50239W        W93177  34.418  27.846   9.134  0.0098 -0.2418  0.0458
50240W        W93178  31.548  29.465   9.734 -0.3857  0.0876 -0.2134
50241W        W93179  31.368  31.165  10.135  0.0757 -0.1092  0.1882
50242W        W93180  29.820  30.324   8.014 -0.0742  0.2021 -0.5204
50243W        W93181  31.110  30.925   7.244 -0.0271 -0.0610  0.0723
50244W        W93182  28.946  32.700   9.257 -0.0755  0.1107  0.0862
50245W        W93183  29.807  30.333   9.572  0.0673 -0.1035  0.0064
50246W        W93184  29.146  28.453   8.684 -0.2067  0.0010 -0.0014
50247W        W93185  31.099  31.790   7.611  0.0682  0.2539 -0.0357
50248W        W93186  28.966  28.352   9.287 -0.0604  0.0238  0.0092
50249W        W93187  28.832  29.200   9.451  0.0005  0.2824  0.2563
50250W        W93188  32.034  30.480   8.582  0.3163  0.0408 -0.1116
50251W        W93189  32.148  32.897   8.246  0.0720  0.0495 -0.1752
50252W        W93190  30.815  29.829   9.139 -0.3378  0.0919  0.0631
50253W        W93191  29.947  30.844   7.618  0.1565  0.0284 -0.0008
50254W        W93192  29.124  28.912   7.216 -0.0551  0.0121  0.0944
50255W        W93193  31.477  29.172  10.204 -0.0199  0.1531  0.1083
50256W        W93194  32.053  31.948   9.382  0.3412  0.1489 -0.2408
50257W        W93195  31.996  33.151   7.789 -0.1473  0.0036 -0.0395
50258W        W93196  29.104  29.385   8.997  0.0066  0.0477  0.1536
50259W        W93197  32.595  30.732   8.585  0.1955 -0.0885 -0.0566
50260W        W93198  33.227  31.921   8.183  0.1793  0.4053 -0.0343
50261W        W93199  32.581  29.765   9.047  0.1965  0.1364  0.3046
50262W        W93200  30.428  30.034   8.908 -0.0364  0.0641  0.0231
50263W        W93201  32.931  31.848   9.256  0.0716 -0.0213  0.2170
50264W        W93202  29.644  29.299   9.126  0.0381 -0.0123 -0.0936
50265W        W93203  31.295  29.566   8.058 -0.0754  0.0795 -0.3233
50266W        W93204  31.475  32.193   7.799 -0.0136  0.1357  0.0285
50267W        W93205  29.140  29.493   8.490  0.1248 -0.0321 -0.0868
50268W        W93206  31.152  30.189   7.556  0.1212  0.0301  0.0827
50269W        W93207  32.315  33.778   9.212 -0.2023  0.1673 -0.0502
50270W        W93208  30.315  31.460   7.434 -0.1693  0.0218 -0.0870
50271W        W93209  31.408  30.776   6.330 -0.0952  0.0496 -0.0714
50272W        W93210  30.780  34.197   9.152  0.0070  0.1377  0.0456
50273W        W93211  33.998  34.190   9.733  0.0338  0.0433  0.1941
50274W        W93212  34.120  31.808   8.925  0.0708 -0.2999 -0.2145
50275W        W93213  28.834  30.100   9.645  0.0265  0.2221  0.0892
50276W        W93214  30.262  31.046   7.885 -0.0574 -0.0055 -0.1707
50277W        W93215  29.965  31.420   8.969  0.2267  0.1500 -0.1012
50278W        W93216  33.136  29.929   8.413 -0.0683  0.0824 -0.1822
50279W        W93217  29.180  27.643   9.854  0.1261 -0.0384 -0.1963
50280W        W93218  30.720  30.086   8.280 -0.3584 -0.3227  0.3782
50281W        W93219  31.742  33.367  10.053 -0.2022 -0.0239  0.0544
50282W        W93220  32.379  31.540   9.104  0.1211 -0.0709 -0.2619
50283W        W93221  30.711  33.968   0.843  0.0142  0.2883  0.0795
50284W        W93222  32.454  33.263  30.501  0.1515  0.3092  0.1034
50285W        W93223  33.215  33.954   0.573  0.0224  0.1625 -0.1388
50286W        W93224  28.323  34.304   1.265 -0.1231 -0.1761 -0.2836
50287W        W93225  29.972  32.679   3.147 -0.3361 -0.0751  0.2826
50288W        W93226  31.881  33.853  30.721  0.1605  0.4093 -0.2057
50289W        W93227  30.791  32.903   1.572 -0.0021  0.0391  0.0696
50290W        W93228  32.182  33.751  31.761 -0.3460 -0.0608 -0.0096
50291W        W93229  30.316  33.508   2.595  0.2769 -0.3679 -0.1131
50292W        W93230  32.272  33.139   2.168  0.4485 -0.1730  0.0200
50293W        W93231  30.120  34.046   0.870 -0.0203 -0.0608 -0.0064
50294W        W93232  29.865  33.175   1.677  0.2766 -0.2119  0.2808
50295W        W93233  31.359  34.049  31.609  0.5506 -0.1513  0.0532
50296W        W93234  30.043  34.532   2.296 -0.3855 -0.1605  0.0343
50297W        W93235  31.609  34.052   3.227  0.2381  0.1643  0.1578
50298W        W93236  30.546  33.751  31.160 -0.1578  0.0857 -0.0140
50299W        W93237  29.813  33.692   2.789  0.0654 -0.2256 -0.4236
50300W        W93238  30.339   0.071   3.247 -0.1718 -0.3297  0.2398
50301W        W93239  31.536  33.358   2.106 -0.1128 -0.0703 -0.1847
50302W        W93240  32.884  34.643   1.480  0.1287 -0.0705 -0.0792
50303W        W93241  31.365   0.400   2.763  0.0270 -0.3100 -0.0738
50304W        W93242  31.483   1.567   3.296  0.0839  0.1708 -0.2920
50305W        W93243  30.700  34.360   0.565  0.0285  0.0635 -0.1695
50306W        W93244  33.567  33.553   2.435  0.1085  0.0373 -0.0729
50307W        W93245  32.433   0.178  31.732  0.0377 -0.2574  0.0866
50308W        W93246  29.932  33.180  31.332 -0.4022  0.0881 -0.0682
50309W        W93247  32.299  32.347   0.548 -0.1730  0.1582 -0.1751
50310W        W93248  32.433  34.543   0.164  0.1096  0.0571  0.0368
50311W        W93249  30.541   1.013   1.836  0.4483  0.1701  0.2570
50312W        W93250  31.218  33.778   2.075 -0.3961  0.2352 -0.0610
50313W        W93251  32.835  33.955   2.471 -0.1644  0.1445  0.0448
50314W        W93252  29.544  34.198   1.704 -0.4498  0.2285  0.2046
50315W        W93253  29.986  33.736   1.696  0.3195 -0.1081  0.2027
50316W        W93254  29.511   0.524   2.895 -0.1242  0.1453 -0.0548
50317W        W93255  28.796  33.879   2.359 -0.0198 -0.1613 -0.2485
50318W        W93256  30.192  33.314  31.767 -0.0715  0.1446 -0.1704
50319W        W93257  32.588  32.751   0.015  0.1103 -0.2180 -0.0014
50320W        W93258  30.643  32.276   0.889 -0.2256 -0.1308 -0.1165
50321W        W93259  31.812  33.663   2.927  0.0675 -0.2571 -0.2243
50322W        W93260  31.199  34.271   0.800  0.2413 -0.0535 -0.0706
50323W        W93261  30.219  34.637   3.924  0.0310  0.5459  0.0483
50324W        W93262  26.955  32.995   1.358 -0.1674  0.1156 -0.0713
50325W        W93263  31.676  33.465   0.740  0.2353 -0.0093  0.0085
50326W        W93264  29.155  33.718   2.043  0.1040 -0.1186 -0.0499
50327W        W93265  31.892  34.419   0.336  0.0795  0.0095  0.0935
50328W        W93266  33.722  34.329  31.799 -0.1642 -0.0248  0.0092
50329W        W93267  29.001  33.155   1.805 -0.1248 -0.1729 -0.2426
50330W        W93268  31.024  33.336   0.843 -0.0419 -0.1728  0.1844
50331W        W93269  29.591  34.299   3.382 -0.1914 -0.0071 -0.1899
50332W        W93270  28.253  33.870   2.778 -0.2666  0.2625  0.1481
50333W        W93271  32.102   0.726   3.475 -0.3027 -0.1423 -0.3297
50334W        W93272  29.994  32.774   0.722  0.0791  0.0762 -0.1199
50335W        W93273  31.770  33.604   1.577 -0.1632 -0.0836  0.0110
50336W        W93274  30.121   0.268   1.326  0.1674  0.0855 -0.2468
50337W        W93275  31.424  33.642   3.391 -0.0227  0.0613 -0.0880
50338W        W93276  29.845   0.070   3.297 -0.1289  0.1876 -0.1733
50339W        W93277  30.769  33.655   1.235  0.1486  0.0960 -0.0083
50340W        W93278  30.140  33.369   1.179 -0.1265 -0.0687 -0.1256
50341W        W93279  32.040  33.378   2.551  0.3164 -0.3490 -0.1572
50342W        W93280  30.357  34.310   1.353 -0.1288  0.0059  0.0674
50343W        W93281  28.844  32.088  31.710 -0.1169 -0.2039  0.1993
50344W        W93282  28.605  33.115   1.406 -0.2154  0.1591 -0.0190
50345W        W93283  32.651  34.099  31.687 -0.3144 -0.0471 -0.2582
50346W        W93284  29.529  34.338   2.891 -0.2298  0.1168  0.0189
50347W        W93285  31.626   0.834   3.467  0.3654 -0.1706 -0.2403
50348W        W93286  30.836  33.648   0.419 -0.0552 -0.2463  0.0929
50349W        W93287  31.859  32.463   0.998  0.0425 -0.1582  0.2662
50350W        W93288  31.854  33.210  31.566 -0.0906 -0.0983  0.0336
50351W        W93289  31.601  33.421  31.194  0.2040  0.0825 -0.0747
50352W        W93290  32.015  33.744  31.242 -0.1188  0.1150  0.0739
50353W        W93291  31.663  32.915  31.095  0.3554  0.2387  0.1535
50354W        W93292  30.856  34.188   2.814  0.3534  0.0242 -0.1948
50355W        W93293  31.689  33.663  31.681 -0.0531 -0.2580 -0.3965
50356W        W93294  31.606  32.993   0.892  0.0840 -0.0790  0.1204
50357W        W93295  31.771  34.582   3.368 -0.0055 -0.0654 -0.0136
50358W        W93296  31.343  32.928   2.277 -0.2361  0.1857 -0.3178
50359W        W93297  30.101  32.970   2.360 -0.0094  0.0442 -0.0250
50360W        W93298  32.225   1.655   3.495  0.0336 -0.2124 -0.0026
50361W        W93299  33.309   0.003  31.652  0.1978 -0.1950  0.1215
50362W        W93300  31.840  34.286   2.791  0.0742 -0.0052 -0.0736
50363W        W93301  30.835  33.177   0.127 -0.0403  0.1971 -0.2396
50364W        W93302  30.778  33.712   2.607  0.0871  0.0141 -0.1217
50365W        W93303  29.724  34.429   3.875  0.2422 -0.0434  0.0491
50366W        W93304  31.875  33.202   0.412 -0.0370  0.0272  0.3406
50367W        W93305  30.095  34.218   1.819  0.1149 -0.0586  0.2456
50368W        W93306  31.433  33.434   1.155 -0.0385 -0.0028  0.3005
50369W        W93307  31.190  33.556  31.715  0.2555  0.1683  0.1472
50370W        W93308  30.421  33.251  31.300 -0.1734  0.1625  0.2273
50371W        W93309  31.666  32.000   1.049 -0.1288 -0.0404  0.2122
50372W        W93310  30.031  34.584   2.806  0.4735  0.0109  0.0173
50373W        W93311  30.568  33.938   1.662 -0.3037  0.2859 -0.0994
50374W        W93312  32.110  34.440   2.403 -0.0138  0.0216  0.1003
50375W        W93313  32.210   0.310   0.191  0.0363  0.3198 -0.2251
50376W        W93314  30.460  34.336   3.114  0.0522 -0.0064 -0.0290
50377W        W93315  29.932  33.327   0.750  0.2967 -0.0500 -0.1575
50378W        W93316  32.568  33.485   1.129  0.0100 -0.1286 -0.2626
50379W        W93317  30.469  33.446   1.624  0.0524  0.2639  0.0900
50380W        W93318  31.299  33.792   1.557  0.1312 -0.1009  0.0550
50381W        W93319  30.680  34.066   2.201 -0.2135  0.1444 -0.3264
50382W        W93320  31.363  34.395  31.972 -0.2546 -0.2101 -0.0493
50383W        W93321  31.314  33.584   0.229 -0.1206 -0.1221 -0.0496
50384W        W93322  29.806   0.297   1.916  0.0580  0.1020  0.0843
50385W        W93323  31.053  33.351   2.390 -0.0972  0.2104 -0.0876
50386W        W93324  30.421  32.721   1.012  0.3853 -0.0355 -0.0354
50387W        W93325  30.814   0.102   3.034 -0.1936  0.0563 -0.0851
50388W        W93326  31.724  33.891   2.201  0.0867 -0.3000  0.1191
50389W        W93327  32.587   0.220  31.230 -0.0600  0.0165 -0.0683
50390W        W93328  29.922  33.403   2.209  0.1398 -0.0694  0.0060
50391W        W93329  32.501  34.190   2.788 -0.1409 -0.1945  0.0455
50392W        W93330  32.939  34.635   0.060 -0.0805 -0.2545  0.0979
50393W        W93331  31.575  32.831   2.787 -0.2187 -0.3279  0.2873
50394W        W93332  30.455  33.925   3.569 -0.0014 -0.0945  0.0298
50395W        W93333  29.365  33.697   2.576  0.3842 -0.2538 -0.2563
50396W        W93334  29.990  34.059   3.069 -0.1422 -0.2669  0.2979
50397W        W93335  31.471  34.075   0.352  0.0364 -0.1043  0.0601
50398W        W93336  30.167  32.110   0.752  0.1355 -0.2203 -0.3243
50399W        W93337  29.661   0.450   1.404  0.3652  0.0018  0.0373
50400W        W93338  32.679  33.625  31.906 -0.0354  0.2337 -0.4477
50401W        W93339  29.794  34.163   2.469 -0.1196 -0.2504 -0.0229
50402W        W93340  32.097  34.193   1.937  0.1450  0.0789 -0.0367
50403W        W93341  29.383  33.295   1.451 -0.1041 -0.0828  0.0073
50404W        W93342  31.978  32.723   0.552  0.0056  0.0899 -0.4497
50405W        W93343  31.134  33.745   2.963  0.0173 -0.1353  0.2246
50406W        W93344  32.347  34.594   1.668 -0.1570 -0.1781 -0.2204
50407W        W93345  31.150  34.114   2.441 -0.0219 -0.3091 -0.0192
50408W        W93346  28.631  33.554   2.728  0.0394 -0.0983 -0.0366
50409W        W93347  31.443  32.472  30.831  0.3822  0.2388  0.0822
50410W        W93348  33.040  33.806   1.994 -0.3917  0.1599  0.2401
50411W        W93349  33.407   0.906  31.831  0.1007 -0.1409 -0.0125
50412W        W93350  33.077  32.995  30.933  0.1032  0.1587  0.5209
50413W        W93351  27.588  32.656   3.126  0.3310  0.0592  0.1081
50414W        W93352  32.042   0.421   2.547 -0.0387  0.0717  0.1744
50415W        W93353  30.799   0.001  31.053  0.0717 -0.2567 -0.5942
50416W        W93354  32.179  34.156   3.192 -0.0332  0.1727  0.0971
50417W        W93355  31.856  34.179  31.465  0.1508 -0.1043  0.0877
50418W        W93356  27.850  33.295   2.246 -0.1248 -0.0150 -0.0689
50419W        W93357  30.743  33.271  30.883  0.1678 -0.2219 -0.1156
50420W        W93358  30.882  34.137  30.555 -0.2313 -0.1032  0.1281
50421W        W93359  30.924  33.425  31.303 -0.0043 -0.1054  0.0634
50422W        W93360  32.502  33.532   2.410 -0.0690 -0.1015 -0.2117
50423W        W93361  30.952  33.062   1.998  0.0420 -0.1514 -0.1429
50424W        W93362  30.542  33.476   2.106  0.4468  0.3341  0.2098
50425W        W93363  31.915  34.278   1.407 -0.1576  0.0285 -0.0622
50426W        W93364  31.592  34.421   2.379  0.2612 -0.1975  0.1048
50427W        W93365  33.142   1.441   4.651  0.0745 -0.0265  0.0141
50428W        W93366  29.268   0.240   1.192  0.2162 -0.0007  0.0530
50429W        W93367  29.300   0.142   3.200  0.0893  0.0239 -0.2021
50430W        W93368  28.448  32.268   1.433 -0.4163  0.0638 -0.0890
50431W        W93369  28.761  32.500  31.945  0.1925  0.1283  0.0033
50432W        W93370  31.299  33.112  31.459  0.0595 -0.2248 -0.1178
50433W        W93371  32.237  33.560   0.713 -0.1191 -0.0255  0.2428
50434W        W93372  32.797  33.741   1.512 -0.2939  0.1517 -0.0598
50435W        W93373  30.389   0.495   1.687 -0.0013 -0.0158  0.0038
50436W        W93374  31.210  33.016   0.428 -0.0216 -0.0673 -0.2058
50437W        W93375  30.164   0.501   3.541 -0.2893  0.1259  0.1938
50438W        W93376  33.219  33.866   4.707  0.0682  0.1776 -0.0164
50439W        W93377  30.141  33.740  31.406  0.0891  0.2106 -0.1322
50440W        W93378  29.392  32.846   1.724  0.0796 -0.1676  0.0886
50441W        W93379  31.651  32.858   1.361 -0.0549  0.2662  0.2252
50442W        W93380  30.925  33.521   1.757  0.1229 -0.1654  0.0623
50443W        W93381  30.633  33.147   1.144  0.1308  0.2401 -0.0777
50444W        W93382  33.106  32.556   0.046  0.1080  0.1051  0.0572
50445W        W93383  29.453   0.121   4.153  0.1733 -0.1184  0.0821
50446W        W93384  32.297  33.702   2.879  0.0333  0.0467 -0.1425
50447W        W93385  29.590  32.021   1.493  0.3449  0.1118 -0.1260
50448W        W93386  32.691   0.395   0.065 -0.0125 -0.3635 -0.1510
50449W        W93387  28.987  34.604   2.066 -0.0774 -0.0927  0.0640
50450W        W93388  31.274  34.583  31.426 -0.0521 -0.1046  0.3085
50451W        W93389  32.850   0.180   3.220  0.0536  0.1657  0.0990
50452W        W93390  32.909   1.028  31.768  0.0537  0.0841 -0.1683
50453W        W93391  29.752  32.915   1.183  0.0533  0.4966  0.1927
50454W        W93392  32.593  33.651  31.395 -0.2036 -0.0406  0.4001
50455W        W93393  30.288  33.812   1.282  0.1053 -0.0480 -0.2316
50456W        W93394  30.236   0.955   3.723  0.0099 -0.0573  0.1187
50457W        W93395  27.966  32.756   2.820  0.1301  0.0816  0.2342
50458W        W93396  31.615  34.183   1.795  0.0206  0.0379 -0.2406
50459W        W93397  33.760   1.616   0.156 -0.0988  0.1613 -0.0882
50460W        W93398  28.079  33.332   2.719  0.0106 -0.0133  0.0274
50461W        W93399  32.124  34.351  30.944  0.3864  0.1023 -0.1119
50462W        W93400  30.034  32.426   2.367  0.0658  0.2294 -0.1475
50463W        W93401  32.660  33.698   0.549  0.1782  0.1190 -0.0996
50464W        W93402  30.368   0.298   2.644  0.0161 -0.2077 -0.0843
50465W        W93403  32.083  34.202   4.132  0.1836  0.1532 -0.3960
50466W        W93404  32.631   0.665   0.473  0.2541  0.0755 -0.1048
50467W        W93405  30.815  32.289   1.906 -0.2072 -0.1120 -0.3521
50468W        W93406  32.248  33.260  31.247 -0.0442  0.3005  0.1030
50469W        W93407  31.601  31.809   0.238 -0.0942  0.2083  0.0471
50470W        W93408  29.631   0.845   1.984 -0.1087  0.1665  0.1100
50471W        W93409  29.488  33.617   0.545 -0.0969  0.1156 -0.0512
50472W        W93410  30.615   0.950   3.380 -0.0278  0.1412 -0.2182
50473W        W93411  28.570  34.165   3.890 -0.1144  0.2801  0.2375
50474W        W93412  29.742  33.621   1.169  0.1322 -0.0752 -0.1215
50475W        W93413  29.906  34.018   0.358  0.0233  0.1546 -0.2811
50476W        W93414  31.001  31.785   2.690 -0.0891  0.1080  0.1283
50477W        W93415  28.588  31.596   2.137 -0.1103 -0.1833 -0.0606
50478W        W93416  31.180  32.908   1.142 -0.1688  0.2766 -0.0029
50479W        W93417  30.123  34.379   3.495 -0.1720 -0.3093  0.1304
50480W        W93418  31.787   0.399   3.151 -0.0210  0.0667 -0.1997
50481W        W93419  32.127  34.369   0.979  0.1164 -0.2514  0.0578
50482W        W93420  31.488  33.937   2.677 -0.4595  0.1539 -0.2356
50483W        W93421  30.875   1.121   1.419 -0.1774  0.2564  0.1470
50484W        W93422  32.964  32.961   2.014  0.0044  0.0106 -0.0009
50485W        W93423  32.386  33.837  30.859  0.3026 -0.3717 -0.1357
50486W        W93424  28.722  33.029   2.688  0.0302  0.1298 -0.0086
50487W        W93425  30.859  32.744   0.765  0.0145  0.0051 -0.1530
50488W        W93426  33.050   0.090  31.236  0.2565  0.3489 -0.1889
50489W        W93427  29.458  33.293   1.985  0.0030  0.0529 -0.0834
50490W        W93428  32.384   0.045  30.782 -0.0134 -0.2235  0.1234
50491W        W93429  31.952   0.936   2.409 -0.0926 -0.0436 -0.3088
50492W        W93430  30.928   0.843   0.147 -0.3824 -0.2016 -0.0629
50493W        W93431  34.069   0.552   0.782  0.1853  0.1338  0.1912
50494W        W93432  28.700  32.660   2.238  0.1017 -0.0497  0.1528
50495W        W93433  29.952   0.162  31.687 -0.0185 -0.3111 -0.0849
50496W        W93434  30.625   0.719  31.631  0.0308  0.0319  0.1180
50497W        W93435  32.781   0.200   1.864  0.0272 -0.0090  0.1143
50498W        W93436  28.399  33.981   1.663  0.0111 -0.2909 -0.2414
50499W        W93437  32.172  32.818  31.518 -0.0785  0.1295  0.0322
50500W        W93438  30.198  34.649   5.261 -0.2090 -0.1844  0.1687
50501W        W93439  31.521   0.940   2.905 -0.0654  0.2234 -0.0340
50502W        W93440  31.366   1.054   4.650  0.3796 -0.0912 -0.0569
50503W        W93441  28.198  33.508   4.029 -0.2018  0.0624  0.0674
50504W        W93442  30.548  32.989   7.067 -0.1114  0.1090  0.0437
50505W        W93443  30.854   0.357   2.643 -0.0481  0.2432  0.1864
50506W        W93444  29.516  33.864   6.307  0.0882  0.0964  0.0960
50507W        W93445  30.112  31.693   3.372 -0.3582  0.0137  0.3606
50508W        W93446  28.518  32.680   5.859 -0.2245  0.0351  0.1337
50509W        W93447  31.301  34.378   6.020  0.0060  0.3471 -0.3867
50510W        W93448  28.541  33.940   4.362  0.1071 -0.2452  0.1280
50511W        W93449  31.262  33.553   6.662 -0.1038 -0.1200 -0.0915
50512W        W93450  30.386   0.505   4.592  0.0596 -0.1956 -0.1298
50513W        W93451  29.749  33.071   6.330 -0.5626  0.0652 -0.1137
50514W        W93452  31.544  33.603   6.232 -0.2735 -0.1247  0.1555
50515W        W93453  27.834  33.408   4.439 -0.0397 -0.0162  0.1231
50516W        W93454  28.009  33.872   4.413  0.1336 -0.1336  0.1290
50517W        W93455  30.218  33.814   5.591 -0.0838  0.0503 -0.1567
50518W        W93456  32.496  33.960   4.225 -0.0875  0.2124  0.1067
50519W        W93457  31.776  34.460   5.785  0.0247 -0.3154  0.0934
50520W        W93458  31.960  33.568   5.949 -0.0730  0.2069  0.0438
50521W        W93459  30.529  34.602   5.756 -0.1275  0.1955  0.0987
50522W        W93460  30.468   0.559   6.297  0.1563  0.0570  0.1439
50523W        W93461  32.770  34.097   6.796 -0.2333 -0.0446  0.0910
50524W        W93462  33.167  34.615   3.973  0.1979 -0.2125 -0.1880
50525W        W93463  29.444  33.917   3.123  0.0524  0.1153 -0.0614
50526W        W93464  32.360  34.435   3.642  0.3438  0.0699  0.0711
50527W        W93465  31.431  34.211   5.467  0.0220 -0.0149  0.1118
50528W        W93466  32.201  34.050   5.792 -0.2686 -0.0200  0.0397
50529W        W93467  32.458   0.672   4.463 -0.0771  0.0674  0.0706
50530W        W93468  31.465   0.191   6.109  0.0352  0.1878  0.1324
50531W        W93469  29.992  33.374   5.504 -0.1440  0.3153 -0.3489
50532W        W93470  29.359  34.193   5.021 -0.0659 -0.3486 -0.0936
50533W        W93471  28.204   0.265   6.426 -0.0231  0.0676 -0.1017
50534W        W93472  30.107   0.302   7.079  0.0684  0.1740 -0.4283
50535W        W93473  30.609  34.520   2.556 -0.4288 -0.0070 -0.2826
50536W        W93474  32.233  32.351   3.928 -0.2275 -0.1892 -0.1038
50537W        W93475  31.451  33.771   5.111  0.1858 -0.0134  0.2439
50538W        W93476  30.410  33.605   6.432  0.2796  0.0002  0.0770
50539W        W93477  33.289   0.876   3.752 -0.0629 -0.0371 -0.0280
50540W        W93478  29.648  34.281   5.421  0.0095  0.1308 -0.0770
50541W        W93479  28.999  33.301   5.873  0.0437  0.1374 -0.0154
50542W        W93480  31.288  33.373   3.804 -0.0278  0.0645 -0.2629
50543W        W93481  29.321  33.404   6.268 -0.1666 -0.2993 -0.2926
50544W        W93482  31.760  32.612   3.955 -0.1800  0.0555 -0.1281
50545W        W93483  32.709   0.777   2.964  0.0797  0.0897  0.1097
50546W        W93484  28.301  34.500   5.264  0.0008 -0.2533  0.1366
50547W        W93485  29.325  33.070   5.451  0.2692 -0.0422  0.0917
50548W        W93486  29.408  34.087   7.083 -0.0543 -0.1485  0.1516
50549W        W93487  28.864  33.599   6.961  0.2235  0.1475  0.2125
50550W        W93488  31.763  33.093   6.172 -0.1830  0.0752  0.2358
50551W        W93489  29.101  33.270   2.869  0.0241 -0.1312  0.0493
50552W        W93490  33.348  34.049   3.380  0.4297 -0.2221  0.0398
50553W        W93491  31.799   0.514   3.858  0.0237  0.1609 -0.1176
50554W        W93492  32.185  33.418   6.459  0.1188  0.0800 -0.2266
50555W        W93493  29.826  33.760   5.200  0.0629 -0.0373  0.0726
50556W        W93494  28.081  33.980   3.805  0.4200  0.0098  0.3989
50557W        W93495  31.200  33.314   4.945  0.1217 -0.0529  0.1794
50558W        W93496  31.302  33.426   5.535  0.1372 -0.2869  0.0012
50559W        W93497  30.504  34.320   6.560  0.0282  0.3258  0.2694
50560W        W93498  30.811  33.775   4.326  0.3622 -0.2870  0.0521
50561W        W93499  28.563   0.505   4.199 -0.0746 -0.1196 -0.1980
50562W        W93500  32.419  34.013   5.160 -0.0462  0.0288  0.0273
50563W        W93501  28.671  34.091   6.359 -0.0615  0.1166  0.1449
50564W        W93502  30.339  33.403   5.854 -0.2314  0.1626  0.3391
50565W        W93503  29.016  34.569   5.261  0.0845  0.1297  0.1878
50566W        W93504  31.351  31.990   3.617 -0.0270  0.0064  0.0845
50567W        W93505  31.602  33.244   4.184 -0.1739  0.2115 -0.0669
50568W        W93506  31.420   0.003   3.750 -0.0194  0.0885 -0.1120
50569W        W93507  30.672   0.466   3.400 -0.0658  0.1824  0.0762
50570W        W93508  31.120   0.418   3.882  0.2472 -0.3009  0.0584
50571W        W93509  30.369  32.981   5.545  0.1035 -0.2629 -0.1189
50572W        W93510  30.761   0.586   4.272 -0.1547  0.1435  0.0590
50573W        W93511  31.256  33.971   4.380 -0.3659 -0.0073 -0.0829
50574W        W93512  32.682  33.157   5.448  0.0399  0.1589 -0.1700
50575W        W93513  31.874  34.632   6.302  0.1992  0.3036  0.0764
50576W        W93514  31.536  32.692   6.081  0.0538 -0.0016 -0.2320
50577W        W93515  31.942   0.017   7.140  0.0526  0.0294 -0.1653
50578W        W93516  32.753  34.540   4.583 -0.0558  0.0208 -0.0774
50579W        W93517  32.168  34.244   6.649 -0.0443 -0.0500 -0.2513
50580W        W93518  28.569  33.718   3.655 -0.0865 -0.0206  0.2398
50581W        W93519  31.042  32.950   6.432  0.0601 -0.2214 -0.1737
50582W        W93520  30.875  34.180   7.004  0.1478 -0.4641  0.1057
50583W        W93521  29.719  33.780   5.654  0.0325  0.0426  0.1313
50584W        W93522  30.904  33.083   4.609 -0.2882  0.2329 -0.2621
50585W        W93523  29.524  34.387   4.490  0.2803 -0.1361  0.3964
50586W        W93524  30.127  34.402   4.358 -0.2211  0.0249 -0.0901
50587W        W93525  31.340  32.780   4.152 -0.1356  0.3645 -0.0367
50588W        W93526  29.162  33.817   5.926  0.1183 -0.2059 -0.0114
50589W        W93527  32.050  34.444   4.959 -0.2876  0.1075  0.0112
50590W        W93528  30.446  34.355   7.189 -0.1658 -0.1742  0.0889
50591W        W93529  31.318   0.050   3.137 -0.3014 -0.2803  0.1643
50592W        W93530  30.802  34.183   6.224 -0.1354 -0.1010  0.0798
50593W        W93531  28.324  33.866   4.829  0.0033  0.0612 -0.3329
50594W        W93532  30.887  33.547   6.261  0.0392 -0.0265 -0.3910
50595W        W93533  30.801  34.676   5.308  0.0400  0.2848 -0.4011
50596W        W93534  29.968  33.123   2.826  0.2966  0.1007  0.1199
50597W        W93535  30.128  32.668   6.405  0.0332  0.0972 -0.0191
50598W        W93536  30.702  33.075   6.068  0.0503 -0.2787 -0.0811
50599W        W93537  29.101  34.055   5.485 -0.1012  0.4299  0.0286
50600W        W93538  31.118  33.926   5.899 -0.1099 -0.3855  0.1635
50601W        W93539  31.276  33.985   6.364 -0.1637  0.4010  0.2264
50602W        W93540  31.780  32.659   5.368 -0.0742  0.2143 -0.0554
50603W        W93541  31.993  33.882   8.339  0.1074  0.1390 -0.0406
50604W        W93542  31.527   0.340   5.246 -0.0798  0.0017  0.0769
50605W        W93543  32.735  34.034   4.722 -0.3428  0.0707  0.1336
50606W        W93544  30.839   0.256   4.786  0.1619  0.0407 -0.0890
50607W        W93545  31.810  33.565   5.441 -0.0205 -0.1506 -0.5427
50608W        W93546  32.739   0.161   3.718 -0.0567 -0.1288  0.0211
50609W        W93547  31.755  33.898   6.625 -0.4820  0.0418 -0.1475
50610W        W93548  29.645  32.633   6.515 -0.1565 -0.2078  0.1641
50611W        W93549  30.011  33.021   5.906 -0.0439  0.0489  0.1805
50612W        W93550  28.535  34.064   5.406 -0.0387 -0.1798 -0.0068
50613W        W93551  31.299  34.446   4.503 -0.2119 -0.4408 -0.0858
50614W        W93552  30.418  32.408   4.263 -0.0211 -0.1380 -0.2039
50615W        W93553  29.839  34.077   6.004  0.0844 -0.1240 -0.1480
50616W        W93554  32.290   0.172   4.141 -0.1899 -0.0456  0.2914
50617W        W93555  29.894   0.621   5.970 -0.0229  0.1954 -0.0610
50618W        W93556  32.268   0.736   5.653 -0.2220 -0.0295 -0.1270
50619W        W93557  30.886  33.554   7.088  0.3542 -0.3153  0.1141
50620W        W93558  31.019  32.985   5.620 -0.2703  0.1666  0.0905
50621W        W93559  31.931  34.166   5.374  0.0861 -0.0391  0.1469
50622W        W93560  30.397  33.884   6.944  0.0456  0.1063 -0.0244
50623W        W93561  30.118  34.020   6.478 -0.1230 -0.2278  0.1073
50624W        W93562  28.876  32.376   6.841 -0.1573 -0.0637 -0.1209
50625W        W93563  34.502  34.390   3.385 -0.0712  0.1729 -0.0437
50626W        W93564  33.217  33.250   5.787 -0.0459  0.0742  0.1779
50627W        W93565  33.186   0.018   4.478 -0.0620 -0.1513 -0.0272
50628W        W93566  32.258  33.948   2.415  0.0676 -0.4674  0.2460
50629W        W93567  29.339  33.553   5.393 -0.4143 -0.1495 -0.0442
50630W        W93568  31.649  34.628   7.577  0.1400  0.1062  0.1327
50631W        W93569  28.791  33.445   3.217 -0.1190 -0.0054 -0.1713
50632W        W93570  30.133  32.581   7.278  0.2819 -0.0630  0.0331
50633W        W93571  31.372   0.424   3.438 -0.0833  0.1582 -0.0898
50634W        W93572  28.076  33.359   4.886  0.0472  0.1227  0.0044
50635W        W93573  30.317  34.048   2.666  0.1907  0.0446 -0.1074
50636W        W93574  33.002  34.201   4.233 -0.1912 -0.1699  0.1953
50637W        W93575  30.462  32.901   4.589  0.1666  0.0102 -0.0905
50638W        W93576  32.083  33.089   5.507  0.1055 -0.1185  0.1092
50639W        W93577  30.998  34.660   3.506  0.0975 -0.0282 -0.1043
50640W        W93578  32.366  32.412   6.751  0.1049 -0.2099 -0.1556
50641W        W93579  31.735  34.141   6.226 -0.1371 -0.0986 -0.1124
50642W        W93580  30.688   0.777   5.032  0.0243 -0.1131  0.0061
50643W        W93581  32.727  33.806   7.257  0.2498  0.4483 -0.1185
50644W        W93582  28.755  34.152   5.857  0.0405  0.0219 -0.4253
50645W        W93583  29.362  33.425   7.854  0.1715  0.0007 -0.2353
50646W        W93584  31.273  32.477   3.699  0.3538 -0.0740 -0.0835
50647W        W93585  31.071  34.232   5.038  0.0819  0.1097  0.2362
50648W        W93586  32.861  34.361   3.687  0.0393  0.1428  0.1116
50649W        W93587  33.583  34.269   4.181  0.3966  0.0739 -0.1221
50650W        W93588  32.295  34.261   4.558 -0.1799 -0.4234  0.0019
50651W        W93589  30.595  34.098   5.507 -0.1081  0.1574  0.0052
50652W        W93590  30.310   0.039   4.759  0.2135 -0.0711  0.3172
50653W        W93591  28.844  33.992   7.381  0.2125 -0.2270 -0.0437
50654W        W93592  32.019  32.166   7.981  0.2894  0.2782 -0.0519
50655W        W93593  28.719  34.232   5.017 -0.1582 -0.2140  0.0462
50656W        W93594  31.838   0.972   4.431 -0.1350  0.0949 -0.0236
50657W        W93595  30.979  32.087   5.639 -0.2781  0.0411  0.1561
50658W        W93596  30.623  33.483   4.728  0.4792  0.1329 -0.1168
50659W        W93597  29.580  33.921   3.976 -0.0413 -0.2619 -0.0080
50660W        W93598  32.310  33.574   5.491 -0.3260 -0.0011 -0.0786
50661W        W93599  29.648  33.966   7.519 -0.1463 -0.3518 -0.1002
50662W        W93600  33.235  31.839   6.477 -0.3074 -0.2018 -0.2764
50663W        W93601  30.089  34.373   5.670 -0.2700 -0.0858 -0.1508
50664W        W93602  33.288  34.158   3.835  0.2342  0.3602  0.3967
50665W        W93603  28.601  33.549   6.154  0.2119  0.0736 -0.1731
50666W        W93604  32.114   1.649   4.076 -0.2177 -0.0067  0.2736
50667W        W93605  31.432   0.793   6.702  0.2192  0.3204  0.2589
50668W        W93606  32.338  33.943   3.721  0.0348 -0.0585  0.0031
50669W        W93607  29.055  34.256   4.642  0.0528 -0.3401  0.1557
50670W        W93608  31.975   0.470   4.383  0.0165  0.3149  0.2393
50671W        W93609  31.714  34.589   5.289 -0.0720  0.0454  0.1697
50672W        W93610  29.815  33.490   6.568 -0.0168  0.0922  0.0297
50673W        W93611  29.875  33.693   4.339 -0.1465  0.1498 -0.1589
50674W        W93612  31.995   0.426   6.727 -0.0051 -0.0574 -0.0846
50675W        W93613  32.740   0.936   5.101 -0.1186  0.1331 -0.0186
50676W        W93614  29.060  33.185   4.946  0.1519  0.1765 -0.1184
50677W        W93615  31.033  34.593   4.052 -0.0977 -0.0632  0.0781
50678W        W93616  31.555  32.994   5.692 -0.0996  0.4136  0.2265
50679W        W93617  31.715  33.925   5.745 -0.2569  0.2370  0.1073
50680W        W93618  31.851  33.929   7.222  0.0110  0.0520  0.2445
50681W        W93619  31.845  32.954   6.902  0.2665 -0.0220  0.1766
50682W        W93620  31.966  33.865   4.955 -0.0874 -0.0410 -0.0495
50683W        W93621  30.629  34.272   4.261  0.0286 -0.0112  0.0852
50684W        W93622  32.164  33.149   4.460  0.0092 -0.1102 -0.1864
50685W        W93623  31.586  34.257   4.885  0.0117 -0.2249  0.0115
50686W        W93624  29.324  34.253   6.066 -0.4036 -0.0946 -0.0198
50687W        W93625  28.861   0.073   2.904 -0.2323  0.1156 -0.1208
50688W        W93626  30.834  31.490   7.313  0.2292  0.1115  0.2092
50689W        W93627  28.877  33.329   6.583 -0.0453  0.0475  0.0116
50690W        W93628  29.103   1.103   4.963  0.1227  0.1128 -0.1036
50691W        W93629  30.721  34.474   4.741 -0.0098 -0.1482 -0.3178
50692W        W93630  29.924  33.579   6.060 -0.1441 -0.2221 -0.5171
50693W        W93631  29.317  33.897   4.372  0.1546  0.0703 -0.0231
50694W        W93632  30.596   0.377   5.596  0.0744  0.0235  0.0720
50695W        W93633  30.001  31.773   7.262  0.1826 -0.0139 -0.1199
50696W        W93634  30.342  32.620   5.891 -0.2365 -0.2696  0.1508
50697W        W93635  27.497  32.908   2.603 -0.0529  0.0062  0.0276
50698W        W93636  31.471   0.639   4.335  0.1578  0.0435 -0.2026
50699W        W93637  28.118  33.138   5.495 -0.2340 -0.0258  0.1471
50700W        W93638  32.734  33.107   5.917  0.0761 -0.0190  0.2248
50701W        W93639  33.064  33.532   5.406  0.3029 -0.1072 -0.1827
50702W        W93640  30.114  34.021   7.369 -0.0812  0.5723  0.3117
50703W        W93641  29.571  33.283   5.846 -0.0602 -0.0327  0.0452
50704W        W93642  30.969  33.877   3.455  0.1899  0.0085  0.3922
50705W        W93643  29.273  34.572   5.662 -0.2296 -0.1219  0.3296
50706W        W93644  31.943  34.616   3.878  0.0166  0.3247 -0.7108
50707W        W93645  29.218  34.246   6.604  0.1096 -0.0796 -0.1421
50708W        W93646  31.888  34.558   4.484 -0.0121  0.1482 -0.1194
50709W        W93647  34.177  33.975   4.830  0.0154  0.1855  0.0353
50710W        W93648  29.215  32.067   6.594  0.3425 -0.2830  0.1679
50711W        W93649  30.139  34.130   5.199 -0.1531 -0.1771 -0.0364
50712W        W93650  30.246   1.313   4.998  0.1523 -0.2727  0.3079
50713W        W93651  32.268  33.142   6.053  0.0485  0.4067 -0.1247
50714W        W93652  30.390  33.986   4.773  0.2318 -0.1527 -0.3231
50715W        W93653  30.621  31.514   3.411 -0.1412  0.2119  0.2626
50716W        W93654  30.341   0.070   7.950  0.2055 -0.2886 -0.0820
50717W        W93655  31.433  33.582   7.154  0.4053 -0.2322 -0.1046
50718W        W93656  31.801   1.849   9.563  0.2211 -0.0084  0.4050
50719W        W93657  29.521  32.521   8.880  0.3287  0.3944  0.0050
50720W        W93658  31.451   0.671   7.688 -0.5508  0.0341 -0.2452
50721W        W93659  30.714  32.956   9.534 -0.2885  0.0958 -0.3755
50722W        W93660  30.743  33.275   6.677  0.0341  0.1863 -0.0149
50723W        W93661  27.956  32.347   7.991  0.0346  0.0419 -0.3443
50724W        W93662  32.260  34.556   9.941  0.1876  0.0606 -0.4860
50725W        W93663  30.418  34.013   8.899  0.1355 -0.2283  0.2817
50726W        W93664  32.150  33.709  10.347 -0.0215 -0.1698  0.0204
50727W        W93665  29.921  34.370   7.817  0.1060 -0.0364 -0.2607
50728W        W93666  28.528  32.861  10.177 -0.0182 -0.0004  0.0302
50729W        W93667  29.438  33.901   7.948  0.0630 -0.0721  0.0162
50730W        W93668  28.131  33.557   9.537  0.0859 -0.1473  0.0683
50731W        W93669  29.280  34.460   9.658  0.0209 -0.1851  0.4231
50732W        W93670  32.114  31.398   9.485 -0.2000 -0.4737  0.0680
50733W        W93671  31.634  32.872   8.459  0.0730  0.3239  0.3465
50734W        W93672  30.611  33.949  10.063  0.1425  0.0179  0.0769
50735W        W93673  29.707   0.936   8.076 -0.0773  0.2620  0.2193
50736W        W93674  31.199  34.062   7.412  0.2080 -0.3301  0.0520
50737W        W93675  30.384   0.088   7.448 -0.1899 -0.0691  0.2394
50738W        W93676  32.384  32.865   7.823 -0.0692  0.2584  0.0053
50739W        W93677  31.351  33.396   8.392 -0.4129  0.2175 -0.1536
50740W        W93678  31.184  31.230   8.993 -0.1852 -0.6154 -0.0219
50741W        W93679  31.661   0.214   8.004  0.1152 -0.2477 -0.1290
50742W        W93680  32.648  33.151   9.911  0.1524 -0.2348 -0.1733
50743W        W93681  27.858  33.138   9.581  0.1214 -0.0272 -0.0029
50744W        W93682  28.991  33.930   8.838 -0.0844 -0.0393 -0.0967
50745W        W93683  30.434  31.092   6.593 -0.0961 -0.0922  0.1062
50746W        W93684  33.179  33.196   8.374 -0.0285  0.2735  0.0285
50747W        W93685  32.069  33.608   8.841  0.0129  0.2664 -0.0783
50748W        W93686  32.327  33.269   8.638 -0.0705  0.1772 -0.1311
50749W        W93687  32.996  33.812   8.839  0.3199 -0.2224 -0.1310
50750W        W93688  28.120  32.755   9.776  0.0205 -0.0669 -0.0987
50751W        W93689  32.446  33.893   8.747 -0.0789 -0.1680 -0.2640
50752W        W93690  33.337  33.610   8.531 -0.0183  0.0241 -0.1537
50753W        W93691  32.193   0.112   8.204 -0.0677  0.2234 -0.1142
50754W        W93692  30.419  33.410   9.436 -0.2168 -0.1014  0.2133
50755W        W93693  29.064  34.091   8.353 -0.1422  0.0041 -0.1044
50756W        W93694  30.183  31.941   8.899 -0.3434 -0.0956  0.2451
50757W        W93695  29.600  32.896   7.917 -0.0423  0.0818  0.1925
50758W        W93696  33.447  33.738   9.060 -0.3635 -0.0582 -0.1904
50759W        W93697  29.882   0.035   8.137  0.1067  0.0230  0.0053
50760W        W93698  31.544  32.591   9.592  0.2205 -0.0172  0.2971
50761W        W93699  30.938  33.143   7.917  0.0694 -0.1185  0.0179
50762W        W93700  31.285  33.019   8.770 -0.0726  0.1380  0.0861
50763W        W93701  31.814  32.436   8.440  0.2347 -0.0756  0.1631
50764W        W93702  29.420  33.058   8.386 -0.0843 -0.0196  0.0445
50765W        W93703  31.120   0.207   9.976  0.0175 -0.2004 -0.1300
50766W        W93704  32.118  34.180   9.559  0.0809 -0.0754 -0.0683
50767W        W93705  29.374  33.644   6.844  0.0243 -0.0733 -0.0533
50768W        W93706  32.558  32.211   9.545  0.0226  0.0318  0.2044
50769W        W93707  31.171  33.570   7.712 -0.0042 -0.0359  0.3769
50770W        W93708  30.886  33.883   6.628  0.0358  0.1107  0.1617
50771W        W93709  30.297  33.135   6.388  0.1080 -0.1540  0.1622
50772W        W93710  30.269  33.652   8.296  0.1163 -0.3566  0.3618
50773W        W93711  30.768  33.211   9.101  0.0267 -0.1613 -0.0051
50774W        W93712  30.265  34.357   8.240 -0.1919  0.0363 -0.4268
50775W        W93713  31.799  32.818   7.462  0.2367  0.0405  0.2344
50776W        W93714  33.313  34.226   8.813 -0.1053 -0.2035  0.2308
50777W        W93715  31.056  34.031   9.549 -0.3584 -0.3002 -0.0543
50778W        W93716  32.615  33.654   7.780 -0.1070 -0.1173  0.2055
50779W        W93717  33.496  33.388  10.006 -0.1113  0.1065 -0.1582
50780W        W93718  29.900  33.636   7.185  0.1035 -0.0529  0.1851
50781W        W93719  32.731  34.367   9.948  0.1799 -0.0675  0.1200
50782W        W93720  31.569  34.179   8.254 -0.1441  0.1162 -0.1203
50783W        W93721  30.764   0.093   8.277  0.1943  0.2008 -0.2419
50784W        W93722  32.170  31.720   9.894  0.2342  0.0236  0.2238
50785W        W93723  28.770  34.106   6.835 -0.0855 -0.0250  0.2549
50786W        W93724  28.657  34.328   8.779 -0.1210  0.1546 -0.2478
50787W        W93725  32.627  33.478   8.998  0.2165  0.1081 -0.1547
50788W        W93726  30.544  31.744   9.650 -0.2668 -0.0231 -0.0791
50789W        W93727  31.590  33.794   8.693  0.0594  0.3810 -0.0453
50790W        W93728  31.745  33.622   7.603 -0.2489 -0.0750 -0.0886
50791W        W93729  30.391  32.597   8.570 -0.1030 -0.0417 -0.1566
50792W        W93730  34.224  32.477   8.503  0.3168 -0.1085  0.0708
50793W        W93731  31.048  34.509   8.747  0.2010 -0.1217 -0.4540
50794W        W93732  29.865  34.119   6.881 -0.0541 -0.1702  0.1299
50795W        W93733  30.770  34.029  12.412 -0.4802 -0.0199  0.0505
50796W        W93734  30.295  34.516   8.711  0.0156 -0.3152 -0.1876
50797W        W93735  30.303  33.157   8.558 -0.0139  0.4487  0.1471
50798W        W93736  31.527  34.393   8.716 -0.1829 -0.4247  0.1441
50799W        W93737  30.912  33.460   9.582 -0.2987 -0.2381 -0.0283
50800W        W93738  34.601   0.875  10.157  0.0226 -0.1564  0.2161
50801W        W93739  31.525  32.895  10.051  0.0175 -0.2231  0.3433
50802W        W93740  31.873  33.313   8.420 -0.2671 -0.0158 -0.0512
50803W        W93741  31.708  33.079   9.631 -0.2038  0.2684 -0.0188
50804W        W93742  31.158  34.529   7.706 -0.0102 -0.3133 -0.2205
50805W        W93743  30.212  30.643   9.513 -0.0368  0.1966 -0.2548
50806W        W93744  31.674  33.290   8.916  0.0225 -0.0117 -0.3120
50807W        W93745  30.234  33.309   6.855 -0.0555  0.0788 -0.2108
50808W        W93746  31.016   1.401   9.434 -0.0507 -0.0937 -0.0175
50809W        W93747  32.087  32.860   9.985  0.1721 -0.0045 -0.0474
50810W        W93748  29.651  33.033   9.104  0.0525 -0.0187 -0.3713
50811W        W93749  33.205  34.102   9.281 -0.3057  0.0518 -0.1739
50812W        W93750  31.329  33.747   9.239  0.2890  0.1196  0.2319
50813W        W93751  30.703  33.968   7.488 -0.3772 -0.0905  0.0600
50814W        W93752  33.807  30.207  12.110  0.1011  0.0532 -0.2075
50815W        W93753  32.157   0.403   9.599 -0.2256 -0.4324 -0.1660
50816W        W93754  31.127  34.024   8.818 -0.0432  0.0447 -0.2131
50817W        W93755  29.925  32.848   8.684 -0.1004 -0.3029  0.0297
50818W        W93756  30.008  33.811   8.668 -0.0920 -0.0144  0.0597
50819W        W93757  31.206  33.496   8.849 -0.2180  0.0737  0.0172
50820W        W93758  29.112  33.535   9.816  0.2279  0.2096  0.2418
50821W        W93759  29.303  33.614   7.364  0.2287  0.0544  0.1933
50822W        W93760  31.835   0.431   7.537 -0.0633  0.2731 -0.0690
50823W        W93761  31.217  33.864   8.365 -0.2029  0.1421  0.1009
50824W        W93762  32.671  32.027   8.345 -0.1658 -0.1383  0.1352
50825W        W93763  29.532  31.721  10.272 -0.3305  0.2359 -0.3242
50826W        W93764  31.046  34.599   9.325 -0.2308 -0.1670 -0.1448
50827W        W93765  32.952  33.666   9.316  0.2247  0.0403  0.0083
50828W        W93766  30.324   0.757   8.914  0.0413  0.0999 -0.1185
50829W        W93767  29.510  33.905   8.629  0.1363 -0.1713 -0.2257
50830W        W93768  31.557  34.142   7.730  0.2478 -0.2901 -0.3863
50831W        W93769  31.911  33.296   7.306  0.0273 -0.0834 -0.0354
50832W        W93770  32.717  34.133   9.147 -0.2623  0.2247  0.0418
50833W        W93771  32.028  34.264   7.519  0.3312  0.0761  0.0698
50834W        W93772  30.825  33.687   9.093  0.0187 -0.0793 -0.0538
50835W        W93773  31.263  33.118   6.871  0.1595 -0.0390  0.2214
50836W        W93774  29.876  33.591   7.828  0.2151  0.2299 -0.0081
50837W        W93775  30.765   0.187   7.771  0.3877 -0.1300  0.1296
50838W        W93776  32.421  32.620   8.614  0.0324 -0.0039  0.0954
50839W        W93777  31.348  34.443   9.730 -0.1008  0.0198 -0.1427
50840W        W93778  28.388  32.617   8.023 -0.0744  0.0648  0.1326
50841W        W93779  32.711  33.274   7.455  0.1761  0.0252  0.0225
50842W        W93780  31.306  33.234   9.290 -0.2364  0.0669  0.2421
50843W        W93781  31.029   0.605   8.334 -0.0926 -0.2068  0.2737
50844W        W93782  33.455  34.528   9.238 -0.1657  0.0996 -0.0181
50845W        W93783  30.803   0.381   9.294 -0.1019  0.0698 -0.0254
50846W        W93784  31.093  34.436   8.217  0.1473  0.0436 -0.1275
50847W        W93785  30.866  34.573   7.339  0.2464 -0.3643 -0.4230
50848W        W93786  30.130  33.690   9.192 -0.0681 -0.2138  0.0066
50849W        W93787  30.735  33.572   7.982  0.2015  0.0593 -0.1387
50850W        W93788  29.627  33.647   9.162 -0.2379 -0.0530  0.2798
50851W        W93789  31.400   0.138   8.961 -0.0961  0.2336 -0.0880
50852W        W93790  30.998  34.017   7.910 -0.0382  0.2614 -0.0693
50853W        W93791  34.387  34.213  10.272 -0.2677  0.1694 -0.1100
50854W        W93792  32.979   0.742   9.939  0.0386  0.2469  0.0430
50855W        W93793  27.512  31.928   9.650 -0.1183  0.0962  0.0510
50856W        W93794  32.142  32.462   7.612 -0.4326  0.0942  0.0608
50857W        W93795  30.221  33.075   9.139 -0.3074 -0.3183 -0.3582
50858W        W93796  32.711  33.137   9.434  0.0943 -0.4413  0.1175
50859W        W93797  32.599  33.963   9.618  0.1726  0.1106 -0.0450
50860W        W93798  30.959  32.867   7.388 -0.0865 -0.0632  0.3546
50861W        W93799  33.522  32.379   7.346  0.1292 -0.1510  0.0568
50862W        W93800  31.672  31.199   6.565 -0.0587 -0.0006  0.0063
50863W        W93801  30.573  32.785   9.069 -0.0982  0.2712  0.2563
50864W        W93802  28.562   0.720   6.738 -0.2427  0.2679  0.2500
50865W        W93803  27.787  32.687   9.388 -0.1259  0.0328  0.1378
50866W        W93804  29.593  33.529   8.287  0.0348 -0.0930  0.0411
50867W        W93805  28.846  33.188   9.233  0.2738  0.0769 -0.0357
50868W        W93806  28.700  32.617   9.727  0.1474  0.1788 -0.2052
50869W        W93807  32.064  32.777   9.430 -0.2291 -0.1263 -0.1435
50870W        W93808  27.964  33.457   6.924  0.0467  0.0630 -0.1832
50871W        W93809  30.596  32.397   9.438 -0.0596  0.0555  0.3170
50872W        W93810  30.695  31.284   9.073 -0.0829  0.2235 -0.0214
50873W        W93811  31.369  33.993  10.035  0.0021 -0.0667  0.0398
50874W        W93812  31.903  34.043   9.105  0.4211  0.1698 -0.1708
50875W        W93813  29.766  32.438   9.705  0.0311  0.2263  0.2185
50876W        W93814  31.674  33.618   8.077 -0.0006 -0.1005  0.1898
50877W        W93815  30.111  31.473   9.413 -0.0443 -0.2702 -0.0868
50878W        W93816  31.420  34.279   9.193 -0.1664 -0.1424  0.1341
50879W        W93817  29.921   0.143   6.280 -0.1923 -0.0539 -0.1121
50880W        W93818  33.137   0.173   7.621 -0.2874 -0.2987  0.1653
50881W        W93819  28.982  33.045   9.720  0.1735  0.2127  0.1024
50882W        W93820  29.144   0.461   8.464  0.0429 -0.0364 -0.1102
50883W        W93821  30.210   2.029   9.225  0.0113  0.0614 -0.1007
50884W        W93822   0.273  34.483   9.360 -0.1242 -0.2221  0.6153
50885W        W93823  27.208  32.477   9.588 -0.1614 -0.1109  0.1112
50886W        W93824  32.365  32.984   6.692  0.0964  0.1616 -0.4207
50887W        W93825  33.805   1.492   3.158  0.2138 -0.0655  0.1447
50888W        W93826  33.636   0.461  31.917  0.0529 -0.0868  0.0125
50889W        W93827  33.764   1.031   1.203 -0.1913 -0.1899 -0.1201
50890W        W93828  32.615  32.509   2.137  0.0555  0.2753  0.1394
50891W        W93829   0.119   0.586   2.398  0.0559  0.0617  0.1630
50892W        W93830   0.053   2.108   1.834 -0.1344  0.2344 -0.0481
50893W        W93831  33.177  34.333  30.934  0.1074  0.1218  0.3204
50894W        W93832  32.333  33.954   0.193 -0.5428 -0.0770 -0.1108
50895W        W93833  32.238   1.082   1.702 -0.1255 -0.1409  0.2993
50896W        W93834   0.171   1.644   2.544 -0.1510 -0.0184  0.2567
50897W        W93835  34.254  34.236   1.001  0.0976 -0.1924  0.0986
50898W        W93836  34.432   0.958   2.553 -0.2368  0.0789  0.0469
50899W        W93837  33.297   2.157   0.699  0.0840  0.0682 -0.3980
50900W        W93838  33.069   1.501  31.167 -0.1375  0.0146  0.0970
50901W        W93839  33.862   1.529   1.296 -0.1677  0.2320 -0.2137
50902W        W93840  33.915   1.590   2.685 -0.0425  0.0919 -0.0675
50903W        W93841  33.452   3.412   2.181 -0.4210  0.0755  0.1709
50904W        W93842  34.124   3.320   0.982 -0.1382 -0.0116  0.0196
50905W        W93843  34.283   2.206   1.970 -0.0916 -0.0813  0.2299
50906W        W93844  32.080   3.583   1.101 -0.0332 -0.3920 -0.0865
50907W        W93845  33.772   3.489   1.832 -0.2156  0.0329  0.1359
50908W        W93846  33.425   3.298   3.279  0.3217 -0.1608 -0.0254
50909W        W93847   0.686   4.099  30.116 -0.0278  0.0932 -0.5174
50910W        W93848  33.900   3.494   2.338 -0.0864  0.3023 -0.2731
50911W        W93849  33.484   3.168   0.441  0.0457  0.0951  0.4779
50912W        W93850  33.816   2.978   2.163 -0.1970 -0.0780  0.1559
50913W        W93851  33.426   2.230   3.153 -0.1454 -0.1348  0.1631
50914W        W93852  32.640   1.367   1.618 -0.0423 -0.1256 -0.4123
50915W        W93853  34.484   3.161   0.238 -0.2037 -0.0856 -0.0969
50916W        W93854  34.290   2.294   0.583 -0.0232 -0.2867 -0.1279
50917W        W93855  34.366  33.835   1.341  0.0614  0.1969 -0.1342
50918W        W93856  32.600   3.278   2.822 -0.2299  0.2255 -0.1031
50919W        W93857  33.921  34.601   2.863 -0.2662 -0.3493  0.2018
50920W        W93858  34.535   2.371   2.331 -0.1436 -0.1314 -0.0804
50921W        W93859  32.455   1.055   2.180  0.0279 -0.2782  0.0084
50922W        W93860   0.082   1.455   0.091  0.0353  0.1108  0.2841
50923W        W93861  32.420   1.582   2.984 -0.1349  0.2312 -0.0837
50924W        W93862  32.669   1.291   2.651  0.2066  0.1784 -0.1383
50925W        W93863  33.695  33.439  31.233 -0.0217  0.1946  0.1215
50926W        W93864  32.099   4.431   5.294  0.0479 -0.1679  0.0411
50927W        W93865  33.952   0.133   2.405  0.1221 -0.1249 -0.1788
50928W        W93866  33.705   3.491   0.852  0.1264  0.2014 -0.2245
50929W        W93867  33.858   2.008   0.677 -0.0172 -0.1550  0.2209
50930W        W93868  33.022   2.666   3.182 -0.0077 -0.0691  0.3901
50931W        W93869  34.289  34.396   1.619  0.1324  0.1254  0.0538
50932W        W93870  34.238   2.545   2.691 -0.0768  0.1457 -0.1247
50933W        W93871  33.787   3.006   0.818  0.0835 -0.0061  0.0834
50934W        W93872  32.746   2.746   1.047 -0.3184  0.0823 -0.1021
50935W        W93873  32.331   1.207  31.676  0.2067  0.4840 -0.3463
50936W        W93874  32.184   0.172   3.514  0.3742 -0.1890  0.0199
50937W        W93875   0.185   1.080   2.521 -0.2044 -0.1259 -0.0739
50938W        W93876  33.815   0.387   3.854 -0.1464  0.1432  0.0213
50939W        W93877  34.402   0.903   0.815 -0.4158 -0.0671 -0.0244
50940W        W93878  33.240   1.356   3.865  0.1062 -0.1749 -0.0140
50941W        W93879  34.128  34.653   1.975 -0.1393  0.1336  0.0280
50942W        W93880  33.318  34.675   3.039  0.0495 -0.3100  0.1445
50943W        W93881  33.121  34.302   2.119  0.1610  0.0579  0.0881
50944W        W93882  32.670  34.402  31.108 -0.2303  0.1392  0.0524
50945W        W93883  33.598   0.210   0.860 -0.0336 -0.3846  0.2691
50946W        W93884  33.916   0.822   1.644 -0.1774  0.1118  0.1891
50947W        W93885  34.026   1.139   3.474 -0.0393  0.2528 -0.2677
50948W        W93886  34.486   0.231  31.672 -0.1659 -0.0735  0.0767
50949W        W93887  33.717   3.972   3.132  0.0364  0.0798 -0.0416
50950W        W93888  34.383   0.871   1.952  0.0983  0.2867  0.3374
50951W        W93889  33.766   2.495   0.741  0.0055 -0.2330  0.2627
50952W        W93890  32.981   1.732   2.974  0.3635 -0.1441 -0.0599
50953W        W93891  33.991   0.426   0.272 -0.0752 -0.1643 -0.0483
50954W        W93892  31.938   3.410   0.381  0.0085  0.1833 -0.1733
50955W        W93893  33.521   1.922   1.167  0.0916  0.2964  0.0054
50956W        W93894  33.965   3.750   1.246  0.5892  0.1006  0.0159
50957W        W93895  31.892   1.257   3.384 -0.2373 -0.0378 -0.1865
50958W        W93896  32.451   0.601   0.949  0.0758 -0.2829  0.1483
50959W        W93897  33.287   3.182   4.377 -0.0022 -0.0550  0.2175
50960W        W93898  32.629   2.858   4.121 -0.0151  0.0070  0.0829
50961W        W93899  34.685   2.954   1.070 -0.0357 -0.2187  0.2231
50962W        W93900  34.153   2.798   1.196 -0.2719  0.0771  0.1378
50963W        W93901  32.242   1.405   2.454  0.1131 -0.2434  0.3563
50964W        W93902   0.269  33.585   3.032  0.1546 -0.0085 -0.2724
50965W        W93903  33.243   2.502   1.034 -0.0251 -0.1330  0.1333
50966W        W93904  31.296   3.360   1.699 -0.0641 -0.0883  0.0086
50967W        W93905  33.310   0.549   3.299 -0.3392 -0.1354  0.0398
50968W        W93906  32.570   1.614   0.715 -0.3089 -0.1663 -0.0897
50969W        W93907  34.444  34.661   2.404  0.0551  0.1433 -0.4472
50970W        W93908  34.015   1.656   2.156  0.1019 -0.0111 -0.0450
50971W        W93909  32.556   2.506   3.344  0.0651 -0.1443  0.2300
50972W        W93910  34.142   0.471   4.204  0.0356 -0.1170  0.1416
50973W        W93911   0.694   3.173   1.124  0.2804  0.0549  0.2652
50974W        W93912  34.589   3.447   0.694 -0.0089 -0.1328 -0.3526
50975W        W93913  33.552   0.271   2.656  0.0876  0.1232 -0.1580
50976W        W93914  34.441   2.710   1.653  0.3026 -0.0636 -0.0800
50977W        W93915   0.297   3.377   0.952 -0.1345 -0.3340  0.1707
50978W        W93916  32.949   3.114   1.374 -0.3860 -0.0048  0.1440
50979W        W93917  34.507   1.834   2.240 -0.0270  0.0226 -0.0209
50980W        W93918  34.101  33.954   0.486 -0.2028  0.0861  0.1409
50981W        W93919  33.192   1.089   0.634 -0.1508 -0.1721  0.1736
50982W        W93920  33.920   0.536   1.241 -0.3316  0.0921 -0.1037
50983W        W93921  34.230   1.052   1.335  0.0380  0.1276 -0.1055
50984W        W93922  33.666   2.131   2.372  0.0640  0.4795  0.0886
50985W        W93923  33.617   1.558   4.776 -0.2649  0.1159  0.2334
50986W        W93924  32.954   1.990   1.040 -0.2068  0.2776  0.1728
50987W        W93925  34.398   1.525   2.616  0.1016 -0.0320 -0.4055
50988W        W93926  32.708   2.158   1.787 -0.2228 -0.2216 -0.3083
50989W        W93927  33.784   1.526   0.779  0.0315  0.0947 -0.0827
50990W        W93928  32.512   2.121   0.958 -0.2377  0.5053 -0.0641
50991W        W93929  32.391   2.548   3.838 -0.0217 -0.0919 -0.1123
50992W        W93930   0.971   0.463   2.835 -0.2652 -0.0781  0.0916
50993W        W93931  34.163   0.112   0.633 -0.1313  0.0203 -0.0011
50994W        W93932  34.434   2.172   1.458 -0.3354 -0.0952 -0.2979
50995W        W93933   0.080   1.494   2.996  0.2224  0.1117  0.1073
50996W        W93934  32.906   3.746   4.120 -0.3663 -0.2304 -0.2098
50997W        W93935  33.651   2.270   0.313 -0.1692  0.1518  0.0890
50998W        W93936  32.442   2.123   2.193 -0.1035 -0.0158 -0.1942
50999W        W93937  31.815   1.571   0.309 -0.5129  0.3681  0.1420
51000W        W93938  34.280   0.352   2.786  0.2881  0.2152 -0.2211
51001W        W93939  34.409   2.937   2.132  0.1763 -0.1307 -0.2022
51002W        W93940  33.591   2.800   1.187  0.0441  0.0513 -0.1423
51003W        W93941  32.983   2.161   3.252  0.0878  0.2772 -0.2657
51004W        W93942  34.085   0.009   1.121  0.0531  0.0969 -0.0024
51005W        W93943  33.480   1.159   3.296  0.1138 -0.3150 -0.2104
51006W        W93944  33.638   1.908   2.878  0.1545  0.1260 -0.0365
51007W        W93945  32.824   1.095   3.670  0.0856 -0.0710 -0.2682
51008W        W93946  33.583  34.663   1.283  0.3207 -0.0701  0.2092
51009W        W93947  33.975   1.972   1.563 -0.0899  0.1664 -0.2328
51010W        W93948   0.683   1.522   0.776  0.1881 -0.1162  0.0551
51011W        W93949  32.986   1.696   3.562  0.1136  0.2587 -0.0075
51012W        W93950   0.036   0.204   0.551 -0.1842  0.2161  0.1079
51013W        W93951   0.254   2.395   1.334 -0.1106  0.2779  0.1326
51014W        W93952  33.281   1.083   4.269  0.2080 -0.1426 -0.1425
51015W        W93953  33.505   0.812   2.938  0.0885 -0.1456  0.1797
51016W        W93954  33.438   1.748   3.338 -0.2164  0.0063  0.1881
51017W        W93955  33.078   0.441   2.728 -0.1695 -0.1820 -0.4220
51018W        W93956  33.608   1.210   0.411  0.0115  0.1544 -0.1368
51019W        W93957   0.806   2.098   0.393  0.2536  0.0217 -0.1940
51020W        W93958  32.439   0.153   2.252 -0.0108 -0.0661 -0.0569
51021W        W93959  33.878   2.488   3.842  0.1352 -0.0060  0.1621
51022W        W93960  32.672   1.146   0.795 -0.3037 -0.1234 -0.0681
51023W        W93961   0.973   1.602   1.367  0.1094  0.3200 -0.0187
51024W        W93962   1.011   2.095   1.455  0.1289 -0.0012 -0.2545
51025W        W93963   0.734   0.657  31.454  0.0176  0.2028 -0.3553
51026W        W93964  32.328   2.355   0.561  0.2029  0.2961  0.1806
51027W        W93965  34.001   2.522   2.237 -0.1416 -0.1898 -0.1811
51028W        W93966  32.446   2.064   3.017 -0.1002  0.0972  0.1184
51029W        W93967  33.590   3.024   1.745  0.0693 -0.0745  0.1507
51030W        W93968  34.018   1.268   1.692  0.2960  0.1025  0.0277
51031W        W93969  32.994   1.212   3.135 -0.5228  0.1571 -0.0433
51032W        W93970  33.714   2.395   2.773 -0.4214 -0.2705 -0.0700
51033W        W93971  32.984   1.644   4.198  0.0110 -0.1937 -0.1829
51034W        W93972  34.500  34.362   0.615  0.3655 -0.0568  0.0989
51035W        W93973  33.147   2.859   4.022  0.0646  0.0508  0.1563
51036W        W93974  33.455   0.146   2.158  0.3331  0.2727 -0.2247
51037W        W93975  32.719   3.285   0.715 -0.0038 -0.4209 -0.3778
51038W        W93976   0.018   1.983   1.001  0.3079  0.1491  0.1804
51039W        W93977  33.311   2.562   1.763  0.0496 -0.0569 -0.1276
51040W        W93978  32.594   3.462   1.229  0.0454  0.3193  0.0080
51041W        W93979  32.304   3.726   1.575  0.2335  0.1100  0.0072
51042W        W93980   0.628   0.770   2.278 -0.6848  0.0496 -0.0247
51043W        W93981   0.401   1.005  31.179 -0.0629  0.0537  0.2724
51044W        W93982  32.627   1.634   3.841 -0.1168 -0.1934  0.0405
51045W        W93983  32.905   4.748   4.180  0.2909 -0.0542  0.0536
51046W        W93984  32.609   1.156   0.202 -0.0034  0.0637 -0.2267
51047W        W93985  34.348   0.450   2.267 -0.2924  0.2179 -0.0127
51048W        W93986   1.066   2.936  31.570 -0.3118 -0.0579  0.1361
51049W        W93987  33.692   3.310   1.331 -0.4136 -0.5706 -0.1623
51050W        W93988   0.437   2.580   3.203  0.0322  0.2001  0.2307
51051W        W93989  34.060   2.048   3.076  0.0311 -0.0518  0.1102
51052W        W93990  33.085   1.016   1.164 -0.3676 -0.0040 -0.2110
51053W        W93991  34.179   1.307   4.879  0.0933  0.3598 -0.0200
51054W        W93992  33.836   0.527   2.070 -0.0845  0.0167 -0.0078
51055W        W93993  33.695   1.540   3.700  0.0934  0.0791  0.4363
51056W        W93994   0.126   2.535  31.023  0.2924 -0.1134 -0.2673
51057W        W93995  33.891  33.622   1.419  0.5026  0.0771  0.4063
51058W        W93996  33.462   0.769   1.474  0.1117  0.2865 -0.1137
51059W        W93997  34.292   1.595   3.092  0.4839 -0.1146 -0.2405
51060W        W93998  32.007  33.368   1.150 -0.1366 -0.0382  0.1115
51061W        W93999   0.546   2.691   1.035  0.1034 -0.2504 -0.0941
51062W        W94000  33.639   1.054   2.040  0.1122 -0.0892  0.0714
51063W        W94001  34.681   1.253   1.197 -0.1429  0.0174 -0.1179
51064W        W94002  33.752  34.129   1.374  0.1875  0.1572  0.0269
51065W        W94003  33.199   2.639   2.652 -0.1485 -0.0531 -0.2994
51066W        W94004   0.595   2.852  31.359  0.0186  0.0873 -0.0119
51067W        W94005  34.661   3.250   1.450  0.0305 -0.0114 -0.2006
51068W        W94006  33.851   2.872   4.590 -0.0121  0.1202 -0.0376
51069W        W94007  33.266   1.356   0.017 -0.0342 -0.3248 -0.2870
51070W        W94008  33.770   0.728   3.503 -0.0805 -0.1141 -0.0082
51071W        W94009  34.376   1.633   1.264  0.0067 -0.0087 -0.0543
51072W        W94010  34.526   2.466   1.002 -0.0712 -0.1000  0.2563
51073W        W94011  34.556   1.290   1.704 -0.0438  0.0678 -0.4047
51074W        W94012   0.953  33.681   1.820 -0.0057  0.0220 -0.0294
51075W        W94013  33.767   1.981   4.056 -0.0496  0.1360  0.0237
51076W        W94014  32.390   1.598   0.144  0.2388  0.0313 -0.0463
51077W        W94015  33.332   2.800  31.055 -0.2251 -0.0105  0.2094
51078W        W94016  34.153   2.051   2.538 -0.0438 -0.1576 -0.2054
51079W        W94017  33.867   1.286   4.073  0.0902 -0.1123 -0.0592
51080W        W94018  32.979   0.181   2.322 -0.0162 -0.1371  0.1470
51081W        W94019  33.637  34.135   0.362 -0.1854  0.0014  0.0194
51082W        W94020  33.993  33.932   1.752  0.0609  0.1237 -0.3045
51083W        W94021  31.483   0.728   2.182 -0.1764  0.1408  0.0607
51084W        W94022   0.019   1.301  31.517  0.2089 -0.2464 -0.4735
51085W        W94023  34.260   1.359   0.890 -0.2504 -0.1216  0.2171
51086W        W94024  34.578   0.918   4.149 -0.0076  0.0737 -0.1119
51087W        W94025  34.353  34.219   2.614 -0.1826  0.1362 -0.1587
51088W        W94026  32.989   0.736  30.464 -0.1104 -0.0809 -0.1003
51089W        W94027  34.285   0.617   3.295 -0.1455  0.3761 -0.0425
51090W        W94028  34.566   1.999   2.822  0.3491  0.2163  0.2506
51091W        W94029  34.220   3.030   2.624  0.0708 -0.1654  0.0242
51092W        W94030  31.981   0.844   2.941 -0.1715  0.2011 -0.1587
51093W        W94031  34.132   3.211   1.578  0.0733 -0.1304 -0.2311
51094W        W94032  33.312   0.407   3.770 -0.1126 -0.0081  0.0643
51095W        W94033  34.279   2.246   3.498 -0.0666  0.0097 -0.1219
51096W        W94034  32.685  34.262   1.750 -0.3254  0.2630 -0.0120
51097W        W94035  33.252   2.003   1.907 -0.3222 -0.2415  0.0675
51098W        W94036  33.633   2.332   1.386 -0.1359  0.1165 -0.0249
51099W        W94037  33.943   2.646   1.650  0.0246 -0.2935 -0.0432
51100W        W94038  33.466   0.695   0.349 -0.2420  0.1902  0.1136
51101W        W94039  34.451   3.410   2.387  0.0961 -0.0236 -0.0909
51102W        W94040  34.468  34.576   2.902  0.1478  0.3022 -0.0920
51103W        W94041  34.084   1.137   2.235 -0.0336  0.0635 -0.0746
51104W        W94042   0.911   2.478   0.768  0.5050 -0.1314  0.0321
51105W        W94043   0.111   0.588   1.926  0.0284 -0.0674 -0.0135
51106W        W94044  34.653   3.278   2.879 -0.0976  0.0771  0.0043
51107W        W94045  34.000   2.726   6.751  0.1366 -0.0241 -0.1250
51108W        W94046  32.992   2.378   4.201 -0.2546 -0.1934 -0.0250
51109W        W94047  32.135   1.708   5.528  0.0401 -0.1714  0.1066
51110W        W94048  33.447  33.984   6.349 -0.0544 -0.0874  0.1471
51111W        W94049  34.480   0.284   5.843 -0.0768 -0.3163 -0.1151
51112W        W94050  34.216   3.219   5.930 -0.1843  0.3239 -0.0090
51113W        W94051  32.742   0.282   4.217  0.2116  0.0852 -0.2774
51114W        W94052  31.417   0.577   5.755  0.1526 -0.0268  0.0655
51115W        W94053  32.349   1.872   5.973 -0.1183  0.0822 -0.2745
51116W        W94054  33.246   0.178   6.000  0.0611  0.0252 -0.0324
51117W        W94055  33.597   2.104   5.044  0.1356  0.2445  0.0814
51118W        W94056  32.921  34.605   6.992 -0.2687  0.1345  0.1088
51119W        W94057   1.118   2.850   5.219 -0.1842  0.2090 -0.0895
51120W        W94058  32.663   1.422   3.372  0.2476 -0.0762  0.1136
51121W        W94059  33.567   1.529   5.715  0.0711 -0.1125  0.1575
51122W        W94060  33.714   1.447   6.851  0.0316  0.0303  0.2894
51123W        W94061  34.498   1.947   5.841 -0.1338 -0.1207  0.3768
51124W        W94062   0.797   3.959   7.274 -0.1054 -0.0442  0.2037
51125W        W94063  33.602   2.751   5.745 -0.3197 -0.3155 -0.2518
51126W        W94064  33.867   4.925   5.657  0.2097 -0.3513 -0.0038
51127W        W94065  34.378   2.701   5.120  0.0024 -0.0980  0.0260
51128W        W94066   0.156   1.230   7.291  0.0168 -0.3610 -0.0211
51129W        W94067  34.299   2.677   4.053 -0.0781 -0.0239  0.1381
51130W        W94068  34.131   3.404   6.858  0.2834 -0.1690 -0.0671
51131W        W94069  33.473   2.795   3.122 -0.0887 -0.2527  0.1502
51132W        W94070   0.284   2.549   4.492 -0.4143  0.2413  0.1272
51133W        W94071   0.545   1.383   8.591  0.0786  0.0610 -0.2830
51134W        W94072  34.118   2.736   6.074 -0.2316  0.2855  0.4386
51135W        W94073  33.361   3.668   4.402  0.1461 -0.1878  0.0143
51136W        W94074  33.639   1.065   4.591  0.1221 -0.1369 -0.2333
51137W        W94075  32.261  34.512   6.025 -0.3464 -0.0689 -0.0919
51138W        W94076  32.872   3.922   5.080 -0.0006  0.0881 -0.0789
51139W        W94077  32.728  33.618   6.517  0.0306  0.0815 -0.0636
51140W        W94078  34.242   3.090   6.442  0.0792 -0.0198 -0.1696
51141W        W94079  33.220   1.431   6.209 -0.2607 -0.1015 -0.0561
51142W        W94080  32.417   2.212   5.492 -0.0860  0.3384 -0.1584
51143W        W94081  33.153   2.623   7.605  0.0428  0.2161 -0.1738
51144W        W94082  33.002   2.181   6.769  0.0060 -0.1753  0.0193
51145W        W94083  33.969   0.779   5.098 -0.0203 -0.0014 -0.0689
51146W        W94084  32.779   3.638   6.802  0.0237 -0.0276 -0.2079
51147W        W94085  34.180   1.475   6.599  0.0842 -0.0893  0.2823
51148W        W94086   0.013   1.506   4.132  0.0426  0.1234 -0.1076
51149W        W94087  34.566   2.878   6.063 -0.0430 -0.0572  0.1361
51150W        W94088  33.621   2.373   6.765  0.1147  0.0396 -0.1391
51151W        W94089  34.211  34.319   6.653 -0.3266  0.0539 -0.0485
51152W        W94090   1.055   2.251   7.294  0.0362  0.2085  0.0688
51153W        W94091  32.693   3.984   4.529  0.2038 -0.0648 -0.1142
51154W        W94092  32.282   1.343   6.233  0.0247 -0.0358  0.0316
51155W        W94093  33.452   2.140   4.528  0.1186  0.0183  0.3044
51156W        W94094  31.637   1.241   6.151  0.2271 -0.2741  0.2309
51157W        W94095  34.004   2.182   5.875  0.1709  0.0251 -0.0723
51158W        W94096  32.376   0.834   6.783  0.1365  0.1885 -0.1115
51159W        W94097  34.212   2.191   4.274  0.1077  0.0590 -0.0217
51160W        W94098  32.519   0.502   5.113 -0.0944 -0.3111 -0.1010
51161W        W94099  32.929   1.386   5.125 -0.0192  0.2384 -0.2107
51162W        W94100  32.892   0.665   7.569  0.2859 -0.0864  0.1483
51163W        W94101  31.457   0.728   6.227  0.4216 -0.0310  0.1324
51164W        W94102  32.864   0.420   4.781 -0.2636  0.3741  0.1025
51165W        W94103  33.038   1.438   5.680  0.3309  0.0103 -0.0286
51166W        W94104  33.157   1.015   5.491 -0.1370 -0.0018  0.1936
51167W        W94105  33.651   0.224   6.340 -0.0313  0.4347  0.0808
51168W        W94106  32.831   1.966   4.532 -0.0676 -0.2398 -0.1903
51169W        W94107  34.284   2.625   4.587  0.1547 -0.2061  0.1243
51170W        W94108  34.389   2.358   6.138 -0.1695  0.0991 -0.0735
51171W        W94109  34.494   0.572   5.368 -0.1177  0.2860  0.0046
51172W        W94110  34.062   2.169   7.085  0.1935  0.0331  0.0223
51173W        W94111  33.843   0.502   4.642 -0.2337 -0.1577  0.1796
51174W        W94112  33.766   3.363   4.444  0.2366  0.1137  0.1578
51175W        W94113  32.659   2.690   6.253 -0.2744  0.2416  0.0490
51176W        W94114  33.600   2.531   4.848  0.3721  0.1956  0.3241
51177W        W94115  32.211   2.062   8.661  0.0400 -0.1433  0.2925
51178W        W94116  32.801   1.121   4.170  0.0041  0.0446 -0.0697
51179W        W94117  33.403   2.251   7.529 -0.2973 -0.1257 -0.3028
51180W        W94118  33.015   3.005   8.888 -0.1679 -0.1142 -0.0195
51181W        W94119   0.656   3.292   4.971 -0.1894  0.0723  0.1343
51182W        W94120   1.059   2.162   5.927  0.2268  0.0587  0.2861
51183W        W94121  32.846   1.905   6.348  0.0276 -0.0351  0.2321
51184W        W94122  34.171   0.411   6.273  0.1904 -0.1129  0.2764
51185W        W94123  34.133   0.963   4.484  0.3259  0.0567  0.2445
51186W        W94124   0.249   3.614   3.135 -0.0235  0.2172 -0.2465
51187W        W94125  33.604   0.132   7.859 -0.0202  0.1969  0.0909
51188W        W94126  32.229   1.138   4.217  0.2591  0.0150  0.0414
51189W        W94127  33.234  33.805   5.867 -0.1010  0.2329 -0.2309
51190W        W94128  33.302   1.169   7.637  0.1333 -0.1094 -0.0884
51191W        W94129  33.288   3.162   5.844 -0.1831 -0.0549  0.2004
51192W        W94130  34.261   1.484   7.638  0.1399  0.3152  0.2326
51193W        W94131  34.214   3.228   4.316  0.0454  0.2321  0.3183
51194W        W94132  33.494   1.634   4.261  0.0957 -0.2370  0.2017
51195W        W94133  32.512  33.565   6.003 -0.0361 -0.0763 -0.0548
51196W        W94134   1.484   3.192   7.081  0.2730  0.1100  0.0826
51197W        W94135   0.140   3.191   3.805  0.1500 -0.0928 -0.2875
51198W        W94136  33.312   2.572   5.321  0.2357 -0.2223  0.2281
51199W        W94137  31.946   3.321   6.111 -0.1901 -0.1153 -0.1339
51200W        W94138  33.199   1.873   4.863  0.0940  0.1222 -0.3379
51201W        W94139  32.402   1.546   5.014  0.0375  0.0144  0.2342
51202W        W94140  32.798   0.741   6.524  0.0111 -0.1067  0.1402
51203W        W94141  33.708   0.622   6.067 -0.2411  0.2252 -0.3119
51204W        W94142  33.766   3.081   6.567  0.2536 -0.2482  0.2199
51205W        W94143  34.395   0.257   7.186 -0.0716  0.1028  0.1881
51206W        W94144  33.405   1.150   5.027 -0.0425  0.0370  0.0398
51207W        W94145  33.650   1.037   5.489 -0.1665 -0.2291  0.2393
51208W        W94146  31.850   2.626   5.844 -0.0794  0.2770  0.1113
51209W        W94147  34.120   2.275   4.841  0.0612  0.0232 -0.0501
51210W        W94148  33.679   2.056   6.296  0.0195  0.0881 -0.0513
51211W        W94149  33.302   1.366   7.094 -0.0232 -0.1211 -0.3024
51212W        W94150  34.053  34.595   6.285 -0.1205 -0.0422 -0.1759
51213W        W94151  33.298   0.731   6.308 -0.0306 -0.1457 -0.0887
51214W        W94152  33.833   0.607   6.671 -0.0162  0.0709 -0.0446
51215W        W94153  33.948   0.499   7.148  0.3280  0.2547  0.2469
51216W        W94154  32.424   1.715   9.135 -0.2594  0.1519 -0.2763
51217W        W94155  32.757   1.847   5.077  0.0188  0.1587 -0.2359
51218W        W94156  32.803   2.117   5.893 -0.1939 -0.1821  0.0744
51219W        W94157  33.780   2.450   5.383  0.0625 -0.1212 -0.0471
51220W        W94158  34.162   1.020   6.789 -0.1498 -0.1398  0.1688
51221W        W94159   0.039   2.074   6.375  0.3463 -0.1570 -0.0580
51222W        W94160  34.363   3.080   4.807 -0.0645  0.0558  0.1056
51223W        W94161  33.767   3.049   7.123  0.0377  0.0985  0.2436
51224W        W94162  33.542   0.234   5.385 -0.0330 -0.0348 -0.0856
51225W        W94163  34.351  34.485   5.896  0.1391  0.0023 -0.3088
51226W        W94164  33.171   0.205   6.568 -0.3356 -0.0567  0.1260
51227W        W94165  33.702   0.894   7.371  0.2192 -0.3752 -0.0801
51228W        W94166  33.195   0.538   5.679  0.0744  0.1749  0.1306
51229W        W94167   0.841   0.470   7.252  0.1301  0.1241 -0.0496
51230W        W94168  34.396   1.843   4.634 -0.2185  0.0383  0.1134
51231W        W94169  33.709   1.413   7.376 -0.1534  0.0105 -0.0511
51232W        W94170  34.623   2.290   4.725 -0.0443  0.1570  0.2653
51233W        W94171  34.491   2.461   6.840  0.4045  0.0404 -0.0350
51234W        W94172  33.161   0.339   7.173 -0.1767  0.1099 -0.3109
51235W        W94173  33.584   0.351   7.424 -0.2190 -0.2218  0.0718
51236W        W94174  32.435   1.089   7.420 -0.0624  0.1088 -0.0360
51237W        W94175  33.380   1.963   6.986  0.3291  0.2127  0.3936
51238W        W94176  33.741   0.794   4.127  0.0318 -0.1723  0.3928
51239W        W94177  34.162   3.772   4.596 -0.0062  0.0594  0.0899
51240W        W94178  33.386   1.063   5.926  0.3426 -0.0658  0.1577
51241W        W94179  33.969   3.533   7.286  0.3404  0.0106 -0.1111
51242W        W94180  32.279   1.212   3.734 -0.0743 -0.1987 -0.0285
51243W        W94181  33.776   2.101   3.520 -0.0219  0.1241 -0.1950
51244W        W94182  34.255   1.901   6.300 -0.0295 -0.1087 -0.1377
51245W        W94183  34.465   0.980   5.143 -0.0935 -0.0467 -0.0545
51246W        W94184  33.885   2.839   5.111 -0.2331  0.2156  0.1651
51247W        W94185   0.564   2.665   5.375  0.1777 -0.4591 -0.1669
51248W        W94186   0.015   2.784   7.268 -0.4132 -0.1339  0.1092
51249W        W94187   1.782   3.566   6.437 -0.1565 -0.0989 -0.0445
51250W        W94188   0.599   1.836   6.000  0.1096 -0.0146  0.1967
51251W        W94189  33.453   0.240   4.815  0.1308  0.0629  0.0386
51252W        W94190  33.495   3.067   5.367 -0.0531  0.0321  0.2707
51253W        W94191  32.172   0.063   7.683 -0.1274 -0.0512 -0.1551
51254W        W94192  33.821  34.525   4.745  0.0298 -0.1111 -0.0403
51255W        W94193  33.682   3.808   8.092 -0.0138 -0.1755  0.1016
51256W        W94194  33.288   1.846   6.481  0.2547  0.2820 -0.1636
51257W        W94195  33.302   2.672   4.497 -0.0923  0.1505  0.0372
51258W        W94196  34.324   1.787   3.973  0.3824  0.1593  0.1555
51259W        W94197  33.721   1.573   6.242 -0.2266  0.2094 -0.3443
51260W        W94198  31.767   2.642   4.494 -0.0674 -0.0193  0.0538
51261W        W94199  34.424   3.860   5.480  0.0800  0.1651 -0.2845
51262W        W94200   0.946   0.881   7.015 -0.3470  0.1942 -0.0999
51263W        W94201   0.053   0.588   4.600  0.0853 -0.0095  0.0841
51264W        W94202  33.331   2.352   8.016 -0.3016 -0.0350 -0.0002
51265W        W94203  32.655   2.103   8.837 -0.1291 -0.0377 -0.6054
51266W        W94204  33.404   1.560   5.274 -0.0564  0.2002 -0.0285
51267W        W94205   0.232   2.254   5.922  0.2406  0.3573 -0.0077
51268W        W94206  33.938   2.490   3.246  0.3488 -0.0472  0.1769
51269W        W94207   0.409   3.277   5.498 -0.2416 -0.3923 -0.0605
51270W        W94208  33.866   3.620   5.710 -0.0896 -0.0467 -0.0850
51271W        W94209   0.864   3.100   5.569  0.1842  0.2577 -0.2212
51272W        W94210  32.582   0.270   5.551 -0.1328 -0.0993 -0.0425
51273W        W94211  32.979   1.930   7.714 -0.1723 -0.1991 -0.3731
51274W        W94212  32.240   0.803   4.878 -0.0727 -0.0201  0.1377
51275W        W94213  33.419   2.828   6.888 -0.2006 -0.0129  0.0219
51276W        W94214  33.904   1.892   4.517 -0.4891  0.1914 -0.2323
51277W        W94215  33.227   0.653   5.047  0.1903  0.1867 -0.1787
51278W        W94216  33.917   1.115   5.912 -0.0484  0.2649  0.1447
51279W        W94217  34.591   0.877   7.091 -0.1805 -0.1288 -0.0839
51280W        W94218  33.044  34.665   4.992 -0.1706 -0.0233 -0.2437
51281W        W94219  33.813   2.899   4.109 -0.1812  0.1688  0.0637
51282W        W94220  32.801   1.435   7.363 -0.3151  0.3593 -0.1004
51283W        W94221   0.910   0.676   4.487 -0.0610 -0.0560 -0.2411
51284W        W94222  32.877   1.050   6.022 -0.3170 -0.0267  0.1673
51285W        W94223  33.185   2.879   4.969  0.0892 -0.3288  0.0271
51286W        W94224   0.139   2.070   4.321  0.2609  0.0465  0.1583
51287W        W94225   0.669   2.488   7.094  0.1771  0.0949  0.0817
51288W        W94226  34.118   2.979   7.620  0.0121  0.0614  0.0193
51289W        W94227  32.461   2.097   4.050 -0.3639  0.2181 -0.2589
51290W        W94228  34.692   0.612   7.475  0.1441 -0.1576  0.1987
51291W        W94229   0.119   2.419   5.437 -0.0344 -0.1503 -0.3079
51292W        W94230   0.370   2.763   5.862 -0.0949 -0.2460  0.1563
51293W        W94231  34.061   1.644   7.104  0.0950 -0.1517  0.2126
51294W        W94232  34.685   0.581   6.242 -0.1614 -0.2576 -0.1033
51295W        W94233   0.098   1.697   7.446 -0.1766  0.1235 -0.2972
51296W        W94234  32.495   1.548   4.327  0.3318 -0.2078  0.2884
51297W        W94235  33.340   1.992   3.846  0.3615  0.0647 -0.1983
51298W        W94236  33.447   2.297   5.835  0.1116  0.2527 -0.1900
51299W        W94237  33.380   0.602   6.776 -0.2283 -0.3155 -0.0518
51300W        W94238  33.657   2.607   6.309  0.0847  0.2713 -0.1899
51301W        W94239  33.261   0.619   4.266  0.3168 -0.1225 -0.1996
51302W        W94240  32.748   0.006   5.944 -0.2025  0.1880  0.0245
51303W        W94241  32.758   0.721   5.551 -0.0317  0.1960  0.2139
51304W        W94242   0.329   1.083   3.759 -0.1580 -0.2775  0.2097
51305W        W94243  33.925   3.120   3.118 -0.0323 -0.2602  0.0300
51306W        W94244  33.608   0.173   6.910  0.2169  0.0030 -0.0805
51307W        W94245  33.975  34.595   7.129  0.3829  0.0288  0.2455
51308W        W94246  32.621  34.446   3.204 -0.0425  0.0092  0.1705
51309W        W94247  33.723  34.415   6.601  0.2599  0.0301  0.2774
51310W        W94248   0.455   1.987   7.277 -0.1117  0.0999 -0.1768
51311W        W94249   0.446   3.018   7.191 -0.3201 -0.2177 -0.1184
51312W        W94250  32.453   0.352   6.463  0.2801  0.2686 -0.2727
51313W        W94251   0.620   1.648   7.684  0.1509 -0.2318 -0.0280
51314W        W94252  33.483   0.690   7.801  0.0638 -0.3734 -0.1327
51315W        W94253  33.968   2.152   8.319 -0.2503  0.0917  0.2888
51316W        W94254  34.025   0.207   5.859 -0.3840  0.0273  0.0665
51317W        W94255  33.198   1.050   6.637 -0.1540  0.2654  0.3548
51318W        W94256  34.360   1.363   6.147 -0.1864  0.2619 -0.0003
51319W        W94257  33.847   1.913   6.719  0.1613 -0.0378  0.1722
51320W        W94258  34.654   1.048   4.668  0.0388 -0.1212 -0.1175
51321W        W94259  34.138   4.185   7.204 -0.1164 -0.1572 -0.1294
51322W        W94260  32.403   0.806   6.169 -0.1443 -0.2988 -0.0457
51323W        W94261  33.713   1.083   6.448 -0.2007  0.0488  0.2111
51324W        W94262  34.664   1.536   4.938 -0.3373  0.1134 -0.2425
51325W        W94263  32.299  33.905   6.285  0.2652 -0.2466 -0.1253
51326W        W94264   0.140   3.156   6.449 -0.1594  0.0143  0.1110
51327W        W94265   1.245   2.044   9.192 -0.2744  0.0631  0.0140
51328W        W94266  34.525   0.719   8.513 -0.1623  0.2720  0.0543
51329W        W94267  32.221   0.881   9.434  0.0735  0.0661  0.0626
51330W        W94268   1.547  34.463   9.965 -0.0323 -0.0230  0.2450
51331W        W94269   0.335  32.690   8.377  0.2592 -0.1218  0.1930
51332W        W94270  33.134   0.418   9.514 -0.0776  0.1212  0.3275
51333W        W94271  33.925   1.057   7.821 -0.0442 -0.1401 -0.2613
51334W        W94272  33.770   0.279   8.806 -0.1356  0.0964  0.0553
51335W        W94273  34.078   1.015   8.554  0.2856  0.1207 -0.0642
51336W        W94274  34.608   0.119   9.446  0.0122 -0.2433  0.2285
51337W        W94275   1.202   2.602   8.362 -0.1307 -0.0907 -0.0953
51338W        W94276  32.691   1.204   6.918  0.0992  0.1256 -0.0013
51339W        W94277  32.817   3.715  10.062 -0.1639  0.3084 -0.0390
51340W        W94278  34.520   1.533   9.336 -0.2418 -0.0252 -0.2485
51341W        W94279  34.492   2.181  10.087 -0.1203 -0.1067 -0.0073
51342W        W94280   0.709   3.672  10.862 -0.2255  0.3693 -0.1077
51343W        W94281  34.239   2.395   8.824  0.2037 -0.1133 -0.2666
51344W        W94282  33.294   2.937   7.987  0.0026 -0.2028 -0.0504
51345W        W94283  32.836   2.593   8.598  0.1399  0.0264 -0.1743
51346W        W94284  34.336   3.202   7.266 -0.0614  0.0944 -0.0723
51347W        W94285  34.441   2.230   8.148 -0.0057  0.1423 -0.4203
51348W        W94286  34.054   4.376  10.648  0.1605  0.4051 -0.1999
51349W        W94287  32.222   2.823   9.773  0.0174 -0.2494  0.1384
51350W        W94288  34.627   2.487   8.546 -0.1077 -0.0759  0.0627
51351W        W94289   0.379   0.319   7.393  0.2757 -0.2232 -0.1876
51352W        W94290  33.318  34.383   7.771  0.0962 -0.0018  0.2628
51353W        W94291  34.498   3.144  10.044 -0.3791  0.1355 -0.1655
51354W        W94292  34.593   0.663   9.316 -0.1030 -0.0874  0.1253
51355W        W94293   1.175   0.579  10.171 -0.1985 -0.3681 -0.0247
51356W        W94294  33.892   1.590   9.272 -0.2385 -0.3779  0.3236
51357W        W94295  31.467   1.042   8.784 -0.2718  0.1151  0.1298
51358W        W94296  34.509  33.583   7.824 -0.1598  0.1479 -0.1628
51359W        W94297  32.252   2.637   9.316  0.1690  0.0743 -0.1655
51360W        W94298  33.930   1.611   8.715 -0.1479  0.3692  0.0321
51361W        W94299   0.908   1.630   9.020 -0.2473 -0.1781 -0.4602
51362W        W94300  32.460   3.692   9.187  0.1610  0.1955 -0.1405
51363W        W94301  33.272   3.785   6.948  0.0298 -0.0936  0.2529
51364W        W94302  33.352   2.495   8.990 -0.3708  0.2488  0.0323
51365W        W94303  33.212   3.491   9.156 -0.0424  0.0348  0.3573
51366W        W94304  33.569   0.066   9.741 -0.1716 -0.0321 -0.1371
51367W        W94305   0.186   1.385   8.958 -0.0354  0.2649 -0.5057
51368W        W94306  34.389   1.460   8.819  0.1024 -0.0526 -0.1061
51369W        W94307  32.085   1.667  10.055 -0.2762  0.3194  0.2254
51370W        W94308  33.051   1.584   8.087  0.2380 -0.0113 -0.1633
51371W        W94309  32.462   1.358   9.626  0.1559  0.4129 -0.3305
51372W        W94310  33.301   1.696   7.454 -0.0423 -0.2687 -0.0554
51373W        W94311   0.611   0.463  10.208 -0.0763 -0.3185  0.0007
51374W        W94312   0.296   1.076   9.344  0.1335  0.1517 -0.0503
51375W        W94313  33.246   0.276   9.030  0.1188 -0.1018 -0.2000
51376W        W94314  34.208   0.706   7.540 -0.0949  0.2560  0.0658
51377W        W94315  31.958   3.477   9.330  0.2043 -0.0436 -0.0259
51378W        W94316  34.106   1.092   9.924 -0.4287 -0.3539 -0.2300
51379W        W94317   0.182   0.505   6.961  0.2331 -0.1642  0.0929
51380W        W94318  31.534   0.235   6.624 -0.0692 -0.1165 -0.0303
51381W        W94319  34.188   3.289   8.743 -0.0208  0.0071 -0.0658
51382W        W94320  32.142   1.253   9.068 -0.0555 -0.2705 -0.1426
51383W        W94321   0.392   1.756   9.241  0.1056  0.0229 -0.1025
51384W        W94322  34.553   2.519   7.661  0.1440 -0.0357 -0.1049
51385W        W94323   1.065   1.382   7.479 -0.1961 -0.2611 -0.1259
51386W        W94324   0.661   1.540   9.926 -0.0547  0.1649  0.1633
51387W        W94325  33.142   1.870   9.695 -0.0511  0.1698  0.3855
51388W        W94326  34.170   0.330   9.111 -0.0983 -0.0757 -0.2841
51389W        W94327  34.578   1.081   7.678 -0.0739 -0.1908  0.2352
51390W        W94328  34.224   1.924   9.083  0.0665 -0.1056  0.0494
51391W        W94329  32.607   1.923   7.421 -0.2511  0.1338  0.3571
51392W        W94330   0.796  34.073   9.401  0.1626 -0.2397 -0.3042
51393W        W94331  34.042   3.320  10.208  0.1890 -0.2142 -0.5134
51394W        W94332   1.323   2.143   8.193 -0.1073  0.0074  0.1526
51395W        W94333   0.603   1.687   8.148  0.0257 -0.1062  0.2273
51396W        W94334  33.486  33.889  10.198  0.0843 -0.1816  0.1144
51397W        W94335  33.300   4.902  10.637 -0.0668  0.0349  0.0058
51398W        W94336   0.246   1.964   7.866 -0.0241 -0.1641 -0.1735
51399W        W94337  33.472   3.543   7.422  0.2724 -0.0973  0.0211
51400W        W94338  33.403   2.886  10.353  0.2794 -0.1221 -0.2361
51401W        W94339   0.421   0.778   6.536 -0.4411 -0.0151 -0.2005
51402W        W94340  34.110   2.398   7.555 -0.2744 -0.1806  0.1587
51403W        W94341  32.997   1.694   8.597 -0.1188 -0.4377  0.0712
51404W        W94342   0.161   1.064   8.552  0.1086 -0.2345 -0.0655
51405W        W94343   0.149   3.803  10.705 -0.1289 -0.1454 -0.0365
51406W        W94344  33.121   0.999   8.174 -0.3048 -0.3321 -0.2936
51407W        W94345   1.030   0.759   9.031  0.1770  0.2350  0.2729
51408W        W94346  33.719   2.963   8.290  0.3864 -0.4612  0.1908
51409W        W94347  33.502   1.660   8.503  0.1377  0.2761  0.2986
51410W        W94348  34.631   2.368   9.412 -0.1810 -0.0166  0.0516
51411W        W94349   0.997   0.977   9.940 -0.0066  0.0330 -0.0701
51412W        W94350   0.726   0.782   9.411 -0.0032 -0.0065 -0.2060
51413W        W94351   1.382   0.470   9.433  0.0781  0.2084 -0.0497
51414W        W94352   0.375   0.587   9.765 -0.1259 -0.3279  0.1789
51415W        W94353  34.450   0.552   8.031 -0.1833 -0.1225 -0.1166
51416W        W94354  33.775   1.216   8.980  0.5096 -0.0344  0.0218
51417W        W94355  34.423   2.887   9.059 -0.0928 -0.1291 -0.0630
51418W        W94356   0.832  34.608   8.442  0.2100  0.0681  0.1441
51419W        W94357  33.622   3.928  10.385  0.1591  0.0796 -0.4144
51420W        W94358   0.594   1.873   8.705  0.3626  0.1102  0.0400
51421W        W94359  34.124   3.829  10.008 -0.0869  0.2256 -0.0257
51422W        W94360  33.185  34.691  10.141  0.2756  0.2416  0.1841
51423W        W94361   0.343   0.759   8.955  0.0202  0.0453 -0.0576
51424W        W94362  33.780  34.277   7.427 -0.1993 -0.1321  0.1007
51425W        W94363  34.537   0.483   9.857 -0.2018 -0.0824  0.0861
51426W        W94364   0.458   1.173   8.112  0.0912 -0.1163  0.1398
51427W        W94365   0.697   2.169   9.147  0.0350  0.1008  0.1138
51428W        W94366   0.932   1.400   7.935  0.1539 -0.2507  0.0585
51429W        W94367   0.874   2.011   9.591  0.0250  0.2048  0.0337
51430W        W94368  31.055   1.187   9.005 -0.1350 -0.1228  0.1304
51431W        W94369  32.700   0.728   8.109  0.2571 -0.1301  0.1157
51432W        W94370   0.417   3.280   8.352  0.1702  0.0730  0.2418
51433W        W94371  31.787   0.405   9.075  0.0486  0.1538 -0.2249
51434W        W94372  32.754   1.209   7.820  0.0615  0.0897 -0.3101
51435W        W94373  34.417   0.979   8.937 -0.0401 -0.1680 -0.1043
51436W        W94374   1.304   3.070   8.868  0.0670 -0.1180 -0.1489
51437W        W94375   0.574   1.170   7.671 -0.0322 -0.4337  0.3800
51438W        W94376  34.465   1.685   8.056  0.0380  0.1850 -0.2429
51439W        W94377  31.264   6.270  10.280  0.0436  0.2223  0.1066
51440W        W94378  33.777   3.462   8.585  0.2756  0.0643  0.0994
51441W        W94379   1.151   1.188   9.239  0.0810 -0.0917 -0.0446
51442W        W94380  34.017   0.461  10.099  0.0176 -0.0626 -0.1890
51443W        W94381  34.065   5.167  10.627  0.4138 -0.0130 -0.3609
51444W        W94382  34.086   0.255   7.632  0.1234  0.2661  0.0148
51445W        W94383   0.733   2.383  10.462 -0.4068 -0.2291  0.2426
51446W        W94384  34.543   3.071   8.513 -0.1571 -0.3033 -0.2424
51447W        W94385   1.294   0.200   8.364 -0.1436 -0.1108 -0.0179
51448W        W94386  33.829   2.711   8.945 -0.0640  0.1181  0.1186
51449W        W94387  33.644   3.466   6.856 -0.2073 -0.0151 -0.1246
51450W        W94388  33.362   2.965   9.273 -0.3371 -0.3132  0.0849
51451W        W94389   0.744   1.394   9.438  0.1563  0.0394  0.2558
51452W        W94390  34.282   1.105   9.424 -0.1853 -0.0680 -0.1178
51453W        W94391  32.174   0.521   7.163  0.0288  0.2631  0.1221
51454W        W94392   0.491   1.053   9.797  0.3149 -0.1046  0.1068
51455W        W94393  34.445   1.908   6.762  0.0872  0.1481  0.1747
51456W        W94394  33.580   3.588   9.554 -0.0596 -0.4577 -0.0200
51457W        W94395   1.370   2.511   9.748 -0.0151  0.1262 -0.1386
51458W        W94396   0.010   2.850   9.487 -0.0788  0.4065  0.0778
51459W        W94397  31.965   0.929   7.436  0.0443 -0.0056 -0.0379
51460W        W94398  33.423   1.430   9.475 -0.4747 -0.1962  0.2649
51461W        W94399  34.116   0.490   8.425  0.1649  0.1626 -0.3035
51462W        W94400  34.097   0.942  10.544 -0.1100  0.1565 -0.0033
51463W        W94401   0.608   0.664   7.734  0.2478  0.1186 -0.0687
51464W        W94402  33.561   0.860   8.288 -0.1370  0.0805  0.0870
51465W        W94403  34.445   1.479   9.791  0.0619 -0.1253  0.2495
51466W        W94404  34.691   1.891   9.648  0.0675  0.0303 -0.0410
51467W        W94405  32.956   0.748   9.033  0.0962  0.0672 -0.0864
51468W        W94406   0.322   2.418   8.099 -0.3416  0.1681 -0.1962
51469W        W94407  32.722   0.356   9.235 -0.1060  0.3812  0.0643
51470W        W94408   0.731  33.446   7.140  0.2811 -0.1365  0.0497
51471W        W94409  32.873   1.535   9.358  0.0446 -0.0535 -0.3044
51472W        W94410  32.909   2.110   8.226 -0.4912  0.1757  0.1376
51473W        W94411   0.285   2.929   8.011  0.1207  0.3319 -0.1567
51474W        W94412   1.869   1.809  10.165 -0.0790  0.1399 -0.1539
51475W        W94413  32.997   2.186   7.287  0.0866  0.0862  0.1379
51476W        W94414  33.673   2.502   8.527  0.2356  0.0809  0.3367
51477W        W94415  34.157   2.817   8.566  0.1386  0.1241 -0.0358
51478W        W94416  33.432   0.773   9.012 -0.0837  0.2557  0.0857
51479W        W94417  33.630   0.445   9.402 -0.0427 -0.1690 -0.0029
51480W        W94418   0.987   4.118  10.644 -0.2471 -0.0948  0.1385
51481W        W94419  32.278   1.110   7.963  0.1610  0.0717 -0.0758
51482W        W94420   1.024   1.620   8.475 -0.0691 -0.2232  0.2368
51483W        W94421  33.360   3.834   9.908 -0.2961 -0.1198  0.3410
51484W        W94422  33.152   3.263   9.663  0.0397 -0.1185  0.0358
51485W        W94423  32.530   1.844   8.255  0.2807 -0.0370 -0.1731
51486W        W94424  34.001  34.668   9.461  0.1275  0.1669 -0.3526
51487W        W94425  32.292  34.359   8.981 -0.2477  0.1444  0.0964
51488W        W94426   0.290   0.312   7.893 -0.1310  0.0315  0.3334
51489W        W94427  32.427   2.385   8.316  0.2804  0.2230 -0.0790
51490W        W94428  32.755   0.404   8.747 -0.0745 -0.4837 -0.2976
51491W        W94429   1.778   0.113   9.687  0.5228  0.0118 -0.1653
51492W        W94430   0.936   0.479   9.748 -0.2506  0.0023  0.3612
51493W        W94431  33.934   0.545   7.986 -0.3955  0.0280 -0.1843
51494W        W94432  34.683   0.966   9.711 -0.5071 -0.0615 -0.1057
51495W        W94433   0.060   1.500   8.403  0.2600 -0.1065 -0.1258
51496W        W94434  34.003   1.928   7.905  0.1280  0.2240 -0.4043
51497W        W94435   0.116   4.957  10.003  0.0084  0.1102 -0.1199
51498W        W94436  34.178  34.618   9.955 -0.0954  0.0350 -0.1929
51499W        W94437  34.374   1.963   8.550 -0.1804 -0.0048  0.0576
51500W        W94438  34.414   1.062   8.168 -0.2597  0.2561 -0.2849
51501W        W94439  33.240   1.213   8.631 -0.3468 -0.1796  0.0474
51502W        W94440  33.662   2.079   8.948  0.1012  0.1266  0.2379
51503W        W94441  33.920   4.538   2.930 -0.2972 -0.0001  0.1426
51504W        W94442  33.954   5.384   0.806 -0.4231 -0.1765 -0.0401
51505W        W94443  32.295   4.900   1.285 -0.1504 -0.0146 -0.3650
51506W        W94444  33.100   4.321   4.283 -0.1554 -0.1294  0.0195
51507W        W94445  34.650   5.821   2.666 -0.0270 -0.2449 -0.2565
51508W        W94446  33.478   6.320   3.777 -0.3891 -0.2244  0.1661
51509W        W94447  33.124   4.740   2.011  0.0204  0.2794  0.0601
51510W        W94448  33.028   2.926   2.064 -0.0584  0.2353  0.2260
51511W        W94449  32.261   4.659   2.666 -0.2484 -0.2767 -0.1010
51512W        W94450  32.871   4.379   1.716 -0.0238 -0.0865  0.4473
51513W        W94451  34.079   4.249   1.961  0.1020  0.0804 -0.2123
51514W        W94452  32.479   4.085   2.924  0.3422  0.1195 -0.2572
51515W        W94453   0.127   6.150   0.143 -0.1397 -0.2749 -0.2235
51516W        W94454  33.285   6.163   2.031 -0.1876  0.2921 -0.1315
51517W        W94455  33.189   5.107   2.412 -0.3075 -0.1349 -0.2959
51518W        W94456  34.596   4.255   1.841 -0.1802  0.0497  0.0378
51519W        W94457   0.988   6.594   1.314 -0.1131  0.2951 -0.1801
51520W        W94458   0.041   6.649   2.982 -0.3530 -0.2008  0.1573
51521W        W94459  33.044   6.130   2.411 -0.1098  0.2145 -0.1349
51522W        W94460  32.525   6.957   2.227 -0.1656 -0.0570 -0.0206
51523W        W94461  33.189   6.477   0.678  0.3004  0.1881  0.1154
51524W        W94462  33.380   6.747   4.507  0.0078 -0.1818  0.2021
51525W        W94463  32.789   5.552   1.578 -0.1378  0.2017 -0.0960
51526W        W94464  33.665   5.321   4.231 -0.2501 -0.1782  0.1296
51527W        W94465  32.777   5.678   0.773  0.3848  0.0599 -0.3460
51528W        W94466   0.644   5.337   0.745  0.3439  0.2599 -0.0397
51529W        W94467  33.836   3.771   4.199 -0.1297 -0.1101 -0.0371
51530W        W94468  32.132   6.629   2.832  0.3348  0.0064  0.0075
51531W        W94469  33.591   6.721   2.634  0.2341  0.0987  0.2597
51532W        W94470  33.513   3.907   2.040 -0.1029 -0.0587  0.0512
51533W        W94471  33.443   3.803   2.512 -0.1686 -0.1213 -0.3887
51534W        W94472  32.423   6.231   2.733 -0.2380 -0.1930 -0.2326
51535W        W94473  33.569   4.407   2.062  0.2284  0.1304 -0.0512
51536W        W94474  33.487   6.250   2.573  0.1261  0.0229 -0.3984
51537W        W94475  31.726   4.083   2.190  0.1270  0.3572 -0.1292
51538W        W94476  33.628   4.806   2.387 -0.1521  0.2367  0.0938
51539W        W94477  32.180   5.521   3.210 -0.2823 -0.0093 -0.1404
51540W        W94478  32.240   5.639   3.939  0.0093  0.2251 -0.0878
51541W        W94479  33.784   3.376   0.066  0.0076 -0.2682  0.2139
51542W        W94480  33.287   6.737   4.013 -0.2655 -0.0793  0.2845
51543W        W94481  34.608   5.948   2.166  0.0544 -0.2209 -0.2434
51544W        W94482  33.728   5.914  31.461  0.3526  0.0444  0.0794
51545W        W94483  34.645   5.348   2.449 -0.1364 -0.1786 -0.0151
51546W        W94484  32.749   6.393   1.922 -0.0666  0.0604 -0.1424
51547W        W94485  33.262   3.795   3.083  0.0569 -0.0704  0.0209
51548W        W94486  34.132   5.013   5.217 -0.1290 -0.4887  0.3390
51549W        W94487  30.999   8.167   0.206 -0.3763  0.2864  0.0665
51550W        W94488  33.098   5.498   3.644  0.2348  0.0547 -0.0390
51551W        W94489  32.296   5.770   1.722  0.4601  0.1169 -0.0270
51552W        W94490  32.595   3.721   3.664 -0.0352  0.1407 -0.0846
51553W        W94491  33.583   5.183   3.731 -0.0905 -0.0375 -0.1633
51554W        W94492  33.056   3.549   2.690  0.5498  0.0801 -0.1213
51555W        W94493  32.932   6.887   1.936  0.1940  0.1178 -0.0857
51556W        W94494  32.744   4.410   2.601 -0.2768 -0.5540 -0.0962
51557W        W94495  33.299   4.942   1.084  0.1384  0.1301  0.1533
51558W        W94496  33.509   2.922   3.686 -0.0251 -0.1303  0.2854
51559W        W94497  32.602   3.996   1.300 -0.2144  0.3170  0.2567
51560W        W94498  34.108   3.240  30.879  0.0398  0.1678  0.1153
51561W        W94499   0.100   4.987   3.872 -0.0118 -0.0990 -0.1418
51562W        W94500  34.441   6.387   1.095  0.0934 -0.1986 -0.3194
51563W        W94501  32.263   4.770   1.835 -0.1908  0.2582 -0.1659
51564W        W94502  34.206   6.074   1.430  0.2937  0.1304  0.1426
51565W        W94503  33.254   7.242   2.850 -0.0566  0.1596 -0.2849
51566W        W94504  33.002   5.322   1.208 -0.1299  0.1648  0.1092
51567W        W94505  33.650   4.441   1.153 -0.2217 -0.1618 -0.0911
51568W        W94506  33.653   4.432   3.926 -0.0079 -0.0525  0.1534
51569W        W94507  33.995   4.231  31.679 -0.0721 -0.0397 -0.3907
51570W        W94508  33.621   8.041   0.450  0.1635  0.0240 -0.4494
51571W        W94509  31.728   4.893   1.341  0.0218  0.3047 -0.1243
51572W        W94510  32.975   7.018   2.493  0.1197  0.0514  0.1474
51573W        W94511  32.720   4.291   5.418  0.2983  0.2603  0.0151
51574W        W94512  33.041   4.646   1.405  0.1677 -0.0772  0.0625
51575W        W94513  33.305   6.244   4.250 -0.0139  0.2262  0.1984
51576W        W94514  33.494   4.112   5.052  0.3594 -0.1536  0.1320
51577W        W94515  34.594   6.636  31.915  0.4617 -0.5081 -0.0698
51578W        W94516  34.637   6.334   2.573  0.3937  0.1809 -0.0286
51579W        W94517  32.707   5.143   3.249  0.3778 -0.0332 -0.1019
51580W        W94518   0.141   3.788   2.147 -0.0608 -0.0533 -0.0122
51581W        W94519  34.470   5.855   0.295  0.0658 -0.1733  0.1040
51582W        W94520  30.788   7.307   2.411 -0.0219 -0.1350 -0.1116
51583W        W94521  34.122   3.665   3.502 -0.4497  0.0756 -0.0617
51584W        W94522  33.931   4.898   1.210 -0.1644 -0.0023 -0.2527
51585W        W94523   0.464   5.627   3.202  0.0564  0.0494 -0.1423
51586W        W94524  32.950   4.291   3.122  0.2195 -0.2445 -0.1403
51587W        W94525  32.612   5.582   3.474 -0.1824  0.0574  0.0001
51588W        W94526   0.193   3.118   4.621  0.0784 -0.0261 -0.3247
51589W        W94527  32.166   6.579   2.347 -0.0732 -0.0744  0.1386
51590W        W94528  32.904   6.054   1.592  0.3054 -0.0128 -0.2087
51591W        W94529  33.019   4.019   2.703  0.1672  0.4717  0.0781
51592W        W94530  33.385   6.723   1.987 -0.1896  0.0620 -0.2235
51593W        W94531  33.987   6.469   1.224  0.1899  0.3644  0.3929
51594W        W94532  33.105   7.729   1.966  0.1062  0.1432  0.1309
51595W        W94533  31.980   7.029   2.500  0.1281 -0.1647  0.1467
51596W        W94534  33.386   5.677  31.127  0.2892 -0.2269 -0.3732
51597W        W94535  32.532   4.603   3.048  0.1223 -0.2927 -0.2619
51598W        W94536  33.060   3.576   1.199  0.1854 -0.0380 -0.1020
51599W        W94537  34.371   4.730   2.772  0.1508  0.0245 -0.0102
51600W        W94538  31.930   6.117   2.545  0.2837  0.2025 -0.0024
51601W        W94539  33.893   4.582   4.372  0.3445  0.2265  0.1116
51602W        W94540  32.603   4.720   0.548  0.0829  0.1105  0.0812
51603W        W94541  32.449   4.466   2.156 -0.1912  0.0565 -0.4597
51604W        W94542  32.596   6.220   4.293 -0.1891 -0.1658 -0.2137
51605W        W94543  33.081   5.499   0.301  0.0389 -0.4056  0.3118
51606W        W94544  33.116   5.379   2.817  0.0560 -0.0042  0.0510
51607W        W94545   0.618   3.903   3.295 -0.1761  0.1365  0.0914
51608W        W94546  34.298   4.993   1.688 -0.0930 -0.2365 -0.2405
51609W        W94547  33.858   4.172   1.520  0.2026  0.1425 -0.2561
51610W        W94548   0.531   4.859   1.790  0.2924  0.4436  0.0617
51611W        W94549  34.551   5.134   3.051 -0.1411  0.1196 -0.2914
51612W        W94550  32.629   5.213   4.315  0.0024  0.1688  0.2059
51613W        W94551  32.977   7.075   0.222 -0.3472 -0.3215  0.1177
51614W        W94552  31.677   4.264   4.043 -0.4528  0.3044 -0.0173
51615W        W94553  32.946   5.702   3.166 -0.3006 -0.1540 -0.0556
51616W        W94554  32.666   3.823   2.421  0.0052  0.0223  0.1879
51617W        W94555  33.163   6.606   2.409  0.2211  0.1373  0.2681
51618W        W94556  32.596   6.886   1.522 -0.1451  0.0994 -0.0424
51619W        W94557  32.103   6.028   4.283  0.0849 -0.1665  0.3155
51620W        W94558  33.710   4.710   1.589 -0.0905 -0.5720  0.1198
51621W        W94559  34.290   2.808   3.149 -0.1924  0.0853  0.1677
51622W        W94560  32.956   3.926   3.465  0.0819 -0.1196 -0.0682
51623W        W94561  32.789   2.896   3.667 -0.0492  0.3079 -0.0713
51624W        W94562  34.287   3.725   0.161 -0.0618  0.1697  0.2180
51625W        W94563  32.243   5.052   2.998 -0.1933 -0.1243 -0.1637
51626W        W94564   0.468   5.600  31.927  0.1217  0.0453 -0.0251
51627W        W94565  33.086   5.956   3.822  0.2103 -0.0455  0.2069
51628W        W94566   0.145   5.228   0.906 -0.0258  0.0142  0.0809
51629W        W94567  33.870   6.797   3.135 -0.2605 -0.0285  0.1457
51630W        W94568  34.680   3.869   2.641  0.0979 -0.1394 -0.0626
51631W        W94569   0.344   4.117   3.813  0.1748  0.2695 -0.2204
51632W        W94570  32.006   3.736   4.814 -0.2869 -0.1672  0.4483
51633W        W94571  33.939   5.033   2.043 -0.0173  0.1662  0.0205
51634W        W94572  34.295   4.557  31.873  0.3048 -0.2071 -0.2558
51635W        W94573  34.184   6.007   0.904 -0.1345  0.2999 -0.0948
51636W        W94574  33.052   4.168   1.153  0.0112  0.1370 -0.0699
51637W        W94575  31.999   5.748   2.151  0.1123  0.1848  0.0119
51638W        W94576  33.722   4.163   0.673 -0.0826 -0.4203  0.0856
51639W        W94577  33.438   4.745   0.311 -0.1369  0.2160 -0.1789
51640W        W94578   0.280   6.696   2.521 -0.2374  0.1838 -0.1511
51641W        W94579  34.513   3.678   1.276 -0.0273 -0.1528  0.0264
51642W        W94580  32.520   5.354   1.076 -0.1273 -0.3987 -0.2839
51643W        W94581  33.539   7.098   1.636 -0.2657 -0.3447  0.0861
51644W        W94582  31.858   6.189   4.703 -0.2059 -0.0393 -0.2324
51645W        W94583  33.070   6.267   3.394  0.0183 -0.1141 -0.2847
51646W        W94584   1.271   3.745   1.045 -0.1644  0.1517 -0.1127
51647W        W94585  32.861   5.477   2.415 -0.2794 -0.0441  0.0679
51648W        W94586   0.299   6.852   1.773  0.0621 -0.1978  0.0385
51649W        W94587  31.872   4.724   3.825  0.5520 -0.0850 -0.2868
51650W        W94588  34.173   1.947   0.219  0.1501  0.3532  0.0662
51651W        W94589  32.616   6.518   5.660  0.0618  0.0810 -0.1224
51652W        W94590  32.688   3.664   3.123 -0.0063  0.2753 -0.2421
51653W        W94591  32.175   7.554   1.243 -0.0330  0.2746  0.3900
51654W        W94592  33.656   4.830   0.757  0.0543 -0.2023  0.0193
51655W        W94593  31.837   8.242   2.359  0.1423  0.2435  0.2128
51656W        W94594  32.301   6.635   1.843 -0.2637 -0.1000 -0.1042
51657W        W94595  34.331   8.389   2.775  0.1047 -0.3126 -0.0941
51658W        W94596  32.179   5.304   2.458 -0.2618 -0.0509 -0.1243
51659W        W94597  33.873   5.306   1.636 -0.0661 -0.4343 -0.1412
51660W        W94598  34.097   4.195   4.131 -0.0442 -0.0455 -0.2082
51661W        W94599  34.159   5.440   3.942  0.2634 -0.1775 -0.0131
51662W        W94600  32.938   4.250   2.194  0.1006  0.2776  0.1816
51663W        W94601  34.384   5.673   3.582  0.0389 -0.0414 -0.4249
51664W        W94602  34.413   5.581   0.693  0.1338 -0.0526 -0.2817
51665W        W94603  33.891   6.784   1.736 -0.1486 -0.0816 -0.0394
51666W        W94604  32.610   6.143   3.571 -0.0622  0.1702 -0.2450
51667W        W94605  34.287   5.125   3.558 -0.0820 -0.1903  0.2496
51668W        W94606  32.403   3.334   0.244 -0.0629  0.0976  0.1818
51669W        W94607  33.374   3.426   3.956  0.1002 -0.3519  0.0315
51670W        W94608  32.713   4.980   1.580 -0.0942 -0.1182 -0.4674
51671W        W94609  31.781   5.800   3.129 -0.0738 -0.1543 -0.4434
51672W        W94610  34.540   4.227   0.177  0.0562  0.0566 -0.2044
51673W        W94611  33.244   3.095   2.486  0.1205  0.1716 -0.2159
51674W        W94612  34.023   6.018   3.267  0.0286  0.3062 -0.2633
51675W        W94613  34.539   3.381   3.348 -0.0332  0.0437  0.0849
51676W        W94614  33.198   3.407   1.732 -0.1922  0.1949 -0.0179
51677W        W94615  34.224   6.737   0.767 -0.3532  0.2339 -0.1347
51678W        W94616  33.347   4.283   1.567 -0.0451 -0.3917 -0.0349
51679W        W94617  34.289   4.602   0.437 -0.3461  0.0473  0.3213
51680W        W94618  33.399   5.122   1.607  0.0031 -0.0239 -0.0073
51681W        W94619  32.563   7.802   2.060 -0.3104 -0.5137  0.0544
51682W        W94620   0.055   5.621  31.454  0.1596 -0.0428 -0.1999
51683W        W94621  33.524   4.717   3.484 -0.1586 -0.4143 -0.2853
51684W        W94622  34.153   6.568   5.355  0.0755  0.2072 -0.1662
51685W        W94623  33.099   6.221   0.033 -0.0265 -0.1440 -0.0152
51686W        W94624  33.909   4.359   3.427 -0.0834 -0.1449  0.2950
51687W        W94625  34.538   5.819   1.185 -0.1501 -0.1355  0.3299
51688W        W94626  34.250   7.715   0.833 -0.0117 -0.1543 -0.2777
51689W        W94627   0.933   4.658   1.639 -0.1038  0.1913  0.2178
51690W        W94628  34.217   3.826   1.707 -0.1514  0.0396 -0.0522
51691W        W94629  33.426   4.186   3.513 -0.0776  0.2365  0.0409
51692W        W94630  32.611   4.350   0.915  0.3336  0.0611  0.2786
51693W        W94631  32.549   7.269   0.032  0.0866  0.0437  0.1506
51694W        W94632  32.717   4.928   2.738 -0.1111  0.1075 -0.1447
51695W        W94633   0.196   2.565   3.989 -0.0138 -0.0842  0.1308
51696W        W94634  33.443   2.474   4.068 -0.1377 -0.4855 -0.3545
51697W        W94635  33.364   5.604   1.657  0.0121  0.0304  0.0133
51698W        W94636  32.083   3.912   0.355 -0.1846  0.2342  0.0231
51699W        W94637  32.711   4.716   3.579 -0.0784 -0.4435 -0.1740
51700W        W94638  33.533   4.311   2.631  0.2085  0.0800  0.2040
51701W        W94639   0.669   3.695   2.350  0.1678 -0.0478 -0.3028
51702W        W94640  33.510   6.684   1.329  0.0794  0.1999 -0.1800
51703W        W94641   0.334   4.548   4.064 -0.0893  0.1915 -0.0298
51704W        W94642   0.034   4.013   3.247  0.0215 -0.1411  0.1224
51705W        W94643  33.257   4.518   0.853 -0.2265  0.1692  0.2718
51706W        W94644  33.464   4.411   3.069 -0.1925 -0.0835  0.0965
51707W        W94645  34.647   5.623   3.098 -0.2280 -0.0428  0.1220
51708W        W94646  34.316   6.523   3.160  0.1049 -0.0064  0.0987
51709W        W94647  32.082   2.569   2.159 -0.1278  0.2537 -0.0458
51710W        W94648  33.547   4.973   2.907 -0.0699  0.1627  0.1930
51711W        W94649  33.435   4.560   4.694 -0.3104 -0.1111  0.1203
51712W        W94650  33.929   4.793   4.797  0.3043 -0.2712 -0.0873
51713W        W94651  34.404   4.675   2.098 -0.0225  0.1773 -0.0673
51714W        W94652  33.114   4.480   3.808 -0.0022  0.0233  0.2150
51715W        W94653   0.791   3.149   1.664  0.1838 -0.2988  0.0852
51716W        W94654   0.115   5.321   3.496 -0.0978 -0.1219  0.0699
51717W        W94655  33.742   5.856   0.784 -0.0439 -0.1347  0.0835
51718W        W94656  34.243   6.327   4.429 -0.0239  0.0090  0.0181
51719W        W94657  33.707   3.009   2.659  0.0663 -0.1827 -0.4044
51720W        W94658  33.877   5.762   1.859  0.0234 -0.0839 -0.1600
51721W        W94659  34.240   5.550   2.640  0.1290 -0.0576 -0.0519
51722W        W94660  33.605   5.329   2.036  0.1641 -0.1228  0.2064
51723W        W94661  32.939   6.345   2.834  0.0245 -0.0685 -0.0789
51724W        W94662  32.072   7.171   7.132 -0.0975  0.1943  0.0096
51725W        W94663  34.321   4.332   4.575  0.2270  0.1887 -0.0304
51726W        W94664  33.354   4.009   3.972 -0.3062  0.2090 -0.4368
51727W        W94665  34.051   2.318   6.509 -0.1452  0.2168 -0.1312
51728W        W94666   0.131   3.907   6.077  0.0433  0.1190  0.2544
51729W        W94667  34.023   7.047   8.299  0.0067  0.1391 -0.1708
51730W        W94668  33.567   4.936   6.054  0.0721  0.3497 -0.0140
51731W        W94669  33.543   3.615   6.076  0.1277  0.2281  0.2373
51732W        W94670  31.633   3.555   4.541 -0.0944 -0.1815  0.0085
51733W        W94671  34.032   5.240   5.995  0.1536  0.0117  0.0266
51734W        W94672   0.261   3.875   7.063  0.0240 -0.1221 -0.1006
51735W        W94673  33.788   4.180   6.787 -0.0658  0.0017  0.0287
51736W        W94674  34.204   6.228   5.937  0.1823  0.0576 -0.0182
51737W        W94675  32.123   5.136   4.008  0.3952  0.2436 -0.0007
51738W        W94676  33.998   6.596   6.650 -0.1613  0.1485 -0.1119
51739W        W94677  34.467   5.810   5.749 -0.0584  0.1075 -0.1512
51740W        W94678   0.367   5.553   4.984 -0.4391  0.1581  0.0607
51741W        W94679   0.734   6.132   5.534 -0.0199 -0.2025 -0.0013
51742W        W94680  33.852   6.029   6.613 -0.1206 -0.3425 -0.0841
51743W        W94681  32.812   7.780   7.784 -0.1896  0.1439 -0.0182
51744W        W94682  33.865   5.590   3.555  0.1118 -0.0228  0.0274
51745W        W94683   1.003   7.263   7.527  0.2437  0.0250  0.1096
51746W        W94684  32.958   5.936   4.521  0.0508 -0.0289 -0.0765
51747W        W94685  33.421   5.846   7.939 -0.0800 -0.2131  0.2226
51748W        W94686  33.432   5.716   4.487 -0.3839 -0.2861  0.3251
51749W        W94687  33.594   5.960   6.169 -0.1351 -0.2152 -0.1163
51750W        W94688  34.620   6.142   6.937  0.1158  0.1992 -0.0665
51751W        W94689  32.862   7.543   4.808 -0.1308 -0.0824  0.1849
51752W        W94690  33.769   6.459   5.724  0.0880  0.0519 -0.1371
51753W        W94691  34.668   5.623   5.306  0.1839  0.2711 -0.3383
51754W        W94692   0.029   2.915   5.550  0.3943 -0.4936  0.0152
51755W        W94693  33.958   6.947   6.302  0.0891 -0.0865 -0.1278
51756W        W94694  33.592   5.496   5.885  0.3426  0.1109  0.1880
51757W        W94695  33.436   6.316   6.622 -0.0712 -0.0651  0.1612
51758W        W94696  32.779   5.639   6.219  0.1167  0.0002  0.5347
51759W        W94697  33.145   5.795   5.960 -0.0094  0.0924  0.1362
51760W        W94698   0.009   6.116   7.424 -0.0528  0.0596 -0.0102
51761W        W94699  32.831   4.338   7.538 -0.0424 -0.4188 -0.2595
51762W        W94700  34.444   3.732   4.162  0.0387 -0.1322  0.0765
51763W        W94701  32.031   6.818   7.483 -0.1351 -0.1660 -0.1737
51764W        W94702  34.633   5.063   5.285  0.1620  0.1176  0.0783
51765W        W94703  33.408   5.190   4.660 -0.1400  0.3378 -0.1173
51766W        W94704  34.348   4.139   5.025  0.1887  0.2241  0.3783
51767W        W94705  32.638   7.828   6.862 -0.0146 -0.1312 -0.0130
51768W        W94706  33.194   3.492   6.505  0.2542 -0.0296  0.0650
51769W        W94707  34.570   6.573   7.207  0.0386  0.1411  0.1285
51770W        W94708  33.526   7.032   4.853  0.1612  0.0536  0.0008
51771W        W94709  32.209   5.944   6.115  0.0040 -0.1272 -0.2820
51772W        W94710  33.011   6.663   5.187  0.0412  0.0815 -0.1695
51773W        W94711  33.235   3.557   4.905  0.1496 -0.1726 -0.5106
51774W        W94712  32.645   6.074   6.569  0.3316  0.0348  0.0810
51775W        W94713  34.492   2.976   6.848 -0.1045 -0.4636  0.0204
51776W        W94714  33.632   4.989   5.140 -0.2024  0.2035 -0.0842
51777W        W94715  33.422   5.243   6.853  0.0287  0.0964  0.1199
51778W        W94716  33.192   4.057   4.678 -0.1581 -0.1672 -0.0825
51779W        W94717  34.148   3.878   6.734  0.0791 -0.0146 -0.0960
51780W        W94718  32.475   3.357   6.153  0.0482 -0.0451 -0.2435
51781W        W94719  33.600   3.184   4.874  0.0479  0.2181 -0.0851
51782W        W94720  34.354   4.688   5.554 -0.1216 -0.4267  0.1229
51783W        W94721  33.171   4.075   5.483  0.0486 -0.1185  0.0072
51784W        W94722  34.217   5.787   6.877 -0.1254 -0.0144 -0.0908
51785W        W94723   0.713   3.863   3.942  0.2166 -0.2331 -0.0127
51786W        W94724  32.926   7.010   6.583  0.0008  0.2622  0.3563
51787W        W94725  33.505   5.593   6.490 -0.1820  0.0724  0.2982
51788W        W94726  34.663   4.631   6.209  0.0542 -0.0629 -0.0089
51789W        W94727  33.350   7.010   6.867 -0.2364  0.2145 -0.0007
51790W        W94728  33.782   3.673   4.908  0.2214  0.0925 -0.0266
51791W        W94729  32.663   7.773   4.421 -0.2621  0.0007 -0.1313
51792W        W94730  31.739   5.006   6.154  0.0802  0.0513  0.2029
51793W        W94731   1.340   5.825   6.405  0.1099  0.1470  0.0816
51794W        W94732  33.287   5.520   7.226  0.2401 -0.3373  0.1303
51795W        W94733  33.002   4.419   4.962 -0.1735  0.0640 -0.1667
51796W        W94734  33.118   6.564   6.855 -0.0129 -0.0534 -0.0760
51797W        W94735  34.112   6.281   7.027  0.0471  0.3618 -0.2835
51798W        W94736  34.294   5.603   4.456 -0.0563  0.2551  0.3363
51799W        W94737  34.556   5.297   4.825 -0.1201 -0.1137 -0.0993
51800W        W94738  32.288   7.017   6.605 -0.0850  0.0078 -0.2680
51801W        W94739  34.560   3.359   5.594  0.0759 -0.1421 -0.0189
51802W        W94740   1.174   3.892   5.263 -0.0728 -0.3371 -0.0188
51803W        W94741  31.926   6.999   5.088  0.1545  0.1741  0.1162
51804W        W94742  34.463   4.137   7.597  0.1804 -0.0036  0.0141
51805W        W94743  33.040   4.877   4.671  0.3453  0.0156 -0.1643
51806W        W94744  34.572   4.155   6.881  0.0947 -0.0347 -0.0509
51807W        W94745  33.770   6.134   7.527  0.6935  0.0781  0.0503
51808W        W94746  31.657   7.559   7.204 -0.0014 -0.0080  0.1152
51809W        W94747   0.824   4.798   8.505 -0.1290 -0.2773 -0.2436
51810W        W94748  34.662   6.296   4.861  0.1706  0.2251  0.2934
51811W        W94749  33.773   5.416   5.413  0.0438 -0.0749  0.1686
51812W        W94750   0.900   2.630   5.782 -0.2656 -0.0292  0.1454
51813W        W94751  34.568   7.576   6.569  0.0270 -0.1021  0.1588
51814W        W94752  32.687   5.672   4.143  0.2940 -0.0194 -0.1553
51815W        W94753  33.933   5.951   4.390  0.1365 -0.2770  0.1338
51816W        W94754  33.139   8.288   5.487  0.4853  0.2763  0.5122
51817W        W94755  33.895   4.331   4.827  0.1915  0.0132  0.0025
51818W        W94756  31.905   3.920   5.472  0.1339 -0.2087 -0.0089
51819W        W94757  33.077   2.619   5.890 -0.0844  0.2596  0.0213
51820W        W94758  34.262   3.830   5.978 -0.0929  0.0200 -0.1451
51821W        W94759  33.032   6.090   6.911  0.0568  0.2157  0.4621
51822W        W94760  34.645   5.765   6.602 -0.2485 -0.1775 -0.1569
51823W        W94761  32.298   4.967   4.526 -0.1333  0.0422  0.0800
51824W        W94762   1.096   5.281   6.283 -0.0078  0.2055 -0.0456
51825W        W94763  32.212   4.906   5.446  0.5036 -0.1404  0.1989
51826W        W94764  33.225   5.325   6.232  0.0796 -0.1803 -0.3365
51827W        W94765  33.450   6.333   5.233  0.3676 -0.3129  0.1263
51828W        W94766  33.679   5.667   7.406 -0.4196 -0.0238 -0.1247
51829W        W94767  33.281   5.964   7.470  0.0528 -0.0546 -0.1137
51830W        W94768  32.830   3.067   5.915  0.0628 -0.1270 -0.1711
51831W        W94769   0.390   5.988   4.743 -0.0571 -0.0926  0.1892
51832W        W94770   0.863   4.431   6.453 -0.1587 -0.0308  0.0537
51833W        W94771  33.654   6.533   6.995 -0.0484 -0.1261 -0.0643
51834W        W94772  32.962   5.368   5.742 -0.2602 -0.2100  0.0654
51835W        W94773  34.345   6.191   6.478  0.0580 -0.4455  0.3787
51836W        W94774  34.456   4.740   4.843  0.0973 -0.0049 -0.2573
51837W        W94775  33.869   4.025   6.312 -0.1170 -0.0684  0.0900
51838W        W94776   0.072   7.750   6.005  0.1699 -0.2251 -0.0988
51839W        W94777  32.489   5.548   5.815 -0.1227 -0.0205 -0.1474
51840W        W94778  32.170   6.666   6.998 -0.1068  0.2523  0.0015
51841W        W94779   0.655   3.973   6.190  0.1624  0.3117  0.1256
51842W        W94780  34.023   3.537   6.325 -0.2111 -0.0878  0.2043
51843W        W94781  33.523   4.737   6.999  0.1615 -0.4003  0.1836
51844W        W94782  34.316   6.345   7.592  0.0159 -0.0331 -0.0064
51845W        W94783  34.672   2.912   4.256 -0.1045 -0.1446  0.0017
51846W        W94784  33.505   6.765   6.391  0.2875 -0.3779 -0.0328
51847W        W94785  33.846   6.614   4.762 -0.0901  0.0883 -0.1387
51848W        W94786  34.367   5.352   6.616  0.3021  0.3191 -0.5044
51849W        W94787   1.174   4.795   5.419 -0.1273  0.1945  0.0632
51850W        W94788  33.140   6.951   6.035 -0.0932 -0.1159  0.1038
51851W        W94789  33.919   3.412   5.280  0.2916  0.0560 -0.2251
51852W        W94790  34.044   5.189   7.770 -0.1054  0.0070 -0.0656
51853W        W94791  33.272   3.019   6.316  0.0570  0.0971 -0.3666
51854W        W94792  34.459   6.620   6.257 -0.2331  0.1159 -0.0458
51855W        W94793  34.408   4.067   3.782  0.0908  0.0817  0.2749
51856W        W94794  34.315   6.616   4.844 -0.1538  0.1117  0.2582
51857W        W94795  31.933   5.309   6.739 -0.0623  0.1985 -0.2918
51858W        W94796  34.361   6.876   7.544  0.1541  0.1906 -0.1808
51859W        W94797  32.225   4.123   4.412  0.2238 -0.3401  0.3064
51860W        W94798  34.209   5.091   4.438  0.0523  0.1099  0.1844
51861W        W94799   1.311   6.946   5.806  0.0038  0.1250 -0.0359
51862W        W94800   0.149   2.729   4.960 -0.0438  0.0048  0.0873
51863W        W94801  32.578   5.687   4.837  0.3076 -0.0867 -0.0201
51864W        W94802  33.001   7.465   6.646  0.1069  0.0451  0.2297
51865W        W94803  32.627   6.349   7.083 -0.1198  0.3177 -0.2865
51866W        W94804  33.508   5.982   5.662  0.0325 -0.0086  0.2338
51867W        W94805   0.367   4.702   5.331  0.5373 -0.2383 -0.0222
51868W        W94806  33.366   4.864   6.548  0.0214 -0.2610 -0.1980
51869W        W94807  33.987   5.617   6.287  0.0188  0.1270  0.2005
51870W        W94808  32.555   4.072   6.207  0.0799 -0.0740 -0.2816
51871W        W94809  33.824   2.457   4.376  0.3477  0.1247 -0.3079
51872W        W94810  33.140   7.432   7.556  0.2238  0.0051 -0.0130
51873W        W94811  32.867   6.345   8.111  0.1453  0.0200  0.0285
51874W        W94812  32.294   8.697   5.899 -0.2595 -0.1463  0.1200
51875W        W94813   0.765   4.895   6.150  0.0616  0.1051  0.1255
51876W        W94814  34.518   6.113   5.331 -0.2327 -0.0923 -0.0243
51877W        W94815  31.705   7.459   4.500  0.0029  0.1247 -0.1534
51878W        W94816  33.886   6.397   6.226  0.1797  0.0209 -0.3118
51879W        W94817   0.252   3.650   4.174 -0.1927 -0.1451 -0.1996
51880W        W94818  34.108   4.836   7.324 -0.0787 -0.1672 -0.2529
51881W        W94819  31.900   6.626   8.558  0.1513 -0.2414  0.0643
51882W        W94820  34.358   3.290   3.846 -0.2315  0.0734 -0.0685
51883W        W94821  34.450   5.024   5.873 -0.0275 -0.1021  0.0014
51884W        W94822  33.968   6.098   5.417 -0.0455  0.1391 -0.2238
51885W        W94823  33.593   6.204   4.671 -0.0856 -0.1079 -0.0442
51886W        W94824   0.722   7.598   6.614 -0.0812  0.1971 -0.0597
51887W        W94825   0.651   6.171   6.665 -0.0442 -0.1474  0.0355
51888W        W94826  33.182   4.599   5.438 -0.2202  0.0516 -0.0984
51889W        W94827  34.213   4.483   6.759 -0.0767  0.0662 -0.0244
51890W        W94828  33.315   5.617   5.408 -0.1614  0.3354 -0.0155
51891W        W94829  32.866   4.957   6.451  0.0887 -0.1949  0.3404
51892W        W94830   0.566   4.802   4.452 -0.1125  0.2023  0.2494
51893W        W94831  34.057   4.240   5.678  0.0706  0.0959 -0.3476
51894W        W94832  33.861   4.627   6.470 -0.1587 -0.1605 -0.1670
51895W        W94833  34.672   6.171   6.024 -0.1751 -0.0491 -0.2240
51896W        W94834  32.878   2.377   3.737  0.0895 -0.1265 -0.0553
51897W        W94835  34.368   7.977   5.009  0.0053  0.2958 -0.1097
51898W        W94836  33.030   4.821   5.921  0.0246  0.1280 -0.1070
51899W        W94837   1.643   3.653   5.389  0.0885 -0.1995  0.4065
51900W        W94838  34.287   5.431   5.547  0.1726 -0.1490 -0.0458
51901W        W94839  33.040   5.498   4.689 -0.0071 -0.1510 -0.1754
51902W        W94840  33.599   6.257   3.028  0.0577 -0.0639  0.0281
51903W        W94841  34.538   6.601   6.737  0.1337 -0.1159 -0.3284
51904W        W94842  34.265   6.032   8.073  0.1771  0.1391 -0.1106
51905W        W94843  32.582   4.511   4.622 -0.0175  0.1099  0.0126
51906W        W94844   0.372   5.716   6.759  0.1863 -0.2195  0.0703
51907W        W94845  33.739   7.414   6.071 -0.4376  0.0182 -0.1682
51908W        W94846  34.205   5.674   5.133  0.1599  0.1177  0.1455
51909W        W94847   1.498   4.009   6.449  0.0664  0.0183  0.1105
51910W        W94848  33.955   3.960   5.288  0.3125 -0.2664  0.2090
51911W        W94849  33.783   5.176   6.444 -0.0353  0.1032  0.3362
51912W        W94850  32.506   4.671   5.080 -0.3661  0.0944 -0.0658
51913W        W94851  32.647   5.160   4.907 -0.4517  0.0686  0.2958
51914W        W94852  32.673   6.875   6.180 -0.3216  0.1080  0.2209
51915W        W94853   0.854   2.179   8.321 -0.2531  0.0394  0.3391
51916W        W94854  33.145   4.676   7.343  0.0412  0.3596  0.2536
51917W        W94855  33.528   5.970   7.031 -0.2385  0.2287 -0.0802
51918W        W94856  33.810   3.947   3.741 -0.0584  0.1009 -0.2428
51919W        W94857   0.104   3.876   5.169 -0.1157  0.0883 -0.0223
51920W        W94858  33.013   3.642   6.053 -0.1216 -0.0299  0.2148
51921W        W94859   0.163   5.180   6.275 -0.0660 -0.1074  0.1065
51922W        W94860  33.158   5.146   5.116 -0.4257  0.2729  0.2250
51923W        W94861   1.348   6.555   7.063 -0.1366  0.2681 -0.2254
51924W        W94862  34.086   5.382   7.265  0.0646  0.2772 -0.2278
51925W        W94863  32.578   1.976   3.483 -0.2242 -0.0658 -0.3021
51926W        W94864  33.964   4.945   6.845 -0.2486 -0.1528  0.1372
51927W        W94865  33.276   7.615   6.089 -0.1168 -0.0847  0.1861
51928W        W94866   0.657   6.560   6.370  0.1563  0.1950  0.1754
51929W        W94867  32.353   4.430   7.084  0.0890  0.1164  0.3583
51930W        W94868  33.867   7.184   6.781  0.1271 -0.0784  0.3486
51931W        W94869  33.713   4.490   7.351 -0.1916 -0.2877  0.3239
51932W        W94870  32.986   5.529   6.726  0.1414  0.0297 -0.1363
51933W        W94871  34.205   3.056   5.442 -0.1927  0.3221  0.0176
51934W        W94872  32.171   6.220   6.797  0.0747  0.1457  0.0307
51935W        W94873   0.653   3.669   5.328 -0.2867 -0.0765  0.1985
51936W        W94874  34.695   4.669   6.764  0.0629  0.1036  0.2700
51937W        W94875   0.280   3.758   5.640 -0.0002 -0.1132  0.0441
51938W        W94876   0.803   7.466   7.081 -0.3991  0.0579  0.2796
51939W        W94877  32.949   2.892   5.451  0.1250 -0.2256 -0.1518
51940W        W94878   0.299   5.912   5.701 -0.2661 -0.2254 -0.1029
51941W        W94879  33.399   6.370   6.093 -0.1101 -0.0957  0.1522
51942W        W94880  34.274   4.917   6.419 -0.2408 -0.0800  0.0403
51943W        W94881   0.011   7.041   6.983 -0.0876 -0.1482  0.2388
51944W        W94882  32.801   6.551   9.850  0.3477  0.2323  0.2714
51945W        W94883  34.626   4.506   9.227  0.1486 -0.0256 -0.1178
51946W        W94884  32.275   4.389   9.054  0.0482 -0.0170  0.0923
51947W        W94885   0.462   5.533  10.773  0.1445 -0.0906 -0.0711
51948W        W94886  34.495   2.771   8.117  0.1809  0.1706 -0.1906
51949W        W94887  33.868   4.286  10.170 -0.0831 -0.2127 -0.1567
51950W        W94888  33.823   5.131   9.221 -0.2184  0.0317  0.0969
51951W        W94889   0.612   5.115   9.904  0.0063 -0.2239  0.1381
51952W        W94890  34.228   3.648   8.410  0.1981 -0.1574 -0.2140
51953W        W94891  32.773   4.799  10.642 -0.1675  0.6276 -0.1733
51954W        W94892   0.668   7.004   8.216  0.2178 -0.1582  0.3066
51955W        W94893  32.485   5.720   8.569  0.0015  0.0049 -0.0926
51956W        W94894  31.945   3.069  10.722 -0.0560 -0.3873  0.1186
51957W        W94895  33.250   5.784   9.516 -0.1094 -0.1399  0.0204
51958W        W94896  34.636   6.267  10.924  0.0836 -0.0326  0.1364
51959W        W94897   0.988   6.402  10.718 -0.1380  0.1145  0.2580
51960W        W94898  33.878   4.792  10.367 -0.0503  0.1360 -0.0195
51961W        W94899  31.963   7.119   9.733 -0.0914  0.3177  0.0892
51962W        W94900  34.114   6.513   8.962 -0.0421 -0.0409  0.0314
51963W        W94901  33.525   7.213   8.282 -0.1983 -0.0605 -0.3132
51964W        W94902   0.005   7.184   7.460 -0.0147 -0.2848 -0.1907
51965W        W94903  33.835   6.437   9.398 -0.1527 -0.1489 -0.2047
51966W        W94904  32.342   5.885  10.092 -0.0071 -0.0356 -0.0216
51967W        W94905  34.340   6.715   8.527  0.1797 -0.1598  0.3665
51968W        W94906  34.438   4.201   6.367 -0.2610 -0.1269 -0.1939
51969W        W94907  33.653   4.389   7.997  0.1359 -0.0465  0.3674
51970W        W94908  34.478   6.915   9.892 -0.1547  0.2212  0.3061
51971W        W94909  34.244   4.321   9.857 -0.1023 -0.0126 -0.0974
51972W        W94910  33.551   9.100  10.914  0.0624 -0.3252  0.0529
51973W        W94911  33.783   5.838   8.431 -0.1709  0.2038  0.1800
51974W        W94912  33.420   4.980   8.939 -0.0359 -0.1031  0.0243
51975W        W94913  34.520   3.519   6.206  0.3563 -0.1910  0.1535
51976W        W94914  33.820   5.196   9.994  0.2419  0.2469  0.1561
51977W        W94915  33.989   6.341   8.484 -0.0389 -0.0892  0.0616
51978W        W94916  34.195   5.861   7.409 -0.0188 -0.0921  0.1231
51979W        W94917  33.435   6.849   9.773 -0.1820  0.1556  0.1200
51980W        W94918  33.488   7.212   8.859 -0.1551 -0.1072 -0.0425
51981W        W94919  31.601   5.264   9.793  0.0146  0.3526  0.0864
51982W        W94920  32.787   5.185   8.199 -0.0984 -0.1274 -0.6565
51983W        W94921  32.370   4.483  10.523 -0.1771  0.1165  0.0067
51984W        W94922  34.149   6.187  10.555  0.3127 -0.3452 -0.0607
51985W        W94923  31.572   5.282  10.636  0.0752  0.0018  0.1845
51986W        W94924  33.401   7.236   9.443 -0.0004  0.2601 -0.1563
51987W        W94925  33.169   4.314   8.826 -0.1816  0.1322  0.0417
51988W        W94926  32.838   5.540   9.743  0.3837  0.1323  0.0653
51989W        W94927  33.841   3.735   9.047 -0.2651 -0.2270  0.1388
51990W        W94928   0.402   4.430   9.318  0.1154  0.2500 -0.2424
51991W        W94929  33.397   6.286   9.267  0.2204  0.4087 -0.0262
51992W        W94930  33.204   4.645   9.761 -0.0176  0.2079 -0.2529
51993W        W94931  33.867   4.093   9.661  0.0517  0.0245 -0.2263
51994W        W94932   0.284   7.859   9.921 -0.1144 -0.0588  0.2525
51995W        W94933  34.056   5.646   9.907  0.0785  0.1491  0.1508
51996W        W94934   0.028   4.401   8.413  0.1464 -0.1553  0.0298
51997W        W94935  34.144   3.157   8.144 -0.1188  0.1271  0.2810
51998W        W94936  33.686   6.438   9.963  0.2280 -0.1033 -0.2954
51999W        W94937  33.947   5.735  10.760  0.2622  0.1837 -0.1324
52000W        W94938  33.851   7.448   9.306  0.0400  0.1548 -0.0001
52001W        W94939  34.037   4.451   8.343 -0.3801 -0.0310  0.2757
52002W        W94940   0.242   6.329   9.347 -0.1378  0.0616 -0.0838
52003W        W94941   1.799   7.810  10.175 -0.2160  0.2717  0.2591
52004W        W94942  34.248   2.645  12.348 -0.1077 -0.2044 -0.0175
52005W        W94943  34.415   4.266  10.302  0.2029 -0.4761  0.0824
52006W        W94944  33.946   4.040   7.752 -0.1415 -0.1958 -0.1544
52007W        W94945  34.429   5.509   8.074  0.2761 -0.1085 -0.1167
52008W        W94946  33.086   4.835   8.579 -0.0066  0.0643 -0.1612
52009W        W94947  34.339   3.878   8.896  0.0304 -0.1512  0.0825
52010W        W94948  33.553   7.436  10.570 -0.4971  0.0854  0.1462
52011W        W94949  33.982   5.904   9.374  0.2085 -0.0520  0.0789
52012W        W94950  33.792   6.170   8.040 -0.1718  0.0975 -0.1100
52013W        W94951  33.435   4.468  10.463  0.2126  0.2502  0.1502
52014W        W94952  34.303   8.160  10.418 -0.0827  0.0323 -0.1167
52015W        W94953   0.195   6.306   6.497  0.0031 -0.0297 -0.0268
52016W        W94954  32.820   6.019   9.936  0.1420 -0.2609 -0.2034
52017W        W94955  32.963   6.095  10.872 -0.2074  0.2073 -0.0072
52018W        W94956   0.343   4.940   8.412  0.0042 -0.1363  0.4323
52019W        W94957  34.283   4.394   8.811  0.0220  0.1336  0.0966
52020W        W94958  32.304   6.230   9.314 -0.0839  0.1512  0.3700
52021W        W94959   0.204   4.135   8.908  0.0486  0.4153  0.2555
52022W        W94960  31.389   3.624  10.159 -0.4217  0.1773 -0.1283
52023W        W94961  33.659   5.164   7.263 -0.0409  0.1178 -0.0669
52024W        W94962  34.481   4.940   9.625  0.1468 -0.3180 -0.0498
52025W        W94963  33.765   6.760   8.688 -0.2056 -0.1222 -0.2247
52026W        W94964  33.811   5.481   8.874  0.2528  0.0082  0.0756
52027W        W94965  33.644   6.021   9.755  0.1632  0.0032  0.1599
52028W        W94966   0.645   5.076  10.961  0.1071 -0.2713  0.0309
52029W        W94967  34.282   3.655   7.838  0.2557  0.1109 -0.0021
52030W        W94968   0.622   3.953   9.173 -0.0789 -0.2411 -0.0961
52031W        W94969   0.822   1.816  10.391  0.0509 -0.2728 -0.2547
52032W        W94970  33.601   5.879   9.016  0.0426  0.0356  0.2717
52033W        W94971  31.567   7.748   9.857  0.0485  0.2575  0.1819
52034W        W94972  34.573   5.705   9.125  0.1686 -0.0068 -0.0206
52035W        W94973  34.092   7.789   9.593  0.0556 -0.0399 -0.1343
52036W        W94974  34.454   7.942  10.005  0.1234 -0.0767 -0.0484
52037W        W94975  33.247   5.325  10.834 -0.0096  0.1388 -0.0881
52038W        W94976  31.593   8.378  11.183 -0.0799  0.4709  0.0287
52039W        W94977   1.185   4.647   9.238 -0.0584  0.1437 -0.0736
52040W        W94978  32.287   4.976  10.291 -0.1181 -0.0638  0.0701
52041W        W94979  33.924   4.007   8.557  0.0240  0.1346 -0.1262
52042W        W94980  34.666   8.399  10.109 -0.0848  0.0985  0.2695
52043W        W94981   0.008   6.320   8.310  0.4492 -0.1463  0.1636
52044W        W94982  34.093   4.682   9.395 -0.0610  0.1408 -0.0249
52045W        W94983   0.172   5.239   6.793 -0.3921  0.1855  0.0670
52046W        W94984   0.114   5.283   8.743  0.0959 -0.1556 -0.2452
52047W        W94985  33.284   5.395   9.121  0.0108 -0.0048  0.0862
52048W        W94986  33.396   3.402   8.298 -0.1933 -0.0659  0.0127
52049W        W94987   0.218   7.033   7.898  0.0894 -0.1162 -0.2743
52050W        W94988  33.039   3.207  10.125 -0.0051  0.2050 -0.2324
52051W        W94989  33.491   3.853   6.524  0.1774  0.0379  0.1498
52052W        W94990  34.409   4.951   8.178  0.3484 -0.1496 -0.2656
52053W        W94991  34.613   3.810  10.117 -0.0994  0.1186 -0.1625
52054W        W94992   0.277   2.220   6.809 -0.1341 -0.1681  0.1516
52055W        W94993  32.193   6.515  10.536 -0.1957 -0.1314 -0.1544
52056W        W94994  34.662   7.946   9.555 -0.1437 -0.2449 -0.1259
52057W        W94995  34.616   6.322   9.762  0.2479  0.2329  0.2238
52058W        W94996  33.709   6.435  10.439  0.2353  0.0485 -0.1452
52059W        W94997  33.480   5.598  10.016  0.0608 -0.0678  0.1599
52060W        W94998   0.172  10.023  11.057  0.0026  0.0516 -0.0110
52061W        W94999   0.010   3.589   8.820 -0.3479 -0.0323  0.0689
52062W        W95000  31.267   4.816   9.803  0.1890 -0.0386  0.1173
52063W        W95001  33.479   8.159   8.806 -0.1754 -0.3066 -0.1016
52064W        W95002  34.120   4.859   8.735  0.2013  0.2458 -0.2120
52065W        W95003  32.618   9.495  11.278 -0.0661  0.1766 -0.0283
52066W        W95004  33.354   6.264   8.309  0.1256 -0.1011  0.2078
52067W        W95005  34.226   6.504  10.168 -0.1336 -0.1749 -0.0380
52068W        W95006  30.317   6.320  10.322 -0.2535  0.2726  0.1358
52069W        W95007  34.457   3.756   7.244  0.0053 -0.2023  0.0449
52070W        W95008  33.893   3.190   9.258  0.1370  0.0975 -0.2307
52071W        W95009   0.033   4.783   8.746  0.0857  0.0856  0.2025
52072W        W95010  34.314   5.388   8.853 -0.0813  0.0996  0.3506
52073W        W95011  33.763   8.087   9.341 -0.0671  0.0248  0.3104
52074W        W95012  34.097   7.641  10.064 -0.0852  0.2214 -0.2739
52075W        W95013  33.348   6.105  10.169  0.4242 -0.3134  0.0451
52076W        W95014  32.669   3.289   9.012  0.0510 -0.0948  0.2815
52077W        W95015  33.358   6.869  10.696 -0.4107 -0.3088 -0.0002
52078W        W95016  33.662   4.266   8.912 -0.1342  0.1862 -0.1924
52079W        W95017  31.643   4.954  10.200  0.1781  0.2402 -0.4614
52080W        W95018  34.119   4.526   7.793  0.3090  0.0977 -0.0756
52081W        W95019   0.026   4.424   9.918  0.0478  0.1698 -0.0296
52082W        W95020  34.618   5.106   9.189 -0.3377 -0.0504  0.3193
52083W        W95021  32.928   4.557  10.220  0.0401  0.0870  0.0254
52084W        W95022  33.103   4.084  10.280  0.1243  0.1816 -0.0909
52085W        W95023  34.094   6.816   7.087  0.0003 -0.1317 -0.0627
52086W        W95024  33.397   5.059   9.514 -0.2117 -0.2745  0.0362
52087W        W95025   0.883   3.668   8.362  0.2639  0.2335  0.1445
52088W        W95026  31.946   5.527   9.453  0.2784  0.0027 -0.2076
52089W        W95027  34.349   6.275   9.315  0.0079  0.1347 -0.0366
52090W        W95028   0.880   6.599   6.805  0.0374  0.0084  0.0931
52091W        W95029   0.797   5.500  11.244 -0.0390 -0.3790 -0.1959
52092W        W95030  33.380   6.404   7.795 -0.1237 -0.2123 -0.1145
52093W        W95031  34.413   7.295   8.472 -0.0333 -0.1597 -0.0737
52094W        W95032   0.056   6.968   8.736 -0.1902 -0.1834 -0.2301
52095W        W95033   0.099   5.822   7.926  0.1025 -0.0084 -0.1517
52096W        W95034  34.423   3.388   9.163 -0.1291 -0.3107  0.2205
52097W        W95035  33.027   5.716  10.298 -0.0136  0.0748  0.0868
52098W        W95036  33.945   5.685   7.814  0.0467 -0.1396 -0.0071
52099W        W95037  32.829   5.994   7.807  0.0008  0.1312  0.2554
52100W        W95038  33.693   5.465   9.555 -0.2213 -0.2823 -0.3456
52101W        W95039  33.568   4.606   9.303 -0.2501  0.0959  0.0865
52102W        W95040  33.340   4.098   8.277 -0.3623 -0.0145  0.2017
52103W        W95041  32.992   3.444   8.666  0.1766 -0.0576  0.0085
52104W        W95042  33.372   4.050   9.286 -0.4068  0.1354 -0.1878
52105W        W95043   0.248   2.771   6.812  0.3421 -0.0991  0.2036
52106W        W95044  33.895   6.633   7.542  0.1850  0.2217  0.2258
52107W        W95045  32.375   3.871   7.629  0.0916  0.1603  0.0580
52108W        W95046   0.683   6.984  10.038 -0.1349  0.0767  0.1724
52109W        W95047  34.095   4.183   9.238 -0.0468  0.0007 -0.2205
52110W        W95048  33.572   3.312  10.083 -0.0792  0.2584  0.0379
52111W        W95049  32.816   6.134   9.421 -0.0213  0.2186 -0.0925
52112W        W95050  34.586   4.516   7.899 -0.1197  0.0080  0.0307
52113W        W95051  34.481   4.949   7.658 -0.1914 -0.2517  0.1276
52114W        W95052   0.632   8.965  10.771  0.1896 -0.0406 -0.1377
52115W        W95053  31.908   3.539  10.326  0.2082 -0.1407 -0.0481
52116W        W95054  33.657   5.111   8.500  0.3363  0.0703 -0.1468
52117W        W95055  34.172   3.719   9.402 -0.3234 -0.3335 -0.1906
52118W        W95056  33.375   4.857  10.153  0.0616  0.3513 -0.2310
52119W        W95057  33.574   9.536  11.154 -0.1721 -0.0429 -0.0568
52120W        W95058  33.458   9.769   3.207  0.0093  0.0435  0.1999
52121W        W95059   0.348   8.419   1.984 -0.0319 -0.0246  0.1039
52122W        W95060  33.045   8.839   1.339 -0.1654  0.0685 -0.3423
52123W        W95061  33.390   7.223   3.750  0.0934 -0.0482 -0.1833
52124W        W95062  34.203   9.016   3.096  0.0224  0.2306 -0.0138
52125W        W95063  34.514  10.401   2.480 -0.2963  0.2924  0.0724
52126W        W95064  33.791   6.928   2.214 -0.2587  0.1418  0.3013
52127W        W95065  32.609   6.680   3.657 -0.0020  0.3060 -0.2452
52128W        W95066  34.089   9.869   0.105 -0.3891 -0.0136 -0.0330
52129W        W95067  32.879   7.889   2.458 -0.0896 -0.0769  0.2065
52130W        W95068  34.492   8.038   1.276  0.1161 -0.1186 -0.0441
52131W        W95069  33.592   7.236   3.227  0.0941  0.1340  0.1822
52132W        W95070   0.792   9.268   1.585 -0.3121 -0.1191  0.2300
52133W        W95071  33.109   9.426  30.331 -0.1100  0.0433 -0.0423
52134W        W95072  32.488   8.025   0.642  0.3009 -0.1325 -0.1064
52135W        W95073  34.172   8.511   1.232 -0.0571 -0.0469  0.0832
52136W        W95074  34.124   9.261   2.621 -0.1450  0.2583 -0.1952
52137W        W95075  34.045  10.073   1.954 -0.1627 -0.1491  0.4244
52138W        W95076  32.569   9.045   2.077 -0.0585  0.3522  0.2509
52139W        W95077  32.862  11.386   0.474  0.0691  0.0876 -0.0028
52140W        W95078  33.530  10.480   1.210 -0.0250  0.0593 -0.2289
52141W        W95079  34.052  10.739   3.272  0.1563 -0.0454  0.2721
52142W        W95080  33.062  10.470   0.203 -0.1482 -0.0501  0.0134
52143W        W95081  33.576  10.251   3.035 -0.1954  0.2102  0.1916
52144W        W95082  34.249   9.289   0.821  0.3602 -0.1566  0.0130
52145W        W95083  34.292   9.177   2.127  0.1040 -0.0436 -0.2665
52146W        W95084  33.549   9.752   3.726  0.0691 -0.2947  0.0953
52147W        W95085  32.519   9.990   2.970  0.0159  0.5495 -0.1470
52148W        W95086  33.761  10.800   0.292  0.1759 -0.0896  0.1367
52149W        W95087  34.344   7.772   1.706 -0.1147  0.3183  0.1549
52150W        W95088   0.123   6.198   3.887  0.2106  0.0518  0.0776
52151W        W95089  32.792  10.797   2.651 -0.2957 -0.5754 -0.0266
52152W        W95090  34.098   7.556   3.336 -0.0880  0.2588  0.0271
52153W        W95091  33.103  10.650   3.363 -0.0612  0.1332  0.0865
52154W        W95092  33.677   8.922   2.909 -0.3965  0.2294 -0.2488
52155W        W95093  33.561   7.860  31.629 -0.0268  0.1477 -0.0248
52156W        W95094  32.462   9.516   4.621 -0.4502  0.2697 -0.1224
52157W        W95095  32.990   8.133   4.168 -0.3218 -0.0490  0.2566
52158W        W95096  33.970   7.718   1.258 -0.0988 -0.1485 -0.2587
52159W        W95097  32.323   9.867   4.322 -0.0076  0.1663 -0.2938
52160W        W95098  34.566   7.979   2.764 -0.0833 -0.0440 -0.1673
52161W        W95099  32.026   9.071   0.157  0.0216  0.2596 -0.0935
52162W        W95100  33.536  10.059   0.986  0.0490 -0.1656 -0.2256
52163W        W95101  33.209   9.978   4.053  0.0093 -0.0431  0.2190
52164W        W95102   0.090   6.419   3.414 -0.2375 -0.3688  0.1835
52165W        W95103  34.566  10.737   3.473 -0.1923  0.1903 -0.0188
52166W        W95104  32.637  10.965  30.451 -0.1520 -0.1165  0.0194
52167W        W95105  33.219   9.387   3.327  0.1110  0.1582 -0.2370
52168W        W95106  32.918   9.104   0.245  0.0377 -0.2195 -0.0468
52169W        W95107  33.187   7.575   3.388 -0.0445  0.1502  0.1995
52170W        W95108  32.806   8.789   2.607  0.0655  0.0707  0.1127
52171W        W95109  33.771   8.526   3.256  0.2653 -0.1676 -0.0261
52172W        W95110  33.858   8.620   1.604  0.1564 -0.1738 -0.1919
52173W        W95111  32.971   8.481   3.313 -0.2344 -0.0797  0.3692
52174W        W95112  32.625   8.313   2.299 -0.0202 -0.0185 -0.0574
52175W        W95113  32.719   8.032   4.924 -0.0574 -0.0723  0.2442
52176W        W95114  33.106   7.301   1.545 -0.0922 -0.0567  0.1239
52177W        W95115  32.390   7.451   0.840 -0.2680  0.0648  0.3126
52178W        W95116  34.158   8.513   0.750  0.3268 -0.2473 -0.1364
52179W        W95117  33.209   8.724   0.000  0.0072  0.2924  0.1416
52180W        W95118  33.595   8.094   4.575 -0.2976  0.0742 -0.3317
52181W        W95119  33.133   7.662  31.975 -0.3300 -0.2875  0.0781
52182W        W95120  34.428  10.896   2.362  0.1001  0.1922  0.3476
52183W        W95121  33.886   9.139   1.856 -0.2968 -0.0927 -0.2254
52184W        W95122  33.721   8.605   1.130  0.0171 -0.1376 -0.0938
52185W        W95123  33.486   8.105   2.691 -0.0972 -0.2218 -0.1214
52186W        W95124  32.155   6.923   1.340 -0.2357  0.0447 -0.0790
52187W        W95125  34.359   9.752   1.058  0.1236  0.2176  0.1029
52188W        W95126  32.718   8.662   1.678  0.0278 -0.0157  0.1249
52189W        W95127  32.397  10.727   0.920 -0.4245 -0.1071 -0.0199
52190W        W95128  33.584   8.787   4.954 -0.0308  0.1542  0.2525
52191W        W95129  34.098   8.508   0.210  0.3290  0.0848  0.1147
52192W        W95130  33.287   9.006   3.817 -0.1290 -0.1315  0.2733
52193W        W95131  34.306   9.817   4.230  0.0968 -0.0320  0.2093
52194W        W95132  33.634   9.166   2.436  0.1246  0.2475 -0.1734
52195W        W95133  33.881   9.677   0.894 -0.1687  0.2635  0.1514
52196W        W95134  33.318   8.485   2.993 -0.1434  0.1257 -0.1371
52197W        W95135   0.790   7.359   3.468  0.2013  0.0186  0.1965
52198W        W95136  33.482   7.698  31.144  0.2062 -0.3778  0.2224
52199W        W95137  32.439  11.352   0.890  0.0816  0.0879  0.0523
52200W        W95138  33.148   6.373   4.704  0.1313 -0.2451  0.1884
52201W        W95139  33.764   7.586   0.724 -0.0482  0.1491 -0.1063
52202W        W95140  33.307   7.280   4.451  0.0036  0.1306  0.2720
52203W        W95141  34.582   8.215   3.741 -0.0510 -0.0158  0.1080
52204W        W95142  33.065  10.586   2.129 -0.1304 -0.2108  0.0822
52205W        W95143  34.388   6.207   3.591 -0.0446  0.1662  0.3273
52206W        W95144  32.897  10.611   1.019  0.0279 -0.3502  0.2266
52207W        W95145  34.066   9.869  31.099 -0.4175 -0.0646  0.2323
52208W        W95146  34.336   7.020   3.201 -0.1885 -0.0810 -0.0589
52209W        W95147  33.508   8.003   3.307 -0.3601 -0.0404  0.2028
52210W        W95148  32.957  10.129   1.304 -0.4354  0.2500 -0.2199
52211W        W95149  34.360  11.083   0.818  0.3827  0.0358  0.0608
52212W        W95150  32.488   9.802   1.923  0.0839  0.0645 -0.2596
52213W        W95151  34.073   7.344   1.952 -0.0150 -0.1556  0.1440
52214W        W95152  30.496   8.162  31.612 -0.0481  0.1248 -0.2899
52215W        W95153  32.389   7.999   4.091 -0.3361  0.2310 -0.1343
52216W        W95154  33.546   6.750   3.519 -0.2341 -0.1110 -0.1775
52217W        W95155  31.821   9.714   3.037  0.0565 -0.3621  0.1211
52218W        W95156  34.027   9.561   3.972 -0.0175  0.0578 -0.0036
52219W        W95157  32.743   8.251   1.181 -0.2139 -0.0818  0.1494
52220W        W95158  33.404   8.723   2.531  0.3703 -0.0109 -0.0299
52221W        W95159  32.600   9.410   1.637  0.2265  0.0883 -0.0595
52222W        W95160  33.717   7.722   2.215  0.0759 -0.0337 -0.0321
52223W        W95161  32.661  10.295   1.834  0.2011 -0.0875  0.0792
52224W        W95162  33.338   7.232   5.648 -0.0821  0.2734  0.6664
52225W        W95163  34.451   7.946   3.261 -0.0082  0.3108 -0.0099
52226W        W95164  34.038   8.989   1.256  0.1680 -0.3176  0.4030
52227W        W95165   0.453   7.566   2.220 -0.0104 -0.1768 -0.2258
52228W        W95166  33.595   7.682   3.650 -0.0737 -0.1465 -0.0790
52229W        W95167  34.209   9.211   3.653  0.2094 -0.2081 -0.1040
52230W        W95168  33.972   9.009   0.263  0.2788  0.0654 -0.3273
52231W        W95169  32.673   9.276   2.701  0.0974 -0.0835  0.1068
52232W        W95170  33.761   9.411   1.376 -0.1630  0.4154  0.0195
52233W        W95171  33.045   7.614   4.041  0.1153  0.1259 -0.1740
52234W        W95172  33.420   8.835   3.349 -0.0516  0.0432  0.2846
52235W        W95173  33.130   9.586   0.290  0.0619  0.3676 -0.0827
52236W        W95174  33.327  10.221   3.497 -0.1925 -0.1130 -0.1078
52237W        W95175  34.018   8.145   2.079  0.2084 -0.1517 -0.0617
52238W        W95176  32.984   6.828   3.355  0.0663 -0.0813  0.0055
52239W        W95177  32.490   6.958   2.700  0.1868  0.0470 -0.0494
52240W        W95178  33.913   9.892   3.088  0.2869 -0.2798 -0.3544
52241W        W95179  33.345   7.229   2.055 -0.0330  0.1022  0.2119
52242W        W95180  34.015   8.729   2.523 -0.2043 -0.2007  0.2190
52243W        W95181   0.938   7.947  31.048 -0.2094  0.0003  0.0252
52244W        W95182  32.999   8.632   2.121 -0.0169  0.2953 -0.0768
52245W        W95183   0.435   8.023   0.639 -0.2205 -0.3618 -0.1348
52246W        W95184  32.945   9.782   1.681  0.1898 -0.1884  0.2720
52247W        W95185  33.263   6.715   2.984 -0.3539 -0.3265 -0.7430
52248W        W95186   0.326   8.111   4.135 -0.1763 -0.2532  0.2042
52249W        W95187  32.157   7.132   1.774  0.1336  0.3761 -0.2755
52250W        W95188  34.568  10.172   0.824  0.0328  0.1179 -0.0760
52251W        W95189  33.548   6.310   0.969 -0.1661 -0.1934 -0.1266
52252W        W95190  34.420   8.935   0.468 -0.2797 -0.0594  0.3626
52253W        W95191  32.802   7.370   2.206  0.1491  0.1725 -0.0277
52254W        W95192  31.855   9.363   3.470 -0.1609  0.1208  0.0641
52255W        W95193  33.027   7.955   0.833 -0.2025  0.2519 -0.1479
52256W        W95194  33.964   9.476   0.456  0.1211 -0.3061 -0.0430
52257W        W95195  34.561   9.467   2.512 -0.2079 -0.1811 -0.0863
52258W        W95196  34.616   6.529   1.536 -0.1227  0.1502 -0.4081
52259W        W95197  32.556  10.416   0.087 -0.2518  0.0836 -0.0916
52260W        W95198  33.953  11.196   3.554  0.1683 -0.1530 -0.0978
52261W        W95199  33.194   7.809   4.536 -0.0166 -0.3366 -0.3544
52262W        W95200  31.963   9.794   0.883 -0.0158  0.1958 -0.3713
52263W        W95201   0.434   8.217   3.624 -0.3180 -0.1381 -0.0290
52264W        W95202  33.490   9.390   1.844  0.2450  0.0411 -0.0594
52265W        W95203  32.992   8.335   2.654 -0.2822 -0.4337 -0.0017
52266W        W95204  32.399   7.673   4.961  0.2009 -0.0398  0.1182
52267W        W95205  32.306   7.844   0.113 -0.0543 -0.0391  0.2591
52268W        W95206  33.128  10.381   4.334 -0.2266 -0.0694  0.2690
52269W        W95207  33.671   9.292   3.535 -0.4991  0.1696  0.0460
52270W        W95208  33.818   8.064   0.893 -0.1672  0.0801 -0.1428
52271W        W95209  33.045   9.996   3.044 -0.2221  0.0625 -0.1758
52272W        W95210  32.105  10.773   1.698 -0.1219 -0.2055 -0.2269
52273W        W95211  32.557  11.394  31.937  0.1942  0.0248  0.1254
52274W        W95212  33.574   9.869   1.847  0.0575 -0.1556  0.4237
52275W        W95213   1.003   6.269  31.812  0.4484  0.0581  0.2268
52276W        W95214  33.671   8.584   4.452 -0.0080  0.0326  0.2127
52277W        W95215  33.534  10.774   3.076  0.3699 -0.2995 -0.1627
52278W        W95216  32.706  10.385   0.542  0.0199  0.2477 -0.4003
52279W        W95217  33.532   8.715   2.002 -0.0174  0.2499  0.1188
52280W        W95218   0.178   8.961  31.611 -0.0639  0.2033  0.2494
52281W        W95219  32.914   9.486   2.177 -0.0723  0.0151  0.2576
52282W        W95220  34.018   7.996   2.589 -0.1754 -0.3901 -0.1464
52283W        W95221  33.137  10.486   2.883  0.3198  0.1474  0.1299
52284W        W95222  33.233   8.116  31.842  0.1986 -0.1558  0.2868
52285W        W95223  33.785   8.554   3.931 -0.0371 -0.1732 -0.3222
52286W        W95224  32.581   9.094   1.184  0.2803  0.0836  0.1343
52287W        W95225  33.962   7.974   3.086 -0.2117 -0.1593 -0.2834
52288W        W95226  33.749   9.430  31.936  0.1812 -0.1548  0.0211
52289W        W95227  33.169   9.092   2.304 -0.3900  0.2400  0.2019
52290W        W95228  33.663   8.345  31.917  0.1051  0.1700 -0.1581
52291W        W95229  32.835   7.448   2.690  0.0781  0.3382 -0.2978
52292W        W95230  33.275   7.595   2.460  0.1393 -0.1482 -0.1287
52293W        W95231   0.583   9.347   0.910  0.0993  0.0034  0.1658
52294W        W95232  33.777   8.140   1.389  0.1554  0.1609  0.3827
52295W        W95233   0.072   7.705   0.901 -0.0551  0.0508 -0.0670
52296W        W95234  34.534   8.555   1.956  0.0884  0.1302  0.1364
52297W        W95235  32.254   9.460   2.982 -0.0057 -0.2052  0.2149
52298W        W95236  34.282   9.336   0.075  0.0324  0.0420 -0.0683
52299W        W95237  33.829  10.417   3.565 -0.1801  0.0312 -0.0821
52300W        W95238   0.055   9.939   3.328  0.0467 -0.1870 -0.3833
52301W        W95239  32.504   9.125  31.863  0.1907 -0.1285 -0.3117
52302W        W95240   0.054   9.219   2.941 -0.0926 -0.1113 -0.1327
52303W        W95241  33.334   9.609   1.022  0.1540 -0.4013  0.1000
52304W        W95242  33.284  10.498   0.724 -0.1510 -0.3558  0.1212
52305W        W95243  34.310   7.239   2.458  0.0960  0.0062 -0.1890
52306W        W95244   0.065   7.885   1.938 -0.0814 -0.0593 -0.1611
52307W        W95245  33.291   8.520   4.144 -0.1985 -0.1158  0.2160
52308W        W95246  32.065   9.623   0.423 -0.0900 -0.0069  0.0855
52309W        W95247  32.576  10.715  31.308 -0.2878 -0.0748  0.1119
52310W        W95248  32.529   9.072   3.145  0.1850  0.1707 -0.2274
52311W        W95249  34.051   7.786   4.603 -0.0250 -0.1975  0.1026
52312W        W95250  33.154   7.813   2.941 -0.1142  0.1605 -0.1247
52313W        W95251  32.572   8.194   2.834  0.2229  0.0716  0.0833
52314W        W95252  32.856   8.694   0.938  0.0723 -0.0502 -0.0645
52315W        W95253  32.299   7.431   2.301 -0.3493  0.0689 -0.2157
52316W        W95254  33.260   8.157   2.225  0.0521 -0.3117  0.0981
52317W        W95255  33.925   5.922   2.803 -0.0349  0.0462  0.2043
52318W        W95256  33.304   8.406   0.921  0.2295 -0.0986  0.2803
52319W        W95257  33.360   8.954   4.300  0.0272 -0.2697 -0.1770
52320W        W95258  32.914   6.668   4.415 -0.0140 -0.1377  0.2892
52321W        W95259  33.095   6.894   1.122 -0.3526  0.2086 -0.0353
52322W        W95260   0.530   8.914   2.833  0.3190 -0.4518  0.0245
52323W        W95261  33.855  11.007   2.408 -0.1866  0.3221  0.0072
52324W        W95262   0.301   8.683   3.293 -0.1013 -0.0649  0.0289
52325W        W95263  32.155   7.883   3.578  0.0961 -0.0615 -0.4056
52326W        W95264  33.952  10.525   2.850  0.1648 -0.0239 -0.0001
52327W        W95265  32.320   6.818   5.411 -0.0328 -0.1925  0.0452
52328W        W95266  33.456   8.035   3.978 -0.0513 -0.1842  0.0794
52329W        W95267  33.337   5.842   2.876  0.1463 -0.1365 -0.2695
52330W        W95268  32.281   7.938   2.472 -0.2074  0.0906  0.1953
52331W        W95269  33.413   7.067   0.512 -0.0036  0.0534  0.1127
52332W        W95270   0.787   7.906   3.445  0.1761  0.0646  0.1839
52333W        W95271  34.495   8.146   0.793 -0.2342 -0.0151  0.1508
52334W        W95272   0.259  10.263   2.201 -0.1238  0.1412 -0.1021
52335W        W95273  32.612   7.425   1.715  0.0295 -0.1127 -0.1603
52336W        W95274  34.092  10.797   1.138  0.3286  0.2027 -0.0974
52337W        W95275  34.495   8.879   2.496  0.0784  0.0660 -0.4724
52338W        W95276  33.613   7.641   2.880 -0.3279 -0.4384 -0.1439
52339W        W95277  34.059   9.835   3.524 -0.1348 -0.0699 -0.5066
52340W        W95278  33.461   8.524   7.355 -0.0029  0.2694  0.0983
52341W        W95279  33.814   9.335   4.934 -0.2462  0.0490  0.0252
52342W        W95280  32.404   8.222   5.972 -0.1219 -0.0727 -0.2598
52343W        W95281  33.260   6.841   7.297 -0.1809 -0.2804 -0.1687
52344W        W95282  33.766   8.852   6.264 -0.1038 -0.1494  0.0811
52345W        W95283  33.762   9.651   7.989 -0.0124 -0.1407  0.2205
52346W        W95284   0.172   8.737   5.196  0.0032  0.0982  0.1264
52347W        W95285  33.607   7.767   6.450 -0.1421  0.1300 -0.3050
52348W        W95286  33.435   8.320   5.053 -0.2197 -0.3472 -0.2659
52349W        W95287  33.582   7.935   6.985 -0.4428 -0.0437  0.0896
52350W        W95288   0.108   8.381   4.798  0.1886  0.0510  0.0198
52351W        W95289   0.312   7.422   6.341  0.0635  0.0036 -0.1964
52352W        W95290  34.509  10.540   5.577 -0.4082  0.0858 -0.2021
52353W        W95291  32.055   8.837   5.059 -0.0890  0.1124 -0.2963
52354W        W95292  33.486   8.375   6.793  0.1363  0.2612 -0.2464
52355W        W95293  34.449   8.394   7.154  0.2528 -0.0246  0.0584
52356W        W95294   0.081   9.970   6.465 -0.2969  0.1222  0.1103
52357W        W95295   0.256  10.226   7.433 -0.0887 -0.0702  0.0104
52358W        W95296  33.350   8.577   5.894 -0.0272 -0.2466  0.2012
52359W        W95297  32.844   9.405   6.144  0.0292 -0.1177  0.2454
52360W        W95298   0.128   9.702   4.966  0.0463  0.0385  0.0593
52361W        W95299   0.573  11.730   8.092 -0.2747  0.0076 -0.1516
52362W        W95300  33.868   9.579   4.477 -0.4158 -0.1758  0.0191
52363W        W95301  33.912  10.411   7.537  0.3864 -0.0547  0.2054
52364W        W95302  34.464  11.086   3.859  0.5384  0.1163 -0.1641
52365W        W95303  34.438   9.516   5.770 -0.0318 -0.1190 -0.2490
52366W        W95304  33.425  11.002   8.169  0.0426 -0.0973 -0.2828
52367W        W95305  34.439  10.390   7.567 -0.1225  0.0748  0.1947
52368W        W95306  34.005  10.117   4.602 -0.0426 -0.0450  0.2530
52369W        W95307  33.865   9.069   4.101  0.0469  0.1312 -0.2024
52370W        W95308   0.533   7.025   6.139  0.1395 -0.0420 -0.0423
52371W        W95309  34.161  10.892   6.648 -0.4622 -0.0370  0.0724
52372W        W95310   0.594   6.555   5.208 -0.2703  0.0866  0.3315
52373W        W95311  32.550   9.151   5.777  0.2110 -0.3132 -0.0096
52374W        W95312  33.966   8.672   5.850 -0.0477 -0.1578 -0.3690
52375W        W95313  32.998  10.103   7.592  0.1961 -0.2242 -0.1255
52376W        W95314  33.121   7.754   7.072 -0.1234 -0.1191  0.2297
52377W        W95315  34.058   6.841   4.363  0.0531  0.1151  0.1933
52378W        W95316  32.704   8.506   7.424  0.0185  0.3091 -0.1559
52379W        W95317  33.799   9.523   5.406  0.3794  0.0698 -0.2787
52380W        W95318  33.009   8.590   3.774  0.1117  0.1379 -0.3691
52381W        W95319  32.879   9.177   5.218 -0.0764  0.1174  0.3430
52382W        W95320  32.831  10.204   6.968 -0.1122 -0.0455 -0.1304
52383W        W95321   0.395   6.623   6.845  0.2669 -0.2965 -0.2059
52384W        W95322  33.572  10.849   8.620 -0.0022 -0.1264 -0.2213
52385W        W95323  33.830   9.403   3.080  0.2923  0.3676 -0.1028
52386W        W95324  32.006   8.386   7.028  0.4743 -0.0376 -0.2441
52387W        W95325  32.176   9.572   6.458  0.1155 -0.1677 -0.0856
52388W        W95326  31.204   8.605   6.475 -0.2416  0.1048  0.0665
52389W        W95327  33.991   9.067   6.904  0.0268 -0.0550  0.3479
52390W        W95328  34.028   8.152   7.185 -0.2351 -0.0590 -0.0026
52391W        W95329  32.769   7.686   5.320 -0.0592 -0.2678 -0.0450
52392W        W95330  32.100   8.451   7.556  0.1232 -0.0137 -0.0058
52393W        W95331  33.570   8.291   6.317 -0.0938  0.0793 -0.2726
52394W        W95332  31.804   7.237   7.575 -0.1291 -0.3229  0.1844
52395W        W95333  32.978   8.999   7.922  0.2670  0.2847 -0.2286
52396W        W95334  32.436   7.203   5.758  0.1415 -0.1981 -0.0871
52397W        W95335  33.946   8.961   4.574  0.0310  0.0869  0.0213
52398W        W95336  32.541  10.609   6.420 -0.1402 -0.2520 -0.1779
52399W        W95337  33.072   7.680   8.181  0.1299 -0.2987  0.1032
52400W        W95338  34.188   7.607   6.056 -0.0059  0.1367 -0.0236
52401W        W95339  33.896  10.104   6.029 -0.1156  0.0188 -0.1827
52402W        W95340  34.308   9.430   6.615 -0.0520  0.1699 -0.0123
52403W        W95341  33.485   7.485   6.825 -0.0546 -0.0229  0.2183
52404W        W95342  33.463   8.978   6.871  0.1292 -0.1925  0.0468
52405W        W95343  33.128   8.352   4.642  0.2779  0.0930  0.0939
52406W        W95344  32.798   8.902   6.192 -0.1718  0.0747 -0.0849
52407W        W95345  32.944   8.585   5.098 -0.0300  0.1813  0.2562
52408W        W95346   0.241   9.675   5.441  0.0789  0.1558 -0.2185
52409W        W95347  31.748   9.584   8.776  0.1915  0.1613  0.2412
52410W        W95348  34.381   8.551   4.980 -0.2219  0.0821  0.0164
52411W        W95349  33.009  10.557   7.284 -0.0337  0.2049 -0.0332
52412W        W95350  32.986  10.583   7.925 -0.1595 -0.1450 -0.1056
52413W        W95351  33.627   9.024   5.664 -0.0132  0.2346  0.0190
52414W        W95352  34.243   9.819   7.883 -0.0195  0.0781 -0.0106
52415W        W95353  32.526   9.705   6.888 -0.0351  0.1176 -0.3467
52416W        W95354  32.989   7.266   7.099  0.1648  0.2385 -0.0307
52417W        W95355  33.086   8.892   4.736 -0.1936 -0.1259  0.0945
52418W        W95356  33.411   9.305   4.645  0.2665  0.0595 -0.3349
52419W        W95357  33.993   7.643   7.071  0.2526 -0.0783  0.0403
52420W        W95358  33.963   8.353   4.777 -0.2865  0.1794 -0.0777
52421W        W95359  34.482   7.508   7.072 -0.0229  0.1755 -0.1819
52422W        W95360  34.289  10.343   9.156 -0.2122  0.3051  0.4000
52423W        W95361  33.570  10.944   7.540 -0.0170 -0.1073 -0.2881
52424W        W95362  33.961   8.600   7.420  0.0018  0.2450 -0.0880
52425W        W95363  32.627   9.313   6.633  0.4015  0.0477  0.1381
52426W        W95364  34.135  10.194   3.901 -0.2133  0.1481 -0.0938
52427W        W95365  34.333   7.029   6.625 -0.2219 -0.0224  0.2276
52428W        W95366  33.558   9.553   7.002  0.2621 -0.1409 -0.0913
52429W        W95367  34.677  10.980   4.293 -0.1765 -0.0116 -0.1315
52430W        W95368  33.082  10.267   5.922  0.4351  0.1179 -0.4316
52431W        W95369  33.941  10.089   7.092  0.1073  0.1611 -0.0922
52432W        W95370  33.994   7.204   5.669  0.3770 -0.2618  0.2141
52433W        W95371  32.003   9.149   4.629  0.3366  0.0048  0.3023
52434W        W95372  33.338   9.144   6.137  0.0352  0.0518 -0.2727
52435W        W95373  34.067   7.632   6.584 -0.3022 -0.2334  0.0994
52436W        W95374  32.180   9.757   7.862 -0.0424  0.3813  0.0886
52437W        W95375  32.551   9.305   7.789  0.0385  0.1012 -0.0147
52438W        W95376  32.457   8.523   4.937 -0.0364  0.2480  0.1020
52439W        W95377  32.973   7.017   4.841  0.2144 -0.2771 -0.0219
52440W        W95378  32.802   9.641   7.548  0.3484 -0.2824  0.2412
52441W        W95379  33.325   8.725   5.366 -0.1734  0.2766 -0.4029
52442W        W95380  34.302  10.187   6.403 -0.1302 -0.0848 -0.0758
52443W        W95381  33.103   8.641   7.045  0.6934 -0.1992  0.1049
52444W        W95382   0.386   8.002   5.692  0.3323 -0.0861  0.1077
52445W        W95383  34.266   7.416   5.103 -0.0214  0.0902  0.1161
52446W        W95384   0.608   9.804   5.048  0.3023  0.1071  0.0239
52447W        W95385  33.185   8.225   8.370 -0.0672  0.4217 -0.1799
52448W        W95386  33.323  10.208   9.293 -0.0756 -0.0127  0.2829
52449W        W95387   0.480   9.287   5.122 -0.0167 -0.0207 -0.2164
52450W        W95388  33.410  10.206   7.254 -0.0997  0.0871 -0.0751
52451W        W95389  34.178   8.314   5.511 -0.2390  0.0924  0.0812
52452W        W95390  34.181   8.233   7.708  0.0597  0.0748  0.0002
52453W        W95391  33.351   9.916   6.719 -0.0433 -0.0445 -0.0368
52454W        W95392  34.407   9.525   5.265 -0.2176 -0.0259  0.0518
52455W        W95393  33.311  10.443   6.835 -0.0130  0.0082 -0.1050
52456W        W95394  34.122   9.183   5.468  0.0092  0.0631  0.0303
52457W        W95395  33.323   8.730   6.416  0.0548 -0.2153  0.1249
52458W        W95396  32.926   8.887   6.672  0.0725 -0.0741 -0.0307
52459W        W95397  33.017  10.425   8.957  0.0656 -0.1763 -0.0880
52460W        W95398  33.234   6.580   5.640  0.0345 -0.0569 -0.2932
52461W        W95399  33.716   8.027   7.582 -0.1505  0.0130 -0.0628
52462W        W95400  33.067   9.623   5.277  0.2321  0.2919  0.1773
52463W        W95401  33.345   8.771   8.253  0.3389 -0.1304  0.0403
52464W        W95402   0.460   9.257   5.660 -0.1949  0.0168 -0.1206
52465W        W95403  34.150   9.198   6.020 -0.3480  0.0838  0.1479
52466W        W95404  32.969   8.202   6.939  0.2656  0.2556 -0.0295
52467W        W95405  33.494   7.549   7.863 -0.2220  0.2998  0.2491
52468W        W95406  31.516   7.635   6.626  0.2549  0.2282  0.1054
52469W        W95407  32.219   8.190   6.577 -0.1499 -0.1608 -0.0389
52470W        W95408  33.950   7.288   4.643 -0.3121 -0.1410 -0.1165
52471W        W95409   0.514  11.048   5.223  0.0327  0.2644  0.0873
52472W        W95410  32.635   8.261   5.390 -0.0383  0.1807  0.1881
52473W        W95411  33.913  11.088   8.195  0.0796 -0.0750 -0.4182
52474W        W95412  31.794   8.662   4.511  0.1685  0.2060 -0.1556
52475W        W95413   0.114   9.199   4.805 -0.1451 -0.4526 -0.0073
52476W        W95414   0.105  11.167   6.394 -0.2987 -0.1807 -0.0074
52477W        W95415   0.724   8.850   5.132  0.1221 -0.0956 -0.2123
52478W        W95416  34.094   9.817   5.618  0.2923  0.0887  0.2988
52479W        W95417  32.660  10.948   7.684 -0.2221  0.4372  0.0222
52480W        W95418  33.231   9.387   6.623  0.2456  0.1332  0.0544
52481W        W95419  33.805   9.878   7.486  0.2207  0.0712  0.2535
52482W        W95420  34.511   8.830   5.999  0.0119 -0.1549  0.1660
52483W        W95421  33.302   9.234   7.442 -0.0584  0.0433  0.3863
52484W        W95422  33.372   9.186   5.221 -0.3080  0.2195 -0.0385
52485W        W95423  32.557   7.650   7.336 -0.1613 -0.0133  0.0570
52486W        W95424  32.053   7.338   6.268  0.2225 -0.3404  0.0258
52487W        W95425  33.932  11.609   8.991 -0.1389 -0.0664 -0.0659
52488W        W95426  32.149   8.331   8.085 -0.3666  0.0338 -0.1446
52489W        W95427  32.656  10.260   4.516 -0.1658 -0.0065 -0.0588
52490W        W95428  33.966   8.127   4.218 -0.1727  0.4112  0.2351
52491W        W95429  33.154  10.718   6.427 -0.2633 -0.3470  0.1134
52492W        W95430  34.270   9.435   4.779  0.0139  0.1682  0.0016
52493W        W95431  32.734  10.328   5.098  0.3539  0.1196 -0.3179
52494W        W95432  34.358   9.741   6.193 -0.0496 -0.0518  0.1168
52495W        W95433  33.744   6.488   4.253  0.1222 -0.3483  0.0004
52496W        W95434  33.317  10.007   8.007 -0.3986  0.2723  0.0955
52497W        W95435  33.606  11.351   7.893  0.4499 -0.1205  0.0139
52498W        W95436  34.133   7.265   4.033  0.1779  0.1552 -0.0269
52499W        W95437  33.879   8.750   5.370 -0.1638  0.1217 -0.1664
52500W        W95438  34.451   8.853   3.967  0.1403  0.2651  0.0031
52501W        W95439  34.012  10.583   6.140 -0.0546  0.0050  0.2883
52502W        W95440  33.215   9.792   6.220  0.1605  0.1309  0.0309
52503W        W95441  34.205  10.539   7.034  0.1781 -0.5824 -0.1640
52504W        W95442  32.322   7.916   5.483 -0.0925  0.0511 -0.1136
52505W        W95443  33.696   7.058   7.280 -0.1835 -0.3941 -0.2561
52506W        W95444  33.140   7.346   5.168 -0.0945 -0.3319  0.2719
52507W        W95445  33.649   8.889   7.800 -0.0945 -0.3532 -0.3634
52508W        W95446  33.918   8.175   3.584  0.1896  0.1056 -0.0635
52509W        W95447  32.810   7.921   5.778 -0.1848 -0.0724 -0.2466
52510W        W95448  33.229   8.117   5.934  0.0533 -0.0458  0.1167
52511W        W95449  32.673   9.948   7.951 -0.0792 -0.2446  0.0652
52512W        W95450  33.986   8.102   5.984  0.0382 -0.1968 -0.0663
52513W        W95451  33.319  10.816   4.120  0.1845 -0.1664  0.0972
52514W        W95452  31.517   8.332   6.041  0.1200  0.1271 -0.1426
52515W        W95453  34.160   8.516   6.260 -0.1339  0.2169 -0.2464
52516W        W95454  33.661   7.490   5.327 -0.2088  0.1800  0.2153
52517W        W95455  33.718  10.892   5.477  0.0810 -0.2132 -0.1871
52518W        W95456   0.110  10.083   4.134  0.1692 -0.0303  0.0929
52519W        W95457  33.727  10.594   7.098  0.0016  0.1624 -0.1688
52520W        W95458  33.625  11.408   8.426 -0.2510  0.1251  0.0064
52521W        W95459  33.024  10.011   4.780 -0.0108  0.1166  0.1636
52522W        W95460  34.316   9.023   8.351 -0.1176 -0.0388  0.1340
52523W        W95461  32.819   9.544   5.692  0.1031 -0.2824 -0.0712
52524W        W95462  33.961  11.365   6.659  0.0126  0.3957 -0.3425
52525W        W95463  34.202   8.543   4.316  0.0945  0.0551 -0.0199
52526W        W95464  33.702   7.786   5.729 -0.0102  0.0328  0.0442
52527W        W95465  32.729  11.203   8.146 -0.0864 -0.3202  0.2779
52528W        W95466  32.197   8.399   5.317 -0.1166 -0.2052  0.0384
52529W        W95467   0.073   9.591   4.454 -0.0918 -0.1698 -0.0997
52530W        W95468  33.049   9.045   5.729 -0.1403 -0.1449 -0.1294
52531W        W95469   0.388   8.206   6.771  0.0806 -0.0203 -0.0069
52532W        W95470  31.831   8.681   7.922  0.3458  0.2141  0.3071
52533W        W95471  32.958   8.374   6.349  0.0010 -0.3147 -0.2114
52534W        W95472  32.215   9.110   6.292 -0.0650  0.2163 -0.1227
52535W        W95473  33.629   6.851   5.377 -0.1096 -0.0232  0.1036
52536W        W95474  31.533   7.055   7.168  0.0002  0.0576  0.1817
52537W        W95475   0.890   7.793   5.334 -0.3315  0.1949 -0.3707
52538W        W95476  32.902   8.673   4.337  0.0386 -0.3104 -0.1013
52539W        W95477  33.946   9.466   8.694 -0.0673  0.0225  0.2263
52540W        W95478  33.724   8.370   8.424 -0.1949 -0.1724  0.0277
52541W        W95479  33.849   7.976   5.040 -0.0839 -0.0787 -0.3395
52542W        W95480  34.365   7.976   6.798  0.0185 -0.1199  0.0022
52543W        W95481  34.167  11.206   8.667 -0.3497 -0.0604 -0.0247
52544W        W95482  34.353  10.040   6.853 -0.2397 -0.1300 -0.1677
52545W        W95483  32.316   8.049   7.693 -0.2538 -0.0019  0.0300
52546W        W95484  33.849  10.437   8.426 -0.3265 -0.0901  0.1424
52547W        W95485  32.894   6.720   7.683  0.0009  0.0227 -0.1315
52548W        W95486  32.911   9.302   7.061 -0.3198 -0.2231 -0.2627
52549W        W95487  34.644   6.672   5.236 -0.2053  0.0169  0.2015
52550W        W95488  32.820   8.449   5.818 -0.1040 -0.0132  0.1358
52551W        W95489   0.571   9.450   4.642  0.0463  0.0063 -0.1213
52552W        W95490  34.031   8.574   6.869 -0.1304  0.1218  0.3613
52553W        W95491  34.400   8.720   5.446 -0.1617 -0.0060 -0.1992
52554W        W95492  34.618  10.674   6.599 -0.0627  0.3899  0.5372
52555W        W95493  32.413   8.097   7.194 -0.2365  0.0809  0.0464
52556W        W95494   0.187   8.739   5.698 -0.1601  0.3125 -0.0056
52557W        W95495   0.029   8.260   5.961 -0.0243  0.0543  0.0413
52558W        W95496  33.763   9.325   6.492 -0.2726  0.1564 -0.2373
52559W        W95497  33.953  11.781   6.938 -0.2467 -0.1687 -0.0644
52560W        W95498   0.013   7.772  10.399  0.1478  0.0002  0.0834
52561W        W95499  33.923   7.546   8.290  0.3907 -0.1144  0.2116
52562W        W95500  32.976   8.120   7.462  0.1028 -0.3062 -0.0963
52563W        W95501  34.498   9.318   9.970  0.0883  0.1533  0.1322
52564W        W95502  32.959   7.175   9.674  0.0153  0.0004 -0.0512
52565W        W95503  32.575   7.515  10.687  0.2219 -0.2484 -0.1016
52566W        W95504  33.465   9.758   9.588 -0.0347 -0.3497  0.2424
52567W        W95505  32.129   9.008  10.439  0.2011  0.0110 -0.2293
52568W        W95506  31.501   7.495   8.982  0.1776  0.1547 -0.0486
52569W        W95507  33.824   8.126   9.876  0.1565  0.2646 -0.0372
52570W        W95508  33.873   9.484  10.780  0.2530  0.1869 -0.2960
52571W        W95509  32.097   9.468   9.459  0.4136  0.0290  0.0285
52572W        W95510  32.546   8.006   9.808  0.2798  0.1046 -0.1292
52573W        W95511  33.475   9.736  10.106 -0.1274 -0.1503  0.1433
52574W        W95512   0.882   9.886   9.270  0.1761 -0.0829 -0.0949
52575W        W95513  34.275  10.698  10.313  0.0687 -0.0739  0.2743
52576W        W95514  32.976  10.728  10.600 -0.0714 -0.0972 -0.0792
52577W        W95515  32.512  10.177   8.971 -0.2167  0.1171 -0.1293
52578W        W95516  33.157  10.111   9.812  0.3364 -0.0198 -0.1689
52579W        W95517  33.452   9.545   8.472  0.0094  0.0714  0.3787
52580W        W95518  34.038   9.136   9.979  0.3182  0.1128 -0.1799
52581W        W95519  33.890  10.067   9.336  0.2644  0.5099 -0.1342
52582W        W95520  32.221  10.624  11.471  0.0964 -0.2369  0.1570
52583W        W95521  34.601  10.037   8.367  0.2836 -0.0985  0.1618
52584W        W95522  33.619   6.704   8.161  0.4305  0.0326  0.1452
52585W        W95523   0.256   9.013   8.945  0.2516  0.1525  0.0523
52586W        W95524  32.490  11.042  11.510  0.0221 -0.1559  0.4733
52587W        W95525  34.039   6.790  10.636  0.2725  0.2988  0.0663
52588W        W95526  34.016  10.186  11.474 -0.2191 -0.2069 -0.0765
52589W        W95527  32.222   8.355  11.344  0.0422 -0.0337  0.1583
52590W        W95528  32.890   7.952  10.211  0.1934 -0.2150 -0.2249
52591W        W95529  34.108   6.552   8.057 -0.0500  0.3986  0.3648
52592W        W95530  33.585   8.841  10.041  0.2240  0.1275 -0.0914
52593W        W95531  32.852   8.952   7.436 -0.0148  0.0830  0.0898
52594W        W95532  34.368   7.696   8.777 -0.0749 -0.1442  0.2004
52595W        W95533  34.048  10.333  10.665 -0.0736  0.0471  0.3119
52596W        W95534  33.010  11.047   7.291  0.3022 -0.1182 -0.3444
52597W        W95535  32.959  11.438  10.151  0.0579 -0.0193  0.2970
52598W        W95536  33.703   8.427   7.940  0.0957 -0.4049 -0.0150
52599W        W95537  33.385   9.179  10.417 -0.0260 -0.2874 -0.0593
52600W        W95538  33.535   7.707   9.649  0.2066  0.2143  0.4321
52601W        W95539  33.742   9.137   8.307  0.1730  0.1694  0.1033
52602W        W95540  31.247   7.957  10.332  0.1210 -0.3002 -0.1995
52603W        W95541  33.318   8.273  10.177 -0.0487  0.0360 -0.3326
52604W        W95542  34.067   8.005   8.560  0.3307  0.1071 -0.0963
52605W        W95543  33.115   5.945   9.055 -0.0721  0.0919  0.2630
52606W        W95544  33.531   8.472   9.629 -0.1161 -0.2572 -0.2383
52607W        W95545  33.067  10.575   9.484  0.0305  0.3558 -0.0646
52608W        W95546  34.274   8.276   9.696  0.2352 -0.1645  0.1604
52609W        W95547  32.649   7.351   8.869 -0.0764 -0.1589  0.1149
52610W        W95548  34.491  12.054  11.554 -0.1244  0.0328 -0.1307
52611W        W95549  33.688   8.186  10.979 -0.2029  0.0329 -0.1494
52612W        W95550  33.449   7.662   8.590  0.0772 -0.0058 -0.3775
52613W        W95551  33.286   7.418  10.047  0.2827  0.0165  0.1749
52614W        W95552  34.524  10.494   9.760 -0.0820  0.0196  0.1075
52615W        W95553  33.354  10.263  10.323 -0.3294  0.0317 -0.1696
52616W        W95554  33.550  10.912  11.529  0.3043 -0.2888 -0.2160
52617W        W95555  33.932   8.316   8.903  0.1472  0.3025 -0.2989
52618W        W95556  33.771   9.388  10.326 -0.1324 -0.0534  0.0668
52619W        W95557  34.245  10.779  11.082  0.0923 -0.1355  0.0909
52620W        W95558  33.662   9.819  11.619 -0.0002 -0.1316 -0.0038
52621W        W95559   0.847  10.992   9.068  0.1097  0.1969 -0.0408
52622W        W95560  33.728   9.511   9.258 -0.1742  0.2810 -0.0799
52623W        W95561  32.967   9.304   9.695  0.0294  0.0719 -0.0876
52624W        W95562  32.746   8.294   7.869 -0.1493 -0.1739 -0.2701
52625W        W95563   0.157   8.852   9.952  0.2192 -0.0609 -0.1388
52626W        W95564  34.534   9.773  11.407 -0.1203 -0.4562 -0.1079
52627W        W95565   0.694  11.604  11.764 -0.3177 -0.1435 -0.2735
52628W        W95566  33.516   9.861   8.959 -0.1738 -0.0063 -0.2006
52629W        W95567  34.406   8.862   9.733 -0.2318  0.2935  0.1383
52630W        W95568   1.160  10.557  10.923  0.0205  0.1700 -0.0704
52631W        W95569  33.448  10.487   7.710 -0.2300  0.0021 -0.2551
52632W        W95570  33.382  10.059  11.253  0.0428  0.1726  0.1152
52633W        W95571  33.693  11.399  11.447 -0.0401  0.2284  0.2857
52634W        W95572  32.028   7.584   8.589 -0.1000  0.4739  0.1098
52635W        W95573  32.905   8.438   9.979  0.0483  0.0556  0.0373
52636W        W95574  33.201   6.630  10.306  0.2337 -0.1257 -0.1631
52637W        W95575   0.083   8.873  10.861  0.0869  0.4029  0.4050
52638W        W95576  32.638  11.034  10.063  0.0346 -0.1049  0.2803
52639W        W95577  33.299   8.257   9.247 -0.0167 -0.1382  0.2783
52640W        W95578  33.489   8.548  10.641 -0.0050 -0.0999  0.2482
52641W        W95579  33.223   9.478   8.876  0.1065  0.0213  0.0150
52642W        W95580  32.165   8.934   9.454  0.1421  0.1290 -0.2740
52643W        W95581  32.651  10.277   9.891 -0.4020 -0.2631 -0.2018
52644W        W95582  34.111   8.464  10.755 -0.0830 -0.1948  0.0768
52645W        W95583  33.899   9.039   9.035  0.0195  0.0313  0.1026
52646W        W95584  33.551   8.642   9.099  0.1924  0.1042 -0.1472
52647W        W95585   2.686   9.152   9.882  0.1969  0.0184  0.3076
52648W        W95586  33.086   8.807  10.291  0.0112  0.2297  0.1509
52649W        W95587  32.799  11.033   9.369 -0.1239  0.0725 -0.0495
52650W        W95588  32.959   8.577   9.391  0.0045  0.1667 -0.1154
52651W        W95589   0.759   9.390   9.781  0.2810  0.1647  0.0187
52652W        W95590   0.031   9.553  10.823  0.0309  0.0079  0.1491
52653W        W95591  33.391   9.310   9.901  0.0886 -0.0577  0.3756
52654W        W95592  33.887  11.142  11.876  0.1916  0.1779 -0.2291
52655W        W95593  34.509   8.804   9.247  0.0504  0.0105  0.2466
52656W        W95594  32.905  10.126  11.319  0.2707  0.0684 -0.0733
52657W        W95595  34.036   6.035   8.902 -0.0546 -0.5197  0.1772
52658W        W95596  32.315  10.279  11.147  0.3579  0.0346  0.1502
52659W        W95597  33.233   9.108   9.267  0.2572 -0.2346 -0.0421
52660W        W95598  33.010   9.803  10.369  0.0393 -0.3098 -0.4398
52661W        W95599  33.946   8.775   8.591 -0.3676 -0.1098  0.0595
52662W        W95600  32.444   9.374  10.264 -0.3840 -0.4338  0.1635
52663W        W95601  32.146   9.025  11.090 -0.1243 -0.2311  0.0618
52664W        W95602  34.194   7.942   8.080  0.2106  0.1060 -0.0469
52665W        W95603  33.411  10.467   8.229  0.3369 -0.2297  0.1870
52666W        W95604  31.854   8.658  10.821 -0.1492 -0.0341 -0.1573
52667W        W95605  33.972   7.656   7.756 -0.2751 -0.2100 -0.0218
52668W        W95606  33.873   6.943   9.172  0.0136 -0.1420  0.1544
52669W        W95607   0.125  10.621  11.133  0.2831 -0.1225  0.1255
52670W        W95608  34.324   6.978   9.017  0.0417  0.0624 -0.1438
52671W        W95609  33.010   9.680   9.396  0.0334  0.2125  0.0271
52672W        W95610  33.802   9.982  10.422 -0.1193  0.2245 -0.0003
52673W        W95611  34.356   8.839  10.243  0.1474  0.1375 -0.0527
52674W        W95612  34.144   9.216   9.430  0.1223  0.1600  0.3430
52675W        W95613  32.427   9.434  10.791 -0.2900  0.1162 -0.2457
52676W        W95614  33.508   9.062   8.759 -0.0186 -0.2552  0.1286
52677W        W95615  34.370   7.531   9.240  0.0523  0.1075 -0.0278
52678W        W95616  32.724  10.601  11.408  0.0193 -0.2137  0.0312
52679W        W95617   0.401  11.223  10.810 -0.0850 -0.2718  0.1906
52680W        W95618  33.586   6.312   8.725  0.1266 -0.1189 -0.0101
52681W        W95619  33.538  10.306  10.815  0.1820  0.0987  0.0636
52682W        W95620  31.690   9.743   9.303  0.4981  0.0742 -0.3034
52683W        W95621  32.463  10.066  11.543  0.0525 -0.1419  0.1687
52684W        W95622   0.341   8.707  10.405 -0.1546  0.0329 -0.3350
52685W        W95623  34.168   7.300   7.370 -0.1899 -0.0078 -0.0296
52686W        W95624  32.679   8.248   8.796 -0.2530 -0.0293  0.0402
52687W        W95625  32.995   9.312  10.721 -0.4240 -0.1070 -0.1896
52688W        W95626  33.164   8.677   8.741  0.0159 -0.2478 -0.1494
52689W        W95627   0.061   9.119  10.360  0.0124  0.0385 -0.1975
52690W        W95628  32.545  11.178  10.651 -0.1293 -0.3236 -0.0844
52691W        W95629  33.771   9.277  11.823  0.1199 -0.0100  0.1427
52692W        W95630  33.158   8.112   9.713 -0.3067 -0.1873 -0.2847
52693W        W95631  32.281  10.605  10.123  0.0112 -0.0954  0.0404
52694W        W95632  32.770   9.147   9.218  0.0171  0.0351  0.3199
52695W        W95633  31.005   7.883  10.855  0.0757  0.0137  0.1724
52696W        W95634  34.133   8.469   8.200 -0.0358 -0.1053  0.0407
52697W        W95635  33.419   6.394  10.837  0.0167  0.1273 -0.0207
52698W        W95636  33.300   8.013   7.835 -0.1007 -0.0940 -0.2174
52699W        W95637   1.012   9.839   9.727 -0.1615  0.1291 -0.0152
52700W        W95638  34.116   6.193   9.751 -0.1481  0.3978  0.2138
52701W        W95639  34.253   9.981   9.680  0.0382 -0.0604 -0.2115
52702W        W95640  33.869   7.786   8.915 -0.1519 -0.3252 -0.0731
52703W        W95641  33.991   7.322   8.847 -0.2311 -0.2069 -0.0360
52704W        W95642   0.460   9.358   9.274  0.0721 -0.3942  0.3109
52705W        W95643  32.502   9.984   8.482  0.3777  0.0234  0.3046
52706W        W95644  34.016  10.732   8.884  0.1018 -0.2293 -0.0051
52707W        W95645  33.877   9.952  11.005 -0.2071 -0.0283 -0.1127
52708W        W95646  32.956   9.775   8.392  0.1310 -0.0194  0.2100
52709W        W95647  30.952  10.455  10.794 -0.0693  0.2979  0.0743
52710W        W95648  33.931   8.910  10.498  0.0525  0.2809  0.1458
52711W        W95649  34.507   8.214   8.661 -0.0729 -0.2854 -0.1637
52712W        W95650  34.033   7.066  10.220 -0.0675 -0.1200 -0.2307
52713W        W95651  33.239  10.625  11.195  0.0658  0.0491 -0.2407
52714W        W95652  30.867   9.653   9.694  0.1862 -0.2403 -0.3021
52715W        W95653  33.627   7.959   8.210 -0.3195 -0.1297 -0.2640
52716W        W95654  31.472   9.997  11.419  0.0204  0.2025  0.1494
52717W        W95655  33.168  11.072   9.853 -0.2776  0.0006 -0.0535
52718W        W95656   0.252   7.940   9.039 -0.0886  0.0365 -0.1498
52719W        W95657  33.521   7.049  10.292  0.0091  0.3980 -0.0806
52720W        W95658  34.172   7.217   9.641 -0.0564  0.1484  0.6264
52721W        W95659  32.967   7.508   9.282  0.1551  0.0973  0.2283
52722W        W95660  33.149   8.555   7.716  0.1537 -0.0504  0.2699
52723W        W95661  32.122   9.015   7.576 -0.1238  0.3332  0.0622
52724W        W95662   0.025   9.699   9.696 -0.2738 -0.0578 -0.3370
52725W        W95663  33.114   7.581  10.450 -0.1715  0.0659 -0.0189
52726W        W95664   0.426   9.692  10.069  0.1553  0.2041  0.2194
52727W        W95665  33.830   7.891  10.618 -0.1624  0.1560 -0.0273
52728W        W95666  33.204   8.868   9.759  0.3496  0.2033  0.4295
52729W        W95667  32.415   7.797   8.969 -0.3594 -0.3695  0.2291
52730W        W95668   0.443  10.413  10.243 -0.2013 -0.1332  0.4641
52731W        W95669  30.459   6.255   9.660  0.0820 -0.3186  0.2477
52732W        W95670  32.691   8.434  10.412  0.0754  0.0499  0.0143
52733W        W95671  33.774  10.038   9.839 -0.0746  0.3242  0.0319
52734W        W95672  33.993   8.571   9.298 -0.0123 -0.2618  0.1422
52735W        W95673   0.070  11.527  11.622  0.4894 -0.0530  0.0982
52736W        W95674  34.013  12.695   3.994 -0.1060 -0.0539 -0.0546
52737W        W95675  32.863  11.495   1.097  0.0444 -0.2021 -0.4340
52738W        W95676  32.743  11.539   2.200  0.4201 -0.3013  0.0593
52739W        W95677  34.135  11.342   2.221 -0.2595  0.0600  0.2616
52740W        W95678  34.280  11.799   1.993 -0.1529  0.1749 -0.4532
52741W        W95679  32.181  13.920   4.462  0.3392 -0.1969 -0.0106
52742W        W95680  34.332  10.592   0.707 -0.2880  0.2552  0.2657
52743W        W95681  31.946  10.560   2.573  0.4005  0.2015 -0.0889
52744W        W95682  32.455  11.371   2.625  0.2066  0.1798  0.0907
52745W        W95683  34.434  13.275   2.300  0.0134  0.0509 -0.1034
52746W        W95684  33.677  11.511   0.839 -0.4390  0.0978 -0.2861
52747W        W95685  33.633  12.028   3.295 -0.1489  0.0210  0.2039
52748W        W95686   0.009  14.327   1.201  0.1550 -0.0056  0.1562
52749W        W95687  32.218  11.472   0.395  0.3051  0.0228 -0.1842
52750W        W95688  32.067  12.825   2.711  0.0927  0.1219 -0.3242
52751W        W95689  33.653  13.412   2.671 -0.1862  0.3047 -0.4691
52752W        W95690  33.794  13.871   2.566  0.2403  0.0419  0.0305
52753W        W95691   0.615  15.324   1.249  0.0774 -0.2513  0.1870
52754W        W95692  32.525  12.054   2.648  0.0374 -0.2058  0.2426
52755W        W95693  32.428  14.605   1.112  0.2275 -0.2723 -0.2263
52756W        W95694  34.179  14.164   2.430  0.0386 -0.1667  0.0018
52757W        W95695  33.635  14.053   3.926 -0.1840 -0.0014  0.1655
52758W        W95696  32.482  13.260   1.708 -0.0092 -0.1337  0.1438
52759W        W95697   0.005  16.241   3.262  0.1399  0.3735 -0.1710
52760W        W95698  33.701  13.339   1.133 -0.3399 -0.0687  0.6708
52761W        W95699  34.467  13.179   2.751  0.0527 -0.1336 -0.2333
52762W        W95700  33.969  12.466   3.132  0.2133 -0.0573  0.1350
52763W        W95701  32.999  12.144   2.810 -0.0527  0.2151  0.3180
52764W        W95702  34.333  13.431   1.794  0.0145 -0.0601  0.0418
52765W        W95703   0.391  11.999  31.030  0.1296  0.0067  0.3378
52766W        W95704  33.562  10.347   1.688 -0.1787 -0.1526  0.1357
52767W        W95705  34.165  13.513   1.256 -0.0968 -0.0786 -0.0107
52768W        W95706   0.293   9.678   3.700 -0.2186  0.0094  0.0149
52769W        W95707  33.363  13.745   3.536  0.2249 -0.3374  0.1494
52770W        W95708  33.177  13.324   3.565 -0.3324 -0.0496  0.0190
52771W        W95709  32.613  11.832   1.577  0.1658 -0.0350  0.0744
52772W        W95710  31.846  12.521   4.382 -0.0232 -0.1269  0.0006
52773W        W95711  33.320  11.686   3.011 -0.2414 -0.0463 -0.1581
52774W        W95712  34.089  10.216   0.482  0.3450  0.0284  0.1666
52775W        W95713  30.563  13.859   3.037 -0.0350 -0.0616  0.2152
52776W        W95714   0.626  14.686   1.867  0.0042  0.3386  0.1652
52777W        W95715  34.685  11.933  31.620  0.1150  0.0298 -0.2054
52778W        W95716  34.168  12.631   1.600 -0.2231  0.2508 -0.3296
52779W        W95717  33.442  13.274   3.127 -0.1077 -0.1149 -0.0009
52780W        W95718  33.821  11.610   3.031 -0.2851 -0.3073 -0.0366
52781W        W95719   0.914  12.727   2.100  0.0092  0.0739  0.0216
52782W        W95720  34.445  14.482   0.716  0.0510  0.0720 -0.0726
52783W        W95721  31.289  13.040   2.126  0.1061 -0.0774 -0.0729
52784W        W95722  33.446  11.975   2.080  0.3435  0.0655  0.1141
52785W        W95723  32.309  10.887   2.515 -0.1796 -0.2708  0.2294
52786W        W95724  33.308  13.061   4.662  0.1353  0.1231  0.2223
52787W        W95725  33.860  11.324   4.306  0.0023  0.0936  0.0930
52788W        W95726  32.533  12.223   3.107  0.0195 -0.1308 -0.1349
52789W        W95727  33.329  11.042   2.354 -0.1684 -0.2643 -0.2278
52790W        W95728  33.117  12.839   2.088 -0.2258 -0.0493  0.0207
52791W        W95729  33.544  10.217   4.702  0.1544  0.3417 -0.2872
52792W        W95730  33.118  10.596   1.535 -0.3743 -0.0416 -0.0213
52793W        W95731  33.286  10.902   0.480 -0.0484 -0.4808 -0.0766
52794W        W95732  34.069  11.398   1.129 -0.0372  0.0459  0.0470
52795W        W95733  33.372  13.769   1.675 -0.2878 -0.2586 -0.2469
52796W        W95734  33.651  11.155   1.883  0.1570 -0.1789  0.2852
52797W        W95735  33.325  10.089  31.681 -0.1107  0.0144  0.2800
52798W        W95736  33.814  13.959   1.194 -0.2839  0.2156  0.0478
52799W        W95737  34.606  12.724   2.005 -0.2718 -0.2047 -0.2214
52800W        W95738  33.185  11.767   1.512 -0.1767  0.2215  0.3665
52801W        W95739  32.932  14.005   2.981  0.0669  0.1635 -0.0126
52802W        W95740  33.360  11.152   0.073 -0.1508 -0.0226 -0.0926
52803W        W95741  32.879  14.091  31.801 -0.1223  0.2583  0.1888
52804W        W95742  32.476  12.927   0.331  0.1702  0.1816  0.0095
52805W        W95743  33.694  14.171   2.233 -0.0451 -0.0034 -0.0961
52806W        W95744  32.929  13.590   3.218  0.0425 -0.3344 -0.1313
52807W        W95745  33.091  11.856   0.769  0.0763 -0.0497 -0.1935
52808W        W95746  32.655  12.694   4.622 -0.1022 -0.2276 -0.0706
52809W        W95747  32.813  12.363   3.529 -0.1855 -0.0521 -0.1534
52810W        W95748  34.157  13.838   2.042  0.0248 -0.4539 -0.1483
52811W        W95749  34.034  13.405   2.929  0.2270 -0.3547  0.0015
52812W        W95750  33.152  13.597   2.742 -0.1583  0.1119 -0.0736
52813W        W95751  33.922  11.948   2.341  0.0116 -0.0643  0.0651
52814W        W95752   1.263  11.426  31.280  0.1434  0.4122  0.0587
52815W        W95753  32.584  14.263   0.223 -0.0315  0.2052  0.3802
52816W        W95754   0.641  11.117   4.004  0.0567 -0.1898  0.1756
52817W        W95755  31.504  11.543  30.154 -0.3682 -0.0395  0.0290
52818W        W95756  34.323   9.658   2.984  0.0768  0.0926  0.1550
52819W        W95757  33.528  12.509   4.027 -0.0466 -0.0836 -0.2274
52820W        W95758  32.322  14.174   3.601  0.2904 -0.0255  0.0518
52821W        W95759  33.866  10.483   4.255  0.3800  0.0873  0.1412
52822W        W95760  32.545  13.285   3.278 -0.2411  0.0425 -0.1731
52823W        W95761  33.573  12.714   1.610  0.0483 -0.0852 -0.2227
52824W        W95762  33.711  10.804   1.539  0.2923 -0.0163  0.2070
52825W        W95763  34.577  14.267   1.690 -0.0018  0.4181 -0.1071
52826W        W95764  33.395  13.250   0.192  0.2082 -0.0565  0.1800
52827W        W95765  33.203  14.126   2.058  0.2151  0.0639 -0.1059
52828W        W95766  33.494  14.194   0.767  0.2699  0.1552  0.1431
52829W        W95767   0.462  11.887   1.286  0.0104 -0.1955  0.0717
52830W        W95768  32.242  12.588   2.269  0.5013  0.0436  0.0521
52831W        W95769   0.567  11.373   1.372  0.1348  0.0794 -0.2440
52832W        W95770  33.699  10.001   2.306 -0.0093  0.1580  0.1785
52833W        W95771  32.065  14.442   4.445  0.3454 -0.1581 -0.0371
52834W        W95772  33.771  12.525   3.568 -0.2503  0.0230 -0.1341
52835W        W95773  32.837   9.504  31.866  0.0143 -0.2202 -0.2760
52836W        W95774  32.446  10.210   1.024 -0.1830 -0.0645 -0.1977
52837W        W95775  33.977  13.987   0.691 -0.0694  0.0368  0.1477
52838W        W95776  33.673  11.559   2.374 -0.4568 -0.0522  0.2814
52839W        W95777  32.457  13.777   1.788  0.3639 -0.1073 -0.3151
52840W        W95778  34.488  11.884   3.896  0.1346 -0.1107  0.1479
52841W        W95779  34.049  10.424   1.549 -0.2340  0.0118  0.1747
52842W        W95780  34.096  10.833   1.942  0.1147 -0.5871  0.0400
52843W        W95781  34.148  12.942   2.105 -0.0744  0.3454 -0.0690
52844W        W95782  32.653  11.102   3.942 -0.3062  0.0034  0.0845
52845W        W95783  34.439  14.848   3.414  0.0957  0.2107  0.3023
52846W        W95784  33.488  12.474   2.078  0.1414  0.1239 -0.1310
52847W        W95785  33.503  11.215   3.321  0.0167  0.0473 -0.1204
52848W        W95786  32.912  12.514   1.052 -0.1833  0.0286  0.3399
52849W        W95787   0.160  11.437   3.046  0.3094 -0.1167  0.0959
52850W        W95788  33.395  12.383   2.998 -0.0326  0.0643  0.0534
52851W        W95789  32.875  13.185   1.226 -0.2212 -0.1717 -0.1793
52852W        W95790  32.263  13.286   2.860  0.0829  0.1532 -0.3453
52853W        W95791  33.621  11.309   1.385  0.2010  0.2403  0.0154
52854W        W95792  34.324  10.124   2.892  0.3562 -0.0431  0.0170
52855W        W95793  32.678  12.479   5.114 -0.0974  0.0361  0.1396
52856W        W95794  31.405  12.746   5.165 -0.0129 -0.0014 -0.3884
52857W        W95795  32.906  11.924   1.953 -0.1866 -0.0460 -0.2242
52858W        W95796  33.300  13.220   2.368  0.1842  0.1929 -0.0925
52859W        W95797  33.279  11.824   0.158  0.0685 -0.1892 -0.0815
52860W        W95798  33.996  12.955   2.741  0.0398  0.0350 -0.0367
52861W        W95799  34.084  12.891   0.687  0.0183  0.0459  0.1655
52862W        W95800  33.463  11.993   2.709  0.0766 -0.1523  0.0902
52863W        W95801  32.320  10.682   3.862 -0.0112  0.0458  0.1616
52864W        W95802  32.112  12.009   3.775 -0.2923  0.1326  0.3295
52865W        W95803  32.043  11.003   3.476 -0.2435  0.1822 -0.0535
52866W        W95804  32.892  12.450   1.880  0.0135 -0.1420 -0.1294
52867W        W95805  32.075  11.221  31.754  0.3166  0.3236  0.1456
52868W        W95806   0.132  15.188  31.373 -0.0910 -0.2465  0.0145
52869W        W95807  32.670  11.048   1.235 -0.0693 -0.2119 -0.1298
52870W        W95808  33.540  13.809   3.044 -0.0068 -0.0280 -0.0059
52871W        W95809  32.983  11.075   0.880 -0.0964 -0.0506  0.1603
52872W        W95810  32.547  10.861  31.789 -0.0262 -0.2805  0.1031
52873W        W95811  34.313  13.541   3.338 -0.2780 -0.1461 -0.1710
52874W        W95812   0.145   9.742   1.333 -0.2961 -0.1379 -0.0061
52875W        W95813  32.958  12.825   1.564  0.0700  0.0736 -0.3334
52876W        W95814   0.236  12.567   4.124  0.1837 -0.2072  0.1194
52877W        W95815  32.160  12.483   3.258 -0.0715 -0.2010  0.0645
52878W        W95816  34.249  13.943   1.537  0.3962 -0.0694 -0.2430
52879W        W95817  32.685  14.427   3.278 -0.0847 -0.0285 -0.2040
52880W        W95818  32.615  12.868   1.977  0.0325  0.0404 -0.2340
52881W        W95819  33.199  12.671   2.572  0.1174  0.0590  0.0745
52882W        W95820  31.172  10.757   3.112  0.2695  0.2268  0.0888
52883W        W95821  33.327  11.479   0.499 -0.0350 -0.1040  0.2749
52884W        W95822  33.756  15.361   4.492  0.0433 -0.0254  0.2162
52885W        W95823  33.672  12.076   3.795  0.1916 -0.3535  0.0974
52886W        W95824  33.297  14.049   2.575  0.0432  0.2693 -0.3373
52887W        W95825  33.480   9.684   0.586  0.1610 -0.1483  0.1279
52888W        W95826  32.756  13.141   2.618  0.0447  0.0534 -0.1503
52889W        W95827  32.132  13.161   0.040  0.2040  0.1273  0.0910
52890W        W95828  34.311  14.940   1.794  0.2153  0.3831  0.2053
52891W        W95829  33.686  12.874   2.383  0.2071  0.1143 -0.0117
52892W        W95830  34.522  11.509  31.794 -0.2084  0.2918 -0.0829
52893W        W95831  32.435  11.227   4.365 -0.3337 -0.0882 -0.2213
52894W        W95832  32.665  13.608   4.251  0.2351  0.0323 -0.0882
52895W        W95833  32.287  11.356   1.549  0.2092  0.0877  0.0160
52896W        W95834  34.552  13.305   0.784  0.0422  0.2547 -0.0133
52897W        W95835  33.425  12.490   1.165  0.0907  0.0930  0.0828
52898W        W95836   0.162  15.040   1.286  0.0315 -0.3117  0.2964
52899W        W95837  33.948  13.083   1.540  0.1138 -0.4488  0.1431
52900W        W95838  33.485  15.417   3.769  0.0446 -0.1366  0.1311
52901W        W95839  31.297  11.420   3.503 -0.1465 -0.1217  0.1702
52902W        W95840  34.026  10.464   2.309 -0.3197  0.2231  0.1372
52903W        W95841  34.080  11.205   1.617  0.1320 -0.0482  0.0405
52904W        W95842  33.166  11.723   2.399  0.0343  0.0663  0.0332
52905W        W95843   0.799  10.325   0.786  0.1809 -0.3135 -0.3144
52906W        W95844  31.479  11.168   2.285 -0.2543 -0.1016 -0.1302
52907W        W95845  32.481  12.448   1.687 -0.2686 -0.0327  0.1940
52908W        W95846  33.615  13.034   3.702 -0.1683 -0.1372 -0.0324
52909W        W95847  33.191  10.982   1.815 -0.1339 -0.1055  0.0565
52910W        W95848  33.027  14.523   0.271 -0.0073 -0.2637  0.0295
52911W        W95849  31.998  11.864   4.754 -0.1212  0.1014  0.0284
52912W        W95850  32.676  10.836   1.710  0.3933  0.0522 -0.2653
52913W        W95851  33.985  11.951   0.974 -0.1760  0.1531 -0.1140
52914W        W95852  33.194  13.438   0.603 -0.3427  0.0590 -0.4241
52915W        W95853  34.493  13.770   0.618 -0.0227 -0.2465 -0.0108
52916W        W95854   0.054  13.650   2.970  0.1590 -0.1282  0.1645
52917W        W95855  33.018  13.467   4.614  0.2537 -0.2004  0.0849
52918W        W95856  32.481  12.828   0.844  0.0618 -0.0304  0.0217
52919W        W95857  33.919  11.606   3.869  0.2037  0.0531 -0.2015
52920W        W95858  33.947  13.382   2.266  0.2029 -0.0312  0.1411
52921W        W95859  34.616  13.728   1.090 -0.2485  0.1677 -0.0016
52922W        W95860  33.866  12.176   1.861 -0.0045 -0.2232  0.2565
52923W        W95861   0.283  11.427   1.871  0.3276 -0.0712  0.2736
52924W        W95862  33.519  13.068   4.225  0.0653 -0.2136  0.3205
52925W        W95863  33.001  12.241   2.322 -0.1488 -0.2271  0.2267
52926W        W95864  31.930  13.112   0.466 -0.3439 -0.0288 -0.2198
52927W        W95865  32.717  13.168   3.767 -0.0608 -0.1131  0.1523
52928W        W95866  34.377  10.313   3.445  0.0385  0.2011  0.2229
52929W        W95867  33.499  10.798   3.630  0.0040  0.1311  0.1681
52930W        W95868  32.813  12.520   4.157 -0.2475  0.0842 -0.2448
52931W        W95869  33.646  10.677   2.081 -0.1228 -0.0142 -0.0399
52932W        W95870  32.830  11.062   2.132 -0.0630 -0.0803  0.0766
52933W        W95871  31.878  10.349   1.908  0.3476  0.3304  0.3748
52934W        W95872  33.785  10.544   0.762 -0.0847 -0.1670 -0.0221
52935W        W95873  32.524  12.426   0.117 -0.2070  0.2071  0.0892
52936W        W95874  33.911  13.036   3.268  0.0719 -0.1167  0.1409
52937W        W95875  34.199  11.425   2.721 -0.0131  0.1955 -0.0759
52938W        W95876  32.528   9.950  31.783  0.4068  0.1400  0.2206
52939W        W95877   0.060  10.733   2.006 -0.3762 -0.2524  0.2579
52940W        W95878  34.318  12.712   3.541  0.1125 -0.3096  0.1867
52941W        W95879   0.534  12.929   3.274  0.1604 -0.1028  0.1140
52942W        W95880  32.810  10.768   4.337 -0.1690  0.3129 -0.5934
52943W        W95881  33.135  12.786   3.833 -0.1111 -0.0569  0.3265
52944W        W95882  32.469  11.345   3.529  0.0032 -0.0551 -0.3313
52945W        W95883  33.627  13.521   3.870 -0.3764 -0.1172 -0.0578
52946W        W95884  33.140  10.056   2.115  0.0732  0.0661  0.0006
52947W        W95885  33.100  13.623   2.216  0.1217 -0.0603  0.1702
52948W        W95886  33.564  10.179   0.485 -0.0190 -0.0799 -0.0179
52949W        W95887  34.012  12.042   2.813  0.1892  0.1568 -0.2406
52950W        W95888   0.228  12.268   1.509 -0.3802 -0.2019  0.0398
52951W        W95889  34.184  13.731   3.791 -0.0910 -0.2606  0.2149
52952W        W95890  32.904  11.573   3.843 -0.1694  0.0947 -0.0742
52953W        W95891  33.645  13.079   0.658 -0.0122  0.1750 -0.2002
52954W        W95892  34.662  13.057   3.221 -0.0172  0.1620  0.0158
52955W        W95893  34.043  11.756   1.492 -0.0633 -0.3416 -0.3176
52956W        W95894  32.797  14.450   3.800 -0.3707 -0.3648  0.0144
52957W        W95895  34.294  14.211   7.519 -0.1296  0.0064  0.1047
52958W        W95896  34.268  10.938   5.665  0.2427 -0.1806 -0.1310
52959W        W95897  33.394  10.573   5.671  0.0182 -0.2138  0.0924
52960W        W95898  34.566   9.331   7.138 -0.0276  0.1711 -0.2154
52961W        W95899  34.064  12.894   7.088 -0.1255  0.0330 -0.2585
52962W        W95900  33.682  14.203   7.373  0.3250  0.1097 -0.1720
52963W        W95901  34.469  10.837   4.785 -0.0788  0.0888 -0.1753
52964W        W95902  32.590  11.288   6.901  0.0284 -0.1266  0.0961
52965W        W95903  33.105  12.545   4.732 -0.1930  0.1076  0.3112
52966W        W95904  34.062  10.596   4.680 -0.1556 -0.0925 -0.0260
52967W        W95905  33.183  12.020   6.644 -0.0201  0.1978  0.1739
52968W        W95906  33.743  12.565   7.317 -0.1738 -0.1527  0.1874
52969W        W95907  34.115  14.139   4.517  0.1024  0.1245 -0.2932
52970W        W95908  33.328  12.811   3.347  0.0808 -0.3106 -0.1764
52971W        W95909  31.926  13.460   7.917  0.2287  0.2203  0.3747
52972W        W95910  33.541  12.568   6.376 -0.0140  0.1618  0.0593
52973W        W95911  33.454  13.623   5.366 -0.1714 -0.1891  0.0846
52974W        W95912  33.738  14.509   4.304  0.0179 -0.2499  0.3906
52975W        W95913  33.162  13.251   7.196  0.4591  0.0476  0.1870
52976W        W95914  32.807  13.270   6.624 -0.1452 -0.1675  0.1159
52977W        W95915  33.528  14.319   4.960 -0.1292 -0.3381 -0.0220
52978W        W95916   0.400  13.770   7.511 -0.0789 -0.1228  0.1774
52979W        W95917  34.263  14.416   4.163 -0.0421 -0.1610 -0.0425
52980W        W95918  33.708  13.190   8.085  0.1336  0.1098 -0.0944
52981W        W95919  33.197  12.699   5.266 -0.2131 -0.1565  0.2289
52982W        W95920  34.398  12.680   4.924 -0.2237  0.1647  0.1130
52983W        W95921   0.379  12.994   7.516 -0.0404  0.1134 -0.0035
52984W        W95922  33.100  12.988   8.015 -0.2083  0.5359  0.0254
52985W        W95923   0.047  13.670   4.978 -0.0803  0.2379  0.2844
52986W        W95924  34.332  11.509   3.602  0.2050 -0.0188 -0.1637
52987W        W95925  33.535  11.140   4.942  0.0795 -0.1124 -0.0156
52988W        W95926  34.030  13.874   7.031  0.1882 -0.0272  0.1677
52989W        W95927  33.621  11.071   6.997  0.0072  0.0950 -0.0138
52990W        W95928  34.481  14.021   6.906 -0.0358 -0.2184 -0.0579
52991W        W95929  32.490  12.849   6.729  0.3170  0.1646  0.1542
52992W        W95930  31.471  12.015   5.524 -0.1028 -0.0285  0.0524
52993W        W95931  32.581  12.376   8.216 -0.1219 -0.0815  0.0845
52994W        W95932  33.683  12.536   8.600  0.2432 -0.0155 -0.0257
52995W        W95933  32.937  11.278   2.561 -0.0711  0.1140  0.1128
52996W        W95934  33.794  13.684   8.211  0.0340  0.1858 -0.4327
52997W        W95935  33.551  12.998   7.271  0.0867 -0.0709  0.0007
52998W        W95936  33.609  12.666   4.491  0.2768 -0.2085  0.0439
52999W        W95937  31.653  13.751   6.988 -0.2459  0.0511 -0.1951
53000W        W95938  34.476  11.915   7.009  0.1385  0.1343 -0.0671
53001W        W95939  34.537  14.372   9.147  0.4802 -0.0285 -0.0655
53002W        W95940  32.471  12.817   4.176  0.0953  0.0386  0.1438
53003W        W95941  32.960  12.811   6.956  0.0246  0.3188  0.0559
53004W        W95942  33.694  14.152   3.428  0.1771 -0.0793  0.0961
53005W        W95943  32.890  11.675   8.461  0.1027  0.1634  0.1937
53006W        W95944  34.575  13.051   6.863  0.0167  0.3489  0.3459
53007W        W95945  34.230  12.666   7.630  0.2461 -0.1218 -0.0340
53008W        W95946  32.507  13.490   5.687  0.0262  0.2433 -0.3646
53009W        W95947  31.920  12.657   6.826  0.0331 -0.0958  0.4421
53010W        W95948  33.744  11.732   4.610 -0.1452 -0.0302 -0.1771
53011W        W95949   0.868  12.187   7.863  0.1184 -0.0154 -0.0465
53012W        W95950  33.679  10.725   6.485  0.1295 -0.1014 -0.0713
53013W        W95951  32.620  10.850   3.496  0.2811 -0.2099 -0.1083
53014W        W95952   0.258  11.414   5.449 -0.1178 -0.1245  0.1439
53015W        W95953  33.071  12.442   6.403  0.1530  0.0525  0.2303
53016W        W95954  33.542  11.487   5.844  0.1205  0.3997 -0.3092
53017W        W95955  32.789  11.295   4.651  0.1447 -0.1235 -0.1365
53018W        W95956  32.440  14.948   5.138  0.1323  0.0623 -0.0987
53019W        W95957  34.508  13.253   5.710 -0.0723 -0.1640 -0.0985
53020W        W95958  33.489  11.321   5.395 -0.1169  0.1675 -0.2066
53021W        W95959  33.308  12.895   9.309  0.0799  0.1299  0.0181
53022W        W95960  33.528  12.439   4.926 -0.1213 -0.0952 -0.2545
53023W        W95961  32.370  14.179   4.923 -0.1263 -0.0310 -0.0493
53024W        W95962  31.457  11.301   5.303 -0.2005  0.1414 -0.0631
53025W        W95963  34.215  12.932   5.523 -0.0215 -0.0736 -0.1090
53026W        W95964  33.490  11.573   6.832 -0.2638 -0.1359  0.2978
53027W        W95965  32.569  11.806   5.869  0.0839  0.0212  0.1902
53028W        W95966  33.530  14.263   8.582  0.1304 -0.0586 -0.1084
53029W        W95967  32.812  14.295   7.816  0.0912  0.3638  0.2083
53030W        W95968  34.401  13.508   5.319 -0.1396  0.1376  0.1314
53031W        W95969  34.199  13.129   4.976  0.2002  0.1764 -0.2324
53032W        W95970  31.951  13.908   7.490  0.1107  0.2307  0.0942
53033W        W95971  34.257  10.405   8.120 -0.2421 -0.1239  0.1436
53034W        W95972  33.882  11.122   2.951  0.6449 -0.0640 -0.3165
53035W        W95973  31.673  14.889   4.467  0.0425  0.0649  0.0971
53036W        W95974  34.055  11.922   6.098  0.0144  0.2135  0.1745
53037W        W95975  33.435  11.284   2.779 -0.3307 -0.1509 -0.0234
53038W        W95976  33.956  10.694   7.928 -0.2976  0.0106 -0.0939
53039W        W95977  33.292  13.283   8.429  0.0615 -0.1901 -0.2104
53040W        W95978  33.324  13.716   7.482  0.2171 -0.1218 -0.2314
53041W        W95979   0.574  11.475   8.501 -0.2998  0.1409 -0.0225
53042W        W95980  33.185  14.037   5.217  0.0648 -0.2523 -0.3424
53043W        W95981  32.677  12.186   4.646 -0.2643  0.2272 -0.0043
53044W        W95982   0.230  10.279   5.829 -0.4382 -0.0636 -0.0224
53045W        W95983   0.600  13.293   7.146 -0.0219 -0.1571  0.0323
53046W        W95984  33.311  13.210   5.660  0.4372  0.0359  0.1865
53047W        W95985  31.952  14.826   4.869 -0.0760  0.3955 -0.2677
53048W        W95986  31.610  14.299   6.143 -0.1411 -0.1147  0.0889
53049W        W95987  32.799  12.134   5.476 -0.0722  0.0206 -0.3785
53050W        W95988  33.205  12.403   5.734  0.1387 -0.0121  0.2505
53051W        W95989   0.061  10.859   5.190 -0.0162 -0.2901 -0.0775
53052W        W95990  34.300  11.084   6.215  0.3255 -0.2807 -0.2964
53053W        W95991  32.670  14.495   7.322 -0.0910  0.0530 -0.0980
53054W        W95992   0.182  13.807   8.249  0.0039 -0.4772  0.0205
53055W        W95993  32.971  11.449   3.297  0.3559 -0.2475  0.2003
53056W        W95994  32.296  11.796   6.768 -0.1114  0.0972  0.1039
53057W        W95995  32.367  13.449   7.552 -0.0624  0.1111 -0.0700
53058W        W95996  31.952  11.762   5.755  0.3881 -0.2709  0.0950
53059W        W95997  33.638  12.784   6.828  0.2581 -0.0545  0.0313
53060W        W95998  33.118  12.017   7.221 -0.0938 -0.0218  0.2420
53061W        W95999  33.527  12.384   8.034 -0.0208  0.1462 -0.1845
53062W        W96000  33.788  11.029   5.958  0.1286 -0.1297  0.2693
53063W        W96001  33.336  13.243   7.656 -0.0510  0.1605 -0.0195
53064W        W96002   0.408  12.515   7.448 -0.3456 -0.0486 -0.0851
53065W        W96003  34.417  13.847   9.202 -0.2451  0.4622 -0.1980
53066W        W96004  31.903  12.027   5.263 -0.3180 -0.0372  0.1164
53067W        W96005  32.767  12.238   6.827  0.2386  0.1262  0.0831
53068W        W96006  32.534  12.670   5.653  0.0403  0.1332 -0.3053
53069W        W96007  34.385  11.262   5.179  0.2870 -0.2089  0.0176
53070W        W96008  34.213  13.269   6.586  0.0637  0.0997 -0.1555
53071W        W96009  33.675  12.865   5.443  0.1481  0.1594  0.3824
53072W        W96010   0.065  12.658   7.833  0.1018 -0.0857  0.0787
53073W        W96011  34.070  11.177   4.736  0.4081 -0.2024  0.0769
53074W        W96012  33.232  11.983   7.722 -0.2165 -0.0931  0.1115
53075W        W96013  33.136  11.155   6.707 -0.0120  0.2652 -0.0647
53076W        W96014  32.888  10.757   6.865  0.3728  0.1260  0.3933
53077W        W96015  33.485   9.737   4.941 -0.1234 -0.0283 -0.0360
53078W        W96016  34.634  12.570   5.348 -0.1077 -0.1527  0.1346
53079W        W96017  34.160  12.692   4.490 -0.2930 -0.0666  0.1011
53080W        W96018  31.933  13.410   7.423  0.1849 -0.1566  0.2012
53081W        W96019  34.384  12.246   3.290  0.1679  0.0857  0.0948
53082W        W96020  33.895  13.394   5.239  0.2416  0.2386 -0.1871
53083W        W96021  34.038  11.619   8.275 -0.0439  0.0143 -0.1230
53084W        W96022  34.038  13.143   8.420 -0.2690 -0.0597 -0.2478
53085W        W96023  34.011  10.990   9.306 -0.0884  0.1714 -0.2105
53086W        W96024  31.757  12.193   5.934 -0.0929 -0.0394 -0.0321
53087W        W96025  32.989  10.644   3.837 -0.1435  0.1800  0.1957
53088W        W96026  33.827  14.264   5.404  0.1077 -0.0061 -0.0539
53089W        W96027  32.470  11.725   4.596 -0.1740 -0.2303 -0.1782
53090W        W96028  33.331  13.626   7.986  0.0925  0.2662 -0.3551
53091W        W96029  33.183  12.069   4.037 -0.2092  0.0957  0.2018
53092W        W96030  33.461  11.907   5.028 -0.1290  0.1015  0.1817
53093W        W96031   0.297  12.929   5.579  0.2389 -0.0532 -0.3962
53094W        W96032  34.336  10.373   4.287 -0.0976  0.0750 -0.1363
53095W        W96033  33.181  13.545   6.321  0.0510 -0.3658  0.0127
53096W        W96034  32.420  14.653   6.872 -0.0740  0.0514  0.2997
53097W        W96035  32.449  13.082   8.556  0.0232 -0.0991 -0.1418
53098W        W96036  34.205  12.999   6.081 -0.0044  0.2382  0.1802
53099W        W96037  34.507  11.523   6.169  0.4809  0.0223 -0.0877
53100W        W96038  31.433  13.188   8.314 -0.0062 -0.2386  0.3101
53101W        W96039  33.512  13.744   6.954  0.1242 -0.1302  0.0742
53102W        W96040  32.497  11.679   8.192 -0.1248 -0.3336  0.0792
53103W        W96041  34.097  10.639   5.244 -0.3481 -0.1955 -0.0767
53104W        W96042  34.046  13.386   8.960 -0.3747  0.4559 -0.0465
53105W        W96043  32.799  12.812   8.393  0.0192  0.1006 -0.0831
53106W        W96044  33.728  12.898   4.921 -0.3882  0.1474 -0.0524
53107W        W96045  33.306  12.028   4.547 -0.0928  0.1001 -0.4985
53108W        W96046  32.274  13.919   6.372  0.0444 -0.2742 -0.0401
53109W        W96047  32.389  14.520   4.060 -0.2313  0.2796  0.0301
53110W        W96048  34.062  13.976   6.090 -0.0221  0.0947  0.1288
53111W        W96049  32.877  13.996   4.801  0.0493  0.0498  0.0328
53112W        W96050  34.113   9.843   5.054 -0.0776 -0.0931  0.0833
53113W        W96051  32.149  11.749   7.702 -0.2304 -0.0016  0.1012
53114W        W96052  33.447  15.026   8.067  0.1687  0.3651  0.2535
53115W        W96053  34.318  11.697   5.360  0.0458  0.0257  0.1556
53116W        W96054  32.664  11.189   5.901 -0.1045  0.1277  0.0873
53117W        W96055  34.084  11.899   3.406 -0.1411  0.0514 -0.2555
53118W        W96056  33.400  13.972   5.712  0.0473  0.2516 -0.0467
53119W        W96057  33.281  13.112   6.670 -0.0487 -0.1218  0.1031
53120W        W96058   0.810  14.561   7.236 -0.6699  0.2601  0.1998
53121W        W96059  33.519  10.618   4.945 -0.2828 -0.1243  0.2173
53122W        W96060  33.101  12.411   8.529 -0.0192  0.0286 -0.1008
53123W        W96061  32.270  13.079   5.465  0.1664 -0.0197 -0.0017
53124W        W96062  34.190  12.269   6.742  0.1126  0.1042  0.0014
53125W        W96063  33.083  11.278   4.166 -0.3168  0.0425 -0.0840
53126W        W96064  32.924  11.597   6.579 -0.2134 -0.1248 -0.1158
53127W        W96065  32.995  12.797   5.881 -0.0914 -0.1461  0.0859
53128W        W96066  33.709  12.123   6.649 -0.3373  0.2367 -0.0865
53129W        W96067  32.870  10.552   5.500 -0.0631  0.0102  0.1005
53130W        W96068  32.865  15.138   4.201 -0.0064 -0.0036  0.0983
53131W        W96069  32.986  11.541   7.060  0.0912  0.3394 -0.3073
53132W        W96070  33.878  10.423   5.660 -0.2602  0.2036 -0.1185
53133W        W96071  31.701  12.066   6.481 -0.3417  0.1626 -0.0750
53134W        W96072  31.747  14.824   3.584 -0.0508 -0.0154 -0.1468
53135W        W96073  34.579  13.167   4.541  0.1158 -0.0037 -0.2740
53136W        W96074   0.653  14.369   6.699  0.4574  0.0634  0.1121
53137W        W96075  33.168  14.096   7.145  0.0292 -0.0151 -0.4599
53138W        W96076  32.544  13.380   5.205 -0.2140 -0.0463 -0.0655
53139W        W96077  33.793  13.284   6.876  0.0713 -0.0478  0.2270
53140W        W96078  33.120  11.826   6.032  0.0780 -0.0917 -0.3165
53141W        W96079  32.563  14.312   5.411 -0.2305 -0.1257  0.2186
53142W        W96080  34.345  12.219   5.701  0.1271 -0.0222 -0.1870
53143W        W96081  33.827  10.260   6.660 -0.0292  0.1857 -0.2118
53144W        W96082  33.975  12.745   8.065 -0.0712 -0.0221 -0.4923
53145W        W96083  32.066  12.558   5.265  0.0772 -0.2217 -0.0540
53146W        W96084  32.399  12.928   5.014 -0.1351 -0.2754 -0.0407
53147W        W96085  33.008  12.870   7.483  0.2068 -0.0568 -0.0510
53148W        W96086  34.340  11.880   7.874 -0.3012  0.1649  0.2239
53149W        W96087  34.230  12.360   7.273 -0.0597  0.3991 -0.1367
53150W        W96088  33.637  12.319   5.467 -0.1560  0.0528  0.1983
53151W        W96089  32.935  10.240   6.436  0.0161 -0.2272  0.5423
53152W        W96090  33.964  11.465   6.131  0.2106  0.3473 -0.1444
53153W        W96091  33.318  10.951   5.996  0.3178  0.1109 -0.1226
53154W        W96092   0.471  10.533   5.303  0.0629 -0.1661  0.1293
53155W        W96093  32.103  12.981   4.580 -0.0094 -0.0337 -0.2956
53156W        W96094   0.039  13.288   7.240  0.4901 -0.0100 -0.0410
53157W        W96095   0.332  11.704   6.281  0.0025  0.0268 -0.0132
53158W        W96096  31.150  11.168   4.348 -0.2296  0.1957 -0.1678
53159W        W96097  33.816  12.658   5.905 -0.1575 -0.0159 -0.1594
53160W        W96098  34.270  13.402   7.115 -0.3160  0.2227 -0.0268
53161W        W96099   0.079  14.349   6.409 -0.0916  0.2726  0.1700
53162W        W96100  33.810  11.443   7.297 -0.1722 -0.0168  0.2496
53163W        W96101  34.654  13.589   7.766  0.2456 -0.0115  0.1378
53164W        W96102  33.980  12.201   7.669 -0.2569  0.0097  0.1217
53165W        W96103   0.020  12.251   8.840  0.0274  0.0529 -0.0478
53166W        W96104  33.600  11.704   6.344  0.1671  0.2113 -0.2609
53167W        W96105  33.748  13.461   7.357 -0.0827  0.0727  0.0240
53168W        W96106  33.196  10.966   4.637  0.0070 -0.2714 -0.0522
53169W        W96107  34.184  11.748   7.394  0.1298  0.0649 -0.1374
53170W        W96108  33.244  11.832   5.517 -0.0466 -0.1647  0.0479
53171W        W96109   1.177  13.255   6.926  0.0186  0.0366  0.3231
53172W        W96110  33.831  10.160   7.967  0.2160 -0.4142 -0.0211
53173W        W96111  33.475  11.695   4.214  0.0015  0.0437  0.1118
53174W        W96112  33.555  12.105   5.937 -0.0563 -0.1389  0.2652
53175W        W96113  33.329  12.414   6.884 -0.1057 -0.0385  0.2982
53176W        W96114   0.198  14.862   7.065  0.2949 -0.0955  0.4092
53177W        W96115   1.433  13.860  10.028 -0.0679  0.1051 -0.0106
53178W        W96116   0.105  12.514  11.807 -0.1218  0.4130  0.0634
53179W        W96117  33.941  11.388   9.991  0.2468 -0.4222  0.0321
53180W        W96118   1.091  11.974  11.872 -0.1215  0.0553  0.1439
53181W        W96119  33.710  11.091   9.704 -0.0989  0.3500 -0.3844
53182W        W96120  32.804  12.352  12.164 -0.0194 -0.4707 -0.5206
53183W        W96121  33.863  12.333   9.161  0.0556  0.3718  0.0839
53184W        W96122  34.037  12.853  11.347 -0.0888  0.1243 -0.2429
53185W        W96123   0.255  12.208   9.788  0.0158  0.0120 -0.0679
53186W        W96124   0.779  11.199  12.097 -0.1954 -0.0056 -0.0668
53187W        W96125   0.272  13.187   9.564  0.0188 -0.1515 -0.0615
53188W        W96126  34.233  12.097   8.883  0.1424 -0.0381  0.0669
53189W        W96127  32.784  12.338   9.912  0.1418 -0.0486 -0.0362
53190W        W96128  34.452  13.039  11.560 -0.0611  0.0977  0.2370
53191W        W96129  34.573  14.108  10.891  0.1106  0.0524 -0.1128
53192W        W96130   0.402  12.506  11.377  0.1997 -0.0973  0.0480
53193W        W96131  33.308  13.878   9.976  0.1114 -0.3034  0.0536
53194W        W96132  32.845  13.422   8.674  0.5101 -0.4159 -0.0854
53195W        W96133  34.438  13.498   9.549 -0.1572 -0.3151 -0.1465
53196W        W96134  34.496  12.924   8.299  0.0890  0.0694  0.0908
53197W        W96135  34.528  13.316   9.037 -0.1907  0.0310 -0.2315
53198W        W96136  33.799  12.717  10.638  0.2132 -0.2000 -0.2433
53199W        W96137  31.634  14.316   9.686 -0.2391 -0.0546  0.0514
53200W        W96138  34.215  13.406   7.943  0.0725 -0.1206 -0.0667
53201W        W96139  34.275  12.952   8.814  0.0724  0.1546 -0.1159
53202W        W96140   1.009  11.162  11.659  0.1905 -0.0795  0.3991
53203W        W96141   0.654  15.077   9.719 -0.1254 -0.0374  0.3043
53204W        W96142   0.068  10.389  12.104 -0.2057 -0.0053  0.1385
53205W        W96143  34.270  14.812   9.492 -0.1819 -0.2256  0.0607
53206W        W96144  32.914  12.462   9.041  0.1526  0.1963  0.2334
53207W        W96145  33.963  12.323  10.102  0.0985 -0.1185  0.2523
53208W        W96146  34.365  10.289  11.075 -0.3397  0.2237  0.2820
53209W        W96147  33.590  12.959  11.123 -0.0739 -0.1779  0.4993
53210W        W96148   0.158  12.095   8.005  0.0251 -0.1023  0.0924
53211W        W96149   0.065  12.797   8.805  0.1754 -0.3071 -0.1316
53212W        W96150  33.949  13.198  10.878  0.2003  0.3925 -0.0320
53213W        W96151  33.556  13.972   9.151  0.1640 -0.2236  0.1456
53214W        W96152  33.419  12.137  11.001 -0.0224 -0.0844  0.1743
53215W        W96153  33.248  13.325   8.984 -0.5072  0.3293 -0.1704
53216W        W96154  32.370  12.703  11.236 -0.0800  0.2119 -0.1813
53217W        W96155  33.396  13.050  10.679  0.4486  0.0254  0.0821
53218W        W96156  32.891  13.227   9.536 -0.0920  0.2924 -0.1049
53219W        W96157  33.261  14.299  10.899  0.1219  0.2449  0.0570
53220W        W96158  33.851  10.428  10.212  0.1090 -0.3106 -0.2129
53221W        W96159  32.806  11.440  11.031  0.2080 -0.0366 -0.3770
53222W        W96160  33.552  10.483   9.832 -0.1305  0.0821  0.0848
53223W        W96161   0.476  11.939   8.825 -0.0466 -0.1644  0.1332
53224W        W96162  33.682  12.680   9.643  0.1529  0.1010  0.0397
53225W        W96163  34.198  11.101  11.522  0.3259 -0.3221  0.0708
53226W        W96164  33.998  10.520   9.581 -0.2272 -0.0222  0.0573
53227W        W96165  33.591  13.963  10.557 -0.1163  0.2175  0.0505
53228W        W96166  33.893  14.534  10.520 -0.0305 -0.3771  0.0124
53229W        W96167  33.827  11.582   9.518  0.1406 -0.3138  0.1786
53230W        W96168  34.249  10.790   8.388 -0.1638 -0.0216 -0.1651
53231W        W96169  34.159  14.145   8.891 -0.3720 -0.1021  0.2099
53232W        W96170  32.516  14.152   9.627 -0.2822 -0.1281 -0.1921
53233W        W96171   0.157  13.779  10.507 -0.0051 -0.1312  0.2832
53234W        W96172  33.561  11.864   9.229  0.4139  0.0114  0.3129
53235W        W96173   1.113  13.456  10.116 -0.0490  0.1426  0.0616
53236W        W96174   0.095  12.944  11.094  0.1190  0.3587  0.0819
53237W        W96175  31.855  11.707  11.225 -0.1128 -0.2233 -0.0653
53238W        W96176  33.977  10.627  11.750 -0.1046 -0.0675 -0.1591
53239W        W96177  34.358  12.401   7.997 -0.1437  0.3303 -0.2748
53240W        W96178  32.294  14.859   8.151 -0.2197 -0.0641  0.0413
53241W        W96179  33.811  13.148  10.408  0.2381  0.1497 -0.0075
53242W        W96180  34.292  13.698  11.728  0.1563  0.0755  0.1177
53243W        W96181  33.055  13.417  10.714  0.0564 -0.0782 -0.2419
53244W        W96182  34.648  14.059  10.095  0.0229  0.0622 -0.0288
53245W        W96183  34.683  13.389   8.577 -0.1356  0.1168  0.0658
53246W        W96184   0.637  12.124  11.825  0.2329 -0.1757  0.0889
53247W        W96185   2.276  14.833  10.258 -0.2586  0.0742  0.0155
53248W        W96186   0.297  12.831   7.038  0.1140 -0.0619  0.1387
53249W        W96187  33.260  13.642   9.409  0.0626  0.0287 -0.1640
53250W        W96188  32.062  14.578   8.458 -0.1939  0.1659  0.0935
53251W        W96189  33.166  11.261   8.507 -0.2066  0.4325  0.2679
53252W        W96190  33.445  11.496   9.934 -0.1070 -0.1293 -0.0769
53253W        W96191  32.046  11.232  11.531  0.1396 -0.2081  0.1222
53254W        W96192  33.722  12.375  11.278 -0.1710 -0.3341  0.2751
53255W        W96193  33.153  13.377   9.934  0.2407  0.0785  0.0653
53256W        W96194  32.194  10.714   8.645  0.2858  0.0512  0.2000
53257W        W96195   0.428  11.665   9.899 -0.1004  0.0493 -0.8091
53258W        W96196  31.911  12.092   9.209 -0.0471  0.0986 -0.1845
53259W        W96197  33.062  12.595  10.291  0.0456 -0.2788  0.3150
53260W        W96198  34.032  13.567  10.498  0.1249  0.0176 -0.1491
53261W        W96199   0.003  11.195  11.142 -0.0309  0.0651  0.0629
53262W        W96200  33.660  11.307  10.427 -0.0789 -0.1678 -0.1339
53263W        W96201  34.376  12.084  10.481 -0.0588  0.0735  0.0249
53264W        W96202  33.894  11.834  11.172 -0.1090  0.1516  0.2552
53265W        W96203  33.800  12.101   9.624  0.2279 -0.1236  0.0951
53266W        W96204  33.259  12.620  11.357 -0.0925 -0.0164  0.2038
53267W        W96205  33.358  13.809   8.434  0.0173  0.2244  0.1845
53268W        W96206   1.335  10.075  10.380  0.3192  0.1493 -0.0152
53269W        W96207  34.360  14.911  10.004  0.2317 -0.0904 -0.2074
53270W        W96208  34.267  13.879   9.757  0.0888  0.0330  0.2976
53271W        W96209   0.256  10.859  12.143  0.1314  0.0062 -0.1031
53272W        W96210  33.825  10.090  12.006 -0.2127  0.2563  0.4323
53273W        W96211  33.822  11.042  11.162  0.2156  0.0458  0.0466
53274W        W96212  33.636  11.414  10.920  0.0762 -0.2407 -0.2860
53275W        W96213  33.278  13.350  11.256  0.1570 -0.0415  0.4666
53276W        W96214   0.068  12.539   8.405  0.2970 -0.1467  0.5244
53277W        W96215  34.225  11.851  10.047 -0.1736 -0.0792  0.0464
53278W        W96216   0.377  13.004   8.480  0.0997 -0.0189  0.1031
53279W        W96217  34.261  11.200  10.354 -0.0926  0.0625 -0.1180
53280W        W96218  33.356  11.359   9.405  0.0456 -0.3800 -0.0189
53281W        W96219  34.666  11.167   8.540  0.0190  0.2542 -0.0918
53282W        W96220   0.667  13.386   9.857  0.1887 -0.0824  0.1555
53283W        W96221  33.413  10.800  10.745 -0.2969  0.1577 -0.1059
53284W        W96222  33.365  11.738   8.728  0.0696  0.0663  0.0482
53285W        W96223  34.056  11.255   7.694 -0.1629 -0.0519 -0.0098
53286W        W96224   0.445  13.958  10.084  0.3459  0.3152 -0.0233
53287W        W96225   0.512  10.266   9.381  0.1009 -0.1553 -0.2570
53288W        W96226  34.236  13.601   8.481 -0.4345  0.1209 -0.0224
53289W        W96227   0.118  14.955   9.825 -0.0742  0.0189  0.3162
53290W        W96228  33.337  12.566  10.859 -0.2312 -0.0272  0.0707
53291W        W96229  33.460  14.414  10.038 -0.0652 -0.0183  0.1887
53292W        W96230  33.566  13.482  10.889  0.1163  0.2414  0.2388
53293W        W96231  33.358  12.370   9.963 -0.4720 -0.2999 -0.1359
53294W        W96232   0.444  11.489  11.298  0.0580  0.1271 -0.0871
53295W        W96233  34.287  14.152  12.365  0.1169  0.1198  0.0104
53296W        W96234  33.758  13.804   8.725  0.0046 -0.1457 -0.0483
53297W        W96235  33.714  11.877  10.139 -0.0912 -0.3854 -0.1130
53298W        W96236  33.011  14.317   9.849  0.1447  0.0028  0.1357
53299W        W96237  32.532  14.355   8.328 -0.2083 -0.4208 -0.4644
53300W        W96238  34.184  14.674   8.965  0.0072  0.1042  0.0823
53301W        W96239   0.060  14.744  10.716 -0.2686  0.3275 -0.0980
53302W        W96240  34.359  11.227   8.166  0.0163  0.1350 -0.0043
53303W        W96241  33.398  12.967  10.215 -0.3654  0.1220  0.0581
53304W        W96242   0.148  13.374  10.222 -0.2372 -0.0707  0.2578
53305W        W96243   0.827  12.842   7.352 -0.2004  0.1772 -0.2395
53306W        W96244  34.219  14.267   9.489  0.1617  0.3506  0.1935
53307W        W96245  34.590  13.127   9.860  0.0035 -0.1361  0.2217
53308W        W96246   1.594  14.392   9.897 -0.1830  0.1963  0.0996
53309W        W96247  32.605  11.880   9.869 -0.2045  0.0537 -0.1997
53310W        W96248  31.831  12.093  11.761 -0.1008  0.3285  0.2552
53311W        W96249   0.036  10.736  10.124  0.3261 -0.0968 -0.3378
53312W        W96250  34.242  11.265  10.945 -0.1138 -0.1789  0.0634
53313W        W96251   0.466  11.975   7.555  0.2878  0.1289 -0.4299
53314W        W96252  33.315  12.802  12.294 -0.2341 -0.0874 -0.0236
53315W        W96253  32.686  12.155   9.493 -0.0308  0.0716 -0.0271
53316W        W96254   0.086  11.854  10.191 -0.0861  0.1394  0.0511
53317W        W96255  34.279  10.273  11.901  0.1125  0.0522 -0.2290
53318W        W96256  33.965  14.890   7.876  0.0136 -0.4247  0.0409
53319W        W96257  33.265  11.183  11.197  0.2114 -0.0317  0.1639
53320W        W96258  34.636  11.010   9.665  0.0041 -0.1802 -0.1160
53321W        W96259  33.932  12.218  10.858 -0.2177  0.2079  0.2627
53322W        W96260  33.131  13.842   8.919  0.1353  0.1376 -0.3035
53323W        W96261  34.286  13.893   7.945  0.0116 -0.0451  0.1234
53324W        W96262   1.860  13.943  10.351  0.1862  0.0569 -0.0796
53325W        W96263  33.384  12.354   9.375  0.4760  0.2017  0.4462
53326W        W96264  34.288  12.604   9.207  0.1149 -0.3428  0.1604
53327W        W96265   0.165  13.640   9.242  0.1650  0.1072 -0.3123
53328W        W96266   0.925  11.681  10.134  0.3671  0.2859  0.1661
53329W        W96267  33.963  10.865  10.675  0.0518  0.0597 -0.0451
53330W        W96268  29.945  11.933  12.048 -0.1237  0.0578 -0.1187
53331W        W96269  33.444  11.878   8.142 -0.1975  0.1943 -0.1967
53332W        W96270  34.170  12.541   8.466  0.1277  0.2352 -0.0849
53333W        W96271  33.995  11.655  10.701  0.0473 -0.0444  0.0083
53334W        W96272  33.442  11.751  10.607 -0.0268 -0.2259  0.2164
53335W        W96273  32.780  12.421  11.082  0.2503 -0.1721 -0.0607
53336W        W96274  32.845  12.374  11.663 -0.0547 -0.1208 -0.3703
53337W        W96275  33.601  10.916  10.196 -0.0400  0.0193  0.1761
53338W        W96276  34.659  11.382  10.050 -0.0952  0.1345 -0.1678
53339W        W96277  33.583  13.173   9.754  0.0860  0.1474 -0.0363
53340W        W96278  32.467  11.602   8.727 -0.1721 -0.1060 -0.0695
53341W        W96279  34.587  12.543  11.330  0.1164  0.0561 -0.0452
53342W        W96280  30.922  12.174  11.445 -0.1074  0.0042 -0.3243
53343W        W96281  34.676   9.634  10.249  0.2080  0.0758 -0.1466
53344W        W96282  34.349  11.912  10.969  0.3437  0.2491  0.0064
53345W        W96283   0.352  11.038   8.962  0.1625 -0.4209 -0.0665
53346W        W96284  33.912  13.240  11.904 -0.0151  0.2959 -0.0687
53347W        W96285   2.426  14.115   9.701  0.1585 -0.0439 -0.1779
53348W        W96286  33.516  11.850  11.486  0.0588  0.0065 -0.3363
53349W        W96287  34.295  12.569  11.757  0.0328  0.1340  0.1127
53350W        W96288  32.391  14.298  10.647 -0.2474 -0.1337  0.0037
53351W        W96289  33.140  11.537  11.592  0.2425  0.1509 -0.0163
53352W        W96290  34.297  15.843   9.500  0.0775 -0.3172 -0.3782
53353W        W96291  33.673  16.463   3.488 -0.2240  0.1563 -0.1126
53354W        W96292  33.632  16.660   2.619 -0.0117 -0.0586 -0.0567
53355W        W96293  33.319  14.726   0.785 -0.1417  0.5707 -0.1821
53356W        W96294  33.177  13.345   4.080 -0.1234  0.0791 -0.3209
53357W        W96295  32.933  14.503   2.735  0.1593 -0.2918 -0.0337
53358W        W96296  34.553  17.568   3.477  0.0755 -0.0336  0.1929
53359W        W96297   0.917  13.901   0.814 -0.3577  0.0204  0.0284
53360W        W96298  31.520  13.309   4.131  0.1773 -0.3376  0.0151
53361W        W96299  32.940  17.269   1.152  0.0284 -0.2963  0.1622
53362W        W96300  33.199  15.005   2.486  0.0186 -0.2880 -0.2223
53363W        W96301  34.300  15.264   1.326  0.2660 -0.1154 -0.2524
53364W        W96302  34.471  15.830   3.495 -0.4190 -0.0345 -0.4516
53365W        W96303   0.569  17.071   1.838  0.2506 -0.0692 -0.1901
53366W        W96304  32.371  16.421   0.854 -0.1735  0.4413  0.2770
53367W        W96305  31.703  14.990   2.546 -0.1448  0.2226 -0.0854
53368W        W96306  34.249  16.160   3.064  0.2484  0.0263 -0.0947
53369W        W96307  34.449  19.031   1.512  0.3009  0.1399  0.0072
53370W        W96308   0.300  18.275   2.699  0.0262  0.0783 -0.2298
53371W        W96309  33.831  16.424   2.992  0.0435 -0.1219 -0.0114
53372W        W96310  32.738  19.091   2.228  0.0037  0.4318  0.1693
53373W        W96311   0.057  18.020   1.269  0.0556  0.0841 -0.2720
53374W        W96312  33.937  17.206   2.428  0.2375  0.1234 -0.5644
53375W        W96313  33.120  17.687  30.938 -0.1116 -0.1619  0.0167
53376W        W96314  32.789  17.268   2.580  0.0024 -0.0605  0.0324
53377W        W96315  33.449  17.641   0.993 -0.3598 -0.1037  0.2101
53378W        W96316  34.554  17.237   2.013  0.2240 -0.0751 -0.1638
53379W        W96317  34.044  15.462   4.057 -0.2901  0.3036 -0.1313
53380W        W96318  33.169  18.921   1.093  0.0031  0.2662 -0.1048
53381W        W96319  33.403  18.646   1.450 -0.0380  0.0282  0.2149
53382W        W96320  33.564  15.360  31.427  0.2616  0.1758  0.0504
53383W        W96321   1.484  15.370   2.803  0.1131 -0.1204 -0.2325
53384W        W96322  34.044  18.476   2.351  0.4381 -0.2848  0.2015
53385W        W96323  33.408  15.245   2.939 -0.0306  0.1627  0.1440
53386W        W96324  33.583  17.618   3.597  0.1354 -0.1612 -0.0312
53387W        W96325  33.561  15.555   1.168 -0.0363  0.0456 -0.2677
53388W        W96326  32.853  16.395   1.479  0.0236  0.1832 -0.0142
53389W        W96327  31.822  17.032   2.860 -0.2492  0.3209  0.1608
53390W        W96328  33.343  15.734   2.398 -0.0933  0.1095  0.2990
53391W        W96329  34.579  13.802  31.918  0.0747 -0.1154 -0.0289
53392W        W96330  33.257  18.818   2.827  0.0540  0.3688 -0.2756
53393W        W96331  34.208  16.824   2.083  0.0665 -0.3742 -0.0601
53394W        W96332  34.028  16.861   1.199 -0.3109  0.2153  0.1081
53395W        W96333   0.365  16.565   1.916 -0.2080  0.1818 -0.1520
53396W        W96334  33.250  17.960   2.288 -0.1273 -0.0942  0.2837
53397W        W96335  32.892  15.983   3.851 -0.0433  0.0027  0.1686
53398W        W96336  34.050  15.159   3.053 -0.0240 -0.0089  0.0469
53399W        W96337   0.144  17.503   0.648  0.0266  0.1222 -0.1704
53400W        W96338  33.115  17.762   1.838  0.2198  0.1476 -0.3143
53401W        W96339  33.188  19.003  31.474 -0.1378  0.1263  0.2410
53402W        W96340  33.617  13.694   2.065  0.4181  0.2726 -0.2652
53403W        W96341  33.088  16.738   2.416  0.1294 -0.4644 -0.1007
53404W        W96342  31.860  14.663   3.092 -0.2270  0.1778  0.2778
53405W        W96343  34.165  16.641   0.585  0.0625  0.2177 -0.0722
53406W        W96344  32.447  15.388   3.552  0.0494  0.0148  0.0753
53407W        W96345  33.295  14.021   1.171 -0.0583  0.1647 -0.1075
53408W        W96346  33.390  14.273   3.090  0.2977  0.3871 -0.1659
53409W        W96347  33.357  13.285   1.894 -0.2763  0.0984 -0.4073
53410W        W96348  34.174  13.830   0.217  0.0904  0.3513  0.0694
53411W        W96349  34.459  16.246   0.762  0.0355  0.1411  0.0963
53412W        W96350  32.579  17.656   0.405  0.0822 -0.0684  0.2180
53413W        W96351  32.966  15.492   2.650  0.1607 -0.2392  0.0285
53414W        W96352  32.179  13.827   0.888 -0.0398 -0.2683  0.1777
53415W        W96353  33.917  18.313   1.479 -0.3661 -0.1870  0.0321
53416W        W96354  33.760  17.159   1.952  0.2565  0.2312 -0.0159
53417W        W96355  33.683  13.990   0.243  0.0582  0.0444  0.0852
53418W        W96356  33.375  15.921   3.685 -0.1400 -0.2202  0.0734
53419W        W96357   0.260  15.745   0.232 -0.0675  0.2848  0.1264
53420W        W96358  34.308  17.539   0.428  0.4002  0.1102  0.1955
53421W        W96359   0.018  17.108   2.806  0.0704  0.1410  0.3012
53422W        W96360  32.879  17.898   2.718 -0.0614  0.0584  0.0742
53423W        W96361  32.746  16.685   4.796 -0.1448  0.3348 -0.0520
53424W        W96362  33.117  17.537   0.082  0.1855 -0.1287 -0.0116
53425W        W96363  33.649  17.224   3.879  0.0691  0.1578 -0.2637
53426W        W96364  32.581  18.264   2.877 -0.1474 -0.1094 -0.1465
53427W        W96365   0.968  17.136   4.194 -0.0830  0.2039 -0.0340
53428W        W96366   0.810  17.174   3.666 -0.2135 -0.2386  0.2417
53429W        W96367  33.152  16.110   1.923  0.1929 -0.0395 -0.1126
53430W        W96368  34.081  14.391   2.912  0.2255  0.2414 -0.0770
53431W        W96369  32.105  16.029   0.700  0.2958  0.0689  0.0922
53432W        W96370  32.882  18.368  31.721  0.3788 -0.1967  0.5039
53433W        W96371  33.991  14.614   3.301 -0.1254 -0.1966 -0.1386
53434W        W96372  33.054  16.931   1.518 -0.1084 -0.1388 -0.2172
53435W        W96373  34.155  15.072   4.331 -0.0185  0.0256  0.0731
53436W        W96374  33.863  15.352   2.154  0.3868  0.1910  0.1319
53437W        W96375  32.456  18.422   3.319  0.0736  0.2865  0.1359
53438W        W96376  34.557  15.355   2.869  0.1413 -0.0393 -0.1666
53439W        W96377  33.801  18.065   0.964 -0.4392 -0.1702 -0.0565
53440W        W96378  33.410  16.825  31.934 -0.5163  0.2387 -0.1917
53441W        W96379   0.442  15.173   1.690 -0.2780  0.1214 -0.2372
53442W        W96380  34.449  17.374   2.496 -0.1575  0.0777  0.0191
53443W        W96381  33.671  18.682   0.986  0.1214  0.0403 -0.2222
53444W        W96382  34.194  18.663   1.852  0.1447 -0.0743 -0.0511
53445W        W96383  32.417  17.238   1.315 -0.3547 -0.3442 -0.1577
53446W        W96384   0.727  15.563   0.196 -0.1897  0.2093  0.0017
53447W        W96385  33.009  16.189   1.064 -0.1077 -0.2593  0.0450
53448W        W96386  33.818  13.496   3.406 -0.1847 -0.0673  0.5633
53449W        W96387  32.223  15.045   2.656 -0.0601  0.2075 -0.1082
53450W        W96388  32.760  17.520   3.127 -0.2457 -0.2540  0.0364
53451W        W96389  34.593  16.213   3.770 -0.1688 -0.1263 -0.1815
53452W        W96390  32.689  16.191   0.355 -0.2520 -0.0994 -0.1124
53453W        W96391  33.924  16.544   1.582 -0.3176 -0.0051 -0.1250
53454W        W96392  32.437  18.527   1.095  0.0937 -0.1889  0.0190
53455W        W96393  33.442  17.165   1.036 -0.1847 -0.0173  0.1318
53456W        W96394  32.839  17.737   1.435  0.0780 -0.2569 -0.3829
53457W        W96395  33.180  14.819   3.882 -0.0014 -0.2827  0.3419
53458W        W96396  34.667  16.195   1.204 -0.0108  0.0171 -0.0467
53459W        W96397  33.451  14.387   1.722 -0.2542 -0.0231  0.1280
53460W        W96398  34.070  16.372   2.051 -0.1619 -0.0250 -0.0810
53461W        W96399   0.527  16.048   2.926 -0.1010  0.3396  0.3719
53462W        W96400  33.101  17.978   4.047 -0.0290 -0.0039 -0.0165
53463W        W96401   0.363  16.950   0.529 -0.0843 -0.0619 -0.0325
53464W        W96402  32.485  14.549   2.422 -0.1057  0.1000 -0.0380
53465W        W96403  34.151  17.894   1.416  0.1648 -0.2032  0.1243
53466W        W96404  33.223  15.135   3.378  0.0811  0.2183  0.0377
53467W        W96405  33.628  17.897   1.406 -0.0177  0.0577  0.0875
53468W        W96406  34.275  19.389   0.296 -0.1535 -0.0073  0.0476
53469W        W96407  33.409  17.394   1.558  0.2419  0.2552 -0.0841
53470W        W96408  33.486  15.175   1.949 -0.0083  0.0069 -0.0054
53471W        W96409  33.408  14.530   2.619 -0.2113 -0.2986  0.0103
53472W        W96410  31.793  14.366   3.513  0.0414 -0.3897  0.0272
53473W        W96411  32.533  16.285   3.219  0.1528 -0.0872 -0.2635
53474W        W96412   0.434  13.601   0.861  0.1104 -0.1209 -0.1281
53475W        W96413  33.989  15.842   2.153 -0.2016  0.4817 -0.0594
53476W        W96414  34.253  18.052   0.601 -0.0775  0.1577 -0.0906
53477W        W96415  33.497  17.101   2.954 -0.0464  0.2859  0.1943
53478W        W96416  34.448  15.758   1.422 -0.2299 -0.0580 -0.1558
53479W        W96417  33.861  15.256   1.542  0.3285 -0.0615  0.2727
53480W        W96418  34.368  13.663   2.581 -0.3077  0.0227  0.2746
53481W        W96419  34.406  17.121   3.278 -0.1563 -0.1580 -0.2056
53482W        W96420  33.375  13.640   4.873 -0.2593  0.0439 -0.1044
53483W        W96421  32.315  15.738   2.030 -0.3398 -0.3908 -0.0039
53484W        W96422  34.507  13.377   0.294  0.2484  0.1103 -0.2513
53485W        W96423   1.176  18.312  31.276  0.1918 -0.1528  0.0605
53486W        W96424  33.249  15.933   1.433 -0.3643  0.0352 -0.0611
53487W        W96425   0.343  17.861   4.200  0.1921 -0.3057  0.0321
53488W        W96426  34.250  15.210   0.177  0.0292  0.1813 -0.4367
53489W        W96427   0.243  16.527   0.797  0.1701  0.1499  0.0773
53490W        W96428   0.705  16.732   2.459 -0.1241  0.1678 -0.3943
53491W        W96429   1.099  13.898  31.930 -0.0412 -0.1207 -0.1556
53492W        W96430  32.794  17.571  31.409  0.0735 -0.1378  0.1933
53493W        W96431  32.679  18.653   1.829 -0.1652 -0.0729 -0.0649
53494W        W96432  32.397  17.538   2.439 -0.2299  0.0834 -0.1487
53495W        W96433  34.069  17.690   2.215 -0.2649 -0.2293 -0.3478
53496W        W96434   0.023  15.860   2.948  0.0828 -0.2190  0.0131
53497W        W96435  33.683  15.081   2.524  0.0204  0.3617 -0.2603
53498W        W96436  33.089  16.980   1.992  0.0174 -0.0708 -0.2637
53499W        W96437  31.814  16.230   3.909 -0.2365 -0.4175 -0.0333
53500W        W96438  34.090  14.370   0.401  0.1543 -0.0143 -0.1974
53501W        W96439  33.257  17.903   3.215  0.0556 -0.1932  0.0625
53502W        W96440  33.039  16.468   2.878 -0.1275 -0.1002 -0.0990
53503W        W96441  33.879  17.596   0.657  0.3089 -0.1525 -0.0530
53504W        W96442  34.193  16.348   0.196 -0.1546  0.0110 -0.0704
53505W        W96443   0.022  18.696   1.842 -0.0456  0.0178  0.0082
53506W        W96444   0.497  18.511   0.056 -0.4472 -0.1310  0.0388
53507W        W96445  33.469  17.042   2.337 -0.1275 -0.0986 -0.0917
53508W        W96446  33.868  16.022   2.633  0.2305 -0.0588  0.2060
53509W        W96447  34.176  13.847  31.441  0.2045 -0.1063 -0.0738
53510W        W96448  33.344  15.330   4.220 -0.0483  0.3487  0.1713
53511W        W96449  33.429  17.993   2.752  0.1439 -0.0333 -0.2476
53512W        W96450  32.681  14.892   1.451  0.1321 -0.0452  0.2042
53513W        W96451  32.990  14.957   1.907 -0.0466 -0.0105  0.1461
53514W        W96452  33.686  16.572   1.028  0.0813 -0.0429 -0.1176
53515W        W96453  33.442  18.263   1.936  0.1085 -0.0429  0.3743
53516W        W96454  34.472  17.887   3.020  0.3491  0.0486  0.1712
53517W        W96455  33.380  18.399   2.434  0.0506 -0.2795  0.2705
53518W        W96456  34.015  14.904   0.477 -0.1156  0.0297  0.1566
53519W        W96457  32.807  15.944   2.884  0.1899 -0.2203 -0.1360
53520W        W96458  34.093  17.167   0.800 -0.3089  0.1579  0.1474
53521W        W96459  33.582  16.205   2.261  0.2293 -0.2323  0.0836
53522W        W96460  33.128  15.914   0.653 -0.3205  0.2664 -0.2648
53523W        W96461  33.245  15.425   1.558  0.1747  0.3155 -0.1998
53524W        W96462  33.800  14.064   1.705 -0.0615 -0.1347 -0.3611
53525W        W96463  34.211  15.506   1.805  0.0987 -0.2891  0.3479
53526W        W96464  33.907  14.907   1.165  0.0686  0.0546 -0.2774
53527W        W96465   0.745  18.017   2.073 -0.0224  0.0678  0.0284
53528W        W96466  33.058  14.867   3.018  0.0011  0.2977 -0.0871
53529W        W96467   1.057  15.974   1.822  0.1110  0.1704  0.1779
53530W        W96468  33.595  14.472   1.167 -0.0902 -0.0224  0.2769
53531W        W96469  32.852  18.574   0.877  0.0628  0.3198 -0.0237
53532W        W96470  33.889  17.400   1.191  0.0775  0.0540 -0.1103
53533W        W96471  34.137  16.022   4.031  0.0420  0.2438 -0.0381
53534W        W96472  34.132  17.158   3.720  0.1378 -0.2521  0.0219
53535W        W96473  34.513  17.755   1.998  0.1232 -0.1930 -0.2106
53536W        W96474  33.785  16.766   3.909  0.2765 -0.2702  0.1826
53537W        W96475  33.914  17.557   1.693  0.0335  0.0510  0.1082
53538W        W96476   1.126  17.485   1.619  0.2792  0.0395  0.0495
53539W        W96477  34.381  16.252   1.621 -0.5070 -0.2735 -0.3576
53540W        W96478  32.045  14.749   2.272  0.1656  0.0414  0.2046
53541W        W96479  33.194  17.040   4.070  0.1039 -0.4137 -0.0772
53542W        W96480  32.392  16.504  31.470 -0.4039  0.0892 -0.1410
53543W        W96481  34.143  17.091   0.282  0.1715  0.0385 -0.2080
53544W        W96482  34.476  17.120   1.255  0.1704  0.0414  0.5041
53545W        W96483  33.528  14.722   3.451  0.2752 -0.1046 -0.2047
53546W        W96484  32.197  15.055   3.133 -0.0273  0.0320 -0.3771
53547W        W96485  33.534  17.576   2.478  0.0552  0.2291 -0.4722
53548W        W96486  33.765  15.414   0.290  0.1859  0.0365  0.0182
53549W        W96487  33.158  14.310   3.519 -0.0249  0.3042 -0.0575
53550W        W96488  32.724  14.934   3.373  0.0384  0.1908  0.1198
53551W        W96489  33.795  14.746   1.652  0.0607  0.2260 -0.1614
53552W        W96490  33.664  17.421   0.074  0.1809  0.1288 -0.0804
53553W        W96491   1.479  15.387   3.762 -0.3030 -0.1392 -0.4611
53554W        W96492  32.529  13.878   3.276 -0.0128 -0.1127  0.1022
53555W        W96493  32.830  15.230  31.949 -0.2322 -0.0151  0.0863
53556W        W96494  33.460  14.745   2.164 -0.2537 -0.0638 -0.0330
53557W        W96495  34.091  17.613   3.231  0.0857 -0.0846 -0.0754
53558W        W96496  34.215  18.125   3.835 -0.0021  0.0931 -0.1274
53559W        W96497  32.418  14.152   2.825 -0.2744 -0.3482  0.1178
53560W        W96498  34.306  16.662   3.806  0.4104  0.3047 -0.3058
53561W        W96499  32.120  13.348   4.970  0.1006  0.1118  0.1365
53562W        W96500  33.095  16.265   4.277  0.0074  0.1594 -0.2620
53563W        W96501  32.993  14.521   2.244  0.0087 -0.1403  0.1164
53564W        W96502  32.648  13.636   2.798 -0.0754  0.3327 -0.3913
53565W        W96503   0.458  14.255   1.415 -0.1723  0.1229 -0.1395
53566W        W96504   0.274  15.812   3.335  0.2621 -0.0455  0.0251
53567W        W96505  32.654  16.184  31.845 -0.0465 -0.0977 -0.0597
53568W        W96506   1.204  17.718   3.238 -0.2532  0.0096  0.1861
53569W        W96507  34.640  13.976   3.609 -0.2925 -0.0284 -0.1972
53570W        W96508  33.896  15.790   1.474  0.1029  0.0047 -0.0967
53571W        W96509  33.457  16.611   1.944  0.0124  0.1885 -0.4036
53572W        W96510  34.594  16.552   2.855 -0.1609  0.0704 -0.0059
53573W        W96511  34.269  18.288   2.729 -0.3039  0.1774  0.2248
53574W        W96512  34.495  16.108   7.075 -0.3179 -0.1408  0.0517
53575W        W96513  33.971  14.951   6.240 -0.1372  0.3160 -0.2067
53576W        W96514  32.999  15.005   5.238  0.1948  0.1066 -0.1432
53577W        W96515  33.569  14.253   6.836  0.3327 -0.0152 -0.1941
53578W        W96516  33.908  17.259   6.357  0.1279 -0.1158 -0.4930
53579W        W96517   0.091  17.093   6.001 -0.0187 -0.2996 -0.0401
53580W        W96518  33.735  14.749   5.171  0.1838 -0.1139  0.1326
53581W        W96519  33.809  13.629   6.547 -0.1742 -0.0598 -0.0405
53582W        W96520  32.432  16.905   3.779 -0.0987  0.2711  0.0210
53583W        W96521  33.443  15.367   5.869 -0.0173  0.1208 -0.0243
53584W        W96522  33.820  15.855   4.580  0.0779 -0.0112 -0.0448
53585W        W96523  34.625  13.798   7.331  0.2380  0.1664 -0.0795
53586W        W96524  34.666  16.823   4.919  0.0595 -0.0644 -0.1000
53587W        W96525  33.212  15.929   4.663 -0.2318  0.0139  0.1185
53588W        W96526  32.633  15.388   5.289 -0.0950  0.1952  0.0756
53589W        W96527  32.488  17.361   6.175 -0.6217 -0.4918  0.0675
53590W        W96528  33.055  17.752   4.883  0.1251 -0.0162  0.0203
53591W        W96529  33.921  17.034   4.877 -0.1934  0.0025 -0.2226
53592W        W96530  32.079  17.182   4.406  0.0566 -0.4555 -0.2954
53593W        W96531  33.722  19.108   5.397 -0.0207  0.0616 -0.2113
53594W        W96532   0.886  17.433   4.992  0.1145 -0.2349  0.0600
53595W        W96533  34.483  18.676   6.494 -0.2971 -0.0921  0.0913
53596W        W96534  33.352  17.737   4.425  0.2731 -0.2180  0.0966
53597W        W96535   0.619  18.178   7.274 -0.0574 -0.0873 -0.1103
53598W        W96536  34.028  17.072   4.200 -0.0395 -0.1384  0.0685
53599W        W96537  33.745  16.565   4.870 -0.0951 -0.0361 -0.0039
53600W        W96538  34.049  16.369   6.568 -0.0686  0.0753  0.1756
53601W        W96539  33.534  17.538   5.523 -0.2545 -0.2485  0.0782
53602W        W96540  32.992  16.953   2.934  0.0048 -0.1774  0.1098
53603W        W96541  33.147  16.239   3.326  0.3825 -0.1063  0.1114
53604W        W96542  34.080  13.475   6.141 -0.1488  0.0437 -0.2859
53605W        W96543  34.356  16.998   5.735  0.1701 -0.0977  0.0029
53606W        W96544  33.962  14.589   6.631  0.2608  0.2648 -0.2925
53607W        W96545  34.157  18.331   6.606 -0.0637  0.1351 -0.0326
53608W        W96546  33.585  16.257   6.770 -0.0125  0.0794 -0.1028
53609W        W96547  33.420  16.975   4.890 -0.0593  0.0861 -0.0815
53610W        W96548   0.219  16.046   6.634 -0.1161 -0.0176  0.1686
53611W        W96549  33.989  15.339   6.909  0.0521  0.1512  0.2513
53612W        W96550  33.108  15.685   3.230  0.1495  0.2344 -0.1864
53613W        W96551  33.368  16.542   5.951  0.1065  0.3458  0.0744
53614W        W96552  33.450  17.430   6.729 -0.0167 -0.0903  0.1186
53615W        W96553   0.297  16.593   5.901  0.0699  0.1938  0.0304
53616W        W96554  33.876  16.058   5.048 -0.4868 -0.0555  0.0521
53617W        W96555  32.255  17.459   5.238 -0.3289  0.2795 -0.2298
53618W        W96556  34.370  15.893   6.496 -0.1088 -0.3549 -0.5087
53619W        W96557  34.138  17.054   7.179  0.1802 -0.1112  0.0625
53620W        W96558  33.136  19.035   4.386 -0.2461 -0.3649  0.0177
53621W        W96559  31.737  16.065   5.975 -0.1833 -0.1856  0.0472
53622W        W96560  31.910  16.263   4.943  0.0903 -0.2341  0.0928
53623W        W96561  33.055  14.833   7.719  0.1425  0.2978 -0.1557
53624W        W96562  34.498  16.368   6.669  0.0740 -0.1314 -0.3013
53625W        W96563  34.040  14.131   8.342  0.0115  0.2534 -0.1634
53626W        W96564  33.201  16.294   5.578  0.0024  0.1404 -0.0625
53627W        W96565  34.501  14.756   6.730 -0.0778  0.0322  0.1267
53628W        W96566  33.577  15.308   6.315 -0.1333  0.1500  0.0047
53629W        W96567  34.034  15.700   7.273 -0.2044  0.1206  0.2530
53630W        W96568  33.481  14.871   6.035 -0.3440  0.0714 -0.3079
53631W        W96569  32.350  13.567   3.675 -0.1036  0.4521 -0.0852
53632W        W96570  31.839  15.608   5.178  0.1829 -0.0779 -0.1989
53633W        W96571  31.965  17.819   3.906  0.0135  0.2363  0.0949
53634W        W96572  33.135  14.561   7.319  0.2006 -0.4021 -0.1947
53635W        W96573  32.794  15.072   4.704  0.1869  0.1758 -0.2142
53636W        W96574  33.679  16.794   4.443 -0.1935 -0.0954 -0.1425
53637W        W96575  34.540  16.925   6.433  0.2499  0.0288  0.1578
53638W        W96576  33.492  15.752   5.015  0.2000 -0.0709 -0.3330
53639W        W96577  32.256  17.221   5.746 -0.0044  0.2168 -0.1847
53640W        W96578  32.749  14.182   4.375 -0.0661 -0.0133 -0.0043
53641W        W96579  34.444  18.173   4.487 -0.0943  0.1099 -0.1389
53642W        W96580  32.157  16.410   5.937  0.1064 -0.1841  0.0443
53643W        W96581  34.337  15.197   6.562  0.1591  0.0601  0.1380
53644W        W96582  33.871  15.903   7.741  0.0374  0.2698  0.2046
53645W        W96583  33.852  13.396   4.714  0.0727 -0.0546 -0.0039
53646W        W96584  33.697  17.126   7.449 -0.0560  0.1044 -0.3189
53647W        W96585  34.142  16.331   7.944 -0.0643 -0.3002 -0.1086
53648W        W96586  34.451  15.112   3.827  0.0475 -0.2589 -0.0388
53649W        W96587   0.268  17.308   6.958 -0.3583  0.2270  0.1127
53650W        W96588  32.360  15.822   5.021 -0.2062 -0.3622 -0.3140
53651W        W96589   0.173  14.378   6.894  0.1763 -0.2958 -0.3496
53652W        W96590  34.590  15.699   4.080 -0.1363  0.0091  0.2346
53653W        W96591  33.281  18.172   3.646 -0.0447 -0.0635  0.0311
53654W        W96592  34.545  13.919   6.334  0.1077  0.0715  0.0809
53655W        W96593  33.302  15.316   4.709  0.0300  0.0136  0.0771
53656W        W96594  34.572  15.633   7.356 -0.0379 -0.1281  0.0446
53657W        W96595  34.473  15.582   6.844 -0.0566  0.0165 -0.1865
53658W        W96596  33.690  18.317   6.740 -0.0042  0.1618  0.1260
53659W        W96597  34.631  15.431   7.889 -0.2599 -0.1497  0.2160
53660W        W96598  33.999  17.980   4.572  0.0188 -0.0591 -0.2479
53661W        W96599  32.576  15.588   4.021  0.2504 -0.0920  0.2180
53662W        W96600  33.378  14.630   6.525 -0.0232  0.0504 -0.0277
53663W        W96601   0.641  16.285   6.075  0.0337 -0.2374 -0.1133
53664W        W96602  33.741  17.815   4.054 -0.4082 -0.2278  0.1514
53665W        W96603  34.554  18.321   5.013 -0.0937 -0.0931 -0.2139
53666W        W96604  33.001  17.738   5.930 -0.1243 -0.1071  0.0262
53667W        W96605  33.433  14.929   5.527 -0.0377  0.0645 -0.0762
53668W        W96606  32.614  15.136   6.085  0.0318  0.2979  0.1473
53669W        W96607  32.659  14.237   6.189 -0.0147 -0.1902 -0.3107
53670W        W96608  33.565  13.558   5.928  0.4624  0.5009 -0.3125
53671W        W96609  31.845  17.436   5.536  0.2091  0.2467 -0.2761
53672W        W96610   0.301  15.486   7.103  0.2357  0.1272  0.6039
53673W        W96611  33.050  15.977   5.163 -0.1544 -0.1041  0.0812
53674W        W96612  32.624  15.998   5.438  0.1085  0.2433 -0.0100
53675W        W96613  32.565  17.100   4.563 -0.4197 -0.0693  0.2192
53676W        W96614  33.974  15.892   5.579 -0.2720  0.2893  0.3482
53677W        W96615  32.397  17.058   5.007  0.0235 -0.1058  0.0477
53678W        W96616  33.613  15.201   8.890 -0.1007 -0.1806 -0.0181
53679W        W96617   0.178  15.656   5.861  0.0035 -0.0417 -0.2186
53680W        W96618  33.013  13.740   6.765  0.2079 -0.1034  0.0535
53681W        W96619  34.259  15.979   6.006 -0.2903  0.1851  0.2213
53682W        W96620  34.115  14.867   7.006  0.0372 -0.2230  0.2204
53683W        W96621   0.217  15.798   7.780  0.0019 -0.1671  0.0893
53684W        W96622  34.664  15.218   4.887  0.2433  0.0049 -0.2818
53685W        W96623  32.534  15.554   5.784 -0.2807  0.0794 -0.0313
53686W        W96624  33.611  17.920   4.890 -0.0097  0.0565 -0.1861
53687W        W96625   1.175  16.337   6.701  0.1870  0.1084 -0.2267
53688W        W96626  34.046  16.707   7.618 -0.2586  0.0765 -0.2111
53689W        W96627  32.803  16.684   4.114  0.1269 -0.2338 -0.1256
53690W        W96628  33.699  16.614   6.379  0.2569 -0.1180  0.2755
53691W        W96629  34.382  15.367   6.069 -0.0415 -0.1632 -0.2585
53692W        W96630  33.520  13.946   6.289 -0.2187 -0.2812 -0.0316
53693W        W96631  33.649  16.388   7.814  0.0871  0.4499 -0.1534
53694W        W96632  34.120  16.233   7.449  0.0892 -0.1090 -0.0768
53695W        W96633  33.957  13.692   4.210  0.1105  0.0541  0.0405
53696W        W96634  33.985  16.104   6.981  0.0857 -0.2006  0.4321
53697W        W96635  34.503  16.298   4.311 -0.2437 -0.0424 -0.2365
53698W        W96636  32.317  16.726   5.578 -0.1015 -0.0023 -0.0495
53699W        W96637  34.029  16.481   4.233 -0.1041 -0.1603 -0.0912
53700W        W96638  32.723  16.452   5.757  0.4424 -0.0280 -0.3747
53701W        W96639  33.925  14.319   7.845  0.0648  0.2663  0.0790
53702W        W96640  33.922  15.189   7.395 -0.2347  0.2575 -0.1622
53703W        W96641  31.896  15.687   7.743 -0.2888 -0.0050 -0.1383
53704W        W96642  32.816  14.996   6.564  0.1278  0.1714  0.0970
53705W        W96643  33.299  14.392   4.518 -0.0689  0.1415 -0.0455
53706W        W96644  34.239  17.615   4.260  0.0243 -0.1248 -0.0226
53707W        W96645  33.852  15.111   5.784 -0.2212  0.3231  0.2128
53708W        W96646  33.207  17.713   7.679  0.1668 -0.1437 -0.2926
53709W        W96647  32.266  14.815   3.517  0.0936  0.3696 -0.0585
53710W        W96648  34.694  15.228   4.344 -0.1813 -0.1959  0.0751
53711W        W96649   1.018  17.114   6.006 -0.0010 -0.0640  0.1627
53712W        W96650  34.551  14.369   4.990 -0.0976  0.1568 -0.2939
53713W        W96651  32.270  17.483   4.738  0.2272  0.1698  0.2285
53714W        W96652   0.519  18.049   6.318  0.6045  0.0558  0.2089
53715W        W96653  33.607  16.151   7.296  0.1642 -0.0034 -0.2120
53716W        W96654  33.194  17.896   5.444  0.0395  0.1916 -0.1654
53717W        W96655  34.299  14.770   5.894 -0.0766  0.0477 -0.2029
53718W        W96656  32.937  15.242   5.671 -0.1622  0.2509 -0.1404
53719W        W96657  33.941  18.097   6.140 -0.0467  0.0265 -0.2778
53720W        W96658  34.357  15.040   7.644 -0.0357  0.0781  0.1799
53721W        W96659  33.200  15.460   5.297 -0.1027 -0.2868  0.4022
53722W        W96660  33.125  16.607   7.911  0.1660 -0.2132 -0.0104
53723W        W96661  33.294  15.752   6.229  0.0025 -0.2105 -0.2162
53724W        W96662  33.497  18.214   4.424  0.0087 -0.0855  0.0858
53725W        W96663  33.689  14.984   3.985 -0.5900  0.1194 -0.1021
53726W        W96664  34.197  17.902   6.875  0.0585  0.0711  0.2375
53727W        W96665  32.701  17.215   4.032 -0.0256 -0.0471 -0.2134
53728W        W96666  34.008  17.813   5.499  0.0336 -0.1249 -0.0363
53729W        W96667  33.990  15.461   5.443 -0.1920  0.0490 -0.1904
53730W        W96668  33.303  14.892   4.412 -0.0902 -0.2282 -0.0016
53731W        W96669  33.312  15.931   7.823 -0.0297 -0.0649  0.0111
53732W        W96670  32.581  17.928   6.241  0.2482  0.0981  0.0094
53733W        W96671  31.584  15.921   4.233 -0.0743  0.0880 -0.0628
53734W        W96672  33.521  15.778   6.729  0.1941 -0.1107 -0.0859
53735W        W96673  33.913  17.498   4.587 -0.0358 -0.0495  0.0396
53736W        W96674  34.364  17.811   5.876 -0.0203 -0.1083  0.0094
53737W        W96675  33.934  17.786   7.373  0.1343  0.0817 -0.0674
53738W        W96676  33.305  17.084   7.149  0.1310  0.2575 -0.0510
53739W        W96677  33.636  15.264   5.095  0.1372 -0.1716 -0.4406
53740W        W96678  33.743  14.393   6.239 -0.0098  0.1774  0.0228
53741W        W96679  33.277  16.436   5.015  0.2356 -0.0073  0.1865
53742W        W96680  33.091  16.063   6.599  0.0838 -0.1315  0.0813
53743W        W96681  34.002  17.557   5.089 -0.1474 -0.1837 -0.0206
53744W        W96682  34.167  14.673   5.372 -0.2393 -0.0477 -0.2131
53745W        W96683  33.474  17.556   6.035 -0.2036 -0.0580  0.1674
53746W        W96684   1.657  15.012   6.572 -0.0842  0.0288  0.0462
53747W        W96685  32.675  13.859   5.344 -0.1598 -0.0794 -0.0835
53748W        W96686  34.067  18.164   5.054 -0.1824 -0.2528  0.1445
53749W        W96687  32.721  15.736   6.402  0.1766 -0.0271  0.2776
53750W        W96688  32.968  13.526   5.093 -0.0709  0.1095  0.2747
53751W        W96689  33.534  15.941   5.772  0.2529 -0.0131  0.0099
53752W        W96690  33.265  18.610   4.710 -0.0115  0.0616 -0.1680
53753W        W96691  33.517  17.285   4.357  0.0458  0.2275  0.1321
53754W        W96692   0.256  17.753   7.239 -0.2077  0.0015 -0.0304
53755W        W96693   1.127  18.109   7.423  0.2494  0.4392  0.1345
53756W        W96694  34.293  15.540   4.489  0.3142 -0.1299  0.3018
53757W        W96695   0.674  15.949   9.325 -0.0668  0.1906 -0.2783
53758W        W96696  33.804  16.842   5.921  0.2355  0.0587  0.3592
53759W        W96697  34.194  18.280   5.732  0.0278  0.2752 -0.1982
53760W        W96698  33.419  16.763   5.391 -0.0221 -0.0569 -0.3128
53761W        W96699  33.927  15.586   5.961  0.1195  0.2967  0.0483
53762W        W96700  33.035  17.432   6.344  0.1844  0.0581  0.0511
53763W        W96701  32.668  15.801   3.420  0.2857 -0.0981  0.0581
53764W        W96702  33.116  17.491   4.030  0.3454  0.1125  0.0091
53765W        W96703  33.073  17.389   5.461  0.2089 -0.1726  0.1264
53766W        W96704   0.384  14.260   7.305  0.1319 -0.1240  0.0677
53767W        W96705  33.187  16.067   7.066  0.0580 -0.0200  0.2297
53768W        W96706  32.278  16.553   5.117  0.0962 -0.1537 -0.0153
53769W        W96707  32.300  15.463   6.475 -0.1086  0.1711 -0.4479
53770W        W96708  34.207  14.366   7.026 -0.2055 -0.3347 -0.2922
53771W        W96709  32.411  13.954   5.769  0.1689  0.0583  0.3708
53772W        W96710  34.353  15.140   5.538 -0.0782  0.1752  0.0581
53773W        W96711  32.815  16.462   5.298  0.2137  0.2075 -0.1465
53774W        W96712   1.270  15.466   8.103 -0.1830  0.3723 -0.4941
53775W        W96713  34.684  14.876   8.066  0.2091  0.0999  0.0895
53776W        W96714  31.640  13.896   4.436 -0.1048 -0.1596  0.0446
53777W        W96715  32.990  16.135   6.046  0.0495  0.1629 -0.1240
53778W        W96716   1.032  16.098   6.299  0.0136 -0.0440  0.0313
53779W        W96717   0.639  16.514   6.580  0.0991 -0.5939 -0.1076
53780W        W96718  32.734  13.844   7.133  0.0537 -0.1397  0.0711
53781W        W96719   1.668  15.512   6.768 -0.0751 -0.2122 -0.3696
53782W        W96720  33.580  14.557   8.157 -0.0860 -0.1533 -0.0290
53783W        W96721  34.634  18.557   7.626 -0.3723  0.1788 -0.2302
53784W        W96722  33.791  14.609   5.747 -0.0579 -0.0061  0.0160
53785W        W96723  34.501  16.508   5.988 -0.1035  0.0185 -0.1054
53786W        W96724   0.103  16.256   5.071 -0.0223  0.1210 -0.0588
53787W        W96725   0.153  15.044   7.584 -0.0548  0.0278 -0.0288
53788W        W96726  34.251  13.899   5.025 -0.0282  0.2615  0.0799
53789W        W96727  33.683  16.982   6.716 -0.0053 -0.0799  0.2536
53790W        W96728  32.144  12.901   6.395  0.0522 -0.2985 -0.1352
53791W        W96729  32.051  16.744   4.741 -0.0376 -0.7556  0.0948
53792W        W96730  33.081  17.262   4.538  0.0923 -0.1012  0.2295
53793W        W96731  33.257  14.998   6.880  0.0064  0.1085 -0.1499
53794W        W96732  34.447  19.157   6.662  0.0697 -0.5092  0.0681
53795W        W96733   1.389  19.264   9.204 -0.0599 -0.2091  0.0719
53796W        W96734  34.087  14.635   8.422 -0.0470  0.2168 -0.5806
53797W        W96735  33.050  15.806   9.236 -0.0487 -0.2400 -0.0437
53798W        W96736   2.956  13.434  10.210 -0.0081 -0.1888 -0.0089
53799W        W96737   0.180  14.622   8.954 -0.1175  0.3795 -0.0364
53800W        W96738  33.807  14.870  10.135  0.1637  0.1567  0.0060
53801W        W96739  33.289  15.667   8.826  0.0319  0.0850  0.2822
53802W        W96740   0.812  15.468  10.395 -0.2489  0.1127  0.0687
53803W        W96741  34.441  15.190   7.164  0.2932  0.0407 -0.3211
53804W        W96742   0.923  14.891  10.291  0.7029  0.2643  0.1660
53805W        W96743  34.339  16.608   7.161  0.0071  0.0121  0.1860
53806W        W96744  32.819  16.086   7.851 -0.2300  0.2661 -0.0371
53807W        W96745  33.594  15.427  10.124  0.1230 -0.0646 -0.0283
53808W        W96746   1.299  16.539  10.074  0.1898 -0.0079 -0.2004
53809W        W96747  33.578  16.415   9.184  0.0054  0.0707 -0.1339
53810W        W96748  34.349  17.688   8.122 -0.1274  0.2163 -0.3772
53811W        W96749  33.113  18.826   9.393 -0.2049 -0.1525  0.1569
53812W        W96750  33.573  18.698   8.955 -0.4800 -0.4467  0.1134
53813W        W96751   0.060  17.488   9.282 -0.0354  0.3043  0.0371
53814W        W96752  34.648  17.131   8.807 -0.3962 -0.1796 -0.0789
53815W        W96753   1.050  17.124   9.074  0.0189 -0.3909  0.1534
53816W        W96754  34.458  17.523   7.165  0.3617  0.5076 -0.0541
53817W        W96755  33.119  17.494  10.050 -0.2959 -0.0831  0.0247
53818W        W96756  32.989  16.289   8.284 -0.2474 -0.3844 -0.2750
53819W        W96757  34.482  14.087   8.419 -0.0149  0.1484  0.0299
53820W        W96758  33.895  12.813  10.055  0.1902  0.1570  0.1375
53821W        W96759  32.762  17.019  10.443 -0.0022  0.0204  0.1070
53822W        W96760  34.666  12.366  10.765 -0.1056 -0.1947  0.3366
53823W        W96761  33.069  18.043  10.230  0.3631 -0.0670  0.3122
53824W        W96762  33.182  17.031   9.625 -0.1354 -0.1087 -0.2226
53825W        W96763  32.881  16.012   9.863 -0.0037  0.1520  0.2664
53826W        W96764  34.050  14.664   7.471  0.0519 -0.1698  0.2084
53827W        W96765  32.154  16.469  10.088 -0.1826  0.0709 -0.3481
53828W        W96766  34.691  16.355   7.953  0.1257 -0.1032 -0.0566
53829W        W96767   0.419  16.053   8.886  0.2817 -0.0725  0.0698
53830W        W96768  34.228  18.168   9.828  0.0532 -0.2510  0.2843
53831W        W96769  32.383  17.028   7.489  0.1087 -0.1214 -0.0947
53832W        W96770  31.775  18.238  10.160  0.0698 -0.1033  0.0463
53833W        W96771  34.287  17.031   8.412  0.0894  0.1224 -0.2217
53834W        W96772  31.134  13.383   9.974  0.0202 -0.0277  0.0802
53835W        W96773   1.243  15.057  10.708 -0.1700 -0.0614 -0.1667
53836W        W96774  34.368  16.513   8.419  0.3472  0.0138  0.1019
53837W        W96775  31.371  16.363   9.930  0.3473  0.1099 -0.0822
53838W        W96776  33.564  15.618   8.379 -0.1241  0.0720 -0.0289
53839W        W96777  33.893  15.594   8.764  0.0067 -0.2080  0.0974
53840W        W96778  33.118  15.083   8.947  0.2099 -0.2964 -0.0184
53841W        W96779  34.039  15.983   9.076  0.1620  0.0067 -0.2791
53842W        W96780  33.836  16.033   8.575  0.4021  0.1224  0.1473
53843W        W96781  32.584  14.461  10.217  0.3311 -0.1641 -0.0857
53844W        W96782  34.572  14.476   9.860  0.0464  0.3794  0.1918
53845W        W96783  33.820  18.193   9.086  0.1866 -0.3731 -0.1055
53846W        W96784  34.258  17.435   8.758 -0.0604 -0.0451  0.0253
53847W        W96785  33.530  15.926   9.163  0.0383  0.2375  0.3146
53848W        W96786  33.428  15.117   7.441 -0.1043 -0.1669 -0.0783
53849W        W96787  34.399  18.602   6.992 -0.1220  0.1303  0.1363
53850W        W96788  33.376  16.195  10.099 -0.0423  0.1798  0.0178
53851W        W96789  33.231  16.767  10.062  0.3970 -0.2604  0.1393
53852W        W96790  33.375  16.253   8.750  0.0279  0.6164  0.0259
53853W        W96791   0.467  16.148   9.810  0.0227 -0.0536 -0.1710
53854W        W96792   1.373  15.621   9.763 -0.0204  0.2154  0.0124
53855W        W96793   0.395  20.084  10.232 -0.0915 -0.0019 -0.1162
53856W        W96794   0.936  14.392   9.154 -0.0857  0.2670  0.1896
53857W        W96795  34.463  15.464   8.510 -0.2397 -0.0655 -0.2595
53858W        W96796  33.457  17.355   9.188 -0.0314  0.0969 -0.1987
53859W        W96797  32.711  16.203   7.293 -0.3031 -0.0941 -0.0252
53860W        W96798   1.750  14.901  10.670 -0.1470 -0.0165 -0.0237
53861W        W96799  33.242  18.137   8.720  0.0651  0.0277 -0.0546
53862W        W96800  33.155  17.610   8.272  0.1151 -0.1969  0.1012
53863W        W96801  34.678  16.671   8.792 -0.2552 -0.0098  0.0570
53864W        W96802  34.013  13.278   9.947  0.0561 -0.2101  0.1550
53865W        W96803   0.248  16.513   9.200  0.0807  0.1766  0.1222
53866W        W96804   0.831  15.593   7.933  0.2913  0.0536 -0.1663
53867W        W96805  34.670  16.401   7.434  0.5395 -0.0479 -0.4243
53868W        W96806  32.825  17.825   9.817 -0.3258 -0.0080 -0.0260
53869W        W96807  33.744  13.861   7.746 -0.3523  0.0295  0.1671
53870W        W96808  32.339  16.002   7.643  0.1659 -0.1445  0.1975
53871W        W96809  33.970  15.248   9.720 -0.0427  0.0190 -0.0344
53872W        W96810   0.808  14.565   9.610  0.2396  0.1082 -0.2244
53873W        W96811   0.381  17.869   9.179 -0.2009  0.1329 -0.0940
53874W        W96812  32.111  15.734   9.679  0.2040 -0.0044 -0.2383
53875W        W96813   1.704  14.889   9.744 -0.0983  0.2666 -0.1907
53876W        W96814  33.817  17.688   9.063  0.0371 -0.1279  0.2629
53877W        W96815  34.381  15.962   8.641  0.1376 -0.0516  0.3227
53878W        W96816   0.525  16.629   8.710 -0.1076  0.0307  0.2780
53879W        W96817   1.597  13.340  10.069 -0.1999 -0.1159  0.1428
53880W        W96818   0.224  15.275   9.432 -0.1958 -0.3716 -0.0660
53881W        W96819  34.401  16.651   9.811  0.0091 -0.1143 -0.1263
53882W        W96820   0.686  13.946  10.845  0.1791  0.0054 -0.0538
53883W        W96821  33.842  16.185   9.558  0.2296 -0.2337  0.1728
53884W        W96822  34.088  14.297   9.989  0.1162 -0.1319 -0.0046
53885W        W96823   0.293  16.676   9.700  0.1513  0.1769 -0.0237
53886W        W96824   1.009  14.608  11.049  0.2395 -0.0206  0.2532
53887W        W96825  32.960  16.668   8.681 -0.2672  0.1027  0.0611
53888W        W96826  33.527  15.620   7.499 -0.1261  0.2551  0.0020
53889W        W96827  34.142  17.268  10.109 -0.2527 -0.1996 -0.4450
53890W        W96828   1.158  17.314   9.524  0.0788  0.1583  0.0761
53891W        W96829   0.521  15.634   9.755  0.0659  0.0587  0.1349
53892W        W96830  34.373  14.401   8.050 -0.0045  0.0098  0.3948
53893W        W96831  33.599  17.219   9.873  0.0687  0.0295  0.2536
53894W        W96832  34.530  16.193   9.055 -0.0736 -0.4370  0.0079
53895W        W96833   0.039  16.460  10.194  0.0526 -0.1602 -0.0477
53896W        W96834   0.273  16.013   7.298  0.1564 -0.1006 -0.1138
53897W        W96835  33.454  16.152   8.271 -0.3051 -0.1330  0.0320
53898W        W96836   0.594  14.688  10.747 -0.1299 -0.2090 -0.1583
53899W        W96837   0.010  14.061   7.761  0.0197  0.0424  0.1045
53900W        W96838   0.910  16.384   8.310 -0.1717 -0.2355  0.3030
53901W        W96839  32.212  14.886  10.253 -0.2952 -0.0996 -0.0768
53902W        W96840  34.109  15.212   8.926 -0.1874  0.1947  0.0653
53903W        W96841   0.205  16.506   6.373  0.0365 -0.1134 -0.1792
53904W        W96842  34.635  16.296   9.542  0.0714  0.0329 -0.3287
53905W        W96843   0.114  14.706   9.423 -0.1303  0.2507  0.2228
53906W        W96844  33.575  17.268   8.282  0.3333  0.1086 -0.2639
53907W        W96845   0.065  17.067  10.090  0.0336 -0.2056 -0.1071
53908W        W96846  34.613  17.289   7.882  0.0177  0.1259 -0.1231
53909W        W96847   0.440  16.363   8.184  0.1269 -0.0460 -0.0140
53910W        W96848  34.395  15.362   9.375  0.0597 -0.1976 -0.0110
53911W        W96849  31.338  19.700   9.535 -0.0270 -0.3350  0.0367
53912W        W96850  33.812  14.394   9.196 -0.0106 -0.2466  0.3871
53913W        W96851   0.282  15.323  10.138 -0.3358 -0.3846  0.0913
53914W        W96852  34.159  18.101   8.276 -0.0114  0.0835  0.1999
53915W        W96853  33.680  15.023   6.700  0.0295 -0.2201 -0.0289
53916W        W96854  33.556  18.052   7.683 -0.0762  0.0904 -0.0466
53917W        W96855  32.974  17.433   7.329 -0.0255  0.1355  0.4132
53918W        W96856   0.907  17.204   8.548  0.1360 -0.5930  0.0492
53919W        W96857   0.884  15.506   8.419 -0.2194 -0.0893 -0.1583
53920W        W96858  34.602  15.033   9.081  0.0134  0.1234 -0.1252
53921W        W96859  33.667  14.684   8.819 -0.0234 -0.1864 -0.0965
53922W        W96860   1.475  16.082   9.950  0.0718 -0.0600  0.1581
53923W        W96861   0.238  16.435   6.970  0.1483 -0.1886 -0.0243
53924W        W96862   0.328  17.351   7.549 -0.0386 -0.1154 -0.0476
53925W        W96863  33.305  16.829   9.105  0.0115 -0.1097  0.1334
53926W        W96864  33.903  16.238  10.027  0.2562 -0.2655 -0.0338
53927W        W96865  34.392  14.984   8.587 -0.2987  0.0064  0.0971
53928W        W96866  34.397  13.605  10.164  0.0336 -0.0103 -0.0027
53929W        W96867  33.398  15.382   9.322 -0.0329 -0.4077  0.0494
53930W        W96868  34.495  16.035   9.948 -0.0178 -0.1476  0.0586
53931W        W96869  34.171  15.515   7.705  0.0986 -0.2612 -0.0373
53932W        W96870  33.209  14.435   8.934  0.2641  0.1754  0.2426
53933W        W96871  34.229  15.178   8.148 -0.0649 -0.0586  0.4147
53934W        W96872   0.922  13.913   9.923  0.0096  0.2411 -0.1512
53935W        W96873  32.437  13.569   8.299  0.2316  0.2314 -0.1242
53936W        W96874   0.728  17.634   7.274  0.4021  0.2778 -0.0379
53937W        W96875  32.033  14.254   9.358 -0.0342 -0.0599  0.1517
53938W        W96876   0.961  15.537   9.336  0.1838 -0.1226 -0.1850
53939W        W96877   0.373  15.336  10.586 -0.5204 -0.0241  0.1121
53940W        W96878  32.909  17.283   9.023  0.1985  0.1883 -0.1600
53941W        W96879  34.587  16.994   6.933 -0.0890 -0.3451 -0.1406
53942W        W96880   0.661  17.437   9.324  0.0562 -0.0639 -0.3081
53943W        W96881  33.975  15.625   6.518 -0.4001  0.0809  0.2264
53944W        W96882   0.749  16.626   9.176  0.1983 -0.0381  0.0586
53945W        W96883   0.345  17.663   8.354 -0.0536 -0.0066 -0.0202
53946W        W96884   1.635  16.841   9.855  0.3442  0.1914  0.0808
53947W        W96885  33.765  14.139   9.669 -0.2419  0.2851  0.2223
53948W        W96886  32.412  18.103  10.098 -0.1311  0.0191  0.0882
53949W        W96887  32.027  16.160   8.578  0.0019  0.1656 -0.0065
53950W        W96888  34.392  16.815   7.969 -0.1091  0.1047  0.1621
53951W        W96889  32.503  15.458   9.963  0.1384 -0.0307 -0.1582
53952W        W96890   0.366  14.873  10.303 -0.2770 -0.1540  0.0880
53953W        W96891  33.782  14.635   9.675 -0.0982  0.0152 -0.0795
53954W        W96892   0.355  14.494   9.963  0.2325 -0.0608  0.0902
53955W        W96893  32.961  15.168   9.444 -0.1207 -0.2551  0.2821
53956W        W96894   0.157  14.174   9.592  0.1891  0.4250 -0.1214
53957W        W96895  34.514  16.832   9.303 -0.1132 -0.1545  0.3171
53958W        W96896  32.798  14.899   8.541 -0.1176  0.1283 -0.0911
53959W        W96897   1.586  15.460  10.627 -0.0152 -0.0738  0.0808
53960W        W96898  31.927  13.059  10.232  0.3010  0.1860 -0.1442
53961W        W96899   0.719  15.199   9.007  0.2830 -0.1293 -0.0292
53962W        W96900  34.580  15.085  10.448  0.1147  0.1821 -0.3116
53963W        W96901  33.889  15.512   9.277  0.1343 -0.1960  0.1295
53964W        W96902   0.141  15.182   6.696  0.0491 -0.3446  0.3107
53965W        W96903  33.237  18.108   9.742  0.2051 -0.2253  0.1857
53966W        W96904   0.435  14.302  10.467  0.0892  0.0494  0.0002
53967W        W96905   0.205  15.921   9.425  0.1102  0.1456 -0.0537
53968W        W96906  34.078  15.408  10.165  0.0007 -0.1524 -0.1068
53969W        W96907   0.593  13.579  10.382  0.0084 -0.0988  0.0465
53970W        W96908   1.604  17.887   8.880  0.3083  0.2150  0.0195
53971W        W96909  33.884  20.025   2.019  0.0142  0.3151  0.2712
53972W        W96910  34.078  19.175   1.888 -0.0455 -0.1839  0.0196
53973W        W96911  33.382  19.998   0.465 -0.4821  0.3372 -0.0099
53974W        W96912  33.180  17.482   2.838  0.2420  0.3380 -0.3001
53975W        W96913  33.725  19.784   2.432 -0.0803 -0.1869 -0.0199
53976W        W96914  33.966  21.305   1.873 -0.1148 -0.0352 -0.1431
53977W        W96915  34.322  18.191   1.096 -0.1475  0.5460  0.1708
53978W        W96916  32.986  18.243   1.809 -0.0446 -0.0053  0.0840
53979W        W96917   0.099  20.046   0.688 -0.0332 -0.2417 -0.1561
53980W        W96918  34.265  19.682   1.892  0.1001 -0.3850  0.2112
53981W        W96919  34.531  19.688  31.963 -0.0055  0.1963 -0.0606
53982W        W96920  33.493  18.465   3.270 -0.2416  0.1688  0.3129
53983W        W96921  33.206  22.131   1.222 -0.2473  0.2418  0.2818
53984W        W96922  32.437  21.031   0.261 -0.0621  0.1752 -0.1494
53985W        W96923  33.735  19.649   1.630  0.1980 -0.3928  0.2441
53986W        W96924  34.618  20.756   1.944 -0.2269  0.1005 -0.0082
53987W        W96925   1.178  21.743   2.670  0.2828  0.2228  0.2489
53988W        W96926   0.289  21.362   0.761 -0.1645 -0.1047 -0.0290
53989W        W96927  33.089  22.233   0.714  0.0621 -0.1475  0.0544
53990W        W96928  32.782  22.976   0.605 -0.1174  0.1296  0.0976
53991W        W96929   0.105  22.856   1.323 -0.1163 -0.0230  0.0623
53992W        W96930  34.441  22.309   3.895 -0.1701  0.3066  0.0239
53993W        W96931  32.140  22.467   0.962  0.0253 -0.1929  0.2274
53994W        W96932  33.848  19.830   2.890 -0.0243  0.2019 -0.0625
53995W        W96933  33.615  21.044   0.564 -0.0471 -0.1256  0.1642
53996W        W96934   0.562  20.266   1.416 -0.0044  0.0545  0.3194
53997W        W96935  34.497  20.676   4.407 -0.1182  0.2807 -0.1803
53998W        W96936  32.439  22.971   1.835 -0.0397  0.0378 -0.1143
53999W        W96937  33.968  22.112   0.690  0.0544 -0.0130 -0.0255
54000W        W96938  34.619  18.701   0.013 -0.1253  0.0754  0.3460
54001W        W96939  34.587  19.596   2.325  0.2482  0.0997 -0.4453
54002W        W96940  32.760  22.597   1.891  0.0202 -0.1321  0.0185
54003W        W96941   0.159  19.096   2.548 -0.0055 -0.1280 -0.1383
54004W        W96942  33.685  22.926   2.684  0.0377 -0.0081  0.2527
54005W        W96943  33.500  20.291   0.899 -0.5860  0.0609 -0.1982
54006W        W96944  34.380  19.151   0.809  0.0131 -0.1203  0.0299
54007W        W96945  32.783  21.958   2.918 -0.4426 -0.1821  0.3330
54008W        W96946  34.519  19.881   2.828 -0.2290 -0.2964 -0.0488
54009W        W96947  33.399  19.423  31.706 -0.0318 -0.0409 -0.0816
54010W        W96948  31.721  20.173   1.731  0.0562 -0.1399  0.2605
54011W        W96949  34.301  21.913   2.165 -0.1529 -0.0449  0.0470
54012W        W96950  32.321  20.472  30.724 -0.2010 -0.2224 -0.0905
54013W        W96951  34.355  20.384   0.583  0.2057  0.0050 -0.2073
54014W        W96952  32.733  22.076   1.019  0.2684 -0.1244 -0.1057
54015W        W96953  33.868  19.281   2.865  0.1994 -0.3086 -0.0822
54016W        W96954  34.259  20.368   2.756 -0.0226 -0.0934 -0.2682
54017W        W96955  33.125  21.449  31.875  0.0131 -0.1488 -0.0075
54018W        W96956  34.100  20.549   1.254 -0.0684  0.1140 -0.1920
54019W        W96957  34.104  21.217   1.078 -0.0991  0.1589 -0.0202
54020W        W96958  32.428  19.703   2.036 -0.0178  0.0096  0.1114
54021W        W96959   0.266  20.113   2.533 -0.1628 -0.0272  0.1663
54022W        W96960  33.686  19.438   2.085 -0.0357 -0.1655  0.3407
54023W        W96961  33.670  21.117   1.069 -0.3462  0.3093 -0.1292
54024W        W96962  32.409  19.205   1.873  0.2505  0.2400 -0.2356
54025W        W96963   0.208  20.640   1.449  0.0480 -0.1757 -0.3060
54026W        W96964  32.893  18.702   2.525 -0.0297 -0.0366 -0.0918
54027W        W96965  34.444  18.707   2.507 -0.2161  0.1591 -0.3305
54028W        W96966  33.533  20.302   0.037 -0.4717  0.1943  0.0200
54029W        W96967   0.362  19.575   2.559 -0.3091  0.0442  0.2109
54030W        W96968  32.146  21.164  31.778 -0.3316 -0.1268 -0.1005
54031W        W96969  34.244  19.084   3.309  0.0375 -0.3874  0.1783
54032W        W96970  33.685  18.330   0.587  0.0827  0.1991 -0.2501
54033W        W96971  33.285  22.614   2.210  0.0868 -0.2941 -0.0426
54034W        W96972  33.119  21.655   2.127 -0.1906 -0.0984 -0.2829
54035W        W96973   0.293  19.048   2.032  0.0599  0.2824  0.1693
54036W        W96974  33.742  20.450   1.727  0.1875 -0.3252 -0.1113
54037W        W96975  33.042  18.832  31.922  0.4758  0.0040 -0.1086
54038W        W96976  33.511  22.238  31.687  0.0447 -0.2312 -0.1886
54039W        W96977   0.061  20.581  31.917  0.1962 -0.2398 -0.2435
54040W        W96978  34.430  21.106  31.845  0.1124 -0.0928  0.2283
54041W        W96979  33.011  20.756   4.183 -0.0969 -0.2680  0.3066
54042W        W96980   0.258  19.470  31.693 -0.0247  0.2717 -0.0796
54043W        W96981  33.029  22.149   1.817 -0.0773  0.0774 -0.1361
54044W        W96982  33.536  20.389   3.388 -0.0747 -0.0971 -0.1976
54045W        W96983  33.855  21.544   1.448  0.1558 -0.0235  0.5530
54046W        W96984  34.466  21.383   2.645  0.2519  0.0463  0.2238
54047W        W96985  34.088  20.839   1.873 -0.0630  0.1957 -0.0835
54048W        W96986   0.367  18.714   3.282 -0.1965 -0.1434  0.0186
54049W        W96987   0.102  19.092   1.133 -0.0428  0.0026 -0.2478
54050W        W96988  32.367  23.409  31.710 -0.0874  0.3675  0.3718
54051W        W96989  34.660  19.148   3.564 -0.1122 -0.1507  0.3067
54052W        W96990  33.977  19.100  31.383 -0.2523  0.3983 -0.2912
54053W        W96991   0.259  20.125   3.889  0.1524  0.3702 -0.0683
54054W        W96992  34.206  21.177   3.263 -0.2976 -0.0896 -0.3843
54055W        W96993  33.281  20.849   1.764  0.0301  0.1767 -0.0315
54056W        W96994   0.926  20.361   3.952 -0.0164  0.2388 -0.0107
54057W        W96995   0.276  23.829   0.737  0.1766  0.2480 -0.1732
54058W        W96996   0.177  22.135   2.124  0.1623 -0.0922 -0.4691
54059W        W96997  32.879  18.585   1.376  0.2552  0.0619 -0.1679
54060W        W96998   0.294  21.463   2.692 -0.1551 -0.2572 -0.1099
54061W        W96999  34.092  20.356  31.888 -0.1514  0.0179 -0.2432
54062W        W97000  34.599  22.632   0.243  0.0925 -0.0408 -0.2863
54063W        W97001  32.759  21.286   1.493  0.0671 -0.1338  0.0827
54064W        W97002  33.518  19.684   0.831 -0.1480  0.1192  0.2844
54065W        W97003  33.239  20.031  31.511  0.0428  0.1312 -0.0522
54066W        W97004  34.161  20.004   2.414  0.0523 -0.2205  0.1637
54067W        W97005  33.726  18.045   2.399  0.0668  0.2560 -0.0537
54068W        W97006  33.013  20.318   2.418  0.1107  0.0401 -0.5345
54069W        W97007  34.624  19.969   3.274 -0.1455 -0.2195 -0.0390
54070W        W97008  32.224  20.873  31.002  0.1825  0.0772  0.0672
54071W        W97009  34.420  19.558   1.333 -0.3547 -0.0707 -0.2378
54072W        W97010  32.079  22.016   1.142 -0.3443 -0.2020 -0.0398
54073W        W97011   0.837  19.672   0.870  0.0098 -0.1578 -0.0281
54074W        W97012  34.279  23.290   2.647  0.1213  0.0428  0.0044
54075W        W97013  33.280  19.443   3.602  0.0887  0.0782 -0.2293
54076W        W97014   0.639  19.240   2.351  0.0016 -0.0825 -0.0514
54077W        W97015   0.467  19.137   2.949 -0.2109  0.1788 -0.1873
54078W        W97016  34.462  20.098   1.031 -0.0572  0.1495  0.0282
54079W        W97017   0.019  19.641   3.647 -0.0287  0.0612 -0.0650
54080W        W97018  33.084  22.553   3.746  0.2003 -0.0511  0.1282
54081W        W97019  34.225  21.155   0.440 -0.2836  0.3429  0.0298
54082W        W97020  32.818  19.799   0.429 -0.2559 -0.3737  0.2057
54083W        W97021  33.896  21.837   1.895 -0.1877 -0.1255 -0.2679
54084W        W97022   0.145  17.553   2.977 -0.0652  0.2669 -0.5438
54085W        W97023  33.111  20.532   1.018  0.0567  0.4618 -0.2922
54086W        W97024  33.883  20.803   0.222  0.1985 -0.0325  0.0471
54087W        W97025  33.228  19.867   1.563 -0.0866 -0.1040  0.1732
54088W        W97026   0.760  19.738  31.717 -0.0291  0.1953 -0.1135
54089W        W97027   0.319  19.578   2.078  0.2167 -0.1247  0.0460
54090W        W97028  33.055  19.938   2.668  0.0572 -0.0292  0.1342
54091W        W97029  34.324  19.573   3.248 -0.0535  0.0741 -0.2345
54092W        W97030  34.149  18.532   0.740  0.1231  0.2698  0.1095
54093W        W97031  34.529  20.469   2.278  0.1984  0.0134 -0.1193
54094W        W97032   0.466  20.008   1.002  0.1913  0.2775  0.1514
54095W        W97033  33.201  20.317   1.637 -0.0187 -0.0479  0.0476
54096W        W97034   1.402  19.599   1.810 -0.1408  0.1175  0.4075
54097W        W97035  33.720  22.120   1.197 -0.1997  0.0936  0.1950
54098W        W97036  33.684  17.546   2.999  0.1205  0.0981 -0.0688
54099W        W97037   0.067  19.376   3.105  0.0887  0.2372 -0.1384
54100W        W97038  33.763  18.898   3.161  0.4679 -0.0644 -0.2807
54101W        W97039  34.390  19.136   2.788 -0.0114  0.2918 -0.3135
54102W        W97040  32.703  19.601  30.956  0.0381 -0.1118  0.1151
54103W        W97041   0.290  20.764  30.971 -0.0269 -0.3671  0.1164
54104W        W97042  34.647  19.564   0.760 -0.0389 -0.1800 -0.2962
54105W        W97043  33.220  21.722   3.089 -0.0787 -0.0292 -0.3315
54106W        W97044  32.375  19.844   0.717 -0.0807 -0.0923 -0.1055
54107W        W97045   1.200  19.660   0.294 -0.0951  0.2009 -0.3189
54108W        W97046  34.399  20.906   2.439  0.0288  0.1099 -0.0503
54109W        W97047   0.881  18.126   0.708  0.0804  0.1695 -0.0076
54110W        W97048  33.140  21.427   0.389  0.1198  0.0949  0.0400
54111W        W97049   0.232  22.627   3.011 -0.0521  0.2313 -0.0312
54112W        W97050  32.820  20.187   1.373  0.0644 -0.1808  0.0363
54113W        W97051  33.659  22.931   1.649  0.2896  0.0367  0.1460
54114W        W97052   0.028  21.972   1.630 -0.0365  0.1276  0.0360
54115W        W97053  34.617  21.427   1.274  0.0057  0.0928 -0.0817
54116W        W97054  32.753  21.783   1.432 -0.2140  0.2015 -0.0613
54117W        W97055  32.994  20.289   3.425 -0.0838 -0.2914 -0.0759
54118W        W97056  34.563  20.260   1.491 -0.1588  0.0494  0.1869
54119W        W97057  33.432  21.271   2.814  0.2725  0.2315 -0.2742
54120W        W97058  33.642  22.432   1.807 -0.0094 -0.1806 -0.2868
54121W        W97059  33.200  22.738   0.634  0.0418  0.1153  0.1352
54122W        W97060  33.649  19.459   0.337 -0.0993  0.1286 -0.2227
54123W        W97061  33.128  23.040   1.923  0.2189 -0.0599  0.0262
54124W        W97062  33.151  21.018   0.767  0.2075 -0.0711 -0.0524
54125W        W97063  33.222  24.092   2.404 -0.5043  0.3199 -0.0469
54126W        W97064  33.306  19.800   2.108  0.0662  0.0936 -0.0984
54127W        W97065  33.544  16.895   1.510  0.0766  0.1887 -0.1689
54128W        W97066  34.150  20.597   3.316  0.0355  0.2087 -0.0574
54129W        W97067  32.663  21.645   3.769 -0.0788 -0.1223  0.1760
54130W        W97068  34.358  19.885   0.593  0.0035 -0.1540 -0.1392
54131W        W97069  34.092  20.090   1.493  0.0598  0.0236  0.0987
54132W        W97070   0.154  20.556  31.388  0.1032 -0.3771 -0.0088
54133W        W97071  34.504  23.163   1.629  0.0905 -0.0969  0.1085
54134W        W97072  34.090  21.492   2.342 -0.3005  0.0040  0.3167
54135W        W97073  33.470  22.264   3.139 -0.2276 -0.0932 -0.0628
54136W        W97074  33.900  19.720   1.180 -0.0202 -0.0251 -0.3472
54137W        W97075  33.545  22.406   2.657 -0.0531  0.1403  0.2552
54138W        W97076  33.606  20.080   1.299 -0.0403 -0.3898 -0.0810
54139W        W97077  32.585  19.998   2.436  0.0405  0.1675  0.1505
54140W        W97078   0.711  19.470   0.136 -0.1174 -0.1489  0.0605
54141W        W97079  33.015  18.747   3.294  0.0298 -0.2510 -0.0464
54142W        W97080  32.736  21.249   0.621  0.0369 -0.2263  0.1490
54143W        W97081  34.689  20.343   2.985 -0.1013  0.1642  0.3759
54144W        W97082  32.992  19.044   1.557 -0.0224  0.1717  0.3693
54145W        W97083  33.910  20.709   0.794 -0.1162 -0.1542 -0.0391
54146W        W97084  32.961  19.828   3.208 -0.0417  0.0054 -0.0710
54147W        W97085   0.463  17.579   1.334  0.1342  0.2669  0.3810
54148W        W97086  34.565  20.157   0.168  0.1312  0.1787 -0.3109
54149W        W97087  33.181  22.623   1.146 -0.0311 -0.4180 -0.0614
54150W        W97088  34.696  22.584  31.687 -0.1325  0.0863 -0.2204
54151W        W97089   0.013  21.643   2.119 -0.1697  0.3385  0.0038
54152W        W97090  34.289  22.189   2.594 -0.0518  0.0733 -0.1187
54153W        W97091  33.749  18.867   0.311 -0.1858 -0.1499  0.1799
54154W        W97092   0.215  19.905   4.648 -0.0368  0.1262 -0.3209
54155W        W97093  33.749  21.001   1.578 -0.0098 -0.3071  0.3761
54156W        W97094  34.387  20.740   0.885 -0.1305  0.1205 -0.2438
54157W        W97095   0.549  20.943   2.682 -0.0342 -0.1246 -0.3547
54158W        W97096   1.595  17.782   1.719  0.0066  0.0089 -0.0194
54159W        W97097  34.490  21.423   3.668 -0.1171 -0.0850  0.0560
54160W        W97098  32.971  20.349   0.524 -0.0643 -0.1798  0.1518
54161W        W97099   0.765  20.985  31.032  0.2730  0.1183 -0.0355
54162W        W97100  33.286  21.519   1.624 -0.2838 -0.1981 -0.2787
54163W        W97101  34.175  18.722   2.987 -0.2714  0.0529 -0.3605
54164W        W97102  32.489  19.605   3.302  0.0333 -0.1746  0.1777
54165W        W97103  34.431  21.035   1.561  0.0507  0.0497 -0.0372
54166W        W97104  34.628  19.412   1.794  0.1835 -0.0874  0.2665
54167W        W97105  32.669  18.080   1.096 -0.0116  0.1858  0.3088
54168W        W97106  33.521  19.207   1.648  0.0311  0.1167  0.0016
54169W        W97107   0.099  18.585   1.276  0.1755  0.0362  0.3293
54170W        W97108  32.244  21.143   0.714 -0.1000 -0.2801 -0.3173
54171W        W97109  34.089  20.120   3.436 -0.1999 -0.1088  0.0079
54172W        W97110  34.384  18.509   4.036  0.0105 -0.2861  0.0443
54173W        W97111  33.250  19.684   0.122 -0.1922  0.5853  0.0172
54174W        W97112   0.422  20.569   3.696 -0.1963  0.4425  0.1916
54175W        W97113  33.470  22.002   1.613  0.1209 -0.0608 -0.0629
54176W        W97114  34.400  20.816   2.916  0.2553 -0.2704  0.0198
54177W        W97115  34.424  19.483   4.202 -0.1108 -0.0451 -0.2218
54178W        W97116  33.925  22.339   2.209 -0.1088  0.1096  0.0846
54179W        W97117  33.337  16.946   3.589 -0.3058 -0.1220 -0.0747
54180W        W97118  34.187  22.773   2.542 -0.1635 -0.0166  0.0281
54181W        W97119  32.855  18.272   2.345 -0.2635  0.0823 -0.1212
54182W        W97120  33.003  19.916   0.880  0.0014 -0.1884  0.2811
54183W        W97121   0.193  19.618   1.169 -0.3151 -0.1568  0.3225
54184W        W97122   0.643  18.688   2.723 -0.2855  0.0908  0.0461
54185W        W97123  34.076  19.230   1.213  0.0160  0.2010  0.0573
54186W        W97124  33.677  23.476   3.337 -0.0292 -0.0955 -0.1016
54187W        W97125  33.664  18.420   3.918 -0.0201  0.4465 -0.1500
54188W        W97126  33.548  21.506   2.377 -0.0629 -0.1316 -0.4149
54189W        W97127  34.222  20.402   1.924 -0.4313  0.4177 -0.1285
54190W        W97128  33.140  18.836   2.024 -0.3947 -0.1411  0.2123
54191W        W97129   0.956  22.653   2.504  0.1047 -0.1836  0.0102
54192W        W97130  33.253  20.774   5.590  0.2849 -0.0231  0.0709
54193W        W97131  33.944  18.838   3.943  0.0832 -0.1128  0.0154
54194W        W97132  33.597  18.726   4.366 -0.2610 -0.1708 -0.2533
54195W        W97133  34.265  19.074   6.231  0.0117 -0.0772  0.1719
54196W        W97134  34.510  19.302   5.856 -0.1373 -0.1420 -0.2806
54197W        W97135  33.403  21.252   5.482  0.2081 -0.2106 -0.1332
54198W        W97136   0.328  18.496   4.653  0.1105 -0.2315  0.2403
54199W        W97137  32.668  18.338   5.093 -0.2133 -0.0832  0.0529
54200W        W97138  33.587  20.565   4.141 -0.0879  0.0603 -0.0502
54201W        W97139   0.336  19.344   5.032  0.0842  0.3316  0.0271
54202W        W97140   0.770  18.963   3.794  0.2485  0.0016  0.2140
54203W        W97141   0.713  17.079   7.694 -0.2242  0.0479  0.2735
54204W        W97142   0.323  20.825   4.812  0.1452 -0.1048 -0.5263
54205W        W97143  33.447  19.629   4.120  0.0740  0.2102  0.4097
54206W        W97144  33.922  19.193   4.929  0.0671  0.2243  0.4966
54207W        W97145   0.246  19.381   6.989 -0.3077  0.2311  0.0844
54208W        W97146  34.316  21.509   5.391 -0.0422 -0.0969  0.3955
54209W        W97147   0.565  20.929   6.233 -0.0711 -0.0081 -0.0025
54210W        W97148  33.872  20.685   5.399 -0.0788  0.2223  0.1325
54211W        W97149  32.319  21.307   3.959 -0.0964  0.0149  0.0761
54212W        W97150   0.325  21.677   3.615  0.0199  0.1173 -0.0016
54213W        W97151  34.465  21.085   7.376  0.1049 -0.0094 -0.0716
54214W        W97152  33.654  20.079   4.401 -0.1239 -0.0761 -0.1518
54215W        W97153  33.823  21.806   7.249 -0.0972 -0.0204 -0.3185
54216W        W97154  34.694  21.607   3.136  0.0299  0.0636 -0.2106
54217W        W97155  33.956  20.591   6.754  0.1577 -0.0822 -0.4344
54218W        W97156   0.161  20.127   8.869  0.2327 -0.0228  0.1112
54219W        W97157  33.107  20.377   2.926  0.0982  0.1554 -0.3628
54220W        W97158  34.098  21.757   3.668 -0.0557 -0.3157  0.0202
54221W        W97159   0.785  18.542   3.539 -0.0310  0.0031  0.0273
54222W        W97160  34.024  18.585   6.109 -0.3281 -0.1431  0.0350
54223W        W97161  33.798  21.557   5.229 -0.2950 -0.5513 -0.0168
54224W        W97162  34.253  20.224   6.811  0.0063  0.1959  0.0368
54225W        W97163  32.080  21.137   6.284  0.2054  0.2175  0.2063
54226W        W97164  33.209  19.384   5.209  0.1430  0.0590  0.0135
54227W        W97165  34.631  20.189   4.278 -0.0150  0.1343 -0.0909
54228W        W97166  33.601  19.667   4.809  0.3260 -0.0635  0.1214
54229W        W97167  33.866  19.689   7.963  0.0775 -0.1237  0.1527
54230W        W97168  32.533  21.748   6.877  0.2875 -0.1512 -0.0269
54231W        W97169  33.537  20.293   6.813  0.0532 -0.0836 -0.0327
54232W        W97170  33.324  18.707   3.716 -0.4387  0.3848 -0.0805
54233W        W97171  34.021  19.825   5.707 -0.4933 -0.3140  0.0429
54234W        W97172  33.417  20.833   5.025  0.0192 -0.2777  0.0998
54235W        W97173   0.105  17.768   6.137 -0.3562  0.0342 -0.0994
54236W        W97174  33.503  20.692   6.487  0.2610  0.0788  0.0512
54237W        W97175  33.703  21.396   4.682 -0.0318 -0.0327  0.2646
54238W        W97176  32.256  20.024   6.062  0.1021  0.4896 -0.0489
54239W        W97177  34.241  19.449   3.714 -0.1846  0.2539  0.0027
54240W        W97178  34.693  17.727   6.809  0.2086  0.2499  0.2121
54241W        W97179  33.925  20.268   7.200  0.0188  0.3529 -0.2431
54242W        W97180  32.192  19.500   7.188  0.5835  0.0820 -0.2052
54243W        W97181  33.704  19.623   5.407  0.0567  0.3042  0.0680
54244W        W97182  34.327  19.916   7.237  0.2830  0.3130  0.0017
54245W        W97183   0.144  18.860   5.031  0.3079 -0.1097 -0.1479
54246W        W97184  34.163  18.874   8.066 -0.4956 -0.2863 -0.0741
54247W        W97185  33.862  18.876   6.603  0.0763 -0.0789 -0.0667
54248W        W97186  33.973  18.414   4.319  0.0446  0.3804  0.0698
54249W        W97187   0.679  19.176   4.229 -0.0624  0.0834 -0.1397
54250W        W97188  33.591  21.912   3.440  0.0595  0.1444  0.2084
54251W        W97189   0.722  19.938   6.913 -0.1355 -0.2268  0.3239
54252W        W97190  33.003  19.875   3.694 -0.0328 -0.0305 -0.2155
54253W        W97191  33.067  20.468   5.106 -0.1436  0.3470 -0.0579
54254W        W97192  34.633  21.155   5.672  0.2769 -0.2741  0.3768
54255W        W97193   0.145  17.928   4.710 -0.1159 -0.3150 -0.3584
54256W        W97194  31.802  18.674   7.191 -0.2782  0.1003  0.0266
54257W        W97195  33.421  19.130   4.028 -0.1805  0.2653  0.1602
54258W        W97196  33.203  21.763   4.100  0.2596  0.0374  0.4461
54259W        W97197  32.537  20.452   4.981 -0.0041  0.3930 -0.3284
54260W        W97198  33.353  20.412   5.954  0.1268 -0.0650 -0.4169
54261W        W97199  32.585  20.416   6.816  0.4480  0.2258  0.1079
54262W        W97200  32.539  19.685   3.819 -0.4594 -0.0421 -0.5651
54263W        W97201  33.615  21.355   7.473 -0.0764  0.4884  0.1251
54264W        W97202  33.298  21.448   6.464 -0.0803 -0.2991 -0.1428
54265W        W97203  34.562  20.780   4.889 -0.0122  0.0693 -0.1559
54266W        W97204   0.633  21.730   6.889 -0.0031 -0.0442 -0.1706
54267W        W97205  33.322  19.936   5.210 -0.2486 -0.1115 -0.3567
54268W        W97206  33.933  17.465   6.925 -0.2633 -0.1483 -0.0091
54269W        W97207   1.105  20.161   4.476  0.0883  0.0485 -0.1347
54270W        W97208  32.580  22.414   3.617 -0.1130  0.1147 -0.1098
54271W        W97209  34.344  17.337   6.688 -0.0671 -0.2428 -0.0434
54272W        W97210  33.852  19.173   3.597  0.0104 -0.1909  0.1883
54273W        W97211   0.981  18.726   5.620 -0.0507 -0.1300 -0.1136
54274W        W97212  33.588  19.176   6.941 -0.0505 -0.1598 -0.0804
54275W        W97213  31.711  21.689   5.217  0.2772  0.2391  0.1006
54276W        W97214   0.123  19.035   6.328 -0.0860 -0.4895  0.2959
54277W        W97215  32.535  21.957   3.337 -0.2131  0.0247  0.0666
54278W        W97216  33.589  19.287   4.495 -0.0428 -0.0818 -0.3439
54279W        W97217  33.751  19.695   6.133  0.2892  0.0911  0.0683
54280W        W97218  33.739  21.338   6.262  0.1860 -0.1886 -0.2303
54281W        W97219  33.954  21.344   2.781 -0.2373 -0.0551 -0.1029
54282W        W97220  33.620  21.356   3.749  0.0076 -0.1152 -0.2580
54283W        W97221  32.247  22.360   6.261 -0.0572 -0.2344 -0.0449
54284W        W97222  34.409  18.987   4.139 -0.0730 -0.1290 -0.1552
54285W        W97223  33.889  19.308   4.059 -0.2073  0.1954  0.1866
54286W        W97224   0.274  19.294   7.556  0.3223  0.2995  0.0230
54287W        W97225  34.596  18.073   7.163  0.1377 -0.0439 -0.1877
54288W        W97226  31.789  20.667   6.166 -0.1512  0.3027 -0.1296
54289W        W97227   0.723  19.179   7.337  0.1887 -0.0469 -0.1195
54290W        W97228  31.949  19.368   2.761  0.0174  0.1848 -0.0553
54291W        W97229  34.411  19.741   4.666  0.0199  0.1886  0.0942
54292W        W97230  32.976  21.253   3.993  0.0464  0.1715  0.2534
54293W        W97231  33.841  20.237   3.836  0.0017  0.3037 -0.0023
54294W        W97232  34.099  20.678   4.881  0.0888  0.2555 -0.1347
54295W        W97233   0.428  19.645   8.173  0.1046 -0.1879 -0.2961
54296W        W97234  34.588  20.014   6.435  0.0837 -0.2277 -0.1243
54297W        W97235   0.308  18.969   4.542  0.2853  0.1638  0.3055
54298W        W97236   1.824  20.064   3.946  0.0930  0.1565 -0.1738
54299W        W97237  34.479  20.503   6.261  0.0298  0.0625  0.0307
54300W        W97238  33.833  21.691   8.443  0.0356 -0.4630  0.0570
54301W        W97239  34.159  20.639   3.905 -0.3466  0.1036  0.1422
54302W        W97240  33.231  20.006   4.707  0.0897  0.1636 -0.0154
54303W        W97241  33.994  20.515   4.412  0.1874 -0.1984 -0.3595
54304W        W97242   1.067  19.867   7.233  0.0340 -0.0915 -0.2795
54305W        W97243  33.019  20.113   5.557 -0.0233  0.1548 -0.1828
54306W        W97244  33.341  20.903   3.827 -0.0680  0.0943 -0.1981
54307W        W97245  33.108  19.608   5.633  0.2054  0.1363 -0.1618
54308W        W97246  34.315  18.889   5.086  0.0600  0.1166  0.0471
54309W        W97247  32.703  17.805   5.196 -0.0818 -0.0049 -0.3191
54310W        W97248  33.065  19.146   6.771 -0.1361 -0.0295 -0.1866
54311W        W97249  34.132  20.177   7.664  0.0309 -0.2679  0.2241
54312W        W97250  34.440  18.695   4.655  0.0934  0.0318  0.2433
54313W        W97251  34.019  19.370   5.926 -0.0612  0.4895  0.1865
54314W        W97252  34.490  20.164   5.010 -0.3595  0.0607 -0.0467
54315W        W97253  33.450  19.917   5.763 -0.1685  0.0337  0.2170
54316W        W97254  34.673  21.611   4.598  0.0814  0.1684  0.1912
54317W        W97255  33.664  20.359   4.956 -0.2757  0.1768 -0.0434
54318W        W97256  34.135  18.250   7.364  0.1800  0.0095 -0.0266
54319W        W97257   0.117  19.726   7.353 -0.2290  0.0604 -0.1466
54320W        W97258  34.211  18.786   7.493 -0.3013  0.0389  0.0749
54321W        W97259  34.501  19.382   7.350  0.0171  0.0987 -0.1222
54322W        W97260   0.151  18.310   4.014  0.0303  0.0606 -0.2002
54323W        W97261  33.972  22.639   3.958  0.1797 -0.0197  0.0161
54324W        W97262  33.598  18.535   5.815  0.1132 -0.1799  0.1575
54325W        W97263  33.545  21.775   7.705 -0.0046  0.0763  0.0998
54326W        W97264  33.138  18.533   4.148  0.0882 -0.2439  0.0097
54327W        W97265  34.464  20.053   3.832  0.1981 -0.0437  0.0228
54328W        W97266   0.186  20.917   6.734 -0.1010 -0.0002  0.0558
54329W        W97267  34.675  19.320   4.617 -0.0951  0.2002 -0.0241
54330W        W97268  34.002  19.587   4.450 -0.2776  0.0802 -0.0241
54331W        W97269  33.294  21.796   5.470  0.2754 -0.0635  0.2351
54332W        W97270  32.745  20.623   6.396 -0.0963  0.0770  0.1035
54333W        W97271  33.442  20.354   5.437  0.0477  0.1653  0.1771
54334W        W97272   0.423  18.564   5.654 -0.2735  0.5301  0.2765
54335W        W97273  33.820  20.259   5.842  0.5025 -0.2399 -0.0459
54336W        W97274  34.313  20.319   5.838 -0.0597  0.0638  0.0756
54337W        W97275  33.375  18.729   6.811 -0.5410 -0.1491 -0.0005
54338W        W97276  34.374  17.822   4.897 -0.0169 -0.2797 -0.2354
54339W        W97277  33.563  20.620   7.245 -0.2976  0.3269 -0.0333
54340W        W97278  32.463  18.702   5.979  0.2287 -0.1960 -0.2536
54341W        W97279  33.109  21.300   2.446  0.0596  0.4330  0.0920
54342W        W97280  34.652  18.905   3.114  0.1057  0.2071 -0.1228
54343W        W97281  33.845  21.091   5.054  0.2136  0.2030  0.4435
54344W        W97282  32.420  21.015   3.102 -0.1337  0.0501 -0.2344
54345W        W97283  33.298  21.458   5.042  0.2693  0.1707 -0.3254
54346W        W97284  34.135  19.371   5.411 -0.1747 -0.1372  0.0411
54347W        W97285  33.943  18.610   4.815 -0.2027 -0.0745 -0.2041
54348W        W97286   0.008  20.005   7.823  0.4691  0.1326  0.0213
54349W        W97287  33.672  22.078   5.721 -0.0693 -0.2966  0.0167
54350W        W97288  32.357  18.938   4.771  0.2499 -0.1226  0.2439
54351W        W97289   0.055  20.151   5.457 -0.0853 -0.0455 -0.3022
54352W        W97290  33.342  21.088   4.342 -0.0273  0.2364 -0.1778
54353W        W97291  34.240  21.368   5.992  0.0298  0.4218  0.2853
54354W        W97292  33.171  20.318   6.393  0.0856  0.2254  0.1371
54355W        W97293  33.498  21.887   4.978 -0.1823  0.0975 -0.0119
54356W        W97294  32.990  19.486   4.063  0.0549  0.3747  0.4582
54357W        W97295  33.855  19.459   7.258  0.0338 -0.0913  0.1520
54358W        W97296   0.273  18.775   3.808  0.0680  0.2556  0.1047
54359W        W97297  34.134  19.049   7.056 -0.2129  0.4472  0.0057
54360W        W97298   0.141  21.105   2.930 -0.0672  0.1430 -0.1335
54361W        W97299  33.593  17.974   5.795  0.2558 -0.0275  0.1682
54362W        W97300  33.404  19.032   4.931 -0.0107  0.0655 -0.0691
54363W        W97301   1.517  17.839   4.599  0.0612 -0.3388 -0.1300
54364W        W97302  32.207  17.390   3.902 -0.0698 -0.2872  0.1053
54365W        W97303  33.291  21.954   2.667 -0.1055 -0.0842  0.0046
54366W        W97304  33.444  19.109   6.474 -0.2855  0.1128 -0.2458
54367W        W97305  33.128  20.016   4.190  0.2457 -0.0226  0.1008
54368W        W97306  33.879  20.954   4.136 -0.2300 -0.0406  0.0261
54369W        W97307  33.970  22.566   2.915 -0.1295  0.1216 -0.2602
54370W        W97308  34.540  21.336   6.841 -0.1482 -0.2467 -0.2386
54371W        W97309   0.075  20.722   7.220 -0.2611  0.1554 -0.0373
54372W        W97310  32.244  19.785   2.902 -0.2373 -0.1942  0.2065
54373W        W97311  34.405  20.793   6.920 -0.1018  0.3486 -0.3041
54374W        W97312  34.180  21.084   4.538  0.2885  0.0162 -0.1660
54375W        W97313  34.545  19.376   5.100 -0.1341 -0.4252 -0.0789
54376W        W97314   1.297  18.880   4.667  0.1573 -0.1414 -0.2368
54377W        W97315  34.311  19.575   6.353 -0.2041 -0.0402 -0.1125
54378W        W97316  32.979  19.575   7.054  0.3882  0.1023  0.0528
54379W        W97317  32.525  20.781   4.290 -0.1384  0.0219  0.1894
54380W        W97318  33.992  20.180   5.333 -0.1177 -0.1158  0.2003
54381W        W97319  32.083  19.841   5.260  0.2305 -0.0801  0.1859
54382W        W97320   0.183  18.476   7.192 -0.0261 -0.2314  0.0149
54383W        W97321  33.585  20.130   6.369 -0.1878 -0.1719 -0.0477
54384W        W97322  33.207  19.024   5.563 -0.0904  0.4855 -0.4513
54385W        W97323  34.686  17.596   4.428  0.1487  0.2573 -0.2284
54386W        W97324  33.258  18.905   6.087 -0.1279  0.0058 -0.2032
54387W        W97325  34.058  18.641   5.409 -0.1325  0.0377 -0.0687
54388W        W97326   0.154  19.583   5.631  0.7141 -0.1833  0.0105
54389W        W97327  33.719  21.560   3.178 -0.2054 -0.0886 -0.1486
54390W        W97328   2.239  18.871   7.060 -0.1921 -0.0939  0.2644
54391W        W97329   0.595  19.129   6.652  0.1327 -0.1503  0.0339
54392W        W97330  33.931  18.577   3.527 -0.1775  0.2336 -0.3439
54393W        W97331   0.266  20.400   6.312 -0.1983 -0.0128 -0.0616
54394W        W97332  33.911  20.608   6.222 -0.2151 -0.0726 -0.0237
54395W        W97333   0.035  20.437   6.756 -0.0675  0.0083 -0.0259
54396W        W97334  33.536  18.166   7.195 -0.1278  0.1848  0.0624
54397W        W97335  32.705  20.102   6.455 -0.0935  0.3654  0.1163
54398W        W97336   0.153  18.895   6.834  0.1868  0.2371 -0.1251
54399W        W97337  34.001  21.137   7.641 -0.2914  0.0383 -0.1238
54400W        W97338  34.629  19.032   5.453  0.0693  0.0509  0.0675
54401W        W97339  33.526  19.383   5.784 -0.1140 -0.0511  0.1305
54402W        W97340   0.607  19.470   5.407  0.1079 -0.0000  0.0273
54403W        W97341   0.390  19.952   6.485  0.0974 -0.2711 -0.0396
54404W        W97342   0.206  19.772   5.169 -0.0513 -0.0982  0.1683
54405W        W97343   0.801  21.737   4.327  0.3534  0.0495 -0.2114
54406W        W97344  33.543  18.533   6.345 -0.1878 -0.0167  0.1525
54407W        W97345  34.135  19.706   5.060  0.0303 -0.0846  0.0883
54408W        W97346  34.219  20.801   5.855  0.1708 -0.2632 -0.3491
54409W        W97347  33.753  18.997   6.088 -0.0535  0.1997  0.0525
54410W        W97348   0.048  20.997   6.172 -0.0249  0.0755  0.0108
54411W        W97349  34.545  20.770  10.247  0.1157 -0.0240  0.0801
54412W        W97350  33.737  19.852   7.529 -0.2320 -0.3006  0.1214
54413W        W97351  33.623  18.901   7.985  0.0983  0.1757  0.0337
54414W        W97352  33.818  15.749   9.825 -0.0218 -0.0090 -0.3547
54415W        W97353   0.198  18.138   7.543 -0.2336  0.0131  0.0460
54416W        W97354  32.934  17.985   9.314  0.2232 -0.1923 -0.1160
54417W        W97355  33.937  19.367   6.612  0.5646 -0.0119 -0.0984
54418W        W97356  33.115  19.399   9.327  0.5056  0.1760 -0.1076
54419W        W97357   0.304  18.439   8.600 -0.0661 -0.1170 -0.0502
54420W        W97358   0.262  17.026   9.210 -0.0788 -0.1656  0.0044
54421W        W97359   0.222  20.524   8.554 -0.1280  0.2842 -0.2155
54422W        W97360   1.206  19.023   8.150  0.0127 -0.2873  0.3472
54423W        W97361  33.047  20.020   8.603 -0.1077 -0.0388  0.1524
54424W        W97362   0.033  18.091   8.949  0.0342  0.1036 -0.0089
54425W        W97363   0.987  22.290   9.933  0.2390 -0.0113  0.0784
54426W        W97364   0.093  22.126   9.360  0.2316  0.2964 -0.0891
54427W        W97365  33.395  21.965   9.171 -0.2388  0.3041 -0.1434
54428W        W97366  32.563  21.914   9.206 -0.1852 -0.2231 -0.2124
54429W        W97367  33.448  20.730   8.143 -0.2728 -0.0578 -0.2944
54430W        W97368  33.680  20.359   7.666 -0.0067 -0.1378 -0.1461
54431W        W97369  33.502  20.356   8.595  0.4114 -0.0205 -0.1213
54432W        W97370   2.689  19.783   9.525 -0.0186  0.1101  0.3994
54433W        W97371  33.496  20.891   7.680  0.4601  0.0609 -0.2465
54434W        W97372  34.339  20.440   8.067 -0.1525  0.3096  0.2692
54435W        W97373   0.709  19.458   7.817  0.2082  0.0137 -0.2884
54436W        W97374  34.578  18.316   8.429  0.0314 -0.0430 -0.0144
54437W        W97375   0.106  21.509   8.699  0.0684  0.3831  0.0085
54438W        W97376  33.679  16.720   8.803  0.0013  0.0641  0.1146
54439W        W97377  30.345  19.087   8.709 -0.0525 -0.0811 -0.1462
54440W        W97378  34.209  19.882   8.207 -0.0290 -0.1635  0.1283
54441W        W97379  34.595  19.416   9.329  0.1761 -0.2195  0.2561
54442W        W97380  34.562  19.041   7.837  0.0626 -0.3888 -0.0009
54443W        W97381   0.202  18.429   9.757  0.1916  0.5611 -0.2416
54444W        W97382  34.409  20.265   9.072  0.1052 -0.2004  0.5048
54445W        W97383   0.116  19.995   6.946  0.1920  0.1371 -0.1395
54446W        W97384  32.514  21.072   8.155  0.0646  0.3010  0.0764
54447W        W97385  34.090  21.754   7.674  0.0552  0.1206  0.0873
54448W        W97386  32.493  21.341   9.309  0.1390 -0.0096  0.1364
54449W        W97387  33.145  19.358   6.130 -0.3524 -0.1734  0.0935
54450W        W97388  32.233  20.573   8.048 -0.2898  0.2646 -0.2693
54451W        W97389  33.746  23.048   9.967  0.1998  0.2157 -0.1614
54452W        W97390  33.745  21.257   8.710  0.0378  0.4914  0.1301
54453W        W97391  34.270  19.181   9.677  0.0319 -0.3773 -0.0517
54454W        W97392  34.158  18.564   8.473 -0.0760  0.0299 -0.2899
54455W        W97393  34.384  18.725   9.774  0.4674  0.1217  0.1057
54456W        W97394  33.659  18.518   7.651  0.1055 -0.1423  0.2135
54457W        W97395  34.653  19.552   7.973  0.1384 -0.3353 -0.2472
54458W        W97396  33.516  19.891   8.337  0.1185 -0.1358  0.2268
54459W        W97397  34.241  17.884   9.353  0.0068  0.0120 -0.3477
54460W        W97398   0.304  18.586   6.499 -0.2531 -0.0989  0.0438
54461W        W97399   1.642  23.090  10.122 -0.1373  0.1011 -0.0544
54462W        W97400  34.415  21.245   9.033 -0.0012 -0.1767  0.0584
54463W        W97401  33.679  19.172   8.802  0.2954  0.1208 -0.1752
54464W        W97402  34.099  18.371   7.857 -0.0050  0.2612 -0.0641
54465W        W97403  34.004  21.551   6.714 -0.4130 -0.0588  0.1919
54466W        W97404  33.759  19.260   8.253  0.0900 -0.0170  0.2042
54467W        W97405   0.517  21.146   8.966 -0.1245  0.0358 -0.0012
54468W        W97406  34.690  19.125   8.329 -0.1920 -0.2412  0.1466
54469W        W97407  34.465  19.883   9.477  0.1507 -0.1713  0.0901
54470W        W97408  34.242  20.755   9.421 -0.0614  0.3214  0.0338
54471W        W97409  33.079  21.447   9.757  0.2739  0.0435 -0.0125
54472W        W97410  33.362  16.023   9.653 -0.1871 -0.0462 -0.1333
54473W        W97411   0.689  19.130   8.357  0.1098  0.1325 -0.2717
54474W        W97412  32.907  21.488   5.359 -0.2007 -0.0127  0.2084
54475W        W97413  33.835  20.198   8.125  0.1208 -0.1952  0.0725
54476W        W97414   0.268  16.829   7.769 -0.0620 -0.2848  0.0797
54477W        W97415  33.302  20.890   8.753 -0.1641  0.0488 -0.0483
54478W        W97416  34.003  22.222   8.533  0.2049  0.5304 -0.0662
54479W        W97417   0.020  21.004   8.694  0.0376  0.0088 -0.1368
54480W        W97418  34.318  17.304   9.236 -0.0363  0.1051  0.1654
54481W        W97419   0.180  22.979   9.072 -0.0839  0.0626 -0.1511
54482W        W97420  34.424  20.409   7.239  0.1941  0.0947 -0.0102
54483W        W97421  33.767  21.409   7.989  0.2399 -0.0840 -0.2376
54484W        W97422  33.253  21.771   8.276  0.2427  0.1974 -0.1097
54485W        W97423   0.634  19.755   7.422 -0.0356  0.1070  0.2136
54486W        W97424  34.546  19.340   8.791  0.1039 -0.3297  0.2529
54487W        W97425  32.789  20.722   9.345  0.4764 -0.0013 -0.2040
54488W        W97426   0.489  17.948   8.734 -0.4059  0.1403  0.1398
54489W        W97427   0.457  21.997   9.688  0.1691 -0.0912  0.0466
54490W        W97428  34.105  19.265   7.701  0.2450 -0.0863 -0.0313
54491W        W97429   0.351  19.182   9.188 -0.2795  0.2111 -0.0629
54492W        W97430  32.926  21.023   8.448  0.1063  0.0710  0.2062
54493W        W97431  33.922  20.106   8.613  0.0701 -0.2189  0.1290
54494W        W97432   0.757  20.276   9.775 -0.0188 -0.0330 -0.5251
54495W        W97433   1.355  18.215  10.094  0.2418  0.2906  0.1158
54496W        W97434  34.525  18.774   8.704  0.0906  0.1272 -0.2458
54497W        W97435   0.616  18.932   9.986  0.1702  0.2582 -0.0473
54498W        W97436  34.093  20.253  12.450  0.2556 -0.1868  0.0946
54499W        W97437  34.329  19.725   7.668  0.1034 -0.0717  0.1593
54500W        W97438  34.222  20.977   9.863  0.1350  0.5241 -0.0049
54501W        W97439  33.357  21.214   8.296  0.0573 -0.0875 -0.2540
54502W        W97440   0.653  17.469   8.853  0.1782  0.0102  0.1547
54503W        W97441   1.922  20.247  12.286  0.1972  0.1355 -0.0327
54504W        W97442  34.056  20.685   7.448 -0.4728 -0.0872 -0.3114
54505W        W97443  32.263  24.321   9.575  0.2088  0.0650  0.4407
54506W        W97444   0.399  17.103   8.619 -0.0873 -0.1395 -0.2935
54507W        W97445  34.448  17.837   7.575  0.1454 -0.1059  0.2224
54508W        W97446  33.676  18.985   7.479 -0.2118 -0.4226 -0.2701
54509W        W97447   1.301  18.760   9.051 -0.2883 -0.0974 -0.1940
54510W        W97448  32.812  20.640   8.067 -0.0803  0.0906  0.0940
54511W        W97449  33.719  20.538   9.622  0.0755  0.1788  0.2249
54512W        W97450   0.279  18.629   9.137  0.1028  0.2789  0.2427
54513W        W97451  33.123  21.052   7.361 -0.2036 -0.3038 -0.2176
54514W        W97452  33.877  21.980   8.081 -0.1456 -0.2241  0.1133
54515W        W97453   1.861  19.727   7.623 -0.1873  0.0366  0.2827
54516W        W97454   0.009  21.417   8.214  0.2402 -0.0727  0.0535
54517W        W97455  34.610  20.177  10.226 -0.2207 -0.0079  0.1074
54518W        W97456  34.670  18.927   7.281 -0.3109 -0.1214 -0.1384
54519W        W97457   0.888  17.737   8.537 -0.0682  0.1675  0.1192
54520W        W97458   0.455  20.598   9.614  0.2165  0.1870 -0.1358
54521W        W97459   0.947  17.996   6.862  0.1247  0.0063 -0.1315
54522W        W97460  33.368  20.010   7.791  0.1149  0.1134 -0.0006
54523W        W97461  32.714  20.947   8.892 -0.0926 -0.0671  0.1573
54524W        W97462   0.013  22.266   9.865 -0.0273  0.3068  0.0092
54525W        W97463   1.219  20.503   9.808  0.0010  0.1606  0.0949
54526W        W97464  33.903  20.604   8.488 -0.0035 -0.3990  0.0534
54527W        W97465  34.291  21.269   8.571  0.5033  0.0613 -0.1290
54528W        W97466   0.152  18.645   8.091 -0.0593  0.0695 -0.0354
54529W        W97467  33.800  18.586   9.911  0.0064  0.0890 -0.0842
54530W        W97468  32.721  20.982   6.886  0.2053 -0.1278 -0.1257
54531W        W97469   0.349  18.178   8.194  0.2083 -0.2466 -0.0082
54532W        W97470  32.367  20.458   9.129 -0.1338 -0.0812 -0.2357
54533W        W97471  33.131  22.301   6.189 -0.2061 -0.1882  0.1565
54534W        W97472   0.498  22.257   9.094 -0.2012 -0.1424 -0.0476
54535W        W97473   1.136  20.165   8.984 -0.0030  0.4198 -0.3280
54536W        W97474   0.606  18.664   8.204 -0.0418 -0.0466  0.0320
54537W        W97475  34.538  17.816   8.515 -0.0740  0.1150  0.1074
54538W        W97476   0.664  19.782   9.202 -0.3136 -0.0588 -0.0256
54539W        W97477  34.464  20.735   8.432  0.2250 -0.1036 -0.1916
54540W        W97478   0.593  21.165   8.478 -0.1539  0.1307 -0.2419
54541W        W97479  33.361  19.760   9.612 -0.1141  0.1074  0.0447
54542W        W97480  33.777  21.331   9.928 -0.1006  0.0292  0.0985
54543W        W97481  32.833  18.797   7.400  0.2043 -0.0151  0.0407
54544W        W97482  33.257  20.523   9.212  0.3646 -0.1974  0.0809
54545W        W97483  33.748  20.481   9.066 -0.0471 -0.1311 -0.1285
54546W        W97484  34.302  19.898   9.920 -0.1859 -0.1916 -0.2428
54547W        W97485   1.208  19.480   7.730 -0.0150 -0.2320  0.1177
54548W        W97486  33.733  18.193   8.608  0.2049 -0.4233 -0.0995
54549W        W97487  34.441  19.824   8.865 -0.2531  0.3937  0.1357
54550W        W97488  33.261  20.754   9.790 -0.0505  0.0918  0.0821
54551W        W97489  33.619  17.508   7.806 -0.0378  0.1387  0.1472
54552W        W97490  34.232  22.631   8.217 -0.0192 -0.1384  0.3833
54553W        W97491  33.927  21.354   9.440 -0.0229  0.2847  0.0515
54554W        W97492   0.617  17.815   7.787  0.0811 -0.4412 -0.1556
54555W        W97493  34.031  18.410   9.459 -0.2805 -0.4973 -0.0815
54556W        W97494  32.589  21.808   8.538  0.1106 -0.0793 -0.3743
54557W        W97495  34.349  22.074   8.223 -0.1076 -0.0240 -0.0354
54558W        W97496  32.356  19.548   8.906  0.0658 -0.0278  0.0841
54559W        W97497  33.124  20.034   6.804 -0.1099 -0.4048 -0.0517
54560W        W97498  33.931  20.683   7.917 -0.1374 -0.1814 -0.0739
54561W        W97499  33.882  21.025   8.294  0.1976 -0.2011 -0.0831
54562W        W97500   1.200  18.180   8.786  0.2330  0.1134 -0.2657
54563W        W97501   0.050  19.700   9.905 -0.0006  0.0815 -0.0920
54564W        W97502   0.632  20.312   8.767  0.1211 -0.2442 -0.0395
54565W        W97503  32.738  19.278   7.399  0.1375  0.1402  0.1849
54566W        W97504  34.598  20.577   7.687 -0.0211  0.1087 -0.0472
54567W        W97505  34.303  20.479   9.893 -0.1152 -0.0078  0.0069
54568W        W97506  32.410  20.603   8.656 -0.0447 -0.2121 -0.0311
54569W        W97507  33.591  18.330   8.129 -0.0096 -0.2270 -0.1834
54570W        W97508  33.780  17.280   8.818 -0.0880  0.2025  0.0366
54571W        W97509   0.578  18.235   9.455 -0.0542 -0.1750  0.2079
54572W        W97510   0.914  18.753   8.623  0.0747 -0.2648  0.0169
54573W        W97511  33.838  19.902   6.711 -0.1880  0.1871 -0.1725
54574W        W97512  33.844  17.732   6.459 -0.1155 -0.1456  0.0466
54575W        W97513   0.571  18.720   9.517  0.3772 -0.3001 -0.0895
54576W        W97514   0.008  18.080   9.465  0.3852 -0.1136 -0.2675
54577W        W97515  34.162  17.422   7.584  0.1563 -0.1786  0.0542
54578W        W97516  32.948  20.591   7.282  0.1782 -0.0979 -0.1951
54579W        W97517   2.348  19.373   6.904 -0.1272  0.0556 -0.0024
54580W        W97518   0.358  19.138   8.012 -0.1879 -0.1280 -0.0002
54581W        W97519   0.057  20.891   9.765 -0.5651  0.3164  0.0666
54582W        W97520  34.581  18.990   9.140  0.1885 -0.1242  0.2023
54583W        W97521   0.599  19.817   8.668 -0.1127  0.1945  0.3460
54584W        W97522   0.396  20.635   9.047 -0.0674  0.0576  0.3739
54585W        W97523  34.003  19.594   9.490 -0.4354  0.1169  0.0744
54586W        W97524  33.965  19.845   9.046  0.2113  0.1116  0.1211
54587W        W97525  34.679  26.593   1.648 -0.0588  0.2172 -0.1192
54588W        W97526   0.799  22.717   1.464 -0.1944 -0.0743  0.0867
54589W        W97527  34.669  22.551   1.802  0.2510  0.2023 -0.1221
54590W        W97528  33.045  22.944   4.030  0.2211 -0.1202 -0.1075
54591W        W97529  32.531  23.609   2.500 -0.1305 -0.3405  0.1969
54592W        W97530   0.023  25.957   3.645  0.3165  0.1440  0.0507
54593W        W97531  34.267  22.222   1.762  0.1016 -0.2999  0.0599
54594W        W97532  33.318  21.817   0.826 -0.0787  0.2311  0.2383
54595W        W97533  32.892  24.418   0.513 -0.1155 -0.3751  0.1049
54596W        W97534  33.104  23.674   3.267 -0.0526 -0.5277  0.0612
54597W        W97535   0.720  21.830   2.523 -0.2380 -0.3934 -0.2775
54598W        W97536  34.442  23.683   2.290 -0.1281 -0.1246 -0.0300
54599W        W97537  33.031  26.312   0.454 -0.3639  0.2813  0.0107
54600W        W97538  33.933  23.003   0.382 -0.0008 -0.0904  0.2519
54601W        W97539  32.109  23.856   1.096 -0.0792 -0.1661 -0.2958
54602W        W97540  33.901  24.606   3.029 -0.3560 -0.0292 -0.3513
54603W        W97541  34.552  25.274   0.755  0.0339 -0.0145  0.0196
54604W        W97542   1.313  24.472   2.634 -0.0714 -0.0617  0.3251
54605W        W97543  31.319  24.277   0.920 -0.1733  0.1188 -0.1830
54606W        W97544  33.483  25.347   1.280  0.1189 -0.4884 -0.0988
54607W        W97545  34.065  25.509   2.037  0.1004 -0.0346 -0.2842
54608W        W97546  34.339  25.090   2.325  0.1622 -0.3244 -0.0761
54609W        W97547  32.065  24.762   0.349 -0.1883 -0.0559  0.0253
54610W        W97548  33.855  26.379   2.646 -0.0437  0.0444  0.2111
54611W        W97549   1.021  23.612   0.457  0.1955 -0.0794 -0.0670
54612W        W97550   0.633  24.064   2.086  0.1686 -0.2079  0.1921
54613W        W97551  34.514  24.939   3.835 -0.4627  0.1556 -0.1014
54614W        W97552  32.045  25.178   1.635 -0.3729 -0.3172  0.0041
54615W        W97553  32.154  25.634   0.631  0.2668  0.1636  0.0864
54616W        W97554  34.227  23.402  31.404  0.1215  0.0529 -0.3485
54617W        W97555  33.834  21.584   0.799 -0.3192 -0.1610  0.0354
54618W        W97556  34.587  24.669   1.182 -0.2891  0.0818 -0.1347
54619W        W97557   0.138  22.628   3.852 -0.1321  0.1495  0.0406
54620W        W97558  33.996  25.350   2.651 -0.0240 -0.2449  0.1320
54621W        W97559  32.771  24.689   1.282  0.0950 -0.2592 -0.1483
54622W        W97560  33.215  23.753   1.454  0.1235  0.0697  0.1752
54623W        W97561  32.835  24.544   3.287  0.1458 -0.1532  0.1337
54624W        W97562  33.661  23.572   4.100  0.1958  0.1155 -0.1485
54625W        W97563   0.507  21.785   1.949  0.2404  0.0570  0.3753
54626W        W97564  31.712  24.981   1.948 -0.1415  0.0869 -0.0680
54627W        W97565  32.825  23.959   1.878 -0.0627  0.1278 -0.3980
54628W        W97566   0.079  24.316   0.928  0.0432  0.0562 -0.1744
54629W        W97567  33.190  23.587   1.009 -0.1380 -0.3058  0.1665
54630W        W97568  33.294  23.814   1.957 -0.2921  0.0601 -0.0622
54631W        W97569  34.119  23.007   3.574  0.0186 -0.0314  0.1350
54632W        W97570  33.808  26.168   3.445  0.0618  0.0339  0.0369
54633W        W97571  31.881  24.727  30.926  0.0002  0.1169  0.0352
54634W        W97572  31.860  25.219   0.710  0.1783 -0.3331 -0.0611
54635W        W97573  32.364  24.365   0.559 -0.1864 -0.3165 -0.1133
54636W        W97574  32.625  24.591   2.096  0.2048 -0.1422  0.1887
54637W        W97575  33.651  24.113   1.606  0.1732 -0.1658 -0.1120
54638W        W97576  33.136  22.891   2.638  0.1662  0.1776 -0.0928
54639W        W97577  34.117  24.943   0.687  0.0001  0.0697 -0.0519
54640W        W97578  32.271  24.108   2.015 -0.0961 -0.0063 -0.0152
54641W        W97579  33.530  23.087   1.153 -0.0128  0.0126 -0.1316
54642W        W97580  32.451  22.173   4.477  0.3069 -0.3093  0.0252
54643W        W97581  32.792  22.631   2.354  0.1127  0.1103 -0.1739
54644W        W97582  33.385  23.594   0.017 -0.1285  0.3749  0.0031
54645W        W97583   0.434  22.442   1.219  0.0847  0.0804 -0.0858
54646W        W97584  31.315  26.493   0.818 -0.0879 -0.1932  0.0857
54647W        W97585  31.858  22.795   3.377  0.0370  0.1650  0.0296
54648W        W97586  32.123  23.512   0.167 -0.0627  0.2243  0.1190
54649W        W97587  34.046  25.840   2.909 -0.0325 -0.1102  0.1866
54650W        W97588  32.996  24.976   1.962 -0.2092  0.0867 -0.0214
54651W        W97589   0.780  22.707   2.038  0.0791  0.2126 -0.1836
54652W        W97590  32.265  24.005   4.160 -0.0148  0.1201  0.1945
54653W        W97591   0.614  21.904  30.624  0.2503  0.0372 -0.1790
54654W        W97592  31.503  26.475   1.333 -0.3733  0.0684  0.2014
54655W        W97593  32.807  24.014   1.013  0.0403 -0.2372 -0.0741
54656W        W97594   0.359  24.455   0.481 -0.0393  0.1819 -0.0915
54657W        W97595  32.663  24.389   2.848  0.0974  0.2004 -0.2089
54658W        W97596  33.584  24.405  30.625  0.1452  0.1503 -0.1472
54659W        W97597  33.659  25.498   3.077  0.1519  0.1755  0.1237
54660W        W97598  31.676  24.560   3.904  0.2437  0.0117 -0.2273
54661W        W97599   1.307  25.792   1.123  0.1122  0.1191  0.2295
54662W        W97600   0.527  26.442   1.926  0.2677  0.1488  0.1202
54663W        W97601  31.754  25.092   3.012  0.1041 -0.0602 -0.0820
54664W        W97602  34.586  22.927   3.478 -0.1431 -0.2007 -0.3143
54665W        W97603   0.471  22.804  31.627 -0.1956 -0.2084  0.1483
54666W        W97604  31.814  25.222   0.194  0.3034  0.1636 -0.1538
54667W        W97605  34.431  22.417   2.223 -0.1565  0.1474  0.1126
54668W        W97606   0.650  22.533   3.803 -0.0825  0.1896 -0.1006
54669W        W97607  32.605  25.211   3.614  0.0338 -0.0747  0.1085
54670W        W97608  32.300  23.775   3.441  0.1013  0.2334  0.0683
54671W        W97609  34.635  24.455   3.853  0.0062 -0.0877 -0.0549
54672W        W97610  34.500  25.322  31.756  0.0315  0.0333  0.2466
54673W        W97611  34.207  24.424  31.903 -0.0107  0.4618 -0.0817
54674W        W97612   0.195  21.332   1.765  0.4911 -0.1108  0.0669
54675W        W97613  34.561  25.800   4.081 -0.1572 -0.1295  0.1221
54676W        W97614  32.971  25.244  31.754 -0.0168 -0.2116 -0.0061
54677W        W97615  34.180  24.006   0.275 -0.1770 -0.1407  0.4110
54678W        W97616  34.134  23.729   1.396 -0.0248  0.1979 -0.0819
54679W        W97617   0.420  23.337   1.331 -0.2915 -0.0564  0.0733
54680W        W97618  33.344  24.198   0.674  0.2047 -0.0465 -0.1608
54681W        W97619  34.114  23.761   2.748  0.2313  0.4004 -0.0718
54682W        W97620  34.631  22.408   1.313  0.0591 -0.0638 -0.0505
54683W        W97621  33.292  26.012   1.836 -0.2017 -0.2077 -0.0847
54684W        W97622  34.191  24.455   2.552 -0.2714  0.2734  0.1119
54685W        W97623  33.382  23.189   0.659  0.2574  0.0970 -0.2889
54686W        W97624  34.439  23.146   2.160 -0.1590  0.0853 -0.2224
54687W        W97625   0.174  23.197   0.882  0.2099 -0.1040  0.0487
54688W        W97626  34.257  24.330  31.442  0.3846  0.0001 -0.0959
54689W        W97627  33.769  23.510   0.474 -0.3953  0.1590 -0.1928
54690W        W97628  33.831  21.922   2.609  0.1652  0.3212 -0.2793
54691W        W97629  34.217  23.373   3.199  0.3452  0.0714  0.0068
54692W        W97630  33.222  23.245   1.482  0.2312 -0.1194  0.1999
54693W        W97631  33.638  23.475   1.413  0.0468  0.2299 -0.1444
54694W        W97632  33.438  24.811   2.171  0.1296 -0.1566 -0.1054
54695W        W97633  34.357  25.245   4.223  0.2654  0.1450  0.1510
54696W        W97634  33.594  24.694   0.773 -0.0500 -0.0887 -0.0387
54697W        W97635  33.008  24.503   2.460 -0.2943 -0.3844  0.1253
54698W        W97636   0.026  25.458   0.230  0.0842  0.0308  0.0837
54699W        W97637  34.610  24.088   2.576  0.1374  0.2685  0.0641
54700W        W97638  32.711  25.425   2.840  0.1248  0.0367  0.2081
54701W        W97639   0.343  25.270  31.795  0.2581 -0.1598  0.1028
54702W        W97640  33.954  25.321   1.487 -0.0448  0.0524  0.0678
54703W        W97641   0.896  23.542   2.118  0.0916  0.1768 -0.1465
54704W        W97642  32.867  22.176   2.320  0.2340  0.1476 -0.5070
54705W        W97643  31.849  24.367   2.759 -0.0334 -0.0539  0.0093
54706W        W97644  32.744  24.047   3.187 -0.0090 -0.2830 -0.4478
54707W        W97645  34.695  23.775   0.171  0.1314 -0.2356 -0.4226
54708W        W97646  34.435  24.164   1.287 -0.4004 -0.0499 -0.0817
54709W        W97647   0.229  23.214  30.825 -0.0527 -0.1415  0.0523
54710W        W97648  33.564  24.009   3.186 -0.2118  0.1066  0.0762
54711W        W97649   0.073  26.486   0.481 -0.0427  0.0287  0.1378
54712W        W97650  33.119  25.580   1.604  0.0622 -0.0038 -0.1331
54713W        W97651   0.282  23.257   2.682 -0.0197 -0.0711  0.0224
54714W        W97652  33.778  24.174   2.709  0.0499  0.1368  0.2429
54715W        W97653  33.265  23.447   3.850  0.3850  0.0704 -0.2401
54716W        W97654  32.462  24.947   1.718  0.1183  0.0389 -0.2592
54717W        W97655  34.500  21.584  31.421 -0.0830  0.0914  0.0220
54718W        W97656   1.672  25.366   0.391  0.3077  0.1323  0.1270
54719W        W97657  34.065  23.299   1.828 -0.0029  0.1635  0.2951
54720W        W97658  33.414  26.736   4.038  0.2556  0.1078 -0.1113
54721W        W97659  33.324  22.427   0.189 -0.0517 -0.1559 -0.1485
54722W        W97660  34.050  24.530   0.943  0.0965 -0.1253 -0.2786
54723W        W97661   2.281  26.050   2.719 -0.1477  0.3009 -0.3018
54724W        W97662   0.885  23.298   0.807  0.0624 -0.0253 -0.0403
54725W        W97663  32.839  24.335  31.975  0.0450 -0.0224 -0.2521
54726W        W97664  33.453  24.563   2.666  0.0649  0.0522  0.1115
54727W        W97665  32.591  23.591   3.040 -0.0452  0.3200 -0.1614
54728W        W97666  33.010  24.225   1.458 -0.1540 -0.0684  0.0687
54729W        W97667   0.990  24.451   1.226  0.1316 -0.2723 -0.2454
54730W        W97668   0.006  24.539   1.725  0.3621  0.1415 -0.3798
54731W        W97669  33.632  25.047   2.929 -0.1652  0.1345 -0.2917
54732W        W97670  33.119  24.166   3.456  0.0940 -0.0084  0.1202
54733W        W97671  34.120  22.391   1.100 -0.2121 -0.3754  0.3436
54734W        W97672  32.626  25.012   3.099 -0.2125  0.1919  0.3840
54735W        W97673  34.356  25.427   3.128  0.0594 -0.2282  0.0915
54736W        W97674  33.298  24.471   0.288 -0.3487  0.0747 -0.3844
54737W        W97675   1.288  23.703   0.838 -0.0257 -0.2105  0.0164
54738W        W97676  32.943  25.462   2.068 -0.3062 -0.0444 -0.0059
54739W        W97677  33.422  24.387  31.761  0.1065 -0.0148 -0.1886
54740W        W97678  33.288  24.612   1.566 -0.2194 -0.2405  0.2036
54741W        W97679  33.626  24.332   2.228 -0.1338  0.1003  0.1620
54742W        W97680   1.052  23.379  31.980 -0.2161  0.0073  0.0085
54743W        W97681  34.117  23.786   4.217  0.1019 -0.1575  0.0146
54744W        W97682  32.207  25.254   2.608 -0.3249  0.2578 -0.1268
54745W        W97683  33.223  22.614   1.618 -0.1643 -0.0990 -0.4076
54746W        W97684  33.746  24.596   1.700  0.2738 -0.2427  0.1847
54747W        W97685  34.351  24.089   0.745 -0.0726 -0.0470 -0.1053
54748W        W97686   0.233  26.324   0.936 -0.1852 -0.2693 -0.3419
54749W        W97687  33.900  25.014   1.976  0.0979 -0.3757  0.1325
54750W        W97688  33.231  25.481   2.750 -0.0859 -0.2765 -0.0684
54751W        W97689  32.591  22.471   0.579 -0.2294  0.1051  0.2734
54752W        W97690  33.143  24.597   3.725  0.0519  0.2388 -0.1925
54753W        W97691  33.747  22.614   1.273 -0.1129  0.1654 -0.1791
54754W        W97692  33.677  23.172   3.755  0.0592  0.0606 -0.1608
54755W        W97693   1.185  24.170   0.819  0.3980  0.0935 -0.3431
54756W        W97694  32.407  24.307   1.141  0.0663  0.3228  0.0411
54757W        W97695  32.251  24.700   1.363  0.0640  0.0863  0.1538
54758W        W97696   0.276  23.746   2.406  0.0561  0.1615 -0.2457
54759W        W97697  32.974  22.809   0.084 -0.0522  0.2318  0.0149
54760W        W97698  33.322  24.610  31.214  0.0263 -0.0137  0.1175
54761W        W97699  32.109  23.533   2.795  0.0550 -0.1598 -0.0962
54762W        W97700  34.124  22.833   1.470  0.1410 -0.1047  0.2437
54763W        W97701  32.619  24.157   2.384  0.3498 -0.0317 -0.2641
54764W        W97702  33.683  24.963   0.367  0.1042 -0.1893 -0.1344
54765W        W97703  33.828  24.177   0.641  0.1000 -0.3677 -0.0541
54766W        W97704  34.067  25.104   3.520  0.1094 -0.0712 -0.0328
54767W        W97705   0.380  25.661   4.213  0.0014 -0.0686 -0.3474
54768W        W97706  32.638  23.595   0.098  0.0504 -0.0310 -0.0158
54769W        W97707  33.580  25.449   2.385  0.1948 -0.1450  0.0891
54770W        W97708   0.351  24.727   0.942  0.2869 -0.0947 -0.0807
54771W        W97709  33.548  24.388   1.186  0.1031  0.0207 -0.0095
54772W        W97710   0.698  21.988   1.229  0.4594  0.0162  0.0909
54773W        W97711  33.564  23.346   1.965  0.1441  0.0985 -0.2719
54774W        W97712  34.639  24.034   3.194  0.0187  0.3288 -0.0893
54775W        W97713  33.576  24.141  31.109 -0.0198 -0.4339  0.0167
54776W        W97714  33.054  23.323   0.267  0.3124 -0.1052  0.0684
54777W        W97715  33.220  24.931   1.136  0.0142  0.5151  0.0275
54778W        W97716   1.330  22.689   2.899 -0.3056  0.0482 -0.0095
54779W        W97717  32.886  23.366   2.702 -0.0168 -0.3320 -0.3501
54780W        W97718  33.138  25.073   2.456  0.1611  0.0965 -0.0051
54781W        W97719  33.462  22.927   0.220  0.2939 -0.1393 -0.0170
54782W        W97720  32.754  21.517   2.662  0.0769  0.4458 -0.0548
54783W        W97721  31.900  23.084   1.664 -0.2956 -0.0090  0.0325
54784W        W97722   0.473  22.751   2.588 -0.0168 -0.0170  0.0114
54785W        W97723  34.506  25.420  30.738  0.4148  0.2177 -0.0323
54786W        W97724   0.414  22.896   3.562 -0.2905 -0.1068 -0.0862
54787W        W97725  34.015  22.133   3.181  0.2807  0.0229  0.0385
54788W        W97726  32.026  22.644  30.608  0.2764 -0.2327 -0.1282
54789W        W97727   1.210  23.066   2.246  0.0803  0.1108 -0.2147
54790W        W97728   0.392  24.816   2.986 -0.0172 -0.1459  0.1910
54791W        W97729  34.603  25.979   2.971 -0.3039  0.0386 -0.1798
54792W        W97730  33.636  23.724   2.365 -0.0048  0.2089 -0.0122
54793W        W97731   0.286  25.445   3.008 -0.1074  0.1277 -0.2603
54794W        W97732  31.442  21.867   3.037 -0.0448  0.1121  0.0070
54795W        W97733  34.261  25.545   3.797 -0.0915 -0.3762  0.2975
54796W        W97734  34.387  22.964   3.987 -0.2641 -0.0641 -0.1001
54797W        W97735   0.671  23.666   1.711 -0.1324  0.1677  0.0678
54798W        W97736   1.162  24.024   1.872  0.1582  0.1588  0.1377
54799W        W97737  34.072  24.043   2.230  0.1122  0.1129  0.0679
54800W        W97738  34.372  22.831   1.081 -0.0204  0.1875 -0.1327
54801W        W97739  34.209  24.996   2.938  0.2612  0.3505  0.0881
54802W        W97740   0.130  22.352   2.574  0.2329  0.0213 -0.2941
54803W        W97741  34.652  23.662   1.248 -0.2466  0.0237 -0.3130
54804W        W97742  34.428  23.686   1.787 -0.1954 -0.2012 -0.2341
54805W        W97743  32.954  23.662   2.248  0.1016 -0.4129  0.0772
54806W        W97744  31.963  26.606   2.813  0.1543  0.0810  0.0918
54807W        W97745  32.013  24.562   6.708 -0.0956  0.0264  0.1008
54808W        W97746  34.301  23.443   3.862 -0.0983 -0.1073  0.0518
54809W        W97747  33.506  21.876   4.498 -0.0112  0.2627  0.0380
54810W        W97748  33.040  21.029   6.478  0.0505  0.0379  0.0468
54811W        W97749  33.128  22.415   4.689 -0.1748 -0.1376 -0.0701
54812W        W97750  33.728  25.900   4.927 -0.2163 -0.0045 -0.1245
54813W        W97751   0.254  21.465   5.502 -0.3149  0.0797 -0.0977
54814W        W97752  31.783  22.424   6.015 -0.3190 -0.1965 -0.0739
54815W        W97753  32.671  23.530   5.118 -0.3221  0.1856 -0.2174
54816W        W97754  34.354  22.258   5.446 -0.1545 -0.6687  0.1723
54817W        W97755  33.930  22.671   4.552  0.1240 -0.2823 -0.1493
54818W        W97756   0.502  21.819   5.847  0.1452 -0.3215  0.1395
54819W        W97757  34.298  24.545   3.394 -0.0273  0.4319 -0.1310
54820W        W97758  32.786  24.058   4.386  0.0223 -0.0098  0.0064
54821W        W97759  33.347  24.063   5.583 -0.2833 -0.1462 -0.1754
54822W        W97760  33.634  24.806   5.876  0.1107  0.2043  0.2238
54823W        W97761  34.274  26.122   4.359 -0.0838 -0.0220 -0.2091
54824W        W97762   1.380  25.955   3.856 -0.1831  0.0242  0.3518
54825W        W97763  32.901  24.334   5.184  0.2386  0.0921  0.1737
54826W        W97764  32.365  25.705   5.297 -0.0633 -0.0908 -0.1582
54827W        W97765  33.171  25.071   4.571 -0.1815  0.1720  0.2465
54828W        W97766   0.101  25.451   6.288 -0.3717 -0.0583 -0.3079
54829W        W97767  32.122  24.759   4.504 -0.2300  0.1552  0.1625
54830W        W97768  32.043  24.754   6.218 -0.1431 -0.0022 -0.0190
54831W        W97769  33.618  24.445   3.962  0.1053  0.0625 -0.0537
54832W        W97770  33.236  24.537   4.324 -0.0084 -0.1223 -0.0396
54833W        W97771  34.007  25.294   5.717  0.0482 -0.2699 -0.1890
54834W        W97772  32.843  25.755   5.351 -0.4096  0.0530 -0.2619
54835W        W97773  33.558  25.029   3.592 -0.1397 -0.1173 -0.2515
54836W        W97774  33.885  22.263   3.666  0.0207 -0.1659  0.1609
54837W        W97775   0.614  22.317   5.687  0.0038 -0.0061 -0.3111
54838W        W97776  34.128  26.004   5.274 -0.1281 -0.3367  0.1272
54839W        W97777  33.008  22.980   4.509 -0.5001 -0.0671  0.0974
54840W        W97778  33.293  25.638   5.289 -0.1986 -0.2559 -0.0748
54841W        W97779  33.291  23.557   5.575 -0.3510  0.1539 -0.1888
54842W        W97780  33.591  23.772   4.676 -0.1631  0.0049 -0.0778
54843W        W97781  32.153  25.351   6.124  0.0694 -0.0060 -0.2854
54844W        W97782  33.820  25.660   5.396 -0.2577  0.1693  0.2228
54845W        W97783  33.694  22.979   3.199 -0.0872  0.1155 -0.0564
54846W        W97784  33.562  24.512   6.315 -0.2887 -0.0610  0.1883
54847W        W97785  33.357  24.962   5.051 -0.0556  0.1280  0.1983
54848W        W97786  33.357  26.306   3.775  0.1778  0.1216  0.1646
54849W        W97787  32.868  24.521   4.685 -0.0474  0.0406  0.1150
54850W        W97788  32.105  23.977   5.662 -0.0497 -0.5144 -0.0837
54851W        W97789   0.009  21.880   5.504 -0.0518 -0.0746  0.0743
54852W        W97790   0.565  23.640   7.092  0.0626 -0.0602  0.3753
54853W        W97791  31.895  24.773   3.414  0.2105 -0.1310 -0.0258
54854W        W97792  33.075  25.134   5.465 -0.0078  0.1544  0.1080
54855W        W97793  32.703  24.850   3.887  0.1324 -0.3169 -0.1319
54856W        W97794  32.073  22.041   5.846 -0.0495  0.0832 -0.0586
54857W        W97795  33.139  24.830   5.895 -0.1195 -0.0902 -0.0799
54858W        W97796  33.282  21.848   6.044  0.0401  0.1720  0.0049
54859W        W97797  32.276  24.045   2.704 -0.1983  0.0677  0.1013
54860W        W97798  32.403  24.547   5.868  0.2188  0.0473  0.0724
54861W        W97799  34.224  22.309   4.873 -0.4775 -0.2781  0.1680
54862W        W97800  33.835  22.230   7.514 -0.3811 -0.1691 -0.0379
54863W        W97801  32.751  21.180   4.434  0.1528  0.1168 -0.0354
54864W        W97802  32.665  22.338   5.050 -0.0718 -0.0099  0.1205
54865W        W97803  34.494  23.830   4.657 -0.1397  0.1583  0.0967
54866W        W97804  32.619  23.926   4.879 -0.0550 -0.2122 -0.3043
54867W        W97805   0.956  22.622   4.247 -0.1793 -0.0355 -0.1356
54868W        W97806  33.937  22.089   4.210 -0.1741 -0.0174  0.0050
54869W        W97807  31.657  25.499   4.838  0.2428 -0.0184 -0.0150
54870W        W97808  34.206  25.880   4.775  0.0515 -0.0134  0.1667
54871W        W97809   0.023  22.803   4.319  0.2560  0.0284 -0.2861
54872W        W97810  34.024  24.836   5.503 -0.0163 -0.0676 -0.2477
54873W        W97811  32.133  21.718   4.207  0.0104  0.1131  0.1195
54874W        W97812  32.378  26.174   1.988  0.3182  0.0985  0.2215
54875W        W97813  31.882  25.029   5.021  0.1105  0.0828 -0.0353
54876W        W97814  33.052  24.779   2.835 -0.1530  0.1898 -0.1415
54877W        W97815  32.407  24.058   6.702  0.2771  0.2869 -0.1350
54878W        W97816  32.734  23.308   4.037 -0.2173  0.2158 -0.0444
54879W        W97817  33.108  25.545   5.963 -0.3034  0.0219 -0.1723
54880W        W97818  32.472  24.472   6.353 -0.4134  0.1036 -0.2535
54881W        W97819   1.440  24.492   4.808 -0.1716  0.2363  0.1019
54882W        W97820  33.611  25.190   5.448  0.0283 -0.1754  0.1123
54883W        W97821  33.010  24.597   6.278  0.1134  0.0771  0.0038
54884W        W97822  33.947  21.220   5.568  0.2334 -0.0013 -0.0415
54885W        W97823   0.005  22.898   2.625 -0.1196  0.0396 -0.1534
54886W        W97824  31.928  24.198   3.589  0.0431 -0.0471 -0.1218
54887W        W97825  33.308  22.458   6.709  0.1672 -0.0284  0.0316
54888W        W97826  33.158  25.043   4.048 -0.1461 -0.2835  0.1963
54889W        W97827  34.663  24.325   5.452 -0.3074 -0.0379 -0.0694
54890W        W97828  33.781  22.473   5.448 -0.2154 -0.0072 -0.1078
54891W        W97829  33.977  26.322   4.743 -0.0059 -0.0937  0.0885
54892W        W97830  34.063  22.401   7.033  0.2177 -0.1787  0.2516
54893W        W97831  33.891  25.224   3.966  0.0813  0.1791  0.0141
54894W        W97832  34.029  24.822   4.355  0.0312  0.0867 -0.3261
54895W        W97833  34.320  22.013   6.784  0.1692 -0.3174 -0.2951
54896W        W97834   1.039  26.269   4.719  0.3195 -0.3055 -0.1059
54897W        W97835  34.603  24.544   2.836 -0.0289  0.0143  0.0731
54898W        W97836  31.342  24.850   3.460 -0.0216  0.1231 -0.5245
54899W        W97837  31.435  24.549   5.683 -0.2243  0.3891 -0.1255
54900W        W97838  33.423  23.778   2.772  0.1592  0.0257  0.1459
54901W        W97839  32.052  23.604   4.320 -0.2549 -0.3893 -0.1315
54902W        W97840  33.187  23.299   5.135  0.0167  0.0916 -0.3004
54903W        W97841   0.499  23.443   4.780  0.1085 -0.0185 -0.0001
54904W        W97842  33.525  25.286   6.022 -0.4052 -0.2798  0.0823
54905W        W97843  34.116  22.375   6.479 -0.0264  0.1470  0.1000
54906W        W97844  32.925  23.797   3.702 -0.0249 -0.3895 -0.1830
54907W        W97845  33.519  22.376   4.393 -0.3640 -0.0547  0.3409
54908W        W97846  32.282  24.754   5.311 -0.0821  0.1073 -0.0748
54909W        W97847  32.235  24.756   2.871  0.0396 -0.0702  0.0220
54910W        W97848  32.403  24.408   5.012 -0.1935 -0.0824  0.2673
54911W        W97849  34.102  22.798   6.202 -0.1844  0.0111 -0.0931
54912W        W97850  34.296  24.535   4.662  0.0973 -0.1821 -0.0862
54913W        W97851  33.663  20.883   5.855 -0.1803 -0.0135  0.0904
54914W        W97852  34.544  23.718   5.381  0.3010  0.0390 -0.1657
54915W        W97853  33.589  22.892   5.289 -0.0579 -0.2728 -0.1725
54916W        W97854  32.905  24.401   6.678  0.1130  0.0129  0.0145
54917W        W97855  33.023  25.001   3.486 -0.0010  0.2560 -0.1612
54918W        W97856  33.445  22.768   4.750  0.1836 -0.2187 -0.0009
54919W        W97857  34.399  22.937   4.667 -0.3062  0.1676 -0.0673
54920W        W97858  34.195  21.900   5.730  0.2187  0.0284 -0.5779
54921W        W97859  33.180  24.631   5.432  0.0638 -0.0382  0.1455
54922W        W97860  32.640  24.829   4.397 -0.0694 -0.2070 -0.4500
54923W        W97861  31.704  24.973   5.525 -0.4128 -0.3946  0.1144
54924W        W97862  34.177  23.394   4.676  0.0724  0.4343  0.0296
54925W        W97863  34.250  21.564   7.182 -0.1751  0.1601 -0.1929
54926W        W97864  34.119  22.765   5.077 -0.0210 -0.0614  0.1938
54927W        W97865  32.875  23.931   6.812 -0.0300 -0.0845 -0.0540
54928W        W97866  32.702  22.083   4.055  0.0681  0.5543  0.0186
54929W        W97867  33.880  24.616   4.968  0.1610  0.3079 -0.1614
54930W        W97868   0.826  23.857   3.407 -0.0857  0.2062 -0.0074
54931W        W97869  33.653  23.632   5.197  0.1213 -0.1188 -0.2872
54932W        W97870   0.366  24.526   2.076 -0.2302  0.0096 -0.4384
54933W        W97871  34.040  25.447   4.626  0.0111  0.0633 -0.0874
54934W        W97872  33.627  22.690   5.881  0.1702  0.2382 -0.0022
54935W        W97873  33.922  21.068   7.110 -0.1897  0.1765 -0.0828
54936W        W97874  33.916  21.993   4.684 -0.0919  0.2222  0.0591
54937W        W97875  33.726  21.836   6.304 -0.0871  0.0584  0.0834
54938W        W97876  33.171  24.173   2.950  0.2546  0.1056  0.1892
54939W        W97877  34.357  26.947   3.715  0.0655  0.0694 -0.3712
54940W        W97878  33.054  22.745   5.114  0.0279 -0.0255 -0.0527
54941W        W97879  32.570  25.365   6.400 -0.2199  0.0196 -0.0378
54942W        W97880  33.977  23.213   4.235  0.3461  0.3141  0.0035
54943W        W97881  33.669  24.085   5.090 -0.0006  0.0244 -0.1617
54944W        W97882   2.247  23.921   5.946  0.1104 -0.0811 -0.0919
54945W        W97883  34.579  21.814   4.065  0.2021 -0.1213  0.1947
54946W        W97884  31.006  22.897   4.822 -0.0538 -0.0462 -0.0919
54947W        W97885  33.638  26.370   5.061 -0.1625  0.0515  0.0022
54948W        W97886  31.591  24.494   6.995 -0.0016  0.0906 -0.0995
54949W        W97887  31.947  25.574   4.008 -0.1709  0.0765 -0.1808
54950W        W97888   1.130  23.462   5.281  0.1832  0.1797 -0.1045
54951W        W97889  34.405  25.710   5.556  0.3547 -0.1639  0.0670
54952W        W97890  32.165  25.400   4.928 -0.0295 -0.1706 -0.0134
54953W        W97891  33.657  22.327   6.253 -0.0653  0.0289 -0.2406
54954W        W97892  34.559  23.356   4.362  0.0459 -0.0608  0.0249
54955W        W97893  34.129  25.223   6.910 -0.0566 -0.0538  0.1835
54956W        W97894  32.834  23.282   5.563 -0.1243  0.0368 -0.1642
54957W        W97895  31.465  25.410   4.288 -0.1762  0.0686 -0.0309
54958W        W97896  34.186  23.270   5.167  0.3473  0.0093  0.1210
54959W        W97897  31.658  26.057   5.242 -0.0999 -0.2672 -0.2064
54960W        W97898  32.096  25.245   4.453  0.1092  0.0487 -0.3992
54961W        W97899  32.599  25.313   4.166  0.0907 -0.0569 -0.0300
54962W        W97900   0.459  22.883   4.954 -0.2791 -0.5544  0.2293
54963W        W97901  34.552  21.940   3.523  0.2473  0.1768 -0.0720
54964W        W97902  33.307  24.144   6.606  0.0066 -0.0536 -0.2839
54965W        W97903  33.677  26.140   5.992  0.1281  0.2296 -0.1994
54966W        W97904  32.327  23.067   4.256  0.3139  0.0596 -0.0930
54967W        W97905  34.416  24.757   5.268 -0.1013  0.0654 -0.2516
54968W        W97906  32.846  23.887   2.730 -0.1910  0.1998  0.2947
54969W        W97907  32.807  25.883   4.279 -0.3501  0.3051 -0.3483
54970W        W97908  34.470  25.517   5.066 -0.2616  0.1527  0.1301
54971W        W97909   1.337  24.581   5.983  0.2452  0.0663 -0.1805
54972W        W97910  32.774  23.834   5.518 -0.0162  0.1461 -0.1017
54973W        W97911  32.505  22.117   5.574 -0.1853  0.2253 -0.0500
54974W        W97912  33.381  24.562   3.193 -0.0937 -0.1930 -0.0813
54975W        W97913  34.647  22.107   4.981 -0.0901  0.1265  0.1785
54976W        W97914  34.116  23.795   5.147 -0.1780  0.1155 -0.1630
54977W        W97915  32.891  21.836   4.978  0.2124  0.0242  0.2127
54978W        W97916  33.471  23.267   4.427 -0.0787  0.2246  0.1936
54979W        W97917  33.931  23.390   5.642 -0.1445  0.2116 -0.1681
54980W        W97918  34.241  22.523   3.464  0.0594  0.0040 -0.2928
54981W        W97919  34.063  25.264   5.172 -0.2436 -0.2825  0.2060
54982W        W97920   0.486  22.581   4.533  0.1374 -0.4112  0.1090
54983W        W97921   0.525  20.938   5.741 -0.2340 -0.0536 -0.2174
54984W        W97922  32.761  24.411   4.073 -0.2289  0.2568 -0.0809
54985W        W97923  31.110  25.046   4.614 -0.1426  0.2632  0.3547
54986W        W97924  33.776  25.031   4.775  0.2288 -0.1506  0.2633
54987W        W97925   0.918  24.850   6.339  0.4022 -0.0382  0.0527
54988W        W97926  32.239  25.036   6.574 -0.3737 -0.2106 -0.1238
54989W        W97927  33.278  23.251   3.030  0.2216  0.1381 -0.3416
54990W        W97928  33.811  24.147   6.018  0.1439  0.0480  0.0366
54991W        W97929  34.391  25.041   4.762  0.2150  0.0782  0.1115
54992W        W97930   0.694  25.261   4.419 -0.1361 -0.1053 -0.0787
54993W        W97931   0.164  23.124   4.676 -0.1262 -0.0025 -0.0637
54994W        W97932  33.538  22.840   4.208  0.0371  0.1415  0.3479
54995W        W97933  34.346  24.032   5.747  0.1591 -0.2016 -0.2219
54996W        W97934  31.939  21.788   3.360  0.1868  0.0581  0.1420
54997W        W97935  33.611  24.039   4.243  0.0067  0.2320 -0.3685
54998W        W97936  32.073  24.771   7.134 -0.1773 -0.0654 -0.1694
54999W        W97937  34.248  21.862   6.248 -0.1278  0.1566  0.2006
55000W        W97938  33.819  23.939   5.572 -0.1231  0.0587 -0.1099
55001W        W97939  33.574  23.664   5.984 -0.3900  0.1937 -0.2478
55002W        W97940  33.891  22.023   5.233 -0.1495 -0.3322  0.1075
55003W        W97941  33.636  21.566   5.782 -0.4195 -0.1718 -0.0484
55004W        W97942  32.064  22.084   5.285  0.4300  0.1173  0.1569
55005W        W97943   0.143  22.285   4.318 -0.2436 -0.0726  0.2345
55006W        W97944  32.351  24.933   4.857 -0.0853 -0.0323  0.0117
55007W        W97945  34.597  24.417   5.955  0.1138  0.1285 -0.3525
55008W        W97946  33.804  22.069   6.784  0.0298  0.0655 -0.3364
55009W        W97947  32.688  21.051   3.546  0.0221  0.0120  0.2858
55010W        W97948   0.139  24.857   5.523  0.1888  0.3140  0.0576
55011W        W97949  33.836  25.736   6.257 -0.1630 -0.0993  0.0174
55012W        W97950  33.734  25.064   7.261  0.0805 -0.1034 -0.0641
55013W        W97951  32.904  21.089   5.685  0.0934 -0.4029 -0.1044
55014W        W97952  34.175  25.861   6.849  0.2044 -0.1576 -0.0999
55015W        W97953  33.061  21.987   6.977 -0.0370 -0.2641 -0.0320
55016W        W97954  33.784  24.034   6.940 -0.1601  0.0180  0.1284
55017W        W97955   0.264  21.680   4.969 -0.1748 -0.0585 -0.1075
55018W        W97956  33.362  24.490   4.966 -0.1644  0.0320  0.1330
55019W        W97957  34.122  24.142   3.144  0.1809  0.1296  0.0612
55020W        W97958  33.684  23.247   4.865 -0.0729 -0.2331 -0.2137
55021W        W97959  33.202  24.060   4.641  0.0783  0.1313  0.0135
55022W        W97960  34.109  24.470   5.802  0.3252 -0.0020  0.0549
55023W        W97961  33.252  22.570   5.548  0.0511 -0.0179 -0.1687
55024W        W97962  33.679  24.472   4.524  0.1317  0.1072 -0.2397
55025W        W97963   0.668  24.421   4.715  0.2027 -0.1225 -0.1348
55026W        W97964  33.716  20.876   4.631  0.1123 -0.0408 -0.0732
55027W        W97965  33.546  25.418   4.896  0.1470 -0.0037 -0.2733
55028W        W97966   0.751  22.762   9.772  0.0842  0.1826  0.0452
55029W        W97967  33.404  23.643   6.851  0.1842 -0.0446 -0.2145
55030W        W97968  33.245  22.141   7.941  0.0983 -0.0674 -0.0922
55031W        W97969  34.043  25.933   9.375  0.3690 -0.2663  0.0768
55032W        W97970  33.369  22.080   7.348  0.0892 -0.1007 -0.2239
55033W        W97971  32.158  21.012   8.863 -0.0536  0.1655  0.1028
55034W        W97972  33.291  22.980   8.472 -0.0364  0.1108  0.1089
55035W        W97973  30.558  23.059   9.560 -0.0623 -0.1273 -0.1480
55036W        W97974  34.396  22.706   7.371 -0.0443  0.1240  0.0103
55037W        W97975  30.741  24.709  12.567  0.0211 -0.1084 -0.2419
55038W        W97976  34.198  25.246   7.390  0.1648  0.1594  0.3072
55039W        W97977  33.782  23.186   6.105  0.1016  0.2214 -0.1468
55040W        W97978  32.927  23.254   9.374  0.2929 -0.4647  0.1702
55041W        W97979  33.199  23.763   9.356 -0.0752 -0.2318  0.1980
55042W        W97980  33.756  24.696   7.600 -0.3441  0.0225  0.3872
55043W        W97981  34.262  23.704   8.103 -0.0349  0.0930  0.0365
55044W        W97982  33.860  23.080   8.527 -0.1190 -0.2239 -0.1701
55045W        W97983  31.417  25.184   9.525  0.2946 -0.0657 -0.2898
55046W        W97984  34.093  23.611   7.626 -0.2290  0.0665  0.1124
55047W        W97985  32.902  24.783   7.631  0.0861  0.1968 -0.1531
55048W        W97986  32.476  24.628   6.833 -0.0834  0.1646 -0.0628
55049W        W97987  34.185  22.935   7.811 -0.0032  0.3143  0.3547
55050W        W97988  33.149  24.175   8.488 -0.0792  0.1009 -0.1824
55051W        W97989  32.925  25.412   7.457  0.0105  0.4560  0.1625
55052W        W97990  33.394  22.824   7.530  0.0067  0.1420  0.0486
55053W        W97991   1.085  21.196   8.275 -0.1002 -0.0244  0.0284
55054W        W97992  33.657  25.797   9.005  0.0148 -0.0255  0.4141
55055W        W97993  34.267  22.192   9.001  0.1695 -0.0401 -0.1360
55056W        W97994  33.051  25.183   9.369 -0.0178 -0.2633  0.0873
55057W        W97995  31.651  24.934   9.120  0.1074  0.3777  0.1743
55058W        W97996  32.420  23.081   7.661 -0.2131  0.0796 -0.0219
55059W        W97997  34.074  22.378   5.905  0.0872 -0.2314 -0.1782
55060W        W97998  34.611  23.494   9.519  0.0786  0.4837  0.1536
55061W        W97999  34.097  23.254   6.457 -0.2874 -0.1397  0.0101
55062W        W98000  32.929  24.723   7.084  0.0136 -0.2090  0.0108
55063W        W98001  33.971  24.994   8.384  0.0009 -0.1758  0.2247
55064W        W98002  32.943  25.508   6.773 -0.2381 -0.1000 -0.1943
55065W        W98003  31.971  23.999   8.798 -0.1787  0.1985  0.0456
55066W        W98004  34.476  24.818   7.172  0.0870  0.2023  0.0529
55067W        W98005  30.706  24.955   8.822 -0.2447 -0.1659 -0.1114
55068W        W98006  33.456  24.836   9.233  0.0779  0.0676  0.0410
55069W        W98007  33.603  23.801   7.864 -0.0665  0.1745 -0.3266
55070W        W98008  33.727  23.595   8.962  0.0721  0.0842 -0.0101
55071W        W98009  32.700  22.463   9.087 -0.0033  0.0073  0.1246
55072W        W98010  32.745  21.437   8.907 -0.0918  0.0677  0.2184
55073W        W98011  32.935  22.767   6.786 -0.0048 -0.0992  0.0816
55074W        W98012  33.565  22.956   8.008  0.1719 -0.1700 -0.0776
55075W        W98013  32.187  25.030   7.603 -0.2436 -0.2276  0.1418
55076W        W98014  32.280  23.992   9.159  0.0141 -0.1025 -0.4456
55077W        W98015  32.830  21.716   6.369  0.1175  0.0073 -0.0265
55078W        W98016  32.827  25.875   8.677 -0.3233  0.0104  0.0432
55079W        W98017  33.981  23.726   8.576 -0.3447  0.0098 -0.0092
55080W        W98018  32.239  22.036   7.868 -0.4616 -0.5042 -0.0306
55081W        W98019  32.218  21.730   6.418 -0.1746  0.1619 -0.4462
55082W        W98020  32.034  25.252   7.993  0.4168 -0.1756  0.3272
55083W        W98021  33.615  23.941   8.338  0.2357  0.2872  0.0534
55084W        W98022   0.102  23.750   6.824  0.0427 -0.1293  0.0932
55085W        W98023  33.942  25.207   6.259 -0.0233 -0.2494 -0.2263
55086W        W98024  33.369  25.365   6.562  0.1545 -0.0861  0.2984
55087W        W98025  33.450  25.510   7.370 -0.3202 -0.1479 -0.2525
55088W        W98026  31.865  24.993   9.709 -0.1003  0.1513  0.1578
55089W        W98027   0.340  22.530   9.550 -0.1898 -0.0311 -0.2914
55090W        W98028  34.519  23.275   5.573 -0.0938  0.0101  0.1322
55091W        W98029  31.195  25.197   5.949 -0.0518 -0.3822 -0.1159
55092W        W98030  32.705  22.214   6.595 -0.0759 -0.0731  0.1100
55093W        W98031   0.684  25.091   9.779  0.0503  0.1238  0.0844
55094W        W98032  34.277  24.963  11.981  0.1183 -0.2848  0.0061
55095W        W98033  33.347  24.705   7.329  0.0971 -0.1895 -0.1742
55096W        W98034  33.230  24.180   7.137 -0.0888 -0.1808 -0.1399
55097W        W98035  33.602  23.477   9.500  0.0188  0.1472  0.2873
55098W        W98036  34.033  24.137   7.758  0.0070 -0.0729 -0.1394
55099W        W98037  32.960  25.150   6.262 -0.0599 -0.2714 -0.3590
55100W        W98038  32.841  25.596   8.204 -0.0795  0.1771 -0.4041
55101W        W98039  32.692  24.768   9.219 -0.1250  0.0390 -0.2062
55102W        W98040  33.257  23.313   7.321  0.0858 -0.1437 -0.3251
55103W        W98041  33.162  22.539   8.653  0.0076 -0.1960 -0.1300
55104W        W98042  34.026  22.509   9.950 -0.0318 -0.1284  0.2077
55105W        W98043   0.465  22.436  10.087  0.3816  0.0422  0.2047
55106W        W98044  31.653  25.964   9.169 -0.1448 -0.1439 -0.3642
55107W        W98045  33.626  22.590   8.421  0.0197 -0.1292  0.1935
55108W        W98046  34.097  22.687   8.748 -0.4041 -0.2413  0.0524
55109W        W98047  32.472  25.197   8.234  0.0461  0.3789 -0.2375
55110W        W98048  33.206  22.627   8.159 -0.1003 -0.0285 -0.3528
55111W        W98049  33.019  25.515   8.942  0.3471  0.0295 -0.2479
55112W        W98050   0.531  22.237   8.420 -0.0370  0.0517  0.2189
55113W        W98051  33.950  23.981   9.296 -0.0613 -0.1794 -0.2099
55114W        W98052  33.830  23.430   8.100 -0.1315  0.1644  0.1189
55115W        W98053   1.015  20.924   9.588 -0.1663  0.0178  0.0550
55116W        W98054  34.148  23.840   6.616  0.2370 -0.3934  0.0646
55117W        W98055  31.526  25.353   8.855 -0.1643  0.0225 -0.0868
55118W        W98056  33.219  24.842   6.630 -0.3800 -0.1038 -0.2865
55119W        W98057   0.654  22.872  10.254 -0.0767  0.6093  0.0380
55120W        W98058  34.245  24.701   9.186  0.0540  0.2355 -0.1219
55121W        W98059  32.628  25.742   7.702 -0.0913 -0.0150  0.1441
55122W        W98060  32.350  24.843   9.621  0.3042 -0.0299 -0.0270
55123W        W98061   0.303  22.629   8.715  0.0895  0.2227 -0.1098
55124W        W98062  33.887  24.878   9.989 -0.1477  0.4331 -0.2350
55125W        W98063  34.595  22.950   8.661  0.0870  0.1387  0.0027
55126W        W98064  34.303  23.361   8.804  0.1918  0.0905 -0.0759
55127W        W98065   0.035  24.536   7.528  0.3511 -0.1033  0.0203
55128W        W98066  33.435  24.170   9.477 -0.1261 -0.0556  0.0999
55129W        W98067  33.333  23.363   7.817 -0.2449 -0.4030  0.3003
55130W        W98068  33.021  24.619   8.192  0.4448  0.0926 -0.0370
55131W        W98069   0.294  23.089   9.794 -0.1047 -0.0323 -0.0700
55132W        W98070  34.317  22.113   7.375 -0.1607  0.4579  0.0458
55133W        W98071  34.014  24.562   8.031 -0.0857  0.1350  0.2079
55134W        W98072  32.660  22.765   7.983 -0.2258  0.1381  0.1408
55135W        W98073  33.346  22.007   6.562 -0.1393  0.1282 -0.0468
55136W        W98074  34.454  25.194   5.482  0.0349 -0.2079 -0.1549
55137W        W98075  34.455  27.026   8.653 -0.1287  0.1063 -0.0459
55138W        W98076   0.095  22.190   7.546 -0.0378 -0.0501 -0.2021
55139W        W98077  33.352  24.483   7.790 -0.0295 -0.3897  0.1171
55140W        W98078  33.649  25.295   9.206 -0.0695 -0.4348 -0.1288
55141W        W98079  33.675  24.112   8.797  0.0919  0.2149 -0.1040
55142W        W98080   0.564  23.090   7.883 -0.1744 -0.0602 -0.0133
55143W        W98081  34.345  23.123   9.822 -0.1541  0.1038 -0.2345
55144W        W98082  33.564  22.813   8.876 -0.0436  0.1090 -0.1451
55145W        W98083  33.970  22.973   9.524 -0.2261  0.2060 -0.0882
55146W        W98084  32.850  22.159   9.530 -0.0199  0.0593 -0.2036
55147W        W98085  33.428  25.035   7.667 -0.2738 -0.1467  0.0784
55148W        W98086  33.302  22.919   7.061 -0.0328 -0.2982  0.0278
55149W        W98087  32.862  23.413   8.618  0.2130  0.1140 -0.1205
55150W        W98088  32.626  25.028   7.305  0.1890 -0.1855 -0.2763
55151W        W98089  33.082  24.606   9.599 -0.0267  0.0173  0.0401
55152W        W98090  33.270  23.294   8.958  0.1551 -0.2060 -0.0262
55153W        W98091  34.423  21.820   8.668 -0.0080  0.1053  0.0767
55154W        W98092  32.985  23.348   6.866  0.0896  0.0458  0.2781
55155W        W98093   0.060  23.035   8.018 -0.2038 -0.0805 -0.0170
55156W        W98094  33.325  23.093   5.712  0.2946  0.1198  0.1142
55157W        W98095  34.485  24.266   7.888 -0.0763 -0.0216  0.1701
55158W        W98096  33.759  24.457   9.154  0.1778 -0.1376  0.2052
55159W        W98097  33.350  25.452   7.922 -0.1490  0.1060 -0.2374
55160W        W98098  32.338  22.629   6.694  0.1046  0.1485 -0.0469
55161W        W98099  33.229  23.077  12.640 -0.0698  0.0940 -0.3229
55162W        W98100  33.620  24.602   9.699 -0.1383 -0.1200 -0.2178
55163W        W98101  33.223  23.676   6.385  0.1037  0.4124 -0.0186
55164W        W98102  33.010  22.544   7.647 -0.2092  0.0262 -0.1597
55165W        W98103  32.188  24.261   7.984 -0.2679  0.2791 -0.1692
55166W        W98104  32.367  23.134   8.631 -0.0508  0.0508 -0.0814
55167W        W98105  33.910  23.128   9.031 -0.1759  0.0478  0.0519
55168W        W98106  33.746  25.869   8.034  0.1457 -0.1800  0.0719
55169W        W98107  31.030  24.500   8.603 -0.0635  0.0833 -0.0399
55170W        W98108   1.030  21.984   8.407  0.1844 -0.0242  0.1285
55171W        W98109  34.554  22.681  10.213 -0.1245 -0.0091 -0.0946
55172W        W98110  32.488  24.930   8.778  0.1311  0.0405  0.1422
55173W        W98111  32.684  24.226   7.127 -0.0303 -0.3420 -0.0972
55174W        W98112   0.389  23.565   9.537 -0.1324 -0.0573  0.3134
55175W        W98113  32.943  24.301   7.527 -0.5515 -0.0073 -0.1862
55176W        W98114  32.954  23.150   8.088  0.0604 -0.0270  0.0634
55177W        W98115  32.935  25.178   7.907 -0.0948 -0.1106  0.0103
55178W        W98116  33.644  24.155   7.417 -0.2085 -0.0542 -0.0244
55179W        W98117  34.097  23.439   9.324 -0.1783  0.1395  0.2512
55180W        W98118  34.453  23.837   9.167 -0.0821  0.2459  0.0429
55181W        W98119  32.860  23.579   7.794 -0.1494  0.0211 -0.1446
55182W        W98120  33.769  24.934   6.752  0.3122 -0.0898  0.1010
55183W        W98121  32.534  24.727   8.043 -0.2535  0.2045 -0.1069
55184W        W98122  33.914  24.903   9.466  0.0920 -0.1253 -0.0860
55185W        W98123  32.701  23.375   7.349  0.0953  0.2162 -0.1046
55186W        W98124  34.023  22.590   9.261 -0.0872 -0.0365 -0.0294
55187W        W98125  33.411  22.146   9.679  0.1359 -0.1785  0.1179
55188W        W98126  34.245  22.426   7.784 -0.0165  0.2236 -0.0637
55189W        W98127  32.177  24.273   7.090 -0.2106 -0.0760  0.2196
55190W        W98128  33.381  21.185   6.886 -0.0052 -0.1135  0.3076
55191W        W98129  32.780  23.595   9.048 -0.2020  0.1356  0.2254
55192W        W98130  32.632  21.005   9.736 -0.0165  0.3241 -0.2416
55193W        W98131  33.635  22.465   7.887  0.0136 -0.1435  0.0451
55194W        W98132  33.203  22.460   9.200 -0.1909  0.1817  0.0736
55195W        W98133  33.784  23.178   7.575  0.1408  0.1504 -0.0277
55196W        W98134  34.335  24.317   7.342 -0.1157  0.0579  0.0786
55197W        W98135  33.041  25.602   9.640 -0.0339 -0.0500 -0.2638
55198W        W98136  33.157  22.601   9.691  0.0648 -0.0813 -0.1956
55199W        W98137  33.134  23.672   8.254 -0.0059 -0.0579  0.1567
55200W        W98138  33.520  23.489   8.541  0.0723 -0.0854  0.1623
55201W        W98139  34.271  23.222   8.317  0.3510 -0.1866  0.0100
55202W        W98140  30.803  28.113   9.417 -0.0357 -0.3399  0.0082
55203W        W98141  33.011  27.292   2.184  0.1481 -0.0701 -0.0790
55204W        W98142  33.593  26.202   0.636  0.0577  0.1413 -0.4241
55205W        W98143  32.323  25.653   2.069 -0.0813 -0.0595  0.1779
55206W        W98144  34.044  26.367   2.174 -0.1301 -0.1401 -0.1635
55207W        W98145  33.868  27.171   1.702 -0.2040  0.1230 -0.0415
55208W        W98146  34.234  27.962   2.149  0.1922 -0.2764  0.1368
55209W        W98147  33.461  26.799   1.014  0.1406 -0.0351 -0.1187
55210W        W98148  33.474  25.030   1.700 -0.1653  0.0871  0.2384
55211W        W98149  32.817  25.198   0.273 -0.0517 -0.1263  0.0610
55212W        W98150  33.864  27.264   2.235  0.4696 -0.1251 -0.0708
55213W        W98151   0.700  26.959   1.175  0.1687  0.0746 -0.0183
55214W        W98152  34.354  25.881   2.148 -0.1169  0.1156 -0.3713
55215W        W98153  34.483  29.278   0.797 -0.0211 -0.0643  0.2149
55216W        W98154  33.244  27.337  31.834 -0.1614 -0.1163  0.3253
55217W        W98155  33.531  26.267   2.242 -0.1079  0.0459 -0.0585
55218W        W98156  32.411  26.818   1.312  0.2330  0.0758 -0.0331
55219W        W98157  32.727  26.076   0.898  0.1657 -0.0595 -0.0826
55220W        W98158   0.399  29.275   1.511  0.4026  0.0094  0.0964
55221W        W98159  33.228  27.271   0.446  0.1024 -0.3337 -0.1535
55222W        W98160  33.361  29.100   1.515 -0.0199  0.1580  0.2617
55223W        W98161  34.426  28.378   0.561  0.0116 -0.0196 -0.0885
55224W        W98162  33.414  28.994   3.229  0.3119  0.0418  0.2591
55225W        W98163  32.935  27.585   0.792 -0.1366  0.1929  0.0786
55226W        W98164  34.232  27.920   3.621  0.1415 -0.1160  0.1090
55227W        W98165  34.408  26.946  31.786 -0.0537  0.1259 -0.0633
55228W        W98166   1.367  28.158   1.872 -0.1479  0.2161  0.0169
55229W        W98167  33.456  27.054   3.068  0.1912  0.0363 -0.1066
55230W        W98168  33.286  28.757   2.388  0.0320 -0.0482 -0.1963
55231W        W98169   0.878  28.221   0.938 -0.1077 -0.1552  0.4134
55232W        W98170   0.198  27.018  31.606  0.0599  0.0786 -0.3755
55233W        W98171  33.787  24.876   1.243  0.0345  0.0019  0.0186
55234W        W98172   0.274  30.429   3.220  0.3861 -0.2698  0.1249
55235W        W98173  33.005  28.252   1.502  0.0361  0.4365 -0.0413
55236W        W98174  34.374  28.858   1.947 -0.0109 -0.1527 -0.1088
55237W        W98175  33.881  25.937   1.894  0.0162 -0.0496 -0.2234
55238W        W98176  33.969  26.536   0.753  0.1187 -0.0501 -0.3647
55239W        W98177  31.874  27.209   2.703  0.2655  0.0016  0.2009
55240W        W98178  33.462  27.941   1.986  0.2010  0.0205 -0.0545
55241W        W98179  32.681  26.069   0.059 -0.3962  0.0016  0.0450
55242W        W98180  33.742  28.451   3.822 -0.0187  0.4341  0.2479
55243W        W98181  33.395  27.013   1.970  0.0376  0.1401  0.1140
55244W        W98182  34.444  26.700   1.034 -0.2000 -0.1514 -0.1571
55245W        W98183  33.355  26.986   1.443 -0.0862 -0.0876 -0.2586
55246W        W98184  32.398  28.938   2.831 -0.0839 -0.0242 -0.2189
55247W        W98185  32.653  25.803   2.373 -0.0697 -0.2619  0.1010
55248W        W98186   1.341  28.382   2.843  0.0063 -0.2054  0.1007
55249W        W98187  33.333  28.253  31.606 -0.2308 -0.1279 -0.4332
55250W        W98188  31.774  26.734   1.867  0.0842  0.0025 -0.0887
55251W        W98189  33.258  26.336  31.922  0.0569 -0.0385 -0.1965
55252W        W98190  30.969  25.736   1.354 -0.0072 -0.1346  0.1611
55253W        W98191  33.288  29.122   2.012 -0.2659  0.2562  0.0391
55254W        W98192  34.545  26.586   4.436 -0.0953 -0.1633  0.3189
55255W        W98193  32.094  26.798   0.185  0.1578 -0.0771  0.2617
55256W        W98194  32.325  26.974   2.682  0.1091  0.1570  0.0477
55257W        W98195  34.269  26.843   1.460  0.1599 -0.2105 -0.2064
55258W        W98196  34.248  27.194   2.776  0.1428  0.1403  0.2508
55259W        W98197  33.073  24.458   1.004  0.0611  0.2813  0.1064
55260W        W98198  32.646  25.637  31.794 -0.1906 -0.0352  0.0211
55261W        W98199  32.715  26.569   0.834 -0.0139  0.1454 -0.2446
55262W        W98200  31.464  28.046   2.012 -0.1841 -0.3180 -0.1204
55263W        W98201  32.945  26.961   2.726 -0.0694  0.0801  0.0664
55264W        W98202  32.844  26.863   1.916  0.2291 -0.1033  0.3969
55265W        W98203  33.194  29.101   2.728  0.3058 -0.0423  0.0670
55266W        W98204  33.018  27.793   1.755 -0.3614  0.1387 -0.1403
55267W        W98205  33.831  25.832   1.455 -0.0588 -0.0161 -0.1613
55268W        W98206  32.070  25.813   2.453 -0.2554  0.0671 -0.0220
55269W        W98207  32.034  25.981  31.649 -0.2089 -0.0784 -0.0094
55270W        W98208  33.283  28.955   0.342 -0.2518 -0.0331  0.2954
55271W        W98209  32.242  26.334   0.015  0.0019 -0.0005  0.1187
55272W        W98210  32.930  26.704   1.365  0.0872  0.3175  0.4156
55273W        W98211  33.031  27.356   3.385  0.1148  0.1562  0.0474
55274W        W98212  32.184  26.988   1.687  0.3533 -0.1619 -0.0038
55275W        W98213  32.779  28.359   3.037  0.1112  0.2173  0.1540
55276W        W98214  32.180  28.089   4.253 -0.0596  0.1254 -0.0164
55277W        W98215   0.102  26.955   0.768 -0.1436 -0.0768 -0.1642
55278W        W98216   0.329  29.334   2.597  0.2300  0.0921  0.0312
55279W        W98217  33.459  28.129   2.465 -0.1685  0.2110 -0.3816
55280W        W98218  34.643  25.328   1.285  0.0046  0.6725 -0.0962
55281W        W98219  31.503  26.095  31.222  0.3296 -0.1052  0.0156
55282W        W98220  34.191  27.532   1.095  0.2006  0.2095  0.0596
55283W        W98221  33.757  27.886   4.499  0.0738  0.1844 -0.0661
55284W        W98222   0.987  26.911   0.668  0.1359  0.3805 -0.1830
55285W        W98223  33.786  27.730   2.383 -0.3028 -0.1086  0.0178
55286W        W98224  33.606  27.965   2.900  0.0549  0.0177 -0.1472
55287W        W98225  32.961  28.813   3.124  0.0632 -0.0427  0.0549
55288W        W98226   1.032  26.979   2.600 -0.1185  0.1553  0.0779
55289W        W98227  33.148  28.483   0.662  0.0720  0.2866  0.1184
55290W        W98228   0.297  28.524   0.588 -0.0619 -0.3406 -0.3565
55291W        W98229   0.161  26.738   2.120  0.1230 -0.2812 -0.1137
55292W        W98230   0.085  29.445   2.078  0.3033  0.1828 -0.1572
55293W        W98231  33.541  27.452   1.333 -0.1011  0.0243  0.1815
55294W        W98232  33.381  28.402   1.211  0.0852  0.1031 -0.0578
55295W        W98233  32.713  29.325   2.753  0.1068 -0.0995 -0.0225
55296W        W98234  33.735  26.440   0.080  0.0727 -0.0999 -0.0096
55297W        W98235  33.019  26.065  31.568  0.0611 -0.0517 -0.0570
55298W        W98236  33.189  25.810   2.316 -0.0363 -0.3341 -0.0328
55299W        W98237   0.174  27.316   2.166 -0.1880  0.0077  0.0377
55300W        W98238  32.458  28.907   4.424 -0.0734  0.0337 -0.0857
55301W        W98239  34.441  27.417   3.602 -0.4033 -0.0158 -0.1605
55302W        W98240  33.129  25.798   0.570 -0.1779 -0.4028 -0.0939
55303W        W98241  33.730  26.338   1.256 -0.0549 -0.0488 -0.0233
55304W        W98242  32.409  28.969   1.283 -0.1172  0.1173 -0.1046
55305W        W98243  33.573  26.063  31.603 -0.1122  0.0477 -0.1235
55306W        W98244  32.280  27.586  31.337  0.2075 -0.3074  0.0194
55307W        W98245  33.309  26.311   3.305  0.3317  0.2469 -0.1002
55308W        W98246  34.423  25.528   1.672 -0.0379 -0.0300  0.3089
55309W        W98247  33.564  23.902   1.013 -0.2531 -0.0416  0.1273
55310W        W98248   1.338  26.776   2.168 -0.3629 -0.3349  0.2264
55311W        W98249  33.845  27.875   1.247 -0.0306  0.1390 -0.2685
55312W        W98250  31.860  28.919   4.975  0.0647  0.2130  0.0678
55313W        W98251  33.979  26.679  31.148  0.2593  0.2871  0.1467
55314W        W98252  31.439  27.211   1.665  0.1184 -0.1922 -0.0723
55315W        W98253   0.235  26.771   1.226 -0.1454  0.1667 -0.0486
55316W        W98254  34.664  27.713   1.857  0.1468  0.3516 -0.2558
55317W        W98255  34.678  27.619   1.205  0.2132  0.0457  0.0207
55318W        W98256  33.985  27.854  31.875 -0.1302 -0.1274  0.2819
55319W        W98257  34.014  28.264   2.977  0.2884  0.0232  0.2382
55320W        W98258   0.274  26.193   0.010 -0.0506 -0.0172 -0.0208
55321W        W98259  33.252  26.564   1.778  0.0645  0.1059 -0.0349
55322W        W98260  32.797  25.213   1.234 -0.1483  0.1044  0.0846
55323W        W98261  32.335  28.137   3.188  0.0798  0.0522  0.2510
55324W        W98262  33.413  25.205  31.974 -0.1041 -0.1704  0.0052
55325W        W98263   0.126  27.978   0.791  0.0861  0.4266 -0.2306
55326W        W98264   1.340  27.600   1.007 -0.0631 -0.1460  0.1144
55327W        W98265  33.665  28.507   2.147  0.0644 -0.2301 -0.0104
55328W        W98266   0.626  27.812   0.729  0.0048  0.2026  0.0466
55329W        W98267  33.656  27.210   0.087  0.3382  0.2295 -0.4256
55330W        W98268  33.914  25.915   2.418 -0.0370 -0.1995  0.1694
55331W        W98269  32.668  27.203   1.384  0.1129  0.2550 -0.2463
55332W        W98270  33.763  26.972   3.722  0.1592  0.0501 -0.1849
55333W        W98271  32.850  26.366   2.060  0.2438 -0.1851 -0.1574
55334W        W98272  33.730  26.616  30.718 -0.3003 -0.0114  0.1252
55335W        W98273   0.710  28.227  31.108 -0.1932 -0.0639  0.1856
55336W        W98274  31.464  26.965   1.155  0.0019  0.2248 -0.2164
55337W        W98275  33.599  28.692   2.779  0.2999 -0.1233 -0.2182
55338W        W98276  32.979  27.004  31.138  0.1322 -0.1120  0.0586
55339W        W98277  33.381  26.736  31.222 -0.0437  0.1377  0.0707
55340W        W98278   0.317  28.761   2.012 -0.0577 -0.1520 -0.0814
55341W        W98279  34.423  25.038   1.844  0.0288  0.1495  0.2376
55342W        W98280  31.856  28.165   1.640  0.0724 -0.2182 -0.0830
55343W        W98281  34.346  28.877   1.287  0.0019 -0.0140  0.1327
55344W        W98282  32.384  28.913   2.301  0.1062 -0.1527  0.0767
55345W        W98283  33.354  27.942   1.320  0.2692 -0.0966 -0.1858
55346W        W98284  34.307  26.616   0.446 -0.1787  0.0440  0.2719
55347W        W98285  33.129  26.717   2.335  0.0170 -0.2486  0.2174
55348W        W98286  33.545  28.078   0.757  0.0887 -0.1880  0.2250
55349W        W98287  32.904  26.867   4.117 -0.3671 -0.0443  0.4383
55350W        W98288  34.243  24.582   1.537 -0.1804 -0.0372 -0.1153
55351W        W98289  34.229  28.218   3.993 -0.0019 -0.1258 -0.1113
55352W        W98290  32.410  27.815   1.000 -0.2528 -0.0592 -0.3697
55353W        W98291  33.407  27.626   0.892  0.1022  0.1727  0.2456
55354W        W98292   0.078  26.699  31.981 -0.0151  0.2109  0.3820
55355W        W98293  33.410  28.632   1.699 -0.0677  0.1649 -0.1056
55356W        W98294  32.403  28.026  30.977  0.0396  0.0017  0.2914
55357W        W98295   0.145  30.280   1.414  0.3871 -0.2570  0.0862
55358W        W98296  33.515  25.989   0.172  0.4172  0.1818  0.2263
55359W        W98297  34.476  26.162   0.780 -0.1289  0.1123  0.2110
55360W        W98298  34.249  26.669   2.595 -0.1620  0.2545  0.0440
55361W        W98299  33.800  29.365   3.835  0.2073  0.1352  0.2546
55362W        W98300  32.542  25.375   0.747  0.1657 -0.0103 -0.1809
55363W        W98301  32.498  28.078   1.420  0.0453 -0.2584 -0.1171
55364W        W98302   0.810  27.423   1.622 -0.1568  0.0027  0.2030
55365W        W98303  34.573  28.475   1.162 -0.1237 -0.0127 -0.0331
55366W        W98304  34.368  28.022   1.005  0.2285  0.0408 -0.1752
55367W        W98305  34.240  29.082   2.610  0.0976 -0.2232 -0.0158
55368W        W98306  32.326  26.109   0.605 -0.1290  0.0836 -0.0332
55369W        W98307  33.943  28.305   0.992  0.3036 -0.1737 -0.1275
55370W        W98308  33.098  27.349   1.592 -0.1018  0.0325 -0.1528
55371W        W98309  32.671  27.408   2.693  0.0228 -0.1390 -0.1863
55372W        W98310   0.532  26.673   0.834 -0.2698  0.0837 -0.0213
55373W        W98311  32.733  25.907   1.768 -0.1415  0.0456 -0.2660
55374W        W98312  33.010  28.104   0.969  0.2533 -0.3291  0.2915
55375W        W98313  34.649  27.063   1.722 -0.1512 -0.0981  0.1482
55376W        W98314  34.144  25.234   0.234  0.2374 -0.3393  0.1255
55377W        W98315  34.637  27.984  31.338 -0.0276 -0.1513 -0.1412
55378W        W98316  32.316  26.666   2.013  0.1163  0.3214  0.0442
55379W        W98317  34.250  26.335   1.641  0.1995  0.2498  0.3013
55380W        W98318  33.484  27.472   1.893 -0.1361  0.1184  0.0912
55381W        W98319  33.176  28.352   2.015  0.1520  0.1037 -0.1040
55382W        W98320  34.320  27.419   1.543 -0.3748 -0.2813  0.0169
55383W        W98321  34.666  28.362   2.119 -0.1896 -0.0461  0.0906
55384W        W98322   0.579  27.882   3.451 -0.2604 -0.0393 -0.1924
55385W        W98323  32.647  27.127   0.863 -0.3232 -0.2278 -0.2641
55386W        W98324  34.686  28.518   1.649  0.0640 -0.2236 -0.1761
55387W        W98325  33.747  26.536  31.539 -0.0421  0.1078 -0.1130
55388W        W98326   1.166  29.007   0.469  0.1674  0.0373  0.0217
55389W        W98327   0.062  26.008   1.844 -0.1085 -0.2434  0.2581
55390W        W98328  33.885  26.647   1.738  0.1870 -0.1661  0.1156
55391W        W98329  33.803  27.367   2.827  0.1558 -0.1451 -0.1349
55392W        W98330  31.036  26.307  31.259  0.2062 -0.0432  0.1654
55393W        W98331  32.854  27.703   1.290  0.0640  0.2764 -0.1034
55394W        W98332  32.681  27.461   1.859  0.1167  0.1525  0.1871
55395W        W98333  33.469  25.419   3.902 -0.0860 -0.1973 -0.1760
55396W        W98334  32.495  26.219   3.671 -0.1390  0.0689 -0.1757
55397W        W98335  31.965  27.837   1.205  0.1006  0.1964 -0.2328
55398W        W98336  32.631  25.710   0.429  0.0299 -0.0719  0.0560
55399W        W98337  33.601  25.541   1.795  0.1782  0.0230 -0.0116
55400W        W98338  32.530  25.443   1.664  0.0373  0.1553 -0.1711
55401W        W98339  33.527  25.700   0.841  0.1125 -0.0115 -0.1244
55402W        W98340  30.978  26.893   1.395  0.1194  0.0160  0.0434
55403W        W98341  34.094  27.146   3.350 -0.0517 -0.4007 -0.3193
55404W        W98342  34.022  25.962   3.946  0.1594 -0.0120  0.2743
55405W        W98343  32.192  25.799   0.113  0.0671  0.0408 -0.2631
55406W        W98344   1.110  26.419   1.796  0.0595 -0.0878  0.0626
55407W        W98345   0.797  28.365   1.416 -0.2765 -0.0387  0.0505
55408W        W98346  33.073  27.886   3.141 -0.4405 -0.2005  0.1888
55409W        W98347  33.435  26.572   2.836 -0.1319 -0.0752  0.0679
55410W        W98348   0.142  28.031   1.505  0.2557  0.0120 -0.1261
55411W        W98349  34.580  27.032   2.411  0.1133  0.1400  0.2840
55412W        W98350  33.703  26.672   3.366 -0.2886  0.2276 -0.3763
55413W        W98351  33.044  25.325   0.828  0.2576  0.4884 -0.1373
55414W        W98352  33.106  25.781   1.163  0.1120  0.0418 -0.1392
55415W        W98353   1.149  27.407   0.592  0.4235  0.1437  0.2578
55416W        W98354  33.888  26.784   2.954 -0.1361  0.3137  0.3855
55417W        W98355  33.085  28.456  30.290 -0.3197  0.1794  0.0105
55418W        W98356  34.471  28.834   3.497 -0.0058  0.0772  0.1271
55419W        W98357  32.583  25.697   1.212 -0.2661 -0.1006 -0.3301
55420W        W98358  32.539  26.531   0.349 -0.0001 -0.4223  0.1977
55421W        W98359   0.322  27.396   0.908 -0.0859 -0.0716  0.0810
55422W        W98360  33.207  26.374   0.906  0.0320  0.0269  0.0862
55423W        W98361  33.629  30.881   3.058  0.1272 -0.1295 -0.2427
55424W        W98362  33.805  29.144   6.893 -0.0200 -0.0044 -0.1160
55425W        W98363  31.472  25.330   3.770  0.1473  0.0796  0.0942
55426W        W98364  33.048  25.463   4.318  0.2111  0.0548  0.0782
55427W        W98365  32.517  26.367   7.269  0.2286 -0.1061 -0.3437
55428W        W98366  34.445  25.400   5.936 -0.2617  0.0718 -0.0104
55429W        W98367  33.498  28.020   7.191 -0.2742 -0.0105  0.0831
55430W        W98368  33.605  25.390   4.395  0.0630 -0.1369 -0.1482
55431W        W98369  32.255  25.796   6.381 -0.0150  0.1365  0.3680
55432W        W98370  31.399  28.089   4.477 -0.0991 -0.0608  0.1610
55433W        W98371   1.422  26.299   6.463 -0.1808  0.0641  0.1341
55434W        W98372  33.620  26.843   4.497 -0.0255  0.0963  0.3287
55435W        W98373  33.326  25.807   6.381 -0.0287  0.0329 -0.1259
55436W        W98374  33.276  28.738   4.966  0.0834  0.0691  0.3631
55437W        W98375  32.871  28.103   4.488  0.0583 -0.1473 -0.0165
55438W        W98376  32.382  25.692   4.526  0.2013  0.1821  0.3026
55439W        W98377  32.689  27.027   5.622 -0.1093  0.2944 -0.1383
55440W        W98378   0.231  28.846   4.689 -0.0894  0.0475 -0.0482
55441W        W98379   0.978  28.078   4.657  0.1171  0.1331  0.0615
55442W        W98380  32.392  27.911   5.626 -0.1160 -0.0166 -0.0709
55443W        W98381  31.522  29.511   4.801  0.1322 -0.0436  0.2912
55444W        W98382  33.587  29.021   5.270  0.0193  0.1384  0.0589
55445W        W98383  34.343  29.642   7.494 -0.0442  0.2921 -0.0188
55446W        W98384   0.074  28.263   4.185  0.0206 -0.1164 -0.2304
55447W        W98385  34.354  29.026   6.849  0.1435  0.0554  0.0013
55448W        W98386  33.826  28.334   4.286 -0.0645  0.0728  0.1055
55449W        W98387  34.695  27.953   5.478 -0.2903 -0.1831  0.1664
55450W        W98388  33.336  28.479   6.004  0.0773  0.1883 -0.2214
55451W        W98389  33.311  27.634   4.477 -0.1494 -0.2743 -0.1374
55452W        W98390  32.608  30.025   4.843  0.0050 -0.1379 -0.0624
55453W        W98391   0.074  27.906   2.320  0.3615  0.0365  0.0435
55454W        W98392  33.508  26.282   4.605 -0.1029  0.1622  0.0634
55455W        W98393  33.372  28.214   5.150 -0.1693  0.1456  0.0074
55456W        W98394  33.723  27.023   5.407  0.1529 -0.3175 -0.0053
55457W        W98395  32.986  28.592   6.341 -0.2573 -0.2455  0.0921
55458W        W98396  33.156  26.896   3.620 -0.1307  0.1339  0.3312
55459W        W98397  32.255  26.429   3.216  0.0831  0.1301  0.1750
55460W        W98398  32.198  27.867   7.423  0.0135 -0.0812 -0.2772
55461W        W98399  33.261  27.026   5.651 -0.3247  0.3355 -0.0620
55462W        W98400  32.975  25.508   3.811  0.0337 -0.0845 -0.0376
55463W        W98401  33.729  29.020   7.860  0.1530 -0.1213  0.0111
55464W        W98402  34.036  27.698   4.195  0.0624  0.1501 -0.2750
55465W        W98403   0.127  27.359   4.134  0.3700  0.3814  0.0406
55466W        W98404   0.508  28.295   4.746 -0.0337 -0.1239  0.0436
55467W        W98405  32.901  28.089   6.795 -0.2136  0.0985 -0.3005
55468W        W98406   0.574  25.242   6.279 -0.3239  0.0260  0.1951
55469W        W98407  33.964  27.379   5.174  0.0289 -0.1650  0.0865
55470W        W98408  33.744  28.577   3.289 -0.0555 -0.1150 -0.0596
55471W        W98409  32.838  28.675   5.284  0.4883 -0.1073 -0.2005
55472W        W98410  33.812  26.793   2.403  0.2094 -0.3508 -0.0932
55473W        W98411  32.046  25.860   4.943 -0.5522 -0.3522  0.0961
55474W        W98412  32.836  27.981   5.311 -0.1351  0.0951  0.1256
55475W        W98413  32.100  26.132   5.416  0.1392 -0.0462 -0.0943
55476W        W98414  33.630  27.976   3.935 -0.0921 -0.0638 -0.2956
55477W        W98415  32.202  26.088   5.918 -0.0756  0.1796  0.0881
55478W        W98416  33.263  25.838   4.584 -0.1190  0.2566 -0.0982
55479W        W98417  33.199  26.270   6.211  0.1152 -0.1411 -0.1851
55480W        W98418  32.027  26.072   3.545  0.1665 -0.4499 -0.2489
55481W        W98419  31.349  25.801   2.760 -0.1870 -0.1619 -0.0932
55482W        W98420  33.311  27.302   3.821  0.1175  0.1086 -0.0809
55483W        W98421  33.389  28.449   4.144  0.3817  0.2116 -0.0038
55484W        W98422  33.430  26.572   5.482  0.2292  0.2462 -0.0694
55485W        W98423  33.695  27.343   4.204  0.2405  0.6664  0.0453
55486W        W98424  32.130  27.818   5.212  0.1717 -0.1284  0.1978
55487W        W98425  32.790  29.070   6.548  0.0308 -0.1190  0.0727
55488W        W98426  32.932  25.986   3.633 -0.0808  0.0661  0.0437
55489W        W98427  34.288  28.544   6.039 -0.0234  0.0319  0.2534
55490W        W98428  32.331  25.645   3.659 -0.0984 -0.2389  0.2917
55491W        W98429  33.372  28.144   4.522  0.1782 -0.3421  0.1413
55492W        W98430  33.108  28.047   4.034  0.1479 -0.1304 -0.1563
55493W        W98431   0.034  28.461   5.135  0.2643  0.3010  0.0197
55494W        W98432  31.388  27.134   7.339 -0.1979  0.3259  0.1055
55495W        W98433  32.948  27.575   4.083  0.1711  0.0664 -0.0547
55496W        W98434  32.733  29.114   8.044  0.1039  0.1800 -0.0229
55497W        W98435  32.242  27.087   6.247 -0.0521 -0.0832 -0.1145
55498W        W98436   0.089  27.764   3.460  0.2266 -0.2313  0.0906
55499W        W98437  32.935  28.336   4.933 -0.4379 -0.2600  0.0782
55500W        W98438  32.890  28.363   5.847  0.0315 -0.2779  0.1590
55501W        W98439  34.597  24.516   6.438 -0.2663 -0.3713  0.0834
55502W        W98440  34.308  27.255   2.014 -0.1188  0.2349  0.0938
55503W        W98441  31.852  30.102   3.907  0.3361 -0.0312  0.0532
55504W        W98442  34.269  25.516   6.465  0.1410 -0.2207 -0.3019
55505W        W98443  34.128  27.798   2.722  0.0745 -0.1188  0.0960
55506W        W98444   1.205  26.694   5.905  0.2720 -0.1302 -0.2333
55507W        W98445  33.088  28.073   6.246  0.2066 -0.1999  0.2250
55508W        W98446  33.431  29.636   6.672  0.0266  0.0225 -0.2868
55509W        W98447   0.069  26.987   5.844 -0.3507 -0.1731 -0.0412
55510W        W98448  34.178  28.703   3.887 -0.2498 -0.1242  0.0565
55511W        W98449   0.258  27.875   3.880 -0.0397  0.1756 -0.0313
55512W        W98450   0.048  25.985   4.958 -0.2343 -0.2412  0.1556
55513W        W98451  34.599  29.448   6.002 -0.1840 -0.1647  0.3701
55514W        W98452   0.506  28.336   3.896  0.1546 -0.0305  0.1025
55515W        W98453  32.111  27.423   4.005  0.0631 -0.1141 -0.2085
55516W        W98454  31.974  28.335   5.388 -0.2682  0.1662 -0.0553
55517W        W98455  33.570  26.032   2.860 -0.1257  0.2068  0.1041
55518W        W98456  32.858  27.489   4.546  0.0672 -0.4694  0.1530
55519W        W98457  31.535  26.316   6.168  0.0191  0.0189 -0.2385
55520W        W98458   0.402  26.272   5.918 -0.1682  0.1185 -0.0131
55521W        W98459  31.986  29.638   3.989  0.4082 -0.0986  0.3011
55522W        W98460  34.310  26.880   5.184  0.1925  0.2783  0.0799
55523W        W98461  32.534  26.733   3.557 -0.1051  0.1404 -0.0367
55524W        W98462  34.665  26.484   6.070  0.2476  0.2409 -0.0767
55525W        W98463  32.664  28.613   3.490  0.0239  0.0198 -0.0377
55526W        W98464  33.390  25.836   3.387  0.0522 -0.1048 -0.1730
55527W        W98465  32.598  28.879   3.887  0.0864  0.4702  0.0490
55528W        W98466  32.975  27.195   5.996 -0.1207  0.1023  0.0511
55529W        W98467   0.787  26.477   5.545  0.3458  0.0428 -0.0006
55530W        W98468  33.779  25.873   4.403  0.1275  0.3529  0.0610
55531W        W98469  34.126  27.632   3.166 -0.2032 -0.2963  0.1590
55532W        W98470  33.730  25.935   6.718  0.0896  0.1963  0.1271
55533W        W98471  34.131  28.816   7.310  0.0495 -0.2010  0.0716
55534W        W98472  32.678  28.311   4.019  0.1748 -0.2785  0.0692
55535W        W98473  32.376  26.175   4.511 -0.0282 -0.1582  0.0803
55536W        W98474  33.952  29.024   3.471  0.1693  0.3048  0.0509
55537W        W98475  33.754  26.888   4.949  0.0780 -0.0765  0.1129
55538W        W98476  31.791  28.831   4.393 -0.0164 -0.2357  0.3300
55539W        W98477  33.056  28.460   3.744  0.2504 -0.1193  0.0224
55540W        W98478  33.348  29.046   6.155  0.0253 -0.0652 -0.1730
55541W        W98479  33.746  26.380   4.152 -0.1817  0.5096 -0.0963
55542W        W98480  32.254  26.038   4.045 -0.0561  0.0973  0.0641
55543W        W98481  32.084  26.338   6.378 -0.3581 -0.0633 -0.3199
55544W        W98482  32.095  26.826   6.742  0.0397  0.0977 -0.3463
55545W        W98483  32.715  25.678   3.366 -0.4965 -0.0211 -0.2291
55546W        W98484  34.089  27.245   5.694 -0.0279  0.0766 -0.1893
55547W        W98485  33.802  28.030   3.410 -0.1011 -0.1706 -0.2446
55548W        W98486  32.971  28.857   5.893  0.1168  0.1439  0.2008
55549W        W98487  34.458  27.624   4.464  0.0871  0.2839  0.3029
55550W        W98488  33.440  27.263   4.817  0.0479  0.1205 -0.1908
55551W        W98489  34.132  26.353   6.163 -0.1257  0.1266 -0.2822
55552W        W98490  33.190  27.212   8.462  0.1868 -0.1223  0.0369
55553W        W98491  31.036  26.296   5.918 -0.1881 -0.3742 -0.2011
55554W        W98492  33.209  26.950   5.196  0.0272  0.3493  0.0624
55555W        W98493  34.233  27.298   4.070  0.1887 -0.1845  0.0325
55556W        W98494   0.034  28.085   4.642  0.2535  0.0954  0.2142
55557W        W98495  32.713  26.212   3.221 -0.0289 -0.1279  0.0375
55558W        W98496  33.689  29.710   6.252 -0.0965  0.0681 -0.2801
55559W        W98497  32.935  26.675   3.261  0.1542  0.0897  0.1059
55560W        W98498  34.596  27.441   3.079  0.1472 -0.2658 -0.1041
55561W        W98499   0.394  29.468   5.262  0.0658 -0.0840 -0.0050
55562W        W98500   1.480  25.282   3.198 -0.1948 -0.0045 -0.2089
55563W        W98501  32.057  28.653   3.998  0.0264  0.1713  0.1919
55564W        W98502  32.658  28.750   4.858 -0.4264 -0.2101  0.1285
55565W        W98503  32.687  27.688   6.415  0.2338  0.0133  0.0059
55566W        W98504  32.838  28.591   4.398 -0.0625 -0.3299  0.0751
55567W        W98505  33.050  27.881   4.901 -0.1953  0.0245 -0.1868
55568W        W98506  32.922  26.494   3.747 -0.1174 -0.2309 -0.0585
55569W        W98507  33.211  28.592   5.549 -0.0737  0.0152 -0.0341
55570W        W98508  31.769  27.231   6.024  0.0183 -0.1007 -0.1949
55571W        W98509  34.347  26.289   5.697 -0.0019  0.0545 -0.0291
55572W        W98510  32.614  28.392   8.275 -0.1565 -0.2824 -0.1174
55573W        W98511  32.598  26.161   5.277  0.0189  0.1808  0.2098
55574W        W98512  32.119  28.485   4.899 -0.2439 -0.0048 -0.2062
55575W        W98513  33.313  25.898   4.066  0.0645 -0.1083 -0.2643
55576W        W98514  32.393  27.221   4.775 -0.1709 -0.0526 -0.0746
55577W        W98515  32.278  27.647   4.498 -0.0304  0.1754  0.1291
55578W        W98516  33.882  29.218   5.768  0.1925  0.0044  0.1400
55579W        W98517  33.039  26.355   4.200 -0.0950 -0.0669  0.1676
55580W        W98518   0.034  26.035   4.509 -0.1273 -0.1982  0.0630
55581W        W98519  33.500  28.611   7.532  0.2907 -0.3072 -0.0744
55582W        W98520  33.407  28.621   8.668 -0.1074 -0.3619 -0.0129
55583W        W98521  33.610  24.937   4.197 -0.0111 -0.0142  0.2249
55584W        W98522  32.921  26.594   5.370 -0.0896  0.1788  0.4136
55585W        W98523  34.493  27.745   3.971  0.1740 -0.3009 -0.3817
55586W        W98524  33.804  28.540   5.239  0.3822  0.0780 -0.2255
55587W        W98525  32.872  28.650   6.878  0.2616 -0.1200 -0.2100
55588W        W98526  33.842  27.702   5.681 -0.2461  0.0004  0.0852
55589W        W98527  30.188  25.581   3.670  0.1055 -0.0234  0.2412
55590W        W98528  33.320  28.321   6.681  0.2562  0.0860  0.2374
55591W        W98529  33.233  27.158   4.319  0.1738  0.1404  0.0705
55592W        W98530  32.485  27.441   5.977  0.0758  0.0870  0.0688
55593W        W98531  34.159  28.747   3.073  0.0898 -0.0744 -0.1435
55594W        W98532  33.132  26.106   5.033 -0.4541  0.3243  0.2830
55595W        W98533  33.318  28.016   5.709 -0.0215 -0.0761  0.0809
55596W        W98534  33.922  26.936   6.239  0.0630 -0.2920 -0.0606
55597W        W98535  32.856  24.828   5.073  0.3657  0.3526  0.0477
55598W        W98536  32.175  29.145   4.042  0.0748 -0.2363 -0.1147
55599W        W98537  32.489  27.455   5.372 -0.0281  0.0651  0.0394
55600W        W98538  32.567  26.401   4.123 -0.1929 -0.4595 -0.1285
55601W        W98539  32.557  27.751   4.925 -0.0630 -0.0877  0.0527
55602W        W98540  30.882  29.524   3.698  0.0150 -0.0476 -0.0488
55603W        W98541   0.679  28.595   3.024 -0.0158 -0.2512 -0.1403
55604W        W98542  34.435  29.144   5.612 -0.1574  0.2522  0.0717
55605W        W98543  33.939  28.514   7.828 -0.3306 -0.1735 -0.0017
55606W        W98544  33.279  27.669   2.341 -0.2751 -0.0022 -0.2571
55607W        W98545  32.969  26.183   5.792 -0.0217 -0.0100  0.1408
55608W        W98546  34.615  28.794   4.171 -0.1725 -0.0435 -0.0844
55609W        W98547  33.530  28.642   4.529  0.0839 -0.1433 -0.2783
55610W        W98548  34.098  27.767   4.841  0.2461 -0.0549  0.2000
55611W        W98549  34.477  26.073   6.476 -0.0259  0.2156  0.2101
55612W        W98550  34.675  26.628   5.428  0.0311  0.1396 -0.1526
55613W        W98551  32.334  28.268   3.712  0.2251 -0.1169  0.3628
55614W        W98552  33.470  27.539   3.227 -0.1784  0.2025 -0.0894
55615W        W98553  32.559  27.757   6.912  0.1629 -0.2275  0.0047
55616W        W98554  34.223  25.764   7.328  0.0235  0.1095 -0.2149
55617W        W98555  33.508  27.063   6.087  0.4111  0.0595 -0.0511
55618W        W98556  32.454  28.223   5.157  0.0819  0.0922  0.0845
55619W        W98557  31.913  25.789   4.426 -0.1070 -0.2292  0.0445
55620W        W98558  32.531  24.914   6.166  0.1696 -0.4387  0.2644
55621W        W98559  31.787  26.167   4.073  0.2045  0.3517 -0.0258
55622W        W98560  33.829  27.543   3.601 -0.3099  0.1889  0.1082
55623W        W98561  32.727  27.187   3.703 -0.2885 -0.2743 -0.4242
55624W        W98562  34.478  26.314   6.924  0.1442  0.0037 -0.1582
55625W        W98563  34.283  24.727   6.748 -0.1139 -0.3635  0.1088
55626W        W98564  32.378  26.917   4.027  0.1242 -0.1802 -0.2779
55627W        W98565   0.546  26.163   4.758  0.5281  0.1320 -0.0788
55628W        W98566  32.406  28.180   4.668 -0.0199  0.0603  0.0282
55629W        W98567  33.701  29.464   8.070 -0.1583  0.0723 -0.0561
55630W        W98568  32.515  25.327   5.726  0.0242 -0.0700 -0.1579
55631W        W98569  33.436  27.479   5.823 -0.0107 -0.2026 -0.2545
55632W        W98570  31.611  25.929   5.779  0.0539 -0.2995 -0.0022
55633W        W98571  33.859  28.092   6.883 -0.3075 -0.2486  0.0868
55634W        W98572   0.380  25.370   5.837  0.2312  0.0673 -0.0035
55635W        W98573  33.500  27.465   5.335  0.0826 -0.0443  0.3259
55636W        W98574   0.231  27.522   2.651 -0.1673  0.2428  0.0954
55637W        W98575  33.743  27.464   6.709  0.1972 -0.2304 -0.0961
55638W        W98576  33.217  28.388   2.814  0.0354  0.0749  0.0305
55639W        W98577  34.197  29.314   8.108  0.1234  0.1501  0.4580
55640W        W98578  32.708  25.287   4.667 -0.3552 -0.2079  0.3093
55641W        W98579  32.800  26.948   4.711  0.1232 -0.1171  0.1469
55642W        W98580   0.959  25.717   4.047  0.3165  0.0724  0.1309
55643W        W98581   0.173  26.151   5.468  0.1023 -0.3457 -0.5375
55644W        W98582  33.146  29.126   5.527 -0.1063 -0.2902 -0.1892
55645W        W98583  32.469  27.236   9.663 -0.1831  0.0046  0.0854
55646W        W98584  32.313  25.672   8.257 -0.0703 -0.1927  0.3993
55647W        W98585  33.284  25.881   8.606  0.0133 -0.0358  0.1490
55648W        W98586  33.259  26.413   7.828 -0.1611  0.0908  0.1624
55649W        W98587  32.749  25.024   6.677  0.1701 -0.0094 -0.1975
55650W        W98588  31.605  24.728   8.338 -0.3949  0.2112 -0.1070
55651W        W98589  32.770  27.096   6.937 -0.0404  0.1132 -0.0482
55652W        W98590  33.168  26.356   8.856  0.0836 -0.3207 -0.1590
55653W        W98591   0.054  25.819   7.130  0.0429 -0.0327 -0.0561
55654W        W98592  33.855  24.943   8.922  0.0078  0.0653 -0.0875
55655W        W98593   1.199  28.990   7.559  0.0106  0.0215  0.0149
55656W        W98594  31.557  26.272   7.352  0.0360 -0.3643 -0.2384
55657W        W98595  32.646  27.175   9.140 -0.0643 -0.1573  0.2248
55658W        W98596  34.424  27.415   8.270  0.2821  0.0010  0.3951
55659W        W98597   0.469  26.865   9.210  0.3070  0.3164  0.0646
55660W        W98598   0.829  27.730   8.222 -0.1954  0.0453  0.1300
55661W        W98599  32.587  26.696   9.043 -0.1367 -0.1597  0.0940
55662W        W98600  32.213  27.721   9.775 -0.0535 -0.3919  0.0361
55663W        W98601  33.486  28.543   8.022 -0.4446 -0.2592  0.0649
55664W        W98602  33.586  28.082   6.271  0.0583 -0.0702  0.0429
55665W        W98603  34.649  28.652   7.143  0.0795 -0.0058 -0.1700
55666W        W98604   0.072  27.908   7.778 -0.3127 -0.0046 -0.4011
55667W        W98605  33.156  26.349   9.637  0.0665  0.0150  0.0872
55668W        W98606  32.968  28.649   7.543  0.0237  0.1726 -0.1099
55669W        W98607  33.996  26.411   6.652 -0.0853  0.1557  0.0469
55670W        W98608  33.737  25.962   7.291  0.1888 -0.3596 -0.1478
55671W        W98609  31.321  30.721   9.532  0.0980 -0.0394 -0.3163
55672W        W98610  33.765  25.811   8.538 -0.0255  0.1777  0.1575
55673W        W98611  33.905  26.876   9.195 -0.1608 -0.1175 -0.1368
55674W        W98612  32.377  27.003   8.704  0.0190 -0.2295  0.1795
55675W        W98613  33.292  27.323   9.008 -0.1985  0.3468 -0.4397
55676W        W98614  33.581  26.596   6.347  0.0808  0.3840  0.0856
55677W        W98615  32.896  27.746   8.995  0.1998  0.0207 -0.1003
55678W        W98616  33.249  27.164   6.631  0.0511 -0.1561  0.1474
55679W        W98617  34.265  27.246   7.474  0.0251 -0.3207 -0.0207
55680W        W98618  31.718  27.088   8.954  0.0669  0.0848  0.0734
55681W        W98619  33.889  28.423   6.450 -0.2104 -0.0524 -0.0510
55682W        W98620  32.748  29.477   9.424 -0.3907  0.0283 -0.0815
55683W        W98621  33.202  27.539   6.245 -0.3931  0.1565  0.2736
55684W        W98622  32.210  25.859   9.551  0.0675 -0.1613  0.0565
55685W        W98623  33.589  28.391   9.108  0.2813  0.0547  0.3610
55686W        W98624  33.496  27.901   8.995 -0.2823 -0.1632  0.0449
55687W        W98625  34.371  25.079  10.080  0.1352 -0.0356 -0.0151
55688W        W98626  32.687  26.720   9.611  0.2550  0.3981  0.1206
55689W        W98627  31.141  23.942   8.901 -0.0642  0.2932 -0.0667
55690W        W98628  32.031  26.180   7.235  0.1163  0.1076 -0.4224
55691W        W98629  32.856  26.476   6.944 -0.1733  0.2440 -0.3290
55692W        W98630  33.171  27.293   7.885 -0.5188 -0.2735 -0.0098
55693W        W98631  32.687  25.704   9.270 -0.0743  0.0385 -0.0314
55694W        W98632  33.804  26.625   5.836 -0.0978  0.2530 -0.2429
55695W        W98633  32.273  27.569   8.804  0.1584 -0.0587 -0.1031
55696W        W98634   0.150  27.573   9.305  0.2491 -0.0971 -0.0035
55697W        W98635  33.636  26.375   6.990  0.2705 -0.0045 -0.1610
55698W        W98636  33.533  26.086   5.525 -0.0221 -0.0498  0.1168
55699W        W98637  32.994  27.762   7.937  0.1246  0.2061 -0.2062
55700W        W98638  31.596  27.740   6.676 -0.2040  0.3054  0.3446
55701W        W98639  34.520  28.548   8.426 -0.1996 -0.1609 -0.0200
55702W        W98640  32.977  26.787   7.369 -0.1897  0.1068  0.1115
55703W        W98641  34.246  26.516   7.901  0.1800 -0.1284 -0.4314
55704W        W98642  33.962  28.025   9.312  0.2305 -0.2224  0.1535
55705W        W98643   1.682  25.109  10.230 -0.1755 -0.2086  0.0221
55706W        W98644  33.383  24.966   8.226  0.1170  0.1265 -0.4365
55707W        W98645  32.595  25.926   6.838 -0.3231  0.0378 -0.0508
55708W        W98646  33.354  29.444   7.144  0.1825 -0.1721  0.0146
55709W        W98647  33.029  27.485   5.494  0.1891  0.0721  0.1479
55710W        W98648  33.761  26.618   8.070 -0.1456 -0.0047  0.2334
55711W        W98649  34.289  29.035   8.594  0.2117 -0.2171 -0.1671
55712W        W98650   0.080  28.873   7.679 -0.1843 -0.1493 -0.2051
55713W        W98651  34.375  26.692   7.375  0.0793  0.1307 -0.1535
55714W        W98652  34.254  25.458   8.608  0.0882  0.1457  0.1349
55715W        W98653   0.473  27.849   9.571 -0.0328 -0.2035 -0.1659
55716W        W98654  34.231  27.330   6.548 -0.0041 -0.0128 -0.2566
55717W        W98655  33.366  27.666   7.637 -0.1626  0.2990  0.2956
55718W        W98656  33.887  27.391   9.433  0.3474  0.0408 -0.1796
55719W        W98657  33.718  26.961   6.750  0.4411  0.0104 -0.0151
55720W        W98658  31.914  26.510   7.743  0.0599 -0.2054 -0.0013
55721W        W98659  33.674  26.298   8.834 -0.0408  0.2814  0.2340
55722W        W98660  33.353  25.931   7.654  0.2279 -0.2645 -0.4220
55723W        W98661  31.541  27.459   9.369 -0.0529 -0.1510  0.0971
55724W        W98662  31.806  25.739   7.139 -0.1485 -0.1762 -0.1120
55725W        W98663  34.016  26.244   8.289  0.3080 -0.1954 -0.1402
55726W        W98664  33.667  28.054   7.868  0.1723 -0.1759  0.0162
55727W        W98665  34.098  26.308   7.282 -0.0908  0.0765  0.1552
55728W        W98666  34.591  27.693   6.352 -0.2105  0.1991  0.1115
55729W        W98667  33.747  25.388   8.179 -0.0377  0.1170 -0.1037
55730W        W98668  32.852  25.812   6.407  0.3236  0.0182 -0.2556
55731W        W98669  33.404  26.838   7.650 -0.1242  0.0719  0.0903
55732W        W98670  33.927  25.360   9.784 -0.0405 -0.0825 -0.0604
55733W        W98671  34.393  26.914   6.909 -0.0539  0.1703 -0.1203
55734W        W98672  32.762  25.149   9.773  0.0382 -0.0063 -0.1435
55735W        W98673  34.578  27.969   8.257 -0.1292  0.3510 -0.1395
55736W        W98674  34.022  27.316   8.606 -0.1186  0.0264 -0.0180
55737W        W98675  33.982  27.608   9.019 -0.0307 -0.0932 -0.0541
55738W        W98676  33.421  27.845   6.747  0.1995 -0.0551 -0.1050
55739W        W98677  32.677  25.975   9.727  0.0260 -0.0234 -0.3382
55740W        W98678  33.828  26.779   7.220 -0.3158 -0.4350 -0.0332
55741W        W98679  32.797  24.114   8.862 -0.0706 -0.0183 -0.3676
55742W        W98680  33.089  26.719   6.526  0.3784 -0.0241  0.0392
55743W        W98681  33.635  26.200   9.299 -0.2007 -0.1518  0.0255
55744W        W98682   0.085  26.561   6.544  0.0711 -0.1989 -0.1208
55745W        W98683  34.238  26.979   9.503 -0.0328 -0.3966 -0.2349
55746W        W98684  34.250  26.769   5.755  0.1658  0.1968  0.1006
55747W        W98685   0.487  27.649   8.692 -0.0127 -0.1095  0.2693
55748W        W98686  32.338  26.375   9.793  0.1475  0.0139 -0.1725
55749W        W98687  32.136  25.646   7.644  0.0173 -0.0015  0.0338
55750W        W98688  34.449  27.730   7.359  0.0480 -0.2687  0.2690
55751W        W98689  33.228  25.912   9.206 -0.1595  0.2570 -0.1528
55752W        W98690  33.194  26.193   6.692  0.1287  0.1471 -0.0469
55753W        W98691  34.130  28.592   6.883  0.0155 -0.3007 -0.0452
55754W        W98692   0.639  28.556   9.239  0.1408  0.0114  0.0114
55755W        W98693  33.925  25.582   7.711 -0.3048  0.1887  0.0774
55756W        W98694  33.240  28.991   7.752 -0.0082 -0.3129 -0.0925
55757W        W98695   0.313  27.618   8.163  0.2457 -0.0620 -0.2305
55758W        W98696  34.643  27.832   6.870  0.0065 -0.0031 -0.0359
55759W        W98697  33.289  26.796   8.247  0.1646  0.1648 -0.1348
55760W        W98698  33.771  26.357   7.661 -0.2356 -0.2975 -0.0832
55761W        W98699   0.671  28.088   8.750 -0.1135 -0.1418  0.2903
55762W        W98700  32.812  26.225   7.737  0.3554  0.3169  0.2122
55763W        W98701  32.662  23.839   8.485  0.1150  0.1917 -0.1195
55764W        W98702  33.388  29.051   8.272  0.0453 -0.1576 -0.1337
55765W        W98703   0.805  26.028   7.743  0.0414  0.0212  0.0296
55766W        W98704  33.041  28.322   8.588 -0.0240  0.2054  0.0114
55767W        W98705  33.150  28.355   7.177  0.1776  0.2015  0.2419
55768W        W98706  32.306  29.610   9.657 -0.1975  0.2053  0.0995
55769W        W98707  33.635  27.132   8.093  0.1250 -0.0414  0.2684
55770W        W98708  33.699  25.461   6.904  0.0188 -0.0546 -0.1016
55771W        W98709  32.748  26.948   8.301  0.3069 -0.1476 -0.0023
55772W        W98710  33.604  28.142   8.543 -0.0228 -0.1168 -0.1123
55773W        W98711  34.087  27.979   6.047 -0.2648  0.0891  0.1879
55774W        W98712  33.310  28.731   9.432  0.3728  0.1006  0.0735
55775W        W98713  34.663  27.543   8.743 -0.3796  0.0269 -0.2917
55776W        W98714   0.060  28.981   8.811  0.1703  0.2610  0.1890
55777W        W98715  32.234  26.721   9.407 -0.0546 -0.0098  0.3921
55778W        W98716   0.333  25.599   8.923  0.0663  0.0287  0.0601
55779W        W98717  32.875  25.930   7.304  0.1936 -0.0383  0.2603
55780W        W98718  33.369  25.094   9.699  0.0244 -0.3760 -0.1372
55781W        W98719  34.015  26.548   5.327 -0.2687 -0.1343 -0.0950
55782W        W98720  32.271  25.357   9.613 -0.0803 -0.0156 -0.1300
55783W        W98721  33.056  26.813   8.760  0.2650 -0.0192  0.0022
55784W        W98722   0.873  26.968   8.896 -0.1370  0.0465  0.0442
55785W        W98723  33.571  25.695   9.497 -0.3002 -0.0328 -0.1627
55786W        W98724  33.592  29.037   7.338  0.0695 -0.4552 -0.2442
55787W        W98725  32.591  26.083   8.157  0.0675  0.2487 -0.4096
55788W        W98726   0.544  25.762   6.991 -0.3564  0.1728 -0.3300
55789W        W98727  33.957  26.880   7.686  0.0563 -0.0192  0.1804
55790W        W98728  33.950  28.355   7.324  0.2194 -0.2111  0.1412
55791W        W98729  34.427  30.439   8.850  0.1464  0.0894  0.3648
55792W        W98730  34.113  29.422   8.878  0.0629  0.2752 -0.0310
55793W        W98731  32.397  26.894   7.113 -0.0766  0.3351 -0.0122
55794W        W98732   2.152  27.670   7.193  0.1557  0.0364  0.1160
55795W        W98733   0.426  29.356   7.721  0.2129 -0.0702 -0.0531
55796W        W98734   0.772  26.496   8.594 -0.1600 -0.2599  0.0155
55797W        W98735  32.931  26.773   7.871  0.0419 -0.0810  0.0174
55798W        W98736  32.743  26.404  10.143 -0.1485  0.0718  0.0323
55799W        W98737  32.389  25.763   7.259 -0.0028 -0.1591 -0.1791
55800W        W98738  33.840  27.498   6.199 -0.0525 -0.1147 -0.4328
55801W        W98739  33.401  27.602   9.523  0.0343  0.3234  0.1837
55802W        W98740  33.877  26.044   9.846 -0.0384 -0.1015 -0.2902
55803W        W98741  33.065  26.683   5.974 -0.1948 -0.0087 -0.0924
55804W        W98742  33.661  26.591   9.597 -0.0369  0.1710 -0.1893
55805W        W98743  32.280  26.139   7.721  0.5926 -0.1005 -0.2391
55806W        W98744  33.313  25.909   7.060 -0.2221  0.0972  0.0207
55807W        W98745  32.551  28.873   7.235 -0.0068  0.0418 -0.0445
55808W        W98746  31.446  25.749   6.655 -0.0893 -0.0227 -0.1105
55809W        W98747  34.469  26.318   8.696  0.0251  0.1368 -0.2325
55810W        W98748  30.576  27.526   9.560 -0.1430  0.1177 -0.2688
55811W        W98749  32.980  26.406   8.382  0.2854  0.0807 -0.4747
55812W        W98750  33.406  27.055   9.470 -0.1407  0.3550  0.0553
55813W        W98751  33.316  26.769   7.040  0.0320  0.2308  0.2699
55814W        W98752  33.963  27.438   7.923  0.4234  0.1306 -0.0489
55815W        W98753   1.010  28.783   8.082  0.0091  0.1702  0.1270
55816W        W98754  31.427  24.679   9.543 -0.0265  0.0480 -0.0504
55817W        W98755  33.858  27.715   7.456  0.4779  0.0019  0.1225
55818W        W98756   0.494  27.020   7.936  0.0644  0.1572 -0.1423
55819W        W98757  33.083  24.947   8.960  0.1369  0.1875 -0.1856
55820W        W98758  32.807  28.865   9.941  0.3056  0.0527 -0.0851
55821W        W98759  33.327  32.269   2.956 -0.0794  0.2573  0.0276
55822W        W98760  31.925  29.399   1.255 -0.1395 -0.0001 -0.1534
55823W        W98761  31.585  30.137   0.594  0.1652 -0.0181 -0.3078
55824W        W98762  33.936  28.241   2.491 -0.0101 -0.0622 -0.2056
55825W        W98763   0.412  30.230   3.718  0.0718 -0.3727 -0.2513
55826W        W98764  32.891  32.141   1.913 -0.2090 -0.0215  0.1943
55827W        W98765   0.278  27.643   0.473 -0.0622  0.2681  0.1348
55828W        W98766  33.763  29.270   1.853 -0.1835 -0.0160 -0.0161
55829W        W98767  32.646  29.398   1.012  0.0604  0.2333  0.1803
55830W        W98768  34.556  31.214   4.227 -0.0985 -0.2109  0.0127
55831W        W98769  34.621  29.917   1.041 -0.0972 -0.0671  0.0351
55832W        W98770  34.501  31.061   2.782 -0.2869  0.1672 -0.2773
55833W        W98771  33.588  31.962   2.043  0.2203  0.0842 -0.5744
55834W        W98772  32.484  28.871   0.045  0.1008 -0.1773 -0.6155
55835W        W98773  33.872  28.892   2.304 -0.0648 -0.3790  0.0129
55836W        W98774  33.319  30.003   1.307  0.2971 -0.0751 -0.2160
55837W        W98775   0.697  31.948   1.941 -0.0578 -0.0104  0.1837
55838W        W98776  34.067  33.114   1.759  0.2703 -0.2551  0.0448
55839W        W98777  33.133  32.074   0.636  0.0341 -0.5808  0.2625
55840W        W98778  32.751  31.076   1.021  0.2361 -0.1322  0.2014
55841W        W98779  34.098  31.796   1.303  0.3827 -0.2648  0.1801
55842W        W98780  32.083  32.768   2.645 -0.0930  0.2215 -0.1401
55843W        W98781  32.557  30.446   0.163 -0.1501  0.0111  0.0576
55844W        W98782  32.394  33.223   3.618  0.1563  0.3764  0.3048
55845W        W98783  33.741  32.113   1.604  0.3406 -0.2466  0.0990
55846W        W98784  33.578  31.303   1.651  0.0565 -0.1504  0.0585
55847W        W98785  34.099  32.566   2.755 -0.1287  0.0035 -0.1511
55848W        W98786  32.987  30.548   1.059 -0.0333  0.2595  0.0700
55849W        W98787  33.473  33.458  31.706 -0.1856  0.2499  0.0939
55850W        W98788  33.318  29.718   0.800  0.0673 -0.3025 -0.0831
55851W        W98789  33.672  28.614   0.716 -0.1968 -0.1591 -0.0272
55852W        W98790  32.749  32.683   1.355  0.0534 -0.1684  0.0544
55853W        W98791  33.755  29.775   2.532 -0.0038  0.1998 -0.1682
55854W        W98792  33.005  32.156   1.427  0.2322 -0.0330  0.2129
55855W        W98793  34.416  29.415   1.288 -0.1471 -0.2400 -0.0244
55856W        W98794  32.174  29.956   1.326  0.1681  0.0739 -0.1705
55857W        W98795  32.832  30.371   3.685 -0.1091 -0.0432 -0.2146
55858W        W98796  32.436  30.939   4.091 -0.0327  0.1566 -0.2323
55859W        W98797  33.659  29.554   0.074 -0.0178  0.4292  0.0368
55860W        W98798  32.707  30.766   0.599  0.0667 -0.2808  0.3398
55861W        W98799  33.828  32.068   2.992 -0.3216 -0.1373  0.3630
55862W        W98800  33.767  29.782   0.511 -0.1610  0.1075 -0.1094
55863W        W98801  33.992  29.751   1.265  0.2758  0.0612  0.0366
55864W        W98802  31.903  33.101   1.786 -0.2099 -0.0851 -0.1089
55865W        W98803   0.177  29.929   4.560  0.0657 -0.1438  0.1005
55866W        W98804  33.516  31.891   2.602  0.0040 -0.2286  0.0426
55867W        W98805  32.789  31.386   0.588  0.1821  0.0913  0.0639
55868W        W98806  32.651  31.168   1.535 -0.0237 -0.1186  0.0435
55869W        W98807  33.422  30.544   1.274 -0.0994  0.1120  0.1195
55870W        W98808  34.096  29.518   2.825  0.0600 -0.1753  0.1892
55871W        W98809  33.732  31.560   3.474  0.3765 -0.0668  0.1933
55872W        W98810  33.548  29.868   3.146 -0.0138  0.1743  0.0231
55873W        W98811  33.004  30.154  31.908  0.0462 -0.0923 -0.3495
55874W        W98812  33.169  31.072   2.799 -0.2939 -0.0434  0.1413
55875W        W98813  31.954  31.265   1.661  0.5707  0.0970 -0.0579
55876W        W98814  33.315  29.272   4.913 -0.1126 -0.0869 -0.4373
55877W        W98815  33.573  29.297   2.402 -0.1934 -0.0546  0.1341
55878W        W98816  32.183  28.135   0.690  0.1140  0.0261 -0.1715
55879W        W98817  34.391  29.930   0.472 -0.0464 -0.2728 -0.2832
55880W        W98818  32.924  30.316   0.480  0.4206 -0.0787  0.4237
55881W        W98819  33.309  30.613   2.818 -0.1587  0.3235  0.2179
55882W        W98820  34.501  28.789   0.756  0.2066  0.2102 -0.1019
55883W        W98821  32.378  33.028   1.269  0.0953 -0.1854  0.2596
55884W        W98822  34.472  31.820   2.364 -0.3057 -0.0130 -0.0364
55885W        W98823  34.298  28.319   0.065  0.1361  0.4058 -0.2067
55886W        W98824  32.585  31.435   3.635 -0.1903  0.1843 -0.1926
55887W        W98825  32.971  28.712   1.315 -0.1898 -0.1345 -0.0099
55888W        W98826  32.800  32.175   0.246 -0.0435 -0.1541 -0.4378
55889W        W98827  33.366  30.640   1.846  0.1796 -0.1033  0.0918
55890W        W98828  34.248  32.422   1.336  0.1298 -0.1733  0.0482
55891W        W98829  32.740  29.929   4.385 -0.0299 -0.1740  0.2847
55892W        W98830  34.666  30.347   0.296  0.0460  0.3423 -0.0692
55893W        W98831  32.242  31.841   3.910 -0.1140  0.1430 -0.2431
55894W        W98832  32.731  32.652   2.696  0.1751  0.0894 -0.0113
55895W        W98833   0.326  33.539   0.650  0.0668 -0.1101  0.1759
55896W        W98834  33.154  31.470   1.265 -0.2175  0.0202 -0.0710
55897W        W98835  33.112  31.783   2.114 -0.0191 -0.1799 -0.1311
55898W        W98836  34.185  29.998   2.406  0.2529 -0.3672  0.1084
55899W        W98837   0.217  31.987  31.633 -0.3460  0.2403  0.0391
55900W        W98838  31.239  32.766  31.804  0.1564  0.3616 -0.0196
55901W        W98839  34.373  29.695   3.215 -0.1844 -0.5380 -0.3340
55902W        W98840  33.448  28.368   0.306 -0.2059 -0.2259 -0.0481
55903W        W98841  34.138  28.401   3.471  0.0165 -0.1411 -0.2029
55904W        W98842  31.569  31.555   3.502  0.1046  0.0390 -0.2841
55905W        W98843  31.361  34.088   3.650 -0.3052  0.0425  0.4064
55906W        W98844   0.351  28.922   3.327 -0.1106  0.3193  0.0252
55907W        W98845  33.354  32.919   1.080 -0.1971  0.0336  0.3315
55908W        W98846   0.027  30.907   0.321  0.1364 -0.2796  0.1455
55909W        W98847  34.420  28.580   2.520 -0.0783  0.0708 -0.4810
55910W        W98848  33.610  32.463   2.607 -0.0886 -0.1941 -0.1647
55911W        W98849  34.033  31.182   0.430 -0.2783  0.0285 -0.0788
55912W        W98850  32.770  32.292   0.909  0.0167 -0.1329  0.1708
55913W        W98851  31.632  32.492   2.382 -0.0883  0.2626  0.1150
55914W        W98852  34.070  31.290   1.536  0.2932 -0.1541  0.1067
55915W        W98853  31.267  29.700   0.433 -0.1348 -0.0627 -0.0126
55916W        W98854  33.658  30.360   3.223 -0.0330  0.1629 -0.0284
55917W        W98855  33.187  29.992   2.828  0.0482  0.2098  0.1220
55918W        W98856  32.264  32.158   1.911  0.1525 -0.0064 -0.1095
55919W        W98857   0.143  31.878   3.194  0.2374 -0.1587  0.0028
55920W        W98858  33.247  29.947   0.364 -0.1942 -0.0416 -0.1969
55921W        W98859  32.851  29.413   1.847 -0.1419  0.0575 -0.0502
55922W        W98860  31.954  32.073   1.459 -0.1438 -0.0538  0.0417
55923W        W98861  33.895  28.107   0.310  0.0349  0.0585 -0.2856
55924W        W98862  33.228  30.983   1.472 -0.2064 -0.1636  0.2507
55925W        W98863  34.147  29.679   3.667 -0.0353  0.1652  0.0438
55926W        W98864  32.856  29.134   2.318 -0.0564  0.2306  0.2295
55927W        W98865  33.825  30.669   1.873 -0.2326  0.0542 -0.1240
55928W        W98866  34.225  31.005   1.147  0.0996  0.1045 -0.4682
55929W        W98867  33.660  29.800   4.111 -0.0884  0.0998  0.1037
55930W        W98868  31.812  33.311   3.620  0.1242  0.1171  0.0096
55931W        W98869  33.410  30.410   0.263 -0.1009 -0.1682  0.0631
55932W        W98870  32.282  30.902   1.810  0.0893 -0.0957  0.2932
55933W        W98871   0.682  31.408   0.222 -0.0199  0.0677  0.0709
55934W        W98872  34.686  30.628   2.778 -0.0761 -0.0261 -0.1504
55935W        W98873  33.230  31.456   2.505  0.2691  0.1039  0.0664
55936W        W98874  33.868  32.169   0.267 -0.0954  0.1646  0.0726
55937W        W98875  31.729  30.853   1.845  0.0570  0.1031 -0.1935
55938W        W98876   0.052  29.674   1.621 -0.1926  0.0329  0.0209
55939W        W98877  34.090  29.421   2.276 -0.3402  0.0074 -0.4102
55940W        W98878  32.592  30.188   1.388  0.1447  0.1112 -0.2760
55941W        W98879  32.059  31.456   3.550  0.0065  0.3029  0.1023
55942W        W98880  33.658  27.115  30.968  0.1800  0.1252  0.0174
55943W        W98881  34.285  31.233   3.343 -0.3704 -0.2492 -0.2569
55944W        W98882  34.461  31.259   2.310 -0.0104 -0.0388  0.1147
55945W        W98883  33.585  31.561   2.941  0.2317  0.1271 -0.3077
55946W        W98884  33.975  32.935   1.198 -0.1268  0.0164  0.0093
55947W        W98885  33.709  30.050   0.902  0.0289  0.2337 -0.2808
55948W        W98886  34.369  29.229   3.761 -0.0589 -0.3761  0.3147
55949W        W98887  34.266  31.942   3.388  0.1253  0.0135 -0.3627
55950W        W98888  33.118  30.787   3.296  0.1513  0.1773  0.1419
55951W        W98889  32.904  30.353   2.616  0.2288  0.0168 -0.3496
55952W        W98890  32.539  28.569   1.482  0.2990 -0.0801 -0.0058
55953W        W98891  33.339  30.999  31.965  0.4073  0.0540 -0.0785
55954W        W98892  32.465  28.917   1.789 -0.0971  0.1334 -0.3986
55955W        W98893  32.458  32.155   2.486  0.3778 -0.3704  0.1129
55956W        W98894  33.621  29.416   1.055  0.0897  0.0614 -0.0813
55957W        W98895   0.006  30.975   1.428 -0.1543  0.4060 -0.0309
55958W        W98896  33.164  30.664   3.918 -0.1722 -0.0599 -0.1237
55959W        W98897  33.888  28.753   1.776 -0.0870  0.0008  0.2554
55960W        W98898  33.666  31.562   1.265  0.0113 -0.3883 -0.0244
55961W        W98899  32.676  31.887   0.608 -0.0370  0.1435  0.1431
55962W        W98900  32.397  31.039   2.318  0.0160 -0.0741 -0.2338
55963W        W98901  33.105  31.306   1.849 -0.4347 -0.1013  0.1301
55964W        W98902   0.031  30.904   3.242 -0.2719  0.1492 -0.2999
55965W        W98903  33.613  31.209   2.573  0.2043  0.1212 -0.0980
55966W        W98904  33.555  31.511   2.151 -0.2174 -0.2722 -0.0011
55967W        W98905  32.342  30.311   1.767 -0.1291 -0.2321 -0.0835
55968W        W98906  33.999  28.597   0.325 -0.3312  0.0435  0.0380
55969W        W98907  32.550  33.396   3.169  0.3336 -0.2385  0.2095
55970W        W98908  33.115  31.769   3.005  0.1256  0.5407  0.0311
55971W        W98909  33.140  33.522   0.234 -0.0028  0.1168  0.2230
55972W        W98910   0.377  29.714   0.440 -0.0116  0.1411  0.2258
55973W        W98911  33.459  31.093   1.025 -0.1547  0.0347  0.0206
55974W        W98912  32.160  31.803   0.610 -0.0291 -0.1191 -0.0731
55975W        W98913  32.079  32.479   0.034  0.3803  0.1380  0.1409
55976W        W98914  34.421  30.589   1.434 -0.1102 -0.2800  0.1179
55977W        W98915  33.959  29.903   1.853 -0.1746 -0.0371 -0.0793
55978W        W98916  34.602  30.297   3.770 -0.0864  0.0998  0.1021
55979W        W98917  32.103  33.660   3.323  0.2862 -0.1293 -0.1026
55980W        W98918  31.938  28.499   0.501 -0.2996 -0.1187 -0.3121
55981W        W98919  33.248  29.975   2.320 -0.0526 -0.0965  0.0254
55982W        W98920   0.241  31.401   0.043  0.4404 -0.2125 -0.2556
55983W        W98921  33.944  31.689   1.765  0.2107  0.2053  0.2418
55984W        W98922  33.189  32.763   2.733 -0.2753 -0.0491 -0.2181
55985W        W98923  33.682  32.432   2.097  0.6177 -0.2380  0.2563
55986W        W98924  34.357  27.905   0.404 -0.0567  0.0517 -0.1526
55987W        W98925  33.754  30.260   2.205 -0.0110  0.0544  0.0279
55988W        W98926  33.811  30.844   1.368  0.0432 -0.1399  0.1097
55989W        W98927  32.845  31.209   3.172  0.0119 -0.0397  0.2867
55990W        W98928   0.752  28.892   0.827  0.2380  0.1008  0.2056
55991W        W98929  34.283  29.377   1.812  0.0269  0.0414 -0.0384
55992W        W98930  33.956  31.216   2.089 -0.2261  0.0831  0.5899
55993W        W98931  34.179  30.916   4.358 -0.0959  0.1229 -0.0005
55994W        W98932  32.808  28.936   0.899  0.0631  0.2751  0.0799
55995W        W98933  34.635  33.309   0.987  0.0977  0.0026  0.0904
55996W        W98934  33.100  30.309   1.575  0.0221  0.0559  0.0931
55997W        W98935  34.152  29.561   0.038  0.0914 -0.2197 -0.0168
55998W        W98936  33.503  29.659   2.064  0.0469  0.1561  0.1042
55999W        W98937  32.138  32.983   0.068 -0.1072  0.1919  0.1673
56000W        W98938  33.757  32.267   1.150  0.2816  0.1309  0.2260
56001W        W98939   0.097  32.521   2.217  0.0267  0.0021  0.2243
56002W        W98940  33.692  33.008   2.700  0.1892  0.1781  0.3758
56003W        W98941  32.242  29.706   0.912 -0.2453  0.1484  0.2565
56004W        W98942  34.347  31.935   2.800  0.1216 -0.2985  0.0061
56005W        W98943  34.138  30.807   2.246  0.4257  0.1271 -0.0765
56006W        W98944  34.496  32.467   1.770 -0.1279 -0.0416 -0.1561
56007W        W98945  33.951  29.219   1.388  0.0240 -0.0469 -0.2441
56008W        W98946   0.264  29.840   2.334 -0.2585  0.0407 -0.2678
56009W        W98947  33.328  31.222   3.516 -0.2614  0.1706 -0.4038
56010W        W98948  33.321  28.907   0.915 -0.2534 -0.1285  0.0788
56011W        W98949  33.936  30.307   0.530 -0.0141  0.1274  0.2252
56012W        W98950  33.462  31.037   2.116 -0.2046  0.0917 -0.2577
56013W        W98951  34.636  28.199   3.656 -0.0193  0.0445  0.2821
56014W        W98952  33.661  31.269   3.889  0.1566  0.1152  0.1803
56015W        W98953  31.783  30.230   1.214  0.2243  0.1966 -0.3055
56016W        W98954  33.107  27.203   1.080  0.2857 -0.1675  0.2876
56017W        W98955   0.127  29.047   1.142  0.0826  0.0017  0.1436
56018W        W98956  32.245  28.446   1.908  0.1510 -0.3102  0.1192
56019W        W98957   0.205  29.516   0.995  0.1443  0.0545  0.1230
56020W        W98958  31.847  29.989  31.704 -0.0777 -0.0050 -0.0421
56021W        W98959  34.087  30.068   3.012  0.1526  0.0630 -0.0313
56022W        W98960   0.283  28.576   2.765  0.1840  0.0642  0.0536
56023W        W98961  33.138  29.391   1.130 -0.0572  0.3114  0.3026
56024W        W98962  34.279  30.354   1.962 -0.1151  0.0524 -0.0084
56025W        W98963  34.114  32.419   3.252 -0.0146  0.1616 -0.6354
56026W        W98964  32.352  31.560   1.537  0.1495  0.0906 -0.2005
56027W        W98965  32.606  28.339   0.973 -0.1985 -0.0192 -0.0035
56028W        W98966  33.383  31.804   3.717 -0.3529 -0.0934  0.0237
56029W        W98967  33.457  28.796   3.756 -0.1004  0.4401 -0.2706
56030W        W98968  33.030  32.192   3.459  0.1102 -0.0576  0.1501
56031W        W98969  34.175  28.439   1.509 -0.2219 -0.0640 -0.1937
56032W        W98970  32.801  30.371   2.008  0.0059 -0.0422 -0.0863
56033W        W98971   0.113  30.249   0.757  0.3258 -0.1084 -0.3892
56034W        W98972  34.641  31.103   3.742  0.0512 -0.0953  0.0278
56035W        W98973  34.431  31.739  31.872  0.1251  0.4644 -0.0505
56036W        W98974   0.687  32.864   2.323 -0.1887  0.2128  0.0472
56037W        W98975  33.800  29.121   2.945 -0.1170  0.3036 -0.5570
56038W        W98976  32.457  29.517   2.345  0.1665 -0.0494  0.0358
56039W        W98977  34.193  30.221   1.010  0.1076 -0.4843  0.4267
56040W        W98978  34.194  29.640   0.806  0.0812 -0.1274  0.2897
56041W        W98979  33.313  31.817   1.668 -0.0713 -0.1947  0.1692
56042W        W98980  32.581  32.167   6.320  0.2279 -0.1623  0.0370
56043W        W98981  32.613  29.450   5.583 -0.1719  0.0186 -0.1391
56044W        W98982  31.306  30.025   3.757 -0.1147  0.2105  0.2866
56045W        W98983  33.117  28.952   7.210  0.0897 -0.1353  0.0417
56046W        W98984  33.712  30.259   5.742 -0.3205 -0.2564  0.3462
56047W        W98985  33.379  33.105   6.280  0.0520 -0.1576 -0.2393
56048W        W98986  33.570  29.658   4.693  0.1837  0.0475 -0.1230
56049W        W98987  31.736  29.186   6.072 -0.1755 -0.2649 -0.5173
56050W        W98988  32.032  29.847   4.805  0.3173 -0.0233  0.2433
56051W        W98989  32.414  31.267   6.465  0.4019 -0.1400 -0.4706
56052W        W98990  32.830  29.531   4.648  0.0336  0.3503  0.0025
56053W        W98991  33.836  29.520   7.284  0.0032 -0.0554  0.1804
56054W        W98992  34.011  30.861   4.847  0.1017 -0.1127 -0.0189
56055W        W98993  32.793  30.948   3.713 -0.1416  0.0710 -0.1451
56056W        W98994  32.407  30.247   5.379 -0.1848 -0.0369  0.2073
56057W        W98995  34.058  31.866   5.565  0.0892  0.2985 -0.0319
56058W        W98996  32.748  29.883   5.359 -0.0891 -0.3638  0.3629
56059W        W98997   0.557  32.230   5.420 -0.1948  0.1168  0.0004
56060W        W98998  32.209  31.009   5.854 -0.0990  0.0037 -0.0456
56061W        W98999  32.107  32.779   4.969 -0.1024  0.0628 -0.1114
56062W        W99000  33.300  31.136   4.257  0.0328  0.0436  0.5429
56063W        W99001  33.677  34.021   5.873 -0.0973 -0.1491 -0.2763
56064W        W99002  32.355  31.841   2.937  0.3008 -0.1610 -0.0057
56065W        W99003  34.149  31.092   3.894 -0.2472  0.0771  0.1202
56066W        W99004  34.031  30.313   4.839  0.1006 -0.0765 -0.0049
56067W        W99005   0.095  32.909   6.758  0.4529  0.1076 -0.0951
56068W        W99006  33.071  31.771   4.934  0.0807  0.2484  0.0363
56069W        W99007  32.613  32.938   4.132 -0.4215 -0.0534  0.3663
56070W        W99008  34.095  30.618   3.106  0.1750  0.0059  0.1147
56071W        W99009  34.111  29.133   5.263 -0.2958 -0.0380 -0.1108
56072W        W99010  32.579  33.112   4.855 -0.1354  0.0192  0.2675
56073W        W99011  32.725  29.211   5.121  0.3855  0.0688  0.1473
56074W        W99012  33.100  32.235   5.159 -0.1797 -0.0348  0.1837
56075W        W99013  32.344  29.178   4.785  0.0405  0.3049 -0.2135
56076W        W99014  31.774  30.664   5.533  0.1223 -0.0006  0.0470
56077W        W99015  33.101  30.934   5.878 -0.1275 -0.2126 -0.2135
56078W        W99016  34.614  31.433   7.441  0.0707 -0.1048 -0.2748
56079W        W99017  33.673  29.903   3.654  0.1232 -0.2116 -0.0619
56080W        W99018  32.403  32.706   5.577 -0.0711 -0.0283  0.1972
56081W        W99019  33.550  30.836   5.672  0.0695  0.0588 -0.1237
56082W        W99020  32.804  32.190   3.051  0.2175  0.1980 -0.0918
56083W        W99021  34.634  32.022   3.729  0.1557  0.0073 -0.0117
56084W        W99022  34.105  31.006   5.340  0.0832 -0.0343  0.2220
56085W        W99023   0.484  29.659   5.718 -0.4464 -0.1875 -0.2749
56086W        W99024   1.170  31.869   7.135 -0.3734 -0.1030  0.1360
56087W        W99025  32.160  32.372   4.714  0.0586 -0.1138 -0.2961
56088W        W99026  31.851  30.709   6.090 -0.0709 -0.1701  0.1844
56089W        W99027  32.470  31.342   4.781 -0.1507 -0.3788 -0.2271
56090W        W99028  32.540  28.784   6.229 -0.2835  0.1323 -0.0259
56091W        W99029  32.595  30.027   5.799 -0.1457  0.0545 -0.1091
56092W        W99030  33.442  29.466   5.777  0.1632 -0.0344 -0.0209
56093W        W99031  32.815  31.780   4.016  0.1636 -0.0965  0.0095
56094W        W99032  33.045  30.937   6.412 -0.0359 -0.1747 -0.2771
56095W        W99033  32.211  30.450   4.285  0.0945 -0.0537  0.1070
56096W        W99034   0.299  29.027   6.292  0.1707 -0.0056  0.3335
56097W        W99035  32.393  29.608   5.088 -0.0475  0.3190 -0.1135
56098W        W99036  32.828  29.306   4.169 -0.3521 -0.0375  0.0454
56099W        W99037  33.059  30.226   4.189  0.1406 -0.2054  0.1861
56100W        W99038  32.327  30.416   6.820  0.2477 -0.1199  0.0587
56101W        W99039  33.915  30.313   7.740  0.0249 -0.0469  0.3362
56102W        W99040  33.285  30.180   3.581 -0.1067 -0.0378 -0.3725
56103W        W99041  33.988  32.288   5.155  0.1194  0.2233 -0.0639
56104W        W99042  33.456  30.725   6.180 -0.1966  0.2492  0.1100
56105W        W99043  32.240  29.346   3.576  0.0458 -0.2813 -0.0526
56106W        W99044  32.976  30.503   6.143 -0.1842 -0.0211  0.5082
56107W        W99045  32.943  30.276   3.173 -0.1794 -0.0561  0.2200
56108W        W99046  31.827  31.881   3.261 -0.1253 -0.0878 -0.1790
56109W        W99047  32.026  30.285   6.284 -0.2448 -0.1536 -0.3320
56110W        W99048   0.360  32.065   4.512  0.1796  0.1503 -0.1825
56111W        W99049  34.065  31.453   6.912 -0.1602  0.2185  0.1968
56112W        W99050  32.584  30.638   3.316 -0.0742  0.2642  0.0898
56113W        W99051  32.695  32.591   4.934  0.1596 -0.3182 -0.1661
56114W        W99052  32.476  32.687   6.286  0.3274 -0.1719 -0.0563
56115W        W99053  34.287  31.962   4.816 -0.1592 -0.0477 -0.2044
56116W        W99054   1.091  31.327   6.022  0.2435  0.0801 -0.1047
56117W        W99055  32.105  31.820   5.357 -0.1567 -0.1701 -0.0205
56118W        W99056  34.595  29.346   6.476 -0.2013 -0.3052  0.2210
56119W        W99057  33.531  30.291   4.016  0.0161  0.0808  0.3723
56120W        W99058  33.388  34.505   2.557 -0.2666 -0.0914 -0.0032
56121W        W99059  34.167  29.607   6.078  0.1027  0.0213 -0.2756
56122W        W99060  33.522  30.672   3.563  0.1249 -0.2383  0.1833
56123W        W99061   0.157  29.756   7.683  0.1371 -0.1161  0.0313
56124W        W99062  33.673  31.221   7.617  0.0282 -0.2770 -0.1777
56125W        W99063  32.587  32.241   5.357  0.0400  0.2259 -0.2302
56126W        W99064   1.228  30.259   6.105 -0.1325  0.0838  0.0549
56127W        W99065  32.501  32.099   4.300  0.2562  0.2851 -0.0886
56128W        W99066  33.866  30.987   3.512  0.1029 -0.1875 -0.3308
56129W        W99067  33.892  30.501   5.300  0.0751  0.0433  0.1535
56130W        W99068  34.325  31.340   5.648 -0.1568  0.2118 -0.0514
56131W        W99069  32.426  32.902   3.224  0.0775  0.1636 -0.0423
56132W        W99070  33.710  33.109   5.799 -0.0670  0.0336  0.4997
56133W        W99071  31.223  32.736   4.703 -0.1034  0.0209  0.0550
56134W        W99072  33.201  29.663   4.313  0.2001 -0.0283 -0.0705
56135W        W99073  32.246  30.763   6.429  0.0962 -0.1698 -0.0968
56136W        W99074  34.533  28.684   6.461 -0.1102 -0.0950  0.3577
56137W        W99075   0.275  28.583   6.065  0.3546 -0.0664 -0.0340
56138W        W99076  33.401  33.947   5.375  0.0425  0.0216 -0.1504
56139W        W99077   1.069  31.995   6.672  0.1904 -0.0992  0.3180
56140W        W99078  31.890  28.954   1.094 -0.2316 -0.0817  0.3656
56141W        W99079  32.324  30.519   5.827  0.0539  0.0930  0.0988
56142W        W99080  32.242  31.865   4.867  0.1110 -0.0863  0.2040
56143W        W99081  32.625  31.338   4.260  0.1889  0.3414  0.2194
56144W        W99082  32.515  31.410   5.987 -0.2330  0.1513  0.0950
56145W        W99083   0.086  30.359   6.984 -0.1393 -0.2268 -0.4119
56146W        W99084  32.871  29.552   6.609 -0.1059 -0.0456  0.0229
56147W        W99085  33.123  29.849   4.878  0.1127  0.0552 -0.1346
56148W        W99086  32.478  29.732   6.316  0.1102  0.0694  0.0092
56149W        W99087  34.401  30.134   7.832  0.0910  0.2118 -0.2043
56150W        W99088  34.251  31.767   7.455 -0.1294  0.0878  0.2278
56151W        W99089  32.907  31.120   4.638  0.2390 -0.0839  0.0597
56152W        W99090  32.556  31.781   5.690 -0.1410  0.0184 -0.0481
56153W        W99091  32.329  32.008   3.424 -0.0626 -0.2182  0.0701
56154W        W99092  34.219  29.458   6.999 -0.2194 -0.2649  0.2888
56155W        W99093  33.913  31.771   5.074  0.2457 -0.0760 -0.0590
56156W        W99094  33.790  31.778   4.048  0.3298 -0.1783  0.0942
56157W        W99095  33.407  31.305   5.544 -0.0260 -0.0294 -0.1528
56158W        W99096  33.659  29.517   5.319 -0.2682  0.0984  0.0295
56159W        W99097  32.332  28.795   6.769  0.2691  0.0533 -0.0774
56160W        W99098  32.979  30.555   7.593  0.4986  0.0169 -0.0189
56161W        W99099  34.563  30.823   7.217 -0.3753  0.3387 -0.1507
56162W        W99100  33.518  29.184   4.498 -0.3694 -0.0353 -0.0505
56163W        W99101  34.620  30.456   5.988 -0.2436 -0.0542  0.1143
56164W        W99102  33.885  31.781   4.569  0.0860 -0.3029 -0.1278
56165W        W99103  34.332  30.335   7.220 -0.1676 -0.2015 -0.1509
56166W        W99104  32.427  29.485   4.365 -0.2617 -0.0072  0.4137
56167W        W99105  33.528  30.395   4.943  0.1046 -0.0874  0.1985
56168W        W99106  33.271  29.180   6.692 -0.1229  0.0931 -0.0139
56169W        W99107   0.560  30.121   7.040  0.2253  0.0135  0.1804
56170W        W99108  32.598  31.065   6.885  0.2548  0.2632  0.1238
56171W        W99109  31.841  29.485   5.195  0.2152  0.0112 -0.0865
56172W        W99110  33.642  30.216   2.744 -0.1866 -0.1504  0.2244
56173W        W99111  34.288  31.853   4.239  0.1435 -0.1262  0.0744
56174W        W99112  32.214  29.988   4.349  0.0091 -0.1709  0.3882
56175W        W99113  32.604  32.064   7.274  0.0126  0.0682  0.3917
56176W        W99114  33.346  29.304   3.983  0.2108 -0.4517 -0.0705
56177W        W99115  33.448  30.082   4.481  0.2571  0.1656 -0.2319
56178W        W99116  33.949  32.109   5.976  0.2926 -0.1501 -0.1317
56179W        W99117  33.778  28.272   4.825 -0.1871 -0.0267  0.1972
56180W        W99118  32.695  32.125   4.866 -0.0690  0.0164 -0.2248
56181W        W99119  33.117  32.106   4.452  0.0568  0.1885 -0.3268
56182W        W99120  32.249  31.735   6.234 -0.0524  0.1157  0.1741
56183W        W99121  33.260  32.679   4.163 -0.1810 -0.1239 -0.0559
56184W        W99122  34.168  30.588   5.722  0.2769  0.1306  0.1526
56185W        W99123  32.510  30.315   6.330 -0.0067 -0.1211 -0.0640
56186W        W99124  32.957  32.231   5.656  0.0022 -0.0005 -0.0381
56187W        W99125  32.460  29.608   7.347 -0.1458  0.1127 -0.0740
56188W        W99126  33.334  29.951   5.462 -0.2653 -0.2924 -0.0332
56189W        W99127  33.232  31.014   7.482 -0.0288 -0.2534 -0.0870
56190W        W99128  32.872  29.978   6.240  0.2109 -0.1911 -0.0404
56191W        W99129  32.136  32.764   3.587 -0.0865 -0.1423 -0.0744
56192W        W99130  34.009  29.652   4.945  0.1869 -0.0052  0.0570
56193W        W99131  32.762  32.557   4.442 -0.3428 -0.0473  0.1714
56194W        W99132  32.095  33.218   3.132  0.1425 -0.1628 -0.0888
56195W        W99133  33.416  33.093   5.372 -0.4366 -0.1969  0.1266
56196W        W99134  33.083  29.535   5.269 -0.1070 -0.0630  0.1289
56197W        W99135  33.774  28.819   4.146 -0.0227  0.0877 -0.0995
56198W        W99136  32.982  29.722   5.803  0.2159 -0.2504 -0.0545
56199W        W99137  32.908  31.439   5.667  0.0488 -0.5247 -0.1800
56200W        W99138  32.637  30.524   4.082  0.1317 -0.0771  0.0699
56201W        W99139   0.737  31.709   5.346  0.0596  0.0215 -0.1218
56202W        W99140  34.142  32.101   3.849 -0.0818  0.3993  0.0816
56203W        W99141  33.418  31.562   4.581 -0.0839  0.0200 -0.1505
56204W        W99142  32.757  31.201   7.361  0.0155 -0.1077 -0.0748
56205W        W99143  34.284  32.343   5.639  0.2219 -0.0718  0.0737
56206W        W99144  33.421  29.465   3.485 -0.0722 -0.0308 -0.1632
56207W        W99145  33.577  31.341   6.742  0.0157  0.3069  0.0330
56208W        W99146  32.891  30.909   4.242  0.2395 -0.1758  0.1358
56209W        W99147  33.606  30.285   6.419  0.2879 -0.0849  0.0880
56210W        W99148  34.152  30.197   3.503  0.1115  0.2778 -0.0463
56211W        W99149  31.959  29.732   3.543 -0.1150  0.0828 -0.0736
56212W        W99150  33.444  31.282   6.174 -0.0990  0.2136 -0.0402
56213W        W99151   0.089  31.111   6.559 -0.1192 -0.0017  0.2456
56214W        W99152  33.133  28.854   4.089  0.1914 -0.1250 -0.0041
56215W        W99153  32.854  33.105   3.444 -0.1009 -0.2586  0.0411
56216W        W99154  33.196  29.511   6.229 -0.0896 -0.0592 -0.0366
56217W        W99155  33.915  28.968   4.854 -0.1448  0.1897 -0.0319
56218W        W99156  32.584  31.097   5.485 -0.3618  0.4906 -0.3252
56219W        W99157  32.070  33.048   3.989 -0.1188 -0.2720  0.1435
56220W        W99158  34.290  33.029   2.469 -0.0328 -0.1592 -0.0292
56221W        W99159   0.118  32.482   5.325 -0.1282 -0.1818  0.2041
56222W        W99160  32.986  32.238   7.785 -0.3671 -0.0828 -0.0669
56223W        W99161  32.337  32.386   3.052  0.0903 -0.0692  0.0423
56224W        W99162  33.110  30.899   5.363 -0.1924 -0.0828  0.2192
56225W        W99163  33.335  30.609   4.401 -0.2370  0.1566  0.1217
56226W        W99164  33.585  32.312   4.446  0.0512 -0.2568 -0.1824
56227W        W99165  34.073  29.503   6.540 -0.2330 -0.1987  0.1521
56228W        W99166  32.928  30.347   4.668 -0.2148  0.0685  0.0719
56229W        W99167  34.407  30.727   6.733  0.0030  0.0208  0.0266
56230W        W99168  32.599  29.756   3.919 -0.0285 -0.1083  0.0298
56231W        W99169  33.250  31.680   4.161  0.0299  0.0756 -0.0452
56232W        W99170  33.436  29.958   7.059  0.0394 -0.2099  0.0361
56233W        W99171   0.033  28.366   7.972  0.2823 -0.2772 -0.0518
56234W        W99172  34.559  30.327   6.512 -0.1822 -0.0074  0.2757
56235W        W99173  32.981  31.415   6.194  0.1214 -0.0626  0.1787
56236W        W99174  33.136  29.774   3.847 -0.0377 -0.0352  0.6013
56237W        W99175  32.757  29.263   6.102  0.2123  0.0409 -0.1796
56238W        W99176  30.681  30.614   4.868 -0.0941 -0.3449 -0.0309
56239W        W99177  34.038  28.732   5.664  0.1283  0.0085 -0.2321
56240W        W99178  31.983  30.484   3.653  0.0053  0.2267 -0.2098
56241W        W99179  34.634  30.878   5.527 -0.3722  0.0487  0.0146
56242W        W99180  33.817  29.960   6.747  0.1274  0.4473 -0.0562
56243W        W99181  33.028  28.977   3.589  0.2711 -0.0219 -0.0838
56244W        W99182  33.348  30.010   5.959 -0.0502 -0.0098 -0.1104
56245W        W99183   0.080  31.603   6.493  0.2997 -0.2307 -0.1697
56246W        W99184  32.602  31.703   5.216 -0.0686 -0.1673  0.0546
56247W        W99185  32.114  29.887   6.005 -0.0082  0.5044  0.0466
56248W        W99186  33.964  31.110   5.820  0.3320 -0.0768  0.1433
56249W        W99187  33.498  28.796   6.561 -0.1130 -0.0168  0.0535
56250W        W99188  34.316  31.384   6.494  0.1103 -0.0804  0.2285
56251W        W99189  34.213  29.131   6.095  0.0327  0.1699 -0.2848
56252W        W99190  32.118  31.459   5.730 -0.0396 -0.0662 -0.1319
56253W        W99191  34.180  28.648   4.517 -0.3180 -0.0390 -0.1908
56254W        W99192   0.257  30.878   6.012  0.1344 -0.0664 -0.3759
56255W        W99193  32.841  30.414   5.175 -0.0482 -0.0717  0.3148
56256W        W99194  33.878  32.079   7.262  0.1168  0.1607  0.0778
56257W        W99195  32.995  29.061   4.607  0.2365 -0.0759  0.0151
56258W        W99196  33.028  31.361   3.856  0.0608  0.0041 -0.0019
56259W        W99197  33.928  30.429   6.810  0.0256 -0.0852  0.0639
56260W        W99198  32.184  29.758   5.517 -0.0434 -0.0901  0.0157
56261W        W99199  34.086  32.521   6.275  0.2572 -0.1997 -0.1550
56262W        W99200   0.095  29.400   9.645 -0.0026 -0.2099 -0.2012
56263W        W99201  33.609  30.434   9.907 -0.0726 -0.1388  0.0091
56264W        W99202  31.504  29.389   9.239  0.0193  0.1143  0.2439
56265W        W99203   1.048  31.395   8.417  0.1481  0.1303 -0.1748
56266W        W99204  33.575  29.890   7.528  0.0027 -0.1095  0.2700
56267W        W99205  32.914  27.446   9.649  0.1373 -0.3875  0.3965
56268W        W99206  31.321  30.558   7.860  0.2050 -0.1400  0.1635
56269W        W99207  33.661  32.053   9.232 -0.1143 -0.3808  0.0623
56270W        W99208  33.962  29.975   8.981  0.2874  0.2564  0.0345
56271W        W99209  34.033  30.137   9.681 -0.0262  0.0469 -0.0872
56272W        W99210  34.592  31.508   8.065  0.0637  0.0937  0.0232
56273W        W99211  34.222  31.895   6.959 -0.2620 -0.2139 -0.3516
56274W        W99212  32.002  28.446   9.300 -0.0994  0.3031  0.1854
56275W        W99213  32.347  31.184   9.901  0.0976 -0.2947  0.0182
56276W        W99214  33.398  32.833   8.125 -0.0071 -0.2437  0.2677
56277W        W99215   1.008  32.229   8.747 -0.3181 -0.0186 -0.1332
56278W        W99216  33.360  31.593   9.105 -0.0246 -0.3372  0.1217
56279W        W99217   0.110  32.523   7.225 -0.0438 -0.0058 -0.2618
56280W        W99218  34.517  34.310   9.772  0.1546  0.1833 -0.0090
56281W        W99219  33.219  31.389   7.159  0.0162  0.0132 -0.1160
56282W        W99220  34.484  31.073   7.752  0.0788  0.1783 -0.2133
56283W        W99221  34.585  31.934   8.403  0.3112 -0.0859  0.0852
56284W        W99222  33.062  32.403   8.234 -0.0329 -0.1072  0.1670
56285W        W99223  34.058  32.360   6.744 -0.2403  0.1102 -0.0885
56286W        W99224   0.541  30.066   7.578  0.0916 -0.2740 -0.1036
56287W        W99225  34.297  30.185   8.330  0.0651  0.1088  0.2474
56288W        W99226  33.820  32.892   7.768 -0.2325 -0.1996 -0.0849
56289W        W99227  34.622  29.791   8.246 -0.0199 -0.0790  0.1003
56290W        W99228  31.768  34.622   9.557  0.0341 -0.0745  0.0894
56291W        W99229  33.071  29.789   8.864  0.3053  0.3670  0.2338
56292W        W99230  32.478  31.088   8.193 -0.2160  0.3137 -0.2666
56293W        W99231   0.121  30.334   7.494  0.1107  0.2407 -0.0356
56294W        W99232  34.058  32.293   8.967  0.4804 -0.2558  0.2512
56295W        W99233   0.577  30.905   6.406  0.1522  0.0374  0.1141
56296W        W99234  34.256  31.140   8.220  0.3355 -0.2025  0.0748
56297W        W99235  33.218  32.351   9.604 -0.1292 -0.2828 -0.4472
56298W        W99236  32.982  32.462   7.237 -0.0040 -0.0969 -0.2018
56299W        W99237  33.494  32.235   8.474  0.1651  0.0237 -0.0782
56300W        W99238  33.979  30.880   7.858  0.1347 -0.2683  0.1406
56301W        W99239  32.354  29.239   9.268  0.2047  0.1681 -0.0398
56302W        W99240   0.208  31.785   9.433  0.0567 -0.0728 -0.1819
56303W        W99241  34.530  30.132   9.765  0.1392 -0.0374  0.1750
56304W        W99242  33.874  28.698   8.740  0.0001 -0.0429  0.1783
56305W        W99243  33.242  29.161   8.760 -0.0514  0.4059  0.1159
56306W        W99244  34.100  29.002   9.153 -0.0560  0.0351  0.2876
56307W        W99245  33.281  28.105   8.190  0.0635  0.1832  0.1045
56308W        W99246   0.219  29.431   9.070 -0.0368  0.2038 -0.0891
56309W        W99247  33.066  30.977   8.920  0.3453 -0.1344 -0.0942
56310W        W99248   1.585  28.446   9.668 -0.0958 -0.2617  0.0647
56311W        W99249  32.863  29.934   7.616  0.0092  0.1232 -0.0477
56312W        W99250  33.779  31.826   7.731 -0.1657  0.0719  0.0454
56313W        W99251  32.749  33.027   8.803  0.2302 -0.0866 -0.0652
56314W        W99252  33.953  30.688   7.374  0.0801 -0.0898  0.1224
56315W        W99253  33.191  30.150   6.631 -0.1870 -0.0445  0.0954
56316W        W99254  33.898  31.054   6.346  0.1829  0.0025 -0.0615
56317W        W99255  32.879  30.261   8.626  0.2235  0.1076 -0.1093
56318W        W99256  34.264  32.854   8.173  0.1855  0.0201 -0.0410
56319W        W99257  32.323  29.997   7.676  0.2051  0.1482 -0.4026
56320W        W99258   0.567  32.048   9.116 -0.2577  0.0937  0.1023
56321W        W99259  34.485  31.793   9.794 -0.0187 -0.2772  0.0727
56322W        W99260  33.552  32.024   9.713  0.0301 -0.1564 -0.1204
56323W        W99261   0.905  28.426   7.674 -0.2337  0.0661  0.6027
56324W        W99262  34.341  30.598   7.668  0.0059 -0.0834 -0.2281
56325W        W99263  32.368  32.226   5.885  0.4243 -0.0929 -0.1422
56326W        W99264  33.467  30.446   7.484  0.0983 -0.1677 -0.1050
56327W        W99265   0.014  28.947   8.254  0.2598 -0.3171  0.1813
56328W        W99266  32.065  33.768   9.858  0.6400 -0.1527 -0.0205
56329W        W99267  33.734  32.702   6.674 -0.0717  0.1660 -0.0273
56330W        W99268   0.826  31.695   7.534  0.1438  0.0735  0.1771
56331W        W99269  33.963  29.618   9.425  0.4152  0.1272 -0.0257
56332W        W99270   0.339  32.432   9.342  0.3167  0.1220 -0.0746
56333W        W99271  33.782  31.193   8.525 -0.3934 -0.1443 -0.3101
56334W        W99272  33.535  30.967   9.007 -0.2843 -0.0982  0.1886
56335W        W99273  34.006  32.258   7.725  0.0214 -0.0125  0.0511
56336W        W99274  33.502  30.557   6.955  0.2318  0.2314 -0.2752
56337W        W99275  31.513  30.326   8.568 -0.1420 -0.0566 -0.1839
56338W        W99276  32.849  28.942   9.450 -0.1560  0.2124  0.1074
56339W        W99277   0.399  30.689   9.316 -0.0353  0.1020  0.1156
56340W        W99278  33.537  29.907   9.852  0.2810  0.4692 -0.1708
56341W        W99279  32.910  29.797   7.116 -0.0985  0.2773  0.5066
56342W        W99280  34.106  30.937   8.935  0.0029 -0.0916  0.1299
56343W        W99281  32.968  31.485   8.310 -0.0720  0.1919 -0.1082
56344W        W99282  32.319  30.969   7.657  0.3696 -0.2163  0.5081
56345W        W99283  34.193  31.536  10.216 -0.0110 -0.0960  0.2677
56346W        W99284  33.757  32.483   9.728 -0.0778  0.2574  0.0371
56347W        W99285  33.974  30.841   9.975  0.1162 -0.0598 -0.4148
56348W        W99286  34.220  30.398  10.036 -0.2456  0.2100  0.1650
56349W        W99287   0.002  28.278   9.335 -0.0992  0.2384  0.4167
56350W        W99288  33.811  30.570   8.808  0.0109  0.0454 -0.3200
56351W        W99289  32.913  29.464   8.526  0.3113  0.0167  0.1854
56352W        W99290  34.414  31.246   8.687  0.0146  0.0878 -0.4604
56353W        W99291   0.402  28.522   7.555 -0.1943  0.1466  0.1472
56354W        W99292  33.618  32.856   9.169 -0.3081  0.2352 -0.1683
56355W        W99293  33.388  31.877   7.447  0.2790 -0.1431  0.3135
56356W        W99294  33.243  32.929   9.605 -0.0955 -0.1163  0.0027
56357W        W99295   0.758  29.261   7.312 -0.0108 -0.0151 -0.1624
56358W        W99296   0.185  29.349   8.494  0.2249  0.0360 -0.0169
56359W        W99297  33.549  29.404   7.632 -0.1679 -0.1141  0.0683
56360W        W99298  34.639  30.919   9.092  0.1404 -0.2723 -0.1224
56361W        W99299   0.344  31.999   8.620  0.1171 -0.2594 -0.1871
56362W        W99300  34.467  29.293   9.302 -0.1493  0.1746 -0.4778
56363W        W99301  34.116  31.205   7.363 -0.1290 -0.2260 -0.2424
56364W        W99302  32.302  31.250   8.631 -0.4604  0.1399 -0.0552
56365W        W99303  34.521  30.682   9.683  0.0684  0.1328  0.1903
56366W        W99304  32.402  29.695   6.847 -0.1695  0.2407  0.0833
56367W        W99305  33.689  31.715   8.759 -0.0718 -0.1652 -0.1446
56368W        W99306  33.241  30.425   8.343 -0.2486 -0.0072 -0.1372
56369W        W99307  34.617  30.336   9.310 -0.0564  0.0765  0.0576
56370W        W99308   0.185  31.570   6.991  0.0721  0.0681  0.3012
56371W        W99309   0.599  31.201   8.495  0.2053 -0.0977 -0.3297
56372W        W99310  34.340  28.189   7.072 -0.1006  0.0052 -0.4671
56373W        W99311  33.419  30.852   8.556 -0.1403  0.1073 -0.1526
56374W        W99312  32.295  33.152   9.171  0.0328 -0.2126 -0.0948
56375W        W99313   0.232  30.957   9.774 -0.3162 -0.2009  0.1381
56376W        W99314   0.522  32.128   7.596  0.2773 -0.1938  0.2903
56377W        W99315   0.678  31.080   9.393 -0.3451 -0.0328  0.2988
56378W        W99316  34.344  31.927   7.918  0.0531  0.0816 -0.3622
56379W        W99317  33.658  29.444   9.015  0.3907  0.0097  0.1084
56380W        W99318  31.834  31.310   9.983  0.1233 -0.0748  0.0151
56381W        W99319  32.644  31.615   6.922 -0.1152  0.1542 -0.1505
56382W        W99320  33.616  30.035   9.366  0.1538  0.1401 -0.2307
56383W        W99321  33.093  31.894   8.754  0.1481  0.0895  0.1888
56384W        W99322  31.294  32.196   6.813  0.1501  0.0460  0.1700
56385W        W99323  34.187  31.597   8.427  0.0605 -0.0698  0.0357
56386W        W99324  34.137  32.165   9.576  0.1636  0.2490  0.3676
56387W        W99325  34.109  29.218   7.599  0.1157 -0.4485 -0.2294
56388W        W99326  32.865  29.356   7.525 -0.2201  0.1047 -0.2659
56389W        W99327  34.583  30.654   8.171 -0.0008 -0.0274  0.0765
56390W        W99328   0.612  32.243   6.404  0.2347  0.2187 -0.0286
56391W        W99329   0.896   0.259   9.297 -0.3088  0.1468  0.0430
56392W        W99330   0.602  33.733  10.227 -0.0701 -0.2622  0.0190
56393W        W99331  34.269  33.394   9.595  0.2400 -0.3673 -0.1130
56394W        W99332  33.526  30.874   6.601 -0.1657 -0.0106 -0.0368
56395W        W99333  33.772  31.690  10.016  0.0348  0.0217  0.0766
56396W        W99334  33.959  28.845   8.281  0.0552  0.1004 -0.0133
56397W        W99335   0.665  31.745  10.034 -0.0516 -0.5770  0.1777
56398W        W99336   0.944  29.758   7.356  0.1710 -0.0996 -0.1115
56399W        W99337  32.430  29.156   9.774  0.1612  0.1933  0.4538
56400W        W99338  33.722  30.577   8.145 -0.0307 -0.0595 -0.1244
56401W        W99339   1.019  29.023   8.567  0.1654 -0.3414 -0.2035
56402W        W99340  33.968  29.793   7.814  0.0316 -0.0089 -0.1798
56403W        W99341  34.195  33.146   6.642 -0.1665  0.2353  0.0987
56404W        W99342  32.702  29.496  10.029  0.1393  0.3407  0.1743
56405W        W99343  33.285  29.190   9.283  0.0614 -0.4512 -0.3021
56406W        W99344  33.628  28.917   9.056 -0.3344 -0.1354  0.1422
56407W        W99345  33.323  32.837   7.608 -0.2014  0.0352 -0.2112
56408W        W99346  33.699  31.997   6.802  0.0096  0.3788  0.1696
56409W        W99347   1.306  30.908   9.915 -0.0600 -0.3162 -0.0995
56410W        W99348  32.910  30.237   8.022 -0.0034  0.1257 -0.0365
56411W        W99349  34.291  32.687   8.982  0.0483  0.3432  0.0028
56412W        W99350   1.011  32.348   7.135 -0.3092  0.0171 -0.2423
56413W        W99351  33.759  29.131   8.588  0.2442 -0.0997  0.0720
56414W        W99352  34.018  28.224   8.859  0.0864 -0.2483 -0.2736
56415W        W99353  34.063  32.213  10.083  0.2231 -0.0656 -0.0214
56416W        W99354  34.007  30.975   6.898 -0.0550  0.1654  0.0006
56417W        W99355  33.719  31.562   7.276 -0.2976 -0.2088 -0.0466
56418W        W99356  34.158  31.611   9.392 -0.0567  0.2110  0.1320
56419W        W99357  33.469  30.148   7.966 -0.3613 -0.0385  0.1448
56420W        W99358  34.059  29.732   8.476  0.1396  0.2430 -0.1049
56421W        W99359  33.181  29.131   9.780 -0.0043 -0.0084 -0.1649
56422W        W99360   0.279  28.204   8.412 -0.0199 -0.0041 -0.1614
56423W        W99361   0.497  29.683   8.168  0.1340 -0.2483 -0.1426
56424W        W99362  33.761  31.653   6.362 -0.1370 -0.1071 -0.0766
56425W        W99363   0.017  29.947   7.188  0.1432  0.0244 -0.1458
56426W        W99364   0.250  30.831  10.244  0.0896 -0.2639 -0.1246
56427W        W99365   1.578  30.498   9.941  0.1038  0.2185 -0.0897
56428W        W99366  33.463  29.560   8.503  0.2283 -0.0133  0.1261
56429W        W99367  30.550  31.041   9.533  0.2030 -0.0475  0.0591
56430W        W99368   0.120  30.037   8.605  0.0353  0.0045 -0.0679
56431W        W99369   0.026  30.805   8.603 -0.1323 -0.0856  0.0622
56432W        W99370  34.522  32.418   9.285 -0.1030 -0.5747 -0.0000
56433W        W99371  34.414  29.859   8.879 -0.2140 -0.0493  0.0465
56434W        W99372  33.697  31.622   8.233 -0.0234  0.1633 -0.1482
56435W        W99373   0.140  30.227   8.011 -0.2077  0.0514 -0.1725
56436W        W99374  34.446  28.668   8.993 -0.0469 -0.1226  0.0347
56437W        W99375  33.387  33.339   9.291 -0.0369 -0.1294 -0.3490
56438W        W99376  33.264  34.462   0.513 -0.0922  0.2296 -0.0116
56439W        W99377  33.620  33.637   0.570 -0.0806  0.1657 -0.1656
56440W        W99378  32.499  32.216   1.424  0.1260  0.0461 -0.1632
56441W        W99379  34.277  33.586   3.153 -0.0955  0.2002 -0.1402
56442W        W99380  34.503  32.893   1.350  0.0047 -0.2779 -0.0239
56443W        W99381  32.302  33.054   0.735  0.2614 -0.0482 -0.2740
56444W        W99382  32.694   0.930  30.807  0.0009  0.3103  0.1409
56445W        W99383  33.926  33.218   2.235 -0.1288 -0.0792 -0.2574
56446W        W99384   1.048  34.216   1.127  0.2756 -0.0651  0.1151
56447W        W99385  33.802  33.828   3.251 -0.0210 -0.0876 -0.0457
56448W        W99386  31.984  34.021   0.626  0.0244  0.1468 -0.1635
56449W        W99387  32.582  34.231   1.255  0.2803  0.1154  0.1472
56450W        W99388  33.559  34.215   2.943  0.0806 -0.0485  0.0715
56451W        W99389   0.346  33.966   2.589  0.2523  0.1622 -0.0550
56452W        W99390   0.297  32.338   0.577 -0.0158  0.2476 -0.2815
56453W        W99391  34.469  33.456   2.267  0.2622  0.0927 -0.1076
56454W        W99392  34.504  33.735   2.707  0.0594  0.0670  0.2740
56455W        W99393  33.662   0.281   1.679  0.3892 -0.1881 -0.0919
56456W        W99394  34.203   0.371   1.678 -0.0777  0.0899  0.0966
56457W        W99395  32.353   1.094   3.193  0.2307 -0.0503  0.0841
56458W        W99396  33.922  34.291   2.272  0.1990  0.1058  0.0162
56459W        W99397  33.572  33.007  31.044  0.1438 -0.0152  0.0713
56460W        W99398   0.478  32.568   2.684  0.0592  0.1662 -0.2046
56461W        W99399  33.405  33.099   2.287  0.3111  0.0569  0.0413
56462W        W99400  33.165  32.920   1.573  0.1952 -0.2055 -0.0782
56463W        W99401  33.373  32.968   3.268 -0.0432  0.2516 -0.0013
56464W        W99402  33.206  34.270   1.595 -0.3273 -0.2228 -0.0312
56465W        W99403  33.354  33.746   2.881  0.2338  0.0165  0.0343
56466W        W99404  33.318  32.342   1.760 -0.1526 -0.0013  0.2828
56467W        W99405  33.264  33.445  31.054 -0.0599 -0.1861  0.2982
56468W        W99406  34.467  34.643   0.136  0.0066 -0.0490  0.0330
56469W        W99407  33.238  33.249   2.771 -0.0388  0.4618 -0.1733
56470W        W99408  33.186  32.670   0.638  0.3789 -0.0099 -0.1421
56471W        W99409  32.831  33.090   0.988 -0.1813  0.0605 -0.3777
56472W        W99410  34.032  33.033   0.004  0.0205  0.2202  0.4150
56473W        W99411  32.270  33.898   1.078 -0.0608  0.2602  0.1165
56474W        W99412  32.963   0.901   4.613 -0.1749  0.0308 -0.0009
56475W        W99413  32.443  34.207   0.618 -0.2768  0.1836  0.1810
56476W        W99414   0.093  34.510   1.441 -0.3246  0.1111  0.0271
56477W        W99415  32.832  34.425   0.750  0.2304  0.0407 -0.2340
56478W        W99416   0.195  32.978   2.438  0.1723  0.1912 -0.2092
56479W        W99417  33.935   0.223  30.885  0.2623  0.1155  0.1029
56480W        W99418  34.389  34.326   4.462  0.0211  0.2112 -0.3707
56481W        W99419   0.229  32.620   3.592  0.3427  0.0746  0.0947
56482W        W99420  33.970  32.601   1.724 -0.0931  0.0782  0.1505
56483W        W99421  32.654   0.156   0.498 -0.1719  0.2033  0.1817
56484W        W99422  33.451   0.713   0.936 -0.1066 -0.1325  0.1814
56485W        W99423  32.848  33.089   2.970 -0.2119 -0.3181 -0.0263
56486W        W99424   1.621  33.415   1.332 -0.1227 -0.0832  0.2293
56487W        W99425  33.971   0.282   5.076  0.2316 -0.3268  0.0847
56488W        W99426  32.940  33.931   1.011  0.0930 -0.1394 -0.0423
56489W        W99427  33.565  34.011   2.013 -0.0498  0.1496 -0.0043
56490W        W99428  33.148  34.231  31.475  0.2501 -0.1260  0.0689
56491W        W99429  33.968  33.123   3.963  0.4936  0.4227  0.0089
56492W        W99430   0.771  33.753   2.882 -0.0683  0.1048  0.1440
56493W        W99431   0.352  34.491   0.696 -0.0711 -0.2314  0.1102
56494W        W99432   0.084   0.227   2.754  0.1226  0.1432 -0.0341
56495W        W99433   0.121  33.781   2.133 -0.2382  0.1680  0.0778
56496W        W99434  34.530  33.837   3.477  0.1966 -0.0965  0.0042
56497W        W99435  34.587   0.114   1.754 -0.0466 -0.4746 -0.0996
56498W        W99436   0.311  32.258   1.807  0.0994 -0.0926  0.2486
56499W        W99437  34.597  33.196   2.794 -0.2915  0.2076  0.0488
56500W        W99438  33.674   0.217   3.406  0.0108  0.0631 -0.2414
56501W        W99439  33.299  33.334   0.740 -0.1204 -0.1536 -0.0510
56502W        W99440  33.617  34.498   1.802 -0.3155  0.1040 -0.1760
56503W        W99441  32.530  33.872   2.027 -0.3067  0.0335  0.3043
56504W        W99442  32.237  31.651   2.417  0.2569 -0.2707  0.2154
56505W        W99443  34.132  33.688   3.711 -0.3288  0.1244 -0.3500
56506W        W99444  33.573  32.846   1.911 -0.0912  0.0023  0.0468
56507W        W99445  33.229  32.583   2.204 -0.3842  0.0442  0.0173
56508W        W99446   0.228  33.720   1.198  0.3661  0.1933  0.3617
56509W        W99447  32.812  34.072   0.213  0.1304 -0.2362 -0.0825
56510W        W99448  33.655   0.281  31.428 -0.2477 -0.2649  0.0099
56511W        W99449   0.110  34.390  31.599 -0.1454 -0.1764  0.1695
56512W        W99450  34.295  32.805  31.582  0.0020  0.4285 -0.1289
56513W        W99451   0.496   0.240   2.006  0.2562 -0.0927 -0.0186
56514W        W99452  33.983  33.768   2.211 -0.2511  0.1349  0.0584
56515W        W99453  33.399  34.035   2.492  0.0194 -0.0325 -0.0213
56516W        W99454  32.667  32.688   0.527 -0.1753 -0.2801 -0.1633
56517W        W99455  34.361  32.898   0.851 -0.0005 -0.2772  0.2248
56518W        W99456  34.683  34.041   1.694  0.0980 -0.1703 -0.1777
56519W        W99457  34.164  32.462   0.045  0.1811 -0.0339  0.1784
56520W        W99458   0.080  33.627   3.911  0.2008  0.1432  0.1168
56521W        W99459  32.351  33.410   1.629  0.2106  0.2718 -0.1759
56522W        W99460   0.236  33.489   2.558 -0.0774 -0.1486  0.1401
56523W        W99461  31.627  32.720   0.204 -0.3823  0.2486 -0.4371
56524W        W99462  34.453  34.132   2.143 -0.0831 -0.0065 -0.0850
56525W        W99463   0.164  34.501   2.123 -0.2113  0.2710  0.0782
56526W        W99464   0.196  34.260   3.635  0.0839  0.2235  0.0643
56527W        W99465  34.140   0.423  31.298 -0.0544  0.0231 -0.0019
56528W        W99466  32.131  32.582   2.136  0.0462  0.2831 -0.1747
56529W        W99467  34.289  33.346   1.354 -0.0007 -0.1285  0.0698
56530W        W99468  33.870  33.903   2.695  0.0668  0.1515  0.0753
56531W        W99469  32.376  32.615   0.986 -0.1218 -0.1207 -0.2492
56532W        W99470  32.670  33.391   1.955  0.0027 -0.4085 -0.0527
56533W        W99471   0.598  33.121   1.604 -0.1054 -0.1357  0.0358
56534W        W99472  34.398  33.598   1.804 -0.3923 -0.0967 -0.2269
56535W        W99473   0.324  33.697   0.095 -0.1326 -0.2093  0.1005
56536W        W99474   0.090  34.206   1.050 -0.3838 -0.0879  0.1712
56537W        W99475  33.409   0.700   2.367 -0.1352  0.1382 -0.1499
56538W        W99476  33.283  34.321   1.009  0.2461 -0.3486 -0.0596
56539W        W99477  33.266  33.480   3.252 -0.0713  0.1995 -0.0467
56540W        W99478  33.286  34.563   3.496 -0.1028  0.0445  0.2890
56541W        W99479  33.212  33.034   0.340 -0.0019  0.3404  0.2354
56542W        W99480  33.705  33.340   1.075  0.1552 -0.4485 -0.0820
56543W        W99481  33.223  33.344   1.290  0.0979 -0.3050  0.3244
56544W        W99482  33.421  33.825   1.039  0.2380  0.1073 -0.2040
56545W        W99483  33.759  34.407   3.367 -0.0063 -0.1268 -0.1697
56546W        W99484  34.194  32.977   2.988 -0.1624  0.4193 -0.1541
56547W        W99485  33.268  34.206   0.046  0.1642 -0.0464 -0.0284
56548W        W99486   0.763  33.300   2.631  0.0166  0.1771  0.3781
56549W        W99487  32.855  33.644   2.864 -0.2008  0.2252 -0.0690
56550W        W99488  31.974  33.674   4.233 -0.1463  0.2155 -0.1973
56551W        W99489  33.073  31.699   0.214  0.0601 -0.1493 -0.3890
56552W        W99490  33.238  33.344   1.897  0.0120 -0.0350  0.1603
56553W        W99491  34.101  32.773   0.397 -0.3109 -0.0591 -0.0269
56554W        W99492   0.906  33.972   3.402  0.1851 -0.0922 -0.2326
56555W        W99493  34.509  34.152   0.171  0.1073  0.0492  0.0911
56556W        W99494  32.460  32.893   1.755 -0.1009 -0.0585 -0.0460
56557W        W99495  32.376   0.716  31.801 -0.2165 -0.1349 -0.2309
56558W        W99496  34.063  34.442   0.289  0.3072 -0.0991  0.1537
56559W        W99497  33.386  33.706   1.577 -0.3831 -0.1879 -0.1957
56560W        W99498  33.801  33.495   4.722  0.2130 -0.0036 -0.3277
56561W        W99499  32.128  32.662   4.321  0.2809  0.1045  0.1219
56562W        W99500  33.180  31.782   5.479 -0.1798  0.4727 -0.2032
56563W        W99501   0.460  33.866   5.753 -0.1133 -0.0613 -0.1380
56564W        W99502  33.066  32.957   5.106 -0.0063 -0.1448  0.2781
56565W        W99503  33.271  32.750   5.821  0.1832 -0.4269  0.0509
56566W        W99504  33.707  33.986   4.571  0.0943  0.0672 -0.1452
56567W        W99505  33.242  33.559   6.526 -0.0063 -0.0014  0.0271
56568W        W99506  33.757  33.386   3.054  0.2079  0.4277 -0.3308
56569W        W99507  33.992  33.126   6.174 -0.1842  0.0349  0.0620
56570W        W99508  32.670  33.916   3.212  0.1188  0.2389 -0.1070
56571W        W99509  33.331  34.342   4.729 -0.2462 -0.2185 -0.1570
56572W        W99510  33.020   0.127   5.453  0.4562 -0.0989  0.2032
56573W        W99511   0.702   0.400   6.236 -0.0456  0.1246 -0.0929
56574W        W99512  34.449  32.986   3.828 -0.3191  0.1560  0.0289
56575W        W99513  33.202  32.573   4.792 -0.1754  0.1315 -0.0863
56576W        W99514   0.812  34.188   5.472 -0.1521 -0.1438  0.1696
56577W        W99515  33.854  34.478   5.530  0.2028  0.4455  0.2218
56578W        W99516  32.629  33.598   5.123  0.0937  0.0846  0.0659
56579W        W99517  31.576   0.442   7.076  0.2452  0.2546 -0.2725
56580W        W99518  32.382   0.001   6.790 -0.2896  0.0142 -0.3824
56581W        W99519  32.784  33.060   2.436  0.1140 -0.2787  0.1871
56582W        W99520   0.034  32.745   5.794 -0.0830 -0.0083  0.3637
56583W        W99521  31.704  33.158   5.070 -0.0963 -0.1334 -0.2520
56584W        W99522  33.245  33.710   7.005 -0.1297  0.1909 -0.0973
56585W        W99523  32.977  33.972   6.304 -0.4823  0.0012  0.0361
56586W        W99524  33.408  33.298   4.396  0.4498  0.0161  0.1759
56587W        W99525  33.661  33.549   6.132 -0.0842  0.1631 -0.2403
56588W        W99526  33.437  33.547   5.030  0.0020  0.1059 -0.5846
56589W        W99527  32.994  33.278   4.038  0.2103  0.3180 -0.4649
56590W        W99528  33.564   0.266   4.269 -0.1088  0.2692  0.1851
56591W        W99529  34.098  33.478   5.778 -0.1513 -0.1155  0.0966
56592W        W99530  33.740  33.378   3.580  0.0717 -0.0032 -0.1924
56593W        W99531  33.802  32.822   4.395 -0.0469  0.1097 -0.1428
56594W        W99532  32.989  32.737   3.720  0.0388 -0.0156 -0.1279
56595W        W99533  33.265  33.805   4.208  0.1566  0.2619 -0.0659
56596W        W99534  32.482   0.109   7.286 -0.2368 -0.1816 -0.1175
56597W        W99535  32.546  34.445   4.136 -0.2111  0.2149 -0.2001
56598W        W99536  33.017  31.882   5.986  0.0328  0.1429  0.0876
56599W        W99537  34.072  33.408   2.695  0.1908 -0.1076 -0.2715
56600W        W99538  34.166  33.546   6.366  0.1360 -0.1811  0.0809
56601W        W99539  32.838  33.584   3.492 -0.0550 -0.0372 -0.3092
56602W        W99540  33.667  32.233   6.334  0.0946  0.2446  0.1774
56603W        W99541  33.564  34.167   6.989 -0.2035 -0.0137 -0.0151
56604W        W99542  33.604  32.085   5.466  0.0315 -0.1893 -0.0672
56605W        W99543  34.293  32.846   4.341 -0.0476  0.1709 -0.1466
56606W        W99544  32.541   0.008   5.079  0.0785  0.0224 -0.1782
56607W        W99545  33.492  34.409   5.219 -0.0886  0.1950 -0.1791
56608W        W99546  34.326  33.532   5.071  0.2443 -0.0843  0.0971
56609W        W99547  33.593  33.573   5.608  0.2135 -0.0755 -0.1304
56610W        W99548  32.851  33.863   3.881 -0.1676 -0.1858  0.2764
56611W        W99549  33.764  33.902   5.043  0.0062  0.1083 -0.2694
56612W        W99550  34.269   0.041   5.382 -0.0406 -0.2750  0.1309
56613W        W99551  33.105  34.147   7.212  0.0209 -0.4246  0.1756
56614W        W99552  33.674  33.305   6.886 -0.3406  0.0504 -0.0384
56615W        W99553  33.586  33.087   4.912  0.1217 -0.0515  0.1658
56616W        W99554  33.778  33.594   4.070  0.0912 -0.1809 -0.0802
56617W        W99555  34.093  34.075   7.060  0.0706 -0.2451 -0.2498
56618W        W99556   0.201  32.529   6.227 -0.1910 -0.4164 -0.1047
56619W        W99557   0.767   0.877   6.117  0.0033 -0.1586  0.1795
56620W        W99558  34.498  33.282   6.009 -0.0999 -0.0755 -0.1551
56621W        W99559  32.956  33.453   6.147 -0.0919  0.0575 -0.0546
56622W        W99560  32.347  34.342   7.143  0.2618  0.1485 -0.0361
56623W        W99561  32.817  31.689   4.502  0.0460  0.0249 -0.2506
56624W        W99562  34.255   0.172   4.593  0.1403 -0.0490 -0.3677
56625W        W99563  32.266  33.759   6.769 -0.2701 -0.0340 -0.1393
56626W        W99564   0.054  34.192   5.845  0.0897  0.2068  0.1552
56627W        W99565  32.705   0.413   6.966  0.0664 -0.2363  0.4186
56628W        W99566  32.339  33.316   7.017  0.0911 -0.2739 -0.0453
56629W        W99567  32.669  34.403   5.551  0.2874 -0.3409 -0.0687
56630W        W99568  33.663  32.221   3.917 -0.2083  0.2550 -0.2700
56631W        W99569  32.269   0.714   3.972  0.0924  0.3707  0.1321
56632W        W99570  32.420  33.153   2.768  0.0763 -0.3302 -0.2363
56633W        W99571  34.359   0.300   3.803  0.2104 -0.0568 -0.2552
56634W        W99572   0.258  31.384   3.196  0.1496 -0.1617 -0.1103
56635W        W99573  34.582   0.048   6.306 -0.1359  0.0697  0.0229
56636W        W99574  34.103  34.349   5.104  0.2487  0.2695  0.0702
56637W        W99575  32.069  32.663   5.990 -0.2817  0.1259 -0.3207
56638W        W99576  32.995  32.978   4.623 -0.1697 -0.1928  0.1858
56639W        W99577  33.725  32.079   3.468  0.2980 -0.1365 -0.1804
56640W        W99578   0.495  34.362   5.847 -0.0858 -0.1157  0.1145
56641W        W99579  32.977  32.265   2.465 -0.0972 -0.3406  0.3851
56642W        W99580  32.445  34.188   7.766  0.0671 -0.0298 -0.0781
56643W        W99581  32.315  33.688   4.680  0.2002 -0.2965 -0.1096
56644W        W99582   0.102  34.588   5.495 -0.1044 -0.0973 -0.3904
56645W        W99583  32.436  33.440   4.164 -0.1137  0.0151  0.2141
56646W        W99584  32.687  34.209   6.028  0.0131  0.1847 -0.3578
56647W        W99585  33.467  32.547   3.665  0.1256  0.0556  0.3247
56648W        W99586  32.153  33.817   7.860 -0.0938 -0.1560 -0.1133
56649W        W99587   0.035  34.089   2.981 -0.1389 -0.2512  0.2038
56650W        W99588  33.972  34.601   4.249  0.2190  0.3728 -0.0222
56651W        W99589  33.002  33.421   4.852 -0.3765  0.1878  0.3365
56652W        W99590  32.741  33.907   5.631 -0.2074  0.1956  0.1699
56653W        W99591  32.149  33.387   5.043 -0.2993 -0.1524 -0.2413
56654W        W99592  32.900  32.738   5.541 -0.4410 -0.1497  0.0772
56655W        W99593  34.372  33.418   4.103  0.0521  0.1237  0.0754
56656W        W99594  33.360  33.048   3.793  0.2045  0.5243  0.0085
56657W        W99595   1.015  34.329   3.717 -0.1712  0.1736 -0.0691
56658W        W99596   0.261  32.934   5.304  0.1085 -0.0575  0.2430
56659W        W99597  33.162  34.365   5.928  0.2194  0.1281  0.1968
56660W        W99598  32.968  33.972   5.127 -0.0653 -0.1010 -0.1860
56661W        W99599  34.389  33.037   7.097 -0.0987  0.2276 -0.0749
56662W        W99600  33.845  33.786   6.705 -0.2952  0.0721 -0.0512
56663W        W99601  32.213  34.581   5.511 -0.0488  0.4688  0.2109
56664W        W99602  32.874  33.655   4.420  0.2220  0.3424 -0.1422
56665W        W99603  33.283  32.943   6.734 -0.0794  0.0577  0.2975
56666W        W99604  33.488  32.564   5.314  0.2347  0.1270  0.0465
56667W        W99605  34.240  34.007   5.854  0.1675 -0.0742 -0.1957
56668W        W99606   0.608  33.873   6.961 -0.2244 -0.1882 -0.1389
56669W        W99607   0.283   0.226   6.505  0.0955 -0.1201  0.0709
56670W        W99608  33.258  33.606   3.748 -0.0135  0.0654  0.0946
56671W        W99609   2.392  34.133   4.757 -0.0249 -0.2567  0.1774
56672W        W99610  33.051  32.285   6.245 -0.0341  0.1511  0.1211
56673W        W99611  33.405  32.212   5.881  0.0881  0.2995 -0.0040
56674W        W99612  32.777  32.378   3.988 -0.0522 -0.0700 -0.3925
56675W        W99613  32.736  34.534   6.434 -0.1047 -0.1735 -0.1937
56676W        W99614   0.316  34.556   3.203  0.0846  0.0360 -0.1896
56677W        W99615   1.193  34.265   6.983 -0.3256  0.0774 -0.1409
56678W        W99616  32.568  32.488   3.477  0.1426  0.0611  0.1006
56679W        W99617  33.807  32.490   5.718  0.1293 -0.2233 -0.1210
56680W        W99618  33.655  34.636   3.833  0.5045 -0.0062 -0.2811
56681W        W99619  33.891   0.587   5.545 -0.0754  0.2061 -0.1655
56682W        W99620  33.875  32.895   5.377  0.3188 -0.4932  0.1455
56683W        W99621  33.156  34.090   8.354  0.0429 -0.0364  0.1477
56684W        W99622  32.675  32.729   9.645 -0.1073  0.0330 -0.1391
56685W        W99623   1.325  33.711  10.077  0.0020  0.3279  0.1343
56686W        W99624  34.667  33.089   7.520  0.2092  0.0810  0.0112
56687W        W99625  32.911  32.391   9.219 -0.0879 -0.1877 -0.0824
56688W        W99626  34.055   1.435   8.202 -0.0837 -0.2647  0.0382
56689W        W99627  33.842  32.558   8.144 -0.0582  0.1707  0.2502
56690W        W99628  33.961  33.620   8.267 -0.2525 -0.1730 -0.0170
56691W        W99629  33.425  33.273   7.893  0.0095  0.0130 -0.1671
56692W        W99630  32.911  34.531   8.005 -0.0168 -0.2508  0.1463
56693W        W99631  34.234  33.835   9.359 -0.0751 -0.1734  0.0502
56694W        W99632  33.047  33.381  10.288 -0.0152  0.1504  0.0133
56695W        W99633  33.944   0.753   9.003  0.1229  0.1763  0.0484
56696W        W99634  34.591  32.926   8.590  0.0744 -0.1951  0.1884
56697W        W99635  34.168  33.219   8.710 -0.1187  0.0239 -0.2207
56698W        W99636  33.994  33.730   8.918 -0.1056 -0.2519 -0.1695
56699W        W99637  34.046   0.095   8.134  0.0428 -0.0082 -0.0730
56700W        W99638  32.893   0.027   8.432 -0.3469 -0.1364 -0.0923
56701W        W99639  34.233  33.569   6.904  0.0268 -0.1412 -0.0929
56702W        W99640  32.999  33.451   9.785 -0.1110  0.2438 -0.1452
56703W        W99641  32.784  33.232   7.917 -0.2437  0.5013  0.1256
56704W        W99642  32.362  33.417   8.123  0.0060 -0.0484 -0.1805
56705W        W99643  32.453  32.041   8.995  0.2120  0.0892  0.2247
56706W        W99644  32.736  31.728   6.413 -0.3714 -0.0750  0.2084
56707W        W99645  33.069  33.622   8.066 -0.3076  0.0085 -0.0440
56708W        W99646   0.009  32.241   7.585  0.0336  0.0658 -0.3078
56709W        W99647  32.912  32.642   6.700 -0.1845  0.2137 -0.2750
56710W        W99648  33.151  31.841   7.002  0.0846  0.1717 -0.0649
56711W        W99649  32.360  31.912   6.738  0.2751 -0.1058  0.1943
56712W        W99650  32.603   0.235   7.937  0.2067 -0.2147 -0.0363
56713W        W99651  32.953  34.029   7.796  0.0719  0.0400 -0.3242
56714W        W99652  33.868  33.105   8.350 -0.1306  0.2590  0.0814
56715W        W99653  33.500  33.256   7.395  0.1558  0.2602  0.1255
56716W        W99654  33.323  32.458   6.893 -0.2540  0.0410 -0.2432
56717W        W99655   2.400  32.287   9.980 -0.1340 -0.2748 -0.0065
56718W        W99656   0.049  32.998   8.041 -0.3770 -0.2044 -0.0192
56719W        W99657  32.910  31.697   7.472 -0.1049 -0.1389  0.6437
56720W        W99658  33.124   0.319   8.105 -0.2984  0.0948 -0.0241
56721W        W99659  32.796  31.445   8.798  0.1044 -0.2405 -0.0965
56722W        W99660  34.105  33.100   9.195 -0.1542 -0.0618 -0.0349
56723W        W99661  33.900  33.487   7.754  0.0291  0.0333 -0.0366
56724W        W99662  34.431  33.357   8.287  0.1197 -0.2208 -0.0554
56725W        W99663  34.498  33.518   7.319  0.1143  0.1122  0.0705
56726W        W99664  33.854  33.509   9.377  0.0033 -0.3475  0.2425
56727W        W99665  33.144  33.539   7.548 -0.1574  0.2544 -0.2182
56728W        W99666   0.075  33.871   8.283 -0.3003  0.0982 -0.1522
56729W        W99667  34.662  34.694   8.843 -0.0144  0.1137 -0.0054
56730W        W99668   0.445  34.047   7.872  0.0773  0.0219  0.0325
56731W        W99669  34.263  33.179   7.811 -0.0788  0.0983  0.0983
56732W        W99670  32.896  32.377   8.694  0.0849  0.0636  0.0249
56733W        W99671  33.813  33.698   7.211 -0.1413  0.2844 -0.1679
56734W        W99672   1.278   0.147   9.839  0.1331 -0.2442 -0.0937
56735W        W99673  34.141   0.578   9.559 -0.3491  0.3712  0.0434
56736W        W99674  33.745  33.021   9.627 -0.1267 -0.0039 -0.0322
56737W        W99675   0.509  32.397   6.897 -0.2521 -0.2178 -0.0429
56738W        W99676  33.660  32.859   7.158  0.1808  0.0299 -0.0072
56739W        W99677  33.047  31.352   6.671  0.0136  0.0222 -0.0766
56740W        W99678  33.584  34.484   6.119  0.1559  0.1498  0.2186
56741W        W99679  34.024  33.236   7.333 -0.0379 -0.2001 -0.1222
56742W        W99680  34.605   0.160   8.301 -0.0331 -0.2946 -0.1090
56743W        W99681  33.672  33.357   8.816  0.1023 -0.0294 -0.0235
56744W        W99682  34.144  31.485   7.865 -0.3125 -0.0142  0.3815
56745W        W99683  34.443  32.673   7.670  0.1038 -0.1055  0.1012
56746W        W99684  33.380  34.677   8.718 -0.0421 -0.0282  0.3134
56747W        W99685  34.590  33.878   6.848  0.0963  0.1598  0.0481
56748W        W99686  34.111  32.689   7.298  0.1354  0.2198 -0.2217
56749W        W99687  34.289  33.977   8.108 -0.0377 -0.3615 -0.0099
56750W        W99688  32.610  32.504   7.521  0.1724 -0.0585 -0.0978
56751W        W99689  34.194  34.222   8.794  0.1479 -0.1083  0.1959
56752W        W99690  32.769  33.479   8.465  0.3095  0.0334 -0.3457
56753W        W99691  33.839  32.662   8.702  0.1600  0.0941  0.2176
56754W        W99692   0.427   0.061   6.963 -0.2693 -0.3615 -0.3503
56755W        W99693  33.867  32.052   8.163 -0.3635 -0.3173 -0.3170
56756W        W99694  33.377  34.551   8.248  0.0721  0.2547 -0.1406
56757W        W99695   1.364  33.278   8.579 -0.0760 -0.1696 -0.3613
56758W        W99696  32.891  32.753   7.857  0.1256 -0.1277 -0.2341
56759W        W99697  31.397  33.506   9.712  0.0587  0.1821 -0.0595
56760W        W99698   1.354  33.419   8.101  0.1205  0.0053  0.0121
56761W        W99699  32.449  34.416   8.220  0.1563  0.1681 -0.1040
56762W        W99700   0.817  33.056   7.449 -0.1015  0.2674 -0.1227
56763W        W99701  33.646  33.855   7.931 -0.0197  0.0650  0.0345
56764W        W99702  34.328  33.788   8.575 -0.3862  0.2029 -0.3078
56765W        W99703  32.799  34.436   7.486 -0.2627  0.0040 -0.0218
56766W        W99704  33.048  34.594   9.608  0.3920  0.0272 -0.1110
56767W        W99705  32.841  33.405   6.962 -0.2021 -0.2745  0.1191
56768W        W99706  34.091  33.711   9.965  0.1330 -0.0068 -0.0188
56769W        W99707  33.329  31.393   8.634  0.1019  0.1663 -0.0415
56770W        W99708   0.274  31.943   8.052  0.0635  0.0694  0.1147
56771W        W99709  32.610  31.549   7.914 -0.1448 -0.1789  0.0265
56772W        W99710  33.596   0.316   8.341  0.2327 -0.2065 -0.1857
56773W        W99711  33.424  32.464   8.902 -0.0786  0.0409 -0.0433
56774W        W99712  33.140  32.974   7.165 -0.0148  0.0751 -0.3206
56775W        W99713  33.232   0.581   8.606 -0.0140  0.1700 -0.1305
56776W        W99714   0.564  32.429   8.813 -0.3585  0.2232  0.0339
56777W        W99715   0.320  34.268   6.769  0.0604 -0.2580 -0.0363
56778W        W99716  31.847  33.568   9.341 -0.0630  0.0087  0.0570
56779W        W99717  32.677  32.893   7.077  0.0582 -0.1156 -0.2538
56780W        W99718  34.242   0.092   8.628  0.1373  0.0659 -0.0760
56781W        W99719  33.650  33.973   8.456 -0.1498  0.0853  0.2470
  34.69682  34.69682  31.98303
